Protein in water t=   0.00000 step= 0
325728
    1DG5    H5T    1   6.487   8.353   3.897
    1DG5    O5'    2   6.423   8.422   3.876
    1DG5    C5'    3   6.312   8.409   3.968
    1DG5   H5'1    4   6.340   8.366   4.064
    1DG5   H5'2    5   6.227   8.362   3.919
    1DG5    C4'    6   6.265   8.551   3.997
    1DG5    H4'    7   6.262   8.599   3.900
    1DG5    O4'    8   6.137   8.558   4.060
    1DG5    C1'    9   6.149   8.627   4.187
    1DG5    H1'   10   6.124   8.732   4.174
    1DG5     N9   11   6.052   8.573   4.289
    1DG5     C8   12   6.010   8.445   4.303
    1DG5     H8   13   6.062   8.368   4.249
    1DG5     N7   14   5.910   8.433   4.386
    1DG5     C5   15   5.879   8.559   4.428
    1DG5     C6   16   5.774   8.605   4.514
    1DG5     O6   17   5.693   8.542   4.578
    1DG5     N1   18   5.779   8.743   4.528
    1DG5     H1   19   5.707   8.791   4.580
    1DG5     C2   20   5.868   8.820   4.469
    1DG5     N2   21   5.860   8.948   4.488
    1DG5    H21   22   5.794   8.991   4.551
    1DG5    H22   23   5.922   8.998   4.425
    1DG5     N3   24   5.961   8.783   4.382
    1DG5     C4   25   5.965   8.642   4.366
    1DG5    C3'   26   6.362   8.627   4.089
    1DG5    H3'   27   6.461   8.582   4.080
    1DG5    C2'   28   6.295   8.605   4.223
    1DG5   H2'1   29   6.292   8.500   4.251
    1DG5   H2'2   30   6.327   8.677   4.299
    1DG5    O3'   31   6.367   8.757   4.043
    2DC       P   32   6.489   8.859   4.081
    2DC     O1P   33   6.490   8.963   3.976
    2DC     O2P   34   6.611   8.789   4.119
    2DC     O5'   35   6.436   8.921   4.219
    2DC     C5'   36   6.362   9.047   4.223
    2DC    H5'1   37   6.269   9.039   4.166
    2DC    H5'2   38   6.419   9.130   4.181
    2DC     C4'   39   6.326   9.073   4.371
    2DC     H4'   40   6.264   9.162   4.367
    2DC     O4'   41   6.258   8.962   4.426
    2DC     C1'   42   6.267   8.979   4.562
    2DC     H1'   43   6.218   9.075   4.578
    2DC      N1   44   6.196   8.864   4.628
    2DC      C6   45   6.239   8.739   4.588
    2DC      H6   46   6.331   8.733   4.532
    2DC      C5   47   6.172   8.630   4.635
    2DC      H5   48   6.205   8.530   4.610
    2DC      C4   49   6.066   8.653   4.729
    2DC      N4   50   6.002   8.549   4.773
    2DC     H41   51   5.929   8.562   4.842
    2DC     H42   52   6.048   8.464   4.743
    2DC      N3   53   6.015   8.773   4.750
    2DC      C2   54   6.080   8.877   4.701
    2DC      O2   55   6.036   8.991   4.735
    2DC     C3'   56   6.444   9.097   4.460
    2DC     H3'   57   6.535   9.067   4.407
    2DC     C2'   58   6.418   8.998   4.577
    2DC    H2'1   59   6.476   8.906   4.568
    2DC    H2'2   60   6.438   9.046   4.673
    2DC     O3'   61   6.440   9.234   4.504
    3DA       P   62   6.553   9.296   4.593
    3DA     O1P   63   6.552   9.443   4.554
    3DA     O2P   64   6.686   9.228   4.585
    3DA     O5'   65   6.505   9.275   4.742
    3DA     C5'   66   6.379   9.337   4.776
    3DA    H5'1   67   6.313   9.336   4.689
    3DA    H5'2   68   6.395   9.444   4.785
    3DA     C4'   69   6.307   9.280   4.896
    3DA     H4'   70   6.218   9.342   4.908
    3DA     O4'   71   6.269   9.146   4.873
    3DA     C1'   72   6.243   9.100   5.000
    3DA     H1'   73   6.138   9.118   5.024
    3DA      N9   74   6.279   8.961   5.008
    3DA      C8   75   6.377   8.895   4.940
    3DA      H8   76   6.459   8.950   4.897
    3DA      N7   77   6.364   8.766   4.950
    3DA      C5   78   6.250   8.744   5.023
    3DA      C6   79   6.173   8.633   5.071
    3DA      N6   80   6.201   8.506   5.059
    3DA     H61   81   6.134   8.442   5.100
    3DA     H62   82   6.284   8.478   5.009
    3DA      N1   83   6.056   8.647   5.142
    3DA      C2   84   6.017   8.769   5.164
    3DA      H2   85   5.922   8.788   5.212
    3DA      N3   86   6.078   8.884   5.124
    3DA      C4   87   6.196   8.860   5.051
    3DA     C3'   88   6.387   9.286   5.023
    3DA     H3'   89   6.491   9.264   5.000
    3DA     C2'   90   6.322   9.175   5.104
    3DA    H2'1   91   6.398   9.122   5.161
    3DA    H2'2   92   6.253   9.225   5.173
    3DA     O3'   93   6.383   9.419   5.075
    4DT       P   94   6.469   9.455   5.205
    4DT     O1P   95   6.452   9.603   5.234
    4DT     O2P   96   6.606   9.406   5.174
    4DT     O5'   97   6.411   9.369   5.328
    4DT     C5'   98   6.282   9.397   5.387
    4DT    H5'1   99   6.206   9.405   5.310
    4DT    H5'2  100   6.269   9.491   5.441
    4DT     C4'  101   6.240   9.276   5.475
    4DT     H4'  102   6.141   9.300   5.514
    4DT     O4'  103   6.230   9.157   5.399
    4DT     C1'  104   6.261   9.051   5.490
    4DT     H1'  105   6.172   9.035   5.551
    4DT      N1  106   6.294   8.926   5.418
    4DT      C6  107   6.411   8.918   5.352
    4DT      H6  108   6.456   9.016   5.343
    4DT      C5  109   6.464   8.807   5.296
    4DT      C7  110   6.597   8.806   5.226
    4DT     H71  111   6.605   8.727   5.151
    4DT     H72  112   6.600   8.899   5.170
    4DT     H73  113   6.678   8.794   5.298
    4DT      C4  114   6.392   8.682   5.318
    4DT      O4  115   6.421   8.566   5.280
    4DT      N3  116   6.281   8.692   5.398
    4DT      H3  117   6.230   8.606   5.412
    4DT      C2  118   6.223   8.812   5.443
    4DT      O2  119   6.112   8.814   5.502
    4DT     C3'  120   6.334   9.254   5.594
    4DT     H3'  121   6.430   9.306   5.586
    4DT     C2'  122   6.368   9.104   5.577
    4DT    H2'1  123   6.464   9.092   5.526
    4DT    H2'2  124   6.372   9.061   5.677
    4DT     O3'  125   6.263   9.297   5.713
    5DG       P  126   6.302   9.254   5.862
    5DG     O1P  127   6.252   9.366   5.949
    5DG     O2P  128   6.443   9.224   5.869
    5DG     O5'  129   6.220   9.119   5.893
    5DG     C5'  130   6.083   9.119   5.926
    5DG    H5'1  131   6.063   9.201   5.994
    5DG    H5'2  132   6.032   9.148   5.834
    5DG     C4'  133   6.022   8.988   5.975
    5DG     H4'  134   5.913   9.000   5.978
    5DG     O4'  135   6.049   8.880   5.887
    5DG     C1'  136   6.133   8.789   5.953
    5DG     H1'  137   6.073   8.706   5.990
    5DG      N9  138   6.236   8.728   5.863
    5DG      C8  139   6.341   8.791   5.797
    5DG      H8  140   6.359   8.897   5.798
    5DG      N7  141   6.417   8.707   5.724
    5DG      C5  142   6.355   8.583   5.740
    5DG      C6  143   6.385   8.458   5.693
    5DG      O6  144   6.473   8.424   5.613
    5DG      N1  145   6.313   8.355   5.750
    5DG      H1  146   6.329   8.265   5.707
    5DG      C2  147   6.199   8.382   5.823
    5DG      N2  148   6.124   8.284   5.861
    5DG     H21  149   6.153   8.188   5.850
    5DG     H22  150   6.032   8.306   5.898
    5DG      N3  151   6.153   8.507   5.853
    5DG      C4  152   6.245   8.599   5.822
    5DG     C3'  153   6.071   8.950   6.115
    5DG     H3'  154   6.107   9.036   6.171
    5DG     C2'  155   6.191   8.855   6.079
    5DG    H2'1  156   6.278   8.916   6.053
    5DG    H2'2  157   6.211   8.781   6.156
    5DG     O3'  158   5.962   8.891   6.185
    6DT       P  159   5.976   8.843   6.340
    6DT     O1P  160   5.844   8.851   6.407
    6DT     O2P  161   6.091   8.907   6.404
    6DT     O5'  162   6.005   8.682   6.333
    6DT     C5'  163   5.919   8.595   6.261
    6DT    H5'1  164   5.925   8.611   6.153
    6DT    H5'2  165   5.816   8.619   6.289
    6DT     C4'  166   5.961   8.451   6.294
    6DT     H4'  167   5.885   8.378   6.266
    6DT     O4'  168   6.065   8.418   6.205
    6DT     C1'  169   6.176   8.341   6.264
    6DT     H1'  170   6.146   8.236   6.262
    6DT      N1  171   6.301   8.371   6.184
    6DT      C6  172   6.365   8.495   6.196
    6DT      H6  173   6.317   8.569   6.258
    6DT      C5  174   6.477   8.519   6.123
    6DT      C7  175   6.551   8.647   6.131
    6DT     H71  176   6.647   8.634   6.181
    6DT     H72  177   6.576   8.687   6.032
    6DT     H73  178   6.497   8.725   6.186
    6DT      C4  179   6.530   8.421   6.033
    6DT      O4  180   6.622   8.436   5.956
    6DT      N3  181   6.472   8.294   6.041
    6DT      H3  182   6.501   8.224   5.975
    6DT      C2  183   6.356   8.263   6.110
    6DT      O2  184   6.302   8.151   6.106
    6DT     C3'  185   6.022   8.402   6.432
    6DT     H3'  186   6.009   8.487   6.498
    6DT     C2'  187   6.172   8.384   6.411
    6DT    H2'1  188   6.212   8.485   6.419
    6DT    H2'2  189   6.216   8.316   6.485
    6DT     O3'  190   5.943   8.287   6.479
    7DG       P  191   5.947   8.225   6.625
    7DG     O1P  192   5.811   8.159   6.642
    7DG     O2P  193   5.979   8.331   6.718
    7DG     O5'  194   6.060   8.115   6.621
    7DG     C5'  195   6.063   8.025   6.511
    7DG    H5'1  196   6.036   8.077   6.419
    7DG    H5'2  197   5.989   7.949   6.537
    7DG     C4'  198   6.200   7.961   6.490
    7DG     H4'  199   6.177   7.876   6.426
    7DG     O4'  200   6.285   8.046   6.426
    7DG     C1'  201   6.410   7.980   6.427
    7DG     H1'  202   6.418   7.896   6.358
    7DG      N9  203   6.506   8.080   6.394
    7DG      C8  204   6.523   8.207   6.445
    7DG      H8  205   6.467   8.251   6.527
    7DG      N7  206   6.620   8.275   6.398
    7DG      C5  207   6.671   8.187   6.303
    7DG      C6  208   6.775   8.194   6.208
    7DG      O6  209   6.844   8.292   6.176
    7DG      N1  210   6.798   8.081   6.137
    7DG      H1  211   6.870   8.093   6.067
    7DG      C2  212   6.729   7.965   6.152
    7DG      N2  213   6.771   7.862   6.085
    7DG     H21  214   6.856   7.857   6.032
    7DG     H22  215   6.727   7.777   6.116
    7DG      N3  216   6.636   7.949   6.241
    7DG      C4  217   6.613   8.061   6.313
    7DG     C3'  218   6.273   7.917   6.616
    7DG     H3'  219   6.260   7.986   6.700
    7DG     C2'  220   6.415   7.926   6.568
    7DG    H2'1  221   6.469   7.993   6.635
    7DG    H2'2  222   6.468   7.831   6.570
    7DG     O3'  223   6.228   7.787   6.646
    8DC       P  224   6.294   7.698   6.765
    8DC     O1P  225   6.191   7.622   6.831
    8DC     O2P  226   6.372   7.790   6.854
    8DC     O5'  227   6.402   7.609   6.700
    8DC     C5'  228   6.397   7.546   6.568
    8DC    H5'1  229   6.379   7.629   6.500
    8DC    H5'2  230   6.317   7.472   6.564
    8DC     C4'  231   6.528   7.479   6.516
    8DC     H4'  232   6.503   7.399   6.446
    8DC     O4'  233   6.603   7.580   6.451
    8DC     C1'  234   6.736   7.571   6.498
    8DC     H1'  235   6.788   7.516   6.419
    8DC      N1  236   6.792   7.716   6.503
    8DC      C6  237   6.749   7.805   6.590
    8DC      H6  238   6.689   7.778   6.676
    8DC      C5  239   6.790   7.932   6.588
    8DC      H5  240   6.754   8.003   6.661
    8DC      C4  241   6.883   7.968   6.487
    8DC      N4  242   6.935   8.089   6.479
    8DC     H41  243   7.013   8.107   6.417
    8DC     H42  244   6.918   8.163   6.546
    8DC      N3  245   6.931   7.878   6.399
    8DC      C2  246   6.876   7.757   6.403
    8DC      O2  247   6.907   7.692   6.303
    8DC     C3'  248   6.620   7.411   6.617
    8DC     H3'  249   6.577   7.374   6.711
    8DC     C2'  250   6.725   7.514   6.638
    8DC    H2'1  251   6.693   7.577   6.721
    8DC    H2'2  252   6.815   7.466   6.676
    8DC     O3'  253   6.683   7.305   6.549
    9DG       P  254   6.745   7.171   6.622
    9DG     O1P  255   6.650   7.062   6.601
    9DG     O2P  256   6.782   7.205   6.760
    9DG     O5'  257   6.879   7.150   6.543
    9DG     C5'  258   6.880   7.092   6.416
    9DG    H5'1  259   6.804   7.142   6.355
    9DG    H5'2  260   6.867   6.984   6.410
    9DG     C4'  261   7.012   7.115   6.342
    9DG     H4'  262   6.993   7.087   6.238
    9DG     O4'  263   7.044   7.257   6.331
    9DG     C1'  264   7.161   7.287   6.402
    9DG     H1'  265   7.235   7.308   6.325
    9DG      N9  266   7.133   7.409   6.481
    9DG      C8  267   7.054   7.421   6.589
    9DG      H8  268   6.997   7.345   6.640
    9DG      N7  269   7.054   7.545   6.633
    9DG      C5  270   7.137   7.615   6.546
    9DG      C6  271   7.189   7.748   6.551
    9DG      O6  272   7.173   7.835   6.631
    9DG      N1  273   7.289   7.769   6.458
    9DG      H1  274   7.335   7.858   6.467
    9DG      C2  275   7.338   7.685   6.364
    9DG      N2  276   7.424   7.731   6.271
    9DG     H21  277   7.457   7.823   6.295
    9DG     H22  278   7.459   7.663   6.204
    9DG      N3  279   7.292   7.554   6.356
    9DG      C4  280   7.191   7.528   6.456
    9DG     C3'  281   7.138   7.045   6.391
    9DG     H3'  282   7.121   6.955   6.449
    9DG     C2'  283   7.194   7.164   6.484
    9DG    H2'1  284   7.141   7.160   6.579
    9DG    H2'2  285   7.300   7.150   6.503
    9DG     O3'  286   7.220   7.018   6.277
   10DT       P  287   7.349   6.925   6.285
   10DT     O1P  288   7.374   6.877   6.152
   10DT     O2P  289   7.326   6.819   6.387
   10DT     O5'  290   7.475   7.015   6.318
   10DT     C5'  291   7.518   7.129   6.240
   10DT    H5'1  292   7.433   7.165   6.182
   10DT    H5'2  293   7.596   7.098   6.171
   10DT     C4'  294   7.581   7.243   6.322
   10DT     H4'  295   7.635   7.308   6.253
   10DT     O4'  296   7.482   7.333   6.384
   10DT     C1'  297   7.550   7.419   6.470
   10DT     H1'  298   7.585   7.505   6.413
   10DT      N1  299   7.478   7.477   6.585
   10DT      C6  300   7.423   7.396   6.682
   10DT      H6  301   7.413   7.289   6.672
   10DT      C5  302   7.382   7.450   6.798
   10DT      C7  303   7.331   7.361   6.909
   10DT     H71  304   7.227   7.392   6.912
   10DT     H72  305   7.356   7.257   6.885
   10DT     H73  306   7.376   7.373   7.008
   10DT      C4  307   7.384   7.596   6.823
   10DT      O4  308   7.331   7.660   6.914
   10DT      N3  309   7.456   7.661   6.725
   10DT      H3  310   7.486   7.755   6.747
   10DT      C2  311   7.509   7.605   6.612
   10DT      O2  312   7.602   7.669   6.557
   10DT     C3'  313   7.680   7.208   6.429
   10DT     H3'  314   7.650   7.120   6.485
   10DT     C2'  315   7.675   7.340   6.518
   10DT    H2'1  316   7.673   7.324   6.625
   10DT    H2'2  317   7.767   7.397   6.505
   10DT     O3'  318   7.812   7.189   6.369
   11DA       P  319   7.943   7.166   6.456
   11DA     O1P  320   8.044   7.135   6.356
   11DA     O2P  321   7.925   7.065   6.564
   11DA     O5'  322   7.986   7.300   6.528
   11DA     C5'  323   8.079   7.382   6.463
   11DA    H5'1  324   8.054   7.390   6.357
   11DA    H5'2  325   8.175   7.332   6.466
   11DA     C4'  326   8.091   7.527   6.515
   11DA     H4'  327   8.136   7.594   6.441
   11DA     O4'  328   7.962   7.571   6.560
   11DA     C1'  329   7.971   7.665   6.663
   11DA     H1'  330   7.951   7.768   6.634
   11DA      N9  331   7.873   7.638   6.772
   11DA      C8  332   7.807   7.518   6.791
   11DA      H8  333   7.838   7.431   6.736
   11DA      N7  334   7.715   7.528   6.887
   11DA      C5  335   7.733   7.659   6.940
   11DA      C6  336   7.678   7.737   7.040
   11DA      N6  337   7.571   7.706   7.111
   11DA     H61  338   7.535   7.775   7.176
   11DA     H62  339   7.528   7.616   7.093
   11DA      N1  340   7.718   7.864   7.062
   11DA      C2  341   7.816   7.904   6.982
   11DA      H2  342   7.849   8.007   6.990
   11DA      N3  343   7.882   7.843   6.889
   11DA      C4  344   7.826   7.724   6.864
   11DA     C3'  345   8.167   7.521   6.649
   11DA     H3'  346   8.142   7.433   6.708
   11DA     C2'  347   8.115   7.648   6.716
   11DA    H2'1  348   8.121   7.646   6.825
   11DA    H2'2  349   8.179   7.733   6.695
   11DA     O3'  350   8.303   7.527   6.634
   12DT       P  351   8.407   7.493   6.750
   12DT     O1P  352   8.544   7.479   6.696
   12DT     O2P  353   8.358   7.374   6.831
   12DT     O5'  354   8.397   7.616   6.858
   12DT     C5'  355   8.433   7.743   6.804
   12DT    H5'1  356   8.383   7.765   6.710
   12DT    H5'2  357   8.539   7.741   6.780
   12DT     C4'  358   8.407   7.860   6.904
   12DT     H4'  359   8.419   7.961   6.864
   12DT     O4'  360   8.269   7.854   6.928
   12DT     C1'  361   8.248   7.901   7.053
   12DT     H1'  362   8.189   7.992   7.047
   12DT      N1  363   8.153   7.802   7.116
   12DT      C6  364   8.150   7.663   7.090
   12DT      H6  365   8.214   7.620   7.015
   12DT      C5  366   8.058   7.591   7.154
   12DT      C7  367   8.051   7.442   7.120
   12DT     H71  368   7.965   7.435   7.053
   12DT     H72  369   8.140   7.423   7.059
   12DT     H73  370   8.051   7.373   7.204
   12DT      C4  371   7.963   7.640   7.255
   12DT      O4  372   7.874   7.570   7.306
   12DT      N3  373   7.980   7.773   7.275
   12DT      H3  374   7.908   7.822   7.325
   12DT      C2  375   8.060   7.857   7.204
   12DT      O2  376   8.057   7.979   7.232
   12DT     C3'  377   8.481   7.863   7.041
   12DT     H3'  378   8.497   7.755   7.050
   12DT     C2'  379   8.376   7.916   7.132
   12DT    H2'1  380   8.370   7.871   7.231
   12DT    H2'2  381   8.391   8.023   7.147
   12DT     O3'  382   8.603   7.926   7.037
   13DG       P  383   8.714   7.907   7.149
   13DG     O1P  384   8.811   8.015   7.131
   13DG     O2P  385   8.764   7.770   7.141
   13DG     O5'  386   8.638   7.921   7.291
   13DG     C5'  387   8.614   8.047   7.359
   13DG    H5'1  388   8.556   8.103   7.286
   13DG    H5'2  389   8.707   8.103   7.370
   13DG     C4'  390   8.540   8.038   7.494
   13DG     H4'  391   8.516   8.137   7.533
   13DG     O4'  392   8.418   7.967   7.476
   13DG     C1'  393   8.401   7.873   7.581
   13DG     H1'  394   8.366   7.924   7.670
   13DG      N9  395   8.309   7.762   7.548
   13DG      C8  396   8.337   7.639   7.489
   13DG      H8  397   8.434   7.619   7.447
   13DG      N7  398   8.235   7.558   7.475
   13DG      C5  399   8.135   7.625   7.543
   13DG      C6  400   8.006   7.580   7.584
   13DG      O6  401   7.947   7.472   7.565
   13DG      N1  402   7.933   7.676   7.649
   13DG      H1  403   7.848   7.650   7.695
   13DG      C2  404   7.978   7.803   7.683
   13DG      N2  405   7.901   7.881   7.749
   13DG     H21  406   7.812   7.848   7.783
   13DG     H22  407   7.947   7.961   7.791
   13DG      N3  408   8.099   7.851   7.653
   13DG      C4  409   8.174   7.754   7.586
   13DG     C3'  410   8.617   7.956   7.599
   13DG     H3'  411   8.722   7.946   7.574
   13DG     C2'  412   8.541   7.830   7.589
   13DG    H2'1  413   8.574   7.773   7.502
   13DG    H2'2  414   8.545   7.769   7.679
   13DG     O3'  415   8.597   8.009   7.732
   14DC       P  416   8.680   8.124   7.793
   14DC     O1P  417   8.711   8.223   7.685
   14DC     O2P  418   8.784   8.067   7.877
   14DC     O5'  419   8.580   8.194   7.906
   14DC     C5'  420   8.464   8.271   7.885
   14DC    H5'1  421   8.438   8.260   7.779
   14DC    H5'2  422   8.496   8.375   7.893
   14DC     C4'  423   8.344   8.234   7.972
   14DC     H4'  424   8.266   8.306   7.949
   14DC     O4'  425   8.303   8.097   7.932
   14DC     C1'  426   8.292   8.024   8.053
   14DC     H1'  427   8.196   8.051   8.097
   14DC      N1  428   8.292   7.876   8.023
   14DC      C6  429   8.402   7.808   7.976
   14DC      H6  430   8.498   7.858   7.979
   14DC      C5  431   8.399   7.684   7.917
   14DC      H5  432   8.489   7.640   7.877
   14DC      C4  433   8.268   7.623   7.914
   14DC      N4  434   8.244   7.508   7.859
   14DC     H41  435   8.150   7.470   7.865
   14DC     H42  436   8.326   7.454   7.833
   14DC      N3  437   8.159   7.687   7.953
   14DC      C2  438   8.167   7.812   8.001
   14DC      O2  439   8.063   7.865   8.039
   14DC     C3'  440   8.379   8.230   8.118
   14DC     H3'  441   8.468   8.287   8.147
   14DC     C2'  442   8.402   8.081   8.132
   14DC    H2'1  443   8.498   8.046   8.093
   14DC    H2'2  444   8.393   8.054   8.238
   14DC     O3'  445   8.260   8.266   8.193
   15DG       P  446   8.256   8.276   8.360
   15DG     O1P  447   8.178   8.391   8.408
   15DG     O2P  448   8.398   8.263   8.410
   15DG     O5'  449   8.178   8.144   8.408
   15DG     C5'  450   8.052   8.118   8.348
   15DG    H5'1  451   8.051   8.061   8.255
   15DG    H5'2  452   8.010   8.215   8.321
   15DG     C4'  453   7.949   8.051   8.441
   15DG     H4'  454   7.859   8.111   8.433
   15DG     O4'  455   7.933   7.918   8.415
   15DG     C1'  456   8.017   7.839   8.498
   15DG     H1'  457   7.956   7.764   8.549
   15DG      N9  458   8.110   7.763   8.418
   15DG      C8  459   8.234   7.798   8.366
   15DG      H8  460   8.274   7.897   8.383
   15DG      N7  461   8.289   7.703   8.295
   15DG      C5  462   8.200   7.600   8.297
   15DG      C6  463   8.201   7.475   8.232
   15DG      O6  464   8.286   7.425   8.161
   15DG      N1  465   8.076   7.407   8.244
   15DG      H1  466   8.069   7.313   8.209
   15DG      C2  467   7.982   7.447   8.331
   15DG      N2  468   7.878   7.365   8.351
   15DG     H21  469   7.883   7.271   8.316
   15DG     H22  470   7.819   7.389   8.430
   15DG      N3  471   7.987   7.556   8.400
   15DG      C4  472   8.095   7.638   8.372
   15DG     C3'  473   7.983   8.052   8.593
   15DG     H3'  474   8.035   8.144   8.620
   15DG     C2'  475   8.066   7.934   8.598
   15DG    H2'1  476   8.169   7.960   8.576
   15DG    H2'2  477   8.064   7.883   8.695
   15DG     O3'  478   7.860   8.046   8.659
   16DT       P  479   7.847   8.043   8.827
   16DT     O1P  480   7.711   8.084   8.858
   16DT     O2P  481   7.962   8.120   8.885
   16DT     O5'  482   7.878   7.895   8.879
   16DT     C5'  483   7.786   7.790   8.842
   16DT    H5'1  484   7.749   7.809   8.741
   16DT    H5'2  485   7.697   7.805   8.903
   16DT     C4'  486   7.835   7.644   8.864
   16DT     H4'  487   7.744   7.586   8.846
   16DT     O4'  488   7.933   7.616   8.763
   16DT     C1'  489   7.989   7.495   8.810
   16DT     H1'  490   7.911   7.420   8.798
   16DT      N1  491   8.101   7.471   8.719
   16DT      C6  492   8.200   7.562   8.707
   16DT      H6  493   8.185   7.653   8.763
   16DT      C5  494   8.315   7.546   8.638
   16DT      C7  495   8.415   7.660   8.629
   16DT     H71  496   8.441   7.681   8.526
   16DT     H72  497   8.370   7.746   8.680
   16DT     H73  498   8.505   7.638   8.687
   16DT      C4  499   8.330   7.420   8.559
   16DT      O4  500   8.417   7.397   8.478
   16DT      N3  501   8.214   7.347   8.552
   16DT      H3  502   8.216   7.264   8.494
   16DT      C2  503   8.103   7.354   8.636
   16DT      O2  504   8.016   7.263   8.643
   16DT     C3'  505   7.904   7.607   8.995
   16DT     H3'  506   7.951   7.700   9.026
   16DT     C2'  507   8.014   7.511   8.956
   16DT    H2'1  508   8.110   7.559   8.978
   16DT    H2'2  509   8.003   7.415   9.005
   16DT     O3'  510   7.800   7.567   9.087
   17DT       P  511   7.825   7.481   9.224
   17DT     O1P  512   7.693   7.490   9.288
   17DT     O2P  513   7.943   7.543   9.291
   17DT     O5'  514   7.858   7.329   9.184
   17DT     C5'  515   7.780   7.260   9.099
   17DT    H5'1  516   7.758   7.315   9.007
   17DT    H5'2  517   7.687   7.239   9.152
   17DT     C4'  518   7.840   7.122   9.052
   17DT     H4'  519   7.760   7.067   9.002
   17DT     O4'  520   7.949   7.150   8.964
   17DT     C1'  521   8.062   7.074   9.007
   17DT     H1'  522   8.051   6.969   8.977
   17DT      N1  523   8.185   7.137   8.959
   17DT      C6  524   8.235   7.253   9.014
   17DT      H6  525   8.182   7.305   9.093
   17DT      C5  526   8.343   7.318   8.967
   17DT      C7  527   8.378   7.451   9.030
   17DT     H71  528   8.362   7.535   8.963
   17DT     H72  529   8.313   7.477   9.113
   17DT     H73  530   8.479   7.448   9.069
   17DT      C4  531   8.416   7.264   8.855
   17DT      O4  532   8.517   7.314   8.813
   17DT      N3  533   8.359   7.158   8.792
   17DT      H3  534   8.414   7.113   8.721
   17DT      C2  535   8.245   7.086   8.840
   17DT      O2  536   8.200   6.988   8.775
   17DT     C3'  537   7.891   7.035   9.170
   17DT     H3'  538   7.836   7.067   9.258
   17DT     C2'  539   8.043   7.065   9.156
   17DT    H2'1  540   8.056   7.165   9.198
   17DT    H2'2  541   8.107   6.987   9.199
   17DT     O3'  542   7.865   6.898   9.139
   18DA       P  543   7.899   6.776   9.240
   18DA     O1P  544   7.798   6.672   9.221
   18DA     O2P  545   7.940   6.832   9.371
   18DA     O5'  546   8.044   6.727   9.178
   18DA     C5'  547   8.054   6.622   9.082
   18DA    H5'1  548   8.010   6.649   8.986
   18DA    H5'2  549   8.004   6.534   9.123
   18DA     C4'  550   8.200   6.579   9.055
   18DA     H4'  551   8.189   6.485   9.001
   18DA     O4'  552   8.283   6.681   8.987
   18DA     C1'  553   8.398   6.695   9.068
   18DA     H1'  554   8.466   6.616   9.038
   18DA      N9  555   8.476   6.816   9.060
   18DA      C8  556   8.455   6.935   9.124
   18DA      H8  557   8.382   6.960   9.199
   18DA      N7  558   8.536   7.031   9.084
   18DA      C5  559   8.606   6.970   8.982
   18DA      C6  560   8.716   7.010   8.897
   18DA      N6  561   8.772   7.128   8.892
   18DA     H61  562   8.843   7.138   8.821
   18DA     H62  563   8.742   7.212   8.939
   18DA      N1  564   8.768   6.923   8.810
   18DA      C2  565   8.710   6.801   8.801
   18DA      H2  566   8.760   6.729   8.737
   18DA      N3  567   8.606   6.749   8.864
   18DA      C4  568   8.565   6.840   8.953
   18DA     C3'  569   8.272   6.537   9.185
   18DA     H3'  570   8.201   6.512   9.265
   18DA     C2'  571   8.345   6.672   9.211
   18DA    H2'1  572   8.278   6.754   9.235
   18DA    H2'2  573   8.426   6.672   9.284
   18DA     O3'  574   8.368   6.431   9.175
   19DT       P  575   8.335   6.282   9.171
   19DT     O1P  576   8.187   6.260   9.141
   19DT     O2P  577   8.392   6.231   9.294
   19DT     O5'  578   8.425   6.231   9.052
   19DT     C5'  579   8.391   6.237   8.916
   19DT    H5'1  580   8.345   6.332   8.888
   19DT    H5'2  581   8.312   6.162   8.905
   19DT     C4'  582   8.508   6.217   8.817
   19DT     H4'  583   8.464   6.192   8.720
   19DT     O4'  584   8.578   6.339   8.808
   19DT     C1'  585   8.709   6.315   8.856
   19DT     H1'  586   8.763   6.317   8.762
   19DT      N1  587   8.761   6.436   8.938
   19DT      C6  588   8.712   6.463   9.064
   19DT      H6  589   8.636   6.398   9.105
   19DT      C5  590   8.750   6.569   9.135
   19DT      C7  591   8.694   6.599   9.285
   19DT     H71  592   8.765   6.587   9.367
   19DT     H72  593   8.657   6.701   9.296
   19DT     H73  594   8.615   6.531   9.316
   19DT      C4  595   8.848   6.663   9.077
   19DT      O4  596   8.889   6.764   9.127
   19DT      N3  597   8.899   6.631   8.958
   19DT      H3  598   8.987   6.673   8.932
   19DT      C2  599   8.851   6.526   8.877
   19DT      O2  600   8.887   6.516   8.757
   19DT     C3'  601   8.598   6.105   8.861
   19DT     H3'  602   8.556   6.033   8.930
   19DT     C2'  603   8.717   6.181   8.924
   19DT    H2'1  604   8.700   6.197   9.030
   19DT    H2'2  605   8.812   6.136   8.896
   19DT     O3'  606   8.649   6.035   8.741
   20DG       P  607   8.748   5.910   8.735
   20DG     O1P  608   8.747   5.852   8.600
   20DG     O2P  609   8.725   5.825   8.849
   20DG     O5'  610   8.901   5.966   8.746
   20DG     C5'  611   8.942   6.058   8.647
   20DG    H5'1  612   8.864   6.134   8.633
   20DG    H5'2  613   8.955   6.017   8.547
   20DG     C4'  614   9.076   6.123   8.687
   20DG     H4'  615   9.126   6.143   8.592
   20DG     O4'  616   9.059   6.243   8.763
   20DG     C1'  617   9.150   6.217   8.876
   20DG     H1'  618   9.249   6.248   8.845
   20DG      N9  619   9.116   6.287   9.002
   20DG      C8  620   9.031   6.253   9.102
   20DG      H8  621   8.964   6.168   9.098
   20DG      N7  622   9.038   6.344   9.197
   20DG      C5  623   9.124   6.442   9.165
   20DG      C6  624   9.175   6.561   9.227
   20DG      O6  625   9.138   6.611   9.332
   20DG      N1  626   9.279   6.623   9.157
   20DG      H1  627   9.327   6.705   9.190
   20DG      C2  628   9.330   6.570   9.043
   20DG      N2  629   9.439   6.618   9.000
   20DG     H21  630   9.494   6.689   9.045
   20DG     H22  631   9.472   6.584   8.911
   20DG      N3  632   9.280   6.466   8.972
   20DG      C4  633   9.180   6.399   9.044
   20DG     C3'  634   9.168   6.023   8.763
   20DG     H3'  635   9.126   5.923   8.755
   20DG     C2'  636   9.153   6.072   8.907
   20DG    H2'1  637   9.058   6.033   8.943
   20DG    H2'2  638   9.236   6.042   8.971
   20DG     O3'  639   9.308   6.024   8.713
   21DC       P  640   9.372   5.890   8.648
   21DC     O1P  641   9.306   5.866   8.522
   21DC     O2P  642   9.369   5.787   8.748
   21DC     O5'  643   9.517   5.943   8.629
   21DC     C5'  644   9.560   6.032   8.531
   21DC    H5'1  645   9.475   6.093   8.501
   21DC    H5'2  646   9.606   5.978   8.449
   21DC     C4'  647   9.665   6.128   8.601
   21DC     H4'  648   9.699   6.198   8.526
   21DC     O4'  649   9.602   6.222   8.694
   21DC     C1'  650   9.688   6.229   8.809
   21DC     H1'  651   9.752   6.316   8.799
   21DC      N1  652   9.607   6.236   8.937
   21DC      C6  653   9.519   6.132   8.967
   21DC      H6  654   9.506   6.044   8.906
   21DC      C5  655   9.452   6.137   9.086
   21DC      H5  656   9.394   6.052   9.117
   21DC      C4  657   9.474   6.248   9.169
   21DC      N4  658   9.420   6.252   9.286
   21DC     H41  659   9.468   6.299   9.361
   21DC     H42  660   9.346   6.188   9.313
   21DC      N3  661   9.565   6.340   9.145
   21DC      C2  662   9.633   6.334   9.028
   21DC      O2  663   9.721   6.415   9.010
   21DC     C3'  664   9.785   6.066   8.668
   21DC     H3'  665   9.780   5.958   8.656
   21DC     C2'  666   9.784   6.115   8.810
   21DC    H2'1  667   9.746   6.032   8.870
   21DC    H2'2  668   9.885   6.148   8.835
   21DC     O3'  669   9.906   6.116   8.600
   22DG       P  670  10.049   6.037   8.615
   22DG     O1P  671  10.139   6.054   8.502
   22DG     O2P  672  10.021   5.898   8.654
   22DG     O5'  673  10.115   6.106   8.744
   22DG     C5'  674  10.148   6.240   8.750
   22DG    H5'1  675  10.060   6.304   8.746
   22DG    H5'2  676  10.218   6.262   8.669
   22DG     C4'  677  10.217   6.275   8.887
   22DG     H4'  678  10.282   6.359   8.866
   22DG     O4'  679  10.119   6.306   8.982
   22DG     C1'  680  10.125   6.221   9.083
   22DG     H1'  681  10.192   6.254   9.164
   22DG      N9  682   9.995   6.196   9.154
   22DG      C8  683   9.900   6.098   9.126
   22DG      H8  684   9.906   6.026   9.046
   22DG      N7  685   9.811   6.089   9.220
   22DG      C5  686   9.842   6.198   9.312
   22DG      C6  687   9.771   6.242   9.428
   22DG      O6  688   9.664   6.204   9.478
   22DG      N1  689   9.831   6.353   9.488
   22DG      H1  690   9.782   6.388   9.569
   22DG      C2  691   9.941   6.407   9.438
   22DG      N2  692   9.975   6.510   9.501
   22DG     H21  693   9.915   6.544   9.575
   22DG     H22  694  10.063   6.557   9.485
   22DG      N3  695  10.017   6.369   9.333
   22DG      C4  696   9.956   6.265   9.271
   22DG     C3'  697  10.298   6.158   8.945
   22DG     H3'  698  10.331   6.093   8.865
   22DG     C2'  699  10.194   6.093   9.033
   22DG    H2'1  700  10.131   6.033   8.967
   22DG    H2'2  701  10.238   6.029   9.110
   22DG     O3'  702  10.404   6.205   9.017
   23DC       P  703  10.539   6.242   8.937
   23DC     O1P  704  10.528   6.353   8.844
   23DC     O2P  705  10.598   6.120   8.882
   23DC     O5'  706  10.631   6.277   9.053
   23DC     C5'  707  10.627   6.406   9.122
   23DC    H5'1  708  10.535   6.456   9.093
   23DC    H5'2  709  10.715   6.466   9.099
   23DC     C4'  710  10.616   6.400   9.274
   23DC     H4'  711  10.658   6.491   9.317
   23DC     O4'  712  10.480   6.380   9.317
   23DC     C1'  713  10.476   6.270   9.407
   23DC     H1'  714  10.500   6.305   9.508
   23DC      N1  715  10.336   6.200   9.425
   23DC      C6  716  10.316   6.081   9.360
   23DC      H6  717  10.376   6.043   9.279
   23DC      C5  718  10.217   6.002   9.397
   23DC      H5  719  10.203   5.911   9.342
   23DC      C4  720  10.133   6.049   9.499
   23DC      N4  721  10.041   5.965   9.547
   23DC     H41  722   9.972   5.991   9.617
   23DC     H42  723  10.034   5.870   9.514
   23DC      N3  724  10.150   6.167   9.565
   23DC      C2  725  10.255   6.238   9.530
   23DC      O2  726  10.273   6.344   9.587
   23DC     C3'  727  10.700   6.287   9.336
   23DC     H3'  728  10.778   6.247   9.271
   23DC     C2'  729  10.589   6.185   9.356
   23DC    H2'1  730  10.559   6.135   9.264
   23DC    H2'2  731  10.622   6.125   9.440
   23DC     O3'  732  10.760   6.310   9.467
   24DG       P  733  10.913   6.358   9.489
   24DG     O1P  734  10.944   6.468   9.399
   24DG     O2P  735  11.005   6.237   9.483
   24DG     O5'  736  10.910   6.415   9.644
   24DG     C5'  737  10.864   6.542   9.690
   24DG    H5'1  738  10.806   6.582   9.607
   24DG    H5'2  739  10.953   6.600   9.714
   24DG     C4'  740  10.767   6.531   9.811
   24DG     H4'  741  10.730   6.631   9.833
   24DG     O4'  742  10.653   6.451   9.774
   24DG     C1'  743  10.623   6.360   9.880
   24DG     H1'  744  10.552   6.415   9.943
   24DG      N9  745  10.563   6.241   9.824
   24DG      C8  746  10.614   6.163   9.718
   24DG      H8  747  10.704   6.195   9.668
   24DG      N7  748  10.547   6.057   9.691
   24DG      C5  749  10.442   6.060   9.785
   24DG      C6  750  10.322   5.982   9.790
   24DG      O6  751  10.286   5.884   9.719
   24DG      N1  752  10.237   6.024   9.894
   24DG      H1  753  10.166   5.955   9.915
   24DG      C2  754  10.256   6.131   9.976
   24DG      N2  755  10.163   6.164  10.056
   24DG     H21  756  10.081   6.105  10.052
   24DG     H22  757  10.177   6.231  10.129
   24DG      N3  758  10.366   6.208   9.966
   24DG      C4  759  10.450   6.170   9.866
   24DG     C3'  760  10.835   6.466   9.932
   24DG     H3'  761  10.938   6.431   9.920
   24DG     C2'  762  10.754   6.339   9.963
   24DG    H2'1  763  10.810   6.250   9.933
   24DG    H2'2  764  10.720   6.324  10.065
   24DG     O3'  765  10.839   6.569  10.033
   25DT       P  766  10.913   6.555  10.177
   25DT     O1P  767  10.939   6.691  10.223
   25DT     O2P  768  11.034   6.471  10.157
   25DT     O5'  769  10.806   6.480  10.272
   25DT     C5'  770  10.671   6.513  10.271
   25DT    H5'1  771  10.649   6.519  10.165
   25DT    H5'2  772  10.655   6.615  10.308
   25DT     C4'  773  10.567   6.428  10.335
   25DT     H4'  774  10.475   6.481  10.358
   25DT     O4'  775  10.541   6.324  10.241
   25DT     C1'  776  10.543   6.199  10.314
   25DT     H1'  777  10.456   6.198  10.380
   25DT      N1  778  10.560   6.085  10.225
   25DT      C6  779  10.685   6.061  10.167
   25DT      H6  780  10.771   6.124  10.186
   25DT      C5  781  10.701   5.953  10.088
   25DT      C7  782  10.836   5.923  10.029
   25DT     H71  783  10.872   5.824  10.056
   25DT     H72  784  10.835   5.928   9.920
   25DT     H73  785  10.910   5.987  10.077
   25DT      C4  786  10.587   5.877  10.052
   25DT      O4  787  10.578   5.784   9.973
   25DT      N3  788  10.471   5.906  10.119
   25DT      H3  789  10.390   5.849  10.098
   25DT      C2  790  10.449   6.001  10.210
   25DT      O2  791  10.340   6.005  10.264
   25DT     C3'  792  10.616   6.362  10.459
   25DT     H3'  793  10.701   6.420  10.497
   25DT     C2'  794  10.658   6.223  10.412
   25DT    H2'1  795  10.761   6.217  10.377
   25DT    H2'2  796  10.645   6.156  10.497
   25DT     O3'  797  10.521   6.342  10.567
   26DG       P  798  10.535   6.428  10.704
   26DG     O1P  799  10.478   6.561  10.670
   26DG     O2P  800  10.673   6.414  10.759
   26DG     O5'  801  10.439   6.357  10.814
   26DG     C5'  802  10.296   6.357  10.793
   26DG    H5'1  803  10.263   6.362  10.689
   26DG    H5'2  804  10.249   6.442  10.843
   26DG     C4'  805  10.231   6.229  10.838
   26DG     H4'  806  10.124   6.240  10.854
   26DG     O4'  807  10.254   6.139  10.731
   26DG     C1'  808  10.294   6.017  10.780
   26DG     H1'  809  10.207   5.957  10.805
   26DG      N9  810  10.380   5.946  10.684
   26DG      C8  811  10.509   5.977  10.657
   26DG      H8  812  10.553   6.061  10.707
   26DG      N7  813  10.563   5.912  10.559
   26DG      C5  814  10.464   5.824  10.521
   26DG      C6  815  10.462   5.718  10.424
   26DG      O6  816  10.561   5.673  10.361
   26DG      N1  817  10.346   5.648  10.417
   26DG      H1  818  10.350   5.565  10.360
   26DG      C2  819  10.237   5.671  10.493
   26DG      N2  820  10.143   5.585  10.482
   26DG     H21  821  10.155   5.502  10.426
   26DG     H22  822  10.072   5.587  10.554
   26DG      N3  823  10.225   5.773  10.579
   26DG      C4  824  10.349   5.839  10.602
   26DG     C3'  825  10.282   6.170  10.969
   26DG     H3'  826  10.365   6.232  11.004
   26DG     C2'  827  10.351   6.044  10.921
   26DG    H2'1  828  10.458   6.058  10.908
   26DG    H2'2  829  10.339   5.951  10.977
   26DG     O3'  830  10.187   6.165  11.076
   27DC       P  831  10.203   6.091  11.217
   27DC     O1P  832  10.092   6.131  11.301
   27DC     O2P  833  10.342   6.093  11.269
   27DC     O5'  834  10.176   5.934  11.176
   27DC     C5'  835  10.062   5.904  11.096
   27DC    H5'1  836  10.062   5.977  11.015
   27DC    H5'2  837   9.978   5.916  11.165
   27DC     C4'  838  10.060   5.760  11.043
   27DC     H4'  839   9.969   5.743  10.986
   27DC     O4'  840  10.163   5.745  10.943
   27DC     C1'  841  10.214   5.613  10.943
   27DC     H1'  842  10.156   5.553  10.873
   27DC      N1  843  10.359   5.601  10.914
   27DC      C6  844  10.442   5.697  10.956
   27DC      H6  845  10.411   5.768  11.031
   27DC      C5  846  10.565   5.712  10.899
   27DC      H5  847  10.638   5.786  10.928
   27DC      C4  848  10.605   5.608  10.807
   27DC      N4  849  10.714   5.625  10.747
   27DC     H41  850  10.730   5.546  10.686
   27DC     H42  851  10.782   5.696  10.771
   27DC      N3  852  10.529   5.506  10.780
   27DC      C2  853  10.402   5.504  10.826
   27DC      O2  854  10.326   5.421  10.790
   27DC     C3'  855  10.077   5.651  11.149
   27DC     H3'  856  10.128   5.694  11.235
   27DC     C2'  857  10.174   5.556  11.077
   27DC    H2'1  858  10.257   5.540  11.145
   27DC    H2'2  859  10.127   5.459  11.058
   27DC     O3'  860   9.961   5.579  11.194
   28DG       P  861   9.963   5.476  11.317
   28DG     O1P  862   9.821   5.450  11.351
   28DG     O2P  863  10.050   5.543  11.417
   28DG     O5'  864  10.031   5.341  11.266
   28DG     C5'  865   9.965   5.267  11.166
   28DG    H5'1  866   9.956   5.333  11.079
   28DG    H5'2  867   9.868   5.230  11.197
   28DG     C4'  868  10.043   5.142  11.122
   28DG     H4'  869   9.974   5.083  11.061
   28DG     O4'  870  10.158   5.186  11.062
   28DG     C1'  871  10.275   5.126  11.121
   28DG     H1'  872  10.298   5.036  11.064
   28DG      N9  873  10.387   5.226  11.103
   28DG      C8  874  10.414   5.342  11.172
   28DG      H8  875  10.352   5.379  11.252
   28DG      N7  876  10.527   5.399  11.138
   28DG      C5  877  10.575   5.321  11.032
   28DG      C6  878  10.694   5.326  10.949
   28DG      O6  879  10.781   5.409  10.954
   28DG      N1  880  10.705   5.224  10.859
   28DG      H1  881  10.786   5.219  10.798
   28DG      C2  882  10.627   5.117  10.865
   28DG      N2  883  10.657   5.021  10.784
   28DG     H21  884  10.745   5.026  10.734
   28DG     H22  885  10.601   4.938  10.783
   28DG      N3  886  10.512   5.107  10.927
   28DG      C4  887  10.487   5.214  11.009
   28DG     C3'  888  10.087   5.050  11.238
   28DG     H3'  889  10.021   5.059  11.324
   28DG     C2'  890  10.231   5.096  11.264
   28DG    H2'1  891  10.217   5.183  11.328
   28DG    H2'2  892  10.277   5.007  11.308
   28DG     O3'  893  10.083   4.912  11.207
   29DT       P  894  10.077   4.792  11.316
   29DT     O1P  895   9.952   4.719  11.294
   29DT     O2P  896  10.095   4.836  11.453
   29DT     O5'  897  10.199   4.709  11.265
   29DT     C5'  898  10.219   4.658  11.128
   29DT    H5'1  899  10.177   4.730  11.058
   29DT    H5'2  900  10.166   4.566  11.107
   29DT     C4'  901  10.366   4.627  11.089
   29DT     H4'  902  10.370   4.570  10.996
   29DT     O4'  903  10.431   4.749  11.083
   29DT     C1'  904  10.557   4.725  11.156
   29DT     H1'  905  10.612   4.663  11.086
   29DT      N1  906  10.631   4.846  11.197
   29DT      C6  907  10.574   4.928  11.291
   29DT      H6  908  10.475   4.903  11.327
   29DT      C5  909  10.638   5.035  11.341
   29DT      C7  910  10.569   5.115  11.448
   29DT     H71  911  10.501   5.182  11.397
   29DT     H72  912  10.521   5.044  11.515
   29DT     H73  913  10.639   5.176  11.505
   29DT      C4  914  10.762   5.074  11.278
   29DT      O4  915  10.830   5.168  11.311
   29DT      N3  916  10.806   4.994  11.177
   29DT      H3  917  10.897   5.020  11.140
   29DT      C2  918  10.746   4.886  11.132
   29DT      O2  919  10.802   4.819  11.041
   29DT     C3'  920  10.421   4.543  11.199
   29DT     H3'  921  10.348   4.496  11.264
   29DT     C2'  922  10.518   4.637  11.275
   29DT    H2'1  923  10.456   4.688  11.348
   29DT    H2'2  924  10.607   4.593  11.321
   29DT     O3'  925  10.498   4.451  11.124
   30DG       P  926  10.493   4.299  11.153
   30DG     O1P  927  10.381   4.240  11.075
   30DG     O2P  928  10.507   4.276  11.297
   30DG     O5'  929  10.634   4.258  11.084
   30DG     C5'  930  10.654   4.279  10.940
   30DG    H5'1  931  10.570   4.337  10.903
   30DG    H5'2  932  10.649   4.183  10.888
   30DG     C4'  933  10.791   4.332  10.899
   30DG     H4'  934  10.780   4.341  10.791
   30DG     O4'  935  10.823   4.457  10.948
   30DG     C1'  936  10.953   4.458  11.009
   30DG     H1'  937  11.025   4.498  10.938
   30DG      N9  938  10.942   4.551  11.127
   30DG      C8  939  10.851   4.534  11.231
   30DG      H8  940  10.782   4.452  11.224
   30DG      N7  941  10.861   4.627  11.323
   30DG      C5  942  10.971   4.701  11.278
   30DG      C6  943  11.040   4.815  11.336
   30DG      O6  944  11.007   4.884  11.434
   30DG      N1  945  11.148   4.858  11.265
   30DG      H1  946  11.207   4.926  11.311
   30DG      C2  947  11.206   4.785  11.169
   30DG      N2  948  11.328   4.821  11.139
   30DG     H21  949  11.386   4.883  11.195
   30DG     H22  950  11.371   4.768  11.065
   30DG      N3  951  11.144   4.688  11.099
   30DG      C4  952  11.028   4.650  11.167
   30DG     C3'  953  10.910   4.241  10.950
   30DG     H3'  954  10.863   4.158  11.001
   30DG     C2'  955  10.992   4.316  11.041
   30DG    H2'1  956  10.960   4.296  11.143
   30DG    H2'2  957  11.097   4.286  11.031
   30DG     O3'  958  10.981   4.179  10.837
   31DC       P  959  11.095   4.077  10.869
   31DC     O1P  960  11.094   3.985  10.751
   31DC     O2P  961  11.062   4.013  11.003
   31DC     O5'  962  11.244   4.147  10.872
   31DC     C5'  963  11.289   4.239  10.770
   31DC    H5'1  964  11.214   4.318  10.768
   31DC    H5'2  965  11.293   4.199  10.669
   31DC     C4'  966  11.431   4.285  10.813
   31DC     H4'  967  11.475   4.344  10.733
   31DC     O4'  968  11.413   4.375  10.925
   31DC     C1'  969  11.494   4.328  11.037
   31DC     H1'  970  11.589   4.382  11.031
   31DC      N1  971  11.415   4.359  11.164
   31DC      C6  972  11.305   4.287  11.199
   31DC      H6  973  11.274   4.193  11.156
   31DC      C5  974  11.233   4.329  11.304
   31DC      H5  975  11.146   4.272  11.330
   31DC      C4  976  11.272   4.453  11.364
   31DC      N4  977  11.206   4.510  11.461
   31DC     H41  978  11.250   4.598  11.483
   31DC     H42  979  11.132   4.464  11.510
   31DC      N3  980  11.383   4.516  11.335
   31DC      C2  981  11.456   4.468  11.233
   31DC      O2  982  11.562   4.526  11.208
   31DC     C3'  983  11.526   4.172  10.854
   31DC     H3'  984  11.487   4.079  10.813
   31DC     C2'  985  11.529   4.179  11.009
   31DC    H2'1  986  11.446   4.114  11.035
   31DC    H2'2  987  11.616   4.135  11.057
   31DC     O3'  988  11.650   4.210  10.797
   32DG3      P  989  11.777   4.114  10.814
   32DG3    O1P  990  11.878   4.144  10.706
   32DG3    O2P  991  11.746   3.979  10.838
   32DG3    O5'  992  11.846   4.157  10.956
   32DG3    C5'  993  11.911   4.282  10.968
   32DG3   H5'1  994  11.855   4.358  10.914
   32DG3   H5'2  995  12.006   4.278  10.913
   32DG3    C4'  996  11.922   4.326  11.111
   32DG3    H4'  997  11.953   4.430  11.114
   32DG3    O4'  998  11.797   4.323  11.176
   32DG3    C1'  999  11.823   4.271  11.302
   32DG3    H1' 1000  11.858   4.358  11.357
   32DG3     N9 1001  11.699   4.229  11.377
   32DG3     C8 1002  11.623   4.109  11.364
   32DG3     H8 1003  11.649   4.034  11.291
   32DG3     N7 1004  11.526   4.102  11.456
   32DG3     C5 1005  11.540   4.224  11.531
   32DG3     C6 1006  11.454   4.274  11.638
   32DG3     O6 1007  11.352   4.233  11.690
   32DG3     N1 1008  11.509   4.386  11.691
   32DG3     H1 1009  11.463   4.442  11.761
   32DG3     C2 1010  11.619   4.444  11.645
   32DG3     N2 1011  11.654   4.554  11.708
   32DG3    H21 1012  11.596   4.589  11.782
   32DG3    H22 1013  11.732   4.609  11.673
   32DG3     N3 1014  11.690   4.412  11.542
   32DG3     C4 1015  11.648   4.296  11.489
   32DG3    C3' 1016  12.025   4.248  11.189
   32DG3    H3' 1017  12.084   4.184  11.123
   32DG3    C2' 1018  11.937   4.167  11.282
   32DG3   H2'1 1019  11.909   4.074  11.234
   32DG3   H2'2 1020  11.986   4.139  11.376
   32DG3    O3' 1021  12.109   4.345  11.241
   32DG3    H3T 1022  12.165   4.305  11.309
   33DC5    H5T 1023  11.177   4.948  12.358
   33DC5    O5' 1024  11.229   5.002  12.418
   33DC5    C5' 1025  11.365   4.983  12.403
   33DC5   H5'1 1026  11.394   4.897  12.464
   33DC5   H5'2 1027  11.413   5.070  12.446
   33DC5    C4' 1028  11.421   4.969  12.257
   33DC5    H4' 1029  11.529   4.975  12.266
   33DC5    O4' 1030  11.371   4.844  12.206
   33DC5    C1' 1031  11.347   4.868  12.067
   33DC5    H1' 1032  11.445   4.889  12.024
   33DC5     N1 1033  11.287   4.749  12.001
   33DC5     C6 1034  11.158   4.707  12.014
   33DC5     H6 1035  11.095   4.768  12.077
   33DC5     C5 1036  11.106   4.594  11.952
   33DC5     H5 1037  11.008   4.559  11.979
   33DC5     C4 1038  11.201   4.525  11.872
   33DC5     N4 1039  11.163   4.416  11.805
   33DC5    H41 1040  11.232   4.368  11.749
   33DC5    H42 1041  11.069   4.387  11.825
   33DC5     N3 1042  11.328   4.558  11.859
   33DC5     C2 1043  11.370   4.672  11.916
   33DC5     O2 1044  11.481   4.712  11.885
   33DC5    C3' 1045  11.365   5.075  12.160
   33DC5    H3' 1046  11.322   5.151  12.224
   33DC5    C2' 1047  11.262   4.993  12.079
   33DC5   H2'1 1048  11.171   4.975  12.135
   33DC5   H2'2 1049  11.247   5.037  11.981
   33DC5    O3' 1050  11.469   5.118  12.076
   34DG       P 1051  11.547   5.247  12.107
   34DG     O1P 1052  11.631   5.229  12.227
   34DG     O2P 1053  11.446   5.351  12.102
   34DG     O5' 1054  11.635   5.268  11.976
   34DG     C5' 1055  11.754   5.188  11.955
   34DG    H5'1 1056  11.725   5.084  11.944
   34DG    H5'2 1057  11.821   5.185  12.041
   34DG     C4' 1058  11.847   5.216  11.832
   34DG     H4' 1059  11.947   5.209  11.873
   34DG     O4' 1060  11.827   5.121  11.735
   34DG     C1' 1061  11.730   5.172  11.641
   34DG     H1' 1062  11.765   5.164  11.538
   34DG      N9 1063  11.605   5.089  11.654
   34DG      C8 1064  11.489   5.114  11.725
   34DG      H8 1065  11.487   5.188  11.804
   34DG      N7 1066  11.397   5.028  11.708
   34DG      C5 1067  11.457   4.937  11.623
   34DG      C6 1068  11.397   4.818  11.571
   34DG      O6 1069  11.285   4.764  11.588
   34DG      N1 1070  11.492   4.747  11.492
   34DG      H1 1071  11.466   4.657  11.454
   34DG      C2 1072  11.619   4.784  11.473
   34DG      N2 1073  11.685   4.715  11.380
   34DG     H21 1074  11.645   4.632  11.340
   34DG     H22 1075  11.779   4.738  11.351
   34DG      N3 1076  11.671   4.896  11.510
   34DG      C4 1077  11.587   4.969  11.588
   34DG     C3' 1078  11.836   5.346  11.750
   34DG     H3' 1079  11.808   5.426  11.819
   34DG     C2' 1080  11.714   5.318  11.668
   34DG    H2'1 1081  11.623   5.339  11.723
   34DG    H2'2 1082  11.707   5.373  11.574
   34DG     O3' 1083  11.959   5.368  11.681
   35DC       P 1084  11.988   5.469  11.558
   35DC     O1P 1085  12.129   5.460  11.526
   35DC     O2P 1086  11.937   5.607  11.592
   35DC     O5' 1087  11.905   5.424  11.434
   35DC     C5' 1088  11.942   5.310  11.359
   35DC    H5'1 1089  11.978   5.229  11.424
   35DC    H5'2 1090  12.023   5.344  11.295
   35DC     C4' 1091  11.826   5.259  11.271
   35DC     H4' 1092  11.872   5.183  11.207
   35DC     O4' 1093  11.708   5.215  11.334
   35DC     C1' 1094  11.605   5.255  11.259
   35DC     H1' 1095  11.596   5.193  11.169
   35DC      N1 1096  11.473   5.231  11.330
   35DC      C6 1097  11.415   5.326  11.405
   35DC      H6 1098  11.452   5.428  11.414
   35DC      C5 1099  11.288   5.296  11.444
   35DC      H5 1100  11.235   5.377  11.494
   35DC      C4 1101  11.231   5.172  11.422
   35DC      N4 1102  11.115   5.149  11.477
   35DC     H41 1103  11.079   5.056  11.461
   35DC     H42 1104  11.052   5.224  11.504
   35DC      N3 1105  11.299   5.081  11.360
   35DC      C2 1106  11.422   5.103  11.314
   35DC      O2 1107  11.482   5.018  11.252
   35DC     C3' 1108  11.787   5.376  11.184
   35DC     H3' 1109  11.844   5.469  11.195
   35DC     C2' 1110  11.641   5.401  11.228
   35DC    H2'1 1111  11.622   5.462  11.316
   35DC    H2'2 1112  11.584   5.444  11.145
   35DC     O3' 1113  11.769   5.323  11.049
   36DA       P 1114  11.799   5.409  10.921
   36DA     O1P 1115  11.945   5.415  10.914
   36DA     O2P 1116  11.714   5.534  10.928
   36DA     O5' 1117  11.753   5.309  10.809
   36DA     C5' 1118  11.810   5.183  10.779
   36DA    H5'1 1119  11.876   5.196  10.693
   36DA    H5'2 1120  11.868   5.148  10.865
   36DA     C4' 1121  11.698   5.081  10.757
   36DA     H4' 1122  11.754   4.994  10.725
   36DA     O4' 1123  11.611   5.061  10.873
   36DA     C1' 1124  11.484   5.036  10.830
   36DA     H1' 1125  11.459   4.935  10.863
   36DA      N9 1126  11.393   5.132  10.902
   36DA      C8 1127  11.420   5.253  10.958
   36DA      H8 1128  11.522   5.287  10.953
   36DA      N7 1129  11.321   5.308  11.023
   36DA      C5 1130  11.220   5.211  11.003
   36DA      C6 1131  11.088   5.200  11.043
   36DA      N6 1132  11.025   5.304  11.100
   36DA     H61 1133  10.926   5.292  11.117
   36DA     H62 1134  11.095   5.375  11.115
   36DA      N1 1135  11.016   5.095  11.013
   36DA      C2 1136  11.069   5.005  10.932
   36DA      H2 1137  11.006   4.920  10.910
   36DA      N3 1138  11.193   5.007  10.878
   36DA      C4 1139  11.264   5.111  10.924
   36DA     C3' 1140  11.594   5.121  10.645
   36DA     H3' 1141  11.562   5.225  10.652
   36DA     C2' 1142  11.472   5.040  10.681
   36DA    H2'1 1143  11.377   5.082  10.647
   36DA    H2'2 1144  11.477   4.937  10.646
   36DA     O3' 1145  11.642   5.091  10.511
   37DC       P 1146  11.579   5.163  10.385
   37DC     O1P 1147  11.651   5.143  10.257
   37DC     O2P 1148  11.550   5.302  10.420
   37DC     O5' 1149  11.431   5.099  10.364
   37DC     C5' 1150  11.421   4.965  10.332
   37DC    H5'1 1151  11.486   4.907  10.397
   37DC    H5'2 1152  11.442   4.947  10.227
   37DC     C4' 1153  11.279   4.912  10.363
   37DC     H4' 1154  11.284   4.804  10.381
   37DC     O4' 1155  11.220   4.951  10.488
   37DC     C1' 1156  11.090   4.996  10.460
   37DC     H1' 1157  11.012   4.923  10.485
   37DC      N1 1158  11.069   5.118  10.538
   37DC      C6 1159  11.167   5.216  10.533
   37DC      H6 1160  11.257   5.201  10.475
   37DC      C5 1161  11.160   5.319  10.625
   37DC      H5 1162  11.241   5.389  10.632
   37DC      C4 1163  11.041   5.335  10.701
   37DC      N4 1164  11.021   5.439  10.776
   37DC     H41 1165  10.931   5.432  10.820
   37DC     H42 1166  11.093   5.501  10.810
   37DC      N3 1167  10.944   5.249  10.700
   37DC      C2 1168  10.953   5.139  10.619
   37DC      O2 1169  10.862   5.051  10.614
   37DC     C3' 1170  11.189   4.938  10.245
   37DC     H3' 1171  11.234   5.006  10.173
   37DC     C2' 1172  11.075   5.021  10.310
   37DC    H2'1 1173  11.085   5.126  10.285
   37DC    H2'2 1174  10.974   4.994  10.277
   37DC     O3' 1175  11.144   4.814  10.183
   38DG       P 1176  11.061   4.814  10.044
   38DG     O1P 1177  11.068   4.679   9.992
   38DG     O2P 1178  11.122   4.922   9.962
   38DG     O5' 1179  10.911   4.855  10.083
   38DG     C5' 1180  10.821   4.753  10.132
   38DG    H5'1 1181  10.845   4.741  10.238
   38DG    H5'2 1182  10.828   4.657  10.081
   38DG     C4' 1183  10.677   4.784  10.118
   38DG     H4' 1184  10.635   4.687  10.142
   38DG     O4' 1185  10.631   4.877  10.216
   38DG     C1' 1186  10.595   5.002  10.156
   38DG     H1' 1187  10.486   5.008  10.164
   38DG      N9 1188  10.664   5.111  10.227
   38DG      C8 1189  10.783   5.168  10.201
   38DG      H8 1190  10.837   5.131  10.115
   38DG      N7 1191  10.816   5.271  10.276
   38DG      C5 1192  10.711   5.272  10.368
   38DG      C6 1193  10.688   5.353  10.486
   38DG      O6 1194  10.758   5.445  10.526
   38DG      N1 1195  10.580   5.323  10.560
   38DG      H1 1196  10.560   5.371  10.646
   38DG      C2 1197  10.500   5.223  10.520
   38DG      N2 1198  10.396   5.198  10.597
   38DG     H21 1199  10.396   5.260  10.676
   38DG     H22 1200  10.316   5.146  10.563
   38DG      N3 1201  10.512   5.142  10.417
   38DG      C4 1202  10.620   5.173  10.341
   38DG     C3' 1203  10.630   4.836   9.974
   38DG     H3' 1204  10.703   4.816   9.895
   38DG     C2' 1205  10.628   4.981  10.006
   38DG    H2'1 1206  10.728   5.018   9.983
   38DG    H2'2 1207  10.552   5.035   9.949
   38DG     O3' 1208  10.517   4.759   9.947
   39DC       P 1209  10.389   4.811   9.872
   39DC     O1P 1210  10.316   4.681   9.837
   39DC     O2P 1211  10.421   4.913   9.772
   39DC     O5' 1212  10.313   4.877   9.998
   39DC     C5' 1213  10.268   4.806  10.115
   39DC    H5'1 1214  10.360   4.801  10.174
   39DC    H5'2 1215  10.243   4.702  10.097
   39DC     C4' 1216  10.159   4.876  10.196
   39DC     H4' 1217  10.150   4.806  10.279
   39DC     O4' 1218  10.203   5.004  10.252
   39DC     C1' 1219  10.132   5.105  10.195
   39DC     H1' 1220  10.057   5.128  10.271
   39DC      N1 1221  10.232   5.211  10.172
   39DC      C6 1222  10.328   5.196  10.075
   39DC      H6 1223  10.315   5.118  10.001
   39DC      C5 1224  10.435   5.278  10.072
   39DC      H5 1225  10.510   5.269   9.994
   39DC      C4 1226  10.437   5.379  10.175
   39DC      N4 1227  10.530   5.465  10.176
   39DC     H41 1228  10.535   5.533  10.251
   39DC     H42 1229  10.603   5.460  10.107
   39DC      N3 1230  10.352   5.389  10.272
   39DC      C2 1231  10.243   5.312  10.270
   39DC      O2 1232  10.162   5.328  10.362
   39DC     C3' 1233  10.028   4.908  10.117
   39DC     H3' 1234  10.029   4.851  10.024
   39DC     C2' 1235  10.049   5.054  10.078
   39DC    H2'1 1236  10.109   5.053   9.987
   39DC    H2'2 1237   9.951   5.101  10.074
   39DC     O3' 1238   9.906   4.877  10.197
   40DA       P 1239   9.764   4.889  10.117
   40DA     O1P 1240   9.672   4.819  10.204
   40DA     O2P 1241   9.783   4.835   9.983
   40DA     O5' 1242   9.727   5.047  10.107
   40DA     C5' 1243   9.707   5.122  10.218
   40DA    H5'1 1244   9.776   5.089  10.296
   40DA    H5'2 1245   9.611   5.094  10.260
   40DA     C4' 1246   9.707   5.270  10.212
   40DA     H4' 1247   9.660   5.300  10.305
   40DA     O4' 1248   9.846   5.310  10.195
   40DA     C1' 1249   9.846   5.415  10.099
   40DA     H1' 1250   9.829   5.511  10.148
   40DA      N9 1251   9.973   5.425  10.030
   40DA      C8 1252  10.011   5.360   9.908
   40DA      H8 1253   9.951   5.286   9.857
   40DA      N7 1254  10.123   5.407   9.868
   40DA      C5 1255  10.154   5.515   9.948
   40DA      C6 1256  10.256   5.615   9.959
   40DA      N6 1257  10.352   5.639   9.874
   40DA     H61 1258  10.411   5.718   9.898
   40DA     H62 1259  10.357   5.587   9.788
   40DA      N1 1260  10.266   5.706  10.061
   40DA      C2 1261  10.175   5.689  10.153
   40DA      H2 1262  10.168   5.765  10.229
   40DA      N3 1263  10.073   5.602  10.161
   40DA      C4 1264  10.068   5.515  10.057
   40DA     C3' 1265   9.622   5.340  10.100
   40DA     H3' 1266   9.554   5.266  10.056
   40DA     C2' 1267   9.728   5.382  10.005
   40DA    H2'1 1268   9.752   5.295   9.944
   40DA    H2'2 1269   9.694   5.464   9.943
   40DA     O3' 1270   9.558   5.460  10.130
   41DC       P 1271   9.423   5.462  10.221
   41DC     O1P 1272   9.422   5.339  10.300
   41DC     O2P 1273   9.307   5.482  10.125
   41DC     O5' 1274   9.421   5.585  10.328
   41DC     C5' 1275   9.528   5.599  10.416
   41DC    H5'1 1276   9.599   5.516  10.413
   41DC    H5'2 1277   9.499   5.612  10.520
   41DC     C4' 1278   9.616   5.720  10.377
   41DC     H4' 1279   9.696   5.732  10.451
   41DC     O4' 1280   9.691   5.695  10.261
   41DC     C1' 1281   9.752   5.822  10.223
   41DC     H1' 1282   9.835   5.838  10.291
   41DC      N1 1283   9.806   5.819  10.089
   41DC      C6 1284   9.758   5.733   9.994
   41DC      H6 1285   9.667   5.681  10.021
   41DC      C5 1286   9.829   5.701   9.885
   41DC      H5 1287   9.792   5.636   9.807
   41DC      C4 1288   9.950   5.769   9.869
   41DC      N4 1289  10.027   5.747   9.769
   41DC     H41 1290  10.110   5.804   9.761
   41DC     H42 1291  10.009   5.676   9.699
   41DC      N3 1292   9.996   5.858   9.955
   41DC      C2 1293   9.929   5.881  10.066
   41DC      O2 1294   9.966   5.973  10.136
   41DC     C3' 1295   9.549   5.856  10.359
   41DC     H3' 1296   9.445   5.845  10.328
   41DC     C2' 1297   9.635   5.910  10.246
   41DC    H2'1 1298   9.573   5.925  10.158
   41DC    H2'2 1299   9.679   6.005  10.279
   41DC     O3' 1300   9.558   5.937  10.483
   42DG       P 1301   9.494   6.084  10.499
   42DG     O1P 1302   9.478   6.105  10.643
   42DG     O2P 1303   9.371   6.094  10.408
   42DG     O5' 1304   9.601   6.192  10.453
   42DG     C5' 1305   9.724   6.207  10.512
   42DG    H5'1 1306   9.791   6.130  10.474
   42DG    H5'2 1307   9.711   6.197  10.620
   42DG     C4' 1308   9.789   6.339  10.470
   42DG     H4' 1309   9.863   6.364  10.546
   42DG     O4' 1310   9.852   6.312  10.350
   42DG     C1' 1311   9.787   6.383  10.247
   42DG     H1' 1312   9.862   6.457  10.217
   42DG      N9 1313   9.761   6.296  10.123
   42DG      C8 1314   9.667   6.201  10.109
   42DG      H8 1315   9.593   6.176  10.184
   42DG      N7 1316   9.675   6.134   9.997
   42DG      C5 1317   9.780   6.191   9.926
   42DG      C6 1318   9.843   6.159   9.802
   42DG      O6 1319   9.813   6.072   9.728
   42DG      N1 1320   9.953   6.239   9.772
   42DG      H1 1321  10.017   6.216   9.698
   42DG      C2 1322   9.987   6.343   9.846
   42DG      N2 1323  10.093   6.398   9.797
   42DG     H21 1324  10.147   6.368   9.718
   42DG     H22 1325  10.125   6.489   9.828
   42DG      N3 1326   9.935   6.374   9.964
   42DG      C4 1327   9.835   6.293  10.004
   42DG     C3' 1328   9.692   6.456  10.447
   42DG     H3' 1329   9.605   6.443  10.511
   42DG     C2' 1330   9.659   6.445  10.297
   42DG    H2'1 1331   9.576   6.376  10.282
   42DG    H2'2 1332   9.637   6.540  10.249
   42DG     O3' 1333   9.754   6.573  10.484
   43DC       P 1334   9.673   6.713  10.505
   43DC     O1P 1335   9.761   6.796  10.590
   43DC     O2P 1336   9.533   6.682  10.547
   43DC     O5' 1337   9.680   6.775  10.358
   43DC     C5' 1338   9.806   6.786  10.299
   43DC    H5'1 1339   9.852   6.688  10.309
   43DC    H5'2 1340   9.867   6.867  10.340
   43DC     C4' 1341   9.798   6.826  10.152
   43DC     H4' 1342   9.894   6.862  10.116
   43DC     O4' 1343   9.762   6.707  10.075
   43DC     C1' 1344   9.716   6.756   9.956
   43DC     H1' 1345   9.796   6.803   9.900
   43DC      N1 1346   9.649   6.642   9.882
   43DC      C6 1347   9.543   6.571   9.932
   43DC      H6 1348   9.498   6.610  10.021
   43DC      C5 1349   9.498   6.457   9.871
   43DC      H5 1350   9.411   6.408   9.911
   43DC      C4 1351   9.565   6.414   9.756
   43DC      N4 1352   9.539   6.296   9.712
   43DC     H41 1353   9.581   6.262   9.626
   43DC     H42 1354   9.469   6.239   9.758
   43DC      N3 1355   9.678   6.467   9.715
   43DC      C2 1356   9.714   6.585   9.769
   43DC      O2 1357   9.818   6.626   9.717
   43DC     C3' 1358   9.695   6.933  10.119
   43DC     H3' 1359   9.633   6.960  10.205
   43DC     C2' 1360   9.614   6.857  10.009
   43DC    H2'1 1361   9.522   6.817  10.050
   43DC    H2'2 1362   9.598   6.927   9.928
   43DC     O3' 1363   9.771   7.041  10.075
   44DG       P 1364   9.718   7.187  10.034
   44DG     O1P 1365   9.829   7.269  10.088
   44DG     O2P 1366   9.580   7.207  10.082
   44DG     O5' 1367   9.719   7.193   9.876
   44DG     C5' 1368   9.836   7.159   9.800
   44DG    H5'1 1369   9.888   7.072   9.840
   44DG    H5'2 1370   9.908   7.240   9.809
   44DG     C4' 1371   9.809   7.139   9.659
   44DG     H4' 1372   9.905   7.162   9.614
   44DG     O4' 1373   9.751   7.013   9.635
   44DG     C1' 1374   9.676   7.017   9.522
   44DG     H1' 1375   9.738   7.022   9.432
   44DG      N9 1376   9.595   6.896   9.531
   44DG      C8 1377   9.505   6.856   9.633
   44DG      H8 1378   9.467   6.923   9.709
   44DG      N7 1379   9.463   6.734   9.610
   44DG      C5 1380   9.528   6.691   9.494
   44DG      C6 1381   9.532   6.562   9.432
   44DG      O6 1382   9.467   6.461   9.456
   44DG      N1 1383   9.622   6.557   9.325
   44DG      H1 1384   9.612   6.474   9.268
   44DG      C2 1385   9.685   6.666   9.276
   44DG      N2 1386   9.751   6.651   9.166
   44DG     H21 1387   9.741   6.567   9.112
   44DG     H22 1388   9.807   6.727   9.128
   44DG      N3 1389   9.698   6.784   9.342
   44DG      C4 1390   9.610   6.792   9.443
   44DG     C3' 1391   9.716   7.244   9.593
   44DG     H3' 1392   9.675   7.311   9.669
   44DG     C2' 1393   9.609   7.151   9.531
   44DG    H2'1 1394   9.529   7.145   9.605
   44DG    H2'2 1395   9.585   7.202   9.438
   44DG     O3' 1396   9.787   7.320   9.494
   45DC       P 1397   9.717   7.450   9.430
   45DC     O1P 1398   9.816   7.562   9.420
   45DC     O2P 1399   9.593   7.477   9.494
   45DC     O5' 1400   9.684   7.411   9.276
   45DC     C5' 1401   9.795   7.380   9.195
   45DC    H5'1 1402   9.867   7.323   9.253
   45DC    H5'2 1403   9.844   7.469   9.154
   45DC     C4' 1404   9.759   7.277   9.090
   45DC     H4' 1405   9.850   7.235   9.046
   45DC     O4' 1406   9.682   7.171   9.151
   45DC     C1' 1407   9.560   7.158   9.081
   45DC     H1' 1408   9.581   7.098   8.992
   45DC      N1 1409   9.449   7.100   9.159
   45DC      C6 1410   9.381   7.170   9.256
   45DC      H6 1411   9.395   7.275   9.277
   45DC      C5 1412   9.278   7.109   9.319
   45DC      H5 1413   9.210   7.160   9.386
   45DC      C4 1414   9.272   6.966   9.311
   45DC      N4 1415   9.200   6.887   9.387
   45DC     H41 1416   9.209   6.787   9.377
   45DC     H42 1417   9.173   6.930   9.475
   45DC      N3 1418   9.352   6.895   9.232
   45DC      C2 1419   9.435   6.957   9.147
   45DC      O2 1420   9.509   6.888   9.074
   45DC     C3' 1421   9.670   7.335   8.982
   45DC     H3' 1422   9.690   7.441   8.967
   45DC     C2' 1423   9.527   7.301   9.029
   45DC    H2'1 1424   9.492   7.375   9.101
   45DC    H2'2 1425   9.457   7.305   8.946
   45DC     O3' 1426   9.703   7.270   8.859
   46DA       P 1427   9.709   7.357   8.728
   46DA     O1P 1428   9.847   7.413   8.709
   46DA     O2P 1429   9.591   7.450   8.712
   46DA     O5' 1430   9.684   7.244   8.621
   46DA     C5' 1431   9.783   7.145   8.598
   46DA    H5'1 1432   9.815   7.108   8.695
   46DA    H5'2 1433   9.869   7.186   8.544
   46DA     C4' 1434   9.742   7.019   8.518
   46DA     H4' 1435   9.835   6.964   8.503
   46DA     O4' 1436   9.660   6.936   8.600
   46DA     C1' 1437   9.532   6.938   8.558
   46DA     H1' 1438   9.516   6.841   8.512
   46DA      N9 1439   9.431   6.967   8.667
   46DA      C8 1440   9.398   7.084   8.720
   46DA      H8 1441   9.449   7.175   8.693
   46DA      N7 1442   9.304   7.084   8.814
   46DA      C5 1443   9.276   6.946   8.824
   46DA      C6 1444   9.171   6.871   8.885
   46DA      N6 1445   9.080   6.921   8.963
   46DA     H61 1446   9.016   6.860   9.013
   46DA     H62 1447   9.077   7.022   8.964
   46DA      N1 1448   9.145   6.744   8.853
   46DA      C2 1449   9.225   6.693   8.759
   46DA      H2 1450   9.197   6.590   8.743
   46DA      N3 1451   9.325   6.745   8.692
   46DA      C4 1452   9.344   6.877   8.727
   46DA     C3' 1453   9.658   7.043   8.391
   46DA     H3' 1454   9.671   7.142   8.348
   46DA     C2' 1455   9.513   7.039   8.441
   46DA    H2'1 1456   9.476   7.132   8.483
   46DA    H2'2 1457   9.447   6.991   8.368
   46DA     O3' 1458   9.700   6.949   8.296
   47DT       P 1459   9.644   6.949   8.140
   47DT     O1P 1460   9.734   6.858   8.064
   47DT     O2P 1461   9.639   7.088   8.097
   47DT     O5' 1462   9.505   6.871   8.156
   47DT     C5' 1463   9.503   6.743   8.216
   47DT    H5'1 1464   9.552   6.735   8.314
   47DT    H5'2 1465   9.552   6.667   8.155
   47DT     C4' 1466   9.361   6.698   8.242
   47DT     H4' 1467   9.368   6.592   8.267
   47DT     O4' 1468   9.319   6.756   8.365
   47DT     C1' 1469   9.183   6.756   8.350
   47DT     H1' 1470   9.144   6.658   8.376
   47DT      N1 1471   9.112   6.864   8.430
   47DT      C6 1472   9.150   6.992   8.404
   47DT      H6 1473   9.226   7.019   8.332
   47DT      C5 1474   9.103   7.097   8.472
   47DT      C7 1475   9.138   7.232   8.419
   47DT     H71 1476   9.169   7.242   8.315
   47DT     H72 1477   9.056   7.303   8.420
   47DT     H73 1478   9.212   7.276   8.486
   47DT      C4 1479   9.019   7.077   8.589
   47DT      O4 1480   8.962   7.157   8.665
   47DT      N3 1481   8.996   6.942   8.619
   47DT      H3 1482   8.924   6.928   8.689
   47DT      C2 1483   9.023   6.836   8.533
   47DT      O2 1484   8.981   6.720   8.558
   47DT     C3' 1485   9.266   6.708   8.125
   47DT     H3' 1486   9.298   6.774   8.045
   47DT     C2' 1487   9.151   6.779   8.204
   47DT    H2'1 1488   9.150   6.884   8.174
   47DT    H2'2 1489   9.049   6.746   8.180
   47DT     O3' 1490   9.237   6.576   8.083
   48DA       P 1491   9.136   6.546   7.964
   48DA     O1P 1492   9.165   6.404   7.919
   48DA     O2P 1493   9.150   6.653   7.863
   48DA     O5' 1494   8.983   6.546   8.026
   48DA     C5' 1495   8.938   6.457   8.125
   48DA    H5'1 1496   8.926   6.351   8.100
   48DA    H5'2 1497   9.009   6.449   8.207
   48DA     C4' 1498   8.808   6.509   8.176
   48DA     H4' 1499   8.761   6.427   8.230
   48DA     O4' 1500   8.826   6.622   8.265
   48DA     C1' 1501   8.715   6.709   8.239
   48DA     H1' 1502   8.624   6.662   8.277
   48DA      N9 1503   8.730   6.849   8.300
   48DA      C8 1504   8.813   6.950   8.261
   48DA      H8 1505   8.874   6.937   8.172
   48DA      N7 1506   8.805   7.059   8.329
   48DA      C5 1507   8.708   7.025   8.428
   48DA      C6 1508   8.653   7.089   8.542
   48DA      N6 1509   8.699   7.205   8.583
   48DA     H61 1510   8.672   7.242   8.673
   48DA     H62 1511   8.771   7.255   8.534
   48DA      N1 1512   8.542   7.037   8.604
   48DA      C2 1513   8.499   6.918   8.565
   48DA      H2 1514   8.407   6.883   8.611
   48DA      N3 1515   8.552   6.844   8.474
   48DA      C4 1516   8.654   6.899   8.404
   48DA     C3' 1517   8.716   6.555   8.064
   48DA     H3' 1518   8.757   6.531   7.966
   48DA     C2' 1519   8.724   6.707   8.082
   48DA    H2'1 1520   8.819   6.745   8.045
   48DA    H2'2 1521   8.639   6.763   8.043
   48DA     O3' 1522   8.581   6.530   8.077
   49DA       P 1523   8.520   6.404   8.003
   49DA     O1P 1524   8.568   6.274   8.061
   49DA     O2P 1525   8.525   6.417   7.857
   49DA     O5' 1526   8.368   6.427   8.045
   49DA     C5' 1527   8.326   6.393   8.176
   49DA    H5'1 1528   8.392   6.436   8.252
   49DA    H5'2 1529   8.325   6.285   8.183
   49DA     C4' 1530   8.180   6.422   8.216
   49DA     H4' 1531   8.134   6.340   8.272
   49DA     O4' 1532   8.166   6.545   8.288
   49DA     C1' 1533   8.146   6.646   8.190
   49DA     H1' 1534   8.055   6.696   8.221
   49DA      N9 1535   8.254   6.746   8.189
   49DA      C8 1536   8.362   6.774   8.111
   49DA      H8 1537   8.393   6.704   8.035
   49DA      N7 1538   8.412   6.893   8.123
   49DA      C5 1539   8.343   6.944   8.238
   49DA      C6 1540   8.342   7.063   8.313
   49DA      N6 1541   8.432   7.165   8.308
   49DA     H61 1542   8.404   7.246   8.361
   49DA     H62 1543   8.513   7.162   8.247
   49DA      N1 1544   8.253   7.089   8.413
   49DA      C2 1545   8.161   6.992   8.430
   49DA      H2 1546   8.090   7.007   8.510
   49DA      N3 1547   8.144   6.879   8.363
   49DA      C4 1548   8.245   6.855   8.270
   49DA     C3' 1549   8.086   6.439   8.097
   49DA     H3' 1550   8.120   6.375   8.016
   49DA     C2' 1551   8.118   6.581   8.056
   49DA    H2'1 1552   8.198   6.581   7.982
   49DA    H2'2 1553   8.039   6.633   8.003
   49DA     O3' 1554   7.945   6.416   8.138
   50DC       P 1555   7.824   6.389   8.034
   50DC     O1P 1556   7.730   6.289   8.085
   50DC     O2P 1557   7.881   6.373   7.901
   50DC     O5' 1558   7.751   6.530   8.033
   50DC     C5' 1559   7.701   6.590   8.153
   50DC    H5'1 1560   7.760   6.567   8.242
   50DC    H5'2 1561   7.599   6.557   8.173
   50DC     C4' 1562   7.708   6.744   8.140
   50DC     H4' 1563   7.667   6.777   8.235
   50DC     O4' 1564   7.837   6.793   8.149
   50DC     C1' 1565   7.829   6.917   8.077
   50DC     H1' 1566   7.765   6.992   8.123
   50DC      N1 1567   7.964   6.973   8.064
   50DC      C6 1568   8.040   6.946   7.948
   50DC      H6 1569   8.018   6.861   7.884
   50DC      C5 1570   8.147   7.025   7.921
   50DC      H5 1571   8.214   7.002   7.838
   50DC      C4 1572   8.175   7.119   8.010
   50DC      N4 1573   8.264   7.210   7.983
   50DC     H41 1574   8.261   7.285   8.051
   50DC     H42 1575   8.317   7.213   7.897
   50DC      N3 1576   8.105   7.156   8.116
   50DC      C2 1577   7.997   7.077   8.146
   50DC      O2 1578   7.931   7.114   8.240
   50DC     C3' 1579   7.639   6.812   8.019
   50DC     H3' 1580   7.607   6.741   7.942
   50DC     C2' 1581   7.756   6.882   7.952
   50DC    H2'1 1582   7.804   6.803   7.893
   50DC    H2'2 1583   7.727   6.969   7.893
   50DC     O3' 1584   7.538   6.907   8.052
   51DG       P 1585   7.381   6.886   8.042
   51DG     O1P 1586   7.341   6.771   8.129
   51DG     O2P 1587   7.351   6.892   7.897
   51DG     O5' 1588   7.327   7.023   8.113
   51DG     C5' 1589   7.324   7.046   8.258
   51DG    H5'1 1590   7.396   6.981   8.308
   51DG    H5'2 1591   7.226   7.011   8.289
   51DG     C4' 1592   7.326   7.191   8.308
   51DG     H4' 1593   7.295   7.189   8.412
   51DG     O4' 1594   7.457   7.240   8.282
   51DG     C1' 1595   7.461   7.354   8.197
   51DG     H1' 1596   7.469   7.450   8.249
   51DG      N9 1597   7.577   7.345   8.102
   51DG      C8 1598   7.595   7.243   8.007
   51DG      H8 1599   7.538   7.152   7.990
   51DG      N7 1600   7.700   7.253   7.941
   51DG      C5 1601   7.765   7.371   7.984
   51DG      C6 1602   7.881   7.444   7.944
   51DG      O6 1603   7.960   7.407   7.854
   51DG      N1 1604   7.898   7.562   8.006
   51DG      H1 1605   7.988   7.607   7.994
   51DG      C2 1606   7.815   7.617   8.097
   51DG      N2 1607   7.835   7.740   8.136
   51DG     H21 1608   7.913   7.797   8.107
   51DG     H22 1609   7.770   7.781   8.202
   51DG      N3 1610   7.709   7.550   8.136
   51DG      C4 1611   7.690   7.430   8.080
   51DG     C3' 1612   7.235   7.280   8.230
   51DG     H3' 1613   7.153   7.227   8.182
   51DG     C2' 1614   7.322   7.348   8.127
   51DG    H2'1 1615   7.330   7.291   8.034
   51DG    H2'2 1616   7.290   7.450   8.104
   51DG     O3' 1617   7.189   7.379   8.314
   52DC       P 1618   7.055   7.464   8.284
   52DC     O1P 1619   6.999   7.503   8.411
   52DC     O2P 1620   6.966   7.390   8.193
   52DC     O5' 1621   7.110   7.595   8.210
   52DC     C5' 1622   7.187   7.685   8.277
   52DC    H5'1 1623   7.261   7.633   8.337
   52DC    H5'2 1624   7.135   7.747   8.350
   52DC     C4' 1625   7.280   7.768   8.187
   52DC     H4' 1626   7.344   7.831   8.248
   52DC     O4' 1627   7.374   7.687   8.118
   52DC     C1' 1628   7.419   7.772   8.008
   52DC     H1' 1629   7.490   7.839   8.057
   52DC      N1 1630   7.474   7.687   7.898
   52DC      C6 1631   7.411   7.567   7.867
   52DC      H6 1632   7.317   7.552   7.917
   52DC      C5 1633   7.466   7.485   7.773
   52DC      H5 1634   7.415   7.397   7.737
   52DC      C4 1635   7.593   7.522   7.719
   52DC      N4 1636   7.663   7.458   7.630
   52DC     H41 1637   7.763   7.467   7.614
   52DC     H42 1638   7.612   7.378   7.596
   52DC      N3 1639   7.650   7.635   7.754
   52DC      C2 1640   7.594   7.721   7.839
   52DC      O2 1641   7.658   7.823   7.858
   52DC     C3' 1642   7.195   7.853   8.085
   52DC     H3' 1643   7.102   7.801   8.061
   52DC     C2' 1644   7.293   7.852   7.967
   52DC    H2'1 1645   7.250   7.804   7.880
   52DC    H2'2 1646   7.318   7.957   7.953
   52DC     O3' 1647   7.168   7.984   8.136
   53DA       P 1648   7.089   8.091   8.051
   53DA     O1P 1649   7.033   8.194   8.141
   53DA     O2P 1650   6.996   8.021   7.960
   53DA     O5' 1651   7.196   8.170   7.958
   53DA     C5' 1652   7.299   8.251   8.021
   53DA    H5'1 1653   7.343   8.186   8.096
   53DA    H5'2 1654   7.258   8.327   8.088
   53DA     C4' 1655   7.402   8.313   7.925
   53DA     H4' 1656   7.473   8.376   7.978
   53DA     O4' 1657   7.471   8.201   7.865
   53DA     C1' 1658   7.488   8.220   7.723
   53DA     H1' 1659   7.567   8.290   7.695
   53DA      N9 1660   7.494   8.081   7.658
   53DA      C8 1661   7.389   7.992   7.649
   53DA      H8 1662   7.291   8.005   7.692
   53DA      N7 1663   7.415   7.883   7.581
   53DA      C5 1664   7.552   7.906   7.538
   53DA      C6 1665   7.642   7.824   7.469
   53DA      N6 1666   7.618   7.705   7.418
   53DA     H61 1667   7.689   7.666   7.358
   53DA     H62 1668   7.528   7.663   7.436
   53DA      N1 1669   7.761   7.877   7.427
   53DA      C2 1670   7.793   8.007   7.468
   53DA      H2 1671   7.883   8.045   7.422
   53DA      N3 1672   7.717   8.085   7.545
   53DA      C4 1673   7.598   8.028   7.581
   53DA     C3' 1674   7.350   8.394   7.801
   53DA     H3' 1675   7.249   8.427   7.825
   53DA     C2' 1676   7.356   8.293   7.686
   53DA    H2'1 1677   7.272   8.227   7.703
   53DA    H2'2 1678   7.359   8.330   7.583
   53DA     O3' 1679   7.432   8.509   7.771
   54DT       P 1680   7.367   8.647   7.708
   54DT     O1P 1681   7.407   8.765   7.788
   54DT     O2P 1682   7.222   8.621   7.673
   54DT     O5' 1683   7.448   8.655   7.568
   54DT     C5' 1684   7.588   8.673   7.571
   54DT    H5'1 1685   7.633   8.611   7.648
   54DT    H5'2 1686   7.600   8.781   7.580
   54DT     C4' 1687   7.649   8.631   7.441
   54DT     H4' 1688   7.752   8.663   7.459
   54DT     O4' 1689   7.649   8.492   7.424
   54DT     C1' 1690   7.608   8.458   7.292
   54DT     H1' 1691   7.690   8.466   7.221
   54DT      N1 1692   7.552   8.320   7.275
   54DT      C6 1693   7.425   8.286   7.310
   54DT      H6 1694   7.351   8.361   7.333
   54DT      C5 1695   7.380   8.158   7.302
   54DT      C7 1696   7.238   8.119   7.353
   54DT     H71 1697   7.159   8.138   7.280
   54DT     H72 1698   7.248   8.014   7.380
   54DT     H73 1699   7.220   8.179   7.443
   54DT      C4 1700   7.467   8.051   7.249
   54DT      O4 1701   7.445   7.933   7.249
   54DT      N3 1702   7.595   8.089   7.213
   54DT      H3 1703   7.647   8.018   7.163
   54DT      C2 1704   7.641   8.216   7.228
   54DT      O2 1705   7.756   8.248   7.189
   54DT     C3' 1706   7.597   8.694   7.322
   54DT     H3' 1707   7.534   8.777   7.353
   54DT     C2' 1708   7.518   8.576   7.261
   54DT    H2'1 1709   7.427   8.557   7.317
   54DT    H2'2 1710   7.498   8.597   7.156
   54DT     O3' 1711   7.701   8.748   7.238
   55DA       P 1712   7.685   8.800   7.086
   55DA     O1P 1713   7.788   8.901   7.072
   55DA     O2P 1714   7.546   8.841   7.059
   55DA     O5' 1715   7.718   8.693   6.987
   55DA     C5' 1716   7.853   8.651   6.968
   55DA    H5'1 1717   7.895   8.589   7.047
   55DA    H5'2 1718   7.915   8.740   6.961
   55DA     C4' 1719   7.881   8.588   6.839
   55DA     H4' 1720   7.987   8.584   6.813
   55DA     O4' 1721   7.840   8.456   6.862
   55DA     C1' 1722   7.736   8.414   6.778
   55DA     H1' 1723   7.765   8.346   6.698
   55DA      N9 1724   7.629   8.337   6.844
   55DA      C8 1725   7.531   8.378   6.932
   55DA      H8 1726   7.525   8.474   6.981
   55DA      N7 1727   7.456   8.279   6.970
   55DA      C5 1728   7.502   8.173   6.895
   55DA      C6 1729   7.463   8.033   6.884
   55DA      N6 1730   7.354   7.974   6.936
   55DA     H61 1731   7.370   7.874   6.933
   55DA     H62 1732   7.298   8.023   7.005
   55DA      N1 1733   7.531   7.946   6.808
   55DA      C2 1734   7.636   7.990   6.742
   55DA      H2 1735   7.687   7.914   6.684
   55DA      N3 1736   7.686   8.114   6.743
   55DA      C4 1737   7.609   8.199   6.823
   55DA     C3' 1738   7.808   8.644   6.716
   55DA     H3' 1739   7.775   8.747   6.729
   55DA     C2' 1740   7.688   8.547   6.712
   55DA    H2'1 1741   7.605   8.589   6.770
   55DA    H2'2 1742   7.651   8.524   6.612
   55DA     O3' 1743   7.898   8.642   6.613
   56DC       P 1744   7.845   8.665   6.463
   56DC     O1P 1745   7.957   8.721   6.382
   56DC     O2P 1746   7.718   8.743   6.472
   56DC     O5' 1747   7.804   8.521   6.408
   56DC     C5' 1748   7.904   8.416   6.393
   56DC    H5'1 1749   7.923   8.367   6.488
   56DC    H5'2 1750   7.995   8.467   6.361
   56DC     C4' 1751   7.872   8.309   6.288
   56DC     H4' 1752   7.969   8.266   6.264
   56DC     O4' 1753   7.774   8.229   6.345
   56DC     C1' 1754   7.661   8.225   6.267
   56DC     H1' 1755   7.670   8.144   6.195
   56DC      N1 1756   7.545   8.199   6.364
   56DC      C6 1757   7.490   8.297   6.444
   56DC      H6 1758   7.521   8.401   6.442
   56DC      C5 1759   7.385   8.269   6.522
   56DC      H5 1760   7.324   8.349   6.563
   56DC      C4 1761   7.346   8.135   6.537
   56DC      N4 1762   7.246   8.100   6.611
   56DC     H41 1763   7.215   8.005   6.598
   56DC     H42 1764   7.200   8.167   6.670
   56DC      N3 1765   7.414   8.039   6.476
   56DC      C2 1766   7.508   8.067   6.384
   56DC      O2 1767   7.557   7.971   6.322
   56DC     C3' 1768   7.808   8.373   6.161
   56DC     H3' 1769   7.836   8.478   6.149
   56DC     C2' 1770   7.660   8.355   6.181
   56DC    H2'1 1771   7.627   8.443   6.237
   56DC    H2'2 1772   7.595   8.354   6.094
   56DC     O3' 1773   7.833   8.289   6.051
   57DG       P 1774   7.815   8.328   5.888
   57DG     O1P 1775   7.953   8.343   5.838
   57DG     O2P 1776   7.719   8.440   5.875
   57DG     O5' 1777   7.746   8.200   5.827
   57DG     C5' 1778   7.800   8.077   5.831
   57DG    H5'1 1779   7.828   8.044   5.932
   57DG    H5'2 1780   7.894   8.087   5.776
   57DG     C4' 1781   7.715   7.972   5.759
   57DG     H4' 1782   7.776   7.887   5.729
   57DG     O4' 1783   7.619   7.935   5.858
   57DG     C1' 1784   7.493   7.964   5.813
   57DG     H1' 1785   7.435   7.873   5.796
   57DG      N9 1786   7.423   8.052   5.906
   57DG      C8 1787   7.455   8.172   5.955
   57DG      H8 1788   7.522   8.242   5.908
   57DG      N7 1789   7.377   8.226   6.052
   57DG      C5 1790   7.305   8.107   6.084
   57DG      C6 1791   7.212   8.083   6.186
   57DG      O6 1792   7.175   8.163   6.272
   57DG      N1 1793   7.169   7.952   6.197
   57DG      H1 1794   7.087   7.940   6.255
   57DG      C2 1795   7.182   7.865   6.094
   57DG      N2 1796   7.110   7.764   6.097
   57DG     H21 1797   7.064   7.738   6.183
   57DG     H22 1798   7.114   7.691   6.027
   57DG      N3 1799   7.268   7.878   5.994
   57DG      C4 1800   7.329   8.003   5.998
   57DG     C3' 1801   7.645   8.011   5.633
   57DG     H3' 1802   7.687   8.103   5.592
   57DG     C2' 1803   7.505   8.046   5.686
   57DG    H2'1 1804   7.517   8.151   5.712
   57DG    H2'2 1805   7.424   8.015   5.619
   57DG     O3' 1806   7.638   7.900   5.544
   58DC       P 1807   7.575   7.903   5.397
   58DC     O1P 1808   7.649   7.805   5.313
   58DC     O2P 1809   7.560   8.045   5.351
   58DC     O5' 1810   7.428   7.849   5.418
   58DC     C5' 1811   7.399   7.735   5.497
   58DC    H5'1 1812   7.470   7.721   5.578
   58DC    H5'2 1813   7.401   7.646   5.435
   58DC     C4' 1814   7.258   7.746   5.549
   58DC     H4' 1815   7.234   7.644   5.578
   58DC     O4' 1816   7.246   7.843   5.654
   58DC     C1' 1817   7.124   7.910   5.641
   58DC     H1' 1818   7.043   7.844   5.672
   58DC      N1 1819   7.111   8.036   5.727
   58DC      C6 1820   7.165   8.158   5.683
   58DC      H6 1821   7.233   8.166   5.600
   58DC      C5 1822   7.136   8.264   5.759
   58DC      H5 1823   7.178   8.360   5.730
   58DC      C4 1824   7.065   8.248   5.880
   58DC      N4 1825   7.041   8.344   5.963
   58DC     H41 1826   6.971   8.324   6.033
   58DC     H42 1827   7.066   8.435   5.927
   58DC      N3 1828   7.006   8.134   5.914
   58DC      C2 1829   7.022   8.028   5.837
   58DC      O2 1830   6.956   7.925   5.868
   58DC     C3' 1831   7.157   7.789   5.438
   58DC     H3' 1832   7.191   7.794   5.335
   58DC     C2' 1833   7.117   7.927   5.493
   58DC    H2'1 1834   7.190   8.003   5.467
   58DC    H2'2 1835   7.016   7.954   5.461
   58DC     O3' 1836   7.038   7.709   5.446
   59DA       P 1837   6.992   7.612   5.332
   59DA     O1P 1838   7.092   7.509   5.309
   59DA     O2P 1839   6.941   7.696   5.220
   59DA     O5' 1840   6.869   7.546   5.402
   59DA     C5' 1841   6.885   7.458   5.509
   59DA    H5'1 1842   6.967   7.497   5.569
   59DA    H5'2 1843   6.927   7.368   5.464
   59DA     C4' 1844   6.760   7.439   5.597
   59DA     H4' 1845   6.787   7.355   5.660
   59DA     O4' 1846   6.757   7.558   5.679
   59DA     C1' 1847   6.653   7.632   5.632
   59DA     H1' 1848   6.558   7.616   5.684
   59DA      N9 1849   6.690   7.773   5.625
   59DA      C8 1850   6.760   7.833   5.528
   59DA      H8 1851   6.805   7.774   5.450
   59DA      N7 1852   6.769   7.963   5.551
   59DA      C5 1853   6.702   7.989   5.671
   59DA      C6 1854   6.666   8.097   5.758
   59DA      N6 1855   6.711   8.220   5.735
   59DA     H61 1856   6.689   8.296   5.798
   59DA     H62 1857   6.766   8.225   5.650
   59DA      N1 1858   6.590   8.081   5.866
   59DA      C2 1859   6.546   7.959   5.892
   59DA      H2 1860   6.476   7.948   5.973
   59DA      N3 1861   6.575   7.847   5.826
   59DA      C4 1862   6.650   7.870   5.713
   59DA     C3' 1863   6.639   7.423   5.512
   59DA     H3' 1864   6.661   7.385   5.412
   59DA     C2' 1865   6.602   7.571   5.503
   59DA    H2'1 1866   6.649   7.604   5.410
   59DA    H2'2 1867   6.494   7.581   5.503
   59DA     O3' 1868   6.550   7.347   5.582
   60DC       P 1869   6.406   7.317   5.529
   60DC     O1P 1870   6.363   7.183   5.565
   60DC     O2P 1871   6.399   7.360   5.388
   60DC     O5' 1872   6.314   7.416   5.606
   60DC     C5' 1873   6.310   7.425   5.750
   60DC    H5'1 1874   6.411   7.442   5.786
   60DC    H5'2 1875   6.277   7.327   5.785
   60DC     C4' 1876   6.207   7.535   5.804
   60DC     H4' 1877   6.177   7.500   5.903
   60DC     O4' 1878   6.266   7.663   5.820
   60DC     C1' 1879   6.184   7.752   5.740
   60DC     H1' 1880   6.110   7.791   5.810
   60DC      N1 1881   6.268   7.857   5.681
   60DC      C6 1882   6.332   7.841   5.559
   60DC      H6 1883   6.342   7.745   5.510
   60DC      C5 1884   6.393   7.945   5.496
   60DC      H5 1885   6.445   7.937   5.401
   60DC      C4 1886   6.389   8.068   5.557
   60DC      N4 1887   6.425   8.174   5.494
   60DC     H41 1888   6.428   8.262   5.543
   60DC     H42 1889   6.464   8.167   5.401
   60DC      N3 1890   6.333   8.085   5.676
   60DC      C2 1891   6.273   7.982   5.736
   60DC      O2 1892   6.211   8.007   5.839
   60DC     C3' 1893   6.080   7.540   5.721
   60DC     H3' 1894   6.060   7.439   5.684
   60DC     C2' 1895   6.120   7.657   5.632
   60DC    H2'1 1896   6.187   7.624   5.553
   60DC    H2'2 1897   6.039   7.712   5.584
   60DC     O3' 1898   5.972   7.571   5.806
   61DA       P 1899   5.823   7.589   5.746
   61DA     O1P 1900   5.729   7.517   5.835
   61DA     O2P 1901   5.818   7.559   5.603
   61DA     O5' 1902   5.806   7.745   5.758
   61DA     C5' 1903   5.810   7.814   5.885
   61DA    H5'1 1904   5.901   7.808   5.944
   61DA    H5'2 1905   5.739   7.771   5.955
   61DA     C4' 1906   5.770   7.953   5.861
   61DA     H4' 1907   5.765   8.008   5.955
   61DA     O4' 1908   5.877   8.018   5.795
   61DA     C1' 1909   5.824   8.111   5.696
   61DA     H1' 1910   5.816   8.208   5.746
   61DA      N9 1911   5.922   8.138   5.592
   61DA      C8 1912   5.988   8.045   5.514
   61DA      H8 1913   5.969   7.939   5.514
   61DA      N7 1914   6.087   8.092   5.439
   61DA      C5 1915   6.076   8.228   5.460
   61DA      C6 1916   6.150   8.334   5.406
   61DA      N6 1917   6.240   8.329   5.305
   61DA     H61 1918   6.298   8.407   5.279
   61DA     H62 1919   6.263   8.239   5.265
   61DA      N1 1920   6.130   8.455   5.461
   61DA      C2 1921   6.035   8.473   5.550
   61DA      H2 1922   6.018   8.575   5.583
   61DA      N3 1923   5.948   8.383   5.595
   61DA      C4 1924   5.980   8.257   5.555
   61DA     C3' 1925   5.639   7.978   5.785
   61DA     H3' 1926   5.588   7.886   5.756
   61DA     C2' 1927   5.681   8.061   5.660
   61DA    H2'1 1928   5.691   7.994   5.575
   61DA    H2'2 1929   5.605   8.137   5.641
   61DA     O3' 1930   5.563   8.048   5.879
   62DT       P 1931   5.409   8.093   5.832
   62DT     O1P 1932   5.351   8.116   5.961
   62DT     O2P 1933   5.339   7.996   5.748
   62DT     O5' 1934   5.407   8.229   5.754
   62DT     C5' 1935   5.475   8.346   5.803
   62DT    H5'1 1936   5.572   8.312   5.840
   62DT    H5'2 1937   5.426   8.396   5.887
   62DT     C4' 1938   5.512   8.445   5.697
   62DT     H4' 1939   5.559   8.525   5.755
   62DT     O4' 1940   5.607   8.388   5.612
   62DT     C1' 1941   5.609   8.475   5.505
   62DT     H1' 1942   5.664   8.564   5.537
   62DT      N1 1943   5.681   8.414   5.386
   62DT      C6 1944   5.675   8.284   5.355
   62DT      H6 1945   5.604   8.223   5.410
   62DT      C5 1946   5.756   8.229   5.264
   62DT      C7 1947   5.759   8.076   5.253
   62DT     H71 1948   5.730   8.047   5.152
   62DT     H72 1949   5.858   8.038   5.276
   62DT     H73 1950   5.682   8.025   5.313
   62DT      C4 1951   5.847   8.318   5.186
   62DT      O4 1952   5.926   8.290   5.095
   62DT      N3 1953   5.837   8.449   5.222
   62DT      H3 1954   5.896   8.515   5.173
   62DT      C2 1955   5.767   8.504   5.325
   62DT      O2 1956   5.770   8.624   5.343
   62DT     C3' 1957   5.397   8.499   5.611
   62DT     H3' 1958   5.323   8.420   5.598
   62DT     C2' 1959   5.465   8.523   5.479
   62DT    H2'1 1960   5.412   8.466   5.403
   62DT    H2'2 1961   5.462   8.629   5.453
   62DT     O3' 1962   5.347   8.611   5.674
   63DG       P 1963   5.232   8.714   5.622
   63DG     O1P 1964   5.183   8.784   5.744
   63DG     O2P 1965   5.136   8.642   5.539
   63DG     O5' 1966   5.282   8.824   5.522
   63DG     C5' 1967   5.318   8.952   5.566
   63DG    H5'1 1968   5.400   8.940   5.637
   63DG    H5'2 1969   5.235   8.995   5.622
   63DG     C4' 1970   5.365   9.052   5.456
   63DG     H4' 1971   5.394   9.148   5.498
   63DG     O4' 1972   5.480   8.997   5.380
   63DG     C1' 1973   5.439   8.988   5.239
   63DG     H1' 1974   5.464   9.074   5.177
   63DG      N9 1975   5.495   8.864   5.181
   63DG      C8 1976   5.460   8.730   5.202
   63DG      H8 1977   5.385   8.692   5.269
   63DG      N7 1978   5.531   8.652   5.123
   63DG      C5 1979   5.620   8.731   5.055
   63DG      C6 1980   5.729   8.700   4.967
   63DG      O6 1981   5.768   8.596   4.920
   63DG      N1 1982   5.794   8.812   4.926
   63DG      H1 1983   5.874   8.797   4.866
   63DG      C2 1984   5.761   8.939   4.966
   63DG      N2 1985   5.842   9.032   4.933
   63DG     H21 1986   5.915   9.022   4.864
   63DG     H22 1987   5.822   9.125   4.967
   63DG      N3 1988   5.663   8.972   5.048
   63DG      C4 1989   5.596   8.863   5.096
   63DG     C3' 1990   5.253   9.084   5.356
   63DG     H3' 1991   5.153   9.053   5.387
   63DG     C2' 1992   5.291   8.996   5.239
   63DG    H2'1 1993   5.261   8.894   5.262
   63DG    H2'2 1994   5.254   9.031   5.143
   63DG     O3' 1995   5.254   9.222   5.320
   64DC3      P 1996   5.133   9.303   5.256
   64DC3    O1P 1997   5.130   9.425   5.337
   64DC3    O2P 1998   5.019   9.215   5.260
   64DC3    O5' 1999   5.195   9.317   5.107
   64DC3    C5' 2000   5.323   9.369   5.091
   64DC3   H5'1 2001   5.390   9.314   5.157
   64DC3   H5'2 2002   5.319   9.474   5.122
   64DC3    C4' 2003   5.400   9.365   4.956
   64DC3    H4' 2004   5.494   9.418   4.964
   64DC3    O4' 2005   5.445   9.235   4.937
   64DC3    C1' 2006   5.472   9.220   4.803
   64DC3    H1' 2007   5.567   9.258   4.769
   64DC3     N1 2008   5.468   9.071   4.775
   64DC3     C6 2009   5.377   8.990   4.832
   64DC3     H6 2010   5.299   9.042   4.886
   64DC3     C5 2011   5.371   8.862   4.807
   64DC3     H5 2012   5.299   8.798   4.856
   64DC3     C4 2013   5.472   8.803   4.732
   64DC3     N4 2014   5.474   8.671   4.716
   64DC3    H41 2015   5.558   8.633   4.675
   64DC3    H42 2016   5.413   8.609   4.768
   64DC3     N3 2017   5.555   8.881   4.665
   64DC3     C2 2018   5.564   9.014   4.690
   64DC3     O2 2019   5.671   9.070   4.659
   64DC3    C3' 2020   5.342   9.409   4.824
   64DC3    H3' 2021   5.236   9.435   4.833
   64DC3    C2' 2022   5.353   9.293   4.733
   64DC3   H2'1 2023   5.268   9.227   4.750
   64DC3   H2'2 2024   5.379   9.311   4.629
   64DC3    O3' 2025   5.409   9.514   4.761
   64DC3    H3T 2026   5.366   9.524   4.676
   65SOL     OW 2027   1.635   9.189   7.562
   65SOL    HW1 2028   1.607   9.193   7.470
   65SOL    HW2 2029   1.731   9.185   7.557
   66SOL     OW 2030  10.476   2.836   2.313
   66SOL    HW1 2031  10.558   2.805   2.351
   66SOL    HW2 2032  10.444   2.901   2.375
   67SOL     OW 2033   2.859  10.763  13.981
   67SOL    HW1 2034   2.775  10.795  13.948
   67SOL    HW2 2035   2.920  10.774  13.909
   68SOL     OW 2036   5.494   4.396  13.125
   68SOL    HW1 2037   5.578   4.394  13.170
   68SOL    HW2 2038   5.516   4.388  13.032
   69SOL     OW 2039  12.413   6.692   8.126
   69SOL    HW1 2040  12.497   6.653   8.151
   69SOL    HW2 2041  12.421   6.710   8.033
   70SOL     OW 2042   1.249   8.038   5.052
   70SOL    HW1 2043   1.303   7.959   5.057
   70SOL    HW2 2044   1.235   8.063   5.144
   71SOL     OW 2045  13.820  10.412   7.084
   71SOL    HW1 2046  13.792  10.374   7.001
   71SOL    HW2 2047  13.748  10.469   7.110
   72SOL     OW 2048   1.138   7.434   1.704
   72SOL    HW1 2049   1.147   7.529   1.706
   72SOL    HW2 2050   1.178   7.405   1.786
   73SOL     OW 2051   2.799   7.341   6.442
   73SOL    HW1 2052   2.804   7.371   6.352
   73SOL    HW2 2053   2.719   7.381   6.477
   74SOL     OW 2054   2.158   1.658  10.253
   74SOL    HW1 2055   2.138   1.568  10.280
   74SOL    HW2 2056   2.248   1.654  10.221
   75SOL     OW 2057  10.785   8.592   8.006
   75SOL    HW1 2058  10.752   8.678   8.034
   75SOL    HW2 2059  10.761   8.587   7.913
   76SOL     OW 2060  13.047   3.008   7.041
   76SOL    HW1 2061  12.963   2.966   7.061
   76SOL    HW2 2062  13.049   3.014   6.946
   77SOL     OW 2063   7.497  11.343   8.598
   77SOL    HW1 2064   7.520  11.366   8.688
   77SOL    HW2 2065   7.413  11.298   8.605
   78SOL     OW 2066   3.466   5.689   3.437
   78SOL    HW1 2067   3.480   5.595   3.449
   78SOL    HW2 2068   3.540   5.718   3.384
   79SOL     OW 2069   3.425   9.478   1.574
   79SOL    HW1 2070   3.514   9.486   1.539
   79SOL    HW2 2071   3.435   9.490   1.668
   80SOL     OW 2072  10.421  13.710  11.174
   80SOL    HW1 2073  10.468  13.742  11.097
   80SOL    HW2 2074  10.368  13.785  11.202
   81SOL     OW 2075   2.476   8.832  13.878
   81SOL    HW1 2076   2.569   8.839  13.900
   81SOL    HW2 2077   2.437   8.793  13.956
   82SOL     OW 2078  10.903  10.289   9.501
   82SOL    HW1 2079  10.847  10.249   9.568
   82SOL    HW2 2080  10.936  10.369   9.542
   83SOL     OW 2081  10.251   4.512   0.546
   83SOL    HW1 2082  10.164   4.535   0.578
   83SOL    HW2 2083  10.245   4.517   0.451
   84SOL     OW 2084   5.524   5.863   0.462
   84SOL    HW1 2085   5.443   5.881   0.413
   84SOL    HW2 2086   5.500   5.876   0.554
   85SOL     OW 2087  12.832   5.110   8.214
   85SOL    HW1 2088  12.856   5.136   8.304
   85SOL    HW2 2089  12.910   5.066   8.180
   86SOL     OW 2090  14.654   6.990   6.634
   86SOL    HW1 2091  14.739   7.025   6.606
   86SOL    HW2 2092  14.662   6.984   6.729
   87SOL     OW 2093   7.269   3.922   2.944
   87SOL    HW1 2094   7.282   3.867   2.867
   87SOL    HW2 2095   7.340   3.897   3.003
   88SOL     OW 2096   6.905  10.692  11.954
   88SOL    HW1 2097   6.916  10.785  11.931
   88SOL    HW2 2098   6.993  10.660  11.968
   89SOL     OW 2099   8.632  13.801  13.517
   89SOL    HW1 2100   8.667  13.848  13.593
   89SOL    HW2 2101   8.635  13.866  13.446
   90SOL     OW 2102   4.054   0.192   6.504
   90SOL    HW1 2103   4.091   0.166   6.588
   90SOL    HW2 2104   3.979   0.134   6.492
   91SOL     OW 2105  12.107   3.807   0.412
   91SOL    HW1 2106  12.173   3.782   0.347
   91SOL    HW2 2107  12.070   3.888   0.378
   92SOL     OW 2108   2.650  11.954  14.750
   92SOL    HW1 2109   2.567  11.907  14.760
   92SOL    HW2 2110   2.666  11.993  14.835
   93SOL     OW 2111   1.864  12.337   9.733
   93SOL    HW1 2112   1.874  12.422   9.691
   93SOL    HW2 2113   1.794  12.294   9.684
   94SOL     OW 2114   2.414   4.588   7.141
   94SOL    HW1 2115   2.397   4.640   7.220
   94SOL    HW2 2116   2.455   4.649   7.080
   95SOL     OW 2117   1.808   6.381   6.285
   95SOL    HW1 2118   1.764   6.415   6.207
   95SOL    HW2 2119   1.876   6.322   6.251
   96SOL     OW 2120   0.409   0.005   4.194
   96SOL    HW1 2121   0.504   0.011   4.194
   96SOL    HW2 2122   0.379   0.095   4.205
   97SOL     OW 2123  12.013   0.232  10.229
   97SOL    HW1 2124  11.954   0.183  10.172
   97SOL    HW2 2125  12.059   0.292  10.169
   98SOL     OW 2126   7.018   4.699   8.949
   98SOL    HW1 2127   6.992   4.692   8.858
   98SOL    HW2 2128   6.983   4.620   8.991
   99SOL     OW 2129   3.136  11.494  11.314
   99SOL    HW1 2130   3.198  11.533  11.251
   99SOL    HW2 2131   3.191  11.441  11.372
  100SOL     OW 2132   7.605  14.848   2.227
  100SOL    HW1 2133   7.616  14.755   2.242
  100SOL    HW2 2134   7.626   0.010   2.312
  101SOL     OW 2135  13.383   8.602   6.101
  101SOL    HW1 2136  13.397   8.619   6.194
  101SOL    HW2 2137  13.471   8.595   6.064
  102SOL     OW 2138   1.592   1.454  11.165
  102SOL    HW1 2139   1.516   1.480  11.114
  102SOL    HW2 2140   1.557   1.392  11.230
  103SOL     OW 2141   3.566   2.357   8.125
  103SOL    HW1 2142   3.620   2.419   8.076
  103SOL    HW2 2143   3.604   2.272   8.105
  104SOL     OW 2144   6.742   6.188   1.547
  104SOL    HW1 2145   6.713   6.277   1.529
  104SOL    HW2 2146   6.727   6.176   1.641
  105SOL     OW 2147   2.812   1.676  12.255
  105SOL    HW1 2148   2.722   1.708  12.250
  105SOL    HW2 2149   2.851   1.701  12.171
  106SOL     OW 2150  14.796   9.508   6.389
  106SOL    HW1 2151  14.826   9.577   6.330
  106SOL    HW2 2152  14.874   9.454   6.403
  107SOL     OW 2153   3.452   5.700   7.626
  107SOL    HW1 2154   3.434   5.793   7.626
  107SOL    HW2 2155   3.435   5.672   7.716
  108SOL     OW 2156  13.745   8.090   5.749
  108SOL    HW1 2157  13.676   8.063   5.689
  108SOL    HW2 2158  13.707   8.164   5.797
  109SOL     OW 2159   9.088  10.623  11.605
  109SOL    HW1 2160   9.039  10.637  11.524
  109SOL    HW2 2161   9.174  10.662  11.589
  110SOL     OW 2162   5.778   1.272   0.078
  110SOL    HW1 2163   5.797   1.232  14.872
  110SOL    HW2 2164   5.707   1.219   0.114
  111SOL     OW 2165  10.655   6.056   2.374
  111SOL    HW1 2166  10.596   6.036   2.447
  111SOL    HW2 2167  10.731   6.097   2.416
  112SOL     OW 2168   6.123   4.060   0.803
  112SOL    HW1 2169   6.152   4.033   0.890
  112SOL    HW2 2170   6.028   4.064   0.809
  113SOL     OW 2171  14.352  12.535   0.206
  113SOL    HW1 2172  14.382  12.552   0.117
  113SOL    HW2 2173  14.425  12.561   0.262
  114SOL     OW 2174   6.411  10.454   0.039
  114SOL    HW1 2175   6.388  10.543   0.014
  114SOL    HW2 2176   6.478  10.427  14.854
  115SOL     OW 2177   9.793  10.186   1.509
  115SOL    HW1 2178   9.828  10.116   1.453
  115SOL    HW2 2179   9.832  10.266   1.474
  116SOL     OW 2180  12.655  11.976   4.489
  116SOL    HW1 2181  12.680  11.934   4.571
  116SOL    HW2 2182  12.686  11.917   4.421
  117SOL     OW 2183   5.735  10.761  10.256
  117SOL    HW1 2184   5.660  10.790  10.309
  117SOL    HW2 2185   5.807  10.756  10.318
  118SOL     OW 2186   6.039  10.195   8.849
  118SOL    HW1 2187   6.092  10.173   8.772
  118SOL    HW2 2188   6.071  10.136   8.917
  119SOL     OW 2189   7.552   9.483   4.462
  119SOL    HW1 2190   7.476   9.540   4.450
  119SOL    HW2 2191   7.579   9.459   4.374
  120SOL     OW 2192   4.387  12.273   3.083
  120SOL    HW1 2193   4.307  12.228   3.111
  120SOL    HW2 2194   4.435  12.207   3.032
  121SOL     OW 2195   7.756   8.885  13.154
  121SOL    HW1 2196   7.829   8.898  13.093
  121SOL    HW2 2197   7.685   8.938  13.118
  122SOL     OW 2198   5.575  13.572   6.499
  122SOL    HW1 2199   5.616  13.488   6.521
  122SOL    HW2 2200   5.488  13.548   6.466
  123SOL     OW 2201  10.548   1.872   5.290
  123SOL    HW1 2202  10.538   1.911   5.377
  123SOL    HW2 2203  10.463   1.884   5.248
  124SOL     OW 2204   6.131   5.376   4.827
  124SOL    HW1 2205   6.090   5.315   4.890
  124SOL    HW2 2206   6.185   5.320   4.772
  125SOL     OW 2207   4.603   3.086   5.045
  125SOL    HW1 2208   4.632   3.047   4.963
  125SOL    HW2 2209   4.653   3.040   5.113
  126SOL     OW 2210   0.940   6.945   5.809
  126SOL    HW1 2211   0.886   7.016   5.774
  126SOL    HW2 2212   1.022   6.951   5.760
  127SOL     OW 2213  12.060   4.312  14.218
  127SOL    HW1 2214  12.139   4.329  14.270
  127SOL    HW2 2215  12.091   4.262  14.143
  128SOL     OW 2216  13.042   4.112  13.428
  128SOL    HW1 2217  13.028   4.020  13.406
  128SOL    HW2 2218  13.136   4.118  13.448
  129SOL     OW 2219   4.450   7.749   3.357
  129SOL    HW1 2220   4.419   7.693   3.429
  129SOL    HW2 2221   4.371   7.768   3.307
  130SOL     OW 2222   5.143  14.076   9.822
  130SOL    HW1 2223   5.083  14.110   9.756
  130SOL    HW2 2224   5.229  14.105   9.793
  131SOL     OW 2225  14.434   9.909   1.610
  131SOL    HW1 2226  14.510   9.960   1.637
  131SOL    HW2 2227  14.470   9.830   1.571
  132SOL     OW 2228   9.240  12.717   8.184
  132SOL    HW1 2229   9.306  12.656   8.153
  132SOL    HW2 2230   9.254  12.796   8.131
  133SOL     OW 2231  10.442   5.471   3.257
  133SOL    HW1 2232  10.531   5.482   3.292
  133SOL    HW2 2233  10.393   5.545   3.293
  134SOL     OW 2234   7.127  12.629   5.404
  134SOL    HW1 2235   7.133  12.534   5.411
  134SOL    HW2 2236   7.094  12.645   5.316
  135SOL     OW 2237   0.258  10.790   6.704
  135SOL    HW1 2238   0.300  10.835   6.632
  135SOL    HW2 2239   0.207  10.720   6.663
  136SOL     OW 2240  13.681   9.087   0.400
  136SOL    HW1 2241  13.676   9.107   0.494
  136SOL    HW2 2242  13.672   9.171   0.357
  137SOL     OW 2243  14.206  13.003   2.612
  137SOL    HW1 2244  14.229  12.916   2.644
  137SOL    HW2 2245  14.201  12.993   2.517
  138SOL     OW 2246  13.646   2.888   5.415
  138SOL    HW1 2247  13.625   2.805   5.456
  138SOL    HW2 2248  13.720   2.869   5.357
  139SOL     OW 2249  12.877   3.735  12.672
  139SOL    HW1 2250  12.970   3.746  12.690
  139SOL    HW2 2251  12.852   3.656  12.720
  140SOL     OW 2252  14.307  10.510  11.087
  140SOL    HW1 2253  14.286  10.567  11.161
  140SOL    HW2 2254  14.367  10.561  11.033
  141SOL     OW 2255  11.421   6.797   2.677
  141SOL    HW1 2256  11.377   6.773   2.759
  141SOL    HW2 2257  11.509   6.761   2.685
  142SOL     OW 2258   2.204   0.937   4.998
  142SOL    HW1 2259   2.276   0.893   5.043
  142SOL    HW2 2260   2.125   0.900   5.038
  143SOL     OW 2261   0.652   1.735  14.690
  143SOL    HW1 2262   0.580   1.725  14.628
  143SOL    HW2 2263   0.657   1.650  14.734
  144SOL     OW 2264   5.531   6.606  10.353
  144SOL    HW1 2265   5.506   6.593  10.261
  144SOL    HW2 2266   5.456   6.575  10.403
  145SOL     OW 2267   3.365  11.374  14.772
  145SOL    HW1 2268   3.386  11.456  14.817
  145SOL    HW2 2269   3.295  11.397  14.710
  146SOL     OW 2270   4.379   3.424  11.672
  146SOL    HW1 2271   4.339   3.495  11.622
  146SOL    HW2 2272   4.399   3.463  11.758
  147SOL     OW 2273  14.000   4.285  13.350
  147SOL    HW1 2274  14.066   4.251  13.411
  147SOL    HW2 2275  13.928   4.222  13.357
  148SOL     OW 2276   2.647   1.101   8.768
  148SOL    HW1 2277   2.612   1.070   8.851
  148SOL    HW2 2278   2.668   1.193   8.783
  149SOL     OW 2279   6.383   1.051   1.547
  149SOL    HW1 2280   6.378   1.020   1.457
  149SOL    HW2 2281   6.436   1.131   1.542
  150SOL     OW 2282   4.542   0.693   8.577
  150SOL    HW1 2283   4.633   0.670   8.560
  150SOL    HW2 2284   4.517   0.747   8.502
  151SOL     OW 2285   5.704   9.588  10.713
  151SOL    HW1 2286   5.648   9.551  10.645
  151SOL    HW2 2287   5.728   9.675  10.681
  152SOL     OW 2288   3.339  14.740   9.223
  152SOL    HW1 2289   3.355  14.677   9.293
  152SOL    HW2 2290   3.354  14.690   9.142
  153SOL     OW 2291  13.825  14.195   7.762
  153SOL    HW1 2292  13.897  14.249   7.793
  153SOL    HW2 2293  13.771  14.255   7.710
  154SOL     OW 2294   4.385   3.975   7.536
  154SOL    HW1 2295   4.405   4.031   7.611
  154SOL    HW2 2296   4.299   4.005   7.505
  155SOL     OW 2297   7.765   3.638  14.116
  155SOL    HW1 2298   7.828   3.707  14.093
  155SOL    HW2 2299   7.774   3.573  14.047
  156SOL     OW 2300   3.322  11.917  12.411
  156SOL    HW1 2301   3.254  11.968  12.369
  156SOL    HW2 2302   3.389  11.981  12.434
  157SOL     OW 2303  13.666   6.365  10.132
  157SOL    HW1 2304  13.684   6.277  10.098
  157SOL    HW2 2305  13.746   6.389  10.178
  158SOL     OW 2306  11.038  14.428   9.554
  158SOL    HW1 2307  11.009  14.440   9.644
  158SOL    HW2 2308  11.130  14.401   9.561
  159SOL     OW 2309   0.291   4.728  13.802
  159SOL    HW1 2310   0.221   4.788  13.775
  159SOL    HW2 2311   0.366   4.754  13.748
  160SOL     OW 2312   1.840  11.101  13.190
  160SOL    HW1 2313   1.872  11.179  13.144
  160SOL    HW2 2314   1.772  11.065  13.133
  161SOL     OW 2315  11.425   1.854  11.641
  161SOL    HW1 2316  11.486   1.836  11.569
  161SOL    HW2 2317  11.472   1.826  11.720
  162SOL     OW 2318  12.699   8.493   7.860
  162SOL    HW1 2319  12.619   8.462   7.817
  162SOL    HW2 2320  12.695   8.457   7.948
  163SOL     OW 2321   8.190   8.668   6.222
  163SOL    HW1 2322   8.113   8.670   6.279
  163SOL    HW2 2323   8.185   8.582   6.179
  164SOL     OW 2324  12.050   3.953   3.517
  164SOL    HW1 2325  12.082   3.867   3.545
  164SOL    HW2 2326  11.962   3.959   3.555
  165SOL     OW 2327  14.214  14.487   3.022
  165SOL    HW1 2328  14.128  14.458   3.052
  165SOL    HW2 2329  14.217  14.580   3.046
  166SOL     OW 2330   5.438  10.036  11.286
  166SOL    HW1 2331   5.388  10.118  11.282
  166SOL    HW2 2332   5.468  10.030  11.377
  167SOL     OW 2333   5.095  11.582   1.477
  167SOL    HW1 2334   5.035  11.513   1.506
  167SOL    HW2 2335   5.154  11.594   1.551
  168SOL     OW 2336   1.115   1.600   6.875
  168SOL    HW1 2337   1.089   1.692   6.874
  168SOL    HW2 2338   1.066   1.562   6.948
  169SOL     OW 2339  13.218  11.319   8.841
  169SOL    HW1 2340  13.207  11.379   8.767
  169SOL    HW2 2341  13.143  11.261   8.836
  170SOL     OW 2342   4.905  14.813   3.433
  170SOL    HW1 2343   4.868  14.820   3.521
  170SOL    HW2 2344   4.967  14.740   3.438
  171SOL     OW 2345   3.661  10.392  11.347
  171SOL    HW1 2346   3.648  10.486  11.341
  171SOL    HW2 2347   3.707  10.369  11.266
  172SOL     OW 2348  14.097  10.380   0.186
  172SOL    HW1 2349  14.075  10.414   0.273
  172SOL    HW2 2350  14.015  10.387   0.137
  173SOL     OW 2351   7.330   9.395   0.397
  173SOL    HW1 2352   7.377   9.436   0.470
  173SOL    HW2 2353   7.398   9.382   0.331
  174SOL     OW 2354   3.762  13.833   2.484
  174SOL    HW1 2355   3.855  13.811   2.485
  174SOL    HW2 2356   3.736  13.826   2.392
  175SOL     OW 2357   6.003   1.232   7.237
  175SOL    HW1 2358   5.965   1.192   7.159
  175SOL    HW2 2359   6.045   1.160   7.283
  176SOL     OW 2360  13.688   6.564  13.718
  176SOL    HW1 2361  13.647   6.494  13.667
  176SOL    HW2 2362  13.781   6.555  13.699
  177SOL     OW 2363   5.500   2.997  11.481
  177SOL    HW1 2364   5.452   3.070  11.520
  177SOL    HW2 2365   5.494   2.927  11.545
  178SOL     OW 2366  13.721   3.841   0.924
  178SOL    HW1 2367  13.685   3.912   0.870
  178SOL    HW2 2368  13.730   3.768   0.863
  179SOL     OW 2369  14.211   1.391  11.814
  179SOL    HW1 2370  14.143   1.341  11.858
  179SOL    HW2 2371  14.292   1.366  11.859
  180SOL     OW 2372   3.937   9.454   2.555
  180SOL    HW1 2373   3.982   9.535   2.581
  180SOL    HW2 2374   4.007   9.398   2.522
  181SOL     OW 2375  12.019   8.446   0.383
  181SOL    HW1 2376  12.047   8.461   0.473
  181SOL    HW2 2377  12.043   8.526   0.337
  182SOL     OW 2378   0.290   4.035   2.490
  182SOL    HW1 2379   0.249   4.118   2.512
  182SOL    HW2 2380   0.356   4.057   2.425
  183SOL     OW 2381  14.763   3.104   7.688
  183SOL    HW1 2382  14.812   3.025   7.666
  183SOL    HW2 2383  14.820   3.151   7.748
  184SOL     OW 2384  11.307   4.874   2.651
  184SOL    HW1 2385  11.229   4.820   2.639
  184SOL    HW2 2386  11.273   4.961   2.673
  185SOL     OW 2387  14.416   0.858   7.698
  185SOL    HW1 2388  14.415   0.764   7.682
  185SOL    HW2 2389  14.457   0.867   7.784
  186SOL     OW 2390  13.976   0.275   5.174
  186SOL    HW1 2391  14.012   0.188   5.191
  186SOL    HW2 2392  13.973   0.281   5.079
  187SOL     OW 2393  14.163   8.470   6.700
  187SOL    HW1 2394  14.185   8.408   6.630
  187SOL    HW2 2395  14.068   8.480   6.693
  188SOL     OW 2396  10.551   0.293   3.518
  188SOL    HW1 2397  10.482   0.354   3.493
  188SOL    HW2 2398  10.524   0.209   3.481
  189SOL     OW 2399   0.030  10.429   9.251
  189SOL    HW1 2400  14.815  10.426   9.234
  189SOL    HW2 2401   0.055  10.520   9.234
  190SOL     OW 2402   1.294  13.850  11.956
  190SOL    HW1 2403   1.358  13.921  11.960
  190SOL    HW2 2404   1.211  13.893  11.935
  191SOL     OW 2405   1.632   1.023   5.275
  191SOL    HW1 2406   1.675   1.078   5.210
  191SOL    HW2 2407   1.602   1.085   5.342
  192SOL     OW 2408   9.275  11.980   7.361
  192SOL    HW1 2409   9.226  12.000   7.281
  192SOL    HW2 2410   9.283  12.064   7.406
  193SOL     OW 2411  13.555   5.305  11.774
  193SOL    HW1 2412  13.508   5.225  11.800
  193SOL    HW2 2413  13.573   5.350  11.857
  194SOL     OW 2414  13.871   4.733   9.215
  194SOL    HW1 2415  13.856   4.818   9.175
  194SOL    HW2 2416  13.874   4.750   9.309
  195SOL     OW 2417   2.975  13.596  13.827
  195SOL    HW1 2418   2.881  13.608  13.815
  195SOL    HW2 2419   2.992  13.508  13.794
  196SOL     OW 2420  12.898   9.526   6.520
  196SOL    HW1 2421  12.873   9.464   6.589
  196SOL    HW2 2422  12.853   9.607   6.543
  197SOL     OW 2423   8.900  13.055  13.619
  197SOL    HW1 2424   8.838  13.127  13.627
  197SOL    HW2 2425   8.886  13.003  13.699
  198SOL     OW 2426   7.861   3.299   9.377
  198SOL    HW1 2427   7.806   3.372   9.349
  198SOL    HW2 2428   7.815   3.221   9.346
  199SOL     OW 2429   4.227   1.303  12.112
  199SOL    HW1 2430   4.147   1.250  12.105
  199SOL    HW2 2431   4.298   1.240  12.104
  200SOL     OW 2432  13.131  13.021   4.231
  200SOL    HW1 2433  13.149  13.103   4.184
  200SOL    HW2 2434  13.050  13.037   4.278
  201SOL     OW 2435   3.944   3.000   0.449
  201SOL    HW1 2436   3.867   3.057   0.451
  201SOL    HW2 2437   3.942   2.954   0.533
  202SOL     OW 2438   5.662   4.451   8.766
  202SOL    HW1 2439   5.736   4.446   8.826
  202SOL    HW2 2440   5.587   4.422   8.818
  203SOL     OW 2441  10.857   6.995  12.622
  203SOL    HW1 2442  10.823   6.947  12.546
  203SOL    HW2 2443  10.844   7.087  12.600
  204SOL     OW 2444   1.165  10.704   1.368
  204SOL    HW1 2445   1.104  10.689   1.440
  204SOL    HW2 2446   1.219  10.777   1.397
  205SOL     OW 2447   2.321  12.676   3.950
  205SOL    HW1 2448   2.248  12.642   4.002
  205SOL    HW2 2449   2.368  12.598   3.921
  206SOL     OW 2450   1.750   0.022   5.092
  206SOL    HW1 2451   1.760   0.104   5.043
  206SOL    HW2 2452   1.831  14.852   5.074
  207SOL     OW 2453  14.438   0.410   2.754
  207SOL    HW1 2454  14.344   0.395   2.749
  207SOL    HW2 2455  14.448   0.481   2.817
  208SOL     OW 2456   4.489  10.570   1.396
  208SOL    HW1 2457   4.582  10.578   1.377
  208SOL    HW2 2458   4.445  10.609   1.320
  209SOL     OW 2459   4.759   1.099   9.609
  209SOL    HW1 2460   4.783   1.076   9.698
  209SOL    HW2 2461   4.842   1.118   9.566
  210SOL     OW 2462   6.443  12.366  11.661
  210SOL    HW1 2463   6.446  12.275  11.691
  210SOL    HW2 2464   6.412  12.360  11.571
  211SOL     OW 2465   6.607  12.986   8.721
  211SOL    HW1 2466   6.536  13.043   8.692
  211SOL    HW2 2467   6.665  13.045   8.771
  212SOL     OW 2468   0.672   4.651   6.014
  212SOL    HW1 2469   0.706   4.740   6.001
  212SOL    HW2 2470   0.677   4.637   6.108
  213SOL     OW 2471   1.723   9.675   0.151
  213SOL    HW1 2472   1.778   9.740   0.107
  213SOL    HW2 2473   1.697   9.718   0.233
  214SOL     OW 2474  14.778   1.943   8.646
  214SOL    HW1 2475  14.722   1.907   8.714
  214SOL    HW2 2476  14.801   2.031   8.676
  215SOL     OW 2477   5.088   0.812   6.918
  215SOL    HW1 2478   5.062   0.769   6.999
  215SOL    HW2 2479   5.096   0.741   6.854
  216SOL     OW 2480   8.388   5.327   6.314
  216SOL    HW1 2481   8.295   5.304   6.302
  216SOL    HW2 2482   8.430   5.244   6.336
  217SOL     OW 2483   2.204   3.779   2.219
  217SOL    HW1 2484   2.154   3.858   2.200
  217SOL    HW2 2485   2.243   3.755   2.135
  218SOL     OW 2486   8.619   8.995   9.120
  218SOL    HW1 2487   8.613   9.087   9.095
  218SOL    HW2 2488   8.647   8.951   9.039
  219SOL     OW 2489   7.934   5.103   8.152
  219SOL    HW1 2490   7.973   5.046   8.218
  219SOL    HW2 2491   8.005   5.121   8.090
  220SOL     OW 2492   8.458  13.193   0.099
  220SOL    HW1 2493   8.371  13.215   0.066
  220SOL    HW2 2494   8.466  13.098   0.087
  221SOL     OW 2495   5.303   9.539  10.362
  221SOL    HW1 2496   5.216   9.540  10.323
  221SOL    HW2 2497   5.323   9.447  10.375
  222SOL     OW 2498   6.209   0.881   3.336
  222SOL    HW1 2499   6.298   0.915   3.350
  222SOL    HW2 2500   6.190   0.904   3.245
  223SOL     OW 2501   0.839   2.645   6.452
  223SOL    HW1 2502   0.919   2.651   6.400
  223SOL    HW2 2503   0.869   2.630   6.541
  224SOL     OW 2504   2.491   9.171   1.653
  224SOL    HW1 2505   2.501   9.237   1.585
  224SOL    HW2 2506   2.409   9.126   1.630
  225SOL     OW 2507   0.543   7.750  14.541
  225SOL    HW1 2508   0.607   7.798  14.593
  225SOL    HW2 2509   0.543   7.662  14.577
  226SOL     OW 2510   3.372   2.672   4.229
  226SOL    HW1 2511   3.380   2.637   4.317
  226SOL    HW2 2512   3.347   2.597   4.175
  227SOL     OW 2513   6.288   7.917   2.473
  227SOL    HW1 2514   6.247   7.847   2.423
  227SOL    HW2 2515   6.234   7.927   2.551
  228SOL     OW 2516   6.711   1.774   5.231
  228SOL    HW1 2517   6.618   1.796   5.231
  228SOL    HW2 2518   6.724   1.724   5.312
  229SOL     OW 2519   9.356   3.221   8.558
  229SOL    HW1 2520   9.408   3.301   8.557
  229SOL    HW2 2521   9.328   3.209   8.467
  230SOL     OW 2522   7.398   9.125   0.470
  230SOL    HW1 2523   7.370   9.051   0.416
  230SOL    HW2 2524   7.348   9.200   0.436
  231SOL     OW 2525   4.164  13.185   9.406
  231SOL    HW1 2526   4.246  13.167   9.452
  231SOL    HW2 2527   4.100  13.127   9.447
  232SOL     OW 2528  11.466   9.930   9.685
  232SOL    HW1 2529  11.515   9.976   9.616
  232SOL    HW2 2530  11.499   9.967   9.766
  233SOL     OW 2531   2.623  14.093  11.132
  233SOL    HW1 2532   2.673  14.024  11.175
  233SOL    HW2 2533   2.532  14.066  11.139
  234SOL     OW 2534   4.454   4.654  11.223
  234SOL    HW1 2535   4.401   4.724  11.261
  234SOL    HW2 2536   4.469   4.594  11.295
  235SOL     OW 2537   5.614   8.304  11.130
  235SOL    HW1 2538   5.617   8.224  11.078
  235SOL    HW2 2539   5.521   8.316  11.148
  236SOL     OW 2540   2.207   3.752   8.673
  236SOL    HW1 2541   2.263   3.680   8.643
  236SOL    HW2 2542   2.158   3.778   8.595
  237SOL     OW 2543   7.721   6.995   5.923
  237SOL    HW1 2544   7.773   7.075   5.932
  237SOL    HW2 2545   7.694   6.994   5.831
  238SOL     OW 2546   9.308  12.933   8.051
  238SOL    HW1 2547   9.364  13.004   8.081
  238SOL    HW2 2548   9.324  12.926   7.957
  239SOL     OW 2549   7.737   9.138   3.969
  239SOL    HW1 2550   7.674   9.102   4.032
  239SOL    HW2 2551   7.708   9.104   3.885
  240SOL     OW 2552   9.814   3.377   1.587
  240SOL    HW1 2553   9.825   3.299   1.534
  240SOL    HW2 2554   9.821   3.345   1.678
  241SOL     OW 2555   8.594  10.585   8.488
  241SOL    HW1 2556   8.537  10.508   8.489
  241SOL    HW2 2557   8.599  10.612   8.580
  242SOL     OW 2558  10.363  11.670   9.965
  242SOL    HW1 2559  10.382  11.577   9.948
  242SOL    HW2 2560  10.445  11.705  10.000
  243SOL     OW 2561  12.989   9.398   5.167
  243SOL    HW1 2562  13.053   9.341   5.125
  243SOL    HW2 2563  12.905   9.368   5.132
  244SOL     OW 2564   7.396   0.198  11.746
  244SOL    HW1 2565   7.484   0.182  11.781
  244SOL    HW2 2566   7.339   0.197  11.823
  245SOL     OW 2567   1.510  11.740   0.606
  245SOL    HW1 2568   1.536  11.751   0.514
  245SOL    HW2 2569   1.480  11.649   0.612
  246SOL     OW 2570   4.498   2.245   7.509
  246SOL    HW1 2571   4.478   2.338   7.499
  246SOL    HW2 2572   4.420   2.200   7.476
  247SOL     OW 2573  10.184  10.582   2.249
  247SOL    HW1 2574  10.127  10.659   2.245
  247SOL    HW2 2575  10.241  10.598   2.324
  248SOL     OW 2576   9.243   9.634   2.335
  248SOL    HW1 2577   9.234   9.636   2.430
  248SOL    HW2 2578   9.250   9.541   2.313
  249SOL     OW 2579  10.902  13.987  13.942
  249SOL    HW1 2580  10.913  14.048  13.869
  249SOL    HW2 2581  10.832  13.928  13.913
  250SOL     OW 2582  14.831   4.637  13.760
  250SOL    HW1 2583   0.023   4.573  13.755
  250SOL    HW2 2584  14.853   4.701  13.692
  251SOL     OW 2585  13.505   3.186  11.620
  251SOL    HW1 2586  13.444   3.130  11.572
  251SOL    HW2 2587  13.539   3.131  11.690
  252SOL     OW 2588  11.332   0.250   6.071
  252SOL    HW1 2589  11.284   0.184   6.020
  252SOL    HW2 2590  11.287   0.332   6.051
  253SOL     OW 2591   2.072  10.176   6.172
  253SOL    HW1 2592   1.995  10.143   6.126
  253SOL    HW2 2593   2.043  10.191   6.262
  254SOL     OW 2594   0.868   2.887   5.508
  254SOL    HW1 2595   0.855   2.887   5.603
  254SOL    HW2 2596   0.955   2.925   5.496
  255SOL     OW 2597   6.968  14.719   4.244
  255SOL    HW1 2598   6.879  14.728   4.280
  255SOL    HW2 2599   7.023  14.704   4.321
  256SOL     OW 2600   5.849   5.594   3.532
  256SOL    HW1 2601   5.808   5.679   3.544
  256SOL    HW2 2602   5.881   5.571   3.619
  257SOL     OW 2603  13.249   5.304   9.249
  257SOL    HW1 2604  13.267   5.210   9.246
  257SOL    HW2 2605  13.188   5.315   9.321
  258SOL     OW 2606   8.261  12.810   8.580
  258SOL    HW1 2607   8.291  12.853   8.660
  258SOL    HW2 2608   8.166  12.807   8.588
  259SOL     OW 2609  11.505   6.480  10.335
  259SOL    HW1 2610  11.412   6.477  10.356
  259SOL    HW2 2611  11.529   6.572  10.342
  260SOL     OW 2612   3.914   8.186   1.747
  260SOL    HW1 2613   3.828   8.144   1.748
  260SOL    HW2 2614   3.947   8.174   1.658
  261SOL     OW 2615  10.284   4.838   3.453
  261SOL    HW1 2616  10.325   4.853   3.367
  261SOL    HW2 2617  10.199   4.799   3.433
  262SOL     OW 2618  13.911  10.296   4.182
  262SOL    HW1 2619  13.966  10.219   4.172
  262SOL    HW2 2620  13.857  10.278   4.258
  263SOL     OW 2621   0.224  12.414  13.530
  263SOL    HW1 2622   0.280  12.357  13.583
  263SOL    HW2 2623   0.278  12.491  13.511
  264SOL     OW 2624  13.644   8.255   1.187
  264SOL    HW1 2625  13.663   8.164   1.210
  264SOL    HW2 2626  13.658   8.259   1.093
  265SOL     OW 2627   9.597  13.609   9.605
  265SOL    HW1 2628   9.586  13.516   9.625
  265SOL    HW2 2629   9.611  13.612   9.510
  266SOL     OW 2630   3.015  13.421   5.139
  266SOL    HW1 2631   3.075  13.400   5.067
  266SOL    HW2 2632   2.973  13.503   5.111
  267SOL     OW 2633   4.593  12.357  14.059
  267SOL    HW1 2634   4.583  12.443  14.019
  267SOL    HW2 2635   4.586  12.296  13.986
  268SOL     OW 2636   2.183   8.462   6.900
  268SOL    HW1 2637   2.114   8.397   6.888
  268SOL    HW2 2638   2.232   8.432   6.977
  269SOL     OW 2639   9.267   2.582   8.071
  269SOL    HW1 2640   9.257   2.536   7.988
  269SOL    HW2 2641   9.325   2.656   8.051
  270SOL     OW 2642  12.893  12.267  10.781
  270SOL    HW1 2643  12.980  12.226  10.775
  270SOL    HW2 2644  12.846  12.214  10.845
  271SOL     OW 2645   6.825   2.626   9.585
  271SOL    HW1 2646   6.755   2.632   9.520
  271SOL    HW2 2647   6.899   2.590   9.537
  272SOL     OW 2648   2.839  13.043   5.379
  272SOL    HW1 2649   2.815  12.967   5.432
  272SOL    HW2 2650   2.767  13.053   5.317
  273SOL     OW 2651  13.425  10.943   1.842
  273SOL    HW1 2652  13.344  10.979   1.878
  273SOL    HW2 2653  13.444  10.867   1.897
  274SOL     OW 2654  12.426   3.926   8.071
  274SOL    HW1 2655  12.431   3.961   8.160
  274SOL    HW2 2656  12.384   3.841   8.080
  275SOL     OW 2657  11.104   8.661  10.043
  275SOL    HW1 2658  11.161   8.584  10.039
  275SOL    HW2 2659  11.163   8.735  10.036
  276SOL     OW 2660   1.520   3.149   4.205
  276SOL    HW1 2661   1.496   3.058   4.222
  276SOL    HW2 2662   1.437   3.193   4.189
  277SOL     OW 2663  11.676   3.052   7.744
  277SOL    HW1 2664  11.666   3.050   7.648
  277SOL    HW2 2665  11.770   3.055   7.758
  278SOL     OW 2666   9.714  11.550   6.935
  278SOL    HW1 2667   9.646  11.498   6.893
  278SOL    HW2 2668   9.777  11.568   6.865
  279SOL     OW 2669   5.130  14.576  14.438
  279SOL    HW1 2670   5.182  14.500  14.463
  279SOL    HW2 2671   5.177  14.613  14.363
  280SOL     OW 2672  14.135   3.046   7.983
  280SOL    HW1 2673  14.179   3.071   7.902
  280SOL    HW2 2674  14.089   3.126   8.010
  281SOL     OW 2675   8.360  12.199  12.865
  281SOL    HW1 2676   8.318  12.120  12.899
  281SOL    HW2 2677   8.441  12.207  12.916
  282SOL     OW 2678   3.223  14.419  13.017
  282SOL    HW1 2679   3.257  14.354  13.078
  282SOL    HW2 2680   3.226  14.501  13.066
  283SOL     OW 2681   8.681   3.135   0.061
  283SOL    HW1 2682   8.662   3.114  14.848
  283SOL    HW2 2683   8.720   3.055   0.096
  284SOL     OW 2684  12.098  14.242   6.847
  284SOL    HW1 2685  12.169  14.261   6.785
  284SOL    HW2 2686  12.139  14.250   6.933
  285SOL     OW 2687   5.597   1.438   4.898
  285SOL    HW1 2688   5.616   1.511   4.841
  285SOL    HW2 2689   5.503   1.422   4.885
  286SOL     OW 2690  13.094   1.724   6.800
  286SOL    HW1 2691  13.084   1.723   6.895
  286SOL    HW2 2692  13.159   1.794   6.784
  287SOL     OW 2693   7.237   3.782   0.545
  287SOL    HW1 2694   7.159   3.825   0.511
  287SOL    HW2 2695   7.255   3.711   0.483
  288SOL     OW 2696  12.140   3.590  10.130
  288SOL    HW1 2697  12.131   3.673  10.083
  288SOL    HW2 2698  12.100   3.606  10.215
  289SOL     OW 2699   6.676   8.795   0.940
  289SOL    HW1 2700   6.739   8.725   0.925
  289SOL    HW2 2701   6.684   8.852   0.863
  290SOL     OW 2702   1.738   4.625   8.672
  290SOL    HW1 2703   1.658   4.647   8.720
  290SOL    HW2 2704   1.718   4.542   8.629
  291SOL     OW 2705   9.959   4.033  14.113
  291SOL    HW1 2706   9.865   4.048  14.128
  291SOL    HW2 2707  10.002   4.087  14.180
  292SOL     OW 2708   7.896   6.784   6.732
  292SOL    HW1 2709   7.828   6.851   6.726
  292SOL    HW2 2710   7.848   6.701   6.737
  293SOL     OW 2711   1.647  13.381  14.227
  293SOL    HW1 2712   1.635  13.475  14.236
  293SOL    HW2 2713   1.559  13.344  14.230
  294SOL     OW 2714   4.642   8.021   7.215
  294SOL    HW1 2715   4.585   8.044   7.289
  294SOL    HW2 2716   4.594   8.049   7.138
  295SOL     OW 2717   0.645  12.975  13.889
  295SOL    HW1 2718   0.724  12.958  13.940
  295SOL    HW2 2719   0.649  13.069  13.871
  296SOL     OW 2720   9.082   5.732  12.547
  296SOL    HW1 2721   9.130   5.804  12.506
  296SOL    HW2 2722   9.078   5.664  12.479
  297SOL     OW 2723   3.020  11.676   2.589
  297SOL    HW1 2724   2.964  11.698   2.514
  297SOL    HW2 2725   3.104  11.718   2.569
  298SOL     OW 2726   8.795   8.074  10.995
  298SOL    HW1 2727   8.861   8.133  10.958
  298SOL    HW2 2728   8.720   8.081  10.936
  299SOL     OW 2729   1.859  13.064   7.533
  299SOL    HW1 2730   1.900  13.149   7.520
  299SOL    HW2 2731   1.819  13.043   7.449
  300SOL     OW 2732  10.167   9.659   7.509
  300SOL    HW1 2733  10.139   9.586   7.455
  300SOL    HW2 2734  10.087   9.692   7.549
  301SOL     OW 2735   7.997   5.910  13.088
  301SOL    HW1 2736   8.036   5.826  13.065
  301SOL    HW2 2737   7.973   5.901  13.180
  302SOL     OW 2738  14.017   9.661   2.673
  302SOL    HW1 2739  13.926   9.648   2.698
  302SOL    HW2 2740  14.030   9.756   2.681
  303SOL     OW 2741   9.644   9.178   7.913
  303SOL    HW1 2742   9.701   9.101   7.901
  303SOL    HW2 2743   9.557   9.146   7.890
  304SOL     OW 2744   4.968   1.500   4.797
  304SOL    HW1 2745   4.977   1.538   4.884
  304SOL    HW2 2746   5.054   1.510   4.756
  305SOL     OW 2747   1.545   3.213   9.019
  305SOL    HW1 2748   1.504   3.300   9.029
  305SOL    HW2 2749   1.477   3.159   8.979
  306SOL     OW 2750   4.805   7.222  12.293
  306SOL    HW1 2751   4.779   7.154  12.231
  306SOL    HW2 2752   4.728   7.234  12.349
  307SOL     OW 2753   6.284   2.499   2.630
  307SOL    HW1 2754   6.354   2.527   2.690
  307SOL    HW2 2755   6.308   2.539   2.546
  308SOL     OW 2756   6.394  11.529   5.633
  308SOL    HW1 2757   6.326  11.462   5.639
  308SOL    HW2 2758   6.394  11.571   5.719
  309SOL     OW 2759   2.718   7.980   9.514
  309SOL    HW1 2760   2.806   7.947   9.495
  309SOL    HW2 2761   2.661   7.933   9.454
  310SOL     OW 2762  11.470  13.207   5.742
  310SOL    HW1 2763  11.411  13.277   5.769
  310SOL    HW2 2764  11.547  13.217   5.798
  311SOL     OW 2765   4.810  10.627  12.770
  311SOL    HW1 2766   4.753  10.601  12.698
  311SOL    HW2 2767   4.831  10.544  12.814
  312SOL     OW 2768  12.219   8.438   4.205
  312SOL    HW1 2769  12.233   8.447   4.299
  312SOL    HW2 2770  12.280   8.500   4.165
  313SOL     OW 2771  14.409   1.399  12.322
  313SOL    HW1 2772  14.425   1.477  12.269
  313SOL    HW2 2773  14.460   1.330  12.280
  314SOL     OW 2774   4.057   1.012   8.147
  314SOL    HW1 2775   4.075   1.044   8.236
  314SOL    HW2 2776   4.143   0.983   8.115
  315SOL     OW 2777   2.457   2.759   8.974
  315SOL    HW1 2778   2.395   2.815   9.021
  315SOL    HW2 2779   2.500   2.707   9.041
  316SOL     OW 2780   4.370   7.501   0.266
  316SOL    HW1 2781   4.284   7.507   0.224
  316SOL    HW2 2782   4.370   7.417   0.311
  317SOL     OW 2783   5.701   2.631  10.848
  317SOL    HW1 2784   5.709   2.715  10.892
  317SOL    HW2 2785   5.767   2.634  10.778
  318SOL     OW 2786  14.608   3.703   5.231
  318SOL    HW1 2787  14.626   3.797   5.229
  318SOL    HW2 2788  14.648   3.673   5.313
  319SOL     OW 2789   6.153   1.696   2.548
  319SOL    HW1 2790   6.061   1.670   2.546
  319SOL    HW2 2791   6.200   1.617   2.572
  320SOL     OW 2792  10.268   2.426   5.595
  320SOL    HW1 2793  10.319   2.445   5.516
  320SOL    HW2 2794  10.306   2.344   5.628
  321SOL     OW 2795   3.849   2.279   6.581
  321SOL    HW1 2796   3.902   2.203   6.556
  321SOL    HW2 2797   3.780   2.243   6.637
  322SOL     OW 2798  11.102   2.116   3.643
  322SOL    HW1 2799  11.140   2.058   3.710
  322SOL    HW2 2800  11.162   2.109   3.569
  323SOL     OW 2801   6.282  10.790   4.539
  323SOL    HW1 2802   6.347  10.825   4.478
  323SOL    HW2 2803   6.203  10.778   4.486
  324SOL     OW 2804   8.008   1.026   0.005
  324SOL    HW1 2805   8.052   1.025  14.799
  324SOL    HW2 2806   7.916   1.045  14.863
  325SOL     OW 2807   5.467   2.887   5.663
  325SOL    HW1 2808   5.552   2.846   5.649
  325SOL    HW2 2809   5.404   2.824   5.627
  326SOL     OW 2810   5.913   0.309  12.841
  326SOL    HW1 2811   5.916   0.396  12.802
  326SOL    HW2 2812   5.967   0.255  12.783
  327SOL     OW 2813  11.496   7.925   5.998
  327SOL    HW1 2814  11.565   7.860   6.011
  327SOL    HW2 2815  11.456   7.902   5.914
  328SOL     OW 2816   9.059  14.732  14.528
  328SOL    HW1 2817   9.022  14.816  14.555
  328SOL    HW2 2818   9.017  14.668  14.586
  329SOL     OW 2819  13.954  13.058   5.033
  329SOL    HW1 2820  14.046  13.034   5.039
  329SOL    HW2 2821  13.909  12.977   5.010
  330SOL     OW 2822  12.905   0.324  11.217
  330SOL    HW1 2823  12.952   0.335  11.134
  330SOL    HW2 2824  12.965   0.358  11.283
  331SOL     OW 2825   1.403   2.005  14.584
  331SOL    HW1 2826   1.317   1.962  14.592
  331SOL    HW2 2827   1.410   2.059  14.663
  332SOL     OW 2828   9.135   0.954   9.483
  332SOL    HW1 2829   9.230   0.944   9.481
  332SOL    HW2 2830   9.120   1.021   9.550
  333SOL     OW 2831   2.299   8.429  14.118
  333SOL    HW1 2832   2.350   8.353  14.147
  333SOL    HW2 2833   2.298   8.422  14.023
  334SOL     OW 2834   5.971   8.809   1.344
  334SOL    HW1 2835   5.975   8.740   1.278
  334SOL    HW2 2836   5.935   8.885   1.298
  335SOL     OW 2837  10.713   9.577   7.698
  335SOL    HW1 2838  10.654   9.526   7.642
  335SOL    HW2 2839  10.670   9.663   7.705
  336SOL     OW 2840   5.111  10.675  13.055
  336SOL    HW1 2841   5.127  10.769  13.065
  336SOL    HW2 2842   5.144  10.636  13.137
  337SOL     OW 2843   8.374   1.192  13.551
  337SOL    HW1 2844   8.340   1.281  13.564
  337SOL    HW2 2845   8.379   1.155  13.639
  338SOL     OW 2846   1.587  11.815  12.443
  338SOL    HW1 2847   1.665  11.839  12.493
  338SOL    HW2 2848   1.620  11.795  12.355
  339SOL     OW 2849   2.745   5.956  13.999
  339SOL    HW1 2850   2.652   5.980  13.995
  339SOL    HW2 2851   2.791   6.040  14.004
  340SOL     OW 2852   6.700   5.138  13.585
  340SOL    HW1 2853   6.763   5.091  13.531
  340SOL    HW2 2854   6.660   5.071  13.640
  341SOL     OW 2855  12.963   4.216   5.965
  341SOL    HW1 2856  13.013   4.153   6.017
  341SOL    HW2 2857  12.954   4.292   6.022
  342SOL     OW 2858   9.781   1.218  11.703
  342SOL    HW1 2859   9.762   1.219  11.609
  342SOL    HW2 2860   9.755   1.305  11.734
  343SOL     OW 2861   7.787   5.015  10.601
  343SOL    HW1 2862   7.836   5.076  10.656
  343SOL    HW2 2863   7.794   5.050  10.513
  344SOL     OW 2864   5.321  11.677  11.252
  344SOL    HW1 2865   5.237  11.722  11.261
  344SOL    HW2 2866   5.365  11.692  11.335
  345SOL     OW 2867  12.978   7.394   0.416
  345SOL    HW1 2868  13.059   7.354   0.447
  345SOL    HW2 2869  12.974   7.478   0.462
  346SOL     OW 2870   6.156   6.791   0.222
  346SOL    HW1 2871   6.199   6.711   0.251
  346SOL    HW2 2872   6.216   6.861   0.247
  347SOL     OW 2873  12.264   0.254  12.365
  347SOL    HW1 2874  12.351   0.225  12.392
  347SOL    HW2 2875  12.216   0.264  12.447
  348SOL     OW 2876   3.513   4.995   5.524
  348SOL    HW1 2877   3.592   5.032   5.484
  348SOL    HW2 2878   3.527   5.004   5.618
  349SOL     OW 2879   3.099   8.742  13.266
  349SOL    HW1 2880   3.031   8.783  13.213
  349SOL    HW2 2881   3.071   8.756  13.357
  350SOL     OW 2882   2.425   4.919  10.548
  350SOL    HW1 2883   2.448   5.009  10.569
  350SOL    HW2 2884   2.418   4.875  10.632
  351SOL     OW 2885  13.602   5.055   4.439
  351SOL    HW1 2886  13.556   4.975   4.466
  351SOL    HW2 2887  13.595   5.114   4.514
  352SOL     OW 2888   0.209   3.416  10.109
  352SOL    HW1 2889   0.259   3.351  10.159
  352SOL    HW2 2890   0.237   3.403  10.019
  353SOL     OW 2891   7.525   6.915   8.690
  353SOL    HW1 2892   7.573   6.891   8.770
  353SOL    HW2 2893   7.458   6.848   8.682
  354SOL     OW 2894  12.517   0.700   1.229
  354SOL    HW1 2895  12.485   0.787   1.254
  354SOL    HW2 2896  12.532   0.707   1.135
  355SOL     OW 2897   3.165   5.865  12.813
  355SOL    HW1 2898   3.174   5.822  12.898
  355SOL    HW2 2899   3.226   5.939  12.817
  356SOL     OW 2900   1.140   5.267  13.515
  356SOL    HW1 2901   1.226   5.240  13.483
  356SOL    HW2 2902   1.115   5.198  13.577
  357SOL     OW 2903   9.936   4.741  12.090
  357SOL    HW1 2904   9.942   4.835  12.079
  357SOL    HW2 2905  10.010   4.706  12.041
  358SOL     OW 2906   8.965   6.962   3.040
  358SOL    HW1 2907   9.023   6.993   3.109
  358SOL    HW2 2908   8.915   7.040   3.015
  359SOL     OW 2909   0.602  13.416  14.325
  359SOL    HW1 2910   0.582  13.359  14.250
  359SOL    HW2 2911   0.684  13.459  14.301
  360SOL     OW 2912   2.935   1.333   2.061
  360SOL    HW1 2913   2.883   1.367   1.988
  360SOL    HW2 2914   2.929   1.401   2.128
  361SOL     OW 2915  12.736  14.587   1.192
  361SOL    HW1 2916  12.818  14.598   1.143
  361SOL    HW2 2917  12.675  14.648   1.150
  362SOL     OW 2918  11.461   3.924   1.808
  362SOL    HW1 2919  11.389   3.967   1.762
  362SOL    HW2 2920  11.475   3.977   1.886
  363SOL     OW 2921   3.464   2.837   5.036
  363SOL    HW1 2922   3.554   2.811   5.015
  363SOL    HW2 2923   3.473   2.917   5.087
  364SOL     OW 2924  10.062   7.877  10.377
  364SOL    HW1 2925  10.013   7.801  10.408
  364SOL    HW2 2926  10.150   7.864  10.411
  365SOL     OW 2927   3.602   5.703  12.704
  365SOL    HW1 2928   3.683   5.660  12.729
  365SOL    HW2 2929   3.547   5.632  12.670
  366SOL     OW 2930  11.292  11.284   9.426
  366SOL    HW1 2931  11.283  11.376   9.401
  366SOL    HW2 2932  11.314  11.239   9.344
  367SOL     OW 2933  12.424   7.602  10.697
  367SOL    HW1 2934  12.396   7.555  10.775
  367SOL    HW2 2935  12.498   7.551  10.663
  368SOL     OW 2936  13.348   0.313   0.951
  368SOL    HW1 2937  13.321   0.296   1.041
  368SOL    HW2 2938  13.266   0.331   0.904
  369SOL     OW 2939   3.616   6.414   8.001
  369SOL    HW1 2940   3.635   6.401   8.093
  369SOL    HW2 2941   3.597   6.508   7.993
  370SOL     OW 2942   2.506   8.495  14.468
  370SOL    HW1 2943   2.552   8.451  14.397
  370SOL    HW2 2944   2.575   8.536  14.520
  371SOL     OW 2945   8.509   2.678   0.824
  371SOL    HW1 2946   8.474   2.590   0.835
  371SOL    HW2 2947   8.447   2.722   0.767
  372SOL     OW 2948   8.604   8.822  10.578
  372SOL    HW1 2949   8.655   8.848  10.654
  372SOL    HW2 2950   8.537   8.763  10.613
  373SOL     OW 2951   8.139   2.000   7.697
  373SOL    HW1 2952   8.178   2.027   7.613
  373SOL    HW2 2953   8.204   1.942   7.736
  374SOL     OW 2954   9.029  12.280   2.769
  374SOL    HW1 2955   8.938  12.308   2.779
  374SOL    HW2 2956   9.045  12.280   2.675
  375SOL     OW 2957  12.998  13.449   5.904
  375SOL    HW1 2958  12.965  13.538   5.893
  375SOL    HW2 2959  12.941  13.395   5.850
  376SOL     OW 2960   1.242  14.335  12.061
  376SOL    HW1 2961   1.173  14.390  12.100
  376SOL    HW2 2962   1.279  14.287  12.135
  377SOL     OW 2963  12.916   6.940   1.200
  377SOL    HW1 2964  12.942   7.025   1.236
  377SOL    HW2 2965  12.916   6.881   1.275
  378SOL     OW 2966   6.890   9.029   8.529
  378SOL    HW1 2967   6.943   9.029   8.450
  378SOL    HW2 2968   6.807   8.989   8.503
  379SOL     OW 2969   4.699   9.856   4.033
  379SOL    HW1 2970   4.641   9.844   3.957
  379SOL    HW2 2971   4.643   9.837   4.108
  380SOL     OW 2972  12.052   0.753   2.966
  380SOL    HW1 2973  12.087   0.719   3.049
  380SOL    HW2 2974  12.126   0.752   2.906
  381SOL     OW 2975  14.066   6.461  10.732
  381SOL    HW1 2976  14.062   6.550  10.698
  381SOL    HW2 2977  14.084   6.406  10.655
  382SOL     OW 2978   0.765   0.723  14.475
  382SOL    HW1 2979   0.798   0.687  14.393
  382SOL    HW2 2980   0.842   0.730  14.532
  383SOL     OW 2981   7.385  12.963   5.157
  383SOL    HW1 2982   7.379  12.918   5.241
  383SOL    HW2 2983   7.375  12.894   5.092
  384SOL     OW 2984  14.625  14.088  12.996
  384SOL    HW1 2985  14.675  14.159  13.037
  384SOL    HW2 2986  14.535  14.104  13.024
  385SOL     OW 2987   3.510   8.135   0.140
  385SOL    HW1 2988   3.557   8.121   0.223
  385SOL    HW2 2989   3.452   8.209   0.158
  386SOL     OW 2990   6.560   9.066  12.633
  386SOL    HW1 2991   6.566   9.093  12.725
  386SOL    HW2 2992   6.614   9.129  12.586
  387SOL     OW 2993   4.997  10.900   8.053
  387SOL    HW1 2994   4.948  10.953   8.116
  387SOL    HW2 2995   5.066  10.958   8.022
  388SOL     OW 2996  11.630   0.976  11.618
  388SOL    HW1 2997  11.659   0.904  11.675
  388SOL    HW2 2998  11.554   1.013  11.663
  389SOL     OW 2999   7.088   2.863  14.690
  389SOL    HW1 3000   7.000   2.896  14.707
  389SOL    HW2 3001   7.136   2.939  14.658
  390SOL     OW 3002   8.429   3.132  13.539
  390SOL    HW1 3003   8.389   3.045  13.538
  390SOL    HW2 3004   8.513   3.119  13.494
  391SOL     OW 3005   1.115   2.475  10.042
  391SOL    HW1 3006   1.093   2.551  10.095
  391SOL    HW2 3007   1.126   2.510   9.953
  392SOL     OW 3008   0.405   2.116  12.944
  392SOL    HW1 3009   0.489   2.141  12.984
  392SOL    HW2 3010   0.361   2.064  13.011
  393SOL     OW 3011   3.095   7.607  11.632
  393SOL    HW1 3012   3.157   7.594  11.560
  393SOL    HW2 3013   3.050   7.689  11.611
  394SOL     OW 3014   0.076   9.652  10.972
  394SOL    HW1 3015   0.044   9.713  11.038
  394SOL    HW2 3016   0.153   9.611  11.011
  395SOL     OW 3017  14.003  10.989   7.058
  395SOL    HW1 3018  14.050  11.024   6.982
  395SOL    HW2 3019  13.923  10.950   7.022
  396SOL     OW 3020   1.665   0.042   2.053
  396SOL    HW1 3021   1.578   0.032   2.090
  396SOL    HW2 3022   1.712  14.841   2.079
  397SOL     OW 3023   5.010  11.655   5.119
  397SOL    HW1 3024   4.996  11.659   5.214
  397SOL    HW2 3025   5.085  11.597   5.108
  398SOL     OW 3026   8.199  10.580  10.699
  398SOL    HW1 3027   8.179  10.663  10.741
  398SOL    HW2 3028   8.128  10.521  10.726
  399SOL     OW 3029   4.136   4.275   8.266
  399SOL    HW1 3030   4.129   4.187   8.229
  399SOL    HW2 3031   4.211   4.314   8.221
  400SOL     OW 3032   4.484   3.906   4.359
  400SOL    HW1 3033   4.449   3.836   4.304
  400SOL    HW2 3034   4.413   3.970   4.365
  401SOL     OW 3035   5.798   5.369   8.832
  401SOL    HW1 3036   5.735   5.426   8.789
  401SOL    HW2 3037   5.767   5.280   8.812
  402SOL     OW 3038   6.795   9.078  11.796
  402SOL    HW1 3039   6.881   9.076  11.839
  402SOL    HW2 3040   6.755   9.159  11.828
  403SOL     OW 3041  14.124   7.947   8.756
  403SOL    HW1 3042  14.048   7.933   8.700
  403SOL    HW2 3043  14.198   7.949   8.696
  404SOL     OW 3044  12.492   3.377   6.949
  404SOL    HW1 3045  12.408   3.411   6.980
  404SOL    HW2 3046  12.557   3.412   7.010
  405SOL     OW 3047   8.663   1.122   9.797
  405SOL    HW1 3048   8.701   1.200   9.838
  405SOL    HW2 3049   8.694   1.050   9.851
  406SOL     OW 3050  10.008   7.036   0.926
  406SOL    HW1 3051   9.936   7.015   0.985
  406SOL    HW2 3052  10.079   7.065   0.984
  407SOL     OW 3053   9.929   0.249   7.958
  407SOL    HW1 3054   9.936   0.338   7.993
  407SOL    HW2 3055   9.951   0.193   8.032
  408SOL     OW 3056  11.821   5.100   9.451
  408SOL    HW1 3057  11.859   5.034   9.509
  408SOL    HW2 3058  11.748   5.137   9.501
  409SOL     OW 3059   6.863  14.634  11.076
  409SOL    HW1 3060   6.869  14.541  11.051
  409SOL    HW2 3061   6.871  14.634  11.171
  410SOL     OW 3062  11.819   4.943  13.046
  410SOL    HW1 3063  11.852   4.952  13.135
  410SOL    HW2 3064  11.863   4.865  13.012
  411SOL     OW 3065   0.762   0.282   7.826
  411SOL    HW1 3066   0.728   0.194   7.809
  411SOL    HW2 3067   0.821   0.270   7.901
  412SOL     OW 3068  14.175  14.109   2.259
  412SOL    HW1 3069  14.248  14.145   2.309
  412SOL    HW2 3070  14.205  14.022   2.232
  413SOL     OW 3071  10.019   4.759   3.400
  413SOL    HW1 3072   9.948   4.779   3.339
  413SOL    HW2 3073   9.991   4.678   3.443
  414SOL     OW 3074   7.724   2.051  13.833
  414SOL    HW1 3075   7.662   2.102  13.780
  414SOL    HW2 3076   7.732   1.968  13.786
  415SOL     OW 3077  12.026   5.444  10.194
  415SOL    HW1 3078  12.016   5.401  10.279
  415SOL    HW2 3079  11.943   5.428  10.149
  416SOL     OW 3080  10.982   4.836  13.178
  416SOL    HW1 3081  10.944   4.755  13.212
  416SOL    HW2 3082  10.939   4.905  13.229
  417SOL     OW 3083   7.815   0.682  11.204
  417SOL    HW1 3084   7.845   0.730  11.281
  417SOL    HW2 3085   7.853   0.730  11.130
  418SOL     OW 3086   0.221  13.107   3.525
  418SOL    HW1 3087   0.316  13.107   3.517
  418SOL    HW2 3088   0.199  13.194   3.557
  419SOL     OW 3089   7.294   3.677   8.434
  419SOL    HW1 3090   7.224   3.740   8.418
  419SOL    HW2 3091   7.275   3.643   8.521
  420SOL     OW 3092   6.569   8.698   8.426
  420SOL    HW1 3093   6.519   8.645   8.365
  420SOL    HW2 3094   6.660   8.691   8.395
  421SOL     OW 3095   7.656   1.577   6.537
  421SOL    HW1 3096   7.646   1.666   6.571
  421SOL    HW2 3097   7.617   1.521   6.604
  422SOL     OW 3098   2.726   6.919   4.595
  422SOL    HW1 3099   2.720   6.959   4.682
  422SOL    HW2 3100   2.776   6.982   4.543
  423SOL     OW 3101  10.327  12.640  14.870
  423SOL    HW1 3102  10.295  12.678   0.073
  423SOL    HW2 3103  10.338  12.714  14.811
  424SOL     OW 3104   4.861  10.789  14.780
  424SOL    HW1 3105   4.949  10.766  14.748
  424SOL    HW2 3106   4.802  10.729  14.734
  425SOL     OW 3107  14.436  10.338   1.037
  425SOL    HW1 3108  14.482  10.274   1.092
  425SOL    HW2 3109  14.506  10.396   1.005
  426SOL     OW 3110   0.830   4.999   2.723
  426SOL    HW1 3111   0.857   4.946   2.798
  426SOL    HW2 3112   0.761   4.949   2.681
  427SOL     OW 3113   9.335   8.782   3.881
  427SOL    HW1 3114   9.338   8.815   3.971
  427SOL    HW2 3115   9.340   8.687   3.889
  428SOL     OW 3116   4.413  12.599   3.956
  428SOL    HW1 3117   4.391  12.637   4.040
  428SOL    HW2 3118   4.408  12.504   3.971
  429SOL     OW 3119   7.893   3.353   1.277
  429SOL    HW1 3120   7.816   3.390   1.321
  429SOL    HW2 3121   7.897   3.400   1.194
  430SOL     OW 3122  14.198   6.269   6.057
  430SOL    HW1 3123  14.125   6.330   6.066
  430SOL    HW2 3124  14.261   6.298   6.123
  431SOL     OW 3125   0.388   8.916   9.557
  431SOL    HW1 3126   0.406   8.970   9.634
  431SOL    HW2 3127   0.441   8.838   9.570
  432SOL     OW 3128   0.712   7.857   4.339
  432SOL    HW1 3129   0.661   7.786   4.299
  432SOL    HW2 3130   0.671   7.937   4.306
  433SOL     OW 3131  11.291   3.704   7.694
  433SOL    HW1 3132  11.233   3.630   7.712
  433SOL    HW2 3133  11.267   3.770   7.759
  434SOL     OW 3134  11.443   9.408  10.854
  434SOL    HW1 3135  11.463   9.367  10.938
  434SOL    HW2 3136  11.523   9.455  10.830
  435SOL     OW 3137   6.397  14.172   5.984
  435SOL    HW1 3138   6.447  14.102   6.027
  435SOL    HW2 3139   6.354  14.129   5.911
  436SOL     OW 3140   1.733   0.809   0.777
  436SOL    HW1 3141   1.785   0.771   0.847
  436SOL    HW2 3142   1.667   0.742   0.758
  437SOL     OW 3143  11.861   7.580   7.193
  437SOL    HW1 3144  11.807   7.600   7.269
  437SOL    HW2 3145  11.895   7.492   7.210
  438SOL     OW 3146   8.189   3.719   5.666
  438SOL    HW1 3147   8.162   3.728   5.758
  438SOL    HW2 3148   8.138   3.785   5.619
  439SOL     OW 3149  11.832  14.262   7.221
  439SOL    HW1 3150  11.863  14.213   7.145
  439SOL    HW2 3151  11.880  14.225   7.295
  440SOL     OW 3152   4.910   4.192   6.177
  440SOL    HW1 3153   4.992   4.211   6.223
  440SOL    HW2 3154   4.885   4.275   6.136
  441SOL     OW 3155  14.205   7.033   6.733
  441SOL    HW1 3156  14.157   7.084   6.798
  441SOL    HW2 3157  14.244   6.961   6.783
  442SOL     OW 3158   5.653   7.772  12.975
  442SOL    HW1 3159   5.629   7.688  13.013
  442SOL    HW2 3160   5.729   7.753  12.920
  443SOL     OW 3161   0.987   5.399  12.162
  443SOL    HW1 3162   0.942   5.474  12.199
  443SOL    HW2 3163   1.017   5.349  12.237
  444SOL     OW 3164   9.500   5.190  10.503
  444SOL    HW1 3165   9.427   5.128  10.501
  444SOL    HW2 3166   9.480   5.252  10.433
  445SOL     OW 3167  10.773   1.169   4.783
  445SOL    HW1 3168  10.682   1.145   4.805
  445SOL    HW2 3169  10.764   1.232   4.712
  446SOL     OW 3170  10.231  10.740   3.493
  446SOL    HW1 3171  10.266  10.807   3.551
  446SOL    HW2 3172  10.141  10.727   3.523
  447SOL     OW 3173   8.021  12.533   7.293
  447SOL    HW1 3174   8.015  12.438   7.281
  447SOL    HW2 3175   7.963  12.569   7.226
  448SOL     OW 3176   9.419  13.500   8.838
  448SOL    HW1 3177   9.377  13.525   8.756
  448SOL    HW2 3178   9.418  13.404   8.837
  449SOL     OW 3179   2.816  10.543  10.377
  449SOL    HW1 3180   2.772  10.588  10.305
  449SOL    HW2 3181   2.827  10.453  10.345
  450SOL     OW 3182   2.019   9.386   6.408
  450SOL    HW1 3183   1.970   9.307   6.431
  450SOL    HW2 3184   2.110   9.357   6.404
  451SOL     OW 3185   7.873   3.476  11.707
  451SOL    HW1 3186   7.962   3.503  11.727
  451SOL    HW2 3187   7.867   3.386  11.740
  452SOL     OW 3188  12.590   4.992   4.412
  452SOL    HW1 3189  12.631   4.910   4.383
  452SOL    HW2 3190  12.625   5.059   4.353
  453SOL     OW 3191   0.793   7.680   6.180
  453SOL    HW1 3192   0.820   7.757   6.129
  453SOL    HW2 3193   0.860   7.671   6.248
  454SOL     OW 3194  10.228   4.733   8.837
  454SOL    HW1 3195  10.285   4.734   8.760
  454SOL    HW2 3196  10.141   4.756   8.803
  455SOL     OW 3197  13.302  12.564   9.527
  455SOL    HW1 3198  13.290  12.473   9.497
  455SOL    HW2 3199  13.353  12.556   9.607
  456SOL     OW 3200  11.348  13.895  13.820
  456SOL    HW1 3201  11.331  13.894  13.914
  456SOL    HW2 3202  11.319  13.809  13.789
  457SOL     OW 3203   1.115   4.185  14.703
  457SOL    HW1 3204   1.138   4.099  14.669
  457SOL    HW2 3205   1.055   4.167  14.775
  458SOL     OW 3206  10.605  12.699   8.535
  458SOL    HW1 3207  10.598  12.621   8.480
  458SOL    HW2 3208  10.518  12.740   8.529
  459SOL     OW 3209   7.224  13.672  12.992
  459SOL    HW1 3210   7.137  13.678  12.954
  459SOL    HW2 3211   7.276  13.626  12.926
  460SOL     OW 3212   7.994  10.945   8.019
  460SOL    HW1 3213   7.947  10.879   8.071
  460SOL    HW2 3214   7.948  11.027   8.037
  461SOL     OW 3215  10.760   6.501   7.072
  461SOL    HW1 3216  10.714   6.418   7.086
  461SOL    HW2 3217  10.751   6.549   7.154
  462SOL     OW 3218  10.873   2.545  10.849
  462SOL    HW1 3219  10.919   2.463  10.865
  462SOL    HW2 3220  10.902   2.603  10.919
  463SOL     OW 3221  14.286  13.827   0.798
  463SOL    HW1 3222  14.273  13.814   0.891
  463SOL    HW2 3223  14.199  13.817   0.759
  464SOL     OW 3224   1.997  14.179   8.550
  464SOL    HW1 3225   1.989  14.171   8.645
  464SOL    HW2 3226   1.966  14.268   8.531
  465SOL     OW 3227   7.982   5.748   6.270
  465SOL    HW1 3228   7.909   5.764   6.329
  465SOL    HW2 3229   8.002   5.833   6.232
  466SOL     OW 3230   7.563  12.799   5.937
  466SOL    HW1 3231   7.633  12.862   5.919
  466SOL    HW2 3232   7.572  12.780   6.031
  467SOL     OW 3233  12.977   8.343  12.276
  467SOL    HW1 3234  12.957   8.405  12.206
  467SOL    HW2 3235  13.057   8.299  12.248
  468SOL     OW 3236  14.051   2.587   5.329
  468SOL    HW1 3237  14.114   2.617   5.394
  468SOL    HW2 3238  13.988   2.659   5.321
  469SOL     OW 3239   2.136  10.389  13.532
  469SOL    HW1 3240   2.151  10.433  13.616
  469SOL    HW2 3241   2.220  10.397  13.486
  470SOL     OW 3242   6.978   0.054  12.538
  470SOL    HW1 3243   7.048  14.869  12.552
  470SOL    HW2 3244   6.906   0.024  12.595
  471SOL     OW 3245   8.486  13.802   5.283
  471SOL    HW1 3246   8.563  13.755   5.316
  471SOL    HW2 3247   8.426  13.803   5.358
  472SOL     OW 3248   1.899  11.964  11.361
  472SOL    HW1 3249   1.817  11.943  11.317
  472SOL    HW2 3250   1.910  11.894  11.425
  473SOL     OW 3251   6.909  12.726   4.323
  473SOL    HW1 3252   6.886  12.815   4.298
  473SOL    HW2 3253   7.000  12.716   4.295
  474SOL     OW 3254   1.011  11.509   6.398
  474SOL    HW1 3255   1.050  11.521   6.484
  474SOL    HW2 3256   0.917  11.517   6.413
  475SOL     OW 3257   4.487  12.965  12.174
  475SOL    HW1 3258   4.522  12.998  12.091
  475SOL    HW2 3259   4.496  12.870  12.167
  476SOL     OW 3260   7.377  12.048   3.877
  476SOL    HW1 3261   7.308  11.991   3.846
  476SOL    HW2 3262   7.353  12.068   3.968
  477SOL     OW 3263  13.180   9.026   9.526
  477SOL    HW1 3264  13.125   9.077   9.467
  477SOL    HW2 3265  13.211   8.952   9.472
  478SOL     OW 3266   0.903   6.989  10.205
  478SOL    HW1 3267   0.844   7.033  10.143
  478SOL    HW2 3268   0.872   6.898  10.207
  479SOL     OW 3269  12.659   9.353  10.149
  479SOL    HW1 3270  12.616   9.341  10.065
  479SOL    HW2 3271  12.726   9.285  10.152
  480SOL     OW 3272   3.449   4.550   7.624
  480SOL    HW1 3273   3.502   4.529   7.701
  480SOL    HW2 3274   3.508   4.603   7.569
  481SOL     OW 3275  11.849   6.538   6.624
  481SOL    HW1 3276  11.794   6.604   6.580
  481SOL    HW2 3277  11.813   6.532   6.712
  482SOL     OW 3278  12.798  12.341  12.407
  482SOL    HW1 3279  12.840  12.413  12.455
  482SOL    HW2 3280  12.817  12.263  12.460
  483SOL     OW 3281   6.217   4.487  10.550
  483SOL    HW1 3282   6.228   4.477  10.645
  483SOL    HW2 3283   6.238   4.579  10.532
  484SOL     OW 3284  10.883   1.627   5.851
  484SOL    HW1 3285  10.898   1.677   5.931
  484SOL    HW2 3286  10.788   1.619   5.845
  485SOL     OW 3287   2.374   1.445  12.183
  485SOL    HW1 3288   2.326   1.517  12.141
  485SOL    HW2 3289   2.421   1.403  12.111
  486SOL     OW 3290   9.595  13.699   0.007
  486SOL    HW1 3291   9.523  13.659  14.838
  486SOL    HW2 3292   9.603  13.787  14.848
  487SOL     OW 3293   0.994   9.412   1.474
  487SOL    HW1 3294   1.075   9.415   1.526
  487SOL    HW2 3295   0.944   9.488   1.503
  488SOL     OW 3296   2.015   2.385  10.807
  488SOL    HW1 3297   1.931   2.430  10.808
  488SOL    HW2 3298   2.061   2.421  10.731
  489SOL     OW 3299  10.929  10.063   2.892
  489SOL    HW1 3300  10.914  10.004   2.818
  489SOL    HW2 3301  10.892  10.017   2.968
  490SOL     OW 3302   7.048   1.684  13.761
  490SOL    HW1 3303   7.130   1.696  13.714
  490SOL    HW2 3304   6.986   1.742  13.717
  491SOL     OW 3305   0.515   3.044   4.089
  491SOL    HW1 3306   0.445   2.988   4.122
  491SOL    HW2 3307   0.584   3.037   4.155
  492SOL     OW 3308   4.804   4.827   3.000
  492SOL    HW1 3309   4.822   4.850   2.908
  492SOL    HW2 3310   4.875   4.768   3.024
  493SOL     OW 3311  13.516   4.758  11.706
  493SOL    HW1 3312  13.441   4.706  11.736
  493SOL    HW2 3313  13.583   4.692  11.684
  494SOL     OW 3314  12.556   1.656  12.626
  494SOL    HW1 3315  12.506   1.735  12.649
  494SOL    HW2 3316  12.623   1.688  12.565
  495SOL     OW 3317   3.198   2.784  13.967
  495SOL    HW1 3318   3.153   2.722  14.024
  495SOL    HW2 3319   3.257   2.731  13.914
  496SOL     OW 3320   5.312   7.017  11.532
  496SOL    HW1 3321   5.328   7.087  11.468
  496SOL    HW2 3322   5.308   7.063  11.616
  497SOL     OW 3323  13.767  13.422  13.855
  497SOL    HW1 3324  13.806  13.354  13.910
  497SOL    HW2 3325  13.775  13.387  13.766
  498SOL     OW 3326   1.555   8.546   2.424
  498SOL    HW1 3327   1.639   8.501   2.433
  498SOL    HW2 3328   1.515   8.540   2.510
  499SOL     OW 3329  12.425   2.160   7.754
  499SOL    HW1 3330  12.377   2.086   7.791
  499SOL    HW2 3331  12.397   2.164   7.663
  500SOL     OW 3332  11.938   4.687  13.004
  500SOL    HW1 3333  11.901   4.604  13.034
  500SOL    HW2 3334  11.986   4.665  12.924
  501SOL     OW 3335   1.876  12.666   5.172
  501SOL    HW1 3336   1.869  12.661   5.267
  501SOL    HW2 3337   1.819  12.739   5.147
  502SOL     OW 3338  10.752  12.498   4.642
  502SOL    HW1 3339  10.678  12.529   4.695
  502SOL    HW2 3340  10.723  12.511   4.552
  503SOL     OW 3341  11.065   1.109  11.099
  503SOL    HW1 3342  11.122   1.141  11.168
  503SOL    HW2 3343  11.059   1.015  11.113
  504SOL     OW 3344   9.048   3.797   8.347
  504SOL    HW1 3345   9.136   3.816   8.315
  504SOL    HW2 3346   9.058   3.718   8.400
  505SOL     OW 3347   4.996   1.495  14.715
  505SOL    HW1 3348   4.925   1.431  14.722
  505SOL    HW2 3349   5.064   1.450  14.664
  506SOL     OW 3350  13.838  10.959   5.371
  506SOL    HW1 3351  13.777  10.906   5.423
  506SOL    HW2 3352  13.924  10.937   5.408
  507SOL     OW 3353  10.541   1.000   5.551
  507SOL    HW1 3354  10.490   1.032   5.477
  507SOL    HW2 3355  10.533   0.904   5.547
  508SOL     OW 3356   6.170   8.602   1.932
  508SOL    HW1 3357   6.234   8.662   1.972
  508SOL    HW2 3358   6.212   8.572   1.851
  509SOL     OW 3359   0.063   2.377   7.849
  509SOL    HW1 3360   0.036   2.287   7.867
  509SOL    HW2 3361  14.859   2.426   7.848
  510SOL     OW 3362  11.260  14.020   4.505
  510SOL    HW1 3363  11.243  14.097   4.559
  510SOL    HW2 3364  11.355  14.018   4.495
  511SOL     OW 3365   8.027   2.765  11.664
  511SOL    HW1 3366   7.997   2.800  11.748
  511SOL    HW2 3367   8.033   2.841  11.606
  512SOL     OW 3368   9.175   6.812   1.362
  512SOL    HW1 3369   9.084   6.816   1.393
  512SOL    HW2 3370   9.220   6.757   1.426
  513SOL     OW 3371   2.993  14.126   0.719
  513SOL    HW1 3372   2.946  14.104   0.800
  513SOL    HW2 3373   3.082  14.092   0.733
  514SOL     OW 3374   3.579   7.423   1.885
  514SOL    HW1 3375   3.510   7.403   1.822
  514SOL    HW2 3376   3.639   7.479   1.837
  515SOL     OW 3377   4.052   1.665  13.153
  515SOL    HW1 3378   4.108   1.601  13.109
  515SOL    HW2 3379   4.042   1.631  13.242
  516SOL     OW 3380  12.120  13.975   5.470
  516SOL    HW1 3381  12.118  13.893   5.518
  516SOL    HW2 3382  12.090  13.952   5.382
  517SOL     OW 3383  13.531  12.293  11.218
  517SOL    HW1 3384  13.626  12.283  11.211
  517SOL    HW2 3385  13.508  12.355  11.149
  518SOL     OW 3386   8.317  11.704   0.719
  518SOL    HW1 3387   8.325  11.688   0.813
  518SOL    HW2 3388   8.390  11.762   0.699
  519SOL     OW 3389   4.243  11.677  14.178
  519SOL    HW1 3390   4.254  11.600  14.235
  519SOL    HW2 3391   4.225  11.749  14.239
  520SOL     OW 3392   3.466   5.958   3.545
  520SOL    HW1 3393   3.458   5.882   3.488
  520SOL    HW2 3394   3.502   6.027   3.489
  521SOL     OW 3395   9.662   6.934   7.158
  521SOL    HW1 3396   9.590   6.949   7.097
  521SOL    HW2 3397   9.731   6.993   7.128
  522SOL     OW 3398   2.745   2.852   7.710
  522SOL    HW1 3399   2.732   2.843   7.804
  522SOL    HW2 3400   2.670   2.807   7.670
  523SOL     OW 3401  11.688   7.814   7.320
  523SOL    HW1 3402  11.620   7.747   7.335
  523SOL    HW2 3403  11.639   7.893   7.299
  524SOL     OW 3404  12.923   3.751   8.545
  524SOL    HW1 3405  12.962   3.694   8.612
  524SOL    HW2 3406  12.910   3.695   8.469
  525SOL     OW 3407   7.240  11.895   6.897
  525SOL    HW1 3408   7.301  11.900   6.970
  525SOL    HW2 3409   7.295  11.888   6.820
  526SOL     OW 3410   8.035  12.849   1.907
  526SOL    HW1 3411   8.067  12.928   1.864
  526SOL    HW2 3412   8.110  12.790   1.906
  527SOL     OW 3413  10.571   4.901   6.529
  527SOL    HW1 3414  10.664   4.903   6.552
  527SOL    HW2 3415  10.569   4.856   6.444
  528SOL     OW 3416   6.120   7.873   8.968
  528SOL    HW1 3417   6.109   7.947   8.908
  528SOL    HW2 3418   6.129   7.797   8.910
  529SOL     OW 3419   6.144   3.472   6.365
  529SOL    HW1 3420   6.105   3.386   6.348
  529SOL    HW2 3421   6.237   3.460   6.349
  530SOL     OW 3422  12.734   1.482   7.129
  530SOL    HW1 3423  12.797   1.521   7.189
  530SOL    HW2 3424  12.717   1.550   7.065
  531SOL     OW 3425   2.701  10.530  12.495
  531SOL    HW1 3426   2.696  10.507  12.588
  531SOL    HW2 3427   2.700  10.626  12.495
  532SOL     OW 3428   3.491  10.720   3.935
  532SOL    HW1 3429   3.549  10.717   4.012
  532SOL    HW2 3430   3.544  10.762   3.867
  533SOL     OW 3431  10.660   3.638  12.520
  533SOL    HW1 3432  10.688   3.555  12.480
  533SOL    HW2 3433  10.581   3.662  12.472
  534SOL     OW 3434   6.690  11.012  14.700
  534SOL    HW1 3435   6.709  10.944  14.636
  534SOL    HW2 3436   6.594  11.012  14.708
  535SOL     OW 3437  11.508   8.666   2.857
  535SOL    HW1 3438  11.528   8.580   2.894
  535SOL    HW2 3439  11.525   8.656   2.763
  536SOL     OW 3440  11.745  10.134   2.211
  536SOL    HW1 3441  11.749  10.201   2.279
  536SOL    HW2 3442  11.831  10.091   2.215
  537SOL     OW 3443  11.808   8.193  11.946
  537SOL    HW1 3444  11.814   8.249  11.869
  537SOL    HW2 3445  11.744   8.237  12.002
  538SOL     OW 3446   8.920  11.388  14.512
  538SOL    HW1 3447   8.979  11.400  14.437
  538SOL    HW2 3448   8.920  11.293  14.527
  539SOL     OW 3449   6.634   2.855   8.695
  539SOL    HW1 3450   6.630   2.938   8.743
  539SOL    HW2 3451   6.722   2.853   8.657
  540SOL     OW 3452   2.950   9.524   1.820
  540SOL    HW1 3453   2.986   9.456   1.764
  540SOL    HW2 3454   2.855   9.511   1.815
  541SOL     OW 3455   4.664   1.889   6.690
  541SOL    HW1 3456   4.717   1.953   6.737
  541SOL    HW2 3457   4.575   1.924   6.693
  542SOL     OW 3458   0.474   4.146  14.201
  542SOL    HW1 3459   0.483   4.055  14.229
  542SOL    HW2 3460   0.384   4.169  14.225
  543SOL     OW 3461   2.299  13.741   2.093
  543SOL    HW1 3462   2.222  13.791   2.120
  543SOL    HW2 3463   2.267  13.651   2.083
  544SOL     OW 3464   6.108  12.285   8.533
  544SOL    HW1 3465   6.139  12.233   8.458
  544SOL    HW2 3466   6.187  12.316   8.576
  545SOL     OW 3467   1.829  11.170   8.492
  545SOL    HW1 3468   1.814  11.122   8.410
  545SOL    HW2 3469   1.750  11.155   8.543
  546SOL     OW 3470   3.346   2.797   4.791
  546SOL    HW1 3471   3.302   2.713   4.793
  546SOL    HW2 3472   3.381   2.808   4.880
  547SOL     OW 3473  10.651   3.434  12.910
  547SOL    HW1 3474  10.638   3.382  12.831
  547SOL    HW2 3475  10.681   3.519  12.878
  548SOL     OW 3476   3.738   3.859   9.682
  548SOL    HW1 3477   3.749   3.787   9.620
  548SOL    HW2 3478   3.727   3.815   9.767
  549SOL     OW 3479   6.699   3.682  14.623
  549SOL    HW1 3480   6.758   3.620  14.666
  549SOL    HW2 3481   6.694   3.652  14.532
  550SOL     OW 3482   5.586  14.515   3.782
  550SOL    HW1 3483   5.563  14.600   3.821
  550SOL    HW2 3484   5.543  14.451   3.838
  551SOL     OW 3485  13.918  12.943   6.264
  551SOL    HW1 3486  13.909  12.937   6.359
  551SOL    HW2 3487  13.963  13.026   6.248
  552SOL     OW 3488   3.438   8.609   5.575
  552SOL    HW1 3489   3.346   8.606   5.548
  552SOL    HW2 3490   3.478   8.535   5.530
  553SOL     OW 3491  12.604   8.173  10.739
  553SOL    HW1 3492  12.629   8.082  10.749
  553SOL    HW2 3493  12.678   8.222  10.775
  554SOL     OW 3494  10.452  14.303   4.291
  554SOL    HW1 3495  10.509  14.351   4.231
  554SOL    HW2 3496  10.372  14.355   4.295
  555SOL     OW 3497   2.540   9.164   3.855
  555SOL    HW1 3498   2.593   9.239   3.828
  555SOL    HW2 3499   2.601   9.107   3.902
  556SOL     OW 3500   4.729   9.543   0.410
  556SOL    HW1 3501   4.792   9.614   0.404
  556SOL    HW2 3502   4.656   9.579   0.460
  557SOL     OW 3503   4.515   0.288   6.546
  557SOL    HW1 3504   4.495   0.329   6.462
  557SOL    HW2 3505   4.598   0.328   6.573
  558SOL     OW 3506   5.307   2.795   4.564
  558SOL    HW1 3507   5.281   2.883   4.536
  558SOL    HW2 3508   5.265   2.784   4.650
  559SOL     OW 3509   8.492  13.724  12.623
  559SOL    HW1 3510   8.518  13.816  12.633
  559SOL    HW2 3511   8.510  13.685  12.708
  560SOL     OW 3512   1.371  10.511  13.132
  560SOL    HW1 3513   1.381  10.604  13.110
  560SOL    HW2 3514   1.450  10.490  13.182
  561SOL     OW 3515   0.673   0.407   7.128
  561SOL    HW1 3516   0.718   0.458   7.195
  561SOL    HW2 3517   0.692   0.454   7.046
  562SOL     OW 3518   0.803   8.849   6.280
  562SOL    HW1 3519   0.782   8.756   6.271
  562SOL    HW2 3520   0.854   8.855   6.361
  563SOL     OW 3521   9.522  12.153   5.212
  563SOL    HW1 3522   9.572  12.217   5.263
  563SOL    HW2 3523   9.437  12.148   5.256
  564SOL     OW 3524   1.341   0.591   2.771
  564SOL    HW1 3525   1.307   0.566   2.685
  564SOL    HW2 3526   1.389   0.672   2.756
  565SOL     OW 3527   0.642  12.002  10.832
  565SOL    HW1 3528   0.561  11.966  10.796
  565SOL    HW2 3529   0.676  12.060  10.763
  566SOL     OW 3530   7.470  13.907   8.478
  566SOL    HW1 3531   7.421  13.983   8.446
  566SOL    HW2 3532   7.560  13.939   8.489
  567SOL     OW 3533  10.054   3.710   0.556
  567SOL    HW1 3534  10.149   3.724   0.553
  567SOL    HW2 3535  10.030   3.735   0.646
  568SOL     OW 3536   0.456   7.401   5.791
  568SOL    HW1 3537   0.535   7.454   5.787
  568SOL    HW2 3538   0.482   7.315   5.761
  569SOL     OW 3539  11.978   4.654  11.937
  569SOL    HW1 3540  12.059   4.701  11.956
  569SOL    HW2 3541  11.911   4.702  11.985
  570SOL     OW 3542   5.664  13.269  11.209
  570SOL    HW1 3543   5.721  13.346  11.207
  570SOL    HW2 3544   5.725  13.195  11.207
  571SOL     OW 3545   4.760  13.175  14.604
  571SOL    HW1 3546   4.838  13.228  14.587
  571SOL    HW2 3547   4.792  13.085  14.608
  572SOL     OW 3548   5.873   3.667   0.391
  572SOL    HW1 3549   5.932   3.673   0.466
  572SOL    HW2 3550   5.818   3.591   0.409
  573SOL     OW 3551   3.525   7.793   9.775
  573SOL    HW1 3552   3.575   7.845   9.838
  573SOL    HW2 3553   3.563   7.706   9.781
  574SOL     OW 3554  10.390   9.795  10.301
  574SOL    HW1 3555  10.484   9.809  10.310
  574SOL    HW2 3556  10.351   9.879  10.323
  575SOL     OW 3557  11.441  12.421   3.722
  575SOL    HW1 3558  11.430  12.483   3.795
  575SOL    HW2 3559  11.535  12.404   3.718
  576SOL     OW 3560  13.105   1.269   1.632
  576SOL    HW1 3561  13.029   1.320   1.603
  576SOL    HW2 3562  13.107   1.193   1.573
  577SOL     OW 3563  10.643   9.160   9.902
  577SOL    HW1 3564  10.599   9.245   9.892
  577SOL    HW2 3565  10.633   9.117   9.817
  578SOL     OW 3566   8.218  12.127  14.149
  578SOL    HW1 3567   8.238  12.058  14.213
  578SOL    HW2 3568   8.127  12.151  14.167
  579SOL     OW 3569   0.333   3.278   1.301
  579SOL    HW1 3570   0.407   3.288   1.242
  579SOL    HW2 3571   0.321   3.183   1.310
  580SOL     OW 3572   9.761   8.853   9.042
  580SOL    HW1 3573   9.772   8.830   8.950
  580SOL    HW2 3574   9.708   8.783   9.079
  581SOL     OW 3575   1.762  13.952  10.974
  581SOL    HW1 3576   1.720  13.945  10.888
  581SOL    HW2 3577   1.828  13.883  10.975
  582SOL     OW 3578   0.382  12.942   5.185
  582SOL    HW1 3579   0.413  13.012   5.242
  582SOL    HW2 3580   0.288  12.957   5.177
  583SOL     OW 3581   8.482   4.852   2.155
  583SOL    HW1 3582   8.561   4.798   2.149
  583SOL    HW2 3583   8.411   4.795   2.125
  584SOL     OW 3584   2.227   5.561   7.649
  584SOL    HW1 3585   2.288   5.632   7.627
  584SOL    HW2 3586   2.185   5.590   7.730
  585SOL     OW 3587   1.835  14.848   8.083
  585SOL    HW1 3588   1.928  14.846   8.107
  585SOL    HW2 3589   1.823  14.769   8.029
  586SOL     OW 3590  10.876   2.442  11.443
  586SOL    HW1 3591  10.897   2.473  11.531
  586SOL    HW2 3592  10.957   2.456  11.393
  587SOL     OW 3593   0.647   1.380   6.846
  587SOL    HW1 3594   0.739   1.359   6.830
  587SOL    HW2 3595   0.637   1.369   6.941
  588SOL     OW 3596   7.177  13.343   5.780
  588SOL    HW1 3597   7.094  13.359   5.735
  588SOL    HW2 3598   7.212  13.264   5.738
  589SOL     OW 3599   7.077   0.862   8.897
  589SOL    HW1 3600   7.152   0.904   8.854
  589SOL    HW2 3601   7.038   0.932   8.950
  590SOL     OW 3602  10.398   4.787   0.566
  590SOL    HW1 3603  10.350   4.709   0.593
  590SOL    HW2 3604  10.381   4.795   0.472
  591SOL     OW 3605  11.801  12.103   2.630
  591SOL    HW1 3606  11.781  12.183   2.678
  591SOL    HW2 3607  11.885  12.120   2.588
  592SOL     OW 3608   0.162   4.761  12.654
  592SOL    HW1 3609   0.170   4.856  12.639
  592SOL    HW2 3610   0.138   4.725  12.568
  593SOL     OW 3611  11.792   9.875  14.218
  593SOL    HW1 3612  11.864   9.827  14.258
  593SOL    HW2 3613  11.713   9.828  14.246
  594SOL     OW 3614   3.451   1.348   9.784
  594SOL    HW1 3615   3.528   1.385   9.741
  594SOL    HW2 3616   3.432   1.268   9.735
  595SOL     OW 3617  13.720  13.020   7.160
  595SOL    HW1 3618  13.660  12.947   7.168
  595SOL    HW2 3619  13.799  12.982   7.121
  596SOL     OW 3620   3.945   7.380   6.469
  596SOL    HW1 3621   3.866   7.340   6.434
  596SOL    HW2 3622   3.914   7.437   6.540
  597SOL     OW 3623   9.429   4.236  10.147
  597SOL    HW1 3624   9.372   4.163  10.124
  597SOL    HW2 3625   9.446   4.281  10.064
  598SOL     OW 3626  12.038   1.771   2.883
  598SOL    HW1 3627  12.071   1.683   2.902
  598SOL    HW2 3628  12.103   1.809   2.824
  599SOL     OW 3629   7.192   4.441  13.259
  599SOL    HW1 3630   7.124   4.396  13.208
  599SOL    HW2 3631   7.167   4.533  13.255
  600SOL     OW 3632  10.535   2.877   4.697
  600SOL    HW1 3633  10.541   2.781   4.696
  600SOL    HW2 3634  10.609   2.905   4.751
  601SOL     OW 3635  11.152  14.036  12.948
  601SOL    HW1 3636  11.203  14.107  12.987
  601SOL    HW2 3637  11.215  13.990  12.892
  602SOL     OW 3638  10.653   9.455   1.320
  602SOL    HW1 3639  10.630   9.480   1.231
  602SOL    HW2 3640  10.590   9.502   1.375
  603SOL     OW 3641   3.704  13.585   7.201
  603SOL    HW1 3642   3.774  13.649   7.201
  603SOL    HW2 3643   3.663  13.593   7.115
  604SOL     OW 3644  12.897  10.420   7.323
  604SOL    HW1 3645  12.978  10.469   7.311
  604SOL    HW2 3646  12.840  10.480   7.372
  605SOL     OW 3647   1.300  14.320  14.290
  605SOL    HW1 3648   1.223  14.267  14.271
  605SOL    HW2 3649   1.271  14.410  14.278
  606SOL     OW 3650  10.324  12.022   0.220
  606SOL    HW1 3651  10.385  11.949   0.222
  606SOL    HW2 3652  10.238  11.982   0.235
  607SOL     OW 3653  10.232   4.223  13.564
  607SOL    HW1 3654  10.152   4.272  13.544
  607SOL    HW2 3655  10.302   4.275  13.523
  608SOL     OW 3656  13.879  14.105   0.714
  608SOL    HW1 3657  13.938  14.169   0.755
  608SOL    HW2 3658  13.794  14.149   0.711
  609SOL     OW 3659   4.352   0.442  10.215
  609SOL    HW1 3660   4.419   0.407  10.156
  609SOL    HW2 3661   4.343   0.533  10.189
  610SOL     OW 3662  12.099  13.009   7.715
  610SOL    HW1 3663  12.070  12.934   7.766
  610SOL    HW2 3664  12.090  12.981   7.624
  611SOL     OW 3665   5.730   1.952   8.231
  611SOL    HW1 3666   5.711   2.029   8.177
  611SOL    HW2 3667   5.772   1.890   8.171
  612SOL     OW 3668   0.451   8.113  11.186
  612SOL    HW1 3669   0.486   8.034  11.227
  612SOL    HW2 3670   0.512   8.182  11.212
  613SOL     OW 3671   6.546  12.413   4.798
  613SOL    HW1 3672   6.602  12.489   4.779
  613SOL    HW2 3673   6.481  12.447   4.859
  614SOL     OW 3674   9.004  12.633   1.138
  614SOL    HW1 3675   9.050  12.668   1.214
  614SOL    HW2 3676   8.925  12.593   1.174
  615SOL     OW 3677  13.949   6.182  13.579
  615SOL    HW1 3678  13.899   6.132  13.644
  615SOL    HW2 3679  13.952   6.271  13.614
  616SOL     OW 3680   6.896   5.615   7.299
  616SOL    HW1 3681   6.969   5.580   7.248
  616SOL    HW2 3682   6.876   5.546   7.363
  617SOL     OW 3683   9.240   1.630  11.177
  617SOL    HW1 3684   9.151   1.665  11.169
  617SOL    HW2 3685   9.279   1.681  11.248
  618SOL     OW 3686  12.968  13.703   5.811
  618SOL    HW1 3687  12.898  13.737   5.754
  618SOL    HW2 3688  13.025  13.779   5.825
  619SOL     OW 3689  12.630   3.335   7.748
  619SOL    HW1 3690  12.703   3.275   7.730
  619SOL    HW2 3691  12.560   3.278   7.780
  620SOL     OW 3692   8.511  10.326   3.338
  620SOL    HW1 3693   8.507  10.415   3.302
  620SOL    HW2 3694   8.458  10.330   3.418
  621SOL     OW 3695  11.794   1.124   2.053
  621SOL    HW1 3696  11.800   1.126   1.957
  621SOL    HW2 3697  11.779   1.215   2.079
  622SOL     OW 3698  11.908   4.441   1.434
  622SOL    HW1 3699  11.903   4.516   1.493
  622SOL    HW2 3700  11.883   4.476   1.349
  623SOL     OW 3701  13.091  12.651  10.653
  623SOL    HW1 3702  13.015  12.649  10.712
  623SOL    HW2 3703  13.075  12.580  10.591
  624SOL     OW 3704  13.947   4.939  11.485
  624SOL    HW1 3705  13.878   4.919  11.549
  624SOL    HW2 3706  13.921   4.891  11.406
  625SOL     OW 3707   9.598   3.669  14.329
  625SOL    HW1 3708   9.663   3.633  14.390
  625SOL    HW2 3709   9.639   3.660  14.243
  626SOL     OW 3710  13.850   4.714   5.561
  626SOL    HW1 3711  13.785   4.739   5.494
  626SOL    HW2 3712  13.814   4.748   5.643
  627SOL     OW 3713   8.271  11.578   0.461
  627SOL    HW1 3714   8.280  11.606   0.552
  627SOL    HW2 3715   8.331  11.634   0.413
  628SOL     OW 3716   1.714   6.858  13.344
  628SOL    HW1 3717   1.689   6.863  13.437
  628SOL    HW2 3718   1.633   6.874  13.297
  629SOL     OW 3719   6.939  13.081   5.006
  629SOL    HW1 3720   6.892  13.025   5.068
  629SOL    HW2 3721   7.031  13.073   5.032
  630SOL     OW 3722   8.216  11.542   3.222
  630SOL    HW1 3723   8.216  11.530   3.127
  630SOL    HW2 3724   8.201  11.454   3.257
  631SOL     OW 3725   2.815  12.909   7.774
  631SOL    HW1 3726   2.829  12.852   7.699
  631SOL    HW2 3727   2.823  12.998   7.739
  632SOL     OW 3728   5.285  12.003  11.061
  632SOL    HW1 3729   5.343  11.974  10.991
  632SOL    HW2 3730   5.334  12.071  11.107
  633SOL     OW 3731   1.583  14.512   1.432
  633SOL    HW1 3732   1.664  14.500   1.481
  633SOL    HW2 3733   1.599  14.588   1.376
  634SOL     OW 3734   1.551   3.086   1.708
  634SOL    HW1 3735   1.465   3.045   1.695
  634SOL    HW2 3736   1.605   3.053   1.636
  635SOL     OW 3737  13.703   1.745   3.122
  635SOL    HW1 3738  13.652   1.715   3.197
  635SOL    HW2 3739  13.793   1.749   3.153
  636SOL     OW 3740   6.353  11.362   5.895
  636SOL    HW1 3741   6.310  11.327   5.816
  636SOL    HW2 3742   6.346  11.457   5.886
  637SOL     OW 3743  11.940   6.033  10.412
  637SOL    HW1 3744  11.993   6.000  10.485
  637SOL    HW2 3745  11.849   6.019  10.441
  638SOL     OW 3746  13.953   3.181   1.464
  638SOL    HW1 3747  13.976   3.192   1.556
  638SOL    HW2 3748  13.979   3.092   1.443
  639SOL     OW 3749   3.403   1.870   5.623
  639SOL    HW1 3750   3.388   1.862   5.717
  639SOL    HW2 3751   3.406   1.964   5.607
  640SOL     OW 3752   8.207   5.120   0.491
  640SOL    HW1 3753   8.195   5.098   0.399
  640SOL    HW2 3754   8.296   5.093   0.512
  641SOL     OW 3755   7.486   3.817   3.070
  641SOL    HW1 3756   7.575   3.850   3.088
  641SOL    HW2 3757   7.456   3.782   3.153
  642SOL     OW 3758   9.174  11.386  11.008
  642SOL    HW1 3759   9.110  11.435  11.059
  642SOL    HW2 3760   9.123  11.322  10.959
  643SOL     OW 3761   8.414   6.496   1.860
  643SOL    HW1 3762   8.339   6.556   1.855
  643SOL    HW2 3763   8.396   6.442   1.937
  644SOL     OW 3764  10.094  10.840   4.623
  644SOL    HW1 3765  10.099  10.862   4.530
  644SOL    HW2 3766  10.002  10.817   4.637
  645SOL     OW 3767   5.380  11.377   9.480
  645SOL    HW1 3768   5.440  11.304   9.494
  645SOL    HW2 3769   5.338  11.357   9.396
  646SOL     OW 3770   1.241   5.371   7.461
  646SOL    HW1 3771   1.251   5.436   7.392
  646SOL    HW2 3772   1.178   5.308   7.426
  647SOL     OW 3773   4.107   9.782   3.127
  647SOL    HW1 3774   4.118   9.688   3.110
  647SOL    HW2 3775   4.021   9.803   3.091
  648SOL     OW 3776   9.750   7.308   4.954
  648SOL    HW1 3777   9.685   7.368   4.991
  648SOL    HW2 3778   9.763   7.242   5.022
  649SOL     OW 3779  13.265  11.402   5.866
  649SOL    HW1 3780  13.337  11.346   5.895
  649SOL    HW2 3781  13.275  11.482   5.917
  650SOL     OW 3782   0.366   2.551   6.016
  650SOL    HW1 3783   0.377   2.600   5.935
  650SOL    HW2 3784   0.284   2.503   6.004
  651SOL     OW 3785  12.642  13.390   4.750
  651SOL    HW1 3786  12.557  13.400   4.791
  651SOL    HW2 3787  12.644  13.457   4.681
  652SOL     OW 3788  14.712   4.546   8.416
  652SOL    HW1 3789  14.718   4.604   8.492
  652SOL    HW2 3790  14.618   4.536   8.401
  653SOL     OW 3791   2.940   2.667   9.628
  653SOL    HW1 3792   2.885   2.670   9.705
  653SOL    HW2 3793   2.987   2.584   9.635
  654SOL     OW 3794   3.534   9.580  10.483
  654SOL    HW1 3795   3.628   9.565  10.488
  654SOL    HW2 3796   3.511   9.617  10.569
  655SOL     OW 3797   9.914   2.964   0.851
  655SOL    HW1 3798   9.882   2.963   0.760
  655SOL    HW2 3799   9.951   2.877   0.864
  656SOL     OW 3800  11.351   2.272   5.108
  656SOL    HW1 3801  11.256   2.259   5.107
  656SOL    HW2 3802  11.375   2.285   5.017
  657SOL     OW 3803  12.514   0.065   9.925
  657SOL    HW1 3804  12.569   0.123   9.872
  657SOL    HW2 3805  12.542  14.856   9.902
  658SOL     OW 3806   6.547   7.800  14.165
  658SOL    HW1 3807   6.626   7.847  14.194
  658SOL    HW2 3808   6.476   7.862  14.179
  659SOL     OW 3809   4.124  10.721   2.852
  659SOL    HW1 3810   4.185  10.693   2.783
  659SOL    HW2 3811   4.154  10.675   2.931
  660SOL     OW 3812   1.236  12.216   6.528
  660SOL    HW1 3813   1.309  12.174   6.575
  660SOL    HW2 3814   1.165  12.152   6.532
  661SOL     OW 3815   4.588   3.726   6.789
  661SOL    HW1 3816   4.515   3.709   6.729
  661SOL    HW2 3817   4.642   3.791   6.744
  662SOL     OW 3818   2.187  12.279   9.972
  662SOL    HW1 3819   2.274  12.255   9.941
  662SOL    HW2 3820   2.179  12.372   9.948
  663SOL     OW 3821   4.613   8.685   9.190
  663SOL    HW1 3822   4.569   8.601   9.178
  663SOL    HW2 3823   4.696   8.675   9.143
  664SOL     OW 3824   7.417  14.244  12.540
  664SOL    HW1 3825   7.489  14.220  12.482
  664SOL    HW2 3826   7.404  14.166  12.595
  665SOL     OW 3827  10.597   7.405   6.685
  665SOL    HW1 3828  10.621   7.313   6.694
  665SOL    HW2 3829  10.611   7.425   6.593
  666SOL     OW 3830   3.295   2.486   3.069
  666SOL    HW1 3831   3.241   2.551   3.114
  666SOL    HW2 3832   3.384   2.520   3.075
  667SOL     OW 3833   4.574   8.563  13.766
  667SOL    HW1 3834   4.487   8.565  13.805
  667SOL    HW2 3835   4.559   8.531  13.676
  668SOL     OW 3836  11.289   8.473  11.741
  668SOL    HW1 3837  11.238   8.466  11.661
  668SOL    HW2 3838  11.225   8.458  11.811
  669SOL     OW 3839   3.823   2.390   5.077
  669SOL    HW1 3840   3.885   2.442   5.128
  669SOL    HW2 3841   3.866   2.305   5.068
  670SOL     OW 3842   2.521  14.498  14.785
  670SOL    HW1 3843   2.571  14.422  14.757
  670SOL    HW2 3844   2.568  14.573  14.747
  671SOL     OW 3845  14.875   4.126   0.840
  671SOL    HW1 3846  14.821   4.083   0.906
  671SOL    HW2 3847  14.823   4.121   0.760
  672SOL     OW 3848   7.790   4.233   8.266
  672SOL    HW1 3849   7.874   4.187   8.265
  672SOL    HW2 3850   7.740   4.190   8.336
  673SOL     OW 3851   7.151  14.393  12.404
  673SOL    HW1 3852   7.182  14.479  12.375
  673SOL    HW2 3853   7.207  14.330  12.358
  674SOL     OW 3854   2.627   3.789   2.650
  674SOL    HW1 3855   2.569   3.776   2.575
  674SOL    HW2 3856   2.704   3.734   2.631
  675SOL     OW 3857   8.932   5.315  13.362
  675SOL    HW1 3858   9.006   5.363  13.324
  675SOL    HW2 3859   8.876   5.295  13.287
  676SOL     OW 3860   3.805   5.638   3.781
  676SOL    HW1 3861   3.839   5.561   3.826
  676SOL    HW2 3862   3.820   5.710   3.842
  677SOL     OW 3863   5.276  12.643   8.744
  677SOL    HW1 3864   5.208  12.594   8.789
  677SOL    HW2 3865   5.345  12.579   8.728
  678SOL     OW 3866   8.096   0.845   6.736
  678SOL    HW1 3867   8.033   0.887   6.677
  678SOL    HW2 3868   8.071   0.753   6.736
  679SOL     OW 3869   2.542  13.896  14.470
  679SOL    HW1 3870   2.630  13.881  14.437
  679SOL    HW2 3871   2.547  13.875  14.563
  680SOL     OW 3872  12.137   4.284   7.566
  680SOL    HW1 3873  12.092   4.339   7.630
  680SOL    HW2 3874  12.215   4.252   7.611
  681SOL     OW 3875   1.192   9.717   2.658
  681SOL    HW1 3876   1.098   9.723   2.675
  681SOL    HW2 3877   1.210   9.789   2.597
  682SOL     OW 3878   9.370  14.502   7.573
  682SOL    HW1 3879   9.443  14.463   7.524
  682SOL    HW2 3880   9.403  14.587   7.601
  683SOL     OW 3881   3.474  12.071   1.125
  683SOL    HW1 3882   3.383  12.044   1.141
  683SOL    HW2 3883   3.527  12.013   1.179
  684SOL     OW 3884  13.289   4.714   3.908
  684SOL    HW1 3885  13.296   4.779   3.838
  684SOL    HW2 3886  13.311   4.631   3.866
  685SOL     OW 3887   2.605   4.857   2.722
  685SOL    HW1 3888   2.518   4.849   2.682
  685SOL    HW2 3889   2.623   4.769   2.756
  686SOL     OW 3890   5.196   7.592  10.731
  686SOL    HW1 3891   5.289   7.570  10.717
  686SOL    HW2 3892   5.160   7.604  10.644
  687SOL     OW 3893   1.296   8.328   0.338
  687SOL    HW1 3894   1.319   8.409   0.292
  687SOL    HW2 3895   1.375   8.306   0.388
  688SOL     OW 3896   4.842   6.879  12.250
  688SOL    HW1 3897   4.798   6.794  12.244
  688SOL    HW2 3898   4.860   6.903  12.159
  689SOL     OW 3899   9.098   7.084   1.753
  689SOL    HW1 3900   9.191   7.103   1.758
  689SOL    HW2 3901   9.092   6.989   1.756
  690SOL     OW 3902   9.536  10.644   9.351
  690SOL    HW1 3903   9.545  10.552   9.375
  690SOL    HW2 3904   9.534  10.691   9.435
  691SOL     OW 3905  13.398   5.152  10.323
  691SOL    HW1 3906  13.463   5.171  10.391
  691SOL    HW2 3907  13.319   5.197  10.353
  692SOL     OW 3908  14.258   7.916  10.651
  692SOL    HW1 3909  14.274   7.971  10.727
  692SOL    HW2 3910  14.328   7.939  10.590
  693SOL     OW 3911   7.105   9.331   5.025
  693SOL    HW1 3912   7.174   9.341   4.959
  693SOL    HW2 3913   7.097   9.237   5.037
  694SOL     OW 3914   8.652  13.185   6.754
  694SOL    HW1 3915   8.668  13.266   6.801
  694SOL    HW2 3916   8.559  13.189   6.730
  695SOL     OW 3917  13.208   5.956   5.057
  695SOL    HW1 3918  13.274   5.978   5.123
  695SOL    HW2 3919  13.125   5.954   5.106
  696SOL     OW 3920   7.677  10.724  13.092
  696SOL    HW1 3921   7.745  10.665  13.124
  696SOL    HW2 3922   7.596  10.691  13.132
  697SOL     OW 3923  10.635  12.286   3.954
  697SOL    HW1 3924  10.597  12.364   3.995
  697SOL    HW2 3925  10.570  12.217   3.968
  698SOL     OW 3926   1.580   7.277   3.986
  698SOL    HW1 3927   1.485   7.265   3.996
  698SOL    HW2 3928   1.617   7.249   4.070
  699SOL     OW 3929   2.273   2.576   0.744
  699SOL    HW1 3930   2.349   2.521   0.722
  699SOL    HW2 3931   2.238   2.539   0.824
  700SOL     OW 3932   6.705  13.319   5.191
  700SOL    HW1 3933   6.791  13.348   5.161
  700SOL    HW2 3934   6.718  13.298   5.283
  701SOL     OW 3935   7.799   4.444   9.798
  701SOL    HW1 3936   7.887   4.407   9.790
  701SOL    HW2 3937   7.793   4.506   9.724
  702SOL     OW 3938   0.866  13.692   5.810
  702SOL    HW1 3939   0.939  13.729   5.858
  702SOL    HW2 3940   0.808  13.656   5.877
  703SOL     OW 3941   6.939   2.503   0.109
  703SOL    HW1 3942   6.910   2.453   0.185
  703SOL    HW2 3943   6.887   2.469   0.036
  704SOL     OW 3944   8.339   9.127   0.565
  704SOL    HW1 3945   8.300   9.040   0.571
  704SOL    HW2 3946   8.282   9.183   0.618
  705SOL     OW 3947   0.212   1.804   7.692
  705SOL    HW1 3948   0.204   1.864   7.766
  705SOL    HW2 3949   0.265   1.732   7.726
  706SOL     OW 3950  14.822   0.225  12.885
  706SOL    HW1 3951  14.736   0.261  12.865
  706SOL    HW2 3952  14.816   0.199  12.977
  707SOL     OW 3953   0.097   2.443  11.758
  707SOL    HW1 3954   0.168   2.476  11.702
  707SOL    HW2 3955   0.136   2.370  11.806
  708SOL     OW 3956  12.169   5.227  13.734
  708SOL    HW1 3957  12.107   5.226  13.807
  708SOL    HW2 3958  12.182   5.320  13.715
  709SOL     OW 3959   7.843  13.589   1.949
  709SOL    HW1 3960   7.935  13.606   1.929
  709SOL    HW2 3961   7.817  13.659   2.009
  710SOL     OW 3962   8.057   8.379  11.613
  710SOL    HW1 3963   8.102   8.462  11.624
  710SOL    HW2 3964   7.996   8.395  11.541
  711SOL     OW 3965  11.964  12.581   8.806
  711SOL    HW1 3966  11.942  12.492   8.833
  711SOL    HW2 3967  12.002  12.621   8.884
  712SOL     OW 3968   0.106   6.788  11.716
  712SOL    HW1 3969   0.163   6.837  11.774
  712SOL    HW2 3970   0.158   6.775  11.637
  713SOL     OW 3971   2.341  11.548   3.349
  713SOL    HW1 3972   2.306  11.482   3.409
  713SOL    HW2 3973   2.428  11.515   3.327
  714SOL     OW 3974   5.385  13.815   4.128
  714SOL    HW1 3975   5.423  13.727   4.132
  714SOL    HW2 3976   5.448  13.867   4.079
  715SOL     OW 3977   2.907   0.875   4.720
  715SOL    HW1 3978   2.972   0.807   4.710
  715SOL    HW2 3979   2.910   0.898   4.813
  716SOL     OW 3980  12.603   0.452   8.917
  716SOL    HW1 3981  12.679   0.465   8.860
  716SOL    HW2 3982  12.607   0.359   8.940
  717SOL     OW 3983  14.229   1.967  13.554
  717SOL    HW1 3984  14.317   1.929  13.562
  717SOL    HW2 3985  14.245   2.061  13.543
  718SOL     OW 3986   8.073   6.548  14.531
  718SOL    HW1 3987   8.044   6.467  14.573
  718SOL    HW2 3988   8.137   6.520  14.466
  719SOL     OW 3989   3.708  14.359  14.637
  719SOL    HW1 3990   3.795  14.400  14.635
  719SOL    HW2 3991   3.711  14.294  14.566
  720SOL     OW 3992  12.817  13.745   4.829
  720SOL    HW1 3993  12.845  13.836   4.833
  720SOL    HW2 3994  12.851  13.713   4.745
  721SOL     OW 3995   8.030  13.723   0.967
  721SOL    HW1 3996   8.121  13.743   0.990
  721SOL    HW2 3997   7.987  13.709   1.051
  722SOL     OW 3998  10.831  10.762   0.066
  722SOL    HW1 3999  10.747  10.721   0.045
  722SOL    HW2 4000  10.891  10.690   0.083
  723SOL     OW 4001  13.087  13.914   4.231
  723SOL    HW1 4002  13.102  13.993   4.282
  723SOL    HW2 4003  13.016  13.937   4.171
  724SOL     OW 4004   5.672  10.226   9.280
  724SOL    HW1 4005   5.606  10.160   9.262
  724SOL    HW2 4006   5.624  10.309   9.282
  725SOL     OW 4007   9.700   7.446  14.604
  725SOL    HW1 4008   9.649   7.496  14.540
  725SOL    HW2 4009   9.737   7.513  14.661
  726SOL     OW 4010   8.191   5.119  12.181
  726SOL    HW1 4011   8.117   5.177  12.166
  726SOL    HW2 4012   8.232   5.110  12.095
  727SOL     OW 4013  13.252  11.452  12.970
  727SOL    HW1 4014  13.218  11.377  12.922
  727SOL    HW2 4015  13.182  11.476  13.030
  728SOL     OW 4016  10.660   6.206   4.437
  728SOL    HW1 4017  10.726   6.250   4.491
  728SOL    HW2 4018  10.585   6.266   4.437
  729SOL     OW 4019   7.151   4.736   5.789
  729SOL    HW1 4020   7.150   4.702   5.699
  729SOL    HW2 4021   7.238   4.715   5.822
  730SOL     OW 4022   6.476   8.417   5.044
  730SOL    HW1 4023   6.475   8.475   5.119
  730SOL    HW2 4024   6.454   8.330   5.079
  731SOL     OW 4025   8.016   2.513   0.799
  731SOL    HW1 4026   7.989   2.585   0.856
  731SOL    HW2 4027   8.029   2.439   0.858
  732SOL     OW 4028  14.591   5.040  12.112
  732SOL    HW1 4029  14.650   5.114  12.127
  732SOL    HW2 4030  14.616   5.006  12.026
  733SOL     OW 4031  14.320  11.250   7.438
  733SOL    HW1 4032  14.379  11.274   7.366
  733SOL    HW2 4033  14.326  11.155   7.444
  734SOL     OW 4034   9.848   0.469   0.731
  734SOL    HW1 4035   9.910   0.408   0.691
  734SOL    HW2 4036   9.765   0.422   0.732
  735SOL     OW 4037   8.997   8.424  14.448
  735SOL    HW1 4038   8.993   8.471  14.365
  735SOL    HW2 4039   8.924   8.460  14.499
  736SOL     OW 4040   7.953  11.388   3.740
  736SOL    HW1 4041   7.862  11.396   3.770
  736SOL    HW2 4042   7.954  11.309   3.686
  737SOL     OW 4043  12.382   1.673   3.693
  737SOL    HW1 4044  12.340   1.591   3.666
  737SOL    HW2 4045  12.426   1.704   3.614
  738SOL     OW 4046   9.644   6.840   7.405
  738SOL    HW1 4047   9.691   6.868   7.483
  738SOL    HW2 4048   9.679   6.895   7.335
  739SOL     OW 4049  14.134   1.598   2.955
  739SOL    HW1 4050  14.128   1.524   3.016
  739SOL    HW2 4051  14.175   1.560   2.877
  740SOL     OW 4052  11.702  10.108   3.649
  740SOL    HW1 4053  11.696  10.184   3.706
  740SOL    HW2 4054  11.618  10.063   3.658
  741SOL     OW 4055   1.554  10.556   5.085
  741SOL    HW1 4056   1.577  10.576   5.176
  741SOL    HW2 4057   1.463  10.584   5.077
  742SOL     OW 4058   2.915  11.593   1.911
  742SOL    HW1 4059   2.963  11.510   1.917
  742SOL    HW2 4060   2.952  11.636   1.834
  743SOL     OW 4061   4.913  11.802  14.148
  743SOL    HW1 4062   4.840  11.850  14.109
  743SOL    HW2 4063   4.942  11.858  14.220
  744SOL     OW 4064   7.288  10.595   1.695
  744SOL    HW1 4065   7.272  10.503   1.673
  744SOL    HW2 4066   7.384  10.602   1.698
  745SOL     OW 4067  10.295   3.524   2.800
  745SOL    HW1 4068  10.314   3.435   2.770
  745SOL    HW2 4069  10.378   3.556   2.837
  746SOL     OW 4070   1.865  14.528  10.252
  746SOL    HW1 4071   1.845  14.484  10.170
  746SOL    HW2 4072   1.797  14.499  10.312
  747SOL     OW 4073  10.663   7.639  14.124
  747SOL    HW1 4074  10.582   7.601  14.090
  747SOL    HW2 4075  10.727   7.569  14.116
  748SOL     OW 4076   3.510   6.613   0.399
  748SOL    HW1 4077   3.439   6.633   0.461
  748SOL    HW2 4078   3.469   6.621   0.313
  749SOL     OW 4079   8.476  13.114   8.023
  749SOL    HW1 4080   8.465  13.050   8.093
  749SOL    HW2 4081   8.557  13.161   8.044
  750SOL     OW 4082   5.952  10.206   2.159
  750SOL    HW1 4083   6.038  10.178   2.128
  750SOL    HW2 4084   5.892  10.137   2.128
  751SOL     OW 4085  12.629  11.222   5.347
  751SOL    HW1 4086  12.703  11.252   5.293
  751SOL    HW2 4087  12.634  11.127   5.343
  752SOL     OW 4088   7.544  14.041   6.755
  752SOL    HW1 4089   7.482  13.979   6.717
  752SOL    HW2 4090   7.518  14.125   6.719
  753SOL     OW 4091   2.561   8.344  13.520
  753SOL    HW1 4092   2.545   8.354  13.426
  753SOL    HW2 4093   2.654   8.321  13.526
  754SOL     OW 4094   9.445   1.059  14.255
  754SOL    HW1 4095   9.367   1.086  14.207
  754SOL    HW2 4096   9.518   1.073  14.194
  755SOL     OW 4097   7.167  11.344   5.971
  755SOL    HW1 4098   7.174  11.353   5.876
  755SOL    HW2 4099   7.228  11.274   5.993
  756SOL     OW 4100   5.607   8.396   7.830
  756SOL    HW1 4101   5.685   8.407   7.776
  756SOL    HW2 4102   5.542   8.454   7.791
  757SOL     OW 4103  11.843   8.340   9.230
  757SOL    HW1 4104  11.846   8.430   9.198
  757SOL    HW2 4105  11.767   8.337   9.287
  758SOL     OW 4106  14.719   4.797  12.435
  758SOL    HW1 4107  14.789   4.732  12.432
  758SOL    HW2 4108  14.677   4.784  12.520
  759SOL     OW 4109   4.348  12.389  11.298
  759SOL    HW1 4110   4.417  12.376  11.363
  759SOL    HW2 4111   4.376  12.338  11.222
  760SOL     OW 4112  12.239   4.805   3.644
  760SOL    HW1 4113  12.195   4.846   3.720
  760SOL    HW2 4114  12.268   4.879   3.591
  761SOL     OW 4115   8.345   0.897  10.042
  761SOL    HW1 4116   8.372   0.868   9.956
  761SOL    HW2 4117   8.249   0.901  10.037
  762SOL     OW 4118   4.404   2.073   3.156
  762SOL    HW1 4119   4.326   2.112   3.118
  762SOL    HW2 4120   4.471   2.141   3.148
  763SOL     OW 4121   2.013   4.446   8.008
  763SOL    HW1 4122   2.016   4.401   7.924
  763SOL    HW2 4123   2.102   4.479   8.021
  764SOL     OW 4124  14.546   4.858   0.542
  764SOL    HW1 4125  14.460   4.817   0.549
  764SOL    HW2 4126  14.605   4.787   0.515
  765SOL     OW 4127  10.889  13.200   2.065
  765SOL    HW1 4128  10.875  13.294   2.079
  765SOL    HW2 4129  10.802  13.161   2.079
  766SOL     OW 4130   1.026  12.351   0.670
  766SOL    HW1 4131   0.971  12.421   0.704
  766SOL    HW2 4132   1.115  12.378   0.690
  767SOL     OW 4133   9.120   9.427   3.874
  767SOL    HW1 4134   9.149   9.399   3.961
  767SOL    HW2 4135   9.165   9.369   3.813
  768SOL     OW 4136   1.875   3.962   4.768
  768SOL    HW1 4137   1.969   3.949   4.753
  768SOL    HW2 4138   1.871   4.013   4.849
  769SOL     OW 4139   1.605   2.388   1.997
  769SOL    HW1 4140   1.653   2.450   1.941
  769SOL    HW2 4141   1.516   2.424   2.001
  770SOL     OW 4142  10.391   3.777  13.092
  770SOL    HW1 4143  10.378   3.689  13.058
  770SOL    HW2 4144  10.472   3.807  13.051
  771SOL     OW 4145   9.400   5.613  12.259
  771SOL    HW1 4146   9.415   5.696  12.215
  771SOL    HW2 4147   9.348   5.635  12.336
  772SOL     OW 4148  13.943   3.206  12.579
  772SOL    HW1 4149  13.976   3.292  12.553
  772SOL    HW2 4150  14.020   3.158  12.607
  773SOL     OW 4151   7.253   7.837   0.158
  773SOL    HW1 4152   7.250   7.742   0.145
  773SOL    HW2 4153   7.234   7.849   0.251
  774SOL     OW 4154   8.445   1.657  12.231
  774SOL    HW1 4155   8.437   1.568  12.198
  774SOL    HW2 4156   8.355   1.686  12.247
  775SOL     OW 4157   1.997  11.854   0.710
  775SOL    HW1 4158   1.972  11.921   0.647
  775SOL    HW2 4159   2.079  11.818   0.675
  776SOL     OW 4160  12.400   0.184  13.779
  776SOL    HW1 4161  12.337   0.118  13.750
  776SOL    HW2 4162  12.476   0.172  13.722
  777SOL     OW 4163   8.499   0.483   8.766
  777SOL    HW1 4164   8.576   0.497   8.821
  777SOL    HW2 4165   8.438   0.435   8.821
  778SOL     OW 4166  13.992  11.873   2.552
  778SOL    HW1 4167  13.927  11.928   2.508
  778SOL    HW2 4168  14.076  11.907   2.521
  779SOL     OW 4169   5.128   5.049   1.918
  779SOL    HW1 4170   5.191   5.057   1.990
  779SOL    HW2 4171   5.162   4.978   1.864
  780SOL     OW 4172  13.561  12.237   1.174
  780SOL    HW1 4173  13.620  12.193   1.113
  780SOL    HW2 4174  13.563  12.182   1.253
  781SOL     OW 4175   8.635   8.722   8.017
  781SOL    HW1 4176   8.641   8.711   7.922
  781SOL    HW2 4177   8.541   8.721   8.035
  782SOL     OW 4178   5.908   9.068  13.016
  782SOL    HW1 4179   5.865   9.002  13.071
  782SOL    HW2 4180   5.856   9.070  12.936
  783SOL     OW 4181   2.473  13.618   2.379
  783SOL    HW1 4182   2.540  13.573   2.328
  783SOL    HW2 4183   2.522  13.682   2.431
  784SOL     OW 4184  11.454   2.689   7.107
  784SOL    HW1 4185  11.478   2.774   7.143
  784SOL    HW2 4186  11.457   2.630   7.182
  785SOL     OW 4187  12.661   8.318  13.323
  785SOL    HW1 4188  12.706   8.270  13.394
  785SOL    HW2 4189  12.636   8.401  13.363
  786SOL     OW 4190   7.263  11.928   8.425
  786SOL    HW1 4191   7.205  11.982   8.371
  786SOL    HW2 4192   7.349  11.968   8.416
  787SOL     OW 4193   4.033  12.661  13.630
  787SOL    HW1 4194   3.987  12.734  13.589
  787SOL    HW2 4195   4.100  12.636  13.567
  788SOL     OW 4196   4.349   0.533   0.353
  788SOL    HW1 4197   4.315   0.523   0.264
  788SOL    HW2 4198   4.399   0.614   0.350
  789SOL     OW 4199   4.920   8.650  14.508
  789SOL    HW1 4200   4.975   8.603  14.446
  789SOL    HW2 4201   4.895   8.730  14.461
  790SOL     OW 4202   3.371  12.817   8.473
  790SOL    HW1 4203   3.410  12.884   8.417
  790SOL    HW2 4204   3.446  12.775   8.516
  791SOL     OW 4205  10.989   2.773   8.407
  791SOL    HW1 4206  10.913   2.827   8.385
  791SOL    HW2 4207  11.035   2.763   8.325
  792SOL     OW 4208   1.706   3.459  12.484
  792SOL    HW1 4209   1.764   3.461  12.408
  792SOL    HW2 4210   1.759   3.494  12.556
  793SOL     OW 4211   1.933  10.137  14.804
  793SOL    HW1 4212   1.904  10.228  14.798
  793SOL    HW2 4213   1.899  10.095  14.725
  794SOL     OW 4214   7.012   8.386   6.335
  794SOL    HW1 4215   7.083   8.321   6.335
  794SOL    HW2 4216   6.949   8.352   6.271
  795SOL     OW 4217   6.648  13.709   6.467
  795SOL    HW1 4218   6.624  13.685   6.378
  795SOL    HW2 4219   6.612  13.640   6.522
  796SOL     OW 4220   7.170   1.476  13.583
  796SOL    HW1 4221   7.193   1.387  13.611
  796SOL    HW2 4222   7.244   1.530  13.610
  797SOL     OW 4223   6.998   0.051   1.761
  797SOL    HW1 4224   7.002  14.849   1.812
  797SOL    HW2 4225   7.039   0.117   1.817
  798SOL     OW 4226  14.510   7.471   3.476
  798SOL    HW1 4227  14.501   7.448   3.568
  798SOL    HW2 4228  14.542   7.392   3.434
  799SOL     OW 4229  12.975   9.763   1.337
  799SOL    HW1 4230  12.979   9.858   1.333
  799SOL    HW2 4231  12.986   9.742   1.429
  800SOL     OW 4232  14.461   9.279   0.849
  800SOL    HW1 4233  14.494   9.200   0.807
  800SOL    HW2 4234  14.424   9.331   0.778
  801SOL     OW 4235  10.679   1.793  14.475
  801SOL    HW1 4236  10.650   1.876  14.437
  801SOL    HW2 4237  10.670   1.805  14.570
  802SOL     OW 4238   3.157  13.554  12.157
  802SOL    HW1 4239   3.197  13.485  12.209
  802SOL    HW2 4240   3.074  13.516  12.126
  803SOL     OW 4241   4.973   9.431  10.950
  803SOL    HW1 4242   4.937   9.410  10.864
  803SOL    HW2 4243   5.007   9.348  10.983
  804SOL     OW 4244   3.654   0.733   1.072
  804SOL    HW1 4245   3.599   0.811   1.083
  804SOL    HW2 4246   3.710   0.754   0.998
  805SOL     OW 4247   3.719   2.467  11.650
  805SOL    HW1 4248   3.690   2.462  11.741
  805SOL    HW2 4249   3.712   2.378  11.616
  806SOL     OW 4250   7.222   6.210  13.728
  806SOL    HW1 4251   7.248   6.128  13.771
  806SOL    HW2 4252   7.304   6.256  13.713
  807SOL     OW 4253  11.975   8.377  14.115
  807SOL    HW1 4254  11.935   8.293  14.093
  807SOL    HW2 4255  12.045   8.355  14.177
  808SOL     OW 4256  11.370   2.034  10.785
  808SOL    HW1 4257  11.398   2.125  10.782
  808SOL    HW2 4258  11.445   1.984  10.752
  809SOL     OW 4259   5.505   2.562   4.749
  809SOL    HW1 4260   5.484   2.655   4.763
  809SOL    HW2 4261   5.447   2.515   4.807
  810SOL     OW 4262   3.901  12.819  13.274
  810SOL    HW1 4263   3.996  12.816  13.290
  810SOL    HW2 4264   3.893  12.827  13.179
  811SOL     OW 4265   0.770  10.584   5.459
  811SOL    HW1 4266   0.758  10.595   5.553
  811SOL    HW2 4267   0.692  10.537   5.430
  812SOL     OW 4268   5.777   1.697   1.472
  812SOL    HW1 4269   5.741   1.784   1.489
  812SOL    HW2 4270   5.871   1.706   1.489
  813SOL     OW 4271   3.878  12.356  10.893
  813SOL    HW1 4272   3.862  12.437  10.941
  813SOL    HW2 4273   3.973  12.356  10.879
  814SOL     OW 4274   9.763   8.599   7.250
  814SOL    HW1 4275   9.677   8.569   7.277
  814SOL    HW2 4276   9.823   8.561   7.314
  815SOL     OW 4277  13.365  14.724   4.062
  815SOL    HW1 4278  13.311  14.646   4.070
  815SOL    HW2 4279  13.375  14.755   4.152
  816SOL     OW 4280  11.337   3.916   7.084
  816SOL    HW1 4281  11.251   3.875   7.085
  816SOL    HW2 4282  11.352   3.945   7.174
  817SOL     OW 4283   5.742   2.597   9.370
  817SOL    HW1 4284   5.821   2.629   9.327
  817SOL    HW2 4285   5.771   2.521   9.421
  818SOL     OW 4286   2.591   9.177   2.460
  818SOL    HW1 4287   2.681   9.208   2.475
  818SOL    HW2 4288   2.539   9.257   2.454
  819SOL     OW 4289   5.044   5.214   0.570
  819SOL    HW1 4290   4.971   5.272   0.549
  819SOL    HW2 4291   5.002   5.133   0.599
  820SOL     OW 4292  13.338  11.929   8.993
  820SOL    HW1 4293  13.352  11.868   8.920
  820SOL    HW2 4294  13.245  11.920   9.014
  821SOL     OW 4295   9.095  14.550   7.399
  821SOL    HW1 4296   9.001  14.560   7.418
  821SOL    HW2 4297   9.137  14.553   7.484
  822SOL     OW 4298   4.277  13.943   1.024
  822SOL    HW1 4299   4.220  13.867   1.012
  822SOL    HW2 4300   4.366  13.907   1.021
  823SOL     OW 4301  11.225   5.293  13.804
  823SOL    HW1 4302  11.199   5.223  13.864
  823SOL    HW2 4303  11.189   5.373  13.843
  824SOL     OW 4304   8.442  13.080  12.917
  824SOL    HW1 4305   8.532  13.057  12.940
  824SOL    HW2 4306   8.396  13.084  13.001
  825SOL     OW 4307  13.188  10.767  14.848
  825SOL    HW1 4308  13.119  10.833  14.837
  825SOL    HW2 4309  13.168  10.725   0.052
  826SOL     OW 4310   8.323   4.825  11.204
  826SOL    HW1 4311   8.402   4.877  11.214
  826SOL    HW2 4312   8.281   4.861  11.125
  827SOL     OW 4313   0.465   9.065   7.741
  827SOL    HW1 4314   0.388   9.054   7.685
  827SOL    HW2 4315   0.452   9.003   7.812
  828SOL     OW 4316   1.201   0.664  14.098
  828SOL    HW1 4317   1.294   0.644  14.081
  828SOL    HW2 4318   1.194   0.667  14.193
  829SOL     OW 4319  11.191   0.412  13.937
  829SOL    HW1 4320  11.256   0.360  13.890
  829SOL    HW2 4321  11.219   0.502  13.925
  830SOL     OW 4322   6.316   5.437   1.327
  830SOL    HW1 4323   6.229   5.425   1.290
  830SOL    HW2 4324   6.317   5.529   1.356
  831SOL     OW 4325  11.840  13.641   4.494
  831SOL    HW1 4326  11.907  13.614   4.431
  831SOL    HW2 4327  11.841  13.572   4.561
  832SOL     OW 4328  14.718  12.852   9.331
  832SOL    HW1 4329  14.722  12.881   9.240
  832SOL    HW2 4330  14.746  12.761   9.329
  833SOL     OW 4331   7.813   3.010   9.554
  833SOL    HW1 4332   7.766   3.037   9.476
  833SOL    HW2 4333   7.880   2.949   9.522
  834SOL     OW 4334   8.776  10.169   1.247
  834SOL    HW1 4335   8.688  10.188   1.279
  834SOL    HW2 4336   8.772  10.078   1.217
  835SOL     OW 4337  11.326   0.756   8.791
  835SOL    HW1 4338  11.329   0.796   8.704
  835SOL    HW2 4339  11.243   0.785   8.828
  836SOL     OW 4340   1.655   0.563  12.440
  836SOL    HW1 4341   1.598   0.487  12.431
  836SOL    HW2 4342   1.608   0.635  12.397
  837SOL     OW 4343   6.536   9.286   3.258
  837SOL    HW1 4344   6.560   9.275   3.166
  837SOL    HW2 4345   6.481   9.210   3.277
  838SOL     OW 4346  10.320   8.638  12.120
  838SOL    HW1 4347  10.397   8.682  12.085
  838SOL    HW2 4348  10.324   8.550  12.082
  839SOL     OW 4349   0.233  14.058   9.684
  839SOL    HW1 4350   0.304  14.120   9.667
  839SOL    HW2 4351   0.153  14.106   9.663
  840SOL     OW 4352  14.525   2.216   9.652
  840SOL    HW1 4353  14.482   2.243   9.734
  840SOL    HW2 4354  14.615   2.196   9.679
  841SOL     OW 4355  12.485   5.777  14.215
  841SOL    HW1 4356  12.525   5.812  14.134
  841SOL    HW2 4357  12.552   5.792  14.282
  842SOL     OW 4358   3.219   5.705   0.908
  842SOL    HW1 4359   3.284   5.775   0.921
  842SOL    HW2 4360   3.174   5.729   0.827
  843SOL     OW 4361  12.755   2.930   1.457
  843SOL    HW1 4362  12.703   2.930   1.537
  843SOL    HW2 4363  12.802   3.013   1.458
  844SOL     OW 4364   8.742   6.354   0.396
  844SOL    HW1 4365   8.659   6.322   0.432
  844SOL    HW2 4366   8.725   6.446   0.375
  845SOL     OW 4367   6.186   6.057  11.444
  845SOL    HW1 4368   6.091   6.061  11.448
  845SOL    HW2 4369   6.205   5.973  11.403
  846SOL     OW 4370  10.594  10.492   0.230
  846SOL    HW1 4371  10.563  10.479   0.320
  846SOL    HW2 4372  10.679  10.533   0.240
  847SOL     OW 4373   8.285   2.430  12.423
  847SOL    HW1 4374   8.253   2.399  12.338
  847SOL    HW2 4375   8.224   2.393  12.487
  848SOL     OW 4376  10.490   4.757   2.152
  848SOL    HW1 4377  10.406   4.710   2.150
  848SOL    HW2 4378  10.522   4.752   2.062
  849SOL     OW 4379   1.049   3.520  10.271
  849SOL    HW1 4380   0.963   3.498  10.235
  849SOL    HW2 4381   1.067   3.609  10.239
  850SOL     OW 4382   3.109  10.595   1.574
  850SOL    HW1 4383   3.070  10.662   1.630
  850SOL    HW2 4384   3.198  10.627   1.557
  851SOL     OW 4385   1.272   3.256   4.168
  851SOL    HW1 4386   1.206   3.320   4.196
  851SOL    HW2 4387   1.222   3.176   4.151
  852SOL     OW 4388   2.803  12.775  10.271
  852SOL    HW1 4389   2.838  12.693  10.307
  852SOL    HW2 4390   2.829  12.842  10.334
  853SOL     OW 4391  11.322   0.099   4.902
  853SOL    HW1 4392  11.379   0.137   4.969
  853SOL    HW2 4393  11.248   0.159   4.898
  854SOL     OW 4394   2.315   9.688   0.021
  854SOL    HW1 4395   2.296   9.675  14.807
  854SOL    HW2 4396   2.249   9.750   0.051
  855SOL     OW 4397  12.678  14.821   9.133
  855SOL    HW1 4398  12.745  14.795   9.196
  855SOL    HW2 4399  12.645  14.738   9.097
  856SOL     OW 4400   9.918   4.736   1.358
  856SOL    HW1 4401   9.908   4.688   1.277
  856SOL    HW2 4402   9.836   4.785   1.368
  857SOL     OW 4403  13.818  10.376  11.359
  857SOL    HW1 4404  13.741  10.351  11.309
  857SOL    HW2 4405  13.886  10.314  11.334
  858SOL     OW 4406  11.038   7.328   5.149
  858SOL    HW1 4407  11.103   7.372   5.092
  858SOL    HW2 4408  11.068   7.348   5.238
  859SOL     OW 4409   4.058   2.113   8.629
  859SOL    HW1 4410   4.032   2.172   8.559
  859SOL    HW2 4411   4.068   2.028   8.585
  860SOL     OW 4412   4.281   1.980  13.873
  860SOL    HW1 4413   4.188   1.979  13.895
  860SOL    HW2 4414   4.322   2.023  13.948
  861SOL     OW 4415   0.189   3.642  14.454
  861SOL    HW1 4416   0.198   3.735  14.432
  861SOL    HW2 4417   0.170   3.642  14.548
  862SOL     OW 4418   3.130   9.972   9.466
  862SOL    HW1 4419   3.143  10.060   9.502
  862SOL    HW2 4420   3.158   9.913   9.536
  863SOL     OW 4421   1.884  10.657   4.387
  863SOL    HW1 4422   1.815  10.592   4.398
  863SOL    HW2 4423   1.855  10.733   4.438
  864SOL     OW 4424   2.238  14.284   4.969
  864SOL    HW1 4425   2.303  14.267   5.037
  864SOL    HW2 4426   2.251  14.376   4.945
  865SOL     OW 4427  13.447   9.423   8.683
  865SOL    HW1 4428  13.360   9.462   8.684
  865SOL    HW2 4429  13.505   9.494   8.656
  866SOL     OW 4430  13.254   9.671   2.331
  866SOL    HW1 4431  13.250   9.596   2.271
  866SOL    HW2 4432  13.171   9.668   2.379
  867SOL     OW 4433   0.490   5.546   3.730
  867SOL    HW1 4434   0.444   5.506   3.804
  867SOL    HW2 4435   0.420   5.586   3.678
  868SOL     OW 4436   0.649  14.837   7.348
  868SOL    HW1 4437   0.725  14.788   7.315
  868SOL    HW2 4438   0.607  14.872   7.270
  869SOL     OW 4439   5.388   7.901  12.677
  869SOL    HW1 4440   5.403   7.905  12.772
  869SOL    HW2 4441   5.454   7.960  12.640
  870SOL     OW 4442   4.094  13.909  12.884
  870SOL    HW1 4443   4.063  13.982  12.831
  870SOL    HW2 4444   4.186  13.898  12.859
  871SOL     OW 4445   8.578  10.988   0.976
  871SOL    HW1 4446   8.612  11.076   0.991
  871SOL    HW2 4447   8.510  11.000   0.909
  872SOL     OW 4448  14.156  11.905   2.131
  872SOL    HW1 4449  14.075  11.937   2.092
  872SOL    HW2 4450  14.173  11.966   2.203
  873SOL     OW 4451  12.208   7.691   0.555
  873SOL    HW1 4452  12.255   7.658   0.479
  873SOL    HW2 4453  12.240   7.780   0.566
  874SOL     OW 4454   9.396   5.569  11.613
  874SOL    HW1 4455   9.491   5.577  11.618
  874SOL    HW2 4456   9.380   5.525  11.530
  875SOL     OW 4457  12.822   5.233   9.741
  875SOL    HW1 4458  12.871   5.156   9.770
  875SOL    HW2 4459  12.733   5.201   9.728
  876SOL     OW 4460   8.858  14.690  10.790
  876SOL    HW1 4461   8.885  14.766  10.843
  876SOL    HW2 4462   8.853  14.618  10.852
  877SOL     OW 4463   2.917  10.424   7.879
  877SOL    HW1 4464   2.916  10.332   7.856
  877SOL    HW2 4465   3.000  10.457   7.847
  878SOL     OW 4466   5.831   6.561  12.335
  878SOL    HW1 4467   5.883   6.531  12.260
  878SOL    HW2 4468   5.894   6.603  12.393
  879SOL     OW 4469   4.311   0.858   1.175
  879SOL    HW1 4470   4.276   0.786   1.122
  879SOL    HW2 4471   4.353   0.916   1.112
  880SOL     OW 4472   0.180   7.933   9.591
  880SOL    HW1 4473   0.221   7.913   9.506
  880SOL    HW2 4474   0.207   7.861   9.648
  881SOL     OW 4475  14.486   7.376   6.438
  881SOL    HW1 4476  14.557   7.375   6.503
  881SOL    HW2 4477  14.477   7.468   6.415
  882SOL     OW 4478   6.610   9.450   9.617
  882SOL    HW1 4479   6.548   9.510   9.658
  882SOL    HW2 4480   6.686   9.504   9.597
  883SOL     OW 4481   3.364   3.226   8.166
  883SOL    HW1 4482   3.311   3.169   8.222
  883SOL    HW2 4483   3.426   3.168   8.123
  884SOL     OW 4484   9.497  10.844   8.579
  884SOL    HW1 4485   9.421  10.791   8.605
  884SOL    HW2 4486   9.572  10.786   8.590
  885SOL     OW 4487   0.452  11.624  11.492
  885SOL    HW1 4488   0.393  11.561  11.450
  885SOL    HW2 4489   0.416  11.709  11.468
  886SOL     OW 4490  10.938  13.110  12.811
  886SOL    HW1 4491  10.948  13.156  12.728
  886SOL    HW2 4492  10.855  13.143  12.847
  887SOL     OW 4493  11.619   1.796   9.778
  887SOL    HW1 4494  11.572   1.768   9.857
  887SOL    HW2 4495  11.577   1.878   9.752
  888SOL     OW 4496  10.353   4.766  12.644
  888SOL    HW1 4497  10.310   4.773  12.559
  888SOL    HW2 4498  10.411   4.842  12.648
  889SOL     OW 4499  12.134  14.282   3.945
  889SOL    HW1 4500  12.177  14.215   3.998
  889SOL    HW2 4501  12.042  14.277   3.969
  890SOL     OW 4502  11.526   8.763   4.680
  890SOL    HW1 4503  11.443   8.763   4.728
  890SOL    HW2 4504  11.572   8.685   4.712
  891SOL     OW 4505   4.206   2.450   0.217
  891SOL    HW1 4506   4.172   2.539   0.221
  891SOL    HW2 4507   4.189   2.413   0.304
  892SOL     OW 4508   1.174   5.960   0.816
  892SOL    HW1 4509   1.251   5.906   0.832
  892SOL    HW2 4510   1.153   5.944   0.724
  893SOL     OW 4511   9.936   4.047  13.017
  893SOL    HW1 4512  10.019   4.075  13.055
  893SOL    HW2 4513   9.870   4.077  13.080
  894SOL     OW 4514   9.524  10.959   7.305
  894SOL    HW1 4515   9.448  11.016   7.314
  894SOL    HW2 4516   9.592  11.000   7.358
  895SOL     OW 4517   6.631  10.140   8.540
  895SOL    HW1 4518   6.723  10.115   8.529
  895SOL    HW2 4519   6.610  10.185   8.458
  896SOL     OW 4520  11.701  11.319  14.181
  896SOL    HW1 4521  11.769  11.310  14.247
  896SOL    HW2 4522  11.688  11.230  14.147
  897SOL     OW 4523   1.588  10.612  12.754
  897SOL    HW1 4524   1.666  10.638  12.705
  897SOL    HW2 4525   1.515  10.646  12.703
  898SOL     OW 4526   0.681   2.078  12.317
  898SOL    HW1 4527   0.598   2.037  12.342
  898SOL    HW2 4528   0.747   2.034  12.370
  899SOL     OW 4529  11.841   3.091   4.908
  899SOL    HW1 4530  11.936   3.088   4.914
  899SOL    HW2 4531  11.823   3.120   4.818
  900SOL     OW 4532   2.475   8.890  12.017
  900SOL    HW1 4533   2.444   8.829  11.951
  900SOL    HW2 4534   2.546   8.938  11.974
  901SOL     OW 4535  10.844   3.329   0.275
  901SOL    HW1 4536  10.849   3.339   0.370
  901SOL    HW2 4537  10.856   3.418   0.241
  902SOL     OW 4538  13.238   6.675   6.878
  902SOL    HW1 4539  13.253   6.757   6.923
  902SOL    HW2 4540  13.243   6.697   6.785
  903SOL     OW 4541   1.799   7.992   9.558
  903SOL    HW1 4542   1.709   7.983   9.527
  903SOL    HW2 4543   1.818   7.909   9.602
  904SOL     OW 4544   1.419   9.632   6.768
  904SOL    HW1 4545   1.399   9.558   6.711
  904SOL    HW2 4546   1.493   9.603   6.821
  905SOL     OW 4547   5.989   7.305   1.028
  905SOL    HW1 4548   6.066   7.283   0.975
  905SOL    HW2 4549   5.915   7.270   0.978
  906SOL     OW 4550   1.174   0.634   1.091
  906SOL    HW1 4551   1.141   0.579   1.162
  906SOL    HW2 4552   1.133   0.599   1.012
  907SOL     OW 4553  14.198  12.848  14.259
  907SOL    HW1 4554  14.269  12.862  14.197
  907SOL    HW2 4555  14.144  12.780  14.219
  908SOL     OW 4556   1.966   9.108   4.048
  908SOL    HW1 4557   1.989   9.065   3.965
  908SOL    HW2 4558   1.875   9.082   4.063
  909SOL     OW 4559   2.206   8.907   6.890
  909SOL    HW1 4560   2.285   8.865   6.856
  909SOL    HW2 4561   2.238   8.975   6.950
  910SOL     OW 4562  13.482   5.150   5.606
  910SOL    HW1 4563  13.550   5.155   5.539
  910SOL    HW2 4564  13.468   5.240   5.633
  911SOL     OW 4565   3.505   6.394  12.828
  911SOL    HW1 4566   3.575   6.394  12.763
  911SOL    HW2 4567   3.547   6.367  12.910
  912SOL     OW 4568   1.072  10.956   5.997
  912SOL    HW1 4569   1.101  10.892   5.932
  912SOL    HW2 4570   1.118  10.932   6.077
  913SOL     OW 4571   7.677   9.601   8.397
  913SOL    HW1 4572   7.721   9.588   8.481
  913SOL    HW2 4573   7.723   9.543   8.336
  914SOL     OW 4574   5.160   1.773   9.831
  914SOL    HW1 4575   5.116   1.835   9.890
  914SOL    HW2 4576   5.244   1.756   9.872
  915SOL     OW 4577   5.935  14.644   5.098
  915SOL    HW1 4578   5.974  14.694   5.169
  915SOL    HW2 4579   5.893  14.710   5.042
  916SOL     OW 4580   3.204   5.237   3.050
  916SOL    HW1 4581   3.196   5.260   3.143
  916SOL    HW2 4582   3.223   5.143   3.050
  917SOL     OW 4583   2.872   3.953  11.031
  917SOL    HW1 4584   2.920   3.931  10.951
  917SOL    HW2 4585   2.911   4.036  11.060
  918SOL     OW 4586   1.323  10.214   8.999
  918SOL    HW1 4587   1.336  10.257   9.083
  918SOL    HW2 4588   1.263  10.271   8.951
  919SOL     OW 4589   6.075   2.667   3.160
  919SOL    HW1 4590   6.151   2.609   3.151
  919SOL    HW2 4591   6.020   2.646   3.085
  920SOL     OW 4592   0.295   0.335   6.025
  920SOL    HW1 4593   0.249   0.404   5.977
  920SOL    HW2 4594   0.381   0.332   5.984
  921SOL     OW 4595   3.002   5.798   1.370
  921SOL    HW1 4596   2.956   5.719   1.399
  921SOL    HW2 4597   2.977   5.866   1.432
  922SOL     OW 4598  12.200   1.772   2.015
  922SOL    HW1 4599  12.239   1.841   2.068
  922SOL    HW2 4600  12.121   1.812   1.978
  923SOL     OW 4601   8.691   8.042   8.634
  923SOL    HW1 4602   8.724   8.106   8.698
  923SOL    HW2 4603   8.600   8.066   8.621
  924SOL     OW 4604   1.859   3.780  12.031
  924SOL    HW1 4605   1.837   3.873  12.018
  924SOL    HW2 4606   1.866   3.771  12.126
  925SOL     OW 4607  10.347   5.488   1.932
  925SOL    HW1 4608  10.325   5.448   2.016
  925SOL    HW2 4609  10.262   5.512   1.894
  926SOL     OW 4610   8.049   4.254   6.098
  926SOL    HW1 4611   8.025   4.273   6.189
  926SOL    HW2 4612   7.966   4.234   6.055
  927SOL     OW 4613   8.716   8.568  12.305
  927SOL    HW1 4614   8.771   8.551  12.229
  927SOL    HW2 4615   8.667   8.487  12.317
  928SOL     OW 4616   9.098   6.793  14.212
  928SOL    HW1 4617   9.074   6.709  14.172
  928SOL    HW2 4618   9.020   6.847  14.202
  929SOL     OW 4619  13.486   3.986   7.428
  929SOL    HW1 4620  13.488   4.025   7.340
  929SOL    HW2 4621  13.559   3.924   7.428
  930SOL     OW 4622   9.285  10.989  12.900
  930SOL    HW1 4623   9.280  10.895  12.879
  930SOL    HW2 4624   9.352  10.995  12.968
  931SOL     OW 4625   2.031  13.954   8.245
  931SOL    HW1 4626   2.068  14.013   8.311
  931SOL    HW2 4627   2.098  13.888   8.232
  932SOL     OW 4628   1.144   2.860   5.677
  932SOL    HW1 4629   1.052   2.858   5.703
  932SOL    HW2 4630   1.151   2.937   5.620
  933SOL     OW 4631   5.331   5.670   8.494
  933SOL    HW1 4632   5.255   5.621   8.461
  933SOL    HW2 4633   5.406   5.616   8.470
  934SOL     OW 4634   6.768   4.091   8.800
  934SOL    HW1 4635   6.685   4.101   8.847
  934SOL    HW2 4636   6.801   4.180   8.789
  935SOL     OW 4637   2.677  10.348   7.654
  935SOL    HW1 4638   2.755  10.296   7.668
  935SOL    HW2 4639   2.642  10.364   7.742
  936SOL     OW 4640  14.049   4.230   5.697
  936SOL    HW1 4641  14.087   4.206   5.782
  936SOL    HW2 4642  14.032   4.324   5.704
  937SOL     OW 4643  10.594   2.657  13.816
  937SOL    HW1 4644  10.589   2.727  13.881
  937SOL    HW2 4645  10.539   2.587  13.851
  938SOL     OW 4646   1.930   8.256   3.528
  938SOL    HW1 4647   1.889   8.169   3.525
  938SOL    HW2 4648   2.023   8.238   3.518
  939SOL     OW 4649   3.906   3.491  14.711
  939SOL    HW1 4650   3.875   3.551  14.643
  939SOL    HW2 4651   3.826   3.452  14.747
  940SOL     OW 4652   3.467   5.779   6.525
  940SOL    HW1 4653   3.378   5.748   6.541
  940SOL    HW2 4654   3.456   5.858   6.472
  941SOL     OW 4655  12.609  14.549  10.040
  941SOL    HW1 4656  12.678  14.595  10.087
  941SOL    HW2 4657  12.565  14.497  10.108
  942SOL     OW 4658   6.808   7.480  11.349
  942SOL    HW1 4659   6.854   7.400  11.373
  942SOL    HW2 4660   6.717   7.452  11.334
  943SOL     OW 4661   6.951   7.263   1.907
  943SOL    HW1 4662   7.019   7.232   1.966
  943SOL    HW2 4663   6.874   7.273   1.962
  944SOL     OW 4664  13.400   9.188   4.515
  944SOL    HW1 4665  13.430   9.278   4.497
  944SOL    HW2 4666  13.481   9.137   4.521
  945SOL     OW 4667  11.640  13.956   8.474
  945SOL    HW1 4668  11.639  13.967   8.569
  945SOL    HW2 4669  11.620  13.864   8.460
  946SOL     OW 4670   8.126   0.682   6.468
  946SOL    HW1 4671   8.201   0.694   6.410
  946SOL    HW2 4672   8.086   0.600   6.439
  947SOL     OW 4673   8.076   3.922   4.163
  947SOL    HW1 4674   8.088   3.852   4.099
  947SOL    HW2 4675   8.164   3.956   4.178
  948SOL     OW 4676   7.508   5.862  13.810
  948SOL    HW1 4677   7.532   5.822  13.894
  948SOL    HW2 4678   7.487   5.788  13.753
  949SOL     OW 4679  11.109  13.310   7.310
  949SOL    HW1 4680  11.042  13.265   7.258
  949SOL    HW2 4681  11.144  13.243   7.369
  950SOL     OW 4682   4.511   4.280  14.766
  950SOL    HW1 4683   4.564   4.335  14.824
  950SOL    HW2 4684   4.489   4.338  14.693
  951SOL     OW 4685   6.509  11.689   9.228
  951SOL    HW1 4686   6.540  11.612   9.277
  951SOL    HW2 4687   6.508  11.659   9.137
  952SOL     OW 4688  10.115  11.877   0.830
  952SOL    HW1 4689  10.042  11.887   0.890
  952SOL    HW2 4690  10.180  11.827   0.879
  953SOL     OW 4691  12.024   4.746  11.642
  953SOL    HW1 4692  12.086   4.677  11.666
  953SOL    HW2 4693  11.968   4.705  11.576
  954SOL     OW 4694   8.899   9.349  14.820
  954SOL    HW1 4695   8.855   9.360   0.026
  954SOL    HW2 4696   8.969   9.414  14.821
  955SOL     OW 4697  11.837   4.327  13.399
  955SOL    HW1 4698  11.825   4.241  13.440
  955SOL    HW2 4699  11.756   4.375  13.420
  956SOL     OW 4700   9.617   4.392   0.286
  956SOL    HW1 4701   9.614   4.487   0.269
  956SOL    HW2 4702   9.527   4.363   0.273
  957SOL     OW 4703   6.435   8.701   8.944
  957SOL    HW1 4704   6.413   8.761   9.015
  957SOL    HW2 4705   6.504   8.646   8.979
  958SOL     OW 4706   5.685  12.257  13.606
  958SOL    HW1 4707   5.733  12.318  13.662
  958SOL    HW2 4708   5.595  12.258  13.639
  959SOL     OW 4709  11.924  11.304  14.443
  959SOL    HW1 4710  11.999  11.275  14.496
  959SOL    HW2 4711  11.853  11.246  14.469
  960SOL     OW 4712   7.951   3.338   4.161
  960SOL    HW1 4713   8.034   3.383   4.175
  960SOL    HW2 4714   7.963   3.252   4.201
  961SOL     OW 4715  10.360  12.608   6.244
  961SOL    HW1 4716  10.446  12.651   6.246
  961SOL    HW2 4717  10.300  12.671   6.284
  962SOL     OW 4718   7.070   6.798   6.935
  962SOL    HW1 4719   7.138   6.734   6.915
  962SOL    HW2 4720   7.055   6.845   6.853
  963SOL     OW 4721  11.505  13.129   8.129
  963SOL    HW1 4722  11.524  13.181   8.207
  963SOL    HW2 4723  11.476  13.193   8.064
  964SOL     OW 4724  14.347  12.050  14.765
  964SOL    HW1 4725  14.432  12.092  14.777
  964SOL    HW2 4726  14.297  12.110  14.709
  965SOL     OW 4727  13.324   9.358   6.567
  965SOL    HW1 4728  13.273   9.278   6.557
  965SOL    HW2 4729  13.286   9.419   6.503
  966SOL     OW 4730   6.637   5.293   0.175
  966SOL    HW1 4731   6.663   5.286   0.267
  966SOL    HW2 4732   6.545   5.268   0.173
  967SOL     OW 4733  11.208   6.894  14.697
  967SOL    HW1 4734  11.280   6.898  14.760
  967SOL    HW2 4735  11.172   6.806  14.707
  968SOL     OW 4736   5.315   7.187  11.727
  968SOL    HW1 4737   5.267   7.249  11.783
  968SOL    HW2 4738   5.406   7.199  11.752
  969SOL     OW 4739   6.081  12.962  10.336
  969SOL    HW1 4740   6.004  13.007  10.372
  969SOL    HW2 4741   6.149  12.974  10.402
  970SOL     OW 4742   9.036   9.122  12.159
  970SOL    HW1 4743   8.997   9.176  12.228
  970SOL    HW2 4744   9.033   9.033  12.194
  971SOL     OW 4745   5.775   4.083  11.332
  971SOL    HW1 4746   5.732   4.169  11.321
  971SOL    HW2 4747   5.865   4.105  11.356
  972SOL     OW 4748  11.625   3.665   1.052
  972SOL    HW1 4749  11.573   3.644   0.974
  972SOL    HW2 4750  11.565   3.650   1.125
  973SOL     OW 4751   9.836  14.267   6.216
  973SOL    HW1 4752   9.931  14.271   6.222
  973SOL    HW2 4753   9.810  14.198   6.276
  974SOL     OW 4754  14.411   2.351   5.126
  974SOL    HW1 4755  14.389   2.282   5.063
  974SOL    HW2 4756  14.407   2.307   5.211
  975SOL     OW 4757   8.334  11.113   4.887
  975SOL    HW1 4758   8.416  11.162   4.899
  975SOL    HW2 4759   8.363  11.022   4.873
  976SOL     OW 4760   9.706   1.146   5.499
  976SOL    HW1 4761   9.767   1.202   5.450
  976SOL    HW2 4762   9.645   1.113   5.432
  977SOL     OW 4763  13.199   3.311   3.135
  977SOL    HW1 4764  13.197   3.406   3.125
  977SOL    HW2 4765  13.108   3.284   3.129
  978SOL     OW 4766   2.997   6.268   4.827
  978SOL    HW1 4767   2.905   6.273   4.802
  978SOL    HW2 4768   3.017   6.354   4.864
  979SOL     OW 4769   3.069   3.635   3.882
  979SOL    HW1 4770   3.093   3.727   3.879
  979SOL    HW2 4771   2.974   3.634   3.865
  980SOL     OW 4772  14.343   8.813   0.353
  980SOL    HW1 4773  14.428   8.774   0.374
  980SOL    HW2 4774  14.356   8.907   0.365
  981SOL     OW 4775   8.473   6.420  10.711
  981SOL    HW1 4776   8.507   6.440  10.624
  981SOL    HW2 4777   8.544   6.443  10.770
  982SOL     OW 4778   4.502   8.694  14.720
  982SOL    HW1 4779   4.464   8.612  14.752
  982SOL    HW2 4780   4.597   8.679  14.722
  983SOL     OW 4781   6.646   3.151   3.274
  983SOL    HW1 4782   6.578   3.178   3.211
  983SOL    HW2 4783   6.671   3.063   3.246
  984SOL     OW 4784   8.330   6.107   8.013
  984SOL    HW1 4785   8.273   6.106   8.090
  984SOL    HW2 4786   8.415   6.136   8.047
  985SOL     OW 4787   2.244   5.922   2.443
  985SOL    HW1 4788   2.182   5.992   2.464
  985SOL    HW2 4789   2.246   5.920   2.347
  986SOL     OW 4790   2.947   6.060  11.722
  986SOL    HW1 4791   3.017   6.033  11.663
  986SOL    HW2 4792   2.910   6.138  11.681
  987SOL     OW 4793  10.532   1.133   8.474
  987SOL    HW1 4794  10.508   1.066   8.409
  987SOL    HW2 4795  10.564   1.083   8.549
  988SOL     OW 4796  14.299   3.112   5.093
  988SOL    HW1 4797  14.245   3.137   5.168
  988SOL    HW2 4798  14.385   3.149   5.112
  989SOL     OW 4799   9.426  12.453   7.014
  989SOL    HW1 4800   9.516  12.424   6.998
  989SOL    HW2 4801   9.428  12.548   7.004
  990SOL     OW 4802   7.048   2.529   2.199
  990SOL    HW1 4803   7.112   2.461   2.220
  990SOL    HW2 4804   6.984   2.486   2.142
  991SOL     OW 4805   4.264   2.664   3.537
  991SOL    HW1 4806   4.336   2.610   3.504
  991SOL    HW2 4807   4.292   2.691   3.624
  992SOL     OW 4808  11.632   4.462   8.798
  992SOL    HW1 4809  11.563   4.395   8.796
  992SOL    HW2 4810  11.598   4.530   8.856
  993SOL     OW 4811   0.746   1.517  14.854
  993SOL    HW1 4812   0.833   1.538   0.009
  993SOL    HW2 4813   0.760   1.442  14.796
  994SOL     OW 4814  14.715   5.506  11.113
  994SOL    HW1 4815  14.630   5.526  11.074
  994SOL    HW2 4816  14.697   5.494  11.206
  995SOL     OW 4817   8.610   7.732  12.056
  995SOL    HW1 4818   8.557   7.669  12.105
  995SOL    HW2 4819   8.700   7.710  12.078
  996SOL     OW 4820   3.834  14.517   5.767
  996SOL    HW1 4821   3.895  14.565   5.711
  996SOL    HW2 4822   3.889  14.480   5.836
  997SOL     OW 4823  10.852   9.478   3.259
  997SOL    HW1 4824  10.844   9.564   3.216
  997SOL    HW2 4825  10.846   9.415   3.187
  998SOL     OW 4826   7.727   4.060   8.469
  998SOL    HW1 4827   7.656   4.036   8.528
  998SOL    HW2 4828   7.806   4.026   8.510
  999SOL     OW 4829   2.555   5.869  14.385
  999SOL    HW1 4830   2.562   5.775  14.404
  999SOL    HW2 4831   2.576   5.876  14.292
 1000SOL     OW 4832   6.332  13.914  11.818
 1000SOL    HW1 4833   6.310  13.966  11.894
 1000SOL    HW2 4834   6.407  13.959  11.779
 1001SOL     OW 4835   6.431   5.258   2.166
 1001SOL    HW1 4836   6.431   5.333   2.227
 1001SOL    HW2 4837   6.338   5.234   2.159
 1002SOL     OW 4838  11.831   4.240   0.475
 1002SOL    HW1 4839  11.841   4.207   0.564
 1002SOL    HW2 4840  11.802   4.330   0.486
 1003SOL     OW 4841   2.187   4.960   1.151
 1003SOL    HW1 4842   2.189   4.919   1.238
 1003SOL    HW2 4843   2.119   5.027   1.158
 1004SOL     OW 4844   4.206  10.238   1.209
 1004SOL    HW1 4845   4.275  10.266   1.269
 1004SOL    HW2 4846   4.189  10.147   1.232
 1005SOL     OW 4847   8.382  12.636  10.086
 1005SOL    HW1 4848   8.412  12.575  10.153
 1005SOL    HW2 4849   8.458  12.691  10.067
 1006SOL     OW 4850   1.353  12.874   1.863
 1006SOL    HW1 4851   1.338  12.944   1.926
 1006SOL    HW2 4852   1.371  12.797   1.917
 1007SOL     OW 4853  13.604  12.661   3.941
 1007SOL    HW1 4854  13.636  12.751   3.930
 1007SOL    HW2 4855  13.601  12.626   3.852
 1008SOL     OW 4856   8.899   9.349   1.618
 1008SOL    HW1 4857   8.844   9.273   1.602
 1008SOL    HW2 4858   8.973   9.337   1.558
 1009SOL     OW 4859   2.081   6.248   2.136
 1009SOL    HW1 4860   2.100   6.252   2.043
 1009SOL    HW2 4861   1.999   6.296   2.146
 1010SOL     OW 4862   4.517   4.053   9.073
 1010SOL    HW1 4863   4.568   4.040   9.153
 1010SOL    HW2 4864   4.439   4.000   9.086
 1011SOL     OW 4865   1.959   7.586   4.614
 1011SOL    HW1 4866   1.966   7.503   4.660
 1011SOL    HW2 4867   1.960   7.563   4.521
 1012SOL     OW 4868  13.514   3.293  12.837
 1012SOL    HW1 4869  13.477   3.329  12.917
 1012SOL    HW2 4870  13.441   3.246  12.796
 1013SOL     OW 4871   7.228   4.468  14.351
 1013SOL    HW1 4872   7.298   4.524  14.387
 1013SOL    HW2 4873   7.148   4.519  14.365
 1014SOL     OW 4874  13.708   3.458   1.957
 1014SOL    HW1 4875  13.621   3.432   1.988
 1014SOL    HW2 4876  13.756   3.482   2.037
 1015SOL     OW 4877   1.582   4.805  12.545
 1015SOL    HW1 4878   1.675   4.799  12.568
 1015SOL    HW2 4879   1.581   4.855  12.464
 1016SOL     OW 4880   3.751   0.949   2.049
 1016SOL    HW1 4881   3.751   1.032   2.001
 1016SOL    HW2 4882   3.705   0.888   1.992
 1017SOL     OW 4883   0.502   0.687  14.377
 1017SOL    HW1 4884   0.455   0.661  14.456
 1017SOL    HW2 4885   0.572   0.744  14.408
 1018SOL     OW 4886  13.534   7.623   0.960
 1018SOL    HW1 4887  13.595   7.602   1.031
 1018SOL    HW2 4888  13.532   7.544   0.906
 1019SOL     OW 4889  12.101  13.181  10.935
 1019SOL    HW1 4890  12.171  13.140  10.986
 1019SOL    HW2 4891  12.033  13.114  10.930
 1020SOL     OW 4892   8.981  13.084   3.113
 1020SOL    HW1 4893   8.910  13.053   3.058
 1020SOL    HW2 4894   8.939  13.104   3.197
 1021SOL     OW 4895   8.282   3.436  12.438
 1021SOL    HW1 4896   8.284   3.369  12.370
 1021SOL    HW2 4897   8.204   3.415  12.490
 1022SOL     OW 4898  13.753   9.955   2.494
 1022SOL    HW1 4899  13.817   9.890   2.466
 1022SOL    HW2 4900  13.688   9.957   2.423
 1023SOL     OW 4901   6.438  11.994   9.965
 1023SOL    HW1 4902   6.362  11.955   9.923
 1023SOL    HW2 4903   6.498  11.920   9.978
 1024SOL     OW 4904   9.339   4.631   0.046
 1024SOL    HW1 4905   9.264   4.634   0.106
 1024SOL    HW2 4906   9.307   4.581  14.850
 1025SOL     OW 4907   2.294   2.863   3.643
 1025SOL    HW1 4908   2.243   2.911   3.578
 1025SOL    HW2 4909   2.360   2.816   3.591
 1026SOL     OW 4910  14.105  11.625   3.189
 1026SOL    HW1 4911  14.071  11.657   3.106
 1026SOL    HW2 4912  14.200  11.636   3.182
 1027SOL     OW 4913   4.453   6.744   0.328
 1027SOL    HW1 4914   4.444   6.831   0.288
 1027SOL    HW2 4915   4.547   6.733   0.339
 1028SOL     OW 4916   6.318  10.662   5.465
 1028SOL    HW1 4917   6.405  10.626   5.475
 1028SOL    HW2 4918   6.298  10.650   5.372
 1029SOL     OW 4919   5.017   3.281   7.421
 1029SOL    HW1 4920   5.107   3.289   7.390
 1029SOL    HW2 4921   4.964   3.315   7.349
 1030SOL     OW 4922   5.763   6.867   7.423
 1030SOL    HW1 4923   5.771   6.771   7.418
 1030SOL    HW2 4924   5.696   6.882   7.489
 1031SOL     OW 4925  11.820   6.819  11.174
 1031SOL    HW1 4926  11.788   6.904  11.203
 1031SOL    HW2 4927  11.824   6.825  11.079
 1032SOL     OW 4928   2.088   7.844   4.954
 1032SOL    HW1 4929   2.114   7.768   5.007
 1032SOL    HW2 4930   2.146   7.914   4.982
 1033SOL     OW 4931   7.737   3.293   7.891
 1033SOL    HW1 4932   7.704   3.235   7.822
 1033SOL    HW2 4933   7.827   3.313   7.865
 1034SOL     OW 4934   2.818   9.123   0.356
 1034SOL    HW1 4935   2.830   9.047   0.299
 1034SOL    HW2 4936   2.815   9.198   0.296
 1035SOL     OW 4937  13.474   3.435   3.561
 1035SOL    HW1 4938  13.407   3.472   3.504
 1035SOL    HW2 4939  13.488   3.346   3.527
 1036SOL     OW 4940   2.622  12.879   8.808
 1036SOL    HW1 4941   2.534  12.871   8.772
 1036SOL    HW2 4942   2.609  12.887   8.903
 1037SOL     OW 4943   9.714   9.915   3.264
 1037SOL    HW1 4944   9.633   9.966   3.273
 1037SOL    HW2 4945   9.732   9.917   3.170
 1038SOL     OW 4946  14.324   0.679   8.473
 1038SOL    HW1 4947  14.396   0.692   8.411
 1038SOL    HW2 4948  14.293   0.767   8.492
 1039SOL     OW 4949  14.539  11.009  12.524
 1039SOL    HW1 4950  14.634  11.020  12.519
 1039SOL    HW2 4951  14.527  10.942  12.592
 1040SOL     OW 4952  12.704   2.148  14.147
 1040SOL    HW1 4953  12.699   2.238  14.113
 1040SOL    HW2 4954  12.617   2.132  14.184
 1041SOL     OW 4955   5.972   7.969   2.862
 1041SOL    HW1 4956   6.003   7.960   2.952
 1041SOL    HW2 4957   5.951   8.062   2.854
 1042SOL     OW 4958   4.325  13.913   4.717
 1042SOL    HW1 4959   4.306  13.928   4.810
 1042SOL    HW2 4960   4.239  13.908   4.675
 1043SOL     OW 4961  14.492   8.553   9.492
 1043SOL    HW1 4962  14.545   8.556   9.573
 1043SOL    HW2 4963  14.410   8.514   9.519
 1044SOL     OW 4964   6.074  14.049   6.482
 1044SOL    HW1 4965   6.037  14.137   6.474
 1044SOL    HW2 4966   6.020  13.994   6.425
 1045SOL     OW 4967   2.114   6.191   2.415
 1045SOL    HW1 4968   2.022   6.199   2.441
 1045SOL    HW2 4969   2.116   6.220   2.324
 1046SOL     OW 4970   5.632   1.537   5.824
 1046SOL    HW1 4971   5.716   1.520   5.782
 1046SOL    HW2 4972   5.620   1.463   5.884
 1047SOL     OW 4973  12.256   4.556   2.073
 1047SOL    HW1 4974  12.264   4.618   2.145
 1047SOL    HW2 4975  12.325   4.582   2.011
 1048SOL     OW 4976   3.552  10.824   7.252
 1048SOL    HW1 4977   3.565  10.861   7.165
 1048SOL    HW2 4978   3.558  10.729   7.239
 1049SOL     OW 4979   2.205   0.504   8.685
 1049SOL    HW1 4980   2.192   0.490   8.779
 1049SOL    HW2 4981   2.191   0.598   8.672
 1050SOL     OW 4982  13.874  14.097   5.824
 1050SOL    HW1 4983  13.968  14.085   5.810
 1050SOL    HW2 4984  13.832  14.041   5.759
 1051SOL     OW 4985   4.676   1.181   2.172
 1051SOL    HW1 4986   4.606   1.143   2.227
 1051SOL    HW2 4987   4.633   1.199   2.088
 1052SOL     OW 4988   7.761   5.766   1.718
 1052SOL    HW1 4989   7.784   5.685   1.673
 1052SOL    HW2 4990   7.844   5.813   1.727
 1053SOL     OW 4991  13.665  12.942   0.540
 1053SOL    HW1 4992  13.713  13.016   0.575
 1053SOL    HW2 4993  13.676  12.949   0.445
 1054SOL     OW 4994   5.144  12.085  14.371
 1054SOL    HW1 4995   5.145  12.028  14.448
 1054SOL    HW2 4996   5.187  12.166  14.400
 1055SOL     OW 4997   5.049  12.243   8.487
 1055SOL    HW1 4998   5.041  12.330   8.448
 1055SOL    HW2 4999   5.133  12.246   8.533
 1056SOL     OW 5000   3.900   1.861   1.362
 1056SOL    HW1 5001   3.930   1.848   1.452
 1056SOL    HW2 5002   3.807   1.840   1.365
 1057SOL     OW 5003  14.443   4.757  11.860
 1057SOL    HW1 5004  14.427   4.745  11.953
 1057SOL    HW2 5005  14.424   4.672  11.821
 1058SOL     OW 5006   0.076  12.156   1.266
 1058SOL    HW1 5007   0.067  12.251   1.264
 1058SOL    HW2 5008  14.870  12.124   1.234
 1059SOL     OW 5009   3.330   3.970  11.453
 1059SOL    HW1 5010   3.349   3.877  11.443
 1059SOL    HW2 5011   3.312   3.981  11.546
 1060SOL     OW 5012   6.672   8.020  10.197
 1060SOL    HW1 5013   6.668   8.107  10.158
 1060SOL    HW2 5014   6.698   8.035  10.288
 1061SOL     OW 5015  12.836  11.662  11.854
 1061SOL    HW1 5016  12.847  11.754  11.828
 1061SOL    HW2 5017  12.820  11.666  11.948
 1062SOL     OW 5018   3.711   7.738   7.720
 1062SOL    HW1 5019   3.666   7.709   7.799
 1062SOL    HW2 5020   3.756   7.818   7.746
 1063SOL     OW 5021  11.855   0.458   7.890
 1063SOL    HW1 5022  11.826   0.540   7.930
 1063SOL    HW2 5023  11.938   0.481   7.847
 1064SOL     OW 5024   3.126   5.377   8.133
 1064SOL    HW1 5025   3.051   5.318   8.122
 1064SOL    HW2 5026   3.113   5.417   8.220
 1065SOL     OW 5027   0.592   2.182  11.599
 1065SOL    HW1 5028   0.687   2.197  11.596
 1065SOL    HW2 5029   0.579   2.132  11.679
 1066SOL     OW 5030   5.242   1.149   7.954
 1066SOL    HW1 5031   5.151   1.139   7.980
 1066SOL    HW2 5032   5.245   1.234   7.910
 1067SOL     OW 5033  11.204   7.771   6.996
 1067SOL    HW1 5034  11.177   7.714   7.067
 1067SOL    HW2 5035  11.125   7.785   6.944
 1068SOL     OW 5036  11.338   8.403   8.154
 1068SOL    HW1 5037  11.341   8.488   8.200
 1068SOL    HW2 5038  11.429   8.386   8.131
 1069SOL     OW 5039   7.244  10.738   9.893
 1069SOL    HW1 5040   7.308  10.691   9.946
 1069SOL    HW2 5041   7.204  10.670   9.838
 1070SOL     OW 5042  13.176   0.271   2.547
 1070SOL    HW1 5043  13.143   0.181   2.541
 1070SOL    HW2 5044  13.234   0.270   2.623
 1071SOL     OW 5045   3.441   2.753  13.024
 1071SOL    HW1 5046   3.406   2.796  13.102
 1071SOL    HW2 5047   3.369   2.698  12.992
 1072SOL     OW 5048  14.018   6.646  14.527
 1072SOL    HW1 5049  14.090   6.640  14.590
 1072SOL    HW2 5050  13.940   6.659  14.580
 1073SOL     OW 5051  14.501   0.346   4.158
 1073SOL    HW1 5052  14.511   0.424   4.102
 1073SOL    HW2 5053  14.484   0.382   4.245
 1074SOL     OW 5054  10.926  14.072  11.707
 1074SOL    HW1 5055  10.851  14.031  11.750
 1074SOL    HW2 5056  10.910  14.166  11.717
 1075SOL     OW 5057   2.377   0.335   1.047
 1075SOL    HW1 5058   2.310   0.279   1.009
 1075SOL    HW2 5059   2.337   0.422   1.051
 1076SOL     OW 5060   9.671  14.038   5.321
 1076SOL    HW1 5061   9.589  14.087   5.323
 1076SOL    HW2 5062   9.725  14.079   5.389
 1077SOL     OW 5063  14.596   3.074   0.643
 1077SOL    HW1 5064  14.592   3.169   0.639
 1077SOL    HW2 5065  14.633   3.047   0.558
 1078SOL     OW 5066   0.385  14.804  13.447
 1078SOL    HW1 5067   0.399   0.019  13.456
 1078SOL    HW2 5068   0.334  14.794  13.367
 1079SOL     OW 5069   1.077   4.243   3.191
 1079SOL    HW1 5070   1.064   4.329   3.151
 1079SOL    HW2 5071   1.127   4.261   3.271
 1080SOL     OW 5072   0.733  13.168   6.179
 1080SOL    HW1 5073   0.672  13.192   6.249
 1080SOL    HW2 5074   0.778  13.250   6.157
 1081SOL     OW 5075   2.698   3.064   9.463
 1081SOL    HW1 5076   2.740   3.065   9.549
 1081SOL    HW2 5077   2.650   3.147   9.459
 1082SOL     OW 5078   9.773   0.121   6.303
 1082SOL    HW1 5079   9.853   0.102   6.353
 1082SOL    HW2 5080   9.766   0.048   6.241
 1083SOL     OW 5081  13.351  12.588   8.891
 1083SOL    HW1 5082  13.283  12.651   8.867
 1083SOL    HW2 5083  13.421  12.642   8.929
 1084SOL     OW 5084   1.890  12.978   7.788
 1084SOL    HW1 5085   1.881  13.013   7.700
 1084SOL    HW2 5086   1.943  12.898   7.777
 1085SOL     OW 5087   9.801   3.182   2.641
 1085SOL    HW1 5088   9.817   3.098   2.599
 1085SOL    HW2 5089   9.813   3.165   2.735
 1086SOL     OW 5090   9.090  11.701   6.706
 1086SOL    HW1 5091   9.082  11.795   6.725
 1086SOL    HW2 5092   9.010  11.663   6.741
 1087SOL     OW 5093  10.220  14.758  13.593
 1087SOL    HW1 5094  10.190  14.727  13.678
 1087SOL    HW2 5095  10.316  14.749  13.597
 1088SOL     OW 5096   8.936  12.480  10.007
 1088SOL    HW1 5097   8.897  12.535  10.075
 1088SOL    HW2 5098   8.892  12.507   9.926
 1089SOL     OW 5099  14.012   0.792   6.273
 1089SOL    HW1 5100  14.064   0.712   6.268
 1089SOL    HW2 5101  13.984   0.796   6.364
 1090SOL     OW 5102  12.106   3.006   4.956
 1090SOL    HW1 5103  12.134   2.952   5.030
 1090SOL    HW2 5104  12.187   3.044   4.922
 1091SOL     OW 5105   1.945  14.345   6.022
 1091SOL    HW1 5106   1.891  14.313   6.095
 1091SOL    HW2 5107   1.984  14.266   5.984
 1092SOL     OW 5108  14.796   2.681   3.051
 1092SOL    HW1 5109  14.773   2.687   3.143
 1092SOL    HW2 5110  14.765   2.595   3.024
 1093SOL     OW 5111  13.991   1.197   6.662
 1093SOL    HW1 5112  14.080   1.166   6.648
 1093SOL    HW2 5113  13.941   1.161   6.589
 1094SOL     OW 5114   6.257   6.049   4.218
 1094SOL    HW1 5115   6.299   6.115   4.273
 1094SOL    HW2 5116   6.259   6.088   4.130
 1095SOL     OW 5117  11.489   4.928   1.969
 1095SOL    HW1 5118  11.528   4.974   2.043
 1095SOL    HW2 5119  11.406   4.974   1.954
 1096SOL     OW 5120   7.761   6.287   9.934
 1096SOL    HW1 5121   7.820   6.241   9.994
 1096SOL    HW2 5122   7.811   6.362   9.903
 1097SOL     OW 5123   3.950   2.606   4.663
 1097SOL    HW1 5124   3.892   2.640   4.595
 1097SOL    HW2 5125   3.892   2.585   4.736
 1098SOL     OW 5126  14.707   2.759  12.311
 1098SOL    HW1 5127  14.773   2.793  12.251
 1098SOL    HW2 5128  14.637   2.727  12.255
 1099SOL     OW 5129   8.057   1.231   9.161
 1099SOL    HW1 5130   8.024   1.197   9.078
 1099SOL    HW2 5131   8.028   1.322   9.163
 1100SOL     OW 5132   6.908  12.101   0.247
 1100SOL    HW1 5133   6.885  12.140   0.331
 1100SOL    HW2 5134   6.827  12.106   0.195
 1101SOL     OW 5135   6.279  11.063   2.960
 1101SOL    HW1 5136   6.239  11.140   3.000
 1101SOL    HW2 5137   6.206  11.018   2.916
 1102SOL     OW 5138   6.321   1.566   4.952
 1102SOL    HW1 5139   6.278   1.556   5.036
 1102SOL    HW2 5140   6.255   1.542   4.887
 1103SOL     OW 5141   5.126  13.563   5.824
 1103SOL    HW1 5142   5.105  13.635   5.883
 1103SOL    HW2 5143   5.041  13.528   5.798
 1104SOL     OW 5144   9.016   8.687   6.436
 1104SOL    HW1 5145   8.968   8.757   6.481
 1104SOL    HW2 5146   9.013   8.712   6.344
 1105SOL     OW 5147   0.900  10.821   8.735
 1105SOL    HW1 5148   0.838  10.893   8.733
 1105SOL    HW2 5149   0.976  10.852   8.685
 1106SOL     OW 5150   2.095   2.561  12.596
 1106SOL    HW1 5151   2.186   2.575  12.572
 1106SOL    HW2 5152   2.079   2.468  12.576
 1107SOL     OW 5153   5.037   5.160   9.981
 1107SOL    HW1 5154   4.945   5.183   9.993
 1107SOL    HW2 5155   5.040   5.112   9.899
 1108SOL     OW 5156  12.524  10.821   6.258
 1108SOL    HW1 5157  12.519  10.802   6.165
 1108SOL    HW2 5158  12.546  10.914   6.263
 1109SOL     OW 5159   4.834   8.618   3.359
 1109SOL    HW1 5160   4.866   8.598   3.271
 1109SOL    HW2 5161   4.802   8.535   3.393
 1110SOL     OW 5162  14.589   7.909   0.627
 1110SOL    HW1 5163  14.645   7.987   0.616
 1110SOL    HW2 5164  14.635   7.856   0.692
 1111SOL     OW 5165   1.920  13.816   3.714
 1111SOL    HW1 5166   1.884  13.733   3.682
 1111SOL    HW2 5167   1.871  13.883   3.666
 1112SOL     OW 5168  12.207   2.959  14.193
 1112SOL    HW1 5169  12.235   2.909  14.269
 1112SOL    HW2 5170  12.286   3.006  14.165
 1113SOL     OW 5171  12.449   6.452   4.521
 1113SOL    HW1 5172  12.454   6.476   4.428
 1113SOL    HW2 5173  12.534   6.477   4.556
 1114SOL     OW 5174   7.241   0.082   2.613
 1114SOL    HW1 5175   7.189   0.046   2.541
 1114SOL    HW2 5176   7.196   0.162   2.638
 1115SOL     OW 5177   3.866   1.725   0.959
 1115SOL    HW1 5178   3.852   1.653   1.020
 1115SOL    HW2 5179   3.940   1.774   0.997
 1116SOL     OW 5180   5.569   5.299   8.066
 1116SOL    HW1 5181   5.641   5.312   8.128
 1116SOL    HW2 5182   5.490   5.300   8.121
 1117SOL     OW 5183  11.614  13.618   3.244
 1117SOL    HW1 5184  11.615  13.708   3.278
 1117SOL    HW2 5185  11.629  13.628   3.150
 1118SOL     OW 5186   6.872  11.314  13.301
 1118SOL    HW1 5187   6.861  11.318  13.396
 1118SOL    HW2 5188   6.924  11.391  13.279
 1119SOL     OW 5189   0.207  12.065   8.704
 1119SOL    HW1 5190   0.230  12.007   8.777
 1119SOL    HW2 5191   0.290  12.077   8.657
 1120SOL     OW 5192   4.393   0.316   2.857
 1120SOL    HW1 5193   4.318   0.286   2.909
 1120SOL    HW2 5194   4.469   0.302   2.914
 1121SOL     OW 5195  14.874   4.186  10.490
 1121SOL    HW1 5196   0.017   4.278  10.498
 1121SOL    HW2 5197  14.781   4.184  10.468
 1122SOL     OW 5198   7.560   5.328   6.635
 1122SOL    HW1 5199   7.651   5.333   6.606
 1122SOL    HW2 5200   7.555   5.245   6.682
 1123SOL     OW 5201   9.776   8.572   6.787
 1123SOL    HW1 5202   9.743   8.500   6.841
 1123SOL    HW2 5203   9.711   8.642   6.798
 1124SOL     OW 5204   9.180   7.131   7.652
 1124SOL    HW1 5205   9.105   7.190   7.653
 1124SOL    HW2 5206   9.151   7.056   7.602
 1125SOL     OW 5207  13.127  12.846  12.991
 1125SOL    HW1 5208  13.095  12.778  12.932
 1125SOL    HW2 5209  13.221  12.851  12.972
 1126SOL     OW 5210   7.529  10.312  13.080
 1126SOL    HW1 5211   7.551  10.231  13.125
 1126SOL    HW2 5212   7.594  10.375  13.111
 1127SOL     OW 5213   8.942   9.005   4.756
 1127SOL    HW1 5214   9.028   9.017   4.796
 1127SOL    HW2 5215   8.896   9.087   4.774
 1128SOL     OW 5216  12.003   6.781   6.335
 1128SOL    HW1 5217  12.019   6.714   6.269
 1128SOL    HW2 5218  11.935   6.837   6.296
 1129SOL     OW 5219   7.299   7.566  12.971
 1129SOL    HW1 5220   7.385   7.606  12.964
 1129SOL    HW2 5221   7.251   7.623  13.031
 1130SOL     OW 5222  14.154  12.244  12.047
 1130SOL    HW1 5223  14.124  12.171  11.993
 1130SOL    HW2 5224  14.113  12.229  12.132
 1131SOL     OW 5225  10.657  14.213  11.571
 1131SOL    HW1 5226  10.694  14.299  11.591
 1131SOL    HW2 5227  10.588  14.231  11.507
 1132SOL     OW 5228   0.921   4.435  13.897
 1132SOL    HW1 5229   0.958   4.466  13.814
 1132SOL    HW2 5230   0.980   4.471  13.963
 1133SOL     OW 5231  10.663   4.003   8.237
 1133SOL    HW1 5232  10.570   3.981   8.231
 1133SOL    HW2 5233  10.708   3.925   8.206
 1134SOL     OW 5234   9.524  12.559   8.177
 1134SOL    HW1 5235   9.523  12.526   8.087
 1134SOL    HW2 5236   9.557  12.649   8.170
 1135SOL     OW 5237  14.443  10.170   9.997
 1135SOL    HW1 5238  14.396  10.244  10.035
 1135SOL    HW2 5239  14.439  10.102  10.065
 1136SOL     OW 5240   6.718   8.795   6.426
 1136SOL    HW1 5241   6.733   8.703   6.403
 1136SOL    HW2 5242   6.698   8.794   6.520
 1137SOL     OW 5243  13.849   4.480   2.472
 1137SOL    HW1 5244  13.778   4.517   2.526
 1137SOL    HW2 5245  13.902   4.430   2.533
 1138SOL     OW 5246  14.767   8.048  14.527
 1138SOL    HW1 5247  14.751   7.990  14.453
 1138SOL    HW2 5248  14.689   8.039  14.582
 1139SOL     OW 5249  13.031  13.299   9.738
 1139SOL    HW1 5250  13.112  13.249   9.752
 1139SOL    HW2 5251  12.978  13.281   9.815
 1140SOL     OW 5252   4.197   7.595   5.597
 1140SOL    HW1 5253   4.283   7.578   5.634
 1140SOL    HW2 5254   4.143   7.622   5.671
 1141SOL     OW 5255  14.320   3.572   0.665
 1141SOL    HW1 5256  14.229   3.552   0.643
 1141SOL    HW2 5257  14.344   3.508   0.732
 1142SOL     OW 5258   9.692  11.546  13.624
 1142SOL    HW1 5259   9.683  11.452  13.608
 1142SOL    HW2 5260   9.751  11.577  13.555
 1143SOL     OW 5261  13.302   2.005   4.848
 1143SOL    HW1 5262  13.219   1.996   4.801
 1143SOL    HW2 5263  13.339   1.916   4.848
 1144SOL     OW 5264   8.511  13.736   1.794
 1144SOL    HW1 5265   8.451  13.748   1.868
 1144SOL    HW2 5266   8.468  13.779   1.721
 1145SOL     OW 5267   8.630   5.541  11.650
 1145SOL    HW1 5268   8.610   5.447  11.645
 1145SOL    HW2 5269   8.696   5.547  11.718
 1146SOL     OW 5270   2.489   0.212  10.379
 1146SOL    HW1 5271   2.414   0.202  10.437
 1146SOL    HW2 5272   2.508   0.305  10.379
 1147SOL     OW 5273   1.628   2.769   4.349
 1147SOL    HW1 5274   1.684   2.695   4.326
 1147SOL    HW2 5275   1.609   2.757   4.442
 1148SOL     OW 5276   6.998  11.548   2.821
 1148SOL    HW1 5277   6.913  11.530   2.860
 1148SOL    HW2 5278   7.058  11.486   2.863
 1149SOL     OW 5279   4.123  11.163   4.983
 1149SOL    HW1 5280   4.148  11.112   4.906
 1149SOL    HW2 5281   4.161  11.116   5.057
 1150SOL     OW 5282   2.969   2.698   3.953
 1150SOL    HW1 5283   2.942   2.776   3.906
 1150SOL    HW2 5284   3.057   2.719   3.985
 1151SOL     OW 5285   2.098  14.794   7.421
 1151SOL    HW1 5286   2.163  14.822   7.486
 1151SOL    HW2 5287   2.016  14.833   7.451
 1152SOL     OW 5288  14.382   0.795  14.688
 1152SOL    HW1 5289  14.434   0.733  14.637
 1152SOL    HW2 5290  14.304   0.746  14.713
 1153SOL     OW 5291   1.272   0.154   5.716
 1153SOL    HW1 5292   1.338   0.112   5.772
 1153SOL    HW2 5293   1.294   0.126   5.627
 1154SOL     OW 5294   5.794   2.031  14.131
 1154SOL    HW1 5295   5.708   2.002  14.101
 1154SOL    HW2 5296   5.805   1.990  14.217
 1155SOL     OW 5297   9.456  11.624   0.982
 1155SOL    HW1 5298   9.493  11.680   1.050
 1155SOL    HW2 5299   9.366  11.608   1.010
 1156SOL     OW 5300   7.260   4.610   7.618
 1156SOL    HW1 5301   7.196   4.666   7.661
 1156SOL    HW2 5302   7.284   4.658   7.539
 1157SOL     OW 5303   5.271   6.769   5.664
 1157SOL    HW1 5304   5.328   6.712   5.716
 1157SOL    HW2 5305   5.312   6.772   5.578
 1158SOL     OW 5306   3.463  11.644   5.894
 1158SOL    HW1 5307   3.377  11.669   5.860
 1158SOL    HW2 5308   3.482  11.560   5.852
 1159SOL     OW 5309  13.693  10.476   1.191
 1159SOL    HW1 5310  13.718  10.384   1.177
 1159SOL    HW2 5311  13.607  10.471   1.233
 1160SOL     OW 5312   2.641   6.808   5.386
 1160SOL    HW1 5313   2.678   6.857   5.313
 1160SOL    HW2 5314   2.582   6.744   5.345
 1161SOL     OW 5315  14.749  11.710   9.332
 1161SOL    HW1 5316  14.775  11.624   9.301
 1161SOL    HW2 5317  14.805  11.726   9.408
 1162SOL     OW 5318   3.533  14.705  11.238
 1162SOL    HW1 5319   3.451  14.708  11.190
 1162SOL    HW2 5320   3.553  14.796  11.259
 1163SOL     OW 5321   7.766  13.117   8.889
 1163SOL    HW1 5322   7.746  13.139   8.980
 1163SOL    HW2 5323   7.842  13.059   8.894
 1164SOL     OW 5324  14.114   1.882  14.446
 1164SOL    HW1 5325  14.101   1.894  14.540
 1164SOL    HW2 5326  14.041   1.929  14.405
 1165SOL     OW 5327   4.054   7.989   1.882
 1165SOL    HW1 5328   4.148   7.997   1.868
 1165SOL    HW2 5329   4.016   8.066   1.839
 1166SOL     OW 5330   1.559   7.999  13.626
 1166SOL    HW1 5331   1.631   7.940  13.645
 1166SOL    HW2 5332   1.549   7.994  13.531
 1167SOL     OW 5333   5.428   6.502   8.730
 1167SOL    HW1 5334   5.441   6.515   8.636
 1167SOL    HW2 5335   5.511   6.466   8.760
 1168SOL     OW 5336   1.299   8.018  13.255
 1168SOL    HW1 5337   1.332   7.949  13.198
 1168SOL    HW2 5338   1.229   8.060  13.206
 1169SOL     OW 5339   0.081   6.960   5.707
 1169SOL    HW1 5340   0.110   6.869   5.720
 1169SOL    HW2 5341   0.068   6.994   5.796
 1170SOL     OW 5342  14.304   3.058   9.291
 1170SOL    HW1 5343  14.220   3.090   9.258
 1170SOL    HW2 5344  14.328   3.120   9.360
 1171SOL     OW 5345   0.509   0.021  12.695
 1171SOL    HW1 5346   0.451  14.824  12.703
 1171SOL    HW2 5347   0.450   0.096  12.690
 1172SOL     OW 5348   9.013  13.585   0.135
 1172SOL    HW1 5349   8.971  13.547   0.058
 1172SOL    HW2 5350   8.980  13.533   0.209
 1173SOL     OW 5351   2.701  10.932   4.689
 1173SOL    HW1 5352   2.608  10.955   4.685
 1173SOL    HW2 5353   2.713  10.870   4.617
 1174SOL     OW 5354  10.749   6.999   3.343
 1174SOL    HW1 5355  10.724   7.070   3.402
 1174SOL    HW2 5356  10.714   6.920   3.384
 1175SOL     OW 5357  10.742  11.791  11.076
 1175SOL    HW1 5358  10.779  11.783  11.163
 1175SOL    HW2 5359  10.776  11.716  11.028
 1176SOL     OW 5360   2.289   6.463   5.813
 1176SOL    HW1 5361   2.206   6.490   5.852
 1176SOL    HW2 5362   2.348   6.452   5.887
 1177SOL     OW 5363   4.875   4.062   7.059
 1177SOL    HW1 5364   4.821   4.137   7.036
 1177SOL    HW2 5365   4.890   4.017   6.976
 1178SOL     OW 5366   0.364  14.001   3.544
 1178SOL    HW1 5367   0.279  13.956   3.541
 1178SOL    HW2 5368   0.358  14.067   3.476
 1179SOL     OW 5369  12.610  12.664   4.022
 1179SOL    HW1 5370  12.697  12.675   3.983
 1179SOL    HW2 5371  12.607  12.727   4.093
 1180SOL     OW 5372   1.444   2.581   0.904
 1180SOL    HW1 5373   1.443   2.492   0.868
 1180SOL    HW2 5374   1.461   2.568   0.997
 1181SOL     OW 5375   4.888   1.579   1.925
 1181SOL    HW1 5376   4.826   1.604   1.857
 1181SOL    HW2 5377   4.920   1.493   1.899
 1182SOL     OW 5378   0.092   0.681   8.910
 1182SOL    HW1 5379   0.000   0.654   8.905
 1182SOL    HW2 5380   0.136   0.608   8.953
 1183SOL     OW 5381  10.219   0.290   5.014
 1183SOL    HW1 5382  10.249   0.336   4.935
 1183SOL    HW2 5383  10.229   0.197   4.993
 1184SOL     OW 5384   8.646   8.154   8.358
 1184SOL    HW1 5385   8.562   8.195   8.380
 1184SOL    HW2 5386   8.676   8.203   8.281
 1185SOL     OW 5387  13.151  10.764  13.393
 1185SOL    HW1 5388  13.152  10.757  13.298
 1185SOL    HW2 5389  13.218  10.830  13.413
 1186SOL     OW 5390   4.131   8.393   8.925
 1186SOL    HW1 5391   4.157   8.441   9.003
 1186SOL    HW2 5392   4.148   8.302   8.945
 1187SOL     OW 5393   1.301   4.495  11.786
 1187SOL    HW1 5394   1.321   4.588  11.803
 1187SOL    HW2 5395   1.206   4.492  11.776
 1188SOL     OW 5396   6.073  12.343   2.593
 1188SOL    HW1 5397   5.986  12.318   2.625
 1188SOL    HW2 5398   6.087  12.431   2.628
 1189SOL     OW 5399  13.045   9.879   2.679
 1189SOL    HW1 5400  13.089   9.956   2.644
 1189SOL    HW2 5401  13.110   9.809   2.672
 1190SOL     OW 5402  10.645   9.892   2.435
 1190SOL    HW1 5403  10.613   9.895   2.525
 1190SOL    HW2 5404  10.599   9.963   2.391
 1191SOL     OW 5405   4.865  10.257  14.561
 1191SOL    HW1 5406   4.819  10.337  14.538
 1191SOL    HW2 5407   4.958  10.279  14.551
 1192SOL     OW 5408   9.779  13.109   9.190
 1192SOL    HW1 5409   9.813  13.083   9.275
 1192SOL    HW2 5410   9.857  13.125   9.136
 1193SOL     OW 5411   2.952   3.699  12.888
 1193SOL    HW1 5412   2.926   3.745  12.968
 1193SOL    HW2 5413   2.993   3.618  12.919
 1194SOL     OW 5414   1.329   5.024   0.198
 1194SOL    HW1 5415   1.326   4.935   0.232
 1194SOL    HW2 5416   1.264   5.026   0.128
 1195SOL     OW 5417  12.707   5.736  12.206
 1195SOL    HW1 5418  12.729   5.759  12.116
 1195SOL    HW2 5419  12.691   5.821  12.249
 1196SOL     OW 5420   6.991   6.557   8.700
 1196SOL    HW1 5421   6.983   6.461   8.701
 1196SOL    HW2 5422   7.061   6.576   8.763
 1197SOL     OW 5423   8.015   1.981   1.078
 1197SOL    HW1 5424   8.062   1.935   1.008
 1197SOL    HW2 5425   7.924   1.983   1.048
 1198SOL     OW 5426   4.008   5.468   9.858
 1198SOL    HW1 5427   3.935   5.414   9.829
 1198SOL    HW2 5428   4.050   5.416   9.927
 1199SOL     OW 5429   0.212  12.894  12.268
 1199SOL    HW1 5430   0.189  12.819  12.323
 1199SOL    HW2 5431   0.262  12.952  12.325
 1200SOL     OW 5432  13.748  11.960   6.258
 1200SOL    HW1 5433  13.796  11.942   6.177
 1200SOL    HW2 5434  13.813  12.002   6.315
 1201SOL     OW 5435   9.714   0.085   5.389
 1201SOL    HW1 5436   9.739   0.055   5.302
 1201SOL    HW2 5437   9.630   0.042   5.407
 1202SOL     OW 5438   0.117   2.342   1.255
 1202SOL    HW1 5439   0.083   2.368   1.340
 1202SOL    HW2 5440   0.116   2.246   1.257
 1203SOL     OW 5441  14.841  11.413   8.758
 1203SOL    HW1 5442  14.819  11.391   8.848
 1203SOL    HW2 5443   0.004  11.333   8.724
 1204SOL     OW 5444  14.077   7.364   0.081
 1204SOL    HW1 5445  14.152   7.350   0.138
 1204SOL    HW2 5446  14.111   7.355  14.871
 1205SOL     OW 5447  13.160  13.477   7.524
 1205SOL    HW1 5448  13.214  13.503   7.449
 1205SOL    HW2 5449  13.071  13.473   7.489
 1206SOL     OW 5450   7.478   2.271   5.408
 1206SOL    HW1 5451   7.449   2.334   5.474
 1206SOL    HW2 5452   7.432   2.298   5.328
 1207SOL     OW 5453   6.244  10.976   4.123
 1207SOL    HW1 5454   6.152  10.961   4.142
 1207SOL    HW2 5455   6.253  11.071   4.118
 1208SOL     OW 5456  13.169  10.913   7.622
 1208SOL    HW1 5457  13.197  10.870   7.703
 1208SOL    HW2 5458  13.251  10.939   7.581
 1209SOL     OW 5459   1.407  12.966  12.910
 1209SOL    HW1 5460   1.329  12.924  12.947
 1209SOL    HW2 5461   1.449  13.009  12.984
 1210SOL     OW 5462   7.455   7.748   8.893
 1210SOL    HW1 5463   7.425   7.839   8.884
 1210SOL    HW2 5464   7.491   7.726   8.807
 1211SOL     OW 5465   8.365   1.904   4.100
 1211SOL    HW1 5466   8.414   1.980   4.131
 1211SOL    HW2 5467   8.329   1.864   4.179
 1212SOL     OW 5468  10.701  13.117   0.807
 1212SOL    HW1 5469  10.767  13.186   0.801
 1212SOL    HW2 5470  10.703  13.089   0.898
 1213SOL     OW 5471   8.128   0.262   8.740
 1213SOL    HW1 5472   8.167   0.226   8.660
 1213SOL    HW2 5473   8.163   0.208   8.810
 1214SOL     OW 5474   1.568   9.875   4.026
 1214SOL    HW1 5475   1.532   9.910   4.107
 1214SOL    HW2 5476   1.536   9.933   3.957
 1215SOL     OW 5477   8.333   4.693   9.833
 1215SOL    HW1 5478   8.297   4.632   9.897
 1215SOL    HW2 5479   8.256   4.721   9.782
 1216SOL     OW 5480   4.220   2.445   1.404
 1216SOL    HW1 5481   4.189   2.535   1.389
 1216SOL    HW2 5482   4.249   2.444   1.495
 1217SOL     OW 5483   5.004   2.016   5.702
 1217SOL    HW1 5484   4.993   2.029   5.608
 1217SOL    HW2 5485   5.095   1.989   5.713
 1218SOL     OW 5486   8.111   4.149   9.062
 1218SOL    HW1 5487   8.178   4.092   9.100
 1218SOL    HW2 5488   8.154   4.192   8.988
 1219SOL     OW 5489   5.945   6.498   1.551
 1219SOL    HW1 5490   5.933   6.542   1.635
 1219SOL    HW2 5491   6.024   6.446   1.563
 1220SOL     OW 5492   2.828   9.498   3.754
 1220SOL    HW1 5493   2.885   9.538   3.819
 1220SOL    HW2 5494   2.747   9.480   3.801
 1221SOL     OW 5495   5.068   1.937   0.986
 1221SOL    HW1 5496   5.118   1.888   0.920
 1221SOL    HW2 5497   5.058   2.025   0.948
 1222SOL     OW 5498   7.666   9.755   5.475
 1222SOL    HW1 5499   7.639   9.727   5.562
 1222SOL    HW2 5500   7.588   9.741   5.420
 1223SOL     OW 5501  10.087  13.826   8.307
 1223SOL    HW1 5502  10.122  13.914   8.295
 1223SOL    HW2 5503  10.056  13.800   8.220
 1224SOL     OW 5504   1.535   3.401  10.130
 1224SOL    HW1 5505   1.503   3.401  10.220
 1224SOL    HW2 5506   1.625   3.432  10.136
 1225SOL     OW 5507   3.455   2.928  13.606
 1225SOL    HW1 5508   3.502   2.866  13.661
 1225SOL    HW2 5509   3.446   2.884  13.521
 1226SOL     OW 5510   6.821   6.709  14.822
 1226SOL    HW1 5511   6.786   6.620  14.811
 1226SOL    HW2 5512   6.911   6.703  14.791
 1227SOL     OW 5513  12.264   4.566   9.700
 1227SOL    HW1 5514  12.182   4.538   9.742
 1227SOL    HW2 5515  12.330   4.506   9.735
 1228SOL     OW 5516   9.389   6.243   2.254
 1228SOL    HW1 5517   9.428   6.236   2.340
 1228SOL    HW2 5518   9.303   6.202   2.263
 1229SOL     OW 5519  13.560   1.098  13.034
 1229SOL    HW1 5520  13.476   1.083  13.077
 1229SOL    HW2 5521  13.565   1.030  12.967
 1230SOL     OW 5522  12.688   7.183   5.146
 1230SOL    HW1 5523  12.606   7.138   5.164
 1230SOL    HW2 5524  12.677   7.270   5.183
 1231SOL     OW 5525  13.470   1.321   2.635
 1231SOL    HW1 5526  13.468   1.411   2.667
 1231SOL    HW2 5527  13.533   1.277   2.691
 1232SOL     OW 5528  12.331   6.288  10.007
 1232SOL    HW1 5529  12.399   6.222  10.019
 1232SOL    HW2 5530  12.322   6.297   9.912
 1233SOL     OW 5531   7.648  10.216  14.632
 1233SOL    HW1 5532   7.642  10.311  14.641
 1233SOL    HW2 5533   7.703  10.203  14.555
 1234SOL     OW 5534   9.749   6.670  14.225
 1234SOL    HW1 5535   9.818   6.628  14.174
 1234SOL    HW2 5536   9.787   6.753  14.253
 1235SOL     OW 5537   1.613   5.593   5.443
 1235SOL    HW1 5538   1.606   5.682   5.408
 1235SOL    HW2 5539   1.703   5.567   5.424
 1236SOL     OW 5540   3.556   1.255   5.418
 1236SOL    HW1 5541   3.505   1.214   5.487
 1236SOL    HW2 5542   3.647   1.241   5.444
 1237SOL     OW 5543   7.109   1.393  10.275
 1237SOL    HW1 5544   7.122   1.429  10.362
 1237SOL    HW2 5545   7.092   1.300  10.290
 1238SOL     OW 5546   0.004  11.451   2.318
 1238SOL    HW1 5547   0.063  11.464   2.244
 1238SOL    HW2 5548  14.868  11.356   2.321
 1239SOL     OW 5549  12.548   9.990   1.537
 1239SOL    HW1 5550  12.524   9.952   1.622
 1239SOL    HW2 5551  12.627  10.041   1.554
 1240SOL     OW 5552  14.011   7.784   3.823
 1240SOL    HW1 5553  13.973   7.749   3.742
 1240SOL    HW2 5554  13.982   7.724   3.891
 1241SOL     OW 5555   1.645  10.909   1.846
 1241SOL    HW1 5556   1.644  10.953   1.760
 1241SOL    HW2 5557   1.552  10.904   1.870
 1242SOL     OW 5558  14.001   6.549   1.029
 1242SOL    HW1 5559  13.994   6.474   1.089
 1242SOL    HW2 5560  13.984   6.512   0.942
 1243SOL     OW 5561   4.404   1.008   7.689
 1243SOL    HW1 5562   4.437   1.071   7.625
 1243SOL    HW2 5563   4.363   0.939   7.637
 1244SOL     OW 5564   2.215   1.941   8.201
 1244SOL    HW1 5565   2.179   2.022   8.238
 1244SOL    HW2 5566   2.153   1.873   8.226
 1245SOL     OW 5567  13.787   4.884  14.071
 1245SOL    HW1 5568  13.880   4.870  14.087
 1245SOL    HW2 5569  13.782   4.971  14.033
 1246SOL     OW 5570   9.988   7.630   5.793
 1246SOL    HW1 5571  10.011   7.602   5.882
 1246SOL    HW2 5572   9.902   7.593   5.777
 1247SOL     OW 5573   8.189   9.201   4.386
 1247SOL    HW1 5574   8.261   9.234   4.439
 1247SOL    HW2 5575   8.112   9.210   4.442
 1248SOL     OW 5576   1.600   6.654   3.251
 1248SOL    HW1 5577   1.590   6.745   3.278
 1248SOL    HW2 5578   1.694   6.638   3.254
 1249SOL     OW 5579   1.749   1.443   1.607
 1249SOL    HW1 5580   1.792   1.383   1.545
 1249SOL    HW2 5581   1.656   1.440   1.582
 1250SOL     OW 5582   3.218   8.174   3.924
 1250SOL    HW1 5583   3.252   8.236   3.860
 1250SOL    HW2 5584   3.276   8.098   3.916
 1251SOL     OW 5585   8.406   1.645   7.375
 1251SOL    HW1 5586   8.339   1.607   7.432
 1251SOL    HW2 5587   8.372   1.731   7.351
 1252SOL     OW 5588   2.749   1.303  11.713
 1252SOL    HW1 5589   2.836   1.306  11.672
 1252SOL    HW2 5590   2.766   1.319  11.805
 1253SOL     OW 5591   3.307  11.704   0.789
 1253SOL    HW1 5592   3.379  11.654   0.750
 1253SOL    HW2 5593   3.331  11.796   0.776
 1254SOL     OW 5594   8.916   7.900  10.749
 1254SOL    HW1 5595   8.870   7.983  10.758
 1254SOL    HW2 5596   8.997   7.922  10.703
 1255SOL     OW 5597   7.813   4.295   3.316
 1255SOL    HW1 5598   7.759   4.342   3.253
 1255SOL    HW2 5599   7.750   4.262   3.381
 1256SOL     OW 5600   6.935   5.310   2.484
 1256SOL    HW1 5601   6.922   5.272   2.570
 1256SOL    HW2 5602   6.854   5.360   2.468
 1257SOL     OW 5603  13.488  13.088   2.683
 1257SOL    HW1 5604  13.448  13.107   2.767
 1257SOL    HW2 5605  13.578  13.063   2.705
 1258SOL     OW 5606   2.316   5.670   5.952
 1258SOL    HW1 5607   2.241   5.719   5.987
 1258SOL    HW2 5608   2.308   5.583   5.991
 1259SOL     OW 5609  14.817   2.532   4.068
 1259SOL    HW1 5610  14.755   2.559   4.136
 1259SOL    HW2 5611   0.014   2.499   4.117
 1260SOL     OW 5612  10.297   0.384   8.408
 1260SOL    HW1 5613  10.321   0.397   8.317
 1260SOL    HW2 5614  10.377   0.353   8.450
 1261SOL     OW 5615   8.643   5.380   5.223
 1261SOL    HW1 5616   8.553   5.366   5.195
 1261SOL    HW2 5617   8.642   5.361   5.317
 1262SOL     OW 5618   3.717   2.454   8.613
 1262SOL    HW1 5619   3.810   2.458   8.634
 1262SOL    HW2 5620   3.673   2.451   8.697
 1263SOL     OW 5621   0.703  12.018   1.154
 1263SOL    HW1 5622   0.782  11.965   1.156
 1263SOL    HW2 5623   0.726  12.100   1.198
 1264SOL     OW 5624   4.157   6.984  12.625
 1264SOL    HW1 5625   4.110   7.048  12.571
 1264SOL    HW2 5626   4.204   7.037  12.689
 1265SOL     OW 5627   1.115   0.022  12.443
 1265SOL    HW1 5628   1.108   0.084  12.516
 1265SOL    HW2 5629   1.056   0.058  12.376
 1266SOL     OW 5630   5.073  12.656  10.501
 1266SOL    HW1 5631   4.995  12.633  10.451
 1266SOL    HW2 5632   5.093  12.578  10.552
 1267SOL     OW 5633   7.459  12.419   6.693
 1267SOL    HW1 5634   7.504  12.406   6.610
 1267SOL    HW2 5635   7.413  12.336   6.709
 1268SOL     OW 5636   4.963   9.254  11.535
 1268SOL    HW1 5637   4.868   9.240  11.537
 1268SOL    HW2 5638   4.976   9.323  11.470
 1269SOL     OW 5639  12.606   6.964   3.764
 1269SOL    HW1 5640  12.533   6.994   3.710
 1269SOL    HW2 5641  12.654   6.903   3.707
 1270SOL     OW 5642  12.027  13.850   4.575
 1270SOL    HW1 5643  11.970  13.779   4.547
 1270SOL    HW2 5644  12.113  13.828   4.540
 1271SOL     OW 5645   3.735  11.385   3.629
 1271SOL    HW1 5646   3.676  11.459   3.619
 1271SOL    HW2 5647   3.757  11.383   3.722
 1272SOL     OW 5648   0.649  12.227   2.034
 1272SOL    HW1 5649   0.568  12.242   1.986
 1272SOL    HW2 5650   0.670  12.312   2.073
 1273SOL     OW 5651   6.417   9.772  13.001
 1273SOL    HW1 5652   6.431   9.735  13.088
 1273SOL    HW2 5653   6.456   9.708  12.941
 1274SOL     OW 5654  12.024  13.510   3.117
 1274SOL    HW1 5655  11.965  13.472   3.182
 1274SOL    HW2 5656  12.107  13.464   3.130
 1275SOL     OW 5657   9.957  13.843  14.816
 1275SOL    HW1 5658   9.876  13.884  14.784
 1275SOL    HW2 5659  10.019  13.915  14.823
 1276SOL     OW 5660   6.624   0.872   2.973
 1276SOL    HW1 5661   6.570   0.809   3.020
 1276SOL    HW2 5662   6.562   0.917   2.915
 1277SOL     OW 5663   8.020   5.373   4.279
 1277SOL    HW1 5664   8.017   5.454   4.227
 1277SOL    HW2 5665   7.943   5.378   4.336
 1278SOL     OW 5666   7.649   5.516   6.213
 1278SOL    HW1 5667   7.597   5.446   6.253
 1278SOL    HW2 5668   7.629   5.594   6.264
 1279SOL     OW 5669   9.863   6.391   8.510
 1279SOL    HW1 5670   9.931   6.450   8.543
 1279SOL    HW2 5671   9.901   6.304   8.519
 1280SOL     OW 5672   0.818   5.248   0.072
 1280SOL    HW1 5673   0.813   5.168   0.019
 1280SOL    HW2 5674   0.875   5.306   0.023
 1281SOL     OW 5675   3.098   4.357   0.611
 1281SOL    HW1 5676   3.190   4.367   0.635
 1281SOL    HW2 5677   3.070   4.444   0.584
 1282SOL     OW 5678   0.343   0.872  10.815
 1282SOL    HW1 5679   0.339   0.830  10.901
 1282SOL    HW2 5680   0.358   0.965  10.834
 1283SOL     OW 5681   9.829   4.774   7.954
 1283SOL    HW1 5682   9.835   4.730   8.038
 1283SOL    HW2 5683   9.873   4.715   7.893
 1284SOL     OW 5684   4.285  10.285   0.132
 1284SOL    HW1 5685   4.344  10.344   0.178
 1284SOL    HW2 5686   4.205  10.336   0.120
 1285SOL     OW 5687   1.345   4.972  10.118
 1285SOL    HW1 5688   1.365   4.961  10.211
 1285SOL    HW2 5689   1.430   4.974  10.075
 1286SOL     OW 5690   3.580   6.118  11.686
 1286SOL    HW1 5691   3.669   6.088  11.671
 1286SOL    HW2 5692   3.585   6.166  11.769
 1287SOL     OW 5693   3.832   8.760   8.543
 1287SOL    HW1 5694   3.776   8.779   8.468
 1287SOL    HW2 5695   3.917   8.740   8.504
 1288SOL     OW 5696   3.163  10.703   4.534
 1288SOL    HW1 5697   3.221  10.628   4.542
 1288SOL    HW2 5698   3.166  10.726   4.441
 1289SOL     OW 5699   2.794   6.274   1.215
 1289SOL    HW1 5700   2.774   6.198   1.269
 1289SOL    HW2 5701   2.717   6.330   1.223
 1290SOL     OW 5702   1.508   8.975  14.666
 1290SOL    HW1 5703   1.480   8.918  14.737
 1290SOL    HW2 5704   1.486   9.063  14.696
 1291SOL     OW 5705   3.705   2.214   8.497
 1291SOL    HW1 5706   3.793   2.237   8.466
 1291SOL    HW2 5707   3.668   2.297   8.528
 1292SOL     OW 5708   3.578   3.358   0.092
 1292SOL    HW1 5709   3.596   3.450   0.070
 1292SOL    HW2 5710   3.665   3.317   0.097
 1293SOL     OW 5711   9.919   2.161  10.119
 1293SOL    HW1 5712   9.841   2.207  10.088
 1293SOL    HW2 5713   9.887   2.104  10.189
 1294SOL     OW 5714   3.495  11.923   0.394
 1294SOL    HW1 5715   3.563  11.877   0.442
 1294SOL    HW2 5716   3.439  11.853   0.360
 1295SOL     OW 5717  12.955   4.778   1.452
 1295SOL    HW1 5718  12.997   4.851   1.406
 1295SOL    HW2 5719  12.861   4.791   1.437
 1296SOL     OW 5720  14.757   7.489   8.481
 1296SOL    HW1 5721  14.838   7.502   8.432
 1296SOL    HW2 5722  14.708   7.570   8.471
 1297SOL     OW 5723   5.320   4.514   5.482
 1297SOL    HW1 5724   5.396   4.511   5.540
 1297SOL    HW2 5725   5.273   4.432   5.499
 1298SOL     OW 5726  14.418  12.019  13.746
 1298SOL    HW1 5727  14.424  12.098  13.800
 1298SOL    HW2 5728  14.369  12.048  13.669
 1299SOL     OW 5729  10.677  11.430   4.120
 1299SOL    HW1 5730  10.662  11.525   4.113
 1299SOL    HW2 5731  10.656  11.396   4.033
 1300SOL     OW 5732   2.338  14.441   1.637
 1300SOL    HW1 5733   2.391  14.506   1.684
 1300SOL    HW2 5734   2.362  14.357   1.676
 1301SOL     OW 5735   2.083  14.110  10.851
 1301SOL    HW1 5736   2.172  14.126  10.819
 1301SOL    HW2 5737   2.026  14.151  10.787
 1302SOL     OW 5738  14.624   8.191   4.087
 1302SOL    HW1 5739  14.665   8.108   4.113
 1302SOL    HW2 5740  14.660   8.255   4.149
 1303SOL     OW 5741   5.295   0.911   1.948
 1303SOL    HW1 5742   5.269   0.966   2.022
 1303SOL    HW2 5743   5.250   0.828   1.964
 1304SOL     OW 5744   1.543   3.444   3.800
 1304SOL    HW1 5745   1.487   3.485   3.734
 1304SOL    HW2 5746   1.494   3.368   3.830
 1305SOL     OW 5747  14.683   8.564   4.470
 1305SOL    HW1 5748  14.747   8.621   4.428
 1305SOL    HW2 5749  14.602   8.615   4.469
 1306SOL     OW 5750   8.868   8.167  13.514
 1306SOL    HW1 5751   8.884   8.234  13.448
 1306SOL    HW2 5752   8.952   8.122  13.523
 1307SOL     OW 5753   8.719   5.979   3.473
 1307SOL    HW1 5754   8.780   6.010   3.540
 1307SOL    HW2 5755   8.756   6.009   3.390
 1308SOL     OW 5756   0.047  13.209   7.813
 1308SOL    HW1 5757   0.112  13.194   7.744
 1308SOL    HW2 5758   0.063  13.140   7.877
 1309SOL     OW 5759   1.441   2.848  11.217
 1309SOL    HW1 5760   1.433   2.788  11.291
 1309SOL    HW2 5761   1.430   2.935  11.256
 1310SOL     OW 5762   6.144   5.858   7.344
 1310SOL    HW1 5763   6.187   5.813   7.417
 1310SOL    HW2 5764   6.182   5.946   7.343
 1311SOL     OW 5765   2.493  13.812  11.390
 1311SOL    HW1 5766   2.421  13.870  11.365
 1311SOL    HW2 5767   2.540  13.796  11.308
 1312SOL     OW 5768  12.065   7.004   8.378
 1312SOL    HW1 5769  12.050   6.931   8.317
 1312SOL    HW2 5770  12.149   6.982   8.420
 1313SOL     OW 5771   8.159  10.543   3.493
 1313SOL    HW1 5772   8.184  10.543   3.585
 1313SOL    HW2 5773   8.088  10.608   3.488
 1314SOL     OW 5774  11.292   7.977  10.454
 1314SOL    HW1 5775  11.341   7.948  10.532
 1314SOL    HW2 5776  11.219   7.915  10.447
 1315SOL     OW 5777  12.854   0.457   7.120
 1315SOL    HW1 5778  12.850   0.477   7.213
 1315SOL    HW2 5779  12.780   0.397   7.105
 1316SOL     OW 5780   6.784  12.973   6.695
 1316SOL    HW1 5781   6.812  13.062   6.714
 1316SOL    HW2 5782   6.808  12.923   6.773
 1317SOL     OW 5783   0.195   2.109   6.080
 1317SOL    HW1 5784   0.202   2.101   6.175
 1317SOL    HW2 5785   0.286   2.113   6.049
 1318SOL     OW 5786   4.162   7.339   1.488
 1318SOL    HW1 5787   4.132   7.396   1.416
 1318SOL    HW2 5788   4.229   7.283   1.448
 1319SOL     OW 5789   7.470   3.222   9.120
 1319SOL    HW1 5790   7.488   3.212   9.027
 1319SOL    HW2 5791   7.473   3.317   9.135
 1320SOL     OW 5792   4.639   6.194   7.586
 1320SOL    HW1 5793   4.694   6.252   7.532
 1320SOL    HW2 5794   4.622   6.118   7.531
 1321SOL     OW 5795  12.175  12.564  13.232
 1321SOL    HW1 5796  12.268  12.563  13.209
 1321SOL    HW2 5797  12.172  12.535  13.323
 1322SOL     OW 5798  14.478   1.025   9.244
 1322SOL    HW1 5799  14.554   1.082   9.244
 1322SOL    HW2 5800  14.423   1.058   9.173
 1323SOL     OW 5801   6.468   5.396   4.718
 1323SOL    HW1 5802   6.472   5.384   4.623
 1323SOL    HW2 5803   6.516   5.322   4.754
 1324SOL     OW 5804   0.869   5.056  12.962
 1324SOL    HW1 5805   0.786   5.081  13.003
 1324SOL    HW2 5806   0.901   5.136  12.921
 1325SOL     OW 5807   4.440  14.304   7.864
 1325SOL    HW1 5808   4.520  14.290   7.915
 1325SOL    HW2 5809   4.373  14.251   7.908
 1326SOL     OW 5810  11.466   0.975   0.301
 1326SOL    HW1 5811  11.443   0.917   0.229
 1326SOL    HW2 5812  11.443   1.062   0.270
 1327SOL     OW 5813  14.761  13.026   8.718
 1327SOL    HW1 5814  14.681  13.077   8.729
 1327SOL    HW2 5815  14.742  12.964   8.648
 1328SOL     OW 5816  11.964   7.408   2.089
 1328SOL    HW1 5817  11.935   7.429   2.178
 1328SOL    HW2 5818  11.946   7.487   2.039
 1329SOL     OW 5819  14.781  13.226  10.233
 1329SOL    HW1 5820  14.765  13.318  10.253
 1329SOL    HW2 5821  14.876  13.220  10.221
 1330SOL     OW 5822   8.224   2.571   9.143
 1330SOL    HW1 5823   8.223   2.654   9.191
 1330SOL    HW2 5824   8.180   2.590   9.060
 1331SOL     OW 5825  14.667  14.353   6.254
 1331SOL    HW1 5826  14.587  14.388   6.293
 1331SOL    HW2 5827  14.680  14.268   6.296
 1332SOL     OW 5828   8.681   6.392  12.538
 1332SOL    HW1 5829   8.712   6.440  12.614
 1332SOL    HW2 5830   8.639   6.459  12.483
 1333SOL     OW 5831   0.044  10.172   3.753
 1333SOL    HW1 5832   0.088  10.106   3.700
 1333SOL    HW2 5833  14.831  10.166   3.726
 1334SOL     OW 5834   0.550  14.159   1.977
 1334SOL    HW1 5835   0.624  14.168   2.036
 1334SOL    HW2 5836   0.508  14.245   1.978
 1335SOL     OW 5837   2.562   1.434   0.983
 1335SOL    HW1 5838   2.501   1.372   1.024
 1335SOL    HW2 5839   2.506   1.489   0.928
 1336SOL     OW 5840  11.024   0.742   6.642
 1336SOL    HW1 5841  11.075   0.680   6.694
 1336SOL    HW2 5842  11.059   0.828   6.668
 1337SOL     OW 5843  11.269   2.784   0.438
 1337SOL    HW1 5844  11.234   2.700   0.468
 1337SOL    HW2 5845  11.193   2.840   0.428
 1338SOL     OW 5846   1.300   8.313   0.858
 1338SOL    HW1 5847   1.348   8.288   0.779
 1338SOL    HW2 5848   1.340   8.261   0.927
 1339SOL     OW 5849  14.081  10.322   8.674
 1339SOL    HW1 5850  14.040  10.406   8.653
 1339SOL    HW2 5851  14.070  10.270   8.594
 1340SOL     OW 5852  13.966   1.198   6.129
 1340SOL    HW1 5853  14.032   1.171   6.065
 1340SOL    HW2 5854  13.987   1.149   6.208
 1341SOL     OW 5855   1.424   9.770   0.624
 1341SOL    HW1 5856   1.349   9.715   0.647
 1341SOL    HW2 5857   1.429   9.764   0.529
 1342SOL     OW 5858   4.293  13.646  10.664
 1342SOL    HW1 5859   4.360  13.588  10.702
 1342SOL    HW2 5860   4.230  13.659  10.735
 1343SOL     OW 5861   5.957   2.267  12.665
 1343SOL    HW1 5862   5.957   2.245  12.758
 1343SOL    HW2 5863   5.905   2.347  12.658
 1344SOL     OW 5864  10.264   1.690  11.856
 1344SOL    HW1 5865  10.235   1.781  11.851
 1344SOL    HW2 5866  10.307   1.683  11.941
 1345SOL     OW 5867   8.574  14.493  11.411
 1345SOL    HW1 5868   8.559  14.564  11.473
 1345SOL    HW2 5869   8.532  14.416  11.451
 1346SOL     OW 5870   1.451   9.937   4.267
 1346SOL    HW1 5871   1.435   9.846   4.290
 1346SOL    HW2 5872   1.477   9.979   4.349
 1347SOL     OW 5873  13.964   9.851   8.552
 1347SOL    HW1 5874  13.903   9.812   8.489
 1347SOL    HW2 5875  14.042   9.872   8.500
 1348SOL     OW 5876  12.742   5.241   6.806
 1348SOL    HW1 5877  12.680   5.183   6.763
 1348SOL    HW2 5878  12.818   5.245   6.748
 1349SOL     OW 5879  11.831   3.662  13.090
 1349SOL    HW1 5880  11.891   3.589  13.072
 1349SOL    HW2 5881  11.882   3.740  13.070
 1350SOL     OW 5882  13.637  10.895   8.822
 1350SOL    HW1 5883  13.584  10.946   8.884
 1350SOL    HW2 5884  13.577  10.828   8.789
 1351SOL     OW 5885   2.190   4.808  12.485
 1351SOL    HW1 5886   2.149   4.889  12.455
 1351SOL    HW2 5887   2.275   4.836  12.520
 1352SOL     OW 5888  12.990  11.291  11.160
 1352SOL    HW1 5889  12.964  11.345  11.086
 1352SOL    HW2 5890  13.083  11.310  11.172
 1353SOL     OW 5891  12.389   3.817   9.556
 1353SOL    HW1 5892  12.334   3.844   9.482
 1353SOL    HW2 5893  12.430   3.736   9.527
 1354SOL     OW 5894   1.433   9.172  10.798
 1354SOL    HW1 5895   1.494   9.105  10.766
 1354SOL    HW2 5896   1.382   9.196  10.720
 1355SOL     OW 5897   7.424   4.312   8.863
 1355SOL    HW1 5898   7.331   4.331   8.874
 1355SOL    HW2 5899   7.469   4.382   8.910
 1356SOL     OW 5900   7.425   4.970   5.898
 1356SOL    HW1 5901   7.496   4.981   5.961
 1356SOL    HW2 5902   7.431   4.878   5.871
 1357SOL     OW 5903   0.065   4.058   8.943
 1357SOL    HW1 5904   0.017   4.035   9.023
 1357SOL    HW2 5905   0.155   4.073   8.973
 1358SOL     OW 5906   4.831   9.358  13.546
 1358SOL    HW1 5907   4.766   9.307  13.498
 1358SOL    HW2 5908   4.910   9.354  13.492
 1359SOL     OW 5909  13.834  11.308  13.420
 1359SOL    HW1 5910  13.911  11.251  13.421
 1359SOL    HW2 5911  13.782  11.279  13.495
 1360SOL     OW 5912  10.845   8.258   1.266
 1360SOL    HW1 5913  10.835   8.312   1.188
 1360SOL    HW2 5914  10.757   8.255   1.305
 1361SOL     OW 5915  13.617   5.440   5.199
 1361SOL    HW1 5916  13.662   5.378   5.256
 1361SOL    HW2 5917  13.525   5.433   5.223
 1362SOL     OW 5918  14.681   5.482  13.333
 1362SOL    HW1 5919  14.743   5.488  13.261
 1362SOL    HW2 5920  14.704   5.556  13.390
 1363SOL     OW 5921  14.545   9.547   0.694
 1363SOL    HW1 5922  14.550   9.549   0.790
 1363SOL    HW2 5923  14.623   9.500   0.667
 1364SOL     OW 5924   2.578  14.725   2.045
 1364SOL    HW1 5925   2.582  14.805   2.098
 1364SOL    HW2 5926   2.600  14.654   2.106
 1365SOL     OW 5927  11.549   5.353  12.462
 1365SOL    HW1 5928  11.456   5.372  12.449
 1365SOL    HW2 5929  11.580   5.327  12.375
 1366SOL     OW 5930   3.466   5.743  12.322
 1366SOL    HW1 5931   3.457   5.797  12.401
 1366SOL    HW2 5932   3.478   5.654  12.355
 1367SOL     OW 5933   4.511   3.111  12.876
 1367SOL    HW1 5934   4.487   3.116  12.968
 1367SOL    HW2 5935   4.433   3.143  12.829
 1368SOL     OW 5936  14.507   4.037   3.179
 1368SOL    HW1 5937  14.419   4.073   3.169
 1368SOL    HW2 5938  14.555   4.068   3.102
 1369SOL     OW 5939  13.362   9.693   7.338
 1369SOL    HW1 5940  13.305   9.656   7.406
 1369SOL    HW2 5941  13.450   9.693   7.378
 1370SOL     OW 5942   2.833   1.777  11.999
 1370SOL    HW1 5943   2.742   1.804  11.992
 1370SOL    HW2 5944   2.864   1.771  11.909
 1371SOL     OW 5945  14.417   6.373  10.368
 1371SOL    HW1 5946  14.370   6.318  10.431
 1371SOL    HW2 5947  14.355   6.444  10.348
 1372SOL     OW 5948   7.957   9.339   4.752
 1372SOL    HW1 5949   7.882   9.348   4.810
 1372SOL    HW2 5950   8.001   9.259   4.780
 1373SOL     OW 5951   7.992   1.246   3.661
 1373SOL    HW1 5952   8.005   1.197   3.742
 1373SOL    HW2 5953   7.994   1.179   3.592
 1374SOL     OW 5954   6.528   1.820  11.653
 1374SOL    HW1 5955   6.596   1.814  11.720
 1374SOL    HW2 5956   6.460   1.759  11.682
 1375SOL     OW 5957  12.582   0.115   0.945
 1375SOL    HW1 5958  12.636   0.176   0.895
 1375SOL    HW2 5959  12.598   0.138   1.036
 1376SOL     OW 5960   8.406   9.049   2.160
 1376SOL    HW1 5961   8.467   9.080   2.226
 1376SOL    HW2 5962   8.405   9.119   2.094
 1377SOL     OW 5963   3.970   1.695   4.495
 1377SOL    HW1 5964   4.028   1.722   4.424
 1377SOL    HW2 5965   4.003   1.608   4.521
 1378SOL     OW 5966   4.070   6.601  13.647
 1378SOL    HW1 5967   4.154   6.627  13.608
 1378SOL    HW2 5968   4.095   6.551  13.725
 1379SOL     OW 5969  14.402  12.306   2.969
 1379SOL    HW1 5970  14.444  12.345   3.045
 1379SOL    HW2 5971  14.422  12.367   2.897
 1380SOL     OW 5972   4.657  13.528   9.101
 1380SOL    HW1 5973   4.563  13.547   9.100
 1380SOL    HW2 5974   4.696  13.594   9.044
 1381SOL     OW 5975   8.510   4.634  14.636
 1381SOL    HW1 5976   8.480   4.548  14.666
 1381SOL    HW2 5977   8.589   4.651  14.688
 1382SOL     OW 5978   5.010   3.562   8.910
 1382SOL    HW1 5979   5.058   3.579   8.829
 1382SOL    HW2 5980   5.066   3.503   8.960
 1383SOL     OW 5981   1.525   5.870   5.703
 1383SOL    HW1 5982   1.451   5.850   5.646
 1383SOL    HW2 5983   1.520   5.965   5.716
 1384SOL     OW 5984   9.646   3.720   5.664
 1384SOL    HW1 5985   9.607   3.681   5.742
 1384SOL    HW2 5986   9.702   3.651   5.628
 1385SOL     OW 5987   9.583   2.969   4.035
 1385SOL    HW1 5988   9.604   2.903   3.969
 1385SOL    HW2 5989   9.507   3.016   3.999
 1386SOL     OW 5990   0.407  13.021  12.895
 1386SOL    HW1 5991   0.497  13.053  12.900
 1386SOL    HW2 5992   0.358  13.093  12.855
 1387SOL     OW 5993   9.077  13.657   6.848
 1387SOL    HW1 5994   9.077  13.646   6.943
 1387SOL    HW2 5995   9.073  13.568   6.814
 1388SOL     OW 5996   0.976   4.160   4.369
 1388SOL    HW1 5997   1.014   4.165   4.281
 1388SOL    HW2 5998   0.919   4.084   4.366
 1389SOL     OW 5999  13.634   0.108  10.184
 1389SOL    HW1 6000  13.694   0.148  10.121
 1389SOL    HW2 6001  13.549   0.108  10.140
 1390SOL     OW 6002   3.369   6.301  12.455
 1390SOL    HW1 6003   3.448   6.253  12.483
 1390SOL    HW2 6004   3.402   6.384  12.422
 1391SOL     OW 6005   1.520   7.813   3.232
 1391SOL    HW1 6006   1.591   7.752   3.253
 1391SOL    HW2 6007   1.565   7.893   3.204
 1392SOL     OW 6008  11.081   7.011   3.482
 1392SOL    HW1 6009  11.113   6.952   3.414
 1392SOL    HW2 6010  10.990   7.029   3.458
 1393SOL     OW 6011  12.060  11.754   3.957
 1393SOL    HW1 6012  12.084  11.704   4.036
 1393SOL    HW2 6013  12.121  11.828   3.956
 1394SOL     OW 6014   9.548  14.514  12.979
 1394SOL    HW1 6015   9.613  14.571  12.939
 1394SOL    HW2 6016   9.479  14.573  13.010
 1395SOL     OW 6017  13.913   5.763  14.696
 1395SOL    HW1 6018  13.996   5.808  14.680
 1395SOL    HW2 6019  13.931   5.704  14.769
 1396SOL     OW 6020   5.690   8.646  10.583
 1396SOL    HW1 6021   5.732   8.727  10.613
 1396SOL    HW2 6022   5.678   8.594  10.663
 1397SOL     OW 6023   5.793  10.440   3.533
 1397SOL    HW1 6024   5.705  10.417   3.564
 1397SOL    HW2 6025   5.851  10.381   3.580
 1398SOL     OW 6026   7.650  11.651   1.148
 1398SOL    HW1 6027   7.598  11.682   1.074
 1398SOL    HW2 6028   7.732  11.620   1.109
 1399SOL     OW 6029   2.334  13.417   0.992
 1399SOL    HW1 6030   2.294  13.351   1.049
 1399SOL    HW2 6031   2.312  13.390   0.903
 1400SOL     OW 6032   5.269   5.086   7.700
 1400SOL    HW1 6033   5.289   5.093   7.793
 1400SOL    HW2 6034   5.182   5.125   7.691
 1401SOL     OW 6035  14.381  11.617   2.800
 1401SOL    HW1 6036  14.449  11.571   2.751
 1401SOL    HW2 6037  14.421  11.700   2.825
 1402SOL     OW 6038  10.805   0.911   4.574
 1402SOL    HW1 6039  10.782   0.908   4.481
 1402SOL    HW2 6040  10.750   0.980   4.611
 1403SOL     OW 6041   9.965  12.656   6.000
 1403SOL    HW1 6042   9.906  12.665   5.925
 1403SOL    HW2 6043  10.026  12.586   5.975
 1404SOL     OW 6044   3.929   3.584   6.559
 1404SOL    HW1 6045   3.963   3.500   6.588
 1404SOL    HW2 6046   3.957   3.646   6.627
 1405SOL     OW 6047  10.992   7.924  12.673
 1405SOL    HW1 6048  11.007   7.842  12.626
 1405SOL    HW2 6049  10.948   7.981  12.609
 1406SOL     OW 6050   0.884   7.976  12.166
 1406SOL    HW1 6051   0.899   7.953  12.075
 1406SOL    HW2 6052   0.805   8.030  12.165
 1407SOL     OW 6053   3.788  12.309   2.473
 1407SOL    HW1 6054   3.857  12.290   2.409
 1407SOL    HW2 6055   3.709  12.275   2.432
 1408SOL     OW 6056   2.082  14.165   2.424
 1408SOL    HW1 6057   2.024  14.229   2.465
 1408SOL    HW2 6058   2.086  14.093   2.487
 1409SOL     OW 6059  14.281   6.021  10.262
 1409SOL    HW1 6060  14.280   5.927  10.243
 1409SOL    HW2 6061  14.362   6.034  10.312
 1410SOL     OW 6062   2.469   3.961  12.069
 1410SOL    HW1 6063   2.463   3.986  11.977
 1410SOL    HW2 6064   2.522   3.881  12.069
 1411SOL     OW 6065   3.766   9.762   4.014
 1411SOL    HW1 6066   3.861   9.755   4.020
 1411SOL    HW2 6067   3.750   9.854   3.994
 1412SOL     OW 6068   2.443   1.778  11.690
 1412SOL    HW1 6069   2.367   1.811  11.736
 1412SOL    HW2 6070   2.415   1.769  11.599
 1413SOL     OW 6071   1.410  14.668   1.139
 1413SOL    HW1 6072   1.459  14.678   1.058
 1413SOL    HW2 6073   1.369  14.753   1.153
 1414SOL     OW 6074   1.127   5.553  13.470
 1414SOL    HW1 6075   1.136   5.459  13.486
 1414SOL    HW2 6076   1.100   5.589  13.555
 1415SOL     OW 6077   3.583  10.479   9.491
 1415SOL    HW1 6078   3.664  10.501   9.536
 1415SOL    HW2 6079   3.552  10.562   9.454
 1416SOL     OW 6080   5.409   5.329  12.775
 1416SOL    HW1 6081   5.441   5.378  12.699
 1416SOL    HW2 6082   5.314   5.332  12.767
 1417SOL     OW 6083  11.089   7.977   7.981
 1417SOL    HW1 6084  11.111   8.037   8.053
 1417SOL    HW2 6085  11.142   8.008   7.908
 1418SOL     OW 6086  14.774   3.267  12.629
 1418SOL    HW1 6087  14.756   3.245  12.721
 1418SOL    HW2 6088  14.723   3.203  12.579
 1419SOL     OW 6089  12.643   2.748   2.617
 1419SOL    HW1 6090  12.720   2.796   2.650
 1419SOL    HW2 6091  12.616   2.797   2.540
 1420SOL     OW 6092  12.130   1.278   6.328
 1420SOL    HW1 6093  12.041   1.262   6.295
 1420SOL    HW2 6094  12.173   1.193   6.324
 1421SOL     OW 6095   0.155   2.649  13.103
 1421SOL    HW1 6096   0.083   2.671  13.044
 1421SOL    HW2 6097   0.230   2.697  13.069
 1422SOL     OW 6098   9.183  13.090   6.302
 1422SOL    HW1 6099   9.191  13.160   6.367
 1422SOL    HW2 6100   9.166  13.136   6.220
 1423SOL     OW 6101   2.807   9.771  11.434
 1423SOL    HW1 6102   2.738   9.704  11.434
 1423SOL    HW2 6103   2.785   9.828  11.507
 1424SOL     OW 6104  13.167   5.519   3.414
 1424SOL    HW1 6105  13.235   5.583   3.394
 1424SOL    HW2 6106  13.093   5.572   3.444
 1425SOL     OW 6107   5.120  13.644   1.458
 1425SOL    HW1 6108   5.134  13.704   1.531
 1425SOL    HW2 6109   5.117  13.557   1.498
 1426SOL     OW 6110   7.222  12.932   9.714
 1426SOL    HW1 6111   7.290  12.890   9.661
 1426SOL    HW2 6112   7.230  13.025   9.693
 1427SOL     OW 6113  13.579   9.575   1.043
 1427SOL    HW1 6114  13.663   9.567   1.089
 1427SOL    HW2 6115  13.600   9.557   0.952
 1428SOL     OW 6116   9.865   2.489  10.516
 1428SOL    HW1 6117   9.913   2.484  10.433
 1428SOL    HW2 6118   9.787   2.436  10.502
 1429SOL     OW 6119  14.877  11.918   0.119
 1429SOL    HW1 6120  14.832  11.837   0.143
 1429SOL    HW2 6121  14.863  11.926   0.025
 1430SOL     OW 6122  11.324  11.539   0.273
 1430SOL    HW1 6123  11.365  11.497   0.198
 1430SOL    HW2 6124  11.301  11.627   0.242
 1431SOL     OW 6125  10.000  11.117  14.743
 1431SOL    HW1 6126  10.013  11.025  14.766
 1431SOL    HW2 6127   9.907  11.133  14.754
 1432SOL     OW 6128   3.487   8.732   8.145
 1432SOL    HW1 6129   3.539   8.663   8.103
 1432SOL    HW2 6130   3.443   8.688   8.217
 1433SOL     OW 6131   4.163  10.644  10.617
 1433SOL    HW1 6132   4.132  10.668  10.530
 1433SOL    HW2 6133   4.254  10.619  10.604
 1434SOL     OW 6134   3.324  13.627   8.472
 1434SOL    HW1 6135   3.286  13.707   8.508
 1434SOL    HW2 6136   3.413  13.653   8.446
 1435SOL     OW 6137  13.765   5.650  11.097
 1435SOL    HW1 6138  13.774   5.635  11.003
 1435SOL    HW2 6139  13.853   5.673  11.127
 1436SOL     OW 6140   8.710   1.366   4.771
 1436SOL    HW1 6141   8.674   1.298   4.828
 1436SOL    HW2 6142   8.691   1.336   4.682
 1437SOL     OW 6143  10.062   3.616   8.475
 1437SOL    HW1 6144  10.088   3.671   8.549
 1437SOL    HW2 6145  10.077   3.670   8.398
 1438SOL     OW 6146   6.382  12.564   7.493
 1438SOL    HW1 6147   6.330  12.639   7.464
 1438SOL    HW2 6148   6.451  12.554   7.427
 1439SOL     OW 6149  12.906   2.258   0.632
 1439SOL    HW1 6150  12.947   2.173   0.647
 1439SOL    HW2 6151  12.961   2.320   0.678
 1440SOL     OW 6152  11.513  10.506   2.668
 1440SOL    HW1 6153  11.530  10.504   2.574
 1440SOL    HW2 6154  11.483  10.595   2.685
 1441SOL     OW 6155   9.768  10.481  13.126
 1441SOL    HW1 6156   9.787  10.431  13.046
 1441SOL    HW2 6157   9.816  10.435  13.195
 1442SOL     OW 6158   3.046   3.022   1.665
 1442SOL    HW1 6159   3.098   2.949   1.698
 1442SOL    HW2 6160   2.993   3.050   1.740
 1443SOL     OW 6161  12.700   8.761  14.777
 1443SOL    HW1 6162  12.723   8.799  14.862
 1443SOL    HW2 6163  12.621   8.709  14.795
 1444SOL     OW 6164   6.495   0.003   0.771
 1444SOL    HW1 6165   6.532   0.050   0.696
 1444SOL    HW2 6166   6.492   0.068   0.841
 1445SOL     OW 6167   8.708   3.752   0.778
 1445SOL    HW1 6168   8.762   3.829   0.795
 1445SOL    HW2 6169   8.692   3.754   0.684
 1446SOL     OW 6170   4.267  11.205   9.561
 1446SOL    HW1 6171   4.271  11.300   9.548
 1446SOL    HW2 6172   4.356  11.181   9.586
 1447SOL     OW 6173   9.230  10.405  11.618
 1447SOL    HW1 6174   9.275  10.483  11.651
 1447SOL    HW2 6175   9.138  10.429  11.619
 1448SOL     OW 6176   3.516   2.102   0.986
 1448SOL    HW1 6177   3.555   2.049   0.917
 1448SOL    HW2 6178   3.426   2.070   0.993
 1449SOL     OW 6179   1.513   9.154   5.098
 1449SOL    HW1 6180   1.607   9.154   5.120
 1449SOL    HW2 6181   1.503   9.087   5.031
 1450SOL     OW 6182   5.069  10.208  12.114
 1450SOL    HW1 6183   5.038  10.299  12.113
 1450SOL    HW2 6184   5.058  10.178  12.024
 1451SOL     OW 6185   2.840  11.457   0.438
 1451SOL    HW1 6186   2.798  11.415   0.513
 1451SOL    HW2 6187   2.804  11.412   0.362
 1452SOL     OW 6188   5.751   0.770   8.056
 1452SOL    HW1 6189   5.667   0.793   8.017
 1452SOL    HW2 6190   5.765   0.679   8.031
 1453SOL     OW 6191  11.416   0.749   2.075
 1453SOL    HW1 6192  11.510   0.743   2.057
 1453SOL    HW2 6193  11.375   0.696   2.006
 1454SOL     OW 6194   3.192   4.115   6.837
 1454SOL    HW1 6195   3.135   4.041   6.857
 1454SOL    HW2 6196   3.264   4.078   6.787
 1455SOL     OW 6197   5.797   8.213  11.613
 1455SOL    HW1 6198   5.716   8.254  11.643
 1455SOL    HW2 6199   5.814   8.144  11.678
 1456SOL     OW 6200   3.713   3.986   2.555
 1456SOL    HW1 6201   3.688   4.078   2.545
 1456SOL    HW2 6202   3.667   3.940   2.485
 1457SOL     OW 6203   2.093   5.211   5.631
 1457SOL    HW1 6204   2.076   5.118   5.642
 1457SOL    HW2 6205   2.126   5.240   5.716
 1458SOL     OW 6206  10.995  13.123   6.120
 1458SOL    HW1 6207  10.973  13.215   6.130
 1458SOL    HW2 6208  10.972  13.083   6.204
 1459SOL     OW 6209  11.277   5.120   9.867
 1459SOL    HW1 6210  11.335   5.149   9.936
 1459SOL    HW2 6211  11.218   5.057   9.909
 1460SOL     OW 6212   6.611  12.387   5.134
 1460SOL    HW1 6213   6.532  12.362   5.087
 1460SOL    HW2 6214   6.633  12.312   5.189
 1461SOL     OW 6215   0.104  12.141   5.431
 1461SOL    HW1 6216   0.108  12.119   5.338
 1461SOL    HW2 6217   0.174  12.205   5.444
 1462SOL     OW 6218   2.813   9.149  12.508
 1462SOL    HW1 6219   2.835   9.240  12.487
 1462SOL    HW2 6220   2.896   9.102  12.504
 1463SOL     OW 6221   3.673   8.712   6.782
 1463SOL    HW1 6222   3.759   8.734   6.816
 1463SOL    HW2 6223   3.613   8.731   6.855
 1464SOL     OW 6224   3.158  11.670   3.832
 1464SOL    HW1 6225   3.116  11.622   3.904
 1464SOL    HW2 6226   3.125  11.759   3.840
 1465SOL     OW 6227   8.967   6.120   8.305
 1465SOL    HW1 6228   8.979   6.025   8.303
 1465SOL    HW2 6229   9.056   6.155   8.311
 1466SOL     OW 6230   7.329   4.390  11.571
 1466SOL    HW1 6231   7.399   4.325  11.578
 1466SOL    HW2 6232   7.311   4.396  11.477
 1467SOL     OW 6233   9.294   0.004   3.225
 1467SOL    HW1 6234   9.205   0.039   3.219
 1467SOL    HW2 6235   9.332   0.046   3.302
 1468SOL     OW 6236   5.311  14.607  13.025
 1468SOL    HW1 6237   5.365  14.553  13.082
 1468SOL    HW2 6238   5.310  14.561  12.941
 1469SOL     OW 6239   0.584  11.842   2.970
 1469SOL    HW1 6240   0.625  11.874   2.890
 1469SOL    HW2 6241   0.491  11.833   2.949
 1470SOL     OW 6242  11.878  13.300   5.279
 1470SOL    HW1 6243  11.838  13.356   5.213
 1470SOL    HW2 6244  11.818  13.303   5.353
 1471SOL     OW 6245   8.947   7.220   9.398
 1471SOL    HW1 6246   8.919   7.184   9.482
 1471SOL    HW2 6247   8.945   7.146   9.337
 1472SOL     OW 6248   1.745   4.432  13.525
 1472SOL    HW1 6249   1.711   4.460  13.610
 1472SOL    HW2 6250   1.669   4.393  13.482
 1473SOL     OW 6251   1.307   7.862  10.673
 1473SOL    HW1 6252   1.275   7.933  10.618
 1473SOL    HW2 6253   1.393   7.840  10.637
 1474SOL     OW 6254  13.650   2.384   9.189
 1474SOL    HW1 6255  13.627   2.476   9.179
 1474SOL    HW2 6256  13.625   2.362   9.279
 1475SOL     OW 6257   8.914   9.586  11.746
 1475SOL    HW1 6258   8.957   9.500  11.748
 1475SOL    HW2 6259   8.832   9.571  11.701
 1476SOL     OW 6260   6.220   0.093   1.609
 1476SOL    HW1 6261   6.307   0.095   1.650
 1476SOL    HW2 6262   6.228   0.027   1.541
 1477SOL     OW 6263   3.136   8.055   1.732
 1477SOL    HW1 6264   3.163   8.116   1.663
 1477SOL    HW2 6265   3.046   8.032   1.710
 1478SOL     OW 6266   3.290   7.187   7.917
 1478SOL    HW1 6267   3.248   7.262   7.875
 1478SOL    HW2 6268   3.378   7.184   7.880
 1479SOL     OW 6269   7.068  10.106   4.618
 1479SOL    HW1 6270   6.990  10.051   4.614
 1479SOL    HW2 6271   7.105  10.101   4.529
 1480SOL     OW 6272   4.322   4.472   7.011
 1480SOL    HW1 6273   4.407   4.497   7.046
 1480SOL    HW2 6274   4.328   4.491   6.917
 1481SOL     OW 6275   9.625   7.658   1.811
 1481SOL    HW1 6276   9.533   7.675   1.830
 1481SOL    HW2 6277   9.661   7.743   1.788
 1482SOL     OW 6278  12.584  12.836   1.960
 1482SOL    HW1 6279  12.614  12.746   1.948
 1482SOL    HW2 6280  12.557  12.864   1.873
 1483SOL     OW 6281   0.488   5.383   2.085
 1483SOL    HW1 6282   0.393   5.391   2.077
 1483SOL    HW2 6283   0.521   5.409   2.000
 1484SOL     OW 6284   2.964   3.981  14.686
 1484SOL    HW1 6285   3.011   3.933  14.755
 1484SOL    HW2 6286   2.873   3.957  14.699
 1485SOL     OW 6287  14.419  12.350   1.969
 1485SOL    HW1 6288  14.512  12.327   1.970
 1485SOL    HW2 6289  14.403  12.386   1.882
 1486SOL     OW 6290   6.223   1.628  11.021
 1486SOL    HW1 6291   6.135   1.641  10.984
 1486SOL    HW2 6292   6.213   1.556  11.083
 1487SOL     OW 6293   5.831  12.121   3.810
 1487SOL    HW1 6294   5.781  12.188   3.856
 1487SOL    HW2 6295   5.859  12.061   3.879
 1488SOL     OW 6296   4.666   0.652   4.953
 1488SOL    HW1 6297   4.729   0.609   5.011
 1488SOL    HW2 6298   4.675   0.745   4.973
 1489SOL     OW 6299   3.990  10.039   7.641
 1489SOL    HW1 6300   4.071   9.991   7.623
 1489SOL    HW2 6301   3.920   9.981   7.613
 1490SOL     OW 6302   0.527   4.992   1.846
 1490SOL    HW1 6303   0.459   5.055   1.821
 1490SOL    HW2 6304   0.495   4.955   1.928
 1491SOL     OW 6305   7.977  12.093   2.002
 1491SOL    HW1 6306   7.974  12.147   1.923
 1491SOL    HW2 6307   8.008  12.008   1.971
 1492SOL     OW 6308   5.270   6.182   8.608
 1492SOL    HW1 6309   5.354   6.209   8.646
 1492SOL    HW2 6310   5.249   6.100   8.654
 1493SOL     OW 6311   2.148   3.815   3.008
 1493SOL    HW1 6312   2.147   3.844   2.917
 1493SOL    HW2 6313   2.241   3.813   3.032
 1494SOL     OW 6314   6.649   0.736   1.942
 1494SOL    HW1 6315   6.580   0.764   2.003
 1494SOL    HW2 6316   6.652   0.804   1.876
 1495SOL     OW 6317   0.405   3.653  11.300
 1495SOL    HW1 6318   0.321   3.679  11.262
 1495SOL    HW2 6319   0.471   3.688  11.239
 1496SOL     OW 6320   8.270   0.841   0.836
 1496SOL    HW1 6321   8.262   0.922   0.785
 1496SOL    HW2 6322   8.322   0.866   0.912
 1497SOL     OW 6323   6.279   3.969   0.004
 1497SOL    HW1 6324   6.273   3.938   0.095
 1497SOL    HW2 6325   6.301   4.061   0.011
 1498SOL     OW 6326   0.236   8.592   0.903
 1498SOL    HW1 6327   0.204   8.560   0.987
 1498SOL    HW2 6328   0.242   8.513   0.848
 1499SOL     OW 6329   0.329   2.173   4.271
 1499SOL    HW1 6330   0.384   2.185   4.193
 1499SOL    HW2 6331   0.275   2.252   4.275
 1500SOL     OW 6332   1.266   7.332  14.433
 1500SOL    HW1 6333   1.304   7.413  14.397
 1500SOL    HW2 6334   1.254   7.350  14.526
 1501SOL     OW 6335  13.387  10.914   5.480
 1501SOL    HW1 6336  13.300  10.950   5.461
 1501SOL    HW2 6337  13.447  10.986   5.464
 1502SOL     OW 6338   9.260  13.627  10.874
 1502SOL    HW1 6339   9.339  13.674  10.900
 1502SOL    HW2 6340   9.201  13.635  10.949
 1503SOL     OW 6341  10.389   8.255   6.783
 1503SOL    HW1 6342  10.368   8.284   6.694
 1503SOL    HW2 6343  10.320   8.294   6.837
 1504SOL     OW 6344   6.317   1.262   6.231
 1504SOL    HW1 6345   6.234   1.253   6.279
 1504SOL    HW2 6346   6.318   1.187   6.172
 1505SOL     OW 6347   0.105   5.320   5.210
 1505SOL    HW1 6348   0.087   5.286   5.123
 1505SOL    HW2 6349   0.146   5.405   5.195
 1506SOL     OW 6350   3.915   2.090   0.921
 1506SOL    HW1 6351   3.883   2.002   0.939
 1506SOL    HW2 6352   3.986   2.103   0.983
 1507SOL     OW 6353  13.565   7.612   3.540
 1507SOL    HW1 6354  13.494   7.554   3.515
 1507SOL    HW2 6355  13.537   7.699   3.511
 1508SOL     OW 6356  13.588   7.533   9.289
 1508SOL    HW1 6357  13.662   7.529   9.349
 1508SOL    HW2 6358  13.566   7.625   9.283
 1509SOL     OW 6359  11.224   6.972  11.222
 1509SOL    HW1 6360  11.137   6.936  11.240
 1509SOL    HW2 6361  11.234   6.966  11.127
 1510SOL     OW 6362  13.459   1.625  10.234
 1510SOL    HW1 6363  13.467   1.715  10.267
 1510SOL    HW2 6364  13.525   1.620  10.165
 1511SOL     OW 6365   3.393   4.780   1.118
 1511SOL    HW1 6366   3.471   4.755   1.068
 1511SOL    HW2 6367   3.424   4.787   1.208
 1512SOL     OW 6368  13.783   4.439   5.482
 1512SOL    HW1 6369  13.705   4.480   5.446
 1512SOL    HW2 6370  13.814   4.501   5.548
 1513SOL     OW 6371   0.588  12.628   4.397
 1513SOL    HW1 6372   0.515  12.642   4.336
 1513SOL    HW2 6373   0.634  12.552   4.363
 1514SOL     OW 6374  12.285   3.933   3.332
 1514SOL    HW1 6375  12.273   3.861   3.394
 1514SOL    HW2 6376  12.352   3.989   3.372
 1515SOL     OW 6377   9.305   6.518   3.443
 1515SOL    HW1 6378   9.384   6.572   3.445
 1515SOL    HW2 6379   9.252   6.550   3.516
 1516SOL     OW 6380   5.674  12.912   3.678
 1516SOL    HW1 6381   5.684  13.000   3.715
 1516SOL    HW2 6382   5.580  12.903   3.663
 1517SOL     OW 6383   1.322   5.149  14.167
 1517SOL    HW1 6384   1.230   5.161  14.145
 1517SOL    HW2 6385   1.331   5.054  14.182
 1518SOL     OW 6386  14.552  14.786   5.627
 1518SOL    HW1 6387  14.514  14.701   5.647
 1518SOL    HW2 6388  14.600  14.772   5.545
 1519SOL     OW 6389   7.579  11.569   4.646
 1519SOL    HW1 6390   7.510  11.535   4.589
 1519SOL    HW2 6391   7.535  11.633   4.701
 1520SOL     OW 6392   3.653  11.002  11.193
 1520SOL    HW1 6393   3.727  10.942  11.196
 1520SOL    HW2 6394   3.610  10.983  11.109
 1521SOL     OW 6395   0.213  13.801   3.981
 1521SOL    HW1 6396   0.217  13.884   4.027
 1521SOL    HW2 6397   0.235  13.822   3.890
 1522SOL     OW 6398   1.186   7.421   6.875
 1522SOL    HW1 6399   1.167   7.475   6.951
 1522SOL    HW2 6400   1.263   7.460   6.836
 1523SOL     OW 6401   9.776  10.154  13.418
 1523SOL    HW1 6402   9.748  10.117  13.334
 1523SOL    HW2 6403   9.749  10.089  13.483
 1524SOL     OW 6404   6.754   9.053  14.806
 1524SOL    HW1 6405   6.708   9.076  14.725
 1524SOL    HW2 6406   6.754   8.958  14.808
 1525SOL     OW 6407  10.633   3.604  14.553
 1525SOL    HW1 6408  10.587   3.522  14.565
 1525SOL    HW2 6409  10.604   3.635  14.467
 1526SOL     OW 6410   9.879   7.056   5.993
 1526SOL    HW1 6411   9.895   7.136   5.942
 1526SOL    HW2 6412   9.936   7.065   6.070
 1527SOL     OW 6413   5.937   4.003   6.532
 1527SOL    HW1 6414   5.986   3.942   6.476
 1527SOL    HW2 6415   5.933   3.958   6.617
 1528SOL     OW 6416   3.652  12.372   6.535
 1528SOL    HW1 6417   3.557  12.356   6.533
 1528SOL    HW2 6418   3.690  12.296   6.491
 1529SOL     OW 6419  10.483   7.791   9.673
 1529SOL    HW1 6420  10.421   7.722   9.649
 1529SOL    HW2 6421  10.433   7.849   9.731
 1530SOL     OW 6422   2.958   5.591   0.937
 1530SOL    HW1 6423   3.048   5.624   0.931
 1530SOL    HW2 6424   2.926   5.593   0.847
 1531SOL     OW 6425   6.117   8.117  14.301
 1531SOL    HW1 6426   6.130   8.122  14.206
 1531SOL    HW2 6427   6.203   8.092  14.336
 1532SOL     OW 6428   0.644   8.111  13.244
 1532SOL    HW1 6429   0.659   8.018  13.259
 1532SOL    HW2 6430   0.648   8.150  13.332
 1533SOL     OW 6431  13.380   2.934   4.821
 1533SOL    HW1 6432  13.435   3.012   4.835
 1533SOL    HW2 6433  13.390   2.883   4.901
 1534SOL     OW 6434   5.192   3.082  11.536
 1534SOL    HW1 6435   5.172   3.039  11.453
 1534SOL    HW2 6436   5.232   3.165  11.511
 1535SOL     OW 6437  11.769  12.419   2.273
 1535SOL    HW1 6438  11.733  12.475   2.205
 1535SOL    HW2 6439  11.693  12.380   2.316
 1536SOL     OW 6440   9.111   4.576   4.695
 1536SOL    HW1 6441   9.142   4.518   4.765
 1536SOL    HW2 6442   9.150   4.540   4.615
 1537SOL     OW 6443   7.144   0.187   0.203
 1537SOL    HW1 6444   7.118   0.116   0.145
 1537SOL    HW2 6445   7.109   0.266   0.161
 1538SOL     OW 6446   9.205   2.433   2.096
 1538SOL    HW1 6447   9.236   2.523   2.102
 1538SOL    HW2 6448   9.140   2.435   2.026
 1539SOL     OW 6449  13.260   8.533   4.797
 1539SOL    HW1 6450  13.316   8.590   4.850
 1539SOL    HW2 6451  13.276   8.446   4.832
 1540SOL     OW 6452   8.544   7.489   2.754
 1540SOL    HW1 6453   8.599   7.530   2.821
 1540SOL    HW2 6454   8.490   7.561   2.721
 1541SOL     OW 6455   4.841   2.653   3.199
 1541SOL    HW1 6456   4.873   2.716   3.264
 1541SOL    HW2 6457   4.866   2.690   3.115
 1542SOL     OW 6458   6.678   2.228   6.140
 1542SOL    HW1 6459   6.753   2.273   6.101
 1542SOL    HW2 6460   6.651   2.165   6.074
 1543SOL     OW 6461  14.641   9.038   2.397
 1543SOL    HW1 6462  14.629   9.079   2.482
 1543SOL    HW2 6463  14.564   8.981   2.387
 1544SOL     OW 6464   8.912   6.092   1.947
 1544SOL    HW1 6465   8.947   6.019   1.999
 1544SOL    HW2 6466   8.927   6.169   2.002
 1545SOL     OW 6467   4.243   7.220   1.997
 1545SOL    HW1 6468   4.247   7.128   1.972
 1545SOL    HW2 6469   4.151   7.243   1.990
 1546SOL     OW 6470   9.088  13.867   6.658
 1546SOL    HW1 6471   9.092  13.786   6.708
 1546SOL    HW2 6472   9.082  13.838   6.566
 1547SOL     OW 6473  11.784   5.472   0.165
 1547SOL    HW1 6474  11.781   5.459   0.070
 1547SOL    HW2 6475  11.727   5.404   0.200
 1548SOL     OW 6476   9.008   6.533  12.187
 1548SOL    HW1 6477   8.925   6.503  12.223
 1548SOL    HW2 6478   9.050   6.453  12.154
 1549SOL     OW 6479   3.658   5.115   7.528
 1549SOL    HW1 6480   3.576   5.068   7.511
 1549SOL    HW2 6481   3.696   5.069   7.604
 1550SOL     OW 6482  10.956   6.566   5.331
 1550SOL    HW1 6483  10.974   6.499   5.397
 1550SOL    HW2 6484  10.865   6.551   5.305
 1551SOL     OW 6485   4.675   6.335   4.420
 1551SOL    HW1 6486   4.696   6.410   4.476
 1551SOL    HW2 6487   4.683   6.368   4.331
 1552SOL     OW 6488   8.050   8.782  11.258
 1552SOL    HW1 6489   8.023   8.696  11.228
 1552SOL    HW2 6490   8.126   8.765  11.313
 1553SOL     OW 6491   0.957   3.313  13.897
 1553SOL    HW1 6492   0.887   3.311  13.832
 1553SOL    HW2 6493   1.033   3.277  13.852
 1554SOL     OW 6494   7.533   0.799   5.647
 1554SOL    HW1 6495   7.445   0.811   5.685
 1554SOL    HW2 6496   7.589   0.780   5.723
 1555SOL     OW 6497  11.109   0.846  11.209
 1555SOL    HW1 6498  11.167   0.803  11.271
 1555SOL    HW2 6499  11.089   0.778  11.144
 1556SOL     OW 6500   9.666  13.346   1.209
 1556SOL    HW1 6501   9.629  13.426   1.172
 1556SOL    HW2 6502   9.715  13.307   1.136
 1557SOL     OW 6503  14.433   5.041  13.424
 1557SOL    HW1 6504  14.504   5.099  13.395
 1557SOL    HW2 6505  14.420   5.063  13.516
 1558SOL     OW 6506   2.196   1.855  14.177
 1558SOL    HW1 6507   2.210   1.829  14.086
 1558SOL    HW2 6508   2.226   1.946  14.181
 1559SOL     OW 6509   6.526   4.630   7.539
 1559SOL    HW1 6510   6.502   4.711   7.494
 1559SOL    HW2 6511   6.517   4.562   7.473
 1560SOL     OW 6512  10.201  10.104   1.379
 1560SOL    HW1 6513  10.135  10.109   1.309
 1560SOL    HW2 6514  10.242  10.190   1.380
 1561SOL     OW 6515   3.664   5.603   6.586
 1561SOL    HW1 6516   3.609   5.681   6.595
 1561SOL    HW2 6517   3.644   5.570   6.498
 1562SOL     OW 6518   0.743   7.250  14.187
 1562SOL    HW1 6519   0.734   7.241  14.282
 1562SOL    HW2 6520   0.836   7.234  14.170
 1563SOL     OW 6521   6.546   0.345   9.298
 1563SOL    HW1 6522   6.602   0.271   9.276
 1563SOL    HW2 6523   6.472   0.306   9.345
 1564SOL     OW 6524   0.629   7.282  12.835
 1564SOL    HW1 6525   0.587   7.285  12.921
 1564SOL    HW2 6526   0.567   7.326  12.777
 1565SOL     OW 6527  12.128   8.047   7.839
 1565SOL    HW1 6528  12.114   8.140   7.858
 1565SOL    HW2 6529  12.102   8.002   7.919
 1566SOL     OW 6530   7.229  12.450  14.240
 1566SOL    HW1 6531   7.304  12.482  14.190
 1566SOL    HW2 6532   7.220  12.512  14.313
 1567SOL     OW 6533   6.636  11.784   9.984
 1567SOL    HW1 6534   6.678  11.802   9.900
 1567SOL    HW2 6535   6.599  11.696   9.975
 1568SOL     OW 6536  12.308  10.223   9.975
 1568SOL    HW1 6537  12.299  10.180   9.890
 1568SOL    HW2 6538  12.401  10.216   9.995
 1569SOL     OW 6539   3.546   8.503  12.626
 1569SOL    HW1 6540   3.639   8.516  12.606
 1569SOL    HW2 6541   3.536   8.409  12.632
 1570SOL     OW 6542   4.339   7.773   2.250
 1570SOL    HW1 6543   4.290   7.841   2.205
 1570SOL    HW2 6544   4.376   7.719   2.180
 1571SOL     OW 6545  10.434   3.217   8.028
 1571SOL    HW1 6546  10.405   3.273   8.099
 1571SOL    HW2 6547  10.466   3.277   7.961
 1572SOL     OW 6548   7.531   3.059   9.897
 1572SOL    HW1 6549   7.554   3.033   9.808
 1572SOL    HW2 6550   7.438   3.084   9.892
 1573SOL     OW 6551  12.575  13.988  10.992
 1573SOL    HW1 6552  12.601  13.901  10.965
 1573SOL    HW2 6553  12.648  14.020  11.045
 1574SOL     OW 6554   1.391   4.450  12.031
 1574SOL    HW1 6555   1.362   4.445  11.940
 1574SOL    HW2 6556   1.449   4.374  12.042
 1575SOL     OW 6557   5.362  11.435   4.270
 1575SOL    HW1 6558   5.455  11.456   4.278
 1575SOL    HW2 6559   5.361  11.345   4.238
 1576SOL     OW 6560   0.794  14.450   2.389
 1576SOL    HW1 6561   0.850  14.464   2.313
 1576SOL    HW2 6562   0.815  14.361   2.418
 1577SOL     OW 6563   5.822   8.548   2.249
 1577SOL    HW1 6564   5.901   8.517   2.294
 1577SOL    HW2 6565   5.854   8.582   2.165
 1578SOL     OW 6566  10.635  10.302  11.880
 1578SOL    HW1 6567  10.612  10.352  11.958
 1578SOL    HW2 6568  10.677  10.365  11.822
 1579SOL     OW 6569   7.482   1.405   8.160
 1579SOL    HW1 6570   7.523   1.374   8.078
 1579SOL    HW2 6571   7.469   1.499   8.146
 1580SOL     OW 6572   2.737  11.204   4.699
 1580SOL    HW1 6573   2.787  11.220   4.779
 1580SOL    HW2 6574   2.730  11.109   4.694
 1581SOL     OW 6575   2.453  12.427   3.886
 1581SOL    HW1 6576   2.397  12.430   3.808
 1581SOL    HW2 6577   2.408  12.368   3.946
 1582SOL     OW 6578  13.182  14.135  13.726
 1582SOL    HW1 6579  13.248  14.172  13.667
 1582SOL    HW2 6580  13.153  14.055  13.681
 1583SOL     OW 6581   5.660   4.342  14.503
 1583SOL    HW1 6582   5.618   4.336  14.417
 1583SOL    HW2 6583   5.721   4.416  14.495
 1584SOL     OW 6584   7.412   3.237   8.776
 1584SOL    HW1 6585   7.358   3.284   8.712
 1584SOL    HW2 6586   7.447   3.305   8.834
 1585SOL     OW 6587   0.056   4.125  12.769
 1585SOL    HW1 6588   0.070   4.149  12.861
 1585SOL    HW2 6589   0.139   4.088  12.741
 1586SOL     OW 6590   1.031   6.246   9.978
 1586SOL    HW1 6591   1.035   6.150   9.986
 1586SOL    HW2 6592   1.047   6.262   9.885
 1587SOL     OW 6593   8.781   1.820   6.877
 1587SOL    HW1 6594   8.861   1.771   6.900
 1587SOL    HW2 6595   8.758   1.788   6.790
 1588SOL     OW 6596  10.891   4.883  11.906
 1588SOL    HW1 6597  10.960   4.869  11.841
 1588SOL    HW2 6598  10.880   4.978  11.909
 1589SOL     OW 6599   1.719   1.193   2.876
 1589SOL    HW1 6600   1.810   1.188   2.848
 1589SOL    HW2 6601   1.671   1.136   2.815
 1590SOL     OW 6602  13.845  13.909   1.801
 1590SOL    HW1 6603  13.897  13.830   1.814
 1590SOL    HW2 6604  13.889  13.956   1.730
 1591SOL     OW 6605   4.689  14.418  14.531
 1591SOL    HW1 6606   4.599  14.439  14.508
 1591SOL    HW2 6607   4.735  14.502  14.527
 1592SOL     OW 6608  10.613   3.434   5.501
 1592SOL    HW1 6609  10.606   3.453   5.594
 1592SOL    HW2 6610  10.634   3.340   5.497
 1593SOL     OW 6611  13.616  13.574  12.121
 1593SOL    HW1 6612  13.628  13.516  12.046
 1593SOL    HW2 6613  13.684  13.641  12.111
 1594SOL     OW 6614   8.426  11.737   0.332
 1594SOL    HW1 6615   8.475  11.818   0.345
 1594SOL    HW2 6616   8.468  11.695   0.257
 1595SOL     OW 6617  14.779   9.327  13.887
 1595SOL    HW1 6618  14.705   9.283  13.928
 1595SOL    HW2 6619  14.738   9.393  13.830
 1596SOL     OW 6620  14.552  10.063   3.991
 1596SOL    HW1 6621  14.491  10.004   4.033
 1596SOL    HW2 6622  14.630  10.010   3.974
 1597SOL     OW 6623   2.106   1.545   7.875
 1597SOL    HW1 6624   2.186   1.506   7.840
 1597SOL    HW2 6625   2.108   1.526   7.968
 1598SOL     OW 6626   3.544   2.261  10.600
 1598SOL    HW1 6627   3.627   2.259  10.646
 1598SOL    HW2 6628   3.526   2.169  10.577
 1599SOL     OW 6629   9.605  10.402   8.476
 1599SOL    HW1 6630   9.588  10.313   8.504
 1599SOL    HW2 6631   9.518  10.440   8.461
 1600SOL     OW 6632   8.149  13.917   5.208
 1600SOL    HW1 6633   8.164  13.978   5.280
 1600SOL    HW2 6634   8.160  13.969   5.129
 1601SOL     OW 6635   7.247   6.639   5.248
 1601SOL    HW1 6636   7.312   6.655   5.180
 1601SOL    HW2 6637   7.240   6.722   5.294
 1602SOL     OW 6638  10.476   9.089   9.585
 1602SOL    HW1 6639  10.558   9.042   9.602
 1602SOL    HW2 6640  10.407   9.030   9.616
 1603SOL     OW 6641   4.645   7.236   7.240
 1603SOL    HW1 6642   4.565   7.193   7.210
 1603SOL    HW2 6643   4.615   7.321   7.273
 1604SOL     OW 6644   3.283   4.363   2.305
 1604SOL    HW1 6645   3.332   4.445   2.297
 1604SOL    HW2 6646   3.201   4.380   2.260
 1605SOL     OW 6647   4.414   1.586   2.713
 1605SOL    HW1 6648   4.502   1.621   2.729
 1605SOL    HW2 6649   4.419   1.547   2.626
 1606SOL     OW 6650   0.523  11.350  12.150
 1606SOL    HW1 6651   0.463  11.332  12.077
 1606SOL    HW2 6652   0.466  11.351  12.227
 1607SOL     OW 6653   4.436   8.843   5.857
 1607SOL    HW1 6654   4.430   8.937   5.840
 1607SOL    HW2 6655   4.524   8.830   5.892
 1608SOL     OW 6656   3.778   5.360   8.806
 1608SOL    HW1 6657   3.703   5.325   8.757
 1608SOL    HW2 6658   3.804   5.288   8.864
 1609SOL     OW 6659   4.460   4.077   7.811
 1609SOL    HW1 6660   4.406   4.150   7.842
 1609SOL    HW2 6661   4.547   4.116   7.800
 1610SOL     OW 6662   2.339   7.833  13.690
 1610SOL    HW1 6663   2.334   7.745  13.727
 1610SOL    HW2 6664   2.424   7.835  13.645
 1611SOL     OW 6665   6.678   3.982   1.972
 1611SOL    HW1 6666   6.734   3.916   2.014
 1611SOL    HW2 6667   6.673   4.053   2.036
 1612SOL     OW 6668   7.961   5.931  14.147
 1612SOL    HW1 6669   7.962   6.021  14.181
 1612SOL    HW2 6670   7.995   5.939  14.058
 1613SOL     OW 6671  11.379   1.497   4.434
 1613SOL    HW1 6672  11.450   1.556   4.462
 1613SOL    HW2 6673  11.401   1.413   4.473
 1614SOL     OW 6674  13.716   8.815   2.697
 1614SOL    HW1 6675  13.718   8.872   2.621
 1614SOL    HW2 6676  13.768   8.739   2.671
 1615SOL     OW 6677   9.001   7.896  11.057
 1615SOL    HW1 6678   8.951   7.954  11.000
 1615SOL    HW2 6679   8.969   7.808  11.035
 1616SOL     OW 6680   0.958   8.405  14.534
 1616SOL    HW1 6681   0.925   8.321  14.563
 1616SOL    HW2 6682   0.901   8.429  14.461
 1617SOL     OW 6683   9.401   0.061   6.702
 1617SOL    HW1 6684   9.338   0.024   6.764
 1617SOL    HW2 6685   9.391   0.156   6.711
 1618SOL     OW 6686   8.002   1.485  14.532
 1618SOL    HW1 6687   8.017   1.554  14.596
 1618SOL    HW2 6688   7.915   1.503  14.496
 1619SOL     OW 6689  13.063  11.584   7.056
 1619SOL    HW1 6690  13.129  11.537   7.107
 1619SOL    HW2 6691  13.057  11.670   7.097
 1620SOL     OW 6692  10.934   6.200  11.808
 1620SOL    HW1 6693  10.917   6.291  11.782
 1620SOL    HW2 6694  10.866   6.149  11.764
 1621SOL     OW 6695   3.988   6.301  10.814
 1621SOL    HW1 6696   3.948   6.379  10.775
 1621SOL    HW2 6697   4.074   6.296  10.772
 1622SOL     OW 6698   4.969   1.610   0.419
 1622SOL    HW1 6699   4.940   1.664   0.493
 1622SOL    HW2 6700   4.888   1.587   0.373
 1623SOL     OW 6701   4.481   9.055   9.972
 1623SOL    HW1 6702   4.489   8.983   9.910
 1623SOL    HW2 6703   4.402   9.036  10.022
 1624SOL     OW 6704   4.361  13.206   8.554
 1624SOL    HW1 6705   4.383  13.296   8.529
 1624SOL    HW2 6706   4.419  13.187   8.627
 1625SOL     OW 6707  13.123   5.048   7.037
 1625SOL    HW1 6708  13.034   5.040   7.073
 1625SOL    HW2 6709  13.171   4.976   7.078
 1626SOL     OW 6710   6.500   0.751   8.864
 1626SOL    HW1 6711   6.501   0.668   8.816
 1626SOL    HW2 6712   6.574   0.800   8.828
 1627SOL     OW 6713   2.939  13.184  12.829
 1627SOL    HW1 6714   3.016  13.170  12.774
 1627SOL    HW2 6715   2.894  13.100  12.830
 1628SOL     OW 6716   6.154  11.979   6.310
 1628SOL    HW1 6717   6.236  11.971   6.260
 1628SOL    HW2 6718   6.145  11.893   6.352
 1629SOL     OW 6719   0.240   5.115  13.280
 1629SOL    HW1 6720   0.213   5.110  13.372
 1629SOL    HW2 6721   0.219   5.029  13.244
 1630SOL     OW 6722   5.075   7.565  13.817
 1630SOL    HW1 6723   5.128   7.584  13.740
 1630SOL    HW2 6724   5.136   7.571  13.890
 1631SOL     OW 6725  11.587  10.711  10.142
 1631SOL    HW1 6726  11.653  10.776  10.167
 1631SOL    HW2 6727  11.624  10.627  10.172
 1632SOL     OW 6728  14.154   6.050   8.740
 1632SOL    HW1 6729  14.097   6.086   8.808
 1632SOL    HW2 6730  14.204   6.125   8.709
 1633SOL     OW 6731   5.691   9.591   1.681
 1633SOL    HW1 6732   5.622   9.653   1.706
 1633SOL    HW2 6733   5.644   9.517   1.642
 1634SOL     OW 6734   6.609  11.416  14.745
 1634SOL    HW1 6735   6.620  11.389  14.653
 1634SOL    HW2 6736   6.600  11.334  14.793
 1635SOL     OW 6737  14.128   1.888  10.103
 1635SOL    HW1 6738  14.037   1.911  10.086
 1635SOL    HW2 6739  14.163   1.863  10.018
 1636SOL     OW 6740   5.323   3.191  11.861
 1636SOL    HW1 6741   5.351   3.282  11.873
 1636SOL    HW2 6742   5.279   3.190  11.776
 1637SOL     OW 6743   1.645   2.048   4.894
 1637SOL    HW1 6744   1.711   1.979   4.888
 1637SOL    HW2 6745   1.646   2.090   4.808
 1638SOL     OW 6746   5.743   5.580   4.342
 1638SOL    HW1 6747   5.749   5.676   4.343
 1638SOL    HW2 6748   5.706   5.557   4.428
 1639SOL     OW 6749  10.477   0.370  14.876
 1639SOL    HW1 6750  10.571   0.390  14.877
 1639SOL    HW2 6751  10.459   0.336   0.085
 1640SOL     OW 6752   3.499   9.201   4.998
 1640SOL    HW1 6753   3.515   9.145   4.922
 1640SOL    HW2 6754   3.493   9.289   4.961
 1641SOL     OW 6755  14.776   5.019   5.176
 1641SOL    HW1 6756  14.783   5.112   5.153
 1641SOL    HW2 6757  14.693   4.991   5.137
 1642SOL     OW 6758   0.959   3.923   5.110
 1642SOL    HW1 6759   0.897   3.914   5.182
 1642SOL    HW2 6760   1.031   3.976   5.146
 1643SOL     OW 6761  10.296  10.654  14.812
 1643SOL    HW1 6762  10.244  10.710  14.870
 1643SOL    HW2 6763  10.302  10.704  14.731
 1644SOL     OW 6764  14.387   9.820   8.377
 1644SOL    HW1 6765  14.406   9.883   8.446
 1644SOL    HW2 6766  14.463   9.761   8.378
 1645SOL     OW 6767   7.109   0.072  10.569
 1645SOL    HW1 6768   7.035   0.068  10.629
 1645SOL    HW2 6769   7.172   0.009  10.604
 1646SOL     OW 6770   0.594   7.524   8.184
 1646SOL    HW1 6771   0.687   7.528   8.161
 1646SOL    HW2 6772   0.554   7.596   8.135
 1647SOL     OW 6773  12.303   0.535  10.089
 1647SOL    HW1 6774  12.311   0.589  10.167
 1647SOL    HW2 6775  12.381   0.556  10.037
 1648SOL     OW 6776  13.335   7.017  10.198
 1648SOL    HW1 6777  13.378   6.985  10.277
 1648SOL    HW2 6778  13.257   6.963  10.189
 1649SOL     OW 6779  14.361   6.860  12.164
 1649SOL    HW1 6780  14.319   6.803  12.099
 1649SOL    HW2 6781  14.397   6.799  12.228
 1650SOL     OW 6782   4.005  13.321   3.441
 1650SOL    HW1 6783   3.948  13.343   3.367
 1650SOL    HW2 6784   3.968  13.241   3.477
 1651SOL     OW 6785  12.989  10.654  10.236
 1651SOL    HW1 6786  13.019  10.675  10.324
 1651SOL    HW2 6787  12.992  10.558  10.233
 1652SOL     OW 6788   1.458  11.623  13.651
 1652SOL    HW1 6789   1.448  11.533  13.683
 1652SOL    HW2 6790   1.421  11.621  13.563
 1653SOL     OW 6791  11.778   1.264   0.628
 1653SOL    HW1 6792  11.776   1.262   0.724
 1653SOL    HW2 6793  11.741   1.180   0.601
 1654SOL     OW 6794   6.343   0.277   9.852
 1654SOL    HW1 6795   6.373   0.232   9.931
 1654SOL    HW2 6796   6.393   0.237   9.781
 1655SOL     OW 6797   4.651   9.902   0.463
 1655SOL    HW1 6798   4.736   9.924   0.503
 1655SOL    HW2 6799   4.590   9.965   0.501
 1656SOL     OW 6800   3.251   7.659   6.778
 1656SOL    HW1 6801   3.330   7.702   6.745
 1656SOL    HW2 6802   3.219   7.608   6.703
 1657SOL     OW 6803   0.062   5.625   7.249
 1657SOL    HW1 6804   0.099   5.706   7.285
 1657SOL    HW2 6805  14.864   5.608   7.303
 1658SOL     OW 6806   2.500   3.825  11.301
 1658SOL    HW1 6807   2.490   3.763  11.229
 1658SOL    HW2 6808   2.566   3.786  11.358
 1659SOL     OW 6809  10.317   5.545  14.465
 1659SOL    HW1 6810  10.298   5.453  14.482
 1659SOL    HW2 6811  10.254   5.571  14.398
 1660SOL     OW 6812   3.680   9.132  13.841
 1660SOL    HW1 6813   3.729   9.213  13.828
 1660SOL    HW2 6814   3.628   9.121  13.761
 1661SOL     OW 6815   0.648   2.747  10.865
 1661SOL    HW1 6816   0.583   2.792  10.811
 1661SOL    HW2 6817   0.671   2.669  10.815
 1662SOL     OW 6818  12.269  13.016  11.071
 1662SOL    HW1 6819  12.217  12.947  11.030
 1662SOL    HW2 6820  12.313  12.973  11.144
 1663SOL     OW 6821  10.143  10.902   8.772
 1663SOL    HW1 6822  10.154  10.975   8.834
 1663SOL    HW2 6823  10.124  10.945   8.688
 1664SOL     OW 6824   8.579   0.137   6.892
 1664SOL    HW1 6825   8.673   0.123   6.881
 1664SOL    HW2 6826   8.562   0.115   6.984
 1665SOL     OW 6827  13.872  13.435   2.106
 1665SOL    HW1 6828  13.937  13.364   2.102
 1665SOL    HW2 6829  13.859  13.460   2.014
 1666SOL     OW 6830   2.708  13.116  13.288
 1666SOL    HW1 6831   2.744  13.201  13.264
 1666SOL    HW2 6832   2.714  13.114  13.384
 1667SOL     OW 6833  11.535   1.921  10.992
 1667SOL    HW1 6834  11.570   1.952  11.076
 1667SOL    HW2 6835  11.460   1.978  10.974
 1668SOL     OW 6836   9.892  12.648   2.029
 1668SOL    HW1 6837   9.807  12.659   2.072
 1668SOL    HW2 6838   9.938  12.730   2.046
 1669SOL     OW 6839  13.771   6.805   4.413
 1669SOL    HW1 6840  13.720   6.845   4.484
 1669SOL    HW2 6841  13.721   6.825   4.334
 1670SOL     OW 6842   8.719   4.541   3.353
 1670SOL    HW1 6843   8.701   4.625   3.310
 1670SOL    HW2 6844   8.796   4.557   3.408
 1671SOL     OW 6845   6.790   7.570   1.341
 1671SOL    HW1 6846   6.704   7.594   1.308
 1671SOL    HW2 6847   6.799   7.619   1.422
 1672SOL     OW 6848   6.391  11.940   9.261
 1672SOL    HW1 6849   6.465  11.990   9.227
 1672SOL    HW2 6850   6.418  11.849   9.254
 1673SOL     OW 6851   8.853   2.004   8.221
 1673SOL    HW1 6852   8.940   1.968   8.203
 1673SOL    HW2 6853   8.800   1.928   8.244
 1674SOL     OW 6854   1.876   5.302   7.378
 1674SOL    HW1 6855   1.821   5.234   7.338
 1674SOL    HW2 6856   1.966   5.272   7.362
 1675SOL     OW 6857  10.988   7.618   2.518
 1675SOL    HW1 6858  11.029   7.545   2.564
 1675SOL    HW2 6859  10.944   7.577   2.444
 1676SOL     OW 6860   1.086   5.396   3.697
 1676SOL    HW1 6861   1.083   5.432   3.785
 1676SOL    HW2 6862   1.175   5.416   3.666
 1677SOL     OW 6863  13.961   3.076   4.642
 1677SOL    HW1 6864  13.981   3.142   4.575
 1677SOL    HW2 6865  13.878   3.037   4.612
 1678SOL     OW 6866  14.046   4.780  12.958
 1678SOL    HW1 6867  13.988   4.709  12.987
 1678SOL    HW2 6868  14.050   4.771  12.863
 1679SOL     OW 6869   6.156   1.004   7.420
 1679SOL    HW1 6870   6.077   1.008   7.474
 1679SOL    HW2 6871   6.146   0.923   7.369
 1680SOL     OW 6872   5.343  10.822   3.655
 1680SOL    HW1 6873   5.379  10.803   3.568
 1680SOL    HW2 6874   5.251  10.793   3.649
 1681SOL     OW 6875  11.588  13.865   6.588
 1681SOL    HW1 6876  11.632  13.877   6.672
 1681SOL    HW2 6877  11.581  13.770   6.578
 1682SOL     OW 6878  10.523   1.761   2.731
 1682SOL    HW1 6879  10.456   1.820   2.695
 1682SOL    HW2 6880  10.598   1.773   2.674
 1683SOL     OW 6881   5.766   1.811   6.166
 1683SOL    HW1 6882   5.716   1.809   6.248
 1683SOL    HW2 6883   5.834   1.743   6.178
 1684SOL     OW 6884   3.576   2.832   4.532
 1684SOL    HW1 6885   3.493   2.793   4.560
 1684SOL    HW2 6886   3.595   2.898   4.599
 1685SOL     OW 6887   6.535   0.914   1.168
 1685SOL    HW1 6888   6.471   0.973   1.128
 1685SOL    HW2 6889   6.616   0.930   1.121
 1686SOL     OW 6890   5.154   4.015   5.299
 1686SOL    HW1 6891   5.243   4.021   5.263
 1686SOL    HW2 6892   5.098   4.051   5.231
 1687SOL     OW 6893   2.274  11.586   5.215
 1687SOL    HW1 6894   2.292  11.589   5.309
 1687SOL    HW2 6895   2.215  11.659   5.199
 1688SOL     OW 6896   5.950   1.478   8.272
 1688SOL    HW1 6897   6.024   1.432   8.233
 1688SOL    HW2 6898   5.990   1.555   8.314
 1689SOL     OW 6899   2.319  14.754   4.258
 1689SOL    HW1 6900   2.265  14.819   4.213
 1689SOL    HW2 6901   2.367  14.710   4.188
 1690SOL     OW 6902  11.108   2.996  13.550
 1690SOL    HW1 6903  11.186   3.051  13.542
 1690SOL    HW2 6904  11.118   2.951  13.634
 1691SOL     OW 6905   2.633  14.163   0.947
 1691SOL    HW1 6906   2.666  14.080   0.915
 1691SOL    HW2 6907   2.545  14.143   0.981
 1692SOL     OW 6908  10.644   0.203   1.635
 1692SOL    HW1 6909  10.723   0.245   1.670
 1692SOL    HW2 6910  10.581   0.273   1.626
 1693SOL     OW 6911   1.252   5.604  11.059
 1693SOL    HW1 6912   1.217   5.662  11.127
 1693SOL    HW2 6913   1.191   5.530  11.057
 1694SOL     OW 6914   9.977  10.317   9.483
 1694SOL    HW1 6915   9.922  10.384   9.441
 1694SOL    HW2 6916  10.038  10.367   9.538
 1695SOL     OW 6917   8.078   3.869   2.411
 1695SOL    HW1 6918   8.051   3.883   2.321
 1695SOL    HW2 6919   8.168   3.838   2.405
 1696SOL     OW 6920   1.128   2.473   1.440
 1696SOL    HW1 6921   1.189   2.515   1.379
 1696SOL    HW2 6922   1.149   2.380   1.434
 1697SOL     OW 6923   1.993   3.905   6.264
 1697SOL    HW1 6924   1.946   3.895   6.347
 1697SOL    HW2 6925   2.066   3.963   6.285
 1698SOL     OW 6926   0.335   7.483   7.117
 1698SOL    HW1 6927   0.397   7.555   7.128
 1698SOL    HW2 6928   0.270   7.518   7.056
 1699SOL     OW 6929   0.060  14.822  12.239
 1699SOL    HW1 6930   0.081  14.853  12.151
 1699SOL    HW2 6931  14.864  14.764  12.227
 1700SOL     OW 6932   1.382  10.039  12.480
 1700SOL    HW1 6933   1.304  10.062  12.531
 1700SOL    HW2 6934   1.349  10.014  12.394
 1701SOL     OW 6935  12.432   9.242   4.334
 1701SOL    HW1 6936  12.451   9.213   4.423
 1701SOL    HW2 6937  12.483   9.184   4.278
 1702SOL     OW 6938   7.079   3.246   6.307
 1702SOL    HW1 6939   7.173   3.257   6.316
 1702SOL    HW2 6940   7.041   3.311   6.366
 1703SOL     OW 6941   4.010  11.479   7.149
 1703SOL    HW1 6942   4.007  11.470   7.054
 1703SOL    HW2 6943   3.929  11.524   7.172
 1704SOL     OW 6944  13.910   9.128   5.281
 1704SOL    HW1 6945  13.829   9.084   5.254
 1704SOL    HW2 6946  13.897   9.220   5.259
 1705SOL     OW 6947   9.463   3.216  10.928
 1705SOL    HW1 6948   9.424   3.293  10.971
 1705SOL    HW2 6949   9.519   3.253  10.860
 1706SOL     OW 6950   3.854   9.750  14.021
 1706SOL    HW1 6951   3.774   9.800  14.011
 1706SOL    HW2 6952   3.845   9.677  13.960
 1707SOL     OW 6953   7.118   3.065  14.459
 1707SOL    HW1 6954   7.093   3.086  14.370
 1707SOL    HW2 6955   7.184   2.996  14.450
 1708SOL     OW 6956   8.496  14.020   4.962
 1708SOL    HW1 6957   8.537  13.933   4.971
 1708SOL    HW2 6958   8.406  14.006   4.991
 1709SOL     OW 6959   1.723   8.999   4.106
 1709SOL    HW1 6960   1.689   8.955   4.185
 1709SOL    HW2 6961   1.662   9.071   4.091
 1710SOL     OW 6962   5.780   0.959   3.945
 1710SOL    HW1 6963   5.805   1.035   3.892
 1710SOL    HW2 6964   5.688   0.975   3.966
 1711SOL     OW 6965   1.482  12.762  11.974
 1711SOL    HW1 6966   1.492  12.710  11.894
 1711SOL    HW2 6967   1.387  12.774  11.982
 1712SOL     OW 6968   9.768  10.900   4.227
 1712SOL    HW1 6969   9.737  10.824   4.275
 1712SOL    HW2 6970   9.789  10.964   4.294
 1713SOL     OW 6971   7.279  13.944  13.497
 1713SOL    HW1 6972   7.198  13.988  13.474
 1713SOL    HW2 6973   7.327  14.007  13.551
 1714SOL     OW 6974   2.016  11.443   3.610
 1714SOL    HW1 6975   1.977  11.492   3.538
 1714SOL    HW2 6976   2.042  11.360   3.571
 1715SOL     OW 6977  10.229  13.970   8.045
 1715SOL    HW1 6978  10.314  14.006   8.017
 1715SOL    HW2 6979  10.223  13.993   8.137
 1716SOL     OW 6980   6.950   3.702   4.710
 1716SOL    HW1 6981   7.013   3.662   4.770
 1716SOL    HW2 6982   6.995   3.779   4.676
 1717SOL     OW 6983  14.318  10.406  10.066
 1717SOL    HW1 6984  14.294  10.479  10.008
 1717SOL    HW2 6985  14.289  10.434  10.153
 1718SOL     OW 6986   5.274   9.730   5.108
 1718SOL    HW1 6987   5.340   9.732   5.039
 1718SOL    HW2 6988   5.266   9.821   5.136
 1719SOL     OW 6989   8.787   0.260   8.318
 1719SOL    HW1 6990   8.872   0.272   8.275
 1719SOL    HW2 6991   8.769   0.166   8.309
 1720SOL     OW 6992  10.172  12.564   9.882
 1720SOL    HW1 6993  10.252  12.583   9.833
 1720SOL    HW2 6994  10.163  12.638   9.942
 1721SOL     OW 6995   3.106  10.172   2.563
 1721SOL    HW1 6996   3.089  10.195   2.654
 1721SOL    HW2 6997   3.163  10.096   2.566
 1722SOL     OW 6998   7.271   9.314   2.505
 1722SOL    HW1 6999   7.343   9.342   2.447
 1722SOL    HW2 7000   7.296   9.227   2.534
 1723SOL     OW 7001  12.537   0.756   8.921
 1723SOL    HW1 7002  12.555   0.721   9.009
 1723SOL    HW2 7003  12.493   0.684   8.875
 1724SOL     OW 7004   1.901  11.137  10.130
 1724SOL    HW1 7005   1.902  11.172  10.040
 1724SOL    HW2 7006   1.852  11.055  10.123
 1725SOL     OW 7007   8.112   2.079  12.616
 1725SOL    HW1 7008   8.107   2.171  12.593
 1725SOL    HW2 7009   8.083   2.075  12.707
 1726SOL     OW 7010   7.125   2.861   9.422
 1726SOL    HW1 7011   7.174   2.912   9.359
 1726SOL    HW2 7012   7.043   2.839   9.377
 1727SOL     OW 7013   3.797  11.581   2.526
 1727SOL    HW1 7014   3.840  11.607   2.608
 1727SOL    HW2 7015   3.830  11.644   2.461
 1728SOL     OW 7016   5.312   3.458   1.980
 1728SOL    HW1 7017   5.405   3.476   1.963
 1728SOL    HW2 7018   5.272   3.458   1.893
 1729SOL     OW 7019   0.999  10.057  14.723
 1729SOL    HW1 7020   1.042  10.125  14.775
 1729SOL    HW2 7021   0.933  10.020  14.782
 1730SOL     OW 7022   5.952   0.911   0.142
 1730SOL    HW1 7023   5.944   0.971   0.068
 1730SOL    HW2 7024   6.045   0.890   0.145
 1731SOL     OW 7025  12.093   9.283  10.781
 1731SOL    HW1 7026  12.169   9.242  10.821
 1731SOL    HW2 7027  12.039   9.210  10.750
 1732SOL     OW 7028   1.209  10.834   8.322
 1732SOL    HW1 7029   1.278  10.900   8.334
 1732SOL    HW2 7030   1.253  10.750   8.335
 1733SOL     OW 7031   1.649   5.075   0.565
 1733SOL    HW1 7032   1.585   5.057   0.635
 1733SOL    HW2 7033   1.730   5.096   0.611
 1734SOL     OW 7034  13.622   3.070  12.077
 1734SOL    HW1 7035  13.616   3.151  12.127
 1734SOL    HW2 7036  13.681   3.014  12.128
 1735SOL     OW 7037  10.266   2.913  14.684
 1735SOL    HW1 7038  10.348   2.887  14.641
 1735SOL    HW2 7039  10.289   2.920  14.777
 1736SOL     OW 7040   5.331   3.500   3.615
 1736SOL    HW1 7041   5.268   3.465   3.552
 1736SOL    HW2 7042   5.372   3.423   3.654
 1737SOL     OW 7043  10.551   0.320   2.491
 1737SOL    HW1 7044  10.637   0.361   2.493
 1737SOL    HW2 7045  10.510   0.354   2.412
 1738SOL     OW 7046   2.674   1.404  11.362
 1738SOL    HW1 7047   2.618   1.380  11.436
 1738SOL    HW2 7048   2.696   1.320  11.321
 1739SOL     OW 7049   2.448   3.022   4.235
 1739SOL    HW1 7050   2.539   3.051   4.229
 1739SOL    HW2 7051   2.441   2.979   4.320
 1740SOL     OW 7052  12.897   8.428   1.005
 1740SOL    HW1 7053  12.846   8.355   1.039
 1740SOL    HW2 7054  12.911   8.485   1.080
 1741SOL     OW 7055   2.569   1.992   2.917
 1741SOL    HW1 7056   2.649   2.028   2.955
 1741SOL    HW2 7057   2.597   1.945   2.839
 1742SOL     OW 7058  10.610   9.629   4.977
 1742SOL    HW1 7059  10.629   9.542   5.013
 1742SOL    HW2 7060  10.688   9.681   4.998
 1743SOL     OW 7061   5.595   7.185   7.298
 1743SOL    HW1 7062   5.664   7.249   7.283
 1743SOL    HW2 7063   5.514   7.236   7.296
 1744SOL     OW 7064   6.218   2.589  13.220
 1744SOL    HW1 7065   6.209   2.659  13.155
 1744SOL    HW2 7066   6.298   2.543  13.194
 1745SOL     OW 7067   3.290   8.064  12.969
 1745SOL    HW1 7068   3.273   8.068  12.875
 1745SOL    HW2 7069   3.214   8.019  13.006
 1746SOL     OW 7070  13.856  10.058   0.262
 1746SOL    HW1 7071  13.804  10.109   0.199
 1746SOL    HW2 7072  13.907  10.124   0.309
 1747SOL     OW 7073  12.490   8.414   3.380
 1747SOL    HW1 7074  12.472   8.482   3.315
 1747SOL    HW2 7075  12.562   8.449   3.432
 1748SOL     OW 7076   5.801   4.350   7.998
 1748SOL    HW1 7077   5.739   4.415   7.963
 1748SOL    HW2 7078   5.860   4.332   7.926
 1749SOL     OW 7079  10.469  11.740  11.530
 1749SOL    HW1 7080  10.484  11.833  11.517
 1749SOL    HW2 7081  10.404  11.735  11.600
 1750SOL     OW 7082  12.871  13.250   5.124
 1750SOL    HW1 7083  12.910  13.316   5.180
 1750SOL    HW2 7084  12.943  13.188   5.106
 1751SOL     OW 7085   6.749   9.207   3.484
 1751SOL    HW1 7086   6.663   9.164   3.491
 1751SOL    HW2 7087   6.746   9.254   3.401
 1752SOL     OW 7088   5.318   6.465   8.239
 1752SOL    HW1 7089   5.222   6.468   8.244
 1752SOL    HW2 7090   5.340   6.522   8.166
 1753SOL     OW 7091   0.809   9.336   9.563
 1753SOL    HW1 7092   0.843   9.314   9.476
 1753SOL    HW2 7093   0.761   9.417   9.550
 1754SOL     OW 7094   8.146  11.458   2.554
 1754SOL    HW1 7095   8.104  11.489   2.634
 1754SOL    HW2 7096   8.219  11.517   2.541
 1755SOL     OW 7097   8.408   2.149   3.770
 1755SOL    HW1 7098   8.423   2.123   3.679
 1755SOL    HW2 7099   8.371   2.071   3.811
 1756SOL     OW 7100  13.452   1.909  10.585
 1756SOL    HW1 7101  13.480   1.859  10.509
 1756SOL    HW2 7102  13.371   1.866  10.615
 1757SOL     OW 7103   1.671  13.512   8.238
 1757SOL    HW1 7104   1.618  13.586   8.267
 1757SOL    HW2 7105   1.721  13.546   8.163
 1758SOL     OW 7106  12.390   7.509   6.165
 1758SOL    HW1 7107  12.369   7.495   6.073
 1758SOL    HW2 7108  12.306   7.530   6.206
 1759SOL     OW 7109  14.407   2.118   9.018
 1759SOL    HW1 7110  14.324   2.156   8.990
 1759SOL    HW2 7111  14.428   2.164   9.099
 1760SOL     OW 7112  13.008   5.965   2.955
 1760SOL    HW1 7113  12.991   5.936   2.865
 1760SOL    HW2 7114  13.103   5.965   2.963
 1761SOL     OW 7115   0.038   7.195   3.235
 1761SOL    HW1 7116   0.121   7.148   3.245
 1761SOL    HW2 7117   0.033   7.214   3.141
 1762SOL     OW 7118   6.827  10.875  12.746
 1762SOL    HW1 7119   6.920  10.894  12.757
 1762SOL    HW2 7120   6.784  10.961  12.749
 1763SOL     OW 7121   9.796  14.592  11.038
 1763SOL    HW1 7122   9.879  14.610  11.082
 1763SOL    HW2 7123   9.803  14.638  10.954
 1764SOL     OW 7124  10.158  12.829  11.242
 1764SOL    HW1 7125  10.207  12.799  11.166
 1764SOL    HW2 7126  10.067  12.809  11.222
 1765SOL     OW 7127   6.283   6.681  12.040
 1765SOL    HW1 7128   6.245   6.768  12.031
 1765SOL    HW2 7129   6.304   6.655  11.950
 1766SOL     OW 7130  10.692  13.374   1.159
 1766SOL    HW1 7131  10.776  13.378   1.114
 1766SOL    HW2 7132  10.673  13.465   1.183
 1767SOL     OW 7133   1.477   9.380  10.197
 1767SOL    HW1 7134   1.441   9.469  10.193
 1767SOL    HW2 7135   1.560   9.386  10.148
 1768SOL     OW 7136  10.956   9.218  13.038
 1768SOL    HW1 7137  11.051   9.215  13.033
 1768SOL    HW2 7138  10.930   9.278  12.968
 1769SOL     OW 7139  12.332  14.452  12.280
 1769SOL    HW1 7140  12.247  14.410  12.261
 1769SOL    HW2 7141  12.372  14.397  12.347
 1770SOL     OW 7142   6.997   2.759  12.914
 1770SOL    HW1 7143   7.028   2.669  12.921
 1770SOL    HW2 7144   6.903   2.750  12.898
 1771SOL     OW 7145   4.395   6.097  14.164
 1771SOL    HW1 7146   4.448   6.086  14.243
 1771SOL    HW2 7147   4.338   6.021  14.163
 1772SOL     OW 7148  14.263   1.088   9.034
 1772SOL    HW1 7149  14.179   1.070   8.991
 1772SOL    HW2 7150  14.258   1.181   9.058
 1773SOL     OW 7151  10.677  11.393   4.456
 1773SOL    HW1 7152  10.753  11.375   4.401
 1773SOL    HW2 7153  10.687  11.484   4.483
 1774SOL     OW 7154  14.170  12.005   3.567
 1774SOL    HW1 7155  14.125  11.928   3.533
 1774SOL    HW2 7156  14.099  12.062   3.598
 1775SOL     OW 7157  11.439   0.460  12.806
 1775SOL    HW1 7158  11.462   0.546  12.841
 1775SOL    HW2 7159  11.494   0.399  12.855
 1776SOL     OW 7160   7.401   0.482   8.478
 1776SOL    HW1 7161   7.440   0.403   8.515
 1776SOL    HW2 7162   7.403   0.546   8.549
 1777SOL     OW 7163   6.040  12.967   7.490
 1777SOL    HW1 7164   6.071  12.956   7.580
 1777SOL    HW2 7165   5.961  12.912   7.486
 1778SOL     OW 7166  13.202   2.952   8.849
 1778SOL    HW1 7167  13.138   3.015   8.815
 1778SOL    HW2 7168  13.214   2.977   8.941
 1779SOL     OW 7169   9.524  13.717   6.148
 1779SOL    HW1 7170   9.511  13.754   6.061
 1779SOL    HW2 7171   9.490  13.628   6.142
 1780SOL     OW 7172   9.774   2.292   4.642
 1780SOL    HW1 7173   9.803   2.379   4.615
 1780SOL    HW2 7174   9.690   2.308   4.687
 1781SOL     OW 7175   4.178   4.085  12.868
 1781SOL    HW1 7176   4.266   4.123  12.866
 1781SOL    HW2 7177   4.121   4.160  12.885
 1782SOL     OW 7178   6.705   3.924   9.163
 1782SOL    HW1 7179   6.717   4.016   9.142
 1782SOL    HW2 7180   6.786   3.881   9.134
 1783SOL     OW 7181   2.055   3.930   0.244
 1783SOL    HW1 7182   2.049   3.854   0.302
 1783SOL    HW2 7183   2.137   3.917   0.196
 1784SOL     OW 7184   9.596  14.554   7.400
 1784SOL    HW1 7185   9.539  14.589   7.332
 1784SOL    HW2 7186   9.670  14.615   7.403
 1785SOL     OW 7187   1.854   5.612   8.412
 1785SOL    HW1 7188   1.926   5.553   8.432
 1785SOL    HW2 7189   1.857   5.678   8.481
 1786SOL     OW 7190  10.415   8.564   3.060
 1786SOL    HW1 7191  10.347   8.584   2.996
 1786SOL    HW2 7192  10.483   8.629   3.045
 1787SOL     OW 7193   6.022   3.979   2.300
 1787SOL    HW1 7194   6.088   4.039   2.334
 1787SOL    HW2 7195   6.057   3.892   2.320
 1788SOL     OW 7196   7.936   7.022  11.161
 1788SOL    HW1 7197   7.980   7.100  11.127
 1788SOL    HW2 7198   7.863   7.055  11.213
 1789SOL     OW 7199   1.496   2.165   2.874
 1789SOL    HW1 7200   1.505   2.071   2.864
 1789SOL    HW2 7201   1.523   2.183   2.964
 1790SOL     OW 7202   0.826   7.178   2.678
 1790SOL    HW1 7203   0.767   7.128   2.734
 1790SOL    HW2 7204   0.807   7.270   2.697
 1791SOL     OW 7205   4.617  10.537  14.825
 1791SOL    HW1 7206   4.661  10.551   0.029
 1791SOL    HW2 7207   4.612  10.441  14.816
 1792SOL     OW 7208   2.298   1.149  11.858
 1792SOL    HW1 7209   2.277   1.074  11.802
 1792SOL    HW2 7210   2.237   1.142  11.931
 1793SOL     OW 7211  13.278   7.833   4.045
 1793SOL    HW1 7212  13.312   7.910   4.000
 1793SOL    HW2 7213  13.350   7.806   4.103
 1794SOL     OW 7214  11.529   4.862   1.705
 1794SOL    HW1 7215  11.514   4.910   1.787
 1794SOL    HW2 7216  11.624   4.856   1.698
 1795SOL     OW 7217  12.816   3.954   9.670
 1795SOL    HW1 7218  12.744   3.911   9.716
 1795SOL    HW2 7219  12.785   4.044   9.656
 1796SOL     OW 7220  11.729  12.589   8.304
 1796SOL    HW1 7221  11.750  12.635   8.223
 1796SOL    HW2 7222  11.715  12.658   8.369
 1797SOL     OW 7223   7.535  10.953  14.514
 1797SOL    HW1 7224   7.537  10.877  14.573
 1797SOL    HW2 7225   7.613  10.943  14.459
 1798SOL     OW 7226   9.710   0.019   0.733
 1798SOL    HW1 7227   9.665  14.827   0.780
 1798SOL    HW2 7228   9.640   0.064   0.686
 1799SOL     OW 7229   3.483   5.853   9.396
 1799SOL    HW1 7230   3.477   5.942   9.432
 1799SOL    HW2 7231   3.560   5.855   9.339
 1800SOL     OW 7232  13.793  14.780  10.322
 1800SOL    HW1 7233  13.800  14.716  10.251
 1800SOL    HW2 7234  13.806  14.865  10.279
 1801SOL     OW 7235  10.033   4.297   1.675
 1801SOL    HW1 7236  10.038   4.381   1.630
 1801SOL    HW2 7237   9.962   4.308   1.739
 1802SOL     OW 7238   2.409   6.836   7.548
 1802SOL    HW1 7239   2.376   6.775   7.483
 1802SOL    HW2 7240   2.502   6.812   7.558
 1803SOL     OW 7241   3.266   6.708   8.526
 1803SOL    HW1 7242   3.201   6.640   8.507
 1803SOL    HW2 7243   3.250   6.732   8.617
 1804SOL     OW 7244   1.365  10.697  12.569
 1804SOL    HW1 7245   1.421  10.762  12.528
 1804SOL    HW2 7246   1.366  10.622  12.509
 1805SOL     OW 7247  14.172   8.154   2.112
 1805SOL    HW1 7248  14.224   8.076   2.095
 1805SOL    HW2 7249  14.209   8.222   2.056
 1806SOL     OW 7250   1.128   2.525   0.424
 1806SOL    HW1 7251   1.168   2.612   0.421
 1806SOL    HW2 7252   1.202   2.464   0.424
 1807SOL     OW 7253   1.709   9.731   1.005
 1807SOL    HW1 7254   1.681   9.804   1.059
 1807SOL    HW2 7255   1.637   9.668   1.011
 1808SOL     OW 7256   6.494   7.991  11.142
 1808SOL    HW1 7257   6.406   7.980  11.107
 1808SOL    HW2 7258   6.539   8.047  11.079
 1809SOL     OW 7259   8.715  11.025   2.777
 1809SOL    HW1 7260   8.776  11.008   2.848
 1809SOL    HW2 7261   8.682  10.939   2.752
 1810SOL     OW 7262  10.056   9.619  14.488
 1810SOL    HW1 7263  10.038   9.587  14.400
 1810SOL    HW2 7264   9.985   9.583  14.541
 1811SOL     OW 7265  14.160   8.671   5.744
 1811SOL    HW1 7266  14.088   8.729   5.767
 1811SOL    HW2 7267  14.144   8.592   5.794
 1812SOL     OW 7268   7.837  12.297   5.284
 1812SOL    HW1 7269   7.810  12.388   5.295
 1812SOL    HW2 7270   7.933  12.300   5.287
 1813SOL     OW 7271   1.418  11.329   6.955
 1813SOL    HW1 7272   1.496  11.309   7.006
 1813SOL    HW2 7273   1.380  11.406   6.997
 1814SOL     OW 7274   0.484   0.195   9.343
 1814SOL    HW1 7275   0.564   0.218   9.390
 1814SOL    HW2 7276   0.439   0.278   9.330
 1815SOL     OW 7277  14.689  11.790  13.494
 1815SOL    HW1 7278  14.667  11.861  13.554
 1815SOL    HW2 7279  14.785  11.785  13.496
 1816SOL     OW 7280   2.167   6.097   5.999
 1816SOL    HW1 7281   2.242   6.145   5.964
 1816SOL    HW2 7282   2.093   6.156   5.985
 1817SOL     OW 7283   5.469   3.084  14.108
 1817SOL    HW1 7284   5.516   3.003  14.128
 1817SOL    HW2 7285   5.378   3.056  14.097
 1818SOL     OW 7286   0.788   1.083   6.223
 1818SOL    HW1 7287   0.840   1.010   6.189
 1818SOL    HW2 7288   0.766   1.135   6.145
 1819SOL     OW 7289   0.701  12.452   2.837
 1819SOL    HW1 7290   0.609  12.477   2.840
 1819SOL    HW2 7291   0.738  12.484   2.919
 1820SOL     OW 7292   4.781   8.174   6.892
 1820SOL    HW1 7293   4.713   8.241   6.880
 1820SOL    HW2 7294   4.847   8.216   6.947
 1821SOL     OW 7295  13.353  10.941   0.930
 1821SOL    HW1 7296  13.352  10.954   1.024
 1821SOL    HW2 7297  13.309  11.020   0.895
 1822SOL     OW 7298   7.168   4.027  11.822
 1822SOL    HW1 7299   7.171   4.105  11.878
 1822SOL    HW2 7300   7.213   3.960  11.873
 1823SOL     OW 7301  11.550   5.113   2.163
 1823SOL    HW1 7302  11.538   5.208   2.166
 1823SOL    HW2 7303  11.586   5.090   2.249
 1824SOL     OW 7304   1.033  10.546  13.281
 1824SOL    HW1 7305   1.079  10.626  13.254
 1824SOL    HW2 7306   0.987  10.517  13.202
 1825SOL     OW 7307  13.699   0.779  12.184
 1825SOL    HW1 7308  13.696   0.875  12.181
 1825SOL    HW2 7309  13.792   0.758  12.189
 1826SOL     OW 7310   8.603  13.955   0.634
 1826SOL    HW1 7311   8.656  13.948   0.555
 1826SOL    HW2 7312   8.533  13.891   0.622
 1827SOL     OW 7313   3.879   8.625  10.167
 1827SOL    HW1 7314   3.970   8.625  10.137
 1827SOL    HW2 7315   3.828   8.616  10.087
 1828SOL     OW 7316  12.105   3.420   1.222
 1828SOL    HW1 7317  12.109   3.459   1.310
 1828SOL    HW2 7318  12.052   3.481   1.171
 1829SOL     OW 7319  10.887   4.053  13.682
 1829SOL    HW1 7320  10.905   4.057  13.588
 1829SOL    HW2 7321  10.799   4.015  13.688
 1830SOL     OW 7322  14.168  14.354   2.537
 1830SOL    HW1 7323  14.203  14.364   2.625
 1830SOL    HW2 7324  14.116  14.274   2.540
 1831SOL     OW 7325   8.399   2.148   3.308
 1831SOL    HW1 7326   8.345   2.139   3.230
 1831SOL    HW2 7327   8.367   2.079   3.367
 1832SOL     OW 7328  10.641   5.943   1.971
 1832SOL    HW1 7329  10.628   5.849   1.968
 1832SOL    HW2 7330  10.735   5.954   1.986
 1833SOL     OW 7331   3.637  11.201   0.551
 1833SOL    HW1 7332   3.621  11.294   0.531
 1833SOL    HW2 7333   3.731  11.191   0.543
 1834SOL     OW 7334   2.068   8.737   7.954
 1834SOL    HW1 7335   2.138   8.776   7.902
 1834SOL    HW2 7336   2.038   8.662   7.903
 1835SOL     OW 7337  12.887   5.896   0.371
 1835SOL    HW1 7338  12.960   5.949   0.402
 1835SOL    HW2 7339  12.869   5.834   0.442
 1836SOL     OW 7340  14.618   0.298   9.889
 1836SOL    HW1 7341  14.585   0.366   9.948
 1836SOL    HW2 7342  14.577   0.318   9.805
 1837SOL     OW 7343   9.800   7.849   0.443
 1837SOL    HW1 7344   9.842   7.764   0.432
 1837SOL    HW2 7345   9.862   7.900   0.495
 1838SOL     OW 7346  10.527   4.669  13.488
 1838SOL    HW1 7347  10.439   4.683  13.453
 1838SOL    HW2 7348  10.572   4.753  13.476
 1839SOL     OW 7349  12.152  14.458   5.749
 1839SOL    HW1 7350  12.070  14.478   5.794
 1839SOL    HW2 7351  12.157  14.362   5.750
 1840SOL     OW 7352  10.629   5.440   5.727
 1840SOL    HW1 7353  10.688   5.451   5.652
 1840SOL    HW2 7354  10.542   5.438   5.689
 1841SOL     OW 7355   4.871  14.390  12.548
 1841SOL    HW1 7356   4.780  14.389  12.519
 1841SOL    HW2 7357   4.880  14.314  12.605
 1842SOL     OW 7358   4.123   5.105   8.786
 1842SOL    HW1 7359   4.139   5.082   8.878
 1842SOL    HW2 7360   4.169   5.188   8.774
 1843SOL     OW 7361   1.129   1.508  12.701
 1843SOL    HW1 7362   1.087   1.564  12.636
 1843SOL    HW2 7363   1.198   1.463  12.652
 1844SOL     OW 7364  13.125   5.345   9.483
 1844SOL    HW1 7365  13.111   5.416   9.546
 1844SOL    HW2 7366  13.149   5.270   9.537
 1845SOL     OW 7367  12.043   6.234   9.928
 1845SOL    HW1 7368  12.042   6.307   9.865
 1845SOL    HW2 7369  12.004   6.160   9.880
 1846SOL     OW 7370   9.688  10.080   0.839
 1846SOL    HW1 7371   9.679   9.985   0.849
 1846SOL    HW2 7372   9.599  10.113   0.833
 1847SOL     OW 7373  14.628   4.163  10.807
 1847SOL    HW1 7374  14.621   4.121  10.721
 1847SOL    HW2 7375  14.602   4.254  10.792
 1848SOL     OW 7376   1.625  13.683   2.670
 1848SOL    HW1 7377   1.616  13.765   2.621
 1848SOL    HW2 7378   1.541  13.638   2.657
 1849SOL     OW 7379   0.983   8.024   4.192
 1849SOL    HW1 7380   0.892   8.043   4.170
 1849SOL    HW2 7381   0.985   7.930   4.208
 1850SOL     OW 7382  12.694  11.270   9.348
 1850SOL    HW1 7383  12.629  11.258   9.278
 1850SOL    HW2 7384  12.689  11.363   9.370
 1851SOL     OW 7385   9.628   7.780  10.334
 1851SOL    HW1 7386   9.542   7.754  10.301
 1851SOL    HW2 7387   9.638   7.731  10.415
 1852SOL     OW 7388  11.866   2.965   0.720
 1852SOL    HW1 7389  11.929   2.933   0.784
 1852SOL    HW2 7390  11.902   2.938   0.635
 1853SOL     OW 7391  11.064   8.269   5.430
 1853SOL    HW1 7392  11.149   8.293   5.469
 1853SOL    HW2 7393  11.076   8.179   5.400
 1854SOL     OW 7394   0.592   4.638   4.285
 1854SOL    HW1 7395   0.646   4.565   4.314
 1854SOL    HW2 7396   0.597   4.702   4.356
 1855SOL     OW 7397   8.053   3.313  12.513
 1855SOL    HW1 7398   8.034   3.372  12.586
 1855SOL    HW2 7399   7.982   3.329  12.451
 1856SOL     OW 7400  12.756   8.431   3.160
 1856SOL    HW1 7401  12.731   8.501   3.100
 1856SOL    HW2 7402  12.742   8.350   3.110
 1857SOL     OW 7403   0.500   3.947   5.042
 1857SOL    HW1 7404   0.462   3.999   4.972
 1857SOL    HW2 7405   0.571   4.000   5.077
 1858SOL     OW 7406  13.156   1.719   6.304
 1858SOL    HW1 7407  13.123   1.782   6.367
 1858SOL    HW2 7408  13.189   1.772   6.232
 1859SOL     OW 7409   9.886   1.633   4.628
 1859SOL    HW1 7410   9.840   1.573   4.569
 1859SOL    HW2 7411   9.821   1.699   4.651
 1860SOL     OW 7412   9.397   1.319   5.940
 1860SOL    HW1 7413   9.400   1.265   6.020
 1860SOL    HW2 7414   9.485   1.314   5.904
 1861SOL     OW 7415  12.541   3.319  10.776
 1861SOL    HW1 7416  12.542   3.346  10.684
 1861SOL    HW2 7417  12.595   3.385  10.821
 1862SOL     OW 7418   8.037   0.236   7.692
 1862SOL    HW1 7419   8.019   0.323   7.657
 1862SOL    HW2 7420   8.037   0.247   7.787
 1863SOL     OW 7421   6.381   1.037  12.786
 1863SOL    HW1 7422   6.437   0.968  12.823
 1863SOL    HW2 7423   6.437   1.115  12.785
 1864SOL     OW 7424   3.341   5.334   7.981
 1864SOL    HW1 7425   3.263   5.328   8.037
 1864SOL    HW2 7426   3.414   5.317   8.040
 1865SOL     OW 7427   0.200   3.027   2.869
 1865SOL    HW1 7428   0.250   3.098   2.829
 1865SOL    HW2 7429   0.122   3.019   2.814
 1866SOL     OW 7430  12.800  13.237   0.592
 1866SOL    HW1 7431  12.733  13.185   0.638
 1866SOL    HW2 7432  12.876  13.233   0.650
 1867SOL     OW 7433  11.781  13.312  11.009
 1867SOL    HW1 7434  11.774  13.232  10.958
 1867SOL    HW2 7435  11.750  13.381  10.950
 1868SOL     OW 7436   2.215   7.745   1.383
 1868SOL    HW1 7437   2.231   7.673   1.444
 1868SOL    HW2 7438   2.286   7.807   1.398
 1869SOL     OW 7439   2.811  11.301   9.694
 1869SOL    HW1 7440   2.881  11.237   9.678
 1869SOL    HW2 7441   2.797  11.343   9.609
 1870SOL     OW 7442  12.608   9.074  11.402
 1870SOL    HW1 7443  12.654   9.106  11.324
 1870SOL    HW2 7444  12.656   8.995  11.427
 1871SOL     OW 7445   5.407  14.468   8.887
 1871SOL    HW1 7446   5.445  14.396   8.836
 1871SOL    HW2 7447   5.457  14.469   8.968
 1872SOL     OW 7448  13.584   2.318   8.482
 1872SOL    HW1 7449  13.492   2.295   8.478
 1872SOL    HW2 7450  13.592   2.375   8.559
 1873SOL     OW 7451   2.557   2.081  12.858
 1873SOL    HW1 7452   2.481   2.027  12.878
 1873SOL    HW2 7453   2.520   2.165  12.830
 1874SOL     OW 7454   0.215   0.878   1.868
 1874SOL    HW1 7455   0.301   0.854   1.833
 1874SOL    HW2 7456   0.201   0.817   1.940
 1875SOL     OW 7457   7.521   7.942   3.314
 1875SOL    HW1 7458   7.517   7.880   3.241
 1875SOL    HW2 7459   7.584   8.008   3.286
 1876SOL     OW 7460  13.301  14.260  14.540
 1876SOL    HW1 7461  13.243  14.262  14.616
 1876SOL    HW2 7462  13.363  14.190  14.559
 1877SOL     OW 7463   6.594   6.457   6.181
 1877SOL    HW1 7464   6.509   6.413   6.173
 1877SOL    HW2 7465   6.644   6.402   6.242
 1878SOL     OW 7466   0.699   9.725  14.615
 1878SOL    HW1 7467   0.688   9.658  14.548
 1878SOL    HW2 7468   0.676   9.807  14.571
 1879SOL     OW 7469   4.361   8.482  14.831
 1879SOL    HW1 7470   4.440   8.444  14.869
 1879SOL    HW2 7471   4.312   8.408  14.797
 1880SOL     OW 7472  14.861   0.173   3.336
 1880SOL    HW1 7473   0.010   0.138   3.251
 1880SOL    HW2 7474   0.018   0.111   3.399
 1881SOL     OW 7475   2.191   1.282   1.991
 1881SOL    HW1 7476   2.097   1.275   2.009
 1881SOL    HW2 7477   2.198   1.357   1.932
 1882SOL     OW 7478  14.499   0.362   9.212
 1882SOL    HW1 7479  14.409   0.356   9.179
 1882SOL    HW2 7480  14.549   0.302   9.156
 1883SOL     OW 7481   1.274   9.437   9.725
 1883SOL    HW1 7482   1.342   9.478   9.778
 1883SOL    HW2 7483   1.317   9.415   9.643
 1884SOL     OW 7484  10.615   1.427   6.431
 1884SOL    HW1 7485  10.572   1.412   6.516
 1884SOL    HW2 7486  10.546   1.413   6.367
 1885SOL     OW 7487   1.558  11.699   2.739
 1885SOL    HW1 7488   1.510  11.671   2.661
 1885SOL    HW2 7489   1.490  11.726   2.801
 1886SOL     OW 7490   8.402   7.042   1.599
 1886SOL    HW1 7491   8.318   7.036   1.643
 1886SOL    HW2 7492   8.382   7.085   1.515
 1887SOL     OW 7493   7.832   1.351   4.214
 1887SOL    HW1 7494   7.855   1.418   4.149
 1887SOL    HW2 7495   7.841   1.268   4.166
 1888SOL     OW 7496  14.605  12.488   6.094
 1888SOL    HW1 7497  14.619  12.533   6.011
 1888SOL    HW2 7498  14.510  12.475   6.098
 1889SOL     OW 7499  14.346  13.285   9.798
 1889SOL    HW1 7500  14.434  13.251   9.782
 1889SOL    HW2 7501  14.354  13.338   9.877
 1890SOL     OW 7502   3.458   5.043   8.108
 1890SOL    HW1 7503   3.502   5.071   8.027
 1890SOL    HW2 7504   3.521   5.062   8.177
 1891SOL     OW 7505  13.816  13.324   5.777
 1891SOL    HW1 7506  13.778  13.268   5.845
 1891SOL    HW2 7507  13.741  13.368   5.737
 1892SOL     OW 7508   5.651   5.959   0.076
 1892SOL    HW1 7509   5.605   6.034   0.115
 1892SOL    HW2 7510   5.732   5.952   0.125
 1893SOL     OW 7511  11.687  10.096   0.988
 1893SOL    HW1 7512  11.600  10.057   0.983
 1893SOL    HW2 7513  11.736  10.038   1.046
 1894SOL     OW 7514  12.875   0.516   7.864
 1894SOL    HW1 7515  12.828   0.599   7.857
 1894SOL    HW2 7516  12.810   0.454   7.898
 1895SOL     OW 7517   1.014   0.099  13.766
 1895SOL    HW1 7518   0.950   0.049  13.716
 1895SOL    HW2 7519   0.978   0.101  13.855
 1896SOL     OW 7520   4.119  12.698   8.861
 1896SOL    HW1 7521   4.051  12.677   8.924
 1896SOL    HW2 7522   4.110  12.632   8.792
 1897SOL     OW 7523  10.806  13.163   2.954
 1897SOL    HW1 7524  10.860  13.114   3.016
 1897SOL    HW2 7525  10.776  13.097   2.891
 1898SOL     OW 7526  11.005   9.038  12.336
 1898SOL    HW1 7527  10.925   9.089  12.345
 1898SOL    HW2 7528  11.058   9.087  12.273
 1899SOL     OW 7529  12.682   7.386   2.691
 1899SOL    HW1 7530  12.771   7.365   2.719
 1899SOL    HW2 7531  12.627   7.359   2.764
 1900SOL     OW 7532   7.819  14.630   9.580
 1900SOL    HW1 7533   7.881  14.577   9.629
 1900SOL    HW2 7534   7.840  14.613   9.488
 1901SOL     OW 7535  14.221   1.275   4.064
 1901SOL    HW1 7536  14.197   1.258   4.155
 1901SOL    HW2 7537  14.209   1.191   4.020
 1902SOL     OW 7538   7.181  12.742  11.306
 1902SOL    HW1 7539   7.221  12.715  11.388
 1902SOL    HW2 7540   7.131  12.821  11.329
 1903SOL     OW 7541  12.899   0.430   2.926
 1903SOL    HW1 7542  12.868   0.520   2.939
 1903SOL    HW2 7543  12.839   0.377   2.978
 1904SOL     OW 7544   5.621   3.560   0.827
 1904SOL    HW1 7545   5.639   3.652   0.844
 1904SOL    HW2 7546   5.565   3.532   0.900
 1905SOL     OW 7547   8.116  12.323  12.101
 1905SOL    HW1 7548   8.106  12.241  12.148
 1905SOL    HW2 7549   8.210  12.329  12.084
 1906SOL     OW 7550   4.153   7.399   0.052
 1906SOL    HW1 7551   4.194   7.472   0.005
 1906SOL    HW2 7552   4.155   7.326  14.868
 1907SOL     OW 7553  11.483  13.477   1.319
 1907SOL    HW1 7554  11.511  13.563   1.287
 1907SOL    HW2 7555  11.544  13.416   1.279
 1908SOL     OW 7556  12.642  11.814   9.709
 1908SOL    HW1 7557  12.645  11.846   9.799
 1908SOL    HW2 7558  12.727  11.774   9.694
 1909SOL     OW 7559  14.206  14.070   6.906
 1909SOL    HW1 7560  14.266  14.096   6.836
 1909SOL    HW2 7561  14.241  13.987   6.939
 1910SOL     OW 7562  11.875   2.234  11.835
 1910SOL    HW1 7563  11.958   2.230  11.787
 1910SOL    HW2 7564  11.812   2.269  11.772
 1911SOL     OW 7565   6.334   1.718   6.511
 1911SOL    HW1 7566   6.325   1.696   6.604
 1911SOL    HW2 7567   6.422   1.755   6.503
 1912SOL     OW 7568   0.458   9.022   3.104
 1912SOL    HW1 7569   0.390   9.081   3.072
 1912SOL    HW2 7570   0.415   8.937   3.112
 1913SOL     OW 7571   8.091   3.137   9.428
 1913SOL    HW1 7572   8.042   3.057   9.444
 1913SOL    HW2 7573   8.025   3.201   9.400
 1914SOL     OW 7574   9.479   4.955   3.557
 1914SOL    HW1 7575   9.450   4.959   3.648
 1914SOL    HW2 7576   9.495   4.862   3.540
 1915SOL     OW 7577  10.632  11.593  11.759
 1915SOL    HW1 7578  10.553  11.548  11.728
 1915SOL    HW2 7579  10.693  11.522  11.779
 1916SOL     OW 7580   0.336   1.269   8.880
 1916SOL    HW1 7581   0.368   1.197   8.826
 1916SOL    HW2 7582   0.254   1.236   8.917
 1917SOL     OW 7583   6.807  11.838   7.124
 1917SOL    HW1 7584   6.769  11.803   7.205
 1917SOL    HW2 7585   6.896  11.803   7.123
 1918SOL     OW 7586   4.093  14.514   7.366
 1918SOL    HW1 7587   4.081  14.468   7.283
 1918SOL    HW2 7588   4.121  14.602   7.342
 1919SOL     OW 7589   1.613  12.949  13.781
 1919SOL    HW1 7590   1.702  12.916  13.795
 1919SOL    HW2 7591   1.625  13.027  13.728
 1920SOL     OW 7592   0.285   9.863   3.405
 1920SOL    HW1 7593   0.367   9.913   3.412
 1920SOL    HW2 7594   0.258   9.875   3.314
 1921SOL     OW 7595  11.944  11.861   6.813
 1921SOL    HW1 7596  11.853  11.838   6.831
 1921SOL    HW2 7597  11.992  11.831   6.889
 1922SOL     OW 7598   0.331   9.147   6.877
 1922SOL    HW1 7599   0.375   9.159   6.793
 1922SOL    HW2 7600   0.244   9.114   6.854
 1923SOL     OW 7601   8.795   2.555   8.945
 1923SOL    HW1 7602   8.742   2.572   9.023
 1923SOL    HW2 7603   8.870   2.614   8.954
 1924SOL     OW 7604   0.891   2.905  10.887
 1924SOL    HW1 7605   0.843   2.955  10.953
 1924SOL    HW2 7606   0.835   2.829  10.869
 1925SOL     OW 7607   8.223   1.999   8.135
 1925SOL    HW1 7608   8.273   1.920   8.156
 1925SOL    HW2 7609   8.226   2.051   8.215
 1926SOL     OW 7610   4.035   6.263   7.865
 1926SOL    HW1 7611   3.953   6.282   7.819
 1926SOL    HW2 7612   4.008   6.211   7.940
 1927SOL     OW 7613   3.658   7.661  10.103
 1927SOL    HW1 7614   3.563   7.664  10.090
 1927SOL    HW2 7615   3.693   7.637  10.017
 1928SOL     OW 7616   5.776  14.112  11.723
 1928SOL    HW1 7617   5.724  14.094  11.645
 1928SOL    HW2 7618   5.725  14.073  11.795
 1929SOL     OW 7619  14.830   7.105   6.221
 1929SOL    HW1 7620  14.804   7.195   6.242
 1929SOL    HW2 7621   0.031   7.091   6.271
 1930SOL     OW 7622   2.201  12.855   7.985
 1930SOL    HW1 7623   2.213  12.790   7.916
 1930SOL    HW2 7624   2.227  12.810   8.065
 1931SOL     OW 7625   6.015   7.660   5.323
 1931SOL    HW1 7626   5.956   7.724   5.362
 1931SOL    HW2 7627   5.971   7.576   5.335
 1932SOL     OW 7628   9.678  11.796  11.389
 1932SOL    HW1 7629   9.654  11.796  11.297
 1932SOL    HW2 7630   9.595  11.800  11.436
 1933SOL     OW 7631   9.018  12.397   1.623
 1933SOL    HW1 7632   8.974  12.481   1.612
 1933SOL    HW2 7633   8.961  12.334   1.579
 1934SOL     OW 7634   9.084  13.219   4.358
 1934SOL    HW1 7635   8.996  13.253   4.375
 1934SOL    HW2 7636   9.078  13.177   4.272
 1935SOL     OW 7637  14.021   4.175   3.888
 1935SOL    HW1 7638  14.016   4.254   3.835
 1935SOL    HW2 7639  13.934   4.167   3.927
 1936SOL     OW 7640  12.353   3.533   6.107
 1936SOL    HW1 7641  12.279   3.583   6.073
 1936SOL    HW2 7642  12.314   3.453   6.142
 1937SOL     OW 7643  12.228   8.959   3.261
 1937SOL    HW1 7644  12.292   8.908   3.310
 1937SOL    HW2 7645  12.152   8.964   3.319
 1938SOL     OW 7646   3.524   6.880   7.827
 1938SOL    HW1 7647   3.581   6.865   7.751
 1938SOL    HW2 7648   3.540   6.971   7.852
 1939SOL     OW 7649   0.236   6.695   4.319
 1939SOL    HW1 7650   0.295   6.770   4.309
 1939SOL    HW2 7651   0.186   6.714   4.399
 1940SOL     OW 7652   6.566   3.522   0.399
 1940SOL    HW1 7653   6.570   3.566   0.484
 1940SOL    HW2 7654   6.525   3.438   0.417
 1941SOL     OW 7655   6.650   9.544   3.980
 1941SOL    HW1 7656   6.716   9.554   4.048
 1941SOL    HW2 7657   6.633   9.634   3.950
 1942SOL     OW 7658  10.278   2.618   2.965
 1942SOL    HW1 7659  10.346   2.567   3.009
 1942SOL    HW2 7660  10.265   2.694   3.022
 1943SOL     OW 7661  14.861  13.058   6.259
 1943SOL    HW1 7662   0.040  13.075   6.334
 1943SOL    HW2 7663   0.019  13.109   6.187
 1944SOL     OW 7664   1.511   6.683   2.334
 1944SOL    HW1 7665   1.528   6.731   2.415
 1944SOL    HW2 7666   1.484   6.750   2.272
 1945SOL     OW 7667   6.165  14.350  13.856
 1945SOL    HW1 7668   6.187  14.419  13.920
 1945SOL    HW2 7669   6.093  14.387  13.805
 1946SOL     OW 7670   3.026  10.540  10.828
 1946SOL    HW1 7671   3.046  10.607  10.893
 1946SOL    HW2 7672   2.942  10.504  10.855
 1947SOL     OW 7673   2.634   2.358   0.109
 1947SOL    HW1 7674   2.614   2.280   0.056
 1947SOL    HW2 7675   2.632   2.327   0.199
 1948SOL     OW 7676  14.744   0.879   7.589
 1948SOL    HW1 7677  14.760   0.894   7.496
 1948SOL    HW2 7678  14.680   0.808   7.591
 1949SOL     OW 7679  12.274   3.354  10.792
 1949SOL    HW1 7680  12.296   3.422  10.728
 1949SOL    HW2 7681  12.358   3.316  10.817
 1950SOL     OW 7682   2.056   6.658   9.016
 1950SOL    HW1 7683   2.017   6.692   8.936
 1950SOL    HW2 7684   2.022   6.569   9.023
 1951SOL     OW 7685   0.145   5.093  12.990
 1951SOL    HW1 7686   0.101   5.166  13.035
 1951SOL    HW2 7687   0.224   5.132  12.954
 1952SOL     OW 7688  11.550   4.589   9.588
 1952SOL    HW1 7689  11.613   4.661   9.600
 1952SOL    HW2 7690  11.550   4.544   9.672
 1953SOL     OW 7691  13.984   7.770   1.195
 1953SOL    HW1 7692  14.022   7.802   1.276
 1953SOL    HW2 7693  14.057   7.769   1.132
 1954SOL     OW 7694  11.249   6.336  10.977
 1954SOL    HW1 7695  11.177   6.397  10.996
 1954SOL    HW2 7696  11.259   6.340  10.882
 1955SOL     OW 7697   1.452   6.937   5.222
 1955SOL    HW1 7698   1.424   6.865   5.278
 1955SOL    HW2 7699   1.541   6.957   5.251
 1956SOL     OW 7700   7.695   6.009  12.712
 1956SOL    HW1 7701   7.757   5.941  12.738
 1956SOL    HW2 7702   7.695   6.007  12.616
 1957SOL     OW 7703   4.370   3.190  14.559
 1957SOL    HW1 7704   4.435   3.139  14.607
 1957SOL    HW2 7705   4.408   3.278  14.552
 1958SOL     OW 7706   3.327   5.111   1.283
 1958SOL    HW1 7707   3.269   5.041   1.253
 1958SOL    HW2 7708   3.409   5.096   1.235
 1959SOL     OW 7709   2.970   6.484   1.009
 1959SOL    HW1 7710   3.052   6.503   1.053
 1959SOL    HW2 7711   2.960   6.389   1.016
 1960SOL     OW 7712   4.641  10.543   2.047
 1960SOL    HW1 7713   4.556  10.561   2.088
 1960SOL    HW2 7714   4.619  10.517   1.958
 1961SOL     OW 7715   0.750   5.293   9.142
 1961SOL    HW1 7716   0.839   5.284   9.177
 1961SOL    HW2 7717   0.694   5.245   9.202
 1962SOL     OW 7718   5.960  13.319   0.386
 1962SOL    HW1 7719   5.947  13.267   0.307
 1962SOL    HW2 7720   5.906  13.397   0.372
 1963SOL     OW 7721   2.806   7.512  13.955
 1963SOL    HW1 7722   2.871   7.582  13.966
 1963SOL    HW2 7723   2.798   7.503  13.860
 1964SOL     OW 7724   5.806  14.374  14.746
 1964SOL    HW1 7725   5.767  14.459  14.725
 1964SOL    HW2 7726   5.804  14.369  14.841
 1965SOL     OW 7727  12.458  11.078   8.079
 1965SOL    HW1 7728  12.454  11.115   8.168
 1965SOL    HW2 7729  12.387  11.014   8.076
 1966SOL     OW 7730   1.221  10.272   5.258
 1966SOL    HW1 7731   1.163  10.334   5.214
 1966SOL    HW2 7732   1.307  10.290   5.223
 1967SOL     OW 7733  13.666   9.783  11.011
 1967SOL    HW1 7734  13.699   9.694  11.018
 1967SOL    HW2 7735  13.662   9.800  10.917
 1968SOL     OW 7736  11.920   3.250  12.125
 1968SOL    HW1 7737  11.916   3.324  12.066
 1968SOL    HW2 7738  11.871   3.180  12.081
 1969SOL     OW 7739  13.253  14.638   3.800
 1969SOL    HW1 7740  13.297  14.723   3.789
 1969SOL    HW2 7741  13.321  14.581   3.836
 1970SOL     OW 7742   4.789   1.247  13.674
 1970SOL    HW1 7743   4.784   1.252  13.579
 1970SOL    HW2 7744   4.715   1.298  13.705
 1971SOL     OW 7745   8.278  11.819   5.330
 1971SOL    HW1 7746   8.372  11.834   5.341
 1971SOL    HW2 7747   8.263  11.732   5.367
 1972SOL     OW 7748   8.902   1.601  12.796
 1972SOL    HW1 7749   8.826   1.600  12.738
 1972SOL    HW2 7750   8.953   1.524  12.770
 1973SOL     OW 7751  14.347   7.283   0.176
 1973SOL    HW1 7752  14.409   7.224   0.134
 1973SOL    HW2 7753  14.390   7.368   0.176
 1974SOL     OW 7754   4.157   0.694  14.832
 1974SOL    HW1 7755   4.100   0.755  14.878
 1974SOL    HW2 7756   4.122   0.690  14.743
 1975SOL     OW 7757  12.038  11.252  11.244
 1975SOL    HW1 7758  12.128  11.282  11.230
 1975SOL    HW2 7759  12.044  11.194  11.320
 1976SOL     OW 7760   6.595   5.303   4.995
 1976SOL    HW1 7761   6.679   5.285   4.952
 1976SOL    HW2 7762   6.618   5.318   5.086
 1977SOL     OW 7763  13.611  13.981   1.703
 1977SOL    HW1 7764  13.531  13.966   1.754
 1977SOL    HW2 7765  13.682  13.959   1.763
 1978SOL     OW 7766   1.668  14.200  13.437
 1978SOL    HW1 7767   1.616  14.269  13.478
 1978SOL    HW2 7768   1.758  14.234  13.439
 1979SOL     OW 7769   3.160  14.434  14.063
 1979SOL    HW1 7770   3.067  14.410  14.059
 1979SOL    HW2 7771   3.203  14.358  14.102
 1980SOL     OW 7772  13.978   1.993  12.119
 1980SOL    HW1 7773  14.016   1.907  12.102
 1980SOL    HW2 7774  13.886   1.976  12.138
 1981SOL     OW 7775   3.078  12.186   5.780
 1981SOL    HW1 7776   3.054  12.272   5.814
 1981SOL    HW2 7777   3.017  12.125   5.821
 1982SOL     OW 7778   4.917  14.425   3.158
 1982SOL    HW1 7779   4.909  14.368   3.082
 1982SOL    HW2 7780   4.827  14.442   3.185
 1983SOL     OW 7781   9.806   4.995   3.537
 1983SOL    HW1 7782   9.771   4.907   3.525
 1983SOL    HW2 7783   9.890   4.982   3.580
 1984SOL     OW 7784  10.858   2.576   1.914
 1984SOL    HW1 7785  10.818   2.588   2.000
 1984SOL    HW2 7786  10.785   2.554   1.856
 1985SOL     OW 7787  12.821  10.367   3.196
 1985SOL    HW1 7788  12.879  10.312   3.143
 1985SOL    HW2 7789  12.853  10.456   3.181
 1986SOL     OW 7790   7.939   1.137  10.256
 1986SOL    HW1 7791   7.885   1.198  10.307
 1986SOL    HW2 7792   7.996   1.194  10.204
 1987SOL     OW 7793   3.080  11.025  12.765
 1987SOL    HW1 7794   3.061  10.951  12.707
 1987SOL    HW2 7795   3.007  11.085  12.752
 1988SOL     OW 7796   6.309   9.642   5.995
 1988SOL    HW1 7797   6.381   9.639   6.058
 1988SOL    HW2 7798   6.288   9.550   5.979
 1989SOL     OW 7799  12.473   5.946   8.983
 1989SOL    HW1 7800  12.423   5.967   8.904
 1989SOL    HW2 7801  12.414   5.891   9.034
 1990SOL     OW 7802  14.773  13.691  14.638
 1990SOL    HW1 7803  14.785  13.749  14.563
 1990SOL    HW2 7804  14.771  13.603  14.601
 1991SOL     OW 7805   7.884  12.487   0.594
 1991SOL    HW1 7806   7.803  12.479   0.543
 1991SOL    HW2 7807   7.954  12.469   0.531
 1992SOL     OW 7808  10.554   4.730   7.037
 1992SOL    HW1 7809  10.557   4.714   6.942
 1992SOL    HW2 7810  10.461   4.728   7.059
 1993SOL     OW 7811   3.410   2.700   9.855
 1993SOL    HW1 7812   3.475   2.637   9.824
 1993SOL    HW2 7813   3.369   2.657   9.930
 1994SOL     OW 7814   2.404   1.125  13.671
 1994SOL    HW1 7815   2.336   1.149  13.608
 1994SOL    HW2 7816   2.357   1.117  13.754
 1995SOL     OW 7817  12.841  12.431   6.166
 1995SOL    HW1 7818  12.818  12.519   6.194
 1995SOL    HW2 7819  12.761  12.380   6.178
 1996SOL     OW 7820  11.958   2.867  14.275
 1996SOL    HW1 7821  11.938   2.909  14.359
 1996SOL    HW2 7822  12.042   2.904  14.249
 1997SOL     OW 7823   8.580   8.690  14.725
 1997SOL    HW1 7824   8.543   8.621  14.670
 1997SOL    HW2 7825   8.616   8.754  14.663
 1998SOL     OW 7826   2.201   6.796   5.182
 1998SOL    HW1 7827   2.144   6.873   5.191
 1998SOL    HW2 7828   2.180   6.761   5.096
 1999SOL     OW 7829   3.258   7.905   1.254
 1999SOL    HW1 7830   3.222   7.817   1.242
 1999SOL    HW2 7831   3.340   7.890   1.301
 2000SOL     OW 7832  12.877   9.076  11.949
 2000SOL    HW1 7833  12.819   9.118  11.886
 2000SOL    HW2 7834  12.837   8.990  11.964
 2001SOL     OW 7835   1.996  11.399  10.008
 2001SOL    HW1 7836   2.045  11.420  10.088
 2001SOL    HW2 7837   1.935  11.472   9.997
 2002SOL     OW 7838   4.914  11.611   8.591
 2002SOL    HW1 7839   4.899  11.517   8.575
 2002SOL    HW2 7840   4.832  11.643   8.628
 2003SOL     OW 7841   3.787   5.135   1.919
 2003SOL    HW1 7842   3.764   5.098   2.004
 2003SOL    HW2 7843   3.741   5.219   1.916
 2004SOL     OW 7844  10.920   2.383   4.430
 2004SOL    HW1 7845  10.981   2.431   4.373
 2004SOL    HW2 7846  10.975   2.349   4.500
 2005SOL     OW 7847   4.449  12.237   0.188
 2005SOL    HW1 7848   4.517  12.304   0.202
 2005SOL    HW2 7849   4.477  12.190   0.110
 2006SOL     OW 7850   0.837  14.347  10.286
 2006SOL    HW1 7851   0.831  14.439  10.259
 2006SOL    HW2 7852   0.868  14.351  10.377
 2007SOL     OW 7853   5.363  10.401  12.788
 2007SOL    HW1 7854   5.401  10.405  12.876
 2007SOL    HW2 7855   5.390  10.315  12.754
 2008SOL     OW 7856  10.681  11.983   3.145
 2008SOL    HW1 7857  10.642  11.956   3.063
 2008SOL    HW2 7858  10.764  11.935   3.150
 2009SOL     OW 7859   2.555   0.136   1.334
 2009SOL    HW1 7860   2.521   0.063   1.387
 2009SOL    HW2 7861   2.649   0.139   1.354
 2010SOL     OW 7862  13.144   4.824   0.209
 2010SOL    HW1 7863  13.143   4.918   0.193
 2010SOL    HW2 7864  13.143   4.785   0.122
 2011SOL     OW 7865   3.081   5.940  14.233
 2011SOL    HW1 7866   3.058   5.861  14.184
 2011SOL    HW2 7867   3.030   6.010  14.191
 2012SOL     OW 7868  13.327  10.100   8.291
 2012SOL    HW1 7869  13.353  10.077   8.202
 2012SOL    HW2 7870  13.235  10.077   8.296
 2013SOL     OW 7871  12.218   5.199   3.912
 2013SOL    HW1 7872  12.244   5.193   3.820
 2013SOL    HW2 7873  12.137   5.148   3.918
 2014SOL     OW 7874   6.382   6.948   8.536
 2014SOL    HW1 7875   6.462   6.996   8.516
 2014SOL    HW2 7876   6.345   6.995   8.611
 2015SOL     OW 7877   7.960  12.556   8.882
 2015SOL    HW1 7878   7.945  12.557   8.977
 2015SOL    HW2 7879   8.009  12.476   8.866
 2016SOL     OW 7880   4.675   7.474  12.170
 2016SOL    HW1 7881   4.611   7.421  12.217
 2016SOL    HW2 7882   4.758   7.455  12.214
 2017SOL     OW 7883   6.320  12.356   5.343
 2017SOL    HW1 7884   6.295  12.443   5.314
 2017SOL    HW2 7885   6.330  12.306   5.262
 2018SOL     OW 7886   8.267  11.250   8.088
 2018SOL    HW1 7887   8.200  11.295   8.139
 2018SOL    HW2 7888   8.258  11.158   8.112
 2019SOL     OW 7889   6.732   3.894  11.815
 2019SOL    HW1 7890   6.668   3.873  11.884
 2019SOL    HW2 7891   6.797   3.949  11.859
 2020SOL     OW 7892   9.521   7.059  14.364
 2020SOL    HW1 7893   9.453   7.021  14.307
 2020SOL    HW2 7894   9.534   7.148  14.330
 2021SOL     OW 7895   8.847   8.778  12.469
 2021SOL    HW1 7896   8.821   8.781  12.561
 2021SOL    HW2 7897   8.774   8.733  12.426
 2022SOL     OW 7898   2.867   7.699  13.409
 2022SOL    HW1 7899   2.850   7.632  13.343
 2022SOL    HW2 7900   2.831   7.779  13.372
 2023SOL     OW 7901   7.161  11.802  11.150
 2023SOL    HW1 7902   7.231  11.867  11.137
 2023SOL    HW2 7903   7.168  11.745  11.074
 2024SOL     OW 7904   9.083   2.634  10.422
 2024SOL    HW1 7905   9.010   2.642  10.360
 2024SOL    HW2 7906   9.042   2.613  10.506
 2025SOL     OW 7907   0.707   1.472  13.275
 2025SOL    HW1 7908   0.634   1.413  13.258
 2025SOL    HW2 7909   0.784   1.414  13.274
 2026SOL     OW 7910   3.507  10.106   2.446
 2026SOL    HW1 7911   3.513  10.195   2.482
 2026SOL    HW2 7912   3.471  10.119   2.358
 2027SOL     OW 7913  12.140   5.165   3.198
 2027SOL    HW1 7914  12.085   5.103   3.248
 2027SOL    HW2 7915  12.095   5.249   3.206
 2028SOL     OW 7916   5.335   9.561   1.297
 2028SOL    HW1 7917   5.402   9.629   1.286
 2028SOL    HW2 7918   5.264   9.605   1.344
 2029SOL     OW 7919   2.234  14.452   6.037
 2029SOL    HW1 7920   2.255  14.402   5.959
 2029SOL    HW2 7921   2.161  14.405   6.077
 2030SOL     OW 7922   3.158  11.185   7.374
 2030SOL    HW1 7923   3.138  11.180   7.281
 2030SOL    HW2 7924   3.073  11.182   7.417
 2031SOL     OW 7925   5.417   1.275   2.897
 2031SOL    HW1 7926   5.329   1.290   2.933
 2031SOL    HW2 7927   5.409   1.195   2.846
 2032SOL     OW 7928   4.208   5.386  14.288
 2032SOL    HW1 7929   4.139   5.433  14.240
 2032SOL    HW2 7930   4.165   5.355  14.368
 2033SOL     OW 7931   1.782   2.989   9.508
 2033SOL    HW1 7932   1.822   3.065   9.465
 2033SOL    HW2 7933   1.726   3.027   9.576
 2034SOL     OW 7934  11.264   6.410   7.676
 2034SOL    HW1 7935  11.276   6.315   7.670
 2034SOL    HW2 7936  11.206   6.432   7.604
 2035SOL     OW 7937  10.347   3.228  11.216
 2035SOL    HW1 7938  10.365   3.233  11.310
 2035SOL    HW2 7939  10.252   3.222  11.210
 2036SOL     OW 7940   0.762   5.100   1.917
 2036SOL    HW1 7941   0.677   5.060   1.897
 2036SOL    HW2 7942   0.817   5.026   1.943
 2037SOL     OW 7943  12.953   2.907   3.744
 2037SOL    HW1 7944  12.914   2.849   3.810
 2037SOL    HW2 7945  13.046   2.886   3.746
 2038SOL     OW 7946   1.392   5.119  11.194
 2038SOL    HW1 7947   1.455   5.188  11.211
 2038SOL    HW2 7948   1.438   5.058  11.137
 2039SOL     OW 7949   6.601  12.597  11.569
 2039SOL    HW1 7950   6.654  12.531  11.525
 2039SOL    HW2 7951   6.560  12.551  11.642
 2040SOL     OW 7952   3.653   4.617  11.305
 2040SOL    HW1 7953   3.598   4.685  11.267
 2040SOL    HW2 7954   3.704   4.663  11.373
 2041SOL     OW 7955   5.629   4.999   3.243
 2041SOL    HW1 7956   5.557   5.045   3.287
 2041SOL    HW2 7957   5.591   4.967   3.162
 2042SOL     OW 7958   5.455   1.637   2.761
 2042SOL    HW1 7959   5.385   1.589   2.718
 2042SOL    HW2 7960   5.506   1.676   2.690
 2043SOL     OW 7961   8.121  14.288   0.173
 2043SOL    HW1 7962   8.198  14.278   0.117
 2043SOL    HW2 7963   8.061  14.342   0.122
 2044SOL     OW 7964  10.201  11.237  14.363
 2044SOL    HW1 7965  10.195  11.250  14.458
 2044SOL    HW2 7966  10.131  11.292  14.327
 2045SOL     OW 7967   8.749   9.161   1.089
 2045SOL    HW1 7968   8.795   9.228   1.141
 2045SOL    HW2 7969   8.709   9.210   1.017
 2046SOL     OW 7970  10.537   1.709   4.532
 2046SOL    HW1 7971  10.577   1.727   4.617
 2046SOL    HW2 7972  10.525   1.795   4.491
 2047SOL     OW 7973   1.379  12.041   5.460
 2047SOL    HW1 7974   1.349  11.980   5.527
 2047SOL    HW2 7975   1.473  12.048   5.474
 2048SOL     OW 7976   8.716   5.520   0.600
 2048SOL    HW1 7977   8.626   5.525   0.567
 2048SOL    HW2 7978   8.729   5.602   0.647
 2049SOL     OW 7979   2.005   9.827  11.737
 2049SOL    HW1 7980   1.928   9.837  11.680
 2049SOL    HW2 7981   1.997   9.738  11.772
 2050SOL     OW 7982   7.837   0.822   5.664
 2050SOL    HW1 7983   7.814   0.868   5.744
 2050SOL    HW2 7984   7.767   0.759   5.651
 2051SOL     OW 7985   8.453  10.361   4.360
 2051SOL    HW1 7986   8.497  10.444   4.376
 2051SOL    HW2 7987   8.371  10.385   4.317
 2052SOL     OW 7988  12.956   3.999   4.804
 2052SOL    HW1 7989  12.931   4.013   4.713
 2052SOL    HW2 7990  12.879   4.025   4.854
 2053SOL     OW 7991   7.203   3.808   6.654
 2053SOL    HW1 7992   7.270   3.793   6.588
 2053SOL    HW2 7993   7.239   3.770   6.734
 2054SOL     OW 7994   1.292   3.981   8.441
 2054SOL    HW1 7995   1.320   3.889   8.442
 2054SOL    HW2 7996   1.365   4.028   8.403
 2055SOL     OW 7997  12.164   7.299   5.310
 2055SOL    HW1 7998  12.089   7.356   5.327
 2055SOL    HW2 7999  12.228   7.322   5.378
 2056SOL     OW 8000   3.269   5.480   4.778
 2056SOL    HW1 8001   3.221   5.528   4.845
 2056SOL    HW2 8002   3.202   5.430   4.731
 2057SOL     OW 8003   8.082   8.572   3.476
 2057SOL    HW1 8004   8.076   8.591   3.382
 2057SOL    HW2 8005   8.176   8.567   3.494
 2058SOL     OW 8006  11.468   1.683  14.101
 2058SOL    HW1 8007  11.526   1.665  14.027
 2058SOL    HW2 8008  11.394   1.729  14.061
 2059SOL     OW 8009   8.453  10.013   0.668
 2059SOL    HW1 8010   8.426   9.975   0.752
 2059SOL    HW2 8011   8.498  10.094   0.692
 2060SOL     OW 8012  14.293   9.964  12.939
 2060SOL    HW1 8013  14.296   9.882  12.890
 2060SOL    HW2 8014  14.383   9.977  12.969
 2061SOL     OW 8015   7.594  14.021   2.894
 2061SOL    HW1 8016   7.645  13.946   2.864
 2061SOL    HW2 8017   7.555  14.056   2.814
 2062SOL     OW 8018   4.863  14.730   4.746
 2062SOL    HW1 8019   4.771  14.708   4.728
 2062SOL    HW2 8020   4.885  14.678   4.823
 2063SOL     OW 8021   9.995   3.767  14.396
 2063SOL    HW1 8022  10.051   3.705  14.442
 2063SOL    HW2 8023  10.022   3.760  14.304
 2064SOL     OW 8024   9.841   9.416   8.232
 2064SOL    HW1 8025   9.758   9.449   8.196
 2064SOL    HW2 8026   9.829   9.321   8.234
 2065SOL     OW 8027   4.768   6.073   0.668
 2065SOL    HW1 8028   4.735   5.984   0.665
 2065SOL    HW2 8029   4.859   6.065   0.696
 2066SOL     OW 8030   7.083   2.580  13.896
 2066SOL    HW1 8031   7.046   2.630  13.823
 2066SOL    HW2 8032   7.011   2.524  13.925
 2067SOL     OW 8033  11.054   4.295   1.657
 2067SOL    HW1 8034  11.049   4.389   1.641
 2067SOL    HW2 8035  11.118   4.263   1.594
 2068SOL     OW 8036   1.040   2.064   4.506
 2068SOL    HW1 8037   1.009   2.044   4.418
 2068SOL    HW2 8038   0.962   2.091   4.554
 2069SOL     OW 8039   8.043  13.395  11.336
 2069SOL    HW1 8040   8.060  13.395  11.430
 2069SOL    HW2 8041   8.024  13.486  11.315
 2070SOL     OW 8042  10.162  10.897  11.288
 2070SOL    HW1 8043  10.193  10.817  11.329
 2070SOL    HW2 8044  10.205  10.898  11.202
 2071SOL     OW 8045  14.607   3.881   0.438
 2071SOL    HW1 8046  14.530   3.833   0.408
 2071SOL    HW2 8047  14.589   3.972   0.412
 2072SOL     OW 8048   6.044   4.038   9.504
 2072SOL    HW1 8049   6.041   3.949   9.539
 2072SOL    HW2 8050   6.044   4.027   9.409
 2073SOL     OW 8051  10.790   4.882   5.632
 2073SOL    HW1 8052  10.833   4.951   5.683
 2073SOL    HW2 8053  10.853   4.810   5.630
 2074SOL     OW 8054  11.683   8.003  12.524
 2074SOL    HW1 8055  11.635   7.921  12.532
 2074SOL    HW2 8056  11.775   7.978  12.535
 2075SOL     OW 8057   5.114  12.668   0.749
 2075SOL    HW1 8058   5.118  12.679   0.844
 2075SOL    HW2 8059   5.021  12.657   0.729
 2076SOL     OW 8060   2.463   5.477  10.255
 2076SOL    HW1 8061   2.477   5.528  10.335
 2076SOL    HW2 8062   2.497   5.390  10.276
 2077SOL     OW 8063   9.093   9.283   1.431
 2077SOL    HW1 8064   9.093   9.197   1.474
 2077SOL    HW2 8065   9.142   9.269   1.350
 2078SOL     OW 8066   6.835  13.457   5.874
 2078SOL    HW1 8067   6.869  13.471   5.786
 2078SOL    HW2 8068   6.742  13.477   5.867
 2079SOL     OW 8069  12.130  12.287   1.615
 2079SOL    HW1 8070  12.118  12.305   1.708
 2079SOL    HW2 8071  12.221  12.310   1.597
 2080SOL     OW 8072   7.075   7.937   4.440
 2080SOL    HW1 8073   7.088   8.030   4.462
 2080SOL    HW2 8074   7.018   7.939   4.362
 2081SOL     OW 8075   1.339  14.228   2.579
 2081SOL    HW1 8076   1.248  14.213   2.603
 2081SOL    HW2 8077   1.347  14.192   2.491
 2082SOL     OW 8078   0.825   9.942   7.102
 2082SOL    HW1 8079   0.797  10.010   7.041
 2082SOL    HW2 8080   0.910   9.914   7.070
 2083SOL     OW 8081   8.943   3.896  12.902
 2083SOL    HW1 8082   8.940   3.800  12.900
 2083SOL    HW2 8083   9.018   3.919  12.848
 2084SOL     OW 8084   5.479   2.021  12.292
 2084SOL    HW1 8085   5.535   2.092  12.262
 2084SOL    HW2 8086   5.478   1.959  12.219
 2085SOL     OW 8087   6.803  12.481   9.172
 2085SOL    HW1 8088   6.858  12.558   9.188
 2085SOL    HW2 8089   6.721  12.517   9.139
 2086SOL     OW 8090   6.111  10.934   8.103
 2086SOL    HW1 8091   6.205  10.947   8.088
 2086SOL    HW2 8092   6.099  10.839   8.099
 2087SOL     OW 8093   2.915   8.797   4.067
 2087SOL    HW1 8094   2.903   8.734   4.138
 2087SOL    HW2 8095   2.970   8.865   4.105
 2088SOL     OW 8096   4.433  11.650  12.913
 2088SOL    HW1 8097   4.493  11.576  12.921
 2088SOL    HW2 8098   4.357  11.614  12.866
 2089SOL     OW 8099   0.767  11.403  12.558
 2089SOL    HW1 8100   0.672  11.401  12.540
 2089SOL    HW2 8101   0.795  11.490  12.529
 2090SOL     OW 8102   1.490   1.237   1.124
 2090SOL    HW1 8103   1.487   1.248   1.029
 2090SOL    HW2 8104   1.582   1.251   1.147
 2091SOL     OW 8105   1.069   3.280   2.850
 2091SOL    HW1 8106   1.009   3.354   2.847
 2091SOL    HW2 8107   1.081   3.255   2.758
 2092SOL     OW 8108  13.560   3.032   9.217
 2092SOL    HW1 8109  13.535   3.118   9.182
 2092SOL    HW2 8110  13.512   3.026   9.300
 2093SOL     OW 8111  11.150   4.463   3.178
 2093SOL    HW1 8112  11.075   4.485   3.123
 2093SOL    HW2 8113  11.147   4.528   3.249
 2094SOL     OW 8114   7.486   3.243   4.067
 2094SOL    HW1 8115   7.572   3.280   4.046
 2094SOL    HW2 8116   7.461   3.194   3.988
 2095SOL     OW 8117  13.283   9.150   4.792
 2095SOL    HW1 8118  13.215   9.094   4.756
 2095SOL    HW2 8119  13.351   9.153   4.725
 2096SOL     OW 8120   2.811  11.815  10.775
 2096SOL    HW1 8121   2.857  11.894  10.748
 2096SOL    HW2 8122   2.722  11.826  10.742
 2097SOL     OW 8123   4.675   2.577   6.615
 2097SOL    HW1 8124   4.656   2.655   6.667
 2097SOL    HW2 8125   4.621   2.586   6.537
 2098SOL     OW 8126   5.180  14.674   5.274
 2098SOL    HW1 8127   5.107  14.641   5.221
 2098SOL    HW2 8128   5.252  14.612   5.257
 2099SOL     OW 8129  13.059   2.703  12.499
 2099SOL    HW1 8130  13.114   2.702  12.421
 2099SOL    HW2 8131  13.020   2.615  12.501
 2100SOL     OW 8132  12.471   1.733   3.390
 2100SOL    HW1 8133  12.489   1.699   3.302
 2100SOL    HW2 8134  12.464   1.827   3.378
 2101SOL     OW 8135   9.814  12.070   6.104
 2101SOL    HW1 8136   9.779  12.016   6.175
 2101SOL    HW2 8137   9.888  12.117   6.145
 2102SOL     OW 8138  10.913   1.012  10.794
 2102SOL    HW1 8139  10.882   1.102  10.791
 2102SOL    HW2 8140  10.882   0.979  10.879
 2103SOL     OW 8141   8.360   1.740  13.801
 2103SOL    HW1 8142   8.284   1.760  13.747
 2103SOL    HW2 8143   8.372   1.645  13.790
 2104SOL     OW 8144   9.638   8.600  11.692
 2104SOL    HW1 8145   9.567   8.619  11.631
 2104SOL    HW2 8146   9.597   8.554  11.765
 2105SOL     OW 8147   2.236   1.579  10.766
 2105SOL    HW1 8148   2.269   1.492  10.789
 2105SOL    HW2 8149   2.266   1.635  10.838
 2106SOL     OW 8150   7.532   5.079   2.494
 2106SOL    HW1 8151   7.604   5.018   2.509
 2106SOL    HW2 8152   7.565   5.138   2.426
 2107SOL     OW 8153  13.973   8.795   8.162
 2107SOL    HW1 8154  14.007   8.730   8.101
 2107SOL    HW2 8155  13.992   8.879   8.119
 2108SOL     OW 8156  13.307  13.504  11.263
 2108SOL    HW1 8157  13.332  13.413  11.282
 2108SOL    HW2 8158  13.223  13.496  11.217
 2109SOL     OW 8159  13.205   4.519  12.065
 2109SOL    HW1 8160  13.234   4.601  12.026
 2109SOL    HW2 8161  13.145   4.481  12.001
 2110SOL     OW 8162  11.647   6.756   7.483
 2110SOL    HW1 8163  11.638   6.847   7.455
 2110SOL    HW2 8164  11.735   6.752   7.522
 2111SOL     OW 8165   4.352  14.854   2.936
 2111SOL    HW1 8166   4.407  14.825   3.008
 2111SOL    HW2 8167   4.414  14.874   2.865
 2112SOL     OW 8168  11.715   0.873  11.989
 2112SOL    HW1 8169  11.642   0.848  11.933
 2112SOL    HW2 8170  11.782   0.905  11.929
 2113SOL     OW 8171  14.441   0.338  13.193
 2113SOL    HW1 8172  14.531   0.309  13.181
 2113SOL    HW2 8173  14.388   0.259  13.182
 2114SOL     OW 8174  13.892   2.006   5.026
 2114SOL    HW1 8175  13.818   1.945   5.017
 2114SOL    HW2 8176  13.963   1.965   4.976
 2115SOL     OW 8177  12.637  11.323   6.287
 2115SOL    HW1 8178  12.660  11.393   6.225
 2115SOL    HW2 8179  12.588  11.368   6.356
 2116SOL     OW 8180   1.970   3.111   0.344
 2116SOL    HW1 8181   1.923   3.084   0.422
 2116SOL    HW2 8182   2.029   3.180   0.375
 2117SOL     OW 8183  12.728   7.465   7.196
 2117SOL    HW1 8184  12.647   7.422   7.171
 2117SOL    HW2 8185  12.762   7.502   7.114
 2118SOL     OW 8186   1.956  12.698  14.320
 2118SOL    HW1 8187   1.970  12.631  14.386
 2118SOL    HW2 8188   2.013  12.673  14.248
 2119SOL     OW 8189  10.060   6.077   7.059
 2119SOL    HW1 8190  10.083   6.000   7.112
 2119SOL    HW2 8191  10.115   6.070   6.982
 2120SOL     OW 8192  10.386   6.403   8.394
 2120SOL    HW1 8193  10.300   6.364   8.384
 2120SOL    HW2 8194  10.400   6.452   8.313
 2121SOL     OW 8195   0.893   9.980   7.390
 2121SOL    HW1 8196   0.850   9.976   7.305
 2121SOL    HW2 8197   0.958   9.910   7.388
 2122SOL     OW 8198   3.258   5.302   2.367
 2122SOL    HW1 8199   3.271   5.396   2.355
 2122SOL    HW2 8200   3.177   5.294   2.417
 2123SOL     OW 8201   1.319  11.867  14.795
 2123SOL    HW1 8202   1.365  11.850  14.878
 2123SOL    HW2 8203   1.250  11.928  14.819
 2124SOL     OW 8204   2.691   7.492   3.401
 2124SOL    HW1 8205   2.785   7.482   3.407
 2124SOL    HW2 8206   2.668   7.553   3.470
 2125SOL     OW 8207  11.573  10.976   2.843
 2125SOL    HW1 8208  11.570  11.071   2.827
 2125SOL    HW2 8209  11.645  10.964   2.904
 2126SOL     OW 8210   3.712  13.613   4.712
 2126SOL    HW1 8211   3.685  13.667   4.638
 2126SOL    HW2 8212   3.801  13.643   4.733
 2127SOL     OW 8213  14.118   2.177  14.470
 2127SOL    HW1 8214  14.034   2.144  14.438
 2127SOL    HW2 8215  14.100   2.212  14.557
 2128SOL     OW 8216   4.140  10.780  12.558
 2128SOL    HW1 8217   4.083  10.737  12.494
 2128SOL    HW2 8218   4.197  10.709  12.589
 2129SOL     OW 8219   1.863   3.990  12.725
 2129SOL    HW1 8220   1.860   4.062  12.662
 2129SOL    HW2 8221   1.857   4.033  12.810
 2130SOL     OW 8222   6.546   3.211  12.003
 2130SOL    HW1 8223   6.472   3.151  11.997
 2130SOL    HW2 8224   6.556   3.246  11.914
 2131SOL     OW 8225   0.409   7.794   8.319
 2131SOL    HW1 8226   0.337   7.735   8.339
 2131SOL    HW2 8227   0.433   7.833   8.404
 2132SOL     OW 8228  14.739   2.217   5.414
 2132SOL    HW1 8229  14.798   2.153   5.453
 2132SOL    HW2 8230  14.761   2.217   5.321
 2133SOL     OW 8231   4.929   4.806  11.738
 2133SOL    HW1 8232   5.005   4.803  11.797
 2133SOL    HW2 8233   4.885   4.887  11.760
 2134SOL     OW 8234   1.460  11.156   1.972
 2134SOL    HW1 8235   1.533  11.164   2.032
 2134SOL    HW2 8236   1.423  11.244   1.966
 2135SOL     OW 8237   7.792   3.183   4.832
 2135SOL    HW1 8238   7.749   3.118   4.777
 2135SOL    HW2 8239   7.755   3.266   4.804
 2136SOL     OW 8240  10.613   0.572   5.660
 2136SOL    HW1 8241  10.533   0.621   5.675
 2136SOL    HW2 8242  10.661   0.577   5.743
 2137SOL     OW 8243  10.276   0.435   5.523
 2137SOL    HW1 8244  10.190   0.455   5.484
 2137SOL    HW2 8245  10.330   0.510   5.500
 2138SOL     OW 8246   9.643  12.952   9.445
 2138SOL    HW1 8247   9.549  12.951   9.424
 2138SOL    HW2 8248   9.681  12.884   9.389
 2139SOL     OW 8249   5.146   5.441   2.344
 2139SOL    HW1 8250   5.090   5.392   2.285
 2139SOL    HW2 8251   5.138   5.395   2.428
 2140SOL     OW 8252  13.469  12.051  11.268
 2140SOL    HW1 8253  13.478  12.145  11.256
 2140SOL    HW2 8254  13.558  12.019  11.280
 2141SOL     OW 8255  11.471   8.512   5.476
 2141SOL    HW1 8256  11.479   8.513   5.381
 2141SOL    HW2 8257  11.557   8.485   5.507
 2142SOL     OW 8258   6.984  10.200   1.490
 2142SOL    HW1 8259   6.966  10.279   1.541
 2142SOL    HW2 8260   6.902  10.151   1.492
 2143SOL     OW 8261  12.693   0.027  13.252
 2143SOL    HW1 8262  12.727   0.115  13.266
 2143SOL    HW2 8263  12.759  14.848  13.290
 2144SOL     OW 8264   4.992   4.500   8.599
 2144SOL    HW1 8265   4.963   4.486   8.689
 2144SOL    HW2 8266   4.955   4.426   8.550
 2145SOL     OW 8267  11.975   4.373  11.918
 2145SOL    HW1 8268  11.933   4.379  11.832
 2145SOL    HW2 8269  11.974   4.462  11.952
 2146SOL     OW 8270   5.907   7.317   4.805
 2146SOL    HW1 8271   5.912   7.411   4.789
 2146SOL    HW2 8272   5.851   7.309   4.882
 2147SOL     OW 8273   8.753   7.540   7.739
 2147SOL    HW1 8274   8.796   7.470   7.788
 2147SOL    HW2 8275   8.774   7.619   7.788
 2148SOL     OW 8276  14.626  13.603  13.471
 2148SOL    HW1 8277  14.719  13.626  13.472
 2148SOL    HW2 8278  14.591  13.651  13.395
 2149SOL     OW 8279   5.996   7.437   6.842
 2149SOL    HW1 8280   6.023   7.367   6.782
 2149SOL    HW2 8281   6.065   7.503   6.834
 2150SOL     OW 8282  11.991   2.591  12.280
 2150SOL    HW1 8283  11.960   2.663  12.335
 2150SOL    HW2 8284  12.064   2.627  12.230
 2151SOL     OW 8285   0.338  12.225   0.996
 2151SOL    HW1 8286   0.326  12.280   1.073
 2151SOL    HW2 8287   0.278  12.262   0.931
 2152SOL     OW 8288   6.205   7.001   3.728
 2152SOL    HW1 8289   6.161   6.921   3.700
 2152SOL    HW2 8290   6.236   6.982   3.816
 2153SOL     OW 8291   1.074   1.000  11.118
 2153SOL    HW1 8292   1.016   0.954  11.058
 2153SOL    HW2 8293   1.036   0.985  11.204
 2154SOL     OW 8294   8.402   9.532   9.601
 2154SOL    HW1 8295   8.479   9.482   9.630
 2154SOL    HW2 8296   8.337   9.516   9.669
 2155SOL     OW 8297   0.763   5.960   0.781
 2155SOL    HW1 8298   0.835   5.957   0.843
 2155SOL    HW2 8299   0.727   6.048   0.790
 2156SOL     OW 8300   2.185  14.514  12.729
 2156SOL    HW1 8301   2.102  14.554  12.755
 2156SOL    HW2 8302   2.240  14.522  12.807
 2157SOL     OW 8303   9.198   8.294   8.008
 2157SOL    HW1 8304   9.270   8.232   8.021
 2157SOL    HW2 8305   9.121   8.239   7.995
 2158SOL     OW 8306  10.337   2.993   4.025
 2158SOL    HW1 8307  10.334   2.904   4.061
 2158SOL    HW2 8308  10.347   3.049   4.102
 2159SOL     OW 8309   0.965   9.345  10.360
 2159SOL    HW1 8310   0.961   9.415  10.425
 2159SOL    HW2 8311   0.990   9.389  10.279
 2160SOL     OW 8312   6.585  13.074   3.988
 2160SOL    HW1 8313   6.609  13.143   4.050
 2160SOL    HW2 8314   6.536  13.120   3.920
 2161SOL     OW 8315   5.937   2.982  12.265
 2161SOL    HW1 8316   5.961   2.987  12.358
 2161SOL    HW2 8317   5.954   3.070  12.231
 2162SOL     OW 8318   3.705   8.013   1.364
 2162SOL    HW1 8319   3.680   8.088   1.418
 2162SOL    HW2 8320   3.724   8.049   1.278
 2163SOL     OW 8321   5.381   1.800   5.118
 2163SOL    HW1 8322   5.410   1.717   5.156
 2163SOL    HW2 8323   5.449   1.862   5.143
 2164SOL     OW 8324   9.440   7.121   5.669
 2164SOL    HW1 8325   9.504   7.176   5.623
 2164SOL    HW2 8326   9.455   7.033   5.633
 2165SOL     OW 8327   2.483   3.731   5.858
 2165SOL    HW1 8328   2.462   3.698   5.771
 2165SOL    HW2 8329   2.397   3.744   5.900
 2166SOL     OW 8330   6.607   3.054   3.540
 2166SOL    HW1 8331   6.625   3.067   3.446
 2166SOL    HW2 8332   6.631   3.137   3.580
 2167SOL     OW 8333  13.469   0.262   8.599
 2167SOL    HW1 8334  13.437   0.245   8.688
 2167SOL    HW2 8335  13.394   0.242   8.543
 2168SOL     OW 8336   6.091  14.777   5.268
 2168SOL    HW1 8337   6.149  14.841   5.308
 2168SOL    HW2 8338   6.094  14.701   5.326
 2169SOL     OW 8339  12.391   8.515  13.671
 2169SOL    HW1 8340  12.447   8.537  13.597
 2169SOL    HW2 8341  12.302   8.527  13.638
 2170SOL     OW 8342  13.304  10.173  12.574
 2170SOL    HW1 8343  13.218  10.157  12.613
 2170SOL    HW2 8344  13.288  10.234  12.502
 2171SOL     OW 8345   2.617  11.995   4.949
 2171SOL    HW1 8346   2.628  11.903   4.974
 2171SOL    HW2 8347   2.595  11.993   4.856
 2172SOL     OW 8348   0.420   1.134   5.924
 2172SOL    HW1 8349   0.391   1.043   5.935
 2172SOL    HW2 8350   0.486   1.131   5.856
 2173SOL     OW 8351   2.734  13.600   0.499
 2173SOL    HW1 8352   2.829  13.586   0.501
 2173SOL    HW2 8353   2.703  13.566   0.583
 2174SOL     OW 8354  11.185   3.283  10.434
 2174SOL    HW1 8355  11.223   3.370  10.419
 2174SOL    HW2 8356  11.106   3.282  10.380
 2175SOL     OW 8357   4.421  13.636   4.057
 2175SOL    HW1 8358   4.505  13.642   4.012
 2175SOL    HW2 8359   4.395  13.727   4.072
 2176SOL     OW 8360  11.302  10.159  10.908
 2176SOL    HW1 8361  11.313  10.218  10.982
 2176SOL    HW2 8362  11.365  10.190  10.843
 2177SOL     OW 8363   7.950   3.713  10.946
 2177SOL    HW1 8364   7.875   3.690  11.001
 2177SOL    HW2 8365   7.948   3.650  10.874
 2178SOL     OW 8366   0.703   9.438  10.774
 2178SOL    HW1 8367   0.762   9.377  10.819
 2178SOL    HW2 8368   0.755   9.517  10.761
 2179SOL     OW 8369   8.276   9.570   0.022
 2179SOL    HW1 8370   8.332   9.616  14.839
 2179SOL    HW2 8371   8.271   9.480  14.866
 2180SOL     OW 8372   0.750  12.862   2.663
 2180SOL    HW1 8373   0.785  12.860   2.573
 2180SOL    HW2 8374   0.749  12.954   2.686
 2181SOL     OW 8375   7.391  12.964   6.944
 2181SOL    HW1 8376   7.377  12.882   6.896
 2181SOL    HW2 8377   7.478  12.955   6.982
 2182SOL     OW 8378  10.799   1.398   1.913
 2182SOL    HW1 8379  10.868   1.460   1.938
 2182SOL    HW2 8380  10.725   1.453   1.888
 2183SOL     OW 8381   2.150  13.368  14.649
 2183SOL    HW1 8382   2.167  13.384  14.742
 2183SOL    HW2 8383   2.221  13.309  14.622
 2184SOL     OW 8384  10.810  14.769  13.162
 2184SOL    HW1 8385  10.795  14.680  13.192
 2184SOL    HW2 8386  10.874  14.805  13.223
 2185SOL     OW 8387   1.493   2.070  12.934
 2185SOL    HW1 8388   1.525   2.060  12.844
 2185SOL    HW2 8389   1.515   2.160  12.957
 2186SOL     OW 8390  11.829   2.369  14.412
 2186SOL    HW1 8391  11.895   2.302  14.423
 2186SOL    HW2 8392  11.876   2.444  14.376
 2187SOL     OW 8393  12.744   7.103   4.593
 2187SOL    HW1 8394  12.761   7.077   4.684
 2187SOL    HW2 8395  12.820   7.155   4.568
 2188SOL     OW 8396   5.526   4.259   5.524
 2188SOL    HW1 8397   5.510   4.174   5.482
 2188SOL    HW2 8398   5.617   4.279   5.502
 2189SOL     OW 8399   7.182   5.129   8.067
 2189SOL    HW1 8400   7.088   5.147   8.065
 2189SOL    HW2 8401   7.191   5.046   8.021
 2190SOL     OW 8402   2.025   4.820   5.361
 2190SOL    HW1 8403   2.117   4.844   5.348
 2190SOL    HW2 8404   2.027   4.728   5.388
 2191SOL     OW 8405  11.443  13.464   2.258
 2191SOL    HW1 8406  11.494  13.544   2.248
 2191SOL    HW2 8407  11.504  13.393   2.237
 2192SOL     OW 8408   8.643   5.997  10.030
 2192SOL    HW1 8409   8.705   6.059  10.069
 2192SOL    HW2 8410   8.628   5.932  10.099
 2193SOL     OW 8411   9.925   7.204   1.667
 2193SOL    HW1 8412   9.868   7.279   1.648
 2193SOL    HW2 8413   9.879   7.130   1.629
 2194SOL     OW 8414   8.145  14.658   7.130
 2194SOL    HW1 8415   8.192  14.705   7.199
 2194SOL    HW2 8416   8.169  14.703   7.049
 2195SOL     OW 8417   8.050   4.358   9.661
 2195SOL    HW1 8418   8.070   4.432   9.603
 2195SOL    HW2 8419   8.035   4.285   9.601
 2196SOL     OW 8420   1.222   2.466  13.648
 2196SOL    HW1 8421   1.230   2.560  13.662
 2196SOL    HW2 8422   1.129   2.447  13.662
 2197SOL     OW 8423   9.203  12.995   5.802
 2197SOL    HW1 8424   9.205  12.923   5.865
 2197SOL    HW2 8425   9.290  13.033   5.805
 2198SOL     OW 8426   5.703   8.971   8.528
 2198SOL    HW1 8427   5.717   8.877   8.542
 2198SOL    HW2 8428   5.771   9.013   8.580
 2199SOL     OW 8429  14.676   1.296   2.812
 2199SOL    HW1 8430  14.619   1.367   2.783
 2199SOL    HW2 8431  14.715   1.262   2.732
 2200SOL     OW 8432   7.160  14.051   4.719
 2200SOL    HW1 8433   7.074  14.049   4.676
 2200SOL    HW2 8434   7.179  14.144   4.730
 2201SOL     OW 8435   2.037  11.739   1.036
 2201SOL    HW1 8436   2.101  11.693   1.090
 2201SOL    HW2 8437   2.068  11.830   1.033
 2202SOL     OW 8438  13.033   9.042   4.669
 2202SOL    HW1 8439  13.023   9.018   4.760
 2202SOL    HW2 8440  12.983   9.123   4.659
 2203SOL     OW 8441   2.861   3.361   5.500
 2203SOL    HW1 8442   2.816   3.386   5.580
 2203SOL    HW2 8443   2.946   3.405   5.506
 2204SOL     OW 8444   2.875   2.017   2.052
 2204SOL    HW1 8445   2.906   2.056   1.970
 2204SOL    HW2 8446   2.832   2.089   2.098
 2205SOL     OW 8447   0.767  12.570  13.589
 2205SOL    HW1 8448   0.857  12.555  13.616
 2205SOL    HW2 8449   0.736  12.640  13.646
 2206SOL     OW 8450   9.835   0.093  12.928
 2206SOL    HW1 8451   9.777   0.169  12.934
 2206SOL    HW2 8452   9.893   0.100  13.004
 2207SOL     OW 8453   4.058   2.002  10.033
 2207SOL    HW1 8454   4.102   2.027   9.952
 2207SOL    HW2 8455   4.059   2.081  10.087
 2208SOL     OW 8456   6.858   5.183   8.809
 2208SOL    HW1 8457   6.817   5.226   8.884
 2208SOL    HW2 8458   6.915   5.117   8.848
 2209SOL     OW 8459   0.392  10.236   7.724
 2209SOL    HW1 8460   0.450  10.303   7.762
 2209SOL    HW2 8461   0.305  10.276   7.727
 2210SOL     OW 8462   1.110   4.718   6.830
 2210SOL    HW1 8463   1.113   4.657   6.904
 2210SOL    HW2 8464   1.121   4.662   6.753
 2211SOL     OW 8465   6.708   6.306  11.343
 2211SOL    HW1 8466   6.771   6.303  11.271
 2211SOL    HW2 8467   6.644   6.239  11.321
 2212SOL     OW 8468   0.991  10.711   8.209
 2212SOL    HW1 8469   1.058  10.772   8.243
 2212SOL    HW2 8470   1.031  10.675   8.130
 2213SOL     OW 8471   6.193   6.530   7.809
 2213SOL    HW1 8472   6.122   6.511   7.747
 2213SOL    HW2 8473   6.149   6.542   7.893
 2214SOL     OW 8474  10.809   7.222   3.708
 2214SOL    HW1 8475  10.742   7.255   3.648
 2214SOL    HW2 8476  10.766   7.150   3.754
 2215SOL     OW 8477   8.441  10.524   5.131
 2215SOL    HW1 8478   8.375  10.485   5.188
 2215SOL    HW2 8479   8.393  10.552   5.053
 2216SOL     OW 8480  10.791   8.881   3.496
 2216SOL    HW1 8481  10.697   8.868   3.509
 2216SOL    HW2 8482  10.816   8.818   3.429
 2217SOL     OW 8483   6.960   8.620  13.524
 2217SOL    HW1 8484   7.007   8.695  13.488
 2217SOL    HW2 8485   6.979   8.549  13.463
 2218SOL     OW 8486  14.351   3.777   9.502
 2218SOL    HW1 8487  14.354   3.708   9.435
 2218SOL    HW2 8488  14.413   3.843   9.470
 2219SOL     OW 8489   7.769  12.935   0.447
 2219SOL    HW1 8490   7.829  12.907   0.517
 2219SOL    HW2 8491   7.803  13.021   0.420
 2220SOL     OW 8492   5.234  14.761   8.491
 2220SOL    HW1 8493   5.257  14.719   8.408
 2220SOL    HW2 8494   5.309  14.743   8.548
 2221SOL     OW 8495   1.704  13.642   6.519
 2221SOL    HW1 8496   1.688  13.663   6.611
 2221SOL    HW2 8497   1.799  13.650   6.509
 2222SOL     OW 8498   5.956   7.796   1.542
 2222SOL    HW1 8499   5.983   7.804   1.634
 2222SOL    HW2 8500   5.877   7.743   1.545
 2223SOL     OW 8501  12.928   0.117   3.750
 2223SOL    HW1 8502  12.968   0.094   3.834
 2223SOL    HW2 8503  12.859   0.052   3.736
 2224SOL     OW 8504  11.986  13.717  12.488
 2224SOL    HW1 8505  12.052  13.746  12.551
 2224SOL    HW2 8506  11.942  13.797  12.460
 2225SOL     OW 8507  14.789  12.674  10.088
 2225SOL    HW1 8508  14.844  12.739  10.044
 2225SOL    HW2 8509  14.804  12.689  10.182
 2226SOL     OW 8510   7.114   0.753  14.105
 2226SOL    HW1 8511   7.099   0.679  14.047
 2226SOL    HW2 8512   7.086   0.829  14.054
 2227SOL     OW 8513  12.757  11.555   0.780
 2227SOL    HW1 8514  12.757  11.623   0.847
 2227SOL    HW2 8515  12.673  11.565   0.736
 2228SOL     OW 8516   5.452   0.823   5.085
 2228SOL    HW1 8517   5.410   0.823   5.171
 2228SOL    HW2 8518   5.545   0.829   5.103
 2229SOL     OW 8519  11.340   5.497   7.872
 2229SOL    HW1 8520  11.309   5.450   7.794
 2229SOL    HW2 8521  11.336   5.589   7.847
 2230SOL     OW 8522  10.081   1.050   0.717
 2230SOL    HW1 8523  10.063   1.133   0.761
 2230SOL    HW2 8524   9.998   1.029   0.673
 2231SOL     OW 8525   6.631   5.402   9.477
 2231SOL    HW1 8526   6.676   5.334   9.426
 2231SOL    HW2 8527   6.698   5.434   9.538
 2232SOL     OW 8528   7.267  13.833  13.853
 2232SOL    HW1 8529   7.222  13.909  13.817
 2232SOL    HW2 8530   7.316  13.796  13.780
 2233SOL     OW 8531  12.337  11.728  12.322
 2233SOL    HW1 8532  12.372  11.721  12.411
 2233SOL    HW2 8533  12.242  11.732  12.334
 2234SOL     OW 8534  11.856  10.999   2.318
 2234SOL    HW1 8535  11.814  10.944   2.383
 2234SOL    HW2 8536  11.806  11.081   2.321
 2235SOL     OW 8537   9.834   2.118   9.077
 2235SOL    HW1 8538   9.776   2.153   9.145
 2235SOL    HW2 8539   9.857   2.030   9.107
 2236SOL     OW 8540   8.370   3.949   9.423
 2236SOL    HW1 8541   8.364   3.918   9.332
 2236SOL    HW2 8542   8.323   3.883   9.473
 2237SOL     OW 8543  14.686   4.562   7.562
 2237SOL    HW1 8544  14.671   4.564   7.467
 2237SOL    HW2 8545  14.718   4.473   7.579
 2238SOL     OW 8546   5.067   6.228   8.206
 2238SOL    HW1 8547   5.062   6.299   8.270
 2238SOL    HW2 8548   5.014   6.258   8.133
 2239SOL     OW 8549   4.217  14.850   8.880
 2239SOL    HW1 8550   4.175  14.784   8.936
 2239SOL    HW2 8551   4.227  14.806   8.795
 2240SOL     OW 8552   3.747   7.176   4.386
 2240SOL    HW1 8553   3.814   7.227   4.342
 2240SOL    HW2 8554   3.666   7.224   4.372
 2241SOL     OW 8555   9.349   1.035   3.138
 2241SOL    HW1 8556   9.361   1.046   3.044
 2241SOL    HW2 8557   9.336   0.940   3.149
 2242SOL     OW 8558   7.202   1.036  14.744
 2242SOL    HW1 8559   7.176   0.990  14.664
 2242SOL    HW2 8560   7.125   1.086  14.769
 2243SOL     OW 8561   1.787  14.443  13.732
 2243SOL    HW1 8562   1.812  14.361  13.774
 2243SOL    HW2 8563   1.720  14.419  13.668
 2244SOL     OW 8564  10.848   0.987   6.324
 2244SOL    HW1 8565  10.865   1.007   6.232
 2244SOL    HW2 8566  10.901   1.050   6.372
 2245SOL     OW 8567  10.611  11.271   4.898
 2245SOL    HW1 8568  10.679  11.216   4.861
 2245SOL    HW2 8569  10.530  11.242   4.855
 2246SOL     OW 8570   6.051  14.290   6.389
 2246SOL    HW1 8571   6.106  14.277   6.311
 2246SOL    HW2 8572   6.075  14.377   6.421
 2247SOL     OW 8573  13.882  11.794   5.164
 2247SOL    HW1 8574  13.881  11.722   5.227
 2247SOL    HW2 8575  13.941  11.765   5.095
 2248SOL     OW 8576   6.889   0.461  11.416
 2248SOL    HW1 8577   6.976   0.429  11.390
 2248SOL    HW2 8578   6.852   0.499  11.336
 2249SOL     OW 8579  11.581  11.010   5.686
 2249SOL    HW1 8580  11.646  11.073   5.716
 2249SOL    HW2 8581  11.586  10.939   5.751
 2250SOL     OW 8582   1.988   9.010  14.838
 2250SOL    HW1 8583   1.937   9.058  14.773
 2250SOL    HW2 8584   1.953   9.040   0.043
 2251SOL     OW 8585   6.308   6.527  12.441
 2251SOL    HW1 8586   6.227   6.574  12.422
 2251SOL    HW2 8587   6.323   6.541  12.535
 2252SOL     OW 8588   0.694  11.791  10.186
 2252SOL    HW1 8589   0.735  11.767  10.103
 2252SOL    HW2 8590   0.767  11.824  10.239
 2253SOL     OW 8591  13.524   8.220   9.272
 2253SOL    HW1 8592  13.582   8.155   9.313
 2253SOL    HW2 8593  13.462   8.168   9.221
 2254SOL     OW 8594  13.063  11.652   3.745
 2254SOL    HW1 8595  13.128  11.707   3.701
 2254SOL    HW2 8596  12.997  11.636   3.678
 2255SOL     OW 8597   6.133  14.362   8.663
 2255SOL    HW1 8598   6.180  14.280   8.675
 2255SOL    HW2 8599   6.055  14.338   8.613
 2256SOL     OW 8600  14.137  14.253  10.845
 2256SOL    HW1 8601  14.080  14.300  10.907
 2256SOL    HW2 8602  14.106  14.162  10.849
 2257SOL     OW 8603  13.242  11.454   3.840
 2257SOL    HW1 8604  13.257  11.421   3.752
 2257SOL    HW2 8605  13.173  11.519   3.830
 2258SOL     OW 8606   6.889   3.532  14.751
 2258SOL    HW1 8607   6.936   3.452  14.724
 2258SOL    HW2 8608   6.923   3.551  14.838
 2259SOL     OW 8609  14.086   9.870  11.738
 2259SOL    HW1 8610  14.059   9.961  11.725
 2259SOL    HW2 8611  14.156   9.856  11.675
 2260SOL     OW 8612   1.461   8.361  12.705
 2260SOL    HW1 8613   1.505   8.419  12.766
 2260SOL    HW2 8614   1.380   8.336  12.749
 2261SOL     OW 8615   9.695   2.270  14.586
 2261SOL    HW1 8616   9.683   2.189  14.635
 2261SOL    HW2 8617   9.749   2.325  14.643
 2262SOL     OW 8618   7.832   5.055  14.627
 2262SOL    HW1 8619   7.834   4.989  14.697
 2262SOL    HW2 8620   7.742   5.086  14.626
 2263SOL     OW 8621  11.856   2.625   8.722
 2263SOL    HW1 8622  11.797   2.618   8.647
 2263SOL    HW2 8623  11.814   2.688   8.780
 2264SOL     OW 8624   3.822  10.238  12.627
 2264SOL    HW1 8625   3.760  10.311  12.622
 2264SOL    HW2 8626   3.893  10.270  12.682
 2265SOL     OW 8627   7.797  13.138  10.042
 2265SOL    HW1 8628   7.774  13.225  10.074
 2265SOL    HW2 8629   7.865  13.107  10.102
 2266SOL     OW 8630   4.483  14.436   6.908
 2266SOL    HW1 8631   4.544  14.363   6.897
 2266SOL    HW2 8632   4.475  14.472   6.819
 2267SOL     OW 8633  13.605   4.017   4.172
 2267SOL    HW1 8634  13.551   4.082   4.128
 2267SOL    HW2 8635  13.590   4.031   4.265
 2268SOL     OW 8636  10.291   1.530   6.817
 2268SOL    HW1 8637  10.264   1.619   6.838
 2268SOL    HW2 8638  10.299   1.487   6.902
 2269SOL     OW 8639  12.548  11.731   3.983
 2269SOL    HW1 8640  12.499  11.812   3.975
 2269SOL    HW2 8641  12.637  11.753   3.954
 2270SOL     OW 8642   0.533   9.469  10.429
 2270SOL    HW1 8643   0.485   9.396  10.389
 2270SOL    HW2 8644   0.606   9.485  10.368
 2271SOL     OW 8645   3.575  14.716   5.012
 2271SOL    HW1 8646   3.642  14.784   5.012
 2271SOL    HW2 8647   3.527  14.729   4.930
 2272SOL     OW 8648   3.513   5.664   4.022
 2272SOL    HW1 8649   3.425   5.655   4.057
 2272SOL    HW2 8650   3.548   5.742   4.066
 2273SOL     OW 8651  12.843  14.371   2.709
 2273SOL    HW1 8652  12.889  14.415   2.780
 2273SOL    HW2 8653  12.914  14.337   2.653
 2274SOL     OW 8654   2.711   6.402  14.141
 2274SOL    HW1 8655   2.707   6.318  14.097
 2274SOL    HW2 8656   2.624   6.440  14.129
 2275SOL     OW 8657   4.897   7.228   0.801
 2275SOL    HW1 8658   4.957   7.263   0.866
 2275SOL    HW2 8659   4.886   7.136   0.826
 2276SOL     OW 8660  11.252   4.234   2.312
 2276SOL    HW1 8661  11.167   4.201   2.282
 2276SOL    HW2 8662  11.249   4.328   2.292
 2277SOL     OW 8663  14.620   0.882   9.764
 2277SOL    HW1 8664  14.537   0.901   9.808
 2277SOL    HW2 8665  14.616   0.932   9.683
 2278SOL     OW 8666   6.472   7.692   0.991
 2278SOL    HW1 8667   6.458   7.639   0.913
 2278SOL    HW2 8668   6.484   7.781   0.958
 2279SOL     OW 8669   1.888   5.995   3.736
 2279SOL    HW1 8670   1.906   5.980   3.643
 2279SOL    HW2 8671   1.794   6.011   3.740
 2280SOL     OW 8672  12.372   7.207   0.094
 2280SOL    HW1 8673  12.293   7.193   0.043
 2280SOL    HW2 8674  12.426   7.129   0.077
 2281SOL     OW 8675   8.735  13.985  13.320
 2281SOL    HW1 8676   8.646  14.010  13.293
 2281SOL    HW2 8677   8.786  13.986  13.239
 2282SOL     OW 8678  14.851  12.508  13.626
 2282SOL    HW1 8679   0.034  12.452  13.579
 2282SOL    HW2 8680  14.832  12.579  13.564
 2283SOL     OW 8681   3.688  14.747   2.045
 2283SOL    HW1 8682   3.699  14.829   1.998
 2283SOL    HW2 8683   3.688  14.772   2.138
 2284SOL     OW 8684  14.563   1.049   8.223
 2284SOL    HW1 8685  14.510   0.972   8.242
 2284SOL    HW2 8686  14.541   1.111   8.293
 2285SOL     OW 8687  13.613  12.785  11.207
 2285SOL    HW1 8688  13.622  12.744  11.293
 2285SOL    HW2 8689  13.650  12.721  11.145
 2286SOL     OW 8690   7.131   8.120  13.911
 2286SOL    HW1 8691   7.171   8.202  13.882
 2286SOL    HW2 8692   7.189   8.089  13.981
 2287SOL     OW 8693  14.043   2.162   8.466
 2287SOL    HW1 8694  13.967   2.152   8.523
 2287SOL    HW2 8695  14.007   2.195   8.383
 2288SOL     OW 8696   0.284   9.503   0.708
 2288SOL    HW1 8697   0.330   9.446   0.770
 2288SOL    HW2 8698   0.329   9.489   0.625
 2289SOL     OW 8699  14.742   4.477   9.186
 2289SOL    HW1 8700  14.732   4.544   9.253
 2289SOL    HW2 8701  14.812   4.509   9.130
 2290SOL     OW 8702  14.259   0.753   8.031
 2290SOL    HW1 8703  14.221   0.723   7.948
 2290SOL    HW2 8704  14.314   0.680   8.059
 2291SOL     OW 8705  10.220   3.832  10.424
 2291SOL    HW1 8706  10.149   3.890  10.451
 2291SOL    HW2 8707  10.297   3.865  10.471
 2292SOL     OW 8708   0.218   7.498  14.416
 2292SOL    HW1 8709   0.225   7.472  14.324
 2292SOL    HW2 8710   0.297   7.461  14.456
 2293SOL     OW 8711   1.207   9.169   6.840
 2293SOL    HW1 8712   1.133   9.229   6.834
 2293SOL    HW2 8713   1.188   9.115   6.917
 2294SOL     OW 8714   6.111   7.739  10.048
 2294SOL    HW1 8715   6.164   7.726  10.127
 2294SOL    HW2 8716   6.175   7.754   9.978
 2295SOL     OW 8717  10.806   4.487  11.804
 2295SOL    HW1 8718  10.811   4.503  11.710
 2295SOL    HW2 8719  10.763   4.565  11.839
 2296SOL     OW 8720   8.509   2.341   1.535
 2296SOL    HW1 8721   8.491   2.386   1.453
 2296SOL    HW2 8722   8.423   2.331   1.577
 2297SOL     OW 8723  12.734   5.625   9.745
 2297SOL    HW1 8724  12.767   5.696   9.689
 2297SOL    HW2 8725  12.751   5.545   9.695
 2298SOL     OW 8726  12.772  13.763   0.858
 2298SOL    HW1 8727  12.803  13.673   0.857
 2298SOL    HW2 8728  12.810  13.802   0.779
 2299SOL     OW 8729  12.347   9.768   0.750
 2299SOL    HW1 8730  12.338   9.860   0.725
 2299SOL    HW2 8731  12.260   9.731   0.736
 2300SOL     OW 8732   0.886   9.769  12.670
 2300SOL    HW1 8733   0.928   9.723  12.742
 2300SOL    HW2 8734   0.876   9.703  12.601
 2301SOL     OW 8735   3.791   4.047   6.472
 2301SOL    HW1 8736   3.863   4.091   6.426
 2301SOL    HW2 8737   3.782   4.096   6.554
 2302SOL     OW 8738   3.701   2.857  12.551
 2302SOL    HW1 8739   3.778   2.882  12.500
 2302SOL    HW2 8740   3.634   2.840  12.486
 2303SOL     OW 8741   5.022  13.657  13.523
 2303SOL    HW1 8742   5.062  13.599  13.587
 2303SOL    HW2 8743   4.928  13.650  13.541
 2304SOL     OW 8744  11.852  14.200  12.332
 2304SOL    HW1 8745  11.871  14.182  12.424
 2304SOL    HW2 8746  11.759  14.181  12.322
 2305SOL     OW 8747  13.964   6.510   9.282
 2305SOL    HW1 8748  13.999   6.449   9.218
 2305SOL    HW2 8749  14.031   6.577   9.292
 2306SOL     OW 8750   1.707   8.451  13.119
 2306SOL    HW1 8751   1.693   8.521  13.184
 2306SOL    HW2 8752   1.731   8.375  13.172
 2307SOL     OW 8753   5.197   8.407   2.541
 2307SOL    HW1 8754   5.193   8.350   2.618
 2307SOL    HW2 8755   5.152   8.357   2.473
 2308SOL     OW 8756  11.925  13.197   6.085
 2308SOL    HW1 8757  11.908  13.147   6.164
 2308SOL    HW2 8758  11.905  13.288   6.109
 2309SOL     OW 8759   3.362  10.156   7.294
 2309SOL    HW1 8760   3.350  10.079   7.238
 2309SOL    HW2 8761   3.428  10.209   7.249
 2310SOL     OW 8762   6.988   8.978   3.278
 2310SOL    HW1 8763   6.979   8.980   3.373
 2310SOL    HW2 8764   7.062   8.918   3.263
 2311SOL     OW 8765  12.082   1.022   9.778
 2311SOL    HW1 8766  12.104   1.115   9.776
 2311SOL    HW2 8767  12.082   0.999   9.871
 2312SOL     OW 8768  11.657   5.107   7.088
 2312SOL    HW1 8769  11.584   5.056   7.054
 2312SOL    HW2 8770  11.637   5.120   7.180
 2313SOL     OW 8771  13.164  10.353   7.608
 2313SOL    HW1 8772  13.160  10.405   7.688
 2313SOL    HW2 8773  13.149  10.415   7.538
 2314SOL     OW 8774  12.634   2.429  10.189
 2314SOL    HW1 8775  12.586   2.463  10.265
 2314SOL    HW2 8776  12.632   2.334  10.200
 2315SOL     OW 8777   8.181   9.308   2.350
 2315SOL    HW1 8778   8.088   9.327   2.342
 2315SOL    HW2 8779   8.208   9.352   2.431
 2316SOL     OW 8780   0.154  13.151   7.257
 2316SOL    HW1 8781   0.178  13.237   7.221
 2316SOL    HW2 8782   0.103  13.172   7.335
 2317SOL     OW 8783   5.421  11.039  11.145
 2317SOL    HW1 8784   5.515  11.056  11.151
 2317SOL    HW2 8785   5.380  11.114  11.187
 2318SOL     OW 8786   0.679   4.520   5.187
 2318SOL    HW1 8787   0.595   4.487   5.220
 2318SOL    HW2 8788   0.715   4.571   5.260
 2319SOL     OW 8789   9.027   8.192   5.692
 2319SOL    HW1 8790   8.995   8.215   5.779
 2319SOL    HW2 8791   8.952   8.152   5.648
 2320SOL     OW 8792   8.835  11.030   9.097
 2320SOL    HW1 8793   8.806  10.984   9.176
 2320SOL    HW2 8794   8.899  10.971   9.058
 2321SOL     OW 8795   1.613  13.223   2.692
 2321SOL    HW1 8796   1.573  13.176   2.619
 2321SOL    HW2 8797   1.681  13.278   2.652
 2322SOL     OW 8798  14.805   3.169   2.204
 2322SOL    HW1 8799  14.771   3.080   2.215
 2322SOL    HW2 8800  14.757   3.220   2.270
 2323SOL     OW 8801   7.696  10.325  11.772
 2323SOL    HW1 8802   7.759  10.384  11.812
 2323SOL    HW2 8803   7.615  10.376  11.768
 2324SOL     OW 8804   2.659  12.140  10.955
 2324SOL    HW1 8805   2.607  12.060  10.962
 2324SOL    HW2 8806   2.611  12.195  10.893
 2325SOL     OW 8807   5.134  11.644   3.764
 2325SOL    HW1 8808   5.213  11.691   3.788
 2325SOL    HW2 8809   5.164  11.574   3.706
 2326SOL     OW 8810   5.655   7.639   8.634
 2326SOL    HW1 8811   5.622   7.722   8.602
 2326SOL    HW2 8812   5.717   7.610   8.567
 2327SOL     OW 8813   7.015  11.632   0.885
 2327SOL    HW1 8814   6.950  11.701   0.896
 2327SOL    HW2 8815   7.097  11.678   0.868
 2328SOL     OW 8816  11.216  13.613  11.761
 2328SOL    HW1 8817  11.143  13.593  11.819
 2328SOL    HW2 8818  11.294  13.596  11.814
 2329SOL     OW 8819   5.481   7.429   2.459
 2329SOL    HW1 8820   5.508   7.337   2.463
 2329SOL    HW2 8821   5.559   7.476   2.429
 2330SOL     OW 8822   3.104  11.043  12.452
 2330SOL    HW1 8823   3.062  10.958  12.464
 2330SOL    HW2 8824   3.149  11.036  12.368
 2331SOL     OW 8825  10.900   3.278   2.586
 2331SOL    HW1 8826  10.847   3.222   2.644
 2331SOL    HW2 8827  10.973   3.222   2.559
 2332SOL     OW 8828   4.066   3.845  12.854
 2332SOL    HW1 8829   4.137   3.814  12.796
 2332SOL    HW2 8830   4.083   3.939  12.864
 2333SOL     OW 8831   0.088   4.941   4.727
 2333SOL    HW1 8832   0.046   5.025   4.706
 2333SOL    HW2 8833   0.165   4.965   4.779
 2334SOL     OW 8834   0.399   0.306  14.780
 2334SOL    HW1 8835   0.467   0.333  14.842
 2334SOL    HW2 8836   0.318   0.308  14.831
 2335SOL     OW 8837   3.699  12.054   9.458
 2335SOL    HW1 8838   3.749  12.015   9.529
 2335SOL    HW2 8839   3.764  12.100   9.405
 2336SOL     OW 8840  11.939   6.550   4.905
 2336SOL    HW1 8841  12.028   6.582   4.919
 2336SOL    HW2 8842  11.892   6.570   4.986
 2337SOL     OW 8843   9.735  14.306  13.868
 2337SOL    HW1 8844   9.810  14.283  13.922
 2337SOL    HW2 8845   9.762  14.387  13.823
 2338SOL     OW 8846   4.745   6.995   1.991
 2338SOL    HW1 8847   4.827   6.970   1.949
 2338SOL    HW2 8848   4.768   7.003   2.084
 2339SOL     OW 8849   0.566   2.765   7.197
 2339SOL    HW1 8850   0.470   2.773   7.196
 2339SOL    HW2 8851   0.589   2.769   7.290
 2340SOL     OW 8852   8.790   4.210  11.839
 2340SOL    HW1 8853   8.852   4.237  11.771
 2340SOL    HW2 8854   8.842   4.157  11.900
 2341SOL     OW 8855  10.167   0.815  14.694
 2341SOL    HW1 8856  10.111   0.848  14.765
 2341SOL    HW2 8857  10.236   0.767  14.739
 2342SOL     OW 8858   1.645   9.321   8.118
 2342SOL    HW1 8859   1.600   9.382   8.177
 2342SOL    HW2 8860   1.688   9.377   8.054
 2343SOL     OW 8861   0.080   4.320   5.050
 2343SOL    HW1 8862   0.093   4.272   4.968
 2343SOL    HW2 8863   0.032   4.398   5.024
 2344SOL     OW 8864   2.660  12.952  11.922
 2344SOL    HW1 8865   2.737  13.004  11.903
 2344SOL    HW2 8866   2.586  13.013  11.911
 2345SOL     OW 8867   1.433   5.402   4.846
 2345SOL    HW1 8868   1.434   5.402   4.941
 2345SOL    HW2 8869   1.341   5.388   4.823
 2346SOL     OW 8870   8.487   0.810  10.728
 2346SOL    HW1 8871   8.418   0.774  10.673
 2346SOL    HW2 8872   8.549   0.849  10.666
 2347SOL     OW 8873  11.721   6.281   1.759
 2347SOL    HW1 8874  11.773   6.204   1.737
 2347SOL    HW2 8875  11.647   6.247   1.809
 2348SOL     OW 8876   5.507   7.843   8.525
 2348SOL    HW1 8877   5.431   7.815   8.475
 2348SOL    HW2 8878   5.570   7.872   8.459
 2349SOL     OW 8879   3.765  12.066  13.511
 2349SOL    HW1 8880   3.752  12.061  13.416
 2349SOL    HW2 8881   3.850  12.026  13.526
 2350SOL     OW 8882  11.375  10.067   2.407
 2350SOL    HW1 8883  11.307  10.054   2.341
 2350SOL    HW2 8884  11.456  10.039   2.365
 2351SOL     OW 8885   2.064  13.331   4.238
 2351SOL    HW1 8886   2.041  13.363   4.326
 2351SOL    HW2 8887   1.985  13.287   4.207
 2352SOL     OW 8888   5.648  13.596   1.771
 2352SOL    HW1 8889   5.736  13.607   1.806
 2352SOL    HW2 8890   5.594  13.656   1.822
 2353SOL     OW 8891  12.491   0.979  10.102
 2353SOL    HW1 8892  12.420   0.924  10.068
 2353SOL    HW2 8893  12.546   0.919  10.151
 2354SOL     OW 8894   2.856   6.307  11.634
 2354SOL    HW1 8895   2.790   6.376  11.643
 2354SOL    HW2 8896   2.940   6.352  11.645
 2355SOL     OW 8897   5.910  11.243   4.861
 2355SOL    HW1 8898   5.880  11.326   4.825
 2355SOL    HW2 8899   5.830  11.195   4.881
 2356SOL     OW 8900   1.385   5.438   5.937
 2356SOL    HW1 8901   1.438   5.476   5.866
 2356SOL    HW2 8902   1.357   5.353   5.902
 2357SOL     OW 8903   9.914   6.096   5.461
 2357SOL    HW1 8904   9.936   6.101   5.553
 2357SOL    HW2 8905   9.843   6.158   5.449
 2358SOL     OW 8906   3.688   3.624  12.390
 2358SOL    HW1 8907   3.680   3.595  12.481
 2358SOL    HW2 8908   3.603   3.604  12.351
 2359SOL     OW 8909   7.596  10.956  10.111
 2359SOL    HW1 8910   7.596  10.957  10.015
 2359SOL    HW2 8911   7.548  11.036  10.135
 2360SOL     OW 8912   3.320   4.930  13.908
 2360SOL    HW1 8913   3.302   5.024  13.908
 2360SOL    HW2 8914   3.405   4.922  13.865
 2361SOL     OW 8915  14.261   7.062   2.477
 2361SOL    HW1 8916  14.247   6.967   2.480
 2361SOL    HW2 8917  14.345   7.073   2.433
 2362SOL     OW 8918   5.328  14.099   0.955
 2362SOL    HW1 8919   5.387  14.038   0.999
 2362SOL    HW2 8920   5.249  14.047   0.937
 2363SOL     OW 8921  11.630   4.416  10.447
 2363SOL    HW1 8922  11.642   4.483  10.380
 2363SOL    HW2 8923  11.574   4.350  10.405
 2364SOL     OW 8924   7.569   6.609  13.386
 2364SOL    HW1 8925   7.581   6.576  13.475
 2364SOL    HW2 8926   7.481   6.647  13.387
 2365SOL     OW 8927  12.064   1.915  14.561
 2365SOL    HW1 8928  11.998   1.856  14.598
 2365SOL    HW2 8929  12.116   1.943  14.636
 2366SOL     OW 8930   7.851   2.014   6.064
 2366SOL    HW1 8931   7.761   2.018   6.096
 2366SOL    HW2 8932   7.895   1.956   6.126
 2367SOL     OW 8933   7.884   2.327   2.676
 2367SOL    HW1 8934   7.922   2.393   2.733
 2367SOL    HW2 8935   7.870   2.251   2.732
 2368SOL     OW 8936  10.697   0.215   6.937
 2368SOL    HW1 8937  10.625   0.174   6.890
 2368SOL    HW2 8938  10.705   0.165   7.018
 2369SOL     OW 8939   3.608   7.335   2.143
 2369SOL    HW1 8940   3.609   7.240   2.128
 2369SOL    HW2 8941   3.589   7.373   2.058
 2370SOL     OW 8942   9.107   4.581   5.314
 2370SOL    HW1 8943   9.087   4.497   5.355
 2370SOL    HW2 8944   9.109   4.562   5.221
 2371SOL     OW 8945  12.014   6.781  13.478
 2371SOL    HW1 8946  12.006   6.812  13.388
 2371SOL    HW2 8947  11.973   6.695  13.478
 2372SOL     OW 8948   9.429  12.093  11.376
 2372SOL    HW1 8949   9.467  12.109  11.462
 2372SOL    HW2 8950   9.500  12.111  11.315
 2373SOL     OW 8951   7.589  13.795  11.128
 2373SOL    HW1 8952   7.586  13.890  11.118
 2373SOL    HW2 8953   7.633  13.781  11.212
 2374SOL     OW 8954   2.966   5.921   2.035
 2374SOL    HW1 8955   2.920   5.908   1.952
 2374SOL    HW2 8956   2.934   6.005   2.068
 2375SOL     OW 8957  14.328  12.917  11.131
 2375SOL    HW1 8958  14.378  12.936  11.211
 2375SOL    HW2 8959  14.394  12.915  11.061
 2376SOL     OW 8960   8.470   5.999  12.013
 2376SOL    HW1 8961   8.413   6.009  12.089
 2376SOL    HW2 8962   8.480   6.088  11.978
 2377SOL     OW 8963  14.077  11.533   5.716
 2377SOL    HW1 8964  14.112  11.621   5.731
 2377SOL    HW2 8965  14.070  11.526   5.621
 2378SOL     OW 8966  13.083  10.307   0.057
 2378SOL    HW1 8967  13.149  10.302   0.126
 2378SOL    HW2 8968  13.016  10.366   0.093
 2379SOL     OW 8969   6.657   4.214   9.819
 2379SOL    HW1 8970   6.669   4.286   9.756
 2379SOL    HW2 8971   6.563   4.196   9.818
 2380SOL     OW 8972   6.045   6.996  10.747
 2380SOL    HW1 8973   5.997   6.949  10.815
 2380SOL    HW2 8974   6.137   6.977  10.766
 2381SOL     OW 8975   7.837   9.823   0.124
 2381SOL    HW1 8976   7.906   9.760   0.103
 2381SOL    HW2 8977   7.871   9.907   0.093
 2382SOL     OW 8978   8.433  11.328   2.412
 2382SOL    HW1 8979   8.470  11.406   2.370
 2382SOL    HW2 8980   8.366  11.363   2.471
 2383SOL     OW 8981  14.552   9.730   1.290
 2383SOL    HW1 8982  14.493   9.682   1.348
 2383SOL    HW2 8983  14.639   9.714   1.326
 2384SOL     OW 8984   6.976   8.379   1.040
 2384SOL    HW1 8985   6.922   8.346   1.112
 2384SOL    HW2 8986   7.062   8.338   1.054
 2385SOL     OW 8987   9.981   4.745   7.398
 2385SOL    HW1 8988   9.991   4.824   7.451
 2385SOL    HW2 8989  10.058   4.692   7.420
 2386SOL     OW 8990  12.250  13.716   0.184
 2386SOL    HW1 8991  12.242  13.635   0.235
 2386SOL    HW2 8992  12.161  13.749   0.176
 2387SOL     OW 8993   7.565   5.446  11.551
 2387SOL    HW1 8994   7.516   5.528  11.544
 2387SOL    HW2 8995   7.648   5.463  11.505
 2388SOL     OW 8996  12.989  11.885   8.776
 2388SOL    HW1 8997  12.934  11.962   8.761
 2388SOL    HW2 8998  13.007  11.887   8.870
 2389SOL     OW 8999  10.953   5.070  13.363
 2389SOL    HW1 9000  10.905   5.149  13.388
 2389SOL    HW2 9001  10.973   5.026  13.446
 2390SOL     OW 9002   8.869   1.519   7.264
 2390SOL    HW1 9003   8.906   1.494   7.180
 2390SOL    HW2 9004   8.776   1.497   7.257
 2391SOL     OW 9005   9.987  11.496   2.242
 2391SOL    HW1 9006  10.076  11.472   2.270
 2391SOL    HW2 9007   9.970  11.441   2.166
 2392SOL     OW 9008   6.583   1.772   3.140
 2392SOL    HW1 9009   6.628   1.690   3.158
 2392SOL    HW2 9010   6.497   1.761   3.180
 2393SOL     OW 9011   0.910   0.939  13.499
 2393SOL    HW1 9012   0.972   0.920  13.570
 2393SOL    HW2 9013   0.834   0.976  13.544
 2394SOL     OW 9014   9.101   7.373   4.813
 2394SOL    HW1 9015   9.172   7.402   4.869
 2394SOL    HW2 9016   9.062   7.299   4.859
 2395SOL     OW 9017  13.146   5.814   7.404
 2395SOL    HW1 9018  13.145   5.746   7.472
 2395SOL    HW2 9019  13.233   5.854   7.411
 2396SOL     OW 9020  12.141   9.699   5.550
 2396SOL    HW1 9021  12.146   9.621   5.495
 2396SOL    HW2 9022  12.197   9.678   5.625
 2397SOL     OW 9023   4.489  11.499   5.965
 2397SOL    HW1 9024   4.521  11.542   6.044
 2397SOL    HW2 9025   4.530  11.546   5.893
 2398SOL     OW 9026   5.885  12.556   8.125
 2398SOL    HW1 9027   5.857  12.646   8.144
 2398SOL    HW2 9028   5.981  12.559   8.133
 2399SOL     OW 9029  13.057   9.246   2.668
 2399SOL    HW1 9030  12.975   9.231   2.622
 2399SOL    HW2 9031  13.099   9.161   2.671
 2400SOL     OW 9032   0.132   2.263   3.536
 2400SOL    HW1 9033   0.116   2.357   3.545
 2400SOL    HW2 9034   0.179   2.255   3.453
 2401SOL     OW 9035  11.462   6.795   3.107
 2401SOL    HW1 9036  11.518   6.781   3.183
 2401SOL    HW2 9037  11.508   6.863   3.057
 2402SOL     OW 9038  11.232   2.884  12.763
 2402SOL    HW1 9039  11.296   2.940  12.717
 2402SOL    HW2 9040  11.284   2.838  12.829
 2403SOL     OW 9041   8.449   9.995   9.208
 2403SOL    HW1 9042   8.438   9.939   9.284
 2403SOL    HW2 9043   8.409  10.079   9.233
 2404SOL     OW 9044   7.934   3.191  11.347
 2404SOL    HW1 9045   7.986   3.256  11.394
 2404SOL    HW2 9046   7.942   3.215  11.255
 2405SOL     OW 9047   7.737   6.594   5.895
 2405SOL    HW1 9048   7.723   6.626   5.805
 2405SOL    HW2 9049   7.818   6.637   5.923
 2406SOL     OW 9050  13.576  13.466   2.632
 2406SOL    HW1 9051  13.606  13.491   2.720
 2406SOL    HW2 9052  13.493  13.511   2.622
 2407SOL     OW 9053   3.888  10.296   1.465
 2407SOL    HW1 9054   3.939  10.231   1.512
 2407SOL    HW2 9055   3.861  10.251   1.385
 2408SOL     OW 9056   8.974  13.392   8.732
 2408SOL    HW1 9057   8.901  13.450   8.755
 2408SOL    HW2 9058   9.047  13.422   8.786
 2409SOL     OW 9059  11.703  11.777   3.661
 2409SOL    HW1 9060  11.757  11.698   3.651
 2409SOL    HW2 9061  11.619  11.753   3.622
 2410SOL     OW 9062  11.238  14.239   8.884
 2410SOL    HW1 9063  11.150  14.204   8.872
 2410SOL    HW2 9064  11.235  14.284   8.968
 2411SOL     OW 9065   8.319   8.430   3.362
 2411SOL    HW1 9066   8.227   8.412   3.345
 2411SOL    HW2 9067   8.359   8.436   3.276
 2412SOL     OW 9068  12.410   9.580   4.268
 2412SOL    HW1 9069  12.380   9.654   4.322
 2412SOL    HW2 9070  12.407   9.613   4.179
 2413SOL     OW 9071   1.241  13.395  11.850
 2413SOL    HW1 9072   1.277  13.424  11.934
 2413SOL    HW2 9073   1.202  13.474  11.812
 2414SOL     OW 9074  12.520   4.137   1.714
 2414SOL    HW1 9075  12.520   4.160   1.807
 2414SOL    HW2 9076  12.473   4.209   1.672
 2415SOL     OW 9077  12.424   5.530  13.814
 2415SOL    HW1 9078  12.335   5.525  13.778
 2415SOL    HW2 9079  12.411   5.550  13.907
 2416SOL     OW 9080   6.440  13.547   9.841
 2416SOL    HW1 9081   6.533  13.570   9.851
 2416SOL    HW2 9082   6.399  13.625   9.806
 2417SOL     OW 9083  10.429  10.918   2.788
 2417SOL    HW1 9084  10.379  10.911   2.706
 2417SOL    HW2 9085  10.372  10.966   2.847
 2418SOL     OW 9086   4.949   5.903   0.899
 2418SOL    HW1 9087   4.998   5.950   0.831
 2418SOL    HW2 9088   4.945   5.964   0.972
 2419SOL     OW 9089   9.019   1.140   8.305
 2419SOL    HW1 9090   9.106   1.140   8.266
 2419SOL    HW2 9091   9.020   1.068   8.368
 2420SOL     OW 9092   4.664   6.909   4.467
 2420SOL    HW1 9093   4.653   6.923   4.373
 2420SOL    HW2 9094   4.582   6.941   4.505
 2421SOL     OW 9095   6.363  14.308   2.576
 2421SOL    HW1 9096   6.271  14.310   2.549
 2421SOL    HW2 9097   6.361  14.308   2.671
 2422SOL     OW 9098   4.016   6.110   4.728
 2422SOL    HW1 9099   3.998   6.203   4.741
 2422SOL    HW2 9100   4.056   6.081   4.809
 2423SOL     OW 9101   5.869   1.414   9.395
 2423SOL    HW1 9102   5.865   1.390   9.302
 2423SOL    HW2 9103   5.936   1.482   9.399
 2424SOL     OW 9104  13.066   1.004   3.159
 2424SOL    HW1 9105  12.972   1.017   3.151
 2424SOL    HW2 9106  13.087   0.936   3.095
 2425SOL     OW 9107   6.040   5.104   6.457
 2425SOL    HW1 9108   5.950   5.071   6.452
 2425SOL    HW2 9109   6.030   5.200   6.455
 2426SOL     OW 9110  14.113  10.012  13.334
 2426SOL    HW1 9111  14.198   9.989  13.370
 2426SOL    HW2 9112  14.051   9.956  13.382
 2427SOL     OW 9113   8.655   9.192  10.339
 2427SOL    HW1 9114   8.600   9.118  10.366
 2427SOL    HW2 9115   8.717   9.155  10.278
 2428SOL     OW 9116   3.085   9.770  11.427
 2428SOL    HW1 9117   3.128   9.796  11.346
 2428SOL    HW2 9118   2.991   9.784  11.411
 2429SOL     OW 9119  14.349   5.811   8.631
 2429SOL    HW1 9120  14.361   5.769   8.545
 2429SOL    HW2 9121  14.314   5.742   8.687
 2430SOL     OW 9122  13.279   5.089   4.017
 2430SOL    HW1 9123  13.223   5.087   3.940
 2430SOL    HW2 9124  13.239   5.154   4.075
 2431SOL     OW 9125   1.527  13.659   2.989
 2431SOL    HW1 9126   1.487  13.594   3.046
 2431SOL    HW2 9127   1.556  13.610   2.912
 2432SOL     OW 9128   7.048   1.779   2.893
 2432SOL    HW1 9129   6.961   1.744   2.871
 2432SOL    HW2 9130   7.042   1.801   2.986
 2433SOL     OW 9131   0.936   3.798   9.893
 2433SOL    HW1 9132   0.849   3.837   9.881
 2433SOL    HW2 9133   0.955   3.811   9.986
 2434SOL     OW 9134   7.269  10.765   3.676
 2434SOL    HW1 9135   7.267  10.791   3.584
 2434SOL    HW2 9136   7.240  10.842   3.724
 2435SOL     OW 9137  12.840  12.327  11.334
 2435SOL    HW1 9138  12.934  12.326  11.318
 2435SOL    HW2 9139  12.812  12.236  11.321
 2436SOL     OW 9140  11.452   4.266   8.730
 2436SOL    HW1 9141  11.442   4.205   8.657
 2436SOL    HW2 9142  11.370   4.257   8.779
 2437SOL     OW 9143  14.813   7.335  13.889
 2437SOL    HW1 9144  14.799   7.359  13.797
 2437SOL    HW2 9145  14.858   7.410  13.927
 2438SOL     OW 9146   0.938   7.935  13.079
 2438SOL    HW1 9147   0.868   7.926  13.145
 2438SOL    HW2 9148   0.973   7.846  13.069
 2439SOL     OW 9149   1.092   8.934  10.224
 2439SOL    HW1 9150   1.032   8.922  10.297
 2439SOL    HW2 9151   1.043   8.904  10.147
 2440SOL     OW 9152   6.405  14.729  12.410
 2440SOL    HW1 9153   6.465  14.786  12.360
 2440SOL    HW2 9154   6.388  14.656  12.351
 2441SOL     OW 9155   8.582  11.250   1.856
 2441SOL    HW1 9156   8.672  11.266   1.883
 2441SOL    HW2 9157   8.549  11.336   1.832
 2442SOL     OW 9158   4.244   3.741  11.293
 2442SOL    HW1 9159   4.297   3.819  11.278
 2442SOL    HW2 9160   4.306   3.674  11.319
 2443SOL     OW 9161   1.527  10.923   5.377
 2443SOL    HW1 9162   1.505  11.008   5.414
 2443SOL    HW2 9163   1.622  10.924   5.369
 2444SOL     OW 9164  13.798   3.243  10.619
 2444SOL    HW1 9165  13.806   3.204  10.706
 2444SOL    HW2 9166  13.832   3.332  10.629
 2445SOL     OW 9167   8.202  12.063   6.927
 2445SOL    HW1 9168   8.144  12.135   6.905
 2445SOL    HW2 9169   8.194  12.054   7.022
 2446SOL     OW 9170   2.718   3.715   4.904
 2446SOL    HW1 9171   2.749   3.805   4.907
 2446SOL    HW2 9172   2.657   3.707   4.977
 2447SOL     OW 9173  10.665  11.670   4.542
 2447SOL    HW1 9174  10.591  11.728   4.524
 2447SOL    HW2 9175  10.736  11.730   4.564
 2448SOL     OW 9176   5.671  13.214  13.178
 2448SOL    HW1 9177   5.692  13.123  13.197
 2448SOL    HW2 9178   5.687  13.261  13.260
 2449SOL     OW 9179  10.106   0.299   6.748
 2449SOL    HW1 9180  10.178   0.306   6.686
 2449SOL    HW2 9181  10.069   0.388   6.752
 2450SOL     OW 9182  13.311   3.260   7.943
 2450SOL    HW1 9183  13.378   3.230   7.883
 2450SOL    HW2 9184  13.231   3.265   7.890
 2451SOL     OW 9185   3.119   6.422  13.414
 2451SOL    HW1 9186   3.027   6.429  13.389
 2451SOL    HW2 9187   3.162   6.494  13.368
 2452SOL     OW 9188  12.915   6.043   9.552
 2452SOL    HW1 9189  13.002   6.006   9.569
 2452SOL    HW2 9190  12.892   6.089   9.632
 2453SOL     OW 9191  10.253  13.449   2.071
 2453SOL    HW1 9192  10.295  13.381   2.018
 2453SOL    HW2 9193  10.322  13.478   2.131
 2454SOL     OW 9194   2.963   6.464   0.477
 2454SOL    HW1 9195   2.914   6.467   0.395
 2454SOL    HW2 9196   3.047   6.425   0.454
 2455SOL     OW 9197   2.708   7.113   1.281
 2455SOL    HW1 9198   2.682   7.176   1.347
 2455SOL    HW2 9199   2.791   7.147   1.247
 2456SOL     OW 9200   6.241   3.760   2.268
 2456SOL    HW1 9201   6.318   3.751   2.324
 2456SOL    HW2 9202   6.262   3.834   2.211
 2457SOL     OW 9203   4.730   7.112   4.074
 2457SOL    HW1 9204   4.644   7.151   4.063
 2457SOL    HW2 9205   4.776   7.171   4.135
 2458SOL     OW 9206   2.190   7.303   1.502
 2458SOL    HW1 9207   2.149   7.302   1.416
 2458SOL    HW2 9208   2.225   7.214   1.512
 2459SOL     OW 9209   8.763  10.724   8.771
 2459SOL    HW1 9210   8.809  10.692   8.848
 2459SOL    HW2 9211   8.682  10.672   8.767
 2460SOL     OW 9212   9.943  11.139   9.078
 2460SOL    HW1 9213   9.979  11.078   9.143
 2460SOL    HW2 9214  10.008  11.141   9.008
 2461SOL     OW 9215  11.143   6.743   0.944
 2461SOL    HW1 9216  11.137   6.655   0.907
 2461SOL    HW2 9217  11.071   6.747   1.008
 2462SOL     OW 9218  14.534  12.305   5.818
 2462SOL    HW1 9219  14.525  12.227   5.763
 2462SOL    HW2 9220  14.445  12.326   5.846
 2463SOL     OW 9221   3.765  14.231   2.659
 2463SOL    HW1 9222   3.833  14.177   2.618
 2463SOL    HW2 9223   3.692  14.227   2.598
 2464SOL     OW 9224  11.568  13.684  13.696
 2464SOL    HW1 9225  11.474  13.701  13.708
 2464SOL    HW2 9226  11.577  13.590  13.709
 2465SOL     OW 9227   0.291  10.395   2.623
 2465SOL    HW1 9228   0.287  10.300   2.638
 2465SOL    HW2 9229   0.202  10.426   2.637
 2466SOL     OW 9230   8.970   4.178   4.500
 2466SOL    HW1 9231   9.001   4.122   4.429
 2466SOL    HW2 9232   8.884   4.208   4.471
 2467SOL     OW 9233   8.387   4.976  12.480
 2467SOL    HW1 9234   8.450   5.025  12.427
 2467SOL    HW2 9235   8.388   5.020  12.565
 2468SOL     OW 9236   7.470  13.624   5.436
 2468SOL    HW1 9237   7.479  13.691   5.368
 2468SOL    HW2 9238   7.514  13.547   5.400
 2469SOL     OW 9239   7.122   4.461  10.719
 2469SOL    HW1 9240   7.055   4.471  10.650
 2469SOL    HW2 9241   7.127   4.367  10.734
 2470SOL     OW 9242  13.190   3.745   9.838
 2470SOL    HW1 9243  13.234   3.802   9.902
 2470SOL    HW2 9244  13.113   3.795   9.811
 2471SOL     OW 9245   6.091   5.160   1.326
 2471SOL    HW1 9246   6.027   5.114   1.273
 2471SOL    HW2 9247   6.097   5.247   1.286
 2472SOL     OW 9248  11.574  11.582  11.135
 2472SOL    HW1 9249  11.592  11.491  11.114
 2472SOL    HW2 9250  11.544  11.581  11.225
 2473SOL     OW 9251   3.131   3.176  12.176
 2473SOL    HW1 9252   3.087   3.091  12.172
 2473SOL    HW2 9253   3.135   3.196  12.269
 2474SOL     OW 9254  14.713   6.753  10.689
 2474SOL    HW1 9255  14.619   6.745  10.671
 2474SOL    HW2 9256  14.725   6.844  10.716
 2475SOL     OW 9257   4.077   4.117   4.148
 2475SOL    HW1 9258   4.052   4.035   4.191
 2475SOL    HW2 9259   4.063   4.184   4.214
 2476SOL     OW 9260  12.323   0.063   8.858
 2476SOL    HW1 9261  12.344   0.124   8.929
 2476SOL    HW2 9262  12.237   0.028   8.881
 2477SOL     OW 9263   4.666  12.814  10.657
 2477SOL    HW1 9264   4.701  12.903  10.653
 2477SOL    HW2 9265   4.707  12.775  10.734
 2478SOL     OW 9266  12.692  13.188  10.423
 2478SOL    HW1 9267  12.599  13.209  10.432
 2478SOL    HW2 9268  12.726  13.190  10.513
 2479SOL     OW 9269  14.672   8.749  12.032
 2479SOL    HW1 9270  14.661   8.806  12.108
 2479SOL    HW2 9271  14.636   8.799  11.959
 2480SOL     OW 9272  11.253  10.314   3.699
 2480SOL    HW1 9273  11.185  10.379   3.714
 2480SOL    HW2 9274  11.334  10.357   3.728
 2481SOL     OW 9275  12.698   4.834  10.851
 2481SOL    HW1 9276  12.757   4.823  10.925
 2481SOL    HW2 9277  12.634   4.899  10.881
 2482SOL     OW 9278  12.046   0.217   9.627
 2482SOL    HW1 9279  11.995   0.281   9.676
 2482SOL    HW2 9280  12.045   0.139   9.682
 2483SOL     OW 9281  12.075  12.261  10.339
 2483SOL    HW1 9282  11.993  12.259  10.389
 2483SOL    HW2 9283  12.047  12.267  10.247
 2484SOL     OW 9284   6.964   9.493   0.099
 2484SOL    HW1 9285   6.911   9.437   0.157
 2484SOL    HW2 9286   7.052   9.456   0.105
 2485SOL     OW 9287  11.701   3.830   1.710
 2485SOL    HW1 9288  11.608   3.824   1.688
 2485SOL    HW2 9289  11.716   3.924   1.723
 2486SOL     OW 9290   4.564  12.557   5.181
 2486SOL    HW1 9291   4.487  12.501   5.171
 2486SOL    HW2 9292   4.607  12.552   5.096
 2487SOL     OW 9293   1.062   0.136  11.306
 2487SOL    HW1 9294   1.084   0.068  11.241
 2487SOL    HW2 9295   0.972   0.116  11.331
 2488SOL     OW 9296   8.951  12.665   1.662
 2488SOL    HW1 9297   8.963  12.706   1.747
 2488SOL    HW2 9298   8.866  12.697   1.631
 2489SOL     OW 9299  12.452   3.061  14.554
 2489SOL    HW1 9300  12.379   3.026  14.503
 2489SOL    HW2 9301  12.455   3.007  14.633
 2490SOL     OW 9302  14.038   4.194   6.776
 2490SOL    HW1 9303  14.098   4.161   6.710
 2490SOL    HW2 9304  14.055   4.141   6.854
 2491SOL     OW 9305   1.606  12.404   8.418
 2491SOL    HW1 9306   1.678  12.452   8.377
 2491SOL    HW2 9307   1.649  12.333   8.466
 2492SOL     OW 9308   2.515  11.562   0.588
 2492SOL    HW1 9309   2.456  11.563   0.513
 2492SOL    HW2 9310   2.530  11.469   0.606
 2493SOL     OW 9311   8.337   1.510  11.966
 2493SOL    HW1 9312   8.429   1.487  11.953
 2493SOL    HW2 9313   8.311   1.461  12.045
 2494SOL     OW 9314  11.327  14.504   3.121
 2494SOL    HW1 9315  11.345  14.571   3.187
 2494SOL    HW2 9316  11.258  14.542   3.066
 2495SOL     OW 9317   2.384  11.250  14.781
 2495SOL    HW1 9318   2.428  11.165  14.769
 2495SOL    HW2 9319   2.336  11.263  14.699
 2496SOL     OW 9320   4.319   6.999   8.461
 2496SOL    HW1 9321   4.272   7.011   8.543
 2496SOL    HW2 9322   4.385   6.932   8.480
 2497SOL     OW 9323   7.211   0.498   7.360
 2497SOL    HW1 9324   7.175   0.411   7.342
 2497SOL    HW2 9325   7.306   0.487   7.354
 2498SOL     OW 9326   1.286  13.820   1.417
 2498SOL    HW1 9327   1.204  13.786   1.383
 2498SOL    HW2 9328   1.286  13.912   1.391
 2499SOL     OW 9329   7.641   5.128   5.598
 2499SOL    HW1 9330   7.589   5.066   5.547
 2499SOL    HW2 9331   7.696   5.073   5.654
 2500SOL     OW 9332  14.743   0.014   1.099
 2500SOL    HW1 9333  14.653  14.874   1.074
 2500SOL    HW2 9334  14.797  14.844   1.037
 2501SOL     OW 9335   8.208   6.869   3.786
 2501SOL    HW1 9336   8.188   6.891   3.877
 2501SOL    HW2 9337   8.290   6.819   3.791
 2502SOL     OW 9338  10.533  10.096   8.387
 2502SOL    HW1 9339  10.530  10.159   8.458
 2502SOL    HW2 9340  10.443  10.093   8.354
 2503SOL     OW 9341   4.842   2.733  12.390
 2503SOL    HW1 9342   4.847   2.668  12.320
 2503SOL    HW2 9343   4.773   2.794  12.361
 2504SOL     OW 9344  12.953   2.497   3.917
 2504SOL    HW1 9345  12.927   2.587   3.938
 2504SOL    HW2 9346  12.971   2.498   3.823
 2505SOL     OW 9347   5.535  12.331  14.167
 2505SOL    HW1 9348   5.499  12.420  14.167
 2505SOL    HW2 9349   5.629  12.344  14.153
 2506SOL     OW 9350  10.760   4.580  12.488
 2506SOL    HW1 9351  10.811   4.650  12.529
 2506SOL    HW2 9352  10.738   4.520  12.559
 2507SOL     OW 9353  12.569  11.558   6.143
 2507SOL    HW1 9354  12.497  11.595   6.091
 2507SOL    HW2 9355  12.637  11.538   6.079
 2508SOL     OW 9356  10.963   8.474   1.939
 2508SOL    HW1 9357  10.928   8.399   1.892
 2508SOL    HW2 9358  10.969   8.543   1.872
 2509SOL     OW 9359   1.427   4.344   7.807
 2509SOL    HW1 9360   1.367   4.402   7.853
 2509SOL    HW2 9361   1.513   4.362   7.847
 2510SOL     OW 9362  14.672   5.192  10.741
 2510SOL    HW1 9363  14.669   5.172  10.834
 2510SOL    HW2 9364  14.584   5.227  10.721
 2511SOL     OW 9365   2.361   9.402   6.055
 2511SOL    HW1 9366   2.442   9.373   6.096
 2511SOL    HW2 9367   2.353   9.494   6.081
 2512SOL     OW 9368  10.589   6.148  14.252
 2512SOL    HW1 9369  10.608   6.164  14.345
 2512SOL    HW2 9370  10.605   6.054  14.241
 2513SOL     OW 9371   6.370  10.876   8.055
 2513SOL    HW1 9372   6.439  10.848   8.115
 2513SOL    HW2 9373   6.403  10.957   8.015
 2514SOL     OW 9374   1.330  12.439   9.479
 2514SOL    HW1 9375   1.397  12.484   9.530
 2514SOL    HW2 9376   1.267  12.507   9.456
 2515SOL     OW 9377   2.434  11.879   4.260
 2515SOL    HW1 9378   2.441  11.974   4.253
 2515SOL    HW2 9379   2.390  11.853   4.178
 2516SOL     OW 9380   1.453   6.659  14.810
 2516SOL    HW1 9381   1.485   6.639   0.019
 2516SOL    HW2 9382   1.503   6.736  14.783
 2517SOL     OW 9383   7.692  14.434   2.628
 2517SOL    HW1 9384   7.677  14.481   2.545
 2517SOL    HW2 9385   7.786  14.417   2.629
 2518SOL     OW 9386   2.979   8.843  10.870
 2518SOL    HW1 9387   3.026   8.898  10.932
 2518SOL    HW2 9388   3.030   8.762  10.866
 2519SOL     OW 9389   0.042  12.405   6.791
 2519SOL    HW1 9390  14.849  12.398   6.854
 2519SOL    HW2 9391   0.040  12.323   6.743
 2520SOL     OW 9392   4.468   6.787  12.269
 2520SOL    HW1 9393   4.526   6.793  12.344
 2520SOL    HW2 9394   4.515   6.833  12.199
 2521SOL     OW 9395   8.220   0.354   2.927
 2521SOL    HW1 9396   8.278   0.313   2.862
 2521SOL    HW2 9397   8.279   0.383   2.996
 2522SOL     OW 9398   1.237   0.520   2.526
 2522SOL    HW1 9399   1.149   0.553   2.505
 2522SOL    HW2 9400   1.241   0.434   2.486
 2523SOL     OW 9401   2.427   4.177   2.714
 2523SOL    HW1 9402   2.466   4.259   2.743
 2523SOL    HW2 9403   2.478   4.109   2.760
 2524SOL     OW 9404   1.567   7.665  14.096
 2524SOL    HW1 9405   1.588   7.751  14.134
 2524SOL    HW2 9406   1.574   7.679  14.001
 2525SOL     OW 9407   4.103   4.822   4.348
 2525SOL    HW1 9408   4.177   4.871   4.385
 2525SOL    HW2 9409   4.028   4.848   4.401
 2526SOL     OW 9410   0.932  11.243   1.025
 2526SOL    HW1 9411   0.929  11.306   0.954
 2526SOL    HW2 9412   0.941  11.296   1.104
 2527SOL     OW 9413   2.067  10.394   2.395
 2527SOL    HW1 9414   2.062  10.419   2.303
 2527SOL    HW2 9415   2.133  10.325   2.398
 2528SOL     OW 9416   4.713   6.442  12.997
 2528SOL    HW1 9417   4.661   6.399  13.065
 2528SOL    HW2 9418   4.804   6.425  13.021
 2529SOL     OW 9419  11.542   6.646   0.567
 2529SOL    HW1 9420  11.571   6.621   0.655
 2529SOL    HW2 9421  11.499   6.567   0.533
 2530SOL     OW 9422  12.138   2.323   3.311
 2530SOL    HW1 9423  12.222   2.282   3.290
 2530SOL    HW2 9424  12.150   2.416   3.289
 2531SOL     OW 9425   2.604   5.781   8.954
 2531SOL    HW1 9426   2.575   5.872   8.959
 2531SOL    HW2 9427   2.696   5.786   8.928
 2532SOL     OW 9428   7.266  14.681   0.513
 2532SOL    HW1 9429   7.278  14.612   0.448
 2532SOL    HW2 9430   7.292  14.761   0.469
 2533SOL     OW 9431   7.253   8.021   9.223
 2533SOL    HW1 9432   7.191   8.091   9.242
 2533SOL    HW2 9433   7.312   8.058   9.158
 2534SOL     OW 9434   7.633   5.741   3.376
 2534SOL    HW1 9435   7.630   5.718   3.469
 2534SOL    HW2 9436   7.546   5.718   3.343
 2535SOL     OW 9437   2.566  10.654   3.103
 2535SOL    HW1 9438   2.516  10.621   3.029
 2535SOL    HW2 9439   2.521  10.618   3.180
 2536SOL     OW 9440   6.985   2.519   2.595
 2536SOL    HW1 9441   6.976   2.602   2.548
 2536SOL    HW2 9442   7.044   2.538   2.667
 2537SOL     OW 9443   3.408   3.926   6.743
 2537SOL    HW1 9444   3.401   3.852   6.803
 2537SOL    HW2 9445   3.402   3.886   6.656
 2538SOL     OW 9446  13.389   4.475  13.668
 2538SOL    HW1 9447  13.350   4.454  13.753
 2538SOL    HW2 9448  13.319   4.462  13.605
 2539SOL     OW 9449  14.605   1.723  11.856
 2539SOL    HW1 9450  14.546   1.768  11.796
 2539SOL    HW2 9451  14.610   1.633  11.822
 2540SOL     OW 9452  10.767   5.765   6.249
 2540SOL    HW1 9453  10.823   5.689   6.234
 2540SOL    HW2 9454  10.698   5.757   6.182
 2541SOL     OW 9455  13.009   8.074  10.851
 2541SOL    HW1 9456  13.051   8.157  10.830
 2541SOL    HW2 9457  13.000   8.075  10.946
 2542SOL     OW 9458  10.652   0.862   4.323
 2542SOL    HW1 9459  10.571   0.887   4.278
 2542SOL    HW2 9460  10.653   0.766   4.317
 2543SOL     OW 9461   3.404  12.831   6.794
 2543SOL    HW1 9462   3.487  12.855   6.752
 2543SOL    HW2 9463   3.430  12.770   6.863
 2544SOL     OW 9464   0.531  10.754   2.772
 2544SOL    HW1 9465   0.611  10.738   2.721
 2544SOL    HW2 9466   0.493  10.667   2.785
 2545SOL     OW 9467   9.818  13.007   5.390
 2545SOL    HW1 9468   9.731  12.969   5.401
 2545SOL    HW2 9469   9.806  13.074   5.322
 2546SOL     OW 9470   6.578   3.267  10.228
 2546SOL    HW1 9471   6.550   3.176  10.216
 2546SOL    HW2 9472   6.578   3.304  10.140
 2547SOL     OW 9473  14.645   8.110  13.167
 2547SOL    HW1 9474  14.676   8.200  13.165
 2547SOL    HW2 9475  14.669   8.074  13.082
 2548SOL     OW 9476  14.284   4.151  11.784
 2548SOL    HW1 9477  14.281   4.224  11.722
 2548SOL    HW2 9478  14.215   4.092  11.754
 2549SOL     OW 9479  12.694   4.059   8.785
 2549SOL    HW1 9480  12.618   4.103   8.824
 2549SOL    HW2 9481  12.753   4.043   8.859
 2550SOL     OW 9482   3.354  14.327   0.242
 2550SOL    HW1 9483   3.357  14.280   0.326
 2550SOL    HW2 9484   3.347  14.258   0.176
 2551SOL     OW 9485   6.730   5.269  12.108
 2551SOL    HW1 9486   6.682   5.186  12.112
 2551SOL    HW2 9487   6.782   5.262  12.028
 2552SOL     OW 9488   2.975  10.095  13.970
 2552SOL    HW1 9489   3.067  10.072  13.957
 2552SOL    HW2 9490   2.942  10.028  14.030
 2553SOL     OW 9491   5.471   9.897  10.367
 2553SOL    HW1 9492   5.381   9.871  10.350
 2553SOL    HW2 9493   5.509   9.912  10.280
 2554SOL     OW 9494   4.356  10.994   3.292
 2554SOL    HW1 9495   4.375  11.081   3.257
 2554SOL    HW2 9496   4.288  10.959   3.235
 2555SOL     OW 9497   8.489   5.275  12.941
 2555SOL    HW1 9498   8.431   5.235  12.876
 2555SOL    HW2 9499   8.550   5.205  12.964
 2556SOL     OW 9500  11.681   6.837  11.627
 2556SOL    HW1 9501  11.621   6.910  11.611
 2556SOL    HW2 9502  11.687   6.792  11.543
 2557SOL     OW 9503   0.646   8.226   0.647
 2557SOL    HW1 9504   0.715   8.257   0.588
 2557SOL    HW2 9505   0.692   8.206   0.729
 2558SOL     OW 9506   9.441   3.699   9.859
 2558SOL    HW1 9507   9.534   3.678   9.850
 2558SOL    HW2 9508   9.399   3.615   9.877
 2559SOL     OW 9509   3.518   1.727   9.883
 2559SOL    HW1 9510   3.474   1.776   9.813
 2559SOL    HW2 9511   3.510   1.783   9.960
 2560SOL     OW 9512   0.829   0.046  11.410
 2560SOL    HW1 9513   0.797   0.089  11.489
 2560SOL    HW2 9514   0.847  14.835  11.437
 2561SOL     OW 9515  10.691   1.244   5.838
 2561SOL    HW1 9516  10.784   1.260   5.825
 2561SOL    HW2 9517  10.664   1.308   5.904
 2562SOL     OW 9518  13.509  14.807  13.842
 2562SOL    HW1 9519  13.553   0.013  13.838
 2562SOL    HW2 9520  13.427  14.825  13.888
 2563SOL     OW 9521   0.310  13.311   3.246
 2563SOL    HW1 9522   0.308  13.398   3.286
 2563SOL    HW2 9523   0.302  13.251   3.321
 2564SOL     OW 9524   6.251  10.554  13.526
 2564SOL    HW1 9525   6.202  10.483  13.485
 2564SOL    HW2 9526   6.200  10.633  13.509
 2565SOL     OW 9527   9.086   9.282  10.971
 2565SOL    HW1 9528   9.125   9.231  11.043
 2565SOL    HW2 9529   9.150   9.275  10.900
 2566SOL     OW 9530   1.586   9.917   9.333
 2566SOL    HW1 9531   1.599   9.833   9.290
 2566SOL    HW2 9532   1.656   9.923   9.398
 2567SOL     OW 9533   6.870   1.238   0.475
 2567SOL    HW1 9534   6.894   1.326   0.447
 2567SOL    HW2 9535   6.953   1.198   0.501
 2568SOL     OW 9536  13.630   9.593   0.743
 2568SOL    HW1 9537  13.723   9.613   0.728
 2568SOL    HW2 9538  13.606   9.538   0.668
 2569SOL     OW 9539   3.539   6.767   3.861
 2569SOL    HW1 9540   3.475   6.832   3.833
 2569SOL    HW2 9541   3.623   6.801   3.830
 2570SOL     OW 9542   5.777   3.606   7.272
 2570SOL    HW1 9543   5.774   3.558   7.355
 2570SOL    HW2 9544   5.783   3.538   7.205
 2571SOL     OW 9545   5.898  10.964  14.352
 2571SOL    HW1 9546   5.972  11.019  14.379
 2571SOL    HW2 9547   5.856  11.013  14.281
 2572SOL     OW 9548  10.154  14.862   5.507
 2572SOL    HW1 9549  10.112  14.777   5.523
 2572SOL    HW2 9550  10.133   0.035   5.585
 2573SOL     OW 9551   8.704  14.411   7.514
 2573SOL    HW1 9552   8.709  14.458   7.597
 2573SOL    HW2 9553   8.620  14.364   7.518
 2574SOL     OW 9554  13.526   6.852   5.376
 2574SOL    HW1 9555  13.520   6.875   5.283
 2574SOL    HW2 9556  13.610   6.808   5.384
 2575SOL     OW 9557   0.537   4.444   6.383
 2575SOL    HW1 9558   0.471   4.500   6.343
 2575SOL    HW2 9559   0.620   4.475   6.347
 2576SOL     OW 9560   1.440  10.099  14.181
 2576SOL    HW1 9561   1.358  10.119  14.135
 2576SOL    HW2 9562   1.474  10.184  14.208
 2577SOL     OW 9563   3.650   0.815   8.689
 2577SOL    HW1 9564   3.583   0.855   8.633
 2577SOL    HW2 9565   3.712   0.775   8.628
 2578SOL     OW 9566  11.162   7.341  12.232
 2578SOL    HW1 9567  11.109   7.284  12.287
 2578SOL    HW2 9568  11.233   7.284  12.200
 2579SOL     OW 9569   8.062   9.496   8.362
 2579SOL    HW1 9570   8.108   9.495   8.446
 2579SOL    HW2 9571   8.120   9.545   8.304
 2580SOL     OW 9572   6.835   9.329  14.160
 2580SOL    HW1 9573   6.761   9.386  14.176
 2580SOL    HW2 9574   6.904   9.361  14.218
 2581SOL     OW 9575  14.653   7.784   7.117
 2581SOL    HW1 9576  14.591   7.711   7.111
 2581SOL    HW2 9577  14.739   7.743   7.110
 2582SOL     OW 9578   8.925   0.983   3.103
 2582SOL    HW1 9579   8.882   0.999   3.019
 2582SOL    HW2 9580   8.911   1.063   3.153
 2583SOL     OW 9581   9.035   9.014   0.845
 2583SOL    HW1 9582   9.051   8.927   0.807
 2583SOL    HW2 9583   9.030   9.072   0.769
 2584SOL     OW 9584  10.370   3.506   5.323
 2584SOL    HW1 9585  10.444   3.456   5.358
 2584SOL    HW2 9586  10.411   3.581   5.278
 2585SOL     OW 9587   9.585  11.935   5.624
 2585SOL    HW1 9588   9.676  11.956   5.644
 2585SOL    HW2 9589   9.539  12.019   5.630
 2586SOL     OW 9590   8.259   1.335   8.701
 2586SOL    HW1 9591   8.334   1.277   8.687
 2586SOL    HW2 9592   8.204   1.289   8.764
 2587SOL     OW 9593   8.449  10.143   2.461
 2587SOL    HW1 9594   8.389  10.210   2.494
 2587SOL    HW2 9595   8.468  10.171   2.371
 2588SOL     OW 9596   3.762  12.707   7.222
 2588SOL    HW1 9597   3.731  12.656   7.297
 2588SOL    HW2 9598   3.840  12.752   7.253
 2589SOL     OW 9599   2.658  12.708   6.464
 2589SOL    HW1 9600   2.609  12.703   6.382
 2589SOL    HW2 9601   2.748  12.729   6.437
 2590SOL     OW 9602   4.709  11.304   3.704
 2590SOL    HW1 9603   4.750  11.387   3.729
 2590SOL    HW2 9604   4.777  11.239   3.720
 2591SOL     OW 9605   6.050  14.245   8.987
 2591SOL    HW1 9606   6.074  14.266   9.077
 2591SOL    HW2 9607   6.134  14.239   8.941
 2592SOL     OW 9608   8.697  11.470   6.940
 2592SOL    HW1 9609   8.632  11.495   7.005
 2592SOL    HW2 9610   8.647  11.424   6.873
 2593SOL     OW 9611  13.532  11.169   7.618
 2593SOL    HW1 9612  13.590  11.240   7.645
 2593SOL    HW2 9613  13.445  11.199   7.644
 2594SOL     OW 9614  10.620   8.166   1.500
 2594SOL    HW1 9615  10.547   8.105   1.502
 2594SOL    HW2 9616  10.698   8.110   1.490
 2595SOL     OW 9617  10.955  11.742   0.730
 2595SOL    HW1 9618  10.944  11.740   0.825
 2595SOL    HW2 9619  10.979  11.833   0.710
 2596SOL     OW 9620  14.217  12.746   9.174
 2596SOL    HW1 9621  14.250  12.818   9.119
 2596SOL    HW2 9622  14.200  12.787   9.259
 2597SOL     OW 9623   7.708   6.574   3.547
 2597SOL    HW1 9624   7.722   6.668   3.558
 2597SOL    HW2 9625   7.729   6.536   3.632
 2598SOL     OW 9626  14.072   5.054  11.746
 2598SOL    HW1 9627  14.153   5.091  11.712
 2598SOL    HW2 9628  14.092   4.961  11.758
 2599SOL     OW 9629  12.070   4.386   4.997
 2599SOL    HW1 9630  11.989   4.432   5.020
 2599SOL    HW2 9631  12.090   4.417   4.908
 2600SOL     OW 9632   4.168  13.890   5.741
 2600SOL    HW1 9633   4.177  13.911   5.833
 2600SOL    HW2 9634   4.078  13.856   5.733
 2601SOL     OW 9635   9.157  14.110   6.521
 2601SOL    HW1 9636   9.210  14.188   6.539
 2601SOL    HW2 9637   9.172  14.053   6.597
 2602SOL     OW 9638   4.105   1.508   6.873
 2602SOL    HW1 9639   4.130   1.580   6.814
 2602SOL    HW2 9640   4.106   1.547   6.960
 2603SOL     OW 9641   1.452  12.070   2.305
 2603SOL    HW1 9642   1.545  12.058   2.323
 2603SOL    HW2 9643   1.410  12.063   2.391
 2604SOL     OW 9644   0.270   2.380   9.446
 2604SOL    HW1 9645   0.265   2.285   9.439
 2604SOL    HW2 9646   0.193   2.405   9.497
 2605SOL     OW 9647   9.324   8.056  14.810
 2605SOL    HW1 9648   9.344   8.008   0.011
 2605SOL    HW2 9649   9.382   8.132  14.813
 2606SOL     OW 9650   2.322   9.741   9.758
 2606SOL    HW1 9651   2.414   9.745   9.780
 2606SOL    HW2 9652   2.309   9.813   9.695
 2607SOL     OW 9653  12.536   7.051   2.186
 2607SOL    HW1 9654  12.553   6.958   2.199
 2607SOL    HW2 9655  12.458   7.069   2.238
 2608SOL     OW 9656  12.449   4.323   2.742
 2608SOL    HW1 9657  12.376   4.362   2.694
 2608SOL    HW2 9658  12.497   4.397   2.779
 2609SOL     OW 9659   0.819   7.214   9.118
 2609SOL    HW1 9660   0.737   7.233   9.163
 2609SOL    HW2 9661   0.867   7.297   9.119
 2610SOL     OW 9662  12.710   5.603   1.062
 2610SOL    HW1 9663  12.659   5.567   0.989
 2610SOL    HW2 9664  12.704   5.698   1.051
 2611SOL     OW 9665   0.952   7.216   6.436
 2611SOL    HW1 9666   0.865   7.248   6.413
 2611SOL    HW2 9667   0.955   7.221   6.532
 2612SOL     OW 9668  12.198  10.087   8.616
 2612SOL    HW1 9669  12.212   9.995   8.594
 2612SOL    HW2 9670  12.150  10.123   8.542
 2613SOL     OW 9671   4.456   3.016   3.431
 2613SOL    HW1 9672   4.525   3.051   3.487
 2613SOL    HW2 9673   4.387   2.989   3.492
 2614SOL     OW 9674   2.302   2.203   6.659
 2614SOL    HW1 9675   2.380   2.160   6.624
 2614SOL    HW2 9676   2.322   2.296   6.656
 2615SOL     OW 9677   0.895  14.352  14.877
 2615SOL    HW1 9678   0.951  14.297   0.052
 2615SOL    HW2 9679   0.806  14.330   0.025
 2616SOL     OW 9680  12.947   8.190  11.607
 2616SOL    HW1 9681  13.031   8.166  11.646
 2616SOL    HW2 9682  12.882   8.154  11.667
 2617SOL     OW 9683   9.595   9.073   9.137
 2617SOL    HW1 9684   9.663   9.006   9.139
 2617SOL    HW2 9685   9.619   9.133   9.208
 2618SOL     OW 9686  11.757  12.694   9.382
 2618SOL    HW1 9687  11.760  12.788   9.399
 2618SOL    HW2 9688  11.719  12.686   9.295
 2619SOL     OW 9689   0.995   4.575  12.216
 2619SOL    HW1 9690   1.010   4.620  12.299
 2619SOL    HW2 9691   1.083   4.551  12.186
 2620SOL     OW 9692  13.101   7.185   3.673
 2620SOL    HW1 9693  13.139   7.158   3.590
 2620SOL    HW2 9694  13.015   7.143   3.675
 2621SOL     OW 9695   1.836  13.554   3.600
 2621SOL    HW1 9696   1.777  13.512   3.663
 2621SOL    HW2 9697   1.779  13.582   3.528
 2622SOL     OW 9698   8.605   9.783   4.419
 2622SOL    HW1 9699   8.651   9.857   4.458
 2622SOL    HW2 9700   8.672   9.714   4.412
 2623SOL     OW 9701   9.181   3.718   9.475
 2623SOL    HW1 9702   9.169   3.763   9.559
 2623SOL    HW2 9703   9.269   3.741   9.447
 2624SOL     OW 9704   3.629   1.534   4.325
 2624SOL    HW1 9705   3.690   1.514   4.254
 2624SOL    HW2 9706   3.579   1.453   4.337
 2625SOL     OW 9707   8.024  11.279   9.022
 2625SOL    HW1 9708   7.950  11.301   8.965
 2625SOL    HW2 9709   8.045  11.360   9.067
 2626SOL     OW 9710   3.106  10.150  10.312
 2626SOL    HW1 9711   3.055  10.121  10.236
 2626SOL    HW2 9712   3.189  10.179  10.276
 2627SOL     OW 9713   0.417  14.294   2.278
 2627SOL    HW1 9714   0.341  14.248   2.242
 2627SOL    HW2 9715   0.390  14.319   2.367
 2628SOL     OW 9716   0.894   5.649   0.005
 2628SOL    HW1 9717   0.970   5.699  14.854
 2628SOL    HW2 9718   0.895   5.570  14.830
 2629SOL     OW 9719   8.187   3.084  11.192
 2629SOL    HW1 9720   8.190   3.175  11.161
 2629SOL    HW2 9721   8.193   3.091  11.287
 2630SOL     OW 9722   5.221   4.401   9.446
 2630SOL    HW1 9723   5.263   4.460   9.382
 2630SOL    HW2 9724   5.152   4.358   9.396
 2631SOL     OW 9725   0.777   7.265  10.242
 2631SOL    HW1 9726   0.737   7.233  10.323
 2631SOL    HW2 9727   0.871   7.253  10.257
 2632SOL     OW 9728   2.221   3.244   4.358
 2632SOL    HW1 9729   2.308   3.283   4.347
 2632SOL    HW2 9730   2.179   3.253   4.273
 2633SOL     OW 9731   0.038   4.703   9.669
 2633SOL    HW1 9732   0.023   4.773   9.606
 2633SOL    HW2 9733   0.034   4.745   9.754
 2634SOL     OW 9734   2.390   9.367   7.850
 2634SOL    HW1 9735   2.439   9.425   7.791
 2634SOL    HW2 9736   2.410   9.401   7.938
 2635SOL     OW 9737   0.289  10.258  14.308
 2635SOL    HW1 9738   0.273  10.351  14.289
 2635SOL    HW2 9739   0.263  10.212  14.229
 2636SOL     OW 9740  12.203   2.137  14.711
 2636SOL    HW1 9741  12.275   2.140  14.648
 2636SOL    HW2 9742  12.241   2.098  14.790
 2637SOL     OW 9743   2.141   1.463  14.871
 2637SOL    HW1 9744   2.168   1.555  14.870
 2637SOL    HW2 9745   2.131   1.441  14.778
 2638SOL     OW 9746   6.068   4.256  10.450
 2638SOL    HW1 9747   6.128   4.330  10.457
 2638SOL    HW2 9748   5.999   4.286  10.390
 2639SOL     OW 9749   6.994   9.294  12.251
 2639SOL    HW1 9750   6.976   9.294  12.157
 2639SOL    HW2 9751   7.067   9.355  12.262
 2640SOL     OW 9752   5.706   1.627  14.788
 2640SOL    HW1 9753   5.701   1.707  14.841
 2640SOL    HW2 9754   5.698   1.657  14.698
 2641SOL     OW 9755   6.587   6.489   3.269
 2641SOL    HW1 9756   6.511   6.538   3.302
 2641SOL    HW2 9757   6.645   6.480   3.344
 2642SOL     OW 9758   0.295   7.626   6.394
 2642SOL    HW1 9759   0.227   7.647   6.458
 2642SOL    HW2 9760   0.342   7.709   6.380
 2643SOL     OW 9761   0.194  11.108  10.210
 2643SOL    HW1 9762   0.245  11.185  10.237
 2643SOL    HW2 9763   0.112  11.144  10.176
 2644SOL     OW 9764  13.269  11.337  11.203
 2644SOL    HW1 9765  13.352  11.330  11.155
 2644SOL    HW2 9766  13.289  11.395  11.276
 2645SOL     OW 9767  12.398   6.340   1.963
 2645SOL    HW1 9768  12.442   6.421   1.990
 2645SOL    HW2 9769  12.419   6.332   1.870
 2646SOL     OW 9770   7.660   8.731   5.025
 2646SOL    HW1 9771   7.747   8.755   4.994
 2646SOL    HW2 9772   7.661   8.635   5.028
 2647SOL     OW 9773   1.300   1.613   9.770
 2647SOL    HW1 9774   1.361   1.544   9.795
 2647SOL    HW2 9775   1.301   1.613   9.674
 2648SOL     OW 9776   4.305  12.473   8.474
 2648SOL    HW1 9777   4.372  12.452   8.409
 2648SOL    HW2 9778   4.288  12.566   8.463
 2649SOL     OW 9779   4.100   5.083  14.191
 2649SOL    HW1 9780   4.140   5.168  14.209
 2649SOL    HW2 9781   4.014   5.103  14.156
 2650SOL     OW 9782   4.351   7.588   3.539
 2650SOL    HW1 9783   4.289   7.526   3.578
 2650SOL    HW2 9784   4.387   7.636   3.614
 2651SOL     OW 9785  11.552   0.770  12.588
 2651SOL    HW1 9786  11.599   0.824  12.651
 2651SOL    HW2 9787  11.481   0.827  12.557
 2652SOL     OW 9788  13.211   0.225  13.255
 2652SOL    HW1 9789  13.237   0.190  13.170
 2652SOL    HW2 9790  13.292   0.224  13.307
 2653SOL     OW 9791   7.811   7.206   9.652
 2653SOL    HW1 9792   7.846   7.132   9.602
 2653SOL    HW2 9793   7.758   7.254   9.589
 2654SOL     OW 9794   5.013   2.190   2.796
 2654SOL    HW1 9795   4.998   2.214   2.887
 2654SOL    HW2 9796   5.082   2.250   2.767
 2655SOL     OW 9797   2.544   9.307  13.763
 2655SOL    HW1 9798   2.491   9.343  13.692
 2655SOL    HW2 9799   2.485   9.248  13.810
 2656SOL     OW 9800   7.259   1.358   3.488
 2656SOL    HW1 9801   7.304   1.367   3.404
 2656SOL    HW2 9802   7.203   1.282   3.477
 2657SOL     OW 9803  11.666  10.523  13.553
 2657SOL    HW1 9804  11.708  10.438  13.565
 2657SOL    HW2 9805  11.573  10.502  13.548
 2658SOL     OW 9806   5.579   0.845  11.335
 2658SOL    HW1 9807   5.655   0.901  11.318
 2658SOL    HW2 9808   5.590   0.771  11.275
 2659SOL     OW 9809   1.091   5.498  14.589
 2659SOL    HW1 9810   1.018   5.498  14.527
 2659SOL    HW2 9811   1.140   5.418  14.569
 2660SOL     OW 9812   3.403   6.309   1.633
 2660SOL    HW1 9813   3.484   6.278   1.675
 2660SOL    HW2 9814   3.386   6.394   1.675
 2661SOL     OW 9815  11.846  10.772  12.316
 2661SOL    HW1 9816  11.836  10.755  12.223
 2661SOL    HW2 9817  11.838  10.687  12.358
 2662SOL     OW 9818   0.310  14.402   3.576
 2662SOL    HW1 9819   0.344  14.340   3.641
 2662SOL    HW2 9820   0.278  14.476   3.628
 2663SOL     OW 9821  13.166  14.703  12.676
 2663SOL    HW1 9822  13.136  14.635  12.737
 2663SOL    HW2 9823  13.096  14.710  12.612
 2664SOL     OW 9824   1.834   6.627  14.167
 2664SOL    HW1 9825   1.782   6.706  14.151
 2664SOL    HW2 9826   1.774   6.567  14.211
 2665SOL     OW 9827  12.064   6.416  12.429
 2665SOL    HW1 9828  11.997   6.385  12.490
 2665SOL    HW2 9829  12.139   6.359  12.444
 2666SOL     OW 9830   6.709  13.968   5.118
 2666SOL    HW1 9831   6.782  13.912   5.090
 2666SOL    HW2 9832   6.636  13.942   5.063
 2667SOL     OW 9833  13.468   6.035   9.674
 2667SOL    HW1 9834  13.477   6.093   9.598
 2667SOL    HW2 9835  13.536   6.066   9.735
 2668SOL     OW 9836   5.635   2.846  14.122
 2668SOL    HW1 9837   5.681   2.768  14.093
 2668SOL    HW2 9838   5.566   2.814  14.180
 2669SOL     OW 9839   5.308   8.321  10.443
 2669SOL    HW1 9840   5.223   8.333  10.401
 2669SOL    HW2 9841   5.358   8.267  10.382
 2670SOL     OW 9842   4.775  13.489  13.033
 2670SOL    HW1 9843   4.756  13.568  13.083
 2670SOL    HW2 9844   4.774  13.518  12.941
 2671SOL     OW 9845   2.861  14.580   2.831
 2671SOL    HW1 9846   2.782  14.538   2.866
 2671SOL    HW2 9847   2.926  14.569   2.901
 2672SOL     OW 9848   8.312   0.414  10.589
 2672SOL    HW1 9849   8.296   0.509  10.588
 2672SOL    HW2 9850   8.225   0.376  10.581
 2673SOL     OW 9851   9.228   3.797   1.177
 2673SOL    HW1 9852   9.238   3.795   1.272
 2673SOL    HW2 9853   9.312   3.831   1.145
 2674SOL     OW 9854  13.753   3.059  11.840
 2674SOL    HW1 9855  13.700   3.067  11.919
 2674SOL    HW2 9856  13.793   2.972  11.846
 2675SOL     OW 9857   7.493  14.048  11.186
 2675SOL    HW1 9858   7.427  14.001  11.238
 2675SOL    HW2 9859   7.442  14.108  11.131
 2676SOL     OW 9860   7.611   0.134   0.449
 2676SOL    HW1 9861   7.706   0.138   0.455
 2676SOL    HW2 9862   7.581   0.112   0.537
 2677SOL     OW 9863   6.825  12.748  10.489
 2677SOL    HW1 9864   6.738  12.746  10.528
 2677SOL    HW2 9865   6.811  12.718  10.399
 2678SOL     OW 9866  12.327   9.937  10.757
 2678SOL    HW1 9867  12.330  10.015  10.814
 2678SOL    HW2 9868  12.407   9.944  10.704
 2679SOL     OW 9869   7.715   9.661  10.595
 2679SOL    HW1 9870   7.811   9.656  10.602
 2679SOL    HW2 9871   7.687   9.691  10.681
 2680SOL     OW 9872  13.705  12.871  13.606
 2680SOL    HW1 9873  13.637  12.827  13.555
 2680SOL    HW2 9874  13.686  12.965  13.594
 2681SOL     OW 9875   1.836   7.791   4.385
 2681SOL    HW1 9876   1.884   7.805   4.467
 2681SOL    HW2 9877   1.835   7.876   4.342
 2682SOL     OW 9878   7.270  11.375  14.332
 2682SOL    HW1 9879   7.219  11.395  14.254
 2682SOL    HW2 9880   7.329  11.305  14.306
 2683SOL     OW 9881   7.437  10.825   0.319
 2683SOL    HW1 9882   7.419  10.827   0.413
 2683SOL    HW2 9883   7.350  10.828   0.279
 2684SOL     OW 9884   0.226   3.272   5.511
 2684SOL    HW1 9885   0.151   3.331   5.514
 2684SOL    HW2 9886   0.274   3.299   5.432
 2685SOL     OW 9887   2.348   0.554   0.798
 2685SOL    HW1 9888   2.281   0.494   0.766
 2685SOL    HW2 9889   2.299   0.633   0.821
 2686SOL     OW 9890  12.686   0.999   2.010
 2686SOL    HW1 9891  12.714   1.090   2.018
 2686SOL    HW2 9892  12.755   0.949   2.053
 2687SOL     OW 9893  11.460  14.321   9.882
 2687SOL    HW1 9894  11.547  14.349   9.911
 2687SOL    HW2 9895  11.477  14.265   9.806
 2688SOL     OW 9896  10.488  11.393  14.771
 2688SOL    HW1 9897  10.516  11.407  14.681
 2688SOL    HW2 9898  10.476  11.299  14.779
 2689SOL     OW 9899   9.326   3.503   3.859
 2689SOL    HW1 9900   9.399   3.526   3.915
 2689SOL    HW2 9901   9.282   3.586   3.840
 2690SOL     OW 9902   8.930   8.827   0.579
 2690SOL    HW1 9903   9.000   8.782   0.626
 2690SOL    HW2 9904   8.876   8.757   0.543
 2691SOL     OW 9905   6.298  12.533   1.191
 2691SOL    HW1 9906   6.368  12.476   1.158
 2691SOL    HW2 9907   6.240  12.546   1.116
 2692SOL     OW 9908   8.767   2.490   7.172
 2692SOL    HW1 9909   8.776   2.552   7.245
 2692SOL    HW2 9910   8.750   2.545   7.096
 2693SOL     OW 9911  12.977  11.313  12.524
 2693SOL    HW1 9912  12.933  11.388  12.483
 2693SOL    HW2 9913  13.070  11.337  12.522
 2694SOL     OW 9914  14.717   7.270   0.700
 2694SOL    HW1 9915  14.670   7.268   0.784
 2694SOL    HW2 9916  14.680   7.197   0.650
 2695SOL     OW 9917   2.176  14.513   2.322
 2695SOL    HW1 9918   2.244  14.471   2.375
 2695SOL    HW2 9919   2.137  14.442   2.272
 2696SOL     OW 9920   9.995   8.787   5.998
 2696SOL    HW1 9921   9.937   8.713   5.975
 2696SOL    HW2 9922  10.069   8.746   6.042
 2697SOL     OW 9923  13.794   5.623  12.196
 2697SOL    HW1 9924  13.806   5.529  12.209
 2697SOL    HW2 9925  13.753   5.654  12.277
 2698SOL     OW 9926   8.117  12.617  12.136
 2698SOL    HW1 9927   8.105  12.533  12.091
 2698SOL    HW2 9928   8.116  12.595  12.229
 2699SOL     OW 9929  11.456  11.171   5.236
 2699SOL    HW1 9930  11.512  11.118   5.179
 2699SOL    HW2 9931  11.367  11.150   5.209
 2700SOL     OW 9932   5.610  10.626  11.580
 2700SOL    HW1 9933   5.652  10.708  11.606
 2700SOL    HW2 9934   5.520  10.652  11.557
 2701SOL     OW 9935  13.767   7.304   5.026
 2701SOL    HW1 9936  13.698   7.275   5.085
 2701SOL    HW2 9937  13.848   7.294   5.075
 2702SOL     OW 9938   9.468   9.779   3.462
 2702SOL    HW1 9939   9.504   9.691   3.473
 2702SOL    HW2 9940   9.516   9.833   3.526
 2703SOL     OW 9941  11.940   6.451   1.029
 2703SOL    HW1 9942  11.902   6.530   1.067
 2703SOL    HW2 9943  12.004   6.483   0.965
 2704SOL     OW 9944  10.888  13.625   9.791
 2704SOL    HW1 9945  10.849  13.673   9.864
 2704SOL    HW2 9946  10.898  13.690   9.722
 2705SOL     OW 9947  12.088   2.580   6.043
 2705SOL    HW1 9948  12.183   2.578   6.045
 2705SOL    HW2 9949  12.065   2.578   5.950
 2706SOL     OW 9950   8.090  10.120   2.550
 2706SOL    HW1 9951   8.134  10.049   2.504
 2706SOL    HW2 9952   8.000  10.116   2.519
 2707SOL     OW 9953  10.720  11.047   7.982
 2707SOL    HW1 9954  10.630  11.077   7.974
 2707SOL    HW2 9955  10.721  10.991   8.059
 2708SOL     OW 9956  12.251  11.479   1.707
 2708SOL    HW1 9957  12.303  11.459   1.785
 2708SOL    HW2 9958  12.193  11.403   1.697
 2709SOL     OW 9959   9.468   3.832   1.726
 2709SOL    HW1 9960   9.388   3.781   1.710
 2709SOL    HW2 9961   9.530   3.768   1.760
 2710SOL     OW 9962   3.319   8.361   9.372
 2710SOL    HW1 9963   3.338   8.267   9.374
 2710SOL    HW2 9964   3.387   8.398   9.317
 2711SOL     OW 9965  13.839  14.667   1.504
 2711SOL    HW1 9966  13.758  14.617   1.500
 2711SOL    HW2 9967  13.854  14.696   1.414
 2712SOL     OW 9968   8.327   5.045   3.773
 2712SOL    HW1 9969   8.412   5.084   3.751
 2712SOL    HW2 9970   8.274   5.120   3.800
 2713SOL     OW 9971   1.570  11.669   3.095
 2713SOL    HW1 9972   1.637  11.680   3.028
 2713SOL    HW2 9973   1.493  11.712   3.059
 2714SOL     OW 9974   6.755   6.264  13.886
 2714SOL    HW1 9975   6.837   6.266  13.936
 2714SOL    HW2 9976   6.720   6.176  13.901
 2715SOL     OW 9977   4.444  11.676   8.082
 2715SOL    HW1 9978   4.365  11.675   8.137
 2715SOL    HW2 9979   4.417  11.723   8.003
 2716SOL     OW 9980  13.303   0.820   1.022
 2716SOL    HW1 9981  13.330   0.818   1.114
 2716SOL    HW2 9982  13.375   0.777   0.975
 2717SOL     OW 9983   8.041   9.616  14.171
 2717SOL    HW1 9984   8.044   9.616  14.075
 2717SOL    HW2 9985   7.950   9.635  14.193
 2718SOL     OW 9986   2.664   9.015  12.730
 2718SOL    HW1 9987   2.703   8.980  12.649
 2718SOL    HW2 9988   2.594   9.073  12.700
 2719SOL     OW 9989   1.900   3.539  10.243
 2719SOL    HW1 9990   1.984   3.506  10.275
 2719SOL    HW2 9991   1.919   3.629  10.215
 2720SOL     OW 9992   8.841   3.039   1.803
 2720SOL    HW1 9993   8.778   3.099   1.764
 2720SOL    HW2 9994   8.910   3.030   1.737
 2721SOL     OW 9995   9.837  13.377   8.683
 2721SOL    HW1 9996   9.829  13.434   8.759
 2721SOL    HW2 9997   9.794  13.296   8.710
 2722SOL     OW 9998   6.604   1.370   6.569
 2722SOL    HW1 9999   6.647   1.285   6.573
 2722SOL    HW210000   6.510   1.351   6.574
 2723SOL     OW10001   9.692   4.759   3.552
 2723SOL    HW110002   9.729   4.715   3.629
 2723SOL    HW210003   9.678   4.690   3.488
 2724SOL     OW10004   5.776  12.774   8.268
 2724SOL    HW110005   5.729  12.857   8.277
 2724SOL    HW210006   5.712  12.708   8.295
 2725SOL     OW10007   8.940  14.687   3.682
 2725SOL    HW110008   8.896  14.686   3.598
 2725SOL    HW210009   8.886  14.744   3.737
 2726SOL     OW10010  11.722   9.243   5.191
 2726SOL    HW110011  11.629   9.231   5.172
 2726SOL    HW210012  11.766   9.234   5.106
 2727SOL     OW10013   3.881   7.762   0.241
 2727SOL    HW110014   3.862   7.668   0.251
 2727SOL    HW210015   3.800   7.805   0.265
 2728SOL     OW10016   3.066   9.063  13.221
 2728SOL    HW110017   3.027   9.024  13.300
 2728SOL    HW210018   3.038   9.154  13.223
 2729SOL     OW10019   5.400   5.790   4.113
 2729SOL    HW110020   5.324   5.790   4.056
 2729SOL    HW210021   5.414   5.881   4.136
 2730SOL     OW10022  13.933  14.552   4.682
 2730SOL    HW110023  13.865  14.538   4.748
 2730SOL    HW210024  14.015  14.542   4.729
 2731SOL     OW10025   1.439   8.276   9.164
 2731SOL    HW110026   1.455   8.370   9.172
 2731SOL    HW210027   1.345   8.270   9.147
 2732SOL     OW10028  13.750  12.986  12.274
 2732SOL    HW110029  13.726  13.068  12.230
 2732SOL    HW210030  13.790  13.014  12.356
 2733SOL     OW10031   9.840   5.224   4.559
 2733SOL    HW110032   9.768   5.161   4.564
 2733SOL    HW210033   9.919   5.171   4.563
 2734SOL     OW10034  14.397   8.988   3.822
 2734SOL    HW110035  14.371   8.933   3.748
 2734SOL    HW210036  14.491   8.971   3.833
 2735SOL     OW10037  10.774   2.340  13.408
 2735SOL    HW110038  10.777   2.275  13.338
 2735SOL    HW210039  10.823   2.415  13.373
 2736SOL     OW10040   2.186   6.404  11.402
 2736SOL    HW110041   2.212   6.328  11.454
 2736SOL    HW210042   2.246   6.403  11.327
 2737SOL     OW10043   4.481   7.269  14.115
 2737SOL    HW110044   4.411   7.282  14.051
 2737SOL    HW210045   4.549   7.331  14.088
 2738SOL     OW10046   2.206   7.190   1.048
 2738SOL    HW110047   2.293   7.153   1.033
 2738SOL    HW210048   2.216   7.283   1.027
 2739SOL     OW10049   3.366  12.627  11.706
 2739SOL    HW110050   3.399  12.568  11.638
 2739SOL    HW210051   3.275  12.602  11.717
 2740SOL     OW10052  14.349   1.621   9.181
 2740SOL    HW110053  14.439   1.594   9.167
 2740SOL    HW210054  14.340   1.704   9.133
 2741SOL     OW10055  11.666   7.865   1.988
 2741SOL    HW110056  11.753   7.827   1.999
 2741SOL    HW210057  11.614   7.829   2.060
 2742SOL     OW10058  13.944   1.694   3.278
 2742SOL    HW110059  13.917   1.630   3.344
 2742SOL    HW210060  13.991   1.642   3.213
 2743SOL     OW10061   1.568  10.360   7.404
 2743SOL    HW110062   1.498  10.394   7.348
 2743SOL    HW210063   1.548  10.267   7.413
 2744SOL     OW10064   3.305   8.875   5.294
 2744SOL    HW110065   3.365   8.948   5.276
 2744SOL    HW210066   3.307   8.867   5.390
 2745SOL     OW10067   7.987  13.055   6.597
 2745SOL    HW110068   7.961  13.012   6.515
 2745SOL    HW210069   7.904  13.087   6.634
 2746SOL     OW10070   5.715   0.508   7.970
 2746SOL    HW110071   5.765   0.438   7.927
 2746SOL    HW210072   5.626   0.474   7.974
 2747SOL     OW10073   8.633  10.206   5.445
 2747SOL    HW110074   8.551  10.157   5.441
 2747SOL    HW210075   8.696  10.143   5.480
 2748SOL     OW10076  14.150  11.411   2.493
 2748SOL    HW110077  14.228  11.442   2.447
 2748SOL    HW210078  14.148  11.461   2.574
 2749SOL     OW10079   8.465   7.538  14.200
 2749SOL    HW110080   8.469   7.507  14.110
 2749SOL    HW210081   8.374   7.527  14.225
 2750SOL     OW10082   9.391  12.852   4.435
 2750SOL    HW110083   9.360  12.776   4.484
 2750SOL    HW210084   9.339  12.925   4.470
 2751SOL     OW10085   0.520   0.614   0.530
 2751SOL    HW110086   0.529   0.557   0.607
 2751SOL    HW210087   0.426   0.629   0.523
 2752SOL     OW10088   4.869  10.805  13.942
 2752SOL    HW110089   4.942  10.857  13.909
 2752SOL    HW210090   4.854  10.740  13.874
 2753SOL     OW10091  10.782  11.416  14.174
 2753SOL    HW110092  10.784  11.497  14.122
 2753SOL    HW210093  10.836  11.436  14.251
 2754SOL     OW10094   8.942  14.842   2.276
 2754SOL    HW110095   8.986  14.762   2.303
 2754SOL    HW210096   8.894  14.817   2.197
 2755SOL     OW10097   5.570  12.979  10.441
 2755SOL    HW110098   5.639  12.919  10.412
 2755SOL    HW210099   5.505  12.923  10.482
 2756SOL     OW10100  11.583   7.158   2.236
 2756SOL    HW110101  11.550   7.220   2.171
 2756SOL    HW210102  11.519   7.087   2.236
 2757SOL     OW10103   3.322  12.020   4.261
 2757SOL    HW110104   3.356  11.948   4.208
 2757SOL    HW210105   3.400  12.063   4.296
 2758SOL     OW10106   6.561  14.771   9.467
 2758SOL    HW110107   6.486  14.729   9.424
 2758SOL    HW210108   6.568  14.727   9.551
 2759SOL     OW10109   5.429   6.074   2.110
 2759SOL    HW110110   5.428   6.147   2.049
 2759SOL    HW210111   5.340   6.039   2.108
 2760SOL     OW10112   1.822   9.073   6.923
 2760SOL    HW110113   1.907   9.042   6.955
 2760SOL    HW210114   1.777   8.993   6.896
 2761SOL     OW10115   3.146   3.163   0.282
 2761SOL    HW110116   3.195   3.245   0.272
 2761SOL    HW210117   3.202   3.097   0.242
 2762SOL     OW10118  13.265   4.004  11.324
 2762SOL    HW110119  13.349   4.049  11.326
 2762SOL    HW210120  13.284   3.918  11.287
 2763SOL     OW10121  13.259   9.247   5.308
 2763SOL    HW110122  13.247   9.341   5.294
 2763SOL    HW210123  13.327   9.241   5.375
 2764SOL     OW10124   5.368   7.285  13.684
 2764SOL    HW110125   5.391   7.373  13.653
 2764SOL    HW210126   5.273   7.280  13.676
 2765SOL     OW10127   1.501  13.721   8.304
 2765SOL    HW110128   1.439  13.674   8.360
 2765SOL    HW210129   1.447  13.763   8.237
 2766SOL     OW10130  11.382   2.119  10.144
 2766SOL    HW110131  11.426   2.198  10.113
 2766SOL    HW210132  11.289   2.135  10.125
 2767SOL     OW10133   1.955  10.193  14.266
 2767SOL    HW110134   2.043  10.156  14.254
 2767SOL    HW210135   1.914  10.184  14.180
 2768SOL     OW10136   4.315  12.925   1.407
 2768SOL    HW110137   4.311  12.830   1.397
 2768SOL    HW210138   4.327  12.959   1.319
 2769SOL     OW10139  10.317   0.101   6.342
 2769SOL    HW110140  10.246   0.163   6.328
 2769SOL    HW210141  10.344   0.115   6.433
 2770SOL     OW10142  12.652  12.016   7.179
 2770SOL    HW110143  12.653  11.921   7.165
 2770SOL    HW210144  12.560  12.038   7.187
 2771SOL     OW10145  13.812   4.211   6.597
 2771SOL    HW110146  13.870   4.194   6.672
 2771SOL    HW210147  13.724   4.213   6.635
 2772SOL     OW10148  13.701   0.529   1.026
 2772SOL    HW110149  13.752   0.609   1.041
 2772SOL    HW210150  13.729   0.470   1.096
 2773SOL     OW10151   4.253  11.597   2.578
 2773SOL    HW110152   4.256  11.507   2.547
 2773SOL    HW210153   4.183  11.598   2.644
 2774SOL     OW10154  10.487  13.484   8.081
 2774SOL    HW110155  10.461  13.576   8.076
 2774SOL    HW210156  10.450  13.453   8.163
 2775SOL     OW10157   3.677   1.322   2.473
 2775SOL    HW110158   3.756   1.348   2.519
 2775SOL    HW210159   3.640   1.252   2.527
 2776SOL     OW10160   3.311   0.789  14.373
 2776SOL    HW110161   3.229   0.833  14.347
 2776SOL    HW210162   3.376   0.820  14.310
 2777SOL     OW10163   3.900  14.372   3.279
 2777SOL    HW110164   3.842  14.297   3.262
 2777SOL    HW210165   3.912  14.372   3.374
 2778SOL     OW10166   7.272   2.060   3.160
 2778SOL    HW110167   7.360   2.052   3.198
 2778SOL    HW210168   7.232   1.974   3.174
 2779SOL     OW10169  11.533   7.074   6.218
 2779SOL    HW110170  11.546   6.996   6.272
 2779SOL    HW210171  11.441   7.097   6.232
 2780SOL     OW10172   7.798   9.984   7.372
 2780SOL    HW110173   7.827  10.072   7.393
 2780SOL    HW210174   7.704   9.984   7.388
 2781SOL     OW10175   5.673  11.186   8.969
 2781SOL    HW110176   5.732  11.215   8.900
 2781SOL    HW210177   5.586  11.191   8.929
 2782SOL     OW10178   0.755   2.022   8.181
 2782SOL    HW110179   0.812   2.097   8.164
 2782SOL    HW210180   0.808   1.945   8.159
 2783SOL     OW10181  14.716   8.831  13.281
 2783SOL    HW110182  14.805   8.819  13.315
 2783SOL    HW210183  14.661   8.832  13.359
 2784SOL     OW10184   2.441  10.364   1.815
 2784SOL    HW110185   2.412  10.405   1.896
 2784SOL    HW210186   2.472  10.437   1.761
 2785SOL     OW10187   5.042   0.522  14.412
 2785SOL    HW110188   5.083   0.594  14.364
 2785SOL    HW210189   4.950   0.523  14.385
 2786SOL     OW10190   4.107  14.022  10.879
 2786SOL    HW110191   4.039  14.082  10.909
 2786SOL    HW210192   4.166  14.013  10.954
 2787SOL     OW10193   3.372  13.036  13.571
 2787SOL    HW110194   3.337  13.085  13.645
 2787SOL    HW210195   3.431  12.972  13.611
 2788SOL     OW10196   2.224  12.070  11.540
 2788SOL    HW110197   2.165  12.142  11.516
 2788SOL    HW210198   2.307  12.092  11.497
 2789SOL     OW10199  14.805  10.990   5.753
 2789SOL    HW110200  14.765  11.076   5.760
 2789SOL    HW210201  14.768  10.940   5.827
 2790SOL     OW10202   2.839   7.482   4.591
 2790SOL    HW110203   2.935   7.489   4.593
 2790SOL    HW210204   2.820   7.445   4.505
 2791SOL     OW10205   8.659   7.502   2.329
 2791SOL    HW110206   8.707   7.458   2.258
 2791SOL    HW210207   8.722   7.504   2.401
 2792SOL     OW10208  12.675   3.440   5.008
 2792SOL    HW110209  12.608   3.494   4.967
 2792SOL    HW210210  12.708   3.384   4.937
 2793SOL     OW10211   7.720   0.010  11.219
 2793SOL    HW110212   7.743  14.803  11.254
 2793SOL    HW210213   7.724   0.069  11.294
 2794SOL     OW10214   6.761  14.218  13.012
 2794SOL    HW110215   6.696  14.176  12.955
 2794SOL    HW210216   6.710  14.249  13.087
 2795SOL     OW10217   9.109  14.701   5.181
 2795SOL    HW110218   9.070  14.679   5.265
 2795SOL    HW210219   9.103  14.796   5.176
 2796SOL     OW10220   4.334   9.011  10.387
 2796SOL    HW110221   4.283   8.993  10.465
 2796SOL    HW210222   4.337   9.107  10.382
 2797SOL     OW10223   8.700   4.394   6.620
 2797SOL    HW110224   8.685   4.312   6.574
 2797SOL    HW210225   8.786   4.423   6.591
 2798SOL     OW10226   8.029  11.589   0.162
 2798SOL    HW110227   7.944  11.619   0.129
 2798SOL    HW210228   8.018  11.585   0.257
 2799SOL     OW10229   1.179  11.974   4.591
 2799SOL    HW110230   1.166  11.907   4.658
 2799SOL    HW210231   1.237  11.932   4.527
 2800SOL     OW10232   2.150   4.597   9.033
 2800SOL    HW110233   2.088   4.583   8.962
 2800SOL    HW210234   2.235   4.607   8.990
 2801SOL     OW10235   6.724   3.874   8.613
 2801SOL    HW110236   6.662   3.810   8.649
 2801SOL    HW210237   6.754   3.924   8.689
 2802SOL     OW10238   2.132  12.383   4.699
 2802SOL    HW110239   2.049  12.350   4.665
 2802SOL    HW210240   2.117  12.477   4.712
 2803SOL     OW10241   3.464   4.313   9.282
 2803SOL    HW110242   3.429   4.262   9.210
 2803SOL    HW210243   3.558   4.291   9.284
 2804SOL     OW10244   7.524   8.419   3.497
 2804SOL    HW110245   7.473   8.352   3.452
 2804SOL    HW210246   7.591   8.370   3.545
 2805SOL     OW10247   2.135   7.735  13.059
 2805SOL    HW110248   2.084   7.793  13.003
 2805SOL    HW210249   2.118   7.765  13.148
 2806SOL     OW10250   6.440  14.024   6.255
 2806SOL    HW110251   6.485  14.103   6.282
 2806SOL    HW210252   6.353  14.030   6.296
 2807SOL     OW10253   8.718   4.062   3.021
 2807SOL    HW110254   8.679   3.979   2.994
 2807SOL    HW210255   8.669   4.087   3.099
 2808SOL     OW10256   8.922   6.078  14.303
 2808SOL    HW110257   8.899   6.048  14.391
 2808SOL    HW210258   8.907   6.001  14.247
 2809SOL     OW10259   3.463   2.791   1.961
 2809SOL    HW110260   3.442   2.813   2.052
 2809SOL    HW210261   3.488   2.699   1.964
 2810SOL     OW10262  11.396  11.594   1.030
 2810SOL    HW110263  11.386  11.595   0.935
 2810SOL    HW210264  11.472  11.650   1.048
 2811SOL     OW10265  12.662  11.008   1.369
 2811SOL    HW110266  12.576  10.966   1.359
 2811SOL    HW210267  12.682  11.042   1.282
 2812SOL     OW10268   2.460   8.191   9.438
 2812SOL    HW110269   2.550   8.197   9.406
 2812SOL    HW210270   2.407   8.232   9.370
 2813SOL     OW10271   4.861   1.801   1.076
 2813SOL    HW110272   4.935   1.849   1.040
 2813SOL    HW210273   4.824   1.859   1.142
 2814SOL     OW10274   4.427   9.097   7.195
 2814SOL    HW110275   4.416   9.171   7.136
 2814SOL    HW210276   4.364   9.032   7.165
 2815SOL     OW10277   7.324   1.043   6.384
 2815SOL    HW110278   7.377   1.036   6.464
 2815SOL    HW210279   7.346   0.965   6.334
 2816SOL     OW10280  12.306  12.530   7.597
 2816SOL    HW110281  12.250  12.584   7.653
 2816SOL    HW210282  12.331  12.456   7.652
 2817SOL     OW10283   9.186  14.025  11.751
 2817SOL    HW110284   9.154  14.045  11.663
 2817SOL    HW210285   9.278  14.051  11.749
 2818SOL     OW10286   4.998  13.937  12.172
 2818SOL    HW110287   4.925  13.914  12.114
 2818SOL    HW210288   5.072  13.948  12.113
 2819SOL     OW10289   3.367  10.616   3.612
 2819SOL    HW110290   3.317  10.556   3.669
 2819SOL    HW210291   3.325  10.608   3.527
 2820SOL     OW10292  14.864   0.113   3.919
 2820SOL    HW110293  14.790   0.140   3.973
 2820SOL    HW210294   0.059   0.166   3.950
 2821SOL     OW10295   3.090  10.927  13.493
 2821SOL    HW110296   3.128  10.978  13.422
 2821SOL    HW210297   3.097  10.836  13.464
 2822SOL     OW10298   2.434   5.432  11.485
 2822SOL    HW110299   2.486   5.501  11.445
 2822SOL    HW210300   2.416   5.371  11.413
 2823SOL     OW10301   3.997   8.296   8.213
 2823SOL    HW110302   3.922   8.264   8.163
 2823SOL    HW210303   3.969   8.383   8.243
 2824SOL     OW10304   2.360   5.766  11.078
 2824SOL    HW110305   2.369   5.671  11.074
 2824SOL    HW210306   2.342   5.784  11.170
 2825SOL     OW10307   4.230   4.511   0.540
 2825SOL    HW110308   4.265   4.434   0.586
 2825SOL    HW210309   4.157   4.541   0.594
 2826SOL     OW10310  12.563   3.450  12.248
 2826SOL    HW110311  12.637   3.462  12.308
 2826SOL    HW210312  12.490   3.494  12.291
 2827SOL     OW10313   1.534   1.912   5.903
 2827SOL    HW110314   1.513   1.949   5.818
 2827SOL    HW210315   1.577   1.828   5.884
 2828SOL     OW10316   0.943   4.900   1.951
 2828SOL    HW110317   0.888   4.837   1.997
 2828SOL    HW210318   1.032   4.877   1.976
 2829SOL     OW10319   4.967   4.241  12.462
 2829SOL    HW110320   4.984   4.330  12.493
 2829SOL    HW210321   5.005   4.238  12.374
 2830SOL     OW10322   9.814   7.340  12.574
 2830SOL    HW110323   9.890   7.306  12.621
 2830SOL    HW210324   9.770   7.262  12.540
 2831SOL     OW10325  13.148  14.851   0.202
 2831SOL    HW110326  13.146   0.061   0.238
 2831SOL    HW210327  13.179  14.862   0.112
 2832SOL     OW10328   0.423  10.403   4.177
 2832SOL    HW110329   0.343  10.351   4.171
 2832SOL    HW210330   0.424  10.435   4.268
 2833SOL     OW10331   8.297  11.649  13.481
 2833SOL    HW110332   8.329  11.624  13.568
 2833SOL    HW210333   8.340  11.733  13.463
 2834SOL     OW10334  10.839  14.192  12.637
 2834SOL    HW110335  10.810  14.115  12.588
 2834SOL    HW210336  10.773  14.204  12.705
 2835SOL     OW10337   6.005   4.315   6.257
 2835SOL    HW110338   5.943   4.269   6.314
 2835SOL    HW210339   6.025   4.397   6.303
 2836SOL     OW10340   7.114  10.562   4.837
 2836SOL    HW110341   7.162  10.528   4.762
 2836SOL    HW210342   7.054  10.491   4.862
 2837SOL     OW10343  11.797  11.085  13.165
 2837SOL    HW110344  11.787  11.073  13.070
 2837SOL    HW210345  11.876  11.138  13.174
 2838SOL     OW10346  12.584  14.154   4.207
 2838SOL    HW110347  12.571  14.198   4.123
 2838SOL    HW210348  12.538  14.210   4.270
 2839SOL     OW10349  11.493  14.385   6.569
 2839SOL    HW110350  11.472  14.478   6.563
 2839SOL    HW210351  11.547  14.367   6.492
 2840SOL     OW10352  13.051   9.089  10.261
 2840SOL    HW110353  13.090   9.058  10.179
 2840SOL    HW210354  12.957   9.092  10.242
 2841SOL     OW10355   8.711   6.236   4.218
 2841SOL    HW110356   8.779   6.290   4.177
 2841SOL    HW210357   8.670   6.293   4.283
 2842SOL     OW10358   1.889   8.234   3.970
 2842SOL    HW110359   1.934   8.260   4.050
 2842SOL    HW210360   1.861   8.317   3.930
 2843SOL     OW10361   8.884   9.581   3.892
 2843SOL    HW110362   8.960   9.524   3.883
 2843SOL    HW210363   8.869   9.615   3.803
 2844SOL     OW10364   1.017   9.605   3.536
 2844SOL    HW110365   1.015   9.531   3.596
 2844SOL    HW210366   1.014   9.683   3.592
 2845SOL     OW10367   6.744   3.946  14.648
 2845SOL    HW110368   6.740   3.851  14.642
 2845SOL    HW210369   6.671   3.977  14.594
 2846SOL     OW10370  11.503   0.299   2.663
 2846SOL    HW110371  11.501   0.394   2.669
 2846SOL    HW210372  11.442   0.269   2.731
 2847SOL     OW10373  12.712  13.024  11.716
 2847SOL    HW110374  12.746  12.949  11.668
 2847SOL    HW210375  12.618  13.008  11.722
 2848SOL     OW10376   4.908   7.826   1.288
 2848SOL    HW110377   4.960   7.753   1.321
 2848SOL    HW210378   4.933   7.833   1.196
 2849SOL     OW10379   6.383   7.043  12.536
 2849SOL    HW110380   6.369   7.092  12.618
 2849SOL    HW210381   6.399   7.111  12.471
 2850SOL     OW10382   6.029   6.195  10.747
 2850SOL    HW110383   5.953   6.211  10.691
 2850SOL    HW210384   6.021   6.103  10.772
 2851SOL     OW10385  11.653   2.447  10.025
 2851SOL    HW110386  11.709   2.376   9.994
 2851SOL    HW210387  11.566   2.408  10.029
 2852SOL     OW10388  14.244  13.652   2.736
 2852SOL    HW110389  14.165  13.691   2.698
 2852SOL    HW210390  14.212  13.597   2.807
 2853SOL     OW10391  14.612   8.959  10.600
 2853SOL    HW110392  14.707   8.951  10.590
 2853SOL    HW210393  14.589   8.894  10.666
 2854SOL     OW10394   8.986   3.758  12.469
 2854SOL    HW110395   8.974   3.783  12.378
 2854SOL    HW210396   8.899   3.727  12.496
 2855SOL     OW10397  13.449  12.315   9.496
 2855SOL    HW110398  13.438  12.221   9.478
 2855SOL    HW210399  13.482  12.319   9.586
 2856SOL     OW10400   5.152  14.180  13.432
 2856SOL    HW110401   5.082  14.125  13.396
 2856SOL    HW210402   5.106  14.256  13.468
 2857SOL     OW10403  13.741   5.435   6.766
 2857SOL    HW110404  13.813   5.391   6.722
 2857SOL    HW210405  13.668   5.373   6.762
 2858SOL     OW10406  11.207  14.447   1.415
 2858SOL    HW110407  11.185  14.480   1.502
 2858SOL    HW210408  11.297  14.478   1.400
 2859SOL     OW10409  11.499   0.489   4.077
 2859SOL    HW110410  11.479   0.400   4.106
 2859SOL    HW210411  11.542   0.477   3.992
 2860SOL     OW10412   2.592   9.748   0.010
 2860SOL    HW110413   2.586   9.791   0.095
 2860SOL    HW210414   2.503   9.750  14.854
 2861SOL     OW10415   5.030   2.052  11.264
 2861SOL    HW110416   5.121   2.022  11.269
 2861SOL    HW210417   5.022   2.114  11.337
 2862SOL     OW10418   8.310   4.420  14.504
 2862SOL    HW110419   8.296   4.513  14.523
 2862SOL    HW210420   8.251   4.401  14.432
 2863SOL     OW10421   1.424   1.887   5.443
 2863SOL    HW110422   1.360   1.930   5.386
 2863SOL    HW210423   1.471   1.827   5.386
 2864SOL     OW10424   1.593   6.513   5.598
 2864SOL    HW110425   1.636   6.486   5.679
 2864SOL    HW210426   1.639   6.465   5.529
 2865SOL     OW10427   0.871   8.051  10.177
 2865SOL    HW110428   0.955   8.010  10.197
 2865SOL    HW210429   0.817   7.979  10.144
 2866SOL     OW10430   4.850   9.656  10.992
 2866SOL    HW110431   4.869   9.683  10.902
 2866SOL    HW210432   4.885   9.567  10.999
 2867SOL     OW10433  13.435   9.619  12.095
 2867SOL    HW110434  13.448   9.693  12.155
 2867SOL    HW210435  13.345   9.592  12.109
 2868SOL     OW10436   8.495   3.198  14.145
 2868SOL    HW110437   8.565   3.195  14.080
 2868SOL    HW210438   8.539   3.187  14.229
 2869SOL     OW10439  10.692  11.169  14.244
 2869SOL    HW110440  10.744  11.130  14.174
 2869SOL    HW210441  10.701  11.263  14.232
 2870SOL     OW10442  14.225   3.747   8.026
 2870SOL    HW110443  14.214   3.727   7.934
 2870SOL    HW210444  14.267   3.834   8.027
 2871SOL     OW10445   4.110   4.199   5.033
 2871SOL    HW110446   4.037   4.176   5.091
 2871SOL    HW210447   4.143   4.115   5.001
 2872SOL     OW10448   7.822   7.986   0.454
 2872SOL    HW110449   7.882   8.056   0.478
 2872SOL    HW210450   7.797   8.006   0.363
 2873SOL     OW10451  10.279   3.882   2.902
 2873SOL    HW110452  10.323   3.950   2.852
 2873SOL    HW210453  10.209   3.852   2.845
 2874SOL     OW10454   7.132  13.945   8.364
 2874SOL    HW110455   7.093  13.956   8.450
 2874SOL    HW210456   7.148  14.034   8.333
 2875SOL     OW10457   5.962   5.565   1.420
 2875SOL    HW110458   5.942   5.615   1.499
 2875SOL    HW210459   5.906   5.604   1.352
 2876SOL     OW10460  11.615   7.924   2.608
 2876SOL    HW110461  11.557   7.958   2.677
 2876SOL    HW210462  11.575   7.953   2.526
 2877SOL     OW10463   7.119   4.407   5.725
 2877SOL    HW110464   7.046   4.354   5.758
 2877SOL    HW210465   7.135   4.470   5.795
 2878SOL     OW10466   4.471   1.812   7.078
 2878SOL    HW110467   4.467   1.889   7.021
 2878SOL    HW210468   4.466   1.847   7.167
 2879SOL     OW10469  10.997   7.727   9.996
 2879SOL    HW110470  10.993   7.643   9.951
 2879SOL    HW210471  11.048   7.711  10.075
 2880SOL     OW10472  13.490   2.778   3.445
 2880SOL    HW110473  13.475   2.859   3.492
 2880SOL    HW210474  13.579   2.787   3.409
 2881SOL     OW10475   2.242   8.747  10.145
 2881SOL    HW110476   2.239   8.673  10.085
 2881SOL    HW210477   2.210   8.712  10.228
 2882SOL     OW10478  14.858   5.709  14.806
 2882SOL    HW110479  14.830   5.627  14.846
 2882SOL    HW210480   0.048   5.742  14.864
 2883SOL     OW10481   3.739  14.466  13.744
 2883SOL    HW110482   3.724  14.501  13.832
 2883SOL    HW210483   3.671  14.400  13.731
 2884SOL     OW10484   3.132   0.883   2.576
 2884SOL    HW110485   3.225   0.904   2.566
 2884SOL    HW210486   3.121   0.865   2.669
 2885SOL     OW10487   0.885   8.028   9.851
 2885SOL    HW110488   0.946   7.958   9.872
 2885SOL    HW210489   0.869   8.072   9.934
 2886SOL     OW10490  12.019  12.650   9.508
 2886SOL    HW110491  12.057  12.702   9.438
 2886SOL    HW210492  11.928  12.638   9.483
 2887SOL     OW10493   3.973   4.912   9.045
 2887SOL    HW110494   3.928   4.887   9.126
 2887SOL    HW210495   3.992   4.829   9.001
 2888SOL     OW10496  10.305   1.932   5.150
 2888SOL    HW110497  10.269   1.865   5.092
 2888SOL    HW210498  10.304   2.012   5.098
 2889SOL     OW10499   1.373   8.263  11.416
 2889SOL    HW110500   1.409   8.185  11.374
 2889SOL    HW210501   1.411   8.262  11.504
 2890SOL     OW10502   3.733   2.119   3.938
 2890SOL    HW110503   3.814   2.169   3.926
 2890SOL    HW210504   3.668   2.184   3.965
 2891SOL     OW10505   0.224   1.809   0.335
 2891SOL    HW110506   0.226   1.877   0.402
 2891SOL    HW210507   0.314   1.805   0.302
 2892SOL     OW10508   0.678   7.158   3.995
 2892SOL    HW110509   0.634   7.217   4.056
 2892SOL    HW210510   0.634   7.174   3.911
 2893SOL     OW10511   6.501  12.461  12.984
 2893SOL    HW110512   6.450  12.504  12.915
 2893SOL    HW210513   6.435  12.429  13.046
 2894SOL     OW10514  14.376  11.713   6.278
 2894SOL    HW110515  14.450  11.743   6.331
 2894SOL    HW210516  14.305  11.698   6.341
 2895SOL     OW10517  10.570   3.831  11.330
 2895SOL    HW110518  10.573   3.787  11.245
 2895SOL    HW210519  10.655   3.875  11.338
 2896SOL     OW10520   2.490   3.278  12.579
 2896SOL    HW110521   2.509   3.291  12.486
 2896SOL    HW210522   2.427   3.206  12.580
 2897SOL     OW10523   1.444  13.447   4.437
 2897SOL    HW110524   1.408  13.359   4.449
 2897SOL    HW210525   1.369  13.500   4.412
 2898SOL     OW10526   4.579  12.555  10.295
 2898SOL    HW110527   4.547  12.604  10.371
 2898SOL    HW210528   4.670  12.584  10.285
 2899SOL     OW10529   7.199   1.502   7.609
 2899SOL    HW110530   7.283   1.466   7.637
 2899SOL    HW210531   7.137   1.430   7.619
 2900SOL     OW10532   9.209  10.089   0.012
 2900SOL    HW110533   9.269  10.049  14.828
 2900SOL    HW210534   9.122  10.075  14.853
 2901SOL     OW10535   8.994   9.011   0.353
 2901SOL    HW110536   8.915   9.008   0.299
 2901SOL    HW210537   8.973   8.957   0.429
 2902SOL     OW10538   8.757   0.322   3.314
 2902SOL    HW110539   8.670   0.328   3.354
 2902SOL    HW210540   8.816   0.304   3.387
 2903SOL     OW10541   2.282   1.581   8.751
 2903SOL    HW110542   2.309   1.673   8.741
 2903SOL    HW210543   2.317   1.556   8.837
 2904SOL     OW10544   4.431   1.096   6.353
 2904SOL    HW110545   4.396   1.134   6.433
 2904SOL    HW210546   4.384   1.142   6.283
 2905SOL     OW10547   7.803   0.954  10.529
 2905SOL    HW110548   7.779   0.922  10.442
 2905SOL    HW210549   7.720   0.960  10.576
 2906SOL     OW10550  10.029   0.349   8.443
 2906SOL    HW110551  10.119   0.367   8.473
 2906SOL    HW210552  10.010   0.262   8.479
 2907SOL     OW10553   5.822   4.955   9.800
 2907SOL    HW110554   5.804   4.960   9.706
 2907SOL    HW210555   5.906   5.001   9.810
 2908SOL     OW10556  14.540  13.119   6.478
 2908SOL    HW110557  14.500  13.124   6.391
 2908SOL    HW210558  14.620  13.068   6.464
 2909SOL     OW10559   8.880  14.475  10.918
 2909SOL    HW110560   8.856  14.438  11.003
 2909SOL    HW210561   8.903  14.399  10.865
 2910SOL     OW10562   6.531   5.337  13.539
 2910SOL    HW110563   6.580   5.263  13.576
 2910SOL    HW210564   6.574   5.355  13.456
 2911SOL     OW10565   5.422   5.191   7.505
 2911SOL    HW110566   5.440   5.278   7.541
 2911SOL    HW210567   5.357   5.153   7.564
 2912SOL     OW10568   7.576   0.826  14.859
 2912SOL    HW110569   7.543   0.768   0.048
 2912SOL    HW210570   7.671   0.820  14.866
 2913SOL     OW10571  12.650   3.055   7.113
 2913SOL    HW110572  12.581   3.072   7.177
 2913SOL    HW210573  12.730   3.051   7.164
 2914SOL     OW10574   2.247   0.411   1.996
 2914SOL    HW110575   2.194   0.381   1.922
 2914SOL    HW210576   2.284   0.330   2.033
 2915SOL     OW10577   5.647  13.846   3.680
 2915SOL    HW110578   5.671  13.869   3.770
 2915SOL    HW210579   5.717  13.788   3.650
 2916SOL     OW10580  14.051   2.305  11.059
 2916SOL    HW110581  13.977   2.250  11.083
 2916SOL    HW210582  14.097   2.321  11.142
 2917SOL     OW10583   2.555   1.336  10.667
 2917SOL    HW110584   2.588   1.413  10.620
 2917SOL    HW210585   2.527   1.276  10.598
 2918SOL     OW10586   9.714   9.859   9.635
 2918SOL    HW110587   9.624   9.884   9.615
 2918SOL    HW210588   9.767   9.931   9.602
 2919SOL     OW10589  14.492   2.779   4.139
 2919SOL    HW110590  14.486   2.702   4.083
 2919SOL    HW210591  14.561   2.833   4.099
 2920SOL     OW10592   9.315  13.110  10.263
 2920SOL    HW110593   9.342  13.055  10.336
 2920SOL    HW210594   9.368  13.081  10.189
 2921SOL     OW10595  12.197   5.794  14.045
 2921SOL    HW110596  12.188   5.756  14.132
 2921SOL    HW210597  12.231   5.882  14.061
 2922SOL     OW10598   2.845   8.980   3.108
 2922SOL    HW110599   2.766   9.029   3.131
 2922SOL    HW210600   2.826   8.942   3.023
 2923SOL     OW10601   7.000  11.010  10.352
 2923SOL    HW110602   7.047  11.071  10.408
 2923SOL    HW210603   6.947  10.957  10.411
 2924SOL     OW10604  12.149  13.260  10.682
 2924SOL    HW110605  12.216  13.193  10.667
 2924SOL    HW210606  12.134  13.258  10.776
 2925SOL     OW10607  11.196   2.752   9.814
 2925SOL    HW110608  11.220   2.813   9.744
 2925SOL    HW210609  11.208   2.802   9.894
 2926SOL     OW10610   6.131   2.646   4.758
 2926SOL    HW110611   6.126   2.577   4.824
 2926SOL    HW210612   6.123   2.727   4.807
 2927SOL     OW10613   9.831   6.294  13.912
 2927SOL    HW110614   9.901   6.233  13.932
 2927SOL    HW210615   9.793   6.317  13.997
 2928SOL     OW10616   8.690   5.404   4.097
 2928SOL    HW110617   8.605   5.363   4.111
 2928SOL    HW210618   8.674   5.469   4.028
 2929SOL     OW10619   7.033   5.157   6.465
 2929SOL    HW110620   7.052   5.178   6.556
 2929SOL    HW210621   7.119   5.151   6.423
 2930SOL     OW10622   5.022   5.096  13.024
 2930SOL    HW110623   5.020   5.124  13.115
 2930SOL    HW210624   5.041   5.002  13.028
 2931SOL     OW10625  13.404   1.253  11.658
 2931SOL    HW110626  13.374   1.162  11.648
 2931SOL    HW210627  13.447   1.254  11.743
 2932SOL     OW10628   2.641   0.006  12.978
 2932SOL    HW110629   2.659   0.053  12.896
 2932SOL    HW210630   2.649   0.073  13.046
 2933SOL     OW10631   1.052  12.345  12.667
 2933SOL    HW110632   1.032  12.264  12.713
 2933SOL    HW210633   0.991  12.409  12.704
 2934SOL     OW10634  10.365   4.002   9.129
 2934SOL    HW110635  10.286   4.020   9.181
 2934SOL    HW210636  10.417   4.082   9.135
 2935SOL     OW10637   5.610  10.946  13.934
 2935SOL    HW110638   5.532  10.993  13.904
 2935SOL    HW210639   5.641  10.900  13.856
 2936SOL     OW10640   3.412   7.567  13.025
 2936SOL    HW110641   3.463   7.487  13.038
 2936SOL    HW210642   3.393   7.597  13.114
 2937SOL     OW10643  11.250  11.809   7.938
 2937SOL    HW110644  11.277  11.856   7.859
 2937SOL    HW210645  11.165  11.772   7.915
 2938SOL     OW10646  11.076   7.163   0.738
 2938SOL    HW110647  11.034   7.077   0.729
 2938SOL    HW210648  11.062   7.187   0.829
 2939SOL     OW10649   4.411  10.909   3.728
 2939SOL    HW110650   4.468  10.959   3.670
 2939SOL    HW210651   4.339  10.969   3.748
 2940SOL     OW10652   4.197   9.486  10.420
 2940SOL    HW110653   4.241   9.551  10.365
 2940SOL    HW210654   4.200   9.523  10.508
 2941SOL     OW10655  11.524   6.194   6.038
 2941SOL    HW110656  11.591   6.196   6.106
 2941SOL    HW210657  11.499   6.285   6.026
 2942SOL     OW10658   4.757   0.151   9.966
 2942SOL    HW110659   4.832   0.183   9.915
 2942SOL    HW210660   4.772   0.057   9.975
 2943SOL     OW10661   2.744   8.187  10.201
 2943SOL    HW110662   2.818   8.187  10.141
 2943SOL    HW210663   2.753   8.269  10.250
 2944SOL     OW10664   0.021   9.928   4.012
 2944SOL    HW110665   0.017   9.975   4.095
 2944SOL    HW210666   0.011   9.996   3.946
 2945SOL     OW10667  12.626  14.390  11.123
 2945SOL    HW110668  12.570  14.461  11.093
 2945SOL    HW210669  12.705  14.398  11.070
 2946SOL     OW10670  14.022  10.736   4.390
 2946SOL    HW110671  13.973  10.741   4.309
 2946SOL    HW210672  14.094  10.676   4.371
 2947SOL     OW10673  14.045   2.740  14.619
 2947SOL    HW110674  14.020   2.797  14.691
 2947SOL    HW210675  14.113   2.683  14.655
 2948SOL     OW10676   1.334   5.859   9.083
 2948SOL    HW110677   1.426   5.882   9.096
 2948SOL    HW210678   1.312   5.806   9.160
 2949SOL     OW10679  14.544   4.976  11.718
 2949SOL    HW110680  14.506   4.912  11.779
 2949SOL    HW210681  14.585   5.042  11.775
 2950SOL     OW10682  11.326   4.387   1.018
 2950SOL    HW110683  11.375   4.311   0.988
 2950SOL    HW210684  11.338   4.388   1.113
 2951SOL     OW10685   1.180  11.585   4.424
 2951SOL    HW110686   1.228  11.539   4.355
 2951SOL    HW210687   1.247  11.611   4.488
 2952SOL     OW10688  13.183   3.135  12.952
 2952SOL    HW110689  13.251   3.143  12.885
 2952SOL    HW210690  13.144   3.049  12.936
 2953SOL     OW10691  11.376   2.803   0.852
 2953SOL    HW110692  11.335   2.871   0.906
 2953SOL    HW210693  11.328   2.723   0.875
 2954SOL     OW10694   8.745   3.402  10.248
 2954SOL    HW110695   8.813   3.342  10.277
 2954SOL    HW210696   8.672   3.345  10.221
 2955SOL     OW10697   9.147  10.509   5.404
 2955SOL    HW110698   9.202  10.460   5.343
 2955SOL    HW210699   9.093  10.564   5.349
 2956SOL     OW10700   3.341  12.052   7.407
 2956SOL    HW110701   3.377  11.968   7.378
 2956SOL    HW210702   3.417  12.108   7.418
 2957SOL     OW10703   2.739   7.677   9.378
 2957SOL    HW110704   2.730   7.721   9.293
 2957SOL    HW210705   2.823   7.706   9.412
 2958SOL     OW10706  12.222   8.329  10.600
 2958SOL    HW110707  12.279   8.291  10.534
 2958SOL    HW210708  12.272   8.403  10.636
 2959SOL     OW10709   2.881  11.319   7.950
 2959SOL    HW110710   2.973  11.326   7.924
 2959SOL    HW210711   2.880  11.342   8.043
 2960SOL     OW10712  14.721   6.620   5.435
 2960SOL    HW110713  14.783   6.548   5.435
 2960SOL    HW210714  14.763   6.688   5.382
 2961SOL     OW10715   6.123   0.960   6.133
 2961SOL    HW110716   6.138   0.879   6.182
 2961SOL    HW210717   6.196   0.963   6.071
 2962SOL     OW10718  11.823   8.671  10.807
 2962SOL    HW110719  11.831   8.766  10.807
 2962SOL    HW210720  11.871   8.643  10.728
 2963SOL     OW10721   7.738   7.289  10.068
 2963SOL    HW110722   7.818   7.288  10.015
 2963SOL    HW210723   7.722   7.382  10.085
 2964SOL     OW10724   6.268   1.550  14.485
 2964SOL    HW110725   6.239   1.611  14.552
 2964SOL    HW210726   6.230   1.466  14.509
 2965SOL     OW10727   8.809  10.919   5.298
 2965SOL    HW110728   8.745  10.871   5.245
 2965SOL    HW210729   8.756  10.978   5.352
 2966SOL     OW10730   4.274   6.348   8.989
 2966SOL    HW110731   4.308   6.437   8.987
 2966SOL    HW210732   4.348   6.294   9.017
 2967SOL     OW10733   0.077   6.731   9.664
 2967SOL    HW110734   0.004   6.730   9.601
 2967SOL    HW210735   0.035   6.720   9.749
 2968SOL     OW10736   6.518   1.243   3.938
 2968SOL    HW110737   6.578   1.235   3.864
 2968SOL    HW210738   6.440   1.286   3.902
 2969SOL     OW10739  12.390   9.304  10.597
 2969SOL    HW110740  12.433   9.351  10.525
 2969SOL    HW210741  12.316   9.360  10.621
 2970SOL     OW10742  14.119   6.453   0.218
 2970SOL    HW110743  14.144   6.435   0.309
 2970SOL    HW210744  14.188   6.511   0.186
 2971SOL     OW10745  13.956  11.119   4.594
 2971SOL    HW110746  14.028  11.157   4.543
 2971SOL    HW210747  13.883  11.113   4.533
 2972SOL     OW10748   5.209   0.292   7.531
 2972SOL    HW110749   5.161   0.375   7.527
 2972SOL    HW210750   5.150   0.229   7.489
 2973SOL     OW10751   7.219  11.336   9.806
 2973SOL    HW110752   7.193  11.246   9.825
 2973SOL    HW210753   7.197  11.349   9.714
 2974SOL     OW10754  13.223   9.782   9.459
 2974SOL    HW110755  13.202   9.832   9.380
 2974SOL    HW210756  13.215   9.690   9.433
 2975SOL     OW10757   5.659   1.266   6.438
 2975SOL    HW110758   5.576   1.230   6.471
 2975SOL    HW210759   5.707   1.290   6.517
 2976SOL     OW10760  12.761   9.763   0.307
 2976SOL    HW110761  12.778   9.821   0.382
 2976SOL    HW210762  12.673   9.729   0.324
 2977SOL     OW10763   6.008   5.412   9.759
 2977SOL    HW110764   6.034   5.323   9.785
 2977SOL    HW210765   5.939   5.399   9.694
 2978SOL     OW10766   0.361   6.724  10.257
 2978SOL    HW110767   0.336   6.816  10.252
 2978SOL    HW210768   0.343   6.698  10.348
 2979SOL     OW10769   0.859   6.579   7.800
 2979SOL    HW110770   0.865   6.493   7.841
 2979SOL    HW210771   0.790   6.624   7.848
 2980SOL     OW10772   2.595   3.458   2.569
 2980SOL    HW110773   2.595   3.362   2.565
 2980SOL    HW210774   2.687   3.482   2.583
 2981SOL     OW10775   5.849   4.542  11.614
 2981SOL    HW110776   5.877   4.455  11.644
 2981SOL    HW210777   5.778   4.566  11.673
 2982SOL     OW10778  11.780   0.026   2.687
 2982SOL    HW110779  11.784  14.819   2.645
 2982SOL    HW210780  11.715   0.015   2.756
 2983SOL     OW10781   9.883   6.485   5.844
 2983SOL    HW110782   9.968   6.445   5.825
 2983SOL    HW210783   9.883   6.496   5.939
 2984SOL     OW10784   5.205  12.294   1.908
 2984SOL    HW110785   5.274  12.326   1.849
 2984SOL    HW210786   5.177  12.372   1.955
 2985SOL     OW10787  13.164  12.803  11.291
 2985SOL    HW110788  13.207  12.777  11.372
 2985SOL    HW210789  13.071  12.800  11.311
 2986SOL     OW10790   7.476  10.003  11.218
 2986SOL    HW110791   7.494  10.076  11.159
 2986SOL    HW210792   7.385  10.016  11.245
 2987SOL     OW10793   4.836  13.200  13.684
 2987SOL    HW110794   4.813  13.176  13.594
 2987SOL    HW210795   4.752  13.201  13.731
 2988SOL     OW10796   4.752  12.115   3.143
 2988SOL    HW110797   4.787  12.169   3.213
 2988SOL    HW210798   4.695  12.174   3.093
 2989SOL     OW10799   4.500   5.074   6.842
 2989SOL    HW110800   4.537   4.997   6.798
 2989SOL    HW210801   4.414   5.086   6.801
 2990SOL     OW10802   0.664   9.186   6.006
 2990SOL    HW110803   0.659   9.198   5.912
 2990SOL    HW210804   0.719   9.109   6.018
 2991SOL     OW10805   5.633   9.912  11.853
 2991SOL    HW110806   5.590   9.902  11.768
 2991SOL    HW210807   5.724   9.929  11.832
 2992SOL     OW10808   6.764  10.081   1.014
 2992SOL    HW110809   6.721  10.130   0.943
 2992SOL    HW210810   6.709  10.098   1.091
 2993SOL     OW10811   1.890  12.715   8.219
 2993SOL    HW110812   1.887  12.643   8.281
 2993SOL    HW210813   1.815  12.770   8.242
 2994SOL     OW10814   8.292   4.229   7.517
 2994SOL    HW110815   8.243   4.170   7.574
 2994SOL    HW210816   8.300   4.182   7.434
 2995SOL     OW10817  10.045   4.935   7.887
 2995SOL    HW110818  10.028   4.910   7.978
 2995SOL    HW210819  10.138   4.958   7.885
 2996SOL     OW10820   2.071   5.900  13.920
 2996SOL    HW110821   2.019   5.823  13.943
 2996SOL    HW210822   2.057   5.961  13.991
 2997SOL     OW10823  12.947  11.285  10.702
 2997SOL    HW110824  13.035  11.249  10.711
 2997SOL    HW210825  12.942  11.312  10.610
 2998SOL     OW10826  11.662   2.616   7.677
 2998SOL    HW110827  11.586   2.674   7.671
 2998SOL    HW210828  11.721   2.659   7.738
 2999SOL     OW10829   9.930  10.862   7.426
 2999SOL    HW110830   9.858  10.922   7.444
 2999SOL    HW210831   9.907  10.820   7.343
 3000SOL     OW10832  14.117  11.356   3.618
 3000SOL    HW110833  14.195  11.402   3.647
 3000SOL    HW210834  14.085  11.408   3.544
 3001SOL     OW10835   5.576   1.957  10.814
 3001SOL    HW110836   5.579   2.037  10.866
 3001SOL    HW210837   5.512   1.901  10.858
 3002SOL     OW10838   8.066   0.909   7.435
 3002SOL    HW110839   8.095   1.000   7.430
 3002SOL    HW210840   8.125   0.862   7.375
 3003SOL     OW10841   5.841   3.110  13.321
 3003SOL    HW110842   5.867   3.052  13.393
 3003SOL    HW210843   5.901   3.089  13.250
 3004SOL     OW10844  12.390   1.853   7.679
 3004SOL    HW110845  12.369   1.888   7.592
 3004SOL    HW210846  12.425   1.766   7.661
 3005SOL     OW10847  14.034   9.718   4.519
 3005SOL    HW110848  14.011   9.749   4.431
 3005SOL    HW210849  14.000   9.629   4.522
 3006SOL     OW10850   5.290   3.132   0.685
 3006SOL    HW110851   5.349   3.071   0.640
 3006SOL    HW210852   5.210   3.082   0.698
 3007SOL     OW10853  12.318   8.375  11.641
 3007SOL    HW110854  12.318   8.451  11.700
 3007SOL    HW210855  12.275   8.407  11.562
 3008SOL     OW10856   9.306   6.791   4.067
 3008SOL    HW110857   9.395   6.758   4.079
 3008SOL    HW210858   9.316   6.887   4.064
 3009SOL     OW10859   6.746   6.039  14.745
 3009SOL    HW110860   6.736   6.103  14.816
 3009SOL    HW210861   6.660   6.038  14.702
 3010SOL     OW10862   2.013  12.721   1.317
 3010SOL    HW110863   1.931  12.672   1.321
 3010SOL    HW210864   2.040  12.730   1.408
 3011SOL     OW10865   0.330   5.997  13.100
 3011SOL    HW110866   0.328   5.922  13.159
 3011SOL    HW210867   0.413   5.989  13.053
 3012SOL     OW10868   8.089   5.551   8.679
 3012SOL    HW110869   8.115   5.634   8.640
 3012SOL    HW210870   8.043   5.576   8.759
 3013SOL     OW10871  10.829   1.803  14.005
 3013SOL    HW110872  10.795   1.717  13.984
 3013SOL    HW210873  10.828   1.808  14.101
 3014SOL     OW10874   4.862  14.859  11.433
 3014SOL    HW110875   4.871  14.846  11.339
 3014SOL    HW210876   4.936   0.037  11.456
 3015SOL     OW10877   1.121  12.283   8.746
 3015SOL    HW110878   1.153  12.372   8.756
 3015SOL    HW210879   1.200  12.230   8.736
 3016SOL     OW10880  13.164  11.711   9.707
 3016SOL    HW110881  13.107  11.634   9.709
 3016SOL    HW210882  13.146  11.756   9.789
 3017SOL     OW10883   1.254  12.809  10.481
 3017SOL    HW110884   1.269  12.771  10.568
 3017SOL    HW210885   1.174  12.766  10.450
 3018SOL     OW10886   9.027   6.645  13.143
 3018SOL    HW110887   9.057   6.560  13.113
 3018SOL    HW210888   8.933   6.646  13.123
 3019SOL     OW10889   3.332   0.049   9.956
 3019SOL    HW110890   3.419   0.015   9.976
 3019SOL    HW210891   3.282  14.851   9.927
 3020SOL     OW10892   2.709   3.251   3.723
 3020SOL    HW110893   2.695   3.306   3.645
 3020SOL    HW210894   2.625   3.255   3.770
 3021SOL     OW10895   7.859  11.041   3.018
 3021SOL    HW110896   7.900  11.117   3.060
 3021SOL    HW210897   7.894  11.042   2.929
 3022SOL     OW10898  14.064  13.392   9.357
 3022SOL    HW110899  14.151  13.356   9.377
 3022SOL    HW210900  14.008  13.314   9.348
 3023SOL     OW10901  14.300  11.092  14.655
 3023SOL    HW110902  14.244  11.134  14.721
 3023SOL    HW210903  14.366  11.046  14.706
 3024SOL     OW10904   7.088   7.697  12.766
 3024SOL    HW110905   7.182   7.682  12.753
 3024SOL    HW210906   7.073   7.677  12.859
 3025SOL     OW10907  11.273  13.672   4.509
 3025SOL    HW110908  11.178  13.672   4.507
 3025SOL    HW210909  11.297  13.762   4.531
 3026SOL     OW10910   8.829  10.517   2.801
 3026SOL    HW110911   8.853  10.519   2.894
 3026SOL    HW210912   8.738  10.546   2.799
 3027SOL     OW10913   0.926   1.750   5.801
 3027SOL    HW110914   0.857   1.789   5.855
 3027SOL    HW210915   0.962   1.823   5.750
 3028SOL     OW10916   3.859  11.772  11.666
 3028SOL    HW110917   3.894  11.789  11.579
 3028SOL    HW210918   3.920  11.708  11.704
 3029SOL     OW10919  11.657   5.286   0.965
 3029SOL    HW110920  11.684   5.358   1.023
 3029SOL    HW210921  11.641   5.213   1.025
 3030SOL     OW10922  10.727   4.094  11.267
 3030SOL    HW110923  10.713   4.174  11.317
 3030SOL    HW210924  10.700   4.116  11.178
 3031SOL     OW10925   5.778   8.530  13.562
 3031SOL    HW110926   5.803   8.610  13.609
 3031SOL    HW210927   5.699   8.500  13.607
 3032SOL     OW10928   7.860   0.312  12.689
 3032SOL    HW110929   7.915   0.385  12.663
 3032SOL    HW210930   7.890   0.290  12.778
 3033SOL     OW10931   5.617  11.688   7.806
 3033SOL    HW110932   5.568  11.700   7.888
 3033SOL    HW210933   5.700  11.732   7.822
 3034SOL     OW10934   5.417   3.443  11.332
 3034SOL    HW110935   5.328   3.409  11.326
 3034SOL    HW210936   5.408   3.537  11.316
 3035SOL     OW10937   6.430   5.219  11.377
 3035SOL    HW110938   6.393   5.304  11.400
 3035SOL    HW210939   6.523   5.237  11.361
 3036SOL     OW10940   0.803   4.586   4.808
 3036SOL    HW110941   0.896   4.610   4.811
 3036SOL    HW210942   0.792   4.525   4.881
 3037SOL     OW10943  14.464   1.098   4.857
 3037SOL    HW110944  14.442   1.178   4.810
 3037SOL    HW210945  14.537   1.059   4.808
 3038SOL     OW10946  14.310  11.889  11.245
 3038SOL    HW110947  14.266  11.815  11.204
 3038SOL    HW210948  14.239  11.949  11.269
 3039SOL     OW10949  12.820   7.057   8.882
 3039SOL    HW110950  12.913   7.082   8.879
 3039SOL    HW210951  12.809   7.018   8.969
 3040SOL     OW10952   7.566   9.417  11.505
 3040SOL    HW110953   7.540   9.508  11.522
 3040SOL    HW210954   7.484   9.370  11.493
 3041SOL     OW10955   7.390  10.276   5.824
 3041SOL    HW110956   7.483  10.298   5.823
 3041SOL    HW210957   7.386  10.188   5.860
 3042SOL     OW10958   8.482   5.404   0.036
 3042SOL    HW110959   8.513   5.453  14.840
 3042SOL    HW210960   8.396   5.371   0.010
 3043SOL     OW10961   5.365   8.911   8.470
 3043SOL    HW110962   5.455   8.888   8.449
 3043SOL    HW210963   5.365   8.928   8.564
 3044SOL     OW10964   6.104  10.246   5.986
 3044SOL    HW110965   6.045  10.232   6.060
 3044SOL    HW210966   6.048  10.237   5.909
 3045SOL     OW10967   2.095   8.630   1.397
 3045SOL    HW110968   2.141   8.699   1.444
 3045SOL    HW210969   2.153   8.554   1.404
 3046SOL     OW10970   1.214   6.853  14.706
 3046SOL    HW110971   1.283   6.899  14.659
 3046SOL    HW210972   1.256   6.824  14.787
 3047SOL     OW10973  11.757  11.329   7.714
 3047SOL    HW110974  11.714  11.257   7.670
 3047SOL    HW210975  11.835  11.347   7.662
 3048SOL     OW10976  11.301  11.397   3.683
 3048SOL    HW110977  11.323  11.389   3.776
 3048SOL    HW210978  11.297  11.306   3.652
 3049SOL     OW10979   3.031  10.747   5.836
 3049SOL    HW110980   2.990  10.830   5.861
 3049SOL    HW210981   2.965  10.702   5.783
 3050SOL     OW10982  11.045  13.121   3.551
 3050SOL    HW110983  11.123  13.073   3.579
 3050SOL    HW210984  11.008  13.156   3.632
 3051SOL     OW10985   4.890   2.639   5.981
 3051SOL    HW110986   4.871   2.647   5.888
 3051SOL    HW210987   4.969   2.585   5.985
 3052SOL     OW10988  10.469   2.308  14.217
 3052SOL    HW110989  10.461   2.381  14.279
 3052SOL    HW210990  10.562   2.287  14.218
 3053SOL     OW10991   2.383  10.996   0.825
 3053SOL    HW110992   2.373  10.997   0.920
 3053SOL    HW210993   2.330  11.070   0.794
 3054SOL     OW10994   7.552  13.152   1.939
 3054SOL    HW110995   7.638  13.130   1.903
 3054SOL    HW210996   7.502  13.185   1.864
 3055SOL     OW10997  12.276  13.735   1.094
 3055SOL    HW110998  12.315  13.676   1.160
 3055SOL    HW210999  12.347  13.793   1.069
 3056SOL     OW11000   9.837   9.155  11.047
 3056SOL    HW111001   9.893   9.230  11.066
 3056SOL    HW211002   9.755   9.193  11.017
 3057SOL     OW11003   9.563   8.988  11.236
 3057SOL    HW111004   9.656   8.968  11.243
 3057SOL    HW211005   9.533   8.997  11.326
 3058SOL     OW11006   0.148   6.026  12.558
 3058SOL    HW111007   0.192   5.986  12.633
 3058SOL    HW211008   0.108   5.952  12.512
 3059SOL     OW11009   5.236  13.268  13.179
 3059SOL    HW111010   5.158  13.227  13.143
 3059SOL    HW211011   5.236  13.356  13.142
 3060SOL     OW11012  13.256   7.468   8.757
 3060SOL    HW111013  13.271   7.561   8.770
 3060SOL    HW211014  13.310   7.425   8.823
 3061SOL     OW11015   0.535  12.445   3.738
 3061SOL    HW111016   0.587  12.478   3.811
 3061SOL    HW211017   0.452  12.493   3.743
 3062SOL     OW11018  14.778   9.195   2.858
 3062SOL    HW111019  14.695   9.232   2.888
 3062SOL    HW211020  14.805   9.137   2.929
 3063SOL     OW11021   3.534   0.126   7.632
 3063SOL    HW111022   3.565   0.089   7.550
 3063SOL    HW211023   3.444   0.095   7.641
 3064SOL     OW11024  13.981  11.245   5.508
 3064SOL    HW111025  13.996  11.178   5.441
 3064SOL    HW211026  13.893  11.277   5.490
 3065SOL     OW11027   0.176   8.350   3.619
 3065SOL    HW111028   0.147   8.282   3.679
 3065SOL    HW211029   0.183   8.429   3.673
 3066SOL     OW11030  12.848  11.380   7.063
 3066SOL    HW111031  12.838  11.344   6.975
 3066SOL    HW211032  12.880  11.470   7.049
 3067SOL     OW11033   7.352   1.288  11.806
 3067SOL    HW111034   7.423   1.246  11.758
 3067SOL    HW211035   7.277   1.287  11.746
 3068SOL     OW11036  11.264   4.194  13.858
 3068SOL    HW111037  11.177   4.228  13.838
 3068SOL    HW211038  11.320   4.271  13.861
 3069SOL     OW11039   3.302   8.989   2.586
 3069SOL    HW111040   3.244   9.041   2.530
 3069SOL    HW211041   3.390   9.018   2.564
 3070SOL     OW11042  14.819  13.292  12.493
 3070SOL    HW111043  14.835  13.213  12.441
 3070SOL    HW211044  14.728  13.314  12.476
 3071SOL     OW11045   5.404   1.603   6.590
 3071SOL    HW111046   5.400   1.555   6.673
 3071SOL    HW211047   5.313   1.617   6.565
 3072SOL     OW11048   0.229   7.088  11.684
 3072SOL    HW111049   0.279   7.092  11.765
 3072SOL    HW211050   0.203   7.179  11.667
 3073SOL     OW11051   0.873   7.200  14.700
 3073SOL    HW111052   0.936   7.158  14.642
 3073SOL    HW211053   0.889   7.160  14.786
 3074SOL     OW11054   8.858   6.710   5.505
 3074SOL    HW111055   8.910   6.725   5.425
 3074SOL    HW211056   8.903   6.637   5.548
 3075SOL     OW11057  13.531   3.886   3.252
 3075SOL    HW111058  13.557   3.795   3.244
 3075SOL    HW211059  13.451   3.893   3.199
 3076SOL     OW11060   3.496  14.002   2.323
 3076SOL    HW111061   3.572  14.017   2.268
 3076SOL    HW211062   3.485  13.907   2.324
 3077SOL     OW11063  11.654   0.174   7.015
 3077SOL    HW111064  11.625   0.137   7.098
 3077SOL    HW211065  11.748   0.185   7.025
 3078SOL     OW11066   3.340   3.236   1.314
 3078SOL    HW111067   3.332   3.184   1.393
 3078SOL    HW211068   3.317   3.325   1.341
 3079SOL     OW11069  12.787  11.590   7.800
 3079SOL    HW111070  12.738  11.654   7.851
 3079SOL    HW211071  12.825  11.531   7.865
 3080SOL     OW11072   3.198   8.388   7.412
 3080SOL    HW111073   3.228   8.328   7.343
 3080SOL    HW211074   3.198   8.474   7.371
 3081SOL     OW11075  12.385   1.081   8.775
 3081SOL    HW111076  12.409   1.068   8.867
 3081SOL    HW211077  12.456   1.040   8.726
 3082SOL     OW11078   5.587  13.590  14.108
 3082SOL    HW111079   5.636  13.671  14.127
 3082SOL    HW211080   5.589  13.582  14.013
 3083SOL     OW11081  11.670  11.134  13.809
 3083SOL    HW111082  11.743  11.145  13.870
 3083SOL    HW211083  11.683  11.201  13.743
 3084SOL     OW11084   2.998  11.779  11.693
 3084SOL    HW111085   3.036  11.702  11.650
 3084SOL    HW211086   2.957  11.744  11.772
 3085SOL     OW11087   5.043   9.872   7.375
 3085SOL    HW111088   5.060   9.866   7.469
 3085SOL    HW211089   5.071   9.960   7.351
 3086SOL     OW11090   2.281  13.577   9.784
 3086SOL    HW111091   2.319  13.662   9.761
 3086SOL    HW211092   2.331  13.513   9.733
 3087SOL     OW11093   0.873   5.452  14.393
 3087SOL    HW111094   0.869   5.547  14.385
 3087SOL    HW211095   0.922   5.423  14.316
 3088SOL     OW11096   0.276  10.992   9.500
 3088SOL    HW111097   0.235  11.077   9.518
 3088SOL    HW211098   0.223  10.955   9.430
 3089SOL     OW11099  13.163  11.127  14.847
 3089SOL    HW111100  13.237  11.105   0.025
 3089SOL    HW211101  13.180  11.217  14.821
 3090SOL     OW11102  12.071   1.929  13.336
 3090SOL    HW111103  12.065   1.924  13.240
 3090SOL    HW211104  11.997   1.984  13.362
 3091SOL     OW11105   4.973   5.499   3.917
 3091SOL    HW111106   5.004   5.560   3.984
 3091SOL    HW211107   4.982   5.547   3.835
 3092SOL     OW11108   4.763   1.579   5.320
 3092SOL    HW111109   4.718   1.501   5.288
 3092SOL    HW211110   4.789   1.626   5.240
 3093SOL     OW11111   3.870   6.410  13.828
 3093SOL    HW111112   3.836   6.393  13.916
 3093SOL    HW211113   3.960   6.439  13.842
 3094SOL     OW11114   6.061   0.698   3.967
 3094SOL    HW111115   6.037   0.775   4.019
 3094SOL    HW211116   6.128   0.654   4.019
 3095SOL     OW11117   8.986  10.991   2.521
 3095SOL    HW111118   9.037  10.935   2.463
 3095SOL    HW211119   8.938  10.930   2.577
 3096SOL     OW11120   5.415   6.226   8.900
 3096SOL    HW111121   5.440   6.135   8.881
 3096SOL    HW211122   5.487   6.278   8.864
 3097SOL     OW11123   5.874   8.022   9.802
 3097SOL    HW111124   5.855   8.114   9.788
 3097SOL    HW211125   5.964   8.010   9.772
 3098SOL     OW11126   0.546   6.491   5.349
 3098SOL    HW111127   0.472   6.430   5.347
 3098SOL    HW211128   0.606   6.458   5.282
 3099SOL     OW11129   4.275   6.784   9.904
 3099SOL    HW111130   4.259   6.723   9.831
 3099SOL    HW211131   4.264   6.731   9.983
 3100SOL     OW11132   7.617  14.369   1.125
 3100SOL    HW111133   7.635  14.403   1.213
 3100SOL    HW211134   7.569  14.439   1.081
 3101SOL     OW11135   2.759   3.180   9.045
 3101SOL    HW111136   2.753   3.243   8.973
 3101SOL    HW211137   2.671   3.144   9.053
 3102SOL     OW11138  10.474   2.675   2.088
 3102SOL    HW111139  10.415   2.606   2.117
 3102SOL    HW211140  10.467   2.743   2.156
 3103SOL     OW11141  14.536   2.112   0.778
 3103SOL    HW111142  14.475   2.180   0.752
 3103SOL    HW211143  14.568   2.140   0.864
 3104SOL     OW11144   4.360   6.616   8.969
 3104SOL    HW111145   4.449   6.650   8.955
 3104SOL    HW211146   4.303   6.690   8.948
 3105SOL     OW11147   0.623   2.249   2.458
 3105SOL    HW111148   0.683   2.226   2.387
 3105SOL    HW211149   0.680   2.286   2.526
 3106SOL     OW11150  13.947   6.202   2.353
 3106SOL    HW111151  13.898   6.237   2.278
 3106SOL    HW211152  13.910   6.114   2.366
 3107SOL     OW11153   7.058  13.475  13.198
 3107SOL    HW111154   7.102  13.555  13.169
 3107SOL    HW211155   6.982  13.468  13.140
 3108SOL     OW11156  10.817   3.782   6.338
 3108SOL    HW111157  10.763   3.805   6.262
 3108SOL    HW211158  10.906   3.806   6.313
 3109SOL     OW11159   7.493   6.353  12.543
 3109SOL    HW111160   7.499   6.258  12.557
 3109SOL    HW211161   7.542   6.368  12.463
 3110SOL     OW11162   7.279   6.819   2.269
 3110SOL    HW111163   7.327   6.818   2.186
 3110SOL    HW211164   7.323   6.752   2.322
 3111SOL     OW11165  13.058  14.467  13.167
 3111SOL    HW111166  12.965  14.487  13.176
 3111SOL    HW211167  13.102  14.535  13.218
 3112SOL     OW11168   3.516  10.970  10.480
 3112SOL    HW111169   3.514  11.009  10.393
 3112SOL    HW211170   3.509  10.876  10.465
 3113SOL     OW11171   5.346   2.900  12.632
 3113SOL    HW111172   5.252   2.893  12.647
 3113SOL    HW211173   5.356   2.893  12.537
 3114SOL     OW11174   2.059   4.177   3.787
 3114SOL    HW111175   1.997   4.111   3.758
 3114SOL    HW211176   2.038   4.255   3.735
 3115SOL     OW11177   0.058   6.027   5.995
 3115SOL    HW111178   0.136   6.015   6.049
 3115SOL    HW211179   0.044   6.122   5.992
 3116SOL     OW11180   4.758   5.988  14.224
 3116SOL    HW111181   4.676   5.979  14.273
 3116SOL    HW211182   4.772   5.902  14.185
 3117SOL     OW11183   4.844   2.760  11.616
 3117SOL    HW111184   4.781   2.831  11.631
 3117SOL    HW211185   4.924   2.789  11.662
 3118SOL     OW11186  14.564   0.987   3.814
 3118SOL    HW111187  14.524   0.919   3.869
 3118SOL    HW211188  14.598   1.051   3.877
 3119SOL     OW11189  13.833   6.157   0.710
 3119SOL    HW111190  13.906   6.125   0.656
 3119SOL    HW211191  13.757   6.111   0.677
 3120SOL     OW11192   5.599   3.185   1.980
 3120SOL    HW111193   5.628   3.119   1.918
 3120SOL    HW211194   5.654   3.261   1.962
 3121SOL     OW11195   2.302   7.439   7.756
 3121SOL    HW111196   2.299   7.393   7.672
 3121SOL    HW211197   2.261   7.377   7.818
 3122SOL     OW11198   8.395  13.426   5.605
 3122SOL    HW111199   8.453  13.382   5.667
 3122SOL    HW211200   8.391  13.516   5.635
 3123SOL     OW11201   6.536   0.734   1.372
 3123SOL    HW111202   6.626   0.738   1.406
 3123SOL    HW211203   6.523   0.819   1.330
 3124SOL     OW11204  12.985   5.709   6.820
 3124SOL    HW111205  13.040   5.781   6.850
 3124SOL    HW211206  12.903   5.719   6.870
 3125SOL     OW11207  11.133   4.829   4.290
 3125SOL    HW111208  11.131   4.733   4.294
 3125SOL    HW211209  11.081   4.857   4.366
 3126SOL     OW11210  13.541   4.626  10.736
 3126SOL    HW111211  13.529   4.589  10.823
 3126SOL    HW211212  13.536   4.721  10.749
 3127SOL     OW11213  10.832   9.685   1.259
 3127SOL    HW111214  10.761   9.662   1.200
 3127SOL    HW211215  10.791   9.738   1.327
 3128SOL     OW11216   5.474  11.353   8.161
 3128SOL    HW111217   5.507  11.268   8.133
 3128SOL    HW211218   5.391  11.363   8.113
 3129SOL     OW11219  11.716   3.731   0.561
 3129SOL    HW111220  11.671   3.648   0.581
 3129SOL    HW211221  11.648   3.784   0.519
 3130SOL     OW11222  11.127  11.962  13.065
 3130SOL    HW111223  11.140  11.909  13.144
 3130SOL    HW211224  11.032  11.963  13.053
 3131SOL     OW11225  10.120   2.436   3.720
 3131SOL    HW111226  10.163   2.354   3.746
 3131SOL    HW211227  10.175   2.505   3.757
 3132SOL     OW11228  12.742   3.154  11.746
 3132SOL    HW111229  12.786   3.140  11.663
 3132SOL    HW211230  12.812   3.155  11.811
 3133SOL     OW11231  13.250  10.270  11.764
 3133SOL    HW111232  13.230  10.336  11.831
 3133SOL    HW211233  13.166  10.228  11.746
 3134SOL     OW11234   4.772   3.855  11.680
 3134SOL    HW111235   4.798   3.855  11.772
 3134SOL    HW211236   4.763   3.762  11.658
 3135SOL     OW11237   8.758   0.506   6.185
 3135SOL    HW111238   8.811   0.575   6.224
 3135SOL    HW211239   8.821   0.448   6.142
 3136SOL     OW11240   7.297  11.568  11.595
 3136SOL    HW111241   7.371  11.561  11.535
 3136SOL    HW211242   7.289  11.662  11.612
 3137SOL     OW11243  10.452   0.719   0.258
 3137SOL    HW111244  10.401   0.666   0.196
 3137SOL    HW211245  10.446   0.808   0.223
 3138SOL     OW11246  13.591   8.713   8.406
 3138SOL    HW111247  13.648   8.677   8.337
 3138SOL    HW211248  13.620   8.804   8.414
 3139SOL     OW11249   8.556   0.686   1.523
 3139SOL    HW111250   8.468   0.704   1.489
 3139SOL    HW211251   8.552   0.595   1.552
 3140SOL     OW11252   0.762   4.717  14.004
 3140SOL    HW111253   0.760   4.692  14.096
 3140SOL    HW211254   0.677   4.688  13.970
 3141SOL     OW11255   6.248   8.537   8.071
 3141SOL    HW111256   6.254   8.478   7.995
 3141SOL    HW211257   6.161   8.520   8.106
 3142SOL     OW11258  13.177  14.623   9.813
 3142SOL    HW111259  13.181  14.527   9.813
 3142SOL    HW211260  13.089  14.643   9.845
 3143SOL     OW11261   1.067   2.358   2.744
 3143SOL    HW111262   1.102   2.444   2.768
 3143SOL    HW211263   1.129   2.324   2.680
 3144SOL     OW11264   9.357  13.474   6.045
 3144SOL    HW111265   9.390  13.401   5.992
 3144SOL    HW211266   9.286  13.511   5.994
 3145SOL     OW11267   9.951   5.055   3.216
 3145SOL    HW111268   9.871   5.100   3.243
 3145SOL    HW211269   9.923   4.964   3.202
 3146SOL     OW11270   0.145   7.660  13.671
 3146SOL    HW111271   0.102   7.640  13.754
 3146SOL    HW211272   0.075   7.691  13.614
 3147SOL     OW11273  13.062  13.950   0.929
 3147SOL    HW111274  13.041  13.863   0.962
 3147SOL    HW211275  13.048  13.944   0.834
 3148SOL     OW11276  12.628  10.345   2.336
 3148SOL    HW111277  12.595  10.353   2.426
 3148SOL    HW211278  12.564  10.289   2.292
 3149SOL     OW11279   3.102   2.761  12.154
 3149SOL    HW111280   3.046   2.835  12.179
 3149SOL    HW211281   3.058   2.720  12.081
 3150SOL     OW11282   6.815   9.628   2.801
 3150SOL    HW111283   6.766   9.642   2.882
 3150SOL    HW211284   6.876   9.558   2.822
 3151SOL     OW11285  11.520   0.711   6.204
 3151SOL    HW111286  11.527   0.616   6.213
 3151SOL    HW211287  11.547   0.729   6.114
 3152SOL     OW11288   2.871  11.539  10.816
 3152SOL    HW111289   2.839  11.629  10.810
 3152SOL    HW211290   2.933  11.541  10.889
 3153SOL     OW11291  14.278  10.531   1.103
 3153SOL    HW111292  14.234  10.504   1.184
 3153SOL    HW211293  14.315  10.451   1.067
 3154SOL     OW11294   4.595   2.267   5.495
 3154SOL    HW111295   4.628   2.285   5.583
 3154SOL    HW211296   4.542   2.188   5.505
 3155SOL     OW11297  13.801  13.646   8.195
 3155SOL    HW111298  13.892  13.617   8.192
 3155SOL    HW211299  13.807  13.741   8.206
 3156SOL     OW11300   7.065  12.696   2.591
 3156SOL    HW111301   7.118  12.623   2.562
 3156SOL    HW211302   7.110  12.774   2.556
 3157SOL     OW11303   8.882   2.752   7.516
 3157SOL    HW111304   8.964   2.714   7.548
 3157SOL    HW211305   8.864   2.824   7.577
 3158SOL     OW11306  12.451   6.521   4.256
 3158SOL    HW111307  12.393   6.545   4.183
 3158SOL    HW211308  12.492   6.439   4.227
 3159SOL     OW11309  11.689   9.391  12.168
 3159SOL    HW111310  11.613   9.387  12.109
 3159SOL    HW211311  11.745   9.459  12.129
 3160SOL     OW11312   0.974   7.639   7.753
 3160SOL    HW111313   0.962   7.670   7.663
 3160SOL    HW211314   1.013   7.552   7.744
 3161SOL     OW11315   9.371   3.279  11.659
 3161SOL    HW111316   9.465   3.275  11.639
 3161SOL    HW211317   9.368   3.320  11.746
 3162SOL     OW11318   0.404   8.048  10.554
 3162SOL    HW111319   0.311   8.037  10.534
 3162SOL    HW211320   0.406   8.108  10.629
 3163SOL     OW11321  11.363  12.066   2.412
 3163SOL    HW111322  11.322  12.021   2.338
 3163SOL    HW211323  11.295  12.123   2.447
 3164SOL     OW11324  10.608   4.977  14.652
 3164SOL    HW111325  10.666   4.901  14.655
 3164SOL    HW211326  10.535   4.953  14.710
 3165SOL     OW11327   5.517   0.053  11.952
 3165SOL    HW111328   5.556   0.034  12.038
 3165SOL    HW211329   5.454   0.122  11.969
 3166SOL     OW11330   5.798  11.502   0.022
 3166SOL    HW111331   5.725  11.440   0.013
 3166SOL    HW211332   5.853  11.486  14.825
 3167SOL     OW11333   0.918   4.431   3.982
 3167SOL    HW111334   0.875   4.345   3.975
 3167SOL    HW211335   0.932   4.443   4.076
 3168SOL     OW11336   5.016   6.412   8.503
 3168SOL    HW111337   4.970   6.371   8.576
 3168SOL    HW211338   5.098   6.445   8.542
 3169SOL     OW11339  14.758  12.352   5.086
 3169SOL    HW111340  14.843  12.384   5.053
 3169SOL    HW211341  14.767  12.257   5.086
 3170SOL     OW11342   0.356   9.071  10.536
 3170SOL    HW111343   0.396   8.994  10.576
 3170SOL    HW211344   0.416   9.142  10.555
 3171SOL     OW11345  11.361  13.221  11.266
 3171SOL    HW111346  11.352  13.195  11.175
 3171SOL    HW211347  11.450  13.195  11.290
 3172SOL     OW11348  11.331   1.361   9.026
 3172SOL    HW111349  11.252   1.390   8.981
 3172SOL    HW211350  11.388   1.439   9.026
 3173SOL     OW11351   3.761   5.118   5.484
 3173SOL    HW111352   3.841   5.075   5.515
 3173SOL    HW211353   3.772   5.209   5.511
 3174SOL     OW11354   1.517   3.670  12.208
 3174SOL    HW111355   1.600   3.628  12.233
 3174SOL    HW211356   1.510   3.745  12.268
 3175SOL     OW11357   1.310  12.878   8.809
 3175SOL    HW111358   1.386  12.934   8.825
 3175SOL    HW211359   1.322  12.804   8.869
 3176SOL     OW11360   2.697  13.405   7.554
 3176SOL    HW111361   2.608  13.392   7.585
 3176SOL    HW211362   2.702  13.354   7.473
 3177SOL     OW11363   9.440   8.122   3.027
 3177SOL    HW111364   9.408   8.213   3.031
 3177SOL    HW211365   9.363   8.072   3.001
 3178SOL     OW11366   9.925   0.094  11.743
 3178SOL    HW111367   9.982   0.168  11.763
 3178SOL    HW211368   9.879   0.077  11.826
 3179SOL     OW11369   7.092   3.330   6.884
 3179SOL    HW111370   7.049   3.277   6.952
 3179SOL    HW211371   7.183   3.334   6.912
 3180SOL     OW11372  14.854  13.255  11.806
 3180SOL    HW111373  14.778  13.237  11.751
 3180SOL    HW211374  14.874  13.172  11.848
 3181SOL     OW11375  14.339   2.979  12.720
 3181SOL    HW111376  14.334   2.923  12.642
 3181SOL    HW211377  14.369   3.064  12.687
 3182SOL     OW11378   1.463   0.660  13.854
 3182SOL    HW111379   1.538   0.669  13.912
 3182SOL    HW211380   1.415   0.584  13.887
 3183SOL     OW11381   0.778   2.763   8.248
 3183SOL    HW111382   0.710   2.824   8.217
 3183SOL    HW211383   0.859   2.814   8.244
 3184SOL     OW11384   9.845   1.982  10.291
 3184SOL    HW111385   9.873   1.928  10.365
 3184SOL    HW211386   9.834   1.919  10.219
 3185SOL     OW11387   5.764   8.487  11.546
 3185SOL    HW111388   5.707   8.534  11.485
 3185SOL    HW211389   5.847   8.535  11.544
 3186SOL     OW11390   8.201   4.567   2.374
 3186SOL    HW111391   8.256   4.588   2.450
 3186SOL    HW211392   8.194   4.472   2.376
 3187SOL     OW11393   2.259   1.313   3.486
 3187SOL    HW111394   2.266   1.252   3.559
 3187SOL    HW211395   2.165   1.329   3.476
 3188SOL     OW11396   4.075   6.244  12.680
 3188SOL    HW111397   4.020   6.166  12.679
 3188SOL    HW211398   4.066   6.281  12.592
 3189SOL     OW11399   3.041  10.562   2.442
 3189SOL    HW111400   2.994  10.481   2.423
 3189SOL    HW211401   3.120  10.534   2.488
 3190SOL     OW11402   2.743   9.857  10.162
 3190SOL    HW111403   2.656   9.879  10.127
 3190SOL    HW211404   2.729   9.846  10.256
 3191SOL     OW11405   9.547   4.410   3.662
 3191SOL    HW111406   9.481   4.369   3.718
 3191SOL    HW211407   9.622   4.351   3.667
 3192SOL     OW11408   5.742   2.670   0.741
 3192SOL    HW111409   5.727   2.591   0.689
 3192SOL    HW211410   5.816   2.713   0.698
 3193SOL     OW11411  11.154   9.641  13.958
 3193SOL    HW111412  11.130   9.629  13.866
 3193SOL    HW211413  11.134   9.557  13.999
 3194SOL     OW11414   3.969  10.039   3.567
 3194SOL    HW111415   3.908   9.972   3.597
 3194SOL    HW211416   4.048  10.026   3.620
 3195SOL     OW11417   5.370  10.794  14.824
 3195SOL    HW111418   5.386  10.764   0.034
 3195SOL    HW211419   5.284  10.758  14.802
 3196SOL     OW11420   4.264   3.889   6.299
 3196SOL    HW111421   4.318   3.894   6.220
 3196SOL    HW211422   4.287   3.967   6.349
 3197SOL     OW11423   6.306   1.613   6.765
 3197SOL    HW111424   6.398   1.611   6.794
 3197SOL    HW211425   6.260   1.559   6.828
 3198SOL     OW11426  11.221   0.032   5.958
 3198SOL    HW111427  11.221   0.072   5.871
 3198SOL    HW211428  11.129   0.011   5.974
 3199SOL     OW11429  11.490  13.518   3.805
 3199SOL    HW111430  11.496  13.462   3.728
 3199SOL    HW211431  11.486  13.607   3.771
 3200SOL     OW11432   2.018   6.575  10.527
 3200SOL    HW111433   2.101   6.619  10.546
 3200SOL    HW211434   1.996   6.528  10.608
 3201SOL     OW11435   3.392  11.911   3.864
 3201SOL    HW111436   3.297  11.919   3.856
 3201SOL    HW211437   3.423  12.002   3.861
 3202SOL     OW11438   3.788   3.072  11.467
 3202SOL    HW111439   3.743   3.141  11.418
 3202SOL    HW211440   3.718   3.024  11.511
 3203SOL     OW11441   6.772   8.591   3.815
 3203SOL    HW111442   6.701   8.542   3.773
 3203SOL    HW211443   6.736   8.617   3.900
 3204SOL     OW11444   3.550   5.614   9.898
 3204SOL    HW111445   3.517   5.623   9.988
 3204SOL    HW211446   3.498   5.543   9.861
 3205SOL     OW11447  13.411   5.639   3.037
 3205SOL    HW111448  13.482   5.646   2.973
 3205SOL    HW211449  13.455   5.647   3.122
 3206SOL     OW11450  14.731   4.725   7.099
 3206SOL    HW111451  14.800   4.659   7.100
 3206SOL    HW211452  14.776   4.808   7.111
 3207SOL     OW11453  13.977  13.043   4.150
 3207SOL    HW111454  14.001  13.096   4.073
 3207SOL    HW211455  13.950  13.108   4.215
 3208SOL     OW11456   2.274   7.537   6.122
 3208SOL    HW111457   2.326   7.461   6.095
 3208SOL    HW211458   2.339   7.602   6.148
 3209SOL     OW11459   1.123   2.712   2.410
 3209SOL    HW111460   1.091   2.800   2.429
 3209SOL    HW211461   1.096   2.660   2.486
 3210SOL     OW11462   8.669   1.311   5.115
 3210SOL    HW111463   8.631   1.239   5.066
 3210SOL    HW211464   8.633   1.302   5.204
 3211SOL     OW11465   9.033   5.164   4.085
 3211SOL    HW111466   8.994   5.087   4.126
 3211SOL    HW211467   8.998   5.166   3.996
 3212SOL     OW11468   2.147  10.069   5.042
 3212SOL    HW111469   2.079  10.113   5.095
 3212SOL    HW211470   2.174   9.994   5.095
 3213SOL     OW11471   8.848   4.137   6.487
 3213SOL    HW111472   8.880   4.227   6.474
 3213SOL    HW211473   8.897   4.085   6.423
 3214SOL     OW11474  12.139  11.400   6.521
 3214SOL    HW111475  12.156  11.434   6.433
 3214SOL    HW211476  12.056  11.353   6.513
 3215SOL     OW11477  10.093  11.257  13.785
 3215SOL    HW111478  10.024  11.267  13.719
 3215SOL    HW211479  10.081  11.167  13.817
 3216SOL     OW11480   6.589  10.041  11.563
 3216SOL    HW111481   6.525  10.067  11.496
 3216SOL    HW211482   6.541  10.047  11.646
 3217SOL     OW11483   9.679  14.414   9.748
 3217SOL    HW111484   9.690  14.423   9.654
 3217SOL    HW211485   9.750  14.467   9.786
 3218SOL     OW11486   5.929   7.296   7.289
 3218SOL    HW111487   5.985   7.367   7.258
 3218SOL    HW211488   5.975   7.216   7.265
 3219SOL     OW11489  13.429   8.110   6.614
 3219SOL    HW111490  13.350   8.140   6.658
 3219SOL    HW211491  13.500   8.132   6.674
 3220SOL     OW11492   1.591  10.383   6.728
 3220SOL    HW111493   1.579  10.288   6.731
 3220SOL    HW211494   1.603  10.408   6.820
 3221SOL     OW11495   2.098  10.128   7.903
 3221SOL    HW111496   2.112  10.213   7.946
 3221SOL    HW211497   2.124  10.143   7.812
 3222SOL     OW11498   7.914   9.373   8.903
 3222SOL    HW111499   7.965   9.450   8.879
 3222SOL    HW211500   7.830   9.407   8.932
 3223SOL     OW11501  10.406  13.538  11.387
 3223SOL    HW111502  10.312  13.518  11.381
 3223SOL    HW211503  10.420  13.603  11.318
 3224SOL     OW11504  11.684   8.581  11.032
 3224SOL    HW111505  11.723   8.496  11.049
 3224SOL    HW211506  11.729   8.613  10.954
 3225SOL     OW11507   9.352   3.569   3.509
 3225SOL    HW111508   9.431   3.620   3.491
 3225SOL    HW211509   9.310   3.615   3.582
 3226SOL     OW11510   3.093   0.276   3.324
 3226SOL    HW111511   3.062   0.274   3.233
 3226SOL    HW211512   3.020   0.241   3.375
 3227SOL     OW11513   9.890  11.507  14.531
 3227SOL    HW111514   9.880  11.414  14.548
 3227SOL    HW211515   9.868  11.550  14.614
 3228SOL     OW11516   5.235   2.827  10.158
 3228SOL    HW111517   5.156   2.790  10.119
 3228SOL    HW211518   5.306   2.802  10.098
 3229SOL     OW11519  13.353   4.318   8.338
 3229SOL    HW111520  13.290   4.390   8.342
 3229SOL    HW211521  13.431   4.351   8.383
 3230SOL     OW11522   0.587   1.754   5.685
 3230SOL    HW111523   0.630   1.837   5.666
 3230SOL    HW211524   0.530   1.772   5.760
 3231SOL     OW11525  14.714  12.390  12.848
 3231SOL    HW111526  14.624  12.388  12.880
 3231SOL    HW211527  14.765  12.349  12.918
 3232SOL     OW11528   5.653   8.371  10.469
 3232SOL    HW111529   5.656   8.465  10.485
 3232SOL    HW211530   5.718   8.334  10.529
 3233SOL     OW11531   8.528   1.510  14.647
 3233SOL    HW111532   8.607   1.458  14.636
 3233SOL    HW211533   8.464   1.450  14.685
 3234SOL     OW11534   4.462  14.607   7.868
 3234SOL    HW111535   4.372  14.631   7.889
 3234SOL    HW211536   4.459  14.515   7.846
 3235SOL     OW11537   1.645   0.560  10.204
 3235SOL    HW111538   1.561   0.516  10.190
 3235SOL    HW211539   1.625   0.632  10.263
 3236SOL     OW11540  10.759   0.892  12.861
 3236SOL    HW111541  10.672   0.892  12.820
 3236SOL    HW211542  10.781   0.985  12.870
 3237SOL     OW11543  13.160   6.402  11.432
 3237SOL    HW111544  13.221   6.438  11.367
 3237SOL    HW211545  13.213   6.339  11.481
 3238SOL     OW11546  10.861   9.779   9.645
 3238SOL    HW111547  10.833   9.688   9.655
 3238SOL    HW211548  10.954   9.773   9.620
 3239SOL     OW11549   2.919   1.585   2.588
 3239SOL    HW111550   2.851   1.536   2.635
 3239SOL    HW211551   2.934   1.535   2.508
 3240SOL     OW11552   1.103   0.253   9.838
 3240SOL    HW111553   1.143   0.222   9.757
 3240SOL    HW211554   1.104   0.349   9.830
 3241SOL     OW11555   9.460  12.661   8.764
 3241SOL    HW111556   9.371  12.687   8.787
 3241SOL    HW211557   9.448  12.587   8.703
 3242SOL     OW11558   9.612   6.634  12.942
 3242SOL    HW111559   9.634   6.691  12.869
 3242SOL    HW211560   9.596   6.694  13.015
 3243SOL     OW11561   7.700   9.147   0.492
 3243SOL    HW111562   7.614   9.164   0.530
 3243SOL    HW211563   7.723   9.060   0.524
 3244SOL     OW11564   2.745   5.427   4.280
 3244SOL    HW111565   2.680   5.372   4.324
 3244SOL    HW211566   2.827   5.378   4.290
 3245SOL     OW11567   2.826  13.564   7.729
 3245SOL    HW111568   2.908  13.590   7.687
 3245SOL    HW211569   2.788  13.499   7.670
 3246SOL     OW11570  10.112   2.904  10.700
 3246SOL    HW111571  10.079   2.965  10.766
 3246SOL    HW211572  10.054   2.916  10.625
 3247SOL     OW11573   6.330   8.272   2.691
 3247SOL    HW111574   6.278   8.226   2.756
 3247SOL    HW211575   6.281   8.352   2.673
 3248SOL     OW11576   9.752   4.148   6.017
 3248SOL    HW111577   9.750   4.071   5.960
 3248SOL    HW211578   9.670   4.142   6.067
 3249SOL     OW11579   3.235  11.014  13.224
 3249SOL    HW111580   3.284  11.091  13.253
 3249SOL    HW211581   3.293  10.971  13.162
 3250SOL     OW11582   1.819  10.398  13.843
 3250SOL    HW111583   1.783  10.359  13.923
 3250SOL    HW211584   1.834  10.324  13.785
 3251SOL     OW11585  12.647   2.808   8.512
 3251SOL    HW111586  12.685   2.824   8.599
 3251SOL    HW211587  12.566   2.860   8.512
 3252SOL     OW11588   1.875   9.318   3.178
 3252SOL    HW111589   1.841   9.233   3.149
 3252SOL    HW211590   1.816   9.382   3.138
 3253SOL     OW11591   9.421   5.771   5.684
 3253SOL    HW111592   9.343   5.752   5.632
 3253SOL    HW211593   9.443   5.862   5.662
 3254SOL     OW11594   4.992   7.559   9.579
 3254SOL    HW111595   5.068   7.601   9.619
 3254SOL    HW211596   5.000   7.578   9.485
 3255SOL     OW11597   3.342   0.903   9.025
 3255SOL    HW111598   3.390   0.923   9.105
 3255SOL    HW211599   3.397   0.839   8.979
 3256SOL     OW11600  10.671   1.914   2.235
 3256SOL    HW111601  10.663   2.008   2.248
 3256SOL    HW211602  10.621   1.896   2.156
 3257SOL     OW11603   8.406   4.460   0.421
 3257SOL    HW111604   8.457   4.456   0.341
 3257SOL    HW211605   8.428   4.380   0.469
 3258SOL     OW11606   9.355   5.473   7.323
 3258SOL    HW111607   9.449   5.492   7.326
 3258SOL    HW211608   9.313   5.558   7.340
 3259SOL     OW11609   3.920   0.463  10.410
 3259SOL    HW111610   3.831   0.496  10.423
 3259SOL    HW211611   3.960   0.527  10.350
 3260SOL     OW11612   2.164   2.064   3.775
 3260SOL    HW111613   2.242   2.015   3.803
 3260SOL    HW211614   2.109   1.999   3.731
 3261SOL     OW11615   9.513  11.251   3.612
 3261SOL    HW111616   9.429  11.220   3.646
 3261SOL    HW211617   9.502  11.346   3.605
 3262SOL     OW11618   6.093   9.508   4.096
 3262SOL    HW111619   6.004   9.541   4.086
 3262SOL    HW211620   6.112   9.517   4.190
 3263SOL     OW11621  14.678  13.835  13.025
 3263SOL    HW111622  14.649  13.926  13.022
 3263SOL    HW211623  14.620  13.789  12.965
 3264SOL     OW11624   6.416   6.430   2.691
 3264SOL    HW111625   6.473   6.411   2.765
 3264SOL    HW211626   6.409   6.346   2.644
 3265SOL     OW11627   0.687  12.348   9.617
 3265SOL    HW111628   0.611  12.379   9.666
 3265SOL    HW211629   0.650  12.297   9.545
 3266SOL     OW11630   4.753   4.947   9.171
 3266SOL    HW111631   4.707   4.884   9.226
 3266SOL    HW211632   4.764   4.902   9.087
 3267SOL     OW11633   0.654   3.829  11.812
 3267SOL    HW111634   0.597   3.753  11.826
 3267SOL    HW211635   0.734   3.793  11.774
 3268SOL     OW11636  13.806  11.483   8.516
 3268SOL    HW111637  13.767  11.562   8.552
 3268SOL    HW211638  13.882  11.514   8.466
 3269SOL     OW11639   5.070   3.923   1.931
 3269SOL    HW111640   5.153   3.885   1.959
 3269SOL    HW211641   5.095   3.996   1.874
 3270SOL     OW11642   1.138   2.730   7.819
 3270SOL    HW111643   1.101   2.775   7.743
 3270SOL    HW211644   1.227   2.764   7.826
 3271SOL     OW11645   8.544   8.041  11.926
 3271SOL    HW111646   8.604   8.044  11.852
 3271SOL    HW211647   8.596   8.072  12.000
 3272SOL     OW11648  10.846  11.341   0.399
 3272SOL    HW111649  10.888  11.427   0.409
 3272SOL    HW211650  10.917  11.283   0.370
 3273SOL     OW11651  12.193   0.992  11.918
 3273SOL    HW111652  12.248   0.927  11.874
 3273SOL    HW211653  12.115   0.999  11.864
 3274SOL     OW11654   9.444  14.576   1.247
 3274SOL    HW111655   9.371  14.543   1.299
 3274SOL    HW211656   9.403  14.634   1.183
 3275SOL     OW11657  10.409   2.029  12.586
 3275SOL    HW111658  10.501   2.055  12.580
 3275SOL    HW211659  10.391   2.025  12.680
 3276SOL     OW11660  10.608   0.282   5.221
 3276SOL    HW111661  10.660   0.203   5.201
 3276SOL    HW211662  10.648   0.350   5.167
 3277SOL     OW11663   4.828   4.661  10.071
 3277SOL    HW111664   4.895   4.646  10.137
 3277SOL    HW211665   4.784   4.577  10.062
 3278SOL     OW11666   6.184   9.086  12.699
 3278SOL    HW111667   6.174   9.042  12.615
 3278SOL    HW211668   6.151   9.022  12.763
 3279SOL     OW11669  11.908   1.079   8.946
 3279SOL    HW111670  11.837   1.079   8.882
 3279SOL    HW211671  11.988   1.082   8.894
 3280SOL     OW11672   3.436   1.359  10.703
 3280SOL    HW111673   3.510   1.358  10.642
 3280SOL    HW211674   3.441   1.444  10.745
 3281SOL     OW11675  13.321   8.777  11.440
 3281SOL    HW111676  13.412   8.748  11.437
 3281SOL    HW211677  13.283   8.745  11.358
 3282SOL     OW11678   6.304  10.500   1.626
 3282SOL    HW111679   6.237  10.551   1.581
 3282SOL    HW211680   6.354  10.565   1.676
 3283SOL     OW11681  11.569   4.772  14.358
 3283SOL    HW111682  11.608   4.859  14.352
 3283SOL    HW211683  11.597   4.727  14.278
 3284SOL     OW11684  11.534   3.928   7.653
 3284SOL    HW111685  11.561   3.902   7.564
 3284SOL    HW211686  11.547   4.022   7.655
 3285SOL     OW11687   4.745   0.796  14.106
 3285SOL    HW111688   4.768   0.878  14.063
 3285SOL    HW211689   4.829   0.755  14.126
 3286SOL     OW11690   2.459   8.126   1.617
 3286SOL    HW111691   2.369   8.138   1.586
 3286SOL    HW211692   2.479   8.034   1.600
 3287SOL     OW11693  12.906   2.292   5.435
 3287SOL    HW111694  12.917   2.252   5.521
 3287SOL    HW211695  12.811   2.293   5.421
 3288SOL     OW11696   1.810   7.792  14.852
 3288SOL    HW111697   1.728   7.744  14.856
 3288SOL    HW211698   1.877   7.725  14.847
 3289SOL     OW11699   2.165   7.976   4.111
 3289SOL    HW111700   2.220   8.018   4.045
 3289SOL    HW211701   2.076   8.001   4.089
 3290SOL     OW11702   9.996  10.031   1.193
 3290SOL    HW111703   9.976  10.095   1.125
 3290SOL    HW211704   9.911  10.008   1.230
 3291SOL     OW11705  12.379   9.071   6.689
 3291SOL    HW111706  12.447   9.008   6.714
 3291SOL    HW211707  12.348   9.107   6.772
 3292SOL     OW11708  11.048  12.178   6.274
 3292SOL    HW111709  11.070  12.085   6.277
 3292SOL    HW211710  11.128  12.220   6.240
 3293SOL     OW11711   5.471   4.546   2.302
 3293SOL    HW111712   5.426   4.520   2.221
 3293SOL    HW211713   5.463   4.469   2.359
 3294SOL     OW11714   0.104   3.656   3.200
 3294SOL    HW111715   0.187   3.613   3.222
 3294SOL    HW211716   0.037   3.602   3.242
 3295SOL     OW11717   8.501  14.502   5.502
 3295SOL    HW111718   8.547  14.476   5.422
 3295SOL    HW211719   8.408  14.494   5.480
 3296SOL     OW11720   9.933  11.724   9.509
 3296SOL    HW111721   9.918  11.712   9.603
 3296SOL    HW211722   9.889  11.806   9.488
 3297SOL     OW11723  14.485  11.608  13.820
 3297SOL    HW111724  14.456  11.520  13.842
 3297SOL    HW211725  14.580  11.604  13.827
 3298SOL     OW11726  13.625   3.738   9.396
 3298SOL    HW111727  13.700   3.715   9.451
 3298SOL    HW211728  13.558   3.674   9.420
 3299SOL     OW11729  13.247  10.643   6.604
 3299SOL    HW111730  13.325  10.641   6.548
 3299SOL    HW211731  13.225  10.736   6.611
 3300SOL     OW11732  14.284  12.969   9.966
 3300SOL    HW111733  14.259  12.978  10.058
 3300SOL    HW211734  14.231  13.034   9.920
 3301SOL     OW11735  11.189   3.809   8.976
 3301SOL    HW111736  11.257   3.876   8.963
 3301SOL    HW211737  11.218   3.761   9.053
 3302SOL     OW11738   1.911   9.514   8.295
 3302SOL    HW111739   1.970   9.516   8.220
 3302SOL    HW211740   1.924   9.426   8.332
 3303SOL     OW11741   6.409   2.454   6.117
 3303SOL    HW111742   6.476   2.459   6.050
 3303SOL    HW211743   6.457   2.462   6.200
 3304SOL     OW11744   6.873  14.175   5.907
 3304SOL    HW111745   6.807  14.242   5.923
 3304SOL    HW211746   6.956  14.220   5.913
 3305SOL     OW11747   4.968   8.731   4.293
 3305SOL    HW111748   5.035   8.741   4.361
 3305SOL    HW211749   4.984   8.645   4.255
 3306SOL     OW11750   4.916   1.958  12.178
 3306SOL    HW111751   5.007   1.936  12.198
 3306SOL    HW211752   4.897   2.033  12.235
 3307SOL     OW11753   1.147  10.369   6.482
 3307SOL    HW111754   1.079  10.311   6.514
 3307SOL    HW211755   1.207  10.380   6.556
 3308SOL     OW11756   4.598  11.874   4.556
 3308SOL    HW111757   4.506  11.873   4.583
 3308SOL    HW211758   4.604  11.809   4.486
 3309SOL     OW11759   3.101   1.831   1.718
 3309SOL    HW111760   3.093   1.746   1.675
 3309SOL    HW211761   3.187   1.864   1.692
 3310SOL     OW11762   8.577   1.055  12.084
 3310SOL    HW111763   8.564   0.980  12.143
 3310SOL    HW211764   8.534   1.029  12.003
 3311SOL     OW11765  12.586   7.258  13.698
 3311SOL    HW111766  12.500   7.226  13.672
 3311SOL    HW211767  12.568   7.322  13.768
 3312SOL     OW11768   1.378  11.913   1.062
 3312SOL    HW111769   1.395  11.919   1.156
 3312SOL    HW211770   1.355  12.002   1.037
 3313SOL     OW11771  12.291   2.875  13.349
 3313SOL    HW111772  12.261   2.784  13.340
 3313SOL    HW211773  12.302   2.905  13.259
 3314SOL     OW11774  10.082  14.124   5.619
 3314SOL    HW111775  10.004  14.130   5.673
 3314SOL    HW211776  10.051  14.139   5.530
 3315SOL     OW11777   2.607   7.147   6.937
 3315SOL    HW111778   2.596   7.221   6.877
 3315SOL    HW211779   2.653   7.184   7.012
 3316SOL     OW11780   2.728  12.543  11.027
 3316SOL    HW111781   2.716  12.529  11.120
 3316SOL    HW211782   2.819  12.518  11.010
 3317SOL     OW11783   4.829  13.507  13.976
 3317SOL    HW111784   4.860  13.591  14.009
 3317SOL    HW211785   4.777  13.530  13.899
 3318SOL     OW11786   6.971   7.326   6.907
 3318SOL    HW111787   6.892   7.283   6.874
 3318SOL    HW211788   6.957   7.419   6.891
 3319SOL     OW11789  14.186   0.628  10.155
 3319SOL    HW111790  14.212   0.678  10.232
 3319SOL    HW211791  14.264   0.630  10.098
 3320SOL     OW11792   9.141  11.306   1.342
 3320SOL    HW111793   9.137  11.318   1.437
 3320SOL    HW211794   9.184  11.222   1.329
 3321SOL     OW11795  12.520  14.730   1.557
 3321SOL    HW111796  12.537  14.769   1.471
 3321SOL    HW211797  12.511  14.636   1.540
 3322SOL     OW11798  13.472   2.140  12.883
 3322SOL    HW111799  13.479   2.222  12.931
 3322SOL    HW211800  13.464   2.073  12.951
 3323SOL     OW11801   8.382   1.098   2.537
 3323SOL    HW111802   8.382   1.171   2.599
 3323SOL    HW211803   8.306   1.115   2.480
 3324SOL     OW11804   9.609   2.632  10.615
 3324SOL    HW111805   9.612   2.717  10.658
 3324SOL    HW211806   9.700   2.614  10.590
 3325SOL     OW11807   9.023   2.841   3.622
 3325SOL    HW111808   9.003   2.926   3.662
 3325SOL    HW211809   9.110   2.819   3.655
 3326SOL     OW11810  11.926   8.226   8.968
 3326SOL    HW111811  11.896   8.253   9.055
 3326SOL    HW211812  11.975   8.145   8.984
 3327SOL     OW11813  14.084   3.275   2.867
 3327SOL    HW111814  14.044   3.282   2.954
 3327SOL    HW211815  14.119   3.187   2.863
 3328SOL     OW11816  10.724   3.092  13.324
 3328SOL    HW111817  10.722   3.005  13.285
 3328SOL    HW211818  10.700   3.151  13.253
 3329SOL     OW11819   4.209  13.741   2.780
 3329SOL    HW111820   4.163  13.694   2.848
 3329SOL    HW211821   4.173  13.708   2.698
 3330SOL     OW11822  14.043   2.832   0.331
 3330SOL    HW111823  14.010   2.891   0.399
 3330SOL    HW211824  14.129   2.805   0.363
 3331SOL     OW11825  11.284   6.642   3.634
 3331SOL    HW111826  11.274   6.551   3.608
 3331SOL    HW211827  11.286   6.639   3.730
 3332SOL     OW11828  11.593  13.674   2.189
 3332SOL    HW111829  11.686  13.652   2.184
 3332SOL    HW211830  11.589  13.747   2.250
 3333SOL     OW11831   8.754   6.810  10.833
 3333SOL    HW111832   8.822   6.742  10.839
 3333SOL    HW211833   8.682   6.767  10.787
 3334SOL     OW11834   4.190  10.197  13.665
 3334SOL    HW111835   4.253  10.221  13.733
 3334SOL    HW211836   4.174  10.104  13.680
 3335SOL     OW11837   0.950  12.960   3.133
 3335SOL    HW111838   0.860  12.982   3.108
 3335SOL    HW211839   1.005  13.020   3.083
 3336SOL     OW11840   9.924   6.365   2.915
 3336SOL    HW111841   9.845   6.323   2.880
 3336SOL    HW211842   9.896   6.401   2.999
 3337SOL     OW11843   3.841   8.595  13.679
 3337SOL    HW111844   3.813   8.639  13.759
 3337SOL    HW211845   3.821   8.656  13.609
 3338SOL     OW11846   7.148   7.104   6.929
 3338SOL    HW111847   7.059   7.138   6.932
 3338SOL    HW211848   7.151   7.050   6.850
 3339SOL     OW11849   1.237   7.327   8.677
 3339SOL    HW111850   1.220   7.415   8.644
 3339SOL    HW211851   1.172   7.314   8.746
 3340SOL     OW11852  13.621  14.570   9.741
 3340SOL    HW111853  13.716  14.579   9.743
 3340SOL    HW211854  13.606  14.484   9.702
 3341SOL     OW11855  13.191   5.968  14.421
 3341SOL    HW111856  13.136   5.947  14.497
 3341SOL    HW211857  13.196   5.886  14.372
 3342SOL     OW11858  14.821   9.584  14.071
 3342SOL    HW111859   0.016   9.633  14.035
 3342SOL    HW211860  14.822   9.501  14.023
 3343SOL     OW11861   8.220   6.031  14.722
 3343SOL    HW111862   8.183   6.072  14.800
 3343SOL    HW211863   8.155   5.964  14.697
 3344SOL     OW11864  11.149   1.162  12.118
 3344SOL    HW111865  11.102   1.088  12.155
 3344SOL    HW211866  11.165   1.220  12.192
 3345SOL     OW11867   0.793  14.631   4.683
 3345SOL    HW111868   0.718  14.626   4.743
 3345SOL    HW211869   0.823  14.722   4.690
 3346SOL     OW11870  12.168   6.436  11.794
 3346SOL    HW111871  12.091   6.414  11.847
 3346SOL    HW211872  12.146   6.405  11.706
 3347SOL     OW11873   0.932  11.962  14.131
 3347SOL    HW111874   0.913  11.869  14.143
 3347SOL    HW211875   0.974  11.989  14.213
 3348SOL     OW11876   9.999  10.129  14.388
 3348SOL    HW111877  10.062  10.138  14.459
 3348SOL    HW211878   9.915  10.116  14.432
 3349SOL     OW11879  14.567   5.968   0.005
 3349SOL    HW111880  14.568   5.897  14.820
 3349SOL    HW211881  14.559   6.047  14.832
 3350SOL     OW11882  10.481   5.862   5.389
 3350SOL    HW111883  10.387   5.868   5.373
 3350SOL    HW211884  10.503   5.942   5.437
 3351SOL     OW11885  11.252  10.018   0.411
 3351SOL    HW111886  11.255   9.939   0.466
 3351SOL    HW211887  11.336  10.016   0.363
 3352SOL     OW11888  13.980  14.150   2.693
 3352SOL    HW111889  14.034  14.135   2.770
 3352SOL    HW211890  13.917  14.216   2.720
 3353SOL     OW11891  13.773   7.114  14.438
 3353SOL    HW111892  13.791   7.069  14.355
 3353SOL    HW211893  13.809   7.202  14.425
 3354SOL     OW11894  10.860   2.913   6.893
 3354SOL    HW111895  10.888   2.826   6.921
 3354SOL    HW211896  10.777   2.897   6.848
 3355SOL     OW11897   3.796   6.586   9.887
 3355SOL    HW111898   3.872   6.546   9.846
 3355SOL    HW211899   3.830   6.628   9.966
 3356SOL     OW11900   9.738   3.605  11.651
 3356SOL    HW111901   9.725   3.569  11.564
 3356SOL    HW211902   9.750   3.699  11.637
 3357SOL     OW11903   8.484  12.384   6.609
 3357SOL    HW111904   8.505  12.297   6.573
 3357SOL    HW211905   8.564  12.435   6.597
 3358SOL     OW11906   4.771   5.694   2.852
 3358SOL    HW111907   4.682   5.684   2.818
 3358SOL    HW211908   4.760   5.740   2.935
 3359SOL     OW11909  11.054   5.410  10.292
 3359SOL    HW111910  10.992   5.357  10.342
 3359SOL    HW211911  11.004   5.439  10.216
 3360SOL     OW11912   2.601   3.197  14.650
 3360SOL    HW111913   2.538   3.134  14.687
 3360SOL    HW211914   2.603   3.176  14.557
 3361SOL     OW11915  12.657   0.266   6.766
 3361SOL    HW111916  12.750   0.252   6.749
 3361SOL    HW211917  12.631   0.334   6.703
 3362SOL     OW11918  12.736   1.055  13.625
 3362SOL    HW111919  12.654   1.096  13.654
 3362SOL    HW211920  12.715   0.961  13.621
 3363SOL     OW11921  14.711   7.527   3.003
 3363SOL    HW111922  14.746   7.503   3.089
 3363SOL    HW211923  14.643   7.461   2.986
 3364SOL     OW11924  11.131   3.807   1.153
 3364SOL    HW111925  11.054   3.844   1.196
 3364SOL    HW211926  11.165   3.743   1.216
 3365SOL     OW11927   2.916   5.560   6.548
 3365SOL    HW111928   2.962   5.486   6.589
 3365SOL    HW211929   2.897   5.530   6.459
 3366SOL     OW11930   9.054  11.210   7.145
 3366SOL    HW111931   8.963  11.205   7.116
 3366SOL    HW211932   9.049  11.208   7.241
 3367SOL     OW11933  10.644   9.999  12.991
 3367SOL    HW111934  10.636   9.966  13.081
 3367SOL    HW211935  10.737  10.018  12.982
 3368SOL     OW11936   5.724  10.735   2.622
 3368SOL    HW111937   5.660  10.695   2.681
 3368SOL    HW211938   5.804  10.743   2.675
 3369SOL     OW11939   1.444  14.803   2.183
 3369SOL    HW111940   1.351  14.818   2.197
 3369SOL    HW211941   1.487  14.846   2.257
 3370SOL     OW11942   6.363   1.174   3.048
 3370SOL    HW111943   6.309   1.254   3.049
 3370SOL    HW211944   6.421   1.183   3.124
 3371SOL     OW11945   5.826  14.466   6.976
 3371SOL    HW111946   5.840  14.532   6.909
 3371SOL    HW211947   5.744  14.492   7.019
 3372SOL     OW11948   1.962  12.320  10.792
 3372SOL    HW111949   1.970  12.354  10.881
 3372SOL    HW211950   1.883  12.265  10.794
 3373SOL     OW11951   9.104   7.069   4.552
 3373SOL    HW111952   9.197   7.063   4.575
 3373SOL    HW211953   9.061   7.003   4.607
 3374SOL     OW11954   4.017   0.465   5.268
 3374SOL    HW111955   3.942   0.500   5.220
 3374SOL    HW211956   4.012   0.370   5.253
 3375SOL     OW11957  11.206   3.035  10.307
 3375SOL    HW111958  11.205   3.109  10.367
 3375SOL    HW211959  11.294   2.998  10.316
 3376SOL     OW11960   1.139  11.337   6.110
 3376SOL    HW111961   1.103  11.317   6.024
 3376SOL    HW211962   1.098  11.274   6.169
 3377SOL     OW11963   0.777   0.110   5.838
 3377SOL    HW111964   0.708   0.065   5.788
 3377SOL    HW211965   0.810   0.043   5.898
 3378SOL     OW11966  10.958   7.478   6.294
 3378SOL    HW111967  10.886   7.530   6.260
 3378SOL    HW211968  10.966   7.505   6.386
 3379SOL     OW11969   9.526   0.315  11.505
 3379SOL    HW111970   9.618   0.331  11.525
 3379SOL    HW211971   9.487   0.403  11.497
 3380SOL     OW11972   7.305   6.182   5.730
 3380SOL    HW111973   7.360   6.143   5.798
 3380SOL    HW211974   7.345   6.268   5.714
 3381SOL     OW11975   8.749   3.238   5.223
 3381SOL    HW111976   8.836   3.219   5.259
 3381SOL    HW211977   8.754   3.329   5.194
 3382SOL     OW11978   5.990   2.884  12.025
 3382SOL    HW111979   6.078   2.847  12.022
 3382SOL    HW211980   5.978   2.910  12.116
 3383SOL     OW11981   9.175   5.351   5.777
 3383SOL    HW111982   9.232   5.405   5.833
 3383SOL    HW211983   9.193   5.261   5.804
 3384SOL     OW11984  10.329  11.451  12.388
 3384SOL    HW111985  10.314  11.455  12.482
 3384SOL    HW211986  10.244  11.424  12.351
 3385SOL     OW11987   0.908   2.823   0.765
 3385SOL    HW111988   0.890   2.735   0.732
 3385SOL    HW211989   0.851   2.833   0.841
 3386SOL     OW11990   4.224   2.458   4.207
 3386SOL    HW111991   4.246   2.524   4.142
 3386SOL    HW211992   4.158   2.500   4.262
 3387SOL     OW11993   0.597   8.518  13.081
 3387SOL    HW111994   0.590   8.614  13.082
 3387SOL    HW211995   0.617   8.496  12.990
 3388SOL     OW11996   7.261   2.128   2.721
 3388SOL    HW111997   7.198   2.185   2.676
 3388SOL    HW211998   7.270   2.052   2.664
 3389SOL     OW11999   9.234  11.241  10.330
 3389SOL    HW112000   9.192  11.327  10.323
 3389SOL    HW212001   9.218  11.214  10.420
 3390SOL     OW12002   1.295   0.565  14.574
 3390SOL    HW112003   1.262   0.536  14.659
 3390SOL    HW212004   1.386   0.533  14.572
 3391SOL     OW12005   8.860  11.446  12.632
 3391SOL    HW112006   8.906  11.529  12.626
 3391SOL    HW212007   8.799  11.457  12.705
 3392SOL     OW12008  12.887   8.281   6.899
 3392SOL    HW112009  12.836   8.318   6.971
 3392SOL    HW212010  12.887   8.350   6.832
 3393SOL     OW12011  10.001   2.274  12.244
 3393SOL    HW112012  10.084   2.310  12.276
 3393SOL    HW212013   9.963   2.344  12.191
 3394SOL     OW12014   8.967   3.805   3.498
 3394SOL    HW112015   8.931   3.752   3.427
 3394SOL    HW212016   9.004   3.881   3.454
 3395SOL     OW12017   6.070  11.871   8.441
 3395SOL    HW112018   6.033  11.879   8.353
 3395SOL    HW212019   6.011  11.921   8.497
 3396SOL     OW12020   7.051   0.976  11.857
 3396SOL    HW112021   7.016   0.923  11.785
 3396SOL    HW212022   7.144   0.987  11.835
 3397SOL     OW12023   0.884   1.473   8.171
 3397SOL    HW112024   0.935   1.437   8.244
 3397SOL    HW212025   0.793   1.464   8.198
 3398SOL     OW12026   0.302   5.362   9.096
 3398SOL    HW112027   0.321   5.399   9.009
 3398SOL    HW212028   0.361   5.409   9.155
 3399SOL     OW12029  11.914   1.338  12.603
 3399SOL    HW112030  11.891   1.287  12.525
 3399SOL    HW212031  11.904   1.429  12.576
 3400SOL     OW12032   0.116  12.476   5.004
 3400SOL    HW112033   0.090  12.543   4.941
 3400SOL    HW212034   0.181  12.519   5.060
 3401SOL     OW12035   5.247   8.681  13.189
 3401SOL    HW112036   5.252   8.616  13.259
 3401SOL    HW212037   5.200   8.755  13.228
 3402SOL     OW12038   6.591   0.183   6.531
 3402SOL    HW112039   6.615   0.186   6.438
 3402SOL    HW212040   6.649   0.246   6.573
 3403SOL     OW12041   2.161   7.420  13.266
 3403SOL    HW112042   2.091   7.357  13.249
 3403SOL    HW212043   2.235   7.389  13.215
 3404SOL     OW12044   3.694   8.382   3.717
 3404SOL    HW112045   3.715   8.466   3.759
 3404SOL    HW212046   3.777   8.333   3.720
 3405SOL     OW12047   4.674   0.351  10.556
 3405SOL    HW112048   4.581   0.340  10.575
 3405SOL    HW212049   4.677   0.397  10.473
 3406SOL     OW12050  13.244   2.888  10.208
 3406SOL    HW112051  13.328   2.883  10.164
 3406SOL    HW212052  13.179   2.878  10.139
 3407SOL     OW12053   3.932   5.625   5.765
 3407SOL    HW112054   3.868   5.605   5.834
 3407SOL    HW212055   3.917   5.559   5.698
 3408SOL     OW12056   1.845   1.451   6.474
 3408SOL    HW112057   1.835   1.374   6.531
 3408SOL    HW212058   1.860   1.524   6.535
 3409SOL     OW12059  13.594  11.118   0.453
 3409SOL    HW112060  13.527  11.185   0.464
 3409SOL    HW212061  13.676  11.166   0.442
 3410SOL     OW12062  13.647  13.384   0.584
 3410SOL    HW112063  13.699  13.304   0.578
 3410SOL    HW212064  13.574  13.361   0.642
 3411SOL     OW12065   8.578  12.691  12.612
 3411SOL    HW112066   8.551  12.614  12.662
 3411SOL    HW212067   8.614  12.751  12.678
 3412SOL     OW12068   2.452   9.573   5.744
 3412SOL    HW112069   2.440   9.578   5.649
 3412SOL    HW212070   2.449   9.480   5.764
 3413SOL     OW12071   1.631   4.429   5.638
 3413SOL    HW112072   1.681   4.385   5.707
 3413SOL    HW212073   1.590   4.358   5.589
 3414SOL     OW12074   2.999   7.703   6.041
 3414SOL    HW112075   3.033   7.668   5.959
 3414SOL    HW212076   2.957   7.628   6.083
 3415SOL     OW12077   1.719   1.932   0.431
 3415SOL    HW112078   1.783   1.925   0.360
 3415SOL    HW212079   1.673   2.014   0.414
 3416SOL     OW12080   2.018   5.423   1.153
 3416SOL    HW112081   1.966   5.472   1.217
 3416SOL    HW212082   1.969   5.431   1.071
 3417SOL     OW12083   8.122  13.074  11.939
 3417SOL    HW112084   8.039  13.109  11.972
 3417SOL    HW212085   8.097  13.017  11.866
 3418SOL     OW12086   4.621   2.098   8.236
 3418SOL    HW112087   4.660   2.031   8.292
 3418SOL    HW212088   4.683   2.108   8.164
 3419SOL     OW12089  14.593   3.913   4.127
 3419SOL    HW112090  14.555   3.889   4.212
 3419SOL    HW212091  14.683   3.879   4.130
 3420SOL     OW12092  12.490   6.574  11.808
 3420SOL    HW112093  12.484   6.666  11.783
 3420SOL    HW212094  12.434   6.528  11.745
 3421SOL     OW12095   0.497  13.236   5.709
 3421SOL    HW112096   0.425  13.175   5.726
 3421SOL    HW212097   0.529  13.259   5.796
 3422SOL     OW12098   3.645  14.144  10.673
 3422SOL    HW112099   3.558  14.107  10.659
 3422SOL    HW212100   3.675  14.169  10.586
 3423SOL     OW12101   4.998   4.333  11.328
 3423SOL    HW112102   4.913   4.330  11.373
 3423SOL    HW212103   4.992   4.408  11.270
 3424SOL     OW12104   4.493   3.584   0.651
 3424SOL    HW112105   4.411   3.585   0.601
 3424SOL    HW212106   4.543   3.658   0.617
 3425SOL     OW12107   4.132   0.865   3.545
 3425SOL    HW112108   4.084   0.788   3.576
 3425SOL    HW212109   4.072   0.908   3.484
 3426SOL     OW12110   3.770  10.541   3.294
 3426SOL    HW112111   3.769  10.466   3.353
 3426SOL    HW212112   3.684  10.538   3.252
 3427SOL     OW12113   7.307   3.368  14.642
 3427SOL    HW112114   7.312   3.274  14.621
 3427SOL    HW212115   7.238   3.374  14.708
 3428SOL     OW12116  14.074   0.628  13.173
 3428SOL    HW112117  14.153   0.579  13.195
 3428SOL    HW212118  14.031   0.643  13.257
 3429SOL     OW12119   1.621   1.536   5.415
 3429SOL    HW112120   1.666   1.454   5.437
 3429SOL    HW212121   1.679   1.605   5.448
 3430SOL     OW12122  10.290   2.051   2.953
 3430SOL    HW112123  10.292   2.141   2.986
 3430SOL    HW212124  10.339   2.001   3.018
 3431SOL     OW12125  12.645   8.646  10.924
 3431SOL    HW112126  12.676   8.704  10.993
 3431SOL    HW212127  12.584   8.699  10.873
 3432SOL     OW12128  13.166   6.539   3.647
 3432SOL    HW112129  13.219   6.590   3.587
 3432SOL    HW212130  13.082   6.528   3.603
 3433SOL     OW12131   9.529   8.733   7.891
 3433SOL    HW112132   9.542   8.707   7.800
 3433SOL    HW212133   9.508   8.826   7.886
 3434SOL     OW12134   5.115  11.616  10.754
 3434SOL    HW112135   5.162  11.589  10.833
 3434SOL    HW212136   5.069  11.695  10.780
 3435SOL     OW12137   9.864   1.523  10.251
 3435SOL    HW112138   9.889   1.468  10.176
 3435SOL    HW212139   9.778   1.491  10.277
 3436SOL     OW12140   1.322   9.771   7.153
 3436SOL    HW112141   1.372   9.794   7.074
 3436SOL    HW212142   1.373   9.702   7.194
 3437SOL     OW12143   7.958  13.121   2.599
 3437SOL    HW112144   7.925  13.035   2.626
 3437SOL    HW212145   7.880  13.168   2.569
 3438SOL     OW12146  10.178  10.250  11.791
 3438SOL    HW112147  10.195  10.167  11.836
 3438SOL    HW212148  10.220  10.239  11.705
 3439SOL     OW12149   2.372   8.419   8.003
 3439SOL    HW112150   2.424   8.363   8.059
 3439SOL    HW212151   2.363   8.501   8.052
 3440SOL     OW12152   6.564   6.201   5.035
 3440SOL    HW112153   6.634   6.230   5.094
 3440SOL    HW212154   6.485   6.240   5.071
 3441SOL     OW12155   5.641   1.926   1.909
 3441SOL    HW112156   5.589   1.852   1.878
 3441SOL    HW212157   5.586   2.003   1.896
 3442SOL     OW12158   3.347   2.221  13.516
 3442SOL    HW112159   3.441   2.227  13.537
 3442SOL    HW212160   3.324   2.130  13.532
 3443SOL     OW12161  12.232   3.600   2.776
 3443SOL    HW112162  12.197   3.650   2.849
 3443SOL    HW212163  12.281   3.529   2.817
 3444SOL     OW12164   5.617  14.230  10.984
 3444SOL    HW112165   5.704  14.190  10.974
 3444SOL    HW212166   5.628  14.321  10.958
 3445SOL     OW12167   4.653   0.076   4.511
 3445SOL    HW112168   4.686   0.154   4.465
 3445SOL    HW212169   4.594   0.112   4.578
 3446SOL     OW12170  12.292   7.123   9.139
 3446SOL    HW112171  12.224   7.114   9.206
 3446SOL    HW212172  12.264   7.198   9.087
 3447SOL     OW12173   1.805  12.767  11.536
 3447SOL    HW112174   1.738  12.721  11.487
 3447SOL    HW212175   1.816  12.850  11.491
 3448SOL     OW12176   2.964  12.385  13.194
 3448SOL    HW112177   2.991  12.315  13.134
 3448SOL    HW212178   3.040  12.442  13.199
 3449SOL     OW12179   1.720  11.854   3.438
 3449SOL    HW112180   1.681  11.932   3.398
 3449SOL    HW212181   1.645  11.799   3.460
 3450SOL     OW12182   1.342   3.504   0.908
 3450SOL    HW112183   1.255   3.534   0.934
 3450SOL    HW212184   1.346   3.522   0.814
 3451SOL     OW12185  11.368   9.246  12.411
 3451SOL    HW112186  11.404   9.234  12.499
 3451SOL    HW212187  11.286   9.294  12.426
 3452SOL     OW12188   8.202  13.249   3.501
 3452SOL    HW112189   8.142  13.303   3.448
 3452SOL    HW212190   8.289  13.283   3.480
 3453SOL     OW12191   1.412  12.562   3.130
 3453SOL    HW112192   1.330  12.595   3.095
 3453SOL    HW212193   1.391  12.474   3.162
 3454SOL     OW12194   9.586   5.402  12.332
 3454SOL    HW112195   9.661   5.456  12.305
 3454SOL    HW212196   9.510   5.458  12.319
 3455SOL     OW12197  10.262   9.623  13.273
 3455SOL    HW112198  10.182   9.570  13.277
 3455SOL    HW212199  10.245   9.698  13.330
 3456SOL     OW12200  10.221   2.195   9.509
 3456SOL    HW112201  10.290   2.261   9.500
 3456SOL    HW212202  10.206   2.188   9.603
 3457SOL     OW12203  10.008  10.018   7.612
 3457SOL    HW112204   9.983   9.927   7.629
 3457SOL    HW212205   9.983  10.033   7.521
 3458SOL     OW12206   3.113  13.843   5.548
 3458SOL    HW112207   3.047  13.774   5.536
 3458SOL    HW212208   3.062  13.923   5.560
 3459SOL     OW12209   2.271   8.078   5.008
 3459SOL    HW112210   2.318   8.100   4.928
 3459SOL    HW212211   2.220   8.157   5.028
 3460SOL     OW12212  14.722   0.895  12.745
 3460SOL    HW112213  14.798   0.904  12.802
 3460SOL    HW212214  14.656   0.952  12.784
 3461SOL     OW12215   2.282  12.143   7.713
 3461SOL    HW112216   2.347  12.170   7.778
 3461SOL    HW212217   2.310  12.056   7.685
 3462SOL     OW12218   7.097   5.809   2.438
 3462SOL    HW112219   7.077   5.731   2.490
 3462SOL    HW212220   7.192   5.813   2.436
 3463SOL     OW12221  13.866   0.422  14.260
 3463SOL    HW112222  13.902   0.424  14.171
 3463SOL    HW212223  13.778   0.460  14.252
 3464SOL     OW12224   1.789   9.992   5.634
 3464SOL    HW112225   1.716  10.048   5.663
 3464SOL    HW212226   1.803   9.931   5.707
 3465SOL     OW12227   3.372  14.579  13.984
 3465SOL    HW112228   3.409  14.650  14.036
 3465SOL    HW212229   3.297  14.548  14.034
 3466SOL     OW12230   1.079   4.011   8.589
 3466SOL    HW112231   1.166   4.039   8.559
 3466SOL    HW212232   1.074   3.919   8.565
 3467SOL     OW12233   7.131   2.162   2.945
 3467SOL    HW112234   7.183   2.120   3.013
 3467SOL    HW212235   7.187   2.158   2.867
 3468SOL     OW12236   1.391   3.317   4.960
 3468SOL    HW112237   1.422   3.365   5.037
 3468SOL    HW212238   1.436   3.233   4.964
 3469SOL     OW12239   6.132  13.065  11.537
 3469SOL    HW112240   6.197  13.025  11.594
 3469SOL    HW212241   6.131  13.009  11.459
 3470SOL     OW12242   3.604  14.538   6.832
 3470SOL    HW112243   3.599  14.617   6.885
 3470SOL    HW212244   3.676  14.554   6.770
 3471SOL     OW12245  11.494   8.409  13.525
 3471SOL    HW112246  11.583   8.398  13.560
 3471SOL    HW212247  11.499   8.375  13.435
 3472SOL     OW12248  14.485  10.373   8.004
 3472SOL    HW112249  14.470  10.317   7.928
 3472SOL    HW212250  14.399  10.411   8.023
 3473SOL     OW12251   6.907   8.647   2.391
 3473SOL    HW112252   6.993   8.606   2.392
 3473SOL    HW212253   6.845   8.574   2.386
 3474SOL     OW12254   4.002   8.285  11.772
 3474SOL    HW112255   4.093   8.260  11.790
 3474SOL    HW212256   3.979   8.236  11.694
 3475SOL     OW12257   9.345  14.349   5.224
 3475SOL    HW112258   9.293  14.269   5.223
 3475SOL    HW212259   9.391  14.349   5.140
 3476SOL     OW12260   9.231   2.499   2.910
 3476SOL    HW112261   9.311   2.452   2.934
 3476SOL    HW212262   9.196   2.531   2.993
 3477SOL     OW12263   2.424  11.257  11.235
 3477SOL    HW112264   2.344  11.257  11.286
 3477SOL    HW212265   2.425  11.171  11.192
 3478SOL     OW12266  11.749  13.425   2.441
 3478SOL    HW112267  11.721  13.383   2.360
 3478SOL    HW212268  11.669  13.462   2.478
 3479SOL     OW12269  11.119   7.661   7.232
 3479SOL    HW112270  11.130   7.611   7.313
 3479SOL    HW212271  11.050   7.724   7.252
 3480SOL     OW12272   4.220   4.855   5.808
 3480SOL    HW112273   4.292   4.836   5.867
 3480SOL    HW212274   4.261   4.893   5.731
 3481SOL     OW12275   0.963  13.577   1.195
 3481SOL    HW112276   1.054  13.556   1.177
 3481SOL    HW212277   0.965  13.668   1.225
 3482SOL     OW12278   1.185  13.104  10.948
 3482SOL    HW112279   1.257  13.123  11.008
 3482SOL    HW212280   1.217  13.130  10.862
 3483SOL     OW12281  12.513   1.303   7.475
 3483SOL    HW112282  12.434   1.337   7.516
 3483SOL    HW212283  12.501   1.320   7.381
 3484SOL     OW12284   1.781  14.744   9.331
 3484SOL    HW112285   1.835  14.753   9.253
 3484SOL    HW212286   1.753  14.652   9.330
 3485SOL     OW12287   4.609  11.248  13.634
 3485SOL    HW112288   4.561  11.192  13.573
 3485SOL    HW212289   4.587  11.214  13.721
 3486SOL     OW12290   1.862  10.425   2.703
 3486SOL    HW112291   1.914  10.494   2.662
 3486SOL    HW212292   1.903  10.411   2.788
 3487SOL     OW12293   5.569   5.334  13.186
 3487SOL    HW112294   5.637   5.402  13.178
 3487SOL    HW212295   5.610   5.256  13.149
 3488SOL     OW12296   1.010   7.839   5.325
 3488SOL    HW112297   0.953   7.762   5.324
 3488SOL    HW212298   0.958   7.908   5.285
 3489SOL     OW12299  10.395   8.098   9.188
 3489SOL    HW112300  10.403   8.154   9.265
 3489SOL    HW212301  10.452   8.139   9.123
 3490SOL     OW12302   2.114   7.304  14.050
 3490SOL    HW112303   2.097   7.357  13.973
 3490SOL    HW212304   2.190   7.250  14.026
 3491SOL     OW12305   7.274   0.169   4.622
 3491SOL    HW112306   7.262   0.221   4.542
 3491SOL    HW212307   7.368   0.175   4.640
 3492SOL     OW12308   0.189   2.367   5.509
 3492SOL    HW112309   0.133   2.416   5.450
 3492SOL    HW212310   0.130   2.339   5.580
 3493SOL     OW12311   5.370  10.322  10.624
 3493SOL    HW112312   5.331  10.243  10.587
 3493SOL    HW212313   5.350  10.391  10.560
 3494SOL     OW12314   6.475   9.663   0.086
 3494SOL    HW112315   6.503   9.612   0.162
 3494SOL    HW212316   6.531   9.633   0.014
 3495SOL     OW12317   5.647  14.493  12.431
 3495SOL    HW112318   5.608  14.426  12.375
 3495SOL    HW212319   5.572  14.541  12.466
 3496SOL     OW12320  10.436   1.886  12.839
 3496SOL    HW112321  10.458   1.811  12.784
 3496SOL    HW212322  10.518   1.910  12.881
 3497SOL     OW12323   9.365   7.231  13.773
 3497SOL    HW112324   9.441   7.289  13.779
 3497SOL    HW212325   9.294   7.288  13.743
 3498SOL     OW12326   2.058   9.631   7.817
 3498SOL    HW112327   2.137   9.629   7.872
 3498SOL    HW212328   2.032   9.723   7.816
 3499SOL     OW12329   0.134  13.661   8.016
 3499SOL    HW112330   0.084  13.624   8.089
 3499SOL    HW212331   0.180  13.586   7.978
 3500SOL     OW12332  12.286   0.763   7.157
 3500SOL    HW112333  12.224   0.764   7.085
 3500SOL    HW212334  12.319   0.852   7.163
 3501SOL     OW12335  11.727   7.324   1.023
 3501SOL    HW112336  11.681   7.296   0.943
 3501SOL    HW212337  11.702   7.416   1.033
 3502SOL     OW12338  14.797  12.394   1.200
 3502SOL    HW112339  14.716  12.359   1.237
 3502SOL    HW212340  14.790  12.489   1.215
 3503SOL     OW12341  12.741   9.170  11.164
 3503SOL    HW112342  12.690   9.245  11.132
 3503SOL    HW212343  12.817   9.166  11.105
 3504SOL     OW12344   4.022   6.654   6.209
 3504SOL    HW112345   4.070   6.618   6.134
 3504SOL    HW212346   4.088   6.663   6.278
 3505SOL     OW12347  11.484   2.206  11.560
 3505SOL    HW112348  11.531   2.129  11.589
 3505SOL    HW212349  11.517   2.223  11.471
 3506SOL     OW12350   9.289   6.502  10.809
 3506SOL    HW112351   9.305   6.408  10.813
 3506SOL    HW212352   9.275   6.520  10.716
 3507SOL     OW12353   1.439  10.963   6.794
 3507SOL    HW112354   1.523  10.966   6.749
 3507SOL    HW212355   1.398  11.047   6.775
 3508SOL     OW12356   8.745  14.580   7.120
 3508SOL    HW112357   8.734  14.490   7.091
 3508SOL    HW212358   8.810  14.617   7.060
 3509SOL     OW12359   7.809   9.985   9.206
 3509SOL    HW112360   7.803   9.939   9.290
 3509SOL    HW212361   7.729   9.961   9.159
 3510SOL     OW12362   6.063   6.942   3.154
 3510SOL    HW112363   5.987   6.986   3.116
 3510SOL    HW212364   6.032   6.854   3.176
 3511SOL     OW12365  11.984   2.025   8.281
 3511SOL    HW112366  11.897   2.065   8.274
 3511SOL    HW212367  12.044   2.093   8.253
 3512SOL     OW12368   0.386  11.868  12.221
 3512SOL    HW112369   0.438  11.948  12.232
 3512SOL    HW212370   0.442  11.810  12.169
 3513SOL     OW12371  13.449  10.461  13.844
 3513SOL    HW112372  13.445  10.442  13.750
 3513SOL    HW212373  13.391  10.537  13.856
 3514SOL     OW12374   5.907   7.008  14.542
 3514SOL    HW112375   5.840   6.940  14.551
 3514SOL    HW212376   5.864   7.078  14.493
 3515SOL     OW12377  11.645   9.469   1.953
 3515SOL    HW112378  11.640   9.561   1.926
 3515SOL    HW212379  11.688   9.471   2.038
 3516SOL     OW12380   8.955   8.826   5.709
 3516SOL    HW112381   8.876   8.782   5.743
 3516SOL    HW212382   9.000   8.857   5.788
 3517SOL     OW12383  14.130  11.598   1.341
 3517SOL    HW112384  14.195  11.635   1.400
 3517SOL    HW212385  14.051  11.590   1.394
 3518SOL     OW12386   2.536   3.415  10.070
 3518SOL    HW112387   2.496   3.467  10.001
 3518SOL    HW212388   2.587   3.479  10.121
 3519SOL     OW12389   8.833  14.370  11.454
 3519SOL    HW112390   8.749  14.416  11.465
 3519SOL    HW212391   8.812  14.297  11.396
 3520SOL     OW12392   1.531  14.842  13.537
 3520SOL    HW112393   1.502  14.773  13.598
 3520SOL    HW212394   1.609   0.000  13.579
 3521SOL     OW12395   7.861  13.463   1.304
 3521SOL    HW112396   7.831  13.548   1.272
 3521SOL    HW212397   7.797  13.400   1.270
 3522SOL     OW12398   3.464   6.617  13.081
 3522SOL    HW112399   3.500   6.528  13.079
 3522SOL    HW212400   3.410   6.623  13.002
 3523SOL     OW12401   4.132  13.714  11.154
 3523SOL    HW112402   4.120  13.639  11.212
 3523SOL    HW212403   4.077  13.694  11.078
 3524SOL     OW12404  10.240   8.109   7.781
 3524SOL    HW112405  10.218   8.036   7.722
 3524SOL    HW212406  10.248   8.185   7.723
 3525SOL     OW12407   5.133   5.032   4.117
 3525SOL    HW112408   5.055   4.982   4.141
 3525SOL    HW212409   5.113   5.122   4.141
 3526SOL     OW12410  11.271  10.720   5.880
 3526SOL    HW112411  11.266  10.651   5.814
 3526SOL    HW212412  11.214  10.689   5.951
 3527SOL     OW12413   0.054  11.114   3.500
 3527SOL    HW112414  14.876  11.065   3.559
 3527SOL    HW212415   0.061  11.058   3.422
 3528SOL     OW12416   7.104   8.887  11.973
 3528SOL    HW112417   7.159   8.855  12.045
 3528SOL    HW212418   7.025   8.833  11.977
 3529SOL     OW12419   1.748   8.673   6.957
 3529SOL    HW112420   1.844   8.680   6.951
 3529SOL    HW212421   1.715   8.750   6.910
 3530SOL     OW12422   3.655   7.471   2.898
 3530SOL    HW112423   3.654   7.426   2.983
 3530SOL    HW212424   3.636   7.402   2.835
 3531SOL     OW12425   3.532   1.295   5.816
 3531SOL    HW112426   3.517   1.229   5.748
 3531SOL    HW212427   3.588   1.361   5.774
 3532SOL     OW12428  10.012   3.543  12.824
 3532SOL    HW112429  10.091   3.489  12.820
 3532SOL    HW212430  10.013   3.592  12.742
 3533SOL     OW12431  13.410  14.858   5.208
 3533SOL    HW112432  13.404  14.788   5.144
 3533SOL    HW212433  13.352  14.831   5.279
 3534SOL     OW12434   6.652   9.720   5.405
 3534SOL    HW112435   6.592   9.664   5.357
 3534SOL    HW212436   6.739   9.692   5.377
 3535SOL     OW12437   2.522  11.639   2.532
 3535SOL    HW112438   2.589  11.603   2.474
 3535SOL    HW212439   2.557  11.627   2.620
 3536SOL     OW12440   9.318   8.324   8.525
 3536SOL    HW112441   9.280   8.411   8.526
 3536SOL    HW212442   9.346   8.312   8.434
 3537SOL     OW12443   2.194   7.533   4.864
 3537SOL    HW112444   2.185   7.475   4.939
 3537SOL    HW212445   2.105   7.560   4.843
 3538SOL     OW12446   3.051   8.161  13.668
 3538SOL    HW112447   3.060   8.120  13.755
 3538SOL    HW212448   3.103   8.105  13.611
 3539SOL     OW12449  14.417   1.289  10.146
 3539SOL    HW112450  14.343   1.238  10.178
 3539SOL    HW212451  14.475   1.224  10.106
 3540SOL     OW12452   7.841  14.784   6.322
 3540SOL    HW112453   7.927  14.781   6.365
 3540SOL    HW212454   7.782  14.815   6.391
 3541SOL     OW12455  13.959  14.640  12.509
 3541SOL    HW112456  13.992  14.585  12.439
 3541SOL    HW212457  13.993  14.601  12.589
 3542SOL     OW12458  14.390  10.027   3.094
 3542SOL    HW112459  14.484  10.036   3.078
 3542SOL    HW212460  14.363  10.113   3.124
 3543SOL     OW12461  10.096   5.663   7.384
 3543SOL    HW112462  10.137   5.725   7.444
 3543SOL    HW212463  10.164   5.599   7.364
 3544SOL     OW12464   2.030   4.467  14.432
 3544SOL    HW112465   1.999   4.494  14.345
 3544SOL    HW212466   1.950   4.446  14.480
 3545SOL     OW12467   5.019  11.958  13.506
 3545SOL    HW112468   5.026  12.035  13.562
 3545SOL    HW212469   4.925  11.949  13.488
 3546SOL     OW12470   6.057  11.034  13.067
 3546SOL    HW112471   6.062  11.109  13.127
 3546SOL    HW212472   6.099  10.962  13.114
 3547SOL     OW12473   6.974   3.773   2.513
 3547SOL    HW112474   7.011   3.861   2.518
 3547SOL    HW212475   7.022   3.732   2.441
 3548SOL     OW12476  13.203   8.511   2.524
 3548SOL    HW112477  13.212   8.539   2.433
 3548SOL    HW212478  13.127   8.452   2.523
 3549SOL     OW12479   9.370  11.146   0.979
 3549SOL    HW112480   9.453  11.125   1.022
 3549SOL    HW212481   9.308  11.083   1.015
 3550SOL     OW12482   5.254   6.078  10.932
 3550SOL    HW112483   5.165   6.115  10.927
 3550SOL    HW212484   5.296   6.106  10.851
 3551SOL     OW12485   7.133   1.140   1.471
 3551SOL    HW112486   7.112   1.066   1.527
 3551SOL    HW212487   7.066   1.138   1.402
 3552SOL     OW12488   4.827   4.567   4.906
 3552SOL    HW112489   4.876   4.637   4.949
 3552SOL    HW212490   4.849   4.576   4.813
 3553SOL     OW12491   6.359   0.101   4.292
 3553SOL    HW112492   6.271   0.129   4.317
 3553SOL    HW212493   6.413   0.178   4.308
 3554SOL     OW12494   7.992  14.643  12.433
 3554SOL    HW112495   7.995  14.560  12.480
 3554SOL    HW212496   8.067  14.641  12.374
 3555SOL     OW12497   6.311  14.389   9.856
 3555SOL    HW112498   6.366  14.312   9.866
 3555SOL    HW212499   6.277  14.406   9.944
 3556SOL     OW12500   3.419  13.860  13.231
 3556SOL    HW112501   3.506  13.890  13.205
 3556SOL    HW212502   3.423  13.765  13.222
 3557SOL     OW12503  11.968  13.872  12.910
 3557SOL    HW112504  11.901  13.811  12.940
 3557SOL    HW212505  12.032  13.875  12.981
 3558SOL     OW12506   9.634   2.697  13.093
 3558SOL    HW112507   9.558   2.670  13.144
 3558SOL    HW212508   9.669   2.616  13.055
 3559SOL     OW12509  11.085   9.686  11.303
 3559SOL    HW112510  11.054   9.690  11.212
 3559SOL    HW212511  11.013   9.722  11.355
 3560SOL     OW12512  14.074  10.939  14.328
 3560SOL    HW112513  14.031  10.855  14.346
 3560SOL    HW212514  14.037  10.966  14.243
 3561SOL     OW12515  11.404   9.144   4.859
 3561SOL    HW112516  11.423   9.090   4.782
 3561SOL    HW212517  11.385   9.231   4.823
 3562SOL     OW12518  10.838  10.347  13.054
 3562SOL    HW112519  10.898  10.273  13.059
 3562SOL    HW212520  10.777  10.324  12.984
 3563SOL     OW12521  13.652   6.425   4.924
 3563SOL    HW112522  13.688   6.507   4.889
 3563SOL    HW212523  13.557   6.440   4.928
 3564SOL     OW12524  11.148  10.825   7.079
 3564SOL    HW112525  11.155  10.736   7.045
 3564SOL    HW212526  11.132  10.814   7.172
 3565SOL     OW12527   1.155   6.073   9.345
 3565SOL    HW112528   1.124   5.993   9.303
 3565SOL    HW212529   1.103   6.143   9.304
 3566SOL     OW12530   1.470  10.043   7.877
 3566SOL    HW112531   1.462  10.124   7.927
 3566SOL    HW212532   1.504   9.979   7.939
 3567SOL     OW12533   1.610  13.798   0.636
 3567SOL    HW112534   1.657  13.715   0.623
 3567SOL    HW212535   1.536  13.775   0.692
 3568SOL     OW12536   6.800  14.189   9.647
 3568SOL    HW112537   6.888  14.226   9.637
 3568SOL    HW212538   6.785  14.188   9.741
 3569SOL     OW12539   5.994   8.255   3.790
 3569SOL    HW112540   5.924   8.190   3.785
 3569SOL    HW212541   5.950   8.335   3.820
 3570SOL     OW12542  12.413  11.972   4.290
 3570SOL    HW112543  12.507  11.982   4.304
 3570SOL    HW212544  12.377  11.960   4.377
 3571SOL     OW12545   1.696  10.422   1.551
 3571SOL    HW112546   1.735  10.451   1.469
 3571SOL    HW212547   1.673  10.504   1.597
 3572SOL     OW12548   0.233  11.603  13.763
 3572SOL    HW112549   0.324  11.572  13.769
 3572SOL    HW212550   0.183  11.538  13.812
 3573SOL     OW12551   2.753  11.947  11.862
 3573SOL    HW112552   2.805  11.971  11.785
 3573SOL    HW212553   2.798  11.871  11.899
 3574SOL     OW12554   7.998  13.968   0.854
 3574SOL    HW112555   8.078  14.011   0.885
 3574SOL    HW212556   8.001  13.882   0.897
 3575SOL     OW12557  14.615   5.841   5.938
 3575SOL    HW112558  14.660   5.787   6.003
 3575SOL    HW212559  14.593   5.781   5.867
 3576SOL     OW12560   9.280   3.487   0.864
 3576SOL    HW112561   9.247   3.575   0.848
 3576SOL    HW212562   9.202   3.431   0.861
 3577SOL     OW12563   6.483  13.329  10.924
 3577SOL    HW112564   6.494  13.280  11.005
 3577SOL    HW212565   6.430  13.405  10.948
 3578SOL     OW12566   5.607   3.077   2.228
 3578SOL    HW112567   5.560   3.109   2.151
 3578SOL    HW212568   5.684   3.133   2.234
 3579SOL     OW12569   8.334   5.678  14.602
 3579SOL    HW112570   8.347   5.673  14.507
 3579SOL    HW212571   8.302   5.767  14.616
 3580SOL     OW12572  10.455   9.234  10.178
 3580SOL    HW112573  10.440   9.307  10.238
 3580SOL    HW212574  10.546   9.245  10.149
 3581SOL     OW12575  12.064   2.022  11.543
 3581SOL    HW112576  12.087   1.986  11.628
 3581SOL    HW212577  12.107   2.107  11.540
 3582SOL     OW12578   6.296  13.960   9.219
 3582SOL    HW112579   6.260  14.046   9.199
 3582SOL    HW212580   6.280  13.908   9.140
 3583SOL     OW12581   4.621   0.685   9.431
 3583SOL    HW112582   4.568   0.623   9.381
 3583SOL    HW212583   4.671   0.630   9.491
 3584SOL     OW12584   7.316   3.896   7.525
 3584SOL    HW112585   7.346   3.946   7.602
 3584SOL    HW212586   7.363   3.812   7.532
 3585SOL     OW12587   8.842   2.647  12.170
 3585SOL    HW112588   8.909   2.620  12.232
 3585SOL    HW212589   8.878   2.724  12.127
 3586SOL     OW12590   8.606   3.763  10.814
 3586SOL    HW112591   8.597   3.846  10.767
 3586SOL    HW212592   8.597   3.696  10.747
 3587SOL     OW12593  12.139   9.516   2.872
 3587SOL    HW112594  12.089   9.488   2.949
 3587SOL    HW212595  12.209   9.570   2.908
 3588SOL     OW12596   6.127   6.711   2.006
 3588SOL    HW112597   6.222   6.704   2.002
 3588SOL    HW212598   6.111   6.791   2.056
 3589SOL     OW12599  11.328   3.953   3.417
 3589SOL    HW112600  11.313   3.869   3.374
 3589SOL    HW212601  11.381   4.003   3.356
 3590SOL     OW12602  12.175   1.806  12.056
 3590SOL    HW112603  12.110   1.759  12.108
 3590SOL    HW212604  12.202   1.879  12.112
 3591SOL     OW12605   9.155  10.015   4.142
 3591SOL    HW112606   9.171   9.967   4.223
 3591SOL    HW212607   9.066  10.048   4.150
 3592SOL     OW12608   1.043   3.730   4.428
 3592SOL    HW112609   0.975   3.741   4.495
 3592SOL    HW212610   1.002   3.761   4.347
 3593SOL     OW12611  10.823   6.309   0.917
 3593SOL    HW112612  10.813   6.398   0.884
 3593SOL    HW212613  10.740   6.291   0.962
 3594SOL     OW12614  11.560   6.937   7.825
 3594SOL    HW112615  11.570   7.003   7.894
 3594SOL    HW212616  11.542   6.855   7.871
 3595SOL     OW12617   9.539   8.927   5.730
 3595SOL    HW112618   9.534   8.856   5.794
 3595SOL    HW212619   9.448   8.954   5.717
 3596SOL     OW12620  11.213   7.421   4.965
 3596SOL    HW112621  11.271   7.417   4.889
 3596SOL    HW212622  11.199   7.514   4.980
 3597SOL     OW12623   7.498   8.917  10.935
 3597SOL    HW112624   7.566   8.980  10.911
 3597SOL    HW212625   7.502   8.851  10.866
 3598SOL     OW12626  12.326   5.660  10.262
 3598SOL    HW112627  12.256   5.687  10.322
 3598SOL    HW212628  12.323   5.723  10.191
 3599SOL     OW12629   4.794   2.746  12.892
 3599SOL    HW112630   4.784   2.770  12.800
 3599SOL    HW212631   4.773   2.652  12.894
 3600SOL     OW12632   3.281  14.853   0.822
 3600SOL    HW112633   3.206   0.033   0.834
 3600SOL    HW212634   3.266  14.782   0.883
 3601SOL     OW12635   4.307  12.540  14.869
 3601SOL    HW112636   4.234  12.602  14.862
 3601SOL    HW212637   4.307  12.513   0.082
 3602SOL     OW12638   5.177   0.252   8.527
 3602SOL    HW112639   5.127   0.174   8.553
 3602SOL    HW212640   5.263   0.240   8.568
 3603SOL     OW12641   1.177  12.520  11.534
 3603SOL    HW112642   1.161  12.601  11.485
 3603SOL    HW212643   1.167  12.545  11.626
 3604SOL     OW12644   2.864   6.198   3.928
 3604SOL    HW112645   2.831   6.110   3.911
 3604SOL    HW212646   2.799   6.256   3.889
 3605SOL     OW12647   5.199   9.966  12.365
 3605SOL    HW112648   5.207   9.960  12.270
 3605SOL    HW212649   5.114  10.009  12.380
 3606SOL     OW12650   9.231   5.530   7.569
 3606SOL    HW112651   9.154   5.538   7.514
 3606SOL    HW212652   9.283   5.461   7.527
 3607SOL     OW12653   8.515   6.236  13.643
 3607SOL    HW112654   8.552   6.189  13.568
 3607SOL    HW212655   8.589   6.285  13.679
 3608SOL     OW12656   9.011   4.238   5.968
 3608SOL    HW112657   9.067   4.206   6.039
 3608SOL    HW212658   9.072   4.262   5.898
 3609SOL     OW12659   3.080  12.827   8.326
 3609SOL    HW112660   3.043  12.847   8.412
 3609SOL    HW212661   3.027  12.753   8.295
 3610SOL     OW12662  14.656   1.636   2.709
 3610SOL    HW112663  14.708   1.660   2.785
 3610SOL    HW212664  14.609   1.717   2.685
 3611SOL     OW12665   4.279   3.563   2.191
 3611SOL    HW112666   4.344   3.536   2.127
 3611SOL    HW212667   4.329   3.601   2.263
 3612SOL     OW12668   4.526   4.169   7.134
 3612SOL    HW112669   4.615   4.197   7.153
 3612SOL    HW212670   4.518   4.083   7.175
 3613SOL     OW12671   6.787  13.827  12.382
 3613SOL    HW112672   6.745  13.874  12.310
 3613SOL    HW212673   6.857  13.887  12.410
 3614SOL     OW12674  11.933  14.691  14.695
 3614SOL    HW112675  11.869  14.751  14.657
 3614SOL    HW212676  12.018  14.734  14.682
 3615SOL     OW12677   0.137   5.403   1.063
 3615SOL    HW112678   0.200   5.470   1.091
 3615SOL    HW212679   0.054   5.429   1.102
 3616SOL     OW12680   6.797   7.334  12.589
 3616SOL    HW112681   6.777   7.259  12.532
 3616SOL    HW212682   6.859   7.299  12.653
 3617SOL     OW12683   1.271   1.560  10.711
 3617SOL    HW112684   1.287   1.468  10.689
 3617SOL    HW212685   1.264   1.561  10.807
 3618SOL     OW12686  13.937   2.894   5.287
 3618SOL    HW112687  14.033   2.894   5.285
 3618SOL    HW212688  13.915   2.932   5.372
 3619SOL     OW12689   0.511  13.884  14.571
 3619SOL    HW112690   0.588  13.831  14.551
 3619SOL    HW212691   0.446  13.856  14.507
 3620SOL     OW12692   3.988   3.802   6.398
 3620SOL    HW112693   3.957   3.889   6.372
 3620SOL    HW212694   3.929   3.776   6.469
 3621SOL     OW12695  14.660   6.005   4.388
 3621SOL    HW112696  14.726   5.936   4.390
 3621SOL    HW212697  14.613   5.996   4.470
 3622SOL     OW12698   7.902  13.586   9.090
 3622SOL    HW112699   7.860  13.545   9.165
 3622SOL    HW212700   7.989  13.547   9.086
 3623SOL     OW12701  11.510   4.094   1.488
 3623SOL    HW112702  11.585   4.054   1.533
 3623SOL    HW212703  11.486   4.031   1.421
 3624SOL     OW12704  10.413   1.191   7.920
 3624SOL    HW112705  10.345   1.216   7.983
 3624SOL    HW212706  10.365   1.157   7.845
 3625SOL     OW12707   7.758   1.783  13.770
 3625SOL    HW112708   7.807   1.795  13.851
 3625SOL    HW212709   7.691   1.719  13.791
 3626SOL     OW12710  10.658   5.656   5.991
 3626SOL    HW112711  10.572   5.615   6.005
 3626SOL    HW212712  10.682   5.631   5.902
 3627SOL     OW12713  14.737   5.273  12.139
 3627SOL    HW112714  14.831   5.255  12.146
 3627SOL    HW212715  14.713   5.308  12.225
 3628SOL     OW12716  10.733   7.550  11.638
 3628SOL    HW112717  10.775   7.501  11.709
 3628SOL    HW212718  10.773   7.515  11.558
 3629SOL     OW12719   5.539   2.352   4.528
 3629SOL    HW112720   5.547   2.425   4.590
 3629SOL    HW212721   5.446   2.354   4.502
 3630SOL     OW12722   0.462  11.671  12.770
 3630SOL    HW112723   0.395  11.739  12.775
 3630SOL    HW212724   0.420  11.599  12.723
 3631SOL     OW12725   7.072   2.749   3.134
 3631SOL    HW112726   7.029   2.677   3.088
 3631SOL    HW212727   7.101   2.808   3.065
 3632SOL     OW12728   0.995   4.500   3.089
 3632SOL    HW112729   0.926   4.567   3.092
 3632SOL    HW212730   1.032   4.508   3.001
 3633SOL     OW12731   4.038   4.306   8.721
 3633SOL    HW112732   4.099   4.249   8.768
 3633SOL    HW212733   4.062   4.294   8.629
 3634SOL     OW12734  11.589  13.370  10.554
 3634SOL    HW112735  11.511  13.369  10.499
 3634SOL    HW212736  11.556  13.357  10.643
 3635SOL     OW12737   1.430   3.036  13.522
 3635SOL    HW112738   1.402   3.012  13.434
 3635SOL    HW212739   1.348   3.043  13.572
 3636SOL     OW12740   0.022   9.173  14.678
 3636SOL    HW112741  14.825   9.115  14.675
 3636SOL    HW212742   0.097   9.115  14.669
 3637SOL     OW12743  12.447   0.280   1.591
 3637SOL    HW112744  12.467   0.361   1.544
 3637SOL    HW212745  12.414   0.221   1.523
 3638SOL     OW12746   4.189   2.402   5.506
 3638SOL    HW112747   4.228   2.331   5.456
 3638SOL    HW212748   4.100   2.373   5.525
 3639SOL     OW12749   1.377  11.936   0.762
 3639SOL    HW112750   1.387  11.913   0.855
 3639SOL    HW212751   1.441  11.881   0.717
 3640SOL     OW12752   5.450   2.654  13.168
 3640SOL    HW112753   5.442   2.564  13.134
 3640SOL    HW212754   5.416   2.649  13.257
 3641SOL     OW12755   0.069   7.109   1.623
 3641SOL    HW112756   0.077   7.036   1.685
 3641SOL    HW212757   0.018   7.073   1.550
 3642SOL     OW12758   5.688   3.100   7.070
 3642SOL    HW112759   5.697   3.143   7.155
 3642SOL    HW212760   5.755   3.140   7.015
 3643SOL     OW12761   3.950  12.949   3.341
 3643SOL    HW112762   3.965  12.992   3.425
 3643SOL    HW212763   3.861  12.915   3.347
 3644SOL     OW12764   3.306   7.074   8.960
 3644SOL    HW112765   3.321   7.041   8.872
 3644SOL    HW212766   3.239   7.142   8.949
 3645SOL     OW12767  14.743   5.789   1.515
 3645SOL    HW112768  14.811   5.839   1.469
 3645SOL    HW212769  14.703   5.852   1.575
 3646SOL     OW12770  10.192   6.940   3.605
 3646SOL    HW112771  10.265   6.879   3.592
 3646SOL    HW212772  10.153   6.950   3.518
 3647SOL     OW12773   0.064  10.719  10.803
 3647SOL    HW112774   0.081  10.635  10.845
 3647SOL    HW212775   0.117  10.782  10.852
 3648SOL     OW12776   5.719   5.977  11.137
 3648SOL    HW112777   5.643   6.033  11.121
 3648SOL    HW212778   5.696   5.927  11.215
 3649SOL     OW12779   0.887   5.159   2.511
 3649SOL    HW112780   0.850   5.122   2.591
 3649SOL    HW212781   0.821   5.221   2.480
 3650SOL     OW12782  13.440  14.788   9.724
 3650SOL    HW112783  13.491  14.709   9.708
 3650SOL    HW212784  13.392  14.770   9.805
 3651SOL     OW12785   5.894   2.925  14.755
 3651SOL    HW112786   5.985   2.938  14.782
 3651SOL    HW212787   5.876   2.833  14.776
 3652SOL     OW12788  14.196   5.579  11.006
 3652SOL    HW112789  14.154   5.494  10.996
 3652SOL    HW212790  14.133   5.631  11.055
 3653SOL     OW12791   4.847  14.030   1.425
 3653SOL    HW112792   4.880  14.066   1.343
 3653SOL    HW212793   4.817  13.942   1.402
 3654SOL     OW12794  11.280   8.864  13.439
 3654SOL    HW112795  11.289   8.779  13.397
 3654SOL    HW212796  11.230   8.846  13.518
 3655SOL     OW12797  11.105  11.298   4.952
 3655SOL    HW112798  11.131  11.342   4.871
 3655SOL    HW212799  11.023  11.340   4.977
 3656SOL     OW12800  14.577   4.878   4.635
 3656SOL    HW112801  14.504   4.922   4.677
 3656SOL    HW212802  14.634   4.851   4.707
 3657SOL     OW12803   6.892  12.823  12.056
 3657SOL    HW112804   6.865  12.806  11.966
 3657SOL    HW212805   6.927  12.912  12.054
 3658SOL     OW12806   6.797   6.836   4.764
 3658SOL    HW112807   6.769   6.810   4.852
 3658SOL    HW212808   6.872   6.781   4.745
 3659SOL     OW12809  14.268  14.549   5.539
 3659SOL    HW112810  14.312  14.612   5.482
 3659SOL    HW212811  14.267  14.591   5.625
 3660SOL     OW12812   6.842  10.127   4.342
 3660SOL    HW112813   6.873  10.179   4.267
 3660SOL    HW212814   6.891  10.045   4.335
 3661SOL     OW12815  10.850  13.538  13.154
 3661SOL    HW112816  10.892  13.600  13.095
 3661SOL    HW212817  10.873  13.568  13.242
 3662SOL     OW12818  13.854   2.046   4.399
 3662SOL    HW112819  13.944   2.071   4.375
 3662SOL    HW212820  13.803   2.126   4.388
 3663SOL     OW12821   8.608   0.475   4.853
 3663SOL    HW112822   8.684   0.528   4.830
 3663SOL    HW212823   8.642   0.407   4.911
 3664SOL     OW12824   4.082   9.170  13.284
 3664SOL    HW112825   4.022   9.233  13.244
 3664SOL    HW212826   4.148   9.224  13.327
 3665SOL     OW12827   0.567  13.112   3.373
 3665SOL    HW112828   0.623  13.119   3.295
 3665SOL    HW212829   0.512  13.036   3.355
 3666SOL     OW12830   5.444   4.103   8.760
 3666SOL    HW112831   5.482   4.023   8.797
 3666SOL    HW212832   5.452   4.092   8.666
 3667SOL     OW12833  10.317   1.076  12.423
 3667SOL    HW112834  10.388   1.099  12.363
 3667SOL    HW212835  10.332   1.130  12.500
 3668SOL     OW12836  14.311   2.177  10.799
 3668SOL    HW112837  14.266   2.226  10.731
 3668SOL    HW212838  14.246   2.115  10.832
 3669SOL     OW12839  12.728  11.023   1.930
 3669SOL    HW112840  12.676  11.046   2.008
 3669SOL    HW212841  12.663  10.999   1.864
 3670SOL     OW12842   2.918   4.937   3.854
 3670SOL    HW112843   2.903   4.846   3.877
 3670SOL    HW212844   2.836   4.966   3.813
 3671SOL     OW12845  14.384  10.470   6.799
 3671SOL    HW112846  14.367  10.499   6.889
 3671SOL    HW212847  14.352  10.380   6.796
 3672SOL     OW12848   0.319  12.990   1.583
 3672SOL    HW112849   0.399  12.937   1.586
 3672SOL    HW212850   0.331  13.055   1.653
 3673SOL     OW12851   4.401  13.272   1.978
 3673SOL    HW112852   4.357  13.212   1.918
 3673SOL    HW212853   4.364  13.252   2.064
 3674SOL     OW12854   6.471   6.429   3.015
 3674SOL    HW112855   6.505   6.463   3.099
 3674SOL    HW212856   6.483   6.334   3.021
 3675SOL     OW12857   2.531  10.948   6.634
 3675SOL    HW112858   2.604  10.928   6.575
 3675SOL    HW212859   2.478  11.012   6.586
 3676SOL     OW12860   9.067   5.714  11.476
 3676SOL    HW112861   9.143   5.742  11.527
 3676SOL    HW212862   9.034   5.637  11.522
 3677SOL     OW12863  14.380   4.802   0.877
 3677SOL    HW112864  14.344   4.736   0.937
 3677SOL    HW212865  14.434   4.752   0.817
 3678SOL     OW12866   2.049   4.093   5.135
 3678SOL    HW112867   2.117   4.151   5.100
 3678SOL    HW212868   1.974   4.106   5.077
 3679SOL     OW12869   5.141  10.348  13.151
 3679SOL    HW112870   5.194  10.291  13.094
 3679SOL    HW212871   5.051  10.324  13.130
 3680SOL     OW12872   7.887  10.142   4.615
 3680SOL    HW112873   7.953  10.210   4.628
 3680SOL    HW212874   7.837  10.141   4.696
 3681SOL     OW12875   9.804  10.389   8.770
 3681SOL    HW112876   9.716  10.426   8.781
 3681SOL    HW212877   9.799  10.303   8.811
 3682SOL     OW12878  14.465   9.672   9.936
 3682SOL    HW112879  14.406   9.655  10.010
 3682SOL    HW212880  14.538   9.720   9.975
 3683SOL     OW12881   2.887   5.592   1.544
 3683SOL    HW112882   2.917   5.527   1.609
 3683SOL    HW212883   2.827   5.543   1.488
 3684SOL     OW12884   6.709   2.693  12.847
 3684SOL    HW112885   6.672   2.721  12.763
 3684SOL    HW212886   6.714   2.598  12.840
 3685SOL     OW12887  13.080   6.402   7.149
 3685SOL    HW112888  13.071   6.385   7.242
 3685SOL    HW212889  13.165   6.446   7.140
 3686SOL     OW12890   2.413  13.142  10.398
 3686SOL    HW112891   2.403  13.080  10.470
 3686SOL    HW212892   2.326  13.150  10.361
 3687SOL     OW12893   6.756   8.578  11.452
 3687SOL    HW112894   6.750   8.486  11.479
 3687SOL    HW212895   6.709   8.582  11.369
 3688SOL     OW12896   0.533   3.765   5.751
 3688SOL    HW112897   0.553   3.858   5.745
 3688SOL    HW212898   0.554   3.742   5.842
 3689SOL     OW12899   2.980   5.984   5.115
 3689SOL    HW112900   2.964   5.890   5.108
 3689SOL    HW212901   2.975   6.016   5.025
 3690SOL     OW12902  11.298   3.655  13.774
 3690SOL    HW112903  11.247   3.735  13.780
 3690SOL    HW212904  11.255   3.604  13.705
 3691SOL     OW12905   6.295  12.022  10.323
 3691SOL    HW112906   6.374  12.075  10.333
 3691SOL    HW212907   6.248  12.063  10.251
 3692SOL     OW12908   8.059   9.218   8.279
 3692SOL    HW112909   8.042   9.130   8.313
 3692SOL    HW212910   8.085   9.269   8.355
 3693SOL     OW12911   8.663  13.476  13.547
 3693SOL    HW112912   8.634  13.453  13.635
 3693SOL    HW212913   8.589  13.522  13.508
 3694SOL     OW12914   7.160   7.600  13.248
 3694SOL    HW112915   7.107   7.670  13.211
 3694SOL    HW212916   7.215   7.643  13.313
 3695SOL     OW12917   3.934   4.288  11.256
 3695SOL    HW112918   3.880   4.281  11.334
 3695SOL    HW212919   3.956   4.381  11.250
 3696SOL     OW12920  11.972   4.782   3.163
 3696SOL    HW112921  11.904   4.814   3.104
 3696SOL    HW212922  11.950   4.691   3.178
 3697SOL     OW12923   7.874   3.369   6.746
 3697SOL    HW112924   7.886   3.314   6.669
 3697SOL    HW212925   7.792   3.416   6.730
 3698SOL     OW12926   9.456  10.135   7.331
 3698SOL    HW112927   9.370  10.159   7.297
 3698SOL    HW212928   9.477  10.204   7.394
 3699SOL     OW12929   2.465   0.643  11.203
 3699SOL    HW112930   2.392   0.629  11.263
 3699SOL    HW212931   2.456   0.734  11.174
 3700SOL     OW12932  14.746   6.501   3.594
 3700SOL    HW112933  14.703   6.530   3.675
 3700SOL    HW212934  14.727   6.571   3.531
 3701SOL     OW12935   5.061  12.183   9.491
 3701SOL    HW112936   5.040  12.248   9.424
 3701SOL    HW212937   5.113  12.117   9.445
 3702SOL     OW12938  10.715  14.129   7.337
 3702SOL    HW112939  10.766  14.070   7.281
 3702SOL    HW212940  10.632  14.082   7.350
 3703SOL     OW12941   0.387   6.771   8.396
 3703SOL    HW112942   0.337   6.800   8.319
 3703SOL    HW212943   0.332   6.703   8.435
 3704SOL     OW12944  12.862   8.523  13.830
 3704SOL    HW112945  12.795   8.522  13.898
 3704SOL    HW212946  12.931   8.579  13.865
 3705SOL     OW12947   3.528  11.286   2.681
 3705SOL    HW112948   3.593  11.288   2.751
 3705SOL    HW212949   3.443  11.291   2.726
 3706SOL     OW12950   5.820  11.321   1.366
 3706SOL    HW112951   5.784  11.242   1.406
 3706SOL    HW212952   5.893  11.289   1.313
 3707SOL     OW12953   9.577  11.070   5.462
 3707SOL    HW112954   9.628  11.009   5.516
 3707SOL    HW212955   9.487  11.038   5.469
 3708SOL     OW12956   3.379   0.673   2.238
 3708SOL    HW112957   3.461   0.678   2.190
 3708SOL    HW212958   3.404   0.646   2.327
 3709SOL     OW12959  11.438   3.579   4.975
 3709SOL    HW112960  11.444   3.585   4.879
 3709SOL    HW212961  11.347   3.600   4.994
 3710SOL     OW12962   9.135   9.310  10.350
 3710SOL    HW112963   9.231   9.316  10.350
 3710SOL    HW212964   9.112   9.297  10.258
 3711SOL     OW12965   7.377  11.531   5.728
 3711SOL    HW112966   7.289  11.521   5.690
 3711SOL    HW212967   7.400  11.442   5.756
 3712SOL     OW12968   1.049  11.985   5.129
 3712SOL    HW112969   0.968  12.027   5.097
 3712SOL    HW212970   1.022  11.940   5.208
 3713SOL     OW12971  14.792   2.053  14.169
 3713SOL    HW112972  14.864   2.045  14.232
 3713SOL    HW212973  14.733   1.981  14.190
 3714SOL     OW12974   2.458   0.420   3.111
 3714SOL    HW112975   2.396   0.414   3.038
 3714SOL    HW212976   2.446   0.339   3.159
 3715SOL     OW12977   6.229   4.505  14.247
 3715SOL    HW112978   6.210   4.593  14.215
 3715SOL    HW212979   6.156   4.484  14.305
 3716SOL     OW12980  10.670   8.388   8.632
 3716SOL    HW112981  10.603   8.345   8.579
 3716SOL    HW212982  10.753   8.362   8.593
 3717SOL     OW12983   5.907  13.670  13.848
 3717SOL    HW112984   5.862  13.737  13.797
 3717SOL    HW212985   5.958  13.621  13.783
 3718SOL     OW12986   4.609   6.772   3.870
 3718SOL    HW112987   4.691   6.812   3.900
 3718SOL    HW212988   4.556   6.764   3.949
 3719SOL     OW12989   5.714  11.703  13.743
 3719SOL    HW112990   5.712  11.696  13.648
 3719SOL    HW212991   5.680  11.791  13.762
 3720SOL     OW12992  10.030  10.040  11.199
 3720SOL    HW112993  10.083  10.061  11.122
 3720SOL    HW212994  10.094  10.026  11.269
 3721SOL     OW12995  10.812   7.029   0.877
 3721SOL    HW112996  10.723   7.002   0.899
 3721SOL    HW212997  10.848   6.955   0.828
 3722SOL     OW12998  14.118  12.019  13.861
 3722SOL    HW112999  14.131  11.932  13.822
 3722SOL    HW213000  14.030  12.016  13.897
 3723SOL     OW13001  13.044   8.777   1.394
 3723SOL    HW113002  13.086   8.783   1.480
 3723SOL    HW213003  12.951   8.790   1.412
 3724SOL     OW13004  10.382   6.471   0.264
 3724SOL    HW113005  10.429   6.548   0.233
 3724SOL    HW213006  10.336   6.500   0.343
 3725SOL     OW13007   5.912   2.861  14.468
 3725SOL    HW113008   5.922   2.867  14.563
 3725SOL    HW213009   5.874   2.774  14.454
 3726SOL     OW13010   4.569   9.506  12.496
 3726SOL    HW113011   4.527   9.437  12.547
 3726SOL    HW213012   4.579   9.467  12.408
 3727SOL     OW13013   6.976   5.643  10.143
 3727SOL    HW113014   7.053   5.699  10.138
 3727SOL    HW213015   6.938   5.663  10.229
 3728SOL     OW13016  11.346  11.043   1.202
 3728SOL    HW113017  11.334  11.086   1.286
 3728SOL    HW213018  11.345  11.115   1.138
 3729SOL     OW13019   3.103  10.023  13.458
 3729SOL    HW113020   3.112  10.021  13.363
 3729SOL    HW213021   3.068  10.109  13.478
 3730SOL     OW13022  12.346   4.458   8.023
 3730SOL    HW113023  12.344   4.367   7.994
 3730SOL    HW213024  12.334   4.509   7.944
 3731SOL     OW13025   4.945   8.874   5.470
 3731SOL    HW113026   5.024   8.822   5.486
 3731SOL    HW213027   4.949   8.944   5.535
 3732SOL     OW13028   3.131  14.823   3.369
 3732SOL    HW113029   3.152  14.749   3.313
 3732SOL    HW213030   3.043  14.849   3.342
 3733SOL     OW13031   1.071   7.882   7.500
 3733SOL    HW113032   1.005   7.817   7.477
 3733SOL    HW213033   1.021   7.962   7.517
 3734SOL     OW13034   4.322   7.249  13.863
 3734SOL    HW113035   4.392   7.314  13.850
 3734SOL    HW213036   4.269   7.256  13.784
 3735SOL     OW13037  13.627   6.039  13.489
 3735SOL    HW113038  13.694   6.050  13.422
 3735SOL    HW213039  13.555   6.097  13.461
 3736SOL     OW13040   4.687   3.271   9.041
 3736SOL    HW113041   4.648   3.183   9.046
 3736SOL    HW213042   4.650   3.308   8.961
 3737SOL     OW13043  14.167   3.986   3.777
 3737SOL    HW113044  14.122   4.058   3.821
 3737SOL    HW213045  14.226   3.951   3.843
 3738SOL     OW13046  13.315   5.669  10.735
 3738SOL    HW113047  13.221   5.681  10.719
 3738SOL    HW213048  13.355   5.677  10.649
 3739SOL     OW13049  12.655   0.038   6.897
 3739SOL    HW113050  12.656   0.115   6.841
 3739SOL    HW213051  12.589   0.058   6.964
 3740SOL     OW13052   4.692  13.761   2.136
 3740SOL    HW113053   4.753  13.742   2.207
 3740SOL    HW213054   4.638  13.833   2.169
 3741SOL     OW13055  11.163   0.832   3.761
 3741SOL    HW113056  11.080   0.798   3.792
 3741SOL    HW213057  11.229   0.787   3.814
 3742SOL     OW13058  10.345   2.209  12.340
 3742SOL    HW113059  10.287   2.135  12.322
 3742SOL    HW213060  10.433   2.172  12.330
 3743SOL     OW13061   3.658  14.229   5.192
 3743SOL    HW113062   3.661  14.233   5.288
 3743SOL    HW213063   3.672  14.319   5.164
 3744SOL     OW13064   3.971   0.770   2.626
 3744SOL    HW113065   4.017   0.705   2.574
 3744SOL    HW213066   4.013   0.766   2.712
 3745SOL     OW13067   0.868   5.776  12.798
 3745SOL    HW113068   0.891   5.866  12.776
 3745SOL    HW213069   0.890   5.767  12.890
 3746SOL     OW13070   4.574   5.336   8.781
 3746SOL    HW113071   4.628   5.415   8.778
 3746SOL    HW213072   4.634   5.265   8.760
 3747SOL     OW13073   5.110   0.490   5.212
 3747SOL    HW113074   5.193   0.535   5.196
 3747SOL    HW213075   5.135   0.401   5.234
 3748SOL     OW13076   6.654   0.541   7.262
 3748SOL    HW113077   6.592   0.553   7.190
 3748SOL    HW213078   6.629   0.457   7.301
 3749SOL     OW13079   8.378   8.279   7.115
 3749SOL    HW113080   8.331   8.235   7.186
 3749SOL    HW213081   8.317   8.345   7.083
 3750SOL     OW13082   4.484   0.906   6.085
 3750SOL    HW113083   4.526   0.903   6.172
 3750SOL    HW213084   4.395   0.935   6.103
 3751SOL     OW13085   2.085   9.845   0.361
 3751SOL    HW113086   2.058   9.818   0.448
 3751SOL    HW213087   2.156   9.908   0.376
 3752SOL     OW13088   8.277   4.281   8.864
 3752SOL    HW113089   8.352   4.235   8.827
 3752SOL    HW213090   8.213   4.284   8.793
 3753SOL     OW13091   3.773  13.429  11.518
 3753SOL    HW113092   3.843  13.373  11.552
 3753SOL    HW213093   3.814  13.514  11.504
 3754SOL     OW13094   8.909   5.432   5.726
 3754SOL    HW113095   8.997   5.395   5.732
 3754SOL    HW213096   8.893   5.473   5.811
 3755SOL     OW13097  11.858   3.536  10.940
 3755SOL    HW113098  11.883   3.495  10.857
 3755SOL    HW213099  11.919   3.501  11.004
 3756SOL     OW13100   1.556   8.200   2.159
 3756SOL    HW113101   1.581   8.285   2.123
 3756SOL    HW213102   1.534   8.218   2.251
 3757SOL     OW13103  13.506   5.522   2.451
 3757SOL    HW113104  13.495   5.514   2.357
 3757SOL    HW213105  13.428   5.569   2.481
 3758SOL     OW13106  11.007   3.206  11.691
 3758SOL    HW113107  10.993   3.215  11.596
 3758SOL    HW213108  10.993   3.293  11.726
 3759SOL     OW13109   9.808   1.113   4.984
 3759SOL    HW113110   9.763   1.067   5.055
 3759SOL    HW213111   9.860   1.045   4.941
 3760SOL     OW13112   2.110   4.369   0.638
 3760SOL    HW113113   2.118   4.302   0.571
 3760SOL    HW213114   2.097   4.451   0.590
 3761SOL     OW13115   3.653  13.726  10.491
 3761SOL    HW113116   3.634  13.686  10.576
 3761SOL    HW213117   3.665  13.653  10.431
 3762SOL     OW13118   3.321   9.623  14.526
 3762SOL    HW113119   3.414   9.633  14.507
 3762SOL    HW213120   3.318   9.592  14.616
 3763SOL     OW13121   5.256   7.001   5.328
 3763SOL    HW113122   5.347   7.008   5.301
 3763SOL    HW213123   5.253   6.921   5.381
 3764SOL     OW13124   6.868  11.967   8.634
 3764SOL    HW113125   6.873  11.872   8.635
 3764SOL    HW213126   6.845  11.989   8.544
 3765SOL     OW13127   2.324  13.166  11.269
 3765SOL    HW113128   2.370  13.119  11.200
 3765SOL    HW213129   2.366  13.138  11.350
 3766SOL     OW13130   5.277   7.582   9.423
 3766SOL    HW113131   5.244   7.599   9.511
 3766SOL    HW213132   5.207   7.534   9.380
 3767SOL     OW13133   7.548  10.740   1.945
 3767SOL    HW113134   7.487  10.770   1.878
 3767SOL    HW213135   7.550  10.810   2.010
 3768SOL     OW13136  10.682   2.127  14.843
 3768SOL    HW113137  10.655   2.101   0.052
 3768SOL    HW213138  10.636   2.067  14.785
 3769SOL     OW13139   6.252   3.119  11.046
 3769SOL    HW113140   6.336   3.085  11.076
 3769SOL    HW213141   6.270   3.209  11.019
 3770SOL     OW13142  12.286   1.954   7.933
 3770SOL    HW113143  12.367   1.947   7.984
 3770SOL    HW213144  12.301   1.898   7.857
 3771SOL     OW13145   3.115   6.958   0.472
 3771SOL    HW113146   3.130   6.878   0.421
 3771SOL    HW213147   3.114   6.928   0.563
 3772SOL     OW13148   2.774  10.475   3.358
 3772SOL    HW113149   2.686  10.510   3.364
 3772SOL    HW213150   2.762  10.381   3.342
 3773SOL     OW13151   2.496   1.813  14.659
 3773SOL    HW113152   2.586   1.844  14.657
 3773SOL    HW213153   2.465   1.823  14.569
 3774SOL     OW13154   7.627   8.915   4.138
 3774SOL    HW113155   7.718   8.886   4.127
 3774SOL    HW213156   7.575   8.835   4.126
 3775SOL     OW13157   9.167   6.533   9.982
 3775SOL    HW113158   9.175   6.517   9.888
 3775SOL    HW213159   9.208   6.618   9.997
 3776SOL     OW13160  13.953  10.443  12.669
 3776SOL    HW113161  13.920  10.471  12.584
 3776SOL    HW213162  13.935  10.349  12.673
 3777SOL     OW13163   5.183   6.578  11.934
 3777SOL    HW113164   5.159   6.590  11.842
 3777SOL    HW213165   5.220   6.490  11.938
 3778SOL     OW13166   1.528   7.568   6.289
 3778SOL    HW113167   1.475   7.491   6.267
 3778SOL    HW213168   1.610   7.531   6.321
 3779SOL     OW13169  12.974  14.506   1.561
 3779SOL    HW113170  12.927  14.528   1.641
 3779SOL    HW213171  12.914  14.449   1.513
 3780SOL     OW13172   2.120   5.867  12.201
 3780SOL    HW113173   2.053   5.914  12.252
 3780SOL    HW213174   2.199   5.919  12.212
 3781SOL     OW13175  10.646   2.624   0.441
 3781SOL    HW113176  10.657   2.577   0.359
 3781SOL    HW213177  10.730   2.668   0.455
 3782SOL     OW13178   6.524   6.629  14.564
 3782SOL    HW113179   6.588   6.699  14.548
 3782SOL    HW213180   6.578   6.550  14.575
 3783SOL     OW13181  11.023   8.183  14.014
 3783SOL    HW113182  10.951   8.221  14.064
 3783SOL    HW213183  11.099   8.237  14.035
 3784SOL     OW13184  13.527   2.643   9.357
 3784SOL    HW113185  13.479   2.648   9.274
 3784SOL    HW213186  13.465   2.676   9.423
 3785SOL     OW13187   9.598  12.932   8.443
 3785SOL    HW113188   9.623  13.025   8.438
 3785SOL    HW213189   9.671  12.885   8.404
 3786SOL     OW13190   9.084  12.541  14.746
 3786SOL    HW113191   9.162  12.523  14.693
 3786SOL    HW213192   9.046  12.455  14.762
 3787SOL     OW13193  14.298  10.014  14.658
 3787SOL    HW113194  14.296   9.918  14.651
 3787SOL    HW213195  14.207  10.041  14.648
 3788SOL     OW13196   9.965  10.849   0.563
 3788SOL    HW113197   9.954  10.943   0.545
 3788SOL    HW213198   9.914  10.834   0.643
 3789SOL     OW13199  12.407   8.350   3.725
 3789SOL    HW113200  12.485   8.338   3.672
 3789SOL    HW213201  12.391   8.265   3.766
 3790SOL     OW13202  12.733   8.731  11.187
 3790SOL    HW113203  12.801   8.747  11.252
 3790SOL    HW213204  12.734   8.636  11.174
 3791SOL     OW13205   0.591   5.906  11.117
 3791SOL    HW113206   0.594   5.961  11.195
 3791SOL    HW213207   0.565   5.965  11.047
 3792SOL     OW13208   0.404   8.151   5.087
 3792SOL    HW113209   0.337   8.136   5.020
 3792SOL    HW213210   0.417   8.246   5.086
 3793SOL     OW13211   4.105   8.129   4.155
 3793SOL    HW113212   4.066   8.122   4.242
 3793SOL    HW213213   4.116   8.223   4.141
 3794SOL     OW13214   1.331   4.785  11.777
 3794SOL    HW113215   1.320   4.830  11.693
 3794SOL    HW213216   1.242   4.776  11.811
 3795SOL     OW13217   3.987   7.638   0.927
 3795SOL    HW113218   3.949   7.554   0.899
 3795SOL    HW213219   4.081   7.627   0.917
 3796SOL     OW13220   0.308  12.058   2.019
 3796SOL    HW113221   0.376  12.089   1.959
 3796SOL    HW213222   0.355  12.008   2.085
 3797SOL     OW13223   4.681  10.736  13.535
 3797SOL    HW113224   4.589  10.736  13.509
 3797SOL    HW213225   4.719  10.812  13.490
 3798SOL     OW13226   9.815  12.420   9.627
 3798SOL    HW113227   9.752  12.446   9.560
 3798SOL    HW213228   9.880  12.369   9.579
 3799SOL     OW13229   1.143  13.401   6.075
 3799SOL    HW113230   1.234  13.414   6.101
 3799SOL    HW213231   1.146  13.391   5.980
 3800SOL     OW13232   6.015   5.514  10.889
 3800SOL    HW113233   6.042   5.601  10.858
 3800SOL    HW213234   6.037   5.515  10.982
 3801SOL     OW13235   8.416   3.535  14.578
 3801SOL    HW113236   8.368   3.598  14.525
 3801SOL    HW213237   8.356   3.462  14.589
 3802SOL     OW13238   8.556   1.359  13.248
 3802SOL    HW113239   8.592   1.272  13.264
 3802SOL    HW213240   8.632   1.414  13.232
 3803SOL     OW13241   2.675   9.534   9.876
 3803SOL    HW113242   2.707   9.576   9.956
 3803SOL    HW213243   2.631   9.455   9.907
 3804SOL     OW13244  12.074   7.884   4.909
 3804SOL    HW113245  12.122   7.908   4.829
 3804SOL    HW213246  12.101   7.949   4.973
 3805SOL     OW13247  10.583   2.183   8.725
 3805SOL    HW113248  10.565   2.123   8.652
 3805SOL    HW213249  10.671   2.161   8.754
 3806SOL     OW13250   3.677   6.370   2.022
 3806SOL    HW113251   3.598   6.408   2.061
 3806SOL    HW213252   3.680   6.408   1.934
 3807SOL     OW13253   8.396   8.068   2.021
 3807SOL    HW113254   8.449   8.034   1.949
 3807SOL    HW213255   8.449   8.140   2.057
 3808SOL     OW13256   4.497   7.069  10.263
 3808SOL    HW113257   4.465   7.008  10.330
 3808SOL    HW213258   4.577   7.029  10.231
 3809SOL     OW13259   9.084  11.172  10.847
 3809SOL    HW113260   9.143  11.125  10.906
 3809SOL    HW213261   8.998  11.160  10.885
 3810SOL     OW13262   0.513   8.518  14.559
 3810SOL    HW113263   0.569   8.589  14.588
 3810SOL    HW213264   0.551   8.439  14.598
 3811SOL     OW13265   2.996  14.315   1.547
 3811SOL    HW113266   2.951  14.389   1.506
 3811SOL    HW213267   3.070  14.355   1.593
 3812SOL     OW13268   0.740   7.501  14.041
 3812SOL    HW113269   0.775   7.568  14.100
 3812SOL    HW213270   0.757   7.419  14.087
 3813SOL     OW13271   6.141  13.059  13.328
 3813SOL    HW113272   6.218  13.071  13.273
 3813SOL    HW213273   6.158  13.112  13.406
 3814SOL     OW13274   7.918   9.873   2.035
 3814SOL    HW113275   7.882   9.948   1.988
 3814SOL    HW213276   7.906   9.799   1.976
 3815SOL     OW13277  10.727  12.438  14.607
 3815SOL    HW113278  10.698  12.462  14.695
 3815SOL    HW213279  10.647  12.413  14.561
 3816SOL     OW13280   3.137   5.311   7.427
 3816SOL    HW113281   3.154   5.366   7.351
 3816SOL    HW213282   3.202   5.338   7.491
 3817SOL     OW13283   8.630   7.662  14.691
 3817SOL    HW113284   8.632   7.751  14.726
 3817SOL    HW213285   8.539   7.647  14.668
 3818SOL     OW13286   3.401   9.424   3.620
 3818SOL    HW113287   3.440   9.494   3.672
 3818SOL    HW213288   3.476   9.374   3.588
 3819SOL     OW13289  10.947  10.142  14.657
 3819SOL    HW113290  10.904  10.075  14.603
 3819SOL    HW213291  10.928  10.115  14.747
 3820SOL     OW13292  13.560  11.142  10.792
 3820SOL    HW113293  13.645  11.100  10.780
 3820SOL    HW213294  13.496  11.072  10.780
 3821SOL     OW13295  10.191  12.056   9.399
 3821SOL    HW113296  10.282  12.036   9.418
 3821SOL    HW213297  10.181  12.038   9.305
 3822SOL     OW13298   0.461  12.351  14.154
 3822SOL    HW113299   0.538  12.301  14.127
 3822SOL    HW213300   0.387  12.304  14.114
 3823SOL     OW13301  10.690   7.668   6.716
 3823SOL    HW113302  10.744   7.669   6.637
 3823SOL    HW213303  10.657   7.578   6.722
 3824SOL     OW13304   9.884   5.281   9.034
 3824SOL    HW113305   9.824   5.322   8.972
 3824SOL    HW213306   9.838   5.287   9.118
 3825SOL     OW13307   6.252  13.036   2.135
 3825SOL    HW113308   6.263  13.076   2.222
 3825SOL    HW213309   6.278  12.945   2.148
 3826SOL     OW13310   2.674   3.962  14.320
 3826SOL    HW113311   2.726   4.039  14.343
 3826SOL    HW213312   2.648   3.977  14.229
 3827SOL     OW13313  14.251   5.158   0.267
 3827SOL    HW113314  14.302   5.084   0.301
 3827SOL    HW213315  14.161   5.127   0.266
 3828SOL     OW13316   2.201  11.777   1.624
 3828SOL    HW113317   2.163  11.732   1.549
 3828SOL    HW213318   2.236  11.707   1.679
 3829SOL     OW13319   1.113  11.147   2.583
 3829SOL    HW113320   1.075  11.199   2.513
 3829SOL    HW213321   1.076  11.184   2.663
 3830SOL     OW13322   5.540  11.539   4.746
 3830SOL    HW113323   5.450  11.551   4.777
 3830SOL    HW213324   5.574  11.628   4.736
 3831SOL     OW13325   2.121   7.640   0.858
 3831SOL    HW113326   2.049   7.576   0.860
 3831SOL    HW213327   2.119   7.680   0.945
 3832SOL     OW13328   6.381   4.665  12.050
 3832SOL    HW113329   6.420   4.585  12.084
 3832SOL    HW213330   6.319   4.636  11.984
 3833SOL     OW13331  11.765  12.363   4.046
 3833SOL    HW113332  11.858  12.380   4.060
 3833SOL    HW213333  11.758  12.267   4.041
 3834SOL     OW13334  11.541   7.685  11.353
 3834SOL    HW113335  11.584   7.756  11.304
 3834SOL    HW213336  11.479   7.647  11.290
 3835SOL     OW13337   4.337   0.245  10.763
 3835SOL    HW113338   4.317   0.267  10.672
 3835SOL    HW213339   4.358   0.152  10.761
 3836SOL     OW13340   0.889   0.368   5.751
 3836SOL    HW113341   0.811   0.415   5.721
 3836SOL    HW213342   0.862   0.276   5.756
 3837SOL     OW13343   3.545   6.072  12.407
 3837SOL    HW113344   3.635   6.046  12.387
 3837SOL    HW213345   3.514   6.006  12.469
 3838SOL     OW13346   7.333   7.335   4.254
 3838SOL    HW113347   7.315   7.374   4.340
 3838SOL    HW213348   7.247   7.324   4.214
 3839SOL     OW13349   9.110  11.518   8.601
 3839SOL    HW113350   9.078  11.577   8.669
 3839SOL    HW213351   9.192  11.482   8.636
 3840SOL     OW13352   7.445  11.963   1.294
 3840SOL    HW113353   7.489  11.888   1.334
 3840SOL    HW213354   7.491  12.040   1.330
 3841SOL     OW13355   5.233   4.948  11.491
 3841SOL    HW113356   5.154   4.989  11.527
 3841SOL    HW213357   5.217   4.946  11.396
 3842SOL     OW13358  14.472   1.009  13.107
 3842SOL    HW113359  14.550   0.956  13.120
 3842SOL    HW213360  14.405   0.967  13.161
 3843SOL     OW13361   0.046  12.409  10.033
 3843SOL    HW113362   0.133  12.431  10.000
 3843SOL    HW213363   0.003  12.493  10.048
 3844SOL     OW13364  13.457   7.209   4.105
 3844SOL    HW113365  13.424   7.130   4.062
 3844SOL    HW213366  13.483   7.179   4.193
 3845SOL     OW13367  14.823  13.928  13.297
 3845SOL    HW113368  14.804  14.019  13.317
 3845SOL    HW213369  14.755  13.902  13.235
 3846SOL     OW13370  11.477   3.124  11.482
 3846SOL    HW113371  11.403   3.147  11.539
 3846SOL    HW213372  11.502   3.206  11.441
 3847SOL     OW13373  13.344   8.373   0.169
 3847SOL    HW113374  13.267   8.318   0.183
 3847SOL    HW213375  13.414   8.312   0.146
 3848SOL     OW13376   8.778  14.378   2.809
 3848SOL    HW113377   8.811  14.315   2.874
 3848SOL    HW213378   8.747  14.452   2.861
 3849SOL     OW13379   2.628  11.636   1.953
 3849SOL    HW113380   2.709  11.631   2.003
 3849SOL    HW213381   2.594  11.547   1.953
 3850SOL     OW13382  10.818   8.244   5.537
 3850SOL    HW113383  10.754   8.287   5.479
 3850SOL    HW213384  10.901   8.252   5.491
 3851SOL     OW13385  14.645   1.549   9.128
 3851SOL    HW113386  14.704   1.577   9.198
 3851SOL    HW213387  14.672   1.600   9.052
 3852SOL     OW13388   5.962  13.457   7.682
 3852SOL    HW113389   5.944  13.441   7.589
 3852SOL    HW213390   5.955  13.552   7.691
 3853SOL     OW13391   6.095  11.919   4.182
 3853SOL    HW113392   6.092  11.873   4.099
 3853SOL    HW213393   6.187  11.917   4.208
 3854SOL     OW13394  11.677   4.130   3.584
 3854SOL    HW113395  11.713   4.211   3.620
 3854SOL    HW213396  11.705   4.062   3.644
 3855SOL     OW13397   7.090  13.015   6.598
 3855SOL    HW113398   7.066  13.030   6.507
 3855SOL    HW213399   7.066  13.096   6.643
 3856SOL     OW13400   9.351  10.917  12.585
 3856SOL    HW113401   9.256  10.929  12.588
 3856SOL    HW213402   9.378  10.919  12.677
 3857SOL     OW13403   1.036   6.258   7.122
 3857SOL    HW113404   0.944   6.249   7.148
 3857SOL    HW213405   1.081   6.186   7.167
 3858SOL     OW13406  12.649   6.454   5.060
 3858SOL    HW113407  12.607   6.400   4.993
 3858SOL    HW213408  12.667   6.537   5.017
 3859SOL     OW13409   7.805   7.635   9.517
 3859SOL    HW113410   7.814   7.612   9.425
 3859SOL    HW213411   7.851   7.565   9.564
 3860SOL     OW13412   5.710  13.084   6.602
 3860SOL    HW113413   5.686  13.082   6.695
 3860SOL    HW213414   5.633  13.051   6.556
 3861SOL     OW13415   4.041  14.459  12.161
 3861SOL    HW113416   3.971  14.431  12.219
 3861SOL    HW213417   4.067  14.546  12.194
 3862SOL     OW13418   6.420  13.565  11.315
 3862SOL    HW113419   6.334  13.529  11.340
 3862SOL    HW213420   6.481  13.493  11.331
 3863SOL     OW13421  11.996   4.928  10.992
 3863SOL    HW113422  12.054   4.852  10.990
 3863SOL    HW213423  11.915   4.898  10.952
 3864SOL     OW13424   1.537   4.519  11.651
 3864SOL    HW113425   1.458   4.502  11.703
 3864SOL    HW213426   1.589   4.579  11.705
 3865SOL     OW13427  13.808   5.418   8.177
 3865SOL    HW113428  13.784   5.342   8.124
 3865SOL    HW213429  13.831   5.486   8.113
 3866SOL     OW13430   2.618   1.939  13.486
 3866SOL    HW113431   2.584   1.905  13.403
 3866SOL    HW213432   2.544   1.986  13.524
 3867SOL     OW13433   0.146   2.239   7.200
 3867SOL    HW113434   0.163   2.326   7.165
 3867SOL    HW213435   0.163   2.247   7.294
 3868SOL     OW13436   5.735  11.903   4.302
 3868SOL    HW113437   5.720  11.838   4.234
 3868SOL    HW213438   5.698  11.864   4.381
 3869SOL     OW13439  13.463   5.698  10.515
 3869SOL    HW113440  13.554   5.721  10.500
 3869SOL    HW213441  13.419   5.718  10.432
 3870SOL     OW13442   6.905   2.885   5.145
 3870SOL    HW113443   6.949   2.831   5.080
 3870SOL    HW213444   6.953   2.968   5.146
 3871SOL     OW13445  12.416   3.642   1.393
 3871SOL    HW113446  12.373   3.636   1.307
 3871SOL    HW213447  12.394   3.730   1.425
 3872SOL     OW13448   4.742  11.348   2.308
 3872SOL    HW113449   4.717  11.256   2.319
 3872SOL    HW213450   4.824  11.346   2.260
 3873SOL     OW13451   5.214   3.181   6.295
 3873SOL    HW113452   5.219   3.254   6.356
 3873SOL    HW213453   5.121   3.175   6.272
 3874SOL     OW13454  10.010   2.068  14.021
 3874SOL    HW113455   9.972   2.138  14.074
 3874SOL    HW213456   9.990   2.093  13.931
 3875SOL     OW13457   7.773  12.548   8.365
 3875SOL    HW113458   7.685  12.564   8.400
 3875SOL    HW213459   7.805  12.635   8.339
 3876SOL     OW13460  10.688   9.102  10.390
 3876SOL    HW113461  10.781   9.117  10.408
 3876SOL    HW213462  10.687   9.066  10.302
 3877SOL     OW13463   6.197   3.446   2.031
 3877SOL    HW113464   6.110   3.485   2.020
 3877SOL    HW213465   6.181   3.367   2.083
 3878SOL     OW13466   8.286   3.735   9.541
 3878SOL    HW113467   8.339   3.725   9.620
 3878SOL    HW213468   8.200   3.701   9.566
 3879SOL     OW13469  10.572   8.641   1.956
 3879SOL    HW113470  10.579   8.609   2.046
 3879SOL    HW213471  10.661   8.669   1.933
 3880SOL     OW13472  13.946   8.567   1.332
 3880SOL    HW113473  13.935   8.480   1.370
 3880SOL    HW213474  13.873   8.618   1.368
 3881SOL     OW13475   5.577   6.136   7.897
 3881SOL    HW113476   5.601   6.081   7.822
 3881SOL    HW213477   5.483   6.119   7.909
 3882SOL     OW13478   8.409  13.140   3.150
 3882SOL    HW113479   8.452  13.161   3.068
 3882SOL    HW213480   8.450  13.059   3.179
 3883SOL     OW13481   9.687  13.541  11.594
 3883SOL    HW113482   9.680  13.552  11.499
 3883SOL    HW213483   9.651  13.622  11.630
 3884SOL     OW13484   2.889  10.360  12.029
 3884SOL    HW113485   2.819  10.360  12.094
 3884SOL    HW213486   2.918  10.452  12.026
 3885SOL     OW13487   4.557   6.371   6.396
 3885SOL    HW113488   4.474   6.405   6.363
 3885SOL    HW213489   4.558   6.279   6.367
 3886SOL     OW13490   2.996   6.474  11.435
 3886SOL    HW113491   2.924   6.487  11.373
 3886SOL    HW213492   3.044   6.557  11.433
 3887SOL     OW13493  10.229   0.016   4.947
 3887SOL    HW113494  10.179  14.820   4.980
 3887SOL    HW213495  10.318   0.000   4.976
 3888SOL     OW13496   4.757  10.486   0.191
 3888SOL    HW113497   4.795  10.565   0.229
 3888SOL    HW213498   4.813  10.415   0.222
 3889SOL     OW13499  10.599  12.546  11.002
 3889SOL    HW113500  10.614  12.494  10.923
 3889SOL    HW213501  10.683  12.590  11.018
 3890SOL     OW13502   6.021   0.964   2.900
 3890SOL    HW113503   6.070   0.939   2.978
 3890SOL    HW213504   5.966   1.037   2.929
 3891SOL     OW13505  14.168  13.591   4.627
 3891SOL    HW113506  14.257  13.590   4.662
 3891SOL    HW213507  14.116  13.542   4.690
 3892SOL     OW13508   2.775  12.567  13.842
 3892SOL    HW113509   2.687  12.570  13.805
 3892SOL    HW213510   2.833  12.566  13.766
 3893SOL     OW13511   1.133  14.075   6.865
 3893SOL    HW113512   1.064  14.030   6.817
 3893SOL    HW213513   1.113  14.059   6.957
 3894SOL     OW13514   6.532   5.219   2.561
 3894SOL    HW113515   6.557   5.296   2.612
 3894SOL    HW213516   6.437   5.213   2.572
 3895SOL     OW13517   2.952  13.803   8.011
 3895SOL    HW113518   2.894  13.831   8.081
 3895SOL    HW213519   2.925  13.714   7.991
 3896SOL     OW13520   9.914   8.789   8.245
 3896SOL    HW113521   9.827   8.796   8.204
 3896SOL    HW213522   9.918   8.863   8.305
 3897SOL     OW13523   5.787  13.991   3.014
 3897SOL    HW113524   5.747  14.011   2.930
 3897SOL    HW213525   5.775  13.896   3.025
 3898SOL     OW13526   3.549   7.173   7.796
 3898SOL    HW113527   3.560   7.196   7.703
 3898SOL    HW213528   3.622   7.217   7.840
 3899SOL     OW13529   7.625  14.458   4.599
 3899SOL    HW113530   7.553  14.464   4.662
 3899SOL    HW213531   7.660  14.369   4.611
 3900SOL     OW13532  12.603   5.214   3.354
 3900SOL    HW113533  12.685   5.230   3.307
 3900SOL    HW213534  12.537   5.205   3.285
 3901SOL     OW13535   1.154  14.490   0.041
 3901SOL    HW113536   1.075  14.436   0.028
 3901SOL    HW213537   1.169  14.531  14.835
 3902SOL     OW13538   2.921   9.217   9.676
 3902SOL    HW113539   2.876   9.196   9.594
 3902SOL    HW213540   2.957   9.304   9.662
 3903SOL     OW13541   1.731   1.788   5.538
 3903SOL    HW113542   1.799   1.744   5.590
 3903SOL    HW213543   1.742   1.881   5.558
 3904SOL     OW13544   5.624   8.073   9.910
 3904SOL    HW113545   5.572   8.048   9.833
 3904SOL    HW213546   5.714   8.059   9.883
 3905SOL     OW13547   0.949   4.961   1.641
 3905SOL    HW113548   0.861   4.993   1.621
 3905SOL    HW213549   0.940   4.916   1.725
 3906SOL     OW13550   1.161   6.851   7.642
 3906SOL    HW113551   1.235   6.867   7.584
 3906SOL    HW213552   1.136   6.938   7.673
 3907SOL     OW13553   1.095   4.860   3.557
 3907SOL    HW113554   1.155   4.887   3.488
 3907SOL    HW213555   1.050   4.940   3.583
 3908SOL     OW13556   3.077   4.699  12.250
 3908SOL    HW113557   3.136   4.774  12.257
 3908SOL    HW213558   3.134   4.623  12.259
 3909SOL     OW13559   4.660  13.703   4.460
 3909SOL    HW113560   4.615  13.787   4.466
 3909SOL    HW213561   4.596  13.639   4.492
 3910SOL     OW13562   2.115   4.438   5.826
 3910SOL    HW113563   2.060   4.513   5.803
 3910SOL    HW213564   2.126   4.390   5.744
 3911SOL     OW13565  10.199   8.163   6.443
 3911SOL    HW113566  10.129   8.159   6.508
 3911SOL    HW213567  10.155   8.186   6.361
 3912SOL     OW13568   1.753   6.365   9.850
 3912SOL    HW113569   1.689   6.348   9.781
 3912SOL    HW213570   1.761   6.281   9.896
 3913SOL     OW13571   5.852  11.687  12.409
 3913SOL    HW113572   5.928  11.637  12.381
 3913SOL    HW213573   5.808  11.712  12.328
 3914SOL     OW13574   3.024  12.474  11.359
 3914SOL    HW113575   2.951  12.495  11.301
 3914SOL    HW213576   3.023  12.544  11.425
 3915SOL     OW13577  14.313   4.382  13.554
 3915SOL    HW113578  14.238   4.326  13.574
 3915SOL    HW213579  14.286   4.469  13.585
 3916SOL     OW13580  11.401  10.284   1.408
 3916SOL    HW113581  11.447  10.330   1.338
 3916SOL    HW213582  11.322  10.249   1.366
 3917SOL     OW13583   5.935   1.562  11.992
 3917SOL    HW113584   6.026   1.590  11.999
 3917SOL    HW213585   5.892   1.630  11.940
 3918SOL     OW13586   6.440  11.417  12.419
 3918SOL    HW113587   6.488  11.342  12.456
 3918SOL    HW213588   6.496  11.447  12.348
 3919SOL     OW13589   1.456   8.930  14.387
 3919SOL    HW113590   1.478   8.938  14.480
 3919SOL    HW213591   1.439   9.019  14.357
 3920SOL     OW13592  13.640   7.250   5.251
 3920SOL    HW113593  13.642   7.343   5.276
 3920SOL    HW213594  13.684   7.206   5.324
 3921SOL     OW13595   4.607   6.922   2.448
 3921SOL    HW113596   4.650   6.922   2.533
 3921SOL    HW213597   4.614   6.831   2.418
 3922SOL     OW13598   7.787   2.240  11.086
 3922SOL    HW113599   7.764   2.324  11.046
 3922SOL    HW213600   7.769   2.252  11.180
 3923SOL     OW13601   3.976  10.368   7.977
 3923SOL    HW113602   4.053  10.424   7.972
 3923SOL    HW213603   3.911  10.420   8.025
 3924SOL     OW13604   1.723   2.177  10.385
 3924SOL    HW113605   1.695   2.227  10.461
 3924SOL    HW213606   1.815   2.155  10.403
 3925SOL     OW13607  11.323   7.892   3.889
 3925SOL    HW113608  11.310   7.938   3.972
 3925SOL    HW213609  11.273   7.943   3.826
 3926SOL     OW13610   8.871   1.286  13.910
 3926SOL    HW113611   8.923   1.257  13.834
 3926SOL    HW213612   8.936   1.308  13.976
 3927SOL     OW13613   8.120   9.587   0.676
 3927SOL    HW113614   8.032   9.554   0.688
 3927SOL    HW213615   8.122   9.669   0.726
 3928SOL     OW13616   6.149  14.047   9.706
 3928SOL    HW113617   6.245  14.047   9.706
 3928SOL    HW213618   6.125  14.027   9.616
 3929SOL     OW13619   7.500   8.839  14.836
 3929SOL    HW113620   7.536   8.861   0.044
 3929SOL    HW213621   7.546   8.759  14.811
 3930SOL     OW13622   5.283   5.243   1.173
 3930SOL    HW113623   5.238   5.159   1.184
 3930SOL    HW213624   5.218   5.299   1.131
 3931SOL     OW13625   0.123   8.686   3.538
 3931SOL    HW113626   0.079   8.768   3.560
 3931SOL    HW213627   0.214   8.701   3.561
 3932SOL     OW13628  11.046   7.462   1.141
 3932SOL    HW113629  11.022   7.526   1.074
 3932SOL    HW213630  11.130   7.494   1.174
 3933SOL     OW13631   7.964   8.609   2.881
 3933SOL    HW113632   8.056   8.597   2.860
 3933SOL    HW213633   7.927   8.521   2.877
 3934SOL     OW13634   1.834  14.382   3.804
 3934SOL    HW113635   1.926  14.369   3.778
 3934SOL    HW213636   1.835  14.371   3.899
 3935SOL     OW13637   4.555   6.281  13.613
 3935SOL    HW113638   4.617   6.274  13.540
 3935SOL    HW213639   4.521   6.370  13.607
 3936SOL     OW13640   2.074   7.816   8.579
 3936SOL    HW113641   2.043   7.769   8.502
 3936SOL    HW213642   2.153   7.769   8.606
 3937SOL     OW13643   1.421   3.100   3.122
 3937SOL    HW113644   1.345   3.142   3.163
 3937SOL    HW213645   1.414   3.124   3.029
 3938SOL     OW13646   0.701   4.110  11.206
 3938SOL    HW113647   0.616   4.145  11.233
 3938SOL    HW213648   0.708   4.133  11.113
 3939SOL     OW13649   1.171  13.978  13.956
 3939SOL    HW113650   1.096  13.989  13.897
 3939SOL    HW213651   1.218  14.061  13.950
 3940SOL     OW13652   1.770  13.016  14.046
 3940SOL    HW113653   1.842  13.026  13.984
 3940SOL    HW213654   1.752  13.105  14.077
 3941SOL     OW13655  12.186  10.156   6.145
 3941SOL    HW113656  12.152  10.238   6.181
 3941SOL    HW213657  12.230  10.182   6.064
 3942SOL     OW13658  13.695  10.804   4.683
 3942SOL    HW113659  13.708  10.751   4.604
 3942SOL    HW213660  13.743  10.756   4.751
 3943SOL     OW13661   6.183   6.214   2.584
 3943SOL    HW113662   6.209   6.204   2.676
 3943SOL    HW213663   6.140   6.299   2.580
 3944SOL     OW13664   5.768  14.196   6.933
 3944SOL    HW113665   5.825  14.148   6.993
 3944SOL    HW213666   5.778  14.287   6.959
 3945SOL     OW13667   6.386   5.394  14.058
 3945SOL    HW113668   6.480   5.374  14.052
 3945SOL    HW213669   6.362   5.418  13.968
 3946SOL     OW13670   4.205  10.885  11.202
 3946SOL    HW113671   4.245  10.971  11.206
 3946SOL    HW213672   4.179  10.874  11.110
 3947SOL     OW13673   9.975   7.136   0.113
 3947SOL    HW113674   9.948   7.141   0.021
 3947SOL    HW213675   9.956   7.046   0.139
 3948SOL     OW13676  11.770   6.392  14.803
 3948SOL    HW113677  11.797   6.484  14.802
 3948SOL    HW213678  11.749   6.374   0.016
 3949SOL     OW13679   0.156   5.559  11.854
 3949SOL    HW113680   0.063   5.567  11.875
 3949SOL    HW213681   0.159   5.556  11.759
 3950SOL     OW13682   0.051   8.458  14.389
 3950SOL    HW113683   0.026   8.543  14.352
 3950SOL    HW213684   0.146   8.463  14.397
 3951SOL     OW13685   7.677  12.419   4.975
 3951SOL    HW113686   7.676  12.344   5.035
 3951SOL    HW213687   7.673  12.496   5.032
 3952SOL     OW13688   0.212   1.230   6.062
 3952SOL    HW113689   0.283   1.208   6.000
 3952SOL    HW213690   0.222   1.165   6.132
 3953SOL     OW13691  12.944   1.619  11.907
 3953SOL    HW113692  13.023   1.673  11.903
 3953SOL    HW213693  12.974   1.535  11.941
 3954SOL     OW13694   5.604   0.244  14.126
 3954SOL    HW113695   5.661   0.235  14.049
 3954SOL    HW213696   5.592   0.338  14.137
 3955SOL     OW13697   3.983  14.257   4.830
 3955SOL    HW113698   4.076  14.257   4.806
 3955SOL    HW213699   3.958  14.164   4.829
 3956SOL     OW13700   8.614  10.458   6.899
 3956SOL    HW113701   8.639  10.390   6.962
 3956SOL    HW213702   8.528  10.430   6.867
 3957SOL     OW13703   1.778   6.808   8.521
 3957SOL    HW113704   1.730   6.848   8.594
 3957SOL    HW213705   1.714   6.806   8.449
 3958SOL     OW13706   2.730   9.046  13.090
 3958SOL    HW113707   2.724   9.088  13.175
 3958SOL    HW213708   2.725   9.118  13.027
 3959SOL     OW13709  13.853   2.854   0.793
 3959SOL    HW113710  13.792   2.781   0.782
 3959SOL    HW213711  13.799   2.927   0.822
 3960SOL     OW13712   4.279   5.893   7.770
 3960SOL    HW113713   4.336   5.964   7.739
 3960SOL    HW213714   4.299   5.820   7.712
 3961SOL     OW13715  13.420   4.309   3.301
 3961SOL    HW113716  13.373   4.327   3.382
 3961SOL    HW213717  13.360   4.254   3.250
 3962SOL     OW13718   4.910   0.738   4.515
 3962SOL    HW113719   4.931   0.759   4.606
 3962SOL    HW213720   4.989   0.760   4.466
 3963SOL     OW13721   3.259  12.343   2.396
 3963SOL    HW113722   3.300  12.275   2.449
 3963SOL    HW213723   3.194  12.383   2.454
 3964SOL     OW13724   6.171   2.188  10.086
 3964SOL    HW113725   6.194   2.278  10.108
 3964SOL    HW213726   6.077   2.182  10.104
 3965SOL     OW13727  10.415  11.671  13.971
 3965SOL    HW113728  10.322  11.693  13.970
 3965SOL    HW213729  10.460  11.755  13.976
 3966SOL     OW13730   1.144   4.824   3.030
 3966SOL    HW113731   1.200   4.760   3.075
 3966SOL    HW213732   1.165   4.908   3.072
 3967SOL     OW13733   1.441   8.683   5.984
 3967SOL    HW113734   1.515   8.666   5.926
 3967SOL    HW213735   1.446   8.614   6.051
 3968SOL     OW13736  13.378   8.818  14.451
 3968SOL    HW113737  13.315   8.768  14.400
 3968SOL    HW213738  13.424   8.752  14.504
 3969SOL     OW13739   7.679  14.389   9.747
 3969SOL    HW113740   7.683  14.394   9.843
 3969SOL    HW213741   7.724  14.468   9.717
 3970SOL     OW13742   1.600   3.607   8.204
 3970SOL    HW113743   1.667   3.669   8.232
 3970SOL    HW213744   1.567   3.644   8.121
 3971SOL     OW13745  14.645  10.583  13.176
 3971SOL    HW113746  14.560  10.540  13.163
 3971SOL    HW213747  14.687  10.534  13.247
 3972SOL     OW13748   8.542   4.709  12.501
 3972SOL    HW113749   8.592   4.628  12.507
 3972SOL    HW213750   8.500   4.706  12.415
 3973SOL     OW13751   0.579  11.532   9.872
 3973SOL    HW113752   0.663  11.540   9.916
 3973SOL    HW213753   0.550  11.622   9.859
 3974SOL     OW13754   9.762   5.707   5.213
 3974SOL    HW113755   9.816   5.706   5.134
 3974SOL    HW213756   9.759   5.616   5.241
 3975SOL     OW13757   6.510  13.454  10.499
 3975SOL    HW113758   6.418  13.478  10.513
 3975SOL    HW213759   6.510  13.358  10.501
 3976SOL     OW13760  12.812  14.686  12.836
 3976SOL    HW113761  12.901  14.660  12.814
 3976SOL    HW213762  12.786  14.743  12.764
 3977SOL     OW13763   8.344   1.575   6.441
 3977SOL    HW113764   8.361   1.523   6.520
 3977SOL    HW213765   8.428   1.616   6.421
 3978SOL     OW13766   9.030   6.698   2.685
 3978SOL    HW113767   8.985   6.781   2.700
 3978SOL    HW213768   9.048   6.664   2.772
 3979SOL     OW13769   4.244   7.237  13.579
 3979SOL    HW113770   4.149   7.245  13.587
 3979SOL    HW213771   4.263   7.269  13.491
 3980SOL     OW13772   4.123   7.520   9.650
 3980SOL    HW113773   4.131   7.435   9.694
 3980SOL    HW213774   4.209   7.559   9.658
 3981SOL     OW13775  13.778  12.488   3.591
 3981SOL    HW113776  13.765  12.419   3.656
 3981SOL    HW213777  13.714  12.555   3.614
 3982SOL     OW13778  14.786  14.125   7.488
 3982SOL    HW113779  14.761  14.156   7.575
 3982SOL    HW213780  14.758  14.194   7.428
 3983SOL     OW13781  13.189  10.560   0.197
 3983SOL    HW113782  13.106  10.586   0.237
 3983SOL    HW213783  13.208  10.474   0.235
 3984SOL     OW13784   2.456  12.336  12.542
 3984SOL    HW113785   2.495  12.280  12.474
 3984SOL    HW213786   2.480  12.425  12.515
 3985SOL     OW13787  13.637   4.729  13.489
 3985SOL    HW113788  13.709   4.760  13.545
 3985SOL    HW213789  13.558   4.752  13.537
 3986SOL     OW13790   2.021   0.034   3.449
 3986SOL    HW113791   2.075   0.096   3.399
 3986SOL    HW213792   1.950   0.011   3.389
 3987SOL     OW13793  10.265   2.703   4.098
 3987SOL    HW113794  10.345   2.683   4.146
 3987SOL    HW213795  10.203   2.635   4.126
 3988SOL     OW13796   5.744   6.530   2.687
 3988SOL    HW113797   5.741   6.607   2.744
 3988SOL    HW213798   5.692   6.464   2.734
 3989SOL     OW13799   1.317   0.257  12.752
 3989SOL    HW113800   1.323   0.195  12.825
 3989SOL    HW213801   1.405   0.257  12.714
 3990SOL     OW13802   9.530   4.067   1.854
 3990SOL    HW113803   9.577   4.061   1.937
 3990SOL    HW213804   9.522   3.977   1.824
 3991SOL     OW13805   3.949   2.483   8.902
 3991SOL    HW113806   3.946   2.388   8.911
 3991SOL    HW213807   3.982   2.497   8.813
 3992SOL     OW13808  13.552   8.376   3.671
 3992SOL    HW113809  13.502   8.376   3.589
 3992SOL    HW213810  13.582   8.286   3.681
 3993SOL     OW13811  10.718   4.028   0.214
 3993SOL    HW113812  10.725   3.972   0.137
 3993SOL    HW213813  10.651   4.093   0.191
 3994SOL     OW13814   0.644  12.668  14.622
 3994SOL    HW113815   0.697  12.603  14.577
 3994SOL    HW213816   0.583  12.617  14.675
 3995SOL     OW13817   8.765  13.380  11.679
 3995SOL    HW113818   8.698  13.447  11.689
 3995SOL    HW213819   8.814  13.407  11.601
 3996SOL     OW13820  12.939  12.174   3.186
 3996SOL    HW113821  12.855  12.157   3.144
 3996SOL    HW213822  12.993  12.098   3.165
 3997SOL     OW13823   9.224  13.253   4.612
 3997SOL    HW113824   9.210  13.241   4.518
 3997SOL    HW213825   9.289  13.323   4.618
 3998SOL     OW13826   7.584   1.825   6.699
 3998SOL    HW113827   7.538   1.903   6.730
 3998SOL    HW213828   7.599   1.773   6.777
 3999SOL     OW13829   5.303   8.583  12.072
 3999SOL    HW113830   5.207   8.589  12.077
 3999SOL    HW213831   5.322   8.493  12.099
 4000SOL     OW13832   9.557   5.641  14.662
 4000SOL    HW113833   9.560   5.565  14.604
 4000SOL    HW213834   9.467   5.644  14.693
 4001SOL     OW13835   2.476   0.073   4.441
 4001SOL    HW113836   2.515  14.877   4.396
 4001SOL    HW213837   2.534   0.146   4.422
 4002SOL     OW13838  11.667   3.778   6.227
 4002SOL    HW113839  11.753   3.778   6.269
 4002SOL    HW213840  11.669   3.702   6.168
 4003SOL     OW13841   3.296   0.769   5.425
 4003SOL    HW113842   3.312   0.740   5.335
 4003SOL    HW213843   3.373   0.820   5.448
 4004SOL     OW13844   0.992   6.873  13.719
 4004SOL    HW113845   0.983   6.914  13.805
 4004SOL    HW213846   0.939   6.793  13.725
 4005SOL     OW13847  10.933   7.322   3.161
 4005SOL    HW113848  11.008   7.313   3.103
 4005SOL    HW213849  10.944   7.408   3.202
 4006SOL     OW13850   6.252  14.496   5.380
 4006SOL    HW113851   6.213  14.426   5.327
 4006SOL    HW213852   6.342  14.467   5.395
 4007SOL     OW13853   5.370   3.442  14.306
 4007SOL    HW113854   5.443   3.453  14.245
 4007SOL    HW213855   5.399   3.373  14.366
 4008SOL     OW13856   8.870   9.400   0.658
 4008SOL    HW113857   8.899   9.331   0.718
 4008SOL    HW213858   8.888   9.365   0.571
 4009SOL     OW13859   1.109   4.726  13.600
 4009SOL    HW113860   1.134   4.647  13.553
 4009SOL    HW213861   1.091   4.696  13.689
 4010SOL     OW13862   6.628   0.750  14.730
 4010SOL    HW113863   6.592   0.692  14.797
 4010SOL    HW213864   6.663   0.825  14.780
 4011SOL     OW13865  11.515   7.681   5.099
 4011SOL    HW113866  11.569   7.620   5.149
 4011SOL    HW213867  11.481   7.742   5.164
 4012SOL     OW13868   7.595  14.199   0.634
 4012SOL    HW113869   7.620  14.290   0.647
 4012SOL    HW213870   7.654  14.149   0.691
 4013SOL     OW13871   1.807   6.281  11.599
 4013SOL    HW113872   1.887   6.284  11.653
 4013SOL    HW213873   1.739   6.253  11.660
 4014SOL     OW13874  13.447   6.969   3.258
 4014SOL    HW113875  13.533   6.932   3.278
 4014SOL    HW213876  13.393   6.893   3.235
 4015SOL     OW13877   9.765   3.194   2.929
 4015SOL    HW113878   9.731   3.282   2.913
 4015SOL    HW213879   9.806   3.200   3.015
 4016SOL     OW13880   4.186   0.243  12.780
 4016SOL    HW113881   4.118   0.300  12.814
 4016SOL    HW213882   4.153   0.213  12.695
 4017SOL     OW13883   2.611   3.740   2.312
 4017SOL    HW113884   2.573   3.654   2.292
 4017SOL    HW213885   2.705   3.728   2.305
 4018SOL     OW13886   8.196  12.614  13.753
 4018SOL    HW113887   8.287  12.602  13.782
 4018SOL    HW213888   8.145  12.557  13.810
 4019SOL     OW13889   3.267  14.298   9.946
 4019SOL    HW113890   3.294  14.234   9.880
 4019SOL    HW213891   3.333  14.291  10.014
 4020SOL     OW13892   7.471   5.852  12.716
 4020SOL    HW113893   7.548   5.908  12.717
 4020SOL    HW213894   7.447   5.845  12.624
 4021SOL     OW13895   9.959  13.190   7.257
 4021SOL    HW113896   9.927  13.112   7.211
 4021SOL    HW213897  10.041  13.212   7.213
 4022SOL     OW13898   3.804   6.628  14.462
 4022SOL    HW113899   3.862   6.591  14.396
 4022SOL    HW213900   3.753   6.693  14.416
 4023SOL     OW13901   6.923   3.963   2.893
 4023SOL    HW113902   7.017   3.973   2.878
 4023SOL    HW213903   6.895   4.048   2.928
 4024SOL     OW13904   6.625  11.165  13.509
 4024SOL    HW113905   6.562  11.202  13.448
 4024SOL    HW213906   6.599  11.073  13.518
 4025SOL     OW13907  13.247  14.681   2.493
 4025SOL    HW113908  13.269  14.747   2.428
 4025SOL    HW213909  13.311  14.611   2.479
 4026SOL     OW13910  11.724  12.063  12.217
 4026SOL    HW113911  11.725  12.158  12.230
 4026SOL    HW213912  11.663  12.030  12.282
 4027SOL     OW13913  13.636   8.088  13.787
 4027SOL    HW113914  13.628   8.120  13.877
 4027SOL    HW213915  13.726   8.055  13.781
 4028SOL     OW13916   8.764  13.759   4.182
 4028SOL    HW113917   8.796  13.751   4.271
 4028SOL    HW213918   8.769  13.669   4.147
 4029SOL     OW13919   4.535   2.872   7.895
 4029SOL    HW113920   4.511   2.820   7.972
 4029SOL    HW213921   4.619   2.911   7.918
 4030SOL     OW13922   1.766   0.607  11.138
 4030SOL    HW113923   1.714   0.550  11.082
 4030SOL    HW213924   1.810   0.667  11.078
 4031SOL     OW13925   2.533   1.048   3.948
 4031SOL    HW113926   2.618   1.044   3.904
 4031SOL    HW213927   2.551   1.019   4.038
 4032SOL     OW13928   3.426   7.208  11.570
 4032SOL    HW113929   3.415   7.183  11.478
 4032SOL    HW213930   3.344   7.179  11.612
 4033SOL     OW13931   0.018   6.800   0.323
 4033SOL    HW113932   0.106   6.823   0.352
 4033SOL    HW213933   0.030   6.721   0.270
 4034SOL     OW13934  10.285   7.484   1.050
 4034SOL    HW113935  10.275   7.565   1.000
 4034SOL    HW213936  10.303   7.417   0.984
 4035SOL     OW13937   4.054  13.261   9.755
 4035SOL    HW113938   3.999  13.237   9.830
 4035SOL    HW213939   4.116  13.189   9.747
 4036SOL     OW13940   5.270  10.701  11.732
 4036SOL    HW113941   5.298  10.689  11.642
 4036SOL    HW213942   5.344  10.671  11.785
 4037SOL     OW13943  13.292   8.162  12.218
 4037SOL    HW113944  13.364   8.193  12.162
 4037SOL    HW213945  13.277   8.234  12.279
 4038SOL     OW13946  13.237   3.235  11.378
 4038SOL    HW113947  13.296   3.174  11.333
 4038SOL    HW213948  13.161   3.241  11.321
 4039SOL     OW13949   9.505   7.327   2.981
 4039SOL    HW113950   9.462   7.303   2.899
 4039SOL    HW213951   9.453   7.400   3.015
 4040SOL     OW13952   7.424   3.754  11.294
 4040SOL    HW113953   7.445   3.828  11.351
 4040SOL    HW213954   7.414   3.794  11.207
 4041SOL     OW13955  14.167   5.798   4.022
 4041SOL    HW113956  14.130   5.784   3.935
 4041SOL    HW213957  14.092   5.824   4.077
 4042SOL     OW13958  11.426   3.615   0.853
 4042SOL    HW113959  11.421   3.707   0.826
 4042SOL    HW213960  11.360   3.571   0.800
 4043SOL     OW13961  12.634   4.726  14.348
 4043SOL    HW113962  12.618   4.647  14.399
 4043SOL    HW213963  12.600   4.797  14.402
 4044SOL     OW13964  12.157  13.673   9.606
 4044SOL    HW113965  12.240  13.698   9.645
 4044SOL    HW213966  12.116  13.616   9.672
 4045SOL     OW13967  12.177   5.698  13.228
 4045SOL    HW113968  12.268   5.727  13.223
 4045SOL    HW213969  12.142   5.716  13.141
 4046SOL     OW13970  13.552   6.133  13.791
 4046SOL    HW113971  13.572   6.156  13.700
 4046SOL    HW213972  13.637   6.125  13.833
 4047SOL     OW13973  14.253   4.228   9.737
 4047SOL    HW113974  14.250   4.235   9.641
 4047SOL    HW213975  14.343   4.252   9.760
 4048SOL     OW13976   7.516   6.414   0.318
 4048SOL    HW113977   7.528   6.508   0.311
 4048SOL    HW213978   7.431   6.404   0.362
 4049SOL     OW13979  10.128  13.585   5.132
 4049SOL    HW113980  10.155  13.663   5.083
 4049SOL    HW213981  10.199  13.571   5.194
 4050SOL     OW13982  11.597   7.316  12.734
 4050SOL    HW113983  11.693   7.322  12.727
 4050SOL    HW213984  11.581   7.235  12.783
 4051SOL     OW13985   5.029   9.209   1.013
 4051SOL    HW113986   5.051   9.278   1.076
 4051SOL    HW213987   4.955   9.163   1.052
 4052SOL     OW13988  12.523   5.285   1.044
 4052SOL    HW113989  12.591   5.288   1.111
 4052SOL    HW213990  12.570   5.297   0.961
 4053SOL     OW13991   4.318  12.577   7.974
 4053SOL    HW113992   4.317  12.517   8.048
 4053SOL    HW213993   4.397  12.629   7.986
 4054SOL     OW13994   3.295  13.231   8.782
 4054SOL    HW113995   3.378  13.277   8.775
 4054SOL    HW213996   3.293  13.200   8.873
 4055SOL     OW13997   9.124  12.526   9.356
 4055SOL    HW113998   9.097  12.454   9.414
 4055SOL    HW213999   9.044  12.578   9.346
 4056SOL     OW14000   8.962  12.635  13.674
 4056SOL    HW114001   8.900  12.565  13.655
 4056SOL    HW214002   8.979  12.675  13.589
 4057SOL     OW14003   5.530   3.993  12.530
 4057SOL    HW114004   5.620   4.024  12.522
 4057SOL    HW214005   5.512   3.996  12.624
 4058SOL     OW14006  11.082   6.772   1.374
 4058SOL    HW114007  11.048   6.721   1.447
 4058SOL    HW214008  11.055   6.723   1.296
 4059SOL     OW14009   1.480  12.464   3.784
 4059SOL    HW114010   1.403  12.480   3.839
 4059SOL    HW214011   1.474  12.529   3.714
 4060SOL     OW14012   5.442  10.433  14.275
 4060SOL    HW114013   5.357  10.458  14.313
 4060SOL    HW214014   5.466  10.508  14.220
 4061SOL     OW14015   9.954   0.308   5.072
 4061SOL    HW114016   9.926   0.228   5.027
 4061SOL    HW214017  10.048   0.313   5.055
 4062SOL     OW14018   3.123   2.662  14.832
 4062SOL    HW114019   3.097   2.582  14.878
 4062SOL    HW214020   3.216   2.672  14.852
 4063SOL     OW14021   5.272   5.599   7.163
 4063SOL    HW114022   5.264   5.599   7.067
 4063SOL    HW214023   5.204   5.539   7.193
 4064SOL     OW14024   5.888  12.719   6.417
 4064SOL    HW114025   5.979  12.719   6.445
 4064SOL    HW214026   5.840  12.683   6.491
 4065SOL     OW14027   9.421   4.351   5.193
 4065SOL    HW114028   9.387   4.341   5.282
 4065SOL    HW214029   9.382   4.278   5.144
 4066SOL     OW14030   6.759   3.958   3.967
 4066SOL    HW114031   6.676   3.918   3.992
 4066SOL    HW214032   6.812   3.955   4.046
 4067SOL     OW14033   5.298  11.442   0.107
 4067SOL    HW114034   5.232  11.450   0.038
 4067SOL    HW214035   5.324  11.350   0.104
 4068SOL     OW14036   7.156  10.934   4.596
 4068SOL    HW114037   7.206  10.936   4.678
 4068SOL    HW214038   7.081  10.992   4.612
 4069SOL     OW14039  10.562  10.285   5.445
 4069SOL    HW114040  10.645  10.327   5.420
 4069SOL    HW214041  10.499  10.317   5.381
 4070SOL     OW14042   8.443   5.277   4.129
 4070SOL    HW114043   8.389   5.283   4.208
 4070SOL    HW214044   8.465   5.184   4.122
 4071SOL     OW14045   8.410   8.670   1.026
 4071SOL    HW114046   8.441   8.742   0.971
 4071SOL    HW214047   8.435   8.591   0.979
 4072SOL     OW14048   6.474  10.387   2.854
 4072SOL    HW114049   6.441  10.437   2.780
 4072SOL    HW214050   6.546  10.336   2.818
 4073SOL     OW14051   0.776  10.251   8.649
 4073SOL    HW114052   0.727  10.332   8.637
 4073SOL    HW214053   0.711  10.181   8.636
 4074SOL     OW14054   9.890  10.913  10.431
 4074SOL    HW114055   9.920  10.822  10.435
 4074SOL    HW214056   9.942  10.958  10.497
 4075SOL     OW14057   3.090   9.573   8.883
 4075SOL    HW114058   3.070   9.495   8.935
 4075SOL    HW214059   3.005   9.618   8.874
 4076SOL     OW14060   9.169  13.525   1.243
 4076SOL    HW114061   9.243  13.521   1.304
 4076SOL    HW214062   9.209  13.544   1.158
 4077SOL     OW14063   3.716   2.492  12.358
 4077SOL    HW114064   3.778   2.551  12.315
 4077SOL    HW214065   3.655   2.551  12.404
 4078SOL     OW14066   7.912   1.932   5.664
 4078SOL    HW114067   7.985   1.897   5.716
 4078SOL    HW214068   7.890   1.862   5.603
 4079SOL     OW14069   9.647   9.889  14.584
 4079SOL    HW114070   9.583   9.918  14.649
 4079SOL    HW214071   9.724   9.944  14.600
 4080SOL     OW14072   1.758  11.342   1.878
 4080SOL    HW114073   1.671  11.375   1.858
 4080SOL    HW214074   1.788  11.395   1.952
 4081SOL     OW14075  11.756   5.407   2.610
 4081SOL    HW114076  11.785   5.329   2.658
 4081SOL    HW214077  11.837   5.452   2.586
 4082SOL     OW14078   7.254  12.013  11.974
 4082SOL    HW114079   7.264  12.075  12.047
 4082SOL    HW214080   7.321  11.946  11.991
 4083SOL     OW14081   8.698   6.388   7.647
 4083SOL    HW114082   8.634   6.399   7.717
 4083SOL    HW214083   8.783   6.388   7.691
 4084SOL     OW14084  12.257   1.822   0.668
 4084SOL    HW114085  12.295   1.744   0.628
 4084SOL    HW214086  12.302   1.895   0.626
 4085SOL     OW14087   7.507  12.424  12.894
 4085SOL    HW114088   7.496  12.498  12.834
 4085SOL    HW214089   7.427  12.423  12.946
 4086SOL     OW14090   2.726   9.470   4.363
 4086SOL    HW114091   2.756   9.464   4.453
 4086SOL    HW214092   2.654   9.407   4.357
 4087SOL     OW14093   9.089  12.714  11.241
 4087SOL    HW114094   9.056  12.677  11.323
 4087SOL    HW214095   9.043  12.797  11.233
 4088SOL     OW14096   5.589   8.867   2.520
 4088SOL    HW114097   5.626   8.779   2.513
 4088SOL    HW214098   5.619   8.912   2.441
 4089SOL     OW14099   0.505  12.450   4.842
 4089SOL    HW114100   0.521  12.535   4.800
 4089SOL    HW214101   0.479  12.392   4.770
 4090SOL     OW14102   5.475   0.229   5.169
 4090SOL    HW114103   5.423   0.240   5.248
 4090SOL    HW214104   5.447   0.144   5.134
 4091SOL     OW14105  13.095   5.206   8.985
 4091SOL    HW114106  13.159   5.244   9.045
 4091SOL    HW214107  13.040   5.151   9.041
 4092SOL     OW14108   2.800  10.948   7.122
 4092SOL    HW114109   2.791  10.873   7.063
 4092SOL    HW214110   2.712  10.985   7.126
 4093SOL     OW14111   1.756  11.259  11.193
 4093SOL    HW114112   1.846  11.259  11.162
 4093SOL    HW214113   1.727  11.168  11.185
 4094SOL     OW14114   4.539  14.664   9.027
 4094SOL    HW114115   4.542  14.685   9.121
 4094SOL    HW214116   4.519  14.747   8.985
 4095SOL     OW14117  14.007  13.859  14.535
 4095SOL    HW114118  14.077  13.867  14.600
 4095SOL    HW214119  14.009  13.942  14.487
 4096SOL     OW14120   0.349  11.694   7.169
 4096SOL    HW114121   0.322  11.785   7.182
 4096SOL    HW214122   0.437  11.689   7.207
 4097SOL     OW14123  14.105   4.525   8.012
 4097SOL    HW114124  14.163   4.452   7.990
 4097SOL    HW214125  14.063   4.498   8.093
 4098SOL     OW14126  13.726   6.195   1.893
 4098SOL    HW114127  13.734   6.099   1.897
 4098SOL    HW214128  13.817   6.226   1.894
 4099SOL     OW14129  11.961  13.189   7.146
 4099SOL    HW114130  11.967  13.254   7.216
 4099SOL    HW214131  12.028  13.124   7.167
 4100SOL     OW14132  10.673  12.402   6.448
 4100SOL    HW114133  10.646  12.474   6.505
 4100SOL    HW214134  10.592  12.359   6.423
 4101SOL     OW14135  14.714   4.594   6.778
 4101SOL    HW114136  14.767   4.646   6.838
 4101SOL    HW214137  14.668   4.531   6.834
 4102SOL     OW14138   3.139   8.669   9.953
 4102SOL    HW114139   3.117   8.663  10.046
 4102SOL    HW214140   3.232   8.688   9.951
 4103SOL     OW14141  11.528   8.853   6.502
 4103SOL    HW114142  11.611   8.834   6.457
 4103SOL    HW214143  11.493   8.768   6.526
 4104SOL     OW14144   4.264   4.663  14.468
 4104SOL    HW114145   4.180   4.617  14.465
 4104SOL    HW214146   4.246   4.740  14.522
 4105SOL     OW14147   7.181   7.252   2.045
 4105SOL    HW114148   7.256   7.227   1.991
 4105SOL    HW214149   7.217   7.264   2.132
 4106SOL     OW14150  13.266   1.562   1.941
 4106SOL    HW114151  13.197   1.600   1.887
 4106SOL    HW214152  13.277   1.623   2.014
 4107SOL     OW14153  13.931   8.088   5.382
 4107SOL    HW114154  13.987   8.154   5.341
 4107SOL    HW214155  13.859   8.138   5.419
 4108SOL     OW14156   4.531  12.820  14.470
 4108SOL    HW114157   4.505  12.728  14.467
 4108SOL    HW214158   4.449  12.868  14.483
 4109SOL     OW14159  12.069   1.301   4.239
 4109SOL    HW114160  12.079   1.379   4.183
 4109SOL    HW214161  11.979   1.306   4.270
 4110SOL     OW14162   8.131   1.747   3.585
 4110SOL    HW114163   8.119   1.658   3.620
 4110SOL    HW214164   8.042   1.779   3.571
 4111SOL     OW14165  11.963  14.240   6.226
 4111SOL    HW114166  12.057  14.226   6.232
 4111SOL    HW214167  11.935  14.255   6.317
 4112SOL     OW14168  11.158   7.779   8.320
 4112SOL    HW114169  11.154   7.700   8.373
 4112SOL    HW214170  11.250   7.805   8.322
 4113SOL     OW14171  12.668   5.637   0.604
 4113SOL    HW114172  12.661   5.727   0.638
 4113SOL    HW214173  12.757   5.631   0.570
 4114SOL     OW14174   4.119  10.795  14.146
 4114SOL    HW114175   4.106  10.856  14.074
 4114SOL    HW214176   4.109  10.709  14.106
 4115SOL     OW14177   1.221  10.949  13.288
 4115SOL    HW114178   1.243  10.944  13.381
 4115SOL    HW214179   1.303  10.975  13.245
 4116SOL     OW14180  13.567   4.933   9.212
 4116SOL    HW114181  13.521   4.851   9.231
 4116SOL    HW214182  13.656   4.918   9.243
 4117SOL     OW14183   1.861   5.749  11.372
 4117SOL    HW114184   1.833   5.835  11.401
 4117SOL    HW214185   1.955   5.747  11.391
 4118SOL     OW14186  11.065   9.017   0.142
 4118SOL    HW114187  11.089   8.944   0.199
 4118SOL    HW214188  11.052   8.976   0.056
 4119SOL     OW14189   2.365   7.151   6.598
 4119SOL    HW114190   2.281   7.106   6.603
 4119SOL    HW214191   2.421   7.091   6.548
 4120SOL     OW14192   1.245  12.665   2.303
 4120SOL    HW114193   1.322  12.622   2.340
 4120SOL    HW214194   1.218  12.728   2.370
 4121SOL     OW14195  14.869  12.477  13.899
 4121SOL    HW114196   0.072  12.525  13.884
 4121SOL    HW214197  14.822  12.484  13.815
 4122SOL     OW14198  10.261   8.963  12.839
 4122SOL    HW114199  10.233   8.990  12.926
 4122SOL    HW214200  10.190   8.990  12.781
 4123SOL     OW14201   6.906   5.031  10.599
 4123SOL    HW114202   6.899   5.125  10.581
 4123SOL    HW214203   6.908   5.025  10.695
 4124SOL     OW14204  12.662   8.687   6.700
 4124SOL    HW114205  12.591   8.641   6.745
 4124SOL    HW214206  12.741   8.660   6.746
 4125SOL     OW14207  11.854   5.601   6.721
 4125SOL    HW114208  11.914   5.605   6.795
 4125SOL    HW214209  11.789   5.668   6.740
 4126SOL     OW14210   9.830   3.396   9.508
 4126SOL    HW114211   9.912   3.432   9.542
 4126SOL    HW214212   9.814   3.445   9.428
 4127SOL     OW14213   5.048   8.876   4.693
 4127SOL    HW114214   5.046   8.895   4.787
 4127SOL    HW214215   4.993   8.798   4.683
 4128SOL     OW14216  13.582  12.251   5.694
 4128SOL    HW114217  13.564  12.190   5.766
 4128SOL    HW214218  13.594  12.195   5.617
 4129SOL     OW14219  14.799  13.229   4.607
 4129SOL    HW114220  14.878  13.263   4.564
 4129SOL    HW214221  14.778  13.149   4.558
 4130SOL     OW14222  11.097  12.153  12.131
 4130SOL    HW114223  11.127  12.064  12.148
 4130SOL    HW214224  11.015  12.161  12.180
 4131SOL     OW14225   3.403  10.899   2.258
 4131SOL    HW114226   3.485  10.945   2.275
 4131SOL    HW214227   3.428  10.807   2.254
 4132SOL     OW14228   5.542  14.573   9.764
 4132SOL    HW114229   5.575  14.516   9.694
 4132SOL    HW214230   5.485  14.516   9.816
 4133SOL     OW14231   7.070  12.760   8.297
 4133SOL    HW114232   7.129  12.684   8.300
 4133SOL    HW214233   7.128  12.835   8.287
 4134SOL     OW14234   0.035   1.898   4.205
 4134SOL    HW114235   0.080   1.818   4.232
 4134SOL    HW214236   0.086   1.930   4.131
 4135SOL     OW14237  12.301  11.376   6.221
 4135SOL    HW114238  12.341  11.454   6.259
 4135SOL    HW214239  12.288  11.397   6.129
 4136SOL     OW14240  10.441   1.475   1.965
 4136SOL    HW114241  10.393   1.393   1.949
 4136SOL    HW214242  10.485   1.493   1.882
 4137SOL     OW14243   4.919  14.409   9.734
 4137SOL    HW114244   5.002  14.448   9.760
 4137SOL    HW214245   4.866  14.483   9.705
 4138SOL     OW14246   0.313   4.291   7.609
 4138SOL    HW114247   0.265   4.250   7.537
 4138SOL    HW214248   0.291   4.384   7.602
 4139SOL     OW14249   6.565   0.479   7.941
 4139SOL    HW114250   6.547   0.404   7.884
 4139SOL    HW214251   6.486   0.533   7.935
 4140SOL     OW14252   1.772  11.793   1.050
 4140SOL    HW114253   1.757  11.828   0.962
 4140SOL    HW214254   1.867  11.783   1.056
 4141SOL     OW14255   0.132   0.364   9.584
 4141SOL    HW114256   0.213   0.312   9.587
 4141SOL    HW214257   0.105   0.360   9.493
 4142SOL     OW14258   9.746  14.876   8.239
 4142SOL    HW114259   9.716  14.851   8.152
 4142SOL    HW214260   9.722   0.089   8.248
 4143SOL     OW14261  14.540   0.134  12.417
 4143SOL    HW114262  14.520   0.154  12.509
 4143SOL    HW214263  14.635   0.137  12.412
 4144SOL     OW14264   8.921   9.956   3.731
 4144SOL    HW114265   9.006   9.923   3.760
 4144SOL    HW214266   8.932  10.051   3.729
 4145SOL     OW14267   5.282  13.009   2.360
 4145SOL    HW114268   5.238  13.077   2.309
 4145SOL    HW214269   5.375  13.024   2.345
 4146SOL     OW14270  10.226   5.536   6.332
 4146SOL    HW114271  10.215   5.616   6.281
 4146SOL    HW214272  10.245   5.566   6.421
 4147SOL     OW14273   1.609  11.788   9.111
 4147SOL    HW114274   1.574  11.821   9.194
 4147SOL    HW214275   1.535  11.793   9.050
 4148SOL     OW14276   2.303  10.702  13.585
 4148SOL    HW114277   2.301  10.680  13.492
 4148SOL    HW214278   2.320  10.797  13.587
 4149SOL     OW14279   6.742   1.052   9.694
 4149SOL    HW114280   6.829   1.020   9.668
 4149SOL    HW214281   6.683   0.979   9.674
 4150SOL     OW14282  12.779  10.624  13.996
 4150SOL    HW114283  12.824  10.647  14.077
 4150SOL    HW214284  12.790  10.700  13.939
 4151SOL     OW14285  13.087   2.833  12.102
 4151SOL    HW114286  13.054   2.917  12.070
 4151SOL    HW214287  13.103   2.781  12.023
 4152SOL     OW14288   0.779  12.054   9.182
 4152SOL    HW114289   0.692  12.052   9.141
 4152SOL    HW214290   0.761  12.039   9.275
 4153SOL     OW14291   0.306   5.313   3.223
 4153SOL    HW114292   0.297   5.287   3.131
 4153SOL    HW214293   0.307   5.231   3.272
 4154SOL     OW14294   6.978  10.629   5.709
 4154SOL    HW114295   7.026  10.711   5.698
 4154SOL    HW214296   7.043  10.568   5.742
 4155SOL     OW14297  13.338   6.316  14.506
 4155SOL    HW114298  13.258   6.365  14.526
 4155SOL    HW214299  13.369   6.351  14.423
 4156SOL     OW14300   0.064  11.702  13.541
 4156SOL    HW114301   0.139  11.668  13.591
 4156SOL    HW214302   0.096  11.783  13.502
 4157SOL     OW14303  12.597   4.926  11.921
 4157SOL    HW114304  12.507   4.922  11.888
 4157SOL    HW214305  12.611   5.018  11.942
 4158SOL     OW14306   1.098   4.189   4.073
 4158SOL    HW114307   1.139   4.266   4.032
 4158SOL    HW214308   1.163   4.120   4.063
 4159SOL     OW14309  12.625  14.603   2.155
 4159SOL    HW114310  12.615  14.576   2.063
 4159SOL    HW214311  12.642  14.522   2.202
 4160SOL     OW14312   7.511  10.549   8.426
 4160SOL    HW114313   7.508  10.453   8.426
 4160SOL    HW214314   7.545  10.572   8.340
 4161SOL     OW14315  11.335   3.384   6.922
 4161SOL    HW114316  11.349   3.405   7.015
 4161SOL    HW214317  11.395   3.443   6.875
 4162SOL     OW14318   9.795   4.239  11.727
 4162SOL    HW114319   9.879   4.241  11.773
 4162SOL    HW214320   9.734   4.198  11.789
 4163SOL     OW14321   9.104   5.679   2.122
 4163SOL    HW114322   9.038   5.704   2.057
 4163SOL    HW214323   9.064   5.606   2.169
 4164SOL     OW14324  10.417   7.792   3.440
 4164SOL    HW114325  10.449   7.803   3.530
 4164SOL    HW214326  10.323   7.779   3.449
 4165SOL     OW14327   2.545   8.461   3.878
 4165SOL    HW114328   2.486   8.535   3.897
 4165SOL    HW214329   2.512   8.390   3.932
 4166SOL     OW14330   5.096   1.585   7.618
 4166SOL    HW114331   5.022   1.524   7.619
 4166SOL    HW214332   5.113   1.605   7.710
 4167SOL     OW14333   5.142  10.440   3.025
 4167SOL    HW114334   5.054  10.406   3.038
 4167SOL    HW214335   5.135  10.498   2.949
 4168SOL     OW14336  11.599  11.571   9.371
 4168SOL    HW114337  11.675  11.579   9.429
 4168SOL    HW214338  11.551  11.653   9.384
 4169SOL     OW14339   4.189   9.285   0.265
 4169SOL    HW114340   4.172   9.306   0.173
 4169SOL    HW214341   4.119   9.328   0.313
 4170SOL     OW14342  12.038  10.925  12.013
 4170SOL    HW114343  12.036  10.962  11.924
 4170SOL    HW214344  12.067  10.834  12.000
 4171SOL     OW14345   9.719   7.388  13.218
 4171SOL    HW114346   9.790   7.350  13.271
 4171SOL    HW214347   9.753   7.386  13.128
 4172SOL     OW14348  13.121   0.944   8.830
 4172SOL    HW114349  13.080   0.910   8.751
 4172SOL    HW214350  13.050   0.983   8.880
 4173SOL     OW14351  12.221   3.612  14.710
 4173SOL    HW114352  12.216   3.548  14.780
 4173SOL    HW214353  12.243   3.561  14.632
 4174SOL     OW14354   7.056   6.145   7.142
 4174SOL    HW114355   6.983   6.088   7.166
 4174SOL    HW214356   7.110   6.150   7.220
 4175SOL     OW14357   5.757   6.969   4.639
 4175SOL    HW114358   5.683   7.027   4.619
 4175SOL    HW214359   5.768   6.916   4.560
 4176SOL     OW14360   5.748   9.560  14.428
 4176SOL    HW114361   5.699   9.482  14.401
 4176SOL    HW214362   5.697   9.597  14.500
 4177SOL     OW14363   6.510   1.207  14.506
 4177SOL    HW114364   6.472   1.163  14.582
 4177SOL    HW214365   6.522   1.298  14.533
 4178SOL     OW14366   7.192  14.559   2.640
 4178SOL    HW114367   7.281  14.587   2.617
 4178SOL    HW214368   7.137  14.600   2.574
 4179SOL     OW14369  11.819   6.934   4.598
 4179SOL    HW114370  11.858   7.021   4.610
 4179SOL    HW214371  11.765   6.920   4.676
 4180SOL     OW14372   0.702   1.054  12.675
 4180SOL    HW114373   0.739   1.130  12.630
 4180SOL    HW214374   0.607   1.066  12.668
 4181SOL     OW14375   4.529   8.554   6.248
 4181SOL    HW114376   4.455   8.540   6.188
 4181SOL    HW214377   4.598   8.589   6.192
 4182SOL     OW14378   6.603  12.334   1.641
 4182SOL    HW114379   6.573  12.302   1.726
 4182SOL    HW214380   6.557  12.417   1.629
 4183SOL     OW14381   0.351  13.477   9.294
 4183SOL    HW114382   0.407  13.401   9.279
 4183SOL    HW214383   0.378  13.540   9.227
 4184SOL     OW14384   0.485   0.954   1.007
 4184SOL    HW114385   0.565   0.975   0.958
 4184SOL    HW214386   0.504   0.983   1.097
 4185SOL     OW14387   4.999  13.205  12.733
 4185SOL    HW114388   5.022  13.114  12.713
 4185SOL    HW214389   4.964  13.240  12.651
 4186SOL     OW14390   8.584   4.251   3.619
 4186SOL    HW114391   8.568   4.342   3.644
 4186SOL    HW214392   8.676   4.236   3.637
 4187SOL     OW14393  12.947   9.670   3.017
 4187SOL    HW114394  13.040   9.652   3.003
 4187SOL    HW214395  12.938   9.682   3.111
 4188SOL     OW14396   4.221   5.178  14.576
 4188SOL    HW114397   4.315   5.194  14.567
 4188SOL    HW214398   4.183   5.263  14.597
 4189SOL     OW14399   2.160   2.277  13.665
 4189SOL    HW114400   2.135   2.364  13.695
 4189SOL    HW214401   2.166   2.284  13.570
 4190SOL     OW14402   2.573  11.342   8.214
 4190SOL    HW114403   2.614  11.406   8.272
 4190SOL    HW214404   2.537  11.394   8.142
 4191SOL     OW14405   6.532  13.612   1.308
 4191SOL    HW114406   6.508  13.704   1.297
 4191SOL    HW214407   6.558  13.583   1.221
 4192SOL     OW14408   2.740  13.760  14.237
 4192SOL    HW114409   2.822  13.727  14.201
 4192SOL    HW214410   2.765  13.807  14.316
 4193SOL     OW14411  10.470   4.804   1.382
 4193SOL    HW114412  10.530   4.870   1.415
 4193SOL    HW214413  10.436   4.841   1.301
 4194SOL     OW14414  12.282   1.628   1.169
 4194SOL    HW114415  12.193   1.663   1.170
 4194SOL    HW214416  12.325   1.675   1.097
 4195SOL     OW14417   7.014   9.281  12.821
 4195SOL    HW114418   7.015   9.194  12.781
 4195SOL    HW214419   7.081   9.276  12.890
 4196SOL     OW14420   5.214   0.874   0.325
 4196SOL    HW114421   5.309   0.885   0.313
 4196SOL    HW214422   5.177   0.895   0.239
 4197SOL     OW14423   0.395   4.872   8.416
 4197SOL    HW114424   0.443   4.816   8.355
 4197SOL    HW214425   0.449   4.951   8.424
 4198SOL     OW14426   6.971   4.276   4.126
 4198SOL    HW114427   6.913   4.324   4.068
 4198SOL    HW214428   7.038   4.239   4.068
 4199SOL     OW14429   0.628   3.452  10.749
 4199SOL    HW114430   0.650   3.422  10.837
 4199SOL    HW214431   0.550   3.402  10.725
 4200SOL     OW14432   1.943  11.125   3.216
 4200SOL    HW114433   1.848  11.111   3.222
 4200SOL    HW214434   1.970  11.076   3.139
 4201SOL     OW14435   7.873  11.229   1.685
 4201SOL    HW114436   7.926  11.217   1.764
 4201SOL    HW214437   7.900  11.157   1.627
 4202SOL     OW14438   4.296   4.725   3.583
 4202SOL    HW114439   4.229   4.782   3.621
 4202SOL    HW214440   4.363   4.786   3.551
 4203SOL     OW14441   2.541  12.987  10.061
 4203SOL    HW114442   2.460  12.940  10.082
 4203SOL    HW214443   2.601  12.918  10.032
 4204SOL     OW14444   1.421   7.284   5.514
 4204SOL    HW114445   1.511   7.307   5.492
 4204SOL    HW214446   1.429   7.231   5.593
 4205SOL     OW14447  12.960  10.370   2.829
 4205SOL    HW114448  13.052  10.378   2.802
 4205SOL    HW214449  12.962  10.316   2.907
 4206SOL     OW14450   2.705   2.618   0.313
 4206SOL    HW114451   2.768   2.663   0.370
 4206SOL    HW214452   2.659   2.557   0.371
 4207SOL     OW14453   5.584   3.368   1.300
 4207SOL    HW114454   5.613   3.458   1.282
 4207SOL    HW214455   5.562   3.369   1.393
 4208SOL     OW14456   0.474  13.245   9.206
 4208SOL    HW114457   0.555  13.256   9.257
 4208SOL    HW214458   0.502  13.252   9.115
 4209SOL     OW14459   7.629   5.037  14.105
 4209SOL    HW114460   7.615   5.099  14.033
 4209SOL    HW214461   7.568   4.965  14.087
 4210SOL     OW14462  14.495  10.476   2.623
 4210SOL    HW114463  14.577  10.474   2.574
 4210SOL    HW214464  14.460  10.564   2.607
 4211SOL     OW14465  11.250  12.527   3.173
 4211SOL    HW114466  11.270  12.589   3.244
 4211SOL    HW214467  11.182  12.470   3.210
 4212SOL     OW14468   2.527   0.657   3.267
 4212SOL    HW114469   2.458   0.666   3.333
 4212SOL    HW214470   2.509   0.573   3.225
 4213SOL     OW14471   8.572  13.499  12.859
 4213SOL    HW114472   8.484  13.525  12.887
 4213SOL    HW214473   8.631  13.540  12.922
 4214SOL     OW14474   7.252   9.196   0.012
 4214SOL    HW114475   7.156   9.197   0.021
 4214SOL    HW214476   7.268   9.127  14.827
 4215SOL     OW14477   2.682   4.501   8.528
 4215SOL    HW114478   2.692   4.575   8.467
 4215SOL    HW214479   2.597   4.464   8.507
 4216SOL     OW14480   5.980   7.571   3.959
 4216SOL    HW114481   6.038   7.567   4.036
 4216SOL    HW214482   5.952   7.663   3.956
 4217SOL     OW14483   5.096   1.931   8.679
 4217SOL    HW114484   5.019   1.966   8.724
 4217SOL    HW214485   5.139   2.008   8.641
 4218SOL     OW14486   6.023   4.219  11.363
 4218SOL    HW114487   6.057   4.297  11.320
 4218SOL    HW214488   6.060   4.223  11.452
 4219SOL     OW14489   1.570  13.664   8.791
 4219SOL    HW114490   1.515  13.589   8.766
 4219SOL    HW214491   1.578  13.715   8.711
 4220SOL     OW14492   6.697  13.393  10.285
 4220SOL    HW114493   6.665  13.396  10.375
 4220SOL    HW214494   6.679  13.303  10.256
 4221SOL     OW14495  14.350   9.698   7.522
 4221SOL    HW114496  14.335   9.783   7.480
 4221SOL    HW214497  14.441   9.677   7.502
 4222SOL     OW14498   2.879  14.132  10.684
 4222SOL    HW114499   2.872  14.227  10.675
 4222SOL    HW214500   2.854  14.115  10.774
 4223SOL     OW14501   8.939   0.778  14.619
 4223SOL    HW114502   8.859   0.832  14.620
 4223SOL    HW214503   8.984   0.804  14.538
 4224SOL     OW14504   7.822   7.409   4.182
 4224SOL    HW114505   7.753   7.343   4.173
 4224SOL    HW214506   7.854   7.422   4.092
 4225SOL     OW14507   5.798  12.158   4.377
 4225SOL    HW114508   5.780  12.064   4.378
 4225SOL    HW214509   5.889  12.166   4.406
 4226SOL     OW14510  10.746  12.431  10.450
 4226SOL    HW114511  10.747  12.527  10.444
 4226SOL    HW214512  10.699  12.402  10.372
 4227SOL     OW14513   6.940   0.733  14.325
 4227SOL    HW114514   6.966   0.738  14.417
 4227SOL    HW214515   7.023   0.739  14.277
 4228SOL     OW14516   8.146  14.339  12.014
 4228SOL    HW114517   8.201  14.412  11.984
 4228SOL    HW214518   8.206  14.283  12.062
 4229SOL     OW14519   1.540   1.666   0.727
 4229SOL    HW114520   1.630   1.635   0.717
 4229SOL    HW214521   1.543   1.724   0.803
 4230SOL     OW14522   6.040  14.371   1.339
 4230SOL    HW114523   5.976  14.303   1.364
 4230SOL    HW214524   6.039  14.432   1.413
 4231SOL     OW14525   6.802   4.425  11.389
 4231SOL    HW114526   6.858   4.480  11.444
 4231SOL    HW214527   6.862   4.386  11.325
 4232SOL     OW14528   0.748  12.463   2.154
 4232SOL    HW114529   0.762  12.533   2.217
 4232SOL    HW214530   0.832  12.454   2.109
 4233SOL     OW14531   7.182   8.213   1.049
 4233SOL    HW114532   7.215   8.142   1.103
 4233SOL    HW214533   7.256   8.238   0.993
 4234SOL     OW14534   8.657  11.863   3.720
 4234SOL    HW114535   8.565  11.845   3.705
 4234SOL    HW214536   8.670  11.846   3.814
 4235SOL     OW14537   1.932   7.803   3.264
 4235SOL    HW114538   2.018   7.814   3.224
 4235SOL    HW214539   1.873   7.783   3.192
 4236SOL     OW14540   3.157   7.459  10.357
 4236SOL    HW114541   3.087   7.414  10.405
 4236SOL    HW214542   3.142   7.435  10.265
 4237SOL     OW14543   5.324  11.066   9.674
 4237SOL    HW114544   5.401  11.009   9.669
 4237SOL    HW214545   5.316  11.103   9.586
 4238SOL     OW14546   9.740   3.301   0.822
 4238SOL    HW114547   9.666   3.343   0.778
 4238SOL    HW214548   9.779   3.245   0.755
 4239SOL     OW14549   2.116   5.948  11.199
 4239SOL    HW114550   2.156   6.029  11.165
 4239SOL    HW214551   2.077   5.907  11.122
 4240SOL     OW14552   9.522   9.773  11.200
 4240SOL    HW114553   9.606   9.786  11.154
 4240SOL    HW214554   9.543   9.788  11.292
 4241SOL     OW14555  13.688  11.323  12.609
 4241SOL    HW114556  13.774  11.364  12.618
 4241SOL    HW214557  13.667  11.293  12.698
 4242SOL     OW14558   4.181   8.894   2.056
 4242SOL    HW114559   4.213   8.812   2.094
 4242SOL    HW214560   4.221   8.898   1.969
 4243SOL     OW14561   5.748   8.364   3.214
 4243SOL    HW114562   5.692   8.324   3.148
 4243SOL    HW214563   5.690   8.423   3.263
 4244SOL     OW14564   6.116   8.014   7.546
 4244SOL    HW114565   6.197   8.065   7.552
 4244SOL    HW214566   6.073   8.046   7.468
 4245SOL     OW14567  12.552   6.012   5.194
 4245SOL    HW114568  12.586   5.940   5.247
 4245SOL    HW214569  12.478   6.046   5.243
 4246SOL     OW14570   2.647   5.319   5.169
 4246SOL    HW114571   2.669   5.227   5.151
 4246SOL    HW214572   2.730   5.358   5.196
 4247SOL     OW14573   6.919   0.569   3.672
 4247SOL    HW114574   6.862   0.611   3.735
 4247SOL    HW214575   6.860   0.523   3.612
 4248SOL     OW14576   9.958   0.046   6.723
 4248SOL    HW114577   9.880   0.028   6.775
 4248SOL    HW214578   9.983   0.135   6.747
 4249SOL     OW14579  11.131   0.526   3.309
 4249SOL    HW114580  11.088   0.443   3.286
 4249SOL    HW214581  11.119   0.534   3.404
 4250SOL     OW14582  11.370   8.042  10.963
 4250SOL    HW114583  11.442   8.106  10.966
 4250SOL    HW214584  11.298   8.086  11.007
 4251SOL     OW14585   0.204   6.658   7.524
 4251SOL    HW114586   0.209   6.587   7.588
 4251SOL    HW214587   0.220   6.737   7.575
 4252SOL     OW14588   1.099  10.718  10.772
 4252SOL    HW114589   1.096  10.775  10.849
 4252SOL    HW214590   1.034  10.650  10.789
 4253SOL     OW14591   5.140   0.904  11.616
 4253SOL    HW114592   5.149   0.913  11.521
 4253SOL    HW214593   5.130   0.994  11.647
 4254SOL     OW14594   1.268   7.212  14.133
 4254SOL    HW114595   1.261   7.241  14.224
 4254SOL    HW214596   1.312   7.284  14.088
 4255SOL     OW14597   9.393   7.113   4.574
 4255SOL    HW114598   9.425   7.143   4.489
 4255SOL    HW214599   9.446   7.161   4.638
 4256SOL     OW14600   4.331  14.530   2.788
 4256SOL    HW114601   4.368  14.513   2.875
 4256SOL    HW214602   4.406  14.539   2.731
 4257SOL     OW14603   9.076  10.929   1.366
 4257SOL    HW114604   9.105  10.999   1.423
 4257SOL    HW214605   9.154  10.874   1.354
 4258SOL     OW14606  12.096  14.783   8.991
 4258SOL    HW114607  12.114  14.764   9.084
 4258SOL    HW214608  12.043  14.709   8.961
 4259SOL     OW14609  13.356  10.277  10.854
 4259SOL    HW114610  13.361  10.182  10.864
 4259SOL    HW214611  13.446  10.307  10.865
 4260SOL     OW14612   8.371   5.325   2.317
 4260SOL    HW114613   8.291   5.361   2.355
 4260SOL    HW214614   8.366   5.231   2.336
 4261SOL     OW14615  11.002   5.783   8.406
 4261SOL    HW114616  10.973   5.791   8.497
 4261SOL    HW214617  11.096   5.800   8.410
 4262SOL     OW14618   5.634   8.014   3.008
 4262SOL    HW114619   5.571   7.997   3.079
 4262SOL    HW214620   5.716   8.034   3.053
 4263SOL     OW14621  14.076   8.462   9.002
 4263SOL    HW114622  14.073   8.367   8.986
 4263SOL    HW214623  14.129   8.496   8.929
 4264SOL     OW14624   4.754   3.571   2.499
 4264SOL    HW114625   4.755   3.604   2.589
 4264SOL    HW214626   4.671   3.522   2.492
 4265SOL     OW14627  11.552  10.865  11.244
 4265SOL    HW114628  11.471  10.909  11.268
 4265SOL    HW214629  11.536  10.833  11.155
 4266SOL     OW14630   2.469   7.606   9.076
 4266SOL    HW114631   2.404   7.671   9.049
 4266SOL    HW214632   2.545   7.657   9.103
 4267SOL     OW14633  11.065   1.775   5.486
 4267SOL    HW114634  10.994   1.755   5.546
 4267SOL    HW214635  11.048   1.721   5.409
 4268SOL     OW14636  14.737   4.254   6.620
 4268SOL    HW114637  14.791   4.212   6.553
 4268SOL    HW214638  14.676   4.185   6.647
 4269SOL     OW14639   9.713   1.361  10.752
 4269SOL    HW114640   9.631   1.313  10.769
 4269SOL    HW214641   9.690   1.453  10.766
 4270SOL     OW14642   9.958  11.523   8.598
 4270SOL    HW114643   9.879  11.526   8.543
 4270SOL    HW214644   9.967  11.431   8.622
 4271SOL     OW14645   2.258  11.227   0.692
 4271SOL    HW114646   2.249  11.299   0.629
 4271SOL    HW214647   2.182  11.236   0.750
 4272SOL     OW14648   2.140  14.402  14.715
 4272SOL    HW114649   2.114  14.460  14.643
 4272SOL    HW214650   2.058  14.368  14.749
 4273SOL     OW14651   4.000   1.041   0.803
 4273SOL    HW114652   4.021   1.134   0.794
 4273SOL    HW214653   4.066   1.008   0.864
 4274SOL     OW14654   4.239   1.594   3.211
 4274SOL    HW114655   4.285   1.676   3.193
 4274SOL    HW214656   4.149   1.619   3.230
 4275SOL     OW14657   9.004  11.785   9.968
 4275SOL    HW114658   8.957  11.802   9.887
 4275SOL    HW214659   9.095  11.809   9.949
 4276SOL     OW14660   3.552   9.966  11.544
 4276SOL    HW114661   3.513  10.039  11.593
 4276SOL    HW214662   3.636   9.951  11.587
 4277SOL     OW14663   3.590  11.960   1.347
 4277SOL    HW114664   3.599  12.045   1.390
 4277SOL    HW214665   3.655  11.905   1.389
 4278SOL     OW14666  12.198  10.610  13.908
 4278SOL    HW114667  12.207  10.595  13.814
 4278SOL    HW214668  12.288  10.608  13.941
 4279SOL     OW14669  10.815   0.065   7.134
 4279SOL    HW114670  10.791   0.112   7.214
 4279SOL    HW214671  10.898   0.022   7.157
 4280SOL     OW14672  14.862   8.623   7.289
 4280SOL    HW114673   0.062   8.613   7.344
 4280SOL    HW214674  14.790   8.627   7.352
 4281SOL     OW14675   3.150   2.583  14.558
 4281SOL    HW114676   3.119   2.563  14.646
 4281SOL    HW214677   3.135   2.677  14.547
 4282SOL     OW14678   1.953   1.275   1.038
 4282SOL    HW114679   1.870   1.287   1.084
 4282SOL    HW214680   2.020   1.304   1.100
 4283SOL     OW14681   4.387   3.368  12.696
 4283SOL    HW114682   4.351   3.312  12.626
 4283SOL    HW214683   4.318   3.369  12.762
 4284SOL     OW14684   6.946   1.460   2.505
 4284SOL    HW114685   7.006   1.409   2.451
 4284SOL    HW214686   6.902   1.518   2.444
 4285SOL     OW14687   6.747  14.664  13.899
 4285SOL    HW114688   6.827  14.657  13.950
 4285SOL    HW214689   6.776  14.659  13.808
 4286SOL     OW14690   3.017  10.310   9.419
 4286SOL    HW114691   3.043  10.375   9.484
 4286SOL    HW214692   2.922  10.302   9.429
 4287SOL     OW14693   8.160   0.552   8.729
 4287SOL    HW114694   8.173   0.462   8.698
 4287SOL    HW214695   8.107   0.543   8.809
 4288SOL     OW14696   6.696   5.214   4.669
 4288SOL    HW114697   6.762   5.283   4.665
 4288SOL    HW214698   6.679   5.192   4.577
 4289SOL     OW14699  10.212   1.172  12.704
 4289SOL    HW114700  10.168   1.257  12.700
 4289SOL    HW214701  10.172   1.121  12.633
 4290SOL     OW14702   0.984   9.301  11.941
 4290SOL    HW114703   0.904   9.301  11.994
 4290SOL    HW214704   1.051   9.339  11.998
 4291SOL     OW14705   0.258   4.141  11.994
 4291SOL    HW114706   0.306   4.094  11.927
 4291SOL    HW214707   0.169   4.105  11.989
 4292SOL     OW14708  10.700  10.130   4.105
 4292SOL    HW114709  10.791  10.113   4.080
 4292SOL    HW214710  10.701  10.219   4.140
 4293SOL     OW14711   1.719   1.487  10.200
 4293SOL    HW114712   1.763   1.560  10.156
 4293SOL    HW214713   1.750   1.492  10.291
 4294SOL     OW14714   3.102   4.473   1.685
 4294SOL    HW114715   3.179   4.498   1.634
 4294SOL    HW214716   3.036   4.540   1.665
 4295SOL     OW14717   7.676   6.672   7.369
 4295SOL    HW114718   7.686   6.613   7.294
 4295SOL    HW214719   7.653   6.615   7.442
 4296SOL     OW14720  13.355  11.951   6.900
 4296SOL    HW114721  13.269  11.934   6.939
 4296SOL    HW214722  13.335  12.000   6.820
 4297SOL     OW14723  11.837   0.929   3.214
 4297SOL    HW114724  11.853   0.836   3.231
 4297SOL    HW214725  11.793   0.960   3.293
 4298SOL     OW14726   7.593  10.037   3.612
 4298SOL    HW114727   7.684  10.019   3.589
 4298SOL    HW214728   7.543   9.968   3.569
 4299SOL     OW14729  10.331   2.386   2.476
 4299SOL    HW114730  10.321   2.293   2.454
 4299SOL    HW214731  10.299   2.393   2.566
 4300SOL     OW14732   5.300   4.249  12.632
 4300SOL    HW114733   5.352   4.195  12.692
 4300SOL    HW214734   5.359   4.320  12.607
 4301SOL     OW14735  13.827   6.734   8.511
 4301SOL    HW114736  13.887   6.709   8.582
 4301SOL    HW214737  13.826   6.829   8.514
 4302SOL     OW14738  14.530   3.706  13.715
 4302SOL    HW114739  14.491   3.657  13.643
 4302SOL    HW214740  14.602   3.651  13.746
 4303SOL     OW14741   4.607  10.877  12.784
 4303SOL    HW114742   4.690  10.832  12.795
 4303SOL    HW214743   4.623  10.939  12.712
 4304SOL     OW14744   2.640   3.285  12.020
 4304SOL    HW114745   2.697   3.356  11.992
 4304SOL    HW214746   2.563   3.292  11.963
 4305SOL     OW14747  11.456   2.884   3.703
 4305SOL    HW114748  11.367   2.859   3.730
 4305SOL    HW214749  11.494   2.924   3.782
 4306SOL     OW14750   2.978   7.865  11.657
 4306SOL    HW114751   3.046   7.903  11.602
 4306SOL    HW214752   2.897   7.884  11.612
 4307SOL     OW14753  14.020   1.435   8.856
 4307SOL    HW114754  14.045   1.518   8.815
 4307SOL    HW214755  13.948   1.459   8.914
 4308SOL     OW14756   2.421   9.688  14.109
 4308SOL    HW114757   2.480   9.616  14.084
 4308SOL    HW214758   2.340   9.645  14.134
 4309SOL     OW14759  10.597  12.773  12.890
 4309SOL    HW114760  10.542  12.704  12.852
 4309SOL    HW214761  10.679  12.728  12.911
 4310SOL     OW14762   5.718   2.676   1.229
 4310SOL    HW114763   5.776   2.746   1.259
 4310SOL    HW214764   5.686   2.635   1.309
 4311SOL     OW14765  14.368  10.743   0.919
 4311SOL    HW114766  14.453  10.702   0.902
 4311SOL    HW214767  14.333  10.694   0.993
 4312SOL     OW14768   0.614   1.239   2.112
 4312SOL    HW114769   0.689   1.186   2.086
 4312SOL    HW214770   0.568   1.185   2.176
 4313SOL     OW14771   3.848   0.712   1.823
 4313SOL    HW114772   3.796   0.639   1.855
 4313SOL    HW214773   3.852   0.699   1.728
 4314SOL     OW14774  10.505   3.055   9.335
 4314SOL    HW114775  10.475   3.110   9.407
 4314SOL    HW214776  10.505   2.966   9.370
 4315SOL     OW14777   3.785   6.512   8.378
 4315SOL    HW114778   3.852   6.578   8.361
 4315SOL    HW214779   3.735   6.546   8.452
 4316SOL     OW14780   0.727   5.155   3.564
 4316SOL    HW114781   0.785   5.217   3.521
 4316SOL    HW214782   0.743   5.167   3.657
 4317SOL     OW14783   4.163   3.659   0.706
 4317SOL    HW114784   4.183   3.582   0.654
 4317SOL    HW214785   4.131   3.723   0.642
 4318SOL     OW14786  11.315  13.312   7.991
 4318SOL    HW114787  11.284  13.392   8.035
 4318SOL    HW214788  11.257  13.243   8.022
 4319SOL     OW14789   9.824   3.041   2.250
 4319SOL    HW114790   9.817   3.011   2.341
 4319SOL    HW214791   9.916   3.066   2.240
 4320SOL     OW14792   1.093  11.164   7.155
 4320SOL    HW114793   1.160  11.106   7.119
 4320SOL    HW214794   1.011  11.117   7.140
 4321SOL     OW14795  10.163  10.917   2.101
 4321SOL    HW114796  10.242  10.922   2.046
 4321SOL    HW214797  10.090  10.921   2.039
 4322SOL     OW14798   7.768   5.240   3.698
 4322SOL    HW114799   7.757   5.310   3.634
 4322SOL    HW214800   7.854   5.204   3.680
 4323SOL     OW14801  14.199   7.505   3.607
 4323SOL    HW114802  14.128   7.496   3.544
 4323SOL    HW214803  14.260   7.566   3.566
 4324SOL     OW14804   8.113  10.886  14.358
 4324SOL    HW114805   8.138  10.978  14.357
 4324SOL    HW214806   8.121  10.861  14.450
 4325SOL     OW14807   3.632  14.035   1.214
 4325SOL    HW114808   3.664  13.951   1.180
 4325SOL    HW214809   3.667  14.100   1.153
 4326SOL     OW14810   9.220   9.499   1.279
 4326SOL    HW114811   9.228   9.413   1.238
 4326SOL    HW214812   9.166   9.550   1.218
 4327SOL     OW14813   6.908  13.709   3.465
 4327SOL    HW114814   6.914  13.784   3.524
 4327SOL    HW214815   6.879  13.746   3.381
 4328SOL     OW14816   7.989   1.875   3.927
 4328SOL    HW114817   7.910   1.826   3.906
 4328SOL    HW214818   7.983   1.890   4.021
 4329SOL     OW14819   3.934   0.394  10.680
 4329SOL    HW114820   3.975   0.405  10.594
 4329SOL    HW214821   3.933   0.482  10.718
 4330SOL     OW14822   6.610  11.065   0.264
 4330SOL    HW114823   6.515  11.065   0.264
 4330SOL    HW214824   6.635  10.992   0.320
 4331SOL     OW14825   2.720  10.213  14.277
 4331SOL    HW114826   2.639  10.242  14.320
 4331SOL    HW214827   2.690  10.149  14.211
 4332SOL     OW14828   4.071   2.382   4.941
 4332SOL    HW114829   4.082   2.374   4.846
 4332SOL    HW214830   4.064   2.477   4.956
 4333SOL     OW14831   2.625  10.760   9.075
 4333SOL    HW114832   2.547  10.715   9.106
 4333SOL    HW214833   2.637  10.833   9.136
 4334SOL     OW14834  13.982   2.552   3.791
 4334SOL    HW114835  14.052   2.497   3.757
 4334SOL    HW214836  14.026   2.628   3.830
 4335SOL     OW14837  14.051   0.359   6.498
 4335SOL    HW114838  14.006   0.404   6.570
 4335SOL    HW214839  14.139   0.396   6.498
 4336SOL     OW14840  11.376  11.151  10.100
 4336SOL    HW114841  11.378  11.239  10.063
 4336SOL    HW214842  11.453  11.147  10.157
 4337SOL     OW14843   0.529   7.885  13.801
 4337SOL    HW114844   0.437   7.873  13.822
 4337SOL    HW214845   0.571   7.804  13.832
 4338SOL     OW14846   4.908   6.592  11.813
 4338SOL    HW114847   4.910   6.511  11.864
 4338SOL    HW214848   4.820   6.627  11.826
 4339SOL     OW14849  14.190  14.013   5.154
 4339SOL    HW114850  14.201  14.018   5.059
 4339SOL    HW214851  14.279  14.020   5.189
 4340SOL     OW14852   9.785   6.230   7.423
 4340SOL    HW114853   9.771   6.267   7.336
 4340SOL    HW214854   9.875   6.254   7.445
 4341SOL     OW14855   5.334   6.468   1.519
 4341SOL    HW114856   5.356   6.480   1.426
 4341SOL    HW214857   5.256   6.413   1.518
 4342SOL     OW14858  13.017   4.042   8.343
 4342SOL    HW114859  12.984   4.060   8.431
 4342SOL    HW214860  12.939   4.050   8.287
 4343SOL     OW14861   8.113  10.089   0.974
 4343SOL    HW114862   8.021  10.106   0.989
 4343SOL    HW214863   8.134  10.136   0.894
 4344SOL     OW14864   0.098  13.595   0.974
 4344SOL    HW114865   0.162  13.625   0.910
 4344SOL    HW214866   0.094  13.665   1.039
 4345SOL     OW14867  13.529  10.896  10.983
 4345SOL    HW114868  13.545  10.976  11.034
 4345SOL    HW214869  13.436  10.879  10.996
 4346SOL     OW14870  12.998   6.343  13.148
 4346SOL    HW114871  12.939   6.344  13.224
 4346SOL    HW214872  13.055   6.268  13.163
 4347SOL     OW14873  12.068  13.095   5.233
 4347SOL    HW114874  12.126  13.095   5.308
 4347SOL    HW214875  11.992  13.146   5.261
 4348SOL     OW14876   5.418  11.974   6.325
 4348SOL    HW114877   5.501  11.929   6.307
 4348SOL    HW214878   5.351  11.909   6.303
 4349SOL     OW14879  10.459   8.207   8.895
 4349SOL    HW114880  10.421   8.295   8.904
 4349SOL    HW214881  10.414   8.169   8.820
 4350SOL     OW14882   7.285   7.449  11.244
 4350SOL    HW114883   7.343   7.373  11.244
 4350SOL    HW214884   7.328   7.511  11.184
 4351SOL     OW14885   8.152  14.191   6.284
 4351SOL    HW114886   8.178  14.277   6.318
 4351SOL    HW214887   8.086  14.211   6.217
 4352SOL     OW14888   8.430   7.434  10.624
 4352SOL    HW114889   8.430   7.405  10.716
 4352SOL    HW214890   8.355   7.389  10.585
 4353SOL     OW14891   1.663   1.665   4.610
 4353SOL    HW114892   1.696   1.603   4.676
 4353SOL    HW214893   1.717   1.743   4.623
 4354SOL     OW14894   4.380  11.474  14.388
 4354SOL    HW114895   4.349  11.389  14.421
 4354SOL    HW214896   4.475  11.470  14.397
 4355SOL     OW14897   3.407   2.825   1.005
 4355SOL    HW114898   3.336   2.809   1.068
 4355SOL    HW214899   3.434   2.738   0.977
 4356SOL     OW14900   9.137   2.598   0.574
 4356SOL    HW114901   9.092   2.513   0.571
 4356SOL    HW214902   9.084   2.655   0.519
 4357SOL     OW14903  13.077   2.407   0.765
 4357SOL    HW114904  13.085   2.499   0.789
 4357SOL    HW214905  13.166   2.373   0.765
 4358SOL     OW14906   6.825  11.843   6.795
 4358SOL    HW114907   6.787  11.817   6.879
 4358SOL    HW214908   6.758  11.820   6.731
 4359SOL     OW14909   1.896  13.094  11.035
 4359SOL    HW114910   1.979  13.049  11.021
 4359SOL    HW214911   1.919  13.171  11.088
 4360SOL     OW14912   9.439   7.614  12.931
 4360SOL    HW114913   9.432   7.709  12.921
 4360SOL    HW214914   9.513   7.601  12.991
 4361SOL     OW14915   6.014   6.995  10.399
 4361SOL    HW114916   6.009   6.979  10.493
 4361SOL    HW214917   6.068   7.073  10.391
 4362SOL     OW14918   8.072   2.897   8.957
 4362SOL    HW114919   8.131   2.826   8.931
 4362SOL    HW214920   8.130   2.966   8.990
 4363SOL     OW14921  12.162  13.738  13.135
 4363SOL    HW114922  12.115  13.808  13.181
 4363SOL    HW214923  12.192  13.680  13.206
 4364SOL     OW14924  14.716   5.977   0.398
 4364SOL    HW114925  14.761   6.019   0.325
 4364SOL    HW214926  14.624   5.996   0.384
 4365SOL     OW14927   7.058   7.635   2.790
 4365SOL    HW114928   7.054   7.729   2.776
 4365SOL    HW214929   6.987   7.600   2.735
 4366SOL     OW14930   5.904   7.316  11.573
 4366SOL    HW114931   5.896   7.378  11.645
 4366SOL    HW214932   5.857   7.357  11.501
 4367SOL     OW14933   3.244   9.661   7.846
 4367SOL    HW114934   3.309   9.608   7.800
 4367SOL    HW214935   3.159   9.627   7.817
 4368SOL     OW14936  14.641   2.710   9.042
 4368SOL    HW114937  14.661   2.668   9.125
 4368SOL    HW214938  14.557   2.673   9.016
 4369SOL     OW14939   4.224   3.501   3.604
 4369SOL    HW114940   4.264   3.486   3.689
 4369SOL    HW214941   4.268   3.440   3.545
 4370SOL     OW14942   8.532   3.550   7.817
 4370SOL    HW114943   8.463   3.617   7.820
 4370SOL    HW214944   8.605   3.592   7.772
 4371SOL     OW14945   0.544   5.858   0.931
 4371SOL    HW114946   0.628   5.877   0.890
 4371SOL    HW214947   0.492   5.937   0.917
 4372SOL     OW14948  10.501   2.073   6.073
 4372SOL    HW114949  10.446   2.148   6.052
 4372SOL    HW214950  10.440   2.004   6.099
 4373SOL     OW14951   6.918   9.842   8.130
 4373SOL    HW114952   6.914   9.752   8.161
 4373SOL    HW214953   7.007   9.871   8.150
 4374SOL     OW14954  12.095   3.070   6.670
 4374SOL    HW114955  12.160   3.021   6.620
 4374SOL    HW214956  12.124   3.161   6.666
 4375SOL     OW14957   2.899   5.554   4.729
 4375SOL    HW114958   2.855   5.523   4.807
 4375SOL    HW214959   2.934   5.640   4.753
 4376SOL     OW14960   0.249  13.955   0.104
 4376SOL    HW114961   0.209  13.891   0.044
 4376SOL    HW214962   0.328  13.984   0.058
 4377SOL     OW14963  13.739  13.646   0.489
 4377SOL    HW114964  13.692  13.723   0.521
 4377SOL    HW214965  13.697  13.573   0.534
 4378SOL     OW14966   7.567  14.430   5.746
 4378SOL    HW114967   7.566  14.523   5.725
 4378SOL    HW214968   7.584  14.386   5.663
 4379SOL     OW14969   2.532   8.742   3.391
 4379SOL    HW114970   2.607   8.770   3.339
 4379SOL    HW214971   2.546   8.649   3.407
 4380SOL     OW14972   7.691   8.884  12.852
 4380SOL    HW114973   7.618   8.826  12.830
 4380SOL    HW214974   7.756   8.867  12.784
 4381SOL     OW14975  12.984   7.032   4.231
 4381SOL    HW114976  13.009   7.121   4.208
 4381SOL    HW214977  13.001   6.981   4.151
 4382SOL     OW14978  11.304   4.576   5.641
 4382SOL    HW114979  11.308   4.531   5.725
 4382SOL    HW214980  11.380   4.543   5.593
 4383SOL     OW14981   8.607  11.223  14.365
 4383SOL    HW114982   8.560  11.141  14.354
 4383SOL    HW214983   8.672  11.205  14.432
 4384SOL     OW14984  12.133  10.426   9.949
 4384SOL    HW114985  12.168  10.460   9.867
 4384SOL    HW214986  12.199  10.363   9.979
 4385SOL     OW14987   1.309  10.885   7.692
 4385SOL    HW114988   1.393  10.891   7.646
 4385SOL    HW214989   1.301  10.969   7.737
 4386SOL     OW14990  14.010   8.600   4.515
 4386SOL    HW114991  13.971   8.530   4.463
 4386SOL    HW214992  14.096   8.614   4.474
 4387SOL     OW14993  14.759  14.583   2.959
 4387SOL    HW114994  14.668  14.583   2.930
 4387SOL    HW214995  14.794  14.666   2.926
 4388SOL     OW14996  14.000   7.055   0.602
 4388SOL    HW114997  13.944   7.129   0.627
 4388SOL    HW214998  14.017   7.008   0.683
 4389SOL     OW14999   2.602   6.233  11.190
 4389SOL    HW115000   2.534   6.216  11.125
 4389SOL    HW215001   2.664   6.160  11.180
 4390SOL     OW15002   9.097  10.330   0.872
 4390SOL    HW115003   9.097  10.271   0.947
 4390SOL    HW215004   9.023  10.301   0.818
 4391SOL     OW15005   9.883  10.985   5.209
 4391SOL    HW115006   9.925  10.943   5.134
 4391SOL    HW215007   9.866  10.913   5.270
 4392SOL     OW15008   0.754   6.305  12.294
 4392SOL    HW115009   0.733   6.212  12.286
 4392SOL    HW215010   0.826   6.319  12.232
 4393SOL     OW15011   3.279   5.943   2.809
 4393SOL    HW115012   3.192   5.931   2.847
 4393SOL    HW215013   3.327   5.865   2.837
 4394SOL     OW15014  10.384  11.462  12.971
 4394SOL    HW115015  10.380  11.379  12.923
 4394SOL    HW215016  10.477  11.479  12.983
 4395SOL     OW15017   8.866  11.884  12.133
 4395SOL    HW115018   8.837  11.946  12.200
 4395SOL    HW215019   8.850  11.798  12.171
 4396SOL     OW15020   1.624   2.169  10.141
 4396SOL    HW115021   1.547   2.115  10.156
 4396SOL    HW215022   1.664   2.180  10.227
 4397SOL     OW15023   3.461   1.970  11.605
 4397SOL    HW115024   3.436   2.058  11.632
 4397SOL    HW215025   3.519   1.938  11.674
 4398SOL     OW15026  10.509  14.362  14.136
 4398SOL    HW115027  10.419  14.339  14.117
 4398SOL    HW215028  10.527  14.322  14.222
 4399SOL     OW15029  11.244   4.312   1.917
 4399SOL    HW115030  11.285   4.372   1.854
 4399SOL    HW215031  11.315   4.285   1.975
 4400SOL     OW15032  13.011   2.523   6.569
 4400SOL    HW115033  12.947   2.554   6.505
 4400SOL    HW215034  12.974   2.443   6.605
 4401SOL     OW15035  13.281   2.923   5.783
 4401SOL    HW115036  13.252   2.852   5.842
 4401SOL    HW215037  13.251   3.003   5.827
 4402SOL     OW15038   4.086   1.925  13.034
 4402SOL    HW115039   4.083   1.849  13.092
 4402SOL    HW215040   4.178   1.951  13.033
 4403SOL     OW15041   8.137  11.392   3.919
 4403SOL    HW115042   8.090  11.317   3.957
 4403SOL    HW215043   8.086  11.416   3.842
 4404SOL     OW15044   3.197   6.068   9.702
 4404SOL    HW115045   3.292   6.073   9.715
 4404SOL    HW215046   3.179   6.133   9.634
 4405SOL     OW15047   5.435   6.948  12.554
 4405SOL    HW115048   5.389   6.916  12.476
 4405SOL    HW215049   5.415   6.884  12.621
 4406SOL     OW15050   0.588   8.330   2.869
 4406SOL    HW115051   0.502   8.361   2.841
 4406SOL    HW215052   0.622   8.401   2.924
 4407SOL     OW15053  10.907   7.236   9.110
 4407SOL    HW115054  10.841   7.286   9.062
 4407SOL    HW215055  10.909   7.276   9.197
 4408SOL     OW15056   6.498   6.376   8.622
 4408SOL    HW115057   6.406   6.364   8.599
 4408SOL    HW215058   6.544   6.376   8.538
 4409SOL     OW15059   7.498   5.180   2.745
 4409SOL    HW115060   7.492   5.145   2.656
 4409SOL    HW215061   7.457   5.113   2.800
 4410SOL     OW15062   5.614  12.844  13.898
 4410SOL    HW115063   5.639  12.797  13.978
 4410SOL    HW215064   5.607  12.936  13.925
 4411SOL     OW15065   4.062   5.094   8.226
 4411SOL    HW115066   4.011   5.141   8.292
 4411SOL    HW215067   4.099   5.163   8.170
 4412SOL     OW15068   4.770  11.525  14.031
 4412SOL    HW115069   4.685  11.557  14.061
 4412SOL    HW215070   4.764  11.528  13.936
 4413SOL     OW15071  10.394   9.205   1.838
 4413SOL    HW115072  10.428   9.289   1.805
 4413SOL    HW215073  10.317   9.229   1.888
 4414SOL     OW15074  11.276   9.009  11.680
 4414SOL    HW115075  11.361   8.965  11.683
 4414SOL    HW215076  11.212   8.939  11.682
 4415SOL     OW15077   0.226   0.169  10.797
 4415SOL    HW115078   0.255   0.259  10.790
 4415SOL    HW215079   0.275   0.134  10.871
 4416SOL     OW15080   5.151   1.160  14.323
 4416SOL    HW115081   5.102   1.132  14.246
 4416SOL    HW215082   5.224   1.210  14.288
 4417SOL     OW15083   8.724  12.567   9.125
 4417SOL    HW115084   8.778  12.598   9.198
 4417SOL    HW215085   8.640  12.612   9.137
 4418SOL     OW15086   2.914   1.564   0.314
 4418SOL    HW115087   3.001   1.602   0.325
 4418SOL    HW215088   2.931   1.470   0.300
 4419SOL     OW15089   3.021   7.979   4.069
 4419SOL    HW115090   3.027   8.028   3.987
 4419SOL    HW215091   2.971   7.901   4.046
 4420SOL     OW15092   3.977   2.977   7.381
 4420SOL    HW115093   4.054   2.944   7.335
 4420SOL    HW215094   3.924   2.900   7.400
 4421SOL     OW15095  13.542   7.300  11.441
 4421SOL    HW115096  13.594   7.378  11.422
 4421SOL    HW215097  13.504   7.274  11.357
 4422SOL     OW15098   2.242   8.192   5.705
 4422SOL    HW115099   2.312   8.185   5.639
 4422SOL    HW215100   2.161   8.187   5.654
 4423SOL     OW15101   7.953   1.482  13.136
 4423SOL    HW115102   7.934   1.570  13.103
 4423SOL    HW215103   7.969   1.430  13.057
 4424SOL     OW15104   1.682   0.448   6.429
 4424SOL    HW115105   1.742   0.421   6.359
 4424SOL    HW215106   1.705   0.392   6.504
 4425SOL     OW15107  12.302   1.962   5.976
 4425SOL    HW115108  12.294   2.035   6.038
 4425SOL    HW215109  12.311   1.884   6.032
 4426SOL     OW15110   6.301  12.684   3.337
 4426SOL    HW115111   6.246  12.692   3.260
 4426SOL    HW215112   6.367  12.618   3.314
 4427SOL     OW15113   2.149   7.624   0.467
 4427SOL    HW115114   2.156   7.564   0.542
 4427SOL    HW215115   2.109   7.571   0.398
 4428SOL     OW15116   3.751  12.956   6.574
 4428SOL    HW115117   3.840  12.983   6.551
 4428SOL    HW215118   3.762  12.895   6.647
 4429SOL     OW15119   9.028   7.704   4.661
 4429SOL    HW115120   9.032   7.778   4.601
 4429SOL    HW215121   8.944   7.714   4.706
 4430SOL     OW15122  13.753  12.733  12.169
 4430SOL    HW115123  13.806  12.674  12.223
 4430SOL    HW215124  13.756  12.817  12.215
 4431SOL     OW15125   9.968   3.783   4.054
 4431SOL    HW115126   9.948   3.831   3.974
 4431SOL    HW215127   9.918   3.702   4.047
 4432SOL     OW15128  12.148   3.379   2.227
 4432SOL    HW115129  12.129   3.317   2.297
 4432SOL    HW215130  12.188   3.454   2.272
 4433SOL     OW15131   0.106   5.726   0.914
 4433SOL    HW115132   0.199   5.703   0.911
 4433SOL    HW215133   0.094   5.768   0.998
 4434SOL     OW15134   0.797  13.566   8.418
 4434SOL    HW115135   0.781  13.498   8.483
 4434SOL    HW215136   0.802  13.519   8.335
 4435SOL     OW15137  11.097   2.198   2.179
 4435SOL    HW115138  11.106   2.189   2.274
 4435SOL    HW215139  11.184   2.224   2.149
 4436SOL     OW15140   6.122   8.383   1.398
 4436SOL    HW115141   6.057   8.348   1.459
 4436SOL    HW215142   6.074   8.392   1.315
 4437SOL     OW15143   5.707  10.576   1.964
 4437SOL    HW115144   5.690  10.638   1.893
 4437SOL    HW215145   5.787  10.530   1.938
 4438SOL     OW15146   4.950  10.920   4.953
 4438SOL    HW115147   4.983  10.902   5.041
 4438SOL    HW215148   4.856  10.936   4.965
 4439SOL     OW15149  14.497  11.937   4.338
 4439SOL    HW115150  14.514  11.849   4.372
 4439SOL    HW215151  14.565  11.950   4.271
 4440SOL     OW15152  12.971  12.123  11.953
 4440SOL    HW115153  13.017  12.201  11.923
 4440SOL    HW215154  12.908  12.155  12.018
 4441SOL     OW15155   5.742   6.476  10.480
 4441SOL    HW115156   5.815   6.524  10.519
 4441SOL    HW215157   5.689   6.544  10.437
 4442SOL     OW15158  13.777   3.423   6.305
 4442SOL    HW115159  13.740   3.367   6.237
 4442SOL    HW215160  13.783   3.510   6.265
 4443SOL     OW15161   2.743   1.640   8.661
 4443SOL    HW115162   2.797   1.665   8.736
 4443SOL    HW215163   2.654   1.634   8.696
 4444SOL     OW15164   5.711  10.988   7.400
 4444SOL    HW115165   5.685  11.078   7.381
 4444SOL    HW215166   5.712  10.945   7.314
 4445SOL     OW15167   0.740   7.203   8.680
 4445SOL    HW115168   0.675   7.273   8.683
 4445SOL    HW215169   0.702   7.137   8.622
 4446SOL     OW15170   8.634  10.439  14.168
 4446SOL    HW115171   8.564  10.483  14.216
 4446SOL    HW215172   8.614  10.453  14.076
 4447SOL     OW15173   3.495   1.779  13.642
 4447SOL    HW115174   3.455   1.763  13.727
 4447SOL    HW215175   3.584   1.747  13.651
 4448SOL     OW15176  11.597   6.981   0.311
 4448SOL    HW115177  11.610   7.034   0.232
 4448SOL    HW215178  11.518   7.018   0.351
 4449SOL     OW15179   2.290   0.052   7.547
 4449SOL    HW115180   2.340   0.089   7.474
 4449SOL    HW215181   2.330  14.845   7.563
 4450SOL     OW15182   6.924   1.911  10.714
 4450SOL    HW115183   6.879   1.993  10.733
 4450SOL    HW215184   6.884   1.880  10.632
 4451SOL     OW15185  10.393   5.798   3.503
 4451SOL    HW115186  10.360   5.761   3.421
 4451SOL    HW215187  10.481   5.761   3.512
 4452SOL     OW15188   2.368  13.888  11.682
 4452SOL    HW115189   2.326  13.803  11.666
 4452SOL    HW215190   2.453  13.881  11.638
 4453SOL     OW15191  11.708   5.495   1.135
 4453SOL    HW115192  11.778   5.518   1.196
 4453SOL    HW215193  11.719   5.557   1.062
 4454SOL     OW15194  11.472   6.068   9.040
 4454SOL    HW115195  11.383   6.072   9.074
 4454SOL    HW215196  11.466   6.013   8.962
 4455SOL     OW15197   7.704  12.349   8.728
 4455SOL    HW115198   7.758  12.275   8.702
 4455SOL    HW215199   7.624  12.309   8.763
 4456SOL     OW15200   1.169  11.945   3.252
 4456SOL    HW115201   1.260  11.945   3.223
 4456SOL    HW215202   1.135  11.859   3.228
 4457SOL     OW15203   1.304  12.705   3.942
 4457SOL    HW115204   1.260  12.624   3.966
 4457SOL    HW215205   1.272  12.726   3.855
 4458SOL     OW15206   4.980   0.034  12.957
 4458SOL    HW115207   4.992  14.843  13.021
 4458SOL    HW215208   5.008   0.113  13.003
 4459SOL     OW15209   7.705   3.354   2.464
 4459SOL    HW115210   7.708   3.388   2.374
 4459SOL    HW215211   7.796   3.359   2.493
 4460SOL     OW15212  10.497   3.274  10.960
 4460SOL    HW115213  10.474   3.248  11.050
 4460SOL    HW215214  10.417   3.258  10.910
 4461SOL     OW15215   3.954  12.767   6.768
 4461SOL    HW115216   3.961  12.674   6.789
 4461SOL    HW215217   3.964  12.771   6.673
 4462SOL     OW15218   7.327   7.627   2.932
 4462SOL    HW115219   7.241   7.625   2.891
 4462SOL    HW215220   7.336   7.717   2.965
 4463SOL     OW15221   7.856   9.352   0.960
 4463SOL    HW115222   7.912   9.288   1.003
 4463SOL    HW215223   7.813   9.398   1.033
 4464SOL     OW15224   4.252   3.474   1.412
 4464SOL    HW115225   4.178   3.523   1.378
 4464SOL    HW215226   4.325   3.497   1.354
 4465SOL     OW15227   4.879   2.735   5.698
 4465SOL    HW115228   4.930   2.811   5.669
 4465SOL    HW215229   4.788   2.757   5.675
 4466SOL     OW15230   9.811  10.720   5.772
 4466SOL    HW115231   9.892  10.675   5.748
 4466SOL    HW215232   9.746  10.688   5.710
 4467SOL     OW15233  12.468   1.827   9.992
 4467SOL    HW115234  12.524   1.873  10.055
 4467SOL    HW215235  12.523   1.757   9.958
 4468SOL     OW15236   1.305  12.844  13.133
 4468SOL    HW115237   1.352  12.874  13.211
 4468SOL    HW215238   1.251  12.771  13.165
 4469SOL     OW15239   4.307  12.934   6.995
 4469SOL    HW115240   4.330  12.842   7.002
 4469SOL    HW215241   4.376  12.980   7.043
 4470SOL     OW15242   0.794   6.312  10.107
 4470SOL    HW115243   0.882   6.297  10.072
 4470SOL    HW215244   0.739   6.251  10.057
 4471SOL     OW15245   4.410   4.655   3.822
 4471SOL    HW115246   4.358   4.670   3.744
 4471SOL    HW215247   4.436   4.563   3.816
 4472SOL     OW15248  14.447   4.008   8.784
 4472SOL    HW115249  14.354   3.985   8.776
 4472SOL    HW215250  14.493   3.925   8.779
 4473SOL     OW15251   8.986   8.472   0.812
 4473SOL    HW115252   9.009   8.450   0.902
 4473SOL    HW215253   8.901   8.431   0.798
 4474SOL     OW15254   4.939   6.858  14.244
 4474SOL    HW115255   4.941   6.930  14.181
 4474SOL    HW215256   4.905   6.897  14.325
 4475SOL     OW15257   2.201  10.751   6.997
 4475SOL    HW115258   2.194  10.827   7.056
 4475SOL    HW215259   2.295  10.738   6.985
 4476SOL     OW15260   1.735  11.375   1.399
 4476SOL    HW115261   1.700  11.339   1.317
 4476SOL    HW215262   1.828  11.388   1.382
 4477SOL     OW15263  10.378  12.753   1.435
 4477SOL    HW115264  10.328  12.701   1.373
 4477SOL    HW215265  10.467  12.720   1.428
 4478SOL     OW15266   1.038  12.622   5.116
 4478SOL    HW115267   0.965  12.602   5.174
 4478SOL    HW215268   1.023  12.567   5.039
 4479SOL     OW15269  12.968  10.597   3.121
 4479SOL    HW115270  12.957  10.665   3.054
 4479SOL    HW215271  13.055  10.560   3.104
 4480SOL     OW15272   1.785   8.550  11.498
 4480SOL    HW115273   1.706   8.599  11.477
 4480SOL    HW215274   1.768   8.462  11.464
 4481SOL     OW15275   9.947   1.800   9.855
 4481SOL    HW115276   9.981   1.889   9.856
 4481SOL    HW215277   9.874   1.803   9.794
 4482SOL     OW15278  10.315   8.453   6.598
 4482SOL    HW115279  10.305   8.506   6.519
 4482SOL    HW215280  10.227   8.450   6.636
 4483SOL     OW15281   3.524  11.357   4.061
 4483SOL    HW115282   3.454  11.352   3.996
 4483SOL    HW215283   3.540  11.266   4.086
 4484SOL     OW15284  14.323  10.467   2.035
 4484SOL    HW115285  14.331  10.413   2.114
 4484SOL    HW215286  14.232  10.498   2.036
 4485SOL     OW15287   6.085  11.385   0.169
 4485SOL    HW115288   6.041  11.353   0.090
 4485SOL    HW215289   6.048  11.333   0.240
 4486SOL     OW15290  10.379   7.673  13.523
 4486SOL    HW115291  10.398   7.735  13.452
 4486SOL    HW215292  10.400   7.722  13.603
 4487SOL     OW15293   8.163  10.363  13.386
 4487SOL    HW115294   8.119  10.280  13.405
 4487SOL    HW215295   8.173  10.405  13.472
 4488SOL     OW15296  14.078  14.749   3.928
 4488SOL    HW115297  14.012  14.759   3.997
 4488SOL    HW215298  14.159  14.781   3.967
 4489SOL     OW15299   7.963   4.990   1.151
 4489SOL    HW115300   7.905   5.029   1.087
 4489SOL    HW215301   7.932   4.900   1.160
 4490SOL     OW15302  10.357  14.102   3.915
 4490SOL    HW115303  10.312  14.050   3.848
 4490SOL    HW215304  10.432  14.049   3.940
 4491SOL     OW15305  13.669   1.806  13.927
 4491SOL    HW115306  13.643   1.843  14.012
 4491SOL    HW215307  13.641   1.715  13.931
 4492SOL     OW15308   0.070   5.353  10.704
 4492SOL    HW115309   0.020   5.303  10.640
 4492SOL    HW215310   0.016   5.430  10.722
 4493SOL     OW15311   8.779  12.104   7.536
 4493SOL    HW115312   8.842  12.043   7.576
 4493SOL    HW215313   8.713  12.047   7.497
 4494SOL     OW15314   7.961   8.181  12.923
 4494SOL    HW115315   8.051   8.215  12.925
 4494SOL    HW215316   7.971   8.086  12.919
 4495SOL     OW15317  10.301  14.706   1.078
 4495SOL    HW115318  10.250  14.771   1.125
 4495SOL    HW215319  10.358  14.667   1.144
 4496SOL     OW15320  11.701  11.359   9.921
 4496SOL    HW115321  11.692  11.448   9.954
 4496SOL    HW215322  11.792  11.336   9.938
 4497SOL     OW15323   6.125   7.251  10.329
 4497SOL    HW115324   6.219   7.248  10.310
 4497SOL    HW215325   6.084   7.270  10.245
 4498SOL     OW15326   4.822  11.232  11.029
 4498SOL    HW115327   4.785  11.284  11.100
 4498SOL    HW215328   4.745  11.196  10.984
 4499SOL     OW15329   0.177  13.831   2.232
 4499SOL    HW115330   0.253  13.888   2.236
 4499SOL    HW215331   0.160  13.820   2.138
 4500SOL     OW15332   0.677   0.682   2.766
 4500SOL    HW115333   0.759   0.727   2.747
 4500SOL    HW215334   0.612   0.752   2.772
 4501SOL     OW15335   4.187   8.350   0.966
 4501SOL    HW115336   4.244   8.300   0.907
 4501SOL    HW215337   4.235   8.433   0.979
 4502SOL     OW15338   1.872   6.154   9.087
 4502SOL    HW115339   1.924   6.081   9.053
 4502SOL    HW215340   1.854   6.130   9.178
 4503SOL     OW15341   2.916   9.608  13.122
 4503SOL    HW115342   3.001   9.606  13.078
 4503SOL    HW215343   2.922   9.680  13.184
 4504SOL     OW15344  14.647   0.067  10.914
 4504SOL    HW115345  14.680  14.857  10.931
 4504SOL    HW215346  14.552   0.059  10.923
 4505SOL     OW15347   8.027  14.683  14.357
 4505SOL    HW115348   8.043  14.757  14.298
 4505SOL    HW215349   7.944  14.704  14.400
 4506SOL     OW15350   9.977   6.671   4.130
 4506SOL    HW115351  10.059   6.702   4.094
 4506SOL    HW215352   9.925   6.645   4.054
 4507SOL     OW15353  14.496  12.986   7.916
 4507SOL    HW115354  14.507  12.999   7.822
 4507SOL    HW215355  14.578  12.945   7.945
 4508SOL     OW15356  13.024  10.012   4.306
 4508SOL    HW115357  12.975  10.071   4.249
 4508SOL    HW215358  12.994  10.033   4.394
 4509SOL     OW15359   0.135   1.520  13.994
 4509SOL    HW115360   0.102   1.598  13.949
 4509SOL    HW215361   0.205   1.553  14.051
 4510SOL     OW15362  11.756  11.840   3.343
 4510SOL    HW115363  11.821  11.783   3.384
 4510SOL    HW215364  11.796  11.927   3.343
 4511SOL     OW15365   9.756   4.283  12.371
 4511SOL    HW115366   9.813   4.310  12.299
 4511SOL    HW215367   9.810   4.292  12.449
 4512SOL     OW15368   1.161  13.995   3.010
 4512SOL    HW115369   1.127  13.912   2.975
 4512SOL    HW215370   1.255  13.980   3.021
 4513SOL     OW15371  10.815   0.359   1.209
 4513SOL    HW115372  10.758   0.347   1.133
 4513SOL    HW215373  10.859   0.275   1.220
 4514SOL     OW15374   3.337   5.419   5.643
 4514SOL    HW115375   3.269   5.413   5.711
 4514SOL    HW215376   3.328   5.337   5.594
 4515SOL     OW15377   3.874   9.102  13.551
 4515SOL    HW115378   3.781   9.082  13.540
 4515SOL    HW215379   3.885   9.189  13.514
 4516SOL     OW15380  13.854   4.559  14.208
 4516SOL    HW115381  13.899   4.633  14.167
 4516SOL    HW215382  13.835   4.589  14.297
 4517SOL     OW15383   2.050   2.289   5.602
 4517SOL    HW115384   1.991   2.348   5.649
 4517SOL    HW215385   2.057   2.327   5.514
 4518SOL     OW15386   6.547   7.487   8.530
 4518SOL    HW115387   6.595   7.412   8.495
 4518SOL    HW215388   6.557   7.555   8.463
 4519SOL     OW15389   6.326   4.679   8.363
 4519SOL    HW115390   6.248   4.729   8.388
 4519SOL    HW215391   6.399   4.736   8.383
 4520SOL     OW15392   0.458  11.020   5.430
 4520SOL    HW115393   0.506  10.957   5.483
 4520SOL    HW215394   0.476  11.105   5.471
 4521SOL     OW15395   7.485   4.150  14.273
 4521SOL    HW115396   7.391   4.167  14.285
 4521SOL    HW215397   7.496   4.139  14.179
 4522SOL     OW15398  10.439   0.581  12.264
 4522SOL    HW115399  10.390   0.616  12.339
 4522SOL    HW215400  10.448   0.655  12.205
 4523SOL     OW15401   2.950  14.166   7.086
 4523SOL    HW115402   2.916  14.079   7.107
 4523SOL    HW215403   3.034  14.149   7.043
 4524SOL     OW15404   2.652   9.052   7.190
 4524SOL    HW115405   2.594   8.994   7.240
 4524SOL    HW215406   2.740   9.030   7.220
 4525SOL     OW15407  14.271   9.293  13.831
 4525SOL    HW115408  14.307   9.342  13.757
 4525SOL    HW215409  14.237   9.360  13.890
 4526SOL     OW15410   1.307   6.507   0.469
 4526SOL    HW115411   1.329   6.585   0.418
 4526SOL    HW215412   1.346   6.523   0.555
 4527SOL     OW15413  14.703   4.333   2.661
 4527SOL    HW115414  14.784   4.374   2.692
 4527SOL    HW215415  14.731   4.269   2.596
 4528SOL     OW15416   7.979   4.716   7.909
 4528SOL    HW115417   7.908   4.661   7.941
 4528SOL    HW215418   7.942   4.762   7.833
 4529SOL     OW15419   2.223   4.103   5.709
 4529SOL    HW115420   2.256   4.167   5.647
 4529SOL    HW215421   2.129   4.100   5.692
 4530SOL     OW15422   4.781   7.793   9.400
 4530SOL    HW115423   4.753   7.702   9.390
 4530SOL    HW215424   4.876   7.789   9.409
 4531SOL     OW15425   9.300  10.707   8.687
 4531SOL    HW115426   9.311  10.653   8.765
 4531SOL    HW215427   9.205  10.711   8.674
 4532SOL     OW15428  11.450   3.155  10.646
 4532SOL    HW115429  11.374   3.098  10.646
 4532SOL    HW215430  11.508   3.119  10.579
 4533SOL     OW15431   7.565   6.468  10.077
 4533SOL    HW115432   7.622   6.420  10.017
 4533SOL    HW215433   7.625   6.502  10.144
 4534SOL     OW15434   3.353   4.354   9.524
 4534SOL    HW115435   3.263   4.322   9.530
 4534SOL    HW215436   3.377   4.341   9.432
 4535SOL     OW15437   8.433   5.736   5.073
 4535SOL    HW115438   8.515   5.772   5.107
 4535SOL    HW215439   8.392   5.695   5.149
 4536SOL     OW15440   8.154   5.826  12.363
 4536SOL    HW115441   8.156   5.771  12.285
 4536SOL    HW215442   8.085   5.788  12.418
 4537SOL     OW15443   9.746   3.216  14.432
 4537SOL    HW115444   9.809   3.158  14.389
 4537SOL    HW215445   9.799   3.267  14.493
 4538SOL     OW15446  13.669   8.931   6.916
 4538SOL    HW115447  13.607   9.002   6.896
 4538SOL    HW215448  13.703   8.952   7.003
 4539SOL     OW15449  13.833  10.529  12.435
 4539SOL    HW115450  13.796  10.465  12.376
 4539SOL    HW215451  13.797  10.613  12.405
 4540SOL     OW15452  12.615   4.745  12.678
 4540SOL    HW115453  12.542   4.777  12.731
 4540SOL    HW215454  12.619   4.805  12.603
 4541SOL     OW15455  14.558   6.986   7.292
 4541SOL    HW115456  14.592   6.899   7.270
 4541SOL    HW215457  14.608   7.046   7.235
 4542SOL     OW15458  10.697  10.583   9.113
 4542SOL    HW115459  10.683  10.595   9.019
 4542SOL    HW215460  10.617  10.543   9.145
 4543SOL     OW15461   5.925   1.359   4.926
 4543SOL    HW115462   5.993   1.379   4.991
 4543SOL    HW215463   5.843   1.379   4.970
 4544SOL     OW15464   5.304   1.432   5.862
 4544SOL    HW115465   5.386   1.406   5.903
 4544SOL    HW215466   5.291   1.523   5.889
 4545SOL     OW15467   6.943  11.261   3.322
 4545SOL    HW115468   6.871  11.200   3.339
 4545SOL    HW215469   6.899  11.342   3.294
 4546SOL     OW15470   2.918   9.596   0.880
 4546SOL    HW115471   3.013   9.608   0.886
 4546SOL    HW215472   2.903   9.567   0.790
 4547SOL     OW15473   0.509  14.464   2.086
 4547SOL    HW115474   0.478  14.548   2.119
 4547SOL    HW215475   0.490  14.402   2.157
 4548SOL     OW15476  14.846   9.468  11.995
 4548SOL    HW115477   0.007   9.516  12.067
 4548SOL    HW215478  14.860   9.523  11.918
 4549SOL     OW15479   3.346  10.110  10.164
 4549SOL    HW115480   3.291  10.130  10.089
 4549SOL    HW215481   3.434  10.100  10.127
 4550SOL     OW15482   1.613   6.327   3.135
 4550SOL    HW115483   1.636   6.413   3.169
 4550SOL    HW215484   1.698   6.287   3.115
 4551SOL     OW15485   0.431   4.847   7.290
 4551SOL    HW115486   0.418   4.923   7.233
 4551SOL    HW215487   0.511   4.806   7.259
 4552SOL     OW15488   7.329  11.211  12.749
 4552SOL    HW115489   7.319  11.167  12.834
 4552SOL    HW215490   7.387  11.153  12.699
 4553SOL     OW15491   1.133   9.240   1.234
 4553SOL    HW115492   1.199   9.179   1.201
 4553SOL    HW215493   1.183   9.303   1.286
 4554SOL     OW15494   9.372  11.554  14.353
 4554SOL    HW115495   9.289  11.509  14.374
 4554SOL    HW215496   9.347  11.621  14.290
 4555SOL     OW15497  14.150  12.180   9.500
 4555SOL    HW115498  14.225  12.158   9.555
 4555SOL    HW215499  14.181  12.167   9.411
 4556SOL     OW15500   3.545  13.648   0.842
 4556SOL    HW115501   3.583  13.560   0.846
 4556SOL    HW215502   3.454  13.633   0.814
 4557SOL     OW15503   7.084   6.300   8.658
 4557SOL    HW115504   7.044   6.230   8.606
 4557SOL    HW215505   7.162   6.260   8.696
 4558SOL     OW15506   6.021   4.650   8.618
 4558SOL    HW115507   6.053   4.729   8.574
 4558SOL    HW215508   5.938   4.631   8.576
 4559SOL     OW15509   8.766   2.639   0.722
 4559SOL    HW115510   8.688   2.661   0.773
 4559SOL    HW215511   8.801   2.560   0.764
 4560SOL     OW15512   7.625  14.245  12.192
 4560SOL    HW115513   7.538  14.283  12.196
 4560SOL    HW215514   7.680  14.314  12.155
 4561SOL     OW15515   9.644   2.538   0.960
 4561SOL    HW115516   9.711   2.536   1.029
 4561SOL    HW215517   9.610   2.627   0.962
 4562SOL     OW15518   0.991  14.212   3.114
 4562SOL    HW115519   1.070  14.178   3.071
 4562SOL    HW215520   0.989  14.167   3.198
 4563SOL     OW15521  14.286  11.589   9.416
 4563SOL    HW115522  14.296  11.538   9.496
 4563SOL    HW215523  14.240  11.669   9.443
 4564SOL     OW15524   0.393  11.123   9.951
 4564SOL    HW115525   0.448  11.057   9.907
 4564SOL    HW215526   0.325  11.072   9.994
 4565SOL     OW15527  13.090   8.387   8.093
 4565SOL    HW115528  13.125   8.312   8.044
 4565SOL    HW215529  13.088   8.458   8.029
 4566SOL     OW15530   0.668  14.491  12.410
 4566SOL    HW115531   0.655  14.579  12.445
 4566SOL    HW215532   0.686  14.437  12.487
 4567SOL     OW15533  14.470   7.410  14.750
 4567SOL    HW115534  14.559   7.389  14.776
 4567SOL    HW215535  14.475   7.423  14.655
 4568SOL     OW15536  14.151  14.061   5.845
 4568SOL    HW115537  14.202  14.138   5.870
 4568SOL    HW215538  14.199  14.024   5.771
 4569SOL     OW15539   0.505   5.435   0.757
 4569SOL    HW115540   0.532   5.380   0.682
 4569SOL    HW215541   0.481   5.372   0.825
 4570SOL     OW15542  10.936   1.628   8.904
 4570SOL    HW115543  10.944   1.638   8.809
 4570SOL    HW215544  10.844   1.606   8.917
 4571SOL     OW15545   7.383   6.533   8.048
 4571SOL    HW115546   7.355   6.474   8.118
 4571SOL    HW215547   7.364   6.620   8.080
 4572SOL     OW15548  10.878   7.916  10.851
 4572SOL    HW115549  10.865   7.940  10.943
 4572SOL    HW215550  10.953   7.969  10.823
 4573SOL     OW15551  11.173   1.522   1.223
 4573SOL    HW115552  11.208   1.433   1.225
 4573SOL    HW215553  11.216   1.566   1.296
 4574SOL     OW15554   4.831   0.130  13.730
 4574SOL    HW115555   4.810   0.069  13.801
 4574SOL    HW215556   4.823   0.077  13.650
 4575SOL     OW15557   7.644   5.534  10.355
 4575SOL    HW115558   7.610   5.500  10.438
 4575SOL    HW215559   7.702   5.465  10.323
 4576SOL     OW15560   4.385   9.501   7.749
 4576SOL    HW115561   4.404   9.594   7.738
 4576SOL    HW215562   4.297   9.491   7.713
 4577SOL     OW15563  11.091   7.527   3.574
 4577SOL    HW115564  11.018   7.521   3.513
 4577SOL    HW215565  11.099   7.438   3.610
 4578SOL     OW15566   8.726  12.586   0.803
 4578SOL    HW115567   8.689  12.613   0.887
 4578SOL    HW215568   8.799  12.528   0.826
 4579SOL     OW15569  12.214   5.701   6.538
 4579SOL    HW115570  12.275   5.775   6.539
 4579SOL    HW215571  12.199   5.684   6.445
 4580SOL     OW15572  12.837   8.951   6.930
 4580SOL    HW115573  12.896   8.883   6.961
 4580SOL    HW215574  12.884   9.033   6.945
 4581SOL     OW15575  12.978   3.177  11.910
 4581SOL    HW115576  13.053   3.158  11.966
 4581SOL    HW215577  12.904   3.182  11.970
 4582SOL     OW15578   5.506   7.476   7.604
 4582SOL    HW115579   5.524   7.514   7.518
 4582SOL    HW215580   5.450   7.541   7.648
 4583SOL     OW15581  13.034   9.628   9.183
 4583SOL    HW115582  13.079   9.712   9.187
 4583SOL    HW215583  13.091   9.573   9.129
 4584SOL     OW15584   4.815   4.257  13.433
 4584SOL    HW115585   4.770   4.173  13.438
 4584SOL    HW215586   4.906   4.237  13.451
 4585SOL     OW15587   7.165   1.522   0.490
 4585SOL    HW115588   7.159   1.452   0.426
 4585SOL    HW215589   7.253   1.513   0.527
 4586SOL     OW15590  14.779  14.307   4.770
 4586SOL    HW115591  14.715  14.369   4.735
 4586SOL    HW215592  14.811  14.347   4.851
 4587SOL     OW15593   3.773  12.589   2.565
 4587SOL    HW115594   3.725  12.640   2.501
 4587SOL    HW215595   3.771  12.499   2.530
 4588SOL     OW15596   6.936   0.255   0.430
 4588SOL    HW115597   6.853   0.215   0.403
 4588SOL    HW215598   7.003   0.196   0.396
 4589SOL     OW15599   9.367  13.090   3.498
 4589SOL    HW115600   9.455  13.090   3.536
 4589SOL    HW215601   9.350  13.182   3.477
 4590SOL     OW15602   5.877  10.051   9.924
 4590SOL    HW115603   5.934   9.976   9.944
 4590SOL    HW215604   5.910  10.121   9.981
 4591SOL     OW15605   4.201   2.301   9.069
 4591SOL    HW115606   4.275   2.334   9.017
 4591SOL    HW215607   4.192   2.209   9.043
 4592SOL     OW15608   5.998  13.253  14.444
 4592SOL    HW115609   6.091  13.265  14.462
 4592SOL    HW215610   5.986  13.286  14.355
 4593SOL     OW15611   0.530   7.574   4.940
 4593SOL    HW115612   0.567   7.557   4.853
 4593SOL    HW215613   0.482   7.494   4.962
 4594SOL     OW15614  13.019   8.941  11.348
 4594SOL    HW115615  12.955   8.873  11.369
 4594SOL    HW215616  12.972   9.023  11.362
 4595SOL     OW15617   3.258   1.261  14.081
 4595SOL    HW115618   3.163   1.259  14.072
 4595SOL    HW215619   3.289   1.300  14.000
 4596SOL     OW15620   5.785   4.877   3.956
 4596SOL    HW115621   5.759   4.929   4.032
 4596SOL    HW215622   5.706   4.872   3.902
 4597SOL     OW15623  12.820  13.452  14.058
 4597SOL    HW115624  12.837  13.516  14.127
 4597SOL    HW215625  12.791  13.505  13.983
 4598SOL     OW15626  10.295   4.005  13.703
 4598SOL    HW115627  10.272   4.070  13.636
 4598SOL    HW215628  10.254   4.038  13.783
 4599SOL     OW15629  12.377   5.004  13.518
 4599SOL    HW115630  12.385   4.917  13.480
 4599SOL    HW215631  12.307   5.046  13.468
 4600SOL     OW15632   8.204   6.180   7.752
 4600SOL    HW115633   8.252   6.148   7.829
 4600SOL    HW215634   8.135   6.115   7.738
 4601SOL     OW15635  13.525  14.443  10.223
 4601SOL    HW115636  13.544  14.365  10.170
 4601SOL    HW215637  13.532  14.516  10.161
 4602SOL     OW15638  10.346   1.061   2.056
 4602SOL    HW115639  10.289   1.039   2.130
 4602SOL    HW215640  10.430   1.083   2.096
 4603SOL     OW15641  14.018   3.350   6.890
 4603SOL    HW115642  14.048   3.435   6.923
 4603SOL    HW215643  14.097   3.310   6.853
 4604SOL     OW15644   5.691  10.017   3.528
 4604SOL    HW115645   5.780  10.030   3.559
 4604SOL    HW215646   5.638  10.073   3.585
 4605SOL     OW15647   3.909   1.941  14.790
 4605SOL    HW115648   3.979   1.887  14.826
 4605SOL    HW215649   3.867   1.884  14.725
 4606SOL     OW15650   9.046   4.475  13.632
 4606SOL    HW115651   9.101   4.420  13.576
 4606SOL    HW215652   9.106   4.540  13.668
 4607SOL     OW15653   0.323  10.623   7.486
 4607SOL    HW115654   0.312  10.658   7.575
 4607SOL    HW215655   0.245  10.568   7.473
 4608SOL     OW15656  10.062  13.478   0.290
 4608SOL    HW115657  10.012  13.456   0.211
 4608SOL    HW215658  10.003  13.533   0.341
 4609SOL     OW15659  12.576  13.002   7.378
 4609SOL    HW115660  12.609  13.085   7.343
 4609SOL    HW215661  12.645  12.939   7.356
 4610SOL     OW15662   3.131   4.179   8.519
 4610SOL    HW115663   3.172   4.119   8.582
 4610SOL    HW215664   3.049   4.205   8.562
 4611SOL     OW15665   2.889   7.440  14.350
 4611SOL    HW115666   2.977   7.433  14.313
 4611SOL    HW215667   2.879   7.360  14.402
 4612SOL     OW15668   0.948  12.321   7.561
 4612SOL    HW115669   0.892  12.258   7.516
 4612SOL    HW215670   0.971  12.278   7.643
 4613SOL     OW15671   8.909   2.541   1.545
 4613SOL    HW115672   8.931   2.620   1.596
 4613SOL    HW215673   8.991   2.518   1.501
 4614SOL     OW15674   8.278   6.493   7.026
 4614SOL    HW115675   8.325   6.523   7.104
 4614SOL    HW215676   8.347   6.458   6.969
 4615SOL     OW15677   6.222   6.986   7.065
 4615SOL    HW115678   6.258   7.009   7.151
 4615SOL    HW215679   6.178   7.066   7.036
 4616SOL     OW15680   0.803  11.491  13.822
 4616SOL    HW115681   0.718  11.520  13.856
 4616SOL    HW215682   0.782  11.449  13.738
 4617SOL     OW15683   3.996  13.942   1.527
 4617SOL    HW115684   4.038  14.022   1.557
 4617SOL    HW215685   3.978  13.957   1.434
 4618SOL     OW15686   9.656   5.996  12.563
 4618SOL    HW115687   9.669   6.009  12.469
 4618SOL    HW215688   9.606   5.915  12.569
 4619SOL     OW15689  12.586   1.872   9.627
 4619SOL    HW115690  12.616   1.782   9.643
 4619SOL    HW215691  12.540   1.896   9.707
 4620SOL     OW15692  14.109  11.739   0.507
 4620SOL    HW115693  14.111  11.646   0.533
 4620SOL    HW215694  14.149  11.785   0.581
 4621SOL     OW15695   7.152   5.952   1.811
 4621SOL    HW115696   7.156   5.927   1.719
 4621SOL    HW215697   7.224   5.904   1.852
 4622SOL     OW15698   4.697  13.819  12.673
 4622SOL    HW115699   4.752  13.827  12.595
 4622SOL    HW215700   4.607  13.821  12.640
 4623SOL     OW15701  14.787   3.204   3.718
 4623SOL    HW115702  14.716   3.268   3.715
 4623SOL    HW215703  14.744   3.120   3.705
 4624SOL     OW15704   0.507   4.072   0.274
 4624SOL    HW115705   0.494   4.015   0.199
 4624SOL    HW215706   0.579   4.130   0.248
 4625SOL     OW15707  12.971   9.501   9.413
 4625SOL    HW115708  12.962   9.567   9.344
 4625SOL    HW215709  13.061   9.471   9.406
 4626SOL     OW15710   0.183  12.484   7.621
 4626SOL    HW115711   0.246  12.468   7.551
 4626SOL    HW215712   0.130  12.405   7.625
 4627SOL     OW15713   6.005   2.561  12.258
 4627SOL    HW115714   6.080   2.514  12.295
 4627SOL    HW215715   5.974   2.505  12.187
 4628SOL     OW15716   2.892   7.083   4.468
 4628SOL    HW115717   2.933   7.032   4.398
 4628SOL    HW215718   2.965   7.109   4.524
 4629SOL     OW15719   0.099  12.150   6.665
 4629SOL    HW115720   0.185  12.130   6.629
 4629SOL    HW215721   0.042  12.080   6.633
 4630SOL     OW15722   3.519  11.146   3.175
 4630SOL    HW115723   3.572  11.225   3.186
 4630SOL    HW215724   3.433  11.179   3.148
 4631SOL     OW15725  13.492   3.248   0.905
 4631SOL    HW115726  13.457   3.310   0.841
 4631SOL    HW215727  13.494   3.297   0.987
 4632SOL     OW15728  12.767  13.654  10.345
 4632SOL    HW115729  12.756  13.672  10.438
 4632SOL    HW215730  12.690  13.693  10.304
 4633SOL     OW15731   1.879   9.258   9.342
 4633SOL    HW115732   1.828   9.226   9.267
 4633SOL    HW215733   1.966   9.219   9.330
 4634SOL     OW15734   4.486   7.314  12.275
 4634SOL    HW115735   4.402   7.358  12.260
 4634SOL    HW215736   4.463   7.234  12.321
 4635SOL     OW15737   4.258  10.073   7.279
 4635SOL    HW115738   4.289  10.154   7.238
 4635SOL    HW215739   4.262  10.008   7.208
 4636SOL     OW15740  14.138   8.293   2.635
 4636SOL    HW115741  14.135   8.252   2.548
 4636SOL    HW215742  14.096   8.229   2.693
 4637SOL     OW15743  12.472   9.788   7.903
 4637SOL    HW115744  12.436   9.713   7.858
 4637SOL    HW215745  12.511   9.841   7.834
 4638SOL     OW15746   3.797   4.789  13.313
 4638SOL    HW115747   3.851   4.758  13.241
 4638SOL    HW215748   3.709   4.755  13.294
 4639SOL     OW15749   1.435   6.929  11.339
 4639SOL    HW115750   1.524   6.909  11.310
 4639SOL    HW215751   1.422   7.021  11.315
 4640SOL     OW15752   8.949   6.487  13.819
 4640SOL    HW115753   8.885   6.552  13.848
 4640SOL    HW215754   8.938   6.484  13.724
 4641SOL     OW15755   8.017   4.374   2.628
 4641SOL    HW115756   8.062   4.339   2.551
 4641SOL    HW215757   8.059   4.331   2.702
 4642SOL     OW15758   0.962   7.752   1.330
 4642SOL    HW115759   0.879   7.711   1.305
 4642SOL    HW215760   0.996   7.697   1.400
 4643SOL     OW15761   1.394   9.354   1.955
 4643SOL    HW115762   1.388   9.434   2.007
 4643SOL    HW215763   1.304   9.322   1.951
 4644SOL     OW15764   8.223   9.981  13.235
 4644SOL    HW115765   8.191  10.034  13.308
 4644SOL    HW215766   8.181   9.896  13.246
 4645SOL     OW15767   3.533   9.681   9.011
 4645SOL    HW115768   3.479   9.612   9.050
 4645SOL    HW215769   3.562   9.734   9.085
 4646SOL     OW15770   0.362  12.183   0.628
 4646SOL    HW115771   0.439  12.208   0.576
 4646SOL    HW215772   0.389  12.103   0.673
 4647SOL     OW15773  13.008   3.397  10.441
 4647SOL    HW115774  13.019   3.364  10.530
 4647SOL    HW215775  12.997   3.491  10.451
 4648SOL     OW15776   0.524  14.746   0.116
 4648SOL    HW115777   0.500  14.729   0.025
 4648SOL    HW215778   0.615  14.776   0.112
 4649SOL     OW15779   8.169  11.907   9.606
 4649SOL    HW115780   8.220  11.897   9.525
 4649SOL    HW215781   8.125  11.823   9.618
 4650SOL     OW15782   9.609  11.912   4.795
 4650SOL    HW115783   9.622  11.852   4.868
 4650SOL    HW215784   9.542  11.870   4.741
 4651SOL     OW15785   2.971  14.513  11.184
 4651SOL    HW115786   2.936  14.461  11.257
 4651SOL    HW215787   2.963  14.604  11.214
 4652SOL     OW15788  13.328  11.552   9.081
 4652SOL    HW115789  13.289  11.608   9.148
 4652SOL    HW215790  13.255  11.499   9.049
 4653SOL     OW15791   3.843   0.628   4.038
 4653SOL    HW115792   3.912   0.594   3.981
 4653SOL    HW215793   3.833   0.720   4.011
 4654SOL     OW15794  14.276  11.470   2.016
 4654SOL    HW115795  14.309  11.554   1.984
 4654SOL    HW215796  14.221  11.494   2.091
 4655SOL     OW15797   6.667  14.511   6.976
 4655SOL    HW115798   6.609  14.542   6.906
 4655SOL    HW215799   6.755  14.535   6.947
 4656SOL     OW15800  11.099  10.736  11.547
 4656SOL    HW115801  11.049  10.722  11.627
 4656SOL    HW215802  11.033  10.739  11.478
 4657SOL     OW15803   4.929  11.597  13.341
 4657SOL    HW115804   5.008  11.550  13.367
 4657SOL    HW215805   4.872  11.592  13.418
 4658SOL     OW15806  14.842   1.133   6.620
 4658SOL    HW115807   0.043   1.145   6.671
 4658SOL    HW215808  14.873   1.121   6.530
 4659SOL     OW15809  10.409   3.729   5.159
 4659SOL    HW115810  10.382   3.753   5.070
 4659SOL    HW215811  10.355   3.784   5.216
 4660SOL     OW15812   9.169  13.986  10.170
 4660SOL    HW115813   9.217  14.012  10.091
 4660SOL    HW215814   9.094  13.936  10.137
 4661SOL     OW15815  13.235   8.502   7.477
 4661SOL    HW115816  13.164   8.544   7.525
 4661SOL    HW215817  13.196   8.479   7.392
 4662SOL     OW15818  10.118   7.469   1.277
 4662SOL    HW115819  10.154   7.491   1.191
 4662SOL    HW215820  10.055   7.399   1.260
 4663SOL     OW15821   8.300  10.994  12.517
 4663SOL    HW115822   8.280  11.081  12.484
 4663SOL    HW215823   8.395  10.993  12.527
 4664SOL     OW15824   7.049   0.432  12.684
 4664SOL    HW115825   7.041   0.351  12.735
 4664SOL    HW215826   7.098   0.492  12.742
 4665SOL     OW15827   6.689   6.275  10.826
 4665SOL    HW115828   6.654   6.324  10.752
 4665SOL    HW215829   6.756   6.333  10.864
 4666SOL     OW15830  11.369   6.441   1.388
 4666SOL    HW115831  11.458   6.406   1.398
 4666SOL    HW215832  11.315   6.365   1.369
 4667SOL     OW15833   3.002  13.547   0.542
 4667SOL    HW115834   3.029  13.505   0.460
 4667SOL    HW215835   3.017  13.480   0.609
 4668SOL     OW15836  12.962  11.415   0.872
 4668SOL    HW115837  12.947  11.447   0.961
 4668SOL    HW215838  12.894  11.458   0.819
 4669SOL     OW15839  12.699   9.276   9.159
 4669SOL    HW115840  12.617   9.265   9.111
 4669SOL    HW215841  12.700   9.368   9.184
 4670SOL     OW15842   9.104   8.637  10.368
 4670SOL    HW115843   9.096   8.547  10.401
 4670SOL    HW215844   9.026   8.650  10.315
 4671SOL     OW15845  10.151  13.492   6.124
 4671SOL    HW115846  10.187  13.404   6.137
 4671SOL    HW215847  10.086  13.481   6.056
 4672SOL     OW15848   7.168   8.620   5.872
 4672SOL    HW115849   7.220   8.594   5.796
 4672SOL    HW215850   7.101   8.678   5.837
 4673SOL     OW15851   3.488   6.495   1.018
 4673SOL    HW115852   3.452   6.482   0.930
 4673SOL    HW215853   3.503   6.407   1.051
 4674SOL     OW15854   0.316  13.613  12.756
 4674SOL    HW115855   0.226  13.636  12.732
 4674SOL    HW215856   0.362  13.605  12.673
 4675SOL     OW15857  13.172  12.010  12.238
 4675SOL    HW115858  13.227  11.934  12.255
 4675SOL    HW215859  13.115  11.983  12.165
 4676SOL     OW15860   4.128  10.841   4.602
 4676SOL    HW115861   4.067  10.906   4.565
 4676SOL    HW215862   4.132  10.772   4.535
 4677SOL     OW15863   6.298  11.949  12.423
 4677SOL    HW115864   6.380  11.991  12.395
 4677SOL    HW215865   6.315  11.920  12.512
 4678SOL     OW15866   9.925   0.529  13.522
 4678SOL    HW115867   9.864   0.456  13.510
 4678SOL    HW215868   9.894   0.574  13.600
 4679SOL     OW15869   0.696  13.761  11.881
 4679SOL    HW115870   0.738  13.678  11.904
 4679SOL    HW215871   0.760  13.828  11.905
 4680SOL     OW15872   7.893   9.315  12.374
 4680SOL    HW115873   7.805   9.352  12.368
 4680SOL    HW215874   7.940   9.375  12.432
 4681SOL     OW15875   6.407  13.678   8.649
 4681SOL    HW115876   6.430  13.741   8.581
 4681SOL    HW215877   6.378  13.600   8.602
 4682SOL     OW15878  14.165   5.743   9.678
 4682SOL    HW115879  14.113   5.799   9.621
 4682SOL    HW215880  14.161   5.787   9.764
 4683SOL     OW15881  14.025   7.568  11.876
 4683SOL    HW115882  13.975   7.642  11.841
 4683SOL    HW215883  14.077   7.605  11.947
 4684SOL     OW15884  12.554   0.740   1.661
 4684SOL    HW115885  12.551   0.690   1.579
 4684SOL    HW215886  12.550   0.674   1.730
 4685SOL     OW15887   0.996   4.442  12.712
 4685SOL    HW115888   1.011   4.515  12.772
 4685SOL    HW215889   0.961   4.482  12.633
 4686SOL     OW15890   9.790   0.347   8.877
 4686SOL    HW115891   9.837   0.422   8.841
 4686SOL    HW215892   9.703   0.382   8.899
 4687SOL     OW15893  12.381   9.056  11.213
 4687SOL    HW115894  12.456   9.051  11.272
 4687SOL    HW215895  12.340   8.970  11.220
 4688SOL     OW15896  12.584   7.795   3.902
 4688SOL    HW115897  12.594   7.826   3.812
 4688SOL    HW215898  12.553   7.705   3.893
 4689SOL     OW15899   7.735  12.631   2.178
 4689SOL    HW115900   7.700  12.649   2.091
 4689SOL    HW215901   7.814  12.684   2.184
 4690SOL     OW15902   0.974  14.295  10.057
 4690SOL    HW115903   0.924  14.216  10.079
 4690SOL    HW215904   0.958  14.355  10.129
 4691SOL     OW15905   6.061   3.377   4.680
 4691SOL    HW115906   5.996   3.446   4.665
 4691SOL    HW215907   6.091   3.391   4.769
 4692SOL     OW15908   0.502  10.028   3.574
 4692SOL    HW115909   0.551  10.085   3.633
 4692SOL    HW215910   0.552   9.947   3.571
 4693SOL     OW15911   9.704   2.052  13.937
 4693SOL    HW115912   9.714   2.146  13.919
 4693SOL    HW215913   9.654   2.049  14.019
 4694SOL     OW15914  14.132  14.845   4.729
 4694SOL    HW115915  14.220  14.810   4.742
 4694SOL    HW215916  14.139   0.058   4.755
 4695SOL     OW15917   8.262   2.087   8.385
 4695SOL    HW115918   8.318   2.157   8.419
 4695SOL    HW215919   8.274   2.015   8.448
 4696SOL     OW15920   3.073   8.027  12.221
 4696SOL    HW115921   3.096   8.018  12.313
 4696SOL    HW215922   3.027   8.111  12.215
 4697SOL     OW15923  12.827   8.140   6.607
 4697SOL    HW115924  12.782   8.224   6.613
 4697SOL    HW215925  12.862   8.125   6.695
 4698SOL     OW15926   8.199  11.192  12.375
 4698SOL    HW115927   8.141  11.166  12.304
 4698SOL    HW215928   8.236  11.275  12.346
 4699SOL     OW15929   7.779   1.732   7.874
 4699SOL    HW115930   7.819   1.798   7.818
 4699SOL    HW215931   7.702   1.703   7.825
 4700SOL     OW15932  13.011   2.501  13.285
 4700SOL    HW115933  13.085   2.560  13.275
 4700SOL    HW215934  13.015   2.445  13.207
 4701SOL     OW15935   4.373   3.173   9.390
 4701SOL    HW115936   4.394   3.236   9.320
 4701SOL    HW215937   4.449   3.175   9.447
 4702SOL     OW15938   3.232   9.322   2.782
 4702SOL    HW115939   3.295   9.304   2.713
 4702SOL    HW215940   3.255   9.263   2.853
 4703SOL     OW15941   2.602   4.189   7.871
 4703SOL    HW115942   2.697   4.188   7.887
 4703SOL    HW215943   2.593   4.179   7.776
 4704SOL     OW15944  11.382   8.057  14.028
 4704SOL    HW115945  11.314   8.003  14.067
 4704SOL    HW215946  11.447   7.995  13.995
 4705SOL     OW15947   6.460   2.939   0.938
 4705SOL    HW115948   6.536   2.993   0.959
 4705SOL    HW215949   6.434   2.968   0.850
 4706SOL     OW15950   9.218   1.714   8.486
 4706SOL    HW115951   9.240   1.800   8.522
 4706SOL    HW215952   9.303   1.670   8.476
 4707SOL     OW15953   2.519   8.210   0.622
 4707SOL    HW115954   2.551   8.228   0.533
 4707SOL    HW215955   2.429   8.179   0.609
 4708SOL     OW15956   9.418   9.163  14.259
 4708SOL    HW115957   9.398   9.071  14.242
 4708SOL    HW215958   9.355   9.190  14.326
 4709SOL     OW15959   1.078   9.222   0.760
 4709SOL    HW115960   1.085   9.155   0.692
 4709SOL    HW215961   1.033   9.178   0.832
 4710SOL     OW15962   2.903  14.175   4.593
 4710SOL    HW115963   2.965  14.137   4.531
 4710SOL    HW215964   2.953  14.187   4.673
 4711SOL     OW15965   3.812   0.062   6.800
 4711SOL    HW115966   3.833   0.069   6.707
 4711SOL    HW215967   3.726   0.101   6.809
 4712SOL     OW15968  10.216  14.179   6.562
 4712SOL    HW115969  10.123  14.202   6.564
 4712SOL    HW215970  10.255  14.240   6.500
 4713SOL     OW15971   5.621   9.027   2.289
 4713SOL    HW115972   5.691   9.073   2.336
 4713SOL    HW215973   5.622   9.064   2.201
 4714SOL     OW15974   6.501  10.413   2.092
 4714SOL    HW115975   6.570  10.353   2.122
 4714SOL    HW215976   6.544  10.469   2.029
 4715SOL     OW15977   1.707  12.227  14.670
 4715SOL    HW115978   1.700  12.147  14.617
 4715SOL    HW215979   1.640  12.285  14.634
 4716SOL     OW15980   7.707   2.550  13.171
 4716SOL    HW115981   7.641   2.619  13.172
 4716SOL    HW215982   7.739   2.549  13.081
 4717SOL     OW15983   7.855   0.859   8.843
 4717SOL    HW115984   7.934   0.905   8.816
 4717SOL    HW215985   7.858   0.775   8.797
 4718SOL     OW15986  11.074   1.377   8.916
 4718SOL    HW115987  11.105   1.378   8.825
 4718SOL    HW215988  10.988   1.418   8.913
 4719SOL     OW15989   8.522   7.844   4.028
 4719SOL    HW115990   8.582   7.871   3.959
 4719SOL    HW215991   8.554   7.758   4.055
 4720SOL     OW15992   3.143   7.683   7.406
 4720SOL    HW115993   3.166   7.652   7.494
 4720SOL    HW215994   3.210   7.645   7.349
 4721SOL     OW15995   2.640  14.570   0.726
 4721SOL    HW115996   2.677  14.483   0.740
 4721SOL    HW215997   2.716  14.624   0.703
 4722SOL     OW15998  10.842  10.682   8.512
 4722SOL    HW115999  10.855  10.757   8.454
 4722SOL    HW216000  10.753  10.694   8.546
 4723SOL     OW16001   0.325   9.139   2.521
 4723SOL    HW116002   0.362   9.160   2.606
 4723SOL    HW216003   0.309   9.044   2.524
 4724SOL     OW16004   5.015   2.071   5.402
 4724SOL    HW116005   4.919   2.063   5.400
 4724SOL    HW216006   5.032   2.165   5.398
 4725SOL     OW16007   5.560   6.896   6.232
 4725SOL    HW116008   5.491   6.952   6.266
 4725SOL    HW216009   5.638   6.920   6.282
 4726SOL     OW16010  13.413   2.597   9.088
 4726SOL    HW116011  13.468   2.676   9.082
 4726SOL    HW216012  13.344   2.611   9.023
 4727SOL     OW16013   9.659   7.775   9.372
 4727SOL    HW116014   9.705   7.695   9.398
 4727SOL    HW216015   9.573   7.745   9.343
 4728SOL     OW16016   1.385   4.856   2.538
 4728SOL    HW116017   1.395   4.776   2.487
 4728SOL    HW216018   1.292   4.859   2.561
 4729SOL     OW16019   5.418   0.660   9.367
 4729SOL    HW116020   5.479   0.603   9.320
 4729SOL    HW216021   5.421   0.743   9.319
 4730SOL     OW16022   4.524  12.771   6.211
 4730SOL    HW116023   4.606  12.789   6.165
 4730SOL    HW216024   4.491  12.857   6.237
 4731SOL     OW16025   5.545   0.314   6.960
 4731SOL    HW116026   5.630   0.347   6.990
 4731SOL    HW216027   5.528   0.239   7.016
 4732SOL     OW16028   1.902  10.257   2.154
 4732SOL    HW116029   1.991  10.277   2.124
 4732SOL    HW216030   1.914  10.218   2.241
 4733SOL     OW16031  14.757  10.295  11.376
 4733SOL    HW116032  14.843  10.336  11.379
 4733SOL    HW216033  14.741  10.276  11.284
 4734SOL     OW16034   4.046   1.063   5.132
 4734SOL    HW116035   3.997   1.143   5.147
 4734SOL    HW216036   4.085   1.041   5.217
 4735SOL     OW16037  10.295   0.958   8.148
 4735SOL    HW116038  10.273   0.912   8.067
 4735SOL    HW216039  10.389   0.944   8.159
 4736SOL     OW16040   6.540   0.855   8.058
 4736SOL    HW116041   6.560   0.948   8.074
 4736SOL    HW216042   6.626   0.815   8.043
 4737SOL     OW16043   9.169   0.463   9.783
 4737SOL    HW116044   9.220   0.411   9.722
 4737SOL    HW216045   9.107   0.401   9.821
 4738SOL     OW16046  13.065   1.849   7.869
 4738SOL    HW116047  13.005   1.802   7.927
 4738SOL    HW216048  13.108   1.780   7.817
 4739SOL     OW16049   2.309  11.777   3.572
 4739SOL    HW116050   2.237  11.748   3.628
 4739SOL    HW216051   2.266  11.820   3.499
 4740SOL     OW16052   1.289   8.829   1.079
 4740SOL    HW116053   1.350   8.890   1.120
 4740SOL    HW216054   1.308   8.836   0.985
 4741SOL     OW16055  11.109   0.176   2.210
 4741SOL    HW116056  11.195   0.216   2.222
 4741SOL    HW216057  11.047   0.237   2.250
 4742SOL     OW16058   7.897   7.192   5.644
 4742SOL    HW116059   7.872   7.248   5.571
 4742SOL    HW216060   7.942   7.250   5.705
 4743SOL     OW16061   4.702   3.225   6.233
 4743SOL    HW116062   4.706   3.185   6.146
 4743SOL    HW216063   4.669   3.313   6.218
 4744SOL     OW16064   0.954  11.830   5.314
 4744SOL    HW116065   0.873  11.800   5.273
 4744SOL    HW216066   0.928  11.857   5.402
 4745SOL     OW16067   6.321   3.567  12.262
 4745SOL    HW116068   6.416   3.571  12.270
 4745SOL    HW216069   6.296   3.654  12.231
 4746SOL     OW16070   2.028   4.275   2.821
 4746SOL    HW116071   2.017   4.306   2.911
 4746SOL    HW216072   2.038   4.354   2.769
 4747SOL     OW16073  12.413   4.885   8.085
 4747SOL    HW116074  12.506   4.863   8.088
 4747SOL    HW216075  12.408   4.974   8.120
 4748SOL     OW16076   5.406  11.190  14.512
 4748SOL    HW116077   5.463  11.207  14.437
 4748SOL    HW216078   5.434  11.104  14.544
 4749SOL     OW16079  13.442   2.082   0.928
 4749SOL    HW116080  13.463   2.027   1.004
 4749SOL    HW216081  13.422   2.020   0.858
 4750SOL     OW16082   4.723   7.145   3.748
 4750SOL    HW116083   4.738   7.158   3.842
 4750SOL    HW216084   4.752   7.055   3.732
 4751SOL     OW16085   8.555   4.598   6.227
 4751SOL    HW116086   8.556   4.604   6.132
 4751SOL    HW216087   8.645   4.614   6.254
 4752SOL     OW16088   7.874  13.213   2.911
 4752SOL    HW116089   7.904  13.134   2.956
 4752SOL    HW216090   7.946  13.237   2.853
 4753SOL     OW16091   5.972  12.637   0.176
 4753SOL    HW116092   5.950  12.544   0.175
 4753SOL    HW216093   6.057  12.640   0.220
 4754SOL     OW16094  14.765   8.112   1.339
 4754SOL    HW116095  14.849   8.084   1.303
 4754SOL    HW216096  14.712   8.133   1.262
 4755SOL     OW16097   4.894   2.042   0.704
 4755SOL    HW116098   4.821   2.091   0.742
 4755SOL    HW216099   4.932   2.102   0.640
 4756SOL     OW16100   7.343  13.064   8.035
 4756SOL    HW116101   7.384  12.988   7.995
 4756SOL    HW216102   7.300  13.109   7.963
 4757SOL     OW16103  12.803  10.901  13.278
 4757SOL    HW116104  12.805  10.805  13.275
 4757SOL    HW216105  12.746  10.926  13.206
 4758SOL     OW16106  11.947   6.819   2.573
 4758SOL    HW116107  12.031   6.847   2.536
 4758SOL    HW216108  11.955   6.724   2.583
 4759SOL     OW16109   4.109   3.692  14.812
 4759SOL    HW116110   4.047   3.620  14.806
 4759SOL    HW216111   4.190   3.652  14.842
 4760SOL     OW16112   8.001  14.089   2.551
 4760SOL    HW116113   8.036  14.055   2.468
 4760SOL    HW216114   7.912  14.054   2.554
 4761SOL     OW16115   5.911   7.287  14.072
 4761SOL    HW116116   5.874   7.230  14.004
 4761SOL    HW216117   5.866   7.261  14.152
 4762SOL     OW16118  10.223   1.221   8.310
 4762SOL    HW116119  10.207   1.273   8.232
 4762SOL    HW216120  10.285   1.154   8.282
 4763SOL     OW16121  12.259   2.206   4.596
 4763SOL    HW116122  12.280   2.264   4.669
 4763SOL    HW216123  12.343   2.171   4.568
 4764SOL     OW16124  14.729   7.739  14.067
 4764SOL    HW116125  14.675   7.660  14.072
 4764SOL    HW216126  14.717   7.783  14.152
 4765SOL     OW16127   7.649  12.949  14.100
 4765SOL    HW116128   7.678  13.038  14.117
 4765SOL    HW216129   7.587  12.957  14.027
 4766SOL     OW16130   5.199   4.981   6.037
 4766SOL    HW116131   5.131   5.045   6.055
 4766SOL    HW216132   5.194   4.967   5.942
 4767SOL     OW16133   3.171   8.051   9.111
 4767SOL    HW116134   3.167   8.126   9.171
 4767SOL    HW216135   3.243   8.072   9.052
 4768SOL     OW16136   7.983   8.627   4.297
 4768SOL    HW116137   8.045   8.557   4.317
 4768SOL    HW216138   7.912   8.615   4.360
 4769SOL     OW16139   5.641   6.432   4.832
 4769SOL    HW116140   5.692   6.493   4.779
 4769SOL    HW216141   5.627   6.478   4.915
 4770SOL     OW16142  14.277  11.620   8.979
 4770SOL    HW116143  14.209  11.587   9.038
 4770SOL    HW216144  14.229  11.667   8.911
 4771SOL     OW16145  14.043  10.542   1.945
 4771SOL    HW116146  14.001  10.521   1.862
 4771SOL    HW216147  14.056  10.637   1.942
 4772SOL     OW16148   1.751   0.159   2.282
 4772SOL    HW116149   1.678   0.119   2.329
 4772SOL    HW216150   1.732   0.144   2.189
 4773SOL     OW16151   6.323   2.955   0.391
 4773SOL    HW116152   6.326   3.010   0.312
 4773SOL    HW216153   6.415   2.942   0.414
 4774SOL     OW16154   2.960   3.226   4.413
 4774SOL    HW116155   3.014   3.166   4.464
 4774SOL    HW216156   2.984   3.209   4.322
 4775SOL     OW16157   3.986  12.196   2.269
 4775SOL    HW116158   4.025  12.111   2.251
 4775SOL    HW216159   4.058  12.258   2.254
 4776SOL     OW16160  13.929  12.131   3.757
 4776SOL    HW116161  13.839  12.102   3.768
 4776SOL    HW216162  13.975  12.097   3.834
 4777SOL     OW16163   6.607   3.056  10.969
 4777SOL    HW116164   6.548   3.004  10.914
 4777SOL    HW216165   6.668   3.096  10.908
 4778SOL     OW16166   8.979   1.703   0.286
 4778SOL    HW116167   8.935   1.761   0.348
 4778SOL    HW216168   9.070   1.735   0.284
 4779SOL     OW16169   1.013   6.559  11.340
 4779SOL    HW116170   0.966   6.482  11.371
 4779SOL    HW216171   0.948   6.610  11.292
 4780SOL     OW16172  13.335  12.080   2.032
 4780SOL    HW116173  13.253  12.122   2.004
 4780SOL    HW216174  13.306  12.000   2.077
 4781SOL     OW16175   6.714   6.791  14.502
 4781SOL    HW116176   6.718   6.781  14.407
 4781SOL    HW216177   6.801   6.765  14.532
 4782SOL     OW16178   9.609   2.062   7.495
 4782SOL    HW116179   9.593   2.097   7.408
 4782SOL    HW216180   9.690   2.012   7.486
 4783SOL     OW16181   3.721   9.207   5.672
 4783SOL    HW116182   3.678   9.203   5.587
 4783SOL    HW216183   3.814   9.221   5.651
 4784SOL     OW16184   5.605  13.005   2.588
 4784SOL    HW116185   5.599  13.019   2.683
 4784SOL    HW216186   5.677  13.061   2.560
 4785SOL     OW16187   1.655   6.435  14.297
 4785SOL    HW116188   1.677   6.344  14.321
 4785SOL    HW216189   1.560   6.434  14.287
 4786SOL     OW16190  10.783   7.502  10.322
 4786SOL    HW116191  10.829   7.423  10.294
 4786SOL    HW216192  10.709   7.470  10.373
 4787SOL     OW16193  10.839  10.435   7.070
 4787SOL    HW116194  10.807  10.350   7.100
 4787SOL    HW216195  10.904  10.461   7.135
 4788SOL     OW16196   8.179   2.924   5.064
 4788SOL    HW116197   8.148   3.002   5.018
 4788SOL    HW216198   8.260   2.952   5.107
 4789SOL     OW16199   7.409   5.197  10.940
 4789SOL    HW116200   7.427   5.107  10.911
 4789SOL    HW216201   7.332   5.188  10.996
 4790SOL     OW16202   3.578   4.828   8.805
 4790SOL    HW116203   3.626   4.885   8.745
 4790SOL    HW216204   3.503   4.879   8.834
 4791SOL     OW16205  11.246   8.240   7.423
 4791SOL    HW116206  11.193   8.280   7.354
 4791SOL    HW216207  11.212   8.151   7.431
 4792SOL     OW16208   4.660  12.785  11.015
 4792SOL    HW116209   4.608  12.848  11.064
 4792SOL    HW216210   4.742  12.831  10.998
 4793SOL     OW16211   3.204   3.346   8.910
 4793SOL    HW116212   3.251   3.429   8.908
 4793SOL    HW216213   3.133   3.357   8.847
 4794SOL     OW16214  12.646  10.790   8.689
 4794SOL    HW116215  12.698  10.761   8.764
 4794SOL    HW216216  12.616  10.710   8.647
 4795SOL     OW16217   6.670   1.982   1.818
 4795SOL    HW116218   6.587   1.956   1.778
 4795SOL    HW216219   6.645   2.027   1.899
 4796SOL     OW16220   3.555   7.749   7.487
 4796SOL    HW116221   3.617   7.761   7.559
 4796SOL    HW216222   3.538   7.655   7.484
 4797SOL     OW16223  10.495   9.098  12.011
 4797SOL    HW116224  10.454   9.118  11.927
 4797SOL    HW216225  10.538   9.013  11.997
 4798SOL     OW16226   4.462   9.089   2.117
 4798SOL    HW116227   4.532   9.024   2.131
 4798SOL    HW216228   4.396   9.067   2.183
 4799SOL     OW16229   5.347  10.443   2.524
 4799SOL    HW116230   5.415  10.510   2.531
 4799SOL    HW216231   5.309  10.458   2.437
 4800SOL     OW16232   0.978   0.241   7.998
 4800SOL    HW116233   1.025   0.227   7.916
 4800SOL    HW216234   0.967   0.153   8.035
 4801SOL     OW16235   8.903   7.196   3.332
 4801SOL    HW116236   8.825   7.232   3.291
 4801SOL    HW216237   8.872   7.116   3.376
 4802SOL     OW16238   5.889  13.964  13.573
 4802SOL    HW116239   5.888  13.961  13.478
 4802SOL    HW216240   5.824  13.900  13.600
 4803SOL     OW16241  13.470  13.852  10.532
 4803SOL    HW116242  13.446  13.885  10.618
 4803SOL    HW216243  13.565  13.864  10.527
 4804SOL     OW16244   4.351  14.253   6.325
 4804SOL    HW116245   4.413  14.321   6.349
 4804SOL    HW216246   4.379  14.225   6.237
 4805SOL     OW16247   6.767   2.578  14.120
 4805SOL    HW116248   6.771   2.530  14.203
 4805SOL    HW216249   6.763   2.509  14.053
 4806SOL     OW16250  14.681  11.459  10.346
 4806SOL    HW116251  14.597  11.480  10.304
 4806SOL    HW216252  14.667  11.373  10.387
 4807SOL     OW16253  14.412   7.382   1.098
 4807SOL    HW116254  14.349   7.451   1.078
 4807SOL    HW216255  14.427   7.390   1.192
 4808SOL     OW16256   6.079   5.508  12.501
 4808SOL    HW116257   6.145   5.522  12.569
 4808SOL    HW216258   6.086   5.586  12.445
 4809SOL     OW16259   2.212   7.457  10.586
 4809SOL    HW116260   2.260   7.385  10.626
 4809SOL    HW216261   2.121   7.444  10.616
 4810SOL     OW16262  14.177   7.143   4.849
 4810SOL    HW116263  14.152   7.072   4.791
 4810SOL    HW216264  14.185   7.102   4.935
 4811SOL     OW16265   1.159   8.361   9.475
 4811SOL    HW116266   1.220   8.434   9.488
 4811SOL    HW216267   1.213   8.282   9.490
 4812SOL     OW16268   2.980  12.119  14.448
 4812SOL    HW116269   2.965  12.180  14.519
 4812SOL    HW216270   2.974  12.032  14.488
 4813SOL     OW16271   3.483   3.084   5.179
 4813SOL    HW116272   3.421   3.084   5.252
 4813SOL    HW216273   3.507   3.176   5.167
 4814SOL     OW16274  11.163  10.507   0.541
 4814SOL    HW116275  11.099  10.442   0.572
 4814SOL    HW216276  11.230  10.455   0.496
 4815SOL     OW16277   3.031   1.582  14.065
 4815SOL    HW116278   2.975   1.549  14.135
 4815SOL    HW216279   2.971   1.622  14.002
 4816SOL     OW16280   7.212   0.881   0.672
 4816SOL    HW116281   7.209   0.789   0.646
 4816SOL    HW216282   7.303   0.896   0.698
 4817SOL     OW16283   0.619   0.477   7.659
 4817SOL    HW116284   0.549   0.440   7.605
 4817SOL    HW216285   0.657   0.402   7.705
 4818SOL     OW16286   8.229   4.195  13.180
 4818SOL    HW116287   8.282   4.237  13.248
 4818SOL    HW216288   8.172   4.135  13.228
 4819SOL     OW16289   1.977  14.293   9.415
 4819SOL    HW116290   1.997  14.304   9.322
 4819SOL    HW216291   2.041  14.229   9.446
 4820SOL     OW16292  11.487  10.176  12.088
 4820SOL    HW116293  11.402  10.146  12.119
 4820SOL    HW216294  11.470  10.262  12.050
 4821SOL     OW16295   0.764   5.545  13.831
 4821SOL    HW116296   0.734   5.458  13.806
 4821SOL    HW216297   0.741   5.601  13.757
 4822SOL     OW16298   2.343   3.840   1.330
 4822SOL    HW116299   2.416   3.892   1.296
 4822SOL    HW216300   2.321   3.881   1.414
 4823SOL     OW16301   3.372  14.842   3.813
 4823SOL    HW116302   3.419  14.848   3.730
 4823SOL    HW216303   3.339   0.052   3.828
 4824SOL     OW16304  13.729  10.392  12.234
 4824SOL    HW116305  13.693  10.309  12.202
 4824SOL    HW216306  13.784  10.423  12.163
 4825SOL     OW16307   8.140   1.181  11.668
 4825SOL    HW116308   8.232   1.156  11.671
 4825SOL    HW216309   8.135   1.261  11.720
 4826SOL     OW16310  11.663   6.668  13.535
 4826SOL    HW116311  11.730   6.679  13.468
 4826SOL    HW216312  11.594   6.730  13.510
 4827SOL     OW16313  14.561   1.736  13.842
 4827SOL    HW116314  14.523   1.790  13.772
 4827SOL    HW216315  14.573   1.650  13.801
 4828SOL     OW16316   3.257  14.254  14.511
 4828SOL    HW116317   3.328  14.282  14.570
 4828SOL    HW216318   3.182  14.307  14.537
 4829SOL     OW16319   1.306   8.357  13.813
 4829SOL    HW116320   1.327   8.342  13.905
 4829SOL    HW216321   1.375   8.312  13.764
 4830SOL     OW16322  12.918  14.581  13.607
 4830SOL    HW116323  12.891  14.505  13.556
 4830SOL    HW216324  12.839  14.635  13.614
 4831SOL     OW16325   9.154  13.659   7.720
 4831SOL    HW116326   9.129  13.665   7.812
 4831SOL    HW216327   9.250  13.667   7.721
 4832SOL     OW16328   3.051  13.688   7.531
 4832SOL    HW116329   3.002  13.762   7.569
 4832SOL    HW216330   3.062  13.712   7.439
 4833SOL     OW16331   3.261   5.685  10.677
 4833SOL    HW116332   3.353   5.710  10.678
 4833SOL    HW216333   3.230   5.704  10.766
 4834SOL     OW16334   9.201   0.729   2.496
 4834SOL    HW116335   9.188   0.761   2.586
 4834SOL    HW216336   9.295   0.715   2.490
 4835SOL     OW16337   9.830   7.725   5.251
 4835SOL    HW116338   9.900   7.761   5.306
 4835SOL    HW216339   9.872   7.657   5.200
 4836SOL     OW16340   4.790   6.194   9.168
 4836SOL    HW116341   4.742   6.197   9.250
 4836SOL    HW216342   4.861   6.132   9.184
 4837SOL     OW16343   8.561   2.230   5.393
 4837SOL    HW116344   8.617   2.264   5.324
 4837SOL    HW216345   8.472   2.258   5.368
 4838SOL     OW16346   1.650   2.086   6.912
 4838SOL    HW116347   1.671   2.023   6.981
 4838SOL    HW216348   1.556   2.101   6.920
 4839SOL     OW16349   6.744  12.169   3.748
 4839SOL    HW116350   6.748  12.252   3.797
 4839SOL    HW216351   6.718  12.104   3.813
 4840SOL     OW16352   7.991   1.430  14.247
 4840SOL    HW116353   8.033   1.344  14.241
 4840SOL    HW216354   8.065   1.492  14.247
 4841SOL     OW16355  10.057   8.022  13.735
 4841SOL    HW116356  10.087   8.110  13.710
 4841SOL    HW216357  10.095   7.964  13.670
 4842SOL     OW16358  12.757   0.786   2.588
 4842SOL    HW116359  12.739   0.875   2.559
 4842SOL    HW216360  12.806   0.747   2.515
 4843SOL     OW16361   8.223   9.633  10.850
 4843SOL    HW116362   8.312   9.631  10.885
 4843SOL    HW216363   8.224   9.706  10.788
 4844SOL     OW16364  14.792   2.174  11.674
 4844SOL    HW116365  14.767   2.249  11.620
 4844SOL    HW216366  14.768   2.200  11.763
 4845SOL     OW16367   7.493   8.434  12.366
 4845SOL    HW116368   7.432   8.369  12.400
 4845SOL    HW216369   7.578   8.408  12.401
 4846SOL     OW16370   2.382   8.111   7.768
 4846SOL    HW116371   2.362   8.123   7.861
 4846SOL    HW216372   2.422   8.025   7.763
 4847SOL     OW16373   4.625   4.752  14.672
 4847SOL    HW116374   4.698   4.692  14.689
 4847SOL    HW216375   4.622   4.761  14.577
 4848SOL     OW16376   1.607  14.561  14.401
 4848SOL    HW116377   1.561  14.498  14.456
 4848SOL    HW216378   1.537  14.603  14.349
 4849SOL     OW16379  14.849   1.027   2.812
 4849SOL    HW116380   0.010   1.086   2.748
 4849SOL    HW216381  14.776   1.077   2.849
 4850SOL     OW16382   4.614   8.928   4.369
 4850SOL    HW116383   4.645   9.016   4.392
 4850SOL    HW216384   4.669   8.869   4.420
 4851SOL     OW16385  10.399   9.148   0.770
 4851SOL    HW116386  10.476   9.094   0.751
 4851SOL    HW216387  10.352   9.152   0.687
 4852SOL     OW16388   7.123  12.864  13.264
 4852SOL    HW116389   7.045  12.828  13.307
 4852SOL    HW216390   7.114  12.838  13.173
 4853SOL     OW16391   3.644   0.325  12.835
 4853SOL    HW116392   3.563   0.333  12.784
 4853SOL    HW216393   3.614   0.315  12.925
 4854SOL     OW16394  10.908   6.829   6.712
 4854SOL    HW116395  10.829   6.788   6.746
 4854SOL    HW216396  10.948   6.871   6.788
 4855SOL     OW16397   1.264   5.612   3.557
 4855SOL    HW116398   1.224   5.653   3.481
 4855SOL    HW216399   1.308   5.534   3.522
 4856SOL     OW16400   2.962   9.224   1.303
 4856SOL    HW116401   3.033   9.160   1.310
 4856SOL    HW216402   3.003   9.308   1.319
 4857SOL     OW16403   2.755   7.404  12.895
 4857SOL    HW116404   2.676   7.363  12.860
 4857SOL    HW216405   2.820   7.334  12.897
 4858SOL     OW16406   7.801   5.158   5.100
 4858SOL    HW116407   7.739   5.105   5.150
 4858SOL    HW216408   7.875   5.100   5.083
 4859SOL     OW16409   9.146   3.174  10.812
 4859SOL    HW116410   9.130   3.255  10.861
 4859SOL    HW216411   9.059   3.138  10.796
 4860SOL     OW16412   2.022   9.833  14.384
 4860SOL    HW116413   1.979   9.811  14.301
 4860SOL    HW216414   2.116   9.826  14.364
 4861SOL     OW16415  13.280   2.991   8.230
 4861SOL    HW116416  13.215   2.987   8.161
 4861SOL    HW216417  13.349   3.048   8.196
 4862SOL     OW16418   7.237   1.681   2.227
 4862SOL    HW116419   7.207   1.654   2.140
 4862SOL    HW216420   7.162   1.666   2.284
 4863SOL     OW16421  11.659   9.243  14.440
 4863SOL    HW116422  11.614   9.167  14.476
 4863SOL    HW216423  11.749   9.234  14.470
 4864SOL     OW16424   0.826   7.957   2.721
 4864SOL    HW116425   0.886   7.953   2.796
 4864SOL    HW216426   0.840   8.044   2.684
 4865SOL     OW16427   0.492  13.245   3.604
 4865SOL    HW116428   0.552  13.209   3.538
 4865SOL    HW216429   0.541  13.244   3.685
 4866SOL     OW16430   7.550   2.719  12.574
 4866SOL    HW116431   7.568   2.626  12.589
 4866SOL    HW216432   7.461   2.733  12.607
 4867SOL     OW16433   5.637  11.217   3.707
 4867SOL    HW116434   5.608  11.183   3.792
 4867SOL    HW216435   5.566  11.194   3.647
 4868SOL     OW16436  12.290   4.436   4.171
 4868SOL    HW116437  12.205   4.471   4.199
 4868SOL    HW216438  12.354   4.495   4.212
 4869SOL     OW16439   6.495   1.945   6.371
 4869SOL    HW116440   6.542   1.887   6.311
 4869SOL    HW216441   6.421   1.977   6.319
 4870SOL     OW16442  12.500  10.596   8.262
 4870SOL    HW116443  12.527  10.508   8.235
 4870SOL    HW216444  12.583  10.645   8.268
 4871SOL     OW16445   0.484   8.426   4.961
 4871SOL    HW116446   0.467   8.412   4.868
 4871SOL    HW216447   0.561   8.484   4.962
 4872SOL     OW16448   5.899   1.925  10.800
 4872SOL    HW116449   5.803   1.920  10.806
 4872SOL    HW216450   5.918   2.017  10.786
 4873SOL     OW16451   3.469   6.233  11.409
 4873SOL    HW116452   3.387   6.192  11.437
 4873SOL    HW216453   3.522   6.160  11.378
 4874SOL     OW16454   5.184   2.190   1.880
 4874SOL    HW116455   5.091   2.207   1.895
 4874SOL    HW216456   5.223   2.276   1.869
 4875SOL     OW16457  13.792   5.445   2.131
 4875SOL    HW116458  13.819   5.517   2.074
 4875SOL    HW216459  13.846   5.455   2.210
 4876SOL     OW16460   5.857   2.639   8.592
 4876SOL    HW116461   5.933   2.643   8.535
 4876SOL    HW216462   5.791   2.692   8.549
 4877SOL     OW16463   2.035   0.174  10.920
 4877SOL    HW116464   2.008   0.266  10.927
 4877SOL    HW216465   2.124   0.173  10.953
 4878SOL     OW16466  11.320  14.237   6.737
 4878SOL    HW116467  11.368  14.251   6.655
 4878SOL    HW216468  11.232  14.210   6.709
 4879SOL     OW16469  13.377   5.218  14.635
 4879SOL    HW116470  13.397   5.205  14.542
 4879SOL    HW216471  13.291   5.177  14.647
 4880SOL     OW16472  14.515   9.136  10.086
 4880SOL    HW116473  14.506   9.079  10.163
 4880SOL    HW216474  14.595   9.106  10.043
 4881SOL     OW16475   3.626   7.910  10.806
 4881SOL    HW116476   3.616   7.831  10.752
 4881SOL    HW216477   3.707   7.895  10.855
 4882SOL     OW16478   3.306  11.910   5.158
 4882SOL    HW116479   3.246  11.974   5.197
 4882SOL    HW216480   3.254  11.830   5.150
 4883SOL     OW16481  11.562  10.439   9.532
 4883SOL    HW116482  11.523  10.526   9.532
 4883SOL    HW216483  11.505  10.387   9.475
 4884SOL     OW16484   2.190   9.630  11.885
 4884SOL    HW116485   2.186   9.537  11.905
 4884SOL    HW216486   2.239   9.635  11.803
 4885SOL     OW16487   0.959   7.618   0.437
 4885SOL    HW116488   0.879   7.584   0.477
 4885SOL    HW216489   0.928   7.675   0.367
 4886SOL     OW16490   9.604   0.410   6.060
 4886SOL    HW116491   9.625   0.383   5.970
 4886SOL    HW216492   9.577   0.501   6.051
 4887SOL     OW16493   3.844   9.747   1.231
 4887SOL    HW116494   3.885   9.785   1.309
 4887SOL    HW216495   3.889   9.663   1.220
 4888SOL     OW16496   9.454   7.526   3.304
 4888SOL    HW116497   9.531   7.581   3.316
 4888SOL    HW216498   9.386   7.585   3.273
 4889SOL     OW16499   5.766   0.164  13.922
 4889SOL    HW116500   5.782   0.220  13.845
 4889SOL    HW216501   5.744   0.079  13.885
 4890SOL     OW16502  12.498   1.979   0.805
 4890SOL    HW116503  12.455   2.027   0.876
 4890SOL    HW216504  12.457   2.013   0.726
 4891SOL     OW16505   1.940   9.726  13.488
 4891SOL    HW116506   1.848   9.753  13.485
 4891SOL    HW216507   1.936   9.631  13.498
 4892SOL     OW16508   0.343  10.611   4.431
 4892SOL    HW116509   0.280  10.556   4.385
 4892SOL    HW216510   0.306  10.624   4.518
 4893SOL     OW16511   2.119   6.829  10.671
 4893SOL    HW116512   2.150   6.919  10.669
 4893SOL    HW216513   2.162   6.787  10.596
 4894SOL     OW16514   2.624  10.928  12.170
 4894SOL    HW116515   2.618  10.839  12.137
 4894SOL    HW216516   2.548  10.937  12.229
 4895SOL     OW16517   1.265   1.132   2.036
 4895SOL    HW116518   1.302   1.213   2.071
 4895SOL    HW216519   1.260   1.073   2.111
 4896SOL     OW16520   1.023   7.646   5.912
 4896SOL    HW116521   0.992   7.736   5.900
 4896SOL    HW216522   1.095   7.653   5.974
 4897SOL     OW16523   5.546   2.170  10.974
 4897SOL    HW116524   5.512   2.259  10.973
 4897SOL    HW216525   5.535   2.141  11.064
 4898SOL     OW16526   7.808   9.387  13.077
 4898SOL    HW116527   7.722   9.407  13.040
 4898SOL    HW216528   7.794   9.388  13.172
 4899SOL     OW16529  14.357  10.394  13.681
 4899SOL    HW116530  14.386  10.458  13.616
 4899SOL    HW216531  14.261  10.398  13.677
 4900SOL     OW16532   1.546   4.231   4.982
 4900SOL    HW116533   1.572   4.294   4.916
 4900SOL    HW216534   1.450   4.232   4.980
 4901SOL     OW16535   7.914   1.037   4.983
 4901SOL    HW116536   7.867   0.962   4.947
 4901SOL    HW216537   7.868   1.058   5.064
 4902SOL     OW16538   0.896  13.394   6.520
 4902SOL    HW116539   0.944  13.338   6.458
 4902SOL    HW216540   0.964  13.427   6.579
 4903SOL     OW16541   8.509   6.796  14.035
 4903SOL    HW116542   8.454   6.718  14.033
 4903SOL    HW216543   8.511   6.821  14.128
 4904SOL     OW16544  11.162   5.105   2.064
 4904SOL    HW116545  11.173   5.069   2.152
 4904SOL    HW216546  11.098   5.175   2.074
 4905SOL     OW16547   7.140  11.279   3.139
 4905SOL    HW116548   7.066  11.247   3.190
 4905SOL    HW216549   7.109  11.275   3.048
 4906SOL     OW16550  14.134   4.588   9.343
 4906SOL    HW116551  14.086   4.506   9.335
 4906SOL    HW216552  14.119   4.632   9.259
 4907SOL     OW16553   2.674   1.011   4.595
 4907SOL    HW116554   2.762   0.992   4.627
 4907SOL    HW216555   2.648   0.932   4.548
 4908SOL     OW16556   4.017   1.307   0.808
 4908SOL    HW116557   4.056   1.336   0.890
 4908SOL    HW216558   3.990   1.388   0.764
 4909SOL     OW16559   8.317  10.685   3.172
 4909SOL    HW116560   8.319  10.721   3.261
 4909SOL    HW216561   8.363  10.750   3.119
 4910SOL     OW16562   6.760   5.412   6.665
 4910SOL    HW116563   6.705   5.434   6.740
 4910SOL    HW216564   6.702   5.419   6.589
 4911SOL     OW16565   0.833   8.885   1.846
 4911SOL    HW116566   0.910   8.831   1.862
 4911SOL    HW216567   0.845   8.961   1.904
 4912SOL     OW16568   2.943  13.368   2.164
 4912SOL    HW116569   2.893  13.443   2.195
 4912SOL    HW216570   3.002  13.404   2.097
 4913SOL     OW16571   9.301  14.777  12.019
 4913SOL    HW116572   9.283  14.751  12.109
 4913SOL    HW216573   9.276  14.702  11.966
 4914SOL     OW16574   9.716   2.137   7.256
 4914SOL    HW116575   9.743   2.141   7.165
 4914SOL    HW216576   9.793   2.102   7.302
 4915SOL     OW16577   2.794  13.845  10.988
 4915SOL    HW116578   2.766  13.880  10.904
 4915SOL    HW216579   2.718  13.800  11.023
 4916SOL     OW16580   6.299  13.304   1.658
 4916SOL    HW116581   6.285  13.325   1.566
 4916SOL    HW216582   6.282  13.210   1.665
 4917SOL     OW16583  14.410  11.956   4.587
 4917SOL    HW116584  14.433  11.957   4.494
 4917SOL    HW216585  14.492  11.938   4.632
 4918SOL     OW16586  14.139   4.717   1.424
 4918SOL    HW116587  14.205   4.765   1.474
 4918SOL    HW216588  14.136   4.630   1.464
 4919SOL     OW16589   9.912  13.132  12.203
 4919SOL    HW116590   9.952  13.219  12.193
 4919SOL    HW216591   9.819  13.150  12.219
 4920SOL     OW16592   1.194   7.749   3.647
 4920SOL    HW116593   1.270   7.795   3.682
 4920SOL    HW216594   1.128   7.756   3.716
 4921SOL     OW16595  13.677   5.771  12.405
 4921SOL    HW116596  13.671   5.818  12.489
 4921SOL    HW216597  13.588   5.740  12.389
 4922SOL     OW16598  13.404   5.390   6.649
 4922SOL    HW116599  13.321   5.437   6.659
 4922SOL    HW216600  13.460   5.451   6.600
 4923SOL     OW16601   7.183   3.562   8.184
 4923SOL    HW116602   7.180   3.656   8.199
 4923SOL    HW216603   7.238   3.528   8.255
 4924SOL     OW16604  10.896  10.523  14.774
 4924SOL    HW116605  10.820  10.464  14.779
 4924SOL    HW216606  10.865  10.597  14.722
 4925SOL     OW16607   5.205   4.874   8.924
 4925SOL    HW116608   5.131   4.932   8.904
 4925SOL    HW216609   5.166   4.787   8.927
 4926SOL     OW16610   9.919   0.424  12.211
 4926SOL    HW116611   9.956   0.483  12.277
 4926SOL    HW216612   9.895   0.345  12.259
 4927SOL     OW16613   1.142  14.496   7.306
 4927SOL    HW116614   1.198  14.429   7.267
 4927SOL    HW216615   1.158  14.574   7.253
 4928SOL     OW16616  14.783   4.863   2.325
 4928SOL    HW116617  14.852   4.796   2.332
 4928SOL    HW216618  14.721   4.827   2.262
 4929SOL     OW16619   2.779   8.897   0.189
 4929SOL    HW116620   2.692   8.857   0.180
 4929SOL    HW216621   2.832   8.853   0.122
 4930SOL     OW16622  11.425   5.818   7.986
 4930SOL    HW116623  11.397   5.903   8.021
 4930SOL    HW216624  11.514   5.807   8.019
 4931SOL     OW16625   4.125  10.585   7.940
 4931SOL    HW116626   4.105  10.678   7.928
 4931SOL    HW216627   4.141  10.576   8.034
 4932SOL     OW16628  14.287   4.880  13.044
 4932SOL    HW116629  14.344   4.852  12.973
 4932SOL    HW216630  14.207   4.830  13.031
 4933SOL     OW16631   6.495  12.985   6.645
 4933SOL    HW116632   6.563  12.950   6.702
 4933SOL    HW216633   6.538  12.999   6.560
 4934SOL     OW16634  13.356   5.789   7.712
 4934SOL    HW116635  13.343   5.706   7.758
 4934SOL    HW216636  13.367   5.764   7.620
 4935SOL     OW16637   4.959  10.934   0.106
 4935SOL    HW116638   4.941  10.867   0.041
 4935SOL    HW216639   4.908  10.909   0.182
 4936SOL     OW16640   7.500  14.300   6.641
 4936SOL    HW116641   7.560  14.259   6.579
 4936SOL    HW216642   7.542  14.384   6.663
 4937SOL     OW16643   9.038   9.079  14.257
 4937SOL    HW116644   9.046   9.160  14.307
 4937SOL    HW216645   9.049   9.106  14.166
 4938SOL     OW16646   5.692  10.972  12.942
 4938SOL    HW116647   5.769  10.917  12.957
 4938SOL    HW216648   5.701  11.045  13.003
 4939SOL     OW16649   8.351   3.504   0.733
 4939SOL    HW116650   8.344   3.415   0.698
 4939SOL    HW216651   8.350   3.561   0.656
 4940SOL     OW16652   6.986   1.233  13.234
 4940SOL    HW116653   6.928   1.242  13.309
 4940SOL    HW216654   7.059   1.292  13.253
 4941SOL     OW16655  12.055   6.140   1.428
 4941SOL    HW116656  11.963   6.115   1.419
 4941SOL    HW216657  12.053   6.236   1.432
 4942SOL     OW16658   6.103   4.614   7.933
 4942SOL    HW116659   6.136   4.701   7.910
 4942SOL    HW216660   6.041   4.631   8.005
 4943SOL     OW16661   3.073   8.279  14.252
 4943SOL    HW116662   3.152   8.231  14.277
 4943SOL    HW216663   3.005   8.212  14.247
 4944SOL     OW16664   9.097  14.635   2.362
 4944SOL    HW116665   9.189  14.620   2.383
 4944SOL    HW216666   9.049  14.592   2.433
 4945SOL     OW16667  10.449   3.678   5.773
 4945SOL    HW116668  10.491   3.728   5.702
 4945SOL    HW216669  10.521   3.655   5.832
 4946SOL     OW16670  10.969   0.682   5.414
 4946SOL    HW116671  10.881   0.643   5.408
 4946SOL    HW216672  10.954   0.776   5.405
 4947SOL     OW16673   0.099   0.766  10.493
 4947SOL    HW116674   0.043   0.706  10.443
 4947SOL    HW216675   0.115   0.721  10.576
 4948SOL     OW16676  13.717   1.917   9.915
 4948SOL    HW116677  13.719   1.871   9.999
 4948SOL    HW216678  13.715   2.010   9.938
 4949SOL     OW16679  13.720   1.814   7.715
 4949SOL    HW116680  13.688   1.727   7.740
 4949SOL    HW216681  13.640   1.868   7.708
 4950SOL     OW16682   6.025  13.351  10.352
 4950SOL    HW116683   6.066  13.411  10.289
 4950SOL    HW216684   6.086  13.349  10.426
 4951SOL     OW16685  13.262  11.510   1.249
 4951SOL    HW116686  13.269  11.455   1.327
 4951SOL    HW216687  13.226  11.592   1.281
 4952SOL     OW16688   7.684  10.371   3.620
 4952SOL    HW116689   7.678  10.279   3.646
 4952SOL    HW216690   7.767  10.376   3.572
 4953SOL     OW16691   4.161  11.158   7.381
 4953SOL    HW116692   4.175  11.119   7.295
 4953SOL    HW216693   4.229  11.120   7.436
 4954SOL     OW16694   6.206   4.072   1.910
 4954SOL    HW116695   6.228   3.983   1.884
 4954SOL    HW216696   6.276   4.126   1.874
 4955SOL     OW16697  12.083  10.184   8.396
 4955SOL    HW116698  12.137  10.221   8.326
 4955SOL    HW216699  12.018  10.252   8.415
 4956SOL     OW16700   4.987   4.259  14.663
 4956SOL    HW116701   4.997   4.257  14.568
 4956SOL    HW216702   5.071   4.227  14.696
 4957SOL     OW16703  14.805   4.599  14.627
 4957SOL    HW116704   0.015   4.612  14.660
 4957SOL    HW216705  14.805   4.638  14.540
 4958SOL     OW16706   1.164  13.190   7.112
 4958SOL    HW116707   1.195  13.187   7.202
 4958SOL    HW216708   1.213  13.261   7.071
 4959SOL     OW16709   6.948  11.987   7.515
 4959SOL    HW116710   6.919  11.985   7.607
 4959SOL    HW216711   6.870  12.010   7.466
 4960SOL     OW16712  11.220  14.448  14.306
 4960SOL    HW116713  11.126  14.463  14.300
 4960SOL    HW216714  11.231  14.391  14.382
 4961SOL     OW16715   3.313   3.765  14.590
 4961SOL    HW116716   3.300   3.706  14.517
 4961SOL    HW216717   3.239   3.826  14.586
 4962SOL     OW16718   0.530  13.856   5.948
 4962SOL    HW116719   0.587  13.933   5.949
 4962SOL    HW216720   0.442  13.892   5.937
 4963SOL     OW16721   2.285  12.638   7.207
 4963SOL    HW116722   2.372  12.598   7.198
 4963SOL    HW216723   2.296  12.706   7.274
 4964SOL     OW16724   9.300   4.631   4.430
 4964SOL    HW116725   9.336   4.678   4.506
 4964SOL    HW216726   9.285   4.542   4.462
 4965SOL     OW16727  13.531   7.585   8.764
 4965SOL    HW116728  13.516   7.520   8.833
 4965SOL    HW216729  13.609   7.632   8.791
 4966SOL     OW16730  10.293   4.937   1.848
 4966SOL    HW116731  10.290   4.848   1.882
 4966SOL    HW216732  10.360   4.935   1.780
 4967SOL     OW16733   4.667   8.451   6.442
 4967SOL    HW116734   4.618   8.475   6.363
 4967SOL    HW216735   4.703   8.533   6.474
 4968SOL     OW16736   2.409   2.507   1.800
 4968SOL    HW116737   2.409   2.480   1.708
 4968SOL    HW216738   2.396   2.426   1.850
 4969SOL     OW16739   1.975   8.435  13.016
 4969SOL    HW116740   1.944   8.346  13.034
 4969SOL    HW216741   1.914   8.492  13.064
 4970SOL     OW16742   0.068   1.718  10.218
 4970SOL    HW116743  14.861   1.682  10.242
 4970SOL    HW216744   0.050   1.779  10.147
 4971SOL     OW16745   3.641  10.012  10.425
 4971SOL    HW116746   3.558   9.968  10.441
 4971SOL    HW216747   3.628  10.058  10.341
 4972SOL     OW16748   8.723  11.643   5.370
 4972SOL    HW116749   8.693  11.577   5.308
 4972SOL    HW216750   8.664  11.717   5.357
 4973SOL     OW16751  13.894   6.414   4.462
 4973SOL    HW116752  13.893   6.371   4.547
 4973SOL    HW216753  13.931   6.500   4.479
 4974SOL     OW16754   1.844   7.690   4.118
 4974SOL    HW116755   1.836   7.710   4.211
 4974SOL    HW216756   1.869   7.774   4.078
 4975SOL     OW16757   7.026   1.883  11.659
 4975SOL    HW116758   7.064   1.804  11.622
 4975SOL    HW216759   6.943   1.854  11.698
 4976SOL     OW16760  13.041   6.349   2.938
 4976SOL    HW116761  13.038   6.280   2.872
 4976SOL    HW216762  12.961   6.400   2.923
 4977SOL     OW16763   6.434   4.725   3.869
 4977SOL    HW116764   6.508   4.760   3.918
 4977SOL    HW216765   6.392   4.803   3.830
 4978SOL     OW16766   8.906  11.083  13.339
 4978SOL    HW116767   8.977  11.049  13.284
 4978SOL    HW216768   8.940  11.080  13.428
 4979SOL     OW16769   8.855   1.219   8.109
 4979SOL    HW116770   8.766   1.187   8.121
 4979SOL    HW216771   8.907   1.172   8.174
 4980SOL     OW16772  10.564  10.535   9.587
 4980SOL    HW116773  10.621  10.583   9.528
 4980SOL    HW216774  10.594  10.444   9.581
 4981SOL     OW16775  10.796  11.893   4.834
 4981SOL    HW116776  10.819  11.815   4.785
 4981SOL    HW216777  10.759  11.860   4.916
 4982SOL     OW16778   6.364   7.653   1.588
 4982SOL    HW116779   6.311   7.632   1.511
 4982SOL    HW216780   6.303   7.694   1.649
 4983SOL     OW16781   6.187   8.113   4.532
 4983SOL    HW116782   6.244   8.039   4.554
 4983SOL    HW216783   6.099   8.076   4.528
 4984SOL     OW16784  10.397   0.922   3.652
 4984SOL    HW116785  10.320   0.919   3.710
 4984SOL    HW216786  10.396   1.011   3.617
 4985SOL     OW16787   4.271   8.790  12.874
 4985SOL    HW116788   4.298   8.699  12.872
 4985SOL    HW216789   4.345   8.839  12.838
 4986SOL     OW16790  13.054  13.215   0.726
 4986SOL    HW116791  13.104  13.290   0.758
 4986SOL    HW216792  13.120  13.147   0.712
 4987SOL     OW16793   9.708  10.193  12.986
 4987SOL    HW116794   9.624  10.197  12.941
 4987SOL    HW216795   9.773  10.187  12.916
 4988SOL     OW16796   0.499   0.188   1.424
 4988SOL    HW116797   0.551   0.268   1.419
 4988SOL    HW216798   0.413   0.213   1.391
 4989SOL     OW16799  12.115   3.295   8.714
 4989SOL    HW116800  12.158   3.379   8.699
 4989SOL    HW216801  12.033   3.300   8.664
 4990SOL     OW16802  12.054   2.728   6.403
 4990SOL    HW116803  12.144   2.696   6.395
 4990SOL    HW216804  12.049   2.764   6.491
 4991SOL     OW16805   1.973  12.325  10.432
 4991SOL    HW116806   1.897  12.377  10.459
 4991SOL    HW216807   1.943  12.277  10.355
 4992SOL     OW16808   9.389  10.931   2.672
 4992SOL    HW116809   9.455  10.862   2.663
 4992SOL    HW216810   9.311  10.895   2.630
 4993SOL     OW16811   6.176  13.702   1.196
 4993SOL    HW116812   6.086  13.734   1.201
 4993SOL    HW216813   6.229  13.771   1.238
 4994SOL     OW16814   5.727   4.664   4.282
 4994SOL    HW116815   5.711   4.587   4.336
 4994SOL    HW216816   5.821   4.678   4.287
 4995SOL     OW16817   8.291   8.480   8.630
 4995SOL    HW116818   8.266   8.419   8.699
 4995SOL    HW216819   8.260   8.439   8.549
 4996SOL     OW16820  13.860  13.203   2.291
 4996SOL    HW116821  13.871  13.184   2.198
 4996SOL    HW216822  13.766  13.196   2.306
 4997SOL     OW16823  11.803   3.582   5.708
 4997SOL    HW116824  11.764   3.570   5.621
 4997SOL    HW216825  11.895   3.558   5.696
 4998SOL     OW16826   7.618   1.174  14.581
 4998SOL    HW116827   7.598   1.255  14.627
 4998SOL    HW216828   7.537   1.151  14.536
 4999SOL     OW16829   6.915   5.439   5.081
 4999SOL    HW116830   6.993   5.441   5.136
 4999SOL    HW216831   6.894   5.531   5.066
 5000SOL     OW16832   0.215   4.653  14.796
 5000SOL    HW116833   0.158   4.684  14.866
 5000SOL    HW216834   0.214   4.558  14.804
 5001SOL     OW16835   8.152   9.784   5.282
 5001SOL    HW116836   8.091   9.751   5.216
 5001SOL    HW216837   8.099   9.845   5.334
 5002SOL     OW16838   4.354  13.470   0.734
 5002SOL    HW116839   4.342  13.419   0.814
 5002SOL    HW216840   4.446  13.456   0.711
 5003SOL     OW16841   8.470   0.639   9.372
 5003SOL    HW116842   8.396   0.699   9.375
 5003SOL    HW216843   8.444   0.571   9.310
 5004SOL     OW16844   1.149  10.696  14.115
 5004SOL    HW116845   1.153  10.657  14.202
 5004SOL    HW216846   1.232  10.743  14.106
 5005SOL     OW16847  12.408   1.334   3.873
 5005SOL    HW116848  12.475   1.268   3.891
 5005SOL    HW216849  12.327   1.284   3.862
 5006SOL     OW16850  11.447  13.672   9.748
 5006SOL    HW116851  11.468  13.647   9.658
 5006SOL    HW216852  11.361  13.634   9.764
 5007SOL     OW16853   8.728   3.576   8.533
 5007SOL    HW116854   8.763   3.665   8.524
 5007SOL    HW216855   8.706   3.550   8.443
 5008SOL     OW16856   1.554   8.052   9.051
 5008SOL    HW116857   1.491   7.980   9.045
 5008SOL    HW216858   1.501   8.129   9.073
 5009SOL     OW16859   1.903   8.851  13.662
 5009SOL    HW116860   1.863   8.820  13.743
 5009SOL    HW216861   1.996   8.861  13.683
 5010SOL     OW16862  13.193   0.704   5.050
 5010SOL    HW116863  13.249   0.631   5.023
 5010SOL    HW216864  13.200   0.767   4.978
 5011SOL     OW16865   9.583   2.304   3.235
 5011SOL    HW116866   9.493   2.336   3.245
 5011SOL    HW216867   9.631   2.343   3.308
 5012SOL     OW16868   7.453   6.370   1.805
 5012SOL    HW116869   7.409   6.428   1.744
 5012SOL    HW216870   7.438   6.282   1.769
 5013SOL     OW16871  11.646   7.948   8.440
 5013SOL    HW116872  11.620   8.001   8.516
 5013SOL    HW216873  11.717   7.893   8.474
 5014SOL     OW16874   7.155   3.553   1.735
 5014SOL    HW116875   7.114   3.466   1.729
 5014SOL    HW216876   7.081   3.614   1.740
 5015SOL     OW16877   6.437   7.508   9.418
 5015SOL    HW116878   6.374   7.521   9.347
 5015SOL    HW216879   6.521   7.498   9.374
 5016SOL     OW16880   9.562   0.473   2.501
 5016SOL    HW116881   9.518   0.393   2.471
 5016SOL    HW216882   9.586   0.454   2.592
 5017SOL     OW16883   5.037   8.683  11.542
 5017SOL    HW116884   5.036   8.618  11.471
 5017SOL    HW216885   5.125   8.676  11.579
 5018SOL     OW16886   4.294  12.114   1.594
 5018SOL    HW116887   4.281  12.206   1.573
 5018SOL    HW216888   4.373  12.112   1.648
 5019SOL     OW16889   6.634  10.285   8.994
 5019SOL    HW116890   6.650  10.293   8.900
 5019SOL    HW216891   6.609  10.193   9.006
 5020SOL     OW16892  13.896   1.623  14.082
 5020SOL    HW116893  13.802   1.609  14.071
 5020SOL    HW216894  13.912   1.711  14.047
 5021SOL     OW16895   3.877   1.288  14.620
 5021SOL    HW116896   3.890   1.331  14.536
 5021SOL    HW216897   3.888   1.195  14.602
 5022SOL     OW16898  11.257  11.612  12.670
 5022SOL    HW116899  11.216  11.641  12.588
 5022SOL    HW216900  11.222  11.672  12.736
 5023SOL     OW16901   7.326   4.079  13.107
 5023SOL    HW116902   7.292   3.996  13.138
 5023SOL    HW216903   7.250   4.123  13.069
 5024SOL     OW16904  14.196   0.769   2.374
 5024SOL    HW116905  14.188   0.793   2.466
 5024SOL    HW216906  14.285   0.795   2.350
 5025SOL     OW16907  14.553   8.657   8.662
 5025SOL    HW116908  14.516   8.569   8.651
 5025SOL    HW216909  14.626   8.645   8.723
 5026SOL     OW16910   5.686  11.406   4.996
 5026SOL    HW116911   5.615  11.448   4.947
 5026SOL    HW216912   5.765  11.454   4.968
 5027SOL     OW16913   6.846  10.587   1.425
 5027SOL    HW116914   6.889  10.588   1.511
 5027SOL    HW216915   6.918  10.593   1.362
 5028SOL     OW16916   3.638  13.691   2.673
 5028SOL    HW116917   3.672  13.742   2.599
 5028SOL    HW216918   3.548  13.721   2.684
 5029SOL     OW16919  13.351   8.986  12.894
 5029SOL    HW116920  13.447   8.986  12.899
 5029SOL    HW216921  13.324   8.908  12.942
 5030SOL     OW16922   4.076   1.148   4.135
 5030SOL    HW116923   4.104   1.213   4.071
 5030SOL    HW216924   4.148   1.085   4.139
 5031SOL     OW16925  12.119   7.989   9.066
 5031SOL    HW116926  12.111   7.919   9.001
 5031SOL    HW216927  12.182   7.956   9.129
 5032SOL     OW16928   3.446  10.874  12.750
 5032SOL    HW116929   3.480  10.786  12.735
 5032SOL    HW216930   3.441  10.914  12.663
 5033SOL     OW16931  14.252   6.369   4.458
 5033SOL    HW116932  14.318   6.300   4.452
 5033SOL    HW216933  14.302   6.451   4.450
 5034SOL     OW16934   8.114   9.804   8.227
 5034SOL    HW116935   8.175   9.867   8.266
 5034SOL    HW216936   8.131   9.809   8.133
 5035SOL     OW16937  14.136   2.116   4.408
 5035SOL    HW116938  14.156   2.025   4.389
 5035SOL    HW216939  14.197   2.166   4.353
 5036SOL     OW16940   4.381   1.093   8.180
 5036SOL    HW116941   4.369   1.008   8.224
 5036SOL    HW216942   4.350   1.077   8.090
 5037SOL     OW16943   3.802  13.900   2.858
 5037SOL    HW116944   3.730  13.947   2.900
 5037SOL    HW216945   3.836  13.962   2.793
 5038SOL     OW16946  13.282   2.370  13.182
 5038SOL    HW116947  13.346   2.391  13.115
 5038SOL    HW216948  13.331   2.369  13.264
 5039SOL     OW16949   6.816   9.997   1.587
 5039SOL    HW116950   6.778   9.947   1.515
 5039SOL    HW216951   6.813   9.937   1.662
 5040SOL     OW16952  10.570   7.978   6.927
 5040SOL    HW116953  10.542   8.016   7.010
 5040SOL    HW216954  10.557   7.884   6.937
 5041SOL     OW16955   0.052   8.153   6.818
 5041SOL    HW116956   0.087   8.228   6.769
 5041SOL    HW216957   0.053   8.182   6.910
 5042SOL     OW16958  14.194  14.348   6.479
 5042SOL    HW116959  14.180  14.434   6.518
 5042SOL    HW216960  14.106  14.310   6.471
 5043SOL     OW16961   3.032   4.026   0.844
 5043SOL    HW116962   3.085   3.953   0.876
 5043SOL    HW216963   2.978   3.988   0.775
 5044SOL     OW16964  12.408   6.983   9.366
 5044SOL    HW116965  12.396   7.021   9.278
 5044SOL    HW216966  12.426   7.058   9.422
 5045SOL     OW16967   1.447   2.984  13.204
 5045SOL    HW116968   1.447   2.952  13.114
 5045SOL    HW216969   1.375   2.937  13.247
 5046SOL     OW16970  13.996   7.835  14.671
 5046SOL    HW116971  14.047   7.900  14.719
 5046SOL    HW216972  13.906   7.850  14.699
 5047SOL     OW16973   1.164  12.810   3.696
 5047SOL    HW116974   1.159  12.905   3.691
 5047SOL    HW216975   1.073  12.780   3.694
 5048SOL     OW16976   2.795   2.289  10.103
 5048SOL    HW116977   2.806   2.246  10.018
 5048SOL    HW216978   2.702   2.315  10.104
 5049SOL     OW16979   4.736   8.685   6.559
 5049SOL    HW116980   4.772   8.766   6.523
 5049SOL    HW216981   4.797   8.660   6.628
 5050SOL     OW16982  14.796   8.180   2.688
 5050SOL    HW116983   0.004   8.192   2.727
 5050SOL    HW216984  14.808   8.204   2.596
 5051SOL     OW16985   4.586   8.300  11.844
 5051SOL    HW116986   4.678   8.312  11.866
 5051SOL    HW216987   4.582   8.211  11.807
 5052SOL     OW16988   4.501   6.915   2.898
 5052SOL    HW116989   4.524   6.956   2.982
 5052SOL    HW216990   4.551   6.964   2.833
 5053SOL     OW16991   2.986  12.589  12.442
 5053SOL    HW116992   3.028  12.520  12.391
 5053SOL    HW216993   2.914  12.545  12.488
 5054SOL     OW16994   8.560   8.991   7.775
 5054SOL    HW116995   8.507   8.912   7.763
 5054SOL    HW216996   8.643   8.971   7.731
 5055SOL     OW16997   9.729  10.830  14.597
 5055SOL    HW116998   9.736  10.747  14.551
 5055SOL    HW216999   9.692  10.808  14.682
 5056SOL     OW17000   1.706   8.784   5.458
 5056SOL    HW117001   1.660   8.748   5.382
 5056SOL    HW217002   1.775   8.720   5.477
 5057SOL     OW17003   9.004   1.712   6.411
 5057SOL    HW117004   9.040   1.770   6.344
 5057SOL    HW217005   8.957   1.646   6.361
 5058SOL     OW17006  14.004  10.896   8.220
 5058SOL    HW117007  14.004  10.918   8.127
 5058SOL    HW217008  13.957  10.812   8.225
 5059SOL     OW17009   2.617   0.286  11.405
 5059SOL    HW117010   2.621   0.224  11.332
 5059SOL    HW217011   2.543   0.256  11.458
 5060SOL     OW17012  13.019   5.054   3.831
 5060SOL    HW117013  13.052   5.043   3.742
 5060SOL    HW217014  12.940   4.999   3.835
 5061SOL     OW17015   5.780   1.427   6.626
 5061SOL    HW117016   5.719   1.458   6.693
 5061SOL    HW217017   5.866   1.450   6.661
 5062SOL     OW17018   2.406   6.999  11.657
 5062SOL    HW117019   2.466   6.940  11.612
 5062SOL    HW217020   2.461   7.044  11.721
 5063SOL     OW17021  10.695  10.358  12.515
 5063SOL    HW117022  10.751  10.422  12.559
 5063SOL    HW217023  10.752  10.282  12.502
 5064SOL     OW17024   6.333  12.082   6.587
 5064SOL    HW117025   6.377  12.166   6.596
 5064SOL    HW217026   6.289  12.086   6.503
 5065SOL     OW17027   2.281   6.277   9.073
 5065SOL    HW117028   2.326   6.336   9.012
 5065SOL    HW217029   2.197   6.320   9.090
 5066SOL     OW17030   9.627  11.324   4.090
 5066SOL    HW117031   9.597  11.278   4.011
 5066SOL    HW217032   9.717  11.350   4.069
 5067SOL     OW17033   8.717  11.704   2.151
 5067SOL    HW117034   8.743  11.784   2.197
 5067SOL    HW217035   8.648  11.733   2.091
 5068SOL     OW17036   6.229   1.999   7.487
 5068SOL    HW117037   6.166   2.069   7.469
 5068SOL    HW217038   6.175   1.921   7.500
 5069SOL     OW17039  14.332   9.966   7.386
 5069SOL    HW117040  14.291  10.034   7.439
 5069SOL    HW217041  14.339  10.004   7.298
 5070SOL     OW17042   7.454   2.280   2.876
 5070SOL    HW117043   7.473   2.192   2.906
 5070SOL    HW217044   7.382   2.269   2.813
 5071SOL     OW17045  12.571   0.786  14.478
 5071SOL    HW117046  12.549   0.806  14.569
 5071SOL    HW217047  12.517   0.709  14.457
 5072SOL     OW17048  10.397   9.793   7.992
 5072SOL    HW117049  10.449   9.768   7.916
 5072SOL    HW217050  10.311   9.817   7.955
 5073SOL     OW17051   4.007  13.547   5.558
 5073SOL    HW117052   4.029  13.561   5.650
 5073SOL    HW217053   4.090  13.525   5.516
 5074SOL     OW17054  13.055   2.259  13.856
 5074SOL    HW117055  13.095   2.250  13.769
 5074SOL    HW217056  13.128   2.281  13.914
 5075SOL     OW17057  14.478  11.770   9.650
 5075SOL    HW117058  14.497  11.864   9.653
 5075SOL    HW217059  14.407  11.757   9.713
 5076SOL     OW17060   8.600   2.139  12.282
 5076SOL    HW117061   8.507   2.162  12.289
 5076SOL    HW217062   8.604   2.079  12.207
 5077SOL     OW17063   8.646   9.848   3.351
 5077SOL    HW117064   8.640   9.753   3.358
 5077SOL    HW217065   8.656   9.878   3.442
 5078SOL     OW17066  14.400   5.566  13.848
 5078SOL    HW117067  14.371   5.545  13.937
 5078SOL    HW217068  14.353   5.646  13.826
 5079SOL     OW17069   5.570   8.559   3.911
 5079SOL    HW117070   5.581   8.540   4.005
 5079SOL    HW217071   5.649   8.608   3.887
 5080SOL     OW17072   8.489   9.009   3.119
 5080SOL    HW117073   8.531   9.090   3.147
 5080SOL    HW217074   8.395   9.025   3.130
 5081SOL     OW17075  13.616  12.775   7.844
 5081SOL    HW117076  13.535  12.729   7.822
 5081SOL    HW217077  13.629  12.837   7.772
 5082SOL     OW17078   9.256  12.191   6.782
 5082SOL    HW117079   9.283  12.109   6.824
 5082SOL    HW217080   9.172  12.171   6.742
 5083SOL     OW17081  13.764   0.413   5.259
 5083SOL    HW117082  13.809   0.434   5.340
 5083SOL    HW217083  13.816   0.342   5.221
 5084SOL     OW17084   0.910   9.967   0.113
 5084SOL    HW117085   0.871   9.884   0.141
 5084SOL    HW217086   0.964   9.995   0.187
 5085SOL     OW17087   7.902   7.655   0.245
 5085SOL    HW117088   7.904   7.621   0.334
 5085SOL    HW217089   7.968   7.725   0.244
 5086SOL     OW17090  11.303   0.879   0.531
 5086SOL    HW117091  11.296   0.787   0.506
 5086SOL    HW217092  11.338   0.922   0.453
 5087SOL     OW17093   5.685   8.278   4.026
 5087SOL    HW117094   5.597   8.273   4.062
 5087SOL    HW217095   5.685   8.357   3.972
 5088SOL     OW17096   3.580   5.610   1.648
 5088SOL    HW117097   3.586   5.705   1.644
 5088SOL    HW217098   3.666   5.582   1.678
 5089SOL     OW17099  14.034   6.472  13.962
 5089SOL    HW117100  14.104   6.408  13.949
 5089SOL    HW217101  13.959   6.420  13.990
 5090SOL     OW17102   5.150   9.951   6.869
 5090SOL    HW117103   5.055   9.946   6.860
 5090SOL    HW217104   5.173   9.873   6.920
 5091SOL     OW17105   0.997  12.301   1.873
 5091SOL    HW117106   1.089  12.328   1.876
 5091SOL    HW217107   0.969  12.299   1.964
 5092SOL     OW17108   6.031   9.537   9.521
 5092SOL    HW117109   5.936   9.546   9.533
 5092SOL    HW217110   6.056   9.466   9.581
 5093SOL     OW17111   1.317  11.106  12.504
 5093SOL    HW117112   1.235  11.057  12.513
 5093SOL    HW217113   1.334  11.107  12.410
 5094SOL     OW17114  14.672   6.952  12.409
 5094SOL    HW117115  14.677   6.935  12.315
 5094SOL    HW217116  14.634   6.872  12.446
 5095SOL     OW17117   3.108   3.914   9.362
 5095SOL    HW117118   3.072   3.830   9.333
 5095SOL    HW217119   3.095   3.973   9.288
 5096SOL     OW17120   0.107   3.852   9.573
 5096SOL    HW117121   0.119   3.768   9.529
 5096SOL    HW217122   0.060   3.905   9.509
 5097SOL     OW17123   0.222   3.601  12.983
 5097SOL    HW117124   0.226   3.674  12.921
 5097SOL    HW217125   0.254   3.638  13.065
 5098SOL     OW17126  12.891  14.373   2.348
 5098SOL    HW117127  12.942  14.412   2.277
 5098SOL    HW217128  12.804  14.361   2.310
 5099SOL     OW17129   8.426   4.172   6.068
 5099SOL    HW117130   8.517   4.150   6.086
 5099SOL    HW217131   8.386   4.184   6.154
 5100SOL     OW17132   0.728  13.860   6.630
 5100SOL    HW117133   0.642  13.897   6.611
 5100SOL    HW217134   0.732  13.856   6.726
 5101SOL     OW17135  11.255   9.044  10.658
 5101SOL    HW117136  11.196   9.116  10.637
 5101SOL    HW217137  11.332   9.087  10.696
 5102SOL     OW17138   8.601   9.334   6.357
 5102SOL    HW117139   8.506   9.339   6.365
 5102SOL    HW217140   8.624   9.248   6.390
 5103SOL     OW17141   8.969   6.080   9.585
 5103SOL    HW117142   8.958   5.985   9.576
 5103SOL    HW217143   9.063   6.092   9.595
 5104SOL     OW17144  13.972   6.827  10.814
 5104SOL    HW117145  13.966   6.906  10.867
 5104SOL    HW217146  13.944   6.757  10.873
 5105SOL     OW17147   4.505   4.231   6.882
 5105SOL    HW117148   4.596   4.208   6.865
 5105SOL    HW217149   4.497   4.227   6.977
 5106SOL     OW17150   7.530  13.219   5.901
 5106SOL    HW117151   7.525  13.206   5.806
 5106SOL    HW217152   7.588  13.149   5.932
 5107SOL     OW17153   2.025   2.287   3.896
 5107SOL    HW117154   2.091   2.355   3.911
 5107SOL    HW217155   2.076   2.208   3.876
 5108SOL     OW17156  14.215   2.262   8.889
 5108SOL    HW117157  14.128   2.298   8.873
 5108SOL    HW217158  14.250   2.247   8.801
 5109SOL     OW17159   5.796   7.377   3.076
 5109SOL    HW117160   5.807   7.371   2.981
 5109SOL    HW217161   5.701   7.385   3.088
 5110SOL     OW17162   5.516   9.415  14.392
 5110SOL    HW117163   5.486   9.386  14.306
 5110SOL    HW217164   5.438   9.414  14.447
 5111SOL     OW17165   0.265   7.944   3.594
 5111SOL    HW117166   0.206   7.992   3.651
 5111SOL    HW217167   0.350   7.948   3.639
 5112SOL     OW17168   5.840  14.768   7.477
 5112SOL    HW117169   5.780  14.744   7.548
 5112SOL    HW217170   5.927  14.764   7.517
 5113SOL     OW17171   1.557  13.426   4.155
 5113SOL    HW117172   1.644  13.397   4.127
 5113SOL    HW217173   1.571  13.461   4.243
 5114SOL     OW17174  13.504  11.379   2.457
 5114SOL    HW117175  13.549  11.433   2.391
 5114SOL    HW217176  13.459  11.312   2.406
 5115SOL     OW17177   4.549   7.088   0.493
 5115SOL    HW117178   4.530   7.134   0.411
 5115SOL    HW217179   4.638   7.055   0.483
 5116SOL     OW17180  14.726  13.309   5.398
 5116SOL    HW117181  14.768  13.237   5.352
 5116SOL    HW217182  14.743  13.386   5.343
 5117SOL     OW17183   4.275  11.326  12.801
 5117SOL    HW117184   4.195  11.346  12.850
 5117SOL    HW217185   4.286  11.231  12.811
 5118SOL     OW17186   0.650  11.980  11.739
 5118SOL    HW117187   0.704  12.051  11.774
 5118SOL    HW217188   0.653  11.913  11.807
 5119SOL     OW17189   4.492   8.192   2.481
 5119SOL    HW117190   4.567   8.145   2.444
 5119SOL    HW217191   4.430   8.123   2.504
 5120SOL     OW17192   1.286   6.623   2.174
 5120SOL    HW117193   1.353   6.615   2.242
 5120SOL    HW217194   1.326   6.585   2.095
 5121SOL     OW17195  10.536   3.032   3.821
 5121SOL    HW117196  10.460   3.022   3.878
 5121SOL    HW217197  10.606   2.984   3.866
 5122SOL     OW17198   6.526   2.806   8.189
 5122SOL    HW117199   6.496   2.881   8.137
 5122SOL    HW217200   6.510   2.832   8.280
 5123SOL     OW17201   9.546  14.328  10.713
 5123SOL    HW117202   9.565  14.359  10.802
 5123SOL    HW217203   9.460  14.365  10.693
 5124SOL     OW17204   5.908   3.472  11.462
 5124SOL    HW117205   5.838   3.456  11.526
 5124SOL    HW217206   5.877   3.546  11.410
 5125SOL     OW17207  10.903   6.968   6.980
 5125SOL    HW117208  10.827   6.935   7.028
 5125SOL    HW217209  10.953   7.017   7.045
 5126SOL     OW17210   2.748  10.419   8.433
 5126SOL    HW117211   2.756  10.324   8.426
 5126SOL    HW217212   2.797  10.453   8.358
 5127SOL     OW17213   0.959  12.108   6.101
 5127SOL    HW117214   0.895  12.038   6.113
 5127SOL    HW217215   0.972  12.145   6.188
 5128SOL     OW17216  10.493   3.179   6.675
 5128SOL    HW117217  10.407   3.189   6.716
 5128SOL    HW217218  10.507   3.085   6.671
 5129SOL     OW17219   8.394   1.249  13.056
 5129SOL    HW117220   8.340   1.320  13.022
 5129SOL    HW217221   8.454   1.291  13.117
 5130SOL     OW17222   5.438   3.322  12.274
 5130SOL    HW117223   5.489   3.355  12.200
 5130SOL    HW217224   5.370   3.388  12.287
 5131SOL     OW17225   4.096   8.566   5.182
 5131SOL    HW117226   4.023   8.625   5.203
 5131SOL    HW217227   4.153   8.571   5.260
 5132SOL     OW17228   1.555   4.883   4.606
 5132SOL    HW117229   1.567   4.955   4.668
 5132SOL    HW217230   1.558   4.805   4.660
 5133SOL     OW17231  10.279   7.305   4.046
 5133SOL    HW117232  10.285   7.393   4.083
 5133SOL    HW217233  10.366   7.289   4.009
 5134SOL     OW17234   0.438   5.534  11.288
 5134SOL    HW117235   0.483   5.467  11.237
 5134SOL    HW217236   0.501   5.562  11.354
 5135SOL     OW17237   0.882   2.669   2.148
 5135SOL    HW117238   0.808   2.618   2.180
 5135SOL    HW217239   0.868   2.756   2.185
 5136SOL     OW17240   4.267   9.666  12.924
 5136SOL    HW117241   4.350   9.659  12.972
 5136SOL    HW217242   4.291   9.659  12.832
 5137SOL     OW17243  13.394  12.116   7.252
 5137SOL    HW117244  13.413  12.035   7.299
 5137SOL    HW217245  13.478  12.145   7.218
 5138SOL     OW17246  10.638   2.382   1.117
 5138SOL    HW117247  10.595   2.341   1.193
 5138SOL    HW217248  10.717   2.421   1.153
 5139SOL     OW17249   1.678   8.893   0.980
 5139SOL    HW117250   1.689   8.866   1.071
 5139SOL    HW217251   1.630   8.975   0.985
 5140SOL     OW17252   3.991   5.211   0.028
 5140SOL    HW117253   3.954   5.162  14.833
 5140SOL    HW217254   3.948   5.173   0.105
 5141SOL     OW17255   3.310   1.866   8.525
 5141SOL    HW117256   3.226   1.893   8.562
 5141SOL    HW217257   3.314   1.909   8.440
 5142SOL     OW17258   3.794   2.038   8.727
 5142SOL    HW117259   3.731   2.064   8.660
 5142SOL    HW217260   3.879   2.052   8.686
 5143SOL     OW17261  13.471   8.473   6.854
 5143SOL    HW117262  13.465   8.409   6.925
 5143SOL    HW217263  13.475   8.557   6.899
 5144SOL     OW17264   4.936   3.220  12.669
 5144SOL    HW117265   4.846   3.198  12.691
 5144SOL    HW217266   4.986   3.202  12.749
 5145SOL     OW17267   7.977   6.053   8.164
 5145SOL    HW117268   8.053   6.042   8.221
 5145SOL    HW217269   7.919   6.113   8.213
 5146SOL     OW17270   4.154  14.563  10.756
 5146SOL    HW117271   4.147  14.599  10.845
 5146SOL    HW217272   4.150  14.639  10.699
 5147SOL     OW17273   2.418   7.448   3.401
 5147SOL    HW117274   2.511   7.438   3.381
 5147SOL    HW217275   2.383   7.502   3.330
 5148SOL     OW17276  11.014  14.508   8.158
 5148SOL    HW117277  10.953  14.503   8.231
 5148SOL    HW217278  10.967  14.555   8.089
 5149SOL     OW17279   2.189  11.481   2.100
 5149SOL    HW117280   2.239  11.497   2.180
 5149SOL    HW217281   2.168  11.387   2.104
 5150SOL     OW17282   5.929   1.097  10.570
 5150SOL    HW117283   5.909   1.005  10.554
 5150SOL    HW217284   6.003   1.095  10.630
 5151SOL     OW17285   0.271   8.984   8.748
 5151SOL    HW117286   0.354   9.022   8.722
 5151SOL    HW217287   0.253   9.022   8.834
 5152SOL     OW17288   4.479   4.682  13.809
 5152SOL    HW117289   4.387   4.656  13.810
 5152SOL    HW217290   4.489   4.735  13.730
 5153SOL     OW17291   9.001  14.473   3.845
 5153SOL    HW117292   9.051  14.409   3.793
 5153SOL    HW217293   8.975  14.540   3.782
 5154SOL     OW17294  12.941   6.600  12.674
 5154SOL    HW117295  12.919   6.524  12.620
 5154SOL    HW217296  12.923   6.572  12.763
 5155SOL     OW17297  14.015   7.518   1.491
 5155SOL    HW117298  14.100   7.559   1.507
 5155SOL    HW217299  14.028   7.467   1.410
 5156SOL     OW17300   2.624  10.810   1.860
 5156SOL    HW117301   2.565  10.879   1.891
 5156SOL    HW217302   2.704  10.857   1.836
 5157SOL     OW17303   9.707   6.215   0.463
 5157SOL    HW117304   9.736   6.303   0.485
 5157SOL    HW217305   9.733   6.203   0.372
 5158SOL     OW17306   9.965   4.730   7.698
 5158SOL    HW117307  10.044   4.719   7.645
 5158SOL    HW217308   9.988   4.798   7.762
 5159SOL     OW17309  10.655   3.576   3.150
 5159SOL    HW117310  10.658   3.653   3.094
 5159SOL    HW217311  10.565   3.544   3.141
 5160SOL     OW17312  12.982   3.985   2.804
 5160SOL    HW117313  13.065   3.990   2.852
 5160SOL    HW217314  12.958   4.076   2.788
 5161SOL     OW17315   8.660   4.355   8.874
 5161SOL    HW117316   8.611   4.356   8.956
 5161SOL    HW217317   8.663   4.447   8.847
 5162SOL     OW17318   2.028  11.033   9.034
 5162SOL    HW117319   2.099  10.988   8.988
 5162SOL    HW217320   1.993  11.095   8.970
 5163SOL     OW17321   7.325   7.088  13.531
 5163SOL    HW117322   7.293   7.165  13.484
 5163SOL    HW217323   7.382   7.044  13.468
 5164SOL     OW17324  12.434   6.700  14.458
 5164SOL    HW117325  12.378   6.630  14.490
 5164SOL    HW217326  12.469   6.666  14.375
 5165SOL     OW17327   1.552   6.127   8.958
 5165SOL    HW117328   1.573   6.203   8.904
 5165SOL    HW217329   1.529   6.059   8.894
 5166SOL     OW17330   7.276  11.325   6.343
 5166SOL    HW117331   7.333  11.317   6.267
 5166SOL    HW217332   7.188  11.324   6.306
 5167SOL     OW17333  14.801   1.099   3.628
 5167SOL    HW117334  14.805   1.071   3.537
 5167SOL    HW217335  14.767   1.022   3.675
 5168SOL     OW17336  14.567  14.647   0.260
 5168SOL    HW117337  14.567  14.695   0.343
 5168SOL    HW217338  14.544  14.714   0.194
 5169SOL     OW17339  13.494   5.349   9.100
 5169SOL    HW117340  13.477   5.393   9.016
 5169SOL    HW217341  13.414   5.365   9.151
 5170SOL     OW17342  10.199  13.653   8.989
 5170SOL    HW117343  10.117  13.702   8.985
 5170SOL    HW217344  10.266  13.720   9.003
 5171SOL     OW17345   7.474   9.314   6.714
 5171SOL    HW117346   7.532   9.386   6.688
 5171SOL    HW217347   7.483   9.309   6.809
 5172SOL     OW17348   1.333   5.752  13.430
 5172SOL    HW117349   1.263   5.687  13.429
 5172SOL    HW217350   1.331   5.791  13.343
 5173SOL     OW17351   4.406   6.675   2.853
 5173SOL    HW117352   4.438   6.764   2.844
 5173SOL    HW217353   4.414   6.637   2.766
 5174SOL     OW17354   7.318   3.553   0.358
 5174SOL    HW117355   7.374   3.484   0.391
 5174SOL    HW217356   7.248   3.507   0.312
 5175SOL     OW17357   9.623   8.940   2.744
 5175SOL    HW117358   9.571   9.018   2.764
 5175SOL    HW217359   9.558   8.872   2.726
 5176SOL     OW17360   9.212   5.670   4.544
 5176SOL    HW117361   9.147   5.645   4.478
 5176SOL    HW217362   9.160   5.700   4.618
 5177SOL     OW17363   5.107  10.316   5.739
 5177SOL    HW117364   5.051  10.242   5.714
 5177SOL    HW217365   5.160  10.333   5.661
 5178SOL     OW17366  13.561   5.103   2.010
 5178SOL    HW117367  13.633   5.044   2.035
 5178SOL    HW217368  13.490   5.044   1.984
 5179SOL     OW17369   4.595   3.704   1.234
 5179SOL    HW117370   4.633   3.629   1.190
 5179SOL    HW217371   4.645   3.711   1.316
 5180SOL     OW17372   6.025   6.381   3.157
 5180SOL    HW117373   6.071   6.401   3.239
 5180SOL    HW217374   6.020   6.465   3.111
 5181SOL     OW17375   6.927   1.508  12.588
 5181SOL    HW117376   6.996   1.466  12.535
 5181SOL    HW217377   6.906   1.588  12.541
 5182SOL     OW17378  13.771  13.505   8.416
 5182SOL    HW117379  13.752  13.572   8.351
 5182SOL    HW217380  13.701  13.514   8.481
 5183SOL     OW17381   2.978  12.258  13.809
 5183SOL    HW117382   3.021  12.233  13.728
 5183SOL    HW217383   2.945  12.175  13.845
 5184SOL     OW17384   4.949   5.753   4.608
 5184SOL    HW117385   5.027   5.804   4.591
 5184SOL    HW217386   4.971   5.699   4.684
 5185SOL     OW17387   4.431   4.107  10.154
 5185SOL    HW117388   4.374   4.179  10.128
 5185SOL    HW217389   4.397   4.031  10.106
 5186SOL     OW17390  12.950  11.165   0.801
 5186SOL    HW117391  12.862  11.153   0.765
 5186SOL    HW217392  12.954  11.259   0.822
 5187SOL     OW17393  11.368  12.136   1.810
 5187SOL    HW117394  11.371  12.230   1.791
 5187SOL    HW217395  11.342  12.131   1.902
 5188SOL     OW17396  13.040   5.074   1.660
 5188SOL    HW117397  12.994   5.116   1.588
 5188SOL    HW217398  12.974   5.018   1.700
 5189SOL     OW17399  10.338   2.356  10.421
 5189SOL    HW117400  10.352   2.262  10.432
 5189SOL    HW217401  10.327   2.390  10.510
 5190SOL     OW17402  14.032   7.144   2.581
 5190SOL    HW117403  14.121   7.137   2.548
 5190SOL    HW217404  14.027   7.079   2.651
 5191SOL     OW17405   5.718   0.821   9.115
 5191SOL    HW117406   5.754   0.823   9.026
 5191SOL    HW217407   5.643   0.881   9.112
 5192SOL     OW17408  14.456   4.975   2.928
 5192SOL    HW117409  14.417   4.893   2.897
 5192SOL    HW217410  14.541   4.949   2.963
 5193SOL     OW17411   8.837   4.840   1.042
 5193SOL    HW117412   8.925   4.811   1.018
 5193SOL    HW217413   8.800   4.874   0.960
 5194SOL     OW17414  13.567   9.148  12.664
 5194SOL    HW117415  13.572   9.243  12.657
 5194SOL    HW217416  13.610   9.129  12.748
 5195SOL     OW17417  14.288   3.953   5.806
 5195SOL    HW117418  14.226   4.019   5.835
 5195SOL    HW217419  14.291   3.963   5.711
 5196SOL     OW17420   3.900   4.496  11.866
 5196SOL    HW117421   3.809   4.467  11.880
 5196SOL    HW217422   3.940   4.426  11.815
 5197SOL     OW17423  12.156  10.547  12.660
 5197SOL    HW117424  12.162  10.530  12.754
 5197SOL    HW217425  12.084  10.609  12.651
 5198SOL     OW17426   7.500  13.781  10.024
 5198SOL    HW117427   7.502  13.818  10.112
 5198SOL    HW217428   7.583  13.733  10.016
 5199SOL     OW17429   4.077   0.339   9.882
 5199SOL    HW117430   4.070   0.401   9.955
 5199SOL    HW217431   4.107   0.258   9.923
 5200SOL     OW17432  12.052   4.726   2.028
 5200SOL    HW117433  12.042   4.780   2.106
 5200SOL    HW217434  12.122   4.664   2.050
 5201SOL     OW17435   3.952   8.896   2.961
 5201SOL    HW117436   3.950   8.992   2.967
 5201SOL    HW217437   3.862   8.872   2.938
 5202SOL     OW17438   0.318   5.982   8.058
 5202SOL    HW117439   0.291   6.027   8.138
 5202SOL    HW217440   0.414   5.990   8.058
 5203SOL     OW17441  12.864  11.524  12.383
 5203SOL    HW117442  12.906  11.610  12.371
 5203SOL    HW217443  12.772  11.540  12.363
 5204SOL     OW17444   9.201   0.545   7.773
 5204SOL    HW117445   9.111   0.518   7.756
 5204SOL    HW217446   9.245   0.538   7.689
 5205SOL     OW17447   5.862   4.539  14.368
 5205SOL    HW117448   5.915   4.507  14.441
 5205SOL    HW217449   5.851   4.633  14.385
 5206SOL     OW17450  11.993   4.992   3.317
 5206SOL    HW117451  11.905   5.005   3.353
 5206SOL    HW217452  11.982   4.923   3.251
 5207SOL     OW17453   0.119   8.647   1.905
 5207SOL    HW117454   0.196   8.673   1.854
 5207SOL    HW217455   0.047   8.650   1.843
 5208SOL     OW17456   0.279   1.313  11.535
 5208SOL    HW117457   0.294   1.221  11.516
 5208SOL    HW217458   0.342   1.334  11.605
 5209SOL     OW17459  12.784   3.950   1.398
 5209SOL    HW117460  12.879   3.942   1.394
 5209SOL    HW217461  12.767   3.992   1.482
 5210SOL     OW17462   0.104   0.861   3.947
 5210SOL    HW117463   0.132   0.770   3.934
 5210SOL    HW217464   0.173   0.899   4.001
 5211SOL     OW17465  14.580   5.820   0.723
 5211SOL    HW117466  14.638   5.763   0.773
 5211SOL    HW217467  14.496   5.813   0.767
 5212SOL     OW17468  11.071   8.071  10.712
 5212SOL    HW117469  11.022   8.092  10.633
 5212SOL    HW217470  11.158   8.107  10.696
 5213SOL     OW17471   3.696   4.974   7.101
 5213SOL    HW117472   3.763   4.922   7.145
 5213SOL    HW217473   3.618   4.919   7.103
 5214SOL     OW17474  10.956  14.468   6.810
 5214SOL    HW117475  10.882  14.513   6.771
 5214SOL    HW217476  11.033  14.511   6.773
 5215SOL     OW17477  12.644   0.572  12.176
 5215SOL    HW117478  12.644   0.480  12.205
 5215SOL    HW217479  12.575   0.613  12.228
 5216SOL     OW17480  10.444   4.269  14.822
 5216SOL    HW117481  10.498   4.226  14.756
 5216SOL    HW217482  10.369   4.211  14.833
 5217SOL     OW17483   6.477   9.225   0.257
 5217SOL    HW117484   6.391   9.190   0.280
 5217SOL    HW217485   6.539   9.165   0.300
 5218SOL     OW17486  14.439  10.408  12.251
 5218SOL    HW117487  14.401  10.364  12.327
 5218SOL    HW217488  14.433  10.344  12.180
 5219SOL     OW17489  14.426   8.599   3.273
 5219SOL    HW117490  14.471   8.539   3.213
 5219SOL    HW217491  14.334   8.592   3.250
 5220SOL     OW17492   7.497  11.084   0.077
 5220SOL    HW117493   7.572  11.028   0.094
 5220SOL    HW217494   7.478  11.126   0.161
 5221SOL     OW17495  14.079  13.738   1.816
 5221SOL    HW117496  14.124  13.778   1.741
 5221SOL    HW217497  14.085  13.644   1.800
 5222SOL     OW17498   7.534  12.888  14.389
 5222SOL    HW117499   7.591  12.811  14.390
 5222SOL    HW217500   7.573  12.944  14.322
 5223SOL     OW17501   6.718   6.142   2.452
 5223SOL    HW117502   6.803   6.098   2.441
 5223SOL    HW217503   6.725   6.220   2.397
 5224SOL     OW17504   4.094   1.988   0.305
 5224SOL    HW117505   4.102   2.043   0.383
 5224SOL    HW217506   4.005   2.003   0.274
 5225SOL     OW17507  13.198   4.921   5.416
 5225SOL    HW117508  13.279   4.880   5.445
 5225SOL    HW217509  13.218   4.959   5.332
 5226SOL     OW17510   5.553  13.275  12.307
 5226SOL    HW117511   5.626  13.290  12.247
 5226SOL    HW217512   5.578  13.321  12.387
 5227SOL     OW17513   7.942   7.451   9.716
 5227SOL    HW117514   7.979   7.438   9.803
 5227SOL    HW217515   7.896   7.369   9.697
 5228SOL     OW17516   1.947   7.831   4.705
 5228SOL    HW117517   1.991   7.823   4.789
 5228SOL    HW217518   1.945   7.742   4.670
 5229SOL     OW17519   5.502  13.981   7.114
 5229SOL    HW117520   5.520  14.018   7.027
 5229SOL    HW217521   5.536  14.046   7.176
 5230SOL     OW17522   4.342  10.451   1.799
 5230SOL    HW117523   4.319  10.364   1.829
 5230SOL    HW217524   4.421  10.438   1.746
 5231SOL     OW17525   8.442  11.176  10.950
 5231SOL    HW117526   8.476  11.148  10.865
 5231SOL    HW217527   8.350  11.151  10.948
 5232SOL     OW17528   7.294   6.101   1.508
 5232SOL    HW117529   7.236   6.028   1.527
 5232SOL    HW217530   7.345   6.112   1.589
 5233SOL     OW17531   3.707   5.087   8.234
 5233SOL    HW117532   3.785   5.116   8.280
 5233SOL    HW217533   3.737   5.016   8.177
 5234SOL     OW17534   6.562   0.459  13.501
 5234SOL    HW117535   6.643   0.409  13.487
 5234SOL    HW217536   6.530   0.477  13.412
 5235SOL     OW17537  10.122   3.582  14.555
 5235SOL    HW117538  10.198   3.571  14.612
 5235SOL    HW217539  10.115   3.500  14.508
 5236SOL     OW17540  11.222   8.498  10.562
 5236SOL    HW117541  11.173   8.565  10.514
 5236SOL    HW217542  11.277   8.456  10.495
 5237SOL     OW17543   6.617  13.250   8.842
 5237SOL    HW117544   6.655  13.329   8.879
 5237SOL    HW217545   6.620  13.264   8.747
 5238SOL     OW17546   5.778   3.444   9.132
 5238SOL    HW117547   5.688   3.412   9.140
 5238SOL    HW217548   5.784   3.476   9.042
 5239SOL     OW17549   4.880  11.267   5.391
 5239SOL    HW117550   4.823  11.223   5.454
 5239SOL    HW217551   4.832  11.261   5.308
 5240SOL     OW17552   9.883  13.565   4.736
 5240SOL    HW117553   9.860  13.525   4.652
 5240SOL    HW217554   9.895  13.657   4.716
 5241SOL     OW17555   1.695   3.442  12.813
 5241SOL    HW117556   1.636   3.517  12.801
 5241SOL    HW217557   1.777   3.469  12.772
 5242SOL     OW17558   8.895  11.660   4.301
 5242SOL    HW117559   8.831  11.643   4.370
 5242SOL    HW217560   8.849  11.640   4.220
 5243SOL     OW17561   6.100   2.919  10.622
 5243SOL    HW117562   6.143   2.861  10.559
 5243SOL    HW217563   6.082   2.863  10.698
 5244SOL     OW17564   3.211   2.148   7.718
 5244SOL    HW117565   3.189   2.187   7.633
 5244SOL    HW217566   3.300   2.177   7.735
 5245SOL     OW17567  13.374  13.644   2.179
 5245SOL    HW117568  13.441  13.646   2.247
 5245SOL    HW217569  13.299  13.602   2.221
 5246SOL     OW17570   7.662  11.338  11.745
 5246SOL    HW117571   7.720  11.269  11.714
 5246SOL    HW217572   7.629  11.380  11.666
 5247SOL     OW17573   6.735   9.144   1.477
 5247SOL    HW117574   6.805   9.078   1.474
 5247SOL    HW217575   6.665   9.101   1.527
 5248SOL     OW17576   5.103   6.619   9.326
 5248SOL    HW117577   5.071   6.563   9.255
 5248SOL    HW217578   5.083   6.708   9.297
 5249SOL     OW17579   0.299   8.853   2.125
 5249SOL    HW117580   0.261   8.879   2.041
 5249SOL    HW217581   0.363   8.922   2.145
 5250SOL     OW17582   2.785   3.364   4.025
 5250SOL    HW117583   2.784   3.375   3.930
 5250SOL    HW217584   2.814   3.449   4.058
 5251SOL     OW17585   9.213   0.968  11.827
 5251SOL    HW117586   9.293   0.963  11.880
 5251SOL    HW217587   9.219   0.893  11.768
 5252SOL     OW17588   5.927   3.728   2.618
 5252SOL    HW117589   5.998   3.791   2.621
 5252SOL    HW217590   5.924   3.691   2.707
 5253SOL     OW17591  14.551   8.355  12.718
 5253SOL    HW117592  14.607   8.408  12.662
 5253SOL    HW217593  14.464   8.361  12.677
 5254SOL     OW17594   4.506   6.497   9.200
 5254SOL    HW117595   4.460   6.506   9.117
 5254SOL    HW217596   4.597   6.517   9.179
 5255SOL     OW17597  10.440   9.429  10.352
 5255SOL    HW117598  10.471   9.487  10.421
 5255SOL    HW217599  10.354   9.463  10.328
 5256SOL     OW17600   4.014  10.123  13.023
 5256SOL    HW117601   4.057  10.173  12.953
 5256SOL    HW217602   4.036  10.032  13.003
 5257SOL     OW17603   4.935   8.703   5.843
 5257SOL    HW117604   4.959   8.619   5.883
 5257SOL    HW217605   5.015   8.734   5.802
 5258SOL     OW17606   1.079  10.984   6.739
 5258SOL    HW117607   1.144  11.054   6.747
 5258SOL    HW217608   1.111  10.915   6.797
 5259SOL     OW17609   3.666  13.826   5.193
 5259SOL    HW117610   3.654  13.894   5.126
 5259SOL    HW217611   3.742  13.856   5.244
 5260SOL     OW17612   0.447   9.828  13.011
 5260SOL    HW117613   0.531   9.873  13.019
 5260SOL    HW217614   0.410   9.861  12.929
 5261SOL     OW17615  13.381   5.762   6.032
 5261SOL    HW117616  13.400   5.753   5.939
 5261SOL    HW217617  13.321   5.690   6.051
 5262SOL     OW17618   8.806   5.014   5.734
 5262SOL    HW117619   8.767   4.954   5.671
 5262SOL    HW217620   8.866   5.067   5.682
 5263SOL     OW17621   1.072  14.018  10.377
 5263SOL    HW117622   1.032  13.985  10.297
 5263SOL    HW217623   1.104  14.105  10.354
 5264SOL     OW17624   7.964   9.463  11.821
 5264SOL    HW117625   7.891   9.524  11.828
 5264SOL    HW217626   7.936   9.401  11.753
 5265SOL     OW17627  14.560   0.429  10.136
 5265SOL    HW117628  14.479   0.417  10.186
 5265SOL    HW217629  14.630   0.411  10.200
 5266SOL     OW17630  11.441  13.769   6.844
 5266SOL    HW117631  11.527  13.752   6.882
 5266SOL    HW217632  11.420  13.859   6.869
 5267SOL     OW17633   5.873  14.503   0.954
 5267SOL    HW117634   5.900  14.415   0.981
 5267SOL    HW217635   5.778  14.502   0.962
 5268SOL     OW17636   7.455   9.612  10.990
 5268SOL    HW117637   7.531   9.571  10.949
 5268SOL    HW217638   7.455   9.578  11.080
 5269SOL     OW17639   6.002  12.891  13.175
 5269SOL    HW117640   6.029  12.954  13.241
 5269SOL    HW217641   6.082  12.871  13.126
 5270SOL     OW17642   8.796   8.437   1.901
 5270SOL    HW117643   8.862   8.382   1.859
 5270SOL    HW217644   8.844   8.515   1.929
 5271SOL     OW17645   7.749   5.405   2.024
 5271SOL    HW117646   7.751   5.355   1.942
 5271SOL    HW217647   7.813   5.475   2.011
 5272SOL     OW17648  12.927  13.035  10.679
 5272SOL    HW117649  12.949  13.042  10.772
 5272SOL    HW217650  13.011  13.034  10.634
 5273SOL     OW17651   1.374   2.374  11.435
 5273SOL    HW117652   1.375   2.336  11.347
 5273SOL    HW217653   1.389   2.300  11.493
 5274SOL     OW17654  11.628   7.245   1.804
 5274SOL    HW117655  11.680   7.325   1.815
 5274SOL    HW217656  11.600   7.247   1.713
 5275SOL     OW17657  13.363   4.949  12.525
 5275SOL    HW117658  13.367   4.867  12.575
 5275SOL    HW217659  13.303   4.930  12.454
 5276SOL     OW17660   7.487   0.011  12.767
 5276SOL    HW117661   7.568  14.870  12.720
 5276SOL    HW217662   7.495  14.843  12.849
 5277SOL     OW17663   1.316   0.954  12.263
 5277SOL    HW117664   1.316   0.957  12.358
 5277SOL    HW217665   1.284   1.040  12.236
 5278SOL     OW17666  12.078   9.107   6.812
 5278SOL    HW117667  11.988   9.084   6.834
 5278SOL    HW217668  12.087   9.199   6.837
 5279SOL     OW17669  13.140   4.114  12.801
 5279SOL    HW117670  13.213   4.100  12.741
 5279SOL    HW217671  13.177   4.165  12.873
 5280SOL     OW17672   2.317   9.797  11.157
 5280SOL    HW117673   2.382   9.857  11.121
 5280SOL    HW217674   2.339   9.792  11.250
 5281SOL     OW17675   5.698  11.603   5.507
 5281SOL    HW117676   5.733  11.572   5.424
 5281SOL    HW217677   5.761  11.575   5.573
 5282SOL     OW17678  14.467   4.837  12.292
 5282SOL    HW117679  14.482   4.890  12.214
 5282SOL    HW217680  14.555   4.824  12.330
 5283SOL     OW17681  13.177  14.016   9.960
 5283SOL    HW117682  13.189  13.998   9.866
 5283SOL    HW217683  13.093  14.062   9.965
 5284SOL     OW17684   8.608   2.124   9.435
 5284SOL    HW117685   8.587   2.185   9.506
 5284SOL    HW217686   8.692   2.154   9.401
 5285SOL     OW17687  14.291   6.533   6.677
 5285SOL    HW117688  14.284   6.543   6.773
 5285SOL    HW217689  14.200   6.524   6.648
 5286SOL     OW17690   2.121  14.702   5.805
 5286SOL    HW117691   2.170  14.692   5.724
 5286SOL    HW217692   2.161  14.639   5.865
 5287SOL     OW17693   3.760   9.524   8.614
 5287SOL    HW117694   3.697   9.489   8.677
 5287SOL    HW217695   3.748   9.619   8.618
 5288SOL     OW17696   9.176   9.190   4.357
 5288SOL    HW117697   9.098   9.245   4.361
 5288SOL    HW217698   9.160   9.130   4.284
 5289SOL     OW17699   9.339   3.224   7.914
 5289SOL    HW117700   9.269   3.211   7.978
 5289SOL    HW217701   9.415   3.179   7.952
 5290SOL     OW17702   2.882   6.696   6.051
 5290SOL    HW117703   2.882   6.639   6.129
 5290SOL    HW217704   2.887   6.785   6.087
 5291SOL     OW17705   1.864  11.397   6.020
 5291SOL    HW117706   1.784  11.421   5.973
 5291SOL    HW217707   1.908  11.334   5.962
 5292SOL     OW17708   0.860   4.180   2.320
 5292SOL    HW117709   0.844   4.265   2.362
 5292SOL    HW217710   0.828   4.116   2.384
 5293SOL     OW17711   2.204   0.269   8.523
 5293SOL    HW117712   2.147   0.335   8.561
 5293SOL    HW217713   2.292   0.302   8.538
 5294SOL     OW17714   7.108   0.004   9.341
 5294SOL    HW117715   7.044  14.813   9.344
 5294SOL    HW217716   7.192  14.838   9.332
 5295SOL     OW17717   3.327   9.730   2.146
 5295SOL    HW117718   3.289   9.803   2.096
 5295SOL    HW217719   3.412   9.763   2.175
 5296SOL     OW17720   7.664  10.203  11.422
 5296SOL    HW117721   7.608  10.138  11.379
 5296SOL    HW217722   7.630  10.209  11.511
 5297SOL     OW17723   6.131   0.089   7.977
 5297SOL    HW117724   6.118   0.142   8.056
 5297SOL    HW217725   6.217   0.117   7.944
 5298SOL     OW17726   6.231   7.323  14.634
 5298SOL    HW117727   6.165   7.349  14.698
 5298SOL    HW217728   6.261   7.238  14.664
 5299SOL     OW17729   9.562   0.538   4.190
 5299SOL    HW117730   9.481   0.562   4.144
 5299SOL    HW217731   9.546   0.564   4.281
 5300SOL     OW17732   8.398   7.223  12.565
 5300SOL    HW117733   8.376   7.139  12.605
 5300SOL    HW217734   8.314   7.257  12.534
 5301SOL     OW17735  13.419   5.179  11.415
 5301SOL    HW117736  13.461   5.096  11.438
 5301SOL    HW217737  13.330   5.155  11.390
 5302SOL     OW17738   2.552   6.392   8.065
 5302SOL    HW117739   2.648   6.391   8.065
 5302SOL    HW217740   2.529   6.484   8.053
 5303SOL     OW17741   5.066   5.173  10.675
 5303SOL    HW117742   5.075   5.225  10.755
 5303SOL    HW217743   5.151   5.132  10.664
 5304SOL     OW17744   9.536  14.696   5.616
 5304SOL    HW117745   9.524  14.728   5.527
 5304SOL    HW217746   9.447  14.691   5.652
 5305SOL     OW17747   2.600   8.263   7.570
 5305SOL    HW117748   2.579   8.356   7.569
 5305SOL    HW217749   2.524   8.220   7.609
 5306SOL     OW17750   7.841  14.398   3.045
 5306SOL    HW117751   7.915  14.363   2.995
 5306SOL    HW217752   7.765  14.348   3.015
 5307SOL     OW17753  14.294   1.901   5.510
 5307SOL    HW117754  14.267   1.821   5.464
 5307SOL    HW217755  14.390   1.896   5.511
 5308SOL     OW17756  13.131  14.131   4.405
 5308SOL    HW117757  13.155  14.222   4.383
 5308SOL    HW217758  13.102  14.136   4.496
 5309SOL     OW17759  11.876   3.184   8.093
 5309SOL    HW117760  11.783   3.178   8.070
 5309SOL    HW217761  11.921   3.138   8.023
 5310SOL     OW17762   9.010   0.256   7.884
 5310SOL    HW117763   8.968   0.332   7.845
 5310SOL    HW217764   8.981   0.182   7.830
 5311SOL     OW17765   4.026  11.499   4.034
 5311SOL    HW117766   4.099  11.557   4.017
 5311SOL    HW217767   4.019  11.496   4.130
 5312SOL     OW17768   3.313   8.369   3.741
 5312SOL    HW117769   3.273   8.439   3.688
 5312SOL    HW217770   3.370   8.322   3.680
 5313SOL     OW17771   3.026  10.622   6.990
 5313SOL    HW117772   3.101  10.614   6.932
 5313SOL    HW217773   2.961  10.562   6.954
 5314SOL     OW17774   4.829   1.040  10.727
 5314SOL    HW117775   4.788   1.113  10.681
 5314SOL    HW217776   4.851   0.977  10.658
 5315SOL     OW17777   0.908   3.358   3.734
 5315SOL    HW117778   0.963   3.382   3.660
 5315SOL    HW217779   0.825   3.329   3.695
 5316SOL     OW17780   7.177   2.746   9.899
 5316SOL    HW117781   7.215   2.658   9.901
 5316SOL    HW217782   7.212   2.786   9.820
 5317SOL     OW17783   8.359   4.743   3.119
 5317SOL    HW117784   8.282   4.710   3.166
 5317SOL    HW217785   8.323   4.803   3.054
 5318SOL     OW17786   5.865   0.053   9.754
 5318SOL    HW117787   5.872   0.136   9.800
 5318SOL    HW217788   5.922   0.063   9.678
 5319SOL     OW17789  12.071   7.481  11.868
 5319SOL    HW117790  12.034   7.496  11.956
 5319SOL    HW217791  12.021   7.540  11.812
 5320SOL     OW17792   1.986  14.362  12.984
 5320SOL    HW117793   1.969  14.423  13.055
 5320SOL    HW217794   2.057  14.306  13.017
 5321SOL     OW17795  12.520   3.593   3.747
 5321SOL    HW117796  12.515   3.662   3.813
 5321SOL    HW217797  12.524   3.512   3.797
 5322SOL     OW17798   3.310   9.239   0.674
 5322SOL    HW117799   3.395   9.261   0.636
 5322SOL    HW217800   3.297   9.304   0.743
 5323SOL     OW17801  10.158   0.267  13.015
 5323SOL    HW117802  10.115   0.350  12.995
 5323SOL    HW217803  10.179   0.230  12.929
 5324SOL     OW17804   1.781   0.685   1.642
 5324SOL    HW117805   1.869   0.692   1.605
 5324SOL    HW217806   1.724   0.674   1.566
 5325SOL     OW17807  13.820   8.571   9.440
 5325SOL    HW117808  13.823   8.644   9.378
 5325SOL    HW217809  13.754   8.597   9.504
 5326SOL     OW17810  10.108   3.496   5.398
 5326SOL    HW117811  10.196   3.529   5.385
 5326SOL    HW217812  10.083   3.457   5.314
 5327SOL     OW17813   5.772  12.854   0.815
 5327SOL    HW117814   5.853  12.899   0.836
 5327SOL    HW217815   5.725  12.914   0.757
 5328SOL     OW17816  13.650   4.039  12.225
 5328SOL    HW117817  13.639   4.021  12.132
 5328SOL    HW217818  13.597   4.117  12.241
 5329SOL     OW17819   4.555   0.267  10.093
 5329SOL    HW117820   4.621   0.224  10.039
 5329SOL    HW217821   4.539   0.206  10.165
 5330SOL     OW17822   9.973   3.770  13.140
 5330SOL    HW117823   9.899   3.752  13.081
 5330SOL    HW217824  10.005   3.855  13.111
 5331SOL     OW17825  11.838   4.346   3.753
 5331SOL    HW117826  11.829   4.412   3.684
 5331SOL    HW217827  11.931   4.322   3.751
 5332SOL     OW17828   0.977   0.069   4.000
 5332SOL    HW117829   0.924  14.869   3.986
 5332SOL    HW217830   1.018   0.086   3.916
 5333SOL     OW17831  11.375   2.753   6.047
 5333SOL    HW117832  11.361   2.659   6.054
 5333SOL    HW217833  11.421   2.776   6.128
 5334SOL     OW17834   5.937   2.647   7.589
 5334SOL    HW117835   5.957   2.699   7.667
 5334SOL    HW217836   5.969   2.701   7.516
 5335SOL     OW17837   5.872   5.587   5.542
 5335SOL    HW117838   5.872   5.639   5.622
 5335SOL    HW217839   5.780   5.563   5.529
 5336SOL     OW17840   3.364   0.359  13.417
 5336SOL    HW117841   3.294   0.334  13.356
 5336SOL    HW217842   3.336   0.444  13.451
 5337SOL     OW17843   0.939   8.995   3.126
 5337SOL    HW117844   0.981   9.021   3.044
 5337SOL    HW217845   0.944   8.900   3.127
 5338SOL     OW17846   3.912   6.561  11.519
 5338SOL    HW117847   3.958   6.575  11.436
 5338SOL    HW217848   3.819   6.558  11.496
 5339SOL     OW17849   5.832   8.471   5.849
 5339SOL    HW117850   5.855   8.563   5.835
 5339SOL    HW217851   5.854   8.428   5.767
 5340SOL     OW17852   9.794  11.796   7.389
 5340SOL    HW117853   9.700  11.783   7.398
 5340SOL    HW217854   9.827  11.790   7.479
 5341SOL     OW17855   4.081   1.262  11.375
 5341SOL    HW117856   4.075   1.342  11.427
 5341SOL    HW217857   4.068   1.290  11.285
 5342SOL     OW17858   6.634  11.422   6.856
 5342SOL    HW117859   6.698  11.469   6.802
 5342SOL    HW217860   6.586  11.368   6.794
 5343SOL     OW17861   6.834   6.707   9.783
 5343SOL    HW117862   6.767   6.689   9.717
 5343SOL    HW217863   6.908   6.741   9.733
 5344SOL     OW17864   3.635  10.154  13.909
 5344SOL    HW117865   3.634  10.244  13.877
 5344SOL    HW217866   3.697  10.109  13.852
 5345SOL     OW17867   8.300  12.809   1.879
 5345SOL    HW117868   8.308  12.833   1.972
 5345SOL    HW217869   8.364  12.864   1.834
 5346SOL     OW17870   0.114  10.523   5.243
 5346SOL    HW117871   0.148  10.459   5.180
 5346SOL    HW217872   0.193  10.561   5.283
 5347SOL     OW17873   0.675   4.370  12.345
 5347SOL    HW117874   0.636   4.394  12.260
 5347SOL    HW217875   0.604   4.327  12.392
 5348SOL     OW17876   5.206   9.612   9.384
 5348SOL    HW117877   5.147   9.679   9.351
 5348SOL    HW217878   5.158   9.570   9.456
 5349SOL     OW17879   5.271   8.052   3.193
 5349SOL    HW117880   5.230   7.999   3.125
 5349SOL    HW217881   5.214   8.041   3.269
 5350SOL     OW17882   1.970   8.855  13.369
 5350SOL    HW117883   2.006   8.940  13.346
 5350SOL    HW217884   1.973   8.852  13.465
 5351SOL     OW17885   3.846   7.799  10.927
 5351SOL    HW117886   3.808   7.730  10.873
 5351SOL    HW217887   3.888   7.754  11.000
 5352SOL     OW17888   6.380   6.392  10.898
 5352SOL    HW117889   6.448   6.422  10.838
 5352SOL    HW217890   6.385   6.296  10.893
 5353SOL     OW17891   4.107  12.868  13.968
 5353SOL    HW117892   4.024  12.906  13.993
 5353SOL    HW217893   4.090  12.774  13.961
 5354SOL     OW17894   1.782  11.205   5.563
 5354SOL    HW117895   1.798  11.204   5.657
 5354SOL    HW217896   1.846  11.266   5.528
 5355SOL     OW17897   1.328   5.160   5.953
 5355SOL    HW117898   1.270   5.107   6.007
 5355SOL    HW217899   1.273   5.192   5.882
 5356SOL     OW17900   0.810  12.579   7.318
 5356SOL    HW117901   0.781  12.651   7.262
 5356SOL    HW217902   0.741  12.514   7.311
 5357SOL     OW17903   0.806   5.993  13.179
 5357SOL    HW117904   0.761   6.074  13.203
 5357SOL    HW217905   0.868   5.978  13.250
 5358SOL     OW17906   2.416   3.798  14.239
 5358SOL    HW117907   2.475   3.872  14.225
 5358SOL    HW217908   2.470   3.732  14.282
 5359SOL     OW17909   7.684   6.880  11.571
 5359SOL    HW117910   7.627   6.849  11.642
 5359SOL    HW217911   7.726   6.958  11.607
 5360SOL     OW17912   8.003  11.251   7.600
 5360SOL    HW117913   8.041  11.170   7.633
 5360SOL    HW217914   8.018  11.248   7.505
 5361SOL     OW17915  14.400   9.948   1.988
 5361SOL    HW117916  14.372   9.868   1.944
 5361SOL    HW217917  14.420  10.009   1.917
 5362SOL     OW17918  13.030   2.282   3.472
 5362SOL    HW117919  12.939   2.266   3.449
 5362SOL    HW217920  13.067   2.328   3.396
 5363SOL     OW17921   0.687  11.626   0.065
 5363SOL    HW117922   0.617  11.620   0.130
 5363SOL    HW217923   0.741  11.700   0.095
 5364SOL     OW17924   2.317  11.431   2.859
 5364SOL    HW117925   2.260  11.501   2.827
 5364SOL    HW217926   2.284  11.413   2.947
 5365SOL     OW17927   1.066  10.877  10.997
 5365SOL    HW117928   0.979  10.879  11.038
 5365SOL    HW217929   1.100  10.966  11.006
 5366SOL     OW17930   9.308  10.068   0.588
 5366SOL    HW117931   9.305   9.972   0.585
 5366SOL    HW217932   9.219  10.095   0.568
 5367SOL     OW17933  11.802   3.902   3.698
 5367SOL    HW117934  11.830   3.829   3.642
 5367SOL    HW217935  11.842   3.883   3.783
 5368SOL     OW17936   8.337  13.424   4.991
 5368SOL    HW117937   8.279  13.482   5.041
 5368SOL    HW217938   8.425  13.450   5.016
 5369SOL     OW17939  12.065   9.214  13.273
 5369SOL    HW117940  12.049   9.133  13.225
 5369SOL    HW217941  12.117   9.187  13.348
 5370SOL     OW17942  13.441   6.123   9.267
 5370SOL    HW117943  13.410   6.155   9.182
 5370SOL    HW217944  13.414   6.031   9.269
 5371SOL     OW17945   0.102   8.219   5.485
 5371SOL    HW117946   0.113   8.151   5.551
 5371SOL    HW217947   0.010   8.215   5.461
 5372SOL     OW17948   3.657   3.418   7.269
 5372SOL    HW117949   3.649   3.411   7.174
 5372SOL    HW217950   3.751   3.413   7.286
 5373SOL     OW17951  14.104   4.551   3.075
 5373SOL    HW117952  14.112   4.646   3.067
 5373SOL    HW217953  14.038   4.538   3.144
 5374SOL     OW17954   8.270  13.648   6.693
 5374SOL    HW117955   8.334  13.583   6.665
 5374SOL    HW217956   8.268  13.712   6.622
 5375SOL     OW17957   1.169   6.423   3.688
 5375SOL    HW117958   1.225   6.368   3.633
 5375SOL    HW217959   1.090   6.437   3.636
 5376SOL     OW17960  12.106   5.562   4.257
 5376SOL    HW117961  12.171   5.516   4.310
 5376SOL    HW217962  12.094   5.507   4.180
 5377SOL     OW17963   4.371  12.793  11.674
 5377SOL    HW117964   4.347  12.821  11.586
 5377SOL    HW217965   4.305  12.834  11.730
 5378SOL     OW17966   7.600   9.355   9.612
 5378SOL    HW117967   7.670   9.412   9.581
 5378SOL    HW217968   7.520   9.396   9.579
 5379SOL     OW17969   0.348   9.332  11.730
 5379SOL    HW117970   0.405   9.406  11.754
 5379SOL    HW217971   0.266   9.373  11.702
 5380SOL     OW17972   6.337   0.257   6.108
 5380SOL    HW117973   6.404   0.300   6.163
 5380SOL    HW217974   6.381   0.241   6.025
 5381SOL     OW17975   3.330  10.519   8.630
 5381SOL    HW117976   3.413  10.499   8.587
 5381SOL    HW217977   3.329  10.465   8.708
 5382SOL     OW17978   1.737   8.042  10.427
 5382SOL    HW117979   1.815   7.988  10.416
 5382SOL    HW217980   1.745   8.078  10.515
 5383SOL     OW17981   1.611   6.654   7.264
 5383SOL    HW117982   1.527   6.645   7.218
 5383SOL    HW217983   1.649   6.566   7.262
 5384SOL     OW17984   1.625  13.837   8.564
 5384SOL    HW117985   1.594  13.852   8.475
 5384SOL    HW217986   1.705  13.786   8.553
 5385SOL     OW17987   3.969   9.176   3.071
 5385SOL    HW117988   4.029   9.246   3.098
 5385SOL    HW217989   3.987   9.104   3.132
 5386SOL     OW17990  14.526  12.487   6.688
 5386SOL    HW117991  14.499  12.467   6.778
 5386SOL    HW217992  14.458  12.448   6.634
 5387SOL     OW17993   9.732  11.207   5.250
 5387SOL    HW117994   9.785  11.131   5.225
 5387SOL    HW217995   9.682  11.179   5.326
 5388SOL     OW17996   4.536   0.462  14.073
 5388SOL    HW117997   4.539   0.509  14.157
 5388SOL    HW217998   4.479   0.387  14.090
 5389SOL     OW17999   3.164   9.837   0.847
 5389SOL    HW118000   3.254   9.807   0.834
 5389SOL    HW218001   3.136   9.868   0.761
 5390SOL     OW18002   3.073   7.807   8.397
 5390SOL    HW118003   3.068   7.864   8.320
 5390SOL    HW218004   3.159   7.825   8.434
 5391SOL     OW18005   3.333  13.167   5.974
 5391SOL    HW118006   3.365  13.210   6.054
 5391SOL    HW218007   3.321  13.239   5.912
 5392SOL     OW18008  13.688   6.131   8.464
 5392SOL    HW118009  13.631   6.101   8.393
 5392SOL    HW218010  13.732   6.208   8.428
 5393SOL     OW18011  12.099   8.367   8.132
 5393SOL    HW118012  12.034   8.334   8.069
 5393SOL    HW218013  12.174   8.310   8.122
 5394SOL     OW18014   6.220   8.759   7.154
 5394SOL    HW118015   6.185   8.733   7.239
 5394SOL    HW218016   6.155   8.819   7.118
 5395SOL     OW18017  12.875   7.482   5.879
 5395SOL    HW118018  12.964   7.471   5.844
 5395SOL    HW218019  12.823   7.418   5.831
 5396SOL     OW18020   4.651  11.028   6.248
 5396SOL    HW118021   4.564  11.065   6.237
 5396SOL    HW218022   4.653  10.953   6.188
 5397SOL     OW18023   3.390  14.575  10.744
 5397SOL    HW118024   3.326  14.646  10.738
 5397SOL    HW218025   3.377  14.525  10.663
 5398SOL     OW18026  14.130   0.339   4.034
 5398SOL    HW118027  14.117   0.263   3.978
 5398SOL    HW218028  14.176   0.402   3.978
 5399SOL     OW18029   3.983   7.573   3.511
 5399SOL    HW118030   3.954   7.621   3.434
 5399SOL    HW218031   3.905   7.525   3.539
 5400SOL     OW18032  11.756   3.416   4.775
 5400SOL    HW118033  11.702   3.410   4.854
 5400SOL    HW218034  11.724   3.346   4.719
 5401SOL     OW18035  11.093  11.248   5.423
 5401SOL    HW118036  11.074  11.213   5.336
 5401SOL    HW218037  11.127  11.173   5.472
 5402SOL     OW18038  12.472   8.502   6.817
 5402SOL    HW118039  12.381   8.504   6.846
 5402SOL    HW218040  12.518   8.456   6.887
 5403SOL     OW18041   4.342   9.850   2.907
 5403SOL    HW118042   4.432   9.825   2.887
 5403SOL    HW218043   4.310   9.782   2.966
 5404SOL     OW18044   5.558   3.256   5.857
 5404SOL    HW118045   5.525   3.229   5.771
 5404SOL    HW218046   5.495   3.222   5.920
 5405SOL     OW18047   0.594   8.264   8.297
 5405SOL    HW118048   0.616   8.236   8.386
 5405SOL    HW218049   0.643   8.345   8.285
 5406SOL     OW18050   6.799   7.326  12.984
 5406SOL    HW118051   6.880   7.333  12.933
 5406SOL    HW218052   6.828   7.307  13.073
 5407SOL     OW18053  14.613   2.920   6.266
 5407SOL    HW118054  14.671   2.995   6.278
 5407SOL    HW218055  14.626   2.867   6.344
 5408SOL     OW18056   5.260   9.887   8.200
 5408SOL    HW118057   5.262   9.981   8.219
 5408SOL    HW218058   5.250   9.846   8.286
 5409SOL     OW18059   0.805   3.481   2.822
 5409SOL    HW118060   0.791   3.419   2.750
 5409SOL    HW218061   0.722   3.480   2.870
 5410SOL     OW18062  12.760   0.378   5.341
 5410SOL    HW118063  12.754   0.315   5.270
 5410SOL    HW218064  12.670   0.407   5.355
 5411SOL     OW18065  11.602  10.829   3.445
 5411SOL    HW118066  11.539  10.759   3.463
 5411SOL    HW218067  11.652  10.798   3.369
 5412SOL     OW18068   1.526  13.082   6.468
 5412SOL    HW118069   1.565  13.109   6.551
 5412SOL    HW218070   1.466  13.153   6.446
 5413SOL     OW18071   4.292   4.243   0.241
 5413SOL    HW118072   4.263   4.246   0.149
 5413SOL    HW218073   4.360   4.175   0.242
 5414SOL     OW18074   6.079   7.215   6.687
 5414SOL    HW118075   6.031   7.148   6.735
 5414SOL    HW218076   6.093   7.177   6.600
 5415SOL     OW18077   4.575   8.672   0.885
 5415SOL    HW118078   4.648   8.651   0.827
 5415SOL    HW218079   4.574   8.767   0.890
 5416SOL     OW18080   9.547   3.071  12.650
 5416SOL    HW118081   9.594   3.152  12.671
 5416SOL    HW218082   9.585   3.042  12.567
 5417SOL     OW18083   4.620   4.014  14.250
 5417SOL    HW118084   4.599   4.094  14.201
 5417SOL    HW218085   4.538   3.964  14.250
 5418SOL     OW18086   9.750  12.064   7.595
 5418SOL    HW118087   9.701  12.063   7.513
 5418SOL    HW218088   9.800  12.146   7.592
 5419SOL     OW18089   6.018  10.150   2.831
 5419SOL    HW118090   5.987  10.240   2.844
 5419SOL    HW218091   6.022  10.114   2.920
 5420SOL     OW18092  13.248   8.562   3.677
 5420SOL    HW118093  13.263   8.633   3.740
 5420SOL    HW218094  13.275   8.599   3.593
 5421SOL     OW18095   8.474  12.448   6.215
 5421SOL    HW118096   8.520  12.531   6.205
 5421SOL    HW218097   8.392  12.471   6.259
 5422SOL     OW18098   8.140   3.066   5.978
 5422SOL    HW118099   8.068   3.023   5.931
 5422SOL    HW218100   8.209   3.075   5.913
 5423SOL     OW18101   7.322  13.730   4.641
 5423SOL    HW118102   7.399  13.690   4.680
 5423SOL    HW218103   7.355  13.806   4.594
 5424SOL     OW18104   6.015   4.586   1.999
 5424SOL    HW118105   6.087   4.631   2.042
 5424SOL    HW218106   5.936   4.630   2.033
 5425SOL     OW18107   3.790   6.684  10.843
 5425SOL    HW118108   3.845   6.646  10.775
 5425SOL    HW218109   3.851   6.714  10.910
 5426SOL     OW18110   3.394   4.268   0.748
 5426SOL    HW118111   3.471   4.252   0.692
 5426SOL    HW218112   3.417   4.227   0.832
 5427SOL     OW18113   6.938   0.061   2.096
 5427SOL    HW118114   7.010   0.097   2.149
 5427SOL    HW218115   6.974  14.861   2.056
 5428SOL     OW18116  14.246  13.507   0.371
 5428SOL    HW118117  14.201  13.452   0.436
 5428SOL    HW218118  14.233  13.461   0.288
 5429SOL     OW18119   2.710   7.536   4.823
 5429SOL    HW118120   2.762   7.501   4.750
 5429SOL    HW218121   2.772   7.545   4.895
 5430SOL     OW18122  11.976   6.077   1.735
 5430SOL    HW118123  12.033   6.137   1.784
 5430SOL    HW218124  12.024   6.059   1.654
 5431SOL     OW18125  11.190  10.549   1.242
 5431SOL    HW118126  11.198  10.459   1.211
 5431SOL    HW218127  11.247  10.600   1.184
 5432SOL     OW18128   0.790  12.043   4.062
 5432SOL    HW118129   0.789  12.119   4.004
 5432SOL    HW218130   0.874  12.048   4.107
 5433SOL     OW18131   8.911   9.768   3.355
 5433SOL    HW118132   8.937   9.722   3.274
 5433SOL    HW218133   8.836   9.821   3.329
 5434SOL     OW18134   5.222   5.167   8.955
 5434SOL    HW118135   5.151   5.130   8.902
 5434SOL    HW218136   5.180   5.187   9.039
 5435SOL     OW18137   4.522   0.850   7.959
 5435SOL    HW118138   4.550   0.931   8.000
 5435SOL    HW218139   4.561   0.852   7.871
 5436SOL     OW18140   8.251  13.607   7.399
 5436SOL    HW118141   8.287  13.687   7.360
 5436SOL    HW218142   8.323  13.544   7.395
 5437SOL     OW18143   4.116  13.611  14.107
 5437SOL    HW118144   4.136  13.536  14.051
 5437SOL    HW218145   4.159  13.591  14.190
 5438SOL     OW18146   1.007  11.132   9.439
 5438SOL    HW118147   0.985  11.086   9.521
 5438SOL    HW218148   0.988  11.068   9.370
 5439SOL     OW18149   6.794   9.909  14.548
 5439SOL    HW118150   6.734   9.973  14.587
 5439SOL    HW218151   6.872   9.913  14.602
 5440SOL     OW18152  11.612   5.028   0.438
 5440SOL    HW118153  11.589   4.938   0.415
 5440SOL    HW218154  11.547   5.054   0.503
 5441SOL     OW18155   7.099  14.285   0.437
 5441SOL    HW118156   7.189  14.296   0.406
 5441SOL    HW218157   7.102  14.207   0.492
 5442SOL     OW18158   8.963   3.300   2.217
 5442SOL    HW118159   8.965   3.354   2.138
 5442SOL    HW218160   8.870   3.280   2.230
 5443SOL     OW18161   2.683  14.352   8.494
 5443SOL    HW118162   2.777  14.347   8.477
 5443SOL    HW218163   2.647  14.394   8.417
 5444SOL     OW18164   7.857   6.828   1.049
 5444SOL    HW118165   7.887   6.784   1.129
 5444SOL    HW218166   7.918   6.798   0.981
 5445SOL     OW18167   3.203   3.514   6.216
 5445SOL    HW118168   3.113   3.527   6.245
 5445SOL    HW218169   3.201   3.434   6.164
 5446SOL     OW18170  12.705  11.194  13.934
 5446SOL    HW118171  12.746  11.112  13.906
 5446SOL    HW218172  12.611  11.176  13.930
 5447SOL     OW18173   4.451  14.128   4.032
 5447SOL    HW118174   4.363  14.161   4.015
 5447SOL    HW218175   4.468  14.067   3.960
 5448SOL     OW18176  14.508   1.496  14.215
 5448SOL    HW118177  14.531   1.405  14.197
 5448SOL    HW218178  14.549   1.514  14.300
 5449SOL     OW18179   4.897   8.597   7.875
 5449SOL    HW118180   4.887   8.503   7.891
 5449SOL    HW218181   4.921   8.603   7.783
 5450SOL     OW18182   0.581  14.365   5.272
 5450SOL    HW118183   0.628  14.396   5.195
 5450SOL    HW218184   0.630  14.400   5.346
 5451SOL     OW18185  14.430   1.067   2.899
 5451SOL    HW118186  14.509   1.039   2.946
 5451SOL    HW218187  14.431   1.162   2.905
 5452SOL     OW18188  14.527  12.311   5.459
 5452SOL    HW118189  14.560  12.250   5.525
 5452SOL    HW218190  14.435  12.288   5.450
 5453SOL     OW18191   8.328  14.714   7.516
 5453SOL    HW118192   8.301  14.802   7.543
 5453SOL    HW218193   8.251  14.677   7.474
 5454SOL     OW18194   5.257  13.736   0.551
 5454SOL    HW118195   5.347  13.759   0.528
 5454SOL    HW218196   5.247  13.646   0.521
 5455SOL     OW18197   5.741   7.470   7.797
 5455SOL    HW118198   5.658   7.474   7.749
 5455SOL    HW218199   5.732   7.535   7.867
 5456SOL     OW18200  10.956   7.293   8.176
 5456SOL    HW118201  10.919   7.330   8.096
 5456SOL    HW218202  10.893   7.315   8.245
 5457SOL     OW18203   0.502  10.360  12.531
 5457SOL    HW118204   0.421  10.341  12.484
 5457SOL    HW218205   0.551  10.417  12.472
 5458SOL     OW18206   8.275  11.121  13.265
 5458SOL    HW118207   8.275  11.118  13.361
 5458SOL    HW218208   8.272  11.029  13.239
 5459SOL     OW18209   7.729   3.340   5.339
 5459SOL    HW118210   7.652   3.396   5.326
 5459SOL    HW218211   7.730   3.283   5.262
 5460SOL     OW18212   0.393   5.102  13.794
 5460SOL    HW118213   0.377   5.182  13.844
 5460SOL    HW218214   0.445   5.130  13.719
 5461SOL     OW18215   5.566   7.883   9.411
 5461SOL    HW118216   5.659   7.858   9.416
 5461SOL    HW218217   5.557   7.923   9.325
 5462SOL     OW18218   7.806  14.522   1.903
 5462SOL    HW118219   7.732  14.483   1.950
 5462SOL    HW218220   7.776  14.609   1.878
 5463SOL     OW18221  14.377   3.729   5.594
 5463SOL    HW118222  14.322   3.655   5.566
 5463SOL    HW218223  14.349   3.802   5.538
 5464SOL     OW18224   0.123  10.333  13.912
 5464SOL    HW118225   0.126  10.426  13.931
 5464SOL    HW218226   0.167  10.324  13.827
 5465SOL     OW18227   1.595  10.361  11.531
 5465SOL    HW118228   1.670  10.378  11.474
 5465SOL    HW218229   1.571  10.270  11.511
 5466SOL     OW18230   3.090   0.004   1.127
 5466SOL    HW118231   3.076  14.834   1.208
 5466SOL    HW218232   3.012  14.864   1.074
 5467SOL     OW18233   7.263   2.758   8.130
 5467SOL    HW118234   7.263   2.838   8.077
 5467SOL    HW218235   7.355   2.741   8.149
 5468SOL     OW18236  14.260  10.734  10.367
 5468SOL    HW118237  14.277  10.645  10.398
 5468SOL    HW218238  14.231  10.782  10.444
 5469SOL     OW18239   1.021  12.847   9.029
 5469SOL    HW118240   0.933  12.827   8.995
 5469SOL    HW218241   1.080  12.796   8.974
 5470SOL     OW18242  10.257   1.034   6.363
 5470SOL    HW118243  10.210   1.104   6.317
 5470SOL    HW218244  10.283   0.974   6.293
 5471SOL     OW18245   4.892   6.408   5.046
 5471SOL    HW118246   4.949   6.456   4.986
 5471SOL    HW218247   4.848   6.343   4.991
 5472SOL     OW18248   0.243   9.848   2.716
 5472SOL    HW118249   0.218   9.776   2.774
 5472SOL    HW218250   0.338   9.858   2.730
 5473SOL     OW18251   9.505   3.020  10.502
 5473SOL    HW118252   9.428   2.972  10.474
 5473SOL    HW218253   9.513   3.002  10.596
 5474SOL     OW18254  12.965   8.358  10.352
 5474SOL    HW118255  13.008   8.296  10.294
 5474SOL    HW218256  12.891   8.391  10.301
 5475SOL     OW18257   5.148  12.148   6.018
 5475SOL    HW118258   5.200  12.222   6.049
 5475SOL    HW218259   5.197  12.071   6.046
 5476SOL     OW18260   0.418   4.321   5.063
 5476SOL    HW118261   0.495   4.282   5.104
 5476SOL    HW218262   0.400   4.265   4.987
 5477SOL     OW18263   6.804  13.348   1.440
 5477SOL    HW118264   6.840  13.421   1.493
 5477SOL    HW218265   6.809  13.380   1.350
 5478SOL     OW18266   4.821  10.725  13.098
 5478SOL    HW118267   4.823  10.790  13.028
 5478SOL    HW218268   4.907  10.683  13.093
 5479SOL     OW18269  10.296   7.182  13.452
 5479SOL    HW118270  10.345   7.264  13.441
 5479SOL    HW218271  10.216   7.208  13.497
 5480SOL     OW18272   0.624   4.955   4.183
 5480SOL    HW118273   0.566   5.031   4.182
 5480SOL    HW218274   0.576   4.889   4.233
 5481SOL     OW18275  11.460   4.521   7.173
 5481SOL    HW118276  11.381   4.569   7.149
 5481SOL    HW218277  11.470   4.454   7.105
 5482SOL     OW18278   0.704   4.949   3.134
 5482SOL    HW118279   0.704   4.903   3.218
 5482SOL    HW218280   0.614   4.943   3.104
 5483SOL     OW18281   9.024   6.110   4.327
 5483SOL    HW118282   8.972   6.096   4.248
 5483SOL    HW218283   9.011   6.030   4.378
 5484SOL     OW18284  12.360  10.051   9.259
 5484SOL    HW118285  12.281  10.011   9.293
 5484SOL    HW218286  12.338  10.074   9.169
 5485SOL     OW18287   3.670   1.041   2.639
 5485SOL    HW118288   3.619   1.028   2.720
 5485SOL    HW218289   3.737   1.105   2.664
 5486SOL     OW18290   4.693  10.972   9.698
 5486SOL    HW118291   4.718  10.949   9.788
 5486SOL    HW218292   4.775  10.966   9.648
 5487SOL     OW18293   6.848  12.122  12.872
 5487SOL    HW118294   6.773  12.172  12.839
 5487SOL    HW218295   6.907  12.189  12.907
 5488SOL     OW18296   2.806   5.931  13.375
 5488SOL    HW118297   2.715   5.951  13.397
 5488SOL    HW218298   2.800   5.867  13.303
 5489SOL     OW18299  14.279   1.340  12.856
 5489SOL    HW118300  14.320   1.373  12.936
 5489SOL    HW218301  14.344   1.357  12.787
 5490SOL     OW18302   6.498   3.263  13.391
 5490SOL    HW118303   6.473   3.352  13.366
 5490SOL    HW218304   6.559   3.275  13.465
 5491SOL     OW18305   1.507   0.233  14.230
 5491SOL    HW118306   1.580   0.213  14.289
 5491SOL    HW218307   1.467   0.311  14.267
 5492SOL     OW18308   6.327   9.485  11.721
 5492SOL    HW118309   6.334   9.579  11.704
 5492SOL    HW218310   6.278   9.451  11.647
 5493SOL     OW18311   6.251   6.381   8.492
 5493SOL    HW118312   6.163   6.346   8.504
 5493SOL    HW218313   6.257   6.403   8.399
 5494SOL     OW18314   2.866   5.757   0.053
 5494SOL    HW118315   2.961   5.770   0.063
 5494SOL    HW218316   2.858   5.698  14.857
 5495SOL     OW18317  13.081   3.736  11.760
 5495SOL    HW118318  13.074   3.642  11.775
 5495SOL    HW218319  13.135   3.768  11.833
 5496SOL     OW18320  10.635   9.007   0.157
 5496SOL    HW118321  10.647   8.916   0.129
 5496SOL    HW218322  10.652   9.059   0.078
 5497SOL     OW18323  12.045   4.513   4.490
 5497SOL    HW118324  12.105   4.586   4.505
 5497SOL    HW218325  12.085   4.439   4.535
 5498SOL     OW18326   4.748   2.424   6.296
 5498SOL    HW118327   4.722   2.515   6.281
 5498SOL    HW218328   4.669   2.381   6.328
 5499SOL     OW18329  10.138   1.343   4.537
 5499SOL    HW118330  10.175   1.302   4.616
 5499SOL    HW218331  10.076   1.408   4.571
 5500SOL     OW18332   7.519  12.809   2.245
 5500SOL    HW118333   7.545  12.899   2.260
 5500SOL    HW218334   7.601  12.761   2.236
 5501SOL     OW18335   3.509  11.030   4.321
 5501SOL    HW118336   3.515  11.037   4.226
 5501SOL    HW218337   3.541  10.942   4.341
 5502SOL     OW18338  14.490  12.175   6.568
 5502SOL    HW118339  14.496  12.151   6.661
 5502SOL    HW218340  14.579  12.204   6.546
 5503SOL     OW18341   7.148  12.645  10.018
 5503SOL    HW118342   7.231  12.650   9.971
 5503SOL    HW218343   7.082  12.663   9.952
 5504SOL     OW18344   9.671   3.582   9.820
 5504SOL    HW118345   9.755   3.546   9.792
 5504SOL    HW218346   9.654   3.539   9.904
 5505SOL     OW18347   5.792   7.070   3.641
 5505SOL    HW118348   5.796   7.043   3.550
 5505SOL    HW218349   5.844   7.151   3.645
 5506SOL     OW18350  13.527   8.823  10.812
 5506SOL    HW118351  13.604   8.832  10.869
 5506SOL    HW218352  13.520   8.729  10.796
 5507SOL     OW18353   5.540   4.777   2.428
 5507SOL    HW118354   5.522   4.690   2.391
 5507SOL    HW218355   5.601   4.817   2.366
 5508SOL     OW18356   1.601  11.708   3.883
 5508SOL    HW118357   1.585  11.651   3.807
 5508SOL    HW218358   1.571  11.795   3.854
 5509SOL     OW18359  10.827  10.836   6.809
 5509SOL    HW118360  10.906  10.793   6.776
 5509SOL    HW218361  10.860  10.909   6.862
 5510SOL     OW18362   2.768   8.927   2.843
 5510SOL    HW118363   2.686   8.973   2.825
 5510SOL    HW218364   2.835   8.981   2.800
 5511SOL     OW18365  13.648   2.948  11.350
 5511SOL    HW118366  13.674   2.967  11.260
 5511SOL    HW218367  13.727   2.915  11.393
 5512SOL     OW18368   3.950   2.899  12.682
 5512SOL    HW118369   3.858   2.882  12.702
 5512SOL    HW218370   3.954   2.994  12.671
 5513SOL     OW18371   6.452   4.087   4.778
 5513SOL    HW118372   6.476   4.167   4.731
 5513SOL    HW218373   6.417   4.117   4.862
 5514SOL     OW18374  13.446   8.162  13.330
 5514SOL    HW118375  13.494   8.128  13.255
 5514SOL    HW218376  13.480   8.113  13.405
 5515SOL     OW18377   3.883   7.274   3.073
 5515SOL    HW118378   3.885   7.247   2.981
 5515SOL    HW218379   3.974   7.289   3.096
 5516SOL     OW18380   4.943   2.491   4.182
 5516SOL    HW118381   4.920   2.584   4.180
 5516SOL    HW218382   5.037   2.490   4.167
 5517SOL     OW18383  13.297   7.886   0.631
 5517SOL    HW118384  13.353   7.959   0.658
 5517SOL    HW218385  13.222   7.927   0.588
 5518SOL     OW18386   6.923   1.717  12.425
 5518SOL    HW118387   7.007   1.724  12.380
 5518SOL    HW218388   6.892   1.808  12.431
 5519SOL     OW18389   3.835   5.710   8.301
 5519SOL    HW118390   3.869   5.798   8.284
 5519SOL    HW218391   3.912   5.660   8.327
 5520SOL     OW18392  13.122  13.691   6.124
 5520SOL    HW118393  13.179  13.747   6.072
 5520SOL    HW218394  13.036  13.732   6.119
 5521SOL     OW18395   4.354   5.262   7.723
 5521SOL    HW118396   4.393   5.346   7.746
 5521SOL    HW218397   4.416   5.222   7.663
 5522SOL     OW18398  11.589   9.823  13.174
 5522SOL    HW118399  11.682   9.828  13.153
 5522SOL    HW218400  11.569   9.729  13.171
 5523SOL     OW18401   5.608   7.008  14.863
 5523SOL    HW118402   5.604   7.038  14.772
 5523SOL    HW218403   5.680   6.946  14.865
 5524SOL     OW18404   5.441  14.433  14.871
 5524SOL    HW118405   5.405  14.347   0.013
 5524SOL    HW218406   5.366  14.483  14.839
 5525SOL     OW18407  14.752  13.815   9.332
 5525SOL    HW118408  14.722  13.885   9.274
 5525SOL    HW218409  14.747  13.736   9.278
 5526SOL     OW18410  14.213  10.115   7.674
 5526SOL    HW118411  14.148  10.165   7.626
 5526SOL    HW218412  14.174  10.099   7.760
 5527SOL     OW18413   0.422   1.035   8.054
 5527SOL    HW118414   0.350   1.012   8.114
 5527SOL    HW218415   0.397   1.119   8.017
 5528SOL     OW18416   6.797   3.102   0.635
 5528SOL    HW118417   6.818   3.069   0.722
 5528SOL    HW218418   6.863   3.064   0.577
 5529SOL     OW18419   2.475   2.684  13.593
 5529SOL    HW118420   2.397   2.659  13.544
 5529SOL    HW218421   2.548   2.650  13.542
 5530SOL     OW18422  14.204   0.182  14.160
 5530SOL    HW118423  14.204   0.263  14.110
 5530SOL    HW218424  14.296   0.160  14.171
 5531SOL     OW18425   7.203   3.110   8.181
 5531SOL    HW118426   7.236   3.099   8.092
 5531SOL    HW218427   7.269   3.069   8.236
 5532SOL     OW18428   7.183   7.392   9.920
 5532SOL    HW118429   7.096   7.356   9.939
 5532SOL    HW218430   7.208   7.351   9.837
 5533SOL     OW18431  14.694   1.698  13.495
 5533SOL    HW118432  14.707   1.771  13.556
 5533SOL    HW218433  14.646   1.632  13.546
 5534SOL     OW18434   0.204   4.962   5.048
 5534SOL    HW118435   0.298   4.959   5.064
 5534SOL    HW218436   0.172   4.875   5.072
 5535SOL     OW18437   5.016   6.719  12.997
 5535SOL    HW118438   5.053   6.659  12.932
 5535SOL    HW218439   4.984   6.793  12.945
 5536SOL     OW18440   5.822  11.999  13.608
 5536SOL    HW118441   5.902  12.043  13.635
 5536SOL    HW218442   5.755  12.067  13.609
 5537SOL     OW18443   9.950   6.820  12.056
 5537SOL    HW118444  10.019   6.882  12.078
 5537SOL    HW218445   9.906   6.802  12.139
 5538SOL     OW18446   8.492  12.942   1.732
 5538SOL    HW118447   8.516  13.032   1.753
 5538SOL    HW218448   8.480  12.942   1.637
 5539SOL     OW18449   7.299   8.152   2.035
 5539SOL    HW118450   7.266   8.181   2.120
 5539SOL    HW218451   7.271   8.219   1.973
 5540SOL     OW18452   2.524  13.320  11.442
 5540SOL    HW118453   2.538  13.326  11.347
 5540SOL    HW218454   2.542  13.408  11.475
 5541SOL     OW18455   1.804  12.590  11.729
 5541SOL    HW118456   1.889  12.589  11.773
 5541SOL    HW218457   1.813  12.658  11.662
 5542SOL     OW18458  10.330   9.891   9.337
 5542SOL    HW118459  10.396   9.929   9.395
 5542SOL    HW218460  10.355   9.799   9.329
 5543SOL     OW18461  12.337   9.731   6.787
 5543SOL    HW118462  12.325   9.688   6.702
 5543SOL    HW218463  12.340   9.824   6.766
 5544SOL     OW18464  12.619   3.865   0.681
 5544SOL    HW118465  12.659   3.902   0.760
 5544SOL    HW218466  12.572   3.938   0.642
 5545SOL     OW18467   1.428   9.607  13.629
 5545SOL    HW118468   1.516   9.582  13.658
 5545SOL    HW218469   1.396   9.665  13.698
 5546SOL     OW18470  10.736   1.157   1.054
 5546SOL    HW118471  10.795   1.160   1.129
 5546SOL    HW218472  10.787   1.195   0.982
 5547SOL     OW18473  12.317   4.291   2.040
 5547SOL    HW118474  12.287   4.382   2.042
 5547SOL    HW218475  12.311   4.262   2.131
 5548SOL     OW18476  14.157   0.570  14.209
 5548SOL    HW118477  14.240   0.618  14.201
 5548SOL    HW218478  14.158   0.509  14.135
 5549SOL     OW18479  13.215  11.749  13.081
 5549SOL    HW118480  13.305  11.723  13.061
 5549SOL    HW218481  13.179  11.675  13.130
 5550SOL     OW18482   7.338  10.258   3.345
 5550SOL    HW118483   7.358  10.350   3.328
 5550SOL    HW218484   7.397  10.210   3.287
 5551SOL     OW18485   1.734   1.402   0.064
 5551SOL    HW118486   1.723   1.497   0.059
 5551SOL    HW218487   1.658   1.366   0.018
 5552SOL     OW18488  10.459   2.781   0.560
 5552SOL    HW118489  10.517   2.842   0.605
 5552SOL    HW218490  10.517   2.729   0.505
 5553SOL     OW18491   7.179   8.777  14.619
 5553SOL    HW118492   7.146   8.784  14.529
 5553SOL    HW218493   7.133   8.701  14.655
 5554SOL     OW18494  11.998  11.306   4.951
 5554SOL    HW118495  11.943  11.256   5.012
 5554SOL    HW218496  12.065  11.244   4.922
 5555SOL     OW18497   0.226   7.418   3.550
 5555SOL    HW118498   0.143   7.408   3.597
 5555SOL    HW218499   0.259   7.504   3.578
 5556SOL     OW18500   6.135   9.832   6.129
 5556SOL    HW118501   6.190   9.778   6.071
 5556SOL    HW218502   6.073   9.874   6.070
 5557SOL     OW18503  12.665   8.865   3.015
 5557SOL    HW118504  12.685   8.958   3.011
 5557SOL    HW218505  12.649   8.847   3.108
 5558SOL     OW18506   9.795   5.071   1.106
 5558SOL    HW118507   9.831   4.983   1.113
 5558SOL    HW218508   9.822   5.114   1.187
 5559SOL     OW18509   9.071  13.541   3.806
 5559SOL    HW118510   9.039  13.592   3.731
 5559SOL    HW218511   8.992  13.504   3.846
 5560SOL     OW18512   8.351   4.608   1.863
 5560SOL    HW118513   8.324   4.642   1.949
 5560SOL    HW218514   8.445   4.594   1.871
 5561SOL     OW18515   1.093   1.921  13.099
 5561SOL    HW118516   1.026   1.859  13.071
 5561SOL    HW218517   1.161   1.866  13.139
 5562SOL     OW18518   4.043   7.606   4.011
 5562SOL    HW118519   4.116   7.634   4.066
 5562SOL    HW218520   4.070   7.628   3.922
 5563SOL     OW18521  14.173   9.653   3.336
 5563SOL    HW118522  14.105   9.628   3.399
 5563SOL    HW218523  14.199   9.741   3.364
 5564SOL     OW18524   3.626   3.554   8.688
 5564SOL    HW118525   3.718   3.549   8.664
 5564SOL    HW218526   3.586   3.475   8.652
 5565SOL     OW18527  13.010   9.811  14.674
 5565SOL    HW118528  13.014   9.886  14.733
 5565SOL    HW218529  13.085   9.821  14.617
 5566SOL     OW18530   0.007   1.268   9.371
 5566SOL    HW118531   0.059   1.343   9.401
 5566SOL    HW218532  14.844   1.235   9.451
 5567SOL     OW18533   0.904   4.694   2.342
 5567SOL    HW118534   0.841   4.742   2.288
 5567SOL    HW218535   0.982   4.748   2.342
 5568SOL     OW18536   6.327  11.025  12.962
 5568SOL    HW118537   6.253  11.011  12.903
 5568SOL    HW218538   6.287  11.043  13.047
 5569SOL     OW18539   7.065   0.268   2.708
 5569SOL    HW118540   7.041   0.303   2.623
 5569SOL    HW218541   6.985   0.228   2.742
 5570SOL     OW18542  10.873   0.181   4.312
 5570SOL    HW118543  10.800   0.120   4.303
 5570SOL    HW218544  10.951   0.127   4.300
 5571SOL     OW18545   4.300  10.355   7.229
 5571SOL    HW118546   4.361  10.383   7.160
 5571SOL    HW218547   4.315  10.416   7.300
 5572SOL     OW18548   1.134   5.266   1.855
 5572SOL    HW118549   1.052   5.304   1.886
 5572SOL    HW218550   1.117   5.242   1.763
 5573SOL     OW18551   8.812  10.075  12.071
 5573SOL    HW118552   8.862  10.052  11.993
 5573SOL    HW218553   8.821   9.998  12.129
 5574SOL     OW18554   9.272   4.088   2.655
 5574SOL    HW118555   9.329   4.160   2.626
 5574SOL    HW218556   9.217   4.070   2.578
 5575SOL     OW18557   0.699   8.709  14.577
 5575SOL    HW118558   0.726   8.786  14.527
 5575SOL    HW218559   0.781   8.665  14.599
 5576SOL     OW18560   5.311   4.062   7.659
 5576SOL    HW118561   5.279   4.007   7.587
 5576SOL    HW218562   5.377   4.119   7.618
 5577SOL     OW18563  12.847   9.340   4.178
 5577SOL    HW118564  12.770   9.396   4.189
 5577SOL    HW218565  12.897   9.383   4.109
 5578SOL     OW18566   9.475  14.861   1.571
 5578SOL    HW118567   9.429   0.010   1.651
 5578SOL    HW218568   9.551   0.040   1.566
 5579SOL     OW18569   9.536   0.574   1.861
 5579SOL    HW118570   9.525   0.653   1.808
 5579SOL    HW218571   9.598   0.598   1.929
 5580SOL     OW18572   1.963   9.957  10.940
 5580SOL    HW118573   2.034  10.003  10.985
 5580SOL    HW218574   1.904  10.027  10.911
 5581SOL     OW18575   1.129  11.080  10.013
 5581SOL    HW118576   1.127  10.986   9.993
 5581SOL    HW218577   1.123  11.085  10.108
 5582SOL     OW18578   3.669  11.376   8.653
 5582SOL    HW118579   3.683  11.447   8.589
 5582SOL    HW218580   3.584  11.339   8.628
 5583SOL     OW18581  13.233   4.549   6.698
 5583SOL    HW118582  13.164   4.551   6.764
 5583SOL    HW218583  13.188   4.530   6.616
 5584SOL     OW18584   7.665   8.300   9.837
 5584SOL    HW118585   7.622   8.385   9.832
 5584SOL    HW218586   7.675   8.273   9.746
 5585SOL     OW18587   9.361   4.760   4.684
 5585SOL    HW118588   9.443   4.790   4.645
 5585SOL    HW218589   9.375   4.768   4.779
 5586SOL     OW18590   4.317  11.544   2.103
 5586SOL    HW118591   4.374  11.493   2.045
 5586SOL    HW218592   4.281  11.479   2.164
 5587SOL     OW18593   4.535   5.972   1.487
 5587SOL    HW118594   4.612   6.028   1.503
 5587SOL    HW218595   4.501   6.002   1.403
 5588SOL     OW18596  11.357  11.044   0.536
 5588SOL    HW118597  11.340  11.095   0.457
 5588SOL    HW218598  11.452  11.041   0.542
 5589SOL     OW18599  13.896  12.777  11.437
 5589SOL    HW118600  13.952  12.819  11.372
 5589SOL    HW218601  13.869  12.695  11.397
 5590SOL     OW18602   3.750   9.818  12.069
 5590SOL    HW118603   3.672   9.788  12.115
 5590SOL    HW218604   3.819   9.815  12.135
 5591SOL     OW18605   4.330   4.786   0.250
 5591SOL    HW118606   4.319   4.691   0.260
 5591SOL    HW218607   4.380   4.796   0.170
 5592SOL     OW18608  11.016   6.765   4.389
 5592SOL    HW118609  11.083   6.825   4.422
 5592SOL    HW218610  11.065   6.688   4.360
 5593SOL     OW18611   4.575   7.018   4.775
 5593SOL    HW118612   4.523   6.945   4.810
 5593SOL    HW218613   4.595   7.072   4.852
 5594SOL     OW18614  12.021  10.803   2.877
 5594SOL    HW118615  11.937  10.766   2.849
 5594SOL    HW218616  12.003  10.897   2.887
 5595SOL     OW18617   1.032   9.785   3.742
 5595SOL    HW118618   1.069   9.873   3.734
 5595SOL    HW218619   0.958   9.796   3.801
 5596SOL     OW18620   9.916  13.586  10.085
 5596SOL    HW118621   9.887  13.578  10.176
 5596SOL    HW218622   9.875  13.511  10.041
 5597SOL     OW18623   8.556  10.429  13.864
 5597SOL    HW118624   8.482  10.470  13.819
 5597SOL    HW218625   8.627  10.430  13.800
 5598SOL     OW18626   4.732  14.215   4.806
 5598SOL    HW118627   4.647  14.228   4.764
 5598SOL    HW218628   4.770  14.140   4.760
 5599SOL     OW18629   5.911   4.728   0.876
 5599SOL    HW118630   6.003   4.720   0.903
 5599SOL    HW218631   5.912   4.790   0.804
 5600SOL     OW18632   5.284   5.073  10.101
 5600SOL    HW118633   5.261   4.997  10.047
 5600SOL    HW218634   5.214   5.137  10.083
 5601SOL     OW18635  11.464  14.023   3.973
 5601SOL    HW118636  11.521  13.953   3.940
 5601SOL    HW218637  11.396  14.032   3.906
 5602SOL     OW18638  12.804   5.034  10.666
 5602SOL    HW118639  12.794   4.957  10.722
 5602SOL    HW218640  12.872   5.010  10.604
 5603SOL     OW18641  10.934   1.480   9.615
 5603SOL    HW118642  10.995   1.548   9.588
 5603SOL    HW218643  10.989   1.413   9.655
 5604SOL     OW18644   2.461  11.493   1.525
 5604SOL    HW118645   2.429  11.405   1.504
 5604SOL    HW218646   2.555  11.482   1.538
 5605SOL     OW18647   6.596   4.727   1.543
 5605SOL    HW118648   6.649   4.737   1.622
 5605SOL    HW218649   6.660   4.715   1.472
 5606SOL     OW18650   7.582   3.515   8.145
 5606SOL    HW118651   7.600   3.421   8.148
 5606SOL    HW218652   7.668   3.556   8.132
 5607SOL     OW18653   8.555   5.755  11.897
 5607SOL    HW118654   8.519   5.834  11.938
 5607SOL    HW218655   8.588   5.785  11.812
 5608SOL     OW18656   8.226   0.066   0.347
 5608SOL    HW118657   8.254   0.006   0.278
 5608SOL    HW218658   8.148   0.109   0.312
 5609SOL     OW18659   4.583  12.931  10.318
 5609SOL    HW118660   4.517  12.984  10.362
 5609SOL    HW218661   4.556  12.929  10.226
 5610SOL     OW18662   0.784   0.559  13.297
 5610SOL    HW118663   0.845   0.582  13.367
 5610SOL    HW218664   0.783   0.463  13.297
 5611SOL     OW18665   2.741   3.088   2.756
 5611SOL    HW118666   2.819   3.033   2.758
 5611SOL    HW218667   2.770   3.171   2.794
 5612SOL     OW18668   7.694   1.592   3.175
 5612SOL    HW118669   7.670   1.524   3.112
 5612SOL    HW218670   7.686   1.674   3.127
 5613SOL     OW18671   5.781  11.434  13.299
 5613SOL    HW118672   5.699  11.450  13.346
 5613SOL    HW218673   5.764  11.467  13.210
 5614SOL     OW18674   5.743   4.027   7.822
 5614SOL    HW118675   5.807   4.054   7.756
 5614SOL    HW218676   5.702   4.109   7.849
 5615SOL     OW18677   4.730  10.328   5.697
 5615SOL    HW118678   4.799  10.264   5.680
 5615SOL    HW218679   4.648  10.280   5.681
 5616SOL     OW18680   8.224  14.286   3.126
 5616SOL    HW118681   8.172  14.320   3.053
 5616SOL    HW218682   8.313  14.315   3.108
 5617SOL     OW18683  12.947  13.184   3.002
 5617SOL    HW118684  12.940  13.274   3.035
 5617SOL    HW218685  12.973  13.133   3.079
 5618SOL     OW18686   0.932   3.390   7.216
 5618SOL    HW118687   0.964   3.445   7.288
 5618SOL    HW218688   0.879   3.323   7.259
 5619SOL     OW18689   6.587   3.637  12.344
 5619SOL    HW118690   6.596   3.627  12.439
 5619SOL    HW218691   6.582   3.547  12.311
 5620SOL     OW18692  13.675   5.031   8.772
 5620SOL    HW118693  13.676   5.088   8.849
 5620SOL    HW218694  13.706   4.946   8.806
 5621SOL     OW18695   6.133  14.205  11.035
 5621SOL    HW118696   6.196  14.152  11.082
 5621SOL    HW218697   6.186  14.260  10.977
 5622SOL     OW18698  14.790  12.546   6.536
 5622SOL    HW118699  14.802  12.461   6.494
 5622SOL    HW218700  14.734  12.528   6.611
 5623SOL     OW18701  13.735  12.067   5.442
 5623SOL    HW118702  13.690  11.989   5.411
 5623SOL    HW218703  13.667  12.135   5.446
 5624SOL     OW18704   7.589   3.397  14.561
 5624SOL    HW118705   7.615   3.336  14.629
 5624SOL    HW218706   7.495   3.410  14.574
 5625SOL     OW18707  12.475  10.420   2.065
 5625SOL    HW118708  12.434  10.348   2.113
 5625SOL    HW218709  12.504  10.481   2.133
 5626SOL     OW18710   4.299   3.918   2.594
 5626SOL    HW118711   4.227   3.978   2.572
 5626SOL    HW218712   4.269   3.872   2.673
 5627SOL     OW18713   8.387   3.747  11.465
 5627SOL    HW118714   8.314   3.785  11.415
 5627SOL    HW218715   8.465   3.785  11.425
 5628SOL     OW18716   5.563   9.154   0.911
 5628SOL    HW118717   5.646   9.180   0.869
 5628SOL    HW218718   5.586   9.076   0.962
 5629SOL     OW18719   3.056   3.083  14.356
 5629SOL    HW118720   3.003   3.157  14.385
 5629SOL    HW218721   3.071   3.099  14.263
 5630SOL     OW18722   7.781   7.633   0.831
 5630SOL    HW118723   7.765   7.722   0.863
 5630SOL    HW218724   7.768   7.639   0.736
 5631SOL     OW18725   0.505   8.727   7.385
 5631SOL    HW118726   0.478   8.730   7.476
 5631SOL    HW218727   0.597   8.752   7.387
 5632SOL     OW18728   8.258   3.182   8.522
 5632SOL    HW118729   8.343   3.163   8.482
 5632SOL    HW218730   8.256   3.129   8.601
 5633SOL     OW18731   3.127  12.110  12.337
 5633SOL    HW118732   3.041  12.081  12.307
 5633SOL    HW218733   3.115  12.130  12.429
 5634SOL     OW18734   5.744  10.676   3.365
 5634SOL    HW118735   5.772  10.630   3.286
 5634SOL    HW218736   5.776  10.622   3.437
 5635SOL     OW18737  13.539   5.545   6.388
 5635SOL    HW118738  13.622   5.500   6.405
 5635SOL    HW218739  13.561   5.612   6.323
 5636SOL     OW18740   8.689   5.496   8.573
 5636SOL    HW118741   8.645   5.412   8.579
 5636SOL    HW218742   8.698   5.512   8.479
 5637SOL     OW18743   7.636   6.029   4.904
 5637SOL    HW118744   7.569   6.088   4.936
 5637SOL    HW218745   7.603   5.996   4.821
 5638SOL     OW18746   6.062  14.069   1.438
 5638SOL    HW118747   6.061  13.995   1.499
 5638SOL    HW218748   5.970  14.091   1.425
 5639SOL     OW18749   9.930  10.890   9.192
 5639SOL    HW118750   9.864  10.837   9.149
 5639SOL    HW218751  10.007  10.835   9.196
 5640SOL     OW18752  12.172  13.515  11.424
 5640SOL    HW118753  12.156  13.583  11.358
 5640SOL    HW218754  12.267  13.510  11.430
 5641SOL     OW18755  13.440   0.591   1.650
 5641SOL    HW118756  13.397   0.533   1.712
 5641SOL    HW218757  13.477   0.661   1.704
 5642SOL     OW18758  14.342   6.730   0.555
 5642SOL    HW118759  14.381   6.699   0.637
 5642SOL    HW218760  14.248   6.734   0.574
 5643SOL     OW18761  10.124   5.897  12.862
 5643SOL    HW118762  10.217   5.906  12.884
 5643SOL    HW218763  10.119   5.818  12.810
 5644SOL     OW18764  13.174   6.476   6.391
 5644SOL    HW118765  13.166   6.383   6.370
 5644SOL    HW218766  13.260   6.502   6.356
 5645SOL     OW18767   0.943   4.122   9.406
 5645SOL    HW118768   0.916   4.042   9.361
 5645SOL    HW218769   0.872   4.184   9.389
 5646SOL     OW18770  12.642  11.428   9.825
 5646SOL    HW118771  12.700  11.353   9.829
 5646SOL    HW218772  12.578  11.405   9.757
 5647SOL     OW18773   3.395   2.957  10.005
 5647SOL    HW118774   3.461   2.958  10.074
 5647SOL    HW218775   3.401   2.870   9.967
 5648SOL     OW18776   6.575  10.855   2.410
 5648SOL    HW118777   6.523  10.933   2.426
 5648SOL    HW218778   6.511  10.783   2.410
 5649SOL     OW18779   7.205   4.837   9.621
 5649SOL    HW118780   7.277   4.898   9.639
 5649SOL    HW218781   7.218   4.765   9.683
 5650SOL     OW18782   9.404   5.304   7.905
 5650SOL    HW118783   9.336   5.239   7.923
 5650SOL    HW218784   9.475   5.281   7.965
 5651SOL     OW18785   4.405   7.621   9.704
 5651SOL    HW118786   4.457   7.557   9.655
 5651SOL    HW218787   4.460   7.646   9.778
 5652SOL     OW18788   9.646   6.004   7.860
 5652SOL    HW118789   9.647   6.005   7.765
 5652SOL    HW218790   9.554   6.017   7.884
 5653SOL     OW18791   0.573  13.644   2.694
 5653SOL    HW118792   0.515  13.675   2.625
 5653SOL    HW218793   0.582  13.550   2.676
 5654SOL     OW18794   8.040  10.403  13.660
 5654SOL    HW118795   7.947  10.387  13.647
 5654SOL    HW218796   8.044  10.478  13.719
 5655SOL     OW18797   6.483   0.365   1.686
 5655SOL    HW118798   6.455   0.280   1.719
 5655SOL    HW218799   6.523   0.408   1.761
 5656SOL     OW18800   8.245   1.937   3.851
 5656SOL    HW118801   8.154   1.918   3.829
 5656SOL    HW218802   8.251   1.921   3.946
 5657SOL     OW18803   0.169   4.409  10.882
 5657SOL    HW118804   0.112   4.346  10.926
 5657SOL    HW218805   0.240   4.425  10.945
 5658SOL     OW18806  13.143   9.139  14.541
 5658SOL    HW118807  13.140   9.106  14.631
 5658SOL    HW218808  13.052   9.161  14.521
 5659SOL     OW18809   4.865  12.096  10.321
 5659SOL    HW118810   4.844  12.080  10.414
 5659SOL    HW218811   4.904  12.014  10.291
 5660SOL     OW18812   8.747  11.691   9.071
 5660SOL    HW118813   8.797  11.619   9.109
 5660SOL    HW218814   8.743  11.671   8.978
 5661SOL     OW18815   9.855  10.551   6.952
 5661SOL    HW118816   9.774  10.501   6.956
 5661SOL    HW218817   9.828  10.642   6.940
 5662SOL     OW18818   1.442   9.707   9.482
 5662SOL    HW118819   1.422   9.770   9.414
 5662SOL    HW218820   1.379   9.726   9.552
 5663SOL     OW18821   9.350   0.392  11.057
 5663SOL    HW118822   9.368   0.383  10.964
 5663SOL    HW218823   9.428   0.435  11.092
 5664SOL     OW18824  13.181   2.483   2.274
 5664SOL    HW118825  13.239   2.558   2.262
 5664SOL    HW218826  13.113   2.495   2.208
 5665SOL     OW18827  11.399  10.683  10.764
 5665SOL    HW118828  11.326  10.725  10.719
 5665SOL    HW218829  11.358  10.627  10.831
 5666SOL     OW18830  10.237   8.189  12.398
 5666SOL    HW118831  10.179   8.263  12.381
 5666SOL    HW218832  10.322   8.215  12.362
 5667SOL     OW18833   5.699   4.432   4.446
 5667SOL    HW118834   5.765   4.363   4.451
 5667SOL    HW218835   5.696   4.469   4.534
 5668SOL     OW18836   1.856   0.562   7.147
 5668SOL    HW118837   1.925   0.503   7.116
 5668SOL    HW218838   1.843   0.537   7.239
 5669SOL     OW18839  10.206  12.559   4.426
 5669SOL    HW118840  10.222  12.470   4.395
 5669SOL    HW218841  10.113  12.561   4.448
 5670SOL     OW18842  13.225   3.567  14.645
 5670SOL    HW118843  13.303   3.601  14.602
 5670SOL    HW218844  13.158   3.635  14.631
 5671SOL     OW18845  12.895   5.146  10.392
 5671SOL    HW118846  12.963   5.135  10.458
 5671SOL    HW218847  12.875   5.057  10.364
 5672SOL     OW18848   7.075  14.792   6.920
 5672SOL    HW118849   7.045   0.004   6.917
 5672SOL    HW218850   7.163  14.797   6.957
 5673SOL     OW18851   1.708   7.208  14.008
 5673SOL    HW118852   1.792   7.183  13.968
 5673SOL    HW218853   1.731   7.277  14.070
 5674SOL     OW18854   3.783   4.203   6.691
 5674SOL    HW118855   3.808   4.271   6.754
 5674SOL    HW218856   3.740   4.136   6.744
 5675SOL     OW18857   9.236  14.078   3.527
 5675SOL    HW118858   9.310  14.053   3.472
 5675SOL    HW218859   9.260  14.164   3.563
 5676SOL     OW18860   4.923  12.456  11.889
 5676SOL    HW118861   5.000  12.504  11.919
 5676SOL    HW218862   4.939  12.440  11.796
 5677SOL     OW18863   2.142   9.469   7.573
 5677SOL    HW118864   2.182   9.549   7.606
 5677SOL    HW218865   2.193   9.398   7.613
 5678SOL     OW18866  14.070   0.150   3.861
 5678SOL    HW118867  14.061   0.140   3.767
 5678SOL    HW218868  14.085   0.061   3.894
 5679SOL     OW18869   1.809   6.099   9.934
 5679SOL    HW118870   1.814   6.111  10.028
 5679SOL    HW218871   1.795   6.004   9.923
 5680SOL     OW18872  14.878   1.951   7.268
 5680SOL    HW118873   0.054   1.885   7.310
 5680SOL    HW218874   0.058   2.025   7.253
 5681SOL     OW18875   3.938   0.613   6.923
 5681SOL    HW118876   3.982   0.685   6.879
 5681SOL    HW218877   3.866   0.654   6.971
 5682SOL     OW18878  10.273  13.038  11.879
 5682SOL    HW118879  10.207  13.100  11.849
 5682SOL    HW218880  10.224  12.958  11.897
 5683SOL     OW18881   2.763  11.317   7.707
 5683SOL    HW118882   2.796  11.324   7.797
 5683SOL    HW218883   2.788  11.229   7.679
 5684SOL     OW18884   2.780   0.362  10.115
 5684SOL    HW118885   2.790   0.281  10.065
 5684SOL    HW218886   2.767   0.333  10.205
 5685SOL     OW18887   9.041  12.749   9.642
 5685SOL    HW118888   9.114  12.716   9.693
 5685SOL    HW218889   9.081  12.791   9.566
 5686SOL     OW18890  10.600  13.033   9.620
 5686SOL    HW118891  10.673  13.010   9.677
 5686SOL    HW218892  10.639  13.090   9.554
 5687SOL     OW18893   9.898  12.577   5.721
 5687SOL    HW118894   9.837  12.585   5.648
 5687SOL    HW218895   9.981  12.554   5.680
 5688SOL     OW18896   6.520  10.775   2.988
 5688SOL    HW118897   6.439  10.796   2.941
 5688SOL    HW218898   6.553  10.860   3.018
 5689SOL     OW18899  13.969   2.255   1.943
 5689SOL    HW118900  13.953   2.177   1.890
 5689SOL    HW218901  13.930   2.234   2.028
 5690SOL     OW18902  11.817  13.309  10.445
 5690SOL    HW118903  11.734  13.318  10.490
 5690SOL    HW218904  11.877  13.367  10.492
 5691SOL     OW18905   6.867   5.671   8.149
 5691SOL    HW118906   6.893   5.616   8.075
 5691SOL    HW218907   6.949   5.706   8.184
 5692SOL     OW18908  14.637   2.746  12.794
 5692SOL    HW118909  14.565   2.804  12.819
 5692SOL    HW218910  14.615   2.662  12.836
 5693SOL     OW18911   5.980  13.039   4.381
 5693SOL    HW118912   6.049  13.080   4.328
 5693SOL    HW218913   5.899  13.076   4.346
 5694SOL     OW18914  12.098   4.389   6.039
 5694SOL    HW118915  12.128   4.479   6.026
 5694SOL    HW218916  12.009   4.388   6.004
 5695SOL     OW18917   7.258   7.670  13.514
 5695SOL    HW118918   7.248   7.651  13.607
 5695SOL    HW218919   7.177   7.717  13.491
 5696SOL     OW18920   6.908   9.937  12.661
 5696SOL    HW118921   6.939   9.923  12.571
 5696SOL    HW218922   6.971   9.999  12.698
 5697SOL     OW18923   7.688  13.923   3.381
 5697SOL    HW118924   7.714  13.832   3.393
 5697SOL    HW218925   7.630  13.922   3.305
 5698SOL     OW18926   6.619  10.681   4.472
 5698SOL    HW118927   6.624  10.590   4.500
 5698SOL    HW218928   6.528  10.692   4.444
 5699SOL     OW18929   6.710   5.978  14.322
 5699SOL    HW118930   6.632   6.015  14.365
 5699SOL    HW218931   6.782   6.000  14.380
 5700SOL     OW18932   4.035  14.189   8.675
 5700SOL    HW118933   3.963  14.135   8.643
 5700SOL    HW218934   4.091  14.128   8.723
 5701SOL     OW18935   4.878   8.249   1.728
 5701SOL    HW118936   4.855   8.298   1.649
 5701SOL    HW218937   4.960   8.205   1.706
 5702SOL     OW18938  10.733   3.498   7.101
 5702SOL    HW118939  10.828   3.493   7.087
 5702SOL    HW218940  10.698   3.428   7.045
 5703SOL     OW18941   1.715   9.811   4.454
 5703SOL    HW118942   1.655   9.863   4.506
 5703SOL    HW218943   1.671   9.727   4.443
 5704SOL     OW18944   0.479   3.642  12.732
 5704SOL    HW118945   0.423   3.614  12.660
 5704SOL    HW218946   0.482   3.566  12.791
 5705SOL     OW18947   5.739  12.907  13.227
 5705SOL    HW118948   5.717  12.848  13.155
 5705SOL    HW218949   5.835  12.907  13.231
 5706SOL     OW18950  14.641  11.470   2.687
 5706SOL    HW118951  14.664  11.436   2.600
 5706SOL    HW218952  14.623  11.392   2.739
 5707SOL     OW18953  12.941  13.676   3.184
 5707SOL    HW118954  12.899  13.592   3.167
 5707SOL    HW218955  12.949  13.716   3.097
 5708SOL     OW18956   8.933  13.027   7.809
 5708SOL    HW118957   8.994  13.008   7.738
 5708SOL    HW218958   8.900  13.114   7.790
 5709SOL     OW18959  14.626  12.932   3.987
 5709SOL    HW118960  14.585  12.869   4.046
 5709SOL    HW218961  14.648  13.007   4.044
 5710SOL     OW18962   3.230   0.836   2.816
 5710SOL    HW118963   3.324   0.819   2.818
 5710SOL    HW218964   3.193   0.779   2.883
 5711SOL     OW18965  13.613  10.590   7.455
 5711SOL    HW118966  13.611  10.596   7.360
 5711SOL    HW218967  13.559  10.514   7.476
 5712SOL     OW18968   1.113   3.048  13.225
 5712SOL    HW118969   1.138   3.123  13.278
 5712SOL    HW218970   1.161   2.974  13.262
 5713SOL     OW18971   6.000  14.872   7.177
 5713SOL    HW118972   6.041  14.796   7.136
 5713SOL    HW218973   5.908  14.847   7.186
 5714SOL     OW18974   6.453   5.927   7.393
 5714SOL    HW118975   6.529   5.968   7.435
 5714SOL    HW218976   6.405   5.887   7.466
 5715SOL     OW18977   0.116   0.934   9.599
 5715SOL    HW118978   0.108   0.839   9.587
 5715SOL    HW218979   0.171   0.962   9.526
 5716SOL     OW18980  10.932  11.921   7.861
 5716SOL    HW118981  10.961  11.830   7.856
 5716SOL    HW218982  10.840  11.918   7.834
 5717SOL     OW18983   4.600   3.318   2.543
 5717SOL    HW118984   4.585   3.266   2.622
 5717SOL    HW218985   4.686   3.291   2.512
 5718SOL     OW18986  14.435   6.638   4.127
 5718SOL    HW118987  14.392   6.684   4.054
 5718SOL    HW218988  14.526   6.665   4.122
 5719SOL     OW18989   7.489   0.674   4.907
 5719SOL    HW118990   7.500   0.606   4.840
 5719SOL    HW218991   7.574   0.718   4.911
 5720SOL     OW18992   9.913  14.739  13.773
 5720SOL    HW118993   9.967  14.817  13.767
 5720SOL    HW218994   9.823  14.771  13.777
 5721SOL     OW18995  12.762   3.198  12.064
 5721SOL    HW118996  12.678   3.184  12.108
 5721SOL    HW218997  12.812   3.252  12.125
 5722SOL     OW18998   1.010  14.490   4.546
 5722SOL    HW118999   1.082  14.552   4.536
 5722SOL    HW219000   0.947  14.535   4.603
 5723SOL     OW19001   3.070  13.895   4.072
 5723SOL    HW119002   3.125  13.939   4.007
 5723SOL    HW219003   3.008  13.962   4.101
 5724SOL     OW19004   4.993  13.075   1.911
 5724SOL    HW119005   5.069  13.061   1.968
 5724SOL    HW219006   4.998  13.005   1.846
 5725SOL     OW19007   8.007   7.843  12.778
 5725SOL    HW119008   8.009   7.864  12.685
 5725SOL    HW219009   7.925   7.795  12.790
 5726SOL     OW19010   2.067   5.703  14.534
 5726SOL    HW119011   2.158   5.701  14.505
 5726SOL    HW219012   2.040   5.611  14.537
 5727SOL     OW19013  11.757   0.970   6.031
 5727SOL    HW119014  11.819   0.911   5.989
 5727SOL    HW219015  11.672   0.945   5.994
 5728SOL     OW19016   3.046   8.011  14.526
 5728SOL    HW119017   2.976   8.075  14.511
 5728SOL    HW219018   3.027   7.940  14.465
 5729SOL     OW19019   5.284   9.916  12.647
 5729SOL    HW119020   5.243   9.832  12.626
 5729SOL    HW219021   5.296   9.958  12.562
 5730SOL     OW19022   0.078   3.163   9.673
 5730SOL    HW119023   0.146   3.099   9.692
 5730SOL    HW219024  14.875   3.115   9.681
 5731SOL     OW19025   2.993   2.484   0.376
 5731SOL    HW119026   3.042   2.566   0.388
 5731SOL    HW219027   3.054   2.416   0.405
 5732SOL     OW19028   7.585   3.473   8.424
 5732SOL    HW119029   7.559   3.478   8.332
 5732SOL    HW219030   7.603   3.564   8.449
 5733SOL     OW19031   2.263   5.522   9.615
 5733SOL    HW119032   2.210   5.495   9.540
 5733SOL    HW219033   2.352   5.499   9.590
 5734SOL     OW19034   7.891   4.850  12.213
 5734SOL    HW119035   7.981   4.835  12.242
 5734SOL    HW219036   7.852   4.905  12.281
 5735SOL     OW19037   4.354  11.342   0.779
 5735SOL    HW119038   4.273  11.350   0.830
 5735SOL    HW219039   4.424  11.350   0.843
 5736SOL     OW19040  10.479   2.454  12.093
 5736SOL    HW119041  10.537   2.385  12.060
 5736SOL    HW219042  10.520   2.483  12.175
 5737SOL     OW19043  10.603   1.379  10.504
 5737SOL    HW119044  10.577   1.327  10.428
 5737SOL    HW219045  10.595   1.320  10.579
 5738SOL     OW19046  10.359   6.185  14.114
 5738SOL    HW119047  10.358   6.272  14.073
 5738SOL    HW219048  10.448   6.176  14.147
 5739SOL     OW19049  10.442   2.961  11.144
 5739SOL    HW119050  10.505   2.988  11.211
 5739SOL    HW219051  10.356   2.976  11.184
 5740SOL     OW19052   6.161   8.091  12.596
 5740SOL    HW119053   6.135   8.000  12.612
 5740SOL    HW219054   6.179   8.126  12.684
 5741SOL     OW19055   3.015   8.145   6.227
 5741SOL    HW119056   2.985   8.055   6.241
 5741SOL    HW219057   3.088   8.136   6.165
 5742SOL     OW19058   3.218   4.348   8.817
 5742SOL    HW119059   3.222   4.306   8.731
 5742SOL    HW219060   3.308   4.375   8.834
 5743SOL     OW19061  11.147  14.281  14.522
 5743SOL    HW119062  11.108  14.334  14.590
 5743SOL    HW219063  11.113  14.193  14.537
 5744SOL     OW19064  12.417   6.600   9.588
 5744SOL    HW119065  12.406   6.545   9.511
 5744SOL    HW219066  12.363   6.677   9.571
 5745SOL     OW19067   7.562   9.246  13.906
 5745SOL    HW119068   7.578   9.259  13.999
 5745SOL    HW219069   7.473   9.211  13.901
 5746SOL     OW19070   5.488   7.351  14.298
 5746SOL    HW119071   5.393   7.355  14.301
 5746SOL    HW219072   5.517   7.415  14.363
 5747SOL     OW19073   0.949   0.766   4.725
 5747SOL    HW119074   0.952   0.859   4.704
 5747SOL    HW219075   0.944   0.764   4.821
 5748SOL     OW19076  12.841  12.827  14.293
 5748SOL    HW119077  12.770  12.770  14.264
 5748SOL    HW219078  12.921  12.780  14.268
 5749SOL     OW19079   8.669  10.808   2.997
 5749SOL    HW119080   8.626  10.760   2.927
 5749SOL    HW219081   8.625  10.780   3.077
 5750SOL     OW19082   5.705   1.078  12.736
 5750SOL    HW119083   5.767   1.006  12.719
 5750SOL    HW219084   5.624   1.050  12.693
 5751SOL     OW19085   0.560   3.051   8.057
 5751SOL    HW119086   0.506   3.021   8.130
 5751SOL    HW219087   0.626   3.107   8.097
 5752SOL     OW19088   6.103   1.839   8.864
 5752SOL    HW119089   6.133   1.912   8.809
 5752SOL    HW219090   6.155   1.847   8.944
 5753SOL     OW19091  13.211   4.422  12.744
 5753SOL    HW119092  13.190   4.501  12.794
 5753SOL    HW219093  13.128   4.393  12.708
 5754SOL     OW19094   5.102   1.939   4.740
 5754SOL    HW119095   5.110   1.877   4.668
 5754SOL    HW219096   5.050   2.011   4.705
 5755SOL     OW19097   7.770   1.947   1.693
 5755SOL    HW119098   7.837   2.013   1.677
 5755SOL    HW219099   7.780   1.884   1.622
 5756SOL     OW19100   1.048   6.995  11.810
 5756SOL    HW119101   1.119   6.996  11.746
 5756SOL    HW219102   1.088   7.025  11.892
 5757SOL     OW19103   2.362   8.704  14.109
 5757SOL    HW119104   2.300   8.750  14.166
 5757SOL    HW219105   2.351   8.612  14.131
 5758SOL     OW19106   7.153   9.511   7.668
 5758SOL    HW119107   7.106   9.586   7.705
 5758SOL    HW219108   7.241   9.517   7.706
 5759SOL     OW19109   6.760  13.191  10.666
 5759SOL    HW119110   6.670  13.217  10.644
 5759SOL    HW219111   6.792  13.149  10.586
 5760SOL     OW19112   2.069   3.140   8.983
 5760SOL    HW119113   2.012   3.212   8.956
 5760SOL    HW219114   2.008   3.070   9.009
 5761SOL     OW19115   0.725   5.733  13.344
 5761SOL    HW119116   0.640   5.764  13.313
 5761SOL    HW219117   0.781   5.732  13.266
 5762SOL     OW19118   2.417   7.570  13.341
 5762SOL    HW119119   2.323   7.561  13.359
 5762SOL    HW219120   2.423   7.580  13.246
 5763SOL     OW19121   9.653   8.197  11.896
 5763SOL    HW119122   9.702   8.227  11.819
 5763SOL    HW219123   9.717   8.150  11.949
 5764SOL     OW19124   0.083   6.271   4.121
 5764SOL    HW119125   0.051   6.361   4.116
 5764SOL    HW219126   0.005   6.218   4.137
 5765SOL     OW19127   8.507   7.076   3.329
 5765SOL    HW119128   8.416   7.045   3.333
 5765SOL    HW219129   8.507   7.142   3.260
 5766SOL     OW19130   6.388   4.967   6.391
 5766SOL    HW119131   6.362   4.945   6.301
 5766SOL    HW219132   6.366   4.889   6.442
 5767SOL     OW19133   5.519   9.242   9.590
 5767SOL    HW119134   5.442   9.239   9.646
 5767SOL    HW219135   5.536   9.335   9.576
 5768SOL     OW19136  10.349   9.733   4.257
 5768SOL    HW119137  10.397   9.650   4.256
 5768SOL    HW219138  10.317   9.741   4.347
 5769SOL     OW19139  10.137   5.749  13.411
 5769SOL    HW119140  10.223   5.754  13.370
 5769SOL    HW219141  10.078   5.793  13.350
 5770SOL     OW19142   3.010  12.626   2.317
 5770SOL    HW119143   2.922  12.593   2.332
 5770SOL    HW219144   3.027  12.685   2.390
 5771SOL     OW19145   8.110  10.671   1.687
 5771SOL    HW119146   8.139  10.582   1.667
 5771SOL    HW219147   8.016  10.670   1.669
 5772SOL     OW19148   6.528   8.262  13.333
 5772SOL    HW119149   6.526   8.170  13.359
 5772SOL    HW219150   6.441   8.279  13.298
 5773SOL     OW19151   8.971  12.913   8.847
 5773SOL    HW119152   8.912  12.850   8.890
 5773SOL    HW219153   9.021  12.860   8.785
 5774SOL     OW19154  12.265   6.437   6.229
 5774SOL    HW119155  12.226   6.358   6.267
 5774SOL    HW219156  12.190   6.494   6.213
 5775SOL     OW19157   7.671  12.964   6.399
 5775SOL    HW119158   7.638  12.908   6.329
 5775SOL    HW219159   7.593  12.988   6.449
 5776SOL     OW19160  14.093   0.511  14.481
 5776SOL    HW119161  14.106   0.511  14.386
 5776SOL    HW219162  13.999   0.494  14.492
 5777SOL     OW19163  11.460   9.245  12.671
 5777SOL    HW119164  11.492   9.178  12.731
 5777SOL    HW219165  11.539   9.292  12.643
 5778SOL     OW19166  13.266   4.253  10.230
 5778SOL    HW119167  13.288   4.259  10.323
 5778SOL    HW219168  13.199   4.184  10.226
 5779SOL     OW19169   3.759  13.404   9.842
 5779SOL    HW119170   3.737  13.485   9.797
 5779SOL    HW219171   3.678  13.352   9.839
 5780SOL     OW19172   1.134   2.763  13.707
 5780SOL    HW119173   1.158   2.719  13.789
 5780SOL    HW219174   1.067   2.827  13.734
 5781SOL     OW19175   6.511   4.957   9.158
 5781SOL    HW119176   6.534   5.024   9.093
 5781SOL    HW219177   6.583   4.961   9.222
 5782SOL     OW19178  13.380   5.382   1.359
 5782SOL    HW119179  13.466   5.410   1.328
 5782SOL    HW219180  13.394   5.294   1.393
 5783SOL     OW19181   8.882  14.167   6.859
 5783SOL    HW119182   8.858  14.117   6.937
 5783SOL    HW219183   8.971  14.140   6.839
 5784SOL     OW19184   1.508  10.268   1.023
 5784SOL    HW119185   1.452  10.326   0.970
 5784SOL    HW219186   1.447  10.210   1.068
 5785SOL     OW19187   7.876   8.105  11.326
 5785SOL    HW119188   7.903   8.178  11.270
 5785SOL    HW219189   7.837   8.042  11.266
 5786SOL     OW19190   4.265   2.978   7.623
 5786SOL    HW119191   4.261   2.887   7.596
 5786SOL    HW219192   4.275   3.027   7.541
 5787SOL     OW19193   1.370  11.082  14.645
 5787SOL    HW119194   1.376  11.014  14.579
 5787SOL    HW219195   1.283  11.071  14.684
 5788SOL     OW19196   4.032   5.383  13.060
 5788SOL    HW119197   4.064   5.304  13.016
 5788SOL    HW219198   4.104   5.410  13.117
 5789SOL     OW19199   5.710   9.918  10.558
 5789SOL    HW119200   5.676   9.977  10.626
 5789SOL    HW219201   5.643   9.918  10.490
 5790SOL     OW19202   7.440  12.227   9.928
 5790SOL    HW119203   7.361  12.178   9.909
 5790SOL    HW219204   7.438  12.301   9.867
 5791SOL     OW19205   9.286   5.472   9.586
 5791SOL    HW119206   9.280   5.443   9.677
 5791SOL    HW219207   9.272   5.567   9.590
 5792SOL     OW19208   4.774   9.486   2.855
 5792SOL    HW119209   4.752   9.509   2.764
 5792SOL    HW219210   4.725   9.406   2.872
 5793SOL     OW19211  12.460   2.286  11.085
 5793SOL    HW119212  12.401   2.313  11.156
 5793SOL    HW219213  12.548   2.297  11.122
 5794SOL     OW19214  14.412   3.777  10.830
 5794SOL    HW119215  14.469   3.807  10.759
 5794SOL    HW219216  14.465   3.714  10.878
 5795SOL     OW19217   6.720   6.256  11.834
 5795SOL    HW119218   6.715   6.254  11.930
 5795SOL    HW219219   6.683   6.341  11.810
 5796SOL     OW19220   6.436   6.956   5.438
 5796SOL    HW119221   6.399   7.023   5.497
 5796SOL    HW219222   6.492   7.006   5.378
 5797SOL     OW19223   3.291   2.309   8.277
 5797SOL    HW119224   3.231   2.328   8.205
 5797SOL    HW219225   3.376   2.295   8.235
 5798SOL     OW19226   9.278  12.685  13.615
 5798SOL    HW119227   9.201  12.639  13.647
 5798SOL    HW219228   9.258  12.778  13.626
 5799SOL     OW19229   6.926   2.731  11.123
 5799SOL    HW119230   7.010   2.770  11.099
 5799SOL    HW219231   6.866   2.805  11.130
 5800SOL     OW19232   4.330  11.875   4.560
 5800SOL    HW119233   4.299  11.845   4.645
 5800SOL    HW219234   4.254  11.916   4.519
 5801SOL     OW19235  12.044   0.981  13.214
 5801SOL    HW119236  12.008   0.981  13.125
 5801SOL    HW219237  12.093   0.899  13.219
 5802SOL     OW19238  13.827   6.591   3.150
 5802SOL    HW119239  13.889   6.541   3.097
 5802SOL    HW219240  13.881   6.639   3.212
 5803SOL     OW19241   4.090   6.706  11.740
 5803SOL    HW119242   4.045   6.621  11.737
 5803SOL    HW219243   4.027   6.765  11.781
 5804SOL     OW19244   2.277   3.033   8.839
 5804SOL    HW119245   2.210   3.076   8.893
 5804SOL    HW219246   2.360   3.063   8.876
 5805SOL     OW19247   6.474   8.533   8.239
 5805SOL    HW119248   6.541   8.533   8.171
 5805SOL    HW219249   6.392   8.543   8.192
 5806SOL     OW19250   0.138   4.914   2.902
 5806SOL    HW119251   0.132   4.950   2.991
 5806SOL    HW219252   0.051   4.927   2.865
 5807SOL     OW19253   7.613   3.434  10.863
 5807SOL    HW119254   7.616   3.528  10.847
 5807SOL    HW219255   7.651   3.395  10.784
 5808SOL     OW19256   9.941   4.090   7.403
 5808SOL    HW119257   9.988   4.092   7.486
 5808SOL    HW219258   9.861   4.041   7.421
 5809SOL     OW19259   0.643   3.199  11.847
 5809SOL    HW119260   0.566   3.255  11.849
 5809SOL    HW219261   0.688   3.223  11.767
 5810SOL     OW19262   8.654  13.114   4.032
 5810SOL    HW119263   8.571  13.072   4.055
 5810SOL    HW219264   8.711  13.041   4.007
 5811SOL     OW19265   8.934   7.881   8.952
 5811SOL    HW119266   8.968   7.792   8.943
 5811SOL    HW219267   8.839   7.871   8.947
 5812SOL     OW19268   5.042   9.252   3.671
 5812SOL    HW119269   4.980   9.325   3.674
 5812SOL    HW219270   5.002   9.189   3.611
 5813SOL     OW19271   7.436  13.692   2.761
 5813SOL    HW119272   7.479  13.626   2.815
 5813SOL    HW219273   7.378  13.738   2.821
 5814SOL     OW19274   3.610   5.016   2.098
 5814SOL    HW119275   3.550   4.960   2.047
 5814SOL    HW219276   3.588   4.998   2.189
 5815SOL     OW19277  10.689  10.180   0.281
 5815SOL    HW119278  10.725  10.099   0.315
 5815SOL    HW219279  10.730  10.249   0.333
 5816SOL     OW19280  13.103   8.023   0.444
 5816SOL    HW119281  13.048   8.072   0.504
 5816SOL    HW219282  13.167   8.086   0.413
 5817SOL     OW19283   6.028   2.750   8.386
 5817SOL    HW119284   6.112   2.778   8.422
 5817SOL    HW219285   5.979   2.831   8.373
 5818SOL     OW19286   1.969   1.950  14.756
 5818SOL    HW119287   1.916   2.021  14.721
 5818SOL    HW219288   2.027   1.925  14.683
 5819SOL     OW19289   8.084  10.414   0.450
 5819SOL    HW119290   8.010  10.367   0.488
 5819SOL    HW219291   8.148  10.346   0.429
 5820SOL     OW19292  10.703  13.266  11.972
 5820SOL    HW119293  10.741  13.307  11.894
 5820SOL    HW219294  10.755  13.300  12.045
 5821SOL     OW19295   5.573   1.338  11.313
 5821SOL    HW119296   5.535   1.348  11.400
 5821SOL    HW219297   5.524   1.400  11.258
 5822SOL     OW19298   3.297  14.659   6.777
 5822SOL    HW119299   3.389  14.644   6.798
 5822SOL    HW219300   3.297  14.671   6.682
 5823SOL     OW19301   2.929  14.064   4.972
 5823SOL    HW119302   2.854  14.011   4.999
 5823SOL    HW219303   2.993  14.000   4.941
 5824SOL     OW19304  14.629  13.132   5.958
 5824SOL    HW119305  14.588  13.091   5.882
 5824SOL    HW219306  14.664  13.059   6.009
 5825SOL     OW19307   3.194  10.633  11.474
 5825SOL    HW119308   3.249  10.673  11.407
 5825SOL    HW219309   3.112  10.682  11.469
 5826SOL     OW19310  13.007  10.629   5.312
 5826SOL    HW119311  13.057  10.582   5.380
 5826SOL    HW219312  12.970  10.560   5.258
 5827SOL     OW19313   1.712   1.498   4.385
 5827SOL    HW119314   1.699   1.560   4.456
 5827SOL    HW219315   1.769   1.544   4.323
 5828SOL     OW19316   5.010   4.865   2.292
 5828SOL    HW119317   4.975   4.865   2.203
 5828SOL    HW219318   4.941   4.827   2.345
 5829SOL     OW19319   1.702  13.294  11.013
 5829SOL    HW119320   1.772  13.228  11.012
 5829SOL    HW219321   1.657  13.280  11.096
 5830SOL     OW19322  11.024  10.584   5.145
 5830SOL    HW119323  11.078  10.577   5.224
 5830SOL    HW219324  11.084  10.561   5.073
 5831SOL     OW19325   7.461   6.260   4.814
 5831SOL    HW119326   7.387   6.245   4.874
 5831SOL    HW219327   7.433   6.217   4.733
 5832SOL     OW19328   7.061   7.058   9.879
 5832SOL    HW119329   7.139   7.106   9.852
 5832SOL    HW219330   7.087   6.966   9.874
 5833SOL     OW19331   8.129  13.924   7.756
 5833SOL    HW119332   8.046  13.917   7.710
 5833SOL    HW219333   8.177  13.845   7.732
 5834SOL     OW19334   0.401   8.870   5.491
 5834SOL    HW119335   0.346   8.948   5.487
 5834SOL    HW219336   0.368   8.814   5.421
 5835SOL     OW19337   7.045   4.479   4.764
 5835SOL    HW119338   6.978   4.503   4.699
 5835SOL    HW219339   7.088   4.562   4.785
 5836SOL     OW19340   3.638   0.842  14.553
 5836SOL    HW119341   3.650   0.864  14.645
 5836SOL    HW219342   3.645   0.746  14.550
 5837SOL     OW19343   8.157   0.986   4.853
 5837SOL    HW119344   8.117   1.054   4.906
 5837SOL    HW219345   8.146   1.016   4.763
 5838SOL     OW19346  14.462   7.799   4.225
 5838SOL    HW119347  14.389   7.858   4.209
 5838SOL    HW219348  14.426   7.729   4.280
 5839SOL     OW19349   6.839   0.977   4.252
 5839SOL    HW119350   6.871   1.062   4.283
 5839SOL    HW219351   6.760   0.998   4.202
 5840SOL     OW19352  10.466  10.536   6.410
 5840SOL    HW119353  10.390  10.479   6.397
 5840SOL    HW219354  10.540  10.475   6.415
 5841SOL     OW19355   9.143  10.444  14.348
 5841SOL    HW119356   9.143  10.391  14.428
 5841SOL    HW219357   9.222  10.417  14.302
 5842SOL     OW19358   1.702  13.678   3.928
 5842SOL    HW119359   1.667  13.704   4.014
 5842SOL    HW219360   1.636  13.617   3.893
 5843SOL     OW19361  10.468   4.036   4.161
 5843SOL    HW119362  10.544   4.089   4.185
 5843SOL    HW219363  10.402   4.056   4.228
 5844SOL     OW19364  12.287   9.030   4.956
 5844SOL    HW119365  12.247   8.943   4.956
 5844SOL    HW219366  12.379   9.015   4.935
 5845SOL     OW19367  10.048  10.779   6.344
 5845SOL    HW119368  10.086  10.758   6.430
 5845SOL    HW219369   9.959  10.744   6.347
 5846SOL     OW19370   1.998  11.914  14.311
 5846SOL    HW119371   1.949  11.978  14.258
 5846SOL    HW219372   1.986  11.944  14.401
 5847SOL     OW19373   0.513  13.353   6.291
 5847SOL    HW119374   0.549  13.408   6.360
 5847SOL    HW219375   0.453  13.294   6.337
 5848SOL     OW19376   4.640   1.163  10.882
 5848SOL    HW119377   4.719   1.120  10.848
 5848SOL    HW219378   4.643   1.147  10.976
 5849SOL     OW19379   3.542  10.888   7.689
 5849SOL    HW119380   3.589  10.971   7.684
 5849SOL    HW219381   3.452  10.913   7.713
 5850SOL     OW19382   3.852   3.289   0.108
 5850SOL    HW119383   3.863   3.370   0.156
 5850SOL    HW219384   3.938   3.270   0.072
 5851SOL     OW19385   5.949   6.421  13.899
 5851SOL    HW119386   6.037   6.397  13.928
 5851SOL    HW219387   5.960   6.508  13.861
 5852SOL     OW19388   8.115  12.379  13.099
 5852SOL    HW119389   8.181  12.417  13.041
 5852SOL    HW219390   8.160  12.308  13.145
 5853SOL     OW19391  11.211   1.199   5.582
 5853SOL    HW119392  11.179   1.208   5.672
 5853SOL    HW219393  11.206   1.287   5.545
 5854SOL     OW19394   7.905  12.125  12.401
 5854SOL    HW119395   7.924  12.197  12.461
 5854SOL    HW219396   7.809  12.122  12.396
 5855SOL     OW19397   8.768  10.079   8.041
 5855SOL    HW119398   8.687  10.117   8.075
 5855SOL    HW219399   8.802  10.145   7.982
 5856SOL     OW19400   8.007  14.163   9.785
 5856SOL    HW119401   8.038  14.158   9.694
 5856SOL    HW219402   8.059  14.098   9.832
 5857SOL     OW19403   2.200   3.954   4.243
 5857SOL    HW119404   2.290   3.925   4.227
 5857SOL    HW219405   2.154   3.935   4.161
 5858SOL     OW19406   1.657   8.083   3.960
 5858SOL    HW119407   1.740   8.128   3.953
 5858SOL    HW219408   1.593   8.152   3.981
 5859SOL     OW19409   2.805   9.136   4.658
 5859SOL    HW119410   2.792   9.110   4.749
 5859SOL    HW219411   2.900   9.133   4.646
 5860SOL     OW19412   1.110   1.549   5.841
 5860SOL    HW119413   1.065   1.626   5.805
 5860SOL    HW219414   1.180   1.586   5.895
 5861SOL     OW19415   2.352   6.958  12.778
 5861SOL    HW119416   2.446   6.939  12.785
 5861SOL    HW219417   2.348   7.047  12.743
 5862SOL     OW19418   7.562  12.389  14.834
 5862SOL    HW119419   7.467  12.385  14.824
 5862SOL    HW219420   7.594  12.314  14.783
 5863SOL     OW19421   8.233  10.990  13.762
 5863SOL    HW119422   8.140  11.002  13.748
 5863SOL    HW219423   8.259  11.061  13.821
 5864SOL     OW19424  12.100   1.698   8.838
 5864SOL    HW119425  12.123   1.786   8.867
 5864SOL    HW219426  12.007   1.688   8.860
 5865SOL     OW19427   8.281   1.963  12.873
 5865SOL    HW119428   8.329   1.891  12.834
 5865SOL    HW219429   8.332   1.987  12.950
 5866SOL     OW19430   0.459   1.291  14.846
 5866SOL    HW119431   0.511   1.220   0.005
 5866SOL    HW219432   0.486   1.369   0.015
 5867SOL     OW19433  14.866  12.556   2.460
 5867SOL    HW119434   0.047  12.482   2.454
 5867SOL    HW219435   0.042  12.630   2.483
 5868SOL     OW19436   9.100  13.025  10.074
 5868SOL    HW119437   9.134  13.007   9.986
 5868SOL    HW219438   9.175  13.059  10.122
 5869SOL     OW19439   8.382   3.353   7.671
 5869SOL    HW119440   8.361   3.285   7.735
 5869SOL    HW219441   8.446   3.409   7.716
 5870SOL     OW19442  11.902   7.427   1.510
 5870SOL    HW119443  11.908   7.522   1.500
 5870SOL    HW219444  11.822   7.403   1.464
 5871SOL     OW19445  14.609  11.141   6.155
 5871SOL    HW119446  14.557  11.220   6.142
 5871SOL    HW219447  14.638  11.146   6.247
 5872SOL     OW19448  10.177  13.124   3.797
 5872SOL    HW119449  10.094  13.136   3.843
 5872SOL    HW219450  10.180  13.197   3.735
 5873SOL     OW19451   3.338   4.239   7.663
 5873SOL    HW119452   3.305   4.262   7.576
 5873SOL    HW219453   3.344   4.323   7.709
 5874SOL     OW19454  14.359  14.167   6.627
 5874SOL    HW119455  14.294  14.217   6.577
 5874SOL    HW219456  14.369  14.086   6.579
 5875SOL     OW19457   0.537   3.196   3.458
 5875SOL    HW119458   0.590   3.192   3.538
 5875SOL    HW219459   0.464   3.254   3.481
 5876SOL     OW19460  12.393   2.906   4.117
 5876SOL    HW119461  12.396   2.864   4.204
 5876SOL    HW219462  12.368   2.835   4.058
 5877SOL     OW19463   6.091   8.875   0.716
 5877SOL    HW119464   6.079   8.965   0.686
 5877SOL    HW219465   6.068   8.877   0.808
 5878SOL     OW19466  14.874   3.032   5.554
 5878SOL    HW119467  14.843   3.078   5.632
 5878SOL    HW219468   0.089   3.049   5.552
 5879SOL     OW19469   4.745   8.222   7.679
 5879SOL    HW119470   4.730   8.130   7.701
 5879SOL    HW219471   4.806   8.252   7.747
 5880SOL     OW19472  14.562   1.677   8.044
 5880SOL    HW119473  14.483   1.662   7.992
 5880SOL    HW219474  14.630   1.697   7.980
 5881SOL     OW19475   2.000  11.589   6.438
 5881SOL    HW119476   1.968  11.674   6.408
 5881SOL    HW219477   1.979  11.529   6.367
 5882SOL     OW19478   3.478   4.999  10.819
 5882SOL    HW119479   3.491   4.904  10.826
 5882SOL    HW219480   3.399   5.015  10.870
 5883SOL     OW19481   7.211   3.684  11.518
 5883SOL    HW119482   7.272   3.694  11.444
 5883SOL    HW219483   7.156   3.610  11.493
 5884SOL     OW19484  14.274   7.922  11.176
 5884SOL    HW119485  14.264   7.827  11.177
 5884SOL    HW219486  14.358   7.937  11.220
 5885SOL     OW19487  13.796  13.381  10.473
 5885SOL    HW119488  13.742  13.363  10.396
 5885SOL    HW219489  13.754  13.332  10.544
 5886SOL     OW19490   2.318   6.551   0.695
 5886SOL    HW119491   2.391   6.500   0.730
 5886SOL    HW219492   2.358   6.612   0.633
 5887SOL     OW19493  10.252   2.429   1.870
 5887SOL    HW119494  10.182   2.468   1.922
 5887SOL    HW219495  10.327   2.487   1.883
 5888SOL     OW19496  13.218  14.776   4.897
 5888SOL    HW119497  13.196  14.856   4.946
 5888SOL    HW219498  13.144  14.718   4.912
 5889SOL     OW19499  13.117  12.481   1.179
 5889SOL    HW119500  13.206  12.471   1.212
 5889SOL    HW219501  13.095  12.572   1.198
 5890SOL     OW19502  11.661   1.693  13.912
 5890SOL    HW119503  11.709   1.623  13.868
 5890SOL    HW219504  11.727   1.759  13.931
 5891SOL     OW19505   9.708   4.634   2.204
 5891SOL    HW119506   9.789   4.584   2.196
 5891SOL    HW219507   9.676   4.642   2.114
 5892SOL     OW19508   4.812   4.569  11.564
 5892SOL    HW119509   4.832   4.622  11.487
 5892SOL    HW219510   4.826   4.629  11.638
 5893SOL     OW19511   5.930   1.075   5.377
 5893SOL    HW119512   6.021   1.091   5.352
 5893SOL    HW219513   5.886   1.054   5.294
 5894SOL     OW19514   6.984   0.626  12.126
 5894SOL    HW119515   6.985   0.721  12.139
 5894SOL    HW219516   6.982   0.615  12.031
 5895SOL     OW19517   7.165  13.590   7.040
 5895SOL    HW119518   7.200  13.636   6.964
 5895SOL    HW219519   7.087  13.640   7.064
 5896SOL     OW19520  14.572   5.084   3.802
 5896SOL    HW119521  14.615   5.155   3.754
 5896SOL    HW219522  14.603   5.094   3.892
 5897SOL     OW19523  11.477  12.034   5.934
 5897SOL    HW119524  11.556  11.994   5.971
 5897SOL    HW219525  11.505  12.065   5.848
 5898SOL     OW19526   4.271   0.344  13.393
 5898SOL    HW119527   4.251   0.284  13.321
 5898SOL    HW219528   4.362   0.370  13.377
 5899SOL     OW19529  13.348  10.957  13.394
 5899SOL    HW119530  13.391  10.962  13.308
 5899SOL    HW219531  13.350  11.047  13.427
 5900SOL     OW19532   5.687   3.569   2.510
 5900SOL    HW119533   5.615   3.602   2.564
 5900SOL    HW219534   5.760   3.558   2.571
 5901SOL     OW19535   9.302   7.837  12.707
 5901SOL    HW119536   9.275   7.927  12.689
 5901SOL    HW219537   9.222   7.791  12.731
 5902SOL     OW19538   0.060  12.068   0.363
 5902SOL    HW119539   0.035  11.994   0.309
 5902SOL    HW219540   0.048  12.038   0.453
 5903SOL     OW19541   0.098   8.424   5.150
 5903SOL    HW119542   0.006   8.408   5.171
 5903SOL    HW219543   0.111   8.385   5.064
 5904SOL     OW19544  10.126   8.329   9.123
 5904SOL    HW119545  10.068   8.360   9.193
 5904SOL    HW219546  10.109   8.235   9.116
 5905SOL     OW19547   4.465  10.219   2.177
 5905SOL    HW119548   4.400  10.274   2.220
 5905SOL    HW219549   4.542  10.223   2.233
 5906SOL     OW19550  13.624  13.894   4.361
 5906SOL    HW119551  13.568  13.955   4.410
 5906SOL    HW219552  13.630  13.816   4.417
 5907SOL     OW19553   1.649   5.236   0.323
 5907SOL    HW119554   1.654   5.156   0.374
 5907SOL    HW219555   1.739   5.270   0.323
 5908SOL     OW19556   2.242  13.514   7.535
 5908SOL    HW119557   2.264  13.444   7.474
 5908SOL    HW219558   2.217  13.588   7.480
 5909SOL     OW19559   6.374   1.444  12.003
 5909SOL    HW119560   6.327   1.372  12.044
 5909SOL    HW219561   6.441   1.469  12.066
 5910SOL     OW19562  11.512   1.506  12.324
 5910SOL    HW119563  11.547   1.549  12.246
 5910SOL    HW219564  11.555   1.420  12.326
 5911SOL     OW19565   2.386   9.380   9.339
 5911SOL    HW119566   2.419   9.321   9.272
 5911SOL    HW219567   2.465   9.418   9.378
 5912SOL     OW19568  14.207   5.114  12.574
 5912SOL    HW119569  14.188   5.023  12.553
 5912SOL    HW219570  14.136   5.164  12.534
 5913SOL     OW19571   9.068  12.993   1.766
 5913SOL    HW119572   9.030  12.980   1.853
 5913SOL    HW219573   9.014  13.059   1.725
 5914SOL     OW19574   5.959   8.435   2.571
 5914SOL    HW119575   6.049   8.447   2.600
 5914SOL    HW219576   5.907   8.490   2.629
 5915SOL     OW19577  12.949  13.326  12.780
 5915SOL    HW119578  13.039  13.359  12.785
 5915SOL    HW219579  12.951  13.245  12.832
 5916SOL     OW19580  14.011   2.550   4.951
 5916SOL    HW119581  13.942   2.610   4.977
 5916SOL    HW219582  14.040   2.582   4.865
 5917SOL     OW19583   5.089  13.028  14.435
 5917SOL    HW119584   5.021  13.040  14.502
 5917SOL    HW219585   5.055  13.075  14.358
 5918SOL     OW19586   4.739   8.167   2.118
 5918SOL    HW119587   4.736   8.262   2.130
 5918SOL    HW219588   4.831   8.147   2.102
 5919SOL     OW19589   4.601  11.482   2.700
 5919SOL    HW119590   4.695  11.465   2.703
 5919SOL    HW219591   4.577  11.496   2.792
 5920SOL     OW19592   8.493  14.102   9.901
 5920SOL    HW119593   8.536  14.120   9.817
 5920SOL    HW219594   8.413  14.154   9.898
 5921SOL     OW19595  10.885   8.101  13.094
 5921SOL    HW119596  10.943   8.147  13.033
 5921SOL    HW219597  10.846   8.171  13.147
 5922SOL     OW19598   6.288  14.272   3.815
 5922SOL    HW119599   6.326  14.297   3.899
 5922SOL    HW219600   6.225  14.342   3.795
 5923SOL     OW19601   1.860  13.200   8.507
 5923SOL    HW119602   1.817  13.284   8.492
 5923SOL    HW219603   1.826  13.143   8.439
 5924SOL     OW19604   3.810   4.570  11.024
 5924SOL    HW119605   3.754   4.597  11.097
 5924SOL    HW219606   3.756   4.508  10.975
 5925SOL     OW19607  12.257   8.573  12.897
 5925SOL    HW119608  12.304   8.501  12.855
 5925SOL    HW219609  12.172   8.576  12.852
 5926SOL     OW19610   7.128   9.907   7.594
 5926SOL    HW119611   7.056   9.846   7.575
 5926SOL    HW219612   7.184   9.901   7.516
 5927SOL     OW19613   9.520   2.437  14.451
 5927SOL    HW119614   9.445   2.384  14.425
 5927SOL    HW219615   9.577   2.376  14.497
 5928SOL     OW19616  11.468   5.914   2.598
 5928SOL    HW119617  11.551   5.961   2.605
 5928SOL    HW219618  11.412   5.970   2.544
 5929SOL     OW19619   2.825  14.180   2.863
 5929SOL    HW119620   2.794  14.128   2.938
 5929SOL    HW219621   2.755  14.244   2.849
 5930SOL     OW19622   9.130   5.484  12.380
 5930SOL    HW119623   9.203   5.435  12.417
 5930SOL    HW219624   9.052   5.452  12.426
 5931SOL     OW19625   9.205  10.192   5.849
 5931SOL    HW119626   9.276  10.234   5.800
 5931SOL    HW219627   9.230  10.100   5.855
 5932SOL     OW19628  13.553  10.203   0.287
 5932SOL    HW119629  13.582  10.202   0.196
 5932SOL    HW219630  13.512  10.117   0.300
 5933SOL     OW19631   2.172   7.047  14.625
 5933SOL    HW119632   2.095   7.080  14.578
 5933SOL    HW219633   2.138   6.979  14.682
 5934SOL     OW19634   3.671   0.093   9.735
 5934SOL    HW119635   3.582   0.128   9.727
 5934SOL    HW219636   3.722   0.166   9.770
 5935SOL     OW19637   6.970   2.745  11.787
 5935SOL    HW119638   6.906   2.817  11.794
 5935SOL    HW219639   6.916   2.666  11.778
 5936SOL     OW19640  13.075   4.267  11.921
 5936SOL    HW119641  13.018   4.322  11.976
 5936SOL    HW219642  13.030   4.182  11.918
 5937SOL     OW19643   9.093   6.621  13.416
 5937SOL    HW119644   9.081   6.632  13.322
 5937SOL    HW219645   9.154   6.689  13.441
 5938SOL     OW19646  14.291   9.452   7.291
 5938SOL    HW119647  14.263   9.541   7.268
 5938SOL    HW219648  14.225   9.395   7.251
 5939SOL     OW19649   7.026  13.677  14.437
 5939SOL    HW119650   7.069  13.760  14.459
 5939SOL    HW219651   7.091  13.630  14.384
 5940SOL     OW19652  14.711  13.606  13.768
 5940SOL    HW119653  14.802  13.628  13.748
 5940SOL    HW219654  14.677  13.570  13.686
 5941SOL     OW19655  12.557   2.012  12.917
 5941SOL    HW119656  12.621   2.076  12.948
 5941SOL    HW219657  12.553   2.024  12.822
 5942SOL     OW19658   1.771   2.709   0.353
 5942SOL    HW119659   1.826   2.640   0.317
 5942SOL    HW219660   1.756   2.683   0.444
 5943SOL     OW19661   4.135  11.813   1.194
 5943SOL    HW119662   4.215  11.866   1.190
 5943SOL    HW219663   4.166  11.725   1.216
 5944SOL     OW19664   7.409   8.204  12.744
 5944SOL    HW119665   7.347   8.134  12.764
 5944SOL    HW219666   7.494   8.169  12.771
 5945SOL     OW19667   9.220   3.651   0.032
 5945SOL    HW119668   9.253   3.704  14.838
 5945SOL    HW219669   9.134   3.621   0.002
 5946SOL     OW19670  10.398   6.446   5.355
 5946SOL    HW119671  10.422   6.532   5.322
 5946SOL    HW219672  10.330   6.415   5.296
 5947SOL     OW19673   6.578   0.438   9.676
 5947SOL    HW119674   6.501   0.415   9.624
 5947SOL    HW219675   6.544   0.453   9.764
 5948SOL     OW19676   2.893   3.326  10.632
 5948SOL    HW119677   2.876   3.407  10.680
 5948SOL    HW219678   2.964   3.348  10.572
 5949SOL     OW19679  12.244   4.805  11.959
 5949SOL    HW119680  12.281   4.824  11.872
 5949SOL    HW219681  12.206   4.888  11.987
 5950SOL     OW19682   5.644   9.610   2.950
 5950SOL    HW119683   5.711   9.543   2.962
 5950SOL    HW219684   5.595   9.581   2.873
 5951SOL     OW19685  10.407   9.336  12.680
 5951SOL    HW119686  10.381   9.261  12.626
 5951SOL    HW219687  10.483   9.305  12.730
 5952SOL     OW19688   0.288  12.197  12.106
 5952SOL    HW119689   0.284  12.132  12.036
 5952SOL    HW219690   0.343  12.157  12.173
 5953SOL     OW19691  12.287   8.677   9.675
 5953SOL    HW119692  12.271   8.634   9.591
 5953SOL    HW219693  12.202   8.713   9.700
 5954SOL     OW19694   3.924   3.263   7.274
 5954SOL    HW119695   3.921   3.288   7.367
 5954SOL    HW219696   4.011   3.226   7.262
 5955SOL     OW19697   3.780   0.216   7.100
 5955SOL    HW119698   3.769   0.298   7.149
 5955SOL    HW219699   3.709   0.160   7.132
 5956SOL     OW19700   1.141  11.399   1.897
 5956SOL    HW119701   1.229  11.387   1.931
 5956SOL    HW219702   1.122  11.317   1.851
 5957SOL     OW19703  14.761   8.584   8.821
 5957SOL    HW119704  14.826   8.648   8.851
 5957SOL    HW219705  14.735   8.537   8.901
 5958SOL     OW19706   8.694  11.720  12.645
 5958SOL    HW119707   8.755  11.718  12.719
 5958SOL    HW219708   8.722  11.795  12.593
 5959SOL     OW19709   0.620   8.148   0.335
 5959SOL    HW119710   0.704   8.161   0.380
 5959SOL    HW219711   0.578   8.234   0.338
 5960SOL     OW19712   3.135   8.969   7.178
 5960SOL    HW119713   3.089   8.912   7.240
 5960SOL    HW219714   3.186   8.909   7.124
 5961SOL     OW19715   9.720   9.362   9.738
 5961SOL    HW119716   9.712   9.449   9.700
 5961SOL    HW219717   9.629   9.334   9.752
 5962SOL     OW19718  12.054  11.924  12.436
 5962SOL    HW119719  12.081  11.832  12.432
 5962SOL    HW219720  11.986  11.926  12.503
 5963SOL     OW19721   4.476   7.096  10.770
 5963SOL    HW119722   4.496   7.176  10.721
 5963SOL    HW219723   4.481   7.026  10.706
 5964SOL     OW19724  14.748  10.832   2.520
 5964SOL    HW119725  14.787  10.798   2.600
 5964SOL    HW219726  14.817  10.886   2.480
 5965SOL     OW19727  12.635  10.856  12.182
 5965SOL    HW119728  12.607  10.909  12.257
 5965SOL    HW219729  12.583  10.888  12.109
 5966SOL     OW19730   0.358  14.327   9.704
 5966SOL    HW119731   0.295  14.380   9.752
 5966SOL    HW219732   0.339  14.346   9.611
 5967SOL     OW19733   2.022  10.150   1.098
 5967SOL    HW119734   2.012  10.096   1.019
 5967SOL    HW219735   1.982  10.098   1.167
 5968SOL     OW19736   7.081  11.277   3.833
 5968SOL    HW119737   7.043  11.234   3.756
 5968SOL    HW219738   7.164  11.314   3.802
 5969SOL     OW19739  10.845   7.636  12.590
 5969SOL    HW119740  10.917   7.588  12.629
 5969SOL    HW219741  10.816   7.581  12.517
 5970SOL     OW19742   9.735   8.754  10.489
 5970SOL    HW119743   9.683   8.773  10.567
 5970SOL    HW219744   9.723   8.830  10.433
 5971SOL     OW19745  14.480   6.096   7.060
 5971SOL    HW119746  14.561   6.047   7.076
 5971SOL    HW219747  14.431   6.042   6.998
 5972SOL     OW19748   0.881   0.072  10.532
 5972SOL    HW119749   0.806   0.039  10.481
 5972SOL    HW219750   0.911  14.875  10.582
 5973SOL     OW19751  13.401  10.794   2.833
 5973SOL    HW119752  13.421  10.873   2.883
 5973SOL    HW219753  13.467  10.731   2.861
 5974SOL     OW19754   4.593   6.231   3.766
 5974SOL    HW119755   4.681   6.209   3.795
 5974SOL    HW219756   4.601   6.245   3.672
 5975SOL     OW19757  12.974  11.279   8.453
 5975SOL    HW119758  13.059  11.248   8.423
 5975SOL    HW219759  12.912  11.215   8.418
 5976SOL     OW19760   8.722  10.133   9.252
 5976SOL    HW119761   8.650  10.186   9.283
 5976SOL    HW219762   8.686  10.083   9.178
 5977SOL     OW19763   9.800  11.910   2.178
 5977SOL    HW119764   9.887  11.933   2.144
 5977SOL    HW219765   9.755  11.994   2.188
 5978SOL     OW19766  12.213  12.864  13.861
 5978SOL    HW119767  12.280  12.929  13.882
 5978SOL    HW219768  12.261  12.795  13.815
 5979SOL     OW19769   8.189   4.235   3.513
 5979SOL    HW119770   8.142   4.152   3.510
 5979SOL    HW219771   8.194   4.256   3.607
 5980SOL     OW19772   2.224   6.710  10.454
 5980SOL    HW119773   2.266   6.649  10.393
 5980SOL    HW219774   2.192   6.781  10.399
 5981SOL     OW19775  14.023   5.327  12.533
 5981SOL    HW119776  14.054   5.376  12.610
 5981SOL    HW219777  14.030   5.389  12.461
 5982SOL     OW19778   2.651   1.529   7.888
 5982SOL    HW119779   2.613   1.549   7.973
 5982SOL    HW219780   2.736   1.491   7.908
 5983SOL     OW19781   8.387   1.578   4.503
 5983SOL    HW119782   8.479   1.572   4.530
 5983SOL    HW219783   8.390   1.623   4.419
 5984SOL     OW19784   6.464   9.990   2.689
 5984SOL    HW119785   6.455   9.959   2.779
 5984SOL    HW219786   6.375  10.016   2.665
 5985SOL     OW19787   0.809  13.178   7.332
 5985SOL    HW119788   0.827  13.150   7.243
 5985SOL    HW219789   0.716  13.158   7.346
 5986SOL     OW19790  12.550   4.088  10.837
 5986SOL    HW119791  12.607   4.163  10.855
 5986SOL    HW219792  12.467   4.110  10.879
 5987SOL     OW19793   4.667   8.845  10.334
 5987SOL    HW119794   4.682   8.940  10.333
 5987SOL    HW219795   4.644   8.825  10.424
 5988SOL     OW19796   5.151   7.248   6.427
 5988SOL    HW119797   5.122   7.291   6.346
 5988SOL    HW219798   5.177   7.320   6.484
 5989SOL     OW19799  14.340   0.105   5.339
 5989SOL    HW119800  14.401   0.175   5.313
 5989SOL    HW219801  14.397   0.035   5.369
 5990SOL     OW19802   4.634  12.047   3.737
 5990SOL    HW119803   4.724  12.043   3.703
 5990SOL    HW219804   4.591  12.113   3.683
 5991SOL     OW19805   2.181   8.808  14.286
 5991SOL    HW119806   2.150   8.777  14.371
 5991SOL    HW219807   2.102   8.817  14.233
 5992SOL     OW19808  10.614  13.961   2.219
 5992SOL    HW119809  10.524  13.929   2.222
 5992SOL    HW219810  10.667  13.883   2.204
 5993SOL     OW19811   2.291  10.909   4.582
 5993SOL    HW119812   2.371  10.891   4.531
 5993SOL    HW219813   2.224  10.928   4.517
 5994SOL     OW19814   2.917  12.119   2.291
 5994SOL    HW119815   2.994  12.097   2.238
 5994SOL    HW219816   2.951  12.128   2.380
 5995SOL     OW19817   8.881  10.480  10.556
 5995SOL    HW119818   8.963  10.478  10.505
 5995SOL    HW219819   8.870  10.390  10.586
 5996SOL     OW19820   1.144  12.618   8.489
 5996SOL    HW119821   1.219  12.564   8.466
 5996SOL    HW219822   1.140  12.685   8.420
 5997SOL     OW19823   3.189   9.672   5.864
 5997SOL    HW119824   3.192   9.765   5.845
 5997SOL    HW219825   3.190   9.666   5.960
 5998SOL     OW19826   7.369   2.974   6.054
 5998SOL    HW119827   7.376   3.066   6.030
 5998SOL    HW219828   7.335   2.975   6.143
 5999SOL     OW19829   5.368   5.601   4.566
 5999SOL    HW119830   5.452   5.560   4.585
 5999SOL    HW219831   5.328   5.613   4.652
 6000SOL     OW19832  11.649   1.054   4.507
 6000SOL    HW119833  11.588   0.986   4.533
 6000SOL    HW219834  11.714   1.008   4.454
 6001SOL     OW19835   9.332   7.385  14.630
 6001SOL    HW119836   9.306   7.440  14.704
 6001SOL    HW219837   9.391   7.440  14.579
 6002SOL     OW19838  14.856  13.740  10.990
 6002SOL    HW119839   0.040  13.786  10.935
 6002SOL    HW219840  14.813  13.677  10.932
 6003SOL     OW19841   6.498  13.390   2.672
 6003SOL    HW119842   6.557  13.317   2.692
 6003SOL    HW219843   6.434  13.390   2.743
 6004SOL     OW19844   8.034   7.125  13.311
 6004SOL    HW119845   7.943   7.153  13.321
 6004SOL    HW219846   8.081   7.172  13.380
 6005SOL     OW19847   6.646   9.359  12.642
 6005SOL    HW119848   6.716   9.396  12.696
 6005SOL    HW219849   6.682   9.361  12.553
 6006SOL     OW19850   1.651   5.094  13.686
 6006SOL    HW119851   1.644   5.177  13.733
 6006SOL    HW219852   1.650   5.118  13.594
 6007SOL     OW19853   7.925  14.055   0.142
 6007SOL    HW119854   7.891  14.061   0.053
 6007SOL    HW219855   7.974  14.136   0.155
 6008SOL     OW19856  14.046   4.302   9.324
 6008SOL    HW119857  13.974   4.246   9.293
 6008SOL    HW219858  14.125   4.255   9.299
 6009SOL     OW19859   3.190   5.940  11.007
 6009SOL    HW119860   3.119   5.998  11.035
 6009SOL    HW219861   3.267   5.996  11.005
 6010SOL     OW19862   8.212   9.824  11.695
 6010SOL    HW119863   8.152   9.898  11.682
 6010SOL    HW219864   8.262   9.819  11.613
 6011SOL     OW19865  12.209   9.514   0.284
 6011SOL    HW119866  12.302   9.531   0.304
 6011SOL    HW219867  12.181   9.451   0.350
 6012SOL     OW19868  11.739  10.229   8.592
 6012SOL    HW119869  11.652  10.267   8.606
 6012SOL    HW219870  11.726  10.160   8.528
 6013SOL     OW19871   6.590  10.117  10.373
 6013SOL    HW119872   6.536  10.147  10.446
 6013SOL    HW219873   6.603  10.195  10.319
 6014SOL     OW19874   4.640  14.245  14.767
 6014SOL    HW119875   4.637  14.258  14.672
 6014SOL    HW219876   4.712  14.185  14.781
 6015SOL     OW19877   9.399  13.122  10.722
 6015SOL    HW119878   9.408  13.206  10.767
 6015SOL    HW219879   9.323  13.081  10.763
 6016SOL     OW19880   9.601   3.325   8.129
 6016SOL    HW119881   9.581   3.232   8.131
 6016SOL    HW219882   9.695   3.329   8.109
 6017SOL     OW19883  11.381   9.181  12.137
 6017SOL    HW119884  11.458   9.217  12.093
 6017SOL    HW219885  11.404   9.183  12.230
 6018SOL     OW19886   0.639  13.191   1.208
 6018SOL    HW119887   0.675  13.255   1.269
 6018SOL    HW219888   0.553  13.169   1.244
 6019SOL     OW19889  12.418   8.017   6.959
 6019SOL    HW119890  12.359   7.986   7.028
 6019SOL    HW219891  12.497   8.045   7.005
 6020SOL     OW19892  11.643   1.558   7.116
 6020SOL    HW119893  11.552   1.579   7.135
 6020SOL    HW219894  11.662   1.482   7.170
 6021SOL     OW19895   0.516  10.235   9.307
 6021SOL    HW119896   0.520  10.140   9.307
 6021SOL    HW219897   0.429  10.256   9.272
 6022SOL     OW19898   7.600  10.396   7.717
 6022SOL    HW119899   7.691  10.424   7.713
 6022SOL    HW219900   7.567  10.408   7.627
 6023SOL     OW19901  13.723   7.354  10.846
 6023SOL    HW119902  13.818   7.355  10.834
 6023SOL    HW219903  13.696   7.267  10.818
 6024SOL     OW19904   3.005   4.889  11.812
 6024SOL    HW119905   2.923   4.884  11.762
 6024SOL    HW219906   3.065   4.935  11.754
 6025SOL     OW19907   4.706  13.608   9.415
 6025SOL    HW119908   4.720  13.548   9.489
 6025SOL    HW219909   4.705  13.550   9.338
 6026SOL     OW19910  12.640   8.117  13.968
 6026SOL    HW119911  12.614   8.186  13.908
 6026SOL    HW219912  12.735   8.122  13.971
 6027SOL     OW19913  11.797   3.139   6.325
 6027SOL    HW119914  11.886   3.158   6.295
 6027SOL    HW219915  11.784   3.046   6.305
 6028SOL     OW19916  12.215   0.261   3.738
 6028SOL    HW119917  12.284   0.298   3.793
 6028SOL    HW219918  12.255   0.254   3.651
 6029SOL     OW19919   7.263   1.798   9.404
 6029SOL    HW119920   7.280   1.768   9.493
 6029SOL    HW219921   7.298   1.887   9.401
 6030SOL     OW19922   3.015   7.530   3.873
 6030SOL    HW119923   3.012   7.438   3.848
 6030SOL    HW219924   3.068   7.572   3.804
 6031SOL     OW19925   7.309   3.860   2.303
 6031SOL    HW119926   7.340   3.935   2.253
 6031SOL    HW219927   7.321   3.886   2.395
 6032SOL     OW19928  11.217   2.166   1.780
 6032SOL    HW119929  11.171   2.156   1.696
 6032SOL    HW219930  11.218   2.260   1.796
 6033SOL     OW19931   0.200   2.094   5.764
 6033SOL    HW119932   0.122   2.039   5.764
 6033SOL    HW219933   0.181   2.163   5.827
 6034SOL     OW19934   4.712   1.626   0.334
 6034SOL    HW119935   4.681   1.551   0.284
 6034SOL    HW219936   4.636   1.655   0.385
 6035SOL     OW19937   7.945   4.537  12.808
 6035SOL    HW119938   8.018   4.547  12.747
 6035SOL    HW219939   7.986   4.502  12.888
 6036SOL     OW19940   2.358  13.732   1.827
 6036SOL    HW119941   2.348  13.750   1.920
 6036SOL    HW219942   2.269  13.715   1.796
 6037SOL     OW19943  14.142  12.666   2.011
 6037SOL    HW119944  14.051  12.690   1.990
 6037SOL    HW219945  14.195  12.721   1.953
 6038SOL     OW19946   6.320   9.670   8.061
 6038SOL    HW119947   6.280   9.634   8.140
 6038SOL    HW219948   6.277   9.625   7.989
 6039SOL     OW19949   6.862   5.805  13.977
 6039SOL    HW119950   6.781   5.805  13.926
 6039SOL    HW219951   6.865   5.892  14.016
 6040SOL     OW19952   9.996  12.943   3.626
 6040SOL    HW119953   9.946  12.971   3.702
 6040SOL    HW219954   9.947  12.868   3.591
 6041SOL     OW19955  13.140   9.942  11.943
 6041SOL    HW119956  13.107   9.888  11.871
 6041SOL    HW219957  13.064   9.993  11.971
 6042SOL     OW19958  11.783   4.726   6.105
 6042SOL    HW119959  11.700   4.723   6.057
 6042SOL    HW219960  11.763   4.688   6.190
 6043SOL     OW19961  14.174   9.958   3.401
 6043SOL    HW119962  14.114   9.996   3.465
 6043SOL    HW219963  14.177  10.022   3.330
 6044SOL     OW19964   1.559   3.567  11.610
 6044SOL    HW119965   1.555   3.661  11.596
 6044SOL    HW219966   1.493   3.550  11.678
 6045SOL     OW19967  13.583   8.572  11.274
 6045SOL    HW119968  13.559   8.491  11.230
 6045SOL    HW219969  13.672   8.591  11.243
 6046SOL     OW19970   4.849   6.363   0.458
 6046SOL    HW119971   4.771   6.335   0.504
 6046SOL    HW219972   4.903   6.284   0.452
 6047SOL     OW19973  12.546   4.704   2.420
 6047SOL    HW119974  12.470   4.762   2.420
 6047SOL    HW219975  12.552   4.671   2.331
 6048SOL     OW19976   2.987  14.151   7.920
 6048SOL    HW119977   3.030  14.068   7.901
 6048SOL    HW219978   3.018  14.210   7.850
 6049SOL     OW19979   6.689   4.926   9.346
 6049SOL    HW119980   6.756   4.991   9.367
 6049SOL    HW219981   6.671   4.882   9.429
 6050SOL     OW19982   0.329   5.847   7.609
 6050SOL    HW119983   0.329   5.807   7.696
 6050SOL    HW219984   0.408   5.901   7.608
 6051SOL     OW19985   9.400  11.800   2.729
 6051SOL    HW119986   9.495  11.801   2.730
 6051SOL    HW219987   9.376  11.844   2.647
 6052SOL     OW19988  14.695   5.436   8.498
 6052SOL    HW119989  14.676   5.488   8.420
 6052SOL    HW219990  14.688   5.345   8.469
 6053SOL     OW19991   7.181  12.265   8.959
 6053SOL    HW119992   7.168  12.353   8.925
 6053SOL    HW219993   7.142  12.208   8.893
 6054SOL     OW19994   1.782   0.570   0.039
 6054SOL    HW119995   1.864   0.582  14.870
 6054SOL    HW219996   1.800   0.499   0.101
 6055SOL     OW19997   5.389  13.109  10.701
 6055SOL    HW119998   5.351  13.048  10.638
 6055SOL    HW219999   5.450  13.057  10.752
 6056SOL     OW20000   3.155   7.654  12.789
 6056SOL    HW120001   3.242   7.639  12.826
 6056SOL    HW220002   3.134   7.573  12.742
 6057SOL     OW20003   2.237   0.917   6.760
 6057SOL    HW120004   2.175   0.950   6.696
 6057SOL    HW220005   2.277   0.841   6.718
 6058SOL     OW20006   4.506   5.267  10.955
 6058SOL    HW120007   4.421   5.226  10.973
 6058SOL    HW220008   4.538   5.222  10.877
 6059SOL     OW20009  10.377  10.943   5.844
 6059SOL    HW120010  10.389  11.004   5.917
 6059SOL    HW220011  10.310  10.985   5.789
 6060SOL     OW20012   4.949   4.843   4.746
 6060SOL    HW120013   4.985   4.801   4.668
 6060SOL    HW220014   5.018   4.836   4.811
 6061SOL     OW20015   5.900   8.072  14.460
 6061SOL    HW120016   5.990   8.063  14.428
 6061SOL    HW220017   5.906   8.052  14.553
 6062SOL     OW20018   3.398   9.929   0.644
 6062SOL    HW120019   3.491   9.948   0.631
 6062SOL    HW220020   3.366   9.903   0.558
 6063SOL     OW20021   3.957  10.566   8.564
 6063SOL    HW120022   3.908  10.587   8.484
 6063SOL    HW220023   4.026  10.506   8.534
 6064SOL     OW20024   2.818  13.129  11.106
 6064SOL    HW120025   2.888  13.064  11.116
 6064SOL    HW220026   2.779  13.135  11.193
 6065SOL     OW20027   5.544   8.243  13.674
 6065SOL    HW120028   5.494   8.182  13.727
 6065SOL    HW220029   5.564   8.316  13.734
 6066SOL     OW20030   6.948   2.896  10.354
 6066SOL    HW120031   6.860   2.862  10.338
 6066SOL    HW220032   6.981   2.918  10.267
 6067SOL     OW20033   5.322   8.637  10.951
 6067SOL    HW120034   5.370   8.687  11.018
 6067SOL    HW220035   5.352   8.674  10.868
 6068SOL     OW20036   9.746   6.417   3.558
 6068SOL    HW120037   9.816   6.475   3.530
 6068SOL    HW220038   9.669   6.474   3.565
 6069SOL     OW20039   2.095  14.834  10.415
 6069SOL    HW120040   2.011  14.820  10.373
 6069SOL    HW220041   2.089  14.785  10.497
 6070SOL     OW20042   7.365   0.375  10.301
 6070SOL    HW120043   7.390   0.440  10.367
 6070SOL    HW220044   7.269   0.370  10.309
 6071SOL     OW20045   5.365  13.518   2.396
 6071SOL    HW120046   5.412  13.442   2.432
 6071SOL    HW220047   5.284  13.522   2.447
 6072SOL     OW20048   1.475  12.471   5.978
 6072SOL    HW120049   1.439  12.549   6.020
 6072SOL    HW220050   1.446  12.478   5.887
 6073SOL     OW20051  12.677   6.354   3.023
 6073SOL    HW120052  12.746   6.319   3.079
 6073SOL    HW220053  12.716   6.432   2.983
 6074SOL     OW20054  11.431   6.071  14.098
 6074SOL    HW120055  11.351   6.022  14.113
 6074SOL    HW220056  11.457   6.101  14.185
 6075SOL     OW20057  12.767  12.767   7.291
 6075SOL    HW120058  12.810  12.699   7.238
 6075SOL    HW220059  12.799  12.751   7.380
 6076SOL     OW20060  12.376   0.538  14.456
 6076SOL    HW120061  12.290   0.577  14.442
 6076SOL    HW220062  12.398   0.499  14.372
 6077SOL     OW20063  13.996  10.083   9.522
 6077SOL    HW120064  13.914  10.052   9.561
 6077SOL    HW220065  13.970  10.154   9.464
 6078SOL     OW20066   2.201   4.240  12.591
 6078SOL    HW120067   2.255   4.178  12.640
 6078SOL    HW220068   2.261   4.284  12.533
 6079SOL     OW20069   7.355   6.187   2.483
 6079SOL    HW120070   7.279   6.153   2.531
 6079SOL    HW220071   7.318   6.232   2.408
 6080SOL     OW20072   5.560   9.075   6.806
 6080SOL    HW120073   5.574   9.150   6.748
 6080SOL    HW220074   5.488   9.026   6.766
 6081SOL     OW20075   7.511  11.122   6.440
 6081SOL    HW120076   7.473  11.034   6.444
 6081SOL    HW220077   7.468  11.169   6.511
 6082SOL     OW20078   4.960   2.783   3.448
 6082SOL    HW120079   4.936   2.875   3.441
 6082SOL    HW220080   4.946   2.761   3.540
 6083SOL     OW20081  10.168   9.692  12.256
 6083SOL    HW120082  10.236   9.634  12.221
 6083SOL    HW220083  10.190   9.779  12.221
 6084SOL     OW20084   0.049  13.996   3.531
 6084SOL    HW120085  14.841  14.015   3.494
 6084SOL    HW220086   0.043  14.024   3.622
 6085SOL     OW20087   8.342  11.610   4.291
 6085SOL    HW120088   8.275  11.664   4.333
 6085SOL    HW220089   8.404  11.673   4.254
 6086SOL     OW20090  12.446   6.387   9.753
 6086SOL    HW120091  12.537   6.404   9.778
 6086SOL    HW220092  12.422   6.460   9.696
 6087SOL     OW20093   1.389  10.901   8.962
 6087SOL    HW120094   1.482  10.910   8.984
 6087SOL    HW220095   1.372  10.971   8.899
 6088SOL     OW20096  11.041   7.214   6.080
 6088SOL    HW120097  11.098   7.283   6.113
 6088SOL    HW220098  11.085   7.132   6.105
 6089SOL     OW20099   1.131   3.313   5.768
 6089SOL    HW120100   1.185   3.252   5.819
 6089SOL    HW220101   1.188   3.341   5.696
 6090SOL     OW20102   5.746   3.590   8.905
 6090SOL    HW120103   5.770   3.534   8.831
 6090SOL    HW220104   5.825   3.640   8.925
 6091SOL     OW20105   8.050   2.977  13.777
 6091SOL    HW120106   7.963   3.005  13.750
 6091SOL    HW220107   8.049   2.983  13.872
 6092SOL     OW20108   9.174   8.073   2.269
 6092SOL    HW120109   9.225   8.103   2.345
 6092SOL    HW220110   9.130   7.994   2.301
 6093SOL     OW20111  10.715   2.687  11.111
 6093SOL    HW120112  10.722   2.735  11.193
 6093SOL    HW220113  10.678   2.750  11.049
 6094SOL     OW20114   6.016   5.650   4.093
 6094SOL    HW120115   5.974   5.566   4.113
 6094SOL    HW220116   6.020   5.696   4.178
 6095SOL     OW20117  11.361   9.834   5.920
 6095SOL    HW120118  11.404   9.920   5.919
 6095SOL    HW220119  11.361   9.806   5.829
 6096SOL     OW20120   8.644   0.059   7.356
 6096SOL    HW120121   8.658   0.115   7.280
 6096SOL    HW220122   8.575   0.102   7.406
 6097SOL     OW20123   6.242   3.647  14.602
 6097SOL    HW120124   6.299   3.701  14.548
 6097SOL    HW220125   6.154   3.662  14.568
 6098SOL     OW20126   9.305   3.040   8.736
 6098SOL    HW120127   9.305   3.123   8.689
 6098SOL    HW220128   9.383   3.043   8.791
 6099SOL     OW20129   1.233  12.383   4.518
 6099SOL    HW120130   1.198  12.294   4.518
 6099SOL    HW220131   1.271  12.394   4.430
 6100SOL     OW20132   6.736  11.141   3.642
 6100SOL    HW120133   6.755  11.234   3.647
 6100SOL    HW220134   6.782  11.102   3.716
 6101SOL     OW20135   2.273   7.409   8.423
 6101SOL    HW120136   2.189   7.398   8.377
 6101SOL    HW220137   2.325   7.462   8.363
 6102SOL     OW20138   9.431   5.728  12.842
 6102SOL    HW120139   9.418   5.634  12.829
 6102SOL    HW220140   9.349   5.768  12.815
 6103SOL     OW20141   9.179   1.106   9.259
 6103SOL    HW120142   9.160   1.053   9.336
 6103SOL    HW220143   9.218   1.186   9.294
 6104SOL     OW20144   5.807   5.278   6.639
 6104SOL    HW120145   5.860   5.335   6.583
 6104SOL    HW220146   5.717   5.308   6.624
 6105SOL     OW20147   5.198   5.863  10.074
 6105SOL    HW120148   5.267   5.920  10.040
 6105SOL    HW220149   5.152   5.917  10.139
 6106SOL     OW20150  14.457   6.927   9.417
 6106SOL    HW120151  14.444   6.842   9.459
 6106SOL    HW220152  14.378   6.977   9.439
 6107SOL     OW20153   7.537   4.856  13.912
 6107SOL    HW120154   7.561   4.777  13.960
 6107SOL    HW220155   7.564   4.838  13.821
 6108SOL     OW20156   2.330  10.465   7.356
 6108SOL    HW120157   2.294  10.550   7.379
 6108SOL    HW220158   2.259  10.421   7.308
 6109SOL     OW20159   3.965   8.949   6.302
 6109SOL    HW120160   4.036   8.890   6.327
 6109SOL    HW220161   3.972   9.023   6.363
 6110SOL     OW20162   5.735   4.458   4.057
 6110SOL    HW120163   5.696   4.535   4.097
 6110SOL    HW220164   5.660   4.403   4.032
 6111SOL     OW20165   4.745  10.135   2.848
 6111SOL    HW120166   4.711  10.123   2.936
 6111SOL    HW220167   4.837  10.156   2.859
 6112SOL     OW20168   9.617   4.678  13.446
 6112SOL    HW120169   9.527   4.670  13.416
 6112SOL    HW220170   9.636   4.595  13.490
 6113SOL     OW20171   7.562   1.625   1.327
 6113SOL    HW120172   7.523   1.633   1.239
 6113SOL    HW220173   7.632   1.561   1.316
 6114SOL     OW20174   9.145  11.825   2.872
 6114SOL    HW120175   9.143  11.751   2.933
 6114SOL    HW220176   9.211  11.800   2.807
 6115SOL     OW20177   1.535   6.995   0.926
 6115SOL    HW120178   1.494   7.012   0.841
 6115SOL    HW220179   1.629   7.001   0.909
 6116SOL     OW20180   9.162  10.049   1.505
 6116SOL    HW120181   9.095  10.086   1.446
 6116SOL    HW220182   9.216   9.994   1.448
 6117SOL     OW20183  10.938   2.067  12.099
 6117SOL    HW120184  10.926   2.048  12.006
 6117SOL    HW220185  11.000   2.001  12.129
 6118SOL     OW20186  14.784   8.114   0.583
 6118SOL    HW120187  14.849   8.185   0.576
 6118SOL    HW220188  14.768   8.087   0.493
 6119SOL     OW20189   0.868   5.602   4.592
 6119SOL    HW120190   0.788   5.636   4.631
 6119SOL    HW220191   0.932   5.603   4.663
 6120SOL     OW20192  12.869   4.330   1.368
 6120SOL    HW120193  12.831   4.383   1.298
 6120SOL    HW220194  12.810   4.255   1.376
 6121SOL     OW20195  11.718   4.678   1.485
 6121SOL    HW120196  11.643   4.695   1.427
 6121SOL    HW220197  11.794   4.710   1.436
 6122SOL     OW20198   1.987   7.290  14.795
 6122SOL    HW120199   1.986   7.357  14.864
 6122SOL    HW220200   1.896   7.284  14.766
 6123SOL     OW20201  12.239  11.067  11.337
 6123SOL    HW120202  12.199  11.051  11.422
 6123SOL    HW220203  12.330  11.089  11.356
 6124SOL     OW20204   1.935  11.293  10.348
 6124SOL    HW120205   1.886  11.364  10.307
 6124SOL    HW220206   1.962  11.237  10.275
 6125SOL     OW20207  11.073   8.060   5.228
 6125SOL    HW120208  11.149   8.089   5.278
 6125SOL    HW220209  11.108   8.025   5.146
 6126SOL     OW20210   5.130   7.941   5.452
 6126SOL    HW120211   5.060   7.927   5.388
 6126SOL    HW220212   5.146   7.853   5.488
 6127SOL     OW20213  10.485  14.072   4.432
 6127SOL    HW120214  10.474  14.153   4.382
 6127SOL    HW220215  10.578  14.049   4.419
 6128SOL     OW20216   4.860  11.043  11.272
 6128SOL    HW120217   4.805  10.965  11.264
 6128SOL    HW220218   4.871  11.075  11.182
 6129SOL     OW20219   6.206  11.555   4.934
 6129SOL    HW120220   6.255  11.498   4.875
 6129SOL    HW220221   6.224  11.520   5.022
 6130SOL     OW20222   0.681  10.261   1.644
 6130SOL    HW120223   0.645  10.334   1.695
 6130SOL    HW220224   0.770  10.251   1.676
 6131SOL     OW20225   5.181   4.564   3.852
 6131SOL    HW120226   5.216   4.642   3.895
 6131SOL    HW220227   5.204   4.492   3.911
 6132SOL     OW20228   2.799   1.501   1.907
 6132SOL    HW120229   2.718   1.552   1.916
 6132SOL    HW220230   2.869   1.566   1.913
 6133SOL     OW20231   4.005   6.226   5.125
 6133SOL    HW120232   4.012   6.305   5.071
 6133SOL    HW220233   4.002   6.259   5.215
 6134SOL     OW20234   7.239  14.848  11.340
 6134SOL    HW120235   7.305  14.852  11.271
 6134SOL    HW220236   7.162   0.013  11.303
 6135SOL     OW20237   8.898   2.480  11.776
 6135SOL    HW120238   8.943   2.431  11.707
 6135SOL    HW220239   8.926   2.570  11.764
 6136SOL     OW20240   8.669   2.830  12.528
 6136SOL    HW120241   8.640   2.757  12.474
 6136SOL    HW220242   8.765   2.828  12.519
 6137SOL     OW20243   4.869   7.914   7.080
 6137SOL    HW120244   4.791   7.930   7.133
 6137SOL    HW220245   4.841   7.929   6.990
 6138SOL     OW20246  14.454   4.385  12.270
 6138SOL    HW120247  14.527   4.404  12.211
 6138SOL    HW220248  14.376   4.404  12.218
 6139SOL     OW20249  13.881   2.203   7.673
 6139SOL    HW120250  13.810   2.254   7.633
 6139SOL    HW220251  13.860   2.112   7.650
 6140SOL     OW20252   3.423   9.410  11.606
 6140SOL    HW120253   3.464   9.491  11.636
 6140SOL    HW220254   3.335   9.437  11.579
 6141SOL     OW20255   5.686   7.587   2.443
 6141SOL    HW120256   5.723   7.605   2.530
 6141SOL    HW220257   5.762   7.586   2.385
 6142SOL     OW20258   5.346   5.935   6.949
 6142SOL    HW120259   5.406   6.007   6.931
 6142SOL    HW220260   5.404   5.861   6.971
 6143SOL     OW20261  13.056  12.272   1.464
 6143SOL    HW120262  13.147  12.242   1.458
 6143SOL    HW220263  13.041  12.319   1.382
 6144SOL     OW20264   6.635   8.357   0.119
 6144SOL    HW120265   6.640   8.452   0.113
 6144SOL    HW220266   6.597   8.340   0.205
 6145SOL     OW20267  12.954   5.010   9.171
 6145SOL    HW120268  12.929   4.926   9.209
 6145SOL    HW220269  12.881   5.068   9.191
 6146SOL     OW20270  12.502  11.859  14.035
 6146SOL    HW120271  12.569  11.894  14.094
 6146SOL    HW220272  12.523  11.766  14.027
 6147SOL     OW20273   3.780   4.537  14.575
 6147SOL    HW120274   3.860   4.587  14.584
 6147SOL    HW220275   3.795   4.458  14.627
 6148SOL     OW20276   6.846  13.909   3.641
 6148SOL    HW120277   6.812  13.846   3.705
 6148SOL    HW220278   6.874  13.983   3.694
 6149SOL     OW20279  10.799   8.662   8.564
 6149SOL    HW120280  10.795   8.646   8.470
 6149SOL    HW220281  10.709   8.656   8.594
 6150SOL     OW20282  14.713  13.512   2.757
 6150SOL    HW120283  14.704  13.540   2.848
 6150SOL    HW220284  14.645  13.561   2.710
 6151SOL     OW20285   6.946   5.688   1.504
 6151SOL    HW120286   6.884   5.760   1.503
 6151SOL    HW220287   6.921   5.633   1.430
 6152SOL     OW20288   6.708   7.310   2.014
 6152SOL    HW120289   6.673   7.303   2.103
 6152SOL    HW220290   6.682   7.397   1.984
 6153SOL     OW20291   3.690   5.911   6.141
 6153SOL    HW120292   3.725   5.864   6.217
 6153SOL    HW220293   3.715   6.002   6.156
 6154SOL     OW20294   9.872  11.680   1.650
 6154SOL    HW120295   9.799  11.712   1.702
 6154SOL    HW220296   9.851  11.588   1.634
 6155SOL     OW20297   4.327   0.698   1.587
 6155SOL    HW120298   4.401   0.652   1.627
 6155SOL    HW220299   4.367   0.771   1.539
 6156SOL     OW20300  11.623   5.821   6.104
 6156SOL    HW120301  11.693   5.816   6.038
 6156SOL    HW220302  11.598   5.913   6.106
 6157SOL     OW20303   0.762  13.811   2.455
 6157SOL    HW120304   0.710  13.804   2.535
 6157SOL    HW220305   0.808  13.895   2.463
 6158SOL     OW20306   2.693  10.694  14.755
 6158SOL    HW120307   2.689  10.603  14.724
 6158SOL    HW220308   2.608  10.731  14.731
 6159SOL     OW20309   1.075   6.234   2.118
 6159SOL    HW120310   1.022   6.156   2.104
 6159SOL    HW220311   1.034   6.301   2.063
 6160SOL     OW20312   4.953   2.068   7.048
 6160SOL    HW120313   4.933   2.086   6.956
 6160SOL    HW220314   4.976   2.154   7.084
 6161SOL     OW20315  14.322   3.703  11.841
 6161SOL    HW120316  14.313   3.620  11.888
 6161SOL    HW220317  14.236   3.719  11.804
 6162SOL     OW20318   8.732   5.918   4.175
 6162SOL    HW120319   8.753   5.825   4.187
 6162SOL    HW220320   8.733   5.930   4.080
 6163SOL     OW20321   5.029   9.294   6.045
 6163SOL    HW120322   5.007   9.206   6.078
 6163SOL    HW220323   5.124   9.300   6.057
 6164SOL     OW20324  11.161   6.747  13.522
 6164SOL    HW120325  11.173   6.665  13.570
 6164SOL    HW220326  11.066   6.758  13.516
 6165SOL     OW20327   6.195   2.760  14.203
 6165SOL    HW120328   6.180   2.848  14.237
 6165SOL    HW220329   6.184   2.702  14.279
 6166SOL     OW20330  13.288   0.760   9.980
 6166SOL    HW120331  13.318   0.683   9.931
 6166SOL    HW220332  13.240   0.723  10.055
 6167SOL     OW20333   7.450   4.159   4.803
 6167SOL    HW120334   7.355   4.146   4.798
 6167SOL    HW220335   7.483   4.078   4.841
 6168SOL     OW20336   5.769   8.100   3.822
 6168SOL    HW120337   5.726   8.153   3.889
 6168SOL    HW220338   5.696   8.063   3.771
 6169SOL     OW20339   7.342   7.871   4.213
 6169SOL    HW120340   7.408   7.802   4.211
 6169SOL    HW220341   7.263   7.829   4.179
 6170SOL     OW20342   4.104   2.676   6.462
 6170SOL    HW120343   4.033   2.733   6.433
 6170SOL    HW220344   4.167   2.677   6.390
 6171SOL     OW20345  14.357  12.048   8.316
 6171SOL    HW120346  14.363  12.091   8.401
 6171SOL    HW220347  14.413  12.101   8.258
 6172SOL     OW20348  14.619   4.764  14.281
 6172SOL    HW120349  14.664   4.705  14.219
 6172SOL    HW220350  14.651   4.851  14.259
 6173SOL     OW20351  10.342   5.639  13.038
 6173SOL    HW120352  10.359   5.668  13.127
 6173SOL    HW220353  10.332   5.720  12.988
 6174SOL     OW20354   8.221  13.721   5.879
 6174SOL    HW120355   8.164  13.789   5.915
 6174SOL    HW220356   8.227  13.742   5.785
 6175SOL     OW20357  13.622  12.937   6.121
 6175SOL    HW120358  13.676  13.016   6.122
 6175SOL    HW220359  13.604  12.918   6.214
 6176SOL     OW20360   5.237   9.499   2.489
 6176SOL    HW120361   5.178   9.573   2.470
 6176SOL    HW220362   5.182   9.436   2.535
 6177SOL     OW20363   6.668  12.781  12.227
 6177SOL    HW120364   6.618  12.728  12.165
 6177SOL    HW220365   6.751  12.798  12.183
 6178SOL     OW20366   3.116   4.672  14.817
 6178SOL    HW120367   3.060   4.747  14.837
 6178SOL    HW220368   3.178   4.705  14.752
 6179SOL     OW20369  11.221  11.783  14.067
 6179SOL    HW120370  11.198  11.860  14.015
 6179SOL    HW220371  11.306  11.755  14.032
 6180SOL     OW20372   7.397   1.922   4.074
 6180SOL    HW120373   7.467   1.983   4.099
 6180SOL    HW220374   7.317   1.974   4.081
 6181SOL     OW20375   7.455   5.094  13.755
 6181SOL    HW120376   7.416   5.013  13.788
 6181SOL    HW220377   7.509   5.126  13.828
 6182SOL     OW20378  14.601  12.434   7.226
 6182SOL    HW120379  14.579  12.441   7.318
 6182SOL    HW220380  14.587  12.522   7.191
 6183SOL     OW20381  13.876   8.478   0.211
 6183SOL    HW120382  13.833   8.511   0.132
 6183SOL    HW220383  13.933   8.408   0.179
 6184SOL     OW20384   2.029   6.423   9.407
 6184SOL    HW120385   2.070   6.488   9.464
 6184SOL    HW220386   1.948   6.398   9.452
 6185SOL     OW20387   4.733  11.916  14.001
 6185SOL    HW120388   4.754  11.934  13.909
 6185SOL    HW220389   4.656  11.969  14.019
 6186SOL     OW20390  13.943  10.440   3.493
 6186SOL    HW120391  13.894  10.438   3.575
 6186SOL    HW220392  13.915  10.522   3.451
 6187SOL     OW20393  10.279  13.885   5.260
 6187SOL    HW120394  10.277  13.797   5.297
 6187SOL    HW220395  10.329  13.937   5.323
 6188SOL     OW20396   2.481  13.535   3.007
 6188SOL    HW120397   2.454  13.505   3.094
 6188SOL    HW220398   2.463  13.629   3.008
 6189SOL     OW20399   1.380  14.218   9.690
 6189SOL    HW120400   1.431  14.263   9.757
 6189SOL    HW220401   1.439  14.152   9.656
 6190SOL     OW20402   2.989   4.958   0.039
 6190SOL    HW120403   2.959   4.946   0.129
 6190SOL    HW220404   3.084   4.966   0.047
 6191SOL     OW20405  11.383  14.139   5.123
 6191SOL    HW120406  11.472  14.167   5.102
 6191SOL    HW220407  11.352  14.204   5.187
 6192SOL     OW20408   4.156  10.770  14.819
 6192SOL    HW120409   4.181  10.855  14.782
 6192SOL    HW220410   4.062  10.777  14.834
 6193SOL     OW20411  11.007   4.059   3.748
 6193SOL    HW120412  11.026   4.147   3.780
 6193SOL    HW220413  10.918   4.066   3.714
 6194SOL     OW20414   4.965   7.181  10.416
 6194SOL    HW120415   4.996   7.236  10.488
 6194SOL    HW220416   4.934   7.243  10.351
 6195SOL     OW20417  10.271  12.856   6.326
 6195SOL    HW120418  10.323  12.912   6.269
 6195SOL    HW220419  10.193  12.908   6.346
 6196SOL     OW20420  11.258   3.669   3.484
 6196SOL    HW120421  11.223   3.581   3.500
 6196SOL    HW220422  11.249   3.714   3.568
 6197SOL     OW20423   5.896   3.293   1.436
 6197SOL    HW120424   5.803   3.308   1.452
 6197SOL    HW220425   5.912   3.334   1.351
 6198SOL     OW20426   6.331   0.419   7.631
 6198SOL    HW120427   6.278   0.420   7.551
 6198SOL    HW220428   6.411   0.467   7.607
 6199SOL     OW20429   8.628   8.062   6.274
 6199SOL    HW120430   8.664   7.988   6.225
 6199SOL    HW220431   8.537   8.037   6.291
 6200SOL     OW20432  10.339  13.990   3.370
 6200SOL    HW120433  10.256  14.024   3.404
 6200SOL    HW220434  10.361  13.917   3.428
 6201SOL     OW20435  13.482   7.171   4.373
 6201SOL    HW120436  13.483   7.082   4.408
 6201SOL    HW220437  13.574   7.197   4.369
 6202SOL     OW20438   4.958   8.547   6.715
 6202SOL    HW120439   5.025   8.566   6.651
 6202SOL    HW220440   4.988   8.590   6.795
 6203SOL     OW20441   9.967   1.487  13.023
 6203SOL    HW120442   9.997   1.543  13.095
 6203SOL    HW220443   9.874   1.473  13.041
 6204SOL     OW20444   5.660   8.937   2.801
 6204SOL    HW120445   5.620   8.856   2.833
 6204SOL    HW220446   5.662   8.926   2.706
 6205SOL     OW20447  12.596  11.148   3.918
 6205SOL    HW120448  12.574  11.063   3.954
 6205SOL    HW220449  12.671  11.131   3.861
 6206SOL     OW20450  11.582  11.379   6.281
 6206SOL    HW120451  11.636  11.301   6.296
 6206SOL    HW220452  11.493  11.351   6.302
 6207SOL     OW20453   7.906   0.375   7.946
 6207SOL    HW120454   7.952   0.301   7.984
 6207SOL    HW220455   7.917   0.446   8.010
 6208SOL     OW20456   4.596   3.972   1.184
 6208SOL    HW120457   4.590   3.878   1.199
 6208SOL    HW220458   4.580   4.012   1.269
 6209SOL     OW20459  14.332  12.640   6.932
 6209SOL    HW120460  14.397  12.576   6.960
 6209SOL    HW220461  14.325  12.629   6.837
 6210SOL     OW20462   8.956   4.648   2.322
 6210SOL    HW120463   9.004   4.583   2.271
 6210SOL    HW220464   9.009   4.727   2.315
 6211SOL     OW20465   3.800   5.888  13.705
 6211SOL    HW120466   3.711   5.856  13.721
 6211SOL    HW220467   3.793   5.983  13.716
 6212SOL     OW20468  13.984   4.742  14.785
 6212SOL    HW120469  14.063   4.795  14.788
 6212SOL    HW220470  14.015   4.651  14.788
 6213SOL     OW20471  10.784   5.167   6.907
 6213SOL    HW120472  10.690   5.158   6.918
 6213SOL    HW220473  10.797   5.254   6.870
 6214SOL     OW20474   9.690   0.607  12.891
 6214SOL    HW120475   9.672   0.515  12.871
 6214SOL    HW220476   9.709   0.607  12.985
 6215SOL     OW20477   9.770   7.188  10.479
 6215SOL    HW120478   9.761   7.232  10.563
 6215SOL    HW220479   9.835   7.119  10.495
 6216SOL     OW20480   8.210   9.055   7.679
 6216SOL    HW120481   8.175   8.997   7.611
 6216SOL    HW220482   8.281   9.005   7.718
 6217SOL     OW20483   4.184  13.864  10.543
 6217SOL    HW120484   4.232  13.787  10.574
 6217SOL    HW220485   4.106  13.828  10.502
 6218SOL     OW20486  12.294   8.127   8.388
 6218SOL    HW120487  12.215   8.156   8.433
 6218SOL    HW220488  12.366   8.164   8.441
 6219SOL     OW20489   8.128   5.999   9.244
 6219SOL    HW120490   8.145   6.032   9.332
 6219SOL    HW220491   8.144   6.073   9.186
 6220SOL     OW20492  13.186  13.542   0.396
 6220SOL    HW120493  13.167  13.524   0.488
 6220SOL    HW220494  13.254  13.610   0.399
 6221SOL     OW20495   5.955  10.339   9.072
 6221SOL    HW120496   5.984  10.308   8.986
 6221SOL    HW220497   5.991  10.274   9.133
 6222SOL     OW20498   5.170   6.004   0.110
 6222SOL    HW120499   5.178   6.086   0.062
 6222SOL    HW220500   5.102   6.021   0.175
 6223SOL     OW20501   6.367  14.054  13.581
 6223SOL    HW120502   6.288  14.052  13.635
 6223SOL    HW220503   6.410  13.970  13.599
 6224SOL     OW20504  10.173  12.905  10.884
 6224SOL    HW120505  10.238  12.849  10.927
 6224SOL    HW220506  10.218  12.989  10.872
 6225SOL     OW20507   5.717   3.484  11.663
 6225SOL    HW120508   5.693   3.532  11.742
 6225SOL    HW220509   5.765   3.408  11.694
 6226SOL     OW20510   9.416  12.517   6.162
 6226SOL    HW120511   9.403  12.440   6.107
 6226SOL    HW220512   9.510  12.530   6.163
 6227SOL     OW20513   9.485   8.730   4.433
 6227SOL    HW120514   9.394   8.701   4.441
 6227SOL    HW220515   9.488   8.812   4.482
 6228SOL     OW20516   2.910   5.902   8.941
 6228SOL    HW120517   2.904   5.863   9.029
 6228SOL    HW220518   2.905   5.997   8.957
 6229SOL     OW20519   6.513  12.268   0.263
 6229SOL    HW120520   6.508  12.362   0.242
 6229SOL    HW220521   6.563  12.264   0.344
 6230SOL     OW20522   1.172   2.946   0.260
 6230SOL    HW120523   1.213   2.885   0.198
 6230SOL    HW220524   1.185   2.905   0.345
 6231SOL     OW20525   6.185  12.226   6.948
 6231SOL    HW120526   6.110  12.181   6.985
 6231SOL    HW220527   6.248  12.231   7.020
 6232SOL     OW20528  13.067   5.338  11.964
 6232SOL    HW120529  12.982   5.306  11.933
 6232SOL    HW220530  13.131   5.292  11.910
 6233SOL     OW20531  13.155   2.051  11.752
 6233SOL    HW120532  13.177   2.134  11.710
 6233SOL    HW220533  13.071   2.068  11.796
 6234SOL     OW20534   9.331  14.846  13.950
 6234SOL    HW120535   9.297   0.034  13.891
 6234SOL    HW220536   9.354  14.773  13.893
 6235SOL     OW20537   0.169  14.048  12.104
 6235SOL    HW120538   0.251  14.027  12.148
 6235SOL    HW220539   0.187  14.127  12.054
 6236SOL     OW20540   2.240   0.356  14.046
 6236SOL    HW120541   2.152   0.319  14.034
 6236SOL    HW220542   2.232   0.408  14.126
 6237SOL     OW20543  13.241   1.940   6.096
 6237SOL    HW120544  13.208   2.029   6.081
 6237SOL    HW220545  13.297   1.923   6.020
 6238SOL     OW20546   9.697   0.632   5.702
 6238SOL    HW120547   9.663   0.551   5.740
 6238SOL    HW220548   9.777   0.650   5.750
 6239SOL     OW20549   5.518   6.487   6.300
 6239SOL    HW120550   5.551   6.554   6.360
 6239SOL    HW220551   5.583   6.483   6.231
 6240SOL     OW20552   9.395   2.334   8.105
 6240SOL    HW120553   9.436   2.420   8.122
 6240SOL    HW220554   9.327   2.353   8.040
 6241SOL     OW20555   9.444   5.319  13.973
 6241SOL    HW120556   9.419   5.401  13.930
 6241SOL    HW220557   9.361   5.274  13.989
 6242SOL     OW20558   7.063   6.875   2.024
 6242SOL    HW120559   7.080   6.783   2.004
 6242SOL    HW220560   7.008   6.873   2.102
 6243SOL     OW20561   3.360   9.218   6.685
 6243SOL    HW120562   3.406   9.166   6.619
 6243SOL    HW220563   3.429   9.270   6.727
 6244SOL     OW20564   6.687   4.911  10.200
 6244SOL    HW120565   6.709   4.828  10.157
 6244SOL    HW220566   6.676   4.889  10.292
 6245SOL     OW20567  11.735  11.372   6.752
 6245SOL    HW120568  11.693  11.440   6.698
 6245SOL    HW220569  11.762  11.418   6.831
 6246SOL     OW20570   8.156   4.961   7.569
 6246SOL    HW120571   8.210   4.920   7.637
 6246SOL    HW220572   8.216   5.018   7.521
 6247SOL     OW20573   4.977   6.809   0.473
 6247SOL    HW120574   4.992   6.740   0.537
 6247SOL    HW220575   5.034   6.786   0.399
 6248SOL     OW20576   9.823   5.240   5.790
 6248SOL    HW120577   9.783   5.157   5.767
 6248SOL    HW220578   9.863   5.225   5.875
 6249SOL     OW20579  13.062  10.079   0.792
 6249SOL    HW120580  12.977  10.119   0.809
 6249SOL    HW220581  13.122  10.153   0.783
 6250SOL     OW20582   9.413   0.398   5.497
 6250SOL    HW120583   9.493   0.361   5.533
 6250SOL    HW220584   9.394   0.473   5.553
 6251SOL     OW20585   8.345  10.314  10.433
 6251SOL    HW120586   8.375  10.392  10.480
 6251SOL    HW220587   8.255  10.334  10.407
 6252SOL     OW20588  12.073  14.644   4.300
 6252SOL    HW120589  12.133  14.684   4.238
 6252SOL    HW220590  12.016  14.590   4.246
 6253SOL     OW20591  12.018   7.878  10.805
 6253SOL    HW120592  12.033   7.920  10.720
 6253SOL    HW220593  12.104   7.846  10.832
 6254SOL     OW20594   3.757   1.847   0.377
 6254SOL    HW120595   3.730   1.784   0.311
 6254SOL    HW220596   3.769   1.929   0.329
 6255SOL     OW20597   7.626   0.790   2.929
 6255SOL    HW120598   7.585   0.830   3.005
 6255SOL    HW220599   7.554   0.764   2.872
 6256SOL     OW20600   3.654   0.981  11.883
 6256SOL    HW120601   3.609   0.965  11.966
 6256SOL    HW220602   3.711   0.905  11.871
 6257SOL     OW20603   6.295  10.857   8.387
 6257SOL    HW120604   6.377  10.817   8.358
 6257SOL    HW220605   6.285  10.934   8.332
 6258SOL     OW20606   4.790  12.438   4.263
 6258SOL    HW120607   4.812  12.436   4.170
 6258SOL    HW220608   4.736  12.516   4.273
 6259SOL     OW20609  13.519   7.807   4.159
 6259SOL    HW120610  13.612   7.796   4.140
 6259SOL    HW220611  13.512   7.793   4.254
 6260SOL     OW20612  11.764  10.525   4.350
 6260SOL    HW120613  11.725  10.559   4.270
 6260SOL    HW220614  11.821  10.596   4.381
 6261SOL     OW20615  13.792   2.654  14.513
 6261SOL    HW120616  13.762   2.732  14.467
 6261SOL    HW220617  13.877   2.679  14.549
 6262SOL     OW20618   5.546   5.726   8.866
 6262SOL    HW120619   5.616   5.791   8.867
 6262SOL    HW220620   5.524   5.713   8.958
 6263SOL     OW20621  13.460   2.627   7.791
 6263SOL    HW120622  13.436   2.614   7.699
 6263SOL    HW220623  13.379   2.609   7.840
 6264SOL     OW20624  13.713  13.412  11.404
 6264SOL    HW120625  13.722  13.375  11.317
 6264SOL    HW220626  13.648  13.482  11.395
 6265SOL     OW20627  12.767   4.053   3.112
 6265SOL    HW120628  12.812   4.099   3.042
 6265SOL    HW220629  12.683   4.027   3.074
 6266SOL     OW20630   4.739   5.303   0.915
 6266SOL    HW120631   4.702   5.375   0.863
 6266SOL    HW220632   4.693   5.225   0.883
 6267SOL     OW20633   0.072  12.938   1.432
 6267SOL    HW120634   0.101  12.851   1.402
 6267SOL    HW220635   0.150  12.978   1.468
 6268SOL     OW20636  11.968  13.071  11.759
 6268SOL    HW120637  11.984  12.991  11.710
 6268SOL    HW220638  11.885  13.056  11.804
 6269SOL     OW20639   6.788  11.527  11.886
 6269SOL    HW120640   6.812  11.434  11.885
 6269SOL    HW220641   6.820  11.561  11.803
 6270SOL     OW20642   2.068   1.001   6.955
 6270SOL    HW120643   2.057   0.920   7.005
 6270SOL    HW220644   2.144   0.984   6.900
 6271SOL     OW20645   3.639  10.443   8.571
 6271SOL    HW120646   3.606  10.392   8.498
 6271SOL    HW220647   3.617  10.392   8.649
 6272SOL     OW20648  13.961  11.737   9.698
 6272SOL    HW120649  13.890  11.729   9.634
 6272SOL    HW220650  14.032  11.780   9.649
 6273SOL     OW20651   1.783   0.036   0.448
 6273SOL    HW120652   1.708   0.008   0.500
 6273SOL    HW220653   1.807   0.121   0.485
 6274SOL     OW20654   9.990   7.348  10.637
 6274SOL    HW120655  10.083   7.369  10.628
 6274SOL    HW220656   9.946   7.433  10.632
 6275SOL     OW20657   6.915  10.974   9.718
 6275SOL    HW120658   6.892  11.042   9.655
 6275SOL    HW220659   6.866  10.997   9.797
 6276SOL     OW20660   4.485   2.824   0.046
 6276SOL    HW120661   4.563   2.875   0.024
 6276SOL    HW220662   4.515   2.763   0.113
 6277SOL     OW20663   6.862   4.938  13.426
 6277SOL    HW120664   6.866   4.920  13.332
 6277SOL    HW220665   6.950   4.967  13.449
 6278SOL     OW20666   1.793  13.600   0.006
 6278SOL    HW120667   1.848  13.522   0.015
 6278SOL    HW220668   1.782  13.632   0.096
 6279SOL     OW20669   1.302   4.876   2.093
 6279SOL    HW120670   1.339   4.963   2.107
 6279SOL    HW220671   1.290   4.870   1.999
 6280SOL     OW20672  12.700   8.009   0.951
 6280SOL    HW120673  12.724   8.082   1.008
 6280SOL    HW220674  12.784   7.976   0.919
 6281SOL     OW20675   3.586  12.585  10.921
 6281SOL    HW120676   3.627  12.517  10.974
 6281SOL    HW220677   3.606  12.560  10.831
 6282SOL     OW20678   7.750   8.912  10.357
 6282SOL    HW120679   7.829   8.943  10.402
 6282SOL    HW220680   7.682   8.975  10.382
 6283SOL     OW20681   8.596  14.214   9.068
 6283SOL    HW120682   8.661  14.283   9.071
 6283SOL    HW220683   8.521  14.253   9.024
 6284SOL     OW20684  11.569   4.225   0.424
 6284SOL    HW120685  11.556   4.208   0.331
 6284SOL    HW220686  11.663   4.240   0.433
 6285SOL     OW20687   8.194  13.531   9.811
 6285SOL    HW120688   8.155  13.457   9.858
 6285SOL    HW220689   8.267  13.559   9.866
 6286SOL     OW20690   3.466  11.542   6.293
 6286SOL    HW120691   3.388  11.579   6.334
 6286SOL    HW220692   3.434  11.498   6.215
 6287SOL     OW20693   1.720   7.491  14.641
 6287SOL    HW120694   1.803   7.511  14.598
 6287SOL    HW220695   1.676   7.430  14.580
 6288SOL     OW20696  10.207   6.179  12.668
 6288SOL    HW120697  10.233   6.180  12.760
 6288SOL    HW220698  10.276   6.129  12.624
 6289SOL     OW20699   9.541  10.111   0.169
 6289SOL    HW120700   9.542  10.206   0.164
 6289SOL    HW220701   9.573  10.090   0.256
 6290SOL     OW20702  12.492   1.269   7.868
 6290SOL    HW120703  12.465   1.207   7.935
 6290SOL    HW220704  12.419   1.329   7.858
 6291SOL     OW20705  13.191   3.340  13.385
 6291SOL    HW120706  13.185   3.310  13.294
 6291SOL    HW220707  13.103   3.372  13.405
 6292SOL     OW20708   0.958  13.119   3.381
 6292SOL    HW120709   0.966  13.063   3.304
 6292SOL    HW220710   0.947  13.207   3.346
 6293SOL     OW20711   5.848   2.073  12.512
 6293SOL    HW120712   5.880   2.152  12.554
 6293SOL    HW220713   5.855   2.005  12.579
 6294SOL     OW20714  11.783   0.566  13.324
 6294SOL    HW120715  11.743   0.652  13.324
 6294SOL    HW220716  11.846   0.569  13.252
 6295SOL     OW20717   3.187  13.627  11.724
 6295SOL    HW120718   3.193  13.709  11.774
 6295SOL    HW220719   3.124  13.646  11.655
 6296SOL     OW20720  12.385  14.637  11.633
 6296SOL    HW120721  12.405  14.548  11.663
 6296SOL    HW220722  12.323  14.670  11.698
 6297SOL     OW20723   6.256   8.127   8.061
 6297SOL    HW120724   6.332   8.073   8.039
 6297SOL    HW220725   6.269   8.208   8.012
 6298SOL     OW20726   3.954   0.842   0.073
 6298SOL    HW120727   3.924   0.860   0.162
 6298SOL    HW220728   3.874   0.840   0.021
 6299SOL     OW20729  11.966   2.077  13.678
 6299SOL    HW120730  11.908   2.004  13.704
 6299SOL    HW220731  12.053   2.038  13.677
 6300SOL     OW20732  12.451  10.981  14.347
 6300SOL    HW120733  12.448  10.889  14.374
 6300SOL    HW220734  12.527  11.017  14.393
 6301SOL     OW20735  12.771   6.195  12.857
 6301SOL    HW120736  12.818   6.152  12.929
 6301SOL    HW220737  12.696   6.236  12.900
 6302SOL     OW20738   9.688   8.354   8.160
 6302SOL    HW120739   9.686   8.258   8.162
 6302SOL    HW220740   9.634   8.378   8.085
 6303SOL     OW20741  13.711  14.198   6.401
 6303SOL    HW120742  13.637  14.211   6.341
 6303SOL    HW220743  13.690  14.250   6.478
 6304SOL     OW20744  10.639  14.474   9.079
 6304SOL    HW120745  10.639  14.525   9.160
 6304SOL    HW220746  10.558  14.501   9.034
 6305SOL     OW20747   2.091  12.676  12.560
 6305SOL    HW120748   2.146  12.732  12.615
 6305SOL    HW220749   2.109  12.587  12.590
 6306SOL     OW20750  10.193   7.456  13.530
 6306SOL    HW120751  10.269   7.514  13.532
 6306SOL    HW220752  10.145   7.482  13.451
 6307SOL     OW20753   1.165   0.129   0.487
 6307SOL    HW120754   1.195   0.122   0.396
 6307SOL    HW220755   1.157   0.223   0.503
 6308SOL     OW20756   9.526  10.909   0.685
 6308SOL    HW120757   9.579  10.858   0.746
 6308SOL    HW220758   9.590  10.948   0.625
 6309SOL     OW20759   4.577  13.727   0.537
 6309SOL    HW120760   4.584  13.633   0.549
 6309SOL    HW220761   4.485  13.747   0.557
 6310SOL     OW20762   7.259  12.269  10.405
 6310SOL    HW120763   7.334  12.286  10.349
 6310SOL    HW220764   7.197  12.340  10.385
 6311SOL     OW20765  11.673   1.549  11.615
 6311SOL    HW120766  11.684   1.455  11.633
 6311SOL    HW220767  11.668   1.589  11.702
 6312SOL     OW20768   1.262   5.131   3.102
 6312SOL    HW120769   1.355   5.142   3.123
 6312SOL    HW220770   1.260   5.120   3.007
 6313SOL     OW20771   3.422   3.542   3.763
 6313SOL    HW120772   3.471   3.565   3.842
 6313SOL    HW220773   3.416   3.623   3.713
 6314SOL     OW20774  14.349   5.913  14.476
 6314SOL    HW120775  14.312   5.895  14.389
 6314SOL    HW220776  14.378   6.004  14.472
 6315SOL     OW20777  12.777   3.191   4.439
 6315SOL    HW120778  12.848   3.226   4.492
 6315SOL    HW220779  12.817   3.174   4.353
 6316SOL     OW20780  12.857   4.787   8.067
 6316SOL    HW120781  12.901   4.702   8.073
 6316SOL    HW220782  12.928   4.850   8.055
 6317SOL     OW20783   2.771  14.644  13.339
 6317SOL    HW120784   2.796  14.596  13.418
 6317SOL    HW220785   2.848  14.698  13.319
 6318SOL     OW20786   2.831   4.530  13.607
 6318SOL    HW120787   2.858   4.515  13.516
 6318SOL    HW220788   2.911   4.521  13.658
 6319SOL     OW20789   0.106  12.067   9.037
 6319SOL    HW120790   0.039  12.098   8.976
 6319SOL    HW220791   0.057  12.021   9.105
 6320SOL     OW20792  10.959   9.701   2.882
 6320SOL    HW120793  10.909   9.721   2.961
 6320SOL    HW220794  10.968   9.606   2.882
 6321SOL     OW20795   2.385  11.132   5.142
 6321SOL    HW120796   2.358  11.177   5.062
 6321SOL    HW220797   2.349  11.044   5.133
 6322SOL     OW20798   0.511  12.566   0.298
 6322SOL    HW120799   0.513  12.655   0.334
 6322SOL    HW220800   0.448  12.519   0.353
 6323SOL     OW20801   4.681  11.581   2.447
 6323SOL    HW120802   4.664  11.537   2.530
 6323SOL    HW220803   4.709  11.511   2.388
 6324SOL     OW20804  14.638   1.608   6.865
 6324SOL    HW120805  14.702   1.672   6.895
 6324SOL    HW220806  14.624   1.630   6.773
 6325SOL     OW20807   1.371   5.945   4.216
 6325SOL    HW120808   1.307   5.879   4.192
 6325SOL    HW220809   1.434   5.945   4.144
 6326SOL     OW20810   1.488   1.683   7.817
 6326SOL    HW120811   1.482   1.776   7.839
 6326SOL    HW220812   1.559   1.678   7.754
 6327SOL     OW20813  12.894   5.564  11.750
 6327SOL    HW120814  12.919   5.473  11.761
 6327SOL    HW220815  12.809   5.561  11.706
 6328SOL     OW20816   9.248   4.832   9.977
 6328SOL    HW120817   9.293   4.812  10.059
 6328SOL    HW220818   9.220   4.747   9.944
 6329SOL     OW20819   1.142   5.651   7.678
 6329SOL    HW120820   1.056   5.613   7.664
 6329SOL    HW220821   1.144   5.673   7.771
 6330SOL     OW20822   5.629   5.493   5.553
 6330SOL    HW120823   5.552   5.543   5.580
 6330SOL    HW220824   5.608   5.403   5.578
 6331SOL     OW20825  11.730   3.753  10.167
 6331SOL    HW120826  11.728   3.848  10.153
 6331SOL    HW220827  11.704   3.716  10.082
 6332SOL     OW20828  11.114   9.107   1.874
 6332SOL    HW120829  11.048   9.171   1.849
 6332SOL    HW220830  11.191   9.130   1.822
 6333SOL     OW20831  13.366   5.568   8.244
 6333SOL    HW120832  13.389   5.477   8.229
 6333SOL    HW220833  13.299   5.565   8.312
 6334SOL     OW20834   1.702  12.073  12.155
 6334SOL    HW120835   1.742  11.985  12.155
 6334SOL    HW220836   1.677  12.087  12.246
 6335SOL     OW20837  13.311  11.781   1.712
 6335SOL    HW120838  13.396  11.825   1.712
 6335SOL    HW220839  13.313  11.725   1.790
 6336SOL     OW20840   5.662   9.757  12.872
 6336SOL    HW120841   5.607   9.686  12.839
 6336SOL    HW220842   5.601   9.828  12.890
 6337SOL     OW20843  11.389   2.745   3.438
 6337SOL    HW120844  11.310   2.799   3.441
 6337SOL    HW220845  11.430   2.758   3.523
 6338SOL     OW20846   9.570   5.641  14.091
 6338SOL    HW120847   9.524   5.660  14.173
 6338SOL    HW220848   9.506   5.661  14.022
 6339SOL     OW20849   7.054   2.001   1.715
 6339SOL    HW120850   6.988   1.932   1.718
 6339SOL    HW220851   7.063   2.022   1.622
 6340SOL     OW20852   3.350  13.748  14.045
 6340SOL    HW120853   3.389  13.667  14.079
 6340SOL    HW220854   3.307  13.722  13.964
 6341SOL     OW20855   3.645   7.157   0.232
 6341SOL    HW120856   3.555   7.124   0.232
 6341SOL    HW220857   3.692   7.098   0.291
 6342SOL     OW20858   1.045  10.310   4.252
 6342SOL    HW120859   1.132  10.348   4.263
 6342SOL    HW220860   1.041  10.240   4.317
 6343SOL     OW20861  10.770  13.928   0.332
 6343SOL    HW120862  10.702  13.878   0.288
 6343SOL    HW220863  10.827  13.959   0.262
 6344SOL     OW20864   5.570   4.238   7.522
 6344SOL    HW120865   5.533   4.326   7.515
 6344SOL    HW220866   5.664   4.252   7.527
 6345SOL     OW20867   9.942   4.280  12.570
 6345SOL    HW120868  10.021   4.239  12.536
 6345SOL    HW220869   9.913   4.222  12.641
 6346SOL     OW20870  11.562   9.865   3.218
 6346SOL    HW120871  11.638   9.837   3.270
 6346SOL    HW220872  11.498   9.795   3.231
 6347SOL     OW20873  13.006   4.881  13.256
 6347SOL    HW120874  13.039   4.793  13.276
 6347SOL    HW220875  13.074   4.919  13.199
 6348SOL     OW20876  10.178   5.616   0.244
 6348SOL    HW120877  10.139   5.538   0.283
 6348SOL    HW220878  10.258   5.584   0.201
 6349SOL     OW20879  11.399  14.786  10.650
 6349SOL    HW120880  11.329  14.725  10.675
 6349SOL    HW220881  11.468  14.771  10.714
 6350SOL     OW20882   6.376   6.448   9.801
 6350SOL    HW120883   6.336   6.526   9.841
 6350SOL    HW220884   6.403   6.394   9.875
 6351SOL     OW20885   5.183  13.681   7.368
 6351SOL    HW120886   5.275  13.709   7.371
 6351SOL    HW220887   5.143  13.721   7.446
 6352SOL     OW20888  10.692  14.182  10.611
 6352SOL    HW120889  10.698  14.106  10.669
 6352SOL    HW220890  10.676  14.144  10.524
 6353SOL     OW20891   3.632   0.907   3.883
 6353SOL    HW120892   3.702   0.910   3.817
 6353SOL    HW220893   3.644   0.824   3.928
 6354SOL     OW20894   1.152   3.917  14.611
 6354SOL    HW120895   1.200   3.844  14.650
 6354SOL    HW220896   1.106   3.879  14.537
 6355SOL     OW20897   0.189  13.169   9.190
 6355SOL    HW120898   0.190  13.099   9.255
 6355SOL    HW220899   0.282  13.193   9.179
 6356SOL     OW20900   4.722  12.661   8.602
 6356SOL    HW120901   4.726  12.702   8.688
 6356SOL    HW220902   4.729  12.734   8.540
 6357SOL     OW20903   6.819  13.346  13.005
 6357SOL    HW120904   6.784  13.342  12.915
 6357SOL    HW220905   6.758  13.294  13.056
 6358SOL     OW20906  12.839  11.768   3.903
 6358SOL    HW120907  12.814  11.842   3.848
 6358SOL    HW220908  12.894  11.714   3.847
 6359SOL     OW20909  12.623   9.574   5.813
 6359SOL    HW120910  12.566   9.556   5.739
 6359SOL    HW220911  12.629   9.491   5.861
 6360SOL     OW20912   2.192  11.498  10.185
 6360SOL    HW120913   2.222  11.473  10.097
 6360SOL    HW220914   2.234  11.583  10.201
 6361SOL     OW20915   3.868  11.424   8.055
 6361SOL    HW120916   3.826  11.339   8.043
 6361SOL    HW220917   3.809  11.486   8.013
 6362SOL     OW20918   4.398  13.706  11.930
 6362SOL    HW120919   4.458  13.637  11.905
 6362SOL    HW220920   4.338  13.665  11.992
 6363SOL     OW20921   4.817  11.454  14.618
 6363SOL    HW120922   4.904  11.494  14.617
 6363SOL    HW220923   4.789  11.455  14.526
 6364SOL     OW20924   1.481  10.245   6.322
 6364SOL    HW120925   1.429  10.165   6.324
 6364SOL    HW220926   1.418  10.315   6.334
 6365SOL     OW20927   6.321  10.964   1.149
 6365SOL    HW120928   6.281  10.944   1.234
 6365SOL    HW220929   6.371  11.044   1.165
 6366SOL     OW20930   9.260   3.078  12.947
 6366SOL    HW120931   9.247   2.984  12.935
 6366SOL    HW220932   9.239   3.116  12.861
 6367SOL     OW20933  11.247   7.354  13.282
 6367SOL    HW120934  11.276   7.264  13.270
 6367SOL    HW220935  11.300   7.405  13.220
 6368SOL     OW20936  13.931  14.051  13.500
 6368SOL    HW120937  13.912  14.121  13.563
 6368SOL    HW220938  13.957  13.976  13.553
 6369SOL     OW20939  13.633   2.877  12.961
 6369SOL    HW120940  13.699   2.938  12.928
 6369SOL    HW220941  13.675   2.792  12.958
 6370SOL     OW20942   8.585   0.675   9.761
 6370SOL    HW120943   8.583   0.760   9.716
 6370SOL    HW220944   8.516   0.624   9.718
 6371SOL     OW20945   2.418  14.107   4.504
 6371SOL    HW120946   2.499  14.155   4.523
 6371SOL    HW220947   2.372  14.103   4.587
 6372SOL     OW20948  10.808  10.431   2.134
 6372SOL    HW120949  10.852  10.402   2.054
 6372SOL    HW220950  10.878  10.438   2.198
 6373SOL     OW20951   7.330  14.593   2.276
 6373SOL    HW120952   7.312  14.501   2.297
 6373SOL    HW220953   7.243  14.632   2.262
 6374SOL     OW20954  10.638  12.084  12.328
 6374SOL    HW120955  10.663  12.092  12.420
 6374SOL    HW220956  10.716  12.108  12.279
 6375SOL     OW20957   6.545  12.833   4.850
 6375SOL    HW120958   6.527  12.860   4.940
 6375SOL    HW220959   6.542  12.914   4.799
 6376SOL     OW20960  10.471   6.719   5.333
 6376SOL    HW120961  10.517   6.802   5.322
 6376SOL    HW220962  10.434   6.724   5.422
 6377SOL     OW20963   1.116   2.547   8.424
 6377SOL    HW120964   1.068   2.546   8.342
 6377SOL    HW220965   1.095   2.463   8.466
 6378SOL     OW20966  14.169   6.295   7.710
 6378SOL    HW120967  14.137   6.376   7.750
 6378SOL    HW220968  14.186   6.236   7.783
 6379SOL     OW20969   9.328   1.690   8.073
 6379SOL    HW120970   9.323   1.740   7.991
 6379SOL    HW220971   9.408   1.722   8.116
 6380SOL     OW20972  12.795  14.302  10.647
 6380SOL    HW120973  12.869  14.267  10.598
 6380SOL    HW220974  12.769  14.380  10.598
 6381SOL     OW20975   0.863   2.345  10.030
 6381SOL    HW120976   0.955   2.370  10.037
 6381SOL    HW220977   0.829   2.399   9.959
 6382SOL     OW20978  11.281   1.722   3.714
 6382SOL    HW120979  11.203   1.668   3.703
 6382SOL    HW220980  11.305   1.748   3.625
 6383SOL     OW20981   5.558   5.270   1.190
 6383SOL    HW120982   5.571   5.221   1.270
 6383SOL    HW220983   5.463   5.286   1.187
 6384SOL     OW20984   9.670  14.876   6.055
 6384SOL    HW120985   9.653  14.783   6.067
 6384SOL    HW220986   9.617   0.021   5.978
 6385SOL     OW20987   7.763   7.539   2.844
 6385SOL    HW120988   7.699   7.537   2.772
 6385SOL    HW220989   7.732   7.609   2.901
 6386SOL     OW20990  11.094   4.173  14.504
 6386SOL    HW120991  11.053   4.146  14.422
 6386SOL    HW220992  11.188   4.156  14.489
 6387SOL     OW20993   4.536   1.086  11.213
 6387SOL    HW120994   4.480   1.134  11.275
 6387SOL    HW220995   4.506   0.996  11.219
 6388SOL     OW20996  11.793  10.291   1.684
 6388SOL    HW120997  11.725  10.224   1.679
 6388SOL    HW220998  11.806  10.319   1.593
 6389SOL     OW20999   2.799   5.706   8.294
 6389SOL    HW121000   2.811   5.767   8.221
 6389SOL    HW221001   2.854   5.741   8.364
 6390SOL     OW21002  14.289   9.720  14.633
 6390SOL    HW121003  14.365   9.688  14.680
 6390SOL    HW221004  14.295   9.680  14.546
 6391SOL     OW21005   1.994   9.811   3.931
 6391SOL    HW121006   2.082   9.777   3.951
 6391SOL    HW221007   1.973   9.772   3.846
 6392SOL     OW21008  10.854   9.387  14.713
 6392SOL    HW121009  10.828   9.416  14.800
 6392SOL    HW221010  10.948   9.371  14.720
 6393SOL     OW21011   9.536   3.551  10.484
 6393SOL    HW121012   9.586   3.546  10.403
 6393SOL    HW221013   9.592   3.601  10.543
 6394SOL     OW21014   2.629   1.711   1.185
 6394SOL    HW121015   2.615   1.651   1.258
 6394SOL    HW221016   2.624   1.656   1.107
 6395SOL     OW21017   0.539   0.418   8.693
 6395SOL    HW121018   0.450   0.453   8.703
 6395SOL    HW221019   0.591   0.468   8.755
 6396SOL     OW21020   3.037   0.319   8.981
 6396SOL    HW121021   3.014   0.399   9.028
 6396SOL    HW221022   3.132   0.316   8.984
 6397SOL     OW21023  14.214   5.149   3.181
 6397SOL    HW121024  14.296   5.194   3.160
 6397SOL    HW221025  14.147   5.217   3.176
 6398SOL     OW21026  13.934  13.844   9.715
 6398SOL    HW121027  13.991  13.767   9.717
 6398SOL    HW221028  13.990  13.917   9.742
 6399SOL     OW21029   7.924  12.533  10.053
 6399SOL    HW121030   7.864  12.511   9.982
 6399SOL    HW221031   7.980  12.455  10.063
 6400SOL     OW21032   6.772   6.787   5.038
 6400SOL    HW121033   6.712   6.786   5.112
 6400SOL    HW221034   6.853   6.825   5.073
 6401SOL     OW21035   1.486   1.252   6.203
 6401SOL    HW121036   1.405   1.209   6.231
 6401SOL    HW221037   1.471   1.274   6.111
 6402SOL     OW21038   9.928   6.718   7.216
 6402SOL    HW121039   9.994   6.683   7.157
 6402SOL    HW221040   9.950   6.810   7.227
 6403SOL     OW21041  12.524  11.270   1.672
 6403SOL    HW121042  12.592  11.228   1.724
 6403SOL    HW221043  12.561  11.356   1.649
 6404SOL     OW21044   1.212   6.011  12.781
 6404SOL    HW121045   1.205   5.917  12.769
 6404SOL    HW221046   1.138   6.047  12.733
 6405SOL     OW21047   1.757  12.542   1.308
 6405SOL    HW121048   1.698  12.521   1.236
 6405SOL    HW221049   1.705  12.597   1.367
 6406SOL     OW21050  13.225   6.043   3.879
 6406SOL    HW121051  13.257   6.077   3.963
 6406SOL    HW221052  13.253   6.108   3.815
 6407SOL     OW21053   3.003   6.482  12.551
 6407SOL    HW121054   3.092   6.515  12.540
 6407SOL    HW221055   3.000   6.450  12.641
 6408SOL     OW21056   8.437   0.181  12.572
 6408SOL    HW121057   8.453   0.253  12.633
 6408SOL    HW221058   8.398   0.223  12.495
 6409SOL     OW21059  12.264  10.457  12.920
 6409SOL    HW121060  12.323  10.529  12.899
 6409SOL    HW221061  12.207  10.491  12.989
 6410SOL     OW21062   5.933   7.765  14.772
 6410SOL    HW121063   5.863   7.825  14.795
 6410SOL    HW221064   5.891   7.700  14.715
 6411SOL     OW21065   0.039   6.669  14.210
 6411SOL    HW121066   0.009   6.608  14.142
 6411SOL    HW221067  14.837   6.702  14.250
 6412SOL     OW21068   4.215   6.690   8.456
 6412SOL    HW121069   4.154   6.697   8.383
 6412SOL    HW221070   4.160   6.700   8.534
 6413SOL     OW21071   8.717   3.216  13.677
 6413SOL    HW121072   8.805   3.252  13.691
 6413SOL    HW221073   8.725   3.164  13.597
 6414SOL     OW21074  13.714  12.208   7.464
 6414SOL    HW121075  13.631  12.169   7.491
 6414SOL    HW221076  13.729  12.173   7.375
 6415SOL     OW21077  12.298  13.005   3.041
 6415SOL    HW121078  12.306  12.925   2.988
 6415SOL    HW221079  12.383  13.047   3.033
 6416SOL     OW21080  14.392   3.695   0.434
 6416SOL    HW121081  14.429   3.615   0.398
 6416SOL    HW221082  14.359   3.670   0.520
 6417SOL     OW21083  13.654  14.550   6.017
 6417SOL    HW121084  13.717  14.610   5.978
 6417SOL    HW221085  13.660  14.471   5.964
 6418SOL     OW21086   7.196  12.376  12.367
 6418SOL    HW121087   7.150  12.390  12.284
 6418SOL    HW221088   7.128  12.381  12.433
 6419SOL     OW21089   1.651   7.167   9.450
 6419SOL    HW121090   1.622   7.076   9.442
 6419SOL    HW221091   1.599   7.202   9.522
 6420SOL     OW21092   0.563  12.591  13.933
 6420SOL    HW121093   0.600  12.657  13.875
 6420SOL    HW221094   0.567  12.509  13.883
 6421SOL     OW21095  12.723   8.097   9.250
 6421SOL    HW121096  12.697   8.117   9.160
 6421SOL    HW221097  12.745   8.004   9.248
 6422SOL     OW21098   4.503  10.946   6.860
 6422SOL    HW121099   4.423  10.966   6.909
 6422SOL    HW221100   4.475  10.883   6.794
 6423SOL     OW21101   4.837   8.374   4.775
 6423SOL    HW121102   4.888   8.295   4.792
 6423SOL    HW221103   4.851   8.430   4.852
 6424SOL     OW21104   4.041  12.317   4.781
 6424SOL    HW121105   4.043  12.404   4.819
 6424SOL    HW221106   4.020  12.259   4.854
 6425SOL     OW21107   4.679   5.157  13.208
 6425SOL    HW121108   4.627   5.186  13.133
 6425SOL    HW221109   4.758   5.211  13.204
 6426SOL     OW21110  10.717   4.528   2.773
 6426SOL    HW121111  10.697   4.589   2.845
 6426SOL    HW221112  10.811   4.536   2.759
 6427SOL     OW21113  11.894   6.778   4.387
 6427SOL    HW121114  11.987   6.788   4.371
 6427SOL    HW221115  11.878   6.825   4.469
 6428SOL     OW21116  13.775   2.386   9.891
 6428SOL    HW121117  13.695   2.408   9.843
 6428SOL    HW221118  13.775   2.445   9.966
 6429SOL     OW21119  11.995  10.400  11.974
 6429SOL    HW121120  11.960  10.337  12.037
 6429SOL    HW221121  12.028  10.472  12.028
 6430SOL     OW21122  14.791   8.579  11.862
 6430SOL    HW121123  14.766   8.646  11.925
 6430SOL    HW221124  14.777   8.496  11.908
 6431SOL     OW21125   4.337   7.231   1.309
 6431SOL    HW121126   4.320   7.140   1.285
 6431SOL    HW221127   4.428   7.245   1.283
 6432SOL     OW21128  14.499  14.459  14.706
 6432SOL    HW121129  14.429  14.523  14.715
 6432SOL    HW221130  14.556  14.474  14.782
 6433SOL     OW21131   3.892   4.969   4.490
 6433SOL    HW121132   3.842   5.039   4.531
 6433SOL    HW221133   3.921   4.914   4.563
 6434SOL     OW21134  12.911   5.255  12.543
 6434SOL    HW121135  12.883   5.260  12.634
 6434SOL    HW221136  12.844   5.304  12.495
 6435SOL     OW21137   7.471   6.714  13.992
 6435SOL    HW121138   7.513   6.653  13.932
 6435SOL    HW221139   7.389   6.737  13.949
 6436SOL     OW21140   5.685   6.103   2.772
 6436SOL    HW121141   5.592   6.103   2.794
 6436SOL    HW221142   5.687   6.127   2.679
 6437SOL     OW21143  12.112  11.659  12.452
 6437SOL    HW121144  12.052  11.588  12.430
 6437SOL    HW221145  12.142  11.640  12.540
 6438SOL     OW21146   4.283   6.923   0.943
 6438SOL    HW121147   4.203   6.916   0.891
 6438SOL    HW221148   4.347   6.867   0.898
 6439SOL     OW21149   5.219  12.425   1.048
 6439SOL    HW121150   5.279  12.500   1.042
 6439SOL    HW221151   5.236  12.375   0.968
 6440SOL     OW21152   0.589   3.584   7.748
 6440SOL    HW121153   0.667   3.640   7.746
 6440SOL    HW221154   0.622   3.497   7.727
 6441SOL     OW21155   8.559  11.954   4.879
 6441SOL    HW121156   8.526  11.870   4.908
 6441SOL    HW221157   8.652  11.938   4.861
 6442SOL     OW21158  14.755   5.521   4.477
 6442SOL    HW121159  14.850   5.521   4.490
 6442SOL    HW221160  14.743   5.483   4.390
 6443SOL     OW21161   7.551   0.614   6.638
 6443SOL    HW121162   7.609   0.640   6.567
 6443SOL    HW221163   7.609   0.576   6.704
 6444SOL     OW21164   4.115   0.187   9.606
 6444SOL    HW121165   4.061   0.237   9.668
 6444SOL    HW221166   4.180   0.143   9.661
 6445SOL     OW21167   4.829   9.347   5.866
 6445SOL    HW121168   4.798   9.260   5.893
 6445SOL    HW221169   4.897   9.368   5.930
 6446SOL     OW21170   8.812   8.261   6.230
 6446SOL    HW121171   8.733   8.210   6.246
 6446SOL    HW221172   8.878   8.222   6.288
 6447SOL     OW21173   3.556  11.110  13.045
 6447SOL    HW121174   3.484  11.058  13.010
 6447SOL    HW221175   3.615  11.122  12.970
 6448SOL     OW21176   6.697  13.714   3.800
 6448SOL    HW121177   6.644  13.640   3.770
 6448SOL    HW221178   6.633  13.777   3.833
 6449SOL     OW21179  10.567   3.581   1.089
 6449SOL    HW121180  10.547   3.534   1.169
 6449SOL    HW221181  10.483   3.620   1.063
 6450SOL     OW21182   2.902   1.179  14.362
 6450SOL    HW121183   2.941   1.265  14.379
 6450SOL    HW221184   2.946   1.147  14.283
 6451SOL     OW21185  10.342   0.689  10.665
 6451SOL    HW121186  10.433   0.661  10.670
 6451SOL    HW221187  10.322   0.691  10.572
 6452SOL     OW21188   9.341   2.204  12.708
 6452SOL    HW121189   9.322   2.238  12.621
 6452SOL    HW221190   9.340   2.281  12.765
 6453SOL     OW21191   3.244   1.744   1.233
 6453SOL    HW121192   3.291   1.706   1.308
 6453SOL    HW221193   3.152   1.726   1.251
 6454SOL     OW21194  13.779   4.342  14.447
 6454SOL    HW121195  13.759   4.436  14.447
 6454SOL    HW221196  13.745   4.310  14.364
 6455SOL     OW21197   4.136   1.722   0.672
 6455SOL    HW121198   4.172   1.660   0.609
 6455SOL    HW221199   4.191   1.714   0.749
 6456SOL     OW21200  13.118   7.577  11.950
 6456SOL    HW121201  13.124   7.606  11.859
 6456SOL    HW221202  13.080   7.490  11.944
 6457SOL     OW21203  13.553  11.799   1.327
 6457SOL    HW121204  13.569  11.732   1.393
 6457SOL    HW221205  13.636  11.847   1.322
 6458SOL     OW21206   8.864  10.593   7.125
 6458SOL    HW121207   8.779  10.633   7.109
 6458SOL    HW221208   8.850  10.500   7.109
 6459SOL     OW21209   0.963   2.934   2.484
 6459SOL    HW121210   1.031   2.995   2.514
 6459SOL    HW221211   0.882   2.966   2.524
 6460SOL     OW21212   1.787  13.263   5.137
 6460SOL    HW121213   1.822  13.210   5.209
 6460SOL    HW221214   1.849  13.250   5.065
 6461SOL     OW21215   3.083  11.411   2.718
 6461SOL    HW121216   3.080  11.346   2.647
 6461SOL    HW221217   3.061  11.494   2.676
 6462SOL     OW21218   3.039   0.701   3.724
 6462SOL    HW121219   3.058   0.622   3.774
 6462SOL    HW221220   3.124   0.730   3.691
 6463SOL     OW21221  14.548  13.650   8.251
 6463SOL    HW121222  14.462  13.659   8.210
 6463SOL    HW221223  14.536  13.686   8.339
 6464SOL     OW21224   0.621   3.680   4.346
 6464SOL    HW121225   0.586   3.627   4.275
 6464SOL    HW221226   0.613   3.770   4.315
 6465SOL     OW21227   6.435   2.390   3.358
 6465SOL    HW121228   6.509   2.353   3.310
 6465SOL    HW221229   6.444   2.352   3.446
 6466SOL     OW21230   8.058   6.600  11.220
 6466SOL    HW121231   8.093   6.689  11.220
 6466SOL    HW221232   8.018   6.590  11.134
 6467SOL     OW21233   1.650   8.719   2.101
 6467SOL    HW121234   1.586   8.739   2.170
 6467SOL    HW221235   1.599   8.713   2.021
 6468SOL     OW21236  13.684  14.654  12.495
 6468SOL    HW121237  13.777  14.650  12.518
 6468SOL    HW221238  13.658  14.744  12.515
 6469SOL     OW21239   7.641   6.137  10.727
 6469SOL    HW121240   7.567   6.089  10.690
 6469SOL    HW221241   7.698   6.155  10.653
 6470SOL     OW21242   3.376  10.662  14.638
 6470SOL    HW121243   3.396  10.754  14.618
 6470SOL    HW221244   3.338  10.628  14.558
 6471SOL     OW21245   2.997  13.520   4.667
 6471SOL    HW121246   3.044  13.603   4.658
 6471SOL    HW221247   2.912  13.537   4.628
 6472SOL     OW21248   5.643   8.486  10.868
 6472SOL    HW121249   5.551   8.477  10.842
 6472SOL    HW221250   5.679   8.397  10.859
 6473SOL     OW21251  14.326  10.481  11.676
 6473SOL    HW121252  14.405  10.494  11.729
 6473SOL    HW221253  14.263  10.544  11.710
 6474SOL     OW21254   7.038   1.799   4.656
 6474SOL    HW121255   7.080   1.870   4.607
 6474SOL    HW221256   7.052   1.822   4.748
 6475SOL     OW21257   9.705  13.024  13.665
 6475SOL    HW121258   9.669  12.949  13.712
 6475SOL    HW221259   9.700  13.000  13.573
 6476SOL     OW21260   6.566   9.899  10.956
 6476SOL    HW121261   6.590   9.873  11.045
 6476SOL    HW221262   6.553   9.816  10.910
 6477SOL     OW21263   2.917   2.250   6.465
 6477SOL    HW121264   2.972   2.259   6.387
 6477SOL    HW221265   2.922   2.336   6.507
 6478SOL     OW21266   1.677   3.806   3.040
 6478SOL    HW121267   1.613   3.771   2.977
 6478SOL    HW221268   1.740   3.853   2.986
 6479SOL     OW21269   6.489  11.898   2.511
 6479SOL    HW121270   6.505  11.989   2.536
 6479SOL    HW221271   6.394  11.890   2.506
 6480SOL     OW21272   4.176   5.941  11.925
 6480SOL    HW121273   4.137   6.027  11.916
 6480SOL    HW221274   4.269   5.958  11.941
 6481SOL     OW21275   9.020   1.016  13.006
 6481SOL    HW121276   8.988   0.973  12.927
 6481SOL    HW221277   8.950   1.075  13.031
 6482SOL     OW21278   4.578  12.815   7.093
 6482SOL    HW121279   4.585  12.732   7.046
 6482SOL    HW221280   4.544  12.790   7.180
 6483SOL     OW21281  11.107   8.640   8.244
 6483SOL    HW121282  11.067   8.717   8.285
 6483SOL    HW221283  11.074   8.640   8.154
 6484SOL     OW21284   7.869   6.776   1.577
 6484SOL    HW121285   7.882   6.766   1.482
 6484SOL    HW221286   7.804   6.846   1.584
 6485SOL     OW21287   9.992   6.328  14.491
 6485SOL    HW121288  10.041   6.298  14.415
 6485SOL    HW221289  10.027   6.415  14.510
 6486SOL     OW21290   4.163   8.479   5.793
 6486SOL    HW121291   4.106   8.445   5.725
 6486SOL    HW221292   4.109   8.477   5.873
 6487SOL     OW21293   2.471   7.347   6.739
 6487SOL    HW121294   2.437   7.281   6.679
 6487SOL    HW221295   2.522   7.406   6.684
 6488SOL     OW21296   4.372  12.717   3.194
 6488SOL    HW121297   4.313  12.726   3.119
 6488SOL    HW221298   4.374  12.623   3.212
 6489SOL     OW21299   6.551   7.545  11.040
 6489SOL    HW121300   6.595   7.629  11.051
 6489SOL    HW221301   6.564   7.523  10.948
 6490SOL     OW21302   6.254   7.156   3.212
 6490SOL    HW121303   6.213   7.165   3.298
 6490SOL    HW221304   6.209   7.082   3.171
 6491SOL     OW21305   3.593   0.889   6.533
 6491SOL    HW121306   3.592   0.982   6.511
 6491SOL    HW221307   3.654   0.850   6.471
 6492SOL     OW21308  13.395   7.292  14.827
 6492SOL    HW121309  13.412   7.360  14.762
 6492SOL    HW221310  13.422   7.331   0.032
 6493SOL     OW21311   1.932   3.814  10.200
 6493SOL    HW121312   1.840   3.824  10.176
 6493SOL    HW221313   1.957   3.898  10.236
 6494SOL     OW21314  14.587   3.758   6.486
 6494SOL    HW121315  14.678   3.788   6.484
 6494SOL    HW221316  14.551   3.798   6.565
 6495SOL     OW21317  13.164   8.627  10.849
 6495SOL    HW121318  13.180   8.706  10.797
 6495SOL    HW221319  13.233   8.628  10.915
 6496SOL     OW21320   5.648  13.825  13.714
 6496SOL    HW121321   5.596  13.880  13.656
 6496SOL    HW221322   5.647  13.871  13.798
 6497SOL     OW21323  12.008   9.685   1.255
 6497SOL    HW121324  12.074   9.653   1.193
 6497SOL    HW221325  11.924   9.666   1.213
 6498SOL     OW21326   4.469   5.674   6.892
 6498SOL    HW121327   4.564   5.659   6.886
 6498SOL    HW221328   4.461   5.766   6.918
 6499SOL     OW21329  12.618   6.690   3.649
 6499SOL    HW121330  12.590   6.676   3.558
 6499SOL    HW221331  12.574   6.621   3.699
 6500SOL     OW21332   7.101   8.891   8.669
 6500SOL    HW121333   7.052   8.952   8.615
 6500SOL    HW221334   7.127   8.821   8.609
 6501SOL     OW21335  11.558   1.118   3.921
 6501SOL    HW121336  11.495   1.061   3.965
 6501SOL    HW221337  11.569   1.078   3.835
 6502SOL     OW21338   6.256   7.885  11.768
 6502SOL    HW121339   6.178   7.843  11.733
 6502SOL    HW221340   6.245   7.978  11.747
 6503SOL     OW21341  13.802   3.095   7.554
 6503SOL    HW121342  13.719   3.052   7.533
 6503SOL    HW221343  13.811   3.085   7.649
 6504SOL     OW21344   2.995  13.768   2.192
 6504SOL    HW121345   3.083  13.732   2.202
 6504SOL    HW221346   2.972  13.751   2.101
 6505SOL     OW21347   4.461  11.025  12.306
 6505SOL    HW121348   4.536  10.969  12.286
 6505SOL    HW221349   4.454  11.022  12.402
 6506SOL     OW21350  10.663  11.025   7.332
 6506SOL    HW121351  10.587  10.993   7.379
 6506SOL    HW221352  10.670  11.117   7.356
 6507SOL     OW21353   5.627   0.360   1.365
 6507SOL    HW121354   5.641   0.434   1.306
 6507SOL    HW221355   5.585   0.399   1.442
 6508SOL     OW21356   6.814   3.233   5.955
 6508SOL    HW121357   6.847   3.212   5.867
 6508SOL    HW221358   6.799   3.327   5.954
 6509SOL     OW21359   5.935   6.519   3.406
 6509SOL    HW121360   5.904   6.431   3.387
 6509SOL    HW221361   5.987   6.509   3.486
 6510SOL     OW21362   8.693   3.836   7.448
 6510SOL    HW121363   8.605   3.830   7.412
 6510SOL    HW221364   8.749   3.850   7.371
 6511SOL     OW21365   9.509   0.905   3.709
 6511SOL    HW121366   9.491   0.999   3.708
 6511SOL    HW221367   9.492   0.876   3.619
 6512SOL     OW21368  14.575  11.913   1.082
 6512SOL    HW121369  14.646  11.944   1.026
 6512SOL    HW221370  14.619  11.861   1.150
 6513SOL     OW21371   2.440   9.362  12.363
 6513SOL    HW121372   2.389   9.343  12.284
 6513SOL    HW221373   2.385   9.331  12.435
 6514SOL     OW21374   8.733  14.477   0.997
 6514SOL    HW121375   8.677  14.497   1.072
 6514SOL    HW221376   8.675  14.482   0.921
 6515SOL     OW21377   4.212   2.246  12.741
 6515SOL    HW121378   4.250   2.318  12.691
 6515SOL    HW221379   4.214   2.171  12.681
 6516SOL     OW21380   8.677   9.588   3.322
 6516SOL    HW121381   8.701   9.525   3.390
 6516SOL    HW221382   8.625   9.538   3.259
 6517SOL     OW21383   1.002   6.272   4.601
 6517SOL    HW121384   0.909   6.255   4.619
 6517SOL    HW221385   1.004   6.296   4.508
 6518SOL     OW21386   0.710   6.467   6.103
 6518SOL    HW121387   0.683   6.407   6.173
 6518SOL    HW221388   0.692   6.554   6.138
 6519SOL     OW21389   1.008  13.121  14.082
 6519SOL    HW121390   1.101  13.096  14.081
 6519SOL    HW221391   1.008  13.213  14.054
 6520SOL     OW21392   0.443   3.353   8.450
 6520SOL    HW121393   0.365   3.362   8.506
 6520SOL    HW221394   0.451   3.259   8.435
 6521SOL     OW21395   7.741  13.449   5.922
 6521SOL    HW121396   7.733  13.491   5.836
 6521SOL    HW221397   7.688  13.370   5.915
 6522SOL     OW21398   6.351   1.868  11.150
 6522SOL    HW121399   6.446   1.868  11.164
 6522SOL    HW221400   6.327   1.776  11.148
 6523SOL     OW21401   0.842   8.648   9.784
 6523SOL    HW121402   0.875   8.675   9.698
 6523SOL    HW221403   0.747   8.659   9.777
 6524SOL     OW21404  14.564   3.934   9.738
 6524SOL    HW121405  14.557   3.956   9.831
 6524SOL    HW221406  14.479   3.896   9.716
 6525SOL     OW21407   7.653   3.390   1.047
 6525SOL    HW121408   7.566   3.359   1.070
 6525SOL    HW221409   7.661   3.475   1.091
 6526SOL     OW21410   0.739   9.901   1.737
 6526SOL    HW121411   0.719   9.810   1.759
 6526SOL    HW221412   0.680   9.953   1.791
 6527SOL     OW21413   0.428   7.131   1.536
 6527SOL    HW121414   0.349   7.144   1.589
 6527SOL    HW221415   0.493   7.189   1.576
 6528SOL     OW21416   5.314   6.915  14.452
 6528SOL    HW121417   5.308   7.000  14.408
 6528SOL    HW221418   5.270   6.854  14.393
 6529SOL     OW21419   9.615   7.785  13.528
 6529SOL    HW121420   9.707   7.759  13.522
 6529SOL    HW221421   9.614   7.878  13.505
 6530SOL     OW21422   4.447  13.188   3.019
 6530SOL    HW121423   4.387  13.212   2.949
 6530SOL    HW221424   4.478  13.101   2.996
 6531SOL     OW21425   8.613   6.110  14.433
 6531SOL    HW121426   8.542   6.109  14.497
 6531SOL    HW221427   8.569   6.127  14.349
 6532SOL     OW21428   4.343   2.859   5.780
 6532SOL    HW121429   4.332   2.951   5.757
 6532SOL    HW221430   4.304   2.812   5.707
 6533SOL     OW21431  14.241   9.689   3.803
 6533SOL    HW121432  14.223   9.782   3.789
 6533SOL    HW221433  14.155   9.647   3.793
 6534SOL     OW21434   1.593  11.943  11.202
 6534SOL    HW121435   1.564  11.923  11.291
 6534SOL    HW221436   1.521  11.994  11.164
 6535SOL     OW21437   8.987   2.060   6.917
 6535SOL    HW121438   8.972   2.136   6.973
 6535SOL    HW221439   8.900   2.037   6.884
 6536SOL     OW21440   8.586   3.320   4.580
 6536SOL    HW121441   8.524   3.331   4.508
 6536SOL    HW221442   8.542   3.359   4.655
 6537SOL     OW21443  12.088   1.689   8.553
 6537SOL    HW121444  12.131   1.693   8.639
 6537SOL    HW221445  12.003   1.649   8.570
 6538SOL     OW21446   1.753   5.084   4.447
 6538SOL    HW121447   1.792   5.010   4.495
 6538SOL    HW221448   1.760   5.058   4.355
 6539SOL     OW21449   7.052  12.682   4.571
 6539SOL    HW121450   7.017  12.756   4.621
 6539SOL    HW221451   6.977  12.651   4.520
 6540SOL     OW21452   3.170  11.174  11.228
 6540SOL    HW121453   3.265  11.167  11.242
 6540SOL    HW221454   3.137  11.208  11.312
 6541SOL     OW21455  11.208   1.383  13.460
 6541SOL    HW121456  11.228   1.413  13.549
 6541SOL    HW221457  11.132   1.326  13.471
 6542SOL     OW21458   8.599  11.606  14.001
 6542SOL    HW121459   8.525  11.658  14.034
 6542SOL    HW221460   8.654  11.670  13.955
 6543SOL     OW21461   8.857   0.588   3.689
 6543SOL    HW121462   8.920   0.660   3.680
 6543SOL    HW221463   8.798   0.599   3.614
 6544SOL     OW21464  13.063  11.712   6.632
 6544SOL    HW121465  13.045  11.792   6.682
 6544SOL    HW221466  13.029  11.730   6.545
 6545SOL     OW21467  12.597   3.141   4.928
 6545SOL    HW121468  12.622   3.081   4.998
 6545SOL    HW221469  12.679   3.185   4.903
 6546SOL     OW21470  12.825   4.787   2.762
 6546SOL    HW121471  12.735   4.789   2.792
 6546SOL    HW221472  12.860   4.873   2.784
 6547SOL     OW21473   2.275   2.152   1.137
 6547SOL    HW121474   2.224   2.194   1.206
 6547SOL    HW221475   2.345   2.106   1.183
 6548SOL     OW21476  14.113  13.419  10.616
 6548SOL    HW121477  14.039  13.415  10.556
 6548SOL    HW221478  14.190  13.417  10.559
 6549SOL     OW21479   5.307   9.094   3.637
 6549SOL    HW121480   5.245   9.027   3.606
 6549SOL    HW221481   5.264   9.133   3.713
 6550SOL     OW21482  13.261   4.052  10.560
 6550SOL    HW121483  13.251   4.116  10.631
 6550SOL    HW221484  13.355   4.049  10.543
 6551SOL     OW21485  14.311  12.574  11.290
 6551SOL    HW121486  14.254  12.639  11.250
 6551SOL    HW221487  14.393  12.620  11.307
 6552SOL     OW21488  10.271  10.618   1.175
 6552SOL    HW121489  10.264  10.640   1.268
 6552SOL    HW221490  10.363  10.634   1.153
 6553SOL     OW21491   5.035   8.941   0.054
 6553SOL    HW121492   5.125   8.972   0.041
 6553SOL    HW221493   5.028   8.863  14.877
 6554SOL     OW21494   6.345   3.640   2.804
 6554SOL    HW121495   6.288   3.586   2.858
 6554SOL    HW221496   6.415   3.581   2.776
 6555SOL     OW21497  10.788  14.554   3.946
 6555SOL    HW121498  10.866  14.557   4.001
 6555SOL    HW221499  10.765  14.646   3.931
 6556SOL     OW21500   9.028   7.882   2.391
 6556SOL    HW121501   9.038   7.851   2.481
 6556SOL    HW221502   8.955   7.943   2.395
 6557SOL     OW21503   7.060   4.528   6.393
 6557SOL    HW121504   7.124   4.593   6.423
 6557SOL    HW221505   6.981   4.546   6.445
 6558SOL     OW21506   1.167   5.039  11.044
 6558SOL    HW121507   1.196   4.954  11.075
 6558SOL    HW221508   1.233   5.100  11.077
 6559SOL     OW21509   5.223  10.761   7.598
 6559SOL    HW121510   5.282  10.834   7.583
 6559SOL    HW221511   5.280  10.688   7.623
 6560SOL     OW21512   4.937  13.389  12.510
 6560SOL    HW121513   5.007  13.446  12.539
 6560SOL    HW221514   4.952  13.378  12.416
 6561SOL     OW21515  10.333  11.982  10.250
 6561SOL    HW121516  10.297  12.005  10.336
 6561SOL    HW221517  10.292  12.044  10.189
 6562SOL     OW21518   0.360   7.368   4.998
 6562SOL    HW121519   0.276   7.384   4.954
 6562SOL    HW221520   0.337   7.353   5.089
 6563SOL     OW21521   0.686   3.670   8.619
 6563SOL    HW121522   0.744   3.684   8.545
 6563SOL    HW221523   0.668   3.576   8.618
 6564SOL     OW21524   0.570   5.846   3.616
 6564SOL    HW121525   0.645   5.787   3.626
 6564SOL    HW221526   0.533   5.823   3.531
 6565SOL     OW21527   4.903  14.731  13.646
 6565SOL    HW121528   4.938  14.730  13.557
 6565SOL    HW221529   4.860  14.646  13.656
 6566SOL     OW21530   7.719   8.570   4.400
 6566SOL    HW121531   7.681   8.483   4.398
 6566SOL    HW221532   7.648   8.628   4.371
 6567SOL     OW21533   4.965  14.500   2.798
 6567SOL    HW121534   4.992  14.409   2.784
 6567SOL    HW221535   5.047  14.548   2.805
 6568SOL     OW21536  10.711  10.588   0.955
 6568SOL    HW121537  10.708  10.616   0.864
 6568SOL    HW221538  10.802  10.604   0.982
 6569SOL     OW21539   7.345   4.301   2.603
 6569SOL    HW121540   7.331   4.391   2.573
 6569SOL    HW221541   7.314   4.246   2.531
 6570SOL     OW21542  14.638   2.576   4.793
 6570SOL    HW121543  14.560   2.560   4.739
 6570SOL    HW221544  14.683   2.492   4.794
 6571SOL     OW21545   2.427  14.215   7.706
 6571SOL    HW121546   2.394  14.194   7.619
 6571SOL    HW221547   2.389  14.148   7.763
 6572SOL     OW21548  13.960   1.126  12.615
 6572SOL    HW121549  13.969   1.221  12.601
 6572SOL    HW221550  14.013   1.108  12.692
 6573SOL     OW21551   7.736   7.885   0.969
 6573SOL    HW121552   7.717   7.976   0.991
 6573SOL    HW221553   7.709   7.836   1.047
 6574SOL     OW21554  11.011  14.035  14.389
 6574SOL    HW121555  10.948  14.048  14.460
 6574SOL    HW221556  10.992  13.946  14.358
 6575SOL     OW21557  14.667  13.179   1.731
 6575SOL    HW121558  14.620  13.172   1.648
 6575SOL    HW221559  14.752  13.140   1.714
 6576SOL     OW21560   2.986   3.251  11.647
 6576SOL    HW121561   3.048   3.304  11.698
 6576SOL    HW221562   3.040   3.206  11.582
 6577SOL     OW21563   2.683  13.865   8.950
 6577SOL    HW121564   2.725  13.864   9.037
 6577SOL    HW221565   2.751  13.899   8.892
 6578SOL     OW21566   7.182   0.870   5.266
 6578SOL    HW121567   7.100   0.919   5.260
 6578SOL    HW221568   7.168   0.792   5.212
 6579SOL     OW21569   0.931   4.143   0.580
 6579SOL    HW121570   0.982   4.197   0.519
 6579SOL    HW221571   0.843   4.178   0.576
 6580SOL     OW21572   3.941   4.930   9.982
 6580SOL    HW121573   3.868   4.992   9.988
 6580SOL    HW221574   4.019   4.984   9.995
 6581SOL     OW21575   0.330   4.848   2.002
 6581SOL    HW121576   0.289   4.934   1.987
 6581SOL    HW221577   0.314   4.830   2.095
 6582SOL     OW21578   7.926   6.808  11.995
 6582SOL    HW121579   7.972   6.732  12.031
 6582SOL    HW221580   7.851   6.770  11.949
 6583SOL     OW21581  11.259   6.782   3.414
 6583SOL    HW121582  11.219   6.715   3.359
 6583SOL    HW221583  11.260   6.743   3.502
 6584SOL     OW21584   1.791  11.408   6.270
 6584SOL    HW121585   1.702  11.374   6.268
 6584SOL    HW221586   1.824  11.394   6.182
 6585SOL     OW21587   4.251  13.379   6.685
 6585SOL    HW121588   4.249  13.348   6.595
 6585SOL    HW221589   4.251  13.298   6.738
 6586SOL     OW21590  11.933  13.826   9.197
 6586SOL    HW121591  11.840  13.836   9.217
 6586SOL    HW221592  11.954  13.736   9.224
 6587SOL     OW21593  10.018   0.601   0.927
 6587SOL    HW121594  10.047   0.533   0.987
 6587SOL    HW221595   9.985   0.554   0.850
 6588SOL     OW21596   2.422   6.983   0.913
 6588SOL    HW121597   2.460   7.067   0.941
 6588SOL    HW221598   2.490   6.919   0.932
 6589SOL     OW21599  14.175  13.707  12.425
 6589SOL    HW121600  14.080  13.722  12.421
 6589SOL    HW221601  14.213  13.790  12.394
 6590SOL     OW21602   0.533   5.411   2.822
 6590SOL    HW121603   0.620   5.445   2.799
 6590SOL    HW221604   0.523   5.332   2.769
 6591SOL     OW21605  10.568   1.005  11.958
 6591SOL    HW121606  10.523   1.074  11.909
 6591SOL    HW221607  10.580   0.935  11.894
 6592SOL     OW21608   5.416  13.356   8.526
 6592SOL    HW121609   5.444  13.442   8.495
 6592SOL    HW221610   5.406  13.303   8.447
 6593SOL     OW21611  12.940   7.805   7.300
 6593SOL    HW121612  12.859   7.856   7.299
 6593SOL    HW221613  12.956   7.783   7.209
 6594SOL     OW21614   5.757   2.717   6.562
 6594SOL    HW121615   5.820   2.645   6.563
 6594SOL    HW221616   5.807   2.792   6.529
 6595SOL     OW21617   8.821   6.807   6.613
 6595SOL    HW121618   8.886   6.839   6.675
 6595SOL    HW221619   8.857   6.725   6.580
 6596SOL     OW21620   0.661   7.080   2.848
 6596SOL    HW121621   0.588   7.059   2.906
 6596SOL    HW221622   0.739   7.073   2.903
 6597SOL     OW21623   1.389   4.853   3.864
 6597SOL    HW121624   1.393   4.904   3.783
 6597SOL    HW221625   1.298   4.822   3.868
 6598SOL     OW21626   1.631   7.145  12.427
 6598SOL    HW121627   1.604   7.214  12.487
 6598SOL    HW221628   1.569   7.074  12.443
 6599SOL     OW21629  13.040  11.042   9.799
 6599SOL    HW121630  13.020  10.981   9.728
 6599SOL    HW221631  12.967  11.103   9.799
 6600SOL     OW21632  10.718  13.514   9.536
 6600SOL    HW121633  10.729  13.544   9.446
 6600SOL    HW221634  10.638  13.558   9.566
 6601SOL     OW21635   9.751   1.664   7.933
 6601SOL    HW121636   9.706   1.644   7.850
 6601SOL    HW221637   9.841   1.680   7.907
 6602SOL     OW21638   4.928  12.381  10.312
 6602SOL    HW121639   4.947  12.288  10.298
 6602SOL    HW221640   4.896  12.411  10.228
 6603SOL     OW21641   2.764   8.599  12.899
 6603SOL    HW121642   2.784   8.686  12.933
 6603SOL    HW221643   2.671   8.587  12.916
 6604SOL     OW21644  13.367  10.004   5.440
 6604SOL    HW121645  13.450   9.959   5.423
 6604SOL    HW221646  13.300   9.937   5.427
 6605SOL     OW21647  10.102  10.783  13.124
 6605SOL    HW121648  10.194  10.801  13.145
 6605SOL    HW221649  10.105  10.709  13.064
 6606SOL     OW21650   6.615  13.488   1.064
 6606SOL    HW121651   6.620  13.556   0.997
 6606SOL    HW221652   6.702  13.489   1.105
 6607SOL     OW21653   8.130  14.349   1.657
 6607SOL    HW121654   8.091  14.263   1.641
 6607SOL    HW221655   8.111  14.399   1.578
 6608SOL     OW21656  11.820   9.845   6.166
 6608SOL    HW121657  11.808   9.829   6.260
 6608SOL    HW221658  11.909   9.817   6.148
 6609SOL     OW21659  12.278   3.807   3.931
 6609SOL    HW121660  12.373   3.791   3.923
 6609SOL    HW221661  12.267   3.898   3.903
 6610SOL     OW21662  10.166   8.191   4.354
 6610SOL    HW121663  10.169   8.247   4.431
 6610SOL    HW221664  10.073   8.182   4.333
 6611SOL     OW21665   7.223   9.657   5.565
 6611SOL    HW121666   7.251   9.645   5.656
 6611SOL    HW221667   7.181   9.742   5.564
 6612SOL     OW21668   9.550   0.154   5.110
 6612SOL    HW121669   9.496   0.224   5.146
 6612SOL    HW221670   9.602   0.196   5.042
 6613SOL     OW21671   4.930  14.833  10.386
 6613SOL    HW121672   4.863  14.836  10.318
 6613SOL    HW221673   4.907   0.026  10.446
 6614SOL     OW21674  10.449   0.377   6.249
 6614SOL    HW121675  10.356   0.358   6.262
 6614SOL    HW221676  10.494   0.325   6.315
 6615SOL     OW21677   4.822  11.453   8.959
 6615SOL    HW121678   4.759  11.523   8.941
 6615SOL    HW221679   4.893  11.468   8.897
 6616SOL     OW21680   3.736   7.656   5.720
 6616SOL    HW121681   3.762   7.620   5.635
 6616SOL    HW221682   3.741   7.751   5.709
 6617SOL     OW21683   6.914  11.146   1.598
 6617SOL    HW121684   6.845  11.181   1.654
 6617SOL    HW221685   6.989  11.204   1.614
 6618SOL     OW21686   1.202   4.468   1.333
 6618SOL    HW121687   1.114   4.466   1.295
 6618SOL    HW221688   1.236   4.380   1.318
 6619SOL     OW21689   5.150   1.663  14.146
 6619SOL    HW121690   5.129   1.750  14.178
 6619SOL    HW221691   5.114   1.604  14.213
 6620SOL     OW21692   1.792  11.622   4.671
 6620SOL    HW121693   1.779  11.716   4.663
 6620SOL    HW221694   1.708  11.583   4.647
 6621SOL     OW21695   9.194   1.451   2.178
 6621SOL    HW121696   9.155   1.489   2.099
 6621SOL    HW221697   9.193   1.522   2.242
 6622SOL     OW21698   5.877  12.441   4.655
 6622SOL    HW121699   5.926  12.447   4.573
 6622SOL    HW221700   5.910  12.513   4.708
 6623SOL     OW21701  13.380   2.938  12.060
 6623SOL    HW121702  13.448   3.005  12.062
 6623SOL    HW221703  13.393   2.887  12.140
 6624SOL     OW21704   3.603  13.925  14.587
 6624SOL    HW121705   3.677  13.942  14.646
 6624SOL    HW221706   3.605  13.997  14.524
 6625SOL     OW21707   5.597   2.389   0.186
 6625SOL    HW121708   5.660   2.443   0.139
 6625SOL    HW221709   5.594   2.307   0.136
 6626SOL     OW21710   8.193  10.455   9.390
 6626SOL    HW121711   8.234  10.528   9.438
 6626SOL    HW221712   8.107  10.489   9.366
 6627SOL     OW21713   9.658   5.958   5.151
 6627SOL    HW121714   9.695   5.872   5.171
 6627SOL    HW221715   9.671   5.968   5.056
 6628SOL     OW21716   3.722   7.825   8.827
 6628SOL    HW121717   3.780   7.898   8.851
 6628SOL    HW221718   3.756   7.751   8.877
 6629SOL     OW21719   9.845   0.627  14.663
 6629SOL    HW121720   9.904   0.602  14.734
 6629SOL    HW221721   9.901   0.632  14.586
 6630SOL     OW21722   3.397   2.145   8.877
 6630SOL    HW121723   3.463   2.182   8.935
 6630SOL    HW221724   3.436   2.148   8.790
 6631SOL     OW21725   2.647   1.883   4.189
 6631SOL    HW121726   2.664   1.971   4.221
 6631SOL    HW221727   2.628   1.894   4.096
 6632SOL     OW21728   3.818   9.489  12.260
 6632SOL    HW121729   3.862   9.573  12.243
 6632SOL    HW221730   3.729   9.501  12.226
 6633SOL     OW21731   7.607   2.135  11.379
 6633SOL    HW121732   7.570   2.166  11.296
 6633SOL    HW221733   7.692   2.098  11.354
 6634SOL     OW21734   9.691  13.123   4.037
 6634SOL    HW121735   9.597  13.120   4.021
 6634SOL    HW221736   9.703  13.193   4.101
 6635SOL     OW21737   4.011   2.994   4.168
 6635SOL    HW121738   3.928   2.965   4.205
 6635SOL    HW221739   3.993   3.081   4.132
 6636SOL     OW21740  13.815   6.718   2.761
 6636SOL    HW121741  13.893   6.714   2.815
 6636SOL    HW221742  13.844   6.695   2.673
 6637SOL     OW21743   6.286   2.623   8.691
 6637SOL    HW121744   6.254   2.710   8.667
 6637SOL    HW221745   6.261   2.567   8.618
 6638SOL     OW21746  10.744  11.789   3.618
 6638SOL    HW121747  10.780  11.845   3.686
 6638SOL    HW221748  10.818  11.770   3.561
 6639SOL     OW21749   2.178   7.998   7.199
 6639SOL    HW121750   2.166   7.959   7.285
 6639SOL    HW221751   2.190   8.091   7.216
 6640SOL     OW21752   6.126  14.476   3.731
 6640SOL    HW121753   6.070  14.500   3.658
 6640SOL    HW221754   6.164  14.559   3.761
 6641SOL     OW21755  10.622   7.462  13.207
 6641SOL    HW121756  10.662   7.533  13.156
 6641SOL    HW221757  10.654   7.382  13.166
 6642SOL     OW21758  11.677   2.333   0.916
 6642SOL    HW121759  11.640   2.245   0.908
 6642SOL    HW221760  11.754   2.322   0.971
 6643SOL     OW21761   0.030   9.911   9.996
 6643SOL    HW121762   0.087   9.913   9.919
 6643SOL    HW221763   0.085   9.944  10.067
 6644SOL     OW21764   2.040   5.528  13.792
 6644SOL    HW121765   2.022   5.584  13.867
 6644SOL    HW221766   2.130   5.550  13.767
 6645SOL     OW21767   6.836  14.156  14.789
 6645SOL    HW121768   6.834  14.088  14.856
 6645SOL    HW221769   6.744  14.172  14.768
 6646SOL     OW21770   4.972   3.092   6.174
 6646SOL    HW121771   4.986   3.092   6.079
 6646SOL    HW221772   4.984   3.000   6.200
 6647SOL     OW21773   5.732   2.892  12.513
 6647SOL    HW121774   5.699   2.980  12.493
 6647SOL    HW221775   5.757   2.855  12.428
 6648SOL     OW21776   1.696   0.258   5.477
 6648SOL    HW121777   1.638   0.186   5.452
 6648SOL    HW221778   1.648   0.337   5.453
 6649SOL     OW21779   1.546   1.560   9.446
 6649SOL    HW121780   1.455   1.538   9.469
 6649SOL    HW221781   1.597   1.486   9.479
 6650SOL     OW21782   6.351  11.796   1.192
 6650SOL    HW121783   6.386  11.821   1.106
 6650SOL    HW221784   6.256  11.802   1.181
 6651SOL     OW21785   2.876  11.353  10.193
 6651SOL    HW121786   2.921  11.313  10.267
 6651SOL    HW221787   2.936  11.422  10.163
 6652SOL     OW21788   7.045   1.959  12.075
 6652SOL    HW121789   7.031   1.898  12.003
 6652SOL    HW221790   7.098   2.029  12.038
 6653SOL     OW21791  12.954   9.707   8.712
 6653SOL    HW121792  13.003   9.772   8.661
 6653SOL    HW221793  12.864   9.739   8.709
 6654SOL     OW21794   9.389   8.430   3.635
 6654SOL    HW121795   9.481   8.435   3.608
 6654SOL    HW221796   9.382   8.345   3.678
 6655SOL     OW21797   3.108   6.052   5.973
 6655SOL    HW121798   3.198   6.076   5.955
 6655SOL    HW221799   3.114   5.969   6.019
 6656SOL     OW21800   1.291  12.041  11.977
 6656SOL    HW121801   1.372  12.089  11.964
 6656SOL    HW221802   1.319  11.950  11.992
 6657SOL     OW21803   6.819   1.781  13.977
 6657SOL    HW121804   6.807   1.713  13.910
 6657SOL    HW221805   6.736   1.780  14.026
 6658SOL     OW21806  10.013   6.504   6.807
 6658SOL    HW121807  10.059   6.525   6.889
 6658SOL    HW221808   9.922   6.532   6.823
 6659SOL     OW21809  12.703  12.385   9.711
 6659SOL    HW121810  12.713  12.342   9.626
 6659SOL    HW221811  12.755  12.331   9.771
 6660SOL     OW21812   0.400   8.147  12.316
 6660SOL    HW121813   0.407   8.200  12.395
 6660SOL    HW221814   0.308   8.122  12.311
 6661SOL     OW21815   8.507  10.111  13.366
 6661SOL    HW121816   8.539  10.021  13.373
 6661SOL    HW221817   8.466  10.128  13.451
 6662SOL     OW21818   0.078   1.032  11.039
 6662SOL    HW121819   0.014   1.093  11.000
 6662SOL    HW221820   0.147   1.088  11.074
 6663SOL     OW21821  11.562   9.842  13.934
 6663SOL    HW121822  11.479   9.838  13.982
 6663SOL    HW221823  11.616   9.774  13.975
 6664SOL     OW21824   0.226  14.378   3.875
 6664SOL    HW121825   0.292  14.382   3.945
 6664SOL    HW221826   0.181  14.462   3.881
 6665SOL     OW21827  11.114   7.099   9.767
 6665SOL    HW121828  11.132   7.005   9.766
 6665SOL    HW221829  11.023   7.107   9.740
 6666SOL     OW21830   4.810   6.259  10.290
 6666SOL    HW121831   4.801   6.273  10.384
 6666SOL    HW221832   4.824   6.165  10.281
 6667SOL     OW21833  10.799   9.658   6.796
 6667SOL    HW121834  10.751   9.609   6.862
 6667SOL    HW221835  10.806   9.598   6.722
 6668SOL     OW21836   2.455   1.764   5.463
 6668SOL    HW121837   2.487   1.745   5.375
 6668SOL    HW221838   2.360   1.768   5.454
 6669SOL     OW21839   4.451   3.758  14.525
 6669SOL    HW121840   4.497   3.795  14.601
 6669SOL    HW221841   4.396   3.830  14.493
 6670SOL     OW21842   9.816   4.585  10.253
 6670SOL    HW121843   9.791   4.674  10.226
 6670SOL    HW221844   9.788   4.579  10.344
 6671SOL     OW21845  14.232   9.535  14.855
 6671SOL    HW121846  14.233   9.460  14.796
 6671SOL    HW221847  14.216   9.610  14.798
 6672SOL     OW21848   2.678   4.652  13.209
 6672SOL    HW121849   2.646   4.562  13.206
 6672SOL    HW221850   2.773   4.643  13.216
 6673SOL     OW21851   2.270   7.650  14.107
 6673SOL    HW121852   2.257   7.730  14.157
 6673SOL    HW221853   2.198   7.593  14.134
 6674SOL     OW21854   3.172   2.753   9.013
 6674SOL    HW121855   3.104   2.694   8.982
 6674SOL    HW221856   3.188   2.812   8.940
 6675SOL     OW21857   8.698   7.792   3.473
 6675SOL    HW121858   8.609   7.804   3.508
 6675SOL    HW221859   8.709   7.697   3.467
 6676SOL     OW21860   9.701   2.130  13.555
 6676SOL    HW121861   9.732   2.159  13.469
 6676SOL    HW221862   9.779   2.102  13.601
 6677SOL     OW21863   5.017   6.225  13.674
 6677SOL    HW121864   5.022   6.199  13.766
 6677SOL    HW221865   5.004   6.143  13.627
 6678SOL     OW21866  10.121   6.902   1.471
 6678SOL    HW121867  10.087   6.991   1.478
 6678SOL    HW221868  10.212   6.913   1.444
 6679SOL     OW21869  13.409   2.082  12.619
 6679SOL    HW121870  13.431   2.096  12.711
 6679SOL    HW221871  13.366   2.163  12.592
 6680SOL     OW21872   2.390   0.655  13.689
 6680SOL    HW121873   2.388   0.636  13.595
 6680SOL    HW221874   2.309   0.703  13.704
 6681SOL     OW21875   3.680   6.394   9.704
 6681SOL    HW121876   3.713   6.475   9.742
 6681SOL    HW221877   3.721   6.389   9.618
 6682SOL     OW21878  12.900   3.178   9.742
 6682SOL    HW121879  12.806   3.193   9.753
 6682SOL    HW221880  12.921   3.109   9.805
 6683SOL     OW21881   6.292   6.650   3.664
 6683SOL    HW121882   6.224   6.716   3.650
 6683SOL    HW221883   6.243   6.570   3.682
 6684SOL     OW21884   6.998   4.174  10.221
 6684SOL    HW121885   7.076   4.207  10.266
 6684SOL    HW221886   6.984   4.087  10.258
 6685SOL     OW21887   7.188   3.707   7.874
 6685SOL    HW121888   7.268   3.653   7.872
 6685SOL    HW221889   7.124   3.652   7.919
 6686SOL     OW21890   5.998   8.534   0.397
 6686SOL    HW121891   6.093   8.538   0.389
 6686SOL    HW221892   5.973   8.460   0.342
 6687SOL     OW21893   4.389  14.875   8.253
 6687SOL    HW121894   4.342   0.018   8.173
 6687SOL    HW221895   4.373   0.071   8.311
 6688SOL     OW21896   7.411   2.006  13.501
 6688SOL    HW121897   7.471   2.059  13.553
 6688SOL    HW221898   7.464   1.975  13.428
 6689SOL     OW21899   2.952  11.857   8.656
 6689SOL    HW121900   2.940  11.945   8.621
 6689SOL    HW221901   3.042  11.856   8.689
 6690SOL     OW21902   8.898   7.711   5.605
 6690SOL    HW121903   8.878   7.664   5.525
 6690SOL    HW221904   8.823   7.769   5.619
 6691SOL     OW21905   5.927   6.161  14.728
 6691SOL    HW121906   5.961   6.241  14.688
 6691SOL    HW221907   5.840   6.185  14.759
 6692SOL     OW21908   5.895   2.171  11.380
 6692SOL    HW121909   5.934   2.150  11.295
 6692SOL    HW221910   5.946   2.120  11.443
 6693SOL     OW21911   2.192   8.200  13.568
 6693SOL    HW121912   2.262   8.199  13.633
 6693SOL    HW221913   2.139   8.122  13.587
 6694SOL     OW21914  10.001  10.116   2.341
 6694SOL    HW121915  10.087  10.109   2.298
 6694SOL    HW221916   9.949  10.169   2.280
 6695SOL     OW21917  12.382  11.867  10.170
 6695SOL    HW121918  12.437  11.814  10.227
 6695SOL    HW221919  12.344  11.933  10.228
 6696SOL     OW21920   6.840   1.831  10.449
 6696SOL    HW121921   6.929   1.850  10.420
 6696SOL    HW221922   6.785   1.886  10.393
 6697SOL     OW21923  12.589  11.594  11.995
 6697SOL    HW121924  12.619  11.583  11.905
 6697SOL    HW221925  12.609  11.510  12.037
 6698SOL     OW21926   9.842   2.613  10.965
 6698SOL    HW121927   9.870   2.622  10.873
 6698SOL    HW221928   9.916   2.647  11.015
 6699SOL     OW21929   6.417   1.821   1.769
 6699SOL    HW121930   6.389   1.735   1.735
 6699SOL    HW221931   6.362   1.836   1.845
 6700SOL     OW21932   4.819   4.544   0.175
 6700SOL    HW121933   4.812   4.536   0.270
 6700SOL    HW221934   4.738   4.505   0.142
 6701SOL     OW21935   1.513  10.198   7.078
 6701SOL    HW121936   1.520  10.177   7.172
 6701SOL    HW221937   1.419  10.212   7.064
 6702SOL     OW21938   3.288   3.350  14.747
 6702SOL    HW121939   3.379   3.325  14.734
 6702SOL    HW221940   3.239   3.294  14.686
 6703SOL     OW21941   4.181  13.390  13.975
 6703SOL    HW121942   4.136  13.344  13.904
 6703SOL    HW221943   4.274  13.371  13.961
 6704SOL     OW21944  11.744   2.672  13.624
 6704SOL    HW121945  11.837   2.674  13.648
 6704SOL    HW221946  11.742   2.621  13.543
 6705SOL     OW21947   6.571   7.314   0.116
 6705SOL    HW121948   6.617   7.329   0.198
 6705SOL    HW221949   6.531   7.398   0.095
 6706SOL     OW21950   6.183   5.881   9.664
 6706SOL    HW121951   6.175   5.787   9.648
 6706SOL    HW221952   6.187   5.920   9.576
 6707SOL     OW21953   3.121   9.073   4.950
 6707SOL    HW121954   3.072   9.154   4.935
 6707SOL    HW221955   3.178   9.065   4.874
 6708SOL     OW21956   6.861  10.430   2.331
 6708SOL    HW121957   6.848  10.480   2.411
 6708SOL    HW221958   6.891  10.494   2.267
 6709SOL     OW21959   5.993  11.384  14.725
 6709SOL    HW121960   6.004  11.292  14.747
 6709SOL    HW221961   6.082  11.416  14.710
 6710SOL     OW21962   2.066   2.480   5.411
 6710SOL    HW121963   1.993   2.541   5.406
 6710SOL    HW221964   2.120   2.500   5.334
 6711SOL     OW21965  13.872   3.877   0.163
 6711SOL    HW121966  13.868   3.874   0.067
 6711SOL    HW221967  13.783   3.853   0.191
 6712SOL     OW21968   2.600   8.962   1.222
 6712SOL    HW121969   2.563   8.896   1.281
 6712SOL    HW221970   2.523   9.010   1.190
 6713SOL     OW21971   8.026  11.985   4.893
 6713SOL    HW121972   7.984  11.899   4.891
 6713SOL    HW221973   8.099  11.974   4.955
 6714SOL     OW21974   3.622   6.067   0.818
 6714SOL    HW121975   3.674   6.146   0.832
 6714SOL    HW221976   3.687   5.997   0.811
 6715SOL     OW21977   1.637  10.262   2.220
 6715SOL    HW121978   1.721  10.256   2.175
 6715SOL    HW221979   1.656  10.236   2.310
 6716SOL     OW21980  11.830   9.248  13.668
 6716SOL    HW121981  11.925   9.251  13.675
 6716SOL    HW221982  11.809   9.156  13.651
 6717SOL     OW21983  13.393   2.452  14.284
 6717SOL    HW121984  13.481   2.472  14.250
 6717SOL    HW221985  13.397   2.359  14.306
 6718SOL     OW21986  10.757  12.223  11.078
 6718SOL    HW121987  10.816  12.148  11.089
 6718SOL    HW221988  10.812  12.299  11.099
 6719SOL     OW21989  14.671  14.055  12.708
 6719SOL    HW121990  14.667  14.071  12.802
 6719SOL    HW221991  14.603  14.110  12.671
 6720SOL     OW21992   8.176   2.149   9.675
 6720SOL    HW121993   8.239   2.221   9.685
 6720SOL    HW221994   8.182   2.101   9.758
 6721SOL     OW21995   5.589   6.612   1.152
 6721SOL    HW121996   5.646   6.567   1.215
 6721SOL    HW221997   5.522   6.654   1.206
 6722SOL     OW21998  10.637  10.452   8.399
 6722SOL    HW121999  10.606  10.447   8.309
 6722SOL    HW222000  10.583  10.389   8.447
 6723SOL     OW22001  12.778  11.588   8.565
 6723SOL    HW122002  12.700  11.588   8.509
 6723SOL    HW222003  12.751  11.634   8.644
 6724SOL     OW22004   3.942   7.498   8.055
 6724SOL    HW122005   3.919   7.591   8.048
 6724SOL    HW222006   3.996   7.480   7.978
 6725SOL     OW22007   4.451   2.548   3.394
 6725SOL    HW122008   4.396   2.492   3.340
 6725SOL    HW222009   4.537   2.505   3.393
 6726SOL     OW22010  10.006   2.875   1.138
 6726SOL    HW122011  10.045   2.819   1.070
 6726SOL    HW222012   9.979   2.954   1.092
 6727SOL     OW22013   0.506   8.946   8.209
 6727SOL    HW122014   0.505   9.042   8.202
 6727SOL    HW222015   0.414   8.921   8.199
 6728SOL     OW22016   8.758  10.404   5.852
 6728SOL    HW122017   8.792  10.360   5.929
 6728SOL    HW222018   8.831  10.406   5.791
 6729SOL     OW22019   7.453  14.469  11.910
 6729SOL    HW122020   7.429  14.558  11.883
 6729SOL    HW222021   7.549  14.471  11.915
 6730SOL     OW22022  10.490   3.499   1.318
 6730SOL    HW122023  10.430   3.426   1.330
 6730SOL    HW222024  10.440   3.577   1.344
 6731SOL     OW22025   0.909   1.568   9.468
 6731SOL    HW122026   0.934   1.533   9.382
 6731SOL    HW222027   0.952   1.510   9.531
 6732SOL     OW22028   1.733  11.256  11.524
 6732SOL    HW122029   1.671  11.315  11.482
 6732SOL    HW222030   1.757  11.300  11.606
 6733SOL     OW22031   9.308   2.270   9.215
 6733SOL    HW122032   9.220   2.303   9.230
 6733SOL    HW222033   9.358   2.300   9.291
 6734SOL     OW22034   7.896   0.466   1.348
 6734SOL    HW122035   7.960   0.462   1.419
 6734SOL    HW222036   7.820   0.418   1.381
 6735SOL     OW22037  10.445  13.598  12.046
 6735SOL    HW122038  10.491  13.626  12.126
 6735SOL    HW222039  10.447  13.502  12.050
 6736SOL     OW22040  12.863   3.224   6.477
 6736SOL    HW122041  12.910   3.307   6.480
 6736SOL    HW222042  12.801   3.235   6.405
 6737SOL     OW22043  12.958   8.028   7.843
 6737SOL    HW122044  12.910   7.981   7.775
 6737SOL    HW222045  13.015   8.088   7.795
 6738SOL     OW22046   2.450   0.445   6.823
 6738SOL    HW122047   2.387   0.511   6.852
 6738SOL    HW222048   2.497   0.419   6.903
 6739SOL     OW22049   6.791  11.394   3.825
 6739SOL    HW122050   6.886  11.402   3.837
 6739SOL    HW222051   6.763  11.482   3.798
 6740SOL     OW22052   4.347   9.783   9.126
 6740SOL    HW122053   4.390   9.699   9.106
 6740SOL    HW222054   4.321   9.775   9.217
 6741SOL     OW22055   7.574   1.355  14.034
 6741SOL    HW122056   7.564   1.429  14.094
 6741SOL    HW222057   7.485   1.337  14.003
 6742SOL     OW22058  14.697  10.030   2.568
 6742SOL    HW122059  14.729  10.102   2.623
 6742SOL    HW222060  14.774   9.974   2.556
 6743SOL     OW22061  10.222   5.211   5.787
 6743SOL    HW122062  10.127   5.218   5.800
 6743SOL    HW222063  10.236   5.235   5.696
 6744SOL     OW22064   7.968   0.745   1.227
 6744SOL    HW122065   7.902   0.738   1.159
 6744SOL    HW222066   7.943   0.681   1.293
 6745SOL     OW22067  11.693  10.102  13.930
 6745SOL    HW122068  11.731  10.132  14.012
 6745SOL    HW222069  11.655  10.016  13.951
 6746SOL     OW22070   7.869  12.310   4.689
 6746SOL    HW122071   7.781  12.273   4.679
 6746SOL    HW222072   7.911  12.294   4.604
 6747SOL     OW22073   5.572   7.488   7.306
 6747SOL    HW122074   5.654   7.538   7.302
 6747SOL    HW222075   5.536   7.493   7.218
 6748SOL     OW22076  11.181   1.136   2.270
 6748SOL    HW122077  11.121   1.207   2.245
 6748SOL    HW222078  11.260   1.152   2.219
 6749SOL     OW22079   1.529   8.717  13.647
 6749SOL    HW122080   1.544   8.638  13.698
 6749SOL    HW222081   1.582   8.705  13.568
 6750SOL     OW22082   0.106   1.161   9.043
 6750SOL    HW122083   0.114   1.105   8.966
 6750SOL    HW222084   0.035   1.123   9.095
 6751SOL     OW22085   5.298   0.613   0.353
 6751SOL    HW122086   5.247   0.549   0.304
 6751SOL    HW222087   5.259   0.697   0.330
 6752SOL     OW22088  11.046   2.285   2.710
 6752SOL    HW122089  10.962   2.246   2.686
 6752SOL    HW222090  11.102   2.267   2.635
 6753SOL     OW22091   6.030  14.479  14.274
 6753SOL    HW122092   5.968  14.488  14.347
 6753SOL    HW222093   6.103  14.537  14.298
 6754SOL     OW22094   2.215   8.211  14.738
 6754SOL    HW122095   2.263   8.266  14.677
 6754SOL    HW222096   2.136   8.186  14.691
 6755SOL     OW22097   0.524  11.397  14.539
 6755SOL    HW122098   0.606  11.423  14.582
 6755SOL    HW222099   0.456  11.438  14.591
 6756SOL     OW22100   1.454   3.449  12.071
 6756SOL    HW122101   1.403   3.375  12.104
 6756SOL    HW222102   1.465   3.507  12.147
 6757SOL     OW22103   3.154   8.418  11.305
 6757SOL    HW122104   3.109   8.389  11.384
 6757SOL    HW222105   3.104   8.494  11.275
 6758SOL     OW22106   4.586   1.586   7.168
 6758SOL    HW122107   4.524   1.655   7.144
 6758SOL    HW222108   4.532   1.507   7.176
 6759SOL     OW22109  10.382   9.097   4.342
 6759SOL    HW122110  10.384   9.183   4.300
 6759SOL    HW222111  10.436   9.108   4.420
 6760SOL     OW22112  12.594   0.659   9.173
 6760SOL    HW122113  12.501   0.639   9.160
 6760SOL    HW222114  12.639   0.582   9.138
 6761SOL     OW22115  11.931   0.260   0.784
 6761SOL    HW122116  11.909   0.351   0.803
 6761SOL    HW222117  11.847   0.215   0.779
 6762SOL     OW22118   5.448  14.193   4.709
 6762SOL    HW122119   5.497  14.125   4.755
 6762SOL    HW222120   5.360  14.188   4.747
 6763SOL     OW22121   0.421  11.941  14.487
 6763SOL    HW122122   0.445  12.019  14.437
 6763SOL    HW222123   0.364  11.974  14.557
 6764SOL     OW22124   4.151  12.989   2.316
 6764SOL    HW122125   4.212  13.008   2.387
 6764SOL    HW222126   4.205  12.953   2.246
 6765SOL     OW22127  12.509   0.109   3.975
 6765SOL    HW122128  12.498   0.064   4.059
 6765SOL    HW222129  12.453   0.186   3.982
 6766SOL     OW22130   1.448   9.617  14.478
 6766SOL    HW122131   1.423   9.695  14.429
 6766SOL    HW222132   1.496   9.650  14.554
 6767SOL     OW22133   4.113   0.597  14.316
 6767SOL    HW122134   4.043   0.574  14.255
 6767SOL    HW222135   4.168   0.658  14.266
 6768SOL     OW22136  11.560   7.762   9.476
 6768SOL    HW122137  11.546   7.768   9.381
 6768SOL    HW222138  11.481   7.720   9.509
 6769SOL     OW22139  10.257   8.299  14.152
 6769SOL    HW122140  10.219   8.294  14.240
 6769SOL    HW222141  10.244   8.212  14.115
 6770SOL     OW22142  10.701   7.537   2.843
 6770SOL    HW122143  10.686   7.599   2.771
 6770SOL    HW222144  10.776   7.485   2.813
 6771SOL     OW22145   9.690   6.738   6.641
 6771SOL    HW122146   9.600   6.767   6.633
 6771SOL    HW222147   9.720   6.725   6.551
 6772SOL     OW22148   8.715  14.591  11.846
 6772SOL    HW122149   8.761  14.648  11.908
 6772SOL    HW222150   8.776  14.520  11.828
 6773SOL     OW22151   4.388  13.141   9.589
 6773SOL    HW122152   4.411  13.066   9.535
 6773SOL    HW222153   4.467  13.195   9.591
 6774SOL     OW22154   8.801   1.206  12.137
 6774SOL    HW122155   8.772   1.293  12.111
 6774SOL    HW222156   8.721   1.154  12.144
 6775SOL     OW22157  14.072  12.943   3.629
 6775SOL    HW122158  14.003  12.989   3.581
 6775SOL    HW222159  14.030  12.864   3.663
 6776SOL     OW22160   5.514   6.539  10.066
 6776SOL    HW122161   5.561   6.465  10.028
 6776SOL    HW222162   5.554   6.617  10.027
 6777SOL     OW22163   0.674   9.272   3.989
 6777SOL    HW122164   0.652   9.195   3.938
 6777SOL    HW222165   0.721   9.329   3.928
 6778SOL     OW22166   5.304   3.819   4.205
 6778SOL    HW122167   5.307   3.733   4.248
 6778SOL    HW222168   5.244   3.807   4.132
 6779SOL     OW22169   7.389   2.452   3.095
 6779SOL    HW122170   7.391   2.378   3.035
 6779SOL    HW222171   7.369   2.413   3.180
 6780SOL     OW22172  14.774   5.566  11.914
 6780SOL    HW122173  14.773   5.484  11.963
 6780SOL    HW222174  14.728   5.628  11.971
 6781SOL     OW22175  14.718  11.993  14.732
 6781SOL    HW122176  14.697  12.002  14.639
 6781SOL    HW222177  14.650  12.043  14.777
 6782SOL     OW22178   6.020   7.507   3.120
 6782SOL    HW122179   5.952   7.447   3.090
 6782SOL    HW222180   6.079   7.516   3.045
 6783SOL     OW22181   3.257   1.922  14.376
 6783SOL    HW122182   3.308   1.871  14.313
 6783SOL    HW222183   3.322   1.963  14.433
 6784SOL     OW22184  12.368   2.393  13.978
 6784SOL    HW122185  12.310   2.321  13.957
 6784SOL    HW222186  12.425   2.402  13.901
 6785SOL     OW22187   0.615   4.854   0.124
 6785SOL    HW122188   0.608   4.913   0.049
 6785SOL    HW222189   0.578   4.771   0.092
 6786SOL     OW22190   5.559   7.921   8.003
 6786SOL    HW122191   5.601   7.837   8.020
 6786SOL    HW222192   5.610   7.960   7.932
 6787SOL     OW22193  12.394  10.493   4.447
 6787SOL    HW122194  12.436  10.528   4.526
 6787SOL    HW222195  12.347  10.415   4.478
 6788SOL     OW22196   8.823   1.323   9.859
 6788SOL    HW122197   8.915   1.333   9.836
 6788SOL    HW222198   8.814   1.369   9.943
 6789SOL     OW22199   1.469  14.173  12.551
 6789SOL    HW122200   1.532  14.187  12.621
 6789SOL    HW222201   1.428  14.259  12.538
 6790SOL     OW22202  13.410   4.085  14.585
 6790SOL    HW122203  13.355   4.051  14.514
 6790SOL    HW222204  13.353   4.083  14.662
 6791SOL     OW22205   4.212   9.808   0.877
 6791SOL    HW122206   4.135   9.864   0.889
 6791SOL    HW222207   4.285   9.862   0.907
 6792SOL     OW22208  13.991   1.529   8.189
 6792SOL    HW122209  14.083   1.520   8.164
 6792SOL    HW222210  13.975   1.456   8.248
 6793SOL     OW22211   8.192   4.499   5.110
 6793SOL    HW122212   8.107   4.538   5.129
 6793SOL    HW222213   8.255   4.554   5.156
 6794SOL     OW22214   1.348   3.182   7.320
 6794SOL    HW122215   1.303   3.149   7.242
 6794SOL    HW222216   1.438   3.150   7.311
 6795SOL     OW22217   4.372   3.437   2.536
 6795SOL    HW122218   4.342   3.430   2.445
 6795SOL    HW222219   4.449   3.380   2.540
 6796SOL     OW22220  11.850  14.605   8.997
 6796SOL    HW122221  11.790  14.538   8.965
 6796SOL    HW222222  11.801  14.687   8.990
 6797SOL     OW22223  13.511  12.964   6.690
 6797SOL    HW122224  13.462  13.029   6.742
 6797SOL    HW222225  13.448  12.935   6.624
 6798SOL     OW22226   9.350  10.719  11.038
 6798SOL    HW122227   9.445  10.731  11.045
 6798SOL    HW222228   9.338  10.624  11.044
 6799SOL     OW22229  11.594   1.755   8.549
 6799SOL    HW122230  11.681   1.788   8.524
 6799SOL    HW222231  11.576   1.796   8.634
 6800SOL     OW22232   7.900  13.954   2.308
 6800SOL    HW122233   7.938  14.041   2.294
 6800SOL    HW222234   7.829  13.969   2.371
 6801SOL     OW22235  13.718   9.376   2.393
 6801SOL    HW122236  13.635   9.328   2.382
 6801SOL    HW222237  13.764   9.363   2.310
 6802SOL     OW22238   5.710  14.226   1.631
 6802SOL    HW122239   5.671  14.214   1.717
 6802SOL    HW222240   5.692  14.317   1.608
 6803SOL     OW22241  14.187   4.596   2.181
 6803SOL    HW122242  14.150   4.660   2.241
 6803SOL    HW222243  14.165   4.511   2.219
 6804SOL     OW22244  11.202  14.545   8.754
 6804SOL    HW122245  11.240  14.485   8.818
 6804SOL    HW222246  11.114  14.512   8.739
 6805SOL     OW22247   5.414   8.484   2.207
 6805SOL    HW122248   5.350   8.438   2.261
 6805SOL    HW222249   5.492   8.489   2.262
 6806SOL     OW22250   9.169   2.054  13.965
 6806SOL    HW122251   9.139   2.048  13.874
 6806SOL    HW222252   9.089   2.064  14.016
 6807SOL     OW22253   4.406   6.648   1.580
 6807SOL    HW122254   4.416   6.567   1.631
 6807SOL    HW222255   4.439   6.717   1.638
 6808SOL     OW22256   8.424   2.425  14.376
 6808SOL    HW122257   8.404   2.363  14.306
 6808SOL    HW222258   8.414   2.511  14.335
 6809SOL     OW22259   9.549  13.077   8.967
 6809SOL    HW122260   9.458  13.098   8.946
 6809SOL    HW222261   9.579  13.152   9.018
 6810SOL     OW22262   5.556  12.143  10.956
 6810SOL    HW122263   5.524  12.054  10.943
 6810SOL    HW222264   5.522  12.168  11.041
 6811SOL     OW22265   8.224   5.836   7.707
 6811SOL    HW122266   8.194   5.822   7.797
 6811SOL    HW222267   8.145   5.857   7.658
 6812SOL     OW22268   7.977  10.598   8.231
 6812SOL    HW122269   7.927  10.670   8.194
 6812SOL    HW222270   8.053  10.589   8.172
 6813SOL     OW22271   4.946   7.945   9.939
 6813SOL    HW122272   4.959   7.939   9.844
 6813SOL    HW222273   4.851   7.942   9.951
 6814SOL     OW22274   3.116  10.645   4.232
 6814SOL    HW122275   3.192  10.592   4.208
 6814SOL    HW222276   3.085  10.681   4.150
 6815SOL     OW22277   9.152   6.700  12.017
 6815SOL    HW122278   9.190   6.621  11.978
 6815SOL    HW222279   9.099   6.667  12.090
 6816SOL     OW22280   9.025  10.494   3.069
 6816SOL    HW122281   9.057  10.564   3.125
 6816SOL    HW222282   9.012  10.420   3.129
 6817SOL     OW22283  10.059  13.411  12.160
 6817SOL    HW122284  10.033  13.474  12.228
 6817SOL    HW222285  10.129  13.360  12.200
 6818SOL     OW22286   7.097   8.153   5.041
 6818SOL    HW122287   7.045   8.099   4.982
 6818SOL    HW222288   7.165   8.094   5.074
 6819SOL     OW22289  10.693  11.658   9.464
 6819SOL    HW122290  10.698  11.568   9.432
 6819SOL    HW222291  10.669  11.648   9.557
 6820SOL     OW22292  13.919   7.770  13.975
 6820SOL    HW122293  13.873   7.835  13.923
 6820SOL    HW222294  13.951   7.706  13.911
 6821SOL     OW22295  10.137   3.939   6.349
 6821SOL    HW122296  10.087   4.006   6.395
 6821SOL    HW222297  10.204   3.988   6.301
 6822SOL     OW22298   8.527   0.574   2.944
 6822SOL    HW122299   8.491   0.650   2.991
 6822SOL    HW222300   8.492   0.583   2.856
 6823SOL     OW22301  10.614   4.432   3.510
 6823SOL    HW122302  10.587   4.383   3.587
 6823SOL    HW222303  10.554   4.404   3.441
 6824SOL     OW22304  11.189   0.965  12.896
 6824SOL    HW122305  11.269   1.011  12.870
 6824SOL    HW222306  11.147   1.024  12.958
 6825SOL     OW22307   7.009   0.140   6.291
 6825SOL    HW122308   7.027   0.082   6.217
 6825SOL    HW222309   7.042   0.092   6.367
 6826SOL     OW22310   2.938  10.417   5.158
 6826SOL    HW122311   2.847  10.443   5.145
 6826SOL    HW222312   2.964  10.380   5.074
 6827SOL     OW22313  13.830  12.695   1.370
 6827SOL    HW122314  13.902  12.725   1.314
 6827SOL    HW222315  13.791  12.622   1.320
 6828SOL     OW22316  10.249  11.121   9.928
 6828SOL    HW122317  10.205  11.083  10.004
 6828SOL    HW222318  10.191  11.103   9.854
 6829SOL     OW22319  13.856   2.195  14.692
 6829SOL    HW122320  13.792   2.261  14.720
 6829SOL    HW222321  13.822   2.162  14.609
 6830SOL     OW22322   9.527   5.430  14.490
 6830SOL    HW122323   9.605   5.378  14.475
 6830SOL    HW222324   9.492   5.447  14.403
 6831SOL     OW22325  14.578   4.880   2.056
 6831SOL    HW122326  14.529   4.932   1.993
 6831SOL    HW222327  14.581   4.793   2.018
 6832SOL     OW22328   8.709  12.852   2.731
 6832SOL    HW122329   8.746  12.808   2.806
 6832SOL    HW222330   8.631  12.801   2.709
 6833SOL     OW22331   0.088   5.161   9.426
 6833SOL    HW122332   0.065   5.254   9.428
 6833SOL    HW222333   0.183   5.159   9.436
 6834SOL     OW22334  14.003   1.192   1.675
 6834SOL    HW122335  13.963   1.276   1.656
 6834SOL    HW222336  14.036   1.201   1.764
 6835SOL     OW22337   4.425   2.201   4.382
 6835SOL    HW122338   4.493   2.157   4.434
 6835SOL    HW222339   4.426   2.292   4.412
 6836SOL     OW22340  10.914   2.307   1.999
 6836SOL    HW122341  10.983   2.272   2.055
 6836SOL    HW222342  10.932   2.401   1.994
 6837SOL     OW22343  10.008  13.872   2.616
 6837SOL    HW122344  10.033  13.810   2.685
 6837SOL    HW222345   9.924  13.840   2.585
 6838SOL     OW22346   6.497  12.824   8.985
 6838SOL    HW122347   6.470  12.914   9.003
 6838SOL    HW222348   6.504  12.820   8.890
 6839SOL     OW22349   8.489   4.628   4.506
 6839SOL    HW122350   8.478   4.594   4.417
 6839SOL    HW222351   8.436   4.570   4.560
 6840SOL     OW22352  13.777   8.864   6.032
 6840SOL    HW122353  13.686   8.888   6.048
 6840SOL    HW222354  13.787   8.779   6.075
 6841SOL     OW22355  10.008   8.213   0.812
 6841SOL    HW122356  10.034   8.286   0.756
 6841SOL    HW222357   9.920   8.190   0.781
 6842SOL     OW22358   1.636   5.180  13.417
 6842SOL    HW122359   1.676   5.265  13.434
 6842SOL    HW222360   1.707   5.126  13.382
 6843SOL     OW22361   0.006   6.556   7.996
 6843SOL    HW122362   0.083   6.611   8.009
 6843SOL    HW222363  14.831   6.605   7.934
 6844SOL     OW22364  14.149  14.189  10.207
 6844SOL    HW122365  14.164  14.262  10.267
 6844SOL    HW222366  14.217  14.199  10.140
 6845SOL     OW22367  12.591  10.037  14.264
 6845SOL    HW122368  12.641  10.105  14.307
 6845SOL    HW222369  12.537  10.083  14.200
 6846SOL     OW22370  10.087   8.618  14.339
 6846SOL    HW122371  10.138   8.615  14.258
 6846SOL    HW222372  10.080   8.712  14.359
 6847SOL     OW22373   9.525   6.776  10.985
 6847SOL    HW122374   9.468   6.825  10.927
 6847SOL    HW222375   9.565   6.709  10.930
 6848SOL     OW22376   6.802  11.645  11.430
 6848SOL    HW122377   6.817  11.684  11.344
 6848SOL    HW222378   6.878  11.589  11.445
 6849SOL     OW22379  14.076   4.651   0.675
 6849SOL    HW122380  14.092   4.606   0.757
 6849SOL    HW222381  14.012   4.597   0.629
 6850SOL     OW22382   1.585   8.828  14.077
 6850SOL    HW122383   1.554   8.914  14.104
 6850SOL    HW222384   1.509   8.770  14.084
 6851SOL     OW22385   8.583  10.377  12.513
 6851SOL    HW122386   8.591  10.470  12.491
 6851SOL    HW222387   8.647  10.365  12.584
 6852SOL     OW22388   5.066  14.591  10.868
 6852SOL    HW122389   5.155  14.577  10.899
 6852SOL    HW222390   5.012  14.535  10.924
 6853SOL     OW22391   8.255   1.824   4.745
 6853SOL    HW122392   8.181   1.878   4.718
 6853SOL    HW222393   8.331   1.864   4.704
 6854SOL     OW22394   2.254   6.364  14.140
 6854SOL    HW122395   2.289   6.277  14.159
 6854SOL    HW222396   2.216   6.357  14.053
 6855SOL     OW22397   9.892  12.417   4.146
 6855SOL    HW122398   9.896  12.507   4.180
 6855SOL    HW222399   9.968  12.409   4.089
 6856SOL     OW22400   8.942   5.499   2.276
 6856SOL    HW122401   8.890   5.419   2.273
 6856SOL    HW222402   8.906   5.548   2.349
 6857SOL     OW22403   1.776   3.582   4.556
 6857SOL    HW122404   1.798   3.538   4.474
 6857SOL    HW222405   1.765   3.511   4.620
 6858SOL     OW22406  14.161   0.695  12.272
 6858SOL    HW122407  14.085   0.723  12.221
 6858SOL    HW222408  14.201   0.776  12.303
 6859SOL     OW22409  13.556   5.636   3.257
 6859SOL    HW122410  13.527   5.672   3.341
 6859SOL    HW222411  13.651   5.630   3.265
 6860SOL     OW22412  14.024  12.378  12.848
 6860SOL    HW122413  14.073  12.298  12.864
 6860SOL    HW222414  13.978  12.362  12.765
 6861SOL     OW22415   3.354   8.894  10.777
 6861SOL    HW122416   3.324   8.984  10.759
 6861SOL    HW222417   3.300   8.839  10.720
 6862SOL     OW22418   0.136  12.907   2.463
 6862SOL    HW122419   0.212  12.963   2.480
 6862SOL    HW222420   0.071  12.966   2.425
 6863SOL     OW22421   2.772   3.876   3.232
 6863SOL    HW122422   2.721   3.799   3.206
 6863SOL    HW222423   2.862   3.855   3.207
 6864SOL     OW22424  10.944  12.935  12.566
 6864SOL    HW122425  10.937  12.983  12.649
 6864SOL    HW222426  10.856  12.902  12.550
 6865SOL     OW22427   5.837   8.645   2.789
 6865SOL    HW122428   5.881   8.636   2.873
 6865SOL    HW222429   5.744   8.652   2.811
 6866SOL     OW22430  11.384  14.556   8.269
 6866SOL    HW122431  11.337  14.531   8.189
 6866SOL    HW222432  11.382  14.478   8.323
 6867SOL     OW22433   3.826   2.859  13.236
 6867SOL    HW122434   3.790   2.775  13.208
 6867SOL    HW222435   3.866   2.841  13.321
 6868SOL     OW22436   8.927  13.367  13.837
 6868SOL    HW122437   9.010  13.329  13.806
 6868SOL    HW222438   8.884  13.398  13.757
 6869SOL     OW22439   5.713  13.496   3.481
 6869SOL    HW122440   5.644  13.552   3.446
 6869SOL    HW222441   5.792  13.549   3.475
 6870SOL     OW22442   0.028  10.934  14.854
 6870SOL    HW122443   0.120  10.956  14.862
 6870SOL    HW222444  14.861  11.017  14.869
 6871SOL     OW22445   2.358   3.466  10.901
 6871SOL    HW122446   2.445   3.432  10.918
 6871SOL    HW222447   2.299   3.410  10.951
 6872SOL     OW22448  10.839  11.698   2.978
 6872SOL    HW122449  10.857  11.716   3.071
 6872SOL    HW222450  10.870  11.777   2.933
 6873SOL     OW22451  13.600  13.629   4.490
 6873SOL    HW122452  13.608  13.638   4.585
 6873SOL    HW222453  13.508  13.607   4.475
 6874SOL     OW22454   4.272   7.989   5.685
 6874SOL    HW122455   4.357   7.945   5.689
 6874SOL    HW222456   4.289   8.078   5.718
 6875SOL     OW22457   6.622   4.131   8.270
 6875SOL    HW122458   6.560   4.152   8.200
 6875SOL    HW222459   6.567   4.115   8.347
 6876SOL     OW22460  11.135   4.249  12.063
 6876SOL    HW122461  11.128   4.325  12.122
 6876SOL    HW222462  11.083   4.274  11.987
 6877SOL     OW22463  13.030   3.077   9.465
 6877SOL    HW122464  12.950   3.046   9.424
 6877SOL    HW222465  13.057   3.006   9.523
 6878SOL     OW22466   5.549   0.311  10.999
 6878SOL    HW122467   5.463   0.297  11.040
 6878SOL    HW222468   5.612   0.292  11.068
 6879SOL     OW22469   6.627  10.113   2.369
 6879SOL    HW122470   6.615  10.030   2.416
 6879SOL    HW222471   6.561  10.171   2.405
 6880SOL     OW22472   9.429   0.732  10.795
 6880SOL    HW122473   9.406   0.667  10.728
 6880SOL    HW222474   9.375   0.709  10.871
 6881SOL     OW22475   6.919   2.048  14.232
 6881SOL    HW122476   6.983   2.027  14.164
 6881SOL    HW222477   6.835   2.048  14.187
 6882SOL     OW22478   3.074   5.696   3.531
 6882SOL    HW122479   3.071   5.784   3.569
 6882SOL    HW222480   3.118   5.707   3.447
 6883SOL     OW22481   9.940  14.002  14.395
 6883SOL    HW122482   9.856  14.041  14.370
 6883SOL    HW222483   9.916  13.919  14.437
 6884SOL     OW22484  12.635   5.109   7.028
 6884SOL    HW122485  12.666   5.174   6.965
 6884SOL    HW222486  12.573   5.158   7.083
 6885SOL     OW22487   2.755  14.268   1.705
 6885SOL    HW122488   2.739  14.177   1.680
 6885SOL    HW222489   2.844  14.287   1.675
 6886SOL     OW22490   7.709  13.631  14.262
 6886SOL    HW122491   7.685  13.660  14.349
 6886SOL    HW222492   7.670  13.695  14.203
 6887SOL     OW22493  12.221   8.526   3.850
 6887SOL    HW122494  12.286   8.550   3.916
 6887SOL    HW222495  12.260   8.453   3.803
 6888SOL     OW22496   6.290   6.991   8.997
 6888SOL    HW122497   6.254   6.963   9.081
 6888SOL    HW222498   6.213   7.003   8.941
 6889SOL     OW22499  13.091  12.728   1.756
 6889SOL    HW122500  13.156  12.682   1.704
 6889SOL    HW222501  13.069  12.668   1.827
 6890SOL     OW22502   5.087   1.658   0.071
 6890SOL    HW122503   5.034   1.578   0.065
 6890SOL    HW222504   5.023   1.727   0.089
 6891SOL     OW22505  14.079  13.215   7.941
 6891SOL    HW122506  14.139  13.163   7.996
 6891SOL    HW222507  14.137  13.270   7.889
 6892SOL     OW22508  13.763   5.379   3.677
 6892SOL    HW122509  13.811   5.328   3.612
 6892SOL    HW222510  13.720   5.448   3.627
 6893SOL     OW22511   5.120   3.353  11.265
 6893SOL    HW122512   5.150   3.429  11.215
 6893SOL    HW222513   5.065   3.391  11.334
 6894SOL     OW22514   6.865  14.436   1.590
 6894SOL    HW122515   6.815  14.368   1.634
 6894SOL    HW222516   6.841  14.517   1.634
 6895SOL     OW22517   1.812  11.243  14.085
 6895SOL    HW122518   1.799  11.158  14.045
 6895SOL    HW222519   1.751  11.245  14.159
 6896SOL     OW22520   9.030   5.751   2.567
 6896SOL    HW122521   8.949   5.705   2.543
 6896SOL    HW222522   9.052   5.803   2.490
 6897SOL     OW22523   2.396   8.117   5.483
 6897SOL    HW122524   2.339   8.083   5.414
 6897SOL    HW222525   2.459   8.172   5.436
 6898SOL     OW22526   6.683   8.665  12.908
 6898SOL    HW122527   6.688   8.627  12.820
 6898SOL    HW222528   6.595   8.643  12.939
 6899SOL     OW22529   7.091   2.255   2.554
 6899SOL    HW122530   7.066   2.344   2.578
 6899SOL    HW222531   7.011   2.217   2.516
 6900SOL     OW22532   7.367  10.499  12.503
 6900SOL    HW122533   7.367  10.591  12.478
 6900SOL    HW222534   7.287  10.487  12.555
 6901SOL     OW22535  12.191  12.134  12.348
 6901SOL    HW122536  12.268  12.096  12.389
 6901SOL    HW222537  12.121  12.071  12.364
 6902SOL     OW22538   3.820  14.784   7.652
 6902SOL    HW122539   3.775  14.730   7.718
 6902SOL    HW222540   3.886  14.725   7.614
 6903SOL     OW22541  10.921  14.841   2.829
 6903SOL    HW122542  10.852   0.024   2.852
 6903SOL    HW222543  10.970   0.004   2.759
 6904SOL     OW22544   1.508   9.853   6.965
 6904SOL    HW122545   1.548   9.825   6.883
 6904SOL    HW222546   1.542   9.941   6.980
 6905SOL     OW22547   8.687   3.573   1.206
 6905SOL    HW122548   8.689   3.581   1.111
 6905SOL    HW222549   8.601   3.537   1.226
 6906SOL     OW22550  10.170   6.801  13.565
 6906SOL    HW122551  10.107   6.740  13.526
 6906SOL    HW222552  10.133   6.820  13.652
 6907SOL     OW22553  11.784   9.398  10.180
 6907SOL    HW122554  11.830   9.388  10.097
 6907SOL    HW222555  11.805   9.487  10.208
 6908SOL     OW22556   6.184   9.535   1.928
 6908SOL    HW122557   6.097   9.574   1.937
 6908SOL    HW222558   6.237   9.606   1.890
 6909SOL     OW22559   6.517  13.451   5.016
 6909SOL    HW122560   6.564  13.475   4.936
 6909SOL    HW222561   6.579  13.395   5.063
 6910SOL     OW22562   5.812   5.967   7.460
 6910SOL    HW122563   5.862   5.968   7.378
 6910SOL    HW222564   5.876   5.946   7.528
 6911SOL     OW22565   9.400   4.666   7.014
 6911SOL    HW122566   9.485   4.707   7.027
 6911SOL    HW222567   9.399   4.592   7.075
 6912SOL     OW22568   3.514  12.775   1.555
 6912SOL    HW122569   3.489  12.682   1.558
 6912SOL    HW222570   3.583  12.783   1.622
 6913SOL     OW22571   4.209   7.986   2.140
 6913SOL    HW122572   4.179   8.063   2.188
 6913SOL    HW222573   4.155   7.985   2.061
 6914SOL     OW22574   9.827   6.274   5.161
 6914SOL    HW122575   9.740   6.233   5.153
 6914SOL    HW222576   9.839   6.285   5.255
 6915SOL     OW22577   2.861  14.258  14.520
 6915SOL    HW122578   2.880  14.217  14.435
 6915SOL    HW222579   2.818  14.340  14.497
 6916SOL     OW22580   8.944   7.744  14.136
 6916SOL    HW122581   8.991   7.814  14.180
 6916SOL    HW222582   8.855   7.749  14.170
 6917SOL     OW22583  11.097   5.515   3.155
 6917SOL    HW122584  11.060   5.593   3.197
 6917SOL    HW222585  11.021   5.466   3.125
 6918SOL     OW22586  13.172   1.374   9.699
 6918SOL    HW122587  13.150   1.337   9.614
 6918SOL    HW222588  13.268   1.376   9.700
 6919SOL     OW22589   2.253   2.152   5.350
 6919SOL    HW122590   2.317   2.117   5.289
 6919SOL    HW222591   2.302   2.214   5.403
 6920SOL     OW22592   9.318   2.720   7.673
 6920SOL    HW122593   9.407   2.690   7.656
 6920SOL    HW222594   9.315   2.808   7.635
 6921SOL     OW22595  11.598  13.801  14.406
 6921SOL    HW122596  11.656  13.842  14.343
 6921SOL    HW222597  11.645  13.723  14.435
 6922SOL     OW22598  13.412   3.005   9.483
 6922SOL    HW122599  13.390   3.088   9.526
 6922SOL    HW222600  13.330   2.955   9.486
 6923SOL     OW22601  14.524  13.905  10.492
 6923SOL    HW122602  14.559  13.937  10.409
 6923SOL    HW222603  14.455  13.968  10.516
 6924SOL     OW22604   6.992  13.573   2.225
 6924SOL    HW122605   6.903  13.598   2.251
 6924SOL    HW222606   7.038  13.556   2.308
 6925SOL     OW22607   0.550   9.755  11.139
 6925SOL    HW122608   0.495   9.834  11.143
 6925SOL    HW222609   0.573   9.737  11.230
 6926SOL     OW22610   8.685   5.140  11.287
 6926SOL    HW122611   8.653   5.121  11.375
 6926SOL    HW222612   8.660   5.064  11.235
 6927SOL     OW22613  14.570  11.548   7.111
 6927SOL    HW122614  14.599  11.599   7.186
 6927SOL    HW222615  14.650  11.513   7.073
 6928SOL     OW22616   9.993   2.199  12.717
 6928SOL    HW122617  10.054   2.260  12.759
 6928SOL    HW222618  10.044   2.157  12.648
 6929SOL     OW22619   7.014   8.218   3.822
 6929SOL    HW122620   7.010   8.122   3.824
 6929SOL    HW222621   7.070   8.241   3.896
 6930SOL     OW22622  13.970   6.807   1.994
 6930SOL    HW122623  14.020   6.825   2.074
 6930SOL    HW222624  13.879   6.807   2.022
 6931SOL     OW22625   6.679   5.346   3.060
 6931SOL    HW122626   6.769   5.314   3.059
 6931SOL    HW222627   6.680   5.421   3.120
 6932SOL     OW22628  12.958   6.515  11.585
 6932SOL    HW122629  12.875   6.560  11.572
 6932SOL    HW222630  12.989   6.495  11.496
 6933SOL     OW22631   8.103  10.061   7.774
 6933SOL    HW122632   8.110   9.987   7.714
 6933SOL    HW222633   8.039  10.032   7.839
 6934SOL     OW22634   6.929   7.313   0.984
 6934SOL    HW122635   6.968   7.373   1.048
 6934SOL    HW222636   7.004   7.281   0.933
 6935SOL     OW22637   5.343   5.639   9.965
 6935SOL    HW122638   5.277   5.572   9.985
 6935SOL    HW222639   5.308   5.719  10.004
 6936SOL     OW22640  12.224   2.533   5.081
 6936SOL    HW122641  12.297   2.540   5.019
 6936SOL    HW222642  12.183   2.619   5.080
 6937SOL     OW22643   6.207   6.840   2.586
 6937SOL    HW122644   6.143   6.868   2.652
 6937SOL    HW222645   6.263   6.777   2.632
 6938SOL     OW22646   9.662   5.026   4.584
 6938SOL    HW122647   9.577   5.054   4.617
 6938SOL    HW222648   9.697   4.969   4.653
 6939SOL     OW22649   9.192  11.191  13.264
 6939SOL    HW122650   9.100  11.218  13.266
 6939SOL    HW222651   9.230  11.231  13.343
 6940SOL     OW22652  14.365  11.289  13.013
 6940SOL    HW122653  14.413  11.347  12.954
 6940SOL    HW222654  14.349  11.343  13.091
 6941SOL     OW22655  12.865  13.723   7.376
 6941SOL    HW122656  12.786  13.777   7.381
 6941SOL    HW222657  12.895  13.716   7.467
 6942SOL     OW22658  13.092  11.190   6.181
 6942SOL    HW122659  13.048  11.195   6.097
 6942SOL    HW222660  13.185  11.202   6.160
 6943SOL     OW22661   5.988   5.702   0.312
 6943SOL    HW122662   5.895   5.691   0.334
 6943SOL    HW222663   6.027   5.617   0.332
 6944SOL     OW22664   1.126   0.980   6.951
 6944SOL    HW122665   1.165   1.061   6.983
 6944SOL    HW222666   1.039   0.977   6.990
 6945SOL     OW22667  11.967   7.285   0.431
 6945SOL    HW122668  12.038   7.273   0.494
 6945SOL    HW222669  11.976   7.375   0.400
 6946SOL     OW22670   8.966   4.094   2.225
 6946SOL    HW122671   9.015   4.023   2.184
 6946SOL    HW222672   9.002   4.101   2.314
 6947SOL     OW22673  12.174   8.367  10.209
 6947SOL    HW122674  12.216   8.412  10.282
 6947SOL    HW222675  12.181   8.427  10.135
 6948SOL     OW22676  14.532   4.168   7.319
 6948SOL    HW122677  14.591   4.219   7.374
 6948SOL    HW222678  14.519   4.086   7.367
 6949SOL     OW22679  14.487  13.552   0.107
 6949SOL    HW122680  14.513  13.620   0.169
 6949SOL    HW222681  14.545  13.479   0.127
 6950SOL     OW22682   0.697   1.531   0.853
 6950SOL    HW122683   0.787   1.529   0.819
 6950SOL    HW222684   0.700   1.596   0.923
 6951SOL     OW22685   7.126   2.935   4.674
 6951SOL    HW122686   7.135   2.849   4.632
 6951SOL    HW222687   7.047   2.927   4.727
 6952SOL     OW22688   3.222   8.079   6.071
 6952SOL    HW122689   3.181   8.067   5.985
 6952SOL    HW222690   3.314   8.096   6.052
 6953SOL     OW22691   0.251  14.372   3.057
 6953SOL    HW122692   0.282  14.455   3.020
 6953SOL    HW222693   0.163  14.391   3.090
 6954SOL     OW22694  11.682  10.737   5.242
 6954SOL    HW122695  11.626  10.792   5.297
 6954SOL    HW222696  11.771  10.759   5.270
 6955SOL     OW22697   3.707   0.899   7.956
 6955SOL    HW122698   3.732   0.924   8.045
 6955SOL    HW222699   3.731   0.806   7.950
 6956SOL     OW22700  12.098   6.783  10.031
 6956SOL    HW122701  12.046   6.792  10.111
 6956SOL    HW222702  12.048   6.831   9.965
 6957SOL     OW22703   9.710   2.910   5.287
 6957SOL    HW122704   9.651   2.963   5.340
 6957SOL    HW222705   9.656   2.839   5.252
 6958SOL     OW22706   5.532  14.868  12.627
 6958SOL    HW122707   5.546   0.083  12.613
 6958SOL    HW222708   5.620  14.831  12.628
 6959SOL     OW22709   4.185  10.063   6.556
 6959SOL    HW122710   4.261  10.005   6.560
 6959SOL    HW222711   4.122  10.017   6.500
 6960SOL     OW22712   2.779   3.590   9.409
 6960SOL    HW122713   2.843   3.527   9.443
 6960SOL    HW222714   2.748   3.636   9.487
 6961SOL     OW22715   6.628   7.109   5.238
 6961SOL    HW122716   6.704   7.092   5.293
 6961SOL    HW222717   6.589   7.189   5.274
 6962SOL     OW22718   3.887  10.201   8.808
 6962SOL    HW122719   3.946  10.208   8.883
 6962SOL    HW222720   3.859  10.291   8.790
 6963SOL     OW22721   9.301   7.909   1.737
 6963SOL    HW122722   9.347   7.899   1.654
 6963SOL    HW222723   9.317   7.827   1.784
 6964SOL     OW22724  13.312   8.821   7.707
 6964SOL    HW122725  13.222   8.849   7.720
 6964SOL    HW222726  13.318   8.800   7.614
 6965SOL     OW22727  13.916  12.914   1.587
 6965SOL    HW122728  13.877  12.966   1.657
 6965SOL    HW222729  13.842  12.866   1.549
 6966SOL     OW22730   5.086   2.341   7.078
 6966SOL    HW122731   5.059   2.430   7.102
 6966SOL    HW222732   5.173   2.332   7.116
 6967SOL     OW22733  14.117   5.220   4.019
 6967SOL    HW122734  14.188   5.168   3.981
 6967SOL    HW222735  14.143   5.311   4.003
 6968SOL     OW22736   8.601   4.863  10.436
 6968SOL    HW122737   8.684   4.909  10.446
 6968SOL    HW222738   8.568   4.890  10.351
 6969SOL     OW22739  12.517   5.509   3.113
 6969SOL    HW122740  12.570   5.528   3.191
 6969SOL    HW222741  12.578   5.470   3.051
 6970SOL     OW22742  12.070  12.969   6.814
 6970SOL    HW122743  12.038  13.058   6.801
 6970SOL    HW222744  11.996  12.912   6.790
 6971SOL     OW22745  10.942   9.960   2.176
 6971SOL    HW122746  11.011  10.025   2.165
 6971SOL    HW222747  10.928   9.955   2.271
 6972SOL     OW22748  14.840   2.343   2.613
 6972SOL    HW122749  14.847   2.438   2.623
 6972SOL    HW222750   0.051   2.314   2.597
 6973SOL     OW22751   6.480   3.589   6.894
 6973SOL    HW122752   6.442   3.518   6.946
 6973SOL    HW222753   6.574   3.578   6.903
 6974SOL     OW22754  11.903  13.367   9.984
 6974SOL    HW122755  11.844  13.437  10.012
 6974SOL    HW222756  11.880  13.292  10.039
 6975SOL     OW22757  13.360   6.375   4.489
 6975SOL    HW122758  13.422   6.448   4.478
 6975SOL    HW222759  13.330   6.356   4.400
 6976SOL     OW22760  13.585   4.655  11.018
 6976SOL    HW122761  13.581   4.738  10.970
 6976SOL    HW222762  13.526   4.668  11.092
 6977SOL     OW22763   7.318  14.267   4.440
 6977SOL    HW122764   7.240  14.320   4.425
 6977SOL    HW222765   7.368  14.273   4.359
 6978SOL     OW22766  11.946   6.806  10.236
 6978SOL    HW122767  11.918   6.753  10.311
 6978SOL    HW222768  11.946   6.896  10.268
 6979SOL     OW22769   7.610  12.033   7.601
 6979SOL    HW122770   7.695  12.075   7.596
 6979SOL    HW222771   7.553  12.097   7.644
 6980SOL     OW22772   8.372   7.981  14.036
 6980SOL    HW122773   8.286   7.940  14.049
 6980SOL    HW222774   8.353   8.073  14.017
 6981SOL     OW22775   3.091   4.033   7.988
 6981SOL    HW122776   3.105   4.064   7.899
 6981SOL    HW222777   3.031   3.959   7.979
 6982SOL     OW22778  11.514   5.290   8.550
 6982SOL    HW122779  11.477   5.208   8.582
 6982SOL    HW222780  11.598   5.265   8.510
 6983SOL     OW22781  11.274   0.404   5.661
 6983SOL    HW122782  11.223   0.474   5.702
 6983SOL    HW222783  11.352   0.396   5.716
 6984SOL     OW22784  13.437  11.693   3.083
 6984SOL    HW122785  13.451  11.599   3.069
 6984SOL    HW222786  13.494  11.735   3.020
 6985SOL     OW22787  13.772  10.482   4.936
 6985SOL    HW122788  13.862  10.484   4.904
 6985SOL    HW222789  13.737  10.399   4.905
 6986SOL     OW22790   8.421   8.205   9.804
 6986SOL    HW122791   8.447   8.138   9.867
 6986SOL    HW222792   8.329   8.223   9.824
 6987SOL     OW22793   5.259   9.273   9.644
 6987SOL    HW122794   5.221   9.361   9.639
 6987SOL    HW222795   5.224   9.228   9.567
 6988SOL     OW22796   2.001  14.692  14.671
 6988SOL    HW122797   1.940  14.755  14.710
 6988SOL    HW222798   2.064  14.746  14.624
 6989SOL     OW22799  12.034  13.090  13.658
 6989SOL    HW122800  12.089  13.016  13.634
 6989SOL    HW222801  11.996  13.065  13.743
 6990SOL     OW22802   2.177   5.387  12.603
 6990SOL    HW122803   2.105   5.390  12.665
 6990SOL    HW222804   2.136   5.394  12.517
 6991SOL     OW22805   3.076   6.624   7.769
 6991SOL    HW122806   3.100   6.533   7.748
 6991SOL    HW222807   2.984   6.619   7.795
 6992SOL     OW22808   2.462  11.985   1.931
 6992SOL    HW122809   2.442  11.905   1.978
 6992SOL    HW222810   2.385  12.000   1.875
 6993SOL     OW22811  10.534  10.925  10.559
 6993SOL    HW122812  10.500  10.840  10.586
 6993SOL    HW222813  10.457  10.982  10.559
 6994SOL     OW22814   8.630   7.368   1.416
 6994SOL    HW122815   8.553   7.389   1.469
 6994SOL    HW222816   8.704   7.381   1.475
 6995SOL     OW22817   0.191   8.066   3.043
 6995SOL    HW122818   0.234   8.025   3.118
 6995SOL    HW222819   0.227   8.021   2.966
 6996SOL     OW22820  11.627   1.986   4.915
 6996SOL    HW122821  11.618   2.081   4.907
 6996SOL    HW222822  11.584   1.965   4.998
 6997SOL     OW22823  11.897   4.223   4.687
 6997SOL    HW122824  11.943   4.195   4.767
 6997SOL    HW222825  11.968   4.246   4.626
 6998SOL     OW22826  12.234   5.477  12.661
 6998SOL    HW122827  12.299   5.492  12.730
 6998SOL    HW222828  12.215   5.384  12.666
 6999SOL     OW22829  12.613   2.642   5.783
 6999SOL    HW122830  12.579   2.581   5.848
 6999SOL    HW222831  12.552   2.636   5.709
 7000SOL     OW22832   3.695   8.078  12.332
 7000SOL    HW122833   3.653   8.080  12.246
 7000SOL    HW222834   3.643   8.016  12.382
 7001SOL     OW22835   6.472  13.293  14.844
 7001SOL    HW122836   6.489  13.380   0.003
 7001SOL    HW222837   6.505  13.232   0.030
 7002SOL     OW22838   7.491  14.610   7.845
 7002SOL    HW122839   7.573  14.561   7.833
 7002SOL    HW222840   7.489  14.671   7.771
 7003SOL     OW22841   4.637   9.111  10.397
 7003SOL    HW122842   4.566   9.172  10.374
 7003SOL    HW222843   4.596   9.051  10.459
 7004SOL     OW22844   9.102  10.802   5.746
 7004SOL    HW122845   9.011  10.818   5.773
 7004SOL    HW222846   9.132  10.887   5.714
 7005SOL     OW22847   5.603  12.403  14.872
 7005SOL    HW122848   5.513  12.414   0.024
 7005SOL    HW222849   5.601  12.323  14.820
 7006SOL     OW22850  10.203   3.374  13.523
 7006SOL    HW122851  10.214   3.316  13.599
 7006SOL    HW222852  10.280   3.358  13.469
 7007SOL     OW22853   6.695  14.392   4.223
 7007SOL    HW122854   6.642  14.466   4.196
 7007SOL    HW222855   6.757  14.379   4.151
 7008SOL     OW22856   6.310   2.170   9.245
 7008SOL    HW122857   6.352   2.212   9.170
 7008SOL    HW222858   6.361   2.197   9.320
 7009SOL     OW22859   7.083  11.447   2.186
 7009SOL    HW122860   7.103  11.537   2.212
 7009SOL    HW222861   7.009  11.422   2.241
 7010SOL     OW22862   3.148   5.845   6.124
 7010SOL    HW122863   3.231   5.804   6.150
 7010SOL    HW222864   3.106   5.869   6.206
 7011SOL     OW22865   5.529   7.535  13.029
 7011SOL    HW122866   5.536   7.520  13.123
 7011SOL    HW222867   5.542   7.449  12.990
 7012SOL     OW22868   5.966   0.604   3.094
 7012SOL    HW122869   5.984   0.608   3.188
 7012SOL    HW222870   5.974   0.511   3.072
 7013SOL     OW22871   3.937   4.504   3.474
 7013SOL    HW122872   3.861   4.556   3.447
 7013SOL    HW222873   3.948   4.523   3.567
 7014SOL     OW22874  11.623  11.826   6.122
 7014SOL    HW122875  11.622  11.731   6.131
 7014SOL    HW222876  11.704  11.854   6.165
 7015SOL     OW22877   3.635   0.310   0.315
 7015SOL    HW122878   3.728   0.289   0.319
 7015SOL    HW222879   3.600   0.284   0.400
 7016SOL     OW22880   5.732   8.922  13.973
 7016SOL    HW122881   5.658   8.975  14.004
 7016SOL    HW222882   5.775   8.978  13.908
 7017SOL     OW22883  12.771   0.655   5.677
 7017SOL    HW122884  12.704   0.597   5.643
 7017SOL    HW222885  12.825   0.677   5.601
 7018SOL     OW22886   4.339   2.823   9.504
 7018SOL    HW122887   4.249   2.806   9.533
 7018SOL    HW222888   4.386   2.849   9.583
 7019SOL     OW22889   2.740   1.039  14.605
 7019SOL    HW122890   2.752   1.133  14.618
 7019SOL    HW222891   2.765   0.999  14.688
 7020SOL     OW22892   2.442   8.244   4.016
 7020SOL    HW122893   2.381   8.188   3.969
 7020SOL    HW222894   2.393   8.275   4.093
 7021SOL     OW22895  12.374  12.601  14.136
 7021SOL    HW122896  12.307  12.667  14.118
 7021SOL    HW222897  12.347  12.562  14.219
 7022SOL     OW22898  13.236  10.568   2.966
 7022SOL    HW122899  13.247  10.637   3.031
 7022SOL    HW222900  13.323  10.558   2.926
 7023SOL     OW22901   6.452   0.245  14.176
 7023SOL    HW122902   6.426   0.307  14.108
 7023SOL    HW222903   6.503   0.296  14.238
 7024SOL     OW22904   6.369   1.896   5.979
 7024SOL    HW122905   6.280   1.930   5.968
 7024SOL    HW222906   6.374   1.822   5.918
 7025SOL     OW22907   0.584   5.077   5.758
 7025SOL    HW122908   0.570   4.996   5.807
 7025SOL    HW222909   0.510   5.081   5.697
 7026SOL     OW22910  13.123   0.305   4.336
 7026SOL    HW122911  13.109   0.352   4.254
 7026SOL    HW222912  13.094   0.215   4.318
 7027SOL     OW22913   5.682  14.261   0.401
 7027SOL    HW122914   5.591  14.234   0.387
 7027SOL    HW222915   5.683  14.354   0.381
 7028SOL     OW22916   2.467  12.000   0.617
 7028SOL    HW122917   2.532  11.932   0.600
 7028SOL    HW222918   2.491  12.072   0.559
 7029SOL     OW22919  11.765   1.003  11.185
 7029SOL    HW122920  11.674   1.032  11.189
 7029SOL    HW222921  11.783   0.992  11.092
 7030SOL     OW22922   3.348   8.890  10.296
 7030SOL    HW122923   3.382   8.805  10.322
 7030SOL    HW222924   3.267   8.899  10.345
 7031SOL     OW22925   6.445   8.567  12.978
 7031SOL    HW122926   6.378   8.562  12.910
 7031SOL    HW222927   6.409   8.514  13.050
 7032SOL     OW22928   2.376   9.056   1.112
 7032SOL    HW122929   2.297   9.062   1.058
 7032SOL    HW222930   2.406   9.146   1.122
 7033SOL     OW22931   8.721   4.438   5.274
 7033SOL    HW122932   8.772   4.456   5.353
 7033SOL    HW222933   8.670   4.518   5.260
 7034SOL     OW22934  10.030   3.769   8.246
 7034SOL    HW122935  10.039   3.842   8.185
 7034SOL    HW222936   9.937   3.764   8.264
 7035SOL     OW22937   4.732   6.048  13.267
 7035SOL    HW122938   4.664   6.022  13.205
 7035SOL    HW222939   4.802   5.984  13.253
 7036SOL     OW22940  14.087   2.315   6.501
 7036SOL    HW122941  14.062   2.230   6.465
 7036SOL    HW222942  14.083   2.303   6.596
 7037SOL     OW22943   3.675   2.236  11.136
 7037SOL    HW122944   3.752   2.191  11.170
 7037SOL    HW222945   3.710   2.315  11.095
 7038SOL     OW22946  14.336   4.703  14.123
 7038SOL    HW122947  14.354   4.703  14.216
 7038SOL    HW222948  14.372   4.786  14.091
 7039SOL     OW22949   6.487   1.429   5.740
 7039SOL    HW122950   6.558   1.411   5.678
 7039SOL    HW222951   6.410   1.443   5.685
 7040SOL     OW22952   0.241  14.303   7.733
 7040SOL    HW122953   0.241  14.245   7.657
 7040SOL    HW222954   0.242  14.243   7.808
 7041SOL     OW22955   4.779   2.485   8.720
 7041SOL    HW122956   4.719   2.477   8.645
 7041SOL    HW222957   4.754   2.412   8.777
 7042SOL     OW22958  13.323   7.854   5.667
 7042SOL    HW122959  13.272   7.832   5.745
 7042SOL    HW222960  13.362   7.939   5.688
 7043SOL     OW22961  14.709  13.612   4.777
 7043SOL    HW122962  14.702  13.523   4.810
 7043SOL    HW222963  14.708  13.667   4.856
 7044SOL     OW22964  14.338   8.880   0.838
 7044SOL    HW122965  14.410   8.855   0.780
 7044SOL    HW222966  14.310   8.966   0.806
 7045SOL     OW22967  14.275  13.769   8.346
 7045SOL    HW122968  14.231  13.827   8.407
 7045SOL    HW222969  14.356  13.814   8.324
 7046SOL     OW22970   3.636   7.052  14.769
 7046SOL    HW122971   3.699   7.094  14.828
 7046SOL    HW222972   3.676   7.060  14.682
 7047SOL     OW22973  13.939   3.130   9.877
 7047SOL    HW122974  14.023   3.133   9.831
 7047SOL    HW222975  13.938   3.210   9.930
 7048SOL     OW22976  12.429   9.017   2.403
 7048SOL    HW122977  12.520   8.993   2.386
 7048SOL    HW222978  12.420   9.007   2.498
 7049SOL     OW22979   7.022   2.985  10.113
 7049SOL    HW122980   6.987   2.934  10.040
 7049SOL    HW222981   6.988   3.073  10.099
 7050SOL     OW22982  11.158  13.896  12.480
 7050SOL    HW122983  11.085  13.843  12.512
 7050SOL    HW222984  11.152  13.978  12.529
 7051SOL     OW22985  12.941  12.848  14.782
 7051SOL    HW122986  13.033  12.858  14.760
 7051SOL    HW222987  12.895  12.869  14.700
 7052SOL     OW22988   5.430  10.394   0.185
 7052SOL    HW122989   5.466  10.387   0.274
 7052SOL    HW222990   5.506  10.393   0.128
 7053SOL     OW22991  12.166  11.401   3.203
 7053SOL    HW122992  12.258  11.402   3.230
 7053SOL    HW222993  12.169  11.391   3.108
 7054SOL     OW22994   0.759   0.993  14.112
 7054SOL    HW122995   0.849   1.026  14.104
 7054SOL    HW222996   0.722   1.003  14.025
 7055SOL     OW22997   0.427   0.664  12.521
 7055SOL    HW122998   0.423   0.673  12.426
 7055SOL    HW222999   0.503   0.607  12.537
 7056SOL     OW23000  13.828  13.390   7.559
 7056SOL    HW123001  13.822  13.309   7.609
 7056SOL    HW223002  13.768  13.450   7.603
 7057SOL     OW23003   9.589   8.318   6.511
 7057SOL    HW123004   9.505   8.289   6.474
 7057SOL    HW223005   9.572   8.408   6.539
 7058SOL     OW23006  14.499   7.983   6.208
 7058SOL    HW123007  14.497   8.068   6.165
 7058SOL    HW223008  14.534   7.923   6.142
 7059SOL     OW23009  14.000   9.157  14.818
 7059SOL    HW123010  13.980   9.073  14.861
 7059SOL    HW223011  13.955   9.153  14.734
 7060SOL     OW23012  13.883  12.676   0.531
 7060SOL    HW123013  13.802  12.707   0.572
 7060SOL    HW223014  13.932  12.755   0.510
 7061SOL     OW23015  14.748  12.855   7.693
 7061SOL    HW123016  14.833  12.876   7.655
 7061SOL    HW223017  14.690  12.847   7.617
 7062SOL     OW23018   8.902   5.431   9.930
 7062SOL    HW123019   8.952   5.350   9.941
 7062SOL    HW223020   8.953   5.497   9.976
 7063SOL     OW23021   7.637   8.990   2.259
 7063SOL    HW123022   7.637   8.972   2.353
 7063SOL    HW223023   7.710   8.938   2.225
 7064SOL     OW23024   3.434  13.653  12.116
 7064SOL    HW123025   3.489  13.622  12.188
 7064SOL    HW223026   3.350  13.608  12.130
 7065SOL     OW23027  10.060  10.307   3.039
 7065SOL    HW123028  10.012  10.238   3.086
 7065SOL    HW223029  10.015  10.388   3.063
 7066SOL     OW23030  12.802   4.429   0.891
 7066SOL    HW123031  12.826   4.371   0.819
 7066SOL    HW223032  12.845   4.512   0.870
 7067SOL     OW23033   5.190  14.376   7.644
 7067SOL    HW123034   5.242  14.299   7.620
 7067SOL    HW223035   5.168  14.418   7.560
 7068SOL     OW23036   8.020   3.147  14.658
 7068SOL    HW123037   7.963   3.085  14.704
 7068SOL    HW223038   8.012   3.229  14.707
 7069SOL     OW23039  11.151   9.991   6.744
 7069SOL    HW123040  11.201   9.989   6.825
 7069SOL    HW223041  11.062   9.965   6.770
 7070SOL     OW23042   3.755   3.424   8.326
 7070SOL    HW123043   3.693   3.389   8.390
 7070SOL    HW223044   3.803   3.348   8.293
 7071SOL     OW23045  10.541   2.627   4.188
 7071SOL    HW123046  10.623   2.660   4.226
 7071SOL    HW223047  10.569   2.553   4.134
 7072SOL     OW23048  13.004  14.632  14.380
 7072SOL    HW123049  13.076  14.589  14.333
 7072SOL    HW223050  13.035  14.722  14.394
 7073SOL     OW23051   8.953   0.744  10.588
 7073SOL    HW123052   8.967   0.649  10.581
 7073SOL    HW223053   9.012   0.772  10.657
 7074SOL     OW23054   5.918   7.997   4.631
 7074SOL    HW123055   5.885   8.016   4.719
 7074SOL    HW223056   5.895   8.074   4.580
 7075SOL     OW23057   7.071   2.475   7.979
 7075SOL    HW123058   7.087   2.465   8.073
 7075SOL    HW223059   7.044   2.388   7.950
 7076SOL     OW23060  12.358  10.206   4.556
 7076SOL    HW123061  12.270  10.242   4.551
 7076SOL    HW223062  12.385  10.221   4.646
 7077SOL     OW23063   7.850   8.333  13.136
 7077SOL    HW123064   7.810   8.404  13.085
 7077SOL    HW223065   7.885   8.273  13.071
 7078SOL     OW23066   5.862   3.590  12.998
 7078SOL    HW123067   5.881   3.584  13.092
 7078SOL    HW223068   5.784   3.537  12.985
 7079SOL     OW23069   5.499   7.681   0.951
 7079SOL    HW123070   5.413   7.699   0.914
 7079SOL    HW223071   5.493   7.710   1.042
 7080SOL     OW23072   2.344  10.436   6.738
 7080SOL    HW123073   2.259  10.479   6.741
 7080SOL    HW223074   2.337  10.364   6.800
 7081SOL     OW23075   3.049   5.298   0.706
 7081SOL    HW123076   2.964   5.322   0.744
 7081SOL    HW223077   3.036   5.209   0.673
 7082SOL     OW23078   2.753   2.289   5.674
 7082SOL    HW123079   2.716   2.320   5.757
 7082SOL    HW223080   2.847   2.307   5.681
 7083SOL     OW23081   1.443   2.362   7.736
 7083SOL    HW123082   1.524   2.409   7.718
 7083SOL    HW223083   1.382   2.429   7.768
 7084SOL     OW23084  11.060   2.062  11.295
 7084SOL    HW123085  10.980   2.015  11.319
 7084SOL    HW223086  11.131   2.005  11.323
 7085SOL     OW23087   8.205  14.580   5.729
 7085SOL    HW123088   8.187  14.654   5.787
 7085SOL    HW223089   8.253  14.618   5.656
 7086SOL     OW23090  13.097  14.062   1.384
 7086SOL    HW123091  13.145  14.005   1.443
 7086SOL    HW223092  13.131  14.150   1.402
 7087SOL     OW23093  11.651  13.736   8.883
 7087SOL    HW123094  11.729  13.759   8.934
 7087SOL    HW223095  11.650  13.641   8.880
 7088SOL     OW23096   7.912   1.158  12.247
 7088SOL    HW123097   7.961   1.238  12.228
 7088SOL    HW223098   7.904   1.115  12.161
 7089SOL     OW23099   2.070   4.252  10.050
 7089SOL    HW123100   2.008   4.324  10.067
 7089SOL    HW223101   2.142   4.268  10.112
 7090SOL     OW23102   7.332  13.156  10.748
 7090SOL    HW123103   7.284  13.151  10.831
 7090SOL    HW223104   7.305  13.079  10.699
 7091SOL     OW23105   8.195   1.562   4.724
 7091SOL    HW123106   8.252   1.547   4.649
 7091SOL    HW223107   8.204   1.655   4.744
 7092SOL     OW23108   0.556   2.329   8.929
 7092SOL    HW123109   0.536   2.325   8.835
 7092SOL    HW223110   0.515   2.410   8.959
 7093SOL     OW23111  12.767  14.429   3.114
 7093SOL    HW123112  12.747  14.523   3.117
 7093SOL    HW223113  12.771  14.403   3.206
 7094SOL     OW23114  11.466  11.930   0.042
 7094SOL    HW123115  11.459  11.981   0.123
 7094SOL    HW223116  11.513  11.851   0.068
 7095SOL     OW23117   3.116   4.712  14.548
 7095SOL    HW123118   3.202   4.748  14.571
 7095SOL    HW223119   3.088   4.764  14.472
 7096SOL     OW23120   5.032   6.246  12.985
 7096SOL    HW123121   5.114   6.296  12.984
 7096SOL    HW223122   4.977   6.291  13.049
 7097SOL     OW23123   0.961  11.033   9.033
 7097SOL    HW123124   1.018  10.958   9.015
 7097SOL    HW223125   0.909  11.006   9.109
 7098SOL     OW23126   2.697  11.046   2.937
 7098SOL    HW123127   2.621  11.056   2.880
 7098SOL    HW223128   2.768  11.092   2.890
 7099SOL     OW23129   0.635  10.906  10.890
 7099SOL    HW123130   0.719  10.933  10.928
 7099SOL    HW223131   0.569  10.941  10.951
 7100SOL     OW23132   8.137  14.102  14.410
 7100SOL    HW123133   8.173  14.147  14.334
 7100SOL    HW223134   8.212  14.055  14.448
 7101SOL     OW23135   2.645  11.031  12.672
 7101SOL    HW123136   2.669  11.099  12.609
 7101SOL    HW223137   2.552  11.015  12.655
 7102SOL     OW23138  13.700  14.389  12.357
 7102SOL    HW123139  13.722  14.462  12.415
 7102SOL    HW223140  13.605  14.380  12.365
 7103SOL     OW23141   1.384  13.811   1.710
 7103SOL    HW123142   1.415  13.847   1.627
 7103SOL    HW223143   1.317  13.747   1.685
 7104SOL     OW23144  13.186   2.616   8.914
 7104SOL    HW123145  13.151   2.690   8.864
 7104SOL    HW223146  13.203   2.549   8.848
 7105SOL     OW23147  12.531   1.804   2.706
 7105SOL    HW123148  12.604   1.852   2.668
 7105SOL    HW223149  12.539   1.716   2.668
 7106SOL     OW23150   0.728   1.234   6.544
 7106SOL    HW123151   0.811   1.233   6.497
 7106SOL    HW223152   0.707   1.327   6.554
 7107SOL     OW23153  11.976   9.361   6.486
 7107SOL    HW123154  11.914   9.315   6.542
 7107SOL    HW223155  12.017   9.291   6.434
 7108SOL     OW23156   8.656   1.272   1.054
 7108SOL    HW123157   8.702   1.314   0.980
 7108SOL    HW223158   8.710   1.292   1.130
 7109SOL     OW23159  14.170   2.673   2.705
 7109SOL    HW123160  14.236   2.698   2.770
 7109SOL    HW223161  14.134   2.756   2.675
 7110SOL     OW23162   3.968   6.136  11.904
 7110SOL    HW123163   3.960   6.231  11.901
 7110SOL    HW223164   3.949   6.113  11.995
 7111SOL     OW23165   3.090   7.808  12.057
 7111SOL    HW123166   3.126   7.837  11.973
 7111SOL    HW223167   3.077   7.888  12.107
 7112SOL     OW23168   0.856   7.677  14.215
 7112SOL    HW123169   0.775   7.726  14.232
 7112SOL    HW223170   0.854   7.605  14.277
 7113SOL     OW23171  10.636   7.861  12.492
 7113SOL    HW123172  10.639   7.809  12.572
 7113SOL    HW223173  10.569   7.819  12.438
 7114SOL     OW23174   5.960   1.147   6.959
 7114SOL    HW123175   5.932   1.059   6.934
 7114SOL    HW223176   5.891   1.205   6.926
 7115SOL     OW23177  13.103   0.172  14.668
 7115SOL    HW123178  13.166   0.145  14.600
 7115SOL    HW223179  13.025   0.121  14.649
 7116SOL     OW23180   7.233   9.665  12.468
 7116SOL    HW123181   7.222   9.570  12.472
 7116SOL    HW223182   7.228   9.693  12.560
 7117SOL     OW23183  11.336   5.940   6.406
 7117SOL    HW123184  11.350   5.867   6.345
 7117SOL    HW223185  11.298   5.899   6.484
 7118SOL     OW23186   3.320   6.132   0.383
 7118SOL    HW123187   3.395   6.136   0.324
 7118SOL    HW223188   3.338   6.057   0.440
 7119SOL     OW23189  10.870   3.932   8.952
 7119SOL    HW123190  10.909   3.926   9.039
 7119SOL    HW223191  10.937   3.973   8.898
 7120SOL     OW23192  12.944  11.723  12.110
 7120SOL    HW123193  12.972  11.742  12.199
 7120SOL    HW223194  13.004  11.772  12.055
 7121SOL     OW23195  11.012   5.624   5.021
 7121SOL    HW123196  10.980   5.547   5.068
 7121SOL    HW223197  11.044   5.683   5.089
 7122SOL     OW23198   2.044   7.286  10.145
 7122SOL    HW123199   1.968   7.264  10.199
 7122SOL    HW223200   2.086   7.359  10.191
 7123SOL     OW23201   4.176   9.986   2.005
 7123SOL    HW123202   4.265   9.971   1.973
 7123SOL    HW223203   4.163   9.918   2.071
 7124SOL     OW23204  14.288  13.683  12.119
 7124SOL    HW123205  14.229  13.710  12.048
 7124SOL    HW223206  14.305  13.590  12.103
 7125SOL     OW23207  11.615   6.982   7.221
 7125SOL    HW123208  11.669   6.906   7.201
 7125SOL    HW223209  11.527   6.947   7.232
 7126SOL     OW23210   9.618   8.263   9.455
 7126SOL    HW123211   9.596   8.255   9.362
 7126SOL    HW223212   9.534   8.251   9.500
 7127SOL     OW23213  13.006  13.721   7.063
 7127SOL    HW123214  13.041  13.632   7.058
 7127SOL    HW223215  13.075  13.771   7.107
 7128SOL     OW23216   9.162   8.209   6.236
 7128SOL    HW123217   9.177   8.264   6.159
 7128SOL    HW223218   9.143   8.123   6.200
 7129SOL     OW23219  11.617   8.687   5.035
 7129SOL    HW123220  11.543   8.748   5.028
 7129SOL    HW223221  11.681   8.719   4.971
 7130SOL     OW23222  12.783   9.329  14.618
 7130SOL    HW123223  12.731   9.311  14.696
 7130SOL    HW223224  12.810   9.420  14.627
 7131SOL     OW23225   1.511   2.383  12.165
 7131SOL    HW123226   1.489   2.475  12.179
 7131SOL    HW223227   1.492   2.341  12.249
 7132SOL     OW23228   9.216  13.590   3.547
 7132SOL    HW123229   9.132  13.637   3.547
 7132SOL    HW223230   9.279  13.653   3.580
 7133SOL     OW23231   8.501   8.017  13.518
 7133SOL    HW123232   8.407   8.035  13.510
 7133SOL    HW223233   8.542   8.103  13.516
 7134SOL     OW23234   0.019   6.161   6.470
 7134SOL    HW123235  14.824   6.199   6.516
 7134SOL    HW223236   0.087   6.229   6.473
 7135SOL     OW23237  14.547   0.618   9.719
 7135SOL    HW123238  14.563   0.707   9.750
 7135SOL    HW223239  14.452   0.610   9.715
 7136SOL     OW23240   4.430  11.977   2.964
 7136SOL    HW123241   4.388  11.914   2.905
 7136SOL    HW223242   4.515  11.938   2.983
 7137SOL     OW23243   6.508  14.047   8.757
 7137SOL    HW123244   6.567  14.061   8.831
 7137SOL    HW223245   6.561  14.067   8.680
 7138SOL     OW23246  12.706   7.874   9.759
 7138SOL    HW123247  12.716   7.884   9.664
 7138SOL    HW223248  12.785   7.914   9.795
 7139SOL     OW23249   0.945  12.529   8.168
 7139SOL    HW123250   1.014  12.514   8.103
 7139SOL    HW223251   0.945  12.448   8.221
 7140SOL     OW23252   3.988   2.086   4.180
 7140SOL    HW123253   3.996   2.130   4.095
 7140SOL    HW223254   4.078   2.077   4.211
 7141SOL     OW23255   6.166  10.514   9.227
 7141SOL    HW123256   6.152  10.450   9.158
 7141SOL    HW223257   6.097  10.496   9.291
 7142SOL     OW23258  11.582   4.589   4.025
 7142SOL    HW123259  11.573   4.510   3.970
 7142SOL    HW223260  11.620   4.654   3.967
 7143SOL     OW23261  11.377  10.580   8.490
 7143SOL    HW123262  11.292  10.545   8.514
 7143SOL    HW223263  11.440  10.524   8.536
 7144SOL     OW23264  12.465   9.553   2.591
 7144SOL    HW123265  12.438   9.485   2.652
 7144SOL    HW223266  12.554   9.528   2.565
 7145SOL     OW23267   2.730   6.019   5.586
 7145SOL    HW123268   2.824   6.007   5.603
 7145SOL    HW223269   2.721   6.008   5.492
 7146SOL     OW23270  14.452   9.767   4.494
 7146SOL    HW123271  14.536   9.776   4.449
 7146SOL    HW223272  14.401   9.707   4.440
 7147SOL     OW23273  12.883   7.581  13.794
 7147SOL    HW123274  12.839   7.613  13.715
 7147SOL    HW223275  12.884   7.656  13.854
 7148SOL     OW23276   2.055   3.975   2.078
 7148SOL    HW123277   2.121   4.002   2.014
 7148SOL    HW223278   1.982   3.942   2.026
 7149SOL     OW23279   5.850   0.037   5.443
 7149SOL    HW123280   5.908   0.007   5.373
 7149SOL    HW223281   5.763   0.039   5.402
 7150SOL     OW23282  13.392  14.271   3.132
 7150SOL    HW123283  13.327  14.200   3.131
 7150SOL    HW223284  13.446  14.252   3.209
 7151SOL     OW23285   8.403   6.560   6.771
 7151SOL    HW123286   8.340   6.632   6.777
 7151SOL    HW223287   8.488   6.602   6.786
 7152SOL     OW23288   7.954  11.758  14.690
 7152SOL    HW123289   7.962  11.664  14.678
 7152SOL    HW223290   7.881  11.784  14.634
 7153SOL     OW23291   1.478   6.613   5.115
 7153SOL    HW123292   1.435   6.657   5.041
 7153SOL    HW223293   1.571   6.613   5.091
 7154SOL     OW23294  12.136   5.185  14.785
 7154SOL    HW123295  12.073   5.135  14.836
 7154SOL    HW223296  12.220   5.166  14.827
 7155SOL     OW23297   8.894  11.484   6.545
 7155SOL    HW123298   8.818  11.504   6.492
 7155SOL    HW223299   8.878  11.529   6.628
 7156SOL     OW23300   4.474   9.179  11.215
 7156SOL    HW123301   4.431   9.264  11.202
 7156SOL    HW223302   4.565   9.201  11.233
 7157SOL     OW23303   2.538  12.148   9.120
 7157SOL    HW123304   2.444  12.162   9.106
 7157SOL    HW223305   2.555  12.185   9.206
 7158SOL     OW23306   2.023  12.192   4.048
 7158SOL    HW123307   1.992  12.276   4.016
 7158SOL    HW223308   1.943  12.149   4.081
 7159SOL     OW23309  10.455   8.739   7.775
 7159SOL    HW123310  10.451   8.832   7.799
 7159SOL    HW223311  10.364   8.709   7.780
 7160SOL     OW23312   1.260  12.666   8.999
 7160SOL    HW123313   1.322  12.594   8.992
 7160SOL    HW223314   1.185  12.628   9.046
 7161SOL     OW23315   3.525  14.468  11.761
 7161SOL    HW123316   3.581  14.511  11.697
 7161SOL    HW223317   3.554  14.503  11.846
 7162SOL     OW23318   9.201   3.946  11.781
 7162SOL    HW123319   9.253   3.960  11.859
 7162SOL    HW223320   9.243   3.873  11.736
 7163SOL     OW23321  10.656   1.525  14.208
 7163SOL    HW123322  10.744   1.551  14.180
 7163SOL    HW223323  10.671   1.476  14.289
 7164SOL     OW23324  14.587   8.579   2.649
 7164SOL    HW123325  14.630   8.660   2.622
 7164SOL    HW223326  14.650   8.536   2.707
 7165SOL     OW23327  12.041  11.363  14.206
 7165SOL    HW123328  12.002  11.345  14.291
 7165SOL    HW223329  12.095  11.287  14.187
 7166SOL     OW23330  14.476   1.527  10.237
 7166SOL    HW123331  14.390   1.569  10.223
 7166SOL    HW223332  14.462   1.435  10.217
 7167SOL     OW23333  10.056  12.587   1.695
 7167SOL    HW123334  10.067  12.682   1.685
 7167SOL    HW223335   9.963  12.572   1.675
 7168SOL     OW23336   3.079   2.094  11.925
 7168SOL    HW123337   3.147   2.047  11.975
 7168SOL    HW223338   3.057   2.034  11.854
 7169SOL     OW23339  12.870   9.273   1.661
 7169SOL    HW123340  12.943   9.266   1.600
 7169SOL    HW223341  12.816   9.196   1.643
 7170SOL     OW23342   5.026  11.493   7.083
 7170SOL    HW123343   5.111  11.533   7.103
 7170SOL    HW223344   4.966  11.530   7.148
 7171SOL     OW23345   2.483   6.960   9.051
 7171SOL    HW123346   2.425   7.036   9.052
 7171SOL    HW223347   2.503   6.944   9.143
 7172SOL     OW23348   0.258   0.003   5.583
 7172SOL    HW123349   0.225  14.812   5.526
 7172SOL    HW223350   0.188   0.015   5.648
 7173SOL     OW23351   1.927   3.688   1.091
 7173SOL    HW123352   1.973   3.762   1.129
 7173SOL    HW223353   1.910   3.630   1.165
 7174SOL     OW23354   7.111  12.199   0.090
 7174SOL    HW123355   7.054  12.229   0.020
 7174SOL    HW223356   7.053  12.155   0.152
 7175SOL     OW23357  13.039   1.931  13.838
 7175SOL    HW123358  13.012   1.893  13.754
 7175SOL    HW223359  12.976   2.000  13.855
 7176SOL     OW23360   1.584   8.855   3.064
 7176SOL    HW123361   1.566   8.878   2.973
 7176SOL    HW223362   1.667   8.808   3.061
 7177SOL     OW23363   7.086  11.419   9.575
 7177SOL    HW123364   7.036  11.501   9.583
 7177SOL    HW223365   7.021  11.354   9.549
 7178SOL     OW23366   5.757   7.354   3.575
 7178SOL    HW123367   5.844   7.387   3.595
 7178SOL    HW223368   5.727   7.406   3.500
 7179SOL     OW23369  14.446  11.141   3.828
 7179SOL    HW123370  14.448  11.181   3.742
 7179SOL    HW223371  14.537  11.116   3.845
 7180SOL     OW23372   1.599   6.219   2.673
 7180SOL    HW123373   1.514   6.177   2.660
 7180SOL    HW223374   1.640   6.167   2.742
 7181SOL     OW23375   8.297   5.704  11.462
 7181SOL    HW123376   8.310   5.645  11.536
 7181SOL    HW223377   8.370   5.686  11.403
 7182SOL     OW23378  13.926   1.848   1.480
 7182SOL    HW123379  13.960   1.790   1.548
 7182SOL    HW223380  13.920   1.934   1.522
 7183SOL     OW23381  10.467   1.993  14.270
 7183SOL    HW123382  10.390   2.004  14.325
 7183SOL    HW223383  10.459   2.060  14.203
 7184SOL     OW23384   9.917   6.129  10.829
 7184SOL    HW123385   9.914   6.220  10.800
 7184SOL    HW223386   9.962   6.082  10.759
 7185SOL     OW23387   8.457   7.176   6.406
 7185SOL    HW123388   8.540   7.129   6.405
 7185SOL    HW223389   8.420   7.159   6.493
 7186SOL     OW23390   0.949  11.374  10.000
 7186SOL    HW123391   0.872  11.397  10.052
 7186SOL    HW223392   1.007  11.330  10.061
 7187SOL     OW23393  12.219  13.940  14.219
 7187SOL    HW123394  12.283  13.945  14.147
 7187SOL    HW223395  12.180  13.853  14.209
 7188SOL     OW23396  12.404  10.774   5.978
 7188SOL    HW123397  12.327  10.827   5.955
 7188SOL    HW223398  12.475  10.812   5.927
 7189SOL     OW23399   2.179   3.644   0.715
 7189SOL    HW123400   2.234   3.714   0.750
 7189SOL    HW223401   2.138   3.605   0.792
 7190SOL     OW23402  13.920   9.822  12.240
 7190SOL    HW123403  14.007   9.832  12.202
 7190SOL    HW223404  13.870   9.775  12.173
 7191SOL     OW23405  13.254   8.303   3.605
 7191SOL    HW123406  13.169   8.273   3.571
 7191SOL    HW223407  13.232   8.379   3.659
 7192SOL     OW23408   5.542  13.293   1.422
 7192SOL    HW123409   5.577  13.255   1.503
 7192SOL    HW223410   5.506  13.377   1.449
 7193SOL     OW23411  14.690  10.533  13.707
 7193SOL    HW123412  14.637  10.610  13.729
 7193SOL    HW223413  14.777  10.554  13.740
 7194SOL     OW23414   9.765   6.558   4.352
 7194SOL    HW123415   9.822   6.581   4.426
 7194SOL    HW223416   9.822   6.560   4.276
 7195SOL     OW23417   8.773   5.677   6.666
 7195SOL    HW123418   8.845   5.705   6.722
 7195SOL    HW223419   8.804   5.692   6.577
 7196SOL     OW23420   0.516   2.684   3.158
 7196SOL    HW123421   0.461   2.755   3.124
 7196SOL    HW223422   0.459   2.638   3.220
 7197SOL     OW23423   2.985  13.408  11.964
 7197SOL    HW123424   2.976  13.493  11.921
 7197SOL    HW223425   2.907  13.359  11.936
 7198SOL     OW23426   4.543   5.676   1.373
 7198SOL    HW123427   4.524   5.697   1.465
 7198SOL    HW223428   4.465   5.706   1.326
 7199SOL     OW23429   0.122   3.122   5.971
 7199SOL    HW123430   0.163   3.126   5.885
 7199SOL    HW223431   0.029   3.106   5.953
 7200SOL     OW23432  11.260   3.661  12.072
 7200SOL    HW123433  11.220   3.675  12.158
 7200SOL    HW223434  11.198   3.700  12.010
 7201SOL     OW23435   4.198  12.250  11.454
 7201SOL    HW123436   4.225  12.314  11.388
 7201SOL    HW223437   4.118  12.286  11.492
 7202SOL     OW23438   1.440  13.069  11.512
 7202SOL    HW123439   1.369  13.096  11.454
 7202SOL    HW223440   1.395  13.035  11.590
 7203SOL     OW23441   0.399  13.938  13.203
 7203SOL    HW123442   0.471  13.989  13.164
 7203SOL    HW223443   0.320  13.984  13.176
 7204SOL     OW23444   2.318  14.283  11.373
 7204SOL    HW123445   2.334  14.255  11.463
 7204SOL    HW223446   2.395  14.254  11.325
 7205SOL     OW23447  13.064   0.696  14.810
 7205SOL    HW123448  13.152   0.728  14.829
 7205SOL    HW223449  13.078   0.625  14.747
 7206SOL     OW23450   2.235   4.998   6.158
 7206SOL    HW123451   2.149   5.037   6.172
 7206SOL    HW223452   2.219   4.904   6.159
 7207SOL     OW23453   7.565  11.029   2.555
 7207SOL    HW123454   7.516  11.090   2.610
 7207SOL    HW223455   7.519  11.031   2.471
 7208SOL     OW23456   6.876  14.791   2.854
 7208SOL    HW123457   6.959  14.798   2.902
 7208SOL    HW223458   6.846   0.002   2.843
 7209SOL     OW23459   8.835   3.374  11.684
 7209SOL    HW123460   8.816   3.282  11.665
 7209SOL    HW223461   8.858   3.411  11.599
 7210SOL     OW23462   6.229   0.813   9.880
 7210SOL    HW123463   6.240   0.775   9.793
 7210SOL    HW223464   6.312   0.856   9.899
 7211SOL     OW23465   9.879  14.157   5.818
 7211SOL    HW123466   9.824  14.235   5.813
 7211SOL    HW223467   9.824  14.092   5.861
 7212SOL     OW23468   5.651   6.795   9.490
 7212SOL    HW123469   5.590   6.738   9.538
 7212SOL    HW223470   5.630   6.779   9.398
 7213SOL     OW23471   7.425   2.487  14.734
 7213SOL    HW123472   7.450   2.573  14.701
 7213SOL    HW223473   7.333   2.497  14.759
 7214SOL     OW23474   3.277   5.358   2.064
 7214SOL    HW123475   3.326   5.393   1.989
 7214SOL    HW223476   3.241   5.276   2.032
 7215SOL     OW23477   4.073  11.705   3.718
 7215SOL    HW123478   4.042  11.623   3.756
 7215SOL    HW223479   4.156  11.682   3.677
 7216SOL     OW23480   6.001   7.859  10.372
 7216SOL    HW123481   5.946   7.849  10.450
 7216SOL    HW223482   5.978   7.784  10.317
 7217SOL     OW23483  11.515  11.846   1.585
 7217SOL    HW123484  11.453  11.796   1.638
 7217SOL    HW223485  11.594  11.792   1.582
 7218SOL     OW23486   2.655   2.148   0.285
 7218SOL    HW123487   2.681   2.061   0.256
 7218SOL    HW223488   2.713   2.168   0.358
 7219SOL     OW23489  10.453   2.107   8.292
 7219SOL    HW123490  10.507   2.157   8.231
 7219SOL    HW223491  10.384   2.069   8.238
 7220SOL     OW23492   0.391   8.453   5.795
 7220SOL    HW123493   0.414   8.455   5.888
 7220SOL    HW223494   0.346   8.536   5.779
 7221SOL     OW23495   3.057   2.097   3.125
 7221SOL    HW123496   3.117   2.169   3.147
 7221SOL    HW223497   2.981   2.140   3.086
 7222SOL     OW23498   0.734   8.722   4.062
 7222SOL    HW123499   0.774   8.702   4.147
 7222SOL    HW223500   0.738   8.640   4.013
 7223SOL     OW23501  13.411   0.301   0.347
 7223SOL    HW123502  13.445   0.373   0.399
 7223SOL    HW223503  13.476   0.288   0.278
 7224SOL     OW23504   2.980   4.200  12.933
 7224SOL    HW123505   3.071   4.191  12.903
 7224SOL    HW223506   2.949   4.279  12.889
 7225SOL     OW23507   2.137   5.216   6.809
 7225SOL    HW123508   2.107   5.135   6.850
 7225SOL    HW223509   2.061   5.247   6.759
 7226SOL     OW23510   8.946   5.674   8.573
 7226SOL    HW123511   8.864   5.723   8.581
 7226SOL    HW223512   8.918   5.582   8.574
 7227SOL     OW23513  11.977   5.170   6.562
 7227SOL    HW123514  12.044   5.106   6.539
 7227SOL    HW223515  12.027   5.247   6.591
 7228SOL     OW23516   8.736   9.567   0.237
 7228SOL    HW123517   8.726   9.658   0.208
 7228SOL    HW223518   8.823   9.542   0.208
 7229SOL     OW23519   9.138  12.932   7.025
 7229SOL    HW123520   9.072  12.888   7.079
 7229SOL    HW223521   9.129  12.892   6.939
 7230SOL     OW23522  12.733  11.102   1.619
 7230SOL    HW123523  12.716  11.048   1.541
 7230SOL    HW223524  12.800  11.164   1.590
 7231SOL     OW23525  11.207  10.851   1.911
 7231SOL    HW123526  11.143  10.898   1.964
 7231SOL    HW223527  11.155  10.808   1.843
 7232SOL     OW23528  12.168   9.809   7.280
 7232SOL    HW123529  12.247   9.761   7.305
 7232SOL    HW223530  12.123   9.751   7.219
 7233SOL     OW23531   3.706  12.108   7.537
 7233SOL    HW123532   3.708  12.125   7.631
 7233SOL    HW223533   3.789  12.141   7.504
 7234SOL     OW23534   3.483  13.420   1.513
 7234SOL    HW123535   3.411  13.482   1.527
 7234SOL    HW223536   3.527  13.416   1.597
 7235SOL     OW23537  12.435   6.125   2.604
 7235SOL    HW123538  12.506   6.190   2.611
 7235SOL    HW223539  12.444   6.090   2.516
 7236SOL     OW23540   6.849   4.845   6.581
 7236SOL    HW123541   6.930   4.876   6.622
 7236SOL    HW223542   6.852   4.749   6.590
 7237SOL     OW23543   6.431   4.582   9.579
 7237SOL    HW123544   6.376   4.623   9.645
 7237SOL    HW223545   6.418   4.634   9.500
 7238SOL     OW23546   8.480   4.742  11.679
 7238SOL    HW123547   8.571   4.750  11.650
 7238SOL    HW223548   8.479   4.661  11.730
 7239SOL     OW23549   6.875   4.573   9.689
 7239SOL    HW123550   6.906   4.496   9.642
 7239SOL    HW223551   6.952   4.629   9.696
 7240SOL     OW23552  10.349  14.480   3.201
 7240SOL    HW123553  10.411  14.519   3.262
 7240SOL    HW223554  10.264  14.515   3.226
 7241SOL     OW23555  12.700   8.942   2.637
 7241SOL    HW123556  12.628   9.005   2.645
 7241SOL    HW223557  12.663   8.870   2.585
 7242SOL     OW23558   3.210   7.934  11.846
 7242SOL    HW123559   3.213   7.942  11.751
 7242SOL    HW223560   3.300   7.951  11.874
 7243SOL     OW23561   2.735   3.329   2.231
 7243SOL    HW123562   2.796   3.377   2.176
 7243SOL    HW223563   2.766   3.344   2.320
 7244SOL     OW23564   3.010  12.015   7.194
 7244SOL    HW123565   2.966  12.094   7.161
 7244SOL    HW223566   3.012  12.028   7.289
 7245SOL     OW23567   2.266   6.366   7.019
 7245SOL    HW123568   2.310   6.321   6.947
 7245SOL    HW223569   2.331   6.370   7.089
 7246SOL     OW23570   1.907   0.785  10.988
 7246SOL    HW123571   1.834   0.838  10.957
 7246SOL    HW223572   1.985   0.835  10.963
 7247SOL     OW23573  12.132   7.519   0.102
 7247SOL    HW123574  12.103   7.500   0.191
 7247SOL    HW223575  12.226   7.500   0.103
 7248SOL     OW23576  10.438   4.746   0.295
 7248SOL    HW123577  10.502   4.808   0.261
 7248SOL    HW223578  10.431   4.679   0.227
 7249SOL     OW23579   4.416   2.094  14.428
 7249SOL    HW123580   4.421   2.032  14.500
 7249SOL    HW223581   4.482   2.161  14.449
 7250SOL     OW23582   7.741   6.518   5.448
 7250SOL    HW123583   7.732   6.583   5.517
 7250SOL    HW223584   7.714   6.436   5.490
 7251SOL     OW23585  10.903   8.891   5.824
 7251SOL    HW123586  10.813   8.889   5.791
 7251SOL    HW223587  10.943   8.811   5.791
 7252SOL     OW23588   6.695  13.444   3.622
 7252SOL    HW123589   6.657  13.525   3.589
 7252SOL    HW223590   6.629  13.377   3.603
 7253SOL     OW23591   7.453   8.740   4.369
 7253SOL    HW123592   7.397   8.700   4.302
 7253SOL    HW223593   7.464   8.830   4.339
 7254SOL     OW23594  14.652   0.716   5.837
 7254SOL    HW123595  14.653   0.703   5.932
 7254SOL    HW223596  14.648   0.811   5.826
 7255SOL     OW23597   4.679   6.159  12.769
 7255SOL    HW123598   4.755   6.124  12.722
 7255SOL    HW223599   4.620   6.188  12.699
 7256SOL     OW23600  10.296   0.346  11.060
 7256SOL    HW123601  10.383   0.387  11.062
 7256SOL    HW223602  10.242   0.406  11.007
 7257SOL     OW23603  11.431  10.745   2.772
 7257SOL    HW123604  11.477  10.828   2.779
 7257SOL    HW223605  11.354  10.755   2.828
 7258SOL     OW23606   7.091   9.014   9.767
 7258SOL    HW123607   7.109   9.044   9.677
 7258SOL    HW223608   6.998   8.993   9.767
 7259SOL     OW23609  13.379   0.799   9.592
 7259SOL    HW123610  13.318   0.728   9.572
 7259SOL    HW223611  13.322   0.875   9.605
 7260SOL     OW23612   3.752  12.618   0.109
 7260SOL    HW123613   3.680  12.641   0.050
 7260SOL    HW223614   3.722  12.537   0.152
 7261SOL     OW23615  10.553   3.401   7.870
 7261SOL    HW123616  10.604   3.415   7.789
 7261SOL    HW223617  10.538   3.489   7.904
 7262SOL     OW23618  10.372  10.104  13.400
 7262SOL    HW123619  10.309  10.116  13.329
 7262SOL    HW223620  10.423  10.184  13.401
 7263SOL     OW23621   1.380   7.642   3.974
 7263SOL    HW123622   1.423   7.726   3.992
 7263SOL    HW223623   1.383   7.595   4.057
 7264SOL     OW23624  10.611   6.219  13.259
 7264SOL    HW123625  10.594   6.210  13.353
 7264SOL    HW223626  10.622   6.313  13.246
 7265SOL     OW23627   1.031   3.327   2.050
 7265SOL    HW123628   1.079   3.315   1.968
 7265SOL    HW223629   1.014   3.237   2.080
 7266SOL     OW23630   4.489   9.744   9.970
 7266SOL    HW123631   4.441   9.666   9.943
 7266SOL    HW223632   4.433   9.785  10.036
 7267SOL     OW23633   6.144  13.863   0.030
 7267SOL    HW123634   6.180  13.927   0.092
 7267SOL    HW223635   6.208  13.860  14.838
 7268SOL     OW23636   0.770  13.998   8.236
 7268SOL    HW123637   0.686  14.036   8.212
 7268SOL    HW223638   0.759  13.972   8.328
 7269SOL     OW23639  14.553   8.414   7.935
 7269SOL    HW123640  14.490   8.408   7.863
 7269SOL    HW223641  14.606   8.491   7.915
 7270SOL     OW23642   6.625   5.946   6.487
 7270SOL    HW123643   6.640   5.933   6.580
 7270SOL    HW223644   6.620   5.858   6.450
 7271SOL     OW23645  12.540   7.595  13.200
 7271SOL    HW123646  12.629   7.630  13.193
 7271SOL    HW223647  12.488   7.668  13.232
 7272SOL     OW23648   6.164   8.247   2.921
 7272SOL    HW123649   6.128   8.335   2.929
 7272SOL    HW223650   6.138   8.203   3.002
 7273SOL     OW23651  11.721   7.822   7.034
 7273SOL    HW123652  11.626   7.825   7.021
 7273SOL    HW223653  11.733   7.814   7.129
 7274SOL     OW23654   3.393   3.097   7.267
 7274SOL    HW123655   3.344   3.104   7.350
 7274SOL    HW223656   3.482   3.123   7.290
 7275SOL     OW23657   0.629  11.292   1.682
 7275SOL    HW123658   0.661  11.381   1.675
 7275SOL    HW223659   0.707  11.237   1.678
 7276SOL     OW23660   5.153   0.735   1.419
 7276SOL    HW123661   5.062   0.727   1.390
 7276SOL    HW223662   5.153   0.700   1.508
 7277SOL     OW23663   8.208   1.347  12.629
 7277SOL    HW123664   8.237   1.257  12.641
 7277SOL    HW223665   8.286   1.393  12.596
 7278SOL     OW23666  14.254   5.520   9.370
 7278SOL    HW123667  14.219   5.493   9.285
 7278SOL    HW223668  14.176   5.534   9.425
 7279SOL     OW23669   6.931  11.231   9.474
 7279SOL    HW123670   6.855  11.206   9.526
 7279SOL    HW223671   6.958  11.150   9.431
 7280SOL     OW23672  10.609  12.825   4.746
 7280SOL    HW123673  10.584  12.791   4.660
 7280SOL    HW223674  10.560  12.907   4.755
 7281SOL     OW23675   5.870  13.613   6.531
 7281SOL    HW123676   5.883  13.692   6.583
 7281SOL    HW223677   5.815  13.557   6.586
 7282SOL     OW23678   2.962  14.845   3.916
 7282SOL    HW123679   2.956   0.053   3.956
 7282SOL    HW223680   3.002  14.861   3.831
 7283SOL     OW23681   8.589   9.723   7.573
 7283SOL    HW123682   8.561   9.693   7.660
 7283SOL    HW223683   8.640   9.650   7.538
 7284SOL     OW23684  11.318   3.152  13.518
 7284SOL    HW123685  11.320   3.197  13.433
 7284SOL    HW223686  11.359   3.213  13.579
 7285SOL     OW23687   8.295  11.947   2.216
 7285SOL    HW123688   8.254  11.988   2.292
 7285SOL    HW223689   8.221  11.917   2.163
 7286SOL     OW23690   0.218   5.206   2.364
 7286SOL    HW123691   0.154   5.203   2.293
 7286SOL    HW223692   0.225   5.299   2.385
 7287SOL     OW23693   1.929   9.858  14.139
 7287SOL    HW123694   1.856   9.829  14.084
 7287SOL    HW223695   1.957   9.941  14.101
 7288SOL     OW23696   2.794   0.580   1.134
 7288SOL    HW123697   2.880   0.538   1.143
 7288SOL    HW223698   2.731   0.508   1.143
 7289SOL     OW23699   9.291   2.891   0.677
 7289SOL    HW123700   9.315   2.880   0.585
 7289SOL    HW223701   9.253   2.807   0.702
 7290SOL     OW23702   9.849  13.707   2.403
 7290SOL    HW123703   9.816  13.648   2.336
 7290SOL    HW223704   9.838  13.795   2.367
 7291SOL     OW23705   5.442  11.427   2.441
 7291SOL    HW123706   5.470  11.511   2.477
 7291SOL    HW223707   5.524  11.385   2.413
 7292SOL     OW23708  13.060   3.464  14.242
 7292SOL    HW123709  12.985   3.493  14.191
 7292SOL    HW223710  13.043   3.371  14.260
 7293SOL     OW23711   1.190   4.467   4.971
 7293SOL    HW123712   1.146   4.525   4.909
 7293SOL    HW223713   1.219   4.393   4.918
 7294SOL     OW23714   5.594   9.854  12.320
 7294SOL    HW123715   5.656   9.784  12.341
 7294SOL    HW223716   5.556   9.828  12.236
 7295SOL     OW23717   9.700   4.664   2.777
 7295SOL    HW123718   9.660   4.579   2.795
 7295SOL    HW223719   9.653   4.725   2.834
 7296SOL     OW23720   4.732  13.798   8.448
 7296SOL    HW123721   4.702  13.843   8.528
 7296SOL    HW223722   4.668  13.824   8.382
 7297SOL     OW23723   1.754  11.344   6.813
 7297SOL    HW123724   1.730  11.424   6.860
 7297SOL    HW223725   1.767  11.278   6.881
 7298SOL     OW23726   0.410   0.157  14.283
 7298SOL    HW123727   0.386   0.162  14.375
 7298SOL    HW223728   0.439   0.246  14.261
 7299SOL     OW23729   6.606   2.438   7.028
 7299SOL    HW123730   6.556   2.371   6.980
 7299SOL    HW223731   6.571   2.521   6.995
 7300SOL     OW23732  14.637  10.926  10.973
 7300SOL    HW123733  14.568  10.992  10.966
 7300SOL    HW223734  14.702  10.964  11.031
 7301SOL     OW23735   6.602   2.319   5.467
 7301SOL    HW123736   6.678   2.355   5.422
 7301SOL    HW223737   6.527   2.364   5.429
 7302SOL     OW23738  11.710   5.889   1.425
 7302SOL    HW123739  11.796   5.848   1.428
 7302SOL    HW223740  11.672   5.872   1.511
 7303SOL     OW23741   9.023   1.420   7.521
 7303SOL    HW123742   8.978   1.454   7.444
 7303SOL    HW223743   9.013   1.488   7.587
 7304SOL     OW23744  11.451   2.077  10.497
 7304SOL    HW123745  11.372   2.030  10.524
 7304SOL    HW223746  11.485   2.026  10.423
 7305SOL     OW23747  12.940   1.190   7.453
 7305SOL    HW123748  12.979   1.246   7.385
 7305SOL    HW223749  12.908   1.251   7.519
 7306SOL     OW23750   3.408   1.083   3.072
 7306SOL    HW123751   3.399   1.161   3.018
 7306SOL    HW223752   3.319   1.052   3.086
 7307SOL     OW23753  12.049   8.047   2.036
 7307SOL    HW123754  12.055   8.021   1.944
 7307SOL    HW223755  12.109   8.121   2.044
 7308SOL     OW23756  13.009  12.049   6.569
 7308SOL    HW123757  12.992  12.013   6.481
 7308SOL    HW223758  13.016  12.143   6.555
 7309SOL     OW23759   3.298  10.552  11.740
 7309SOL    HW123760   3.274  10.596  11.658
 7309SOL    HW223761   3.394  10.550  11.739
 7310SOL     OW23762   4.296  12.613   6.090
 7310SOL    HW123763   4.289  12.708   6.081
 7310SOL    HW223764   4.386  12.593   6.064
 7311SOL     OW23765  11.545  12.925   5.547
 7311SOL    HW123766  11.513  13.008   5.512
 7311SOL    HW223767  11.635  12.944   5.574
 7312SOL     OW23768   3.433   8.361   8.797
 7312SOL    HW123769   3.522   8.378   8.768
 7312SOL    HW223770   3.378   8.383   8.722
 7313SOL     OW23771  12.904   0.974   1.693
 7313SOL    HW123772  12.837   1.033   1.727
 7313SOL    HW223773  12.967   1.031   1.650
 7314SOL     OW23774   3.324   1.489  14.621
 7314SOL    HW123775   3.370   1.521  14.543
 7314SOL    HW223776   3.392   1.443  14.671
 7315SOL     OW23777   5.491   8.157   3.712
 7315SOL    HW123778   5.516   8.065   3.702
 7315SOL    HW223779   5.403   8.163   3.674
 7316SOL     OW23780  11.899   2.444   6.212
 7316SOL    HW123781  11.953   2.502   6.159
 7316SOL    HW223782  11.840   2.503   6.260
 7317SOL     OW23783   9.218  13.102   9.588
 7317SOL    HW123784   9.233  13.012   9.560
 7317SOL    HW223785   9.267  13.155   9.526
 7318SOL     OW23786   8.458  14.300  11.535
 7318SOL    HW123787   8.439  14.216  11.493
 7318SOL    HW223788   8.444  14.284  11.628
 7319SOL     OW23789  13.877   6.765   6.976
 7319SOL    HW123790  13.874   6.750   6.882
 7319SOL    HW223791  13.874   6.677   7.014
 7320SOL     OW23792   5.977   0.326  13.366
 7320SOL    HW123793   5.929   0.243  13.367
 7320SOL    HW223794   5.976   0.353  13.275
 7321SOL     OW23795   9.399  12.306  13.454
 7321SOL    HW123796   9.331  12.239  13.448
 7321SOL    HW223797   9.386  12.360  13.376
 7322SOL     OW23798  11.247   1.892  10.587
 7322SOL    HW123799  11.160   1.929  10.595
 7322SOL    HW223800  11.287   1.905  10.673
 7323SOL     OW23801  12.382   1.523   7.868
 7323SOL    HW123802  12.417   1.553   7.951
 7323SOL    HW223803  12.293   1.558   7.866
 7324SOL     OW23804   6.611  12.534   7.314
 7324SOL    HW123805   6.610  12.445   7.349
 7324SOL    HW223806   6.670  12.530   7.238
 7325SOL     OW23807  10.441   2.777   1.463
 7325SOL    HW123808  10.524   2.825   1.460
 7325SOL    HW223809  10.379   2.835   1.419
 7326SOL     OW23810  14.106   4.003   1.981
 7326SOL    HW123811  14.118   4.023   1.888
 7326SOL    HW223812  14.125   3.910   1.989
 7327SOL     OW23813   6.273   4.757   3.093
 7327SOL    HW123814   6.327   4.832   3.066
 7327SOL    HW223815   6.310   4.682   3.047
 7328SOL     OW23816  14.484   0.202  13.597
 7328SOL    HW123817  14.536   0.224  13.675
 7328SOL    HW223818  14.449   0.285  13.568
 7329SOL     OW23819   7.145   8.812  12.972
 7329SOL    HW123820   7.170   8.742  12.912
 7329SOL    HW223821   7.137   8.890  12.917
 7330SOL     OW23822  12.459   9.725  10.553
 7330SOL    HW123823  12.531   9.753  10.609
 7330SOL    HW223824  12.434   9.803  10.505
 7331SOL     OW23825   3.379   4.580   1.814
 7331SOL    HW123826   3.313   4.562   1.881
 7331SOL    HW223827   3.411   4.494   1.788
 7332SOL     OW23828   3.648   6.433   5.135
 7332SOL    HW123829   3.656   6.463   5.225
 7332SOL    HW223830   3.688   6.346   5.135
 7333SOL     OW23831   3.638   7.344  12.699
 7333SOL    HW123832   3.704   7.275  12.707
 7333SOL    HW223833   3.646   7.395  12.780
 7334SOL     OW23834   9.870  14.081   3.579
 7334SOL    HW123835   9.825  14.109   3.499
 7334SOL    HW223836   9.805  14.092   3.648
 7335SOL     OW23837  11.567   5.511   1.421
 7335SOL    HW123838  11.644   5.457   1.435
 7335SOL    HW223839  11.594   5.599   1.444
 7336SOL     OW23840  13.353   7.818   9.540
 7336SOL    HW123841  13.264   7.839   9.511
 7336SOL    HW223842  13.352   7.834   9.634
 7337SOL     OW23843  13.687   6.546   0.227
 7337SOL    HW123844  13.603   6.589   0.243
 7337SOL    HW223845  13.678   6.507   0.139
 7338SOL     OW23846   5.425   4.724  14.490
 7338SOL    HW123847   5.486   4.681  14.550
 7338SOL    HW223848   5.444   4.817  14.498
 7339SOL     OW23849   7.656   6.589  13.815
 7339SOL    HW123850   7.612   6.647  13.753
 7339SOL    HW223851   7.742   6.630  13.829
 7340SOL     OW23852  14.428  14.385   4.688
 7340SOL    HW123853  14.438  14.296   4.721
 7340SOL    HW223854  14.431  14.377   4.593
 7341SOL     OW23855  14.813  11.214   8.286
 7341SOL    HW123856  14.838  11.157   8.214
 7341SOL    HW223857  14.868  11.292   8.276
 7342SOL     OW23858   8.394  11.704  12.176
 7342SOL    HW123859   8.363  11.793  12.157
 7342SOL    HW223860   8.427  11.709  12.266
 7343SOL     OW23861   0.975   7.895   8.897
 7343SOL    HW123862   0.931   7.941   8.968
 7343SOL    HW223863   0.954   7.947   8.819
 7344SOL     OW23864  14.696  12.026   1.682
 7344SOL    HW123865  14.770  11.997   1.630
 7344SOL    HW223866  14.671  12.110   1.644
 7345SOL     OW23867  14.516   6.566   6.168
 7345SOL    HW123868  14.594   6.543   6.218
 7345SOL    HW223869  14.510   6.498   6.101
 7346SOL     OW23870   6.645   4.234   2.860
 7346SOL    HW123871   6.635   4.161   2.799
 7346SOL    HW223872   6.737   4.231   2.886
 7347SOL     OW23873   3.917   7.930   6.881
 7347SOL    HW123874   3.851   7.887   6.935
 7347SOL    HW223875   3.988   7.950   6.942
 7348SOL     OW23876  12.389   8.709   4.564
 7348SOL    HW123877  12.414   8.799   4.587
 7348SOL    HW223878  12.295   8.713   4.549
 7349SOL     OW23879  10.103  11.751   4.110
 7349SOL    HW123880  10.097  11.678   4.049
 7349SOL    HW223881  10.020  11.798   4.100
 7350SOL     OW23882   2.127   6.016   6.589
 7350SOL    HW123883   2.173   6.100   6.585
 7350SOL    HW223884   2.085   6.008   6.504
 7351SOL     OW23885  12.760   5.844   2.120
 7351SOL    HW123886  12.737   5.755   2.096
 7351SOL    HW223887  12.684   5.897   2.094
 7352SOL     OW23888  14.250  11.577  11.330
 7352SOL    HW123889  14.188  11.649  11.329
 7352SOL    HW223890  14.210  11.512  11.388
 7353SOL     OW23891  13.114   4.815  10.250
 7353SOL    HW123892  13.138   4.837  10.160
 7353SOL    HW223893  13.191   4.772  10.286
 7354SOL     OW23894   3.022   4.031   3.235
 7354SOL    HW123895   3.035   4.000   3.146
 7354SOL    HW223896   3.040   4.125   3.230
 7355SOL     OW23897   5.651   6.177   4.000
 7355SOL    HW123898   5.722   6.233   4.031
 7355SOL    HW223899   5.612   6.227   3.928
 7356SOL     OW23900   0.152  14.475   1.514
 7356SOL    HW123901   0.100  14.542   1.469
 7356SOL    HW223902   0.241  14.488   1.481
 7357SOL     OW23903  11.382   1.290   6.576
 7357SOL    HW123904  11.429   1.219   6.620
 7357SOL    HW223905  11.327   1.245   6.512
 7358SOL     OW23906  12.167   6.666   7.466
 7358SOL    HW123907  12.110   6.591   7.477
 7358SOL    HW223908  12.252   6.636   7.498
 7359SOL     OW23909  12.628  10.949  12.991
 7359SOL    HW123910  12.652  11.034  12.955
 7359SOL    HW223911  12.533  10.952  13.000
 7360SOL     OW23912   5.506   7.370  10.867
 7360SOL    HW123913   5.502   7.275  10.862
 7360SOL    HW223914   5.579   7.394  10.810
 7361SOL     OW23915  14.650  13.330   0.079
 7361SOL    HW123916  14.732  13.370   0.109
 7361SOL    HW223917  14.670  13.298  14.870
 7362SOL     OW23918  13.017   8.653   7.527
 7362SOL    HW123919  12.965   8.688   7.599
 7362SOL    HW223920  12.952   8.630   7.460
 7363SOL     OW23921   7.362   9.511  10.718
 7363SOL    HW123922   7.369   9.590  10.771
 7363SOL    HW223923   7.311   9.539  10.641
 7364SOL     OW23924   7.945   2.145   9.045
 7364SOL    HW123925   7.887   2.181   9.112
 7364SOL    HW223926   7.977   2.221   8.998
 7365SOL     OW23927   5.950  14.701  13.358
 7365SOL    HW123928   6.005  14.664  13.427
 7365SOL    HW223929   5.916  14.782  13.395
 7366SOL     OW23930   6.324  11.922   8.270
 7366SOL    HW123931   6.374  11.897   8.192
 7366SOL    HW223932   6.250  11.862   8.271
 7367SOL     OW23933  10.225  14.701  11.504
 7367SOL    HW123934  10.154  14.644  11.532
 7367SOL    HW223935  10.182  14.784  11.483
 7368SOL     OW23936  10.128   9.246   5.850
 7368SOL    HW123937  10.109   9.152   5.841
 7368SOL    HW223938  10.051   9.282   5.892
 7369SOL     OW23939   2.170   6.103   3.827
 7369SOL    HW123940   2.111   6.117   3.901
 7369SOL    HW223941   2.113   6.080   3.754
 7370SOL     OW23942   4.646   4.010  13.431
 7370SOL    HW123943   4.606   3.998  13.344
 7370SOL    HW223944   4.619   3.932  13.480
 7371SOL     OW23945   4.309  14.283  14.217
 7371SOL    HW123946   4.322  14.214  14.282
 7371SOL    HW223947   4.355  14.359  14.253
 7372SOL     OW23948  11.094   7.226   1.024
 7372SOL    HW123949  11.069   7.314   1.054
 7372SOL    HW223950  11.014   7.174   1.033
 7373SOL     OW23951   8.975   4.582   3.850
 7373SOL    HW123952   9.037   4.641   3.893
 7373SOL    HW223953   9.015   4.495   3.859
 7374SOL     OW23954   3.671   7.432   5.222
 7374SOL    HW123955   3.686   7.518   5.184
 7374SOL    HW223956   3.577   7.417   5.211
 7375SOL     OW23957   8.535   0.218  14.859
 7375SOL    HW123958   8.576   0.305  14.856
 7375SOL    HW223959   8.567   0.179   0.061
 7376SOL     OW23960   4.999  10.088  10.761
 7376SOL    HW123961   5.043  10.087  10.676
 7376SOL    HW223962   4.924  10.029  10.750
 7377SOL     OW23963   5.728   1.734   6.655
 7377SOL    HW123964   5.776   1.750   6.574
 7377SOL    HW223965   5.795   1.720   6.721
 7378SOL     OW23966  14.193   4.062  13.856
 7378SOL    HW123967  14.203   4.037  13.948
 7378SOL    HW223968  14.193   4.158  13.857
 7379SOL     OW23969   2.042   2.745   1.237
 7379SOL    HW123970   2.055   2.678   1.304
 7379SOL    HW223971   2.101   2.816   1.263
 7380SOL     OW23972   6.039   5.310   9.236
 7380SOL    HW123973   6.025   5.372   9.164
 7380SOL    HW223974   6.123   5.269   9.217
 7381SOL     OW23975   6.035   4.021  14.204
 7381SOL    HW123976   5.965   4.085  14.210
 7381SOL    HW223977   6.052   3.994  14.294
 7382SOL     OW23978   3.612   3.633  14.216
 7382SOL    HW123979   3.534   3.670  14.175
 7382SOL    HW223980   3.663   3.596  14.144
 7383SOL     OW23981   4.342   6.660   1.977
 7383SOL    HW123982   4.398   6.717   1.924
 7383SOL    HW223983   4.325   6.711   2.056
 7384SOL     OW23984   3.825   8.214   6.951
 7384SOL    HW123985   3.886   8.152   6.991
 7384SOL    HW223986   3.880   8.275   6.903
 7385SOL     OW23987   5.627   0.443   2.673
 7385SOL    HW123988   5.645   0.461   2.765
 7385SOL    HW223989   5.556   0.504   2.650
 7386SOL     OW23990   1.888   1.225   4.470
 7386SOL    HW123991   1.955   1.245   4.535
 7386SOL    HW223992   1.877   1.307   4.421
 7387SOL     OW23993   8.657  10.931  11.286
 7387SOL    HW123994   8.635  10.927  11.193
 7387SOL    HW223995   8.699  10.847  11.304
 7388SOL     OW23996  11.519  10.081   3.344
 7388SOL    HW123997  11.611  10.101   3.362
 7388SOL    HW223998  11.522  10.003   3.290
 7389SOL     OW23999  12.290  13.243   4.065
 7389SOL    HW124000  12.355  13.177   4.089
 7389SOL    HW224001  12.261  13.279   4.149
 7390SOL     OW24002   5.405   1.947   6.550
 7390SOL    HW124003   5.400   2.041   6.563
 7390SOL    HW224004   5.389   1.909   6.636
 7391SOL     OW24005  10.843  10.030  13.205
 7391SOL    HW124006  10.754  10.000  13.227
 7391SOL    HW224007  10.886  10.043  13.289
 7392SOL     OW24008   4.115   8.028   9.848
 7392SOL    HW124009   4.062   8.002   9.773
 7392SOL    HW224010   4.186   7.964   9.850
 7393SOL     OW24011   4.268   4.473   2.635
 7393SOL    HW124012   4.301   4.389   2.666
 7393SOL    HW224013   4.315   4.488   2.552
 7394SOL     OW24014   5.837   3.822  14.619
 7394SOL    HW124015   5.917   3.822  14.670
 7394SOL    HW224016   5.827   3.913  14.589
 7395SOL     OW24017   8.859   7.648  11.018
 7395SOL    HW124018   8.853   7.579  11.083
 7395SOL    HW224019   8.769   7.664  10.990
 7396SOL     OW24020   1.430   7.758   5.768
 7396SOL    HW124021   1.525   7.750   5.777
 7396SOL    HW224022   1.399   7.784   5.854
 7397SOL     OW24023   5.576   2.872   8.585
 7397SOL    HW124024   5.538   2.804   8.642
 7397SOL    HW224025   5.588   2.828   8.501
 7398SOL     OW24026   5.197   2.064  11.643
 7398SOL    HW124027   5.122   2.103  11.687
 7398SOL    HW224028   5.250   2.138  11.613
 7399SOL     OW24029   2.247   7.786   4.461
 7399SOL    HW124030   2.314   7.847   4.429
 7399SOL    HW224031   2.211   7.746   4.383
 7400SOL     OW24032   0.119   6.162   0.809
 7400SOL    HW124033   0.069   6.128   0.883
 7400SOL    HW224034   0.085   6.115   0.733
 7401SOL     OW24035   4.872   7.123   7.683
 7401SOL    HW124036   4.836   7.187   7.622
 7401SOL    HW224037   4.838   7.039   7.655
 7402SOL     OW24038   4.153   3.349  12.853
 7402SOL    HW124039   4.095   3.415  12.891
 7402SOL    HW224040   4.141   3.272  12.909
 7403SOL     OW24041   0.102   7.252   7.648
 7403SOL    HW124042   0.139   7.191   7.584
 7403SOL    HW224043   0.114   7.208   7.732
 7404SOL     OW24044  14.698   1.772   3.352
 7404SOL    HW124045  14.709   1.689   3.398
 7404SOL    HW224046  14.762   1.831   3.393
 7405SOL     OW24047   3.310   6.535   5.398
 7405SOL    HW124048   3.346   6.451   5.428
 7405SOL    HW224049   3.251   6.511   5.326
 7406SOL     OW24050  11.686   0.162   7.460
 7406SOL    HW124051  11.669   0.106   7.536
 7406SOL    HW224052  11.612   0.146   7.402
 7407SOL     OW24053   1.664   8.610   9.051
 7407SOL    HW124054   1.666   8.517   9.029
 7407SOL    HW224055   1.751   8.629   9.085
 7408SOL     OW24056   4.237   9.499  11.455
 7408SOL    HW124057   4.144   9.480  11.468
 7408SOL    HW224058   4.245   9.519  11.362
 7409SOL     OW24059   8.837   0.905   7.472
 7409SOL    HW124060   8.889   0.914   7.551
 7409SOL    HW224061   8.753   0.870   7.502
 7410SOL     OW24062   5.022   9.640  11.540
 7410SOL    HW124063   5.032   9.672  11.451
 7410SOL    HW224064   4.929   9.622  11.549
 7411SOL     OW24065   4.538   5.220   5.468
 7411SOL    HW124066   4.480   5.203   5.393
 7411SOL    HW224067   4.559   5.313   5.461
 7412SOL     OW24068  12.776   5.215  12.059
 7412SOL    HW124069  12.741   5.299  12.088
 7412SOL    HW224070  12.743   5.205  11.970
 7413SOL     OW24071   7.637   2.377   6.251
 7413SOL    HW124072   7.557   2.372   6.198
 7413SOL    HW224073   7.661   2.469   6.251
 7414SOL     OW24074   2.840   3.083   9.734
 7414SOL    HW124075   2.910   3.024   9.706
 7414SOL    HW224076   2.884   3.168   9.746
 7415SOL     OW24077  11.529   5.906   7.077
 7415SOL    HW124078  11.530   5.987   7.027
 7415SOL    HW224079  11.440   5.901   7.113
 7416SOL     OW24080   9.709   4.781   9.558
 7416SOL    HW124081   9.629   4.767   9.608
 7416SOL    HW224082   9.685   4.760   9.468
 7417SOL     OW24083   1.150  12.425   5.502
 7417SOL    HW124084   1.160  12.386   5.589
 7417SOL    HW224085   1.180  12.358   5.442
 7418SOL     OW24086  12.514  11.283   1.355
 7418SOL    HW124087  12.455  11.234   1.413
 7418SOL    HW224088  12.551  11.351   1.411
 7419SOL     OW24089   2.096   9.366   0.088
 7419SOL    HW124090   2.141   9.298   0.037
 7419SOL    HW224091   2.162   9.436   0.096
 7420SOL     OW24092  12.614   4.390   8.539
 7420SOL    HW124093  12.544   4.331   8.567
 7420SOL    HW224094  12.568   4.468   8.506
 7421SOL     OW24095   1.357   7.885  10.265
 7421SOL    HW124096   1.424   7.944  10.231
 7421SOL    HW224097   1.317   7.846  10.187
 7422SOL     OW24098   2.100   7.131  10.689
 7422SOL    HW124099   2.080   7.165  10.776
 7422SOL    HW224100   2.055   7.190  10.629
 7423SOL     OW24101   5.080   8.653   8.273
 7423SOL    HW124102   5.013   8.681   8.210
 7423SOL    HW224103   5.155   8.710   8.254
 7424SOL     OW24104   8.849   7.531   9.902
 7424SOL    HW124105   8.902   7.544   9.824
 7424SOL    HW224106   8.793   7.608   9.907
 7425SOL     OW24107   8.409   6.663   5.420
 7425SOL    HW124108   8.414   6.609   5.499
 7425SOL    HW224109   8.482   6.724   5.427
 7426SOL     OW24110   7.097   8.662   8.491
 7426SOL    HW124111   7.184   8.662   8.452
 7426SOL    HW224112   7.101   8.596   8.560
 7427SOL     OW24113  10.591   6.766  10.526
 7427SOL    HW124114  10.551   6.698  10.580
 7427SOL    HW224115  10.587   6.732  10.437
 7428SOL     OW24116  13.026   0.638   7.645
 7428SOL    HW124117  12.997   0.728   7.630
 7428SOL    HW224118  12.986   0.614   7.729
 7429SOL     OW24119   6.478  10.533  10.729
 7429SOL    HW124120   6.402  10.552  10.784
 7429SOL    HW224121   6.549  10.516  10.790
 7430SOL     OW24122   1.840  11.599   1.738
 7430SOL    HW124123   1.921  11.609   1.787
 7430SOL    HW224124   1.845  11.511   1.700
 7431SOL     OW24125   8.269   9.653   6.516
 7431SOL    HW124126   8.186   9.622   6.553
 7431SOL    HW224127   8.289   9.590   6.447
 7432SOL     OW24128  13.695   9.242  10.754
 7432SOL    HW124129  13.711   9.179  10.824
 7432SOL    HW224130  13.768   9.303  10.759
 7433SOL     OW24131   1.728   5.197  13.130
 7433SOL    HW124132   1.683   5.137  13.191
 7433SOL    HW224133   1.696   5.172  13.044
 7434SOL     OW24134   9.730   9.599   9.606
 7434SOL    HW124135   9.713   9.693   9.606
 7434SOL    HW224136   9.817   9.591   9.646
 7435SOL     OW24137   0.815   4.072   8.456
 7435SOL    HW124138   0.897   4.075   8.506
 7435SOL    HW224139   0.752   4.121   8.509
 7436SOL     OW24140   0.703   5.643  11.785
 7436SOL    HW124141   0.652   5.629  11.864
 7436SOL    HW224142   0.794   5.643  11.814
 7437SOL     OW24143   0.790   4.365   7.015
 7437SOL    HW124144   0.816   4.295   7.075
 7437SOL    HW224145   0.873   4.402   6.984
 7438SOL     OW24146   7.243  10.198   6.513
 7438SOL    HW124147   7.152  10.167   6.514
 7438SOL    HW224148   7.264  10.208   6.420
 7439SOL     OW24149   4.463   4.479  12.456
 7439SOL    HW124150   4.532   4.520  12.508
 7439SOL    HW224151   4.397   4.453  12.520
 7440SOL     OW24152  14.762  13.632   1.324
 7440SOL    HW124153  14.804  13.589   1.250
 7440SOL    HW224154  14.694  13.570   1.352
 7441SOL     OW24155   3.318   2.242   2.926
 7441SOL    HW124156   3.364   2.173   2.973
 7441SOL    HW224157   3.298   2.307   2.992
 7442SOL     OW24158   4.010   1.436   6.130
 7442SOL    HW124159   3.923   1.436   6.169
 7442SOL    HW224160   3.998   1.392   6.046
 7443SOL     OW24161  13.077   7.628   2.045
 7443SOL    HW124162  13.085   7.544   2.000
 7443SOL    HW224163  13.140   7.624   2.117
 7444SOL     OW24164  13.373   0.596   0.655
 7444SOL    HW124165  13.286   0.618   0.689
 7444SOL    HW224166  13.434   0.630   0.720
 7445SOL     OW24167   0.150  10.431  12.637
 7445SOL    HW124168   0.213  10.411  12.567
 7445SOL    HW224169   0.072  10.461  12.590
 7446SOL     OW24170   9.014  12.158  11.126
 7446SOL    HW124171   8.999  12.125  11.037
 7446SOL    HW224172   9.100  12.199  11.122
 7447SOL     OW24173  11.990  10.845   1.156
 7447SOL    HW124174  11.990  10.750   1.142
 7447SOL    HW224175  11.931  10.879   1.089
 7448SOL     OW24176  13.939  13.552  13.269
 7448SOL    HW124177  14.014  13.539  13.210
 7448SOL    HW224178  13.926  13.647  13.269
 7449SOL     OW24179   5.924   9.054  13.843
 7449SOL    HW124180   6.002   9.000  13.847
 7449SOL    HW224181   5.953   9.141  13.871
 7450SOL     OW24182   2.250   5.054   6.532
 7450SOL    HW124183   2.220   5.039   6.622
 7450SOL    HW224184   2.170   5.062   6.481
 7451SOL     OW24185  14.484  13.815   0.233
 7451SOL    HW124186  14.396  13.852   0.238
 7451SOL    HW224187  14.524  13.859   0.158
 7452SOL     OW24188   2.561   4.370   2.534
 7452SOL    HW124189   2.651   4.349   2.511
 7452SOL    HW224190   2.508   4.305   2.487
 7453SOL     OW24191   5.943  12.414   6.021
 7453SOL    HW124192   5.956  12.407   6.116
 7453SOL    HW224193   5.907  12.502   6.009
 7454SOL     OW24194   0.834  13.517  14.195
 7454SOL    HW124195   0.824  13.423  14.187
 7454SOL    HW224196   0.812  13.551  14.109
 7455SOL     OW24197  12.794  12.708   3.310
 7455SOL    HW124198  12.721  12.765   3.283
 7455SOL    HW224199  12.821  12.664   3.229
 7456SOL     OW24200  10.912  13.111   7.527
 7456SOL    HW124201  10.947  13.060   7.453
 7456SOL    HW224202  10.956  13.075   7.604
 7457SOL     OW24203  14.569   5.724  11.348
 7457SOL    HW124204  14.617   5.642  11.346
 7457SOL    HW224205  14.481   5.701  11.377
 7458SOL     OW24206  13.173  12.907  10.572
 7458SOL    HW124207  13.214  12.941  10.652
 7458SOL    HW224208  13.133  12.825  10.599
 7459SOL     OW24209   5.443   7.747   9.849
 7459SOL    HW124210   5.457   7.805   9.775
 7459SOL    HW224211   5.479   7.795   9.924
 7460SOL     OW24212   3.709   8.821   4.539
 7460SOL    HW124213   3.716   8.732   4.573
 7460SOL    HW224214   3.770   8.824   4.466
 7461SOL     OW24215  11.025  13.667   4.617
 7461SOL    HW124216  10.983  13.696   4.697
 7461SOL    HW224217  10.954  13.660   4.553
 7462SOL     OW24218   9.274   9.629   1.528
 7462SOL    HW124219   9.292   9.568   1.456
 7462SOL    HW224220   9.324   9.593   1.602
 7463SOL     OW24221   5.032   7.783   7.675
 7463SOL    HW124222   5.098   7.715   7.665
 7463SOL    HW224223   4.952   7.736   7.699
 7464SOL     OW24224  10.807   7.426  14.185
 7464SOL    HW124225  10.861   7.370  14.240
 7464SOL    HW224226  10.843   7.416  14.097
 7465SOL     OW24227  14.561  10.826   7.009
 7465SOL    HW124228  14.544  10.782   7.093
 7465SOL    HW224229  14.633  10.887   7.028
 7466SOL     OW24230   3.251   4.913   2.816
 7466SOL    HW124231   3.339   4.894   2.848
 7466SOL    HW224232   3.250   4.881   2.726
 7467SOL     OW24233   6.102   7.285   1.873
 7467SOL    HW124234   6.089   7.249   1.786
 7467SOL    HW224235   6.022   7.261   1.921
 7468SOL     OW24236   9.941   3.193   7.972
 7468SOL    HW124237   9.930   3.259   8.040
 7468SOL    HW224238   9.991   3.237   7.903
 7469SOL     OW24239   2.478   8.048  14.278
 7469SOL    HW124240   2.558   8.003  14.248
 7469SOL    HW224241   2.494   8.140  14.259
 7470SOL     OW24242   2.555   5.566   1.168
 7470SOL    HW124243   2.478   5.611   1.133
 7470SOL    HW224244   2.556   5.482   1.123
 7471SOL     OW24245  11.699   9.726   6.831
 7471SOL    HW124246  11.792   9.703   6.831
 7471SOL    HW224247  11.678   9.743   6.739
 7472SOL     OW24248  11.509   9.914   0.663
 7472SOL    HW124249  11.523  10.008   0.667
 7472SOL    HW224250  11.481   9.890   0.752
 7473SOL     OW24251  13.885   2.043  14.408
 7473SOL    HW124252  13.837   2.099  14.347
 7473SOL    HW224253  13.818   1.984  14.443
 7474SOL     OW24254   8.757  14.281   4.098
 7474SOL    HW124255   8.735  14.308   4.009
 7474SOL    HW224256   8.691  14.216   4.121
 7475SOL     OW24257  13.919   5.863   8.713
 7475SOL    HW124258  13.974   5.941   8.720
 7475SOL    HW224259  13.841   5.893   8.666
 7476SOL     OW24260   6.145   1.021  12.907
 7476SOL    HW124261   6.204   1.076  12.857
 7476SOL    HW224262   6.119   1.076  12.982
 7477SOL     OW24263   8.479   0.448   1.609
 7477SOL    HW124264   8.400   0.409   1.573
 7477SOL    HW224265   8.476   0.427   1.703
 7478SOL     OW24266   2.628  11.591   2.778
 7478SOL    HW124267   2.713  11.632   2.792
 7478SOL    HW224268   2.633  11.509   2.828
 7479SOL     OW24269   8.715   6.647   2.168
 7479SOL    HW124270   8.630   6.675   2.201
 7479SOL    HW224271   8.779   6.693   2.223
 7480SOL     OW24272   1.167   7.376   2.010
 7480SOL    HW124273   1.169   7.453   2.067
 7480SOL    HW224274   1.146   7.303   2.068
 7481SOL     OW24275  11.983   9.013  10.034
 7481SOL    HW124276  11.895   9.047  10.054
 7481SOL    HW224277  12.041   9.066  10.089
 7482SOL     OW24278  14.052   9.338  12.885
 7482SOL    HW124279  14.135   9.306  12.921
 7482SOL    HW224280  14.072   9.362  12.795
 7483SOL     OW24281   8.296  13.702   7.697
 7483SOL    HW124282   8.380  13.737   7.669
 7483SOL    HW224283   8.298  13.610   7.668
 7484SOL     OW24284   1.528   6.442  13.385
 7484SOL    HW124285   1.481   6.425  13.303
 7484SOL    HW224286   1.464   6.485  13.441
 7485SOL     OW24287   1.184   0.751  11.903
 7485SOL    HW124288   1.222   0.707  11.827
 7485SOL    HW224289   1.253   0.809  11.935
 7486SOL     OW24290  12.185   3.016  11.340
 7486SOL    HW124291  12.111   3.048  11.391
 7486SOL    HW224292  12.262   3.052  11.384
 7487SOL     OW24293  10.195   6.808   0.088
 7487SOL    HW124294  10.258   6.880   0.092
 7487SOL    HW224295  10.121   6.837   0.142
 7488SOL     OW24296  14.445   8.669  11.145
 7488SOL    HW124297  14.398   8.636  11.068
 7488SOL    HW224298  14.391   8.742  11.176
 7489SOL     OW24299   0.721   8.813  13.796
 7489SOL    HW124300   0.744   8.868  13.871
 7489SOL    HW224301   0.784   8.741  13.799
 7490SOL     OW24302   4.255  13.807   9.688
 7490SOL    HW124303   4.252  13.748   9.763
 7490SOL    HW224304   4.235  13.893   9.723
 7491SOL     OW24305   9.022   4.924   1.902
 7491SOL    HW124306   9.070   4.901   1.822
 7491SOL    HW224307   8.984   4.841   1.931
 7492SOL     OW24308   7.615   2.256   7.200
 7492SOL    HW124309   7.599   2.250   7.294
 7492SOL    HW224310   7.666   2.178   7.179
 7493SOL     OW24311  11.053   6.843   9.573
 7493SOL    HW124312  10.965   6.849   9.537
 7493SOL    HW224313  11.040   6.843   9.668
 7494SOL     OW24314   7.263   9.002   4.732
 7494SOL    HW124315   7.286   9.034   4.819
 7494SOL    HW224316   7.295   8.911   4.730
 7495SOL     OW24317   6.212   6.485   4.445
 7495SOL    HW124318   6.142   6.550   4.459
 7495SOL    HW224319   6.166   6.402   4.438
 7496SOL     OW24320   7.619   5.508  13.413
 7496SOL    HW124321   7.598   5.481  13.324
 7496SOL    HW224322   7.595   5.434  13.468
 7497SOL     OW24323   8.538  12.872  11.473
 7497SOL    HW124324   8.506  12.817  11.402
 7497SOL    HW224325   8.571  12.951  11.429
 7498SOL     OW24326   8.372  11.886  12.432
 7498SOL    HW124327   8.293  11.843  12.465
 7498SOL    HW224328   8.435  11.814  12.420
 7499SOL     OW24329   9.932   0.750   1.144
 7499SOL    HW124330   9.943   0.700   1.063
 7499SOL    HW224331   9.931   0.842   1.116
 7500SOL     OW24332  12.537  10.591  13.131
 7500SOL    HW124333  12.452  10.627  13.155
 7500SOL    HW224334  12.600  10.637  13.187
 7501SOL     OW24335   0.555   9.611   5.497
 7501SOL    HW124336   0.598   9.640   5.416
 7501SOL    HW224337   0.461   9.625   5.481
 7502SOL     OW24338   2.066   2.712   0.212
 7502SOL    HW124339   2.040   2.804   0.199
 7502SOL    HW224340   2.144   2.702   0.157
 7503SOL     OW24341   1.579  12.409  11.426
 7503SOL    HW124342   1.504  12.379  11.375
 7503SOL    HW224343   1.619  12.328  11.459
 7504SOL     OW24344   4.937  13.914  11.616
 7504SOL    HW124345   4.961  13.993  11.664
 7504SOL    HW224346   4.969  13.842  11.670
 7505SOL     OW24347   7.875   0.882   2.936
 7505SOL    HW124348   7.792   0.839   2.916
 7505SOL    HW224349   7.936   0.847   2.871
 7506SOL     OW24350  12.852   6.929  14.582
 7506SOL    HW124351  12.791   6.863  14.612
 7506SOL    HW224352  12.915   6.938  14.654
 7507SOL     OW24353  10.472   5.796   2.710
 7507SOL    HW124354  10.428   5.723   2.665
 7507SOL    HW224355  10.487   5.763   2.799
 7508SOL     OW24356   7.247   6.317   7.897
 7508SOL    HW124357   7.303   6.364   7.958
 7508SOL    HW224358   7.275   6.225   7.904
 7509SOL     OW24359   8.394  10.828   5.004
 7509SOL    HW124360   8.324  10.874   5.051
 7509SOL    HW224361   8.349  10.759   4.956
 7510SOL     OW24362   6.551   6.052  11.734
 7510SOL    HW124363   6.603   6.122  11.774
 7510SOL    HW224364   6.478   6.039  11.795
 7511SOL     OW24365   9.160   4.246   6.228
 7511SOL    HW124366   9.233   4.290   6.185
 7511SOL    HW224367   9.187   4.240   6.320
 7512SOL     OW24368   0.129   4.109   7.776
 7512SOL    HW124369   0.192   4.155   7.721
 7512SOL    HW224370   0.116   4.166   7.852
 7513SOL     OW24371   4.154   2.841   3.827
 7513SOL    HW124372   4.146   2.823   3.921
 7513SOL    HW224373   4.068   2.821   3.791
 7514SOL     OW24374  10.064  12.766  14.463
 7514SOL    HW124375  10.155  12.749  14.437
 7514SOL    HW224376  10.013  12.699  14.417
 7515SOL     OW24377   5.598   5.103   5.295
 7515SOL    HW124378   5.594   5.181   5.239
 7515SOL    HW224379   5.507   5.077   5.304
 7516SOL     OW24380   0.733   1.198   7.937
 7516SOL    HW124381   0.697   1.117   7.902
 7516SOL    HW224382   0.738   1.185   8.031
 7517SOL     OW24383   2.735   7.274   3.970
 7517SOL    HW124384   2.768   7.227   4.046
 7517SOL    HW224385   2.650   7.309   3.998
 7518SOL     OW24386  12.080  10.072  10.118
 7518SOL    HW124387  12.143  10.098  10.050
 7518SOL    HW224388  12.128  10.083  10.200
 7519SOL     OW24389   8.117  12.054   7.226
 7519SOL    HW124390   8.167  11.985   7.268
 7519SOL    HW224391   8.025  12.031   7.243
 7520SOL     OW24392   9.494  11.140   6.806
 7520SOL    HW124393   9.409  11.095   6.803
 7520SOL    HW224394   9.483  11.207   6.873
 7521SOL     OW24395   1.085   0.749   1.739
 7521SOL    HW124396   1.181   0.757   1.746
 7521SOL    HW224397   1.052   0.834   1.768
 7522SOL     OW24398   5.640   5.350  10.654
 7522SOL    HW124399   5.729   5.367  10.684
 7522SOL    HW224400   5.641   5.378  10.562
 7523SOL     OW24401   8.150   8.588  11.985
 7523SOL    HW124402   8.100   8.639  12.048
 7523SOL    HW224403   8.089   8.571  11.913
 7524SOL     OW24404   5.193   1.373   0.026
 7524SOL    HW124405   5.183   1.385   0.121
 7524SOL    HW224406   5.272   1.422   0.004
 7525SOL     OW24407   3.462   9.842   3.871
 7525SOL    HW124408   3.493   9.787   3.799
 7525SOL    HW224409   3.473   9.931   3.840
 7526SOL     OW24410  12.968  11.024  14.176
 7526SOL    HW124411  12.924  11.090  14.229
 7526SOL    HW224412  12.928  10.942  14.202
 7527SOL     OW24413  11.228  14.839  14.808
 7527SOL    HW124414  11.296   0.005  14.860
 7527SOL    HW224415  11.270  14.820  14.724
 7528SOL     OW24416   9.742   1.498   5.188
 7528SOL    HW124417   9.797   1.520   5.113
 7528SOL    HW224418   9.691   1.422   5.160
 7529SOL     OW24419  11.085  11.257   2.244
 7529SOL    HW124420  11.142  11.300   2.180
 7529SOL    HW224421  11.003  11.307   2.240
 7530SOL     OW24422   9.327   1.201   4.131
 7530SOL    HW124423   9.252   1.148   4.158
 7530SOL    HW224424   9.287   1.273   4.081
 7531SOL     OW24425   9.192  13.573  13.324
 7531SOL    HW124426   9.195  13.649  13.382
 7531SOL    HW224427   9.161  13.608  13.240
 7532SOL     OW24428  11.060  10.315   4.606
 7532SOL    HW124429  11.119  10.278   4.671
 7532SOL    HW224430  11.078  10.266   4.526
 7533SOL     OW24431  12.602   9.693   4.050
 7533SOL    HW124432  12.693   9.722   4.042
 7533SOL    HW224433  12.593   9.622   3.986
 7534SOL     OW24434   5.575   7.431   8.950
 7534SOL    HW124435   5.586   7.511   9.001
 7534SOL    HW224436   5.506   7.451   8.888
 7535SOL     OW24437  10.249  14.167   0.234
 7535SOL    HW124438  10.297  14.248   0.253
 7535SOL    HW224439  10.195  14.189   0.157
 7536SOL     OW24440   2.912   8.499   2.241
 7536SOL    HW124441   2.848   8.447   2.192
 7536SOL    HW224442   2.872   8.509   2.328
 7537SOL     OW24443  11.775  11.598  11.427
 7537SOL    HW124444  11.800  11.662  11.361
 7537SOL    HW224445  11.688  11.568  11.399
 7538SOL     OW24446   9.087   1.617  10.012
 7538SOL    HW124447   9.150   1.606   9.941
 7538SOL    HW224448   9.057   1.708  10.003
 7539SOL     OW24449  14.378   3.163   7.236
 7539SOL    HW124450  14.293   3.197   7.207
 7539SOL    HW224451  14.442   3.214   7.187
 7540SOL     OW24452   8.405   9.832   8.028
 7540SOL    HW124453   8.400   9.927   8.020
 7540SOL    HW224454   8.444   9.818   8.115
 7541SOL     OW24455  13.792   2.105   8.526
 7541SOL    HW124456  13.749   2.021   8.534
 7541SOL    HW224457  13.724   2.169   8.545
 7542SOL     OW24458   9.786  10.797   5.377
 7542SOL    HW124459   9.848  10.724   5.383
 7542SOL    HW224460   9.783  10.832   5.466
 7543SOL     OW24461  11.558   1.695   1.814
 7543SOL    HW124462  11.533   1.602   1.820
 7543SOL    HW224463  11.569   1.723   1.905
 7544SOL     OW24464   1.070  13.898   4.331
 7544SOL    HW124465   1.084  13.980   4.378
 7544SOL    HW224466   0.981  13.872   4.354
 7545SOL     OW24467   3.548  14.554   2.318
 7545SOL    HW124468   3.462  14.549   2.276
 7545SOL    HW224469   3.609  14.564   2.245
 7546SOL     OW24470   8.514   6.202   6.557
 7546SOL    HW124471   8.496   6.209   6.651
 7546SOL    HW224472   8.432   6.228   6.516
 7547SOL     OW24473   2.851  10.888   1.342
 7547SOL    HW124474   2.817  10.882   1.253
 7547SOL    HW224475   2.904  10.809   1.353
 7548SOL     OW24476  14.148   9.305   6.108
 7548SOL    HW124477  14.110   9.378   6.059
 7548SOL    HW224478  14.082   9.236   6.104
 7549SOL     OW24479   8.978  12.082  10.292
 7549SOL    HW124480   9.017  12.133  10.221
 7549SOL    HW224481   9.048  12.022  10.319
 7550SOL     OW24482  14.268   2.758   7.764
 7550SOL    HW124483  14.355   2.794   7.752
 7550SOL    HW224484  14.271   2.671   7.724
 7551SOL     OW24485   3.161   9.806  14.776
 7551SOL    HW124486   3.223   9.735  14.794
 7551SOL    HW224487   3.199   9.855  14.704
 7552SOL     OW24488   8.301  10.393  12.491
 7552SOL    HW124489   8.392  10.365  12.499
 7552SOL    HW224490   8.306  10.488  12.485
 7553SOL     OW24491   6.553  12.420  12.241
 7553SOL    HW124492   6.583  12.453  12.156
 7553SOL    HW224493   6.535  12.327  12.226
 7554SOL     OW24494   4.971   3.169   0.391
 7554SOL    HW124495   4.891   3.166   0.444
 7554SOL    HW224496   5.013   3.251   0.415
 7555SOL     OW24497  13.509   1.781   0.458
 7555SOL    HW124498  13.519   1.822   0.544
 7555SOL    HW224499  13.417   1.797   0.435
 7556SOL     OW24500   3.784   4.996   2.719
 7556SOL    HW124501   3.772   5.084   2.755
 7556SOL    HW224502   3.702   4.977   2.675
 7557SOL     OW24503   2.575   1.487   2.719
 7557SOL    HW124504   2.496   1.542   2.721
 7557SOL    HW224505   2.544   1.400   2.745
 7558SOL     OW24506   3.695  13.574   9.599
 7558SOL    HW124507   3.627  13.511   9.575
 7558SOL    HW224508   3.647  13.655   9.615
 7559SOL     OW24509  10.389   2.164  13.919
 7559SOL    HW124510  10.367   2.207  14.002
 7559SOL    HW224511  10.467   2.112  13.938
 7560SOL     OW24512  11.239   5.648   1.164
 7560SOL    HW124513  11.174   5.687   1.223
 7560SOL    HW224514  11.210   5.674   1.077
 7561SOL     OW24515   8.523   3.058  14.418
 7561SOL    HW124516   8.581   2.982  14.417
 7561SOL    HW224517   8.470   3.046  14.497
 7562SOL     OW24518   8.077  12.275  11.614
 7562SOL    HW124519   8.079  12.188  11.655
 7562SOL    HW224520   8.157  12.318  11.644
 7563SOL     OW24521   0.010   7.774  10.477
 7563SOL    HW124522  14.831   7.850  10.486
 7563SOL    HW224523  14.852   7.709  10.538
 7564SOL     OW24524   8.749  11.616   4.082
 7564SOL    HW124525   8.705  11.565   4.013
 7564SOL    HW224526   8.714  11.704   4.072
 7565SOL     OW24527   5.349   3.388  13.215
 7565SOL    HW124528   5.444   3.391  13.220
 7565SOL    HW224529   5.320   3.386  13.306
 7566SOL     OW24530   1.693   1.025   9.952
 7566SOL    HW124531   1.681   0.970  10.030
 7566SOL    HW224532   1.787   1.040   9.948
 7567SOL     OW24533   8.700   9.693  13.521
 7567SOL    HW124534   8.782   9.660  13.484
 7567SOL    HW224535   8.707   9.788  13.512
 7568SOL     OW24536   7.949   7.773   4.845
 7568SOL    HW124537   7.988   7.859   4.859
 7568SOL    HW224538   7.862   7.780   4.884
 7569SOL     OW24539  14.002  10.701   5.253
 7569SOL    HW124540  14.066  10.635   5.281
 7569SOL    HW224541  13.920  10.652   5.246
 7570SOL     OW24542   4.785   8.020  14.490
 7570SOL    HW124543   4.756   7.931  14.506
 7570SOL    HW224544   4.874   8.012  14.457
 7571SOL     OW24545   7.659   8.129   4.646
 7571SOL    HW124546   7.574   8.123   4.689
 7571SOL    HW224547   7.674   8.041   4.612
 7572SOL     OW24548   8.929   7.161  11.333
 7572SOL    HW124549   8.857   7.098  11.326
 7572SOL    HW224550   8.920   7.198  11.421
 7573SOL     OW24551   1.873   9.251  14.083
 7573SOL    HW124552   1.871   9.257  14.178
 7573SOL    HW224553   1.782   9.231  14.058
 7574SOL     OW24554   7.277  10.467   4.646
 7574SOL    HW124555   7.206  10.430   4.593
 7574SOL    HW224556   7.333  10.512   4.583
 7575SOL     OW24557   5.578   0.674  14.344
 7575SOL    HW124558   5.644   0.743  14.349
 7575SOL    HW224559   5.608   0.607  14.405
 7576SOL     OW24560   6.315   6.074   0.644
 7576SOL    HW124561   6.406   6.106   0.644
 7576SOL    HW224562   6.323   5.979   0.636
 7577SOL     OW24563  11.054  14.202  11.312
 7577SOL    HW124564  10.978  14.143  11.320
 7577SOL    HW224565  11.120  14.164  11.371
 7578SOL     OW24566   4.204   4.196   5.993
 7578SOL    HW124567   4.224   4.278   5.950
 7578SOL    HW224568   4.289   4.158   6.013
 7579SOL     OW24569   3.540   7.162   1.522
 7579SOL    HW124570   3.634   7.145   1.523
 7579SOL    HW224571   3.525   7.217   1.445
 7580SOL     OW24572  14.122   0.036  10.282
 7580SOL    HW124573  14.215   0.059  10.289
 7580SOL    HW224574  14.081   0.115  10.245
 7581SOL     OW24575   1.875   2.182   5.300
 7581SOL    HW124576   1.875   2.153   5.392
 7581SOL    HW224577   1.892   2.103   5.250
 7582SOL     OW24578  12.545   8.678   8.065
 7582SOL    HW124579  12.497   8.650   7.987
 7582SOL    HW224580  12.616   8.732   8.031
 7583SOL     OW24581   7.731   6.337  14.380
 7583SOL    HW124582   7.701   6.405  14.439
 7583SOL    HW224583   7.766   6.269  14.437
 7584SOL     OW24584   9.053  14.596  12.214
 7584SOL    HW124585   9.090  14.521  12.261
 7584SOL    HW224586   8.979  14.624  12.267
 7585SOL     OW24587   6.036  10.479   5.047
 7585SOL    HW124588   6.111  10.531   5.077
 7585SOL    HW224589   6.016  10.421   5.120
 7586SOL     OW24590  12.091  11.183   3.868
 7586SOL    HW124591  12.086  11.278   3.863
 7586SOL    HW224592  12.129  11.156   3.784
 7587SOL     OW24593   3.875  11.096   7.383
 7587SOL    HW124594   3.967  11.099   7.410
 7587SOL    HW224595   3.877  11.104   7.288
 7588SOL     OW24596   8.247   8.900  13.652
 7588SOL    HW124597   8.279   8.811  13.637
 7588SOL    HW224598   8.154   8.895  13.630
 7589SOL     OW24599   7.096   5.629   9.646
 7589SOL    HW124600   7.103   5.539   9.678
 7589SOL    HW224601   7.151   5.630   9.567
 7590SOL     OW24602   1.363  13.720   0.770
 7590SOL    HW124603   1.375  13.632   0.804
 7590SOL    HW224604   1.352  13.709   0.676
 7591SOL     OW24605   6.335  14.714   1.737
 7591SOL    HW124606   6.341  14.625   1.770
 7591SOL    HW224607   6.422  14.752   1.754
 7592SOL     OW24608   3.018   5.020   2.658
 7592SOL    HW124609   3.080   5.004   2.586
 7592SOL    HW224610   2.956   5.083   2.622
 7593SOL     OW24611   1.085  11.987   2.501
 7593SOL    HW124612   1.051  12.058   2.555
 7593SOL    HW224613   1.008  11.936   2.478
 7594SOL     OW24614  14.737   7.764   8.817
 7594SOL    HW124615  14.758   7.671   8.805
 7594SOL    HW224616  14.794   7.793   8.887
 7595SOL     OW24617   4.597   8.756   1.493
 7595SOL    HW124618   4.521   8.766   1.550
 7595SOL    HW224619   4.568   8.694   1.426
 7596SOL     OW24620  13.384   6.395  14.255
 7596SOL    HW124621  13.447   6.387  14.183
 7596SOL    HW224622  13.313   6.336  14.231
 7597SOL     OW24623   8.051   0.625  10.021
 7597SOL    HW124624   7.965   0.599   9.985
 7597SOL    HW224625   8.061   0.571  10.099
 7598SOL     OW24626   9.900   1.684   5.612
 7598SOL    HW124627   9.836   1.756   5.608
 7598SOL    HW224628   9.983   1.725   5.588
 7599SOL     OW24629   6.855  14.139   4.314
 7599SOL    HW124630   6.898  14.218   4.282
 7599SOL    HW224631   6.925  14.074   4.321
 7600SOL     OW24632  12.659   1.984  14.399
 7600SOL    HW124633  12.642   2.018  14.486
 7600SOL    HW224634  12.699   2.057  14.352
 7601SOL     OW24635   1.925   4.338   6.340
 7601SOL    HW124636   1.940   4.428   6.367
 7601SOL    HW224637   1.861   4.304   6.403
 7602SOL     OW24638  11.208   9.890  10.827
 7602SOL    HW124639  11.232   9.977  10.861
 7602SOL    HW224640  11.258   9.829  10.882
 7603SOL     OW24641   5.614   8.515   0.883
 7603SOL    HW124642   5.530   8.549   0.850
 7603SOL    HW224643   5.596   8.491   0.973
 7604SOL     OW24644   7.755  12.557   9.491
 7604SOL    HW124645   7.757  12.627   9.556
 7604SOL    HW224646   7.820  12.494   9.521
 7605SOL     OW24647  12.626   0.400   8.009
 7605SOL    HW124648  12.580   0.484   8.014
 7605SOL    HW224649  12.575   0.348   7.947
 7606SOL     OW24650   2.725   8.463  12.242
 7606SOL    HW124651   2.650   8.517  12.216
 7606SOL    HW224652   2.691   8.373  12.240
 7607SOL     OW24653   7.566   8.874   1.615
 7607SOL    HW124654   7.512   8.836   1.546
 7607SOL    HW224655   7.566   8.809   1.685
 7608SOL     OW24656  10.374  11.786  14.588
 7608SOL    HW124657  10.313  11.769  14.660
 7608SOL    HW224658  10.461  11.771  14.626
 7609SOL     OW24659  10.023   0.525  14.878
 7609SOL    HW124660  10.096   0.553   0.055
 7609SOL    HW224661  10.047   0.436  14.851
 7610SOL     OW24662   7.356  10.987   7.135
 7610SOL    HW124663   7.420  11.018   7.070
 7610SOL    HW224664   7.339  10.896   7.109
 7611SOL     OW24665  10.106   8.858   1.222
 7611SOL    HW124666  10.025   8.869   1.173
 7611SOL    HW224667  10.169   8.916   1.178
 7612SOL     OW24668   1.472   0.456   5.995
 7612SOL    HW124669   1.514   0.419   6.073
 7612SOL    HW224670   1.457   0.548   6.017
 7613SOL     OW24671   3.642  12.417   1.738
 7613SOL    HW124672   3.658  12.388   1.828
 7613SOL    HW224673   3.709  12.483   1.721
 7614SOL     OW24674   6.287   3.665   7.281
 7614SOL    HW124675   6.354   3.638   7.343
 7614SOL    HW224676   6.207   3.621   7.311
 7615SOL     OW24677  13.372  10.211  13.315
 7615SOL    HW124678  13.388  10.178  13.227
 7615SOL    HW224679  13.458  10.212  13.357
 7616SOL     OW24680  10.454  11.415  13.942
 7616SOL    HW124681  10.430  11.381  14.029
 7616SOL    HW224682  10.470  11.508  13.957
 7617SOL     OW24683   7.006   2.647   2.884
 7617SOL    HW124684   7.066   2.719   2.863
 7617SOL    HW224685   7.064   2.575   2.909
 7618SOL     OW24686   8.259  10.065   8.594
 7618SOL    HW124687   8.289  10.032   8.678
 7618SOL    HW224688   8.164  10.065   8.601
 7619SOL     OW24689   7.494  11.828  10.063
 7619SOL    HW124690   7.519  11.883  10.137
 7619SOL    HW224691   7.560  11.758  10.062
 7620SOL     OW24692   6.175   5.227  13.161
 7620SOL    HW124693   6.180   5.286  13.086
 7620SOL    HW224694   6.126   5.275  13.227
 7621SOL     OW24695   1.347  13.176  14.506
 7621SOL    HW124696   1.320  13.250  14.561
 7621SOL    HW224697   1.280  13.172  14.437
 7622SOL     OW24698  14.686  11.927  12.193
 7622SOL    HW124699  14.767  11.909  12.240
 7622SOL    HW224700  14.618  11.926  12.261
 7623SOL     OW24701   2.259   8.235   1.805
 7623SOL    HW124702   2.281   8.240   1.898
 7623SOL    HW224703   2.332   8.187   1.766
 7624SOL     OW24704   1.485  10.186   9.355
 7624SOL    HW124705   1.531  10.110   9.317
 7624SOL    HW224706   1.430  10.148   9.424
 7625SOL     OW24707   5.263   0.767   3.364
 7625SOL    HW124708   5.251   0.672   3.359
 7625SOL    HW224709   5.345   0.783   3.317
 7626SOL     OW24710   8.465   9.964   1.247
 7626SOL    HW124711   8.431   9.874   1.251
 7626SOL    HW224712   8.436   9.997   1.162
 7627SOL     OW24713   7.213  13.815   1.238
 7627SOL    HW124714   7.190  13.901   1.202
 7627SOL    HW224715   7.259  13.835   1.320
 7628SOL     OW24716  12.917   0.100   7.410
 7628SOL    HW124717  12.930   0.006   7.424
 7628SOL    HW224718  12.888   0.107   7.319
 7629SOL     OW24719   3.038   5.493   5.725
 7629SOL    HW124720   3.051   5.566   5.664
 7629SOL    HW224721   2.990   5.428   5.675
 7630SOL     OW24722   4.581   9.190   5.352
 7630SOL    HW124723   4.630   9.216   5.430
 7630SOL    HW224724   4.494   9.228   5.366
 7631SOL     OW24725  10.282  14.256  14.703
 7631SOL    HW124726  10.311  14.347  14.713
 7631SOL    HW224727  10.200  14.252  14.753
 7632SOL     OW24728   4.990  11.213   3.925
 7632SOL    HW124729   4.911  11.238   3.972
 7632SOL    HW224730   5.052  11.283   3.943
 7633SOL     OW24731   4.789   9.019  12.339
 7633SOL    HW124732   4.754   9.035  12.427
 7633SOL    HW224733   4.749   9.088  12.285
 7634SOL     OW24734  12.290   7.293  10.969
 7634SOL    HW124735  12.377   7.306  11.005
 7634SOL    HW224736  12.252   7.223  11.021
 7635SOL     OW24737   1.251   6.976   8.464
 7635SOL    HW124738   1.235   6.964   8.557
 7635SOL    HW224739   1.237   7.069   8.448
 7636SOL     OW24740   1.389   8.345   3.760
 7636SOL    HW124741   1.329   8.288   3.711
 7636SOL    HW224742   1.476   8.317   3.733
 7637SOL     OW24743   0.958   7.740   6.572
 7637SOL    HW124744   0.954   7.669   6.636
 7637SOL    HW224745   1.042   7.726   6.527
 7638SOL     OW24746   8.989  13.894   4.029
 7638SOL    HW124747   9.011  13.970   4.083
 7638SOL    HW224748   8.906  13.863   4.064
 7639SOL     OW24749   7.932  11.184   0.062
 7639SOL    HW124750   7.923  11.124  14.867
 7639SOL    HW224751   7.882  11.262   0.036
 7640SOL     OW24752  13.900   1.665  13.616
 7640SOL    HW124753  13.902   1.603  13.688
 7640SOL    HW224754  13.833   1.728  13.641
 7641SOL     OW24755  13.345   6.856   8.666
 7641SOL    HW124756  13.419   6.829   8.611
 7641SOL    HW224757  13.270   6.855   8.608
 7642SOL     OW24758   4.857  12.607  10.780
 7642SOL    HW124759   4.914  12.678  10.811
 7642SOL    HW224760   4.899  12.575  10.701
 7643SOL     OW24761   2.176  14.462   5.182
 7643SOL    HW124762   2.201  14.525   5.114
 7643SOL    HW224763   2.136  14.390   5.134
 7644SOL     OW24764  14.367   9.756  10.842
 7644SOL    HW124765  14.430   9.742  10.772
 7644SOL    HW224766  14.346   9.668  10.874
 7645SOL     OW24767  10.498  13.014  10.020
 7645SOL    HW124768  10.405  13.035  10.025
 7645SOL    HW224769  10.535  13.083   9.964
 7646SOL     OW24770   3.681   2.460   7.641
 7646SOL    HW124771   3.642   2.380   7.678
 7646SOL    HW224772   3.637   2.531   7.687
 7647SOL     OW24773   4.375   5.078  14.025
 7647SOL    HW124774   4.288   5.042  14.042
 7647SOL    HW224775   4.433   5.001  14.025
 7648SOL     OW24776   3.047  11.989   0.222
 7648SOL    HW124777   3.068  12.013   0.132
 7648SOL    HW224778   3.032  12.072   0.267
 7649SOL     OW24779   9.034  13.365   6.986
 7649SOL    HW124780   8.964  13.304   7.009
 7649SOL    HW224781   9.065  13.399   7.070
 7650SOL     OW24782  13.920   1.540   2.563
 7650SOL    HW124783  13.864   1.466   2.587
 7650SOL    HW224784  13.904   1.605   2.632
 7651SOL     OW24785   0.599   9.320   7.770
 7651SOL    HW124786   0.524   9.369   7.805
 7651SOL    HW224787   0.565   9.232   7.754
 7652SOL     OW24788   5.921   1.126  13.649
 7652SOL    HW124789   5.881   1.208  13.678
 7652SOL    HW224790   5.848   1.073  13.619
 7653SOL     OW24791   6.065  12.066  13.995
 7653SOL    HW124792   6.097  11.982  13.964
 7653SOL    HW224793   6.099  12.074  14.084
 7654SOL     OW24794   3.832   4.902  12.448
 7654SOL    HW124795   3.787   4.844  12.509
 7654SOL    HW224796   3.914   4.924  12.493
 7655SOL     OW24797   1.825   4.759   3.781
 7655SOL    HW124798   1.734   4.742   3.803
 7655SOL    HW224799   1.824   4.779   3.687
 7656SOL     OW24800  10.806  14.172   4.953
 7656SOL    HW124801  10.882  14.124   4.920
 7656SOL    HW224802  10.753  14.188   4.875
 7657SOL     OW24803  12.498   6.108  14.559
 7657SOL    HW124804  12.445   6.040  14.600
 7657SOL    HW224805  12.465   6.113  14.469
 7658SOL     OW24806   6.177   2.672   1.195
 7658SOL    HW124807   6.112   2.623   1.245
 7658SOL    HW224808   6.193   2.751   1.247
 7659SOL     OW24809  12.435  14.271   7.658
 7659SOL    HW124810  12.358  14.244   7.708
 7659SOL    HW224811  12.500  14.294   7.724
 7660SOL     OW24812   2.967   3.583   7.018
 7660SOL    HW124813   2.927   3.615   7.099
 7660SOL    HW224814   3.052   3.548   7.046
 7661SOL     OW24815   2.558  14.760   9.107
 7661SOL    HW124816   2.648  14.791   9.116
 7661SOL    HW224817   2.565  14.680   9.057
 7662SOL     OW24818  12.907   8.793   0.380
 7662SOL    HW124819  12.852   8.742   0.440
 7662SOL    HW224820  12.977   8.733   0.355
 7663SOL     OW24821  13.529   4.286   7.369
 7663SOL    HW124822  13.485   4.363   7.405
 7663SOL    HW224823  13.543   4.307   7.277
 7664SOL     OW24824   9.166   1.942  10.324
 7664SOL    HW124825   9.223   1.920  10.397
 7664SOL    HW224826   9.208   1.901  10.248
 7665SOL     OW24827  10.324  13.582   3.344
 7665SOL    HW124828  10.344  13.494   3.312
 7665SOL    HW224829  10.405  13.631   3.331
 7666SOL     OW24830   3.852   5.598  11.839
 7666SOL    HW124831   3.937   5.632  11.809
 7666SOL    HW224832   3.867   5.571  11.929
 7667SOL     OW24833   7.430   8.279   5.452
 7667SOL    HW124834   7.508   8.325   5.483
 7667SOL    HW224835   7.463   8.202   5.406
 7668SOL     OW24836   2.773   4.754   4.987
 7668SOL    HW124837   2.804   4.770   4.898
 7668SOL    HW224838   2.742   4.663   4.986
 7669SOL     OW24839   0.516   4.180   4.845
 7669SOL    HW124840   0.612   4.178   4.839
 7669SOL    HW224841   0.487   4.218   4.763
 7670SOL     OW24842   5.587   4.320   1.629
 7670SOL    HW124843   5.567   4.414   1.636
 7670SOL    HW224844   5.668   4.310   1.679
 7671SOL     OW24845   6.223   4.992   6.663
 7671SOL    HW124846   6.180   5.046   6.596
 7671SOL    HW224847   6.279   5.054   6.710
 7672SOL     OW24848  14.866  13.312   5.905
 7672SOL    HW124849  14.792  13.254   5.922
 7672SOL    HW224850   0.016  13.289   5.817
 7673SOL     OW24851   1.300   1.912   7.038
 7673SOL    HW124852   1.313   1.831   7.087
 7673SOL    HW224853   1.328   1.981   7.098
 7674SOL     OW24854   8.185   1.708   0.189
 7674SOL    HW124855   8.276   1.688   0.212
 7674SOL    HW224856   8.189   1.741   0.100
 7675SOL     OW24857   3.019   7.834   5.069
 7675SOL    HW124858   2.983   7.779   4.999
 7675SOL    HW224859   2.956   7.905   5.079
 7676SOL     OW24860   8.328   4.756   6.131
 7676SOL    HW124861   8.403   4.758   6.191
 7676SOL    HW224862   8.269   4.824   6.163
 7677SOL     OW24863  13.181   4.411   8.566
 7677SOL    HW124864  13.159   4.325   8.531
 7677SOL    HW224865  13.277   4.413   8.566
 7678SOL     OW24866  11.932  14.767   0.242
 7678SOL    HW124867  11.891  14.730   0.164
 7678SOL    HW224868  11.863  14.766   0.308
 7679SOL     OW24869   3.468   7.450  12.198
 7679SOL    HW124870   3.506   7.517  12.255
 7679SOL    HW224871   3.541   7.391  12.179
 7680SOL     OW24872   3.033  11.442  13.925
 7680SOL    HW124873   3.119  11.481  13.911
 7680SOL    HW224874   2.971  11.512  13.902
 7681SOL     OW24875  14.517   5.354   6.007
 7681SOL    HW124876  14.434   5.386   6.042
 7681SOL    HW224877  14.584   5.406   6.052
 7682SOL     OW24878   2.606  12.054  14.108
 7682SOL    HW124879   2.603  12.067  14.203
 7682SOL    HW224880   2.611  12.143  14.072
 7683SOL     OW24881   8.307   5.730   8.345
 7683SOL    HW124882   8.288   5.655   8.288
 7683SOL    HW224883   8.403   5.731   8.352
 7684SOL     OW24884   3.496  13.161   0.722
 7684SOL    HW124885   3.540  13.111   0.653
 7684SOL    HW224886   3.434  13.099   0.761
 7685SOL     OW24887  12.740   6.700  11.904
 7685SOL    HW124888  12.672   6.747  11.953
 7685SOL    HW224889  12.691   6.648  11.839
 7686SOL     OW24890  11.865  14.778   8.163
 7686SOL    HW124891  11.898  14.805   8.249
 7686SOL    HW224892  11.934  14.805   8.102
 7687SOL     OW24893   3.007   9.488   5.380
 7687SOL    HW124894   3.069   9.520   5.315
 7687SOL    HW224895   3.049   9.507   5.464
 7688SOL     OW24896   3.226   9.317   7.695
 7688SOL    HW124897   3.173   9.237   7.693
 7688SOL    HW224898   3.303   9.293   7.748
 7689SOL     OW24899  10.052  11.266   1.643
 7689SOL    HW124900  10.040  11.348   1.596
 7689SOL    HW224901  10.078  11.203   1.576
 7690SOL     OW24902   5.471  12.351  10.323
 7690SOL    HW124903   5.379  12.351  10.348
 7690SOL    HW224904   5.480  12.281  10.259
 7691SOL     OW24905   5.083   1.085  13.473
 7691SOL    HW124906   5.030   1.021  13.425
 7691SOL    HW224907   5.096   1.157  13.411
 7692SOL     OW24908   5.879  11.611   8.305
 7692SOL    HW124909   5.907  11.537   8.250
 7692SOL    HW224910   5.860  11.572   8.390
 7693SOL     OW24911   5.519   7.448  14.018
 7693SOL    HW124912   5.572   7.525  14.041
 7693SOL    HW224913   5.519   7.394  14.097
 7694SOL     OW24914  10.208   5.276  12.756
 7694SOL    HW124915  10.264   5.207  12.721
 7694SOL    HW224916  10.165   5.313  12.680
 7695SOL     OW24917  10.101  10.734  14.383
 7695SOL    HW124918  10.157  10.676  14.331
 7695SOL    HW224919  10.141  10.734  14.471
 7696SOL     OW24920   4.188   8.484   6.784
 7696SOL    HW124921   4.197   8.580   6.777
 7696SOL    HW224922   4.278   8.452   6.773
 7697SOL     OW24923  11.867   3.822   5.800
 7697SOL    HW124924  11.820   3.741   5.779
 7697SOL    HW224925  11.902   3.808   5.888
 7698SOL     OW24926   1.319  14.129   5.723
 7698SOL    HW124927   1.371  14.049   5.719
 7698SOL    HW224928   1.296  14.147   5.632
 7699SOL     OW24929  14.197   2.889   5.250
 7699SOL    HW124930  14.245   2.806   5.246
 7699SOL    HW224931  14.235   2.942   5.181
 7700SOL     OW24932   4.852  12.032   1.384
 7700SOL    HW124933   4.771  12.034   1.434
 7700SOL    HW224934   4.915  12.079   1.439
 7701SOL     OW24935   3.774  11.691   3.336
 7701SOL    HW124936   3.696  11.635   3.343
 7701SOL    HW224937   3.739  11.780   3.333
 7702SOL     OW24938  12.946   3.725   2.898
 7702SOL    HW124939  12.930   3.802   2.843
 7702SOL    HW224940  13.031   3.692   2.869
 7703SOL     OW24941  10.173   3.278   1.596
 7703SOL    HW124942  10.185   3.373   1.599
 7703SOL    HW224943  10.110   3.264   1.525
 7704SOL     OW24944   1.777  11.501  12.960
 7704SOL    HW124945   1.822  11.585  12.972
 7704SOL    HW224946   1.689  11.524  12.932
 7705SOL     OW24947   9.242   5.868  10.988
 7705SOL    HW124948   9.214   5.905  10.904
 7705SOL    HW224949   9.275   5.781  10.966
 7706SOL     OW24950  14.099   8.063   6.368
 7706SOL    HW124951  14.147   8.014   6.434
 7706SOL    HW224952  14.153   8.141   6.352
 7707SOL     OW24953   8.061   5.768   7.280
 7707SOL    HW124954   8.109   5.851   7.288
 7707SOL    HW224955   8.129   5.701   7.280
 7708SOL     OW24956  12.214   3.652  10.710
 7708SOL    HW124957  12.309   3.648  10.698
 7708SOL    HW224958  12.193   3.745  10.705
 7709SOL     OW24959  10.578   0.205   3.816
 7709SOL    HW124960  10.501   0.149   3.823
 7709SOL    HW224961  10.557   0.266   3.745
 7710SOL     OW24962   8.198   9.816   7.851
 7710SOL    HW124963   8.266   9.798   7.916
 7710SOL    HW224964   8.244   9.857   7.778
 7711SOL     OW24965   1.886  11.693   7.294
 7711SOL    HW124966   1.930  11.714   7.377
 7711SOL    HW224967   1.922  11.755   7.232
 7712SOL     OW24968   5.464   2.525   1.377
 7712SOL    HW124969   5.432   2.562   1.295
 7712SOL    HW224970   5.396   2.545   1.442
 7713SOL     OW24971   2.048   6.605   1.320
 7713SOL    HW124972   2.053   6.698   1.344
 7713SOL    HW224973   1.998   6.604   1.238
 7714SOL     OW24974  11.247   7.105   3.167
 7714SOL    HW124975  11.163   7.060   3.177
 7714SOL    HW224976  11.309   7.052   3.218
 7715SOL     OW24977   7.751  13.330   6.490
 7715SOL    HW124978   7.745  13.258   6.553
 7715SOL    HW224979   7.843  13.334   6.466
 7716SOL     OW24980   7.778   3.345  12.741
 7716SOL    HW124981   7.825   3.297  12.809
 7716SOL    HW224982   7.773   3.435  12.774
 7717SOL     OW24983  14.148   9.589   9.792
 7717SOL    HW124984  14.121   9.590   9.884
 7717SOL    HW224985  14.234   9.548   9.793
 7718SOL     OW24986   3.609  11.781  13.200
 7718SOL    HW124987   3.582  11.809  13.287
 7718SOL    HW224988   3.600  11.860  13.146
 7719SOL     OW24989   3.077   8.167  10.416
 7719SOL    HW124990   3.091   8.084  10.463
 7719SOL    HW224991   3.100   8.147  10.325
 7720SOL     OW24992   0.343   4.481   5.694
 7720SOL    HW124993   0.301   4.567   5.695
 7720SOL    HW224994   0.287   4.427   5.637
 7721SOL     OW24995  10.502   7.740   0.400
 7721SOL    HW124996  10.502   7.706   0.311
 7721SOL    HW224997  10.595   7.746   0.423
 7722SOL     OW24998   8.199  11.935  11.297
 7722SOL    HW124999   8.191  11.980  11.213
 7722SOL    HW225000   8.284  11.891  11.292
 7723SOL     OW25001   8.492  14.751   2.335
 7723SOL    HW125002   8.545  14.682   2.294
 7723SOL    HW225003   8.515  14.747   2.428
 7724SOL     OW25004   3.237  13.655   2.210
 7724SOL    HW125005   3.262  13.565   2.231
 7724SOL    HW225006   3.277  13.708   2.280
 7725SOL     OW25007   3.348   2.215  10.011
 7725SOL    HW125008   3.339   2.285  10.076
 7725SOL    HW225009   3.317   2.254   9.930
 7726SOL     OW25010  14.540   8.806   0.658
 7726SOL    HW125011  14.600   8.770   0.593
 7726SOL    HW225012  14.457   8.761   0.642
 7727SOL     OW25013   5.998   6.643   2.246
 7727SOL    HW125014   6.052   6.715   2.279
 7727SOL    HW225015   5.980   6.666   2.155
 7728SOL     OW25016  10.565   2.854  13.294
 7728SOL    HW125017  10.572   2.771  13.340
 7728SOL    HW225018  10.488   2.896  13.332
 7729SOL     OW25019   0.146   5.867   9.342
 7729SOL    HW125020   0.083   5.802   9.375
 7729SOL    HW225021   0.225   5.853   9.394
 7730SOL     OW25022   4.235  12.983   8.436
 7730SOL    HW125023   4.271  13.062   8.476
 7730SOL    HW225024   4.164  13.014   8.380
 7731SOL     OW25025   5.413   4.827   9.517
 7731SOL    HW125026   5.434   4.913   9.552
 7731SOL    HW225027   5.460   4.822   9.434
 7732SOL     OW25028   0.601   7.591   1.977
 7732SOL    HW125029   0.650   7.673   1.968
 7732SOL    HW225030   0.511   7.620   1.996
 7733SOL     OW25031   7.425   6.523  11.234
 7733SOL    HW125032   7.518   6.534  11.215
 7733SOL    HW225033   7.383   6.516  11.148
 7734SOL     OW25034   5.302   8.507   4.891
 7734SOL    HW125035   5.373   8.503   4.955
 7734SOL    HW225036   5.230   8.548   4.938
 7735SOL     OW25037   3.343  13.352  10.174
 7735SOL    HW125038   3.433  13.363  10.145
 7735SOL    HW225039   3.335  13.260  10.198
 7736SOL     OW25040   5.506   6.526   8.449
 7736SOL    HW125041   5.584   6.562   8.406
 7736SOL    HW225042   5.442   6.517   8.378
 7737SOL     OW25043   5.418  13.789   7.486
 7737SOL    HW125044   5.345  13.844   7.514
 7737SOL    HW225045   5.492  13.818   7.539
 7738SOL     OW25046   6.508  10.699  10.513
 7738SOL    HW125047   6.521  10.608  10.539
 7738SOL    HW225048   6.477  10.743  10.592
 7739SOL     OW25049   2.993   6.675   5.792
 7739SOL    HW125050   3.076   6.719   5.809
 7739SOL    HW225051   2.942   6.688   5.872
 7740SOL     OW25052   4.317   4.800   9.343
 7740SOL    HW125053   4.223   4.797   9.361
 7740SOL    HW225054   4.325   4.768   9.253
 7741SOL     OW25055  10.045   2.342   6.455
 7741SOL    HW125056   9.964   2.301   6.487
 7741SOL    HW225057  10.065   2.295   6.374
 7742SOL     OW25058  12.290   8.464   5.435
 7742SOL    HW125059  12.202   8.494   5.458
 7742SOL    HW225060  12.349   8.513   5.492
 7743SOL     OW25061  12.997  13.054   2.070
 7743SOL    HW125062  12.972  12.962   2.061
 7743SOL    HW225063  13.088  13.052   2.100
 7744SOL     OW25064   1.809   8.338   6.002
 7744SOL    HW125065   1.847   8.382   5.926
 7744SOL    HW225066   1.834   8.246   5.992
 7745SOL     OW25067  12.636   1.786  11.225
 7745SOL    HW125068  12.550   1.810  11.190
 7745SOL    HW225069  12.698   1.822  11.163
 7746SOL     OW25070   0.063  10.545   9.782
 7746SOL    HW125071  14.852  10.515   9.791
 7746SOL    HW225072   0.055  10.640   9.770
 7747SOL     OW25073  13.187  12.695   4.215
 7747SOL    HW125074  13.194  12.787   4.241
 7747SOL    HW225075  13.277  12.669   4.193
 7748SOL     OW25076   0.480   2.772   6.229
 7748SOL    HW125077   0.454   2.681   6.213
 7748SOL    HW225078   0.420   2.824   6.177
 7749SOL     OW25079   1.078   3.039   1.176
 7749SOL    HW125080   1.160   3.005   1.140
 7749SOL    HW225081   1.025   2.961   1.192
 7750SOL     OW25082   4.451   7.922   5.084
 7750SOL    HW125083   4.487   7.969   5.009
 7750SOL    HW225084   4.388   7.860   5.046
 7751SOL     OW25085  10.241  10.254   5.785
 7751SOL    HW125086  10.251  10.197   5.708
 7751SOL    HW225087  10.148  10.249   5.806
 7752SOL     OW25088   3.451  11.725  11.336
 7752SOL    HW125089   3.517  11.760  11.275
 7752SOL    HW225090   3.382  11.791  11.336
 7753SOL     OW25091   2.302   7.129  13.923
 7753SOL    HW125092   2.274   7.062  13.861
 7753SOL    HW225093   2.326   7.204  13.867
 7754SOL     OW25094   0.679   9.999  12.259
 7754SOL    HW125095   0.745  10.054  12.218
 7754SOL    HW225096   0.722   9.965  12.338
 7755SOL     OW25097  13.701   6.567   8.340
 7755SOL    HW125098  13.637   6.529   8.399
 7755SOL    HW225099  13.743   6.636   8.392
 7756SOL     OW25100  11.189   4.880   9.661
 7756SOL    HW125101  11.203   4.962   9.709
 7756SOL    HW225102  11.099   4.886   9.628
 7757SOL     OW25103   9.358  10.637  11.832
 7757SOL    HW125104   9.411  10.577  11.884
 7757SOL    HW225105   9.268  10.620  11.859
 7758SOL     OW25106   2.474   1.984   1.289
 7758SOL    HW125107   2.463   1.907   1.345
 7758SOL    HW225108   2.527   2.044   1.342
 7759SOL     OW25109   0.238   1.043  11.863
 7759SOL    HW125110   0.152   1.015  11.832
 7759SOL    HW225111   0.240   1.017  11.955
 7760SOL     OW25112   0.058   0.296  12.655
 7760SOL    HW125113   0.020   0.275  12.740
 7760SOL    HW225114   0.085   0.387  12.663
 7761SOL     OW25115   9.775   0.399   2.686
 7761SOL    HW125116   9.772   0.308   2.656
 7761SOL    HW225117   9.857   0.433   2.649
 7762SOL     OW25118   9.228   6.321  13.745
 7762SOL    HW125119   9.143   6.277  13.739
 7762SOL    HW225120   9.249   6.345  13.655
 7763SOL     OW25121   6.512   2.842  10.812
 7763SOL    HW125122   6.558   2.790  10.878
 7763SOL    HW225123   6.571   2.842  10.736
 7764SOL     OW25124  13.882   1.211   7.593
 7764SOL    HW125125  13.903   1.124   7.624
 7764SOL    HW225126  13.843   1.255   7.668
 7765SOL     OW25127   8.348   0.970  13.382
 7765SOL    HW125128   8.306   0.892  13.419
 7765SOL    HW225129   8.340   1.036  13.451
 7766SOL     OW25130  11.513   9.157   0.017
 7766SOL    HW125131  11.550   9.225  14.840
 7766SOL    HW225132  11.466   9.205   0.086
 7767SOL     OW25133   7.777   4.513   5.399
 7767SOL    HW125134   7.832   4.560   5.462
 7767SOL    HW225135   7.777   4.422   5.432
 7768SOL     OW25136   7.158   9.597  13.466
 7768SOL    HW125137   7.248   9.597  13.498
 7768SOL    HW225138   7.152   9.674  13.410
 7769SOL     OW25139   3.271  12.270   3.664
 7769SOL    HW125140   3.304  12.276   3.754
 7769SOL    HW225141   3.308  12.346   3.620
 7770SOL     OW25142   5.563   9.810   3.280
 7770SOL    HW125143   5.549   9.904   3.292
 7770SOL    HW225144   5.615   9.804   3.200
 7771SOL     OW25145   8.970  10.040  10.547
 7771SOL    HW125146   8.999  10.044  10.456
 7771SOL    HW225147   9.007   9.958  10.581
 7772SOL     OW25148   0.332   7.527   1.029
 7772SOL    HW125149   0.244   7.506   0.996
 7772SOL    HW225150   0.334   7.623   1.032
 7773SOL     OW25151   5.598  14.253   3.460
 7773SOL    HW125152   5.584  14.348   3.471
 7773SOL    HW225153   5.580  14.217   3.547
 7774SOL     OW25154  14.791  10.029  13.860
 7774SOL    HW125155  14.702  10.021  13.896
 7774SOL    HW225156  14.793  10.115  13.818
 7775SOL     OW25157   9.670   1.548  12.779
 7775SOL    HW125158   9.753   1.589  12.754
 7775SOL    HW225159   9.691   1.502  12.860
 7776SOL     OW25160   0.062   9.233   7.046
 7776SOL    HW125161  14.871   9.226   6.981
 7776SOL    HW225162   0.092   9.144   7.059
 7777SOL     OW25163  11.163   0.918   9.967
 7777SOL    HW125164  11.210   0.840   9.994
 7777SOL    HW225165  11.093   0.928  10.032
 7778SOL     OW25166  10.828  14.584  13.355
 7778SOL    HW125167  10.833  14.519  13.285
 7778SOL    HW225168  10.824  14.532  13.435
 7779SOL     OW25169   0.606  11.221  10.548
 7779SOL    HW125170   0.569  11.257  10.629
 7779SOL    HW225171   0.684  11.274  10.532
 7780SOL     OW25172  12.736   1.004  10.538
 7780SOL    HW125173  12.756   1.072  10.603
 7780SOL    HW225174  12.805   0.939  10.550
 7781SOL     OW25175  14.426  14.432   6.350
 7781SOL    HW125176  14.362  14.385   6.404
 7781SOL    HW225177  14.387  14.435   6.263
 7782SOL     OW25178   7.705   0.833   0.503
 7782SOL    HW125179   7.748   0.825   0.417
 7782SOL    HW225180   7.745   0.910   0.543
 7783SOL     OW25181   2.156  10.149   2.955
 7783SOL    HW125182   2.076  10.198   2.934
 7783SOL    HW225183   2.217  10.174   2.886
 7784SOL     OW25184   5.313   9.538  13.574
 7784SOL    HW125185   5.303   9.479  13.499
 7784SOL    HW225186   5.223   9.555  13.603
 7785SOL     OW25187   9.613   2.156  10.408
 7785SOL    HW125188   9.614   2.251  10.405
 7785SOL    HW225189   9.692   2.129  10.360
 7786SOL     OW25190  11.283   9.766   8.784
 7786SOL    HW125191  11.229   9.698   8.743
 7786SOL    HW225192  11.224   9.841   8.792
 7787SOL     OW25193  11.398   8.876   5.042
 7787SOL    HW125194  11.416   8.967   5.019
 7787SOL    HW225195  11.318   8.855   4.994
 7788SOL     OW25196   6.237   6.244   4.719
 7788SOL    HW125197   6.184   6.314   4.757
 7788SOL    HW225198   6.173   6.187   4.675
 7789SOL     OW25199   6.274  13.576  12.810
 7789SOL    HW125200   6.282  13.513  12.882
 7789SOL    HW225201   6.180  13.594  12.805
 7790SOL     OW25202  12.543   9.512   9.617
 7790SOL    HW125203  12.626   9.559   9.608
 7790SOL    HW225204  12.510   9.503   9.528
 7791SOL     OW25205   6.591   2.859   1.395
 7791SOL    HW125206   6.561   2.788   1.451
 7791SOL    HW225207   6.521   2.868   1.329
 7792SOL     OW25208  11.074   8.258  12.868
 7792SOL    HW125209  11.157   8.273  12.915
 7792SOL    HW225210  11.067   8.163  12.863
 7793SOL     OW25211  10.029  10.561  14.763
 7793SOL    HW125212   9.984  10.501  14.703
 7793SOL    HW225213  10.122  10.551  14.741
 7794SOL     OW25214   5.098  12.393   3.257
 7794SOL    HW125215   5.125  12.305   3.283
 7794SOL    HW225216   5.177  12.432   3.219
 7795SOL     OW25217   7.417  12.601  13.824
 7795SOL    HW125218   7.455  12.515  13.844
 7795SOL    HW225219   7.437  12.614  13.731
 7796SOL     OW25220   6.529   9.979  12.609
 7796SOL    HW125221   6.453  10.026  12.644
 7796SOL    HW225222   6.582  10.047  12.568
 7797SOL     OW25223   6.272  12.690   2.954
 7797SOL    HW125224   6.365  12.712   2.962
 7797SOL    HW225225   6.257  12.624   3.022
 7798SOL     OW25226   4.671   2.660  10.329
 7798SOL    HW125227   4.671   2.597  10.401
 7798SOL    HW225228   4.739   2.627  10.269
 7799SOL     OW25229  14.597  12.990   5.516
 7799SOL    HW125230  14.682  12.964   5.550
 7799SOL    HW225231  14.611  12.998   5.421
 7800SOL     OW25232   2.325  12.502   2.796
 7800SOL    HW125233   2.361  12.571   2.852
 7800SOL    HW225234   2.240  12.536   2.768
 7801SOL     OW25235   2.730   7.176   8.929
 7801SOL    HW125236   2.673   7.132   8.993
 7801SOL    HW225237   2.691   7.263   8.919
 7802SOL     OW25238   3.193   9.998  14.121
 7802SOL    HW125239   3.285   9.985  14.141
 7802SOL    HW225240   3.153   9.912  14.132
 7803SOL     OW25241  11.713   6.742  12.470
 7803SOL    HW125242  11.799   6.727  12.510
 7803SOL    HW225243  11.717   6.694  12.387
 7804SOL     OW25244  13.025   0.386   4.110
 7804SOL    HW125245  12.930   0.400   4.101
 7804SOL    HW225246  13.058   0.384   4.020
 7805SOL     OW25247   4.505   1.385   9.615
 7805SOL    HW125248   4.504   1.294   9.585
 7805SOL    HW225249   4.427   1.424   9.576
 7806SOL     OW25250   4.799   7.733   5.612
 7806SOL    HW125251   4.773   7.656   5.560
 7806SOL    HW225252   4.894   7.739   5.599
 7807SOL     OW25253   5.446   8.862  11.140
 7807SOL    HW125254   5.516   8.798  11.134
 7807SOL    HW225255   5.490   8.947  11.137
 7808SOL     OW25256   4.462   8.039   7.454
 7808SOL    HW125257   4.384   8.092   7.469
 7808SOL    HW225258   4.487   8.008   7.541
 7809SOL     OW25259   3.706   3.045   7.528
 7809SOL    HW125260   3.734   2.954   7.522
 7809SOL    HW225261   3.764   3.085   7.592
 7810SOL     OW25262   4.248   1.666   9.080
 7810SOL    HW125263   4.248   1.684   8.986
 7810SOL    HW225264   4.248   1.571   9.087
 7811SOL     OW25265  10.034   4.081  10.806
 7811SOL    HW125266   9.999   4.005  10.853
 7811SOL    HW225267  10.129   4.071  10.811
 7812SOL     OW25268  13.977   8.635   6.937
 7812SOL    HW125269  14.056   8.585   6.959
 7812SOL    HW225270  13.961   8.614   6.846
 7813SOL     OW25271   0.877   1.952   7.571
 7813SOL    HW125272   0.926   1.870   7.580
 7813SOL    HW225273   0.839   1.968   7.657
 7814SOL     OW25274  14.227  14.157   1.519
 7814SOL    HW125275  14.289  14.112   1.462
 7814SOL    HW225276  14.281  14.216   1.572
 7815SOL     OW25277  12.011   7.520   8.103
 7815SOL    HW125278  11.921   7.541   8.076
 7815SOL    HW225279  12.022   7.565   8.186
 7816SOL     OW25280   9.447   7.261   0.496
 7816SOL    HW125281   9.440   7.248   0.591
 7816SOL    HW225282   9.394   7.190   0.458
 7817SOL     OW25283   7.619  12.117  12.304
 7817SOL    HW125284   7.525  12.113  12.287
 7817SOL    HW225285   7.638  12.041  12.359
 7818SOL     OW25286   5.518   4.972   4.091
 7818SOL    HW125287   5.495   4.879   4.083
 7818SOL    HW225288   5.444   5.018   4.051
 7819SOL     OW25289   8.014   1.820  10.359
 7819SOL    HW125290   7.961   1.793  10.284
 7819SOL    HW225291   8.015   1.743  10.416
 7820SOL     OW25292   3.256  13.657   0.348
 7820SOL    HW125293   3.306  13.687   0.423
 7820SOL    HW225294   3.314  13.595   0.304
 7821SOL     OW25295   3.784   4.605   8.321
 7821SOL    HW125296   3.704   4.567   8.285
 7821SOL    HW225297   3.841   4.619   8.246
 7822SOL     OW25298   5.119   6.475  10.008
 7822SOL    HW125299   5.117   6.460  10.102
 7822SOL    HW225300   5.119   6.571   9.999
 7823SOL     OW25301   2.438   7.216   0.379
 7823SOL    HW125302   2.500   7.148   0.404
 7823SOL    HW225303   2.382   7.228   0.456
 7824SOL     OW25304  13.664   5.854  12.676
 7824SOL    HW125305  13.653   5.802  12.756
 7824SOL    HW225306  13.620   5.937  12.696
 7825SOL     OW25307   4.789   5.336   0.436
 7825SOL    HW125308   4.848   5.355   0.363
 7825SOL    HW225309   4.707   5.308   0.395
 7826SOL     OW25310   1.846   0.184   8.581
 7826SOL    HW125311   1.850   0.114   8.647
 7826SOL    HW225312   1.869   0.141   8.499
 7827SOL     OW25313   4.409   5.316   5.984
 7827SOL    HW125314   4.329   5.351   6.022
 7827SOL    HW225315   4.479   5.366   6.026
 7828SOL     OW25316   3.571   3.321   6.490
 7828SOL    HW125317   3.661   3.315   6.459
 7828SOL    HW225318   3.518   3.316   6.410
 7829SOL     OW25319  12.446   7.190   9.543
 7829SOL    HW125320  12.486   7.258   9.597
 7829SOL    HW225321  12.391   7.141   9.604
 7830SOL     OW25322  12.332   5.014   4.479
 7830SOL    HW125323  12.417   5.010   4.436
 7830SOL    HW225324  12.293   5.096   4.448
 7831SOL     OW25325   5.902   4.137  12.847
 7831SOL    HW125326   5.970   4.171  12.906
 7831SOL    HW225327   5.942   4.142  12.760
 7832SOL     OW25328   7.471   9.715   5.252
 7832SOL    HW125329   7.472   9.620   5.248
 7832SOL    HW225330   7.385   9.740   5.218
 7833SOL     OW25331   4.798  11.227   7.263
 7833SOL    HW125332   4.781  11.257   7.174
 7833SOL    HW225333   4.860  11.155   7.252
 7834SOL     OW25334  14.557   9.173  11.179
 7834SOL    HW125335  14.560   9.093  11.127
 7834SOL    HW225336  14.639   9.174  11.227
 7835SOL     OW25337   2.682   1.409   9.324
 7835SOL    HW125338   2.674   1.502   9.346
 7835SOL    HW225339   2.685   1.365   9.409
 7836SOL     OW25340  12.886  10.035   6.671
 7836SOL    HW125341  12.861  10.035   6.579
 7836SOL    HW225342  12.915   9.945   6.688
 7837SOL     OW25343  14.683   6.590  14.866
 7837SOL    HW125344  14.754   6.654  14.873
 7837SOL    HW225345  14.691   6.536   0.066
 7838SOL     OW25346   4.027  13.059   8.312
 7838SOL    HW125347   4.003  13.150   8.292
 7838SOL    HW225348   3.985  13.008   8.243
 7839SOL     OW25349   6.758  14.017   7.378
 7839SOL    HW125350   6.795  14.019   7.290
 7839SOL    HW225351   6.752  13.923   7.398
 7840SOL     OW25352   6.631   9.370   5.474
 7840SOL    HW125353   6.635   9.446   5.533
 7840SOL    HW225354   6.544   9.374   5.435
 7841SOL     OW25355  12.154   7.174  13.998
 7841SOL    HW125356  12.155   7.078  13.998
 7841SOL    HW225357  12.224   7.198  13.938
 7842SOL     OW25358  13.434   9.880   8.650
 7842SOL    HW125359  13.366   9.936   8.615
 7842SOL    HW225360  13.489   9.938   8.702
 7843SOL     OW25361   1.965   6.030   8.684
 7843SOL    HW125362   2.034   6.078   8.640
 7843SOL    HW225363   1.889   6.087   8.680
 7844SOL     OW25364   9.790   4.691   4.561
 7844SOL    HW125365   9.702   4.653   4.558
 7844SOL    HW225366   9.831   4.648   4.636
 7845SOL     OW25367   4.047   3.843   3.751
 7845SOL    HW125368   4.014   3.767   3.704
 7845SOL    HW225369   4.107   3.885   3.689
 7846SOL     OW25370  10.951  13.180   6.568
 7846SOL    HW125371  10.947  13.116   6.496
 7846SOL    HW225372  10.871  13.163   6.618
 7847SOL     OW25373   6.935  10.599   2.121
 7847SOL    HW125374   6.887  10.611   2.039
 7847SOL    HW225375   7.017  10.559   2.095
 7848SOL     OW25376  12.737   4.859   1.700
 7848SOL    HW125377  12.751   4.812   1.618
 7848SOL    HW225378  12.822   4.856   1.744
 7849SOL     OW25379   3.431   6.570  11.061
 7849SOL    HW125380   3.394   6.483  11.051
 7849SOL    HW225381   3.385   6.624  10.996
 7850SOL     OW25382   2.660   8.572  13.179
 7850SOL    HW125383   2.592   8.638  13.166
 7850SOL    HW225384   2.612   8.489  13.187
 7851SOL     OW25385  14.360  13.431   9.189
 7851SOL    HW125386  14.430  13.372   9.215
 7851SOL    HW225387  14.388  13.517   9.221
 7852SOL     OW25388   3.576  13.130   6.202
 7852SOL    HW125389   3.509  13.184   6.243
 7852SOL    HW225390   3.575  13.049   6.252
 7853SOL     OW25391   9.295   7.199  10.051
 7853SOL    HW125392   9.379   7.160  10.075
 7853SOL    HW225393   9.266   7.244  10.130
 7854SOL     OW25394   5.444  11.472   1.206
 7854SOL    HW125395   5.409  11.559   1.224
 7854SOL    HW225396   5.386  11.437   1.137
 7855SOL     OW25397  11.941  12.962  10.937
 7855SOL    HW125398  11.858  12.967  10.984
 7855SOL    HW225399  11.917  12.939  10.847
 7856SOL     OW25400   9.451  10.319   6.099
 7856SOL    HW125401   9.394  10.396   6.102
 7856SOL    HW225402   9.500  10.329   6.017
 7857SOL     OW25403   4.479  14.378   9.864
 7857SOL    HW125404   4.392  14.405   9.834
 7857SOL    HW225405   4.463  14.294   9.908
 7858SOL     OW25406   3.508  14.554  14.509
 7858SOL    HW125407   3.449  14.562  14.434
 7858SOL    HW225408   3.540  14.464  14.504
 7859SOL     OW25409   7.060  12.706   9.753
 7859SOL    HW125410   7.095  12.795   9.742
 7859SOL    HW225411   7.046  12.675   9.664
 7860SOL     OW25412   7.854  13.362   0.105
 7860SOL    HW125413   7.829  13.450   0.133
 7860SOL    HW225414   7.949  13.366   0.092
 7861SOL     OW25415  10.429   4.734   7.387
 7861SOL    HW125416  10.358   4.792   7.357
 7861SOL    HW225417  10.428   4.662   7.324
 7862SOL     OW25418  14.871   8.595   9.280
 7862SOL    HW125419   0.020   8.683   9.306
 7862SOL    HW225420   0.054   8.537   9.324
 7863SOL     OW25421   5.324   2.360   7.506
 7863SOL    HW125422   5.351   2.379   7.416
 7863SOL    HW225423   5.365   2.276   7.526
 7864SOL     OW25424   5.648  12.832   1.404
 7864SOL    HW125425   5.739  12.856   1.418
 7864SOL    HW225426   5.598  12.909   1.432
 7865SOL     OW25427   2.586   9.576   6.200
 7865SOL    HW125428   2.655   9.582   6.134
 7865SOL    HW225429   2.511   9.620   6.161
 7866SOL     OW25430  11.367   4.804   4.551
 7866SOL    HW125431  11.301   4.810   4.620
 7866SOL    HW225432  11.435   4.866   4.577
 7867SOL     OW25433   4.908  10.067  12.254
 7867SOL    HW125434   4.985  10.096  12.204
 7867SOL    HW225435   4.841  10.133  12.236
 7868SOL     OW25436  10.527   9.965   4.279
 7868SOL    HW125437  10.564  10.015   4.206
 7868SOL    HW225438  10.471   9.899   4.238
 7869SOL     OW25439  12.461   3.255  14.848
 7869SOL    HW125440  12.490   3.186   0.028
 7869SOL    HW225441  12.486   3.337   0.013
 7870SOL     OW25442  14.313   8.690  13.881
 7870SOL    HW125443  14.247   8.620  13.881
 7870SOL    HW225444  14.322   8.713  13.788
 7871SOL     OW25445   4.001   4.402   0.838
 7871SOL    HW125446   3.984   4.320   0.792
 7871SOL    HW225447   3.914   4.434   0.862
 7872SOL     OW25448   3.711   6.530   5.398
 7872SOL    HW125449   3.765   6.453   5.415
 7872SOL    HW225450   3.670   6.550   5.482
 7873SOL     OW25451  14.456   9.437   9.820
 7873SOL    HW125452  14.446   9.532   9.833
 7873SOL    HW225453  14.461   9.427   9.725
 7874SOL     OW25454   7.439   8.684  13.983
 7874SOL    HW125455   7.348   8.696  14.012
 7874SOL    HW225456   7.448   8.589  13.971
 7875SOL     OW25457   2.200   8.157  10.173
 7875SOL    HW125458   2.207   8.064  10.150
 7875SOL    HW225459   2.230   8.162  10.264
 7876SOL     OW25460   4.355  13.530  13.699
 7876SOL    HW125461   4.379  13.450  13.745
 7876SOL    HW225462   4.291  13.573  13.756
 7877SOL     OW25463  13.692   0.934   6.502
 7877SOL    HW125464  13.751   1.005   6.476
 7877SOL    HW225465  13.610   0.953   6.457
 7878SOL     OW25466   5.189   6.082  12.543
 7878SOL    HW125467   5.175   6.051  12.633
 7878SOL    HW225468   5.240   6.012  12.502
 7879SOL     OW25469   9.861   9.818   9.856
 7879SOL    HW125470   9.920   9.763   9.804
 7879SOL    HW225471   9.804   9.859   9.791
 7880SOL     OW25472   5.434   0.895   3.028
 7880SOL    HW125473   5.460   0.967   3.086
 7880SOL    HW225474   5.347   0.920   2.998
 7881SOL     OW25475   3.222  14.459  12.624
 7881SOL    HW125476   3.263  14.376  12.649
 7881SOL    HW225477   3.129  14.448  12.646
 7882SOL     OW25478   6.702   1.093   8.462
 7882SOL    HW125479   6.758   1.022   8.431
 7882SOL    HW225480   6.613   1.062   8.445
 7883SOL     OW25481   1.573   3.976  13.397
 7883SOL    HW125482   1.631   4.036  13.444
 7883SOL    HW225483   1.587   3.891  13.440
 7884SOL     OW25484  13.814  13.099   1.263
 7884SOL    HW125485  13.731  13.079   1.306
 7884SOL    HW225486  13.788  13.143   1.182
 7885SOL     OW25487   1.670  13.116   3.674
 7885SOL    HW125488   1.662  13.029   3.714
 7885SOL    HW225489   1.580  13.148   3.669
 7886SOL     OW25490   9.237   8.320   6.706
 7886SOL    HW125491   9.201   8.369   6.632
 7886SOL    HW225492   9.169   8.255   6.726
 7887SOL     OW25493   5.793   4.592   5.376
 7887SOL    HW125494   5.808   4.504   5.410
 7887SOL    HW225495   5.703   4.589   5.342
 7888SOL     OW25496   3.279  10.883   4.044
 7888SOL    HW125497   3.278  10.861   4.137
 7888SOL    HW225498   3.353  10.834   4.008
 7889SOL     OW25499   5.627   3.376   4.304
 7889SOL    HW125500   5.672   3.454   4.336
 7889SOL    HW225501   5.661   3.363   4.216
 7890SOL     OW25502   5.504  10.173   3.657
 7890SOL    HW125503   5.507  10.243   3.592
 7890SOL    HW225504   5.421  10.186   3.703
 7891SOL     OW25505   0.797  14.017   9.223
 7891SOL    HW125506   0.858  13.979   9.286
 7891SOL    HW225507   0.756  14.090   9.270
 7892SOL     OW25508   3.398  13.037   1.755
 7892SOL    HW125509   3.425  13.114   1.806
 7892SOL    HW225510   3.350  13.073   1.681
 7893SOL     OW25511  11.129  11.693  14.304
 7893SOL    HW125512  11.041  11.656  14.310
 7893SOL    HW225513  11.140  11.715  14.211
 7894SOL     OW25514  12.544   5.546   0.826
 7894SOL    HW125515  12.550   5.452   0.842
 7894SOL    HW225516  12.554   5.555   0.731
 7895SOL     OW25517  14.562   1.641  13.014
 7895SOL    HW125518  14.577   1.731  12.984
 7895SOL    HW225519  14.642   1.619  13.062
 7896SOL     OW25520   0.526  11.925  13.683
 7896SOL    HW125521   0.471  11.902  13.758
 7896SOL    HW225522   0.484  11.883  13.608
 7897SOL     OW25523  10.848  13.712   0.856
 7897SOL    HW125524  10.868  13.769   0.781
 7897SOL    HW225525  10.769  13.665   0.829
 7898SOL     OW25526   4.935  10.020  11.929
 7898SOL    HW125527   4.851  10.027  11.884
 7898SOL    HW225528   4.997   9.997  11.859
 7899SOL     OW25529  14.284   4.783  13.305
 7899SOL    HW125530  14.286   4.833  13.223
 7899SOL    HW225531  14.335   4.835  13.367
 7900SOL     OW25532   3.672   0.387   5.563
 7900SOL    HW125533   3.679   0.333   5.485
 7900SOL    HW225534   3.579   0.410   5.568
 7901SOL     OW25535   5.442   8.805  13.748
 7901SOL    HW125536   5.375   8.829  13.684
 7901SOL    HW225537   5.525   8.833  13.708
 7902SOL     OW25538   7.925   9.089   8.055
 7902SOL    HW125539   7.963   9.107   8.141
 7902SOL    HW225540   7.936   8.994   8.043
 7903SOL     OW25541   7.764  13.194   3.261
 7903SOL    HW125542   7.674  13.171   3.287
 7903SOL    HW225543   7.814  13.114   3.279
 7904SOL     OW25544   1.838  10.153   5.949
 7904SOL    HW125545   1.764  10.139   6.009
 7904SOL    HW225546   1.822  10.239   5.912
 7905SOL     OW25547  14.545  10.685   0.333
 7905SOL    HW125548  14.458  10.669   0.369
 7905SOL    HW225549  14.567  10.604   0.286
 7906SOL     OW25550  14.678   9.683   2.778
 7906SOL    HW125551  14.742   9.705   2.845
 7906SOL    HW225552  14.699   9.592   2.754
 7907SOL     OW25553   3.351   1.582   5.897
 7907SOL    HW125554   3.260   1.555   5.906
 7907SOL    HW225555   3.401   1.516   5.946
 7908SOL     OW25556  13.860  13.940   2.255
 7908SOL    HW125557  13.825  13.977   2.336
 7908SOL    HW225558  13.929  13.880   2.284
 7909SOL     OW25559   0.267   7.838   7.888
 7909SOL    HW125560   0.274   7.910   7.951
 7909SOL    HW225561   0.358   7.811   7.873
 7910SOL     OW25562   9.410   7.352  12.248
 7910SOL    HW125563   9.329   7.377  12.292
 7910SOL    HW225564   9.408   7.400  12.165
 7911SOL     OW25565   2.432  13.288   3.137
 7911SOL    HW125566   2.426  13.250   3.049
 7911SOL    HW225567   2.453  13.214   3.194
 7912SOL     OW25568   6.466  13.780  14.207
 7912SOL    HW125569   6.409  13.753  14.280
 7912SOL    HW225570   6.412  13.768  14.129
 7913SOL     OW25571  13.922   9.067   7.762
 7913SOL    HW125572  13.880   8.981   7.770
 7913SOL    HW225573  13.855   9.128   7.793
 7914SOL     OW25574   5.874  11.080   8.100
 7914SOL    HW125575   5.954  11.028   8.097
 7914SOL    HW225576   5.853  11.088   8.193
 7915SOL     OW25577   4.295   4.127   1.914
 7915SOL    HW125578   4.304   4.197   1.849
 7915SOL    HW225579   4.378   4.079   1.910
 7916SOL     OW25580   7.918   6.105   7.897
 7916SOL    HW125581   7.954   6.097   7.986
 7916SOL    HW225582   7.907   6.199   7.884
 7917SOL     OW25583  14.723   4.235   0.611
 7917SOL    HW125584  14.771   4.314   0.583
 7917SOL    HW225585  14.631   4.262   0.611
 7918SOL     OW25586   8.349  10.503  11.785
 7918SOL    HW125587   8.370  10.430  11.843
 7918SOL    HW225588   8.276  10.471  11.732
 7919SOL     OW25589  13.174  11.486  12.350
 7919SOL    HW125590  13.232  11.519  12.419
 7919SOL    HW225591  13.224  11.418  12.305
 7920SOL     OW25592   5.178  14.068   4.777
 7920SOL    HW125593   5.102  14.105   4.822
 7920SOL    HW225594   5.150  13.980   4.753
 7921SOL     OW25595   7.371   6.226  12.305
 7921SOL    HW125596   7.397   6.185  12.223
 7921SOL    HW225597   7.344   6.314  12.280
 7922SOL     OW25598  11.746   5.741   7.148
 7922SOL    HW125599  11.786   5.805   7.207
 7922SOL    HW225600  11.669   5.786   7.113
 7923SOL     OW25601   4.918   3.993  11.491
 7923SOL    HW125602   4.869   3.944  11.557
 7923SOL    HW225603   4.874   4.078  11.487
 7924SOL     OW25604  10.633   2.008   7.118
 7924SOL    HW125605  10.613   2.011   7.211
 7924SOL    HW225606  10.691   1.932   7.108
 7925SOL     OW25607  10.085   0.176  10.371
 7925SOL    HW125608  10.091   0.200  10.278
 7925SOL    HW225609  10.020   0.105  10.373
 7926SOL     OW25610   2.868   5.424   3.353
 7926SOL    HW125611   2.791   5.403   3.405
 7926SOL    HW225612   2.869   5.357   3.284
 7927SOL     OW25613   2.105   9.694   8.976
 7927SOL    HW125614   2.095   9.643   8.896
 7927SOL    HW225615   2.167   9.762   8.953
 7928SOL     OW25616   0.889   5.422   7.888
 7928SOL    HW125617   0.921   5.403   7.800
 7928SOL    HW225618   0.921   5.510   7.906
 7929SOL     OW25619   1.091   0.212  12.628
 7929SOL    HW125620   1.018   0.191  12.686
 7929SOL    HW225621   1.158   0.248  12.686
 7930SOL     OW25622   2.915  12.741   5.374
 7930SOL    HW125623   2.999  12.758   5.417
 7930SOL    HW225624   2.852  12.739   5.446
 7931SOL     OW25625   9.216   2.868  13.277
 7931SOL    HW125626   9.272   2.828  13.344
 7931SOL    HW225627   9.200   2.957  13.309
 7932SOL     OW25628   0.088   7.666   5.522
 7932SOL    HW125629  14.878   7.681   5.490
 7932SOL    HW225630   0.079   7.591   5.581
 7933SOL     OW25631   6.168   2.489   7.118
 7933SOL    HW125632   6.228   2.430   7.165
 7933SOL    HW225633   6.086   2.483   7.167
 7934SOL     OW25634   4.269  12.053   9.843
 7934SOL    HW125635   4.361  12.079   9.835
 7934SOL    HW225636   4.222  12.117   9.790
 7935SOL     OW25637   6.147  10.452   7.097
 7935SOL    HW125638   6.082  10.428   7.031
 7935SOL    HW225639   6.168  10.544   7.078
 7936SOL     OW25640   6.160   1.432   9.662
 7936SOL    HW125641   6.067   1.414   9.647
 7936SOL    HW225642   6.201   1.416   9.577
 7937SOL     OW25643  10.011   9.400   7.434
 7937SOL    HW125644   9.972   9.316   7.460
 7937SOL    HW225645   9.937   9.452   7.402
 7938SOL     OW25646   9.183   3.894   7.149
 7938SOL    HW125647   9.189   3.966   7.212
 7938SOL    HW225648   9.126   3.929   7.080
 7939SOL     OW25649  13.881   7.378  14.425
 7939SOL    HW125650  13.841   7.431  14.494
 7939SOL    HW225651  13.832   7.400  14.346
 7940SOL     OW25652  13.878   3.344  11.305
 7940SOL    HW125653  13.970   3.319  11.303
 7940SOL    HW225654  13.847   3.316  11.391
 7941SOL     OW25655   0.882   3.213  12.731
 7941SOL    HW125656   0.881   3.235  12.638
 7941SOL    HW225657   0.909   3.121  12.733
 7942SOL     OW25658   5.572  14.506   1.705
 7942SOL    HW125659   5.532  14.584   1.666
 7942SOL    HW225660   5.630  14.540   1.773
 7943SOL     OW25661  12.781   6.003   3.083
 7943SOL    HW125662  12.704   6.010   3.026
 7943SOL    HW225663  12.854   5.990   3.024
 7944SOL     OW25664  10.440   5.464  11.752
 7944SOL    HW125665  10.475   5.531  11.693
 7944SOL    HW225666  10.382   5.411  11.697
 7945SOL     OW25667   6.744   2.335   2.256
 7945SOL    HW125668   6.748   2.272   2.328
 7945SOL    HW225669   6.826   2.323   2.208
 7946SOL     OW25670   3.698   5.711  14.041
 7946SOL    HW125671   3.750   5.787  14.018
 7946SOL    HW225672   3.715   5.698  14.134
 7947SOL     OW25673   9.930  12.190   6.847
 7947SOL    HW125674   9.929  12.259   6.781
 7947SOL    HW225675   9.897  12.113   6.802
 7948SOL     OW25676   0.674   6.924   3.184
 7948SOL    HW125677   0.587   6.959   3.164
 7948SOL    HW225678   0.681   6.930   3.279
 7949SOL     OW25679   6.573   2.750  14.167
 7949SOL    HW125680   6.656   2.705  14.149
 7949SOL    HW225681   6.510   2.708  14.109
 7950SOL     OW25682   2.515   1.160   8.307
 7950SOL    HW125683   2.421   1.142   8.309
 7950SOL    HW225684   2.521   1.256   8.298
 7951SOL     OW25685  13.031   9.245   1.401
 7951SOL    HW125686  13.087   9.173   1.431
 7951SOL    HW225687  13.091   9.318   1.385
 7952SOL     OW25688   4.278   3.724  10.752
 7952SOL    HW125689   4.229   3.766  10.681
 7952SOL    HW225690   4.369   3.722  10.721
 7953SOL     OW25691   0.668  11.479  13.126
 7953SOL    HW125692   0.754  11.449  13.097
 7953SOL    HW225693   0.686  11.535  13.201
 7954SOL     OW25694   4.697  11.654   0.268
 7954SOL    HW125695   4.668  11.705   0.192
 7954SOL    HW225696   4.786  11.627   0.246
 7955SOL     OW25697   6.228  12.777   7.432
 7955SOL    HW125698   6.163  12.846   7.429
 7955SOL    HW225699   6.294  12.808   7.494
 7956SOL     OW25700   5.302   6.739   7.341
 7956SOL    HW125701   5.347   6.660   7.309
 7956SOL    HW225702   5.352   6.811   7.304
 7957SOL     OW25703   0.779   4.079   4.126
 7957SOL    HW125704   0.727   4.117   4.054
 7957SOL    HW225705   0.866   4.116   4.115
 7958SOL     OW25706   4.739  12.000   4.363
 7958SOL    HW125707   4.672  11.978   4.428
 7958SOL    HW225708   4.689  12.021   4.284
 7959SOL     OW25709   6.088  10.781  13.464
 7959SOL    HW125710   6.103  10.874  13.477
 7959SOL    HW225711   6.009  10.761  13.514
 7960SOL     OW25712   2.077   2.009   1.035
 7960SOL    HW125713   2.105   1.937   0.978
 7960SOL    HW225714   2.159   2.045   1.070
 7961SOL     OW25715  11.115   7.667   7.745
 7961SOL    HW125716  11.129   7.612   7.822
 7961SOL    HW225717  11.074   7.747   7.780
 7962SOL     OW25718  12.032   8.786   2.601
 7962SOL    HW125719  12.082   8.816   2.525
 7962SOL    HW225720  11.990   8.705   2.572
 7963SOL     OW25721   7.665  12.737   2.837
 7963SOL    HW125722   7.577  12.744   2.799
 7963SOL    HW225723   7.661  12.658   2.891
 7964SOL     OW25724   5.017  11.913   6.028
 7964SOL    HW125725   4.930  11.949   6.047
 7964SOL    HW225726   5.069  11.988   5.998
 7965SOL     OW25727   3.626   8.606   6.334
 7965SOL    HW125728   3.668   8.531   6.292
 7965SOL    HW225729   3.687   8.678   6.321
 7966SOL     OW25730   3.264  11.695   6.382
 7966SOL    HW125731   3.197  11.704   6.449
 7966SOL    HW225732   3.216  11.683   6.301
 7967SOL     OW25733   6.886  10.643   8.400
 7967SOL    HW125734   6.872  10.602   8.485
 7967SOL    HW225735   6.964  10.601   8.365
 7968SOL     OW25736  13.312   0.433  10.831
 7968SOL    HW125737  13.263   0.407  10.754
 7968SOL    HW225738  13.313   0.528  10.828
 7969SOL     OW25739   0.616   3.685  14.406
 7969SOL    HW125740   0.692   3.688  14.464
 7969SOL    HW225741   0.569   3.607  14.433
 7970SOL     OW25742   0.639  14.311   3.474
 7970SOL    HW125743   0.588  14.290   3.553
 7970SOL    HW225744   0.579  14.294   3.402
 7971SOL     OW25745   4.184  11.982  11.887
 7971SOL    HW125746   4.228  12.048  11.940
 7971SOL    HW225747   4.193  11.901  11.937
 7972SOL     OW25748   2.147  11.410  10.449
 7972SOL    HW125749   2.097  11.331  10.432
 7972SOL    HW225750   2.171  11.442  10.362
 7973SOL     OW25751  12.970  14.668   7.060
 7973SOL    HW125752  13.058  14.694   7.033
 7973SOL    HW225753  12.925  14.645   6.979
 7974SOL     OW25754   3.439   7.534   7.819
 7974SOL    HW125755   3.364   7.590   7.799
 7974SOL    HW225756   3.479   7.574   7.896
 7975SOL     OW25757   2.683   3.945   3.691
 7975SOL    HW125758   2.744   3.898   3.635
 7975SOL    HW225759   2.633   3.877   3.736
 7976SOL     OW25760  11.251   5.444  12.286
 7976SOL    HW125761  11.279   5.529  12.319
 7976SOL    HW225762  11.318   5.419  12.223
 7977SOL     OW25763  14.470   2.339  11.476
 7977SOL    HW125764  14.384   2.297  11.465
 7977SOL    HW225765  14.482   2.343  11.571
 7978SOL     OW25766   6.522   2.273  14.415
 7978SOL    HW125767   6.586   2.296  14.348
 7978SOL    HW225768   6.510   2.178  14.405
 7979SOL     OW25769   6.260  14.862   3.279
 7979SOL    HW125770   6.182   0.031   3.250
 7979SOL    HW225771   6.232  14.770   3.283
 7980SOL     OW25772  14.819   2.002   9.552
 7980SOL    HW125773  14.782   2.023   9.637
 7980SOL    HW225774   0.026   1.965   9.572
 7981SOL     OW25775   3.107   4.713   5.029
 7981SOL    HW125776   3.125   4.801   5.064
 7981SOL    HW225777   3.033   4.682   5.080
 7982SOL     OW25778  12.228   9.878   4.100
 7982SOL    HW125779  12.245   9.821   4.025
 7982SOL    HW225780  12.315   9.903   4.132
 7983SOL     OW25781   6.816   4.464   4.020
 7983SOL    HW125782   6.720   4.474   4.021
 7983SOL    HW225783   6.840   4.469   3.928
 7984SOL     OW25784  12.126  10.920  13.157
 7984SOL    HW125785  12.076  10.919  13.239
 7984SOL    HW225786  12.059  10.930  13.089
 7985SOL     OW25787   3.404   9.047   1.413
 7985SOL    HW125788   3.392   9.057   1.508
 7985SOL    HW225789   3.498   9.037   1.402
 7986SOL     OW25790   2.786   8.208  11.472
 7986SOL    HW125791   2.766   8.223  11.564
 7986SOL    HW225792   2.862   8.264  11.454
 7987SOL     OW25793  12.236  13.031   1.465
 7987SOL    HW125794  12.328  13.044   1.442
 7987SOL    HW225795  12.233  12.944   1.505
 7988SOL     OW25796   3.194  12.678   5.365
 7988SOL    HW125797   3.262  12.668   5.433
 7988SOL    HW225798   3.159  12.590   5.354
 7989SOL     OW25799   9.248  12.631   1.637
 7989SOL    HW125800   9.163  12.591   1.655
 7989SOL    HW225801   9.254  12.704   1.700
 7990SOL     OW25802   1.389  11.472   7.736
 7990SOL    HW125803   1.423  11.507   7.653
 7990SOL    HW225804   1.313  11.420   7.710
 7991SOL     OW25805   5.625   9.453   8.221
 7991SOL    HW125806   5.561   9.488   8.159
 7991SOL    HW225807   5.681   9.528   8.242
 7992SOL     OW25808   0.340  13.182  10.294
 7992SOL    HW125809   0.415  13.157  10.241
 7992SOL    HW225810   0.303  13.258  10.249
 7993SOL     OW25811   2.857  10.655   9.471
 7993SOL    HW125812   2.869  10.587   9.405
 7993SOL    HW225813   2.937  10.706   9.467
 7994SOL     OW25814  13.619   1.005   1.100
 7994SOL    HW125815  13.582   1.038   1.018
 7994SOL    HW225816  13.545   0.965   1.146
 7995SOL     OW25817  13.673   8.408   7.167
 7995SOL    HW125818  13.755   8.366   7.194
 7995SOL    HW225819  13.615   8.336   7.145
 7996SOL     OW25820  10.158   1.827  14.010
 7996SOL    HW125821  10.204   1.867  13.936
 7996SOL    HW225822  10.092   1.892  14.034
 7997SOL     OW25823   7.900   6.844  12.791
 7997SOL    HW125824   7.818   6.797  12.779
 7997SOL    HW225825   7.937   6.808  12.872
 7998SOL     OW25826  14.067   9.154   2.838
 7998SOL    HW125827  13.977   9.130   2.861
 7998SOL    HW225828  14.060   9.243   2.803
 7999SOL     OW25829  10.957   7.310  10.207
 7999SOL    HW125830  10.900   7.302  10.130
 7999SOL    HW225831  11.038   7.348  10.173
 8000SOL     OW25832   7.446  10.184  11.585
 8000SOL    HW125833   7.429  10.228  11.502
 8000SOL    HW225834   7.416  10.245  11.652
 8001SOL     OW25835   6.066   0.674   9.301
 8001SOL    HW125836   6.011   0.752   9.302
 8001SOL    HW225837   6.122   0.684   9.378
 8002SOL     OW25838   7.441   5.950   4.682
 8002SOL    HW125839   7.383   5.906   4.745
 8002SOL    HW225840   7.415   5.915   4.597
 8003SOL     OW25841   0.277   6.633  12.298
 8003SOL    HW125842   0.282   6.551  12.250
 8003SOL    HW225843   0.211   6.617  12.366
 8004SOL     OW25844  14.828   0.304  12.222
 8004SOL    HW125845  14.808   0.247  12.297
 8004SOL    HW225846  14.847   0.389  12.261
 8005SOL     OW25847   2.862   1.724   5.428
 8005SOL    HW125848   2.779   1.679   5.417
 8005SOL    HW225849   2.870   1.779   5.350
 8006SOL     OW25850   4.722   6.227   2.950
 8006SOL    HW125851   4.701   6.143   2.910
 8006SOL    HW225852   4.708   6.291   2.880
 8007SOL     OW25853   9.562   6.441   4.564
 8007SOL    HW125854   9.600   6.465   4.479
 8007SOL    HW225855   9.484   6.496   4.571
 8008SOL     OW25856   9.469   6.035   3.005
 8008SOL    HW125857   9.452   5.982   2.928
 8008SOL    HW225858   9.433   6.121   2.984
 8009SOL     OW25859   7.331  13.354  10.978
 8009SOL    HW125860   7.293  13.403  10.905
 8009SOL    HW225861   7.271  13.280  10.991
 8010SOL     OW25862  12.364   5.354   8.763
 8010SOL    HW125863  12.324   5.369   8.677
 8010SOL    HW225864  12.352   5.437   8.809
 8011SOL     OW25865   1.672   1.128   1.664
 8011SOL    HW125866   1.606   1.168   1.720
 8011SOL    HW225867   1.696   1.047   1.710
 8012SOL     OW25868   0.828  12.680  10.716
 8012SOL    HW125869   0.759  12.661  10.653
 8012SOL    HW225870   0.824  12.774  10.729
 8013SOL     OW25871   0.026   2.741   5.597
 8013SOL    HW125872   0.045   2.789   5.518
 8013SOL    HW225873   0.034   2.649   5.572
 8014SOL     OW25874  10.176  14.325   9.939
 8014SOL    HW125875  10.142  14.360   9.856
 8014SOL    HW225876  10.159  14.230   9.933
 8015SOL     OW25877  11.373  13.514   1.995
 8015SOL    HW125878  11.445  13.472   1.949
 8015SOL    HW225879  11.392  13.500   2.088
 8016SOL     OW25880  12.812   3.159   3.745
 8016SOL    HW125881  12.871   3.084   3.755
 8016SOL    HW225882  12.745   3.129   3.685
 8017SOL     OW25883   2.478  14.710  10.996
 8017SOL    HW125884   2.447  14.718  11.087
 8017SOL    HW225885   2.572  14.725  11.002
 8018SOL     OW25886   3.320   9.159  10.368
 8018SOL    HW125887   3.343   9.075  10.328
 8018SOL    HW225888   3.381   9.169  10.441
 8019SOL     OW25889   0.443   2.317   2.149
 8019SOL    HW125890   0.361   2.269   2.162
 8019SOL    HW225891   0.505   2.250   2.120
 8020SOL     OW25892   2.827   1.169  10.975
 8020SOL    HW125893   2.831   1.221  10.895
 8020SOL    HW225894   2.867   1.225  11.042
 8021SOL     OW25895   7.065   0.227   8.998
 8021SOL    HW125896   7.089   0.235   8.906
 8021SOL    HW225897   7.148   0.231   9.045
 8022SOL     OW25898   0.566   5.104   2.808
 8022SOL    HW125899   0.659   5.096   2.828
 8022SOL    HW225900   0.535   5.014   2.800
 8023SOL     OW25901   1.879   3.959  13.850
 8023SOL    HW125902   1.885   3.866  13.830
 8023SOL    HW225903   1.931   4.002  13.782
 8024SOL     OW25904   1.727  13.577  10.146
 8024SOL    HW125905   1.804  13.633  10.156
 8024SOL    HW225906   1.713  13.540  10.233
 8025SOL     OW25907  14.310  11.081   0.281
 8025SOL    HW125908  14.267  11.153   0.327
 8025SOL    HW225909  14.238  11.027   0.248
 8026SOL     OW25910   0.066   2.909   4.507
 8026SOL    HW125911   0.078   2.856   4.428
 8026SOL    HW225912   0.090   2.851   4.579
 8027SOL     OW25913   5.056  10.654   0.394
 8027SOL    HW125914   4.967  10.685   0.414
 8027SOL    HW225915   5.080  10.600   0.468
 8028SOL     OW25916   1.689   8.857   4.340
 8028SOL    HW125917   1.712   8.911   4.416
 8028SOL    HW225918   1.770   8.813   4.317
 8029SOL     OW25919  12.739   0.754   7.845
 8029SOL    HW125920  12.653   0.762   7.803
 8029SOL    HW225921  12.790   0.827   7.808
 8030SOL     OW25922  13.594   8.451  11.578
 8030SOL    HW125923  13.572   8.383  11.514
 8030SOL    HW225924  13.617   8.528  11.525
 8031SOL     OW25925   4.545   4.424   6.508
 8031SOL    HW125926   4.597   4.502   6.528
 8031SOL    HW225927   4.494   4.448   6.430
 8032SOL     OW25928   2.939   2.191   4.446
 8032SOL    HW125929   3.026   2.228   4.432
 8032SOL    HW225930   2.954   2.096   4.444
 8033SOL     OW25931   3.109  13.456   3.886
 8033SOL    HW125932   3.169  13.387   3.914
 8033SOL    HW225933   3.075  13.492   3.968
 8034SOL     OW25934  14.663  12.503   3.926
 8034SOL    HW125935  14.687  12.416   3.895
 8034SOL    HW225936  14.736  12.559   3.899
 8035SOL     OW25937  11.077   8.273   9.485
 8035SOL    HW125938  11.114   8.254   9.571
 8035SOL    HW225939  11.014   8.343   9.501
 8036SOL     OW25940   9.003  12.738   1.924
 8036SOL    HW125941   8.975  12.710   2.011
 8036SOL    HW225942   8.981  12.831   1.920
 8037SOL     OW25943  13.087  12.454   7.001
 8037SOL    HW125944  13.122  12.478   6.915
 8037SOL    HW225945  13.157  12.476   7.063
 8038SOL     OW25946   2.895   1.553  10.146
 8038SOL    HW125947   2.909   1.614  10.074
 8038SOL    HW225948   2.982   1.517  10.164
 8039SOL     OW25949   7.409  14.770   8.784
 8039SOL    HW125950   7.472  14.840   8.771
 8039SOL    HW225951   7.424  14.711   8.710
 8040SOL     OW25952  13.383   2.189  13.440
 8040SOL    HW125953  13.422   2.211  13.356
 8040SOL    HW225954  13.393   2.094  13.448
 8041SOL     OW25955   3.096   2.420   0.115
 8041SOL    HW125956   3.079   2.430   0.209
 8041SOL    HW225957   3.183   2.380   0.111
 8042SOL     OW25958  11.488   0.339   7.941
 8042SOL    HW125959  11.499   0.403   8.012
 8042SOL    HW225960  11.510   0.255   7.982
 8043SOL     OW25961  10.671   9.026   1.101
 8043SOL    HW125962  10.586   9.039   1.057
 8043SOL    HW225963  10.672   8.933   1.124
 8044SOL     OW25964  13.858  11.027   3.209
 8044SOL    HW125965  13.828  10.942   3.178
 8044SOL    HW225966  13.835  11.089   3.139
 8045SOL     OW25967  10.585   2.839   2.754
 8045SOL    HW125968  10.527   2.777   2.710
 8045SOL    HW225969  10.526   2.893   2.806
 8046SOL     OW25970   8.287  12.379  11.704
 8046SOL    HW125971   8.317  12.403  11.792
 8046SOL    HW225972   8.362  12.399  11.648
 8047SOL     OW25973   7.420  13.998   8.104
 8047SOL    HW125974   7.506  13.991   8.063
 8047SOL    HW225975   7.361  14.019   8.032
 8048SOL     OW25976   1.899   1.674   0.282
 8048SOL    HW125977   1.856   1.723   0.212
 8048SOL    HW225978   1.828   1.646   0.339
 8049SOL     OW25979  11.521   3.853  10.933
 8049SOL    HW125980  11.547   3.779  10.878
 8049SOL    HW225981  11.587   3.920  10.916
 8050SOL     OW25982   3.898  13.995   4.867
 8050SOL    HW125983   3.823  14.028   4.917
 8050SOL    HW225984   3.881  13.901   4.857
 8051SOL     OW25985   2.487  10.482   6.520
 8051SOL    HW125986   2.457  10.407   6.469
 8051SOL    HW225987   2.441  10.475   6.603
 8052SOL     OW25988   8.269  13.199   4.237
 8052SOL    HW125989   8.273  13.135   4.167
 8052SOL    HW225990   8.234  13.151   4.312
 8053SOL     OW25991  13.905   7.739  12.388
 8053SOL    HW125992  13.819   7.760  12.426
 8053SOL    HW225993  13.886   7.711  12.299
 8054SOL     OW25994   1.210   0.235   8.246
 8054SOL    HW125995   1.138   0.205   8.301
 8054SOL    HW225996   1.198   0.190   8.163
 8055SOL     OW25997   5.102   8.106   6.167
 8055SOL    HW125998   5.161   8.054   6.113
 8055SOL    HW225999   5.082   8.183   6.114
 8056SOL     OW26000   5.368  11.306   2.164
 8056SOL    HW126001   5.397  11.393   2.138
 8056SOL    HW226002   5.302  11.321   2.231
 8057SOL     OW26003   6.008   1.673   5.175
 8057SOL    HW126004   6.069   1.726   5.226
 8057SOL    HW226005   5.922   1.713   5.191
 8058SOL     OW26006   7.868  12.347   0.046
 8058SOL    HW126007   7.779  12.361   0.013
 8058SOL    HW226008   7.882  12.419   0.108
 8059SOL     OW26009  10.289   9.131  12.556
 8059SOL    HW126010  10.246   9.051  12.587
 8059SOL    HW226011  10.217   9.187  12.527
 8060SOL     OW26012   6.787  14.262  11.358
 8060SOL    HW126013   6.740  14.258  11.274
 8060SOL    HW226014   6.878  14.279  11.333
 8061SOL     OW26015   5.270  14.608   8.251
 8061SOL    HW126016   5.183  14.599   8.211
 8061SOL    HW226017   5.307  14.520   8.247
 8062SOL     OW26018  13.872  11.308   4.802
 8062SOL    HW126019  13.873  11.227   4.751
 8062SOL    HW226020  13.885  11.280   4.893
 8063SOL     OW26021  12.261   6.565   2.168
 8063SOL    HW126022  12.335   6.557   2.108
 8063SOL    HW226023  12.195   6.614   2.120
 8064SOL     OW26024  10.405   7.947   3.712
 8064SOL    HW126025  10.501   7.953   3.708
 8064SOL    HW226026  10.387   7.900   3.794
 8065SOL     OW26027  12.513   2.436   3.051
 8065SOL    HW126028  12.602   2.466   3.032
 8065SOL    HW226029  12.480   2.406   2.967
 8066SOL     OW26030   2.147  10.812   3.147
 8066SOL    HW126031   2.091  10.804   3.224
 8066SOL    HW226032   2.218  10.870   3.175
 8067SOL     OW26033   4.028   1.812   7.926
 8067SOL    HW126034   4.101   1.850   7.877
 8067SOL    HW226035   4.056   1.817   8.018
 8068SOL     OW26036   3.604   4.237   2.256
 8068SOL    HW126037   3.647   4.167   2.207
 8068SOL    HW226038   3.627   4.221   2.347
 8069SOL     OW26039   6.589  11.806   0.670
 8069SOL    HW126040   6.606  11.896   0.644
 8069SOL    HW226041   6.607  11.754   0.592
 8070SOL     OW26042  12.951   9.821  13.359
 8070SOL    HW126043  12.872   9.834  13.411
 8070SOL    HW226044  12.931   9.860  13.274
 8071SOL     OW26045   7.856  11.869   6.820
 8071SOL    HW126046   7.902  11.805   6.765
 8071SOL    HW226047   7.877  11.954   6.781
 8072SOL     OW26048  10.538   8.040   8.293
 8072SOL    HW126049  10.610   7.984   8.324
 8072SOL    HW226050  10.557   8.055   8.201
 8073SOL     OW26051   6.277   9.362   8.585
 8073SOL    HW126052   6.349   9.415   8.551
 8073SOL    HW226053   6.241   9.318   8.508
 8074SOL     OW26054  12.842  10.080  11.096
 8074SOL    HW126055  12.909  10.148  11.108
 8074SOL    HW226056  12.876  10.026  11.024
 8075SOL     OW26057   1.245   5.461   9.201
 8075SOL    HW126058   1.297   5.381   9.206
 8075SOL    HW226059   1.247   5.485   9.108
 8076SOL     OW26060   9.504  13.372   8.509
 8076SOL    HW126061   9.432  13.433   8.520
 8076SOL    HW226062   9.474  13.311   8.441
 8077SOL     OW26063   4.964  13.333   8.102
 8077SOL    HW126064   4.903  13.265   8.072
 8077SOL    HW226065   4.909  13.394   8.151
 8078SOL     OW26066  11.462  12.635   3.559
 8078SOL    HW126067  11.429  12.570   3.622
 8078SOL    HW226068  11.536  12.677   3.603
 8079SOL     OW26069   1.931   3.650  13.917
 8079SOL    HW126070   1.904   3.581  13.978
 8079SOL    HW226071   1.954   3.723  13.974
 8080SOL     OW26072   0.454   0.123   5.056
 8080SOL    HW126073   0.509   0.162   4.989
 8080SOL    HW226074   0.403   0.196   5.091
 8081SOL     OW26075   3.735  13.471   1.932
 8081SOL    HW126076   3.820  13.513   1.934
 8081SOL    HW226077   3.727  13.437   1.843
 8082SOL     OW26078   0.194   7.339   8.426
 8082SOL    HW126079   0.196   7.262   8.483
 8082SOL    HW226080   0.283   7.372   8.427
 8083SOL     OW26081   6.608   0.028   3.644
 8083SOL    HW126082   6.545   0.038   3.573
 8083SOL    HW226083   6.694   0.035   3.603
 8084SOL     OW26084   0.051   6.803   7.333
 8084SOL    HW126085   0.089   6.722   7.366
 8084SOL    HW226086  14.860   6.824   7.394
 8085SOL     OW26087  13.945  12.993  12.941
 8085SOL    HW126088  13.955  12.901  12.914
 8085SOL    HW226089  13.996  12.999  13.022
 8086SOL     OW26090  10.566  13.992   4.721
 8086SOL    HW126091  10.620  13.967   4.646
 8086SOL    HW226092  10.588  14.084   4.736
 8087SOL     OW26093   1.057   3.990   3.081
 8087SOL    HW126094   1.008   3.938   3.144
 8087SOL    HW226095   1.079   4.071   3.128
 8088SOL     OW26096   3.695  12.493  11.209
 8088SOL    HW126097   3.616  12.546  11.213
 8088SOL    HW226098   3.765  12.554  11.187
 8089SOL     OW26099   4.385   5.451  12.968
 8089SOL    HW126100   4.330   5.487  13.038
 8089SOL    HW226101   4.338   5.471  12.888
 8090SOL     OW26102  11.911  11.509  14.838
 8090SOL    HW126103  11.959  11.565  14.777
 8090SOL    HW226104  11.819  11.530  14.823
 8091SOL     OW26105  12.596   8.945   6.795
 8091SOL    HW126106  12.606   8.871   6.735
 8091SOL    HW226107  12.673   8.941   6.852
 8092SOL     OW26108   1.405   4.227   4.305
 8092SOL    HW126109   1.357   4.147   4.322
 8092SOL    HW226110   1.345   4.297   4.328
 8093SOL     OW26111   7.194   8.286   1.541
 8093SOL    HW126112   7.161   8.234   1.614
 8093SOL    HW226113   7.149   8.370   1.549
 8094SOL     OW26114   8.469   5.625  14.083
 8094SOL    HW126115   8.380   5.657  14.071
 8094SOL    HW226116   8.498   5.599  13.995
 8095SOL     OW26117   7.378   6.450  10.976
 8095SOL    HW126118   7.386   6.371  11.030
 8095SOL    HW226119   7.420   6.426  10.893
 8096SOL     OW26120   2.534   5.301   1.060
 8096SOL    HW126121   2.623   5.337   1.054
 8096SOL    HW226122   2.538   5.239   1.133
 8097SOL     OW26123  13.535  12.592  12.028
 8097SOL    HW126124  13.480  12.618  12.102
 8097SOL    HW226125  13.620  12.631  12.047
 8098SOL     OW26126   7.481  11.789   2.734
 8098SOL    HW126127   7.499  11.784   2.641
 8098SOL    HW226128   7.475  11.698   2.762
 8099SOL     OW26129  11.269   0.110   0.454
 8099SOL    HW126130  11.273   0.163   0.534
 8099SOL    HW226131  11.246   0.023   0.485
 8100SOL     OW26132  13.281   5.575   4.653
 8100SOL    HW126133  13.309   5.527   4.730
 8100SOL    HW226134  13.196   5.612   4.677
 8101SOL     OW26135  11.922  14.096  11.815
 8101SOL    HW126136  11.983  14.022  11.809
 8101SOL    HW226137  11.849  14.072  11.758
 8102SOL     OW26138   1.054   3.983  12.447
 8102SOL    HW126139   1.132   4.016  12.402
 8102SOL    HW226140   1.062   4.015  12.537
 8103SOL     OW26141   8.333  12.180   6.207
 8103SOL    HW126142   8.313  12.202   6.115
 8103SOL    HW226143   8.377  12.258   6.241
 8104SOL     OW26144   4.638  12.507  11.882
 8104SOL    HW126145   4.729  12.498  11.911
 8104SOL    HW226146   4.621  12.601  11.887
 8105SOL     OW26147   2.749   0.723   5.634
 8105SOL    HW126148   2.752   0.638   5.591
 8105SOL    HW226149   2.838   0.757   5.626
 8106SOL     OW26150  14.671   4.574   9.628
 8106SOL    HW126151  14.729   4.601   9.699
 8106SOL    HW226152  14.721   4.594   9.548
 8107SOL     OW26153   4.933   1.516   3.826
 8107SOL    HW126154   5.015   1.470   3.811
 8107SOL    HW226155   4.959   1.602   3.858
 8108SOL     OW26156  10.116  11.293   9.446
 8108SOL    HW126157  10.091  11.202   9.430
 8108SOL    HW226158  10.058  11.324   9.515
 8109SOL     OW26159   6.740   8.273   3.803
 8109SOL    HW126160   6.728   8.198   3.861
 8109SOL    HW226161   6.835   8.283   3.796
 8110SOL     OW26162   9.090  12.644   3.048
 8110SOL    HW126163   9.136  12.594   2.980
 8110SOL    HW226164   9.127  12.732   3.042
 8111SOL     OW26165   5.752  13.228   3.515
 8111SOL    HW126166   5.753  13.211   3.609
 8111SOL    HW226167   5.757  13.323   3.507
 8112SOL     OW26168   8.458   0.184  12.221
 8112SOL    HW126169   8.485   0.255  12.163
 8112SOL    HW226170   8.374   0.214  12.257
 8113SOL     OW26171   5.421   0.164  12.328
 8113SOL    HW126172   5.439   0.072  12.310
 8113SOL    HW226173   5.433   0.173  12.423
 8114SOL     OW26174   8.764   9.919  13.837
 8114SOL    HW126175   8.752   9.985  13.906
 8114SOL    HW226176   8.691   9.859  13.847
 8115SOL     OW26177   0.723   0.726   5.349
 8115SOL    HW126178   0.785   0.699   5.281
 8115SOL    HW226179   0.734   0.821   5.355
 8116SOL     OW26180   2.203  11.478   8.996
 8116SOL    HW126181   2.111  11.484   9.022
 8116SOL    HW226182   2.241  11.415   9.057
 8117SOL     OW26183   0.496   8.098  11.859
 8117SOL    HW126184   0.551   8.020  11.854
 8117SOL    HW226185   0.416   8.068  11.901
 8118SOL     OW26186   2.290   5.554  11.714
 8118SOL    HW126187   2.195   5.562  11.725
 8118SOL    HW226188   2.302   5.532  11.622
 8119SOL     OW26189  10.943  12.815  13.743
 8119SOL    HW126190  10.974  12.897  13.707
 8119SOL    HW226191  10.933  12.757  13.667
 8120SOL     OW26192   3.621   5.289   5.807
 8120SOL    HW126193   3.550   5.326   5.753
 8120SOL    HW226194   3.579   5.218   5.855
 8121SOL     OW26195   3.890   1.479  14.365
 8121SOL    HW126196   3.839   1.423  14.307
 8121SOL    HW226197   3.859   1.567  14.346
 8122SOL     OW26198  12.739   0.299  11.885
 8122SOL    HW126199  12.764   0.230  11.946
 8122SOL    HW226200  12.796   0.285  11.809
 8123SOL     OW26201   7.744  13.779   1.583
 8123SOL    HW126202   7.744  13.846   1.651
 8123SOL    HW226203   7.712  13.824   1.505
 8124SOL     OW26204   4.555  14.032  14.352
 8124SOL    HW126205   4.632  13.977  14.345
 8124SOL    HW226206   4.589  14.122  14.348
 8125SOL     OW26207  10.916   8.625  10.680
 8125SOL    HW126208  10.996   8.673  10.701
 8125SOL    HW226209  10.939   8.533  10.694
 8126SOL     OW26210   1.172   5.783   4.328
 8126SOL    HW126211   1.083   5.750   4.315
 8126SOL    HW226212   1.224   5.704   4.346
 8127SOL     OW26213   0.104  10.284  12.873
 8127SOL    HW126214   0.153  10.333  12.807
 8127SOL    HW226215   0.022  10.260  12.830
 8128SOL     OW26216   8.263   0.273   5.299
 8128SOL    HW126217   8.181   0.241   5.337
 8128SOL    HW226218   8.262   0.367   5.314
 8129SOL     OW26219  11.986  11.143   9.730
 8129SOL    HW126220  11.964  11.209   9.796
 8129SOL    HW226221  11.912  11.082   9.731
 8130SOL     OW26222   2.274   8.709   9.693
 8130SOL    HW126223   2.242   8.651   9.762
 8130SOL    HW226224   2.247   8.666   9.612
 8131SOL     OW26225   3.758   5.134  12.734
 8131SOL    HW126226   3.695   5.062  12.728
 8131SOL    HW226227   3.793   5.127  12.823
 8132SOL     OW26228   9.351   2.161   3.399
 8132SOL    HW126229   9.385   2.242   3.438
 8132SOL    HW226230   9.262   2.154   3.434
 8133SOL     OW26231  12.511   7.913   6.167
 8133SOL    HW126232  12.506   7.947   6.077
 8133SOL    HW226233  12.601   7.931   6.194
 8134SOL     OW26234   0.945   2.719   3.030
 8134SOL    HW126235   0.901   2.787   3.081
 8134SOL    HW226236   0.875   2.678   2.979
 8135SOL     OW26237   2.263   8.083  10.436
 8135SOL    HW126238   2.238   8.148  10.502
 8135SOL    HW226239   2.351   8.056  10.462
 8136SOL     OW26240   7.835   7.589  11.196
 8136SOL    HW126241   7.753   7.601  11.243
 8136SOL    HW226242   7.902   7.619  11.258
 8137SOL     OW26243  14.127   2.071   2.266
 8137SOL    HW126244  14.038   2.105   2.275
 8137SOL    HW226245  14.121   1.981   2.299
 8138SOL     OW26246   5.114  13.505  12.060
 8138SOL    HW126247   5.038  13.514  12.002
 8138SOL    HW226248   5.176  13.450  12.011
 8139SOL     OW26249  11.032  11.071  11.368
 8139SOL    HW126250  11.040  11.050  11.275
 8139SOL    HW226251  11.044  10.988  11.413
 8140SOL     OW26252   4.023   4.244   3.905
 8140SOL    HW126253   3.956   4.178   3.886
 8140SOL    HW226254   4.037   4.236   4.000
 8141SOL     OW26255  10.649  12.585   8.257
 8141SOL    HW126256  10.650  12.634   8.174
 8141SOL    HW226257  10.609  12.501   8.235
 8142SOL     OW26258   8.433  13.468   3.934
 8142SOL    HW126259   8.426  13.447   4.028
 8142SOL    HW226260   8.455  13.385   3.893
 8143SOL     OW26261   0.259   8.173   8.523
 8143SOL    HW126262   0.168   8.165   8.549
 8143SOL    HW226263   0.299   8.228   8.590
 8144SOL     OW26264   0.422   3.542   9.082
 8144SOL    HW126265   0.425   3.636   9.096
 8144SOL    HW226266   0.459   3.504   9.161
 8145SOL     OW26267   2.265   7.898  14.235
 8145SOL    HW126268   2.347   7.947  14.241
 8145SOL    HW226269   2.197   7.966  14.226
 8146SOL     OW26270   9.663   4.160   4.754
 8146SOL    HW126271   9.573   4.168   4.723
 8146SOL    HW226272   9.656   4.151   4.849
 8147SOL     OW26273   6.984   8.241   4.717
 8147SOL    HW126274   7.040   8.165   4.735
 8147SOL    HW226275   6.918   8.238   4.786
 8148SOL     OW26276  11.012  11.603   0.064
 8148SOL    HW126277  10.994  11.688   0.024
 8148SOL    HW226278  11.051  11.551  14.872
 8149SOL     OW26279   3.648   1.399   6.911
 8149SOL    HW126280   3.714   1.462   6.939
 8149SOL    HW226281   3.698   1.321   6.886
 8150SOL     OW26282   6.764  13.796  13.700
 8150SOL    HW126283   6.810  13.720  13.737
 8150SOL    HW226284   6.770  13.863  13.769
 8151SOL     OW26285   4.500  13.090   8.783
 8151SOL    HW126286   4.461  13.010   8.818
 8151SOL    HW226287   4.468  13.160   8.840
 8152SOL     OW26288   9.373  11.491  10.847
 8152SOL    HW126289   9.413  11.408  10.818
 8152SOL    HW226290   9.319  11.466  10.923
 8153SOL     OW26291   6.433  11.570  12.794
 8153SOL    HW126292   6.528  11.578  12.795
 8153SOL    HW226293   6.416  11.486  12.837
 8154SOL     OW26294   1.215   1.096   6.245
 8154SOL    HW126295   1.160   1.153   6.300
 8154SOL    HW226296   1.215   1.012   6.291
 8155SOL     OW26297   2.719   8.356   4.773
 8155SOL    HW126298   2.677   8.273   4.753
 8155SOL    HW226299   2.653   8.422   4.754
 8156SOL     OW26300   2.624   0.314   4.495
 8156SOL    HW126301   2.561   0.383   4.476
 8156SOL    HW226302   2.705   0.360   4.519
 8157SOL     OW26303   7.594   0.567   7.381
 8157SOL    HW126304   7.585   0.655   7.344
 8157SOL    HW226305   7.653   0.578   7.456
 8158SOL     OW26306   8.422   4.883   4.582
 8158SOL    HW126307   8.457   4.952   4.525
 8158SOL    HW226308   8.440   4.802   4.536
 8159SOL     OW26309   4.399   3.983   0.027
 8159SOL    HW126310   4.433   4.039  14.837
 8159SOL    HW226311   4.418   3.894  14.876
 8160SOL     OW26312  13.444   2.705   4.311
 8160SOL    HW126313  13.404   2.669   4.390
 8160SOL    HW226314  13.525   2.745   4.342
 8161SOL     OW26315   6.972  13.297  12.163
 8161SOL    HW126316   6.883  13.263  12.172
 8161SOL    HW226317   7.022  13.223  12.130
 8162SOL     OW26318  10.364   4.861  10.847
 8162SOL    HW126319  10.408   4.794  10.898
 8162SOL    HW226320  10.400   4.943  10.879
 8163SOL     OW26321  12.173  11.484  14.508
 8163SOL    HW126322  12.244  11.427  14.535
 8163SOL    HW226323  12.190  11.500  14.415
 8164SOL     OW26324   5.688   6.258  14.776
 8164SOL    HW126325   5.639   6.304  14.708
 8164SOL    HW226326   5.678   6.312  14.854
 8165SOL     OW26327  11.401   8.492   3.825
 8165SOL    HW126328  11.310   8.518   3.809
 8165SOL    HW226329  11.431   8.456   3.741
 8166SOL     OW26330  13.248   2.139   5.768
 8166SOL    HW126331  13.320   2.155   5.707
 8166SOL    HW226332  13.279   2.070   5.826
 8167SOL     OW26333   3.105   5.582  13.928
 8167SOL    HW126334   3.197   5.606  13.916
 8167SOL    HW226335   3.064   5.598  13.843
 8168SOL     OW26336   0.290   1.292   7.220
 8168SOL    HW126337   0.255   1.352   7.287
 8168SOL    HW226338   0.212   1.257   7.177
 8169SOL     OW26339   8.661   5.941  10.482
 8169SOL    HW126340   8.623   6.028  10.491
 8169SOL    HW226341   8.749   5.949  10.517
 8170SOL     OW26342   1.307   1.355   5.407
 8170SOL    HW126343   1.258   1.412   5.348
 8170SOL    HW226344   1.247   1.338   5.479
 8171SOL     OW26345  14.503   5.727   3.804
 8171SOL    HW126346  14.486   5.781   3.882
 8171SOL    HW226347  14.542   5.647   3.839
 8172SOL     OW26348   6.133  12.583  11.339
 8172SOL    HW126349   6.120  12.623  11.425
 8172SOL    HW226350   6.079  12.504  11.340
 8173SOL     OW26351  13.509   9.652   5.739
 8173SOL    HW126352  13.493   9.600   5.660
 8173SOL    HW226353  13.550   9.732   5.706
 8174SOL     OW26354   9.054   7.961   1.649
 8174SOL    HW126355   8.988   7.896   1.622
 8174SOL    HW226356   9.120   7.909   1.695
 8175SOL     OW26357  12.112   6.570  10.673
 8175SOL    HW126358  12.150   6.657  10.666
 8175SOL    HW226359  12.054   6.575  10.749
 8176SOL     OW26360   5.614  14.307   9.644
 8176SOL    HW126361   5.704  14.293   9.673
 8176SOL    HW226362   5.610  14.268   9.557
 8177SOL     OW26363   5.715  12.636   1.810
 8177SOL    HW126364   5.782  12.579   1.771
 8177SOL    HW226365   5.710  12.608   1.901
 8178SOL     OW26366   0.086   0.923   4.347
 8178SOL    HW126367   0.017   0.932   4.282
 8178SOL    HW226368   0.142   0.999   4.335
 8179SOL     OW26369   5.121  12.856   8.819
 8179SOL    HW126370   5.191  12.792   8.804
 8179SOL    HW226371   5.167  12.934   8.849
 8180SOL     OW26372   5.497   8.367   5.067
 8180SOL    HW126373   5.534   8.303   5.005
 8180SOL    HW226374   5.549   8.446   5.053
 8181SOL     OW26375  11.807   9.789   1.543
 8181SOL    HW126376  11.828   9.849   1.472
 8181SOL    HW226377  11.890   9.779   1.591
 8182SOL     OW26378  13.689   5.485  13.320
 8182SOL    HW126379  13.594   5.486  13.305
 8182SOL    HW226380  13.715   5.395  13.301
 8183SOL     OW26381   6.896  10.773   5.327
 8183SOL    HW126382   6.947  10.854   5.325
 8183SOL    HW226383   6.815  10.797   5.371
 8184SOL     OW26384   8.956   0.073   8.609
 8184SOL    HW126385   8.887   0.006   8.613
 8184SOL    HW226386   8.972   0.097   8.700
 8185SOL     OW26387  10.225   2.889   7.634
 8185SOL    HW126388  10.258   2.962   7.582
 8185SOL    HW226389  10.169   2.931   7.700
 8186SOL     OW26390  13.019  14.408   4.238
 8186SOL    HW126391  12.962  14.390   4.312
 8186SOL    HW226392  13.000  14.499   4.214
 8187SOL     OW26393   5.537   2.794   0.838
 8187SOL    HW126394   5.613   2.760   0.792
 8187SOL    HW226395   5.559   2.886   0.856
 8188SOL     OW26396   7.761   1.629   2.857
 8188SOL    HW126397   7.810   1.610   2.777
 8188SOL    HW226398   7.747   1.543   2.897
 8189SOL     OW26399   0.517  11.902   4.790
 8189SOL    HW126400   0.535  11.886   4.883
 8189SOL    HW226401   0.497  11.996   4.785
 8190SOL     OW26402   2.171   6.139   9.447
 8190SOL    HW126403   2.238   6.109   9.386
 8190SOL    HW226404   2.186   6.233   9.456
 8191SOL     OW26405   7.055   6.033   0.111
 8191SOL    HW126406   7.034   5.939   0.117
 8191SOL    HW226407   6.970   6.076   0.120
 8192SOL     OW26408   3.495   0.302   6.223
 8192SOL    HW126409   3.430   0.356   6.180
 8192SOL    HW226410   3.465   0.212   6.208
 8193SOL     OW26411   7.791   0.196   8.396
 8193SOL    HW126412   7.877   0.216   8.360
 8193SOL    HW226413   7.730   0.251   8.346
 8194SOL     OW26414  12.036   3.905  10.844
 8194SOL    HW126415  12.003   3.858  10.920
 8194SOL    HW226416  11.958   3.934  10.798
 8195SOL     OW26417   6.168   9.866   8.495
 8195SOL    HW126418   6.112   9.876   8.572
 8195SOL    HW226419   6.255   9.893   8.524
 8196SOL     OW26420   7.318  12.300   0.728
 8196SOL    HW126421   7.349  12.265   0.645
 8196SOL    HW226422   7.294  12.223   0.780
 8197SOL     OW26423   9.432   1.192   6.781
 8197SOL    HW126424   9.491   1.157   6.848
 8197SOL    HW226425   9.359   1.129   6.779
 8198SOL     OW26426   1.575   2.116  14.007
 8198SOL    HW126427   1.497   2.123  14.063
 8198SOL    HW226428   1.560   2.035  13.957
 8199SOL     OW26429   0.568   2.592  12.746
 8199SOL    HW126430   0.525   2.567  12.827
 8199SOL    HW226431   0.610   2.676  12.766
 8200SOL     OW26432  10.929   0.784  11.720
 8200SOL    HW126433  11.008   0.767  11.770
 8200SOL    HW226434  10.960   0.819  11.637
 8201SOL     OW26435   0.224   1.250   9.770
 8201SOL    HW126436   0.247   1.202   9.690
 8201SOL    HW226437   0.240   1.187   9.840
 8202SOL     OW26438   4.492   0.667  12.444
 8202SOL    HW126439   4.518   0.575  12.434
 8202SOL    HW226440   4.575   0.714  12.456
 8203SOL     OW26441  12.120   1.096   8.770
 8203SOL    HW126442  12.102   1.147   8.692
 8203SOL    HW226443  12.214   1.103   8.783
 8204SOL     OW26444  14.087   4.430   8.282
 8204SOL    HW126445  14.143   4.364   8.323
 8204SOL    HW226446  13.999   4.409   8.311
 8205SOL     OW26447   1.531  14.049   9.333
 8205SOL    HW126448   1.553  14.021   9.423
 8205SOL    HW226449   1.551  13.972   9.279
 8206SOL     OW26450  13.926  11.545   1.514
 8206SOL    HW126451  13.958  11.455   1.513
 8206SOL    HW226452  13.869  11.549   1.591
 8207SOL     OW26453   3.220   2.436   7.768
 8207SOL    HW126454   3.155   2.452   7.700
 8207SOL    HW226455   3.300   2.477   7.735
 8208SOL     OW26456   5.955   0.985  14.040
 8208SOL    HW126457   5.900   0.910  14.064
 8208SOL    HW226458   6.020   0.949  13.979
 8209SOL     OW26459   0.145   2.067   4.728
 8209SOL    HW126460   0.154   2.044   4.635
 8209SOL    HW226461   0.153   2.163   4.730
 8210SOL     OW26462  11.768  12.307   1.489
 8210SOL    HW126463  11.790  12.284   1.579
 8210SOL    HW226464  11.713  12.235   1.459
 8211SOL     OW26465   3.430  13.205   5.438
 8211SOL    HW126466   3.505  13.257   5.406
 8211SOL    HW226467   3.469  13.123   5.468
 8212SOL     OW26468   2.511   5.362   8.576
 8212SOL    HW126469   2.536   5.296   8.511
 8212SOL    HW226470   2.434   5.325   8.620
 8213SOL     OW26471   4.573   2.929   8.498
 8213SOL    HW126472   4.654   2.881   8.514
 8213SOL    HW226473   4.565   2.988   8.573
 8214SOL     OW26474   6.971   8.307  14.205
 8214SOL    HW126475   6.965   8.402  14.196
 8214SOL    HW226476   6.885   8.274  14.179
 8215SOL     OW26477   7.001  11.393   4.605
 8215SOL    HW126478   7.015  11.381   4.699
 8215SOL    HW226479   6.912  11.429   4.598
 8216SOL     OW26480   2.164   3.856   7.825
 8216SOL    HW126481   2.224   3.929   7.839
 8216SOL    HW226482   2.078   3.897   7.818
 8217SOL     OW26483   3.330   3.882   2.256
 8217SOL    HW126484   3.423   3.869   2.272
 8217SOL    HW226485   3.297   3.926   2.334
 8218SOL     OW26486   6.112   0.877   1.034
 8218SOL    HW126487   6.101   0.796   1.084
 8218SOL    HW226488   6.086   0.947   1.094
 8219SOL     OW26489   5.320   6.791  13.136
 8219SOL    HW126490   5.275   6.854  13.192
 8219SOL    HW226491   5.251   6.732  13.106
 8220SOL     OW26492   7.967  12.400   3.350
 8220SOL    HW126493   7.882  12.389   3.309
 8220SOL    HW226494   7.994  12.312   3.374
 8221SOL     OW26495   1.742  13.952   4.274
 8221SOL    HW126496   1.787  14.031   4.305
 8221SOL    HW226497   1.726  13.968   4.181
 8222SOL     OW26498   3.419   6.741   5.174
 8222SOL    HW126499   3.412   6.836   5.164
 8222SOL    HW226500   3.387   6.723   5.262
 8223SOL     OW26501   2.068   6.876   3.474
 8223SOL    HW126502   2.056   6.940   3.405
 8223SOL    HW226503   2.102   6.926   3.549
 8224SOL     OW26504  13.896   9.988  13.134
 8224SOL    HW126505  13.857  10.044  13.202
 8224SOL    HW226506  13.981   9.963  13.169
 8225SOL     OW26507   0.151   3.542  11.400
 8225SOL    HW126508   0.087   3.489  11.353
 8225SOL    HW226509   0.207   3.579  11.331
 8226SOL     OW26510  11.853   7.872  13.448
 8226SOL    HW126511  11.933   7.868  13.500
 8226SOL    HW226512  11.882   7.858  13.358
 8227SOL     OW26513   0.783   9.049   9.702
 8227SOL    HW126514   0.742   9.133   9.721
 8227SOL    HW226515   0.853   9.041   9.767
 8228SOL     OW26516  10.577   4.907  12.533
 8228SOL    HW126517  10.643   4.841  12.511
 8228SOL    HW226518  10.611   4.949  12.612
 8229SOL     OW26519   3.556   2.059   2.993
 8229SOL    HW126520   3.630   2.007   3.024
 8229SOL    HW226521   3.511   2.002   2.931
 8230SOL     OW26522   8.605  14.870   0.435
 8230SOL    HW126523   8.657  14.789   0.430
 8230SOL    HW226524   8.526  14.845   0.483
 8231SOL     OW26525   0.361   9.922  11.106
 8231SOL    HW126526   0.288   9.862  11.091
 8231SOL    HW226527   0.354   9.986  11.036
 8232SOL     OW26528   5.737   0.226  11.230
 8232SOL    HW126529   5.817   0.272  11.202
 8232SOL    HW226530   5.754   0.202  11.322
 8233SOL     OW26531   3.754   4.002  10.633
 8233SOL    HW126532   3.764   3.910  10.654
 8233SOL    HW226533   3.702   4.003  10.553
 8234SOL     OW26534   3.470  13.600   4.521
 8234SOL    HW126535   3.421  13.527   4.484
 8234SOL    HW226536   3.463  13.589   4.616
 8235SOL     OW26537   8.368  12.864   2.124
 8235SOL    HW126538   8.440  12.827   2.176
 8235SOL    HW226539   8.290  12.819   2.156
 8236SOL     OW26540   1.314   3.548  10.766
 8236SOL    HW126541   1.324   3.569  10.859
 8236SOL    HW226542   1.393   3.498  10.744
 8237SOL     OW26543  11.031   8.650  12.908
 8237SOL    HW126544  11.049   8.625  12.817
 8237SOL    HW226545  10.942   8.686  12.905
 8238SOL     OW26546   6.638  12.018   1.547
 8238SOL    HW126547   6.615  12.100   1.504
 8238SOL    HW226548   6.561  11.998   1.602
 8239SOL     OW26549   7.209   0.635   9.977
 8239SOL    HW126550   7.196   0.546   9.942
 8239SOL    HW226551   7.135   0.685   9.945
 8240SOL     OW26552   1.932  12.531   0.555
 8240SOL    HW126553   1.969  12.563   0.473
 8240SOL    HW226554   1.987  12.456   0.579
 8241SOL     OW26555   7.435   0.365   7.408
 8241SOL    HW126556   7.493   0.438   7.429
 8241SOL    HW226557   7.440   0.357   7.313
 8242SOL     OW26558   7.441  13.900   2.596
 8242SOL    HW126559   7.428  13.825   2.654
 8242SOL    HW226560   7.385  13.969   2.632
 8243SOL     OW26561  14.862  10.166   8.212
 8243SOL    HW126562   0.042  10.109   8.163
 8243SOL    HW226563  14.845  10.239   8.152
 8244SOL     OW26564   9.450  12.311   1.863
 8244SOL    HW126565   9.359  12.333   1.846
 8244SOL    HW226566   9.466  12.342   1.952
 8245SOL     OW26567  13.283  10.693   6.119
 8245SOL    HW126568  13.242  10.759   6.063
 8245SOL    HW226569  13.209  10.645   6.157
 8246SOL     OW26570   1.288  13.339   9.303
 8246SOL    HW126571   1.288  13.291   9.219
 8246SOL    HW226572   1.315  13.273   9.367
 8247SOL     OW26573   3.142   2.610  11.211
 8247SOL    HW126574   3.120   2.614  11.118
 8247SOL    HW226575   3.201   2.684  11.224
 8248SOL     OW26576   9.180   8.000  14.590
 8248SOL    HW126577   9.184   7.904  14.589
 8248SOL    HW226578   9.219   8.024  14.674
 8249SOL     OW26579   2.332   9.453   3.929
 8249SOL    HW126580   2.296   9.542   3.933
 8249SOL    HW226581   2.315   9.425   3.839
 8250SOL     OW26582  11.909  10.896  10.467
 8250SOL    HW126583  11.889  10.823  10.526
 8250SOL    HW226584  11.995  10.927  10.496
 8251SOL     OW26585   3.106   6.447  14.185
 8251SOL    HW126586   3.182   6.391  14.193
 8251SOL    HW226587   3.116   6.491  14.101
 8252SOL     OW26588   5.875   5.340  13.247
 8252SOL    HW126589   5.905   5.302  13.330
 8252SOL    HW226590   5.837   5.266  13.200
 8253SOL     OW26591  14.877  12.962  11.915
 8253SOL    HW126592   0.048  12.950  11.835
 8253SOL    HW226593  14.878  12.876  11.957
 8254SOL     OW26594  14.851   7.360   1.402
 8254SOL    HW126595   0.047   7.305   1.381
 8254SOL    HW226596  14.777   7.318   1.357
 8255SOL     OW26597  14.738  12.513   4.683
 8255SOL    HW126598  14.648  12.541   4.698
 8255SOL    HW226599  14.744  12.428   4.726
 8256SOL     OW26600   7.250   5.576   2.249
 8256SOL    HW126601   7.204   5.514   2.304
 8256SOL    HW226602   7.287   5.640   2.310
 8257SOL     OW26603   8.380  14.475  13.833
 8257SOL    HW126604   8.407  14.424  13.757
 8257SOL    HW226605   8.459  14.483  13.886
 8258SOL     OW26606   5.703   3.121   8.529
 8258SOL    HW126607   5.637   3.053   8.530
 8258SOL    HW226608   5.774   3.087   8.584
 8259SOL     OW26609   3.916  10.483   3.089
 8259SOL    HW126610   3.998  10.531   3.102
 8259SOL    HW226611   3.866  10.500   3.169
 8260SOL     OW26612   3.895   6.903  11.859
 8260SOL    HW126613   3.844   6.886  11.779
 8260SOL    HW226614   3.893   6.998  11.868
 8261SOL     OW26615   7.885  10.239  13.240
 8261SOL    HW126616   7.821  10.233  13.311
 8261SOL    HW226617   7.950  10.302  13.271
 8262SOL     OW26618  12.187   0.081   0.456
 8262SOL    HW126619  12.153   0.108   0.541
 8262SOL    HW226620  12.244   0.152   0.429
 8263SOL     OW26621   4.870  11.979   3.603
 8263SOL    HW126622   4.899  11.951   3.516
 8263SOL    HW226623   4.951  11.992   3.653
 8264SOL     OW26624  11.810   7.288  13.129
 8264SOL    HW126625  11.779   7.237  13.204
 8264SOL    HW226626  11.741   7.353  13.113
 8265SOL     OW26627   0.812   8.611   4.305
 8265SOL    HW126628   0.842   8.628   4.394
 8265SOL    HW226629   0.886   8.566   4.264
 8266SOL     OW26630  14.447  12.170  11.375
 8266SOL    HW126631  14.440  12.074  11.369
 8266SOL    HW226632  14.362  12.198  11.406
 8267SOL     OW26633   6.464   7.993   0.346
 8267SOL    HW126634   6.378   8.034   0.360
 8267SOL    HW226635   6.518   8.064   0.310
 8268SOL     OW26636   4.322   3.836   6.926
 8268SOL    HW126637   4.288   3.784   6.854
 8268SOL    HW226638   4.368   3.909   6.884
 8269SOL     OW26639   7.815   4.798   2.887
 8269SOL    HW126640   7.882   4.768   2.948
 8269SOL    HW226641   7.767   4.866   2.935
 8270SOL     OW26642  11.026  10.341  10.104
 8270SOL    HW126643  10.988  10.361  10.018
 8270SOL    HW226644  10.978  10.399  10.164
 8271SOL     OW26645   7.683  10.363   1.006
 8271SOL    HW126646   7.615  10.306   0.970
 8271SOL    HW226647   7.754  10.304   1.031
 8272SOL     OW26648   0.189   3.442  12.159
 8272SOL    HW126649   0.270   3.412  12.199
 8272SOL    HW226650   0.211   3.526  12.120
 8273SOL     OW26651   5.100  14.142   3.635
 8273SOL    HW126652   5.097  14.113   3.544
 8273SOL    HW226653   5.174  14.203   3.639
 8274SOL     OW26654   9.283   4.841  14.384
 8274SOL    HW126655   9.375   4.866  14.377
 8274SOL    HW226656   9.241   4.916  14.426
 8275SOL     OW26657  10.077  14.242   4.590
 8275SOL    HW126658  10.074  14.175   4.522
 8275SOL    HW226659   9.986  14.268   4.603
 8276SOL     OW26660   1.459  10.111  11.478
 8276SOL    HW126661   1.516  10.057  11.423
 8276SOL    HW226662   1.388  10.053  11.504
 8277SOL     OW26663   9.185  11.431  12.244
 8277SOL    HW126664   9.190  11.505  12.184
 8277SOL    HW226665   9.114  11.377  12.210
 8278SOL     OW26666   2.048   7.293   7.231
 8278SOL    HW126667   2.022   7.337   7.150
 8278SOL    HW226668   2.106   7.355   7.275
 8279SOL     OW26669   9.724   1.143   9.992
 8279SOL    HW126670   9.767   1.119  10.075
 8279SOL    HW226671   9.656   1.076   9.981
 8280SOL     OW26672   6.501   7.985   3.252
 8280SOL    HW126673   6.553   8.064   3.239
 8280SOL    HW226674   6.524   7.955   3.340
 8281SOL     OW26675  11.831   1.984  14.357
 8281SOL    HW126676  11.889   2.060  14.354
 8281SOL    HW226677  11.782   1.988  14.275
 8282SOL     OW26678   6.518   5.657  13.071
 8282SOL    HW126679   6.586   5.643  13.136
 8282SOL    HW226680   6.448   5.701  13.120
 8283SOL     OW26681  13.474   9.489   1.804
 8283SOL    HW126682  13.567   9.487   1.782
 8283SOL    HW226683  13.459   9.407   1.851
 8284SOL     OW26684   7.794  12.101   3.026
 8284SOL    HW126685   7.757  12.050   2.954
 8284SOL    HW226686   7.842  12.036   3.078
 8285SOL     OW26687   8.454   4.886  13.854
 8285SOL    HW126688   8.470   4.796  13.880
 8285SOL    HW226689   8.359   4.894  13.853
 8286SOL     OW26690  13.019  13.172   9.191
 8286SOL    HW126691  12.974  13.098   9.148
 8286SOL    HW226692  12.990  13.167   9.282
 8287SOL     OW26693   0.159   0.282   0.906
 8287SOL    HW126694   0.181   0.190   0.920
 8287SOL    HW226695   0.177   0.297   0.813
 8288SOL     OW26696   5.320  13.816   5.117
 8288SOL    HW126697   5.303  13.764   5.196
 8288SOL    HW226698   5.239  13.811   5.066
 8289SOL     OW26699   6.462   1.506   3.420
 8289SOL    HW126700   6.543   1.456   3.408
 8289SOL    HW226701   6.492   1.596   3.437
 8290SOL     OW26702  10.584   9.088   4.560
 8290SOL    HW126703  10.676   9.064   4.550
 8290SOL    HW226704  10.553   9.033   4.632
 8291SOL     OW26705   3.774  11.744   6.473
 8291SOL    HW126706   3.683  11.749   6.501
 8291SOL    HW226707   3.807  11.834   6.482
 8292SOL     OW26708   0.257  12.696   1.745
 8292SOL    HW126709   0.331  12.699   1.684
 8292SOL    HW226710   0.187  12.655   1.695
 8293SOL     OW26711   2.022   9.311   2.018
 8293SOL    HW126712   2.080   9.257   1.964
 8293SOL    HW226713   2.068   9.395   2.024
 8294SOL     OW26714  12.541  11.232   9.120
 8294SOL    HW126715  12.604  11.165   9.094
 8294SOL    HW226716  12.557  11.305   9.061
 8295SOL     OW26717  11.439   1.868  14.501
 8295SOL    HW126718  11.430   1.957  14.467
 8295SOL    HW226719  11.527   1.866  14.539
 8296SOL     OW26720  13.683   7.359   8.597
 8296SOL    HW126721  13.661   7.372   8.689
 8296SOL    HW226722  13.768   7.401   8.586
 8297SOL     OW26723  13.165  10.546   7.797
 8297SOL    HW126724  13.082  10.591   7.781
 8297SOL    HW226725  13.199  10.587   7.876
 8298SOL     OW26726  13.009   9.575   4.270
 8298SOL    HW126727  13.073   9.558   4.200
 8298SOL    HW226728  13.002   9.491   4.316
 8299SOL     OW26729   1.028   8.040   0.608
 8299SOL    HW126730   1.040   8.096   0.684
 8299SOL    HW226731   0.965   7.973   0.637
 8300SOL     OW26732   5.545   1.098   4.647
 8300SOL    HW126733   5.610   1.057   4.590
 8300SOL    HW226734   5.466   1.046   4.634
 8301SOL     OW26735   5.396  10.874   4.973
 8301SOL    HW126736   5.330  10.900   5.037
 8301SOL    HW226737   5.473  10.851   5.024
 8302SOL     OW26738  12.552   8.700   2.817
 8302SOL    HW126739  12.591   8.767   2.873
 8302SOL    HW226740  12.473   8.741   2.782
 8303SOL     OW26741   2.142   7.389  14.387
 8303SOL    HW126742   2.092   7.308  14.396
 8303SOL    HW226743   2.223   7.362  14.343
 8304SOL     OW26744   2.534  10.660   5.332
 8304SOL    HW126745   2.548  10.585   5.274
 8304SOL    HW226746   2.476  10.626   5.401
 8305SOL     OW26747   7.956   3.970   3.809
 8305SOL    HW126748   7.975   4.040   3.871
 8305SOL    HW226749   7.992   3.891   3.850
 8306SOL     OW26750  10.795  14.300   5.689
 8306SOL    HW126751  10.878  14.252   5.687
 8306SOL    HW226752  10.734  14.242   5.735
 8307SOL     OW26753   6.274  12.495  14.406
 8307SOL    HW126754   6.264  12.474  14.313
 8307SOL    HW226755   6.239  12.583  14.415
 8308SOL     OW26756   5.689   4.622   2.900
 8308SOL    HW126757   5.721   4.675   2.827
 8308SOL    HW226758   5.595   4.613   2.884
 8309SOL     OW26759  11.714   1.337   5.471
 8309SOL    HW126760  11.741   1.391   5.545
 8309SOL    HW226761  11.635   1.293   5.501
 8310SOL     OW26762   8.125   9.030   9.174
 8310SOL    HW126763   8.070   9.095   9.131
 8310SOL    HW226764   8.204   9.026   9.120
 8311SOL     OW26765   6.283   6.065   3.714
 8311SOL    HW126766   6.243   5.997   3.767
 8311SOL    HW226767   6.221   6.079   3.642
 8312SOL     OW26768   4.649   6.498  10.833
 8312SOL    HW126769   4.583   6.479  10.899
 8312SOL    HW226770   4.615   6.574  10.786
 8313SOL     OW26771   9.187   4.606   0.284
 8313SOL    HW126772   9.240   4.534   0.319
 8313SOL    HW226773   9.188   4.672   0.353
 8314SOL     OW26774  12.141   0.655   5.619
 8314SOL    HW126775  12.185   0.578   5.653
 8314SOL    HW226776  12.200   0.728   5.641
 8315SOL     OW26777  13.992   2.932   2.640
 8315SOL    HW126778  14.011   2.925   2.546
 8315SOL    HW226779  14.071   2.972   2.677
 8316SOL     OW26780  12.543   3.627  14.619
 8316SOL    HW126781  12.535   3.672  14.703
 8316SOL    HW226782  12.576   3.540  14.641
 8317SOL     OW26783  14.020  11.837   6.535
 8317SOL    HW126784  14.030  11.885   6.617
 8317SOL    HW226785  14.093  11.776   6.535
 8318SOL     OW26786   8.165   5.792   9.032
 8318SOL    HW126787   8.166   5.864   9.095
 8318SOL    HW226788   8.212   5.721   9.075
 8319SOL     OW26789   6.540  11.743   3.604
 8319SOL    HW126790   6.494  11.704   3.530
 8319SOL    HW226791   6.577  11.824   3.570
 8320SOL     OW26792   0.540   6.254   2.392
 8320SOL    HW126793   0.500   6.341   2.404
 8320SOL    HW226794   0.488   6.196   2.448
 8321SOL     OW26795   3.891   9.614  10.266
 8321SOL    HW126796   3.858   9.600  10.355
 8321SOL    HW226797   3.816   9.647  10.217
 8322SOL     OW26798   4.140   3.588  13.775
 8322SOL    HW126799   4.057   3.549  13.805
 8322SOL    HW226800   4.207   3.544  13.827
 8323SOL     OW26801  10.910  11.205  13.148
 8323SOL    HW126802  10.967  11.139  13.106
 8323SOL    HW226803  10.824  11.163  13.153
 8324SOL     OW26804  13.291   3.946   6.996
 8324SOL    HW126805  13.347   3.983   7.065
 8324SOL    HW226806  13.223   3.898   7.043
 8325SOL     OW26807   5.761  13.948  10.067
 8325SOL    HW126808   5.836  13.938  10.009
 8325SOL    HW226809   5.792  14.005  10.137
 8326SOL     OW26810  13.725   4.534  12.320
 8326SOL    HW126811  13.732   4.611  12.376
 8326SOL    HW226812  13.680   4.565  12.242
 8327SOL     OW26813   5.424   0.032  14.069
 8327SOL    HW126814   5.481   0.093  14.022
 8327SOL    HW226815   5.469   0.016  14.152
 8328SOL     OW26816  10.520   2.609   5.516
 8328SOL    HW126817  10.603   2.569   5.490
 8328SOL    HW226818  10.537   2.643   5.604
 8329SOL     OW26819  12.928   3.014  10.427
 8329SOL    HW126820  12.872   2.936  10.433
 8329SOL    HW226821  12.868   3.086  10.412
 8330SOL     OW26822   8.840   1.043   4.415
 8330SOL    HW126823   8.808   1.003   4.334
 8330SOL    HW226824   8.815   0.981   4.484
 8331SOL     OW26825   3.328  11.361   9.018
 8331SOL    HW126826   3.422  11.367   9.001
 8331SOL    HW226827   3.288  11.353   8.932
 8332SOL     OW26828   7.668  11.346  13.795
 8332SOL    HW126829   7.729  11.390  13.736
 8332SOL    HW226830   7.600  11.412  13.812
 8333SOL     OW26831   8.259   4.398  12.370
 8333SOL    HW126832   8.267   4.331  12.438
 8333SOL    HW226833   8.311   4.365  12.297
 8334SOL     OW26834  12.192   1.381   0.250
 8334SOL    HW126835  12.234   1.320   0.310
 8334SOL    HW226836  12.238   1.464   0.264
 8335SOL     OW26837   3.466   0.002  10.555
 8335SOL    HW126838   3.374   0.023  10.535
 8335SOL    HW226839   3.468  14.874  10.651
 8336SOL     OW26840   6.057   3.587   7.420
 8336SOL    HW126841   5.964   3.572   7.433
 8336SOL    HW226842   6.092   3.599   7.508
 8337SOL     OW26843   2.257   1.050   7.179
 8337SOL    HW126844   2.175   1.056   7.130
 8337SOL    HW226845   2.244   0.978   7.241
 8338SOL     OW26846   3.986   9.678   5.349
 8338SOL    HW126847   4.004   9.639   5.263
 8338SOL    HW226848   3.928   9.616   5.392
 8339SOL     OW26849   9.902   7.963   6.311
 8339SOL    HW126850   9.841   7.980   6.240
 8339SOL    HW226851   9.976   8.021   6.293
 8340SOL     OW26852  14.091   7.647  14.177
 8340SOL    HW126853  14.026   7.677  14.113
 8340SOL    HW226854  14.096   7.717  14.241
 8341SOL     OW26855   4.503   8.766   5.555
 8341SOL    HW126856   4.449   8.753   5.633
 8341SOL    HW226857   4.591   8.741   5.583
 8342SOL     OW26858   1.446   8.117  12.274
 8342SOL    HW126859   1.488   8.108  12.360
 8342SOL    HW226860   1.512   8.089  12.211
 8343SOL     OW26861  13.799  13.322  14.478
 8343SOL    HW126862  13.787  13.325  14.383
 8343SOL    HW226863  13.848  13.241  14.493
 8344SOL     OW26864  12.291   7.622   4.333
 8344SOL    HW126865  12.284   7.628   4.428
 8344SOL    HW226866  12.349   7.548   4.318
 8345SOL     OW26867   5.046   0.131  11.021
 8345SOL    HW126868   5.098   0.203  10.986
 8345SOL    HW226869   4.964   0.171  11.048
 8346SOL     OW26870   3.749   7.587   3.804
 8346SOL    HW126871   3.826   7.636   3.830
 8346SOL    HW226872   3.780   7.497   3.790
 8347SOL     OW26873   9.662   1.476   8.672
 8347SOL    HW126874   9.737   1.487   8.730
 8347SOL    HW226875   9.608   1.554   8.686
 8348SOL     OW26876   0.896  14.673  11.477
 8348SOL    HW126877   0.812  14.674  11.522
 8348SOL    HW226878   0.938  14.592  11.506
 8349SOL     OW26879   1.284  11.488   3.798
 8349SOL    HW126880   1.278  11.580   3.770
 8349SOL    HW226881   1.193  11.459   3.805
 8350SOL     OW26882   7.460   4.940   0.214
 8350SOL    HW126883   7.487   5.031   0.223
 8350SOL    HW226884   7.460   4.906   0.303
 8351SOL     OW26885  12.272  11.379  11.194
 8351SOL    HW126886  12.240  11.444  11.132
 8351SOL    HW226887  12.345  11.336  11.148
 8352SOL     OW26888   4.941   4.042   8.637
 8352SOL    HW126889   4.871   4.006   8.583
 8352SOL    HW226890   4.948   3.982   8.711
 8353SOL     OW26891   4.823  10.663   1.669
 8353SOL    HW126892   4.888  10.628   1.730
 8353SOL    HW226893   4.858  10.641   1.582
 8354SOL     OW26894   5.070   8.542  14.304
 8354SOL    HW126895   5.130   8.611  14.275
 8354SOL    HW226896   4.999   8.545  14.241
 8355SOL     OW26897  14.049  11.741  13.017
 8355SOL    HW126898  14.065  11.730  13.111
 8355SOL    HW226899  13.954  11.753  13.011
 8356SOL     OW26900  14.825  12.716  12.008
 8356SOL    HW126901  14.743  12.669  11.996
 8356SOL    HW226902   0.013  12.647  12.008
 8357SOL     OW26903   6.677  11.787   1.778
 8357SOL    HW126904   6.624  11.852   1.731
 8357SOL    HW226905   6.713  11.836   1.852
 8358SOL     OW26906   0.709  14.031  10.517
 8358SOL    HW126907   0.717  13.974  10.440
 8358SOL    HW226908   0.800  14.044  10.546
 8359SOL     OW26909  11.812   4.003   4.576
 8359SOL    HW126910  11.829   4.089   4.615
 8359SOL    HW226911  11.818   3.942   4.649
 8360SOL     OW26912  10.942  13.422   2.350
 8360SOL    HW126913  11.029  13.429   2.311
 8360SOL    HW226914  10.942  13.336   2.391
 8361SOL     OW26915   5.258   8.983  10.633
 8361SOL    HW126916   5.260   8.971  10.538
 8361SOL    HW226917   5.303   8.907  10.668
 8362SOL     OW26918  10.267  10.794   0.167
 8362SOL    HW126919  10.267  10.810   0.261
 8362SOL    HW226920  10.320  10.865   0.130
 8363SOL     OW26921   5.178  14.437   6.878
 8363SOL    HW126922   5.158  14.351   6.916
 8363SOL    HW226923   5.150  14.429   6.787
 8364SOL     OW26924   4.431  10.085   9.779
 8364SOL    HW126925   4.484  10.155   9.742
 8364SOL    HW226926   4.458  10.006   9.732
 8365SOL     OW26927   5.440   2.129   9.187
 8365SOL    HW126928   5.536   2.133   9.195
 8365SOL    HW226929   5.417   2.041   9.215
 8366SOL     OW26930   8.277  11.184  13.953
 8366SOL    HW126931   8.302  11.153  14.040
 8366SOL    HW226932   8.183  11.201  13.959
 8367SOL     OW26933   5.099  13.241   6.593
 8367SOL    HW126934   5.057  13.169   6.545
 8367SOL    HW226935   5.192  13.218   6.592
 8368SOL     OW26936  10.510   1.330   7.124
 8368SOL    HW126937  10.452   1.254   7.123
 8368SOL    HW226938  10.539   1.337   7.215
 8369SOL     OW26939   5.406   0.620   7.226
 8369SOL    HW126940   5.401   0.716   7.219
 8369SOL    HW226941   5.328   0.589   7.180
 8370SOL     OW26942  14.333   0.399   7.488
 8370SOL    HW126943  14.333   0.492   7.467
 8370SOL    HW226944  14.411   0.365   7.445
 8371SOL     OW26945   8.611   6.576   0.601
 8371SOL    HW126946   8.685   6.574   0.662
 8371SOL    HW226947   8.585   6.485   0.592
 8372SOL     OW26948  11.327  12.734   3.341
 8372SOL    HW126949  11.394  12.801   3.358
 8372SOL    HW226950  11.348  12.664   3.403
 8373SOL     OW26951   8.557   5.656   9.533
 8373SOL    HW126952   8.652   5.664   9.523
 8373SOL    HW226953   8.539   5.692   9.620
 8374SOL     OW26954   1.018   1.491   0.651
 8374SOL    HW126955   0.990   1.579   0.626
 8374SOL    HW226956   1.111   1.501   0.672
 8375SOL     OW26957   4.628   4.344  10.903
 8375SOL    HW126958   4.705   4.288  10.906
 8375SOL    HW226959   4.661   4.430  10.878
 8376SOL     OW26960  14.406  11.353   6.482
 8376SOL    HW126961  14.397  11.259   6.465
 8376SOL    HW226962  14.335  11.393   6.433
 8377SOL     OW26963   1.681   6.909  14.444
 8377SOL    HW126964   1.668   6.909  14.349
 8377SOL    HW226965   1.720   6.824  14.463
 8378SOL     OW26966   6.045   4.158   4.055
 8378SOL    HW126967   5.963   4.114   4.032
 8378SOL    HW226968   6.018   4.232   4.109
 8379SOL     OW26969   7.079   2.496  12.938
 8379SOL    HW126970   7.108   2.437  13.008
 8379SOL    HW226971   7.103   2.450  12.857
 8380SOL     OW26972  10.389  13.021  12.343
 8380SOL    HW126973  10.453  13.083  12.307
 8380SOL    HW226974  10.310  13.074  12.356
 8381SOL     OW26975  10.355  10.518   8.212
 8381SOL    HW126976  10.405  10.441   8.185
 8381SOL    HW226977  10.363  10.579   8.138
 8382SOL     OW26978   1.752   8.158   8.648
 8382SOL    HW126979   1.824   8.213   8.616
 8382SOL    HW226980   1.758   8.078   8.595
 8383SOL     OW26981  10.971   6.280   0.221
 8383SOL    HW126982  11.008   6.243   0.301
 8383SOL    HW226983  10.937   6.204   0.173
 8384SOL     OW26984   3.550   6.861  11.275
 8384SOL    HW126985   3.531   6.954  11.286
 8384SOL    HW226986   3.573   6.852  11.182
 8385SOL     OW26987  13.535   3.147   5.797
 8385SOL    HW126988  13.494   3.146   5.883
 8385SOL    HW226989  13.499   3.071   5.752
 8386SOL     OW26990   1.975   5.818   9.841
 8386SOL    HW126991   2.027   5.739   9.830
 8386SOL    HW226992   1.985   5.866   9.759
 8387SOL     OW26993   2.425   5.597   8.164
 8387SOL    HW126994   2.403   5.675   8.113
 8387SOL    HW226995   2.341   5.564   8.196
 8388SOL     OW26996   0.265   4.127  14.386
 8388SOL    HW126997   0.235   4.196  14.444
 8388SOL    HW226998   0.259   4.047  14.438
 8389SOL     OW26999   8.108   2.547  13.375
 8389SOL    HW127000   8.120   2.490  13.299
 8389SOL    HW227001   8.023   2.589  13.361
 8390SOL     OW27002   4.570   0.848  11.821
 8390SOL    HW127003   4.588   0.828  11.729
 8390SOL    HW227004   4.655   0.840  11.864
 8391SOL     OW27005  13.685   5.730   3.894
 8391SOL    HW127006  13.597   5.692   3.887
 8391SOL    HW227007  13.743   5.654   3.903
 8392SOL     OW27008   0.046  13.739  14.252
 8392SOL    HW127009   0.077  13.806  14.313
 8392SOL    HW227010  14.831  13.753  14.246
 8393SOL     OW27011   2.744   2.405   3.542
 8393SOL    HW127012   2.785   2.487   3.570
 8393SOL    HW227013   2.785   2.386   3.457
 8394SOL     OW27014   4.183   7.649  11.320
 8394SOL    HW127015   4.163   7.556  11.333
 8394SOL    HW227016   4.246   7.650  11.249
 8395SOL     OW27017  11.658   3.675   2.321
 8395SOL    HW127018  11.643   3.763   2.357
 8395SOL    HW227019  11.753   3.662   2.330
 8396SOL     OW27020   9.803   9.008   0.050
 8396SOL    HW127021   9.761   8.928   0.082
 8396SOL    HW227022   9.785   9.009  14.835
 8397SOL     OW27023   0.678  11.058   7.570
 8397SOL    HW127024   0.682  10.974   7.526
 8397SOL    HW227025   0.593  11.094   7.545
 8398SOL     OW27026   0.876  12.371  14.091
 8398SOL    HW127027   0.970  12.380  14.102
 8398SOL    HW227028   0.838  12.419  14.165
 8399SOL     OW27029   2.927   4.759  11.473
 8399SOL    HW127030   2.900   4.839  11.518
 8399SOL    HW227031   2.878   4.689  11.516
 8400SOL     OW27032   0.564  11.669  10.666
 8400SOL    HW127033   0.654  11.699  10.677
 8400SOL    HW227034   0.512  11.750  10.667
 8401SOL     OW27035   3.542   9.734  12.230
 8401SOL    HW127036   3.569   9.704  12.317
 8401SOL    HW227037   3.453   9.766  12.243
 8402SOL     OW27038   0.179   5.193   9.758
 8402SOL    HW127039   0.244   5.124   9.766
 8402SOL    HW227040   0.214   5.252   9.692
 8403SOL     OW27041   1.190   5.328   0.318
 8403SOL    HW127042   1.162   5.237   0.318
 8403SOL    HW227043   1.275   5.327   0.273
 8404SOL     OW27044  14.199  13.977  14.209
 8404SOL    HW127045  14.213  13.884  14.191
 8404SOL    HW227046  14.270  14.001  14.268
 8405SOL     OW27047   4.702   9.371   7.428
 8405SOL    HW127048   4.722   9.442   7.489
 8405SOL    HW227049   4.652   9.413   7.358
 8406SOL     OW27050  14.309   9.500   3.008
 8406SOL    HW127051  14.346   9.584   3.032
 8406SOL    HW227052  14.293   9.456   3.091
 8407SOL     OW27053   4.077   9.257  10.345
 8407SOL    HW127054   4.124   9.333  10.378
 8407SOL    HW227055   4.142   9.208  10.295
 8408SOL     OW27056  14.848  10.681   3.149
 8408SOL    HW127057  14.781  10.624   3.112
 8408SOL    HW227058   0.052  10.637   3.129
 8409SOL     OW27059   4.266  14.804   1.835
 8409SOL    HW127060   4.285  14.711   1.850
 8409SOL    HW227061   4.183  14.819   1.879
 8410SOL     OW27062   8.640   4.562   0.887
 8410SOL    HW127063   8.554   4.553   0.846
 8410SOL    HW227064   8.696   4.598   0.819
 8411SOL     OW27065   9.376   5.860   2.831
 8411SOL    HW127066   9.319   5.799   2.876
 8411SOL    HW227067   9.366   5.839   2.738
 8412SOL     OW27068   7.862   2.663  13.374
 8412SOL    HW127069   7.827   2.637  13.289
 8412SOL    HW227070   7.789   2.708  13.417
 8413SOL     OW27071   0.197  12.051   2.703
 8413SOL    HW127072   0.124  12.089   2.752
 8413SOL    HW227073   0.250  12.006   2.769
 8414SOL     OW27074   2.042  11.755   8.571
 8414SOL    HW127075   2.063  11.697   8.497
 8414SOL    HW227076   1.967  11.714   8.613
 8415SOL     OW27077   7.632   3.356   2.165
 8415SOL    HW127078   7.723   3.351   2.134
 8415SOL    HW227079   7.626   3.289   2.233
 8416SOL     OW27080   7.693  14.226   8.014
 8416SOL    HW127081   7.604  14.234   7.981
 8416SOL    HW227082   7.693  14.277   8.096
 8417SOL     OW27083   7.560   5.518   2.270
 8417SOL    HW127084   7.534   5.446   2.326
 8417SOL    HW227085   7.571   5.479   2.183
 8418SOL     OW27086   0.822   1.059   2.674
 8418SOL    HW127087   0.890   1.122   2.648
 8418SOL    HW227088   0.750   1.112   2.705
 8419SOL     OW27089   5.463  14.180   7.769
 8419SOL    HW127090   5.465  14.259   7.823
 8419SOL    HW227091   5.461  14.211   7.679
 8420SOL     OW27092   5.424   8.823   3.754
 8420SOL    HW127093   5.447   8.910   3.721
 8420SOL    HW227094   5.475   8.814   3.835
 8421SOL     OW27095   9.619   2.640  14.275
 8421SOL    HW127096   9.574   2.627  14.191
 8421SOL    HW227097   9.590   2.567  14.330
 8422SOL     OW27098   8.156   6.077  10.237
 8422SOL    HW127099   8.249   6.094  10.221
 8422SOL    HW227100   8.154   6.030  10.320
 8423SOL     OW27101   3.771  12.371   6.817
 8423SOL    HW127102   3.688  12.416   6.831
 8423SOL    HW227103   3.771  12.350   6.723
 8424SOL     OW27104  12.522  10.779   9.783
 8424SOL    HW127105  12.450  10.818   9.735
 8424SOL    HW227106  12.595  10.840   9.771
 8425SOL     OW27107   0.152   3.913   5.505
 8425SOL    HW127108   0.194   3.857   5.571
 8425SOL    HW227109   0.224   3.938   5.447
 8426SOL     OW27110  12.716  13.687   0.574
 8426SOL    HW127111  12.669  13.767   0.550
 8426SOL    HW227112  12.656  13.642   0.633
 8427SOL     OW27113   4.908  11.755   5.796
 8427SOL    HW127114   4.929  11.776   5.887
 8427SOL    HW227115   4.991  11.723   5.759
 8428SOL     OW27116   4.230   9.673  14.104
 8428SOL    HW127117   4.216   9.703  14.014
 8428SOL    HW227118   4.303   9.726  14.136
 8429SOL     OW27119   5.260   8.181   0.076
 8429SOL    HW127120   5.251   8.272   0.048
 8429SOL    HW227121   5.288   8.135  14.875
 8430SOL     OW27122  11.272  14.499   9.056
 8430SOL    HW127123  11.270  14.470   9.147
 8430SOL    HW227124  11.217  14.577   9.054
 8431SOL     OW27125   8.907  10.205  13.171
 8431SOL    HW127126   8.818  10.215  13.136
 8431SOL    HW227127   8.906  10.120  13.215
 8432SOL     OW27128   5.022   8.389   1.938
 8432SOL    HW127129   4.949   8.346   1.892
 8432SOL    HW227130   5.100   8.361   1.891
 8433SOL     OW27131   7.453   4.922   9.720
 8433SOL    HW127132   7.481   4.896   9.807
 8433SOL    HW227133   7.495   4.858   9.662
 8434SOL     OW27134  13.847  10.955   1.662
 8434SOL    HW127135  13.807  10.951   1.575
 8434SOL    HW227136  13.923  10.896   1.656
 8435SOL     OW27137   6.515   2.264   9.068
 8435SOL    HW127138   6.529   2.358   9.072
 8435SOL    HW227139   6.600   2.226   9.092
 8436SOL     OW27140  10.532   3.339   4.293
 8436SOL    HW127141  10.574   3.424   4.287
 8436SOL    HW227142  10.496   3.335   4.382
 8437SOL     OW27143  12.161   2.370  13.684
 8437SOL    HW127144  12.154   2.366  13.588
 8437SOL    HW227145  12.217   2.296  13.707
 8438SOL     OW27146   9.109   3.287   4.940
 8438SOL    HW127147   9.137   3.196   4.946
 8438SOL    HW227148   9.181   3.336   4.980
 8439SOL     OW27149  11.054  10.896   5.126
 8439SOL    HW127150  11.014  10.872   5.210
 8439SOL    HW227151  11.087  10.813   5.091
 8440SOL     OW27152   4.192   9.259   7.511
 8440SOL    HW127153   4.271   9.204   7.504
 8440SOL    HW227154   4.209   9.332   7.452
 8441SOL     OW27155   7.538   7.435   5.202
 8441SOL    HW127156   7.510   7.437   5.111
 8441SOL    HW227157   7.459   7.410   5.251
 8442SOL     OW27158   0.828  12.407   0.446
 8442SOL    HW127159   0.896  12.381   0.509
 8442SOL    HW227160   0.786  12.483   0.486
 8443SOL     OW27161   0.249  10.916  10.898
 8443SOL    HW127162   0.269  10.974  10.825
 8443SOL    HW227163   0.334  10.884  10.928
 8444SOL     OW27164   7.941  14.737  12.713
 8444SOL    HW127165   7.969  14.761  12.625
 8444SOL    HW227166   7.999  14.665  12.738
 8445SOL     OW27167   3.682   3.070   3.230
 8445SOL    HW127168   3.609   3.036   3.178
 8445SOL    HW227169   3.662   3.042   3.320
 8446SOL     OW27170   2.026   2.012  12.671
 8446SOL    HW127171   2.027   2.028  12.765
 8446SOL    HW227172   2.118   2.016  12.645
 8447SOL     OW27173  10.526   8.509   5.194
 8447SOL    HW127174  10.615   8.543   5.203
 8447SOL    HW227175  10.533   8.444   5.123
 8448SOL     OW27176   4.379   1.802   3.150
 8448SOL    HW127177   4.439   1.785   3.077
 8448SOL    HW227178   4.366   1.896   3.149
 8449SOL     OW27179   9.493   9.919   4.471
 8449SOL    HW127180   9.535   9.977   4.407
 8449SOL    HW227181   9.455   9.979   4.535
 8450SOL     OW27182  10.372   9.245   3.874
 8450SOL    HW127183  10.447   9.207   3.827
 8450SOL    HW227184  10.296   9.222   3.821
 8451SOL     OW27185   2.690   3.176   4.208
 8451SOL    HW127186   2.715   3.241   4.142
 8451SOL    HW227187   2.635   3.225   4.269
 8452SOL     OW27188  14.775   0.179   2.708
 8452SOL    HW127189  14.729   0.228   2.640
 8452SOL    HW227190  14.855   0.229   2.725
 8453SOL     OW27191  14.003   2.081   7.907
 8453SOL    HW127192  13.980   1.989   7.891
 8453SOL    HW227193  13.954   2.130   7.841
 8454SOL     OW27194   0.410   2.749  14.320
 8454SOL    HW127195   0.500   2.754  14.285
 8454SOL    HW227196   0.414   2.800  14.401
 8455SOL     OW27197   8.976   8.180   2.120
 8455SOL    HW127198   8.906   8.118   2.102
 8455SOL    HW227199   9.041   8.130   2.168
 8456SOL     OW27200   6.282  10.663  12.904
 8456SOL    HW127201   6.209  10.723  12.919
 8456SOL    HW227202   6.240  10.582  12.873
 8457SOL     OW27203  12.567   8.924   4.642
 8457SOL    HW127204  12.511   8.999   4.622
 8457SOL    HW227205  12.639   8.931   4.580
 8458SOL     OW27206   6.818   5.998   3.832
 8458SOL    HW127207   6.910   5.972   3.842
 8458SOL    HW227208   6.797   6.045   3.912
 8459SOL     OW27209  12.306   8.488  13.947
 8459SOL    HW127210  12.255   8.425  13.896
 8459SOL    HW227211  12.325   8.559  13.886
 8460SOL     OW27212   2.325   6.120   1.054
 8460SOL    HW127213   2.334   6.215   1.053
 8460SOL    HW227214   2.274   6.101   1.132
 8461SOL     OW27215   7.713  12.805   1.129
 8461SOL    HW127216   7.655  12.871   1.168
 8461SOL    HW227217   7.669  12.778   1.048
 8462SOL     OW27218   9.611   8.401   0.901
 8462SOL    HW127219   9.636   8.310   0.916
 8462SOL    HW227220   9.578   8.403   0.811
 8463SOL     OW27221   3.810  10.205   5.440
 8463SOL    HW127222   3.886  10.162   5.401
 8463SOL    HW227223   3.847  10.265   5.505
 8464SOL     OW27224   5.683  11.718   4.105
 8464SOL    HW127225   5.671  11.623   4.113
 8464SOL    HW227226   5.661  11.738   4.014
 8465SOL     OW27227  10.561   2.617   0.763
 8465SOL    HW127228  10.545   2.533   0.804
 8465SOL    HW227229  10.483   2.633   0.709
 8466SOL     OW27230   5.804   0.763   8.814
 8466SOL    HW127231   5.798   0.741   8.721
 8466SOL    HW227232   5.897   0.776   8.829
 8467SOL     OW27233   3.454   0.936   8.509
 8467SOL    HW127234   3.397   1.012   8.520
 8467SOL    HW227235   3.393   0.864   8.493
 8468SOL     OW27236  14.502   4.050   2.065
 8468SOL    HW127237  14.528   3.960   2.081
 8468SOL    HW227238  14.414   4.044   2.028
 8469SOL     OW27239   2.707   0.559  11.872
 8469SOL    HW127240   2.793   0.534  11.906
 8469SOL    HW227241   2.704   0.523  11.783
 8470SOL     OW27242   2.421   3.617  14.577
 8470SOL    HW127243   2.352   3.681  14.594
 8470SOL    HW227244   2.500   3.657  14.614
 8471SOL     OW27245  13.513  13.871   3.391
 8471SOL    HW127246  13.552  13.839   3.472
 8471SOL    HW227247  13.536  13.806   3.325
 8472SOL     OW27248   2.339   2.146  12.081
 8472SOL    HW127249   2.434   2.142  12.073
 8472SOL    HW227250   2.310   2.189  12.001
 8473SOL     OW27251  10.300   3.396   3.582
 8473SOL    HW127252  10.221   3.341   3.580
 8473SOL    HW227253  10.369   3.341   3.546
 8474SOL     OW27254   1.081  11.151   8.333
 8474SOL    HW127255   1.063  11.129   8.242
 8474SOL    HW227256   1.172  11.127   8.347
 8475SOL     OW27257   8.740  12.174   3.105
 8475SOL    HW127258   8.824  12.152   3.065
 8475SOL    HW227259   8.757  12.254   3.154
 8476SOL     OW27260   5.399   8.095   8.608
 8476SOL    HW127261   5.422   8.005   8.629
 8476SOL    HW227262   5.474   8.147   8.637
 8477SOL     OW27263   8.461  11.232   6.318
 8477SOL    HW127264   8.393  11.240   6.385
 8477SOL    HW227265   8.518  11.162   6.350
 8478SOL     OW27266  14.258   0.746  11.497
 8478SOL    HW127267  14.344   0.783  11.520
 8478SOL    HW227268  14.224   0.806  11.430
 8479SOL     OW27269   4.835  10.053   6.729
 8479SOL    HW127270   4.744  10.063   6.756
 8479SOL    HW227271   4.836   9.973   6.676
 8480SOL     OW27272   2.069   7.140   3.790
 8480SOL    HW127273   1.982   7.144   3.830
 8480SOL    HW227274   2.125   7.099   3.856
 8481SOL     OW27275  12.516   8.998   0.200
 8481SOL    HW127276  12.566   9.079   0.188
 8481SOL    HW227277  12.426   9.022   0.179
 8482SOL     OW27278  12.766   2.791   3.505
 8482SOL    HW127279  12.807   2.833   3.581
 8482SOL    HW227280  12.683   2.758   3.538
 8483SOL     OW27281  13.114   1.122  11.751
 8483SOL    HW127282  13.043   1.065  11.722
 8483SOL    HW227283  13.173   1.064  11.800
 8484SOL     OW27284   3.913  12.149   1.139
 8484SOL    HW127285   3.988  12.134   1.197
 8484SOL    HW227286   3.866  12.065   1.139
 8485SOL     OW27287  14.847   5.781   6.102
 8485SOL    HW127288  14.850   5.861   6.050
 8485SOL    HW227289  14.867   5.809   6.191
 8486SOL     OW27290   2.812   1.460   2.894
 8486SOL    HW127291   2.816   1.556   2.903
 8486SOL    HW227292   2.730   1.444   2.848
 8487SOL     OW27293  12.295  10.013   2.518
 8487SOL    HW127294  12.281   9.922   2.491
 8487SOL    HW227295  12.263  10.017   2.608
 8488SOL     OW27296   3.624   8.143   2.626
 8488SOL    HW127297   3.641   8.237   2.622
 8488SOL    HW227298   3.711   8.103   2.620
 8489SOL     OW27299   6.948   2.937   3.458
 8489SOL    HW127300   6.952   3.033   3.459
 8489SOL    HW227301   7.008   2.911   3.389
 8490SOL     OW27302   0.355   3.172  14.066
 8490SOL    HW127303   0.264   3.177  14.035
 8490SOL    HW227304   0.384   3.084  14.040
 8491SOL     OW27305   3.104  12.528   9.126
 8491SOL    HW127306   3.038  12.465   9.154
 8491SOL    HW227307   3.175  12.474   9.089
 8492SOL     OW27308   8.228   8.928   3.341
 8492SOL    HW127309   8.217   8.998   3.276
 8492SOL    HW227310   8.174   8.856   3.308
 8493SOL     OW27311  11.239  10.702  12.124
 8493SOL    HW127312  11.169  10.696  12.059
 8493SOL    HW227313  11.245  10.614  12.161
 8494SOL     OW27314  14.318   9.415   3.299
 8494SOL    HW127315  14.301   9.509   3.305
 8494SOL    HW227316  14.398   9.402   3.350
 8495SOL     OW27317   8.576  10.638  12.067
 8495SOL    HW127318   8.663  10.598  12.063
 8495SOL    HW227319   8.534  10.612  11.986
 8496SOL     OW27320   9.126   8.684  12.718
 8496SOL    HW127321   9.103   8.648  12.632
 8496SOL    HW227322   9.060   8.649  12.777
 8497SOL     OW27323   0.853   4.210   2.942
 8497SOL    HW127324   0.783   4.145   2.953
 8497SOL    HW227325   0.918   4.186   3.008
 8498SOL     OW27326   6.974  11.702   1.298
 8498SOL    HW127327   7.030  11.779   1.302
 8498SOL    HW227328   6.885  11.737   1.306
 8499SOL     OW27329  14.752   5.942   3.314
 8499SOL    HW127330  14.817   5.887   3.359
 8499SOL    HW227331  14.686   5.960   3.381
 8500SOL     OW27332   8.907  11.865   3.596
 8500SOL    HW127333   8.866  11.790   3.554
 8500SOL    HW227334   8.849  11.887   3.669
 8501SOL     OW27335   7.845  13.140   1.257
 8501SOL    HW127336   7.859  13.046   1.250
 8501SOL    HW227337   7.925  13.173   1.299
 8502SOL     OW27338   2.050   6.254  11.715
 8502SOL    HW127339   2.025   6.168  11.748
 8502SOL    HW227340   2.143   6.244  11.692
 8503SOL     OW27341  12.546  14.473  12.130
 8503SOL    HW127342  12.462  14.469  12.175
 8503SOL    HW227343  12.540  14.549  12.073
 8504SOL     OW27344  12.936   1.875   2.784
 8504SOL    HW127345  12.858   1.902   2.736
 8504SOL    HW227346  13.006   1.929   2.747
 8505SOL     OW27347   1.008   9.369  11.372
 8505SOL    HW127348   1.067   9.301  11.405
 8505SOL    HW227349   0.936   9.321  11.332
 8506SOL     OW27350  11.568   8.788  11.177
 8506SOL    HW127351  11.611   8.720  11.125
 8506SOL    HW227352  11.488   8.747  11.209
 8507SOL     OW27353   9.174   1.706  11.777
 8507SOL    HW127354   9.127   1.623  11.767
 8507SOL    HW227355   9.134   1.748  11.853
 8508SOL     OW27356  10.094   7.379   4.407
 8508SOL    HW127357  10.183   7.391   4.440
 8508SOL    HW227358  10.061   7.302   4.452
 8509SOL     OW27359   5.506   3.629   7.466
 8509SOL    HW127360   5.572   3.695   7.487
 8509SOL    HW227361   5.556   3.554   7.433
 8510SOL     OW27362  12.573   6.287   4.142
 8510SOL    HW127363  12.614   6.325   4.064
 8510SOL    HW227364  12.495   6.242   4.110
 8511SOL     OW27365  13.682  11.631  13.805
 8511SOL    HW127366  13.620  11.608  13.737
 8511SOL    HW227367  13.765  11.594  13.776
 8512SOL     OW27368   5.991  10.485   9.781
 8512SOL    HW127369   5.953  10.400   9.802
 8512SOL    HW227370   6.066  10.493   9.840
 8513SOL     OW27371  10.874   2.687   2.627
 8513SOL    HW127372  10.830   2.627   2.688
 8513SOL    HW227373  10.966   2.658   2.628
 8514SOL     OW27374  10.267   0.099   6.630
 8514SOL    HW127375  10.251   0.097   6.725
 8514SOL    HW227376  10.293   0.010   6.609
 8515SOL     OW27377  12.238   4.997   6.605
 8515SOL    HW127378  12.314   5.047   6.574
 8515SOL    HW227379  12.237   5.012   6.699
 8516SOL     OW27380  14.494   3.011  10.623
 8516SOL    HW127381  14.504   3.016  10.718
 8516SOL    HW227382  14.527   3.095  10.592
 8517SOL     OW27383  14.826  10.899  10.651
 8517SOL    HW127384   0.004  10.938  10.585
 8517SOL    HW227385  14.875  10.824  10.684
 8518SOL     OW27386  11.555   7.217   4.131
 8518SOL    HW127387  11.507   7.141   4.164
 8518SOL    HW227388  11.543   7.284   4.199
 8519SOL     OW27389   4.652   9.853   8.499
 8519SOL    HW127390   4.686   9.764   8.509
 8519SOL    HW227391   4.705   9.906   8.559
 8520SOL     OW27392   7.883  10.445   4.307
 8520SOL    HW127393   7.889  10.349   4.308
 8520SOL    HW227394   7.855  10.466   4.218
 8521SOL     OW27395   9.698  11.490  11.774
 8521SOL    HW127396   9.680  11.475  11.681
 8521SOL    HW227397   9.773  11.434  11.794
 8522SOL     OW27398  11.995   5.105   2.381
 8522SOL    HW127399  12.040   5.141   2.457
 8522SOL    HW227400  11.903   5.129   2.393
 8523SOL     OW27401  11.547  11.256   6.941
 8523SOL    HW127402  11.597  11.336   6.958
 8523SOL    HW227403  11.594  11.213   6.869
 8524SOL     OW27404  12.713   6.519  12.339
 8524SOL    HW127405  12.632   6.538  12.290
 8524SOL    HW227406  12.700   6.562  12.423
 8525SOL     OW27407   9.286   0.324   1.694
 8525SOL    HW127408   9.219   0.392   1.704
 8525SOL    HW227409   9.333   0.348   1.614
 8526SOL     OW27410   0.374   8.801   1.164
 8526SOL    HW127411   0.459   8.844   1.161
 8526SOL    HW227412   0.310   8.872   1.162
 8527SOL     OW27413  10.485   8.180  10.412
 8527SOL    HW127414  10.522   8.092  10.420
 8527SOL    HW227415  10.554   8.239  10.443
 8528SOL     OW27416   3.618   2.044  12.936
 8528SOL    HW127417   3.616   2.136  12.963
 8528SOL    HW227418   3.552   2.037  12.868
 8529SOL     OW27419  10.694   6.451   8.364
 8529SOL    HW127420  10.768   6.393   8.345
 8529SOL    HW227421  10.659   6.419   8.447
 8530SOL     OW27422   2.725  11.229  14.652
 8530SOL    HW127423   2.647  11.175  14.641
 8530SOL    HW227424   2.794  11.181  14.607
 8531SOL     OW27425   6.987   3.431   6.494
 8531SOL    HW127426   7.007   3.515   6.535
 8531SOL    HW227427   6.900   3.408   6.527
 8532SOL     OW27428   8.240  13.997  14.005
 8532SOL    HW127429   8.245  14.048  13.925
 8532SOL    HW227430   8.330  13.973  14.025
 8533SOL     OW27431   9.382   0.908   9.140
 8533SOL    HW127432   9.296   0.882   9.108
 8533SOL    HW227433   9.370   0.997   9.173
 8534SOL     OW27434  11.881   3.274  13.316
 8534SOL    HW127435  11.910   3.346  13.261
 8534SOL    HW227436  11.961   3.233  13.347
 8535SOL     OW27437   2.902   8.533  13.915
 8535SOL    HW127438   2.905   8.565  14.005
 8535SOL    HW227439   2.977   8.473  13.908
 8536SOL     OW27440  11.076   2.770  10.725
 8536SOL    HW127441  10.991   2.804  10.697
 8536SOL    HW227442  11.083   2.685  10.682
 8537SOL     OW27443  14.409   2.620   1.666
 8537SOL    HW127444  14.499   2.612   1.697
 8537SOL    HW227445  14.401   2.556   1.595
 8538SOL     OW27446   0.741  11.160   4.378
 8538SOL    HW127447   0.718  11.137   4.288
 8538SOL    HW227448   0.823  11.209   4.370
 8539SOL     OW27449   4.016  11.206  14.353
 8539SOL    HW127450   3.990  11.114  14.360
 8539SOL    HW227451   4.091  11.205  14.293
 8540SOL     OW27452   7.656   5.355   9.356
 8540SOL    HW127453   7.711   5.398   9.421
 8540SOL    HW227454   7.598   5.424   9.325
 8541SOL     OW27455  12.304   1.567  11.925
 8541SOL    HW127456  12.396   1.569  11.951
 8541SOL    HW227457  12.266   1.647  11.962
 8542SOL     OW27458   3.450   1.332  13.884
 8542SOL    HW127459   3.521   1.391  13.909
 8542SOL    HW227460   3.488   1.278  13.814
 8543SOL     OW27461   7.289  10.015  13.338
 8543SOL    HW127462   7.236  10.091  13.363
 8543SOL    HW227463   7.331   9.987  13.419
 8544SOL     OW27464   0.344  12.120   5.856
 8544SOL    HW127465   0.387  12.111   5.941
 8544SOL    HW227466   0.360  12.036   5.812
 8545SOL     OW27467   4.243   8.949  14.053
 8545SOL    HW127468   4.231   8.923  14.144
 8545SOL    HW227469   4.182   8.894  14.004
 8546SOL     OW27470   2.239   2.947  10.776
 8546SOL    HW127471   2.308   3.008  10.799
 8546SOL    HW227472   2.239   2.945  10.681
 8547SOL     OW27473   8.633  12.955   9.090
 8547SOL    HW127474   8.539  12.941   9.088
 8547SOL    HW227475   8.643  13.046   9.117
 8548SOL     OW27476   4.362  12.856   2.179
 8548SOL    HW127477   4.361  12.780   2.237
 8548SOL    HW227478   4.448  12.895   2.192
 8549SOL     OW27479   0.258   3.744  13.978
 8549SOL    HW127480   0.334   3.713  14.027
 8549SOL    HW227481   0.272   3.838  13.969
 8550SOL     OW27482  14.388   1.176   5.873
 8550SOL    HW127483  14.439   1.251   5.843
 8550SOL    HW227484  14.315   1.171   5.811
 8551SOL     OW27485   3.137   1.629   9.425
 8551SOL    HW127486   3.184   1.620   9.508
 8551SOL    HW227487   3.192   1.689   9.374
 8552SOL     OW27488   9.222   4.507  10.047
 8552SOL    HW127489   9.181   4.528   9.963
 8552SOL    HW227490   9.307   4.469  10.023
 8553SOL     OW27491   4.459   1.650  12.527
 8553SOL    HW127492   4.487   1.561  12.550
 8553SOL    HW227493   4.475   1.656  12.433
 8554SOL     OW27494   1.131   9.598  11.452
 8554SOL    HW127495   1.148   9.574  11.543
 8554SOL    HW227496   1.092   9.519  11.413
 8555SOL     OW27497  10.292   3.344  14.051
 8555SOL    HW127498  10.316   3.387  13.970
 8555SOL    HW227499  10.326   3.402  14.120
 8556SOL     OW27500  14.583   3.370   3.132
 8556SOL    HW127501  14.571   3.438   3.066
 8556SOL    HW227502  14.597   3.417   3.214
 8557SOL     OW27503   4.249  12.010   5.554
 8557SOL    HW127504   4.208  11.925   5.574
 8557SOL    HW227505   4.175  12.068   5.536
 8558SOL     OW27506   3.657   6.273   3.286
 8558SOL    HW127507   3.732   6.214   3.299
 8558SOL    HW227508   3.690   6.339   3.224
 8559SOL     OW27509  13.180   4.057   3.517
 8559SOL    HW127510  13.275   4.043   3.512
 8559SOL    HW227511  13.157   4.094   3.432
 8560SOL     OW27512   1.321   7.931  13.742
 8560SOL    HW127513   1.287   7.863  13.683
 8560SOL    HW227514   1.396   7.968  13.695
 8561SOL     OW27515   1.144   2.255  10.569
 8561SOL    HW127516   1.122   2.259  10.662
 8561SOL    HW227517   1.114   2.168  10.542
 8562SOL     OW27518  14.139  10.707  13.973
 8562SOL    HW127519  14.191  10.725  13.895
 8562SOL    HW227520  14.066  10.654  13.940
 8563SOL     OW27521   7.528  10.422   6.457
 8563SOL    HW127522   7.573  10.342   6.485
 8563SOL    HW227523   7.454  10.431   6.517
 8564SOL     OW27524  12.170  11.367   7.989
 8564SOL    HW127525  12.204  11.376   7.900
 8564SOL    HW227526  12.098  11.304   7.981
 8565SOL     OW27527   1.547  14.365  13.621
 8565SOL    HW127528   1.461  14.403  13.602
 8565SOL    HW227529   1.528  14.280  13.660
 8566SOL     OW27530   3.273   3.820   3.348
 8566SOL    HW127531   3.199   3.762   3.329
 8566SOL    HW227532   3.350   3.768   3.326
 8567SOL     OW27533   4.785   6.401   4.043
 8567SOL    HW127534   4.821   6.337   4.104
 8567SOL    HW227535   4.694   6.410   4.069
 8568SOL     OW27536   3.460   8.703  12.439
 8568SOL    HW127537   3.370   8.700  12.407
 8568SOL    HW227538   3.468   8.626  12.495
 8569SOL     OW27539   4.535   7.649   4.747
 8569SOL    HW127540   4.606   7.696   4.703
 8569SOL    HW227541   4.541   7.560   4.714
 8570SOL     OW27542  12.990   4.953  12.642
 8570SOL    HW127543  12.957   4.949  12.552
 8570SOL    HW227544  13.045   5.031  12.644
 8571SOL     OW27545  11.554   1.662   8.289
 8571SOL    HW127546  11.527   1.571   8.278
 8571SOL    HW227547  11.601   1.662   8.373
 8572SOL     OW27548   6.922   1.215   4.048
 8572SOL    HW127549   6.858   1.266   4.099
 8572SOL    HW227550   6.981   1.281   4.011
 8573SOL     OW27551   4.819   3.792  13.662
 8573SOL    HW127552   4.874   3.722  13.697
 8573SOL    HW227553   4.878   3.844  13.607
 8574SOL     OW27554   4.092   5.704  13.288
 8574SOL    HW127555   4.150   5.778  13.270
 8574SOL    HW227556   4.067   5.714  13.379
 8575SOL     OW27557   4.200   3.286   5.226
 8575SOL    HW127558   4.213   3.352   5.293
 8575SOL    HW227559   4.155   3.214   5.271
 8576SOL     OW27560  11.528   8.732   7.996
 8576SOL    HW127561  11.610   8.740   7.946
 8576SOL    HW227562  11.556   8.734   8.087
 8577SOL     OW27563   5.170   4.977  12.080
 8577SOL    HW127564   5.183   5.068  12.106
 8577SOL    HW227565   5.204   4.927  12.154
 8578SOL     OW27566   9.407  13.433   1.664
 8578SOL    HW127567   9.411  13.340   1.640
 8578SOL    HW227568   9.499  13.457   1.678
 8579SOL     OW27569   3.777   5.859   7.760
 8579SOL    HW127570   3.814   5.947   7.760
 8579SOL    HW227571   3.761   5.840   7.852
 8580SOL     OW27572   8.626  12.583  10.553
 8580SOL    HW127573   8.659  12.673  10.554
 8580SOL    HW227574   8.535  12.591  10.525
 8581SOL     OW27575  11.906   9.492   6.157
 8581SOL    HW127576  11.886   9.536   6.240
 8581SOL    HW227577  11.988   9.446   6.174
 8582SOL     OW27578   2.855   3.556  10.109
 8582SOL    HW127579   2.940   3.531  10.072
 8582SOL    HW227580   2.796   3.559  10.034
 8583SOL     OW27581  11.634   6.680   8.432
 8583SOL    HW127582  11.689   6.746   8.474
 8583SOL    HW227583  11.630   6.609   8.496
 8584SOL     OW27584   7.969   6.726   7.520
 8584SOL    HW127585   7.967   6.659   7.589
 8584SOL    HW227586   7.885   6.772   7.529
 8585SOL     OW27587   6.399  13.525   7.644
 8585SOL    HW127588   6.329  13.584   7.671
 8585SOL    HW227589   6.460  13.524   7.718
 8586SOL     OW27590   4.827   1.510   2.531
 8586SOL    HW127591   4.888   1.442   2.560
 8586SOL    HW227592   4.756   1.462   2.488
 8587SOL     OW27593   2.809   7.665   3.117
 8587SOL    HW127594   2.869   7.593   3.098
 8587SOL    HW227595   2.752   7.670   3.041
 8588SOL     OW27596  13.476   2.817   0.869
 8588SOL    HW127597  13.473   2.744   0.808
 8588SOL    HW227598  13.385   2.842   0.882
 8589SOL     OW27599   4.150  13.769   8.697
 8589SOL    HW127600   4.132  13.777   8.603
 8589SOL    HW227601   4.122  13.853   8.734
 8590SOL     OW27602  13.158  12.995   2.550
 8590SOL    HW127603  13.132  13.054   2.620
 8590SOL    HW227604  13.175  13.052   2.475
 8591SOL     OW27605   8.658   7.837   8.874
 8591SOL    HW127606   8.691   7.863   8.787
 8591SOL    HW227607   8.564   7.848   8.868
 8592SOL     OW27608   6.553   2.291   0.718
 8592SOL    HW127609   6.574   2.353   0.787
 8592SOL    HW227610   6.493   2.229   0.759
 8593SOL     OW27611   7.704   1.840  12.390
 8593SOL    HW127612   7.788   1.799  12.413
 8593SOL    HW227613   7.706   1.925  12.433
 8594SOL     OW27614   2.568   2.820   1.302
 8594SOL    HW127615   2.659   2.832   1.330
 8594SOL    HW227616   2.524   2.782   1.377
 8595SOL     OW27617   7.096   3.869   9.916
 8595SOL    HW127618   7.154   3.913   9.854
 8595SOL    HW227619   7.008   3.897   9.891
 8596SOL     OW27620   9.993  13.595   1.105
 8596SOL    HW127621   9.994  13.613   1.011
 8596SOL    HW227622  10.011  13.501   1.112
 8597SOL     OW27623   4.270   0.559   5.364
 8597SOL    HW127624   4.178   0.535   5.351
 8597SOL    HW227625   4.316   0.476   5.363
 8598SOL     OW27626  12.292   0.188   9.117
 8598SOL    HW127627  12.211   0.138   9.121
 8598SOL    HW227628  12.347   0.149   9.185
 8599SOL     OW27629  14.361   3.440  10.926
 8599SOL    HW127630  14.318   3.463  10.844
 8599SOL    HW227631  14.312   3.487  10.993
 8600SOL     OW27632   4.224   8.753   6.128
 8600SOL    HW127633   4.254   8.668   6.094
 8600SOL    HW227634   4.132   8.758   6.102
 8601SOL     OW27635   6.864   0.280   2.468
 8601SOL    HW127636   6.822   0.334   2.534
 8601SOL    HW227637   6.885   0.341   2.397
 8602SOL     OW27638   7.316   0.980  14.014
 8602SOL    HW127639   7.227   0.978  13.980
 8602SOL    HW227640   7.372   0.987  13.937
 8603SOL     OW27641  11.108   5.401   8.457
 8603SOL    HW127642  11.203   5.416   8.455
 8603SOL    HW227643  11.081   5.405   8.365
 8604SOL     OW27644  12.802   6.317   0.670
 8604SOL    HW127645  12.821   6.380   0.740
 8604SOL    HW227646  12.743   6.364   0.612
 8605SOL     OW27647   9.874   7.664   6.398
 8605SOL    HW127648   9.866   7.755   6.425
 8605SOL    HW227649   9.967   7.644   6.408
 8606SOL     OW27650   0.458   2.932  14.496
 8606SOL    HW127651   0.492   2.985  14.568
 8606SOL    HW227652   0.452   2.993  14.422
 8607SOL     OW27653   6.337   1.702   5.683
 8607SOL    HW127654   6.362   1.794   5.690
 8607SOL    HW227655   6.378   1.659   5.758
 8608SOL     OW27656   1.310   3.115  10.051
 8608SOL    HW127657   1.355   3.198  10.033
 8608SOL    HW227658   1.372   3.066  10.106
 8609SOL     OW27659   3.514   8.554   9.272
 8609SOL    HW127660   3.595   8.516   9.238
 8609SOL    HW227661   3.491   8.621   9.208
 8610SOL     OW27662  11.787   1.812  14.140
 8610SOL    HW127663  11.765   1.729  14.183
 8610SOL    HW227664  11.704   1.858  14.135
 8611SOL     OW27665   7.257   9.929   0.127
 8611SOL    HW127666   7.254   9.890   0.214
 8611SOL    HW227667   7.306  10.011   0.138
 8612SOL     OW27668   5.903  14.019   4.393
 8612SOL    HW127669   5.993  14.026   4.426
 8612SOL    HW227670   5.855  13.974   4.462
 8613SOL     OW27671  11.601  13.139  11.346
 8613SOL    HW127672  11.632  13.195  11.417
 8613SOL    HW227673  11.676  13.130  11.287
 8614SOL     OW27674   4.775  13.603   4.229
 8614SOL    HW127675   4.790  13.510   4.247
 8614SOL    HW227676   4.739  13.637   4.311
 8615SOL     OW27677   3.411   3.756   3.619
 8615SOL    HW127678   3.356   3.805   3.558
 8615SOL    HW227679   3.500   3.771   3.588
 8616SOL     OW27680   7.415   3.289  12.494
 8616SOL    HW127681   7.416   3.373  12.448
 8616SOL    HW227682   7.504   3.256  12.486
 8617SOL     OW27683   1.296   1.682   3.414
 8617SOL    HW127684   1.220   1.623   3.419
 8617SOL    HW227685   1.271   1.758   3.466
 8618SOL     OW27686   8.957  13.099   2.278
 8618SOL    HW127687   9.022  13.052   2.330
 8618SOL    HW227688   8.898  13.138   2.342
 8619SOL     OW27689   2.153  13.510   2.083
 8619SOL    HW127690   2.075  13.562   2.063
 8619SOL    HW227691   2.134  13.470   2.167
 8620SOL     OW27692  10.203   7.285   8.425
 8620SOL    HW127693  10.185   7.205   8.375
 8620SOL    HW227694  10.249   7.342   8.364
 8621SOL     OW27695  14.674  12.395  14.579
 8621SOL    HW127696  14.719  12.472  14.614
 8621SOL    HW227697  14.745  12.338  14.548
 8622SOL     OW27698   8.703   8.224   5.023
 8622SOL    HW127699   8.689   8.152   5.085
 8622SOL    HW227700   8.796   8.218   4.999
 8623SOL     OW27701   3.619  12.710   2.366
 8623SOL    HW127702   3.570  12.779   2.320
 8623SOL    HW227703   3.662  12.661   2.296
 8624SOL     OW27704   7.048  10.533   6.975
 8624SOL    HW127705   7.082  10.448   6.947
 8624SOL    HW227706   7.027  10.579   6.893
 8625SOL     OW27707   7.428   8.778  10.353
 8625SOL    HW127708   7.505   8.722  10.357
 8625SOL    HW227709   7.452   8.847  10.291
 8626SOL     OW27710   3.188   5.713   6.575
 8626SOL    HW127711   3.151   5.750   6.655
 8626SOL    HW227712   3.135   5.750   6.504
 8627SOL     OW27713  12.835   2.729  14.836
 8627SOL    HW127714  12.865   2.820  14.832
 8627SOL    HW227715  12.758   2.727  14.778
 8628SOL     OW27716   8.836   8.601   0.445
 8628SOL    HW127717   8.783   8.531   0.406
 8628SOL    HW227718   8.926   8.570   0.440
 8629SOL     OW27719  13.524   9.805   0.335
 8629SOL    HW127720  13.612   9.770   0.325
 8629SOL    HW227721  13.475   9.770   0.261
 8630SOL     OW27722   5.637   6.331   8.801
 8630SOL    HW127723   5.672   6.261   8.747
 8630SOL    HW227724   5.680   6.411   8.769
 8631SOL     OW27725   6.063  10.869   6.851
 8631SOL    HW127726   6.023  10.950   6.819
 8631SOL    HW227727   6.130  10.847   6.787
 8632SOL     OW27728  14.196   4.485   0.335
 8632SOL    HW127729  14.124   4.528   0.288
 8632SOL    HW227730  14.153   4.416   0.386
 8633SOL     OW27731  12.006   6.030   8.685
 8633SOL    HW127732  11.937   6.081   8.642
 8633SOL    HW227733  12.088   6.068   8.653
 8634SOL     OW27734  14.216  13.059  14.016
 8634SOL    HW127735  14.280  12.994  13.985
 8634SOL    HW227736  14.165  13.080  13.938
 8635SOL     OW27737   1.457  10.603  11.509
 8635SOL    HW127738   1.517  10.667  11.548
 8635SOL    HW227739   1.500  10.519  11.523
 8636SOL     OW27740   0.373   4.616   7.905
 8636SOL    HW127741   0.452   4.562   7.911
 8636SOL    HW227742   0.398   4.688   7.847
 8637SOL     OW27743   5.848   3.479   2.259
 8637SOL    HW127744   5.930   3.478   2.307
 8637SOL    HW227745   5.785   3.519   2.319
 8638SOL     OW27746  11.611   5.865   8.619
 8638SOL    HW127747  11.695   5.831   8.649
 8638SOL    HW227748  11.588   5.809   8.545
 8639SOL     OW27749  14.121  13.472   5.223
 8639SOL    HW127750  14.080  13.533   5.285
 8639SOL    HW227751  14.049  13.418   5.191
 8640SOL     OW27752   7.558  11.705   0.885
 8640SOL    HW127753   7.485  11.652   0.853
 8640SOL    HW227754   7.619  11.709   0.811
 8641SOL     OW27755   3.499   7.625   3.923
 8641SOL    HW127756   3.443   7.585   3.856
 8641SOL    HW227757   3.588   7.610   3.893
 8642SOL     OW27758  12.105   8.001  12.753
 8642SOL    HW127759  12.066   7.958  12.829
 8642SOL    HW227760  12.196   8.016  12.778
 8643SOL     OW27761   4.937   9.883   2.941
 8643SOL    HW127762   4.978   9.941   3.005
 8643SOL    HW227763   4.972   9.911   2.857
 8644SOL     OW27764  13.723   7.008   1.428
 8644SOL    HW127765  13.810   7.037   1.402
 8644SOL    HW227766  13.739   6.948   1.501
 8645SOL     OW27767   3.346   0.465  10.026
 8645SOL    HW127768   3.282   0.399  10.051
 8645SOL    HW227769   3.427   0.439  10.070
 8646SOL     OW27770  10.448   2.918   8.334
 8646SOL    HW127771  10.440   3.007   8.369
 8646SOL    HW227772  10.361   2.898   8.300
 8647SOL     OW27773  12.939  12.425  10.482
 8647SOL    HW127774  12.904  12.489  10.420
 8647SOL    HW227775  12.866  12.365  10.497
 8648SOL     OW27776   6.055   9.842   9.986
 8648SOL    HW127777   6.147   9.863  10.004
 8648SOL    HW227778   6.057   9.796   9.901
 8649SOL     OW27779  12.757  13.933   0.054
 8649SOL    HW127780  12.689  13.892   0.107
 8649SOL    HW227781  12.837  13.884   0.075
 8650SOL     OW27782   3.909   6.939   9.652
 8650SOL    HW127783   3.889   7.004   9.585
 8650SOL    HW227784   3.835   6.943   9.713
 8651SOL     OW27785   4.109   6.688   7.985
 8651SOL    HW127786   4.172   6.631   7.941
 8651SOL    HW227787   4.029   6.636   7.990
 8652SOL     OW27788  12.898   3.402   8.029
 8652SOL    HW127789  12.836   3.475   8.034
 8652SOL    HW227790  12.846   3.325   8.052
 8653SOL     OW27791   7.942   4.654   5.579
 8653SOL    HW127792   8.021   4.706   5.594
 8653SOL    HW227793   7.971   4.563   5.587
 8654SOL     OW27794  14.657   8.388   6.840
 8654SOL    HW127795  14.636   8.295   6.853
 8654SOL    HW227796  14.710   8.411   6.916
 8655SOL     OW27797   9.689   1.233   0.392
 8655SOL    HW127798   9.626   1.304   0.401
 8655SOL    HW227799   9.684   1.209   0.300
 8656SOL     OW27800   4.533   5.918   7.047
 8656SOL    HW127801   4.627   5.923   7.030
 8656SOL    HW227802   4.522   5.957   7.134
 8657SOL     OW27803   2.303  11.174  10.265
 8657SOL    HW127804   2.297  11.258  10.220
 8657SOL    HW227805   2.390  11.175  10.307
 8658SOL     OW27806   0.457  10.673   3.628
 8658SOL    HW127807   0.456  10.756   3.676
 8658SOL    HW227808   0.369  10.664   3.593
 8659SOL     OW27809  12.200   5.800  11.229
 8659SOL    HW127810  12.106   5.800  11.245
 8659SOL    HW227811  12.208   5.800  11.133
 8660SOL     OW27812   1.329  12.842  12.232
 8660SOL    HW127813   1.300  12.875  12.317
 8660SOL    HW227814   1.249  12.819  12.186
 8661SOL     OW27815  10.051   1.359  10.522
 8661SOL    HW127816   9.975   1.302  10.511
 8661SOL    HW227817  10.032   1.412  10.599
 8662SOL     OW27818   1.041  14.157  11.454
 8662SOL    HW127819   1.116  14.098  11.453
 8662SOL    HW227820   0.983  14.124  11.385
 8663SOL     OW27821  12.894   1.647   8.536
 8663SOL    HW127822  12.896   1.622   8.444
 8663SOL    HW227823  12.975   1.612   8.572
 8664SOL     OW27824   3.785  14.490   6.093
 8664SOL    HW127825   3.869  14.518   6.128
 8664SOL    HW227826   3.739  14.571   6.072
 8665SOL     OW27827   7.259   5.662  11.380
 8665SOL    HW127828   7.330   5.618  11.335
 8665SOL    HW227829   7.268   5.637  11.472
 8666SOL     OW27830   6.603   0.208  12.006
 8666SOL    HW127831   6.653   0.206  11.925
 8666SOL    HW227832   6.621   0.295  12.043
 8667SOL     OW27833   3.540   6.747   1.095
 8667SOL    HW127834   3.509   6.661   1.068
 8667SOL    HW227835   3.522   6.751   1.189
 8668SOL     OW27836  11.338   1.325   1.271
 8668SOL    HW127837  11.410   1.360   1.323
 8668SOL    HW227838  11.375   1.312   1.184
 8669SOL     OW27839  12.787  10.300   8.255
 8669SOL    HW127840  12.830  10.370   8.207
 8669SOL    HW227841  12.697  10.331   8.268
 8670SOL     OW27842   2.656   2.062   5.936
 8670SOL    HW127843   2.706   2.012   5.872
 8670SOL    HW227844   2.694   2.038   6.021
 8671SOL     OW27845  11.711  12.247  12.660
 8671SOL    HW127846  11.641  12.283  12.715
 8671SOL    HW227847  11.754  12.182  12.715
 8672SOL     OW27848   7.939   0.784  10.985
 8672SOL    HW127849   7.899   0.784  10.898
 8672SOL    HW227850   8.032   0.799  10.969
 8673SOL     OW27851   2.227  10.561  10.266
 8673SOL    HW127852   2.155  10.519  10.314
 8673SOL    HW227853   2.299  10.499  10.270
 8674SOL     OW27854   1.710   9.872   3.494
 8674SOL    HW127855   1.805   9.861   3.506
 8674SOL    HW227856   1.701   9.904   3.404
 8675SOL     OW27857  13.504   1.378  10.345
 8675SOL    HW127858  13.533   1.413  10.429
 8675SOL    HW227859  13.490   1.455  10.290
 8676SOL     OW27860   9.214  12.755   6.812
 8676SOL    HW127861   9.159  12.803   6.749
 8676SOL    HW227862   9.281  12.713   6.757
 8677SOL     OW27863   1.031  13.317   9.467
 8677SOL    HW127864   1.114  13.271   9.452
 8677SOL    HW227865   1.002  13.342   9.379
 8678SOL     OW27866  10.306   4.934   1.177
 8678SOL    HW127867  10.220   4.916   1.215
 8678SOL    HW227868  10.313   4.872   1.104
 8679SOL     OW27869   3.576   9.612   3.782
 8679SOL    HW127870   3.665   9.584   3.761
 8679SOL    HW227871   3.578   9.626   3.877
 8680SOL     OW27872   4.735   1.338   6.146
 8680SOL    HW127873   4.737   1.293   6.231
 8680SOL    HW227874   4.779   1.421   6.162
 8681SOL     OW27875  12.304  11.036   2.434
 8681SOL    HW127876  12.264  11.025   2.348
 8681SOL    HW227877  12.258  11.112   2.472
 8682SOL     OW27878   5.347   1.987   6.300
 8682SOL    HW127879   5.373   1.953   6.386
 8682SOL    HW227880   5.368   1.915   6.239
 8683SOL     OW27881   6.711   0.323   1.183
 8683SOL    HW127882   6.686   0.231   1.184
 8683SOL    HW227883   6.645   0.367   1.237
 8684SOL     OW27884   8.732   5.468  13.201
 8684SOL    HW127885   8.749   5.495  13.110
 8684SOL    HW227886   8.768   5.539  13.254
 8685SOL     OW27887   0.451   0.141  10.587
 8685SOL    HW127888   0.500   0.189  10.654
 8685SOL    HW227889   0.483   0.051  10.594
 8686SOL     OW27890  14.200   8.528  14.185
 8686SOL    HW127891  14.265   8.579  14.233
 8686SOL    HW227892  14.167   8.587  14.118
 8687SOL     OW27893  14.757   8.522   7.640
 8687SOL    HW127894  14.731   8.565   7.722
 8687SOL    HW227895  14.720   8.577   7.571
 8688SOL     OW27896  13.354  10.248   8.805
 8688SOL    HW127897  13.277  10.234   8.861
 8688SOL    HW227898  13.412  10.175   8.826
 8689SOL     OW27899   3.937   5.986   8.691
 8689SOL    HW127900   3.861   5.983   8.749
 8689SOL    HW227901   3.977   5.899   8.700
 8690SOL     OW27902   7.949   8.562   9.302
 8690SOL    HW127903   7.978   8.653   9.293
 8690SOL    HW227904   8.000   8.514   9.236
 8691SOL     OW27905   2.435   5.327   5.817
 8691SOL    HW127906   2.509   5.309   5.875
 8691SOL    HW227907   2.358   5.310   5.871
 8692SOL     OW27908   4.109   7.008   6.943
 8692SOL    HW127909   4.068   6.947   6.882
 8692SOL    HW227910   4.063   7.091   6.929
 8693SOL     OW27911   1.504   5.851   4.526
 8693SOL    HW127912   1.427   5.845   4.469
 8693SOL    HW227913   1.478   5.804   4.606
 8694SOL     OW27914   9.164   4.433   8.404
 8694SOL    HW127915   9.207   4.347   8.413
 8694SOL    HW227916   9.234   4.491   8.375
 8695SOL     OW27917  11.700   4.964   3.843
 8695SOL    HW127918  11.769   4.930   3.900
 8695SOL    HW227919  11.634   4.998   3.903
 8696SOL     OW27920   1.861  12.447   1.999
 8696SOL    HW127921   1.827  12.489   1.920
 8696SOL    HW227922   1.934  12.503   2.026
 8697SOL     OW27923   9.225   8.985   3.376
 8697SOL    HW127924   9.191   9.074   3.372
 8697SOL    HW227925   9.317   8.995   3.400
 8698SOL     OW27926  14.519   2.147  10.476
 8698SOL    HW127927  14.466   2.225  10.488
 8698SOL    HW227928  14.558   2.157  10.389
 8699SOL     OW27929   7.592   0.673   2.443
 8699SOL    HW127930   7.656   0.711   2.383
 8699SOL    HW227931   7.508   0.710   2.416
 8700SOL     OW27932   8.473  13.371   4.551
 8700SOL    HW127933   8.454  13.338   4.639
 8700SOL    HW227934   8.460  13.295   4.494
 8701SOL     OW27935   3.606   5.857   5.259
 8701SOL    HW127936   3.535   5.803   5.296
 8701SOL    HW227937   3.560   5.925   5.209
 8702SOL     OW27938   4.204   6.626   3.643
 8702SOL    HW127939   4.233   6.708   3.682
 8702SOL    HW227940   4.194   6.567   3.718
 8703SOL     OW27941   2.511   5.476   2.689
 8703SOL    HW127942   2.583   5.413   2.696
 8703SOL    HW227943   2.511   5.522   2.773
 8704SOL     OW27944   4.030  14.584   5.573
 8704SOL    HW127945   4.030  14.490   5.553
 8704SOL    HW227946   4.041  14.626   5.488
 8705SOL     OW27947  10.311   0.697   0.657
 8705SOL    HW127948  10.266   0.620   0.691
 8705SOL    HW227949  10.284   0.702   0.565
 8706SOL     OW27950   9.950  11.794  11.371
 8706SOL    HW127951  10.003  11.782  11.293
 8706SOL    HW227952   9.859  11.787  11.341
 8707SOL     OW27953   7.556   5.326   7.985
 8707SOL    HW127954   7.590   5.324   7.896
 8707SOL    HW227955   7.615   5.386   8.032
 8708SOL     OW27956  10.041  11.548   7.757
 8708SOL    HW127957  10.067  11.462   7.722
 8708SOL    HW227958  10.086  11.611   7.701
 8709SOL     OW27959   9.258  11.141   9.093
 8709SOL    HW127960   9.201  11.102   9.158
 8709SOL    HW227961   9.314  11.068   9.063
 8710SOL     OW27962   0.386   4.902  12.189
 8710SOL    HW127963   0.449   4.966  12.157
 8710SOL    HW227964   0.427   4.817  12.172
 8711SOL     OW27965  11.992   7.594   0.992
 8711SOL    HW127966  11.905   7.620   1.021
 8711SOL    HW227967  11.977   7.555   0.905
 8712SOL     OW27968  10.203   5.901   0.249
 8712SOL    HW127969  10.227   5.939   0.333
 8712SOL    HW227970  10.192   5.807   0.267
 8713SOL     OW27971   1.291   2.017   1.215
 8713SOL    HW127972   1.262   1.926   1.211
 8713SOL    HW227973   1.385   2.013   1.197
 8714SOL     OW27974   2.068   0.085   9.620
 8714SOL    HW127975   2.048   0.178   9.631
 8714SOL    HW227976   2.056   0.048   9.707
 8715SOL     OW27977   0.347   9.352   5.153
 8715SOL    HW127978   0.301   9.277   5.191
 8715SOL    HW227979   0.336   9.341   5.058
 8716SOL     OW27980   3.158  10.832   9.456
 8716SOL    HW127981   3.176  10.752   9.407
 8716SOL    HW227982   3.195  10.816   9.543
 8717SOL     OW27983   5.197   0.497  10.533
 8717SOL    HW127984   5.272   0.534  10.487
 8717SOL    HW227985   5.204   0.533  10.622
 8718SOL     OW27986   5.956  14.587   5.409
 8718SOL    HW127987   5.884  14.612   5.466
 8718SOL    HW227988   5.966  14.493   5.421
 8719SOL     OW27989   5.890   6.483   4.577
 8719SOL    HW127990   5.939   6.426   4.636
 8719SOL    HW227991   5.944   6.562   4.569
 8720SOL     OW27992   7.033   5.216   1.775
 8720SOL    HW127993   7.098   5.251   1.836
 8720SOL    HW227994   6.950   5.221   1.822
 8721SOL     OW27995   0.570   5.127   4.942
 8721SOL    HW127996   0.579   5.179   5.022
 8721SOL    HW227997   0.559   5.037   4.973
 8722SOL     OW27998   4.406   7.809   2.803
 8722SOL    HW127999   4.340   7.773   2.862
 8722SOL    HW228000   4.431   7.735   2.748
 8723SOL     OW28001  11.394   5.959   9.699
 8723SOL    HW128002  11.369   5.960   9.791
 8723SOL    HW228003  11.488   5.939   9.700
 8724SOL     OW28004  14.143  13.654  10.929
 8724SOL    HW128005  14.210  13.675  10.994
 8724SOL    HW228006  14.159  13.562  10.907
 8725SOL     OW28007  11.389  13.624  14.730
 8725SOL    HW128008  11.377  13.529  14.733
 8725SOL    HW228009  11.373  13.653  14.820
 8726SOL     OW28010  11.220   0.409   4.274
 8726SOL    HW128011  11.189   0.396   4.364
 8726SOL    HW228012  11.253   0.499   4.273
 8727SOL     OW28013   1.625   5.894   0.828
 8727SOL    HW128014   1.614   5.929   0.740
 8727SOL    HW228015   1.538   5.866   0.854
 8728SOL     OW28016   8.677   9.755  10.478
 8728SOL    HW128017   8.622   9.804  10.416
 8728SOL    HW228018   8.701   9.676  10.429
 8729SOL     OW28019   6.325   0.901  13.126
 8729SOL    HW128020   6.345   0.815  13.090
 8729SOL    HW228021   6.275   0.945  13.057
 8730SOL     OW28022   9.311   0.930   8.597
 8730SOL    HW128023   9.272   0.864   8.654
 8730SOL    HW228024   9.256   1.008   8.607
 8731SOL     OW28025   4.257  10.587   6.185
 8731SOL    HW128026   4.170  10.598   6.148
 8731SOL    HW228027   4.250  10.508   6.238
 8732SOL     OW28028   7.007  12.375   7.845
 8732SOL    HW128029   7.033  12.391   7.754
 8732SOL    HW228030   7.004  12.462   7.885
 8733SOL     OW28031   3.843   3.907   0.114
 8733SOL    HW128032   3.842   3.845   0.186
 8733SOL    HW228033   3.755   3.902   0.076
 8734SOL     OW28034   7.910   6.764   2.208
 8734SOL    HW128035   7.984   6.824   2.195
 8734SOL    HW228036   7.949   6.677   2.202
 8735SOL     OW28037   4.681   9.140   7.287
 8735SOL    HW128038   4.587   9.129   7.272
 8735SOL    HW228039   4.687   9.213   7.349
 8736SOL     OW28040   3.523  10.462   3.198
 8736SOL    HW128041   3.485  10.400   3.260
 8736SOL    HW228042   3.452  10.522   3.177
 8737SOL     OW28043   9.066   0.623   9.601
 8737SOL    HW128044   9.095   0.584   9.683
 8737SOL    HW228045   8.977   0.590   9.588
 8738SOL     OW28046  13.726   5.392   4.490
 8738SOL    HW128047  13.745   5.486   4.490
 8738SOL    HW228048  13.700   5.373   4.400
 8739SOL     OW28049  13.930   5.053   6.155
 8739SOL    HW128050  13.913   5.003   6.236
 8739SOL    HW228051  13.979   5.130   6.184
 8740SOL     OW28052   0.408   0.770  11.453
 8740SOL    HW128053   0.441   0.797  11.539
 8740SOL    HW228054   0.318   0.802  11.450
 8741SOL     OW28055  13.303  12.981   9.349
 8741SOL    HW128056  13.305  12.889   9.320
 8741SOL    HW228057  13.215  12.993   9.384
 8742SOL     OW28058   9.530   6.574   3.209
 8742SOL    HW128059   9.545   6.648   3.150
 8742SOL    HW228060   9.532   6.612   3.297
 8743SOL     OW28061   0.454  13.580   7.022
 8743SOL    HW128062   0.425  13.669   7.044
 8743SOL    HW228063   0.441  13.573   6.928
 8744SOL     OW28064  14.066  14.091   3.545
 8744SOL    HW128065  14.138  14.096   3.608
 8744SOL    HW228066  14.005  14.027   3.583
 8745SOL     OW28067   7.589  14.524   0.661
 8745SOL    HW128068   7.624  14.555   0.578
 8745SOL    HW228069   7.665  14.513   0.717
 8746SOL     OW28070   7.973   1.339   5.601
 8746SOL    HW128071   7.951   1.345   5.694
 8746SOL    HW228072   7.935   1.255   5.573
 8747SOL     OW28073   0.531   0.634  10.342
 8747SOL    HW128074   0.484   0.686  10.277
 8747SOL    HW228075   0.477   0.638  10.421
 8748SOL     OW28076  14.809   9.160   4.176
 8748SOL    HW128077  14.820   9.065   4.172
 8748SOL    HW228078  14.836   9.192   4.089
 8749SOL     OW28079   9.231  11.483   0.250
 8749SOL    HW128080   9.278  11.550   0.202
 8749SOL    HW228081   9.284  11.466   0.328
 8750SOL     OW28082  13.066   4.987   8.103
 8750SOL    HW128083  13.138   5.037   8.064
 8750SOL    HW228084  13.102   4.899   8.116
 8751SOL     OW28085   7.213  14.113   3.785
 8751SOL    HW128086   7.188  14.174   3.855
 8751SOL    HW228087   7.298  14.145   3.754
 8752SOL     OW28088   9.998   4.098   5.640
 8752SOL    HW128089   9.914   4.055   5.656
 8752SOL    HW228090  10.063   4.038   5.677
 8753SOL     OW28091  13.804  14.390   0.362
 8753SOL    HW128092  13.758  14.368   0.281
 8753SOL    HW228093  13.880  14.441   0.333
 8754SOL     OW28094   1.918  10.500   3.613
 8754SOL    HW128095   1.887  10.502   3.522
 8754SOL    HW228096   1.880  10.420   3.649
 8755SOL     OW28097   0.512   6.489   6.462
 8755SOL    HW128098   0.556   6.467   6.545
 8755SOL    HW228099   0.584   6.506   6.402
 8756SOL     OW28100   7.079  12.775  12.976
 8756SOL    HW128101   7.083  12.779  12.881
 8756SOL    HW228102   7.013  12.708  12.995
 8757SOL     OW28103   8.974   2.426   6.793
 8757SOL    HW128104   8.991   2.333   6.780
 8757SOL    HW228105   9.015   2.469   6.717
 8758SOL     OW28106   1.721   2.969  12.095
 8758SOL    HW128107   1.790   2.921  12.048
 8758SOL    HW228108   1.709   2.919  12.176
 8759SOL     OW28109   7.676  10.925   2.180
 8759SOL    HW128110   7.719  10.848   2.215
 8759SOL    HW228111   7.616  10.953   2.249
 8760SOL     OW28112  14.295   5.976  12.275
 8760SOL    HW128113  14.354   6.013  12.209
 8760SOL    HW228114  14.245   6.051  12.307
 8761SOL     OW28115   3.726  13.007  11.082
 8761SOL    HW128116   3.676  12.946  11.136
 8761SOL    HW228117   3.817  12.992  11.107
 8762SOL     OW28118  11.005  13.665  10.517
 8762SOL    HW128119  10.963  13.589  10.557
 8762SOL    HW228120  10.939  13.734  10.521
 8763SOL     OW28121   0.042  14.878   2.319
 8763SOL    HW128122  14.867   0.003   2.240
 8763SOL    HW228123   0.129  14.855   2.288
 8764SOL     OW28124  10.970   4.510   2.347
 8764SOL    HW128125  10.968   4.542   2.257
 8764SOL    HW228126  11.055   4.538   2.381
 8765SOL     OW28127   1.126   3.745  12.868
 8765SOL    HW128128   1.045   3.775  12.826
 8765SOL    HW228129   1.184   3.821  12.865
 8766SOL     OW28130   7.668   2.751   7.774
 8766SOL    HW128131   7.574   2.766   7.776
 8766SOL    HW228132   7.706   2.829   7.813
 8767SOL     OW28133  14.471   5.310   0.160
 8767SOL    HW128134  14.502   5.397   0.185
 8767SOL    HW228135  14.420   5.280   0.235
 8768SOL     OW28136   1.267   6.548  14.058
 8768SOL    HW128137   1.352   6.589  14.041
 8768SOL    HW228138   1.208   6.622  14.071
 8769SOL     OW28139   9.674   2.800   4.570
 8769SOL    HW128140   9.750   2.826   4.517
 8769SOL    HW228141   9.637   2.882   4.601
 8770SOL     OW28142  11.877   4.521   2.636
 8770SOL    HW128143  11.856   4.566   2.718
 8770SOL    HW228144  11.972   4.514   2.637
 8771SOL     OW28145  11.909  12.620  11.690
 8771SOL    HW128146  11.968  12.551  11.659
 8771SOL    HW228147  11.823  12.577  11.696
 8772SOL     OW28148   3.272  10.857   0.049
 8772SOL    HW128149   3.338  10.914   0.088
 8772SOL    HW228150   3.282  10.774   0.094
 8773SOL     OW28151  13.654   1.862  11.668
 8773SOL    HW128152  13.584   1.924  11.648
 8773SOL    HW228153  13.619   1.808  11.738
 8774SOL     OW28154  14.308  11.688   8.567
 8774SOL    HW128155  14.293  11.605   8.612
 8774SOL    HW228156  14.344  11.746   8.634
 8775SOL     OW28157  11.438  14.030   0.739
 8775SOL    HW128158  11.451  14.057   0.648
 8775SOL    HW228159  11.441  14.111   0.790
 8776SOL     OW28160   7.564   3.838  12.581
 8776SOL    HW128161   7.649   3.804  12.610
 8776SOL    HW228162   7.516   3.855  12.662
 8777SOL     OW28163   0.188   8.545   9.698
 8777SOL    HW128164   0.274   8.581   9.675
 8777SOL    HW228165   0.181   8.558   9.793
 8778SOL     OW28166  14.412  13.242   6.684
 8778SOL    HW128167  14.377  13.166   6.731
 8778SOL    HW228168  14.467  13.204   6.616
 8779SOL     OW28169  11.525   2.023   3.588
 8779SOL    HW128170  11.554   2.102   3.634
 8779SOL    HW228171  11.435   2.043   3.562
 8780SOL     OW28172   3.386   4.635  12.998
 8780SOL    HW128173   3.366   4.550  12.960
 8780SOL    HW228174   3.303   4.664  13.037
 8781SOL     OW28175  11.476   7.979   4.252
 8781SOL    HW128176  11.520   8.006   4.171
 8781SOL    HW228177  11.407   8.044   4.265
 8782SOL     OW28178   3.772   6.653  12.096
 8782SOL    HW128179   3.813   6.738  12.088
 8782SOL    HW228180   3.739   6.633  12.008
 8783SOL     OW28181   0.638   9.907   6.365
 8783SOL    HW128182   0.701   9.883   6.433
 8783SOL    HW228183   0.621   9.826   6.317
 8784SOL     OW28184   5.964  12.052   5.383
 8784SOL    HW128185   5.920  12.037   5.299
 8784SOL    HW228186   5.900  12.027   5.449
 8785SOL     OW28187   8.771   8.913   0.997
 8785SOL    HW128188   8.763   9.000   1.035
 8785SOL    HW228189   8.798   8.928   0.907
 8786SOL     OW28190   2.958  13.035   4.160
 8786SOL    HW128191   3.034  12.979   4.145
 8786SOL    HW228192   2.992  13.124   4.154
 8787SOL     OW28193   1.668   1.461   6.262
 8787SOL    HW128194   1.613   1.383   6.272
 8787SOL    HW228195   1.730   1.456   6.335
 8788SOL     OW28196   1.566   1.596   1.925
 8788SOL    HW128197   1.603   1.511   1.902
 8788SOL    HW228198   1.476   1.577   1.953
 8789SOL     OW28199   8.856   7.823  11.599
 8789SOL    HW128200   8.763   7.849  11.603
 8789SOL    HW228201   8.869   7.768  11.676
 8790SOL     OW28202  13.672  13.930  11.032
 8790SOL    HW128203  13.722  14.011  11.027
 8790SOL    HW228204  13.738  13.862  11.049
 8791SOL     OW28205   1.703   4.318   9.864
 8791SOL    HW128206   1.795   4.342   9.876
 8791SOL    HW228207   1.699   4.226   9.891
 8792SOL     OW28208   1.018   2.912   8.277
 8792SOL    HW128209   1.048   2.856   8.205
 8792SOL    HW228210   1.095   2.963   8.302
 8793SOL     OW28211   9.608  14.346  14.552
 8793SOL    HW128212   9.574  14.435  14.562
 8793SOL    HW228213   9.586  14.302  14.634
 8794SOL     OW28214   0.610   0.928   4.407
 8794SOL    HW128215   0.523   0.908   4.441
 8794SOL    HW228216   0.619   0.872   4.330
 8795SOL     OW28217   8.693   5.087   2.020
 8795SOL    HW128218   8.731   5.063   1.935
 8795SOL    HW228219   8.705   5.009   2.075
 8796SOL     OW28220   0.937  11.890  11.214
 8796SOL    HW128221   0.947  11.810  11.266
 8796SOL    HW228222   0.923  11.959  11.279
 8797SOL     OW28223   8.822  11.902  13.154
 8797SOL    HW128224   8.805  11.821  13.201
 8797SOL    HW228225   8.801  11.882  13.063
 8798SOL     OW28226   2.609  12.453   5.096
 8798SOL    HW128227   2.701  12.474   5.109
 8798SOL    HW228228   2.592  12.472   5.004
 8799SOL     OW28229   2.931   1.015   1.221
 8799SOL    HW128230   2.966   0.931   1.250
 8799SOL    HW228231   2.915   1.003   1.127
 8800SOL     OW28232   6.977   3.691   6.558
 8800SOL    HW128233   7.053   3.723   6.606
 8800SOL    HW228234   6.904   3.743   6.592
 8801SOL     OW28235   9.878   4.605  12.944
 8801SOL    HW128236   9.880   4.538  12.876
 8801SOL    HW228237   9.787   4.635  12.945
 8802SOL     OW28238   3.947  10.801   1.628
 8802SOL    HW128239   4.023  10.757   1.668
 8802SOL    HW228240   3.884  10.730   1.613
 8803SOL     OW28241   2.299   6.797  14.097
 8803SOL    HW128242   2.393   6.813  14.090
 8803SOL    HW228243   2.266   6.803  14.007
 8804SOL     OW28244   4.819  13.081   9.964
 8804SOL    HW128245   4.762  13.067   9.888
 8804SOL    HW228246   4.884  13.144   9.933
 8805SOL     OW28247   0.836  10.247  14.404
 8805SOL    HW128248   0.892  10.170  14.406
 8805SOL    HW228249   0.747  10.213  14.411
 8806SOL     OW28250   8.178   8.817  14.639
 8806SOL    HW128251   8.176   8.860  14.725
 8806SOL    HW228252   8.139   8.731  14.655
 8807SOL     OW28253  13.653   0.311  12.127
 8807SOL    HW128254  13.616   0.399  12.117
 8807SOL    HW228255  13.735   0.324  12.174
 8808SOL     OW28256   6.595  12.899   0.018
 8808SOL    HW128257   6.513  12.924   0.061
 8808SOL    HW228258   6.568  12.841  14.826
 8809SOL     OW28259   2.488   7.293  13.550
 8809SOL    HW128260   2.411   7.322  13.501
 8809SOL    HW228261   2.562   7.318  13.494
 8810SOL     OW28262  14.235   2.317   1.885
 8810SOL    HW128263  14.142   2.294   1.881
 8810SOL    HW228264  14.238   2.410   1.865
 8811SOL     OW28265   2.396   5.520   4.030
 8811SOL    HW128266   2.357   5.592   4.079
 8811SOL    HW228267   2.423   5.559   3.947
 8812SOL     OW28268  11.644   2.461  13.849
 8812SOL    HW128269  11.667   2.541  13.896
 8812SOL    HW228270  11.727   2.429  13.814
 8813SOL     OW28271   7.703   1.741  12.918
 8813SOL    HW128272   7.760   1.740  12.841
 8813SOL    HW228273   7.658   1.657  12.917
 8814SOL     OW28274   5.125   1.212   0.847
 8814SOL    HW128275   5.136   1.271   0.922
 8814SOL    HW228276   5.093   1.130   0.886
 8815SOL     OW28277  13.487   0.099   7.204
 8815SOL    HW128278  13.548   0.126   7.135
 8815SOL    HW228279  13.514   0.148   7.281
 8816SOL     OW28280   5.060   8.382  10.327
 8816SOL    HW128281   5.047   8.470  10.293
 8816SOL    HW228282   4.981   8.363  10.377
 8817SOL     OW28283   8.692  10.767   1.127
 8817SOL    HW128284   8.748  10.796   1.198
 8817SOL    HW228285   8.680  10.844   1.072
 8818SOL     OW28286   4.496   0.177  12.480
 8818SOL    HW128287   4.426   0.241  12.482
 8818SOL    HW228288   4.474   0.120  12.406
 8819SOL     OW28289  13.756  12.901   8.057
 8819SOL    HW128290  13.702  12.883   7.981
 8819SOL    HW228291  13.757  12.997   8.064
 8820SOL     OW28292   0.795  11.301  11.257
 8820SOL    HW128293   0.761  11.368  11.316
 8820SOL    HW228294   0.738  11.225  11.271
 8821SOL     OW28295  11.279   0.127   8.844
 8821SOL    HW128296  11.373   0.145   8.833
 8821SOL    HW228297  11.261   0.056   8.783
 8822SOL     OW28298   6.526   7.285   2.669
 8822SOL    HW128299   6.526   7.190   2.669
 8822SOL    HW228300   6.619   7.309   2.670
 8823SOL     OW28301   9.338   1.983  14.732
 8823SOL    HW128302   9.256   2.032  14.745
 8823SOL    HW228303   9.320   1.925  14.657
 8824SOL     OW28304  10.971   9.143   2.163
 8824SOL    HW128305  11.029   9.071   2.138
 8824SOL    HW228306  10.973   9.202   2.087
 8825SOL     OW28307   0.005   5.877  12.377
 8825SOL    HW128308   0.053   5.857  12.297
 8825SOL    HW228309  14.838   5.796  12.399
 8826SOL     OW28310   2.490   1.315  11.578
 8826SOL    HW128311   2.426   1.359  11.634
 8826SOL    HW228312   2.562   1.292  11.636
 8827SOL     OW28313   0.690   1.183   4.160
 8827SOL    HW128314   0.733   1.268   4.148
 8827SOL    HW228315   0.641   1.192   4.242
 8828SOL     OW28316   1.638   4.486  14.379
 8828SOL    HW128317   1.639   4.581  14.366
 8828SOL    HW228318   1.684   4.474  14.462
 8829SOL     OW28319   1.248   3.720   4.596
 8829SOL    HW128320   1.324   3.730   4.539
 8829SOL    HW228321   1.173   3.738   4.539
 8830SOL     OW28322   8.856   2.595   2.860
 8830SOL    HW128323   8.808   2.536   2.801
 8830SOL    HW228324   8.923   2.634   2.805
 8831SOL     OW28325   2.490  13.969   5.925
 8831SOL    HW128326   2.399  13.998   5.916
 8831SOL    HW228327   2.542  14.038   5.884
 8832SOL     OW28328  14.014  12.870   7.481
 8832SOL    HW128329  13.951  12.920   7.428
 8832SOL    HW228330  14.032  12.927   7.556
 8833SOL     OW28331  13.584   6.355   2.446
 8833SOL    HW128332  13.562   6.447   2.463
 8833SOL    HW228333  13.584   6.314   2.532
 8834SOL     OW28334   7.605  13.402   9.049
 8834SOL    HW128335   7.637  13.318   9.014
 8834SOL    HW228336   7.629  13.466   8.982
 8835SOL     OW28337   9.332   8.633   0.877
 8835SOL    HW128338   9.366   8.647   0.966
 8835SOL    HW228339   9.400   8.583   0.833
 8836SOL     OW28340   8.526   0.859   0.517
 8836SOL    HW128341   8.450   0.856   0.459
 8836SOL    HW228342   8.598   0.823   0.465
 8837SOL     OW28343   0.171   9.871   4.555
 8837SOL    HW128344   0.080   9.868   4.585
 8837SOL    HW228345   0.193   9.780   4.534
 8838SOL     OW28346  12.583   9.667  13.123
 8838SOL    HW128347  12.538   9.717  13.191
 8838SOL    HW228348  12.630   9.599  13.170
 8839SOL     OW28349   9.949   4.150   5.373
 8839SOL    HW128350   9.977   4.103   5.452
 8839SOL    HW228351   9.858   4.174   5.390
 8840SOL     OW28352  10.035  10.631   8.019
 8840SOL    HW128353  10.071  10.566   8.079
 8840SOL    HW228354  10.088  10.622   7.940
 8841SOL     OW28355   9.808   4.698  12.536
 8841SOL    HW128356   9.800   4.659  12.449
 8841SOL    HW228357   9.791   4.791  12.523
 8842SOL     OW28358   6.498  12.933   5.131
 8842SOL    HW128359   6.482  12.952   5.223
 8842SOL    HW228360   6.415  12.898   5.099
 8843SOL     OW28361   3.098   6.605   2.105
 8843SOL    HW128362   3.190   6.602   2.129
 8843SOL    HW228363   3.080   6.519   2.067
 8844SOL     OW28364  13.372  13.406  10.942
 8844SOL    HW128365  13.368  13.312  10.962
 8844SOL    HW228366  13.462  13.422  10.916
 8845SOL     OW28367   1.139   6.735   8.064
 8845SOL    HW128368   1.131   6.699   7.976
 8845SOL    HW228369   1.091   6.675   8.120
 8846SOL     OW28370   2.726  13.275   4.770
 8846SOL    HW128371   2.733  13.367   4.746
 8846SOL    HW228372   2.764  13.270   4.858
 8847SOL     OW28373   4.032  14.840   0.824
 8847SOL    HW128374   4.052   0.033   0.885
 8847SOL    HW228375   4.058  14.761   0.871
 8848SOL     OW28376   9.062   1.986   9.812
 8848SOL    HW128377   9.128   1.939   9.760
 8848SOL    HW228378   9.113   2.049   9.863
 8849SOL     OW28379  10.734  14.867   0.419
 8849SOL    HW128380  10.779  14.782   0.423
 8849SOL    HW228381  10.789   0.047   0.472
 8850SOL     OW28382   8.567   0.281   8.540
 8850SOL    HW128383   8.647   0.270   8.489
 8850SOL    HW228384   8.597   0.286   8.631
 8851SOL     OW28385  13.286   5.319   8.678
 8851SOL    HW128386  13.210   5.339   8.623
 8851SOL    HW228387  13.266   5.233   8.715
 8852SOL     OW28388   6.009   9.037  10.215
 8852SOL    HW128389   5.944   9.082  10.163
 8852SOL    HW228390   6.068   8.996  10.151
 8853SOL     OW28391   5.308   3.543   9.827
 8853SOL    HW128392   5.225   3.588   9.842
 8853SOL    HW228393   5.367   3.611   9.794
 8854SOL     OW28394   2.027   8.325  13.826
 8854SOL    HW128395   2.015   8.415  13.856
 8854SOL    HW228396   2.122   8.316  13.817
 8855SOL     OW28397   3.520   2.485   6.538
 8855SOL    HW128398   3.424   2.482   6.530
 8855SOL    HW228399   3.543   2.398   6.571
 8856SOL     OW28400   2.681  13.769   2.553
 8856SOL    HW128401   2.764  13.758   2.508
 8856SOL    HW228402   2.655  13.860   2.533
 8857SOL     OW28403  13.749   6.304   5.844
 8857SOL    HW128404  13.768   6.379   5.901
 8857SOL    HW228405  13.829   6.293   5.793
 8858SOL     OW28406   7.378   5.478  10.964
 8858SOL    HW128407   7.353   5.500  10.874
 8858SOL    HW228408   7.398   5.385  10.960
 8859SOL     OW28409  11.914   6.927  11.789
 8859SOL    HW128410  11.833   6.876  11.794
 8859SOL    HW228411  11.984   6.862  11.793
 8860SOL     OW28412   1.051   6.391  11.095
 8860SOL    HW128413   1.031   6.403  11.188
 8860SOL    HW228414   1.131   6.442  11.081
 8861SOL     OW28415   1.656   8.456   2.186
 8861SOL    HW128416   1.601   8.479   2.261
 8861SOL    HW228417   1.668   8.538   2.139
 8862SOL     OW28418  13.570  13.526   7.538
 8862SOL    HW128419  13.627  13.589   7.583
 8862SOL    HW228420  13.482  13.562   7.548
 8863SOL     OW28421   7.238  14.131  13.186
 8863SOL    HW128422   7.165  14.192  13.174
 8863SOL    HW228423   7.197  14.052  13.221
 8864SOL     OW28424  10.965  12.440   3.033
 8864SOL    HW128425  10.911  12.362   3.019
 8864SOL    HW228426  10.903  12.510   3.051
 8865SOL     OW28427   5.491  14.683   3.180
 8865SOL    HW128428   5.442  14.745   3.127
 8865SOL    HW228429   5.583  14.700   3.158
 8866SOL     OW28430   2.996   4.675  11.961
 8866SOL    HW128431   2.995   4.762  11.920
 8866SOL    HW228432   3.066   4.681  12.026
 8867SOL     OW28433  10.328   6.030   8.136
 8867SOL    HW128434  10.382   5.999   8.209
 8867SOL    HW228435  10.333   6.125   8.141
 8868SOL     OW28436  14.788  11.121  11.622
 8868SOL    HW128437  14.780  11.180  11.696
 8868SOL    HW228438  14.749  11.168  11.549
 8869SOL     OW28439   2.373   1.858   0.876
 8869SOL    HW128440   2.451   1.912   0.866
 8869SOL    HW228441   2.323   1.872   0.795
 8870SOL     OW28442  11.562   5.149   7.329
 8870SOL    HW128443  11.468   5.161   7.347
 8870SOL    HW228444  11.605   5.170   7.412
 8871SOL     OW28445   6.389  12.693  13.105
 8871SOL    HW128446   6.381  12.675  13.199
 8871SOL    HW228447   6.461  12.637  13.076
 8872SOL     OW28448  12.909   6.440  12.884
 8872SOL    HW128449  12.853   6.503  12.928
 8872SOL    HW228450  12.965   6.406  12.954
 8873SOL     OW28451   2.745  14.697   1.652
 8873SOL    HW128452   2.783  14.654   1.729
 8873SOL    HW228453   2.803  14.771   1.635
 8874SOL     OW28454   7.214   9.866   4.870
 8874SOL    HW128455   7.212   9.800   4.801
 8874SOL    HW228456   7.148   9.930   4.845
 8875SOL     OW28457   5.998  10.095  12.522
 8875SOL    HW128458   5.977  10.023  12.581
 8875SOL    HW228459   5.977  10.062  12.434
 8876SOL     OW28460  14.192   3.540   6.974
 8876SOL    HW128461  14.241   3.549   7.056
 8876SOL    HW228462  14.250   3.576   6.907
 8877SOL     OW28463   0.691   3.324  12.890
 8877SOL    HW128464   0.636   3.350  12.817
 8877SOL    HW228465   0.779   3.317  12.853
 8878SOL     OW28466   6.747  13.240   6.158
 8878SOL    HW128467   6.835  13.274   6.140
 8878SOL    HW228468   6.763  13.149   6.186
 8879SOL     OW28469  12.734   8.394  10.181
 8879SOL    HW128470  12.706   8.306  10.206
 8879SOL    HW228471  12.744   8.389  10.086
 8880SOL     OW28472   9.307  13.685   1.664
 8880SOL    HW128473   9.287  13.689   1.757
 8880SOL    HW228474   9.359  13.605   1.654
 8881SOL     OW28475   8.893  12.886   3.802
 8881SOL    HW128476   8.801  12.885   3.776
 8881SOL    HW228477   8.942  12.868   3.722
 8882SOL     OW28478   8.581   2.738   1.112
 8882SOL    HW128479   8.669   2.705   1.132
 8882SOL    HW228480   8.563   2.706   1.023
 8883SOL     OW28481   9.344   7.900  13.630
 8883SOL    HW128482   9.297   7.915  13.712
 8883SOL    HW228483   9.306   7.819  13.595
 8884SOL     OW28484  10.842  14.553   5.818
 8884SOL    HW128485  10.840  14.477   5.760
 8884SOL    HW228486  10.757  14.551   5.862
 8885SOL     OW28487   2.343   2.972  10.039
 8885SOL    HW128488   2.422   3.017  10.068
 8885SOL    HW228489   2.370   2.880  10.028
 8886SOL     OW28490   3.840   4.784   7.327
 8886SOL    HW128491   3.867   4.842   7.398
 8886SOL    HW228492   3.880   4.700   7.348
 8887SOL     OW28493  10.890  13.058  11.968
 8887SOL    HW128494  10.859  12.978  12.011
 8887SOL    HW228495  10.816  13.119  11.976
 8888SOL     OW28496  12.355  13.266   4.808
 8888SOL    HW128497  12.301  13.228   4.877
 8888SOL    HW228498  12.341  13.208   4.733
 8889SOL     OW28499   7.920   4.953  11.964
 8889SOL    HW128500   7.924   4.874  11.910
 8889SOL    HW228501   7.889   4.922  12.050
 8890SOL     OW28502  11.865   2.923  13.494
 8890SOL    HW128503  11.786   2.935  13.546
 8890SOL    HW228504  11.847   2.846  13.440
 8891SOL     OW28505   3.691  10.482  12.008
 8891SOL    HW128506   3.696  10.434  12.091
 8891SOL    HW228507   3.741  10.562  12.024
 8892SOL     OW28508  12.336  12.876   7.316
 8892SOL    HW128509  12.384  12.813   7.262
 8892SOL    HW228510  12.404  12.929   7.357
 8893SOL     OW28511  14.651   7.692   0.419
 8893SOL    HW128512  14.579   7.639   0.384
 8893SOL    HW228513  14.613   7.736   0.495
 8894SOL     OW28514  11.293  11.007   8.011
 8894SOL    HW128515  11.266  11.020   8.102
 8894SOL    HW228516  11.362  11.073   7.997
 8895SOL     OW28517   8.664  13.827  12.864
 8895SOL    HW128518   8.643  13.776  12.943
 8895SOL    HW228519   8.747  13.789  12.834
 8896SOL     OW28520  12.912   0.209   9.430
 8896SOL    HW128521  12.856   0.265   9.376
 8896SOL    HW228522  12.853   0.142   9.464
 8897SOL     OW28523  11.699  11.634  10.008
 8897SOL    HW128524  11.764  11.690  10.048
 8897SOL    HW228525  11.620  11.647  10.060
 8898SOL     OW28526   9.706  13.620   8.345
 8898SOL    HW128527   9.676  13.603   8.256
 8898SOL    HW228528   9.761  13.545   8.367
 8899SOL     OW28529  14.802  10.681  14.878
 8899SOL    HW128530  14.811  10.777  14.876
 8899SOL    HW228531  14.746  10.661  14.803
 8900SOL     OW28532  11.968   4.833  14.263
 8900SOL    HW128533  11.970   4.758  14.204
 8900SOL    HW228534  12.045   4.821  14.319
 8901SOL     OW28535  10.283   7.933  12.306
 8901SOL    HW128536  10.268   8.023  12.334
 8901SOL    HW228537  10.219   7.881  12.354
 8902SOL     OW28538   7.427   9.936  11.713
 8902SOL    HW128539   7.413   9.948  11.807
 8902SOL    HW228540   7.450  10.023  11.681
 8903SOL     OW28541   9.803   9.014  14.659
 8903SOL    HW128542   9.776   8.991  14.571
 8903SOL    HW228543   9.796   9.109  14.662
 8904SOL     OW28544   1.549   2.448  12.850
 8904SOL    HW128545   1.623   2.429  12.793
 8904SOL    HW228546   1.520   2.535  12.824
 8905SOL     OW28547   5.911  12.700   4.814
 8905SOL    HW128548   5.912  12.649   4.895
 8905SOL    HW228549   5.991  12.753   4.818
 8906SOL     OW28550  12.388  12.433   5.035
 8906SOL    HW128551  12.405  12.361   4.975
 8906SOL    HW228552  12.297  12.421   5.062
 8907SOL     OW28553   1.050   8.504   9.874
 8907SOL    HW128554   1.026   8.420   9.912
 8907SOL    HW228555   0.968   8.540   9.841
 8908SOL     OW28556   3.645   6.611  10.168
 8908SOL    HW128557   3.558   6.631  10.203
 8908SOL    HW228558   3.705   6.666  10.219
 8909SOL     OW28559   8.760  13.306  14.567
 8909SOL    HW128560   8.780  13.271  14.480
 8909SOL    HW228561   8.743  13.229  14.621
 8910SOL     OW28562   2.340   8.481  12.493
 8910SOL    HW128563   2.390   8.453  12.416
 8910SOL    HW228564   2.257   8.511  12.458
 8911SOL     OW28565  11.412   3.850   6.309
 8911SOL    HW128566  11.427   3.944   6.301
 8911SOL    HW228567  11.497   3.811   6.288
 8912SOL     OW28568  13.078   1.529  10.839
 8912SOL    HW128569  13.062   1.614  10.881
 8912SOL    HW228570  13.158   1.542  10.788
 8913SOL     OW28571   2.211   3.078   1.433
 8913SOL    HW128572   2.253   3.089   1.348
 8913SOL    HW228573   2.283   3.075   1.495
 8914SOL     OW28574   7.757  11.702  11.087
 8914SOL    HW128575   7.703  11.657  11.151
 8914SOL    HW228576   7.818  11.636  11.055
 8915SOL     OW28577  11.549  11.469  10.309
 8915SOL    HW128578  11.513  11.543  10.260
 8915SOL    HW228579  11.473  11.415  10.329
 8916SOL     OW28580   2.195   1.288   3.856
 8916SOL    HW128581   2.211   1.320   3.945
 8916SOL    HW228582   2.114   1.331   3.829
 8917SOL     OW28583   6.272   3.259   5.566
 8917SOL    HW128584   6.358   3.264   5.608
 8917SOL    HW228585   6.240   3.349   5.565
 8918SOL     OW28586  10.143   3.343   4.140
 8918SOL    HW128587  10.147   3.407   4.069
 8918SOL    HW228588  10.226   3.295   4.135
 8919SOL     OW28589   5.381   8.685   7.992
 8919SOL    HW128590   5.348   8.610   8.041
 8919SOL    HW228591   5.413   8.746   8.059
 8920SOL     OW28592  10.096  14.197  11.037
 8920SOL    HW128593  10.025  14.142  11.069
 8920SOL    HW228594  10.171  14.138  11.031
 8921SOL     OW28595   7.237   8.320   4.327
 8921SOL    HW128596   7.208   8.259   4.260
 8921SOL    HW228597   7.316   8.281   4.364
 8922SOL     OW28598   9.971   8.816  14.661
 8922SOL    HW128599   9.921   8.897  14.671
 8922SOL    HW228600   9.905   8.746  14.662
 8923SOL     OW28601   6.916  13.300   2.293
 8923SOL    HW128602   6.997  13.351   2.294
 8923SOL    HW228603   6.883  13.309   2.204
 8924SOL     OW28604   0.791  12.453  11.023
 8924SOL    HW128605   0.865  12.453  11.084
 8924SOL    HW228606   0.793  12.540  10.983
 8925SOL     OW28607   0.577   8.158   8.050
 8925SOL    HW128608   0.556   8.198   8.134
 8925SOL    HW228609   0.497   8.112   8.025
 8926SOL     OW28610   4.845   5.423   9.211
 8926SOL    HW128611   4.919   5.442   9.154
 8926SOL    HW228612   4.768   5.439   9.157
 8927SOL     OW28613  10.660   0.504   5.049
 8927SOL    HW128614  10.650   0.599   5.043
 8927SOL    HW228615  10.750   0.488   5.022
 8928SOL     OW28616   2.438  13.430   6.700
 8928SOL    HW128617   2.366  13.447   6.638
 8928SOL    HW228618   2.400  13.446   6.786
 8929SOL     OW28619  10.707  13.579   4.501
 8929SOL    HW128620  10.632  13.625   4.463
 8929SOL    HW228621  10.710  13.609   4.592
 8930SOL     OW28622  14.168   0.830  12.978
 8930SOL    HW128623  14.194   0.896  13.042
 8930SOL    HW228624  14.120   0.765  13.029
 8931SOL     OW28625   3.470   9.263   5.985
 8931SOL    HW128626   3.565   9.270   5.989
 8931SOL    HW228627   3.448   9.291   5.896
 8932SOL     OW28628   7.856   6.804   4.259
 8932SOL    HW128629   7.887   6.830   4.173
 8932SOL    HW228630   7.770   6.765   4.243
 8933SOL     OW28631   3.070   5.186   0.329
 8933SOL    HW128632   3.036   5.097   0.329
 8933SOL    HW228633   3.003   5.237   0.284
 8934SOL     OW28634   4.500   7.753   7.058
 8934SOL    HW128635   4.504   7.805   7.138
 8934SOL    HW228636   4.583   7.706   7.056
 8935SOL     OW28637   6.986   6.558  13.391
 8935SOL    HW128638   6.956   6.579  13.479
 8935SOL    HW228639   7.056   6.494  13.405
 8936SOL     OW28640  11.300   3.545   2.147
 8936SOL    HW128641  11.233   3.477   2.144
 8936SOL    HW228642  11.377   3.505   2.106
 8937SOL     OW28643   1.835   3.931  12.295
 8937SOL    HW128644   1.762   3.920  12.356
 8937SOL    HW228645   1.910   3.952  12.351
 8938SOL     OW28646  10.870  11.966   5.380
 8938SOL    HW128647  10.906  12.051   5.404
 8938SOL    HW228648  10.811  11.984   5.307
 8939SOL     OW28649  13.741   2.154  14.220
 8939SOL    HW128650  13.744   2.065  14.184
 8939SOL    HW228651  13.704   2.207  14.149
 8940SOL     OW28652   0.770   2.200  12.076
 8940SOL    HW128653   0.844   2.258  12.089
 8940SOL    HW228654   0.749   2.168  12.164
 8941SOL     OW28655  12.498   5.968   1.296
 8941SOL    HW128656  12.496   6.043   1.236
 8941SOL    HW228657  12.408   5.960   1.327
 8942SOL     OW28658   2.273   1.033   7.620
 8942SOL    HW128659   2.310   0.971   7.558
 8942SOL    HW228660   2.325   1.022   7.700
 8943SOL     OW28661   4.398   6.548  12.928
 8943SOL    HW128662   4.418   6.598  13.007
 8943SOL    HW228663   4.461   6.476  12.927
 8944SOL     OW28664   3.957   9.208   1.480
 8944SOL    HW128665   3.938   9.301   1.467
 8944SOL    HW228666   4.052   9.202   1.479
 8945SOL     OW28667   9.051   5.496   0.095
 8945SOL    HW128668   8.967   5.488   0.051
 8945SOL    HW228669   9.082   5.583   0.071
 8946SOL     OW28670   8.103   9.819   0.828
 8946SOL    HW128671   8.028   9.820   0.889
 8946SOL    HW228672   8.074   9.871   0.754
 8947SOL     OW28673  14.661  10.113   0.786
 8947SOL    HW128674  14.654  10.038   0.727
 8947SOL    HW228675  14.656  10.076   0.874
 8948SOL     OW28676   9.358  10.168  12.958
 8948SOL    HW128677   9.377  10.160  12.864
 8948SOL    HW228678   9.384  10.083  12.994
 8949SOL     OW28679   2.391   0.444  12.429
 8949SOL    HW128680   2.367   0.418  12.518
 8949SOL    HW228681   2.308   0.444  12.382
 8950SOL     OW28682   5.379   9.621  10.756
 8950SOL    HW128683   5.380   9.675  10.835
 8950SOL    HW228684   5.392   9.532  10.787
 8951SOL     OW28685   6.804  12.913   4.133
 8951SOL    HW128686   6.865  12.865   4.076
 8951SOL    HW228687   6.752  12.966   4.073
 8952SOL     OW28688   7.637   5.782   1.974
 8952SOL    HW128689   7.638   5.877   1.980
 8952SOL    HW228690   7.669   5.763   1.885
 8953SOL     OW28691   4.734  10.279  11.577
 8953SOL    HW128692   4.726  10.228  11.658
 8953SOL    HW228693   4.786  10.224  11.520
 8954SOL     OW28694   7.821  11.104   4.077
 8954SOL    HW128695   7.759  11.066   4.015
 8954SOL    HW228696   7.904  11.108   4.028
 8955SOL     OW28697  13.519  14.493   6.550
 8955SOL    HW128698  13.451  14.511   6.485
 8955SOL    HW228699  13.566  14.575   6.559
 8956SOL     OW28700  11.237   0.059   7.875
 8956SOL    HW128701  11.258   0.085   7.786
 8956SOL    HW228702  11.288  14.858   7.890
 8957SOL     OW28703   0.800   4.662   8.302
 8957SOL    HW128704   0.788   4.722   8.228
 8957SOL    HW228705   0.894   4.656   8.314
 8958SOL     OW28706   4.138   5.251   8.027
 8958SOL    HW128707   4.169   5.341   8.028
 8958SOL    HW228708   4.044   5.258   8.011
 8959SOL     OW28709   9.129   1.523   1.687
 8959SOL    HW128710   9.202   1.552   1.743
 8959SOL    HW228711   9.138   1.428   1.684
 8960SOL     OW28712  10.246  14.740   7.365
 8960SOL    HW128713  10.214  14.657   7.329
 8960SOL    HW228714  10.233  14.731   7.459
 8961SOL     OW28715   1.802   8.856   0.567
 8961SOL    HW128716   1.847   8.937   0.590
 8961SOL    HW228717   1.860   8.786   0.597
 8962SOL     OW28718  11.806  12.434  13.844
 8962SOL    HW128719  11.735  12.461  13.903
 8962SOL    HW228720  11.825  12.344  13.869
 8963SOL     OW28721   6.252   0.456   0.341
 8963SOL    HW128722   6.298   0.444   0.257
 8963SOL    HW228723   6.184   0.389   0.340
 8964SOL     OW28724   8.927   0.490  14.278
 8964SOL    HW128725   9.008   0.449  14.307
 8964SOL    HW228726   8.955   0.560  14.220
 8965SOL     OW28727   7.560   4.357   6.074
 8965SOL    HW128728   7.656   4.357   6.073
 8965SOL    HW228729   7.537   4.264   6.069
 8966SOL     OW28730   2.470  12.521   4.609
 8966SOL    HW128731   2.430  12.530   4.522
 8966SOL    HW228732   2.427  12.587   4.663
 8967SOL     OW28733   0.504   9.264   9.175
 8967SOL    HW128734   0.503   9.173   9.146
 8967SOL    HW228735   0.568   9.307   9.119
 8968SOL     OW28736  11.318   0.267   8.244
 8968SOL    HW128737  11.369   0.189   8.227
 8968SOL    HW228738  11.349   0.298   8.330
 8969SOL     OW28739   0.350   8.762   4.878
 8969SOL    HW128740   0.399   8.814   4.941
 8969SOL    HW228741   0.273   8.815   4.857
 8970SOL     OW28742   3.316   1.869   9.701
 8970SOL    HW128743   3.287   1.948   9.746
 8970SOL    HW228744   3.348   1.900   9.616
 8971SOL     OW28745   2.329   2.433  14.336
 8971SOL    HW128746   2.324   2.507  14.397
 8971SOL    HW228747   2.324   2.473  14.249
 8972SOL     OW28748   7.412   3.074   2.799
 8972SOL    HW128749   7.459   2.991   2.788
 8972SOL    HW228750   7.466   3.139   2.753
 8973SOL     OW28751  13.176   6.857   2.133
 8973SOL    HW128752  13.174   6.766   2.102
 8973SOL    HW228753  13.223   6.905   2.065
 8974SOL     OW28754   1.690  13.005   0.546
 8974SOL    HW128755   1.708  12.924   0.595
 8974SOL    HW228756   1.599  12.994   0.516
 8975SOL     OW28757   4.171   7.823   8.808
 8975SOL    HW128758   4.196   7.912   8.833
 8975SOL    HW228759   4.190   7.819   8.715
 8976SOL     OW28760  10.967  13.292   6.937
 8976SOL    HW128761  11.060  13.296   6.915
 8976SOL    HW228762  10.936  13.382   6.926
 8977SOL     OW28763   6.899  10.500  12.427
 8977SOL    HW128764   6.838  10.504  12.501
 8977SOL    HW228765   6.909  10.407  12.409
 8978SOL     OW28766  11.498   6.051   1.693
 8978SOL    HW128767  11.502   6.072   1.787
 8978SOL    HW228768  11.553   5.973   1.684
 8979SOL     OW28769   0.342   0.154  13.781
 8979SOL    HW128770   0.345   0.190  13.693
 8979SOL    HW228771   0.339   0.231  13.838
 8980SOL     OW28772   2.149  11.054   6.833
 8980SOL    HW128773   2.125  11.055   6.740
 8980SOL    HW228774   2.077  11.007   6.876
 8981SOL     OW28775  14.258   4.835  11.461
 8981SOL    HW128776  14.178   4.868  11.503
 8981SOL    HW228777  14.265   4.744  11.489
 8982SOL     OW28778  14.569   0.344  12.810
 8982SOL    HW128779  14.504   0.337  12.880
 8982SOL    HW228780  14.546   0.425  12.764
 8983SOL     OW28781   3.189   6.761   0.296
 8983SOL    HW128782   3.135   6.691   0.258
 8983SOL    HW228783   3.259   6.774   0.232
 8984SOL     OW28784  13.628   5.952   1.279
 8984SOL    HW128785  13.704   5.927   1.331
 8984SOL    HW228786  13.566   5.986   1.342
 8985SOL     OW28787   4.188   5.081   3.571
 8985SOL    HW128788   4.269   5.097   3.620
 8985SOL    HW228789   4.164   5.166   3.536
 8986SOL     OW28790   2.671   6.186   2.384
 8986SOL    HW128791   2.685   6.279   2.366
 8986SOL    HW228792   2.580   6.181   2.412
 8987SOL     OW28793   8.423   5.878   7.321
 8987SOL    HW128794   8.421   5.822   7.243
 8987SOL    HW228795   8.422   5.816   7.394
 8988SOL     OW28796  13.982  12.323   1.510
 8988SOL    HW128797  13.889  12.345   1.499
 8988SOL    HW228798  14.001  12.343   1.602
 8989SOL     OW28799   3.359   7.120   4.713
 8989SOL    HW128800   3.419   7.171   4.658
 8989SOL    HW228801   3.416   7.070   4.771
 8990SOL     OW28802   0.287  10.890   2.739
 8990SOL    HW128803   0.312  10.975   2.704
 8990SOL    HW228804   0.371  10.846   2.755
 8991SOL     OW28805   2.453   7.835   7.478
 8991SOL    HW128806   2.363   7.807   7.462
 8991SOL    HW228807   2.503   7.792   7.409
 8992SOL     OW28808  12.252   0.757   2.781
 8992SOL    HW128809  12.200   0.697   2.727
 8992SOL    HW228810  12.338   0.757   2.741
 8993SOL     OW28811  13.854   1.471   6.196
 8993SOL    HW128812  13.868   1.376   6.201
 8993SOL    HW228813  13.930   1.503   6.146
 8994SOL     OW28814   7.009   3.462   4.013
 8994SOL    HW128815   7.092   3.445   4.057
 8994SOL    HW228816   6.944   3.458   4.083
 8995SOL     OW28817   9.543  13.561   2.951
 8995SOL    HW128818   9.553  13.655   2.932
 8995SOL    HW228819   9.541  13.519   2.865
 8996SOL     OW28820   8.064  11.709  13.715
 8996SOL    HW128821   8.157  11.702  13.737
 8996SOL    HW228822   8.029  11.770  13.780
 8997SOL     OW28823   0.844  13.621   1.598
 8997SOL    HW128824   0.882  13.549   1.548
 8997SOL    HW228825   0.879  13.609   1.687
 8998SOL     OW28826   5.888   8.108  10.916
 8998SOL    HW128827   5.802   8.086  10.951
 8998SOL    HW228828   5.947   8.044  10.955
 8999SOL     OW28829  11.180  14.793   9.270
 8999SOL    HW128830  11.213  14.788   9.359
 8999SOL    HW228831  11.190   0.006   9.245
 9000SOL     OW28832   5.044   6.678   0.751
 9000SOL    HW128833   5.118   6.691   0.811
 9000SOL    HW228834   5.058   6.590   0.714
 9001SOL     OW28835   8.690   0.125  14.641
 9001SOL    HW128836   8.669   0.175  14.562
 9001SOL    HW228837   8.621   0.147  14.703
 9002SOL     OW28838   3.395   9.961   5.417
 9002SOL    HW128839   3.428   9.920   5.497
 9002SOL    HW228840   3.463  10.026   5.395
 9003SOL     OW28841   1.486   2.533   3.899
 9003SOL    HW128842   1.429   2.478   3.846
 9003SOL    HW228843   1.569   2.486   3.903
 9004SOL     OW28844   6.442   1.966   2.812
 9004SOL    HW128845   6.452   1.870   2.814
 9004SOL    HW228846   6.436   1.991   2.904
 9005SOL     OW28847   2.777   9.290   3.590
 9005SOL    HW128848   2.790   9.230   3.663
 9005SOL    HW228849   2.830   9.366   3.611
 9006SOL     OW28850  10.568   5.288  13.908
 9006SOL    HW128851  10.572   5.381  13.887
 9006SOL    HW228852  10.658   5.257  13.897
 9007SOL     OW28853  13.172  12.504   4.862
 9007SOL    HW128854  13.234  12.573   4.888
 9007SOL    HW228855  13.101  12.551   4.818
 9008SOL     OW28856   5.223   7.464  14.329
 9008SOL    HW128857   5.208   7.558  14.314
 9008SOL    HW228858   5.162   7.421  14.269
 9009SOL     OW28859   2.239  12.722  11.538
 9009SOL    HW128860   2.300  12.725  11.612
 9009SOL    HW228861   2.153  12.740  11.576
 9010SOL     OW28862   1.294  11.878   6.604
 9010SOL    HW128863   1.340  11.958   6.629
 9010SOL    HW228864   1.333  11.810   6.660
 9011SOL     OW28865  14.551  13.782  14.805
 9011SOL    HW128866  14.630  13.761  14.756
 9011SOL    HW228867  14.517  13.697  14.834
 9012SOL     OW28868  13.650   8.151  13.137
 9012SOL    HW128869  13.704   8.112  13.206
 9012SOL    HW228870  13.637   8.080  13.074
 9013SOL     OW28871   2.512   1.010   8.541
 9013SOL    HW128872   2.581   1.037   8.602
 9013SOL    HW228873   2.532   1.059   8.461
 9014SOL     OW28874  10.341  14.623  10.136
 9014SOL    HW128875  10.382  14.540  10.160
 9014SOL    HW228876  10.410  14.671  10.089
 9015SOL     OW28877   4.860   6.983  12.503
 9015SOL    HW128878   4.943   7.031  12.508
 9015SOL    HW228879   4.859   6.947  12.414
 9016SOL     OW28880   3.220   6.765   1.734
 9016SOL    HW128881   3.282   6.819   1.685
 9016SOL    HW228882   3.152   6.743   1.670
 9017SOL     OW28883   5.984   7.480   6.148
 9017SOL    HW128884   6.063   7.528   6.171
 9017SOL    HW228885   6.000   7.449   6.058
 9018SOL     OW28886   5.752   0.857   8.311
 9018SOL    HW128887   5.740   0.788   8.376
 9018SOL    HW228888   5.747   0.811   8.227
 9019SOL     OW28889   7.460   0.023  12.392
 9019SOL    HW128890   7.382  14.850  12.412
 9019SOL    HW228891   7.473   0.077  12.469
 9020SOL     OW28892   4.380   4.355  14.230
 9020SOL    HW128893   4.435   4.312  14.165
 9020SOL    HW228894   4.407   4.316  14.314
 9021SOL     OW28895   1.796   0.754   3.329
 9021SOL    HW128896   1.836   0.738   3.244
 9021SOL    HW228897   1.866   0.741   3.392
 9022SOL     OW28898  10.004   1.763   7.901
 9022SOL    HW128899  10.071   1.776   7.834
 9022SOL    HW228900  10.053   1.755   7.983
 9023SOL     OW28901   8.347   9.842   0.458
 9023SOL    HW128902   8.382   9.885   0.536
 9023SOL    HW228903   8.299   9.766   0.491
 9024SOL     OW28904  14.766  13.319  14.705
 9024SOL    HW128905  14.757  13.342  14.613
 9024SOL    HW228906  14.855  13.282  14.712
 9025SOL     OW28907   7.628   0.264   9.032
 9025SOL    HW128908   7.700   0.317   8.996
 9025SOL    HW228909   7.667   0.221   9.108
 9026SOL     OW28910   8.316  10.542   7.712
 9026SOL    HW128911   8.411  10.539   7.706
 9026SOL    HW228912   8.290  10.611   7.651
 9027SOL     OW28913   2.898  14.768   5.216
 9027SOL    HW128914   2.808  14.798   5.202
 9027SOL    HW228915   2.900  14.740   5.308
 9028SOL     OW28916   5.369   8.775  11.387
 9028SOL    HW128917   5.391   8.820  11.305
 9028SOL    HW228918   5.393   8.837  11.456
 9029SOL     OW28919   9.268   3.260   1.055
 9029SOL    HW128920   9.245   3.259   0.962
 9029SOL    HW228921   9.190   3.228   1.100
 9030SOL     OW28922   4.876   7.413  14.593
 9030SOL    HW128923   4.855   7.490  14.646
 9030SOL    HW228924   4.792   7.369  14.580
 9031SOL     OW28925  13.322   9.049   5.530
 9031SOL    HW128926  13.391   9.114   5.514
 9031SOL    HW228927  13.367   8.964   5.524
 9032SOL     OW28928   1.257   3.158  12.842
 9032SOL    HW128929   1.212   3.105  12.908
 9032SOL    HW228930   1.333   3.194  12.888
 9033SOL     OW28931  10.167   7.839   5.654
 9033SOL    HW128932  10.085   7.862   5.610
 9033SOL    HW228933  10.151   7.860   5.746
 9034SOL     OW28934   4.878  12.379   6.772
 9034SOL    HW128935   4.792  12.384   6.730
 9034SOL    HW228936   4.880  12.293   6.813
 9035SOL     OW28937   3.574  13.085   1.152
 9035SOL    HW128938   3.589  12.994   1.127
 9035SOL    HW228939   3.576  13.084   1.248
 9036SOL     OW28940   6.345  13.285   0.608
 9036SOL    HW128941   6.311  13.239   0.685
 9036SOL    HW228942   6.434  13.250   0.597
 9037SOL     OW28943   9.086   4.296  10.913
 9037SOL    HW128944   9.085   4.270  11.005
 9037SOL    HW228945   9.033   4.231  10.868
 9038SOL     OW28946  13.687   1.201   6.146
 9038SOL    HW128947  13.643   1.150   6.078
 9038SOL    HW228948  13.780   1.178   6.137
 9039SOL     OW28949  11.080   9.952   7.281
 9039SOL    HW128950  11.064  10.025   7.221
 9039SOL    HW228951  11.121   9.993   7.358
 9040SOL     OW28952   4.762   6.240  13.446
 9040SOL    HW128953   4.742   6.176  13.379
 9040SOL    HW228954   4.830   6.199  13.499
 9041SOL     OW28955  10.217   3.948   0.408
 9041SOL    HW128956  10.163   4.028   0.411
 9041SOL    HW228957  10.179   3.897   0.337
 9042SOL     OW28958   7.792   6.449   7.184
 9042SOL    HW128959   7.865   6.510   7.174
 9042SOL    HW228960   7.819   6.371   7.136
 9043SOL     OW28961   6.093   8.801   0.290
 9043SOL    HW128962   6.045   8.755   0.358
 9043SOL    HW228963   6.052   8.773   0.208
 9044SOL     OW28964   6.884  13.991   0.389
 9044SOL    HW128965   6.805  14.005   0.441
 9044SOL    HW228966   6.952  14.039   0.436
 9045SOL     OW28967   7.309   4.986  11.221
 9045SOL    HW128968   7.387   5.033  11.250
 9045SOL    HW228969   7.341   4.900  11.194
 9046SOL     OW28970   1.781   1.829   9.873
 9046SOL    HW128971   1.801   1.739   9.897
 9046SOL    HW228972   1.685   1.833   9.874
 9047SOL     OW28973   4.480  10.915  10.805
 9047SOL    HW128974   4.516  10.899  10.718
 9047SOL    HW228975   4.473  10.828  10.844
 9048SOL     OW28976   2.309   9.007   3.824
 9048SOL    HW128977   2.373   9.074   3.800
 9048SOL    HW228978   2.347   8.925   3.791
 9049SOL     OW28979  10.228   7.299  14.858
 9049SOL    HW128980  10.192   7.226  14.807
 9049SOL    HW228981  10.174   7.374  14.835
 9050SOL     OW28982   7.125   0.783   2.560
 9050SOL    HW128983   7.083   0.824   2.636
 9050SOL    HW228984   7.181   0.715   2.597
 9051SOL     OW28985   8.825  10.113  10.265
 9051SOL    HW128986   8.917  10.123  10.287
 9051SOL    HW228987   8.778  10.152  10.338
 9052SOL     OW28988   5.212   3.008  14.137
 9052SOL    HW128989   5.195   2.915  14.155
 9052SOL    HW228990   5.128   3.042  14.107
 9053SOL     OW28991   3.641   9.639   7.646
 9053SOL    HW128992   3.690   9.689   7.712
 9053SOL    HW228993   3.708   9.588   7.600
 9054SOL     OW28994   9.652   3.425   5.388
 9054SOL    HW128995   9.559   3.402   5.391
 9054SOL    HW228996   9.680   3.401   5.300
 9055SOL     OW28997  12.634   8.143   3.863
 9055SOL    HW128998  12.641   8.213   3.799
 9055SOL    HW228999  12.552   8.160   3.909
 9056SOL     OW29000  10.702  13.580  13.989
 9056SOL    HW129001  10.706  13.620  14.076
 9056SOL    HW229002  10.610  13.556  13.978
 9057SOL     OW29003   1.697   4.547   8.111
 9057SOL    HW129004   1.775   4.587   8.148
 9057SOL    HW229005   1.628   4.612   8.124
 9058SOL     OW29006   3.613  13.507   5.597
 9058SOL    HW129007   3.527  13.466   5.600
 9058SOL    HW229008   3.661  13.466   5.670
 9059SOL     OW29009   6.276   3.579  12.744
 9059SOL    HW129010   6.194   3.544  12.779
 9059SOL    HW229011   6.270   3.565  12.650
 9060SOL     OW29012   9.249   1.162   1.294
 9060SOL    HW129013   9.157   1.141   1.281
 9060SOL    HW229014   9.289   1.079   1.321
 9061SOL     OW29015   1.568  14.476   3.365
 9061SOL    HW129016   1.544  14.499   3.275
 9061SOL    HW229017   1.661  14.497   3.371
 9062SOL     OW29018   6.393  12.275  11.399
 9062SOL    HW129019   6.327  12.207  11.389
 9062SOL    HW229020   6.427  12.289  11.311
 9063SOL     OW29021  10.012   8.536   9.764
 9063SOL    HW129022   9.946   8.547   9.696
 9063SOL    HW229023  10.011   8.443   9.785
 9064SOL     OW29024   8.872   2.533   4.251
 9064SOL    HW129025   8.880   2.464   4.185
 9064SOL    HW229026   8.880   2.487   4.335
 9065SOL     OW29027   8.100   5.411  10.809
 9065SOL    HW129028   8.176   5.442  10.858
 9065SOL    HW229029   8.074   5.487  10.756
 9066SOL     OW29030   0.526   4.509  11.264
 9066SOL    HW129031   0.522   4.548  11.351
 9066SOL    HW229032   0.510   4.581  11.203
 9067SOL     OW29033  11.856   9.491   0.746
 9067SOL    HW129034  11.813   9.576   0.732
 9067SOL    HW229035  11.790   9.427   0.719
 9068SOL     OW29036   6.954   5.226   7.604
 9068SOL    HW129037   6.990   5.287   7.669
 9068SOL    HW229038   7.029   5.174   7.576
 9069SOL     OW29039   6.367   4.479   8.541
 9069SOL    HW129040   6.460   4.466   8.559
 9069SOL    HW229041   6.365   4.537   8.465
 9070SOL     OW29042  13.413   1.247   0.149
 9070SOL    HW129043  13.421   1.336   0.115
 9070SOL    HW229044  13.436   1.191   0.075
 9071SOL     OW29045  12.002  11.657   7.438
 9071SOL    HW129046  11.940  11.683   7.506
 9071SOL    HW229047  12.070  11.725   7.440
 9072SOL     OW29048   3.138   9.920   8.759
 9072SOL    HW129049   3.154  10.011   8.783
 9072SOL    HW229050   3.186   9.868   8.823
 9073SOL     OW29051   7.467   7.455   4.947
 9073SOL    HW129052   7.452   7.540   4.905
 9073SOL    HW229053   7.411   7.395   4.898
 9074SOL     OW29054   5.758   9.989  11.563
 9074SOL    HW129055   5.707  10.058  11.522
 9074SOL    HW229056   5.844   9.995  11.522
 9075SOL     OW29057  10.704   0.879  12.358
 9075SOL    HW129058  10.700   0.946  12.428
 9075SOL    HW229059  10.798   0.861  12.347
 9076SOL     OW29060   1.675   6.432   4.045
 9076SOL    HW129061   1.648   6.440   4.137
 9076SOL    HW229062   1.771   6.422   4.050
 9077SOL     OW29063   4.407  10.550   4.537
 9077SOL    HW129064   4.452  10.625   4.498
 9077SOL    HW229065   4.466  10.520   4.606
 9078SOL     OW29066   0.404   5.040   4.726
 9078SOL    HW129067   0.447   5.082   4.800
 9078SOL    HW229068   0.455   4.961   4.710
 9079SOL     OW29069   0.104   7.100  10.632
 9079SOL    HW129070   0.169   7.043  10.673
 9079SOL    HW229071   0.057   7.043  10.571
 9080SOL     OW29072  12.673   2.311  11.717
 9080SOL    HW129073  12.700   2.316  11.625
 9080SOL    HW229074  12.578   2.325  11.715
 9081SOL     OW29075   2.630   6.121  11.761
 9081SOL    HW129076   2.576   6.179  11.815
 9081SOL    HW229077   2.691   6.179  11.716
 9082SOL     OW29078   9.613   8.024   0.357
 9082SOL    HW129079   9.642   8.096   0.301
 9082SOL    HW229080   9.690   7.968   0.366
 9083SOL     OW29081  14.424   2.266   3.584
 9083SOL    HW129082  14.399   2.233   3.498
 9083SOL    HW229083  14.353   2.326   3.608
 9084SOL     OW29084   2.300  12.473   1.385
 9084SOL    HW129085   2.246  12.417   1.329
 9084SOL    HW229086   2.237  12.521   1.439
 9085SOL     OW29087  11.402   3.425   1.445
 9085SOL    HW129088  11.412   3.424   1.540
 9085SOL    HW229089  11.418   3.334   1.418
 9086SOL     OW29090   5.620   5.319   3.815
 9086SOL    HW129091   5.557   5.301   3.884
 9086SOL    HW229092   5.625   5.238   3.764
 9087SOL     OW29093  12.497   0.423   5.364
 9087SOL    HW129094  12.440   0.395   5.435
 9087SOL    HW229095  12.470   0.513   5.345
 9088SOL     OW29096  14.753  12.913  10.812
 9088SOL    HW129097  14.757  12.989  10.754
 9088SOL    HW229098  14.791  12.942  10.894
 9089SOL     OW29099   2.306   9.907  11.879
 9089SOL    HW129100   2.260   9.827  11.854
 9089SOL    HW229101   2.249   9.978  11.849
 9090SOL     OW29102   3.053   0.321  12.718
 9090SOL    HW129103   3.010   0.405  12.704
 9090SOL    HW229104   3.144   0.336  12.691
 9091SOL     OW29105   4.999  11.444   1.946
 9091SOL    HW129106   4.940  11.520   1.944
 9091SOL    HW229107   4.945  11.371   1.916
 9092SOL     OW29108  13.286   4.539   4.223
 9092SOL    HW129109  13.292   4.634   4.230
 9092SOL    HW229110  13.193   4.520   4.235
 9093SOL     OW29111  14.491   7.658  11.408
 9093SOL    HW129112  14.454   7.577  11.442
 9093SOL    HW229113  14.567   7.630  11.357
 9094SOL     OW29114  14.385  14.097  14.356
 9094SOL    HW129115  14.404  14.190  14.347
 9094SOL    HW229116  14.467  14.053  14.333
 9095SOL     OW29117   1.303  12.080   7.492
 9095SOL    HW129118   1.227  12.100   7.546
 9095SOL    HW229119   1.378  12.091   7.551
 9096SOL     OW29120  10.728   6.675   1.618
 9096SOL    HW129121  10.779   6.752   1.644
 9096SOL    HW229122  10.682   6.649   1.698
 9097SOL     OW29123   8.564  13.102   2.363
 9097SOL    HW129124   8.642  13.148   2.333
 9097SOL    HW229125   8.579  13.011   2.337
 9098SOL     OW29126   0.668   1.782   9.878
 9098SOL    HW129127   0.628   1.795   9.793
 9098SOL    HW229128   0.715   1.863   9.896
 9099SOL     OW29129   7.351  11.168  14.561
 9099SOL    HW129130   7.395  11.087  14.536
 9099SOL    HW229131   7.394  11.236  14.508
 9100SOL     OW29132   4.694   3.215  10.727
 9100SOL    HW129133   4.785   3.186  10.720
 9100SOL    HW229134   4.648   3.166  10.659
 9101SOL     OW29135  12.161  11.814   5.939
 9101SOL    HW129136  12.162  11.891   5.882
 9101SOL    HW229137  12.087  11.828   5.997
 9102SOL     OW29138   8.556  13.146   4.330
 9102SOL    HW129139   8.513  13.060   4.331
 9102SOL    HW229140   8.557  13.172   4.238
 9103SOL     OW29141   5.121   2.668   5.081
 9103SOL    HW129142   5.099   2.740   5.140
 9103SOL    HW229143   5.089   2.590   5.127
 9104SOL     OW29144   5.080  11.099   7.462
 9104SOL    HW129145   5.086  11.184   7.418
 9104SOL    HW229146   5.071  11.036   7.391
 9105SOL     OW29147   6.430   6.867   6.938
 9105SOL    HW129148   6.455   6.929   6.870
 9105SOL    HW229149   6.349   6.902   6.975
 9106SOL     OW29150  10.644   8.944   5.720
 9106SOL    HW129151  10.639   9.015   5.656
 9106SOL    HW229152  10.653   8.865   5.667
 9107SOL     OW29153   7.359  11.703   7.939
 9107SOL    HW129154   7.267  11.690   7.964
 9107SOL    HW229155   7.356  11.720   7.845
 9108SOL     OW29156   7.613   5.920   1.573
 9108SOL    HW129157   7.616   5.888   1.483
 9108SOL    HW229158   7.670   5.860   1.622
 9109SOL     OW29159   8.238  14.849   2.370
 9109SOL    HW129160   8.184  14.791   2.424
 9109SOL    HW229161   8.321  14.803   2.361
 9110SOL     OW29162  11.548  10.454   1.222
 9110SOL    HW129163  11.618  10.493   1.275
 9110SOL    HW229164  11.509  10.528   1.176
 9111SOL     OW29165  14.771   9.216  12.099
 9111SOL    HW129166  14.769   9.306  12.065
 9111SOL    HW229167  14.719   9.220  12.180
 9112SOL     OW29168  14.147  11.761   8.243
 9112SOL    HW129169  14.239  11.785   8.251
 9112SOL    HW229170  14.129  11.707   8.319
 9113SOL     OW29171   7.822   3.987   2.874
 9113SOL    HW129172   7.769   4.058   2.837
 9113SOL    HW229173   7.891   3.973   2.810
 9114SOL     OW29174  14.034   2.796  12.955
 9114SOL    HW129175  14.019   2.755  12.870
 9114SOL    HW229176  14.028   2.890  12.937
 9115SOL     OW29177   2.483  13.008   7.739
 9115SOL    HW129178   2.566  13.029   7.696
 9115SOL    HW229179   2.479  13.067   7.814
 9116SOL     OW29180   1.286   0.673   0.242
 9116SOL    HW129181   1.365   0.625   0.267
 9116SOL    HW229182   1.232   0.673   0.321
 9117SOL     OW29183   4.311   6.424   4.497
 9117SOL    HW129184   4.291   6.343   4.544
 9117SOL    HW229185   4.284   6.406   4.407
 9118SOL     OW29186   0.053   8.067   0.814
 9118SOL    HW129187  14.869   8.073   0.742
 9118SOL    HW229188  14.879   8.068   0.893
 9119SOL     OW29189  10.111   9.784   9.201
 9119SOL    HW129190  10.060   9.865   9.195
 9119SOL    HW229191  10.189   9.809   9.251
 9120SOL     OW29192   8.751   2.267   6.159
 9120SOL    HW129193   8.707   2.279   6.075
 9120SOL    HW229194   8.748   2.353   6.201
 9121SOL     OW29195   5.547  12.213  12.504
 9121SOL    HW129196   5.514  12.293  12.546
 9121SOL    HW229197   5.640  12.229  12.493
 9122SOL     OW29198   2.044   0.960   1.039
 9122SOL    HW129199   1.952   0.948   1.063
 9122SOL    HW229200   2.048   1.048   1.001
 9123SOL     OW29201   4.233   2.969   9.207
 9123SOL    HW129202   4.293   3.007   9.272
 9123SOL    HW229203   4.176   3.042   9.183
 9124SOL     OW29204   9.058   6.873   4.788
 9124SOL    HW129205   9.029   6.788   4.821
 9124SOL    HW229206   9.143   6.887   4.830
 9125SOL     OW29207   3.290  10.932   4.709
 9125SOL    HW129208   3.264  10.887   4.629
 9125SOL    HW229209   3.208  10.949   4.755
 9126SOL     OW29210  14.635   8.651   7.437
 9126SOL    HW129211  14.579   8.721   7.471
 9126SOL    HW229212  14.577   8.598   7.382
 9127SOL     OW29213   4.959   5.619   9.392
 9127SOL    HW129214   4.981   5.578   9.309
 9127SOL    HW229215   4.924   5.547   9.446
 9128SOL     OW29216   4.198   2.702  11.097
 9128SOL    HW129217   4.189   2.762  11.171
 9128SOL    HW229218   4.272   2.735  11.048
 9129SOL     OW29219  12.327   9.179  13.935
 9129SOL    HW129220  12.380   9.123  13.878
 9129SOL    HW229221  12.275   9.118  13.987
 9130SOL     OW29222  11.465   0.858   8.377
 9130SOL    HW129223  11.407   0.911   8.431
 9130SOL    HW229224  11.419   0.775   8.367
 9131SOL     OW29225   4.095   7.377   5.141
 9131SOL    HW129226   4.126   7.394   5.230
 9131SOL    HW229227   4.159   7.317   5.104
 9132SOL     OW29228  13.855  10.498   3.996
 9132SOL    HW129229  13.946  10.523   4.008
 9132SOL    HW229230  13.842  10.423   4.055
 9133SOL     OW29231   8.890  13.839   8.218
 9133SOL    HW129232   8.846  13.893   8.283
 9133SOL    HW229233   8.820  13.812   8.158
 9134SOL     OW29234   8.674  14.723   0.708
 9134SOL    HW129235   8.718  14.749   0.789
 9134SOL    HW229236   8.746  14.702   0.648
 9135SOL     OW29237   1.668  14.575   6.950
 9135SOL    HW129238   1.669  14.670   6.949
 9135SOL    HW229239   1.667  14.550   6.857
 9136SOL     OW29240   0.562   5.010   6.286
 9136SOL    HW129241   0.581   5.073   6.216
 9136SOL    HW229242   0.503   4.946   6.246
 9137SOL     OW29243   0.253  10.159  14.764
 9137SOL    HW129244   0.238  10.230  14.701
 9137SOL    HW229245   0.214  10.192  14.845
 9138SOL     OW29246   5.501   3.182  10.772
 9138SOL    HW129247   5.500   3.257  10.831
 9138SOL    HW229248   5.437   3.121  10.811
 9139SOL     OW29249  12.625   7.063   8.008
 9139SOL    HW129250  12.544   7.040   7.964
 9139SOL    HW229251  12.598   7.096   8.094
 9140SOL     OW29252   6.907  11.307   9.075
 9140SOL    HW129253   6.895  11.366   9.150
 9140SOL    HW229254   6.955  11.232   9.111
 9141SOL     OW29255  14.673   6.697  12.563
 9141SOL    HW129256  14.669   6.731  12.652
 9141SOL    HW229257  14.691   6.604  12.574
 9142SOL     OW29258  11.358   7.646  12.069
 9142SOL    HW129259  11.382   7.581  12.004
 9142SOL    HW229260  11.317   7.596  12.140
 9143SOL     OW29261  11.587  14.841   7.614
 9143SOL    HW129262  11.577  14.749   7.638
 9143SOL    HW229263  11.498  14.873   7.601
 9144SOL     OW29264  13.482   8.199   3.312
 9144SOL    HW129265  13.450   8.275   3.263
 9144SOL    HW229266  13.504   8.135   3.245
 9145SOL     OW29267   9.623   8.440   8.808
 9145SOL    HW129268   9.672   8.520   8.792
 9145SOL    HW229269   9.668   8.373   8.757
 9146SOL     OW29270  14.841   5.550   9.693
 9146SOL    HW129271   0.017   5.573   9.768
 9146SOL    HW229272  14.872   5.464   9.666
 9147SOL     OW29273   7.859  13.092   9.758
 9147SOL    HW129274   7.840  13.091   9.852
 9147SOL    HW229275   7.935  13.034   9.749
 9148SOL     OW29276   5.420   0.908  13.962
 9148SOL    HW129277   5.515   0.910  13.958
 9148SOL    HW229278   5.395   0.838  13.901
 9149SOL     OW29279   2.544   0.731  11.594
 9149SOL    HW129280   2.452   0.758  11.600
 9149SOL    HW229281   2.583   0.761  11.675
 9150SOL     OW29282   6.442   6.225   1.827
 9150SOL    HW129283   6.438   6.308   1.875
 9150SOL    HW229284   6.380   6.168   1.873
 9151SOL     OW29285  10.446   7.864   2.542
 9151SOL    HW129286  10.431   7.915   2.621
 9151SOL    HW229287  10.392   7.906   2.475
 9152SOL     OW29288   2.106   9.549  10.288
 9152SOL    HW129289   2.131   9.566  10.378
 9152SOL    HW229290   2.185   9.511  10.248
 9153SOL     OW29291   6.685   7.727  14.857
 9153SOL    HW129292   6.759   7.742  14.797
 9153SOL    HW229293   6.657   7.815   0.003
 9154SOL     OW29294   9.444   9.962   2.773
 9154SOL    HW129295   9.424   9.946   2.680
 9154SOL    HW229296   9.431   9.877   2.815
 9155SOL     OW29297   8.701   3.937   5.083
 9155SOL    HW129298   8.688   4.028   5.057
 9155SOL    HW229299   8.737   3.942   5.172
 9156SOL     OW29300   3.152  12.058   5.355
 9156SOL    HW129301   3.198  12.076   5.437
 9156SOL    HW229302   3.084  11.995   5.380
 9157SOL     OW29303   1.482   8.245  11.668
 9157SOL    HW129304   1.535   8.285  11.737
 9157SOL    HW229305   1.409   8.202  11.714
 9158SOL     OW29306   6.585   0.986   5.386
 9158SOL    HW129307   6.601   1.046   5.313
 9158SOL    HW229308   6.664   0.991   5.440
 9159SOL     OW29309   1.277   7.320  11.270
 9159SOL    HW129310   1.273   7.252  11.202
 9159SOL    HW229311   1.253   7.400  11.224
 9160SOL     OW29312  14.118   7.502   7.398
 9160SOL    HW129313  14.122   7.445   7.321
 9160SOL    HW229314  14.167   7.455   7.465
 9161SOL     OW29315   7.800  13.722  13.920
 9161SOL    HW129316   7.858  13.706  13.994
 9161SOL    HW229317   7.855  13.768  13.856
 9162SOL     OW29318   1.154  11.613  14.523
 9162SOL    HW129319   1.106  11.684  14.482
 9162SOL    HW229320   1.246  11.639  14.518
 9163SOL     OW29321   3.443   3.189  13.682
 9163SOL    HW129322   3.461   3.100  13.650
 9163SOL    HW229323   3.473   3.246  13.611
 9164SOL     OW29324   4.968   2.430   9.505
 9164SOL    HW129325   4.924   2.358   9.459
 9164SOL    HW229326   4.942   2.418   9.597
 9165SOL     OW29327   8.692  13.224  11.908
 9165SOL    HW129328   8.747  13.251  11.981
 9165SOL    HW229329   8.743  13.246  11.830
 9166SOL     OW29330   7.025   5.772   9.863
 9166SOL    HW129331   7.067   5.738   9.784
 9166SOL    HW229332   7.017   5.866   9.848
 9167SOL     OW29333   8.883  10.325   2.615
 9167SOL    HW129334   8.918  10.263   2.679
 9167SOL    HW229335   8.841  10.393   2.668
 9168SOL     OW29336   8.173  13.646  13.732
 9168SOL    HW129337   8.109  13.664  13.663
 9168SOL    HW229338   8.201  13.556  13.715
 9169SOL     OW29339   2.938   3.505   2.728
 9169SOL    HW129340   2.970   3.578   2.675
 9169SOL    HW229341   3.006   3.438   2.718
 9170SOL     OW29342   1.604  12.196  10.517
 9170SOL    HW129343   1.518  12.197  10.558
 9170SOL    HW229344   1.587  12.174  10.425
 9171SOL     OW29345   9.241   6.076   9.635
 9171SOL    HW129346   9.245   6.165   9.598
 9171SOL    HW229347   9.313   6.073   9.698
 9172SOL     OW29348   4.171   4.909   8.387
 9172SOL    HW129349   4.265   4.903   8.370
 9172SOL    HW229350   4.137   4.968   8.321
 9173SOL     OW29351   7.895  11.219  11.117
 9173SOL    HW129352   7.842  11.235  11.039
 9173SOL    HW229353   7.853  11.271  11.185
 9174SOL     OW29354  12.527   1.003   8.538
 9174SOL    HW129355  12.614   0.981   8.505
 9174SOL    HW229356  12.536   1.093   8.571
 9175SOL     OW29357  13.817   8.557  12.009
 9175SOL    HW129358  13.790   8.632  11.957
 9175SOL    HW229359  13.874   8.506  11.952
 9176SOL     OW29360   0.314  13.165   9.622
 9176SOL    HW129361   0.401  13.205   9.621
 9176SOL    HW229362   0.315  13.104   9.695
 9177SOL     OW29363  11.639   9.718   1.873
 9177SOL    HW129364  11.554   9.741   1.835
 9177SOL    HW229365  11.676   9.802   1.900
 9178SOL     OW29366   3.949  10.493   6.506
 9178SOL    HW129367   4.008  10.542   6.564
 9178SOL    HW229368   4.002  10.420   6.475
 9179SOL     OW29369   2.739   7.466   0.725
 9179SOL    HW129370   2.821   7.500   0.763
 9179SOL    HW229371   2.753   7.472   0.630
 9180SOL     OW29372   6.227   0.118   5.413
 9180SOL    HW129373   6.242   0.211   5.394
 9180SOL    HW229374   6.166   0.119   5.487
 9181SOL     OW29375   8.305   0.849   9.761
 9181SOL    HW129376   8.218   0.863   9.723
 9181SOL    HW229377   8.331   0.763   9.730
 9182SOL     OW29378  10.351  10.070  10.168
 9182SOL    HW129379  10.291  10.144  10.163
 9182SOL    HW229380  10.350  10.032  10.079
 9183SOL     OW29381   0.733   2.515   3.671
 9183SOL    HW129382   0.683   2.577   3.617
 9183SOL    HW229383   0.748   2.563   3.753
 9184SOL     OW29384  14.661   9.887  11.327
 9184SOL    HW129385  14.631   9.964  11.280
 9184SOL    HW229386  14.580   9.844  11.356
 9185SOL     OW29387   3.788   1.438   9.204
 9185SOL    HW129388   3.790   1.357   9.255
 9185SOL    HW229389   3.762   1.505   9.267
 9186SOL     OW29390   6.001   9.393   0.681
 9186SOL    HW129391   6.080   9.402   0.627
 9186SOL    HW229392   5.989   9.480   0.719
 9187SOL     OW29393   2.095   1.776   9.961
 9187SOL    HW129394   2.121   1.754  10.051
 9187SOL    HW229395   2.021   1.719   9.943
 9188SOL     OW29396   5.010   0.682   3.127
 9188SOL    HW129397   4.919   0.712   3.122
 9188SOL    HW229398   5.058   0.758   3.161
 9189SOL     OW29399   7.959  12.828   6.138
 9189SOL    HW129400   7.928  12.915   6.162
 9189SOL    HW229401   7.944  12.822   6.044
 9190SOL     OW29402   3.430   5.565   6.912
 9190SOL    HW129403   3.430   5.480   6.956
 9190SOL    HW229404   3.395   5.547   6.824
 9191SOL     OW29405   3.696   7.695  14.494
 9191SOL    HW129406   3.774   7.687  14.549
 9191SOL    HW229407   3.632   7.636  14.535
 9192SOL     OW29408   4.810  10.906  10.923
 9192SOL    HW129409   4.776  10.834  10.976
 9192SOL    HW229410   4.767  10.984  10.959
 9193SOL     OW29411   6.641  10.306  12.056
 9193SOL    HW129412   6.731  10.316  12.087
 9193SOL    HW229413   6.590  10.289  12.135
 9194SOL     OW29414   3.563   4.206   3.043
 9194SOL    HW129415   3.573   4.198   3.137
 9194SOL    HW229416   3.651   4.194   3.008
 9195SOL     OW29417   3.244   4.192  11.277
 9195SOL    HW129418   3.249   4.282  11.312
 9195SOL    HW229419   3.261   4.137  11.353
 9196SOL     OW29420   6.491   5.793   7.162
 9196SOL    HW129421   6.542   5.842   7.097
 9196SOL    HW229422   6.486   5.852   7.237
 9197SOL     OW29423   5.129   0.706   9.458
 9197SOL    HW129424   5.142   0.731   9.367
 9197SOL    HW229425   5.095   0.786   9.500
 9198SOL     OW29426  12.863   7.408   2.017
 9198SOL    HW129427  12.929   7.419   2.086
 9198SOL    HW229428  12.796   7.351   2.057
 9199SOL     OW29429   9.743   6.961   2.670
 9199SOL    HW129430   9.790   6.956   2.587
 9199SOL    HW229431   9.706   6.874   2.681
 9200SOL     OW29432  12.779  12.047   3.434
 9200SOL    HW129433  12.728  12.074   3.357
 9200SOL    HW229434  12.753  12.108   3.502
 9201SOL     OW29435  12.519   1.611   7.632
 9201SOL    HW129436  12.460   1.559   7.578
 9201SOL    HW229437  12.521   1.566   7.717
 9202SOL     OW29438  14.843  10.179  14.383
 9202SOL    HW129439   0.014  10.247  14.429
 9202SOL    HW229440  14.814  10.221  14.302
 9203SOL     OW29441   4.152   9.170  12.806
 9203SOL    HW129442   4.063   9.135  12.806
 9203SOL    HW229443   4.177   9.171  12.898
 9204SOL     OW29444   2.264   1.777   7.630
 9204SOL    HW129445   2.306   1.733   7.704
 9204SOL    HW229446   2.276   1.870   7.648
 9205SOL     OW29447   4.879   9.023   0.474
 9205SOL    HW129448   4.851   9.115   0.472
 9205SOL    HW229449   4.905   9.003   0.384
 9206SOL     OW29450   0.939   6.043   2.371
 9206SOL    HW129451   0.920   6.125   2.326
 9206SOL    HW229452   0.927   5.975   2.305
 9207SOL     OW29453   8.381   2.302   5.135
 9207SOL    HW129454   8.355   2.326   5.046
 9207SOL    HW229455   8.302   2.265   5.174
 9208SOL     OW29456   7.775   9.734  10.097
 9208SOL    HW129457   7.841   9.766  10.159
 9208SOL    HW229458   7.769   9.802  10.031
 9209SOL     OW29459   1.153   5.787   8.249
 9209SOL    HW129460   1.157   5.706   8.199
 9209SOL    HW229461   1.162   5.759   8.340
 9210SOL     OW29462   3.865   3.119   9.265
 9210SOL    HW129463   3.810   3.191   9.295
 9210SOL    HW229464   3.813   3.040   9.281
 9211SOL     OW29465   4.958   2.098   2.042
 9211SOL    HW129466   4.866   2.071   2.042
 9211SOL    HW229467   4.962   2.170   2.105
 9212SOL     OW29468  14.781  11.051   1.263
 9212SOL    HW129469  14.807  11.052   1.355
 9212SOL    HW229470  14.685  11.055   1.266
 9213SOL     OW29471   5.573  14.844   5.826
 9213SOL    HW129472   5.500  14.874   5.772
 9213SOL    HW229473   5.648  14.845   5.768
 9214SOL     OW29474   9.491   1.209  10.808
 9214SOL    HW129475   9.468   1.203  10.901
 9214SOL    HW229476   9.508   1.118  10.782
 9215SOL     OW29477  11.029   2.328  10.896
 9215SOL    HW129478  11.104   2.272  10.916
 9215SOL    HW229479  10.960   2.299  10.956
 9216SOL     OW29480   6.661   6.587  13.161
 9216SOL    HW129481   6.729   6.543  13.110
 9216SOL    HW229482   6.688   6.576  13.252
 9217SOL     OW29483   0.154  10.018  12.371
 9217SOL    HW129484   0.110   9.952  12.424
 9217SOL    HW229485   0.233   9.974  12.340
 9218SOL     OW29486  10.323  10.106   4.096
 9218SOL    HW129487  10.269  10.112   4.016
 9218SOL    HW229488  10.270  10.052   4.156
 9219SOL     OW29489   6.246   8.711   9.808
 9219SOL    HW129490   6.231   8.773   9.738
 9219SOL    HW229491   6.327   8.667   9.785
 9220SOL     OW29492   6.190  11.436   1.642
 9220SOL    HW129493   6.176  11.520   1.597
 9220SOL    HW229494   6.281  11.414   1.625
 9221SOL     OW29495  13.949   1.481  13.836
 9221SOL    HW129496  13.933   1.387  13.822
 9221SOL    HW229497  13.946   1.491  13.931
 9222SOL     OW29498   6.748  10.721   4.207
 9222SOL    HW129499   6.656  10.713   4.181
 9222SOL    HW229500   6.746  10.718   4.303
 9223SOL     OW29501   1.970  10.770   0.669
 9223SOL    HW129502   1.959  10.689   0.718
 9223SOL    HW229503   1.980  10.838   0.736
 9224SOL     OW29504   5.277   2.696   3.135
 9224SOL    HW129505   5.228   2.638   3.076
 9224SOL    HW229506   5.253   2.667   3.223
 9225SOL     OW29507  14.829  12.605   3.351
 9225SOL    HW129508  14.834  12.638   3.261
 9225SOL    HW229509   0.009  12.530   3.352
 9226SOL     OW29510   6.839  12.450  11.497
 9226SOL    HW129511   6.790  12.373  11.471
 9226SOL    HW229512   6.931  12.425  11.486
 9227SOL     OW29513   9.780  10.932   5.620
 9227SOL    HW129514   9.772  11.012   5.673
 9227SOL    HW229515   9.797  10.863   5.684
 9228SOL     OW29516   4.675   2.509  14.188
 9228SOL    HW129517   4.672   2.546  14.276
 9228SOL    HW229518   4.744   2.559  14.143
 9229SOL     OW29519   8.311   7.400  12.774
 9229SOL    HW129520   8.306   7.318  12.822
 9229SOL    HW229521   8.381   7.387  12.710
 9230SOL     OW29522   3.500   3.593  13.827
 9230SOL    HW129523   3.548   3.569  13.747
 9230SOL    HW229524   3.563   3.645  13.877
 9231SOL     OW29525   0.077   0.433   8.175
 9231SOL    HW129526   0.047   0.467   8.091
 9231SOL    HW229527   0.157   0.482   8.193
 9232SOL     OW29528   3.168   7.152  12.929
 9232SOL    HW129529   3.180   7.169  13.022
 9232SOL    HW229530   3.246   7.187  12.887
 9233SOL     OW29531  11.223   8.098   5.717
 9233SOL    HW129532  11.264   8.163   5.659
 9233SOL    HW229533  11.235   8.133   5.805
 9234SOL     OW29534   9.424   1.522   1.487
 9234SOL    HW129535   9.489   1.455   1.507
 9234SOL    HW229536   9.470   1.584   1.430
 9235SOL     OW29537  14.102  10.755   2.682
 9235SOL    HW129538  14.038  10.772   2.613
 9235SOL    HW229539  14.082  10.819   2.750
 9236SOL     OW29540   7.654   0.305   0.711
 9236SOL    HW129541   7.703   0.228   0.742
 9236SOL    HW229542   7.647   0.362   0.787
 9237SOL     OW29543  13.168   3.256   6.585
 9237SOL    HW129544  13.143   3.307   6.508
 9237SOL    HW229545  13.201   3.321   6.647
 9238SOL     OW29546  12.916   3.917   2.449
 9238SOL    HW129547  12.966   3.997   2.470
 9238SOL    HW229548  12.845   3.915   2.513
 9239SOL     OW29549   0.243   2.033   8.209
 9239SOL    HW129550   0.300   2.045   8.133
 9239SOL    HW229551   0.204   2.119   8.223
 9240SOL     OW29552   3.529  10.627  11.077
 9240SOL    HW129553   3.618  10.611  11.045
 9240SOL    HW229554   3.473  10.573  11.021
 9241SOL     OW29555  11.698  14.857  11.288
 9241SOL    HW129556  11.784  14.816  11.276
 9241SOL    HW229557  11.711   0.043  11.357
 9242SOL     OW29558  13.850  10.217  12.465
 9242SOL    HW129559  13.825  10.147  12.526
 9242SOL    HW229560  13.772  10.232  12.412
 9243SOL     OW29561  14.249  13.435  12.831
 9243SOL    HW129562  14.225  13.493  12.758
 9243SOL    HW229563  14.219  13.348  12.803
 9244SOL     OW29564   2.841   1.785   7.561
 9244SOL    HW129565   2.870   1.875   7.574
 9244SOL    HW229566   2.781   1.769   7.633
 9245SOL     OW29567  12.315   0.333   0.374
 9245SOL    HW129568  12.361   0.303   0.296
 9245SOL    HW229569  12.373   0.398   0.413
 9246SOL     OW29570  14.563   3.572   3.337
 9246SOL    HW129571  14.577   3.666   3.341
 9246SOL    HW229572  14.646   3.534   3.368
 9247SOL     OW29573  12.777   5.579   4.106
 9247SOL    HW129574  12.834   5.508   4.137
 9247SOL    HW229575  12.695   5.535   4.083
 9248SOL     OW29576   0.678   1.538   8.586
 9248SOL    HW129577   0.728   1.498   8.658
 9248SOL    HW229578   0.617   1.470   8.558
 9249SOL     OW29579   9.208   4.606   3.118
 9249SOL    HW129580   9.259   4.535   3.080
 9249SOL    HW229581   9.122   4.600   3.075
 9250SOL     OW29582   0.134   3.770   3.689
 9250SOL    HW129583   0.056   3.731   3.650
 9250SOL    HW229584   0.130   3.746   3.781
 9251SOL     OW29585  12.645  10.929  10.655
 9251SOL    HW129586  12.575  10.902  10.714
 9251SOL    HW229587  12.724  10.889  10.691
 9252SOL     OW29588   1.565   4.806   1.289
 9252SOL    HW129589   1.571   4.764   1.375
 9252SOL    HW229590   1.648   4.854   1.280
 9253SOL     OW29591   6.104  12.863   7.720
 9253SOL    HW129592   6.108  12.839   7.813
 9253SOL    HW229593   6.183  12.825   7.682
 9254SOL     OW29594   5.769   2.423   7.539
 9254SOL    HW129595   5.833   2.494   7.550
 9254SOL    HW229596   5.717   2.426   7.619
 9255SOL     OW29597   1.203   8.188   5.281
 9255SOL    HW129598   1.270   8.250   5.251
 9255SOL    HW229599   1.228   8.168   5.371
 9256SOL     OW29600  13.201   1.629  13.966
 9256SOL    HW129601  13.187   1.718  13.996
 9256SOL    HW229602  13.205   1.636  13.870
 9257SOL     OW29603  14.255  14.754   6.290
 9257SOL    HW129604  14.224  14.841   6.318
 9257SOL    HW229605  14.216  14.741   6.204
 9258SOL     OW29606   0.753   0.265  11.267
 9258SOL    HW129607   0.769   0.182  11.312
 9258SOL    HW229608   0.717   0.323  11.334
 9259SOL     OW29609   0.622   8.543   3.786
 9259SOL    HW129610   0.585   8.567   3.870
 9259SOL    HW229611   0.569   8.469   3.756
 9260SOL     OW29612  12.379   9.774   1.102
 9260SOL    HW129613  12.467   9.766   1.065
 9260SOL    HW229614  12.348   9.683   1.108
 9261SOL     OW29615   4.383  14.707  13.420
 9261SOL    HW129616   4.292  14.724  13.443
 9261SOL    HW229617   4.415  14.790  13.386
 9262SOL     OW29618   5.022  10.328   4.747
 9262SOL    HW129619   4.989  10.279   4.822
 9262SOL    HW229620   4.945  10.348   4.695
 9263SOL     OW29621   5.891   8.344  13.404
 9263SOL    HW129622   5.872   8.424  13.453
 9263SOL    HW229623   5.828   8.280  13.437
 9264SOL     OW29624   2.341  10.254   2.351
 9264SOL    HW129625   2.419  10.301   2.323
 9264SOL    HW229626   2.371  10.165   2.368
 9265SOL     OW29627   1.088   9.280   5.144
 9265SOL    HW129628   1.175   9.319   5.136
 9265SOL    HW229629   1.105   9.193   5.182
 9266SOL     OW29630  14.786   3.532   5.893
 9266SOL    HW129631  14.827   3.505   5.976
 9266SOL    HW229632  14.705   3.482   5.889
 9267SOL     OW29633  14.479  14.290   8.845
 9267SOL    HW129634  14.438  14.362   8.798
 9267SOL    HW229635  14.559  14.272   8.796
 9268SOL     OW29636  11.023   7.569  11.434
 9268SOL    HW129637  10.972   7.488  11.447
 9268SOL    HW229638  10.988   7.606  11.354
 9269SOL     OW29639   0.544   8.030   2.840
 9269SOL    HW129640   0.503   8.112   2.869
 9269SOL    HW229641   0.595   8.055   2.763
 9270SOL     OW29642  10.253  13.905   4.609
 9270SOL    HW129643  10.329  13.915   4.552
 9270SOL    HW229644  10.191  13.852   4.559
 9271SOL     OW29645   2.506   6.088  10.985
 9271SOL    HW129646   2.588   6.058  10.946
 9271SOL    HW229647   2.440   6.029  10.948
 9272SOL     OW29648   5.204  10.054  10.005
 9272SOL    HW129649   5.156  10.126   9.963
 9272SOL    HW229650   5.141   9.982  10.009
 9273SOL     OW29651   0.790   7.489  13.760
 9273SOL    HW129652   0.787   7.470  13.854
 9273SOL    HW229653   0.769   7.582  13.754
 9274SOL     OW29654   8.040   2.255  10.976
 9274SOL    HW129655   7.954   2.266  11.017
 9274SOL    HW229656   8.076   2.177  11.016
 9275SOL     OW29657   0.658  12.569  12.492
 9275SOL    HW129658   0.637  12.651  12.537
 9275SOL    HW229659   0.582  12.551  12.438
 9276SOL     OW29660   1.694  14.156   7.357
 9276SOL    HW129661   1.665  14.237   7.315
 9276SOL    HW229662   1.720  14.182   7.445
 9277SOL     OW29663   5.328  13.617   6.758
 9277SOL    HW129664   5.344  13.528   6.789
 9277SOL    HW229665   5.328  13.670   6.838
 9278SOL     OW29666   7.980  14.395   8.067
 9278SOL    HW129667   8.020  14.481   8.056
 9278SOL    HW229668   7.925  14.384   7.989
 9279SOL     OW29669   6.342   6.481  10.129
 9279SOL    HW129670   6.302   6.541  10.067
 9279SOL    HW229671   6.410   6.532  10.172
 9280SOL     OW29672  11.378  10.957   9.573
 9280SOL    HW129673  11.298  10.912   9.597
 9280SOL    HW229674  11.383  11.032   9.632
 9281SOL     OW29675   7.913   5.071   6.233
 9281SOL    HW129676   7.825   5.105   6.248
 9281SOL    HW229677   7.927   5.079   6.138
 9282SOL     OW29678   0.181   2.753  12.389
 9282SOL    HW129679   0.169   2.716  12.302
 9282SOL    HW229680   0.276   2.756  12.401
 9283SOL     OW29681   1.392   2.011   7.815
 9283SOL    HW129682   1.455   2.064   7.766
 9283SOL    HW229683   1.353   2.072   7.877
 9284SOL     OW29684  10.668   4.125   5.760
 9284SOL    HW129685  10.675   4.095   5.851
 9284SOL    HW229686  10.662   4.044   5.709
 9285SOL     OW29687   0.048   2.755   5.205
 9285SOL    HW129688   0.097   2.821   5.157
 9285SOL    HW229689  14.844   2.798   5.227
 9286SOL     OW29690   8.833  10.267   3.983
 9286SOL    HW129691   8.922  10.236   3.968
 9286SOL    HW229692   8.799  10.288   3.896
 9287SOL     OW29693   1.317   7.582  14.275
 9287SOL    HW129694   1.392   7.616  14.225
 9287SOL    HW229695   1.251   7.651  14.270
 9288SOL     OW29696   8.671  14.015   3.213
 9288SOL    HW129697   8.744  14.074   3.194
 9288SOL    HW229698   8.708  13.928   3.206
 9289SOL     OW29699  10.026  10.759   9.677
 9289SOL    HW129700  10.019  10.740   9.770
 9289SOL    HW229701   9.947  10.722   9.639
 9290SOL     OW29702   6.861   1.806  13.602
 9290SOL    HW129703   6.770   1.797  13.629
 9290SOL    HW229704   6.883   1.721  13.562
 9291SOL     OW29705   6.116   7.610  13.464
 9291SOL    HW129706   6.141   7.520  13.482
 9291SOL    HW229707   6.042   7.627  13.522
 9292SOL     OW29708   8.670   4.135  13.895
 9292SOL    HW129709   8.604   4.089  13.946
 9292SOL    HW229710   8.747   4.138  13.952
 9293SOL     OW29711   3.141   3.537   0.098
 9293SOL    HW129712   3.051   3.559   0.123
 9293SOL    HW229713   3.132   3.478   0.024
 9294SOL     OW29714   5.191   4.151  14.859
 9294SOL    HW129715   5.284   4.138  14.841
 9294SOL    HW229716   5.188   4.228   0.037
 9295SOL     OW29717  10.729   2.130   4.444
 9295SOL    HW129718  10.745   2.224   4.444
 9295SOL    HW229719  10.725   2.106   4.536
 9296SOL     OW29720   0.376   6.359   8.668
 9296SOL    HW129721   0.335   6.424   8.726
 9296SOL    HW229722   0.426   6.302   8.726
 9297SOL     OW29723   7.757   1.945   3.220
 9297SOL    HW129724   7.853   1.948   3.223
 9297SOL    HW229725   7.737   1.899   3.139
 9298SOL     OW29726   4.849   7.515   1.327
 9298SOL    HW129727   4.788   7.585   1.350
 9298SOL    HW229728   4.885   7.485   1.410
 9299SOL     OW29729   7.917   7.009   0.170
 9299SOL    HW129730   7.952   7.077   0.228
 9299SOL    HW229731   7.954   6.927   0.204
 9300SOL     OW29732  13.227   8.808  14.047
 9300SOL    HW129733  13.151   8.861  14.020
 9300SOL    HW229734  13.303   8.862  14.026
 9301SOL     OW29735   3.765   1.050   7.675
 9301SOL    HW129736   3.674   1.062   7.648
 9301SOL    HW229737   3.773   0.956   7.692
 9302SOL     OW29738   6.311  13.124  10.756
 9302SOL    HW129739   6.346  13.175  10.829
 9302SOL    HW229740   6.221  13.105  10.782
 9303SOL     OW29741  13.769   7.986   1.494
 9303SOL    HW129742  13.780   7.892   1.489
 9303SOL    HW229743  13.797   8.018   1.408
 9304SOL     OW29744   9.953  12.993   8.171
 9304SOL    HW129745  10.022  13.012   8.234
 9304SOL    HW229746   9.941  13.074   8.122
 9305SOL     OW29747  11.211  12.913  12.496
 9305SOL    HW129748  11.249  12.905  12.583
 9305SOL    HW229749  11.116  12.908  12.510
 9306SOL     OW29750   1.430   1.453   2.682
 9306SOL    HW129751   1.436   1.549   2.684
 9306SOL    HW229752   1.463   1.425   2.767
 9307SOL     OW29753   0.205  12.483   8.586
 9307SOL    HW129754   0.248  12.557   8.629
 9307SOL    HW229755   0.274  12.440   8.536
 9308SOL     OW29756   9.773   3.600  11.265
 9308SOL    HW129757   9.858   3.597  11.221
 9308SOL    HW229758   9.773   3.685  11.311
 9309SOL     OW29759   1.818   7.578  10.179
 9309SOL    HW129760   1.797   7.541  10.092
 9309SOL    HW229761   1.845   7.668  10.161
 9310SOL     OW29762   6.953   0.242  14.413
 9310SOL    HW129763   6.983   0.219  14.325
 9310SOL    HW229764   6.993   0.177  14.470
 9311SOL     OW29765   9.475  11.582  12.732
 9311SOL    HW129766   9.455  11.500  12.688
 9311SOL    HW229767   9.477  11.647  12.662
 9312SOL     OW29768   8.302  13.372   6.012
 9312SOL    HW129769   8.343  13.459   6.012
 9312SOL    HW229770   8.259  13.366   5.927
 9313SOL     OW29771   6.494  10.325  10.570
 9313SOL    HW129772   6.425  10.268  10.605
 9313SOL    HW229773   6.487  10.405  10.623
 9314SOL     OW29774   6.298   4.772   8.729
 9314SOL    HW129775   6.231   4.716   8.692
 9314SOL    HW229776   6.310   4.842   8.665
 9315SOL     OW29777  11.788   5.170   8.656
 9315SOL    HW129778  11.797   5.209   8.569
 9315SOL    HW229779  11.763   5.243   8.712
 9316SOL     OW29780  11.403   8.084   6.792
 9316SOL    HW129781  11.311   8.102   6.771
 9316SOL    HW229782  11.452   8.149   6.742
 9317SOL     OW29783  10.285   1.181  13.837
 9317SOL    HW129784  10.247   1.267  13.820
 9317SOL    HW229785  10.319   1.187  13.927
 9318SOL     OW29786  13.281   7.841  11.396
 9318SOL    HW129787  13.341   7.907  11.431
 9318SOL    HW229788  13.337   7.769  11.369
 9319SOL     OW29789   6.224   4.774   5.066
 9319SOL    HW129790   6.226   4.729   5.150
 9319SOL    HW229791   6.315   4.801   5.050
 9320SOL     OW29792  13.358   3.721   6.285
 9320SOL    HW129793  13.361   3.629   6.308
 9320SOL    HW229794  13.448   3.751   6.291
 9321SOL     OW29795   1.771   9.411   7.337
 9321SOL    HW129796   1.835   9.362   7.389
 9321SOL    HW229797   1.755   9.357   7.260
 9322SOL     OW29798  13.318   1.226  10.516
 9322SOL    HW129799  13.236   1.211  10.469
 9322SOL    HW229800  13.350   1.310  10.482
 9323SOL     OW29801   1.312   0.004   1.288
 9323SOL    HW129802   1.260   0.072   1.245
 9323SOL    HW229803   1.266  14.867   1.371
 9324SOL     OW29804   3.754   2.678   4.153
 9324SOL    HW129805   3.722   2.588   4.161
 9324SOL    HW229806   3.833   2.671   4.100
 9325SOL     OW29807  12.613   6.326  11.845
 9325SOL    HW129808  12.573   6.411  11.864
 9325SOL    HW229809  12.645   6.295  11.930
 9326SOL     OW29810  10.982  12.260   0.233
 9326SOL    HW129811  11.040  12.240   0.160
 9326SOL    HW229812  10.914  12.316   0.195
 9327SOL     OW29813   0.713   4.477   0.833
 9327SOL    HW129814   0.639   4.514   0.882
 9327SOL    HW229815   0.746   4.550   0.781
 9328SOL     OW29816  11.337   6.762   8.920
 9328SOL    HW129817  11.315   6.849   8.886
 9328SOL    HW229818  11.253   6.717   8.927
 9329SOL     OW29819   6.184  14.504  10.307
 9329SOL    HW129820   6.162  14.444  10.236
 9329SOL    HW229821   6.269  14.540  10.283
 9330SOL     OW29822  11.757  10.679   2.790
 9330SOL    HW129823  11.780  10.586   2.783
 9330SOL    HW229824  11.671  10.680   2.830
 9331SOL     OW29825  12.939   6.389  12.443
 9331SOL    HW129826  12.875   6.455  12.416
 9331SOL    HW229827  13.010   6.397  12.380
 9332SOL     OW29828  10.865  13.501   0.564
 9332SOL    HW129829  10.942  13.459   0.525
 9332SOL    HW229830  10.886  13.595   0.564
 9333SOL     OW29831   1.330   5.395  14.299
 9333SOL    HW129832   1.344   5.359  14.387
 9333SOL    HW229833   1.336   5.319  14.241
 9334SOL     OW29834  13.668  14.680   0.273
 9334SOL    HW129835  13.618  14.619   0.327
 9334SOL    HW229836  13.661  14.764   0.319
 9335SOL     OW29837  10.233   7.801   0.447
 9335SOL    HW129838  10.177   7.792   0.369
 9335SOL    HW229839  10.317   7.765   0.420
 9336SOL     OW29840   5.098   0.555   8.574
 9336SOL    HW129841   5.118   0.491   8.505
 9336SOL    HW229842   5.184   0.583   8.606
 9337SOL     OW29843  13.857   5.909  13.675
 9337SOL    HW129844  13.823   5.925  13.587
 9337SOL    HW229845  13.814   5.829  13.703
 9338SOL     OW29846  10.485   6.784  11.744
 9338SOL    HW129847  10.551   6.853  11.752
 9338SOL    HW229848  10.535   6.703  11.759
 9339SOL     OW29849  12.258   0.101   2.177
 9339SOL    HW129850  12.273   0.134   2.266
 9339SOL    HW229851  12.338   0.053   2.156
 9340SOL     OW29852   0.279   6.562   9.369
 9340SOL    HW129853   0.224   6.532   9.441
 9340SOL    HW229854   0.226   6.629   9.325
 9341SOL     OW29855   7.624  10.913   8.002
 9341SOL    HW129856   7.562  10.845   7.974
 9341SOL    HW229857   7.600  10.990   7.949
 9342SOL     OW29858   9.925  14.555   0.529
 9342SOL    HW129859   9.977  14.475   0.520
 9342SOL    HW229860   9.842  14.535   0.486
 9343SOL     OW29861   1.906  10.182   9.359
 9343SOL    HW129862   1.828  10.155   9.310
 9343SOL    HW229863   1.960  10.227   9.294
 9344SOL     OW29864  12.450   7.412   4.279
 9344SOL    HW129865  12.411   7.373   4.201
 9344SOL    HW229866  12.485   7.338   4.329
 9345SOL     OW29867   4.187   4.937   7.253
 9345SOL    HW129868   4.115   4.905   7.307
 9345SOL    HW229869   4.163   5.028   7.232
 9346SOL     OW29870   2.304   2.362   7.887
 9346SOL    HW129871   2.387   2.372   7.841
 9346SOL    HW229872   2.302   2.271   7.914
 9347SOL     OW29873   8.348   3.961   6.316
 9347SOL    HW129874   8.440   3.977   6.338
 9347SOL    HW229875   8.304   4.044   6.334
 9348SOL     OW29876  13.495   7.031   0.022
 9348SOL    HW129877  13.467   7.120   0.002
 9348SOL    HW229878  13.415   6.987   0.050
 9349SOL     OW29879   2.957   5.127   6.112
 9349SOL    HW129880   2.866   5.130   6.139
 9349SOL    HW229881   2.958   5.172   6.027
 9350SOL     OW29882  14.378   1.150   7.972
 9350SOL    HW129883  14.375   1.141   7.877
 9350SOL    HW229884  14.443   1.085   8.000
 9351SOL     OW29885   2.920   1.623   7.021
 9351SOL    HW129886   2.921   1.619   7.117
 9351SOL    HW229887   2.942   1.535   6.992
 9352SOL     OW29888   0.517  12.595   7.153
 9352SOL    HW129889   0.575  12.667   7.127
 9352SOL    HW229890   0.493  12.616   7.243
 9353SOL     OW29891   6.871  11.768   5.050
 9353SOL    HW129892   6.897  11.677   5.063
 9353SOL    HW229893   6.896  11.787   4.959
 9354SOL     OW29894   3.350   2.035   9.143
 9354SOL    HW129895   3.335   2.076   9.057
 9354SOL    HW229896   3.371   2.109   9.201
 9355SOL     OW29897  12.790   9.644   9.636
 9355SOL    HW129898  12.860   9.603   9.586
 9355SOL    HW229899  12.805   9.738   9.627
 9356SOL     OW29900   2.058  12.881   6.867
 9356SOL    HW129901   2.069  12.976   6.856
 9356SOL    HW229902   2.147  12.846   6.866
 9357SOL     OW29903   0.727   7.514   3.841
 9357SOL    HW129904   0.820   7.513   3.818
 9357SOL    HW229905   0.727   7.529   3.936
 9358SOL     OW29906  13.450   8.897   1.925
 9358SOL    HW129907  13.418   8.925   2.011
 9358SOL    HW229908  13.506   8.821   1.944
 9359SOL     OW29909   5.332  11.569   8.310
 9359SOL    HW129910   5.379  11.506   8.255
 9359SOL    HW229911   5.315  11.643   8.252
 9360SOL     OW29912   0.437   4.456   1.735
 9360SOL    HW129913   0.342   4.468   1.736
 9360SOL    HW229914   0.468   4.515   1.666
 9361SOL     OW29915   9.885   5.871   6.899
 9361SOL    HW129916   9.830   5.816   6.955
 9361SOL    HW229917   9.972   5.867   6.939
 9362SOL     OW29918   1.330   2.420   0.241
 9362SOL    HW129919   1.410   2.468   0.218
 9362SOL    HW229920   1.262   2.459   0.185
 9363SOL     OW29921   4.088   0.877  13.925
 9363SOL    HW129922   4.118   0.883  13.835
 9363SOL    HW229923   4.168   0.873  13.977
 9364SOL     OW29924  12.584   1.683  11.477
 9364SOL    HW129925  12.679   1.684  11.494
 9364SOL    HW229926  12.576   1.711  11.386
 9365SOL     OW29927  11.578   5.485   2.832
 9365SOL    HW129928  11.617   5.457   2.749
 9365SOL    HW229929  11.536   5.569   2.813
 9366SOL     OW29930   4.242   5.440  12.736
 9366SOL    HW129931   4.248   5.494  12.657
 9366SOL    HW229932   4.155   5.459  12.771
 9367SOL     OW29933   9.149   6.039   5.399
 9367SOL    HW129934   9.060   6.012   5.422
 9367SOL    HW229935   9.180   6.089   5.475
 9368SOL     OW29936   2.661   1.613   9.700
 9368SOL    HW129937   2.640   1.637   9.610
 9368SOL    HW229938   2.689   1.521   9.694
 9369SOL     OW29939   2.717   0.557  10.814
 9369SOL    HW129940   2.759   0.641  10.794
 9369SOL    HW229941   2.784   0.492  10.793
 9370SOL     OW29942   1.360  13.070  11.932
 9370SOL    HW129943   1.449  13.071  11.968
 9370SOL    HW229944   1.304  13.090  12.007
 9371SOL     OW29945   3.157  11.734   4.934
 9371SOL    HW129946   3.126  11.652   4.973
 9371SOL    HW229947   3.252  11.722   4.927
 9372SOL     OW29948   4.484  11.730  13.386
 9372SOL    HW129949   4.397  11.760  13.411
 9372SOL    HW229950   4.496  11.647  13.433
 9373SOL     OW29951  13.154  10.688   9.153
 9373SOL    HW129952  13.201  10.769   9.171
 9373SOL    HW229953  13.215  10.619   9.176
 9374SOL     OW29954   9.253  12.891   6.499
 9374SOL    HW129955   9.223  12.972   6.458
 9374SOL    HW229956   9.193  12.824   6.467
 9375SOL     OW29957   3.738   6.776   0.125
 9375SOL    HW129958   3.688   6.827   0.062
 9375SOL    HW229959   3.698   6.689   0.124
 9376SOL     OW29960  14.864   1.694   8.358
 9376SOL    HW129961  14.771   1.676   8.375
 9376SOL    HW229962   0.031   1.619   8.395
 9377SOL     OW29963  10.280   8.063   8.283
 9377SOL    HW129964  10.234   8.058   8.367
 9377SOL    HW229965  10.373   8.063   8.306
 9378SOL     OW29966   0.453  12.347  12.908
 9378SOL    HW129967   0.409  12.391  12.836
 9378SOL    HW229968   0.541  12.328  12.874
 9379SOL     OW29969   0.723   5.092   0.903
 9379SOL    HW129970   0.801   5.093   0.959
 9379SOL    HW229971   0.742   5.158   0.836
 9380SOL     OW29972   8.358   9.201  11.499
 9380SOL    HW129973   8.315   9.207  11.413
 9380SOL    HW229974   8.357   9.290  11.533
 9381SOL     OW29975  10.375   5.338   6.477
 9381SOL    HW129976  10.354   5.342   6.384
 9381SOL    HW229977  10.316   5.272   6.513
 9382SOL     OW29978   0.459   8.663   2.297
 9382SOL    HW129979   0.416   8.579   2.316
 9382SOL    HW229980   0.396   8.711   2.243
 9383SOL     OW29981   0.890  10.556   6.100
 9383SOL    HW129982   0.943  10.569   6.179
 9383SOL    HW229983   0.918  10.471   6.066
 9384SOL     OW29984  14.363   9.647   6.535
 9384SOL    HW129985  14.434   9.687   6.485
 9384SOL    HW229986  14.283   9.686   6.498
 9385SOL     OW29987  10.371  10.468   8.791
 9385SOL    HW129988  10.378  10.533   8.861
 9385SOL    HW229989  10.289  10.489   8.747
 9386SOL     OW29990   5.256   7.390   9.812
 9386SOL    HW129991   5.292   7.303   9.793
 9386SOL    HW229992   5.196   7.376   9.885
 9387SOL     OW29993  11.678   6.976  10.546
 9387SOL    HW129994  11.691   7.048  10.608
 9387SOL    HW229995  11.591   6.942  10.566
 9388SOL     OW29996  13.316  13.049   3.391
 9388SOL    HW129997  13.318  13.058   3.486
 9388SOL    HW229998  13.242  12.991   3.373
 9389SOL     OW29999   3.099   8.647  12.714
 9389SOL    HW130000   3.050   8.649  12.632
 9389SOL    HW230001   3.074   8.565  12.755
 9390SOL     OW30002   9.834   8.163   2.313
 9390SOL    HW130003   9.909   8.125   2.268
 9390SOL    HW230004   9.864   8.176   2.403
 9391SOL     OW30005   3.943   6.195   8.410
 9391SOL    HW130006   3.971   6.286   8.413
 9391SOL    HW230007   3.915   6.175   8.500
 9392SOL     OW30008   6.910  13.096  11.013
 9392SOL    HW130009   6.861  13.017  10.990
 9392SOL    HW230010   6.875  13.123  11.098
 9393SOL     OW30011   4.477   8.821   2.190
 9393SOL    HW130012   4.433   8.760   2.250
 9393SOL    HW230013   4.567   8.824   2.222
 9394SOL     OW30014   6.610  14.860   6.881
 9394SOL    HW130015   6.658  14.855   6.964
 9394SOL    HW230016   6.519  14.872   6.907
 9395SOL     OW30017  11.315   8.494  14.779
 9395SOL    HW130018  11.248   8.428  14.760
 9395SOL    HW230019  11.392   8.443  14.804
 9396SOL     OW30020  11.830  14.675   6.815
 9396SOL    HW130021  11.735  14.686   6.811
 9396SOL    HW230022  11.852  14.696   6.906
 9397SOL     OW30023   3.087   2.542   1.271
 9397SOL    HW130024   3.111   2.463   1.319
 9397SOL    HW230025   3.154   2.606   1.294
 9398SOL     OW30026   3.380  10.857  10.711
 9398SOL    HW130027   3.374  10.762  10.718
 9398SOL    HW230028   3.413  10.873  10.622
 9399SOL     OW30029   1.788  10.789  12.659
 9399SOL    HW130030   1.844  10.805  12.735
 9399SOL    HW230031   1.781  10.875  12.617
 9400SOL     OW30032   6.357   2.075   3.760
 9400SOL    HW130033   6.340   1.982   3.744
 9400SOL    HW230034   6.286   2.103   3.818
 9401SOL     OW30035   6.094   3.921  14.454
 9401SOL    HW130036   6.185   3.893  14.446
 9401SOL    HW230037   6.047   3.842  14.482
 9402SOL     OW30038  11.661   2.240   4.898
 9402SOL    HW130039  11.703   2.269   4.817
 9402SOL    HW230040  11.571   2.270   4.890
 9403SOL     OW30041  11.684  12.890   8.968
 9403SOL    HW130042  11.654  12.978   8.991
 9403SOL    HW230043  11.765  12.880   9.017
 9404SOL     OW30044   9.534  14.147   5.881
 9404SOL    HW130045   9.495  14.119   5.799
 9404SOL    HW230046   9.591  14.074   5.907
 9405SOL     OW30047  11.854   1.150   9.492
 9405SOL    HW130048  11.830   1.088   9.562
 9405SOL    HW230049  11.870   1.095   9.416
 9406SOL     OW30050   5.844   5.970   6.456
 9406SOL    HW130051   5.763   5.976   6.407
 9406SOL    HW230052   5.874   6.060   6.466
 9407SOL     OW30053  13.651   4.799   1.780
 9407SOL    HW130054  13.687   4.736   1.843
 9407SOL    HW230055  13.572   4.833   1.823
 9408SOL     OW30056  10.696   7.992   0.930
 9408SOL    HW130057  10.714   7.993   1.024
 9408SOL    HW230058  10.627   7.927   0.920
 9409SOL     OW30059   2.801  13.255   5.549
 9409SOL    HW130060   2.830  13.225   5.635
 9409SOL    HW230061   2.802  13.176   5.495
 9410SOL     OW30062   3.403   4.924   8.510
 9410SOL    HW130063   3.403   4.952   8.602
 9410SOL    HW230064   3.492   4.893   8.495
 9411SOL     OW30065   4.551   2.402   6.827
 9411SOL    HW130066   4.499   2.426   6.904
 9411SOL    HW230067   4.631   2.454   6.835
 9412SOL     OW30068   2.702   8.546   6.241
 9412SOL    HW130069   2.624   8.579   6.285
 9412SOL    HW230070   2.773   8.558   6.304
 9413SOL     OW30071  12.300   1.358   5.733
 9413SOL    HW130072  12.259   1.326   5.652
 9413SOL    HW230073  12.393   1.336   5.723
 9414SOL     OW30074  10.992   2.190   1.116
 9414SOL    HW130075  10.937   2.181   1.194
 9414SOL    HW230076  10.936   2.165   1.043
 9415SOL     OW30077   5.004   5.289   2.166
 9415SOL    HW130078   4.925   5.236   2.166
 9415SOL    HW230079   5.014   5.318   2.075
 9416SOL     OW30080   3.684  10.614   9.993
 9416SOL    HW130081   3.633  10.687  10.028
 9416SOL    HW230082   3.641  10.536  10.027
 9417SOL     OW30083  14.295  14.606   4.399
 9417SOL    HW130084  14.365  14.548   4.430
 9417SOL    HW230085  14.259  14.644   4.479
 9418SOL     OW30086  12.332   7.243  11.427
 9418SOL    HW130087  12.390   7.269  11.355
 9418SOL    HW230088  12.328   7.147  11.420
 9419SOL     OW30089  10.008   0.127   9.756
 9419SOL    HW130090   9.932   0.069   9.749
 9419SOL    HW230091   9.970   0.213   9.772
 9420SOL     OW30092   2.453   0.929   2.084
 9420SOL    HW130093   2.542   0.902   2.063
 9420SOL    HW230094   2.421   0.971   2.004
 9421SOL     OW30095   4.298   2.593  14.264
 9421SOL    HW130096   4.349   2.606  14.183
 9421SOL    HW230097   4.269   2.681  14.288
 9422SOL     OW30098   4.840   3.181   1.235
 9422SOL    HW130099   4.887   3.246   1.286
 9422SOL    HW230100   4.904   3.151   1.170
 9423SOL     OW30101  11.369   8.090   8.271
 9423SOL    HW130102  11.286   8.123   8.235
 9423SOL    HW230103  11.421   8.169   8.286
 9424SOL     OW30104  11.171   9.781  11.960
 9424SOL    HW130105  11.149   9.873  11.973
 9424SOL    HW230106  11.161   9.767  11.865
 9425SOL     OW30107   9.968   8.363  13.272
 9425SOL    HW130108   9.900   8.339  13.210
 9425SOL    HW230109  10.010   8.440  13.233
 9426SOL     OW30110  14.023   1.709  11.486
 9426SOL    HW130111  13.989   1.736  11.401
 9426SOL    HW230112  14.055   1.790  11.525
 9427SOL     OW30113   1.918  11.623   5.806
 9427SOL    HW130114   1.831  11.584   5.811
 9427SOL    HW230115   1.907  11.712   5.838
 9428SOL     OW30116   9.255  10.739   9.198
 9428SOL    HW130117   9.310  10.704   9.267
 9428SOL    HW230118   9.239  10.664   9.140
 9429SOL     OW30119   4.315   6.039  12.148
 9429SOL    HW130120   4.376   6.042  12.221
 9429SOL    HW230121   4.232   6.069  12.184
 9430SOL     OW30122   8.014   7.586   5.803
 9430SOL    HW130123   8.024   7.491   5.810
 9430SOL    HW230124   7.930   7.598   5.758
 9431SOL     OW30125  11.234   0.059  11.142
 9431SOL    HW130126  11.262   0.070  11.051
 9431SOL    HW230127  11.184  14.857  11.143
 9432SOL     OW30128   5.187   0.364  12.330
 9432SOL    HW130129   5.268   0.313  12.336
 9432SOL    HW230130   5.125   0.319  12.386
 9433SOL     OW30131   4.148   2.790   8.596
 9433SOL    HW130132   4.223   2.732   8.605
 9433SOL    HW230133   4.134   2.825   8.684
 9434SOL     OW30134   5.997  14.610   8.594
 9434SOL    HW130135   6.046  14.692   8.592
 9434SOL    HW230136   6.058  14.547   8.633
 9435SOL     OW30137   9.978   4.357   1.272
 9435SOL    HW130138   9.960   4.281   1.217
 9435SOL    HW230139   9.975   4.324   1.361
 9436SOL     OW30140   5.168   0.884   7.849
 9436SOL    HW130141   5.171   0.969   7.893
 9436SOL    HW230142   5.244   0.884   7.791
 9437SOL     OW30143   0.094   8.893  11.380
 9437SOL    HW130144   0.108   8.805  11.346
 9437SOL    HW230145   0.132   8.893  11.467
 9438SOL     OW30146   6.417   0.595  10.831
 9438SOL    HW130147   6.412   0.517  10.775
 9438SOL    HW230148   6.503   0.589  10.873
 9439SOL     OW30149   8.459  10.514  10.624
 9439SOL    HW130150   8.492  10.446  10.682
 9439SOL    HW230151   8.372  10.535  10.659
 9440SOL     OW30152   7.701   2.600   3.934
 9440SOL    HW130153   7.786   2.645   3.944
 9440SOL    HW230154   7.717   2.533   3.867
 9441SOL     OW30155  10.067  10.244   8.784
 9441SOL    HW130156   9.976  10.232   8.812
 9441SOL    HW230157  10.064  10.318   8.724
 9442SOL     OW30158   7.634  11.734   3.314
 9442SOL    HW130159   7.592  11.650   3.334
 9442SOL    HW230160   7.634  11.782   3.397
 9443SOL     OW30161   7.199  13.394   5.231
 9443SOL    HW130162   7.258  13.446   5.176
 9443SOL    HW230163   7.210  13.430   5.319
 9444SOL     OW30164  10.771  11.536  10.968
 9444SOL    HW130165  10.834  11.466  10.988
 9444SOL    HW230166  10.692  11.512  11.017
 9445SOL     OW30167   8.521  14.614  13.302
 9445SOL    HW130168   8.573  14.538  13.272
 9445SOL    HW230169   8.499  14.660  13.222
 9446SOL     OW30170  14.599  12.628   2.250
 9446SOL    HW130171  14.540  12.553   2.259
 9446SOL    HW230172  14.608  12.639   2.155
 9447SOL     OW30173  13.492   6.285   5.982
 9447SOL    HW130174  13.523   6.253   6.067
 9447SOL    HW230175  13.567   6.277   5.924
 9448SOL     OW30176   6.417   2.027   4.465
 9448SOL    HW130177   6.338   2.053   4.512
 9448SOL    HW230178   6.489   2.063   4.517
 9449SOL     OW30179   8.962   8.372   9.943
 9449SOL    HW130180   9.013   8.408  10.016
 9449SOL    HW230181   8.986   8.425   9.868
 9450SOL     OW30182   4.456  10.748   3.924
 9450SOL    HW130183   4.497  10.674   3.880
 9450SOL    HW230184   4.405  10.791   3.855
 9451SOL     OW30185   3.545   2.804   3.809
 9451SOL    HW130186   3.485   2.757   3.867
 9451SOL    HW230187   3.502   2.802   3.723
 9452SOL     OW30188   5.660  11.916  14.111
 9452SOL    HW130189   5.721  11.857  14.066
 9452SOL    HW230190   5.586  11.861  14.134
 9453SOL     OW30191   9.945  13.423   5.001
 9453SOL    HW130192  10.005  13.477   5.053
 9453SOL    HW230193   9.911  13.482   4.934
 9454SOL     OW30194  10.506   9.970  10.933
 9454SOL    HW130195  10.526  10.025  11.009
 9454SOL    HW230196  10.588   9.924  10.915
 9455SOL     OW30197  10.277   3.924   3.187
 9455SOL    HW130198  10.250   3.924   3.095
 9455SOL    HW230199  10.317   3.838   3.200
 9456SOL     OW30200   8.074   9.816  13.499
 9456SOL    HW130201   8.037   9.743  13.449
 9456SOL    HW230202   7.998   9.855  13.542
 9457SOL     OW30203  13.172   7.887  11.144
 9457SOL    HW130204  13.242   7.885  11.079
 9457SOL    HW230205  13.215   7.865  11.227
 9458SOL     OW30206   3.007   8.995  11.464
 9458SOL    HW130207   3.060   8.933  11.514
 9458SOL    HW230208   2.936   9.020  11.524
 9459SOL     OW30209   5.680   8.496   4.164
 9459SOL    HW130210   5.618   8.455   4.224
 9459SOL    HW230211   5.764   8.457   4.186
 9460SOL     OW30212   4.124  13.595   5.125
 9460SOL    HW130213   4.043  13.569   5.082
 9460SOL    HW230214   4.133  13.688   5.104
 9461SOL     OW30215   0.298  14.120   0.364
 9461SOL    HW130216   0.262  14.068   0.292
 9461SOL    HW230217   0.377  14.159   0.328
 9462SOL     OW30218   7.589  13.382  13.247
 9462SOL    HW130219   7.575  13.443  13.175
 9462SOL    HW230220   7.511  13.392  13.302
 9463SOL     OW30221   7.165   5.422  11.145
 9463SOL    HW130222   7.258   5.406  11.164
 9463SOL    HW230223   7.167   5.479  11.068
 9464SOL     OW30224   4.738   5.840  11.321
 9464SOL    HW130225   4.696   5.897  11.257
 9464SOL    HW230226   4.809   5.798  11.273
 9465SOL     OW30227  13.948  14.656  10.920
 9465SOL    HW130228  13.935  14.745  10.951
 9465SOL    HW230229  13.874  14.607  10.955
 9466SOL     OW30230   3.174  14.875  14.613
 9466SOL    HW130231   3.117   0.001  14.690
 9466SOL    HW230232   3.250   0.050  14.636
 9467SOL     OW30233  12.825   2.002   5.080
 9467SOL    HW130234  12.752   1.970   5.134
 9467SOL    HW230235  12.881   1.925   5.067
 9468SOL     OW30236   3.594   4.081  10.400
 9468SOL    HW130237   3.658   4.127  10.346
 9468SOL    HW230238   3.561   4.148  10.460
 9469SOL     OW30239   3.734   3.236  14.438
 9469SOL    HW130240   3.680   3.255  14.361
 9469SOL    HW230241   3.673   3.202  14.503
 9470SOL     OW30242   0.985   3.050   9.811
 9470SOL    HW130243   1.052   2.993   9.850
 9470SOL    HW230244   1.019   3.138   9.823
 9471SOL     OW30245   9.493  14.633   7.134
 9471SOL    HW130246   9.505  14.716   7.088
 9471SOL    HW230247   9.399  14.617   7.132
 9472SOL     OW30248   6.355  11.366   0.341
 9472SOL    HW130249   6.319  11.400   0.259
 9472SOL    HW230250   6.449  11.364   0.327
 9473SOL     OW30251  10.364   4.648   6.820
 9473SOL    HW130252  10.304   4.611   6.756
 9473SOL    HW230253  10.323   4.631   6.905
 9474SOL     OW30254  12.189  13.556   2.449
 9474SOL    HW130255  12.127  13.496   2.489
 9474SOL    HW230256  12.141  13.639   2.442
 9475SOL     OW30257   4.012  13.147   5.709
 9475SOL    HW130258   3.929  13.136   5.755
 9475SOL    HW230259   4.065  13.202   5.767
 9476SOL     OW30260  13.951   0.237  10.138
 9476SOL    HW130261  14.012   0.218  10.066
 9476SOL    HW230262  13.996   0.304  10.190
 9477SOL     OW30263  13.520   3.842   6.909
 9477SOL    HW130264  13.557   3.833   6.997
 9477SOL    HW230265  13.428   3.866   6.924
 9478SOL     OW30266   9.331  12.121   2.163
 9478SOL    HW130267   9.425  12.123   2.177
 9478SOL    HW230268   9.313  12.032   2.132
 9479SOL     OW30269   3.346  13.577  14.370
 9479SOL    HW130270   3.381  13.491  14.393
 9479SOL    HW230271   3.423  13.627  14.341
 9480SOL     OW30272   4.729  13.447   1.496
 9480SOL    HW130273   4.680  13.374   1.458
 9480SOL    HW230274   4.674  13.524   1.479
 9481SOL     OW30275   4.235  11.891   8.362
 9481SOL    HW130276   4.312  11.929   8.320
 9481SOL    HW230277   4.204  11.826   8.299
 9482SOL     OW30278   5.519  10.538   2.887
 9482SOL    HW130279   5.473  10.488   2.955
 9482SOL    HW230280   5.459  10.609   2.865
 9483SOL     OW30281  11.590   0.085  12.272
 9483SOL    HW130282  11.668   0.136  12.296
 9483SOL    HW230283  11.562   0.123  12.189
 9484SOL     OW30284   2.890   2.329  13.104
 9484SOL    HW130285   2.940   2.341  13.024
 9484SOL    HW230286   2.953   2.295  13.167
 9485SOL     OW30287   6.807   5.540   5.624
 9485SOL    HW130288   6.712   5.555   5.620
 9485SOL    HW230289   6.832   5.518   5.534
 9486SOL     OW30290   8.970   0.576   2.460
 9486SOL    HW130291   9.031   0.644   2.487
 9486SOL    HW230292   8.935   0.608   2.376
 9487SOL     OW30293   7.931   5.087  13.988
 9487SOL    HW130294   7.956   5.038  14.066
 9487SOL    HW230295   7.866   5.150  14.018
 9488SOL     OW30296   8.957   4.220   3.079
 9488SOL    HW130297   8.911   4.138   3.098
 9488SOL    HW230298   9.006   4.202   2.999
 9489SOL     OW30299   0.782   2.606   6.049
 9489SOL    HW130300   0.757   2.682   6.101
 9489SOL    HW230301   0.740   2.532   6.094
 9490SOL     OW30302  11.282  10.912   3.521
 9490SOL    HW130303  11.281  10.929   3.427
 9490SOL    HW230304  11.303  10.818   3.527
 9491SOL     OW30305  10.654  12.785  10.744
 9491SOL    HW130306  10.637  12.692  10.753
 9491SOL    HW230307  10.623  12.807  10.657
 9492SOL     OW30308   5.582  11.527   9.811
 9492SOL    HW130309   5.508  11.558   9.759
 9492SOL    HW230310   5.595  11.437   9.783
 9493SOL     OW30311   4.159  13.084  13.777
 9493SOL    HW130312   4.122  13.137  13.847
 9493SOL    HW230313   4.198  13.009  13.821
 9494SOL     OW30314   8.292  10.772   0.718
 9494SOL    HW130315   8.314  10.727   0.636
 9494SOL    HW230316   8.371  10.763   0.772
 9495SOL     OW30317   3.707   6.284   1.555
 9495SOL    HW130318   3.777   6.252   1.613
 9495SOL    HW230319   3.726   6.243   1.470
 9496SOL     OW30320   2.702   7.782   9.024
 9496SOL    HW130321   2.792   7.774   8.993
 9496SOL    HW230322   2.660   7.841   8.962
 9497SOL     OW30323   6.949   1.073  14.612
 9497SOL    HW130324   6.861   1.064  14.574
 9497SOL    HW230325   6.933   1.098  14.703
 9498SOL     OW30326   3.513   0.963   1.083
 9498SOL    HW130327   3.458   1.039   1.069
 9498SOL    HW230328   3.510   0.948   1.178
 9499SOL     OW30329  11.903  14.483   8.134
 9499SOL    HW130330  11.845  14.489   8.210
 9499SOL    HW230331  11.907  14.573   8.100
 9500SOL     OW30332   4.595  11.227   1.634
 9500SOL    HW130333   4.660  11.157   1.632
 9500SOL    HW230334   4.535  11.203   1.704
 9501SOL     OW30335   4.047   3.875   1.164
 9501SOL    HW130336   4.005   3.831   1.089
 9501SOL    HW230337   4.137   3.889   1.136
 9502SOL     OW30338   2.414   9.028   4.507
 9502SOL    HW130339   2.381   8.961   4.447
 9502SOL    HW230340   2.342   9.045   4.567
 9503SOL     OW30341  12.034  14.121  14.210
 9503SOL    HW130342  12.033  14.151  14.301
 9503SOL    HW230343  12.094  14.047  14.209
 9504SOL     OW30344  10.186   4.088   3.703
 9504SOL    HW130345  10.203   4.005   3.748
 9504SOL    HW230346  10.211   4.071   3.612
 9505SOL     OW30347   5.619   4.745  14.297
 9505SOL    HW130348   5.546   4.722  14.355
 9505SOL    HW230349   5.697   4.730  14.349
 9506SOL     OW30350   9.296   6.148  11.550
 9506SOL    HW130351   9.265   6.106  11.630
 9506SOL    HW230352   9.376   6.193  11.576
 9507SOL     OW30353  12.415  10.311   8.568
 9507SOL    HW130354  12.340  10.355   8.609
 9507SOL    HW230355  12.406  10.219   8.596
 9508SOL     OW30356   7.864   1.518   7.686
 9508SOL    HW130357   7.895   1.436   7.649
 9508SOL    HW230358   7.935   1.547   7.743
 9509SOL     OW30359  14.260   9.086   2.633
 9509SOL    HW130360  14.299   9.001   2.655
 9509SOL    HW230361  14.225   9.118   2.716
 9510SOL     OW30362  14.510  11.948  11.587
 9510SOL    HW130363  14.490  11.862  11.550
 9510SOL    HW230364  14.605  11.958  11.575
 9511SOL     OW30365   9.777  10.754  12.717
 9511SOL    HW130366   9.709  10.803  12.672
 9511SOL    HW230367   9.828  10.820  12.764
 9512SOL     OW30368  12.016   7.388  10.049
 9512SOL    HW130369  12.043   7.467  10.096
 9512SOL    HW230370  11.922   7.381  10.066
 9513SOL     OW30371  10.283   9.379   9.078
 9513SOL    HW130372  10.370   9.371   9.041
 9513SOL    HW230373  10.252   9.465   9.047
 9514SOL     OW30374   7.054  14.201  10.738
 9514SOL    HW130375   7.046  14.172  10.828
 9514SOL    HW230376   7.109  14.135  10.696
 9515SOL     OW30377   8.496  13.398   5.349
 9515SOL    HW130378   8.437  13.402   5.424
 9515SOL    HW230379   8.583  13.384   5.387
 9516SOL     OW30380   3.369  13.898  10.118
 9516SOL    HW130381   3.416  13.980  10.101
 9516SOL    HW230382   3.387  13.878  10.210
 9517SOL     OW30383  12.691   0.228   0.227
 9517SOL    HW130384  12.739   0.195   0.303
 9517SOL    HW230385  12.602   0.192   0.237
 9518SOL     OW30386  10.258  14.535  12.678
 9518SOL    HW130387  10.294  14.513  12.764
 9518SOL    HW230388  10.334  14.559  12.625
 9519SOL     OW30389   1.677   7.765   6.121
 9519SOL    HW130390   1.631   7.697   6.170
 9519SOL    HW230391   1.675   7.841   6.179
 9520SOL     OW30392   0.191   9.418   9.816
 9520SOL    HW130393   0.216   9.439   9.726
 9520SOL    HW230394   0.107   9.462   9.828
 9521SOL     OW30395  13.387  12.401  11.707
 9521SOL    HW130396  13.367  12.381  11.798
 9521SOL    HW230397  13.334  12.479  11.687
 9522SOL     OW30398   1.133   8.039   6.027
 9522SOL    HW130399   1.135   8.027   6.122
 9522SOL    HW230400   1.125   8.134   6.016
 9523SOL     OW30401   6.438   1.066  11.393
 9523SOL    HW130402   6.519   1.056  11.443
 9523SOL    HW230403   6.464   1.047  11.303
 9524SOL     OW30404  10.701   8.561   6.501
 9524SOL    HW130405  10.704   8.467   6.519
 9524SOL    HW230406  10.767   8.574   6.433
 9525SOL     OW30407   6.466  14.182   8.300
 9525SOL    HW130408   6.549  14.228   8.294
 9525SOL    HW230409   6.467  14.140   8.386
 9526SOL     OW30410  11.519   0.890   5.949
 9526SOL    HW130411  11.480   0.916   6.032
 9526SOL    HW230412  11.446   0.885   5.888
 9527SOL     OW30413   3.494   1.341   1.600
 9527SOL    HW130414   3.470   1.290   1.522
 9527SOL    HW230415   3.590   1.344   1.597
 9528SOL     OW30416  13.824   2.963   4.050
 9528SOL    HW130417  13.730   2.973   4.062
 9528SOL    HW230418  13.838   2.869   4.047
 9529SOL     OW30419   1.531  10.042  12.754
 9529SOL    HW130420   1.466  10.046  12.684
 9529SOL    HW230421   1.607  10.001  12.713
 9530SOL     OW30422  14.578   7.732   6.846
 9530SOL    HW130423  14.631   7.680   6.785
 9530SOL    HW230424  14.640   7.756   6.915
 9531SOL     OW30425  13.556   7.515   4.013
 9531SOL    HW130426  13.506   7.443   3.975
 9531SOL    HW230427  13.505   7.541   4.090
 9532SOL     OW30428   9.326   9.962   0.906
 9532SOL    HW130429   9.367  10.048   0.911
 9532SOL    HW230430   9.288   9.958   0.818
 9533SOL     OW30431  12.207   4.959   4.826
 9533SOL    HW130432  12.289   4.996   4.794
 9533SOL    HW230433  12.144   4.977   4.755
 9534SOL     OW30434   9.825  11.575   3.919
 9534SOL    HW130435   9.738  11.578   3.881
 9534SOL    HW230436   9.879  11.532   3.852
 9535SOL     OW30437   9.932   9.981   1.808
 9535SOL    HW130438  10.003   9.996   1.746
 9535SOL    HW230439   9.944  10.047   1.876
 9536SOL     OW30440   5.440   2.195   5.449
 9536SOL    HW130441   5.401   2.109   5.434
 9536SOL    HW230442   5.504   2.180   5.520
 9537SOL     OW30443  12.173   3.295  13.535
 9537SOL    HW130444  12.175   3.221  13.475
 9537SOL    HW230445  12.134   3.260  13.616
 9538SOL     OW30446  14.393   2.782   9.481
 9538SOL    HW130447  14.396   2.770   9.386
 9538SOL    HW230448  14.408   2.875   9.494
 9539SOL     OW30449  14.549  11.031   4.934
 9539SOL    HW130450  14.465  11.065   4.964
 9539SOL    HW230451  14.604  11.108   4.924
 9540SOL     OW30452  12.992   2.502   8.375
 9540SOL    HW130453  12.954   2.527   8.290
 9540SOL    HW230454  12.919   2.504   8.436
 9541SOL     OW30455   7.866   2.692   1.007
 9541SOL    HW130456   7.833   2.724   0.923
 9541SOL    HW230457   7.803   2.624   1.033
 9542SOL     OW30458   3.891   8.600   2.907
 9542SOL    HW130459   3.830   8.588   2.834
 9542SOL    HW230460   3.973   8.626   2.865
 9543SOL     OW30461  10.742  10.753  14.605
 9543SOL    HW130462  10.751  10.839  14.564
 9543SOL    HW230463  10.728  10.693  14.531
 9544SOL     OW30464   4.577   0.414  13.353
 9544SOL    HW130465   4.643   0.345  13.349
 9544SOL    HW230466   4.544   0.422  13.264
 9545SOL     OW30467   8.045  11.400   8.148
 9545SOL    HW130468   8.026  11.410   8.242
 9545SOL    HW230469   8.008  11.478   8.108
 9546SOL     OW30470   7.636   2.729   6.840
 9546SOL    HW130471   7.578   2.655   6.820
 9546SOL    HW230472   7.710   2.719   6.780
 9547SOL     OW30473  10.224   2.809   9.971
 9547SOL    HW130474  10.300   2.758  10.000
 9547SOL    HW230475  10.260   2.870   9.906
 9548SOL     OW30476   4.701   6.253   8.447
 9548SOL    HW130477   4.701   6.210   8.532
 9548SOL    HW230478   4.789   6.238   8.412
 9549SOL     OW30479   4.980   9.412   7.875
 9549SOL    HW130480   4.952   9.322   7.860
 9549SOL    HW230481   4.959   9.429   7.967
 9550SOL     OW30482   0.556  13.821  10.618
 9550SOL    HW130483   0.571  13.915  10.605
 9550SOL    HW230484   0.614  13.778  10.555
 9551SOL     OW30485   1.814   1.578   6.961
 9551SOL    HW130486   1.799   1.509   7.025
 9551SOL    HW230487   1.768   1.654   6.996
 9552SOL     OW30488   9.623   1.173  11.049
 9552SOL    HW130489   9.679   1.249  11.030
 9552SOL    HW230490   9.662   1.102  11.000
 9553SOL     OW30491   2.273   6.311  13.220
 9553SOL    HW130492   2.268   6.337  13.128
 9553SOL    HW230493   2.248   6.218  13.221
 9554SOL     OW30494   3.678   5.876  14.793
 9554SOL    HW130495   3.666   5.854  14.700
 9554SOL    HW230496   3.749   5.819  14.823
 9555SOL     OW30497   6.194   3.675   6.550
 9555SOL    HW130498   6.206   3.591   6.506
 9555SOL    HW230499   6.151   3.654   6.632
 9556SOL     OW30500  10.372  13.395   4.279
 9556SOL    HW130501  10.276  13.394   4.284
 9556SOL    HW230502  10.396  13.303   4.275
 9557SOL     OW30503   1.838   7.687  11.563
 9557SOL    HW130504   1.804   7.643  11.485
 9557SOL    HW230505   1.932   7.671  11.561
 9558SOL     OW30506   3.059   8.893   3.224
 9558SOL    HW130507   2.993   8.960   3.206
 9558SOL    HW230508   3.063   8.841   3.143
 9559SOL     OW30509  14.005  14.356   0.787
 9559SOL    HW130510  14.088  14.404   0.788
 9559SOL    HW230511  13.950  14.403   0.849
 9560SOL     OW30512   8.055   5.189  13.767
 9560SOL    HW130513   8.005   5.257  13.720
 9560SOL    HW230514   8.003   5.171  13.845
 9561SOL     OW30515   7.923   6.818   4.747
 9561SOL    HW130516   7.980   6.749   4.781
 9561SOL    HW230517   7.943   6.820   4.653
 9562SOL     OW30518   4.263   1.798  14.793
 9562SOL    HW130519   4.181   1.811  14.841
 9562SOL    HW230520   4.237   1.790  14.702
 9563SOL     OW30521   8.719   2.807  11.708
 9563SOL    HW130522   8.664   2.809  11.630
 9563SOL    HW230523   8.679   2.740  11.764
 9564SOL     OW30524   2.409   6.030   5.326
 9564SOL    HW130525   2.440   6.016   5.415
 9564SOL    HW230526   2.439   6.118   5.303
 9565SOL     OW30527   0.182  12.504   9.508
 9565SOL    HW130528   0.233  12.426   9.528
 9565SOL    HW230529   0.104  12.496   9.563
 9566SOL     OW30530   8.758   7.651   3.990
 9566SOL    HW130531   8.692   7.586   3.966
 9566SOL    HW230532   8.755   7.716   3.920
 9567SOL     OW30533   7.390  13.294  14.796
 9567SOL    HW130534   7.329  13.361  14.829
 9567SOL    HW230535   7.462  13.294  14.860
 9568SOL     OW30536   2.069  13.482  10.454
 9568SOL    HW130537   2.085  13.468  10.547
 9568SOL    HW230538   2.111  13.406  10.411
 9569SOL     OW30539   2.360   4.884   8.503
 9569SOL    HW130540   2.366   4.942   8.427
 9569SOL    HW230541   2.440   4.900   8.552
 9570SOL     OW30542   0.071  10.762   4.763
 9570SOL    HW130543   0.061  10.810   4.845
 9570SOL    HW230544   0.163  10.735   4.763
 9571SOL     OW30545   9.005  13.463   5.735
 9571SOL    HW130546   8.995  13.492   5.644
 9571SOL    HW230547   8.930  13.500   5.781
 9572SOL     OW30548   3.988   0.429   2.099
 9572SOL    HW130549   3.911   0.374   2.110
 9572SOL    HW230550   4.028   0.399   2.017
 9573SOL     OW30551   4.342   3.100  11.321
 9573SOL    HW130552   4.384   3.111  11.236
 9573SOL    HW230553   4.364   3.010  11.346
 9574SOL     OW30554   7.370  12.730   4.978
 9574SOL    HW130555   7.307  12.673   5.021
 9574SOL    HW230556   7.358  12.715   4.885
 9575SOL     OW30557   9.244  13.860   1.142
 9575SOL    HW130558   9.259  13.855   1.236
 9575SOL    HW230559   9.331  13.861   1.103
 9576SOL     OW30560   9.015   1.118  11.689
 9576SOL    HW130561   9.071   1.153  11.619
 9576SOL    HW230562   9.076   1.078  11.751
 9577SOL     OW30563   4.964  14.810  12.391
 9577SOL    HW130564   4.993  14.753  12.463
 9577SOL    HW230565   4.871  14.790  12.381
 9578SOL     OW30566   7.028  11.123   7.900
 9578SOL    HW130567   7.101  11.075   7.862
 9578SOL    HW230568   7.067  11.175   7.970
 9579SOL     OW30569  13.175   1.425   5.038
 9579SOL    HW130570  13.129   1.454   5.117
 9579SOL    HW230571  13.114   1.444   4.967
 9580SOL     OW30572   4.145   3.289   5.558
 9580SOL    HW130573   4.057   3.322   5.573
 9580SOL    HW230574   4.200   3.367   5.553
 9581SOL     OW30575   8.612   5.327   8.794
 9581SOL    HW130576   8.529   5.368   8.767
 9581SOL    HW230577   8.669   5.401   8.815
 9582SOL     OW30578   4.723   5.848   7.888
 9582SOL    HW130579   4.679   5.770   7.854
 9582SOL    HW230580   4.683   5.864   7.973
 9583SOL     OW30581   9.334  12.505   2.534
 9583SOL    HW130582   9.261  12.505   2.472
 9583SOL    HW230583   9.369  12.416   2.531
 9584SOL     OW30584   5.881   3.880   3.693
 9584SOL    HW130585   5.955   3.939   3.706
 9584SOL    HW230586   5.804   3.932   3.718
 9585SOL     OW30587   4.257   2.950   0.155
 9585SOL    HW130588   4.341   2.912   0.128
 9585SOL    HW230589   4.194   2.917   0.091
 9586SOL     OW30590  12.527   5.176   9.662
 9586SOL    HW130591  12.522   5.113   9.590
 9586SOL    HW230592  12.507   5.261   9.621
 9587SOL     OW30593   8.538   4.901   1.671
 9587SOL    HW130594   8.563   4.843   1.599
 9587SOL    HW230595   8.518   4.985   1.629
 9588SOL     OW30596  13.203   4.092  14.789
 9588SOL    HW130597  13.146   4.096  14.866
 9588SOL    HW230598  13.147   4.061  14.718
 9589SOL     OW30599   3.896  13.626  11.763
 9589SOL    HW130600   3.832  13.650  11.696
 9589SOL    HW230601   3.950  13.704  11.774
 9590SOL     OW30602  13.786  12.923  10.772
 9590SOL    HW130603  13.856  12.908  10.836
 9590SOL    HW230604  13.825  12.980  10.707
 9591SOL     OW30605   0.993  13.376   1.562
 9591SOL    HW130606   1.015  13.285   1.582
 9591SOL    HW230607   1.049  13.427   1.621
 9592SOL     OW30608  12.971  12.727   5.753
 9592SOL    HW130609  12.921  12.743   5.673
 9592SOL    HW230610  13.019  12.808   5.768
 9593SOL     OW30611   5.380   2.272   8.599
 9593SOL    HW130612   5.345   2.258   8.687
 9593SOL    HW230613   5.472   2.245   8.605
 9594SOL     OW30614  11.419  12.384   8.632
 9594SOL    HW130615  11.473  12.411   8.557
 9594SOL    HW230616  11.386  12.298   8.607
 9595SOL     OW30617   3.202   9.639   1.535
 9595SOL    HW130618   3.263   9.706   1.506
 9595SOL    HW230619   3.257   9.562   1.553
 9596SOL     OW30620   7.404  13.573   7.495
 9596SOL    HW130621   7.462  13.501   7.518
 9596SOL    HW230622   7.320  13.531   7.476
 9597SOL     OW30623   2.390  10.728  14.614
 9597SOL    HW130624   2.463  10.724  14.552
 9597SOL    HW230625   2.366  10.636  14.628
 9598SOL     OW30626   6.102   9.475   6.155
 9598SOL    HW130627   6.087   9.393   6.202
 9598SOL    HW230628   6.170   9.455   6.091
 9599SOL     OW30629   2.866  12.251  10.807
 9599SOL    HW130630   2.810  12.198  10.864
 9599SOL    HW230631   2.920  12.187  10.761
 9600SOL     OW30632  11.941   9.154   3.121
 9600SOL    HW130633  11.929   9.133   3.213
 9600SOL    HW230634  11.857   9.133   3.080
 9601SOL     OW30635  12.617   3.773  12.540
 9601SOL    HW130636  12.683   3.759  12.607
 9601SOL    HW230637  12.664   3.766  12.457
 9602SOL     OW30638   0.877  14.738   1.945
 9602SOL    HW130639   0.928  14.807   1.904
 9602SOL    HW230640   0.937  14.663   1.950
 9603SOL     OW30641   4.107   4.158  11.091
 9603SOL    HW130642   4.047   4.228  11.115
 9603SOL    HW230643   4.054   4.098  11.038
 9604SOL     OW30644  13.710  10.015  11.945
 9604SOL    HW130645  13.755   9.931  11.945
 9604SOL    HW230646  13.626   9.997  11.901
 9605SOL     OW30647  12.224   8.118   5.744
 9605SOL    HW130648  12.248   8.209   5.762
 9605SOL    HW230649  12.129   8.117   5.751
 9606SOL     OW30650   7.485   5.443   4.103
 9606SOL    HW130651   7.561   5.386   4.089
 9606SOL    HW230652   7.522   5.530   4.119
 9607SOL     OW30653   9.122   8.906   4.528
 9607SOL    HW130654   9.063   8.947   4.591
 9607SOL    HW230655   9.161   8.979   4.480
 9608SOL     OW30656   7.405  14.054   3.250
 9608SOL    HW130657   7.426  14.105   3.328
 9608SOL    HW230658   7.335  14.103   3.207
 9609SOL     OW30659   2.527   9.609   1.014
 9609SOL    HW130660   2.600   9.616   1.075
 9609SOL    HW230661   2.555   9.545   0.949
 9610SOL     OW30662   9.251  10.424   4.072
 9610SOL    HW130663   9.324  10.465   4.025
 9610SOL    HW230664   9.247  10.470   4.155
 9611SOL     OW30665   6.672   1.293   2.416
 9611SOL    HW130666   6.642   1.339   2.337
 9611SOL    HW230667   6.768   1.299   2.412
 9612SOL     OW30668   4.857   8.016   6.342
 9612SOL    HW130669   4.935   8.035   6.291
 9612SOL    HW230670   4.845   7.921   6.334
 9613SOL     OW30671   7.186   5.046   3.148
 9613SOL    HW130672   7.180   5.114   3.214
 9613SOL    HW230673   7.131   4.975   3.181
 9614SOL     OW30674  14.307   1.529   4.112
 9614SOL    HW130675  14.352   1.514   4.196
 9614SOL    HW230676  14.280   1.442   4.084
 9615SOL     OW30677   1.023   2.012   9.203
 9615SOL    HW130678   0.942   1.987   9.248
 9615SOL    HW230679   1.018   2.107   9.196
 9616SOL     OW30680   2.624   3.987   6.309
 9616SOL    HW130681   2.651   3.991   6.217
 9616SOL    HW230682   2.703   3.962   6.357
 9617SOL     OW30683  10.119   5.124   5.263
 9617SOL    HW130684  10.104   5.174   5.183
 9617SOL    HW230685  10.048   5.061   5.266
 9618SOL     OW30686  13.276   7.922   6.461
 9618SOL    HW130687  13.230   8.004   6.444
 9618SOL    HW230688  13.363   7.948   6.491
 9619SOL     OW30689  13.927   8.120   7.090
 9619SOL    HW130690  13.991   8.089   7.027
 9619SOL    HW230691  13.900   8.041   7.137
 9620SOL     OW30692  10.141   4.698   8.290
 9620SOL    HW130693  10.139   4.654   8.375
 9620SOL    HW230694  10.201   4.771   8.302
 9621SOL     OW30695   1.910   5.467   1.958
 9621SOL    HW130696   1.956   5.458   1.874
 9621SOL    HW230697   1.971   5.514   2.014
 9622SOL     OW30698   0.166   1.095   4.596
 9622SOL    HW130699   0.091   1.084   4.655
 9622SOL    HW230700   0.127   1.112   4.510
 9623SOL     OW30701   9.047   1.478   0.598
 9623SOL    HW130702   8.960   1.492   0.560
 9623SOL    HW230703   9.061   1.384   0.594
 9624SOL     OW30704   4.820   0.885   7.815
 9624SOL    HW130705   4.884   0.817   7.837
 9624SOL    HW230706   4.815   0.883   7.719
 9625SOL     OW30707   9.452   3.886  14.213
 9625SOL    HW130708   9.427   3.866  14.123
 9625SOL    HW230709   9.494   3.806  14.244
 9626SOL     OW30710   5.896   9.671  14.233
 9626SOL    HW130711   5.913   9.593  14.180
 9626SOL    HW230712   5.845   9.638  14.307
 9627SOL     OW30713  13.607  11.672  10.289
 9627SOL    HW130714  13.606  11.704  10.379
 9627SOL    HW230715  13.514  11.658  10.268
 9628SOL     OW30716   0.846   8.839   1.060
 9628SOL    HW130717   0.904   8.797   0.997
 9628SOL    HW230718   0.905   8.867   1.131
 9629SOL     OW30719   2.044   1.831  10.418
 9629SOL    HW130720   2.083   1.763  10.363
 9629SOL    HW230721   1.953   1.836  10.389
 9630SOL     OW30722   4.992  13.498  10.535
 9630SOL    HW130723   4.968  13.439  10.464
 9630SOL    HW230724   4.936  13.574  10.524
 9631SOL     OW30725   1.244   7.573  12.851
 9631SOL    HW130726   1.302   7.573  12.775
 9631SOL    HW230727   1.186   7.648  12.838
 9632SOL     OW30728  12.325   0.764  11.839
 9632SOL    HW130729  12.297   0.728  11.755
 9632SOL    HW230730  12.417   0.741  11.846
 9633SOL     OW30731  12.411   8.403  14.217
 9633SOL    HW130732  12.381   8.424  14.129
 9633SOL    HW230733  12.412   8.487  14.263
 9634SOL     OW30734  13.879   5.694   1.951
 9634SOL    HW130735  13.800   5.658   1.910
 9634SOL    HW230736  13.951   5.645   1.911
 9635SOL     OW30737   8.053  14.513   8.555
 9635SOL    HW130738   8.018  14.428   8.580
 9635SOL    HW230739   8.079  14.503   8.464
 9636SOL     OW30740  12.963   1.825   6.534
 9636SOL    HW130741  12.903   1.781   6.594
 9636SOL    HW230742  13.036   1.854   6.590
 9637SOL     OW30743  12.189   3.199   0.354
 9637SOL    HW130744  12.128   3.175   0.284
 9637SOL    HW230745  12.200   3.118   0.405
 9638SOL     OW30746   5.205   6.156   1.096
 9638SOL    HW130747   5.243   6.137   1.010
 9638SOL    HW230748   5.273   6.205   1.142
 9639SOL     OW30749   2.970   4.160   6.153
 9639SOL    HW130750   2.947   4.067   6.147
 9639SOL    HW230751   3.027   4.166   6.229
 9640SOL     OW30752   9.500   4.797   4.962
 9640SOL    HW130753   9.416   4.801   5.008
 9640SOL    HW230754   9.545   4.723   5.002
 9641SOL     OW30755  13.775   9.437   5.590
 9641SOL    HW130756  13.865   9.409   5.608
 9641SOL    HW230757  13.739   9.456   5.677
 9642SOL     OW30758   2.714  11.690   9.658
 9642SOL    HW130759   2.675  11.734   9.583
 9642SOL    HW230760   2.768  11.757   9.700
 9643SOL     OW30761  13.223  13.592   9.835
 9643SOL    HW130762  13.213  13.498   9.850
 9643SOL    HW230763  13.144  13.630   9.875
 9644SOL     OW30764   2.998  11.355  12.235
 9644SOL    HW130765   2.933  11.286  12.249
 9644SOL    HW230766   3.054  11.320  12.166
 9645SOL     OW30767  10.882   5.784  14.286
 9645SOL    HW130768  10.921   5.702  14.316
 9645SOL    HW230769  10.822   5.758  14.217
 9646SOL     OW30770   2.897   1.803   6.423
 9646SOL    HW130771   2.863   1.727   6.470
 9646SOL    HW230772   2.971   1.769   6.373
 9647SOL     OW30773   4.578   7.746   8.364
 9647SOL    HW130774   4.549   7.811   8.300
 9647SOL    HW230775   4.536   7.665   8.336
 9648SOL     OW30776   6.799   4.240  10.546
 9648SOL    HW130777   6.740   4.315  10.549
 9648SOL    HW230778   6.836   4.242  10.458
 9649SOL     OW30779  14.225   6.412   5.784
 9649SOL    HW130780  14.159   6.456   5.730
 9649SOL    HW230781  14.239   6.472   5.858
 9650SOL     OW30782  10.062  12.908   2.701
 9650SOL    HW130783  10.135  12.856   2.735
 9650SOL    HW230784  10.103  12.974   2.645
 9651SOL     OW30785  13.771  13.808  11.483
 9651SOL    HW130786  13.857  13.772  11.462
 9651SOL    HW230787  13.711  13.764  11.423
 9652SOL     OW30788   7.463   0.298   1.933
 9652SOL    HW130789   7.520   0.281   2.008
 9652SOL    HW230790   7.524   0.314   1.860
 9653SOL     OW30791   2.972   2.493  12.822
 9653SOL    HW130792   3.064   2.480  12.843
 9653SOL    HW230793   2.972   2.561  12.754
 9654SOL     OW30794   3.748   5.742  10.129
 9654SOL    HW130795   3.715   5.653  10.118
 9654SOL    HW230796   3.835   5.741  10.089
 9655SOL     OW30797  13.626   6.503   2.929
 9655SOL    HW130798  13.693   6.435   2.937
 9655SOL    HW230799  13.668   6.572   2.878
 9656SOL     OW30800   7.289  14.155   2.712
 9656SOL    HW130801   7.230  14.082   2.726
 9656SOL    HW230802   7.259  14.223   2.772
 9657SOL     OW30803   7.620   1.139   5.826
 9657SOL    HW130804   7.580   1.055   5.850
 9657SOL    HW230805   7.547   1.190   5.789
 9658SOL     OW30806  12.715   4.940   1.390
 9658SOL    HW130807  12.695   5.032   1.409
 9658SOL    HW230808  12.717   4.936   1.294
 9659SOL     OW30809   6.995  11.578   3.936
 9659SOL    HW130810   7.083  11.541   3.934
 9659SOL    HW230811   7.002  11.661   3.889
 9660SOL     OW30812   1.066  12.942   4.431
 9660SOL    HW130813   1.094  13.032   4.446
 9660SOL    HW230814   1.086  12.897   4.513
 9661SOL     OW30815  13.746   8.579  10.856
 9661SOL    HW130816  13.785   8.492  10.851
 9661SOL    HW230817  13.803   8.628  10.915
 9662SOL     OW30818   0.250   9.859   8.275
 9662SOL    HW130819   0.205   9.910   8.207
 9662SOL    HW230820   0.342   9.865   8.252
 9663SOL     OW30821   0.361   9.610  14.391
 9663SOL    HW130822   0.344   9.649  14.305
 9663SOL    HW230823   0.456   9.608  14.399
 9664SOL     OW30824  13.529   1.202  12.552
 9664SOL    HW130825  13.469   1.232  12.620
 9664SOL    HW230826  13.614   1.194  12.595
 9665SOL     OW30827   5.109   5.287   9.470
 9665SOL    HW130828   5.128   5.346   9.544
 9665SOL    HW230829   5.068   5.211   9.510
 9666SOL     OW30830  12.816   2.202  12.545
 9666SOL    HW130831  12.780   2.254  12.473
 9666SOL    HW230832  12.871   2.263  12.594
 9667SOL     OW30833   4.748   1.722   8.524
 9667SOL    HW130834   4.724   1.651   8.465
 9667SOL    HW230835   4.818   1.686   8.578
 9668SOL     OW30836   9.371  13.363  13.328
 9668SOL    HW130837   9.296  13.423  13.326
 9668SOL    HW230838   9.447  13.420  13.316
 9669SOL     OW30839   3.172  12.727   9.438
 9669SOL    HW130840   3.263  12.698   9.432
 9669SOL    HW230841   3.172  12.813   9.397
 9670SOL     OW30842   5.645   1.567   2.524
 9670SOL    HW130843   5.666   1.478   2.551
 9670SOL    HW230844   5.552   1.564   2.500
 9671SOL     OW30845   2.154  10.112   4.292
 9671SOL    HW130846   2.092  10.070   4.351
 9671SOL    HW230847   2.228  10.137   4.347
 9672SOL     OW30848   9.705  10.664  10.209
 9672SOL    HW130849   9.789  10.657  10.255
 9672SOL    HW230850   9.656  10.586  10.238
 9673SOL     OW30851  14.869  12.246   8.189
 9673SOL    HW130852   0.071  12.199   8.213
 9673SOL    HW230853  14.861  12.315   8.255
 9674SOL     OW30854   4.998   5.070   8.857
 9674SOL    HW130855   4.939   5.059   8.782
 9674SOL    HW230856   4.940   5.080   8.932
 9675SOL     OW30857  10.449   5.255   5.296
 9675SOL    HW130858  10.437   5.276   5.203
 9675SOL    HW230859  10.537   5.219   5.301
 9676SOL     OW30860   3.218   3.265   6.835
 9676SOL    HW130861   3.259   3.314   6.764
 9676SOL    HW230862   3.288   3.250   6.898
 9677SOL     OW30863   2.216  11.487  11.048
 9677SOL    HW130864   2.242  11.577  11.065
 9677SOL    HW230865   2.298  11.440  11.035
 9678SOL     OW30866   1.539  12.691  11.703
 9678SOL    HW130867   1.530  12.703  11.608
 9678SOL    HW230868   1.627  12.654  11.714
 9679SOL     OW30869   1.952   8.205  12.304
 9679SOL    HW130870   1.993   8.164  12.228
 9679SOL    HW230871   1.919   8.133  12.356
 9680SOL     OW30872   2.975   8.285   2.867
 9680SOL    HW130873   3.010   8.271   2.780
 9680SOL    HW230874   2.970   8.197   2.906
 9681SOL     OW30875   9.516   1.818  12.430
 9681SOL    HW130876   9.422   1.805  12.444
 9681SOL    HW230877   9.532   1.908  12.456
 9682SOL     OW30878  13.976   5.935   0.508
 9682SOL    HW130879  14.048   5.919   0.447
 9682SOL    HW230880  13.906   5.877   0.479
 9683SOL     OW30881   6.070   0.293  13.090
 9683SOL    HW130882   6.013   0.287  13.014
 9683SOL    HW230883   6.135   0.224  13.076
 9684SOL     OW30884   7.174   1.385   0.073
 9684SOL    HW130885   7.241   1.436   0.028
 9684SOL    HW230886   7.101   1.445   0.086
 9685SOL     OW30887   2.777  13.111   9.035
 9685SOL    HW130888   2.769  13.153   8.949
 9685SOL    HW230889   2.811  13.024   9.016
 9686SOL     OW30890  10.361  11.617   8.570
 9686SOL    HW130891  10.348  11.599   8.477
 9686SOL    HW230892  10.308  11.696   8.586
 9687SOL     OW30893   8.822  13.780   4.438
 9687SOL    HW130894   8.918  13.783   4.441
 9687SOL    HW230895   8.797  13.719   4.507
 9688SOL     OW30896   9.457   2.463   4.100
 9688SOL    HW130897   9.415   2.518   4.166
 9688SOL    HW230898   9.541   2.438   4.138
 9689SOL     OW30899  14.410   7.160  11.782
 9689SOL    HW130900  14.438   7.143  11.692
 9689SOL    HW230901  14.488   7.196  11.824
 9690SOL     OW30902   3.200   0.553  14.092
 9690SOL    HW130903   3.267   0.537  14.026
 9690SOL    HW230904   3.240   0.526  14.174
 9691SOL     OW30905   4.791   6.593  14.660
 9691SOL    HW130906   4.831   6.529  14.719
 9691SOL    HW230907   4.793   6.550  14.574
 9692SOL     OW30908  11.344   7.196  12.074
 9692SOL    HW130909  11.425   7.155  12.044
 9692SOL    HW230910  11.319   7.255  12.003
 9693SOL     OW30911   6.462   0.951   4.603
 9693SOL    HW130912   6.516   1.014   4.652
 9693SOL    HW230913   6.374   0.989   4.605
 9694SOL     OW30914   7.637   9.009   9.025
 9694SOL    HW130915   7.610   8.918   9.013
 9694SOL    HW230916   7.562   9.060   8.997
 9695SOL     OW30917   2.853   1.595   3.390
 9695SOL    HW130918   2.784   1.635   3.442
 9695SOL    HW230919   2.875   1.662   3.325
 9696SOL     OW30920   6.360   2.815   5.335
 9696SOL    HW130921   6.379   2.908   5.346
 9696SOL    HW230922   6.287   2.812   5.274
 9697SOL     OW30923   8.133   9.164  12.308
 9697SOL    HW130924   8.051   9.213  12.314
 9697SOL    HW230925   8.142   9.122  12.394
 9698SOL     OW30926   7.755   4.133  12.207
 9698SOL    HW130927   7.783   4.212  12.161
 9698SOL    HW230928   7.799   4.137  12.292
 9699SOL     OW30929   4.408  12.510   7.287
 9699SOL    HW130930   4.436  12.589   7.333
 9699SOL    HW230931   4.371  12.542   7.204
 9700SOL     OW30932   3.666  11.421   5.633
 9700SOL    HW130933   3.729  11.395   5.700
 9700SOL    HW230934   3.601  11.351   5.632
 9701SOL     OW30935   4.078   3.680   8.804
 9701SOL    HW130936   4.054   3.593   8.838
 9701SOL    HW230937   4.169   3.671   8.776
 9702SOL     OW30938  12.683   5.479   5.325
 9702SOL    HW130939  12.635   5.508   5.248
 9702SOL    HW230940  12.689   5.384   5.317
 9703SOL     OW30941   6.964   3.214  14.643
 9703SOL    HW130942   6.875   3.186  14.621
 9703SOL    HW230943   7.020   3.169  14.580
 9704SOL     OW30944  14.255  10.871   6.671
 9704SOL    HW130945  14.253  10.952   6.722
 9704SOL    HW230946  14.335  10.826   6.700
 9705SOL     OW30947   7.825   0.819   8.440
 9705SOL    HW130948   7.825   0.905   8.482
 9705SOL    HW230949   7.905   0.818   8.388
 9706SOL     OW30950  12.009   6.595   5.514
 9706SOL    HW130951  12.093   6.551   5.503
 9706SOL    HW230952  11.948   6.544   5.460
 9707SOL     OW30953   4.360   1.964   4.592
 9707SOL    HW130954   4.324   2.027   4.655
 9707SOL    HW230955   4.316   1.985   4.510
 9708SOL     OW30956   8.610  10.801  14.159
 9708SOL    HW130957   8.621  10.785  14.065
 9708SOL    HW230958   8.612  10.714  14.199
 9709SOL     OW30959   2.507  14.520  10.110
 9709SOL    HW130960   2.469  14.544  10.194
 9709SOL    HW230961   2.540  14.603  10.075
 9710SOL     OW30962   0.815   2.302   6.008
 9710SOL    HW130963   0.738   2.347   6.043
 9710SOL    HW230964   0.829   2.228   6.068
 9711SOL     OW30965  12.561  10.512   8.932
 9711SOL    HW130966  12.466  10.525   8.924
 9711SOL    HW230967  12.570  10.418   8.950
 9712SOL     OW30968   7.071   1.304  12.406
 9712SOL    HW130969   7.022   1.233  12.363
 9712SOL    HW230970   7.093   1.364  12.334
 9713SOL     OW30971  13.125  13.724   8.949
 9713SOL    HW130972  13.086  13.809   8.972
 9713SOL    HW230973  13.052  13.662   8.960
 9714SOL     OW30974   8.304   3.641   0.477
 9714SOL    HW130975   8.287   3.736   0.473
 9714SOL    HW230976   8.242   3.604   0.414
 9715SOL     OW30977  13.003  14.711   7.389
 9715SOL    HW130978  13.064  14.641   7.412
 9715SOL    HW230979  13.009  14.719   7.294
 9716SOL     OW30980   6.667   6.456   6.768
 9716SOL    HW130981   6.759   6.461   6.742
 9716SOL    HW230982   6.620   6.508   6.702
 9717SOL     OW30983   8.282   6.248  13.251
 9717SOL    HW130984   8.258   6.242  13.158
 9717SOL    HW230985   8.223   6.315  13.286
 9718SOL     OW30986   8.642   7.439   1.158
 9718SOL    HW130987   8.634   7.409   1.249
 9718SOL    HW230988   8.600   7.525   1.157
 9719SOL     OW30989   4.927  13.996  11.211
 9719SOL    HW130990   4.946  13.910  11.173
 9719SOL    HW230991   5.005  14.048  11.191
 9720SOL     OW30992   1.713   1.506   2.701
 9720SOL    HW130993   1.782   1.566   2.728
 9720SOL    HW230994   1.686   1.463   2.782
 9721SOL     OW30995   6.520   7.520  14.190
 9721SOL    HW130996   6.533   7.614  14.195
 9721SOL    HW230997   6.448   7.503  14.251
 9722SOL     OW30998  10.015   4.029   1.711
 9722SOL    HW130999  10.032   4.119   1.682
 9722SOL    HW231000  10.080   4.013   1.780
 9723SOL     OW31001  14.636   1.736   5.492
 9723SOL    HW131002  14.630   1.827   5.463
 9723SOL    HW231003  14.688   1.692   5.425
 9724SOL     OW31004  13.503  11.381   1.788
 9724SOL    HW131005  13.539  11.446   1.848
 9724SOL    HW231006  13.539  11.405   1.703
 9725SOL     OW31007   7.873   0.285   4.878
 9725SOL    HW131008   7.784   0.252   4.864
 9725SOL    HW231009   7.867   0.336   4.959
 9726SOL     OW31010  13.541   5.970   4.709
 9726SOL    HW131011  13.583   6.032   4.769
 9726SOL    HW231012  13.476   6.022   4.663
 9727SOL     OW31013   2.953   4.979   2.975
 9727SOL    HW131014   2.909   4.962   2.892
 9727SOL    HW231015   3.032   4.926   2.972
 9728SOL     OW31016  14.504   4.935  11.426
 9728SOL    HW131017  14.537   4.963  11.511
 9728SOL    HW231018  14.415   4.905  11.444
 9729SOL     OW31019   9.729  14.699   4.983
 9729SOL    HW131020   9.721  14.610   5.017
 9729SOL    HW231021   9.803  14.695   4.923
 9730SOL     OW31022   9.729   3.085  13.571
 9730SOL    HW131023   9.664   3.146  13.536
 9730SOL    HW231024   9.733   3.106  13.665
 9731SOL     OW31025  12.024   7.347   7.892
 9731SOL    HW131026  11.936   7.314   7.906
 9731SOL    HW231027  12.034   7.419   7.953
 9732SOL     OW31028  11.827  14.232   7.553
 9732SOL    HW131029  11.888  14.184   7.498
 9732SOL    HW231030  11.841  14.324   7.530
 9733SOL     OW31031   3.209   2.231  11.344
 9733SOL    HW131032   3.137   2.281  11.307
 9733SOL    HW231033   3.175   2.142  11.353
 9734SOL     OW31034   2.010   1.625   3.403
 9734SOL    HW131035   1.992   1.666   3.318
 9734SOL    HW231036   2.093   1.664   3.430
 9735SOL     OW31037   7.420  13.989   4.527
 9735SOL    HW131038   7.388  14.079   4.531
 9735SOL    HW231039   7.510  13.997   4.494
 9736SOL     OW31040  13.818  11.642  12.208
 9736SOL    HW131041  13.834  11.726  12.166
 9736SOL    HW231042  13.896  11.590  12.188
 9737SOL     OW31043   5.569   1.080   8.254
 9737SOL    HW131044   5.644   1.030   8.287
 9737SOL    HW231045   5.495   1.050   8.306
 9738SOL     OW31046   0.830   4.651   3.851
 9738SOL    HW131047   0.752   4.691   3.889
 9738SOL    HW231048   0.854   4.582   3.912
 9739SOL     OW31049   3.610   6.456   7.539
 9739SOL    HW131050   3.519   6.443   7.568
 9739SOL    HW231051   3.603   6.461   7.444
 9740SOL     OW31052   6.844   8.723   2.706
 9740SOL    HW131053   6.782   8.686   2.769
 9740SOL    HW231054   6.797   8.723   2.623
 9741SOL     OW31055   7.006   9.716   7.831
 9741SOL    HW131056   6.968   9.643   7.880
 9741SOL    HW231057   6.931   9.756   7.786
 9742SOL     OW31058  12.153   2.342   2.490
 9742SOL    HW131059  12.159   2.249   2.468
 9742SOL    HW231060  12.066   2.368   2.461
 9743SOL     OW31061   3.845  10.385  13.592
 9743SOL    HW131062   3.775  10.443  13.563
 9743SOL    HW231063   3.881  10.349  13.511
 9744SOL     OW31064  10.150   8.866  14.460
 9744SOL    HW131065  10.137   8.957  14.432
 9744SOL    HW231066  10.097   8.858  14.539
 9745SOL     OW31067   3.272  12.628   6.950
 9745SOL    HW131068   3.185  12.589   6.962
 9745SOL    HW231069   3.263  12.718   6.981
 9746SOL     OW31070   7.994   8.868   3.177
 9746SOL    HW131071   7.918   8.926   3.184
 9746SOL    HW231072   8.015   8.868   3.084
 9747SOL     OW31073   1.592   6.458   4.301
 9747SOL    HW131074   1.500   6.484   4.290
 9747SOL    HW231075   1.592   6.402   4.378
 9748SOL     OW31076   8.848   4.385   6.205
 9748SOL    HW131077   8.909   4.432   6.261
 9748SOL    HW231078   8.895   4.373   6.123
 9749SOL     OW31079   9.268   1.720   4.965
 9749SOL    HW131080   9.176   1.737   4.983
 9749SOL    HW231081   9.295   1.792   4.907
 9750SOL     OW31082   5.195   7.220   8.877
 9750SOL    HW131083   5.206   7.139   8.827
 9750SOL    HW231084   5.148   7.279   8.817
 9751SOL     OW31085   4.692  10.080   5.138
 9751SOL    HW131086   4.632  10.116   5.072
 9751SOL    HW231087   4.695   9.986   5.118
 9752SOL     OW31088   0.888   7.637  12.684
 9752SOL    HW131089   0.902   7.561  12.741
 9752SOL    HW231090   0.800   7.668  12.707
 9753SOL     OW31091  11.097   0.341   5.929
 9753SOL    HW131092  11.040   0.323   5.854
 9753SOL    HW231093  11.045   0.400   5.984
 9754SOL     OW31094   2.367   7.698  10.518
 9754SOL    HW131095   2.292   7.640  10.507
 9754SOL    HW231096   2.415   7.662  10.593
 9755SOL     OW31097   9.621   9.307   4.689
 9755SOL    HW131098   9.694   9.358   4.654
 9755SOL    HW231099   9.611   9.338   4.780
 9756SOL     OW31100   6.473   6.293  10.289
 9756SOL    HW131101   6.508   6.383  10.289
 9756SOL    HW231102   6.453   6.275  10.381
 9757SOL     OW31103   6.775   4.314   4.902
 9757SOL    HW131104   6.777   4.409   4.914
 9757SOL    HW231105   6.701   4.298   4.844
 9758SOL     OW31106   0.842   2.270   1.281
 9758SOL    HW131107   0.841   2.301   1.372
 9758SOL    HW231108   0.755   2.291   1.248
 9759SOL     OW31109   5.624  10.021  13.524
 9759SOL    HW131110   5.585   9.936  13.545
 9759SOL    HW231111   5.620  10.070  13.606
 9760SOL     OW31112   8.977   1.350   2.466
 9760SOL    HW131113   8.946   1.414   2.402
 9760SOL    HW231114   9.023   1.284   2.415
 9761SOL     OW31115  12.750   5.327   5.901
 9761SOL    HW131116  12.840   5.360   5.901
 9761SOL    HW231117  12.722   5.335   5.992
 9762SOL     OW31118   5.224   1.026  14.536
 9762SOL    HW131119   5.179   1.077  14.469
 9762SOL    HW231120   5.181   1.051  14.618
 9763SOL     OW31121   9.814   5.299  14.518
 9763SOL    HW131122   9.882   5.295  14.586
 9763SOL    HW231123   9.841   5.235  14.453
 9764SOL     OW31124   2.397   6.167   6.403
 9764SOL    HW131125   2.453   6.091   6.388
 9764SOL    HW231126   2.416   6.193   6.493
 9765SOL     OW31127   5.875  13.653   0.544
 9765SOL    HW131128   5.921  13.703   0.611
 9765SOL    HW231129   5.815  13.597   0.594
 9766SOL     OW31130   6.652  14.749  14.370
 9766SOL    HW131131   6.656  14.832  14.322
 9766SOL    HW231132   6.597  14.768  14.446
 9767SOL     OW31133   8.893   3.636   7.347
 9767SOL    HW131134   8.952   3.566   7.376
 9767SOL    HW231135   8.949   3.714   7.344
 9768SOL     OW31136  11.876  11.743  12.981
 9768SOL    HW131137  11.951  11.789  13.019
 9768SOL    HW231138  11.915  11.674  12.927
 9769SOL     OW31139   2.470  10.887  12.377
 9769SOL    HW131140   2.455  10.819  12.442
 9769SOL    HW231141   2.386  10.930  12.366
 9770SOL     OW31142  13.077   2.162  10.735
 9770SOL    HW131143  13.140   2.227  10.703
 9770SOL    HW231144  13.128   2.082  10.745
 9771SOL     OW31145   0.589   5.291   0.534
 9771SOL    HW131146   0.679   5.276   0.563
 9771SOL    HW231147   0.592   5.277   0.439
 9772SOL     OW31148  13.866  14.748   8.031
 9772SOL    HW131149  13.799  14.784   7.973
 9772SOL    HW231150  13.865  14.654   8.014
 9773SOL     OW31151   5.182   0.985   2.186
 9773SOL    HW131152   5.238   1.014   2.257
 9773SOL    HW231153   5.155   0.897   2.211
 9774SOL     OW31154   7.475  11.907  10.499
 9774SOL    HW131155   7.530  11.829  10.508
 9774SOL    HW231156   7.485  11.934  10.408
 9775SOL     OW31157   8.068   7.992  10.797
 9775SOL    HW131158   8.061   8.063  10.861
 9775SOL    HW231159   8.046   8.034  10.713
 9776SOL     OW31160   0.260  12.550   4.547
 9776SOL    HW131161   0.250  12.612   4.475
 9776SOL    HW231162   0.345  12.571   4.585
 9777SOL     OW31163  13.554  13.120   1.908
 9777SOL    HW131164  13.594  13.207   1.916
 9777SOL    HW231165  13.548  13.088   1.997
 9778SOL     OW31166   0.585   0.503   5.057
 9778SOL    HW131167   0.624   0.416   5.066
 9778SOL    HW231168   0.657   0.563   5.074
 9779SOL     OW31169   6.319   7.224  13.986
 9779SOL    HW131170   6.265   7.185  13.918
 9779SOL    HW231171   6.298   7.174  14.065
 9780SOL     OW31172  13.871  10.324   9.853
 9780SOL    HW131173  13.856  10.298   9.944
 9780SOL    HW231174  13.904  10.245   9.811
 9781SOL     OW31175   9.573   4.998   3.878
 9781SOL    HW131176   9.567   5.036   3.966
 9781SOL    HW231177   9.499   4.937   3.874
 9782SOL     OW31178   2.824   1.541   5.733
 9782SOL    HW131179   2.781   1.624   5.710
 9782SOL    HW231180   2.782   1.476   5.677
 9783SOL     OW31181   7.154   8.535   9.033
 9783SOL    HW131182   7.071   8.503   9.067
 9783SOL    HW231183   7.219   8.474   9.066
 9784SOL     OW31184  14.722   3.466  13.454
 9784SOL    HW131185  14.759   3.469  13.542
 9784SOL    HW231186  14.631   3.496  13.466
 9785SOL     OW31187   0.618   3.696   2.612
 9785SOL    HW131188   0.648   3.606   2.615
 9785SOL    HW231189   0.625   3.728   2.702
 9786SOL     OW31190   1.622  11.207   7.099
 9786SOL    HW131191   1.585  11.142   7.159
 9786SOL    HW231192   1.699  11.241   7.145
 9787SOL     OW31193   9.586  10.407  12.642
 9787SOL    HW131194   9.671  10.450  12.635
 9787SOL    HW231195   9.569  10.374  12.554
 9788SOL     OW31196   1.902  11.238   7.049
 9788SOL    HW131197   1.994  11.260   7.031
 9788SOL    HW231198   1.870  11.310   7.104
 9789SOL     OW31199  10.202   4.437  12.775
 9789SOL    HW131200  10.107   4.438  12.764
 9789SOL    HW231201  10.218   4.496  12.849
 9790SOL     OW31202  13.802   4.007   9.048
 9790SOL    HW131203  13.817   3.941   9.116
 9790SOL    HW231204  13.846   3.972   8.971
 9791SOL     OW31205  10.359  12.438   0.212
 9791SOL    HW131206  10.346  12.367   0.149
 9791SOL    HW231207  10.384  12.394   0.293
 9792SOL     OW31208  11.306   9.216   5.901
 9792SOL    HW131209  11.390   9.223   5.856
 9792SOL    HW231210  11.328   9.182   5.988
 9793SOL     OW31211  11.039  14.787   7.038
 9793SOL    HW131212  11.091  14.709   7.016
 9793SOL    HW231213  10.948  14.758   7.034
 9794SOL     OW31214   9.333  14.209  10.485
 9794SOL    HW131215   9.360  14.270  10.417
 9794SOL    HW231216   9.305  14.264  10.558
 9795SOL     OW31217   8.077   8.904   7.495
 9795SOL    HW131218   8.049   8.870   7.580
 9795SOL    HW231219   7.997   8.904   7.442
 9796SOL     OW31220   6.393  13.415   0.227
 9796SOL    HW131221   6.347  13.480   0.174
 9796SOL    HW231222   6.361  13.429   0.316
 9797SOL     OW31223   6.895   9.917  14.122
 9797SOL    HW131224   6.825   9.880  14.068
 9797SOL    HW231225   6.908   9.853  14.192
 9798SOL     OW31226   6.622  12.014   5.636
 9798SOL    HW131227   6.697  11.977   5.684
 9798SOL    HW231228   6.549  12.006   5.697
 9799SOL     OW31229   5.609  11.444  11.073
 9799SOL    HW131230   5.590  11.389  11.149
 9799SOL    HW231231   5.682  11.400  11.030
 9800SOL     OW31232  14.146   8.435   0.453
 9800SOL    HW131233  14.090   8.394   0.386
 9800SOL    HW231234  14.228   8.452   0.408
 9801SOL     OW31235   5.691  13.439   0.631
 9801SOL    HW131236   5.615  13.384   0.652
 9801SOL    HW231237   5.752  13.424   0.703
 9802SOL     OW31238   2.423  13.317   8.509
 9802SOL    HW131239   2.393  13.253   8.574
 9802SOL    HW231240   2.456  13.390   8.561
 9803SOL     OW31241   8.408   1.418   6.656
 9803SOL    HW131242   8.493   1.433   6.698
 9803SOL    HW231243   8.410   1.325   6.631
 9804SOL     OW31244   2.972  13.406  10.039
 9804SOL    HW131245   3.031  13.389   9.965
 9804SOL    HW231246   3.031  13.431  10.110
 9805SOL     OW31247   2.293   3.341   8.261
 9805SOL    HW131248   2.286   3.297   8.176
 9805SOL    HW231249   2.269   3.273   8.325
 9806SOL     OW31250   3.182   5.025  11.641
 9806SOL    HW131251   3.231   5.100  11.674
 9806SOL    HW231252   3.168   5.045  11.548
 9807SOL     OW31253   2.150   6.285   2.770
 9807SOL    HW131254   2.063   6.325   2.763
 9807SOL    HW231255   2.134   6.203   2.817
 9808SOL     OW31256  13.195  12.982   5.739
 9808SOL    HW131257  13.275  12.958   5.786
 9808SOL    HW231258  13.129  12.991   5.807
 9809SOL     OW31259   9.439  14.588  14.298
 9809SOL    HW131260   9.355  14.543  14.282
 9809SOL    HW231261   9.414  14.673  14.333
 9810SOL     OW31262   9.580   3.976   9.984
 9810SOL    HW131263   9.606   3.975  10.076
 9810SOL    HW231264   9.527   3.897   9.973
 9811SOL     OW31265   8.824  10.846   3.240
 9811SOL    HW131266   8.766  10.840   3.164
 9811SOL    HW231267   8.800  10.771   3.295
 9812SOL     OW31268  11.587  11.883  11.747
 9812SOL    HW131269  11.629  11.936  11.679
 9812SOL    HW231270  11.634  11.905  11.828
 9813SOL     OW31271  10.867  14.365  11.860
 9813SOL    HW131272  10.911  14.333  11.940
 9813SOL    HW231273  10.776  14.339  11.871
 9814SOL     OW31274   6.445   1.443  10.034
 9814SOL    HW131275   6.352   1.427  10.052
 9814SOL    HW231276   6.453   1.538  10.033
 9815SOL     OW31277  13.577  10.533   3.993
 9815SOL    HW131278  13.543  10.447   4.016
 9815SOL    HW231279  13.672  10.521   3.992
 9816SOL     OW31280   7.238   9.042  12.856
 9816SOL    HW131281   7.283   9.126  12.845
 9816SOL    HW231282   7.268   9.010  12.941
 9817SOL     OW31283   4.625   7.804  11.890
 9817SOL    HW131284   4.550   7.799  11.831
 9817SOL    HW231285   4.587   7.804  11.978
 9818SOL     OW31286  13.592  11.515  14.583
 9818SOL    HW131287  13.685  11.500  14.601
 9818SOL    HW231288  13.585  11.511  14.488
 9819SOL     OW31289   4.257  10.839   9.204
 9819SOL    HW131290   4.222  10.912   9.256
 9819SOL    HW231291   4.323  10.879   9.148
 9820SOL     OW31292   0.609   7.133  12.589
 9820SOL    HW131293   0.533   7.191  12.582
 9820SOL    HW231294   0.652   7.160  12.670
 9821SOL     OW31295   0.226  10.074   1.188
 9821SOL    HW131296   0.224  10.117   1.102
 9821SOL    HW231297   0.248  10.143   1.249
 9822SOL     OW31298   2.889   3.308  14.393
 9822SOL    HW131299   2.938   3.375  14.345
 9822SOL    HW231300   2.803   3.347  14.408
 9823SOL     OW31301   5.637   0.235   5.486
 9823SOL    HW131302   5.630   0.323   5.450
 9823SOL    HW231303   5.727   0.208   5.465
 9824SOL     OW31304   0.747   0.440   9.222
 9824SOL    HW131305   0.729   0.405   9.309
 9824SOL    HW231306   0.837   0.412   9.203
 9825SOL     OW31307   7.012   4.298   2.630
 9825SOL    HW131308   7.049   4.242   2.698
 9825SOL    HW231309   6.995   4.381   2.675
 9826SOL     OW31310   8.865  12.193   3.741
 9826SOL    HW131311   8.859  12.168   3.834
 9826SOL    HW231312   8.913  12.275   3.741
 9827SOL     OW31313  13.697   4.588   7.490
 9827SOL    HW131314  13.763   4.555   7.428
 9827SOL    HW231315  13.658   4.663   7.446
 9828SOL     OW31316   0.704   3.751  12.598
 9828SOL    HW131317   0.712   3.703  12.515
 9828SOL    HW231318   0.637   3.704  12.647
 9829SOL     OW31319  11.428   8.109  13.599
 9829SOL    HW131320  11.348   8.116  13.549
 9829SOL    HW231321  11.438   8.195  13.641
 9830SOL     OW31322   2.704  10.360  12.987
 9830SOL    HW131323   2.671  10.336  13.074
 9830SOL    HW231324   2.779  10.416  13.004
 9831SOL     OW31325  12.575   3.005  13.140
 9831SOL    HW131326  12.600   3.021  13.231
 9831SOL    HW231327  12.627   2.929  13.114
 9832SOL     OW31328   8.251  13.707  14.560
 9832SOL    HW131329   8.321  13.719  14.624
 9832SOL    HW231330   8.180  13.764  14.590
 9833SOL     OW31331  13.045   1.680  10.218
 9833SOL    HW131332  13.129   1.639  10.197
 9833SOL    HW231333  12.981   1.609  10.211
 9834SOL     OW31334  13.921  14.293  14.044
 9834SOL    HW131335  13.889  14.373  14.002
 9834SOL    HW231336  13.925  14.228  13.974
 9835SOL     OW31337   3.972   1.265   5.595
 9835SOL    HW131338   4.062   1.296   5.584
 9835SOL    HW231339   3.981   1.173   5.622
 9836SOL     OW31340   3.395   3.206   7.019
 9836SOL    HW131341   3.484   3.237   7.032
 9836SOL    HW231342   3.365   3.181   7.107
 9837SOL     OW31343  12.491   4.860   9.584
 9837SOL    HW131344  12.551   4.796   9.547
 9837SOL    HW231345  12.446   4.899   9.509
 9838SOL     OW31346   1.898   8.895   8.117
 9838SOL    HW131347   1.943   8.815   8.090
 9838SOL    HW231348   1.961   8.941   8.171
 9839SOL     OW31349   3.989   6.661   8.961
 9839SOL    HW131350   3.931   6.700   9.027
 9839SOL    HW231351   3.951   6.574   8.945
 9840SOL     OW31352   8.666  14.477   8.644
 9840SOL    HW131353   8.672  14.437   8.731
 9840SOL    HW231354   8.734  14.432   8.593
 9841SOL     OW31355   9.034   1.020   7.104
 9841SOL    HW131356   9.110   1.076   7.088
 9841SOL    HW231357   8.990   1.015   7.020
 9842SOL     OW31358   6.694   0.733  10.628
 9842SOL    HW131359   6.654   0.756  10.712
 9842SOL    HW231360   6.621   0.730  10.566
 9843SOL     OW31361  14.076   3.459  14.050
 9843SOL    HW131362  14.054   3.544  14.088
 9843SOL    HW231363  14.052   3.467  13.958
 9844SOL     OW31364   1.406   3.907   2.302
 9844SOL    HW131365   1.372   3.976   2.360
 9844SOL    HW231366   1.378   3.934   2.214
 9845SOL     OW31367  11.976   9.333   1.614
 9845SOL    HW131368  11.973   9.403   1.549
 9845SOL    HW231369  11.953   9.254   1.564
 9846SOL     OW31370   4.525   3.698   7.069
 9846SOL    HW131371   4.440   3.729   7.037
 9846SOL    HW231372   4.585   3.715   6.996
 9847SOL     OW31373  11.669   0.438   0.562
 9847SOL    HW131374  11.761   0.431   0.590
 9847SOL    HW231375  11.624   0.370   0.612
 9848SOL     OW31376  14.490  12.203   7.842
 9848SOL    HW131377  14.467  12.275   7.901
 9848SOL    HW231378  14.550  12.149   7.892
 9849SOL     OW31379   5.627  14.816   2.107
 9849SOL    HW131380   5.619   0.011   2.046
 9849SOL    HW231381   5.650  14.856   2.191
 9850SOL     OW31382   6.670   0.182   0.687
 9850SOL    HW131383   6.599   0.227   0.733
 9850SOL    HW231384   6.748   0.200   0.740
 9851SOL     OW31385  14.084   5.215   2.040
 9851SOL    HW131386  14.108   5.166   1.962
 9851SOL    HW231387  13.990   5.228   2.033
 9852SOL     OW31388   2.943   9.628   3.517
 9852SOL    HW131389   2.887   9.581   3.578
 9852SOL    HW231390   3.022   9.573   3.510
 9853SOL     OW31391  11.466  12.420   6.461
 9853SOL    HW131392  11.507  12.383   6.383
 9853SOL    HW231393  11.376  12.388   6.458
 9854SOL     OW31394  13.455  14.656   6.189
 9854SOL    HW131395  13.513  14.627   6.119
 9854SOL    HW231396  13.405  14.729   6.151
 9855SOL     OW31397   1.423   1.594  14.726
 9855SOL    HW131398   1.448   1.584  14.818
 9855SOL    HW231399   1.481   1.534  14.679
 9856SOL     OW31400   9.811   1.165   4.430
 9856SOL    HW131401   9.832   1.169   4.337
 9856SOL    HW231402   9.823   1.255   4.461
 9857SOL     OW31403  11.816  13.377   4.571
 9857SOL    HW131404  11.815  13.385   4.476
 9857SOL    HW231405  11.743  13.319   4.592
 9858SOL     OW31406   3.239   1.402  13.270
 9858SOL    HW131407   3.216   1.484  13.226
 9858SOL    HW231408   3.164   1.384  13.327
 9859SOL     OW31409   3.948  12.947   7.913
 9859SOL    HW131410   4.003  12.872   7.889
 9859SOL    HW231411   3.939  12.939   8.008
 9860SOL     OW31412   2.102   4.594   6.386
 9860SOL    HW131413   2.077   4.642   6.308
 9860SOL    HW231414   2.086   4.655   6.458
 9861SOL     OW31415   8.053   5.583  13.613
 9861SOL    HW131416   8.082   5.644  13.546
 9861SOL    HW231417   7.967   5.554  13.584
 9862SOL     OW31418   1.944   1.094   2.392
 9862SOL    HW131419   1.865   1.080   2.340
 9862SOL    HW231420   1.918   1.154   2.462
 9863SOL     OW31421   1.841   7.652  11.960
 9863SOL    HW131422   1.853   7.647  11.865
 9863SOL    HW231423   1.798   7.569  11.983
 9864SOL     OW31424  12.643   6.106   2.368
 9864SOL    HW131425  12.726   6.103   2.415
 9864SOL    HW231426  12.661   6.163   2.293
 9865SOL     OW31427   0.557   8.355   6.890
 9865SOL    HW131428   0.578   8.390   6.804
 9865SOL    HW231429   0.583   8.424   6.951
 9866SOL     OW31430  10.464   5.683  11.579
 9866SOL    HW131431  10.413   5.763  11.595
 9866SOL    HW231432  10.421   5.641  11.505
 9867SOL     OW31433  12.307  14.042   1.102
 9867SOL    HW131434  12.302  14.037   1.006
 9867SOL    HW231435  12.392  14.083   1.119
 9868SOL     OW31436   8.823   4.390   1.045
 9868SOL    HW131437   8.758   4.447   1.003
 9868SOL    HW231438   8.790   4.301   1.029
 9869SOL     OW31439  14.108  13.341   2.354
 9869SOL    HW131440  14.046  13.277   2.320
 9869SOL    HW231441  14.055  13.417   2.377
 9870SOL     OW31442   0.592   1.977   3.191
 9870SOL    HW131443   0.582   2.065   3.155
 9870SOL    HW231444   0.663   1.985   3.255
 9871SOL     OW31445   2.163   1.147  11.343
 9871SOL    HW131446   2.125   1.103  11.267
 9871SOL    HW231447   2.256   1.155  11.323
 9872SOL     OW31448  10.091  11.878   0.241
 9872SOL    HW131449  10.072  11.802   0.296
 9872SOL    HW231450  10.006  11.922   0.230
 9873SOL     OW31451  14.657   4.855  13.369
 9873SOL    HW131452  14.717   4.850  13.443
 9873SOL    HW231453  14.583   4.907  13.401
 9874SOL     OW31454  10.495  14.746   2.387
 9874SOL    HW131455  10.570  14.804   2.403
 9874SOL    HW231456  10.454  14.781   2.308
 9875SOL     OW31457  13.215   1.600  13.703
 9875SOL    HW131458  13.144   1.539  13.684
 9875SOL    HW231459  13.191   1.680  13.658
 9876SOL     OW31460   5.130   9.994   2.216
 9876SOL    HW131461   5.106  10.069   2.270
 9876SOL    HW231462   5.206   9.956   2.260
 9877SOL     OW31463   4.462   3.504   2.786
 9877SOL    HW131464   4.425   3.480   2.701
 9877SOL    HW231465   4.390   3.495   2.848
 9878SOL     OW31466  12.968  14.369   5.034
 9878SOL    HW131467  12.875  14.369   5.057
 9878SOL    HW231468  13.007  14.304   5.094
 9879SOL     OW31469   8.287   3.621   4.480
 9879SOL    HW131470   8.195   3.646   4.471
 9879SOL    HW231471   8.305   3.628   4.574
 9880SOL     OW31472   2.468   7.105   7.903
 9880SOL    HW131473   2.440   7.107   7.812
 9880SOL    HW231474   2.413   7.170   7.947
 9881SOL     OW31475   4.599   1.534  14.866
 9881SOL    HW131476   4.653   1.611  14.849
 9881SOL    HW231477   4.523   1.567   0.034
 9882SOL     OW31478   0.935   6.829   5.440
 9882SOL    HW131479   0.850   6.836   5.483
 9882SOL    HW231480   0.940   6.907   5.384
 9883SOL     OW31481   3.844  10.029   4.741
 9883SOL    HW131482   3.919  10.043   4.683
 9883SOL    HW231483   3.818   9.938   4.725
 9884SOL     OW31484   4.856  12.018   4.655
 9884SOL    HW131485   4.918  11.952   4.685
 9884SOL    HW231486   4.808  11.975   4.584
 9885SOL     OW31487   5.109   5.117   5.407
 9885SOL    HW131488   5.175   5.053   5.431
 9885SOL    HW231489   5.120   5.188   5.470
 9886SOL     OW31490   5.947   6.700   3.185
 9886SOL    HW131491   5.935   6.646   3.263
 9886SOL    HW231492   5.908   6.648   3.114
 9887SOL     OW31493   1.434   1.963  10.871
 9887SOL    HW131494   1.373   1.990  10.940
 9887SOL    HW231495   1.445   1.869  10.886
 9888SOL     OW31496  11.602   5.683  13.548
 9888SOL    HW131497  11.649   5.753  13.593
 9888SOL    HW231498  11.511   5.711  13.550
 9889SOL     OW31499  10.468  11.082   0.856
 9889SOL    HW131500  10.506  11.056   0.772
 9889SOL    HW231501  10.417  11.006   0.884
 9890SOL     OW31502  11.916  10.598   5.545
 9890SOL    HW131503  11.956  10.584   5.631
 9890SOL    HW231504  11.964  10.672   5.508
 9891SOL     OW31505  11.506  11.984   6.866
 9891SOL    HW131506  11.466  11.905   6.831
 9891SOL    HW231507  11.439  12.052   6.854
 9892SOL     OW31508  10.372   8.753  10.854
 9892SOL    HW131509  10.377   8.834  10.804
 9892SOL    HW231510  10.329   8.777  10.936
 9893SOL     OW31511  11.724  13.317  10.177
 9893SOL    HW131512  11.766  13.310  10.263
 9893SOL    HW231513  11.689  13.406  10.175
 9894SOL     OW31514   6.996   5.993   9.649
 9894SOL    HW131515   6.905   6.021   9.640
 9894SOL    HW231516   7.006   5.920   9.588
 9895SOL     OW31517   0.447   9.520  10.137
 9895SOL    HW131518   0.407   9.602  10.166
 9895SOL    HW231519   0.534   9.521  10.177
 9896SOL     OW31520   3.014   3.421   5.884
 9896SOL    HW131521   2.986   3.407   5.975
 9896SOL    HW231522   2.945   3.474   5.845
 9897SOL     OW31523  14.076  10.869   1.263
 9897SOL    HW131524  14.085  10.901   1.173
 9897SOL    HW231525  14.032  10.784   1.253
 9898SOL     OW31526  12.941   9.371   0.996
 9898SOL    HW131527  12.980   9.415   1.071
 9898SOL    HW231528  12.978   9.416   0.920
 9899SOL     OW31529   4.887   0.595   2.873
 9899SOL    HW131530   4.950   0.592   2.945
 9899SOL    HW231531   4.850   0.507   2.870
 9900SOL     OW31532   2.100   2.472   2.310
 9900SOL    HW131533   2.083   2.528   2.234
 9900SOL    HW231534   2.093   2.530   2.385
 9901SOL     OW31535  11.673   9.432   8.867
 9901SOL    HW131536  11.650   9.467   8.954
 9901SOL    HW231537  11.669   9.508   8.809
 9902SOL     OW31538   6.377   9.956   4.292
 9902SOL    HW131539   6.344   9.921   4.375
 9902SOL    HW231540   6.350   9.891   4.227
 9903SOL     OW31541   6.580   9.004   5.937
 9903SOL    HW131542   6.596   9.013   6.031
 9903SOL    HW231543   6.531   9.083   5.913
 9904SOL     OW31544   0.250   2.633  13.733
 9904SOL    HW131545   0.228   2.617  13.825
 9904SOL    HW231546   0.240   2.727  13.723
 9905SOL     OW31547   2.253   3.806  12.811
 9905SOL    HW131548   2.309   3.730  12.825
 9905SOL    HW231549   2.193   3.779  12.741
 9906SOL     OW31550   7.687   6.590  11.197
 9906SOL    HW131551   7.695   6.678  11.159
 9906SOL    HW231552   7.745   6.592  11.273
 9907SOL     OW31553   1.677   1.212  12.988
 9907SOL    HW131554   1.733   1.141  13.017
 9907SOL    HW231555   1.588   1.182  13.008
 9908SOL     OW31556   8.572   2.944   9.371
 9908SOL    HW131557   8.593   2.948   9.277
 9908SOL    HW231558   8.478   2.959   9.374
 9909SOL     OW31559   2.444   5.219   3.006
 9909SOL    HW131560   2.509   5.285   3.030
 9909SOL    HW231561   2.474   5.187   2.920
 9910SOL     OW31562   5.220   7.999   9.998
 9910SOL    HW131563   5.140   7.957   9.965
 9910SOL    HW231564   5.191   8.086  10.028
 9911SOL     OW31565   9.314  12.525  12.039
 9911SOL    HW131566   9.252  12.453  12.036
 9911SOL    HW231567   9.304  12.570  11.955
 9912SOL     OW31568   0.716  13.709  14.599
 9912SOL    HW131569   0.783  13.667  14.545
 9912SOL    HW231570   0.753  13.708  14.688
 9913SOL     OW31571  11.212  13.169   9.341
 9913SOL    HW131572  11.141  13.201   9.287
 9913SOL    HW231573  11.174  13.096   9.391
 9914SOL     OW31574   0.830   5.753  12.520
 9914SOL    HW131575   0.917   5.718  12.504
 9914SOL    HW231576   0.825   5.761  12.615
 9915SOL     OW31577   2.954   7.139  13.724
 9915SOL    HW131578   2.919   7.209  13.669
 9915SOL    HW231579   3.049   7.154  13.724
 9916SOL     OW31580   0.650   8.203  12.979
 9916SOL    HW131581   0.727   8.240  12.936
 9916SOL    HW231582   0.679   8.185  13.068
 9917SOL     OW31583   1.509   2.300   4.142
 9917SOL    HW131584   1.464   2.248   4.075
 9917SOL    HW231585   1.536   2.379   4.096
 9918SOL     OW31586  13.429   1.889  14.464
 9918SOL    HW131587  13.440   1.928  14.378
 9918SOL    HW231588  13.370   1.949  14.510
 9919SOL     OW31589   5.038   0.392  11.886
 9919SOL    HW131590   4.987   0.312  11.873
 9919SOL    HW231591   5.036   0.436  11.801
 9920SOL     OW31592  14.135  11.490   0.904
 9920SOL    HW131593  14.113  11.436   0.829
 9920SOL    HW231594  14.081  11.568   0.895
 9921SOL     OW31595   9.125  14.320   2.739
 9921SOL    HW131596   9.191  14.264   2.698
 9921SOL    HW231597   9.160  14.409   2.730
 9922SOL     OW31598   1.372   0.805  11.579
 9922SOL    HW131599   1.374   0.797  11.483
 9922SOL    HW231600   1.296   0.752  11.605
 9923SOL     OW31601   9.313  13.577   5.750
 9923SOL    HW131602   9.362  13.501   5.719
 9923SOL    HW231603   9.223  13.546   5.760
 9924SOL     OW31604  13.588   8.869  12.647
 9924SOL    HW131605  13.645   8.945  12.661
 9924SOL    HW231606  13.515   8.903  12.596
 9925SOL     OW31607  10.049   6.567   8.622
 9925SOL    HW131608  10.006   6.540   8.703
 9925SOL    HW231609  10.143   6.568   8.643
 9926SOL     OW31610  10.209  13.799   6.781
 9926SOL    HW131611  10.217  13.709   6.750
 9926SOL    HW231612  10.253  13.851   6.713
 9927SOL     OW31613   6.693   5.105   3.751
 9927SOL    HW131614   6.699   5.042   3.679
 9927SOL    HW231615   6.634   5.172   3.719
 9928SOL     OW31616   2.091   5.224   8.350
 9928SOL    HW131617   2.102   5.301   8.406
 9928SOL    HW231618   2.180   5.197   8.329
 9929SOL     OW31619   4.093  11.982   4.782
 9929SOL    HW131620   4.158  12.051   4.790
 9929SOL    HW231621   4.068  11.982   4.690
 9930SOL     OW31622   8.686   3.395   6.544
 9930SOL    HW131623   8.702   3.303   6.522
 9930SOL    HW231624   8.620   3.424   6.482
 9931SOL     OW31625   1.573   7.806   9.515
 9931SOL    HW131626   1.538   7.790   9.428
 9931SOL    HW231627   1.628   7.729   9.534
 9932SOL     OW31628  13.240   1.017   9.565
 9932SOL    HW131629  13.250   1.108   9.538
 9932SOL    HW231630  13.150   0.994   9.540
 9933SOL     OW31631  13.444  10.412   4.766
 9933SOL    HW131632  13.381  10.446   4.703
 9933SOL    HW231633  13.516  10.377   4.712
 9934SOL     OW31634   0.958  11.760   7.459
 9934SOL    HW131635   0.871  11.744   7.495
 9934SOL    HW231636   1.018  11.741   7.531
 9935SOL     OW31637  10.179   9.400   6.203
 9935SOL    HW131638  10.151   9.468   6.141
 9935SOL    HW231639  10.215   9.449   6.277
 9936SOL     OW31640   9.934   8.660   3.586
 9936SOL    HW131641  10.001   8.707   3.536
 9936SOL    HW231642   9.873   8.728   3.614
 9937SOL     OW31643   6.981  13.775   6.816
 9937SOL    HW131644   6.909  13.777   6.753
 9937SOL    HW231645   6.941  13.799   6.899
 9938SOL     OW31646  10.882  10.444  13.945
 9938SOL    HW131647  10.899  10.529  13.906
 9938SOL    HW231648  10.951  10.387  13.910
 9939SOL     OW31649   3.417  13.086   4.531
 9939SOL    HW131650   3.367  13.013   4.569
 9939SOL    HW231651   3.499  13.046   4.505
 9940SOL     OW31652   4.394  10.886   9.674
 9940SOL    HW131653   4.415  10.945   9.601
 9940SOL    HW231654   4.448  10.917   9.746
 9941SOL     OW31655  13.432   9.139  14.797
 9941SOL    HW131656  13.488   9.071  14.835
 9941SOL    HW231657  13.477   9.164  14.717
 9942SOL     OW31658  10.952   3.283   8.891
 9942SOL    HW131659  10.900   3.212   8.930
 9942SOL    HW231660  10.914   3.362   8.928
 9943SOL     OW31661   6.959  10.396   5.007
 9943SOL    HW131662   6.958  10.439   5.092
 9943SOL    HW231663   6.981  10.305   5.026
 9944SOL     OW31664  12.613   7.524   5.589
 9944SOL    HW131665  12.640   7.591   5.652
 9944SOL    HW231666  12.652   7.443   5.622
 9945SOL     OW31667   7.359   1.645   8.410
 9945SOL    HW131668   7.445   1.622   8.376
 9945SOL    HW231669   7.371   1.650   8.505
 9946SOL     OW31670  11.159  11.740   9.527
 9946SOL    HW131671  11.224  11.809   9.539
 9946SOL    HW231672  11.199  11.678   9.466
 9947SOL     OW31673  14.432   8.273   6.094
 9947SOL    HW131674  14.400   8.333   6.026
 9947SOL    HW231675  14.365   8.275   6.162
 9948SOL     OW31676   2.632   2.674   3.165
 9948SOL    HW131677   2.679   2.707   3.242
 9948SOL    HW231678   2.618   2.752   3.112
 9949SOL     OW31679   4.593   9.616   6.978
 9949SOL    HW131680   4.679   9.654   6.997
 9949SOL    HW231681   4.536   9.692   6.967
 9950SOL     OW31682   4.609  14.503   6.619
 9950SOL    HW131683   4.542  14.522   6.553
 9950SOL    HW231684   4.692  14.514   6.573
 9951SOL     OW31685  11.251   8.400   6.481
 9951SOL    HW131686  11.261   8.364   6.392
 9951SOL    HW231687  11.326   8.365   6.529
 9952SOL     OW31688   0.447  14.514  11.283
 9952SOL    HW131689   0.523  14.565  11.254
 9952SOL    HW231690   0.434  14.449  11.215
 9953SOL     OW31691   0.527   9.082   8.740
 9953SOL    HW131692   0.540   9.136   8.818
 9953SOL    HW231693   0.593   9.113   8.678
 9954SOL     OW31694   7.592   5.377  12.880
 9954SOL    HW131695   7.557   5.439  12.815
 9954SOL    HW231696   7.606   5.296  12.830
 9955SOL     OW31697  11.411   0.478   3.281
 9955SOL    HW131698  11.453   0.537   3.343
 9955SOL    HW231699  11.321   0.511   3.274
 9956SOL     OW31700   3.487   4.458   9.730
 9956SOL    HW131701   3.420   4.507   9.778
 9956SOL    HW231702   3.439   4.414   9.660
 9957SOL     OW31703  14.675   8.803  14.310
 9957SOL    HW131704  14.644   8.823  14.222
 9957SOL    HW231705  14.715   8.884  14.341
 9958SOL     OW31706   5.182   7.032   8.251
 9958SOL    HW131707   5.255   6.993   8.203
 9958SOL    HW231708   5.128   7.073   8.184
 9959SOL     OW31709   9.885   7.590  11.029
 9959SOL    HW131710   9.925   7.675  11.049
 9959SOL    HW231711   9.934   7.527  11.082
 9960SOL     OW31712  13.584  14.362   1.014
 9960SOL    HW131713  13.615  14.319   1.093
 9960SOL    HW231714  13.575  14.454   1.039
 9961SOL     OW31715  14.003   2.612   8.906
 9961SOL    HW131716  14.024   2.659   8.986
 9961SOL    HW231717  14.053   2.658   8.838
 9962SOL     OW31718   9.692   8.071   8.145
 9962SOL    HW131719   9.761   8.072   8.078
 9962SOL    HW231720   9.661   7.981   8.146
 9963SOL     OW31721   3.173  12.971   1.077
 9963SOL    HW131722   3.133  12.923   1.150
 9963SOL    HW231723   3.154  13.063   1.096
 9964SOL     OW31724  10.091   1.812   5.345
 9964SOL    HW131725  10.148   1.783   5.416
 9964SOL    HW231726  10.092   1.907   5.350
 9965SOL     OW31727   5.696  13.621  13.456
 9965SOL    HW131728   5.620  13.575  13.491
 9965SOL    HW231729   5.712  13.692  13.518
 9966SOL     OW31730   2.416   9.806  13.518
 9966SOL    HW131731   2.374   9.793  13.433
 9966SOL    HW231732   2.363   9.754  13.579
 9967SOL     OW31733  10.099  12.489  10.198
 9967SOL    HW131734  10.124  12.402  10.229
 9967SOL    HW231735  10.007  12.498  10.224
 9968SOL     OW31736  14.047   2.933   9.025
 9968SOL    HW131737  14.057   3.018   9.069
 9968SOL    HW231738  13.974   2.947   8.964
 9969SOL     OW31739   3.869   9.052   1.650
 9969SOL    HW131740   3.780   9.073   1.678
 9969SOL    HW231741   3.886   9.110   1.576
 9970SOL     OW31742  11.272  11.702   3.321
 9970SOL    HW131743  11.204  11.662   3.375
 9970SOL    HW231744  11.288  11.639   3.251
 9971SOL     OW31745   4.431  12.537  10.970
 9971SOL    HW131746   4.371  12.594  10.922
 9971SOL    HW231747   4.517  12.579  10.962
 9972SOL     OW31748  11.723  10.174   2.995
 9972SOL    HW131749  11.769  10.123   3.062
 9972SOL    HW231750  11.741  10.128   2.913
 9973SOL     OW31751   2.662   5.960   5.051
 9973SOL    HW131752   2.584   5.911   5.023
 9973SOL    HW231753   2.644   6.050   5.025
 9974SOL     OW31754  10.399   0.300   7.866
 9974SOL    HW131755  10.318   0.264   7.831
 9974SOL    HW231756  10.416   0.378   7.812
 9975SOL     OW31757  10.058   7.677   5.397
 9975SOL    HW131758  10.106   7.696   5.477
 9975SOL    HW231759  10.072   7.583   5.383
 9976SOL     OW31760   9.200  13.791   1.408
 9976SOL    HW131761   9.119  13.741   1.391
 9976SOL    HW231762   9.231  13.759   1.492
 9977SOL     OW31763  13.244  10.667   0.657
 9977SOL    HW131764  13.335  10.646   0.640
 9977SOL    HW231765  13.239  10.678   0.752
 9978SOL     OW31766  11.094   8.581  11.486
 9978SOL    HW131767  11.045   8.511  11.528
 9978SOL    HW231768  11.136   8.539  11.411
 9979SOL     OW31769   4.947   0.307   1.911
 9979SOL    HW131770   4.977   0.228   1.955
 9979SOL    HW231771   4.867   0.332   1.959
 9980SOL     OW31772  13.078  14.698   2.702
 9980SOL    HW131773  13.034  14.627   2.750
 9980SOL    HW231774  13.120  14.654   2.628
 9981SOL     OW31775   5.675  14.121  11.468
 9981SOL    HW131776   5.742  14.190  11.470
 9981SOL    HW231777   5.678  14.087  11.379
 9982SOL     OW31778   2.157  14.258   4.348
 9982SOL    HW131779   2.201  14.269   4.264
 9982SOL    HW231780   2.191  14.329   4.403
 9983SOL     OW31781   0.507   5.081   1.419
 9983SOL    HW131782   0.539   5.043   1.337
 9983SOL    HW231783   0.500   5.174   1.401
 9984SOL     OW31784   7.056  14.082  13.442
 9984SOL    HW131785   7.013  14.101  13.526
 9984SOL    HW231786   6.986  14.047  13.387
 9985SOL     OW31787  11.672   0.452   1.209
 9985SOL    HW131788  11.624   0.532   1.188
 9985SOL    HW231789  11.759   0.483   1.236
 9986SOL     OW31790  10.928   0.801   2.473
 9986SOL    HW131791  10.980   0.759   2.406
 9986SOL    HW231792  10.851   0.834   2.427
 9987SOL     OW31793   2.908   4.420  11.819
 9987SOL    HW131794   2.914   4.501  11.870
 9987SOL    HW231795   2.979   4.365  11.852
 9988SOL     OW31796   8.112  11.000   1.596
 9988SOL    HW131797   8.028  11.005   1.552
 9988SOL    HW231798   8.170  10.957   1.533
 9989SOL     OW31799   5.078  11.193  14.162
 9989SOL    HW131800   5.038  11.247  14.231
 9989SOL    HW231801   5.115  11.257  14.101
 9990SOL     OW31802   5.823  12.143   7.617
 9990SOL    HW131803   5.846  12.184   7.533
 9990SOL    HW231804   5.873  12.062   7.619
 9991SOL     OW31805   0.203   2.481   0.677
 9991SOL    HW131806   0.130   2.419   0.673
 9991SOL    HW231807   0.190   2.538   0.601
 9992SOL     OW31808   7.523   8.540   2.193
 9992SOL    HW131809   7.564   8.475   2.136
 9992SOL    HW231810   7.461   8.586   2.136
 9993SOL     OW31811   3.450  12.968   5.050
 9993SOL    HW131812   3.380  12.940   5.109
 9993SOL    HW231813   3.523  12.987   5.108
 9994SOL     OW31814   2.417   8.738  13.125
 9994SOL    HW131815   2.328   8.714  13.151
 9994SOL    HW231816   2.435   8.684  13.048
 9995SOL     OW31817   8.565   5.604  14.712
 9995SOL    HW131818   8.478   5.611  14.671
 9995SOL    HW231819   8.621   5.660  14.658
 9996SOL     OW31820  11.159   3.017   0.638
 9996SOL    HW131821  11.118   2.966   0.568
 9996SOL    HW231822  11.108   3.098   0.641
 9997SOL     OW31823   2.353  10.040   8.603
 9997SOL    HW131824   2.445  10.016   8.618
 9997SOL    HW231825   2.326   9.988   8.528
 9998SOL     OW31826   9.396  10.833   5.555
 9998SOL    HW131827   9.368  10.741   5.557
 9998SOL    HW231828   9.315  10.883   5.560
 9999SOL     OW31829   3.929  10.453   0.872
 9999SOL    HW131830   4.012  10.445   0.919
 9999SOL    HW231831   3.885  10.527   0.913
10000SOL     OW31832  12.140   1.840   4.871
10000SOL    HW131833  12.055   1.882   4.883
10000SOL    HW231834  12.119   1.752   4.840
10001SOL     OW31835  13.732  11.907   0.042
10001SOL    HW131836  13.746  11.963  14.844
10001SOL    HW231837  13.699  11.825   0.005
10002SOL     OW31838   7.896   1.027   7.617
10002SOL    HW131839   7.937   0.981   7.543
10002SOL    HW231840   7.932   0.984   7.694
10003SOL     OW31841   7.786   5.808   9.851
10003SOL    HW131842   7.761   5.757   9.928
10003SOL    HW231843   7.755   5.897   9.870
10004SOL     OW31844   3.171   0.253   1.166
10004SOL    HW131845   3.138   0.165   1.152
10004SOL    HW231846   3.262   0.241   1.193
10005SOL     OW31847   0.514   2.130   5.113
10005SOL    HW131848   0.483   2.212   5.151
10005SOL    HW231849   0.457   2.115   5.038
10006SOL     OW31850   6.703   7.157   1.032
10006SOL    HW131851   6.691   7.219   1.104
10006SOL    HW231852   6.770   7.198   0.977
10007SOL     OW31853  11.096   3.717   9.555
10007SOL    HW131854  11.065   3.807   9.546
10007SOL    HW231855  11.071   3.691   9.643
10008SOL     OW31856   3.517   1.991   0.111
10008SOL    HW131857   3.431   2.017   0.079
10008SOL    HW231858   3.530   1.903   0.076
10009SOL     OW31859   4.858   0.993   4.665
10009SOL    HW131860   4.925   0.977   4.731
10009SOL    HW231861   4.903   0.979   4.581
10010SOL     OW31862   8.989  12.987  14.357
10010SOL    HW131863   9.021  12.957  14.442
10010SOL    HW231864   8.982  12.907  14.305
10011SOL     OW31865   1.784  12.633   3.426
10011SOL    HW131866   1.698  12.670   3.413
10011SOL    HW231867   1.774  12.540   3.407
10012SOL     OW31868  12.779  12.361   2.821
10012SOL    HW131869  12.770  12.266   2.833
10012SOL    HW231870  12.721  12.382   2.748
10013SOL     OW31871   5.979   2.211  11.759
10013SOL    HW131872   6.065   2.247  11.735
10013SOL    HW231873   5.998   2.149  11.830
10014SOL     OW31874  11.919   1.297  11.141
10014SOL    HW131875  11.988   1.334  11.087
10014SOL    HW231876  11.839   1.311  11.090
10015SOL     OW31877   6.518   7.803   5.056
10015SOL    HW131878   6.480   7.717   5.071
10015SOL    HW231879   6.595   7.805   5.113
10016SOL     OW31880  11.652   0.381   7.717
10016SOL    HW131881  11.719   0.429   7.766
10016SOL    HW231882  11.582   0.364   7.780
10017SOL     OW31883   3.607  13.135   7.928
10017SOL    HW131884   3.593  13.062   7.869
10017SOL    HW231885   3.668  13.192   7.881
10018SOL     OW31886   7.232   5.509  12.132
10018SOL    HW131887   7.196   5.421  12.123
10018SOL    HW231888   7.260   5.514  12.224
10019SOL     OW31889   8.738   6.986   3.418
10019SOL    HW131890   8.651   7.016   3.393
10019SOL    HW231891   8.734   6.975   3.513
10020SOL     OW31892   4.398   1.398   4.517
10020SOL    HW131893   4.408   1.319   4.464
10020SOL    HW231894   4.317   1.438   4.486
10021SOL     OW31895   4.192   0.636   1.065
10021SOL    HW131896   4.161   0.617   0.977
10021SOL    HW231897   4.258   0.569   1.083
10022SOL     OW31898   2.429   0.803   6.254
10022SOL    HW131899   2.420   0.869   6.186
10022SOL    HW231900   2.398   0.722   6.214
10023SOL     OW31901   7.812   6.364   4.994
10023SOL    HW131902   7.812   6.440   5.052
10023SOL    HW231903   7.900   6.327   5.002
10024SOL     OW31904   8.832   0.819   2.647
10024SOL    HW131905   8.890   0.892   2.626
10024SOL    HW231906   8.883   0.767   2.710
10025SOL     OW31907   8.916  14.317   5.741
10025SOL    HW131908   8.862  14.262   5.799
10025SOL    HW231909   8.861  14.330   5.664
10026SOL     OW31910  11.674  12.199   9.812
10026SOL    HW131911  11.642  12.280   9.852
10026SOL    HW231912  11.635  12.129   9.864
10027SOL     OW31913   6.990   4.453   6.101
10027SOL    HW131914   7.024   4.365   6.087
10027SOL    HW231915   7.024   4.479   6.187
10028SOL     OW31916   3.007   4.231   7.007
10028SOL    HW131917   2.943   4.241   6.937
10028SOL    HW231918   3.092   4.239   6.964
10029SOL     OW31919   6.355  13.094   8.625
10029SOL    HW131920   6.314  13.178   8.646
10029SOL    HW231921   6.285  13.030   8.637
10030SOL     OW31922   5.561  12.732  12.284
10030SOL    HW131923   5.637  12.787  12.306
10030SOL    HW231924   5.500  12.791  12.241
10031SOL     OW31925   2.025  12.601   3.587
10031SOL    HW131926   2.089  12.621   3.519
10031SOL    HW231927   1.940  12.617   3.545
10032SOL     OW31928  10.951   4.083   8.541
10032SOL    HW131929  10.991   4.040   8.617
10032SOL    HW231930  10.862   4.103   8.570
10033SOL     OW31931  12.474   3.364   5.634
10033SOL    HW131932  12.393   3.373   5.684
10033SOL    HW231933  12.506   3.276   5.657
10034SOL     OW31934  12.827  11.512  11.421
10034SOL    HW131935  12.782  11.459  11.355
10034SOL    HW231936  12.757  11.546  11.477
10035SOL     OW31937   7.272   2.167   5.590
10035SOL    HW131938   7.332   2.233   5.626
10035SOL    HW231939   7.328   2.090   5.574
10036SOL     OW31940  13.289   3.598  14.340
10036SOL    HW131941  13.327   3.613  14.254
10036SOL    HW231942  13.207   3.552  14.322
10037SOL     OW31943  14.232   7.499  12.635
10037SOL    HW131944  14.177   7.531  12.707
10037SOL    HW231945  14.319   7.534  12.654
10038SOL     OW31946  10.486   9.298   7.255
10038SOL    HW131947  10.446   9.241   7.190
10038SOL    HW231948  10.422   9.305   7.325
10039SOL     OW31949   9.238  11.841   7.757
10039SOL    HW131950   9.334  11.846   7.757
10039SOL    HW231951   9.212  11.888   7.836
10040SOL     OW31952  12.334   2.857   8.774
10040SOL    HW131953  12.281   2.791   8.817
10040SOL    HW231954  12.340   2.828   8.683
10041SOL     OW31955  13.829   2.687   2.380
10041SOL    HW131956  13.836   2.610   2.323
10041SOL    HW231957  13.774   2.748   2.331
10042SOL     OW31958   9.442   0.252  14.377
10042SOL    HW131959   9.516   0.199  14.348
10042SOL    HW231960   9.480   0.337  14.400
10043SOL     OW31961  14.201   4.054  14.644
10043SOL    HW131962  14.116   4.025  14.611
10043SOL    HW231963  14.203   4.025  14.735
10044SOL     OW31964   2.326  12.881   8.423
10044SOL    HW131965   2.296  12.803   8.470
10044SOL    HW231966   2.259  12.947   8.441
10045SOL     OW31967  14.413  10.080   7.139
10045SOL    HW131968  14.508  10.073   7.148
10045SOL    HW231969  14.393  10.031   7.059
10046SOL     OW31970   9.676   0.106   8.519
10046SOL    HW131971   9.654   0.200   8.520
10046SOL    HW231972   9.693   0.086   8.427
10047SOL     OW31973   4.427   1.727   3.549
10047SOL    HW131974   4.369   1.651   3.548
10047SOL    HW231975   4.370   1.801   3.527
10048SOL     OW31976  11.140   9.741   7.017
10048SOL    HW131977  11.197   9.815   7.036
10048SOL    HW231978  11.199   9.671   6.992
10049SOL     OW31979   0.683   9.967   7.579
10049SOL    HW131980   0.750   9.973   7.511
10049SOL    HW231981   0.672   9.873   7.593
10050SOL     OW31982  12.233   0.371   5.462
10050SOL    HW131983  12.174   0.444   5.441
10050SOL    HW231984  12.224   0.359   5.557
10051SOL     OW31985   1.241   4.165   6.845
10051SOL    HW131986   1.247   4.081   6.799
10051SOL    HW231987   1.316   4.167   6.904
10052SOL     OW31988   7.946   8.803   8.057
10052SOL    HW131989   8.004   8.731   8.081
10052SOL    HW231990   7.860   8.763   8.050
10053SOL     OW31991   6.152   8.386   2.112
10053SOL    HW131992   6.243   8.382   2.142
10053SOL    HW231993   6.150   8.458   2.050
10054SOL     OW31994   5.760  14.710  11.898
10054SOL    HW131995   5.755  14.642  11.831
10054SOL    HW231996   5.851  14.707  11.928
10055SOL     OW31997   9.546   2.992   4.742
10055SOL    HW131998   9.468   2.968   4.692
10055SOL    HW231999   9.516   3.058   4.804
10056SOL     OW32000   7.294   1.719   1.123
10056SOL    HW132001   7.299   1.813   1.143
10056SOL    HW232002   7.347   1.708   1.045
10057SOL     OW32003   1.212   3.588   1.966
10057SOL    HW132004   1.218   3.508   1.914
10057SOL    HW232005   1.157   3.563   2.041
10058SOL     OW32006   3.000   8.871   3.570
10058SOL    HW132007   2.978   8.936   3.503
10058SOL    HW232008   3.095   8.874   3.576
10059SOL     OW32009   4.092  14.307  10.975
10059SOL    HW132010   4.086  14.259  11.058
10059SOL    HW232011   4.055  14.394  10.995
10060SOL     OW32012  12.116   1.570  10.312
10060SOL    HW132013  12.154   1.599  10.229
10060SOL    HW232014  12.179   1.597  10.378
10061SOL     OW32015  12.303  12.953   2.611
10061SOL    HW132016  12.212  12.957   2.641
10061SOL    HW232017  12.297  12.906   2.528
10062SOL     OW32018  12.451   2.492  12.918
10062SOL    HW132019  12.503   2.432  12.865
10062SOL    HW232020  12.482   2.579  12.893
10063SOL     OW32021  14.078  10.442  10.913
10063SOL    HW132022  14.131  10.469  10.987
10063SOL    HW232023  14.048  10.354  10.935
10064SOL     OW32024   3.508  12.210   0.714
10064SOL    HW132025   3.428  12.262   0.703
10064SOL    HW232026   3.536  12.229   0.803
10065SOL     OW32027  12.268   5.002   6.892
10065SOL    HW132028  12.242   5.092   6.911
10065SOL    HW232029  12.195   4.949   6.925
10066SOL     OW32030   4.393   5.593   3.673
10066SOL    HW132031   4.440   5.593   3.757
10066SOL    HW232032   4.318   5.535   3.688
10067SOL     OW32033  12.185   2.074   0.254
10067SOL    HW132034  12.170   2.019   0.331
10067SOL    HW232035  12.257   2.031   0.208
10068SOL     OW32036  13.472   4.739  12.664
10068SOL    HW132037  13.445   4.651  12.638
10068SOL    HW232038  13.566   4.741  12.647
10069SOL     OW32039   4.658  12.060   6.669
10069SOL    HW132040   4.734  12.001   6.671
10069SOL    HW232041   4.588  12.006   6.631
10070SOL     OW32042   2.554   1.675  11.953
10070SOL    HW132043   2.561   1.582  11.974
10070SOL    HW232044   2.524   1.677  11.863
10071SOL     OW32045   7.804   5.050  13.141
10071SOL    HW132046   7.746   5.015  13.208
10071SOL    HW232047   7.809   4.982  13.074
10072SOL     OW32048   4.780   7.911   7.904
10072SOL    HW132049   4.717   7.927   7.974
10072SOL    HW232050   4.859   7.958   7.933
10073SOL     OW32051   3.482   9.492   0.317
10073SOL    HW132052   3.398   9.535   0.301
10073SOL    HW232053   3.478   9.463   0.408
10074SOL     OW32054   8.758  13.208  13.298
10074SOL    HW132055   8.839  13.199  13.349
10074SOL    HW232056   8.775  13.158  13.218
10075SOL     OW32057  11.752  13.759  13.041
10075SOL    HW132058  11.688  13.803  13.098
10075SOL    HW232059  11.773  13.678  13.088
10076SOL     OW32060   1.537   2.909   6.601
10076SOL    HW132061   1.575   2.997   6.604
10076SOL    HW232062   1.613   2.851   6.610
10077SOL     OW32063  13.149   6.015  12.690
10077SOL    HW132064  13.105   6.100  12.681
10077SOL    HW232065  13.153   6.000  12.785
10078SOL     OW32066  13.543   9.432   9.277
10078SOL    HW132067  13.549   9.415   9.183
10078SOL    HW232068  13.629   9.466   9.302
10079SOL     OW32069   7.519   2.665  11.453
10079SOL    HW132070   7.511   2.722  11.530
10079SOL    HW232071   7.601   2.692  11.412
10080SOL     OW32072  12.429   8.937   5.798
10080SOL    HW132073  12.476   8.894   5.869
10080SOL    HW232074  12.345   8.891   5.793
10081SOL     OW32075  11.891   2.758  11.030
10081SOL    HW132076  11.950   2.775  11.104
10081SOL    HW232077  11.803   2.767  11.067
10082SOL     OW32078   2.764  12.526  14.785
10082SOL    HW132079   2.684  12.560  14.745
10082SOL    HW232080   2.801  12.600  14.832
10083SOL     OW32081  12.631   4.298   3.452
10083SOL    HW132082  12.579   4.346   3.517
10083SOL    HW232083  12.600   4.330   3.368
10084SOL     OW32084   7.429   5.534  14.511
10084SOL    HW132085   7.407   5.495  14.596
10084SOL    HW232086   7.353   5.516  14.456
10085SOL     OW32087  11.352   3.766   9.711
10085SOL    HW132088  11.312   3.812   9.637
10085SOL    HW232089  11.382   3.835   9.770
10086SOL     OW32090  13.264  13.783  10.117
10086SOL    HW132091  13.189  13.829  10.079
10086SOL    HW232092  13.337  13.803  10.058
10087SOL     OW32093   0.456  12.684   8.799
10087SOL    HW132094   0.366  12.656   8.815
10087SOL    HW232095   0.484  12.634   8.722
10088SOL     OW32096  11.343   4.774   9.863
10088SOL    HW132097  11.316   4.797   9.774
10088SOL    HW232098  11.265   4.788   9.916
10089SOL     OW32099   9.628  10.731   6.161
10089SOL    HW132100   9.580  10.757   6.083
10089SOL    HW232101   9.565  10.680   6.212
10090SOL     OW32102  14.653   0.759   2.268
10090SOL    HW132103  14.635   0.777   2.361
10090SOL    HW232104  14.568   0.760   2.226
10091SOL     OW32105   9.386   4.661   3.580
10091SOL    HW132106   9.361   4.607   3.506
10091SOL    HW232107   9.466   4.620   3.614
10092SOL     OW32108  13.089   1.787   0.694
10092SOL    HW132109  13.048   1.738   0.623
10092SOL    HW232110  13.060   1.743   0.774
10093SOL     OW32111   9.863   7.625   1.373
10093SOL    HW132112   9.892   7.535   1.381
10093SOL    HW232113   9.932   7.677   1.414
10094SOL     OW32114  14.372   6.914  10.391
10094SOL    HW132115  14.334   6.943  10.308
10094SOL    HW232116  14.466   6.907  10.373
10095SOL     OW32117  12.945   0.119   1.448
10095SOL    HW132118  12.959   0.148   1.538
10095SOL    HW232119  13.003   0.043   1.438
10096SOL     OW32120   3.841  12.226  11.219
10096SOL    HW132121   3.830  12.181  11.303
10096SOL    HW232122   3.805  12.314  11.235
10097SOL     OW32123  11.220   4.224  12.546
10097SOL    HW132124  11.152   4.166  12.581
10097SOL    HW232125  11.181   4.265  12.469
10098SOL     OW32126   4.659   3.323   0.016
10098SOL    HW132127   4.613   3.402   0.043
10098SOL    HW232128   4.736   3.319   0.073
10099SOL     OW32129   9.677   6.145   0.193
10099SOL    HW132130   9.631   6.078   0.143
10099SOL    HW232131   9.616   6.219   0.195
10100SOL     OW32132  13.293   3.213   9.675
10100SOL    HW132133  13.214   3.162   9.659
10100SOL    HW232134  13.286   3.242   9.766
10101SOL     OW32135  11.967   3.610   0.512
10101SOL    HW132136  12.022   3.681   0.479
10101SOL    HW232137  11.877   3.642   0.502
10102SOL     OW32138   8.667   5.115   6.669
10102SOL    HW132139   8.599   5.138   6.733
10102SOL    HW232140   8.719   5.195   6.660
10103SOL     OW32141   0.146  11.285  10.476
10103SOL    HW132142   0.106  11.321  10.555
10103SOL    HW232143   0.194  11.208  10.507
10104SOL     OW32144  14.222  14.852   1.400
10104SOL    HW132145  14.156   0.025   1.446
10104SOL    HW232146  14.295   0.033   1.387
10105SOL     OW32147   5.259   0.885   5.831
10105SOL    HW132148   5.188   0.891   5.767
10105SOL    HW232149   5.259   0.971   5.873
10106SOL     OW32150   2.177  13.112   3.136
10106SOL    HW132151   2.224  13.100   3.218
10106SOL    HW232152   2.232  13.171   3.085
10107SOL     OW32153  10.605  14.153   2.721
10107SOL    HW132154  10.519  14.143   2.761
10107SOL    HW232155  10.592  14.127   2.629
10108SOL     OW32156   8.671   4.102   8.558
10108SOL    HW132157   8.744   4.155   8.526
10108SOL    HW232158   8.660   4.034   8.491
10109SOL     OW32159   6.718  11.651  10.557
10109SOL    HW132160   6.732  11.743  10.578
10109SOL    HW232161   6.646  11.651  10.494
10110SOL     OW32162   5.567   3.826   0.641
10110SOL    HW132163   5.569   3.878   0.561
10110SOL    HW232164   5.598   3.739   0.615
10111SOL     OW32165   9.409   3.740   2.921
10111SOL    HW132166   9.481   3.769   2.865
10111SOL    HW232167   9.334   3.792   2.893
10112SOL     OW32168  10.976  13.996   0.674
10112SOL    HW132169  11.071  13.983   0.670
10112SOL    HW232170  10.941  13.937   0.608
10113SOL     OW32171   0.415  13.954  10.843
10113SOL    HW132172   0.455  13.919  10.763
10113SOL    HW232173   0.487  13.994  10.891
10114SOL     OW32174   4.576   8.735   7.070
10114SOL    HW132175   4.661   8.705   7.101
10114SOL    HW232176   4.567   8.824   7.105
10115SOL     OW32177  13.623   7.975  12.380
10115SOL    HW132178  13.603   7.944  12.468
10115SOL    HW232179  13.641   8.069  12.391
10116SOL     OW32180   1.829  12.740   7.355
10116SOL    HW132181   1.846  12.751   7.262
10116SOL    HW232182   1.754  12.795   7.373
10117SOL     OW32183   1.206   9.144   3.909
10117SOL    HW132184   1.183   9.101   3.827
10117SOL    HW232185   1.245   9.074   3.962
10118SOL     OW32186   3.551   2.502   0.718
10118SOL    HW132187   3.640   2.534   0.729
10118SOL    HW232188   3.557   2.408   0.735
10119SOL     OW32189   1.374   7.617  14.654
10119SOL    HW132190   1.282   7.600  14.633
10119SOL    HW232191   1.415   7.635  14.570
10120SOL     OW32192   0.770   7.632   5.327
10120SOL    HW132193   0.687   7.662   5.288
10120SOL    HW232194   0.780   7.685   5.406
10121SOL     OW32195   1.450  13.483   8.618
10121SOL    HW132196   1.509  13.464   8.544
10121SOL    HW232197   1.396  13.555   8.587
10122SOL     OW32198  11.697   9.969   1.933
10122SOL    HW132199  11.667  10.034   1.997
10122SOL    HW232200  11.779   9.935   1.970
10123SOL     OW32201  10.455   8.281   9.352
10123SOL    HW132202  10.425   8.238   9.433
10123SOL    HW232203  10.391   8.350   9.336
10124SOL     OW32204  13.264   3.709  13.129
10124SOL    HW132205  13.287   3.764  13.205
10124SOL    HW232206  13.172   3.730  13.111
10125SOL     OW32207   8.235  13.430  14.586
10125SOL    HW132208   8.267  13.369  14.519
10125SOL    HW232209   8.261  13.517  14.555
10126SOL     OW32210  14.463   8.892  10.828
10126SOL    HW132211  14.391   8.944  10.794
10126SOL    HW232212  14.422   8.819  10.873
10127SOL     OW32213   2.317  10.376  12.550
10127SOL    HW132214   2.271  10.408  12.473
10127SOL    HW232215   2.306  10.281  12.546
10128SOL     OW32216   2.582  12.723   2.811
10128SOL    HW132217   2.571  12.770   2.728
10128SOL    HW232218   2.495  12.725   2.850
10129SOL     OW32219   5.357   2.057   3.800
10129SOL    HW132220   5.264   2.033   3.808
10129SOL    HW232221   5.356   2.139   3.750
10130SOL     OW32222   7.612   3.131   3.629
10130SOL    HW132223   7.646   3.134   3.540
10130SOL    HW232224   7.665   3.065   3.673
10131SOL     OW32225   2.564  13.843  10.110
10131SOL    HW132226   2.614  13.806  10.037
10131SOL    HW232227   2.529  13.766  10.156
10132SOL     OW32228   2.224  13.508   6.885
10132SOL    HW132229   2.249  13.600   6.883
10132SOL    HW232230   2.143  13.504   6.833
10133SOL     OW32231  12.300  11.574  11.894
10133SOL    HW132232  12.343  11.651  11.932
10133SOL    HW232233  12.370  11.528  11.846
10134SOL     OW32234   2.091   2.459  11.788
10134SOL    HW132235   2.040   2.414  11.721
10134SOL    HW232236   2.154   2.394  11.819
10135SOL     OW32237  11.754   6.451   5.679
10135SOL    HW132238  11.813   6.501   5.735
10135SOL    HW232239  11.669   6.456   5.723
10136SOL     OW32240   4.853  10.492  10.207
10136SOL    HW132241   4.924  10.466  10.266
10136SOL    HW232242   4.876  10.580  10.178
10137SOL     OW32243   9.860   8.021  11.007
10137SOL    HW132244   9.871   8.100  11.060
10137SOL    HW232245   9.937   7.968  11.027
10138SOL     OW32246  14.255   3.550  10.422
10138SOL    HW132247  14.301   3.605  10.358
10138SOL    HW232248  14.200   3.492  10.369
10139SOL     OW32249  13.922   0.602   4.371
10139SOL    HW132250  13.991   0.593   4.305
10139SOL    HW232251  13.840   0.600   4.321
10140SOL     OW32252   1.835  13.082   6.024
10140SOL    HW132253   1.778  13.117   5.955
10140SOL    HW232254   1.775  13.034   6.082
10141SOL     OW32255   1.813   8.444   7.451
10141SOL    HW132256   1.758   8.475   7.378
10141SOL    HW232257   1.806   8.513   7.517
10142SOL     OW32258  11.658  11.906  13.261
10142SOL    HW132259  11.665  11.910  13.166
10142SOL    HW232260  11.572  11.943  13.281
10143SOL     OW32261  14.393   4.144  11.480
10143SOL    HW132262  14.429   4.068  11.435
10143SOL    HW232263  14.470   4.197  11.502
10144SOL     OW32264   4.533   8.986   6.796
10144SOL    HW132265   4.495   9.071   6.774
10144SOL    HW232266   4.458   8.930   6.812
10145SOL     OW32267   0.185   2.960  11.405
10145SOL    HW132268   0.190   2.865  11.401
10145SOL    HW232269   0.179   2.988  11.313
10146SOL     OW32270   8.197   5.655   5.780
10146SOL    HW132271   8.275   5.639   5.833
10146SOL    HW232272   8.224   5.636   5.691
10147SOL     OW32273   3.545   3.693   6.311
10147SOL    HW132274   3.636   3.670   6.325
10147SOL    HW232275   3.526   3.666   6.221
10148SOL     OW32276   0.165   0.385  14.492
10148SOL    HW132277   0.128   0.352  14.410
10148SOL    HW232278   0.089   0.401  14.547
10149SOL     OW32279  10.695   8.313  10.772
10149SOL    HW132280  10.662   8.387  10.823
10149SOL    HW232281  10.690   8.342  10.681
10150SOL     OW32282   0.475   9.233   1.210
10150SOL    HW132283   0.481   9.188   1.126
10150SOL    HW232284   0.554   9.206   1.257
10151SOL     OW32285   8.779   8.680  11.928
10151SOL    HW132286   8.733   8.596  11.924
10151SOL    HW232287   8.788   8.706  11.836
10152SOL     OW32288   2.426  14.056  12.733
10152SOL    HW132289   2.466  13.980  12.692
10152SOL    HW232290   2.479  14.073  12.811
10153SOL     OW32291   7.947   8.888  14.417
10153SOL    HW132292   7.937   8.798  14.449
10153SOL    HW232293   8.030   8.886  14.369
10154SOL     OW32294  10.565  14.482  11.823
10154SOL    HW132295  10.489  14.461  11.769
10154SOL    HW232296  10.561  14.577  11.834
10155SOL     OW32297   2.010  11.794   4.093
10155SOL    HW132298   1.966  11.801   4.008
10155SOL    HW232299   2.025  11.700   4.104
10156SOL     OW32300  14.689   2.379  12.421
10156SOL    HW132301  14.684   2.473  12.437
10156SOL    HW232302  14.765   2.368  12.364
10157SOL     OW32303  13.929   2.493  14.309
10157SOL    HW132304  13.886   2.526  14.388
10157SOL    HW232305  14.022   2.501  14.328
10158SOL     OW32306   8.074   7.006   1.415
10158SOL    HW132307   8.104   6.985   1.504
10158SOL    HW232308   8.145   7.059   1.378
10159SOL     OW32309   4.702  13.509   2.647
10159SOL    HW132310   4.628  13.552   2.689
10159SOL    HW232311   4.752  13.579   2.605
10160SOL     OW32312   3.790   0.102   6.511
10160SOL    HW132313   3.743   0.184   6.493
10160SOL    HW232314   3.721   0.037   6.522
10161SOL     OW32315   6.284   5.456  10.104
10161SOL    HW132316   6.279   5.537  10.053
10161SOL    HW232317   6.376   5.430  10.098
10162SOL     OW32318   1.620  10.026   5.284
10162SOL    HW132319   1.710  10.022   5.317
10162SOL    HW232320   1.570   9.973   5.346
10163SOL     OW32321   7.172   3.366   7.310
10163SOL    HW132322   7.142   3.308   7.241
10163SOL    HW232323   7.225   3.432   7.265
10164SOL     OW32324  10.912   5.059  14.715
10164SOL    HW132325  10.955   4.990  14.665
10164SOL    HW232326  10.819   5.052  14.690
10165SOL     OW32327   0.443   8.068  12.823
10165SOL    HW132328   0.362   8.104  12.861
10165SOL    HW232329   0.511   8.131  12.849
10166SOL     OW32330  12.974  10.943   1.818
10166SOL    HW132331  12.883  10.967   1.833
10166SOL    HW232332  12.973  10.899   1.733
10167SOL     OW32333   5.751   1.121   7.823
10167SOL    HW132334   5.767   1.049   7.762
10167SOL    HW232335   5.665   1.101   7.861
10168SOL     OW32336   0.758   5.676   2.461
10168SOL    HW132337   0.812   5.715   2.392
10168SOL    HW232338   0.758   5.741   2.531
10169SOL     OW32339   6.782   1.684   1.426
10169SOL    HW132340   6.834   1.652   1.352
10169SOL    HW232341   6.732   1.758   1.390
10170SOL     OW32342   7.453   6.320  14.260
10170SOL    HW132343   7.539   6.303  14.298
10170SOL    HW232344   7.434   6.242  14.207
10171SOL     OW32345   4.247  14.151   3.680
10171SOL    HW132346   4.321  14.104   3.718
10171SOL    HW232347   4.175  14.088   3.679
10172SOL     OW32348   4.298   0.279  12.151
10172SOL    HW132349   4.304   0.314  12.240
10172SOL    HW232350   4.252   0.347  12.102
10173SOL     OW32351  13.442   2.539  10.282
10173SOL    HW132352  13.442   2.443  10.281
10173SOL    HW232353  13.362   2.564  10.236
10174SOL     OW32354   0.380   5.707  10.298
10174SOL    HW132355   0.416   5.627  10.260
10174SOL    HW232356   0.397   5.697  10.392
10175SOL     OW32357   0.725  11.904   8.094
10175SOL    HW132358   0.732  11.962   8.019
10175SOL    HW232359   0.759  11.820   8.064
10176SOL     OW32360  14.459   2.119  11.264
10176SOL    HW132361  14.533   2.100  11.321
10176SOL    HW232362  14.385   2.073  11.304
10177SOL     OW32363  14.521   1.523  10.545
10177SOL    HW132364  14.521   1.517  10.449
10177SOL    HW232365  14.602   1.479  10.571
10178SOL     OW32366   0.847   0.286   4.253
10178SOL    HW132367   0.761   0.247   4.268
10178SOL    HW232368   0.866   0.267   4.161
10179SOL     OW32369   1.258   5.144  12.943
10179SOL    HW132370   1.204   5.192  13.006
10179SOL    HW232371   1.198   5.120  12.873
10180SOL     OW32372   9.774   0.100  10.621
10180SOL    HW132373   9.757   0.119  10.529
10180SOL    HW232374   9.691   0.117  10.665
10181SOL     OW32375   7.102  13.899   8.074
10181SOL    HW132376   7.136  13.894   8.163
10181SOL    HW232377   7.153  13.968   8.033
10182SOL     OW32378   4.392   8.067   7.982
10182SOL    HW132379   4.311   8.034   7.942
10182SOL    HW232380   4.423   8.134   7.921
10183SOL     OW32381   6.593   6.295  14.123
10183SOL    HW132382   6.658   6.313  14.056
10183SOL    HW232383   6.553   6.212  14.096
10184SOL     OW32384   5.976   4.652   2.873
10184SOL    HW132385   6.022   4.674   2.954
10184SOL    HW232386   5.892   4.616   2.901
10185SOL     OW32387   4.584  10.711  12.550
10185SOL    HW132388   4.592  10.774  12.479
10185SOL    HW232389   4.568  10.765  12.628
10186SOL     OW32390   2.687   6.685   2.946
10186SOL    HW132391   2.642   6.601   2.938
10186SOL    HW232392   2.764   6.666   3.001
10187SOL     OW32393   5.320   3.248   5.003
10187SOL    HW132394   5.347   3.212   4.918
10187SOL    HW232395   5.311   3.342   4.988
10188SOL     OW32396   8.150  12.370   5.336
10188SOL    HW132397   8.163  12.373   5.241
10188SOL    HW232398   8.235  12.396   5.372
10189SOL     OW32399   1.365   2.556   1.668
10189SOL    HW132400   1.341   2.463   1.668
10189SOL    HW232401   1.328   2.590   1.750
10190SOL     OW32402  10.145   1.330   7.780
10190SOL    HW132403  10.161   1.240   7.752
10190SOL    HW232404  10.166   1.329   7.873
10191SOL     OW32405   3.270  13.916   1.723
10191SOL    HW132406   3.208  13.881   1.659
10191SOL    HW232407   3.224  13.991   1.762
10192SOL     OW32408  10.362   8.157  11.525
10192SOL    HW132409  10.410   8.090  11.476
10192SOL    HW232410  10.271   8.148  11.495
10193SOL     OW32411   5.084   2.994  12.245
10193SOL    HW132412   4.990   2.988  12.232
10193SOL    HW232413   5.121   2.989  12.157
10194SOL     OW32414   9.965  11.867   7.169
10194SOL    HW132415   9.884  11.865   7.221
10194SOL    HW232416   9.978  11.960   7.150
10195SOL     OW32417   4.514   1.851  11.660
10195SOL    HW132418   4.592   1.895  11.627
10195SOL    HW232419   4.548   1.787  11.723
10196SOL     OW32420   5.152  12.738   7.677
10196SOL    HW132421   5.231  12.708   7.721
10196SOL    HW232422   5.157  12.700   7.589
10197SOL     OW32423   7.457   0.960   6.632
10197SOL    HW132424   7.418   1.021   6.695
10197SOL    HW232425   7.460   0.876   6.679
10198SOL     OW32426  12.384   6.818   2.532
10198SOL    HW132427  12.418   6.896   2.576
10198SOL    HW232428  12.434   6.745   2.568
10199SOL     OW32429   3.263   4.101   3.787
10199SOL    HW132430   3.187   4.139   3.743
10199SOL    HW232431   3.338   4.141   3.744
10200SOL     OW32432   2.321  12.895   5.611
10200SOL    HW132433   2.340  12.874   5.703
10200SOL    HW232434   2.387  12.846   5.562
10201SOL     OW32435   3.369   1.912  13.290
10201SOL    HW132436   3.344   1.905  13.382
10201SOL    HW232437   3.354   1.824  13.255
10202SOL     OW32438  10.191   8.769   5.615
10202SOL    HW132439  10.210   8.678   5.593
10202SOL    HW232440  10.244   8.820   5.553
10203SOL     OW32441  13.415   4.984  13.876
10203SOL    HW132442  13.336   4.930  13.881
10203SOL    HW232443  13.471   4.938  13.815
10204SOL     OW32444   3.756   9.842   6.302
10204SOL    HW132445   3.684   9.782   6.285
10204SOL    HW232446   3.714   9.921   6.334
10205SOL     OW32447   0.680   4.941  10.768
10205SOL    HW132448   0.639   5.001  10.705
10205SOL    HW232449   0.696   4.994  10.846
10206SOL     OW32450  10.007  14.415  14.524
10206SOL    HW132451   9.975  14.404  14.435
10206SOL    HW232452  10.102  14.407  14.516
10207SOL     OW32453   8.782   9.248  11.347
10207SOL    HW132454   8.786   9.154  11.364
10207SOL    HW232455   8.732   9.284  11.420
10208SOL     OW32456  13.642   2.486   8.096
10208SOL    HW132457  13.675   2.406   8.138
10208SOL    HW232458  13.556   2.499   8.136
10209SOL     OW32459   0.045  11.273   9.968
10209SOL    HW132460   0.111  11.307   9.908
10209SOL    HW232461   0.004  11.351  10.006
10210SOL     OW32462   9.410   4.410   4.029
10210SOL    HW132463   9.458   4.491   4.045
10210SOL    HW232464   9.339   4.410   4.093
10211SOL     OW32465   0.083   9.667   4.870
10211SOL    HW132466   0.099   9.585   4.917
10211SOL    HW232467   0.101   9.735   4.935
10212SOL     OW32468   9.108  10.946   9.255
10212SOL    HW132469   9.169  10.876   9.234
10212SOL    HW232470   9.071  10.922   9.339
10213SOL     OW32471   2.609   7.908   4.164
10213SOL    HW132472   2.666   7.870   4.231
10213SOL    HW232473   2.647   7.994   4.146
10214SOL     OW32474  13.665  12.709   6.547
10214SOL    HW132475  13.598  12.686   6.610
10214SOL    HW232476  13.733  12.643   6.559
10215SOL     OW32477   2.323   0.730  12.491
10215SOL    HW132478   2.352   0.821  12.490
10215SOL    HW232479   2.357   0.693  12.409
10216SOL     OW32480   7.486  12.242   7.733
10216SOL    HW132481   7.450  12.213   7.817
10216SOL    HW232482   7.537  12.320   7.754
10217SOL     OW32483   6.526  10.269  13.328
10217SOL    HW132484   6.487  10.221  13.400
10217SOL    HW232485   6.459  10.270  13.260
10218SOL     OW32486   8.346  12.157  12.326
10218SOL    HW132487   8.311  12.207  12.400
10218SOL    HW232488   8.377  12.075  12.365
10219SOL     OW32489  10.854   7.806   4.656
10219SOL    HW132490  10.805   7.847   4.586
10219SOL    HW232491  10.890   7.879   4.707
10220SOL     OW32492   3.120   8.686   2.744
10220SOL    HW132493   3.141   8.621   2.812
10220SOL    HW232494   3.205   8.721   2.718
10221SOL     OW32495  10.152   6.589   7.020
10221SOL    HW132496  10.224   6.576   7.082
10221SOL    HW232497  10.166   6.678   6.986
10222SOL     OW32498   8.239   9.997   4.129
10222SOL    HW132499   8.245   9.904   4.105
10222SOL    HW232500   8.306  10.039   4.075
10223SOL     OW32501   0.298   5.139   6.319
10223SOL    HW132502   0.266   5.148   6.230
10223SOL    HW232503   0.390   5.115   6.310
10224SOL     OW32504   1.351  10.904   5.136
10224SOL    HW132505   1.432  10.898   5.187
10224SOL    HW232506   1.324  10.812   5.125
10225SOL     OW32507   7.099   9.266  13.829
10225SOL    HW132508   7.049   9.203  13.883
10225SOL    HW232509   7.086   9.236  13.739
10226SOL     OW32510   3.676   0.512   5.993
10226SOL    HW132511   3.609   0.561   6.040
10226SOL    HW232512   3.753   0.514   6.051
10227SOL     OW32513   9.904   6.248   6.056
10227SOL    HW132514   9.872   6.158   6.054
10227SOL    HW232515   9.926   6.264   6.147
10228SOL     OW32516   4.135   1.101   4.602
10228SOL    HW132517   4.220   1.072   4.634
10228SOL    HW232518   4.110   1.037   4.536
10229SOL     OW32519   2.555   5.703   8.467
10229SOL    HW132520   2.645   5.682   8.442
10229SOL    HW232521   2.528   5.771   8.406
10230SOL     OW32522   6.726  10.707  13.659
10230SOL    HW132523   6.791  10.741  13.721
10230SOL    HW232524   6.764  10.724  13.573
10231SOL     OW32525  11.336   4.758   9.399
10231SOL    HW132526  11.276   4.683   9.400
10231SOL    HW232527  11.295   4.822   9.457
10232SOL     OW32528  10.689   7.935   3.742
10232SOL    HW132529  10.697   7.917   3.835
10232SOL    HW232530  10.757   7.881   3.701
10233SOL     OW32531   4.656   5.110   6.525
10233SOL    HW132532   4.726   5.094   6.462
10233SOL    HW232533   4.675   5.197   6.560
10234SOL     OW32534   5.248   6.414  12.994
10234SOL    HW132535   5.313   6.356  13.034
10234SOL    HW232536   5.232   6.481  13.061
10235SOL     OW32537   4.147   2.492  11.687
10235SOL    HW132538   4.188   2.465  11.606
10235SOL    HW232539   4.054   2.471  11.675
10236SOL     OW32540  11.647   1.707   3.824
10236SOL    HW132541  11.726   1.685   3.775
10236SOL    HW232542  11.640   1.639   3.891
10237SOL     OW32543  14.748   2.332   6.353
10237SOL    HW132544  14.655   2.341   6.331
10237SOL    HW232545  14.790   2.315   6.268
10238SOL     OW32546   9.106   2.016   3.985
10238SOL    HW132547   9.148   2.083   4.039
10238SOL    HW232548   9.177   1.982   3.931
10239SOL     OW32549  12.156   0.598  13.284
10239SOL    HW132550  12.088   0.580  13.219
10239SOL    HW232551  12.229   0.634  13.234
10240SOL     OW32552   1.886   0.155   7.405
10240SOL    HW132553   1.896   0.161   7.500
10240SOL    HW232554   1.792   0.168   7.390
10241SOL     OW32555   7.397  10.089   8.022
10241SOL    HW132556   7.385  10.104   8.116
10241SOL    HW232557   7.335  10.020   8.001
10242SOL     OW32558   1.901   6.708  13.214
10242SOL    HW132559   1.836   6.772  13.241
10242SOL    HW232560   1.967   6.709  13.283
10243SOL     OW32561   2.538   2.019   5.402
10243SOL    HW132562   2.466   2.015   5.338
10243SOL    HW232563   2.535   1.935   5.447
10244SOL     OW32564   0.727   3.025  12.031
10244SOL    HW132565   0.771   2.950  11.990
10244SOL    HW232566   0.719   3.089  11.960
10245SOL     OW32567   7.069   3.942  11.253
10245SOL    HW132568   7.084   3.874  11.188
10245SOL    HW232569   7.143   4.003  11.241
10246SOL     OW32570  12.253   3.533   8.675
10246SOL    HW132571  12.199   3.612   8.672
10246SOL    HW232572  12.335   3.559   8.633
10247SOL     OW32573  14.493   2.312   7.019
10247SOL    HW132574  14.575   2.270   7.045
10247SOL    HW232575  14.501   2.402   7.049
10248SOL     OW32576   2.912   1.988  10.165
10248SOL    HW132577   2.897   2.078  10.196
10248SOL    HW232578   2.835   1.969  10.110
10249SOL     OW32579  12.575   1.677   8.571
10249SOL    HW132580  12.514   1.627   8.626
10249SOL    HW232581  12.661   1.643   8.594
10250SOL     OW32582  10.880   4.803   6.078
10250SOL    HW132583  10.919   4.772   5.997
10250SOL    HW232584  10.891   4.898   6.076
10251SOL     OW32585   9.653   3.586  11.001
10251SOL    HW132586   9.711   3.639  10.947
10251SOL    HW232587   9.679   3.606  11.091
10252SOL     OW32588   4.327   8.570  10.253
10252SOL    HW132589   4.355   8.642  10.197
10252SOL    HW232590   4.259   8.608  10.309
10253SOL     OW32591  12.583  11.281  11.519
10253SOL    HW132592  12.535  11.362  11.501
10253SOL    HW232593  12.654  11.281  11.454
10254SOL     OW32594   7.510  12.500   7.831
10254SOL    HW132595   7.569  12.558   7.879
10254SOL    HW232596   7.443  12.558   7.796
10255SOL     OW32597   7.989   9.202  11.261
10255SOL    HW132598   8.073   9.162  11.242
10255SOL    HW232599   7.993   9.226  11.353
10256SOL     OW32600  12.165   1.048   1.056
10256SOL    HW132601  12.250   1.062   1.015
10256SOL    HW232602  12.102   1.057   0.984
10257SOL     OW32603  13.442   5.359   2.711
10257SOL    HW132604  13.398   5.354   2.626
10257SOL    HW232605  13.516   5.419   2.697
10258SOL     OW32606   6.515  13.191  10.537
10258SOL    HW132607   6.512  13.113  10.481
10258SOL    HW232608   6.432  13.190  10.584
10259SOL     OW32609  14.577  14.846  10.446
10259SOL    HW132610  14.580  14.781  10.376
10259SOL    HW232611  14.531  14.802  10.518
10260SOL     OW32612   1.772   3.000   5.615
10260SOL    HW132613   1.680   2.979   5.600
10260SOL    HW232614   1.780   3.092   5.590
10261SOL     OW32615  12.037   3.243  14.149
10261SOL    HW132616  12.061   3.155  14.176
10261SOL    HW232617  11.980   3.231  14.073
10262SOL     OW32618  11.350   3.501  12.678
10262SOL    HW132619  11.356   3.457  12.593
10262SOL    HW232620  11.296   3.578  12.661
10263SOL     OW32621  13.174   5.780   4.213
10263SOL    HW132622  13.253   5.806   4.165
10263SOL    HW232623  13.132   5.715   4.156
10264SOL     OW32624   2.907   2.257   1.492
10264SOL    HW132625   2.883   2.350   1.491
10264SOL    HW232626   3.002   2.257   1.479
10265SOL     OW32627   8.169  11.824   0.173
10265SOL    HW132628   8.251  11.784   0.144
10265SOL    HW232629   8.110  11.750   0.188
10266SOL     OW32630  14.449   7.154   2.209
10266SOL    HW132631  14.534   7.194   2.227
10266SOL    HW232632  14.469   7.061   2.197
10267SOL     OW32633   2.501   7.583  12.231
10267SOL    HW132634   2.538   7.577  12.319
10267SOL    HW232635   2.537   7.663  12.194
10268SOL     OW32636   9.082   2.850   5.336
10268SOL    HW132637   9.153   2.902   5.298
10268SOL    HW232638   9.040   2.808   5.261
10269SOL     OW32639   6.309   0.618  11.897
10269SOL    HW132640   6.310   0.604  11.992
10269SOL    HW232641   6.401   0.620  11.872
10270SOL     OW32642   8.556   2.433   8.334
10270SOL    HW132643   8.555   2.427   8.430
10270SOL    HW232644   8.590   2.348   8.305
10271SOL     OW32645   1.015   9.472  10.129
10271SOL    HW132646   1.040   9.411  10.060
10271SOL    HW232647   1.003   9.556  10.084
10272SOL     OW32648  10.183   5.173   1.297
10272SOL    HW132649  10.199   5.151   1.206
10272SOL    HW232650  10.174   5.089   1.341
10273SOL     OW32651   5.806   7.057  13.942
10273SOL    HW132652   5.763   7.036  13.859
10273SOL    HW232653   5.739   7.044  14.008
10274SOL     OW32654   4.848  10.162  13.326
10274SOL    HW132655   4.843  10.162  13.231
10274SOL    HW232656   4.934  10.125  13.346
10275SOL     OW32657   1.210   3.172   4.722
10275SOL    HW132658   1.252   3.213   4.797
10275SOL    HW232659   1.198   3.243   4.659
10276SOL     OW32660   2.730   1.372   9.642
10276SOL    HW132661   2.714   1.295   9.588
10276SOL    HW232662   2.815   1.356   9.683
10277SOL     OW32663   6.339   6.436   6.467
10277SOL    HW132664   6.299   6.367   6.414
10277SOL    HW232665   6.279   6.447   6.541
10278SOL     OW32666  11.748   1.385   5.813
10278SOL    HW132667  11.714   1.459   5.763
10278SOL    HW232668  11.843   1.389   5.802
10279SOL     OW32669   5.873   7.172  13.615
10279SOL    HW132670   5.808   7.198  13.681
10279SOL    HW232671   5.864   7.077  13.608
10280SOL     OW32672   5.189   9.814   0.706
10280SOL    HW132673   5.271   9.862   0.692
10280SOL    HW232674   5.217   9.726   0.732
10281SOL     OW32675   7.143   4.188   7.748
10281SOL    HW132676   7.207   4.118   7.762
10281SOL    HW232677   7.162   4.252   7.817
10282SOL     OW32678   4.185   8.650   5.467
10282SOL    HW132679   4.155   8.582   5.528
10282SOL    HW232680   4.185   8.730   5.519
10283SOL     OW32681   9.415   5.657   2.340
10283SOL    HW132682   9.505   5.623   2.336
10283SOL    HW232683   9.363   5.593   2.292
10284SOL     OW32684   8.549   6.481   7.419
10284SOL    HW132685   8.560   6.575   7.430
10284SOL    HW232686   8.605   6.442   7.487
10285SOL     OW32687   4.728   5.026  13.819
10285SOL    HW132688   4.788   5.059  13.885
10285SOL    HW232689   4.773   4.951  13.781
10286SOL     OW32690   3.025   7.668   1.919
10286SOL    HW132691   2.987   7.742   1.966
10286SOL    HW232692   3.097   7.706   1.868
10287SOL     OW32693   4.103   7.687   0.369
10287SOL    HW132694   4.074   7.596   0.377
10287SOL    HW232695   4.031   7.732   0.326
10288SOL     OW32696  13.278   1.608  10.466
10288SOL    HW132697  13.337   1.634  10.395
10288SOL    HW232698  13.225   1.537  10.429
10289SOL     OW32699  10.555   6.846   7.397
10289SOL    HW132700  10.563   6.760   7.357
10289SOL    HW232701  10.645   6.880   7.399
10290SOL     OW32702  14.515  11.507   9.915
10290SOL    HW132703  14.430  11.498   9.871
10290SOL    HW232704  14.508  11.588   9.965
10291SOL     OW32705  10.295  14.867   6.901
10291SOL    HW132706  10.382  14.856   6.863
10291SOL    HW232707  10.311  14.877   6.995
10292SOL     OW32708   7.946  11.685   1.641
10292SOL    HW132709   7.904  11.734   1.570
10292SOL    HW232710   7.978  11.605   1.600
10293SOL     OW32711  14.059   1.835   8.991
10293SOL    HW132712  14.011   1.912   8.962
10293SOL    HW232713  14.082   1.854   9.082
10294SOL     OW32714   0.798  10.715   4.849
10294SOL    HW132715   0.789  10.659   4.772
10294SOL    HW232716   0.882  10.760   4.837
10295SOL     OW32717   6.429   8.217   9.418
10295SOL    HW132718   6.444   8.234   9.511
10295SOL    HW232719   6.387   8.131   9.416
10296SOL     OW32720   5.814   2.051   2.253
10296SOL    HW132721   5.885   2.038   2.316
10296SOL    HW232722   5.844   2.006   2.173
10297SOL     OW32723   1.787  13.736  12.252
10297SOL    HW132724   1.806  13.799  12.183
10297SOL    HW232725   1.758  13.789  12.327
10298SOL     OW32726   2.614  14.530   4.347
10298SOL    HW132727   2.670  14.455   4.329
10298SOL    HW232728   2.594  14.524   4.440
10299SOL     OW32729  14.100   2.781   7.993
10299SOL    HW132730  14.165   2.758   7.926
10299SOL    HW232731  14.101   2.877   7.995
10300SOL     OW32732  13.560   7.975  14.266
10300SOL    HW132733  13.640   7.923  14.256
10300SOL    HW232734  13.522   7.943  14.348
10301SOL     OW32735   2.531   0.780   4.466
10301SOL    HW132736   2.460   0.757   4.525
10301SOL    HW232737   2.538   0.705   4.407
10302SOL     OW32738   5.958   1.655   4.911
10302SOL    HW132739   5.989   1.650   5.002
10302SOL    HW232740   5.934   1.746   4.899
10303SOL     OW32741   1.935  10.507   1.881
10303SOL    HW132742   1.992  10.436   1.852
10303SOL    HW232743   1.970  10.585   1.838
10304SOL     OW32744  14.089   5.321  13.131
10304SOL    HW132745  14.109   5.393  13.071
10304SOL    HW232746  14.160   5.258  13.118
10305SOL     OW32747   7.084  14.639   9.068
10305SOL    HW132748   7.061  14.569   9.008
10305SOL    HW232749   7.151  14.601   9.125
10306SOL     OW32750  11.956   8.968  14.554
10306SOL    HW132751  11.976   9.057  14.584
10306SOL    HW232752  11.863   8.958  14.570
10307SOL     OW32753   9.879   3.512  10.512
10307SOL    HW132754   9.899   3.597  10.551
10307SOL    HW232755   9.875   3.451  10.586
10308SOL     OW32756   2.926   3.407   0.510
10308SOL    HW132757   2.922   3.319   0.472
10308SOL    HW232758   3.019   3.430   0.508
10309SOL     OW32759   6.051   4.948   4.977
10309SOL    HW132760   5.965   4.947   5.019
10309SOL    HW232761   6.103   4.885   5.025
10310SOL     OW32762   8.679   1.560  12.640
10310SOL    HW132763   8.727   1.610  12.574
10310SOL    HW232764   8.599   1.531  12.595
10311SOL     OW32765  13.005   9.541   5.429
10311SOL    HW132766  13.001   9.518   5.336
10311SOL    HW232767  12.918   9.519   5.463
10312SOL     OW32768   3.470   9.316   2.993
10312SOL    HW132769   3.470   9.267   3.075
10312SOL    HW232770   3.539   9.382   3.005
10313SOL     OW32771  10.338  12.056   7.491
10313SOL    HW132772  10.340  12.079   7.584
10313SOL    HW232773  10.404  11.988   7.482
10314SOL     OW32774   0.651   3.644  14.721
10314SOL    HW132775   0.698   3.618  14.800
10314SOL    HW232776   0.613   3.563  14.688
10315SOL     OW32777   0.476  10.438  12.787
10315SOL    HW132778   0.483  10.356  12.836
10315SOL    HW232779   0.463  10.411  12.696
10316SOL     OW32780   2.245   9.680   0.683
10316SOL    HW132781   2.268   9.773   0.687
10316SOL    HW232782   2.306   9.644   0.619
10317SOL     OW32783   3.376   8.322   2.507
10317SOL    HW132784   3.448   8.385   2.504
10317SOL    HW232785   3.365   8.294   2.416
10318SOL     OW32786   3.169   0.443   4.882
10318SOL    HW132787   3.184   0.537   4.886
10318SOL    HW232788   3.074   0.433   4.887
10319SOL     OW32789  13.534   8.278   9.628
10319SOL    HW132790  13.443   8.294   9.651
10319SOL    HW232791  13.584   8.319   9.699
10320SOL     OW32792   3.254  10.534   9.382
10320SOL    HW132793   3.349  10.531   9.372
10320SOL    HW232794   3.220  10.524   9.293
10321SOL     OW32795  12.169   4.936   9.174
10321SOL    HW132796  12.109   5.006   9.198
10321SOL    HW232797  12.128   4.857   9.208
10322SOL     OW32798  10.065   4.735   5.151
10322SOL    HW132799  10.043   4.656   5.201
10322SOL    HW232800  10.015   4.805   5.193
10323SOL     OW32801   7.336  12.403   6.112
10323SOL    HW132802   7.259  12.445   6.150
10323SOL    HW232803   7.329  12.420   6.018
10324SOL     OW32804   0.419   8.501  13.681
10324SOL    HW132805   0.415   8.596  13.676
10324SOL    HW232806   0.398   8.470  13.593
10325SOL     OW32807   3.304   8.653   0.484
10325SOL    HW132808   3.318   8.562   0.511
10325SOL    HW232809   3.223   8.679   0.527
10326SOL     OW32810   9.851   6.658  13.196
10326SOL    HW132811   9.852   6.752  13.176
10326SOL    HW232812   9.783   6.648  13.262
10327SOL     OW32813   0.150   4.347   4.442
10327SOL    HW132814   0.061   4.375   4.466
10327SOL    HW232815   0.196   4.428   4.420
10328SOL     OW32816  11.207   6.137  11.807
10328SOL    HW132817  11.239   6.172  11.890
10328SOL    HW232818  11.115   6.165  11.804
10329SOL     OW32819  11.718  12.113   4.109
10329SOL    HW132820  11.766  12.052   4.165
10329SOL    HW232821  11.702  12.063   4.029
10330SOL     OW32822   8.621   0.414   6.903
10330SOL    HW132823   8.593   0.322   6.903
10330SOL    HW232824   8.715   0.411   6.920
10331SOL     OW32825  10.406   6.945   1.423
10331SOL    HW132826  10.375   7.035   1.413
10331SOL    HW232827  10.486   6.941   1.371
10332SOL     OW32828   9.617  13.622   8.078
10332SOL    HW132829   9.553  13.587   8.016
10332SOL    HW232830   9.696  13.570   8.063
10333SOL     OW32831  14.094   3.099  14.550
10333SOL    HW132832  14.048   3.021  14.581
10333SOL    HW232833  14.177   3.099  14.598
10334SOL     OW32834  10.344   2.075  10.783
10334SOL    HW132835  10.252   2.049  10.775
10334SOL    HW232836  10.353   2.102  10.874
10335SOL     OW32837  12.742  13.179   4.896
10335SOL    HW132838  12.796  13.214   4.966
10335SOL    HW232839  12.714  13.257   4.847
10336SOL     OW32840   8.787  12.494   1.237
10336SOL    HW132841   8.752  12.525   1.320
10336SOL    HW232842   8.840  12.418   1.261
10337SOL     OW32843  12.988   0.243   4.604
10337SOL    HW132844  13.073   0.199   4.602
10337SOL    HW232845  13.008   0.336   4.592
10338SOL     OW32846  13.337   8.010  14.076
10338SOL    HW132847  13.389   7.981  14.151
10338SOL    HW232848  13.262   8.054  14.116
10339SOL     OW32849   7.837   5.484   8.111
10339SOL    HW132850   7.864   5.431   8.186
10339SOL    HW232851   7.813   5.568   8.149
10340SOL     OW32852   5.541   4.022   5.690
10340SOL    HW132853   5.599   4.080   5.739
10340SOL    HW232854   5.536   3.942   5.743
10341SOL     OW32855  14.394   0.887   7.206
10341SOL    HW132856  14.426   0.967   7.249
10341SOL    HW232857  14.332   0.918   7.140
10342SOL     OW32858   7.538   7.620   2.700
10342SOL    HW132859   7.535   7.715   2.699
10342SOL    HW232860   7.452   7.592   2.670
10343SOL     OW32861  10.823   3.063   9.004
10343SOL    HW132862  10.765   3.116   9.058
10343SOL    HW232863  10.793   2.973   9.019
10344SOL     OW32864   5.724   6.862   8.100
10344SOL    HW132865   5.722   6.949   8.139
10344SOL    HW232866   5.742   6.877   8.007
10345SOL     OW32867   9.007   2.721  13.671
10345SOL    HW132868   8.989   2.681  13.756
10345SOL    HW232869   8.931   2.698  13.617
10346SOL     OW32870   9.465   7.083   6.581
10346SOL    HW132871   9.526   7.153   6.605
10346SOL    HW232872   9.424   7.113   6.500
10347SOL     OW32873   5.622   5.926  11.760
10347SOL    HW132874   5.569   5.884  11.693
10347SOL    HW232875   5.703   5.877  11.762
10348SOL     OW32876   4.217   6.878   3.788
10348SOL    HW132877   4.289   6.937   3.808
10348SOL    HW232878   4.175   6.861   3.873
10349SOL     OW32879  12.506   0.104   9.273
10349SOL    HW132880  12.572   0.053   9.227
10349SOL    HW232881  12.483   0.050   9.349
10350SOL     OW32882   6.417   6.644   5.443
10350SOL    HW132883   6.436   6.614   5.532
10350SOL    HW232884   6.445   6.736   5.443
10351SOL     OW32885   0.447   4.187   9.468
10351SOL    HW132886   0.401   4.236   9.536
10351SOL    HW232887   0.506   4.129   9.516
10352SOL     OW32888   9.931   2.395   9.062
10352SOL    HW132889   9.988   2.416   8.988
10352SOL    HW232890   9.909   2.303   9.051
10353SOL     OW32891   3.198  11.026   8.735
10353SOL    HW132892   3.196  10.955   8.799
10353SOL    HW232893   3.137  10.999   8.666
10354SOL     OW32894  13.256  11.946   8.152
10354SOL    HW132895  13.194  11.931   8.080
10354SOL    HW232896  13.297  11.860   8.165
10355SOL     OW32897  13.049   7.978   5.271
10355SOL    HW132898  12.962   8.013   5.291
10355SOL    HW232899  13.032   7.892   5.233
10356SOL     OW32900   1.625   7.410   3.354
10356SOL    HW132901   1.541   7.413   3.400
10356SOL    HW232902   1.645   7.502   3.336
10357SOL     OW32903   6.429   3.987   7.760
10357SOL    HW132904   6.353   4.019   7.809
10357SOL    HW232905   6.392   3.944   7.684
10358SOL     OW32906  10.710  14.538   7.673
10358SOL    HW132907  10.616  14.551   7.687
10358SOL    HW232908  10.734  14.607   7.611
10359SOL     OW32909  12.590   7.230  10.320
10359SOL    HW132910  12.609   7.166  10.389
10359SOL    HW232911  12.565   7.177  10.244
10360SOL     OW32912   5.690   5.061   6.014
10360SOL    HW132913   5.700   5.106   6.097
10360SOL    HW232914   5.642   4.981   6.035
10361SOL     OW32915  12.905   4.046  12.695
10361SOL    HW132916  12.836   4.072  12.756
10361SOL    HW232917  12.985   4.087  12.729
10362SOL     OW32918  12.424  12.526  10.757
10362SOL    HW132919  12.493  12.499  10.697
10362SOL    HW232920  12.435  12.621  10.766
10363SOL     OW32921  13.908   7.130  13.021
10363SOL    HW132922  13.882   7.104  13.110
10363SOL    HW232923  14.003   7.124  13.022
10364SOL     OW32924   9.579   6.012   6.174
10364SOL    HW132925   9.645   6.001   6.106
10364SOL    HW232926   9.624   6.061   6.243
10365SOL     OW32927   7.239  14.264   8.576
10365SOL    HW132928   7.296  14.239   8.649
10365SOL    HW232929   7.248  14.193   8.513
10366SOL     OW32930   8.437  12.346   1.822
10366SOL    HW132931   8.506  12.297   1.778
10366SOL    HW232932   8.484  12.409   1.876
10367SOL     OW32933   1.486  13.722  14.655
10367SOL    HW132934   1.581  13.719  14.659
10367SOL    HW232935   1.460  13.634  14.626
10368SOL     OW32936   7.646  12.027   9.857
10368SOL    HW132937   7.566  11.975   9.862
10368SOL    HW232938   7.627  12.107   9.906
10369SOL     OW32939  11.487   3.658  14.835
10369SOL    HW132940  11.572   3.640  14.797
10369SOL    HW232941  11.473   3.751  14.821
10370SOL     OW32942   1.371   4.886   7.641
10370SOL    HW132943   1.397   4.949   7.709
10370SOL    HW232944   1.363   4.940   7.562
10371SOL     OW32945   8.989  14.003  12.280
10371SOL    HW132946   9.016  13.963  12.362
10371SOL    HW232947   9.068  14.004  12.226
10372SOL     OW32948  11.416  11.115   5.513
10372SOL    HW132949  11.449  11.129   5.424
10372SOL    HW232950  11.485  11.067   5.557
10373SOL     OW32951   9.018  10.755  12.091
10373SOL    HW132952   9.032  10.703  12.012
10373SOL    HW232953   8.978  10.836  12.060
10374SOL     OW32954  12.931   9.867  10.847
10374SOL    HW132955  12.991   9.831  10.913
10374SOL    HW232956  12.946   9.813  10.770
10375SOL     OW32957   7.056   0.603   2.075
10375SOL    HW132958   7.141   0.565   2.097
10375SOL    HW232959   7.074   0.697   2.065
10376SOL     OW32960  13.188   3.833   7.434
10376SOL    HW132961  13.268   3.867   7.394
10376SOL    HW232962  13.210   3.744   7.461
10377SOL     OW32963  11.307   8.324  10.341
10377SOL    HW132964  11.295   8.272  10.420
10377SOL    HW232965  11.235   8.296  10.283
10378SOL     OW32966   8.645  10.912   8.190
10378SOL    HW132967   8.716  10.848   8.183
10378SOL    HW232968   8.689  10.997   8.184
10379SOL     OW32969  10.062  13.646   4.265
10379SOL    HW132970  10.114  13.606   4.335
10379SOL    HW232971  10.006  13.710   4.309
10380SOL     OW32972   0.385  13.713   9.091
10380SOL    HW132973   0.471  13.751   9.073
10380SOL    HW232974   0.333  13.732   9.013
10381SOL     OW32975   1.723   7.576   7.742
10381SOL    HW132976   1.736   7.526   7.823
10381SOL    HW232977   1.650   7.532   7.699
10382SOL     OW32978   8.247   8.858   3.770
10382SOL    HW132979   8.319   8.879   3.710
10382SOL    HW232980   8.268   8.770   3.801
10383SOL     OW32981  11.488  13.620   0.629
10383SOL    HW132982  11.435  13.685   0.675
10383SOL    HW232983  11.578  13.653   0.635
10384SOL     OW32984  12.071  13.239   0.294
10384SOL    HW132985  12.053  13.183   0.218
10384SOL    HW232986  12.072  13.178   0.368
10385SOL     OW32987  12.325   8.009  12.919
10385SOL    HW132988  12.400   8.007  12.858
10385SOL    HW232989  12.338   7.933  12.975
10386SOL     OW32990   2.068   9.205   5.002
10386SOL    HW132991   2.031   9.254   4.929
10386SOL    HW232992   2.024   9.241   5.079
10387SOL     OW32993   7.076  14.312   6.749
10387SOL    HW132994   7.111  14.353   6.670
10387SOL    HW232995   7.003  14.259   6.719
10388SOL     OW32996   9.863   1.278   3.971
10388SOL    HW132997   9.848   1.189   3.939
10388SOL    HW232998   9.783   1.325   3.950
10389SOL     OW32999   0.209   5.484   5.657
10389SOL    HW133000   0.122   5.449   5.672
10389SOL    HW233001   0.194   5.568   5.613
10390SOL     OW33002   2.818  14.623   1.912
10390SOL    HW133003   2.757  14.551   1.925
10390SOL    HW233004   2.767  14.702   1.931
10391SOL     OW33005   0.637   7.746   3.549
10391SOL    HW133006   0.604   7.785   3.468
10391SOL    HW233007   0.586   7.666   3.560
10392SOL     OW33008  13.923   4.126   2.159
10392SOL    HW133009  13.881   4.054   2.206
10392SOL    HW233010  13.977   4.083   2.093
10393SOL     OW33011   0.255   0.540  12.117
10393SOL    HW133012   0.203   0.526  12.196
10393SOL    HW233013   0.195   0.523  12.045
10394SOL     OW33014  10.171  11.863   9.841
10394SOL    HW133015  10.161  11.840   9.749
10394SOL    HW233016  10.214  11.788   9.881
10395SOL     OW33017  14.212   8.237  14.713
10395SOL    HW133018  14.280   8.181  14.749
10395SOL    HW233019  14.161   8.265  14.789
10396SOL     OW33020   3.052   7.174   5.073
10396SOL    HW133021   2.974   7.226   5.058
10396SOL    HW233022   3.082   7.200   5.160
10397SOL     OW33023   7.070   3.200  12.049
10397SOL    HW133024   7.138   3.166  12.107
10397SOL    HW233025   7.072   3.141  11.974
10398SOL     OW33026   9.635   0.471   2.919
10398SOL    HW133027   9.689   0.465   2.998
10398SOL    HW233028   9.697   0.458   2.847
10399SOL     OW33029   7.360   9.528  12.943
10399SOL    HW133030   7.453   9.509  12.939
10399SOL    HW233031   7.350   9.588  13.017
10400SOL     OW33032  13.486  14.683   3.121
10400SOL    HW133033  13.533  14.660   3.202
10400SOL    HW233034  13.536  14.642   3.051
10401SOL     OW33035  12.149   8.806   8.457
10401SOL    HW133036  12.221   8.754   8.493
10401SOL    HW233037  12.123   8.759   8.378
10402SOL     OW33038   9.832   8.347  13.601
10402SOL    HW133039   9.750   8.340  13.551
10402SOL    HW233040   9.809   8.320  13.689
10403SOL     OW33041  11.372   3.695   3.856
10403SOL    HW133042  11.449   3.716   3.804
10403SOL    HW233043  11.298   3.714   3.798
10404SOL     OW33044   1.680  11.712   7.507
10404SOL    HW133045   1.730  11.703   7.426
10404SOL    HW233046   1.597  11.752   7.480
10405SOL     OW33047  10.999   4.706  11.659
10405SOL    HW133048  10.988   4.760  11.581
10405SOL    HW233049  11.069   4.646  11.636
10406SOL     OW33050   6.269   4.856  13.796
10406SOL    HW133051   6.268   4.949  13.821
10406SOL    HW233052   6.330   4.852  13.722
10407SOL     OW33053  10.753   8.737  14.069
10407SOL    HW133054  10.741   8.730  13.974
10407SOL    HW233055  10.701   8.814  14.094
10408SOL     OW33056   6.890   7.835   3.145
10408SOL    HW133057   6.983   7.854   3.137
10408SOL    HW233058   6.877   7.812   3.237
10409SOL     OW33059  11.756   0.092  11.003
10409SOL    HW133060  11.674   0.043  11.010
10409SOL    HW233061  11.823   0.024  10.993
10410SOL     OW33062   4.344   3.012  12.267
10410SOL    HW133063   4.270   2.993  12.209
10410SOL    HW233064   4.392   2.930  12.271
10411SOL     OW33065  12.304  13.604   1.369
10411SOL    HW133066  12.373  13.595   1.436
10411SOL    HW233067  12.281  13.697   1.371
10412SOL     OW33068   9.414  13.428   5.539
10412SOL    HW133069   9.354  13.356   5.519
10412SOL    HW233070   9.497  13.385   5.560
10413SOL     OW33071   9.460   1.509  14.099
10413SOL    HW133072   9.439   1.587  14.150
10413SOL    HW233073   9.538   1.473  14.141
10414SOL     OW33074   8.433   9.737   4.717
10414SOL    HW133075   8.499   9.805   4.710
10414SOL    HW233076   8.366   9.762   4.654
10415SOL     OW33077  11.552   0.013   2.895
10415SOL    HW133078  11.471   0.063   2.888
10415SOL    HW233079  11.530  14.805   2.862
10416SOL     OW33080   9.025   7.116   8.041
10416SOL    HW133081   9.118   7.139   8.043
10416SOL    HW233082   8.983   7.184   8.094
10417SOL     OW33083   5.234   2.225   9.528
10417SOL    HW133084   5.323   2.215   9.493
10417SOL    HW233085   5.231   2.315   9.559
10418SOL     OW33086  14.002  11.772   1.803
10418SOL    HW133087  14.047  11.688   1.800
10418SOL    HW233088  14.072  11.837   1.803
10419SOL     OW33089  14.715  13.632   9.127
10419SOL    HW133090  14.806  13.636   9.099
10419SOL    HW233091  14.672  13.577   9.061
10420SOL     OW33092   5.085   3.874  11.890
10420SOL    HW133093   5.094   3.790  11.934
10420SOL    HW233094   5.140   3.867  11.812
10421SOL     OW33095   0.451  13.527  11.735
10421SOL    HW133096   0.409  13.441  11.726
10421SOL    HW233097   0.379  13.587  11.757
10422SOL     OW33098   4.393   8.742   6.852
10422SOL    HW133099   4.470   8.724   6.907
10422SOL    HW233100   4.416   8.705   6.766
10423SOL     OW33101   6.370  14.564  12.975
10423SOL    HW133102   6.368  14.610  13.059
10423SOL    HW233103   6.438  14.608  12.925
10424SOL     OW33104   8.374   1.680   1.259
10424SOL    HW133105   8.421   1.750   1.304
10424SOL    HW233106   8.344   1.621   1.329
10425SOL     OW33107  13.568   7.298   0.445
10425SOL    HW133108  13.659   7.270   0.438
10425SOL    HW233109  13.566   7.353   0.523
10426SOL     OW33110   1.995   0.894   5.180
10426SOL    HW133111   2.037   0.809   5.168
10426SOL    HW233112   1.935   0.881   5.254
10427SOL     OW33113   2.727   2.073   1.451
10427SOL    HW133114   2.782   2.152   1.445
10427SOL    HW233115   2.717   2.059   1.545
10428SOL     OW33116   2.036   6.494   3.446
10428SOL    HW133117   2.021   6.552   3.520
10428SOL    HW233118   1.986   6.532   3.374
10429SOL     OW33119  12.251   7.852   8.336
10429SOL    HW133120  12.242   7.942   8.368
10429SOL    HW233121  12.282   7.861   8.246
10430SOL     OW33122   7.251  11.764  14.133
10430SOL    HW133123   7.194  11.687  14.131
10430SOL    HW233124   7.339  11.727  14.138
10431SOL     OW33125   4.821   8.603   7.116
10431SOL    HW133126   4.771   8.558   7.184
10431SOL    HW233127   4.911   8.603   7.149
10432SOL     OW33128   3.365   0.163   1.394
10432SOL    HW133129   3.388   0.148   1.302
10432SOL    HW233130   3.427   0.111   1.443
10433SOL     OW33131  12.077   0.156   8.573
10433SOL    HW133132  12.047   0.131   8.660
10433SOL    HW233133  12.172   0.158   8.580
10434SOL     OW33134   2.622  13.721   0.263
10434SOL    HW133135   2.546  13.767   0.301
10434SOL    HW233136   2.654  13.665   0.333
10435SOL     OW33137   5.667   1.081  10.973
10435SOL    HW133138   5.595   1.043  10.923
10435SOL    HW233139   5.695   1.012  11.033
10436SOL     OW33140   4.612  13.364   7.842
10436SOL    HW133141   4.703  13.340   7.823
10436SOL    HW233142   4.561  13.290   7.809
10437SOL     OW33143  14.471  10.501  14.248
10437SOL    HW133144  14.384  10.536  14.229
10437SOL    HW233145  14.460  10.406  14.247
10438SOL     OW33146  11.887  14.756  10.988
10438SOL    HW133147  11.975  14.781  11.017
10438SOL    HW233148  11.891  14.661  10.978
10439SOL     OW33149   9.574  14.326  11.938
10439SOL    HW133150   9.541  14.249  11.893
10439SOL    HW233151   9.660  14.341  11.900
10440SOL     OW33152  14.388  13.318   1.067
10440SOL    HW133153  14.313  13.376   1.049
10440SOL    HW233154  14.458  13.377   1.094
10441SOL     OW33155   1.730   6.371  12.931
10441SOL    HW133156   1.715   6.280  12.956
10441SOL    HW233157   1.807   6.369  12.875
10442SOL     OW33158   2.168   7.878   2.914
10442SOL    HW133159   2.082   7.839   2.899
10442SOL    HW233160   2.227   7.830   2.856
10443SOL     OW33161   5.867   5.503   2.964
10443SOL    HW133162   5.835   5.593   2.956
10443SOL    HW233163   5.912   5.486   2.881
10444SOL     OW33164  13.187   9.218   5.056
10444SOL    HW133165  13.242   9.260   4.989
10444SOL    HW233166  13.247   9.200   5.128
10445SOL     OW33167   2.248  12.371   3.700
10445SOL    HW133168   2.177  12.419   3.743
10445SOL    HW233169   2.208  12.289   3.673
10446SOL     OW33170   7.123   0.537   5.955
10446SOL    HW133171   7.028   0.549   5.955
10446SOL    HW233172   7.137   0.457   5.903
10447SOL     OW33173   2.570   1.974   7.916
10447SOL    HW133174   2.541   2.018   7.836
10447SOL    HW233175   2.552   2.037   7.986
10448SOL     OW33176  10.447   6.996  10.561
10448SOL    HW133177  10.507   6.924  10.581
10448SOL    HW233178  10.465   7.017  10.469
10449SOL     OW33179  13.919   8.227  10.411
10449SOL    HW133180  14.005   8.232  10.369
10449SOL    HW233181  13.861   8.275  10.352
10450SOL     OW33182   4.928  10.279   0.289
10450SOL    HW133183   4.995  10.296   0.223
10450SOL    HW233184   4.977  10.255   0.367
10451SOL     OW33185   3.805   5.250  11.301
10451SOL    HW133186   3.765   5.174  11.259
10451SOL    HW233187   3.857   5.213  11.372
10452SOL     OW33188  11.560   1.574  12.582
10452SOL    HW133189  11.519   1.551  12.498
10452SOL    HW233190  11.526   1.662  12.602
10453SOL     OW33191   0.375   2.117   7.990
10453SOL    HW133192   0.352   2.198   7.944
10453SOL    HW233193   0.468   2.103   7.969
10454SOL     OW33194   8.575   2.091   5.104
10454SOL    HW133195   8.555   2.081   5.011
10454SOL    HW233196   8.533   2.174   5.129
10455SOL     OW33197   5.308   4.096   9.444
10455SOL    HW133198   5.357   4.173   9.474
10455SOL    HW233199   5.230   4.094   9.500
10456SOL     OW33200   3.422   4.428  11.833
10456SOL    HW133201   3.357   4.433  11.903
10456SOL    HW233202   3.506   4.442  11.877
10457SOL     OW33203  14.869  10.737  10.093
10457SOL    HW133204  14.789  10.729  10.041
10457SOL    HW233205  14.837  10.740  10.184
10458SOL     OW33206   3.541   9.072   2.881
10458SOL    HW133207   3.470   9.008   2.883
10458SOL    HW233208   3.503   9.152   2.919
10459SOL     OW33209   2.450   4.383   1.713
10459SOL    HW133210   2.407   4.415   1.793
10459SOL    HW233211   2.543   4.396   1.729
10460SOL     OW33212   0.777  11.843  11.004
10460SOL    HW133213   0.740  11.904  10.941
10460SOL    HW233214   0.836  11.896  11.057
10461SOL     OW33215   1.312  13.748   2.091
10461SOL    HW133216   1.270  13.828   2.059
10461SOL    HW233217   1.291  13.682   2.025
10462SOL     OW33218  11.912   8.804   5.648
10462SOL    HW133219  11.971   8.822   5.575
10462SOL    HW233220  11.828   8.785   5.607
10463SOL     OW33221  12.529   8.746   9.804
10463SOL    HW133222  12.530   8.829   9.758
10463SOL    HW233223  12.455   8.698   9.768
10464SOL     OW33224   8.774   7.519  13.010
10464SOL    HW133225   8.711   7.450  12.992
10464SOL    HW233226   8.726   7.601  12.996
10465SOL     OW33227   2.116  13.208   9.856
10465SOL    HW133228   2.112  13.231   9.949
10465SOL    HW233229   2.205  13.232   9.830
10466SOL     OW33230   4.313   2.472  12.609
10466SOL    HW133231   4.297   2.541  12.544
10466SOL    HW233232   4.393   2.499  12.653
10467SOL     OW33233  13.165   8.039   5.000
10467SOL    HW133234  13.102   8.049   5.071
10467SOL    HW233235  13.120   8.071   4.922
10468SOL     OW33236   9.340   7.200   4.876
10468SOL    HW133237   9.319   7.107   4.888
10468SOL    HW233238   9.410   7.217   4.938
10469SOL     OW33239   6.481   7.102   0.617
10469SOL    HW133240   6.532   7.166   0.667
10469SOL    HW233241   6.467   7.142   0.532
10470SOL     OW33242  14.495  11.064   1.298
10470SOL    HW133243  14.484  11.104   1.384
10470SOL    HW233244  14.413  11.082   1.252
10471SOL     OW33245   5.718  13.068   4.598
10471SOL    HW133246   5.773  13.141   4.569
10471SOL    HW233247   5.650  13.060   4.531
10472SOL     OW33248  10.560   6.795  13.004
10472SOL    HW133249  10.650   6.824  12.989
10472SOL    HW233250  10.506   6.870  12.979
10473SOL     OW33251   2.136  12.548   2.131
10473SOL    HW133252   2.146  12.602   2.210
10473SOL    HW233253   2.225  12.537   2.098
10474SOL     OW33254   6.853   5.765  11.217
10474SOL    HW133255   6.774   5.717  11.192
10474SOL    HW233256   6.830   5.857  11.203
10475SOL     OW33257   5.286  11.273  11.269
10475SOL    HW133258   5.262  11.239  11.355
10475SOL    HW233259   5.203  11.284  11.223
10476SOL     OW33260   3.052   8.635   0.309
10476SOL    HW133261   3.144   8.630   0.338
10476SOL    HW233262   3.040   8.727   0.285
10477SOL     OW33263  10.904  10.146   3.268
10477SOL    HW133264  10.858  10.062   3.281
10477SOL    HW233265  10.865  10.204   3.334
10478SOL     OW33266   3.663   0.115   8.402
10478SOL    HW133267   3.607   0.144   8.474
10478SOL    HW233268   3.684   0.024   8.423
10479SOL     OW33269   8.586  11.050   0.551
10479SOL    HW133270   8.522  11.058   0.621
10479SOL    HW233271   8.640  10.975   0.576
10480SOL     OW33272   9.181   9.797   5.647
10480SOL    HW133273   9.110   9.834   5.699
10480SOL    HW233274   9.182   9.704   5.671
10481SOL     OW33275   4.775   4.780  12.936
10481SOL    HW133276   4.692   4.736  12.952
10481SOL    HW233277   4.842   4.713  12.951
10482SOL     OW33278   8.404   5.954   9.589
10482SOL    HW133279   8.492   5.989   9.598
10482SOL    HW233280   8.414   5.875   9.536
10483SOL     OW33281   2.853   4.313   7.866
10483SOL    HW133282   2.795   4.384   7.836
10483SOL    HW233283   2.938   4.355   7.877
10484SOL     OW33284   7.923   9.934  10.693
10484SOL    HW133285   7.864   9.974  10.757
10484SOL    HW233286   7.940   9.847  10.728
10485SOL     OW33287   9.196  14.772   1.855
10485SOL    HW133288   9.130  14.777   1.786
10485SOL    HW233289   9.260  14.840   1.833
10486SOL     OW33290   0.832   8.868  10.693
10486SOL    HW133291   0.843   8.945  10.637
10486SOL    HW233292   0.751   8.885  10.742
10487SOL     OW33293  12.759   8.910   9.892
10487SOL    HW133294  12.686   8.920   9.831
10487SOL    HW233295  12.833   8.954   9.849
10488SOL     OW33296   5.412   7.174   9.741
10488SOL    HW133297   5.494   7.181   9.692
10488SOL    HW233298   5.429   7.108   9.808
10489SOL     OW33299   0.269   9.636   5.992
10489SOL    HW133300   0.354   9.614   5.955
10489SOL    HW233301   0.263   9.585   6.073
10490SOL     OW33302   7.703  13.410   3.839
10490SOL    HW133303   7.650  13.341   3.800
10490SOL    HW233304   7.785  13.408   3.790
10491SOL     OW33305   7.036  14.677  10.305
10491SOL    HW133306   7.115  14.729  10.293
10491SOL    HW233307   7.066  14.586  10.295
10492SOL     OW33308   1.651   3.091  14.272
10492SOL    HW133309   1.631   3.078  14.364
10492SOL    HW233310   1.605   3.171  14.248
10493SOL     OW33311  12.404   3.955   5.436
10493SOL    HW133312  12.320   3.978   5.474
10493SOL    HW233313  12.383   3.923   5.348
10494SOL     OW33314   3.641   4.834   4.114
10494SOL    HW133315   3.562   4.885   4.135
10494SOL    HW233316   3.710   4.876   4.165
10495SOL     OW33317   1.428   1.679   8.958
10495SOL    HW133318   1.507   1.694   9.009
10495SOL    HW233319   1.389   1.600   8.996
10496SOL     OW33320   0.900   1.427   4.148
10496SOL    HW133321   0.962   1.379   4.204
10496SOL    HW233322   0.955   1.468   4.082
10497SOL     OW33323   5.186   7.115   0.482
10497SOL    HW133324   5.146   7.035   0.447
10497SOL    HW233325   5.164   7.182   0.418
10498SOL     OW33326  11.250   8.391   2.929
10498SOL    HW133327  11.240   8.486   2.930
10498SOL    HW233328  11.178   8.360   2.874
10499SOL     OW33329   8.123   2.667  12.373
10499SOL    HW133330   8.143   2.574  12.381
10499SOL    HW233331   8.131   2.701  12.462
10500SOL     OW33332   2.339   4.262  14.219
10500SOL    HW133333   2.389   4.288  14.142
10500SOL    HW233334   2.400   4.275  14.292
10501SOL     OW33335   4.478  13.358   3.989
10501SOL    HW133336   4.415  13.363   3.917
10501SOL    HW233337   4.467  13.440   4.037
10502SOL     OW33338   1.366   0.169  10.793
10502SOL    HW133339   1.393   0.238  10.733
10502SOL    HW233340   1.302   0.211  10.851
10503SOL     OW33341   5.704   4.913  14.839
10503SOL    HW133342   5.693   4.857   0.036
10503SOL    HW233343   5.662   4.995  14.863
10504SOL     OW33344   1.223   6.037  10.458
10504SOL    HW133345   1.171   6.033  10.537
10504SOL    HW233346   1.308   6.000  10.483
10505SOL     OW33347  14.261   4.436  10.470
10505SOL    HW133348  14.324   4.502  10.442
10505SOL    HW233349  14.178   4.484  10.481
10506SOL     OW33350  12.272   2.493   2.241
10506SOL    HW133351  12.297   2.580   2.273
10506SOL    HW233352  12.271   2.438   2.318
10507SOL     OW33353   8.380   6.865  11.815
10507SOL    HW133354   8.329   6.801  11.765
10507SOL    HW233355   8.461   6.875  11.764
10508SOL     OW33356   2.963  14.082   9.258
10508SOL    HW133357   3.028  14.022   9.221
10508SOL    HW233358   2.963  14.157   9.197
10509SOL     OW33359   1.559  11.436   6.652
10509SOL    HW133360   1.586  11.381   6.725
10509SOL    HW233361   1.481  11.393   6.617
10510SOL     OW33362  10.461   8.689   4.685
10510SOL    HW133363  10.484   8.669   4.594
10510SOL    HW233364  10.490   8.779   4.698
10511SOL     OW33365   1.147   9.037   4.592
10511SOL    HW133366   1.158   8.978   4.667
10511SOL    HW233367   1.063   9.079   4.606
10512SOL     OW33368   7.335   9.498   7.010
10512SOL    HW133369   7.360   9.406   7.014
10512SOL    HW233370   7.410   9.542   6.971
10513SOL     OW33371   0.815  12.075   6.714
10513SOL    HW133372   0.878  12.134   6.672
10513SOL    HW233373   0.783  12.123   6.790
10514SOL     OW33374   9.404  12.315   2.797
10514SOL    HW133375   9.475  12.255   2.821
10514SOL    HW233376   9.425  12.342   2.708
10515SOL     OW33377   8.921   6.827   1.493
10515SOL    HW133378   8.969   6.860   1.569
10515SOL    HW233379   8.880   6.746   1.523
10516SOL     OW33380   1.552   9.353   3.481
10516SOL    HW133381   1.506   9.341   3.564
10516SOL    HW233382   1.606   9.275   3.473
10517SOL     OW33383  14.203  10.167   9.182
10517SOL    HW133384  14.109  10.156   9.193
10517SOL    HW233385  14.219  10.259   9.202
10518SOL     OW33386  12.707   2.922  10.842
10518SOL    HW133387  12.775   2.980  10.874
10518SOL    HW233388  12.649   2.910  10.917
10519SOL     OW33389   8.670  13.209   9.238
10519SOL    HW133390   8.695  13.283   9.183
10519SOL    HW233391   8.671  13.243   9.327
10520SOL     OW33392   1.974   7.100   6.874
10520SOL    HW133393   2.025   7.085   6.954
10520SOL    HW233394   1.883   7.099   6.903
10521SOL     OW33395   4.659  12.366   0.432
10521SOL    HW133396   4.746  12.338   0.404
10521SOL    HW233397   4.624  12.415   0.357
10522SOL     OW33398   3.624  14.736   6.997
10522SOL    HW133399   3.677  14.803   6.953
10522SOL    HW233400   3.679  14.706   7.069
10523SOL     OW33401   7.932  10.387   1.677
10523SOL    HW133402   7.919  10.316   1.740
10523SOL    HW233403   8.025  10.381   1.653
10524SOL     OW33404   5.994  12.805   5.637
10524SOL    HW133405   5.975  12.821   5.545
10524SOL    HW233406   5.993  12.709   5.645
10525SOL     OW33407   1.345   7.424   0.341
10525SOL    HW133408   1.356   7.405   0.434
10525SOL    HW233409   1.430   7.460   0.314
10526SOL     OW33410  10.302   4.279   7.373
10526SOL    HW133411  10.247   4.215   7.327
10526SOL    HW233412  10.291   4.360   7.324
10527SOL     OW33413   7.016   1.811   5.894
10527SOL    HW133414   7.025   1.816   5.798
10527SOL    HW233415   7.065   1.887   5.926
10528SOL     OW33416  14.161   7.302  14.186
10528SOL    HW133417  14.200   7.345  14.262
10528SOL    HW233418  14.218   7.326  14.113
10529SOL     OW33419   5.732  14.184  14.567
10529SOL    HW133420   5.764  14.216  14.483
10529SOL    HW233421   5.759  14.251  14.630
10530SOL     OW33422   8.460   3.661   5.930
10530SOL    HW133423   8.521   3.702   5.868
10530SOL    HW233424   8.496   3.682   6.016
10531SOL     OW33425   5.889   2.166   3.916
10531SOL    HW133426   5.864   2.206   4.000
10531SOL    HW233427   5.896   2.240   3.855
10532SOL     OW33428   3.594  11.180   4.558
10532SOL    HW133429   3.577  11.105   4.500
10532SOL    HW233430   3.571  11.257   4.505
10533SOL     OW33431   6.760  10.818   7.327
10533SOL    HW133432   6.753  10.767   7.408
10533SOL    HW233433   6.804  10.760   7.265
10534SOL     OW33434   6.259  11.676  12.122
10534SOL    HW133435   6.342  11.636  12.147
10534SOL    HW233436   6.217  11.610  12.066
10535SOL     OW33437   4.825   1.677   3.448
10535SOL    HW133438   4.914   1.644   3.438
10535SOL    HW233439   4.772   1.599   3.468
10536SOL     OW33440   4.420  12.191   8.732
10536SOL    HW133441   4.508  12.154   8.743
10536SOL    HW233442   4.435  12.284   8.712
10537SOL     OW33443  10.929   4.765   8.643
10537SOL    HW133444  10.967   4.850   8.666
10537SOL    HW233445  10.834   4.777   8.654
10538SOL     OW33446   7.391   7.483   7.284
10538SOL    HW133447   7.345   7.418   7.338
10538SOL    HW233448   7.366   7.567   7.323
10539SOL     OW33449   2.319  11.110   1.092
10539SOL    HW133450   2.369  11.191   1.087
10539SOL    HW233451   2.247  11.130   1.151
10540SOL     OW33452  13.600   4.232  14.243
10540SOL    HW133453  13.531   4.268  14.187
10540SOL    HW233454  13.573   4.256  14.332
10541SOL     OW33455  14.085  14.309  12.050
10541SOL    HW133456  14.064  14.223  12.088
10541SOL    HW233457  14.006  14.361  12.064
10542SOL     OW33458  12.867  10.752  10.742
10542SOL    HW133459  12.932  10.743  10.812
10542SOL    HW233460  12.919  10.764  10.663
10543SOL     OW33461  14.203  10.183   2.606
10543SOL    HW133462  14.214  10.213   2.696
10543SOL    HW233463  14.286  10.204   2.563
10544SOL     OW33464   6.487   1.391  12.603
10544SOL    HW133465   6.571   1.352  12.627
10544SOL    HW233466   6.437   1.393  12.685
10545SOL     OW33467   4.347  14.574  14.550
10545SOL    HW133468   4.347  14.530  14.465
10545SOL    HW233469   4.412  14.644  14.541
10546SOL     OW33470   8.440   1.190   4.637
10546SOL    HW133471   8.506   1.221   4.576
10546SOL    HW233472   8.361   1.238   4.614
10547SOL     OW33473   1.152   5.337   7.007
10547SOL    HW133474   1.188   5.305   7.090
10547SOL    HW233475   1.226   5.379   6.964
10548SOL     OW33476  14.202   1.324  11.274
10548SOL    HW133477  14.297   1.316  11.282
10548SOL    HW233478  14.178   1.385  11.344
10549SOL     OW33479   0.304   1.619   2.546
10549SOL    HW133480   0.349   1.701   2.567
10549SOL    HW233481   0.374   1.558   2.522
10550SOL     OW33482   6.815   3.239  11.120
10550SOL    HW133483   6.795   3.260  11.211
10550SOL    HW233484   6.907   3.262  11.109
10551SOL     OW33485  11.595   0.088  14.348
10551SOL    HW133486  11.509   0.114  14.381
10551SOL    HW233487  11.582   0.001  14.311
10552SOL     OW33488   5.365   9.566   3.607
10552SOL    HW133489   5.352   9.552   3.513
10552SOL    HW233490   5.457   9.587   3.616
10553SOL     OW33491   7.599  11.722   0.317
10553SOL    HW133492   7.657  11.769   0.377
10553SOL    HW233493   7.637  11.736   0.231
10554SOL     OW33494   8.150  12.121   0.608
10554SOL    HW133495   8.070  12.082   0.572
10554SOL    HW233496   8.139  12.114   0.703
10555SOL     OW33497  10.016   0.952  14.489
10555SOL    HW133498  10.078   1.006  14.438
10555SOL    HW233499  10.050   0.956  14.578
10556SOL     OW33500   5.121   7.481  11.280
10556SOL    HW133501   5.062   7.556  11.281
10556SOL    HW233502   5.202   7.514  11.242
10557SOL     OW33503  12.464   4.460   9.808
10557SOL    HW133504  12.498   4.548   9.827
10557SOL    HW233505  12.499   4.405   9.878
10558SOL     OW33506   2.147   8.205   1.079
10558SOL    HW133507   2.112   8.252   1.154
10558SOL    HW233508   2.227   8.164   1.111
10559SOL     OW33509  14.382   0.008   4.460
10559SOL    HW133510  14.463   0.024   4.411
10559SOL    HW233511  14.318  14.863   4.392
10560SOL     OW33512  11.378  12.167   1.244
10560SOL    HW133513  11.300  12.213   1.212
10560SOL    HW233514  11.346  12.112   1.315
10561SOL     OW33515   2.876  12.453   0.524
10561SOL    HW133516   2.817  12.400   0.578
10561SOL    HW233517   2.963  12.421   0.545
10562SOL     OW33518   7.312   9.250   8.174
10562SOL    HW133519   7.222   9.282   8.167
10562SOL    HW233520   7.316   9.211   8.262
10563SOL     OW33521   2.868   1.321   0.107
10563SOL    HW133522   2.948   1.332   0.055
10563SOL    HW233523   2.883   1.240   0.156
10564SOL     OW33524  10.122   9.959   2.832
10564SOL    HW133525  10.168   9.923   2.755
10564SOL    HW233526  10.075  10.035   2.797
10565SOL     OW33527   6.610   8.969   8.542
10565SOL    HW133528   6.598   8.930   8.628
10565SOL    HW233529   6.617   8.895   8.482
10566SOL     OW33530   8.273   4.074   5.660
10566SOL    HW133531   8.269   4.109   5.571
10566SOL    HW233532   8.190   4.029   5.673
10567SOL     OW33533   2.681   5.706   2.278
10567SOL    HW133534   2.726   5.771   2.332
10567SOL    HW233535   2.603   5.684   2.328
10568SOL     OW33536   5.241  11.668   0.963
10568SOL    HW133537   5.220  11.630   1.049
10568SOL    HW233538   5.334  11.691   0.969
10569SOL     OW33539   8.587  12.058   4.562
10569SOL    HW133540   8.493  12.070   4.569
10569SOL    HW233541   8.597  11.970   4.525
10570SOL     OW33542  10.803  12.808   1.883
10570SOL    HW133543  10.893  12.800   1.913
10570SOL    HW233544  10.809  12.858   1.801
10571SOL     OW33545   0.867   7.176   0.403
10571SOL    HW133546   0.815   7.241   0.355
10571SOL    HW233547   0.954   7.217   0.412
10572SOL     OW33548   9.800  13.590   0.206
10572SOL    HW133549   9.722  13.635   0.174
10572SOL    HW233550   9.767  13.527   0.271
10573SOL     OW33551   0.242   8.334   0.772
10573SOL    HW133552   0.326   8.373   0.750
10573SOL    HW233553   0.254   8.240   0.759
10574SOL     OW33554  10.849  10.899   8.349
10574SOL    HW133555  10.863  10.883   8.256
10574SOL    HW233556  10.867  10.993   8.360
10575SOL     OW33557   2.262  13.891   8.735
10575SOL    HW133558   2.196  13.954   8.707
10575SOL    HW233559   2.221  13.843   8.807
10576SOL     OW33560  14.316   3.590   6.173
10576SOL    HW133561  14.317   3.622   6.263
10576SOL    HW233562  14.376   3.648   6.126
10577SOL     OW33563   0.744   6.421  12.561
10577SOL    HW133564   0.653   6.447  12.550
10577SOL    HW233565   0.755   6.347  12.501
10578SOL     OW33566   7.300   9.271  10.884
10578SOL    HW133567   7.322   9.351  10.836
10578SOL    HW233568   7.345   9.201  10.836
10579SOL     OW33569   2.622  10.138   5.431
10579SOL    HW133570   2.675  10.156   5.508
10579SOL    HW233571   2.591  10.224   5.403
10580SOL     OW33572   0.086  14.742  10.048
10580SOL    HW133573   0.048  14.667  10.002
10580SOL    HW233574   0.027  14.815  10.028
10581SOL     OW33575  12.313   9.929   2.227
10581SOL    HW133576  12.234   9.901   2.180
10581SOL    HW233577  12.332   9.858   2.287
10582SOL     OW33578   8.510   6.176   6.830
10582SOL    HW133579   8.540   6.092   6.866
10582SOL    HW233580   8.419   6.184   6.859
10583SOL     OW33581  11.786   2.329   8.065
10583SOL    HW133582  11.762   2.246   8.023
10583SOL    HW233583  11.754   2.396   8.005
10584SOL     OW33584  14.472  11.688  10.111
10584SOL    HW133585  14.440  11.778  10.105
10584SOL    HW233586  14.459  11.665  10.203
10585SOL     OW33587   4.154   3.690   1.751
10585SOL    HW133588   4.216   3.754   1.716
10585SOL    HW233589   4.068   3.731   1.739
10586SOL     OW33590  12.059  11.948   7.407
10586SOL    HW133591  11.972  11.978   7.434
10586SOL    HW233592  12.118  11.985   7.473
10587SOL     OW33593  14.018   2.930  14.227
10587SOL    HW133594  14.107   2.948  14.257
10587SOL    HW233595  14.001   2.998  14.161
10588SOL     OW33596  12.846   7.568   6.961
10588SOL    HW133597  12.865   7.531   6.874
10588SOL    HW233598  12.757   7.602   6.954
10589SOL     OW33599  13.723   4.764  14.726
10589SOL    HW133600  13.712   4.858  14.741
10589SOL    HW233601  13.809   4.744  14.762
10590SOL     OW33602   1.332   8.250   8.230
10590SOL    HW133603   1.289   8.246   8.144
10590SOL    HW233604   1.398   8.181   8.227
10591SOL     OW33605   3.393   9.698  10.267
10591SOL    HW133606   3.416   9.634  10.335
10591SOL    HW233607   3.371   9.777  10.315
10592SOL     OW33608   5.160  13.541  14.033
10592SOL    HW133609   5.094  13.602  14.001
10592SOL    HW233610   5.110  13.466  14.064
10593SOL     OW33611  10.340   5.058  12.611
10593SOL    HW133612  10.435   5.072  12.606
10593SOL    HW233613  10.307   5.087  12.526
10594SOL     OW33614   7.963   3.976   0.607
10594SOL    HW133615   7.968   4.047   0.672
10594SOL    HW233616   7.891   4.002   0.549
10595SOL     OW33617  11.548   9.141  13.935
10595SOL    HW133618  11.523   9.165  13.846
10595SOL    HW233619  11.504   9.057  13.950
10596SOL     OW33620  10.612  13.468   4.918
10596SOL    HW133621  10.549  13.536   4.944
10596SOL    HW233622  10.592  13.394   4.975
10597SOL     OW33623   9.671   8.819   5.497
10597SOL    HW133624   9.622   8.872   5.434
10597SOL    HW233625   9.635   8.842   5.582
10598SOL     OW33626   8.701  12.963  12.217
10598SOL    HW133627   8.667  12.898  12.278
10598SOL    HW233628   8.774  13.004  12.264
10599SOL     OW33629  12.880   6.562   3.201
10599SOL    HW133630  12.835   6.483   3.171
10599SOL    HW233631  12.951   6.574   3.137
10600SOL     OW33632   4.444   6.474   7.580
10600SOL    HW133633   4.363   6.428   7.556
10600SOL    HW233634   4.466   6.441   7.667
10601SOL     OW33635  12.896   8.489   6.374
10601SOL    HW133636  12.887   8.566   6.318
10601SOL    HW233637  12.988   8.463   6.366
10602SOL     OW33638  10.840   9.911  14.493
10602SOL    HW133639  10.831   9.824  14.531
10602SOL    HW233640  10.762   9.923  14.439
10603SOL     OW33641   5.307   2.876  12.361
10603SOL    HW133642   5.281   2.785  12.379
10603SOL    HW233643   5.232   2.914  12.315
10604SOL     OW33644  14.174  10.082   8.775
10604SOL    HW133645  14.269  10.085   8.782
10604SOL    HW233646  14.148  10.173   8.759
10605SOL     OW33647   9.041   2.471   5.416
10605SOL    HW133648   9.005   2.544   5.466
10605SOL    HW233649   9.015   2.393   5.465
10606SOL     OW33650   6.359   9.926   2.244
10606SOL    HW133651   6.340  10.020   2.246
10606SOL    HW233652   6.427   9.916   2.177
10607SOL     OW33653   4.735   5.367   6.600
10607SOL    HW133654   4.797   5.354   6.672
10607SOL    HW233655   4.781   5.425   6.540
10608SOL     OW33656  11.314  13.745   9.468
10608SOL    HW133657  11.371  13.668   9.461
10608SOL    HW233658  11.269  13.749   9.384
10609SOL     OW33659  14.459   1.165  13.533
10609SOL    HW133660  14.395   1.236  13.519
10609SOL    HW233661  14.529   1.184  13.472
10610SOL     OW33662   8.731   4.737  11.962
10610SOL    HW133663   8.724   4.658  11.908
10610SOL    HW233664   8.726   4.705  12.052
10611SOL     OW33665   5.396  11.777  13.988
10611SOL    HW133666   5.423  11.763  14.079
10611SOL    HW233667   5.357  11.694  13.962
10612SOL     OW33668   3.752  10.024  10.835
10612SOL    HW133669   3.777  10.104  10.880
10612SOL    HW233670   3.729   9.963  10.904
10613SOL     OW33671   8.590   7.481  12.541
10613SOL    HW133672   8.544   7.397  12.550
10613SOL    HW233673   8.612   7.486  12.448
10614SOL     OW33674   2.002   0.179  12.509
10614SOL    HW133675   2.000   0.114  12.439
10614SOL    HW233676   1.979   0.131  12.588
10615SOL     OW33677   0.926   2.240   6.398
10615SOL    HW133678   0.988   2.205   6.334
10615SOL    HW233679   0.971   2.314   6.437
10616SOL     OW33680   0.667  13.871   9.735
10616SOL    HW133681   0.663  13.779   9.710
10616SOL    HW233682   0.601  13.880   9.803
10617SOL     OW33683   6.030  12.109  11.515
10617SOL    HW133684   6.044  12.143  11.604
10617SOL    HW233685   6.112  12.065  11.493
10618SOL     OW33686   1.359   0.897   3.087
10618SOL    HW133687   1.321   0.868   3.004
10618SOL    HW233688   1.283   0.906   3.146
10619SOL     OW33689  12.564   1.923   5.231
10619SOL    HW133690  12.525   1.922   5.318
10619SOL    HW233691  12.521   1.996   5.186
10620SOL     OW33692   7.385   5.900   9.697
10620SOL    HW133693   7.478   5.915   9.680
10620SOL    HW233694   7.366   5.949   9.777
10621SOL     OW33695  10.361   3.507   6.065
10621SOL    HW133696  10.452   3.501   6.092
10621SOL    HW233697  10.325   3.420   6.081
10622SOL     OW33698  12.132   5.975   0.604
10622SOL    HW133699  12.045   5.945   0.579
10622SOL    HW233700  12.176   5.896   0.637
10623SOL     OW33701   0.076   5.986  14.252
10623SOL    HW133702   0.008   5.957  14.313
10623SOL    HW233703   0.120   6.058  14.297
10624SOL     OW33704   3.586   4.603   5.494
10624SOL    HW133705   3.678   4.616   5.470
10624SOL    HW233706   3.555   4.537   5.432
10625SOL     OW33707   0.659   4.084   4.609
10625SOL    HW133708   0.572   4.125   4.608
10625SOL    HW233709   0.717   4.150   4.645
10626SOL     OW33710   1.471   1.243   0.817
10626SOL    HW133711   1.552   1.191   0.822
10626SOL    HW233712   1.456   1.255   0.723
10627SOL     OW33713  14.797   7.452  13.644
10627SOL    HW133714  14.749   7.521  13.597
10627SOL    HW233715  14.876   7.439  13.592
10628SOL     OW33716   6.575   3.372   8.797
10628SOL    HW133717   6.554   3.342   8.886
10628SOL    HW233718   6.503   3.431   8.775
10629SOL     OW33719   0.517  10.868  14.257
10629SOL    HW133720   0.494  10.876  14.350
10629SOL    HW233721   0.491  10.951  14.218
10630SOL     OW33722   2.775   0.006  12.036
10630SOL    HW133723   2.682  14.865  12.048
10630SOL    HW233724   2.812  14.805  11.998
10631SOL     OW33725   4.385   0.026  10.479
10631SOL    HW133726   4.471   0.004  10.444
10631SOL    HW233727   4.397   0.025  10.574
10632SOL     OW33728  12.447  13.709   1.665
10632SOL    HW133729  12.458  13.802   1.647
10632SOL    HW233730  12.403  13.706   1.750
10633SOL     OW33731   1.894   1.669   2.799
10633SOL    HW133732   1.988   1.675   2.783
10633SOL    HW233733   1.870   1.756   2.831
10634SOL     OW33734   4.995  11.763  13.135
10634SOL    HW133735   4.964  11.704  13.204
10634SOL    HW233736   4.925  11.763  13.070
10635SOL     OW33737   7.078   6.941   0.923
10635SOL    HW133738   7.007   6.931   0.986
10635SOL    HW233739   7.156   6.956   0.976
10636SOL     OW33740  11.148  13.590   6.312
10636SOL    HW133741  11.082  13.566   6.377
10636SOL    HW233742  11.098  13.628   6.240
10637SOL     OW33743   2.101   2.417   7.355
10637SOL    HW133744   2.109   2.439   7.262
10637SOL    HW233745   2.146   2.333   7.364
10638SOL     OW33746   4.186   7.428   7.308
10638SOL    HW133747   4.196   7.388   7.395
10638SOL    HW233748   4.092   7.433   7.295
10639SOL     OW33749  10.422   5.540   6.035
10639SOL    HW133750  10.335   5.575   6.017
10639SOL    HW233751  10.410   5.445   6.037
10640SOL     OW33752  10.890  13.734   2.394
10640SOL    HW133753  10.951  13.663   2.416
10640SOL    HW233754  10.910  13.803   2.457
10641SOL     OW33755   0.823   0.249   5.345
10641SOL    HW133756   0.907   0.251   5.392
10641SOL    HW233757   0.775   0.324   5.379
10642SOL     OW33758   9.007  11.336  13.615
10642SOL    HW133759   8.914  11.342  13.638
10642SOL    HW233760   9.021  11.406  13.552
10643SOL     OW33761   6.022  10.911  10.351
10643SOL    HW133762   6.087  10.925  10.420
10643SOL    HW233763   6.027  10.817  10.332
10644SOL     OW33764  13.308  13.144   1.475
10644SOL    HW133765  13.355  13.226   1.460
10644SOL    HW233766  13.262  13.156   1.558
10645SOL     OW33767   6.872  11.972  11.511
10645SOL    HW133768   6.885  11.935  11.598
10645SOL    HW233769   6.961  11.987  11.477
10646SOL     OW33770  11.454  11.481  11.709
10646SOL    HW133771  11.425  11.420  11.777
10646SOL    HW233772  11.428  11.567  11.742
10647SOL     OW33773  13.248   3.950   2.859
10647SOL    HW133774  13.324   4.000   2.828
10647SOL    HW233775  13.257   3.865   2.816
10648SOL     OW33776   2.347   8.018   0.779
10648SOL    HW133777   2.428   7.967   0.785
10648SOL    HW233778   2.334   8.031   0.685
10649SOL     OW33779   6.539   7.322   6.982
10649SOL    HW133780   6.549   7.411   7.017
10649SOL    HW233781   6.451   7.320   6.945
10650SOL     OW33782  12.542   2.968  11.738
10650SOL    HW133783  12.508   2.966  11.828
10650SOL    HW233784  12.607   3.039  11.740
10651SOL     OW33785   9.841  13.159   1.026
10651SOL    HW133786   9.907  13.216   1.065
10651SOL    HW233787   9.867  13.151   0.934
10652SOL     OW33788  12.171   9.512  14.333
10652SOL    HW133789  12.221   9.577  14.285
10652SOL    HW233790  12.111   9.474  14.269
10653SOL     OW33791   7.717   8.436   7.895
10653SOL    HW133792   7.632   8.467   7.865
10653SOL    HW233793   7.743   8.370   7.831
10654SOL     OW33794   8.674   0.581   7.281
10654SOL    HW133795   8.586   0.554   7.307
10654SOL    HW233796   8.708   0.627   7.358
10655SOL     OW33797   2.480  12.574   8.541
10655SOL    HW133798   2.458  12.603   8.630
10655SOL    HW233799   2.519  12.651   8.500
10656SOL     OW33800  11.692   3.078  13.881
10656SOL    HW133801  11.668   3.171  13.889
10656SOL    HW233802  11.737   3.058  13.962
10657SOL     OW33803  12.870   0.538   4.432
10657SOL    HW133804  12.956   0.568   4.402
10657SOL    HW233805  12.828   0.503   4.353
10658SOL     OW33806  13.683  11.550   1.948
10658SOL    HW133807  13.673  11.644   1.960
10658SOL    HW233808  13.622  11.511   2.011
10659SOL     OW33809   5.735   2.846  11.634
10659SOL    HW133810   5.696   2.927  11.665
10659SOL    HW233811   5.774   2.868  11.549
10660SOL     OW33812  10.260  10.657   4.960
10660SOL    HW133813  10.266  10.666   4.865
10660SOL    HW233814  10.200  10.584   4.974
10661SOL     OW33815   6.165  11.987  10.985
10661SOL    HW133816   6.255  11.994  10.952
10661SOL    HW233817   6.166  11.909  11.040
10662SOL     OW33818   1.426   9.368   2.351
10662SOL    HW133819   1.378   9.411   2.280
10662SOL    HW233820   1.366   9.371   2.426
10663SOL     OW33821   1.206   8.851  14.390
10663SOL    HW133822   1.299   8.846  14.371
10663SOL    HW233823   1.170   8.769  14.357
10664SOL     OW33824   9.569   9.745   9.989
10664SOL    HW133825   9.524   9.720   9.908
10664SOL    HW233826   9.656   9.707   9.981
10665SOL     OW33827   1.289   2.428   6.222
10665SOL    HW133828   1.357   2.368   6.254
10665SOL    HW233829   1.223   2.371   6.183
10666SOL     OW33830  12.856  12.400   5.455
10666SOL    HW133831  12.867  12.485   5.499
10666SOL    HW233832  12.850  12.337   5.527
10667SOL     OW33833   4.591   3.735   8.196
10667SOL    HW133834   4.500   3.745   8.169
10667SOL    HW233835   4.604   3.641   8.205
10668SOL     OW33836  12.448   0.008   3.721
10668SOL    HW133837  12.469   0.051   3.804
10668SOL    HW233838  12.415   0.079   3.665
10669SOL     OW33839   5.332  10.627  11.485
10669SOL    HW133840   5.302  10.545  11.447
10669SOL    HW233841   5.313  10.693  11.417
10670SOL     OW33842  10.837  13.243   5.239
10670SOL    HW133843  10.851  13.159   5.195
10670SOL    HW233844  10.917  13.258   5.289
10671SOL     OW33845   1.635   3.992  10.677
10671SOL    HW133846   1.675   3.940  10.607
10671SOL    HW233847   1.686   4.074  10.678
10672SOL     OW33848  11.554   1.898   1.136
10672SOL    HW133849  11.616   1.878   1.066
10672SOL    HW233850  11.569   1.830   1.201
10673SOL     OW33851  12.970   7.505  10.397
10673SOL    HW133852  12.906   7.486  10.329
10673SOL    HW233853  12.951   7.595  10.423
10674SOL     OW33854   0.721  12.751   1.635
10674SOL    HW133855   0.788  12.706   1.686
10674SOL    HW233856   0.770  12.807   1.576
10675SOL     OW33857   3.208   0.940   1.089
10675SOL    HW133858   3.113   0.930   1.082
10675SOL    HW233859   3.235   0.974   1.003
10676SOL     OW33860   1.868  11.392   2.126
10676SOL    HW133861   1.939  11.340   2.088
10676SOL    HW233862   1.842  11.344   2.205
10677SOL     OW33863   7.014  13.467   3.622
10677SOL    HW133864   7.006  13.537   3.557
10677SOL    HW233865   6.980  13.505   3.703
10678SOL     OW33866   8.701   2.851  14.073
10678SOL    HW133867   8.697   2.926  14.014
10678SOL    HW233868   8.627   2.796  14.046
10679SOL     OW33869   1.274   3.234  12.175
10679SOL    HW133870   1.326   3.172  12.123
10679SOL    HW233871   1.195   3.185  12.198
10680SOL     OW33872   7.589   4.102   0.322
10680SOL    HW133873   7.512   4.097   0.266
10680SOL    HW233874   7.581   4.185   0.368
10681SOL     OW33875   4.414   0.790   2.114
10681SOL    HW133876   4.442   0.737   2.041
10681SOL    HW233877   4.367   0.730   2.172
10682SOL     OW33878   5.723  11.167  13.519
10682SOL    HW133879   5.679  11.215  13.589
10682SOL    HW233880   5.700  11.215  13.439
10683SOL     OW33881   3.212  13.712  13.818
10683SOL    HW133882   3.124  13.682  13.838
10683SOL    HW233883   3.214  13.720  13.722
10684SOL     OW33884   8.020   5.428  13.978
10684SOL    HW133885   8.094   5.393  13.928
10684SOL    HW233886   8.021   5.378  14.059
10685SOL     OW33887   4.683   4.814  10.449
10685SOL    HW133888   4.705   4.841  10.360
10685SOL    HW233889   4.767   4.813  10.495
10686SOL     OW33890   9.254   1.311   6.346
10686SOL    HW133891   9.310   1.313   6.423
10686SOL    HW233892   9.262   1.221   6.312
10687SOL     OW33893   9.233  10.455   7.601
10687SOL    HW133894   9.314  10.495   7.570
10687SOL    HW233895   9.260  10.370   7.635
10688SOL     OW33896  11.696   8.413   8.956
10688SOL    HW133897  11.647   8.490   8.985
10688SOL    HW233898  11.782   8.422   8.997
10689SOL     OW33899   0.846   2.948   7.990
10689SOL    HW133900   0.759   2.948   7.951
10689SOL    HW233901   0.837   3.003   8.068
10690SOL     OW33902   2.006   3.004   8.348
10690SOL    HW133903   2.101   3.006   8.352
10690SOL    HW233904   1.979   3.094   8.368
10691SOL     OW33905   5.890   9.236   5.618
10691SOL    HW133906   5.840   9.221   5.699
10691SOL    HW233907   5.898   9.149   5.580
10692SOL     OW33908  10.210   9.801  11.745
10692SOL    HW133909  10.267   9.839  11.678
10692SOL    HW233910  10.192   9.712  11.714
10693SOL     OW33911   1.881  13.482  12.867
10693SOL    HW133912   1.858  13.415  12.931
10693SOL    HW233913   1.956  13.527  12.905
10694SOL     OW33914   9.017   8.484   9.133
10694SOL    HW133915   8.938   8.434   9.152
10694SOL    HW233916   9.083   8.418   9.112
10695SOL     OW33917   2.863  12.385  11.766
10695SOL    HW133918   2.786  12.360  11.816
10695SOL    HW233919   2.835  12.382  11.674
10696SOL     OW33920   4.087   2.923   2.082
10696SOL    HW133921   4.172   2.932   2.039
10696SOL    HW233922   4.108   2.886   2.168
10697SOL     OW33923   6.562   3.358   1.219
10697SOL    HW133924   6.599   3.276   1.251
10697SOL    HW233925   6.627   3.391   1.157
10698SOL     OW33926  12.749   3.105   7.504
10698SOL    HW133927  12.656   3.129   7.509
10698SOL    HW233928  12.784   3.126   7.591
10699SOL     OW33929   6.215  11.494   2.121
10699SOL    HW133930   6.237  11.445   2.042
10699SOL    HW233931   6.205  11.428   2.189
10700SOL     OW33932  12.531   9.077  13.762
10700SOL    HW133933  12.524   9.142  13.692
10700SOL    HW233934  12.589   9.118  13.826
10701SOL     OW33935   2.319  12.887  10.198
10701SOL    HW133936   2.310  12.979  10.221
10701SOL    HW233937   2.374  12.851  10.268
10702SOL     OW33938  10.782   3.375  11.051
10702SOL    HW133939  10.691   3.355  11.031
10702SOL    HW233940  10.790   3.469  11.035
10703SOL     OW33941  12.177   9.934  11.358
10703SOL    HW133942  12.125  10.013  11.344
10703SOL    HW233943  12.262   9.955  11.321
10704SOL     OW33944  12.324  14.554  10.702
10704SOL    HW133945  12.351  14.525  10.615
10704SOL    HW233946  12.340  14.649  10.701
10705SOL     OW33947   3.156   8.054  10.926
10705SOL    HW133948   3.122   8.122  10.867
10705SOL    HW233949   3.162   8.098  11.011
10706SOL     OW33950  12.101   6.001   4.117
10706SOL    HW133951  12.039   6.040   4.056
10706SOL    HW233952  12.138   6.074   4.165
10707SOL     OW33953   7.718   4.999   3.051
10707SOL    HW133954   7.641   5.054   3.066
10707SOL    HW233955   7.793   5.056   3.071
10708SOL     OW33956  14.401   7.819  13.059
10708SOL    HW133957  14.404   7.906  13.098
10708SOL    HW233958  14.373   7.834  12.968
10709SOL     OW33959  11.974  12.628   1.701
10709SOL    HW133960  11.918  12.587   1.766
10709SOL    HW233961  11.971  12.569   1.626
10710SOL     OW33962  13.907   6.232   6.451
10710SOL    HW133963  13.925   6.297   6.383
10710SOL    HW233964  13.816   6.250   6.477
10711SOL     OW33965   2.623   7.023  14.819
10711SOL    HW133966   2.554   7.017  14.754
10711SOL    HW233967   2.586   6.981   0.018
10712SOL     OW33968   7.559   5.706  14.192
10712SOL    HW133969   7.648   5.684  14.162
10712SOL    HW233970   7.574   5.762  14.269
10713SOL     OW33971  12.075  14.211   5.591
10713SOL    HW133972  12.076  14.185   5.684
10713SOL    HW233973  12.089  14.129   5.544
10714SOL     OW33974  10.178   2.768  10.270
10714SOL    HW133975  10.264   2.762  10.312
10714SOL    HW233976  10.189   2.836  10.203
10715SOL     OW33977   7.085   5.763   5.064
10715SOL    HW133978   7.107   5.765   5.157
10715SOL    HW233979   7.006   5.817   5.057
10716SOL     OW33980   4.779   1.958  11.923
10716SOL    HW133981   4.688   1.943  11.951
10716SOL    HW233982   4.828   1.968  12.004
10717SOL     OW33983   0.937  13.627   0.900
10717SOL    HW133984   0.964  13.539   0.925
10717SOL    HW233985   0.904  13.665   0.982
10718SOL     OW33986   8.916  10.356   9.921
10718SOL    HW133987   8.946  10.423   9.983
10718SOL    HW233988   8.991  10.340   9.864
10719SOL     OW33989   5.410   3.484   4.151
10719SOL    HW133990   5.494   3.478   4.106
10719SOL    HW233991   5.345   3.472   4.082
10720SOL     OW33992   8.984  12.672   0.368
10720SOL    HW133993   8.906  12.618   0.358
10720SOL    HW233994   9.057  12.611   0.356
10721SOL     OW33995  11.172  12.895   4.075
10721SOL    HW133996  11.163  12.840   3.997
10721SOL    HW233997  11.118  12.972   4.057
10722SOL     OW33998   0.585   9.070   3.827
10722SOL    HW133999   0.517   9.012   3.860
10722SOL    HW234000   0.661   9.014   3.813
10723SOL     OW34001   6.016  10.265  10.091
10723SOL    HW134002   6.093  10.208  10.100
10723SOL    HW234003   6.051  10.354  10.093
10724SOL     OW34004   6.765   6.158   4.820
10724SOL    HW134005   6.757   6.212   4.741
10724SOL    HW234006   6.688   6.180   4.873
10725SOL     OW34007  10.808   5.621   1.249
10725SOL    HW134008  10.812   5.548   1.188
10725SOL    HW234009  10.892   5.619   1.295
10726SOL     OW34010  11.062   4.001   8.779
10726SOL    HW134011  11.140   3.952   8.803
10726SOL    HW234012  11.090   4.092   8.778
10727SOL     OW34013   9.945   2.250   6.816
10727SOL    HW134014   9.927   2.175   6.759
10727SOL    HW234015   9.887   2.238   6.891
10728SOL     OW34016   5.254   1.473  11.101
10728SOL    HW134017   5.216   1.389  11.075
10728SOL    HW234018   5.213   1.492  11.186
10729SOL     OW34019   2.798   7.001   2.092
10729SOL    HW134020   2.837   6.925   2.050
10729SOL    HW234021   2.870   7.042   2.140
10730SOL     OW34022   4.959  14.810   1.444
10730SOL    HW134023   4.866  14.806   1.466
10730SOL    HW234024   4.980  14.722   1.413
10731SOL     OW34025  12.870  13.041   3.932
10731SOL    HW134026  12.940  13.059   3.869
10731SOL    HW234027  12.842  13.128   3.962
10732SOL     OW34028  12.922  12.636   6.561
10732SOL    HW134029  12.865  12.644   6.483
10732SOL    HW234030  13.003  12.600   6.527
10733SOL     OW34031   7.562   1.493   3.545
10733SOL    HW134032   7.656   1.484   3.526
10733SOL    HW234033   7.537   1.409   3.584
10734SOL     OW34034   0.036   4.829   6.584
10734SOL    HW134035   0.117   4.853   6.541
10734SOL    HW234036  14.861   4.789   6.515
10735SOL     OW34037  14.779   6.181  14.552
10735SOL    HW134038  14.769   6.270  14.519
10735SOL    HW234039  14.718   6.176  14.626
10736SOL     OW34040   5.593  13.877   2.231
10736SOL    HW134041   5.618  13.927   2.153
10736SOL    HW234042   5.523  13.820   2.201
10737SOL     OW34043  14.839   8.937   9.325
10737SOL    HW134044   0.046   8.970   9.351
10737SOL    HW234045  14.809   8.886   9.401
10738SOL     OW34046   0.379  11.840   9.606
10738SOL    HW134047   0.341  11.804   9.686
10738SOL    HW234048   0.453  11.893   9.635
10739SOL     OW34049   4.090   4.521  11.332
10739SOL    HW134050   4.116   4.483  11.415
10739SOL    HW234051   4.060   4.609  11.354
10740SOL     OW34052   9.465   4.955   6.095
10740SOL    HW134053   9.522   4.978   6.022
10740SOL    HW234054   9.431   5.039   6.127
10741SOL     OW34055   9.050  14.245  13.537
10741SOL    HW134056   9.100  14.323  13.514
10741SOL    HW234057   9.114  14.174  13.534
10742SOL     OW34058  12.527   2.743  10.515
10742SOL    HW134059  12.467   2.771  10.445
10742SOL    HW234060  12.525   2.647  10.512
10743SOL     OW34061   7.900   4.757  14.142
10743SOL    HW134062   7.889   4.847  14.173
10743SOL    HW234063   7.944   4.712  14.214
10744SOL     OW34064   8.768   4.952   0.803
10744SOL    HW134065   8.812   5.030   0.771
10744SOL    HW234066   8.750   4.900   0.725
10745SOL     OW34067   0.903   5.750   2.220
10745SOL    HW134068   0.961   5.684   2.183
10745SOL    HW234069   0.832   5.760   2.156
10746SOL     OW34070  11.422  10.442  13.566
10746SOL    HW134071  11.405  10.360  13.521
10746SOL    HW234072  11.369  10.437  13.645
10747SOL     OW34073  12.233   0.868  14.274
10747SOL    HW134074  12.237   0.909  14.361
10747SOL    HW234075  12.321   0.832  14.261
10748SOL     OW34076  11.169   4.459   6.148
10748SOL    HW134077  11.197   4.540   6.190
10748SOL    HW234078  11.078   4.449   6.174
10749SOL     OW34079   7.494   2.429  11.313
10749SOL    HW134080   7.409   2.393  11.337
10749SOL    HW234081   7.505   2.504  11.371
10750SOL     OW34082   5.805   4.230  12.387
10750SOL    HW134083   5.758   4.196  12.311
10750SOL    HW234084   5.756   4.307  12.413
10751SOL     OW34085  12.497   1.245   4.612
10751SOL    HW134086  12.443   1.265   4.536
10751SOL    HW234087  12.480   1.316   4.673
10752SOL     OW34088  10.279   8.126   1.321
10752SOL    HW134089  10.329   8.206   1.308
10752SOL    HW234090  10.188   8.155   1.322
10753SOL     OW34091   5.263   3.957   1.554
10753SOL    HW134092   5.318   4.032   1.529
10753SOL    HW234093   5.314   3.912   1.621
10754SOL     OW34094   0.602   8.916   1.148
10754SOL    HW134095   0.681   8.876   1.112
10754SOL    HW234096   0.634   8.972   1.219
10755SOL     OW34097   6.282   8.094   9.067
10755SOL    HW134098   6.268   8.072   9.160
10755SOL    HW234099   6.230   8.029   9.019
10756SOL     OW34100   6.945   6.599   9.337
10756SOL    HW134101   6.959   6.667   9.271
10756SOL    HW234102   7.031   6.558   9.349
10757SOL     OW34103   6.885   2.710   5.362
10757SOL    HW134104   6.884   2.768   5.285
10757SOL    HW234105   6.978   2.692   5.376
10758SOL     OW34106  11.520   7.014   6.768
10758SOL    HW134107  11.514   6.985   6.677
10758SOL    HW234108  11.490   6.939   6.820
10759SOL     OW34109   0.679  14.251   4.707
10759SOL    HW134110   0.595  14.275   4.667
10759SOL    HW234111   0.666  14.263   4.801
10760SOL     OW34112   8.643  11.172   1.598
10760SOL    HW134113   8.602  11.188   1.684
10760SOL    HW234114   8.576  11.125   1.549
10761SOL     OW34115   2.155  13.009   2.336
10761SOL    HW134116   2.224  13.075   2.335
10761SOL    HW234117   2.155  12.975   2.426
10762SOL     OW34118   8.566   6.709   0.381
10762SOL    HW134119   8.575   6.648   0.454
10762SOL    HW234120   8.490   6.676   0.332
10763SOL     OW34121  14.637   3.338   0.590
10763SOL    HW134122  14.716   3.392   0.583
10763SOL    HW234123  14.577   3.373   0.524
10764SOL     OW34124   1.452  13.144   9.565
10764SOL    HW134125   1.388  13.108   9.504
10764SOL    HW234126   1.399  13.196   9.626
10765SOL     OW34127   2.381   7.873   8.643
10765SOL    HW134128   2.434   7.921   8.707
10765SOL    HW234129   2.386   7.782   8.672
10766SOL     OW34130  13.849   0.807   8.328
10766SOL    HW134131  13.829   0.753   8.404
10766SOL    HW234132  13.943   0.793   8.313
10767SOL     OW34133   8.491   9.385   3.669
10767SOL    HW134134   8.426   9.416   3.606
10767SOL    HW234135   8.455   9.410   3.755
10768SOL     OW34136   7.022   8.415  10.296
10768SOL    HW134137   7.044   8.497  10.341
10768SOL    HW234138   7.104   8.388  10.255
10769SOL     OW34139   5.849   7.258   6.310
10769SOL    HW134140   5.873   7.323   6.244
10769SOL    HW234141   5.890   7.290   6.391
10770SOL     OW34142  10.922   2.895   5.080
10770SOL    HW134143  10.916   2.800   5.070
10770SOL    HW234144  10.865   2.915   5.155
10771SOL     OW34145  14.092   0.895   5.362
10771SOL    HW134146  14.182   0.881   5.392
10771SOL    HW234147  14.051   0.809   5.371
10772SOL     OW34148   4.019   4.662   8.200
10772SOL    HW134149   4.042   4.719   8.273
10772SOL    HW234150   4.071   4.583   8.213
10773SOL     OW34151   1.401  14.221   2.304
10773SOL    HW134152   1.429  14.221   2.213
10773SOL    HW234153   1.425  14.308   2.337
10774SOL     OW34154  10.592  10.689   5.567
10774SOL    HW134155  10.688  10.687   5.571
10774SOL    HW234156  10.566  10.725   5.651
10775SOL     OW34157   6.652   3.003   1.802
10775SOL    HW134158   6.666   3.062   1.728
10775SOL    HW234159   6.659   3.059   1.879
10776SOL     OW34160   3.283   1.475  12.148
10776SOL    HW134161   3.218   1.410  12.172
10776SOL    HW234162   3.316   1.447  12.063
10777SOL     OW34163   6.861   6.511   6.102
10777SOL    HW134164   6.842   6.594   6.145
10777SOL    HW234165   6.789   6.453   6.128
10778SOL     OW34166  14.006   0.707   6.822
10778SOL    HW134167  13.951   0.732   6.748
10778SOL    HW234168  13.977   0.764   6.894
10779SOL     OW34169   6.456  12.068  13.763
10779SOL    HW134170   6.447  11.997  13.827
10779SOL    HW234171   6.429  12.028  13.680
10780SOL     OW34172  11.944   8.523   4.190
10780SOL    HW134173  12.024   8.471   4.199
10780SOL    HW234174  11.974   8.603   4.146
10781SOL     OW34175   1.753  13.903   8.219
10781SOL    HW134176   1.774  13.824   8.170
10781SOL    HW234177   1.837  13.951   8.223
10782SOL     OW34178   5.947   9.990   1.758
10782SOL    HW134179   6.009  10.063   1.748
10782SOL    HW234180   5.872  10.016   1.704
10783SOL     OW34181   0.987   9.020  11.079
10783SOL    HW134182   1.034   9.013  11.162
10783SOL    HW234183   0.949   8.933  11.066
10784SOL     OW34184  10.772   0.909   2.983
10784SOL    HW134185  10.719   0.837   3.016
10784SOL    HW234186  10.798   0.882   2.895
10785SOL     OW34187  14.540  10.358   5.719
10785SOL    HW134188  14.607  10.298   5.686
10785SOL    HW234189  14.496  10.309   5.788
10786SOL     OW34190   2.715  11.560   2.350
10786SOL    HW134191   2.729  11.479   2.399
10786SOL    HW234192   2.685  11.531   2.264
10787SOL     OW34193  13.894  11.958   6.036
10787SOL    HW134194  13.839  11.904   5.980
10787SOL    HW234195  13.975  11.908   6.045
10788SOL     OW34196  12.589   3.327   8.590
10788SOL    HW134197  12.649   3.277   8.646
10788SOL    HW234198  12.545   3.387   8.650
10789SOL     OW34199  11.367  14.319  12.586
10789SOL    HW134200  11.313  14.293  12.511
10789SOL    HW234201  11.385  14.237  12.632
10790SOL     OW34202  10.742   8.391   4.069
10790SOL    HW134203  10.789   8.462   4.113
10790SOL    HW234204  10.694   8.434   3.998
10791SOL     OW34205  11.710   5.694   8.081
10791SOL    HW134206  11.728   5.787   8.065
10791SOL    HW234207  11.753   5.675   8.164
10792SOL     OW34208   3.285   2.546   0.648
10792SOL    HW134209   3.262   2.469   0.597
10792SOL    HW234210   3.378   2.534   0.669
10793SOL     OW34211   4.742   6.970   2.696
10793SOL    HW134212   4.796   7.046   2.717
10793SOL    HW234213   4.780   6.899   2.747
10794SOL     OW34214  13.918   4.690   4.805
10794SOL    HW134215  14.004   4.732   4.808
10794SOL    HW234216  13.936   4.597   4.812
10795SOL     OW34217   1.409   0.676   8.427
10795SOL    HW134218   1.352   0.599   8.420
10795SOL    HW234219   1.472   0.666   8.355
10796SOL     OW34220   2.538   6.368   7.093
10796SOL    HW134221   2.536   6.291   7.151
10796SOL    HW234222   2.595   6.342   7.021
10797SOL     OW34223  11.310  14.632   4.599
10797SOL    HW134224  11.269  14.706   4.643
10797SOL    HW234225  11.397  14.626   4.639
10798SOL     OW34226  14.405  14.064   5.379
10798SOL    HW134227  14.360  14.131   5.429
10798SOL    HW234228  14.498  14.082   5.394
10799SOL     OW34229   7.163  13.738   0.034
10799SOL    HW134230   7.103  13.767  14.844
10799SOL    HW234231   7.115  13.751   0.116
10800SOL     OW34232   6.406  12.612   4.939
10800SOL    HW134233   6.462  12.681   4.903
10800SOL    HW234234   6.364  12.652   5.015
10801SOL     OW34235   7.587   1.653  13.345
10801SOL    HW134236   7.624   1.708  13.413
10801SOL    HW234237   7.650   1.581  13.334
10802SOL     OW34238  12.074   4.036  14.859
10802SOL    HW134239  11.982   4.030   0.006
10802SOL    HW234240  12.085   3.970  14.791
10803SOL     OW34241   0.934   5.536   0.269
10803SOL    HW134242   0.939   5.573   0.181
10803SOL    HW234243   0.990   5.458   0.265
10804SOL     OW34244   4.266   3.425   1.793
10804SOL    HW134245   4.298   3.446   1.881
10804SOL    HW234246   4.243   3.509   1.755
10805SOL     OW34247  11.878   8.303  10.360
10805SOL    HW134248  11.873   8.293  10.265
10805SOL    HW234249  11.941   8.374  10.373
10806SOL     OW34250  13.327  13.507   5.835
10806SOL    HW134251  13.243  13.489   5.876
10806SOL    HW234252  13.386  13.441   5.869
10807SOL     OW34253   4.480   2.345   0.638
10807SOL    HW134254   4.468   2.323   0.546
10807SOL    HW234255   4.398   2.318   0.680
10808SOL     OW34256   6.727  10.404   9.228
10808SOL    HW134257   6.697  10.373   9.142
10808SOL    HW234258   6.699  10.496   9.231
10809SOL     OW34259   5.148   3.869  10.585
10809SOL    HW134260   5.116   3.794  10.534
10809SOL    HW234261   5.069   3.907  10.624
10810SOL     OW34262   8.662  11.271   9.494
10810SOL    HW134263   8.654  11.295   9.401
10810SOL    HW234264   8.708  11.344   9.534
10811SOL     OW34265   5.049   7.562   8.064
10811SOL    HW134266   5.075   7.569   7.972
10811SOL    HW234267   5.034   7.652   8.091
10812SOL     OW34268   1.242   7.540   3.205
10812SOL    HW134269   1.296   7.484   3.261
10812SOL    HW234270   1.280   7.627   3.216
10813SOL     OW34271   6.875   4.095   0.346
10813SOL    HW134272   6.821   4.075   0.270
10813SOL    HW234273   6.817   4.142   0.406
10814SOL     OW34274  10.255   2.800   6.232
10814SOL    HW134275  10.174   2.748   6.232
10814SOL    HW234276  10.266   2.826   6.323
10815SOL     OW34277   9.229  14.310   8.669
10815SOL    HW134278   9.298  14.318   8.603
10815SOL    HW234279   9.206  14.216   8.668
10816SOL     OW34280   1.880  10.396   8.456
10816SOL    HW134281   1.796  10.351   8.447
10816SOL    HW234282   1.933  10.362   8.384
10817SOL     OW34283   4.519   5.609  11.518
10817SOL    HW134284   4.535   5.563  11.436
10817SOL    HW234285   4.593   5.669  11.527
10818SOL     OW34286  12.517   0.791  13.215
10818SOL    HW134287  12.588   0.825  13.160
10818SOL    HW234288  12.536   0.825  13.302
10819SOL     OW34289  13.944   1.608  12.344
10819SOL    HW134290  13.892   1.614  12.264
10819SOL    HW234291  13.930   1.519  12.375
10820SOL     OW34292  12.131   2.247  11.777
10820SOL    HW134293  12.176   2.320  11.820
10820SOL    HW234294  12.190   2.173  11.787
10821SOL     OW34295   8.869   1.927  13.369
10821SOL    HW134296   8.879   2.020  13.384
10821SOL    HW234297   8.788   1.904  13.416
10822SOL     OW34298  10.480   5.483   1.099
10822SOL    HW134299  10.570   5.495   1.130
10822SOL    HW234300  10.425   5.503   1.175
10823SOL     OW34301   5.252   1.662   6.012
10823SOL    HW134302   5.333   1.685   6.058
10823SOL    HW234303   5.191   1.733   6.032
10824SOL     OW34304   5.642   6.493   3.137
10824SOL    HW134305   5.615   6.574   3.093
10824SOL    HW234306   5.728   6.474   3.100
10825SOL     OW34307   3.677   1.892   6.403
10825SOL    HW134308   3.734   1.888   6.326
10825SOL    HW234309   3.721   1.838   6.469
10826SOL     OW34310  14.358  10.154   5.854
10826SOL    HW134311  14.270  10.160   5.816
10826SOL    HW234312  14.349  10.091   5.925
10827SOL     OW34313  10.892  12.566   8.594
10827SOL    HW134314  10.880  12.542   8.686
10827SOL    HW234315  10.809  12.607   8.569
10828SOL     OW34316   8.274   4.344   1.772
10828SOL    HW134317   8.318   4.428   1.785
10828SOL    HW234318   8.309   4.311   1.689
10829SOL     OW34319  10.289   8.486  13.777
10829SOL    HW134320  10.237   8.525  13.707
10829SOL    HW234321  10.226   8.441  13.833
10830SOL     OW34322  14.155   7.644  10.672
10830SOL    HW134323  14.189   7.725  10.711
10830SOL    HW234324  14.079   7.621  10.725
10831SOL     OW34325  14.475  13.188   1.935
10831SOL    HW134326  14.551  13.200   1.878
10831SOL    HW234327  14.406  13.241   1.894
10832SOL     OW34328  10.605   9.822  10.540
10832SOL    HW134329  10.674   9.865  10.591
10832SOL    HW234330  10.562   9.894  10.493
10833SOL     OW34331  10.044   6.728   9.819
10833SOL    HW134332  10.104   6.680   9.762
10833SOL    HW234333   9.957   6.701   9.790
10834SOL     OW34334   0.326   1.620   1.068
10834SOL    HW134335   0.385   1.551   1.099
10834SOL    HW234336   0.272   1.641   1.144
10835SOL     OW34337   2.788   0.798   6.595
10835SOL    HW134338   2.772   0.846   6.514
10835SOL    HW234339   2.717   0.734   6.600
10836SOL     OW34340  10.957   3.184  13.969
10836SOL    HW134341  10.993   3.223  14.049
10836SOL    HW234342  10.880   3.237  13.949
10837SOL     OW34343   9.443   4.288   5.477
10837SOL    HW134344   9.390   4.215   5.508
10837SOL    HW234345   9.532   4.266   5.506
10838SOL     OW34346   7.517  12.333   3.908
10838SOL    HW134347   7.521  12.301   3.998
10838SOL    HW234348   7.508  12.253   3.855
10839SOL     OW34349   3.010  14.356  10.962
10839SOL    HW134350   2.974  14.408  11.034
10839SOL    HW234351   2.955  14.279  10.958
10840SOL     OW34352   7.321  14.114   4.952
10840SOL    HW134353   7.266  14.065   4.891
10840SOL    HW234354   7.363  14.181   4.897
10841SOL     OW34355  14.582   0.061   7.863
10841SOL    HW134356  14.513  14.875   7.874
10841SOL    HW234357  14.622   0.068   7.950
10842SOL     OW34358   9.727   7.540  10.811
10842SOL    HW134359   9.807   7.567  10.767
10842SOL    HW234360   9.742   7.560  10.903
10843SOL     OW34361   4.281   5.200   5.696
10843SOL    HW134362   4.264   5.278   5.643
10843SOL    HW234363   4.308   5.234   5.781
10844SOL     OW34364   8.420  10.268   8.760
10844SOL    HW134365   8.419  10.189   8.814
10844SOL    HW234366   8.401  10.339   8.821
10845SOL     OW34367   6.843   4.486   9.375
10845SOL    HW134368   6.773   4.466   9.436
10845SOL    HW234369   6.908   4.417   9.389
10846SOL     OW34370   1.391  12.862   8.536
10846SOL    HW134371   1.346  12.872   8.620
10846SOL    HW234372   1.430  12.775   8.541
10847SOL     OW34373   0.746  10.076   9.773
10847SOL    HW134374   0.791  10.155   9.743
10847SOL    HW234375   0.653  10.096   9.765
10848SOL     OW34376  11.128   8.410  14.499
10848SOL    HW134377  11.151   8.326  14.539
10848SOL    HW234378  11.088   8.460  14.571
10849SOL     OW34379   4.560   8.436   1.709
10849SOL    HW134380   4.636   8.491   1.726
10849SOL    HW234381   4.561   8.371   1.780
10850SOL     OW34382   5.023  12.633   1.519
10850SOL    HW134383   5.015  12.681   1.437
10850SOL    HW234384   5.079  12.558   1.498
10851SOL     OW34385   1.409   7.143   5.003
10851SOL    HW134386   1.326   7.180   4.974
10851SOL    HW234387   1.389   7.103   5.088
10852SOL     OW34388  11.149   2.742  13.038
10852SOL    HW134389  11.072   2.725  12.985
10852SOL    HW234390  11.126   2.820  13.089
10853SOL     OW34391  10.522   1.392   0.094
10853SOL    HW134392  10.439   1.438   0.080
10853SOL    HW234393  10.553   1.423   0.179
10854SOL     OW34394   8.446   1.040  11.631
10854SOL    HW134395   8.468   1.038  11.538
10854SOL    HW234396   8.483   0.960  11.667
10855SOL     OW34397  13.718  14.187   3.012
10855SOL    HW134398  13.662  14.127   3.061
10855SOL    HW234399  13.723  14.265   3.067
10856SOL     OW34400   2.059  10.519  12.646
10856SOL    HW134401   1.985  10.459  12.661
10856SOL    HW234402   2.134  10.461  12.631
10857SOL     OW34403  12.649  13.197   4.514
10857SOL    HW134404  12.704  13.244   4.451
10857SOL    HW234405  12.639  13.258   4.587
10858SOL     OW34406   5.445   0.231   0.461
10858SOL    HW134407   5.512   0.293   0.432
10858SOL    HW234408   5.464   0.218   0.554
10859SOL     OW34409   9.326   1.575  13.505
10859SOL    HW134410   9.315   1.662  13.466
10859SOL    HW234411   9.390   1.588  13.575
10860SOL     OW34412   4.655   0.030   1.048
10860SOL    HW134413   4.631   0.117   1.080
10860SOL    HW234414   4.739   0.011   1.091
10861SOL     OW34415   1.671   5.496   1.817
10861SOL    HW134416   1.637   5.428   1.759
10861SOL    HW234417   1.751   5.458   1.854
10862SOL     OW34418   6.007   2.806   2.800
10862SOL    HW134419   5.939   2.808   2.733
10862SOL    HW234420   6.064   2.879   2.779
10863SOL     OW34421  11.064  14.140   9.747
10863SOL    HW134422  11.122  14.209   9.714
10863SOL    HW234423  11.116  14.096   9.814
10864SOL     OW34424   6.302   8.154  13.094
10864SOL    HW134425   6.282   8.106  13.174
10864SOL    HW234426   6.338   8.087  13.035
10865SOL     OW34427   1.778   2.467   0.861
10865SOL    HW134428   1.793   2.533   0.929
10865SOL    HW234429   1.856   2.412   0.864
10866SOL     OW34430   3.022   6.246   3.061
10866SOL    HW134431   3.009   6.285   3.148
10866SOL    HW234432   3.090   6.180   3.075
10867SOL     OW34433  10.411   4.781   4.314
10867SOL    HW134434  10.432   4.864   4.358
10867SOL    HW234435  10.381   4.808   4.227
10868SOL     OW34436  11.872  14.247   4.045
10868SOL    HW134437  11.910  14.191   4.113
10868SOL    HW234438  11.786  14.208   4.028
10869SOL     OW34439   4.716  13.081  12.922
10869SOL    HW134440   4.644  13.055  12.865
10869SOL    HW234441   4.792  13.089  12.864
10870SOL     OW34442   5.621   6.132   7.272
10870SOL    HW134443   5.561   6.136   7.346
10870SOL    HW234444   5.676   6.056   7.290
10871SOL     OW34445   3.871  13.812   7.209
10871SOL    HW134446   3.961  13.821   7.180
10871SOL    HW234447   3.862  13.874   7.281
10872SOL     OW34448   4.009   1.915   4.973
10872SOL    HW134449   4.022   2.008   4.992
10872SOL    HW234450   3.979   1.913   4.882
10873SOL     OW34451  13.745   1.676  13.036
10873SOL    HW134452  13.722   1.731  12.961
10873SOL    HW234453  13.744   1.586  13.002
10874SOL     OW34454   4.898  11.106   1.127
10874SOL    HW134455   4.825  11.051   1.100
10874SOL    HW234456   4.956  11.107   1.050
10875SOL     OW34457   8.123  14.523  10.591
10875SOL    HW134458   8.217  14.530  10.611
10875SOL    HW234459   8.080  14.575  10.659
10876SOL     OW34460  10.480   5.863  11.224
10876SOL    HW134461  10.416   5.928  11.253
10876SOL    HW234462  10.556   5.915  11.197
10877SOL     OW34463   3.997  12.638  10.185
10877SOL    HW134464   4.054  12.572  10.145
10877SOL    HW234465   3.909  12.600  10.179
10878SOL     OW34466  10.716  13.651  14.778
10878SOL    HW134467  10.732  13.729  14.725
10878SOL    HW234468  10.802  13.627  14.812
10879SOL     OW34469  10.125  12.394   5.922
10879SOL    HW134470  10.162  12.327   5.979
10879SOL    HW234471  10.031  12.380   5.925
10880SOL     OW34472   6.558   8.284  14.538
10880SOL    HW134473   6.599   8.207  14.498
10880SOL    HW234474   6.626   8.319  14.597
10881SOL     OW34475   1.338  14.141  10.517
10881SOL    HW134476   1.305  14.179  10.436
10881SOL    HW234477   1.272  14.165  10.583
10882SOL     OW34478   0.371  11.130   2.623
10882SOL    HW134479   0.444  11.106   2.565
10882SOL    HW234480   0.406  11.201   2.677
10883SOL     OW34481   3.042   4.766   3.239
10883SOL    HW134482   3.015   4.851   3.273
10883SOL    HW234483   3.137   4.772   3.229
10884SOL     OW34484   6.611   5.870   0.410
10884SOL    HW134485   6.697   5.910   0.413
10884SOL    HW234486   6.585   5.863   0.502
10885SOL     OW34487   3.269  14.651   2.541
10885SOL    HW134488   3.328  14.583   2.572
10885SOL    HW234489   3.243  14.698   2.620
10886SOL     OW34490   3.665   9.207   8.609
10886SOL    HW134491   3.689   9.239   8.696
10886SOL    HW234492   3.632   9.284   8.563
10887SOL     OW34493   0.945  10.894   7.926
10887SOL    HW134494   1.005  10.861   7.859
10887SOL    HW234495   0.873  10.831   7.927
10888SOL     OW34496  10.525  11.979   6.336
10888SOL    HW134497  10.442  11.934   6.356
10888SOL    HW234498  10.534  12.044   6.406
10889SOL     OW34499   3.923   2.820  10.310
10889SOL    HW134500   3.898   2.776  10.391
10889SOL    HW234501   4.019   2.819  10.311
10890SOL     OW34502   7.923   9.182   1.786
10890SOL    HW134503   7.896   9.114   1.725
10890SOL    HW234504   7.869   9.167   1.864
10891SOL     OW34505  13.659   7.115   1.137
10891SOL    HW134506  13.607   7.108   1.057
10891SOL    HW234507  13.596   7.100   1.208
10892SOL     OW34508   2.973   6.154   9.041
10892SOL    HW134509   3.027   6.134   9.117
10892SOL    HW234510   2.925   6.232   9.066
10893SOL     OW34511   5.920   6.223  12.245
10893SOL    HW134512   5.841   6.264  12.209
10893SOL    HW234513   5.908   6.228  12.340
10894SOL     OW34514  10.721  11.982   5.139
10894SOL    HW134515  10.776  12.047   5.096
10894SOL    HW234516  10.645  11.973   5.080
10895SOL     OW34517  12.151   2.736   2.520
10895SOL    HW134518  12.223   2.751   2.459
10895SOL    HW234519  12.073   2.726   2.465
10896SOL     OW34520  14.092   7.144  14.580
10896SOL    HW134521  14.071   7.183  14.495
10896SOL    HW234522  14.107   7.219  14.638
10897SOL     OW34523   2.649   4.433  11.765
10897SOL    HW134524   2.614   4.344  11.776
10897SOL    HW234525   2.738   4.427  11.800
10898SOL     OW34526  14.860  12.407   7.302
10898SOL    HW134527  14.775  12.445   7.278
10898SOL    HW234528  14.839  12.318   7.331
10899SOL     OW34529   9.213  11.073   5.706
10899SOL    HW134530   9.203  11.079   5.611
10899SOL    HW234531   9.305  11.097   5.722
10900SOL     OW34532   9.432  10.025  11.394
10900SOL    HW134533   9.337  10.018  11.378
10900SOL    HW234534   9.438  10.079  11.473
10901SOL     OW34535   6.193  14.574   5.621
10901SOL    HW134536   6.213  14.542   5.533
10901SOL    HW234537   6.139  14.652   5.607
10902SOL     OW34538   9.449   8.552  10.335
10902SOL    HW134539   9.538   8.523  10.356
10902SOL    HW234540   9.400   8.472  10.318
10903SOL     OW34541  12.827   7.572   4.930
10903SOL    HW134542  12.813   7.478   4.936
10903SOL    HW234543  12.741   7.608   4.908
10904SOL     OW34544   1.704   7.161  12.859
10904SOL    HW134545   1.787   7.113  12.861
10904SOL    HW234546   1.726   7.249  12.891
10905SOL     OW34547   4.652   3.820   0.575
10905SOL    HW134548   4.747   3.829   0.574
10905SOL    HW234549   4.625   3.845   0.486
10906SOL     OW34550  14.525   8.653   9.794
10906SOL    HW134551  14.564   8.710   9.860
10906SOL    HW234552  14.498   8.575   9.842
10907SOL     OW34553   2.719   6.734  12.298
10907SOL    HW134554   2.770   6.672  12.350
10907SOL    HW234555   2.636   6.690  12.282
10908SOL     OW34556   5.452   9.798   9.381
10908SOL    HW134557   5.389   9.729   9.362
10908SOL    HW234558   5.456   9.803   9.476
10909SOL     OW34559   6.634  14.325   2.279
10909SOL    HW134560   6.677  14.262   2.221
10909SOL    HW234561   6.571  14.273   2.329
10910SOL     OW34562   9.963   7.051  11.811
10910SOL    HW134563   9.915   6.968  11.803
10910SOL    HW234564   9.895   7.118  11.816
10911SOL     OW34565   9.166  13.914   9.691
10911SOL    HW134566   9.187  14.007   9.698
10911SOL    HW234567   9.251  13.870   9.689
10912SOL     OW34568   8.097   9.039   6.752
10912SOL    HW134569   8.118   8.955   6.710
10912SOL    HW234570   8.014   9.022   6.797
10913SOL     OW34571  13.621   2.841  13.920
10913SOL    HW134572  13.576   2.805  13.996
10913SOL    HW234573  13.555   2.842  13.851
10914SOL     OW34574  13.273  12.854   6.570
10914SOL    HW134575  13.211  12.819   6.635
10914SOL    HW234576  13.231  12.837   6.486
10915SOL     OW34577  10.508   4.038  12.534
10915SOL    HW134578  10.469   4.040  12.622
10915SOL    HW234579  10.603   4.040  12.550
10916SOL     OW34580   8.461   4.500  11.778
10916SOL    HW134581   8.458   4.435  11.708
10916SOL    HW234582   8.402   4.466  11.845
10917SOL     OW34583  10.673  13.121   3.652
10917SOL    HW134584  10.609  13.133   3.722
10917SOL    HW234585  10.630  13.156   3.574
10918SOL     OW34586   0.833  13.369   8.232
10918SOL    HW134587   0.804  13.278   8.223
10918SOL    HW234588   0.923  13.362   8.266
10919SOL     OW34589  11.184  11.080  13.307
10919SOL    HW134590  11.225  11.001  13.341
10919SOL    HW234591  11.200  11.078  13.213
10920SOL     OW34592   4.421  14.163  13.380
10920SOL    HW134593   4.352  14.107  13.343
10920SOL    HW234594   4.432  14.130  13.469
10921SOL     OW34595  14.756   8.860   6.129
10921SOL    HW134596  14.831   8.834   6.075
10921SOL    HW234597  14.704   8.917   6.073
10922SOL     OW34598   8.865  14.031   5.794
10922SOL    HW134599   8.779  14.061   5.762
10922SOL    HW234600   8.905  13.989   5.718
10923SOL     OW34601   2.158   7.493  11.819
10923SOL    HW134602   2.207   7.553  11.875
10923SOL    HW234603   2.190   7.406  11.844
10924SOL     OW34604   3.356   7.113   7.411
10924SOL    HW134605   3.270   7.148   7.391
10924SOL    HW234606   3.395   7.094   7.326
10925SOL     OW34607   7.955  13.658  12.498
10925SOL    HW134608   7.933  13.727  12.560
10925SOL    HW234609   8.050  13.662  12.489
10926SOL     OW34610  10.655   0.540   9.494
10926SOL    HW134611  10.737   0.492   9.481
10926SOL    HW234612  10.612   0.497   9.567
10927SOL     OW34613  11.966   0.754  12.257
10927SOL    HW134614  11.903   0.775  12.188
10927SOL    HW234615  12.043   0.723  12.210
10928SOL     OW34616  14.375   2.919   0.246
10928SOL    HW134617  14.302   2.970   0.211
10928SOL    HW234618  14.339   2.876   0.323
10929SOL     OW34619  13.852   1.179  10.170
10929SOL    HW134620  13.758   1.182  10.153
10929SOL    HW234621  13.862   1.115  10.241
10930SOL     OW34622   3.330  13.870   7.238
10930SOL    HW134623   3.249  13.825   7.214
10930SOL    HW234624   3.304  13.961   7.252
10931SOL     OW34625  10.277   2.989   8.012
10931SOL    HW134626  10.337   3.063   8.010
10931SOL    HW234627  10.260   2.973   8.105
10932SOL     OW34628  10.602   9.528   6.937
10932SOL    HW134629  10.647   9.504   7.018
10932SOL    HW234630  10.520   9.480   6.939
10933SOL     OW34631   7.859   3.274   8.268
10933SOL    HW134632   7.899   3.356   8.238
10933SOL    HW234633   7.926   3.208   8.252
10934SOL     OW34634   1.417  11.027   9.422
10934SOL    HW134635   1.493  11.014   9.366
10934SOL    HW234636   1.345  10.983   9.376
10935SOL     OW34637   5.474   9.257   0.204
10935SOL    HW134638   5.486   9.348   0.229
10935SOL    HW234639   5.381   9.240   0.217
10936SOL     OW34640  10.304   8.520   9.197
10936SOL    HW134641  10.243   8.446   9.185
10936SOL    HW234642  10.265   8.572   9.266
10937SOL     OW34643   9.088   0.381   3.225
10937SOL    HW134644   9.099   0.438   3.149
10937SOL    HW234645   9.058   0.440   3.295
10938SOL     OW34646   6.669  12.831   0.622
10938SOL    HW134647   6.687  12.739   0.601
10938SOL    HW234648   6.750  12.877   0.599
10939SOL     OW34649   8.333  13.252  14.363
10939SOL    HW134650   8.250  13.205  14.353
10939SOL    HW234651   8.335  13.313  14.289
10940SOL     OW34652   0.753   9.817   3.831
10940SOL    HW134653   0.672   9.766   3.829
10940SOL    HW234654   0.745   9.871   3.910
10941SOL     OW34655   3.966   9.487   1.745
10941SOL    HW134656   3.945   9.571   1.704
10941SOL    HW234657   4.061   9.477   1.732
10942SOL     OW34658  13.722   1.503   1.767
10942SOL    HW134659  13.758   1.482   1.853
10942SOL    HW234660  13.779   1.458   1.705
10943SOL     OW34661   9.434  13.942   7.704
10943SOL    HW134662   9.403  13.852   7.712
10943SOL    HW234663   9.483  13.943   7.622
10944SOL     OW34664  13.906   6.000   3.665
10944SOL    HW134665  13.867   5.988   3.579
10944SOL    HW234666  13.903   5.914   3.706
10945SOL     OW34667   5.254   1.168   3.440
10945SOL    HW134668   5.235   1.127   3.524
10945SOL    HW234669   5.168   1.191   3.404
10946SOL     OW34670   8.183   3.633   4.758
10946SOL    HW134671   8.093   3.653   4.733
10946SOL    HW234672   8.199   3.687   4.836
10947SOL     OW34673   8.405   5.799  10.470
10947SOL    HW134674   8.481   5.758  10.427
10947SOL    HW234675   8.442   5.870  10.522
10948SOL     OW34676   5.116  10.651  11.093
10948SOL    HW134677   5.156  10.724  11.141
10948SOL    HW234678   5.183  10.583  11.092
10949SOL     OW34679   7.622  14.085   7.019
10949SOL    HW134680   7.616  13.991   7.036
10949SOL    HW234681   7.584  14.096   6.932
10950SOL     OW34682   3.536   0.084   7.251
10950SOL    HW134683   3.473   0.033   7.199
10950SOL    HW234684   3.575   0.020   7.311
10951SOL     OW34685   9.450  12.820  14.822
10951SOL    HW134686   9.454  12.770   0.024
10951SOL    HW234687   9.489  12.763  14.756
10952SOL     OW34688  13.198  14.505   0.470
10952SOL    HW134689  13.275  14.498   0.413
10952SOL    HW234690  13.205  14.592   0.510
10953SOL     OW34691   2.767  12.097  10.463
10953SOL    HW134692   2.772  12.086  10.368
10953SOL    HW234693   2.675  12.116  10.479
10954SOL     OW34694   2.764   3.057   8.608
10954SOL    HW134695   2.721   2.995   8.667
10954SOL    HW234696   2.752   3.019   8.521
10955SOL     OW34697   4.113   6.710   1.307
10955SOL    HW134698   4.034   6.731   1.257
10955SOL    HW234699   4.159   6.645   1.254
10956SOL     OW34700   4.045  10.988  11.800
10956SOL    HW134701   4.002  11.053  11.745
10956SOL    HW234702   4.054  10.911  11.744
10957SOL     OW34703   7.796   5.132   6.826
10957SOL    HW134704   7.831   5.123   6.914
10957SOL    HW234705   7.857   5.192   6.782
10958SOL     OW34706  11.489   7.281   1.585
10958SOL    HW134707  11.412   7.257   1.636
10958SOL    HW234708  11.465   7.365   1.546
10959SOL     OW34709   1.716   9.815  10.942
10959SOL    HW134710   1.799   9.848  10.909
10959SOL    HW234711   1.727   9.720  10.944
10960SOL     OW34712  12.022   6.045  10.914
10960SOL    HW134713  11.929   6.066  10.909
10960SOL    HW234714  12.048   6.072  11.002
10961SOL     OW34715  14.866   9.833  11.160
10961SOL    HW134716  14.853   9.889  11.083
10961SOL    HW234717  14.784   9.840  11.208
10962SOL     OW34718   1.418   7.625   5.343
10962SOL    HW134719   1.423   7.533   5.315
10962SOL    HW234720   1.510   7.650   5.357
10963SOL     OW34721   2.081   4.117   7.543
10963SOL    HW134722   2.081   4.208   7.511
10963SOL    HW234723   2.171   4.103   7.573
10964SOL     OW34724  14.329  12.476   2.498
10964SOL    HW134725  14.236  12.456   2.488
10964SOL    HW234726  14.368  12.447   2.415
10965SOL     OW34727   9.100  10.214  12.303
10965SOL    HW134728   9.123  10.271  12.376
10965SOL    HW234729   9.007  10.195  12.316
10966SOL     OW34730   0.714  14.722  14.012
10966SOL    HW134731   0.661  14.772  13.950
10966SOL    HW234732   0.716  14.634  13.975
10967SOL     OW34733   1.673   4.608   2.322
10967SOL    HW134734   1.637   4.526   2.289
10967SOL    HW234735   1.661   4.670   2.250
10968SOL     OW34736  14.522   8.865  13.823
10968SOL    HW134737  14.437   8.907  13.812
10968SOL    HW234738  14.520   8.829  13.912
10969SOL     OW34739   4.049  14.060  13.430
10969SOL    HW134740   4.106  14.044  13.355
10969SOL    HW234741   3.960  14.044  13.397
10970SOL     OW34742   4.906   4.186   8.896
10970SOL    HW134743   4.926   4.114   8.957
10970SOL    HW234744   4.887   4.142   8.813
10971SOL     OW34745   0.667   3.492   1.115
10971SOL    HW134746   0.669   3.514   1.022
10971SOL    HW234747   0.581   3.522   1.145
10972SOL     OW34748   2.039  12.853  13.282
10972SOL    HW134749   2.099  12.855  13.208
10972SOL    HW234750   2.065  12.775  13.331
10973SOL     OW34751   5.326   1.082   9.599
10973SOL    HW134752   5.236   1.117   9.597
10973SOL    HW234753   5.315   0.987   9.601
10974SOL     OW34754   5.339   3.891   2.036
10974SOL    HW134755   5.379   3.979   2.033
10974SOL    HW234756   5.321   3.876   2.129
10975SOL     OW34757   3.478  11.949  10.144
10975SOL    HW134758   3.449  11.858  10.149
10975SOL    HW234759   3.574  11.944  10.146
10976SOL     OW34760  10.991   8.131   4.073
10976SOL    HW134761  11.028   8.062   4.128
10976SOL    HW234762  10.904   8.098   4.049
10977SOL     OW34763  11.543   6.853   6.370
10977SOL    HW134764  11.477   6.802   6.418
10977SOL    HW234765  11.626   6.828   6.410
10978SOL     OW34766  10.944   8.919   7.687
10978SOL    HW134767  11.033   8.897   7.660
10978SOL    HW234768  10.888   8.888   7.616
10979SOL     OW34769   3.741   8.115   0.534
10979SOL    HW134770   3.732   8.135   0.441
10979SOL    HW234771   3.797   8.185   0.568
10980SOL     OW34772   7.959  13.313   9.563
10980SOL    HW134773   7.965  13.280   9.653
10980SOL    HW234774   8.049  13.317   9.533
10981SOL     OW34775   1.851  10.906  10.731
10981SOL    HW134776   1.796  10.925  10.806
10981SOL    HW234777   1.922  10.970  10.736
10982SOL     OW34778   3.555   4.762   2.400
10982SOL    HW134779   3.513   4.719   2.325
10982SOL    HW234780   3.630   4.706   2.420
10983SOL     OW34781   2.311  14.558  12.986
10983SOL    HW134782   2.350  14.642  12.966
10983SOL    HW234783   2.380  14.509  13.031
10984SOL     OW34784   7.699   1.126  13.956
10984SOL    HW134785   7.630   1.074  13.914
10984SOL    HW234786   7.654   1.204  13.988
10985SOL     OW34787  11.614  13.479   8.964
10985SOL    HW134788  11.583  13.409   8.907
10985SOL    HW234789  11.618  13.439   9.051
10986SOL     OW34790   0.463   3.423  12.204
10986SOL    HW134791   0.520   3.347  12.194
10986SOL    HW234792   0.499   3.489  12.144
10987SOL     OW34793   9.988  10.247   6.986
10987SOL    HW134794   9.920  10.310   6.966
10987SOL    HW234795  10.004  10.257   7.080
10988SOL     OW34796   7.712  11.662   2.025
10988SOL    HW134797   7.643  11.702   2.079
10988SOL    HW234798   7.710  11.570   2.050
10989SOL     OW34799   0.589   2.546  10.142
10989SOL    HW134800   0.605   2.452  10.141
10989SOL    HW234801   0.498   2.554  10.169
10990SOL     OW34802   7.991   9.492   9.524
10990SOL    HW134803   7.959   9.552   9.592
10990SOL    HW234804   8.055   9.437   9.569
10991SOL     OW34805  10.043  14.665   2.900
10991SOL    HW134806   9.964  14.719   2.909
10991SOL    HW234807  10.115  14.725   2.915
10992SOL     OW34808   9.121   5.556  13.486
10992SOL    HW134809   9.083   5.561  13.398
10992SOL    HW234810   9.209   5.521  13.472
10993SOL     OW34811  10.642   6.257   7.154
10993SOL    HW134812  10.606   6.202   7.085
10993SOL    HW234813  10.599   6.228   7.234
10994SOL     OW34814   6.479   5.446   8.196
10994SOL    HW134815   6.426   5.492   8.131
10994SOL    HW234816   6.542   5.395   8.144
10995SOL     OW34817   0.584   2.805  13.883
10995SOL    HW134818   0.595   2.724  13.832
10995SOL    HW234819   0.663   2.811  13.936
10996SOL     OW34820  13.188  10.018   9.620
10996SOL    HW134821  13.100  10.048   9.595
10996SOL    HW234822  13.208   9.948   9.557
10997SOL     OW34823  12.264   9.114  13.489
10997SOL    HW134824  12.304   9.032  13.516
10997SOL    HW234825  12.301   9.131  13.403
10998SOL     OW34826   4.581   0.644  10.372
10998SOL    HW134827   4.497   0.599  10.361
10998SOL    HW234828   4.576   0.683  10.460
10999SOL     OW34829  10.918   0.121  10.475
10999SOL    HW134830  11.001   0.077  10.454
10999SOL    HW234831  10.865   0.053  10.518
11000SOL     OW34832   8.527   0.969   9.622
11000SOL    HW134833   8.446   0.956   9.673
11000SOL    HW234834   8.579   1.029   9.675
11001SOL     OW34835  12.198   7.193   2.800
11001SOL    HW134836  12.201   7.099   2.821
11001SOL    HW234837  12.155   7.233   2.875
11002SOL     OW34838   5.567   6.868  11.242
11002SOL    HW134839   5.593   6.932  11.308
11002SOL    HW234840   5.601   6.785  11.274
11003SOL     OW34841   9.634   8.347   2.353
11003SOL    HW134842   9.555   8.322   2.304
11003SOL    HW234843   9.695   8.275   2.339
11004SOL     OW34844   8.326   7.150   2.103
11004SOL    HW134845   8.311   7.235   2.144
11004SOL    HW234846   8.339   7.171   2.010
11005SOL     OW34847  14.129   5.055  14.162
11005SOL    HW134848  14.083   4.976  14.133
11005SOL    HW234849  14.207   5.023  14.207
11006SOL     OW34850  14.104   7.317   0.642
11006SOL    HW134851  14.181   7.343   0.591
11006SOL    HW234852  14.086   7.227   0.615
11007SOL     OW34853   0.529   2.470   7.745
11007SOL    HW134854   0.548   2.378   7.727
11007SOL    HW234855   0.606   2.500   7.794
11008SOL     OW34856   5.747  12.669   1.216
11008SOL    HW134857   5.713  12.737   1.274
11008SOL    HW234858   5.792  12.717   1.147
11009SOL     OW34859  12.443  10.173   6.959
11009SOL    HW134860  12.394  10.239   6.910
11009SOL    HW234861  12.384  10.146   7.029
11010SOL     OW34862   4.178   4.190   1.597
11010SOL    HW134863   4.101   4.188   1.654
11010SOL    HW234864   4.141   4.193   1.508
11011SOL     OW34865   9.692  13.932   5.943
11011SOL    HW134866   9.754  13.903   6.010
11011SOL    HW234867   9.666  13.852   5.897
11012SOL     OW34868   2.836   7.178   2.943
11012SOL    HW134869   2.825   7.165   2.849
11012SOL    HW234870   2.778   7.114   2.984
11013SOL     OW34871  14.044  12.440  10.161
11013SOL    HW134872  13.984  12.502  10.120
11013SOL    HW234873  14.101  12.494  10.215
11014SOL     OW34874  12.863   3.165   1.356
11014SOL    HW134875  12.862   3.245   1.408
11014SOL    HW234876  12.772   3.152   1.330
11015SOL     OW34877  12.474  13.053   4.147
11015SOL    HW134878  12.527  12.984   4.186
11015SOL    HW234879  12.527  13.086   4.074
11016SOL     OW34880   9.812   0.012   0.451
11016SOL    HW134881   9.790   0.009   0.544
11016SOL    HW234882   9.795  14.803   0.419
11017SOL     OW34883   1.781  12.648   5.445
11017SOL    HW134884   1.693  12.675   5.417
11017SOL    HW234885   1.798  12.701   5.523
11018SOL     OW34886   8.299  11.934  12.061
11018SOL    HW134887   8.222  11.976  12.100
11018SOL    HW234888   8.307  11.975  11.975
11019SOL     OW34889   3.503  13.867   3.578
11019SOL    HW134890   3.564  13.819   3.634
11019SOL    HW234891   3.494  13.812   3.500
11020SOL     OW34892   0.770  12.060  12.482
11020SOL    HW134893   0.822  11.980  12.476
11020SOL    HW234894   0.710  12.044  12.555
11021SOL     OW34895   8.940   9.792   5.180
11021SOL    HW134896   8.893   9.873   5.196
11021SOL    HW234897   9.015   9.794   5.240
11022SOL     OW34898   2.721  12.372   4.010
11022SOL    HW134899   2.626  12.367   4.021
11022SOL    HW234900   2.752  12.412   4.092
11023SOL     OW34901   4.086   1.878  10.401
11023SOL    HW134902   4.068   1.960  10.446
11023SOL    HW234903   4.141   1.828  10.463
11024SOL     OW34904   3.171  14.408   4.551
11024SOL    HW134905   3.127  14.361   4.622
11024SOL    HW234906   3.115  14.483   4.532
11025SOL     OW34907   0.255   9.640  13.405
11025SOL    HW134908   0.241   9.702  13.333
11025SOL    HW234909   0.168   9.625  13.441
11026SOL     OW34910  12.830  10.238   5.030
11026SOL    HW134911  12.769  10.259   4.960
11026SOL    HW234912  12.777  10.191   5.095
11027SOL     OW34913   0.235   5.432  13.299
11027SOL    HW134914   0.155   5.485  13.303
11027SOL    HW234915   0.232   5.379  13.379
11028SOL     OW34916  10.852  11.897   4.557
11028SOL    HW134917  10.826  11.970   4.501
11028SOL    HW234918  10.930  11.928   4.602
11029SOL     OW34919   3.482   9.990  13.629
11029SOL    HW134920   3.491  10.084  13.638
11029SOL    HW234921   3.503   9.973  13.537
11030SOL     OW34922   5.729   7.310  13.416
11030SOL    HW134923   5.744   7.216  13.408
11030SOL    HW234924   5.788   7.337  13.487
11031SOL     OW34925   6.430   4.656  11.643
11031SOL    HW134926   6.449   4.596  11.715
11031SOL    HW234927   6.507   4.652  11.587
11032SOL     OW34928  12.186   8.346   1.881
11032SOL    HW134929  12.223   8.433   1.866
11032SOL    HW234930  12.184   8.337   1.977
11033SOL     OW34931   6.890   7.965   4.910
11033SOL    HW134932   6.923   7.892   4.857
11033SOL    HW234933   6.811   7.994   4.865
11034SOL     OW34934   7.460   4.871  12.828
11034SOL    HW134935   7.502   4.805  12.773
11034SOL    HW234936   7.514   4.873  12.908
11035SOL     OW34937   0.663  10.153   6.975
11035SOL    HW134938   0.617  10.079   6.936
11035SOL    HW234939   0.599  10.224   6.974
11036SOL     OW34940  12.174  13.402  14.007
11036SOL    HW134941  12.200  13.457  14.081
11036SOL    HW234942  12.102  13.348  14.041
11037SOL     OW34943   4.184   6.578   0.641
11037SOL    HW134944   4.266   6.612   0.679
11037SOL    HW234945   4.162   6.641   0.573
11038SOL     OW34946  12.991   2.634   4.746
11038SOL    HW134947  13.018   2.558   4.798
11038SOL    HW234948  12.896   2.624   4.737
11039SOL     OW34949  13.034   1.123  10.400
11039SOL    HW134950  12.970   1.146  10.333
11039SOL    HW234951  13.115   1.106  10.351
11040SOL     OW34952   2.596   7.576  14.096
11040SOL    HW134953   2.524   7.603  14.038
11040SOL    HW234954   2.666   7.552  14.036
11041SOL     OW34955   3.528  11.965   0.031
11041SOL    HW134956   3.588  11.980  14.836
11041SOL    HW234957   3.585  11.956   0.107
11042SOL     OW34958  13.452  13.515   1.005
11042SOL    HW134959  13.485  13.549   1.089
11042SOL    HW234960  13.409  13.591   0.964
11043SOL     OW34961   1.983   1.144   1.709
11043SOL    HW134962   2.027   1.059   1.709
11043SOL    HW234963   2.053   1.207   1.696
11044SOL     OW34964  14.625   1.825   8.863
11044SOL    HW134965  14.655   1.734   8.861
11044SOL    HW234966  14.546   1.823   8.917
11045SOL     OW34967   1.029  14.780  12.904
11045SOL    HW134968   1.003  14.872  12.911
11045SOL    HW234969   0.967  14.743  12.841
11046SOL     OW34970   4.650   7.141  11.632
11046SOL    HW134971   4.666   7.199  11.706
11046SOL    HW234972   4.683   7.189  11.556
11047SOL     OW34973   2.162   2.208  12.873
11047SOL    HW134974   2.216   2.143  12.917
11047SOL    HW234975   2.225   2.265  12.828
11048SOL     OW34976   5.228   4.394  13.217
11048SOL    HW134977   5.307   4.341  13.229
11048SOL    HW234978   5.260   4.483  13.207
11049SOL     OW34979   2.533   5.692   4.782
11049SOL    HW134980   2.488   5.739   4.852
11049SOL    HW234981   2.565   5.612   4.824
11050SOL     OW34982  10.624  10.434  12.789
11050SOL    HW134983  10.589  10.357  12.744
11050SOL    HW234984  10.706  10.454  12.743
11051SOL     OW34985  10.507   0.967  13.372
11051SOL    HW134986  10.466   0.976  13.286
11051SOL    HW234987  10.449   1.016  13.431
11052SOL     OW34988  14.139   8.991  13.013
11052SOL    HW134989  14.089   9.062  12.973
11052SOL    HW234990  14.126   8.916  12.954
11053SOL     OW34991   1.877   0.736   8.843
11053SOL    HW134992   1.827   0.764   8.920
11053SOL    HW234993   1.886   0.642   8.853
11054SOL     OW34994   5.546   1.454   1.780
11054SOL    HW134995   5.514   1.435   1.692
11054SOL    HW234996   5.495   1.530   1.809
11055SOL     OW34997   2.036   7.937   1.417
11055SOL    HW134998   1.997   7.951   1.330
11055SOL    HW234999   2.101   7.868   1.404
11056SOL     OW35000  12.789   8.488   1.816
11056SOL    HW135001  12.748   8.491   1.730
11056SOL    HW235002  12.875   8.528   1.803
11057SOL     OW35003  13.325   3.762  11.193
11057SOL    HW135004  13.409   3.783  11.154
11057SOL    HW235005  13.340   3.681  11.242
11058SOL     OW35006   1.258   7.197   8.149
11058SOL    HW135007   1.191   7.140   8.111
11058SOL    HW235008   1.243   7.192   8.243
11059SOL     OW35009   3.821   9.106   4.914
11059SOL    HW135010   3.830   9.046   4.988
11059SOL    HW235011   3.744   9.074   4.867
11060SOL     OW35012   3.947   2.606  12.020
11060SOL    HW135013   3.925   2.642  11.935
11060SOL    HW235014   3.885   2.533  12.033
11061SOL     OW35015  12.267  11.597  12.880
11061SOL    HW135016  12.196  11.538  12.854
11061SOL    HW235017  12.345  11.563  12.838
11062SOL     OW35018   8.967  12.102   7.818
11062SOL    HW135019   8.968  12.006   7.819
11062SOL    HW235020   8.887  12.126   7.864
11063SOL     OW35021   0.200  12.791  10.991
11063SOL    HW135022   0.150  12.710  10.984
11063SOL    HW235023   0.291  12.763  10.989
11064SOL     OW35024   4.263   8.543   7.432
11064SOL    HW135025   4.317   8.612   7.469
11064SOL    HW235026   4.215   8.586   7.361
11065SOL     OW35027   9.622   0.171   6.506
11065SOL    HW135028   9.676   0.161   6.427
11065SOL    HW235029   9.533   0.155   6.476
11066SOL     OW35030  11.145  13.991   1.562
11066SOL    HW135031  11.139  13.940   1.643
11066SOL    HW235032  11.058  14.028   1.551
11067SOL     OW35033   9.122   5.736  12.027
11067SOL    HW135034   9.107   5.647  12.058
11067SOL    HW235035   9.168   5.725  11.944
11068SOL     OW35036   3.445  14.398   6.234
11068SOL    HW135037   3.410  14.388   6.145
11068SOL    HW235038   3.385  14.349   6.289
11069SOL     OW35039   2.535   4.267  12.095
11069SOL    HW135040   2.521   4.362  12.104
11069SOL    HW235041   2.462   4.228  12.144
11070SOL     OW35042   5.720   2.368   0.653
11070SOL    HW135043   5.664   2.318   0.593
11070SOL    HW235044   5.747   2.304   0.720
11071SOL     OW35045   1.604   7.965   3.646
11071SOL    HW135046   1.530   7.943   3.704
11071SOL    HW235047   1.645   7.881   3.627
11072SOL     OW35048   3.645  13.302  11.123
11072SOL    HW135049   3.575  13.311  11.187
11072SOL    HW235050   3.670  13.210  11.128
11073SOL     OW35051   5.409   1.902  13.766
11073SOL    HW135052   5.376   1.990  13.748
11073SOL    HW235053   5.334   1.855  13.804
11074SOL     OW35054   9.374   3.039  10.743
11074SOL    HW135055   9.422   3.101  10.798
11074SOL    HW235056   9.282   3.052  10.767
11075SOL     OW35057  13.293   4.285   4.915
11075SOL    HW135058  13.200   4.286   4.938
11075SOL    HW235059  13.299   4.338   4.835
11076SOL     OW35060   1.510   5.277   6.888
11076SOL    HW135061   1.570   5.206   6.865
11076SOL    HW235062   1.441   5.272   6.823
11077SOL     OW35063   3.568   3.927   0.043
11077SOL    HW135064   3.528   4.013   0.028
11077SOL    HW235065   3.501   3.878   0.090
11078SOL     OW35066   8.351   7.296  11.326
11078SOL    HW135067   8.260   7.323  11.310
11078SOL    HW235068   8.362   7.217  11.273
11079SOL     OW35069  11.828  13.851   6.806
11079SOL    HW135070  11.823  13.877   6.898
11079SOL    HW235071  11.818  13.933   6.757
11080SOL     OW35072  12.865   3.019  13.260
11080SOL    HW135073  12.842   3.107  13.289
11080SOL    HW235074  12.814   2.961  13.316
11081SOL     OW35075   0.973  11.406  12.730
11081SOL    HW135076   0.897  11.395  12.673
11081SOL    HW235077   1.048  11.383  12.674
11082SOL     OW35078   0.183  13.622   0.064
11082SOL    HW135079   0.151  13.685  14.878
11082SOL    HW235080   0.120  13.629   0.136
11083SOL     OW35081   9.487  10.172   8.070
11083SOL    HW135082   9.452  10.163   8.159
11083SOL    HW235083   9.482  10.084   8.034
11084SOL     OW35084   1.480  11.788   1.480
11084SOL    HW135085   1.447  11.770   1.568
11084SOL    HW235086   1.500  11.701   1.444
11085SOL     OW35087   0.073  13.634   4.119
11085SOL    HW135088   0.023  13.703   4.163
11085SOL    HW235089   0.144  13.680   4.075
11086SOL     OW35090   2.979  11.932   8.950
11086SOL    HW135091   3.001  12.024   8.936
11086SOL    HW235092   2.950  11.902   8.864
11087SOL     OW35093   2.610   2.011  10.875
11087SOL    HW135094   2.626   2.052  10.791
11087SOL    HW235095   2.693   2.019  10.923
11088SOL     OW35096  11.766   3.630  11.888
11088SOL    HW135097  11.853   3.599  11.914
11088SOL    HW235098  11.783   3.713  11.842
11089SOL     OW35099  10.707   8.162   9.787
11089SOL    HW135100  10.647   8.227   9.753
11089SOL    HW235101  10.654   8.106   9.843
11090SOL     OW35102  14.153   0.193   8.099
11090SOL    HW135103  14.112   0.110   8.073
11090SOL    HW235104  14.243   0.169   8.121
11091SOL     OW35105   5.628  11.454   4.168
11091SOL    HW135106   5.637  11.470   4.262
11091SOL    HW235107   5.697  11.391   4.148
11092SOL     OW35108  10.482  13.214  11.307
11092SOL    HW135109  10.426  13.256  11.242
11092SOL    HW235110  10.463  13.260  11.389
11093SOL     OW35111   7.012   0.621  11.835
11093SOL    HW135112   7.103   0.594  11.849
11093SOL    HW235113   6.965   0.540  11.817
11094SOL     OW35114   4.424   7.210   9.272
11094SOL    HW135115   4.473   7.234   9.194
11094SOL    HW235116   4.356   7.277   9.279
11095SOL     OW35117   6.187   4.590   3.931
11095SOL    HW135118   6.282   4.597   3.942
11095SOL    HW235119   6.150   4.634   4.009
11096SOL     OW35120  11.799   2.122   1.316
11096SOL    HW135121  11.719   2.106   1.265
11096SOL    HW235122  11.808   2.044   1.371
11097SOL     OW35123   5.957   2.939   5.185
11097SOL    HW135124   5.897   2.954   5.258
11097SOL    HW235125   5.955   2.844   5.171
11098SOL     OW35126   4.230  14.465   6.673
11098SOL    HW135127   4.187  14.413   6.605
11098SOL    HW235128   4.264  14.400   6.734
11099SOL     OW35129   3.477  12.881   3.058
11099SOL    HW135130   3.422  12.845   2.987
11099SOL    HW235131   3.564  12.889   3.019
11100SOL     OW35132   7.395   0.391  12.563
11100SOL    HW135133   7.475   0.347  12.535
11100SOL    HW235134   7.357   0.426  12.482
11101SOL     OW35135   3.545   2.312   9.026
11101SOL    HW135136   3.469   2.359   9.060
11101SOL    HW235137   3.601   2.381   8.990
11102SOL     OW35138  10.656  12.268  11.323
11102SOL    HW135139  10.698  12.241  11.240
11102SOL    HW235140  10.572  12.304  11.296
11103SOL     OW35141  10.981   8.928  14.774
11103SOL    HW135142  10.969   9.010  14.726
11103SOL    HW235143  11.041   8.877  14.719
11104SOL     OW35144  10.244  14.487   1.330
11104SOL    HW135145  10.233  14.450   1.417
11104SOL    HW235146  10.259  14.411   1.273
11105SOL     OW35147   4.743   7.251   8.793
11105SOL    HW135148   4.769   7.273   8.704
11105SOL    HW235149   4.795   7.309   8.849
11106SOL     OW35150   7.549   8.754  11.444
11106SOL    HW135151   7.600   8.689  11.396
11106SOL    HW235152   7.486   8.787  11.380
11107SOL     OW35153   2.876   2.721   1.231
11107SOL    HW135154   2.905   2.798   1.281
11107SOL    HW235155   2.939   2.653   1.253
11108SOL     OW35156   2.500  13.418   7.048
11108SOL    HW135157   2.420  13.387   7.005
11108SOL    HW235158   2.526  13.345   7.105
11109SOL     OW35159  10.697   8.533   3.543
11109SOL    HW135160  10.607   8.507   3.561
11109SOL    HW235161  10.691   8.590   3.466
11110SOL     OW35162  12.932   8.232   4.549
11110SOL    HW135163  12.894   8.146   4.569
11110SOL    HW235164  12.859   8.282   4.513
11111SOL     OW35165  12.527   5.824  11.993
11111SOL    HW135166  12.613   5.803  11.956
11111SOL    HW235167  12.465   5.775  11.938
11112SOL     OW35168  11.866  13.078   3.671
11112SOL    HW135169  11.824  13.064   3.587
11112SOL    HW235170  11.901  12.991   3.694
11113SOL     OW35171   6.852  14.081   1.757
11113SOL    HW135172   6.875  14.040   1.841
11113SOL    HW235173   6.933  14.078   1.707
11114SOL     OW35174   8.525  10.319  10.778
11114SOL    HW135175   8.538  10.340  10.871
11114SOL    HW235176   8.557  10.229  10.769
11115SOL     OW35177   1.052   7.256   4.071
11115SOL    HW135178   1.044   7.252   3.976
11115SOL    HW235179   1.058   7.349   4.091
11116SOL     OW35180   8.144  10.653   6.087
11116SOL    HW135181   8.217  10.644   6.147
11116SOL    HW235182   8.068  10.666   6.143
11117SOL     OW35183   3.564   1.752   8.133
11117SOL    HW135184   3.545   1.659   8.118
11117SOL    HW235185   3.503   1.799   8.077
11118SOL     OW35186   3.287   6.608   4.225
11118SOL    HW135187   3.270   6.573   4.138
11118SOL    HW235188   3.314   6.698   4.209
11119SOL     OW35189   3.775  14.790   1.385
11119SOL    HW135190   3.707  14.754   1.329
11119SOL    HW235191   3.806  14.868   1.338
11120SOL     OW35192   1.208   7.411   4.347
11120SOL    HW135193   1.165   7.481   4.396
11120SOL    HW235194   1.177   7.330   4.388
11121SOL     OW35195  11.640   0.738  12.231
11121SOL    HW135196  11.676   0.752  12.143
11121SOL    HW235197  11.651   0.644  12.246
11122SOL     OW35198   4.621   9.791  14.663
11122SOL    HW135199   4.644   9.884  14.664
11122SOL    HW235200   4.658   9.757  14.745
11123SOL     OW35201  14.441   6.766  10.620
11123SOL    HW135202  14.410   6.820  10.693
11123SOL    HW235203  14.409   6.812  10.542
11124SOL     OW35204   6.847   9.736   0.029
11124SOL    HW135205   6.892   9.820   0.035
11124SOL    HW235206   6.909   9.673   0.066
11125SOL     OW35207  14.445   1.750   0.154
11125SOL    HW135208  14.539   1.752   0.132
11125SOL    HW235209  14.401   1.776   0.073
11126SOL     OW35210  12.746  12.088   0.839
11126SOL    HW135211  12.790  12.003   0.841
11126SOL    HW235212  12.812  12.149   0.808
11127SOL     OW35213   5.730   6.606   6.922
11127SOL    HW135214   5.818   6.585   6.951
11127SOL    HW235215   5.735   6.604   6.826
11128SOL     OW35216  11.002  13.525   3.374
11128SOL    HW135217  10.952  13.591   3.327
11128SOL    HW235218  11.066  13.494   3.311
11129SOL     OW35219   2.093  13.756   2.949
11129SOL    HW135220   2.157  13.762   3.019
11129SOL    HW235221   2.084  13.662   2.933
11130SOL     OW35222  14.495  11.770  14.456
11130SOL    HW135223  14.498  11.720  14.538
11130SOL    HW235224  14.564  11.731  14.402
11131SOL     OW35225  10.456   4.745   1.025
11131SOL    HW135226  10.519   4.680   1.054
11131SOL    HW235227  10.492   4.779   0.943
11132SOL     OW35228   8.887   9.522   8.274
11132SOL    HW135229   8.837   9.478   8.342
11132SOL    HW235230   8.826   9.530   8.201
11133SOL     OW35231  12.659   0.904  13.010
11133SOL    HW135232  12.610   0.984  13.026
11133SOL    HW235233  12.612   0.861  12.939
11134SOL     OW35234   8.292   6.612   5.186
11134SOL    HW135235   8.349   6.626   5.261
11134SOL    HW235236   8.288   6.697   5.143
11135SOL     OW35237  13.399   8.144  11.209
11135SOL    HW135238  13.323   8.192  11.243
11135SOL    HW235239  13.414   8.183  11.123
11136SOL     OW35240   0.385   0.220   6.286
11136SOL    HW135241   0.329   0.224   6.208
11136SOL    HW235242   0.468   0.186   6.254
11137SOL     OW35243   1.044  14.096  10.925
11137SOL    HW135244   1.095  14.100  11.005
11137SOL    HW235245   1.023  14.003  10.915
11138SOL     OW35246   1.773  10.649   2.068
11138SOL    HW135247   1.681  10.664   2.045
11138SOL    HW235248   1.804  10.587   2.002
11139SOL     OW35249  11.808   0.225  12.343
11139SOL    HW135250  11.875   0.270  12.291
11139SOL    HW235251  11.854   0.198  12.422
11140SOL     OW35252   0.357   7.355   6.388
11140SOL    HW135253   0.438   7.357   6.439
11140SOL    HW235254   0.321   7.443   6.397
11141SOL     OW35255   4.488   9.828  10.655
11141SOL    HW135256   4.577   9.862  10.662
11141SOL    HW235257   4.460   9.851  10.566
11142SOL     OW35258  12.863  13.589   1.371
11142SOL    HW135259  12.953  13.561   1.359
11142SOL    HW235260  12.861  13.630   1.458
11143SOL     OW35261   2.638   4.156   3.295
11143SOL    HW135262   2.704   4.224   3.292
11143SOL    HW235263   2.685   4.075   3.273
11144SOL     OW35264  10.327  14.723   2.614
11144SOL    HW135265  10.396  14.716   2.680
11144SOL    HW235266  10.371  14.707   2.531
11145SOL     OW35267  10.392  11.164   2.368
11145SOL    HW135268  10.327  11.168   2.298
11145SOL    HW235269  10.467  11.118   2.329
11146SOL     OW35270   5.246  13.638  10.498
11146SOL    HW135271   5.286  13.571  10.443
11146SOL    HW235272   5.169  13.595  10.535
11147SOL     OW35273   7.624   2.298   8.330
11147SOL    HW135274   7.586   2.296   8.242
11147SOL    HW235275   7.594   2.217   8.371
11148SOL     OW35276   6.013  10.047  13.077
11148SOL    HW135277   6.074   9.977  13.055
11148SOL    HW235278   6.064  10.127  13.068
11149SOL     OW35279   3.847   4.833   0.150
11149SOL    HW135280   3.930   4.880   0.158
11149SOL    HW235281   3.807   4.840   0.237
11150SOL     OW35282   6.172  14.664  11.153
11150SOL    HW135283   6.130  14.584  11.186
11150SOL    HW235284   6.251  14.633  11.109
11151SOL     OW35285   2.946   7.240   0.499
11151SOL    HW135286   3.016   7.233   0.434
11151SOL    HW235287   2.980   7.196   0.577
11152SOL     OW35288   6.198   1.215  11.353
11152SOL    HW135289   6.139   1.140  11.347
11152SOL    HW235290   6.286   1.177  11.352
11153SOL     OW35291   9.933   0.638  14.165
11153SOL    HW135292   9.943   0.659  14.258
11153SOL    HW235293   9.838   0.645  14.149
11154SOL     OW35294   4.533   7.492   5.265
11154SOL    HW135295   4.571   7.536   5.189
11154SOL    HW235296   4.564   7.402   5.258
11155SOL     OW35297   4.757   1.765  10.882
11155SOL    HW135298   4.717   1.706  10.817
11155SOL    HW235299   4.709   1.847  10.873
11156SOL     OW35300   2.219   9.561   9.952
11156SOL    HW135301   2.253   9.473   9.961
11156SOL    HW235302   2.281   9.605   9.894
11157SOL     OW35303   7.746  10.773   5.446
11157SOL    HW135304   7.742  10.826   5.526
11157SOL    HW235305   7.760  10.684   5.477
11158SOL     OW35306   7.986  12.755   8.657
11158SOL    HW135307   7.895  12.768   8.630
11158SOL    HW235308   7.981  12.691   8.728
11159SOL     OW35309   2.052  11.961   4.292
11159SOL    HW135310   2.061  11.915   4.208
11159SOL    HW235311   1.957  11.970   4.304
11160SOL     OW35312  10.295   6.191   7.235
11160SOL    HW135313  10.292   6.271   7.287
11160SOL    HW235314  10.274   6.219   7.146
11161SOL     OW35315   8.467   6.509   6.465
11161SOL    HW135316   8.498   6.483   6.552
11161SOL    HW235317   8.450   6.603   6.472
11162SOL     OW35318   7.656  11.694   3.840
11162SOL    HW135319   7.610  11.691   3.923
11162SOL    HW235320   7.588  11.676   3.774
11163SOL     OW35321  13.634   1.528  13.995
11163SOL    HW135322  13.551   1.498  14.032
11163SOL    HW235323  13.671   1.451  13.952
11164SOL     OW35324  14.079  11.539   5.458
11164SOL    HW135325  14.161  11.577   5.425
11164SOL    HW235326  14.051  11.481   5.388
11165SOL     OW35327   2.710   5.458  10.924
11165SOL    HW135328   2.691   5.542  10.965
11165SOL    HW235329   2.699   5.473  10.831
11166SOL     OW35330  10.249   6.805   3.025
11166SOL    HW135331  10.278   6.889   3.060
11166SOL    HW235332  10.163   6.792   3.064
11167SOL     OW35333   6.498   9.567   7.370
11167SOL    HW135334   6.509   9.502   7.301
11167SOL    HW235335   6.407   9.596   7.361
11168SOL     OW35336   6.457  14.296  11.334
11168SOL    HW135337   6.445  14.266  11.424
11168SOL    HW235338   6.512  14.373  11.341
11169SOL     OW35339   9.246   1.126  10.694
11169SOL    HW135340   9.165   1.173  10.672
11169SOL    HW235341   9.313   1.193  10.696
11170SOL     OW35342   8.005  11.232  13.927
11170SOL    HW135343   7.929  11.198  13.879
11170SOL    HW235344   7.993  11.327  13.925
11171SOL     OW35345   5.457  14.063   8.292
11171SOL    HW135346   5.391  14.122   8.328
11171SOL    HW235347   5.408  13.987   8.260
11172SOL     OW35348   9.051   0.044   7.476
11172SOL    HW135349   9.016  14.836   7.456
11172SOL    HW235350   9.034   0.096   7.398
11173SOL     OW35351   9.980   5.608  11.654
11173SOL    HW135352  10.012   5.572  11.571
11173SOL    HW235353  10.030   5.562  11.721
11174SOL     OW35354   0.697   3.416  14.021
11174SOL    HW135355   0.681   3.470  13.943
11174SOL    HW235356   0.693   3.326  13.990
11175SOL     OW35357  10.747   4.480  13.586
11175SOL    HW135358  10.811   4.549  13.605
11175SOL    HW235359  10.686   4.521  13.523
11176SOL     OW35360   8.462   8.538  10.184
11176SOL    HW135361   8.511   8.604  10.135
11176SOL    HW235362   8.498   8.542  10.272
11177SOL     OW35363   3.290   7.626  13.971
11177SOL    HW135364   3.384   7.620  13.961
11177SOL    HW235365   3.254   7.566  13.906
11178SOL     OW35366   8.291  14.512   2.609
11178SOL    HW135367   8.317  14.484   2.697
11178SOL    HW235368   8.271  14.430   2.563
11179SOL     OW35369   5.469   9.583  12.752
11179SOL    HW135370   5.390   9.627  12.721
11179SOL    HW235371   5.502   9.538  12.674
11180SOL     OW35372   4.595  12.720   1.047
11180SOL    HW135373   4.540  12.673   0.984
11180SOL    HW235374   4.657  12.768   0.992
11181SOL     OW35375  12.605  13.934   1.391
11181SOL    HW135376  12.610  13.859   1.332
11181SOL    HW235377  12.687  13.933   1.439
11182SOL     OW35378  13.301  13.805   5.900
11182SOL    HW135379  13.301  13.842   5.812
11182SOL    HW235380  13.315  13.711   5.886
11183SOL     OW35381  11.425   8.988  11.013
11183SOL    HW135382  11.477   8.943  11.080
11183SOL    HW235383  11.338   8.996  11.051
11184SOL     OW35384  10.295   4.779  14.162
11184SOL    HW135385  10.236   4.788  14.087
11184SOL    HW235386  10.330   4.690  14.155
11185SOL     OW35387   3.793  10.377   4.836
11185SOL    HW135388   3.729  10.308   4.822
11185SOL    HW235389   3.792  10.392   4.931
11186SOL     OW35390  11.100  11.118   9.181
11186SOL    HW135391  11.189  11.147   9.199
11186SOL    HW235392  11.056  11.196   9.146
11187SOL     OW35393   5.064   2.673   4.401
11187SOL    HW135394   5.123   2.619   4.454
11187SOL    HW235395   5.122   2.736   4.358
11188SOL     OW35396  11.812   0.340   3.652
11188SOL    HW135397  11.764   0.370   3.575
11188SOL    HW235398  11.859   0.262   3.623
11189SOL     OW35399   1.544   2.431   0.534
11189SOL    HW135400   1.583   2.514   0.561
11189SOL    HW235401   1.453   2.454   0.512
11190SOL     OW35402   2.579   6.135   4.042
11190SOL    HW135403   2.654   6.091   4.001
11190SOL    HW235404   2.537   6.182   3.970
11191SOL     OW35405   9.258  13.861   7.480
11191SOL    HW135406   9.201  13.801   7.527
11191SOL    HW235407   9.334  13.808   7.455
11192SOL     OW35408  10.923  10.753  12.900
11192SOL    HW135409  10.885  10.699  12.831
11192SOL    HW235410  10.872  10.834  12.898
11193SOL     OW35411   4.249  10.712   1.283
11193SOL    HW135412   4.214  10.802   1.286
11193SOL    HW235413   4.178  10.659   1.320
11194SOL     OW35414   4.607   4.540   5.953
11194SOL    HW135415   4.623   4.573   5.864
11194SOL    HW235416   4.687   4.494   5.976
11195SOL     OW35417  11.101  10.325   0.768
11195SOL    HW135418  11.044  10.262   0.812
11195SOL    HW235419  11.189  10.301   0.795
11196SOL     OW35420   7.084   2.350   1.635
11196SOL    HW135421   7.019   2.283   1.616
11196SOL    HW235422   7.080   2.362   1.730
11197SOL     OW35423   5.717  14.802   6.177
11197SOL    HW135424   5.760  14.717   6.172
11197SOL    HW235425   5.773  14.855   6.234
11198SOL     OW35426   1.053  10.351   3.690
11198SOL    HW135427   1.023  10.441   3.688
11198SOL    HW235428   1.021  10.316   3.772
11199SOL     OW35429   6.231   0.355  11.306
11199SOL    HW135430   6.320   0.390  11.313
11199SOL    HW235431   6.236   0.291  11.236
11200SOL     OW35432   5.339   4.974   2.109
11200SOL    HW135433   5.397   4.995   2.037
11200SOL    HW235434   5.339   5.052   2.164
11201SOL     OW35435   6.560   2.715   2.514
11201SOL    HW135436   6.504   2.676   2.447
11201SOL    HW235437   6.510   2.704   2.595
11202SOL     OW35438   2.116   6.935   2.933
11202SOL    HW135439   2.169   6.907   2.859
11202SOL    HW235440   2.180   6.968   2.997
11203SOL     OW35441  12.736   8.832   4.986
11203SOL    HW135442  12.725   8.919   4.949
11203SOL    HW235443  12.663   8.822   5.047
11204SOL     OW35444   0.348  13.368   8.875
11204SOL    HW135445   0.411  13.402   8.939
11204SOL    HW235446   0.386  13.390   8.790
11205SOL     OW35447  11.011   8.386   4.237
11205SOL    HW135448  11.012   8.297   4.200
11205SOL    HW235449  11.079   8.432   4.189
11206SOL     OW35450   2.129  10.678   7.790
11206SOL    HW135451   2.062  10.714   7.848
11206SOL    HW235452   2.148  10.749   7.729
11207SOL     OW35453   9.508  13.829   5.374
11207SOL    HW135454   9.432  13.848   5.319
11207SOL    HW235455   9.566  13.905   5.361
11208SOL     OW35456   9.741   5.280   9.641
11208SOL    HW135457   9.662   5.297   9.590
11208SOL    HW235458   9.730   5.190   9.672
11209SOL     OW35459   7.165  10.050  10.802
11209SOL    HW135460   7.114  10.015  10.874
11209SOL    HW235461   7.153  10.145  10.807
11210SOL     OW35462  11.040   1.512  11.061
11210SOL    HW135463  10.972   1.575  11.037
11210SOL    HW235464  11.059   1.531  11.153
11211SOL     OW35465  10.272   1.646   2.899
11211SOL    HW135466  10.212   1.721   2.896
11211SOL    HW235467  10.221   1.573   2.864
11212SOL     OW35468   8.049  10.238   4.095
11212SOL    HW135469   7.987  10.206   4.162
11212SOL    HW235470   8.002  10.309   4.051
11213SOL     OW35471   2.219   0.047   4.049
11213SOL    HW135472   2.182   0.135   4.054
11213SOL    HW235473   2.218   0.025   3.956
11214SOL     OW35474   9.820  11.466   1.126
11214SOL    HW135475   9.846  11.494   1.038
11214SOL    HW235476   9.877  11.391   1.144
11215SOL     OW35477  11.290   2.006   9.260
11215SOL    HW135478  11.276   1.932   9.319
11215SOL    HW235479  11.333   2.072   9.314
11216SOL     OW35480   6.029  14.158  14.866
11216SOL    HW135481   6.010  14.067   0.009
11216SOL    HW235482   6.098  14.152  14.799
11217SOL     OW35483  12.101   7.457  10.815
11217SOL    HW135484  12.181   7.416  10.848
11217SOL    HW235485  12.100   7.436  10.722
11218SOL     OW35486   2.657  11.181  12.036
11218SOL    HW135487   2.626  11.097  12.068
11218SOL    HW235488   2.690  11.163  11.948
11219SOL     OW35489   1.515   3.169  12.411
11219SOL    HW135490   1.460   3.245  12.392
11219SOL    HW235491   1.478   3.132  12.491
11220SOL     OW35492  11.098   3.889   6.297
11220SOL    HW135493  11.175   3.840   6.327
11220SOL    HW235494  11.093   3.963   6.357
11221SOL     OW35495   8.916   5.856   0.427
11221SOL    HW135496   8.908   5.952   0.425
11221SOL    HW235497   8.966   5.838   0.507
11222SOL     OW35498   0.074   1.505   0.511
11222SOL    HW135499   0.149   1.559   0.485
11222SOL    HW235500   0.099   1.416   0.484
11223SOL     OW35501  10.396   8.652   9.616
11223SOL    HW135502  10.417   8.685   9.529
11223SOL    HW235503  10.331   8.584   9.601
11224SOL     OW35504   4.596   6.598  10.349
11224SOL    HW135505   4.651   6.560  10.280
11224SOL    HW235506   4.657   6.640  10.409
11225SOL     OW35507   1.843   2.026   8.634
11225SOL    HW135508   1.776   1.967   8.600
11225SOL    HW235509   1.912   1.968   8.667
11226SOL     OW35510   7.931   4.078  14.151
11226SOL    HW135511   8.025   4.064  14.166
11226SOL    HW235512   7.917   4.048  14.061
11227SOL     OW35513   3.869  14.017   4.458
11227SOL    HW135514   3.814  14.049   4.386
11227SOL    HW235515   3.843  13.926   4.470
11228SOL     OW35516   3.305   2.211   3.938
11228SOL    HW135517   3.252   2.245   3.867
11228SOL    HW235518   3.255   2.136   3.972
11229SOL     OW35519  11.896  10.488  10.053
11229SOL    HW135520  11.984  10.455  10.032
11229SOL    HW235521  11.847  10.480   9.972
11230SOL     OW35522  13.664   5.405  12.824
11230SOL    HW135523  13.694   5.319  12.794
11230SOL    HW235524  13.649   5.455  12.744
11231SOL     OW35525   8.158   6.203  11.224
11231SOL    HW135526   8.233   6.151  11.194
11231SOL    HW235527   8.193   6.291  11.235
11232SOL     OW35528   1.429   2.260   5.898
11232SOL    HW135529   1.445   2.175   5.858
11232SOL    HW235530   1.392   2.239   5.984
11233SOL     OW35531   6.118  11.073   7.814
11233SOL    HW135532   6.099  11.069   7.908
11233SOL    HW235533   6.046  11.124   7.778
11234SOL     OW35534   2.471   9.958  11.327
11234SOL    HW135535   2.469   9.920  11.415
11234SOL    HW235536   2.429  10.044  11.337
11235SOL     OW35537   1.884  13.510  13.529
11235SOL    HW135538   1.932  13.575  13.478
11235SOL    HW235539   1.908  13.528  13.620
11236SOL     OW35540   7.140   7.700   8.650
11236SOL    HW135541   7.209   7.765   8.633
11236SOL    HW235542   7.079   7.710   8.577
11237SOL     OW35543   2.968   0.212  11.425
11237SOL    HW135544   2.914   0.166  11.490
11237SOL    HW235545   2.913   0.216  11.347
11238SOL     OW35546   9.809   0.786   7.807
11238SOL    HW135547   9.885   0.799   7.751
11238SOL    HW235548   9.775   0.874   7.822
11239SOL     OW35549  13.189   8.880  12.693
11239SOL    HW135550  13.232   8.898  12.609
11239SOL    HW235551  13.246   8.922  12.758
11240SOL     OW35552  14.320  10.659   8.574
11240SOL    HW135553  14.391  10.595   8.586
11240SOL    HW235554  14.333  10.723   8.644
11241SOL     OW35555  14.248  10.673  11.290
11241SOL    HW135556  14.171  10.726  11.267
11241SOL    HW235557  14.282  10.712  11.370
11242SOL     OW35558   1.670   7.155   4.951
11242SOL    HW135559   1.699   7.108   4.872
11242SOL    HW235560   1.577   7.136   4.958
11243SOL     OW35561  13.293   6.134   2.442
11243SOL    HW135562  13.287   6.227   2.464
11243SOL    HW235563  13.367   6.129   2.381
11244SOL     OW35564   6.119  14.503   6.536
11244SOL    HW135565   6.189  14.491   6.600
11244SOL    HW235566   6.139  14.587   6.495
11245SOL     OW35567   2.401  13.537   5.541
11245SOL    HW135568   2.323  13.496   5.579
11245SOL    HW235569   2.439  13.468   5.485
11246SOL     OW35570   6.000   9.247  14.693
11246SOL    HW135571   6.030   9.298  14.618
11246SOL    HW235572   5.964   9.167  14.655
11247SOL     OW35573  13.859  13.614   9.011
11247SOL    HW135574  13.826  13.549   8.949
11247SOL    HW235575  13.886  13.688   8.957
11248SOL     OW35576   1.437   1.390  11.457
11248SOL    HW135577   1.365   1.349  11.409
11248SOL    HW235578   1.504   1.322  11.461
11249SOL     OW35579   7.566  12.185   1.898
11249SOL    HW135580   7.575  12.090   1.909
11249SOL    HW235581   7.472  12.201   1.900
11250SOL     OW35582  10.265   7.741  10.168
11250SOL    HW135583  10.172   7.721  10.180
11250SOL    HW235584  10.299   7.752  10.257
11251SOL     OW35585   6.857   2.642   6.529
11251SOL    HW135586   6.808   2.559   6.534
11251SOL    HW235587   6.930   2.630   6.590
11252SOL     OW35588   9.684  11.662   9.145
11252SOL    HW135589   9.739  11.740   9.136
11252SOL    HW235590   9.656  11.642   9.055
11253SOL     OW35591  12.373   3.391   1.297
11253SOL    HW135592  12.290   3.395   1.250
11253SOL    HW235593  12.386   3.481   1.329
11254SOL     OW35594  10.066  11.080   0.981
11254SOL    HW135595  10.110  10.996   0.994
11254SOL    HW235596   9.973  11.058   0.976
11255SOL     OW35597   5.284   1.932  14.458
11255SOL    HW135598   5.271   1.839  14.439
11255SOL    HW235599   5.365   1.955  14.412
11256SOL     OW35600   2.368   8.563   1.997
11256SOL    HW135601   2.341   8.654   1.986
11256SOL    HW235602   2.438   8.567   2.063
11257SOL     OW35603   9.391   7.159   6.302
11257SOL    HW135604   9.309   7.187   6.261
11257SOL    HW235605   9.446   7.237   6.304
11258SOL     OW35606  12.404   4.969   1.862
11258SOL    HW135607  12.350   5.025   1.916
11258SOL    HW235608  12.479   5.023   1.838
11259SOL     OW35609  10.675   6.748   3.126
11259SOL    HW135610  10.647   6.684   3.191
11259SOL    HW235611  10.641   6.832   3.158
11260SOL     OW35612  14.335   8.233  14.434
11260SOL    HW135613  14.300   8.165  14.377
11260SOL    HW235614  14.293   8.217  14.519
11261SOL     OW35615   7.823   1.147   3.016
11261SOL    HW135616   7.830   1.053   2.998
11261SOL    HW235617   7.900   1.185   2.972
11262SOL     OW35618  11.413   8.913   2.495
11262SOL    HW135619  11.507   8.931   2.497
11262SOL    HW235620  11.397   8.873   2.410
11263SOL     OW35621   5.806   2.780   5.595
11263SOL    HW135622   5.739   2.713   5.580
11263SOL    HW235623   5.889   2.736   5.575
11264SOL     OW35624   5.219  12.623  12.990
11264SOL    HW135625   5.205  12.650  12.899
11264SOL    HW235626   5.193  12.700  13.041
11265SOL     OW35627   9.773   8.469   9.613
11265SOL    HW135628   9.726   8.409   9.556
11265SOL    HW235629   9.734   8.454   9.700
11266SOL     OW35630   8.966  14.139  12.632
11266SOL    HW135631   9.054  14.173  12.611
11266SOL    HW235632   8.983  14.061  12.685
11267SOL     OW35633  13.276  12.145   3.385
11267SOL    HW135634  13.282  12.238   3.363
11267SOL    HW235635  13.244  12.143   3.475
11268SOL     OW35636   9.861   1.003   9.491
11268SOL    HW135637   9.781   1.005   9.543
11268SOL    HW235638   9.851   0.927   9.433
11269SOL     OW35639  11.031  11.759   2.280
11269SOL    HW135640  10.968  11.732   2.213
11269SOL    HW235641  11.046  11.852   2.263
11270SOL     OW35642  14.207   1.564   8.479
11270SOL    HW135643  14.176   1.482   8.516
11270SOL    HW235644  14.242   1.612   8.554
11271SOL     OW35645   7.830   2.199   0.352
11271SOL    HW135646   7.819   2.218   0.445
11271SOL    HW235647   7.859   2.281   0.314
11272SOL     OW35648  10.843   3.088   4.442
11272SOL    HW135649  10.849   3.000   4.479
11272SOL    HW235650  10.769   3.128   4.487
11273SOL     OW35651   7.538   1.436   0.415
11273SOL    HW135652   7.584   1.463   0.335
11273SOL    HW235653   7.452   1.405   0.384
11274SOL     OW35654  12.942  10.613   3.478
11274SOL    HW135655  13.015  10.553   3.465
11274SOL    HW235656  12.961  10.656   3.562
11275SOL     OW35657  10.080   4.416  10.590
11275SOL    HW135658  10.144   4.348  10.567
11275SOL    HW235659  10.006   4.367  10.628
11276SOL     OW35660  11.259  12.931   3.705
11276SOL    HW135661  11.263  12.998   3.773
11276SOL    HW235662  11.350  12.913   3.683
11277SOL     OW35663   0.738  13.125   2.679
11277SOL    HW135664   0.691  13.193   2.728
11277SOL    HW235665   0.827  13.160   2.669
11278SOL     OW35666  13.805   5.052   1.511
11278SOL    HW135667  13.894   5.033   1.481
11278SOL    HW235668  13.758   5.077   1.431
11279SOL     OW35669   4.123   5.311  10.043
11279SOL    HW135670   4.141   5.217  10.047
11279SOL    HW235671   4.165   5.347  10.121
11280SOL     OW35672  11.699   4.754  12.011
11280SOL    HW135673  11.607   4.753  11.983
11280SOL    HW235674  11.747   4.783  11.934
11281SOL     OW35675  13.898  10.438   4.580
11281SOL    HW135676  13.898  10.477   4.667
11281SOL    HW235677  13.981  10.391   4.574
11282SOL     OW35678   2.602   1.218   7.756
11282SOL    HW135679   2.684   1.210   7.804
11282SOL    HW235680   2.628   1.213   7.664
11283SOL     OW35681   8.790   2.922   9.107
11283SOL    HW135682   8.715   2.960   9.060
11283SOL    HW235683   8.812   2.987   9.174
11284SOL     OW35684  12.004  11.592   8.847
11284SOL    HW135685  11.915  11.612   8.876
11284SOL    HW235686  12.052  11.574   8.927
11285SOL     OW35687  10.813   6.151   5.761
11285SOL    HW135688  10.790   6.067   5.802
11285SOL    HW235689  10.865   6.196   5.828
11286SOL     OW35690   9.815  12.682  12.172
11286SOL    HW135691   9.832  12.588  12.168
11286SOL    HW235692   9.777  12.703  12.086
11287SOL     OW35693   8.385   4.079  12.970
11287SOL    HW135694   8.318   4.101  13.034
11287SOL    HW235695   8.459   4.048  13.022
11288SOL     OW35696  13.692  10.207  10.630
11288SOL    HW135697  13.605  10.226  10.595
11288SOL    HW235698  13.722  10.131  10.580
11289SOL     OW35699  10.564  10.029   5.076
11289SOL    HW135700  10.485   9.986   5.109
11289SOL    HW235701  10.535  10.118   5.055
11290SOL     OW35702   9.913   5.413  11.989
11290SOL    HW135703   9.994   5.419  11.939
11290SOL    HW235704   9.845   5.399  11.924
11291SOL     OW35705   5.843  12.477   7.641
11291SOL    HW135706   5.884  12.495   7.557
11291SOL    HW235707   5.912  12.436   7.693
11292SOL     OW35708   0.882   5.710  14.411
11292SOL    HW135709   0.854   5.765  14.337
11292SOL    HW235710   0.953   5.760  14.452
11293SOL     OW35711  10.868   0.998  12.007
11293SOL    HW135712  10.807   0.926  11.990
11293SOL    HW235713  10.930   0.962  12.070
11294SOL     OW35714   4.702   4.079   2.234
11294SOL    HW135715   4.792   4.107   2.217
11294SOL    HW235716   4.710   3.986   2.258
11295SOL     OW35717  11.889  10.693   4.843
11295SOL    HW135718  11.807  10.672   4.888
11295SOL    HW235719  11.895  10.788   4.848
11296SOL     OW35720   2.144  13.079   1.824
11296SOL    HW135721   2.050  13.096   1.837
11296SOL    HW235722   2.155  12.987   1.846
11297SOL     OW35723  10.438  12.686   7.065
11297SOL    HW135724  10.370  12.636   7.109
11297SOL    HW235725  10.461  12.756   7.126
11298SOL     OW35726  10.743   9.297  11.054
11298SOL    HW135727  10.811   9.341  11.104
11298SOL    HW235728  10.719   9.359  10.986
11299SOL     OW35729   7.124  14.846   5.573
11299SOL    HW135730   7.064  14.794   5.627
11299SOL    HW235731   7.108  14.817   5.484
11300SOL     OW35732   8.157   7.003   2.617
11300SOL    HW135733   8.247   7.022   2.642
11300SOL    HW235734   8.104   7.066   2.667
11301SOL     OW35735   7.478   3.731   3.602
11301SOL    HW135736   7.526   3.713   3.521
11301SOL    HW235737   7.513   3.667   3.665
11302SOL     OW35738   3.563   7.557   6.875
11302SOL    HW135739   3.559   7.653   6.882
11302SOL    HW235740   3.644   7.533   6.921
11303SOL     OW35741  12.803   7.746  12.673
11303SOL    HW135742  12.867   7.755  12.744
11303SOL    HW235743  12.852   7.771  12.594
11304SOL     OW35744   2.343   5.051   7.223
11304SOL    HW135745   2.369   5.069   7.313
11304SOL    HW235746   2.424   5.024   7.179
11305SOL     OW35747  10.876   2.618   4.635
11305SOL    HW135748  10.924   2.546   4.676
11305SOL    HW235749  10.935   2.693   4.641
11306SOL     OW35750   9.669  13.977  14.797
11306SOL    HW135751   9.604  13.947  14.733
11306SOL    HW235752   9.620  13.981   0.001
11307SOL     OW35753  10.605   6.933  10.170
11307SOL    HW135754  10.527   6.883  10.149
11307SOL    HW235755  10.575   7.002  10.229
11308SOL     OW35756  11.272  13.008  12.117
11308SOL    HW135757  11.324  13.089  12.119
11308SOL    HW235758  11.181  13.037  12.119
11309SOL     OW35759  13.401  12.645  13.705
11309SOL    HW135760  13.404  12.592  13.784
11309SOL    HW235761  13.329  12.607  13.654
11310SOL     OW35762   9.136  10.225  13.719
11310SOL    HW135763   9.231  10.222  13.722
11310SOL    HW235764   9.115  10.319  13.718
11311SOL     OW35765   6.257   7.423  12.136
11311SOL    HW135766   6.307   7.352  12.096
11311SOL    HW235767   6.319   7.464  12.196
11312SOL     OW35768   4.368   5.242   2.922
11312SOL    HW135769   4.384   5.215   3.013
11312SOL    HW235770   4.426   5.185   2.871
11313SOL     OW35771   1.288  11.844   2.624
11313SOL    HW135772   1.234  11.911   2.582
11313SOL    HW235773   1.259  11.762   2.585
11314SOL     OW35774   5.508   5.096   9.522
11314SOL    HW135775   5.467   5.152   9.456
11314SOL    HW235776   5.483   5.136   9.606
11315SOL     OW35777   2.217  14.856   4.574
11315SOL    HW135778   2.133  14.859   4.529
11315SOL    HW235779   2.278  14.817   4.510
11316SOL     OW35780   7.824  13.937   7.244
11316SOL    HW135781   7.826  14.024   7.205
11316SOL    HW235782   7.863  13.947   7.330
11317SOL     OW35783   1.376   8.491   8.067
11317SOL    HW135784   1.369   8.409   8.116
11317SOL    HW235785   1.394   8.463   7.977
11318SOL     OW35786   3.147   6.474   4.413
11318SOL    HW135787   3.199   6.514   4.343
11318SOL    HW235788   3.168   6.525   4.491
11319SOL     OW35789  11.568  13.869   3.389
11319SOL    HW135790  11.540  13.946   3.439
11319SOL    HW235791  11.517  13.797   3.426
11320SOL     OW35792   8.915   1.366   5.762
11320SOL    HW135793   8.887   1.290   5.813
11320SOL    HW235794   8.836   1.420   5.754
11321SOL     OW35795   9.631   9.123  13.917
11321SOL    HW135796   9.543   9.158  13.928
11321SOL    HW235797   9.621   9.052  13.854
11322SOL     OW35798   7.583  10.492   3.847
11322SOL    HW135799   7.499  10.447   3.847
11322SOL    HW235800   7.636  10.443   3.784
11323SOL     OW35801  10.331  12.886  14.753
11323SOL    HW135802  10.410  12.940  14.748
11323SOL    HW235803  10.265  12.934  14.703
11324SOL     OW35804   6.090   6.036   5.590
11324SOL    HW135805   6.165   6.027   5.531
11324SOL    HW235806   6.129   6.051   5.676
11325SOL     OW35807   9.725   9.060   1.564
11325SOL    HW135808   9.726   8.972   1.527
11325SOL    HW235809   9.775   9.053   1.645
11326SOL     OW35810   9.826   1.042   1.943
11326SOL    HW135811   9.752   1.089   1.906
11326SOL    HW235812   9.880   1.109   1.983
11327SOL     OW35813   2.898   9.594   7.279
11327SOL    HW135814   2.841   9.596   7.356
11327SOL    HW235815   2.948   9.513   7.289
11328SOL     OW35816   3.386  12.937   2.632
11328SOL    HW135817   3.372  13.013   2.690
11328SOL    HW235818   3.479  12.941   2.609
11329SOL     OW35819  14.310   9.429  12.694
11329SOL    HW135820  14.309   9.397  12.604
11329SOL    HW235821  14.395   9.399  12.729
11330SOL     OW35822   4.044   3.679   2.032
11330SOL    HW135823   4.078   3.678   1.943
11330SOL    HW235824   4.121   3.675   2.088
11331SOL     OW35825   0.806  10.371  11.308
11331SOL    HW135826   0.784  10.278  11.305
11331SOL    HW235827   0.736  10.411  11.360
11332SOL     OW35828   0.287   7.096  14.159
11332SOL    HW135829   0.219   7.150  14.199
11332SOL    HW235830   0.352   7.159  14.129
11333SOL     OW35831   8.128   7.018   1.680
11333SOL    HW135832   8.043   7.054   1.706
11333SOL    HW235833   8.125   6.927   1.709
11334SOL     OW35834   1.769   5.376  12.463
11334SOL    HW135835   1.742   5.400  12.552
11334SOL    HW235836   1.722   5.296  12.444
11335SOL     OW35837   0.038   4.883  11.631
11335SOL    HW135838   0.089   4.818  11.584
11335SOL    HW235839  14.848   4.834  11.676
11336SOL     OW35840  12.013   7.883   6.088
11336SOL    HW135841  12.092   7.872   6.141
11336SOL    HW235842  12.041   7.865   5.998
11337SOL     OW35843   4.207   7.049  10.084
11337SOL    HW135844   4.283   7.107  10.077
11337SOL    HW235845   4.219   6.986  10.013
11338SOL     OW35846  14.670  12.271   7.605
11338SOL    HW135847  14.680  12.363   7.630
11338SOL    HW235848  14.614  12.233   7.673
11339SOL     OW35849   0.421   3.720   2.811
11339SOL    HW135850   0.333   3.688   2.831
11339SOL    HW235851   0.410   3.815   2.805
11340SOL     OW35852   1.377   3.090   3.476
11340SOL    HW135853   1.322   3.025   3.431
11340SOL    HW235854   1.365   3.170   3.426
11341SOL     OW35855   1.611  13.033  14.456
11341SOL    HW135856   1.544  13.098  14.434
11341SOL    HW235857   1.640  12.999  14.371
11342SOL     OW35858   6.133  12.966   8.727
11342SOL    HW135859   6.059  13.019   8.755
11342SOL    HW235860   6.130  12.889   8.785
11343SOL     OW35861   7.195   8.361   5.334
11343SOL    HW135862   7.140   8.288   5.362
11343SOL    HW235863   7.283   8.338   5.365
11344SOL     OW35864   4.902   7.337  10.205
11344SOL    HW135865   4.997   7.339  10.190
11344SOL    HW235866   4.882   7.424  10.240
11345SOL     OW35867  12.308  11.424  10.846
11345SOL    HW135868  12.314  11.365  10.771
11345SOL    HW235869  12.394  11.467  10.849
11346SOL     OW35870   0.298   5.954   8.706
11346SOL    HW135871   0.244   6.002   8.643
11346SOL    HW235872   0.317   5.871   8.664
11347SOL     OW35873   4.572   3.810   0.855
11347SOL    HW135874   4.590   3.821   0.761
11347SOL    HW235875   4.654   3.834   0.898
11348SOL     OW35876   7.823  14.877  14.836
11348SOL    HW135877   7.797  14.788  14.812
11348SOL    HW235878   7.860   0.035  14.756
11349SOL     OW35879  10.174  13.900   5.708
11349SOL    HW135880  10.111  13.859   5.766
11349SOL    HW235881  10.139  13.988   5.693
11350SOL     OW35882   9.686   7.010   2.112
11350SOL    HW135883   9.742   6.933   2.098
11350SOL    HW235884   9.672   7.045   2.024
11351SOL     OW35885   5.740   1.618   0.918
11351SOL    HW135886   5.824   1.622   0.872
11351SOL    HW235887   5.763   1.627   1.010
11352SOL     OW35888  13.836   6.894  12.306
11352SOL    HW135889  13.849   6.868  12.397
11352SOL    HW235890  13.873   6.823  12.254
11353SOL     OW35891   8.345   2.514   6.568
11353SOL    HW135892   8.361   2.420   6.571
11353SOL    HW235893   8.391   2.548   6.645
11354SOL     OW35894   3.993   5.954   2.340
11354SOL    HW135895   3.953   5.909   2.266
11354SOL    HW235896   4.077   5.910   2.352
11355SOL     OW35897  13.844  11.466   1.761
11355SOL    HW135898  13.772  11.493   1.818
11355SOL    HW235899  13.830  11.372   1.747
11356SOL     OW35900  14.481   3.213  13.654
11356SOL    HW135901  14.480   3.252  13.741
11356SOL    HW235902  14.405   3.155  13.652
11357SOL     OW35903   7.839   1.284   7.892
11357SOL    HW135904   7.828   1.377   7.908
11357SOL    HW235905   7.933   1.274   7.873
11358SOL     OW35906  10.482  11.216  10.768
11358SOL    HW135907  10.471  11.135  10.819
11358SOL    HW235908  10.431  11.201  10.689
11359SOL     OW35909   6.601   0.996   0.330
11359SOL    HW135910   6.541   1.066   0.357
11359SOL    HW235911   6.654   0.979   0.408
11360SOL     OW35912  14.570   7.047   6.107
11360SOL    HW135913  14.533   6.990   6.175
11360SOL    HW235914  14.659   7.066   6.137
11361SOL     OW35915   4.044  10.242   9.022
11361SOL    HW135916   4.021  10.332   9.047
11361SOL    HW235917   4.138  10.235   9.043
11362SOL     OW35918   3.456   3.307  12.511
11362SOL    HW135919   3.362   3.295  12.526
11362SOL    HW235920   3.496   3.226  12.540
11363SOL     OW35921   6.851   2.842   8.533
11363SOL    HW135922   6.922   2.875   8.478
11363SOL    HW235923   6.789   2.802   8.471
11364SOL     OW35924  14.632  10.253  12.461
11364SOL    HW135925  14.667  10.198  12.391
11364SOL    HW235926  14.537  10.241  12.456
11365SOL     OW35927   8.042   0.618   5.603
11365SOL    HW135928   7.990   0.698   5.590
11365SOL    HW235929   7.979   0.553   5.632
11366SOL     OW35930   1.809   8.494  13.986
11366SOL    HW135931   1.899   8.515  14.013
11366SOL    HW235932   1.792   8.409  14.025
11367SOL     OW35933  10.669   2.703  13.539
11367SOL    HW135934  10.677   2.684  13.632
11367SOL    HW235935  10.580   2.737  13.529
11368SOL     OW35936   9.717  13.814  14.480
11368SOL    HW135937   9.684  13.729  14.449
11368SOL    HW235938   9.680  13.877  14.419
11369SOL     OW35939   6.127  11.911  12.734
11369SOL    HW135940   6.139  11.818  12.715
11369SOL    HW235941   6.044  11.934  12.691
11370SOL     OW35942  13.747   1.861  14.202
11370SOL    HW135943  13.755   1.785  14.260
11370SOL    HW235944  13.837   1.882  14.177
11371SOL     OW35945   6.437   8.997  11.925
11371SOL    HW135946   6.411   9.089  11.915
11371SOL    HW235947   6.373   8.961  11.986
11372SOL     OW35948   7.499   1.907  12.887
11372SOL    HW135949   7.569   1.842  12.883
11372SOL    HW235950   7.453   1.898  12.804
11373SOL     OW35951  13.190   4.232   9.195
11373SOL    HW135952  13.118   4.259   9.252
11373SOL    HW235953  13.264   4.287   9.222
11374SOL     OW35954   5.098   0.929   3.194
11374SOL    HW135955   5.088   1.024   3.189
11374SOL    HW235956   5.168   0.916   3.257
11375SOL     OW35957   2.058   7.384   1.267
11375SOL    HW135958   2.023   7.307   1.222
11375SOL    HW235959   2.133   7.411   1.214
11376SOL     OW35960   8.805   4.592  12.190
11376SOL    HW135961   8.715   4.573  12.214
11376SOL    HW235962   8.842   4.507  12.167
11377SOL     OW35963   0.867   7.897  14.576
11377SOL    HW135964   0.925   7.926  14.647
11377SOL    HW235965   0.893   7.806  14.560
11378SOL     OW35966  12.985  13.214  14.057
11378SOL    HW135967  12.971  13.182  13.968
11378SOL    HW235968  12.941  13.299  14.059
11379SOL     OW35969  14.636   0.276  13.814
11379SOL    HW135970  14.720   0.295  13.772
11379SOL    HW235971  14.654   0.199  13.868
11380SOL     OW35972   4.309   1.389   4.763
11380SOL    HW135973   4.269   1.476   4.773
11380SOL    HW235974   4.348   1.390   4.676
11381SOL     OW35975   6.131   6.236   9.053
11381SOL    HW135976   6.049   6.268   9.090
11381SOL    HW235977   6.122   6.252   8.959
11382SOL     OW35978  12.735  12.013  14.425
11382SOL    HW135979  12.670  11.984  14.490
11382SOL    HW235980  12.684  12.061  14.360
11383SOL     OW35981   8.907  13.943   7.022
11383SOL    HW135982   8.993  13.940   7.064
11383SOL    HW235983   8.849  13.900   7.085
11384SOL     OW35984   2.355  13.942  13.860
11384SOL    HW135985   2.355  13.980  13.948
11384SOL    HW235986   2.281  13.982  13.816
11385SOL     OW35987   8.541  14.438   6.230
11385SOL    HW135988   8.526  14.520   6.184
11385SOL    HW235989   8.574  14.378   6.162
11386SOL     OW35990   0.464   4.283  12.079
11386SOL    HW135991   0.404   4.217  12.043
11386SOL    HW235992   0.406   4.344  12.125
11387SOL     OW35993   6.969   0.863  11.198
11387SOL    HW135994   7.045   0.814  11.226
11387SOL    HW235995   6.986   0.884  11.106
11388SOL     OW35996   2.804   5.662   2.706
11388SOL    HW135997   2.749   5.728   2.748
11388SOL    HW235998   2.829   5.602   2.776
11389SOL     OW35999  12.819  12.557   7.123
11389SOL    HW136000  12.771  12.474   7.133
11389SOL    HW236001  12.904  12.531   7.088
11390SOL     OW36002   4.907   5.162   9.106
11390SOL    HW136003   4.841   5.096   9.124
11390SOL    HW236004   4.863   5.245   9.127
11391SOL     OW36005  11.110  14.582   5.859
11391SOL    HW136006  11.019  14.557   5.841
11391SOL    HW236007  11.103  14.657   5.917
11392SOL     OW36008   4.530   5.020   5.703
11392SOL    HW136009   4.500   4.947   5.649
11392SOL    HW236010   4.507   5.098   5.653
11393SOL     OW36011   1.408   9.919  14.600
11393SOL    HW136012   1.321   9.900  14.633
11393SOL    HW236013   1.468   9.877  14.662
11394SOL     OW36014   2.096  14.802  13.005
11394SOL    HW136015   2.187  14.832  13.001
11394SOL    HW236016   2.102  14.711  13.033
11395SOL     OW36017  12.765   2.796   8.245
11395SOL    HW136018  12.680   2.817   8.283
11395SOL    HW236019  12.806   2.738   8.309
11396SOL     OW36020   2.031  12.555   1.071
11396SOL    HW136021   2.035  12.618   1.143
11396SOL    HW236022   2.116  12.511   1.073
11397SOL     OW36023  12.441   9.926   4.797
11397SOL    HW136024  12.349   9.950   4.794
11397SOL    HW236025  12.449   9.873   4.877
11398SOL     OW36026   7.764  11.425  14.082
11398SOL    HW136027   7.786  11.517  14.070
11398SOL    HW236028   7.703  11.405  14.011
11399SOL     OW36029   1.202   5.350  11.999
11399SOL    HW136030   1.125   5.362  12.054
11399SOL    HW236031   1.259   5.423  12.022
11400SOL     OW36032   2.032  11.553  12.708
11400SOL    HW136033   1.969  11.489  12.673
11400SOL    HW236034   2.084  11.579  12.632
11401SOL     OW36035  11.782   8.065   2.418
11401SOL    HW136036  11.724   8.134   2.450
11401SOL    HW236037  11.722   7.993   2.395
11402SOL     OW36038  13.679   1.125   4.875
11402SOL    HW136039  13.725   1.182   4.936
11402SOL    HW236040  13.741   1.053   4.858
11403SOL     OW36041  14.290   1.990  14.710
11403SOL    HW136042  14.200   1.963  14.724
11403SOL    HW236043  14.340   1.908  14.704
11404SOL     OW36044   6.748   9.873   3.503
11404SOL    HW136045   6.661   9.853   3.468
11404SOL    HW236046   6.770   9.796   3.556
11405SOL     OW36047   1.547   5.983   9.586
11405SOL    HW136048   1.518   6.041   9.516
11405SOL    HW236049   1.605   5.920   9.542
11406SOL     OW36050   0.621   5.129   9.305
11406SOL    HW136051   0.602   5.176   9.386
11406SOL    HW236052   0.545   5.072   9.292
11407SOL     OW36053   0.129   6.550  13.128
11407SOL    HW136054   0.056   6.605  13.154
11407SOL    HW236055   0.164   6.591  13.048
11408SOL     OW36056   4.910  12.819   7.587
11408SOL    HW136057   4.988  12.788   7.634
11408SOL    HW236058   4.941  12.895   7.538
11409SOL     OW36059  13.445   3.338   4.992
11409SOL    HW136060  13.359   3.341   4.950
11409SOL    HW236061  13.507   3.321   4.921
11410SOL     OW36062   4.852   9.433   9.715
11410SOL    HW136063   4.869   9.446   9.808
11410SOL    HW236064   4.797   9.507   9.690
11411SOL     OW36065  14.272   8.235  10.457
11411SOL    HW136066  14.332   8.161  10.463
11411SOL    HW236067  14.277   8.262  10.365
11412SOL     OW36068   4.841   6.500   9.790
11412SOL    HW136069   4.847   6.425   9.849
11412SOL    HW236070   4.905   6.483   9.722
11413SOL     OW36071   6.971  14.325  12.586
11413SOL    HW136072   7.016  14.277  12.656
11413SOL    HW236073   7.042  14.351  12.527
11414SOL     OW36074   4.514   6.657  14.565
11414SOL    HW136075   4.561   6.593  14.512
11414SOL    HW236076   4.580   6.723  14.587
11415SOL     OW36077  12.360  10.640   8.046
11415SOL    HW136078  12.411  10.631   8.127
11415SOL    HW236079  12.425  10.657   7.978
11416SOL     OW36080  10.360   1.949  14.734
11416SOL    HW136081  10.303   1.873  14.728
11416SOL    HW236082  10.306   2.017  14.774
11417SOL     OW36083   9.547   3.450   7.270
11417SOL    HW136084   9.535   3.418   7.359
11417SOL    HW236085   9.612   3.520   7.278
11418SOL     OW36086   8.833   1.316   1.244
11418SOL    HW136087   8.889   1.392   1.263
11418SOL    HW236088   8.797   1.290   1.328
11419SOL     OW36089  10.556   8.859   2.313
11419SOL    HW136090  10.637   8.842   2.361
11419SOL    HW236091  10.551   8.787   2.250
11420SOL     OW36092   7.804  12.318   7.976
11420SOL    HW136093   7.720  12.333   8.020
11420SOL    HW236094   7.787  12.344   7.885
11421SOL     OW36095   5.929   1.157   9.231
11421SOL    HW136096   6.000   1.142   9.169
11421SOL    HW236097   5.973   1.173   9.315
11422SOL     OW36098  11.473   1.789   9.115
11422SOL    HW136099  11.382   1.780   9.144
11422SOL    HW236100  11.502   1.872   9.153
11423SOL     OW36101  13.919  14.227   2.197
11423SOL    HW136102  13.871  14.144   2.199
11423SOL    HW236103  13.998  14.210   2.247
11424SOL     OW36104   7.335  11.362   3.837
11424SOL    HW136105   7.401  11.345   3.770
11424SOL    HW236106   7.373  11.325   3.917
11425SOL     OW36107   8.131  13.167  10.862
11425SOL    HW136108   8.050  13.200  10.823
11425SOL    HW236109   8.196  13.234  10.843
11426SOL     OW36110   1.174   1.230  13.789
11426SOL    HW136111   1.222   1.164  13.841
11426SOL    HW236112   1.181   1.310  13.840
11427SOL     OW36113  14.222   0.399   9.214
11427SOL    HW136114  14.189   0.465   9.153
11427SOL    HW236115  14.162   0.326   9.206
11428SOL     OW36116   7.830   8.670  14.515
11428SOL    HW136117   7.909   8.623  14.489
11428SOL    HW236118   7.764   8.645  14.450
11429SOL     OW36119   7.409  11.191   5.871
11429SOL    HW136120   7.470  11.214   5.801
11429SOL    HW236121   7.396  11.097   5.863
11430SOL     OW36122  11.048   7.352   9.424
11430SOL    HW136123  10.965   7.308   9.403
11430SOL    HW236124  11.060   7.337   9.518
11431SOL     OW36125   3.242   0.350   7.475
11431SOL    HW136126   3.161   0.327   7.521
11431SOL    HW236127   3.310   0.346   7.542
11432SOL     OW36128   8.171   2.029   6.588
11432SOL    HW136129   8.261   2.008   6.564
11432SOL    HW236130   8.133   1.945   6.614
11433SOL     OW36131   9.820   7.965  12.570
11433SOL    HW136132   9.803   8.040  12.513
11433SOL    HW236133   9.740   7.913  12.565
11434SOL     OW36134   0.827  12.305   1.109
11434SOL    HW136135   0.799  12.246   1.038
11434SOL    HW236136   0.891  12.363   1.068
11435SOL     OW36137  11.398  12.635   1.246
11435SOL    HW136138  11.315  12.666   1.281
11435SOL    HW236139  11.385  12.540   1.234
11436SOL     OW36140   0.162  12.286   2.550
11436SOL    HW136141   0.144  12.205   2.598
11436SOL    HW236142   0.235  12.326   2.597
11437SOL     OW36143   3.937   1.897   1.622
11437SOL    HW136144   4.006   1.900   1.688
11437SOL    HW236145   3.861   1.864   1.669
11438SOL     OW36146   5.026   3.647   0.281
11438SOL    HW136147   5.085   3.635   0.206
11438SOL    HW236148   5.053   3.579   0.343
11439SOL     OW36149   4.738   3.530   6.586
11439SOL    HW136150   4.768   3.446   6.552
11439SOL    HW236151   4.712   3.511   6.676
11440SOL     OW36152   6.628  14.372   0.575
11440SOL    HW136153   6.561  14.342   0.636
11440SOL    HW236154   6.701  14.311   0.588
11441SOL     OW36155   8.389   8.246   3.156
11441SOL    HW136156   8.458   8.208   3.210
11441SOL    HW236157   8.308   8.215   3.195
11442SOL     OW36158  10.756   5.764  11.799
11442SOL    HW136159  10.845   5.730  11.791
11442SOL    HW236160  10.765   5.858  11.780
11443SOL     OW36161  12.695   9.938   8.100
11443SOL    HW136162  12.733   9.957   8.186
11443SOL    HW236163  12.630   9.871   8.117
11444SOL     OW36164   6.616   2.436   6.295
11444SOL    HW136165   6.642   2.359   6.245
11444SOL    HW236166   6.604   2.404   6.385
11445SOL     OW36167  10.094  11.434  11.666
11445SOL    HW136168  10.132  11.351  11.636
11445SOL    HW236169  10.016  11.407  11.715
11446SOL     OW36170   6.156   0.976  13.847
11446SOL    HW136171   6.251   0.963  13.853
11446SOL    HW236172   6.145   1.039  13.776
11447SOL     OW36173   2.406   6.633   2.518
11447SOL    HW136174   2.498   6.649   2.541
11447SOL    HW236175   2.381   6.556   2.569
11448SOL     OW36176   2.118  14.365  13.671
11448SOL    HW136177   2.204  14.406  13.664
11448SOL    HW236178   2.121  14.318  13.755
11449SOL     OW36179   7.768   2.398   3.729
11449SOL    HW136180   7.861   2.417   3.742
11449SOL    HW236181   7.759   2.387   3.634
11450SOL     OW36182   8.228   8.156   2.375
11450SOL    HW136183   8.238   8.116   2.288
11450SOL    HW236184   8.247   8.085   2.436
11451SOL     OW36185   1.618  14.460  10.319
11451SOL    HW136186   1.582  14.375  10.295
11451SOL    HW236187   1.622  14.509  10.237
11452SOL     OW36188   4.482   1.393   6.053
11452SOL    HW136189   4.574   1.370   6.067
11452SOL    HW236190   4.469   1.472   6.105
11453SOL     OW36191  14.550  10.244   6.106
11453SOL    HW136192  14.536  10.307   6.177
11453SOL    HW236193  14.642  10.257   6.081
11454SOL     OW36194  11.286  14.644  12.399
11454SOL    HW136195  11.226  14.570  12.389
11454SOL    HW236196  11.319  14.638  12.489
11455SOL     OW36197  14.637   5.223  13.389
11455SOL    HW136198  14.642   5.318  13.395
11455SOL    HW236199  14.691   5.201  13.313
11456SOL     OW36200   9.481  10.252   6.438
11456SOL    HW136201   9.390  10.257   6.465
11456SOL    HW236202   9.486  10.175   6.382
11457SOL     OW36203   8.706   2.867   0.213
11457SOL    HW136204   8.770   2.796   0.207
11457SOL    HW236205   8.689   2.876   0.307
11458SOL     OW36206  13.135  14.034   6.793
11458SOL    HW136207  13.141  13.978   6.716
11458SOL    HW236208  13.215  14.015   6.843
11459SOL     OW36209  12.912   7.409   4.017
11459SOL    HW136210  12.859   7.396   3.938
11459SOL    HW236211  12.947   7.498   4.008
11460SOL     OW36212  14.032   2.732  12.096
11460SOL    HW136213  14.054   2.737  12.189
11460SOL    HW236214  14.116   2.743  12.051
11461SOL     OW36215  13.605  10.488  11.553
11461SOL    HW136216  13.611  10.404  11.599
11461SOL    HW236217  13.696  10.518  11.548
11462SOL     OW36218   7.367   5.533   7.685
11462SOL    HW136219   7.405   5.615   7.718
11462SOL    HW236220   7.441   5.472   7.684
11463SOL     OW36221  13.996   4.912   8.524
11463SOL    HW136222  13.940   4.983   8.491
11463SOL    HW236223  14.003   4.851   8.451
11464SOL     OW36224   9.402   2.418   5.469
11464SOL    HW136225   9.396   2.513   5.467
11464SOL    HW236226   9.376   2.394   5.558
11465SOL     OW36227   4.105   9.987   1.276
11465SOL    HW136228   4.036   9.973   1.340
11465SOL    HW236229   4.101   9.909   1.219
11466SOL     OW36230   6.075   7.789   4.556
11466SOL    HW136231   6.091   7.730   4.629
11466SOL    HW236232   6.028   7.863   4.594
11467SOL     OW36233   5.332  11.868   4.289
11467SOL    HW136234   5.340  11.957   4.255
11467SOL    HW236235   5.348  11.811   4.214
11468SOL     OW36236  13.546   1.173  10.190
11468SOL    HW136237  13.534   1.241  10.257
11468SOL    HW236238  13.550   1.221  10.108
11469SOL     OW36239  11.252   3.512   8.226
11469SOL    HW136240  11.160   3.502   8.254
11469SOL    HW236241  11.301   3.457   8.287
11470SOL     OW36242   8.474   8.620   1.552
11470SOL    HW136243   8.452   8.712   1.570
11470SOL    HW236244   8.565   8.622   1.524
11471SOL     OW36245   0.489   8.916  10.252
11471SOL    HW136246   0.532   8.961  10.325
11471SOL    HW236247   0.551   8.926  10.179
11472SOL     OW36248  12.956   4.723   2.351
11472SOL    HW136249  12.914   4.809   2.357
11472SOL    HW236250  12.956   4.691   2.441
11473SOL     OW36251   3.927  11.093   5.178
11473SOL    HW136252   3.992  11.156   5.209
11473SOL    HW236253   3.857  11.148   5.140
11474SOL     OW36254   0.590  11.786   3.653
11474SOL    HW136255   0.680  11.814   3.665
11474SOL    HW236256   0.546  11.809   3.735
11475SOL     OW36257  10.334   1.915   2.652
11475SOL    HW136258  10.247   1.902   2.690
11475SOL    HW236259  10.317   1.964   2.572
11476SOL     OW36260   5.927   9.734   7.812
11476SOL    HW136261   5.872   9.656   7.815
11476SOL    HW236262   5.971   9.729   7.727
11477SOL     OW36263   0.988  11.856  12.121
11477SOL    HW136264   1.083  11.843  12.116
11477SOL    HW236265   0.977  11.951  12.125
11478SOL     OW36266   2.166   6.694   4.940
11478SOL    HW136267   2.170   6.606   4.903
11478SOL    HW236268   2.122   6.746   4.874
11479SOL     OW36269  11.960   5.156  12.886
11479SOL    HW136270  11.889   5.174  12.824
11479SOL    HW236271  11.975   5.062  12.879
11480SOL     OW36272   2.124  10.025   9.045
11480SOL    HW136273   2.180   9.967   8.993
11480SOL    HW236274   2.037   9.985   9.041
11481SOL     OW36275  14.284   5.556  14.729
11481SOL    HW136276  14.304   5.612  14.804
11481SOL    HW236277  14.233   5.484  14.766
11482SOL     OW36278  11.986   7.897   9.321
11482SOL    HW136279  12.006   7.818   9.370
11482SOL    HW236280  12.066   7.917   9.273
11483SOL     OW36281  11.070   2.091   0.375
11483SOL    HW136282  11.134   2.137   0.428
11483SOL    HW236283  11.105   2.093   0.286
11484SOL     OW36284  13.785  13.642   3.413
11484SOL    HW136285  13.865  13.683   3.446
11484SOL    HW236286  13.756  13.586   3.484
11485SOL     OW36287   4.967   5.475   2.958
11485SOL    HW136288   5.032   5.478   3.029
11485SOL    HW236289   4.887   5.505   2.999
11486SOL     OW36290   1.445  10.224   9.898
11486SOL    HW136291   1.447  10.319   9.889
11486SOL    HW236292   1.429  10.209   9.991
11487SOL     OW36293  13.988  10.791  11.162
11487SOL    HW136294  13.904  10.774  11.117
11487SOL    HW236295  14.042  10.833  11.095
11488SOL     OW36296   0.967   1.830   2.099
11488SOL    HW136297   0.912   1.755   2.123
11488SOL    HW236298   1.054   1.805   2.129
11489SOL     OW36299   6.716   0.217  13.194
11489SOL    HW136300   6.649   0.286  13.197
11489SOL    HW236301   6.684   0.150  13.253
11490SOL     OW36302   4.789   9.348   5.202
11490SOL    HW136303   4.867   9.310   5.240
11490SOL    HW236304   4.727   9.353   5.275
11491SOL     OW36305   8.626   4.524  10.337
11491SOL    HW136306   8.627   4.574  10.256
11491SOL    HW236307   8.716   4.494  10.349
11492SOL     OW36308   4.961   8.229   1.208
11492SOL    HW136309   5.038   8.177   1.185
11492SOL    HW236310   4.923   8.255   1.124
11493SOL     OW36311   8.808   7.023   7.064
11493SOL    HW136312   8.725   7.071   7.058
11493SOL    HW236313   8.864   7.064   6.999
11494SOL     OW36314   8.448  10.633  14.731
11494SOL    HW136315   8.357  10.647  14.703
11494SOL    HW236316   8.481  10.566  14.672
11495SOL     OW36317   7.478  12.941   9.887
11495SOL    HW136318   7.450  12.994   9.812
11495SOL    HW236319   7.427  12.860   9.879
11496SOL     OW36320   4.236   9.711  12.429
11496SOL    HW136321   4.239   9.766  12.351
11496SOL    HW236322   4.228   9.622  12.395
11497SOL     OW36323  10.657   0.212  12.808
11497SOL    HW136324  10.672   0.118  12.802
11497SOL    HW236325  10.678   0.245  12.721
11498SOL     OW36326   2.587   8.509   2.816
11498SOL    HW136327   2.526   8.439   2.838
11498SOL    HW236328   2.670   8.483   2.857
11499SOL     OW36329  10.273   9.675   1.210
11499SOL    HW136330  10.199   9.710   1.259
11499SOL    HW236331  10.281   9.733   1.134
11500SOL     OW36332   2.045   0.657   4.945
11500SOL    HW136333   2.097   0.687   4.871
11500SOL    HW236334   2.096   0.585   4.983
11501SOL     OW36335   9.589   9.868  10.473
11501SOL    HW136336   9.495   9.882  10.471
11501SOL    HW236337   9.608   9.820  10.392
11502SOL     OW36338   8.276  10.207   0.438
11502SOL    HW136339   8.268  10.143   0.368
11502SOL    HW236340   8.371  10.216   0.451
11503SOL     OW36341  10.926   7.479   0.372
11503SOL    HW136342  10.859   7.477   0.440
11503SOL    HW236343  10.981   7.402   0.390
11504SOL     OW36344  11.568  10.120   9.507
11504SOL    HW136345  11.658  10.112   9.476
11504SOL    HW236346  11.514  10.099   9.431
11505SOL     OW36347   7.104  11.331   0.448
11505SOL    HW136348   7.136  11.314   0.537
11505SOL    HW236349   7.137  11.257   0.397
11506SOL     OW36350  12.246  12.012   1.321
11506SOL    HW136351  12.274  12.094   1.279
11506SOL    HW236352  12.300  11.944   1.280
11507SOL     OW36353   5.897  13.948   6.280
11507SOL    HW136354   5.874  14.038   6.255
11507SOL    HW236355   5.813  13.906   6.296
11508SOL     OW36356  11.563  14.401  14.522
11508SOL    HW136357  11.545  14.319  14.477
11508SOL    HW236358  11.622  14.376  14.594
11509SOL     OW36359   5.983   3.424   3.960
11509SOL    HW136360   5.945   3.511   3.946
11509SOL    HW236361   5.961   3.402   4.050
11510SOL     OW36362   1.002  12.447  13.034
11510SOL    HW136363   1.097  12.441  13.020
11510SOL    HW236364   0.980  12.365  13.079
11511SOL     OW36365   3.729   0.872  11.378
11511SOL    HW136366   3.638   0.864  11.407
11511SOL    HW236367   3.757   0.958  11.410
11512SOL     OW36368  13.753   2.342   6.265
11512SOL    HW136369  13.723   2.379   6.182
11512SOL    HW236370  13.706   2.258   6.272
11513SOL     OW36371  10.427  13.183   2.853
11513SOL    HW136372  10.522  13.195   2.858
11513SOL    HW236373  10.399  13.242   2.784
11514SOL     OW36374  10.205  12.619   3.105
11514SOL    HW136375  10.178  12.602   3.015
11514SOL    HW236376  10.286  12.570   3.117
11515SOL     OW36377  11.126   5.233  14.206
11515SOL    HW136378  11.077   5.152  14.222
11515SOL    HW236379  11.063   5.290  14.160
11516SOL     OW36380   8.205   6.451  11.791
11516SOL    HW136381   8.159   6.401  11.724
11516SOL    HW236382   8.284   6.400  11.809
11517SOL     OW36383  10.498   3.558   7.443
11517SOL    HW136384  10.463   3.643   7.472
11517SOL    HW236385  10.421   3.506   7.422
11518SOL     OW36386   6.454  13.281   1.009
11518SOL    HW136387   6.515  13.235   0.953
11518SOL    HW236388   6.498  13.363   1.030
11519SOL     OW36389  12.589   5.561  11.300
11519SOL    HW136390  12.505   5.561  11.254
11519SOL    HW236391  12.610   5.654  11.309
11520SOL     OW36392   5.115   3.892  14.721
11520SOL    HW136393   5.157   3.968  14.762
11520SOL    HW236394   5.062   3.853  14.791
11521SOL     OW36395  10.003  13.805   5.417
11521SOL    HW136396   9.932  13.817   5.480
11521SOL    HW236397  10.083  13.820   5.468
11522SOL     OW36398   2.389   7.337  10.768
11522SOL    HW136399   2.439   7.417  10.757
11522SOL    HW236400   2.389   7.320  10.862
11523SOL     OW36401  11.031   2.614   1.485
11523SOL    HW136402  11.078   2.578   1.410
11523SOL    HW236403  11.005   2.702   1.458
11524SOL     OW36404   0.349  14.086  11.649
11524SOL    HW136405   0.442  14.092  11.671
11524SOL    HW236406   0.325  13.995  11.668
11525SOL     OW36407   0.540   0.461  14.213
11525SOL    HW136408   0.583   0.520  14.151
11525SOL    HW236409   0.531   0.514  14.293
11526SOL     OW36410  11.545   2.323   3.448
11526SOL    HW136411  11.623   2.300   3.396
11526SOL    HW236412  11.491   2.374   3.387
11527SOL     OW36413   1.370   5.193  13.435
11527SOL    HW136414   1.465   5.197  13.424
11527SOL    HW236415   1.349   5.100  13.427
11528SOL     OW36416  11.697   8.602  14.669
11528SOL    HW136417  11.768   8.554  14.712
11528SOL    HW236418  11.722   8.604  14.576
11529SOL     OW36419   9.629  11.799  14.426
11529SOL    HW136420   9.673  11.881  14.401
11529SOL    HW236421   9.686  11.730  14.391
11530SOL     OW36422   7.747  14.069   0.835
11530SOL    HW136423   7.837  14.038   0.825
11530SOL    HW236424   7.753  14.144   0.894
11531SOL     OW36425   6.733  14.382   7.498
11531SOL    HW136426   6.675  14.306   7.508
11531SOL    HW236427   6.769  14.374   7.410
11532SOL     OW36428  11.933  12.428   1.017
11532SOL    HW136429  11.939  12.497   1.083
11532SOL    HW236430  12.022  12.393   1.010
11533SOL     OW36431  10.102   9.276   0.039
11533SOL    HW136432  10.064   9.363   0.032
11533SOL    HW236433  10.102   9.242  14.829
11534SOL     OW36434   9.712  10.624  11.216
11534SOL    HW136435   9.706  10.659  11.127
11534SOL    HW236436   9.621  10.623  11.247
11535SOL     OW36437  10.638  13.481   4.158
11535SOL    HW136438  10.567  13.454   4.216
11535SOL    HW236439  10.604  13.557   4.111
11536SOL     OW36440   3.806   4.789   1.351
11536SOL    HW136441   3.753   4.713   1.327
11536SOL    HW236442   3.877   4.791   1.287
11537SOL     OW36443   7.701   5.520   8.495
11537SOL    HW136444   7.701   5.603   8.542
11537SOL    HW236445   7.783   5.520   8.445
11538SOL     OW36446   5.789  12.836  11.003
11538SOL    HW136447   5.739  12.881  11.072
11538SOL    HW236448   5.866  12.801  11.048
11539SOL     OW36449  13.910  13.803   4.679
11539SOL    HW136450  13.891  13.721   4.634
11539SOL    HW236451  13.998  13.792   4.715
11540SOL     OW36452   4.640   6.113   3.202
11540SOL    HW136453   4.669   6.153   3.120
11540SOL    HW236454   4.550   6.143   3.213
11541SOL     OW36455   1.517   6.136  13.712
11541SOL    HW136456   1.467   6.198  13.766
11541SOL    HW236457   1.465   6.055  13.715
11542SOL     OW36458  11.947  12.275   5.606
11542SOL    HW136459  12.009  12.341   5.573
11542SOL    HW236460  11.948  12.287   5.701
11543SOL     OW36461  14.864  12.038  11.955
11543SOL    HW136462  14.843  11.995  12.038
11543SOL    HW236463   0.075  12.069  11.966
11544SOL     OW36464  14.101   6.162  12.356
11544SOL    HW136465  14.025   6.148  12.412
11544SOL    HW236466  14.097   6.254  12.331
11545SOL     OW36467   0.721   4.244  10.528
11545SOL    HW136468   0.712   4.316  10.591
11545SOL    HW236469   0.632   4.211  10.517
11546SOL     OW36470  13.849   1.008   7.214
11546SOL    HW136471  13.812   1.058   7.287
11546SOL    HW236472  13.776   0.995   7.154
11547SOL     OW36473   3.533   7.305  10.178
11547SOL    HW136474   3.605   7.247  10.202
11547SOL    HW236475   3.564   7.351  10.100
11548SOL     OW36476   8.996  14.796  13.332
11548SOL    HW136477   8.910  14.795  13.374
11548SOL    HW236478   9.006  14.708  13.295
11549SOL     OW36479   7.773  12.536   5.419
11549SOL    HW136480   7.813  12.617   5.450
11549SOL    HW236481   7.685  12.537   5.457
11550SOL     OW36482   2.227  12.525   6.870
11550SOL    HW136483   2.249  12.613   6.840
11550SOL    HW236484   2.135  12.514   6.844
11551SOL     OW36485   4.276   3.254   0.783
11551SOL    HW136486   4.286   3.336   0.831
11551SOL    HW236487   4.183   3.233   0.789
11552SOL     OW36488  12.643   3.610   8.060
11552SOL    HW136489  12.548   3.610   8.064
11552SOL    HW236490  12.664   3.657   7.980
11553SOL     OW36491   1.318  13.802   2.759
11553SOL    HW136492   1.362  13.732   2.808
11553SOL    HW236493   1.226  13.794   2.786
11554SOL     OW36494  14.246  11.891  12.903
11554SOL    HW136495  14.252  11.843  12.820
11554SOL    HW236496  14.188  11.838  12.958
11555SOL     OW36497   0.113  14.275  10.296
11555SOL    HW136498   0.107  14.368  10.273
11555SOL    HW236499   0.188  14.244  10.245
11556SOL     OW36500   0.502   2.749   2.146
11556SOL    HW136501   0.439   2.681   2.119
11556SOL    HW236502   0.567   2.701   2.197
11557SOL     OW36503   4.866   3.689   9.113
11557SOL    HW136504   4.940   3.737   9.149
11557SOL    HW236505   4.905   3.627   9.051
11558SOL     OW36506   0.822  10.695  11.842
11558SOL    HW136507   0.740  10.737  11.870
11558SOL    HW236508   0.888  10.763  11.851
11559SOL     OW36509  12.795  10.082  13.315
11559SOL    HW136510  12.749  10.001  13.339
11559SOL    HW236511  12.732  10.131  13.263
11560SOL     OW36512   0.186   4.588   9.368
11560SOL    HW136513   0.216   4.678   9.379
11560SOL    HW236514   0.265   4.535   9.381
11561SOL     OW36515   7.265   2.139  10.042
11561SOL    HW136516   7.317   2.160   9.965
11561SOL    HW236517   7.328   2.117  10.109
11562SOL     OW36518  10.714  14.382   7.249
11562SOL    HW136519  10.714  14.303   7.304
11562SOL    HW236520  10.654  14.361   7.177
11563SOL     OW36521   9.123  12.283   5.048
11563SOL    HW136522   9.213  12.257   5.029
11563SOL    HW236523   9.079  12.201   5.073
11564SOL     OW36524  12.555   6.344   5.802
11564SOL    HW136525  12.470   6.309   5.774
11564SOL    HW236526  12.593   6.380   5.722
11565SOL     OW36527   0.726   6.572  10.057
11565SOL    HW136528   0.784   6.601   9.986
11565SOL    HW236529   0.742   6.477  10.063
11566SOL     OW36530   1.180   1.070   3.721
11566SOL    HW136531   1.153   1.116   3.642
11566SOL    HW236532   1.140   1.119   3.793
11567SOL     OW36533   0.792   7.761  13.742
11567SOL    HW136534   0.881   7.779  13.773
11567SOL    HW236535   0.766   7.838  13.693
11568SOL     OW36536  11.933  11.929   0.525
11568SOL    HW136537  11.963  11.922   0.616
11568SOL    HW236538  11.846  11.889   0.525
11569SOL     OW36539   7.558   1.901   7.952
11569SOL    HW136540   7.600   1.827   7.909
11569SOL    HW236541   7.520   1.952   7.881
11570SOL     OW36542  13.268  14.868   7.913
11570SOL    HW136543  13.286  14.796   7.974
11570SOL    HW236544  13.264   0.067   7.969
11571SOL     OW36545  11.710  13.394   4.311
11571SOL    HW136546  11.767  13.431   4.244
11571SOL    HW236547  11.632  13.451   4.311
11572SOL     OW36548   2.261  12.672   9.220
11572SOL    HW136549   2.265  12.690   9.314
11572SOL    HW236550   2.175  12.634   9.206
11573SOL     OW36551   6.274   5.555   0.958
11573SOL    HW136552   6.265   5.545   1.053
11573SOL    HW236553   6.314   5.474   0.929
11574SOL     OW36554   4.190   4.692   2.816
11574SOL    HW136555   4.208   4.606   2.779
11574SOL    HW236556   4.109   4.721   2.773
11575SOL     OW36557  14.444   3.352   2.623
11575SOL    HW136558  14.514   3.317   2.568
11575SOL    HW236559  14.466   3.444   2.635
11576SOL     OW36560   9.540  11.883   3.431
11576SOL    HW136561   9.512  11.944   3.362
11576SOL    HW236562   9.630  11.909   3.450
11577SOL     OW36563   3.540   7.274   0.568
11577SOL    HW136564   3.530   7.179   0.567
11577SOL    HW236565   3.499   7.302   0.650
11578SOL     OW36566   5.741   2.147  12.280
11578SOL    HW136567   5.763   2.126  12.371
11578SOL    HW236568   5.716   2.240  12.282
11579SOL     OW36569  14.328   8.848   3.585
11579SOL    HW136570  14.376   8.768   3.609
11579SOL    HW236571  14.265   8.819   3.520
11580SOL     OW36572  10.560   4.700   6.350
11580SOL    HW136573  10.519   4.614   6.352
11580SOL    HW236574  10.584   4.713   6.258
11581SOL     OW36575   9.374   0.400   2.731
11581SOL    HW136576   9.297   0.364   2.687
11581SOL    HW236577   9.449   0.360   2.686
11582SOL     OW36578  14.751   8.252   5.726
11582SOL    HW136579  14.729   8.244   5.633
11582SOL    HW236580  14.813   8.325   5.729
11583SOL     OW36581  10.050   2.529   1.408
11583SOL    HW136582  10.003   2.568   1.481
11583SOL    HW236583  10.061   2.437   1.433
11584SOL     OW36584   1.379  14.302  12.899
11584SOL    HW136585   1.442  14.285  12.970
11584SOL    HW236586   1.378  14.222  12.848
11585SOL     OW36587   9.974   9.713   4.668
11585SOL    HW136588   9.992   9.781   4.602
11585SOL    HW236589   9.901   9.747   4.719
11586SOL     OW36590  10.205   9.752  10.768
11586SOL    HW136591  10.221   9.732  10.675
11586SOL    HW236592  10.293   9.764  10.805
11587SOL     OW36593  13.928   8.060  14.032
11587SOL    HW136594  13.882   8.125  13.979
11587SOL    HW236595  13.953   8.106  14.111
11588SOL     OW36596  11.043  11.367   4.014
11588SOL    HW136597  11.027  11.460   4.033
11588SOL    HW236598  10.975  11.344   3.951
11589SOL     OW36599   3.224  10.259  14.661
11589SOL    HW136600   3.311  10.286  14.693
11589SOL    HW236601   3.206  10.320  14.589
11590SOL     OW36602  13.374   7.401  13.029
11590SOL    HW136603  13.428   7.322  13.019
11590SOL    HW236604  13.307   7.393  12.961
11591SOL     OW36605   3.964  11.593   0.576
11591SOL    HW136606   3.991  11.684   0.586
11591SOL    HW236607   3.984  11.572   0.485
11592SOL     OW36608   2.426   6.746   4.902
11592SOL    HW136609   2.337   6.730   4.932
11592SOL    HW236610   2.424   6.727   4.808
11593SOL     OW36611   0.460  10.509   2.387
11593SOL    HW136612   0.412  10.470   2.460
11593SOL    HW236613   0.486  10.595   2.419
11594SOL     OW36614   0.469   5.568   3.342
11594SOL    HW136615   0.505   5.502   3.401
11594SOL    HW236616   0.381   5.535   3.321
11595SOL     OW36617   3.829   0.979   3.705
11595SOL    HW136618   3.819   1.066   3.743
11595SOL    HW236619   3.786   0.985   3.620
11596SOL     OW36620  14.617   8.759   0.402
11596SOL    HW136621  14.696   8.728   0.446
11596SOL    HW236622  14.648   8.793   0.318
11597SOL     OW36623   0.720   6.590   0.259
11597SOL    HW136624   0.792   6.529   0.275
11597SOL    HW236625   0.734   6.621   0.170
11598SOL     OW36626  11.132   8.847   6.818
11598SOL    HW136627  11.146   8.753   6.826
11598SOL    HW236628  11.041   8.860   6.842
11599SOL     OW36629  13.079  14.814   8.240
11599SOL    HW136630  13.140  14.742   8.223
11599SOL    HW236631  13.044  14.837   8.154
11600SOL     OW36632  10.719   2.339   0.640
11600SOL    HW136633  10.751   2.319   0.728
11600SOL    HW236634  10.751   2.427   0.622
11601SOL     OW36635  12.045   6.722  11.283
11601SOL    HW136636  12.095   6.658  11.232
11601SOL    HW236637  11.963   6.733  11.235
11602SOL     OW36638   2.663   6.518   1.031
11602SOL    HW136639   2.577   6.495   0.997
11602SOL    HW236640   2.723   6.499   0.960
11603SOL     OW36641   4.773   4.208   5.835
11603SOL    HW136642   4.839   4.154   5.878
11603SOL    HW236643   4.815   4.293   5.823
11604SOL     OW36644   5.898  11.167   5.403
11604SOL    HW136645   5.847  11.196   5.327
11604SOL    HW236646   5.877  11.074   5.413
11605SOL     OW36647  14.000  12.588  11.004
11605SOL    HW136648  14.084  12.544  10.996
11605SOL    HW236649  14.001  12.624  11.093
11606SOL     OW36650   3.451   0.749  12.131
11606SOL    HW136651   3.418   0.668  12.092
11606SOL    HW236652   3.442   0.735  12.225
11607SOL     OW36653   8.053   6.203   8.919
11607SOL    HW136654   8.098   6.252   8.850
11607SOL    HW236655   8.097   6.229   9.000
11608SOL     OW36656  13.875  14.728  11.891
11608SOL    HW136657  13.920  14.809  11.914
11608SOL    HW236658  13.794  14.731  11.943
11609SOL     OW36659   4.378   9.691   4.961
11609SOL    HW136660   4.398   9.600   4.940
11609SOL    HW236661   4.440   9.713   5.031
11610SOL     OW36662   2.757   9.842  14.705
11610SOL    HW136663   2.768   9.928  14.745
11610SOL    HW236664   2.694   9.797  14.762
11611SOL     OW36665   6.351   0.681   8.202
11611SOL    HW136666   6.352   0.776   8.191
11611SOL    HW236667   6.431   0.663   8.252
11612SOL     OW36668   6.941  12.020  14.128
11612SOL    HW136669   6.909  12.043  14.041
11612SOL    HW236670   6.945  12.103  14.176
11613SOL     OW36671   9.913   0.825   9.718
11613SOL    HW136672   9.928   0.880   9.795
11613SOL    HW236673   9.905   0.887   9.645
11614SOL     OW36674  12.320   5.516   5.354
11614SOL    HW136675  12.270   5.558   5.424
11614SOL    HW236676  12.309   5.575   5.278
11615SOL     OW36677   1.055   7.372   5.879
11615SOL    HW136678   1.051   7.359   5.784
11615SOL    HW236679   1.036   7.465   5.892
11616SOL     OW36680  11.195  10.519   9.505
11616SOL    HW136681  11.225  10.468   9.430
11616SOL    HW236682  11.178  10.606   9.469
11617SOL     OW36683   9.835   9.375   5.014
11617SOL    HW136684   9.845   9.290   5.056
11617SOL    HW236685   9.907   9.379   4.951
11618SOL     OW36686   3.678   3.372  10.658
11618SOL    HW136687   3.771   3.358  10.672
11618SOL    HW236688   3.650   3.300  10.601
11619SOL     OW36689   6.290  14.486   4.808
11619SOL    HW136690   6.300  14.551   4.877
11619SOL    HW236691   6.371  14.435   4.810
11620SOL     OW36692   9.315   3.469  13.192
11620SOL    HW136693   9.279   3.551  13.223
11620SOL    HW236694   9.409   3.485  13.183
11621SOL     OW36695   9.517   3.063  14.120
11621SOL    HW136696   9.569   2.994  14.162
11621SOL    HW236697   9.443   3.017  14.081
11622SOL     OW36698   3.686   4.044   8.286
11622SOL    HW136699   3.766   3.999   8.258
11622SOL    HW236700   3.621   3.973   8.295
11623SOL     OW36701   9.956  12.916   8.858
11623SOL    HW136702   9.869  12.877   8.859
11623SOL    HW236703   9.947  12.997   8.908
11624SOL     OW36704   2.683   9.934   1.600
11624SOL    HW136705   2.639   9.904   1.680
11624SOL    HW236706   2.657  10.026   1.592
11625SOL     OW36707   9.442  13.196  14.324
11625SOL    HW136708   9.447  13.264  14.256
11625SOL    HW236709   9.350  13.170  14.325
11626SOL     OW36710  13.328  12.099  13.051
11626SOL    HW136711  13.277  12.074  12.974
11626SOL    HW236712  13.301  12.189  13.071
11627SOL     OW36713   5.037   8.510  13.841
11627SOL    HW136714   4.990   8.427  13.855
11627SOL    HW236715   4.997   8.571  13.902
11628SOL     OW36716  13.571   9.373   7.618
11628SOL    HW136717  13.482   9.338   7.623
11628SOL    HW236718  13.625   9.298   7.592
11629SOL     OW36719  10.898  14.727   5.576
11629SOL    HW136720  10.821  14.735   5.632
11629SOL    HW236721  10.948  14.655   5.615
11630SOL     OW36722   4.274   7.430  12.182
11630SOL    HW136723   4.308   7.510  12.221
11630SOL    HW236724   4.181   7.447  12.168
11631SOL     OW36725   0.818  13.581   8.961
11631SOL    HW136726   0.772  13.501   8.988
11631SOL    HW236727   0.797  13.644   9.030
11632SOL     OW36728  11.435   6.047  10.000
11632SOL    HW136729  11.427   6.123  10.057
11632SOL    HW236730  11.348   6.036   9.961
11633SOL     OW36731   4.132  14.845  12.478
11633SOL    HW136732   4.196  14.832  12.548
11633SOL    HW236733   4.077   0.038  12.508
11634SOL     OW36734   7.034  14.704   9.719
11634SOL    HW136735   6.951  14.664   9.693
11634SOL    HW236736   7.036  14.788   9.674
11635SOL     OW36737   4.178  13.209   7.533
11635SOL    HW136738   4.176  13.215   7.437
11635SOL    HW236739   4.216  13.292   7.561
11636SOL     OW36740   2.854  12.523  10.387
11636SOL    HW136741   2.840  12.479  10.471
11636SOL    HW236742   2.775  12.505  10.337
11637SOL     OW36743  12.331  10.778  11.470
11637SOL    HW136744  12.242  10.746  11.455
11637SOL    HW236745  12.386  10.700  11.463
11638SOL     OW36746   9.669   8.828   6.163
11638SOL    HW136747   9.605   8.803   6.230
11638SOL    HW236748   9.615   8.852   6.087
11639SOL     OW36749  14.695   8.872   6.401
11639SOL    HW136750  14.736   8.940   6.455
11639SOL    HW236751  14.729   8.887   6.313
11640SOL     OW36752  12.267  10.500   0.860
11640SOL    HW136753  12.324  10.451   0.918
11640SOL    HW236754  12.268  10.590   0.894
11641SOL     OW36755   7.755   4.733   6.207
11641SOL    HW136756   7.776   4.815   6.162
11641SOL    HW236757   7.806   4.736   6.288
11642SOL     OW36758   3.803   1.997   9.890
11642SOL    HW136759   3.829   2.003   9.798
11642SOL    HW236760   3.839   1.914   9.920
11643SOL     OW36761   5.214  11.713   5.759
11643SOL    HW136762   5.239  11.626   5.790
11643SOL    HW236763   5.297  11.754   5.733
11644SOL     OW36764   5.370   1.751   7.853
11644SOL    HW136765   5.343   1.659   7.844
11644SOL    HW236766   5.443   1.749   7.915
11645SOL     OW36767   0.928  10.594  14.835
11645SOL    HW136768   0.977  10.548   0.024
11645SOL    HW236769   0.914  10.528  14.767
11646SOL     OW36770  13.493  12.322   4.849
11646SOL    HW136771  13.463  12.366   4.929
11646SOL    HW236772  13.531  12.392   4.796
11647SOL     OW36773   3.728   6.776   0.497
11647SOL    HW136774   3.757   6.695   0.540
11647SOL    HW236775   3.658   6.748   0.438
11648SOL     OW36776   9.253   1.195  11.176
11648SOL    HW136777   9.270   1.124  11.115
11648SOL    HW236778   9.158   1.195  11.189
11649SOL     OW36779  12.251   6.079   2.795
11649SOL    HW136780  12.320   6.112   2.737
11649SOL    HW236781  12.184   6.148   2.794
11650SOL     OW36782   6.576  12.227  12.775
11650SOL    HW136783   6.569  12.294  12.707
11650SOL    HW236784   6.567  12.275  12.857
11651SOL     OW36785  11.286   1.737   1.687
11651SOL    HW136786  11.230   1.785   1.748
11651SOL    HW236787  11.374   1.741   1.726
11652SOL     OW36788  12.472   1.670   7.044
11652SOL    HW136789  12.484   1.599   6.981
11652SOL    HW236790  12.385   1.704   7.025
11653SOL     OW36791   3.214  10.791   8.869
11653SOL    HW136792   3.247  10.723   8.811
11653SOL    HW236793   3.249  10.768   8.955
11654SOL     OW36794  13.828   9.795   8.001
11654SOL    HW136795  13.900   9.778   8.062
11654SOL    HW236796  13.857   9.755   7.919
11655SOL     OW36797   5.804  11.054   4.093
11655SOL    HW136798   5.826  11.003   4.015
11655SOL    HW236799   5.860  11.018   4.162
11656SOL     OW36800   5.572  12.915  11.667
11656SOL    HW136801   5.525  12.982  11.618
11656SOL    HW236802   5.507  12.846  11.681
11657SOL     OW36803  10.409  12.486   5.969
11657SOL    HW136804  10.491  12.454   6.006
11657SOL    HW236805  10.362  12.523   6.044
11658SOL     OW36806   5.064   4.094   9.556
11658SOL    HW136807   5.013   4.037   9.498
11658SOL    HW236808   4.999   4.131   9.616
11659SOL     OW36809   4.004   7.508  12.181
11659SOL    HW136810   3.928   7.530  12.234
11659SOL    HW236811   3.981   7.540  12.093
11660SOL     OW36812   2.622   7.779   3.284
11660SOL    HW136813   2.623   7.727   3.364
11660SOL    HW236814   2.700   7.750   3.236
11661SOL     OW36815   2.194   8.316  11.425
11661SOL    HW136816   2.286   8.327  11.449
11661SOL    HW236817   2.183   8.371  11.348
11662SOL     OW36818   7.833   7.151   7.732
11662SOL    HW136819   7.757   7.171   7.786
11662SOL    HW236820   7.907   7.190   7.778
11663SOL     OW36821   7.063   5.875  14.269
11663SOL    HW136822   7.069   5.898  14.362
11663SOL    HW236823   6.978   5.909  14.241
11664SOL     OW36824   1.681  14.246  11.556
11664SOL    HW136825   1.633  14.166  11.532
11664SOL    HW236826   1.770  14.230  11.525
11665SOL     OW36827   4.021  13.543   9.990
11665SOL    HW136828   3.930  13.553  10.018
11665SOL    HW236829   4.036  13.448   9.990
11666SOL     OW36830   2.705   8.585  11.914
11666SOL    HW136831   2.740   8.627  11.993
11666SOL    HW236832   2.761   8.617  11.843
11667SOL     OW36833   2.445  11.975   5.356
11667SOL    HW136834   2.454  12.047   5.294
11667SOL    HW236835   2.527  11.926   5.348
11668SOL     OW36836   2.169   2.137   3.121
11668SOL    HW136837   2.177   2.196   3.196
11668SOL    HW236838   2.127   2.190   3.053
11669SOL     OW36839   4.832   8.195   5.816
11669SOL    HW136840   4.754   8.185   5.762
11669SOL    HW236841   4.904   8.164   5.762
11670SOL     OW36842   9.764   3.140   4.640
11670SOL    HW136843   9.806   3.171   4.720
11670SOL    HW236844   9.715   3.062   4.667
11671SOL     OW36845  12.737   6.373   6.421
11671SOL    HW136846  12.689   6.439   6.471
11671SOL    HW236847  12.673   6.305   6.403
11672SOL     OW36848   9.984  10.913   0.207
11672SOL    HW136849   9.991  10.907   0.111
11672SOL    HW236850  10.075  10.921   0.237
11673SOL     OW36851   2.431  12.196  10.215
11673SOL    HW136852   2.356  12.255  10.222
11673SOL    HW236853   2.404  12.129  10.153
11674SOL     OW36854   2.719  10.154  11.539
11674SOL    HW136855   2.721  10.137  11.445
11674SOL    HW236856   2.628  10.135  11.565
11675SOL     OW36857   8.967   3.277   8.657
11675SOL    HW136858   8.918   3.242   8.732
11675SOL    HW236859   9.027   3.340   8.696
11676SOL     OW36860  11.533   6.970  13.744
11676SOL    HW136861  11.485   6.989  13.664
11676SOL    HW236862  11.488   6.894  13.782
11677SOL     OW36863   7.960   5.849   0.475
11677SOL    HW136864   7.903   5.774   0.459
11677SOL    HW236865   8.044   5.824   0.436
11678SOL     OW36866   6.824  13.123   3.442
11678SOL    HW136867   6.840  13.148   3.533
11678SOL    HW236868   6.842  13.029   3.439
11679SOL     OW36869   8.190   7.852  13.353
11679SOL    HW136870   8.251   7.781  13.333
11679SOL    HW236871   8.136   7.861  13.275
11680SOL     OW36872   5.289   8.134   5.011
11680SOL    HW136873   5.301   8.191   5.087
11680SOL    HW236874   5.377   8.100   4.992
11681SOL     OW36875   0.842   1.991  11.817
11681SOL    HW136876   0.799   2.028  11.895
11681SOL    HW236877   0.910   2.054  11.796
11682SOL     OW36878   1.438   5.786   2.130
11682SOL    HW136879   1.360   5.767   2.181
11682SOL    HW236880   1.465   5.873   2.159
11683SOL     OW36881  11.841   3.272   9.199
11683SOL    HW136882  11.875   3.240   9.115
11683SOL    HW236883  11.865   3.365   9.201
11684SOL     OW36884   8.214   6.230   6.460
11684SOL    HW136885   8.186   6.283   6.535
11684SOL    HW236886   8.168   6.268   6.386
11685SOL     OW36887  12.403   6.075   3.764
11685SOL    HW136888  12.338   6.008   3.745
11685SOL    HW236889  12.403   6.081   3.860
11686SOL     OW36890   8.287   9.411   1.251
11686SOL    HW136891   8.205   9.456   1.267
11686SOL    HW236892   8.270   9.320   1.276
11687SOL     OW36893   6.419   5.524   9.072
11687SOL    HW136894   6.336   5.565   9.048
11687SOL    HW236895   6.464   5.591   9.125
11688SOL     OW36896   7.139   4.840   9.346
11688SOL    HW136897   7.056   4.793   9.334
11688SOL    HW236898   7.154   4.838   9.441
11689SOL     OW36899  13.259  13.490  13.730
11689SOL    HW136900  13.300  13.474  13.815
11689SOL    HW236901  13.166  13.500  13.750
11690SOL     OW36902   1.306   1.499   4.828
11690SOL    HW136903   1.250   1.576   4.834
11690SOL    HW236904   1.290   1.453   4.911
11691SOL     OW36905   2.089  14.421  12.496
11691SOL    HW136906   2.038  14.341  12.510
11691SOL    HW236907   2.121  14.445  12.583
11692SOL     OW36908   5.984  13.783  13.224
11692SOL    HW136909   6.042  13.708  13.235
11692SOL    HW236910   5.944  13.770  13.137
11693SOL     OW36911   9.718   1.841   8.656
11693SOL    HW136912   9.697   1.932   8.674
11693SOL    HW236913   9.760   1.810   8.737
11694SOL     OW36914   6.070  14.760   0.054
11694SOL    HW136915   6.001  14.698   0.076
11694SOL    HW236916   6.129  14.759   0.130
11695SOL     OW36917  14.414  14.113   7.419
11695SOL    HW136918  14.345  14.134   7.355
11695SOL    HW236919  14.470  14.051   7.373
11696SOL     OW36920   2.484   3.392   7.253
11696SOL    HW136921   2.522   3.475   7.281
11696SOL    HW236922   2.537   3.325   7.296
11697SOL     OW36923   1.375   7.152   1.996
11697SOL    HW136924   1.462   7.152   2.036
11697SOL    HW236925   1.352   7.245   1.990
11698SOL     OW36926  12.413   2.744  11.625
11698SOL    HW136927  12.439   2.724  11.535
11698SOL    HW236928  12.463   2.822  11.649
11699SOL     OW36929   6.748  12.408  10.753
11699SOL    HW136930   6.755  12.318  10.785
11699SOL    HW236931   6.834  12.446  10.768
11700SOL     OW36932   0.037  11.954   2.260
11700SOL    HW136933  14.845  11.981   2.201
11700SOL    HW236934   0.091  12.033   2.270
11701SOL     OW36935  12.823  11.411   3.920
11701SOL    HW136936  12.802  11.453   3.836
11701SOL    HW236937  12.800  11.319   3.907
11702SOL     OW36938  13.380   1.605  14.733
11702SOL    HW136939  13.348   1.668  14.669
11702SOL    HW236940  13.304   1.587  14.789
11703SOL     OW36941  12.593   3.131   3.590
11703SOL    HW136942  12.650   3.126   3.513
11703SOL    HW236943  12.520   3.187   3.562
11704SOL     OW36944   4.032   8.614   2.038
11704SOL    HW136945   4.091   8.608   1.963
11704SOL    HW236946   4.018   8.523   2.065
11705SOL     OW36947  10.101   3.134  11.662
11705SOL    HW136948  10.043   3.076  11.712
11705SOL    HW236949  10.046   3.167  11.590
11706SOL     OW36950  13.159   0.310   8.771
11706SOL    HW136951  13.095   0.239   8.767
11706SOL    HW236952  13.188   0.321   8.680
11707SOL     OW36953   2.178   9.362   8.753
11707SOL    HW136954   2.113   9.416   8.797
11707SOL    HW236955   2.222   9.313   8.824
11708SOL     OW36956  10.914  11.607   8.732
11708SOL    HW136957  10.854  11.610   8.657
11708SOL    HW236958  10.859  11.630   8.807
11709SOL     OW36959   2.983   5.655   7.330
11709SOL    HW136960   2.959   5.736   7.375
11709SOL    HW236961   2.929   5.655   7.251
11710SOL     OW36962  12.483   6.002   8.206
11710SOL    HW136963  12.533   5.985   8.287
11710SOL    HW236964  12.523   6.080   8.170
11711SOL     OW36965  12.503   7.480   1.940
11711SOL    HW136966  12.557   7.556   1.916
11711SOL    HW236967  12.448   7.512   2.012
11712SOL     OW36968  12.026   7.023   9.681
11712SOL    HW136969  12.119   7.005   9.666
11712SOL    HW236970  12.024   7.110   9.721
11713SOL     OW36971  10.393   0.304  13.652
11713SOL    HW136972  10.358   0.248  13.721
11713SOL    HW236973  10.317   0.353  13.619
11714SOL     OW36974   3.539   0.096   4.163
11714SOL    HW136975   3.580   0.181   4.151
11714SOL    HW236976   3.527   0.089   4.258
11715SOL     OW36977  11.487   1.000  11.146
11715SOL    HW136978  11.455   0.980  11.058
11715SOL    HW236979  11.409   1.023  11.196
11716SOL     OW36980   2.914   3.083   5.499
11716SOL    HW136981   2.848   3.056   5.436
11716SOL    HW236982   2.888   3.172   5.524
11717SOL     OW36983  14.775   0.379  11.322
11717SOL    HW136984  14.798   0.382  11.229
11717SOL    HW236985  14.683   0.353  11.323
11718SOL     OW36986   4.448   3.458   2.007
11718SOL    HW136987   4.530   3.498   1.979
11718SOL    HW236988   4.475   3.381   2.057
11719SOL     OW36989  11.781   9.362   7.378
11719SOL    HW136990  11.819   9.384   7.463
11719SOL    HW236991  11.711   9.426   7.366
11720SOL     OW36992   4.510   6.326   4.122
11720SOL    HW136993   4.524   6.236   4.153
11720SOL    HW236994   4.433   6.357   4.170
11721SOL     OW36995   9.223   9.163   2.487
11721SOL    HW136996   9.176   9.113   2.554
11721SOL    HW236997   9.223   9.106   2.410
11722SOL     OW36998  14.550   9.296   9.377
11722SOL    HW136999  14.644   9.310   9.367
11722SOL    HW237000  14.528   9.234   9.309
11723SOL     OW37001   9.508   5.321   3.011
11723SOL    HW137002   9.550   5.372   3.081
11723SOL    HW237003   9.512   5.230   3.042
11724SOL     OW37004  10.759   0.734  14.460
11724SOL    HW137005  10.778   0.821  14.495
11724SOL    HW237006  10.745   0.748  14.367
11725SOL     OW37007  14.087  10.867   1.567
11725SOL    HW137008  14.070  10.876   1.473
11725SOL    HW237009  14.119  10.953   1.594
11726SOL     OW37010  10.538   7.607   3.678
11726SOL    HW137011  10.611   7.652   3.720
11726SOL    HW237012  10.466   7.615   3.741
11727SOL     OW37013  12.055   9.495  11.766
11727SOL    HW137014  11.993   9.547  11.819
11727SOL    HW237015  12.044   9.529  11.677
11728SOL     OW37016   1.535   7.085  13.377
11728SOL    HW137017   1.480   7.020  13.333
11728SOL    HW237018   1.563   7.041  13.458
11729SOL     OW37019  12.731   1.272   0.392
11729SOL    HW137020  12.724   1.212   0.466
11729SOL    HW237021  12.748   1.357   0.432
11730SOL     OW37022   1.472   6.057  13.237
11730SOL    HW137023   1.447   6.121  13.304
11730SOL    HW237024   1.394   6.002  13.227
11731SOL     OW37025  13.629   9.896   7.512
11731SOL    HW137026  13.644   9.805   7.487
11731SOL    HW237027  13.681   9.947   7.449
11732SOL     OW37028   6.118  13.908   6.096
11732SOL    HW137029   6.044  13.922   6.155
11732SOL    HW237030   6.190  13.882   6.153
11733SOL     OW37031   9.457   1.685   1.814
11733SOL    HW137032   9.401   1.609   1.830
11733SOL    HW237033   9.453   1.735   1.896
11734SOL     OW37034   8.439  12.052   0.147
11734SOL    HW137035   8.468  12.056   0.056
11734SOL    HW237036   8.367  12.115   0.152
11735SOL     OW37037   4.139   2.211   3.351
11735SOL    HW137038   4.114   2.301   3.375
11735SOL    HW237039   4.058   2.161   3.358
11736SOL     OW37040  11.449   8.106   6.424
11736SOL    HW137041  11.455   8.117   6.329
11736SOL    HW237042  11.427   8.013   6.436
11737SOL     OW37043  12.508  11.089  11.676
11737SOL    HW137044  12.461  11.038  11.610
11737SOL    HW237045  12.534  11.169  11.630
11738SOL     OW37046  12.462   8.396   7.143
11738SOL    HW137047  12.442   8.353   7.225
11738SOL    HW237048  12.396   8.362   7.081
11739SOL     OW37049  10.800  11.402  11.864
11739SOL    HW137050  10.891  11.376  11.873
11739SOL    HW237051  10.769  11.411  11.955
11740SOL     OW37052   6.284   5.730   4.069
11740SOL    HW137053   6.203   5.738   4.121
11740SOL    HW237054   6.332   5.810   4.087
11741SOL     OW37055   6.074  13.526   6.880
11741SOL    HW137056   6.108  13.437   6.886
11741SOL    HW237057   5.979  13.515   6.877
11742SOL     OW37058  12.630  10.350   4.882
11742SOL    HW137059  12.547  10.302   4.883
11742SOL    HW237060  12.611  10.432   4.929
11743SOL     OW37061   3.684   5.676   1.330
11743SOL    HW137062   3.671   5.738   1.402
11743SOL    HW237063   3.762   5.627   1.355
11744SOL     OW37064  11.636   8.976   7.098
11744SOL    HW137065  11.623   8.886   7.127
11744SOL    HW237066  11.584   9.029   7.159
11745SOL     OW37067  12.503   9.361   9.825
11745SOL    HW137068  12.411   9.380   9.808
11745SOL    HW237069  12.550   9.403   9.753
11746SOL     OW37070   5.562   3.151  10.202
11746SOL    HW137071   5.590   3.122  10.289
11746SOL    HW237072   5.555   3.246  10.209
11747SOL     OW37073  10.215   0.800   9.398
11747SOL    HW137074  10.208   0.887   9.359
11747SOL    HW237075  10.126   0.767   9.399
11748SOL     OW37076  10.799   7.334   6.031
11748SOL    HW137077  10.726   7.284   6.068
11748SOL    HW237078  10.878   7.288   6.061
11749SOL     OW37079  13.239   1.728  13.190
11749SOL    HW137080  13.258   1.652  13.245
11749SOL    HW237081  13.325   1.761  13.163
11750SOL     OW37082  13.711   8.987   2.488
11750SOL    HW137083  13.800   8.966   2.460
11750SOL    HW237084  13.716   9.077   2.519
11751SOL     OW37085  13.706   6.803   0.530
11751SOL    HW137086  13.790   6.810   0.485
11751SOL    HW237087  13.717   6.729   0.590
11752SOL     OW37088  11.397  13.692   6.388
11752SOL    HW137089  11.318  13.640   6.371
11752SOL    HW237090  11.381  13.732   6.473
11753SOL     OW37091   2.173   2.952  13.747
11753SOL    HW137092   2.115   3.029  13.744
11753SOL    HW237093   2.204   2.942  13.657
11754SOL     OW37094   9.003   1.407   3.178
11754SOL    HW137095   8.928   1.348   3.173
11754SOL    HW237096   9.019   1.432   3.087
11755SOL     OW37097   2.859  10.680   5.395
11755SOL    HW137098   2.783  10.737   5.384
11755SOL    HW237099   2.904  10.681   5.311
11756SOL     OW37100   3.297   9.824   0.407
11756SOL    HW137101   3.296   9.735   0.443
11756SOL    HW237102   3.387   9.836   0.376
11757SOL     OW37103  11.659  12.360   2.637
11757SOL    HW137104  11.641  12.318   2.552
11757SOL    HW237105  11.577  12.400   2.662
11758SOL     OW37106   1.251   0.004   9.121
11758SOL    HW137107   1.283  14.843   9.040
11758SOL    HW237108   1.190  14.819   9.157
11759SOL     OW37109   4.800   9.903   1.371
11759SOL    HW137110   4.811   9.808   1.361
11759SOL    HW237111   4.708   9.919   1.349
11760SOL     OW37112   8.115   7.255   7.669
11760SOL    HW137113   8.102   7.301   7.752
11760SOL    HW237114   8.053   7.296   7.609
11761SOL     OW37115   2.881  10.731   8.556
11761SOL    HW137116   2.885  10.753   8.462
11761SOL    HW237117   2.966  10.692   8.574
11762SOL     OW37118   9.915   8.722   4.502
11762SOL    HW137119   9.982   8.785   4.477
11762SOL    HW237120   9.964   8.646   4.534
11763SOL     OW37121  10.259  10.171   8.043
11763SOL    HW137122  10.226  10.157   7.954
11763SOL    HW237123  10.349  10.138   8.040
11764SOL     OW37124   9.928   7.130   6.800
11764SOL    HW137125   9.916   7.035   6.799
11764SOL    HW237126   9.982   7.148   6.724
11765SOL     OW37127   4.836   7.963  13.670
11765SOL    HW137128   4.896   8.014  13.615
11765SOL    HW237129   4.820   8.020  13.746
11766SOL     OW37130  11.352  10.032   3.942
11766SOL    HW137131  11.316  10.102   3.996
11766SOL    HW237132  11.392   9.971   4.005
11767SOL     OW37133  14.246   3.320   1.185
11767SOL    HW137134  14.198   3.238   1.192
11767SOL    HW237135  14.190   3.376   1.132
11768SOL     OW37136   3.709  10.623   2.951
11768SOL    HW137137   3.685  10.707   2.991
11768SOL    HW237138   3.787  10.595   2.999
11769SOL     OW37139   8.001   6.994   7.517
11769SOL    HW137140   8.027   7.042   7.596
11769SOL    HW237141   8.023   6.902   7.537
11770SOL     OW37142  12.307   7.795  14.778
11770SOL    HW137143  12.321   7.766  14.688
11770SOL    HW237144  12.351   7.729  14.832
11771SOL     OW37145  12.359   8.892   6.372
11771SOL    HW137146  12.279   8.871   6.325
11771SOL    HW237147  12.363   8.988   6.370
11772SOL     OW37148   2.885   7.367  13.583
11772SOL    HW137149   2.859   7.431  13.649
11772SOL    HW237150   2.821   7.379  13.512
11773SOL     OW37151  13.874   3.150   2.414
11773SOL    HW137152  13.803   3.087   2.429
11773SOL    HW237153  13.867   3.212   2.487
11774SOL     OW37154   3.957   5.422  11.133
11774SOL    HW137155   3.956   5.384  11.045
11774SOL    HW237156   3.896   5.368  11.183
11775SOL     OW37157   9.480   2.389   6.693
11775SOL    HW137158   9.453   2.343   6.772
11775SOL    HW237159   9.433   2.472   6.696
11776SOL     OW37160   2.309  14.312  11.088
11776SOL    HW137161   2.222  14.323  11.050
11776SOL    HW237162   2.296  14.334  11.181
11777SOL     OW37163  10.376   9.724   4.866
11777SOL    HW137164  10.465   9.715   4.899
11777SOL    HW237165  10.358   9.640   4.823
11778SOL     OW37166   1.530   7.850   4.075
11778SOL    HW137167   1.506   7.891   4.158
11778SOL    HW237168   1.625   7.861   4.070
11779SOL     OW37169   5.085   9.638   5.480
11779SOL    HW137170   5.150   9.652   5.548
11779SOL    HW237171   5.111   9.556   5.438
11780SOL     OW37172  11.688   5.737   9.043
11780SOL    HW137173  11.689   5.650   9.082
11780SOL    HW237174  11.595   5.755   9.027
11781SOL     OW37175  14.494   2.432  11.742
11781SOL    HW137176  14.412   2.383  11.752
11781SOL    HW237177  14.518   2.456  11.832
11782SOL     OW37178   5.677  13.206  13.601
11782SOL    HW137179   5.678  13.264  13.525
11782SOL    HW237180   5.768  13.201  13.629
11783SOL     OW37181   2.580  13.150   3.303
11783SOL    HW137182   2.669  13.178   3.279
11783SOL    HW237183   2.593  13.068   3.350
11784SOL     OW37184   3.840  14.572   6.626
11784SOL    HW137185   3.810  14.580   6.536
11784SOL    HW237186   3.886  14.488   6.629
11785SOL     OW37187   4.431  11.667  14.577
11785SOL    HW137188   4.524  11.663  14.554
11785SOL    HW237189   4.390  11.602  14.521
11786SOL     OW37190   7.669   9.415  14.759
11786SOL    HW137191   7.646   9.344  14.820
11786SOL    HW237192   7.763   9.406  14.747
11787SOL     OW37193   0.737   4.968  10.008
11787SOL    HW137194   0.736   5.059   9.976
11787SOL    HW237195   0.665   4.964  10.071
11788SOL     OW37196   8.140   3.947   3.555
11788SOL    HW137197   8.054   3.935   3.596
11788SOL    HW237198   8.149   3.873   3.496
11789SOL     OW37199   6.707   7.106   7.020
11789SOL    HW137200   6.653   7.185   7.013
11789SOL    HW237201   6.755   7.102   6.938
11790SOL     OW37202   5.529  13.499  10.759
11790SOL    HW137203   5.582  13.551  10.819
11790SOL    HW237204   5.500  13.561  10.693
11791SOL     OW37205  13.762   6.931   5.695
11791SOL    HW137206  13.698   6.954   5.763
11791SOL    HW237207  13.840   6.981   5.718
11792SOL     OW37208   9.043   6.369   6.417
11792SOL    HW137209   9.012   6.352   6.328
11792SOL    HW237210   9.002   6.301   6.471
11793SOL     OW37211   2.594  10.687   3.414
11793SOL    HW137212   2.507  10.724   3.430
11793SOL    HW237213   2.649  10.724   3.484
11794SOL     OW37214   6.305  10.324  11.469
11794SOL    HW137215   6.308  10.346  11.376
11794SOL    HW237216   6.372  10.380  11.508
11795SOL     OW37217  12.181  10.730   4.534
11795SOL    HW137218  12.158  10.768   4.619
11795SOL    HW237219  12.277  10.737   4.530
11796SOL     OW37220   6.566   8.439  14.288
11796SOL    HW137221   6.555   8.375  14.357
11796SOL    HW237222   6.476   8.465  14.265
11797SOL     OW37223  12.618  11.159   3.526
11797SOL    HW137224  12.635  11.205   3.443
11797SOL    HW237225  12.693  11.181   3.581
11798SOL     OW37226  10.550  10.575   4.956
11798SOL    HW137227  10.458  10.573   4.981
11798SOL    HW237228  10.591  10.632   5.022
11799SOL     OW37229  12.335   8.550  10.969
11799SOL    HW137230  12.369   8.487  10.904
11799SOL    HW237231  12.353   8.636  10.930
11800SOL     OW37232   2.213   4.798   8.239
11800SOL    HW137233   2.190   4.779   8.330
11800SOL    HW237234   2.305   4.823   8.243
11801SOL     OW37235   6.503   2.755   4.700
11801SOL    HW137236   6.574   2.695   4.676
11801SOL    HW237237   6.427   2.720   4.655
11802SOL     OW37238   2.174   3.219   7.312
11802SOL    HW137239   2.212   3.188   7.230
11802SOL    HW237240   2.247   3.222   7.373
11803SOL     OW37241   3.495   1.387  11.040
11803SOL    HW137242   3.470   1.476  11.015
11803SOL    HW237243   3.426   1.332  11.001
11804SOL     OW37244   3.001   8.263   8.322
11804SOL    HW137245   2.983   8.307   8.238
11804SOL    HW237246   3.087   8.297   8.347
11805SOL     OW37247  12.349   8.831  14.742
11805SOL    HW137248  12.395   8.752  14.772
11805SOL    HW237249  12.292   8.801  14.672
11806SOL     OW37250   2.243  12.349  10.965
11806SOL    HW137251   2.246  12.254  10.976
11806SOL    HW237252   2.153  12.373  10.986
11807SOL     OW37253   9.664  12.955   6.860
11807SOL    HW137254   9.578  12.970   6.822
11807SOL    HW237255   9.689  12.867   6.830
11808SOL     OW37256   6.046   6.827  12.719
11808SOL    HW137257   6.123   6.822  12.776
11808SOL    HW237258   5.973   6.802  12.776
11809SOL     OW37259  12.633   0.018   3.507
11809SOL    HW137260  12.560   0.022   3.445
11809SOL    HW237261  12.590   0.014   3.593
11810SOL     OW37262   9.499   3.779   1.095
11810SOL    HW137263   9.542   3.761   1.011
11810SOL    HW237264   9.460   3.696   1.121
11811SOL     OW37265   0.425   5.443  10.221
11811SOL    HW137266   0.346   5.392  10.238
11811SOL    HW237267   0.493   5.377  10.207
11812SOL     OW37268  12.234   1.942   2.762
11812SOL    HW137269  12.217   2.032   2.734
11812SOL    HW237270  12.306   1.949   2.824
11813SOL     OW37271  11.903  14.407   5.018
11813SOL    HW137272  11.888  14.312   5.022
11813SOL    HW237273  11.943  14.428   5.101
11814SOL     OW37274  12.227  13.516   0.953
11814SOL    HW137275  12.162  13.505   1.022
11814SOL    HW237276  12.255  13.607   0.960
11815SOL     OW37277  13.452   4.871   1.357
11815SOL    HW137278  13.424   4.830   1.275
11815SOL    HW237279  13.427   4.963   1.347
11816SOL     OW37280   6.677   8.226   3.284
11816SOL    HW137281   6.663   8.319   3.270
11816SOL    HW237282   6.763   8.208   3.247
11817SOL     OW37283   3.546   1.158  11.713
11817SOL    HW137284   3.475   1.109  11.670
11817SOL    HW237285   3.584   1.095  11.775
11818SOL     OW37286  14.083   8.389   5.515
11818SOL    HW137287  14.159   8.436   5.545
11818SOL    HW237288  14.117   8.304   5.486
11819SOL     OW37289  11.509  10.238   9.728
11819SOL    HW137290  11.526  10.201   9.642
11819SOL    HW237291  11.537  10.329   9.722
11820SOL     OW37292   8.952   3.528   5.474
11820SOL    HW137293   8.990   3.446   5.442
11820SOL    HW237294   8.863   3.528   5.439
11821SOL     OW37295   4.058  11.218   8.434
11821SOL    HW137296   4.106  11.148   8.478
11821SOL    HW237297   3.990  11.245   8.496
11822SOL     OW37298  13.507  11.351   3.015
11822SOL    HW137299  13.554  11.327   2.936
11822SOL    HW237300  13.436  11.287   3.022
11823SOL     OW37301  10.174   0.341  13.344
11823SOL    HW137302  10.144   0.423  13.305
11823SOL    HW237303  10.176   0.358  13.438
11824SOL     OW37304  10.332   3.264   4.531
11824SOL    HW137305  10.246   3.221   4.540
11824SOL    HW237306  10.325   3.341   4.587
11825SOL     OW37307   5.917   3.038  13.620
11825SOL    HW137308   6.010   3.032  13.600
11825SOL    HW237309   5.901   2.966  13.681
11826SOL     OW37310   8.066   6.791  12.255
11826SOL    HW137311   8.090   6.873  12.212
11826SOL    HW237312   8.073   6.724  12.187
11827SOL     OW37313   2.598   9.175  10.245
11827SOL    HW137314   2.618   9.094  10.197
11827SOL    HW237315   2.582   9.147  10.334
11828SOL     OW37316   4.346   9.107   8.949
11828SOL    HW137317   4.325   9.177   9.012
11828SOL    HW237318   4.292   9.033   8.978
11829SOL     OW37319   1.580   2.700   7.060
11829SOL    HW137320   1.489   2.731   7.061
11829SOL    HW237321   1.572   2.605   7.056
11830SOL     OW37322   2.660   1.940   9.404
11830SOL    HW137323   2.613   1.981   9.477
11830SOL    HW237324   2.741   1.989   9.396
11831SOL     OW37325  12.133   3.418   9.603
11831SOL    HW137326  12.066   3.385   9.663
11831SOL    HW237327  12.100   3.503   9.574
11832SOL     OW37328   5.805   1.904   3.978
11832SOL    HW137329   5.829   1.997   3.979
11832SOL    HW237330   5.710   1.903   3.985
11833SOL     OW37331   7.449   6.544  11.940
11833SOL    HW137332   7.390   6.490  11.888
11833SOL    HW237333   7.512   6.483  11.978
11834SOL     OW37334   8.367   7.612  14.654
11834SOL    HW137335   8.322   7.623  14.570
11834SOL    HW237336   8.297   7.589  14.715
11835SOL     OW37337   9.712   4.674   7.636
11835SOL    HW137338   9.806   4.686   7.645
11835SOL    HW237339   9.679   4.678   7.726
11836SOL     OW37340   5.394   6.181  12.823
11836SOL    HW137341   5.336   6.240  12.775
11836SOL    HW237342   5.336   6.112  12.855
11837SOL     OW37343   3.607   1.830  14.681
11837SOL    HW137344   3.692   1.794  14.654
11837SOL    HW237345   3.571   1.867  14.600
11838SOL     OW37346  12.477   0.746   0.672
11838SOL    HW137347  12.462   0.676   0.608
11838SOL    HW237348  12.421   0.818   0.642
11839SOL     OW37349   5.736   4.182   8.869
11839SOL    HW137350   5.831   4.176   8.875
11839SOL    HW237351   5.713   4.136   8.788
11840SOL     OW37352  12.515  10.950   6.799
11840SOL    HW137353  12.508  10.886   6.729
11840SOL    HW237354  12.572  10.909   6.864
11841SOL     OW37355   5.510   4.139  13.657
11841SOL    HW137356   5.439   4.190  13.617
11841SOL    HW237357   5.584   4.152  13.598
11842SOL     OW37358   9.844  13.110   6.728
11842SOL    HW137359   9.773  13.064   6.771
11842SOL    HW237360   9.892  13.043   6.681
11843SOL     OW37361   9.424   2.287   9.975
11843SOL    HW137362   9.386   2.371   9.951
11843SOL    HW237363   9.362   2.249  10.037
11844SOL     OW37364   4.515   8.642   3.762
11844SOL    HW137365   4.543   8.575   3.824
11844SOL    HW237366   4.591   8.658   3.707
11845SOL     OW37367   9.238   7.681   9.600
11845SOL    HW137368   9.329   7.707   9.588
11845SOL    HW237369   9.187   7.752   9.560
11846SOL     OW37370   6.081   6.181   0.704
11846SOL    HW137371   6.173   6.159   0.692
11846SOL    HW237372   6.072   6.196   0.798
11847SOL     OW37373   8.786  11.557   0.404
11847SOL    HW137374   8.755  11.466   0.402
11847SOL    HW237375   8.842  11.565   0.327
11848SOL     OW37376   2.810  14.026   8.396
11848SOL    HW137377   2.717  14.023   8.419
11848SOL    HW237378   2.816  14.096   8.332
11849SOL     OW37379   7.865  12.645   7.778
11849SOL    HW137380   7.864  12.550   7.765
11849SOL    HW237381   7.910  12.657   7.861
11850SOL     OW37382   3.611   4.414  11.452
11850SOL    HW137383   3.623   4.495  11.403
11850SOL    HW237384   3.679   4.415  11.519
11851SOL     OW37385   5.038   1.783   6.670
11851SOL    HW137386   5.036   1.737   6.754
11851SOL    HW237387   5.078   1.868   6.690
11852SOL     OW37388  11.499   1.875  12.748
11852SOL    HW137389  11.541   1.935  12.809
11852SOL    HW237390  11.482   1.927  12.670
11853SOL     OW37391   9.369   5.674   5.233
11853SOL    HW137392   9.394   5.744   5.293
11853SOL    HW237393   9.452   5.634   5.208
11854SOL     OW37394  11.240   0.950  10.312
11854SOL    HW137395  11.233   1.038  10.349
11854SOL    HW237396  11.312   0.957  10.249
11855SOL     OW37397  11.348  12.909   4.730
11855SOL    HW137398  11.296  12.989   4.727
11855SOL    HW237399  11.408  12.916   4.656
11856SOL     OW37400   7.898   5.225   7.090
11856SOL    HW137401   7.916   5.202   7.181
11856SOL    HW237402   7.872   5.317   7.093
11857SOL     OW37403   3.596  11.535   9.194
11857SOL    HW137404   3.612  11.483   9.115
11857SOL    HW237405   3.517  11.586   9.173
11858SOL     OW37406   1.531   3.954   4.894
11858SOL    HW137407   1.622   3.927   4.884
11858SOL    HW237408   1.534   4.049   4.890
11859SOL     OW37409   8.559   6.766   6.514
11859SOL    HW137410   8.533   6.855   6.491
11859SOL    HW237411   8.655   6.768   6.516
11860SOL     OW37412  10.975   8.696   9.003
11860SOL    HW137413  11.009   8.610   8.978
11860SOL    HW237414  11.039   8.758   8.969
11861SOL     OW37415   5.115   6.140  14.362
11861SOL    HW137416   5.083   6.087  14.289
11861SOL    HW237417   5.199   6.175  14.332
11862SOL     OW37418  10.270   8.672   4.914
11862SOL    HW137419  10.302   8.731   4.982
11862SOL    HW237420  10.341   8.666   4.851
11863SOL     OW37421   0.131   3.879  14.281
11863SOL    HW137422   0.181   3.960  14.289
11863SOL    HW237423   0.116   3.869  14.187
11864SOL     OW37424   4.772  13.485   9.659
11864SOL    HW137425   4.751  13.562   9.712
11864SOL    HW237426   4.837  13.437   9.711
11865SOL     OW37427   9.495  13.689   0.997
11865SOL    HW137428   9.502  13.779   1.028
11865SOL    HW237429   9.568  13.643   1.038
11866SOL     OW37430   6.644   8.174   8.297
11866SOL    HW137431   6.565   8.217   8.329
11866SOL    HW237432   6.707   8.245   8.284
11867SOL     OW37433  10.856   1.988   4.022
11867SOL    HW137434  10.819   1.975   4.109
11867SOL    HW237435  10.887   2.078   4.022
11868SOL     OW37436   1.944   5.674   8.085
11868SOL    HW137437   1.974   5.743   8.145
11868SOL    HW237438   1.861   5.645   8.122
11869SOL     OW37439   0.968  11.664   5.660
11869SOL    HW137440   0.907  11.725   5.619
11869SOL    HW237441   0.920  11.581   5.664
11870SOL     OW37442  13.581  12.594   4.476
11870SOL    HW137443  13.572  12.500   4.491
11870SOL    HW237444  13.500  12.631   4.510
11871SOL     OW37445   2.022  14.385   7.671
11871SOL    HW137446   2.036  14.456   7.734
11871SOL    HW237447   2.110  14.352   7.653
11872SOL     OW37448   8.022  13.300   6.495
11872SOL    HW137449   8.085  13.298   6.422
11872SOL    HW237450   8.035  13.217   6.540
11873SOL     OW37451  11.201  11.640   8.761
11873SOL    HW137452  11.216  11.636   8.666
11873SOL    HW237453  11.109  11.619   8.772
11874SOL     OW37454  13.164   5.513  12.184
11874SOL    HW137455  13.101   5.495  12.115
11874SOL    HW237456  13.170   5.609  12.187
11875SOL     OW37457   1.040   6.887   5.083
11875SOL    HW137458   1.071   6.971   5.118
11875SOL    HW237459   0.947   6.902   5.065
11876SOL     OW37460  10.539   2.821  12.678
11876SOL    HW137461  10.570   2.736  12.646
11876SOL    HW237462  10.453   2.803  12.717
11877SOL     OW37463  12.049   1.355  13.105
11877SOL    HW137464  11.975   1.370  13.047
11877SOL    HW237465  12.060   1.437  13.153
11878SOL     OW37466  13.779  10.947  10.814
11878SOL    HW137467  13.709  10.902  10.767
11878SOL    HW237468  13.784  10.902  10.898
11879SOL     OW37469   9.403  14.807   8.267
11879SOL    HW137470   9.393   0.023   8.254
11879SOL    HW237471   9.369  14.791   8.354
11880SOL     OW37472  12.251   2.400  10.917
11880SOL    HW137473  12.195   2.430  10.989
11880SOL    HW237474  12.325   2.357  10.962
11881SOL     OW37475   6.787  11.069   0.058
11881SOL    HW137476   6.761  11.047  14.847
11881SOL    HW237477   6.715  11.038   0.113
11882SOL     OW37478  14.082   9.476   4.894
11882SOL    HW137479  13.997   9.513   4.869
11882SOL    HW237480  14.130   9.469   4.811
11883SOL     OW37481   1.121   7.625   2.955
11883SOL    HW137482   1.027   7.605   2.959
11883SOL    HW237483   1.149   7.626   3.046
11884SOL     OW37484   9.387   3.651   0.245
11884SOL    HW137485   9.338   3.692   0.316
11884SOL    HW237486   9.326   3.649   0.172
11885SOL     OW37487   2.105   1.797   2.651
11885SOL    HW137488   2.116   1.756   2.566
11885SOL    HW237489   2.188   1.842   2.668
11886SOL     OW37490   7.855   2.280   9.482
11886SOL    HW137491   7.891   2.207   9.433
11886SOL    HW237492   7.924   2.305   9.543
11887SOL     OW37493   7.016   3.279   8.308
11887SOL    HW137494   6.954   3.319   8.247
11887SOL    HW237495   7.060   3.211   8.256
11888SOL     OW37496  12.332   7.845   2.981
11888SOL    HW137497  12.256   7.891   2.945
11888SOL    HW237498  12.406   7.904   2.966
11889SOL     OW37499   7.878   2.940   5.109
11889SOL    HW137500   7.946   2.945   5.042
11889SOL    HW237501   7.925   2.936   5.192
11890SOL     OW37502  12.296   8.680   5.198
11890SOL    HW137503  12.291   8.624   5.275
11890SOL    HW237504  12.270   8.624   5.125
11891SOL     OW37505   2.525   1.896   0.594
11891SOL    HW137506   2.560   1.932   0.675
11891SOL    HW237507   2.601   1.860   0.548
11892SOL     OW37508   6.017  13.148   5.016
11892SOL    HW137509   5.998  13.131   4.924
11892SOL    HW237510   6.111  13.129   5.024
11893SOL     OW37511  11.894  14.396   6.955
11893SOL    HW137512  11.827  14.405   6.887
11893SOL    HW237513  11.962  14.342   6.915
11894SOL     OW37514   1.295   8.630   9.474
11894SOL    HW137515   1.323   8.587   9.555
11894SOL    HW237516   1.292   8.723   9.496
11895SOL     OW37517   0.859   4.800   5.254
11895SOL    HW137518   0.875   4.891   5.280
11895SOL    HW237519   0.835   4.755   5.335
11896SOL     OW37520  12.855   0.158   0.461
11896SOL    HW137521  12.862   0.074   0.507
11896SOL    HW237522  12.945   0.177   0.433
11897SOL     OW37523   9.211   1.856   9.598
11897SOL    HW137524   9.231   1.890   9.511
11897SOL    HW237525   9.297   1.831   9.634
11898SOL     OW37526   3.080   5.716  11.096
11898SOL    HW137527   3.132   5.687  11.171
11898SOL    HW237528   3.136   5.778  11.050
11899SOL     OW37529   7.832  14.259   8.326
11899SOL    HW137530   7.834  14.330   8.261
11899SOL    HW237531   7.921  14.222   8.324
11900SOL     OW37532   2.258   7.012   9.351
11900SOL    HW137533   2.351   6.990   9.353
11900SOL    HW237534   2.215   6.929   9.331
11901SOL     OW37535   1.376   7.137   4.487
11901SOL    HW137536   1.364   7.116   4.395
11901SOL    HW237537   1.288   7.139   4.523
11902SOL     OW37538   9.513   0.960   6.595
11902SOL    HW137539   9.577   0.902   6.553
11902SOL    HW237540   9.528   0.948   6.689
11903SOL     OW37541   2.362   9.106  13.872
11903SOL    HW137542   2.401   9.100  13.959
11903SOL    HW237543   2.400   9.033  13.823
11904SOL     OW37544   2.123  14.856  13.698
11904SOL    HW137545   2.212  14.875  13.725
11904SOL    HW237546   2.097  14.781  13.752
11905SOL     OW37547   1.396  13.515   6.122
11905SOL    HW137548   1.433  13.491   6.207
11905SOL    HW237549   1.469  13.507   6.060
11906SOL     OW37550   5.415  11.567  10.658
11906SOL    HW137551   5.395  11.557  10.751
11906SOL    HW237552   5.379  11.488  10.617
11907SOL     OW37553   4.861   3.240   8.736
11907SOL    HW137554   4.771   3.260   8.764
11907SOL    HW237555   4.885   3.313   8.679
11908SOL     OW37556   1.991  14.588   1.925
11908SOL    HW137557   1.984  14.499   1.959
11908SOL    HW237558   2.084  14.598   1.903
11909SOL     OW37559  10.735   3.003  14.874
11909SOL    HW137560  10.736   2.915   0.033
11909SOL    HW237561  10.720   2.990  14.781
11910SOL     OW37562   0.278  10.199   5.701
11910SOL    HW137563   0.370  10.185   5.722
11910SOL    HW237564   0.279  10.239   5.615
11911SOL     OW37565   4.966   3.379   6.908
11911SOL    HW137566   5.040   3.430   6.875
11911SOL    HW237567   4.889   3.428   6.878
11912SOL     OW37568   1.266  12.414   4.936
11912SOL    HW137569   1.236  12.325   4.954
11912SOL    HW237570   1.201  12.450   4.876
11913SOL     OW37571  12.946   3.091   2.250
11913SOL    HW137572  12.932   3.160   2.185
11913SOL    HW237573  12.953   3.011   2.198
11914SOL     OW37574  11.238   1.907  14.769
11914SOL    HW137575  11.170   1.892  14.704
11914SOL    HW237576  11.299   1.967  14.726
11915SOL     OW37577   5.738  11.636   0.257
11915SOL    HW137578   5.645  11.642   0.236
11915SOL    HW237579   5.774  11.582   0.187
11916SOL     OW37580   1.728  10.345   4.032
11916SOL    HW137581   1.723  10.296   4.115
11916SOL    HW237582   1.801  10.304   3.985
11917SOL     OW37583   3.411  14.535   7.068
11917SOL    HW137584   3.335  14.485   7.098
11917SOL    HW237585   3.403  14.537   6.972
11918SOL     OW37586   5.235  12.856   5.016
11918SOL    HW137587   5.223  12.842   4.922
11918SOL    HW237588   5.315  12.909   5.023
11919SOL     OW37589   2.854   7.547  12.671
11919SOL    HW137590   2.938   7.500  12.670
11919SOL    HW237591   2.817   7.527  12.757
11920SOL     OW37592   9.028   2.574   6.050
11920SOL    HW137593   9.037   2.649   5.991
11920SOL    HW237594   9.106   2.520   6.033
11921SOL     OW37595  12.628   2.918   2.387
11921SOL    HW137596  12.693   2.979   2.422
11921SOL    HW237597  12.595   2.960   2.307
11922SOL     OW37598   3.276   5.286   8.609
11922SOL    HW137599   3.203   5.225   8.596
11922SOL    HW237600   3.274   5.305   8.703
11923SOL     OW37601   3.540   9.052  13.309
11923SOL    HW137602   3.601   9.014  13.246
11923SOL    HW237603   3.454   9.018  13.284
11924SOL     OW37604   3.251   5.803   7.370
11924SOL    HW137605   3.287   5.740   7.308
11924SOL    HW237606   3.162   5.771   7.388
11925SOL     OW37607   3.304   5.279  11.708
11925SOL    HW137608   3.344   5.340  11.646
11925SOL    HW237609   3.241   5.332  11.757
11926SOL     OW37610   2.614   9.493  14.111
11926SOL    HW137611   2.677   9.487  14.039
11926SOL    HW237612   2.654   9.556  14.172
11927SOL     OW37613  14.746  13.277   9.444
11927SOL    HW137614  14.817  13.341   9.453
11927SOL    HW237615  14.789  13.193   9.457
11928SOL     OW37616   0.913   3.549   9.644
11928SOL    HW137617   0.823   3.562   9.614
11928SOL    HW237618   0.910   3.568   9.738
11929SOL     OW37619  13.983   7.421  10.470
11929SOL    HW137620  14.022   7.364  10.404
11929SOL    HW237621  13.979   7.507  10.428
11930SOL     OW37622  10.487   4.161  10.332
11930SOL    HW137623  10.580   4.178  10.320
11930SOL    HW237624  10.445   4.202  10.256
11931SOL     OW37625   1.799   9.072   3.105
11931SOL    HW137626   1.853   9.106   3.034
11931SOL    HW237627   1.798   8.977   3.091
11932SOL     OW37628   6.950  11.205   5.909
11932SOL    HW137629   6.922  11.255   5.833
11932SOL    HW237630   7.006  11.264   5.958
11933SOL     OW37631  13.875   5.413   8.456
11933SOL    HW137632  13.838   5.497   8.480
11933SOL    HW237633  13.836   5.393   8.371
11934SOL     OW37634   5.219   6.407   5.879
11934SOL    HW137635   5.225   6.455   5.961
11934SOL    HW237636   5.217   6.315   5.906
11935SOL     OW37637   3.595   3.786   2.992
11935SOL    HW137638   3.592   3.807   2.899
11935SOL    HW237639   3.527   3.720   3.004
11936SOL     OW37640   6.061  11.114  11.049
11936SOL    HW137641   6.013  11.041  11.008
11936SOL    HW237642   6.105  11.157  10.976
11937SOL     OW37643   0.016   1.223  10.237
11937SOL    HW137644   0.104   1.246  10.206
11937SOL    HW237645  14.872   1.144  10.188
11938SOL     OW37646   7.565  13.275  12.407
11938SOL    HW137647   7.651  13.237  12.394
11938SOL    HW237648   7.562  13.350  12.348
11939SOL     OW37649   0.852   4.404   5.038
11939SOL    HW137650   0.929   4.416   5.094
11939SOL    HW237651   0.779   4.438   5.090
11940SOL     OW37652   5.434  12.668   9.736
11940SOL    HW137653   5.368  12.663   9.667
11940SOL    HW237654   5.401  12.735   9.797
11941SOL     OW37655   1.161   8.299   9.139
11941SOL    HW137656   1.141   8.253   9.220
11941SOL    HW237657   1.117   8.384   9.147
11942SOL     OW37658   1.471   7.464  10.190
11942SOL    HW137659   1.552   7.457  10.139
11942SOL    HW237660   1.495   7.520  10.264
11943SOL     OW37661   6.714   5.488   0.740
11943SOL    HW137662   6.767   5.545   0.796
11943SOL    HW237663   6.629   5.484   0.784
11944SOL     OW37664   3.027  12.813   6.106
11944SOL    HW137665   3.072  12.754   6.168
11944SOL    HW237666   3.043  12.773   6.020
11945SOL     OW37667   5.112   8.203  13.717
11945SOL    HW137668   5.033   8.235  13.673
11945SOL    HW237669   5.171   8.180  13.646
11946SOL     OW37670   3.596   2.346   4.491
11946SOL    HW137671   3.627   2.321   4.404
11946SOL    HW237672   3.659   2.411   4.521
11947SOL     OW37673   3.864  11.031   5.882
11947SOL    HW137674   3.812  10.972   5.936
11947SOL    HW237675   3.953  10.996   5.886
11948SOL     OW37676   9.153   6.811  12.941
11948SOL    HW137677   9.080   6.847  12.890
11948SOL    HW237678   9.112   6.752  13.003
11949SOL     OW37679   6.119   7.390   0.235
11949SOL    HW137680   6.106   7.358   0.324
11949SOL    HW237681   6.192   7.338   0.201
11950SOL     OW37682   5.591  13.370   7.239
11950SOL    HW137683   5.581  13.423   7.318
11950SOL    HW237684   5.613  13.283   7.270
11951SOL     OW37685   4.246   7.176   4.300
11951SOL    HW137686   4.183   7.215   4.239
11951SOL    HW237687   4.192   7.134   4.366
11952SOL     OW37688   2.556  11.196   3.573
11952SOL    HW137689   2.631  11.211   3.630
11952SOL    HW237690   2.593  11.178   3.488
11953SOL     OW37691   4.193   9.134   2.212
11953SOL    HW137692   4.141   9.191   2.155
11953SOL    HW237693   4.179   9.046   2.176
11954SOL     OW37694   0.789   4.783  14.296
11954SOL    HW137695   0.858   4.797  14.231
11954SOL    HW237696   0.756   4.695  14.277
11955SOL     OW37697   5.141   6.946   2.752
11955SOL    HW137698   5.173   6.917   2.666
11955SOL    HW237699   5.181   6.886   2.814
11956SOL     OW37700   0.473   6.043   0.093
11956SOL    HW137701   0.388   6.019   0.129
11956SOL    HW237702   0.512   5.960   0.067
11957SOL     OW37703   5.660   9.728   9.209
11957SOL    HW137704   5.585   9.770   9.251
11957SOL    HW237705   5.652   9.753   9.116
11958SOL     OW37706   1.166   0.629  13.017
11958SOL    HW137707   1.157   0.533  13.021
11958SOL    HW237708   1.084   0.660  12.978
11959SOL     OW37709  11.373   5.410   1.250
11959SOL    HW137710  11.453   5.444   1.291
11959SOL    HW237711  11.344   5.482   1.193
11960SOL     OW37712   0.342   1.953   2.339
11960SOL    HW137713   0.290   1.876   2.363
11960SOL    HW237714   0.414   1.918   2.287
11961SOL     OW37715  14.818   0.537   8.649
11961SOL    HW137716  14.775   0.554   8.733
11961SOL    HW237717  14.800   0.445   8.631
11962SOL     OW37718  14.515  14.830   8.833
11962SOL    HW137719  14.495   0.039   8.866
11962SOL    HW237720  14.430  14.785   8.831
11963SOL     OW37721   4.429   7.418   1.857
11963SOL    HW137722   4.421   7.335   1.904
11963SOL    HW237723   4.444   7.393   1.766
11964SOL     OW37724   3.769   9.538   4.197
11964SOL    HW137725   3.798   9.523   4.287
11964SOL    HW237726   3.801   9.626   4.176
11965SOL     OW37727  14.409  11.935  12.261
11965SOL    HW137728  14.444  12.009  12.211
11965SOL    HW237729  14.401  11.969  12.351
11966SOL     OW37730   0.578   5.205   2.235
11966SOL    HW137731   0.559   5.270   2.168
11966SOL    HW237732   0.673   5.191   2.229
11967SOL     OW37733   5.673   9.856   8.955
11967SOL    HW137734   5.590   9.898   8.930
11967SOL    HW237735   5.730   9.869   8.879
11968SOL     OW37736  13.192   0.858   5.673
11968SOL    HW137737  13.213   0.765   5.671
11968SOL    HW237738  13.176   0.881   5.582
11969SOL     OW37739  12.438   0.823   3.119
11969SOL    HW137740  12.391   0.852   3.197
11969SOL    HW237741  12.497   0.754   3.150
11970SOL     OW37742   2.393   4.851  10.805
11970SOL    HW137743   2.468   4.884  10.856
11970SOL    HW237744   2.380   4.762  10.838
11971SOL     OW37745  13.969   8.405   2.280
11971SOL    HW137746  13.989   8.331   2.338
11971SOL    HW237747  13.874   8.400   2.267
11972SOL     OW37748   2.552   3.827   7.624
11972SOL    HW137749   2.625   3.853   7.568
11972SOL    HW237750   2.474   3.845   7.571
11973SOL     OW37751  13.110   5.367   3.119
11973SOL    HW137752  13.128   5.279   3.151
11973SOL    HW237753  13.151   5.426   3.183
11974SOL     OW37754   5.140   5.283  11.399
11974SOL    HW137755   5.226   5.244  11.383
11974SOL    HW237756   5.115   5.323  11.316
11975SOL     OW37757   5.423   5.267   6.896
11975SOL    HW137758   5.443   5.226   6.980
11975SOL    HW237759   5.328   5.282   6.899
11976SOL     OW37760  11.833  10.394  10.903
11976SOL    HW137761  11.761  10.347  10.946
11976SOL    HW237762  11.909  10.336  10.914
11977SOL     OW37763  10.698  11.653   8.223
11977SOL    HW137764  10.685  11.715   8.295
11977SOL    HW237765  10.758  11.697   8.163
11978SOL     OW37766  12.037  13.946   0.710
11978SOL    HW137767  12.006  13.886   0.778
11978SOL    HW237768  12.043  13.891   0.632
11979SOL     OW37769  13.864   8.650   0.424
11979SOL    HW137770  13.878   8.574   0.369
11979SOL    HW237771  13.948   8.696   0.423
11980SOL     OW37772   3.386  11.917   7.748
11980SOL    HW137773   3.369  11.900   7.656
11980SOL    HW237774   3.305  11.954   7.782
11981SOL     OW37775   3.366   8.550  10.676
11981SOL    HW137776   3.367   8.496  10.597
11981SOL    HW237777   3.395   8.636  10.646
11982SOL     OW37778  14.311   7.225  11.394
11982SOL    HW137779  14.230   7.222  11.446
11982SOL    HW237780  14.367   7.159  11.435
11983SOL     OW37781   7.920  13.387   4.586
11983SOL    HW137782   7.941  13.420   4.498
11983SOL    HW237783   7.999  13.405   4.637
11984SOL     OW37784   0.576   5.286  11.815
11984SOL    HW137785   0.655   5.310  11.864
11984SOL    HW237786   0.528   5.369  11.806
11985SOL     OW37787   8.251   2.025  14.402
11985SOL    HW137788   8.333   2.060  14.368
11985SOL    HW237789   8.207   2.100  14.441
11986SOL     OW37790  13.342   1.762   6.964
11986SOL    HW137791  13.331   1.668   6.951
11986SOL    HW237792  13.414   1.769   7.028
11987SOL     OW37793  11.580   2.138   7.617
11987SOL    HW137794  11.605   2.220   7.574
11987SOL    HW237795  11.484   2.141   7.620
11988SOL     OW37796  13.100  11.041   5.178
11988SOL    HW137797  13.101  11.084   5.092
11988SOL    HW237798  13.117  10.949   5.159
11989SOL     OW37799  10.626   0.358  11.508
11989SOL    HW137800  10.533   0.361  11.531
11989SOL    HW237801  10.668   0.315  11.583
11990SOL     OW37802   1.073   7.008  13.351
11990SOL    HW137803   1.094   6.923  13.389
11990SOL    HW237804   1.111   7.072  13.411
11991SOL     OW37805   2.804   6.211   8.725
11991SOL    HW137806   2.764   6.133   8.686
11991SOL    HW237807   2.758   6.223   8.808
11992SOL     OW37808   2.419  14.850   5.662
11992SOL    HW137809   2.438  14.756   5.670
11992SOL    HW237810   2.409   0.001   5.752
11993SOL     OW37811   3.867  11.623  12.441
11993SOL    HW137812   3.959  11.607  12.459
11993SOL    HW237813   3.822  11.546  12.475
11994SOL     OW37814  11.279  11.386   1.164
11994SOL    HW137815  11.356  11.382   1.220
11994SOL    HW237816  11.288  11.469   1.118
11995SOL     OW37817   9.057   0.823   8.055
11995SOL    HW137818   9.136   0.846   8.007
11995SOL    HW237819   9.073   0.735   8.089
11996SOL     OW37820   6.854   6.297   0.548
11996SOL    HW137821   6.803   6.276   0.625
11996SOL    HW237822   6.843   6.392   0.537
11997SOL     OW37823   1.547   0.283  12.611
11997SOL    HW137824   1.622   0.305  12.665
11997SOL    HW237825   1.584   0.237  12.536
11998SOL     OW37826   3.614   2.494  13.826
11998SOL    HW137827   3.686   2.482  13.887
11998SOL    HW237828   3.643   2.450  13.746
11999SOL     OW37829  12.058   1.074   5.554
11999SOL    HW137830  12.136   1.047   5.602
11999SOL    HW237831  11.987   1.068   5.618
12000SOL     OW37832   0.985  13.963   7.646
12000SOL    HW137833   1.027  14.040   7.685
12000SOL    HW237834   1.011  13.891   7.704
12001SOL     OW37835  10.754   6.061   0.710
12001SOL    HW137836  10.768   5.973   0.675
12001SOL    HW237837  10.815   6.067   0.783
12002SOL     OW37838   3.375   7.667  10.367
12002SOL    HW137839   3.373   7.752  10.322
12002SOL    HW237840   3.330   7.683  10.450
12003SOL     OW37841   3.620   5.523   8.981
12003SOL    HW137842   3.653   5.463   8.915
12003SOL    HW237843   3.555   5.471   9.030
12004SOL     OW37844   6.102   7.726  11.630
12004SOL    HW137845   6.180   7.698  11.584
12004SOL    HW237846   6.061   7.644  11.659
12005SOL     OW37847  14.682   0.473   1.672
12005SOL    HW137848  14.777   0.461   1.666
12005SOL    HW237849  14.668   0.564   1.646
12006SOL     OW37850  11.552   1.144  11.407
12006SOL    HW137851  11.492   1.208  11.445
12006SOL    HW237852  11.572   1.084  11.480
12007SOL     OW37853   7.447  14.744   4.930
12007SOL    HW137854   7.504  14.723   5.004
12007SOL    HW237855   7.375  14.793   4.969
12008SOL     OW37856  14.062   9.819  10.966
12008SOL    HW137857  14.153   9.844  10.981
12008SOL    HW237858  14.011   9.879  11.020
12009SOL     OW37859   5.970   2.244   0.078
12009SOL    HW137860   5.984   2.339   0.084
12009SOL    HW237861   5.954   2.216   0.168
12010SOL     OW37862   9.496   9.062  11.505
12010SOL    HW137863   9.587   9.085  11.527
12010SOL    HW237864   9.444   9.106  11.572
12011SOL     OW37865  10.728  11.478   6.284
12011SOL    HW137866  10.808  11.473   6.336
12011SOL    HW237867  10.755  11.521   6.202
12012SOL     OW37868   3.126   8.893   0.193
12012SOL    HW137869   3.213   8.905   0.229
12012SOL    HW237870   3.103   8.978   0.155
12013SOL     OW37871   0.036   9.686  12.891
12013SOL    HW137872  14.875   9.729  12.967
12013SOL    HW237873   0.113   9.642  12.926
12014SOL     OW37874  11.550   6.624   0.903
12014SOL    HW137875  11.548   6.611   0.997
12014SOL    HW237876  11.585   6.713   0.892
12015SOL     OW37877   1.057  14.639  12.457
12015SOL    HW137878   1.018  14.623  12.371
12015SOL    HW237879   1.072  14.734  12.459
12016SOL     OW37880   4.144   6.186   5.558
12016SOL    HW137881   4.143   6.091   5.572
12016SOL    HW237882   4.060   6.204   5.515
12017SOL     OW37883   3.440   8.414  11.358
12017SOL    HW137884   3.461   8.507  11.359
12017SOL    HW237885   3.349   8.410  11.327
12018SOL     OW37886   5.026  12.423   2.164
12018SOL    HW137887   5.017  12.481   2.240
12018SOL    HW237888   5.069  12.478   2.098
12019SOL     OW37889   3.581  10.682  13.795
12019SOL    HW137890   3.524  10.728  13.857
12019SOL    HW237891   3.669  10.712  13.817
12020SOL     OW37892   6.703   6.424   9.920
12020SOL    HW137893   6.767   6.353   9.919
12020SOL    HW237894   6.733   6.485   9.853
12021SOL     OW37895   0.813   1.184  13.842
12021SOL    HW137896   0.803   1.265  13.891
12021SOL    HW237897   0.738   1.130  13.867
12022SOL     OW37898   9.943   7.901   2.188
12022SOL    HW137899   9.870   7.842   2.169
12022SOL    HW237900  10.017   7.864   2.140
12023SOL     OW37901  10.506  12.685  14.249
12023SOL    HW137902  10.563  12.681  14.326
12023SOL    HW237903  10.551  12.747  14.191
12024SOL     OW37904   7.037   0.911  12.125
12024SOL    HW137905   7.054   0.935  12.034
12024SOL    HW237906   7.122   0.916  12.167
12025SOL     OW37907  10.997   5.694  12.098
12025SOL    HW137908  10.945   5.729  12.026
12025SOL    HW237909  11.087   5.718  12.076
12026SOL     OW37910  10.902   2.264   1.706
12026SOL    HW137911  10.813   2.241   1.676
12026SOL    HW237912  10.900   2.247   1.800
12027SOL     OW37913  12.446   2.185  14.556
12027SOL    HW137914  12.469   2.164  14.646
12027SOL    HW237915  12.520   2.235  14.523
12028SOL     OW37916  12.071   3.968  14.393
12028SOL    HW137917  12.090   3.880  14.359
12028SOL    HW237918  12.109   3.969  14.480
12029SOL     OW37919  14.837   2.022  12.646
12029SOL    HW137920   0.018   2.071  12.590
12029SOL    HW237921   0.001   2.020  12.731
12030SOL     OW37922  13.626   1.432   5.564
12030SOL    HW137923  13.677   1.513   5.561
12030SOL    HW237924  13.691   1.364   5.584
12031SOL     OW37925   7.979   6.511   0.976
12031SOL    HW137926   7.956   6.463   0.896
12031SOL    HW237927   7.900   6.508   1.030
12032SOL     OW37928  14.569   4.173   4.166
12032SOL    HW137929  14.577   4.081   4.141
12032SOL    HW237930  14.550   4.219   4.085
12033SOL     OW37931  10.951   6.495   0.675
12033SOL    HW137932  10.917   6.415   0.634
12033SOL    HW237933  11.021   6.464   0.733
12034SOL     OW37934   5.258   1.973   5.343
12034SOL    HW137935   5.168   1.989   5.373
12034SOL    HW237936   5.271   1.879   5.355
12035SOL     OW37937   6.678  12.748  11.019
12035SOL    HW137938   6.616  12.773  11.088
12035SOL    HW237939   6.681  12.825  10.961
12036SOL     OW37940   2.072  10.996  13.294
12036SOL    HW137941   2.052  10.916  13.343
12036SOL    HW237942   1.987  11.029  13.266
12037SOL     OW37943  11.638  10.827   8.287
12037SOL    HW137944  11.640  10.759   8.220
12037SOL    HW237945  11.546  10.834   8.311
12038SOL     OW37946  12.786  14.161  12.860
12038SOL    HW137947  12.700  14.120  12.850
12038SOL    HW237948  12.770  14.253  12.840
12039SOL     OW37949   1.508   3.071  14.654
12039SOL    HW137950   1.507   3.129  14.731
12039SOL    HW237951   1.583   3.013  14.669
12040SOL     OW37952   5.766   0.446   4.446
12040SOL    HW137953   5.746   0.405   4.530
12040SOL    HW237954   5.686   0.436   4.395
12041SOL     OW37955   2.551   6.901   2.999
12041SOL    HW137956   2.605   6.822   2.989
12041SOL    HW237957   2.545   6.938   2.911
12042SOL     OW37958   2.312   2.119   2.886
12042SOL    HW137959   2.267   2.097   2.968
12042SOL    HW237960   2.393   2.068   2.888
12043SOL     OW37961   0.597   2.997   9.713
12043SOL    HW137962   0.582   2.939   9.787
12043SOL    HW237963   0.547   2.957   9.641
12044SOL     OW37964   0.178   3.221  14.412
12044SOL    HW137965   0.188   3.131  14.383
12044SOL    HW237966   0.168   3.272  14.332
12045SOL     OW37967  14.238   3.551   7.293
12045SOL    HW137968  14.175   3.619   7.320
12045SOL    HW237969  14.184   3.475   7.274
12046SOL     OW37970   8.822   0.816  12.812
12046SOL    HW137971   8.734   0.823  12.851
12046SOL    HW237972   8.840   0.722  12.810
12047SOL     OW37973   8.561   0.386   0.911
12047SOL    HW137974   8.484   0.426   0.870
12047SOL    HW237975   8.557   0.294   0.884
12048SOL     OW37976  13.714   7.944   0.502
12048SOL    HW137977  13.652   7.880   0.469
12048SOL    HW237978  13.743   7.992   0.424
12049SOL     OW37979   2.530   4.568   5.928
12049SOL    HW137980   2.569   4.483   5.908
12049SOL    HW237981   2.573   4.628   5.867
12050SOL     OW37982  13.496   8.569   0.270
12050SOL    HW137983  13.457   8.623   0.339
12050SOL    HW237984  13.426   8.507   0.246
12051SOL     OW37985   6.609  13.478   6.623
12051SOL    HW137986   6.548  13.406   6.608
12051SOL    HW237987   6.559  13.541   6.675
12052SOL     OW37988   8.203   2.830   7.152
12052SOL    HW137989   8.269   2.836   7.221
12052SOL    HW237990   8.243   2.872   7.076
12053SOL     OW37991  12.505  13.160   1.142
12053SOL    HW137992  12.493  13.171   1.237
12053SOL    HW237993  12.593  13.194   1.125
12054SOL     OW37994   0.848   7.022  12.530
12054SOL    HW137995   0.874   7.030  12.622
12054SOL    HW237996   0.762   7.064  12.526
12055SOL     OW37997  14.011  14.379  11.703
12055SOL    HW137998  14.062  14.455  11.676
12055SOL    HW237999  14.073  14.306  11.705
12056SOL     OW38000   0.448  11.742   2.000
12056SOL    HW138001   0.356  11.735   2.025
12056SOL    HW238002   0.459  11.676   1.932
12057SOL     OW38003   4.957   2.160  11.791
12057SOL    HW138004   4.923   2.092  11.850
12057SOL    HW238005   4.924   2.242  11.828
12058SOL     OW38006   9.845   0.109   5.662
12058SOL    HW138007   9.837   0.067   5.576
12058SOL    HW238008   9.928   0.075   5.697
12059SOL     OW38009  13.729   6.639  12.517
12059SOL    HW138010  13.766   6.600  12.596
12059SOL    HW238011  13.740   6.733  12.528
12060SOL     OW38012   0.492  10.028   5.194
12060SOL    HW138013   0.578  10.033   5.152
12060SOL    HW238014   0.448  10.108   5.167
12061SOL     OW38015  13.274   1.873   0.377
12061SOL    HW138016  13.269   1.912   0.290
12061SOL    HW238017  13.293   1.946   0.436
12062SOL     OW38018   1.754   2.866  10.274
12062SOL    HW138019   1.716   2.779  10.261
12062SOL    HW238020   1.832   2.850  10.328
12063SOL     OW38021  13.792   1.031  10.379
12063SOL    HW138022  13.711   1.058  10.421
12063SOL    HW238023  13.847   1.002  10.452
12064SOL     OW38024   6.895   8.248   9.954
12064SOL    HW138025   6.898   8.207   9.868
12064SOL    HW238026   6.966   8.312   9.953
12065SOL     OW38027   9.202  11.003   5.442
12065SOL    HW138028   9.235  11.015   5.353
12065SOL    HW238029   9.107  11.013   5.435
12066SOL     OW38030   7.609   8.028   8.551
12066SOL    HW138031   7.549   8.026   8.626
12066SOL    HW238032   7.696   8.037   8.590
12067SOL     OW38033   1.577   8.381   5.816
12067SOL    HW138034   1.588   8.459   5.761
12067SOL    HW238035   1.663   8.339   5.815
12068SOL     OW38036   2.297   7.881  10.170
12068SOL    HW138037   2.372   7.939  10.184
12068SOL    HW238038   2.323   7.823  10.098
12069SOL     OW38039   8.442  11.761   7.525
12069SOL    HW138040   8.388  11.701   7.577
12069SOL    HW238041   8.502  11.704   7.477
12070SOL     OW38042   3.620   0.182   4.671
12070SOL    HW138043   3.660   0.268   4.686
12070SOL    HW238044   3.575   0.161   4.753
12071SOL     OW38045   4.622   6.629   8.938
12071SOL    HW138046   4.666   6.573   8.873
12071SOL    HW238047   4.675   6.708   8.940
12072SOL     OW38048  10.578  12.042   1.160
12072SOL    HW138049  10.597  12.031   1.066
12072SOL    HW238050  10.532  11.962   1.184
12073SOL     OW38051   7.517   3.974   6.511
12073SOL    HW138052   7.461   4.020   6.574
12073SOL    HW238053   7.478   3.886   6.504
12074SOL     OW38054   6.382   8.781  14.259
12074SOL    HW138055   6.467   8.773  14.302
12074SOL    HW238056   6.352   8.690  14.250
12075SOL     OW38057  11.742   4.764   6.604
12075SOL    HW138058  11.703   4.692   6.656
12075SOL    HW238059  11.836   4.753   6.615
12076SOL     OW38060   8.446   1.042  10.526
12076SOL    HW138061   8.515   1.089  10.478
12076SOL    HW238062   8.368   1.053  10.472
12077SOL     OW38063   8.696  14.417  11.148
12077SOL    HW138064   8.703  14.509  11.174
12077SOL    HW238065   8.667  14.372  11.227
12078SOL     OW38066   4.995   1.056   8.044
12078SOL    HW138067   4.960   0.982   7.994
12078SOL    HW238068   4.948   1.132   8.010
12079SOL     OW38069   7.154   2.372  13.204
12079SOL    HW138070   7.167   2.283  13.237
12079SOL    HW238071   7.170   2.428  13.280
12080SOL     OW38072  13.643  13.448  11.879
12080SOL    HW138073  13.704  13.439  11.806
12080SOL    HW238074  13.590  13.369  11.876
12081SOL     OW38075   9.783   0.236   2.170
12081SOL    HW138076   9.803   0.148   2.201
12081SOL    HW238077   9.856   0.258   2.112
12082SOL     OW38078  13.077  10.950  11.518
12082SOL    HW138079  13.092  11.019  11.582
12082SOL    HW238080  13.131  10.877  11.548
12083SOL     OW38081  14.213   7.485  14.373
12083SOL    HW138082  14.190   7.529  14.291
12083SOL    HW238083  14.146   7.514  14.435
12084SOL     OW38084   2.078  12.559  10.610
12084SOL    HW138085   2.060  12.558  10.516
12084SOL    HW238086   2.039  12.478  10.643
12085SOL     OW38087  11.977  11.316  10.442
12085SOL    HW138088  11.908  11.360  10.492
12085SOL    HW238089  11.932  11.285  10.363
12086SOL     OW38090   6.459  13.675   6.745
12086SOL    HW138091   6.490  13.729   6.818
12086SOL    HW238092   6.406  13.734   6.692
12087SOL     OW38093   2.021   7.957  10.499
12087SOL    HW138094   2.043   7.877  10.547
12087SOL    HW238095   2.103   7.983  10.457
12088SOL     OW38096   6.155  14.815   8.287
12088SOL    HW138097   6.100  14.855   8.354
12088SOL    HW238098   6.111  14.734   8.265
12089SOL     OW38099   1.556  12.490   9.272
12089SOL    HW138100   1.606  12.562   9.311
12089SOL    HW238101   1.467  12.503   9.304
12090SOL     OW38102  10.717   1.525   0.816
12090SOL    HW138103  10.641   1.467   0.816
12090SOL    HW238104  10.721   1.560   0.905
12091SOL     OW38105  12.673  11.269   3.252
12091SOL    HW138106  12.688  11.187   3.205
12091SOL    HW238107  12.734  11.331   3.211
12092SOL     OW38108   3.960   7.681  13.194
12092SOL    HW138109   3.902   7.745  13.151
12092SOL    HW238110   3.901   7.628  13.247
12093SOL     OW38111  10.066   1.168   9.672
12093SOL    HW138112  10.035   1.258   9.666
12093SOL    HW238113  10.012   1.119   9.611
12094SOL     OW38114   3.599   2.735  10.350
12094SOL    HW138115   3.662   2.671  10.384
12094SOL    HW238116   3.654   2.803  10.311
12095SOL     OW38117   9.059  13.361  11.970
12095SOL    HW138118   8.994  13.361  12.040
12095SOL    HW238119   9.052  13.274  11.931
12096SOL     OW38120   8.266   6.394   0.548
12096SOL    HW138121   8.178   6.364   0.525
12096SOL    HW238122   8.251   6.469   0.606
12097SOL     OW38123   3.236   7.802   2.389
12097SOL    HW138124   3.205   7.872   2.446
12097SOL    HW238125   3.253   7.729   2.448
12098SOL     OW38126  12.116   9.200   4.619
12098SOL    HW138127  12.146   9.242   4.538
12098SOL    HW238128  12.045   9.256   4.650
12099SOL     OW38129   3.014  10.906   3.743
12099SOL    HW138130   3.108  10.894   3.736
12099SOL    HW238131   2.986  10.928   3.654
12100SOL     OW38132   4.107   1.842  12.291
12100SOL    HW138133   4.111   1.746  12.287
12100SOL    HW238134   4.020   1.860  12.327
12101SOL     OW38135   1.194   7.580  12.202
12101SOL    HW138136   1.184   7.605  12.294
12101SOL    HW238137   1.132   7.508  12.189
12102SOL     OW38138   9.663  13.577  14.343
12102SOL    HW138139   9.569  13.564  14.331
12102SOL    HW238140   9.694  13.493  14.378
12103SOL     OW38141   3.308   8.142   8.073
12103SOL    HW138142   3.252   8.147   7.995
12103SOL    HW238143   3.383   8.090   8.045
12104SOL     OW38144   5.099   4.281   6.373
12104SOL    HW138145   5.173   4.335   6.344
12104SOL    HW238146   5.048   4.337   6.431
12105SOL     OW38147  14.236   9.386   7.574
12105SOL    HW138148  14.229   9.446   7.500
12105SOL    HW238149  14.229   9.299   7.535
12106SOL     OW38150   5.994  10.916   8.852
12106SOL    HW138151   6.056  10.985   8.874
12106SOL    HW238152   6.040  10.835   8.873
12107SOL     OW38153   1.481   1.298  13.974
12107SOL    HW138154   1.448   1.382  13.943
12107SOL    HW238155   1.576   1.307  13.971
12108SOL     OW38156  14.855   6.475  12.033
12108SOL    HW138157  14.769   6.516  12.028
12108SOL    HW238158   0.013   6.486  11.945
12109SOL     OW38159   9.255   5.131   6.199
12109SOL    HW138160   9.228   5.133   6.291
12109SOL    HW238161   9.322   5.199   6.191
12110SOL     OW38162   7.965  12.343  11.371
12110SOL    HW138163   7.969  12.438  11.367
12110SOL    HW238164   8.006  12.321  11.455
12111SOL     OW38165  10.465   6.916   4.412
12111SOL    HW138166  10.372   6.928   4.393
12111SOL    HW238167  10.509   6.977   4.353
12112SOL     OW38168   7.579   9.694   5.725
12112SOL    HW138169   7.646   9.638   5.764
12112SOL    HW238170   7.590   9.778   5.769
12113SOL     OW38171   6.027  13.626   5.776
12113SOL    HW138172   6.013  13.610   5.869
12113SOL    HW238173   6.069  13.547   5.743
12114SOL     OW38174   7.833   5.623   0.436
12114SOL    HW138175   7.880   5.547   0.401
12114SOL    HW238176   7.742   5.593   0.442
12115SOL     OW38177   0.985   1.640   0.064
12115SOL    HW138178   1.021   1.551   0.067
12115SOL    HW238179   1.051   1.690   0.016
12116SOL     OW38180   5.929   6.796  12.167
12116SOL    HW138181   5.958   6.838  12.248
12116SOL    HW238182   5.967   6.708  12.171
12117SOL     OW38183  11.268   4.068  12.806
12117SOL    HW138184  11.300   4.081  12.716
12117SOL    HW238185  11.263   4.156  12.843
12118SOL     OW38186   1.538   0.353   1.330
12118SOL    HW138187   1.493   0.371   1.247
12118SOL    HW238188   1.540   0.257   1.335
12119SOL     OW38189   9.700   5.464   2.825
12119SOL    HW138190   9.780   5.446   2.874
12119SOL    HW238191   9.639   5.397   2.853
12120SOL     OW38192   0.821  12.369   4.514
12120SOL    HW138193   0.769  12.397   4.439
12120SOL    HW238194   0.887  12.310   4.476
12121SOL     OW38195   1.990  11.117  11.480
12121SOL    HW138196   1.901  11.145  11.460
12121SOL    HW238197   1.985  11.077  11.566
12122SOL     OW38198   3.921   4.055   3.494
12122SOL    HW138199   4.013   4.045   3.519
12122SOL    HW238200   3.871   4.015   3.565
12123SOL     OW38201  13.747  13.840   2.043
12123SOL    HW138202  13.792  13.874   2.121
12123SOL    HW238203  13.809  13.855   1.972
12124SOL     OW38204   4.338   5.108  10.509
12124SOL    HW138205   4.382   5.151  10.582
12124SOL    HW238206   4.257   5.073  10.546
12125SOL     OW38207   3.873  14.139   1.719
12125SOL    HW138208   3.819  14.127   1.641
12125SOL    HW238209   3.844  14.221   1.757
12126SOL     OW38210   8.123  11.990   7.648
12126SOL    HW138211   8.100  11.930   7.719
12126SOL    HW238212   8.091  11.947   7.569
12127SOL     OW38213   9.625   9.458   9.397
12127SOL    HW138214   9.665   9.372   9.408
12127SOL    HW238215   9.647   9.506   9.477
12128SOL     OW38216   4.384   3.472  11.949
12128SOL    HW138217   4.299   3.429  11.950
12128SOL    HW238218   4.445   3.405  11.979
12129SOL     OW38219   5.906   7.112  12.391
12129SOL    HW138220   5.958   7.112  12.471
12129SOL    HW238221   5.956   7.166  12.330
12130SOL     OW38222   4.253   2.913   0.666
12130SOL    HW138223   4.231   2.987   0.609
12130SOL    HW238224   4.275   2.954   0.750
12131SOL     OW38225   7.537   8.843   3.246
12131SOL    HW138226   7.597   8.774   3.217
12131SOL    HW238227   7.552   8.849   3.341
12132SOL     OW38228  13.741  13.829   6.567
12132SOL    HW138229  13.700  13.743   6.578
12132SOL    HW238230  13.704  13.862   6.485
12133SOL     OW38231   2.523  12.995  14.138
12133SOL    HW138232   2.557  13.075  14.099
12133SOL    HW238233   2.540  12.927  14.073
12134SOL     OW38234   5.270  12.629   7.455
12134SOL    HW138235   5.350  12.630   7.402
12134SOL    HW238236   5.223  12.550   7.428
12135SOL     OW38237  14.625   8.110  12.100
12135SOL    HW138238  14.655   8.022  12.122
12135SOL    HW238239  14.617   8.155  12.184
12136SOL     OW38240   1.221  11.054  12.819
12136SOL    HW138241   1.286  11.115  12.783
12136SOL    HW238242   1.261  10.968  12.809
12137SOL     OW38243  11.438   2.997   2.529
12137SOL    HW138244  11.414   3.080   2.487
12137SOL    HW238245  11.388   2.996   2.610
12138SOL     OW38246   1.616   4.938   5.775
12138SOL    HW138247   1.585   4.933   5.865
12138SOL    HW238248   1.646   5.028   5.764
12139SOL     OW38249  14.688  10.796   8.556
12139SOL    HW138250  14.622  10.822   8.492
12139SOL    HW238251  14.733  10.878   8.578
12140SOL     OW38252   3.572  14.014  11.133
12140SOL    HW138253   3.602  14.079  11.070
12140SOL    HW238254   3.483  14.041  11.155
12141SOL     OW38255   9.389  14.760  10.167
12141SOL    HW138256   9.463  14.806  10.128
12141SOL    HW238257   9.317  14.824  10.164
12142SOL     OW38258  11.028   6.361  13.832
12142SOL    HW138259  11.003   6.345  13.741
12142SOL    HW238260  11.058   6.276  13.865
12143SOL     OW38261   1.404   8.640  14.085
12143SOL    HW138262   1.330   8.629  14.026
12143SOL    HW238263   1.442   8.553  14.094
12144SOL     OW38264  12.053   2.901   8.287
12144SOL    HW138265  12.033   2.835   8.221
12144SOL    HW238266  12.001   2.876   8.363
12145SOL     OW38267   2.335   5.800  12.508
12145SOL    HW138268   2.383   5.767  12.432
12145SOL    HW238269   2.403   5.817  12.573
12146SOL     OW38270   0.693   4.377   5.992
12146SOL    HW138271   0.662   4.462   6.023
12146SOL    HW238272   0.645   4.362   5.911
12147SOL     OW38273  14.741  12.356  11.158
12147SOL    HW138274  14.742  12.366  11.062
12147SOL    HW238275  14.762  12.263  11.171
12148SOL     OW38276   5.312   8.535   3.325
12148SOL    HW138277   5.359   8.542   3.407
12148SOL    HW238278   5.221   8.520   3.351
12149SOL     OW38279  13.689  14.872   2.468
12149SOL    HW138280  13.667   0.080   2.435
12149SOL    HW238281  13.761   0.008   2.529
12150SOL     OW38282   4.749   5.940  10.399
12150SOL    HW138283   4.762   5.863  10.344
12150SOL    HW238284   4.685   5.912  10.464
12151SOL     OW38285  13.874  14.340   4.500
12151SOL    HW138286  13.938  14.312   4.435
12151SOL    HW238287  13.909  14.421   4.536
12152SOL     OW38288   3.704   5.888   1.512
12152SOL    HW138289   3.705   5.970   1.464
12152SOL    HW238290   3.722   5.913   1.603
12153SOL     OW38291   5.880   6.784   4.155
12153SOL    HW138292   5.919   6.696   4.153
12153SOL    HW238293   5.903   6.822   4.070
12154SOL     OW38294  13.137   7.460   8.027
12154SOL    HW138295  13.092   7.495   7.950
12154SOL    HW238296  13.184   7.384   7.995
12155SOL     OW38297   3.482   4.905  11.687
12155SOL    HW138298   3.418   4.956  11.637
12155SOL    HW238299   3.430   4.836  11.729
12156SOL     OW38300   6.505   9.877   9.513
12156SOL    HW138301   6.465   9.799   9.550
12156SOL    HW238302   6.442   9.907   9.447
12157SOL     OW38303  13.148   1.493   8.388
12157SOL    HW138304  13.062   1.498   8.345
12157SOL    HW238305  13.127   1.481   8.481
12158SOL     OW38306   9.825   5.296   3.910
12158SOL    HW138307   9.899   5.236   3.906
12158SOL    HW238308   9.777   5.282   3.828
12159SOL     OW38309  11.058   3.716  14.069
12159SOL    HW138310  11.042   3.635  14.020
12159SOL    HW238311  11.139   3.751  14.031
12160SOL     OW38312  12.277   7.562  11.703
12160SOL    HW138313  12.232   7.576  11.787
12160SOL    HW238314  12.223   7.497  11.658
12161SOL     OW38315   7.604   6.552   8.926
12161SOL    HW138316   7.675   6.548   8.861
12161SOL    HW238317   7.531   6.506   8.885
12162SOL     OW38318   0.367   0.547  13.196
12162SOL    HW138319   0.373   0.610  13.125
12162SOL    HW238320   0.419   0.472  13.167
12163SOL     OW38321   4.267   5.668   9.246
12163SOL    HW138322   4.349   5.626   9.272
12163SOL    HW238323   4.208   5.655   9.321
12164SOL     OW38324   4.212   9.369   6.270
12164SOL    HW138325   4.141   9.431   6.289
12164SOL    HW238326   4.243   9.394   6.183
12165SOL     OW38327   4.381   4.624  14.208
12165SOL    HW138328   4.399   4.530  14.209
12165SOL    HW238329   4.366   4.647  14.300
12166SOL     OW38330   6.730  12.279   6.240
12166SOL    HW138331   6.763  12.233   6.317
12166SOL    HW238332   6.730  12.371   6.265
12167SOL     OW38333  14.755  14.636  10.227
12167SOL    HW138334  14.837  14.660  10.184
12167SOL    HW238335  14.690  14.693  10.188
12168SOL     OW38336   9.516   3.649   8.469
12168SOL    HW138337   9.486   3.602   8.546
12168SOL    HW238338   9.510   3.585   8.398
12169SOL     OW38339   9.921  12.923  14.247
12169SOL    HW138340   9.897  12.893  14.335
12169SOL    HW238341  10.016  12.937  14.251
12170SOL     OW38342   0.213   9.026   7.630
12170SOL    HW138343   0.203   8.934   7.653
12170SOL    HW238344   0.168   9.035   7.545
12171SOL     OW38345   4.696   0.338   8.077
12171SOL    HW138346   4.675   0.300   8.162
12171SOL    HW238347   4.791   0.350   8.079
12172SOL     OW38348   9.422  13.603   9.956
12172SOL    HW138349   9.429  13.586  10.050
12172SOL    HW238350   9.495  13.662   9.937
12173SOL     OW38351   5.929  11.613   1.443
12173SOL    HW138352   5.915  11.538   1.502
12173SOL    HW238353   5.842  11.631   1.407
12174SOL     OW38354  12.369  13.300   7.927
12174SOL    HW138355  12.432  13.351   7.977
12174SOL    HW238356  12.419  13.225   7.894
12175SOL     OW38357   1.610   6.885   2.071
12175SOL    HW138358   1.534   6.888   2.129
12175SOL    HW238359   1.637   6.977   2.062
12176SOL     OW38360   1.338   6.583   6.534
12176SOL    HW138361   1.427   6.599   6.566
12176SOL    HW238362   1.296   6.668   6.536
12177SOL     OW38363  11.538  11.602   1.385
12177SOL    HW138364  11.475  11.673   1.376
12177SOL    HW238365  11.484  11.522   1.382
12178SOL     OW38366   8.396   4.083   4.037
12178SOL    HW138367   8.383   4.023   4.110
12178SOL    HW238368   8.360   4.038   3.961
12179SOL     OW38369   1.800  13.427   5.750
12179SOL    HW138370   1.873  13.411   5.810
12179SOL    HW238371   1.722  13.417   5.803
12180SOL     OW38372   3.422  13.679   9.982
12180SOL    HW138373   3.393  13.750  10.039
12180SOL    HW238374   3.509  13.656  10.013
12181SOL     OW38375  11.493   2.079  12.545
12181SOL    HW138376  11.453   2.111  12.464
12181SOL    HW238377  11.587   2.099  12.534
12182SOL     OW38378   2.805   5.677   3.446
12182SOL    HW138379   2.898   5.682   3.468
12182SOL    HW238380   2.801   5.608   3.380
12183SOL     OW38381   5.164   9.142  11.681
12183SOL    HW138382   5.090   9.176  11.631
12183SOL    HW238383   5.218   9.219  11.700
12184SOL     OW38384   0.248   2.896   1.140
12184SOL    HW138385   0.314   2.906   1.209
12184SOL    HW238386   0.284   2.830   1.081
12185SOL     OW38387   7.859  13.766   9.906
12185SOL    HW138388   7.800  13.815   9.849
12185SOL    HW238389   7.946  13.780   9.868
12186SOL     OW38390   5.258   5.658   4.793
12186SOL    HW138391   5.274   5.580   4.846
12186SOL    HW238392   5.176   5.693   4.825
12187SOL     OW38393   8.111   3.437  10.424
12187SOL    HW138394   8.059   3.515  10.406
12187SOL    HW238395   8.156   3.419  10.342
12188SOL     OW38396   3.114   8.726   0.663
12188SOL    HW138397   3.170   8.793   0.701
12188SOL    HW238398   3.028   8.743   0.699
12189SOL     OW38399   9.602   7.556  11.133
12189SOL    HW138400   9.681   7.503  11.139
12189SOL    HW238401   9.631   7.638  11.091
12190SOL     OW38402  11.229  14.656   2.369
12190SOL    HW138403  11.284  14.624   2.297
12190SOL    HW238404  11.139  14.643   2.339
12191SOL     OW38405   0.658   4.210   0.652
12191SOL    HW138406   0.584   4.194   0.593
12191SOL    HW238407   0.620   4.203   0.740
12192SOL     OW38408   2.518  10.027   2.350
12192SOL    HW138409   2.597   9.985   2.316
12192SOL    HW238410   2.546  10.065   2.433
12193SOL     OW38411   9.841   4.591   5.883
12193SOL    HW138412   9.862   4.547   5.801
12193SOL    HW238413   9.767   4.649   5.861
12194SOL     OW38414   6.774   5.736   9.972
12194SOL    HW138415   6.810   5.795   9.906
12194SOL    HW238416   6.850   5.706  10.022
12195SOL     OW38417   2.005  11.428   7.845
12195SOL    HW138418   1.986  11.501   7.903
12195SOL    HW238419   2.083  11.387   7.883
12196SOL     OW38420  11.291  11.781   7.193
12196SOL    HW138421  11.348  11.707   7.175
12196SOL    HW238422  11.218  11.771   7.132
12197SOL     OW38423  13.130   6.372  13.551
12197SOL    HW138424  13.164   6.460  13.562
12197SOL    HW238425  13.035   6.383  13.546
12198SOL     OW38426   4.233   4.921   1.517
12198SOL    HW138427   4.291   4.946   1.589
12198SOL    HW238428   4.238   4.995   1.456
12199SOL     OW38429   6.524   1.660   5.879
12199SOL    HW138430   6.607   1.673   5.924
12199SOL    HW238431   6.492   1.575   5.911
12200SOL     OW38432  13.184  14.691   3.399
12200SOL    HW138433  13.182  14.775   3.443
12200SOL    HW238434  13.174  14.626   3.469
12201SOL     OW38435   8.686   1.371   1.524
12201SOL    HW138436   8.597   1.390   1.492
12201SOL    HW238437   8.742   1.426   1.470
12202SOL     OW38438   4.471   1.156   8.578
12202SOL    HW138439   4.549   1.103   8.565
12202SOL    HW238440   4.464   1.209   8.499
12203SOL     OW38441   7.143   2.619   0.976
12203SOL    HW138442   7.182   2.605   1.062
12203SOL    HW238443   7.138   2.531   0.937
12204SOL     OW38444   2.623  10.931   0.087
12204SOL    HW138445   2.565  10.953   0.160
12204SOL    HW238446   2.692  10.997   0.091
12205SOL     OW38447  11.517  13.068  12.486
12205SOL    HW138448  11.588  13.015  12.522
12205SOL    HW238449  11.503  13.031  12.398
12206SOL     OW38450   6.339   4.142   5.853
12206SOL    HW138451   6.263   4.183   5.893
12206SOL    HW238452   6.414   4.180   5.900
12207SOL     OW38453   7.080  11.044   0.595
12207SOL    HW138454   7.123  11.058   0.510
12207SOL    HW238455   7.129  11.099   0.656
12208SOL     OW38456  14.664   5.869  11.164
12208SOL    HW138457  14.608   5.815  11.220
12208SOL    HW238458  14.631   5.855  11.075
12209SOL     OW38459   4.168   9.824   4.818
12209SOL    HW138460   4.107   9.857   4.885
12209SOL    HW238461   4.240   9.786   4.867
12210SOL     OW38462   8.388   1.005  11.883
12210SOL    HW138463   8.392   0.915  11.851
12210SOL    HW238464   8.400   1.059  11.805
12211SOL     OW38465   8.080   2.685   0.252
12211SOL    HW138466   8.032   2.626   0.194
12211SOL    HW238467   8.173   2.667   0.234
12212SOL     OW38468   0.048   3.371  12.906
12212SOL    HW138469   0.078   3.426  12.834
12212SOL    HW238470   0.097   3.403  12.982
12213SOL     OW38471   5.693  13.890   6.786
12213SOL    HW138472   5.637  13.954   6.830
12213SOL    HW238473   5.677  13.808   6.832
12214SOL     OW38474   6.114  13.969   9.423
12214SOL    HW138475   6.086  13.878   9.425
12214SOL    HW238476   6.173  13.975   9.349
12215SOL     OW38477   2.898   9.507  12.376
12215SOL    HW138478   2.871   9.525  12.466
12215SOL    HW238479   2.831   9.448  12.342
12216SOL     OW38480   2.519  12.998   1.558
12216SOL    HW138481   2.534  12.909   1.527
12216SOL    HW238482   2.569  13.004   1.640
12217SOL     OW38483  11.768   7.937   0.961
12217SOL    HW138484  11.744   7.848   0.984
12217SOL    HW238485  11.771   7.938   0.865
12218SOL     OW38486  10.888   7.034  14.822
12218SOL    HW138487  10.945   6.964  14.789
12218SOL    HW238488  10.830   7.054  14.749
12219SOL     OW38489   0.525  14.110  11.289
12219SOL    HW138490   0.597  14.095  11.351
12219SOL    HW238491   0.448  14.076  11.334
12220SOL     OW38492  13.377   0.016   4.281
12220SOL    HW138493  13.386   0.102   4.242
12220SOL    HW238494  13.289   0.016   4.319
12221SOL     OW38495   4.021   8.183  13.825
12221SOL    HW138496   4.038   8.275  13.802
12221SOL    HW238497   3.964   8.188  13.902
12222SOL     OW38498   5.318   0.403   6.853
12222SOL    HW138499   5.400   0.357   6.868
12222SOL    HW238500   5.250   0.338   6.874
12223SOL     OW38501   2.633   3.446   3.189
12223SOL    HW138502   2.565   3.418   3.251
12223SOL    HW238503   2.632   3.542   3.194
12224SOL     OW38504   8.507  13.379  11.289
12224SOL    HW138505   8.494  13.434  11.211
12224SOL    HW238506   8.456  13.422  11.357
12225SOL     OW38507  14.582  11.241   2.950
12225SOL    HW138508  14.533  11.207   3.025
12225SOL    HW238509  14.519  11.240   2.878
12226SOL     OW38510   3.067   2.322   2.327
12226SOL    HW138511   3.000   2.257   2.343
12226SOL    HW238512   3.145   2.288   2.370
12227SOL     OW38513   5.036  14.281   0.724
12227SOL    HW138514   4.968  14.226   0.685
12227SOL    HW238515   5.001  14.370   0.719
12228SOL     OW38516   6.179  10.429  12.789
12228SOL    HW138517   6.198  10.409  12.697
12228SOL    HW238518   6.097  10.383  12.807
12229SOL     OW38519  12.734  13.222   0.133
12229SOL    HW138520  12.814  13.175   0.157
12229SOL    HW238521  12.729  13.294   0.196
12230SOL     OW38522  12.349   7.059  10.617
12230SOL    HW138523  12.289   7.103  10.677
12230SOL    HW238524  12.312   7.073  10.530
12231SOL     OW38525   4.345  11.334   2.682
12231SOL    HW138526   4.352  11.295   2.770
12231SOL    HW238527   4.410  11.404   2.682
12232SOL     OW38528   9.319   2.794  12.292
12232SOL    HW138529   9.415   2.789  12.300
12232SOL    HW238530   9.300   2.887  12.300
12233SOL     OW38531   3.993  11.695   2.373
12233SOL    HW138532   4.073  11.642   2.368
12233SOL    HW238533   3.970  11.711   2.281
12234SOL     OW38534   2.140   1.229  10.252
12234SOL    HW138535   2.181   1.149  10.285
12234SOL    HW238536   2.183   1.300  10.299
12235SOL     OW38537   9.533  13.664   4.449
12235SOL    HW138538   9.452  13.655   4.399
12235SOL    HW238539   9.514  13.733   4.513
12236SOL     OW38540  13.511  12.863  12.997
12236SOL    HW138541  13.546  12.831  13.081
12236SOL    HW238542  13.563  12.941  12.978
12237SOL     OW38543  10.968  11.165   4.461
12237SOL    HW138544  10.930  11.233   4.406
12237SOL    HW238545  11.030  11.120   4.404
12238SOL     OW38546   5.076   9.322   7.223
12238SOL    HW138547   5.088   9.266   7.146
12238SOL    HW238548   4.981   9.329   7.233
12239SOL     OW38549  13.223  13.862   7.166
12239SOL    HW138550  13.191  13.952   7.160
12239SOL    HW238551  13.317  13.869   7.152
12240SOL     OW38552   1.401   5.454   3.230
12240SOL    HW138553   1.471   5.504   3.273
12240SOL    HW238554   1.447   5.393   3.173
12241SOL     OW38555   7.349  13.009   4.692
12241SOL    HW138556   7.361  12.918   4.664
12241SOL    HW238557   7.431  13.052   4.669
12242SOL     OW38558  13.467   3.137   6.551
12242SOL    HW138559  13.533   3.204   6.534
12242SOL    HW238560  13.469   3.126   6.646
12243SOL     OW38561   2.334   4.480   6.496
12243SOL    HW138562   2.312   4.393   6.531
12243SOL    HW238563   2.251   4.515   6.464
12244SOL     OW38564  12.046   9.301   1.068
12244SOL    HW138565  11.959   9.334   1.047
12244SOL    HW238566  12.074   9.256   0.988
12245SOL     OW38567   5.848   6.657   6.234
12245SOL    HW138568   5.929   6.707   6.247
12245SOL    HW238569   5.839   6.651   6.139
12246SOL     OW38570   1.240  13.685   5.827
12246SOL    HW138571   1.201  13.598   5.820
12246SOL    HW238572   1.172  13.739   5.868
12247SOL     OW38573   3.342  11.292  12.139
12247SOL    HW138574   3.398  11.349  12.193
12247SOL    HW238575   3.384  11.292  12.053
12248SOL     OW38576  13.155   2.544  10.510
12248SOL    HW138577  13.148   2.640  10.508
12248SOL    HW238578  13.129   2.517  10.422
12249SOL     OW38579   7.154   4.154   7.049
12249SOL    HW138580   7.199   4.236   7.068
12249SOL    HW238581   7.157   4.106   7.131
12250SOL     OW38582   0.887   3.345  13.154
12250SOL    HW138583   0.802   3.327  13.115
12250SOL    HW238584   0.909   3.433  13.124
12251SOL     OW38585  13.284  10.679  10.159
12251SOL    HW138586  13.206  10.630  10.186
12251SOL    HW238587  13.258  10.727  10.081
12252SOL     OW38588   5.381  12.696   8.286
12252SOL    HW138589   5.306  12.741   8.246
12252SOL    HW238590   5.399  12.745   8.366
12253SOL     OW38591   9.565   3.986   0.498
12253SOL    HW138592   9.583   3.894   0.479
12253SOL    HW238593   9.635   4.034   0.454
12254SOL     OW38594  13.308   8.241   1.204
12254SOL    HW138595  13.314   8.207   1.293
12254SOL    HW238596  13.304   8.336   1.214
12255SOL     OW38597  13.347   7.482   6.940
12255SOL    HW138598  13.269   7.521   6.980
12255SOL    HW238599  13.349   7.519   6.851
12256SOL     OW38600   2.400   5.207   6.953
12256SOL    HW138601   2.399   5.300   6.976
12256SOL    HW238602   2.312   5.176   6.975
12257SOL     OW38603   8.305  12.370   4.305
12257SOL    HW138604   8.316  12.334   4.393
12257SOL    HW238605   8.306  12.465   4.319
12258SOL     OW38606   5.038  10.452   7.952
12258SOL    HW138607   5.040  10.425   7.860
12258SOL    HW238608   5.060  10.545   7.950
12259SOL     OW38609   9.099  12.329  11.956
12259SOL    HW138610   9.014  12.290  11.940
12259SOL    HW238611   9.145  12.324  11.872
12260SOL     OW38612  11.725   2.281   7.264
12260SOL    HW138613  11.739   2.362   7.314
12260SOL    HW238614  11.771   2.214   7.314
12261SOL     OW38615   8.994   1.108   2.657
12261SOL    HW138616   8.958   1.112   2.746
12261SOL    HW238617   8.965   1.189   2.616
12262SOL     OW38618   4.896   7.092   7.212
12262SOL    HW138619   4.902   7.108   7.118
12262SOL    HW238620   4.824   7.148   7.241
12263SOL     OW38621   1.058   5.183  14.059
12263SOL    HW138622   0.990   5.182  13.992
12263SOL    HW238623   1.027   5.245  14.125
12264SOL     OW38624   9.160  10.586   7.388
12264SOL    HW138625   9.174  10.537   7.469
12264SOL    HW238626   9.234  10.646   7.383
12265SOL     OW38627   5.717   7.927   6.654
12265SOL    HW138628   5.676   7.913   6.569
12265SOL    HW238629   5.760   8.013   6.645
12266SOL     OW38630  12.421  14.860  11.154
12266SOL    HW138631  12.374   0.020  11.228
12266SOL    HW238632  12.485   0.047  11.128
12267SOL     OW38633   7.255   8.532   2.922
12267SOL    HW138634   7.179   8.556   2.869
12267SOL    HW238635   7.320   8.505   2.857
12268SOL     OW38636   8.670   9.174  11.778
12268SOL    HW138637   8.654   9.231  11.854
12268SOL    HW238638   8.709   9.095  11.816
12269SOL     OW38639   7.777  14.839   4.609
12269SOL    HW138640   7.853   0.003   4.647
12269SOL    HW238641   7.771  14.756   4.657
12270SOL     OW38642   6.818   7.654   9.230
12270SOL    HW138643   6.817   7.631   9.137
12270SOL    HW238644   6.910   7.651   9.255
12271SOL     OW38645   7.231   3.454   2.532
12271SOL    HW138646   7.210   3.497   2.449
12271SOL    HW238647   7.325   3.436   2.527
12272SOL     OW38648   7.306   7.614   3.927
12272SOL    HW138649   7.293   7.680   3.860
12272SOL    HW238650   7.229   7.622   3.984
12273SOL     OW38651   8.536  10.726   4.389
12273SOL    HW138652   8.614  10.720   4.334
12273SOL    HW238653   8.465  10.748   4.329
12274SOL     OW38654  12.929   4.955   7.751
12274SOL    HW138655  12.969   4.936   7.666
12274SOL    HW238656  12.954   4.881   7.806
12275SOL     OW38657   4.381   3.435   1.028
12275SOL    HW138658   4.387   3.373   1.101
12275SOL    HW238659   4.371   3.520   1.070
12276SOL     OW38660  13.510  10.590   6.800
12276SOL    HW138661  13.537  10.498   6.803
12276SOL    HW238662  13.416  10.588   6.816
12277SOL     OW38663   3.692  14.608   7.823
12277SOL    HW138664   3.639  14.532   7.802
12277SOL    HW238665   3.748  14.579   7.895
12278SOL     OW38666   6.062   2.124   5.745
12278SOL    HW138667   6.091   2.045   5.790
12278SOL    HW238668   5.994   2.160   5.803
12279SOL     OW38669  10.933   7.837  14.343
12279SOL    HW138670  10.908   7.929  14.332
12279SOL    HW238671  10.938   7.824  14.438
12280SOL     OW38672   2.248  12.676   6.072
12280SOL    HW138673   2.249  12.589   6.032
12280SOL    HW238674   2.156  12.693   6.091
12281SOL     OW38675   3.125   1.096   2.850
12281SOL    HW138676   3.099   1.092   2.942
12281SOL    HW238677   3.178   1.017   2.837
12282SOL     OW38678  11.358   3.818   0.528
12282SOL    HW138679  11.262   3.819   0.522
12282SOL    HW238680  11.388   3.793   0.441
12283SOL     OW38681  13.064  13.458   9.091
12283SOL    HW138682  13.154  13.444   9.062
12283SOL    HW238683  13.031  13.371   9.113
12284SOL     OW38684  12.053   9.521  13.035
12284SOL    HW138685  12.114   9.478  13.095
12284SOL    HW238686  12.103   9.532  12.954
12285SOL     OW38687   3.215  10.732  13.290
12285SOL    HW138688   3.243  10.824  13.295
12285SOL    HW238689   3.228  10.708  13.198
12286SOL     OW38690  14.191  11.629   6.502
12286SOL    HW138691  14.143  11.555   6.541
12286SOL    HW238692  14.280  11.619   6.536
12287SOL     OW38693   0.904   7.005  11.433
12287SOL    HW138694   0.847   7.064  11.383
12287SOL    HW238695   0.846   6.934  11.461
12288SOL     OW38696  14.573   0.754   1.564
12288SOL    HW138697  14.604   0.838   1.596
12288SOL    HW238698  14.536   0.772   1.477
12289SOL     OW38699  14.182   4.511  10.036
12289SOL    HW138700  14.130   4.469   9.967
12289SOL    HW238701  14.158   4.603  10.031
12290SOL     OW38702   6.267   8.134   0.559
12290SOL    HW138703   6.248   8.040   0.558
12290SOL    HW238704   6.182   8.175   0.571
12291SOL     OW38705  13.094   7.709  13.369
12291SOL    HW138706  13.100   7.698  13.464
12291SOL    HW238707  13.046   7.631  13.339
12292SOL     OW38708   0.038   1.645   1.840
12292SOL    HW138709  14.866   1.566   1.855
12292SOL    HW238710  14.866   1.694   1.776
12293SOL     OW38711   2.035   5.419  12.355
12293SOL    HW138712   2.003   5.482  12.291
12293SOL    HW238713   1.956   5.391  12.402
12294SOL     OW38714  14.631   2.133   0.167
12294SOL    HW138715  14.635   2.065   0.099
12294SOL    HW238716  14.537   2.150   0.178
12295SOL     OW38717   4.111   0.743   1.888
12295SOL    HW138718   4.096   0.798   1.965
12295SOL    HW238719   4.027   0.742   1.843
12296SOL     OW38720   2.413   7.682  14.633
12296SOL    HW138721   2.472   7.622  14.587
12296SOL    HW238722   2.361   7.626  14.690
12297SOL     OW38723   0.123   7.494  13.158
12297SOL    HW138724   0.069   7.562  13.119
12297SOL    HW238725   0.116   7.419  13.098
12298SOL     OW38726   9.776   7.198   5.673
12298SOL    HW138727   9.730   7.256   5.735
12298SOL    HW238728   9.849   7.250   5.642
12299SOL     OW38729   5.295   9.409   1.099
12299SOL    HW138730   5.296   9.474   1.170
12299SOL    HW238731   5.377   9.361   1.108
12300SOL     OW38732   0.061   0.541   9.803
12300SOL    HW138733   0.107   0.619   9.771
12300SOL    HW238734   0.067   0.479   9.730
12301SOL     OW38735  11.872   7.758  14.531
12301SOL    HW138736  11.785   7.753  14.489
12301SOL    HW238737  11.899   7.667  14.540
12302SOL     OW38738  11.516   2.157   1.804
12302SOL    HW138739  11.477   2.103   1.872
12302SOL    HW238740  11.464   2.237   1.804
12303SOL     OW38741   4.935   2.809   2.409
12303SOL    HW138742   4.872   2.867   2.365
12303SOL    HW238743   4.890   2.782   2.489
12304SOL     OW38744   2.998  12.395   4.889
12304SOL    HW138745   2.980  12.312   4.933
12304SOL    HW238746   2.914  12.421   4.851
12305SOL     OW38747   3.119   2.177   8.798
12305SOL    HW138748   3.112   2.141   8.709
12305SOL    HW238749   3.204   2.146   8.829
12306SOL     OW38750   1.549   8.661   5.267
12306SOL    HW138751   1.572   8.569   5.252
12306SOL    HW238752   1.572   8.705   5.185
12307SOL     OW38753   9.300  11.375  12.646
12307SOL    HW138754   9.270  11.455  12.602
12307SOL    HW238755   9.227  11.314  12.639
12308SOL     OW38756   4.339   3.159  11.615
12308SOL    HW138757   4.273   3.162  11.545
12308SOL    HW238758   4.341   3.248  11.649
12309SOL     OW38759   7.522   7.711   8.630
12309SOL    HW138760   7.467   7.768   8.576
12309SOL    HW238761   7.593   7.684   8.571
12310SOL     OW38762  13.273   4.601   9.545
12310SOL    HW138763  13.331   4.621   9.471
12310SOL    HW238764  13.235   4.516   9.523
12311SOL     OW38765  14.606   4.049  13.812
12311SOL    HW138766  14.541   4.011  13.752
12311SOL    HW238767  14.669   3.978  13.827
12312SOL     OW38768  11.875   4.196   5.786
12312SOL    HW138769  11.888   4.261   5.856
12312SOL    HW238770  11.863   4.248   5.707
12313SOL     OW38771  13.144  10.393  13.301
12313SOL    HW138772  13.207  10.337  13.255
12313SOL    HW238773  13.172  10.390  13.393
12314SOL     OW38774  12.875   9.180   0.120
12314SOL    HW138775  12.917   9.094   0.120
12314SOL    HW238776  12.791   9.166   0.076
12315SOL     OW38777   6.416   2.894   7.774
12315SOL    HW138778   6.474   2.900   7.698
12315SOL    HW238779   6.395   2.801   7.782
12316SOL     OW38780   0.364   6.797   4.094
12316SOL    HW138781   0.292   6.786   4.033
12316SOL    HW238782   0.430   6.734   4.066
12317SOL     OW38783   9.022   3.008   6.966
12317SOL    HW138784   9.074   3.062   7.025
12317SOL    HW238785   8.954   3.066   6.933
12318SOL     OW38786  11.713   7.269   5.501
12318SOL    HW138787  11.697   7.231   5.414
12318SOL    HW238788  11.626   7.291   5.534
12319SOL     OW38789   3.397   8.048   1.050
12319SOL    HW138790   3.370   8.134   1.079
12319SOL    HW238791   3.354   7.987   1.109
12320SOL     OW38792  10.554   6.580   1.838
12320SOL    HW138793  10.594   6.642   1.900
12320SOL    HW238794  10.568   6.494   1.878
12321SOL     OW38795  14.308  10.817   7.304
12321SOL    HW138796  14.218  10.816   7.272
12321SOL    HW238797  14.306  10.875   7.380
12322SOL     OW38798  13.249  12.534   6.771
12322SOL    HW138799  13.246  12.457   6.715
12322SOL    HW238800  13.342  12.554   6.779
12323SOL     OW38801  13.184   0.045  11.703
12323SOL    HW138802  13.209   0.130  11.739
12323SOL    HW238803  13.208   0.050  11.610
12324SOL     OW38804  13.671   7.054  10.740
12324SOL    HW138805  13.657   6.959  10.740
12324SOL    HW238806  13.734   7.068  10.811
12325SOL     OW38807   5.130   3.789   3.996
12325SOL    HW138808   5.122   3.796   3.901
12325SOL    HW238809   5.039   3.788   4.027
12326SOL     OW38810   1.419   7.635  13.814
12326SOL    HW138811   1.446   7.727  13.811
12326SOL    HW238812   1.359   7.625  13.740
12327SOL     OW38813   0.335   2.866  13.327
12327SOL    HW138814   0.265   2.802  13.339
12327SOL    HW238815   0.380   2.839  13.247
12328SOL     OW38816   1.077   3.466   3.549
12328SOL    HW138817   1.168   3.479   3.573
12328SOL    HW238818   1.079   3.442   3.457
12329SOL     OW38819   2.277   8.752   1.601
12329SOL    HW138820   2.283   8.671   1.651
12329SOL    HW238821   2.198   8.794   1.634
12330SOL     OW38822   3.269   8.667  14.051
12330SOL    HW138823   3.318   8.743  14.082
12330SOL    HW238824   3.243   8.621  14.130
12331SOL     OW38825  14.391   3.416  14.276
12331SOL    HW138826  14.416   3.504  14.302
12331SOL    HW238827  14.296   3.421  14.261
12332SOL     OW38828   5.223   6.288  11.488
12332SOL    HW138829   5.270   6.224  11.435
12332SOL    HW238830   5.289   6.323  11.548
12333SOL     OW38831   4.520   0.019  10.201
12333SOL    HW138832   4.446  14.849  10.164
12333SOL    HW238833   4.592  14.835  10.202
12334SOL     OW38834  11.620  12.595  11.349
12334SOL    HW138835  11.677  12.560  11.280
12334SOL    HW238836  11.668  12.578  11.430
12335SOL     OW38837   4.627  11.523  14.790
12335SOL    HW138838   4.624  11.615  14.818
12335SOL    HW238839   4.710  11.516  14.742
12336SOL     OW38840   4.038  13.568  12.529
12336SOL    HW138841   3.994  13.651  12.513
12336SOL    HW238842   3.970  13.511  12.565
12337SOL     OW38843   0.166   5.511  10.394
12337SOL    HW138844   0.250   5.557  10.388
12337SOL    HW238845   0.107   5.575  10.432
12338SOL     OW38846   2.546   0.229   9.679
12338SOL    HW138847   2.484   0.264   9.616
12338SOL    HW238848   2.600   0.168   9.629
12339SOL     OW38849   1.860  10.394   7.295
12339SOL    HW138850   1.867  10.456   7.222
12339SOL    HW238851   1.785  10.426   7.346
12340SOL     OW38852   6.418  12.362   9.929
12340SOL    HW138853   6.496  12.367   9.874
12340SOL    HW238854   6.450  12.328  10.013
12341SOL     OW38855  12.563  13.436  13.184
12341SOL    HW138856  12.473  13.420  13.213
12341SOL    HW238857  12.604  13.350  13.183
12342SOL     OW38858   5.886   8.075  13.747
12342SOL    HW138859   5.862   8.116  13.664
12342SOL    HW238860   5.872   8.143  13.812
12343SOL     OW38861   2.700   5.869   2.846
12343SOL    HW138862   2.685   5.832   2.933
12343SOL    HW238863   2.620   5.918   2.825
12344SOL     OW38864   3.669   7.921   9.961
12344SOL    HW138865   3.668   7.911  10.056
12344SOL    HW238866   3.729   7.994   9.946
12345SOL     OW38867   4.437   9.243   9.354
12345SOL    HW138868   4.354   9.207   9.384
12345SOL    HW238869   4.470   9.179   9.291
12346SOL     OW38870  13.778  11.297   0.308
12346SOL    HW138871  13.758  11.361   0.240
12346SOL    HW238872  13.835  11.233   0.264
12347SOL     OW38873  10.076  10.354   4.100
12347SOL    HW138874  10.121  10.308   4.029
12347SOL    HW238875  10.047  10.436   4.060
12348SOL     OW38876   2.060   2.430   4.336
12348SOL    HW138877   2.106   2.401   4.415
12348SOL    HW238878   2.050   2.524   4.348
12349SOL     OW38879  12.706   7.932  10.099
12349SOL    HW138880  12.709   7.838  10.115
12349SOL    HW238881  12.612   7.952  10.092
12350SOL     OW38882   0.556   3.551   2.971
12350SOL    HW138883   0.524   3.606   2.899
12350SOL    HW238884   0.553   3.608   3.048
12351SOL     OW38885  11.892  12.916  10.227
12351SOL    HW138886  11.983  12.914  10.254
12351SOL    HW238887  11.867  12.823  10.220
12352SOL     OW38888   8.714   3.444   8.307
12352SOL    HW138889   8.701   3.449   8.213
12352SOL    HW238890   8.635   3.402   8.340
12353SOL     OW38891   1.974   4.222   5.372
12353SOL    HW138892   1.972   4.163   5.297
12353SOL    HW238893   1.917   4.295   5.346
12354SOL     OW38894   6.560   7.168   1.342
12354SOL    HW138895   6.467   7.149   1.335
12354SOL    HW238896   6.574   7.188   1.435
12355SOL     OW38897   7.815   5.627   7.309
12355SOL    HW138898   7.871   5.694   7.268
12355SOL    HW238899   7.777   5.671   7.385
12356SOL     OW38900   2.858  11.622   6.479
12356SOL    HW138901   2.787  11.658   6.533
12356SOL    HW238902   2.931  11.611   6.540
12357SOL     OW38903  11.745  11.642  10.791
12357SOL    HW138904  11.652  11.632  10.774
12357SOL    HW238905  11.766  11.570  10.851
12358SOL     OW38906   9.868   8.678  11.551
12358SOL    HW138907   9.788   8.655  11.599
12358SOL    HW238908   9.853   8.643  11.463
12359SOL     OW38909  14.703  11.312   4.104
12359SOL    HW138910  14.633  11.250   4.124
12359SOL    HW238911  14.683  11.388   4.158
12360SOL     OW38912  11.492   8.679   1.445
12360SOL    HW138913  11.540   8.634   1.514
12360SOL    HW238914  11.417   8.622   1.426
12361SOL     OW38915   5.422  11.263   6.624
12361SOL    HW138916   5.381  11.255   6.710
12361SOL    HW238917   5.371  11.331   6.580
12362SOL     OW38918   1.447   6.294   7.011
12362SOL    HW138919   1.476   6.270   7.099
12362SOL    HW238920   1.520   6.342   6.974
12363SOL     OW38921   1.082   0.107   8.469
12363SOL    HW138922   1.118   0.129   8.555
12363SOL    HW238923   1.119   0.020   8.449
12364SOL     OW38924   5.322   2.974   0.188
12364SOL    HW138925   5.416   2.987   0.174
12364SOL    HW238926   5.283   2.990   0.102
12365SOL     OW38927   1.031  13.575   7.157
12365SOL    HW138928   1.014  13.669   7.153
12365SOL    HW238929   0.977  13.544   7.230
12366SOL     OW38930  10.671   5.048  12.759
12366SOL    HW138931  10.714   5.036  12.843
12366SOL    HW238932  10.697   5.137  12.731
12367SOL     OW38933   0.956   4.215  12.047
12367SOL    HW138934   0.869   4.245  12.020
12367SOL    HW238935   0.961   4.237  12.140
12368SOL     OW38936   9.864   7.967   1.206
12368SOL    HW138937   9.939   8.022   1.182
12368SOL    HW238938   9.865   7.895   1.142
12369SOL     OW38939   2.688   6.441  11.399
12369SOL    HW138940   2.669   6.374  11.333
12369SOL    HW238941   2.663   6.400  11.482
12370SOL     OW38942   5.979   3.598   2.846
12370SOL    HW138943   6.059   3.574   2.892
12370SOL    HW238944   5.912   3.541   2.883
12371SOL     OW38945   1.031   7.811  11.108
12371SOL    HW138946   1.065   7.759  11.181
12371SOL    HW238947   0.951   7.766  11.081
12372SOL     OW38948   0.097   4.636  11.353
12372SOL    HW138949   0.149   4.596  11.423
12372SOL    HW238950   0.119   4.729  11.357
12373SOL     OW38951   0.144  12.854   5.903
12373SOL    HW138952   0.174  12.827   5.989
12373SOL    HW238953   0.149  12.775   5.849
12374SOL     OW38954   9.090  13.829   4.438
12374SOL    HW138955   9.137  13.771   4.498
12374SOL    HW238956   9.150  13.841   4.365
12375SOL     OW38957  14.270  11.679   5.299
12375SOL    HW138958  14.307  11.593   5.280
12375SOL    HW238959  14.231  11.707   5.216
12376SOL     OW38960  12.677   5.952  14.348
12376SOL    HW138961  12.715   5.882  14.401
12376SOL    HW238962  12.711   6.032  14.388
12377SOL     OW38963   8.200   0.276   0.980
12377SOL    HW138964   8.269   0.246   1.039
12377SOL    HW238965   8.240   0.348   0.931
12378SOL     OW38966  12.216   8.458   1.515
12378SOL    HW138967  12.261   8.514   1.452
12378SOL    HW238968  12.285   8.423   1.569
12379SOL     OW38969  13.853   9.704  10.764
12379SOL    HW138970  13.897   9.779  10.803
12379SOL    HW238971  13.852   9.638  10.833
12380SOL     OW38972  13.568  13.508  13.607
12380SOL    HW138973  13.599  13.428  13.565
12380SOL    HW238974  13.476  13.492  13.625
12381SOL     OW38975   0.096  10.490   5.915
12381SOL    HW138976   0.130  10.577   5.895
12381SOL    HW238977   0.132  10.470   6.001
12382SOL     OW38978  13.887   2.152  13.109
12382SOL    HW138979  13.934   2.205  13.173
12382SOL    HW238980  13.955   2.116  13.053
12383SOL     OW38981   8.862  13.581   6.224
12383SOL    HW138982   8.942  13.568   6.174
12383SOL    HW238983   8.851  13.500   6.274
12384SOL     OW38984  10.416  14.856   5.452
12384SOL    HW138985  10.451   0.067   5.456
12384SOL    HW238986  10.321  14.867   5.455
12385SOL     OW38987  13.250  14.711   5.835
12385SOL    HW138988  13.188  14.716   5.762
12385SOL    HW238989  13.253  14.801   5.868
12386SOL     OW38990  14.501   0.465   5.017
12386SOL    HW138991  14.543   0.436   4.936
12386SOL    HW238992  14.416   0.499   4.989
12387SOL     OW38993  12.527   2.631   7.627
12387SOL    HW138994  12.564   2.707   7.583
12387SOL    HW238995  12.488   2.579   7.557
12388SOL     OW38996   0.604  13.833  11.622
12388SOL    HW138997   0.626  13.822  11.715
12388SOL    HW238998   0.524  13.782  11.610
12389SOL     OW38999   7.732   0.381  10.081
12389SOL    HW139000   7.762   0.437  10.009
12389SOL    HW239001   7.668   0.434  10.127
12390SOL     OW39002  14.228   7.355   5.945
12390SOL    HW139003  14.253   7.380   6.034
12390SOL    HW239004  14.281   7.277   5.926
12391SOL     OW39005  14.489  10.212   1.276
12391SOL    HW139006  14.467  10.157   1.351
12391SOL    HW239007  14.578  10.243   1.294
12392SOL     OW39008   7.174   2.433   2.897
12392SOL    HW139009   7.146   2.345   2.924
12392SOL    HW239010   7.242   2.456   2.961
12393SOL     OW39011   4.008   5.636  14.168
12393SOL    HW139012   4.069   5.629  14.095
12393SOL    HW239013   3.965   5.551  14.171
12394SOL     OW39014  10.003   1.266   1.198
12394SOL    HW139015  10.032   1.180   1.168
12394SOL    HW239016   9.979   1.313   1.118
12395SOL     OW39017   5.607  12.333  10.620
12395SOL    HW139018   5.543  12.268  10.589
12395SOL    HW239019   5.664  12.348  10.545
12396SOL     OW39020  14.380   7.739   2.432
12396SOL    HW139021  14.331   7.724   2.513
12396SOL    HW239022  14.346   7.674   2.371
12397SOL     OW39023   6.749   3.041  12.861
12397SOL    HW139024   6.715   2.993  12.786
12397SOL    HW239025   6.672   3.061  12.914
12398SOL     OW39026   1.921   7.415  12.702
12398SOL    HW139027   2.007   7.439  12.666
12398SOL    HW239028   1.869   7.389  12.626
12399SOL     OW39029   3.812  10.337  12.279
12399SOL    HW139030   3.870  10.322  12.353
12399SOL    HW239031   3.725  10.341  12.317
12400SOL     OW39032   6.092   8.075  14.012
12400SOL    HW139033   6.074   8.164  14.042
12400SOL    HW239034   6.158   8.085  13.944
12401SOL     OW39035   0.633   0.198  14.116
12401SOL    HW139036   0.570   0.145  14.163
12401SOL    HW239037   0.622   0.286  14.152
12402SOL     OW39038   0.780   5.824   8.917
12402SOL    HW139039   0.745   5.775   8.843
12402SOL    HW239040   0.725   5.903   8.922
12403SOL     OW39041  11.391  13.366   4.289
12403SOL    HW139042  11.309  13.324   4.263
12403SOL    HW239043  11.433  13.390   4.207
12404SOL     OW39044  13.818   6.359   3.800
12404SOL    HW139045  13.847   6.299   3.869
12404SOL    HW239046  13.770   6.427   3.847
12405SOL     OW39047  14.040   3.305  14.394
12405SOL    HW139048  14.062   3.243  14.463
12405SOL    HW239049  14.044   3.253  14.313
12406SOL     OW39050   5.797   9.467   2.675
12406SOL    HW139051   5.823   9.385   2.717
12406SOL    HW239052   5.735   9.440   2.608
12407SOL     OW39053   0.189   5.380  13.559
12407SOL    HW139054   0.133   5.347  13.630
12407SOL    HW239055   0.270   5.406  13.603
12408SOL     OW39056   7.791  11.736   0.104
12408SOL    HW139057   7.805  11.830   0.099
12408SOL    HW239058   7.762  11.711   0.016
12409SOL     OW39059  11.109  11.428  11.612
12409SOL    HW139060  11.136  11.459  11.698
12409SOL    HW239061  11.163  11.350  11.598
12410SOL     OW39062   3.497   4.798   1.377
12410SOL    HW139063   3.526   4.890   1.373
12410SOL    HW239064   3.530   4.766   1.461
12411SOL     OW39065   5.001   6.031  10.450
12411SOL    HW139066   5.044   5.955  10.488
12411SOL    HW239067   4.914   5.999  10.425
12412SOL     OW39068  14.440   2.764   0.019
12412SOL    HW139069  14.445   2.813   0.102
12412SOL    HW239070  14.501   2.692   0.030
12413SOL     OW39071  14.524   0.632  13.025
12413SOL    HW139072  14.594   0.572  13.001
12413SOL    HW239073  14.471   0.584  13.088
12414SOL     OW39074   7.435  14.100   2.250
12414SOL    HW139075   7.378  14.022   2.244
12414SOL    HW239076   7.458  14.105   2.343
12415SOL     OW39077  11.279  14.752  11.503
12415SOL    HW139078  11.291  14.682  11.438
12415SOL    HW239079  11.234  14.821  11.455
12416SOL     OW39080   5.025   4.710   5.913
12416SOL    HW139081   5.006   4.779   5.849
12416SOL    HW239082   4.980   4.738   5.993
12417SOL     OW39083  11.759   8.862   3.214
12417SOL    HW139084  11.756   8.942   3.267
12417SOL    HW239085  11.852   8.849   3.195
12418SOL     OW39086   1.679   7.275   4.253
12418SOL    HW139087   1.604   7.328   4.283
12418SOL    HW239088   1.696   7.214   4.325
12419SOL     OW39089   6.876  14.576  12.396
12419SOL    HW139090   6.824  14.626  12.458
12419SOL    HW239091   6.963  14.616  12.400
12420SOL     OW39092  12.420   2.469  11.723
12420SOL    HW139093  12.352   2.465  11.791
12420SOL    HW239094  12.388   2.534  11.661
12421SOL     OW39095   2.029  11.960   9.142
12421SOL    HW139096   1.967  11.903   9.188
12421SOL    HW239097   2.111  11.912   9.143
12422SOL     OW39098  13.780   3.200  10.890
12422SOL    HW139099  13.736   3.282  10.910
12422SOL    HW239100  13.863   3.204  10.936
12423SOL     OW39101   8.104   3.511   6.478
12423SOL    HW139102   8.127   3.431   6.430
12423SOL    HW239103   8.155   3.506   6.559
12424SOL     OW39104  12.855  13.227   5.709
12424SOL    HW139105  12.832  13.136   5.726
12424SOL    HW239106  12.788  13.278   5.754
12425SOL     OW39107   4.533   4.714   1.218
12425SOL    HW139108   4.545   4.782   1.285
12425SOL    HW239109   4.619   4.706   1.177
12426SOL     OW39110   6.134   1.167   6.691
12426SOL    HW139111   6.103   1.178   6.781
12426SOL    HW239112   6.066   1.115   6.649
12427SOL     OW39113   7.553  13.797  10.289
12427SOL    HW139114   7.539  13.716  10.337
12427SOL    HW239115   7.642  13.789  10.254
12428SOL     OW39116  11.779   1.864  11.088
12428SOL    HW139117  11.864   1.864  11.044
12428SOL    HW239118  11.716   1.883  11.018
12429SOL     OW39119   0.119   5.886   1.454
12429SOL    HW139120   0.198   5.851   1.495
12429SOL    HW239121   0.087   5.952   1.514
12430SOL     OW39122   6.274  13.948   6.871
12430SOL    HW139123   6.190  13.916   6.904
12430SOL    HW239124   6.339  13.890   6.911
12431SOL     OW39125   0.793   4.143   6.070
12431SOL    HW139126   0.748   4.217   6.031
12431SOL    HW239127   0.845   4.106   5.998
12432SOL     OW39128  12.391   6.205  14.314
12432SOL    HW139129  12.344   6.285  14.289
12432SOL    HW239130  12.457   6.193  14.245
12433SOL     OW39131   5.694   6.695   2.272
12433SOL    HW139132   5.673   6.692   2.366
12433SOL    HW239133   5.729   6.608   2.253
12434SOL     OW39134   7.982   9.131  14.541
12434SOL    HW139135   7.963   9.043  14.508
12434SOL    HW239136   7.959   9.127  14.634
12435SOL     OW39137   0.795  12.779   3.313
12435SOL    HW139138   0.883  12.745   3.301
12435SOL    HW239139   0.784  12.786   3.408
12436SOL     OW39140   0.584   1.960  11.425
12436SOL    HW139141   0.602   2.043  11.470
12436SOL    HW239142   0.547   1.985  11.341
12437SOL     OW39143   5.835   7.304   8.990
12437SOL    HW139144   5.888   7.341   9.060
12437SOL    HW239145   5.762   7.365   8.980
12438SOL     OW39146   1.970   0.762   7.868
12438SOL    HW139147   1.954   0.799   7.781
12438SOL    HW239148   2.016   0.830   7.916
12439SOL     OW39149  10.880  10.513   2.679
12439SOL    HW139150  10.965  10.519   2.722
12439SOL    HW239151  10.848  10.603   2.675
12440SOL     OW39152   8.099  11.032   0.170
12440SOL    HW139153   8.023  11.084   0.142
12440SOL    HW239154   8.173  11.092   0.158
12441SOL     OW39155  13.160  11.150   7.884
12441SOL    HW139156  13.119  11.095   7.951
12441SOL    HW239157  13.145  11.102   7.802
12442SOL     OW39158   2.945  10.904  13.738
12442SOL    HW139159   3.007  10.919  13.667
12442SOL    HW239160   2.859  10.919  13.698
12443SOL     OW39161   8.347  13.038   8.758
12443SOL    HW139162   8.358  13.126   8.722
12443SOL    HW239163   8.436  13.007   8.774
12444SOL     OW39164   7.153  13.119   9.066
12444SOL    HW139165   7.241  13.081   9.068
12444SOL    HW239166   7.138  13.139   8.974
12445SOL     OW39167   0.236  11.857  10.033
12445SOL    HW139168   0.222  11.777  10.084
12445SOL    HW239169   0.191  11.925  10.082
12446SOL     OW39170  11.856  14.690  12.483
12446SOL    HW139171  11.760  14.696  12.491
12446SOL    HW239172  11.870  14.630  12.409
12447SOL     OW39173   6.523   3.594  12.848
12447SOL    HW139174   6.435   3.561  12.833
12447SOL    HW239175   6.510   3.673  12.902
12448SOL     OW39176   7.737   6.995   2.122
12448SOL    HW139177   7.781   7.071   2.085
12448SOL    HW239178   7.809   6.940   2.155
12449SOL     OW39179  12.275  10.947  11.102
12449SOL    HW139180  12.226  10.865  11.107
12449SOL    HW239181  12.252  10.993  11.183
12450SOL     OW39182  11.578   2.598   5.496
12450SOL    HW139183  11.586   2.547   5.416
12450SOL    HW239184  11.653   2.572   5.549
12451SOL     OW39185  12.392   5.605   4.572
12451SOL    HW139186  12.331   5.678   4.559
12451SOL    HW239187  12.462   5.622   4.509
12452SOL     OW39188  13.864   7.500   7.194
12452SOL    HW139189  13.873   7.537   7.281
12452SOL    HW239190  13.801   7.556   7.150
12453SOL     OW39191   5.074   0.315  14.670
12453SOL    HW139192   5.120   0.399  14.669
12453SOL    HW239193   4.986   0.336  14.700
12454SOL     OW39194   2.812   6.898  10.987
12454SOL    HW139195   2.745   6.831  10.971
12454SOL    HW239196   2.788   6.936  11.071
12455SOL     OW39197   5.469  12.393   1.997
12455SOL    HW139198   5.563  12.388   2.016
12455SOL    HW239199   5.435  12.308   2.024
12456SOL     OW39200   5.737  11.313  11.931
12456SOL    HW139201   5.692  11.393  11.904
12456SOL    HW239202   5.804  11.343  11.993
12457SOL     OW39203  13.360  12.390   0.405
12457SOL    HW139204  13.385  12.360   0.493
12457SOL    HW239205  13.430  12.450   0.380
12458SOL     OW39206   8.666   7.439  10.181
12458SOL    HW139207   8.666   7.399  10.267
12458SOL    HW239208   8.662   7.533  10.198
12459SOL     OW39209   4.771   0.369   7.538
12459SOL    HW139210   4.710   0.442   7.550
12459SOL    HW239211   4.782   0.333   7.625
12460SOL     OW39212  12.786   9.488  13.826
12460SOL    HW139213  12.792   9.516  13.918
12460SOL    HW239214  12.849   9.417  13.818
12461SOL     OW39215  14.630   8.030   5.147
12461SOL    HW139216  14.688   8.017   5.222
12461SOL    HW239217  14.565   7.960   5.155
12462SOL     OW39218   1.669  12.105   4.772
12462SOL    HW139219   1.639  12.113   4.862
12462SOL    HW239220   1.589  12.104   4.720
12463SOL     OW39221  12.938   6.175  14.844
12463SOL    HW139222  12.897   6.250   0.008
12463SOL    HW239223  12.889   6.163  14.763
12464SOL     OW39224   8.032  14.515  13.654
12464SOL    HW139225   8.040  14.491  13.562
12464SOL    HW239226   7.987  14.600  13.653
12465SOL     OW39227   1.488  12.461  14.380
12465SOL    HW139228   1.556  12.408  14.422
12465SOL    HW239229   1.530  12.496  14.302
12466SOL     OW39230  11.295   6.945   1.455
12466SOL    HW139231  11.254   6.862   1.432
12466SOL    HW239232  11.272   7.003   1.382
12467SOL     OW39233   2.404  14.637   7.646
12467SOL    HW139234   2.353  14.592   7.579
12467SOL    HW239235   2.400  14.578   7.722
12468SOL     OW39236   2.423  14.061   1.092
12468SOL    HW139237   2.342  14.068   1.141
12468SOL    HW239238   2.477  13.999   1.142
12469SOL     OW39239   7.093   5.084  13.756
12469SOL    HW139240   7.070   4.994  13.779
12469SOL    HW239241   7.112   5.126  13.840
12470SOL     OW39242   0.906   7.973   6.331
12470SOL    HW139243   0.870   8.053   6.369
12470SOL    HW239244   1.001   7.989   6.328
12471SOL     OW39245  13.538  11.403   7.915
12471SOL    HW139246  13.612  11.401   7.854
12471SOL    HW239247  13.556  11.478   7.972
12472SOL     OW39248   0.619  11.146   3.871
12472SOL    HW139249   0.677  11.093   3.925
12472SOL    HW239250   0.623  11.105   3.784
12473SOL     OW39251  12.648   9.991   4.640
12473SOL    HW139252  12.626  10.068   4.588
12473SOL    HW239253  12.568   9.971   4.689
12474SOL     OW39254  11.388  12.771   2.349
12474SOL    HW139255  11.478  12.740   2.361
12474SOL    HW239256  11.339  12.729   2.420
12475SOL     OW39257   9.799  14.671  14.232
12475SOL    HW139258   9.851  14.656  14.311
12475SOL    HW239259   9.797  14.766  14.222
12476SOL     OW39260   5.392   5.830   1.000
12476SOL    HW139261   5.317   5.801   0.949
12476SOL    HW239262   5.464   5.837   0.937
12477SOL     OW39263   4.519  14.233   0.196
12477SOL    HW139264   4.481  14.255   0.111
12477SOL    HW239265   4.454  14.177   0.238
12478SOL     OW39266   2.656   1.769   2.745
12478SOL    HW139267   2.596   1.701   2.714
12478SOL    HW239268   2.705   1.727   2.816
12479SOL     OW39269  10.770  10.189   7.212
12479SOL    HW139270  10.780  10.197   7.307
12479SOL    HW239271  10.848  10.141   7.184
12480SOL     OW39272  13.036  11.729   3.131
12480SOL    HW139273  13.078  11.664   3.074
12480SOL    HW239274  12.942  11.709   3.126
12481SOL     OW39275   8.566  14.339   6.535
12481SOL    HW139276   8.582  14.303   6.448
12481SOL    HW239277   8.572  14.262   6.593
12482SOL     OW39278  11.767  11.981   6.312
12482SOL    HW139279  11.765  12.060   6.365
12482SOL    HW239280  11.745  11.910   6.373
12483SOL     OW39281   2.683   6.812   9.842
12483SOL    HW139282   2.733   6.867   9.902
12483SOL    HW239283   2.652   6.739   9.895
12484SOL     OW39284   6.383   0.059   3.812
12484SOL    HW139285   6.461   0.068   3.757
12484SOL    HW239286   6.414   0.015   3.891
12485SOL     OW39287  13.252   8.822   0.931
12485SOL    HW139288  13.231   8.856   1.018
12485SOL    HW239289  13.329   8.767   0.945
12486SOL     OW39290  11.532  13.615   4.729
12486SOL    HW139291  11.507  13.529   4.695
12486SOL    HW239292  11.621  13.603   4.762
12487SOL     OW39293  11.274  13.160   3.893
12487SOL    HW139294  11.187  13.162   3.933
12487SOL    HW239295  11.263  13.206   3.810
12488SOL     OW39296   6.397   6.772  14.353
12488SOL    HW139297   6.444   6.709  14.407
12488SOL    HW239298   6.345   6.718  14.292
12489SOL     OW39299  13.050  12.839  11.766
12489SOL    HW139300  12.975  12.785  11.790
12489SOL    HW239301  13.123  12.778  11.758
12490SOL     OW39302  10.728   9.930   8.124
12490SOL    HW139303  10.758   9.933   8.215
12490SOL    HW239304  10.763   9.847   8.090
12491SOL     OW39305   9.700   8.804   4.659
12491SOL    HW139306   9.672   8.713   4.671
12491SOL    HW239307   9.786   8.798   4.618
12492SOL     OW39308  13.623  14.400  10.472
12492SOL    HW139309  13.592  14.429  10.387
12492SOL    HW239310  13.552  14.346  10.506
12493SOL     OW39311  14.025   2.771   2.056
12493SOL    HW139312  13.932   2.770   2.035
12493SOL    HW239313  14.056   2.683   2.034
12494SOL     OW39314   2.705   0.417  14.853
12494SOL    HW139315   2.737   0.382  14.770
12494SOL    HW239316   2.611   0.399  14.851
12495SOL     OW39317   2.415  12.419  12.184
12495SOL    HW139318   2.479  12.426  12.255
12495SOL    HW239319   2.338  12.381  12.225
12496SOL     OW39320   6.975   1.153   2.601
12496SOL    HW139321   6.915   1.079   2.589
12496SOL    HW239322   6.958   1.210   2.526
12497SOL     OW39323   6.311   6.537  12.717
12497SOL    HW139324   6.346   6.484  12.788
12497SOL    HW239325   6.301   6.625  12.755
12498SOL     OW39326   5.057  12.356  14.614
12498SOL    HW139327   5.021  12.291  14.674
12498SOL    HW239328   4.980  12.399  14.575
12499SOL     OW39329  10.554   2.099   7.962
12499SOL    HW139330  10.483   2.138   7.911
12499SOL    HW239331  10.521   2.013   7.987
12500SOL     OW39332  10.330   0.166  11.514
12500SOL    HW139333  10.393   0.095  11.528
12500SOL    HW239334  10.332   0.181  11.419
12501SOL     OW39335  14.670   5.515  13.784
12501SOL    HW139336  14.579   5.539  13.769
12501SOL    HW239337  14.665   5.439  13.843
12502SOL     OW39338   9.771  14.032   4.241
12502SOL    HW139339   9.694  14.043   4.297
12502SOL    HW239340   9.795  13.940   4.249
12503SOL     OW39341  11.076   6.151   7.491
12503SOL    HW139342  11.010   6.104   7.438
12503SOL    HW239343  11.038   6.238   7.504
12504SOL     OW39344  13.698   6.267   2.166
12504SOL    HW139345  13.681   6.353   2.205
12504SOL    HW239346  13.719   6.285   2.074
12505SOL     OW39347  12.851   3.745   9.211
12505SOL    HW139348  12.876   3.837   9.222
12505SOL    HW239349  12.755   3.746   9.211
12506SOL     OW39350   1.308   0.495   6.847
12506SOL    HW139351   1.389   0.546   6.850
12506SOL    HW239352   1.335   0.410   6.811
12507SOL     OW39353   6.309  12.880   0.125
12507SOL    HW139354   6.276  12.832   0.201
12507SOL    HW239355   6.301  12.819   0.052
12508SOL     OW39356  10.249  10.687   5.855
12508SOL    HW139357  10.291  10.772   5.864
12508SOL    HW239358  10.321  10.628   5.829
12509SOL     OW39359   0.382  10.899  13.863
12509SOL    HW139360   0.349  10.979  13.902
12509SOL    HW239361   0.320  10.831  13.890
12510SOL     OW39362   3.326  12.824   1.299
12510SOL    HW139363   3.413  12.787   1.284
12510SOL    HW239364   3.270  12.782   1.233
12511SOL     OW39365   1.637   6.343   5.856
12511SOL    HW139366   1.662   6.284   5.785
12511SOL    HW239367   1.638   6.289   5.934
12512SOL     OW39368  11.337   6.927  14.210
12512SOL    HW139369  11.389   6.965  14.281
12512SOL    HW239370  11.333   6.834  14.229
12513SOL     OW39371  10.157   8.876   4.581
12513SOL    HW139372  10.192   8.897   4.668
12513SOL    HW239373  10.095   8.947   4.562
12514SOL     OW39374   9.631  12.312  12.924
12514SOL    HW139375   9.584  12.236  12.958
12514SOL    HW239376   9.715  12.310  12.971
12515SOL     OW39377  12.812   4.523   4.790
12515SOL    HW139378  12.770   4.566   4.865
12515SOL    HW239379  12.904   4.550   4.796
12516SOL     OW39380  13.135   6.373   7.421
12516SOL    HW139381  13.202   6.440   7.406
12516SOL    HW239382  13.168   6.323   7.496
12517SOL     OW39383  11.518   2.885  13.254
12517SOL    HW139384  11.603   2.851  13.280
12517SOL    HW239385  11.458   2.851  13.321
12518SOL     OW39386   0.182   6.189  13.586
12518SOL    HW139387   0.149   6.165  13.499
12518SOL    HW239388   0.114   6.158  13.646
12519SOL     OW39389   2.636  13.340  12.314
12519SOL    HW139390   2.682  13.399  12.255
12519SOL    HW239391   2.673  13.254  12.296
12520SOL     OW39392   7.870  10.166   6.424
12520SOL    HW139393   7.948  10.130   6.381
12520SOL    HW239394   7.897  10.180   6.515
12521SOL     OW39395   1.903   0.662   8.116
12521SOL    HW139396   1.987   0.704   8.137
12521SOL    HW239397   1.890   0.679   8.023
12522SOL     OW39398  11.272   8.301   6.160
12522SOL    HW139399  11.329   8.224   6.160
12522SOL    HW239400  11.263   8.325   6.068
12523SOL     OW39401   8.462   5.148   9.965
12523SOL    HW139402   8.548   5.114   9.937
12523SOL    HW239403   8.462   5.239   9.936
12524SOL     OW39404   7.975   2.578   9.985
12524SOL    HW139405   8.028   2.643  10.031
12524SOL    HW239406   7.920   2.540  10.053
12525SOL     OW39407   9.331   7.778  14.044
12525SOL    HW139408   9.407   7.766  13.987
12525SOL    HW239409   9.274   7.703  14.023
12526SOL     OW39410   0.988   1.994   3.238
12526SOL    HW139411   0.934   2.067   3.268
12526SOL    HW239412   1.042   2.031   3.168
12527SOL     OW39413  13.507   7.396   6.170
12527SOL    HW139414  13.442   7.334   6.204
12527SOL    HW239415  13.529   7.451   6.245
12528SOL     OW39416   8.351   7.513   3.679
12528SOL    HW139417   8.296   7.452   3.729
12528SOL    HW239418   8.358   7.473   3.593
12529SOL     OW39419   0.599  10.188  11.444
12529SOL    HW139420   0.560  10.112  11.486
12529SOL    HW239421   0.524  10.243  11.419
12530SOL     OW39422   5.492   0.733   2.250
12530SOL    HW139423   5.454   0.803   2.303
12530SOL    HW239424   5.586   0.752   2.251
12531SOL     OW39425  12.738  13.511   9.744
12531SOL    HW139426  12.746  13.598   9.783
12531SOL    HW239427  12.820  13.497   9.698
12532SOL     OW39428   2.245   4.701  13.653
12532SOL    HW139429   2.231   4.790  13.685
12532SOL    HW239430   2.183   4.692  13.581
12533SOL     OW39431  10.417  11.558  13.515
12533SOL    HW139432  10.366  11.523  13.588
12533SOL    HW239433  10.492  11.498  13.507
12534SOL     OW39434   8.810   9.841   7.940
12534SOL    HW139435   8.748   9.784   7.985
12534SOL    HW239436   8.794   9.928   7.977
12535SOL     OW39437   9.282  12.550  10.341
12535SOL    HW139438   9.344  12.619  10.319
12535SOL    HW239439   9.264  12.507  10.258
12536SOL     OW39440   9.738   6.111   4.358
12536SOL    HW139441   9.808   6.168   4.326
12536SOL    HW239442   9.684   6.094   4.280
12537SOL     OW39443  12.899   8.622   4.425
12537SOL    HW139444  12.964   8.619   4.495
12537SOL    HW239445  12.943   8.582   4.350
12538SOL     OW39446   9.455   9.280  11.693
12538SOL    HW139447   9.496   9.326  11.619
12538SOL    HW239448   9.468   9.339  11.767
12539SOL     OW39449   0.023   0.360   1.336
12539SOL    HW139450   0.011   0.447   1.375
12539SOL    HW239451   0.116   0.340   1.350
12540SOL     OW39452   3.041  13.206   7.998
12540SOL    HW139453   3.050  13.135   8.061
12540SOL    HW239454   3.099  13.182   7.925
12541SOL     OW39455   8.926   1.608   7.742
12541SOL    HW139456   8.924   1.643   7.831
12541SOL    HW239457   8.944   1.684   7.686
12542SOL     OW39458   1.476  14.191   1.665
12542SOL    HW139459   1.414  14.227   1.601
12542SOL    HW239460   1.445  14.224   1.749
12543SOL     OW39461   9.161   7.958   4.724
12543SOL    HW139462   9.125   7.949   4.636
12543SOL    HW239463   9.231   7.893   4.728
12544SOL     OW39464  10.686   1.714   7.163
12544SOL    HW139465  10.607   1.683   7.119
12544SOL    HW239466  10.707   1.646   7.227
12545SOL     OW39467   6.352   3.099   5.361
12545SOL    HW139468   6.335   3.142   5.445
12545SOL    HW239469   6.327   3.164   5.295
12546SOL     OW39470   4.744   2.174   0.332
12546SOL    HW139471   4.728   2.084   0.360
12546SOL    HW239472   4.658   2.214   0.330
12547SOL     OW39473  10.529  14.043  14.486
12547SOL    HW139474  10.437  14.068  14.498
12547SOL    HW239475  10.569  14.119  14.443
12548SOL     OW39476   0.043   7.497   0.945
12548SOL    HW139477  14.829   7.508   0.967
12548SOL    HW239478   0.064   7.572   0.890
12549SOL     OW39479   7.395   5.935   8.172
12549SOL    HW139480   7.349   5.959   8.092
12549SOL    HW239481   7.424   5.844   8.157
12550SOL     OW39482   5.835   1.480   3.235
12550SOL    HW139483   5.789   1.402   3.266
12550SOL    HW239484   5.811   1.548   3.298
12551SOL     OW39485   8.691   6.035   3.899
12551SOL    HW139486   8.752   6.025   3.827
12551SOL    HW239487   8.684   6.130   3.911
12552SOL     OW39488   2.783   1.864  13.714
12552SOL    HW139489   2.855   1.927  13.719
12552SOL    HW239490   2.718   1.907  13.658
12553SOL     OW39491   0.121   9.898  10.756
12553SOL    HW139492   0.116   9.947  10.674
12553SOL    HW239493   0.151   9.811  10.729
12554SOL     OW39494   0.904   3.349   1.572
12554SOL    HW139495   0.867   3.355   1.484
12554SOL    HW239496   0.951   3.431   1.584
12555SOL     OW39497   8.235   5.844  10.093
12555SOL    HW139498   8.204   5.934  10.097
12555SOL    HW239499   8.200   5.803  10.173
12556SOL     OW39500   8.793  13.817   2.327
12556SOL    HW139501   8.842  13.890   2.365
12556SOL    HW239502   8.859  13.763   2.283
12557SOL     OW39503   8.543   2.641   5.874
12557SOL    HW139504   8.605   2.650   5.801
12557SOL    HW239505   8.509   2.552   5.866
12558SOL     OW39506   8.327   0.997  13.054
12558SOL    HW139507   8.357   1.088  13.062
12558SOL    HW239508   8.311   0.970  13.145
12559SOL     OW39509   1.998   7.648   2.438
12559SOL    HW139510   1.999   7.721   2.500
12559SOL    HW239511   2.087   7.645   2.403
12560SOL     OW39512   8.263  13.028   4.481
12560SOL    HW139513   8.297  12.951   4.434
12560SOL    HW239514   8.288  13.013   4.572
12561SOL     OW39515  13.117  13.440   7.065
12561SOL    HW139516  13.210  13.418   7.064
12561SOL    HW239517  13.072  13.356   7.062
12562SOL     OW39518   6.940  11.915   2.621
12562SOL    HW139519   6.893  11.973   2.561
12562SOL    HW239520   7.026  11.955   2.631
12563SOL     OW39521   8.624   0.019   1.263
12563SOL    HW139522   8.575   0.094   1.298
12563SOL    HW239523   8.651  14.849   1.340
12564SOL     OW39524   7.629   8.455   9.283
12564SOL    HW139525   7.672   8.499   9.210
12564SOL    HW239526   7.684   8.379   9.301
12565SOL     OW39527   5.020   9.442   4.005
12565SOL    HW139528   5.106   9.428   3.965
12565SOL    HW239529   5.006   9.536   4.000
12566SOL     OW39530   1.699   0.770   8.353
12566SOL    HW139531   1.772   0.822   8.321
12566SOL    HW239532   1.725   0.741   8.440
12567SOL     OW39533   6.802   4.771   5.694
12567SOL    HW139534   6.854   4.731   5.764
12567SOL    HW239535   6.836   4.734   5.613
12568SOL     OW39536  10.083  14.433   9.699
12568SOL    HW139537  10.047  14.418   9.611
12568SOL    HW239538  10.063  14.524   9.718
12569SOL     OW39539   8.798   9.505  14.609
12569SOL    HW139540   8.716   9.483  14.564
12569SOL    HW239541   8.820   9.426  14.659
12570SOL     OW39542   0.782   0.117   6.466
12570SOL    HW139543   0.821   0.033   6.442
12570SOL    HW239544   0.848   0.182   6.442
12571SOL     OW39545  13.374   7.642  11.282
12571SOL    HW139546  13.302   7.581  11.265
12571SOL    HW239547  13.449   7.586  11.301
12572SOL     OW39548  10.729  13.861   1.272
12572SOL    HW139549  10.701  13.769   1.269
12572SOL    HW239550  10.668  13.902   1.333
12573SOL     OW39551   9.005   1.687   5.098
12573SOL    HW139552   8.953   1.737   5.162
12573SOL    HW239553   8.954   1.693   5.017
12574SOL     OW39554   3.205   9.755  14.290
12574SOL    HW139555   3.246   9.729  14.373
12574SOL    HW239556   3.183   9.672  14.247
12575SOL     OW39557   5.675  12.019   7.130
12575SOL    HW139558   5.581  12.031   7.147
12575SOL    HW239559   5.685  11.925   7.116
12576SOL     OW39560   6.648   6.086   5.527
12576SOL    HW139561   6.699   6.041   5.595
12576SOL    HW239562   6.706   6.087   5.451
12577SOL     OW39563  13.692   3.268  12.556
12577SOL    HW139564  13.780   3.229  12.557
12577SOL    HW239565  13.704   3.351  12.510
12578SOL     OW39566   5.967  13.257   5.987
12578SOL    HW139567   5.962  13.304   5.904
12578SOL    HW239568   5.954  13.165   5.963
12579SOL     OW39569   2.254   1.400   5.081
12579SOL    HW139570   2.163   1.370   5.075
12579SOL    HW239571   2.275   1.430   4.992
12580SOL     OW39572  14.148   7.207   4.015
12580SOL    HW139573  14.186   7.273   3.958
12580SOL    HW239574  14.056   7.203   3.989
12581SOL     OW39575  10.818   6.625  12.872
12581SOL    HW139576  10.786   6.537  12.891
12581SOL    HW239577  10.825   6.627  12.776
12582SOL     OW39578   1.019   0.550   1.575
12582SOL    HW139579   1.072   0.594   1.642
12582SOL    HW239580   0.949   0.612   1.555
12583SOL     OW39581  12.454   8.684   7.118
12583SOL    HW139582  12.536   8.720   7.152
12583SOL    HW239583  12.451   8.595   7.152
12584SOL     OW39584   8.433   1.544   6.117
12584SOL    HW139585   8.358   1.546   6.058
12584SOL    HW239586   8.462   1.635   6.123
12585SOL     OW39587  11.120   9.033   6.456
12585SOL    HW139588  11.055   8.966   6.436
12585SOL    HW239589  11.102   9.059   6.546
12586SOL     OW39590   3.948   2.506  14.705
12586SOL    HW139591   3.972   2.541  14.791
12586SOL    HW239592   4.025   2.521  14.651
12587SOL     OW39593   7.445  13.802   9.098
12587SOL    HW139594   7.516  13.804   9.162
12587SOL    HW239595   7.458  13.882   9.046
12588SOL     OW39596   6.880  13.955  11.744
12588SOL    HW139597   6.963  13.985  11.708
12588SOL    HW239598   6.815  13.977  11.678
12589SOL     OW39599   2.142   7.247   7.581
12589SOL    HW139600   2.160   7.296   7.500
12589SOL    HW239601   2.048   7.260   7.596
12590SOL     OW39602   7.458   4.723   6.470
12590SOL    HW139603   7.389   4.770   6.516
12590SOL    HW239604   7.413   4.650   6.428
12591SOL     OW39605   0.588   4.042  12.253
12591SOL    HW139606   0.543   4.122  12.226
12591SOL    HW239607   0.634   4.012  12.174
12592SOL     OW39608   3.830   6.908   4.477
12592SOL    HW139609   3.835   6.838   4.412
12592SOL    HW239610   3.763   6.968   4.444
12593SOL     OW39611   5.592  11.972   2.907
12593SOL    HW139612   5.504  11.934   2.899
12593SOL    HW239613   5.650  11.906   2.869
12594SOL     OW39614  11.992  10.280  14.483
12594SOL    HW139615  11.927  10.257  14.550
12594SOL    HW239616  11.998  10.376  14.487
12595SOL     OW39617   2.078  13.181  14.199
12595SOL    HW139618   2.088  13.114  14.132
12595SOL    HW239619   2.131  13.254  14.167
12596SOL     OW39620   2.420   5.446   5.215
12596SOL    HW139621   2.466   5.528   5.234
12596SOL    HW239622   2.489   5.387   5.183
12597SOL     OW39623   9.769   5.553   1.220
12597SOL    HW139624   9.838   5.487   1.226
12597SOL    HW239625   9.808   5.623   1.167
12598SOL     OW39626  11.606   7.054   7.588
12598SOL    HW139627  11.599   7.005   7.669
12598SOL    HW239628  11.527   7.032   7.539
12599SOL     OW39629   5.382   5.850  12.142
12599SOL    HW139630   5.374   5.894  12.227
12599SOL    HW239631   5.463   5.799  12.150
12600SOL     OW39632   7.430   1.427   8.878
12600SOL    HW139633   7.412   1.512   8.838
12600SOL    HW239634   7.508   1.441   8.932
12601SOL     OW39635   0.987  13.732   9.481
12601SOL    HW139636   1.055  13.756   9.543
12601SOL    HW239637   0.951  13.815   9.451
12602SOL     OW39638  13.100  12.746  14.437
12602SOL    HW139639  13.122  12.745  14.344
12602SOL    HW239640  13.094  12.654  14.462
12603SOL     OW39641  11.358   2.473   5.960
12603SOL    HW139642  11.415   2.420   6.015
12603SOL    HW239643  11.290   2.413   5.930
12604SOL     OW39644   1.482   0.528   3.564
12604SOL    HW139645   1.472   0.622   3.579
12604SOL    HW239646   1.413   0.487   3.616
12605SOL     OW39647   5.976   1.817  11.216
12605SOL    HW139648   5.954   1.908  11.196
12605SOL    HW239649   5.996   1.778  11.131
12606SOL     OW39650  13.274  12.785   2.274
12606SOL    HW139651  13.188  12.749   2.250
12606SOL    HW239652  13.319  12.713   2.318
12607SOL     OW39653   4.568   3.429   3.296
12607SOL    HW139654   4.524   3.363   3.244
12607SOL    HW239655   4.657   3.432   3.261
12608SOL     OW39656  11.876   5.512   9.101
12608SOL    HW139657  11.943   5.477   9.042
12608SOL    HW239658  11.900   5.477   9.187
12609SOL     OW39659   7.190  13.902   8.857
12609SOL    HW139660   7.181  13.841   8.783
12609SOL    HW239661   7.122  13.875   8.919
12610SOL     OW39662   3.390   6.852  14.476
12610SOL    HW139663   3.392   6.948  14.482
12610SOL    HW239664   3.408   6.833  14.384
12611SOL     OW39665   8.361   1.245   5.124
12611SOL    HW139666   8.414   1.244   5.203
12611SOL    HW239667   8.404   1.309   5.067
12612SOL     OW39668  12.580   7.692   7.631
12612SOL    HW139669  12.621   7.769   7.670
12612SOL    HW239670  12.508   7.670   7.691
12613SOL     OW39671   9.722  10.033   5.965
12613SOL    HW139672   9.725  10.093   5.890
12613SOL    HW239673   9.798  10.057   6.018
12614SOL     OW39674  12.081   7.960  13.599
12614SOL    HW139675  12.118   7.910  13.671
12614SOL    HW239676  12.157   8.001  13.557
12615SOL     OW39677   5.646   4.259   2.960
12615SOL    HW139678   5.652   4.326   2.893
12615SOL    HW239679   5.578   4.290   3.020
12616SOL     OW39680  11.252   4.726   9.115
12616SOL    HW139681  11.309   4.655   9.146
12616SOL    HW239682  11.221   4.767   9.196
12617SOL     OW39683  11.264   3.981  14.119
12617SOL    HW139684  11.345   3.929  14.116
12617SOL    HW239685  11.270   4.041  14.045
12618SOL     OW39686   1.016  14.507   5.862
12618SOL    HW139687   1.096  14.558   5.859
12618SOL    HW239688   1.013  14.471   5.950
12619SOL     OW39689   2.294   1.243   9.716
12619SOL    HW139690   2.345   1.316   9.681
12619SOL    HW239691   2.331   1.228   9.803
12620SOL     OW39692  13.246   6.873   9.826
12620SOL    HW139693  13.182   6.899   9.760
12620SOL    HW239694  13.318   6.934   9.815
12621SOL     OW39695   0.561  14.543   2.460
12621SOL    HW139696   0.497  14.472   2.462
12621SOL    HW239697   0.643  14.501   2.436
12622SOL     OW39698   2.242   6.534   6.437
12622SOL    HW139699   2.214   6.618   6.399
12622SOL    HW239700   2.207   6.468   6.377
12623SOL     OW39701   0.193   0.214   7.582
12623SOL    HW139702   0.105   0.183   7.562
12623SOL    HW239703   0.181   0.276   7.654
12624SOL     OW39704  14.298   7.451   9.751
12624SOL    HW139705  14.336   7.441   9.664
12624SOL    HW239706  14.372   7.474   9.807
12625SOL     OW39707  10.341   0.211  14.310
12625SOL    HW139708  10.285   0.134  14.294
12625SOL    HW239709  10.398   0.185  14.382
12626SOL     OW39710   7.335   3.435  12.912
12626SOL    HW139711   7.338   3.367  12.845
12626SOL    HW239712   7.254   3.417  12.960
12627SOL     OW39713  13.531   8.563   2.880
12627SOL    HW139714  13.504   8.654   2.894
12627SOL    HW239715  13.610   8.553   2.933
12628SOL     OW39716  12.954   9.019   9.699
12628SOL    HW139717  12.910   9.104   9.694
12628SOL    HW239718  13.022   9.023   9.632
12629SOL     OW39719  13.943   4.333   0.751
12629SOL    HW139720  13.865   4.297   0.793
12629SOL    HW239721  13.912   4.411   0.705
12630SOL     OW39722   6.162   7.789   0.006
12630SOL    HW139723   6.210   7.720  14.839
12630SOL    HW239724   6.077   7.792  14.841
12631SOL     OW39725   7.468   8.445  13.639
12631SOL    HW139726   7.446   8.359  13.604
12631SOL    HW239727   7.520   8.427  13.717
12632SOL     OW39728   6.368  11.300   7.854
12632SOL    HW139729   6.314  11.273   7.779
12632SOL    HW239730   6.454  11.318   7.816
12633SOL     OW39731   8.693   5.957   5.886
12633SOL    HW139732   8.681   5.889   5.819
12633SOL    HW239733   8.650   5.922   5.964
12634SOL     OW39734   4.617  12.192   2.831
12634SOL    HW139735   4.533  12.161   2.796
12634SOL    HW239736   4.665  12.112   2.854
12635SOL     OW39737   4.040   7.100  13.808
12635SOL    HW139738   4.005   7.181  13.847
12635SOL    HW239739   3.965   7.061  13.763
12636SOL     OW39740   8.744  10.425  11.322
12636SOL    HW139741   8.782  10.358  11.265
12636SOL    HW239742   8.653  10.398  11.333
12637SOL     OW39743   8.266   0.063   5.844
12637SOL    HW139744   8.221   0.009   5.909
12637SOL    HW239745   8.359   0.052   5.864
12638SOL     OW39746  12.979  13.790  10.242
12638SOL    HW139747  13.044  13.721  10.236
12638SOL    HW239748  12.900  13.746  10.274
12639SOL     OW39749   9.947   8.943  11.586
12639SOL    HW139750   9.980   8.917  11.500
12639SOL    HW239751   9.915   8.863  11.625
12640SOL     OW39752   1.478   4.190   0.830
12640SOL    HW139753   1.465   4.284   0.839
12640SOL    HW239754   1.400   4.150   0.868
12641SOL     OW39755  14.362  13.430  10.466
12641SOL    HW139756  14.354  13.520  10.436
12641SOL    HW239757  14.336  13.377  10.390
12642SOL     OW39758   0.693   0.265   0.173
12642SOL    HW139759   0.771   0.225   0.133
12642SOL    HW239760   0.687   0.351   0.132
12643SOL     OW39761  13.737  11.666   0.641
12643SOL    HW139762  13.728  11.739   0.580
12643SOL    HW239763  13.724  11.705   0.727
12644SOL     OW39764   3.482   1.259  13.305
12644SOL    HW139765   3.396   1.290  13.275
12644SOL    HW239766   3.537   1.337  13.302
12645SOL     OW39767   2.097   0.014   6.644
12645SOL    HW139768   2.081   0.088   6.586
12645SOL    HW239769   2.153  14.833   6.592
12646SOL     OW39770  13.327   1.840   7.360
12646SOL    HW139771  13.402   1.854   7.302
12646SOL    HW239772  13.314   1.745   7.360
12647SOL     OW39773  10.731   5.542   9.971
12647SOL    HW139774  10.816   5.550  10.015
12647SOL    HW239775  10.684   5.622   9.995
12648SOL     OW39776  10.026   8.509  14.571
12648SOL    HW139777  10.058   8.548  14.489
12648SOL    HW239778  10.073   8.556  14.640
12649SOL     OW39779   5.877   7.455   5.371
12649SOL    HW139780   5.873   7.494   5.459
12649SOL    HW239781   5.855   7.363   5.385
12650SOL     OW39782  12.434   0.116   0.695
12650SOL    HW139783  12.341   0.139   0.698
12650SOL    HW239784  12.465   0.129   0.785
12651SOL     OW39785  13.166  14.313   9.010
12651SOL    HW139786  13.082  14.267   9.007
12651SOL    HW239787  13.152  14.391   8.957
12652SOL     OW39788   7.556  14.208   2.569
12652SOL    HW139789   7.605  14.280   2.610
12652SOL    HW239790   7.465  14.223   2.595
12653SOL     OW39791   5.496   4.026   4.583
12653SOL    HW139792   5.509   3.935   4.612
12653SOL    HW239793   5.431   4.020   4.514
12654SOL     OW39794  14.852  11.621   1.979
12654SOL    HW139795  14.767  11.577   1.972
12654SOL    HW239796   0.034  11.563   1.934
12655SOL     OW39797   6.753   2.785   7.293
12655SOL    HW139798   6.802   2.867   7.281
12655SOL    HW239799   6.714   2.793   7.380
12656SOL     OW39800   0.833  12.470   9.012
12656SOL    HW139801   0.896  12.467   9.084
12656SOL    HW239802   0.754  12.430   9.048
12657SOL     OW39803   7.934   4.616  11.577
12657SOL    HW139804   7.978   4.636  11.494
12657SOL    HW239805   7.982   4.666  11.643
12658SOL     OW39806  10.953   4.757   3.940
12658SOL    HW139807  10.874   4.750   3.994
12658SOL    HW239808  11.019   4.708   3.989
12659SOL     OW39809  13.931   8.905   0.045
12659SOL    HW139810  13.851   8.880   0.093
12659SOL    HW239811  13.989   8.830   0.056
12660SOL     OW39812   2.586  11.156  13.478
12660SOL    HW139813   2.538  11.232  13.510
12660SOL    HW239814   2.663  11.193  13.434
12661SOL     OW39815   7.507   5.371  11.834
12661SOL    HW139816   7.512   5.396  11.741
12661SOL    HW239817   7.465   5.445  11.877
12662SOL     OW39818   3.218   4.283   6.042
12662SOL    HW139819   3.196   4.194   6.068
12662SOL    HW239820   3.265   4.273   5.959
12663SOL     OW39821  10.870  14.230   4.567
12663SOL    HW139822  10.897  14.295   4.503
12663SOL    HW239823  10.918  14.254   4.647
12664SOL     OW39824  13.194  11.781   7.565
12664SOL    HW139825  13.196  11.695   7.524
12664SOL    HW239826  13.279  11.790   7.608
12665SOL     OW39827   7.623   8.111  11.088
12665SOL    HW139828   7.568   8.047  11.133
12665SOL    HW239829   7.698   8.060  11.057
12666SOL     OW39830   3.674   4.793  11.515
12666SOL    HW139831   3.702   4.852  11.446
12666SOL    HW239832   3.591   4.830  11.546
12667SOL     OW39833  12.218  11.570   3.591
12667SOL    HW139834  12.282  11.640   3.578
12667SOL    HW239835  12.270  11.490   3.589
12668SOL     OW39836   9.586  12.798   2.806
12668SOL    HW139837   9.511  12.834   2.854
12668SOL    HW239838   9.601  12.712   2.845
12669SOL     OW39839  12.908  10.234   4.144
12669SOL    HW139840  12.978  10.299   4.137
12669SOL    HW239841  12.905  10.193   4.058
12670SOL     OW39842   4.157   4.121  12.500
12670SOL    HW139843   4.165   4.187  12.431
12670SOL    HW239844   4.231   4.137  12.558
12671SOL     OW39845  11.394   0.505   8.608
12671SOL    HW139846  11.359   0.593   8.627
12671SOL    HW239847  11.344   0.447   8.665
12672SOL     OW39848   1.392   4.995  14.723
12672SOL    HW139849   1.467   4.951  14.763
12672SOL    HW239850   1.430   5.050  14.655
12673SOL     OW39851  12.859  11.114  10.908
12673SOL    HW139852  12.871  11.168  10.830
12673SOL    HW239853  12.948  11.094  10.938
12674SOL     OW39854   3.512   6.536   9.445
12674SOL    HW139855   3.450   6.475   9.485
12674SOL    HW239856   3.596   6.491   9.450
12675SOL     OW39857  10.720   8.714  13.803
12675SOL    HW139858  10.786   8.694  13.735
12675SOL    HW239859  10.658   8.641  13.797
12676SOL     OW39860   7.122   7.355   0.162
12676SOL    HW139861   7.200   7.362   0.217
12676SOL    HW239862   7.124   7.265   0.129
12677SOL     OW39863   5.902   3.233   9.287
12677SOL    HW139864   5.873   3.294   9.219
12677SOL    HW239865   5.831   3.235   9.352
12678SOL     OW39866   0.781   4.896  12.117
12678SOL    HW139867   0.755   4.808  12.146
12678SOL    HW239868   0.700   4.947  12.119
12679SOL     OW39869   8.773   8.575   7.446
12679SOL    HW139870   8.727   8.491   7.449
12679SOL    HW239871   8.837   8.565   7.375
12680SOL     OW39872   0.395   0.412   5.243
12680SOL    HW139873   0.463   0.384   5.182
12680SOL    HW239874   0.313   0.386   5.200
12681SOL     OW39875   7.868   6.288   8.717
12681SOL    HW139876   7.887   6.328   8.632
12681SOL    HW239877   7.954   6.268   8.754
12682SOL     OW39878   8.600  11.609   0.615
12682SOL    HW139879   8.549  11.687   0.593
12682SOL    HW239880   8.658  11.597   0.540
12683SOL     OW39881   0.372   1.709   7.946
12683SOL    HW139882   0.388   1.622   7.983
12683SOL    HW239883   0.442   1.720   7.882
12684SOL     OW39884   0.083   5.769   3.378
12684SOL    HW139885   0.130   5.700   3.331
12684SOL    HW239886   0.038   5.723   3.449
12685SOL     OW39887   3.951   6.054   7.430
12685SOL    HW139888   4.039   6.081   7.404
12685SOL    HW239889   3.958   6.035   7.523
12686SOL     OW39890   0.836   7.876  11.469
12686SOL    HW139891   0.932   7.883  11.461
12686SOL    HW239892   0.804   7.964  11.449
12687SOL     OW39893   8.919   4.987   0.484
12687SOL    HW139894   8.909   5.058   0.547
12687SOL    HW239895   8.868   4.915   0.521
12688SOL     OW39896   8.968   1.151  12.338
12688SOL    HW139897   8.934   1.087  12.401
12688SOL    HW239898   8.891   1.178  12.288
12689SOL     OW39899   2.321  14.474   8.520
12689SOL    HW139900   2.364  14.550   8.558
12689SOL    HW239901   2.261  14.511   8.455
12690SOL     OW39902   6.247   7.040  14.792
12690SOL    HW139903   6.341   7.025  14.779
12690SOL    HW239904   6.205   6.987  14.725
12691SOL     OW39905  11.864   7.560   6.919
12691SOL    HW139906  11.857   7.583   7.011
12691SOL    HW239907  11.844   7.466   6.916
12692SOL     OW39908   4.758  13.930   6.790
12692SOL    HW139909   4.840  13.940   6.837
12692SOL    HW239910   4.704  13.875   6.847
12693SOL     OW39911  10.019  11.638   1.919
12693SOL    HW139912  10.037  11.727   1.950
12693SOL    HW239913   9.924  11.636   1.906
12694SOL     OW39914   5.866   5.118   9.291
12694SOL    HW139915   5.833   5.105   9.202
12694SOL    HW239916   5.924   5.194   9.284
12695SOL     OW39917   3.239   7.292   4.467
12695SOL    HW139918   3.192   7.232   4.526
12695SOL    HW239919   3.197   7.280   4.383
12696SOL     OW39920  14.367   0.973   1.103
12696SOL    HW139921  14.276   1.000   1.121
12696SOL    HW239922  14.409   1.052   1.070
12697SOL     OW39923   6.713   5.661   3.126
12697SOL    HW139924   6.743   5.686   3.213
12697SOL    HW239925   6.643   5.723   3.105
12698SOL     OW39926  14.770   4.220   4.614
12698SOL    HW139927  14.826   4.211   4.536
12698SOL    HW239928  14.683   4.192   4.584
12699SOL     OW39929  11.564   6.309  10.849
12699SOL    HW139930  11.537   6.382  10.905
12699SOL    HW239931  11.586   6.239  10.909
12700SOL     OW39932   7.189   6.593   6.776
12700SOL    HW139933   7.223   6.656   6.712
12700SOL    HW239934   7.211   6.508   6.739
12701SOL     OW39935   8.888  13.354   6.395
12701SOL    HW139936   8.897  13.276   6.449
12701SOL    HW239937   8.978  13.386   6.384
12702SOL     OW39938   2.309  11.844  12.165
12702SOL    HW139939   2.402  11.847  12.143
12702SOL    HW239940   2.284  11.753  12.150
12703SOL     OW39941  13.987   2.749   3.570
12703SOL    HW139942  13.996   2.661   3.606
12703SOL    HW239943  13.921   2.791   3.625
12704SOL     OW39944   4.304  10.358  12.078
12704SOL    HW139945   4.365  10.285  12.092
12704SOL    HW239946   4.308  10.408  12.160
12705SOL     OW39947   3.775  14.564  11.207
12705SOL    HW139948   3.761  14.472  11.183
12705SOL    HW239949   3.687  14.602  11.207
12706SOL     OW39950  13.826   0.408   0.103
12706SOL    HW139951  13.857   0.364   0.024
12706SOL    HW239952  13.902   0.410   0.161
12707SOL     OW39953  14.503  11.268   2.525
12707SOL    HW139954  14.494  11.173   2.519
12707SOL    HW239955  14.456  11.291   2.606
12708SOL     OW39956  10.874   3.117   7.167
12708SOL    HW139957  10.877   3.050   7.235
12708SOL    HW239958  10.793   3.099   7.119
12709SOL     OW39959  10.831   6.706   2.252
12709SOL    HW139960  10.894   6.736   2.317
12709SOL    HW239961  10.877   6.636   2.205
12710SOL     OW39962   3.527   6.098  12.960
12710SOL    HW139963   3.530   6.022  13.019
12710SOL    HW239964   3.516   6.173  13.019
12711SOL     OW39965   1.099   3.836  14.060
12711SOL    HW139966   1.061   3.748  14.056
12711SOL    HW239967   1.131   3.853  13.972
12712SOL     OW39968  10.286   4.094   3.396
12712SOL    HW139969  10.200   4.123   3.365
12712SOL    HW239970  10.311   4.026   3.333
12713SOL     OW39971   0.463  13.640   6.698
12713SOL    HW139972   0.461  13.593   6.615
12713SOL    HW239973   0.381  13.615   6.741
12714SOL     OW39974   3.147   0.979  12.201
12714SOL    HW139975   3.178   1.005  12.115
12714SOL    HW239976   3.216   1.008  12.261
12715SOL     OW39977   9.737   0.253  14.207
12715SOL    HW139978   9.711   0.165  14.234
12715SOL    HW239979   9.791   0.239  14.130
12716SOL     OW39980   6.892   8.857   6.082
12716SOL    HW139981   6.986   8.868   6.086
12716SOL    HW239982   6.872   8.793   6.151
12717SOL     OW39983  11.272   0.151   7.571
12717SOL    HW139984  11.311   0.233   7.540
12717SOL    HW239985  11.184   0.176   7.601
12718SOL     OW39986   2.853   7.351   1.629
12718SOL    HW139987   2.807   7.314   1.705
12718SOL    HW239988   2.807   7.316   1.553
12719SOL     OW39989   3.787  10.832   8.885
12719SOL    HW139990   3.748  10.832   8.973
12719SOL    HW239991   3.729  10.888   8.834
12720SOL     OW39992   0.186  12.698   2.629
12720SOL    HW139993   0.281  12.705   2.629
12720SOL    HW239994   0.156  12.780   2.589
12721SOL     OW39995  10.114   0.861  13.939
12721SOL    HW139996  10.140   0.774  13.968
12721SOL    HW239997  10.129   0.860  13.844
12722SOL     OW39998   8.751   9.261  14.072
12722SOL    HW139999   8.769   9.324  14.003
12722SOL    HW240000   8.806   9.288  14.145
12723SOL     OW40001   3.915   0.348  12.938
12723SOL    HW140002   3.914   0.444  12.942
12723SOL    HW240003   3.829   0.325  12.903
12724SOL     OW40004   1.082   0.687  13.326
12724SOL    HW140005   1.104   0.680  13.234
12724SOL    HW240006   1.031   0.768  13.333
12725SOL     OW40007   7.733   8.982   9.302
12725SOL    HW140008   7.661   9.005   9.360
12725SOL    HW240009   7.692   8.970   9.216
12726SOL     OW40010   4.990   5.551  13.773
12726SOL    HW140011   4.897   5.552  13.794
12726SOL    HW240012   5.010   5.459  13.754
12727SOL     OW40013  11.095  14.878   6.417
12727SOL    HW140014  11.160  14.816   6.383
12727SOL    HW240015  11.148   0.073   6.449
12728SOL     OW40016   3.279   0.673   3.617
12728SOL    HW140017   3.315   0.593   3.578
12728SOL    HW240018   3.336   0.743   3.586
12729SOL     OW40019   3.310  13.780   3.776
12729SOL    HW140020   3.371  13.799   3.705
12729SOL    HW240021   3.257  13.708   3.742
12730SOL     OW40022  11.009   2.180   9.639
12730SOL    HW140023  10.929   2.226   9.666
12730SOL    HW240024  10.994   2.089   9.665
12731SOL     OW40025   7.867  14.680   5.706
12731SOL    HW140026   7.837  14.751   5.649
12731SOL    HW240027   7.830  14.699   5.792
12732SOL     OW40028   3.340  11.633  13.458
12732SOL    HW140029   3.322  11.567  13.525
12732SOL    HW240030   3.338  11.586  13.375
12733SOL     OW40031   4.766   8.641  10.943
12733SOL    HW140032   4.841   8.674  10.992
12733SOL    HW240033   4.754   8.703  10.871
12734SOL     OW40034   0.870   1.774   4.229
12734SOL    HW140035   0.790   1.721   4.225
12734SOL    HW240036   0.915   1.744   4.308
12735SOL     OW40037   8.625  12.206   1.452
12735SOL    HW140038   8.567  12.132   1.467
12735SOL    HW240039   8.567  12.276   1.421
12736SOL     OW40040   0.057   6.564  10.681
12736SOL    HW140041  14.846   6.589  10.700
12736SOL    HW240042   0.102   6.568  10.766
12737SOL     OW40043  10.930  12.158   8.312
12737SOL    HW140044  10.897  12.197   8.393
12737SOL    HW240045  10.925  12.228   8.247
12738SOL     OW40046  12.719   9.018   3.979
12738SOL    HW140047  12.788   9.014   3.912
12738SOL    HW240048  12.674   8.934   3.972
12739SOL     OW40049   4.481   3.694  10.103
12739SOL    HW140050   4.560   3.675  10.053
12739SOL    HW240051   4.421   3.733  10.039
12740SOL     OW40052   7.460   4.484  13.159
12740SOL    HW140053   7.398   4.437  13.215
12740SOL    HW240054   7.461   4.433  13.077
12741SOL     OW40055  10.185   2.998  14.443
12741SOL    HW140056  10.193   2.946  14.523
12741SOL    HW240057  10.238   2.951  14.379
12742SOL     OW40058   7.481   2.154   6.522
12742SOL    HW140059   7.468   2.157   6.617
12742SOL    HW240060   7.515   2.240   6.500
12743SOL     OW40061  10.949   0.867   5.832
12743SOL    HW140062  10.911   0.894   5.916
12743SOL    HW240063  11.038   0.900   5.834
12744SOL     OW40064   8.701  14.777   4.558
12744SOL    HW140065   8.663  14.729   4.485
12744SOL    HW240066   8.789  14.742   4.567
12745SOL     OW40067   2.692   7.714   0.982
12745SOL    HW140068   2.637   7.637   0.970
12745SOL    HW240069   2.738   7.724   0.898
12746SOL     OW40070   2.010   9.597   5.566
12746SOL    HW140071   1.925   9.637   5.548
12746SOL    HW240072   2.044   9.646   5.641
12747SOL     OW40073   3.884  10.922   2.331
12747SOL    HW140074   3.898  10.964   2.416
12747SOL    HW240075   3.936  10.841   2.336
12748SOL     OW40076   6.909   5.378  10.128
12748SOL    HW140077   6.897   5.381  10.034
12748SOL    HW240078   6.932   5.468  10.152
12749SOL     OW40079   3.008   3.573   1.771
12749SOL    HW140080   2.991   3.479   1.775
12749SOL    HW240081   2.922   3.614   1.774
12750SOL     OW40082   5.522  10.490   2.181
12750SOL    HW140083   5.586  10.426   2.212
12750SOL    HW240084   5.556  10.519   2.096
12751SOL     OW40085  14.520  13.535   5.223
12751SOL    HW140086  14.523  13.610   5.283
12751SOL    HW240087  14.611  13.525   5.193
12752SOL     OW40088   3.511   5.551  13.957
12752SOL    HW140089   3.580   5.603  13.997
12752SOL    HW240090   3.440   5.614  13.939
12753SOL     OW40091   7.353   1.400   5.010
12753SOL    HW140092   7.324   1.474   5.062
12753SOL    HW240093   7.409   1.349   5.069
12754SOL     OW40094   7.984  14.470   5.871
12754SOL    HW140095   8.043  14.518   5.813
12754SOL    HW240096   7.961  14.532   5.940
12755SOL     OW40097   2.471   6.743  14.804
12755SOL    HW140098   2.487   6.750   0.019
12755SOL    HW240099   2.387   6.698  14.797
12756SOL     OW40100   3.325  10.309   0.638
12756SOL    HW140101   3.244  10.277   0.599
12756SOL    HW240102   3.343  10.248   0.709
12757SOL     OW40103   1.344   0.254   6.715
12757SOL    HW140104   1.299   0.259   6.631
12757SOL    HW240105   1.436   0.245   6.693
12758SOL     OW40106  13.216   7.715   4.400
12758SOL    HW140107  13.160   7.783   4.436
12758SOL    HW240108  13.289   7.709   4.462
12759SOL     OW40109   5.325  13.135   6.166
12759SOL    HW140110   5.341  13.230   6.166
12759SOL    HW240111   5.412  13.096   6.163
12760SOL     OW40112  13.242   8.493  14.826
12760SOL    HW140113  13.303   8.446   0.004
12760SOL    HW240114  13.247   8.584  14.855
12761SOL     OW40115   3.315   0.784  14.655
12761SOL    HW140116   3.306   0.817  14.565
12761SOL    HW240117   3.407   0.797  14.677
12762SOL     OW40118   6.634  14.081   4.094
12762SOL    HW140119   6.560  14.140   4.106
12762SOL    HW240120   6.688  14.093   4.172
12763SOL     OW40121  14.652   0.979   3.049
12763SOL    HW140122  14.654   0.886   3.070
12763SOL    HW240123  14.623   1.021   3.130
12764SOL     OW40124   4.081  10.413  11.928
12764SOL    HW140125   4.025  10.346  11.968
12764SOL    HW240126   4.169  10.393  11.960
12765SOL     OW40127  11.193   6.781   0.429
12765SOL    HW140128  11.099   6.793   0.436
12765SOL    HW240129  11.227   6.796   0.517
12766SOL     OW40130   6.896   9.540   2.304
12766SOL    HW140131   6.839   9.603   2.349
12766SOL    HW240132   6.837   9.469   2.279
12767SOL     OW40133   3.450   8.727   6.129
12767SOL    HW140134   3.454   8.686   6.216
12767SOL    HW240135   3.532   8.774   6.121
12768SOL     OW40136  10.721  11.058  11.157
12768SOL    HW140137  10.788  11.125  11.141
12768SOL    HW240138  10.705  11.062  11.251
12769SOL     OW40139   2.772   3.248  13.329
12769SOL    HW140140   2.679   3.257  13.350
12769SOL    HW240141   2.785   3.153  13.321
12770SOL     OW40142   4.558   4.288  11.772
12770SOL    HW140143   4.642   4.332  11.761
12770SOL    HW240144   4.580   4.200  11.802
12771SOL     OW40145   7.098  12.108   8.719
12771SOL    HW140146   7.030  12.042   8.710
12771SOL    HW240147   7.120  12.133   8.629
12772SOL     OW40148   7.917   2.074  10.316
12772SOL    HW140149   7.974   2.105  10.246
12772SOL    HW240150   7.946   1.985  10.334
12773SOL     OW40151   1.769   2.835   7.826
12773SOL    HW140152   1.844   2.876   7.869
12773SOL    HW240153   1.768   2.872   7.738
12774SOL     OW40154   7.039  13.754   9.315
12774SOL    HW140155   6.948  13.728   9.323
12774SOL    HW240156   7.087  13.695   9.373
12775SOL     OW40157   8.407   4.570   1.560
12775SOL    HW140158   8.489   4.618   1.576
12775SOL    HW240159   8.412   4.545   1.467
12776SOL     OW40160   5.482   7.706   0.385
12776SOL    HW140161   5.445   7.773   0.443
12776SOL    HW240162   5.541   7.754   0.327
12777SOL     OW40163  10.691   0.528  13.159
12777SOL    HW140164  10.726   0.520  13.070
12777SOL    HW240165  10.604   0.567  13.146
12778SOL     OW40166   6.034   1.258   5.884
12778SOL    HW140167   5.984   1.234   5.962
12778SOL    HW240168   5.976   1.317   5.835
12779SOL     OW40169   9.700   0.694   3.770
12779SOL    HW140170   9.626   0.753   3.754
12779SOL    HW240171   9.708   0.691   3.865
12780SOL     OW40172   3.885   0.887   0.593
12780SOL    HW140173   3.905   0.955   0.657
12780SOL    HW240174   3.833   0.823   0.641
12781SOL     OW40175   0.228   9.119   3.036
12781SOL    HW140176   0.187   9.205   3.048
12781SOL    HW240177   0.158   9.056   3.057
12782SOL     OW40178  12.180  13.488   0.298
12782SOL    HW140179  12.139  13.407   0.267
12782SOL    HW240180  12.250  13.458   0.356
12783SOL     OW40181   0.862  10.396   7.381
12783SOL    HW140182   0.783  10.344   7.396
12783SOL    HW240183   0.921  10.336   7.335
12784SOL     OW40184  13.909  13.585  12.852
12784SOL    HW140185  13.885  13.494  12.869
12784SOL    HW240186  13.907  13.593  12.756
12785SOL     OW40187   2.039   4.551   9.690
12785SOL    HW140188   2.105   4.584   9.629
12785SOL    HW240189   2.065   4.461   9.708
12786SOL     OW40190   4.125   5.136   7.614
12786SOL    HW140191   4.076   5.215   7.591
12786SOL    HW240192   4.197   5.168   7.669
12787SOL     OW40193   6.564   3.293  14.139
12787SOL    HW140194   6.589   3.274  14.230
12787SOL    HW240195   6.640   3.267  14.088
12788SOL     OW40196   1.970  10.146   0.205
12788SOL    HW140197   1.972  10.141   0.110
12788SOL    HW240198   1.901  10.209   0.225
12789SOL     OW40199  11.062   5.530   6.905
12789SOL    HW140200  11.109   5.460   6.860
12789SOL    HW240201  11.029   5.490   6.985
12790SOL     OW40202  14.238   8.282   1.875
12790SOL    HW140203  14.280   8.236   1.803
12790SOL    HW240204  14.226   8.371   1.843
12791SOL     OW40205   1.059   4.449   9.955
12791SOL    HW140206   1.081   4.460   9.862
12791SOL    HW240207   1.007   4.368   9.957
12792SOL     OW40208  14.215   9.576   5.508
12792SOL    HW140209  14.167   9.493   5.508
12792SOL    HW240210  14.154   9.639   5.470
12793SOL     OW40211   7.720   6.444   1.818
12793SOL    HW140212   7.755   6.361   1.786
12793SOL    HW240213   7.632   6.424   1.847
12794SOL     OW40214   9.950   4.447   9.571
12794SOL    HW140215  10.009   4.513   9.608
12794SOL    HW240216   9.897   4.496   9.507
12795SOL     OW40217  13.664   9.006   6.352
12795SOL    HW140218  13.726   9.076   6.371
12795SOL    HW240219  13.580   9.050   6.341
12796SOL     OW40220   9.102   2.169  14.594
12796SOL    HW140221   9.065   2.227  14.660
12796SOL    HW240222   9.027   2.138  14.544
12797SOL     OW40223  12.754   9.557   9.159
12797SOL    HW140224  12.843   9.591   9.152
12797SOL    HW240225  12.729   9.535   9.069
12798SOL     OW40226   4.379   0.842   9.790
12798SOL    HW140227   4.418   0.800   9.713
12798SOL    HW240228   4.426   0.925   9.799
12799SOL     OW40229   9.843  13.713   6.072
12799SOL    HW140230   9.751  13.703   6.093
12799SOL    HW240231   9.890  13.665   6.140
12800SOL     OW40232  12.950   7.184  13.966
12800SOL    HW140233  12.892   7.188  13.889
12800SOL    HW240234  12.951   7.092  13.990
12801SOL     OW40235   1.018   5.688   7.935
12801SOL    HW140236   1.005   5.644   8.019
12801SOL    HW240237   0.986   5.777   7.948
12802SOL     OW40238  13.089   4.030  14.548
12802SOL    HW140239  13.084   4.095  14.478
12802SOL    HW240240  13.133   3.955  14.507
12803SOL     OW40241  13.956  12.257   5.170
12803SOL    HW140242  14.022  12.321   5.143
12803SOL    HW240243  14.005  12.176   5.180
12804SOL     OW40244  14.469   6.489  11.823
12804SOL    HW140245  14.518   6.553  11.770
12804SOL    HW240246  14.381   6.491  11.786
12805SOL     OW40247  11.046   0.911  12.185
12805SOL    HW140248  11.008   0.878  12.267
12805SOL    HW240249  11.120   0.853  12.168
12806SOL     OW40250   4.445   1.672   6.847
12806SOL    HW140251   4.442   1.699   6.938
12806SOL    HW240252   4.366   1.707   6.808
12807SOL     OW40253  13.795   6.331   3.229
12807SOL    HW140254  13.786   6.299   3.319
12807SOL    HW240255  13.769   6.423   3.234
12808SOL     OW40256  13.250   6.614  12.979
12808SOL    HW140257  13.321   6.591  12.919
12808SOL    HW240258  13.267   6.705  13.003
12809SOL     OW40259  12.693   9.883   3.733
12809SOL    HW140260  12.647   9.916   3.656
12809SOL    HW240261  12.671   9.944   3.803
12810SOL     OW40262   0.994   2.464   9.280
12810SOL    HW140263   0.983   2.401   9.209
12810SOL    HW240264   0.910   2.511   9.283
12811SOL     OW40265  13.846   5.610  12.664
12811SOL    HW140266  13.839   5.673  12.736
12811SOL    HW240267  13.912   5.548  12.694
12812SOL     OW40268   3.552   8.483   4.580
12812SOL    HW140269   3.461   8.462   4.559
12812SOL    HW240270   3.547   8.556   4.641
12813SOL     OW40271   5.987   4.445   8.783
12813SOL    HW140272   5.992   4.519   8.724
12813SOL    HW240273   5.931   4.475   8.855
12814SOL     OW40274   8.899  11.492   2.158
12814SOL    HW140275   8.839  11.559   2.190
12814SOL    HW240276   8.860  11.461   2.077
12815SOL     OW40277   0.951   5.015  13.465
12815SOL    HW140278   1.021   5.010  13.530
12815SOL    HW240279   0.890   4.945  13.490
12816SOL     OW40280   2.251  12.890   4.402
12816SOL    HW140281   2.286  12.802   4.418
12816SOL    HW240282   2.310  12.947   4.451
12817SOL     OW40283   9.013   1.894   8.991
12817SOL    HW140284   9.088   1.949   9.013
12817SOL    HW240285   8.963   1.888   9.073
12818SOL     OW40286  10.395   0.912  10.259
12818SOL    HW140287  10.378   0.965  10.181
12818SOL    HW240288  10.421   0.976  10.326
12819SOL     OW40289   2.751  12.730   7.121
12819SOL    HW140290   2.820  12.678   7.161
12819SOL    HW240291   2.671  12.681   7.139
12820SOL     OW40292  14.716  11.992   4.171
12820SOL    HW140293  14.753  11.920   4.120
12820SOL    HW240294  14.681  12.052   4.106
12821SOL     OW40295   2.708   3.600   0.407
12821SOL    HW140296   2.753   3.549   0.474
12821SOL    HW240297   2.715   3.691   0.436
12822SOL     OW40298   8.794   5.113  10.137
12822SOL    HW140299   8.743   5.166  10.076
12822SOL    HW240300   8.878   5.100  10.093
12823SOL     OW40301  13.491   8.265  12.518
12823SOL    HW140302  13.512   8.344  12.469
12823SOL    HW240303  13.402   8.241  12.489
12824SOL     OW40304   5.104  14.783  11.975
12824SOL    HW140305   5.017  14.742  11.975
12824SOL    HW240306   5.108  14.831  12.058
12825SOL     OW40307  14.435   6.033   7.391
12825SOL    HW140308  14.375   5.960   7.379
12825SOL    HW240309  14.517   6.004   7.352
12826SOL     OW40310  10.655  11.223   7.584
12826SOL    HW140311  10.560  11.208   7.591
12826SOL    HW240312  10.666  11.259   7.495
12827SOL     OW40313  13.503  12.047   0.808
12827SOL    HW140314  13.568  12.065   0.876
12827SOL    HW240315  13.466  12.133   0.788
12828SOL     OW40316  11.168   3.208   4.464
12828SOL    HW140317  11.108   3.247   4.400
12828SOL    HW240318  11.167   3.115   4.444
12829SOL     OW40319   7.503  10.521  10.729
12829SOL    HW140320   7.475  10.446  10.677
12829SOL    HW240321   7.460  10.596  10.688
12830SOL     OW40322   5.057  12.663   1.024
12830SOL    HW140323   5.066  12.745   1.073
12830SOL    HW240324   5.106  12.599   1.075
12831SOL     OW40325   4.715   1.515   2.150
12831SOL    HW140326   4.758   1.440   2.108
12831SOL    HW240327   4.715   1.583   2.083
12832SOL     OW40328   2.617  11.276   9.182
12832SOL    HW140329   2.664  11.335   9.124
12832SOL    HW240330   2.643  11.303   9.270
12833SOL     OW40331  12.982   0.234   2.053
12833SOL    HW140332  13.025   0.158   2.092
12833SOL    HW240333  13.000   0.226   1.959
12834SOL     OW40334   3.697  10.924  14.751
12834SOL    HW140335   3.616  10.956  14.789
12834SOL    HW240336   3.705  10.971  14.668
12835SOL     OW40337   2.511   5.547  11.855
12835SOL    HW140338   2.426   5.558  11.813
12835SOL    HW240339   2.572   5.595  11.799
12836SOL     OW40340  11.796   4.819  14.784
12836SOL    HW140341  11.867   4.796  14.724
12836SOL    HW240342  11.716   4.799  14.735
12837SOL     OW40343  13.161  14.451  13.570
12837SOL    HW140344  13.074  14.481  13.596
12837SOL    HW240345  13.220  14.515  13.609
12838SOL     OW40346   0.268   7.866   9.342
12838SOL    HW140347   0.347   7.815   9.322
12838SOL    HW240348   0.196   7.806   9.325
12839SOL     OW40349  12.426  12.724  12.183
12839SOL    HW140350  12.356  12.765  12.133
12839SOL    HW240351  12.466  12.795  12.233
12840SOL     OW40352  13.095  11.903   5.354
12840SOL    HW140353  13.086  11.823   5.405
12840SOL    HW240354  13.104  11.873   5.264
12841SOL     OW40355  10.512   1.560  14.665
12841SOL    HW140356  10.594   1.549  14.713
12841SOL    HW240357  10.448   1.584  14.733
12842SOL     OW40358   1.473   1.563  12.107
12842SOL    HW140359   1.552   1.585  12.158
12842SOL    HW240360   1.507   1.533  12.023
12843SOL     OW40361   2.826   7.228   3.314
12843SOL    HW140362   2.768   7.290   3.358
12843SOL    HW240363   2.903   7.223   3.370
12844SOL     OW40364  14.800  11.956  11.547
12844SOL    HW140365  14.862  11.906  11.495
12844SOL    HW240366  14.849  11.981  11.626
12845SOL     OW40367   5.217  10.938   6.646
12845SOL    HW140368   5.161  10.860   6.641
12845SOL    HW240369   5.211  10.978   6.560
12846SOL     OW40370   9.791   7.027  13.559
12846SOL    HW140371   9.810   6.962  13.626
12846SOL    HW240372   9.824   6.988  13.478
12847SOL     OW40373  14.666   7.215   1.276
12847SOL    HW140374  14.582   7.229   1.320
12847SOL    HW240375  14.645   7.211   1.183
12848SOL     OW40376   7.360  13.916  11.671
12848SOL    HW140377   7.432  13.860  11.701
12848SOL    HW240378   7.374  13.924  11.577
12849SOL     OW40379   0.306  11.272  12.327
12849SOL    HW140380   0.296  11.190  12.376
12849SOL    HW240381   0.229  11.324  12.350
12850SOL     OW40382  12.226  10.608   7.300
12850SOL    HW140383  12.136  10.587   7.274
12850SOL    HW240384  12.263  10.651   7.223
12851SOL     OW40385   7.060  12.563   0.301
12851SOL    HW140386   7.072  12.610   0.219
12851SOL    HW240387   7.114  12.484   0.292
12852SOL     OW40388   6.126  13.985   7.918
12852SOL    HW140389   6.052  14.044   7.905
12852SOL    HW240390   6.178  14.027   7.987
12853SOL     OW40391   8.893  10.324   2.066
12853SOL    HW140392   8.887  10.291   2.156
12853SOL    HW240393   8.964  10.388   2.068
12854SOL     OW40394  14.656  14.663   1.290
12854SOL    HW140395  14.718  14.604   1.245
12854SOL    HW240396  14.712  14.718   1.344
12855SOL     OW40397   4.121   7.984  11.155
12855SOL    HW140398   4.055   7.925  11.190
12855SOL    HW240399   4.203   7.953  11.194
12856SOL     OW40400   9.903   5.330   7.701
12856SOL    HW140401   9.862   5.255   7.746
12856SOL    HW240402   9.942   5.382   7.772
12857SOL     OW40403  12.448   6.255  13.868
12857SOL    HW140404  12.417   6.175  13.910
12857SOL    HW240405  12.541   6.260  13.891
12858SOL     OW40406   0.242  14.051  11.409
12858SOL    HW140407   0.170  13.997  11.441
12858SOL    HW240408   0.298  14.064  11.486
12859SOL     OW40409  11.499  14.202   5.456
12859SOL    HW140410  11.588  14.178   5.483
12859SOL    HW240411  11.503  14.296   5.440
12860SOL     OW40412   7.789   9.303  14.434
12860SOL    HW140413   7.859   9.262  14.485
12860SOL    HW240414   7.709   9.267  14.471
12861SOL     OW40415  11.116   7.147  14.642
12861SOL    HW140416  11.122   7.052  14.642
12861SOL    HW240417  11.207   7.177  14.639
12862SOL     OW40418  13.663  13.438  10.894
12862SOL    HW140419  13.662  13.529  10.865
12862SOL    HW240420  13.723  13.394  10.834
12863SOL     OW40421   2.419   5.431  13.767
12863SOL    HW140422   2.508   5.436  13.733
12863SOL    HW240423   2.377   5.362  13.715
12864SOL     OW40424  14.270  10.779   8.281
12864SOL    HW140425  14.191  10.826   8.307
12864SOL    HW240426  14.285  10.716   8.351
12865SOL     OW40427   0.376   4.960   0.886
12865SOL    HW140428   0.344   5.020   0.954
12865SOL    HW240429   0.365   5.009   0.804
12866SOL     OW40430   7.351  11.063   4.442
12866SOL    HW140431   7.267  11.026   4.467
12866SOL    HW240432   7.389  10.999   4.383
12867SOL     OW40433   8.858  11.056  12.337
12867SOL    HW140434   8.912  11.126  12.299
12867SOL    HW240435   8.789  11.102  12.385
12868SOL     OW40436   2.826   7.528   7.585
12868SOL    HW140437   2.855   7.529   7.676
12868SOL    HW240438   2.808   7.436   7.567
12869SOL     OW40439  12.040   5.684   3.123
12869SOL    HW140440  12.086   5.751   3.174
12869SOL    HW240441  12.106   5.617   3.106
12870SOL     OW40442   2.718  11.830   1.722
12870SOL    HW140443   2.725  11.893   1.794
12870SOL    HW240444   2.628  11.837   1.692
12871SOL     OW40445  14.687   1.667  10.331
12871SOL    HW140446  14.660   1.747  10.377
12871SOL    HW240447  14.605   1.623  10.310
12872SOL     OW40448  13.810  13.769  12.096
12872SOL    HW140449  13.877  13.760  12.028
12872SOL    HW240450  13.786  13.861  12.094
12873SOL     OW40451   7.588   9.746  12.104
12873SOL    HW140452   7.552   9.718  12.020
12873SOL    HW240453   7.512   9.772  12.155
12874SOL     OW40454   3.540   8.788   9.125
12874SOL    HW140455   3.501   8.754   9.044
12874SOL    HW240456   3.522   8.882   9.123
12875SOL     OW40457   3.586  13.181  12.265
12875SOL    HW140458   3.509  13.127  12.248
12875SOL    HW240459   3.573  13.259  12.211
12876SOL     OW40460   2.122   0.929   4.721
12876SOL    HW140461   2.129   1.024   4.710
12876SOL    HW240462   2.167   0.911   4.804
12877SOL     OW40463  12.884   5.483   9.933
12877SOL    HW140464  12.830   5.548   9.888
12877SOL    HW240465  12.827   5.406   9.942
12878SOL     OW40466   8.993   5.998   9.878
12878SOL    HW140467   9.010   6.047   9.797
12878SOL    HW240468   9.073   5.947   9.892
12879SOL     OW40469   3.704   8.262  10.339
12879SOL    HW140470   3.701   8.171  10.311
12879SOL    HW240471   3.759   8.262  10.417
12880SOL     OW40472  11.569   3.210   6.849
12880SOL    HW140473  11.496   3.272   6.840
12880SOL    HW240474  11.606   3.205   6.761
12881SOL     OW40475   6.382   5.384   8.452
12881SOL    HW140476   6.296   5.417   8.482
12881SOL    HW240477   6.395   5.426   8.367
12882SOL     OW40478  10.444   3.511  11.230
12882SOL    HW140479  10.411   3.439  11.177
12882SOL    HW240480  10.469   3.578  11.167
12883SOL     OW40481  13.638  10.128   8.284
12883SOL    HW140482  13.552  10.128   8.326
12883SOL    HW240483  13.644  10.042   8.243
12884SOL     OW40484   2.824   2.593   5.791
12884SOL    HW140485   2.841   2.524   5.855
12884SOL    HW240486   2.908   2.606   5.746
12885SOL     OW40487   6.663  14.119   1.184
12885SOL    HW140488   6.619  14.131   1.100
12885SOL    HW240489   6.628  14.189   1.240
12886SOL     OW40490  14.427   8.213   8.070
12886SOL    HW140491  14.471   8.289   8.032
12886SOL    HW240492  14.498   8.159   8.105
12887SOL     OW40493  10.532   7.060   8.747
12887SOL    HW140494  10.463   7.048   8.812
12887SOL    HW240495  10.612   7.071   8.798
12888SOL     OW40496   9.723   3.091   1.005
12888SOL    HW140497   9.707   3.147   0.929
12888SOL    HW240498   9.778   3.020   0.971
12889SOL     OW40499   4.780  10.587   5.550
12889SOL    HW140500   4.790  10.560   5.458
12889SOL    HW240501   4.744  10.510   5.593
12890SOL     OW40502  11.723   4.463   6.319
12890SOL    HW140503  11.713   4.384   6.372
12890SOL    HW240504  11.679   4.442   6.237
12891SOL     OW40505   8.431   7.988   4.760
12891SOL    HW140506   8.489   8.064   4.761
12891SOL    HW240507   8.424   7.965   4.668
12892SOL     OW40508   5.889   5.920   1.014
12892SOL    HW140509   5.907   5.885   0.927
12892SOL    HW240510   5.851   6.006   0.998
12893SOL     OW40511   2.593   4.843   4.148
12893SOL    HW140512   2.665   4.903   4.129
12893SOL    HW240513   2.612   4.809   4.236
12894SOL     OW40514   4.377   2.482  11.046
12894SOL    HW140515   4.340   2.528  11.121
12894SOL    HW240516   4.460   2.526  11.029
12895SOL     OW40517   6.078   5.950  13.310
12895SOL    HW140518   6.155   5.972  13.362
12895SOL    HW240519   6.005   5.956  13.371
12896SOL     OW40520   5.185  11.399   3.940
12896SOL    HW140521   5.245  11.356   4.002
12896SOL    HW240522   5.138  11.463   3.993
12897SOL     OW40523   5.498   4.054   5.047
12897SOL    HW140524   5.454   3.973   5.020
12897SOL    HW240525   5.536   4.089   4.967
12898SOL     OW40526  12.751  14.506  14.413
12898SOL    HW140527  12.843  14.527  14.427
12898SOL    HW240528  12.751  14.450  14.336
12899SOL     OW40529   3.942  13.417   2.435
12899SOL    HW140530   3.954  13.375   2.349
12899SOL    HW240531   3.917  13.507   2.414
12900SOL     OW40532  10.077  13.231  12.549
12900SOL    HW140533  10.121  13.223  12.634
12900SOL    HW240534   9.988  13.198  12.565
12901SOL     OW40535   9.233   9.660   0.868
12901SOL    HW140536   9.263   9.734   0.922
12901SOL    HW240537   9.290   9.662   0.791
12902SOL     OW40538  12.654   1.741   8.317
12902SOL    HW140539  12.596   1.688   8.262
12902SOL    HW240540  12.623   1.726   8.406
12903SOL     OW40541  13.787   1.240   3.398
12903SOL    HW140542  13.772   1.205   3.486
12903SOL    HW240543  13.814   1.164   3.346
12904SOL     OW40544   7.014   9.722  14.306
12904SOL    HW140545   7.074   9.720  14.381
12904SOL    HW240546   6.992   9.630  14.291
12905SOL     OW40547  13.778   9.671   6.793
12905SOL    HW140548  13.756   9.688   6.885
12905SOL    HW240549  13.693   9.665   6.749
12906SOL     OW40550  11.227  11.633  12.000
12906SOL    HW140551  11.319  11.622  11.975
12906SOL    HW240552  11.180  11.636  11.917
12907SOL     OW40553   5.300   8.281  11.272
12907SOL    HW140554   5.230   8.278  11.338
12907SOL    HW240555   5.362   8.213  11.299
12908SOL     OW40556   6.750   1.545   3.155
12908SOL    HW140557   6.735   1.452   3.140
12908SOL    HW240558   6.837   1.562   3.117
12909SOL     OW40559   6.013  12.414   6.845
12909SOL    HW140560   6.060  12.498   6.848
12909SOL    HW240561   6.079  12.349   6.867
12910SOL     OW40562   3.035   1.451   9.790
12910SOL    HW140563   3.071   1.518   9.732
12910SOL    HW240564   3.054   1.482   9.878
12911SOL     OW40565   9.749   9.384  13.585
12911SOL    HW140566   9.731   9.476  13.604
12911SOL    HW240567   9.844   9.376  13.592
12912SOL     OW40568   7.266   8.954  10.491
12912SOL    HW140569   7.292   9.045  10.476
12912SOL    HW240570   7.341   8.902  10.462
12913SOL     OW40571   9.198   9.038   4.837
12913SOL    HW140572   9.237   9.109   4.887
12913SOL    HW240573   9.273   8.985   4.809
12914SOL     OW40574   1.291   2.703   5.344
12914SOL    HW140575   1.218   2.729   5.288
12914SOL    HW240576   1.284   2.607   5.348
12915SOL     OW40577  11.156   4.190   9.131
12915SOL    HW140578  11.165   4.237   9.214
12915SOL    HW240579  11.198   4.105   9.147
12916SOL     OW40580   8.866   2.302   4.396
12916SOL    HW140581   8.894   2.219   4.436
12916SOL    HW240582   8.818   2.275   4.318
12917SOL     OW40583   3.560  14.300   1.582
12917SOL    HW140584   3.491  14.259   1.529
12917SOL    HW240585   3.629  14.234   1.587
12918SOL     OW40586   6.366   5.160   5.033
12918SOL    HW140587   6.451   5.198   5.013
12918SOL    HW240588   6.386   5.085   5.090
12919SOL     OW40589   3.360   4.903  11.292
12919SOL    HW140590   3.302   4.867  11.359
12919SOL    HW240591   3.376   4.993  11.321
12920SOL     OW40592   3.868   4.030   3.856
12920SOL    HW140593   3.790   3.987   3.892
12920SOL    HW240594   3.911   3.961   3.805
12921SOL     OW40595   7.257   3.227   1.936
12921SOL    HW140596   7.346   3.262   1.948
12921SOL    HW240597   7.200   3.304   1.940
12922SOL     OW40598  13.997  11.302   7.772
12922SOL    HW140599  14.061  11.254   7.825
12922SOL    HW240600  14.048  11.368   7.726
12923SOL     OW40601   1.984  11.315   0.702
12923SOL    HW140602   1.934  11.336   0.623
12923SOL    HW240603   1.984  11.395   0.753
12924SOL     OW40604  14.281   7.420   7.845
12924SOL    HW140605  14.193   7.453   7.862
12924SOL    HW240606  14.286   7.340   7.897
12925SOL     OW40607   3.907   3.073   1.009
12925SOL    HW140608   3.911   3.104   1.099
12925SOL    HW240609   3.865   2.987   1.014
12926SOL     OW40610   4.870   9.049  13.201
12926SOL    HW140611   4.894   9.078  13.289
12926SOL    HW240612   4.869   8.953  13.207
12927SOL     OW40613  10.943  14.536   1.329
12927SOL    HW140614  10.926  14.444   1.308
12927SOL    HW240615  11.028  14.535   1.374
12928SOL     OW40616   8.651  10.518   1.483
12928SOL    HW140617   8.677  10.454   1.549
12928SOL    HW240618   8.555  10.515   1.484
12929SOL     OW40619   9.194   3.098   2.768
12929SOL    HW140620   9.226   3.148   2.843
12929SOL    HW240621   9.113   3.141   2.743
12930SOL     OW40622  12.631   5.501   8.830
12930SOL    HW140623  12.647   5.560   8.756
12930SOL    HW240624  12.638   5.413   8.793
12931SOL     OW40625  11.719   5.230   2.413
12931SOL    HW140626  11.695   5.267   2.498
12931SOL    HW240627  11.723   5.306   2.355
12932SOL     OW40628   0.268  14.573  12.495
12932SOL    HW140629   0.333  14.528  12.548
12932SOL    HW240630   0.290  14.550  12.404
12933SOL     OW40631   4.451   5.516   4.807
12933SOL    HW140632   4.479   5.564   4.729
12933SOL    HW240633   4.513   5.443   4.813
12934SOL     OW40634   3.188  13.346   9.850
12934SOL    HW140635   3.174  13.357   9.756
12934SOL    HW240636   3.172  13.253   9.866
12935SOL     OW40637   1.033   1.760  13.551
12935SOL    HW140638   1.046   1.831  13.487
12935SOL    HW240639   0.938   1.750  13.556
12936SOL     OW40640  14.722   0.436   5.390
12936SOL    HW140641  14.736   0.530   5.404
12936SOL    HW240642  14.717   0.400   5.479
12937SOL     OW40643   3.597  11.874   8.143
12937SOL    HW140644   3.692  11.878   8.138
12937SOL    HW240645   3.567  11.922   8.066
12938SOL     OW40646  13.791  14.012   2.519
12938SOL    HW140647  13.865  14.059   2.558
12938SOL    HW240648  13.723  14.014   2.586
12939SOL     OW40649   9.682   9.039   5.333
12939SOL    HW140650   9.653   9.130   5.340
12939SOL    HW240651   9.601   8.989   5.327
12940SOL     OW40652   4.098   0.828   3.236
12940SOL    HW140653   4.029   0.762   3.246
12940SOL    HW240654   4.165   0.783   3.185
12941SOL     OW40655  14.529   0.581   4.037
12941SOL    HW140656  14.512   0.675   4.029
12941SOL    HW240657  14.587   0.561   3.964
12942SOL     OW40658   8.191  14.107  11.663
12942SOL    HW140659   8.134  14.031  11.648
12942SOL    HW240660   8.155  14.175  11.606
12943SOL     OW40661   8.091   2.338   1.005
12943SOL    HW140662   8.185   2.343   0.988
12943SOL    HW240663   8.070   2.245   0.993
12944SOL     OW40664   5.298   1.647  14.443
12944SOL    HW140665   5.275   1.568  14.395
12944SOL    HW240666   5.310   1.617  14.533
12945SOL     OW40667   5.061   9.097   1.388
12945SOL    HW140668   5.023   9.095   1.476
12945SOL    HW240669   4.994   9.058   1.332
12946SOL     OW40670  13.723  11.720   7.552
12946SOL    HW140671  13.754  11.636   7.519
12946SOL    HW240672  13.761  11.728   7.639
12947SOL     OW40673  14.272   4.148   9.183
12947SOL    HW140674  14.354   4.124   9.228
12947SOL    HW240675  14.236   4.065   9.152
12948SOL     OW40676   4.342   1.891   0.373
12948SOL    HW140677   4.256   1.932   0.361
12948SOL    HW240678   4.379   1.936   0.449
12949SOL     OW40679  10.362  12.681   7.538
12949SOL    HW140680  10.313  12.725   7.469
12949SOL    HW240681  10.439  12.645   7.493
12950SOL     OW40682  13.056   4.631   4.880
12950SOL    HW140683  13.130   4.570   4.887
12950SOL    HW240684  13.089   4.701   4.824
12951SOL     OW40685   1.475   1.685   2.965
12951SOL    HW140686   1.445   1.653   3.051
12951SOL    HW240687   1.536   1.617   2.935
12952SOL     OW40688   9.454   8.424  13.166
12952SOL    HW140689   9.411   8.480  13.231
12952SOL    HW240690   9.413   8.448  13.083
12953SOL     OW40691   9.591   6.759   0.063
12953SOL    HW140692   9.681   6.767   0.030
12953SOL    HW240693   9.541   6.823   0.013
12954SOL     OW40694   1.855  13.413  10.722
12954SOL    HW140695   1.769  13.451  10.705
12954SOL    HW240696   1.844  13.319  10.703
12955SOL     OW40697   2.435   9.408  10.315
12955SOL    HW140698   2.386   9.368  10.387
12955SOL    HW240699   2.466   9.334  10.263
12956SOL     OW40700   8.587   2.885   2.085
12956SOL    HW140701   8.616   2.976   2.076
12956SOL    HW240702   8.509   2.878   2.030
12957SOL     OW40703   3.227  14.601   3.590
12957SOL    HW140704   3.200  14.513   3.616
12957SOL    HW240705   3.309  14.588   3.542
12958SOL     OW40706  10.708   7.572   3.153
12958SOL    HW140707  10.746   7.574   3.065
12958SOL    HW240708  10.710   7.479   3.178
12959SOL     OW40709   1.507   2.502  10.440
12959SOL    HW140710   1.560   2.423  10.431
12959SOL    HW240711   1.416   2.471  10.432
12960SOL     OW40712   3.822  10.573   3.634
12960SOL    HW140713   3.748  10.633   3.637
12960SOL    HW240714   3.791  10.500   3.581
12961SOL     OW40715  10.843   8.303   3.394
12961SOL    HW140716  10.775   8.236   3.398
12961SOL    HW240717  10.798   8.379   3.357
12962SOL     OW40718   5.207  11.562  13.328
12962SOL    HW140719   5.235  11.546  13.237
12962SOL    HW240720   5.196  11.657  13.333
12963SOL     OW40721  10.382  14.572  10.774
12963SOL    HW140722  10.416  14.644  10.721
12963SOL    HW240723  10.371  14.609  10.861
12964SOL     OW40724  13.068   3.369   1.682
12964SOL    HW140725  12.976   3.385   1.665
12964SOL    HW240726  13.079   3.274   1.674
12965SOL     OW40727   0.609  10.508   1.733
12965SOL    HW140728   0.545  10.573   1.704
12965SOL    HW240729   0.692  10.555   1.732
12966SOL     OW40730  13.662   3.506   2.964
12966SOL    HW140731  13.689   3.512   3.056
12966SOL    HW240732  13.633   3.415   2.953
12967SOL     OW40733   5.975   7.172   9.673
12967SOL    HW140734   6.062   7.183   9.711
12967SOL    HW240735   5.973   7.231   9.598
12968SOL     OW40736  11.423   9.131   6.143
12968SOL    HW140737  11.485   9.151   6.213
12968SOL    HW240738  11.356   9.077   6.185
12969SOL     OW40739   1.651   8.493  13.768
12969SOL    HW140740   1.610   8.410  13.745
12969SOL    HW240741   1.695   8.475  13.851
12970SOL     OW40742  14.375   6.511   1.619
12970SOL    HW140743  14.432   6.486   1.546
12970SOL    HW240744  14.410   6.595   1.649
12971SOL     OW40745   7.241   6.017   6.156
12971SOL    HW140746   7.175   6.086   6.152
12971SOL    HW240747   7.309   6.046   6.096
12972SOL     OW40748   5.335  11.658   4.109
12972SOL    HW140749   5.351  11.575   4.154
12972SOL    HW240750   5.240  11.671   4.114
12973SOL     OW40751   6.038  12.534  13.505
12973SOL    HW140752   6.051  12.555  13.413
12973SOL    HW240753   6.118  12.563  13.549
12974SOL     OW40754   0.686   1.668  12.570
12974SOL    HW140755   0.740   1.663  12.491
12974SOL    HW240756   0.722   1.742  12.618
12975SOL     OW40757  14.019   3.344   6.429
12975SOL    HW140758  13.957   3.395   6.378
12975SOL    HW240759  14.000   3.253   6.405
12976SOL     OW40760   9.504  12.221   3.589
12976SOL    HW140761   9.420  12.256   3.621
12976SOL    HW240762   9.486  12.195   3.499
12977SOL     OW40763   7.881   9.098   6.530
12977SOL    HW140764   7.852   9.039   6.601
12977SOL    HW240765   7.942   9.045   6.479
12978SOL     OW40766   5.791   1.319   7.394
12978SOL    HW140767   5.878   1.312   7.355
12978SOL    HW240768   5.733   1.337   7.320
12979SOL     OW40769   8.631   7.758  14.191
12979SOL    HW140770   8.581   7.676  14.197
12979SOL    HW240771   8.626   7.795  14.279
12980SOL     OW40772   3.898   7.366   4.280
12980SOL    HW140773   3.940   7.439   4.327
12980SOL    HW240774   3.811   7.398   4.259
12981SOL     OW40775   7.528  11.509   3.407
12981SOL    HW140776   7.456  11.480   3.351
12981SOL    HW240777   7.586  11.433   3.414
12982SOL     OW40778  14.343  12.888   4.335
12982SOL    HW140779  14.277  12.870   4.401
12982SOL    HW240780  14.323  12.976   4.304
12983SOL     OW40781   2.169  11.806   5.108
12983SOL    HW140782   2.082  11.821   5.070
12983SOL    HW240783   2.215  11.753   5.043
12984SOL     OW40784  10.709   5.306  12.644
12984SOL    HW140785  10.762   5.357  12.704
12984SOL    HW240786  10.727   5.343  12.558
12985SOL     OW40787   1.223  12.033   6.037
12985SOL    HW140788   1.140  12.074   6.060
12985SOL    HW240789   1.211  11.940   6.055
12986SOL     OW40790   5.099  12.961   7.866
12986SOL    HW140791   5.102  12.889   7.803
12986SOL    HW240792   5.187  12.966   7.902
12987SOL     OW40793  11.658   8.207  11.636
12987SOL    HW140794  11.603   8.220  11.714
12987SOL    HW240795  11.628   8.125  11.598
12988SOL     OW40796   4.784   6.514   9.200
12988SOL    HW140797   4.786   6.599   9.246
12988SOL    HW240798   4.874   6.502   9.169
12989SOL     OW40799   1.358   6.448  10.800
12989SOL    HW140800   1.345   6.358  10.828
12989SOL    HW240801   1.272   6.477  10.769
12990SOL     OW40802   1.516   0.527   1.557
12990SOL    HW140803   1.521   0.478   1.475
12990SOL    HW240804   1.478   0.465   1.619
12991SOL     OW40805   8.681   3.529  13.556
12991SOL    HW140806   8.664   3.509  13.648
12991SOL    HW240807   8.597   3.517  13.513
12992SOL     OW40808   4.319   1.723   0.869
12992SOL    HW140809   4.331   1.756   0.958
12992SOL    HW240810   4.403   1.738   0.826
12993SOL     OW40811  11.089   3.078   5.718
12993SOL    HW140812  11.142   3.000   5.702
12993SOL    HW240813  11.110   3.102   5.808
12994SOL     OW40814   5.913   2.050   1.359
12994SOL    HW140815   5.957   2.040   1.274
12994SOL    HW240816   5.830   2.004   1.348
12995SOL     OW40817  13.305   7.054   9.120
12995SOL    HW140818  13.342   7.142   9.128
12995SOL    HW240819  13.341   7.020   9.039
12996SOL     OW40820  10.970  11.710   7.461
12996SOL    HW140821  10.956  11.641   7.526
12996SOL    HW240822  10.903  11.775   7.482
12997SOL     OW40823   1.820  10.035   2.016
12997SOL    HW140824   1.882   9.991   2.075
12997SOL    HW240825   1.807  10.121   2.055
12998SOL     OW40826  14.201   2.844   4.116
12998SOL    HW140827  14.144   2.838   4.193
12998SOL    HW240828  14.289   2.857   4.153
12999SOL     OW40829   4.610   1.973   7.382
12999SOL    HW140830   4.562   2.034   7.438
12999SOL    HW240831   4.546   1.904   7.362
13000SOL     OW40832   2.721  13.437  13.691
13000SOL    HW140833   2.809  13.400  13.695
13000SOL    HW240834   2.687  13.409  13.606
13001SOL     OW40835   3.881   4.062   5.124
13001SOL    HW140836   3.846   3.975   5.105
13001SOL    HW240837   3.805   4.113   5.152
13002SOL     OW40838  11.979  12.474   1.463
13002SOL    HW140839  12.013  12.396   1.506
13002SOL    HW240840  11.889  12.451   1.440
13003SOL     OW40841   2.596  10.664   8.546
13003SOL    HW140842   2.616  10.580   8.506
13003SOL    HW240843   2.675  10.716   8.532
13004SOL     OW40844  12.299   9.230   3.190
13004SOL    HW140845  12.301   9.135   3.176
13004SOL    HW240846  12.319   9.241   3.283
13005SOL     OW40847   4.009  12.104  11.039
13005SOL    HW140848   3.964  12.164  11.099
13005SOL    HW240849   3.939  12.071  10.983
13006SOL     OW40850   3.792   9.951   1.060
13006SOL    HW140851   3.704   9.972   1.028
13006SOL    HW240852   3.776   9.891   1.133
13007SOL     OW40853   9.382  14.650   4.189
13007SOL    HW140854   9.416  14.590   4.255
13007SOL    HW240855   9.441  14.725   4.192
13008SOL     OW40856   5.805   5.571   0.665
13008SOL    HW140857   5.784   5.478   0.675
13008SOL    HW240858   5.752   5.599   0.590
13009SOL     OW40859   7.362  13.420   4.620
13009SOL    HW140860   7.288  13.360   4.608
13009SOL    HW240861   7.322  13.504   4.643
13010SOL     OW40862  13.077  14.787  10.504
13010SOL    HW140863  13.139  14.729  10.548
13010SOL    HW240864  13.083  14.869  10.551
13011SOL     OW40865   0.463  14.367   4.571
13011SOL    HW140866   0.377  14.377   4.613
13011SOL    HW240867   0.486  14.456   4.544
13012SOL     OW40868   9.581   1.287  14.403
13012SOL    HW140869   9.633   1.351  14.354
13012SOL    HW240870   9.538   1.235  14.335
13013SOL     OW40871   5.589   2.042  13.559
13013SOL    HW140872   5.502   2.075  13.579
13013SOL    HW240873   5.636   2.046  13.642
13014SOL     OW40874   1.366   0.542  10.322
13014SOL    HW140875   1.340   0.472  10.382
13014SOL    HW240876   1.296   0.545  10.258
13015SOL     OW40877   9.866  14.005  11.098
13015SOL    HW140878   9.772  14.005  11.114
13015SOL    HW240879   9.882  13.923  11.051
13016SOL     OW40880   8.586  11.129   2.293
13016SOL    HW140881   8.525  11.188   2.336
13016SOL    HW240882   8.551  11.119   2.205
13017SOL     OW40883   9.936  11.442   6.120
13017SOL    HW140884   9.874  11.385   6.075
13017SOL    HW240885   9.992  11.382   6.170
13018SOL     OW40886   7.156   8.109   3.183
13018SOL    HW140887   7.148   8.044   3.254
13018SOL    HW240888   7.161   8.193   3.229
13019SOL     OW40889  13.913  13.914   3.698
13019SOL    HW140890  13.849  13.857   3.657
13019SOL    HW240891  13.969  13.856   3.749
13020SOL     OW40892  10.032   2.390   3.106
13020SOL    HW140893  10.122   2.399   3.137
13020SOL    HW240894  10.004   2.479   3.086
13021SOL     OW40895   4.852   9.265  13.798
13021SOL    HW140896   4.835   9.306  13.713
13021SOL    HW240897   4.819   9.175  13.789
13022SOL     OW40898  11.118   4.087  11.602
13022SOL    HW140899  11.182   4.082  11.532
13022SOL    HW240900  11.165   4.127  11.676
13023SOL     OW40901  12.060   7.990   5.439
13023SOL    HW140902  12.110   8.066   5.409
13023SOL    HW240903  12.112   7.953   5.510
13024SOL     OW40904  13.250   3.521   2.109
13024SOL    HW140905  13.268   3.441   2.060
13024SOL    HW240906  13.157   3.537   2.097
13025SOL     OW40907   8.257   5.660   5.506
13025SOL    HW140908   8.211   5.714   5.442
13025SOL    HW240909   8.265   5.574   5.464
13026SOL     OW40910   8.633   9.175   0.549
13026SOL    HW140911   8.541   9.190   0.529
13026SOL    HW240912   8.676   9.173   0.464
13027SOL     OW40913   1.643   4.593   3.426
13027SOL    HW140914   1.708   4.652   3.465
13027SOL    HW240915   1.657   4.601   3.332
13028SOL     OW40916   3.414   7.599   3.288
13028SOL    HW140917   3.374   7.683   3.265
13028SOL    HW240918   3.508   7.617   3.290
13029SOL     OW40919  11.921   6.354   0.643
13029SOL    HW140920  11.899   6.320   0.556
13029SOL    HW240921  11.876   6.438   0.649
13030SOL     OW40922   7.375  12.528   4.420
13030SOL    HW140923   7.310  12.465   4.451
13030SOL    HW240924   7.459  12.493   4.450
13031SOL     OW40925  11.040   4.010   2.481
13031SOL    HW140926  10.965   4.069   2.482
13031SOL    HW240927  11.032   3.960   2.563
13032SOL     OW40928  14.068  13.953  11.257
13032SOL    HW140929  14.090  14.045  11.271
13032SOL    HW240930  14.111  13.907  11.329
13033SOL     OW40931   2.949   0.112  10.062
13033SOL    HW140932   2.961   0.021  10.091
13033SOL    HW240933   2.877   0.108   9.999
13034SOL     OW40934   9.614   2.888  10.733
13034SOL    HW140935   9.532   2.912  10.776
13034SOL    HW240936   9.681   2.902  10.800
13035SOL     OW40937   3.160   4.671  10.613
13035SOL    HW140938   3.184   4.579  10.609
13035SOL    HW240939   3.069   4.674  10.584
13036SOL     OW40940  13.684   7.252   9.506
13036SOL    HW140941  13.743   7.199   9.560
13036SOL    HW240942  13.717   7.341   9.516
13037SOL     OW40943  14.573   3.850   2.663
13037SOL    HW140944  14.641   3.918   2.661
13037SOL    HW240945  14.498   3.893   2.705
13038SOL     OW40946   7.104   5.228   0.208
13038SOL    HW140947   7.167   5.188   0.149
13038SOL    HW240948   7.022   5.231   0.159
13039SOL     OW40949   5.098   4.579   2.755
13039SOL    HW140950   5.008   4.551   2.770
13039SOL    HW240951   5.110   4.570   2.660
13040SOL     OW40952   0.709   7.400  13.460
13040SOL    HW140953   0.790   7.351  13.442
13040SOL    HW240954   0.715   7.424  13.552
13041SOL     OW40955   0.176  10.479  10.976
13041SOL    HW140956   0.125  10.535  11.034
13041SOL    HW240957   0.191  10.399  11.026
13042SOL     OW40958   5.140   3.394  13.039
13042SOL    HW140959   5.204   3.379  13.109
13042SOL    HW240960   5.166   3.334  12.969
13043SOL     OW40961   7.659   1.772  12.137
13043SOL    HW140962   7.569   1.780  12.106
13043SOL    HW240963   7.654   1.789  12.231
13044SOL     OW40964  10.475   7.696   2.115
13044SOL    HW140965  10.416   7.763   2.148
13044SOL    HW240966  10.521   7.665   2.192
13045SOL     OW40967  12.249   5.472   7.799
13045SOL    HW140968  12.162   5.462   7.839
13045SOL    HW240969  12.252   5.406   7.730
13046SOL     OW40970  13.435   8.905   1.566
13046SOL    HW140971  13.506   8.958   1.602
13046SOL    HW240972  13.466   8.879   1.479
13047SOL     OW40973   7.284   6.884   3.094
13047SOL    HW140974   7.299   6.978   3.098
13047SOL    HW240975   7.321   6.858   3.009
13048SOL     OW40976   8.910  12.402  11.491
13048SOL    HW140977   8.914  12.498  11.491
13048SOL    HW240978   8.865  12.380  11.410
13049SOL     OW40979   2.152   4.439  14.094
13049SOL    HW140980   2.196   4.375  14.150
13049SOL    HW240981   2.220   4.503  14.072
13050SOL     OW40982  10.574   3.141  11.801
13050SOL    HW140983  10.651   3.137  11.743
13050SOL    HW240984  10.500   3.146  11.741
13051SOL     OW40985   6.456  12.404   8.888
13051SOL    HW140986   6.377  12.371   8.932
13051SOL    HW240987   6.477  12.337   8.823
13052SOL     OW40988  11.595   4.362   3.882
13052SOL    HW140989  11.585   4.267   3.884
13052SOL    HW240990  11.682   4.376   3.843
13053SOL     OW40991   5.797  13.343   9.884
13053SOL    HW140992   5.731  13.288   9.841
13053SOL    HW240993   5.762  13.359   9.971
13054SOL     OW40994   1.527   4.188  12.010
13054SOL    HW140995   1.607   4.202  12.060
13054SOL    HW240996   1.542   4.107  11.962
13055SOL     OW40997   9.157  10.992   6.389
13055SOL    HW140998   9.142  11.086   6.378
13055SOL    HW240999   9.250  10.981   6.367
13056SOL     OW41000  11.974   2.590  14.274
13056SOL    HW141001  11.962   2.684  14.289
13056SOL    HW241002  12.045   2.585  14.210
13057SOL     OW41003   0.407  11.345   6.297
13057SOL    HW141004   0.475  11.361   6.232
13057SOL    HW241005   0.431  11.401   6.371
13058SOL     OW41006   6.137   0.652   2.719
13058SOL    HW141007   6.074   0.583   2.699
13058SOL    HW241008   6.201   0.611   2.778
13059SOL     OW41009  11.055  10.503   3.345
13059SOL    HW141010  11.036  10.442   3.273
13059SOL    HW241011  11.049  10.449   3.423
13060SOL     OW41012  12.004   0.742   4.074
13060SOL    HW141013  12.066   0.750   4.001
13060SOL    HW241014  12.059   0.731   4.151
13061SOL     OW41015   7.614  11.334  12.754
13061SOL    HW141016   7.666  11.413  12.738
13061SOL    HW241017   7.579  11.346  12.842
13062SOL     OW41018   2.043  13.883  11.720
13062SOL    HW141019   2.039  13.824  11.644
13062SOL    HW241020   2.134  13.879  11.748
13063SOL     OW41021   7.747   1.059   6.180
13063SOL    HW141022   7.720   1.057   6.272
13063SOL    HW241023   7.669   1.035   6.131
13064SOL     OW41024  13.402  14.486   5.821
13064SOL    HW141025  13.462  14.504   5.893
13064SOL    HW241026  13.343  14.561   5.819
13065SOL     OW41027   0.834   3.316  11.163
13065SOL    HW141028   0.853   3.361  11.082
13065SOL    HW241029   0.751   3.353  11.193
13066SOL     OW41030  11.824   3.127   1.501
13066SOL    HW141031  11.836   3.137   1.406
13066SOL    HW241032  11.874   3.200   1.539
13067SOL     OW41033   1.642   5.441  12.224
13067SOL    HW141034   1.679   5.483  12.302
13067SOL    HW241035   1.702   5.370  12.204
13068SOL     OW41036   0.399  11.672   4.662
13068SOL    HW141037   0.414  11.763   4.688
13068SOL    HW241038   0.410  11.622   4.743
13069SOL     OW41039   7.203  10.319   7.511
13069SOL    HW141040   7.230  10.410   7.502
13069SOL    HW241041   7.223  10.279   7.426
13070SOL     OW41042  12.906  13.106  10.320
13070SOL    HW141043  12.819  13.133  10.350
13070SOL    HW241044  12.962  13.183  10.334
13071SOL     OW41045  14.717   4.487   4.303
13071SOL    HW141046  14.696   4.539   4.380
13071SOL    HW241047  14.632   4.458   4.270
13072SOL     OW41048   7.894  10.731  14.341
13072SOL    HW141049   7.844  10.808  14.312
13072SOL    HW241050   7.984  10.761  14.347
13073SOL     OW41051  11.150  11.802   8.476
13073SOL    HW141052  11.230  11.748   8.473
13073SOL    HW241053  11.114  11.796   8.388
13074SOL     OW41054   3.762   3.437   3.711
13074SOL    HW141055   3.769   3.519   3.760
13074SOL    HW241056   3.693   3.389   3.755
13075SOL     OW41057  13.201   5.571   1.782
13075SOL    HW141058  13.289   5.579   1.744
13075SOL    HW241059  13.181   5.478   1.778
13076SOL     OW41060   0.296   4.733   0.252
13076SOL    HW141061   0.318   4.819   0.287
13076SOL    HW241062   0.257   4.751   0.166
13077SOL     OW41063   9.490  10.760   4.641
13077SOL    HW141064   9.424  10.771   4.572
13077SOL    HW241065   9.489  10.667   4.661
13078SOL     OW41066   5.702  11.755   0.833
13078SOL    HW141067   5.669  11.697   0.764
13078SOL    HW241068   5.742  11.828   0.787
13079SOL     OW41069   1.200   5.551   9.772
13079SOL    HW141070   1.269   5.592   9.720
13079SOL    HW241071   1.231   5.555   9.862
13080SOL     OW41072  11.509  11.446   3.870
13080SOL    HW141073  11.564  11.510   3.826
13080SOL    HW241074  11.497  11.482   3.959
13081SOL     OW41075   8.442   8.677   9.604
13081SOL    HW141076   8.446   8.772   9.598
13081SOL    HW241077   8.350   8.656   9.590
13082SOL     OW41078  10.376   6.778  10.338
13082SOL    HW141079  10.357   6.869  10.358
13082SOL    HW241080  10.351   6.730  10.418
13083SOL     OW41081   6.310  11.511   4.098
13083SOL    HW141082   6.336  11.512   4.190
13083SOL    HW241083   6.224  11.554   4.097
13084SOL     OW41084   9.212   8.211   2.670
13084SOL    HW141085   9.161   8.291   2.652
13084SOL    HW241086   9.271   8.204   2.595
13085SOL     OW41087   4.380   9.584  14.443
13085SOL    HW141088   4.287   9.605  14.453
13085SOL    HW241089   4.403   9.538  14.524
13086SOL     OW41090   9.803   3.905   1.884
13086SOL    HW141091   9.832   3.940   1.800
13086SOL    HW241092   9.780   3.982   1.936
13087SOL     OW41093   8.840   3.415  10.939
13087SOL    HW141094   8.877   3.382  10.858
13087SOL    HW241095   8.867   3.352  11.006
13088SOL     OW41096   4.573  10.355   2.818
13088SOL    HW141097   4.492  10.331   2.863
13088SOL    HW241098   4.622  10.274   2.812
13089SOL     OW41099   6.529  11.563  11.392
13089SOL    HW141100   6.613  11.609  11.384
13089SOL    HW241101   6.529  11.528  11.481
13090SOL     OW41102   1.798  11.010   4.606
13090SOL    HW141103   1.887  10.984   4.630
13090SOL    HW241104   1.805  11.102   4.583
13091SOL     OW41105  13.514  10.450   6.242
13091SOL    HW141106  13.489  10.423   6.330
13091SOL    HW241107  13.585  10.390   6.217
13092SOL     OW41108  12.980   5.789  10.816
13092SOL    HW141109  13.053   5.839  10.852
13092SOL    HW241110  13.010   5.761  10.730
13093SOL     OW41111   4.804   2.534  14.781
13093SOL    HW141112   4.829   2.525  14.689
13093SOL    HW241113   4.882   2.506  14.829
13094SOL     OW41114   8.546   0.816   7.847
13094SOL    HW141115   8.569   0.750   7.780
13094SOL    HW241116   8.631   0.853   7.873
13095SOL     OW41117   1.405   0.329   1.742
13095SOL    HW141118   1.335   0.276   1.781
13095SOL    HW241119   1.486   0.282   1.763
13096SOL     OW41120   4.322   9.784   6.190
13096SOL    HW141121   4.404   9.752   6.153
13096SOL    HW241122   4.299   9.719   6.257
13097SOL     OW41123   2.280   9.361   7.196
13097SOL    HW141124   2.185   9.375   7.197
13097SOL    HW241125   2.311   9.413   7.122
13098SOL     OW41126  12.733  14.163   8.588
13098SOL    HW141127  12.738  14.243   8.537
13098SOL    HW241128  12.647  14.126   8.567
13099SOL     OW41129   1.464   9.461   0.078
13099SOL    HW141130   1.539   9.443   0.135
13099SOL    HW241131   1.389   9.463   0.136
13100SOL     OW41132   4.688   0.226   1.561
13100SOL    HW141133   4.699   0.131   1.565
13100SOL    HW241134   4.624   0.245   1.630
13101SOL     OW41135   3.578  14.532   5.428
13101SOL    HW141136   3.517  14.549   5.355
13101SOL    HW241137   3.567  14.607   5.486
13102SOL     OW41138  10.339  10.823   7.784
13102SOL    HW141139  10.269  10.871   7.741
13102SOL    HW241140  10.331  10.733   7.750
13103SOL     OW41141  14.596  13.025   7.375
13103SOL    HW141142  14.576  13.095   7.312
13103SOL    HW241143  14.546  13.048   7.453
13104SOL     OW41144  13.963   8.426  11.801
13104SOL    HW141145  14.051   8.416  11.837
13104SOL    HW241146  13.936   8.337  11.778
13105SOL     OW41147  11.803   9.016   6.464
13105SOL    HW141148  11.771   8.947   6.406
13105SOL    HW241149  11.817   8.973   6.548
13106SOL     OW41150   3.186   9.941   5.815
13106SOL    HW141151   3.155   9.994   5.889
13106SOL    HW241152   3.123   9.956   5.745
13107SOL     OW41153   2.255  10.591   5.769
13107SOL    HW141154   2.213  10.511   5.735
13107SOL    HW241155   2.348  10.577   5.752
13108SOL     OW41156  12.656   3.270   2.644
13108SOL    HW141157  12.562   3.252   2.632
13108SOL    HW241158  12.659   3.361   2.672
13109SOL     OW41159   1.501   4.324  13.484
13109SOL    HW141160   1.452   4.278  13.416
13109SOL    HW241161   1.473   4.282  13.565
13110SOL     OW41162   3.337  13.561   8.901
13110SOL    HW141163   3.395  13.605   8.964
13110SOL    HW241164   3.395  13.506   8.850
13111SOL     OW41165  12.687  12.364   1.455
13111SOL    HW141166  12.740  12.396   1.382
13111SOL    HW241167  12.707  12.271   1.461
13112SOL     OW41168   0.324   8.411   4.491
13112SOL    HW141169   0.295   8.450   4.573
13112SOL    HW241170   0.412   8.377   4.510
13113SOL     OW41171   1.868   8.785   3.125
13113SOL    HW141172   1.870   8.757   3.217
13113SOL    HW241173   1.960   8.792   3.100
13114SOL     OW41174  13.169  12.994   1.039
13114SOL    HW141175  13.131  12.988   1.127
13114SOL    HW241176  13.170  12.904   1.008
13115SOL     OW41177   7.627  12.036   7.972
13115SOL    HW141178   7.550  12.093   7.980
13115SOL    HW241179   7.602  11.955   8.015
13116SOL     OW41180   3.539  11.059  13.888
13116SOL    HW141181   3.518  11.030  13.800
13116SOL    HW241182   3.607  10.999  13.918
13117SOL     OW41183  10.928   5.192  13.118
13117SOL    HW141184  10.973   5.153  13.193
13117SOL    HW241185  10.835   5.188  13.140
13118SOL     OW41186   7.310   0.766  11.593
13118SOL    HW141187   7.338   0.805  11.676
13118SOL    HW241188   7.348   0.822  11.526
13119SOL     OW41189   3.075  11.541  11.014
13119SOL    HW141190   3.045  11.451  11.026
13119SOL    HW241191   3.170  11.535  11.014
13120SOL     OW41192  10.630   9.507   0.302
13120SOL    HW141193  10.561   9.535   0.241
13120SOL    HW241194  10.649   9.584   0.354
13121SOL     OW41195  11.155   1.139  14.202
13121SOL    HW141196  11.143   1.046  14.222
13121SOL    HW241197  11.071   1.180  14.225
13122SOL     OW41198  10.357   5.478   8.620
13122SOL    HW141199  10.439   5.511   8.583
13122SOL    HW241200  10.307   5.556   8.643
13123SOL     OW41201   2.152   6.841  12.164
13123SOL    HW141202   2.148   6.779  12.237
13123SOL    HW241203   2.089   6.910  12.187
13124SOL     OW41204   5.619   1.358  10.656
13124SOL    HW141205   5.623   1.270  10.618
13124SOL    HW241206   5.593   1.344  10.747
13125SOL     OW41207   6.137  14.152  10.015
13125SOL    HW141208   6.091  14.097   9.951
13125SOL    HW241209   6.228  14.149   9.988
13126SOL     OW41210   3.418   5.585   9.493
13126SOL    HW141211   3.353   5.573   9.424
13126SOL    HW241212   3.457   5.671   9.474
13127SOL     OW41213   8.094   8.649  12.622
13127SOL    HW141214   8.157   8.665  12.692
13127SOL    HW241215   8.093   8.554  12.612
13128SOL     OW41216  11.844   3.433   1.038
13128SOL    HW141217  11.875   3.515   1.000
13128SOL    HW241218  11.836   3.374   0.964
13129SOL     OW41219   8.214  12.499   3.237
13129SOL    HW141220   8.173  12.563   3.178
13129SOL    HW241221   8.141  12.460   3.284
13130SOL     OW41222   3.715   1.755   8.782
13130SOL    HW141223   3.801   1.730   8.813
13130SOL    HW241224   3.718   1.851   8.777
13131SOL     OW41225  12.563   4.371   4.682
13131SOL    HW141226  12.512   4.295   4.711
13131SOL    HW241227  12.646   4.334   4.652
13132SOL     OW41228   8.139   0.444  14.152
13132SOL    HW141229   8.089   0.367  14.125
13132SOL    HW241230   8.094   0.475  14.231
13133SOL     OW41231   1.675   6.232  12.593
13133SOL    HW141232   1.767   6.248  12.613
13133SOL    HW241233   1.636   6.320  12.587
13134SOL     OW41234   5.776   9.839   2.749
13134SOL    HW141235   5.701   9.800   2.796
13134SOL    HW241236   5.828   9.880   2.818
13135SOL     OW41237  12.662  14.477   6.677
13135SOL    HW141238  12.714  14.513   6.606
13135SOL    HW241239  12.592  14.429   6.634
13136SOL     OW41240   7.596   2.155   3.117
13136SOL    HW141241   7.519   2.099   3.121
13136SOL    HW241242   7.665   2.104   3.161
13137SOL     OW41243   3.033   1.258   4.608
13137SOL    HW141244   3.045   1.172   4.566
13137SOL    HW241245   2.986   1.238   4.690
13138SOL     OW41246   5.501  13.886   0.358
13138SOL    HW141247   5.521  13.919   0.446
13138SOL    HW241248   5.521  13.958   0.299
13139SOL     OW41249  14.590   6.958  13.086
13139SOL    HW141250  14.570   6.872  13.122
13139SOL    HW241251  14.656   6.941  13.018
13140SOL     OW41252   3.406  10.711   8.386
13140SOL    HW141253   3.393  10.779   8.453
13140SOL    HW241254   3.446  10.638   8.434
13141SOL     OW41255   4.736   8.417   8.412
13141SOL    HW141256   4.728   8.441   8.320
13141SOL    HW241257   4.827   8.389   8.421
13142SOL     OW41258  10.706   0.552   3.032
13142SOL    HW141259  10.744   0.470   3.002
13142SOL    HW241260  10.716   0.550   3.127
13143SOL     OW41261  14.378  14.303   3.124
13143SOL    HW141262  14.327  14.246   3.182
13143SOL    HW241263  14.317  14.373   3.100
13144SOL     OW41264   1.387  11.892   4.388
13144SOL    HW141265   1.460  11.950   4.410
13144SOL    HW241266   1.383  11.830   4.461
13145SOL     OW41267   8.229  10.922   4.071
13145SOL    HW141268   8.234  10.833   4.106
13145SOL    HW241269   8.267  10.977   4.140
13146SOL     OW41270   3.835   8.959   5.739
13146SOL    HW141271   3.743   8.965   5.714
13146SOL    HW241272   3.847   9.028   5.805
13147SOL     OW41273   5.148   3.465   7.197
13147SOL    HW141274   5.059   3.429   7.198
13147SOL    HW241275   5.145   3.535   7.133
13148SOL     OW41276   6.304   2.678   9.161
13148SOL    HW141277   6.289   2.766   9.197
13148SOL    HW241278   6.300   2.620   9.236
13149SOL     OW41279   0.619  10.671   5.074
13149SOL    HW141280   0.623  10.671   4.978
13149SOL    HW241281   0.703  10.707   5.102
13150SOL     OW41282  12.022   4.597   8.639
13150SOL    HW141283  12.032   4.667   8.573
13150SOL    HW241284  12.095   4.537   8.622
13151SOL     OW41285   0.692   4.798   2.184
13151SOL    HW141286   0.612   4.784   2.236
13151SOL    HW241287   0.667   4.776   2.095
13152SOL     OW41288   9.516   9.237   6.768
13152SOL    HW141289   9.459   9.197   6.702
13152SOL    HW241290   9.472   9.221   6.851
13153SOL     OW41291   6.126  11.862   0.392
13153SOL    HW141292   6.200  11.814   0.430
13153SOL    HW241293   6.164  11.946   0.366
13154SOL     OW41294   4.515   9.824  12.747
13154SOL    HW141295   4.526   9.782  12.833
13154SOL    HW241296   4.470   9.758  12.694
13155SOL     OW41297   2.950   1.599   1.066
13155SOL    HW141298   2.962   1.662   1.137
13155SOL    HW241299   2.905   1.525   1.106
13156SOL     OW41300   9.357   1.827   2.325
13156SOL    HW141301   9.327   1.892   2.388
13156SOL    HW241302   9.431   1.785   2.368
13157SOL     OW41303   5.107  12.255   5.450
13157SOL    HW141304   5.077  12.275   5.539
13157SOL    HW241305   5.053  12.182   5.422
13158SOL     OW41306  10.886   0.843   3.617
13158SOL    HW141307  10.812   0.838   3.678
13158SOL    HW241308  10.917   0.933   3.625
13159SOL     OW41309   7.729   8.128  14.122
13159SOL    HW141310   7.674   8.129  14.200
13159SOL    HW241311   7.790   8.200  14.134
13160SOL     OW41312   2.606  10.901   3.199
13160SOL    HW141313   2.701  10.904   3.209
13160SOL    HW241314   2.588  10.811   3.171
13161SOL     OW41315  13.109  14.866   3.188
13161SOL    HW141316  13.131  14.817   3.268
13161SOL    HW241317  13.100  14.799   3.121
13162SOL     OW41318   8.315   5.668  10.683
13162SOL    HW141319   8.367   5.692  10.606
13162SOL    HW241320   8.378   5.668  10.755
13163SOL     OW41321   6.895   1.343   7.644
13163SOL    HW141322   6.950   1.295   7.705
13163SOL    HW241323   6.806   1.319   7.668
13164SOL     OW41324   1.293  13.572  13.614
13164SOL    HW141325   1.240  13.546  13.539
13164SOL    HW241326   1.331  13.490  13.646
13165SOL     OW41327   4.943  10.573   8.520
13165SOL    HW141328   4.877  10.605   8.459
13165SOL    HW241329   4.910  10.596   8.607
13166SOL     OW41330  10.387   3.022   9.097
13166SOL    HW141331  10.435   3.029   9.180
13166SOL    HW241332  10.406   3.104   9.051
13167SOL     OW41333   3.254  11.733   2.458
13167SOL    HW141334   3.297  11.687   2.385
13167SOL    HW241335   3.301  11.703   2.536
13168SOL     OW41336  14.620  12.518   5.611
13168SOL    HW141337  14.607  12.489   5.701
13168SOL    HW241338  14.586  12.446   5.558
13169SOL     OW41339   6.723  14.110  10.500
13169SOL    HW141340   6.710  14.129  10.593
13169SOL    HW241341   6.761  14.023  10.499
13170SOL     OW41342   6.709   0.840   5.704
13170SOL    HW141343   6.801   0.833   5.731
13170SOL    HW241344   6.712   0.893   5.625
13171SOL     OW41345   2.999  13.429  12.573
13171SOL    HW141346   2.943  13.367  12.527
13171SOL    HW241347   2.938  13.482  12.625
13172SOL     OW41348   3.514  11.529  12.366
13172SOL    HW141349   3.608  11.526  12.382
13172SOL    HW241350   3.475  11.546  12.452
13173SOL     OW41351  12.484  11.336   7.469
13173SOL    HW141352  12.496  11.242   7.458
13173SOL    HW241353  12.556  11.375   7.419
13174SOL     OW41354  13.412  13.386   8.952
13174SOL    HW141355  13.465  13.406   9.029
13174SOL    HW241356  13.332  13.348   8.987
13175SOL     OW41357   9.981   7.750   9.331
13175SOL    HW141358   9.942   7.753   9.244
13175SOL    HW241359   9.939   7.675   9.374
13176SOL     OW41360   6.115   5.045   0.893
13176SOL    HW141361   6.039   5.064   0.949
13176SOL    HW241362   6.105   5.104   0.818
13177SOL     OW41363   7.866   5.433  12.954
13177SOL    HW141364   7.772   5.429  12.933
13177SOL    HW241365   7.880   5.360  13.014
13178SOL     OW41366  12.363   8.844   7.380
13178SOL    HW141367  12.288   8.795   7.347
13178SOL    HW241368  12.435   8.820   7.321
13179SOL     OW41369   4.161  10.023  13.231
13179SOL    HW141370   4.106  10.092  13.193
13179SOL    HW241371   4.222  10.069  13.288
13180SOL     OW41372   2.961  11.443  13.270
13180SOL    HW141373   2.908  11.505  13.320
13180SOL    HW241374   2.907  11.364  13.265
13181SOL     OW41375   3.795   7.563   9.280
13181SOL    HW141376   3.882   7.548   9.318
13181SOL    HW241377   3.812   7.600   9.194
13182SOL     OW41378   8.620   0.921   1.752
13182SOL    HW141379   8.606   0.843   1.698
13182SOL    HW241380   8.625   0.887   1.841
13183SOL     OW41381  12.026  10.534   2.990
13183SOL    HW141382  12.034  10.608   2.930
13183SOL    HW241383  12.117  10.509   3.009
13184SOL     OW41384   8.254   9.259  12.625
13184SOL    HW141385   8.187   9.193  12.641
13184SOL    HW241386   8.235   9.329  12.687
13185SOL     OW41387   0.455   3.057  10.556
13185SOL    HW141388   0.454   3.152  10.568
13185SOL    HW241389   0.521   3.042  10.489
13186SOL     OW41390  10.354   2.946   9.758
13186SOL    HW141391  10.382   3.021   9.705
13186SOL    HW241392  10.398   2.871   9.719
13187SOL     OW41393   5.169   1.449   8.129
13187SOL    HW141394   5.262   1.442   8.151
13187SOL    HW241395   5.126   1.466   8.213
13188SOL     OW41396   3.527   6.837  12.831
13188SOL    HW141397   3.458   6.770  12.835
13188SOL    HW241398   3.488   6.908  12.780
13189SOL     OW41399   8.431   8.279   1.196
13189SOL    HW141400   8.375   8.217   1.149
13189SOL    HW241401   8.392   8.284   1.283
13190SOL     OW41402   5.209   4.888  12.549
13190SOL    HW141403   5.239   4.978  12.563
13190SOL    HW241404   5.186   4.856  12.636
13191SOL     OW41405   8.232  11.984   3.995
13191SOL    HW141406   8.286  12.051   4.037
13191SOL    HW241407   8.292  11.939   3.935
13192SOL     OW41408  13.581  10.179   1.995
13192SOL    HW141409  13.509  10.153   1.937
13192SOL    HW241410  13.635  10.100   2.002
13193SOL     OW41411  14.276   3.859  14.377
13193SOL    HW141412  14.224   3.802  14.433
13193SOL    HW241413  14.217   3.931  14.354
13194SOL     OW41414   5.430   6.574   3.480
13194SOL    HW141415   5.381   6.652   3.453
13194SOL    HW241416   5.522   6.597   3.468
13195SOL     OW41417   8.667   8.651  11.152
13195SOL    HW141418   8.697   8.646  11.062
13195SOL    HW241419   8.722   8.590  11.200
13196SOL     OW41420   9.743  14.754   2.938
13196SOL    HW141421   9.720  14.843   2.912
13196SOL    HW241422   9.761  14.760   3.032
13197SOL     OW41423  14.850   1.013  11.770
13197SOL    HW141424  14.778   0.966  11.813
13197SOL    HW241425  14.818   1.102  11.759
13198SOL     OW41426   6.955   7.007  11.829
13198SOL    HW141427   6.872   7.048  11.807
13198SOL    HW241428   7.020   7.077  11.822
13199SOL     OW41429   0.109   5.180   1.693
13199SOL    HW141430   0.036   5.242   1.695
13199SOL    HW241431   0.143   5.186   1.604
13200SOL     OW41432   9.603   0.004  14.779
13200SOL    HW141433   9.611   0.099  14.780
13200SOL    HW241434   9.604  14.857  14.871
13201SOL     OW41435   6.883   5.275   0.061
13201SOL    HW141436   6.892   5.202  14.878
13201SOL    HW241437   6.788   5.287   0.071
13202SOL     OW41438  11.997   2.698   0.008
13202SOL    HW141439  11.976   2.621   0.062
13202SOL    HW241440  11.977   2.772   0.064
13203SOL     OW41441   8.175  12.983   3.563
13203SOL    HW141442   8.189  13.072   3.529
13203SOL    HW241443   8.161  12.930   3.484
13204SOL     OW41444   7.647   4.888  10.267
13204SOL    HW141445   7.682   4.802  10.243
13204SOL    HW241446   7.576   4.869  10.328
13205SOL     OW41447   8.198   8.911   1.056
13205SOL    HW141448   8.270   8.866   1.100
13205SOL    HW241449   8.140   8.940   1.126
13206SOL     OW41450  12.105   1.360   1.381
13206SOL    HW141451  12.031   1.395   1.331
13206SOL    HW241452  12.111   1.418   1.457
13207SOL     OW41453  13.150  14.498  10.137
13207SOL    HW141454  13.156  14.440  10.061
13207SOL    HW241455  13.237  14.538  10.144
13208SOL     OW41456   0.304   4.646   8.586
13208SOL    HW141457   0.350   4.713   8.536
13208SOL    HW241458   0.274   4.692   8.665
13209SOL     OW41459  11.996   1.337  14.231
13209SOL    HW141460  11.993   1.409  14.294
13209SOL    HW241461  12.084   1.301  14.240
13210SOL     OW41462  10.082   3.761  12.635
13210SOL    HW141463  10.168   3.734  12.605
13210SOL    HW241464  10.100   3.826  12.703
13211SOL     OW41465   5.481   8.379  14.173
13211SOL    HW141466   5.405   8.416  14.130
13211SOL    HW241467   5.552   8.439  14.153
13212SOL     OW41468   4.445   4.643   0.650
13212SOL    HW141469   4.383   4.590   0.599
13212SOL    HW241470   4.401   4.655   0.735
13213SOL     OW41471   2.011  14.371   4.704
13213SOL    HW141472   2.017  14.434   4.776
13213SOL    HW241473   1.930  14.394   4.659
13214SOL     OW41474  10.792   1.945   3.773
13214SOL    HW141475  10.728   2.016   3.768
13214SOL    HW241476  10.792   1.920   3.865
13215SOL     OW41477   9.211   0.197  10.358
13215SOL    HW141478   9.247   0.285  10.351
13215SOL    HW241479   9.276   0.148  10.409
13216SOL     OW41480  14.536   7.118  11.078
13216SOL    HW141481  14.444   7.138  11.058
13216SOL    HW241482  14.586   7.169  11.014
13217SOL     OW41483   9.425   8.114  14.334
13217SOL    HW141484   9.446   8.179  14.402
13217SOL    HW241485   9.415   8.166  14.254
13218SOL     OW41486  12.347   4.667   8.240
13218SOL    HW141487  12.333   4.580   8.202
13218SOL    HW241488  12.360   4.724   8.165
13219SOL     OW41489   0.064   8.303   4.864
13219SOL    HW141490   0.022   8.348   4.792
13219SOL    HW241491   0.155   8.332   4.861
13220SOL     OW41492   8.403   9.433  11.300
13220SOL    HW141493   8.328   9.403  11.250
13220SOL    HW241494   8.474   9.374  11.275
13221SOL     OW41495   0.318   3.120   0.982
13221SOL    HW141496   0.307   3.058   1.053
13221SOL    HW241497   0.408   3.106   0.951
13222SOL     OW41498   4.195  11.580  13.606
13222SOL    HW141499   4.241  11.509  13.562
13222SOL    HW241500   4.132  11.537  13.662
13223SOL     OW41501   4.702  13.378   6.735
13223SOL    HW141502   4.639  13.331   6.680
13223SOL    HW241503   4.767  13.412   6.672
13224SOL     OW41504   8.589   0.964  10.165
13224SOL    HW141505   8.584   1.048  10.209
13224SOL    HW241506   8.502   0.949  10.130
13225SOL     OW41507   7.080   5.486   6.590
13225SOL    HW141508   7.039   5.569   6.610
13225SOL    HW241509   7.019   5.420   6.624
13226SOL     OW41510   2.350  12.128   8.686
13226SOL    HW141511   2.370  12.092   8.599
13226SOL    HW241512   2.301  12.058   8.730
13227SOL     OW41513   8.399  14.791   3.575
13227SOL    HW141514   8.470  14.756   3.628
13227SOL    HW241515   8.341  14.716   3.561
13228SOL     OW41516  11.873   0.454  10.898
13228SOL    HW141517  11.944   0.401  10.860
13228SOL    HW241518  11.838   0.398  10.968
13229SOL     OW41519  14.040   6.633   7.950
13229SOL    HW141520  14.010   6.563   7.893
13229SOL    HW241521  14.093   6.689   7.894
13230SOL     OW41522   1.407   7.318   1.705
13230SOL    HW141523   1.433   7.358   1.788
13230SOL    HW241524   1.454   7.369   1.638
13231SOL     OW41525   7.251   2.173  12.625
13231SOL    HW141526   7.201   2.126  12.691
13231SOL    HW241527   7.253   2.264  12.655
13232SOL     OW41528  11.967  12.725   5.737
13232SOL    HW141529  12.018  12.645   5.749
13232SOL    HW241530  12.011  12.770   5.665
13233SOL     OW41531  14.380  10.383   7.205
13233SOL    HW141532  14.298  10.401   7.251
13233SOL    HW241533  14.376  10.290   7.184
13234SOL     OW41534   8.758   9.439   9.308
13234SOL    HW141535   8.758   9.521   9.357
13234SOL    HW241536   8.701   9.381   9.357
13235SOL     OW41537   2.693   0.367  12.215
13235SOL    HW141538   2.700   0.351  12.309
13235SOL    HW241539   2.774   0.332  12.178
13236SOL     OW41540   1.716   5.534   5.131
13236SOL    HW141541   1.623   5.513   5.140
13236SOL    HW241542   1.719   5.596   5.058
13237SOL     OW41543   4.779  13.020   7.324
13237SOL    HW141544   4.750  12.942   7.276
13237SOL    HW241545   4.874  13.009   7.332
13238SOL     OW41546   7.367   0.743   0.988
13238SOL    HW141547   7.347   0.799   1.063
13238SOL    HW241548   7.375   0.804   0.914
13239SOL     OW41549   9.300   3.852   3.161
13239SOL    HW141550   9.345   3.813   3.085
13239SOL    HW241551   9.213   3.874   3.128
13240SOL     OW41552   6.537   4.572   3.198
13240SOL    HW141553   6.492   4.554   3.116
13240SOL    HW241554   6.625   4.536   3.185
13241SOL     OW41555  10.489   0.359  12.940
13241SOL    HW141556  10.525   0.305  12.869
13241SOL    HW241557  10.468   0.296  13.009
13242SOL     OW41558   9.299   0.913   4.228
13242SOL    HW141559   9.258   0.827   4.220
13242SOL    HW241560   9.227   0.975   4.218
13243SOL     OW41561  13.421   1.665  12.363
13243SOL    HW141562  13.328   1.677  12.344
13243SOL    HW241563  13.444   1.739  12.419
13244SOL     OW41564   6.593   6.058  10.153
13244SOL    HW141565   6.577   6.098  10.068
13244SOL    HW241566   6.547   6.114  10.215
13245SOL     OW41567   8.127  11.265   6.121
13245SOL    HW141568   8.090  11.309   6.044
13245SOL    HW241569   8.084  11.307   6.196
13246SOL     OW41570  14.458   7.140   3.754
13246SOL    HW141571  14.484   7.167   3.843
13246SOL    HW241572  14.364   7.154   3.752
13247SOL     OW41573  13.490  11.966   4.157
13247SOL    HW141574  13.517  11.972   4.248
13247SOL    HW241575  13.435  12.043   4.143
13248SOL     OW41576  12.496   0.818  12.793
13248SOL    HW141577  12.457   0.752  12.735
13248SOL    HW241578  12.534   0.883  12.733
13249SOL     OW41579  11.912  13.886   2.822
13249SOL    HW141580  11.841  13.946   2.847
13249SOL    HW241581  11.919  13.825   2.896
13250SOL     OW41582   8.525   4.921  13.560
13250SOL    HW141583   8.500   4.913  13.652
13250SOL    HW241584   8.511   5.013  13.539
13251SOL     OW41585   7.027   3.415   3.333
13251SOL    HW141586   7.069   3.495   3.366
13251SOL    HW241587   7.005   3.436   3.242
13252SOL     OW41588  13.413   7.118  12.433
13252SOL    HW141589  13.434   7.030  12.401
13252SOL    HW241590  13.391   7.168  12.354
13253SOL     OW41591   2.094   7.388   0.351
13253SOL    HW141592   2.017   7.338   0.325
13253SOL    HW241593   2.167   7.327   0.342
13254SOL     OW41594  14.822  14.001   1.295
13254SOL    HW141595  14.863  14.061   1.358
13254SOL    HW241596  14.804  14.056   1.219
13255SOL     OW41597   4.824   5.087  11.811
13255SOL    HW141598   4.879   5.152  11.856
13255SOL    HW241599   4.768   5.139  11.754
13256SOL     OW41600  13.754   1.071   9.598
13256SOL    HW141601  13.680   1.098   9.652
13256SOL    HW241602  13.811   1.023   9.659
13257SOL     OW41603  10.369  14.247  12.554
13257SOL    HW141604  10.351  14.173  12.495
13257SOL    HW241605  10.311  14.234  12.628
13258SOL     OW41606   8.331   4.627   4.103
13258SOL    HW141607   8.239   4.630   4.129
13258SOL    HW241608   8.340   4.698   4.040
13259SOL     OW41609   3.235   9.884  13.642
13259SOL    HW141610   3.184   9.939  13.583
13259SOL    HW241611   3.319   9.929  13.650
13260SOL     OW41612  14.730   0.082   9.272
13260SOL    HW141613  14.706  14.869   9.263
13260SOL    HW241614  14.686   0.111   9.351
13261SOL     OW41615  14.196  11.182   8.760
13261SOL    HW141616  14.110  11.213   8.729
13261SOL    HW241617  14.181  11.091   8.783
13262SOL     OW41618   4.760   7.649   7.034
13262SOL    HW141619   4.777   7.574   7.090
13262SOL    HW241620   4.815   7.719   7.069
13263SOL     OW41621   4.763   8.248   7.417
13263SOL    HW141622   4.749   8.240   7.511
13263SOL    HW241623   4.780   8.158   7.387
13264SOL     OW41624   7.266   1.324  11.341
13264SOL    HW141625   7.222   1.407  11.327
13264SOL    HW241626   7.227   1.265  11.277
13265SOL     OW41627  14.561   9.168  13.903
13265SOL    HW141628  14.473   9.172  13.865
13265SOL    HW241629  14.588   9.077  13.892
13266SOL     OW41630   7.799  10.779   8.136
13266SOL    HW141631   7.728  10.738   8.186
13266SOL    HW241632   7.755  10.827   8.066
13267SOL     OW41633   1.789  11.451  11.704
13267SOL    HW141634   1.705  11.494  11.686
13267SOL    HW241635   1.853  11.521  11.697
13268SOL     OW41636   3.316   6.853   4.430
13268SOL    HW141637   3.385   6.806   4.476
13268SOL    HW241638   3.338   6.844   4.338
13269SOL     OW41639   8.794  11.177  13.677
13269SOL    HW141640   8.825  11.100  13.724
13269SOL    HW241641   8.776  11.242  13.745
13270SOL     OW41642   8.174  11.827   7.430
13270SOL    HW141643   8.267  11.826   7.450
13270SOL    HW241644   8.153  11.738   7.403
13271SOL     OW41645   7.820  10.973   2.545
13271SOL    HW141646   7.739  11.016   2.570
13271SOL    HW241647   7.805  10.880   2.562
13272SOL     OW41648   3.216   4.878  10.121
13272SOL    HW141649   3.310   4.897  10.113
13272SOL    HW241650   3.213   4.787  10.149
13273SOL     OW41651   7.377  13.669  13.227
13273SOL    HW141652   7.303  13.669  13.288
13273SOL    HW241653   7.337  13.655  13.141
13274SOL     OW41654  13.792  14.219   1.901
13274SOL    HW141655  13.779  14.163   1.825
13274SOL    HW241656  13.886  14.216   1.917
13275SOL     OW41657   5.860   8.635   1.703
13275SOL    HW141658   5.810   8.621   1.783
13275SOL    HW241659   5.830   8.721   1.672
13276SOL     OW41660   4.427   0.913   2.496
13276SOL    HW141661   4.406   0.835   2.549
13276SOL    HW241662   4.521   0.927   2.511
13277SOL     OW41663   8.263   5.218   5.705
13277SOL    HW141664   8.275   5.207   5.800
13277SOL    HW241665   8.197   5.287   5.698
13278SOL     OW41666   9.828   1.918  14.638
13278SOL    HW141667   9.855   1.841  14.588
13278SOL    HW241668   9.899   1.982  14.624
13279SOL     OW41669  10.500   9.425   9.923
13279SOL    HW141670  10.543   9.510   9.929
13279SOL    HW241671  10.419   9.442   9.874
13280SOL     OW41672   4.188   7.360  12.897
13280SOL    HW141673   4.163   7.278  12.942
13280SOL    HW241674   4.276   7.343  12.865
13281SOL     OW41675   3.674  12.849   4.095
13281SOL    HW141676   3.690  12.754   4.100
13281SOL    HW241677   3.751  12.888   4.136
13282SOL     OW41678   2.692   2.217   4.051
13282SOL    HW141679   2.758   2.277   4.016
13282SOL    HW241680   2.626   2.212   3.982
13283SOL     OW41681  12.299  14.785   0.307
13283SOL    HW141682  12.250  14.845   0.363
13283SOL    HW241683  12.337  14.721   0.367
13284SOL     OW41684  10.165   2.441   0.998
13284SOL    HW141685  10.182   2.426   1.091
13284SOL    HW241686  10.228   2.508   0.972
13285SOL     OW41687   0.200  10.642   2.023
13285SOL    HW141688   0.246  10.560   2.005
13285SOL    HW241689   0.122  10.639   1.969
13286SOL     OW41690  12.204  13.448   5.525
13286SOL    HW141691  12.119  13.460   5.568
13286SOL    HW241692  12.215  13.353   5.521
13287SOL     OW41693  13.852   9.248  11.474
13287SOL    HW141694  13.895   9.168  11.446
13287SOL    HW241695  13.763   9.221  11.498
13288SOL     OW41696   7.288   8.871   1.941
13288SOL    HW141697   7.379   8.894   1.961
13288SOL    HW241698   7.242   8.955   1.940
13289SOL     OW41699   1.406   6.425  13.134
13289SOL    HW141700   1.453   6.370  13.072
13289SOL    HW241701   1.313   6.412  13.113
13290SOL     OW41702  13.839  10.744   0.489
13290SOL    HW141703  13.779  10.813   0.518
13290SOL    HW241704  13.839  10.750   0.393
13291SOL     OW41705   9.750  12.919   9.734
13291SOL    HW141706   9.754  12.876   9.820
13291SOL    HW241707   9.694  12.861   9.682
13292SOL     OW41708  12.287   9.275   8.808
13292SOL    HW141709  12.300   9.354   8.754
13292SOL    HW241710  12.215   9.229   8.765
13293SOL     OW41711   3.701  12.407   1.450
13293SOL    HW141712   3.787  12.367   1.463
13293SOL    HW241713   3.661  12.409   1.537
13294SOL     OW41714  11.251  13.730  11.501
13294SOL    HW141715  11.187  13.781  11.453
13294SOL    HW241716  11.207  13.706  11.583
13295SOL     OW41717  14.531   6.867   0.962
13295SOL    HW141718  14.488   6.845   1.045
13295SOL    HW241719  14.610   6.914   0.988
13296SOL     OW41720  11.336  11.540   5.149
13296SOL    HW141721  11.398  11.543   5.076
13296SOL    HW241722  11.250  11.538   5.107
13297SOL     OW41723  14.233   9.411   6.653
13297SOL    HW141724  14.167   9.433   6.719
13297SOL    HW241725  14.278   9.494   6.636
13298SOL     OW41726   6.513   5.703   3.842
13298SOL    HW141727   6.497   5.704   3.937
13298SOL    HW241728   6.479   5.618   3.813
13299SOL     OW41729  14.055   5.161  14.789
13299SOL    HW141730  14.125   5.226  14.794
13299SOL    HW241731  13.993   5.197  14.725
13300SOL     OW41732   1.961   7.428  10.632
13300SOL    HW141733   1.879   7.430  10.582
13300SOL    HW241734   1.933   7.429  10.723
13301SOL     OW41735   4.137   2.923   3.014
13301SOL    HW141736   4.084   2.974   3.076
13301SOL    HW241737   4.209   2.889   3.067
13302SOL     OW41738   2.033  12.622   0.295
13302SOL    HW141739   2.127  12.623   0.276
13302SOL    HW241740   1.992  12.592   0.214
13303SOL     OW41741   9.957  14.549   7.065
13303SOL    HW141742   9.996  14.572   6.981
13303SOL    HW241743   9.885  14.612   7.076
13304SOL     OW41744  12.376   6.949  14.181
13304SOL    HW141745  12.330   6.946  14.264
13304SOL    HW241746  12.419   7.034  14.179
13305SOL     OW41747   4.781   3.958  14.847
13305SOL    HW141748   4.782   3.917   0.055
13305SOL    HW241749   4.811   4.047  14.862
13306SOL     OW41750  11.200  13.997  11.668
13306SOL    HW141751  11.105  13.992  11.681
13306SOL    HW241752  11.227  13.905  11.661
13307SOL     OW41753  10.217  12.129   3.446
13307SOL    HW141754  10.275  12.062   3.408
13307SOL    HW241755  10.275  12.181   3.501
13308SOL     OW41756   6.352   4.135  13.145
13308SOL    HW141757   6.425   4.087  13.105
13308SOL    HW241758   6.308   4.070  13.200
13309SOL     OW41759  12.877  13.211   9.457
13309SOL    HW141760  12.948  13.248   9.510
13309SOL    HW241761  12.839  13.287   9.413
13310SOL     OW41762  13.136   9.498   7.346
13310SOL    HW141763  13.057   9.527   7.391
13310SOL    HW241764  13.140   9.552   7.267
13311SOL     OW41765  10.680  10.082  10.628
13311SOL    HW141766  10.644  10.137  10.559
13311SOL    HW241767  10.745  10.138  10.672
13312SOL     OW41768   0.388  10.326  11.936
13312SOL    HW141769   0.433  10.401  11.897
13312SOL    HW241770   0.457  10.278  11.982
13313SOL     OW41771   4.633  13.914   8.926
13313SOL    HW141772   4.561  13.867   8.967
13313SOL    HW241773   4.624  14.004   8.956
13314SOL     OW41774   3.060   2.698   0.687
13314SOL    HW141775   3.126   2.639   0.651
13314SOL    HW241776   3.076   2.698   0.782
13315SOL     OW41777   8.628  14.273   5.965
13315SOL    HW141778   8.636  14.178   5.958
13315SOL    HW241779   8.600  14.301   5.878
13316SOL     OW41780  13.196   1.450   5.487
13316SOL    HW141781  13.142   1.457   5.565
13316SOL    HW241782  13.282   1.425   5.519
13317SOL     OW41783  13.455  10.077  13.015
13317SOL    HW141784  13.392  10.019  12.971
13317SOL    HW241785  13.536  10.066  12.965
13318SOL     OW41786   3.883  10.882   9.592
13318SOL    HW141787   3.966  10.860   9.634
13318SOL    HW241788   3.900  10.964   9.546
13319SOL     OW41789   9.171   9.921   3.799
13319SOL    HW141790   9.265   9.933   3.808
13319SOL    HW241791   9.160   9.826   3.791
13320SOL     OW41792  11.135  13.540  10.181
13320SOL    HW141793  11.045  13.531  10.212
13320SOL    HW241794  11.184  13.570  10.258
13321SOL     OW41795   2.185   5.146   7.731
13321SOL    HW141796   2.240   5.207   7.682
13321SOL    HW241797   2.143   5.201   7.798
13322SOL     OW41798  14.104   2.783   3.858
13322SOL    HW141799  14.137   2.792   3.947
13322SOL    HW241800  14.183   2.777   3.804
13323SOL     OW41801   2.259   6.877   5.863
13323SOL    HW141802   2.263   6.785   5.890
13323SOL    HW241803   2.350   6.906   5.861
13324SOL     OW41804   8.963  14.477   8.585
13324SOL    HW141805   8.977  14.494   8.492
13324SOL    HW241806   9.043  14.509   8.627
13325SOL     OW41807   5.290   9.279   5.772
13325SOL    HW141808   5.355   9.293   5.842
13325SOL    HW241809   5.242   9.201   5.799
13326SOL     OW41810   6.032   0.903   4.981
13326SOL    HW141811   6.021   0.986   4.935
13326SOL    HW241812   6.000   0.837   4.920
13327SOL     OW41813   2.557   0.973  13.908
13327SOL    HW141814   2.599   0.982  13.993
13327SOL    HW241815   2.577   0.883  13.880
13328SOL     OW41816   9.936  13.041  10.946
13328SOL    HW141817  10.013  12.985  10.932
13328SOL    HW241818   9.935  13.057  11.040
13329SOL     OW41819   1.932   9.219   7.785
13329SOL    HW141820   1.904   9.297   7.832
13329SOL    HW241821   1.886   9.147   7.828
13330SOL     OW41822   4.130  12.885   4.043
13330SOL    HW141823   4.077  12.964   4.054
13330SOL    HW241824   4.067  12.819   4.012
13331SOL     OW41825   0.653  14.767   3.348
13331SOL    HW141826   0.649  14.706   3.421
13331SOL    HW241827   0.654  14.853   3.388
13332SOL     OW41828   5.658   3.114   1.691
13332SOL    HW141829   5.598   3.042   1.671
13332SOL    HW241830   5.745   3.077   1.678
13333SOL     OW41831  14.633   1.263   9.261
13333SOL    HW141832  14.627   1.354   9.234
13333SOL    HW241833  14.718   1.256   9.304
13334SOL     OW41834   7.354   5.548   2.015
13334SOL    HW141835   7.296   5.605   1.965
13334SOL    HW241836   7.323   5.554   2.105
13335SOL     OW41837   5.099   1.702   2.493
13335SOL    HW141838   5.064   1.740   2.412
13335SOL    HW241839   5.093   1.772   2.558
13336SOL     OW41840   6.342   0.855   0.592
13336SOL    HW141841   6.352   0.923   0.526
13336SOL    HW241842   6.261   0.877   0.638
13337SOL     OW41843   8.465  12.372   3.942
13337SOL    HW141844   8.461  12.322   3.861
13337SOL    HW241845   8.559  12.384   3.959
13338SOL     OW41846   1.070  11.647   0.641
13338SOL    HW141847   1.108  11.606   0.565
13338SOL    HW241848   1.080  11.741   0.625
13339SOL     OW41849   6.016   0.929  12.175
13339SOL    HW141850   5.999   0.928  12.081
13339SOL    HW241851   6.109   0.946  12.183
13340SOL     OW41852  12.983   5.046  12.220
13340SOL    HW141853  13.039   5.035  12.143
13340SOL    HW241854  12.930   5.123  12.201
13341SOL     OW41855   9.445   9.579   1.724
13341SOL    HW141856   9.467   9.628   1.803
13341SOL    HW241857   9.422   9.491   1.756
13342SOL     OW41858  12.186   8.904   2.328
13342SOL    HW141859  12.278   8.921   2.346
13342SOL    HW241860  12.166   8.958   2.252
13343SOL     OW41861   4.200   0.230   7.534
13343SOL    HW141862   4.249   0.312   7.533
13343SOL    HW241863   4.168   0.221   7.444
13344SOL     OW41864  14.841   1.801   0.421
13344SOL    HW141865   0.054   1.820   0.404
13344SOL    HW241866  14.799   1.887   0.424
13345SOL     OW41867  13.329   6.314   8.835
13345SOL    HW141868  13.306   6.406   8.839
13345SOL    HW241869  13.275   6.279   8.764
13346SOL     OW41870   4.952   1.522   1.503
13346SOL    HW141871   4.903   1.505   1.423
13346SOL    HW241872   4.946   1.617   1.515
13347SOL     OW41873  13.395  13.029   8.191
13347SOL    HW141874  13.459  13.082   8.238
13347SOL    HW241875  13.387  13.072   8.105
13348SOL     OW41876  14.331   9.990   5.106
13348SOL    HW141877  14.267   9.921   5.087
13348SOL    HW241878  14.405   9.943   5.144
13349SOL     OW41879   0.196   9.561   7.988
13349SOL    HW141880   0.145   9.619   8.044
13349SOL    HW241881   0.179   9.473   8.022
13350SOL     OW41882  14.583   6.853   9.818
13350SOL    HW141883  14.662   6.800   9.814
13350SOL    HW241884  14.524   6.804   9.875
13351SOL     OW41885   9.532   7.706   6.215
13351SOL    HW141886   9.622   7.708   6.182
13351SOL    HW241887   9.542   7.723   6.309
13352SOL     OW41888   6.580  11.295  12.181
13352SOL    HW141889   6.522  11.220  12.192
13352SOL    HW241890   6.668  11.258  12.192
13353SOL     OW41891  13.944   7.631   3.157
13353SOL    HW141892  13.984   7.559   3.205
13353SOL    HW241893  14.016   7.693   3.143
13354SOL     OW41894   5.057   3.143   8.892
13354SOL    HW141895   4.995   3.071   8.906
13354SOL    HW241896   5.017   3.196   8.823
13355SOL     OW41897   3.908  10.670   6.295
13355SOL    HW141898   3.939  10.611   6.364
13355SOL    HW241899   3.923  10.621   6.214
13356SOL     OW41900  10.366  11.967   2.623
13356SOL    HW141901  10.288  11.915   2.606
13356SOL    HW241902  10.343  12.022   2.698
13357SOL     OW41903   9.088   9.272   4.694
13357SOL    HW141904   9.116   9.185   4.723
13357SOL    HW241905   9.038   9.306   4.768
13358SOL     OW41906  12.249   4.289  11.956
13358SOL    HW141907  12.282   4.374  11.983
13358SOL    HW241908  12.154   4.299  11.957
13359SOL     OW41909   3.736   4.327   0.855
13359SOL    HW141910   3.669   4.316   0.923
13359SOL    HW241911   3.718   4.257   0.792
13360SOL     OW41912   7.934  10.101  10.125
13360SOL    HW141913   7.940  10.168  10.194
13360SOL    HW241914   7.904  10.148  10.048
13361SOL     OW41915   5.549  11.642   8.824
13361SOL    HW141916   5.644  11.639   8.836
13361SOL    HW241917   5.530  11.567   8.767
13362SOL     OW41918  13.835  10.598  11.723
13362SOL    HW141919  13.805  10.686  11.698
13362SOL    HW241920  13.919  10.613  11.767
13363SOL     OW41921   3.396   7.982  10.612
13363SOL    HW141922   3.451   7.947  10.543
13363SOL    HW241923   3.457   8.025  10.672
13364SOL     OW41924  14.189  14.803   6.029
13364SOL    HW141925  14.132  14.874   5.998
13364SOL    HW241926  14.183  14.736   5.961
13365SOL     OW41927   2.402  12.802   2.299
13365SOL    HW141928   2.456  12.829   2.225
13365SOL    HW241929   2.357  12.882   2.327
13366SOL     OW41930  10.721   0.986  11.013
13366SOL    HW141931  10.658   0.979  11.085
13366SOL    HW241932  10.681   0.935  10.942
13367SOL     OW41933   1.147  10.848   8.606
13367SOL    HW141934   1.161  10.826   8.514
13367SOL    HW241935   1.217  10.802   8.652
13368SOL     OW41936   0.405   8.037  10.184
13368SOL    HW141937   0.375   7.998  10.266
13368SOL    HW241938   0.445   8.120  10.211
13369SOL     OW41939  14.065  14.174   1.940
13369SOL    HW141940  14.079  14.145   2.031
13369SOL    HW241941  14.122  14.251   1.931
13370SOL     OW41942  14.563  14.878  11.240
13370SOL    HW141943  14.522   0.053  11.172
13370SOL    HW241944  14.498  14.874  11.310
13371SOL     OW41945   8.188   0.901  13.624
13371SOL    HW141946   8.276   0.935  13.639
13371SOL    HW241947   8.151   0.889  13.711
13372SOL     OW41948   6.207  14.661  10.523
13372SOL    HW141949   6.172  14.601  10.457
13372SOL    HW241950   6.251  14.729  10.472
13373SOL     OW41951  14.431   6.183  11.124
13373SOL    HW141952  14.441   6.269  11.083
13373SOL    HW241953  14.521   6.153  11.137
13374SOL     OW41954   2.593   5.671   3.631
13374SOL    HW141955   2.658   5.677   3.561
13374SOL    HW241956   2.534   5.745   3.616
13375SOL     OW41957  10.742  10.687  12.370
13375SOL    HW141958  10.786  10.615  12.325
13375SOL    HW241959  10.653  10.685  12.335
13376SOL     OW41960   3.768   7.327   2.657
13376SOL    HW141961   3.752   7.274   2.579
13376SOL    HW241962   3.805   7.408   2.624
13377SOL     OW41963  12.659   8.084   7.074
13377SOL    HW141964  12.687   8.175   7.078
13377SOL    HW241965  12.676   8.049   7.161
13378SOL     OW41966   4.839  11.776   9.730
13378SOL    HW141967   4.854  11.802   9.821
13378SOL    HW241968   4.904  11.826   9.681
13379SOL     OW41969  12.693   5.236  14.751
13379SOL    HW141970  12.649   5.177  14.812
13379SOL    HW241971  12.783   5.240  14.782
13380SOL     OW41972   2.861   6.432  11.090
13380SOL    HW141973   2.901   6.519  11.084
13380SOL    HW241974   2.778   6.440  11.043
13381SOL     OW41975  10.176   1.927  11.839
13381SOL    HW141976  10.175   1.967  11.752
13381SOL    HW241977  10.085   1.930  11.868
13382SOL     OW41978   0.969  12.782  12.545
13382SOL    HW141979   0.924  12.730  12.611
13382SOL    HW241980   0.972  12.726  12.468
13383SOL     OW41981   3.300   8.573   7.943
13383SOL    HW141982   3.238   8.507   7.913
13383SOL    HW241983   3.362   8.525   7.998
13384SOL     OW41984  12.484   2.262   8.801
13384SOL    HW141985  12.515   2.193   8.860
13384SOL    HW241986  12.391   2.242   8.787
13385SOL     OW41987  12.620   0.342   4.265
13385SOL    HW141988  12.685   0.374   4.202
13385SOL    HW241989  12.671   0.295   4.331
13386SOL     OW41990   3.410  12.876   2.210
13386SOL    HW141991   3.343  12.822   2.169
13386SOL    HW241992   3.418  12.952   2.152
13387SOL     OW41993  10.016  14.447   1.903
13387SOL    HW141994  10.049  14.406   1.983
13387SOL    HW241995  10.046  14.390   1.832
13388SOL     OW41996   2.217  13.427   8.359
13388SOL    HW141997   2.176  13.355   8.312
13388SOL    HW241998   2.295  13.388   8.399
13389SOL     OW41999  13.259   9.551  11.134
13389SOL    HW142000  13.343   9.564  11.177
13389SOL    HW242001  13.225   9.470  11.173
13390SOL     OW42002   5.553  10.629   6.183
13390SOL    HW142003   5.498  10.622   6.261
13390SOL    HW242004   5.628  10.681   6.210
13391SOL     OW42005   0.985  10.416  12.844
13391SOL    HW142006   1.018  10.352  12.781
13391SOL    HW242007   1.001  10.377  12.930
13392SOL     OW42008   2.011   0.293  10.582
13392SOL    HW142009   1.998   0.334  10.667
13392SOL    HW242010   1.925   0.301  10.539
13393SOL     OW42011   7.711   8.352   3.691
13393SOL    HW142012   7.681   8.273   3.737
13393SOL    HW242013   7.773   8.393   3.751
13394SOL     OW42014   2.341   5.019  14.656
13394SOL    HW142015   2.412   5.039  14.596
13394SOL    HW242016   2.339   5.093  14.717
13395SOL     OW42017  12.824  14.607   6.517
13395SOL    HW142018  12.884  14.602   6.442
13395SOL    HW242019  12.816  14.701   6.534
13396SOL     OW42020   8.986   2.856  13.100
13396SOL    HW142021   9.045   2.852  13.175
13396SOL    HW242022   8.898   2.852  13.137
13397SOL     OW42023  10.248  13.060   3.239
13397SOL    HW142024  10.264  12.988   3.300
13397SOL    HW242025  10.276  13.027   3.154
13398SOL     OW42026   7.271   8.172  11.501
13398SOL    HW142027   7.304   8.260  11.485
13398SOL    HW242028   7.258   8.135  11.414
13399SOL     OW42029  14.407  11.145   3.193
13399SOL    HW142030  14.358  11.151   3.276
13399SOL    HW242031  14.469  11.074   3.208
13400SOL     OW42032   6.146   2.517   9.604
13400SOL    HW142033   6.149   2.427   9.636
13400SOL    HW242034   6.182   2.569   9.676
13401SOL     OW42035   2.701  12.081  13.423
13401SOL    HW142036   2.608  12.061  13.410
13401SOL    HW242037   2.746  12.037  13.352
13402SOL     OW42038  12.737   0.929   9.275
13402SOL    HW142039  12.750   0.841   9.242
13402SOL    HW242040  12.658   0.924   9.329
13403SOL     OW42041   9.193   0.942   1.080
13403SOL    HW142042   9.112   0.892   1.089
13403SOL    HW242043   9.247   0.914   1.153
13404SOL     OW42044   8.962   3.620   3.884
13404SOL    HW142045   8.951   3.536   3.928
13404SOL    HW242046   8.902   3.617   3.810
13405SOL     OW42047  10.590  12.857   0.059
13405SOL    HW142048  10.543  12.931   0.098
13405SOL    HW242049  10.577  12.785   0.120
13406SOL     OW42050  13.967   9.379   0.142
13406SOL    HW142051  13.986   9.319   0.069
13406SOL    HW242052  13.995   9.465   0.109
13407SOL     OW42053   3.773   9.457   5.042
13407SOL    HW142054   3.683   9.480   5.016
13407SOL    HW242055   3.828   9.506   4.981
13408SOL     OW42056   4.443   7.959   9.544
13408SOL    HW142057   4.440   8.053   9.556
13408SOL    HW242058   4.533   7.934   9.566
13409SOL     OW42059   5.864   7.634  10.270
13409SOL    HW142060   5.847   7.598  10.183
13409SOL    HW242061   5.790   7.604  10.323
13410SOL     OW42062  13.253   8.830   1.205
13410SOL    HW142063  13.272   8.921   1.229
13410SOL    HW242064  13.184   8.803   1.266
13411SOL     OW42065   4.229   9.525   4.552
13411SOL    HW142066   4.250   9.504   4.461
13411SOL    HW242067   4.284   9.601   4.572
13412SOL     OW42068   8.966  14.420   4.737
13412SOL    HW142069   8.965  14.499   4.791
13412SOL    HW242070   8.876  14.410   4.708
13413SOL     OW42071   0.113   6.955  14.633
13413SOL    HW142072   0.173   7.028  14.648
13413SOL    HW242073   0.084   6.966  14.543
13414SOL     OW42074   5.053   5.319   7.023
13414SOL    HW142075   4.984   5.374   6.986
13414SOL    HW242076   5.042   5.235   6.978
13415SOL     OW42077   0.946   8.644  10.799
13415SOL    HW142078   0.906   8.722  10.759
13415SOL    HW242079   0.981   8.595  10.725
13416SOL     OW42080  11.995   6.120   0.007
13416SOL    HW142081  11.940   6.128   0.085
13416SOL    HW242082  12.082   6.144   0.037
13417SOL     OW42083   4.303   0.404   3.970
13417SOL    HW142084   4.326   0.395   4.062
13417SOL    HW242085   4.210   0.383   3.966
13418SOL     OW42086   3.642  10.102  12.214
13418SOL    HW142087   3.669  10.051  12.291
13418SOL    HW242088   3.701  10.074  12.145
13419SOL     OW42089   8.194   8.405   9.616
13419SOL    HW142090   8.182   8.432   9.707
13419SOL    HW242091   8.145   8.323   9.609
13420SOL     OW42092  14.686   6.666  12.857
13420SOL    HW142093  14.704   6.588  12.805
13420SOL    HW242094  14.604   6.647  12.902
13421SOL     OW42095   5.289   1.787   8.392
13421SOL    HW142096   5.239   1.734   8.455
13421SOL    HW242097   5.359   1.729   8.363
13422SOL     OW42098  10.739   3.902   6.915
13422SOL    HW142099  10.756   3.985   6.960
13422SOL    HW242100  10.647   3.883   6.935
13423SOL     OW42101   8.569  14.338   3.413
13423SOL    HW142102   8.620  14.284   3.473
13423SOL    HW242103   8.484  14.293   3.406
13424SOL     OW42104   6.267   2.475   8.168
13424SOL    HW142105   6.269   2.409   8.099
13424SOL    HW242106   6.174   2.493   8.183
13425SOL     OW42107   2.535   1.815  13.266
13425SOL    HW142108   2.512   1.852  13.181
13425SOL    HW242109   2.602   1.750  13.247
13426SOL     OW42110   3.508  10.721   9.425
13426SOL    HW142111   3.597  10.749   9.447
13426SOL    HW242112   3.492  10.756   9.338
13427SOL     OW42113   6.731   3.284   3.701
13427SOL    HW142114   6.648   3.321   3.673
13427SOL    HW242115   6.784   3.359   3.727
13428SOL     OW42116   8.666   2.555  14.816
13428SOL    HW142117   8.655   2.639  14.772
13428SOL    HW242118   8.728   2.573   0.008
13429SOL     OW42119   0.838   3.906   8.949
13429SOL    HW142120   0.851   3.811   8.954
13429SOL    HW242121   0.803   3.929   9.035
13430SOL     OW42122   4.960   6.606   3.082
13430SOL    HW142123   4.948   6.678   3.145
13430SOL    HW242124   4.910   6.533   3.120
13431SOL     OW42125  12.843  13.015  11.986
13431SOL    HW142126  12.853  12.922  12.003
13431SOL    HW242127  12.789  13.019  11.906
13432SOL     OW42128   0.205   8.646   6.559
13432SOL    HW142129   0.120   8.654   6.517
13432SOL    HW242130   0.221   8.733   6.596
13433SOL     OW42131   8.792   3.972   7.217
13433SOL    HW142132   8.731   4.021   7.162
13433SOL    HW242133   8.858   3.938   7.157
13434SOL     OW42134  13.030   0.139  12.942
13434SOL    HW142135  12.966   0.087  12.891
13434SOL    HW242136  13.044   0.088  13.021
13435SOL     OW42137   4.424   0.827  14.451
13435SOL    HW142138   4.410   0.806  14.543
13435SOL    HW242139   4.447   0.920  14.451
13436SOL     OW42140   2.037   3.771  12.644
13436SOL    HW142141   2.038   3.766  12.549
13436SOL    HW242142   2.003   3.859  12.663
13437SOL     OW42143   0.300  11.003  14.804
13437SOL    HW142144   0.341  10.918  14.820
13437SOL    HW242145   0.374  11.064  14.801
13438SOL     OW42146   7.598  12.967   3.471
13438SOL    HW142147   7.570  13.058   3.462
13438SOL    HW242148   7.656  12.966   3.547
13439SOL     OW42149   7.669   9.481  10.873
13439SOL    HW142150   7.723   9.459  10.949
13439SOL    HW242151   7.705   9.428  10.802
13440SOL     OW42152   7.441   0.648   0.158
13440SOL    HW142153   7.449   0.688   0.245
13440SOL    HW242154   7.410   0.559   0.175
13441SOL     OW42155   5.394   2.022  10.337
13441SOL    HW142156   5.449   1.963  10.285
13441SOL    HW242157   5.448   2.045  10.412
13442SOL     OW42158   4.560   1.943   7.657
13442SOL    HW142159   4.586   1.852   7.639
13442SOL    HW242160   4.637   1.995   7.635
13443SOL     OW42161   5.102   0.301   0.858
13443SOL    HW142162   5.152   0.221   0.841
13443SOL    HW242163   5.084   0.298   0.952
13444SOL     OW42164   7.923   4.350   9.122
13444SOL    HW142165   7.975   4.270   9.134
13444SOL    HW242166   7.970   4.399   9.054
13445SOL     OW42167   5.914  12.928   1.427
13445SOL    HW142168   5.954  12.931   1.514
13445SOL    HW242169   5.970  12.869   1.377
13446SOL     OW42170  14.455   1.768  14.704
13446SOL    HW142171  14.404   1.726  14.634
13446SOL    HW242172  14.509   1.697  14.740
13447SOL     OW42173   9.781   1.964   6.601
13447SOL    HW142174   9.704   1.917   6.633
13447SOL    HW242175   9.782   1.947   6.507
13448SOL     OW42176  10.928  14.571  12.971
13448SOL    HW142177  10.908  14.517  13.048
13448SOL    HW242178  11.020  14.553  12.952
13449SOL     OW42179   0.127   1.582   0.145
13449SOL    HW142180   0.192   1.518   0.174
13449SOL    HW242181   0.136   1.655   0.207
13450SOL     OW42182   7.808   1.204   1.490
13450SOL    HW142183   7.863   1.213   1.568
13450SOL    HW242184   7.868   1.180   1.420
13451SOL     OW42185   6.539   2.208  13.311
13451SOL    HW142186   6.467   2.203  13.373
13451SOL    HW242187   6.607   2.258  13.357
13452SOL     OW42188   3.419   5.387   6.080
13452SOL    HW142189   3.421   5.449   6.007
13452SOL    HW242190   3.337   5.407   6.126
13453SOL     OW42191   2.711   5.374   4.880
13453SOL    HW142192   2.700   5.429   4.958
13453SOL    HW242193   2.631   5.388   4.830
13454SOL     OW42194  13.425  13.240   5.897
13454SOL    HW142195  13.361  13.169   5.892
13454SOL    HW242196  13.502  13.206   5.852
13455SOL     OW42197   9.395   9.076   8.116
13455SOL    HW142198   9.336   9.051   8.045
13455SOL    HW242199   9.404   8.996   8.168
13456SOL     OW42200  11.135   7.366   1.567
13456SOL    HW142201  11.097   7.350   1.480
13456SOL    HW242202  11.200   7.435   1.552
13457SOL     OW42203  14.043   6.000   9.566
13457SOL    HW142204  13.992   6.037   9.638
13457SOL    HW242205  14.079   6.076   9.521
13458SOL     OW42206   9.215   9.357   4.137
13458SOL    HW142207   9.276   9.315   4.076
13458SOL    HW242208   9.217   9.302   4.215
13459SOL     OW42209  10.574  11.601   6.021
13459SOL    HW142210  10.525  11.533   5.975
13459SOL    HW242211  10.509  11.644   6.076
13460SOL     OW42212   3.263   3.689  10.301
13460SOL    HW142213   3.274   3.668  10.208
13460SOL    HW242214   3.344   3.732  10.326
13461SOL     OW42215  14.851  12.989  13.482
13461SOL    HW142216  14.837  13.028  13.568
13461SOL    HW242217   0.046  13.038  13.445
13462SOL     OW42218   5.370   7.901  10.198
13462SOL    HW142219   5.369   7.973  10.261
13462SOL    HW242220   5.328   7.939  10.120
13463SOL     OW42221   9.372   5.213   3.511
13463SOL    HW142222   9.299   5.218   3.450
13463SOL    HW242223   9.435   5.154   3.468
13464SOL     OW42224   6.698   5.248   6.269
13464SOL    HW142225   6.702   5.194   6.348
13464SOL    HW242226   6.783   5.234   6.226
13465SOL     OW42227  14.780   0.050   7.639
13465SOL    HW142228  14.713   0.008   7.692
13465SOL    HW242229  14.746   0.138   7.622
13466SOL     OW42230   5.218   7.800   1.552
13466SOL    HW142231   5.123   7.809   1.560
13466SOL    HW242232   5.238   7.721   1.602
13467SOL     OW42233  11.459  12.867  12.308
13467SOL    HW142234  11.446  12.850  12.401
13467SOL    HW242235  11.373  12.896  12.277
13468SOL     OW42236   9.652   4.174  14.563
13468SOL    HW142237   9.575   4.153  14.510
13468SOL    HW242238   9.629   4.253  14.612
13469SOL     OW42239   5.715   1.284   6.962
13469SOL    HW142240   5.709   1.352   6.894
13469SOL    HW242241   5.682   1.326   7.041
13470SOL     OW42242  10.792  10.694  12.647
13470SOL    HW142243  10.735  10.768  12.668
13470SOL    HW242244  10.802  10.698  12.552
13471SOL     OW42245  14.578   7.916   0.178
13471SOL    HW142246  14.506   7.964   0.138
13471SOL    HW242247  14.537   7.862   0.245
13472SOL     OW42248   4.216  12.410  13.181
13472SOL    HW142249   4.165  12.488  13.200
13472SOL    HW242250   4.167  12.338  13.222
13473SOL     OW42251  14.708   7.853  13.822
13473SOL    HW142252  14.658   7.933  13.838
13473SOL    HW242253  14.733   7.823  13.909
13474SOL     OW42254   8.183   6.393   6.716
13474SOL    HW142255   8.261   6.439   6.746
13474SOL    HW242256   8.127   6.461   6.680
13475SOL     OW42257   1.411   3.943  12.750
13475SOL    HW142258   1.467   4.018  12.772
13475SOL    HW242259   1.322   3.975  12.764
13476SOL     OW42260  13.830  12.687   4.466
13476SOL    HW142261  13.823  12.723   4.555
13476SOL    HW242262  13.754  12.630   4.457
13477SOL     OW42263  14.308  13.269   9.495
13477SOL    HW142264  14.323  13.260   9.589
13477SOL    HW242265  14.395  13.262   9.456
13478SOL     OW42266  11.896   0.634   3.299
13478SOL    HW142267  11.982   0.616   3.338
13478SOL    HW242268  11.886   0.568   3.231
13479SOL     OW42269   9.410   9.613  12.665
13479SOL    HW142270   9.350   9.540  12.648
13479SOL    HW242271   9.487   9.594  12.611
13480SOL     OW42272   6.759  11.588   1.585
13480SOL    HW142273   6.749  11.651   1.656
13480SOL    HW242274   6.713  11.627   1.511
13481SOL     OW42275  13.893   1.679   6.701
13481SOL    HW142276  13.925   1.591   6.680
13481SOL    HW242277  13.910   1.689   6.794
13482SOL     OW42278  14.677  13.588   9.560
13482SOL    HW142279  14.699  13.630   9.477
13482SOL    HW242280  14.687  13.494   9.543
13483SOL     OW42281   8.909   5.327  10.766
13483SOL    HW142282   8.875   5.253  10.816
13483SOL    HW242283   8.864   5.322  10.681
13484SOL     OW42284   7.820  11.834   6.409
13484SOL    HW142285   7.725  11.847   6.411
13484SOL    HW242286   7.833  11.761   6.348
13485SOL     OW42287   1.494  10.215  10.760
13485SOL    HW142288   1.413  10.259  10.732
13485SOL    HW242289   1.474  10.184  10.848
13486SOL     OW42290  11.882  13.447   1.943
13486SOL    HW142291  11.905  13.475   2.031
13486SOL    HW242292  11.942  13.495   1.886
13487SOL     OW42293   1.427   8.527  10.750
13487SOL    HW142294   1.448   8.617  10.774
13487SOL    HW242295   1.439   8.524  10.655
13488SOL     OW42296   4.267  13.456   9.697
13488SOL    HW142297   4.308  13.421   9.776
13488SOL    HW242298   4.185  13.408   9.690
13489SOL     OW42299   7.958  10.400   9.971
13489SOL    HW142300   7.974  10.484   9.927
13489SOL    HW242301   7.917  10.424  10.054
13490SOL     OW42302  12.299   8.610   1.882
13490SOL    HW142303  12.303   8.650   1.795
13490SOL    HW242304  12.229   8.656   1.927
13491SOL     OW42305  11.698  11.436   1.849
13491SOL    HW142306  11.690  11.457   1.756
13491SOL    HW242307  11.793  11.434   1.865
13492SOL     OW42308   6.040   6.707   9.719
13492SOL    HW142309   5.954   6.715   9.760
13492SOL    HW242310   6.023   6.716   9.625
13493SOL     OW42311   0.485   5.313  12.218
13493SOL    HW142312   0.407   5.348  12.176
13493SOL    HW242313   0.496   5.366  12.297
13494SOL     OW42314   4.712   9.041  13.785
13494SOL    HW142315   4.628   9.060  13.826
13494SOL    HW242316   4.711   8.946  13.770
13495SOL     OW42317   0.920  10.426   0.395
13495SOL    HW142318   0.885  10.353   0.345
13495SOL    HW242319   0.850  10.449   0.456
13496SOL     OW42320   7.359  14.248   0.283
13496SOL    HW142321   7.406  14.166   0.303
13496SOL    HW242322   7.289  14.221   0.225
13497SOL     OW42323   4.267   7.866  11.469
13497SOL    HW142324   4.242   7.795  11.410
13497SOL    HW242325   4.289   7.938  11.411
13498SOL     OW42326   2.287  13.787   0.911
13498SOL    HW142327   2.379  13.783   0.938
13498SOL    HW242328   2.272  13.879   0.891
13499SOL     OW42329   7.641   0.020   3.479
13499SOL    HW142330   7.561   0.031   3.530
13499SOL    HW242331   7.661  14.805   3.485
13500SOL     OW42332  12.691  14.405  11.806
13500SOL    HW142333  12.644  14.368  11.731
13500SOL    HW242334  12.782  14.377  11.793
13501SOL     OW42335  10.958  14.402   3.052
13501SOL    HW142336  10.984  14.334   2.990
13501SOL    HW242337  11.006  14.480   3.024
13502SOL     OW42338   6.640   2.700  11.007
13502SOL    HW142339   6.619   2.642  11.080
13502SOL    HW242340   6.692   2.646  10.948
13503SOL     OW42341   7.768  11.022  10.475
13503SOL    HW142342   7.817  10.984  10.547
13503SOL    HW242343   7.677  10.997  10.491
13504SOL     OW42344   7.604   6.050   4.258
13504SOL    HW142345   7.649   6.008   4.332
13504SOL    HW242346   7.649   6.016   4.180
13505SOL     OW42347   8.401  12.575  12.918
13505SOL    HW142348   8.470  12.512  12.938
13505SOL    HW242349   8.335  12.524  12.871
13506SOL     OW42350   7.034  14.350   4.920
13506SOL    HW142351   7.027  14.272   4.975
13506SOL    HW242352   7.005  14.421   4.976
13507SOL     OW42353  14.697  11.376  14.243
13507SOL    HW142354  14.624  11.438  14.253
13507SOL    HW242355  14.666  11.296  14.285
13508SOL     OW42356   7.182   2.068   7.578
13508SOL    HW142357   7.099   2.057   7.625
13508SOL    HW242358   7.162   2.049   7.487
13509SOL     OW42359   8.798   0.769  13.946
13509SOL    HW142360   8.760   0.689  13.982
13509SOL    HW242361   8.772   0.768  13.854
13510SOL     OW42362   8.981  14.382   9.633
13510SOL    HW142363   8.971  14.353   9.543
13510SOL    HW242364   8.941  14.313   9.686
13511SOL     OW42365  14.450   7.204   5.207
13511SOL    HW142366  14.502   7.161   5.275
13511SOL    HW242367  14.425   7.133   5.148
13512SOL     OW42368   8.482  10.853   2.703
13512SOL    HW142369   8.477  10.854   2.607
13512SOL    HW242370   8.505  10.763   2.726
13513SOL     OW42371  11.405   6.148  11.064
13513SOL    HW142372  11.340   6.212  11.035
13513SOL    HW242373  11.374   6.119  11.149
13514SOL     OW42374   3.335   7.426   6.596
13514SOL    HW142375   3.349   7.349   6.651
13514SOL    HW242376   3.242   7.421   6.571
13515SOL     OW42377   2.389   9.532   2.187
13515SOL    HW142378   2.378   9.447   2.143
13515SOL    HW242379   2.320   9.533   2.253
13516SOL     OW42380  14.813   2.830   7.885
13516SOL    HW142381  14.807   2.740   7.915
13516SOL    HW242382  14.722   2.860   7.880
13517SOL     OW42383  13.994   5.699  10.559
13517SOL    HW142384  14.075   5.655  10.583
13517SOL    HW242385  13.944   5.704  10.641
13518SOL     OW42386  14.342  10.111   9.605
13518SOL    HW142387  14.279  10.057   9.653
13518SOL    HW242388  14.337  10.079   9.514
13519SOL     OW42389   4.753   0.968   8.243
13519SOL    HW142390   4.719   1.004   8.162
13519SOL    HW242391   4.843   0.998   8.247
13520SOL     OW42392  12.803   2.766   7.529
13520SOL    HW142393  12.733   2.782   7.465
13520SOL    HW242394  12.806   2.671   7.538
13521SOL     OW42395  13.293   0.696   3.557
13521SOL    HW142396  13.242   0.615   3.564
13521SOL    HW242397  13.322   0.713   3.647
13522SOL     OW42398   9.799   4.839   3.236
13522SOL    HW142399   9.746   4.774   3.281
13522SOL    HW242400   9.821   4.798   3.152
13523SOL     OW42401   1.667  13.170  11.597
13523SOL    HW142402   1.626  13.231  11.658
13523SOL    HW242403   1.600  13.104  11.580
13524SOL     OW42404   2.620  10.914   4.184
13524SOL    HW142405   2.654  10.998   4.152
13524SOL    HW242406   2.560  10.884   4.116
13525SOL     OW42407   0.541   5.475   6.368
13525SOL    HW142408   0.483   5.464   6.292
13525SOL    HW242409   0.628   5.488   6.330
13526SOL     OW42410   1.089   0.302   2.340
13526SOL    HW142411   1.047   0.261   2.264
13526SOL    HW242412   1.036   0.379   2.358
13527SOL     OW42413  13.736   7.009   1.875
13527SOL    HW142414  13.655   6.959   1.878
13527SOL    HW242415  13.796   6.954   1.824
13528SOL     OW42416   4.169   9.481   1.977
13528SOL    HW142417   4.242   9.505   2.035
13528SOL    HW242418   4.114   9.559   1.974
13529SOL     OW42419   8.652  10.292   8.464
13529SOL    HW142420   8.683  10.346   8.392
13529SOL    HW242421   8.731  10.249   8.498
13530SOL     OW42422   9.809   8.778  13.946
13530SOL    HW142423   9.801   8.746  13.855
13530SOL    HW242424   9.863   8.712  13.989
13531SOL     OW42425   6.242  12.168  12.646
13531SOL    HW142426   6.235  12.206  12.558
13531SOL    HW242427   6.291  12.087  12.633
13532SOL     OW42428   3.572  14.331   3.708
13532SOL    HW142429   3.654  14.348   3.754
13532SOL    HW242430   3.587  14.248   3.663
13533SOL     OW42431   0.494   3.721   7.982
13533SOL    HW142432   0.451   3.645   8.023
13533SOL    HW242433   0.515   3.692   7.893
13534SOL     OW42434  11.025   9.119   6.701
13534SOL    HW142435  11.043   9.043   6.756
13534SOL    HW242436  11.000   9.188   6.762
13535SOL     OW42437   8.942   1.472   8.786
13535SOL    HW142438   8.896   1.525   8.721
13535SOL    HW242439   8.921   1.382   8.762
13536SOL     OW42440   4.725  14.501   8.332
13536SOL    HW142441   4.729  14.538   8.244
13536SOL    HW242442   4.678  14.566   8.383
13537SOL     OW42443   4.617   2.623   5.340
13537SOL    HW142444   4.561   2.684   5.291
13537SOL    HW242445   4.561   2.592   5.411
13538SOL     OW42446  13.231  13.861   0.619
13538SOL    HW142447  13.275  13.933   0.575
13538SOL    HW242448  13.138  13.886   0.619
13539SOL     OW42449   4.305  10.542   7.404
13539SOL    HW142450   4.360  10.620   7.411
13539SOL    HW242451   4.246  10.548   7.480
13540SOL     OW42452   8.294   3.821  12.443
13540SOL    HW142453   8.366   3.763  12.466
13540SOL    HW242454   8.312   3.848  12.353
13541SOL     OW42455   9.669   6.681   1.559
13541SOL    HW142456   9.739   6.718   1.504
13541SOL    HW242457   9.708   6.603   1.598
13542SOL     OW42458   0.552   8.635   2.591
13542SOL    HW142459   0.634   8.680   2.611
13542SOL    HW242460   0.580   8.552   2.552
13543SOL     OW42461   4.593   9.210   0.051
13543SOL    HW142462   4.566   9.148  14.861
13543SOL    HW242463   4.673   9.249   0.017
13544SOL     OW42464  14.460  13.971   8.279
13544SOL    HW142465  14.511  13.938   8.353
13544SOL    HW242466  14.518  13.960   8.203
13545SOL     OW42467   1.499   5.981   8.761
13545SOL    HW142468   1.421   6.023   8.724
13545SOL    HW242469   1.478   5.887   8.759
13546SOL     OW42470  11.810   6.600   5.143
13546SOL    HW142471  11.793   6.548   5.222
13546SOL    HW242472  11.856   6.677   5.175
13547SOL     OW42473   3.761   2.521   9.320
13547SOL    HW142474   3.834   2.514   9.259
13547SOL    HW242475   3.801   2.546   9.403
13548SOL     OW42476  12.340   8.212   8.122
13548SOL    HW142477  12.345   8.173   8.210
13548SOL    HW242478  12.427   8.197   8.085
13549SOL     OW42479  13.412  12.544   2.375
13549SOL    HW142480  13.451  12.467   2.333
13549SOL    HW242481  13.484  12.586   2.421
13550SOL     OW42482   3.207   4.715  11.497
13550SOL    HW142483   3.113   4.727  11.484
13550SOL    HW242484   3.220   4.734  11.590
13551SOL     OW42485  14.440  14.046   4.384
13551SOL    HW142486  14.507  13.978   4.394
13551SOL    HW242487  14.373  14.005   4.329
13552SOL     OW42488  12.313   1.045   7.138
13552SOL    HW142489  12.261   1.100   7.197
13552SOL    HW242490  12.264   1.047   7.055
13553SOL     OW42491   2.377  12.312   3.121
13553SOL    HW142492   2.468  12.296   3.096
13553SOL    HW242493   2.364  12.258   3.200
13554SOL     OW42494   1.996   2.336   7.108
13554SOL    HW142495   2.016   2.245   7.130
13554SOL    HW242496   1.934   2.331   7.036
13555SOL     OW42497   6.542   5.982   1.322
13555SOL    HW142498   6.476   6.026   1.269
13555SOL    HW242499   6.544   6.030   1.404
13556SOL     OW42500  11.401   3.873   6.685
13556SOL    HW142501  11.375   3.835   6.601
13556SOL    HW242502  11.346   3.950   6.695
13557SOL     OW42503   6.413   9.372   7.553
13557SOL    HW142504   6.466   9.417   7.487
13557SOL    HW242505   6.453   9.285   7.559
13558SOL     OW42506   1.758   5.154   5.670
13558SOL    HW142507   1.780   5.185   5.582
13558SOL    HW242508   1.762   5.233   5.724
13559SOL     OW42509   2.875   1.394  12.262
13559SOL    HW142510   2.872   1.488  12.279
13559SOL    HW242511   2.792   1.361  12.298
13560SOL     OW42512   7.231  12.156  13.407
13560SOL    HW142513   7.193  12.167  13.494
13560SOL    HW242514   7.160  12.119  13.354
13561SOL     OW42515   4.899   7.138  14.152
13561SOL    HW142516   4.837   7.156  14.222
13561SOL    HW242517   4.936   7.223  14.129
13562SOL     OW42518  11.671   5.144   1.385
13562SOL    HW142519  11.734   5.111   1.449
13562SOL    HW242520  11.686   5.239   1.384
13563SOL     OW42521   3.865   8.215   6.165
13563SOL    HW142522   3.900   8.129   6.186
13563SOL    HW242523   3.786   8.223   6.219
13564SOL     OW42524  11.927   7.684   1.473
13564SOL    HW142525  11.960   7.720   1.391
13564SOL    HW242526  11.834   7.670   1.458
13565SOL     OW42527   3.509   7.435  10.411
13565SOL    HW142528   3.508   7.378  10.335
13565SOL    HW242529   3.451   7.507  10.388
13566SOL     OW42530   1.653   6.576  10.390
13566SOL    HW142531   1.583   6.528  10.435
13566SOL    HW242532   1.615   6.599  10.305
13567SOL     OW42533   3.475   1.042   7.880
13567SOL    HW142534   3.546   0.979   7.895
13567SOL    HW242535   3.395   0.990   7.889
13568SOL     OW42536   6.904   4.398  12.058
13568SOL    HW142537   6.846   4.469  12.031
13568SOL    HW242538   6.980   4.443  12.097
13569SOL     OW42539   8.517   5.696   8.634
13569SOL    HW142540   8.566   5.776   8.612
13569SOL    HW242541   8.583   5.627   8.636
13570SOL     OW42542  10.400  11.320   0.877
13570SOL    HW142543  10.421  11.226   0.885
13570SOL    HW242544  10.425  11.342   0.788
13571SOL     OW42545  14.423  10.104   0.291
13571SOL    HW142546  14.413  10.147   0.375
13571SOL    HW242547  14.406  10.172   0.226
13572SOL     OW42548   9.213   3.253   3.625
13572SOL    HW142549   9.236   3.246   3.533
13572SOL    HW242550   9.275   3.316   3.662
13573SOL     OW42551   9.381  14.795  14.470
13573SOL    HW142552   9.403   0.009  14.460
13573SOL    HW242553   9.315  14.794  14.540
13574SOL     OW42554   5.329   4.344   8.067
13574SOL    HW142555   5.262   4.307   8.009
13574SOL    HW242556   5.280   4.374   8.143
13575SOL     OW42557   4.978  12.074   6.580
13575SOL    HW142558   5.039  12.019   6.531
13575SOL    HW242559   4.978  12.158   6.535
13576SOL     OW42560   1.570   5.888   3.926
13576SOL    HW142561   1.512   5.961   3.944
13576SOL    HW242562   1.626   5.920   3.854
13577SOL     OW42563  14.701   4.223   9.255
13577SOL    HW142564  14.683   4.314   9.233
13577SOL    HW242565  14.642   4.172   9.199
13578SOL     OW42566  13.635   9.967   7.114
13578SOL    HW142567  13.554  10.006   7.082
13578SOL    HW242568  13.654  10.012   7.196
13579SOL     OW42569  14.612  11.448   1.975
13579SOL    HW142570  14.548  11.448   1.904
13579SOL    HW242571  14.604  11.361   2.014
13580SOL     OW42572  11.176   0.651   5.872
13580SOL    HW142573  11.226   0.731   5.856
13580SOL    HW242574  11.115   0.646   5.799
13581SOL     OW42575   7.735  12.632  14.781
13581SOL    HW142576   7.686  12.621  14.700
13581SOL    HW242577   7.676  12.601  14.849
13582SOL     OW42578   2.977   5.886  11.310
13582SOL    HW142579   3.038   5.958  11.325
13582SOL    HW242580   3.016   5.812  11.358
13583SOL     OW42581  10.795   1.034  13.248
13583SOL    HW142582  10.735   1.065  13.180
13583SOL    HW242583  10.747   1.049  13.330
13584SOL     OW42584  12.588   9.027  14.216
13584SOL    HW142585  12.614   8.948  14.263
13584SOL    HW242586  12.514   9.061  14.266
13585SOL     OW42587  10.597   2.714   3.551
13585SOL    HW142588  10.557   2.645   3.499
13585SOL    HW242589  10.608   2.675   3.638
13586SOL     OW42590   9.086   9.572  14.829
13586SOL    HW142591   9.161   9.595  14.774
13586SOL    HW242592   9.015   9.626  14.795
13587SOL     OW42593   1.900  13.849   2.749
13587SOL    HW142594   1.977  13.815   2.795
13587SOL    HW242595   1.850  13.771   2.727
13588SOL     OW42596   9.700   0.936   1.430
13588SOL    HW142597   9.740   0.953   1.515
13588SOL    HW242598   9.704   1.020   1.384
13589SOL     OW42599   4.046   8.013   2.443
13589SOL    HW142600   4.036   7.929   2.399
13589SOL    HW242601   4.138   8.016   2.469
13590SOL     OW42602  14.732   1.368   6.970
13590SOL    HW142603  14.716   1.296   6.909
13590SOL    HW242604  14.662   1.431   6.952
13591SOL     OW42605   1.369  11.625  13.380
13591SOL    HW142606   1.352  11.531  13.385
13591SOL    HW242607   1.428  11.634  13.305
13592SOL     OW42608   5.449   5.124   0.950
13592SOL    HW142609   5.374   5.121   1.009
13592SOL    HW242610   5.491   5.039   0.959
13593SOL     OW42611   1.529   4.119   5.223
13593SOL    HW142612   1.476   4.049   5.188
13593SOL    HW242613   1.537   4.182   5.151
13594SOL     OW42614   2.531  11.920  12.428
13594SOL    HW142615   2.523  11.826  12.408
13594SOL    HW242616   2.443  11.955  12.414
13595SOL     OW42617  11.089   7.908   2.701
13595SOL    HW142618  11.156   7.906   2.632
13595SOL    HW242619  11.006   7.902   2.653
13596SOL     OW42620   1.471  13.845  11.058
13596SOL    HW142621   1.533  13.910  11.091
13596SOL    HW242622   1.525  13.770  11.036
13597SOL     OW42623  10.720   2.910   0.626
13597SOL    HW142624  10.670   2.945   0.699
13597SOL    HW242625  10.800   2.875   0.665
13598SOL     OW42626   7.082   7.149   5.310
13598SOL    HW142627   7.064   7.210   5.238
13598SOL    HW242628   6.998   7.140   5.355
13599SOL     OW42629   6.967   4.255  11.226
13599SOL    HW142630   6.905   4.184  11.211
13599SOL    HW242631   6.983   4.291  11.139
13600SOL     OW42632  10.396   9.113   1.587
13600SOL    HW142633  10.482   9.132   1.551
13600SOL    HW242634  10.409   9.116   1.682
13601SOL     OW42635  14.179   3.150  10.855
13601SOL    HW142636  14.274   3.140  10.861
13601SOL    HW242637  14.163   3.170  10.763
13602SOL     OW42638   6.612   4.961   5.660
13602SOL    HW142639   6.673   4.890   5.681
13602SOL    HW242640   6.646   5.036   5.709
13603SOL     OW42641  11.334   6.875   5.957
13603SOL    HW142642  11.251   6.836   5.930
13603SOL    HW242643  11.358   6.827   6.036
13604SOL     OW42644   6.462   0.511   7.088
13604SOL    HW142645   6.374   0.474   7.099
13604SOL    HW242646   6.448   0.601   7.062
13605SOL     OW42647   8.500   5.184  13.481
13605SOL    HW142648   8.433   5.218  13.540
13605SOL    HW242649   8.460   5.189  13.394
13606SOL     OW42650  13.519   4.255   9.562
13606SOL    HW142651  13.425   4.238   9.572
13606SOL    HW242652  13.536   4.238   9.469
13607SOL     OW42653  12.752  13.596   6.942
13607SOL    HW142654  12.672  13.625   6.987
13607SOL    HW242655  12.823  13.628   6.997
13608SOL     OW42656   8.525   4.189   9.278
13608SOL    HW142657   8.521   4.248   9.354
13608SOL    HW242658   8.607   4.142   9.288
13609SOL     OW42659  12.156   6.559   1.752
13609SOL    HW142660  12.061   6.547   1.752
13609SOL    HW242661  12.170   6.648   1.784
13610SOL     OW42662   8.433   8.810  12.479
13610SOL    HW142663   8.433   8.756  12.401
13610SOL    HW242664   8.451   8.899  12.447
13611SOL     OW42665   1.297   2.153   5.285
13611SOL    HW142666   1.247   2.172   5.364
13611SOL    HW242667   1.347   2.233   5.269
13612SOL     OW42668   8.257  13.046   1.209
13612SOL    HW142669   8.254  12.950   1.199
13612SOL    HW242670   8.205  13.079   1.135
13613SOL     OW42671  14.293  14.577   9.406
13613SOL    HW142672  14.222  14.603   9.465
13613SOL    HW242673  14.262  14.497   9.365
13614SOL     OW42674   5.999   8.910   7.913
13614SOL    HW142675   6.023   8.914   8.005
13614SOL    HW242676   6.081   8.929   7.866
13615SOL     OW42677   7.441  13.682   1.876
13615SOL    HW142678   7.500  13.746   1.915
13615SOL    HW242679   7.496  13.633   1.814
13616SOL     OW42680   1.465   7.807   8.797
13616SOL    HW142681   1.460   7.857   8.715
13616SOL    HW242682   1.450   7.716   8.769
13617SOL     OW42683   0.588   8.213   1.239
13617SOL    HW142684   0.622   8.297   1.208
13617SOL    HW242685   0.597   8.154   1.163
13618SOL     OW42686   3.019   9.943   0.096
13618SOL    HW142687   3.071   9.873   0.056
13618SOL    HW242688   3.082   9.993   0.148
13619SOL     OW42689   4.211   7.849   3.224
13619SOL    HW142690   4.121   7.820   3.239
13619SOL    HW242691   4.204   7.943   3.208
13620SOL     OW42692   4.247  14.869   4.311
13620SOL    HW142693   4.220   0.053   4.378
13620SOL    HW242694   4.169  14.854   4.259
13621SOL     OW42695   3.612   7.617  12.355
13621SOL    HW142696   3.674   7.577  12.416
13621SOL    HW242697   3.665   7.648  12.283
13622SOL     OW42698  11.036   9.896   5.479
13622SOL    HW142699  10.942   9.886   5.468
13622SOL    HW242700  11.074   9.830   5.422
13623SOL     OW42701  12.538   6.750   5.955
13623SOL    HW142702  12.568   6.758   5.864
13623SOL    HW242703  12.476   6.677   5.953
13624SOL     OW42704  12.612   7.004   0.075
13624SOL    HW142705  12.700   6.991   0.039
13624SOL    HW242706  12.618   6.972   0.165
13625SOL     OW42707   1.866   1.247   1.450
13625SOL    HW142708   1.882   1.197   1.530
13625SOL    HW242709   1.945   1.233   1.397
13626SOL     OW42710   4.511   8.097  10.112
13626SOL    HW142711   4.527   8.147  10.032
13626SOL    HW242712   4.495   8.163  10.179
13627SOL     OW42713   0.386   4.388  12.792
13627SOL    HW142714   0.361   4.375  12.884
13627SOL    HW242715   0.430   4.306  12.768
13628SOL     OW42716   7.235  10.794   8.404
13628SOL    HW142717   7.325  10.811   8.378
13628SOL    HW242718   7.242  10.745   8.486
13629SOL     OW42719   1.393   1.236   7.536
13629SOL    HW142720   1.329   1.165   7.534
13629SOL    HW242721   1.477   1.192   7.552
13630SOL     OW42722  13.768  11.839  13.595
13630SOL    HW142723  13.792  11.797  13.678
13630SOL    HW242724  13.833  11.908  13.583
13631SOL     OW42725  14.816  13.563   2.482
13631SOL    HW142726  14.768  13.645   2.496
13631SOL    HW242727  14.801  13.513   2.562
13632SOL     OW42728  13.056   4.527   9.054
13632SOL    HW142729  13.099   4.610   9.073
13632SOL    HW242730  13.112   4.484   8.989
13633SOL     OW42731  12.074  10.212   8.823
13633SOL    HW142732  12.108  10.155   8.754
13633SOL    HW242733  12.029  10.283   8.777
13634SOL     OW42734   8.628  10.435   9.114
13634SOL    HW142735   8.707  10.393   9.080
13634SOL    HW242736   8.605  10.384   9.192
13635SOL     OW42737  14.191   0.803   5.112
13635SOL    HW142738  14.103   0.765   5.115
13635SOL    HW242739  14.242   0.750   5.173
13636SOL     OW42740   8.805  14.430  14.802
13636SOL    HW142741   8.835  14.367  14.867
13636SOL    HW242742   8.714  14.447  14.825
13637SOL     OW42743  12.519   7.570  12.340
13637SOL    HW142744  12.533   7.525  12.257
13637SOL    HW242745  12.592   7.544  12.395
13638SOL     OW42746  13.642  10.870  12.906
13638SOL    HW142747  13.547  10.881  12.904
13638SOL    HW242748  13.674  10.924  12.834
13639SOL     OW42749   0.868   6.019  11.272
13639SOL    HW142750   0.788   6.012  11.324
13639SOL    HW242751   0.939   6.005  11.336
13640SOL     OW42752   8.943   3.018   6.598
13640SOL    HW142753   8.907   2.946   6.651
13640SOL    HW242754   9.032   3.030   6.632
13641SOL     OW42755   9.246   3.182   8.310
13641SOL    HW142756   9.206   3.132   8.239
13641SOL    HW242757   9.270   3.265   8.269
13642SOL     OW42758   2.484   7.947  10.573
13642SOL    HW142759   2.430   7.872  10.549
13642SOL    HW242760   2.573   7.910  10.581
13643SOL     OW42761   9.965   4.963  13.178
13643SOL    HW142762  10.052   4.972  13.139
13643SOL    HW242763   9.969   4.881  13.226
13644SOL     OW42764   1.022   7.954  14.792
13644SOL    HW142765   1.012   7.892  14.865
13644SOL    HW242766   0.978   8.034  14.823
13645SOL     OW42767  11.958   4.022   5.072
13645SOL    HW142768  11.875   4.061   5.099
13645SOL    HW242769  11.935   3.935   5.041
13646SOL     OW42770  14.029  14.510   9.493
13646SOL    HW142771  13.957  14.564   9.459
13646SOL    HW242772  13.995  14.421   9.489
13647SOL     OW42773   4.070  12.001   4.503
13647SOL    HW142774   4.043  11.950   4.426
13647SOL    HW242775   4.121  12.074   4.468
13648SOL     OW42776   6.518   5.222   3.310
13648SOL    HW142777   6.449   5.266   3.259
13648SOL    HW242778   6.493   5.130   3.310
13649SOL     OW42779   2.608   9.443   8.886
13649SOL    HW142780   2.576   9.418   8.800
13649SOL    HW242781   2.700   9.416   8.887
13650SOL     OW42782   8.137   3.919  11.094
13650SOL    HW142783   8.219   3.876  11.071
13650SOL    HW242784   8.069   3.867  11.052
13651SOL     OW42785   7.218  12.747   8.564
13651SOL    HW142786   7.241  12.692   8.489
13651SOL    HW242787   7.126  12.727   8.581
13652SOL     OW42788  10.470  10.230   2.638
13652SOL    HW142789  10.403  10.217   2.705
13652SOL    HW242790  10.509  10.315   2.659
13653SOL     OW42791   3.038   4.698   6.801
13653SOL    HW142792   3.037   4.755   6.725
13653SOL    HW242793   2.960   4.644   6.792
13654SOL     OW42794   6.482   6.085   3.881
13654SOL    HW142795   6.424   6.099   3.806
13654SOL    HW242796   6.565   6.057   3.841
13655SOL     OW42797   0.872  10.237   5.536
13655SOL    HW142798   0.790  10.256   5.492
13655SOL    HW242799   0.846  10.199   5.620
13656SOL     OW42800  12.602   5.294   0.258
13656SOL    HW142801  12.515   5.268   0.288
13656SOL    HW242802  12.624   5.232   0.189
13657SOL     OW42803   1.992  11.942   2.819
13657SOL    HW142804   2.034  11.897   2.745
13657SOL    HW242805   2.065  11.983   2.866
13658SOL     OW42806   4.756   9.696  12.570
13658SOL    HW142807   4.696   9.624  12.556
13658SOL    HW242808   4.750   9.749  12.491
13659SOL     OW42809   8.558  13.412  10.301
13659SOL    HW142810   8.534  13.321  10.284
13659SOL    HW242811   8.532  13.428  10.391
13660SOL     OW42812  11.125   5.579   9.617
13660SOL    HW142813  11.177   5.538   9.687
13660SOL    HW242814  11.178   5.653   9.588
13661SOL     OW42815   5.291  11.599   4.786
13661SOL    HW142816   5.279  11.586   4.692
13661SOL    HW242817   5.216  11.555   4.826
13662SOL     OW42818   1.611  13.947   1.571
13662SOL    HW142819   1.581  14.025   1.617
13662SOL    HW242820   1.611  13.971   1.478
13663SOL     OW42821  13.819   3.743   3.256
13663SOL    HW142822  13.803   3.834   3.278
13663SOL    HW242823  13.732   3.703   3.254
13664SOL     OW42824   6.465   3.218  11.614
13664SOL    HW142825   6.390   3.188  11.666
13664SOL    HW242826   6.520   3.264  11.678
13665SOL     OW42827   4.403   0.859   0.855
13665SOL    HW142828   4.421   0.768   0.879
13665SOL    HW242829   4.391   0.856   0.760
13666SOL     OW42830   2.486   8.744   0.828
13666SOL    HW142831   2.463   8.746   0.921
13666SOL    HW242832   2.550   8.674   0.819
13667SOL     OW42833   8.398   1.439  11.553
13667SOL    HW142834   8.376   1.519  11.506
13667SOL    HW242835   8.436   1.381  11.487
13668SOL     OW42836   6.118   3.991   1.069
13668SOL    HW142837   6.058   3.917   1.079
13668SOL    HW242838   6.065   4.068   1.089
13669SOL     OW42839   4.954   3.620   5.306
13669SOL    HW142840   5.018   3.636   5.375
13669SOL    HW242841   4.997   3.556   5.248
13670SOL     OW42842  10.230   4.690   1.963
13670SOL    HW142843  10.238   4.605   2.006
13670SOL    HW242844  10.135   4.702   1.951
13671SOL     OW42845   0.234   3.513   1.374
13671SOL    HW142846   0.156   3.523   1.319
13671SOL    HW242847   0.266   3.425   1.355
13672SOL     OW42848   5.215  10.915  13.052
13672SOL    HW142849   5.299  10.871  13.059
13672SOL    HW242850   5.223  10.971  12.975
13673SOL     OW42851   8.237   2.825   9.221
13673SOL    HW142852   8.250   2.897   9.159
13673SOL    HW242853   8.263   2.861   9.306
13674SOL     OW42854   6.483   0.134   9.668
13674SOL    HW142855   6.570   0.102   9.693
13674SOL    HW242856   6.437   0.056   9.638
13675SOL     OW42857  14.149   5.309  14.059
13675SOL    HW142858  14.137   5.224  14.101
13675SOL    HW242859  14.065   5.326  14.015
13676SOL     OW42860   1.070   0.794   9.344
13676SOL    HW142861   1.072   0.877   9.296
13676SOL    HW242862   1.097   0.728   9.280
13677SOL     OW42863   7.910   0.410  14.331
13677SOL    HW142864   7.846   0.368  14.274
13677SOL    HW242865   7.964   0.338  14.364
13678SOL     OW42866  11.231   9.919   1.253
13678SOL    HW142867  11.144   9.957   1.263
13678SOL    HW242868  11.271   9.928   1.339
13679SOL     OW42869   3.389   1.205  12.270
13679SOL    HW142870   3.327   1.275  12.247
13679SOL    HW242871   3.435   1.238  12.347
13680SOL     OW42872   7.775   6.796   9.778
13680SOL    HW142873   7.866   6.778   9.799
13680SOL    HW242874   7.778   6.876   9.725
13681SOL     OW42875  12.817  14.652  11.534
13681SOL    HW142876  12.795  14.631  11.625
13681SOL    HW242877  12.877  14.583  11.508
13682SOL     OW42878   1.868  12.277  12.616
13682SOL    HW142879   1.796  12.296  12.557
13682SOL    HW242880   1.940  12.331  12.584
13683SOL     OW42881  12.376   3.087   1.152
13683SOL    HW142882  12.377   3.015   1.214
13683SOL    HW242883  12.283   3.098   1.129
13684SOL     OW42884   2.018   0.355   9.715
13684SOL    HW142885   2.038   0.342   9.807
13684SOL    HW242886   1.943   0.415   9.714
13685SOL     OW42887   5.623   0.107   4.774
13685SOL    HW142888   5.645   0.177   4.712
13685SOL    HW242889   5.527   0.101   4.769
13686SOL     OW42890  11.287   7.392   6.804
13686SOL    HW142891  11.351   7.402   6.734
13686SOL    HW242892  11.334   7.415   6.883
13687SOL     OW42893  12.271   0.296  13.230
13687SOL    HW142894  12.285   0.352  13.153
13687SOL    HW242895  12.179   0.270  13.224
13688SOL     OW42896  10.987   9.306  10.217
13688SOL    HW142897  11.070   9.351  10.229
13688SOL    HW242898  10.926   9.374  10.188
13689SOL     OW42899   6.792   8.734  14.532
13689SOL    HW142900   6.741   8.808  14.565
13689SOL    HW242901   6.768   8.727  14.440
13690SOL     OW42902  12.428  14.044  11.687
13690SOL    HW142903  12.434  14.030  11.593
13690SOL    HW242904  12.467  14.130  11.701
13691SOL     OW42905  11.664  14.041  11.954
13691SOL    HW142906  11.751  14.012  11.924
13691SOL    HW242907  11.603  13.987  11.905
13692SOL     OW42908  10.199   1.314   7.368
13692SOL    HW142909  10.204   1.336   7.275
13692SOL    HW242910  10.126   1.253   7.374
13693SOL     OW42911   1.548   6.618   8.612
13693SOL    HW142912   1.627   6.594   8.660
13693SOL    HW242913   1.501   6.677   8.671
13694SOL     OW42914   8.100  10.661   2.649
13694SOL    HW142915   8.015  10.644   2.607
13694SOL    HW242916   8.164  10.622   2.590
13695SOL     OW42917   9.980   7.558   1.790
13695SOL    HW142918  10.017   7.632   1.837
13695SOL    HW242919   9.969   7.490   1.856
13696SOL     OW42920   7.492  10.137   6.616
13696SOL    HW142921   7.406  10.154   6.578
13696SOL    HW242922   7.474  10.080   6.692
13697SOL     OW42923  10.187   5.258   5.515
13697SOL    HW142924  10.192   5.353   5.510
13697SOL    HW242925  10.169   5.230   5.425
13698SOL     OW42926   0.165   8.947   5.668
13698SOL    HW142927   0.188   8.983   5.753
13698SOL    HW242928   0.200   8.858   5.669
13699SOL     OW42929   5.334   5.765   7.419
13699SOL    HW142930   5.291   5.679   7.417
13699SOL    HW242931   5.413   5.754   7.367
13700SOL     OW42932   1.446   7.480   6.785
13700SOL    HW142933   1.496   7.532   6.848
13700SOL    HW242934   1.510   7.422   6.745
13701SOL     OW42935   3.260  13.176   8.458
13701SOL    HW142936   3.192  13.224   8.410
13701SOL    HW242937   3.253  13.209   8.548
13702SOL     OW42938  12.884   1.359   2.998
13702SOL    HW142939  12.909   1.430   3.057
13702SOL    HW242940  12.944   1.369   2.923
13703SOL     OW42941  12.692  13.323   7.871
13703SOL    HW142942  12.660  13.233   7.876
13703SOL    HW242943  12.764  13.327   7.934
13704SOL     OW42944   9.944   2.798   5.153
13704SOL    HW142945   9.909   2.745   5.081
13704SOL    HW242946   9.867   2.822   5.205
13705SOL     OW42947   6.577  12.783   7.397
13705SOL    HW142948   6.554  12.772   7.489
13705SOL    HW242949   6.596  12.694   7.367
13706SOL     OW42950   2.885   8.742  13.740
13706SOL    HW142951   2.853   8.670  13.794
13706SOL    HW242952   2.953   8.783  13.793
13707SOL     OW42953  14.826   5.448  13.078
13707SOL    HW142954  14.806   5.359  13.108
13707SOL    HW242955   0.041   5.447  13.062
13708SOL     OW42956   9.740  12.194   3.314
13708SOL    HW142957   9.741  12.104   3.344
13708SOL    HW242958   9.793  12.242   3.378
13709SOL     OW42959   8.790  13.639   2.847
13709SOL    HW142960   8.845  13.601   2.778
13709SOL    HW242961   8.852  13.679   2.907
13710SOL     OW42962  10.571   0.686   3.354
13710SOL    HW142963  10.592   0.779   3.357
13710SOL    HW242964  10.502   0.675   3.419
13711SOL     OW42965  12.785   7.075  10.049
13711SOL    HW142966  12.729   7.031   9.986
13711SOL    HW242967  12.758   7.041  10.134
13712SOL     OW42968  14.750   2.556   9.705
13712SOL    HW142969  14.747   2.537   9.611
13712SOL    HW242970  14.674   2.612   9.721
13713SOL     OW42971   4.007  13.646   9.159
13713SOL    HW142972   4.055  13.589   9.219
13713SOL    HW242973   4.026  13.735   9.189
13714SOL     OW42974   6.421   9.097   1.725
13714SOL    HW142975   6.413   9.184   1.684
13714SOL    HW242976   6.515   9.087   1.740
13715SOL     OW42977   9.896   8.262   5.449
13715SOL    HW142978   9.896   8.348   5.492
13715SOL    HW242979   9.834   8.272   5.377
13716SOL     OW42980   8.043   5.703  10.741
13716SOL    HW142981   8.033   5.779  10.798
13716SOL    HW242982   8.137   5.697  10.726
13717SOL     OW42983  11.499  11.412  13.836
13717SOL    HW142984  11.414  11.430  13.795
13717SOL    HW242985  11.557  11.389  13.764
13718SOL     OW42986   1.311   7.673   4.643
13718SOL    HW142987   1.394   7.718   4.625
13718SOL    HW242988   1.308   7.665   4.738
13719SOL     OW42989  14.558  12.206  14.771
13719SOL    HW142990  14.636  12.223  14.823
13719SOL    HW242991  14.562  12.269  14.699
13720SOL     OW42992  11.820   3.414   1.972
13720SOL    HW142993  11.859   3.431   1.886
13720SOL    HW242994  11.849   3.487   2.027
13721SOL     OW42995  14.746   3.212  11.670
13721SOL    HW142996  14.804   3.254  11.733
13721SOL    HW242997  14.802   3.196  11.593
13722SOL     OW42998   6.045   6.097   4.579
13722SOL    HW142999   5.957   6.102   4.616
13722SOL    HW243000   6.078   6.011   4.605
13723SOL     OW43001   6.709  13.293  12.762
13723SOL    HW143002   6.615  13.290  12.779
13723SOL    HW243003   6.728  13.208  12.721
13724SOL     OW43004   4.098   3.926   0.282
13724SOL    HW143005   4.114   4.001   0.339
13724SOL    HW243006   4.115   3.959   0.194
13725SOL     OW43007   9.370  11.611  11.266
13725SOL    HW143008   9.368  11.643  11.356
13725SOL    HW243009   9.293  11.555  11.258
13726SOL     OW43010  11.313   8.924   6.307
13726SOL    HW143011  11.383   8.900   6.368
13726SOL    HW243012  11.244   8.958   6.363
13727SOL     OW43013  11.638  14.435   7.883
13727SOL    HW143014  11.612  14.390   7.963
13727SOL    HW243015  11.731  14.418   7.875
13728SOL     OW43016   7.840   6.098   3.616
13728SOL    HW143017   7.816   6.079   3.526
13728SOL    HW243018   7.868   6.189   3.615
13729SOL     OW43019   7.738   6.684  14.749
13729SOL    HW143020   7.716   6.646  14.834
13729SOL    HW243021   7.834   6.686  14.748
13730SOL     OW43022   6.224   0.702   8.629
13730SOL    HW143023   6.193   0.700   8.538
13730SOL    HW243024   6.300   0.644   8.630
13731SOL     OW43025  14.611  10.263  11.804
13731SOL    HW143026  14.577  10.194  11.861
13731SOL    HW243027  14.586  10.344  11.848
13732SOL     OW43028   3.811   7.358  10.578
13732SOL    HW143029   3.740   7.399  10.628
13732SOL    HW243030   3.871   7.430  10.558
13733SOL     OW43031   7.309   0.136   5.575
13733SOL    HW143032   7.252   0.071   5.535
13733SOL    HW243033   7.384   0.142   5.516
13734SOL     OW43034   0.361  14.053  12.729
13734SOL    HW143035   0.446  14.058  12.687
13734SOL    HW243036   0.298  14.057  12.657
13735SOL     OW43037   6.212   3.842   4.974
13735SOL    HW143038   6.168   3.908   4.921
13735SOL    HW243039   6.304   3.869   4.974
13736SOL     OW43040   2.881   5.105   8.780
13736SOL    HW143041   2.845   5.016   8.789
13736SOL    HW243042   2.931   5.119   8.861
13737SOL     OW43043   5.615  13.146   7.418
13737SOL    HW143044   5.563  13.071   7.389
13737SOL    HW243045   5.576  13.172   7.501
13738SOL     OW43046   6.896   3.069   8.926
13738SOL    HW143047   6.983   3.102   8.950
13738SOL    HW243048   6.876   3.112   8.843
13739SOL     OW43049   6.023   0.693  14.122
13739SOL    HW143050   6.072   0.642  14.058
13739SOL    HW243051   5.977   0.628  14.175
13740SOL     OW43052  13.024   4.337  10.370
13740SOL    HW143053  13.029   4.274  10.442
13740SOL    HW243054  13.063   4.417  10.405
13741SOL     OW43055  13.490   6.521   2.106
13741SOL    HW143056  13.459   6.588   2.167
13741SOL    HW243057  13.547   6.568   2.045
13742SOL     OW43058   6.151  11.038  14.051
13742SOL    HW143059   6.103  11.001  14.125
13742SOL    HW243060   6.176  10.962  13.998
13743SOL     OW43061   3.509  12.661   9.296
13743SOL    HW143062   3.575  12.606   9.252
13743SOL    HW243063   3.521  12.642   9.389
13744SOL     OW43064   6.210   9.411  13.341
13744SOL    HW143065   6.137   9.473  13.331
13744SOL    HW243066   6.188   9.340  13.280
13745SOL     OW43067   9.669   2.111   8.495
13745SOL    HW143068   9.739   2.140   8.437
13745SOL    HW243069   9.682   2.016   8.501
13746SOL     OW43070  13.156   9.274  11.598
13746SOL    HW143071  13.062   9.290  11.610
13746SOL    HW243072  13.187   9.353  11.552
13747SOL     OW43073  12.706  14.758   8.135
13747SOL    HW143074  12.732  14.674   8.173
13747SOL    HW243075  12.768  14.773   8.065
13748SOL     OW43076   6.681   3.149   2.949
13748SOL    HW143077   6.773   3.147   2.925
13748SOL    HW243078   6.669   3.073   3.006
13749SOL     OW43079   1.673   2.480   7.898
13749SOL    HW143080   1.592   2.478   7.950
13749SOL    HW243081   1.739   2.515   7.958
13750SOL     OW43082   1.619  10.306   9.576
13750SOL    HW143083   1.622  10.267   9.489
13750SOL    HW243084   1.692  10.368   9.578
13751SOL     OW43085   6.320   3.594  10.728
13751SOL    HW143086   6.275   3.670  10.689
13751SOL    HW243087   6.389   3.572  10.665
13752SOL     OW43088  11.155  10.992   8.591
13752SOL    HW143089  11.180  10.946   8.511
13752SOL    HW243090  11.151  10.923   8.658
13753SOL     OW43091  10.031  14.086  10.461
13753SOL    HW143092  10.071  14.113  10.544
13753SOL    HW243093  10.039  13.991  10.461
13754SOL     OW43094   7.525   4.633  12.687
13754SOL    HW143095   7.432   4.630  12.666
13754SOL    HW243096   7.569   4.627  12.602
13755SOL     OW43097   4.062   6.845   1.869
13755SOL    HW143098   3.980   6.798   1.884
13755SOL    HW243099   4.091   6.871   1.957
13756SOL     OW43100   3.152  14.847  11.486
13756SOL    HW143101   3.239  14.807  11.489
13756SOL    HW243102   3.169   0.063  11.488
13757SOL     OW43103   7.743  12.859   5.632
13757SOL    HW143104   7.761  12.951   5.650
13757SOL    HW243105   7.661  12.859   5.582
13758SOL     OW43106  11.963   7.129   4.346
13758SOL    HW143107  12.020   7.204   4.325
13758SOL    HW243108  11.960   7.128   4.442
13759SOL     OW43109   7.622   1.386   1.054
13759SOL    HW143110   7.527   1.378   1.048
13759SOL    HW243111   7.639   1.403   1.147
13760SOL     OW43112   4.519   6.590   5.402
13760SOL    HW143113   4.485   6.676   5.428
13760SOL    HW243114   4.495   6.581   5.310
13761SOL     OW43115   4.534   6.341   1.311
13761SOL    HW143116   4.570   6.402   1.375
13761SOL    HW243117   4.556   6.380   1.226
13762SOL     OW43118   9.846  12.222  13.093
13762SOL    HW143119   9.791  12.221  13.171
13762SOL    HW243120   9.920  12.278  13.116
13763SOL     OW43121   9.504  10.234   8.823
13763SOL    HW143122   9.438  10.191   8.769
13763SOL    HW243123   9.566  10.164   8.845
13764SOL     OW43124  11.147   8.010  12.384
13764SOL    HW143125  11.199   8.084  12.417
13764SOL    HW243126  11.197   7.979  12.309
13765SOL     OW43127   6.637  11.516   7.411
13765SOL    HW143128   6.732  11.524   7.409
13765SOL    HW243129   6.621  11.441   7.469
13766SOL     OW43130   9.405  10.596   6.294
13766SOL    HW143131   9.329  10.574   6.241
13766SOL    HW243132   9.381  10.570   6.383
13767SOL     OW43133   0.122   8.061  14.123
13767SOL    HW143134   0.115   7.969  14.151
13767SOL    HW243135   0.182   8.101  14.186
13768SOL     OW43136  12.238  12.476  11.270
13768SOL    HW143137  12.310  12.425  11.235
13768SOL    HW243138  12.247  12.562  11.228
13769SOL     OW43139   6.663   0.071  12.614
13769SOL    HW143140   6.721   0.135  12.655
13769SOL    HW243141   6.576   0.110  12.619
13770SOL     OW43142  10.013   9.343  13.638
13770SOL    HW143143  10.087   9.296  13.600
13770SOL    HW243144  10.010   9.313  13.729
13771SOL     OW43145  10.282   4.918   8.241
13771SOL    HW143146  10.211   4.899   8.179
13771SOL    HW243147  10.362   4.902   8.192
13772SOL     OW43148   0.312   0.482   4.799
13772SOL    HW143149   0.357   0.399   4.785
13772SOL    HW243150   0.342   0.511   4.885
13773SOL     OW43151   5.392   7.814  14.138
13773SOL    HW143152   5.394   7.909  14.137
13773SOL    HW243153   5.478   7.788  14.170
13774SOL     OW43154   5.409   3.923   9.073
13774SOL    HW143155   5.368   3.886   9.151
13774SOL    HW243156   5.406   3.853   9.008
13775SOL     OW43157  10.329  13.932   9.030
13775SOL    HW143158  10.267  13.975   8.972
13775SOL    HW243159  10.361  14.002   9.087
13776SOL     OW43160   4.455  13.886  13.052
13776SOL    HW143161   4.543  13.850  13.067
13776SOL    HW243162   4.424  13.841  12.973
13777SOL     OW43163   2.382  13.931   2.325
13777SOL    HW143164   2.448  13.966   2.385
13777SOL    HW243165   2.403  13.837   2.318
13778SOL     OW43166  10.219   3.583  10.580
13778SOL    HW143167  10.244   3.667  10.542
13778SOL    HW243168  10.129   3.596  10.610
13779SOL     OW43169   5.658   3.638  10.144
13779SOL    HW143170   5.739   3.619  10.192
13779SOL    HW243171   5.593   3.580  10.183
13780SOL     OW43172   2.002   7.815   5.319
13780SOL    HW143173   1.954   7.893   5.345
13780SOL    HW243174   2.044   7.785   5.400
13781SOL     OW43175   7.626   5.529   6.827
13781SOL    HW143176   7.607   5.452   6.773
13781SOL    HW243177   7.608   5.603   6.770
13782SOL     OW43178   9.876   4.189   1.054
13782SOL    HW143179   9.880   4.104   1.098
13782SOL    HW243180   9.783   4.206   1.043
13783SOL     OW43181   4.265   3.703   4.011
13783SOL    HW143182   4.286   3.788   3.972
13783SOL    HW243183   4.174   3.687   3.988
13784SOL     OW43184   8.706   1.991   7.612
13784SOL    HW143185   8.769   1.975   7.542
13784SOL    HW243186   8.760   2.000   7.691
13785SOL     OW43187   3.153   6.010  10.678
13785SOL    HW143188   3.065   5.976  10.696
13785SOL    HW243189   3.158   6.091  10.729
13786SOL     OW43190   7.394   0.285   3.045
13786SOL    HW143191   7.435   0.281   3.131
13786SOL    HW243192   7.403   0.197   3.010
13787SOL     OW43193  11.789   8.397  13.580
13787SOL    HW143194  11.776   8.375  13.672
13787SOL    HW243195  11.880   8.426  13.575
13788SOL     OW43196   3.837   0.922  12.729
13788SOL    HW143197   3.782   0.924  12.808
13788SOL    HW243198   3.926   0.932  12.762
13789SOL     OW43199   7.332  10.267  11.092
13789SOL    HW143200   7.336  10.357  11.061
13789SOL    HW243201   7.239  10.252  11.109
13790SOL     OW43202   0.760   5.085   9.630
13790SOL    HW143203   0.841   5.076   9.580
13790SOL    HW243204   0.715   5.002   9.618
13791SOL     OW43205   1.851   7.998   5.426
13791SOL    HW143206   1.800   7.945   5.487
13791SOL    HW243207   1.786   8.038   5.369
13792SOL     OW43208  12.262   3.106  10.449
13792SOL    HW143209  12.173   3.105  10.484
13792SOL    HW243210  12.312   3.158  10.512
13793SOL     OW43211   3.688   6.187   6.960
13793SOL    HW143212   3.634   6.119   6.920
13793SOL    HW243213   3.650   6.201   7.046
13794SOL     OW43214   1.887   5.015   3.962
13794SOL    HW143215   1.795   5.005   3.940
13794SOL    HW243216   1.926   4.930   3.942
13795SOL     OW43217   8.068   5.441  12.341
13795SOL    HW143218   8.072   5.515  12.280
13795SOL    HW243219   7.982   5.448  12.382
13796SOL     OW43220   0.216   9.003   1.235
13796SOL    HW143221   0.127   9.011   1.270
13796SOL    HW243222   0.226   9.079   1.177
13797SOL     OW43223   7.138   1.983   7.332
13797SOL    HW143224   7.092   1.901   7.351
13797SOL    HW243225   7.080   2.029   7.271
13798SOL     OW43226  11.803  10.559  13.114
13798SOL    HW143227  11.849  10.483  13.149
13798SOL    HW243228  11.713  10.548  13.145
13799SOL     OW43229  12.808  10.521   9.822
13799SOL    HW143230  12.794  10.569   9.740
13799SOL    HW243231  12.739  10.454   9.821
13800SOL     OW43232   1.214   3.774   7.593
13800SOL    HW143233   1.127   3.755   7.557
13800SOL    HW243234   1.209   3.747   7.684
13801SOL     OW43235  13.255   5.637   2.242
13801SOL    HW143236  13.320   5.677   2.184
13801SOL    HW243237  13.276   5.671   2.329
13802SOL     OW43238   6.123   4.140   9.920
13802SOL    HW143239   6.202   4.189   9.896
13802SOL    HW243240   6.120   4.144  10.016
13803SOL     OW43241  12.068   7.270   6.170
13803SOL    HW143242  12.112   7.354   6.180
13803SOL    HW243243  12.133   7.214   6.128
13804SOL     OW43244  10.656   7.469   3.480
13804SOL    HW143245  10.613   7.522   3.548
13804SOL    HW243246  10.613   7.496   3.399
13805SOL     OW43247  12.475  10.700   0.379
13805SOL    HW143248  12.387  10.709   0.341
13805SOL    HW243249  12.534  10.729   0.309
13806SOL     OW43250   8.841   5.337  14.587
13806SOL    HW143251   8.838   5.386  14.506
13806SOL    HW243252   8.847   5.245  14.560
13807SOL     OW43253   2.428   7.507   5.188
13807SOL    HW143254   2.502   7.544   5.141
13807SOL    HW243255   2.351   7.542   5.143
13808SOL     OW43256  10.966   1.987   6.897
13808SOL    HW143257  11.059   1.980   6.873
13808SOL    HW243258  10.942   1.898   6.923
13809SOL     OW43259  11.165   8.667   6.500
13809SOL    HW143260  11.184   8.609   6.574
13809SOL    HW243261  11.121   8.742   6.540
13810SOL     OW43262   1.140  14.827  11.115
13810SOL    HW143263   1.171  14.748  11.070
13810SOL    HW243264   1.219  14.876  11.134
13811SOL     OW43265   1.963   8.442   9.969
13811SOL    HW143266   1.967   8.521   9.914
13811SOL    HW243267   2.030   8.384   9.933
13812SOL     OW43268   8.648   8.387   1.382
13812SOL    HW143269   8.642   8.397   1.287
13812SOL    HW243270   8.742   8.397   1.401
13813SOL     OW43271  11.065   5.885  12.533
13813SOL    HW143272  11.006   5.822  12.492
13813SOL    HW243273  11.008   5.939  12.587
13814SOL     OW43274  10.872  11.825  12.364
13814SOL    HW143275  10.881  11.772  12.285
13814SOL    HW243276  10.880  11.915  12.334
13815SOL     OW43277   1.937   3.664  11.640
13815SOL    HW143278   1.969   3.574  11.646
13815SOL    HW243279   1.934   3.682  11.546
13816SOL     OW43280   8.971   9.834   9.219
13816SOL    HW143281   8.965   9.749   9.176
13816SOL    HW243282   9.060   9.837   9.255
13817SOL     OW43283   0.868   0.038   5.009
13817SOL    HW143284   0.816   0.108   4.971
13817SOL    HW243285   0.804  14.861   5.054
13818SOL     OW43286  13.336  10.417   5.997
13818SOL    HW143287  13.350  10.411   6.092
13818SOL    HW243288  13.348  10.328   5.965
13819SOL     OW43289  14.715   8.369   4.247
13819SOL    HW143290  14.681   8.456   4.224
13819SOL    HW243291  14.729   8.373   4.342
13820SOL     OW43292   9.782  10.215  10.642
13820SOL    HW143293   9.745  10.228  10.554
13820SOL    HW243294   9.796  10.121  10.648
13821SOL     OW43295   7.084   2.661   3.768
13821SOL    HW143296   7.039   2.644   3.685
13821SOL    HW243297   7.098   2.755   3.769
13822SOL     OW43298   1.668  13.666   0.916
13822SOL    HW143299   1.759  13.693   0.907
13822SOL    HW243300   1.648  13.680   1.009
13823SOL     OW43301  14.331  11.433   4.317
13823SOL    HW143302  14.320  11.366   4.250
13823SOL    HW243303  14.423  11.460   4.309
13824SOL     OW43304   9.677   1.086  14.141
13824SOL    HW143305   9.732   1.146  14.091
13824SOL    HW243306   9.730   1.006  14.148
13825SOL     OW43307   3.256   8.317  12.302
13825SOL    HW143308   3.276   8.246  12.363
13825SOL    HW243309   3.283   8.283  12.217
13826SOL     OW43310  11.682   8.265   1.926
13826SOL    HW143311  11.663   8.202   1.857
13826SOL    HW243312  11.727   8.215   1.994
13827SOL     OW43313   4.122   7.517   3.254
13827SOL    HW143314   4.130   7.568   3.334
13827SOL    HW243315   4.208   7.477   3.242
13828SOL     OW43316   7.633  13.130  10.752
13828SOL    HW143317   7.544  13.097  10.765
13828SOL    HW243318   7.630  13.220  10.785
13829SOL     OW43319   7.654   2.131   4.739
13829SOL    HW143320   7.667   2.083   4.656
13829SOL    HW243321   7.619   2.065   4.799
13830SOL     OW43322  12.988   4.823   7.500
13830SOL    HW143323  12.901   4.861   7.512
13830SOL    HW243324  12.974   4.729   7.499
13831SOL     OW43325   7.219   4.187  11.333
13831SOL    HW143326   7.198   4.168  11.425
13831SOL    HW243327   7.141   4.229  11.299
13832SOL     OW43328   3.980   6.496  13.127
13832SOL    HW143329   3.948   6.471  13.041
13832SOL    HW243330   3.988   6.592  13.123
13833SOL     OW43331  12.125  12.426  13.484
13833SOL    HW143332  12.177  12.416  13.563
13833SOL    HW243333  12.041  12.460  13.514
13834SOL     OW43334  12.860  14.106   3.353
13834SOL    HW143335  12.842  14.131   3.263
13834SOL    HW243336  12.833  14.181   3.405
13835SOL     OW43337  14.097   9.729  13.228
13835SOL    HW143338  14.132   9.662  13.169
13835SOL    HW243339  14.163   9.799  13.228
13836SOL     OW43340   9.570  11.790  10.345
13836SOL    HW143341   9.646  11.846  10.361
13836SOL    HW243342   9.507  11.848  10.302
13837SOL     OW43343   8.481   0.060   4.217
13837SOL    HW143344   8.427   0.130   4.253
13837SOL    HW243345   8.568   0.075   4.254
13838SOL     OW43346   5.084  11.884   7.193
13838SOL    HW143347   5.126  11.967   7.173
13838SOL    HW243348   5.057  11.850   7.108
13839SOL     OW43349   6.320   1.235   3.418
13839SOL    HW143350   6.228   1.253   3.396
13839SOL    HW243351   6.367   1.314   3.393
13840SOL     OW43352   4.524   1.870  13.564
13840SOL    HW143353   4.441   1.915  13.549
13840SOL    HW243354   4.522   1.795  13.504
13841SOL     OW43355   7.269  10.317   9.717
13841SOL    HW143356   7.321  10.239   9.733
13841SOL    HW243357   7.207  10.320   9.790
13842SOL     OW43358   3.907   8.016   8.852
13842SOL    HW143359   3.904   8.092   8.793
13842SOL    HW243360   4.000   8.006   8.873
13843SOL     OW43361  11.262   9.083  14.731
13843SOL    HW143362  11.324   9.082  14.803
13843SOL    HW243363  11.231   9.173  14.727
13844SOL     OW43364   9.273   2.666  12.016
13844SOL    HW143365   9.225   2.595  12.058
13844SOL    HW243366   9.321   2.707  12.088
13845SOL     OW43367  10.871  12.657   0.931
13845SOL    HW143368  10.789  12.708   0.924
13845SOL    HW243369  10.925  12.692   0.860
13846SOL     OW43370   6.725   1.989   6.707
13846SOL    HW143371   6.632   2.006   6.698
13846SOL    HW243372   6.748   1.934   6.632
13847SOL     OW43373   3.795  14.344   9.434
13847SOL    HW143374   3.704  14.350   9.404
13847SOL    HW243375   3.827  14.262   9.396
13848SOL     OW43376   6.971  11.107   5.001
13848SOL    HW143377   6.897  11.061   4.962
13848SOL    HW243378   7.017  11.039   5.051
13849SOL     OW43379  13.025   8.488   3.794
13849SOL    HW143380  13.076   8.453   3.867
13849SOL    HW243381  13.090   8.519   3.731
13850SOL     OW43382   1.282   7.947  14.691
13850SOL    HW143383   1.188   7.957  14.709
13850SOL    HW243384   1.303   8.017  14.629
13851SOL     OW43385   5.896  13.200  12.486
13851SOL    HW143386   5.873  13.148  12.563
13851SOL    HW243387   5.817  13.250  12.466
13852SOL     OW43388  14.614  11.453   6.623
13852SOL    HW143389  14.572  11.525   6.671
13852SOL    HW243390  14.541  11.403   6.586
13853SOL     OW43391   2.420   6.994   0.637
13853SOL    HW143392   2.353   7.062   0.643
13853SOL    HW243393   2.442   6.973   0.728
13854SOL     OW43394   0.891   9.470   5.228
13854SOL    HW143395   0.942   9.423   5.162
13854SOL    HW243396   0.802   9.436   5.218
13855SOL     OW43397   0.582   9.248   0.268
13855SOL    HW143398   0.497   9.268   0.229
13855SOL    HW243399   0.643   9.307   0.224
13856SOL     OW43400   6.467   3.234   1.632
13856SOL    HW143401   6.436   3.223   1.722
13856SOL    HW243402   6.562   3.231   1.639
13857SOL     OW43403   5.020   1.789  10.899
13857SOL    HW143404   5.045   1.707  10.943
13857SOL    HW243405   4.932   1.773  10.866
13858SOL     OW43406  12.706   6.815   7.171
13858SOL    HW143407  12.712   6.890   7.111
13858SOL    HW243408  12.743   6.742   7.122
13859SOL     OW43409   5.721   5.712   9.752
13859SOL    HW143410   5.632   5.684   9.731
13859SOL    HW243411   5.760   5.735   9.668
13860SOL     OW43412   9.010   7.951   0.623
13860SOL    HW143413   9.094   7.977   0.660
13860SOL    HW243414   9.028   7.870   0.576
13861SOL     OW43415   9.574   0.487   4.596
13861SOL    HW143416   9.653   0.500   4.543
13861SOL    HW243417   9.605   0.489   4.686
13862SOL     OW43418   6.882  11.427   9.994
13862SOL    HW143419   6.859  11.507  10.041
13862SOL    HW243420   6.936  11.378  10.057
13863SOL     OW43421  13.569  13.144   8.352
13863SOL    HW143422  13.581  13.237   8.333
13863SOL    HW243423  13.657  13.112   8.375
13864SOL     OW43424  12.021   2.993   4.245
13864SOL    HW143425  12.054   2.942   4.319
13864SOL    HW243426  12.003   3.080   4.281
13865SOL     OW43427  10.490  13.713  13.598
13865SOL    HW143428  10.582  13.695  13.583
13865SOL    HW243429  10.484  13.730  13.692
13866SOL     OW43430   5.597   7.550  13.305
13866SOL    HW143431   5.642   7.474  13.340
13866SOL    HW243432   5.667   7.608  13.275
13867SOL     OW43433   7.090   0.705   7.602
13867SOL    HW143434   7.164   0.660   7.561
13867SOL    HW243435   7.029   0.721   7.530
13868SOL     OW43436  12.338  11.673  13.812
13868SOL    HW143437  12.291  11.647  13.732
13868SOL    HW243438  12.274  11.659  13.882
13869SOL     OW43439  11.763   6.782   6.504
13869SOL    HW143440  11.842   6.809   6.458
13869SOL    HW243441  11.754   6.846   6.575
13870SOL     OW43442   2.869  13.010  11.693
13870SOL    HW143443   2.788  12.985  11.649
13870SOL    HW243444   2.899  12.929  11.735
13871SOL     OW43445  12.075  10.711   3.631
13871SOL    HW143446  12.136  10.661   3.686
13871SOL    HW243447  12.114  10.799   3.626
13872SOL     OW43448   7.696   4.594   6.558
13872SOL    HW143449   7.773   4.633   6.518
13872SOL    HW243450   7.624   4.618   6.501
13873SOL     OW43451   2.061   0.338   1.075
13873SOL    HW143452   2.089   0.430   1.082
13873SOL    HW243453   2.084   0.300   1.160
13874SOL     OW43454   4.973   6.404   3.531
13874SOL    HW143455   4.945   6.313   3.521
13874SOL    HW243456   4.962   6.423   3.624
13875SOL     OW43457   2.420   7.885  13.941
13875SOL    HW143458   2.357   7.900  13.870
13875SOL    HW243459   2.390   7.804  13.983
13876SOL     OW43460   8.624   3.280  12.063
13876SOL    HW143461   8.716   3.304  12.063
13876SOL    HW243462   8.579   3.354  12.104
13877SOL     OW43463   4.852   5.671   5.853
13877SOL    HW143464   4.781   5.647   5.793
13877SOL    HW243465   4.810   5.674   5.939
13878SOL     OW43466   2.403   6.754   0.517
13878SOL    HW143467   2.423   6.844   0.544
13878SOL    HW243468   2.397   6.758   0.422
13879SOL     OW43469   0.534   3.110   7.371
13879SOL    HW143470   0.490   3.026   7.383
13879SOL    HW243471   0.628   3.088   7.373
13880SOL     OW43472   9.286  14.277  14.265
13880SOL    HW143473   9.305  14.321  14.348
13880SOL    HW243474   9.370  14.277  14.218
13881SOL     OW43475  11.502   9.127   3.124
13881SOL    HW143476  11.515   9.034   3.108
13881SOL    HW243477  11.491   9.165   3.037
13882SOL     OW43478  10.318   7.965   4.353
13882SOL    HW143479  10.364   7.991   4.433
13882SOL    HW243480  10.239   8.018   4.353
13883SOL     OW43481   2.872   5.713  10.100
13883SOL    HW143482   2.782   5.707  10.070
13883SOL    HW243483   2.884   5.805  10.122
13884SOL     OW43484  11.885   3.050   9.731
13884SOL    HW143485  11.902   3.063   9.638
13884SOL    HW243486  11.796   3.083   9.744
13885SOL     OW43487  11.451  14.617   5.191
13885SOL    HW143488  11.390  14.544   5.199
13885SOL    HW243489  11.474  14.639   5.282
13886SOL     OW43490   0.947   0.014  12.004
13886SOL    HW143491   0.888  14.823  11.975
13886SOL    HW243492   1.032  14.870  11.966
13887SOL     OW43493   2.278   5.237  13.418
13887SOL    HW143494   2.349   5.296  13.392
13887SOL    HW243495   2.205   5.295  13.438
13888SOL     OW43496   8.827  14.366  14.507
13888SOL    HW143497   8.820  14.397  14.598
13888SOL    HW243498   8.921  14.350  14.495
13889SOL     OW43499  11.632   9.559  14.276
13889SOL    HW143500  11.667   9.580  14.189
13889SOL    HW243501  11.568   9.490  14.260
13890SOL     OW43502   9.212   7.860  10.876
13890SOL    HW143503   9.222   7.773  10.836
13890SOL    HW243504   9.131   7.853  10.927
13891SOL     OW43505  12.642   5.153   9.365
13891SOL    HW143506  12.623   5.245   9.385
13891SOL    HW243507  12.685   5.155   9.280
13892SOL     OW43508   4.782   7.493   6.174
13892SOL    HW143509   4.757   7.492   6.266
13892SOL    HW243510   4.778   7.585   6.149
13893SOL     OW43511   4.094  10.806   1.050
13893SOL    HW143512   4.186  10.832   1.038
13893SOL    HW243513   4.096  10.710   1.049
13894SOL     OW43514   6.859   2.526  13.080
13894SOL    HW143515   6.936   2.517  13.025
13894SOL    HW243516   6.802   2.453  13.057
13895SOL     OW43517   7.104  13.074   9.935
13895SOL    HW143518   7.134  13.024   9.860
13895SOL    HW243519   7.079  13.008  10.000
13896SOL     OW43520   2.131   2.268  11.291
13896SOL    HW143521   2.202   2.281  11.354
13896SOL    HW243522   2.169   2.210  11.224
13897SOL     OW43523  10.007   2.861  10.442
13897SOL    HW143524   9.954   2.928  10.397
13897SOL    HW243525  10.067   2.829  10.374
13898SOL     OW43526   3.563  11.989  11.484
13898SOL    HW143527   3.506  11.994  11.407
13898SOL    HW243528   3.513  12.032  11.554
13899SOL     OW43529  11.431   5.253   5.959
13899SOL    HW143530  11.399   5.304   5.885
13899SOL    HW243531  11.497   5.195   5.922
13900SOL     OW43532   7.633   3.153   3.320
13900SOL    HW143533   7.720   3.144   3.281
13900SOL    HW243534   7.584   3.078   3.288
13901SOL     OW43535  11.315  13.211   0.692
13901SOL    HW143536  11.220  13.199   0.700
13901SOL    HW243537  11.345  13.134   0.644
13902SOL     OW43538   6.639   7.994  13.024
13902SOL    HW143539   6.554   7.953  13.006
13902SOL    HW243540   6.675   8.012  12.937
13903SOL     OW43541  13.751   8.992  10.198
13903SOL    HW143542  13.705   8.950  10.271
13903SOL    HW243543  13.681   9.022  10.140
13904SOL     OW43544  11.015   9.522   1.895
13904SOL    HW143545  11.003   9.607   1.938
13904SOL    HW243546  11.058   9.543   1.812
13905SOL     OW43547   3.313   8.521   5.986
13905SOL    HW143548   3.367   8.581   6.038
13905SOL    HW243549   3.223   8.535   6.018
13906SOL     OW43550  10.476   6.627  14.561
13906SOL    HW143551  10.502   6.707  14.516
13906SOL    HW243552  10.427   6.656  14.637
13907SOL     OW43553   5.655   0.663  13.896
13907SOL    HW143554   5.598   0.640  13.822
13907SOL    HW243555   5.630   0.752  13.919
13908SOL     OW43556   1.461  10.579   0.381
13908SOL    HW143557   1.440  10.659   0.429
13908SOL    HW243558   1.513  10.527   0.442
13909SOL     OW43559  10.108  14.413  13.788
13909SOL    HW143560  10.046  14.470  13.742
13909SOL    HW243561  10.104  14.442  13.879
13910SOL     OW43562   2.137  11.855   9.775
13910SOL    HW143563   2.097  11.941   9.781
13910SOL    HW243564   2.064  11.795   9.759
13911SOL     OW43565   8.107   8.090   9.936
13911SOL    HW143566   8.138   8.056  10.020
13911SOL    HW243567   8.027   8.137   9.957
13912SOL     OW43568   0.208  10.310   8.971
13912SOL    HW143569   0.132  10.368   8.967
13912SOL    HW243570   0.175  10.225   8.944
13913SOL     OW43571  12.630   8.954  12.697
13913SOL    HW143572  12.569   8.983  12.765
13913SOL    HW243573  12.614   8.860  12.688
13914SOL     OW43574  13.254   3.630   5.273
13914SOL    HW143575  13.265   3.539   5.245
13914SOL    HW243576  13.165   3.634   5.307
13915SOL     OW43577   8.636   9.607   5.057
13915SOL    HW143578   8.681   9.561   5.128
13915SOL    HW243579   8.692   9.595   4.981
13916SOL     OW43580   9.376  14.262   0.464
13916SOL    HW143581   9.344  14.190   0.410
13916SOL    HW243582   9.369  14.339   0.407
13917SOL     OW43583   7.816   8.579   8.829
13917SOL    HW143584   7.807   8.604   8.921
13917SOL    HW243585   7.859   8.493   8.832
13918SOL     OW43586   0.102  12.622   4.081
13918SOL    HW143587   0.073  12.703   4.124
13918SOL    HW243588   0.029  12.596   4.026
13919SOL     OW43589   1.718   0.108  13.673
13919SOL    HW143590   1.727   0.201  13.697
13919SOL    HW243591   1.800   0.087  13.627
13920SOL     OW43592   8.550   5.323   7.229
13920SOL    HW143593   8.456   5.305   7.226
13920SOL    HW243594   8.591   5.236   7.234
13921SOL     OW43595   2.109  14.386   3.845
13921SOL    HW143596   2.198  14.364   3.818
13921SOL    HW243597   2.103  14.480   3.833
13922SOL     OW43598  14.814   4.236   2.358
13922SOL    HW143599  14.757   4.253   2.283
13922SOL    HW243600  14.777   4.158   2.399
13923SOL     OW43601   9.949  11.960   6.466
13923SOL    HW143602  10.024  11.951   6.525
13923SOL    HW243603   9.980  11.928   6.382
13924SOL     OW43604   1.700   3.091  12.842
13924SOL    HW143605   1.734   3.071  12.929
13924SOL    HW243606   1.778   3.092  12.786
13925SOL     OW43607   3.383  11.996  11.721
13925SOL    HW143608   3.314  11.964  11.662
13925SOL    HW243609   3.418  11.917  11.762
13926SOL     OW43610  13.381  13.874  14.409
13926SOL    HW143611  13.319  13.801  14.410
13926SOL    HW243612  13.439  13.858  14.483
13927SOL     OW43613   9.611   9.503   1.453
13927SOL    HW143614   9.613   9.569   1.523
13927SOL    HW243615   9.655   9.427   1.490
13928SOL     OW43616   8.900   7.218  12.557
13928SOL    HW143617   8.946   7.174  12.485
13928SOL    HW243618   8.966   7.278  12.594
13929SOL     OW43619   6.319   0.641  13.679
13929SOL    HW143620   6.349   0.689  13.601
13929SOL    HW243621   6.302   0.553  13.647
13930SOL     OW43622   3.987   3.140   1.540
13930SOL    HW143623   4.025   3.137   1.628
13930SOL    HW243624   3.962   3.232   1.528
13931SOL     OW43625   8.141   1.343   9.590
13931SOL    HW143626   8.130   1.260   9.636
13931SOL    HW243627   8.112   1.409   9.653
13932SOL     OW43628   6.436   2.496   1.786
13932SOL    HW143629   6.376   2.514   1.713
13932SOL    HW243630   6.425   2.403   1.803
13933SOL     OW43631   3.732   6.953   5.723
13933SOL    HW143632   3.779   6.963   5.640
13933SOL    HW243633   3.786   6.893   5.774
13934SOL     OW43634  14.799  10.900   3.598
13934SOL    HW143635  14.781  10.841   3.525
13934SOL    HW243636  14.748  10.865   3.671
13935SOL     OW43637   3.879   4.560   0.079
13935SOL    HW143638   3.974   4.550   0.080
13935SOL    HW243639   3.865   4.654   0.088
13936SOL     OW43640   4.446   1.835   6.271
13936SOL    HW143641   4.529   1.826   6.225
13936SOL    HW243642   4.379   1.813   6.206
13937SOL     OW43643  11.192   9.355  14.797
13937SOL    HW143644  11.240   9.412  14.737
13937SOL    HW243645  11.173   9.410  14.873
13938SOL     OW43646   8.834   4.912   6.581
13938SOL    HW143647   8.893   4.960   6.523
13938SOL    HW243648   8.774   4.978   6.614
13939SOL     OW43649  10.963   2.990   1.381
13939SOL    HW143650  11.036   3.049   1.362
13939SOL    HW243651  10.905   3.041   1.438
13940SOL     OW43652   9.494  11.368  13.093
13940SOL    HW143653   9.469  11.298  13.033
13940SOL    HW243654   9.585  11.388  13.071
13941SOL     OW43655  12.113  12.533   5.946
13941SOL    HW143656  12.024  12.499   5.952
13941SOL    HW243657  12.157  12.474   5.885
13942SOL     OW43658   1.960  13.126   4.604
13942SOL    HW143659   1.984  13.068   4.531
13942SOL    HW243660   1.943  13.210   4.562
13943SOL     OW43661   1.407   1.827   9.363
13943SOL    HW143662   1.340   1.760   9.373
13943SOL    HW243663   1.377   1.881   9.290
13944SOL     OW43664   0.418   3.984  11.829
13944SOL    HW143665   0.505   3.957  11.799
13944SOL    HW243666   0.378   3.904  11.863
13945SOL     OW43667  14.498  12.970   3.750
13945SOL    HW143668  14.544  12.946   3.830
13945SOL    HW243669  14.537  12.915   3.682
13946SOL     OW43670   1.237   8.930   2.996
13946SOL    HW143671   1.232   8.883   2.913
13946SOL    HW243672   1.275   9.015   2.974
13947SOL     OW43673   9.427   5.892   0.183
13947SOL    HW143674   9.388   5.978   0.196
13947SOL    HW243675   9.381   5.835   0.245
13948SOL     OW43676  14.689   3.583  12.321
13948SOL    HW143677  14.720   3.603  12.232
13948SOL    HW243678  14.630   3.656  12.342
13949SOL     OW43679   3.378  12.271  11.712
13949SOL    HW143680   3.370  12.176  11.719
13949SOL    HW243681   3.411  12.299  11.798
13950SOL     OW43682  12.917  12.304   0.446
13950SOL    HW143683  12.933  12.220   0.489
13950SOL    HW243684  12.906  12.366   0.517
13951SOL     OW43685   6.268   7.706   8.475
13951SOL    HW143686   6.172   7.701   8.472
13951SOL    HW243687   6.294   7.630   8.526
13952SOL     OW43688   1.159   8.713   1.619
13952SOL    HW143689   1.198   8.709   1.706
13952SOL    HW243690   1.207   8.648   1.568
13953SOL     OW43691   8.562   5.795   9.873
13953SOL    HW143692   8.468   5.776   9.868
13953SOL    HW243693   8.567   5.877   9.923
13954SOL     OW43694  13.456   7.551   9.577
13954SOL    HW143695  13.537   7.553   9.526
13954SOL    HW243696  13.417   7.637   9.564
13955SOL     OW43697   0.073  11.776   9.820
13955SOL    HW143698   0.143  11.775   9.885
13955SOL    HW243699   0.002  11.727   9.861
13956SOL     OW43700  12.576   1.048  11.258
13956SOL    HW143701  12.504   1.110  11.258
13956SOL    HW243702  12.566   0.999  11.340
13957SOL     OW43703   3.333  14.669  12.733
13957SOL    HW143704   3.278  14.602  12.693
13957SOL    HW243705   3.277  14.712  12.797
13958SOL     OW43706  13.614  13.062  10.917
13958SOL    HW143707  13.674  13.046  10.990
13958SOL    HW243708  13.635  12.992  10.854
13959SOL     OW43709   4.017   3.246   3.383
13959SOL    HW143710   3.975   3.239   3.468
13959SOL    HW243711   4.110   3.260   3.402
13960SOL     OW43712   3.775   0.295  13.499
13960SOL    HW143713   3.866   0.323  13.514
13960SOL    HW243714   3.780   0.200  13.489
13961SOL     OW43715   9.531   4.433   9.482
13961SOL    HW143716   9.620   4.446   9.450
13961SOL    HW243717   9.509   4.516   9.524
13962SOL     OW43718   3.441   8.853   0.605
13962SOL    HW143719   3.493   8.788   0.653
13962SOL    HW243720   3.379   8.800   0.555
13963SOL     OW43721   8.702   9.695   1.045
13963SOL    HW143722   8.757   9.622   1.016
13963SOL    HW243723   8.618   9.655   1.066
13964SOL     OW43724  10.058   3.206  11.331
13964SOL    HW143725   9.962   3.202  11.335
13964SOL    HW243726  10.079   3.297  11.349
13965SOL     OW43727   6.218  14.846   7.344
13965SOL    HW143728   6.140   0.008   7.305
13965SOL    HW243729   6.185  14.800   7.421
13966SOL     OW43730   7.565  14.651   8.577
13966SOL    HW143731   7.622  14.686   8.508
13966SOL    HW243732   7.507  14.591   8.531
13967SOL     OW43733   0.393  11.581   4.948
13967SOL    HW143734   0.309  11.543   4.974
13967SOL    HW243735   0.457  11.512   4.967
13968SOL     OW43736   5.055   2.028   9.611
13968SOL    HW143737   5.105   2.109   9.602
13968SOL    HW243738   5.116   1.959   9.583
13969SOL     OW43739   1.225   7.146   9.420
13969SOL    HW143740   1.275   7.078   9.464
13969SOL    HW243741   1.147   7.159   9.474
13970SOL     OW43742   8.110   2.845  12.880
13970SOL    HW143743   8.116   2.813  12.970
13970SOL    HW243744   8.071   2.932  12.888
13971SOL     OW43745   7.614  13.012   2.673
13971SOL    HW143746   7.567  12.943   2.627
13971SOL    HW243747   7.680  12.966   2.725
13972SOL     OW43748   3.259   2.403   6.065
13972SOL    HW143749   3.318   2.406   5.990
13972SOL    HW243750   3.313   2.370   6.137
13973SOL     OW43751   3.794   6.155   6.149
13973SOL    HW143752   3.801   6.198   6.234
13973SOL    HW243753   3.775   6.227   6.088
13974SOL     OW43754  10.635   0.631   9.227
13974SOL    HW143755  10.548   0.668   9.209
13974SOL    HW243756  10.628   0.596   9.316
13975SOL     OW43757  14.360  11.283  12.265
13975SOL    HW143758  14.270  11.254  12.250
13975SOL    HW243759  14.372  11.274  12.360
13976SOL     OW43760  11.230   6.615   5.526
13976SOL    HW143761  11.148   6.601   5.573
13976SOL    HW243762  11.255   6.705   5.548
13977SOL     OW43763  11.268   6.521   2.374
13977SOL    HW143764  11.343   6.479   2.331
13977SOL    HW243765  11.241   6.458   2.441
13978SOL     OW43766   2.274   7.850  11.843
13978SOL    HW143767   2.313   7.765  11.864
13978SOL    HW243768   2.277   7.899  11.924
13979SOL     OW43769   2.627  12.544   1.827
13979SOL    HW143770   2.701  12.602   1.845
13979SOL    HW243771   2.640  12.470   1.887
13980SOL     OW43772   0.572   2.646   8.953
13980SOL    HW143773   0.571   2.671   8.860
13980SOL    HW243774   0.479   2.644   8.978
13981SOL     OW43775   8.680  10.504   1.191
13981SOL    HW143776   8.684  10.511   1.286
13981SOL    HW243777   8.682  10.595   1.161
13982SOL     OW43778   1.078   4.049   8.870
13982SOL    HW143779   1.085   4.073   8.777
13982SOL    HW243780   0.994   4.005   8.876
13983SOL     OW43781  12.291  10.098   4.317
13983SOL    HW143782  12.363  10.062   4.265
13983SOL    HW243783  12.331  10.120   4.401
13984SOL     OW43784   8.125  12.399   1.791
13984SOL    HW143785   8.136  12.482   1.746
13984SOL    HW243786   8.204  12.391   1.846
13985SOL     OW43787   9.349   2.888   0.404
13985SOL    HW143788   9.272   2.864   0.353
13985SOL    HW243789   9.404   2.937   0.343
13986SOL     OW43790  10.174   0.080  12.061
13986SOL    HW143791  10.096   0.027  12.080
13986SOL    HW243792  10.175   0.147  12.130
13987SOL     OW43793   7.494   6.692  10.843
13987SOL    HW143794   7.462   6.612  10.801
13987SOL    HW243795   7.418   6.728  10.889
13988SOL     OW43796  13.607   8.695   2.028
13988SOL    HW143797  13.701   8.679   2.022
13988SOL    HW243798  13.568   8.608   2.033
13989SOL     OW43799   6.665   6.072   9.102
13989SOL    HW143800   6.692   6.075   9.194
13989SOL    HW243801   6.618   6.154   9.088
13990SOL     OW43802  12.684   6.788   2.976
13990SOL    HW143803  12.639   6.837   3.045
13990SOL    HW243804  12.704   6.854   2.909
13991SOL     OW43805  11.496   6.604  10.878
13991SOL    HW143806  11.408   6.612  10.844
13991SOL    HW243807  11.505   6.676  10.941
13992SOL     OW43808   4.501   3.688  10.630
13992SOL    HW143809   4.566   3.735  10.683
13992SOL    HW243810   4.545   3.673  10.546
13993SOL     OW43811   1.363  14.327   8.994
13993SOL    HW143812   1.411  14.374   9.062
13993SOL    HW243813   1.378  14.234   9.013
13994SOL     OW43814  14.793   2.453   7.253
13994SOL    HW143815  14.875   2.419   7.290
13994SOL    HW243816  14.738   2.376   7.241
13995SOL     OW43817  13.833   3.170   1.717
13995SOL    HW143818  13.915   3.133   1.750
13995SOL    HW243819  13.765   3.133   1.773
13996SOL     OW43820   9.840  10.175   7.913
13996SOL    HW143821   9.771  10.151   7.851
13996SOL    HW243822   9.878  10.092   7.940
13997SOL     OW43823   0.558   0.698   6.200
13997SOL    HW143824   0.567   0.610   6.165
13997SOL    HW243825   0.610   0.697   6.280
13998SOL     OW43826  13.761  12.675   1.685
13998SOL    HW143827  13.707  12.713   1.616
13998SOL    HW243828  13.742  12.581   1.680
13999SOL     OW43829   2.630  10.622   0.255
13999SOL    HW143830   2.566  10.553   0.241
13999SOL    HW243831   2.596  10.673   0.328
14000SOL     OW43832   9.409   7.000   7.746
14000SOL    HW143833   9.430   6.907   7.741
14000SOL    HW243834   9.330   7.010   7.694
14001SOL     OW43835   6.072   9.031   7.296
14001SOL    HW143836   6.006   8.996   7.236
14001SOL    HW243837   6.023   9.071   7.367
14002SOL     OW43838   6.955  11.526   6.801
14002SOL    HW143839   7.013  11.453   6.824
14002SOL    HW243840   6.887  11.487   6.747
14003SOL     OW43841   7.897   5.642   4.104
14003SOL    HW143842   7.802   5.636   4.097
14003SOL    HW243843   7.912   5.705   4.175
14004SOL     OW43844  12.568   1.108   4.042
14004SOL    HW143845  12.625   1.170   4.087
14004SOL    HW243846  12.595   1.114   3.950
14005SOL     OW43847  11.282   3.883  12.408
14005SOL    HW143848  11.288   3.948  12.338
14005SOL    HW243849  11.231   3.811  12.369
14006SOL     OW43850   7.872  11.939   8.248
14006SOL    HW143851   7.918  11.910   8.169
14006SOL    HW243852   7.786  11.897   8.242
14007SOL     OW43853   1.062   2.775   5.222
14007SOL    HW143854   0.980   2.733   5.248
14007SOL    HW243855   1.036   2.843   5.159
14008SOL     OW43856  13.368  14.797   2.773
14008SOL    HW143857  13.424  14.727   2.739
14008SOL    HW243858  13.281  14.775   2.741
14009SOL     OW43859   2.433  10.217   5.823
14009SOL    HW143860   2.487  10.144   5.853
14009SOL    HW243861   2.370  10.231   5.894
14010SOL     OW43862  12.262  14.086   4.171
14010SOL    HW143863  12.327  14.132   4.225
14010SOL    HW243864  12.182  14.088   4.223
14011SOL     OW43865  12.626   8.678   9.255
14011SOL    HW143866  12.718   8.653   9.243
14011SOL    HW243867  12.631   8.763   9.300
14012SOL     OW43868  14.533   6.614   5.613
14012SOL    HW143869  14.571   6.530   5.639
14012SOL    HW243870  14.589   6.645   5.541
14013SOL     OW43871  14.728   7.266   5.565
14013SOL    HW143872  14.641   7.295   5.537
14013SOL    HW243873  14.717   7.248   5.659
14014SOL     OW43874   1.033  11.346   2.777
14014SOL    HW143875   1.061  11.419   2.722
14014SOL    HW243876   0.944  11.327   2.748
14015SOL     OW43877   8.004   7.279   0.232
14015SOL    HW143878   8.081   7.336   0.222
14015SOL    HW243879   7.986   7.280   0.326
14016SOL     OW43880   6.251  11.841   4.506
14016SOL    HW143881   6.223  11.754   4.477
14016SOL    HW243882   6.311  11.824   4.579
14017SOL     OW43883   1.628  12.726   4.996
14017SOL    HW143884   1.627  12.712   4.901
14017SOL    HW243885   1.570  12.658   5.031
14018SOL     OW43886  14.738   9.617   4.709
14018SOL    HW143887  14.794   9.619   4.786
14018SOL    HW243888  14.756   9.700   4.664
14019SOL     OW43889   2.943   8.670  14.509
14019SOL    HW143890   2.858   8.631  14.529
14019SOL    HW243891   2.988   8.673  14.594
14020SOL     OW43892   0.113   9.621   3.211
14020SOL    HW143893   0.114   9.546   3.151
14020SOL    HW243894   0.050   9.597   3.279
14021SOL     OW43895   0.736   2.438  10.480
14021SOL    HW143896   0.796   2.504  10.447
14021SOL    HW243897   0.757   2.359  10.431
14022SOL     OW43898   4.472  11.193  13.058
14022SOL    HW143899   4.565  11.170  13.054
14022SOL    HW243900   4.469  11.275  13.107
14023SOL     OW43901   8.617   1.423  14.288
14023SOL    HW143902   8.640   1.330  14.281
14023SOL    HW243903   8.674   1.457  14.357
14024SOL     OW43904  12.909   7.288   2.751
14024SOL    HW143905  12.916   7.321   2.840
14024SOL    HW243906  12.985   7.326   2.706
14025SOL     OW43907   6.644   2.875  13.915
14025SOL    HW143908   6.564   2.850  13.868
14025SOL    HW243909   6.631   2.843  14.004
14026SOL     OW43910  11.705   4.239  13.779
14026SOL    HW143911  11.757   4.317  13.797
14026SOL    HW243912  11.627   4.249  13.833
14027SOL     OW43913  12.286   0.761   2.246
14027SOL    HW143914  12.314   0.709   2.321
14027SOL    HW243915  12.367   0.793   2.207
14028SOL     OW43916  12.403   5.659  14.735
14028SOL    HW143917  12.468   5.616  14.790
14028SOL    HW243918  12.324   5.662  14.789
14029SOL     OW43919   8.930   0.371   2.809
14029SOL    HW143920   8.984   0.318   2.867
14029SOL    HW243921   8.840   0.349   2.834
14030SOL     OW43922  10.796  11.966  10.423
14030SOL    HW143923  10.831  12.038  10.475
14030SOL    HW243924  10.871  11.935  10.371
14031SOL     OW43925   0.370   1.029  13.565
14031SOL    HW143926   0.352   1.115  13.526
14031SOL    HW243927   0.464   1.017  13.553
14032SOL     OW43928  12.496  10.983   4.814
14032SOL    HW143929  12.509  11.033   4.734
14032SOL    HW243930  12.515  11.045   4.884
14033SOL     OW43931   1.498   4.744   8.121
14033SOL    HW143932   1.425   4.706   8.071
14033SOL    HW243933   1.553   4.785   8.055
14034SOL     OW43934   7.500  10.408   7.457
14034SOL    HW143935   7.499  10.341   7.389
14034SOL    HW243936   7.501  10.491   7.410
14035SOL     OW43937  12.944   6.576  12.062
14035SOL    HW143938  12.870   6.636  12.049
14035SOL    HW243939  12.979   6.561  11.974
14036SOL     OW43940   9.765   1.616   3.022
14036SOL    HW143941   9.675   1.592   3.001
14036SOL    HW243942   9.808   1.621   2.937
14037SOL     OW43943   9.523  13.012  11.521
14037SOL    HW143944   9.429  12.996  11.511
14037SOL    HW243945   9.530  13.096  11.564
14038SOL     OW43946   8.220   9.355   2.978
14038SOL    HW143947   8.174   9.431   3.016
14038SOL    HW243948   8.273   9.392   2.907
14039SOL     OW43949   7.566   7.461   9.641
14039SOL    HW143950   7.648   7.508   9.625
14039SOL    HW243951   7.546   7.418   9.558
14040SOL     OW43952   4.688  10.562  10.431
14040SOL    HW143953   4.714  10.531  10.344
14040SOL    HW243954   4.709  10.655  10.430
14041SOL     OW43955   7.184  13.194   9.316
14041SOL    HW143956   7.155  13.146   9.238
14041SOL    HW243957   7.279  13.198   9.308
14042SOL     OW43958   2.364   8.151  12.131
14042SOL    HW143959   2.357   8.189  12.043
14042SOL    HW243960   2.341   8.058  12.118
14043SOL     OW43961   4.872  11.432   2.719
14043SOL    HW143962   4.900  11.390   2.801
14043SOL    HW243963   4.916  11.381   2.651
14044SOL     OW43964   8.455   4.851   6.376
14044SOL    HW143965   8.411   4.841   6.461
14044SOL    HW243966   8.536   4.801   6.385
14045SOL     OW43967   4.913   9.754   5.278
14045SOL    HW143968   4.857   9.711   5.342
14045SOL    HW243969   4.999   9.715   5.292
14046SOL     OW43970   9.047   7.636   1.741
14046SOL    HW143971   9.050   7.699   1.813
14046SOL    HW243972   8.960   7.645   1.703
14047SOL     OW43973  12.776   9.460   8.127
14047SOL    HW143974  12.704   9.470   8.064
14047SOL    HW243975  12.768   9.370   8.158
14048SOL     OW43976   7.917   8.119   2.141
14048SOL    HW143977   7.932   8.156   2.228
14048SOL    HW243978   7.830   8.079   2.147
14049SOL     OW43979   9.735  11.320  10.439
14049SOL    HW143980   9.643  11.349  10.443
14049SOL    HW243981   9.776  11.380  10.376
14050SOL     OW43982  12.580   2.175   7.469
14050SOL    HW143983  12.488   2.149   7.470
14050SOL    HW243984  12.615   2.136   7.388
14051SOL     OW43985  10.760   9.356  13.991
14051SOL    HW143986  10.751   9.435  13.939
14051SOL    HW243987  10.701   9.369  14.065
14052SOL     OW43988   9.855  12.988   7.103
14052SOL    HW143989   9.815  12.903   7.119
14052SOL    HW243990   9.836  13.008   7.012
14053SOL     OW43991   7.580  13.462   1.205
14053SOL    HW143992   7.622  13.434   1.124
14053SOL    HW243993   7.511  13.522   1.177
14054SOL     OW43994   3.763   3.650  14.534
14054SOL    HW143995   3.698   3.674  14.599
14054SOL    HW243996   3.713   3.638  14.453
14055SOL     OW43997   9.000   4.373   9.279
14055SOL    HW143998   8.939   4.370   9.353
14055SOL    HW243999   9.085   4.393   9.320
14056SOL     OW44000   0.424   7.802   6.165
14056SOL    HW144001   0.417   7.803   6.069
14056SOL    HW244002   0.459   7.716   6.186
14057SOL     OW44003   3.723  14.498   5.149
14057SOL    HW144004   3.654  14.543   5.100
14057SOL    HW244005   3.758  14.565   5.208
14058SOL     OW44006   7.714  13.177   6.977
14058SOL    HW144007   7.807  13.201   6.976
14058SOL    HW244008   7.713  13.088   7.012
14059SOL     OW44009  11.426   5.665   2.699
14059SOL    HW144010  11.371   5.672   2.777
14059SOL    HW244011  11.435   5.755   2.668
14060SOL     OW44012   9.101   2.853   8.825
14060SOL    HW144013   9.175   2.905   8.793
14060SOL    HW244014   9.029   2.873   8.765
14061SOL     OW44015   7.655   1.813   3.012
14061SOL    HW144016   7.585   1.872   2.983
14061SOL    HW244017   7.680   1.763   2.934
14062SOL     OW44018   7.425  14.476   8.459
14062SOL    HW144019   7.429  14.456   8.366
14062SOL    HW244020   7.379  14.401   8.497
14063SOL     OW44021   6.315   4.258   9.750
14063SOL    HW144022   6.275   4.241   9.665
14063SOL    HW244023   6.271   4.336   9.782
14064SOL     OW44024   8.718   3.986   7.763
14064SOL    HW144025   8.805   3.997   7.724
14064SOL    HW244026   8.700   3.893   7.757
14065SOL     OW44027   3.843   7.138   9.467
14065SOL    HW144028   3.783   7.076   9.427
14065SOL    HW244029   3.804   7.224   9.451
14066SOL     OW44030  13.996   9.038   6.983
14066SOL    HW144031  14.007   9.008   6.893
14066SOL    HW244032  14.025   8.964   7.037
14067SOL     OW44033   9.324  10.761   3.398
14067SOL    HW144034   9.335  10.855   3.382
14067SOL    HW244035   9.390  10.719   3.343
14068SOL     OW44036  12.136   4.049   5.844
14068SOL    HW144037  12.184   4.020   5.921
14068SOL    HW244038  12.048   4.013   5.856
14069SOL     OW44039  11.265   1.361  13.878
14069SOL    HW144040  11.193   1.424  13.880
14069SOL    HW244041  11.315   1.384  13.800
14070SOL     OW44042  10.066   2.032  13.060
14070SOL    HW144043  10.159   2.016  13.078
14070SOL    HW244044  10.023   1.949  13.080
14071SOL     OW44045   0.814  10.024   7.827
14071SOL    HW144046   0.893  10.066   7.793
14071SOL    HW244047   0.758  10.013   7.751
14072SOL     OW44048   5.937  10.469   7.698
14072SOL    HW144049   5.914  10.415   7.773
14072SOL    HW244050   5.950  10.408   7.626
14073SOL     OW44051   0.622   3.507   7.429
14073SOL    HW144052   0.600   3.599   7.446
14073SOL    HW244053   0.688   3.486   7.496
14074SOL     OW44054   1.937   9.761   6.851
14074SOL    HW144055   1.894   9.823   6.909
14074SOL    HW244056   2.016   9.806   6.820
14075SOL     OW44057   7.670   0.778   4.091
14075SOL    HW144058   7.758   0.782   4.128
14075SOL    HW244059   7.680   0.807   4.000
14076SOL     OW44060   8.733   3.160   9.508
14076SOL    HW144061   8.695   3.087   9.458
14076SOL    HW244062   8.747   3.229   9.443
14077SOL     OW44063   6.951  13.055   8.642
14077SOL    HW144064   6.969  13.095   8.558
14077SOL    HW244065   6.975  12.963   8.631
14078SOL     OW44066  13.407   6.805   7.189
14078SOL    HW144067  13.380   6.841   7.105
14078SOL    HW244068  13.373   6.867   7.254
14079SOL     OW44069   5.096  14.382   6.573
14079SOL    HW144070   5.098  14.444   6.500
14079SOL    HW244071   5.166  14.320   6.554
14080SOL     OW44072   3.173   7.612   9.241
14080SOL    HW144073   3.130   7.680   9.190
14080SOL    HW244074   3.231   7.660   9.300
14081SOL     OW44075  12.055   8.337   0.122
14081SOL    HW144076  12.090   8.249   0.138
14081SOL    HW244077  12.002   8.356   0.200
14082SOL     OW44078   4.268   1.227   0.107
14082SOL    HW144079   4.279   1.256   0.017
14082SOL    HW244080   4.177   1.250   0.129
14083SOL     OW44081   9.275  12.607   4.541
14083SOL    HW144082   9.300  12.529   4.589
14083SOL    HW244083   9.210  12.650   4.597
14084SOL     OW44084   1.891   7.317   9.919
14084SOL    HW144085   1.874   7.258   9.845
14084SOL    HW244086   1.936   7.262   9.983
14085SOL     OW44087   3.562  12.398   0.199
14085SOL    HW144088   3.626  12.367   0.263
14085SOL    HW244089   3.496  12.330   0.195
14086SOL     OW44090   5.816  11.030  10.173
14086SOL    HW144091   5.799  10.946  10.129
14086SOL    HW244092   5.887  11.011  10.233
14087SOL     OW44093   6.822   7.269   5.104
14087SOL    HW144094   6.815   7.205   5.034
14087SOL    HW244095   6.731   7.295   5.123
14088SOL     OW44096   3.506  11.303  13.779
14088SOL    HW144097   3.572  11.294  13.710
14088SOL    HW244098   3.511  11.221  13.828
14089SOL     OW44099   0.928  14.289   5.644
14089SOL    HW144100   0.964  14.349   5.709
14089SOL    HW244101   0.961  14.322   5.560
14090SOL     OW44102   8.261   8.499  13.357
14090SOL    HW144103   8.212   8.444  13.296
14090SOL    HW244104   8.258   8.452  13.440
14091SOL     OW44105  13.565   1.677  11.469
14091SOL    HW144106  13.575   1.731  11.548
14091SOL    HW244107  13.472   1.685  11.446
14092SOL     OW44108   5.543   1.025   1.915
14092SOL    HW144109   5.465   0.987   1.955
14092SOL    HW244110   5.513   1.060   1.831
14093SOL     OW44111  13.664  12.333  12.967
14093SOL    HW144112  13.611  12.313  12.890
14093SOL    HW244113  13.648  12.426  12.984
14094SOL     OW44114   1.783   8.650  10.671
14094SOL    HW144115   1.864   8.619  10.711
14094SOL    HW244116   1.804   8.660  10.578
14095SOL     OW44117   2.821   8.611   7.109
14095SOL    HW144118   2.867   8.636   7.028
14095SOL    HW244119   2.731   8.638   7.095
14096SOL     OW44120   5.297   8.124  14.654
14096SOL    HW144121   5.358   8.051  14.643
14096SOL    HW244122   5.351   8.202  14.649
14097SOL     OW44123   0.745  11.381   9.724
14097SOL    HW144124   0.691  11.314   9.681
14097SOL    HW244125   0.684  11.451   9.746
14098SOL     OW44126   4.985   3.191   2.886
14098SOL    HW144127   4.910   3.161   2.834
14098SOL    HW244128   4.998   3.282   2.858
14099SOL     OW44129  13.188   8.694  11.673
14099SOL    HW144130  13.215   8.703  11.582
14099SOL    HW244131  13.107   8.746  11.679
14100SOL     OW44132   9.744   1.206  13.700
14100SOL    HW144133   9.820   1.149  13.684
14100SOL    HW244134   9.774   1.293  13.676
14101SOL     OW44135   4.408   6.586   7.199
14101SOL    HW144136   4.493   6.565   7.240
14101SOL    HW244137   4.367   6.647   7.260
14102SOL     OW44138  11.702   3.534   5.439
14102SOL    HW144139  11.640   3.462   5.426
14102SOL    HW244140  11.720   3.566   5.351
14103SOL     OW44141   5.271   4.832   0.732
14103SOL    HW144142   5.183   4.794   0.735
14103SOL    HW244143   5.256   4.924   0.707
14104SOL     OW44144  14.600   6.607  12.055
14104SOL    HW144145  14.520   6.597  12.106
14104SOL    HW244146  14.572   6.601  11.964
14105SOL     OW44147  10.930   8.341   2.164
14105SOL    HW144148  10.885   8.260   2.140
14105SOL    HW244149  10.948   8.384   2.081
14106SOL     OW44150  10.201   6.525  12.346
14106SOL    HW144151  10.200   6.472  12.426
14106SOL    HW244152  10.184   6.462  12.275
14107SOL     OW44153  11.463   5.978  13.476
14107SOL    HW144154  11.435   5.924  13.549
14107SOL    HW244155  11.465   5.918  13.401
14108SOL     OW44156  12.592  12.532   9.054
14108SOL    HW144157  12.625  12.564   8.970
14108SOL    HW244158  12.502  12.564   9.058
14109SOL     OW44159   1.148   0.636   8.827
14109SOL    HW144160   1.097   0.698   8.881
14109SOL    HW244161   1.093   0.621   8.750
14110SOL     OW44162   7.391   5.927  13.113
14110SOL    HW144163   7.310   5.914  13.164
14110SOL    HW244164   7.366   5.905  13.023
14111SOL     OW44165   8.443   1.538  14.112
14111SOL    HW144166   8.505   1.502  14.175
14111SOL    HW244167   8.489   1.613  14.073
14112SOL     OW44168   7.130   9.148   5.807
14112SOL    HW144169   7.067   9.097   5.858
14112SOL    HW244170   7.096   9.238   5.809
14113SOL     OW44171   5.163   0.121  10.610
14113SOL    HW144172   5.141   0.028  10.612
14113SOL    HW244173   5.081   0.165  10.587
14114SOL     OW44174  10.416  12.980  10.576
14114SOL    HW144175  10.322  12.984  10.559
14114SOL    HW244176  10.445  12.900  10.533
14115SOL     OW44177   8.504  10.879  10.453
14115SOL    HW144178   8.420  10.832  10.450
14115SOL    HW244179   8.569  10.814  10.427
14116SOL     OW44180   3.237   6.391   0.343
14116SOL    HW144181   3.203   6.416   0.258
14116SOL    HW244182   3.276   6.305   0.330
14117SOL     OW44183   6.562   1.601   0.030
14117SOL    HW144184   6.579   1.690   0.062
14117SOL    HW244185   6.628   1.547   0.073
14118SOL     OW44186   5.937   6.620  10.578
14118SOL    HW144187   5.957   6.584  10.664
14118SOL    HW244188   5.974   6.708  10.579
14119SOL     OW44189  12.859  13.359   2.618
14119SOL    HW144190  12.808  13.317   2.687
14119SOL    HW244191  12.934  13.398   2.663
14120SOL     OW44192  10.031  11.044  10.614
14120SOL    HW144193  10.077  11.110  10.562
14120SOL    HW244194  10.083  11.036  10.694
14121SOL     OW44195   2.280   8.117  12.607
14121SOL    HW144196   2.344   8.147  12.543
14121SOL    HW244197   2.198   8.161  12.582
14122SOL     OW44198   9.901   2.963  13.198
14122SOL    HW144199   9.929   3.028  13.262
14122SOL    HW244200   9.870   3.014  13.124
14123SOL     OW44201   6.085   2.655   4.482
14123SOL    HW144202   6.136   2.724   4.440
14123SOL    HW244203   6.083   2.680   4.575
14124SOL     OW44204   0.547   0.551   1.903
14124SOL    HW144205   0.472   0.525   1.956
14124SOL    HW244206   0.512   0.617   1.844
14125SOL     OW44207   1.000   1.126  14.236
14125SOL    HW144208   0.994   1.047  14.182
14125SOL    HW244209   1.046   1.189  14.181
14126SOL     OW44210   7.967   1.638  10.561
14126SOL    HW144211   8.045   1.626  10.615
14126SOL    HW244212   7.901   1.580  10.600
14127SOL     OW44213  10.037   2.954   7.847
14127SOL    HW144214   9.988   3.011   7.907
14127SOL    HW244215  10.104   2.914   7.903
14128SOL     OW44216  14.200   3.597   2.995
14128SOL    HW144217  14.139   3.535   3.035
14128SOL    HW244218  14.166   3.612   2.907
14129SOL     OW44219   2.298   9.591   7.020
14129SOL    HW144220   2.323   9.683   7.026
14129SOL    HW244221   2.356   9.554   6.954
14130SOL     OW44222   3.332   7.174   6.367
14130SOL    HW144223   3.411   7.218   6.333
14130SOL    HW244224   3.261   7.234   6.346
14131SOL     OW44225  11.051   1.112  13.092
14131SOL    HW144226  10.987   1.078  13.155
14131SOL    HW244227  11.110   1.165  13.145
14132SOL     OW44228   5.464   4.503   7.502
14132SOL    HW144229   5.505   4.583   7.470
14132SOL    HW244230   5.413   4.471   7.428
14133SOL     OW44231  13.150   8.567   6.983
14133SOL    HW144232  13.122   8.583   6.893
14133SOL    HW244233  13.227   8.623   6.994
14134SOL     OW44234   5.835   0.276   9.906
14134SOL    HW144235   5.752   0.325   9.907
14134SOL    HW244236   5.865   0.278   9.996
14135SOL     OW44237   0.904   4.055   9.686
14135SOL    HW144238   0.949   4.065   9.602
14135SOL    HW244239   0.931   3.969   9.718
14136SOL     OW44240   2.272   1.525   0.417
14136SOL    HW144241   2.267   1.581   0.340
14136SOL    HW244242   2.185   1.485   0.424
14137SOL     OW44243   3.386   2.816   2.695
14137SOL    HW144244   3.475   2.783   2.686
14137SOL    HW244245   3.342   2.788   2.615
14138SOL     OW44246  13.502  12.204   9.837
14138SOL    HW144247  13.452  12.146   9.894
14138SOL    HW244248  13.565  12.246   9.895
14139SOL     OW44249   5.557  10.369   0.430
14139SOL    HW144250   5.584  10.285   0.466
14139SOL    HW244251   5.633  10.427   0.444
14140SOL     OW44252   4.682  10.740  14.353
14140SOL    HW144253   4.634  10.682  14.412
14140SOL    HW244254   4.641  10.826  14.367
14141SOL     OW44255   1.504   9.330   5.341
14141SOL    HW144256   1.471   9.373   5.262
14141SOL    HW244257   1.575   9.273   5.310
14142SOL     OW44258  14.232   9.077   0.165
14142SOL    HW144259  14.202   8.995   0.125
14142SOL    HW244260  14.160   9.138   0.151
14143SOL     OW44261   2.630  11.847   9.423
14143SOL    HW144262   2.663  11.930   9.389
14143SOL    HW244263   2.538  11.845   9.397
14144SOL     OW44264  13.068   6.188   2.718
14144SOL    HW144265  13.112   6.104   2.711
14144SOL    HW244266  13.134   6.252   2.690
14145SOL     OW44267   6.132   5.937   3.456
14145SOL    HW144268   6.091   6.020   3.483
14145SOL    HW244269   6.067   5.895   3.400
14146SOL     OW44270   1.582  10.273   8.529
14146SOL    HW144271   1.643  10.289   8.601
14146SOL    HW244272   1.496  10.265   8.571
14147SOL     OW44273   8.400  11.341  13.786
14147SOL    HW144274   8.489  11.363  13.815
14147SOL    HW244275   8.365  11.286  13.855
14148SOL     OW44276   5.821  10.684   0.189
14148SOL    HW144277   5.839  10.664   0.281
14148SOL    HW244278   5.798  10.599   0.150
14149SOL     OW44279   7.894   0.166   1.733
14149SOL    HW144280   7.908   0.254   1.770
14149SOL    HW244281   7.928   0.107   1.800
14150SOL     OW44282  10.788   9.560  10.383
14150SOL    HW144283  10.740   9.641  10.398
14150SOL    HW244284  10.741   9.517  10.312
14151SOL     OW44285  11.345  13.091   4.384
14151SOL    HW144286  11.305  13.068   4.468
14151SOL    HW244287  11.386  13.176   4.400
14152SOL     OW44288   9.097   8.060   6.775
14152SOL    HW144289   9.180   8.044   6.819
14152SOL    HW244290   9.047   7.979   6.786
14153SOL     OW44291   2.945  10.261   9.825
14153SOL    HW144292   2.913  10.221   9.744
14153SOL    HW244293   2.891  10.339   9.835
14154SOL     OW44294   1.988  12.300  14.613
14154SOL    HW144295   1.895  12.292  14.634
14154SOL    HW244296   2.016  12.211  14.591
14155SOL     OW44297  13.513   8.615  14.567
14155SOL    HW144298  13.602   8.588  14.544
14155SOL    HW244299  13.511   8.613  14.662
14156SOL     OW44300   7.508  14.046   0.405
14156SOL    HW144301   7.521  14.102   0.482
14156SOL    HW244302   7.589  13.996   0.398
14157SOL     OW44303  13.413   0.129  12.103
14157SOL    HW144304  13.442   0.214  12.138
14157SOL    HW244305  13.424   0.068  12.176
14158SOL     OW44306  14.213   6.525   6.947
14158SOL    HW144307  14.138   6.529   7.006
14158SOL    HW244308  14.272   6.461   6.987
14159SOL     OW44309   8.185   7.270   4.618
14159SOL    HW144310   8.256   7.260   4.682
14159SOL    HW244311   8.108   7.289   4.671
14160SOL     OW44312  12.476   1.110  10.510
14160SOL    HW144313  12.569   1.091  10.521
14160SOL    HW244314  12.433   1.025  10.517
14161SOL     OW44315  10.124  12.466   2.387
14161SOL    HW144316  10.043  12.423   2.358
14161SOL    HW244317  10.101  12.505   2.472
14162SOL     OW44318   8.145   7.220  10.251
14162SOL    HW144319   8.099   7.151  10.298
14162SOL    HW244320   8.104   7.222  10.164
14163SOL     OW44321  10.985   8.850   5.046
14163SOL    HW144322  10.900   8.807   5.036
14163SOL    HW244323  11.007   8.880   4.957
14164SOL     OW44324  10.663  14.630  11.204
14164SOL    HW144325  10.655  14.562  11.137
14164SOL    HW244326  10.725  14.693  11.168
14165SOL     OW44327   6.083   9.545   9.256
14165SOL    HW144328   6.043   9.563   9.341
14165SOL    HW244329   6.169   9.587   9.261
14166SOL     OW44330   9.681   2.807   6.247
14166SOL    HW144331   9.755   2.826   6.188
14166SOL    HW244332   9.696   2.717   6.276
14167SOL     OW44333   0.873  12.587   7.580
14167SOL    HW144334   0.895  12.494   7.593
14167SOL    HW244335   0.836  12.591   7.492
14168SOL     OW44336  12.648   9.438   2.235
14168SOL    HW144337  12.692   9.454   2.319
14168SOL    HW244338  12.705   9.378   2.188
14169SOL     OW44339  12.731   5.983   2.745
14169SOL    HW144340  12.760   6.033   2.668
14169SOL    HW244341  12.747   5.892   2.722
14170SOL     OW44342   9.326   1.376   1.173
14170SOL    HW144343   9.303   1.297   1.221
14170SOL    HW244344   9.420   1.368   1.156
14171SOL     OW44345   6.774   7.142   3.068
14171SOL    HW144346   6.752   7.235   3.077
14171SOL    HW244347   6.727   7.100   3.140
14172SOL     OW44348  13.464   4.430   2.075
14172SOL    HW144349  13.427   4.458   1.992
14172SOL    HW244350  13.469   4.510   2.128
14173SOL     OW44351  11.571  11.434   3.455
14173SOL    HW144352  11.510  11.505   3.476
14173SOL    HW244353  11.646  11.477   3.414
14174SOL     OW44354  11.382  12.658   0.594
14174SOL    HW144355  11.342  12.659   0.681
14174SOL    HW244356  11.315  12.617   0.538
14175SOL     OW44357   4.546  13.474  11.861
14175SOL    HW144358   4.503  13.415  11.798
14175SOL    HW244359   4.556  13.421  11.940
14176SOL     OW44360  12.576  12.708  11.405
14176SOL    HW144361  12.646  12.707  11.340
14176SOL    HW244362  12.587  12.626  11.453
14177SOL     OW44363  12.395  13.834   3.372
14177SOL    HW144364  12.368  13.759   3.425
14177SOL    HW244365  12.471  13.802   3.323
14178SOL     OW44366   5.355   2.927   1.411
14178SOL    HW144367   5.303   2.847   1.405
14178SOL    HW244368   5.339   2.973   1.329
14179SOL     OW44369  14.049   0.592  11.642
14179SOL    HW144370  14.113   0.659  11.620
14179SOL    HW244371  13.965   0.631  11.620
14180SOL     OW44372   3.143   4.238   5.490
14180SOL    HW144373   3.237   4.248   5.502
14180SOL    HW244374   3.104   4.278   5.568
14181SOL     OW44375   4.016   0.015  11.992
14181SOL    HW144376   3.992   0.083  12.054
14181SOL    HW244377   4.018  14.813  12.045
14182SOL     OW44378   7.731   4.871   5.184
14182SOL    HW144379   7.656   4.816   5.208
14182SOL    HW244380   7.781   4.880   5.265
14183SOL     OW44381   2.718  13.539   4.716
14183SOL    HW144382   2.749  13.626   4.738
14183SOL    HW244383   2.623  13.547   4.711
14184SOL     OW44384   3.517   8.907   3.495
14184SOL    HW144385   3.585   8.955   3.542
14184SOL    HW244386   3.558   8.824   3.472
14185SOL     OW44387   0.921  13.093   7.887
14185SOL    HW144388   0.887  13.070   7.801
14185SOL    HW244389   0.886  13.027   7.946
14186SOL     OW44390   0.895   7.847  11.913
14186SOL    HW144391   0.863   7.814  11.829
14186SOL    HW244392   0.937   7.771  11.954
14187SOL     OW44393   6.741   4.161   8.007
14187SOL    HW144394   6.831   4.190   8.023
14187SOL    HW244395   6.700   4.159   8.094
14188SOL     OW44396  11.139  10.454  12.983
14188SOL    HW144397  11.117  10.479  13.072
14188SOL    HW244398  11.125  10.360  12.979
14189SOL     OW44399   1.765   0.781  13.148
14189SOL    HW144400   1.774   0.693  13.111
14189SOL    HW244401   1.701   0.771  13.218
14190SOL     OW44402   2.850   5.730   7.649
14190SOL    HW144403   2.854   5.806   7.591
14190SOL    HW244404   2.940   5.715   7.676
14191SOL     OW44405   4.945   2.321  13.857
14191SOL    HW144406   4.890   2.323  13.779
14191SOL    HW244407   4.883   2.317  13.930
14192SOL     OW44408   9.816   8.014  14.259
14192SOL    HW144409   9.789   8.085  14.318
14192SOL    HW244410   9.800   8.048  14.172
14193SOL     OW44411   5.373   9.647   7.587
14193SOL    HW144412   5.408   9.564   7.555
14193SOL    HW244413   5.339   9.627   7.674
14194SOL     OW44414   8.245   2.789   8.276
14194SOL    HW144415   8.298   2.823   8.203
14194SOL    HW244416   8.155   2.788   8.241
14195SOL     OW44417   0.716   3.961   3.027
14195SOL    HW144418   0.788   3.971   3.089
14195SOL    HW244419   0.638   3.953   3.081
14196SOL     OW44420   0.013   3.494   0.185
14196SOL    HW144421  14.857   3.510   0.273
14196SOL    HW244422   0.008   3.579   0.141
14197SOL     OW44423   1.265   5.578   8.099
14197SOL    HW144424   1.300   5.624   8.023
14197SOL    HW244425   1.254   5.488   8.069
14198SOL     OW44426   4.081   0.861  12.854
14198SOL    HW144427   4.113   0.834  12.941
14198SOL    HW244428   4.153   0.911  12.817
14199SOL     OW44429   0.082   3.227   3.394
14199SOL    HW144430   0.011   3.167   3.417
14199SOL    HW244431   0.133   3.180   3.328
14200SOL     OW44432  11.027   5.850   1.992
14200SOL    HW144433  11.113   5.818   1.964
14200SOL    HW244434  10.970   5.773   1.984
14201SOL     OW44435   5.473   0.204  11.349
14201SOL    HW144436   5.556   0.186  11.306
14201SOL    HW244437   5.479   0.296  11.375
14202SOL     OW44438  12.301   1.506   7.505
14202SOL    HW144439  12.286   1.558   7.427
14202SOL    HW244440  12.225   1.525   7.561
14203SOL     OW44441   7.301  13.171   5.558
14203SOL    HW144442   7.333  13.087   5.594
14203SOL    HW244443   7.380  13.225   5.553
14204SOL     OW44444   2.548   4.281  14.415
14204SOL    HW144445   2.641   4.263  14.399
14204SOL    HW244446   2.548   4.346  14.486
14205SOL     OW44447   7.385   2.907  10.511
14205SOL    HW144448   7.395   2.815  10.538
14205SOL    HW244449   7.409   2.908  10.419
14206SOL     OW44450   1.116  10.530   4.548
14206SOL    HW144451   1.178  10.568   4.486
14206SOL    HW244452   1.074  10.605   4.590
14207SOL     OW44453   0.689  11.006   2.898
14207SOL    HW144454   0.673  11.046   2.813
14207SOL    HW244455   0.709  10.915   2.878
14208SOL     OW44456  10.202   9.227   8.165
14208SOL    HW144457  10.142   9.193   8.232
14208SOL    HW244458  10.289   9.204   8.197
14209SOL     OW44459   7.077  14.070   0.618
14209SOL    HW144460   7.146  14.091   0.681
14209SOL    HW244461   7.115  14.001   0.563
14210SOL     OW44462   9.812   2.464   0.689
14210SOL    HW144463   9.757   2.517   0.631
14210SOL    HW244464   9.808   2.508   0.774
14211SOL     OW44465   2.379   5.653   2.913
14211SOL    HW144466   2.295   5.648   2.959
14211SOL    HW244467   2.357   5.685   2.826
14212SOL     OW44468   3.807   4.968   5.811
14212SOL    HW144469   3.715   4.977   5.787
14212SOL    HW244470   3.816   5.017   5.893
14213SOL     OW44471   2.388   7.133   7.639
14213SOL    HW144472   2.294   7.151   7.637
14213SOL    HW244473   2.396   7.046   7.599
14214SOL     OW44474   3.046  11.637   5.224
14214SOL    HW144475   3.133  11.651   5.262
14214SOL    HW244476   2.985  11.657   5.295
14215SOL     OW44477  14.619  13.452   6.994
14215SOL    HW144478  14.562  13.444   6.917
14215SOL    HW244479  14.682  13.519   6.970
14216SOL     OW44480   6.828   5.194   7.238
14216SOL    HW144481   6.815   5.101   7.222
14216SOL    HW244482   6.825   5.234   7.151
14217SOL     OW44483   3.801  11.904   1.544
14217SOL    HW144484   3.789  11.869   1.632
14217SOL    HW244485   3.865  11.845   1.503
14218SOL     OW44486   6.781   6.353   5.573
14218SOL    HW144487   6.871   6.321   5.566
14218SOL    HW244488   6.730   6.275   5.594
14219SOL     OW44489   3.967   6.849   7.389
14219SOL    HW144490   3.984   6.763   7.426
14219SOL    HW244491   4.019   6.851   7.309
14220SOL     OW44492  10.820  13.064   0.225
14220SOL    HW144493  10.816  13.000   0.155
14220SOL    HW244494  10.768  13.138   0.193
14221SOL     OW44495  11.553   7.601   3.532
14221SOL    HW144496  11.458   7.602   3.545
14221SOL    HW244497  11.565   7.620   3.439
14222SOL     OW44498  11.188   0.304  12.839
14222SOL    HW144499  11.154   0.367  12.775
14222SOL    HW244500  11.283   0.311  12.832
14223SOL     OW44501  11.511   4.971   2.431
14223SOL    HW144502  11.546   4.920   2.504
14223SOL    HW244503  11.456   5.038   2.472
14224SOL     OW44504   1.078   8.381  13.085
14224SOL    HW144505   1.044   8.293  13.072
14224SOL    HW244506   1.000   8.437  13.088
14225SOL     OW44507   6.492   9.762   3.413
14225SOL    HW144508   6.408   9.788   3.377
14225SOL    HW244509   6.525   9.695   3.353
14226SOL     OW44510  13.755   2.467   7.767
14226SOL    HW144511  13.845   2.461   7.735
14226SOL    HW244512  13.701   2.444   7.691
14227SOL     OW44513  13.142   6.194   6.403
14227SOL    HW144514  13.107   6.134   6.469
14227SOL    HW244515  13.096   6.171   6.322
14228SOL     OW44516  10.772   6.334   6.816
14228SOL    HW144517  10.827   6.266   6.857
14228SOL    HW244518  10.756   6.397   6.887
14229SOL     OW44519  14.246  13.148   0.397
14229SOL    HW144520  14.233  13.099   0.316
14229SOL    HW244521  14.330  13.117   0.431
14230SOL     OW44522   6.167   9.664   1.552
14230SOL    HW144523   6.073   9.666   1.534
14230SOL    HW244524   6.207   9.712   1.479
14231SOL     OW44525   1.504   0.031   3.441
14231SOL    HW144526   1.561  14.856   3.496
14231SOL    HW244527   1.552   0.113   3.430
14232SOL     OW44528   2.282  14.766   6.490
14232SOL    HW144529   2.358  14.792   6.543
14232SOL    HW244530   2.306  14.682   6.452
14233SOL     OW44531   5.098   8.929  14.047
14233SOL    HW144532   5.194   8.933  14.043
14233SOL    HW244533   5.072   9.017  14.073
14234SOL     OW44534  12.157   0.070   6.752
14234SOL    HW144535  12.210   0.137   6.797
14234SOL    HW244536  12.131   0.010   6.822
14235SOL     OW44537   2.894  10.335   7.151
14235SOL    HW144538   2.862  10.394   7.084
14235SOL    HW244539   2.989  10.337   7.142
14236SOL     OW44540   2.170  12.870   1.175
14236SOL    HW144541   2.110  12.819   1.229
14236SOL    HW244542   2.256  12.857   1.214
14237SOL     OW44543   2.812   9.710   1.475
14237SOL    HW144544   2.899   9.720   1.513
14237SOL    HW244545   2.757   9.771   1.524
14238SOL     OW44546  11.506   4.662   8.995
14238SOL    HW144547  11.431   4.722   8.994
14238SOL    HW244548  11.574   4.710   9.042
14239SOL     OW44549  14.208   2.010   6.165
14239SOL    HW144550  14.209   2.103   6.191
14239SOL    HW244551  14.229   2.011   6.072
14240SOL     OW44552   0.292   3.349  11.549
14240SOL    HW144553   0.340   3.313  11.475
14240SOL    HW244554   0.238   3.418  11.510
14241SOL     OW44555  14.612  14.129  10.780
14241SOL    HW144556  14.547  14.193  10.812
14241SOL    HW244557  14.690  14.181  10.762
14242SOL     OW44558  10.587   0.854   1.682
14242SOL    HW144559  10.526   0.900   1.625
14242SOL    HW244560  10.543   0.851   1.767
14243SOL     OW44561   0.860   2.644  14.690
14243SOL    HW144562   0.788   2.607  14.740
14243SOL    HW244563   0.824   2.723  14.650
14244SOL     OW44564  13.639  11.747   6.437
14244SOL    HW144565  13.680  11.812   6.380
14244SOL    HW244566  13.706  11.681   6.452
14245SOL     OW44567   8.606   6.083   2.150
14245SOL    HW144568   8.511   6.074   2.158
14245SOL    HW244569   8.624   6.072   2.057
14246SOL     OW44570  14.862  10.952   8.143
14246SOL    HW144571  14.840  10.905   8.062
14246SOL    HW244572  14.778  10.973   8.182
14247SOL     OW44573  10.620  10.685  11.278
14247SOL    HW144574  10.601  10.592  11.270
14247SOL    HW244575  10.537  10.725  11.305
14248SOL     OW44576  10.088  12.152  11.124
14248SOL    HW144577  10.134  12.206  11.060
14248SOL    HW244578  10.135  12.069  11.125
14249SOL     OW44579   2.326   2.502   8.516
14249SOL    HW144580   2.317   2.540   8.603
14249SOL    HW244581   2.389   2.430   8.527
14250SOL     OW44582   5.316  12.979   1.273
14250SOL    HW144583   5.242  13.020   1.229
14250SOL    HW244584   5.385  13.044   1.271
14251SOL     OW44585   1.471   2.574  14.413
14251SOL    HW144586   1.544   2.526  14.374
14251SOL    HW244587   1.437   2.514  14.480
14252SOL     OW44588   2.527   1.772   5.205
14252SOL    HW144589   2.437   1.774   5.172
14252SOL    HW244590   2.579   1.812   5.135
14253SOL     OW44591  11.706  12.624   0.684
14253SOL    HW144592  11.668  12.659   0.602
14253SOL    HW244593  11.700  12.697   0.745
14254SOL     OW44594   8.688   5.471   8.261
14254SOL    HW144595   8.636   5.393   8.279
14254SOL    HW244596   8.631   5.527   8.210
14255SOL     OW44597   3.492  12.397  10.264
14255SOL    HW144598   3.398  12.414  10.256
14255SOL    HW244599   3.498  12.302  10.273
14256SOL     OW44600   6.685   8.576   8.001
14256SOL    HW144601   6.651   8.487   7.988
14256SOL    HW244602   6.780   8.565   8.003
14257SOL     OW44603   3.387   0.984   1.989
14257SOL    HW144604   3.447   0.911   1.981
14257SOL    HW244605   3.442   1.058   2.016
14258SOL     OW44606  12.272  13.054  12.456
14258SOL    HW144607  12.335  13.023  12.391
14258SOL    HW244608  12.272  13.149  12.447
14259SOL     OW44609   9.029  12.459  10.407
14259SOL    HW144610   9.036  12.418  10.493
14259SOL    HW244611   9.116  12.494  10.390
14260SOL     OW44612  11.656   0.696   9.892
14260SOL    HW144613  11.687   0.649   9.814
14260SOL    HW244614  11.735   0.711   9.944
14261SOL     OW44615   1.486   2.762   2.626
14261SOL    HW144616   1.506   2.715   2.545
14261SOL    HW244617   1.550   2.729   2.689
14262SOL     OW44618   8.592   0.252  14.421
14262SOL    HW144619   8.618   0.342  14.401
14262SOL    HW244620   8.640   0.199  14.358
14263SOL     OW44621  13.077  10.569   4.844
14263SOL    HW144622  13.056  10.511   4.918
14263SOL    HW244623  13.172  10.579   4.848
14264SOL     OW44624   9.020  13.338   2.134
14264SOL    HW144625   9.116  13.332   2.129
14264SOL    HW244626   8.991  13.247   2.146
14265SOL     OW44627   4.799  11.736   5.338
14265SOL    HW144628   4.760  11.774   5.259
14265SOL    HW244629   4.824  11.647   5.312
14266SOL     OW44630   2.329  14.567  13.361
14266SOL    HW144631   2.326  14.491  13.420
14266SOL    HW244632   2.390  14.542  13.292
14267SOL     OW44633   2.663  13.920  12.617
14267SOL    HW144634   2.723  13.909  12.690
14267SOL    HW244635   2.712  13.888  12.541
14268SOL     OW44636  12.482   9.579  14.372
14268SOL    HW144637  12.504   9.623  14.290
14268SOL    HW244638  12.470   9.650  14.435
14269SOL     OW44639  14.731   1.897   4.939
14269SOL    HW144640  14.814   1.861   4.909
14269SOL    HW244641  14.669   1.878   4.868
14270SOL     OW44642   5.634  12.407  10.875
14270SOL    HW144643   5.635  12.318  10.912
14270SOL    HW244644   5.618  12.394  10.782
14271SOL     OW44645  11.923   3.147   1.929
14271SOL    HW144646  11.877   3.223   1.965
14271SOL    HW244647  11.880   3.072   1.969
14272SOL     OW44648   3.282   9.569   0.522
14272SOL    HW144649   3.312   9.486   0.560
14272SOL    HW244650   3.200   9.588   0.567
14273SOL     OW44651  13.422  10.774   5.214
14273SOL    HW144652  13.479  10.711   5.171
14273SOL    HW244653  13.455  10.859   5.186
14274SOL     OW44654   8.626   9.509  10.072
14274SOL    HW144655   8.603   9.568  10.144
14274SOL    HW244656   8.542   9.476  10.040
14275SOL     OW44657  11.216   4.052   1.782
14275SOL    HW144658  11.185   4.143   1.783
14275SOL    HW244659  11.212   4.024   1.874
14276SOL     OW44660   7.773   0.736   2.642
14276SOL    HW144661   7.690   0.706   2.606
14276SOL    HW244662   7.811   0.659   2.683
14277SOL     OW44663   2.431  13.767   3.900
14277SOL    HW144664   2.384  13.850   3.900
14277SOL    HW244665   2.430  13.738   3.809
14278SOL     OW44666   4.001   6.708  14.027
14278SOL    HW144667   3.923   6.746  13.987
14278SOL    HW244668   4.036   6.779  14.082
14279SOL     OW44669   9.955   2.010   3.460
14279SOL    HW144670   9.996   2.091   3.429
14279SOL    HW244671   9.866   2.035   3.482
14280SOL     OW44672  13.382   5.763   6.893
14280SOL    HW144673  13.333   5.747   6.812
14280SOL    HW244674  13.474   5.754   6.868
14281SOL     OW44675  12.985   2.950   8.522
14281SOL    HW144676  12.915   2.993   8.472
14281SOL    HW244677  13.009   3.014   8.588
14282SOL     OW44678   4.757   2.257   7.638
14282SOL    HW144679   4.683   2.242   7.580
14282SOL    HW244680   4.804   2.173   7.639
14283SOL     OW44681   3.052   9.378   3.199
14283SOL    HW144682   3.062   9.323   3.276
14283SOL    HW244683   3.081   9.465   3.228
14284SOL     OW44684   4.290   7.500   7.670
14284SOL    HW144685   4.286   7.405   7.660
14284SOL    HW244686   4.383   7.521   7.665
14285SOL     OW44687   1.842   7.644   0.344
14285SOL    HW144688   1.925   7.683   0.371
14285SOL    HW244689   1.792   7.634   0.424
14286SOL     OW44690   5.060   7.623   3.060
14286SOL    HW144691   5.057   7.614   3.156
14286SOL    HW244692   4.979   7.583   3.030
14287SOL     OW44693   0.446   2.305  14.820
14287SOL    HW144694   0.355   2.275  14.826
14287SOL    HW244695   0.447   2.388  14.868
14288SOL     OW44696  12.220   5.723  14.326
14288SOL    HW144697  12.315   5.726  14.311
14288SOL    HW244698  12.211   5.739  14.420
14289SOL     OW44699   4.655   2.515   8.471
14289SOL    HW144700   4.657   2.609   8.457
14289SOL    HW244701   4.675   2.477   8.386
14290SOL     OW44702  14.719   5.225   1.387
14290SOL    HW144703  14.747   5.134   1.390
14290SOL    HW244704  14.624   5.221   1.384
14291SOL     OW44705   1.719   0.534  12.747
14291SOL    HW144706   1.753   0.572  12.666
14291SOL    HW244707   1.732   0.440  12.736
14292SOL     OW44708   0.350   4.833   1.697
14292SOL    HW144709   0.388   4.823   1.784
14292SOL    HW244710   0.259   4.856   1.712
14293SOL     OW44711   5.094  11.826  12.090
14293SOL    HW144712   5.024  11.766  12.064
14293SOL    HW244713   5.066  11.911  12.053
14294SOL     OW44714   3.961  10.829   5.045
14294SOL    HW144715   3.870  10.804   5.053
14294SOL    HW244716   3.965  10.918   5.081
14295SOL     OW44717   4.446   7.113   5.566
14295SOL    HW144718   4.355   7.145   5.568
14295SOL    HW244719   4.489   7.157   5.639
14296SOL     OW44720   3.434   7.920  13.484
14296SOL    HW144721   3.501   7.951  13.546
14296SOL    HW244722   3.371   7.991  13.479
14297SOL     OW44723  14.031  14.733   6.916
14297SOL    HW144724  14.069  14.659   6.869
14297SOL    HW244725  14.106  14.784   6.946
14298SOL     OW44726   8.521  10.474   0.791
14298SOL    HW144727   8.614  10.483   0.812
14298SOL    HW244728   8.480  10.550   0.833
14299SOL     OW44729  10.264  14.844  13.182
14299SOL    HW144730  10.186  14.871  13.134
14299SOL    HW244731  10.232  14.783  13.249
14300SOL     OW44732   4.075  14.347   7.145
14300SOL    HW144733   4.032  14.375   7.064
14300SOL    HW244734   4.151  14.297   7.115
14301SOL     OW44735  13.716   2.313  12.965
14301SOL    HW144736  13.756   2.267  12.891
14301SOL    HW244737  13.746   2.266  13.042
14302SOL     OW44738   3.795   7.137   1.651
14302SOL    HW144739   3.839   7.054   1.630
14302SOL    HW244740   3.863   7.203   1.642
14303SOL     OW44741   0.305   4.037  12.713
14303SOL    HW144742   0.389   4.076  12.738
14303SOL    HW244743   0.308   4.031  12.618
14304SOL     OW44744   1.189  12.397   1.572
14304SOL    HW144745   1.099  12.425   1.587
14304SOL    HW244746   1.240  12.443   1.638
14305SOL     OW44747   6.272   5.616   4.603
14305SOL    HW144748   6.336   5.553   4.637
14305SOL    HW244749   6.190   5.567   4.597
14306SOL     OW44750   2.033  10.121   3.515
14306SOL    HW144751   2.005  10.031   3.496
14306SOL    HW244752   2.013  10.170   3.435
14307SOL     OW44753   5.209  10.218  11.273
14307SOL    HW144754   5.143  10.180  11.331
14307SOL    HW244755   5.191  10.180  11.187
14308SOL     OW44756   1.157   0.583   3.063
14308SOL    HW144757   1.103   0.510   3.032
14308SOL    HW244758   1.232   0.585   3.004
14309SOL     OW44759   6.327   5.494   3.055
14309SOL    HW144760   6.333   5.540   3.138
14309SOL    HW244761   6.301   5.561   2.992
14310SOL     OW44762  13.323   2.577   4.538
14310SOL    HW144763  13.359   2.547   4.622
14310SOL    HW244764  13.275   2.502   4.504
14311SOL     OW44765   5.798  11.132  12.538
14311SOL    HW144766   5.822  11.203  12.478
14311SOL    HW244767   5.722  11.164  12.585
14312SOL     OW44768   0.221   6.493  10.039
14312SOL    HW144769   0.310   6.487  10.072
14312SOL    HW244770   0.170   6.524  10.115
14313SOL     OW44771   7.960   1.532   0.183
14313SOL    HW144772   8.032   1.593   0.199
14313SOL    HW244773   7.974   1.461   0.246
14314SOL     OW44774   5.805  14.427   5.186
14314SOL    HW144775   5.806  14.397   5.095
14314SOL    HW244776   5.883  14.483   5.194
14315SOL     OW44777  13.739  14.054  14.655
14315SOL    HW144778  13.712  13.962  14.653
14315SOL    HW244779  13.783  14.064  14.739
14316SOL     OW44780  11.625   1.138  12.923
14316SOL    HW144781  11.643   1.092  13.005
14316SOL    HW244782  11.709   1.177  12.898
14317SOL     OW44783   3.198   4.706   0.265
14317SOL    HW144784   3.265   4.662   0.213
14317SOL    HW244785   3.208   4.799   0.243
14318SOL     OW44786  10.334   3.495  13.008
14318SOL    HW144787  10.425   3.479  12.983
14318SOL    HW244788  10.284   3.429  12.961
14319SOL     OW44789   0.899   0.206   1.098
14319SOL    HW144790   0.881   0.118   1.065
14319SOL    HW244791   0.918   0.258   1.020
14320SOL     OW44792   5.982   3.296   8.385
14320SOL    HW144793   5.890   3.323   8.390
14320SOL    HW244794   6.013   3.329   8.301
14321SOL     OW44795   7.355   3.583  12.037
14321SOL    HW144796   7.397   3.500  12.059
14321SOL    HW244797   7.362   3.635  12.117
14322SOL     OW44798  13.175  12.134   3.833
14322SOL    HW144799  13.104  12.153   3.895
14322SOL    HW244800  13.144  12.168   3.749
14323SOL     OW44801   3.071  11.648   7.428
14323SOL    HW144802   3.004  11.694   7.480
14323SOL    HW244803   3.154  11.678   7.463
14324SOL     OW44804   6.897   6.504   4.646
14324SOL    HW144805   6.962   6.466   4.587
14324SOL    HW244806   6.949   6.554   4.710
14325SOL     OW44807   4.527   6.457   9.679
14325SOL    HW144808   4.494   6.458   9.589
14325SOL    HW244809   4.594   6.525   9.680
14326SOL     OW44810  11.923   8.599  10.503
14326SOL    HW144811  11.997   8.631  10.452
14326SOL    HW244812  11.851   8.589  10.440
14327SOL     OW44813   5.454   6.557   7.168
14327SOL    HW144814   5.458   6.600   7.083
14327SOL    HW244815   5.376   6.502   7.164
14328SOL     OW44816   9.462  10.669  14.265
14328SOL    HW144817   9.392  10.729  14.290
14328SOL    HW244818   9.519  10.720  14.207
14329SOL     OW44819   4.587   2.291   2.985
14329SOL    HW144820   4.625   2.227   2.925
14329SOL    HW244821   4.502   2.312   2.948
14330SOL     OW44822   3.606   0.983   2.925
14330SOL    HW144823   3.667   0.958   2.995
14330SOL    HW244824   3.525   1.003   2.971
14331SOL     OW44825   3.220  11.577   2.200
14331SOL    HW144826   3.160  11.651   2.203
14331SOL    HW244827   3.170  11.503   2.234
14332SOL     OW44828  13.821  11.269   8.079
14332SOL    HW144829  13.804  11.355   8.040
14332SOL    HW244830  13.788  11.276   8.168
14333SOL     OW44831  12.790   3.827  11.321
14333SOL    HW144832  12.828   3.796  11.403
14333SOL    HW244833  12.729   3.757  11.295
14334SOL     OW44834  10.186   7.407   5.354
14334SOL    HW144835  10.205   7.405   5.261
14334SOL    HW244836  10.264   7.371   5.395
14335SOL     OW44837  10.925  12.725   1.186
14335SOL    HW144838  10.976  12.664   1.239
14335SOL    HW244839  10.889  12.671   1.115
14336SOL     OW44840   3.358  14.462   1.714
14336SOL    HW144841   3.401  14.407   1.648
14336SOL    HW244842   3.360  14.550   1.675
14337SOL     OW44843   2.230  10.708  14.853
14337SOL    HW144844   2.308  10.740  14.807
14337SOL    HW244845   2.254  10.711   0.067
14338SOL     OW44846   8.207  11.839   6.183
14338SOL    HW144847   8.122  11.803   6.156
14338SOL    HW244848   8.186  11.896   6.256
14339SOL     OW44849   8.632   8.845   5.664
14339SOL    HW144850   8.651   8.881   5.578
14339SOL    HW244851   8.651   8.916   5.725
14340SOL     OW44852  14.601   4.188  10.501
14340SOL    HW144853  14.531   4.132  10.534
14340SOL    HW244854  14.577   4.277  10.527
14341SOL     OW44855   5.677   0.680   7.004
14341SOL    HW144856   5.654   0.618   7.073
14341SOL    HW244857   5.760   0.647   6.969
14342SOL     OW44858  14.812  14.009  12.320
14342SOL    HW144859   0.007  14.058  12.284
14342SOL    HW244860  14.808  13.928  12.269
14343SOL     OW44861   7.785   6.236   4.457
14343SOL    HW144862   7.766   6.293   4.532
14343SOL    HW244863   7.781   6.294   4.381
14344SOL     OW44864  14.014   5.172  13.792
14344SOL    HW144865  14.034   5.080  13.770
14344SOL    HW244866  14.091   5.220  13.761
14345SOL     OW44867  14.280  10.743  13.733
14345SOL    HW144868  14.202  10.691  13.714
14345SOL    HW244869  14.318  10.760  13.647
14346SOL     OW44870  14.417  10.036   9.268
14346SOL    HW144871  14.328  10.048   9.237
14346SOL    HW244872  14.417   9.950   9.310
14347SOL     OW44873   0.801  10.835   9.997
14347SOL    HW144874   0.729  10.877  10.044
14347SOL    HW244875   0.778  10.844   9.905
14348SOL     OW44876   2.442   6.172   5.945
14348SOL    HW144877   2.522   6.183   5.894
14348SOL    HW244878   2.431   6.077   5.951
14349SOL     OW44879   9.795   1.472   8.420
14349SOL    HW144880   9.752   1.458   8.505
14349SOL    HW244881   9.856   1.399   8.412
14350SOL     OW44882  12.086   4.437   9.422
14350SOL    HW144883  12.166   4.477   9.456
14350SOL    HW244884  12.109   4.408   9.333
14351SOL     OW44885  14.135  11.464   7.558
14351SOL    HW144886  14.169  11.544   7.597
14351SOL    HW244887  14.211  11.407   7.548
14352SOL     OW44888   9.154   7.578  11.385
14352SOL    HW144889   9.247   7.586  11.363
14352SOL    HW244890   9.151   7.587  11.480
14353SOL     OW44891   2.046   6.828  14.771
14353SOL    HW144892   2.113   6.795  14.711
14353SOL    HW244893   2.014   6.750  14.816
14354SOL     OW44894   0.053   8.939   1.788
14354SOL    HW144895   0.120   8.944   1.856
14354SOL    HW244896  14.852   8.914   1.835
14355SOL     OW44897   3.056  11.316  10.398
14355SOL    HW144898   3.054  11.391  10.458
14355SOL    HW244899   3.052  11.239  10.455
14356SOL     OW44900  12.218   3.625  11.304
14356SOL    HW144901  12.148   3.687  11.284
14356SOL    HW244902  12.260   3.660  11.383
14357SOL     OW44903   6.162  13.408   4.535
14357SOL    HW144904   6.195  13.318   4.545
14357SOL    HW244905   6.094  13.401   4.468
14358SOL     OW44906  13.344   5.510   4.926
14358SOL    HW144907  13.319   5.432   4.976
14358SOL    HW244908  13.434   5.493   4.899
14359SOL     OW44909   4.827   8.126  11.968
14359SOL    HW144910   4.915   8.115  12.004
14359SOL    HW244911   4.839   8.179  11.890
14360SOL     OW44912   0.598   6.626  10.409
14360SOL    HW144913   0.596   6.709  10.457
14360SOL    HW244914   0.515   6.584  10.430
14361SOL     OW44915   3.154   5.979   2.393
14361SOL    HW144916   3.240   5.990   2.435
14361SOL    HW244917   3.104   5.926   2.455
14362SOL     OW44918   6.155   5.661   0.706
14362SOL    HW144919   6.065   5.632   0.724
14362SOL    HW244920   6.207   5.618   0.774
14363SOL     OW44921   2.058   1.870  11.522
14363SOL    HW144922   2.130   1.816  11.488
14363SOL    HW244923   2.095   1.911  11.601
14364SOL     OW44924   8.465  14.137   2.037
14364SOL    HW144925   8.555  14.106   2.032
14364SOL    HW244926   8.427  14.113   1.952
14365SOL     OW44927   3.670   7.753   2.361
14365SOL    HW144928   3.584   7.795   2.368
14365SOL    HW244929   3.710   7.767   2.447
14366SOL     OW44930   4.056   2.347  13.130
14366SOL    HW144931   4.004   2.275  13.094
14366SOL    HW244932   4.133   2.352  13.073
14367SOL     OW44933  10.274   0.272   3.802
14367SOL    HW144934  10.314   0.357   3.817
14367SOL    HW244935  10.236   0.278   3.715
14368SOL     OW44936   9.629  13.290   5.650
14368SOL    HW144937   9.711  13.315   5.606
14368SOL    HW244938   9.605  13.207   5.609
14369SOL     OW44939   7.336   9.152   1.101
14369SOL    HW144940   7.351   9.185   1.190
14369SOL    HW244941   7.415   9.102   1.081
14370SOL     OW44942   1.999  13.427   1.009
14370SOL    HW144943   1.995  13.346   0.958
14370SOL    HW244944   1.976  13.496   0.946
14371SOL     OW44945   0.254   5.702  13.136
14371SOL    HW144946   0.320   5.696  13.205
14371SOL    HW244947   0.261   5.618  13.089
14372SOL     OW44948   9.080   6.040   0.811
14372SOL    HW144949   9.039   6.126   0.801
14372SOL    HW244950   9.172   6.059   0.827
14373SOL     OW44951  14.309  13.775   4.829
14373SOL    HW144952  14.363  13.739   4.759
14373SOL    HW244953  14.320  13.714   4.902
14374SOL     OW44954   3.492   4.654  14.324
14374SOL    HW144955   3.510   4.690  14.411
14374SOL    HW244956   3.476   4.731  14.269
14375SOL     OW44957   2.212  12.479   4.164
14375SOL    HW144958   2.281  12.425   4.124
14375SOL    HW244959   2.162  12.417   4.218
14376SOL     OW44960   7.974   0.091   7.464
14376SOL    HW144961   8.026   0.096   7.545
14376SOL    HW244962   7.883   0.098   7.493
14377SOL     OW44963   4.876   4.572   9.245
14377SOL    HW144964   4.914   4.606   9.326
14377SOL    HW244965   4.913   4.485   9.235
14378SOL     OW44966   8.520  13.635   0.913
14378SOL    HW144967   8.440  13.597   0.950
14378SOL    HW244968   8.490  13.683   0.836
14379SOL     OW44969   0.441   8.865   3.919
14379SOL    HW144970   0.493   8.785   3.926
14379SOL    HW244971   0.427   8.893   4.009
14380SOL     OW44972   9.858   5.470  10.446
14380SOL    HW144973   9.853   5.375  10.461
14380SOL    HW244974   9.922   5.480  10.375
14381SOL     OW44975  14.353   8.406   4.654
14381SOL    HW144976  14.303   8.354   4.717
14381SOL    HW244977  14.441   8.409   4.690
14382SOL     OW44978   0.725  10.524  12.876
14382SOL    HW144979   0.641  10.492  12.843
14382SOL    HW244980   0.790  10.475  12.827
14383SOL     OW44981   2.907   5.971   3.193
14383SOL    HW144982   3.000   5.993   3.196
14383SOL    HW244983   2.866   6.031   3.256
14384SOL     OW44984  11.542   8.728  10.460
14384SOL    HW144985  11.537   8.715  10.555
14384SOL    HW244986  11.562   8.642  10.424
14385SOL     OW44987  10.411  14.482   2.292
14385SOL    HW144988  10.318  14.497   2.309
14385SOL    HW244989  10.454  14.561   2.323
14386SOL     OW44990   7.064  13.416   3.176
14386SOL    HW144991   7.066  13.352   3.105
14386SOL    HW244992   7.136  13.476   3.156
14387SOL     OW44993  10.412   2.511  14.725
14387SOL    HW144994  10.395   2.543  14.814
14387SOL    HW244995  10.500   2.473  14.730
14388SOL     OW44996  12.305  13.845   7.293
14388SOL    HW144997  12.264  13.900   7.359
14388SOL    HW244998  12.274  13.756   7.313
14389SOL     OW44999  14.573   7.866  11.672
14389SOL    HW145000  14.614   7.925  11.609
14389SOL    HW245001  14.644   7.811  11.704
14390SOL     OW45002  14.594   2.928   1.883
14390SOL    HW145003  14.531   2.992   1.850
14390SOL    HW245004  14.670   2.981   1.907
14391SOL     OW45005   7.168   8.712  13.982
14391SOL    HW145006   7.111   8.780  14.016
14391SOL    HW245007   7.182   8.735  13.890
14392SOL     OW45008   0.540   3.345  13.727
14392SOL    HW145009   0.573   3.431  13.701
14392SOL    HW245010   0.469   3.364  13.789
14393SOL     OW45011   3.730  11.328   7.487
14393SOL    HW145012   3.802  11.373   7.530
14393SOL    HW245013   3.772  11.275   7.419
14394SOL     OW45014   4.636   0.251   5.351
14394SOL    HW145015   4.666   0.161   5.350
14394SOL    HW245016   4.711   0.302   5.320
14395SOL     OW45017   4.487   0.685   3.673
14395SOL    HW145018   4.527   0.747   3.612
14395SOL    HW245019   4.471   0.607   3.620
14396SOL     OW45020   9.506   1.533   5.536
14396SOL    HW145021   9.415   1.533   5.504
14396SOL    HW245022   9.557   1.566   5.462
14397SOL     OW45023   6.507   0.638   1.050
14397SOL    HW145024   6.512   0.733   1.053
14397SOL    HW245025   6.463   0.613   1.132
14398SOL     OW45026   5.158   7.429  11.851
14398SOL    HW145027   5.068   7.433  11.819
14398SOL    HW245028   5.152   7.377  11.932
14399SOL     OW45029   1.377   5.649   7.386
14399SOL    HW145030   1.427   5.723   7.351
14399SOL    HW245031   1.318   5.625   7.314
14400SOL     OW45032  11.091   3.991   4.888
14400SOL    HW145033  11.067   4.009   4.979
14400SOL    HW245034  11.024   4.035   4.836
14401SOL     OW45035   3.066  12.274   1.498
14401SOL    HW145036   3.041  12.188   1.529
14401SOL    HW245037   2.994  12.331   1.524
14402SOL     OW45038   2.085   9.439   9.088
14402SOL    HW145039   2.066   9.530   9.067
14402SOL    HW245040   2.090   9.437   9.184
14403SOL     OW45041  12.950  13.231  10.015
14403SOL    HW145042  12.855  13.228  10.009
14403SOL    HW245043  12.969  13.292  10.086
14404SOL     OW45044   9.283   5.371   2.871
14404SOL    HW145045   9.254   5.456   2.904
14404SOL    HW245046   9.373   5.362   2.903
14405SOL     OW45047   1.755  12.908   4.215
14405SOL    HW145048   1.670  12.950   4.203
14405SOL    HW245049   1.736  12.815   4.215
14406SOL     OW45050  14.326   5.286   5.688
14406SOL    HW145051  14.392   5.346   5.653
14406SOL    HW245052  14.375   5.227   5.745
14407SOL     OW45053   3.786   5.491  14.542
14407SOL    HW145054   3.849   5.560  14.523
14407SOL    HW245055   3.704   5.537  14.557
14408SOL     OW45056  10.763   1.475  14.795
14408SOL    HW145057  10.729   1.399  14.842
14408SOL    HW245058  10.839   1.503  14.845
14409SOL     OW45059   7.350  12.340   5.527
14409SOL    HW145060   7.292  12.314   5.598
14409SOL    HW245061   7.419  12.274   5.527
14410SOL     OW45062   7.270   5.043  10.273
14410SOL    HW145063   7.277   4.965  10.218
14410SOL    HW245064   7.236   5.011  10.356
14411SOL     OW45065   4.907  11.854   4.042
14411SOL    HW145066   4.820  11.882   4.015
14411SOL    HW245067   4.967  11.907   3.991
14412SOL     OW45068   3.686   1.087  10.613
14412SOL    HW145069   3.717   1.153  10.675
14412SOL    HW245070   3.655   1.138  10.538
14413SOL     OW45071  10.115   3.198   8.392
14413SOL    HW145072  10.095   3.236   8.478
14413SOL    HW245073  10.211   3.198   8.389
14414SOL     OW45074  10.995   6.901  11.391
14414SOL    HW145075  10.910   6.914  11.348
14414SOL    HW245076  11.028   6.819  11.353
14415SOL     OW45077  14.054   3.776   6.370
14415SOL    HW145078  14.077   3.759   6.279
14415SOL    HW245079  14.107   3.714   6.421
14416SOL     OW45080   8.711   0.439   1.130
14416SOL    HW145081   8.736   0.347   1.138
14416SOL    HW245082   8.677   0.447   1.041
14417SOL     OW45083  11.424   8.592   9.235
14417SOL    HW145084  11.429   8.579   9.141
14417SOL    HW245085  11.343   8.547   9.261
14418SOL     OW45086  14.048   7.697   2.437
14418SOL    HW145087  14.050   7.755   2.513
14418SOL    HW245088  13.982   7.735   2.379
14419SOL     OW45089  14.302   0.471   6.446
14419SOL    HW145090  14.359   0.467   6.523
14419SOL    HW245091  14.282   0.564   6.436
14420SOL     OW45092   7.521   2.406  12.582
14420SOL    HW145093   7.511   2.397  12.677
14420SOL    HW245094   7.436   2.378  12.547
14421SOL     OW45095  14.198   1.376   9.105
14421SOL    HW145096  14.177   1.402   9.016
14421SOL    HW245097  14.243   1.452   9.142
14422SOL     OW45098   7.197  14.205   8.977
14422SOL    HW145099   7.183  14.114   9.004
14422SOL    HW245100   7.280  14.203   8.929
14423SOL     OW45101  12.400  11.384   1.910
14423SOL    HW145102  12.417  11.353   1.999
14423SOL    HW245103  12.463  11.336   1.856
14424SOL     OW45104  14.207   2.171   0.229
14424SOL    HW145105  14.128   2.212   0.263
14424SOL    HW245106  14.201   2.079   0.256
14425SOL     OW45107   9.194  10.677   1.554
14425SOL    HW145108   9.248  10.671   1.475
14425SOL    HW245109   9.225  10.605   1.609
14426SOL     OW45110   5.507  13.163   9.503
14426SOL    HW145111   5.577  13.097   9.496
14426SOL    HW245112   5.506  13.205   9.417
14427SOL     OW45113   8.816   9.716  10.698
14427SOL    HW145114   8.905   9.747  10.684
14427SOL    HW245115   8.768   9.743  10.620
14428SOL     OW45116   9.959   9.589   9.714
14428SOL    HW145117   9.972   9.536   9.635
14428SOL    HW245118  10.046   9.594   9.754
14429SOL     OW45119  13.806   6.377   9.448
14429SOL    HW145120  13.785   6.292   9.407
14429SOL    HW245121  13.858   6.423   9.382
14430SOL     OW45122  11.805   9.043   5.384
14430SOL    HW145123  11.775   8.966   5.431
14430SOL    HW245124  11.725   9.092   5.364
14431SOL     OW45125  13.754  12.969   9.435
14431SOL    HW145126  13.795  13.018   9.364
14431SOL    HW245127  13.824  12.914   9.470
14432SOL     OW45128  14.779   5.585  10.651
14432SOL    HW145129  14.827   5.633  10.583
14432SOL    HW245130  14.820   5.612  10.733
14433SOL     OW45131  13.007   1.704   7.093
14433SOL    HW145132  12.976   1.666   7.175
14433SOL    HW245133  13.045   1.788   7.118
14434SOL     OW45134   2.471  10.806   7.804
14434SOL    HW145135   2.563  10.834   7.808
14434SOL    HW245136   2.466  10.753   7.725
14435SOL     OW45137   3.513  10.886   2.680
14435SOL    HW145138   3.562  10.809   2.652
14435SOL    HW245139   3.424  10.870   2.649
14436SOL     OW45140   7.165   1.737  12.296
14436SOL    HW145141   7.150   1.813  12.240
14436SOL    HW245142   7.261   1.726  12.296
14437SOL     OW45143   3.077   9.064  12.535
14437SOL    HW145144   3.104   9.001  12.601
14437SOL    HW245145   3.143   9.133  12.537
14438SOL     OW45146   3.800   2.460  13.188
14438SOL    HW145147   3.884   2.416  13.182
14438SOL    HW245148   3.792   2.484  13.280
14439SOL     OW45149   1.631   4.600   4.619
14439SOL    HW145150   1.692   4.615   4.546
14439SOL    HW245151   1.587   4.518   4.597
14440SOL     OW45152  14.616  11.480   1.136
14440SOL    HW145153  14.658  11.400   1.106
14440SOL    HW245154  14.525  11.472   1.108
14441SOL     OW45155  13.074  10.797  11.281
14441SOL    HW145156  12.988  10.759  11.260
14441SOL    HW245157  13.060  10.843  11.364
14442SOL     OW45158   0.983   7.372   8.294
14442SOL    HW145159   0.997   7.429   8.218
14442SOL    HW245160   0.939   7.295   8.257
14443SOL     OW45161   2.051   6.585   6.635
14443SOL    HW145162   2.113   6.585   6.563
14443SOL    HW245163   1.965   6.596   6.593
14444SOL     OW45164   2.387   8.219   8.376
14444SOL    HW145165   2.393   8.256   8.288
14444SOL    HW245166   2.364   8.293   8.432
14445SOL     OW45167   3.446  11.673  10.150
14445SOL    HW145168   3.377  11.609  10.135
14445SOL    HW245169   3.498  11.636  10.222
14446SOL     OW45170   6.784   0.014   0.083
14446SOL    HW145171   6.816   0.045  14.878
14446SOL    HW245172   6.704   0.063   0.099
14447SOL     OW45173  11.804   4.038  11.690
14447SOL    HW145174  11.775   4.066  11.777
14447SOL    HW245175  11.800   3.943  11.692
14448SOL     OW45176  14.600   3.456   6.468
14448SOL    HW145177  14.571   3.428   6.382
14448SOL    HW245178  14.591   3.551   6.467
14449SOL     OW45179  13.033   3.169   1.153
14449SOL    HW145180  12.988   3.182   1.237
14449SOL    HW245181  13.078   3.252   1.137
14450SOL     OW45182   4.426   7.284  10.141
14450SOL    HW145183   4.428   7.210  10.200
14450SOL    HW245184   4.514   7.286  10.102
14451SOL     OW45185   1.512  10.647   9.685
14451SOL    HW145186   1.457  10.575   9.653
14451SOL    HW245187   1.600  10.610   9.689
14452SOL     OW45188   5.539  11.953   4.018
14452SOL    HW145189   5.586  11.899   4.081
14452SOL    HW245190   5.568  12.042   4.035
14453SOL     OW45191  12.493  13.211   3.067
14453SOL    HW145192  12.544  13.273   3.119
14453SOL    HW245193  12.558  13.170   3.010
14454SOL     OW45194   5.580   0.129   0.137
14454SOL    HW145195   5.569   0.086   0.222
14454SOL    HW245196   5.614   0.216   0.158
14455SOL     OW45197   3.995  13.543   1.941
14455SOL    HW145198   4.010  13.601   2.016
14455SOL    HW245199   4.081  13.533   1.901
14456SOL     OW45200   0.648   0.476  13.671
14456SOL    HW145201   0.566   0.521  13.690
14456SOL    HW245202   0.648   0.400  13.728
14457SOL     OW45203  12.827   1.425   2.588
14457SOL    HW145204  12.889   1.415   2.660
14457SOL    HW245205  12.882   1.426   2.509
14458SOL     OW45206  11.072  12.675  12.056
14458SOL    HW145207  11.091  12.685  11.962
14458SOL    HW245208  11.108  12.590  12.078
14459SOL     OW45209   6.972  12.292  12.620
14459SOL    HW145210   7.025  12.317  12.696
14459SOL    HW245211   6.982  12.197  12.615
14460SOL     OW45212   5.535   7.920   6.287
14460SOL    HW145213   5.585   7.843   6.315
14460SOL    HW245214   5.596   7.993   6.297
14461SOL     OW45215   0.858   2.570   1.532
14461SOL    HW145216   0.947   2.582   1.500
14461SOL    HW245217   0.805   2.626   1.476
14462SOL     OW45218  12.588  14.169   1.228
14462SOL    HW145219  12.555  14.107   1.293
14462SOL    HW245220  12.669  14.130   1.196
14463SOL     OW45221   4.683   3.135   7.247
14463SOL    HW145222   4.641   3.137   7.334
14463SOL    HW245223   4.758   3.076   7.258
14464SOL     OW45224  11.836  12.411  11.498
14464SOL    HW145225  11.815  12.327  11.539
14464SOL    HW245226  11.867  12.388  11.411
14465SOL     OW45227  10.360   7.064  10.294
14465SOL    HW145228  10.267   7.054  10.314
14465SOL    HW245229  10.369   7.154  10.263
14466SOL     OW45230   4.845  10.517  11.694
14466SOL    HW145231   4.802  10.444  11.649
14466SOL    HW245232   4.900  10.557  11.628
14467SOL     OW45233  11.107   3.628   6.922
14467SOL    HW145234  11.085   3.701   6.865
14467SOL    HW245235  11.197   3.606   6.898
14468SOL     OW45236  11.259  13.710   5.006
14468SOL    HW145237  11.311  13.666   5.073
14468SOL    HW245238  11.322  13.761   4.955
14469SOL     OW45239   3.842  11.010   4.283
14469SOL    HW145240   3.843  11.105   4.290
14469SOL    HW245241   3.870  10.979   4.370
14470SOL     OW45242  12.094  12.253   0.705
14470SOL    HW145243  12.066  12.190   0.772
14470SOL    HW245244  12.083  12.205   0.623
14471SOL     OW45245  11.334  12.350   7.952
14471SOL    HW145246  11.425  12.354   7.924
14471SOL    HW245247  11.338  12.348   8.047
14472SOL     OW45248   1.101   3.279   9.863
14472SOL    HW145249   1.177   3.295   9.918
14472SOL    HW245250   1.054   3.363   9.862
14473SOL     OW45251   3.534   9.432   4.840
14473SOL    HW145252   3.557   9.384   4.760
14473SOL    HW245253   3.460   9.487   4.815
14474SOL     OW45254  11.100  11.479   8.542
14474SOL    HW145255  11.035  11.529   8.593
14474SOL    HW245256  11.087  11.389   8.571
14475SOL     OW45257   4.571   8.060  13.227
14475SOL    HW145258   4.494   8.012  13.257
14475SOL    HW245259   4.594   8.020  13.143
14476SOL     OW45260   2.192   7.602   9.566
14476SOL    HW145261   2.163   7.510   9.565
14476SOL    HW245262   2.287   7.596   9.563
14477SOL     OW45263  14.655   7.848   9.320
14477SOL    HW145264  14.743   7.869   9.351
14477SOL    HW245265  14.652   7.883   9.231
14478SOL     OW45266   0.919   1.862   1.265
14478SOL    HW145267   0.909   1.911   1.183
14478SOL    HW245268   0.919   1.930   1.333
14479SOL     OW45269   4.100  14.074   6.634
14479SOL    HW145270   4.136  14.133   6.701
14479SOL    HW245271   4.035  14.022   6.681
14480SOL     OW45272   7.744  14.486  11.113
14480SOL    HW145273   7.698  14.421  11.060
14480SOL    HW245274   7.833  14.486  11.079
14481SOL     OW45275   0.335  12.884  12.693
14481SOL    HW145276   0.364  12.928  12.773
14481SOL    HW245277   0.294  12.954  12.641
14482SOL     OW45278   9.722  11.078   7.432
14482SOL    HW145279   9.740  11.098   7.524
14482SOL    HW245280   9.742  11.159   7.386
14483SOL     OW45281   2.314   3.309   6.327
14483SOL    HW145282   2.351   3.229   6.366
14483SOL    HW245283   2.284   3.282   6.241
14484SOL     OW45284   6.843  14.175   5.261
14484SOL    HW145285   6.780  14.117   5.217
14484SOL    HW245286   6.912  14.188   5.196
14485SOL     OW45287   4.185   1.974   3.983
14485SOL    HW145288   4.274   1.952   3.954
14485SOL    HW245289   4.198   2.026   4.062
14486SOL     OW45290   3.766  10.571  10.909
14486SOL    HW145291   3.772  10.484  10.869
14486SOL    HW245292   3.807  10.630  10.846
14487SOL     OW45293   5.349  11.795   1.891
14487SOL    HW145294   5.352  11.728   1.822
14487SOL    HW245295   5.396  11.756   1.965
14488SOL     OW45296   7.162   8.717   4.526
14488SOL    HW145297   7.205   8.744   4.445
14488SOL    HW245298   7.150   8.798   4.576
14489SOL     OW45299  12.058   8.984   8.242
14489SOL    HW145300  12.052   8.982   8.146
14489SOL    HW245301  12.122   8.916   8.264
14490SOL     OW45302   6.879  11.335   7.937
14490SOL    HW145303   6.925  11.256   7.907
14490SOL    HW245304   6.876  11.391   7.860
14491SOL     OW45305   3.650   9.762  13.696
14491SOL    HW145306   3.598   9.812  13.759
14491SOL    HW245307   3.596   9.761  13.617
14492SOL     OW45308   6.079  11.320   9.622
14492SOL    HW145309   6.158  11.350   9.577
14492SOL    HW245310   6.111  11.282   9.703
14493SOL     OW45311   5.257  14.865  11.786
14493SOL    HW145312   5.300  14.793  11.738
14493SOL    HW245313   5.204  14.821  11.852
14494SOL     OW45314   1.417   5.052   1.173
14494SOL    HW145315   1.428   4.959   1.189
14494SOL    HW245316   1.440   5.094   1.257
14495SOL     OW45317  14.201   6.865  13.635
14495SOL    HW145318  14.231   6.845  13.724
14495SOL    HW245319  14.119   6.818  13.626
14496SOL     OW45320  10.661  13.920  13.311
14496SOL    HW145321  10.628  14.009  13.304
14496SOL    HW245322  10.626  13.874  13.235
14497SOL     OW45323  10.308   3.945   1.286
14497SOL    HW145324  10.219   3.975   1.266
14497SOL    HW245325  10.347   4.018   1.334
14498SOL     OW45326  11.371   7.139  11.812
14498SOL    HW145327  11.407   7.051  11.825
14498SOL    HW245328  11.311   7.129  11.738
14499SOL     OW45329   8.487   5.084   5.869
14499SOL    HW145330   8.571   5.117   5.837
14499SOL    HW245331   8.467   5.139   5.944
14500SOL     OW45332   6.534   7.747  11.286
14500SOL    HW145333   6.510   7.698  11.208
14500SOL    HW245334   6.535   7.838  11.258
14501SOL     OW45335   3.253  12.217  14.371
14501SOL    HW145336   3.197  12.168  14.431
14501SOL    HW245337   3.325  12.249  14.425
14502SOL     OW45338   9.531   7.562   9.894
14502SOL    HW145339   9.494   7.608   9.969
14502SOL    HW245340   9.470   7.491   9.876
14503SOL     OW45341   9.905  14.604   4.287
14503SOL    HW145342   9.821  14.618   4.330
14503SOL    HW245343   9.899  14.516   4.251
14504SOL     OW45344   7.848   9.282  10.476
14504SOL    HW145345   7.759   9.316  10.465
14504SOL    HW245346   7.871   9.248  10.390
14505SOL     OW45347   5.020   0.737   4.760
14505SOL    HW145348   5.105   0.767   4.794
14505SOL    HW245349   4.978   0.695   4.835
14506SOL     OW45350   6.401   3.054   0.673
14506SOL    HW145351   6.332   2.991   0.695
14506SOL    HW245352   6.457   3.007   0.610
14507SOL     OW45353   9.377  14.000   6.327
14507SOL    HW145354   9.357  14.056   6.252
14507SOL    HW245355   9.369  14.058   6.403
14508SOL     OW45356   0.334  14.555  10.959
14508SOL    HW145357   0.390  14.489  10.917
14508SOL    HW245358   0.304  14.513  11.040
14509SOL     OW45359   2.386   0.760   1.241
14509SOL    HW145360   2.477   0.739   1.259
14509SOL    HW245361   2.388   0.846   1.200
14510SOL     OW45362  11.393   8.595   7.795
14510SOL    HW145363  11.435   8.633   7.872
14510SOL    HW245364  11.316   8.649   7.780
14511SOL     OW45365   5.029  10.973   7.230
14511SOL    HW145366   5.016  10.879   7.238
14511SOL    HW245367   4.992  10.994   7.144
14512SOL     OW45368  14.320   9.701  13.740
14512SOL    HW145369  14.306   9.710  13.834
14512SOL    HW245370  14.246   9.747  13.700
14513SOL     OW45371   6.328   3.948  14.101
14513SOL    HW145372   6.389   4.021  14.104
14513SOL    HW245373   6.247   3.982  14.136
14514SOL     OW45374   0.556   5.723  14.135
14514SOL    HW145375   0.512   5.740  14.052
14514SOL    HW245376   0.519   5.787  14.195
14515SOL     OW45377   5.011   6.529   1.203
14515SOL    HW145378   4.963   6.578   1.136
14515SOL    HW245379   5.026   6.443   1.163
14516SOL     OW45380  11.719   2.714   0.599
14516SOL    HW145381  11.720   2.632   0.647
14516SOL    HW245382  11.810   2.727   0.572
14517SOL     OW45383  11.059   8.438  11.891
14517SOL    HW145384  11.023   8.523  11.916
14517SOL    HW245385  11.079   8.395  11.974
14518SOL     OW45386  11.084   7.342   2.071
14518SOL    HW145387  11.021   7.274   2.047
14518SOL    HW245388  11.140   7.301   2.138
14519SOL     OW45389   8.312  10.463  13.709
14519SOL    HW145390   8.285  10.373  13.729
14519SOL    HW245391   8.243  10.518  13.746
14520SOL     OW45392  14.499   9.127   0.081
14520SOL    HW145393  14.424   9.098   0.132
14520SOL    HW245394  14.570   9.069   0.108
14521SOL     OW45395   2.910   0.903   9.980
14521SOL    HW145396   2.838   0.849   9.947
14521SOL    HW245397   2.978   0.840  10.006
14522SOL     OW45398   1.111   8.802   9.008
14522SOL    HW145399   1.109   8.892   9.043
14522SOL    HW245400   1.172   8.807   8.934
14523SOL     OW45401  11.962   3.986   9.748
14523SOL    HW145402  11.962   4.069   9.700
14523SOL    HW245403  12.051   3.952   9.737
14524SOL     OW45404   8.539   3.220   7.012
14524SOL    HW145405   8.476   3.287   7.036
14524SOL    HW245406   8.599   3.216   7.087
14525SOL     OW45407   1.635   9.952   4.767
14525SOL    HW145408   1.581   9.981   4.840
14525SOL    HW245409   1.714   9.917   4.809
14526SOL     OW45410  13.496  10.500  14.720
14526SOL    HW145411  13.495  10.581  14.771
14526SOL    HW245412  13.412  10.459  14.739
14527SOL     OW45413   4.563   2.936   4.389
14527SOL    HW145414   4.540   2.844   4.383
14527SOL    HW245415   4.654   2.937   4.421
14528SOL     OW45416   1.076   5.337  14.863
14528SOL    HW145417   1.135   5.264   0.002
14528SOL    HW245418   1.115   5.382  14.788
14529SOL     OW45419   1.930   9.263  11.404
14529SOL    HW145420   1.901   9.225  11.487
14529SOL    HW245421   1.875   9.341  11.393
14530SOL     OW45422   7.892   4.160   4.215
14530SOL    HW145423   7.937   4.076   4.203
14530SOL    HW245424   7.814   4.153   4.161
14531SOL     OW45425   2.626  13.856  12.960
14531SOL    HW145426   2.668  13.777  12.993
14531SOL    HW245427   2.693  13.899  12.906
14532SOL     OW45428   5.728  11.317  10.575
14532SOL    HW145429   5.806  11.354  10.536
14532SOL    HW245430   5.688  11.264  10.506
14533SOL     OW45431   5.220   0.360   4.580
14533SOL    HW145432   5.223   0.305   4.659
14533SOL    HW245433   5.129   0.391   4.576
14534SOL     OW45434   3.259   7.273   5.972
14534SOL    HW145435   3.226   7.348   5.923
14534SOL    HW245436   3.343   7.303   6.008
14535SOL     OW45437   1.043  10.735   3.920
14535SOL    HW145438   1.003  10.821   3.935
14535SOL    HW245439   1.053  10.698   4.007
14536SOL     OW45440   4.850  12.715  11.616
14536SOL    HW145441   4.932  12.669  11.634
14536SOL    HW245442   4.877  12.791  11.565
14537SOL     OW45443   8.278   2.107   2.396
14537SOL    HW145444   8.222   2.184   2.394
14537SOL    HW245445   8.218   2.033   2.393
14538SOL     OW45446  13.678   3.518  11.312
14538SOL    HW145447  13.746   3.451  11.309
14538SOL    HW245448  13.602   3.474  11.348
14539SOL     OW45449  10.970   1.290  14.311
14539SOL    HW145450  11.041   1.311  14.373
14539SOL    HW245451  10.893   1.332  14.348
14540SOL     OW45452  10.317  14.504  14.411
14540SOL    HW145453  10.252  14.501  14.341
14540SOL    HW245454  10.380  14.570  14.383
14541SOL     OW45455   0.800  14.349   1.533
14541SOL    HW145456   0.706  14.338   1.516
14541SOL    HW245457   0.808  14.346   1.628
14542SOL     OW45458  13.825   8.682   9.905
14542SOL    HW145459  13.773   8.708   9.829
14542SOL    HW245460  13.901   8.638   9.868
14543SOL     OW45461   1.119  14.316   1.035
14543SOL    HW145462   1.024  14.313   1.028
14543SOL    HW245463   1.150  14.279   0.952
14544SOL     OW45464   0.679   9.574   2.747
14544SOL    HW145465   0.633   9.532   2.674
14544SOL    HW245466   0.673   9.512   2.819
14545SOL     OW45467   5.704  13.891   0.013
14545SOL    HW145468   5.739  13.939   0.089
14545SOL    HW245469   5.779  13.843  14.857
14546SOL     OW45470  10.561   3.893   9.541
14546SOL    HW145471  10.565   3.893   9.446
14546SOL    HW245472  10.511   3.972   9.563
14547SOL     OW45473   7.486   7.927  10.800
14547SOL    HW145474   7.566   7.950  10.848
14547SOL    HW245475   7.504   7.840  10.764
14548SOL     OW45476   0.719   4.814   4.995
14548SOL    HW145477   0.767   4.781   4.919
14548SOL    HW245478   0.773   4.789   5.070
14549SOL     OW45479   5.385   6.658   6.919
14549SOL    HW145480   5.370   6.597   6.846
14549SOL    HW245481   5.429   6.733   6.878
14550SOL     OW45482   4.097  11.973   3.838
14550SOL    HW145483   4.077  11.888   3.798
14550SOL    HW245484   4.130  12.026   3.765
14551SOL     OW45485   2.060  12.260   8.256
14551SOL    HW145486   2.132  12.200   8.275
14551SOL    HW245487   2.101  12.333   8.210
14552SOL     OW45488   2.407   9.488  14.338
14552SOL    HW145489   2.327   9.500  14.286
14552SOL    HW245490   2.476   9.475  14.274
14553SOL     OW45491  14.182   7.388   3.032
14553SOL    HW145492  14.239   7.420   3.102
14553SOL    HW245493  14.223   7.420   2.951
14554SOL     OW45494   2.126   7.851   7.434
14554SOL    HW145495   2.065   7.790   7.476
14554SOL    HW245496   2.092   7.937   7.455
14555SOL     OW45497   0.136   8.773   9.000
14555SOL    HW145498   0.190   8.833   9.052
14555SOL    HW245499   0.071   8.830   8.958
14556SOL     OW45500   8.512  14.118  13.227
14556SOL    HW145501   8.433  14.168  13.247
14556SOL    HW245502   8.487  14.062  13.154
14557SOL     OW45503  10.020   2.261   2.834
14557SOL    HW145504   9.995   2.304   2.916
14557SOL    HW245505   9.999   2.169   2.848
14558SOL     OW45506  14.499  13.396   4.005
14558SOL    HW145507  14.577  13.451   4.007
14558SOL    HW245508  14.465  13.400   4.095
14559SOL     OW45509   7.848   1.750  10.152
14559SOL    HW145510   7.863   1.696  10.074
14559SOL    HW245511   7.772   1.710  10.194
14560SOL     OW45512   1.113   8.329   1.685
14560SOL    HW145513   1.057   8.327   1.608
14560SOL    HW245514   1.124   8.237   1.710
14561SOL     OW45515   2.525   2.293  10.142
14561SOL    HW145516   2.454   2.229  10.138
14561SOL    HW245517   2.513   2.336  10.227
14562SOL     OW45518   6.298  10.053   1.939
14562SOL    HW145519   6.289  10.021   1.849
14562SOL    HW245520   6.390  10.038   1.961
14563SOL     OW45521   0.435   1.784   5.922
14563SOL    HW145522   0.455   1.875   5.945
14563SOL    HW245523   0.340   1.779   5.927
14564SOL     OW45524  11.127   7.836   2.950
14564SOL    HW145525  11.172   7.753   2.943
14564SOL    HW245526  11.118   7.866   2.859
14565SOL     OW45527   2.041   2.785  10.827
14565SOL    HW145528   2.031   2.774  10.922
14565SOL    HW245529   2.127   2.828  10.818
14566SOL     OW45530   5.583   5.525  11.478
14566SOL    HW145531   5.547   5.456  11.534
14566SOL    HW245532   5.672   5.497  11.460
14567SOL     OW45533   5.555   3.351   6.168
14567SOL    HW145534   5.464   3.351   6.136
14567SOL    HW245535   5.597   3.279   6.121
14568SOL     OW45536   4.608   2.515  12.577
14568SOL    HW145537   4.612   2.539  12.670
14568SOL    HW245538   4.564   2.589  12.535
14569SOL     OW45539   5.536  11.015   5.295
14569SOL    HW145540   5.616  11.060   5.266
14569SOL    HW245541   5.565  10.958   5.366
14570SOL     OW45542   5.024  13.941   6.339
14570SOL    HW145543   4.978  13.953   6.422
14570SOL    HW245544   4.961  13.894   6.284
14571SOL     OW45545  13.869  10.908   6.724
14571SOL    HW145546  13.789  10.960   6.722
14571SOL    HW245547  13.864  10.854   6.645
14572SOL     OW45548   3.601   3.963   6.297
14572SOL    HW145549   3.616   3.868   6.298
14572SOL    HW245550   3.671   3.999   6.352
14573SOL     OW45551  14.736  13.805  12.508
14573SOL    HW145552  14.750  13.894  12.476
14573SOL    HW245553  14.673  13.767  12.447
14574SOL     OW45554  12.318  12.329   9.874
14574SOL    HW145555  12.298  12.274   9.950
14574SOL    HW245556  12.269  12.289   9.802
14575SOL     OW45557   2.094  13.161   6.825
14575SOL    HW145558   2.010  13.161   6.870
14575SOL    HW245559   2.078  13.208   6.743
14576SOL     OW45560  10.408   8.035  13.698
14576SOL    HW145561  10.472   7.965  13.691
14576SOL    HW245562  10.367   8.039  13.611
14577SOL     OW45563   2.497  12.878   7.324
14577SOL    HW145564   2.478  12.929   7.245
14577SOL    HW245565   2.415  12.879   7.374
14578SOL     OW45566   3.340   8.210  14.268
14578SOL    HW145567   3.365   8.119  14.256
14578SOL    HW245568   3.423   8.255  14.285
14579SOL     OW45569  14.023  10.975   2.825
14579SOL    HW145570  14.052  10.996   2.913
14579SOL    HW245571  13.930  10.996   2.824
14580SOL     OW45572   5.212   7.052  10.468
14580SOL    HW145573   5.152   7.113  10.425
14580SOL    HW245574   5.169   7.031  10.552
14581SOL     OW45575   0.879  11.648  11.636
14581SOL    HW145576   0.884  11.744  11.629
14581SOL    HW245577   0.806  11.632  11.695
14582SOL     OW45578   9.358  10.520   8.401
14582SOL    HW145579   9.304  10.559   8.470
14582SOL    HW245580   9.363  10.588   8.334
14583SOL     OW45581   4.947   8.913  11.413
14583SOL    HW145582   5.012   8.856  11.455
14583SOL    HW245583   4.888   8.853  11.368
14584SOL     OW45584   6.790   0.459   6.487
14584SOL    HW145585   6.835   0.464   6.403
14584SOL    HW245586   6.806   0.543   6.529
14585SOL     OW45587   5.962   7.528   2.668
14585SOL    HW145588   6.016   7.496   2.740
14585SOL    HW245589   6.014   7.597   2.628
14586SOL     OW45590  11.929   7.179   1.207
14586SOL    HW145591  11.970   7.251   1.160
14586SOL    HW245592  11.842   7.170   1.167
14587SOL     OW45593   5.832   4.570   3.232
14587SOL    HW145594   5.871   4.658   3.225
14587SOL    HW245595   5.892   4.514   3.183
14588SOL     OW45596   9.364   6.359   8.624
14588SOL    HW145597   9.423   6.434   8.618
14588SOL    HW245598   9.417   6.290   8.664
14589SOL     OW45599  12.146   7.114  12.806
14589SOL    HW145600  12.126   7.203  12.833
14589SOL    HW245601  12.204   7.124  12.731
14590SOL     OW45602  14.292   7.256  12.788
14590SOL    HW145603  14.258   7.308  12.715
14590SOL    HW245604  14.379   7.291  12.805
14591SOL     OW45605   3.672  13.839   6.780
14591SOL    HW145606   3.641  13.809   6.695
14591SOL    HW245607   3.595  13.878   6.821
14592SOL     OW45608   3.443   2.480   3.641
14592SOL    HW145609   3.416   2.529   3.719
14592SOL    HW245610   3.532   2.451   3.661
14593SOL     OW45611   9.169   4.794   2.261
14593SOL    HW145612   9.236   4.752   2.315
14593SOL    HW245613   9.216   4.828   2.186
14594SOL     OW45614   3.987  12.630   8.528
14594SOL    HW145615   4.065  12.670   8.489
14594SOL    HW245616   3.941  12.591   8.454
14595SOL     OW45617   3.646  12.779  10.062
14595SOL    HW145618   3.646  12.690  10.096
14595SOL    HW245619   3.700  12.828  10.124
14596SOL     OW45620   9.758   6.429   2.207
14596SOL    HW145621   9.735   6.365   2.274
14596SOL    HW245622   9.758   6.379   2.125
14597SOL     OW45623   3.907   9.736  12.574
14597SOL    HW145624   3.895   9.665  12.637
14597SOL    HW245625   3.978   9.789  12.611
14598SOL     OW45626   7.329  11.705   7.175
14598SOL    HW145627   7.403  11.650   7.202
14598SOL    HW245628   7.367  11.766   7.112
14599SOL     OW45629  11.968   0.561   1.234
14599SOL    HW145630  11.985   0.637   1.177
14599SOL    HW245631  12.043   0.558   1.293
14600SOL     OW45632   6.595  13.304   8.598
14600SOL    HW145633   6.616  13.232   8.538
14600SOL    HW245634   6.534  13.359   8.550
14601SOL     OW45635   4.947  13.309  11.586
14601SOL    HW145636   4.879  13.266  11.638
14601SOL    HW245637   4.953  13.256  11.506
14602SOL     OW45638   2.954   0.919   4.978
14602SOL    HW145639   3.017   0.876   5.036
14602SOL    HW245640   2.924   0.996   5.027
14603SOL     OW45641   2.841   4.352   3.299
14603SOL    HW145642   2.872   4.441   3.312
14603SOL    HW245643   2.850   4.311   3.385
14604SOL     OW45644   0.619  10.124   2.823
14604SOL    HW145645   0.627  10.110   2.729
14604SOL    HW245646   0.679  10.196   2.842
14605SOL     OW45647   4.032   0.333   4.462
14605SOL    HW145648   3.994   0.317   4.376
14605SOL    HW245649   4.047   0.246   4.499
14606SOL     OW45650  11.338   0.461   1.640
14606SOL    HW145651  11.299   0.470   1.553
14606SOL    HW245652  11.430   0.486   1.627
14607SOL     OW45653   6.681   7.499   9.821
14607SOL    HW145654   6.738   7.571   9.792
14607SOL    HW245655   6.674   7.442   9.745
14608SOL     OW45656   9.712   0.649   7.408
14608SOL    HW145657   9.737   0.599   7.485
14608SOL    HW245658   9.762   0.610   7.336
14609SOL     OW45659   5.821  12.978   7.740
14609SOL    HW145660   5.772  12.945   7.665
14609SOL    HW245661   5.904  12.932   7.736
14610SOL     OW45662   5.041   9.133   7.553
14610SOL    HW145663   5.043   9.228   7.543
14610SOL    HW245664   4.975   9.117   7.620
14611SOL     OW45665  11.716   2.592   3.310
14611SOL    HW145666  11.680   2.513   3.271
14611SOL    HW245667  11.691   2.587   3.402
14612SOL     OW45668   6.532   2.506  12.121
14612SOL    HW145669   6.543   2.600  12.131
14612SOL    HW245670   6.444   2.495  12.085
14613SOL     OW45671   0.989   7.527   8.515
14613SOL    HW145672   0.982   7.466   8.442
14613SOL    HW245673   0.972   7.613   8.477
14614SOL     OW45674   6.613  13.631   1.589
14614SOL    HW145675   6.589  13.610   1.499
14614SOL    HW245676   6.665  13.711   1.582
14615SOL     OW45677   6.254  10.301   2.011
14615SOL    HW145678   6.331  10.358   2.018
14615SOL    HW245679   6.290  10.215   1.988
14616SOL     OW45680  12.121   9.133  12.338
14616SOL    HW145681  12.073   9.086  12.405
14616SOL    HW245682  12.211   9.102  12.346
14617SOL     OW45683  11.822   4.200   8.111
14617SOL    HW145684  11.767   4.165   8.041
14617SOL    HW245685  11.787   4.161   8.191
14618SOL     OW45686  10.808   8.699   1.829
14618SOL    HW145687  10.818   8.683   1.735
14618SOL    HW245688  10.840   8.788   1.842
14619SOL     OW45689   1.425   5.991  14.479
14619SOL    HW145690   1.515   5.961  14.463
14619SOL    HW245691   1.417   5.990  14.574
14620SOL     OW45692  14.546   2.611   6.144
14620SOL    HW145693  14.522   2.520   6.160
14620SOL    HW245694  14.462   2.655   6.128
14621SOL     OW45695   2.171  13.863   1.140
14621SOL    HW145696   2.178  13.823   1.053
14621SOL    HW245697   2.082  13.898   1.143
14622SOL     OW45698   4.003  14.739   2.420
14622SOL    HW145699   4.049  14.823   2.409
14622SOL    HW245700   4.025  14.711   2.508
14623SOL     OW45701   9.743   9.371   7.105
14623SOL    HW145702   9.784   9.288   7.078
14623SOL    HW245703   9.806   9.438   7.078
14624SOL     OW45704   2.922  10.664   2.097
14624SOL    HW145705   2.942  10.647   2.005
14624SOL    HW245706   3.006  10.688   2.136
14625SOL     OW45707  10.079   1.526   0.371
14625SOL    HW145708  10.044   1.599   0.422
14625SOL    HW245709  10.082   1.453   0.433
14626SOL     OW45710   3.144   0.360  13.272
14626SOL    HW145711   3.116   0.274  13.240
14626SOL    HW245712   3.147   0.415  13.193
14627SOL     OW45713   1.726  11.612  10.733
14627SOL    HW145714   1.794  11.581  10.674
14627SOL    HW245715   1.677  11.677  10.682
14628SOL     OW45716   1.784  13.352   6.601
14628SOL    HW145717   1.704  13.404   6.610
14628SOL    HW245718   1.763  13.268   6.641
14629SOL     OW45719  10.464  10.992   7.983
14629SOL    HW145720  10.405  10.956   7.917
14629SOL    HW245721  10.424  10.970   8.066
14630SOL     OW45722   0.770   4.159   7.271
14630SOL    HW145723   0.720   4.220   7.326
14630SOL    HW245724   0.858   4.159   7.307
14631SOL     OW45725  14.700  11.532   5.536
14631SOL    HW145726  14.680  11.614   5.580
14631SOL    HW245727  14.619  11.481   5.542
14632SOL     OW45728   0.208   4.610   8.121
14632SOL    HW145729   0.123   4.576   8.094
14632SOL    HW245730   0.264   4.602   8.044
14633SOL     OW45731   6.891   1.760  10.947
14633SOL    HW145732   6.893   1.820  10.873
14633SOL    HW245733   6.978   1.721  10.948
14634SOL     OW45734  13.108  11.097   9.353
14634SOL    HW145735  13.018  11.065   9.346
14634SOL    HW245736  13.110  11.176   9.299
14635SOL     OW45737  14.186   9.482  10.947
14635SOL    HW145738  14.199   9.536  11.025
14635SOL    HW245739  14.180   9.545  10.875
14636SOL     OW45740   7.342   6.826  12.061
14636SOL    HW145741   7.349   6.921  12.070
14636SOL    HW245742   7.432   6.797  12.049
14637SOL     OW45743   7.525   8.010  10.076
14637SOL    HW145744   7.438   8.017  10.036
14637SOL    HW245745   7.586   8.006  10.002
14638SOL     OW45746   1.110  14.489  12.858
14638SOL    HW145747   1.202  14.466  12.873
14638SOL    HW245748   1.111  14.583  12.840
14639SOL     OW45749  11.695   5.038  12.831
14639SOL    HW145750  11.745   5.015  12.910
14639SOL    HW245751  11.653   4.957  12.804
14640SOL     OW45752  11.054  13.464   9.259
14640SOL    HW145753  11.025  13.552   9.237
14640SOL    HW245754  11.050  13.460   9.355
14641SOL     OW45755  12.812   7.661  13.170
14641SOL    HW145756  12.820   7.744  13.123
14641SOL    HW245757  12.847   7.596  13.109
14642SOL     OW45758  12.609   6.773   9.668
14642SOL    HW145759  12.695   6.743   9.638
14642SOL    HW245760  12.547   6.712   9.628
14643SOL     OW45761   4.133  12.402  10.169
14643SOL    HW145762   4.192  12.399  10.245
14643SOL    HW245763   4.088  12.317  10.170
14644SOL     OW45764   5.277   1.486   1.695
14644SOL    HW145765   5.266   1.535   1.776
14644SOL    HW245766   5.258   1.395   1.719
14645SOL     OW45767  14.206   4.330  14.700
14645SOL    HW145768  14.215   4.236  14.681
14645SOL    HW245769  14.143   4.362  14.636
14646SOL     OW45770   6.403   7.447   2.849
14646SOL    HW145771   6.378   7.393   2.924
14646SOL    HW245772   6.431   7.385   2.782
14647SOL     OW45773   4.779   8.421  13.942
14647SOL    HW145774   4.758   8.441  14.034
14647SOL    HW245775   4.695   8.432  13.896
14648SOL     OW45776  14.351  12.579   3.936
14648SOL    HW145777  14.422  12.642   3.940
14648SOL    HW245778  14.389  12.497   3.968
14649SOL     OW45779   5.599   2.774   3.809
14649SOL    HW145780   5.623   2.793   3.899
14649SOL    HW245781   5.676   2.800   3.758
14650SOL     OW45782   6.207   7.359   4.699
14650SOL    HW145783   6.218   7.281   4.645
14650SOL    HW245784   6.118   7.352   4.734
14651SOL     OW45785   5.327   7.869  14.480
14651SOL    HW145786   5.255   7.860  14.542
14651SOL    HW245787   5.287   7.863  14.394
14652SOL     OW45788  14.542  10.896   1.622
14652SOL    HW145789  14.613  10.833   1.614
14652SOL    HW245790  14.463  10.842   1.623
14653SOL     OW45791   3.564   7.066   5.966
14653SOL    HW145792   3.656   7.061   5.941
14653SOL    HW245793   3.545   7.160   5.967
14654SOL     OW45794   6.283  13.864   5.140
14654SOL    HW145795   6.345  13.795   5.167
14654SOL    HW245796   6.217  13.817   5.089
14655SOL     OW45797   3.841   9.910  10.600
14655SOL    HW145798   3.773   9.935  10.538
14655SOL    HW245799   3.816   9.953  10.682
14656SOL     OW45800   6.123   6.193   7.652
14656SOL    HW145801   6.041   6.146   7.668
14656SOL    HW245802   6.100   6.285   7.667
14657SOL     OW45803   4.973   7.243  11.201
14657SOL    HW145804   5.027   7.320  11.216
14657SOL    HW245805   4.963   7.239  11.105
14658SOL     OW45806  11.963   7.345  12.493
14658SOL    HW145807  11.920   7.427  12.519
14658SOL    HW245808  12.051   7.352  12.529
14659SOL     OW45809   4.650   3.971   8.850
14659SOL    HW145810   4.718   3.926   8.900
14659SOL    HW245811   4.590   4.004   8.917
14660SOL     OW45812  10.077   0.385   2.061
14660SOL    HW145813  10.094   0.428   1.977
14660SOL    HW245814  10.044   0.455   2.118
14661SOL     OW45815   7.694  12.672   6.944
14661SOL    HW145816   7.739  12.643   6.865
14661SOL    HW245817   7.621  12.611   6.954
14662SOL     OW45818   4.357   0.110   9.738
14662SOL    HW145819   4.380   0.198   9.707
14662SOL    HW245820   4.380   0.111   9.831
14663SOL     OW45821   3.453   7.484   6.358
14663SOL    HW145822   3.417   7.479   6.447
14663SOL    HW245823   3.402   7.553   6.315
14664SOL     OW45824   5.642   2.149   5.621
14664SOL    HW145825   5.730   2.188   5.623
14664SOL    HW245826   5.605   2.170   5.707
14665SOL     OW45827   9.482   8.514   5.641
14665SOL    HW145828   9.537   8.567   5.699
14665SOL    HW245829   9.534   8.437   5.623
14666SOL     OW45830   1.512   6.716   5.746
14666SOL    HW145831   1.416   6.723   5.741
14666SOL    HW245832   1.536   6.663   5.670
14667SOL     OW45833  13.294   6.404   6.805
14667SOL    HW145834  13.222   6.464   6.825
14667SOL    HW245835  13.372   6.447   6.841
14668SOL     OW45836   8.330  14.828   7.265
14668SOL    HW145837   8.414  14.821   7.219
14668SOL    HW245838   8.340  14.770   7.340
14669SOL     OW45839  10.393   0.849  14.230
14669SOL    HW145840  10.416   0.776  14.287
14669SOL    HW245841  10.358   0.808  14.151
14670SOL     OW45842   1.073   3.733  10.827
14670SOL    HW145843   1.145   3.682  10.790
14670SOL    HW245844   1.048   3.685  10.906
14671SOL     OW45845  13.132   9.922   5.008
14671SOL    HW145846  13.226   9.935   5.024
14671SOL    HW245847  13.094   9.919   5.096
14672SOL     OW45848   7.050   2.357   0.810
14672SOL    HW145849   7.045   2.318   0.723
14672SOL    HW245850   6.988   2.308   0.863
14673SOL     OW45851  10.629   0.842   3.741
14673SOL    HW145852  10.603   0.805   3.825
14673SOL    HW245853  10.546   0.871   3.701
14674SOL     OW45854   1.790   4.540   5.085
14674SOL    HW145855   1.802   4.508   4.995
14674SOL    HW245856   1.739   4.621   5.074
14675SOL     OW45857  14.701   5.182   8.381
14675SOL    HW145858  14.626   5.147   8.333
14675SOL    HW245859  14.770   5.118   8.367
14676SOL     OW45860   2.446   4.384   6.946
14676SOL    HW145861   2.467   4.420   6.860
14676SOL    HW245862   2.403   4.456   6.992
14677SOL     OW45863   1.195   9.946  13.703
14677SOL    HW145864   1.163   9.894  13.776
14677SOL    HW245865   1.143  10.026  13.706
14678SOL     OW45866  14.278   4.455   5.747
14678SOL    HW145867  14.187   4.463   5.722
14678SOL    HW245868  14.320   4.411   5.672
14679SOL     OW45869   7.232   5.314  12.908
14679SOL    HW145870   7.167   5.273  12.965
14679SOL    HW245871   7.201   5.296  12.820
14680SOL     OW45872   5.899   0.860  10.212
14680SOL    HW145873   5.995   0.853  10.215
14680SOL    HW245874   5.883   0.928  10.147
14681SOL     OW45875   2.967   3.515   3.490
14681SOL    HW145876   3.044   3.503   3.547
14681SOL    HW245877   3.001   3.561   3.414
14682SOL     OW45878  10.330   1.776   1.913
14682SOL    HW145879  10.357   1.713   1.980
14682SOL    HW245880  10.236   1.787   1.928
14683SOL     OW45881   0.146  12.493   0.854
14683SOL    HW145882   0.145  12.420   0.792
14683SOL    HW245883   0.063  12.538   0.840
14684SOL     OW45884   9.361   5.261   1.675
14684SOL    HW145885   9.352   5.355   1.658
14684SOL    HW245886   9.283   5.239   1.727
14685SOL     OW45887  12.142  11.590  13.986
14685SOL    HW145888  12.070  11.569  13.927
14685SOL    HW245889  12.126  11.535  14.063
14686SOL     OW45890   7.831   8.015  12.288
14686SOL    HW145891   7.864   8.092  12.334
14686SOL    HW245892   7.779   8.050  12.216
14687SOL     OW45893  10.427   7.183  12.027
14687SOL    HW145894  10.351   7.165  11.973
14687SOL    HW245895  10.501   7.183  11.965
14688SOL     OW45896  12.748   2.430   7.933
14688SOL    HW145897  12.769   2.442   8.026
14688SOL    HW245898  12.724   2.337   7.926
14689SOL     OW45899  13.785   1.712   6.953
14689SOL    HW145900  13.822   1.659   7.024
14689SOL    HW245901  13.703   1.668   6.930
14690SOL     OW45902  10.825   2.342   0.900
14690SOL    HW145903  10.791   2.354   0.989
14690SOL    HW245904  10.827   2.247   0.888
14691SOL     OW45905   6.419   7.025  14.454
14691SOL    HW145906   6.441   6.933  14.444
14691SOL    HW245907   6.336   7.026  14.502
14692SOL     OW45908  10.010   8.111   6.621
14692SOL    HW145909  10.060   8.106   6.702
14692SOL    HW245910   9.919   8.121   6.649
14693SOL     OW45911  11.959  13.384   4.060
14693SOL    HW145912  12.044  13.347   4.035
14693SOL    HW245913  11.895  13.330   4.015
14694SOL     OW45914   1.566  10.095  12.253
14694SOL    HW145915   1.542  10.045  12.331
14694SOL    HW245916   1.483  10.115  12.211
14695SOL     OW45917   1.601   1.761   7.044
14695SOL    HW145918   1.520   1.749   7.094
14695SOL    HW245919   1.638   1.843   7.077
14696SOL     OW45920  10.710  13.198   6.226
14696SOL    HW145921  10.739  13.111   6.253
14696SOL    HW245922  10.731  13.254   6.301
14697SOL     OW45923  13.629   0.975   0.525
14697SOL    HW145924  13.620   0.973   0.430
14697SOL    HW245925  13.716   1.014   0.539
14698SOL     OW45926   3.764   5.185   3.934
14698SOL    HW145927   3.825   5.121   3.970
14698SOL    HW245928   3.694   5.133   3.895
14699SOL     OW45929  11.054   4.196   1.287
14699SOL    HW145930  10.998   4.129   1.325
14699SOL    HW245931  11.132   4.197   1.343
14700SOL     OW45932   1.356   3.009   8.867
14700SOL    HW145933   1.272   3.007   8.822
14700SOL    HW245934   1.343   2.959   8.947
14701SOL     OW45935   5.747   0.611  10.907
14701SOL    HW145936   5.801   0.610  10.829
14701SOL    HW245937   5.657   0.616  10.874
14702SOL     OW45938   1.360   6.147  10.774
14702SOL    HW145939   1.440   6.106  10.741
14702SOL    HW245940   1.298   6.075  10.783
14703SOL     OW45941  10.642   8.705   8.938
14703SOL    HW145942  10.730   8.668   8.941
14703SOL    HW245943  10.599   8.657   8.867
14704SOL     OW45944   7.179  14.530   0.998
14704SOL    HW145945   7.197  14.545   0.905
14704SOL    HW245946   7.088  14.554   1.009
14705SOL     OW45947   3.387   0.733   0.459
14705SOL    HW145948   3.399   0.747   0.366
14705SOL    HW245949   3.292   0.742   0.473
14706SOL     OW45950  11.557   2.360   2.528
14706SOL    HW145951  11.648   2.342   2.551
14706SOL    HW245952  11.558   2.448   2.491
14707SOL     OW45953   6.966   0.549   8.184
14707SOL    HW145954   6.880   0.506   8.179
14707SOL    HW245955   6.974   0.575   8.275
14708SOL     OW45956   4.844  14.545  10.046
14708SOL    HW145957   4.936  14.533  10.070
14708SOL    HW245958   4.802  14.573  10.128
14709SOL     OW45959  12.401   6.172   6.634
14709SOL    HW145960  12.370   6.258   6.664
14709SOL    HW245961  12.475   6.152   6.691
14710SOL     OW45962  13.811  10.937   7.490
14710SOL    HW145963  13.828  10.843   7.492
14710SOL    HW245964  13.789  10.959   7.581
14711SOL     OW45965   9.757   5.412   8.204
14711SOL    HW145966   9.746   5.457   8.287
14711SOL    HW245967   9.691   5.343   8.204
14712SOL     OW45968   2.712   7.233   7.555
14712SOL    HW145969   2.641   7.234   7.620
14712SOL    HW245970   2.684   7.169   7.490
14713SOL     OW45971   1.782   0.969   6.526
14713SOL    HW145972   1.715   1.013   6.473
14713SOL    HW245973   1.761   0.876   6.517
14714SOL     OW45974  11.007  14.435  14.706
14714SOL    HW145975  11.072  14.427  14.777
14714SOL    HW245976  11.027  14.519  14.665
14715SOL     OW45977   7.150   5.503   1.287
14715SOL    HW145978   7.156   5.456   1.203
14715SOL    HW245979   7.061   5.486   1.317
14716SOL     OW45980  12.320  13.645   0.625
14716SOL    HW145981  12.225  13.654   0.626
14716SOL    HW245982  12.337  13.566   0.574
14717SOL     OW45983  13.038   2.331   9.317
14717SOL    HW145984  13.123   2.342   9.275
14717SOL    HW245985  13.038   2.396   9.388
14718SOL     OW45986  11.149   2.434   1.268
14718SOL    HW145987  11.244   2.437   1.260
14718SOL    HW245988  11.127   2.341   1.263
14719SOL     OW45989   5.340   8.310   8.975
14719SOL    HW145990   5.393   8.371   9.026
14719SOL    HW245991   5.302   8.363   8.905
14720SOL     OW45992   6.215  12.571   7.900
14720SOL    HW145993   6.166  12.648   7.928
14720SOL    HW245994   6.270  12.548   7.975
14721SOL     OW45995   5.389  14.524   2.407
14721SOL    HW145996   5.478  14.544   2.381
14721SOL    HW245997   5.388  14.430   2.423
14722SOL     OW45998  12.131   1.576   6.122
14722SOL    HW145999  12.211   1.560   6.073
14722SOL    HW246000  12.158   1.630   6.196
14723SOL     OW46001  14.459  12.384   6.938
14723SOL    HW146002  14.421  12.343   7.015
14723SOL    HW246003  14.554  12.370   6.947
14724SOL     OW46004   9.407  12.694   7.253
14724SOL    HW146005   9.337  12.751   7.285
14724SOL    HW246006   9.406  12.706   7.158
14725SOL     OW46007   7.733   0.219   6.812
14725SOL    HW146008   7.753   0.127   6.832
14725SOL    HW246009   7.806   0.249   6.758
14726SOL     OW46010   3.252  12.284  13.582
14726SOL    HW146011   3.332  12.297  13.533
14726SOL    HW246012   3.192  12.242  13.520
14727SOL     OW46013   7.721  12.752   8.677
14727SOL    HW146014   7.718  12.716   8.766
14727SOL    HW246015   7.651  12.817   8.675
14728SOL     OW46016   1.550  13.507   9.026
14728SOL    HW146017   1.551  13.427   8.974
14728SOL    HW246018   1.624  13.498   9.086
14729SOL     OW46019  14.767   0.364   6.039
14729SOL    HW146020  14.697   0.301   6.056
14729SOL    HW246021  14.828   0.353   6.111
14730SOL     OW46022  13.947   5.839   1.017
14730SOL    HW146023  14.019   5.835   1.080
14730SOL    HW246024  13.987   5.823   0.932
14731SOL     OW46025   8.868   7.948   3.346
14731SOL    HW146026   8.818   7.890   3.405
14731SOL    HW246027   8.801   7.998   3.299
14732SOL     OW46028  13.179   7.312   2.994
14732SOL    HW146029  13.234   7.357   2.930
14732SOL    HW246030  13.138   7.382   3.044
14733SOL     OW46031   9.487   1.146  11.312
14733SOL    HW146032   9.404   1.178  11.275
14733SOL    HW246033   9.546   1.141  11.237
14734SOL     OW46034  11.654  12.673   8.781
14734SOL    HW146035  11.741  12.632   8.782
14734SOL    HW246036  11.658  12.740   8.850
14735SOL     OW46037   5.272  13.683   5.589
14735SOL    HW146038   5.226  13.607   5.627
14735SOL    HW246039   5.230  13.759   5.629
14736SOL     OW46040  13.710   5.380  12.034
14736SOL    HW146041  13.679   5.468  12.058
14736SOL    HW246042  13.785   5.396  11.977
14737SOL     OW46043   9.386  12.481  14.360
14737SOL    HW146044   9.474  12.517  14.358
14737SOL    HW246045   9.346  12.510  14.278
14738SOL     OW46046  10.475   3.042   3.291
14738SOL    HW146047  10.417   3.011   3.222
14738SOL    HW246048  10.541   2.973   3.300
14739SOL     OW46049  14.710  11.353   4.599
14739SOL    HW146050  14.776  11.354   4.530
14739SOL    HW246051  14.680  11.444   4.604
14740SOL     OW46052   1.420   4.276   7.016
14740SOL    HW146053   1.500   4.224   7.022
14740SOL    HW246054   1.375   4.260   7.099
14741SOL     OW46055   7.838  14.796   2.443
14741SOL    HW146056   7.833  14.860   2.513
14741SOL    HW246057   7.901  14.832   2.381
14742SOL     OW46058   0.608   4.024   9.610
14742SOL    HW146059   0.584   3.931   9.605
14742SOL    HW246060   0.703   4.024   9.608
14743SOL     OW46061  12.707   6.517   0.251
14743SOL    HW146062  12.614   6.538   0.248
14743SOL    HW246063  12.719   6.448   0.186
14744SOL     OW46064   4.745  13.104   8.281
14744SOL    HW146065   4.766  13.153   8.201
14744SOL    HW246066   4.669  13.051   8.258
14745SOL     OW46067  10.788   4.722   0.319
14745SOL    HW146068  10.739   4.766   0.389
14745SOL    HW246069  10.735   4.646   0.297
14746SOL     OW46070   2.951  10.071   3.203
14746SOL    HW146071   2.971  10.161   3.179
14746SOL    HW246072   3.027  10.040   3.252
14747SOL     OW46073   7.300   6.773  13.110
14747SOL    HW146074   7.273   6.728  13.030
14747SOL    HW246075   7.229   6.757  13.172
14748SOL     OW46076   6.638   6.547  11.807
14748SOL    HW146077   6.678   6.610  11.868
14748SOL    HW246078   6.544   6.555  11.823
14749SOL     OW46079  14.666   5.323   2.035
14749SOL    HW146080  14.597   5.351   2.095
14749SOL    HW246081  14.734   5.286   2.092
14750SOL     OW46082   0.597   7.239   1.728
14750SOL    HW146083   0.602   7.185   1.807
14750SOL    HW246084   0.624   7.326   1.757
14751SOL     OW46085  13.777  13.144   9.884
14751SOL    HW146086  13.699  13.135   9.829
14751SOL    HW246087  13.841  13.085   9.846
14752SOL     OW46088   8.342   7.606   5.251
14752SOL    HW146089   8.329   7.694   5.285
14752SOL    HW246090   8.406   7.616   5.180
14753SOL     OW46091  12.650   8.124   5.059
14753SOL    HW146092  12.563   8.101   5.091
14753SOL    HW246093  12.711   8.081   5.119
14754SOL     OW46094   7.398   9.412   1.347
14754SOL    HW146095   7.313   9.369   1.333
14754SOL    HW246096   7.380   9.479   1.413
14755SOL     OW46097   7.262   2.457   9.215
14755SOL    HW146098   7.333   2.448   9.279
14755SOL    HW246099   7.293   2.409   9.138
14756SOL     OW46100   4.637  11.342   0.904
14756SOL    HW146101   4.622  11.433   0.932
14756SOL    HW246102   4.620  11.290   0.982
14757SOL     OW46103  12.411   7.903  14.210
14757SOL    HW146104  12.403   7.989  14.251
14757SOL    HW246105  12.501   7.876  14.229
14758SOL     OW46106  12.307  13.671  13.387
14758SOL    HW146107  12.397  13.703  13.373
14758SOL    HW246108  12.316  13.602  13.452
14759SOL     OW46109   9.112  13.261  10.884
14759SOL    HW146110   9.031  13.225  10.921
14759SOL    HW246111   9.090  13.351  10.860
14760SOL     OW46112   5.153   6.011   1.426
14760SOL    HW146113   5.107   6.006   1.342
14760SOL    HW246114   5.244   5.994   1.404
14761SOL     OW46115  13.774  10.326   0.416
14761SOL    HW146116  13.746  10.294   0.502
14761SOL    HW246117  13.712  10.288   0.354
14762SOL     OW46118   5.498   0.521   1.552
14762SOL    HW146119   5.404   0.513   1.567
14762SOL    HW246120   5.506   0.598   1.494
14763SOL     OW46121  12.779   8.474  14.293
14763SOL    HW146122  12.857   8.433  14.332
14763SOL    HW246123  12.717   8.479  14.366
14764SOL     OW46124   3.863   7.535   7.571
14764SOL    HW146125   3.889   7.573   7.486
14764SOL    HW246126   3.779   7.576   7.590
14765SOL     OW46127  14.283  11.790   9.878
14765SOL    HW146128  14.299  11.811   9.970
14765SOL    HW246129  14.210  11.847   9.852
14766SOL     OW46130   8.418   9.814  14.770
14766SOL    HW146131   8.460   9.800  14.855
14766SOL    HW246132   8.356   9.886  14.786
14767SOL     OW46133   9.840   3.626   0.375
14767SOL    HW146134   9.903   3.672   0.430
14767SOL    HW246135   9.888   3.607   0.294
14768SOL     OW46136  13.986   3.103   4.255
14768SOL    HW146137  14.059   3.056   4.295
14768SOL    HW246138  13.957   3.046   4.184
14769SOL     OW46139   5.657  10.400   2.700
14769SOL    HW146140   5.606  10.319   2.697
14769SOL    HW246141   5.608  10.457   2.759
14770SOL     OW46142   7.792  10.536  10.695
14770SOL    HW146143   7.834  10.488  10.766
14770SOL    HW246144   7.701  10.545  10.724
14771SOL     OW46145  12.000   8.543  10.010
14771SOL    HW146146  12.003   8.583  10.096
14771SOL    HW246147  11.928   8.587   9.964
14772SOL     OW46148  12.493   5.318  11.548
14772SOL    HW146149  12.407   5.287  11.519
14772SOL    HW246150  12.475   5.402  11.591
14773SOL     OW46151   2.926  11.092   0.642
14773SOL    HW146152   2.992  11.141   0.692
14773SOL    HW246153   2.973  11.063   0.564
14774SOL     OW46154  12.551   8.785   4.231
14774SOL    HW146155  12.545   8.802   4.325
14774SOL    HW246156  12.567   8.870   4.191
14775SOL     OW46157   1.109   5.771  14.564
14775SOL    HW146158   1.097   5.800  14.655
14775SOL    HW246159   1.127   5.677  14.571
14776SOL     OW46160  11.501   5.537  10.722
14776SOL    HW146161  11.576   5.526  10.780
14776SOL    HW246162  11.449   5.607  10.761
14777SOL     OW46163   6.774   6.375   9.323
14777SOL    HW146164   6.832   6.448   9.345
14777SOL    HW246165   6.830   6.313   9.275
14778SOL     OW46166  11.489   2.419   1.976
14778SOL    HW146167  11.456   2.356   2.040
14778SOL    HW246168  11.411   2.451   1.931
14779SOL     OW46169   8.206   4.087   7.167
14779SOL    HW146170   8.219   4.113   7.076
14779SOL    HW246171   8.290   4.106   7.209
14780SOL     OW46172  11.613   8.670  12.203
14780SOL    HW146173  11.561   8.706  12.131
14780SOL    HW246174  11.645   8.747  12.250
14781SOL     OW46175   3.186   7.042  14.153
14781SOL    HW146176   3.247   6.973  14.179
14781SOL    HW246177   3.223   7.122  14.188
14782SOL     OW46178   5.990   8.466  14.830
14782SOL    HW146179   6.082   8.476  14.857
14782SOL    HW246180   5.996   8.421  14.745
14783SOL     OW46181   1.524   4.617   4.269
14783SOL    HW146182   1.548   4.648   4.182
14783SOL    HW246183   1.601   4.570   4.300
14784SOL     OW46184   6.951   2.743   1.587
14784SOL    HW146185   7.002   2.707   1.660
14784SOL    HW246186   6.948   2.837   1.604
14785SOL     OW46187  14.607   7.064   0.575
14785SOL    HW146188  14.641   7.027   0.493
14785SOL    HW246189  14.513   7.044   0.572
14786SOL     OW46190   2.045   4.743   1.756
14786SOL    HW146191   2.079   4.728   1.844
14786SOL    HW246192   2.052   4.658   1.713
14787SOL     OW46193   7.213  11.522   1.801
14787SOL    HW146194   7.214  11.522   1.705
14787SOL    HW246195   7.295  11.480   1.826
14788SOL     OW46196   2.640   9.902   1.949
14788SOL    HW146197   2.645   9.991   1.985
14788SOL    HW246198   2.553   9.871   1.976
14789SOL     OW46199   5.732  12.190   3.003
14789SOL    HW146200   5.669  12.124   2.976
14789SOL    HW246201   5.679  12.265   3.029
14790SOL     OW46202   7.029  12.404   4.268
14790SOL    HW146203   7.006  12.375   4.356
14790SOL    HW246204   7.004  12.332   4.211
14791SOL     OW46205   8.095  13.690   5.399
14791SOL    HW146206   8.157  13.718   5.466
14791SOL    HW246207   8.099  13.759   5.332
14792SOL     OW46208   8.883  14.722  14.814
14792SOL    HW146209   8.828  14.658  14.859
14792SOL    HW246210   8.840  14.736  14.730
14793SOL     OW46211   9.508   3.799  12.142
14793SOL    HW146212   9.518   3.724  12.201
14793SOL    HW246213   9.583   3.855  12.160
14794SOL     OW46214   4.062   3.734  12.486
14794SOL    HW146215   4.112   3.774  12.415
14794SOL    HW246216   3.983   3.787  12.492
14795SOL     OW46217   5.761   6.359   3.611
14795SOL    HW146218   5.735   6.275   3.648
14795SOL    HW246219   5.766   6.344   3.517
14796SOL     OW46220   2.469  11.434   6.782
14796SOL    HW146221   2.453  11.442   6.687
14796SOL    HW246222   2.548  11.381   6.789
14797SOL     OW46223   6.101   7.311   8.753
14797SOL    HW146224   6.041   7.375   8.715
14797SOL    HW246225   6.092   7.322   8.848
14798SOL     OW46226   6.992   4.765   3.357
14798SOL    HW146227   6.991   4.848   3.405
14798SOL    HW246228   6.972   4.789   3.267
14799SOL     OW46229   3.427   2.941   8.124
14799SOL    HW146230   3.484   2.927   8.048
14799SOL    HW246231   3.338   2.935   8.088
14800SOL     OW46232   2.826   2.548  10.736
14800SOL    HW146233   2.763   2.615  10.709
14800SOL    HW246234   2.855   2.508  10.654
14801SOL     OW46235   1.963  10.139  13.184
14801SOL    HW146236   1.868  10.124  13.191
14801SOL    HW246237   2.001  10.051  13.189
14802SOL     OW46238   8.725  12.461   0.283
14802SOL    HW146239   8.688  12.523   0.346
14802SOL    HW246240   8.655  12.397   0.269
14803SOL     OW46241   1.520   1.227   7.235
14803SOL    HW146242   1.431   1.193   7.232
14803SOL    HW246243   1.557   1.191   7.315
14804SOL     OW46244   5.578  12.993   6.888
14804SOL    HW146245   5.625  13.066   6.928
14804SOL    HW246246   5.516  12.965   6.955
14805SOL     OW46247   2.400  10.512   4.867
14805SOL    HW146248   2.436  10.468   4.791
14805SOL    HW246249   2.357  10.590   4.832
14806SOL     OW46250   5.988   0.079   2.150
14806SOL    HW146251   6.052   0.028   2.200
14806SOL    HW246252   6.034   0.103   2.070
14807SOL     OW46253  12.071   6.275   2.800
14807SOL    HW146254  11.985   6.295   2.837
14807SOL    HW246255  12.108   6.361   2.779
14808SOL     OW46256  13.745  10.744  11.024
14808SOL    HW146257  13.754  10.676  10.958
14808SOL    HW246258  13.659  10.781  11.009
14809SOL     OW46259  10.119   7.048   5.237
14809SOL    HW146260  10.037   7.035   5.188
14809SOL    HW246261  10.170   7.107   5.182
14810SOL     OW46262  11.814  13.823  11.849
14810SOL    HW146263  11.835  13.806  11.757
14810SOL    HW246264  11.838  13.742  11.894
14811SOL     OW46265   1.766  10.471  13.310
14811SOL    HW146266   1.694  10.533  13.299
14811SOL    HW246267   1.745  10.423  13.391
14812SOL     OW46268  14.756   8.653   1.776
14812SOL    HW146269  14.766   8.573   1.725
14812SOL    HW246270  14.690   8.704   1.728
14813SOL     OW46271  11.644  12.305   7.619
14813SOL    HW146272  11.577  12.249   7.579
14813SOL    HW246273  11.724  12.251   7.617
14814SOL     OW46274  11.709   8.353   1.018
14814SOL    HW146275  11.772   8.405   1.069
14814SOL    HW246276  11.719   8.386   0.928
14815SOL     OW46277   0.822  13.278  13.358
14815SOL    HW146278   0.900  13.224  13.345
14815SOL    HW246279   0.843  13.361  13.317
14816SOL     OW46280   1.714   5.946  12.036
14816SOL    HW146281   1.673   5.861  12.016
14816SOL    HW246282   1.672   5.974  12.117
14817SOL     OW46283   5.125   3.389   0.392
14817SOL    HW146284   5.183   3.390   0.468
14817SOL    HW246285   5.183   3.392   0.316
14818SOL     OW46286  10.327  14.460  13.383
14818SOL    HW146287  10.401  14.512  13.352
14818SOL    HW246288  10.362  14.408  13.455
14819SOL     OW46289   2.958   6.697   4.250
14819SOL    HW146290   3.000   6.622   4.292
14819SOL    HW246291   2.934   6.665   4.163
14820SOL     OW46292   3.550   5.994   0.243
14820SOL    HW146293   3.584   6.080   0.217
14820SOL    HW246294   3.626   5.948   0.278
14821SOL     OW46295  11.707   4.279   4.396
14821SOL    HW146296  11.650   4.225   4.341
14821SOL    HW246297  11.786   4.226   4.407
14822SOL     OW46298   2.315   0.659   4.828
14822SOL    HW146299   2.394   0.708   4.853
14822SOL    HW246300   2.325   0.645   4.734
14823SOL     OW46301  11.707   5.351   3.803
14823SOL    HW146302  11.639   5.412   3.773
14823SOL    HW246303  11.680   5.267   3.767
14824SOL     OW46304  10.321   6.777  13.306
14824SOL    HW146305  10.278   6.771  13.391
14824SOL    HW246306  10.253   6.811  13.248
14825SOL     OW46307  10.999   2.705   7.820
14825SOL    HW146308  10.951   2.705   7.738
14825SOL    HW246309  11.005   2.797   7.845
14826SOL     OW46310   4.933   4.509   4.632
14826SOL    HW146311   4.944   4.576   4.565
14826SOL    HW246312   5.019   4.502   4.673
14827SOL     OW46313   6.538  12.878   8.468
14827SOL    HW146314   6.493  12.945   8.417
14827SOL    HW246315   6.518  12.899   8.559
14828SOL     OW46316  11.565   6.131   5.108
14828SOL    HW146317  11.564   6.036   5.097
14828SOL    HW246318  11.549   6.166   5.021
14829SOL     OW46319   9.311   5.125  10.207
14829SOL    HW146320   9.341   5.126  10.117
14829SOL    HW246321   9.360   5.195  10.250
14830SOL     OW46322  13.394  12.923  11.226
14830SOL    HW146323  13.317  12.870  11.243
14830SOL    HW246324  13.464  12.860  11.211
14831SOL     OW46325  14.436   7.302   5.579
14831SOL    HW146326  14.378   7.355   5.524
14831SOL    HW246327  14.442   7.352   5.661
14832SOL     OW46328  13.927  12.772   9.509
14832SOL    HW146329  13.972  12.707   9.456
14832SOL    HW246330  13.903  12.725   9.589
14833SOL     OW46331   8.171   4.544   7.690
14833SOL    HW146332   8.176   4.639   7.697
14833SOL    HW246333   8.197   4.525   7.600
14834SOL     OW46334   3.670   3.917  14.263
14834SOL    HW146335   3.741   3.936  14.201
14834SOL    HW246336   3.627   3.839  14.227
14835SOL     OW46337   5.013  13.466   8.414
14835SOL    HW146338   4.920  13.446   8.418
14835SOL    HW246339   5.019  13.559   8.432
14836SOL     OW46340   5.698   2.264  11.553
14836SOL    HW146341   5.775   2.246  11.499
14836SOL    HW246342   5.688   2.359  11.552
14837SOL     OW46343   2.332   5.742   2.612
14837SOL    HW146344   2.314   5.828   2.574
14837SOL    HW246345   2.398   5.703   2.555
14838SOL     OW46346   3.855  10.683  13.816
14838SOL    HW146347   3.924  10.629  13.854
14838SOL    HW246348   3.880  10.693  13.724
14839SOL     OW46349  13.190   1.356   0.945
14839SOL    HW146350  13.160   1.276   0.988
14839SOL    HW246351  13.221   1.327   0.859
14840SOL     OW46352   6.109  11.816  11.575
14840SOL    HW146353   6.110  11.771  11.490
14840SOL    HW246354   6.187  11.870  11.575
14841SOL     OW46355   8.883   7.207   4.508
14841SOL    HW146356   8.942   7.269   4.465
14841SOL    HW246357   8.937   7.128   4.521
14842SOL     OW46358   3.924  13.582   6.538
14842SOL    HW146359   3.879  13.498   6.540
14842SOL    HW246360   3.980  13.582   6.616
14843SOL     OW46361   6.626  13.553   7.805
14843SOL    HW146362   6.661  13.510   7.883
14843SOL    HW246363   6.651  13.645   7.815
14844SOL     OW46364   0.512   6.708  14.593
14844SOL    HW146365   0.525   6.741  14.504
14844SOL    HW246366   0.563   6.626  14.595
14845SOL     OW46367   4.355   8.779  11.978
14845SOL    HW146368   4.289   8.815  11.919
14845SOL    HW246369   4.311   8.707  12.023
14846SOL     OW46370   8.201  13.755   4.788
14846SOL    HW146371   8.221  13.677   4.736
14846SOL    HW246372   8.256  13.747   4.866
14847SOL     OW46373   9.200   1.221   1.839
14847SOL    HW146374   9.192   1.164   1.915
14847SOL    HW246375   9.214   1.161   1.765
14848SOL     OW46376  13.454   1.881  11.972
14848SOL    HW146377  13.382   1.856  12.031
14848SOL    HW246378  13.509   1.803  11.968
14849SOL     OW46379   6.582  10.354   1.749
14849SOL    HW146380   6.493  10.376   1.721
14849SOL    HW246381   6.607  10.424   1.809
14850SOL     OW46382  10.707   9.020  12.737
14850SOL    HW146383  10.659   9.019  12.654
14850SOL    HW246384  10.721   9.113  12.756
14851SOL     OW46385   2.911   9.784   0.433
14851SOL    HW146386   2.968   9.743   0.369
14851SOL    HW246387   2.833   9.729   0.434
14852SOL     OW46388   1.252  13.858   9.620
14852SOL    HW146389   1.313  13.831   9.551
14852SOL    HW246390   1.223  13.945   9.594
14853SOL     OW46391   9.638   3.056   9.355
14853SOL    HW146392   9.564   3.061   9.295
14853SOL    HW246393   9.716   3.061   9.299
14854SOL     OW46394  12.651  12.441   3.063
14854SOL    HW146395  12.654  12.418   2.970
14854SOL    HW246396  12.736  12.482   3.080
14855SOL     OW46397   0.868   2.209   5.602
14855SOL    HW146398   0.826   2.284   5.561
14855SOL    HW246399   0.881   2.147   5.530
14856SOL     OW46400   6.184   9.480   7.396
14856SOL    HW146401   6.231   9.435   7.466
14856SOL    HW246402   6.154   9.410   7.339
14857SOL     OW46403   2.895  11.707  11.944
14857SOL    HW146404   2.863  11.617  11.940
14857SOL    HW246405   2.958  11.707  12.017
14858SOL     OW46406   8.565   3.223  10.155
14858SOL    HW146407   8.608   3.204  10.072
14858SOL    HW246408   8.473   3.238  10.132
14859SOL     OW46409   6.019   9.684  12.114
14859SOL    HW146410   5.995   9.599  12.079
14859SOL    HW246411   6.109   9.673  12.145
14860SOL     OW46412  14.585  11.347  12.076
14860SOL    HW146413  14.548  11.329  11.990
14860SOL    HW246414  14.518  11.400  12.120
14861SOL     OW46415  10.604   3.929  10.404
14861SOL    HW146416  10.645   3.937  10.318
14861SOL    HW246417  10.543   4.003  10.408
14862SOL     OW46418   3.281  11.533  13.837
14862SOL    HW146419   3.342  11.468  13.871
14862SOL    HW246420   3.313  11.554  13.750
14863SOL     OW46421  13.118   6.201   9.163
14863SOL    HW146422  13.149   6.214   9.252
14863SOL    HW246423  13.112   6.289   9.125
14864SOL     OW46424  14.690   9.624   5.050
14864SOL    HW146425  14.775   9.579   5.047
14864SOL    HW246426  14.703   9.697   5.110
14865SOL     OW46427   5.421   5.308  11.633
14865SOL    HW146428   5.443   5.215  11.639
14865SOL    HW246429   5.390   5.319  11.543
14866SOL     OW46430   5.462   2.235  11.854
14866SOL    HW146431   5.451   2.143  11.828
14866SOL    HW246432   5.454   2.284  11.772
14867SOL     OW46433   6.138  12.772   2.262
14867SOL    HW146434   6.101  12.856   2.286
14867SOL    HW246435   6.120  12.715   2.337
14868SOL     OW46436  13.726   9.546   7.806
14868SOL    HW146437  13.746   9.507   7.891
14868SOL    HW246438  13.668   9.483   7.764
14869SOL     OW46439   7.912  14.738   7.722
14869SOL    HW146440   7.846  14.690   7.672
14869SOL    HW246441   7.885  14.728   7.813
14870SOL     OW46442  12.134   6.357   9.244
14870SOL    HW146443  12.171   6.286   9.190
14870SOL    HW246444  12.048   6.325   9.270
14871SOL     OW46445  10.272   8.124  10.582
14871SOL    HW146446  10.345   8.148  10.525
14871SOL    HW246447  10.195   8.163  10.541
14872SOL     OW46448  13.611   8.946  14.483
14872SOL    HW146449  13.576   9.035  14.486
14872SOL    HW246450  13.535   8.890  14.466
14873SOL     OW46451   9.520   0.227   2.593
14873SOL    HW146452   9.595   0.177   2.561
14873SOL    HW246453   9.448   0.164   2.595
14874SOL     OW46454   9.221   6.833   6.144
14874SOL    HW146455   9.210   6.738   6.144
14874SOL    HW246456   9.293   6.848   6.205
14875SOL     OW46457   9.517  12.692   0.203
14875SOL    HW146458   9.599  12.660   0.165
14875SOL    HW246459   9.474  12.614   0.238
14876SOL     OW46460  13.444   9.748   7.859
14876SOL    HW146461  13.512   9.681   7.857
14876SOL    HW246462  13.437   9.777   7.768
14877SOL     OW46463   9.704   8.352  10.974
14877SOL    HW146464   9.693   8.259  10.956
14877SOL    HW246465   9.684   8.395  10.890
14878SOL     OW46466  14.825   5.765   7.499
14878SOL    HW146467   0.041   5.768   7.509
14878SOL    HW246468  14.792   5.733   7.583
14879SOL     OW46469   2.826   1.529   6.455
14879SOL    HW146470   2.799   1.464   6.390
14879SOL    HW246471   2.916   1.506   6.476
14880SOL     OW46472   6.093   7.831   2.674
14880SOL    HW146473   6.037   7.874   2.739
14880SOL    HW246474   6.162   7.790   2.726
14881SOL     OW46475   3.407   9.338   9.290
14881SOL    HW146476   3.376   9.315   9.378
14881SOL    HW246477   3.375   9.268   9.234
14882SOL     OW46478  10.424   1.608   0.911
14882SOL    HW146479  10.350   1.666   0.895
14882SOL    HW246480  10.462   1.641   0.993
14883SOL     OW46481   5.020   7.680   4.186
14883SOL    HW146482   4.967   7.601   4.202
14883SOL    HW246483   5.097   7.647   4.139
14884SOL     OW46484  13.825  12.869   5.418
14884SOL    HW146485  13.912  12.892   5.388
14884SOL    HW246486  13.832  12.778   5.446
14885SOL     OW46487   9.389   8.670   3.364
14885SOL    HW146488   9.324   8.633   3.424
14885SOL    HW246489   9.347   8.669   3.278
14886SOL     OW46490   7.871   6.175  10.545
14886SOL    HW146491   7.891   6.082  10.554
14886SOL    HW246492   7.922   6.217  10.615
14887SOL     OW46493   9.188   2.588  13.142
14887SOL    HW146494   9.112   2.531  13.148
14887SOL    HW246495   9.162   2.668  13.187
14888SOL     OW46496  10.197  11.673  10.383
14888SOL    HW146497  10.257  11.599  10.392
14888SOL    HW246498  10.253  11.750  10.383
14889SOL     OW46499   7.069   2.490  11.084
14889SOL    HW146500   7.015   2.411  11.090
14889SOL    HW246501   7.007   2.562  11.098
14890SOL     OW46502   8.282  13.129  13.132
14890SOL    HW146503   8.268  13.086  13.217
14890SOL    HW246504   8.273  13.223  13.151
14891SOL     OW46505   5.984  10.929   0.839
14891SOL    HW146506   5.973  10.962   0.929
14891SOL    HW246507   5.970  11.006   0.784
14892SOL     OW46508   0.077  11.143   0.533
14892SOL    HW146509   0.004  11.096   0.493
14892SOL    HW246510   0.049  11.234   0.535
14893SOL     OW46511   6.987   5.068   6.930
14893SOL    HW146512   6.909   5.123   6.936
14893SOL    HW246513   6.953   4.981   6.910
14894SOL     OW46514  12.248  14.590   9.889
14894SOL    HW146515  12.203  14.505   9.892
14894SOL    HW246516  12.199  14.645   9.949
14895SOL     OW46517   1.937   6.119   5.068
14895SOL    HW146518   2.027   6.115   5.100
14895SOL    HW246519   1.884   6.136   5.146
14896SOL     OW46520  12.184   8.176  10.842
14896SOL    HW146521  12.089   8.173  10.840
14896SOL    HW246522  12.209   8.206  10.755
14897SOL     OW46523   0.180   4.142   9.314
14897SOL    HW146524   0.268   4.179   9.319
14897SOL    HW246525   0.125   4.203   9.363
14898SOL     OW46526   7.792   5.114  10.328
14898SOL    HW146527   7.726   5.171  10.367
14898SOL    HW246528   7.744   5.035  10.303
14899SOL     OW46529   7.278  10.791   4.296
14899SOL    HW146530   7.188  10.803   4.326
14899SOL    HW246531   7.316  10.730   4.359
14900SOL     OW46532   8.497  11.938   9.597
14900SOL    HW146533   8.539  11.854   9.617
14900SOL    HW246534   8.562  12.004   9.620
14901SOL     OW46535  12.117   4.927   0.491
14901SOL    HW146536  12.062   4.992   0.534
14901SOL    HW246537  12.054   4.866   0.451
14902SOL     OW46538   4.835  13.662   1.668
14902SOL    HW146539   4.852  13.684   1.576
14902SOL    HW246540   4.865  13.739   1.717
14903SOL     OW46541   6.522  14.243   6.414
14903SOL    HW146542   6.492  14.246   6.505
14903SOL    HW246543   6.505  14.331   6.381
14904SOL     OW46544   5.410  11.806  14.756
14904SOL    HW146545   5.395  11.875  14.692
14904SOL    HW246546   5.483  11.755  14.720
14905SOL     OW46547   9.830   7.861   1.670
14905SOL    HW146548   9.879   7.828   1.595
14905SOL    HW246549   9.758   7.912   1.631
14906SOL     OW46550   0.025   7.386  12.261
14906SOL    HW146551   0.007   7.292  12.270
14906SOL    HW246552   0.011   7.421  12.349
14907SOL     OW46553   2.529   1.530  13.988
14907SOL    HW146554   2.585   1.455  13.965
14907SOL    HW246555   2.458   1.527  13.924
14908SOL     OW46556   0.478   8.502   3.417
14908SOL    HW146557   0.434   8.419   3.401
14908SOL    HW246558   0.513   8.494   3.506
14909SOL     OW46559   8.623   4.260  12.699
14909SOL    HW146560   8.688   4.191  12.711
14909SOL    HW246561   8.542   4.213  12.680
14910SOL     OW46562   2.707   6.117  12.066
14910SOL    HW146563   2.800   6.109  12.047
14910SOL    HW246564   2.675   6.027  12.067
14911SOL     OW46565   9.163   4.294   3.902
14911SOL    HW146566   9.245   4.334   3.932
14911SOL    HW246567   9.190   4.224   3.842
14912SOL     OW46568  11.617  11.641   5.007
14912SOL    HW146569  11.695  11.695   5.021
14912SOL    HW246570  11.545  11.704   5.006
14913SOL     OW46571  11.137  14.847  13.703
14913SOL    HW146572  11.214   0.024  13.704
14913SOL    HW246573  11.097  14.862  13.618
14914SOL     OW46574   5.324  14.342  10.366
14914SOL    HW146575   5.368  14.260  10.388
14914SOL    HW246576   5.249  14.345  10.426
14915SOL     OW46577  14.714  13.462   0.843
14915SOL    HW146578  14.793  13.513   0.855
14915SOL    HW246579  14.652  13.497   0.908
14916SOL     OW46580  10.232   6.188   5.203
14916SOL    HW146581  10.228   6.283   5.198
14916SOL    HW246582  10.169   6.157   5.139
14917SOL     OW46583  13.188  10.098   2.620
14917SOL    HW146584  13.192  10.162   2.691
14917SOL    HW246585  13.275  10.101   2.581
14918SOL     OW46586  10.690   0.114   0.085
14918SOL    HW146587  10.707   0.049   0.154
14918SOL    HW246588  10.776   0.133   0.049
14919SOL     OW46589  10.941   9.885  12.991
14919SOL    HW146590  10.986   9.803  13.008
14919SOL    HW246591  10.911   9.915  13.077
14920SOL     OW46592  12.947   9.566   0.201
14920SOL    HW146593  12.916   9.482   0.236
14920SOL    HW246594  12.882   9.630   0.231
14921SOL     OW46595   8.866   9.407  10.451
14921SOL    HW146596   8.956   9.377  10.465
14921SOL    HW246597   8.838   9.360  10.373
14922SOL     OW46598   1.357   0.168   5.447
14922SOL    HW146599   1.352   0.261   5.424
14922SOL    HW246600   1.439   0.138   5.408
14923SOL     OW46601  10.711   7.396   4.408
14923SOL    HW146602  10.706   7.489   4.384
14923SOL    HW246603  10.625   7.360   4.383
14924SOL     OW46604   5.947   9.263   6.252
14924SOL    HW146605   5.882   9.221   6.308
14924SOL    HW246606   6.029   9.258   6.302
14925SOL     OW46607   8.085   3.644   8.094
14925SOL    HW146608   8.103   3.678   8.006
14925SOL    HW246609   8.138   3.564   8.100
14926SOL     OW46610   4.417   6.413   2.667
14926SOL    HW146611   4.349   6.403   2.600
14926SOL    HW246612   4.379   6.373   2.745
14927SOL     OW46613   2.912  10.992   5.905
14927SOL    HW146614   2.819  10.994   5.928
14927SOL    HW246615   2.950  11.065   5.953
14928SOL     OW46616   1.210   7.069   6.634
14928SOL    HW146617   1.251   7.067   6.720
14928SOL    HW246618   1.120   7.099   6.651
14929SOL     OW46619   8.004   3.682   2.007
14929SOL    HW146620   7.948   3.758   1.993
14929SOL    HW246621   8.093   3.717   2.012
14930SOL     OW46622   1.939  11.196   1.058
14930SOL    HW146623   1.860  11.247   1.039
14930SOL    HW246624   2.011  11.257   1.042
14931SOL     OW46625   4.491  14.531  14.258
14931SOL    HW146626   4.529  14.616  14.275
14931SOL    HW246627   4.543  14.496  14.185
14932SOL     OW46628  10.168   7.745   1.906
14932SOL    HW146629  10.198   7.753   1.997
14932SOL    HW246630  10.116   7.824   1.891
14933SOL     OW46631  13.232   8.095   5.434
14933SOL    HW146632  13.180   8.164   5.474
14933SOL    HW246633  13.168   8.036   5.395
14934SOL     OW46634  11.717  14.395   3.337
14934SOL    HW146635  11.754  14.315   3.373
14934SOL    HW246636  11.736  14.462   3.402
14935SOL     OW46637   5.225  13.790   7.812
14935SOL    HW146638   5.203  13.699   7.790
14935SOL    HW246639   5.200  13.840   7.735
14936SOL     OW46640   7.721  11.659   8.684
14936SOL    HW146641   7.686  11.672   8.596
14936SOL    HW246642   7.652  11.689   8.743
14937SOL     OW46643   2.805  12.864   2.221
14937SOL    HW146644   2.870  12.935   2.222
14937SOL    HW246645   2.841  12.798   2.280
14938SOL     OW46646   5.556   4.930   8.010
14938SOL    HW146647   5.604   4.919   7.928
14938SOL    HW246648   5.465   4.945   7.983
14939SOL     OW46649   7.504   3.683   4.290
14939SOL    HW146650   7.492   3.664   4.197
14939SOL    HW246651   7.424   3.652   4.331
14940SOL     OW46652   4.206   7.502   8.231
14940SOL    HW146653   4.110   7.497   8.226
14940SOL    HW246654   4.236   7.434   8.170
14941SOL     OW46655  11.531  14.471   8.641
14941SOL    HW146656  11.541  14.376   8.635
14941SOL    HW246657  11.450  14.489   8.592
14942SOL     OW46658  11.090  11.207   5.856
14942SOL    HW146659  11.167  11.210   5.912
14942SOL    HW246660  11.123  11.187   5.769
14943SOL     OW46661   2.381  12.474  10.486
14943SOL    HW146662   2.332  12.422  10.550
14943SOL    HW246663   2.353  12.564  10.502
14944SOL     OW46664   4.930   5.452   4.382
14944SOL    HW146665   4.888   5.373   4.418
14944SOL    HW246666   4.856   5.506   4.352
14945SOL     OW46667   0.268   8.118   7.267
14945SOL    HW146668   0.319   8.150   7.193
14945SOL    HW246669   0.247   8.196   7.318
14946SOL     OW46670  14.857   3.220   3.000
14946SOL    HW146671  14.852   3.272   2.920
14946SOL    HW246672   0.064   3.243   3.038
14947SOL     OW46673   0.233   7.912   5.213
14947SOL    HW146674   0.327   7.915   5.226
14947SOL    HW246675   0.195   7.931   5.299
14948SOL     OW46676  13.564  13.509   5.221
14948SOL    HW146677  13.472  13.511   5.247
14948SOL    HW246678  13.584  13.599   5.195
14949SOL     OW46679   1.321   3.013   3.995
14949SOL    HW146680   1.330   2.973   3.909
14949SOL    HW246681   1.379   2.961   4.051
14950SOL     OW46682   2.528   8.865   9.728
14950SOL    HW146683   2.583   8.791   9.753
14950SOL    HW246684   2.459   8.827   9.674
14951SOL     OW46685   3.652  13.586  10.728
14951SOL    HW146686   3.576  13.589  10.786
14951SOL    HW246687   3.708  13.518  10.766
14952SOL     OW46688   7.263   6.844  12.332
14952SOL    HW146689   7.340   6.875  12.380
14952SOL    HW246690   7.298   6.806  12.252
14953SOL     OW46691  12.862  13.530   0.082
14953SOL    HW146692  12.851  13.564   0.171
14953SOL    HW246693  12.946  13.484   0.084
14954SOL     OW46694  12.015  12.929   4.401
14954SOL    HW146695  12.091  12.877   4.373
14954SOL    HW246696  12.022  13.010   4.352
14955SOL     OW46697   0.528   6.562   1.556
14955SOL    HW146698   0.595   6.503   1.521
14955SOL    HW246699   0.537   6.553   1.651
14956SOL     OW46700   0.746   3.852   5.285
14956SOL    HW146701   0.696   3.771   5.268
14956SOL    HW246702   0.719   3.877   5.374
14957SOL     OW46703   1.546   0.309  13.840
14957SOL    HW146704   1.535   0.219  13.870
14957SOL    HW246705   1.462   0.351  13.858
14958SOL     OW46706  10.380   5.248   6.049
14958SOL    HW146707  10.309   5.241   6.113
14958SOL    HW246708  10.335   5.268   5.966
14959SOL     OW46709   6.927   9.997   6.335
14959SOL    HW146710   6.862   9.930   6.357
14959SOL    HW246711   6.922  10.059   6.408
14960SOL     OW46712   3.292   6.954  11.777
14960SOL    HW146713   3.260   6.943  11.688
14960SOL    HW246714   3.219   6.994  11.824
14961SOL     OW46715   0.439   3.217   2.063
14961SOL    HW146716   0.484   3.159   2.123
14961SOL    HW246717   0.375   3.161   2.018
14962SOL     OW46718   6.643   0.639   6.154
14962SOL    HW146719   6.628   0.659   6.246
14962SOL    HW246720   6.596   0.708   6.106
14963SOL     OW46721   2.391   5.213   6.239
14963SOL    HW146722   2.434   5.192   6.321
14963SOL    HW246723   2.331   5.139   6.224
14964SOL     OW46724   0.214   1.138   1.737
14964SOL    HW146725   0.167   1.057   1.757
14964SOL    HW246726   0.296   1.131   1.787
14965SOL     OW46727   9.145   2.548  12.646
14965SOL    HW146728   9.053   2.527  12.625
14965SOL    HW246729   9.196   2.495  12.585
14966SOL     OW46730  12.041   4.888   5.614
14966SOL    HW146731  11.972   4.879   5.548
14966SOL    HW246732  11.994   4.892   5.697
14967SOL     OW46733   8.156  11.360   0.356
14967SOL    HW146734   8.075  11.344   0.405
14967SOL    HW246735   8.176  11.451   0.373
14968SOL     OW46736   8.561   9.839   1.990
14968SOL    HW146737   8.647   9.828   1.949
14968SOL    HW246738   8.507   9.771   1.950
14969SOL     OW46739   8.914   7.163  11.068
14969SOL    HW146740   8.941   7.174  11.160
14969SOL    HW246741   8.968   7.091  11.036
14970SOL     OW46742  14.172   1.702  10.313
14970SOL    HW146743  14.143   1.610  10.311
14970SOL    HW246744  14.150   1.736  10.226
14971SOL     OW46745  14.127  12.025  11.893
14971SOL    HW146746  14.220  12.020  11.915
14971SOL    HW246747  14.110  11.946  11.843
14972SOL     OW46748   3.270   5.568   9.726
14972SOL    HW146749   3.327   5.604   9.658
14972SOL    HW246750   3.243   5.645   9.777
14973SOL     OW46751  12.147   2.831   0.906
14973SOL    HW146752  12.141   2.741   0.874
14973SOL    HW246753  12.072   2.841   0.965
14974SOL     OW46754   9.677   5.655   5.495
14974SOL    HW146755   9.657   5.743   5.461
14974SOL    HW246756   9.591   5.616   5.510
14975SOL     OW46757  10.266  13.256   7.374
14975SOL    HW146758  10.296  13.298   7.454
14975SOL    HW246759  10.204  13.318   7.336
14976SOL     OW46760  10.862   4.006   4.691
14976SOL    HW146761  10.927   4.054   4.639
14976SOL    HW246762  10.835   3.934   4.634
14977SOL     OW46763   6.486   9.232   9.479
14977SOL    HW146764   6.477   9.166   9.548
14977SOL    HW246765   6.535   9.303   9.520
14978SOL     OW46766  12.236  12.459   9.028
14978SOL    HW146767  12.182  12.429   9.102
14978SOL    HW246768  12.242  12.554   9.039
14979SOL     OW46769   6.118  13.850   7.580
14979SOL    HW146770   6.183  13.808   7.636
14979SOL    HW246771   6.049  13.877   7.640
14980SOL     OW46772  11.834   2.754  10.417
14980SOL    HW146773  11.793   2.732  10.334
14980SOL    HW246774  11.770   2.727  10.483
14981SOL     OW46775   0.194   1.090  12.730
14981SOL    HW146776   0.284   1.080  12.702
14981SOL    HW246777   0.178   1.184  12.728
14982SOL     OW46778  13.157   9.826  13.557
14982SOL    HW146779  13.084   9.849  13.499
14982SOL    HW246780  13.187   9.910  13.592
14983SOL     OW46781   9.072   3.184  12.519
14983SOL    HW146782   9.158   3.176  12.561
14983SOL    HW246783   9.072   3.116  12.452
14984SOL     OW46784  11.991   1.805   1.478
14984SOL    HW146785  11.897   1.820   1.470
14984SOL    HW246786  12.019   1.868   1.545
14985SOL     OW46787  11.150  12.682   8.889
14985SOL    HW146788  11.156  12.777   8.881
14985SOL    HW246789  11.238  12.650   8.870
14986SOL     OW46790   4.945  12.636   2.845
14986SOL    HW146791   4.915  12.571   2.781
14986SOL    HW246792   4.883  12.708   2.836
14987SOL     OW46793  13.725   3.634  10.253
14987SOL    HW146794  13.793   3.567  10.267
14987SOL    HW246795  13.669   3.627  10.330
14988SOL     OW46796   9.979  13.465   5.885
14988SOL    HW146797   9.988  13.389   5.827
14988SOL    HW246798   9.885  13.473   5.900
14989SOL     OW46799   3.256   6.606   0.509
14989SOL    HW146800   3.245   6.517   0.474
14989SOL    HW246801   3.226   6.663   0.438
14990SOL     OW46802   3.748  10.594   1.599
14990SOL    HW146803   3.821  10.550   1.556
14990SOL    HW246804   3.722  10.535   1.670
14991SOL     OW46805   2.211   2.735   3.116
14991SOL    HW146806   2.206   2.737   3.021
14991SOL    HW246807   2.142   2.675   3.143
14992SOL     OW46808  12.477  13.036  12.733
14992SOL    HW146809  12.463  13.128  12.709
14992SOL    HW246810  12.390  12.996  12.726
14993SOL     OW46811   9.268   2.198   8.734
14993SOL    HW146812   9.311   2.273   8.776
14993SOL    HW246813   9.175   2.219   8.738
14994SOL     OW46814  12.904  13.154  13.805
14994SOL    HW146815  12.944  13.209  13.737
14994SOL    HW246816  12.892  13.069  13.763
14995SOL     OW46817  11.645   0.621   9.390
14995SOL    HW146818  11.664   0.710   9.359
14995SOL    HW246819  11.551   0.609   9.373
14996SOL     OW46820   1.293   7.146   6.874
14996SOL    HW146821   1.240   7.113   6.947
14996SOL    HW246822   1.271   7.239   6.869
14997SOL     OW46823  10.988   3.274  14.569
14997SOL    HW146824  10.935   3.220  14.510
14997SOL    HW246825  10.985   3.361  14.532
14998SOL     OW46826   3.076   9.540   2.892
14998SOL    HW146827   3.126   9.466   2.857
14998SOL    HW246828   3.105   9.615   2.840
14999SOL     OW46829   6.442   6.106   1.552
14999SOL    HW146830   6.447   6.161   1.629
14999SOL    HW246831   6.469   6.019   1.583
15000SOL     OW46832   4.007  11.925  13.149
15000SOL    HW146833   3.991  11.979  13.071
15000SOL    HW246834   4.100  11.937  13.167
15001SOL     OW46835  14.505   8.580   2.197
15001SOL    HW146836  14.463   8.499   2.225
15001SOL    HW246837  14.591   8.553   2.165
15002SOL     OW46838  13.490   3.898   9.611
15002SOL    HW146839  13.541   3.960   9.664
15002SOL    HW246840  13.537   3.815   9.621
15003SOL     OW46841   1.907   0.449  12.433
15003SOL    HW146842   1.816   0.476  12.448
15003SOL    HW246843   1.910   0.357  12.461
15004SOL     OW46844   4.664   6.419   2.743
15004SOL    HW146845   4.569   6.431   2.740
15004SOL    HW246846   4.684   6.364   2.667
15005SOL     OW46847   5.994   9.420  11.072
15005SOL    HW146848   5.991   9.382  11.160
15005SOL    HW246849   6.081   9.398  11.040
15006SOL     OW46850  14.044   8.651  12.753
15006SOL    HW146851  13.997   8.708  12.692
15006SOL    HW246852  14.026   8.562  12.722
15007SOL     OW46853   0.538   9.884   9.213
15007SOL    HW146854   0.464   9.863   9.269
15007SOL    HW246855   0.574   9.799   9.188
15008SOL     OW46856   1.526   7.890  12.821
15008SOL    HW146857   1.440   7.920  12.793
15008SOL    HW246858   1.584   7.964  12.804
15009SOL     OW46859   5.003  14.306   0.393
15009SOL    HW146860   4.991  14.247   0.318
15009SOL    HW246861   4.955  14.263   0.464
15010SOL     OW46862  13.040   6.613  13.157
15010SOL    HW146863  13.071   6.629  13.067
15010SOL    HW246864  13.048   6.518  13.167
15011SOL     OW46865  10.318   6.463   2.670
15011SOL    HW146866  10.343   6.554   2.688
15011SOL    HW246867  10.397   6.423   2.633
15012SOL     OW46868  10.875   4.472   8.391
15012SOL    HW146869  10.927   4.402   8.351
15012SOL    HW246870  10.924   4.497   8.469
15013SOL     OW46871   4.849   4.279   7.531
15013SOL    HW146872   4.930   4.325   7.510
15013SOL    HW246873   4.780   4.335   7.495
15014SOL     OW46874   8.330  11.300   5.127
15014SOL    HW146875   8.253  11.268   5.175
15014SOL    HW246876   8.305  11.293   5.035
15015SOL     OW46877   2.754  12.437  10.633
15015SOL    HW146878   2.768  12.358  10.684
15015SOL    HW246879   2.669  12.470  10.663
15016SOL     OW46880   1.332   7.228   4.017
15016SOL    HW146881   1.249   7.225   4.064
15016SOL    HW246882   1.325   7.159   3.951
15017SOL     OW46883   7.456  12.517   5.229
15017SOL    HW146884   7.491  12.430   5.247
15017SOL    HW246885   7.387  12.502   5.165
15018SOL     OW46886  10.729  13.109   9.098
15018SOL    HW146887  10.740  13.103   9.003
15018SOL    HW246888  10.635  13.115   9.111
15019SOL     OW46889   5.853  14.471   7.814
15019SOL    HW146890   5.924  14.535   7.819
15019SOL    HW246891   5.873  14.406   7.881
15020SOL     OW46892   1.374  12.122   5.836
15020SOL    HW146893   1.336  12.078   5.911
15020SOL    HW246894   1.423  12.054   5.790
15021SOL     OW46895   3.996  12.239   7.900
15021SOL    HW146896   4.076  12.275   7.859
15021SOL    HW246897   3.980  12.297   7.974
15022SOL     OW46898  13.403   2.203  14.337
15022SOL    HW146899  13.473   2.216  14.401
15022SOL    HW246900  13.426   2.122  14.291
15023SOL     OW46901  12.107   1.519   2.153
15023SOL    HW146902  12.169   1.497   2.222
15023SOL    HW246903  12.139   1.602   2.117
15024SOL     OW46904   7.254  14.323   2.318
15024SOL    HW146905   7.206  14.276   2.387
15024SOL    HW246906   7.234  14.275   2.238
15025SOL     OW46907   9.234  11.671   1.851
15025SOL    HW146908   9.265  11.586   1.821
15025SOL    HW246909   9.271  11.733   1.788
15026SOL     OW46910   7.673   7.287   1.302
15026SOL    HW146911   7.713   7.308   1.386
15026SOL    HW246912   7.662   7.192   1.304
15027SOL     OW46913   8.552   2.879  11.490
15027SOL    HW146914   8.554   2.974  11.492
15027SOL    HW246915   8.488   2.856  11.558
15028SOL     OW46916  11.722   9.926  12.448
15028SOL    HW146917  11.780   9.860  12.410
15028SOL    HW246918  11.660   9.876  12.501
15029SOL     OW46919   6.035   4.423   3.117
15029SOL    HW146920   6.079   4.429   3.202
15029SOL    HW246921   6.104   4.406   3.054
15030SOL     OW46922   0.916   6.717   7.579
15030SOL    HW146923   0.988   6.759   7.625
15030SOL    HW246924   0.872   6.664   7.645
15031SOL     OW46925  11.272   8.982  14.020
15031SOL    HW146926  11.177   8.973  14.017
15031SOL    HW246927  11.287   9.049  14.086
15032SOL     OW46928   9.923   0.074   3.598
15032SOL    HW146929   9.934   0.086   3.692
15032SOL    HW246930   9.920   0.163   3.562
15033SOL     OW46931   3.819  12.919   1.144
15033SOL    HW146932   3.806  12.867   1.224
15033SOL    HW246933   3.850  13.004   1.176
15034SOL     OW46934   1.406  12.067  11.067
15034SOL    HW146935   1.414  12.054  10.973
15034SOL    HW246936   1.313  12.088  11.080
15035SOL     OW46937   7.212   2.742   2.038
15035SOL    HW146938   7.285   2.711   2.092
15035SOL    HW246939   7.244   2.824   2.000
15036SOL     OW46940   1.193   4.420   2.497
15036SOL    HW146941   1.285   4.425   2.522
15036SOL    HW246942   1.162   4.340   2.539
15037SOL     OW46943  14.513   4.440  12.718
15037SOL    HW146944  14.550   4.379  12.654
15037SOL    HW246945  14.419   4.423  12.717
15038SOL     OW46946   2.319  11.460   9.935
15038SOL    HW146947   2.241  11.417   9.901
15038SOL    HW246948   2.357  11.505   9.860
15039SOL     OW46949  12.408   4.661   1.885
15039SOL    HW146950  12.401   4.757   1.883
15039SOL    HW246951  12.423   4.636   1.794
15040SOL     OW46952  10.089  11.485  14.752
15040SOL    HW146953  10.164  11.508  14.807
15040SOL    HW246954  10.017  11.539  14.786
15041SOL     OW46955   8.527   3.933  10.589
15041SOL    HW146956   8.483   4.018  10.591
15041SOL    HW246957   8.456   3.869  10.589
15042SOL     OW46958   2.441   8.796   6.869
15042SOL    HW146959   2.489   8.877   6.853
15042SOL    HW246960   2.480   8.761   6.950
15043SOL     OW46961   2.059   0.118   5.777
15043SOL    HW146962   2.004   0.113   5.699
15043SOL    HW246963   2.086   0.028   5.793
15044SOL     OW46964  13.153   8.846   9.807
15044SOL    HW146965  13.088   8.847   9.737
15044SOL    HW246966  13.180   8.937   9.816
15045SOL     OW46967  14.295  14.071   3.687
15045SOL    HW146968  14.284  13.984   3.724
15045SOL    HW246969  14.378  14.102   3.723
15046SOL     OW46970   9.830   9.010   6.515
15046SOL    HW146971   9.873   8.942   6.462
15046SOL    HW246972   9.775   9.057   6.452
15047SOL     OW46973  12.359   6.621   1.276
15047SOL    HW146974  12.302   6.670   1.335
15047SOL    HW246975  12.440   6.610   1.324
15048SOL     OW46976   0.310   0.962   8.738
15048SOL    HW146977   0.369   0.991   8.669
15048SOL    HW246978   0.291   0.871   8.717
15049SOL     OW46979  13.139   9.053  14.795
15049SOL    HW146980  13.115   9.011  14.877
15049SOL    HW246981  13.218   9.103  14.816
15050SOL     OW46982   4.614   0.729  12.744
15050SOL    HW146983   4.646   0.760  12.660
15050SOL    HW246984   4.634   0.635  12.744
15051SOL     OW46985  12.931  13.944   8.663
15051SOL    HW146986  13.025  13.950   8.645
15051SOL    HW246987  12.893  14.019   8.618
15052SOL     OW46988   9.604   2.775   9.253
15052SOL    HW146989   9.640   2.854   9.215
15052SOL    HW246990   9.643   2.770   9.341
15053SOL     OW46991  13.600   7.310   8.329
15053SOL    HW146992  13.666   7.264   8.278
15053SOL    HW246993  13.645   7.336   8.410
15054SOL     OW46994   9.191   3.792   8.686
15054SOL    HW146995   9.263   3.817   8.629
15054SOL    HW246996   9.146   3.874   8.705
15055SOL     OW46997   1.685   4.333  11.137
15055SOL    HW146998   1.688   4.238  11.150
15055SOL    HW246999   1.595   4.351  11.111
15056SOL     OW47000   1.827   5.902   1.261
15056SOL    HW147001   1.774   5.890   1.339
15056SOL    HW247002   1.796   5.836   1.199
15057SOL     OW47003  12.408   5.995  11.137
15057SOL    HW147004  12.481   5.937  11.156
15057SOL    HW247005  12.346   5.941  11.088
15058SOL     OW47006  12.630   2.717  13.965
15058SOL    HW147007  12.582   2.738  13.884
15058SOL    HW247008  12.717   2.690  13.934
15059SOL     OW47009  10.519   5.182   8.738
15059SOL    HW147010  10.447   5.199   8.678
15059SOL    HW247011  10.489   5.109   8.792
15060SOL     OW47012   2.217  12.756   0.020
15060SOL    HW147013   2.232  12.668   0.055
15060SOL    HW247014   2.162  12.742  14.822
15061SOL     OW47015   6.574   6.458  10.671
15061SOL    HW147016   6.605   6.542  10.635
15061SOL    HW247017   6.610   6.392  10.612
15062SOL     OW47018   2.881   1.032   3.424
15062SOL    HW147019   2.818   1.092   3.464
15062SOL    HW247020   2.830   0.956   3.397
15063SOL     OW47021   3.631  10.777   4.597
15063SOL    HW147022   3.636  10.854   4.655
15063SOL    HW247023   3.695  10.716   4.633
15064SOL     OW47024  14.182   4.863  11.180
15064SOL    HW147025  14.262   4.813  11.167
15064SOL    HW247026  14.188   4.896  11.270
15065SOL     OW47027   4.651  11.501   8.166
15065SOL    HW147028   4.686  11.449   8.094
15065SOL    HW247029   4.580  11.552   8.126
15066SOL     OW47030   1.564   6.384   1.099
15066SOL    HW147031   1.544   6.351   1.186
15066SOL    HW247032   1.556   6.308   1.042
15067SOL     OW47033  12.880   0.722  13.821
15067SOL    HW147034  12.874   0.693  13.912
15067SOL    HW247035  12.964   0.769  13.817
15068SOL     OW47036   2.228   4.585   8.057
15068SOL    HW147037   2.215   4.660   8.115
15068SOL    HW247038   2.307   4.606   8.008
15069SOL     OW47039  13.892   2.249   8.187
15069SOL    HW147040  13.933   2.173   8.146
15069SOL    HW247041  13.802   2.222   8.203
15070SOL     OW47042   9.981  13.243  12.968
15070SOL    HW147043  10.036  13.252  12.890
15070SOL    HW247044  10.000  13.155  13.000
15071SOL     OW47045   7.415  11.748  12.569
15071SOL    HW147046   7.356  11.707  12.632
15071SOL    HW247047   7.495  11.696  12.573
15072SOL     OW47048   2.494   0.936  11.106
15072SOL    HW147049   2.575   0.929  11.055
15072SOL    HW247050   2.444   1.004  11.063
15073SOL     OW47051  13.569  12.919   5.413
15073SOL    HW147052  13.532  12.852   5.471
15073SOL    HW247053  13.663  12.902   5.413
15074SOL     OW47054   2.020   1.502  10.612
15074SOL    HW147055   2.101   1.533  10.652
15074SOL    HW247056   1.953   1.563  10.642
15075SOL     OW47057  14.783   6.679   6.675
15075SOL    HW147058  14.703   6.681   6.622
15075SOL    HW247059  14.781   6.593   6.717
15076SOL     OW47060   0.294   1.706   1.769
15076SOL    HW147061   0.225   1.686   1.833
15076SOL    HW247062   0.259   1.780   1.719
15077SOL     OW47063   2.814   7.928  11.441
15077SOL    HW147064   2.791   7.899  11.353
15077SOL    HW247065   2.797   8.022  11.440
15078SOL     OW47066   1.673   3.013  11.434
15078SOL    HW147067   1.580   3.018  11.413
15078SOL    HW247068   1.688   3.084  11.496
15079SOL     OW47069   0.241  12.520  11.444
15079SOL    HW147070   0.146  12.506  11.445
15079SOL    HW247071   0.266  12.510  11.352
15080SOL     OW47072   9.232   6.340   9.556
15080SOL    HW147073   9.210   6.398   9.629
15080SOL    HW247074   9.321   6.367   9.530
15081SOL     OW47075   8.746   9.147   6.533
15081SOL    HW147076   8.800   9.068   6.543
15081SOL    HW247077   8.809   9.216   6.513
15082SOL     OW47078   8.696   4.940  14.164
15082SOL    HW147079   8.602   4.953  14.157
15082SOL    HW247080   8.722   4.903  14.080
15083SOL     OW47081  14.680  12.269   3.282
15083SOL    HW147082  14.763  12.307   3.308
15083SOL    HW247083  14.620  12.291   3.353
15084SOL     OW47084  12.225  14.745  14.383
15084SOL    HW147085  12.174  14.674  14.344
15084SOL    HW247086  12.246  14.714  14.471
15085SOL     OW47087  14.858  10.946   3.217
15085SOL    HW147088  14.846  10.854   3.195
15085SOL    HW247089   0.052  10.975   3.161
15086SOL     OW47090  10.759  12.093   0.215
15086SOL    HW147091  10.746  12.083   0.309
15086SOL    HW247092  10.845  12.132   0.207
15087SOL     OW47093  10.425   6.950   3.982
15087SOL    HW147094  10.368   7.013   3.938
15087SOL    HW247095  10.513   6.981   3.963
15088SOL     OW47096   2.098  14.635   2.726
15088SOL    HW147097   2.123  14.688   2.650
15088SOL    HW247098   2.179  14.625   2.776
15089SOL     OW47099   5.599  14.474   0.976
15089SOL    HW147100   5.534  14.534   1.011
15089SOL    HW247101   5.549  14.395   0.953
15090SOL     OW47102  12.814   2.398   0.895
15090SOL    HW147103  12.847   2.416   0.807
15090SOL    HW247104  12.869   2.452   0.953
15091SOL     OW47105   2.479  10.918   1.160
15091SOL    HW147106   2.457  10.882   1.247
15091SOL    HW247107   2.422  10.995   1.152
15092SOL     OW47108  13.230   3.433  13.652
15092SOL    HW147109  13.226   3.414  13.559
15092SOL    HW247110  13.324   3.436  13.672
15093SOL     OW47111   7.180  11.365   4.380
15093SOL    HW147112   7.111  11.356   4.314
15093SOL    HW247113   7.135  11.352   4.464
15094SOL     OW47114   1.862  13.295   8.839
15094SOL    HW147115   1.904  13.381   8.839
15094SOL    HW247116   1.863  13.268   8.747
15095SOL     OW47117   1.687   0.198  10.808
15095SOL    HW147118   1.618   0.203  10.743
15095SOL    HW247119   1.742   0.125  10.779
15096SOL     OW47120   1.970  11.873   7.090
15096SOL    HW147121   1.888  11.891   7.046
15096SOL    HW247122   2.019  11.818   7.028
15097SOL     OW47123   1.631  12.968  10.542
15097SOL    HW147124   1.564  12.935  10.483
15097SOL    HW247125   1.597  12.951  10.630
15098SOL     OW47126   1.686   5.724   8.837
15098SOL    HW147127   1.735   5.753   8.760
15098SOL    HW247128   1.687   5.629   8.832
15099SOL     OW47129   0.245   6.290   2.003
15099SOL    HW147130   0.286   6.223   2.058
15099SOL    HW247131   0.276   6.373   2.039
15100SOL     OW47132   9.796   6.451   0.521
15100SOL    HW147133   9.813   6.519   0.456
15100SOL    HW247134   9.856   6.470   0.593
15101SOL     OW47135  11.374   5.678   1.675
15101SOL    HW147136  11.288   5.708   1.646
15101SOL    HW247137  11.378   5.586   1.648
15102SOL     OW47138  13.864  10.011  10.506
15102SOL    HW147139  13.948  10.042  10.473
15102SOL    HW247140  13.867   9.916  10.492
15103SOL     OW47141   9.176   4.711  11.947
15103SOL    HW147142   9.192   4.730  12.040
15103SOL    HW247143   9.261   4.724  11.905
15104SOL     OW47144   0.001  10.586   2.327
15104SOL    HW147145   0.011  10.585   2.231
15104SOL    HW247146  14.811  10.650   2.343
15105SOL     OW47147   5.325   6.932   7.879
15105SOL    HW147148   5.390   6.959   7.943
15105SOL    HW247149   5.279   7.012   7.855
15106SOL     OW47150   6.735   6.378   1.082
15106SOL    HW147151   6.672   6.307   1.098
15106SOL    HW247152   6.688   6.457   1.108
15107SOL     OW47153   7.162   6.880  13.622
15107SOL    HW147154   7.226   6.932  13.573
15107SOL    HW247155   7.077   6.918  13.599
15108SOL     OW47156   3.395   1.773  10.187
15108SOL    HW147157   3.357   1.735  10.267
15108SOL    HW247158   3.329   1.836  10.157
15109SOL     OW47159   7.766  13.220  14.708
15109SOL    HW147160   7.797  13.261  14.789
15109SOL    HW247161   7.739  13.132  14.735
15110SOL     OW47162   4.510   7.834   4.195
15110SOL    HW147163   4.588   7.846   4.250
15110SOL    HW247164   4.482   7.923   4.173
15111SOL     OW47165   1.132   5.804   7.254
15111SOL    HW147166   1.158   5.834   7.342
15111SOL    HW247167   1.061   5.862   7.229
15112SOL     OW47168  10.632   7.452  13.898
15112SOL    HW147169  10.648   7.379  13.838
15112SOL    HW247170  10.697   7.518  13.874
15113SOL     OW47171   1.798  11.394  13.270
15113SOL    HW147172   1.743  11.409  13.193
15113SOL    HW247173   1.760  11.316  13.312
15114SOL     OW47174  13.687  10.322  13.633
15114SOL    HW147175  13.623  10.347  13.566
15114SOL    HW247176  13.679  10.227  13.639
15115SOL     OW47177   8.996   8.262  14.770
15115SOL    HW147178   9.043   8.314  14.705
15115SOL    HW247179   9.033   8.288  14.854
15116SOL     OW47180   8.595   5.090  12.335
15116SOL    HW147181   8.554   5.170  12.301
15116SOL    HW247182   8.573   5.023  12.270
15117SOL     OW47183   4.592   7.678   3.969
15117SOL    HW147184   4.575   7.594   4.011
15117SOL    HW247185   4.566   7.743   4.034
15118SOL     OW47186   0.404   0.319  12.421
15118SOL    HW147187   0.355   0.379  12.364
15118SOL    HW247188   0.481   0.369  12.448
15119SOL     OW47189   9.562   8.379   9.084
15119SOL    HW147190   9.551   8.286   9.102
15119SOL    HW247191   9.595   8.381   8.993
15120SOL     OW47192   5.240   8.084   3.618
15120SOL    HW147193   5.156   8.061   3.658
15120SOL    HW247194   5.218   8.116   3.531
15121SOL     OW47195   6.589   5.447   8.870
15121SOL    HW147196   6.626   5.535   8.859
15121SOL    HW247197   6.520   5.459   8.936
15122SOL     OW47198   4.045   5.014  12.670
15122SOL    HW147199   4.020   5.082  12.733
15122SOL    HW247200   4.059   4.936  12.723
15123SOL     OW47201  10.646   7.387   3.994
15123SOL    HW147202  10.589   7.463   3.979
15123SOL    HW247203  10.679   7.399   4.083
15124SOL     OW47204  10.889  11.753   5.748
15124SOL    HW147205  10.822  11.779   5.685
15124SOL    HW247206  10.842  11.746   5.831
15125SOL     OW47207   7.859  12.573   2.624
15125SOL    HW147208   7.942  12.611   2.593
15125SOL    HW247209   7.835  12.627   2.699
15126SOL     OW47210  14.206   9.144   7.430
15126SOL    HW147211  14.231   9.095   7.352
15126SOL    HW247212  14.118   9.112   7.451
15127SOL     OW47213   2.608   9.632  13.176
15127SOL    HW147214   2.605   9.727  13.164
15127SOL    HW247215   2.702   9.611  13.173
15128SOL     OW47216   1.455   4.529   1.658
15128SOL    HW147217   1.363   4.504   1.664
15128SOL    HW247218   1.503   4.446   1.656
15129SOL     OW47219  14.759   0.065  13.930
15129SOL    HW147220  14.827   0.049  13.865
15129SOL    HW247221  14.718  14.858  13.943
15130SOL     OW47222   9.135   1.364   4.020
15130SOL    HW147223   9.051   1.368   4.065
15130SOL    HW247224   9.135   1.440   3.961
15131SOL     OW47225   5.990   7.354   8.193
15131SOL    HW147226   6.066   7.358   8.252
15131SOL    HW247227   6.016   7.406   8.118
15132SOL     OW47228   4.116  14.480  10.476
15132SOL    HW147229   4.109  14.395  10.432
15132SOL    HW247230   4.134  14.458  10.567
15133SOL     OW47231   6.027  14.283   9.434
15133SOL    HW147232   5.983  14.199   9.448
15133SOL    HW247233   5.972  14.346   9.480
15134SOL     OW47234   5.860  11.893   6.960
15134SOL    HW147235   5.934  11.834   6.968
15134SOL    HW247236   5.813  11.863   6.882
15135SOL     OW47237   2.719   4.710   0.201
15135SOL    HW147238   2.630   4.719   0.234
15135SOL    HW247239   2.768   4.669   0.272
15136SOL     OW47240   4.679   4.573  13.203
15136SOL    HW147241   4.724   4.595  13.122
15136SOL    HW247242   4.681   4.477  13.207
15137SOL     OW47243   4.902   3.030   9.933
15137SOL    HW147244   4.921   3.120   9.958
15137SOL    HW247245   4.986   2.994   9.906
15138SOL     OW47246   1.391   5.382   1.891
15138SOL    HW147247   1.298   5.363   1.879
15138SOL    HW247248   1.433   5.341   1.815
15139SOL     OW47249   5.495   8.787   0.665
15139SOL    HW147250   5.438   8.861   0.685
15139SOL    HW247251   5.570   8.825   0.619
15140SOL     OW47252  13.481   7.371   7.820
15140SOL    HW147253  13.553   7.310   7.830
15140SOL    HW247254  13.409   7.332   7.870
15141SOL     OW47255   9.383  11.159   6.160
15141SOL    HW147256   9.421  11.130   6.244
15141SOL    HW247257   9.313  11.096   6.143
15142SOL     OW47258  14.476   7.980   5.407
15142SOL    HW147259  14.467   7.935   5.323
15142SOL    HW247260  14.460   7.912   5.472
15143SOL     OW47261   7.284  14.286  10.030
15143SOL    HW147262   7.308  14.351   9.965
15143SOL    HW247263   7.324  14.204   9.999
15144SOL     OW47264  13.668   6.120   0.349
15144SOL    HW147265  13.652   6.067   0.427
15144SOL    HW247266  13.582   6.129   0.308
15145SOL     OW47267  12.850   9.219   3.410
15145SOL    HW147268  12.909   9.262   3.471
15145SOL    HW247269  12.837   9.284   3.340
15146SOL     OW47270   8.401   6.637   8.711
15146SOL    HW147271   8.470   6.659   8.773
15146SOL    HW247272   8.320   6.644   8.761
15147SOL     OW47273   8.387  13.763   0.580
15147SOL    HW147274   8.336  13.696   0.625
15147SOL    HW247275   8.322  13.824   0.547
15148SOL     OW47276   2.764   0.086   9.178
15148SOL    HW147277   2.853   0.057   9.157
15148SOL    HW247278   2.746   0.155   9.114
15149SOL     OW47279   7.257  14.679  10.556
15149SOL    HW147280   7.312  14.698  10.632
15149SOL    HW247281   7.246  14.584  10.558
15150SOL     OW47282  10.367   0.158  11.246
15150SOL    HW147283  10.340   0.226  11.184
15150SOL    HW247284  10.441   0.114  11.203
15151SOL     OW47285  14.748   8.314   5.166
15151SOL    HW147286  14.732   8.250   5.235
15151SOL    HW247287  14.662   8.325   5.124
15152SOL     OW47288   3.193   7.513   4.183
15152SOL    HW147289   3.142   7.433   4.191
15152SOL    HW247290   3.161   7.555   4.103
15153SOL     OW47291   4.138   5.726   2.873
15153SOL    HW147292   4.092   5.652   2.913
15153SOL    HW247293   4.203   5.752   2.938
15154SOL     OW47294   7.106   4.577  10.237
15154SOL    HW147295   7.075   4.541  10.154
15154SOL    HW247296   7.067   4.521  10.304
15155SOL     OW47297  12.800  11.022   9.388
15155SOL    HW147298  12.710  10.999   9.411
15155SOL    HW247299  12.794  11.113   9.359
15156SOL     OW47300  12.097   2.391  14.744
15156SOL    HW147301  12.108   2.296  14.749
15156SOL    HW247302  12.103   2.411  14.650
15157SOL     OW47303   4.821   0.651   0.394
15157SOL    HW147304   4.764   0.574   0.393
15157SOL    HW247305   4.816   0.683   0.484
15158SOL     OW47306  14.329  11.484   1.111
15158SOL    HW147307  14.322  11.575   1.139
15158SOL    HW247308  14.262  11.473   1.044
15159SOL     OW47309  11.805   9.930   9.476
15159SOL    HW147310  11.856   9.976   9.543
15159SOL    HW247311  11.811   9.985   9.398
15160SOL     OW47312   1.023   1.330   4.434
15160SOL    HW147313   0.952   1.394   4.446
15160SOL    HW247314   0.983   1.259   4.384
15161SOL     OW47315   9.500  11.085  11.023
15161SOL    HW147316   9.544  11.014  11.069
15161SOL    HW247317   9.496  11.156  11.086
15162SOL     OW47318   5.157  10.002  14.492
15162SOL    HW147319   5.226  10.005  14.426
15162SOL    HW247320   5.133  10.094  14.506
15163SOL     OW47321  12.803   3.135   7.778
15163SOL    HW147322  12.892   3.167   7.764
15163SOL    HW247323  12.815   3.044   7.807
15164SOL     OW47324   6.084  10.847   0.265
15164SOL    HW147325   6.010  10.808   0.218
15164SOL    HW247326   6.048  10.870   0.351
15165SOL     OW47327   5.863  11.715   9.715
15165SOL    HW147328   5.835  11.773   9.786
15165SOL    HW247329   5.829  11.629   9.740
15166SOL     OW47330   1.170   2.560   3.160
15166SOL    HW147331   1.101   2.621   3.134
15166SOL    HW247332   1.170   2.562   3.256
15167SOL     OW47333  14.348   4.800   1.571
15167SOL    HW147334  14.427   4.853   1.567
15167SOL    HW247335  14.359   4.749   1.651
15168SOL     OW47336   4.050   6.567   5.274
15168SOL    HW147337   4.105   6.493   5.301
15168SOL    HW247338   4.006   6.594   5.354
15169SOL     OW47339   3.525  12.141  10.350
15169SOL    HW147340   3.525  12.069  10.288
15169SOL    HW247341   3.522  12.099  10.436
15170SOL     OW47342  10.548  11.527   9.160
15170SOL    HW147343  10.552  11.445   9.210
15170SOL    HW247344  10.456  11.537   9.137
15171SOL     OW47345  12.954   1.132   4.707
15171SOL    HW147346  13.015   1.203   4.721
15171SOL    HW247347  12.916   1.115   4.794
15172SOL     OW47348   2.518  12.419   5.344
15172SOL    HW147349   2.548  12.421   5.253
15172SOL    HW247350   2.522  12.327   5.369
15173SOL     OW47351   0.989  13.865   3.230
15173SOL    HW147352   0.959  13.935   3.172
15173SOL    HW247353   0.951  13.886   3.315
15174SOL     OW47354   8.941  11.329  10.335
15174SOL    HW147355   8.918  11.238  10.353
15174SOL    HW247356   8.914  11.343  10.244
15175SOL     OW47357  12.934   9.384   6.269
15175SOL    HW147358  12.916   9.451   6.334
15175SOL    HW247359  12.968   9.310   6.319
15176SOL     OW47360   4.918  10.751  11.847
15176SOL    HW147361   4.852  10.801  11.897
15176SOL    HW247362   4.866  10.693  11.791
15177SOL     OW47363  13.910   0.725  14.219
15177SOL    HW147364  13.925   0.757  14.130
15177SOL    HW247365  13.970   0.651  14.229
15178SOL     OW47366   8.149   0.294  11.801
15178SOL    HW147367   8.213   0.280  11.731
15178SOL    HW247368   8.094   0.216  11.799
15179SOL     OW47369  10.067   1.272   8.705
15179SOL    HW147370  10.039   1.309   8.788
15179SOL    HW247371  10.159   1.297   8.697
15180SOL     OW47372  11.559   3.619   3.442
15180SOL    HW147373  11.552   3.595   3.534
15180SOL    HW247374  11.468   3.623   3.411
15181SOL     OW47375   5.174   6.141   4.187
15181SOL    HW147376   5.134   6.066   4.231
15181SOL    HW247377   5.263   6.145   4.223
15182SOL     OW47378   4.570   3.373   3.703
15182SOL    HW147379   4.505   3.304   3.691
15182SOL    HW247380   4.548   3.412   3.788
15183SOL     OW47381   6.760   6.792   3.488
15183SOL    HW147382   6.683   6.793   3.546
15183SOL    HW247383   6.757   6.706   3.446
15184SOL     OW47384   1.384   9.074  13.857
15184SOL    HW147385   1.387   8.984  13.824
15184SOL    HW247386   1.291   9.094  13.864
15185SOL     OW47387   6.495   7.852   3.501
15185SOL    HW147388   6.452   7.916   3.557
15185SOL    HW247389   6.425   7.791   3.477
15186SOL     OW47390  13.714   6.116  11.662
15186SOL    HW147391  13.683   6.102  11.572
15186SOL    HW247392  13.804   6.083  11.662
15187SOL     OW47393   4.457   4.191   3.604
15187SOL    HW147394   4.366   4.213   3.623
15187SOL    HW247395   4.504   4.274   3.614
15188SOL     OW47396   2.280  12.066   3.983
15188SOL    HW147397   2.270  12.059   3.888
15188SOL    HW247398   2.198  12.105   4.013
15189SOL     OW47399   6.810   0.408   4.383
15189SOL    HW147400   6.725   0.422   4.425
15189SOL    HW247401   6.852   0.494   4.386
15190SOL     OW47402  13.091   8.413   1.492
15190SOL    HW147403  13.071   8.460   1.412
15190SOL    HW247404  13.039   8.332   1.486
15191SOL     OW47405   4.746   6.457  11.146
15191SOL    HW147406   4.758   6.526  11.081
15191SOL    HW247407   4.764   6.499  11.230
15192SOL     OW47408   4.778  10.182   3.387
15192SOL    HW147409   4.762  10.187   3.481
15192SOL    HW247410   4.803  10.091   3.372
15193SOL     OW47411  13.070  10.740  10.511
15193SOL    HW147412  13.125  10.714  10.584
15193SOL    HW247413  13.089  10.833  10.498
15194SOL     OW47414   6.576   9.083   9.223
15194SOL    HW147415   6.567   9.090   9.318
15194SOL    HW247416   6.513   9.016   9.197
15195SOL     OW47417   7.144   2.422   0.471
15195SOL    HW147418   7.100   2.502   0.500
15195SOL    HW247419   7.190   2.448   0.392
15196SOL     OW47420   2.503   0.067   6.860
15196SOL    HW147421   2.564   0.141   6.860
15196SOL    HW247422   2.531   0.013   6.786
15197SOL     OW47423   5.394   5.915  10.669
15197SOL    HW147424   5.442   5.834  10.652
15197SOL    HW247425   5.307   5.886  10.695
15198SOL     OW47426  13.842   5.500   3.900
15198SOL    HW147427  13.815   5.447   3.975
15198SOL    HW247428  13.826   5.444   3.824
15199SOL     OW47429   2.664  10.498  12.760
15199SOL    HW147430   2.682  10.444  12.836
15199SOL    HW247431   2.571  10.522  12.768
15200SOL     OW47432   0.421   7.791   5.898
15200SOL    HW147433   0.339   7.744   5.882
15200SOL    HW247434   0.422   7.861   5.832
15201SOL     OW47435   8.454   0.695   5.168
15201SOL    HW147436   8.384   0.719   5.228
15201SOL    HW247437   8.417   0.710   5.081
15202SOL     OW47438   4.976   8.563   7.581
15202SOL    HW147439   5.060   8.600   7.555
15202SOL    HW247440   4.993   8.470   7.592
15203SOL     OW47441   9.729   6.914   1.689
15203SOL    HW147442   9.676   6.839   1.663
15203SOL    HW247443   9.680   6.990   1.659
15204SOL     OW47444  10.001  12.303   3.684
15204SOL    HW147445   9.929  12.328   3.742
15204SOL    HW247446   9.968  12.226   3.637
15205SOL     OW47447   7.638   6.816   6.114
15205SOL    HW147448   7.547   6.803   6.141
15205SOL    HW247449   7.632   6.858   6.028
15206SOL     OW47450  10.310  14.639  12.365
15206SOL    HW147451  10.342  14.561  12.321
15206SOL    HW247452  10.250  14.679  12.302
15207SOL     OW47453   2.034   2.810   6.382
15207SOL    HW147454   2.082   2.771   6.309
15207SOL    HW247455   1.965   2.862   6.341
15208SOL     OW47456  14.870   3.651   2.911
15208SOL    HW147457   0.020   3.630   3.000
15208SOL    HW247458  14.836   3.741   2.918
15209SOL     OW47459  13.002   0.198   8.340
15209SOL    HW147460  12.936   0.228   8.278
15209SOL    HW247461  13.025   0.110   8.310
15210SOL     OW47462   5.597   2.095   4.073
15210SOL    HW147463   5.558   2.111   4.159
15210SOL    HW247464   5.523   2.083   4.015
15211SOL     OW47465   9.968   3.481   7.420
15211SOL    HW147466   9.936   3.398   7.387
15211SOL    HW247467   9.911   3.547   7.379
15212SOL     OW47468   3.352  10.322  12.815
15212SOL    HW147469   3.262  10.307  12.787
15212SOL    HW247470   3.344  10.379  12.891
15213SOL     OW47471   0.773   2.617   9.128
15213SOL    HW147472   0.831   2.689   9.102
15213SOL    HW247473   0.698   2.625   9.070
15214SOL     OW47474  14.300   9.064   2.131
15214SOL    HW147475  14.355   9.110   2.195
15214SOL    HW247476  14.362   9.028   2.067
15215SOL     OW47477   3.379  11.491   7.765
15215SOL    HW147478   3.402  11.477   7.674
15215SOL    HW247479   3.284  11.475   7.769
15216SOL     OW47480   3.247  12.025   1.487
15216SOL    HW147481   3.317  12.081   1.454
15216SOL    HW247482   3.219  12.067   1.568
15217SOL     OW47483   2.139   9.992   2.670
15217SOL    HW147484   2.201  10.057   2.701
15217SOL    HW247485   2.192   9.927   2.625
15218SOL     OW47486  11.688   0.803  13.096
15218SOL    HW147487  11.602   0.764  13.113
15218SOL    HW247488  11.713   0.844  13.179
15219SOL     OW47489   7.725   7.042  13.048
15219SOL    HW147490   7.721   7.000  13.134
15219SOL    HW247491   7.642   7.019  13.007
15220SOL     OW47492   8.943   8.827   5.431
15220SOL    HW147493   8.922   8.734   5.427
15220SOL    HW247494   8.966   8.842   5.523
15221SOL     OW47495   5.893   0.607   9.849
15221SOL    HW147496   5.926   0.626   9.761
15221SOL    HW247497   5.855   0.520   9.842
15222SOL     OW47498   0.765  13.561  13.675
15222SOL    HW147499   0.854  13.582  13.704
15222SOL    HW247500   0.750  13.618  13.600
15223SOL     OW47501   8.697  12.647   8.505
15223SOL    HW147502   8.629  12.706   8.472
15223SOL    HW247503   8.772  12.704   8.521
15224SOL     OW47504   1.178   5.677   1.348
15224SOL    HW147505   1.264   5.645   1.321
15224SOL    HW247506   1.176   5.665   1.443
15225SOL     OW47507   2.679   0.876  14.156
15225SOL    HW147508   2.623   0.798  14.158
15225SOL    HW247509   2.655   0.924  14.235
15226SOL     OW47510  12.915  12.789  12.546
15226SOL    HW147511  12.879  12.734  12.476
15226SOL    HW247512  12.839  12.835  12.582
15227SOL     OW47513   9.680  13.422   0.750
15227SOL    HW147514   9.597  13.427   0.702
15227SOL    HW247515   9.679  13.336   0.792
15228SOL     OW47516  14.303   7.235   0.465
15228SOL    HW147517  14.295   7.153   0.513
15228SOL    HW247518  14.293   7.210   0.373
15229SOL     OW47519   2.218   6.982   3.935
15229SOL    HW147520   2.238   6.910   3.875
15229SOL    HW247521   2.296   6.990   3.989
15230SOL     OW47522   7.235   9.735  14.093
15230SOL    HW147523   7.174   9.749  14.165
15230SOL    HW247524   7.183   9.691  14.026
15231SOL     OW47525  11.389   3.256   0.431
15231SOL    HW147526  11.466   3.248   0.376
15231SOL    HW247527  11.366   3.166   0.454
15232SOL     OW47528   5.935   3.803   1.118
15232SOL    HW147529   5.913   3.855   1.195
15232SOL    HW247530   5.998   3.738   1.149
15233SOL     OW47531   7.655  11.439   6.351
15233SOL    HW147532   7.666  11.356   6.305
15233SOL    HW247533   7.561  11.457   6.346
15234SOL     OW47534  13.616  10.529   1.796
15234SOL    HW147535  13.661  10.596   1.745
15234SOL    HW247536  13.552  10.577   1.848
15235SOL     OW47537  11.360   1.554  10.719
15235SOL    HW147538  11.436   1.594  10.760
15235SOL    HW247539  11.359   1.588  10.630
15236SOL     OW47540   7.175   4.853   0.292
15236SOL    HW147541   7.187   4.932   0.345
15236SOL    HW247542   7.189   4.882   0.202
15237SOL     OW47543   6.690  10.672   7.545
15237SOL    HW147544   6.683  10.730   7.621
15237SOL    HW247545   6.778  10.636   7.550
15238SOL     OW47546   8.850   3.875   8.053
15238SOL    HW147547   8.851   3.965   8.086
15238SOL    HW247548   8.758   3.852   8.047
15239SOL     OW47549  10.629   5.165   7.812
15239SOL    HW147550  10.575   5.086   7.818
15239SOL    HW247551  10.623   5.204   7.899
15240SOL     OW47552   2.835   1.741  12.703
15240SOL    HW147553   2.907   1.755  12.643
15240SOL    HW247554   2.820   1.827  12.744
15241SOL     OW47555  14.783  11.648   7.600
15241SOL    HW147556  14.725  11.577   7.627
15241SOL    HW247557  14.724  11.723   7.587
15242SOL     OW47558   0.266   3.342   0.347
15242SOL    HW147559   0.259   3.306   0.259
15242SOL    HW247560   0.188   3.309   0.393
15243SOL     OW47561   8.475   7.625   9.824
15243SOL    HW147562   8.479   7.639   9.730
15243SOL    HW247563   8.452   7.711   9.860
15244SOL     OW47564  12.905  14.236   1.711
15244SOL    HW147565  12.964  14.260   1.639
15244SOL    HW247566  12.956  14.175   1.763
15245SOL     OW47567   2.104   7.141   4.620
15245SOL    HW147568   2.140   7.104   4.540
15245SOL    HW247569   2.174   7.194   4.656
15246SOL     OW47570   6.907   4.510  10.476
15246SOL    HW147571   6.812   4.506  10.483
15246SOL    HW247572   6.926   4.600  10.451
15247SOL     OW47573   8.945  13.992   1.283
15247SOL    HW147574   8.992  13.957   1.358
15247SOL    HW247575   8.988  14.076   1.265
15248SOL     OW47576   0.988   6.475   1.984
15248SOL    HW147577   1.001   6.563   2.019
15248SOL    HW247578   0.925   6.486   1.913
15249SOL     OW47579   3.663   0.436   4.750
15249SOL    HW147580   3.608   0.510   4.772
15249SOL    HW247581   3.743   0.475   4.716
15250SOL     OW47582   6.279   8.856  10.187
15250SOL    HW147583   6.350   8.816  10.136
15250SOL    HW247584   6.209   8.790  10.187
15251SOL     OW47585  13.479   4.114   3.891
15251SOL    HW147586  13.557   4.165   3.869
15251SOL    HW247587  13.489   4.033   3.840
15252SOL     OW47588   3.045   6.710   1.550
15252SOL    HW147589   2.958   6.674   1.569
15252SOL    HW247590   3.027   6.797   1.515
15253SOL     OW47591   8.781   1.558   9.573
15253SOL    HW147592   8.856   1.586   9.626
15253SOL    HW247593   8.768   1.466   9.599
15254SOL     OW47594  12.690  11.023   7.942
15254SOL    HW147595  12.601  11.030   7.976
15254SOL    HW247596  12.679  10.998   7.850
15255SOL     OW47597  14.670   2.409   3.087
15255SOL    HW147598  14.583   2.406   3.046
15255SOL    HW247599  14.653   2.405   3.181
15256SOL     OW47600  12.168   8.217   6.697
15256SOL    HW147601  12.210   8.281   6.640
15256SOL    HW247602  12.105   8.268   6.748
15257SOL     OW47603   5.768  12.577  14.737
15257SOL    HW147604   5.721  12.511  14.786
15257SOL    HW247605   5.768  12.655  14.793
15258SOL     OW47606   2.172   5.636   9.848
15258SOL    HW147607   2.239   5.603   9.788
15258SOL    HW247608   2.197   5.602   9.933
15259SOL     OW47609   1.481   0.760  12.345
15259SOL    HW147610   1.546   0.825  12.370
15259SOL    HW247611   1.398   0.807  12.346
15260SOL     OW47612  14.723  13.544   3.026
15260SOL    HW147613  14.748  13.452   3.037
15260SOL    HW247614  14.665  13.562   3.100
15261SOL     OW47615   4.499  13.533   1.289
15261SOL    HW147616   4.537  13.494   1.210
15261SOL    HW247617   4.543  13.617   1.297
15262SOL     OW47618  11.381   5.476   8.411
15262SOL    HW147619  11.374   5.456   8.318
15262SOL    HW247620  11.420   5.398   8.450
15263SOL     OW47621   9.198  12.428   2.931
15263SOL    HW147622   9.129  12.383   2.884
15263SOL    HW247623   9.279  12.383   2.904
15264SOL     OW47624   2.331  11.248  14.479
15264SOL    HW147625   2.236  11.246  14.474
15264SOL    HW247626   2.360  11.231  14.390
15265SOL     OW47627   6.450   0.742  10.431
15265SOL    HW147628   6.463   0.815  10.371
15265SOL    HW247629   6.395   0.681  10.383
15266SOL     OW47630  11.560   2.274   9.140
15266SOL    HW147631  11.564   2.181   9.162
15266SOL    HW247632  11.637   2.288   9.084
15267SOL     OW47633   7.014   0.139  14.167
15267SOL    HW147634   6.935   0.126  14.114
15267SOL    HW247635   7.084   0.150  14.103
15268SOL     OW47636   5.706   9.279   5.046
15268SOL    HW147637   5.679   9.284   5.138
15268SOL    HW247638   5.647   9.214   5.008
15269SOL     OW47639   4.145   5.312  11.992
15269SOL    HW147640   4.072   5.346  12.042
15269SOL    HW247641   4.206   5.386  11.984
15270SOL     OW47642   1.170  13.086   2.512
15270SOL    HW147643   1.118  13.010   2.487
15270SOL    HW247644   1.107  13.145   2.554
15271SOL     OW47645   2.471   9.788   5.089
15271SOL    HW147646   2.430   9.799   5.003
15271SOL    HW247647   2.473   9.876   5.126
15272SOL     OW47648   7.254   4.991  14.603
15272SOL    HW147649   7.219   4.902  14.601
15272SOL    HW247650   7.315   4.995  14.529
15273SOL     OW47651  12.056   4.238   1.041
15273SOL    HW147652  12.069   4.193   0.958
15273SOL    HW247653  12.046   4.169   1.105
15274SOL     OW47654   3.221   2.137  14.180
15274SOL    HW147655   3.222   2.081  14.258
15274SOL    HW247656   3.241   2.224  14.213
15275SOL     OW47657  11.847  11.925   1.536
15275SOL    HW147658  11.900  12.004   1.538
15275SOL    HW247659  11.794  11.933   1.457
15276SOL     OW47660   2.821  12.823   8.636
15276SOL    HW147661   2.862  12.900   8.596
15276SOL    HW247662   2.761  12.859   8.701
15277SOL     OW47663   5.121   7.476  12.508
15277SOL    HW147664   5.163   7.539  12.566
15277SOL    HW247665   5.059   7.529  12.457
15278SOL     OW47666  11.161   9.427  12.425
15278SOL    HW147667  11.086   9.437  12.484
15278SOL    HW247668  11.147   9.494  12.358
15279SOL     OW47669   9.306   5.175   8.412
15279SOL    HW147670   9.220   5.201   8.445
15279SOL    HW247671   9.363   5.248   8.435
15280SOL     OW47672   8.755   8.126   6.879
15280SOL    HW147673   8.801   8.065   6.936
15280SOL    HW247674   8.671   8.140   6.922
15281SOL     OW47675   7.681  14.142  12.440
15281SOL    HW147676   7.680  14.198  12.362
15281SOL    HW247677   7.673  14.053  12.407
15282SOL     OW47678   4.264   5.102  10.943
15282SOL    HW147679   4.218   5.173  10.899
15282SOL    HW247680   4.274   5.034  10.877
15283SOL     OW47681  11.833   9.732   9.916
15283SOL    HW147682  11.788   9.763   9.837
15283SOL    HW247683  11.866   9.812   9.957
15284SOL     OW47684  11.103   6.825   6.515
15284SOL    HW147685  11.062   6.905   6.481
15284SOL    HW247686  11.065   6.813   6.601
15285SOL     OW47687   4.050   5.789  13.552
15285SOL    HW147688   3.974   5.836  13.584
15285SOL    HW247689   4.125   5.842  13.580
15286SOL     OW47690  10.702   7.025   8.951
15286SOL    HW147691  10.666   7.057   9.033
15286SOL    HW247692  10.759   6.952   8.976
15287SOL     OW47693  14.280  12.602   8.651
15287SOL    HW147694  14.357  12.632   8.699
15287SOL    HW247695  14.210  12.662   8.678
15288SOL     OW47696  10.105  13.772   2.035
15288SOL    HW147697  10.115  13.761   2.130
15288SOL    HW247698  10.062  13.691   2.007
15289SOL     OW47699  12.812   2.024  13.933
15289SOL    HW147700  12.747   2.072  13.882
15289SOL    HW247701  12.793   2.047  14.024
15290SOL     OW47702   3.615   0.575   2.042
15290SOL    HW147703   3.678   0.513   2.006
15290SOL    HW247704   3.616   0.558   2.136
15291SOL     OW47705   7.611   6.050   9.849
15291SOL    HW147706   7.566   6.019   9.928
15291SOL    HW247707   7.657   6.129   9.876
15292SOL     OW47708   6.715  14.858   9.729
15292SOL    HW147709   6.744  14.784   9.782
15292SOL    HW247710   6.751  14.840   9.642
15293SOL     OW47711  13.731   9.491   5.851
15293SOL    HW147712  13.641   9.522   5.849
15293SOL    HW247713  13.748   9.469   5.942
15294SOL     OW47714   7.233   3.654   7.165
15294SOL    HW147715   7.232   3.747   7.140
15294SOL    HW247716   7.155   3.643   7.220
15295SOL     OW47717   9.784  12.623   3.108
15295SOL    HW147718   9.741  12.697   3.152
15295SOL    HW247719   9.826  12.662   3.031
15296SOL     OW47720   6.260   6.117  12.289
15296SOL    HW147721   6.316   6.130  12.366
15296SOL    HW247722   6.314   6.146  12.215
15297SOL     OW47723   4.042   8.193   2.225
15297SOL    HW147724   4.006   8.129   2.287
15297SOL    HW247725   3.973   8.204   2.159
15298SOL     OW47726   1.976  12.399   7.516
15298SOL    HW147727   1.941  12.391   7.427
15298SOL    HW247728   1.920  12.342   7.569
15299SOL     OW47729   4.000  10.458   4.505
15299SOL    HW147730   4.095  10.459   4.516
15299SOL    HW247731   3.982  10.380   4.452
15300SOL     OW47732  12.865   6.604  14.326
15300SOL    HW147733  12.948   6.557  14.315
15300SOL    HW247734  12.802   6.536  14.348
15301SOL     OW47735   7.038  13.158   6.361
15301SOL    HW147736   6.964  13.098   6.355
15301SOL    HW247737   6.999  13.242   6.385
15302SOL     OW47738   8.651   5.057   7.811
15302SOL    HW147739   8.607   5.005   7.743
15302SOL    HW247740   8.600   5.137   7.817
15303SOL     OW47741   1.423   9.625  13.183
15303SOL    HW147742   1.503   9.665  13.218
15303SOL    HW247743   1.390   9.570  13.255
15304SOL     OW47744  12.555   1.325   0.996
15304SOL    HW147745  12.586   1.243   0.958
15304SOL    HW247746  12.489   1.298   1.061
15305SOL     OW47747   9.410   1.427   0.343
15305SOL    HW147748   9.315   1.422   0.334
15305SOL    HW247749   9.438   1.474   0.264
15306SOL     OW47750   1.689   8.264  10.253
15306SOL    HW147751   1.775   8.302  10.235
15306SOL    HW247752   1.707   8.188  10.309
15307SOL     OW47753   0.344   4.378   3.069
15307SOL    HW147754   0.305   4.375   2.981
15307SOL    HW247755   0.299   4.449   3.113
15308SOL     OW47756  11.299   3.563   5.247
15308SOL    HW147757  11.355   3.497   5.287
15308SOL    HW247758  11.358   3.615   5.192
15309SOL     OW47759  11.736   1.464   8.399
15309SOL    HW147760  11.816   1.441   8.351
15309SOL    HW247761  11.767   1.501   8.481
15310SOL     OW47762  11.918   7.095  12.396
15310SOL    HW147763  11.917   7.085  12.301
15310SOL    HW247764  11.938   7.187  12.411
15311SOL     OW47765   2.988  11.818  11.014
15311SOL    HW147766   2.901  11.806  10.977
15311SOL    HW247767   3.016  11.730  11.037
15312SOL     OW47768   0.152   4.499   0.311
15312SOL    HW147769   0.192   4.561   0.250
15312SOL    HW247770   0.186   4.414   0.285
15313SOL     OW47771   3.970   5.384  11.698
15313SOL    HW147772   4.032   5.361  11.767
15313SOL    HW247773   3.888   5.401  11.744
15314SOL     OW47774   4.487   5.304  13.345
15314SOL    HW147775   4.519   5.224  13.303
15314SOL    HW247776   4.410   5.328  13.294
15315SOL     OW47777   3.866  11.893  12.566
15315SOL    HW147778   3.925  11.856  12.632
15315SOL    HW247779   3.844  11.818  12.510
15316SOL     OW47780  13.596  14.296  11.127
15316SOL    HW147781  13.621  14.252  11.208
15316SOL    HW247782  13.525  14.243  11.092
15317SOL     OW47783   3.522  14.432   3.183
15317SOL    HW147784   3.487  14.493   3.248
15317SOL    HW247785   3.449  14.372   3.165
15318SOL     OW47786   6.789   7.988  14.714
15318SOL    HW147787   6.786   8.038  14.796
15318SOL    HW247788   6.868   7.935  14.720
15319SOL     OW47789  11.231  12.704   6.703
15319SOL    HW147790  11.297  12.685   6.770
15319SOL    HW247791  11.197  12.790   6.727
15320SOL     OW47792   9.896   9.843   2.775
15320SOL    HW147793   9.979   9.865   2.817
15320SOL    HW247794   9.907   9.752   2.745
15321SOL     OW47795  14.099  13.893   2.593
15321SOL    HW147796  14.184  13.925   2.625
15321SOL    HW247797  14.036  13.957   2.626
15322SOL     OW47798   1.816   6.398   0.644
15322SOL    HW147799   1.838   6.446   0.564
15322SOL    HW247800   1.867   6.440   0.712
15323SOL     OW47801   6.445  13.698   4.066
15323SOL    HW147802   6.497  13.678   4.144
15323SOL    HW247803   6.358  13.720   4.101
15324SOL     OW47804   8.868  14.214   9.833
15324SOL    HW147805   8.902  14.230   9.921
15324SOL    HW247806   8.879  14.120   9.820
15325SOL     OW47807  12.370   1.363   5.100
15325SOL    HW147808  12.373   1.434   5.164
15325SOL    HW247809  12.282   1.366   5.064
15326SOL     OW47810   4.370   3.685   6.614
15326SOL    HW147811   4.297   3.660   6.557
15326SOL    HW247812   4.441   3.707   6.554
15327SOL     OW47813  12.552   0.662  11.936
15327SOL    HW147814  12.585   0.751  11.947
15327SOL    HW247815  12.583   0.616  12.015
15328SOL     OW47816   8.522  11.997   8.086
15328SOL    HW147817   8.541  12.017   8.178
15328SOL    HW247818   8.523  11.902   8.081
15329SOL     OW47819   6.015  14.143   6.002
15329SOL    HW147820   6.076  14.070   6.015
15329SOL    HW247821   6.035  14.203   6.075
15330SOL     OW47822  11.109  13.401   0.433
15330SOL    HW147823  11.131  13.324   0.381
15330SOL    HW247824  11.193  13.444   0.451
15331SOL     OW47825   4.801   3.833   8.516
15331SOL    HW147826   4.771   3.742   8.511
15331SOL    HW247827   4.739   3.881   8.461
15332SOL     OW47828   8.634  14.134   3.828
15332SOL    HW147829   8.691  14.171   3.761
15332SOL    HW247830   8.546  14.160   3.800
15333SOL     OW47831   5.362   5.602  12.330
15333SOL    HW147832   5.457   5.599  12.322
15333SOL    HW247833   5.335   5.674  12.273
15334SOL     OW47834   9.804   4.677   3.797
15334SOL    HW147835   9.864   4.604   3.788
15334SOL    HW247836   9.735   4.645   3.855
15335SOL     OW47837  10.125   0.398  13.643
15335SOL    HW147838  10.067   0.458  13.596
15335SOL    HW247839  10.133   0.436  13.730
15336SOL     OW47840  12.258   6.830  12.282
15336SOL    HW147841  12.282   6.747  12.241
15336SOL    HW247842  12.178   6.857  12.237
15337SOL     OW47843  12.142   0.933   6.551
15337SOL    HW147844  12.167   1.021   6.580
15337SOL    HW247845  12.047   0.938   6.540
15338SOL     OW47846  12.266   8.239   9.046
15338SOL    HW147847  12.221   8.266   9.126
15338SOL    HW247848  12.218   8.163   9.015
15339SOL     OW47849   0.383   5.078   5.529
15339SOL    HW147850   0.320   5.040   5.468
15339SOL    HW247851   0.468   5.061   5.489
15340SOL     OW47852   2.419  12.327   5.641
15340SOL    HW147853   2.412  12.390   5.569
15340SOL    HW247854   2.491  12.270   5.615
15341SOL     OW47855   9.351   0.879  12.762
15341SOL    HW147856   9.339   0.792  12.800
15341SOL    HW247857   9.444   0.897  12.771
15342SOL     OW47858   3.055   0.996   5.991
15342SOL    HW147859   3.086   0.957   6.073
15342SOL    HW247860   3.004   1.073   6.018
15343SOL     OW47861   6.372   7.835   3.084
15343SOL    HW147862   6.333   7.755   3.119
15343SOL    HW247863   6.434   7.864   3.151
15344SOL     OW47864   6.036   8.811   7.444
15344SOL    HW147865   5.949   8.794   7.409
15344SOL    HW247866   6.069   8.884   7.391
15345SOL     OW47867   1.895  12.266   4.790
15345SOL    HW147868   1.913  12.295   4.880
15345SOL    HW247869   1.824  12.202   4.799
15346SOL     OW47870   0.616  11.448   2.323
15346SOL    HW147871   0.631  11.501   2.401
15346SOL    HW247872   0.678  11.483   2.258
15347SOL     OW47873   4.926   8.897   3.743
15347SOL    HW147874   4.994   8.860   3.799
15347SOL    HW247875   4.973   8.937   3.670
15348SOL     OW47876   5.961   3.295   4.199
15348SOL    HW147877   6.008   3.285   4.282
15348SOL    HW247878   5.903   3.219   4.194
15349SOL     OW47879   0.644   3.590  13.689
15349SOL    HW147880   0.639   3.654  13.760
15349SOL    HW247881   0.737   3.587  13.666
15350SOL     OW47882   4.404   3.338  14.151
15350SOL    HW147883   4.310   3.320  14.161
15350SOL    HW247884   4.409   3.398  14.077
15351SOL     OW47885   5.580  14.790   4.561
15351SOL    HW147886   5.593  14.774   4.468
15351SOL    HW247887   5.668  14.798   4.597
15352SOL     OW47888   9.379  14.355   6.932
15352SOL    HW147889   9.437  14.430   6.948
15352SOL    HW247890   9.322  14.352   7.009
15353SOL     OW47891   1.766   1.512   8.685
15353SOL    HW147892   1.759   1.592   8.737
15353SOL    HW247893   1.811   1.450   8.742
15354SOL     OW47894   5.671  12.532  10.261
15354SOL    HW147895   5.714  12.484  10.190
15354SOL    HW247896   5.598  12.475  10.287
15355SOL     OW47897   6.326  11.213   7.264
15355SOL    HW147898   6.410  11.257   7.250
15355SOL    HW247899   6.331  11.180   7.354
15356SOL     OW47900  10.682   8.553  12.914
15356SOL    HW147901  10.726   8.638  12.915
15356SOL    HW247902  10.718   8.509  12.837
15357SOL     OW47903  10.132   6.385   4.184
15357SOL    HW147904  10.149   6.364   4.092
15357SOL    HW247905  10.043   6.352   4.199
15358SOL     OW47906   3.246   6.631  14.569
15358SOL    HW147907   3.291   6.709  14.536
15358SOL    HW247908   3.154   6.648  14.551
15359SOL     OW47909   6.169   1.193   3.674
15359SOL    HW147910   6.202   1.233   3.754
15359SOL    HW247911   6.223   1.231   3.605
15360SOL     OW47912   9.362   6.247  14.377
15360SOL    HW147913   9.358   6.193  14.298
15360SOL    HW247914   9.441   6.301  14.365
15361SOL     OW47915  12.082   5.058   5.287
15361SOL    HW147916  12.136   5.018   5.355
15361SOL    HW247917  12.123   5.143   5.270
15362SOL     OW47918   1.445   0.881   2.789
15362SOL    HW147919   1.525   0.903   2.742
15362SOL    HW247920   1.383   0.949   2.763
15363SOL     OW47921   6.350   9.574  11.395
15363SOL    HW147922   6.296   9.615  11.327
15363SOL    HW247923   6.350   9.637  11.467
15364SOL     OW47924   4.157   7.015   8.249
15364SOL    HW147925   4.188   7.100   8.218
15364SOL    HW247926   4.209   6.998   8.328
15365SOL     OW47927  13.317  10.044   3.824
15365SOL    HW147928  13.255  10.026   3.895
15365SOL    HW247929  13.378   9.971   3.826
15366SOL     OW47930   9.882   0.266  14.621
15366SOL    HW147931   9.816   0.318  14.665
15366SOL    HW247932   9.907   0.318  14.544
15367SOL     OW47933   3.262  13.602  10.487
15367SOL    HW147934   3.343  13.553  10.495
15367SOL    HW247935   3.219  13.592  10.572
15368SOL     OW47936   9.957   9.284   9.058
15368SOL    HW147937   9.892   9.332   9.108
15368SOL    HW247938  10.040   9.326   9.080
15369SOL     OW47939   7.642  14.593   0.403
15369SOL    HW147940   7.689  14.542   0.337
15369SOL    HW247941   7.550  14.585   0.379
15370SOL     OW47942   7.932   5.619   8.394
15370SOL    HW147943   8.017   5.598   8.433
15370SOL    HW247944   7.927   5.715   8.399
15371SOL     OW47945   5.570   4.160   9.083
15371SOL    HW147946   5.629   4.180   9.011
15371SOL    HW247947   5.518   4.086   9.051
15372SOL     OW47948  10.284   8.014   4.716
15372SOL    HW147949  10.204   7.974   4.683
15372SOL    HW247950  10.254   8.078   4.780
15373SOL     OW47951   8.968  13.156   3.603
15373SOL    HW147952   8.885  13.136   3.559
15373SOL    HW247953   9.020  13.076   3.594
15374SOL     OW47954  12.763  10.408  12.477
15374SOL    HW147955  12.718  10.341  12.425
15374SOL    HW247956  12.760  10.487  12.422
15375SOL     OW47957  11.533   6.118   8.434
15375SOL    HW147958  11.536   6.192   8.494
15375SOL    HW247959  11.574   6.046   8.481
15376SOL     OW47960  11.609  12.825  14.382
15376SOL    HW147961  11.538  12.765  14.405
15376SOL    HW247962  11.684  12.768  14.364
15377SOL     OW47963   9.457   6.024   5.609
15377SOL    HW147964   9.503   6.075   5.676
15377SOL    HW247965   9.390   6.083   5.575
15378SOL     OW47966   2.178   7.208   1.874
15378SOL    HW147967   2.119   7.279   1.850
15378SOL    HW247968   2.216   7.179   1.791
15379SOL     OW47969   6.182  10.836  13.199
15379SOL    HW147970   6.135  10.811  13.279
15379SOL    HW247971   6.248  10.767  13.188
15380SOL     OW47972  13.049  14.656   0.809
15380SOL    HW147973  13.021  14.669   0.900
15380SOL    HW247974  13.003  14.577   0.781
15381SOL     OW47975   9.336  11.967  13.470
15381SOL    HW147976   9.400  11.909  13.428
15381SOL    HW247977   9.320  12.035  13.405
15382SOL     OW47978  14.303   1.752   4.880
15382SOL    HW147979  14.276   1.833   4.923
15382SOL    HW247980  14.232   1.733   4.818
15383SOL     OW47981   3.008   0.568   5.191
15383SOL    HW147982   3.091   0.562   5.238
15383SOL    HW247983   2.979   0.478   5.180
15384SOL     OW47984  14.749   3.983  12.231
15384SOL    HW147985  14.669   3.939  12.259
15384SOL    HW247986  14.809   3.972  12.305
15385SOL     OW47987   9.277   2.649  14.422
15385SOL    HW147988   9.277   2.554  14.431
15385SOL    HW247989   9.209   2.667  14.357
15386SOL     OW47990   0.264  11.146   4.213
15386SOL    HW147991   0.252  11.238   4.188
15386SOL    HW247992   0.205  11.133   4.287
15387SOL     OW47993   0.874  11.802   3.688
15387SOL    HW147994   0.878  11.719   3.734
15387SOL    HW247995   0.962  11.840   3.700
15388SOL     OW47996   7.917   5.220   1.379
15388SOL    HW147997   7.848   5.225   1.313
15388SOL    HW247998   7.985   5.166   1.338
15389SOL     OW47999  11.943  12.599   5.073
15389SOL    HW148000  11.940  12.691   5.047
15389SOL    HW248001  11.870  12.589   5.134
15390SOL     OW48002  13.187   8.398   6.460
15390SOL    HW148003  13.154   8.308   6.463
15390SOL    HW248004  13.225   8.407   6.373
15391SOL     OW48005   8.003  11.277  10.577
15391SOL    HW148006   8.002  11.248  10.668
15391SOL    HW248007   8.072  11.226  10.536
15392SOL     OW48008   4.174   7.636   1.645
15392SOL    HW148009   4.165   7.544   1.622
15392SOL    HW248010   4.250   7.666   1.595
15393SOL     OW48011   0.457  12.217   7.806
15393SOL    HW148012   0.373  12.257   7.826
15393SOL    HW248013   0.464  12.143   7.865
15394SOL     OW48014   9.959   4.073   2.972
15394SOL    HW148015  10.038   4.126   2.983
15394SOL    HW248016   9.959   4.050   2.879
15395SOL     OW48017   4.693   8.806  14.033
15395SOL    HW148018   4.683   8.798  13.938
15395SOL    HW248019   4.688   8.900  14.050
15396SOL     OW48020  13.386   4.675   5.224
15396SOL    HW148021  13.394   4.765   5.191
15396SOL    HW248022  13.292   4.662   5.237
15397SOL     OW48023   3.688   9.447   9.716
15397SOL    HW148024   3.668   9.540   9.726
15397SOL    HW248025   3.612   9.402   9.754
15398SOL     OW48026   4.888   2.999  11.899
15398SOL    HW148027   4.969   2.950  11.884
15398SOL    HW248028   4.916   3.086  11.926
15399SOL     OW48029   8.827   1.516  10.052
15399SOL    HW148030   8.774   1.593  10.032
15399SOL    HW248031   8.917   1.549  10.048
15400SOL     OW48032   4.991  10.217   2.825
15400SOL    HW148033   5.066  10.272   2.802
15400SOL    HW248034   5.017  10.175   2.907
15401SOL     OW48035   9.214  14.217  11.954
15401SOL    HW148036   9.202  14.145  11.892
15401SOL    HW248037   9.151  14.201  12.023
15402SOL     OW48038   0.530  10.698  12.006
15402SOL    HW148039   0.557  10.773  11.953
15402SOL    HW248040   0.539  10.623  11.947
15403SOL     OW48041   5.260  11.088   4.612
15403SOL    HW148042   5.176  11.117   4.576
15403SOL    HW248043   5.317  11.165   4.604
15404SOL     OW48044  13.561   5.047  14.754
15404SOL    HW148045  13.599   5.092  14.830
15404SOL    HW248046  13.500   5.110  14.717
15405SOL     OW48047  10.351   5.812   4.842
15405SOL    HW148048  10.327   5.899   4.871
15405SOL    HW248049  10.267   5.769   4.822
15406SOL     OW48050  14.342  12.379   1.292
15406SOL    HW148051  14.329  12.363   1.198
15406SOL    HW248052  14.277  12.324   1.335
15407SOL     OW48053   3.840   9.851   2.458
15407SOL    HW148054   3.929   9.858   2.492
15407SOL    HW248055   3.788   9.908   2.515
15408SOL     OW48056   4.442  12.691  13.737
15408SOL    HW148057   4.521  12.729  13.699
15408SOL    HW248058   4.370  12.727  13.684
15409SOL     OW48059   7.263  14.825   1.262
15409SOL    HW148060   7.221   0.011   1.318
15409SOL    HW248061   7.313  14.877   1.198
15410SOL     OW48062  14.357  12.662   5.701
15410SOL    HW148063  14.372  12.711   5.620
15410SOL    HW248064  14.262  12.663   5.713
15411SOL     OW48065   1.933   3.713   9.194
15411SOL    HW148066   1.976   3.748   9.115
15411SOL    HW248067   1.862   3.774   9.211
15412SOL     OW48068   1.199  13.787  10.988
15412SOL    HW148069   1.195  13.811  10.896
15412SOL    HW248070   1.291  13.796  11.011
15413SOL     OW48071   7.338   0.008   6.156
15413SOL    HW148072   7.274  14.820   6.182
15413SOL    HW248073   7.387   0.026   6.236
15414SOL     OW48074   2.178   4.698  14.326
15414SOL    HW148075   2.264   4.681  14.289
15414SOL    HW248076   2.152   4.616  14.368
15415SOL     OW48077   3.087   4.199  10.044
15415SOL    HW148078   2.993   4.190  10.026
15415SOL    HW248079   3.118   4.110  10.057
15416SOL     OW48080   6.358  12.695  12.005
15416SOL    HW148081   6.343  12.703  12.099
15416SOL    HW248082   6.347  12.784  11.971
15417SOL     OW48083   2.737   5.188   2.454
15417SOL    HW148084   2.686   5.209   2.376
15417SOL    HW248085   2.722   5.263   2.512
15418SOL     OW48086  13.538   6.869   2.563
15418SOL    HW148087  13.518   6.961   2.541
15418SOL    HW248088  13.458   6.837   2.604
15419SOL     OW48089  12.033   7.827  13.219
15419SOL    HW148090  12.094   7.895  13.247
15419SOL    HW248091  12.079   7.745  13.235
15420SOL     OW48092   9.958   3.695  14.785
15420SOL    HW148093  10.014   3.651  14.721
15420SOL    HW248094   9.885   3.730  14.734
15421SOL     OW48095   8.280   0.598  13.700
15421SOL    HW148096   8.316   0.605  13.611
15421SOL    HW248097   8.193   0.561  13.687
15422SOL     OW48098  10.502   5.853   8.893
15422SOL    HW148099  10.497   5.827   8.985
15422SOL    HW248100  10.537   5.942   8.895
15423SOL     OW48101  11.474   6.473  12.188
15423SOL    HW148102  11.447   6.385  12.215
15423SOL    HW248103  11.515   6.461  12.103
15424SOL     OW48104   2.667   8.545   0.754
15424SOL    HW148105   2.688   8.470   0.810
15424SOL    HW248106   2.724   8.534   0.678
15425SOL     OW48107  13.489   1.964   2.640
15425SOL    HW148108  13.541   1.950   2.561
15425SOL    HW248109  13.547   2.010   2.700
15426SOL     OW48110   1.998  14.712   5.181
15426SOL    HW148111   1.920  14.686   5.229
15426SOL    HW248112   2.041  14.630   5.157
15427SOL     OW48113  12.025  13.784   1.430
15427SOL    HW148114  12.100  13.844   1.428
15427SOL    HW248115  11.979  13.802   1.348
15428SOL     OW48116  13.403   6.007   8.633
15428SOL    HW148117  13.351   5.971   8.705
15428SOL    HW248118  13.363   6.092   8.616
15429SOL     OW48119  11.972  11.342   8.683
15429SOL    HW148120  11.986  11.424   8.730
15429SOL    HW248121  11.976  11.367   8.591
15430SOL     OW48122   6.570   0.459   4.473
15430SOL    HW148123   6.500   0.408   4.514
15430SOL    HW248124   6.543   0.550   4.484
15431SOL     OW48125   6.932   4.604   5.885
15431SOL    HW148126   6.939   4.556   5.968
15431SOL    HW248127   7.009   4.660   5.883
15432SOL     OW48128  11.007  11.242  10.817
15432SOL    HW148129  11.088  11.275  10.854
15432SOL    HW248130  10.969  11.316  10.770
15433SOL     OW48131   3.934  11.158   7.115
15433SOL    HW148132   4.025  11.190   7.120
15433SOL    HW248133   3.941  11.074   7.071
15434SOL     OW48134  11.754   9.907   7.993
15434SOL    HW148135  11.735   9.829   7.941
15434SOL    HW248136  11.769   9.976   7.928
15435SOL     OW48137   8.670   1.934   9.069
15435SOL    HW148138   8.742   1.924   9.006
15435SOL    HW248139   8.712   1.965   9.149
15436SOL     OW48140  14.468   9.507  14.400
15436SOL    HW148141  14.521   9.583  14.374
15436SOL    HW248142  14.509   9.476  14.480
15437SOL     OW48143  14.714   2.351  13.411
15437SOL    HW148144  14.688   2.360  13.319
15437SOL    HW248145  14.734   2.440  13.438
15438SOL     OW48146   8.196   1.841   0.861
15438SOL    HW148147   8.157   1.865   0.777
15438SOL    HW248148   8.284   1.811   0.838
15439SOL     OW48149   3.264  14.012  14.411
15439SOL    HW148150   3.258  14.097  14.454
15439SOL    HW248151   3.200  13.957  14.456
15440SOL     OW48152   1.119  12.646  12.187
15440SOL    HW148153   1.178  12.576  12.213
15440SOL    HW248154   1.042  12.634  12.242
15441SOL     OW48155  12.867   0.979  11.722
15441SOL    HW148156  12.835   0.889  11.732
15441SOL    HW248157  12.787   1.031  11.710
15442SOL     OW48158  12.729   8.394   4.430
15442SOL    HW148159  12.729   8.356   4.342
15442SOL    HW248160  12.770   8.479   4.419
15443SOL     OW48161   0.822   1.656  10.177
15443SOL    HW148162   0.727   1.666  10.184
15443SOL    HW248163   0.851   1.738  10.137
15444SOL     OW48164   9.830   3.668  12.554
15444SOL    HW148165   9.902   3.717  12.594
15444SOL    HW248166   9.871   3.620  12.482
15445SOL     OW48167   3.699   2.978   1.476
15445SOL    HW148168   3.678   3.070   1.487
15445SOL    HW248169   3.629   2.943   1.421
15446SOL     OW48170   2.305   6.677   6.055
15446SOL    HW148171   2.356   6.738   6.109
15446SOL    HW248172   2.366   6.605   6.037
15447SOL     OW48173   8.490  14.268   1.392
15447SOL    HW148174   8.436  14.347   1.397
15447SOL    HW248175   8.490  14.234   1.481
15448SOL     OW48176   9.512  11.664   9.365
15448SOL    HW148177   9.569  11.654   9.289
15448SOL    HW248178   9.463  11.744   9.348
15449SOL     OW48179  12.143   9.018   1.342
15449SOL    HW148180  12.121   9.007   1.434
15449SOL    HW248181  12.239   9.020   1.340
15450SOL     OW48182  14.741   1.432   8.314
15450SOL    HW148183  14.665   1.489   8.322
15450SOL    HW248184  14.743   1.408   8.222
15451SOL     OW48185   0.758  13.833   8.483
15451SOL    HW148186   0.776  13.746   8.446
15451SOL    HW248187   0.757  13.819   8.578
15452SOL     OW48188   3.527   5.588   8.097
15452SOL    HW148189   3.575   5.506   8.102
15452SOL    HW248190   3.480   5.594   8.180
15453SOL     OW48191   0.250   8.804   3.103
15453SOL    HW148192   0.228   8.767   3.018
15453SOL    HW248193   0.173   8.856   3.127
15454SOL     OW48194  10.164  12.486   6.515
15454SOL    HW148195  10.203  12.431   6.447
15454SOL    HW248196  10.234  12.547   6.540
15455SOL     OW48197   2.541   5.118   2.753
15455SOL    HW148198   2.458   5.091   2.714
15455SOL    HW248199   2.594   5.039   2.752
15456SOL     OW48200   8.625  10.482   1.831
15456SOL    HW148201   8.681  10.539   1.883
15456SOL    HW248202   8.683  10.446   1.763
15457SOL     OW48203   8.149   9.887   6.452
15457SOL    HW148204   8.063   9.854   6.481
15457SOL    HW248205   8.211   9.820   6.480
15458SOL     OW48206  10.632  11.799   8.435
15458SOL    HW148207  10.674  11.861   8.494
15458SOL    HW248208  10.539  11.821   8.439
15459SOL     OW48209   2.446   4.989   0.125
15459SOL    HW148210   2.442   5.075   0.084
15459SOL    HW248211   2.505   4.938   0.069
15460SOL     OW48212   9.200   4.021   3.788
15460SOL    HW148213   9.106   4.012   3.775
15460SOL    HW248214   9.227   3.937   3.825
15461SOL     OW48215  12.496  13.492   2.483
15461SOL    HW148216  12.480  13.448   2.399
15461SOL    HW248217  12.408  13.502   2.521
15462SOL     OW48218  11.640  10.663   0.655
15462SOL    HW148219  11.663  10.683   0.564
15462SOL    HW248220  11.544  10.658   0.654
15463SOL     OW48221   7.291   9.843   9.662
15463SOL    HW148222   7.323   9.817   9.748
15463SOL    HW248223   7.327   9.930   9.647
15464SOL     OW48224  11.943   0.453   9.733
15464SOL    HW148225  11.982   0.502   9.805
15464SOL    HW248226  11.858   0.494   9.719
15465SOL     OW48227  13.016  14.378   8.501
15465SOL    HW148228  12.995  14.289   8.471
15465SOL    HW248229  12.973  14.386   8.586
15466SOL     OW48230   5.701  14.457  10.808
15466SOL    HW148231   5.688  14.513  10.884
15466SOL    HW248232   5.762  14.505  10.752
15467SOL     OW48233   7.038  14.261   9.801
15467SOL    HW148234   7.054  14.306   9.719
15467SOL    HW248235   7.100  14.188   9.802
15468SOL     OW48236  14.749   2.432  11.610
15468SOL    HW148237  14.822   2.438  11.673
15468SOL    HW248238  14.671   2.431  11.664
15469SOL     OW48239   9.508  10.530  13.147
15469SOL    HW148240   9.492  10.582  13.226
15469SOL    HW248241   9.604  10.524  13.142
15470SOL     OW48242   7.685   0.343   6.292
15470SOL    HW148243   7.592   0.365   6.285
15470SOL    HW248244   7.693   0.258   6.249
15471SOL     OW48245   1.647   7.980   0.064
15471SOL    HW148246   1.726   7.928   0.074
15471SOL    HW248247   1.594   7.932   0.001
15472SOL     OW48248   0.404  11.031   7.953
15472SOL    HW148249   0.444  11.118   7.949
15472SOL    HW248250   0.362  11.028   8.039
15473SOL     OW48251  12.482  11.544   9.981
15473SOL    HW148252  12.534  11.591  10.046
15473SOL    HW248253  12.546  11.503   9.923
15474SOL     OW48254   1.998   5.197  14.631
15474SOL    HW148255   1.953   5.183  14.714
15474SOL    HW248256   1.994   5.112  14.586
15475SOL     OW48257  14.077   0.433   9.481
15475SOL    HW148258  14.068   0.345   9.444
15475SOL    HW248259  14.154   0.470   9.437
15476SOL     OW48260   9.185   5.953   6.940
15476SOL    HW148261   9.111   5.962   6.880
15476SOL    HW248262   9.252   5.908   6.889
15477SOL     OW48263   2.379   6.773  10.097
15477SOL    HW148264   2.352   6.720  10.172
15477SOL    HW248265   2.404   6.857  10.135
15478SOL     OW48266   7.682   4.127   6.377
15478SOL    HW148267   7.682   4.108   6.283
15478SOL    HW248268   7.621   4.063   6.414
15479SOL     OW48269   5.912  10.406   6.933
15479SOL    HW148270   5.858  10.328   6.916
15479SOL    HW248271   5.930  10.441   6.846
15480SOL     OW48272   0.341  14.509  10.059
15480SOL    HW148273   0.347  14.548   9.972
15480SOL    HW248274   0.256  14.466  10.060
15481SOL     OW48275   7.746   8.020  11.611
15481SOL    HW148276   7.811   8.071  11.658
15481SOL    HW248277   7.721   8.076  11.537
15482SOL     OW48278  12.834   6.884   1.722
15482SOL    HW148279  12.786   6.965   1.706
15482SOL    HW248280  12.834   6.839   1.637
15483SOL     OW48281   7.285  14.358  12.972
15483SOL    HW148282   7.216  14.337  12.909
15483SOL    HW248283   7.285  14.285  13.033
15484SOL     OW48284   7.619  10.486  13.491
15484SOL    HW148285   7.632  10.393  13.471
15484SOL    HW248286   7.706  10.525  13.480
15485SOL     OW48287   0.930  14.570   7.441
15485SOL    HW148288   0.922  14.542   7.532
15485SOL    HW248289   1.007  14.525   7.408
15486SOL     OW48290   7.891   3.369   9.666
15486SOL    HW148291   7.889   3.348   9.572
15486SOL    HW248292   7.834   3.446   9.675
15487SOL     OW48293   5.564  14.406   7.894
15487SOL    HW148294   5.659  14.394   7.901
15487SOL    HW248295   5.546  14.485   7.945
15488SOL     OW48296  13.205   5.873   8.019
15488SOL    HW148297  13.115   5.853   7.994
15488SOL    HW248298  13.239   5.927   7.948
15489SOL     OW48299  12.849   1.187   6.531
15489SOL    HW148300  12.945   1.183   6.527
15489SOL    HW248301  12.826   1.265   6.481
15490SOL     OW48302  14.355  13.561   8.007
15490SOL    HW148303  14.301  13.640   8.005
15490SOL    HW248304  14.302  13.495   7.963
15491SOL     OW48305   6.670   9.126   6.221
15491SOL    HW148306   6.696   9.189   6.153
15491SOL    HW248307   6.732   9.140   6.292
15492SOL     OW48308  13.214  13.359   0.886
15492SOL    HW148309  13.300  13.386   0.918
15492SOL    HW248310  13.153  13.392   0.952
15493SOL     OW48311   3.570   0.884   7.346
15493SOL    HW148312   3.587   0.790   7.351
15493SOL    HW248313   3.514   0.902   7.422
15494SOL     OW48314  11.686   1.233   0.884
15494SOL    HW148315  11.669   1.257   0.975
15494SOL    HW248316  11.602   1.205   0.850
15495SOL     OW48317   5.027  12.050  11.833
15495SOL    HW148318   4.981  12.010  11.759
15495SOL    HW248319   5.120  12.047  11.808
15496SOL     OW48320   2.980   5.327  11.228
15496SOL    HW148321   3.072   5.348  11.213
15496SOL    HW248322   2.932   5.399  11.189
15497SOL     OW48323   4.015   4.285   4.349
15497SOL    HW148324   4.059   4.370   4.355
15497SOL    HW248325   3.940   4.293   4.408
15498SOL     OW48326  14.657   2.501   5.747
15498SOL    HW148327  14.602   2.490   5.669
15498SOL    HW248328  14.690   2.590   5.742
15499SOL     OW48329   1.305   6.963  11.638
15499SOL    HW148330   1.322   7.035  11.577
15499SOL    HW248331   1.249   6.903  11.588
15500SOL     OW48332  11.475   0.479   9.969
15500SOL    HW148333  11.518   0.563   9.950
15500SOL    HW248334  11.547   0.416   9.971
15501SOL     OW48335   9.801   8.167   0.082
15501SOL    HW148336   9.876   8.124   0.042
15501SOL    HW248337   9.830   8.191   0.170
15502SOL     OW48338   2.301   7.720   1.877
15502SOL    HW148339   2.261   7.773   1.808
15502SOL    HW248340   2.283   7.768   1.958
15503SOL     OW48341   5.196   6.430   4.146
15503SOL    HW148342   5.158   6.343   4.144
15503SOL    HW248343   5.123   6.489   4.127
15504SOL     OW48344  12.742   8.622   0.848
15504SOL    HW148345  12.780   8.710   0.853
15504SOL    HW248346  12.784   8.574   0.920
15505SOL     OW48347   2.125   4.833   5.901
15505SOL    HW148348   2.060   4.848   5.832
15505SOL    HW248349   2.207   4.864   5.863
15506SOL     OW48350   4.886  13.214   6.290
15506SOL    HW148351   4.950  13.283   6.273
15506SOL    HW248352   4.933  13.150   6.342
15507SOL     OW48353  13.078   3.749   4.459
15507SOL    HW148354  13.039   3.702   4.533
15507SOL    HW248355  13.156   3.698   4.438
15508SOL     OW48356  14.694   7.255  11.272
15508SOL    HW148357  14.606   7.291  11.282
15508SOL    HW248358  14.680   7.166  11.239
15509SOL     OW48359   1.446  13.150  10.145
15509SOL    HW148360   1.396  13.098  10.208
15509SOL    HW248361   1.439  13.102  10.062
15510SOL     OW48362   8.798  13.923  12.482
15510SOL    HW148363   8.807  13.979  12.405
15510SOL    HW248364   8.872  13.946  12.538
15511SOL     OW48365  13.818   7.368  13.096
15511SOL    HW148366  13.848   7.282  13.067
15511SOL    HW248367  13.890   7.402  13.149
15512SOL     OW48368   3.801   9.433  11.833
15512SOL    HW148369   3.754   9.473  11.906
15512SOL    HW248370   3.795   9.497  11.762
15513SOL     OW48371  11.177   9.451   3.803
15513SOL    HW148372  11.250   9.494   3.759
15513SOL    HW248373  11.099   9.479   3.755
15514SOL     OW48374  13.377   6.354  13.904
15514SOL    HW148375  13.429   6.293  13.852
15514SOL    HW248376  13.438   6.425  13.926
15515SOL     OW48377  10.755   0.607  11.369
15515SOL    HW148378  10.692   0.542  11.398
15515SOL    HW248379  10.704   0.688  11.362
15516SOL     OW48380  11.450  13.239   2.684
15516SOL    HW148381  11.366  13.282   2.673
15516SOL    HW248382  11.472  13.207   2.596
15517SOL     OW48383  14.051   3.744   6.804
15517SOL    HW148384  14.011   3.687   6.870
15517SOL    HW248385  14.084   3.684   6.737
15518SOL     OW48386   7.876   1.402   8.613
15518SOL    HW148387   7.915   1.411   8.700
15518SOL    HW248388   7.873   1.491   8.578
15519SOL     OW48389   1.299   3.748   3.823
15519SOL    HW148390   1.251   3.809   3.767
15519SOL    HW248391   1.391   3.772   3.812
15520SOL     OW48392   2.180  14.456   8.034
15520SOL    HW148393   2.251  14.469   7.971
15520SOL    HW248394   2.151  14.366   8.020
15521SOL     OW48395  13.884   8.474   8.560
15521SOL    HW148396  13.882   8.379   8.575
15521SOL    HW248397  13.959   8.487   8.501
15522SOL     OW48398   9.383  10.158   4.105
15522SOL    HW148399   9.337  10.076   4.122
15522SOL    HW248400   9.321  10.227   4.129
15523SOL     OW48401   1.353  10.706  10.663
15523SOL    HW148402   1.395  10.761  10.597
15523SOL    HW248403   1.261  10.732  10.661
15524SOL     OW48404   8.768   8.904   9.980
15524SOL    HW148405   8.839   8.892   9.917
15524SOL    HW248406   8.747   8.816  10.009
15525SOL     OW48407   9.075   7.072   4.287
15525SOL    HW148408   9.105   7.161   4.273
15525SOL    HW248409   9.092   7.054   4.379
15526SOL     OW48410   5.425  14.508  12.761
15526SOL    HW148411   5.429  14.539  12.671
15526SOL    HW248412   5.513  14.476  12.780
15527SOL     OW48413   7.834  12.934   3.317
15527SOL    HW148414   7.747  12.898   3.337
15527SOL    HW248415   7.892  12.894   3.381
15528SOL     OW48416  12.125   0.818   8.712
15528SOL    HW148417  12.108   0.896   8.764
15528SOL    HW248418  12.192   0.771   8.760
15529SOL     OW48419  10.190   5.773   3.700
15529SOL    HW148420  10.250   5.814   3.637
15529SOL    HW248421  10.154   5.846   3.749
15530SOL     OW48422   4.129   4.521  12.832
15530SOL    HW148423   4.220   4.540  12.810
15530SOL    HW248424   4.083   4.604  12.818
15531SOL     OW48425   8.536   2.192   0.564
15531SOL    HW148426   8.527   2.100   0.539
15531SOL    HW248427   8.627   2.214   0.545
15532SOL     OW48428   0.428   8.365  13.232
15532SOL    HW148429   0.453   8.285  13.185
15532SOL    HW248430   0.474   8.435  13.184
15533SOL     OW48431  14.418   1.747  11.213
15533SOL    HW148432  14.499   1.731  11.164
15533SOL    HW248433  14.351   1.757  11.146
15534SOL     OW48434   4.660   5.963   8.131
15534SOL    HW148435   4.615   6.019   8.194
15534SOL    HW248436   4.741   5.936   8.175
15535SOL     OW48437   3.504   6.106   9.711
15535SOL    HW148438   3.534   6.098   9.620
15535SOL    HW248439   3.557   6.178   9.747
15536SOL     OW48440   9.988   2.854   4.128
15536SOL    HW148441  10.082   2.848   4.143
15536SOL    HW248442   9.975   2.944   4.096
15537SOL     OW48443  13.509   8.782   7.872
15537SOL    HW148444  13.445   8.801   7.802
15537SOL    HW248445  13.460   8.729   7.935
15538SOL     OW48446  10.771   7.913   9.982
15538SOL    HW148447  10.692   7.860   9.990
15538SOL    HW248448  10.843   7.850   9.990
15539SOL     OW48449   8.053   2.454   1.757
15539SOL    HW148450   8.030   2.437   1.848
15539SOL    HW248451   8.078   2.546   1.755
15540SOL     OW48452   5.449  12.802  12.024
15540SOL    HW148453   5.406  12.776  11.942
15540SOL    HW248454   5.542  12.794  12.006
15541SOL     OW48455   1.609  10.802   2.943
15541SOL    HW148456   1.535  10.858   2.964
15541SOL    HW248457   1.682  10.862   2.929
15542SOL     OW48458   0.609   0.650   1.556
15542SOL    HW148459   0.687   0.691   1.593
15542SOL    HW248460   0.614   0.559   1.584
15543SOL     OW48461  10.964   3.479  11.774
15543SOL    HW148462  10.880   3.500  11.816
15543SOL    HW248463  10.977   3.550  11.710
15544SOL     OW48464   9.667  11.785   5.054
15544SOL    HW148465   9.681  11.838   5.133
15544SOL    HW248466   9.752  11.746   5.036
15545SOL     OW48467   0.693   4.548  14.242
15545SOL    HW148468   0.753   4.475  14.226
15545SOL    HW248469   0.608   4.507  14.252
15546SOL     OW48470   9.504   8.471   7.221
15546SOL    HW148471   9.520   8.475   7.127
15546SOL    HW248472   9.527   8.382   7.246
15547SOL     OW48473  12.974   9.185   6.455
15547SOL    HW148474  12.925   9.205   6.535
15547SOL    HW248475  13.065   9.178   6.483
15548SOL     OW48476   6.381   0.068  13.713
15548SOL    HW148477   6.317   0.083  13.782
15548SOL    HW248478   6.330   0.062  13.633
15549SOL     OW48479   1.928   8.668   9.069
15549SOL    HW148480   1.934   8.654   9.164
15549SOL    HW248481   1.943   8.762   9.057
15550SOL     OW48482  14.762   9.654  10.750
15550SOL    HW148483  14.737   9.564  10.726
15550SOL    HW248484  14.827   9.643  10.819
15551SOL     OW48485   1.589   6.583   6.676
15551SOL    HW148486   1.678   6.607   6.649
15551SOL    HW248487   1.545   6.666   6.693
15552SOL     OW48488   5.986   6.008   4.954
15552SOL    HW148489   5.918   6.007   5.021
15552SOL    HW248490   6.011   5.916   4.944
15553SOL     OW48491  10.724  11.327   7.337
15553SOL    HW148492  10.817  11.308   7.320
15553SOL    HW248493  10.687  11.340   7.250
15554SOL     OW48494   5.317  10.118   7.570
15554SOL    HW148495   5.358  10.048   7.518
15554SOL    HW248496   5.387  10.182   7.584
15555SOL     OW48497   5.506   4.157   2.705
15555SOL    HW148498   5.539   4.067   2.712
15555SOL    HW248499   5.580   4.212   2.730
15556SOL     OW48500   7.576  10.953  12.226
15556SOL    HW148501   7.668  10.951  12.254
15556SOL    HW248502   7.572  10.891  12.153
15557SOL     OW48503   4.994   0.936   9.503
15557SOL    HW148504   5.020   1.027   9.489
15557SOL    HW248505   4.912   0.926   9.455
15558SOL     OW48506   6.121   5.053   3.301
15558SOL    HW148507   6.151   5.137   3.267
15558SOL    HW248508   6.045   5.031   3.247
15559SOL     OW48509   3.666   4.388  11.974
15559SOL    HW148510   3.664   4.416  12.066
15559SOL    HW248511   3.695   4.297  11.977
15560SOL     OW48512   5.545   9.434   0.794
15560SOL    HW148513   5.632   9.397   0.778
15560SOL    HW248514   5.516   9.392   0.875
15561SOL     OW48515   8.525   2.891   7.407
15561SOL    HW148516   8.433   2.883   7.431
15561SOL    HW248517   8.540   2.985   7.402
15562SOL     OW48518  11.621   1.701   0.143
15562SOL    HW148519  11.680   1.770   0.112
15562SOL    HW248520  11.534   1.738   0.135
15563SOL     OW48521  13.487   4.532  13.363
15563SOL    HW148522  13.560   4.560  13.418
15563SOL    HW248523  13.423   4.602  13.371
15564SOL     OW48524   7.191   7.223  12.458
15564SOL    HW148525   7.246   7.215  12.381
15564SOL    HW248526   7.109   7.260  12.426
15565SOL     OW48527   9.435   7.170   4.298
15565SOL    HW148528   9.427   7.132   4.211
15565SOL    HW248529   9.377   7.246   4.297
15566SOL     OW48530   6.510   7.245  12.392
15566SOL    HW148531   6.601   7.215  12.395
15566SOL    HW248532   6.479   7.219  12.305
15567SOL     OW48533  12.276  10.078   2.843
15567SOL    HW148534  12.286   9.983   2.847
15567SOL    HW248535  12.365  10.112   2.843
15568SOL     OW48536   2.693  12.787   9.949
15568SOL    HW148537   2.686  12.700   9.989
15568SOL    HW248538   2.787  12.797   9.931
15569SOL     OW48539   0.770   8.798   7.350
15569SOL    HW148540   0.765   8.846   7.432
15569SOL    HW248541   0.864   8.790   7.332
15570SOL     OW48542  10.507   8.191   1.103
15570SOL    HW148543  10.554   8.128   1.156
15570SOL    HW248544  10.468   8.252   1.166
15571SOL     OW48545  11.780  12.382   8.545
15571SOL    HW148546  11.708  12.322   8.561
15571SOL    HW248547  11.739  12.456   8.500
15572SOL     OW48548   8.578  12.105   8.954
15572SOL    HW148549   8.571  12.010   8.957
15572SOL    HW248550   8.581  12.126   8.861
15573SOL     OW48551   7.205   7.267   0.908
15573SOL    HW148552   7.231   7.226   0.990
15573SOL    HW248553   7.205   7.195   0.844
15574SOL     OW48554   9.614  13.887   9.369
15574SOL    HW148555   9.708  13.869   9.376
15574SOL    HW248556   9.582  13.879   9.459
15575SOL     OW48557   8.069  11.288   9.491
15575SOL    HW148558   8.114  11.270   9.409
15575SOL    HW248559   8.010  11.361   9.471
15576SOL     OW48560   8.273   7.420   3.031
15576SOL    HW148561   8.209   7.452   2.967
15576SOL    HW248562   8.249   7.328   3.044
15577SOL     OW48563   6.253   1.586   1.698
15577SOL    HW148564   6.211   1.517   1.646
15577SOL    HW248565   6.181   1.635   1.736
15578SOL     OW48566   8.422   8.543  11.103
15578SOL    HW148567   8.444   8.453  11.082
15578SOL    HW248568   8.502   8.579  11.142
15579SOL     OW48569  10.444  11.089  14.711
15579SOL    HW148570  10.477  11.045  14.632
15579SOL    HW248571  10.361  11.128  14.684
15580SOL     OW48572  10.792  12.269   7.314
15580SOL    HW148573  10.700  12.250   7.296
15580SOL    HW248574  10.794  12.290   7.408
15581SOL     OW48575  13.770   0.628   2.817
15581SOL    HW148576  13.722   0.619   2.735
15581SOL    HW248577  13.862   0.622   2.791
15582SOL     OW48578   5.910   4.885   7.674
15582SOL    HW148579   5.895   4.812   7.734
15582SOL    HW248580   5.839   4.947   7.693
15583SOL     OW48581   4.422   3.698  12.516
15583SOL    HW148582   4.515   3.701  12.494
15583SOL    HW248583   4.420   3.672  12.608
15584SOL     OW48584  10.381   3.144  11.612
15584SOL    HW148585  10.291   3.170  11.630
15584SOL    HW248586  10.413   3.208  11.549
15585SOL     OW48587  10.406   7.237  11.575
15585SOL    HW148588  10.342   7.188  11.522
15585SOL    HW248589  10.378   7.328  11.568
15586SOL     OW48590  10.926  10.201  10.715
15586SOL    HW148591  11.009  10.248  10.717
15586SOL    HW248592  10.932  10.138  10.788
15587SOL     OW48593   6.271   4.651  11.020
15587SOL    HW148594   6.222   4.717  11.069
15587SOL    HW248595   6.358   4.690  11.008
15588SOL     OW48596  11.898   3.563  14.285
15588SOL    HW148597  11.918   3.472  14.267
15588SOL    HW248598  11.864   3.597  14.202
15589SOL     OW48599  11.364   8.346   3.177
15589SOL    HW148600  11.320   8.370   3.096
15589SOL    HW248601  11.293   8.320   3.236
15590SOL     OW48602  10.837   9.758   5.066
15590SOL    HW148603  10.865   9.790   4.980
15590SOL    HW248604  10.838   9.835   5.123
15591SOL     OW48605   2.477   7.734   5.409
15591SOL    HW148606   2.490   7.651   5.364
15591SOL    HW248607   2.477   7.800   5.339
15592SOL     OW48608  12.149  11.996   6.653
15592SOL    HW148609  12.073  11.969   6.704
15592SOL    HW248610  12.168  11.921   6.596
15593SOL     OW48611   5.188  14.103  14.386
15593SOL    HW148612   5.196  14.012  14.357
15593SOL    HW248613   5.099  14.109  14.421
15594SOL     OW48614  11.014  11.768   8.245
15594SOL    HW148615  10.944  11.833   8.251
15594SOL    HW248616  11.037  11.765   8.152
15595SOL     OW48617   2.648  14.470   9.157
15595SOL    HW148618   2.649  14.455   9.062
15595SOL    HW248619   2.557  14.492   9.177
15596SOL     OW48620  10.370   7.678   7.598
15596SOL    HW148621  10.411   7.594   7.615
15596SOL    HW248622  10.322   7.698   7.678
15597SOL     OW48623   8.175   8.919   2.508
15597SOL    HW148624   8.080   8.909   2.508
15597SOL    HW248625   8.193   8.991   2.568
15598SOL     OW48626  11.226  10.815   4.038
15598SOL    HW148627  11.132  10.814   4.020
15598SOL    HW248628  11.238  10.750   4.107
15599SOL     OW48629   8.462  11.771   9.861
15599SOL    HW148630   8.449  11.699   9.799
15599SOL    HW248631   8.392  11.761   9.925
15600SOL     OW48632  11.393   4.009  13.082
15600SOL    HW148633  11.319   4.053  13.040
15600SOL    HW248634  11.365   3.918  13.093
15601SOL     OW48635   3.380   5.899  10.330
15601SOL    HW148636   3.447   5.949  10.283
15601SOL    HW248637   3.385   5.930  10.420
15602SOL     OW48638   8.572   6.629   7.032
15602SOL    HW148639   8.549   6.721   7.036
15602SOL    HW248640   8.617   6.619   6.948
15603SOL     OW48641  13.852  12.149   6.440
15603SOL    HW148642  13.827  12.118   6.527
15603SOL    HW248643  13.804  12.231   6.429
15604SOL     OW48644   3.409   4.493   1.422
15604SOL    HW148645   3.368   4.408   1.406
15604SOL    HW248646   3.345   4.557   1.391
15605SOL     OW48647  13.053   9.019  10.890
15605SOL    HW148648  13.140   8.997  10.923
15605SOL    HW248649  13.011   8.934  10.874
15606SOL     OW48650   2.343   3.496  12.006
15606SOL    HW148651   2.356   3.405  11.979
15606SOL    HW248652   2.253   3.516  11.980
15607SOL     OW48653   9.142  10.718  10.720
15607SOL    HW148654   9.235  10.738  10.722
15607SOL    HW248655   9.137  10.629  10.685
15608SOL     OW48656   7.569  13.534   0.637
15608SOL    HW148657   7.570  13.448   0.680
15608SOL    HW248658   7.554  13.596   0.707
15609SOL     OW48659   7.115  10.820   7.768
15609SOL    HW148660   7.108  10.825   7.863
15609SOL    HW248661   7.101  10.728   7.747
15610SOL     OW48662   0.990   1.128  12.487
15610SOL    HW148663   1.013   1.039  12.460
15610SOL    HW248664   1.057   1.151  12.552
15611SOL     OW48665   2.196  10.592   8.443
15611SOL    HW148666   2.260  10.576   8.512
15611SOL    HW248667   2.248  10.600   8.363
15612SOL     OW48668   3.124   6.784   9.253
15612SOL    HW148669   3.128   6.855   9.188
15612SOL    HW248670   3.206   6.736   9.241
15613SOL     OW48671   8.942  11.414   8.192
15613SOL    HW148672   9.027  11.455   8.210
15613SOL    HW248673   8.896  11.417   8.276
15614SOL     OW48674   2.409  14.757   8.307
15614SOL    HW148675   2.337  14.718   8.357
15614SOL    HW248676   2.412  14.848   8.336
15615SOL     OW48677  10.453  13.177   3.841
15615SOL    HW148678  10.363  13.153   3.816
15615SOL    HW248679  10.465  13.138   3.928
15616SOL     OW48680   0.924  11.346   2.050
15616SOL    HW148681   1.000  11.351   1.991
15616SOL    HW248682   0.863  11.411   2.016
15617SOL     OW48683   9.357   2.993   7.641
15617SOL    HW148684   9.426   3.013   7.578
15617SOL    HW248685   9.374   3.051   7.715
15618SOL     OW48686  10.981   4.657   6.998
15618SOL    HW148687  10.945   4.600   6.931
15618SOL    HW248688  10.938   4.742   6.983
15619SOL     OW48689   8.460   6.016   0.142
15619SOL    HW148690   8.533   5.956   0.125
15619SOL    HW248691   8.483   6.096   0.095
15620SOL     OW48692   1.971   1.167   0.025
15620SOL    HW148693   2.001   1.248   0.066
15620SOL    HW248694   1.882   1.154   0.058
15621SOL     OW48695   0.970   4.379   8.385
15621SOL    HW148696   1.055   4.384   8.428
15621SOL    HW248697   0.986   4.326   8.306
15622SOL     OW48698   2.009   4.131   8.334
15622SOL    HW148699   2.094   4.172   8.321
15622SOL    HW248700   1.945   4.198   8.310
15623SOL     OW48701  12.722   1.336   9.826
15623SOL    HW148702  12.626   1.339   9.827
15623SOL    HW248703  12.743   1.254   9.781
15624SOL     OW48704   1.566   9.510   1.490
15624SOL    HW148705   1.653   9.550   1.482
15624SOL    HW248706   1.540   9.526   1.581
15625SOL     OW48707   1.408   7.649   0.744
15625SOL    HW148708   1.352   7.726   0.746
15625SOL    HW248709   1.448   7.650   0.657
15626SOL     OW48710   5.265   9.394   1.707
15626SOL    HW148711   5.231   9.372   1.620
15626SOL    HW248712   5.311   9.477   1.695
15627SOL     OW48713   4.927   3.392   6.262
15627SOL    HW148714   4.838   3.425   6.273
15627SOL    HW248715   4.917   3.298   6.248
15628SOL     OW48716  14.608   6.291   1.501
15628SOL    HW148717  14.609   6.220   1.437
15628SOL    HW248718  14.617   6.371   1.449
15629SOL     OW48719   6.541   7.985  12.401
15629SOL    HW148720   6.544   8.016  12.491
15629SOL    HW248721   6.463   8.026  12.363
15630SOL     OW48722   1.353   4.953   1.440
15630SOL    HW148723   1.445   4.938   1.461
15630SOL    HW248724   1.320   4.868   1.411
15631SOL     OW48725   1.932  10.622   2.531
15631SOL    HW148726   1.970  10.563   2.466
15631SOL    HW248727   1.893  10.692   2.478
15632SOL     OW48728   1.664   3.879   1.107
15632SOL    HW148729   1.632   3.856   1.194
15632SOL    HW248730   1.758   3.860   1.111
15633SOL     OW48731   1.627  14.382   8.351
15633SOL    HW148732   1.682  14.310   8.382
15633SOL    HW248733   1.559  14.391   8.417
15634SOL     OW48734   9.771   0.011  14.540
15634SOL    HW148735   9.721  14.877  14.621
15634SOL    HW248736   9.814   0.095  14.552
15635SOL     OW48737   9.668   2.736   8.359
15635SOL    HW148738   9.758   2.724   8.392
15635SOL    HW248739   9.613   2.717   8.434
15636SOL     OW48740  13.934   5.763  12.875
15636SOL    HW148741  13.912   5.734  12.963
15636SOL    HW248742  14.022   5.800  12.884
15637SOL     OW48743   4.527   3.906   4.965
15637SOL    HW148744   4.540   3.999   4.987
15637SOL    HW248745   4.546   3.860   5.047
15638SOL     OW48746   5.520  12.054  10.594
15638SOL    HW148747   5.451  11.988  10.592
15638SOL    HW248748   5.577  12.027  10.666
15639SOL     OW48749   1.643  12.871   1.811
15639SOL    HW148750   1.567  12.921   1.837
15639SOL    HW248751   1.647  12.799   1.874
15640SOL     OW48752   0.831   8.412  13.992
15640SOL    HW148753   0.842   8.325  13.953
15640SOL    HW248754   0.816   8.395  14.085
15641SOL     OW48755  11.421   5.109   2.846
15641SOL    HW148756  11.432   5.026   2.892
15641SOL    HW248757  11.432   5.176   2.913
15642SOL     OW48758   5.438  14.741   8.789
15642SOL    HW148759   5.451  14.666   8.847
15642SOL    HW248760   5.503  14.730   8.720
15643SOL     OW48761   9.103  13.045   1.392
15643SOL    HW148762   9.081  13.088   1.310
15643SOL    HW248763   9.028  12.989   1.411
15644SOL     OW48764   1.572   5.584   0.463
15644SOL    HW148765   1.518   5.651   0.505
15644SOL    HW248766   1.524   5.503   0.476
15645SOL     OW48767   7.644  10.408  12.467
15645SOL    HW148768   7.569  10.446  12.421
15645SOL    HW248769   7.692  10.484  12.502
15646SOL     OW48770  12.504   8.891   0.756
15646SOL    HW148771  12.515   8.982   0.727
15646SOL    HW248772  12.514   8.895   0.851
15647SOL     OW48773   8.574  12.918   0.387
15647SOL    HW148774   8.516  12.993   0.397
15647SOL    HW248775   8.535  12.866   0.316
15648SOL     OW48776  14.750   4.489   4.746
15648SOL    HW148777  14.737   4.548   4.672
15648SOL    HW248778  14.740   4.401   4.709
15649SOL     OW48779  13.280  13.374  13.277
15649SOL    HW148780  13.231  13.305  13.322
15649SOL    HW248781  13.368  13.368  13.314
15650SOL     OW48782  11.212   0.026   8.147
15650SOL    HW148783  11.167   0.106   8.177
15650SOL    HW248784  11.214   0.034   8.051
15651SOL     OW48785   5.353   9.915   2.662
15651SOL    HW148786   5.426   9.874   2.710
15651SOL    HW248787   5.322   9.984   2.720
15652SOL     OW48788   1.431   5.161   5.456
15652SOL    HW148789   1.491   5.092   5.482
15652SOL    HW248790   1.421   5.150   5.361
15653SOL     OW48791  12.000   7.766  13.881
15653SOL    HW148792  12.080   7.802  13.841
15653SOL    HW248793  11.982   7.825  13.955
15654SOL     OW48794  13.977   0.989   4.313
15654SOL    HW148795  13.895   1.006   4.359
15654SOL    HW248796  14.025   0.930   4.371
15655SOL     OW48797   2.927   2.521   6.512
15655SOL    HW148798   2.950   2.600   6.464
15655SOL    HW248799   2.910   2.551   6.602
15656SOL     OW48800   5.880   2.194  13.934
15656SOL    HW148801   5.964   2.225  13.967
15656SOL    HW248802   5.849   2.132  14.000
15657SOL     OW48803   5.888  10.590   8.781
15657SOL    HW148804   5.830  10.663   8.759
15657SOL    HW248805   5.835  10.512   8.764
15658SOL     OW48806   8.376   2.602   7.692
15658SOL    HW148807   8.367   2.555   7.610
15658SOL    HW248808   8.357   2.693   7.670
15659SOL     OW48809  11.547  12.077   5.654
15659SOL    HW148810  11.589  12.156   5.621
15659SOL    HW248811  11.458  12.081   5.618
15660SOL     OW48812  10.901   1.125   9.561
15660SOL    HW148813  10.926   1.104   9.651
15660SOL    HW248814  10.959   1.197   9.537
15661SOL     OW48815   9.357   3.862   9.076
15661SOL    HW148816   9.365   3.830   9.166
15661SOL    HW248817   9.358   3.783   9.022
15662SOL     OW48818  14.383  13.071   1.500
15662SOL    HW148819  14.410  13.013   1.571
15662SOL    HW248820  14.395  13.020   1.421
15663SOL     OW48821   6.729   1.589   8.937
15663SOL    HW148822   6.809   1.543   8.960
15663SOL    HW248823   6.674   1.582   9.015
15664SOL     OW48824   8.232   4.105  12.441
15664SOL    HW148825   8.199   4.084  12.353
15664SOL    HW248826   8.265   4.022  12.474
15665SOL     OW48827  10.983   5.598   6.636
15665SOL    HW148828  11.008   5.553   6.716
15665SOL    HW248829  11.022   5.546   6.565
15666SOL     OW48830   2.588   3.966   4.681
15666SOL    HW148831   2.570   4.043   4.734
15666SOL    HW248832   2.598   4.000   4.592
15667SOL     OW48833   5.180   1.614   1.122
15667SOL    HW148834   5.093   1.650   1.136
15667SOL    HW248835   5.236   1.691   1.110
15668SOL     OW48836  11.845   3.034  12.920
15668SOL    HW148837  11.803   3.097  12.979
15668SOL    HW248838  11.772   2.998  12.868
15669SOL     OW48839   4.039   9.067   0.519
15669SOL    HW148840   4.028   8.977   0.550
15669SOL    HW248841   4.108   9.062   0.453
15670SOL     OW48842  11.437  12.139   2.095
15670SOL    HW148843  11.438  12.216   2.153
15670SOL    HW248844  11.383  12.075   2.141
15671SOL     OW48845   9.987  11.285   1.241
15671SOL    HW148846  10.013  11.214   1.182
15671SOL    HW248847   9.902  11.257   1.276
15672SOL     OW48848   1.126   9.167   8.189
15672SOL    HW148849   1.198   9.225   8.215
15672SOL    HW248850   1.168   9.092   8.148
15673SOL     OW48851   6.778   5.880  13.550
15673SOL    HW148852   6.718   5.806  13.565
15673SOL    HW248853   6.864   5.845  13.572
15674SOL     OW48854   6.810   8.859  13.069
15674SOL    HW148855   6.773   8.804  12.999
15674SOL    HW248856   6.869   8.800  13.116
15675SOL     OW48857   5.482  10.511   7.001
15675SOL    HW148858   5.497  10.564   7.079
15675SOL    HW248859   5.530  10.557   6.932
15676SOL     OW48860  10.343   6.153  13.448
15676SOL    HW148861  10.339   6.120  13.358
15676SOL    HW248862  10.251   6.158  13.476
15677SOL     OW48863  13.472   2.369   6.868
15677SOL    HW148864  13.451   2.461   6.853
15677SOL    HW248865  13.427   2.323   6.797
15678SOL     OW48866   7.380   0.383  11.158
15678SOL    HW148867   7.394   0.476  11.141
15678SOL    HW248868   7.425   0.366  11.240
15679SOL     OW48869   1.767  13.936  12.457
15679SOL    HW148870   1.799  13.872  12.521
15679SOL    HW248871   1.706  13.990  12.506
15680SOL     OW48872   3.379   6.263   5.472
15680SOL    HW148873   3.350   6.184   5.427
15680SOL    HW248874   3.319   6.272   5.546
15681SOL     OW48875   6.039  11.713   2.024
15681SOL    HW148876   5.976  11.641   2.027
15681SOL    HW248877   6.111  11.684   2.080
15682SOL     OW48878   6.283   1.102   1.042
15682SOL    HW148879   6.288   1.144   0.956
15682SOL    HW248880   6.221   1.030   1.029
15683SOL     OW48881   9.027  13.098  14.049
15683SOL    HW148882   9.056  13.018  14.003
15683SOL    HW248883   8.936  13.109  14.021
15684SOL     OW48884  13.975   7.516   2.756
15684SOL    HW148885  14.050   7.482   2.804
15684SOL    HW248886  13.901   7.506   2.816
15685SOL     OW48887  13.708   0.941  14.705
15685SOL    HW148888  13.706   0.900  14.618
15685SOL    HW248889  13.762   0.882  14.757
15686SOL     OW48890  14.349   1.742   9.518
15686SOL    HW148891  14.314   1.663   9.475
15686SOL    HW248892  14.379   1.797   9.445
15687SOL     OW48893   3.958   4.490   4.108
15687SOL    HW148894   4.005   4.535   4.038
15687SOL    HW248895   4.019   4.491   4.182
15688SOL     OW48896   6.172   9.431   0.463
15688SOL    HW148897   6.142   9.390   0.382
15688SOL    HW248898   6.223   9.362   0.506
15689SOL     OW48899   8.644   6.997   0.881
15689SOL    HW148900   8.699   7.059   0.833
15689SOL    HW248901   8.666   7.011   0.973
15690SOL     OW48902  11.744   2.406  11.683
15690SOL    HW148903  11.827   2.446  11.660
15690SOL    HW248904  11.685   2.430  11.611
15691SOL     OW48905   4.666   8.750  14.401
15691SOL    HW148906   4.622   8.809  14.462
15691SOL    HW248907   4.733   8.804  14.359
15692SOL     OW48908  12.255  10.223  11.127
15692SOL    HW148909  12.193  10.180  11.186
15692SOL    HW248910  12.296  10.291  11.180
15693SOL     OW48911   8.889  14.166   8.503
15693SOL    HW148912   8.889  14.203   8.415
15693SOL    HW248913   8.921  14.237   8.559
15694SOL     OW48914   6.645   7.874  14.480
15694SOL    HW148915   6.680   7.910  14.562
15694SOL    HW248916   6.559   7.839  14.504
15695SOL     OW48917  10.803  10.108  12.468
15695SOL    HW148918  10.859  10.041  12.508
15695SOL    HW248919  10.716  10.069  12.466
15696SOL     OW48920  11.164   6.642  14.705
15696SOL    HW148921  11.072   6.644  14.678
15696SOL    HW248922  11.162   6.605  14.793
15697SOL     OW48923   6.335  13.835   8.190
15697SOL    HW148924   6.365  13.887   8.114
15697SOL    HW248925   6.352  13.744   8.165
15698SOL     OW48926   3.297  14.265   4.331
15698SOL    HW148927   3.296  14.334   4.265
15698SOL    HW248928   3.260  14.306   4.409
15699SOL     OW48929  14.007   9.636   9.522
15699SOL    HW148930  13.915   9.642   9.550
15699SOL    HW248931  14.052   9.600   9.598
15700SOL     OW48932   9.130  10.420  10.098
15700SOL    HW148933   9.220  10.452  10.103
15700SOL    HW248934   9.136  10.337  10.051
15701SOL     OW48935  14.518  12.062  12.968
15701SOL    HW148936  14.491  12.019  13.049
15701SOL    HW248937  14.490  12.153  12.979
15702SOL     OW48938   6.165  11.455  11.996
15702SOL    HW148939   6.251  11.412  12.002
15702SOL    HW248940   6.104  11.392  12.035
15703SOL     OW48941   7.328  14.333   3.347
15703SOL    HW148942   7.370  14.327   3.433
15703SOL    HW248943   7.239  14.363   3.367
15704SOL     OW48944   0.503   5.045   3.845
15704SOL    HW148945   0.592   5.079   3.854
15704SOL    HW248946   0.484   5.050   3.752
15705SOL     OW48947  10.386   2.371   8.836
15705SOL    HW148948  10.445   2.314   8.787
15705SOL    HW248949  10.424   2.458   8.828
15706SOL     OW48950  10.825   1.286  12.072
15706SOL    HW148951  10.898   1.326  12.026
15706SOL    HW248952  10.829   1.193  12.048
15707SOL     OW48953   7.599  13.777   2.374
15707SOL    HW148954   7.545  13.837   2.425
15707SOL    HW248955   7.537  13.720   2.329
15708SOL     OW48956   6.995   1.513   2.100
15708SOL    HW148957   6.918   1.541   2.149
15708SOL    HW248958   6.968   1.516   2.008
15709SOL     OW48959   0.667  10.664   0.018
15709SOL    HW148960   0.763  10.665   0.014
15709SOL    HW248961   0.647  10.594   0.080
15710SOL     OW48962  10.355  10.062   9.614
15710SOL    HW148963  10.432  10.035   9.664
15710SOL    HW248964  10.281  10.022   9.660
15711SOL     OW48965   9.009   0.419  13.964
15711SOL    HW148966   9.103   0.410  13.980
15711SOL    HW248967   8.983   0.497  14.013
15712SOL     OW48968   5.766   3.471   5.406
15712SOL    HW148969   5.834   3.465   5.472
15712SOL    HW248970   5.709   3.396   5.423
15713SOL     OW48971   3.582   9.270  10.336
15713SOL    HW148972   3.529   9.281  10.257
15713SOL    HW248973   3.659   9.326  10.321
15714SOL     OW48974  10.096   6.968   7.573
15714SOL    HW148975  10.049   7.015   7.505
15714SOL    HW248976  10.176   7.019   7.587
15715SOL     OW48977  12.326  14.682   4.672
15715SOL    HW148978  12.240  14.666   4.633
15715SOL    HW248979  12.322  14.772   4.705
15716SOL     OW48980   6.211   7.842  12.666
15716SOL    HW148981   6.285   7.786  12.639
15716SOL    HW248982   6.134   7.792  12.639
15717SOL     OW48983   2.158   0.409   0.648
15717SOL    HW148984   2.175   0.318   0.622
15717SOL    HW248985   2.079   0.433   0.601
15718SOL     OW48986   0.071  11.449   5.456
15718SOL    HW148987  14.868  11.483   5.492
15718SOL    HW248988   0.121  11.527   5.432
15719SOL     OW48989   5.208   7.171  12.045
15719SOL    HW148990   5.303   7.178  12.055
15719SOL    HW248991   5.179   7.128  12.126
15720SOL     OW48992   0.743   7.137  13.144
15720SOL    HW148993   0.716   7.061  13.092
15720SOL    HW248994   0.697   7.127  13.227
15721SOL     OW48995  10.603  11.392  12.668
15721SOL    HW148996  10.690  11.403  12.630
15721SOL    HW248997  10.562  11.478  12.659
15722SOL     OW48998  12.685  11.889   8.498
15722SOL    HW148999  12.649  11.818   8.445
15722SOL    HW249000  12.629  11.964   8.478
15723SOL     OW49001   9.762  10.751   0.730
15723SOL    HW149002   9.747  10.779   0.821
15723SOL    HW249003   9.800  10.663   0.738
15724SOL     OW49004   4.759   7.680   0.272
15724SOL    HW149005   4.682   7.696   0.218
15724SOL    HW249006   4.725   7.673   0.361
15725SOL     OW49007   9.533  12.343  11.505
15725SOL    HW149008   9.610  12.306  11.547
15725SOL    HW249009   9.557  12.350  11.413
15726SOL     OW49010   1.288   4.638   7.605
15726SOL    HW149011   1.324   4.722   7.633
15726SOL    HW249012   1.218   4.620   7.667
15727SOL     OW49013   6.843  12.091  13.894
15727SOL    HW149014   6.833  12.125  13.806
15727SOL    HW249015   6.776  12.023  13.901
15728SOL     OW49016   1.711  11.362   7.542
15728SOL    HW149017   1.767  11.420   7.594
15728SOL    HW249018   1.764  11.283   7.528
15729SOL     OW49019   1.302   0.494  11.733
15729SOL    HW149020   1.328   0.486  11.825
15729SOL    HW249021   1.308   0.405  11.699
15730SOL     OW49022   5.679   1.942  12.105
15730SOL    HW149023   5.738   1.879  12.147
15730SOL    HW249024   5.718   2.027  12.123
15731SOL     OW49025   4.508   1.779   2.922
15731SOL    HW149026   4.536   1.693   2.890
15731SOL    HW249027   4.590   1.827   2.935
15732SOL     OW49028  12.003  12.922   7.466
15732SOL    HW149029  11.908  12.931   7.460
15732SOL    HW249030  12.035  12.945   7.379
15733SOL     OW49031   6.415   8.998  12.406
15733SOL    HW149032   6.460   9.028  12.485
15733SOL    HW249033   6.326   8.977  12.434
15734SOL     OW49034  13.533  11.825   4.738
15734SOL    HW149035  13.542  11.843   4.831
15734SOL    HW249036  13.528  11.730   4.732
15735SOL     OW49037   5.163   2.915   0.389
15735SOL    HW149038   5.227   2.942   0.323
15735SOL    HW249039   5.097   2.984   0.389
15736SOL     OW49040   0.418   8.000   0.997
15736SOL    HW149041   0.413   7.982   0.903
15736SOL    HW249042   0.509   7.982   1.020
15737SOL     OW49043  10.873  10.356   5.368
15737SOL    HW149044  10.931  10.288   5.401
15737SOL    HW249045  10.931  10.416   5.320
15738SOL     OW49046   8.684   3.215   1.639
15738SOL    HW149047   8.711   3.220   1.547
15738SOL    HW249048   8.589   3.228   1.636
15739SOL     OW49049   1.870   5.687   4.598
15739SOL    HW149050   1.796   5.634   4.566
15739SOL    HW249051   1.916   5.714   4.519
15740SOL     OW49052   6.944  12.978   1.969
15740SOL    HW149053   6.858  12.975   1.929
15740SOL    HW249054   6.953  12.894   2.014
15741SOL     OW49055   1.338   2.821   7.008
15741SOL    HW149056   1.256   2.772   7.008
15741SOL    HW249057   1.315   2.906   7.044
15742SOL     OW49058  13.535   3.478   8.224
15742SOL    HW149059  13.561   3.437   8.306
15742SOL    HW249060  13.520   3.570   8.247
15743SOL     OW49061  12.295   5.098   2.096
15743SOL    HW149062  12.236   5.031   2.129
15743SOL    HW249063  12.357   5.113   2.168
15744SOL     OW49064  10.169  12.985   7.913
15744SOL    HW149065  10.165  13.060   7.853
15744SOL    HW249066  10.219  12.919   7.866
15745SOL     OW49067   4.177  14.449  11.751
15745SOL    HW149068   4.089  14.467  11.783
15745SOL    HW249069   4.166  14.376  11.690
15746SOL     OW49070  10.219  14.143  12.781
15746SOL    HW149071  10.247  14.068  12.833
15746SOL    HW249072  10.125  14.151  12.797
15747SOL     OW49073   2.012   6.384   9.103
15747SOL    HW149074   1.966   6.304   9.080
15747SOL    HW249075   2.003   6.391   9.198
15748SOL     OW49076   7.885  11.809   7.099
15748SOL    HW149077   7.845  11.842   7.019
15748SOL    HW249078   7.947  11.742   7.070
15749SOL     OW49079   2.559  13.885   8.402
15749SOL    HW149080   2.585  13.872   8.493
15749SOL    HW249081   2.464  13.869   8.401
15750SOL     OW49082  14.796   9.402   0.715
15750SOL    HW149083  14.845   9.320   0.713
15750SOL    HW249084  14.811   9.438   0.803
15751SOL     OW49085  12.272   1.617   5.876
15751SOL    HW149086  12.252   1.526   5.854
15751SOL    HW249087  12.282   1.660   5.792
15752SOL     OW49088   8.913  12.686   2.182
15752SOL    HW149089   8.832  12.655   2.141
15752SOL    HW249090   8.909  12.650   2.271
15753SOL     OW49091   8.615  11.584   1.743
15753SOL    HW149092   8.589  11.672   1.719
15753SOL    HW249093   8.536  11.531   1.732
15754SOL     OW49094  12.012   1.627   9.698
15754SOL    HW149095  11.973   1.705   9.738
15754SOL    HW249096  12.106   1.637   9.713
15755SOL     OW49097   1.802  11.628   9.981
15755SOL    HW149098   1.772  11.614   9.891
15755SOL    HW249099   1.782  11.720   9.999
15756SOL     OW49100   3.105   7.217   2.600
15756SOL    HW149101   3.044   7.155   2.560
15756SOL    HW249102   3.051   7.267   2.661
15757SOL     OW49103   7.017   5.452   4.240
15757SOL    HW149104   6.986   5.363   4.226
15757SOL    HW249105   6.958   5.487   4.308
15758SOL     OW49106   1.994   4.007   9.942
15758SOL    HW149107   1.904   4.005   9.974
15758SOL    HW249108   2.036   4.078   9.992
15759SOL     OW49109   9.949   8.469   5.652
15759SOL    HW149110   9.979   8.402   5.712
15759SOL    HW249111  10.028   8.509   5.617
15760SOL     OW49112   7.321   7.998   9.907
15760SOL    HW149113   7.239   7.963   9.942
15760SOL    HW249114   7.304   8.091   9.896
15761SOL     OW49115   7.919   0.938   9.095
15761SOL    HW149116   7.880   0.891   9.021
15761SOL    HW249117   7.867   0.911   9.170
15762SOL     OW49118  13.334   1.861   2.834
15762SOL    HW149119  13.389   1.909   2.771
15762SOL    HW249120  13.275   1.809   2.779
15763SOL     OW49121   0.742  10.270   4.780
15763SOL    HW149122   0.675  10.233   4.723
15763SOL    HW249123   0.825  10.250   4.737
15764SOL     OW49124  14.440   2.847   2.152
15764SOL    HW149125  14.412   2.897   2.075
15764SOL    HW249126  14.400   2.761   2.141
15765SOL     OW49127   4.525  12.302   1.518
15765SOL    HW149128   4.606  12.338   1.554
15765SOL    HW249129   4.460  12.370   1.532
15766SOL     OW49130  14.048   5.326   4.258
15766SOL    HW149131  14.076   5.269   4.186
15766SOL    HW249132  14.043   5.267   4.333
15767SOL     OW49133  14.374   8.312   8.355
15767SOL    HW149134  14.468   8.296   8.349
15767SOL    HW249135  14.358   8.383   8.293
15768SOL     OW49136   1.272   3.760   3.446
15768SOL    HW149137   1.205   3.784   3.510
15768SOL    HW249138   1.333   3.833   3.447
15769SOL     OW49139   4.816   6.873  12.875
15769SOL    HW149140   4.776   6.819  12.807
15769SOL    HW249141   4.836   6.956  12.831
15770SOL     OW49142   7.629   1.197   2.199
15770SOL    HW149143   7.607   1.273   2.146
15770SOL    HW249144   7.612   1.122   2.142
15771SOL     OW49145  14.022   3.522  12.212
15771SOL    HW149146  13.930   3.540  12.190
15771SOL    HW249147  14.020   3.500  12.306
15772SOL     OW49148  12.507   2.029  10.789
15772SOL    HW149149  12.458   2.031  10.871
15772SOL    HW249150  12.591   2.071  10.810
15773SOL     OW49151   0.418   1.251   3.802
15773SOL    HW149152   0.392   1.305   3.728
15773SOL    HW249153   0.336   1.230   3.847
15774SOL     OW49154   2.018   9.392  12.185
15774SOL    HW149155   1.948   9.418  12.125
15774SOL    HW249156   2.089   9.455  12.168
15775SOL     OW49157   5.261  12.815   3.129
15775SOL    HW149158   5.244  12.807   3.035
15775SOL    HW249159   5.329  12.881   3.136
15776SOL     OW49160   0.958   0.849   4.357
15776SOL    HW149161   0.896   0.811   4.294
15776SOL    HW249162   1.034   0.790   4.354
15777SOL     OW49163   4.713  11.730   2.197
15777SOL    HW149164   4.625  11.742   2.160
15777SOL    HW249165   4.697  11.690   2.283
15778SOL     OW49166   2.627   4.589   9.149
15778SOL    HW149167   2.711   4.546   9.138
15778SOL    HW249168   2.616   4.598   9.244
15779SOL     OW49169   8.794   7.863   2.841
15779SOL    HW149170   8.789   7.850   2.747
15779SOL    HW249171   8.770   7.955   2.854
15780SOL     OW49172   0.426   2.103   5.549
15780SOL    HW149173   0.513   2.090   5.589
15780SOL    HW249174   0.370   2.128   5.623
15781SOL     OW49175  11.200   2.534   0.521
15781SOL    HW149176  11.295   2.519   0.525
15781SOL    HW249177  11.169   2.520   0.610
15782SOL     OW49178   6.445   5.094  14.180
15782SOL    HW149179   6.491   5.050  14.109
15782SOL    HW249180   6.427   5.182  14.147
15783SOL     OW49181  13.667   8.829  14.077
15783SOL    HW149182  13.691   8.921  14.085
15783SOL    HW249183  13.574   8.826  14.099
15784SOL     OW49184  11.349   1.294   9.517
15784SOL    HW149185  11.312   1.261   9.435
15784SOL    HW249186  11.420   1.353   9.490
15785SOL     OW49187  11.574   0.924  14.003
15785SOL    HW149188  11.548   0.930  13.911
15785SOL    HW249189  11.669   0.925  14.001
15786SOL     OW49190   4.155   1.228   0.558
15786SOL    HW149191   4.078   1.230   0.501
15786SOL    HW249192   4.118   1.226   0.647
15787SOL     OW49193  10.989  12.921  14.133
15787SOL    HW149194  10.965  13.008  14.104
15787SOL    HW249195  11.061  12.895  14.076
15788SOL     OW49196   9.268   7.824  11.678
15788SOL    HW149197   9.204   7.859  11.740
15788SOL    HW249198   9.243   7.732  11.667
15789SOL     OW49199  14.213   5.428   9.097
15789SOL    HW149200  14.293   5.378   9.117
15789SOL    HW249201  14.242   5.494   9.034
15790SOL     OW49202  13.932   9.598  12.653
15790SOL    HW149203  13.996   9.667  12.632
15790SOL    HW249204  13.850   9.644  12.667
15791SOL     OW49205   1.844   1.344  14.710
15791SOL    HW149206   1.921   1.287  14.717
15791SOL    HW249207   1.820   1.362  14.801
15792SOL     OW49208  11.493   5.942   1.217
15792SOL    HW149209  11.566   5.906   1.267
15792SOL    HW249210  11.531   6.016   1.170
15793SOL     OW49211   4.822  14.473  11.425
15793SOL    HW149212   4.782  14.478  11.338
15793SOL    HW249213   4.769  14.529  11.480
15794SOL     OW49214   3.214   5.338   0.014
15794SOL    HW149215   3.210   5.342  14.797
15794SOL    HW249216   3.296   5.381   0.037
15795SOL     OW49217   4.110  12.623   2.413
15795SOL    HW149218   4.111  12.669   2.496
15795SOL    HW249219   4.063  12.681   2.353
15796SOL     OW49220  13.956  10.290   0.967
15796SOL    HW149221  13.952  10.284   1.062
15796SOL    HW249222  14.008  10.215   0.940
15797SOL     OW49223   8.412   0.715  14.142
15797SOL    HW149224   8.413   0.720  14.046
15797SOL    HW249225   8.406   0.622  14.161
15798SOL     OW49226  10.665   8.626   8.321
15798SOL    HW149227  10.601   8.561   8.290
15798SOL    HW249228  10.700   8.665   8.241
15799SOL     OW49229   0.844  14.447   3.237
15799SOL    HW149230   0.884  14.444   3.323
15799SOL    HW249231   0.907  14.403   3.179
15800SOL     OW49232   4.941   0.209   8.080
15800SOL    HW149233   5.021   0.183   8.035
15800SOL    HW249234   4.912   0.130   8.126
15801SOL     OW49235   1.444   6.763   3.661
15801SOL    HW149236   1.392   6.708   3.721
15801SOL    HW249237   1.438   6.717   3.577
15802SOL     OW49238  12.096  12.866   0.321
15802SOL    HW149239  12.106  12.954   0.357
15802SOL    HW249240  12.004  12.843   0.338
15803SOL     OW49241   0.939   7.356   0.137
15803SOL    HW149242   0.872   7.288   0.125
15803SOL    HW249243   1.021   7.314   0.112
15804SOL     OW49244  13.435   5.559   3.879
15804SOL    HW149245  13.453   5.465   3.867
15804SOL    HW249246  13.341   5.563   3.898
15805SOL     OW49247  14.057   7.598  10.052
15805SOL    HW149248  14.000   7.605  10.128
15805SOL    HW249249  14.017   7.656   9.987
15806SOL     OW49250  13.204   7.711   5.465
15806SOL    HW149251  13.280   7.701   5.407
15806SOL    HW249252  13.228   7.785   5.522
15807SOL     OW49253   5.573   4.331   5.105
15807SOL    HW149254   5.520   4.253   5.088
15807SOL    HW249255   5.569   4.381   5.023
15808SOL     OW49256   7.341   3.265  14.095
15808SOL    HW149257   7.401   3.317  14.148
15808SOL    HW249258   7.379   3.177  14.095
15809SOL     OW49259   7.624   2.577   2.355
15809SOL    HW149260   7.717   2.562   2.375
15809SOL    HW249261   7.577   2.541   2.430
15810SOL     OW49262  11.126   3.066   7.072
15810SOL    HW149263  11.047   3.099   7.115
15810SOL    HW249264  11.198   3.100   7.125
15811SOL     OW49265  14.761   8.315  11.606
15811SOL    HW149266  14.759   8.269  11.689
15811SOL    HW249267  14.733   8.404  11.626
15812SOL     OW49268  10.787   0.115  12.534
15812SOL    HW149269  10.863   0.058  12.547
15812SOL    HW249270  10.792   0.140  12.442
15813SOL     OW49271  11.421  14.297   0.889
15813SOL    HW149272  11.385  14.303   0.800
15813SOL    HW249273  11.343  14.294   0.945
15814SOL     OW49274   9.709   2.592  10.097
15814SOL    HW149275   9.714   2.670  10.153
15814SOL    HW249276   9.649   2.616  10.027
15815SOL     OW49277   4.261   2.456  10.583
15815SOL    HW149278   4.355   2.446  10.601
15815SOL    HW249279   4.226   2.496  10.662
15816SOL     OW49280  11.502   5.528   7.340
15816SOL    HW149281  11.429   5.523   7.277
15816SOL    HW249282  11.580   5.512   7.287
15817SOL     OW49283  12.452   4.426   3.679
15817SOL    HW149284  12.458   4.363   3.750
15817SOL    HW249285  12.359   4.444   3.669
15818SOL     OW49286  14.146   1.190  10.208
15818SOL    HW149287  14.061   1.163  10.174
15818SOL    HW249288  14.169   1.122  10.271
15819SOL     OW49289   5.058   2.147   4.948
15819SOL    HW149290   5.003   2.092   5.004
15819SOL    HW249291   5.105   2.085   4.893
15820SOL     OW49292   5.540   0.889   0.397
15820SOL    HW149293   5.603   0.957   0.419
15820SOL    HW249294   5.563   0.816   0.455
15821SOL     OW49295   3.407  10.119   9.374
15821SOL    HW149296   3.328  10.119   9.321
15821SOL    HW249297   3.474  10.158   9.318
15822SOL     OW49298   9.352  12.659   0.578
15822SOL    HW149299   9.300  12.622   0.506
15822SOL    HW249300   9.395  12.735   0.539
15823SOL     OW49301   9.536   2.615   0.206
15823SOL    HW149302   9.591   2.686   0.172
15823SOL    HW249303   9.451   2.629   0.166
15824SOL     OW49304   1.087   2.429   5.319
15824SOL    HW149305   1.181   2.445   5.329
15824SOL    HW249306   1.048   2.462   5.400
15825SOL     OW49307   2.406   5.607  10.491
15825SOL    HW149308   2.469   5.668  10.455
15825SOL    HW249309   2.402   5.628  10.584
15826SOL     OW49310   6.303   9.001  10.605
15826SOL    HW149311   6.246   8.948  10.661
15826SOL    HW249312   6.344   8.938  10.545
15827SOL     OW49313   2.369   4.747  12.126
15827SOL    HW149314   2.273   4.748  12.120
15827SOL    HW249315   2.399   4.773  12.039
15828SOL     OW49316  13.910  11.910  12.748
15828SOL    HW149317  13.873  11.851  12.815
15828SOL    HW249318  13.895  11.998  12.783
15829SOL     OW49319  10.583  10.792  13.005
15829SOL    HW149320  10.572  10.817  12.913
15829SOL    HW249321  10.615  10.702  13.002
15830SOL     OW49322   1.715  10.840   1.330
15830SOL    HW149323   1.672  10.856   1.246
15830SOL    HW249324   1.735  10.746   1.330
15831SOL     OW49325   1.920   2.292   3.590
15831SOL    HW149326   1.995   2.350   3.578
15831SOL    HW249327   1.930   2.259   3.680
15832SOL     OW49328   5.225  12.389   3.816
15832SOL    HW149329   5.203  12.443   3.892
15832SOL    HW249330   5.250  12.452   3.748
15833SOL     OW49331  11.972   8.924  10.370
15833SOL    HW149332  11.898   8.905  10.428
15833SOL    HW249333  11.956   9.013  10.338
15834SOL     OW49334  11.468  13.472  11.900
15834SOL    HW149335  11.517  13.539  11.947
15834SOL    HW249336  11.521  13.451  11.824
15835SOL     OW49337  12.746  10.864  11.023
15835SOL    HW149338  12.788  10.943  10.991
15835SOL    HW249339  12.656  10.869  10.989
15836SOL     OW49340   8.324  12.965   9.081
15836SOL    HW149341   8.300  12.947   9.172
15836SOL    HW249342   8.288  12.891   9.032
15837SOL     OW49343   7.136  12.074   7.841
15837SOL    HW149344   7.097  11.988   7.822
15837SOL    HW249345   7.144  12.116   7.755
15838SOL     OW49346  10.869   9.454   0.126
15838SOL    HW149347  10.789   9.477   0.174
15838SOL    HW249348  10.919   9.401   0.187
15839SOL     OW49349   5.797  12.824   2.214
15839SOL    HW149350   5.842  12.784   2.289
15839SOL    HW249351   5.729  12.761   2.190
15840SOL     OW49352   6.343   8.955   7.348
15840SOL    HW149353   6.372   9.033   7.302
15840SOL    HW249354   6.247   8.964   7.354
15841SOL     OW49355  12.414   2.461   7.416
15841SOL    HW149356  12.475   2.445   7.344
15841SOL    HW249357  12.359   2.382   7.418
15842SOL     OW49358   6.761   2.580   6.834
15842SOL    HW149359   6.733   2.671   6.842
15842SOL    HW249360   6.755   2.545   6.923
15843SOL     OW49361   6.241   0.321  10.787
15843SOL    HW149362   6.299   0.346  10.715
15843SOL    HW249363   6.153   0.341  10.755
15844SOL     OW49364  12.516   3.393   1.571
15844SOL    HW149365  12.453   3.342   1.519
15844SOL    HW249366  12.461   3.450   1.625
15845SOL     OW49367   9.836  14.347   4.206
15845SOL    HW149368   9.744  14.321   4.218
15845SOL    HW249369   9.877  14.271   4.166
15846SOL     OW49370  11.334  11.225  12.638
15846SOL    HW149371  11.314  11.143  12.592
15846SOL    HW249372  11.405  11.201  12.698
15847SOL     OW49373  12.332   3.188   4.972
15847SOL    HW149374  12.286   3.221   4.895
15847SOL    HW249375  12.425   3.190   4.948
15848SOL     OW49376  14.149   5.467   1.392
15848SOL    HW149377  14.066   5.431   1.424
15848SOL    HW249378  14.196   5.495   1.471
15849SOL     OW49379   6.138   3.194   6.655
15849SOL    HW149380   6.113   3.119   6.601
15849SOL    HW249381   6.091   3.268   6.617
15850SOL     OW49382   9.855   2.273   8.776
15850SOL    HW149383   9.935   2.224   8.798
15850SOL    HW249384   9.865   2.357   8.820
15851SOL     OW49385  12.633  11.186   0.922
15851SOL    HW149386  12.691  11.192   0.846
15851SOL    HW249387  12.559  11.134   0.892
15852SOL     OW49388   1.724  14.601   4.524
15852SOL    HW149389   1.731  14.696   4.532
15852SOL    HW249390   1.813  14.572   4.499
15853SOL     OW49391   4.192  10.051   3.155
15853SOL    HW149392   4.113  10.075   3.203
15853SOL    HW249393   4.191   9.956   3.154
15854SOL     OW49394   4.380   6.136   5.201
15854SOL    HW149395   4.380   6.204   5.134
15854SOL    HW249396   4.432   6.173   5.273
15855SOL     OW49397   3.877  11.390   1.073
15855SOL    HW149398   3.882  11.409   0.979
15855SOL    HW249399   3.893  11.295   1.078
15856SOL     OW49400   5.033  10.744   5.587
15856SOL    HW149401   4.963  10.678   5.578
15856SOL    HW249402   5.113  10.697   5.562
15857SOL     OW49403   8.927  12.760   7.045
15857SOL    HW149404   8.848  12.809   7.066
15857SOL    HW249405   8.895  12.672   7.022
15858SOL     OW49406  13.167  12.559   6.465
15858SOL    HW149407  13.217  12.573   6.385
15858SOL    HW249408  13.211  12.484   6.507
15859SOL     OW49409   9.317   4.007  12.312
15859SOL    HW149410   9.404   4.048  12.314
15859SOL    HW249411   9.318   3.945  12.385
15860SOL     OW49412   0.606   7.026   3.428
15860SOL    HW149413   0.557   7.108   3.421
15860SOL    HW249414   0.538   6.959   3.441
15861SOL     OW49415   6.083   3.205  10.690
15861SOL    HW149416   6.080   3.114  10.722
15861SOL    HW249417   5.991   3.228  10.677
15862SOL     OW49418   0.890  12.841   9.967
15862SOL    HW149419   0.956  12.893   9.921
15862SOL    HW249420   0.859  12.779   9.902
15863SOL     OW49421   9.560   0.199   4.512
15863SOL    HW149422   9.547   0.223   4.421
15863SOL    HW249423   9.656   0.195   4.522
15864SOL     OW49424   1.081   2.077   5.140
15864SOL    HW149425   1.153   2.089   5.202
15864SOL    HW249426   1.024   2.152   5.154
15865SOL     OW49427  13.982   0.971   2.039
15865SOL    HW149428  13.971   0.911   2.113
15865SOL    HW249429  13.957   1.056   2.074
15866SOL     OW49430   8.122  14.527  13.947
15866SOL    HW149431   8.081  14.484  13.872
15866SOL    HW249432   8.214  14.500  13.943
15867SOL     OW49433   9.404   9.238   3.959
15867SOL    HW149434   9.495   9.267   3.967
15867SOL    HW249435   9.407   9.164   3.899
15868SOL     OW49436  11.579  13.438   7.145
15868SOL    HW149437  11.573  13.450   7.240
15868SOL    HW249438  11.672  13.422   7.128
15869SOL     OW49439  10.325  14.206  10.494
15869SOL    HW149440  10.293  14.199  10.584
15869SOL    HW249441  10.249  14.236  10.444
15870SOL     OW49442   3.486   4.740  10.897
15870SOL    HW149443   3.435   4.662  10.874
15870SOL    HW249444   3.563   4.736  10.840
15871SOL     OW49445   1.797   0.803  13.599
15871SOL    HW149446   1.866   0.779  13.538
15871SOL    HW249447   1.823   0.889  13.632
15872SOL     OW49448  11.265  10.792   2.961
15872SOL    HW149449  11.287  10.877   3.000
15872SOL    HW249450  11.201  10.754   3.022
15873SOL     OW49451   2.107  12.309  11.396
15873SOL    HW149452   2.199  12.309  11.370
15873SOL    HW249453   2.064  12.253  11.331
15874SOL     OW49454   8.047   2.568  13.653
15874SOL    HW149455   8.064   2.582  13.560
15874SOL    HW249456   7.986   2.638  13.677
15875SOL     OW49457   8.685  13.356  12.665
15875SOL    HW149458   8.626  13.281  12.655
15875SOL    HW249459   8.642  13.412  12.729
15876SOL     OW49460   7.199   9.730   1.789
15876SOL    HW149461   7.217   9.644   1.827
15876SOL    HW249462   7.132   9.768   1.846
15877SOL     OW49463   3.473  12.611  13.908
15877SOL    HW149464   3.564  12.582  13.901
15877SOL    HW249465   3.428  12.567  13.837
15878SOL     OW49466   9.694  10.257  14.058
15878SOL    HW149467   9.684  10.169  14.095
15878SOL    HW249468   9.647  10.253  13.974
15879SOL     OW49469   4.136   5.476  13.592
15879SOL    HW149470   4.085   5.557  13.586
15879SOL    HW249471   4.225   5.505  13.615
15880SOL     OW49472   9.535  14.333  14.090
15880SOL    HW149473   9.572  14.374  14.168
15880SOL    HW249474   9.593  14.359  14.019
15881SOL     OW49475   7.952  10.762  11.363
15881SOL    HW149476   8.025  10.704  11.384
15881SOL    HW249477   7.993  10.843  11.334
15882SOL     OW49478   8.365   3.286   8.773
15882SOL    HW149479   8.280   3.255   8.741
15882SOL    HW249480   8.346   3.370   8.813
15883SOL     OW49481   0.183   1.994  10.586
15883SOL    HW149482   0.109   2.050  10.606
15883SOL    HW249483   0.195   1.940  10.665
15884SOL     OW49484   0.127   5.168  12.102
15884SOL    HW149485   0.158   5.127  12.182
15884SOL    HW249486   0.159   5.111  12.031
15885SOL     OW49487   6.557   1.575   7.735
15885SOL    HW149488   6.542   1.601   7.826
15885SOL    HW249489   6.565   1.658   7.688
15886SOL     OW49490   5.126   4.557  10.475
15886SOL    HW149491   5.093   4.576  10.387
15886SOL    HW249492   5.201   4.616  10.486
15887SOL     OW49493   6.049   5.419  11.952
15887SOL    HW149494   6.133   5.459  11.929
15887SOL    HW249495   5.986   5.464  11.896
15888SOL     OW49496   8.023   0.422   5.092
15888SOL    HW149497   8.060   0.346   5.048
15888SOL    HW249498   8.081   0.436   5.168
15889SOL     OW49499  10.378   1.215   3.636
15889SOL    HW149500  10.303   1.199   3.694
15889SOL    HW249501  10.430   1.281   3.682
15890SOL     OW49502  10.195   5.097  12.265
15890SOL    HW149503  10.288   5.079  12.277
15890SOL    HW249504  10.192   5.178  12.213
15891SOL     OW49505  14.524   3.487   0.094
15891SOL    HW149506  14.517   3.392   0.081
15891SOL    HW249507  14.457   3.523   0.036
15892SOL     OW49508  13.563  11.624   9.681
15892SOL    HW149509  13.564  11.537   9.642
15892SOL    HW249510  13.554  11.683   9.606
15893SOL     OW49511   7.149  14.016   2.957
15893SOL    HW149512   7.168  14.095   3.007
15893SOL    HW249513   7.055  14.001   2.968
15894SOL     OW49514   0.439   3.407   5.041
15894SOL    HW149515   0.534   3.415   5.031
15894SOL    HW249516   0.404   3.488   5.004
15895SOL     OW49517  14.694  10.025   3.654
15895SOL    HW149518  14.685   9.943   3.702
15895SOL    HW249519  14.700   9.999   3.562
15896SOL     OW49520   1.313   9.490   6.555
15896SOL    HW149521   1.269   9.564   6.514
15896SOL    HW249522   1.395   9.481   6.506
15897SOL     OW49523  10.616   2.164   5.764
15897SOL    HW149524  10.657   2.131   5.844
15897SOL    HW249525  10.650   2.253   5.754
15898SOL     OW49526  10.937  14.859   7.678
15898SOL    HW149527  10.999   0.053   7.666
15898SOL    HW249528  10.977  14.806   7.747
15899SOL     OW49529   5.357  13.207   8.272
15899SOL    HW149530   5.391  13.251   8.194
15899SOL    HW249531   5.262  13.212   8.263
15900SOL     OW49532  10.274   8.410   8.853
15900SOL    HW149533  10.228   8.417   8.937
15900SOL    HW249534  10.209   8.373   8.793
15901SOL     OW49535  10.960   8.828  10.454
15901SOL    HW149536  10.985   8.919  10.468
15901SOL    HW249537  10.918   8.801  10.536
15902SOL     OW49538  12.611   2.886   8.782
15902SOL    HW149539  12.516   2.882   8.791
15902SOL    HW249540  12.644   2.833   8.855
15903SOL     OW49541  11.064   3.404   4.127
15903SOL    HW149542  11.008   3.376   4.200
15903SOL    HW249543  11.091   3.492   4.151
15904SOL     OW49544   6.767  14.812   0.597
15904SOL    HW149545   6.837  14.857   0.550
15904SOL    HW249546   6.706   0.004   0.621
15905SOL     OW49547  14.607  14.151   1.801
15905SOL    HW149548  14.520  14.150   1.841
15905SOL    HW249549  14.607  14.074   1.743
15906SOL     OW49550   7.735   0.666   7.117
15906SOL    HW149551   7.778   0.699   7.195
15906SOL    HW249552   7.793   0.598   7.084
15907SOL     OW49553  11.664  10.575  13.889
15907SOL    HW149554  11.666  10.488  13.850
15907SOL    HW249555  11.601  10.624  13.836
15908SOL     OW49556   7.338   1.389   6.304
15908SOL    HW149557   7.348   1.484   6.309
15908SOL    HW249558   7.422   1.358   6.269
15909SOL     OW49559   7.278   8.015  14.445
15909SOL    HW149560   7.210   8.080  14.464
15909SOL    HW249561   7.327   8.006  14.527
15910SOL     OW49562   0.429   8.548   7.194
15910SOL    HW149563   0.452   8.608   7.265
15910SOL    HW249564   0.411   8.465   7.237
15911SOL     OW49565   8.465   0.792   6.800
15911SOL    HW149566   8.470   0.861   6.733
15911SOL    HW249567   8.445   0.713   6.750
15912SOL     OW49568   5.783   2.034   9.853
15912SOL    HW149569   5.863   2.067   9.813
15912SOL    HW249570   5.735   2.113   9.879
15913SOL     OW49571   2.844  12.147   8.614
15913SOL    HW149572   2.784  12.147   8.688
15913SOL    HW249573   2.818  12.223   8.562
15914SOL     OW49574  14.720   9.189  14.167
15914SOL    HW149575  14.793   9.158  14.114
15914SOL    HW249576  14.642   9.170  14.114
15915SOL     OW49577   3.639   3.365  10.096
15915SOL    HW149578   3.689   3.420  10.156
15915SOL    HW249579   3.568   3.329  10.149
15916SOL     OW49580  14.753   1.768   4.519
15916SOL    HW149581  14.809   1.726   4.585
15916SOL    HW249582  14.787   1.737   4.435
15917SOL     OW49583  12.478  14.597  11.021
15917SOL    HW149584  12.455  14.633  10.935
15917SOL    HW249585  12.452  14.665  11.083
15918SOL     OW49586  13.121  13.117  11.971
15918SOL    HW149587  13.026  13.128  11.977
15918SOL    HW249588  13.135  13.084  11.882
15919SOL     OW49589   7.690   1.311   9.376
15919SOL    HW149590   7.708   1.297   9.283
15919SOL    HW249591   7.771   1.287   9.420
15920SOL     OW49592   7.742  13.734   6.060
15920SOL    HW149593   7.746  13.650   6.015
15920SOL    HW249594   7.715  13.713   6.150
15921SOL     OW49595   0.940  14.374  10.865
15921SOL    HW149596   1.013  14.410  10.814
15921SOL    HW249597   0.972  14.289  10.895
15922SOL     OW49598  13.021   0.893  10.887
15922SOL    HW149599  12.975   0.954  10.831
15922SOL    HW249600  13.048   0.945  10.963
15923SOL     OW49601  10.797   9.596   8.759
15923SOL    HW149602  10.816   9.666   8.696
15923SOL    HW249603  10.757   9.641   8.834
15924SOL     OW49604   7.774   7.991   2.869
15924SOL    HW149605   7.853   8.043   2.877
15924SOL    HW249606   7.790   7.914   2.924
15925SOL     OW49607   5.680  11.137  11.208
15925SOL    HW149608   5.747  11.071  11.227
15925SOL    HW249609   5.726  11.203  11.155
15926SOL     OW49610  11.722   1.532  11.114
15926SOL    HW149611  11.747   1.624  11.103
15926SOL    HW249612  11.691   1.526  11.204
15927SOL     OW49613  13.537   7.253  12.029
15927SOL    HW149614  13.482   7.309  11.974
15927SOL    HW249615  13.491   7.250  12.113
15928SOL     OW49616   9.750   3.626   7.282
15928SOL    HW149617   9.785   3.645   7.195
15928SOL    HW249618   9.702   3.705   7.307
15929SOL     OW49619   5.432   4.056  11.592
15929SOL    HW149620   5.348   4.088  11.626
15929SOL    HW249621   5.409   4.006  11.514
15930SOL     OW49622  12.788   1.215   7.052
15930SOL    HW149623  12.710   1.177   7.093
15930SOL    HW249624  12.809   1.291   7.107
15931SOL     OW49625   3.913  14.690  14.242
15931SOL    HW149626   3.853  14.703  14.316
15931SOL    HW249627   3.894  14.763  14.183
15932SOL     OW49628  13.066   7.298  10.871
15932SOL    HW149629  13.136   7.247  10.912
15932SOL    HW249630  13.093   7.307  10.780
15933SOL     OW49631   9.838   4.456   5.544
15933SOL    HW149632   9.807   4.389   5.605
15933SOL    HW249633   9.796   4.435   5.461
15934SOL     OW49634   4.370  12.537   4.466
15934SOL    HW149635   4.384  12.540   4.560
15934SOL    HW249636   4.452  12.567   4.428
15935SOL     OW49637  10.235   1.056   1.664
15935SOL    HW149638  10.163   1.081   1.606
15935SOL    HW249639  10.307   1.034   1.604
15936SOL     OW49640   0.664  14.444   6.820
15936SOL    HW149641   0.612  14.525   6.830
15936SOL    HW249642   0.624  14.382   6.880
15937SOL     OW49643  13.363   8.394   3.183
15937SOL    HW149644  13.284   8.442   3.206
15937SOL    HW249645  13.347   8.364   3.093
15938SOL     OW49646   6.904   8.199  13.737
15938SOL    HW149647   6.827   8.182  13.792
15938SOL    HW249648   6.976   8.155  13.782
15939SOL     OW49649  11.453   7.032  10.302
15939SOL    HW149650  11.492   6.946  10.319
15939SOL    HW249651  11.527   7.087  10.278
15940SOL     OW49652   9.978  11.710   4.613
15940SOL    HW149653  10.053  11.745   4.661
15940SOL    HW249654  10.017  11.673   4.533
15941SOL     OW49655  10.506  13.498  11.621
15941SOL    HW149656  10.595  13.477  11.595
15941SOL    HW249657  10.457  13.500  11.539
15942SOL     OW49658  14.853   5.153  11.607
15942SOL    HW149659  14.770   5.148  11.653
15942SOL    HW249660   0.014   5.067  11.620
15943SOL     OW49661   7.931   3.153   3.705
15943SOL    HW149662   7.984   3.215   3.755
15943SOL    HW249663   7.994   3.099   3.658
15944SOL     OW49664  14.684   6.742   9.576
15944SOL    HW149665  14.631   6.787   9.642
15944SOL    HW249666  14.694   6.653   9.610
15945SOL     OW49667   6.015   8.467  13.175
15945SOL    HW149668   5.979   8.421  13.251
15945SOL    HW249669   5.949   8.455  13.107
15946SOL     OW49670   9.664  12.833   1.373
15946SOL    HW149671   9.593  12.778   1.339
15946SOL    HW249672   9.704  12.871   1.294
15947SOL     OW49673   6.162  10.655   7.774
15947SOL    HW149674   6.245  10.608   7.761
15947SOL    HW249675   6.096  10.600   7.731
15948SOL     OW49676   5.192  11.526  11.040
15948SOL    HW149677   5.105  11.514  11.077
15948SOL    HW249678   5.239  11.577  11.106
15949SOL     OW49679  14.591  10.634  12.306
15949SOL    HW149680  14.613  10.684  12.228
15949SOL    HW249681  14.513  10.584  12.282
15950SOL     OW49682  13.613   1.797   4.746
15950SOL    HW149683  13.658   1.873   4.710
15950SOL    HW249684  13.638   1.725   4.688
15951SOL     OW49685   6.117   7.232   6.997
15951SOL    HW149686   6.034   7.252   6.954
15951SOL    HW249687   6.180   7.291   6.957
15952SOL     OW49688  13.406  11.882   0.310
15952SOL    HW149689  13.464  11.939   0.260
15952SOL    HW249690  13.462  11.839   0.375
15953SOL     OW49691   2.534   6.573   0.205
15953SOL    HW149692   2.441   6.590   0.216
15953SOL    HW249693   2.538   6.494   0.151
15954SOL     OW49694   5.853   8.933   4.080
15954SOL    HW149695   5.840   8.982   3.999
15954SOL    HW249696   5.946   8.911   4.080
15955SOL     OW49697  10.156  10.585   6.998
15955SOL    HW149698  10.069  10.558   6.968
15955SOL    HW249699  10.216  10.522   6.957
15956SOL     OW49700  11.623   1.814  11.863
15956SOL    HW149701  11.676   1.887  11.895
15956SOL    HW249702  11.644   1.742  11.922
15957SOL     OW49703   9.285  11.886   5.849
15957SOL    HW149704   9.268  11.844   5.933
15957SOL    HW249705   9.234  11.835   5.786
15958SOL     OW49706   0.652   9.319   1.594
15958SOL    HW149707   0.625   9.258   1.662
15958SOL    HW249708   0.736   9.286   1.564
15959SOL     OW49709   0.215   2.629   4.233
15959SOL    HW149710   0.131   2.661   4.265
15959SOL    HW249711   0.228   2.546   4.279
15960SOL     OW49712   8.095   3.971  12.216
15960SOL    HW149713   8.121   3.966  12.124
15960SOL    HW249714   8.040   3.894  12.230
15961SOL     OW49715   8.244   2.155   3.096
15961SOL    HW149716   8.158   2.123   3.123
15961SOL    HW249717   8.226   2.231   3.042
15962SOL     OW49718   4.609   2.515   2.706
15962SOL    HW149719   4.546   2.477   2.767
15962SOL    HW249720   4.556   2.558   2.639
15963SOL     OW49721  10.259  13.211   9.855
15963SOL    HW149722  10.183  13.159   9.879
15963SOL    HW249723  10.241  13.299   9.890
15964SOL     OW49724   1.766   6.116   2.185
15964SOL    HW149725   1.784   6.191   2.129
15964SOL    HW249726   1.816   6.044   2.145
15965SOL     OW49727  13.750   4.715  12.511
15965SOL    HW149728  13.775   4.716  12.603
15965SOL    HW249729  13.772   4.803  12.479
15966SOL     OW49730   5.167   5.518   9.655
15966SOL    HW149731   5.084   5.565   9.657
15966SOL    HW249732   5.232   5.584   9.633
15967SOL     OW49733   0.159   4.861   7.940
15967SOL    HW149734   0.143   4.767   7.950
15967SOL    HW249735   0.152   4.876   7.845
15968SOL     OW49736   1.851   0.272   1.630
15968SOL    HW149737   1.760   0.269   1.602
15968SOL    HW249738   1.901   0.265   1.549
15969SOL     OW49739   4.126   5.980   9.928
15969SOL    HW149740   4.136   5.958   9.835
15969SOL    HW249741   4.082   5.905   9.966
15970SOL     OW49742   2.937   2.331  10.859
15970SOL    HW149743   3.028   2.359  10.872
15970SOL    HW249744   2.893   2.408  10.823
15971SOL     OW49745  11.993   2.018  14.837
15971SOL    HW149746  12.050   2.069  14.780
15971SOL    HW249747  11.990   2.069   0.040
15972SOL     OW49748  11.128   1.297   9.665
15972SOL    HW149749  11.156   1.249   9.743
15972SOL    HW249750  11.205   1.294   9.607
15973SOL     OW49751   6.296   1.018  13.372
15973SOL    HW149752   6.206   1.043  13.349
15973SOL    HW249753   6.328   0.973  13.294
15974SOL     OW49754   8.322   0.322   6.537
15974SOL    HW149755   8.235   0.305   6.501
15974SOL    HW249756   8.345   0.241   6.582
15975SOL     OW49757   6.039  10.167   7.089
15975SOL    HW149758   6.109  10.231   7.098
15975SOL    HW249759   5.958  10.216   7.106
15976SOL     OW49760   7.812   6.144  13.100
15976SOL    HW149761   7.862   6.063  13.092
15976SOL    HW249762   7.790   6.151  13.193
15977SOL     OW49763  12.035   5.322   1.746
15977SOL    HW149764  12.070   5.320   1.835
15977SOL    HW249765  12.032   5.415   1.724
15978SOL     OW49766  13.895   5.475  11.870
15978SOL    HW149767  13.963   5.459  11.805
15978SOL    HW249768  13.857   5.559  11.844
15979SOL     OW49769  10.367   1.555  13.653
15979SOL    HW149770  10.284   1.509  13.640
15979SOL    HW249771  10.352   1.610  13.731
15980SOL     OW49772  10.715   3.047   1.911
15980SOL    HW149773  10.707   3.012   1.822
15980SOL    HW249774  10.735   2.970   1.965
15981SOL     OW49775   9.725   0.609   9.665
15981SOL    HW149776   9.774   0.530   9.642
15981SOL    HW249777   9.789   0.680   9.660
15982SOL     OW49778  11.380   1.407  14.499
15982SOL    HW149779  11.379   1.473  14.429
15982SOL    HW249780  11.402   1.456  14.578
15983SOL     OW49781   5.941   0.695  12.540
15983SOL    HW149782   5.999   0.733  12.474
15983SOL    HW249783   5.885   0.635  12.491
15984SOL     OW49784   1.313   2.656   5.630
15984SOL    HW149785   1.258   2.731   5.653
15984SOL    HW249786   1.297   2.641   5.537
15985SOL     OW49787  13.481   4.288  12.799
15985SOL    HW149788  13.419   4.357  12.774
15985SOL    HW249789  13.488   4.233  12.721
15986SOL     OW49790   7.506   4.341   3.374
15986SOL    HW149791   7.464   4.286   3.440
15986SOL    HW249792   7.494   4.431   3.406
15987SOL     OW49793   8.973  13.723  12.044
15987SOL    HW149794   8.944  13.701  12.132
15987SOL    HW249795   8.903  13.777  12.008
15988SOL     OW49796   6.385   2.080  10.677
15988SOL    HW149797   6.415   2.008  10.623
15988SOL    HW249798   6.312   2.044  10.728
15989SOL     OW49799  11.576  10.584   5.740
15989SOL    HW149800  11.516  10.548   5.675
15989SOL    HW249801  11.615  10.507   5.782
15990SOL     OW49802   3.105   5.789   4.823
15990SOL    HW149803   3.041   5.861   4.824
15990SOL    HW249804   3.118   5.770   4.730
15991SOL     OW49805   8.609   5.277  10.313
15991SOL    HW149806   8.520   5.246  10.299
15991SOL    HW249807   8.635   5.316  10.230
15992SOL     OW49808   4.164  10.181   0.492
15992SOL    HW149809   4.165  10.093   0.530
15992SOL    HW249810   4.169  10.240   0.568
15993SOL     OW49811   6.781   4.341   1.055
15993SOL    HW149812   6.843   4.413   1.046
15993SOL    HW249813   6.731   4.342   0.973
15994SOL     OW49814  10.149  14.669   8.624
15994SOL    HW149815  10.227  14.692   8.573
15994SOL    HW249816  10.114  14.591   8.581
15995SOL     OW49817   0.540   2.183   4.697
15995SOL    HW149818   0.601   2.255   4.714
15995SOL    HW249819   0.503   2.202   4.611
15996SOL     OW49820   5.412  12.410   1.729
15996SOL    HW149821   5.450  12.416   1.817
15996SOL    HW249822   5.469  12.463   1.674
15997SOL     OW49823   7.147  13.478  13.858
15997SOL    HW149824   7.210  13.408  13.838
15997SOL    HW249825   7.197  13.559  13.848
15998SOL     OW49826   4.075   7.623  12.903
15998SOL    HW149827   4.116   7.537  12.896
15998SOL    HW249828   4.102   7.669  12.825
15999SOL     OW49829   1.877  14.220   4.301
15999SOL    HW149830   1.834  14.252   4.380
15999SOL    HW249831   1.970  14.231   4.318
16000SOL     OW49832   8.055  14.586   4.518
16000SOL    HW149833   7.979  14.597   4.575
16000SOL    HW249834   8.054  14.663   4.461
16001SOL     OW49835   5.827   7.169   0.225
16001SOL    HW149836   5.794   7.210   0.145
16001SOL    HW249837   5.910   7.128   0.199
16002SOL     OW49838   8.213   7.156   3.632
16002SOL    HW149839   8.228   7.218   3.704
16002SOL    HW249840   8.183   7.076   3.676
16003SOL     OW49841   7.779   7.983   9.430
16003SOL    HW149842   7.867   7.977   9.466
16003SOL    HW249843   7.792   8.010   9.339
16004SOL     OW49844  14.782  10.100   8.442
16004SOL    HW149845  14.702  10.148   8.461
16004SOL    HW249846  14.812  10.133   8.357
16005SOL     OW49847   6.797  14.764   8.341
16005SOL    HW149848   6.788  14.671   8.323
16005SOL    HW249849   6.877  14.790   8.295
16006SOL     OW49850   6.384   4.422  13.104
16006SOL    HW149851   6.401   4.339  13.148
16006SOL    HW249852   6.355   4.481  13.174
16007SOL     OW49853   5.069   5.934   1.173
16007SOL    HW149854   5.121   5.860   1.203
16007SOL    HW249855   5.134   6.002   1.152
16008SOL     OW49856   2.561   6.265   7.782
16008SOL    HW149857   2.467   6.257   7.793
16008SOL    HW249858   2.593   6.294   7.868
16009SOL     OW49859  10.613   8.289  13.060
16009SOL    HW149860  10.549   8.226  13.095
16009SOL    HW249861  10.613   8.273  12.966
16010SOL     OW49862   7.264  14.423   6.268
16010SOL    HW149863   7.241  14.434   6.360
16010SOL    HW249864   7.353  14.387   6.269
16011SOL     OW49865  12.829   5.386   3.506
16011SOL    HW149866  12.862   5.445   3.438
16011SOL    HW249867  12.844   5.298   3.471
16012SOL     OW49868   0.012  12.738   9.133
16012SOL    HW149869  14.800  12.713   9.120
16012SOL    HW249870   0.033  12.793   9.058
16013SOL     OW49871  13.736   4.611  11.352
16013SOL    HW149872  13.758   4.648  11.437
16013SOL    HW249873  13.770   4.675  11.289
16014SOL     OW49874   2.066   1.203   5.043
16014SOL    HW149875   2.005   1.180   4.973
16014SOL    HW249876   2.111   1.121   5.064
16015SOL     OW49877   7.259   8.568   5.167
16015SOL    HW149878   7.182   8.621   5.187
16015SOL    HW249879   7.236   8.480   5.198
16016SOL     OW49880   2.099   3.551   3.119
16016SOL    HW149881   2.116   3.629   3.065
16016SOL    HW249882   2.172   3.492   3.100
16017SOL     OW49883  12.433  11.604   6.351
16017SOL    HW149884  12.488  11.602   6.273
16017SOL    HW249885  12.470  11.536   6.408
16018SOL     OW49886   4.160  10.430  14.162
16018SOL    HW149887   4.192  10.366  14.098
16018SOL    HW249888   4.103  10.379  14.220
16019SOL     OW49889   6.627   0.110  10.532
16019SOL    HW149890   6.669   0.093  10.616
16019SOL    HW249891   6.689   0.076  10.467
16020SOL     OW49892   6.614   3.382  12.240
16020SOL    HW149893   6.558   3.334  12.179
16020SOL    HW249894   6.703   3.358  12.214
16021SOL     OW49895   7.650   6.777   2.390
16021SOL    HW149896   7.743   6.763   2.372
16021SOL    HW249897   7.610   6.791   2.305
16022SOL     OW49898   4.029   3.196  12.651
16022SOL    HW149899   4.080   3.271  12.682
16022SOL    HW249900   3.957   3.235  12.601
16023SOL     OW49901   7.116   6.522   6.008
16023SOL    HW149902   7.026   6.516   6.042
16023SOL    HW249903   7.163   6.451   6.051
16024SOL     OW49904   1.481  11.682   9.389
16024SOL    HW149905   1.414  11.613   9.392
16024SOL    HW249906   1.564  11.634   9.389
16025SOL     OW49907   8.146  14.823   6.800
16025SOL    HW149908   8.223  14.783   6.841
16025SOL    HW249909   8.182   0.008   6.738
16026SOL     OW49910  10.192   7.305   0.470
16026SOL    HW149911  10.149   7.376   0.516
16026SOL    HW249912  10.232   7.347   0.394
16027SOL     OW49913   9.132   7.499   7.846
16027SOL    HW149914   9.050   7.458   7.875
16027SOL    HW249915   9.200   7.454   7.895
16028SOL     OW49916  14.537   4.764   7.663
16028SOL    HW149917  14.589   4.687   7.641
16028SOL    HW249918  14.521   4.807   7.579
16029SOL     OW49919  12.597  10.584   5.020
16029SOL    HW149920  12.643  10.624   4.947
16029SOL    HW249921  12.510  10.625   5.019
16030SOL     OW49922   2.119   7.138   0.124
16030SOL    HW149923   2.074   7.179   0.050
16030SOL    HW249924   2.050   7.124   0.189
16031SOL     OW49925   5.482  14.541   5.800
16031SOL    HW149926   5.403  14.591   5.821
16031SOL    HW249927   5.535  14.544   5.879
16032SOL     OW49928  11.363  14.657  13.565
16032SOL    HW149929  11.409  14.644  13.483
16032SOL    HW249930  11.327  14.746  13.558
16033SOL     OW49931   0.350  14.784   8.462
16033SOL    HW149932   0.439  14.776   8.494
16033SOL    HW249933   0.350  14.738   8.378
16034SOL     OW49934  14.594   9.135  12.634
16034SOL    HW149935  14.509   9.105  12.665
16034SOL    HW249936  14.593   9.229  12.648
16035SOL     OW49937   2.236  13.046  14.720
16035SOL    HW149938   2.181  12.974  14.750
16035SOL    HW249939   2.223  13.048  14.625
16036SOL     OW49940   9.507   9.994   6.162
16036SOL    HW149941   9.456  10.051   6.104
16036SOL    HW249942   9.596   9.998   6.125
16037SOL     OW49943   7.323   0.313   4.868
16037SOL    HW149944   7.276   0.258   4.805
16037SOL    HW249945   7.361   0.383   4.816
16038SOL     OW49946  12.951   7.277  14.295
16038SOL    HW149947  12.890   7.207  14.273
16038SOL    HW249948  12.978   7.258  14.385
16039SOL     OW49949   9.396  14.452  11.049
16039SOL    HW149950   9.428  14.494  11.129
16039SOL    HW249951   9.476  14.433  10.999
16040SOL     OW49952   7.184   9.913   8.250
16040SOL    HW149953   7.203   9.919   8.344
16040SOL    HW249954   7.264   9.877   8.211
16041SOL     OW49955  13.522   1.505  12.965
16041SOL    HW149956  13.458   1.530  13.031
16041SOL    HW249957  13.493   1.549  12.885
16042SOL     OW49958   4.849   5.303   1.882
16042SOL    HW149959   4.808   5.385   1.854
16042SOL    HW249960   4.860   5.253   1.801
16043SOL     OW49961   2.006  10.306   9.562
16043SOL    HW149962   1.969  10.390   9.535
16043SOL    HW249963   1.969  10.242   9.500
16044SOL     OW49964   2.767  13.864  12.382
16044SOL    HW149965   2.733  13.777  12.360
16044SOL    HW249966   2.809  13.894  12.302
16045SOL     OW49967   1.997  11.854   4.855
16045SOL    HW149968   2.065  11.920   4.838
16045SOL    HW249969   1.956  11.841   4.769
16046SOL     OW49970   5.335   3.041   2.458
16046SOL    HW149971   5.397   3.114   2.449
16046SOL    HW249972   5.379   2.979   2.515
16047SOL     OW49973   9.920   5.820   8.902
16047SOL    HW149974   9.836   5.780   8.878
16047SOL    HW249975   9.951   5.859   8.820
16048SOL     OW49976   4.215  12.000   6.267
16048SOL    HW149977   4.243  12.025   6.355
16048SOL    HW249978   4.284  12.033   6.209
16049SOL     OW49979  13.211   9.184   7.764
16049SOL    HW149980  13.256   9.137   7.695
16049SOL    HW249981  13.219   9.276   7.740
16050SOL     OW49982   5.722   4.706   7.811
16050SOL    HW149983   5.626   4.710   7.818
16050SOL    HW249984   5.738   4.663   7.727
16051SOL     OW49985   9.832   2.769   5.741
16051SOL    HW149986   9.798   2.684   5.770
16051SOL    HW249987   9.900   2.747   5.677
16052SOL     OW49988   4.224   8.469   6.439
16052SOL    HW149989   4.252   8.466   6.347
16052SOL    HW249990   4.137   8.428   6.439
16053SOL     OW49991   1.127   0.651  10.948
16053SOL    HW149992   1.166   0.736  10.929
16053SOL    HW249993   1.201   0.590  10.948
16054SOL     OW49994   5.202  10.866   6.996
16054SOL    HW149995   5.213  10.884   6.903
16054SOL    HW249996   5.260  10.928   7.040
16055SOL     OW49997   5.312   6.428   5.381
16055SOL    HW149998   5.405   6.408   5.386
16055SOL    HW249999   5.271   6.369   5.444
16056SOL     OW50000   6.963   9.495   7.966
16056SOL    HW150001   6.875   9.459   7.977
16056SOL    HW250002   7.012   9.426   7.921
16057SOL     OW50003   6.665   7.310   9.626
16057SOL    HW150004   6.753   7.274   9.623
16057SOL    HW250005   6.647   7.339   9.537
16058SOL     OW50006   9.898   7.553   0.371
16058SOL    HW150007   9.908   7.514   0.284
16058SOL    HW250008   9.824   7.506   0.410
16059SOL     OW50009   1.310   4.660   2.375
16059SOL    HW150010   1.292   4.651   2.281
16059SOL    HW250011   1.241   4.609   2.418
16060SOL     OW50012  10.393   8.859   8.399
16060SOL    HW150013  10.303   8.835   8.422
16060SOL    HW250014  10.430   8.779   8.361
16061SOL     OW50015   5.216  10.566   5.486
16061SOL    HW150016   5.168  10.494   5.444
16061SOL    HW250017   5.283  10.522   5.539
16062SOL     OW50018  14.155  12.001   1.736
16062SOL    HW150019  14.133  12.038   1.821
16062SOL    HW250020  14.229  12.053   1.705
16063SOL     OW50021   3.904   2.464   6.371
16063SOL    HW150022   3.926   2.551   6.404
16063SOL    HW250023   3.871   2.417   6.447
16064SOL     OW50024   9.725   2.793  10.254
16064SOL    HW150025   9.786   2.862  10.280
16064SOL    HW250026   9.682   2.767  10.335
16065SOL     OW50027   0.196   8.178   2.398
16065SOL    HW150028   0.238   8.130   2.469
16065SOL    HW250029   0.110   8.136   2.388
16066SOL     OW50030   4.713   3.834   2.362
16066SOL    HW150031   4.781   3.782   2.319
16066SOL    HW250032   4.639   3.774   2.369
16067SOL     OW50033   2.811   8.322   0.854
16067SOL    HW150034   2.842   8.327   0.944
16067SOL    HW250035   2.881   8.361   0.801
16068SOL     OW50036  13.883   9.940  14.138
16068SOL    HW150037  13.798   9.940  14.183
16068SOL    HW250038  13.928  10.018  14.171
16069SOL     OW50039   2.344   4.678   0.857
16069SOL    HW150040   2.390   4.727   0.925
16069SOL    HW250041   2.334   4.740   0.785
16070SOL     OW50042   6.447  11.315   2.329
16070SOL    HW150043   6.471  11.352   2.414
16070SOL    HW250044   6.352  11.325   2.325
16071SOL     OW50045   9.363   1.544   7.637
16071SOL    HW150046   9.378   1.454   7.609
16071SOL    HW250047   9.316   1.536   7.720
16072SOL     OW50048   7.497   8.523   9.859
16072SOL    HW150049   7.412   8.561   9.836
16072SOL    HW250050   7.550   8.597   9.887
16073SOL     OW50051   9.923   8.780  12.421
16073SOL    HW150052  10.005   8.797  12.375
16073SOL    HW250053   9.874   8.721  12.363
16074SOL     OW50054  10.215   8.442   3.789
16074SOL    HW150055  10.214   8.534   3.815
16074SOL    HW250056  10.123   8.420   3.775
16075SOL     OW50057  14.169   8.589  13.356
16075SOL    HW150058  14.098   8.530  13.330
16075SOL    HW250059  14.128   8.650  13.418
16076SOL     OW50060   3.692   9.275   1.071
16076SOL    HW150061   3.620   9.325   1.110
16076SOL    HW250062   3.728   9.224   1.144
16077SOL     OW50063   5.100  12.149  13.935
16077SOL    HW150064   5.188  12.176  13.962
16077SOL    HW250065   5.100  12.054  13.946
16078SOL     OW50066   2.615  13.020   2.375
16078SOL    HW150067   2.691  13.076   2.389
16078SOL    HW250068   2.633  12.975   2.292
16079SOL     OW50069   4.838   7.917   6.810
16079SOL    HW150070   4.821   8.010   6.825
16079SOL    HW250071   4.922   7.915   6.764
16080SOL     OW50072   0.577  11.447  14.026
16080SOL    HW150073   0.496  11.425  14.072
16080SOL    HW250074   0.628  11.366  14.026
16081SOL     OW50075   0.951   6.047  12.730
16081SOL    HW150076   0.899   6.117  12.766
16081SOL    HW250077   0.948   6.060  12.635
16082SOL     OW50078   3.992  14.650   1.206
16082SOL    HW150079   4.009  14.738   1.238
16082SOL    HW250080   3.987  14.596   1.286
16083SOL     OW50081  12.265  11.441   7.732
16083SOL    HW150082  12.353  11.477   7.719
16083SOL    HW250083  12.207  11.507   7.693
16084SOL     OW50084  11.496   9.357   5.747
16084SOL    HW150085  11.515   9.435   5.695
16084SOL    HW250086  11.511   9.384   5.837
16085SOL     OW50087  11.799  10.893  10.226
16085SOL    HW150088  11.814  10.863  10.315
16085SOL    HW250089  11.887  10.913  10.192
16086SOL     OW50090  10.966   2.074   7.154
16086SOL    HW150091  10.957   2.059   7.060
16086SOL    HW250092  10.956   2.169   7.164
16087SOL     OW50093   4.554  10.344   3.354
16087SOL    HW150094   4.517  10.257   3.337
16087SOL    HW250095   4.636  10.326   3.401
16088SOL     OW50096   2.465   6.250   0.367
16088SOL    HW150097   2.408   6.187   0.411
16088SOL    HW250098   2.427   6.335   0.388
16089SOL     OW50099   4.808  10.899  13.312
16089SOL    HW150100   4.872  10.964  13.282
16089SOL    HW250101   4.804  10.835  13.242
16090SOL     OW50102   9.666   4.055   8.789
16090SOL    HW150103   9.594   4.019   8.842
16090SOL    HW250104   9.645   4.148   8.780
16091SOL     OW50105  12.973   3.642   4.714
16091SOL    HW150106  13.039   3.653   4.782
16091SOL    HW250107  12.894   3.681   4.751
16092SOL     OW50108   0.277  10.145   2.725
16092SOL    HW150109   0.334  10.105   2.791
16092SOL    HW250110   0.242  10.071   2.675
16093SOL     OW50111   9.168  11.144   2.095
16093SOL    HW150112   9.082  11.167   2.132
16093SOL    HW250113   9.229  11.157   2.167
16094SOL     OW50114   6.225  10.615   0.628
16094SOL    HW150115   6.306  10.610   0.679
16094SOL    HW250116   6.254  10.609   0.537
16095SOL     OW50117   0.379   7.790  13.557
16095SOL    HW150118   0.438   7.777  13.631
16095SOL    HW250119   0.305   7.732  13.574
16096SOL     OW50120  11.296  10.621   8.793
16096SOL    HW150121  11.271  10.648   8.881
16096SOL    HW250122  11.242  10.543   8.776
16097SOL     OW50123   1.351  13.178  12.381
16097SOL    HW150124   1.290  13.140  12.444
16097SOL    HW250125   1.295  13.212  12.311
16098SOL     OW50126  10.355   0.625   6.854
16098SOL    HW150127  10.416   0.551   6.858
16098SOL    HW250128  10.338   0.637   6.761
16099SOL     OW50129   8.968   7.576  10.363
16099SOL    HW150130   8.910   7.526  10.420
16099SOL    HW250131   8.984   7.518  10.288
16100SOL     OW50132   4.584   5.500  12.021
16100SOL    HW150133   4.628   5.473  11.940
16100SOL    HW250134   4.635   5.574  12.053
16101SOL     OW50135  10.855  12.298   8.544
16101SOL    HW150136  10.761  12.316   8.539
16101SOL    HW250137  10.896  12.384   8.548
16102SOL     OW50138  10.400  12.252   3.093
16102SOL    HW150139  10.426  12.341   3.116
16102SOL    HW250140  10.317  12.239   3.138
16103SOL     OW50141   8.829  12.076  14.689
16103SOL    HW150142   8.810  12.023  14.611
16103SOL    HW250143   8.766  12.148  14.685
16104SOL     OW50144  13.950  10.939  11.851
16104SOL    HW150145  13.876  10.919  11.795
16104SOL    HW250146  13.979  10.854  11.884
16105SOL     OW50147  10.502   0.092  12.458
16105SOL    HW150148  10.579   0.149  12.466
16105SOL    HW250149  10.537   0.004  12.468
16106SOL     OW50150   0.429   1.995  11.727
16106SOL    HW150151   0.369   1.995  11.800
16106SOL    HW250152   0.373   2.002  11.649
16107SOL     OW50153  10.716  10.089   1.754
16107SOL    HW150154  10.742  10.006   1.713
16107SOL    HW250155  10.626  10.103   1.723
16108SOL     OW50156   1.796  13.197   9.086
16108SOL    HW150157   1.782  13.283   9.127
16108SOL    HW250158   1.825  13.218   8.997
16109SOL     OW50159  10.793   6.966   6.474
16109SOL    HW150160  10.791   6.953   6.569
16109SOL    HW250161  10.791   7.061   6.463
16110SOL     OW50162   4.556   1.357   9.156
16110SOL    HW150163   4.597   1.388   9.075
16110SOL    HW250164   4.590   1.416   9.224
16111SOL     OW50165   3.565   3.630   2.553
16111SOL    HW150166   3.474   3.631   2.522
16111SOL    HW250167   3.571   3.552   2.608
16112SOL     OW50168   2.379   3.306   0.072
16112SOL    HW150169   2.440   3.364   0.026
16112SOL    HW250170   2.436   3.238   0.110
16113SOL     OW50171   0.730  11.349   6.404
16113SOL    HW150172   0.700  11.420   6.460
16113SOL    HW250173   0.683  11.362   6.321
16114SOL     OW50174   4.155   1.545  14.341
16114SOL    HW150175   4.068   1.506  14.350
16114SOL    HW250176   4.196   1.498  14.269
16115SOL     OW50177   9.588   9.497   2.906
16115SOL    HW150178   9.676   9.486   2.943
16115SOL    HW250179   9.533   9.437   2.957
16116SOL     OW50180  12.898   2.889  13.631
16116SOL    HW150181  12.906   2.983  13.613
16116SOL    HW250182  12.935   2.846  13.554
16117SOL     OW50183   2.052  11.533   4.094
16117SOL    HW150184   2.006  11.514   4.012
16117SOL    HW250185   2.092  11.450   4.119
16118SOL     OW50186   6.624  10.349   8.728
16118SOL    HW150187   6.529  10.345   8.724
16118SOL    HW250188   6.654  10.292   8.657
16119SOL     OW50189  13.841   1.235   0.584
16119SOL    HW150190  13.869   1.250   0.674
16119SOL    HW250191  13.922   1.209   0.539
16120SOL     OW50192  11.822   2.908   2.558
16120SOL    HW150193  11.753   2.864   2.608
16120SOL    HW250194  11.795   2.999   2.554
16121SOL     OW50195   7.428  12.916  11.589
16121SOL    HW150196   7.373  12.975  11.537
16121SOL    HW250197   7.494  12.973  11.629
16122SOL     OW50198  11.559  11.366  14.724
16122SOL    HW150199  11.633  11.319  14.763
16122SOL    HW250200  11.593  11.402  14.643
16123SOL     OW50201   5.691  13.990   9.716
16123SOL    HW150202   5.689  14.007   9.810
16123SOL    HW250203   5.708  14.075   9.676
16124SOL     OW50204   2.094   3.229  12.692
16124SOL    HW150205   2.032   3.156  12.702
16124SOL    HW250206   2.180   3.187  12.689
16125SOL     OW50207   1.542  11.813   2.370
16125SOL    HW150208   1.636  11.804   2.354
16125SOL    HW250209   1.535  11.892   2.424
16126SOL     OW50210   9.066   1.852  11.350
16126SOL    HW150211   9.064   1.914  11.423
16126SOL    HW250212   8.984   1.803  11.357
16127SOL     OW50213   7.650  11.821   4.926
16127SOL    HW150214   7.720  11.772   4.969
16127SOL    HW250215   7.577  11.760   4.921
16128SOL     OW50216   8.244   3.236  13.041
16128SOL    HW150217   8.264   3.221  12.948
16128SOL    HW250218   8.286   3.163  13.086
16129SOL     OW50219   7.073   1.248   5.298
16129SOL    HW150220   7.011   1.309   5.259
16129SOL    HW250221   7.119   1.300   5.364
16130SOL     OW50222   0.363  13.055  11.120
16130SOL    HW150223   0.428  13.065  11.189
16130SOL    HW250224   0.282  13.032  11.167
16131SOL     OW50225   4.954   2.381  14.416
16131SOL    HW150226   4.958   2.288  14.436
16131SOL    HW250227   4.895   2.417  14.483
16132SOL     OW50228  14.674  10.461   9.657
16132SOL    HW150229  14.610  10.403   9.699
16132SOL    HW250230  14.718  10.406   9.593
16133SOL     OW50231  12.953   3.768  11.523
16133SOL    HW150232  12.957   3.680  11.485
16133SOL    HW250233  13.012   3.764  11.599
16134SOL     OW50234  13.251  10.177   1.024
16134SOL    HW150235  13.169  10.226   1.017
16134SOL    HW250236  13.318  10.238   0.991
16135SOL     OW50237   4.858   6.300   1.432
16135SOL    HW150238   4.775   6.278   1.474
16135SOL    HW250239   4.846   6.389   1.399
16136SOL     OW50240   0.504   3.758  12.300
16136SOL    HW150241   0.541   3.846  12.291
16136SOL    HW250242   0.578   3.699  12.291
16137SOL     OW50243   1.351   6.734  12.109
16137SOL    HW150244   1.262   6.713  12.138
16137SOL    HW250245   1.405   6.724  12.188
16138SOL     OW50246   1.697   2.461  14.693
16138SOL    HW150247   1.675   2.458  14.786
16138SOL    HW250248   1.702   2.554  14.672
16139SOL     OW50249   4.398   5.596   5.554
16139SOL    HW150250   4.385   5.686   5.587
16139SOL    HW250251   4.309   5.564   5.538
16140SOL     OW50252   9.240   4.036  12.901
16140SOL    HW150253   9.261   3.962  12.958
16140SOL    HW250254   9.296   4.024  12.824
16141SOL     OW50255  14.693   2.039  12.120
16141SOL    HW150256  14.707   1.949  12.091
16141SOL    HW250257  14.607   2.038  12.162
16142SOL     OW50258  12.883   3.958   2.171
16142SOL    HW150259  12.870   4.050   2.148
16142SOL    HW250260  12.911   3.960   2.263
16143SOL     OW50261   8.351  11.833   9.397
16143SOL    HW150262   8.411  11.900   9.432
16143SOL    HW250263   8.406  11.755   9.386
16144SOL     OW50264   4.388   0.296   5.448
16144SOL    HW150265   4.479   0.282   5.419
16144SOL    HW250266   4.361   0.211   5.484
16145SOL     OW50267  14.215   2.432   7.263
16145SOL    HW150268  14.163   2.475   7.331
16145SOL    HW250269  14.272   2.372   7.311
16146SOL     OW50270   0.100   5.759   0.631
16146SOL    HW150271   0.042   5.683   0.642
16146SOL    HW250272   0.116   5.790   0.720
16147SOL     OW50273  14.167   0.943   4.527
16147SOL    HW150274  14.211   1.019   4.565
16147SOL    HW250275  14.180   0.873   4.591
16148SOL     OW50276  12.657  14.436   4.071
16148SOL    HW150277  12.678  14.503   4.136
16148SOL    HW250278  12.740  14.420   4.026
16149SOL     OW50279   0.995   4.306   7.516
16149SOL    HW150280   1.044   4.306   7.434
16149SOL    HW250281   0.974   4.214   7.532
16150SOL     OW50282   1.981  12.255   2.703
16150SOL    HW150283   2.063  12.251   2.752
16150SOL    HW250284   1.914  12.225   2.764
16151SOL     OW50285  14.723   2.263   8.981
16151SOL    HW150286  14.806   2.291   9.021
16151SOL    HW250287  14.666   2.244   9.055
16152SOL     OW50288   6.959  10.669  10.490
16152SOL    HW150289   7.039  10.710  10.456
16152SOL    HW250290   6.935  10.605  10.423
16153SOL     OW50291   5.406   7.897  12.937
16153SOL    HW150292   5.419   7.984  12.974
16153SOL    HW250293   5.487   7.850  12.956
16154SOL     OW50294   2.561  10.000   5.984
16154SOL    HW150295   2.499   9.969   6.050
16154SOL    HW250296   2.603   9.920   5.952
16155SOL     OW50297   8.824  13.414   3.250
16155SOL    HW150298   8.823  13.411   3.155
16155SOL    HW250299   8.915  13.393   3.273
16156SOL     OW50300   0.963   2.619  13.208
16156SOL    HW150301   0.905   2.543  13.205
16156SOL    HW250302   0.976   2.635  13.301
16157SOL     OW50303   6.081   4.746   5.985
16157SOL    HW150304   6.162   4.740   5.935
16157SOL    HW250305   6.101   4.706   6.070
16158SOL     OW50306   7.064   8.471   9.940
16158SOL    HW150307   7.071   8.538   9.873
16158SOL    HW250308   7.130   8.495  10.005
16159SOL     OW50309   2.994   3.021  10.529
16159SOL    HW150310   3.017   2.930  10.547
16159SOL    HW250311   2.948   3.050  10.608
16160SOL     OW50312   9.793   9.488  12.558
16160SOL    HW150313   9.834   9.535  12.485
16160SOL    HW250314   9.722   9.439  12.519
16161SOL     OW50315   8.670  11.577   6.400
16161SOL    HW150316   8.576  11.594   6.404
16161SOL    HW250317   8.689  11.569   6.307
16162SOL     OW50318   8.214  10.240   4.641
16162SOL    HW150319   8.269  10.317   4.656
16162SOL    HW250320   8.254  10.196   4.565
16163SOL     OW50321   9.530  11.414   1.188
16163SOL    HW150322   9.486  11.363   1.121
16163SOL    HW250323   9.610  11.446   1.146
16164SOL     OW50324   8.300   6.304   5.606
16164SOL    HW150325   8.329   6.391   5.633
16164SOL    HW250326   8.366   6.274   5.544
16165SOL     OW50327   5.815  12.391   0.168
16165SOL    HW150328   5.746  12.392   0.101
16165SOL    HW250329   5.767  12.387   0.251
16166SOL     OW50330   5.553   8.669   2.867
16166SOL    HW150331   5.470   8.680   2.820
16166SOL    HW250332   5.529   8.680   2.959
16167SOL     OW50333   9.064   8.294   9.587
16167SOL    HW150334   9.087   8.227   9.652
16167SOL    HW250335   8.969   8.301   9.593
16168SOL     OW50336   1.733  12.752   2.721
16168SOL    HW150337   1.769  12.676   2.768
16168SOL    HW250338   1.809  12.806   2.700
16169SOL     OW50339   0.362   1.870   4.948
16169SOL    HW150340   0.397   1.917   5.023
16169SOL    HW250341   0.428   1.879   4.880
16170SOL     OW50342   7.440  13.599   4.374
16170SOL    HW150343   7.491  13.545   4.313
16170SOL    HW250344   7.383  13.536   4.419
16171SOL     OW50345   7.555  12.525  11.877
16171SOL    HW150346   7.579  12.498  11.788
16171SOL    HW250347   7.464  12.552  11.870
16172SOL     OW50348   3.896  11.214   6.347
16172SOL    HW150349   3.828  11.256   6.295
16172SOL    HW250350   3.888  11.121   6.327
16173SOL     OW50351   8.407   1.428   4.913
16173SOL    HW150352   8.391   1.365   4.843
16173SOL    HW250353   8.438   1.507   4.869
16174SOL     OW50354   4.672   4.293  13.201
16174SOL    HW150355   4.726   4.268  13.125
16174SOL    HW250356   4.718   4.256  13.276
16175SOL     OW50357   8.196   6.763   1.135
16175SOL    HW150358   8.234   6.678   1.113
16175SOL    HW250359   8.267   6.810   1.179
16176SOL     OW50360   0.573   9.206  10.665
16176SOL    HW150361   0.555   9.181  10.755
16176SOL    HW250362   0.579   9.302  10.667
16177SOL     OW50363   6.668  14.175  10.764
16177SOL    HW150364   6.729  14.147  10.832
16177SOL    HW250365   6.581  14.167  10.805
16178SOL     OW50366   0.715  10.210  12.831
16178SOL    HW150367   0.738  10.118  12.838
16178SOL    HW250368   0.669  10.231  12.912
16179SOL     OW50369   4.663   0.925   6.961
16179SOL    HW150370   4.646   1.019   6.964
16179SOL    HW250371   4.723   0.914   6.887
16180SOL     OW50372   0.676   8.258  12.341
16180SOL    HW150373   0.639   8.346  12.341
16180SOL    HW250374   0.633   8.214  12.268
16181SOL     OW50375   0.164  11.676   4.505
16181SOL    HW150376   0.243  11.661   4.558
16181SOL    HW250377   0.171  11.768   4.479
16182SOL     OW50378   4.131   0.746   9.797
16182SOL    HW150379   4.134   0.668   9.741
16182SOL    HW250380   4.223   0.770   9.808
16183SOL     OW50381   7.485  10.032  10.893
16183SOL    HW150382   7.447   9.954  10.854
16183SOL    HW250383   7.410  10.088  10.912
16184SOL     OW50384  12.163  13.763   8.361
16184SOL    HW150385  12.122  13.827   8.419
16184SOL    HW250386  12.216  13.708   8.419
16185SOL     OW50387   4.724   1.992   8.487
16185SOL    HW150388   4.633   2.011   8.508
16185SOL    HW250389   4.740   1.904   8.520
16186SOL     OW50390   9.540   2.836  13.897
16186SOL    HW150391   9.496   2.917  13.869
16186SOL    HW250392   9.581   2.803  13.817
16187SOL     OW50393   1.173   3.039   6.637
16187SOL    HW150394   1.209   2.958   6.600
16187SOL    HW250395   1.114   3.072   6.570
16188SOL     OW50396  10.843   1.430   3.696
16188SOL    HW150397  10.884   1.401   3.615
16188SOL    HW250398  10.755   1.459   3.669
16189SOL     OW50399   3.774   1.432   0.217
16189SOL    HW150400   3.814   1.477   0.291
16189SOL    HW250401   3.686   1.470   0.210
16190SOL     OW50402  13.425   2.918   2.728
16190SOL    HW150403  13.431   2.848   2.662
16190SOL    HW250404  13.512   2.955   2.732
16191SOL     OW50405  11.956  14.747  11.336
16191SOL    HW150406  12.031  14.723  11.391
16191SOL    HW250407  11.992  14.806  11.271
16192SOL     OW50408  13.297  12.915   4.450
16192SOL    HW150409  13.319  12.993   4.500
16192SOL    HW250410  13.246  12.948   4.376
16193SOL     OW50411   2.209   3.452  10.521
16193SOL    HW150412   2.202   3.356  10.525
16193SOL    HW250413   2.297   3.471  10.553
16194SOL     OW50414   1.135   3.443   4.298
16194SOL    HW150415   1.126   3.389   4.376
16194SOL    HW250416   1.124   3.533   4.329
16195SOL     OW50417   7.890   2.292  13.557
16195SOL    HW150418   7.934   2.251  13.631
16195SOL    HW250419   7.868   2.380  13.588
16196SOL     OW50420   0.819  11.698   3.015
16196SOL    HW150421   0.785  11.609   3.028
16196SOL    HW250422   0.741  11.753   3.011
16197SOL     OW50423   7.299   7.628  10.014
16197SOL    HW150424   7.257   7.546   9.987
16197SOL    HW250425   7.303   7.680   9.933
16198SOL     OW50426   2.562  11.494   7.673
16198SOL    HW150427   2.600  11.581   7.685
16198SOL    HW250428   2.632  11.433   7.695
16199SOL     OW50429   6.430   3.752   5.909
16199SOL    HW150430   6.477   3.819   5.859
16199SOL    HW250431   6.440   3.672   5.857
16200SOL     OW50432   9.575   5.424  11.293
16200SOL    HW150433   9.564   5.398  11.202
16200SOL    HW250434   9.669   5.440  11.303
16201SOL     OW50435  11.481   4.483   0.329
16201SOL    HW150436  11.553   4.453   0.273
16201SOL    HW250437  11.507   4.458   0.417
16202SOL     OW50438   6.908  12.848   3.467
16202SOL    HW150439   6.938  12.835   3.377
16202SOL    HW250440   6.969  12.797   3.521
16203SOL     OW50441   3.664  11.035   2.851
16203SOL    HW150442   3.611  10.986   2.788
16203SOL    HW250443   3.751  10.993   2.847
16204SOL     OW50444   2.000   9.268   1.081
16204SOL    HW150445   1.964   9.231   1.162
16204SOL    HW250446   1.977   9.361   1.084
16205SOL     OW50447   0.310  11.344  10.276
16205SOL    HW150448   0.240  11.339  10.341
16205SOL    HW250449   0.361  11.421  10.301
16206SOL     OW50450   3.681   6.663   3.401
16206SOL    HW150451   3.638   6.641   3.318
16206SOL    HW250452   3.773   6.642   3.387
16207SOL     OW50453   3.979   7.841  12.540
16207SOL    HW150454   3.937   7.829  12.454
16207SOL    HW250455   3.911   7.882  12.593
16208SOL     OW50456   7.116   9.725   2.327
16208SOL    HW150457   7.174   9.673   2.271
16208SOL    HW250458   7.039   9.670   2.339
16209SOL     OW50459  10.657  13.901  11.160
16209SOL    HW150460  10.694  13.987  11.139
16209SOL    HW250461  10.569  13.920  11.194
16210SOL     OW50462  14.086   8.787   8.644
16210SOL    HW150463  14.101   8.881   8.648
16210SOL    HW250464  14.075   8.769   8.550
16211SOL     OW50465   8.753   6.292   1.417
16211SOL    HW150466   8.800   6.295   1.500
16211SOL    HW250467   8.807   6.342   1.356
16212SOL     OW50468  14.843  12.981   3.165
16212SOL    HW150469  14.824  12.889   3.147
16212SOL    HW250470   0.008  13.012   3.086
16213SOL     OW50471   2.839   0.972   3.064
16213SOL    HW150472   2.820   1.063   3.041
16213SOL    HW250473   2.758   0.925   3.042
16214SOL     OW50474   5.506  13.934   8.669
16214SOL    HW150475   5.553  13.977   8.741
16214SOL    HW250476   5.417  13.968   8.675
16215SOL     OW50477  12.033  13.410   8.876
16215SOL    HW150478  12.024  13.496   8.834
16215SOL    HW250479  11.982  13.418   8.957
16216SOL     OW50480   7.294   5.737   0.187
16216SOL    HW150481   7.206   5.772   0.173
16216SOL    HW250482   7.280   5.644   0.205
16217SOL     OW50483   3.350  12.762  12.560
16217SOL    HW150484   3.341  12.712  12.479
16217SOL    HW250485   3.279  12.730  12.615
16218SOL     OW50486  14.097  12.865   5.271
16218SOL    HW150487  14.123  12.858   5.179
16218SOL    HW250488  14.160  12.926   5.309
16219SOL     OW50489  14.290   6.466   5.346
16219SOL    HW150490  14.355   6.438   5.281
16219SOL    HW250491  14.257   6.549   5.311
16220SOL     OW50492   0.374   2.705   5.794
16220SOL    HW150493   0.323   2.729   5.717
16220SOL    HW250494   0.464   2.725   5.770
16221SOL     OW50495   8.098   7.287   2.510
16221SOL    HW150496   8.185   7.250   2.501
16221SOL    HW250497   8.111   7.371   2.554
16222SOL     OW50498   4.444  11.202   7.629
16222SOL    HW150499   4.357  11.163   7.621
16222SOL    HW250500   4.476  11.208   7.539
16223SOL     OW50501   8.332  14.143  12.120
16223SOL    HW150502   8.314  14.080  12.189
16223SOL    HW250503   8.348  14.089  12.042
16224SOL     OW50504   2.728   5.245   1.758
16224SOL    HW150505   2.699   5.336   1.745
16224SOL    HW250506   2.744   5.213   1.669
16225SOL     OW50507   1.004   2.786   1.252
16225SOL    HW150508   1.009   2.719   1.183
16225SOL    HW250509   0.920   2.770   1.296
16226SOL     OW50510   5.908   5.029   4.773
16226SOL    HW150511   5.973   4.980   4.823
16226SOL    HW250512   5.850   4.963   4.736
16227SOL     OW50513   3.881   3.920  11.281
16227SOL    HW150514   3.878   3.958  11.193
16227SOL    HW250515   3.951   3.966  11.325
16228SOL     OW50516  10.097   3.346   6.426
16228SOL    HW150517  10.108   3.437   6.401
16228SOL    HW250518  10.064   3.349   6.516
16229SOL     OW50519  10.143   2.563   7.931
16229SOL    HW150520  10.205   2.495   7.956
16229SOL    HW250521  10.193   2.620   7.871
16230SOL     OW50522  13.527   9.871  12.833
16230SOL    HW150523  13.438   9.875  12.798
16230SOL    HW250524  13.578   9.830  12.763
16231SOL     OW50525   4.103   5.380   6.925
16231SOL    HW150526   4.115   5.361   6.832
16231SOL    HW250527   4.014   5.414   6.931
16232SOL     OW50528   0.469  10.043   3.028
16232SOL    HW150529   0.536  10.027   3.095
16232SOL    HW250530   0.519  10.068   2.950
16233SOL     OW50531  11.395   0.432   7.246
16233SOL    HW150532  11.392   0.526   7.232
16233SOL    HW250533  11.393   0.394   7.158
16234SOL     OW50534   3.282   8.993   3.351
16234SOL    HW150535   3.357   8.948   3.390
16234SOL    HW250536   3.234   8.923   3.305
16235SOL     OW50537   8.005   3.001   2.386
16235SOL    HW150538   8.014   2.979   2.293
16235SOL    HW250539   8.076   2.954   2.429
16236SOL     OW50540  10.915   0.186   9.125
16236SOL    HW150541  10.992   0.235   9.154
16236SOL    HW250542  10.847   0.253   9.113
16237SOL     OW50543   6.341   3.104  13.203
16237SOL    HW150544   6.400   3.146  13.267
16237SOL    HW250545   6.308   3.027  13.249
16238SOL     OW50546   1.865   1.893   5.006
16238SOL    HW150547   1.809   1.872   5.080
16238SOL    HW250548   1.953   1.901   5.044
16239SOL     OW50549  10.127   6.888  13.133
16239SOL    HW150550  10.096   6.809  13.089
16239SOL    HW250551  10.090   6.960  13.082
16240SOL     OW50552   8.910   3.691  10.134
16240SOL    HW150553   8.868   3.645  10.207
16240SOL    HW250554   8.874   3.780  10.139
16241SOL     OW50555  11.109  14.360   0.454
16241SOL    HW150556  11.026  14.311   0.451
16241SOL    HW250557  11.132  14.362   0.547
16242SOL     OW50558   4.370   8.891   4.223
16242SOL    HW150559   4.302   8.908   4.288
16242SOL    HW250560   4.446   8.864   4.274
16243SOL     OW50561   1.715   7.676   2.662
16243SOL    HW150562   1.796   7.707   2.621
16243SOL    HW250563   1.675   7.619   2.596
16244SOL     OW50564   1.063   8.897   9.458
16244SOL    HW150565   1.035   8.966   9.518
16244SOL    HW250566   1.156   8.884   9.479
16245SOL     OW50567   0.193   0.158   9.147
16245SOL    HW150568   0.276   0.158   9.099
16245SOL    HW250569   0.204   0.089   9.213
16246SOL     OW50570  11.247   4.808   6.007
16246SOL    HW150571  11.239   4.885   5.951
16246SOL    HW250572  11.287   4.842   6.088
16247SOL     OW50573   5.142  12.266  12.252
16247SOL    HW150574   5.079  12.238  12.185
16247SOL    HW250575   5.190  12.187  12.275
16248SOL     OW50576  11.886   8.575   9.080
16248SOL    HW150577  11.828   8.651   9.085
16248SOL    HW250578  11.969   8.610   9.046
16249SOL     OW50579   0.351  12.612  11.690
16249SOL    HW150580   0.365  12.704  11.668
16249SOL    HW250581   0.320  12.572  11.609
16250SOL     OW50582   9.731   8.700   4.227
16250SOL    HW150583   9.768   8.775   4.180
16250SOL    HW250584   9.734   8.726   4.319
16251SOL     OW50585  13.434   3.398  10.994
16251SOL    HW150586  13.479   3.361  11.069
16251SOL    HW250587  13.395   3.323  10.950
16252SOL     OW50588   0.429  10.017  13.916
16252SOL    HW150589   0.511  10.011  13.965
16252SOL    HW250590   0.450  10.071  13.840
16253SOL     OW50591  13.277   2.338   0.338
16253SOL    HW150592  13.202   2.366   0.391
16253SOL    HW250593  13.285   2.406   0.271
16254SOL     OW50594  11.293  11.111   1.843
16254SOL    HW150595  11.279  11.018   1.856
16254SOL    HW250596  11.246  11.154   1.915
16255SOL     OW50597   0.650  10.353   6.055
16255SOL    HW150598   0.649  10.275   6.110
16255SOL    HW250599   0.631  10.425   6.114
16256SOL     OW50600  11.505   1.233  13.415
16256SOL    HW150601  11.416   1.200  13.426
16256SOL    HW250602  11.495   1.328  13.413
16257SOL     OW50603   0.931   8.067  11.142
16257SOL    HW150604   0.970   7.980  11.134
16257SOL    HW250605   0.923   8.081  11.236
16258SOL     OW50606   7.480   7.914  11.170
16258SOL    HW150607   7.425   7.872  11.104
16258SOL    HW250608   7.500   7.845  11.233
16259SOL     OW50609  12.866   0.896  11.380
16259SOL    HW150610  12.787   0.923  11.428
16259SOL    HW250611  12.910   0.836  11.439
16260SOL     OW50612  14.863  13.056   9.841
16260SOL    HW150613   0.070  13.043   9.880
16260SOL    HW250614  14.803  13.009   9.898
16261SOL     OW50615   4.092   2.231   1.671
16261SOL    HW150616   4.008   2.238   1.716
16261SOL    HW250617   4.142   2.306   1.702
16262SOL     OW50618  10.444   8.720  10.050
16262SOL    HW150619  10.501   8.788  10.012
16262SOL    HW250620  10.364   8.767  10.075
16263SOL     OW50621   5.191  14.039   1.944
16263SOL    HW150622   5.191  13.944   1.932
16263SOL    HW250623   5.112  14.057   1.995
16264SOL     OW50624  12.182  12.766   1.602
16264SOL    HW150625  12.113  12.713   1.641
16264SOL    HW250626  12.221  12.710   1.535
16265SOL     OW50627   5.450  10.407   4.523
16265SOL    HW150628   5.360  10.432   4.542
16265SOL    HW250629   5.449  10.311   4.522
16266SOL     OW50630   2.151   4.818  14.658
16266SOL    HW150631   2.196   4.742  14.620
16266SOL    HW250632   2.219   4.884  14.666
16267SOL     OW50633  10.074  12.859   1.666
16267SOL    HW150634  10.005  12.922   1.687
16267SOL    HW250635  10.061  12.839   1.573
16268SOL     OW50636   6.116  12.731  11.601
16268SOL    HW150637   6.070  12.785  11.665
16268SOL    HW250638   6.182  12.683  11.652
16269SOL     OW50639  12.223   1.450   8.881
16269SOL    HW150640  12.177   1.415   8.957
16269SOL    HW250641  12.167   1.522   8.851
16270SOL     OW50642   1.721   1.348  10.794
16270SOL    HW150643   1.722   1.308  10.707
16270SOL    HW250644   1.635   1.328  10.830
16271SOL     OW50645  12.311   6.815   5.518
16271SOL    HW150646  12.225   6.774   5.516
16271SOL    HW250647  12.366   6.753   5.565
16272SOL     OW50648   6.239   0.758   6.385
16272SOL    HW150649   6.209   0.671   6.362
16272SOL    HW250650   6.160   0.802   6.418
16273SOL     OW50651  10.567   7.699   9.927
16273SOL    HW150652  10.486   7.651   9.944
16273SOL    HW250653  10.580   7.694   9.833
16274SOL     OW50654  14.557  11.281   7.571
16274SOL    HW150655  14.571  11.358   7.625
16274SOL    HW250656  14.464  11.281   7.552
16275SOL     OW50657   9.494   3.010   2.332
16275SOL    HW150658   9.435   2.986   2.404
16275SOL    HW250659   9.544   3.084   2.366
16276SOL     OW50660   9.826   3.031  10.621
16276SOL    HW150661   9.745   2.995  10.656
16276SOL    HW250662   9.817   3.021  10.526
16277SOL     OW50663   7.417   6.536   7.051
16277SOL    HW150664   7.452   6.618   7.085
16277SOL    HW250665   7.350   6.562   6.988
16278SOL     OW50666   3.590   4.326   1.114
16278SOL    HW150667   3.530   4.381   1.164
16278SOL    HW250668   3.677   4.357   1.140
16279SOL     OW50669   5.208   8.133   1.962
16279SOL    HW150670   5.218   8.099   1.874
16279SOL    HW250671   5.261   8.213   1.963
16280SOL     OW50672  14.542   8.424   7.302
16280SOL    HW150673  14.486   8.350   7.327
16280SOL    HW250674  14.630   8.396   7.328
16281SOL     OW50675   3.492  12.052   1.796
16281SOL    HW150676   3.525  12.085   1.880
16281SOL    HW250677   3.501  11.957   1.803
16282SOL     OW50678  13.275   5.049  10.925
16282SOL    HW150679  13.288   5.116  10.992
16282SOL    HW250680  13.211   5.086  10.865
16283SOL     OW50681   3.775   5.307  10.617
16283SOL    HW150682   3.866   5.289  10.593
16283SOL    HW250683   3.728   5.227  10.593
16284SOL     OW50684   2.265  10.775   0.613
16284SOL    HW150685   2.306  10.801   0.695
16284SOL    HW250686   2.174  10.804   0.621
16285SOL     OW50687  13.532   3.223  13.174
16285SOL    HW150688  13.593   3.286  13.136
16285SOL    HW250689  13.576   3.139  13.166
16286SOL     OW50690  12.045   6.599   6.123
16286SOL    HW150691  11.962   6.572   6.083
16286SOL    HW250692  12.092   6.644   6.052
16287SOL     OW50693   4.627   9.932   0.218
16287SOL    HW150694   4.655  10.018   0.186
16287SOL    HW250695   4.650   9.933   0.311
16288SOL     OW50696   4.457   5.515   9.389
16288SOL    HW150697   4.473   5.569   9.467
16288SOL    HW250698   4.384   5.458   9.415
16289SOL     OW50699   5.166  10.436   8.460
16289SOL    HW150700   5.113  10.371   8.415
16289SOL    HW250701   5.103  10.499   8.494
16290SOL     OW50702   5.977  13.032   9.030
16290SOL    HW150703   5.906  12.970   9.012
16290SOL    HW250704   6.057  12.980   9.019
16291SOL     OW50705   4.279  12.665   9.558
16291SOL    HW150706   4.257  12.696   9.646
16291SOL    HW250707   4.199  12.678   9.507
16292SOL     OW50708   4.040  11.967   7.341
16292SOL    HW150709   4.136  11.962   7.344
16292SOL    HW250710   4.019  11.965   7.248
16293SOL     OW50711  14.782   8.917   8.907
16293SOL    HW150712  14.775   8.997   8.960
16293SOL    HW250713  14.707   8.864   8.934
16294SOL     OW50714  12.235  14.387  13.107
16294SOL    HW150715  12.203  14.396  13.197
16294SOL    HW250716  12.290  14.464  13.094
16295SOL     OW50717   4.856   6.228   1.981
16295SOL    HW150718   4.909   6.281   1.921
16295SOL    HW250719   4.794   6.182   1.924
16296SOL     OW50720  12.904   4.281  12.949
16296SOL    HW150721  12.862   4.340  13.010
16296SOL    HW250722  12.949   4.217  13.004
16297SOL     OW50723  10.924  12.019   2.188
16297SOL    HW150724  10.976  12.012   2.108
16297SOL    HW250725  10.836  12.043   2.159
16298SOL     OW50726   7.561   9.192   6.093
16298SOL    HW150727   7.529   9.106   6.067
16298SOL    HW250728   7.490   9.230   6.145
16299SOL     OW50729   3.411  13.603   9.682
16299SOL    HW150730   3.322  13.598   9.719
16299SOL    HW250731   3.405  13.670   9.614
16300SOL     OW50732  10.878  14.392   8.976
16300SOL    HW150733  10.786  14.410   8.995
16300SOL    HW250734  10.926  14.448   9.037
16301SOL     OW50735  14.677  11.762   8.457
16301SOL    HW150736  14.664  11.736   8.548
16301SOL    HW250737  14.744  11.831   8.461
16302SOL     OW50738   1.354  14.196   8.425
16302SOL    HW150739   1.390  14.163   8.508
16302SOL    HW250740   1.408  14.156   8.358
16303SOL     OW50741   9.706   0.182   7.797
16303SOL    HW150742   9.733   0.092   7.814
16303SOL    HW250743   9.760   0.235   7.854
16304SOL     OW50744   8.203   9.521  12.755
16304SOL    HW150745   8.243   9.608  12.756
16304SOL    HW250746   8.156   9.515  12.838
16305SOL     OW50747   6.987   7.940   8.350
16305SOL    HW150748   7.012   7.955   8.259
16305SOL    HW250749   6.895   7.913   8.345
16306SOL     OW50750   5.959   1.006   8.955
16306SOL    HW150751   5.987   1.018   8.864
16306SOL    HW250752   5.875   1.052   8.960
16307SOL     OW50753  12.154  11.326  13.674
16307SOL    HW150754  12.178  11.280  13.755
16307SOL    HW250755  12.078  11.379  13.698
16308SOL     OW50756  11.490   4.499   5.456
16308SOL    HW150757  11.472   4.590   5.431
16308SOL    HW250758  11.450   4.447   5.387
16309SOL     OW50759  12.996   0.751   6.438
16309SOL    HW150760  12.935   0.692   6.394
16309SOL    HW250761  13.018   0.816   6.372
16310SOL     OW50762   0.236   6.318  14.271
16310SOL    HW150763   0.146   6.345  14.288
16310SOL    HW250764   0.254   6.251  14.337
16311SOL     OW50765  13.319   2.605  11.480
16311SOL    HW150766  13.298   2.692  11.514
16311SOL    HW250767  13.234   2.565  11.463
16312SOL     OW50768   5.481  11.717   7.343
16312SOL    HW150769   5.415  11.684   7.282
16312SOL    HW250770   5.432  11.772   7.404
16313SOL     OW50771   5.847   5.106  10.561
16313SOL    HW150772   5.867   5.178  10.621
16313SOL    HW250773   5.924   5.101  10.504
16314SOL     OW50774   1.152  14.117   4.484
16314SOL    HW150775   1.089  14.125   4.555
16314SOL    HW250776   1.233  14.153   4.519
16315SOL     OW50777   9.966   8.581   1.792
16315SOL    HW150778   9.948   8.596   1.885
16315SOL    HW250779  10.055   8.615   1.779
16316SOL     OW50780   7.938   9.204  13.803
16316SOL    HW150781   7.885   9.145  13.750
16316SOL    HW250782   7.935   9.288  13.756
16317SOL     OW50783   6.047   9.697   1.004
16317SOL    HW150784   6.073   9.719   1.094
16317SOL    HW250785   6.130   9.682   0.959
16318SOL     OW50786   6.944   3.312  10.294
16318SOL    HW150787   7.031   3.306  10.254
16318SOL    HW250788   6.962   3.319  10.388
16319SOL     OW50789  11.119  13.348   8.236
16319SOL    HW150790  11.116  13.441   8.261
16319SOL    HW250791  11.030  13.328   8.208
16320SOL     OW50792   7.615   9.126   7.209
16320SOL    HW150793   7.604   9.031   7.206
16320SOL    HW250794   7.629   9.146   7.302
16321SOL     OW50795  10.406   1.133  14.235
16321SOL    HW150796  10.421   1.043  14.206
16321SOL    HW250797  10.454   1.141  14.317
16322SOL     OW50798  11.361   8.213   0.017
16322SOL    HW150799  11.455   8.226   0.008
16322SOL    HW250800  11.351   8.120   0.036
16323SOL     OW50801   8.130   2.146   3.530
16323SOL    HW150802   8.206   2.087   3.527
16323SOL    HW250803   8.077   2.111   3.602
16324SOL     OW50804  14.168   8.931   1.272
16324SOL    HW150805  14.098   8.992   1.248
16324SOL    HW250806  14.242   8.956   1.217
16325SOL     OW50807  14.377   9.462  13.653
16325SOL    HW150808  14.372   9.472  13.558
16325SOL    HW250809  14.365   9.550  13.687
16326SOL     OW50810   9.182  14.593   8.730
16326SOL    HW150811   9.233  14.512   8.734
16326SOL    HW250812   9.149  14.605   8.819
16327SOL     OW50813   0.493   3.020   9.019
16327SOL    HW150814   0.586   3.043   9.012
16327SOL    HW250815   0.488   2.964   9.096
16328SOL     OW50816   1.112   8.757   1.893
16328SOL    HW150817   1.119   8.749   1.988
16328SOL    HW250818   1.151   8.842   1.873
16329SOL     OW50819   1.333   8.637  13.183
16329SOL    HW150820   1.371   8.552  13.205
16329SOL    HW250821   1.395   8.701  13.220
16330SOL     OW50822   8.028   1.230   4.402
16330SOL    HW150823   7.966   1.217   4.474
16330SOL    HW250824   7.973   1.242   4.325
16331SOL     OW50825   5.231   8.133   1.138
16331SOL    HW150826   5.186   8.151   1.055
16331SOL    HW250827   5.305   8.077   1.113
16332SOL     OW50828   3.103   1.498   8.514
16332SOL    HW150829   3.115   1.472   8.606
16332SOL    HW250830   3.170   1.565   8.500
16333SOL     OW50831  12.008  10.356   9.377
16333SOL    HW150832  12.085  10.313   9.412
16333SOL    HW250833  11.954  10.375   9.454
16334SOL     OW50834   7.863  12.160   9.187
16334SOL    HW150835   7.945  12.155   9.235
16334SOL    HW250836   7.830  12.249   9.203
16335SOL     OW50837  11.981   9.054   8.900
16335SOL    HW150838  12.028   9.020   8.824
16335SOL    HW250839  12.044   9.044   8.972
16336SOL     OW50840   3.534  11.470   6.553
16336SOL    HW150841   3.484  11.390   6.536
16336SOL    HW250842   3.531  11.519   6.470
16337SOL     OW50843  14.626   3.492   1.626
16337SOL    HW150844  14.619   3.410   1.576
16337SOL    HW250845  14.539   3.532   1.619
16338SOL     OW50846  10.460   2.509  14.419
16338SOL    HW150847  10.393   2.541  14.479
16338SOL    HW250848  10.543   2.522  14.464
16339SOL     OW50849   8.848  13.128   8.764
16339SOL    HW150850   8.924  13.073   8.785
16339SOL    HW250851   8.884  13.217   8.758
16340SOL     OW50852   0.425  10.429   6.652
16340SOL    HW150853   0.377  10.427   6.735
16340SOL    HW250854   0.458  10.340   6.641
16341SOL     OW50855  14.767  14.271   2.926
16341SOL    HW150856  14.744  14.273   3.019
16341SOL    HW250857  14.761  14.362   2.898
16342SOL     OW50858   3.189  12.252   8.102
16342SOL    HW150859   3.274  12.293   8.116
16342SOL    HW250860   3.176  12.198   8.180
16343SOL     OW50861  13.212   4.296  13.047
16343SOL    HW150862  13.205   4.328  13.137
16343SOL    HW250863  13.240   4.373  12.997
16344SOL     OW50864   5.811   5.566   8.536
16344SOL    HW150865   5.790   5.650   8.575
16344SOL    HW250866   5.859   5.588   8.456
16345SOL     OW50867   0.500  12.955   8.308
16345SOL    HW150868   0.508  12.873   8.259
16345SOL    HW250869   0.418  12.994   8.276
16346SOL     OW50870   6.636   9.019   0.331
16346SOL    HW150871   6.602   8.936   0.297
16346SOL    HW250872   6.730   9.013   0.316
16347SOL     OW50873  13.572   1.689  11.826
16347SOL    HW150874  13.629   1.648  11.891
16347SOL    HW250875  13.506   1.621  11.807
16348SOL     OW50876  10.257   9.736   6.921
16348SOL    HW150877  10.295   9.824   6.917
16348SOL    HW250878  10.304   9.687   6.854
16349SOL     OW50879   9.190   6.630   5.161
16349SOL    HW150880   9.147   6.631   5.075
16349SOL    HW250881   9.138   6.691   5.214
16350SOL     OW50882  12.904   4.535   5.344
16350SOL    HW150883  12.813   4.505   5.348
16350SOL    HW250884  12.899   4.623   5.309
16351SOL     OW50885  13.557   4.050   0.236
16351SOL    HW150886  13.536   4.133   0.194
16351SOL    HW250887  13.614   4.074   0.309
16352SOL     OW50888   2.365   0.563   5.732
16352SOL    HW150889   2.329   0.484   5.772
16352SOL    HW250890   2.343   0.634   5.793
16353SOL     OW50891   3.308   8.508   4.146
16353SOL    HW150892   3.266   8.431   4.184
16353SOL    HW250893   3.372   8.473   4.084
16354SOL     OW50894   1.637  10.308  12.432
16354SOL    HW150895   1.664  10.260  12.354
16354SOL    HW250896   1.556  10.264  12.460
16355SOL     OW50897  11.311   7.779   4.701
16355SOL    HW150898  11.366   7.829   4.761
16355SOL    HW250899  11.252   7.845   4.663
16356SOL     OW50900  12.709   4.299   2.374
16356SOL    HW150901  12.742   4.379   2.414
16356SOL    HW250902  12.743   4.300   2.285
16357SOL     OW50903  13.249   7.183  12.798
16357SOL    HW150904  13.276   7.264  12.753
16357SOL    HW250905  13.324   7.161  12.853
16358SOL     OW50906  14.292   1.711   9.878
16358SOL    HW150907  14.366   1.756   9.838
16358SOL    HW250908  14.331   1.650   9.941
16359SOL     OW50909   7.159  10.298   6.929
16359SOL    HW150910   7.156  10.224   6.869
16359SOL    HW250911   7.193  10.262   7.010
16360SOL     OW50912   9.740   2.456   6.638
16360SOL    HW150913   9.647   2.449   6.661
16360SOL    HW250914   9.786   2.439   6.720
16361SOL     OW50915  14.442  13.176  10.956
16361SOL    HW150916  14.404  13.097  10.916
16361SOL    HW250917  14.491  13.217  10.885
16362SOL     OW50918   8.730   3.138   8.569
16362SOL    HW150919   8.691   3.131   8.656
16362SOL    HW250920   8.813   3.183   8.583
16363SOL     OW50921  13.683   6.738   2.079
16363SOL    HW150922  13.633   6.769   2.153
16363SOL    HW250923  13.628   6.756   2.003
16364SOL     OW50924   0.657   2.718   6.872
16364SOL    HW150925   0.735   2.685   6.916
16364SOL    HW250926   0.656   2.811   6.891
16365SOL     OW50927  13.433   5.399   3.447
16365SOL    HW150928  13.360   5.447   3.408
16365SOL    HW250929  13.395   5.316   3.476
16366SOL     OW50930   3.679   1.435  12.678
16366SOL    HW150931   3.741   1.362  12.670
16366SOL    HW250932   3.717   1.505  12.624
16367SOL     OW50933   3.026   4.711   0.823
16367SOL    HW150934   2.978   4.685   0.744
16367SOL    HW250935   3.093   4.643   0.833
16368SOL     OW50936  12.800   4.621   8.879
16368SOL    HW150937  12.888   4.656   8.866
16368SOL    HW250938  12.792   4.549   8.817
16369SOL     OW50939   0.874   1.200   3.015
16369SOL    HW150940   0.872   1.262   3.088
16369SOL    HW250941   0.851   1.116   3.055
16370SOL     OW50942   0.506   1.023   5.253
16370SOL    HW150943   0.525   1.038   5.160
16370SOL    HW250944   0.475   0.932   5.256
16371SOL     OW50945   3.058  13.358   8.292
16371SOL    HW150946   3.006  13.279   8.281
16371SOL    HW250947   3.099  13.372   8.207
16372SOL     OW50948  12.639  14.617   0.748
16372SOL    HW150949  12.682  14.573   0.675
16372SOL    HW250950  12.633  14.550   0.817
16373SOL     OW50951   7.105   1.365   8.057
16373SOL    HW150952   7.096   1.313   8.137
16373SOL    HW250953   7.135   1.451   8.088
16374SOL     OW50954  10.702   7.418   9.226
16374SOL    HW150955  10.613   7.402   9.258
16374SOL    HW250956  10.717   7.511   9.241
16375SOL     OW50957   2.670  14.434  14.412
16375SOL    HW150958   2.722  14.476  14.343
16375SOL    HW250959   2.608  14.501  14.439
16376SOL     OW50960   6.046   6.261   7.236
16376SOL    HW150961   6.071   6.332   7.295
16376SOL    HW250962   6.122   6.249   7.179
16377SOL     OW50963   1.303  12.534   0.092
16377SOL    HW150964   1.233  12.598   0.107
16377SOL    HW250965   1.382  12.586   0.081
16378SOL     OW50966  11.471   9.018   9.429
16378SOL    HW150967  11.563   8.992   9.430
16378SOL    HW250968  11.473   9.113   9.445
16379SOL     OW50969   9.821  10.282   0.335
16379SOL    HW150970   9.833  10.328   0.418
16379SOL    HW250971   9.822  10.189   0.359
16380SOL     OW50972   6.319  12.938  11.747
16380SOL    HW150973   6.229  12.940  11.780
16380SOL    HW250974   6.337  12.845  11.732
16381SOL     OW50975   4.477   2.380   8.993
16381SOL    HW150976   4.513   2.461   8.958
16381SOL    HW250977   4.532   2.311   8.955
16382SOL     OW50978   8.834  12.396   4.815
16382SOL    HW150979   8.820  12.308   4.781
16382SOL    HW250980   8.912  12.427   4.770
16383SOL     OW50981  12.157   9.314   7.255
16383SOL    HW150982  12.084   9.287   7.200
16383SOL    HW250983  12.181   9.234   7.302
16384SOL     OW50984   2.692   4.145   8.722
16384SOL    HW150985   2.668   4.060   8.759
16384SOL    HW250986   2.619   4.167   8.663
16385SOL     OW50987  11.057   1.609   2.618
16385SOL    HW150988  11.036   1.690   2.664
16385SOL    HW250989  11.145   1.624   2.583
16386SOL     OW50990   6.669   4.864   3.560
16386SOL    HW150991   6.672   4.839   3.468
16386SOL    HW250992   6.741   4.816   3.600
16387SOL     OW50993  11.452   1.520   8.593
16387SOL    HW150994  11.502   1.601   8.582
16387SOL    HW250995  11.439   1.488   8.504
16388SOL     OW50996   1.588   9.792  12.028
16388SOL    HW150997   1.508   9.765  12.073
16388SOL    HW250998   1.561   9.812  11.939
16389SOL     OW50999   5.507   3.034   6.084
16389SOL    HW151000   5.458   2.995   6.157
16389SOL    HW251001   5.564   2.963   6.054
16390SOL     OW51002   2.236   7.336   5.349
16390SOL    HW151003   2.323   7.327   5.389
16390SOL    HW251004   2.183   7.378   5.416
16391SOL     OW51005   2.619   7.411   7.909
16391SOL    HW151006   2.560   7.415   7.834
16391SOL    HW251007   2.678   7.485   7.897
16392SOL     OW51008  10.672   2.016  12.617
16392SOL    HW151009  10.762   2.031  12.589
16392SOL    HW251010  10.671   2.042  12.709
16393SOL     OW51011   4.943   3.055   7.651
16393SOL    HW151012   4.967   3.041   7.559
16393SOL    HW251013   4.912   3.146   7.655
16394SOL     OW51014  11.184  10.771  10.613
16394SOL    HW151015  11.098  10.735  10.591
16394SOL    HW251016  11.201  10.836  10.544
16395SOL     OW51017  11.096   4.001   1.539
16395SOL    HW151018  11.149   4.025   1.615
16395SOL    HW251019  11.022   4.062   1.541
16396SOL     OW51020  14.117   5.278   4.878
16396SOL    HW151021  14.199   5.310   4.840
16396SOL    HW251022  14.064   5.357   4.889
16397SOL     OW51023  11.727   1.860   1.421
16397SOL    HW151024  11.689   1.780   1.459
16397SOL    HW251025  11.678   1.931   1.462
16398SOL     OW51026  13.011  13.293  14.368
16398SOL    HW151027  12.951  13.240  14.316
16398SOL    HW251028  12.954  13.343  14.427
16399SOL     OW51029  14.672   1.242  13.367
16399SOL    HW151030  14.734   1.285  13.426
16399SOL    HW251031  14.716   1.242  13.282
16400SOL     OW51032   9.614   5.943   0.018
16400SOL    HW151033   9.543   5.887   0.050
16400SOL    HW251034   9.694   5.895   0.040
16401SOL     OW51035   1.481   4.796  11.444
16401SOL    HW151036   1.525   4.725  11.398
16401SOL    HW251037   1.390   4.767  11.451
16402SOL     OW51038   4.227   6.956  13.040
16402SOL    HW151039   4.251   6.966  12.947
16402SOL    HW251040   4.311   6.954  13.086
16403SOL     OW51041  10.503   1.609   6.168
16403SOL    HW151042  10.531   1.652   6.087
16403SOL    HW251043  10.571   1.632   6.232
16404SOL     OW51044   9.131  12.567   8.585
16404SOL    HW151045   9.223  12.543   8.581
16404SOL    HW251046   9.083  12.485   8.572
16405SOL     OW51047  11.059   0.109   9.745
16405SOL    HW151048  10.975   0.151   9.725
16405SOL    HW251049  11.041   0.016   9.737
16406SOL     OW51050  11.405   9.299   0.231
16406SOL    HW151051  11.458   9.251   0.295
16406SOL    HW251052  11.315   9.285   0.259
16407SOL     OW51053  14.813   0.123  12.434
16407SOL    HW151054  14.856   0.043  12.404
16407SOL    HW251055  14.871   0.158  12.501
16408SOL     OW51056   6.299   0.704   9.035
16408SOL    HW151057   6.325   0.615   9.059
16408SOL    HW251058   6.366   0.733   8.973
16409SOL     OW51059  11.113   0.905   1.786
16409SOL    HW151060  11.104   0.898   1.881
16409SOL    HW251061  11.025   0.927   1.755
16410SOL     OW51062   3.744   3.329   3.180
16410SOL    HW151063   3.732   3.238   3.207
16410SOL    HW251064   3.830   3.330   3.137
16411SOL     OW51065  13.536  10.280   9.927
16411SOL    HW151066  13.455  10.289   9.977
16411SOL    HW251067  13.587  10.358   9.949
16412SOL     OW51068  14.036  13.661   3.537
16412SOL    HW151069  14.063  13.663   3.629
16412SOL    HW251070  14.092  13.594   3.497
16413SOL     OW51071  13.824  12.343   0.893
16413SOL    HW151072  13.783  12.428   0.907
16413SOL    HW251073  13.910  12.363   0.856
16414SOL     OW51074   4.497   0.915   0.027
16414SOL    HW151075   4.568   0.892   0.087
16414SOL    HW251076   4.519   1.003  14.875
16415SOL     OW51077  12.170  10.015   7.005
16415SOL    HW151078  12.165  10.020   6.910
16415SOL    HW251079  12.183   9.922   7.024
16416SOL     OW51080  10.729   8.326  10.394
16416SOL    HW151081  10.724   8.422  10.397
16416SOL    HW251082  10.717   8.304  10.302
16417SOL     OW51083   9.893   7.743   7.567
16417SOL    HW151084   9.941   7.661   7.562
16417SOL    HW251085   9.851   7.752   7.482
16418SOL     OW51086   1.058  10.277   0.883
16418SOL    HW151087   0.986  10.237   0.932
16418SOL    HW251088   1.053  10.370   0.904
16419SOL     OW51089   3.547   4.757   7.026
16419SOL    HW151090   3.594   4.746   6.943
16419SOL    HW251091   3.569   4.679   7.076
16420SOL     OW51092  13.183   2.606   1.478
16420SOL    HW151093  13.167   2.678   1.417
16420SOL    HW251094  13.226   2.539   1.426
16421SOL     OW51095   0.339  13.197   0.272
16421SOL    HW151096   0.254  13.236   0.248
16421SOL    HW251097   0.390  13.203   0.191
16422SOL     OW51098  10.036   9.307   3.279
16422SOL    HW151099  10.127   9.332   3.294
16422SOL    HW251100   9.986   9.369   3.333
16423SOL     OW51101   9.074  11.360   4.092
16423SOL    HW151102   9.124  11.367   4.174
16423SOL    HW251103   8.989  11.326   4.119
16424SOL     OW51104  14.097  14.400  14.350
16424SOL    HW151105  14.089  14.353  14.433
16424SOL    HW251106  14.049  14.346  14.288
16425SOL     OW51107   8.509  11.595   5.884
16425SOL    HW151108   8.481  11.512   5.846
16425SOL    HW251109   8.503  11.657   5.811
16426SOL     OW51110   2.577   5.257  14.139
16426SOL    HW151111   2.557   5.193  14.071
16426SOL    HW251112   2.517   5.330  14.123
16427SOL     OW51113   5.056  13.896   4.501
16427SOL    HW151114   5.134  13.846   4.477
16427SOL    HW251115   5.017  13.922   4.418
16428SOL     OW51116  13.980  10.102   4.855
16428SOL    HW151117  14.036  10.134   4.926
16428SOL    HW251118  14.039  10.050   4.800
16429SOL     OW51119   4.435   9.023   5.584
16429SOL    HW151120   4.475   8.946   5.542
16429SOL    HW251121   4.502   9.055   5.644
16430SOL     OW51122  13.351   2.863  14.478
16430SOL    HW151123  13.390   2.917  14.410
16430SOL    HW251124  13.426   2.822  14.522
16431SOL     OW51125   5.504   9.381   7.885
16431SOL    HW151126   5.519   9.295   7.845
16431SOL    HW251127   5.416   9.375   7.922
16432SOL     OW51128   5.245  13.048   2.037
16432SOL    HW151129   5.280  13.137   2.029
16432SOL    HW251130   5.313  13.000   2.084
16433SOL     OW51131  12.412   3.076  11.493
16433SOL    HW151132  12.503   3.104  11.479
16433SOL    HW251133  12.416   3.022  11.572
16434SOL     OW51134   9.925   3.678   2.217
16434SOL    HW151135   9.839   3.719   2.218
16434SOL    HW251136   9.980   3.741   2.169
16435SOL     OW51137   2.747  14.695  10.478
16435SOL    HW151138   2.770  14.780  10.441
16435SOL    HW251139   2.721  14.713  10.568
16436SOL     OW51140   1.539   2.395   4.390
16436SOL    HW151141   1.633   2.384   4.399
16436SOL    HW251142   1.518   2.355   4.305
16437SOL     OW51143  11.468   8.879  14.197
16437SOL    HW151144  11.407   8.933  14.247
16437SOL    HW251145  11.427   8.871  14.111
16438SOL     OW51146  13.143   7.414   0.173
16438SOL    HW151147  13.069   7.397   0.231
16438SOL    HW251148  13.159   7.330   0.130
16439SOL     OW51149   4.872  10.377   3.050
16439SOL    HW151150   4.811  10.445   3.019
16439SOL    HW251151   4.830  10.341   3.128
16440SOL     OW51152   3.398   0.112   1.117
16440SOL    HW151153   3.346   0.046   1.071
16440SOL    HW251154   3.442   0.161   1.048
16441SOL     OW51155   7.408  11.946  13.528
16441SOL    HW151156   7.394  11.949  13.622
16441SOL    HW251157   7.410  12.037  13.500
16442SOL     OW51158   9.276   2.430  12.858
16442SOL    HW151159   9.211   2.465  12.797
16442SOL    HW251160   9.272   2.488  12.934
16443SOL     OW51161  13.876   6.095   0.161
16443SOL    HW151162  13.802   6.101   0.222
16443SOL    HW251163  13.836   6.082   0.075
16444SOL     OW51164   9.341   8.436  12.884
16444SOL    HW151165   9.278   8.481  12.940
16444SOL    HW251166   9.310   8.452  12.795
16445SOL     OW51167   0.307   7.425   2.230
16445SOL    HW151168   0.378   7.396   2.287
16445SOL    HW251169   0.312   7.368   2.154
16446SOL     OW51170  11.593   5.997   0.668
16446SOL    HW151171  11.543   5.970   0.746
16446SOL    HW251172  11.653   6.064   0.701
16447SOL     OW51173  11.024  12.247   4.119
16447SOL    HW151174  10.988  12.181   4.059
16447SOL    HW251175  11.114  12.218   4.135
16448SOL     OW51176   7.331   1.523  13.301
16448SOL    HW151177   7.389   1.598  13.315
16448SOL    HW251178   7.280   1.516  13.382
16449SOL     OW51179   3.264   4.577   9.864
16449SOL    HW151180   3.216   4.615   9.938
16449SOL    HW251181   3.263   4.483   9.880
16450SOL     OW51182   6.172   4.899  14.592
16450SOL    HW151183   6.085   4.878  14.623
16450SOL    HW251184   6.162   4.909  14.497
16451SOL     OW51185  11.136   2.912   7.884
16451SOL    HW151186  11.231   2.906   7.899
16451SOL    HW251187  11.105   2.971   7.952
16452SOL     OW51188   3.903   1.183   3.214
16452SOL    HW151189   3.857   1.255   3.170
16452SOL    HW251190   3.878   1.190   3.306
16453SOL     OW51191  12.552   2.942   9.717
16453SOL    HW151192  12.464   2.924   9.684
16453SOL    HW251193  12.559   2.887   9.795
16454SOL     OW51194   9.623   4.591  11.572
16454SOL    HW151195   9.590   4.668  11.526
16454SOL    HW251196   9.663   4.626  11.652
16455SOL     OW51197   9.656   5.133   0.130
16455SOL    HW151198   9.614   5.201   0.077
16455SOL    HW251199   9.721   5.179   0.182
16456SOL     OW51200  13.976   1.727   8.750
16456SOL    HW151201  13.992   1.744   8.843
16456SOL    HW251202  14.030   1.792   8.704
16457SOL     OW51203   1.469   6.101  12.464
16457SOL    HW151204   1.538   6.148  12.511
16457SOL    HW251205   1.472   6.012  12.498
16458SOL     OW51206   8.215  11.443  10.989
16458SOL    HW151207   8.279  11.440  10.917
16458SOL    HW251208   8.246  11.515  11.045
16459SOL     OW51209   8.206   8.506   1.895
16459SOL    HW151210   8.277   8.494   1.832
16459SOL    HW251211   8.226   8.589   1.938
16460SOL     OW51212  10.454   1.002  10.522
16460SOL    HW151213  10.501   1.033  10.600
16460SOL    HW251214  10.363   1.025  10.539
16461SOL     OW51215  14.141   7.679  12.095
16461SOL    HW151216  14.211   7.721  12.146
16461SOL    HW251217  14.061   7.720  12.127
16462SOL     OW51218   4.597  12.169   8.444
16462SOL    HW151219   4.669  12.115   8.410
16462SOL    HW251220   4.632  12.258   8.444
16463SOL     OW51221   0.188  12.662   0.594
16463SOL    HW151222   0.122  12.651   0.662
16463SOL    HW251223   0.196  12.757   0.584
16464SOL     OW51224  10.155   4.670   3.699
16464SOL    HW151225  10.231   4.724   3.679
16464SOL    HW251226  10.191   4.583   3.716
16465SOL     OW51227   2.324   0.769   5.890
16465SOL    HW151228   2.287   0.857   5.894
16465SOL    HW251229   2.280   0.721   5.959
16466SOL     OW51230   0.771   4.615   5.434
16466SOL    HW151231   0.756   4.668   5.512
16466SOL    HW251232   0.795   4.529   5.467
16467SOL     OW51233   0.090  14.512   8.559
16467SOL    HW151234   0.073  14.579   8.492
16467SOL    HW251235   0.170  14.542   8.602
16468SOL     OW51236   7.178  11.272  11.998
16468SOL    HW151237   7.274  11.282  12.002
16468SOL    HW251238   7.163  11.178  12.007
16469SOL     OW51239   3.503  10.599   8.074
16469SOL    HW151240   3.458  10.643   8.146
16469SOL    HW251241   3.561  10.666   8.038
16470SOL     OW51242   1.536  14.358   2.786
16470SOL    HW151243   1.457  14.385   2.834
16470SOL    HW251244   1.503  14.329   2.701
16471SOL     OW51245   4.962   9.085   9.794
16471SOL    HW151246   4.983   9.154   9.857
16471SOL    HW251247   4.911   9.021   9.844
16472SOL     OW51248  12.386   0.271   8.272
16472SOL    HW151249  12.476   0.240   8.282
16472SOL    HW251250  12.347   0.212   8.207
16473SOL     OW51251  13.261  13.511  10.292
16473SOL    HW151252  13.297  13.588  10.248
16473SOL    HW251253  13.338  13.468  10.331
16474SOL     OW51254  14.094   0.871  10.030
16474SOL    HW151255  14.122   0.804  10.091
16474SOL    HW251256  14.038   0.825   9.967
16475SOL     OW51257   8.077  14.844   6.424
16475SOL    HW151258   8.165  14.827   6.390
16475SOL    HW251259   8.074   0.060   6.436
16476SOL     OW51260   9.213   6.277   2.638
16476SOL    HW151261   9.181   6.342   2.575
16476SOL    HW251262   9.242   6.329   2.713
16477SOL     OW51263  12.210   7.294   2.019
16477SOL    HW151264  12.125   7.327   2.049
16477SOL    HW251265  12.263   7.288   2.098
16478SOL     OW51266   7.505  11.631   6.722
16478SOL    HW151267   7.484  11.594   6.637
16478SOL    HW251268   7.466  11.571   6.785
16479SOL     OW51269   8.619  11.344   9.813
16479SOL    HW151270   8.692  11.383   9.861
16479SOL    HW251271   8.609  11.257   9.852
16480SOL     OW51272  14.168   2.025   5.878
16480SOL    HW151273  14.103   2.043   5.810
16480SOL    HW251274  14.224   2.103   5.881
16481SOL     OW51275   5.160   6.632  11.003
16481SOL    HW151276   5.082   6.640  10.948
16481SOL    HW251277   5.224   6.587  10.948
16482SOL     OW51278  12.420   1.409   2.595
16482SOL    HW151279  12.498   1.464   2.608
16482SOL    HW251280  12.450   1.339   2.538
16483SOL     OW51281   5.499  13.015  10.146
16483SOL    HW151282   5.408  13.017  10.177
16483SOL    HW251283   5.551  13.005  10.226
16484SOL     OW51284   5.468  13.729   4.694
16484SOL    HW151285   5.510  13.679   4.764
16484SOL    HW251286   5.378  13.744   4.725
16485SOL     OW51287   9.268   5.172   8.934
16485SOL    HW151288   9.259   5.264   8.910
16485SOL    HW251289   9.228   5.166   9.021
16486SOL     OW51290   3.058  11.308  12.529
16486SOL    HW151291   3.074  11.215  12.540
16486SOL    HW251292   3.049  11.319  12.434
16487SOL     OW51293  14.197  12.324  11.409
16487SOL    HW151294  14.174  12.322  11.502
16487SOL    HW251295  14.242  12.408  11.397
16488SOL     OW51296   9.364   2.935   6.572
16488SOL    HW151297   9.289   2.906   6.624
16488SOL    HW251298   9.418   2.985   6.634
16489SOL     OW51299   1.395   3.095   5.357
16489SOL    HW151300   1.467   3.158   5.351
16489SOL    HW251301   1.399   3.045   5.275
16490SOL     OW51302  13.900   0.904  11.881
16490SOL    HW151303  13.859   0.840  11.823
16490SOL    HW251304  13.960   0.953  11.824
16491SOL     OW51305   9.471   0.697   9.576
16491SOL    HW151306   9.411   0.708   9.649
16491SOL    HW251307   9.551   0.662   9.616
16492SOL     OW51308   5.504   3.061   3.928
16492SOL    HW151309   5.576   3.101   3.879
16492SOL    HW251310   5.547   2.999   3.987
16493SOL     OW51311   1.233   0.334  13.051
16493SOL    HW151312   1.229   0.250  13.004
16493SOL    HW251313   1.327   0.356  13.053
16494SOL     OW51314   3.567   3.847   2.741
16494SOL    HW151315   3.642   3.892   2.703
16494SOL    HW251316   3.537   3.787   2.672
16495SOL     OW51317   7.515   4.679  14.761
16495SOL    HW151318   7.543   4.765  14.730
16495SOL    HW251319   7.531   4.681  14.856
16496SOL     OW51320   4.603  12.761   8.246
16496SOL    HW151321   4.673  12.777   8.184
16496SOL    HW251322   4.544  12.836   8.236
16497SOL     OW51323   5.225   0.007  12.564
16497SOL    HW151324   5.256  14.806  12.606
16497SOL    HW251325   5.236   0.075  12.630
16498SOL     OW51326  14.604   1.399   0.161
16498SOL    HW151327  14.641   1.467   0.218
16498SOL    HW251328  14.647   1.318   0.190
16499SOL     OW51329   3.060   3.027   2.327
16499SOL    HW151330   3.086   2.987   2.411
16499SOL    HW251331   2.965   3.039   2.335
16500SOL     OW51332  14.483   6.336   3.582
16500SOL    HW151333  14.465   6.427   3.563
16500SOL    HW251334  14.572   6.336   3.617
16501SOL     OW51335   8.479  14.640   6.040
16501SOL    HW151336   8.548  14.706   6.032
16501SOL    HW251337   8.417  14.662   5.971
16502SOL     OW51338  10.022  14.699   8.028
16502SOL    HW151339  10.087  14.763   8.058
16502SOL    HW251340   9.989  14.736   7.946
16503SOL     OW51341  11.529  11.705   5.691
16503SOL    HW151342  11.473  11.761   5.744
16503SOL    HW251343  11.475  11.628   5.672
16504SOL     OW51344   9.402   8.125   2.420
16504SOL    HW151345   9.403   8.154   2.328
16504SOL    HW251346   9.471   8.059   2.425
16505SOL     OW51347   8.225  12.281   9.480
16505SOL    HW151348   8.200  12.369   9.507
16505SOL    HW251349   8.230  12.231   9.562
16506SOL     OW51350  12.330   1.444  11.485
16506SOL    HW151351  12.372   1.423  11.402
16506SOL    HW251352  12.396   1.425  11.551
16507SOL     OW51353   4.225   4.279   3.726
16507SOL    HW151354   4.161   4.295   3.795
16507SOL    HW251355   4.245   4.366   3.691
16508SOL     OW51356   9.532   2.772   0.817
16508SOL    HW151357   9.454   2.802   0.770
16508SOL    HW251358   9.587   2.732   0.749
16509SOL     OW51359   0.444   8.873   6.852
16509SOL    HW151360   0.486   8.944   6.900
16509SOL    HW251361   0.362   8.910   6.820
16510SOL     OW51362   7.298  11.990   8.056
16510SOL    HW151363   7.256  12.010   7.973
16510SOL    HW251364   7.315  11.896   8.053
16511SOL     OW51365   8.321  13.377   7.942
16511SOL    HW151366   8.344  13.285   7.933
16511SOL    HW251367   8.327  13.412   7.852
16512SOL     OW51368  11.367   0.361  11.069
16512SOL    HW151369  11.327   0.279  11.039
16512SOL    HW251370  11.295   0.407  11.112
16513SOL     OW51371   9.277  12.247  11.772
16513SOL    HW151372   9.275  12.316  11.705
16513SOL    HW251373   9.369  12.237  11.794
16514SOL     OW51374   9.089   1.749   3.371
16514SOL    HW151375   9.122   1.810   3.437
16514SOL    HW251376   9.095   1.663   3.412
16515SOL     OW51377   5.155  10.288   1.765
16515SOL    HW151378   5.234  10.340   1.750
16515SOL    HW251379   5.150  10.228   1.690
16516SOL     OW51380  14.199   2.388  11.286
16516SOL    HW151381  14.161   2.423  11.366
16516SOL    HW251382  14.260   2.456  11.257
16517SOL     OW51383   1.035   8.244   0.799
16517SOL    HW151384   1.038   8.301   0.722
16517SOL    HW251385   1.116   8.263   0.846
16518SOL     OW51386   9.391   8.080   8.951
16518SOL    HW151387   9.363   8.025   8.877
16518SOL    HW251388   9.388   8.169   8.917
16519SOL     OW51389  14.071   6.165   4.433
16519SOL    HW151390  13.994   6.210   4.467
16519SOL    HW251391  14.139   6.232   4.432
16520SOL     OW51392   6.804  10.755   0.021
16520SOL    HW151393   6.805  10.778   0.114
16520SOL    HW251394   6.876  10.805  14.861
16521SOL     OW51395  14.406  11.384   4.690
16521SOL    HW151396  14.443  11.325   4.625
16521SOL    HW251397  14.447  11.468   4.673
16522SOL     OW51398  13.508  11.142   1.361
16522SOL    HW151399  13.469  11.139   1.274
16522SOL    HW251400  13.440  11.106   1.419
16523SOL     OW51401   5.826  12.662   9.308
16523SOL    HW151402   5.787  12.747   9.283
16523SOL    HW251403   5.845  12.620   9.224
16524SOL     OW51404  12.913   3.606   6.942
16524SOL    HW151405  12.994   3.587   6.894
16524SOL    HW251406  12.899   3.700   6.927
16525SOL     OW51407   7.123  10.556   3.746
16525SOL    HW151408   7.113  10.531   3.653
16525SOL    HW251409   7.175  10.636   3.744
16526SOL     OW51410   9.906   9.451   4.639
16526SOL    HW151411   9.962   9.438   4.562
16526SOL    HW251412   9.918   9.543   4.662
16527SOL     OW51413   9.057  11.965   1.021
16527SOL    HW151414   9.019  11.877   1.026
16527SOL    HW251415   9.127  11.957   0.957
16528SOL     OW51416  12.472   5.342   9.206
16528SOL    HW151417  12.481   5.409   9.138
16528SOL    HW251418  12.388   5.301   9.189
16529SOL     OW51419   4.641  12.672   1.319
16529SOL    HW151420   4.692  12.594   1.299
16529SOL    HW251421   4.603  12.699   1.235
16530SOL     OW51422   4.318  12.231   6.810
16530SOL    HW151423   4.364  12.147   6.803
16530SOL    HW251424   4.287  12.234   6.901
16531SOL     OW51425   6.904   9.185   9.302
16531SOL    HW151426   6.852   9.212   9.226
16531SOL    HW251427   6.880   9.248   9.370
16532SOL     OW51428  11.475  13.789   1.290
16532SOL    HW151429  11.534  13.859   1.319
16532SOL    HW251430  11.422  13.769   1.367
16533SOL     OW51431   5.128   1.304  13.766
16533SOL    HW151432   5.093   1.332  13.681
16533SOL    HW251433   5.162   1.216  13.750
16534SOL     OW51434   8.140   6.406   8.767
16534SOL    HW151435   8.186   6.408   8.683
16534SOL    HW251436   8.118   6.497   8.785
16535SOL     OW51437  12.586   9.468   7.445
16535SOL    HW151438  12.552   9.380   7.462
16535SOL    HW251439  12.593   9.473   7.350
16536SOL     OW51440   7.424   7.165   8.650
16536SOL    HW151441   7.448   7.089   8.703
16536SOL    HW251442   7.506   7.214   8.640
16537SOL     OW51443   8.083  14.751   2.782
16537SOL    HW151444   7.996  14.792   2.786
16537SOL    HW251445   8.103  14.747   2.689
16538SOL     OW51446   6.491   3.111  11.206
16538SOL    HW151447   6.546   3.061  11.266
16538SOL    HW251448   6.542   3.116  11.125
16539SOL     OW51449  13.984   5.270  10.047
16539SOL    HW151450  14.029   5.247  10.128
16539SOL    HW251451  14.018   5.357  10.025
16540SOL     OW51452   1.969  10.111   8.684
16540SOL    HW151453   1.970  10.092   8.591
16540SOL    HW251454   2.047  10.163   8.700
16541SOL     OW51455   8.927   3.457   7.863
16541SOL    HW151456   8.952   3.495   7.779
16541SOL    HW251457   8.916   3.533   7.921
16542SOL     OW51458   3.149  12.809   2.137
16542SOL    HW151459   3.117  12.881   2.191
16542SOL    HW251460   3.112  12.730   2.179
16543SOL     OW51461   9.578   4.115  11.848
16543SOL    HW151462   9.556   4.098  11.757
16543SOL    HW251463   9.495   4.143  11.888
16544SOL     OW51464   3.498   3.569   5.387
16544SOL    HW151465   3.465   3.580   5.298
16544SOL    HW251466   3.420   3.559   5.441
16545SOL     OW51467   8.694  12.648   0.023
16545SOL    HW151468   8.702  12.561   0.063
16545SOL    HW251469   8.760  12.701   0.068
16546SOL     OW51470  12.845  13.941   0.382
16546SOL    HW151471  12.763  13.914   0.341
16546SOL    HW251472  12.877  14.013   0.327
16547SOL     OW51473  10.167   2.123  10.181
16547SOL    HW151474  10.189   2.213  10.204
16547SOL    HW251475  10.078   2.128  10.146
16548SOL     OW51476   3.283  14.272  10.854
16548SOL    HW151477   3.220  14.316  10.911
16548SOL    HW251478   3.365  14.319  10.868
16549SOL     OW51479  10.697   2.513   4.947
16549SOL    HW151480  10.777   2.559   4.973
16549SOL    HW251481  10.724   2.461   4.870
16550SOL     OW51482  12.289   5.507   2.085
16550SOL    HW151483  12.308   5.568   2.157
16550SOL    HW251484  12.369   5.456   2.075
16551SOL     OW51485   2.505   7.214  11.095
16551SOL    HW151486   2.501   7.185  11.186
16551SOL    HW251487   2.441   7.160  11.049
16552SOL     OW51488   8.715   5.151   6.228
16552SOL    HW151489   8.698   5.236   6.186
16552SOL    HW251490   8.640   5.137   6.285
16553SOL     OW51491   0.173   3.226  12.671
16553SOL    HW151492   0.087   3.208  12.632
16553SOL    HW251493   0.182   3.159  12.739
16554SOL     OW51494   2.151   8.950   1.361
16554SOL    HW151495   2.227   8.981   1.311
16554SOL    HW251496   2.102   8.896   1.299
16555SOL     OW51497  11.195   0.104  11.649
16555SOL    HW151498  11.188   0.166  11.722
16555SOL    HW251499  11.213   0.020  11.691
16556SOL     OW51500   9.630   3.145  11.147
16556SOL    HW151501   9.584   3.168  11.066
16556SOL    HW251502   9.706   3.203  11.148
16557SOL     OW51503   8.176   8.507   0.291
16557SOL    HW151504   8.260   8.524   0.332
16557SOL    HW251505   8.118   8.483   0.364
16558SOL     OW51506   9.328  12.873   1.740
16558SOL    HW151507   9.339  12.871   1.645
16558SOL    HW251508   9.245  12.920   1.754
16559SOL     OW51509   6.400  13.780  11.143
16559SOL    HW151510   6.396  13.712  11.210
16559SOL    HW251511   6.440  13.738  11.068
16560SOL     OW51512   8.746   9.425   5.456
16560SOL    HW151513   8.781   9.385   5.535
16560SOL    HW251514   8.792   9.379   5.384
16561SOL     OW51515   5.200   1.132  12.716
16561SOL    HW151516   5.222   1.072  12.645
16561SOL    HW251517   5.157   1.077  12.782
16562SOL     OW51518   3.980  12.086   8.678
16562SOL    HW151519   4.008  11.995   8.674
16562SOL    HW251520   4.058  12.136   8.654
16563SOL     OW51521   3.416  14.462   3.900
16563SOL    HW151522   3.323  14.449   3.882
16563SOL    HW251523   3.461  14.414   3.830
16564SOL     OW51524  13.407   0.026  12.411
16564SOL    HW151525  13.442   0.113  12.389
16564SOL    HW251526  13.336   0.045  12.473
16565SOL     OW51527  13.381   6.768   1.414
16565SOL    HW151528  13.310   6.716   1.377
16565SOL    HW251529  13.451   6.764   1.349
16566SOL     OW51530  11.435   3.852   2.729
16566SOL    HW151531  11.357   3.802   2.753
16566SOL    HW251532  11.420   3.877   2.638
16567SOL     OW51533   3.380   8.217  13.800
16567SOL    HW151534   3.385   8.124  13.824
16567SOL    HW251535   3.440   8.225  13.726
16568SOL     OW51536   0.856   1.272   7.262
16568SOL    HW151537   0.796   1.219   7.314
16568SOL    HW251538   0.929   1.213   7.241
16569SOL     OW51539   1.813   1.955   2.272
16569SOL    HW151540   1.852   2.005   2.200
16569SOL    HW251541   1.817   1.864   2.243
16570SOL     OW51542   0.324   5.184   2.748
16570SOL    HW151543   0.326   5.224   2.661
16570SOL    HW251544   0.417   5.174   2.771
16571SOL     OW51545   8.696   2.019  12.045
16571SOL    HW151546   8.641   2.027  11.967
16571SOL    HW251547   8.690   1.926  12.070
16572SOL     OW51548   2.555   7.589   1.856
16572SOL    HW151549   2.526   7.499   1.842
16572SOL    HW251550   2.474   7.637   1.877
16573SOL     OW51551   4.932  11.194   3.186
16573SOL    HW151552   4.961  11.209   3.276
16573SOL    HW251553   4.842  11.162   3.194
16574SOL     OW51554   7.189  11.117   0.317
16574SOL    HW151555   7.282  11.130   0.297
16574SOL    HW251556   7.146  11.116   0.232
16575SOL     OW51557  11.401   0.297   3.485
16575SOL    HW151558  11.413   0.351   3.407
16575SOL    HW251559  11.403   0.358   3.558
16576SOL     OW51560  13.737   9.158   7.972
16576SOL    HW151561  13.657   9.193   8.011
16576SOL    HW251562  13.741   9.067   8.002
16577SOL     OW51563  10.538   0.467   2.248
16577SOL    HW151564  10.570   0.410   2.178
16577SOL    HW251565  10.484   0.532   2.203
16578SOL     OW51566   2.984   8.400   8.763
16578SOL    HW151567   2.930   8.445   8.698
16578SOL    HW251568   3.074   8.420   8.737
16579SOL     OW51569  11.258   7.595   5.598
16579SOL    HW151570  11.213   7.679   5.591
16579SOL    HW251571  11.190   7.535   5.630
16580SOL     OW51572   8.660   0.725  13.185
16580SOL    HW151573   8.754   0.738  13.197
16580SOL    HW251574   8.641   0.762  13.098
16581SOL     OW51575   7.209   2.036   0.449
16581SOL    HW151576   7.304   2.037   0.464
16581SOL    HW251577   7.196   1.970   0.381
16582SOL     OW51578  12.278   3.208  12.914
16582SOL    HW151579  12.204   3.269  12.916
16582SOL    HW251580  12.354   3.264  12.900
16583SOL     OW51581   2.449  14.613   3.615
16583SOL    HW151582   2.421  14.696   3.578
16583SOL    HW251583   2.460  14.631   3.709
16584SOL     OW51584   8.596   7.259  11.458
16584SOL    HW151585   8.627   7.176  11.420
16584SOL    HW251586   8.512   7.274  11.417
16585SOL     OW51587   4.163  13.600   7.525
16585SOL    HW151588   4.207  13.684   7.532
16585SOL    HW251589   4.233  13.535   7.522
16586SOL     OW51590   4.731   3.996   4.392
16586SOL    HW151591   4.668   3.926   4.379
16586SOL    HW251592   4.691   4.053   4.458
16587SOL     OW51593   0.015   8.973   4.537
16587SOL    HW151594  14.836   8.971   4.613
16587SOL    HW251595   0.078   9.043   4.556
16588SOL     OW51596   6.037  13.514  12.077
16588SOL    HW151597   6.040  13.579  12.147
16588SOL    HW251598   6.085  13.439  12.112
16589SOL     OW51599   9.060   0.115   3.271
16589SOL    HW151600   9.055   0.136   3.365
16589SOL    HW251601   9.068   0.200   3.228
16590SOL     OW51602  11.965   8.633   6.993
16590SOL    HW151603  11.925   8.704   7.043
16590SOL    HW251604  12.058   8.657   6.986
16591SOL     OW51605   1.482   7.081   5.697
16591SOL    HW151606   1.541   7.027   5.644
16591SOL    HW251607   1.492   7.047   5.785
16592SOL     OW51608   9.571  14.464   2.255
16592SOL    HW151609   9.599  14.463   2.347
16592SOL    HW251610   9.569  14.372   2.230
16593SOL     OW51611  10.285   6.646  14.780
16593SOL    HW151612  10.283   6.561  14.824
16593SOL    HW251613  10.259   6.709  14.847
16594SOL     OW51614  10.462  14.102  10.031
16594SOL    HW151615  10.498  14.082   9.945
16594SOL    HW251616  10.367  14.097  10.019
16595SOL     OW51617   4.287  11.078   2.785
16595SOL    HW151618   4.329  10.997   2.815
16595SOL    HW251619   4.250  11.056   2.700
16596SOL     OW51620   2.912   7.822   6.722
16596SOL    HW151621   2.882   7.894   6.777
16596SOL    HW251622   2.995   7.852   6.685
16597SOL     OW51623  11.811  11.411  11.680
16597SOL    HW151624  11.907  11.414  11.689
16597SOL    HW251625  11.792  11.467  11.606
16598SOL     OW51626   5.787   5.830   8.627
16598SOL    HW151627   5.707   5.870   8.661
16598SOL    HW251628   5.846   5.904   8.612
16599SOL     OW51629   2.091   5.474  13.446
16599SOL    HW151630   2.034   5.470  13.369
16599SOL    HW251631   2.031   5.465  13.520
16600SOL     OW51632  11.832   9.620   7.912
16600SOL    HW151633  11.898   9.670   7.866
16600SOL    HW251634  11.761   9.609   7.848
16601SOL     OW51635  13.902   9.283   9.430
16601SOL    HW151636  13.953   9.213   9.472
16601SOL    HW251637  13.968   9.343   9.396
16602SOL     OW51638   6.955   4.614   7.107
16602SOL    HW151639   6.881   4.641   7.163
16602SOL    HW251640   6.999   4.546   7.159
16603SOL     OW51641   7.273   5.619   4.237
16603SOL    HW151642   7.337   5.664   4.183
16603SOL    HW251643   7.189   5.633   4.193
16604SOL     OW51644   7.663   6.739  12.518
16604SOL    HW151645   7.740   6.726  12.463
16604SOL    HW251646   7.692   6.719  12.607
16605SOL     OW51647  10.118  11.448   1.449
16605SOL    HW151648  10.048  11.426   1.388
16605SOL    HW251649  10.198  11.445   1.397
16606SOL     OW51650   2.943   0.255   5.414
16606SOL    HW151651   2.919   0.329   5.470
16606SOL    HW251652   2.883   0.261   5.340
16607SOL     OW51653   8.220   9.251   6.886
16607SOL    HW151654   8.156   9.201   6.835
16607SOL    HW251655   8.175   9.271   6.968
16608SOL     OW51656  14.750   2.071   3.557
16608SOL    HW151657  14.812   2.133   3.596
16608SOL    HW251658  14.722   2.015   3.630
16609SOL     OW51659   9.321  12.425   3.221
16609SOL    HW151660   9.241  12.434   3.170
16609SOL    HW251661   9.301  12.355   3.284
16610SOL     OW51662  11.906   0.162   6.746
16610SOL    HW151663  11.997   0.135   6.749
16610SOL    HW251664  11.869   0.134   6.830
16611SOL     OW51665   4.147   7.659   2.920
16611SOL    HW151666   4.133   7.637   3.012
16611SOL    HW251667   4.104   7.743   2.909
16612SOL     OW51668   0.236   5.070   9.109
16612SOL    HW151669   0.243   5.166   9.103
16612SOL    HW251670   0.151   5.050   9.070
16613SOL     OW51671  14.081  14.555   2.208
16613SOL    HW151672  13.989  14.568   2.227
16613SOL    HW251673  14.124  14.634   2.242
16614SOL     OW51674  13.476   4.196  10.036
16614SOL    HW151675  13.460   4.106  10.007
16614SOL    HW251676  13.403   4.215  10.095
16615SOL     OW51677   7.776   8.406   4.137
16615SOL    HW151678   7.801   8.448   4.054
16615SOL    HW251679   7.815   8.461   4.204
16616SOL     OW51680   7.343   0.887   4.873
16616SOL    HW151681   7.341   0.899   4.778
16616SOL    HW251682   7.400   0.811   4.887
16617SOL     OW51683   0.971   7.244   4.771
16617SOL    HW151684   0.949   7.337   4.768
16617SOL    HW251685   0.904   7.205   4.826
16618SOL     OW51686   3.243   6.877   8.306
16618SOL    HW151687   3.334   6.882   8.277
16618SOL    HW251688   3.247   6.825   8.386
16619SOL     OW51689   9.333   3.723  11.733
16619SOL    HW151690   9.416   3.685  11.762
16619SOL    HW251691   9.293   3.654  11.680
16620SOL     OW51692  11.641  10.823  12.624
16620SOL    HW151693  11.612  10.753  12.565
16620SOL    HW251694  11.650  10.899  12.566
16621SOL     OW51695   4.064   0.157   6.079
16621SOL    HW151696   3.995   0.096   6.105
16621SOL    HW251697   4.128   0.103   6.033
16622SOL     OW51698  10.234  13.279   0.181
16622SOL    HW151699  10.162  13.337   0.206
16622SOL    HW251700  10.263  13.313   0.096
16623SOL     OW51701  13.093   9.235  10.694
16623SOL    HW151702  13.177   9.215  10.652
16623SOL    HW251703  13.079   9.161  10.754
16624SOL     OW51704   9.685   8.256  13.835
16624SOL    HW151705   9.643   8.332  13.874
16624SOL    HW251706   9.614   8.193  13.821
16625SOL     OW51707   8.454   9.099   7.423
16625SOL    HW151708   8.449   9.127   7.332
16625SOL    HW251709   8.414   9.012   7.424
16626SOL     OW51710  13.699  14.034   6.064
16626SOL    HW151711  13.720  13.948   6.099
16626SOL    HW251712  13.774  14.055   6.007
16627SOL     OW51713  11.574   9.368   0.751
16627SOL    HW151714  11.515   9.303   0.789
16627SOL    HW251715  11.534   9.391   0.667
16628SOL     OW51716   4.349  10.974   6.298
16628SOL    HW151717   4.280  10.989   6.234
16628SOL    HW251718   4.379  10.885   6.282
16629SOL     OW51719  11.666   4.524   6.802
16629SOL    HW151720  11.590   4.488   6.847
16629SOL    HW251721  11.694   4.455   6.742
16630SOL     OW51722   1.978   4.863   8.147
16630SOL    HW151723   2.011   4.886   8.060
16630SOL    HW251724   2.057   4.849   8.200
16631SOL     OW51725  10.453  14.764   6.044
16631SOL    HW151726  10.364  14.783   6.074
16631SOL    HW251727  10.503  14.843   6.066
16632SOL     OW51728  13.013   5.505   2.136
16632SOL    HW151729  12.986   5.577   2.079
16632SOL    HW251730  13.093   5.537   2.179
16633SOL     OW51731   8.181   8.212  12.614
16633SOL    HW151732   8.268   8.252  12.624
16633SOL    HW251733   8.196   8.119  12.632
16634SOL     OW51734   8.994  11.994   6.773
16634SOL    HW151735   9.018  12.024   6.685
16634SOL    HW251736   8.910  12.036   6.790
16635SOL     OW51737  10.572   3.674  11.573
16635SOL    HW151738  10.522   3.705  11.648
16635SOL    HW251739  10.567   3.745  11.509
16636SOL     OW51740  11.601  13.552  12.249
16636SOL    HW151741  11.568  13.600  12.325
16636SOL    HW251742  11.641  13.474  12.286
16637SOL     OW51743   3.511   3.003   8.947
16637SOL    HW151744   3.494   3.006   8.853
16637SOL    HW251745   3.590   3.055   8.959
16638SOL     OW51746   2.312  14.145  11.633
16638SOL    HW151747   2.339  14.055  11.647
16638SOL    HW251748   2.292  14.179  11.720
16639SOL     OW51749   4.046  12.801   3.686
16639SOL    HW151750   4.026  12.779   3.777
16639SOL    HW251751   4.054  12.716   3.642
16640SOL     OW51752   8.541   9.829   8.616
16640SOL    HW151753   8.551   9.922   8.600
16640SOL    HW251754   8.586   9.787   8.542
16641SOL     OW51755  13.813  12.471   2.172
16641SOL    HW151756  13.894  12.424   2.190
16641SOL    HW251757  13.817  12.548   2.228
16642SOL     OW51758   9.083  11.736   1.411
16642SOL    HW151759   9.048  11.824   1.422
16642SOL    HW251760   9.169  11.748   1.371
16643SOL     OW51761   9.471   4.061  11.605
16643SOL    HW151762   9.476   4.153  11.579
16643SOL    HW251763   9.383   4.052  11.643
16644SOL     OW51764   8.230  11.277   1.571
16644SOL    HW151765   8.189  11.196   1.600
16644SOL    HW251766   8.312  11.250   1.530
16645SOL     OW51767   6.662   0.382   3.894
16645SOL    HW151768   6.716   0.440   3.948
16645SOL    HW251769   6.572   0.408   3.915
16646SOL     OW51770  13.189   7.863  10.772
16646SOL    HW151771  13.141   7.936  10.812
16646SOL    HW251772  13.250   7.835  10.841
16647SOL     OW51773   9.527   8.971  12.344
16647SOL    HW151774   9.568   8.917  12.412
16647SOL    HW251775   9.438   8.987  12.377
16648SOL     OW51776  11.176   0.911   7.245
16648SOL    HW151777  11.095   0.868   7.216
16648SOL    HW251778  11.226   0.923   7.164
16649SOL     OW51779   4.862   6.168   9.518
16649SOL    HW151780   4.890   6.258   9.503
16649SOL    HW251781   4.770   6.168   9.491
16650SOL     OW51782  14.665   0.133  13.396
16650SOL    HW151783  14.725   0.088  13.456
16650SOL    HW251784  14.608   0.184  13.454
16651SOL     OW51785   8.340   4.838   0.907
16651SOL    HW151786   8.317   4.812   0.818
16651SOL    HW251787   8.384   4.923   0.897
16652SOL     OW51788   5.003   9.992  12.870
16652SOL    HW151789   4.911  10.017  12.859
16652SOL    HW251790   5.024   9.943  12.790
16653SOL     OW51791   6.286   5.872   1.725
16653SOL    HW151792   6.220   5.818   1.766
16653SOL    HW251793   6.242   5.912   1.650
16654SOL     OW51794  13.210   5.634   5.201
16654SOL    HW151795  13.172   5.547   5.210
16654SOL    HW251796  13.152   5.681   5.141
16655SOL     OW51797   1.408   4.236   1.188
16655SOL    HW151798   1.361   4.176   1.130
16655SOL    HW251799   1.401   4.321   1.144
16656SOL     OW51800   8.471   1.531   5.611
16656SOL    HW151801   8.503   1.567   5.528
16656SOL    HW251802   8.550   1.512   5.661
16657SOL     OW51803   5.516   1.302  11.581
16657SOL    HW151804   5.605   1.339  11.584
16657SOL    HW251805   5.481   1.317  11.668
16658SOL     OW51806   8.698   6.765   3.173
16658SOL    HW151807   8.677   6.835   3.236
16658SOL    HW251808   8.786   6.737   3.197
16659SOL     OW51809   6.470   2.917   8.959
16659SOL    HW151810   6.399   2.942   8.900
16659SOL    HW251811   6.426   2.896   9.042
16660SOL     OW51812   8.096  13.431   4.818
16660SOL    HW151813   8.059  13.372   4.884
16660SOL    HW251814   8.191  13.422   4.830
16661SOL     OW51815   4.056   1.552   0.207
16661SOL    HW151816   3.992   1.502   0.157
16661SOL    HW251817   4.141   1.521   0.176
16662SOL     OW51818   5.891   5.377   4.197
16662SOL    HW151819   5.945   5.331   4.261
16662SOL    HW251820   5.827   5.425   4.249
16663SOL     OW51821   5.660   4.370  12.895
16663SOL    HW151822   5.743   4.416  12.905
16663SOL    HW251823   5.685   4.278  12.886
16664SOL     OW51824   8.789   7.919  13.600
16664SOL    HW151825   8.797   8.015  13.604
16664SOL    HW251826   8.709   7.900  13.650
16665SOL     OW51827   2.792   8.966   6.323
16665SOL    HW151828   2.843   8.885   6.322
16665SOL    HW251829   2.709   8.942   6.283
16666SOL     OW51830  13.559   9.975   2.288
16666SOL    HW151831  13.585   9.913   2.221
16666SOL    HW251832  13.464   9.963   2.298
16667SOL     OW51833   4.045  14.328  13.420
16667SOL    HW151834   4.114  14.358  13.479
16667SOL    HW251835   4.042  14.233  13.434
16668SOL     OW51836   7.953  10.237  11.362
16668SOL    HW151837   7.911  10.281  11.288
16668SOL    HW251838   7.880  10.204  11.415
16669SOL     OW51839   4.813   3.852  11.949
16669SOL    HW151840   4.800   3.819  12.038
16669SOL    HW251841   4.908   3.869  11.944
16670SOL     OW51842   1.026   0.797   4.994
16670SOL    HW151843   1.010   0.891   5.007
16670SOL    HW251844   1.121   0.790   4.987
16671SOL     OW51845  12.213  14.500   3.791
16671SOL    HW151846  12.282  14.493   3.858
16671SOL    HW251847  12.158  14.423   3.805
16672SOL     OW51848   9.654   4.805   7.017
16672SOL    HW151849   9.735   4.765   6.985
16672SOL    HW251850   9.683   4.866   7.085
16673SOL     OW51851   3.058   9.295   1.630
16673SOL    HW151852   3.042   9.200   1.629
16673SOL    HW251853   3.123   9.308   1.699
16674SOL     OW51854   6.227   7.890   6.090
16674SOL    HW151855   6.277   7.968   6.113
16674SOL    HW251856   6.232   7.886   5.994
16675SOL     OW51857   3.961  14.237   0.225
16675SOL    HW151858   4.037  14.293   0.215
16675SOL    HW251859   3.920  14.264   0.307
16676SOL     OW51860   5.693   0.014   0.392
16676SOL    HW151861   5.729  14.813   0.354
16676SOL    HW251862   5.769   0.070   0.409
16677SOL     OW51863   1.289   4.183   8.975
16677SOL    HW151864   1.204   4.141   8.962
16677SOL    HW251865   1.352   4.116   8.951
16678SOL     OW51866   9.123  11.092   3.039
16678SOL    HW151867   9.047  11.048   3.002
16678SOL    HW251868   9.100  11.104   3.132
16679SOL     OW51869   4.196   1.465   2.836
16679SOL    HW151870   4.279   1.514   2.834
16679SOL    HW251871   4.164   1.469   2.746
16680SOL     OW51872   3.879   2.411   3.316
16680SOL    HW151873   3.796   2.438   3.356
16680SOL    HW251874   3.939   2.483   3.336
16681SOL     OW51875  10.047  12.007   3.837
16681SOL    HW151876  10.002  11.945   3.780
16681SOL    HW251877   9.997  12.005   3.919
16682SOL     OW51878   8.548   3.844   2.566
16682SOL    HW151879   8.625   3.826   2.512
16682SOL    HW251880   8.547   3.773   2.630
16683SOL     OW51881   4.539   2.168   7.031
16683SOL    HW151882   4.542   2.246   6.975
16683SOL    HW251883   4.628   2.159   7.064
16684SOL     OW51884   4.114   2.932  14.196
16684SOL    HW151885   4.031   2.979  14.204
16684SOL    HW251886   4.175   2.980  14.252
16685SOL     OW51887   2.590  13.474   8.119
16685SOL    HW151888   2.512  13.420   8.132
16685SOL    HW251889   2.615  13.502   8.207
16686SOL     OW51890   0.347   8.432  11.139
16686SOL    HW151891   0.393   8.351  11.162
16686SOL    HW251892   0.287   8.446  11.213
16687SOL     OW51893   7.435  11.072  12.023
16687SOL    HW151894   7.350  11.063  12.065
16687SOL    HW251895   7.498  11.044  12.090
16688SOL     OW51896   4.353   6.441   6.782
16688SOL    HW151897   4.417   6.443   6.853
16688SOL    HW251898   4.392   6.495   6.713
16689SOL     OW51899  13.601  12.085   4.870
16689SOL    HW151900  13.557  12.034   4.802
16689SOL    HW251901  13.547  12.164   4.880
16690SOL     OW51902  12.953   2.469   1.347
16690SOL    HW151903  13.025   2.442   1.290
16690SOL    HW251904  12.978   2.438   1.434
16691SOL     OW51905   5.427  11.896   6.785
16691SOL    HW151906   5.428  11.985   6.821
16691SOL    HW251907   5.372  11.902   6.707
16692SOL     OW51908  11.390  10.391  14.636
16692SOL    HW151909  11.352  10.456  14.577
16692SOL    HW251910  11.316  10.360  14.688
16693SOL     OW51911  14.748  10.300   0.015
16693SOL    HW151912  14.841  10.301   0.039
16693SOL    HW251913  14.717  10.215   0.046
16694SOL     OW51914   3.247   2.462   4.122
16694SOL    HW151915   3.184   2.468   4.194
16694SOL    HW251916   3.234   2.374   4.086
16695SOL     OW51917   4.956   3.730   7.185
16695SOL    HW151918   4.886   3.795   7.194
16695SOL    HW251919   5.012   3.764   7.115
16696SOL     OW51920   9.877   8.623   3.952
16696SOL    HW151921   9.966   8.642   3.922
16696SOL    HW251922   9.886   8.607   4.046
16697SOL     OW51923  11.156   0.738   4.272
16697SOL    HW151924  11.135   0.811   4.330
16697SOL    HW251925  11.251   0.728   4.279
16698SOL     OW51926   1.782  14.125   4.812
16698SOL    HW151927   1.719  14.053   4.810
16698SOL    HW251928   1.792  14.146   4.905
16699SOL     OW51929   3.013   1.865   5.579
16699SOL    HW151930   2.955   1.799   5.542
16699SOL    HW251931   3.012   1.937   5.517
16700SOL     OW51932  11.314  11.157  13.549
16700SOL    HW151933  11.285  11.141  13.459
16700SOL    HW251934  11.234  11.179  13.596
16701SOL     OW51935   6.985  11.844  13.623
16701SOL    HW151936   7.055  11.844  13.558
16701SOL    HW251937   6.936  11.925  13.607
16702SOL     OW51938  13.176   0.161  12.004
16702SOL    HW151939  13.181   0.221  11.929
16702SOL    HW251940  13.267   0.151  12.032
16703SOL     OW51941   8.468   3.264  10.450
16703SOL    HW151942   8.465   3.180  10.495
16703SOL    HW251943   8.462   3.243  10.357
16704SOL     OW51944  12.012   2.728   0.559
16704SOL    HW151945  12.046   2.655   0.507
16704SOL    HW251946  12.052   2.716   0.645
16705SOL     OW51947   7.814   5.810   0.737
16705SOL    HW151948   7.862   5.744   0.787
16705SOL    HW251949   7.872   5.833   0.665
16706SOL     OW51950   7.162  10.391  13.143
16706SOL    HW151951   7.097  10.460  13.131
16706SOL    HW251952   7.216  10.396  13.064
16707SOL     OW51953   0.448   3.477   4.632
16707SOL    HW151954   0.517   3.478   4.566
16707SOL    HW251955   0.472   3.549   4.691
16708SOL     OW51956   5.069   3.593  11.968
16708SOL    HW151957   5.031   3.592  12.056
16708SOL    HW251958   5.026   3.521  11.923
16709SOL     OW51959   9.265  11.575   7.637
16709SOL    HW151960   9.193  11.579   7.574
16709SOL    HW251961   9.293  11.666   7.648
16710SOL     OW51962   6.229   9.690  10.769
16710SOL    HW151963   6.314   9.664  10.733
16710SOL    HW251964   6.174   9.612  10.761
16711SOL     OW51965   0.292   6.907   8.142
16711SOL    HW151966   0.220   6.967   8.163
16711SOL    HW251967   0.348   6.957   8.083
16712SOL     OW51968   9.857   6.901  12.994
16712SOL    HW151969   9.762   6.900  13.009
16712SOL    HW251970   9.883   6.991  13.012
16713SOL     OW51971  11.838   9.728   8.787
16713SOL    HW151972  11.885   9.808   8.808
16713SOL    HW251973  11.745   9.752   8.794
16714SOL     OW51974  14.423   5.845   4.043
16714SOL    HW151975  14.328   5.841   4.051
16714SOL    HW251976  14.442   5.936   4.022
16715SOL     OW51977   6.887   8.743  11.994
16715SOL    HW151978   6.838   8.809  12.044
16715SOL    HW251979   6.862   8.660  12.033
16716SOL     OW51980  13.928  12.207   1.202
16716SOL    HW151981  13.955  12.281   1.257
16716SOL    HW251982  13.862  12.161   1.254
16717SOL     OW51983   3.933  10.629   1.987
16717SOL    HW151984   3.987  10.570   2.038
16717SOL    HW251985   3.993  10.697   1.957
16718SOL     OW51986  14.681   6.731   3.471
16718SOL    HW151987  14.757   6.786   3.451
16718SOL    HW251988  14.610   6.792   3.487
16719SOL     OW51989  10.799  13.832  13.536
16719SOL    HW151990  10.758  13.848  13.451
16719SOL    HW251991  10.878  13.782  13.515
16720SOL     OW51992  10.567   2.494   6.689
16720SOL    HW151993  10.567   2.523   6.780
16720SOL    HW251994  10.591   2.572   6.638
16721SOL     OW51995   1.078   0.493  12.034
16721SOL    HW151996   1.147   0.481  12.099
16721SOL    HW251997   1.102   0.574  11.989
16722SOL     OW51998   3.193   0.832   0.051
16722SOL    HW151999   3.259   0.788  14.876
16722SOL    HW252000   3.233   0.838   0.138
16723SOL     OW52001   6.626   7.242  14.426
16723SOL    HW152002   6.552   7.182  14.416
16723SOL    HW252003   6.649   7.236  14.519
16724SOL     OW52004  11.902   2.010  10.422
16724SOL    HW152005  11.830   2.074  10.422
16724SOL    HW252006  11.927   2.003  10.330
16725SOL     OW52007  12.941   1.855   3.592
16725SOL    HW152008  12.847   1.864   3.579
16725SOL    HW252009  12.968   1.938   3.631
16726SOL     OW52010   8.916  14.727   6.258
16726SOL    HW152011   8.822  14.743   6.250
16726SOL    HW252012   8.922  14.641   6.301
16727SOL     OW52013   5.537  10.752  14.388
16727SOL    HW152014   5.626  10.736  14.357
16727SOL    HW252015   5.494  10.797  14.315
16728SOL     OW52016   0.771   9.367   3.580
16728SOL    HW152017   0.752   9.439   3.519
16728SOL    HW252018   0.685   9.336   3.609
16729SOL     OW52019  13.631   7.257   2.423
16729SOL    HW152020  13.706   7.300   2.380
16729SOL    HW252021  13.558   7.271   2.362
16730SOL     OW52022   1.160  10.193   0.008
16730SOL    HW152023   1.216  10.229  14.818
16730SOL    HW252024   1.148  10.265   0.070
16731SOL     OW52025   2.389  13.202   5.137
16731SOL    HW152026   2.469  13.156   5.165
16731SOL    HW252027   2.351  13.144   5.071
16732SOL     OW52028  13.218   7.279   4.853
16732SOL    HW152029  13.123   7.264   4.848
16732SOL    HW252030  13.247   7.222   4.924
16733SOL     OW52031   9.182   9.118  11.183
16733SOL    HW152032   9.247   9.069  11.132
16733SOL    HW252033   9.142   9.051  11.239
16734SOL     OW52034  11.487  11.364   4.144
16734SOL    HW152035  11.489  11.282   4.094
16734SOL    HW252036  11.579  11.389   4.152
16735SOL     OW52037  11.981   3.795   7.776
16735SOL    HW152038  11.997   3.885   7.802
16735SOL    HW252039  11.988   3.796   7.681
16736SOL     OW52040  11.471  13.104   1.977
16736SOL    HW152041  11.480  13.188   1.932
16736SOL    HW252042  11.540  13.049   1.940
16737SOL     OW52043  11.946  13.285   8.166
16737SOL    HW152044  11.897  13.345   8.110
16737SOL    HW252045  12.014  13.250   8.109
16738SOL     OW52046   0.669  10.489   8.272
16738SOL    HW152047   0.755  10.454   8.247
16738SOL    HW252048   0.678  10.584   8.259
16739SOL     OW52049   3.490   1.640  10.524
16739SOL    HW152050   3.398   1.649  10.548
16739SOL    HW252051   3.495   1.555  10.479
16740SOL     OW52052  10.341   2.075  11.982
16740SOL    HW152053  10.347   2.166  11.953
16740SOL    HW252054  10.273   2.036  11.927
16741SOL     OW52055   0.209  14.609   2.676
16741SOL    HW152056   0.211  14.514   2.689
16741SOL    HW252057   0.126  14.625   2.632
16742SOL     OW52058  11.445  12.663   7.600
16742SOL    HW152059  11.406  12.577   7.613
16742SOL    HW252060  11.537  12.646   7.579
16743SOL     OW52061   3.945   4.414   2.741
16743SOL    HW152062   3.982   4.416   2.653
16743SOL    HW252063   4.020   4.402   2.798
16744SOL     OW52064   2.913   2.780   7.940
16744SOL    HW152065   3.000   2.749   7.966
16744SOL    HW252066   2.869   2.797   8.023
16745SOL     OW52067  13.754   4.437  11.039
16745SOL    HW152068  13.717   4.402  10.958
16745SOL    HW252069  13.720   4.526  11.044
16746SOL     OW52070   2.633   3.971   1.659
16746SOL    HW152071   2.665   3.975   1.749
16746SOL    HW252072   2.707   4.003   1.606
16747SOL     OW52073   3.488  13.904   9.230
16747SOL    HW152074   3.579  13.918   9.255
16747SOL    HW252075   3.437  13.961   9.288
16748SOL     OW52076  10.339   0.373   7.123
16748SOL    HW152077  10.349   0.281   7.096
16748SOL    HW252078  10.255   0.399   7.085
16749SOL     OW52079   0.306   1.038   7.721
16749SOL    HW152080   0.361   0.968   7.756
16749SOL    HW252081   0.328   1.115   7.774
16750SOL     OW52082   7.062  14.113  14.318
16750SOL    HW152083   7.079  14.019  14.310
16750SOL    HW252084   6.993  14.119  14.383
16751SOL     OW52085   4.676  12.172  14.552
16751SOL    HW152086   4.635  12.102  14.502
16751SOL    HW252087   4.615  12.245  14.546
16752SOL     OW52088   7.136   8.245  14.423
16752SOL    HW152089   7.212   8.302  14.413
16752SOL    HW252090   7.077   8.271  14.353
16753SOL     OW52091   6.293   6.320   5.629
16753SOL    HW152092   6.343   6.244   5.599
16753SOL    HW252093   6.360   6.388   5.641
16754SOL     OW52094   5.351   7.323   4.183
16754SOL    HW152095   5.311   7.410   4.183
16754SOL    HW252096   5.438   7.336   4.146
16755SOL     OW52097   1.222  11.921  10.401
16755SOL    HW152098   1.198  11.981  10.331
16755SOL    HW252099   1.179  11.839  10.379
16756SOL     OW52100  10.804   0.421   2.496
16756SOL    HW152101  10.845   0.417   2.410
16756SOL    HW252102  10.872   0.390   2.556
16757SOL     OW52103   5.314   2.769  11.422
16757SOL    HW152104   5.356   2.782  11.506
16757SOL    HW252105   5.302   2.858  11.387
16758SOL     OW52106   5.579   1.203   3.151
16758SOL    HW152107   5.530   1.254   3.087
16758SOL    HW252108   5.513   1.149   3.194
16759SOL     OW52109   3.299   6.347  11.075
16759SOL    HW152110   3.338   6.268  11.038
16759SOL    HW252111   3.208   6.322  11.093
16760SOL     OW52112   9.168   9.275   7.683
16760SOL    HW152113   9.132   9.307   7.766
16760SOL    HW252114   9.109   9.308   7.616
16761SOL     OW52115   5.203   6.308  14.027
16761SOL    HW152116   5.148   6.240  13.989
16761SOL    HW252117   5.287   6.299  13.983
16762SOL     OW52118   5.510   5.162   2.428
16762SOL    HW152119   5.585   5.157   2.369
16762SOL    HW252120   5.439   5.198   2.374
16763SOL     OW52121   3.768   6.122   1.338
16763SOL    HW152122   3.732   6.142   1.251
16763SOL    HW252123   3.840   6.061   1.321
16764SOL     OW52124   0.677   5.578   0.350
16764SOL    HW152125   0.763   5.552   0.317
16764SOL    HW252126   0.616   5.512   0.316
16765SOL     OW52127   7.120   1.810   3.160
16765SOL    HW152128   7.153   1.722   3.144
16765SOL    HW252129   7.042   1.796   3.215
16766SOL     OW52130   8.509   8.024   1.366
16766SOL    HW152131   8.548   8.091   1.423
16766SOL    HW252132   8.418   8.050   1.357
16767SOL     OW52133  13.114   4.969  11.436
16767SOL    HW152134  13.052   4.988  11.507
16767SOL    HW252135  13.130   5.055  11.395
16768SOL     OW52136   9.846   2.514   1.160
16768SOL    HW152137   9.868   2.427   1.195
16768SOL    HW252138   9.909   2.573   1.201
16769SOL     OW52139   5.506   9.033   7.502
16769SOL    HW152140   5.525   9.010   7.411
16769SOL    HW252141   5.549   8.964   7.553
16770SOL     OW52142   9.100   1.488   2.935
16770SOL    HW152143   9.188   1.488   2.973
16770SOL    HW252144   9.115   1.474   2.842
16771SOL     OW52145  11.356   4.623  10.553
16771SOL    HW152146  11.289   4.660  10.611
16771SOL    HW252147  11.439   4.642  10.597
16772SOL     OW52148   0.032  14.355   4.999
16772SOL    HW152149   0.100  14.290   4.983
16772SOL    HW252150   0.036  14.372   5.093
16773SOL     OW52151   6.868   4.609   0.190
16773SOL    HW152152   6.847   4.668   0.262
16773SOL    HW252153   6.853   4.660   0.111
16774SOL     OW52154  12.197   4.188   3.106
16774SOL    HW152155  12.175   4.180   3.014
16774SOL    HW252156  12.292   4.197   3.108
16775SOL     OW52157   6.486   7.186   7.419
16775SOL    HW152158   6.429   7.111   7.399
16775SOL    HW252159   6.525   7.164   7.503
16776SOL     OW52160   2.843   5.867  13.766
16776SOL    HW152161   2.818   5.880  13.858
16776SOL    HW252162   2.785   5.926  13.718
16777SOL     OW52163   1.023  14.014   1.593
16777SOL    HW152164   1.118  14.003   1.594
16777SOL    HW252165   1.007  14.076   1.522
16778SOL     OW52166   5.803   8.093   9.371
16778SOL    HW152167   5.767   8.119   9.286
16778SOL    HW252168   5.826   8.001   9.359
16779SOL     OW52169  11.320   9.043   9.036
16779SOL    HW152170  11.290   9.127   9.071
16779SOL    HW252171  11.248   9.014   8.980
16780SOL     OW52172  13.387   6.921  11.319
16780SOL    HW152173  13.304   6.947  11.359
16780SOL    HW252174  13.449   6.918  11.392
16781SOL     OW52175   9.307  12.030   1.627
16781SOL    HW152176   9.310  11.934   1.621
16781SOL    HW252177   9.399  12.056   1.622
16782SOL     OW52178   1.179   2.783  14.166
16782SOL    HW152179   1.136   2.772  14.251
16782SOL    HW252180   1.259   2.831  14.186
16783SOL     OW52181   7.482   2.120   0.567
16783SOL    HW152182   7.492   2.179   0.492
16783SOL    HW252183   7.481   2.178   0.643
16784SOL     OW52184  10.188   4.528   6.645
16784SOL    HW152185  10.206   4.464   6.577
16784SOL    HW252186  10.096   4.515   6.667
16785SOL     OW52187   8.898  13.988  13.525
16785SOL    HW152188   8.832  13.977  13.457
16785SOL    HW252189   8.949  14.064  13.496
16786SOL     OW52190   3.664  13.046   0.151
16786SOL    HW152191   3.600  13.014   0.215
16786SOL    HW252192   3.619  13.038   0.066
16787SOL     OW52193  10.995   8.379  10.659
16787SOL    HW152194  11.090   8.389  10.656
16787SOL    HW252195  10.974   8.321  10.587
16788SOL     OW52196   4.020   4.311   1.910
16788SOL    HW152197   4.033   4.218   1.929
16788SOL    HW252198   4.099   4.354   1.941
16789SOL     OW52199  14.430   6.114   0.237
16789SOL    HW152200  14.340   6.143   0.220
16789SOL    HW252201  14.458   6.075   0.154
16790SOL     OW52202  11.281   2.102   3.462
16790SOL    HW152203  11.234   2.033   3.416
16790SOL    HW252204  11.280   2.176   3.401
16791SOL     OW52205   3.154  13.331   0.840
16791SOL    HW152206   3.172  13.289   0.924
16791SOL    HW252207   3.084  13.278   0.800
16792SOL     OW52208   7.055   3.112   6.060
16792SOL    HW152209   7.073   3.153   6.144
16792SOL    HW252210   6.989   3.168   6.020
16793SOL     OW52211  11.833  13.068  12.890
16793SOL    HW152212  11.822  12.990  12.835
16793SOL    HW252213  11.751  13.115  12.882
16794SOL     OW52214   3.695   3.371   7.009
16794SOL    HW152215   3.739   3.286   7.010
16794SOL    HW252216   3.687   3.393   6.916
16795SOL     OW52217   7.209   6.845  10.531
16795SOL    HW152218   7.206   6.926  10.480
16795SOL    HW252219   7.167   6.867  10.614
16796SOL     OW52220   9.541   6.909   0.823
16796SOL    HW152221   9.448   6.930   0.813
16796SOL    HW252222   9.565   6.948   0.907
16797SOL     OW52223   5.199   9.070   3.298
16797SOL    HW152224   5.138   9.021   3.243
16797SOL    HW252225   5.284   9.030   3.282
16798SOL     OW52226   7.356   0.359   1.388
16798SOL    HW152227   7.305   0.278   1.382
16798SOL    HW252228   7.321   0.415   1.318
16799SOL     OW52229  14.826  10.393  14.595
16799SOL    HW152230  14.749  10.423  14.547
16799SOL    HW252231  14.804  10.408  14.687
16800SOL     OW52232   3.066   0.263   6.136
16800SOL    HW152233   3.058   0.229   6.225
16800SOL    HW252234   3.159   0.282   6.126
16801SOL     OW52235   5.737  14.666   1.843
16801SOL    HW152236   5.811  14.640   1.899
16801SOL    HW252237   5.761  14.752   1.810
16802SOL     OW52238   0.092   7.108  13.286
16802SOL    HW152239   0.185   7.090  13.293
16802SOL    HW252240   0.080   7.193  13.330
16803SOL     OW52241   1.047   9.809   8.478
16803SOL    HW152242   1.111   9.878   8.459
16803SOL    HW252243   0.988   9.848   8.543
16804SOL     OW52244  14.553  12.089   6.829
16804SOL    HW152245  14.494  12.096   6.904
16804SOL    HW252246  14.638  12.068   6.867
16805SOL     OW52247   6.538   3.805   7.476
16805SOL    HW152248   6.567   3.801   7.384
16805SOL    HW252249   6.603   3.860   7.519
16806SOL     OW52250   1.080   3.207  11.900
16806SOL    HW152251   1.050   3.173  11.984
16806SOL    HW252252   1.169   3.238  11.916
16807SOL     OW52253   8.178   9.019   1.861
16807SOL    HW152254   8.100   9.071   1.839
16807SOL    HW252255   8.250   9.083   1.858
16808SOL     OW52256  14.422   4.318   8.860
16808SOL    HW152257  14.436   4.395   8.805
16808SOL    HW252258  14.414   4.246   8.798
16809SOL     OW52259   3.005   2.037   6.035
16809SOL    HW152260   3.079   2.005   6.086
16809SOL    HW252261   2.995   1.974   5.964
16810SOL     OW52262   8.977   0.079   1.972
16810SOL    HW152263   9.047   0.016   1.955
16810SOL    HW252264   9.022   0.160   1.997
16811SOL     OW52265   5.877   1.387   7.940
16811SOL    HW152266   5.822   1.427   8.008
16811SOL    HW252267   5.823   1.316   7.905
16812SOL     OW52268   8.637  10.729   6.974
16812SOL    HW152269   8.641  10.786   6.897
16812SOL    HW252270   8.622  10.641   6.937
16813SOL     OW52271   2.474  13.747   5.702
16813SOL    HW152272   2.460  13.673   5.643
16813SOL    HW252273   2.393  13.797   5.699
16814SOL     OW52274   3.724  12.326   1.182
16814SOL    HW152275   3.712  12.361   1.270
16814SOL    HW252276   3.812  12.288   1.183
16815SOL     OW52277  10.128  12.668  13.649
16815SOL    HW152278  10.133  12.574  13.630
16815SOL    HW252279  10.128  12.710  13.563
16816SOL     OW52280  12.713   7.664   9.224
16816SOL    HW152281  12.774   7.735   9.242
16816SOL    HW252282  12.684   7.680   9.134
16817SOL     OW52283   0.064  10.280   7.760
16817SOL    HW152284   0.121  10.333   7.816
16817SOL    HW252285  14.856  10.290   7.798
16818SOL     OW52286  10.129  13.454   7.243
16818SOL    HW152287  10.135  13.489   7.154
16818SOL    HW252288  10.043  13.482   7.274
16819SOL     OW52289   2.864   6.812  12.054
16819SOL    HW152290   2.816   6.804  12.136
16819SOL    HW252291   2.900   6.724  12.039
16820SOL     OW52292   6.449  10.178   3.318
16820SOL    HW152293   6.540  10.202   3.334
16820SOL    HW252294   6.400  10.259   3.331
16821SOL     OW52295   6.658   4.475  10.999
16821SOL    HW152296   6.625   4.390  11.028
16821SOL    HW252297   6.606   4.539  11.048
16822SOL     OW52298  11.191   3.369  14.116
16822SOL    HW152299  11.218   3.286  14.157
16822SOL    HW252300  11.255   3.432  14.147
16823SOL     OW52301   9.008  14.548   5.663
16823SOL    HW152302   8.947  14.483   5.699
16823SOL    HW252303   9.094  14.511   5.679
16824SOL     OW52304   3.885   9.545   5.647
16824SOL    HW152305   3.869   9.500   5.730
16824SOL    HW252306   3.958   9.604   5.667
16825SOL     OW52307   9.125   2.520   8.852
16825SOL    HW152308   9.124   2.601   8.903
16825SOL    HW252309   9.218   2.498   8.844
16826SOL     OW52310   9.715  10.577  14.482
16826SOL    HW152311   9.654  10.544  14.416
16826SOL    HW252312   9.708  10.515  14.554
16827SOL     OW52313   8.464   3.227   3.675
16827SOL    HW152314   8.512   3.157   3.720
16827SOL    HW252315   8.514   3.306   3.694
16828SOL     OW52316  12.898  12.735   6.019
16828SOL    HW152317  12.881  12.736   5.925
16828SOL    HW252318  12.963  12.666   6.031
16829SOL     OW52319   9.042  10.678   3.275
16829SOL    HW152320   8.976  10.745   3.258
16829SOL    HW252321   9.120  10.726   3.299
16830SOL     OW52322  10.113   7.707  12.732
16830SOL    HW152323  10.078   7.701  12.643
16830SOL    HW252324  10.207   7.694  12.721
16831SOL     OW52325  14.224   1.209   2.362
16831SOL    HW152326  14.178   1.275   2.413
16831SOL    HW252327  14.210   1.128   2.410
16832SOL     OW52328   9.303   7.802   3.692
16832SOL    HW152329   9.393   7.770   3.694
16832SOL    HW252330   9.254   7.734   3.647
16833SOL     OW52331   7.470   7.505   9.006
16833SOL    HW152332   7.550   7.504   9.059
16833SOL    HW252333   7.476   7.587   8.956
16834SOL     OW52334   2.362   1.661   4.914
16834SOL    HW152335   2.410   1.604   4.974
16834SOL    HW252336   2.429   1.696   4.856
16835SOL     OW52337  13.561  12.598   6.308
16835SOL    HW152338  13.620  12.602   6.233
16835SOL    HW252339  13.610  12.637   6.380
16836SOL     OW52340  10.639   1.176   1.794
16836SOL    HW152341  10.692   1.245   1.833
16836SOL    HW252342  10.572   1.222   1.743
16837SOL     OW52343   0.175   1.856  14.706
16837SOL    HW152344   0.256   1.876  14.659
16837SOL    HW252345   0.156   1.934  14.756
16838SOL     OW52346  12.884   5.076   8.480
16838SOL    HW152347  12.945   5.006   8.500
16838SOL    HW252348  12.818   5.072   8.550
16839SOL     OW52349   9.007   2.116   8.451
16839SOL    HW152350   9.017   2.211   8.443
16839SOL    HW252351   8.982   2.087   8.363
16840SOL     OW52352   6.067   8.966   9.953
16840SOL    HW152353   6.032   8.877   9.948
16840SOL    HW252354   5.995   9.022   9.925
16841SOL     OW52355   7.023  10.243   3.305
16841SOL    HW152356   7.118  10.235   3.312
16841SOL    HW252357   6.990  10.189   3.378
16842SOL     OW52358   5.275   6.916  14.733
16842SOL    HW152359   5.255   6.930  14.640
16842SOL    HW252360   5.301   6.824  14.739
16843SOL     OW52361   4.925   1.748  14.660
16843SOL    HW152362   4.952   1.659  14.683
16843SOL    HW252363   4.850   1.765  14.717
16844SOL     OW52364   4.254   9.216   1.453
16844SOL    HW152365   4.293   9.195   1.538
16844SOL    HW252366   4.282   9.145   1.395
16845SOL     OW52367   8.118   0.009   9.370
16845SOL    HW152368   8.041   0.056   9.401
16845SOL    HW252369   8.186   0.076   9.364
16846SOL     OW52370   8.797  10.620   0.848
16846SOL    HW152371   8.824  10.608   0.757
16846SOL    HW252372   8.875  10.599   0.900
16847SOL     OW52373   7.533   2.491   1.900
16847SOL    HW152374   7.577   2.436   1.965
16847SOL    HW252375   7.440   2.477   1.916
16848SOL     OW52376   2.220   2.534  14.622
16848SOL    HW152377   2.129   2.506  14.629
16848SOL    HW252378   2.219   2.627  14.647
16849SOL     OW52379   2.504   9.996   0.507
16849SOL    HW152380   2.443   9.955   0.568
16849SOL    HW252381   2.498  10.090   0.527
16850SOL     OW52382  12.928   4.274   2.804
16850SOL    HW152383  12.848   4.253   2.755
16850SOL    HW252384  12.899   4.334   2.872
16851SOL     OW52385   1.502   8.408  12.171
16851SOL    HW152386   1.598   8.409  12.176
16851SOL    HW252387   1.481   8.316  12.153
16852SOL     OW52388   1.258  13.138  12.639
16852SOL    HW152389   1.249  13.212  12.698
16852SOL    HW252390   1.306  13.073  12.689
16853SOL     OW52391  10.349   2.617  14.114
16853SOL    HW152392  10.431   2.647  14.153
16853SOL    HW252393  10.288   2.611  14.187
16854SOL     OW52394   9.536   7.732  12.267
16854SOL    HW152395   9.529   7.647  12.311
16854SOL    HW252396   9.445   7.757  12.248
16855SOL     OW52397   6.025  13.519   3.047
16855SOL    HW152398   6.033  13.476   2.962
16855SOL    HW252399   6.084  13.470   3.104
16856SOL     OW52400  12.476   9.649   3.731
16856SOL    HW152401  12.533   9.594   3.677
16856SOL    HW252402  12.523   9.732   3.738
16857SOL     OW52403  12.350   5.718   7.691
16857SOL    HW152404  12.309   5.658   7.753
16857SOL    HW252405  12.333   5.678   7.605
16858SOL     OW52406  14.652  11.857   1.928
16858SOL    HW152407  14.686  11.771   1.902
16858SOL    HW252408  14.669  11.913   1.852
16859SOL     OW52409   0.405   0.500   0.216
16859SOL    HW152410   0.479   0.446   0.186
16859SOL    HW252411   0.418   0.584   0.171
16860SOL     OW52412  11.153   9.742   5.025
16860SOL    HW152413  11.233   9.791   5.004
16860SOL    HW252414  11.083   9.806   5.017
16861SOL     OW52415  12.176   0.436   0.045
16861SOL    HW152416  12.231   0.453  14.848
16861SOL    HW252417  12.145   0.346   0.033
16862SOL     OW52418   7.248   8.894  11.021
16862SOL    HW152419   7.186   8.952  11.065
16862SOL    HW252420   7.294   8.950  10.959
16863SOL     OW52421   3.740   6.484   3.818
16863SOL    HW152422   3.713   6.393   3.809
16863SOL    HW252423   3.747   6.498   3.913
16864SOL     OW52424   0.006   6.328   8.678
16864SOL    HW152425  14.865   6.369   8.762
16864SOL    HW252426  14.801   6.325   8.632
16865SOL     OW52427   1.588  12.168   4.355
16865SOL    HW152428   1.573  12.191   4.264
16865SOL    HW252429   1.535  12.230   4.405
16866SOL     OW52430   7.392  10.448   1.062
16866SOL    HW152431   7.339  10.527   1.065
16866SOL    HW252432   7.366  10.405   0.980
16867SOL     OW52433   5.656   5.650   7.799
16867SOL    HW152434   5.658   5.554   7.791
16867SOL    HW252435   5.568   5.674   7.770
16868SOL     OW52436   1.300   2.284   5.589
16868SOL    HW152437   1.229   2.307   5.650
16868SOL    HW252438   1.365   2.240   5.643
16869SOL     OW52439   0.441   2.085  10.621
16869SOL    HW152440   0.362   2.036  10.599
16869SOL    HW252441   0.475   2.114  10.536
16870SOL     OW52442  10.044   1.876  10.982
16870SOL    HW152443  10.065   1.905  10.894
16870SOL    HW252444  10.042   1.957  11.034
16871SOL     OW52445  12.257  14.499   7.260
16871SOL    HW152446  12.280  14.447   7.183
16871SOL    HW252447  12.170  14.533   7.242
16872SOL     OW52448   8.463  13.320   0.837
16872SOL    HW152449   8.428  13.338   0.924
16872SOL    HW252450   8.554  13.348   0.842
16873SOL     OW52451  10.157  10.218   5.317
16873SOL    HW152452  10.244  10.256   5.309
16873SOL    HW252453  10.146  10.168   5.235
16874SOL     OW52454   1.671  10.382   1.911
16874SOL    HW152455   1.681  10.431   1.829
16874SOL    HW252456   1.761  10.371   1.943
16875SOL     OW52457  11.594   9.731   2.694
16875SOL    HW152458  11.568   9.744   2.786
16875SOL    HW252459  11.593   9.818   2.656
16876SOL     OW52460  12.254   2.832  10.080
16876SOL    HW152461  12.172   2.879  10.074
16876SOL    HW252462  12.285   2.849  10.169
16877SOL     OW52463   3.108  12.508  10.307
16877SOL    HW152464   3.027  12.543  10.342
16877SOL    HW252465   3.101  12.413  10.322
16878SOL     OW52466   9.539  14.402   6.485
16878SOL    HW152467   9.532  14.352   6.403
16878SOL    HW252468   9.583  14.483   6.459
16879SOL     OW52469  12.876  10.797   0.605
16879SOL    HW152470  12.841  10.780   0.693
16879SOL    HW252471  12.897  10.890   0.605
16880SOL     OW52472   0.896  13.887   6.912
16880SOL    HW152473   0.812  13.842   6.918
16880SOL    HW252474   0.915  13.916   7.001
16881SOL     OW52475   5.270   8.469  14.011
16881SOL    HW152476   5.260   8.550  14.062
16881SOL    HW252477   5.204   8.476  13.942
16882SOL     OW52478   7.865  13.899  13.362
16882SOL    HW152479   7.838  13.879  13.272
16882SOL    HW252480   7.856  13.816  13.408
16883SOL     OW52481   4.421   5.163  11.637
16883SOL    HW152482   4.511   5.143  11.611
16883SOL    HW252483   4.426   5.249  11.678
16884SOL     OW52484   3.303   2.918  10.916
16884SOL    HW152485   3.244   2.991  10.897
16884SOL    HW252486   3.387   2.945  10.878
16885SOL     OW52487  12.210   5.850  10.025
16885SOL    HW152488  12.204   5.770   9.974
16885SOL    HW252489  12.205   5.921   9.960
16886SOL     OW52490   7.588   0.447   9.751
16886SOL    HW152491   7.581   0.396   9.670
16886SOL    HW252492   7.540   0.395   9.816
16887SOL     OW52493   3.147  14.312   7.721
16887SOL    HW152494   3.210  14.373   7.683
16887SOL    HW252495   3.176  14.225   7.692
16888SOL     OW52496   9.756  12.152   9.620
16888SOL    HW152497   9.741  12.183   9.709
16888SOL    HW252498   9.842  12.187   9.596
16889SOL     OW52499   9.962  13.722  11.309
16889SOL    HW152500   9.903  13.783  11.352
16889SOL    HW252501   9.907  13.674  11.247
16890SOL     OW52502   9.410  13.700  13.525
16890SOL    HW152503   9.464  13.755  13.581
16890SOL    HW252504   9.383  13.627  13.581
16891SOL     OW52505  14.280  13.058   6.873
16891SOL    HW152506  14.206  13.099   6.918
16891SOL    HW252507  14.240  12.991   6.817
16892SOL     OW52508   7.424   3.621  13.755
16892SOL    HW152509   7.428   3.610  13.660
16892SOL    HW252510   7.421   3.715  13.769
16893SOL     OW52511   4.865  12.162  14.314
16893SOL    HW152512   4.960  12.148  14.323
16893SOL    HW252513   4.831  12.145  14.402
16894SOL     OW52514  12.802   2.952   9.881
16894SOL    HW152515  12.725   2.900   9.904
16894SOL    HW252516  12.800   3.027   9.941
16895SOL     OW52517   9.949  10.447   1.402
16895SOL    HW152518   9.900  10.472   1.481
16895SOL    HW252519   9.985  10.529   1.369
16896SOL     OW52520  12.670   3.483   8.832
16896SOL    HW152521  12.724   3.463   8.909
16896SOL    HW252522  12.634   3.569   8.850
16897SOL     OW52523  11.374  13.074   8.628
16897SOL    HW152524  11.316  13.150   8.618
16897SOL    HW252525  11.461  13.112   8.636
16898SOL     OW52526   4.317  13.025  11.265
16898SOL    HW152527   4.289  12.961  11.199
16898SOL    HW252528   4.396  12.987  11.303
16899SOL     OW52529   5.429   7.223  10.122
16899SOL    HW152530   5.453   7.210  10.214
16899SOL    HW252531   5.431   7.135  10.084
16900SOL     OW52532   4.337   1.058   9.098
16900SOL    HW152533   4.309   1.110   9.174
16900SOL    HW252534   4.361   0.973   9.136
16901SOL     OW52535   2.558   2.112   7.687
16901SOL    HW152536   2.548   2.197   7.731
16901SOL    HW252537   2.645   2.116   7.646
16902SOL     OW52538  13.258   4.914   8.314
16902SOL    HW152539  13.304   4.893   8.396
16902SOL    HW252540  13.167   4.892   8.332
16903SOL     OW52541  13.963   9.900  11.456
16903SOL    HW152542  13.940   9.971  11.516
16903SOL    HW252543  13.983   9.826  11.512
16904SOL     OW52544   1.703   4.566  10.910
16904SOL    HW152545   1.647   4.640  10.931
16904SOL    HW252546   1.731   4.532  10.995
16905SOL     OW52547   3.695  13.920  10.143
16905SOL    HW152548   3.636  13.972  10.089
16905SOL    HW252549   3.666  13.937  10.233
16906SOL     OW52550  14.061   7.045  10.254
16906SOL    HW152551  14.007   7.018  10.328
16906SOL    HW252552  14.034   7.135  10.237
16907SOL     OW52553   5.441   6.175   1.402
16907SOL    HW152554   5.463   6.194   1.311
16907SOL    HW252555   5.509   6.113   1.430
16908SOL     OW52556   7.883   0.341  12.976
16908SOL    HW152557   7.913   0.383  13.056
16908SOL    HW252558   7.809   0.287  13.004
16909SOL     OW52559   9.663   1.529   5.754
16909SOL    HW152560   9.619   1.530   5.668
16909SOL    HW252561   9.653   1.439   5.784
16910SOL     OW52562   4.802  10.844  10.428
16910SOL    HW152563   4.735  10.871  10.490
16910SOL    HW252564   4.856  10.922  10.413
16911SOL     OW52565  14.530   8.048  11.001
16911SOL    HW152566  14.459   8.027  10.942
16911SOL    HW252567  14.547   7.967  11.048
16912SOL     OW52568   7.906  13.731   6.628
16912SOL    HW152569   7.865  13.654   6.666
16912SOL    HW252570   7.902  13.797   6.697
16913SOL     OW52571  10.598   1.803   4.769
16913SOL    HW152572  10.670   1.742   4.787
16913SOL    HW252573  10.640   1.888   4.763
16914SOL     OW52574  10.458   2.878   8.610
16914SOL    HW152575  10.368   2.912   8.606
16914SOL    HW252576  10.482   2.866   8.518
16915SOL     OW52577   9.821   2.141   3.747
16915SOL    HW152578   9.780   2.056   3.729
16915SOL    HW252579   9.837   2.140   3.841
16916SOL     OW52580   7.639   9.490   2.273
16916SOL    HW152581   7.555   9.443   2.272
16916SOL    HW252582   7.635   9.543   2.353
16917SOL     OW52583   8.342   3.803   2.387
16917SOL    HW152584   8.408   3.822   2.454
16917SOL    HW252585   8.380   3.835   2.305
16918SOL     OW52586   5.863   5.669   5.805
16918SOL    HW152587   5.816   5.588   5.824
16918SOL    HW252588   5.794   5.736   5.803
16919SOL     OW52589  11.017  12.180   5.490
16919SOL    HW152590  11.041  12.247   5.555
16919SOL    HW252591  10.969  12.228   5.423
16920SOL     OW52592   2.846   8.269  10.519
16920SOL    HW152593   2.865   8.208  10.591
16920SOL    HW252594   2.922   8.261  10.461
16921SOL     OW52595   2.773   2.487   2.158
16921SOL    HW152596   2.814   2.558   2.208
16921SOL    HW252597   2.759   2.524   2.071
16922SOL     OW52598   4.052  11.954   2.518
16922SOL    HW152599   4.016  12.032   2.476
16922SOL    HW252600   4.022  11.881   2.464
16923SOL     OW52601   5.474  10.592  13.222
16923SOL    HW152602   5.383  10.590  13.254
16923SOL    HW252603   5.483  10.678  13.181
16924SOL     OW52604   4.148   4.390   5.344
16924SOL    HW152605   4.184   4.466   5.298
16924SOL    HW252606   4.053   4.396   5.329
16925SOL     OW52607   1.995   9.802   4.801
16925SOL    HW152608   1.994   9.864   4.728
16925SOL    HW252609   1.993   9.857   4.880
16926SOL     OW52610  12.960   0.647   4.859
16926SOL    HW152611  13.044   0.643   4.906
16926SOL    HW252612  12.907   0.708   4.910
16927SOL     OW52613   0.493   9.171   9.639
16927SOL    HW152614   0.530   9.259   9.650
16927SOL    HW252615   0.465   9.169   9.547
16928SOL     OW52616   8.020   7.986   5.147
16928SOL    HW152617   8.096   7.944   5.189
16928SOL    HW252618   8.058   8.056   5.094
16929SOL     OW52619   9.632  11.427   0.829
16929SOL    HW152620   9.554  11.472   0.861
16929SOL    HW252621   9.664  11.483   0.757
16930SOL     OW52622   2.724   9.582   7.999
16930SOL    HW152623   2.713   9.677   7.988
16930SOL    HW252624   2.766   9.573   8.085
16931SOL     OW52625   1.832  10.447  14.265
16931SOL    HW152626   1.863  10.357  14.278
16931SOL    HW252627   1.790  10.445  14.179
16932SOL     OW52628   3.665  13.878   0.691
16932SOL    HW152629   3.757  13.869   0.667
16932SOL    HW252630   3.643  13.795   0.733
16933SOL     OW52631   0.368   6.879  12.304
16933SOL    HW152632   0.310   6.949  12.273
16933SOL    HW252633   0.368   6.814  12.234
16934SOL     OW52634   8.010   7.311  11.775
16934SOL    HW152635   7.970   7.360  11.847
16934SOL    HW252636   7.939   7.255  11.742
16935SOL     OW52637   0.471   6.190   4.459
16935SOL    HW152638   0.476   6.176   4.364
16935SOL    HW252639   0.467   6.285   4.469
16936SOL     OW52640   5.225   7.153  12.900
16936SOL    HW152641   5.296   7.134  12.961
16936SOL    HW252642   5.260   7.222  12.843
16937SOL     OW52643   7.321  13.593   8.956
16937SOL    HW152644   7.292  13.526   9.018
16937SOL    HW252645   7.354  13.664   9.011
16938SOL     OW52646   3.635   8.898   9.459
16938SOL    HW152647   3.688   8.953   9.516
16938SOL    HW252648   3.699   8.859   9.398
16939SOL     OW52649   2.090  10.871   8.138
16939SOL    HW152650   2.062  10.788   8.100
16939SOL    HW252651   2.109  10.851   8.229
16940SOL     OW52652  13.875   2.309  11.405
16940SOL    HW152653  13.884   2.227  11.356
16940SOL    HW252654  13.814   2.361  11.353
16941SOL     OW52655   0.073   9.748   7.771
16941SOL    HW152656   0.005   9.709   7.827
16941SOL    HW252657   0.068   9.842   7.789
16942SOL     OW52658  11.347   7.600  13.091
16942SOL    HW152659  11.276   7.577  13.031
16942SOL    HW252660  11.314   7.676  13.140
16943SOL     OW52661   5.200   4.111  13.799
16943SOL    HW152662   5.245   4.059  13.734
16943SOL    HW252663   5.127   4.151  13.752
16944SOL     OW52664   2.186  12.294   5.986
16944SOL    HW152665   2.097  12.292   6.022
16944SOL    HW252666   2.204  12.203   5.961
16945SOL     OW52667   1.352   9.639   5.651
16945SOL    HW152668   1.399   9.680   5.724
16945SOL    HW252669   1.397   9.555   5.637
16946SOL     OW52670  11.675   5.554   5.382
16946SOL    HW152671  11.607   5.582   5.443
16946SOL    HW252672  11.637   5.568   5.295
16947SOL     OW52673   4.768   9.369  14.670
16947SOL    HW152674   4.822   9.430  14.720
16947SOL    HW252675   4.821   9.290  14.662
16948SOL     OW52676   7.194   5.821   6.341
16948SOL    HW152677   7.239   5.881   6.282
16948SOL    HW252678   7.102   5.825   6.313
16949SOL     OW52679  11.096   3.498   7.281
16949SOL    HW152680  11.075   3.406   7.272
16949SOL    HW252681  11.159   3.515   7.211
16950SOL     OW52682   2.356   3.755   9.192
16950SOL    HW152683   2.295   3.699   9.242
16950SOL    HW252684   2.442   3.715   9.207
16951SOL     OW52685   0.785   5.729  11.068
16951SOL    HW152686   0.840   5.718  11.146
16951SOL    HW252687   0.724   5.798  11.091
16952SOL     OW52688   1.768   6.715  11.738
16952SOL    HW152689   1.698   6.770  11.772
16952SOL    HW252690   1.787   6.654  11.810
16953SOL     OW52691  12.889   1.108  13.002
16953SOL    HW152692  12.820   1.051  13.036
16953SOL    HW252693  12.888   1.095  12.908
16954SOL     OW52694  12.091   0.009  12.747
16954SOL    HW152695  12.149   0.024  12.822
16954SOL    HW252696  12.004   0.003  12.786
16955SOL     OW52697   3.391   2.013  13.946
16955SOL    HW152698   3.479   2.047  13.960
16955SOL    HW252699   3.333   2.080  13.983
16956SOL     OW52700   7.587   9.857  14.548
16956SOL    HW152701   7.593   9.765  14.522
16956SOL    HW252702   7.597   9.856  14.643
16957SOL     OW52703   6.764  12.898  10.022
16957SOL    HW152704   6.846  12.892  10.071
16957SOL    HW252705   6.785  12.951   9.946
16958SOL     OW52706   3.224  12.336  12.872
16958SOL    HW152707   3.253  12.362  12.959
16958SOL    HW252708   3.299  12.292  12.833
16959SOL     OW52709   8.972   7.635  14.617
16959SOL    HW152710   9.004   7.617  14.529
16959SOL    HW252711   8.944   7.550  14.651
16960SOL     OW52712   0.470  14.050   6.190
16960SOL    HW152713   0.463  14.139   6.156
16960SOL    HW252714   0.390  14.007   6.162
16961SOL     OW52715  11.092   8.396   1.261
16961SOL    HW152716  11.021   8.335   1.278
16961SOL    HW252717  11.103   8.395   1.166
16962SOL     OW52718   7.921   9.276   4.504
16962SOL    HW152719   7.908   9.295   4.597
16962SOL    HW252720   7.842   9.228   4.479
16963SOL     OW52721  11.269   3.223  12.936
16963SOL    HW152722  11.289   3.179  13.019
16963SOL    HW252723  11.354   3.241  12.896
16964SOL     OW52724   2.542   3.168   2.580
16964SOL    HW152725   2.560   3.112   2.505
16964SOL    HW252726   2.600   3.136   2.649
16965SOL     OW52727   7.481  13.970  14.339
16965SOL    HW152728   7.553  13.948  14.280
16965SOL    HW252729   7.510  14.049  14.384
16966SOL     OW52730   5.835  10.428  13.054
16966SOL    HW152731   5.863  10.394  12.969
16966SOL    HW252732   5.892  10.503  13.070
16967SOL     OW52733  13.032  14.322   0.354
16967SOL    HW152734  13.031  14.267   0.432
16967SOL    HW252735  13.075  14.403   0.382
16968SOL     OW52736   3.026   4.997   9.017
16968SOL    HW152737   3.066   4.963   8.937
16968SOL    HW252738   3.100   5.025   9.071
16969SOL     OW52739   2.447   7.813   3.075
16969SOL    HW152740   2.496   7.808   3.157
16969SOL    HW252741   2.380   7.745   3.083
16970SOL     OW52742  11.337   9.672  11.403
16970SOL    HW152743  11.375   9.586  11.423
16970SOL    HW252744  11.248   9.652  11.374
16971SOL     OW52745  11.676   3.937   9.325
16971SOL    HW152746  11.767   3.924   9.350
16971SOL    HW252747  11.649   4.015   9.373
16972SOL     OW52748  13.617  14.675   5.299
16972SOL    HW152749  13.594  14.765   5.324
16972SOL    HW252750  13.593  14.622   5.375
16973SOL     OW52751   0.519   8.422   0.045
16973SOL    HW152752   0.593   8.482   0.030
16973SOL    HW252753   0.447   8.461  14.876
16974SOL     OW52754   8.525   3.890   2.170
16974SOL    HW152755   8.578   3.879   2.248
16974SOL    HW252756   8.587   3.915   2.102
16975SOL     OW52757   1.522   1.934   0.895
16975SOL    HW152758   1.486   2.018   0.921
16975SOL    HW252759   1.615   1.940   0.917
16976SOL     OW52760   3.540  12.182   1.552
16976SOL    HW152761   3.515  12.144   1.636
16976SOL    HW252762   3.465  12.236   1.527
16977SOL     OW52763   9.512  13.855  10.885
16977SOL    HW152764   9.426  13.894  10.903
16977SOL    HW252765   9.567  13.929  10.860
16978SOL     OW52766   4.194  14.463   0.787
16978SOL    HW152767   4.233  14.484   0.872
16978SOL    HW252768   4.118  14.520   0.781
16979SOL     OW52769   6.288   9.639  14.290
16979SOL    HW152770   6.212   9.686  14.256
16979SOL    HW252771   6.348   9.634  14.215
16980SOL     OW52772   1.653  11.925   1.298
16980SOL    HW152773   1.692  11.890   1.219
16980SOL    HW252774   1.585  11.862   1.322
16981SOL     OW52775   3.187  14.397  13.584
16981SOL    HW152776   3.248  14.413  13.657
16981SOL    HW252777   3.102  14.390  13.627
16982SOL     OW52778   5.694   5.938   9.916
16982SOL    HW152779   5.719   5.869   9.854
16982SOL    HW252780   5.744   6.014   9.887
16983SOL     OW52781  12.138   2.297   0.957
16983SOL    HW152782  12.051   2.312   0.993
16983SOL    HW252783  12.187   2.377   0.978
16984SOL     OW52784   3.586   6.838  10.987
16984SOL    HW152785   3.496   6.815  10.962
16984SOL    HW252786   3.640   6.769  10.948
16985SOL     OW52787   5.532  14.628   8.509
16985SOL    HW152788   5.616  14.595   8.541
16985SOL    HW252789   5.484  14.549   8.483
16986SOL     OW52790  11.783   7.535   5.528
16986SOL    HW152791  11.867   7.517   5.485
16986SOL    HW252792  11.717   7.518   5.461
16987SOL     OW52793   3.504  10.068  14.432
16987SOL    HW152794   3.452  10.006  14.381
16987SOL    HW252795   3.587  10.022  14.449
16988SOL     OW52796   0.339   6.280   7.225
16988SOL    HW152797   0.405   6.237   7.171
16988SOL    HW252798   0.267   6.298   7.164
16989SOL     OW52799   7.473   3.632   3.288
16989SOL    HW152800   7.441   3.545   3.264
16989SOL    HW252801   7.559   3.638   3.247
16990SOL     OW52802   5.618  10.438  13.395
16990SOL    HW152803   5.713  10.447  13.384
16990SOL    HW252804   5.581  10.512  13.347
16991SOL     OW52805   3.866  11.424   4.534
16991SOL    HW152806   3.832  11.487   4.598
16991SOL    HW252807   3.912  11.359   4.587
16992SOL     OW52808  12.754   9.673  10.606
16992SOL    HW152809  12.736   9.580  10.622
16992SOL    HW252810  12.765   9.679  10.511
16993SOL     OW52811   5.089  11.872  12.564
16993SOL    HW152812   5.138  11.939  12.518
16993SOL    HW252813   5.074  11.909  12.652
16994SOL     OW52814   1.827   8.505  11.062
16994SOL    HW152815   1.781   8.460  11.133
16994SOL    HW252816   1.790   8.467  10.982
16995SOL     OW52817   7.704   1.266  11.813
16995SOL    HW152818   7.784   1.317  11.798
16995SOL    HW252819   7.679   1.285  11.903
16996SOL     OW52820   2.037   6.089  13.674
16996SOL    HW152821   2.059   6.034  13.749
16996SOL    HW252822   2.093   6.056  13.603
16997SOL     OW52823   6.150   7.784  12.258
16997SOL    HW152824   6.241   7.753  12.252
16997SOL    HW252825   6.159   7.879  12.270
16998SOL     OW52826   5.163   3.608   0.009
16998SOL    HW152827   5.197   3.530   0.053
16998SOL    HW252828   5.234   3.672   0.016
16999SOL     OW52829   1.655   1.094   0.476
16999SOL    HW152830   1.645   1.002   0.450
16999SOL    HW252831   1.566   1.128   0.480
17000SOL     OW52832  10.289  14.648   2.014
17000SOL    HW152833  10.240  14.698   2.079
17000SOL    HW252834  10.343  14.714   1.970
17001SOL     OW52835  12.316   2.109   7.509
17001SOL    HW152836  12.278   2.176   7.452
17001SOL    HW252837  12.262   2.031   7.493
17002SOL     OW52838   3.041  12.555  14.160
17002SOL    HW152839   3.055  12.545  14.066
17002SOL    HW252840   3.108  12.617  14.188
17003SOL     OW52841   7.402   6.762  14.541
17003SOL    HW152842   7.458   6.749  14.465
17003SOL    HW252843   7.459   6.803  14.607
17004SOL     OW52844   9.944   4.195   3.442
17004SOL    HW152845  10.009   4.221   3.377
17004SOL    HW252846   9.929   4.102   3.425
17005SOL     OW52847   2.719   8.977  13.901
17005SOL    HW152848   2.786   8.954  13.966
17005SOL    HW252849   2.662   9.039  13.947
17006SOL     OW52850   5.081   7.990   3.010
17006SOL    HW152851   5.131   7.917   2.974
17006SOL    HW252852   5.026   8.020   2.938
17007SOL     OW52853   2.888   5.593   5.970
17007SOL    HW152854   2.929   5.552   5.894
17007SOL    HW252855   2.864   5.680   5.939
17008SOL     OW52856   2.295  12.439   0.975
17008SOL    HW152857   2.317  12.394   0.893
17008SOL    HW252858   2.366  12.502   0.988
17009SOL     OW52859   4.663   9.844  11.114
17009SOL    HW152860   4.711   9.768  11.081
17009SOL    HW252861   4.653   9.901  11.037
17010SOL     OW52862  13.428  14.201   7.359
17010SOL    HW152863  13.386  14.263   7.298
17010SOL    HW252864  13.356  14.169   7.413
17011SOL     OW52865   8.738  14.333  10.385
17011SOL    HW152866   8.756  14.358  10.294
17011SOL    HW252867   8.746  14.238  10.386
17012SOL     OW52868   5.656  13.823  12.851
17012SOL    HW152869   5.643  13.734  12.818
17012SOL    HW252870   5.569  13.851  12.880
17013SOL     OW52871   8.287   7.156  13.570
17013SOL    HW152872   8.365   7.137  13.621
17013SOL    HW252873   8.298   7.247  13.542
17014SOL     OW52874  12.391   0.882  12.120
17014SOL    HW152875  12.456   0.900  12.052
17014SOL    HW252876  12.307   0.887  12.074
17015SOL     OW52877   3.108   7.391   7.802
17015SOL    HW152878   3.058   7.331   7.746
17015SOL    HW252879   3.134   7.462   7.744
17016SOL     OW52880   2.883  14.580   8.552
17016SOL    HW152881   2.921  14.497   8.523
17016SOL    HW252882   2.788  14.566   8.546
17017SOL     OW52883   0.209  14.647   5.910
17017SOL    HW152884   0.149  14.682   5.976
17017SOL    HW252885   0.164  14.569   5.876
17018SOL     OW52886  14.452   3.232  12.878
17018SOL    HW152887  14.436   3.227  12.783
17018SOL    HW252888  14.542   3.200  12.888
17019SOL     OW52889   1.546   4.781  12.016
17019SOL    HW152890   1.616   4.729  11.978
17019SOL    HW252891   1.471   4.722  12.019
17020SOL     OW52892   1.764   3.221   7.124
17020SOL    HW152893   1.711   3.173   7.060
17020SOL    HW252894   1.854   3.198   7.103
17021SOL     OW52895   4.565   2.510   1.715
17021SOL    HW152896   4.610   2.533   1.634
17021SOL    HW252897   4.625   2.451   1.761
17022SOL     OW52898  13.351  14.755   1.172
17022SOL    HW152899  13.316  14.671   1.200
17022SOL    HW252900  13.404  14.786   1.246
17023SOL     OW52901   1.051   1.525   3.055
17023SOL    HW152902   1.061   1.497   2.964
17023SOL    HW252903   1.014   1.613   3.048
17024SOL     OW52904   6.453   0.308  12.373
17024SOL    HW152905   6.429   0.312  12.466
17024SOL    HW252906   6.512   0.382  12.361
17025SOL     OW52907   0.752  11.052  10.177
17025SOL    HW152908   0.768  11.133  10.128
17025SOL    HW252909   0.672  11.069  10.226
17026SOL     OW52910   2.775   3.852  11.827
17026SOL    HW152911   2.847   3.876  11.886
17026SOL    HW252912   2.697   3.854  11.883
17027SOL     OW52913   2.820   4.974  11.579
17027SOL    HW152914   2.839   5.060  11.542
17027SOL    HW252915   2.727   4.960  11.561
17028SOL     OW52916   8.675   3.976   5.954
17028SOL    HW152917   8.609   4.030   5.911
17028SOL    HW252918   8.703   4.029   6.029
17029SOL     OW52919   1.010   1.672   8.468
17029SOL    HW152920   1.057   1.603   8.516
17029SOL    HW252921   0.922   1.637   8.456
17030SOL     OW52922  14.786   0.294  11.061
17030SOL    HW152923  14.769   0.219  11.003
17030SOL    HW252924  14.810   0.365  11.002
17031SOL     OW52925  11.410   2.316   4.849
17031SOL    HW152926  11.367   2.297   4.766
17031SOL    HW252927  11.410   2.412   4.855
17032SOL     OW52928  13.487   5.186   9.623
17032SOL    HW152929  13.392   5.200   9.626
17032SOL    HW252930  13.524   5.274   9.617
17033SOL     OW52931  10.628  10.789  13.436
17033SOL    HW152932  10.605  10.712  13.385
17033SOL    HW252933  10.723  10.786  13.444
17034SOL     OW52934   1.683  14.826  10.148
17034SOL    HW152935   1.604   0.002  10.147
17034SOL    HW252936   1.714  14.827  10.057
17035SOL     OW52937  14.605   2.126  10.213
17035SOL    HW152938  14.630   2.034  10.220
17035SOL    HW252939  14.667   2.162  10.150
17036SOL     OW52940  14.533   6.822   2.936
17036SOL    HW152941  14.519   6.888   2.869
17036SOL    HW252942  14.451   6.820   2.985
17037SOL     OW52943   9.401  11.869   1.355
17037SOL    HW152944   9.384  11.805   1.286
17037SOL    HW252945   9.328  11.930   1.350
17038SOL     OW52946  12.807   1.730   4.372
17038SOL    HW152947  12.773   1.804   4.421
17038SOL    HW252948  12.868   1.768   4.309
17039SOL     OW52949  13.673   9.336   3.388
17039SOL    HW152950  13.744   9.401   3.389
17039SOL    HW252951  13.610   9.369   3.324
17040SOL     OW52952  10.094  13.896   0.314
17040SOL    HW152953  10.033  13.961   0.280
17040SOL    HW252954  10.171  13.947   0.338
17041SOL     OW52955   2.681   5.336   3.122
17041SOL    HW152956   2.657   5.337   3.215
17041SOL    HW252957   2.758   5.279   3.118
17042SOL     OW52958   7.319  11.725   9.625
17042SOL    HW152959   7.360  11.786   9.687
17042SOL    HW252960   7.228  11.719   9.654
17043SOL     OW52961  13.449  13.271  12.199
17043SOL    HW152962  13.470  13.222  12.120
17043SOL    HW252963  13.528  13.324  12.216
17044SOL     OW52964   7.488   4.866   1.413
17044SOL    HW152965   7.500   4.944   1.467
17044SOL    HW252966   7.494   4.793   1.475
17045SOL     OW52967   9.076   1.815   2.087
17045SOL    HW152968   9.002   1.865   2.055
17045SOL    HW252969   9.045   1.776   2.169
17046SOL     OW52970  14.136   5.469   8.432
17046SOL    HW152971  14.136   5.546   8.488
17046SOL    HW252972  14.044   5.448   8.420
17047SOL     OW52973   8.447   9.807  12.210
17047SOL    HW152974   8.477   9.896  12.191
17047SOL    HW252975   8.360   9.819  12.246
17048SOL     OW52976   9.999  14.464   2.568
17048SOL    HW152977   9.977  14.371   2.564
17048SOL    HW252978   9.944  14.499   2.638
17049SOL     OW52979  12.301  13.386   9.843
17049SOL    HW152980  12.368  13.403   9.910
17049SOL    HW252981  12.317  13.295   9.816
17050SOL     OW52982   7.699   4.781   0.911
17050SOL    HW152983   7.691   4.711   0.976
17050SOL    HW252984   7.741   4.853   0.958
17051SOL     OW52985  12.717   3.805  13.508
17051SOL    HW152986  12.734   3.755  13.587
17051SOL    HW252987  12.784   3.777  13.446
17052SOL     OW52988  10.594   6.955   0.083
17052SOL    HW152989  10.630   7.028   0.034
17052SOL    HW252990  10.641   6.956   0.166
17053SOL     OW52991   1.756   9.668   8.134
17053SOL    HW152992   1.815   9.614   8.188
17053SOL    HW252993   1.806   9.748   8.117
17054SOL     OW52994   9.361  11.598   2.899
17054SOL    HW152995   9.345  11.530   2.833
17054SOL    HW252996   9.365  11.679   2.848
17055SOL     OW52997   8.515   7.206   7.221
17055SOL    HW152998   8.455   7.188   7.148
17055SOL    HW252999   8.597   7.231   7.178
17056SOL     OW53000  11.522   8.538   7.383
17056SOL    HW153001  11.570   8.590   7.447
17056SOL    HW253002  11.521   8.449   7.421
17057SOL     OW53003   2.458   0.178   7.357
17057SOL    HW153004   2.535   0.231   7.333
17057SOL    HW253005   2.433   0.134   7.276
17058SOL     OW53006   6.475  11.985   5.101
17058SOL    HW153007   6.483  11.926   5.026
17058SOL    HW253008   6.553  11.968   5.154
17059SOL     OW53009   7.123   9.381   4.172
17059SOL    HW153010   7.213   9.381   4.138
17059SOL    HW253011   7.134   9.378   4.268
17060SOL     OW53012  14.265   1.480  10.049
17060SOL    HW153013  14.336   1.418  10.059
17060SOL    HW253014  14.204   1.438   9.988
17061SOL     OW53015  12.144   6.062   2.354
17061SOL    HW153016  12.135   6.057   2.449
17061SOL    HW253017  12.235   6.034   2.337
17062SOL     OW53018   0.137  12.388   0.064
17062SOL    HW153019   0.094  12.416  14.862
17062SOL    HW253020   0.145  12.293   0.055
17063SOL     OW53021   1.273  13.683  10.122
17063SOL    HW153022   1.350  13.660  10.070
17063SOL    HW253023   1.228  13.750  10.070
17064SOL     OW53024   1.986   3.487  11.069
17064SOL    HW153025   2.025   3.574  11.082
17064SOL    HW253026   1.972   3.481  10.975
17065SOL     OW53027   3.637   8.410  10.077
17065SOL    HW153028   3.672   8.345  10.138
17065SOL    HW253029   3.548   8.426  10.110
17066SOL     OW53030   1.405  14.252   6.138
17066SOL    HW153031   1.432  14.162   6.117
17066SOL    HW253032   1.486  14.297   6.160
17067SOL     OW53033  11.122   2.130  10.129
17067SOL    HW153034  11.042   2.097  10.089
17067SOL    HW253035  11.092   2.180  10.205
17068SOL     OW53036   0.889   6.085  14.647
17068SOL    HW153037   0.815   6.035  14.681
17068SOL    HW253038   0.938   6.111  14.725
17069SOL     OW53039   8.347   2.765  11.362
17069SOL    HW153040   8.428   2.816  11.369
17069SOL    HW253041   8.298   2.807  11.291
17070SOL     OW53042   2.188  11.295  13.067
17070SOL    HW153043   2.119  11.254  13.015
17070SOL    HW253044   2.216  11.370  13.014
17071SOL     OW53045   1.293   2.972   2.686
17071SOL    HW153046   1.230   2.927   2.743
17071SOL    HW253047   1.363   2.907   2.673
17072SOL     OW53048   5.248  10.030   7.810
17072SOL    HW153049   5.263  10.062   7.721
17072SOL    HW253050   5.227  10.108   7.860
17073SOL     OW53051  12.024   1.080  12.176
17073SOL    HW153052  11.935   1.080  12.140
17073SOL    HW253053  12.079   1.049  12.104
17074SOL     OW53054   4.464  13.571   2.067
17074SOL    HW153055   4.529  13.636   2.042
17074SOL    HW253056   4.392  13.583   2.004
17075SOL     OW53057   0.425   9.150  11.455
17075SOL    HW153058   0.363   9.223  11.447
17075SOL    HW253059   0.439   9.141  11.549
17076SOL     OW53060   2.087   7.840   5.934
17076SOL    HW153061   2.145   7.912   5.961
17076SOL    HW253062   2.146   7.767   5.916
17077SOL     OW53063  11.985  14.536   7.216
17077SOL    HW153064  11.944  14.482   7.149
17077SOL    HW253065  11.921  14.538   7.287
17078SOL     OW53066  12.265   5.819   2.832
17078SOL    HW153067  12.301   5.811   2.920
17078SOL    HW253068  12.264   5.914   2.815
17079SOL     OW53069   0.415   0.529   7.298
17079SOL    HW153070   0.421   0.465   7.369
17079SOL    HW253071   0.368   0.483   7.228
17080SOL     OW53072   5.910   3.425   8.676
17080SOL    HW153073   5.975   3.393   8.613
17080SOL    HW253074   5.932   3.381   8.757
17081SOL     OW53075   2.479  10.679   9.884
17081SOL    HW153076   2.421  10.715   9.817
17081SOL    HW253077   2.453  10.587   9.890
17082SOL     OW53078   8.981   2.805   0.754
17082SOL    HW153079   8.932   2.736   0.711
17082SOL    HW253080   9.005   2.866   0.684
17083SOL     OW53081   3.031   8.941  13.951
17083SOL    HW153082   3.082   8.994  13.890
17083SOL    HW253083   3.097   8.887  13.996
17084SOL     OW53084   2.305   6.694   6.969
17084SOL    HW153085   2.330   6.751   6.897
17084SOL    HW253086   2.326   6.606   6.939
17085SOL     OW53087   9.983   2.543  10.104
17085SOL    HW153088   9.894   2.533  10.070
17085SOL    HW253089   9.985   2.631  10.143
17086SOL     OW53090   1.099  14.219   9.818
17086SOL    HW153091   1.194  14.226   9.805
17086SOL    HW253092   1.088  14.230   9.913
17087SOL     OW53093   0.332   9.898  12.782
17087SOL    HW153094   0.280   9.831  12.739
17087SOL    HW253095   0.379   9.942  12.711
17088SOL     OW53096   3.196   1.715  10.406
17088SOL    HW153097   3.108   1.732  10.373
17088SOL    HW253098   3.205   1.773  10.482
17089SOL     OW53099   6.763  11.047   7.802
17089SOL    HW153100   6.774  11.073   7.711
17089SOL    HW253101   6.847  11.068   7.843
17090SOL     OW53102   9.741   2.058  10.641
17090SOL    HW153103   9.832   2.087  10.642
17090SOL    HW253104   9.708   2.084  10.555
17091SOL     OW53105   2.915   7.164   1.100
17091SOL    HW153106   2.926   7.074   1.070
17091SOL    HW253107   2.949   7.218   1.029
17092SOL     OW53108  10.891  12.814   9.390
17092SOL    HW153109  10.843  12.746   9.437
17092SOL    HW253110  10.844  12.825   9.307
17093SOL     OW53111   2.077   5.627   5.343
17093SOL    HW153112   2.125   5.709   5.355
17093SOL    HW253113   2.122   5.564   5.400
17094SOL     OW53114   7.848   9.340  10.728
17094SOL    HW153115   7.841   9.322  10.634
17094SOL    HW253116   7.873   9.256  10.767
17095SOL     OW53117   5.329  12.667  11.775
17095SOL    HW153118   5.258  12.659  11.840
17095SOL    HW253119   5.286  12.649  11.692
17096SOL     OW53120   6.079   8.433   7.547
17096SOL    HW153121   6.082   8.380   7.467
17096SOL    HW253122   5.987   8.432   7.572
17097SOL     OW53123   8.073  14.787   6.024
17097SOL    HW153124   7.994  14.733   6.032
17097SOL    HW253125   8.120  14.771   6.106
17098SOL     OW53126   6.595  10.443   6.152
17098SOL    HW153127   6.618  10.355   6.123
17098SOL    HW253128   6.499  10.441   6.159
17099SOL     OW53129   2.739   7.660  10.458
17099SOL    HW153130   2.697   7.577  10.482
17099SOL    HW253131   2.712   7.675  10.367
17100SOL     OW53132   8.765   0.483  13.654
17100SOL    HW153133   8.757   0.463  13.561
17100SOL    HW253134   8.819   0.413  13.689
17101SOL     OW53135   3.181   1.260  12.728
17101SOL    HW153136   3.262   1.307  12.750
17101SOL    HW253137   3.209   1.192  12.666
17102SOL     OW53138   2.745   1.737   6.802
17102SOL    HW153139   2.793   1.676   6.857
17102SOL    HW253140   2.794   1.819   6.808
17103SOL     OW53141  14.404  13.548  13.022
17103SOL    HW153142  14.352  13.517  12.947
17103SOL    HW253143  14.480  13.490  13.023
17104SOL     OW53144  12.092   3.856  14.654
17104SOL    HW153145  12.145   3.777  14.669
17104SOL    HW253146  12.014   3.824  14.609
17105SOL     OW53147  10.093  14.464  12.490
17105SOL    HW153148  10.167  14.446  12.433
17105SOL    HW253149  10.132  14.497  12.571
17106SOL     OW53150   8.885   9.636   7.042
17106SOL    HW153151   8.977   9.630   7.017
17106SOL    HW253152   8.876   9.724   7.079
17107SOL     OW53153  13.569  12.532  13.260
17107SOL    HW153154  13.566  12.569  13.172
17107SOL    HW253155  13.640  12.468  13.257
17108SOL     OW53156  12.857   7.946   2.935
17108SOL    HW153157  12.789   7.879   2.926
17108SOL    HW253158  12.938   7.901   2.909
17109SOL     OW53159  14.836   0.492   6.635
17109SOL    HW153160  14.787   0.424   6.680
17109SOL    HW253161   0.037   0.447   6.604
17110SOL     OW53162  11.438   8.356   1.328
17110SOL    HW153163  11.497   8.337   1.401
17110SOL    HW253164  11.377   8.421   1.362
17111SOL     OW53165   8.987   9.776   8.722
17111SOL    HW153166   8.957   9.859   8.757
17111SOL    HW253167   9.059   9.799   8.662
17112SOL     OW53168  10.538   4.106   3.497
17112SOL    HW153169  10.559   4.150   3.415
17112SOL    HW253170  10.443   4.109   3.503
17113SOL     OW53171   8.303   7.460   3.303
17113SOL    HW153172   8.306   7.429   3.213
17113SOL    HW253173   8.349   7.393   3.354
17114SOL     OW53174   4.618  14.336   0.759
17114SOL    HW153175   4.561  14.274   0.714
17114SOL    HW253176   4.642  14.400   0.692
17115SOL     OW53177  12.827   0.519  11.723
17115SOL    HW153178  12.893   0.466  11.678
17115SOL    HW253179  12.763   0.456  11.755
17116SOL     OW53180   2.668  13.453  10.121
17116SOL    HW153181   2.681  13.477  10.029
17116SOL    HW253182   2.643  13.361  10.119
17117SOL     OW53183   6.346  14.438   1.566
17117SOL    HW153184   6.254  14.464   1.560
17117SOL    HW253185   6.344  14.343   1.571
17118SOL     OW53186   7.266  11.894   1.028
17118SOL    HW153187   7.296  11.886   1.118
17118SOL    HW253188   7.342  11.928   0.980
17119SOL     OW53189   1.975   2.549   9.147
17119SOL    HW153190   1.981   2.630   9.198
17119SOL    HW253191   1.885   2.549   9.114
17120SOL     OW53192   0.235   6.207  10.030
17120SOL    HW153193   0.197   6.294  10.022
17120SOL    HW253194   0.330   6.221  10.024
17121SOL     OW53195   2.015  13.530   0.543
17121SOL    HW153196   2.064  13.528   0.625
17121SOL    HW253197   2.079  13.502   0.477
17122SOL     OW53198   0.967   5.882  13.454
17122SOL    HW153199   1.030   5.812  13.467
17122SOL    HW253200   0.882   5.837  13.447
17123SOL     OW53201   8.855   3.312  10.635
17123SOL    HW153202   8.869   3.242  10.570
17123SOL    HW253203   8.916   3.381  10.609
17124SOL     OW53204   5.675  13.866  11.864
17124SOL    HW153205   5.733  13.800  11.903
17124SOL    HW253206   5.657  13.927  11.936
17125SOL     OW53207   2.369  10.183  11.394
17125SOL    HW153208   2.280  10.209  11.371
17125SOL    HW253209   2.416  10.266  11.406
17126SOL     OW53210   9.718   5.600  11.562
17126SOL    HW153211   9.788   5.596  11.627
17126SOL    HW253212   9.750   5.546  11.489
17127SOL     OW53213   7.169  13.167  14.678
17127SOL    HW153214   7.223  13.231  14.724
17127SOL    HW253215   7.232  13.101  14.648
17128SOL     OW53216  13.789  14.105   8.433
17128SOL    HW153217  13.810  14.113   8.526
17128SOL    HW253218  13.708  14.055   8.431
17129SOL     OW53219  11.721  12.974   1.316
17129SOL    HW153220  11.676  13.027   1.251
17129SOL    HW253221  11.808  13.014   1.324
17130SOL     OW53222  10.069   7.568   3.057
17130SOL    HW153223  10.063   7.480   3.093
17130SOL    HW253224  10.159   7.576   3.027
17131SOL     OW53225   7.803  12.096  11.848
17131SOL    HW153226   7.874  12.076  11.787
17131SOL    HW253227   7.735  12.032  11.828
17132SOL     OW53228  12.759   6.969   4.360
17132SOL    HW153229  12.752   7.015   4.444
17132SOL    HW253230  12.833   7.011   4.316
17133SOL     OW53231   7.077  14.223  11.033
17133SOL    HW153232   7.071  14.207  11.127
17133SOL    HW253233   6.993  14.262  11.009
17134SOL     OW53234   4.312   2.992   5.141
17134SOL    HW153235   4.235   3.035   5.179
17134SOL    HW253236   4.324   3.035   5.056
17135SOL     OW53237   2.029   9.665   6.430
17135SOL    HW153238   2.015   9.575   6.460
17135SOL    HW253239   1.962   9.716   6.477
17136SOL     OW53240  11.902  12.361   7.089
17136SOL    HW153241  11.994  12.383   7.104
17136SOL    HW253242  11.880  12.403   7.006
17137SOL     OW53243   6.795  10.913   8.410
17137SOL    HW153244   6.833  10.831   8.441
17137SOL    HW253245   6.790  10.902   8.315
17138SOL     OW53246  14.083   9.395   0.951
17138SOL    HW153247  14.178   9.382   0.948
17138SOL    HW253248  14.067   9.435   1.036
17139SOL     OW53249  14.435  12.590   9.265
17139SOL    HW153250  14.392  12.572   9.348
17139SOL    HW253251  14.372  12.643   9.216
17140SOL     OW53252   0.921   0.535  12.904
17140SOL    HW153253   0.893   0.577  12.823
17140SOL    HW253254   0.855   0.560  12.968
17141SOL     OW53255  14.124  12.830   8.271
17141SOL    HW153256  14.038  12.844   8.232
17141SOL    HW253257  14.143  12.737   8.254
17142SOL     OW53258   7.755  14.113  10.043
17142SOL    HW153259   7.771  14.080  10.132
17142SOL    HW253260   7.831  14.167  10.024
17143SOL     OW53261   1.949   5.935  14.381
17143SOL    HW153262   1.976   6.012  14.431
17143SOL    HW253263   1.997   5.863  14.420
17144SOL     OW53264   7.530  13.735   7.671
17144SOL    HW153265   7.478  13.688   7.606
17144SOL    HW253266   7.520  13.684   7.751
17145SOL     OW53267   9.716  14.615   7.685
17145SOL    HW153268   9.659  14.634   7.611
17145SOL    HW253269   9.710  14.521   7.697
17146SOL     OW53270   9.428   8.939   5.314
17146SOL    HW153271   9.378   9.019   5.325
17146SOL    HW253272   9.363   8.869   5.318
17147SOL     OW53273  13.757   3.157  12.893
17147SOL    HW153274  13.817   3.201  12.953
17147SOL    HW253275  13.691   3.223  12.872
17148SOL     OW53276  10.588   8.571   2.234
17148SOL    HW153277  10.657   8.520   2.275
17148SOL    HW253278  10.521   8.507   2.211
17149SOL     OW53279   8.460   3.736   5.597
17149SOL    HW153280   8.426   3.743   5.508
17149SOL    HW253281   8.383   3.718   5.651
17150SOL     OW53282   3.970   1.521   7.214
17150SOL    HW153283   3.929   1.549   7.133
17150SOL    HW253284   3.975   1.425   7.207
17151SOL     OW53285  10.804   5.478   0.521
17151SOL    HW153286  10.733   5.531   0.484
17151SOL    HW253287  10.879   5.499   0.466
17152SOL     OW53288   9.259   4.625   1.900
17152SOL    HW153289   9.219   4.598   1.817
17152SOL    HW253290   9.352   4.629   1.881
17153SOL     OW53291   3.030   8.357   4.311
17153SOL    HW153292   3.062   8.447   4.316
17153SOL    HW253293   3.106   8.306   4.283
17154SOL     OW53294   1.748   5.718   5.956
17154SOL    HW153295   1.783   5.701   6.044
17154SOL    HW253296   1.655   5.736   5.970
17155SOL     OW53297   9.002  14.296  13.226
17155SOL    HW153298   8.994  14.300  13.131
17155SOL    HW253299   9.053  14.217  13.243
17156SOL     OW53300  10.537   9.592   7.404
17156SOL    HW153301  10.494   9.635   7.330
17156SOL    HW253302  10.538   9.500   7.381
17157SOL     OW53303   8.851   1.844   3.800
17157SOL    HW153304   8.803   1.761   3.800
17157SOL    HW253305   8.783   1.910   3.812
17158SOL     OW53306  10.388   2.189   5.040
17158SOL    HW153307  10.390   2.256   4.971
17158SOL    HW253308  10.321   2.219   5.101
17159SOL     OW53309  12.029   9.301   9.033
17159SOL    HW153310  12.040   9.376   8.975
17159SOL    HW253311  11.983   9.236   8.981
17160SOL     OW53312   1.600  13.206   1.151
17160SOL    HW153313   1.644  13.168   1.227
17160SOL    HW253314   1.557  13.131   1.109
17161SOL     OW53315   7.811   5.032  10.926
17161SOL    HW153316   7.839   5.099  10.863
17161SOL    HW253317   7.741   5.073  10.976
17162SOL     OW53318   8.183  10.266   7.008
17162SOL    HW153319   8.091  10.291   7.017
17162SOL    HW253320   8.189  10.181   7.052
17163SOL     OW53321   4.433   8.932   0.039
17163SOL    HW153322   4.480   8.849   0.037
17163SOL    HW253323   4.410   8.949  14.826
17164SOL     OW53324   8.345   6.264   4.010
17164SOL    HW153325   8.419   6.288   3.955
17164SOL    HW253326   8.356   6.317   4.089
17165SOL     OW53327  11.393   9.412  11.527
17165SOL    HW153328  11.320   9.352  11.508
17165SOL    HW253329  11.384   9.431  11.621
17166SOL     OW53330   4.424   8.338   7.485
17166SOL    HW153331   4.355   8.397   7.454
17166SOL    HW253332   4.458   8.297   7.406
17167SOL     OW53333  14.005   8.993  13.865
17167SOL    HW153334  13.914   9.018  13.850
17167SOL    HW253335  14.018   8.917  13.807
17168SOL     OW53336   1.568  11.667   8.346
17168SOL    HW153337   1.629  11.740   8.352
17168SOL    HW253338   1.625  11.590   8.336
17169SOL     OW53339   1.632   7.333  14.445
17169SOL    HW153340   1.705   7.275  14.465
17169SOL    HW253341   1.642   7.354  14.352
17170SOL     OW53342   9.929  12.277   2.683
17170SOL    HW153343   9.917  12.185   2.705
17170SOL    HW253344   9.987  12.276   2.606
17171SOL     OW53345  10.448   6.359   4.485
17171SOL    HW153346  10.370   6.314   4.454
17171SOL    HW253347  10.441   6.447   4.449
17172SOL     OW53348   6.727   0.657   2.775
17172SOL    HW153349   6.732   0.752   2.786
17172SOL    HW253350   6.691   0.625   2.858
17173SOL     OW53351   1.291   1.467  12.288
17173SOL    HW153352   1.344   1.505  12.358
17173SOL    HW253353   1.320   1.512  12.209
17174SOL     OW53354   3.676   2.522   8.909
17174SOL    HW153355   3.639   2.596   8.957
17174SOL    HW253356   3.770   2.531   8.919
17175SOL     OW53357   0.436  11.771   5.463
17175SOL    HW153358   0.448  11.827   5.540
17175SOL    HW253359   0.496  11.698   5.476
17176SOL     OW53360   9.155   5.129  11.219
17176SOL    HW153361   9.112   5.212  11.239
17176SOL    HW253362   9.083   5.069  11.200
17177SOL     OW53363   7.977   8.738   1.757
17177SOL    HW153364   8.053   8.737   1.700
17177SOL    HW253365   7.908   8.779   1.705
17178SOL     OW53366  13.176   2.375   5.621
17178SOL    HW153367  13.204   2.337   5.538
17178SOL    HW253368  13.211   2.316   5.687
17179SOL     OW53369   3.647  11.195   8.236
17179SOL    HW153370   3.578  11.244   8.281
17179SOL    HW253371   3.684  11.138   8.303
17180SOL     OW53372   3.623   3.535   0.587
17180SOL    HW153373   3.577   3.452   0.604
17180SOL    HW253374   3.571   3.578   0.520
17181SOL     OW53375  11.094   1.686   9.528
17181SOL    HW153376  11.150   1.740   9.585
17181SOL    HW253377  11.141   1.683   9.445
17182SOL     OW53378   9.222   7.178  10.890
17182SOL    HW153379   9.274   7.120  10.946
17182SOL    HW253380   9.185   7.120  10.824
17183SOL     OW53381   2.891  12.140   8.005
17183SOL    HW153382   2.816  12.143   8.064
17183SOL    HW253383   2.967  12.157   8.061
17184SOL     OW53384   0.227   0.608   0.763
17184SOL    HW153385   0.278   0.598   0.843
17184SOL    HW253386   0.230   0.701   0.744
17185SOL     OW53387   4.742   0.095  13.361
17185SOL    HW153388   4.668   0.061  13.412
17185SOL    HW253389   4.755   0.031  13.292
17186SOL     OW53390   5.265  11.083   3.352
17186SOL    HW153391   5.342  11.080   3.410
17186SOL    HW253392   5.239  10.992   3.342
17187SOL     OW53393   0.992  14.029  13.509
17187SOL    HW153394   1.026  14.118  13.510
17187SOL    HW253395   1.068  13.973  13.525
17188SOL     OW53396   4.793  10.742   0.404
17188SOL    HW153397   4.726  10.782   0.349
17188SOL    HW253398   4.791  10.792   0.486
17189SOL     OW53399   3.419   0.846  12.836
17189SOL    HW153400   3.353   0.861  12.903
17189SOL    HW253401   3.446   0.755  12.848
17190SOL     OW53402   3.089  12.485  13.913
17190SOL    HW153403   3.042  12.407  13.884
17190SOL    HW253404   3.129  12.520  13.833
17191SOL     OW53405  14.448  14.144  12.264
17191SOL    HW153406  14.493  14.186  12.338
17191SOL    HW253407  14.375  14.097  12.304
17192SOL     OW53408   9.384   7.750  10.619
17192SOL    HW153409   9.452   7.708  10.568
17192SOL    HW253410   9.407   7.730  10.710
17193SOL     OW53411   8.766   2.975   4.162
17193SOL    HW153412   8.785   2.916   4.235
17193SOL    HW253413   8.740   2.918   4.090
17194SOL     OW53414   7.407  11.340  10.931
17194SOL    HW153415   7.409  11.374  11.021
17194SOL    HW253416   7.494  11.357  10.897
17195SOL     OW53417  10.178  10.544  10.206
17195SOL    HW153418  10.123  10.551  10.128
17195SOL    HW253419  10.265  10.521  10.172
17196SOL     OW53420   6.179   5.748   8.093
17196SOL    HW153421   6.129   5.822   8.057
17196SOL    HW253422   6.257   5.788   8.132
17197SOL     OW53423   8.230   2.775  14.446
17197SOL    HW153424   8.135   2.777  14.450
17197SOL    HW253425   8.254   2.693  14.489
17198SOL     OW53426  10.571   5.236  14.605
17198SOL    HW153427  10.613   5.256  14.688
17198SOL    HW253428  10.568   5.140  14.603
17199SOL     OW53429  10.994  12.118   7.655
17199SOL    HW153430  10.959  12.034   7.686
17199SOL    HW253431  11.086  12.116   7.682
17200SOL     OW53432  11.513   9.961   6.813
17200SOL    HW153433  11.503   9.943   6.720
17200SOL    HW253434  11.597   9.922   6.836
17201SOL     OW53435   1.577   4.367  12.362
17201SOL    HW153436   1.650   4.367  12.424
17201SOL    HW253437   1.515   4.430  12.399
17202SOL     OW53438   2.675   5.254   3.405
17202SOL    HW153439   2.643   5.167   3.381
17202SOL    HW253440   2.664   5.259   3.500
17203SOL     OW53441   7.010   5.716  10.646
17203SOL    HW153442   7.023   5.723  10.551
17203SOL    HW253443   7.041   5.800  10.680
17204SOL     OW53444   0.231   7.385  11.644
17204SOL    HW153445   0.178   7.465  11.635
17204SOL    HW253446   0.261   7.366  11.555
17205SOL     OW53447   6.092   4.429  14.511
17205SOL    HW153448   6.148   4.478  14.572
17205SOL    HW253449   6.059   4.356  14.562
17206SOL     OW53450  13.351   2.302   2.702
17206SOL    HW153451  13.329   2.304   2.795
17206SOL    HW253452  13.435   2.255   2.698
17207SOL     OW53453   7.169  10.637  11.922
17207SOL    HW153454   7.213  10.656  12.005
17207SOL    HW253455   7.204  10.701  11.861
17208SOL     OW53456  10.269   8.413   7.573
17208SOL    HW153457  10.284   8.464   7.653
17208SOL    HW253458  10.195   8.356   7.594
17209SOL     OW53459   9.885   2.572  14.409
17209SOL    HW153460   9.907   2.664  14.426
17209SOL    HW253461   9.790   2.571  14.402
17210SOL     OW53462   3.141   8.907   5.536
17210SOL    HW153463   3.110   8.832   5.484
17210SOL    HW253464   3.093   8.982   5.500
17211SOL     OW53465  12.586   5.687   9.410
17211SOL    HW153466  12.649   5.721   9.346
17211SOL    HW253467  12.506   5.737   9.394
17212SOL     OW53468   7.138  12.843   7.876
17212SOL    HW153469   7.102  12.872   7.793
17212SOL    HW253470   7.119  12.915   7.937
17213SOL     OW53471  13.701   7.650  13.309
17213SOL    HW153472  13.665   7.728  13.266
17213SOL    HW253473  13.686   7.579  13.246
17214SOL     OW53474  10.847   7.422   0.107
17214SOL    HW153475  10.858   7.480   0.183
17214SOL    HW253476  10.831   7.482   0.034
17215SOL     OW53477   9.172   9.721   7.228
17215SOL    HW153478   9.223   9.745   7.305
17215SOL    HW253479   9.230   9.663   7.178
17216SOL     OW53480  14.673   7.664   8.066
17216SOL    HW153481  14.660   7.730   7.997
17216SOL    HW253482  14.755   7.690   8.108
17217SOL     OW53483  12.876   2.599   0.180
17217SOL    HW153484  12.858   2.629   0.091
17217SOL    HW253485  12.841   2.669   0.237
17218SOL     OW53486   2.796   6.438   5.120
17218SOL    HW153487   2.801   6.496   5.044
17218SOL    HW253488   2.824   6.492   5.194
17219SOL     OW53489   8.075  13.703  14.123
17219SOL    HW153490   8.165  13.728  14.144
17219SOL    HW253491   8.037  13.781  14.083
17220SOL     OW53492  14.425  12.494   2.768
17220SOL    HW153493  14.387  12.496   2.680
17220SOL    HW253494  14.520  12.491   2.753
17221SOL     OW53495   9.280   6.267   4.358
17221SOL    HW153496   9.201   6.214   4.347
17221SOL    HW253497   9.316   6.239   4.442
17222SOL     OW53498   6.510   0.819   4.231
17222SOL    HW153499   6.491   0.755   4.163
17222SOL    HW253500   6.532   0.767   4.308
17223SOL     OW53501   3.922   5.446   1.009
17223SOL    HW153502   3.984   5.408   0.947
17223SOL    HW253503   3.836   5.425   0.973
17224SOL     OW53504   2.945   7.753  10.621
17224SOL    HW153505   2.913   7.750  10.711
17224SOL    HW253506   2.870   7.726  10.567
17225SOL     OW53507   4.412   2.796  13.547
17225SOL    HW153508   4.462   2.804  13.466
17225SOL    HW253509   4.321   2.804  13.520
17226SOL     OW53510   1.279  10.769  12.827
17226SOL    HW153511   1.186  10.744  12.823
17226SOL    HW253512   1.312  10.749  12.740
17227SOL     OW53513   2.992   9.116   5.438
17227SOL    HW153514   2.936   9.039   5.422
17227SOL    HW253515   2.994   9.162   5.355
17228SOL     OW53516   6.081   1.867   2.159
17228SOL    HW153517   6.054   1.858   2.250
17228SOL    HW253518   6.014   1.821   2.109
17229SOL     OW53519   1.355   7.910   5.980
17229SOL    HW153520   1.400   7.958   6.050
17229SOL    HW253521   1.272   7.956   5.968
17230SOL     OW53522  10.783   8.960   2.047
17230SOL    HW153523  10.726   9.021   2.001
17230SOL    HW253524  10.842   9.017   2.098
17231SOL     OW53525   7.162  12.936   0.789
17231SOL    HW153526   7.108  12.859   0.772
17231SOL    HW253527   7.146  12.958   0.881
17232SOL     OW53528   9.293  10.234   1.904
17232SOL    HW153529   9.314  10.233   1.811
17232SOL    HW253530   9.364  10.284   1.944
17233SOL     OW53531   4.592   8.474  11.074
17233SOL    HW153532   4.653   8.522  11.018
17233SOL    HW253533   4.517   8.456  11.017
17234SOL     OW53534   1.178  11.476   3.151
17234SOL    HW153535   1.111  11.414   3.179
17234SOL    HW253536   1.143  11.562   3.174
17235SOL     OW53537   3.992  11.755   0.271
17235SOL    HW153538   4.080  11.746   0.234
17235SOL    HW253539   3.997  11.833   0.326
17236SOL     OW53540   2.895   4.617   4.588
17236SOL    HW153541   2.938   4.531   4.594
17236SOL    HW253542   2.934   4.668   4.659
17237SOL     OW53543  13.369   0.277  10.368
17237SOL    HW153544  13.368   0.258  10.274
17237SOL    HW253545  13.430   0.214  10.405
17238SOL     OW53546  10.391   5.160  13.559
17238SOL    HW153547  10.452   5.108  13.611
17238SOL    HW253548  10.400   5.249  13.594
17239SOL     OW53549   2.738   8.199  11.215
17239SOL    HW153550   2.759   8.192  11.308
17239SOL    HW253551   2.738   8.109  11.183
17240SOL     OW53552   5.456  10.824   1.999
17240SOL    HW153553   5.399  10.870   1.937
17240SOL    HW253554   5.405  10.821   2.080
17241SOL     OW53555   7.210  14.330  10.438
17241SOL    HW153556   7.165  14.398  10.389
17241SOL    HW253557   7.190  14.249  10.390
17242SOL     OW53558  14.160  11.843   6.085
17242SOL    HW153559  14.208  11.761   6.071
17242SOL    HW253560  14.201  11.905   6.025
17243SOL     OW53561   4.917  13.301   0.739
17243SOL    HW153562   4.897  13.265   0.652
17243SOL    HW253563   5.012  13.314   0.739
17244SOL     OW53564   6.205  13.064   9.763
17244SOL    HW153565   6.142  13.108   9.705
17244SOL    HW253566   6.260  13.134   9.797
17245SOL     OW53567  13.853   3.068  11.191
17245SOL    HW153568  13.885   3.154  11.164
17245SOL    HW253569  13.924   3.008  11.169
17246SOL     OW53570   0.860   7.079   7.078
17246SOL    HW153571   0.779   7.095   7.128
17246SOL    HW253572   0.917   7.034   7.140
17247SOL     OW53573   8.934   6.095   4.069
17247SOL    HW153574   8.848   6.054   4.053
17247SOL    HW253575   8.926   6.182   4.031
17248SOL     OW53576   8.598   1.475  11.853
17248SOL    HW153577   8.577   1.542  11.788
17248SOL    HW253578   8.610   1.395  11.802
17249SOL     OW53579   9.087   9.930  10.997
17249SOL    HW153580   9.152   9.884  10.945
17249SOL    HW253581   9.052   9.863  11.056
17250SOL     OW53582  13.359  14.648   8.069
17250SOL    HW153583  13.362  14.598   8.151
17250SOL    HW253584  13.335  14.584   8.003
17251SOL     OW53585  14.306  13.425   1.954
17251SOL    HW153586  14.344  13.426   2.042
17251SOL    HW253587  14.356  13.491   1.906
17252SOL     OW53588  13.113   1.895  14.108
17252SOL    HW153589  13.052   1.831  14.144
17252SOL    HW253590  13.075   1.921  14.024
17253SOL     OW53591   7.536  11.253   8.340
17253SOL    HW153592   7.575  11.169   8.315
17253SOL    HW253593   7.531  11.249   8.436
17254SOL     OW53594   4.079   9.054   9.825
17254SOL    HW153595   4.099   8.960   9.817
17254SOL    HW253596   3.995   9.055   9.873
17255SOL     OW53597  13.504   4.118   7.669
17255SOL    HW153598  13.491   4.089   7.579
17255SOL    HW253599  13.557   4.197   7.661
17256SOL     OW53600   0.561   5.300  14.782
17256SOL    HW153601   0.530   5.381  14.823
17256SOL    HW253602   0.489   5.272  14.726
17257SOL     OW53603   7.523   9.680  11.586
17257SOL    HW153604   7.481   9.752  11.633
17257SOL    HW253605   7.604   9.718  11.551
17258SOL     OW53606   1.419   9.829   1.801
17258SOL    HW153607   1.450   9.758   1.744
17258SOL    HW253608   1.499   9.876   1.826
17259SOL     OW53609   2.996   8.288   3.768
17259SOL    HW153610   3.070   8.349   3.767
17259SOL    HW253611   2.964   8.290   3.858
17260SOL     OW53612   9.634   1.408   1.793
17260SOL    HW153613   9.624   1.403   1.698
17260SOL    HW253614   9.676   1.493   1.808
17261SOL     OW53615   8.365   8.613   3.894
17261SOL    HW153616   8.394   8.579   3.809
17261SOL    HW253617   8.418   8.565   3.957
17262SOL     OW53618   8.450   8.703  13.316
17262SOL    HW153619   8.406   8.623  13.345
17262SOL    HW253620   8.381   8.769  13.312
17263SOL     OW53621   4.499  12.651   9.830
17263SOL    HW153622   4.575  12.685   9.878
17263SOL    HW253623   4.455  12.594   9.893
17264SOL     OW53624  10.040  10.533  11.592
17264SOL    HW153625  10.025  10.570  11.505
17264SOL    HW253626  10.120  10.576  11.623
17265SOL     OW53627   4.270  13.426   4.186
17265SOL    HW153628   4.314  13.487   4.128
17265SOL    HW253629   4.333  13.410   4.256
17266SOL     OW53630  14.220   5.681  13.300
17266SOL    HW153631  14.291   5.624  13.329
17266SOL    HW253632  14.183   5.716  13.381
17267SOL     OW53633   6.384   1.018   9.522
17267SOL    HW153634   6.363   0.937   9.474
17267SOL    HW253635   6.473   1.004   9.554
17268SOL     OW53636   2.183  11.791   6.916
17268SOL    HW153637   2.272  11.774   6.946
17268SOL    HW253638   2.179  11.750   6.829
17269SOL     OW53639  14.876   7.941   4.413
17269SOL    HW153640  14.853   8.031   4.436
17269SOL    HW253641  14.826   7.924   4.333
17270SOL     OW53642   4.468  14.550  13.626
17270SOL    HW153643   4.458  14.616  13.557
17270SOL    HW253644   4.451  14.598  13.707
17271SOL     OW53645   5.723   9.231   1.154
17271SOL    HW153646   5.641   9.281   1.151
17271SOL    HW253647   5.767   9.253   1.072
17272SOL     OW53648  11.880  14.185  12.619
17272SOL    HW153649  11.964  14.139  12.622
17272SOL    HW253650  11.903  14.278  12.621
17273SOL     OW53651   6.396   6.442   2.005
17273SOL    HW153652   6.345   6.377   2.053
17273SOL    HW253653   6.456   6.478   2.070
17274SOL     OW53654   7.437   8.450   2.453
17274SOL    HW153655   7.456   8.359   2.434
17274SOL    HW253656   7.470   8.498   2.378
17275SOL     OW53657  10.198   1.479   4.985
17275SOL    HW153658  10.144   1.465   4.907
17275SOL    HW253659  10.218   1.572   4.984
17276SOL     OW53660   0.476  13.728  11.289
17276SOL    HW153661   0.396  13.741  11.238
17276SOL    HW253662   0.543  13.776  11.240
17277SOL     OW53663  13.624   9.048  12.923
17277SOL    HW153664  13.687   9.118  12.939
17277SOL    HW253665  13.658   8.973  12.971
17278SOL     OW53666   4.275   2.738   8.297
17278SOL    HW153667   4.305   2.713   8.384
17278SOL    HW253668   4.350   2.720   8.240
17279SOL     OW53669  10.185   3.843   6.707
17279SOL    HW153670  10.198   3.753   6.735
17279SOL    HW253671  10.263   3.865   6.657
17280SOL     OW53672  14.233   6.702  12.861
17280SOL    HW153673  14.143   6.724  12.836
17280SOL    HW253674  14.269   6.785  12.892
17281SOL     OW53675   3.079   2.744   7.138
17281SOL    HW153676   3.052   2.822   7.088
17281SOL    HW253677   3.007   2.682   7.125
17282SOL     OW53678  13.540   6.939  13.090
17282SOL    HW153679  13.584   6.855  13.082
17282SOL    HW253680  13.601   6.994  13.139
17283SOL     OW53681   0.766   5.590  10.166
17283SOL    HW153682   0.679   5.563  10.139
17283SOL    HW253683   0.821   5.573  10.089
17284SOL     OW53684  10.985  10.360   5.707
17284SOL    HW153685  10.961  10.268   5.718
17284SOL    HW253686  10.902  10.404   5.687
17285SOL     OW53687  13.050   9.489  10.451
17285SOL    HW153688  13.088   9.401  10.450
17285SOL    HW253689  12.994   9.492  10.373
17286SOL     OW53690  10.138   9.502   7.881
17286SOL    HW153691  10.220   9.456   7.865
17286SOL    HW253692  10.071   9.447   7.839
17287SOL     OW53693   6.258  11.403   6.781
17287SOL    HW153694   6.232  11.468   6.716
17287SOL    HW253695   6.277  11.324   6.730
17288SOL     OW53696   4.058   8.863   9.399
17288SOL    HW153697   4.025   8.933   9.342
17288SOL    HW253698   4.040   8.895   9.488
17289SOL     OW53699  11.772  13.559   4.798
17289SOL    HW153700  11.794  13.466   4.790
17289SOL    HW253701  11.845  13.597   4.847
17290SOL     OW53702   6.109  10.728  14.462
17290SOL    HW153703   6.052  10.804  14.457
17290SOL    HW253704   6.051  10.657  14.491
17291SOL     OW53705   2.922   0.675   4.373
17291SOL    HW153706   2.864   0.627   4.433
17291SOL    HW253707   2.863   0.709   4.305
17292SOL     OW53708  13.043   2.615   3.703
17292SOL    HW153709  13.098   2.683   3.664
17292SOL    HW253710  12.987   2.585   3.632
17293SOL     OW53711  10.542   1.928   1.996
17293SOL    HW153712  10.508   2.018   2.000
17293SOL    HW253713  10.466   1.875   1.972
17294SOL     OW53714   3.529   1.352   7.146
17294SOL    HW153715   3.572   1.373   7.063
17294SOL    HW253716   3.437   1.339   7.123
17295SOL     OW53717  10.985   6.225   5.246
17295SOL    HW153718  10.896   6.261   5.254
17295SOL    HW253719  11.027   6.246   5.329
17296SOL     OW53720   3.726  13.504  10.331
17296SOL    HW153721   3.812  13.503  10.372
17296SOL    HW253722   3.682  13.426  10.366
17297SOL     OW53723   1.345   5.264   8.178
17297SOL    HW153724   1.277   5.289   8.115
17297SOL    HW253725   1.399   5.202   8.130
17298SOL     OW53726   8.673   7.223   5.344
17298SOL    HW153727   8.668   7.210   5.249
17298SOL    HW253728   8.588   7.258   5.368
17299SOL     OW53729  13.071   4.101  13.124
17299SOL    HW153730  13.116   4.175  13.084
17299SOL    HW253731  13.069   4.121  13.218
17300SOL     OW53732  11.296   0.709  13.872
17300SOL    HW153733  11.260   0.747  13.792
17300SOL    HW253734  11.286   0.778  13.938
17301SOL     OW53735   2.162   5.246  11.298
17301SOL    HW153736   2.193   5.218  11.384
17301SOL    HW253737   2.210   5.327  11.279
17302SOL     OW53738   1.307   3.127   6.880
17302SOL    HW153739   1.221   3.128   6.923
17302SOL    HW253740   1.287   3.121   6.786
17303SOL     OW53741  12.777   7.505   4.320
17303SOL    HW153742  12.701   7.549   4.280
17303SOL    HW253743  12.853   7.547   4.279
17304SOL     OW53744   1.526  10.790   4.854
17304SOL    HW153745   1.620  10.805   4.868
17304SOL    HW253746   1.484  10.839   4.925
17305SOL     OW53747   8.037   0.578   2.968
17305SOL    HW153748   8.096   0.509   2.997
17305SOL    HW253749   7.976   0.591   3.042
17306SOL     OW53750   3.189   0.490   0.754
17306SOL    HW153751   3.111   0.442   0.782
17306SOL    HW253752   3.243   0.424   0.710
17307SOL     OW53753   3.690  12.516  11.771
17307SOL    HW153754   3.747  12.450  11.811
17307SOL    HW253755   3.636  12.548  11.844
17308SOL     OW53756   6.786  12.736   8.272
17308SOL    HW153757   6.823  12.651   8.248
17308SOL    HW253758   6.858  12.797   8.261
17309SOL     OW53759  10.134   8.962   0.782
17309SOL    HW153760  10.229   8.958   0.791
17309SOL    HW253761  10.108   8.874   0.755
17310SOL     OW53762   7.653  13.786   1.190
17310SOL    HW153763   7.589  13.731   1.236
17310SOL    HW253764   7.600  13.842   1.132
17311SOL     OW53765   9.150   8.017   3.797
17311SOL    HW153766   9.182   7.935   3.759
17311SOL    HW253767   9.123   8.069   3.723
17312SOL     OW53768   8.255   3.583   6.744
17312SOL    HW153769   8.320   3.512   6.747
17312SOL    HW253770   8.297   3.655   6.791
17313SOL     OW53771  11.450   3.534   2.466
17313SOL    HW153772  11.504   3.550   2.388
17313SOL    HW253773  11.513   3.533   2.538
17314SOL     OW53774   2.474   0.758   3.821
17314SOL    HW153775   2.503   0.782   3.733
17314SOL    HW253776   2.386   0.797   3.829
17315SOL     OW53777  12.970  10.918   6.229
17315SOL    HW153778  13.029  10.843   6.237
17315SOL    HW253779  13.015  10.989   6.276
17316SOL     OW53780   1.629   4.461   9.160
17316SOL    HW153781   1.710   4.457   9.212
17316SOL    HW253782   1.596   4.371   9.162
17317SOL     OW53783   0.585   3.423  11.295
17317SOL    HW153784   0.526   3.348  11.302
17317SOL    HW253785   0.528   3.497  11.273
17318SOL     OW53786   0.497   8.200   1.668
17318SOL    HW153787   0.574   8.218   1.721
17318SOL    HW253788   0.449   8.134   1.718
17319SOL     OW53789   5.724   1.363   5.374
17319SOL    HW153790   5.680   1.278   5.379
17319SOL    HW253791   5.733   1.379   5.280
17320SOL     OW53792  11.950   9.987   1.093
17320SOL    HW153793  12.031   9.976   1.144
17320SOL    HW253794  11.965   9.938   1.013
17321SOL     OW53795   2.179   7.827  14.497
17321SOL    HW153796   2.204   7.843  14.406
17321SOL    HW253797   2.250   7.774  14.533
17322SOL     OW53798   8.409   4.713   9.438
17322SOL    HW153799   8.413   4.800   9.477
17322SOL    HW253800   8.319   4.706   9.404
17323SOL     OW53801   1.962   9.130   0.236
17323SOL    HW153802   2.051   9.107   0.210
17323SOL    HW253803   1.942   9.209   0.184
17324SOL     OW53804   5.353   6.227  14.293
17324SOL    HW153805   5.366   6.286  14.219
17324SOL    HW253806   5.404   6.149  14.270
17325SOL     OW53807   2.341  10.463   2.598
17325SOL    HW153808   2.321  10.371   2.616
17325SOL    HW253809   2.435  10.471   2.615
17326SOL     OW53810  14.025  11.015  10.721
17326SOL    HW153811  14.039  11.100  10.680
17326SOL    HW253812  13.931  11.011  10.736
17327SOL     OW53813   4.499  13.477  12.380
17327SOL    HW153814   4.424  13.426  12.412
17327SOL    HW253815   4.575  13.434  12.420
17328SOL     OW53816  14.434  11.922   0.556
17328SOL    HW153817  14.344  11.926   0.589
17328SOL    HW253818  14.487  11.955   0.628
17329SOL     OW53819  10.454   6.614  11.323
17329SOL    HW153820  10.431   6.690  11.269
17329SOL    HW253821  10.544   6.631  11.351
17330SOL     OW53822   1.165   2.911   4.720
17330SOL    HW153823   1.253   2.904   4.758
17330SOL    HW253824   1.145   3.005   4.724
17331SOL     OW53825   4.169   2.302   7.039
17331SOL    HW153826   4.076   2.289   7.058
17331SOL    HW253827   4.170   2.366   6.967
17332SOL     OW53828   9.237  10.261   6.219
17332SOL    HW153829   9.195  10.195   6.164
17332SOL    HW253830   9.323  10.276   6.178
17333SOL     OW53831   4.218   8.540   8.394
17333SOL    HW153832   4.215   8.511   8.485
17333SOL    HW253833   4.278   8.615   8.394
17334SOL     OW53834   8.352  11.962  13.759
17334SOL    HW153835   8.403  12.043  13.751
17334SOL    HW253836   8.412  11.899  13.797
17335SOL     OW53837   6.378   4.830  12.822
17335SOL    HW153838   6.374   4.747  12.774
17335SOL    HW253839   6.369   4.897  12.754
17336SOL     OW53840   9.019   4.336   5.652
17336SOL    HW153841   8.932   4.295   5.653
17336SOL    HW253842   9.019   4.393   5.729
17337SOL     OW53843  13.265  12.760  11.534
17337SOL    HW153844  13.355  12.780  11.563
17337SOL    HW253845  13.245  12.677  11.576
17338SOL     OW53846  11.475  13.039  14.805
17338SOL    HW153847  11.548  13.082  14.849
17338SOL    HW253848  11.477  13.072  14.715
17339SOL     OW53849  10.802   3.030   8.730
17339SOL    HW153850  10.811   3.045   8.824
17339SOL    HW253851  10.871   3.084   8.691
17340SOL     OW53852   6.976  12.772   2.846
17340SOL    HW153853   7.062  12.801   2.876
17340SOL    HW253854   6.980  12.781   2.750
17341SOL     OW53855   9.597   6.729   4.062
17341SOL    HW153856   9.668   6.684   4.016
17341SOL    HW253857   9.591   6.685   4.146
17342SOL     OW53858  13.594  13.539   9.161
17342SOL    HW153859  13.596  13.518   9.255
17342SOL    HW253860  13.683  13.570   9.142
17343SOL     OW53861  14.341   6.283  14.838
17343SOL    HW153862  14.319   6.363   0.006
17343SOL    HW253863  14.264   6.228  14.847
17344SOL     OW53864   9.472  14.312   3.532
17344SOL    HW153865   9.524  14.391   3.523
17344SOL    HW253866   9.530  14.250   3.577
17345SOL     OW53867   0.331   2.936   9.862
17345SOL    HW153868   0.293   2.913   9.777
17345SOL    HW253869   0.301   2.866   9.921
17346SOL     OW53870   6.111  11.713   6.983
17346SOL    HW153871   6.126  11.763   7.063
17346SOL    HW253872   6.153  11.628   6.999
17347SOL     OW53873   6.457  11.256  13.706
17347SOL    HW153874   6.511  11.219  13.635
17347SOL    HW253875   6.454  11.350  13.688
17348SOL     OW53876  10.810   5.694   2.748
17348SOL    HW153877  10.755   5.639   2.691
17348SOL    HW253878  10.810   5.779   2.706
17349SOL     OW53879   0.404   1.413   6.746
17349SOL    HW153880   0.392   1.484   6.810
17349SOL    HW253881   0.497   1.394   6.749
17350SOL     OW53882  12.845   1.197   0.821
17350SOL    HW153883  12.919   1.190   0.882
17350SOL    HW253884  12.848   1.287   0.790
17351SOL     OW53885   4.261  10.379   6.948
17351SOL    HW153886   4.349  10.401   6.979
17351SOL    HW253887   4.271  10.294   6.906
17352SOL     OW53888   3.902   1.373   9.516
17352SOL    HW153889   3.941   1.366   9.603
17352SOL    HW253890   3.976   1.371   9.456
17353SOL     OW53891   9.659   2.513  12.144
17353SOL    HW153892   9.620   2.595  12.172
17353SOL    HW253893   9.640   2.508  12.050
17354SOL     OW53894   6.997   4.315   2.225
17354SOL    HW153895   6.952   4.252   2.168
17354SOL    HW253896   7.048   4.261   2.285
17355SOL     OW53897   2.670   7.429  13.392
17355SOL    HW153898   2.595   7.488  13.391
17355SOL    HW253899   2.702   7.429  13.301
17356SOL     OW53900  10.552   9.792  14.827
17356SOL    HW153901  10.639   9.822  14.853
17356SOL    HW253902  10.493   9.863  14.855
17357SOL     OW53903  11.576   0.579   1.501
17357SOL    HW153904  11.582   0.528   1.420
17357SOL    HW253905  11.619   0.662   1.480
17358SOL     OW53906   6.838   1.643   5.022
17358SOL    HW153907   6.762   1.585   5.017
17358SOL    HW253908   6.823   1.697   5.100
17359SOL     OW53909   3.776  12.130  10.014
17359SOL    HW153910   3.758  12.055  10.072
17359SOL    HW253911   3.762  12.096   9.926
17360SOL     OW53912   8.658   7.327  10.404
17360SOL    HW153913   8.599   7.345  10.477
17360SOL    HW253914   8.744   7.319  10.445
17361SOL     OW53915   5.596   1.211   1.101
17361SOL    HW153916   5.571   1.302   1.082
17361SOL    HW253917   5.517   1.160   1.082
17362SOL     OW53918   6.260   0.950   3.870
17362SOL    HW153919   6.253   1.030   3.922
17362SOL    HW253920   6.177   0.945   3.822
17363SOL     OW53921  11.393  11.107  13.054
17363SOL    HW153922  11.419  11.167  13.123
17363SOL    HW253923  11.368  11.163  12.981
17364SOL     OW53924   9.546  11.521   8.895
17364SOL    HW153925   9.615  11.478   8.845
17364SOL    HW253926   9.510  11.452   8.951
17365SOL     OW53927   0.317   1.008  13.057
17365SOL    HW153928   0.397   1.055  13.032
17365SOL    HW253929   0.264   1.075  13.101
17366SOL     OW53930   5.909  13.324   7.932
17366SOL    HW153931   5.992  13.361   7.962
17366SOL    HW253932   5.903  13.351   7.840
17367SOL     OW53933   9.273   6.089  12.784
17367SOL    HW153934   9.342   6.129  12.837
17367SOL    HW253935   9.284   6.128  12.697
17368SOL     OW53936   7.975  14.251   6.102
17368SOL    HW153937   7.915  14.191   6.057
17368SOL    HW253938   7.993  14.319   6.037
17369SOL     OW53939   3.252   0.951   9.935
17369SOL    HW153940   3.194   0.879   9.911
17369SOL    HW253941   3.210   1.029   9.896
17370SOL     OW53942   3.307   7.908  13.965
17370SOL    HW153943   3.390   7.950  13.941
17370SOL    HW253944   3.302   7.831  13.909
17371SOL     OW53945  14.127   1.931   1.227
17371SOL    HW153946  14.058   1.961   1.287
17371SOL    HW253947  14.164   2.012   1.192
17372SOL     OW53948  10.321   3.396   7.706
17372SOL    HW153949  10.309   3.485   7.740
17372SOL    HW253950  10.385   3.356   7.765
17373SOL     OW53951   4.899  12.717   5.343
17373SOL    HW153952   4.938  12.687   5.426
17373SOL    HW253953   4.932  12.807   5.333
17374SOL     OW53954   2.208   3.483   0.233
17374SOL    HW153955   2.232   3.397   0.200
17374SOL    HW253956   2.291   3.526   0.254
17375SOL     OW53957   5.404   0.081   5.423
17375SOL    HW153958   5.418  14.868   5.400
17375SOL    HW253959   5.491   0.115   5.441
17376SOL     OW53960   6.049   6.669   1.346
17376SOL    HW153961   6.113   6.739   1.350
17376SOL    HW253962   6.036   6.642   1.437
17377SOL     OW53963   3.739   9.757   4.689
17377SOL    HW153964   3.797   9.692   4.730
17377SOL    HW253965   3.709   9.714   4.609
17378SOL     OW53966   5.552   2.910   1.155
17378SOL    HW153967   5.570   3.001   1.133
17378SOL    HW253968   5.624   2.884   1.211
17379SOL     OW53969  12.291  13.837   4.470
17379SOL    HW153970  12.386  13.834   4.482
17379SOL    HW253971  12.278  13.821   4.377
17380SOL     OW53972   4.852   4.457   5.811
17380SOL    HW153973   4.932   4.508   5.816
17380SOL    HW253974   4.788   4.514   5.769
17381SOL     OW53975  13.228   2.321   7.395
17381SOL    HW153976  13.259   2.294   7.482
17381SOL    HW253977  13.133   2.328   7.405
17382SOL     OW53978   6.556   2.146   7.834
17382SOL    HW153979   6.591   2.058   7.846
17382SOL    HW253980   6.617   2.203   7.881
17383SOL     OW53981  11.912   9.297   5.399
17383SOL    HW153982  11.846   9.313   5.331
17383SOL    HW253983  11.925   9.202   5.398
17384SOL     OW53984   6.349   9.139  10.212
17384SOL    HW153985   6.310   9.051  10.219
17384SOL    HW253986   6.359   9.152  10.118
17385SOL     OW53987   4.672   1.710  10.377
17385SOL    HW153988   4.653   1.783  10.318
17385SOL    HW253989   4.759   1.680  10.350
17386SOL     OW53990   0.134   2.611   9.264
17386SOL    HW153991   0.041   2.593   9.252
17386SOL    HW253992   0.172   2.525   9.285
17387SOL     OW53993   8.886  13.908   1.700
17387SOL    HW153994   8.851  13.852   1.631
17387SOL    HW253995   8.936  13.975   1.654
17388SOL     OW53996   0.874  11.915  10.459
17388SOL    HW153997   0.921  11.876  10.386
17388SOL    HW253998   0.927  11.894  10.536
17389SOL     OW53999   3.551   1.878  14.390
17389SOL    HW154000   3.560   1.937  14.315
17389SOL    HW254001   3.491   1.810  14.360
17390SOL     OW54002   5.714   2.714   2.970
17390SOL    HW154003   5.658   2.673   3.036
17390SOL    HW254004   5.766   2.642   2.934
17391SOL     OW54005  12.306   8.995   9.671
17391SOL    HW154006  12.260   8.940   9.734
17391SOL    HW254007  12.266   8.973   9.586
17392SOL     OW54008   9.267   1.164   7.159
17392SOL    HW154009   9.336   1.146   7.094
17392SOL    HW254010   9.273   1.258   7.175
17393SOL     OW54011   2.083  11.043   5.378
17393SOL    HW154012   2.138  11.114   5.411
17393SOL    HW254013   2.084  11.054   5.283
17394SOL     OW54014   2.669   0.212   7.595
17394SOL    HW154015   2.613   0.226   7.671
17394SOL    HW254016   2.609   0.200   7.521
17395SOL     OW54017  12.211   7.611  13.211
17395SOL    HW154018  12.190   7.519  13.193
17395SOL    HW254019  12.275   7.635  13.145
17396SOL     OW54020  13.077  13.501  13.151
17396SOL    HW154021  12.991  13.460  13.144
17396SOL    HW254022  13.136  13.430  13.174
17397SOL     OW54023   2.835   1.587  14.252
17397SOL    HW154024   2.858   1.525  14.321
17397SOL    HW254025   2.885   1.666  14.272
17398SOL     OW54026   9.751  14.039   0.927
17398SOL    HW154027   9.667  14.024   0.970
17398SOL    HW254028   9.753  13.975   0.855
17399SOL     OW54029   5.218  12.215  14.836
17399SOL    HW154030   5.282  12.257   0.014
17399SOL    HW254031   5.216  12.269  14.758
17400SOL     OW54032   8.346   8.062   3.551
17400SOL    HW154033   8.338   7.968   3.568
17400SOL    HW254034   8.364   8.100   3.638
17401SOL     OW54035   1.669  11.326  13.617
17401SOL    HW154036   1.755  11.289  13.599
17401SOL    HW254037   1.674  11.354  13.709
17402SOL     OW54038  13.788   3.414   6.744
17402SOL    HW154039  13.878   3.396   6.773
17402SOL    HW254040  13.767   3.499   6.782
17403SOL     OW54041   8.209   7.381   5.564
17403SOL    HW154042   8.182   7.425   5.483
17403SOL    HW254043   8.196   7.288   5.546
17404SOL     OW54044  11.710  13.300   5.866
17404SOL    HW154045  11.697  13.363   5.796
17404SOL    HW254046  11.763  13.346   5.931
17405SOL     OW54047  12.596  10.705  12.668
17405SOL    HW154048  12.552  10.712  12.753
17405SOL    HW254049  12.535  10.653  12.615
17406SOL     OW54050   4.340   4.457   3.538
17406SOL    HW154051   4.296   4.541   3.526
17406SOL    HW254052   4.372   4.433   3.451
17407SOL     OW54053   7.104   0.770   6.471
17407SOL    HW154054   7.081   0.803   6.384
17407SOL    HW254055   7.021   0.771   6.519
17408SOL     OW54056   4.001   9.259   7.935
17408SOL    HW154057   3.989   9.166   7.958
17408SOL    HW254058   4.022   9.301   8.018
17409SOL     OW54059   2.236   4.291   5.524
17409SOL    HW154060   2.155   4.272   5.477
17409SOL    HW254061   2.286   4.347   5.464
17410SOL     OW54062   2.566  10.139  14.685
17410SOL    HW154063   2.488  10.085  14.671
17410SOL    HW254064   2.628  10.082  14.731
17411SOL     OW54065  11.626  10.083   4.133
17411SOL    HW154066  11.578  10.163   4.154
17411SOL    HW254067  11.566  10.012   4.156
17412SOL     OW54068   6.969  13.433   5.614
17412SOL    HW154069   7.050  13.462   5.570
17412SOL    HW254070   6.914  13.511   5.615
17413SOL     OW54071  12.576   7.265   1.570
17413SOL    HW154072  12.485   7.294   1.577
17413SOL    HW254073  12.576   7.204   1.496
17414SOL     OW54074   1.367  14.403  10.828
17414SOL    HW154075   1.387  14.338  10.895
17414SOL    HW254076   1.426  14.476  10.846
17415SOL     OW54077   3.214   0.924   1.751
17415SOL    HW154078   3.246   1.013   1.742
17415SOL    HW254079   3.256   0.891   1.831
17416SOL     OW54080   1.953   5.072  13.836
17416SOL    HW154081   1.947   5.153  13.786
17416SOL    HW254082   1.923   5.005  13.774
17417SOL     OW54083   7.867   5.704   4.985
17417SOL    HW154084   7.783   5.701   5.031
17417SOL    HW254085   7.913   5.626   5.016
17418SOL     OW54086  11.749   9.667  13.996
17418SOL    HW154087  11.791   9.742  13.955
17418SOL    HW254088  11.803   9.592  13.970
17419SOL     OW54089  14.836   2.899  12.968
17419SOL    HW154090  14.769   2.870  12.907
17419SOL    HW254091  14.803   2.982  13.002
17420SOL     OW54092  11.719   1.683   5.216
17420SOL    HW154093  11.756   1.595   5.221
17420SOL    HW254094  11.676   1.686   5.130
17421SOL     OW54095   1.732   8.609   7.657
17421SOL    HW154096   1.645   8.574   7.642
17421SOL    HW254097   1.719   8.679   7.721
17422SOL     OW54098   6.976  14.611  12.699
17422SOL    HW154099   6.896  14.640  12.655
17422SOL    HW254100   6.984  14.519  12.675
17423SOL     OW54101   2.825  10.024   0.271
17423SOL    HW154102   2.832   9.939   0.315
17423SOL    HW254103   2.869  10.011   0.187
17424SOL     OW54104  14.727   2.575   7.910
17424SOL    HW154105  14.691   2.538   7.830
17424SOL    HW254106  14.673   2.537   7.980
17425SOL     OW54107  14.366  13.104  14.218
17425SOL    HW154108  14.332  13.162  14.286
17425SOL    HW254109  14.294  13.095  14.156
17426SOL     OW54110  10.477   3.204   1.170
17426SOL    HW154111  10.424   3.211   1.250
17426SOL    HW254112  10.478   3.110   1.151
17427SOL     OW54113  13.559  10.089   9.750
17427SOL    HW154114  13.550  10.145   9.826
17427SOL    HW254115  13.490  10.118   9.690
17428SOL     OW54116   1.179   6.600   5.497
17428SOL    HW154117   1.187   6.609   5.592
17428SOL    HW254118   1.114   6.666   5.472
17429SOL     OW54119   3.359   9.384   7.140
17429SOL    HW154120   3.446   9.353   7.167
17429SOL    HW254121   3.334   9.325   7.069
17430SOL     OW54122  10.434  13.921   7.091
17430SOL    HW154123  10.378  13.994   7.066
17430SOL    HW254124  10.515  13.935   7.043
17431SOL     OW54125   4.581  10.503   4.750
17431SOL    HW154126   4.612  10.590   4.726
17431SOL    HW254127   4.568  10.508   4.844
17432SOL     OW54128  11.529   6.179   1.066
17432SOL    HW154129  11.457   6.241   1.073
17432SOL    HW254130  11.595   6.225   1.015
17433SOL     OW54131  14.178  12.305   3.130
17433SOL    HW154132  14.187  12.361   3.207
17433SOL    HW254133  14.255  12.325   3.077
17434SOL     OW54134   0.263   2.265  10.264
17434SOL    HW154135   0.297   2.353  10.247
17434SOL    HW254136   0.223   2.271  10.351
17435SOL     OW54137   3.787   1.400  14.076
17435SOL    HW154138   3.702   1.440  14.055
17435SOL    HW254139   3.768   1.340  14.148
17436SOL     OW54140   4.243   9.985   7.541
17436SOL    HW154141   4.319  10.014   7.592
17436SOL    HW254142   4.266  10.006   7.451
17437SOL     OW54143   6.752   5.991  11.013
17437SOL    HW154144   6.784   5.993  10.923
17437SOL    HW254145   6.658   6.002  11.006
17438SOL     OW54146   4.367   6.153   7.697
17438SOL    HW154147   4.311   6.177   7.623
17438SOL    HW254148   4.456   6.167   7.666
17439SOL     OW54149   5.605   6.668   9.050
17439SOL    HW154150   5.589   6.607   9.122
17439SOL    HW254151   5.669   6.623   8.994
17440SOL     OW54152  14.102   2.103   7.231
17440SOL    HW154153  14.030   2.149   7.188
17440SOL    HW254154  14.154   2.069   7.158
17441SOL     OW54155   5.862  12.254   2.772
17441SOL    HW154156   5.782  12.304   2.757
17441SOL    HW254157   5.848  12.212   2.857
17442SOL     OW54158  10.450  10.627  14.346
17442SOL    HW154159  10.535  10.602  14.381
17442SOL    HW254160  10.451  10.594  14.256
17443SOL     OW54161   5.992   4.096  10.836
17443SOL    HW154162   6.008   4.142  10.918
17443SOL    HW254163   6.053   4.137  10.774
17444SOL     OW54164   3.174   9.517  11.494
17444SOL    HW154165   3.150   9.605  11.463
17444SOL    HW254166   3.091   9.469  11.496
17445SOL     OW54167   6.518   0.362   3.193
17445SOL    HW154168   6.490   0.418   3.265
17445SOL    HW254169   6.544   0.423   3.124
17446SOL     OW54170   9.508   5.883   6.854
17446SOL    HW154171   9.510   5.961   6.799
17446SOL    HW254172   9.430   5.835   6.824
17447SOL     OW54173   1.639   1.823   3.271
17447SOL    HW154174   1.667   1.747   3.219
17447SOL    HW254175   1.603   1.884   3.207
17448SOL     OW54176   3.606   2.476  11.925
17448SOL    HW154177   3.547   2.446  11.994
17448SOL    HW254178   3.693   2.469  11.963
17449SOL     OW54179   6.021   4.552   4.435
17449SOL    HW154180   6.089   4.515   4.492
17449SOL    HW254181   5.946   4.566   4.493
17450SOL     OW54182   6.045   3.924  11.770
17450SOL    HW154183   6.054   3.855  11.705
17450SOL    HW254184   5.954   3.918  11.799
17451SOL     OW54185   7.944   2.956  10.218
17451SOL    HW154186   7.898   3.040  10.220
17451SOL    HW254187   7.901   2.903  10.285
17452SOL     OW54188  14.540   7.595   4.057
17452SOL    HW154189  14.498   7.657   4.116
17452SOL    HW254190  14.522   7.509   4.094
17453SOL     OW54191   4.492  11.657  12.467
17453SOL    HW154192   4.500  11.722  12.537
17453SOL    HW254193   4.429  11.593  12.501
17454SOL     OW54194   3.396   5.928  14.066
17454SOL    HW154195   3.435   5.901  13.983
17454SOL    HW254196   3.394   5.848  14.119
17455SOL     OW54197  12.121  14.445   6.541
17455SOL    HW154198  12.108  14.529   6.584
17455SOL    HW254199  12.101  14.461   6.448
17456SOL     OW54200  13.940   4.116   8.524
17456SOL    HW154201  13.956   4.046   8.461
17456SOL    HW254202  14.026   4.137   8.559
17457SOL     OW54203   0.074  12.056   9.691
17457SOL    HW154204   0.075  11.973   9.738
17457SOL    HW254205   0.123  12.039   9.610
17458SOL     OW54206  13.290   2.184   3.485
17458SOL    HW154207  13.208   2.232   3.472
17458SOL    HW254208  13.358   2.251   3.478
17459SOL     OW54209  10.697   9.024   7.271
17459SOL    HW154210  10.627   9.077   7.308
17459SOL    HW254211  10.655   8.941   7.248
17460SOL     OW54212  10.992   7.227   5.636
17460SOL    HW154213  10.940   7.296   5.596
17460SOL    HW254214  11.048   7.272   5.699
17461SOL     OW54215   9.618   5.279   2.359
17461SOL    HW154216   9.656   5.222   2.426
17461SOL    HW254217   9.525   5.286   2.384
17462SOL     OW54218  13.512   1.345   8.949
17462SOL    HW154219  13.474   1.430   8.927
17462SOL    HW254220  13.593   1.341   8.899
17463SOL     OW54221   2.747   8.669   1.488
17463SOL    HW154222   2.756   8.619   1.406
17463SOL    HW254223   2.805   8.744   1.477
17464SOL     OW54224  13.962   9.780   9.290
17464SOL    HW154225  14.002   9.743   9.369
17464SOL    HW254226  14.008   9.737   9.218
17465SOL     OW54227  11.476  11.802   9.340
17465SOL    HW154228  11.431  11.807   9.255
17465SOL    HW254229  11.523  11.885   9.348
17466SOL     OW54230   2.114  14.608   1.003
17466SOL    HW154231   2.209  14.596   0.997
17466SOL    HW254232   2.077  14.523   0.980
17467SOL     OW54233   8.699   4.341   0.662
17467SOL    HW154234   8.656   4.264   0.625
17467SOL    HW254235   8.687   4.332   0.757
17468SOL     OW54236   5.817  10.906   5.379
17468SOL    HW154237   5.759  10.872   5.447
17468SOL    HW254238   5.891  10.845   5.378
17469SOL     OW54239   9.887   4.291  10.732
17469SOL    HW154240   9.930   4.211  10.761
17469SOL    HW254241   9.823   4.310  10.800
17470SOL     OW54242  11.354   0.983   4.021
17470SOL    HW154243  11.357   0.887   4.029
17470SOL    HW254244  11.394   1.015   4.102
17471SOL     OW54245   4.099   3.140  12.998
17471SOL    HW154246   4.043   3.164  13.072
17471SOL    HW254247   4.067   3.055  12.970
17472SOL     OW54248  12.749   9.036   2.285
17472SOL    HW154249  12.746   9.090   2.205
17472SOL    HW254250  12.778   8.950   2.254
17473SOL     OW54251   7.424   1.263  12.811
17473SOL    HW154252   7.452   1.183  12.766
17473SOL    HW254253   7.394   1.232  12.897
17474SOL     OW54254   0.901   4.225  12.374
17474SOL    HW154255   0.866   4.140  12.399
17474SOL    HW254256   0.823   4.278  12.354
17475SOL     OW54257   2.068   1.011   5.694
17475SOL    HW154258   2.142   1.027   5.752
17475SOL    HW254259   2.001   0.973   5.750
17476SOL     OW54260   0.992  11.324  14.723
17476SOL    HW154261   0.897  11.331  14.714
17476SOL    HW254262   1.025  11.320  14.634
17477SOL     OW54263  11.513   0.197   4.133
17477SOL    HW154264  11.523   0.104   4.150
17477SOL    HW254265  11.595   0.236   4.165
17478SOL     OW54266   0.085   6.567   4.082
17478SOL    HW154267   0.117   6.634   4.144
17478SOL    HW254268   0.102   6.605   3.996
17479SOL     OW54269   2.720   4.689   7.302
17479SOL    HW154270   2.720   4.696   7.206
17479SOL    HW254271   2.652   4.751   7.330
17480SOL     OW54272   2.232   2.780   5.787
17480SOL    HW154273   2.326   2.779   5.807
17480SOL    HW254274   2.219   2.709   5.725
17481SOL     OW54275  12.164  10.059  10.368
17481SOL    HW154276  12.192  10.150  10.375
17481SOL    HW254277  12.140  10.034  10.457
17482SOL     OW54278   8.956   6.960   4.072
17482SOL    HW154279   8.999   7.013   4.140
17482SOL    HW254280   8.948   6.873   4.112
17483SOL     OW54281   2.551  10.206   4.134
17483SOL    HW154282   2.605  10.186   4.058
17483SOL    HW254283   2.510  10.123   4.156
17484SOL     OW54284   9.717  13.839   3.735
17484SOL    HW154285   9.660  13.888   3.794
17484SOL    HW254286   9.660  13.813   3.663
17485SOL     OW54287   9.083   3.077   7.545
17485SOL    HW154288   9.008   3.086   7.486
17485SOL    HW254289   9.131   3.000   7.512
17486SOL     OW54290   6.490  13.422   5.786
17486SOL    HW154291   6.429  13.436   5.713
17486SOL    HW254292   6.522  13.510   5.807
17487SOL     OW54293   1.038   4.420  14.569
17487SOL    HW154294   1.051   4.402  14.476
17487SOL    HW254295   1.054   4.336  14.612
17488SOL     OW54296  12.525   5.830   6.474
17488SOL    HW154297  12.541   5.777   6.395
17488SOL    HW254298  12.527   5.920   6.443
17489SOL     OW54299   5.879   5.013   3.148
17489SOL    HW154300   5.838   5.010   3.061
17489SOL    HW254301   5.807   5.038   3.207
17490SOL     OW54302   1.627  12.678   4.265
17490SOL    HW154303   1.626  12.613   4.335
17490SOL    HW254304   1.540  12.717   4.266
17491SOL     OW54305   0.740  11.704  12.769
17491SOL    HW154306   0.723  11.701  12.674
17491SOL    HW254307   0.655  11.685  12.808
17492SOL     OW54308   0.371  14.424   9.454
17492SOL    HW154309   0.287  14.469   9.452
17492SOL    HW254310   0.406  14.435   9.365
17493SOL     OW54311  14.352  12.918   0.898
17493SOL    HW154312  14.334  12.931   0.805
17493SOL    HW254313  14.287  12.972   0.943
17494SOL     OW54314  10.491   9.345   5.346
17494SOL    HW154315  10.514   9.282   5.277
17494SOL    HW254316  10.456   9.291   5.417
17495SOL     OW54317   4.849  12.784  13.035
17495SOL    HW154318   4.867  12.729  12.958
17495SOL    HW254319   4.754  12.779  13.047
17496SOL     OW54320   1.658   1.495  12.735
17496SOL    HW154321   1.743   1.504  12.777
17496SOL    HW254322   1.671   1.529  12.647
17497SOL     OW54323   7.930   2.723  14.681
17497SOL    HW154324   7.898   2.778  14.610
17497SOL    HW254325   7.984   2.657  14.639
17498SOL     OW54326   8.122   8.196   4.987
17498SOL    HW154327   8.080   8.279   4.968
17498SOL    HW254328   8.183   8.215   5.058
17499SOL     OW54329   8.776   2.590   5.208
17499SOL    HW154330   8.743   2.653   5.272
17499SOL    HW254331   8.713   2.594   5.136
17500SOL     OW54332  13.614   9.849   2.066
17500SOL    HW154333  13.549   9.812   2.005
17500SOL    HW254334  13.695   9.854   2.014
17501SOL     OW54335  14.019   3.283   4.489
17501SOL    HW154336  14.000   3.376   4.499
17501SOL    HW254337  14.017   3.268   4.394
17502SOL     OW54338  10.119   7.002   9.597
17502SOL    HW154339  10.048   6.942   9.574
17502SOL    HW254340  10.134   6.988   9.690
17503SOL     OW54341  10.009   9.649   2.416
17503SOL    HW154342   9.947   9.682   2.350
17503SOL    HW254343  10.091   9.695   2.397
17504SOL     OW54344   4.927   9.669   4.370
17504SOL    HW154345   4.909   9.631   4.457
17504SOL    HW254346   4.965   9.755   4.389
17505SOL     OW54347   5.265  13.226  11.271
17505SOL    HW154348   5.310  13.309  11.252
17505SOL    HW254349   5.178  13.237  11.234
17506SOL     OW54350   0.556   8.187  10.843
17506SOL    HW154351   0.566   8.278  10.816
17506SOL    HW254352   0.645   8.158  10.863
17507SOL     OW54353   3.218  13.207  14.427
17507SOL    HW154354   3.293  13.255  14.393
17507SOL    HW254355   3.229  13.207  14.522
17508SOL     OW54356   1.125   8.438   8.841
17508SOL    HW154357   1.038   8.422   8.878
17508SOL    HW254358   1.181   8.452   8.918
17509SOL     OW54359   6.489   5.595   0.583
17509SOL    HW154360   6.441   5.514   0.566
17509SOL    HW254361   6.573   5.566   0.618
17510SOL     OW54362   5.062   9.413  12.493
17510SOL    HW154363   5.006   9.336  12.486
17510SOL    HW254364   5.121   9.407  12.418
17511SOL     OW54365  12.263  11.739   2.150
17511SOL    HW154366  12.260  11.715   2.057
17511SOL    HW254367  12.196  11.806   2.160
17512SOL     OW54368   4.068   2.966   4.945
17512SOL    HW154369   4.147   3.014   4.922
17512SOL    HW254370   4.018   3.026   5.000
17513SOL     OW54371   9.594   4.934  12.979
17513SOL    HW154372   9.602   4.930  13.074
17513SOL    HW254373   9.672   4.981  12.950
17514SOL     OW54374   7.708   8.584  13.258
17514SOL    HW154375   7.693   8.567  13.165
17514SOL    HW254376   7.801   8.604  13.264
17515SOL     OW54377   9.030   1.754   3.068
17515SOL    HW154378   9.073   1.808   3.134
17515SOL    HW254379   9.065   1.666   3.082
17516SOL     OW54380   1.723  14.572  12.113
17516SOL    HW154381   1.807  14.613  12.092
17516SOL    HW254382   1.709  14.591  12.205
17517SOL     OW54383   8.316   5.524   0.722
17517SOL    HW154384   8.323   5.429   0.708
17517SOL    HW254385   8.330   5.562   0.636
17518SOL     OW54386  13.317  14.011   3.852
17518SOL    HW154387  13.407  14.040   3.836
17518SOL    HW254388  13.278  14.004   3.765
17519SOL     OW54389  13.742   0.776   5.939
17519SOL    HW154390  13.700   0.691   5.941
17519SOL    HW254391  13.748   0.803   6.031
17520SOL     OW54392   8.003   9.659  14.685
17520SOL    HW154393   8.036   9.706  14.608
17520SOL    HW254394   7.997   9.727  14.753
17521SOL     OW54395   4.460   0.337   2.570
17521SOL    HW154396   4.535   0.386   2.537
17521SOL    HW254397   4.477   0.327   2.664
17522SOL     OW54398   8.681   3.067   6.189
17522SOL    HW154399   8.643   3.141   6.142
17522SOL    HW254400   8.642   2.990   6.148
17523SOL     OW54401   2.036  13.497   4.873
17523SOL    HW154402   1.944  13.519   4.887
17523SOL    HW254403   2.053  13.521   4.782
17524SOL     OW54404  13.931   2.691  14.097
17524SOL    HW154405  13.931   2.611  14.150
17524SOL    HW254406  13.965   2.759  14.156
17525SOL     OW54407  14.644   9.227  13.532
17525SOL    HW154408  14.583   9.154  13.525
17525SOL    HW254409  14.589   9.305  13.531
17526SOL     OW54410  10.134  10.480  12.694
17526SOL    HW154411  10.153  10.397  12.738
17526SOL    HW254412  10.208  10.537  12.716
17527SOL     OW54413   6.856   7.807   8.788
17527SOL    HW154414   6.864   7.790   8.694
17527SOL    HW254415   6.819   7.896   8.792
17528SOL     OW54416  13.852   3.141  13.340
17528SOL    HW154417  13.920   3.104  13.284
17528SOL    HW254418  13.770   3.105  13.307
17529SOL     OW54419  13.951   8.795   4.181
17529SOL    HW154420  13.939   8.702   4.162
17529SOL    HW254421  14.026   8.798   4.240
17530SOL     OW54422   3.627  14.310  11.417
17530SOL    HW154423   3.684  14.326  11.342
17530SOL    HW254424   3.542  14.346  11.392
17531SOL     OW54425   9.052  14.591  11.114
17531SOL    HW154426   9.018  14.572  11.027
17531SOL    HW254427   9.142  14.620  11.099
17532SOL     OW54428  14.120  10.612  12.540
17532SOL    HW154429  14.068  10.577  12.468
17532SOL    HW254430  14.073  10.585  12.619
17533SOL     OW54431   9.350   1.432   1.880
17533SOL    HW154432   9.294   1.356   1.864
17533SOL    HW254433   9.437   1.404   1.853
17534SOL     OW54434   6.733   4.996  14.414
17534SOL    HW154435   6.777   5.074  14.447
17534SOL    HW254436   6.796   4.958  14.353
17535SOL     OW54437   0.440  10.342   3.039
17535SOL    HW154438   0.467  10.271   3.097
17535SOL    HW254439   0.423  10.416   3.097
17536SOL     OW54440   8.633  13.167   9.846
17536SOL    HW154441   8.607  13.255   9.873
17536SOL    HW254442   8.727  13.173   9.830
17537SOL     OW54443  12.945   3.382   4.572
17537SOL    HW154444  13.028   3.402   4.529
17537SOL    HW254445  12.931   3.455   4.632
17538SOL     OW54446   1.543  11.211   2.216
17538SOL    HW154447   1.553  11.153   2.291
17538SOL    HW254448   1.448  11.217   2.203
17539SOL     OW54449   5.978   4.863   9.112
17539SOL    HW154450   5.946   4.878   9.201
17539SOL    HW254451   5.903   4.824   9.066
17540SOL     OW54452   8.772  10.999   9.420
17540SOL    HW154453   8.767  11.094   9.421
17540SOL    HW254454   8.686  10.970   9.450
17541SOL     OW54455  14.201  10.590  14.230
17541SOL    HW154456  14.137  10.639  14.282
17541SOL    HW254457  14.196  10.630  14.143
17542SOL     OW54458  13.719   5.330   8.681
17542SOL    HW154459  13.751   5.416   8.705
17542SOL    HW254460  13.652   5.310   8.746
17543SOL     OW54461   7.758  13.304   4.088
17543SOL    HW154462   7.744  13.338   3.999
17543SOL    HW254463   7.713  13.367   4.145
17544SOL     OW54464  12.403   3.960  13.113
17544SOL    HW154465  12.431   3.938  13.024
17544SOL    HW254466  12.483   3.990  13.157
17545SOL     OW54467   8.393   1.882   9.003
17545SOL    HW154468   8.390   1.950   8.935
17545SOL    HW254469   8.472   1.902   9.053
17546SOL     OW54470  13.795   7.909   7.927
17546SOL    HW154471  13.765   7.990   7.885
17546SOL    HW254472  13.737   7.898   8.002
17547SOL     OW54473   5.699   3.801   7.551
17547SOL    HW154474   5.790   3.825   7.569
17547SOL    HW254475   5.686   3.719   7.598
17548SOL     OW54476  11.556  13.720   5.522
17548SOL    HW154477  11.588  13.758   5.604
17548SOL    HW254478  11.517  13.794   5.475
17549SOL     OW54479   3.336   6.699  11.295
17549SOL    HW154480   3.412   6.756  11.298
17549SOL    HW254481   3.369   6.618  11.254
17550SOL     OW54482  10.597   8.318   5.385
17550SOL    HW154483  10.560   8.237   5.348
17550SOL    HW254484  10.566   8.387   5.327
17551SOL     OW54485   9.574   1.053  12.178
17551SOL    HW154486   9.647   0.994  12.195
17551SOL    HW254487   9.518   1.045  12.255
17552SOL     OW54488   3.966  12.651   5.116
17552SOL    HW154489   3.986  12.743   5.130
17552SOL    HW254490   3.872  12.644   5.133
17553SOL     OW54491   0.387   7.499   8.844
17553SOL    HW154492   0.331   7.542   8.779
17553SOL    HW254493   0.336   7.425   8.875
17554SOL     OW54494   9.895   4.066   9.939
17554SOL    HW154495   9.970   4.108   9.983
17554SOL    HW254496   9.821   4.084   9.997
17555SOL     OW54497   4.495   2.282   6.089
17555SOL    HW154498   4.515   2.274   6.182
17555SOL    HW254499   4.547   2.357   6.060
17556SOL     OW54500   4.473   6.806   9.544
17556SOL    HW154501   4.394   6.768   9.582
17556SOL    HW254502   4.544   6.775   9.600
17557SOL     OW54503  13.254  14.605  10.658
17557SOL    HW154504  13.233  14.687  10.702
17557SOL    HW254505  13.230  14.537  10.721
17558SOL     OW54506   8.099   8.141  10.562
17558SOL    HW154507   8.125   8.140  10.470
17558SOL    HW254508   8.180   8.158  10.609
17559SOL     OW54509   9.195   5.953   1.862
17559SOL    HW154510   9.240   5.923   1.941
17559SOL    HW254511   9.218   5.888   1.795
17560SOL     OW54512   8.280   1.530  14.481
17560SOL    HW154513   8.191   1.508  14.510
17560SOL    HW254514   8.324   1.446  14.473
17561SOL     OW54515   6.334   7.578  14.741
17561SOL    HW154516   6.316   7.489  14.710
17561SOL    HW254517   6.382   7.566  14.822
17562SOL     OW54518  10.039   2.831   2.572
17562SOL    HW154519  10.050   2.768   2.643
17562SOL    HW254520  10.108   2.809   2.509
17563SOL     OW54521   0.691   4.152   8.217
17563SOL    HW154522   0.692   4.234   8.266
17563SOL    HW254523   0.744   4.092   8.270
17564SOL     OW54524  11.709   9.210  11.859
17564SOL    HW154525  11.723   9.122  11.824
17564SOL    HW254526  11.795   9.237  11.892
17565SOL     OW54527   8.340   4.345   9.685
17565SOL    HW154528   8.263   4.381   9.729
17565SOL    HW254529   8.311   4.259   9.653
17566SOL     OW54530   1.833  14.294   5.629
17566SOL    HW154531   1.864  14.228   5.568
17566SOL    HW254532   1.811  14.245   5.708
17567SOL     OW54533   3.332   7.843  10.871
17567SOL    HW154534   3.261   7.894  10.909
17567SOL    HW254535   3.339   7.876  10.781
17568SOL     OW54536   7.170   1.598   3.600
17568SOL    HW154537   7.250   1.588   3.651
17568SOL    HW254538   7.163   1.516   3.551
17569SOL     OW54539  10.235   1.549   6.157
17569SOL    HW154540  10.223   1.472   6.101
17569SOL    HW254541  10.330   1.563   6.158
17570SOL     OW54542   2.698   0.014  14.508
17570SOL    HW154543   2.620   0.054  14.472
17570SOL    HW254544   2.769   0.040  14.449
17571SOL     OW54545   8.266   0.384  11.329
17571SOL    HW154546   8.308   0.414  11.249
17571SOL    HW254547   8.240   0.464  11.374
17572SOL     OW54548  14.142   3.998  10.390
17572SOL    HW154549  14.102   3.947  10.459
17572SOL    HW254550  14.070   4.022  10.332
17573SOL     OW54551   0.580   1.389   5.754
17573SOL    HW154552   0.617   1.441   5.824
17573SOL    HW254553   0.608   1.432   5.673
17574SOL     OW54554   2.656  12.898   1.192
17574SOL    HW154555   2.673  12.918   1.099
17574SOL    HW254556   2.682  12.807   1.201
17575SOL     OW54557   7.966  10.278  14.185
17575SOL    HW154558   7.978  10.283  14.090
17575SOL    HW254559   7.952  10.185  14.202
17576SOL     OW54560  13.888  12.125   2.815
17576SOL    HW154561  13.815  12.151   2.759
17576SOL    HW254562  13.952  12.196   2.803
17577SOL     OW54563   8.880   7.390   0.197
17577SOL    HW154564   8.973   7.379   0.212
17577SOL    HW254565   8.840   7.387   0.284
17578SOL     OW54566  13.110   7.626  14.039
17578SOL    HW154567  13.069   7.599  14.120
17578SOL    HW254568  13.041   7.670  13.989
17579SOL     OW54569   8.047   6.651  13.621
17579SOL    HW154570   8.041   6.744  13.600
17579SOL    HW254571   8.139   6.628  13.606
17580SOL     OW54572   7.979   3.186   9.094
17580SOL    HW154573   7.927   3.141   9.028
17580SOL    HW254574   7.917   3.241   9.141
17581SOL     OW54575  10.054  14.802   8.855
17581SOL    HW154576  10.120  14.864   8.886
17581SOL    HW254577  10.095  14.758   8.781
17582SOL     OW54578  10.819   1.049   2.336
17582SOL    HW154579  10.903   1.004   2.337
17582SOL    HW254580  10.823   1.104   2.257
17583SOL     OW54581   2.097   0.363   1.758
17583SOL    HW154582   2.037   0.313   1.703
17583SOL    HW254583   2.153   0.411   1.697
17584SOL     OW54584   7.449   1.731  14.357
17584SOL    HW154585   7.394   1.666  14.315
17584SOL    HW254586   7.502   1.682  14.420
17585SOL     OW54587  11.941  12.221  10.089
17585SOL    HW154588  11.855  12.247  10.123
17585SOL    HW254589  11.933  12.128  10.070
17586SOL     OW54590   6.208  12.458   2.376
17586SOL    HW154591   6.176  12.396   2.442
17586SOL    HW254592   6.161  12.433   2.296
17587SOL     OW54593   0.769   5.416  11.962
17587SOL    HW154594   0.819   5.386  12.038
17587SOL    HW254595   0.718   5.490  11.994
17588SOL     OW54596  10.483  10.481   4.523
17588SOL    HW154597  10.564  10.492   4.572
17588SOL    HW254598  10.456  10.391   4.541
17589SOL     OW54599  13.452  14.154  12.674
17589SOL    HW154600  13.466  14.113  12.759
17589SOL    HW254601  13.525  14.214  12.664
17590SOL     OW54602   4.945   8.818  11.078
17590SOL    HW154603   4.988   8.899  11.051
17590SOL    HW254604   4.860   8.846  11.113
17591SOL     OW54605   0.806  10.545   8.038
17591SOL    HW154606   0.874  10.480   8.024
17591SOL    HW254607   0.804  10.596   7.957
17592SOL     OW54608   0.745   0.333   0.482
17592SOL    HW154609   0.743   0.347   0.387
17592SOL    HW254610   0.653   0.318   0.506
17593SOL     OW54611  12.676   8.462  12.617
17593SOL    HW154612  12.601   8.470  12.559
17593SOL    HW254613  12.752   8.473  12.560
17594SOL     OW54614  13.176   6.116   5.401
17594SOL    HW154615  13.097   6.143   5.353
17594SOL    HW254616  13.202   6.033   5.361
17595SOL     OW54617   8.598   6.931  11.682
17595SOL    HW154618   8.589   7.025  11.692
17595SOL    HW254619   8.647   6.920  11.600
17596SOL     OW54620  11.599  12.594  14.000
17596SOL    HW154621  11.513  12.588  14.040
17596SOL    HW254622  11.584  12.632  13.914
17597SOL     OW54623   1.210   4.628   2.126
17597SOL    HW154624   1.119   4.600   2.111
17597SOL    HW254625   1.211   4.721   2.101
17598SOL     OW54626   0.081   8.451   7.886
17598SOL    HW154627   0.055   8.391   7.815
17598SOL    HW254628   0.174   8.466   7.871
17599SOL     OW54629  10.835   7.365   5.483
17599SOL    HW154630  10.817   7.272   5.475
17599SOL    HW254631  10.750   7.405   5.503
17600SOL     OW54632   6.513   5.895   4.125
17600SOL    HW154633   6.468   5.914   4.207
17600SOL    HW254634   6.508   5.977   4.075
17601SOL     OW54635   9.837   3.326  10.677
17601SOL    HW154636   9.875   3.241  10.655
17601SOL    HW254637   9.749   3.306  10.707
17602SOL     OW54638   5.964   9.361  13.529
17602SOL    HW154639   5.922   9.447  13.533
17602SOL    HW254640   6.023   9.360  13.604
17603SOL     OW54641   6.395  12.283   9.208
17603SOL    HW154642   6.487  12.259   9.220
17603SOL    HW254643   6.359  12.214   9.151
17604SOL     OW54644   1.835   5.032  10.588
17604SOL    HW154645   1.926   5.026  10.560
17604SOL    HW254646   1.787   5.057  10.509
17605SOL     OW54647   9.253   6.647   7.042
17605SOL    HW154648   9.250   6.551   7.039
17605SOL    HW254649   9.196   6.675   6.971
17606SOL     OW54650  14.518   9.304   7.029
17606SOL    HW154651  14.499   9.328   7.120
17606SOL    HW254652  14.435   9.272   6.995
17607SOL     OW54653  12.624  14.717   9.841
17607SOL    HW154654  12.609  14.653   9.910
17607SOL    HW254655  12.572  14.686   9.767
17608SOL     OW54656  11.601   3.044   3.570
17608SOL    HW154657  11.617   3.012   3.482
17608SOL    HW254658  11.544   2.979   3.610
17609SOL     OW54659  14.434   4.578   0.213
17609SOL    HW154660  14.353   4.529   0.226
17609SOL    HW254661  14.424   4.618   0.126
17610SOL     OW54662  10.480  12.742   2.231
17610SOL    HW154663  10.547  12.698   2.178
17610SOL    HW254664  10.406  12.681   2.232
17611SOL     OW54665   1.973  11.362  11.906
17611SOL    HW154666   1.888  11.383  11.866
17611SOL    HW254667   2.034  11.358  11.832
17612SOL     OW54668  13.280   3.940   0.982
17612SOL    HW154669  13.294   3.850   0.953
17612SOL    HW254670  13.202   3.935   1.037
17613SOL     OW54671  11.548   7.637  13.337
17613SOL    HW154672  11.453   7.631  13.327
17613SOL    HW254673  11.566   7.731  13.336
17614SOL     OW54674  10.121   0.647   3.389
17614SOL    HW154675  10.080   0.652   3.476
17614SOL    HW254676  10.120   0.738   3.357
17615SOL     OW54677  12.808   0.876  14.365
17615SOL    HW154678  12.729   0.852  14.412
17615SOL    HW254679  12.855   0.935  14.425
17616SOL     OW54680   8.991  12.409   3.185
17616SOL    HW154681   9.030  12.408   3.272
17616SOL    HW254682   9.034  12.482   3.141
17617SOL     OW54683   3.681  13.664  14.755
17617SOL    HW154684   3.623  13.588  14.753
17617SOL    HW254685   3.732  13.657  14.674
17618SOL     OW54686   8.309   3.633  11.979
17618SOL    HW154687   8.232   3.603  12.028
17618SOL    HW254688   8.296   3.728  11.972
17619SOL     OW54689   2.590  11.002   2.236
17619SOL    HW154690   2.639  10.925   2.207
17619SOL    HW254691   2.647  11.043   2.301
17620SOL     OW54692   0.926   9.736   1.391
17620SOL    HW154693   0.888   9.822   1.405
17620SOL    HW254694   0.862   9.675   1.429
17621SOL     OW54695   9.456  12.225   0.622
17621SOL    HW154696   9.528  12.284   0.644
17621SOL    HW254697   9.486  12.178   0.543
17622SOL     OW54698  10.331   9.732   0.543
17622SOL    HW154699  10.273   9.668   0.503
17622SOL    HW254700  10.308   9.732   0.636
17623SOL     OW54701   8.272   3.739  14.124
17623SOL    HW154702   8.346   3.679  14.117
17623SOL    HW254703   8.265   3.778  14.036
17624SOL     OW54704  13.449   2.886   2.350
17624SOL    HW154705  13.407   2.844   2.425
17624SOL    HW254706  13.376   2.911   2.293
17625SOL     OW54707   9.107   5.518   0.363
17625SOL    HW154708   9.102   5.525   0.268
17625SOL    HW254709   9.038   5.455   0.386
17626SOL     OW54710  14.820   5.688   7.753
17626SOL    HW154711  14.835   5.646   7.838
17626SOL    HW254712  14.810   5.781   7.774
17627SOL     OW54713  11.404   6.656   9.613
17627SOL    HW154714  11.318   6.621   9.592
17627SOL    HW254715  11.463   6.615   9.550
17628SOL     OW54716   2.459   1.024   3.429
17628SOL    HW154717   2.476   1.054   3.339
17628SOL    HW254718   2.409   1.095   3.469
17629SOL     OW54719   0.984  13.530   0.620
17629SOL    HW154720   0.894  13.535   0.587
17629SOL    HW254721   0.975  13.525   0.715
17630SOL     OW54722   5.650   8.281   1.435
17630SOL    HW154723   5.635   8.195   1.474
17630SOL    HW254724   5.576   8.334   1.464
17631SOL     OW54725   5.440  12.851   0.880
17631SOL    HW154726   5.512  12.891   0.831
17631SOL    HW254727   5.383  12.925   0.903
17632SOL     OW54728  12.491  14.181  13.979
17632SOL    HW154729  12.512  14.227  14.060
17632SOL    HW254730  12.428  14.113  14.006
17633SOL     OW54731   2.301   2.346   2.633
17633SOL    HW154732   2.264   2.316   2.550
17633SOL    HW254733   2.229   2.340   2.695
17634SOL     OW54734  13.801   6.575   2.289
17634SOL    HW154735  13.723   6.572   2.346
17634SOL    HW254736  13.771   6.620   2.210
17635SOL     OW54737  12.015  12.781   6.059
17635SOL    HW154738  12.056  12.707   6.016
17635SOL    HW254739  11.987  12.839   5.988
17636SOL     OW54740   0.469  14.736  10.240
17636SOL    HW154741   0.434  14.652  10.212
17636SOL    HW254742   0.427  14.800  10.182
17637SOL     OW54743   8.954  10.107   1.686
17637SOL    HW154744   9.004  10.068   1.615
17637SOL    HW254745   8.962  10.045   1.758
17638SOL     OW54746   3.840   9.069   8.461
17638SOL    HW154747   3.787   9.110   8.530
17638SOL    HW254748   3.834   8.975   8.477
17639SOL     OW54749   3.462   9.151   3.208
17639SOL    HW154750   3.385   9.110   3.246
17639SOL    HW254751   3.536   9.100   3.241
17640SOL     OW54752   5.537   1.816  10.218
17640SOL    HW154753   5.612   1.818  10.158
17640SOL    HW254754   5.531   1.725  10.245
17641SOL     OW54755   6.040  10.972   3.362
17641SOL    HW154756   6.090  10.934   3.435
17641SOL    HW254757   6.097  10.962   3.286
17642SOL     OW54758   3.915  12.692   2.210
17642SOL    HW154759   3.873  12.616   2.252
17642SOL    HW254760   3.925  12.666   2.119
17643SOL     OW54761  10.083   1.143  12.285
17643SOL    HW154762  10.110   1.151  12.193
17643SOL    HW254763  10.151   1.091  12.326
17644SOL     OW54764  14.631   3.277   1.446
17644SOL    HW154765  14.717   3.243   1.423
17644SOL    HW254766  14.580   3.272   1.364
17645SOL     OW54767   0.463  11.928   2.259
17645SOL    HW154768   0.453  11.834   2.248
17645SOL    HW254769   0.391  11.954   2.316
17646SOL     OW54770   6.870   5.053   9.996
17646SOL    HW154771   6.935   4.982   9.994
17646SOL    HW254772   6.790   5.011  10.026
17647SOL     OW54773  10.991   1.052  13.847
17647SOL    HW154774  11.082   1.065  13.873
17647SOL    HW254775  10.969   1.132  13.798
17648SOL     OW54776   3.808   1.372   7.891
17648SOL    HW154777   3.828   1.302   7.953
17648SOL    HW254778   3.850   1.449   7.929
17649SOL     OW54779   3.087   0.461  12.440
17649SOL    HW154780   3.092   0.369  12.466
17649SOL    HW254781   3.036   0.503  12.510
17650SOL     OW54782   0.048   3.615  14.188
17650SOL    HW154783  14.856   3.678  14.179
17650SOL    HW254784   0.075   3.621  14.280
17651SOL     OW54785   3.637  13.296   4.338
17651SOL    HW154786   3.711  13.348   4.308
17651SOL    HW254787   3.633  13.312   4.432
17652SOL     OW54788   0.594   0.975   5.554
17652SOL    HW154789   0.641   1.036   5.610
17652SOL    HW254790   0.561   1.029   5.482
17653SOL     OW54791   5.425  11.966  12.786
17653SOL    HW154792   5.462  11.878  12.794
17653SOL    HW254793   5.501  12.024  12.790
17654SOL     OW54794   1.774   6.962  11.593
17654SOL    HW154795   1.784   6.868  11.602
17654SOL    HW254796   1.708   6.986  11.658
17655SOL     OW54797   8.579  11.812  13.792
17655SOL    HW154798   8.643  11.861  13.844
17655SOL    HW254799   8.632  11.754  13.738
17656SOL     OW54800  13.356  14.374   0.876
17656SOL    HW154801  13.336  14.462   0.908
17656SOL    HW254802  13.440  14.352   0.917
17657SOL     OW54803   3.289  10.736  13.039
17657SOL    HW154804   3.321  10.824  13.017
17657SOL    HW254805   3.238  10.709  12.963
17658SOL     OW54806   0.082   9.860   2.039
17658SOL    HW154807   0.006   9.897   2.084
17658SOL    HW254808   0.050   9.779   2.000
17659SOL     OW54809   8.087   0.853   5.197
17659SOL    HW154810   8.129   0.906   5.130
17659SOL    HW254811   8.046   0.781   5.149
17660SOL     OW54812   9.059   6.629   2.023
17660SOL    HW154813   9.138   6.577   2.004
17660SOL    HW254814   9.081   6.679   2.101
17661SOL     OW54815   2.646   7.197   0.592
17661SOL    HW154816   2.715   7.214   0.528
17661SOL    HW254817   2.665   7.257   0.664
17662SOL     OW54818   1.105   5.023  13.688
17662SOL    HW154819   1.061   4.944  13.718
17662SOL    HW254820   1.190   5.021  13.731
17663SOL     OW54821   5.144   2.254  11.054
17663SOL    HW154822   5.104   2.339  11.072
17663SOL    HW254823   5.129   2.203  11.133
17664SOL     OW54824   1.895   7.904   3.992
17664SOL    HW154825   1.923   7.893   3.901
17664SOL    HW254826   1.807   7.939   3.986
17665SOL     OW54827  11.298   9.389   4.152
17665SOL    HW154828  11.270   9.308   4.109
17665SOL    HW254829  11.318   9.362   4.242
17666SOL     OW54830   9.163   1.957  12.318
17666SOL    HW154831   9.196   1.895  12.383
17666SOL    HW254832   9.070   1.936  12.309
17667SOL     OW54833  12.467   9.099   3.691
17667SOL    HW154834  12.383   9.121   3.652
17667SOL    HW254835  12.511   9.044   3.626
17668SOL     OW54836   5.797   2.486  12.635
17668SOL    HW154837   5.766   2.488  12.725
17668SOL    HW254838   5.725   2.523  12.584
17669SOL     OW54839   2.941  12.467   2.053
17669SOL    HW154840   2.901  12.479   2.139
17669SOL    HW254841   2.979  12.552   2.032
17670SOL     OW54842   6.736   7.798   3.388
17670SOL    HW154843   6.767   7.713   3.421
17670SOL    HW254844   6.653   7.813   3.433
17671SOL     OW54845   8.116   9.620   5.037
17671SOL    HW154846   8.059   9.622   4.960
17671SOL    HW254847   8.203   9.599   5.003
17672SOL     OW54848   6.921   9.161   2.046
17672SOL    HW154849   6.846   9.194   1.997
17672SOL    HW254850   6.924   9.067   2.026
17673SOL     OW54851   1.863   9.132   0.875
17673SOL    HW154852   1.919   9.162   0.947
17673SOL    HW254853   1.891   9.042   0.859
17674SOL     OW54854   9.208   8.749  10.951
17674SOL    HW154855   9.143   8.703  10.897
17674SOL    HW254856   9.158   8.782  11.026
17675SOL     OW54857   9.496   8.045  13.222
17675SOL    HW154858   9.437   8.082  13.287
17675SOL    HW254859   9.573   8.018  13.273
17676SOL     OW54860   9.169  11.719   5.665
17676SOL    HW154861   9.192  11.658   5.734
17676SOL    HW254862   9.102  11.674   5.614
17677SOL     OW54863  13.500  13.628   1.664
17677SOL    HW154864  13.507  13.642   1.758
17677SOL    HW254865  13.584  13.589   1.639
17678SOL     OW54866  12.643   4.491  14.531
17678SOL    HW154867  12.684   4.411  14.498
17678SOL    HW254868  12.550   4.469  14.537
17679SOL     OW54869   9.311   5.550  14.812
17679SOL    HW154870   9.281   5.623  14.866
17679SOL    HW254871   9.231   5.505  14.785
17680SOL     OW54872   8.512   0.339   1.314
17680SOL    HW154873   8.575   0.377   1.252
17680SOL    HW254874   8.427   0.373   1.285
17681SOL     OW54875   7.432   4.601  13.689
17681SOL    HW154876   7.388   4.681  13.660
17681SOL    HW254877   7.366   4.532  13.678
17682SOL     OW54878   6.777   8.151  10.742
17682SOL    HW154879   6.834   8.086  10.784
17682SOL    HW254880   6.819   8.235  10.760
17683SOL     OW54881   1.220   9.075  12.838
17683SOL    HW154882   1.158   9.033  12.898
17683SOL    HW254883   1.271   9.133  12.894
17684SOL     OW54884  12.659  12.689   0.475
17684SOL    HW154885  12.644  12.778   0.507
17684SOL    HW254886  12.576  12.644   0.490
17685SOL     OW54887  12.768   9.592  10.341
17685SOL    HW154888  12.797   9.658  10.278
17685SOL    HW254889  12.797   9.509  10.304
17686SOL     OW54890  10.407  13.428  12.538
17686SOL    HW154891  10.492  13.429  12.581
17686SOL    HW254892  10.346  13.401  12.607
17687SOL     OW54893   9.750  13.545   7.476
17687SOL    HW154894   9.827  13.561   7.421
17687SOL    HW254895   9.732  13.629   7.517
17688SOL     OW54896   4.984   0.505  11.641
17688SOL    HW154897   4.889   0.500  11.654
17688SOL    HW254898   4.996   0.575  11.578
17689SOL     OW54899   3.770   8.966   9.681
17689SOL    HW154900   3.778   9.061   9.689
17689SOL    HW254901   3.734   8.938   9.765
17690SOL     OW54902   3.882   2.641   8.444
17690SOL    HW154903   3.817   2.591   8.493
17690SOL    HW254904   3.935   2.576   8.399
17691SOL     OW54905   7.972   4.044   6.395
17691SOL    HW154906   7.953   3.977   6.329
17691SOL    HW254907   7.892   4.097   6.400
17692SOL     OW54908  14.490  13.680   2.012
17692SOL    HW154909  14.581  13.680   1.980
17692SOL    HW254910  14.486  13.602   2.069
17693SOL     OW54911  10.570  12.787   0.918
17693SOL    HW154912  10.559  12.863   0.974
17693SOL    HW254913  10.483  12.771   0.882
17694SOL     OW54914  13.974  10.068   3.573
17694SOL    HW154915  13.900  10.055   3.513
17694SOL    HW254916  13.956  10.152   3.615
17695SOL     OW54917  10.351   5.550   1.624
17695SOL    HW154918  10.263   5.547   1.587
17695SOL    HW254919  10.338   5.553   1.719
17696SOL     OW54920   0.869   2.153  10.229
17696SOL    HW154921   0.871   2.072  10.178
17696SOL    HW254922   0.874   2.222  10.163
17697SOL     OW54923   6.717   7.595  12.667
17697SOL    HW154924   6.662   7.592  12.745
17697SOL    HW254925   6.734   7.503  12.646
17698SOL     OW54926  14.044   6.516   9.643
17698SOL    HW154927  14.069   6.527   9.735
17698SOL    HW254928  14.126   6.526   9.594
17699SOL     OW54929   5.532  10.418   4.938
17699SOL    HW154930   5.487  10.469   4.871
17699SOL    HW254931   5.617  10.396   4.899
17700SOL     OW54932   4.963   0.972   2.044
17700SOL    HW154933   4.908   0.902   2.080
17700SOL    HW254934   5.043   0.970   2.096
17701SOL     OW54935   5.472   5.180  14.451
17701SOL    HW154936   5.503   5.157  14.363
17701SOL    HW254937   5.468   5.096  14.498
17702SOL     OW54938   9.520   7.151  10.344
17702SOL    HW154939   9.553   7.166  10.256
17702SOL    HW254940   9.591   7.179  10.402
17703SOL     OW54941   2.352   0.403   8.217
17703SOL    HW154942   2.282   0.343   8.193
17703SOL    HW254943   2.338   0.421   8.310
17704SOL     OW54944   0.222   8.459   2.064
17704SOL    HW154945   0.244   8.380   2.015
17704SOL    HW254946   0.224   8.530   1.999
17705SOL     OW54947   5.753  12.379   6.755
17705SOL    HW154948   5.837  12.403   6.796
17705SOL    HW254949   5.697  12.356   6.829
17706SOL     OW54950   1.151   3.784   1.782
17706SOL    HW154951   1.119   3.866   1.819
17706SOL    HW254952   1.190   3.737   1.856
17707SOL     OW54953   8.346  14.616  10.325
17707SOL    HW154954   8.316  14.664  10.402
17707SOL    HW254955   8.440  14.606  10.337
17708SOL     OW54956   9.582   0.131   3.232
17708SOL    HW154957   9.647   0.143   3.301
17708SOL    HW254958   9.619   0.178   3.156
17709SOL     OW54959   5.855  10.187   3.223
17709SOL    HW154960   5.947  10.208   3.204
17709SOL    HW254961   5.859  10.117   3.288
17710SOL     OW54962  13.273  14.050   9.702
17710SOL    HW154963  13.333  13.978   9.720
17710SOL    HW254964  13.249  14.040   9.610
17711SOL     OW54965  10.879   7.510   7.636
17711SOL    HW154966  10.965   7.550   7.651
17711SOL    HW254967  10.858   7.533   7.545
17712SOL     OW54968   7.048  12.702   1.721
17712SOL    HW154969   6.967  12.657   1.695
17712SOL    HW254970   7.066  12.670   1.809
17713SOL     OW54971  13.815   4.467   4.022
17713SOL    HW154972  13.758   4.537   3.991
17713SOL    HW254973  13.903   4.505   4.018
17714SOL     OW54974  13.170   0.986   2.205
17714SOL    HW154975  13.166   0.896   2.173
17714SOL    HW254976  13.147   1.039   2.129
17715SOL     OW54977  12.464   5.200   6.555
17715SOL    HW154978  12.553   5.234   6.544
17715SOL    HW254979  12.407   5.274   6.531
17716SOL     OW54980   3.895  10.456   9.948
17716SOL    HW154981   3.948  10.514   9.893
17716SOL    HW254982   3.815  10.506   9.965
17717SOL     OW54983  10.322   5.213   3.582
17717SOL    HW154984  10.259   5.285   3.574
17717SOL    HW254985  10.320   5.170   3.496
17718SOL     OW54986   2.496   9.774   3.653
17718SOL    HW154987   2.497   9.842   3.585
17718SOL    HW254988   2.480   9.693   3.605
17719SOL     OW54989  13.376   8.765   7.440
17719SOL    HW154990  13.352   8.684   7.395
17719SOL    HW254991  13.334   8.834   7.389
17720SOL     OW54992  14.723  10.408   7.452
17720SOL    HW154993  14.731  10.322   7.494
17720SOL    HW254994  14.639  10.442   7.483
17721SOL     OW54995  14.619  11.517  10.856
17721SOL    HW154996  14.543  11.559  10.814
17721SOL    HW254997  14.584  11.436  10.892
17722SOL     OW54998  10.605   9.487  13.485
17722SOL    HW154999  10.620   9.573  13.524
17722SOL    HW255000  10.667   9.429  13.530
17723SOL     OW55001   4.508  10.473   3.116
17723SOL    HW155002   4.417  10.444   3.103
17723SOL    HW255003   4.536  10.428   3.196
17724SOL     OW55004  11.844   1.817   4.864
17724SOL    HW155005  11.778   1.881   4.891
17724SOL    HW255006  11.818   1.736   4.908
17725SOL     OW55007   4.229   0.278   3.399
17725SOL    HW155008   4.258   0.195   3.438
17725SOL    HW255009   4.205   0.255   3.309
17726SOL     OW55010   7.975   5.482   3.875
17726SOL    HW155011   7.985   5.550   3.942
17726SOL    HW255012   7.936   5.408   3.921
17727SOL     OW55013  12.526  11.485   5.411
17727SOL    HW155014  12.511  11.412   5.351
17727SOL    HW255015  12.451  11.543   5.398
17728SOL     OW55016   9.429   2.828   4.334
17728SOL    HW155017   9.405   2.841   4.426
17728SOL    HW255018   9.508   2.881   4.322
17729SOL     OW55019   9.161   4.869   3.556
17729SOL    HW155020   9.241   4.829   3.590
17729SOL    HW255021   9.185   4.900   3.469
17730SOL     OW55022   4.240  10.129   4.804
17730SOL    HW155023   4.203  10.042   4.819
17730SOL    HW255024   4.164  10.187   4.808
17731SOL     OW55025   1.889   9.141   7.242
17731SOL    HW155026   1.900   9.137   7.337
17731SOL    HW255027   1.799   9.112   7.227
17732SOL     OW55028  13.070   7.195   8.899
17732SOL    HW155029  13.157   7.184   8.859
17732SOL    HW255030  13.086   7.251   8.974
17733SOL     OW55031  14.236   4.832  12.446
17733SOL    HW155032  14.328   4.833  12.422
17733SOL    HW255033  14.190   4.868  12.370
17734SOL     OW55034   2.439   7.120   6.173
17734SOL    HW155035   2.431   7.203   6.220
17734SOL    HW255036   2.359   7.073   6.195
17735SOL     OW55037   9.988   5.175   2.108
17735SOL    HW155038  10.034   5.196   2.190
17735SOL    HW255039   9.899   5.209   2.122
17736SOL     OW55040  10.859   6.656   0.467
17736SOL    HW155041  10.935   6.636   0.412
17736SOL    HW255042  10.883   6.623   0.554
17737SOL     OW55043   2.587  13.345  11.160
17737SOL    HW155044   2.585  13.250  11.151
17737SOL    HW255045   2.575  13.378  11.071
17738SOL     OW55046   7.201  14.762   8.168
17738SOL    HW155047   7.189  14.853   8.141
17738SOL    HW255048   7.221  14.766   8.261
17739SOL     OW55049   0.421  12.258   6.197
17739SOL    HW155050   0.502  12.292   6.160
17739SOL    HW255051   0.351  12.305   6.151
17740SOL     OW55052  11.074   8.864   4.367
17740SOL    HW155053  11.066   8.921   4.290
17740SOL    HW255054  11.116   8.785   4.334
17741SOL     OW55055   2.376   1.915   3.827
17741SOL    HW155056   2.448   1.902   3.888
17741SOL    HW255057   2.419   1.931   3.743
17742SOL     OW55058   4.018   4.265   9.815
17742SOL    HW155059   4.064   4.332   9.766
17742SOL    HW255060   3.978   4.312   9.889
17743SOL     OW55061  12.395   5.195   2.557
17743SOL    HW155062  12.462   5.263   2.571
17743SOL    HW255063  12.414   5.128   2.623
17744SOL     OW55064  10.896  13.956   9.430
17744SOL    HW155065  10.910  13.881   9.488
17744SOL    HW255066  10.980  14.002   9.430
17745SOL     OW55067   7.520  10.386   5.288
17745SOL    HW155068   7.442  10.365   5.237
17745SOL    HW255069   7.541  10.305   5.334
17746SOL     OW55070   1.094   5.612  11.520
17746SOL    HW155071   1.169   5.670  11.534
17746SOL    HW255072   1.104   5.544  11.586
17747SOL     OW55073   2.705   6.819   7.589
17747SOL    HW155074   2.659   6.779   7.663
17747SOL    HW255075   2.767   6.879   7.629
17748SOL     OW55076  10.694  11.286   2.732
17748SOL    HW155077  10.620  11.293   2.671
17748SOL    HW255078  10.659  11.238   2.807
17749SOL     OW55079  11.329   1.603  12.132
17749SOL    HW155080  11.340   1.522  12.082
17749SOL    HW255081  11.352   1.579  12.222
17750SOL     OW55082  14.322  10.749   3.895
17750SOL    HW155083  14.364  10.756   3.980
17750SOL    HW255084  14.234  10.784   3.908
17751SOL     OW55085  13.177   6.090  12.359
17751SOL    HW155086  13.202   6.175  12.395
17751SOL    HW255087  13.127   6.048  12.429
17752SOL     OW55088   0.352   4.578   6.204
17752SOL    HW155089   0.364   4.546   6.115
17752SOL    HW255090   0.265   4.547   6.229
17753SOL     OW55091   0.159   7.821   2.607
17753SOL    HW155092   0.141   7.845   2.698
17753SOL    HW255093   0.254   7.813   2.602
17754SOL     OW55094   2.485   5.176  14.378
17754SOL    HW155095   2.532   5.198  14.297
17754SOL    HW255096   2.399   5.146  14.348
17755SOL     OW55097  12.027   5.569   1.691
17755SOL    HW155098  11.980   5.652   1.704
17755SOL    HW255099  12.111   5.582   1.734
17756SOL     OW55100   6.496   2.294   2.759
17756SOL    HW155101   6.513   2.221   2.700
17756SOL    HW255102   6.510   2.372   2.705
17757SOL     OW55103  10.213   2.096   5.379
17757SOL    HW155104  10.249   2.032   5.317
17757SOL    HW255105  10.212   2.178   5.330
17758SOL     OW55106  10.700   8.716   7.210
17758SOL    HW155107  10.665   8.627   7.207
17758SOL    HW255108  10.787   8.706   7.249
17759SOL     OW55109  13.356   2.493   4.787
17759SOL    HW155110  13.382   2.408   4.821
17759SOL    HW255111  13.301   2.530   4.856
17760SOL     OW55112   2.787   7.092   4.819
17760SOL    HW155113   2.792   7.155   4.890
17760SOL    HW255114   2.867   7.040   4.827
17761SOL     OW55115  10.154  14.836   1.774
17761SOL    HW155116  10.081  14.793   1.819
17761SOL    HW255117  10.119   0.041   1.745
17762SOL     OW55118   0.485   2.056  14.318
17762SOL    HW155119   0.517   2.145  14.326
17762SOL    HW255120   0.562   2.001  14.330
17763SOL     OW55121   6.691   3.147   8.151
17763SOL    HW155122   6.720   3.207   8.082
17763SOL    HW255123   6.625   3.093   8.109
17764SOL     OW55124  12.771  13.707  10.653
17764SOL    HW155125  12.843  13.748  10.701
17764SOL    HW255126  12.788  13.613  10.662
17765SOL     OW55127   2.592   3.868   8.851
17765SOL    HW155128   2.686   3.879   8.869
17765SOL    HW255129   2.569   3.786   8.896
17766SOL     OW55130   7.201   2.523   0.209
17766SOL    HW155131   7.259   2.593   0.179
17766SOL    HW255132   7.120   2.536   0.160
17767SOL     OW55133  13.330   6.645   4.209
17767SOL    HW155134  13.385   6.652   4.131
17767SOL    HW255135  13.389   6.608   4.276
17768SOL     OW55136  10.744  13.647   4.772
17768SOL    HW155137  10.742  13.720   4.834
17768SOL    HW255138  10.707  13.573   4.820
17769SOL     OW55139   9.578   1.883   5.111
17769SOL    HW155140   9.587   1.829   5.189
17769SOL    HW255141   9.666   1.885   5.073
17770SOL     OW55142  12.900   1.504   6.905
17770SOL    HW155143  12.954   1.547   6.971
17770SOL    HW255144  12.905   1.411   6.927
17771SOL     OW55145   2.777   7.257   3.665
17771SOL    HW155146   2.779   7.278   3.758
17771SOL    HW255147   2.866   7.229   3.644
17772SOL     OW55148   1.481  12.922   4.031
17772SOL    HW155149   1.537  12.931   3.954
17772SOL    HW255150   1.427  12.845   4.012
17773SOL     OW55151   3.769   1.225   8.715
17773SOL    HW155152   3.679   1.224   8.747
17773SOL    HW255153   3.802   1.312   8.735
17774SOL     OW55154   9.863   4.757  10.812
17774SOL    HW155155   9.817   4.705  10.747
17774SOL    HW255156   9.922   4.695  10.855
17775SOL     OW55157   8.894   6.463  13.525
17775SOL    HW155158   8.967   6.513  13.489
17775SOL    HW255159   8.877   6.395  13.460
17776SOL     OW55160   1.981   4.454   3.160
17776SOL    HW155161   2.073   4.451   3.133
17776SOL    HW255162   1.950   4.364   3.151
17777SOL     OW55163   6.598   9.620   7.984
17777SOL    HW155164   6.516   9.656   8.018
17777SOL    HW255165   6.574   9.580   7.901
17778SOL     OW55166   9.864   3.889   5.130
17778SOL    HW155167   9.934   3.933   5.082
17778SOL    HW255168   9.888   3.900   5.222
17779SOL     OW55169   9.238   5.997   4.016
17779SOL    HW155170   9.256   6.083   3.977
17779SOL    HW255171   9.153   6.009   4.060
17780SOL     OW55172  11.245   5.876   4.050
17780SOL    HW155173  11.200   5.858   4.132
17780SOL    HW255174  11.328   5.827   4.057
17781SOL     OW55175  12.185  14.794   0.893
17781SOL    HW155176  12.238  14.733   0.944
17781SOL    HW255177  12.163  14.747   0.813
17782SOL     OW55178   0.827  12.856  14.107
17782SOL    HW155179   0.758  12.871  14.172
17782SOL    HW255180   0.899  12.912  14.135
17783SOL     OW55181   1.285  14.076   1.354
17783SOL    HW155182   1.207  14.122   1.323
17783SOL    HW255183   1.338  14.144   1.396
17784SOL     OW55184   7.161   7.240   8.712
17784SOL    HW155185   7.254   7.223   8.699
17784SOL    HW255186   7.127   7.158   8.748
17785SOL     OW55187   8.436  13.079   8.309
17785SOL    HW155188   8.480  13.148   8.357
17785SOL    HW255189   8.345  13.106   8.306
17786SOL     OW55190   5.356  12.469   5.098
17786SOL    HW155191   5.355  12.436   5.009
17786SOL    HW255192   5.266  12.499   5.113
17787SOL     OW55193  12.758   0.497   4.090
17787SOL    HW155194  12.709   0.578   4.105
17787SOL    HW255195  12.739   0.474   3.999
17788SOL     OW55196   5.826  14.532   6.487
17788SOL    HW155197   5.903  14.545   6.431
17788SOL    HW255198   5.834  14.442   6.519
17789SOL     OW55199  12.344  11.826   6.483
17789SOL    HW155200  12.394  11.896   6.441
17789SOL    HW255201  12.388  11.745   6.455
17790SOL     OW55202  10.383   9.531  12.116
17790SOL    HW155203  10.372   9.529  12.021
17790SOL    HW255204  10.454   9.469  12.133
17791SOL     OW55205   9.472   3.043   7.121
17791SOL    HW155206   9.542   3.106   7.101
17791SOL    HW255207   9.447   3.062   7.211
17792SOL     OW55208   9.810   9.554   9.998
17792SOL    HW155209   9.877   9.489  10.017
17792SOL    HW255210   9.831   9.586   9.910
17793SOL     OW55211  13.611   2.705  10.406
17793SOL    HW155212  13.548   2.773  10.432
17793SOL    HW255213  13.556   2.636  10.368
17794SOL     OW55214  13.067   6.802   4.071
17794SOL    HW155215  13.000   6.752   4.025
17794SOL    HW255216  13.142   6.803   4.011
17795SOL     OW55217  14.589   4.725  13.132
17795SOL    HW155218  14.655   4.665  13.095
17795SOL    HW255219  14.633   4.766  13.207
17796SOL     OW55220   7.945  12.754   7.058
17796SOL    HW155221   7.853  12.776   7.039
17796SOL    HW255222   7.990  12.771   6.976
17797SOL     OW55223   9.249   6.352  11.808
17797SOL    HW155224   9.272   6.302  11.730
17797SOL    HW255225   9.226   6.439  11.775
17798SOL     OW55226   8.105  12.448   5.058
17798SOL    HW155227   8.011  12.459   5.039
17798SOL    HW255228   8.145  12.437   4.972
17799SOL     OW55229   8.006  10.398  10.875
17799SOL    HW155230   7.972  10.425  10.960
17799SOL    HW255231   7.997  10.303  10.874
17800SOL     OW55232  11.966  11.131   8.432
17800SOL    HW155233  11.980  11.226   8.425
17800SOL    HW255234  11.923  11.107   8.350
17801SOL     OW55235   5.410   4.786   5.221
17801SOL    HW155236   5.457   4.816   5.143
17801SOL    HW255237   5.459   4.709   5.250
17802SOL     OW55238   5.304   5.258   3.658
17802SOL    HW155239   5.393   5.239   3.686
17802SOL    HW255240   5.252   5.258   3.738
17803SOL     OW55241   1.127   9.967   7.878
17803SOL    HW155242   1.205  10.021   7.868
17803SOL    HW255243   1.130   9.934   7.968
17804SOL     OW55244   1.230   8.549  11.108
17804SOL    HW155245   1.287   8.619  11.075
17804SOL    HW255246   1.143   8.571  11.076
17805SOL     OW55247  14.471   2.812  10.182
17805SOL    HW155248  14.499   2.900  10.207
17805SOL    HW255249  14.414   2.784  10.254
17806SOL     OW55250  10.740   5.218   8.568
17806SOL    HW155251  10.667   5.182   8.619
17806SOL    HW255252  10.813   5.224   8.630
17807SOL     OW55253  12.813   0.075   5.494
17807SOL    HW155254  12.730   0.031   5.514
17807SOL    HW255255  12.831   0.049   5.404
17808SOL     OW55256   2.098   6.806   7.291
17808SOL    HW155257   2.188   6.776   7.280
17808SOL    HW255258   2.046   6.726   7.298
17809SOL     OW55259   9.943   1.704   6.158
17809SOL    HW155260   9.943   1.615   6.193
17809SOL    HW255261   9.877   1.704   6.089
17810SOL     OW55262  11.151  12.938   8.782
17810SOL    HW155263  11.203  12.936   8.702
17810SOL    HW255264  11.168  13.025   8.819
17811SOL     OW55265   4.677   9.377   6.805
17811SOL    HW155266   4.754   9.405   6.756
17811SOL    HW255267   4.642   9.458   6.843
17812SOL     OW55268  10.451  13.122  14.239
17812SOL    HW155269  10.417  13.167  14.161
17812SOL    HW255270  10.408  13.166  14.313
17813SOL     OW55271   8.301   3.181   3.460
17813SOL    HW155272   8.348   3.194   3.543
17813SOL    HW255273   8.312   3.263   3.412
17814SOL     OW55274   3.977   4.145  14.525
17814SOL    HW155275   3.960   4.227  14.480
17814SOL    HW255276   3.895   4.096  14.519
17815SOL     OW55277  12.561   6.062   6.827
17815SOL    HW155278  12.656   6.077   6.833
17815SOL    HW255279  12.553   5.970   6.802
17816SOL     OW55280   8.331   4.836   2.783
17816SOL    HW155281   8.268   4.765   2.775
17816SOL    HW255282   8.414   4.798   2.756
17817SOL     OW55283   8.113   9.571   2.170
17817SOL    HW155284   8.066   9.543   2.248
17817SOL    HW255285   8.062   9.534   2.097
17818SOL     OW55286  14.656   8.939   1.093
17818SOL    HW155287  14.698   9.023   1.077
17818SOL    HW255288  14.729   8.878   1.106
17819SOL     OW55289   2.405   6.538   6.680
17819SOL    HW155290   2.420   6.631   6.696
17819SOL    HW255291   2.361   6.535   6.595
17820SOL     OW55292   0.446   5.501   6.615
17820SOL    HW155293   0.363   5.543   6.593
17820SOL    HW255294   0.493   5.496   6.531
17821SOL     OW55295   7.609   9.164   6.436
17821SOL    HW155296   7.596   9.256   6.416
17821SOL    HW255297   7.696   9.159   6.474
17822SOL     OW55298  13.148   3.521   2.425
17822SOL    HW155299  13.183   3.434   2.446
17822SOL    HW255300  13.130   3.517   2.331
17823SOL     OW55301  12.127   0.646  14.124
17823SOL    HW155302  12.135   0.727  14.176
17823SOL    HW255303  12.038   0.615  14.140
17824SOL     OW55304   0.348   8.237   4.299
17824SOL    HW155305   0.330   8.316   4.349
17824SOL    HW255306   0.276   8.232   4.236
17825SOL     OW55307  13.142  12.423   8.352
17825SOL    HW155308  13.201  12.424   8.428
17825SOL    HW255309  13.115  12.332   8.344
17826SOL     OW55310  12.966   6.044   4.186
17826SOL    HW155311  13.043   5.988   4.177
17826SOL    HW255312  12.893   5.983   4.197
17827SOL     OW55313  13.998  14.748   8.283
17827SOL    HW155314  13.953  14.750   8.198
17827SOL    HW255315  14.087  14.721   8.262
17828SOL     OW55316  14.463   3.537  13.499
17828SOL    HW155317  14.429   3.550  13.410
17828SOL    HW255318  14.392   3.493  13.545
17829SOL     OW55319   0.270  13.079   5.801
17829SOL    HW155320   0.175  13.094   5.806
17829SOL    HW255321   0.285  13.003   5.857
17830SOL     OW55322   6.178   3.153  13.595
17830SOL    HW155323   6.149   3.217  13.530
17830SOL    HW255324   6.257   3.191  13.632
17831SOL     OW55325   5.753   4.698   8.500
17831SOL    HW155326   5.739   4.654   8.416
17831SOL    HW255327   5.667   4.731   8.525
17832SOL     OW55328   8.012   4.573   8.984
17832SOL    HW155329   8.037   4.625   8.908
17832SOL    HW255330   7.933   4.616   9.018
17833SOL     OW55331  13.382   7.644   4.616
17833SOL    HW155332  13.364   7.550   4.621
17833SOL    HW255333  13.370   7.676   4.705
17834SOL     OW55334  14.561   8.948   5.957
17834SOL    HW155335  14.499   8.997   6.012
17834SOL    HW255336  14.505   8.889   5.906
17835SOL     OW55337  13.094   4.025  13.778
17835SOL    HW155338  13.015   4.002  13.828
17835SOL    HW255339  13.095   3.962  13.705
17836SOL     OW55340  14.635   9.783   8.635
17836SOL    HW155341  14.684   9.801   8.715
17836SOL    HW255342  14.564   9.848   8.635
17837SOL     OW55343   9.840   7.178   0.392
17837SOL    HW155344   9.922   7.206   0.433
17837SOL    HW255345   9.866   7.151   0.304
17838SOL     OW55346  11.832   0.096  14.118
17838SOL    HW155347  11.788   0.110  14.201
17838SOL    HW255348  11.853   0.002  14.118
17839SOL     OW55349  13.909   6.402   0.799
17839SOL    HW155350  13.994   6.417   0.759
17839SOL    HW255351  13.881   6.318   0.764
17840SOL     OW55352   8.861   2.454  14.397
17840SOL    HW155353   8.821   2.374  14.431
17840SOL    HW255354   8.833   2.458  14.306
17841SOL     OW55355   6.813   7.857   2.874
17841SOL    HW155356   6.766   7.777   2.850
17841SOL    HW255357   6.819   7.854   2.969
17842SOL     OW55358   6.541   5.555   5.633
17842SOL    HW155359   6.493   5.497   5.692
17842SOL    HW255360   6.495   5.638   5.639
17843SOL     OW55361   5.692   6.181  12.997
17843SOL    HW155362   5.784   6.167  13.021
17843SOL    HW255363   5.696   6.230  12.915
17844SOL     OW55364   1.972   9.917   7.831
17844SOL    HW155365   2.005  10.003   7.857
17844SOL    HW255366   1.913   9.892   7.902
17845SOL     OW55367   4.302   7.548  11.690
17845SOL    HW155368   4.342   7.526  11.775
17845SOL    HW255369   4.319   7.472  11.635
17846SOL     OW55370   3.274  10.633  11.204
17846SOL    HW155371   3.369  10.625  11.196
17846SOL    HW255372   3.255  10.723  11.177
17847SOL     OW55373   8.619  13.978   0.933
17847SOL    HW155374   8.554  14.045   0.909
17847SOL    HW255375   8.665  13.960   0.851
17848SOL     OW55376   2.061   9.756  12.799
17848SOL    HW155377   2.111   9.685  12.841
17848SOL    HW255378   2.113   9.835  12.816
17849SOL     OW55379  13.771   0.037   6.789
17849SOL    HW155380  13.744   0.043   6.698
17849SOL    HW255381  13.765  14.823   6.811
17850SOL     OW55382  13.866   1.039   4.617
17850SOL    HW155383  13.813   1.070   4.542
17850SOL    HW255384  13.889   0.949   4.594
17851SOL     OW55385   2.729   8.276   2.585
17851SOL    HW155386   2.715   8.277   2.680
17851SOL    HW255387   2.812   8.321   2.573
17852SOL     OW55388   2.929   6.804   5.526
17852SOL    HW155389   2.835   6.816   5.515
17852SOL    HW255390   2.938   6.748   5.603
17853SOL     OW55391   9.293   6.018   5.181
17853SOL    HW155392   9.264   6.088   5.122
17853SOL    HW255393   9.252   6.039   5.264
17854SOL     OW55394   8.152   2.152   7.225
17854SOL    HW155395   8.210   2.228   7.224
17854SOL    HW255396   8.108   2.154   7.140
17855SOL     OW55397   5.484  11.179   4.383
17855SOL    HW155398   5.481  11.244   4.453
17855SOL    HW255399   5.565  11.200   4.335
17856SOL     OW55400  10.890   9.842  11.394
17856SOL    HW155401  10.944   9.895  11.453
17856SOL    HW255402  10.835   9.790  11.452
17857SOL     OW55403  11.953   5.998   8.174
17857SOL    HW155404  11.981   5.945   8.100
17857SOL    HW255405  12.015   6.070   8.177
17858SOL     OW55406   7.428   1.400  11.022
17858SOL    HW155407   7.349   1.412  11.074
17858SOL    HW255408   7.455   1.489  10.999
17859SOL     OW55409   9.901  11.389   7.086
17859SOL    HW155410   9.935  11.317   7.033
17859SOL    HW255411   9.819  11.413   7.045
17860SOL     OW55412  10.015   3.611   9.951
17860SOL    HW155413  10.063   3.652  10.023
17860SOL    HW255414   9.977   3.684   9.903
17861SOL     OW55415   4.636  12.901   7.672
17861SOL    HW155416   4.711  12.843   7.662
17861SOL    HW255417   4.597  12.905   7.584
17862SOL     OW55418   1.827   9.492  11.474
17862SOL    HW155419   1.879   9.573  11.473
17862SOL    HW255420   1.762   9.505  11.405
17863SOL     OW55421   6.277  14.526  13.364
17863SOL    HW155422   6.251  14.545  13.454
17863SOL    HW255423   6.275  14.431  13.357
17864SOL     OW55424   6.637  13.740   4.280
17864SOL    HW155425   6.704  13.760   4.215
17864SOL    HW255426   6.673  13.667   4.330
17865SOL     OW55427   9.911   0.475   7.252
17865SOL    HW155428   9.997   0.435   7.251
17865SOL    HW255429   9.911   0.534   7.176
17866SOL     OW55430   8.408  10.228  14.759
17866SOL    HW155431   8.400  10.210  14.853
17866SOL    HW255432   8.318  10.242  14.730
17867SOL     OW55433  13.323  13.497  13.004
17867SOL    HW155434  13.252  13.562  13.000
17867SOL    HW255435  13.348  13.496  13.096
17868SOL     OW55436   3.572   6.983   2.303
17868SOL    HW155437   3.578   7.020   2.215
17868SOL    HW255438   3.484   7.006   2.333
17869SOL     OW55439   2.622   2.258  13.183
17869SOL    HW155440   2.651   2.169  13.202
17869SOL    HW255441   2.702   2.310  13.180
17870SOL     OW55442   7.889   7.319   3.141
17870SOL    HW155443   7.935   7.400   3.165
17870SOL    HW255444   7.797   7.340   3.152
17871SOL     OW55445  14.635   0.290   7.041
17871SOL    HW155446  14.540   0.299   7.033
17871SOL    HW255447  14.671   0.356   6.982
17872SOL     OW55448  12.521   1.796   0.360
17872SOL    HW155449  12.544   1.869   0.303
17872SOL    HW255450  12.511   1.721   0.301
17873SOL     OW55451  10.003   5.672  14.026
17873SOL    HW155452  10.057   5.750  14.038
17873SOL    HW255453  10.022   5.617  14.102
17874SOL     OW55454   4.973  14.756   5.767
17874SOL    HW155455   4.904  14.792   5.713
17874SOL    HW255456   5.054  14.783   5.725
17875SOL     OW55457  14.701   8.842   1.984
17875SOL    HW155458  14.614   8.875   1.962
17875SOL    HW255459  14.687   8.750   2.008
17876SOL     OW55460  11.897  10.818  11.530
17876SOL    HW155461  11.962  10.790  11.595
17876SOL    HW255462  11.917  10.910  11.514
17877SOL     OW55463   2.950   9.170  10.057
17877SOL    HW155464   2.997   9.086  10.051
17877SOL    HW255465   2.920   9.187   9.968
17878SOL     OW55466   1.545   2.378   9.305
17878SOL    HW155467   1.606   2.325   9.254
17878SOL    HW255468   1.471   2.393   9.247
17879SOL     OW55469   2.697  10.784  12.476
17879SOL    HW155470   2.639  10.801  12.402
17879SOL    HW255471   2.708  10.869  12.518
17880SOL     OW55472   9.298   7.478   5.332
17880SOL    HW155473   9.238   7.413   5.369
17880SOL    HW255474   9.375   7.475   5.389
17881SOL     OW55475  10.912   9.964   6.880
17881SOL    HW155476  10.841   9.994   6.823
17881SOL    HW255477  10.880   9.882   6.916
17882SOL     OW55478   7.499   0.890   3.158
17882SOL    HW155479   7.407   0.903   3.137
17882SOL    HW255480   7.499   0.820   3.224
17883SOL     OW55481   0.794  13.481   6.861
17883SOL    HW155482   0.802  13.509   6.953
17883SOL    HW255483   0.716  13.426   6.860
17884SOL     OW55484   5.745   4.988  12.814
17884SOL    HW155485   5.804   5.035  12.756
17884SOL    HW255486   5.661   4.988  12.767
17885SOL     OW55487   8.781   3.355  14.355
17885SOL    HW155488   8.714   3.371  14.422
17885SOL    HW255489   8.764   3.420  14.288
17886SOL     OW55490   2.599   1.129   0.087
17886SOL    HW155491   2.625   1.176   0.008
17886SOL    HW255492   2.523   1.176   0.120
17887SOL     OW55493  14.459   2.117   6.508
17887SOL    HW155494  14.451   2.210   6.484
17887SOL    HW255495  14.404   2.108   6.586
17888SOL     OW55496   9.083  10.417   3.632
17888SOL    HW155497   9.055  10.443   3.719
17888SOL    HW255498   9.092  10.322   3.636
17889SOL     OW55499  13.909   8.072   1.261
17889SOL    HW155500  13.912   8.068   1.165
17889SOL    HW255501  13.989   8.026   1.289
17890SOL     OW55502   0.534   2.615  13.688
17890SOL    HW155503   0.542   2.520  13.699
17890SOL    HW255504   0.440   2.632  13.694
17891SOL     OW55505   7.107   9.852   9.399
17891SOL    HW155506   7.068   9.807   9.324
17891SOL    HW255507   7.114   9.784   9.467
17892SOL     OW55508   5.842   5.251  13.845
17892SOL    HW155509   5.748   5.235  13.856
17892SOL    HW255510   5.864   5.209  13.762
17893SOL     OW55511  11.793   7.340  11.398
17893SOL    HW155512  11.819   7.429  11.372
17893SOL    HW255513  11.700   7.335  11.372
17894SOL     OW55514   7.824   6.673  10.557
17894SOL    HW155515   7.748   6.615  10.549
17894SOL    HW255516   7.886   6.623  10.611
17895SOL     OW55517   8.518   6.089   0.846
17895SOL    HW155518   8.602   6.091   0.801
17895SOL    HW255519   8.504   6.179   0.875
17896SOL     OW55520   2.606  11.856   6.810
17896SOL    HW155521   2.599  11.949   6.787
17896SOL    HW255522   2.654  11.856   6.893
17897SOL     OW55523   3.533   9.993   5.001
17897SOL    HW155524   3.551   9.913   5.051
17897SOL    HW255525   3.464  10.037   5.050
17898SOL     OW55526  10.337   2.067   7.212
17898SOL    HW155527  10.329   2.056   7.117
17898SOL    HW255528  10.432   2.068   7.228
17899SOL     OW55529  10.429   1.933   4.410
17899SOL    HW155530  10.369   1.905   4.341
17899SOL    HW255531  10.396   2.019   4.437
17900SOL     OW55532   9.319   7.371   6.049
17900SOL    HW155533   9.282   7.398   5.965
17900SOL    HW255534   9.294   7.279   6.059
17901SOL     OW55535  11.388   5.088   0.611
17901SOL    HW155536  11.366   5.069   0.702
17901SOL    HW255537  11.357   5.177   0.597
17902SOL     OW55538   8.609   0.519  10.356
17902SOL    HW155539   8.637   0.610  10.360
17902SOL    HW255540   8.526   0.522  10.308
17903SOL     OW55541  12.692   2.888   1.945
17903SOL    HW155542  12.632   2.919   2.013
17903SOL    HW255543  12.691   2.792   1.954
17904SOL     OW55544   9.619   3.534   1.449
17904SOL    HW155545   9.561   3.460   1.432
17904SOL    HW255546   9.694   3.496   1.495
17905SOL     OW55547  11.374  11.619   0.743
17905SOL    HW155548  11.310  11.668   0.691
17905SOL    HW255549  11.430  11.576   0.677
17906SOL     OW55550   0.254   0.025   0.977
17906SOL    HW155551   0.348   0.032   0.995
17906SOL    HW255552   0.228  14.821   1.017
17907SOL     OW55553   2.044   3.933  11.554
17907SOL    HW155554   2.044   3.933  11.458
17907SOL    HW255555   1.999   4.014  11.578
17908SOL     OW55556   4.155   7.966   9.080
17908SOL    HW155557   4.122   8.026   9.147
17908SOL    HW255558   4.143   7.879   9.117
17909SOL     OW55559   2.591  14.030   2.462
17909SOL    HW155560   2.589  14.108   2.517
17909SOL    HW255561   2.680  14.025   2.428
17910SOL     OW55562   8.881  14.827  11.322
17910SOL    HW155563   8.942  14.768  11.277
17910SOL    HW255564   8.933  14.864  11.394
17911SOL     OW55565  11.063   1.922   8.665
17911SOL    HW155566  11.128   1.886   8.605
17911SOL    HW255567  11.105   1.917   8.751
17912SOL     OW55568   7.135   3.889   0.123
17912SOL    HW155569   7.098   3.932   0.046
17912SOL    HW255570   7.081   3.810   0.134
17913SOL     OW55571   3.155   8.618   2.288
17913SOL    HW155572   3.128   8.708   2.302
17913SOL    HW255573   3.075   8.573   2.262
17914SOL     OW55574   2.789   7.123  11.779
17914SOL    HW155575   2.724   7.172  11.728
17914SOL    HW255576   2.737   7.072  11.841
17915SOL     OW55577  14.427  12.106   6.239
17915SOL    HW155578  14.359  12.057   6.284
17915SOL    HW255579  14.461  12.166   6.305
17916SOL     OW55580   6.331   3.981   6.602
17916SOL    HW155581   6.302   3.909   6.658
17916SOL    HW255582   6.409   4.015   6.645
17917SOL     OW55583   6.090   6.608   8.854
17917SOL    HW155584   6.138   6.559   8.920
17917SOL    HW255585   6.032   6.666   8.904
17918SOL     OW55586   9.981  12.079   5.099
17918SOL    HW155587  10.003  12.001   5.049
17918SOL    HW255588   9.888  12.094   5.081
17919SOL     OW55589   9.297   5.732   6.766
17919SOL    HW155590   9.316   5.641   6.789
17919SOL    HW255591   9.239   5.726   6.689
17920SOL     OW55592   8.220   8.260  11.380
17920SOL    HW155593   8.227   8.272  11.474
17920SOL    HW255594   8.146   8.200  11.369
17921SOL     OW55595   6.719  13.911  13.107
17921SOL    HW155596   6.675  13.900  13.023
17921SOL    HW255597   6.741  13.822  13.135
17922SOL     OW55598   6.519  14.108   0.959
17922SOL    HW155599   6.496  14.190   0.915
17922SOL    HW255600   6.477  14.040   0.907
17923SOL     OW55601   6.498   2.541  13.402
17923SOL    HW155602   6.495   2.553  13.307
17923SOL    HW255603   6.585   2.572  13.427
17924SOL     OW55604   7.706   4.865   9.875
17924SOL    HW155605   7.777   4.918   9.837
17924SOL    HW255606   7.691   4.796   9.811
17925SOL     OW55607   3.147  11.905   9.967
17925SOL    HW155608   3.233  11.924   9.930
17925SOL    HW255609   3.087  11.909   9.892
17926SOL     OW55610  13.882  11.922   8.914
17926SOL    HW155611  13.856  11.912   9.005
17926SOL    HW255612  13.834  11.999   8.883
17927SOL     OW55613   2.106   0.516  13.311
17927SOL    HW155614   2.170   0.528  13.381
17927SOL    HW255615   2.146   0.558  13.234
17928SOL     OW55616   4.350   7.920  10.795
17928SOL    HW155617   4.430   7.946  10.841
17928SOL    HW255618   4.301   7.868  10.859
17929SOL     OW55619  13.465   7.030   2.289
17929SOL    HW155620  13.426   7.106   2.246
17929SOL    HW255621  13.558   7.038   2.272
17930SOL     OW55622  10.484   1.121   2.290
17930SOL    HW155623  10.487   1.040   2.341
17930SOL    HW255624  10.576   1.149   2.285
17931SOL     OW55625   7.879   5.325   2.242
17931SOL    HW155626   7.812   5.349   2.179
17931SOL    HW255627   7.837   5.261   2.299
17932SOL     OW55628  10.804  11.199  12.381
17932SOL    HW155629  10.816  11.292  12.366
17932SOL    HW255630  10.892  11.161  12.374
17933SOL     OW55631   9.079   3.602  12.676
17933SOL    HW155632   9.114   3.620  12.763
17933SOL    HW255633   9.072   3.688  12.635
17934SOL     OW55634  11.677  12.240  13.292
17934SOL    HW155635  11.679  12.185  13.214
17934SOL    HW255636  11.593  12.286  13.287
17935SOL     OW55637   7.902   2.521   6.925
17935SOL    HW155638   7.914   2.453   6.992
17935SOL    HW255639   7.887   2.601   6.975
17936SOL     OW55640   0.067   5.485   8.632
17936SOL    HW155641   0.042   5.450   8.718
17936SOL    HW255642  14.866   5.479   8.580
17937SOL     OW55643   9.324   8.575   2.262
17937SOL    HW155644   9.310   8.605   2.172
17937SOL    HW255645   9.401   8.624   2.291
17938SOL     OW55646   4.586   1.190   1.251
17938SOL    HW155647   4.568   1.173   1.159
17938SOL    HW255648   4.643   1.118   1.278
17939SOL     OW55649   4.797   5.470   5.525
17939SOL    HW155650   4.871   5.446   5.469
17939SOL    HW255651   4.826   5.447   5.613
17940SOL     OW55652   0.966  11.755   4.302
17940SOL    HW155653   1.037  11.700   4.336
17940SOL    HW255654   0.887  11.719   4.343
17941SOL     OW55655  13.951   0.095  10.527
17941SOL    HW155656  13.886   0.123  10.591
17941SOL    HW255657  13.902   0.042  10.464
17942SOL     OW55658  11.624  13.647  12.806
17942SOL    HW155659  11.652  13.691  12.886
17942SOL    HW255660  11.706  13.624  12.762
17943SOL     OW55661   7.755   3.328  13.736
17943SOL    HW155662   7.725   3.350  13.648
17943SOL    HW255663   7.678   3.340  13.792
17944SOL     OW55664   1.160  12.529   0.381
17944SOL    HW155665   1.179  12.576   0.300
17944SOL    HW255666   1.119  12.447   0.352
17945SOL     OW55667   8.508   9.142  12.593
17945SOL    HW155668   8.435   9.203  12.606
17945SOL    HW255669   8.507   9.122  12.500
17946SOL     OW55670   1.521   4.060   0.424
17946SOL    HW155671   1.563   4.040   0.340
17946SOL    HW255672   1.576   4.015   0.489
17947SOL     OW55673   6.157  14.680   3.908
17947SOL    HW155674   6.156  14.772   3.936
17947SOL    HW255675   6.234  14.643   3.951
17948SOL     OW55676   3.033   6.248  10.826
17948SOL    HW155677   3.081   6.326  10.798
17948SOL    HW255678   3.071   6.227  10.912
17949SOL     OW55679   4.143   0.969  12.131
17949SOL    HW155680   4.180   0.903  12.189
17949SOL    HW255681   4.212   0.986  12.067
17950SOL     OW55682  10.064   3.975   0.814
17950SOL    HW155683   9.971   3.989   0.794
17950SOL    HW255684  10.073   3.879   0.819
17951SOL     OW55685   5.996   5.038   8.683
17951SOL    HW155686   6.025   5.121   8.644
17951SOL    HW255687   6.041   5.033   8.767
17952SOL     OW55688   0.913  13.011  12.815
17952SOL    HW155689   0.980  12.943  12.810
17952SOL    HW255690   0.914  13.054  12.729
17953SOL     OW55691   3.787  11.615   1.183
17953SOL    HW155692   3.838  11.551   1.133
17953SOL    HW255693   3.712  11.635   1.128
17954SOL     OW55694   2.513   9.909  11.020
17954SOL    HW155695   2.500  10.003  11.026
17954SOL    HW255696   2.582   9.889  11.083
17955SOL     OW55697   6.944   2.621   3.540
17955SOL    HW155698   6.942   2.572   3.459
17955SOL    HW255699   6.963   2.711   3.514
17956SOL     OW55700  11.675   4.337  14.176
17956SOL    HW155701  11.659   4.414  14.230
17956SOL    HW255702  11.701   4.268  14.237
17957SOL     OW55703  13.719   9.950  14.712
17957SOL    HW155704  13.789   9.979  14.770
17957SOL    HW255705  13.678  10.031  14.680
17958SOL     OW55706   7.279  14.485  13.872
17958SOL    HW155707   7.357  14.479  13.818
17958SOL    HW255708   7.310  14.468  13.961
17959SOL     OW55709  14.225   2.359  10.542
17959SOL    HW155710  14.155   2.293  10.549
17959SOL    HW255711  14.180   2.439  10.517
17960SOL     OW55712   5.323  14.010  11.675
17960SOL    HW155713   5.229  14.027  11.670
17960SOL    HW255714   5.355  14.073  11.739
17961SOL     OW55715   1.153  12.692  14.724
17961SOL    HW155716   1.222  12.629  14.742
17961SOL    HW255717   1.072  12.648  14.752
17962SOL     OW55718   2.601   5.097   1.971
17962SOL    HW155719   2.510   5.101   1.940
17962SOL    HW255720   2.652   5.137   1.900
17963SOL     OW55721   1.870   2.074  11.500
17963SOL    HW155722   1.947   2.017  11.501
17963SOL    HW255723   1.872   2.115  11.413
17964SOL     OW55724   2.883   7.407  12.056
17964SOL    HW155725   2.946   7.345  12.018
17964SOL    HW255726   2.878   7.478  11.993
17965SOL     OW55727   4.450   2.508   5.502
17965SOL    HW155728   4.357   2.488   5.512
17965SOL    HW255729   4.493   2.422   5.504
17966SOL     OW55730  10.308  12.609   0.920
17966SOL    HW155731  10.307  12.697   0.884
17966SOL    HW255732  10.272  12.554   0.850
17967SOL     OW55733   6.468   9.302   2.106
17967SOL    HW155734   6.467   9.334   2.016
17967SOL    HW255735   6.376   9.286   2.128
17968SOL     OW55736   8.522   2.101   7.941
17968SOL    HW155737   8.523   2.165   8.012
17968SOL    HW255738   8.432   2.103   7.908
17969SOL     OW55739   9.545  12.613  13.686
17969SOL    HW155740   9.476  12.669  13.650
17969SOL    HW255741   9.508  12.525  13.682
17970SOL     OW55742   9.089   8.537  11.281
17970SOL    HW155743   9.079   8.447  11.250
17970SOL    HW255744   9.039   8.540  11.363
17971SOL     OW55745   5.687   6.434   6.078
17971SOL    HW155746   5.708   6.344   6.054
17971SOL    HW255747   5.730   6.487   6.011
17972SOL     OW55748   6.001   4.038  13.519
17972SOL    HW155749   6.043   3.985  13.588
17972SOL    HW255750   5.982   3.976  13.449
17973SOL     OW55751  11.458   9.992   3.659
17973SOL    HW155752  11.435  10.084   3.645
17973SOL    HW255753  11.416   9.969   3.742
17974SOL     OW55754   1.463   6.011  11.729
17974SOL    HW155755   1.519   5.936  11.710
17974SOL    HW255756   1.523   6.085  11.731
17975SOL     OW55757   0.491   1.573  10.622
17975SOL    HW155758   0.474   1.663  10.652
17975SOL    HW255759   0.582   1.556  10.646
17976SOL     OW55760   7.951  10.026  11.186
17976SOL    HW155761   7.963  10.088  11.258
17976SOL    HW255762   7.872   9.976  11.210
17977SOL     OW55763   4.321  10.902   0.948
17977SOL    HW155764   4.354  10.945   0.868
17977SOL    HW255765   4.347  10.961   1.018
17978SOL     OW55766   1.788   0.546  13.023
17978SOL    HW155767   1.747   0.570  12.940
17978SOL    HW255768   1.841   0.469  13.002
17979SOL     OW55769   8.908   9.802   2.786
17979SOL    HW155770   8.880   9.841   2.703
17979SOL    HW255771   8.885   9.868   2.852
17980SOL     OW55772   4.675  12.353  14.309
17980SOL    HW155773   4.654  12.368  14.217
17980SOL    HW255774   4.762  12.313  14.308
17981SOL     OW55775  11.657   6.281  10.264
17981SOL    HW155776  11.612   6.363  10.286
17981SOL    HW255777  11.590   6.214  10.274
17982SOL     OW55778   1.242   4.305   5.415
17982SOL    HW155779   1.204   4.360   5.482
17982SOL    HW255780   1.332   4.290   5.445
17983SOL     OW55781  11.057   5.222   0.326
17983SOL    HW155782  11.103   5.139   0.337
17983SOL    HW255783  11.016   5.237   0.411
17984SOL     OW55784   4.955   2.569  14.187
17984SOL    HW155785   4.955   2.533  14.276
17984SOL    HW255786   4.945   2.493  14.130
17985SOL     OW55787  14.402  13.019  10.421
17985SOL    HW155788  14.442  12.936  10.449
17985SOL    HW255789  14.464  13.056  10.359
17986SOL     OW55790  12.350   3.699   1.963
17986SOL    HW155791  12.358   3.719   1.870
17986SOL    HW255792  12.284   3.630   1.967
17987SOL     OW55793  12.415   8.483   8.959
17987SOL    HW155794  12.412   8.541   9.035
17987SOL    HW255795  12.351   8.415   8.979
17988SOL     OW55796   7.445  10.558  14.438
17988SOL    HW155797   7.511  10.549  14.507
17988SOL    HW255798   7.379  10.491  14.459
17989SOL     OW55799   3.591   0.003   1.561
17989SOL    HW155800   3.599  14.820   1.634
17989SOL    HW255801   3.650  14.847   1.494
17990SOL     OW55802   8.054   4.148  13.506
17990SOL    HW155803   8.128   4.125  13.561
17990SOL    HW255804   8.079   4.232  13.466
17991SOL     OW55805   5.450  11.302   7.561
17991SOL    HW155806   5.443  11.397   7.553
17991SOL    HW255807   5.512  11.276   7.493
17992SOL     OW55808  10.146   6.292   8.350
17992SOL    HW155809  10.125   6.258   8.263
17992SOL    HW255810  10.141   6.215   8.408
17993SOL     OW55811   8.293   3.427   7.074
17993SOL    HW155812   8.218   3.411   7.016
17993SOL    HW255813   8.331   3.509   7.041
17994SOL     OW55814   0.425  11.059   3.015
17994SOL    HW155815   0.381  11.100   2.940
17994SOL    HW255816   0.504  11.019   2.978
17995SOL     OW55817   8.223   0.426  12.814
17995SOL    HW155818   8.255   0.418  12.904
17995SOL    HW255819   8.197   0.338  12.790
17996SOL     OW55820  13.689   1.385   8.760
17996SOL    HW155821  13.772   1.383   8.713
17996SOL    HW255822  13.684   1.473   8.798
17997SOL     OW55823   2.624   9.304   3.360
17997SOL    HW155824   2.569   9.383   3.361
17997SOL    HW255825   2.693   9.323   3.423
17998SOL     OW55826   7.601   4.297   4.643
17998SOL    HW155827   7.552   4.281   4.723
17998SOL    HW255828   7.599   4.392   4.632
17999SOL     OW55829   4.500   9.604   4.623
17999SOL    HW155830   4.537   9.675   4.674
17999SOL    HW255831   4.487   9.533   4.686
18000SOL     OW55832   7.395   8.495   3.153
18000SOL    HW155833   7.346   8.522   3.231
18000SOL    HW255834   7.332   8.501   3.082
18001SOL     OW55835  13.310   9.093  14.331
18001SOL    HW155836  13.259   9.120  14.407
18001SOL    HW255837  13.364   9.020  14.363
18002SOL     OW55838   7.844   7.916  11.105
18002SOL    HW155839   7.812   7.895  11.017
18002SOL    HW255840   7.832   7.835  11.154
18003SOL     OW55841   5.996   3.229   5.203
18003SOL    HW155842   6.022   3.137   5.201
18003SOL    HW255843   5.900   3.226   5.202
18004SOL     OW55844  11.102   1.871   2.795
18004SOL    HW155845  11.164   1.897   2.863
18004SOL    HW255846  11.024   1.924   2.814
18005SOL     OW55847   7.083   8.569  14.243
18005SOL    HW155848   7.084   8.645  14.302
18005SOL    HW255849   7.103   8.606  14.157
18006SOL     OW55850  13.477   7.270   3.652
18006SOL    HW155851  13.460   7.306   3.739
18006SOL    HW255852  13.430   7.328   3.592
18007SOL     OW55853   9.068   6.320  11.991
18007SOL    HW155854   9.142   6.307  11.931
18007SOL    HW255855   9.041   6.231  12.015
18008SOL     OW55856   7.224   0.539  13.356
18008SOL    HW155857   7.215   0.589  13.275
18008SOL    HW255858   7.292   0.475  13.338
18009SOL     OW55859  14.409  13.293  11.230
18009SOL    HW155860  14.402  13.385  11.203
18009SOL    HW255861  14.429  13.246  11.149
18010SOL     OW55862  11.612   3.607  10.844
18010SOL    HW155863  11.693   3.581  10.886
18010SOL    HW255864  11.619   3.574  10.754
18011SOL     OW55865  13.611   7.872   3.462
18011SOL    HW155866  13.693   7.922   3.466
18011SOL    HW255867  13.547   7.928   3.506
18012SOL     OW55868   3.694   2.042  13.835
18012SOL    HW155869   3.676   2.126  13.792
18012SOL    HW255870   3.745   1.993  13.771
18013SOL     OW55871   5.432   2.768  10.000
18013SOL    HW155872   5.527   2.760   9.991
18013SOL    HW255873   5.398   2.681   9.981
18014SOL     OW55874  14.668   0.854   5.358
18014SOL    HW155875  14.586   0.847   5.310
18014SOL    HW255876  14.734   0.869   5.291
18015SOL     OW55877  14.036   8.950   9.805
18015SOL    HW155878  13.976   8.934   9.732
18015SOL    HW255879  14.086   8.868   9.813
18016SOL     OW55880  10.654   3.067   8.099
18016SOL    HW155881  10.657   3.158   8.127
18016SOL    HW255882  10.578   3.062   8.040
18017SOL     OW55883  14.097   6.947   8.194
18017SOL    HW155884  14.115   6.975   8.105
18017SOL    HW255885  14.056   6.860   8.185
18018SOL     OW55886   2.857   8.858   3.802
18018SOL    HW155887   2.917   8.856   3.728
18018SOL    HW255888   2.908   8.825   3.876
18019SOL     OW55889  12.057  10.598  14.699
18019SOL    HW155890  12.148  10.616  14.677
18019SOL    HW255891  12.016  10.575  14.616
18020SOL     OW55892   7.345  11.503   0.694
18020SOL    HW155893   7.292  11.571   0.735
18020SOL    HW255894   7.288  11.426   0.691
18021SOL     OW55895  13.826   8.927  10.653
18021SOL    HW155896  13.803   8.925  10.746
18021SOL    HW255897  13.852   8.837  10.633
18022SOL     OW55898   6.944   6.791   1.691
18022SOL    HW155899   6.905   6.704   1.678
18022SOL    HW255900   6.912   6.842   1.617
18023SOL     OW55901  13.526   9.413   3.814
18023SOL    HW155902  13.620   9.399   3.807
18023SOL    HW255903  13.503   9.459   3.732
18024SOL     OW55904   8.938  14.714  11.993
18024SOL    HW155905   8.967  14.793  12.038
18024SOL    HW255906   8.952  14.644  12.057
18025SOL     OW55907  12.467  13.005  12.217
18025SOL    HW155908  12.442  13.021  12.126
18025SOL    HW255909  12.544  13.061  12.231
18026SOL     OW55910   6.962  14.868   8.988
18026SOL    HW155911   7.006   0.071   9.011
18026SOL    HW255912   7.017  14.800   9.025
18027SOL     OW55913   7.363   9.395   8.680
18027SOL    HW155914   7.273   9.380   8.650
18027SOL    HW255915   7.389   9.476   8.638
18028SOL     OW55916  11.883   2.274   1.085
18028SOL    HW155917  11.868   2.189   1.127
18028SOL    HW255918  11.861   2.338   1.153
18029SOL     OW55919   9.184   7.973  13.861
18029SOL    HW155920   9.090   7.993  13.859
18029SOL    HW255921   9.202   7.955  13.953
18030SOL     OW55922  12.825   3.577   8.278
18030SOL    HW155923  12.828   3.488   8.312
18030SOL    HW255924  12.766   3.572   8.202
18031SOL     OW55925  13.120   0.632   4.378
18031SOL    HW155926  13.201   0.595   4.343
18031SOL    HW255927  13.143   0.722   4.400
18032SOL     OW55928  10.139   8.689   9.340
18032SOL    HW155929  10.063   8.679   9.397
18032SOL    HW255930  10.118   8.765   9.286
18033SOL     OW55931  14.288   3.906   4.630
18033SOL    HW155932  14.209   3.862   4.598
18033SOL    HW255933  14.336   3.837   4.677
18034SOL     OW55934   6.884  11.482   9.269
18034SOL    HW155935   6.864  11.439   9.352
18034SOL    HW255936   6.845  11.569   9.277
18035SOL     OW55937  12.313   4.573  12.648
18035SOL    HW155938  12.325   4.663  12.617
18035SOL    HW255939  12.270   4.582  12.733
18036SOL     OW55940   9.943   0.611  10.777
18036SOL    HW155941  10.027   0.568  10.795
18036SOL    HW255942   9.879   0.540  10.781
18037SOL     OW55943   0.085   7.295  12.957
18037SOL    HW155944   0.035   7.297  12.876
18037SOL    HW255945   0.025   7.255  13.021
18038SOL     OW55946   5.052   3.399   2.733
18038SOL    HW155947   5.142   3.370   2.721
18038SOL    HW255948   5.029   3.442   2.650
18039SOL     OW55949  13.457   6.930  12.050
18039SOL    HW155950  13.413   6.845  12.046
18039SOL    HW255951  13.420   6.979  11.977
18040SOL     OW55952   5.120   0.422   2.598
18040SOL    HW155953   5.105   0.463   2.683
18040SOL    HW255954   5.033   0.416   2.559
18041SOL     OW55955   8.973  12.324   0.189
18041SOL    HW155956   8.907  12.380   0.228
18041SOL    HW255957   8.960  12.238   0.228
18042SOL     OW55958   0.034   3.298  10.683
18042SOL    HW155959   0.109   3.341  10.642
18042SOL    HW255960   0.058   3.289  10.775
18043SOL     OW55961   0.494  13.856   0.703
18043SOL    HW155962   0.521  13.856   0.612
18043SOL    HW255963   0.413  13.804   0.704
18044SOL     OW55964  11.869  10.160  13.385
18044SOL    HW155965  11.871  10.208  13.468
18044SOL    HW255966  11.783  10.181  13.348
18045SOL     OW55967   8.702  13.069  10.517
18045SOL    HW155968   8.719  12.987  10.563
18045SOL    HW255969   8.772  13.075  10.452
18046SOL     OW55970  10.435  14.521   8.895
18046SOL    HW155971  10.351  14.478   8.877
18046SOL    HW255972  10.432  14.601   8.843
18047SOL     OW55973   4.248  12.378   1.217
18047SOL    HW155974   4.171  12.429   1.189
18047SOL    HW255975   4.245  12.299   1.162
18048SOL     OW55976   2.464   5.871  12.012
18048SOL    HW155977   2.414   5.897  12.089
18048SOL    HW255978   2.543   5.830  12.048
18049SOL     OW55979   6.639   7.601   2.821
18049SOL    HW155980   6.653   7.616   2.915
18049SOL    HW255981   6.606   7.511   2.816
18050SOL     OW55982   7.775   8.342  13.807
18050SOL    HW155983   7.694   8.323  13.853
18050SOL    HW255984   7.791   8.265  13.752
18051SOL     OW55985  12.600   0.617   3.245
18051SOL    HW155986  12.649   0.539   3.218
18051SOL    HW255987  12.667   0.682   3.264
18052SOL     OW55988  11.573  12.166   5.330
18052SOL    HW155989  11.523  12.109   5.389
18052SOL    HW255990  11.532  12.152   5.244
18053SOL     OW55991  13.687   7.798  11.474
18053SOL    HW155992  13.738   7.802  11.394
18053SOL    HW255993  13.656   7.887  11.487
18054SOL     OW55994   8.275   6.783   5.767
18054SOL    HW155995   8.235   6.798   5.852
18054SOL    HW255996   8.272   6.868   5.723
18055SOL     OW55997   5.451   6.086   4.661
18055SOL    HW155998   5.447   6.093   4.756
18055SOL    HW255999   5.471   5.993   4.644
18056SOL     OW56000   3.610  13.693   2.074
18056SOL    HW156001   3.610  13.607   2.030
18056SOL    HW256002   3.541  13.742   2.029
18057SOL     OW56003  12.729   9.512   2.503
18057SOL    HW156004  12.746   9.482   2.592
18057SOL    HW256005  12.804   9.569   2.483
18058SOL     OW56006   6.862   6.350  12.149
18058SOL    HW156007   6.914   6.387  12.220
18058SOL    HW256008   6.892   6.260  12.141
18059SOL     OW56009   1.643   8.171   6.608
18059SOL    HW156010   1.697   8.104   6.650
18059SOL    HW256011   1.623   8.233   6.679
18060SOL     OW56012  10.330   0.123   8.722
18060SOL    HW156013  10.271   0.129   8.797
18060SOL    HW256014  10.413   0.159   8.754
18061SOL     OW56015   3.144   5.942  10.187
18061SOL    HW156016   3.204   5.897  10.248
18061SOL    HW256017   3.083   5.988  10.245
18062SOL     OW56018  12.505   1.908   8.756
18062SOL    HW156019  12.495   1.959   8.676
18062SOL    HW256020  12.507   1.817   8.727
18063SOL     OW56021   4.083  11.431  14.588
18063SOL    HW156022   4.156  11.384  14.628
18063SOL    HW256023   4.045  11.370  14.525
18064SOL     OW56024   2.507  13.153  14.730
18064SOL    HW156025   2.555  13.073  14.709
18064SOL    HW256026   2.415  13.129  14.717
18065SOL     OW56027   7.003   3.324   1.801
18065SOL    HW156028   6.929   3.336   1.861
18065SOL    HW256029   7.011   3.229   1.792
18066SOL     OW56030   8.724   9.856   9.397
18066SOL    HW156031   8.812   9.848   9.360
18066SOL    HW256032   8.705   9.950   9.394
18067SOL     OW56033  13.790   9.292   3.970
18067SOL    HW156034  13.709   9.241   3.971
18067SOL    HW256035  13.845   9.248   3.905
18068SOL     OW56036   9.920   3.742  10.642
18068SOL    HW156037   9.941   3.815  10.584
18068SOL    HW256038   9.915   3.781  10.730
18069SOL     OW56039  12.501   7.990   1.281
18069SOL    HW156040  12.594   8.008   1.273
18069SOL    HW256041  12.462   8.073   1.308
18070SOL     OW56042  11.339  13.903  13.311
18070SOL    HW156043  11.390  13.947  13.379
18070SOL    HW256044  11.358  13.810  13.323
18071SOL     OW56045   2.384  12.841   3.202
18071SOL    HW156046   2.347  12.907   3.260
18071SOL    HW256047   2.459  12.806   3.251
18072SOL     OW56048   4.778   5.314  11.027
18072SOL    HW156049   4.801   5.255  11.098
18072SOL    HW256050   4.683   5.324  11.033
18073SOL     OW56051  13.947  13.667   4.172
18073SOL    HW156052  13.944  13.763   4.173
18073SOL    HW256053  13.867  13.641   4.127
18074SOL     OW56054   1.486   6.701  12.363
18074SOL    HW156055   1.572   6.741  12.374
18074SOL    HW256056   1.429   6.751  12.423
18075SOL     OW56057   7.264   3.054   1.436
18075SOL    HW156058   7.311   2.978   1.471
18075SOL    HW256059   7.247   3.032   1.344
18076SOL     OW56060   4.582   4.842  12.647
18076SOL    HW156061   4.581   4.909  12.579
18076SOL    HW256062   4.589   4.891  12.729
18077SOL     OW56063  14.672   6.669   7.821
18077SOL    HW156064  14.611   6.613   7.870
18077SOL    HW256065  14.617   6.717   7.760
18078SOL     OW56066   6.662   9.074   2.410
18078SOL    HW156067   6.637   8.997   2.461
18078SOL    HW256068   6.693   9.039   2.327
18079SOL     OW56069   8.755  13.757   5.364
18079SOL    HW156070   8.730  13.711   5.444
18079SOL    HW256071   8.840  13.796   5.385
18080SOL     OW56072   6.783  10.490  14.244
18080SOL    HW156073   6.764  10.468  14.153
18080SOL    HW256074   6.854  10.432  14.268
18081SOL     OW56075   7.414   4.200   3.142
18081SOL    HW156076   7.459   4.254   3.208
18081SOL    HW256077   7.432   4.244   3.059
18082SOL     OW56078   3.610  14.102   9.560
18082SOL    HW156079   3.593  14.025   9.615
18082SOL    HW256080   3.636  14.170   9.622
18083SOL     OW56081   7.715   2.879  13.067
18083SOL    HW156082   7.678   2.911  12.985
18083SOL    HW256083   7.640   2.872  13.126
18084SOL     OW56084  11.601   4.381   4.793
18084SOL    HW156085  11.632   4.421   4.712
18084SOL    HW256086  11.583   4.290   4.769
18085SOL     OW56087  10.124  14.113   7.427
18085SOL    HW156088  10.074  14.163   7.363
18085SOL    HW256089  10.071  14.117   7.507
18086SOL     OW56090  11.175   8.208   3.349
18086SOL    HW156091  11.149   8.233   3.438
18086SOL    HW256092  11.141   8.120   3.337
18087SOL     OW56093   7.033  12.845  11.643
18087SOL    HW156094   7.125  12.819  11.649
18087SOL    HW256095   7.020  12.865  11.550
18088SOL     OW56096  12.036   2.090   3.666
18088SOL    HW156097  11.965   2.098   3.603
18088SOL    HW256098  12.070   2.179   3.676
18089SOL     OW56099  10.531   1.152  14.490
18089SOL    HW156100  10.525   1.196  14.575
18089SOL    HW256101  10.476   1.074  14.500
18090SOL     OW56102   2.252  11.018   9.710
18090SOL    HW156103   2.238  10.928   9.740
18090SOL    HW256104   2.315  11.054   9.772
18091SOL     OW56105   2.839   5.553  12.062
18091SOL    HW156106   2.900   5.624  12.043
18091SOL    HW256107   2.761   5.597  12.097
18092SOL     OW56108  11.829   8.551   4.647
18092SOL    HW156109  11.835   8.482   4.581
18092SOL    HW256110  11.799   8.628   4.600
18093SOL     OW56111  12.862   5.778  14.568
18093SOL    HW156112  12.941   5.829  14.582
18093SOL    HW256113  12.794   5.823  14.618
18094SOL     OW56114   1.145   5.930   0.557
18094SOL    HW156115   1.171   5.950   0.467
18094SOL    HW256116   1.083   5.858   0.548
18095SOL     OW56117  10.766  12.795   8.762
18095SOL    HW156118  10.694  12.754   8.715
18095SOL    HW256119  10.830  12.816   8.693
18096SOL     OW56120   5.193  12.085   7.400
18096SOL    HW156121   5.109  12.130   7.405
18096SOL    HW256122   5.248  12.130   7.465
18097SOL     OW56123   4.558   5.481   3.116
18097SOL    HW156124   4.607   5.432   3.181
18097SOL    HW256125   4.599   5.458   3.033
18098SOL     OW56126   6.725   4.885  10.477
18098SOL    HW156127   6.769   4.953  10.529
18098SOL    HW256128   6.793   4.818  10.464
18099SOL     OW56129   7.192  10.555   0.204
18099SOL    HW156130   7.172  10.648   0.192
18099SOL    HW256131   7.170  10.537   0.295
18100SOL     OW56132   2.700   9.794  10.613
18100SOL    HW156133   2.650   9.729  10.563
18100SOL    HW256134   2.755   9.742  10.672
18101SOL     OW56135  13.150   8.465   0.906
18101SOL    HW156136  13.162   8.547   0.955
18101SOL    HW256137  13.061   8.437   0.929
18102SOL     OW56138   5.208   3.383   8.135
18102SOL    HW156139   5.288   3.349   8.175
18102SOL    HW256140   5.228   3.384   8.041
18103SOL     OW56141  12.221  14.433   8.610
18103SOL    HW156142  12.236  14.435   8.705
18103SOL    HW256143  12.138  14.480   8.599
18104SOL     OW56144   3.147  14.569  14.725
18104SOL    HW156145   3.142  14.480  14.759
18104SOL    HW256146   3.079  14.617  14.771
18105SOL     OW56147  13.082   0.509   2.038
18105SOL    HW156148  13.165   0.470   2.064
18105SOL    HW256149  13.022   0.434   2.031
18106SOL     OW56150   0.841   8.128   0.010
18106SOL    HW156151   0.907   8.195   0.027
18106SOL    HW256152   0.788   8.125   0.089
18107SOL     OW56153   5.371  11.007  12.464
18107SOL    HW156154   5.408  10.919  12.459
18107SOL    HW256155   5.351  11.020  12.557
18108SOL     OW56156   0.709   6.293  13.253
18108SOL    HW156157   0.640   6.268  13.192
18108SOL    HW256158   0.664   6.312  13.335
18109SOL     OW56159   2.801   6.042   8.400
18109SOL    HW156160   2.827   6.072   8.313
18109SOL    HW256161   2.864   5.974   8.422
18110SOL     OW56162   0.169  11.212   5.550
18110SOL    HW156163   0.191  11.158   5.475
18110SOL    HW256164   0.134  11.293   5.512
18111SOL     OW56165   2.793  11.653  14.713
18111SOL    HW156166   2.722  11.603  14.673
18111SOL    HW256167   2.860  11.588  14.732
18112SOL     OW56168  13.089   7.038   1.691
18112SOL    HW156169  13.016   6.977   1.677
18112SOL    HW256170  13.048   7.123   1.702
18113SOL     OW56171  13.529   3.193   9.959
18113SOL    HW156172  13.552   3.198   9.867
18113SOL    HW256173  13.571   3.113   9.990
18114SOL     OW56174   9.939  12.031   7.779
18114SOL    HW156175   9.878  12.005   7.709
18114SOL    HW256176   9.927  11.966   7.847
18115SOL     OW56177  11.391  11.429   8.637
18115SOL    HW156178  11.336  11.354   8.614
18115SOL    HW256179  11.407  11.419   8.731
18116SOL     OW56180  13.796  10.761   6.346
18116SOL    HW156181  13.814  10.715   6.265
18116SOL    HW256182  13.883  10.787   6.379
18117SOL     OW56183   4.707   0.426   5.855
18117SOL    HW156184   4.743   0.477   5.782
18117SOL    HW256185   4.659   0.355   5.813
18118SOL     OW56186  11.749   5.575  12.533
18118SOL    HW156187  11.671   5.522  12.516
18118SOL    HW256188  11.754   5.635  12.459
18119SOL     OW56189   8.432  12.396   1.422
18119SOL    HW156190   8.369  12.355   1.481
18119SOL    HW256191   8.379  12.429   1.350
18120SOL     OW56192   3.023  11.113   7.119
18120SOL    HW156193   2.951  11.052   7.137
18120SOL    HW256194   3.096  11.057   7.095
18121SOL     OW56195   2.426   4.944   3.603
18121SOL    HW156196   2.369   5.010   3.643
18121SOL    HW256197   2.383   4.861   3.620
18122SOL     OW56198  11.019   5.857  11.814
18122SOL    HW156199  11.001   5.825  11.725
18122SOL    HW256200  11.100   5.907  11.805
18123SOL     OW56201   0.518   3.241   3.906
18123SOL    HW156202   0.587   3.301   3.935
18123SOL    HW256203   0.533   3.162   3.958
18124SOL     OW56204   8.915   3.621   0.912
18124SOL    HW156205   8.946   3.711   0.918
18124SOL    HW256206   8.827   3.628   0.875
18125SOL     OW56207   1.029   4.191   7.046
18125SOL    HW156208   1.078   4.191   6.963
18125SOL    HW256209   1.049   4.106   7.086
18126SOL     OW56210  12.714  10.037   3.956
18126SOL    HW156211  12.807  10.016   3.950
18126SOL    HW256212  12.689  10.010   4.044
18127SOL     OW56213   6.067   5.772   3.035
18127SOL    HW156214   5.985   5.732   3.004
18127SOL    HW256215   6.050   5.866   3.030
18128SOL     OW56216   5.116   6.015  14.615
18128SOL    HW156217   5.060   6.062  14.678
18128SOL    HW256218   5.124   6.075  14.541
18129SOL     OW56219   9.091   0.053   2.721
18129SOL    HW156220   8.996   0.060   2.720
18129SOL    HW256221   9.119   0.111   2.792
18130SOL     OW56222   8.058  13.051  11.388
18130SOL    HW156223   8.136  13.091  11.428
18130SOL    HW256224   8.083  13.037  11.297
18131SOL     OW56225   9.157   7.464   9.373
18131SOL    HW156226   9.082   7.405   9.378
18131SOL    HW256227   9.188   7.471   9.463
18132SOL     OW56228  10.589   9.858   0.845
18132SOL    HW156229  10.558   9.773   0.878
18132SOL    HW256230  10.574   9.918   0.918
18133SOL     OW56231  11.331  12.654   6.270
18133SOL    HW156232  11.252  12.602   6.283
18133SOL    HW256233  11.398  12.590   6.245
18134SOL     OW56234  11.346  10.336   9.354
18134SOL    HW156235  11.279  10.278   9.391
18134SOL    HW256236  11.400  10.279   9.299
18135SOL     OW56237   2.453   2.719   1.571
18135SOL    HW156238   2.365   2.750   1.549
18135SOL    HW256239   2.446   2.623   1.567
18136SOL     OW56240   2.194  11.440   3.116
18136SOL    HW156241   2.234  11.356   3.137
18136SOL    HW256242   2.207  11.493   3.195
18137SOL     OW56243  10.587   5.556   3.518
18137SOL    HW156244  10.672   5.513   3.514
18137SOL    HW256245  10.549   5.528   3.602
18138SOL     OW56246   3.624  11.912   3.315
18138SOL    HW156247   3.619  11.898   3.410
18138SOL    HW256248   3.532  11.913   3.287
18139SOL     OW56249   0.202   3.706   4.132
18139SOL    HW156250   0.171   3.661   4.211
18139SOL    HW256251   0.142   3.677   4.063
18140SOL     OW56252   9.460   1.114   7.967
18140SOL    HW156253   9.411   1.110   7.885
18140SOL    HW256254   9.479   1.208   7.979
18141SOL     OW56255   6.803  12.859   3.729
18141SOL    HW156256   6.835  12.849   3.640
18141SOL    HW256257   6.804  12.954   3.745
18142SOL     OW56258   0.153   6.828   8.980
18142SOL    HW156259   0.095   6.903   8.966
18142SOL    HW256260   0.238   6.856   8.946
18143SOL     OW56261   4.870  11.039  12.131
18143SOL    HW156262   4.941  10.975  12.126
18143SOL    HW256263   4.799  10.999  12.080
18144SOL     OW56264   3.917   5.301  12.574
18144SOL    HW156265   3.926   5.387  12.614
18144SOL    HW256266   3.856   5.255  12.630
18145SOL     OW56267   6.412   5.996   9.801
18145SOL    HW156268   6.323   5.990   9.767
18145SOL    HW256269   6.426   5.914   9.848
18146SOL     OW56270   1.741  10.918  10.081
18146SOL    HW156271   1.761  10.839  10.131
18146SOL    HW256272   1.647  10.933  10.095
18147SOL     OW56273  10.381   9.745   3.362
18147SOL    HW156274  10.292   9.780   3.373
18147SOL    HW256275  10.399   9.698   3.443
18148SOL     OW56276  12.893  13.616   4.092
18148SOL    HW156277  12.848  13.646   4.013
18148SOL    HW256278  12.830  13.633   4.163
18149SOL     OW56279  12.987   4.414  13.382
18149SOL    HW156280  12.924   4.359  13.428
18149SOL    HW256281  12.982   4.499  13.426
18150SOL     OW56282   8.066   4.143  11.796
18150SOL    HW156283   8.054   4.200  11.719
18150SOL    HW256284   8.008   4.181  11.862
18151SOL     OW56285   3.796   8.580   0.875
18151SOL    HW156286   3.843   8.514   0.926
18151SOL    HW256287   3.847   8.660   0.886
18152SOL     OW56288   6.326  10.019   1.662
18152SOL    HW156289   6.246  10.070   1.651
18152SOL    HW256290   6.384  10.049   1.593
18153SOL     OW56291   9.031  12.850   8.320
18153SOL    HW156292   9.100  12.795   8.283
18153SOL    HW256293   8.993  12.895   8.245
18154SOL     OW56294   9.327   7.398   1.848
18154SOL    HW156295   9.271   7.409   1.771
18154SOL    HW256296   9.413   7.375   1.811
18155SOL     OW56297  13.429   8.100   2.297
18155SOL    HW156298  13.493   8.029   2.291
18155SOL    HW256299  13.394   8.109   2.209
18156SOL     OW56300   7.325   7.396   5.356
18156SOL    HW156301   7.310   7.377   5.448
18156SOL    HW256302   7.242   7.433   5.325
18157SOL     OW56303  11.543  11.741  14.082
18157SOL    HW156304  11.601  11.808  14.118
18157SOL    HW256305  11.575  11.659  14.121
18158SOL     OW56306  12.682   2.922  14.124
18158SOL    HW156307  12.668   2.846  14.067
18158SOL    HW256308  12.599   2.969  14.121
18159SOL     OW56309   6.647   4.516   9.826
18159SOL    HW156310   6.587   4.480   9.761
18159SOL    HW256311   6.724   4.543   9.776
18160SOL     OW56312   4.639  10.285  10.810
18160SOL    HW156313   4.571  10.341  10.772
18160SOL    HW256314   4.720  10.334  10.797
18161SOL     OW56315   1.500   7.056   7.034
18161SOL    HW156316   1.437   7.103   6.979
18161SOL    HW256317   1.515   6.974   6.987
18162SOL     OW56318   2.327   1.644   9.832
18162SOL    HW156319   2.344   1.600   9.915
18162SOL    HW256320   2.264   1.713   9.853
18163SOL     OW56321   1.051   7.916  10.420
18163SOL    HW156322   0.982   7.942  10.481
18163SOL    HW256323   1.128   7.967  10.448
18164SOL     OW56324  11.984   7.184   5.525
18164SOL    HW156325  11.905   7.238   5.528
18164SOL    HW256326  11.951   7.094   5.530
18165SOL     OW56327  14.039   9.751  14.739
18165SOL    HW156328  14.127   9.751  14.700
18165SOL    HW256329  13.984   9.709  14.673
18166SOL     OW56330   0.189   2.972   3.493
18166SOL    HW156331   0.186   3.061   3.530
18166SOL    HW256332   0.203   2.986   3.400
18167SOL     OW56333   0.558   2.189   7.781
18167SOL    HW156334   0.516   2.115   7.738
18167SOL    HW256335   0.651   2.181   7.758
18168SOL     OW56336   4.806   9.510   7.633
18168SOL    HW156337   4.745   9.568   7.679
18168SOL    HW256338   4.877   9.495   7.696
18169SOL     OW56339   5.877   9.231   7.321
18169SOL    HW156340   5.844   9.320   7.309
18169SOL    HW256341   5.804   9.175   7.297
18170SOL     OW56342   0.413  11.635  14.226
18170SOL    HW156343   0.480  11.695  14.193
18170SOL    HW256344   0.350  11.628  14.154
18171SOL     OW56345   4.502   1.700  12.254
18171SOL    HW156346   4.427   1.713  12.197
18171SOL    HW256347   4.531   1.789  12.276
18172SOL     OW56348   5.596   2.649   4.249
18172SOL    HW156349   5.646   2.636   4.330
18172SOL    HW256350   5.547   2.567   4.238
18173SOL     OW56351   0.129   7.856  12.558
18173SOL    HW156352   0.207   7.898  12.522
18173SOL    HW256353   0.121   7.892  12.647
18174SOL     OW56354   3.329   3.789   0.081
18174SOL    HW156355   3.306   3.785   0.174
18174SOL    HW256356   3.275   3.723   0.040
18175SOL     OW56357   2.662   0.320  12.494
18175SOL    HW156358   2.588   0.318  12.434
18175SOL    HW256359   2.628   0.363  12.573
18176SOL     OW56360   0.633   7.626  12.770
18176SOL    HW156361   0.633   7.608  12.864
18176SOL    HW256362   0.552   7.676  12.755
18177SOL     OW56363   1.526   1.511  12.984
18177SOL    HW156364   1.566   1.489  12.900
18177SOL    HW256365   1.449   1.563  12.961
18178SOL     OW56366   7.884  13.067  11.751
18178SOL    HW156367   7.881  13.114  11.668
18178SOL    HW256368   7.825  12.993  11.740
18179SOL     OW56369  13.346   8.085   9.151
18179SOL    HW156370  13.361   8.117   9.062
18179SOL    HW256371  13.286   8.010   9.140
18180SOL     OW56372   3.231  14.008   0.712
18180SOL    HW156373   3.248  13.920   0.678
18180SOL    HW256374   3.316  14.039   0.742
18181SOL     OW56375   8.797   0.633  12.155
18181SOL    HW156376   8.843   0.666  12.232
18181SOL    HW256377   8.808   0.701  12.090
18182SOL     OW56378  13.977   0.016   5.226
18182SOL    HW156379  13.950  14.874   5.316
18182SOL    HW256380  13.895   0.035   5.180
18183SOL     OW56381   3.160   2.327   1.434
18183SOL    HW156382   3.222   2.265   1.396
18183SOL    HW256383   3.213   2.378   1.496
18184SOL     OW56384   7.722   4.070   7.344
18184SOL    HW156385   7.797   4.051   7.287
18184SOL    HW256386   7.673   3.988   7.346
18185SOL     OW56387   1.859  10.059   2.407
18185SOL    HW156388   1.879  10.047   2.500
18185SOL    HW256389   1.876   9.973   2.368
18186SOL     OW56390   7.203   1.730   1.661
18186SOL    HW156391   7.281   1.710   1.610
18186SOL    HW256392   7.143   1.658   1.642
18187SOL     OW56393   9.924   4.506   2.687
18187SOL    HW156394   9.839   4.534   2.721
18187SOL    HW256395   9.943   4.568   2.616
18188SOL     OW56396   4.360  13.360   8.909
18188SOL    HW156397   4.304  13.436   8.892
18188SOL    HW256398   4.300  13.293   8.940
18189SOL     OW56399  13.968   4.092   3.341
18189SOL    HW156400  13.923   4.130   3.416
18189SOL    HW256401  14.031   4.031   3.379
18190SOL     OW56402  14.824  11.186   2.884
18190SOL    HW156403  14.740  11.228   2.905
18190SOL    HW256404  14.812  11.095   2.913
18191SOL     OW56405  11.404  10.676  11.884
18191SOL    HW156406  11.408  10.581  11.873
18191SOL    HW256407  11.431  10.691  11.974
18192SOL     OW56408  14.001   1.296   4.660
18192SOL    HW156409  13.993   1.202   4.643
18192SOL    HW256410  13.911   1.325   4.675
18193SOL     OW56411  11.476   9.557   0.146
18193SOL    HW156412  11.466   9.473   0.191
18193SOL    HW256413  11.511   9.534   0.060
18194SOL     OW56414   0.631   6.198  14.134
18194SOL    HW156415   0.574   6.268  14.167
18194SOL    HW256416   0.572   6.125  14.118
18195SOL     OW56417   6.283   3.811  10.529
18195SOL    HW156418   6.341   3.803  10.453
18195SOL    HW256419   6.265   3.904  10.536
18196SOL     OW56420   7.701   9.269   8.597
18196SOL    HW156421   7.677   9.285   8.506
18196SOL    HW256422   7.780   9.215   8.592
18197SOL     OW56423  10.860   9.144   3.479
18197SOL    HW156424  10.949   9.145   3.515
18197SOL    HW256425  10.838   9.051   3.474
18198SOL     OW56426  11.570   7.720  12.531
18198SOL    HW156427  11.549   7.717  12.437
18198SOL    HW256428  11.539   7.636  12.565
18199SOL     OW56429  14.479   1.148  10.410
18199SOL    HW156430  14.459   1.112  10.324
18199SOL    HW256431  14.442   1.086  10.472
18200SOL     OW56432   7.127  13.724   2.458
18200SOL    HW156433   7.196  13.663   2.482
18200SOL    HW256434   7.105  13.769   2.540
18201SOL     OW56435   6.172  10.739  12.362
18201SOL    HW156436   6.094  10.794  12.371
18201SOL    HW256437   6.225  10.783  12.295
18202SOL     OW56438   8.361  13.646   0.108
18202SOL    HW156439   8.324  13.728   0.078
18202SOL    HW256440   8.440  13.671   0.157
18203SOL     OW56441   5.890  10.658  11.159
18203SOL    HW156442   5.820  10.594  11.145
18203SOL    HW256443   5.914  10.687  11.071
18204SOL     OW56444   3.488   0.788  11.489
18204SOL    HW156445   3.505   0.749  11.575
18204SOL    HW256446   3.480   0.713  11.430
18205SOL     OW56447   5.178   0.295   8.970
18205SOL    HW156448   5.134   0.261   9.048
18205SOL    HW256449   5.243   0.228   8.948
18206SOL     OW56450   7.785   8.689   0.135
18206SOL    HW156451   7.870   8.666   0.173
18206SOL    HW256452   7.722   8.639   0.187
18207SOL     OW56453  13.425   1.371   9.608
18207SOL    HW156454  13.505   1.363   9.660
18207SOL    HW256455  13.446   1.329   9.525
18208SOL     OW56456  14.796  13.737   9.764
18208SOL    HW156457  14.741  13.777   9.831
18208SOL    HW256458  14.744  13.665   9.729
18209SOL     OW56459   5.999   5.212   2.239
18209SOL    HW156460   6.038   5.166   2.165
18209SOL    HW256461   6.064   5.202   2.309
18210SOL     OW56462  13.040  10.579   4.439
18210SOL    HW156463  13.005  10.666   4.454
18210SOL    HW256464  13.020  10.531   4.519
18211SOL     OW56465   7.952   7.708  11.661
18211SOL    HW156466   8.015   7.653  11.708
18211SOL    HW256467   8.005   7.775  11.618
18212SOL     OW56468   3.994  10.961  11.449
18212SOL    HW156469   3.942  10.909  11.389
18212SOL    HW256470   4.049  10.897  11.495
18213SOL     OW56471  11.512   9.983  11.873
18213SOL    HW156472  11.533   9.894  11.899
18213SOL    HW256473  11.509  10.033  11.955
18214SOL     OW56474  11.156  13.881   8.915
18214SOL    HW156475  11.248  13.895   8.895
18214SOL    HW256476  11.109  13.913   8.837
18215SOL     OW56477  12.851  13.571   5.029
18215SOL    HW156478  12.864  13.645   4.970
18215SOL    HW256479  12.859  13.493   4.973
18216SOL     OW56480   3.809  10.219   9.704
18216SOL    HW156481   3.791  10.125   9.707
18216SOL    HW256482   3.780  10.251   9.790
18217SOL     OW56483   6.900   8.263  12.764
18217SOL    HW156484   6.941   8.313  12.835
18217SOL    HW256485   6.953   8.284  12.687
18218SOL     OW56486  13.170   5.303   7.826
18218SOL    HW156487  13.079   5.302   7.795
18218SOL    HW256488  13.209   5.225   7.786
18219SOL     OW56489   9.107   8.461   0.439
18219SOL    HW156490   9.141   8.470   0.528
18219SOL    HW256491   9.066   8.375   0.437
18220SOL     OW56492  11.616  14.228   8.598
18220SOL    HW156493  11.689  14.234   8.537
18220SOL    HW256494  11.636  14.150   8.651
18221SOL     OW56495   3.107   5.730  12.605
18221SOL    HW156496   3.133   5.793  12.673
18221SOL    HW256497   3.042   5.674  12.648
18222SOL     OW56498   5.811   2.130  10.185
18222SOL    HW156499   5.869   2.123  10.260
18222SOL    HW256500   5.758   2.051  10.188
18223SOL     OW56501   5.348   1.410  14.291
18223SOL    HW156502   5.332   1.412  14.197
18223SOL    HW256503   5.440   1.435  14.300
18224SOL     OW56504  14.224  11.469   9.813
18224SOL    HW156505  14.170  11.457   9.735
18224SOL    HW256506  14.196  11.554   9.848
18225SOL     OW56507   6.387  11.429  10.743
18225SOL    HW156508   6.476  11.418  10.709
18225SOL    HW256509   6.378  11.523  10.755
18226SOL     OW56510   9.898   3.647   3.712
18226SOL    HW156511   9.931   3.733   3.740
18226SOL    HW256512   9.809   3.665   3.680
18227SOL     OW56513  10.809  10.240   3.747
18227SOL    HW156514  10.883  10.185   3.773
18227SOL    HW256515  10.733  10.198   3.785
18228SOL     OW56516   6.508   4.178   8.868
18228SOL    HW156517   6.434   4.219   8.823
18228SOL    HW256518   6.511   4.220   8.953
18229SOL     OW56519   5.684   9.354   4.585
18229SOL    HW156520   5.764   9.311   4.613
18229SOL    HW256521   5.695   9.445   4.611
18230SOL     OW56522  13.271  11.202   7.368
18230SOL    HW156523  13.315  11.231   7.447
18230SOL    HW256524  13.305  11.259   7.299
18231SOL     OW56525   9.113   1.915   8.213
18231SOL    HW156526   9.143   1.955   8.131
18231SOL    HW256527   9.181   1.936   8.276
18232SOL     OW56528   3.404   0.920   4.118
18232SOL    HW156529   3.471   0.851   4.117
18232SOL    HW256530   3.347   0.899   4.044
18233SOL     OW56531   0.085   0.758   4.976
18233SOL    HW156532   0.087   0.721   4.888
18233SOL    HW256533   0.015   0.709   5.020
18234SOL     OW56534  10.531   6.426  12.412
18234SOL    HW156535  10.549   6.332  12.399
18234SOL    HW256536  10.464   6.429  12.480
18235SOL     OW56537   5.735   5.832  10.157
18235SOL    HW156538   5.830   5.817  10.165
18235SOL    HW256539   5.721   5.843  10.063
18236SOL     OW56540   1.512  14.609  10.118
18236SOL    HW156541   1.550  14.696  10.130
18236SOL    HW256542   1.418  14.621  10.134
18237SOL     OW56543   6.895   2.760   0.886
18237SOL    HW156544   6.906   2.844   0.931
18237SOL    HW256545   6.967   2.706   0.919
18238SOL     OW56546  10.850  13.000   7.888
18238SOL    HW156547  10.930  13.015   7.838
18238SOL    HW256548  10.878  12.997   7.979
18239SOL     OW56549   1.547   2.402  12.463
18239SOL    HW156550   1.523   2.494  12.450
18239SOL    HW256551   1.468   2.362  12.499
18240SOL     OW56552  12.381   4.555  14.361
18240SOL    HW156553  12.389   4.474  14.410
18240SOL    HW256554  12.404   4.532  14.271
18241SOL     OW56555  10.148   2.762   0.693
18241SOL    HW156556  10.103   2.800   0.618
18241SOL    HW256557  10.221   2.712   0.656
18242SOL     OW56558   9.569   8.195   7.363
18242SOL    HW156559   9.591   8.122   7.421
18242SOL    HW256560   9.477   8.182   7.342
18243SOL     OW56561   4.572   8.642   8.824
18243SOL    HW156562   4.504   8.577   8.808
18243SOL    HW256563   4.524   8.720   8.854
18244SOL     OW56564   6.527   3.697   6.188
18244SOL    HW156565   6.565   3.614   6.157
18244SOL    HW256566   6.482   3.732   6.111
18245SOL     OW56567   3.603   6.141  13.545
18245SOL    HW156568   3.627   6.118  13.455
18245SOL    HW256569   3.687   6.150  13.590
18246SOL     OW56570   2.230   5.560   4.513
18246SOL    HW156571   2.325   5.565   4.498
18246SOL    HW256572   2.221   5.503   4.589
18247SOL     OW56573   0.748   7.335  12.331
18247SOL    HW156574   0.702   7.414  12.361
18247SOL    HW256575   0.839   7.362  12.320
18248SOL     OW56576   4.043  13.042   4.716
18248SOL    HW156577   4.009  12.997   4.793
18248SOL    HW256578   4.062  13.131   4.747
18249SOL     OW56579   8.483   2.017  10.770
18249SOL    HW156580   8.394   2.009  10.735
18249SOL    HW256581   8.480   2.095  10.826
18250SOL     OW56582   7.112   3.318  14.850
18250SOL    HW156583   7.063   3.279  14.778
18250SOL    HW256584   7.152   3.244   0.016
18251SOL     OW56585   3.523   4.192  10.828
18251SOL    HW156586   3.486   4.165  10.912
18251SOL    HW256587   3.583   4.263  10.850
18252SOL     OW56588   8.250   8.061   9.197
18252SOL    HW156589   8.184   8.039   9.262
18252SOL    HW256590   8.223   8.013   9.118
18253SOL     OW56591   6.624   2.458   0.186
18253SOL    HW156592   6.657   2.399   0.253
18253SOL    HW256593   6.642   2.413   0.103
18254SOL     OW56594   4.608  11.123  10.925
18254SOL    HW156595   4.564  11.053  10.877
18254SOL    HW256596   4.537  11.183  10.950
18255SOL     OW56597  11.064  12.356  11.818
18255SOL    HW156598  11.029  12.420  11.756
18255SOL    HW256599  11.093  12.409  11.893
18256SOL     OW56600   3.350   3.777   1.344
18256SOL    HW156601   3.392   3.705   1.297
18256SOL    HW256602   3.322   3.738   1.427
18257SOL     OW56603   8.158   7.563  11.850
18257SOL    HW156604   8.222   7.498  11.877
18257SOL    HW256605   8.211   7.639  11.823
18258SOL     OW56606   6.455   2.427  13.756
18258SOL    HW156607   6.442   2.502  13.813
18258SOL    HW256608   6.386   2.365  13.781
18259SOL     OW56609  10.069   7.093   4.577
18259SOL    HW156610  10.153   7.111   4.620
18259SOL    HW256611  10.006   7.145   4.627
18260SOL     OW56612  14.724  11.742   1.213
18260SOL    HW156613  14.819  11.756   1.208
18260SOL    HW256614  14.712  11.652   1.181
18261SOL     OW56615  11.655  10.027   2.548
18261SOL    HW156616  11.605  10.096   2.591
18261SOL    HW256617  11.632  10.033   2.456
18262SOL     OW56618   0.686   3.871   7.759
18262SOL    HW156619   0.708   3.964   7.761
18262SOL    HW256620   0.686   3.845   7.851
18263SOL     OW56621  11.364  11.642   9.835
18263SOL    HW156622  11.270  11.629   9.848
18263SOL    HW256623  11.389  11.577   9.769
18264SOL     OW56624  12.372   3.649   8.113
18264SOL    HW156625  12.278   3.649   8.094
18264SOL    HW256626  12.380   3.597   8.193
18265SOL     OW56627   2.627  14.714   9.644
18265SOL    HW156628   2.556  14.697   9.706
18265SOL    HW256629   2.683  14.637   9.651
18266SOL     OW56630  11.947   1.798   7.806
18266SOL    HW156631  11.890   1.841   7.741
18266SOL    HW256632  11.895   1.798   7.886
18267SOL     OW56633   9.829  11.885   9.170
18267SOL    HW156634   9.871  11.924   9.246
18267SOL    HW256635   9.761  11.947   9.145
18268SOL     OW56636   3.599  13.611   0.546
18268SOL    HW156637   3.650  13.561   0.610
18268SOL    HW256638   3.646  13.600   0.464
18269SOL     OW56639  12.562   0.364  14.689
18269SOL    HW156640  12.490   0.302  14.679
18269SOL    HW256641  12.520   0.445  14.719
18270SOL     OW56642   8.766   5.571  11.104
18270SOL    HW156643   8.792   5.559  11.012
18270SOL    HW256644   8.695   5.508  11.117
18271SOL     OW56645  14.702   4.991  14.145
18271SOL    HW156646  14.796   4.984  14.128
18271SOL    HW256647  14.695   5.057  14.214
18272SOL     OW56648   9.473   4.642   8.931
18272SOL    HW156649   9.408   4.681   8.989
18272SOL    HW256650   9.528   4.589   8.988
18273SOL     OW56651  11.243  11.929   1.037
18273SOL    HW156652  11.257  11.890   0.951
18273SOL    HW256653  11.209  12.016   1.019
18274SOL     OW56654  14.528   1.867   7.037
18274SOL    HW156655  14.609   1.819   7.048
18274SOL    HW256656  14.511   1.865   6.942
18275SOL     OW56657   4.119   7.244  11.756
18275SOL    HW156658   4.180   7.200  11.696
18275SOL    HW256659   4.133   7.201  11.840
18276SOL     OW56660   2.534   3.554  12.199
18276SOL    HW156661   2.453   3.547  12.148
18276SOL    HW256662   2.559   3.463  12.216
18277SOL     OW56663   6.405   0.471   3.926
18277SOL    HW156664   6.344   0.483   3.853
18277SOL    HW256665   6.370   0.396   3.974
18278SOL     OW56666   1.958  11.694   9.649
18278SOL    HW156667   1.886  11.742   9.610
18278SOL    HW256668   1.919  11.613   9.682
18279SOL     OW56669   2.592   1.282   2.140
18279SOL    HW156670   2.675   1.301   2.182
18279SOL    HW256671   2.615   1.238   2.058
18280SOL     OW56672   4.448   9.234   6.730
18280SOL    HW156673   4.405   9.276   6.655
18280SOL    HW256674   4.517   9.295   6.755
18281SOL     OW56675   2.820   3.603   4.141
18281SOL    HW156676   2.845   3.686   4.102
18281SOL    HW256677   2.814   3.621   4.235
18282SOL     OW56678   6.357   2.808   7.249
18282SOL    HW156679   6.376   2.719   7.277
18282SOL    HW256680   6.268   2.804   7.214
18283SOL     OW56681   2.821   4.572  10.599
18283SOL    HW156682   2.747   4.576  10.538
18283SOL    HW256683   2.868   4.493  10.574
18284SOL     OW56684   2.783   4.186   6.820
18284SOL    HW156685   2.723   4.192   6.895
18284SOL    HW256686   2.782   4.093   6.796
18285SOL     OW56687   8.774   4.741  14.348
18285SOL    HW156688   8.749   4.659  14.305
18285SOL    HW256689   8.755   4.809  14.283
18286SOL     OW56690   3.851   7.181  11.683
18286SOL    HW156691   3.934   7.229  11.684
18286SOL    HW256692   3.819   7.192  11.593
18287SOL     OW56693  11.988   8.578  12.186
18287SOL    HW156694  11.957   8.488  12.174
18287SOL    HW256695  11.912   8.624  12.222
18288SOL     OW56696  14.687  14.158   7.755
18288SOL    HW156697  14.622  14.228   7.746
18288SOL    HW256698  14.666  14.117   7.839
18289SOL     OW56699   9.138  10.819  10.301
18289SOL    HW156700   9.108  10.729  10.318
18289SOL    HW256701   9.230  10.809  10.276
18290SOL     OW56702   6.383   1.131   0.444
18290SOL    HW156703   6.289   1.126   0.429
18290SOL    HW256704   6.394   1.196   0.512
18291SOL     OW56705  12.110   8.136  13.942
18291SOL    HW156706  12.192   8.102  13.979
18291SOL    HW256707  12.041   8.092  13.992
18292SOL     OW56708   2.335  12.532  11.397
18292SOL    HW156709   2.283  12.600  11.441
18292SOL    HW256710   2.390  12.496  11.466
18293SOL     OW56711   3.412   0.967   2.536
18293SOL    HW156712   3.401   1.059   2.561
18293SOL    HW256713   3.505   0.950   2.551
18294SOL     OW56714   3.678  11.358   1.262
18294SOL    HW156715   3.766  11.321   1.256
18294SOL    HW256716   3.680  11.434   1.204
18295SOL     OW56717   0.605   0.111   9.712
18295SOL    HW156718   0.584   0.059   9.635
18295SOL    HW256719   0.602   0.048   9.785
18296SOL     OW56720  10.276  12.126  12.536
18296SOL    HW156721  10.236  12.082  12.461
18296SOL    HW256722  10.336  12.190  12.497
18297SOL     OW56723  13.390   8.013  11.622
18297SOL    HW156724  13.323   8.076  11.648
18297SOL    HW256725  13.389   7.947  11.692
18298SOL     OW56726   5.297  13.293  13.631
18298SOL    HW156727   5.328  13.222  13.687
18298SOL    HW256728   5.281  13.252  13.547
18299SOL     OW56729  11.725   7.972  12.943
18299SOL    HW156730  11.715   7.891  12.893
18299SOL    HW256731  11.709   8.042  12.879
18300SOL     OW56732   8.873   6.528   1.314
18300SOL    HW156733   8.782   6.549   1.336
18300SOL    HW256734   8.922   6.548   1.393
18301SOL     OW56735   1.840   8.569   4.303
18301SOL    HW156736   1.756   8.539   4.269
18301SOL    HW256737   1.902   8.499   4.280
18302SOL     OW56738   6.894   1.184  11.211
18302SOL    HW156739   6.841   1.137  11.147
18302SOL    HW256740   6.983   1.178  11.177
18303SOL     OW56741   5.792   3.445   7.489
18303SOL    HW156742   5.788   3.350   7.476
18303SOL    HW256743   5.771   3.457   7.582
18304SOL     OW56744   0.920  10.201   3.047
18304SOL    HW156745   0.960  10.128   2.999
18304SOL    HW256746   0.874  10.251   2.979
18305SOL     OW56747   8.572   6.105   7.408
18305SOL    HW156748   8.537   6.021   7.380
18305SOL    HW256749   8.495   6.161   7.421
18306SOL     OW56750   6.579  13.544   5.444
18306SOL    HW156751   6.601  13.452   5.430
18306SOL    HW256752   6.501  13.541   5.499
18307SOL     OW56753   6.967  11.870   9.115
18307SOL    HW156754   6.915  11.821   9.179
18307SOL    HW256755   6.909  11.940   9.086
18308SOL     OW56756   4.388   4.046   6.725
18308SOL    HW156757   4.449   4.088   6.665
18308SOL    HW256758   4.377   4.108   6.796
18309SOL     OW56759  13.438  14.803  11.755
18309SOL    HW156760  13.496  14.742  11.710
18309SOL    HW256761  13.359  14.804  11.702
18310SOL     OW56762   7.097  14.284   7.770
18310SOL    HW156763   7.106  14.370   7.729
18310SOL    HW256764   7.084  14.302   7.863
18311SOL     OW56765  11.314   9.468  14.592
18311SOL    HW156766  11.402   9.504  14.583
18311SOL    HW256767  11.316   9.388  14.539
18312SOL     OW56768   7.587   9.361   9.923
18312SOL    HW156769   7.571   9.360   9.828
18312SOL    HW256770   7.500   9.364   9.961
18313SOL     OW56771   4.667   7.662  10.150
18313SOL    HW156772   4.714   7.645  10.232
18313SOL    HW256773   4.668   7.578  10.104
18314SOL     OW56774   6.254   1.525   7.453
18314SOL    HW156775   6.236   1.602   7.507
18314SOL    HW256776   6.350   1.522   7.447
18315SOL     OW56777   4.937  10.715  11.471
18315SOL    HW156778   4.990  10.771  11.415
18315SOL    HW256779   4.864  10.770  11.498
18316SOL     OW56780  14.305   0.301   9.791
18316SOL    HW156781  14.308   0.254   9.707
18316SOL    HW256782  14.312   0.393   9.768
18317SOL     OW56783   3.337   5.664   3.708
18317SOL    HW156784   3.392   5.588   3.725
18317SOL    HW256785   3.348   5.681   3.614
18318SOL     OW56786   3.932   0.033  14.551
18318SOL    HW156787   3.854   0.068  14.510
18318SOL    HW256788   3.903  14.830  14.593
18319SOL     OW56789   7.075   6.511  13.799
18319SOL    HW156790   7.169   6.499  13.790
18319SOL    HW256791   7.044   6.431  13.843
18320SOL     OW56792  10.010  11.894   5.703
18320SOL    HW156793   9.993  11.801   5.686
18320SOL    HW256794  10.034  11.897   5.796
18321SOL     OW56795   3.678   3.669   4.662
18321SOL    HW156796   3.656   3.607   4.731
18321SOL    HW256797   3.701   3.749   4.708
18322SOL     OW56798   0.658  10.772   7.505
18322SOL    HW156799   0.625  10.692   7.547
18322SOL    HW256800   0.712  10.741   7.433
18323SOL     OW56801   5.251   3.500   5.977
18323SOL    HW156802   5.226   3.409   5.994
18323SOL    HW256803   5.168   3.546   5.968
18324SOL     OW56804   2.429  14.316   0.089
18324SOL    HW156805   2.429  14.388   0.026
18324SOL    HW256806   2.499  14.258   0.058
18325SOL     OW56807   1.211  10.158  14.048
18325SOL    HW156808   1.216  10.247  14.015
18325SOL    HW256809   1.130  10.123  14.010
18326SOL     OW56810  13.357   9.166   3.333
18326SOL    HW156811  13.386   9.245   3.288
18326SOL    HW256812  13.412   9.161   3.411
18327SOL     OW56813   7.400   8.425  11.445
18327SOL    HW156814   7.449   8.484  11.387
18327SOL    HW256815   7.335   8.482  11.487
18328SOL     OW56816   1.180   6.109   5.435
18328SOL    HW156817   1.221   6.171   5.374
18328SOL    HW256818   1.137   6.045   5.379
18329SOL     OW56819   0.545  11.061  12.188
18329SOL    HW156820   0.565  11.144  12.230
18329SOL    HW256821   0.578  10.995  12.248
18330SOL     OW56822   0.147   7.249  10.953
18330SOL    HW156823   0.120   7.190  11.023
18330SOL    HW256824   0.232   7.216  10.925
18331SOL     OW56825  12.827   8.458  11.146
18331SOL    HW156826  12.764   8.392  11.175
18331SOL    HW256827  12.863   8.423  11.065
18332SOL     OW56828   5.471  11.034  10.607
18332SOL    HW156829   5.526  11.095  10.559
18332SOL    HW256830   5.384  11.076  10.608
18333SOL     OW56831  10.932   4.277  11.870
18333SOL    HW156832  10.874   4.212  11.831
18333SOL    HW256833  10.884   4.360  11.861
18334SOL     OW56834  10.321  13.307   3.259
18334SOL    HW156835  10.274  13.224   3.250
18334SOL    HW256836  10.413  13.284   3.248
18335SOL     OW56837  12.445  11.571  13.530
18335SOL    HW156838  12.349  11.574  13.525
18335SOL    HW256839  12.463  11.489  13.577
18336SOL     OW56840  11.270  10.256   4.082
18336SOL    HW156841  11.323  10.326   4.043
18336SOL    HW256842  11.322  10.224   4.154
18337SOL     OW56843  10.112   5.809  12.297
18337SOL    HW156844  10.167   5.730  12.301
18337SOL    HW256845  10.053   5.801  12.372
18338SOL     OW56846   2.957   6.178   5.280
18338SOL    HW156847   2.958   6.105   5.220
18338SOL    HW256848   2.979   6.254   5.226
18339SOL     OW56849   7.919  11.561   6.977
18339SOL    HW156850   7.871  11.568   6.894
18339SOL    HW256851   7.915  11.468   7.000
18340SOL     OW56852   4.932   9.697   4.096
18340SOL    HW156853   4.867   9.764   4.073
18340SOL    HW256854   4.922   9.685   4.190
18341SOL     OW56855   5.085   1.186   9.499
18341SOL    HW156856   5.026   1.201   9.425
18341SOL    HW256857   5.062   1.255   9.562
18342SOL     OW56858  12.751   4.358   8.293
18342SOL    HW156859  12.701   4.367   8.374
18342SOL    HW256860  12.712   4.422   8.233
18343SOL     OW56861  11.111  13.449  13.816
18343SOL    HW156862  11.135  13.419  13.904
18343SOL    HW256863  11.017  13.434  13.810
18344SOL     OW56864   5.968  10.175   7.462
18344SOL    HW156865   5.879  10.150   7.487
18344SOL    HW256866   6.022  10.103   7.494
18345SOL     OW56867  13.041   2.984  11.733
18345SOL    HW156868  13.018   2.905  11.782
18345SOL    HW256869  13.028   3.055  11.795
18346SOL     OW56870  12.847   9.080  14.532
18346SOL    HW156871  12.765   9.032  14.535
18346SOL    HW256872  12.825   9.167  14.564
18347SOL     OW56873  12.480   3.151  10.284
18347SOL    HW156874  12.450   3.160  10.193
18347SOL    HW256875  12.399   3.145  10.335
18348SOL     OW56876   3.703  11.847   7.502
18348SOL    HW156877   3.714  11.941   7.517
18348SOL    HW256878   3.774  11.806   7.551
18349SOL     OW56879  12.946  11.969   8.385
18349SOL    HW156880  12.861  11.941   8.420
18349SOL    HW256881  12.977  11.893   8.335
18350SOL     OW56882  14.761   9.688   6.702
18350SOL    HW156883  14.736   9.694   6.794
18350SOL    HW256884  14.736   9.773   6.665
18351SOL     OW56885   0.422   6.887   2.927
18351SOL    HW156886   0.497   6.850   2.973
18351SOL    HW256887   0.367   6.924   2.996
18352SOL     OW56888   3.677  14.090   0.038
18352SOL    HW156889   3.735  14.046  14.855
18352SOL    HW256890   3.612  14.024   0.062
18353SOL     OW56891  12.084   0.126  14.418
18353SOL    HW156892  12.082   0.171  14.333
18353SOL    HW256893  12.117   0.038  14.398
18354SOL     OW56894   1.923  11.049   9.509
18354SOL    HW156895   1.912  11.118   9.443
18354SOL    HW256896   1.874  11.080   9.585
18355SOL     OW56897   2.130   7.645   5.129
18355SOL    HW156898   2.084   7.563   5.109
18355SOL    HW256899   2.074   7.689   5.192
18356SOL     OW56900   4.834   8.031   8.377
18356SOL    HW156901   4.888   8.100   8.416
18356SOL    HW256902   4.813   7.974   8.451
18357SOL     OW56903   1.394   1.200  10.443
18357SOL    HW156904   1.362   1.209  10.353
18357SOL    HW256905   1.324   1.237  10.497
18358SOL     OW56906   2.154  12.625  10.309
18358SOL    HW156907   2.086  12.692  10.302
18358SOL    HW256908   2.235  12.674  10.322
18359SOL     OW56909   9.905   3.792   6.726
18359SOL    HW156910   9.997   3.799   6.702
18359SOL    HW256911   9.898   3.837   6.810
18360SOL     OW56912  13.306  10.375   1.689
18360SOL    HW156913  13.357  10.444   1.646
18360SOL    HW256914  13.242  10.423   1.742
18361SOL     OW56915   6.868   3.484   8.167
18361SOL    HW156916   6.916   3.564   8.144
18361SOL    HW256917   6.819   3.507   8.246
18362SOL     OW56918  14.538  10.850   4.389
18362SOL    HW156919  14.446  10.828   4.402
18362SOL    HW256920  14.565  10.888   4.473
18363SOL     OW56921   5.713   3.684  12.447
18363SOL    HW156922   5.654   3.713  12.378
18363SOL    HW256923   5.664   3.698  12.528
18364SOL     OW56924   8.317   5.461  12.440
18364SOL    HW156925   8.376   5.412  12.384
18364SOL    HW256926   8.231   5.449  12.401
18365SOL     OW56927   0.367  12.897  14.819
18365SOL    HW156928   0.420  12.917   0.017
18365SOL    HW256929   0.346  12.804  14.828
18366SOL     OW56930   0.213   9.959  13.467
18366SOL    HW156931   0.229   9.904  13.391
18366SOL    HW256932   0.187  10.044  13.431
18367SOL     OW56933  13.262  10.100   6.454
18367SOL    HW156934  13.239  10.147   6.373
18367SOL    HW256935  13.205  10.138   6.520
18368SOL     OW56936  10.968   2.024   6.319
18368SOL    HW156937  10.909   2.050   6.390
18368SOL    HW256938  10.965   2.098   6.258
18369SOL     OW56939   4.660  10.076  10.227
18369SOL    HW156940   4.672  10.157  10.177
18369SOL    HW256941   4.582  10.092  10.280
18370SOL     OW56942  12.303   5.156   5.909
18370SOL    HW156943  12.382   5.199   5.877
18370SOL    HW256944  12.334   5.097   5.978
18371SOL     OW56945   0.292   5.562   5.275
18371SOL    HW156946   0.345   5.523   5.344
18371SOL    HW256947   0.228   5.616   5.321
18372SOL     OW56948   8.830   3.587   9.515
18372SOL    HW156949   8.747   3.628   9.491
18372SOL    HW256950   8.880   3.657   9.557
18373SOL     OW56951   0.227  10.036   3.593
18373SOL    HW156952   0.320  10.058   3.596
18373SOL    HW256953   0.223   9.958   3.537
18374SOL     OW56954   9.794   0.018   5.144
18374SOL    HW156955   9.713   0.067   5.133
18374SOL    HW256956   9.780  14.816   5.095
18375SOL     OW56957   1.176   8.917   7.002
18375SOL    HW156958   1.150   8.845   6.944
18375SOL    HW256959   1.234   8.876   7.066
18376SOL     OW56960   8.249  14.587   3.501
18376SOL    HW156961   8.178  14.538   3.542
18376SOL    HW256962   8.245  14.563   3.409
18377SOL     OW56963   8.154  13.091   8.280
18377SOL    HW156964   8.123  13.017   8.333
18377SOL    HW256965   8.158  13.057   8.191
18378SOL     OW56966   4.333   6.744  11.833
18378SOL    HW156967   4.244   6.757  11.799
18378SOL    HW256968   4.322   6.739  11.928
18379SOL     OW56969   1.668   6.945   4.232
18379SOL    HW156970   1.605   6.890   4.186
18379SOL    HW256971   1.615   6.997   4.292
18380SOL     OW56972  14.028  13.499   4.907
18380SOL    HW156973  14.111  13.451   4.898
18380SOL    HW256974  13.965  13.433   4.936
18381SOL     OW56975   5.504   9.672   4.958
18381SOL    HW156976   5.479   9.616   4.884
18381SOL    HW256977   5.578   9.626   4.999
18382SOL     OW56978   8.464  11.638  12.774
18382SOL    HW156979   8.400  11.583  12.730
18382SOL    HW256980   8.530  11.656  12.707
18383SOL     OW56981  11.541  13.542   6.625
18383SOL    HW156982  11.470  13.573   6.682
18383SOL    HW256983  11.535  13.447   6.630
18384SOL     OW56984  11.097  14.713   9.618
18384SOL    HW156985  11.175  14.713   9.673
18384SOL    HW256986  11.080  14.621   9.600
18385SOL     OW56987   7.765   6.353  11.092
18385SOL    HW156988   7.750   6.443  11.121
18385SOL    HW256989   7.680   6.325  11.057
18386SOL     OW56990   4.451   0.932   5.781
18386SOL    HW156991   4.456   0.896   5.869
18386SOL    HW256992   4.487   0.864   5.725
18387SOL     OW56993  10.966   8.516   9.517
18387SOL    HW156994  10.989   8.545   9.429
18387SOL    HW256995  10.871   8.518   9.519
18388SOL     OW56996   7.119   0.947   2.331
18388SOL    HW156997   7.203   0.972   2.294
18388SOL    HW256998   7.140   0.894   2.407
18389SOL     OW56999   6.986  14.555   7.372
18389SOL    HW157000   7.040  14.594   7.441
18389SOL    HW257001   7.031  14.473   7.351
18390SOL     OW57002   4.741   8.237  14.355
18390SOL    HW157003   4.792   8.177  14.409
18390SOL    HW257004   4.804   8.274  14.293
18391SOL     OW57005   6.553  13.118   4.879
18391SOL    HW157006   6.549  13.088   4.970
18391SOL    HW257007   6.641  13.155   4.870
18392SOL     OW57008   5.052   8.078   5.670
18392SOL    HW157009   5.073   8.038   5.586
18392SOL    HW257010   5.134   8.077   5.719
18393SOL     OW57011  14.353   9.770  11.857
18393SOL    HW157012  14.323   9.699  11.801
18393SOL    HW257013  14.274   9.819  11.879
18394SOL     OW57014   9.114   0.674   9.937
18394SOL    HW157015   9.019   0.682   9.933
18394SOL    HW257016   9.134   0.595   9.886
18395SOL     OW57017  10.687  11.290   8.524
18395SOL    HW157018  10.670  11.384   8.528
18395SOL    HW257019  10.752  11.280   8.455
18396SOL     OW57020   9.362   5.400   0.797
18396SOL    HW157021   9.351   5.443   0.712
18396SOL    HW257022   9.273   5.395   0.833
18397SOL     OW57023   6.530  14.577   0.805
18397SOL    HW157024   6.515  14.671   0.817
18397SOL    HW257025   6.623  14.570   0.785
18398SOL     OW57026   3.118   6.722   2.473
18398SOL    HW157027   3.074   6.749   2.554
18398SOL    HW257028   3.207   6.699   2.501
18399SOL     OW57029  14.269   5.930   0.624
18399SOL    HW157030  14.358   5.967   0.623
18399SOL    HW257031  14.218   5.990   0.570
18400SOL     OW57032  12.612  12.215   1.797
18400SOL    HW157033  12.628  12.153   1.725
18400SOL    HW257034  12.635  12.167   1.876
18401SOL     OW57035   3.126   9.750  10.235
18401SOL    HW157036   3.085   9.665  10.251
18401SOL    HW257037   3.220   9.734  10.246
18402SOL     OW57038   9.085   4.967   8.190
18402SOL    HW157039   9.065   4.930   8.276
18402SOL    HW257040   9.179   4.986   8.194
18403SOL     OW57041   2.971   8.965  13.521
18403SOL    HW157042   2.895   8.986  13.575
18403SOL    HW257043   3.028   8.913  13.578
18404SOL     OW57044  12.969   9.974  13.791
18404SOL    HW157045  12.912   9.977  13.868
18404SOL    HW257046  13.053  10.007  13.823
18405SOL     OW57047  13.936   2.291  11.882
18405SOL    HW157048  13.990   2.350  11.934
18405SOL    HW257049  13.910   2.343  11.806
18406SOL     OW57050   4.255   2.716   6.238
18406SOL    HW157051   4.263   2.651   6.168
18406SOL    HW257052   4.234   2.798   6.192
18407SOL     OW57053   3.652   4.713   7.526
18407SOL    HW157054   3.693   4.748   7.447
18407SOL    HW257055   3.647   4.788   7.586
18408SOL     OW57056  10.269   7.312   9.726
18408SOL    HW157057  10.200   7.250   9.750
18408SOL    HW257058  10.227   7.398   9.731
18409SOL     OW57059   9.264   7.351   3.389
18409SOL    HW157060   9.341   7.406   3.374
18409SOL    HW257061   9.298   7.261   3.385
18410SOL     OW57062   6.005   6.586  14.221
18410SOL    HW157063   5.968   6.561  14.136
18410SOL    HW257064   5.985   6.513  14.279
18411SOL     OW57065   8.034   4.973   3.871
18411SOL    HW157066   7.972   4.929   3.814
18411SOL    HW257067   8.108   4.913   3.876
18412SOL     OW57068   9.894  13.558   0.832
18412SOL    HW157069   9.945  13.556   0.751
18412SOL    HW257070   9.811  13.514   0.809
18413SOL     OW57071   7.092   6.082   2.174
18413SOL    HW157072   7.177   6.127   2.175
18413SOL    HW257073   7.111   5.996   2.136
18414SOL     OW57074   1.214   5.803   9.543
18414SOL    HW157075   1.300   5.846   9.544
18414SOL    HW257076   1.209   5.761   9.457
18415SOL     OW57077   8.031  13.424   7.444
18415SOL    HW157078   8.108  13.480   7.439
18415SOL    HW257079   8.010  13.404   7.353
18416SOL     OW57080   0.194  13.368  13.287
18416SOL    HW157081   0.220  13.276  13.273
18416SOL    HW257082   0.194  13.378  13.383
18417SOL     OW57083  11.767   1.093   6.459
18417SOL    HW157084  11.829   1.024   6.435
18417SOL    HW257085  11.681   1.052   6.447
18418SOL     OW57086   4.579   2.102  13.981
18418SOL    HW157087   4.500   2.070  14.025
18418SOL    HW257088   4.554   2.187  13.945
18419SOL     OW57089   9.933   8.847   0.525
18419SOL    HW157090   9.847   8.850   0.568
18419SOL    HW257091   9.963   8.938   0.527
18420SOL     OW57092  12.354  13.343  13.323
18420SOL    HW157093  12.349  13.378  13.412
18420SOL    HW257094  12.270  13.297  13.311
18421SOL     OW57095  14.855   5.133  10.564
18421SOL    HW157096  14.866   5.038  10.575
18421SOL    HW257097  14.789   5.157  10.629
18422SOL     OW57098  11.425  13.383   3.201
18422SOL    HW157099  11.462  13.470   3.189
18422SOL    HW257100  11.344  13.383   3.150
18423SOL     OW57101   2.962   1.501   0.640
18423SOL    HW157102   2.867   1.515   0.635
18423SOL    HW257103   3.000   1.583   0.608
18424SOL     OW57104   9.201   9.906   8.606
18424SOL    HW157105   9.170   9.908   8.515
18424SOL    HW257106   9.233   9.995   8.621
18425SOL     OW57107   9.748   3.804  12.991
18425SOL    HW157108   9.702   3.888  12.986
18425SOL    HW257109   9.695   3.744  12.939
18426SOL     OW57110  11.126   0.550  12.718
18426SOL    HW157111  11.051   0.607  12.699
18426SOL    HW257112  11.137   0.555  12.813
18427SOL     OW57113   1.775   5.103   5.027
18427SOL    HW157114   1.821   5.188   5.025
18427SOL    HW257115   1.837   5.044   5.070
18428SOL     OW57116   3.127  12.473  11.744
18428SOL    HW157117   3.141  12.400  11.684
18428SOL    HW257118   3.036  12.462  11.773
18429SOL     OW57119   0.201   2.659  12.790
18429SOL    HW157120   0.222   2.581  12.841
18429SOL    HW257121   0.112   2.645  12.760
18430SOL     OW57122  13.365   4.557   8.928
18430SOL    HW157123  13.368   4.572   8.834
18430SOL    HW257124  13.326   4.471   8.938
18431SOL     OW57125   7.766   0.204   9.256
18431SOL    HW157126   7.779   0.113   9.284
18431SOL    HW257127   7.730   0.248   9.333
18432SOL     OW57128  12.905   5.458   8.313
18432SOL    HW157129  12.860   5.475   8.230
18432SOL    HW257130  12.833   5.443   8.375
18433SOL     OW57131  13.314   6.055   2.856
18433SOL    HW157132  13.294   6.121   2.921
18433SOL    HW257133  13.312   5.972   2.904
18434SOL     OW57134   8.568   5.584  12.609
18434SOL    HW157135   8.623   5.647  12.561
18434SOL    HW257136   8.483   5.627  12.616
18435SOL     OW57137  11.986   7.210   3.537
18435SOL    HW157138  11.899   7.232   3.504
18435SOL    HW257139  11.972   7.134   3.594
18436SOL     OW57140  10.531   9.244  10.556
18436SOL    HW157141  10.578   9.193  10.490
18436SOL    HW257142  10.469   9.296  10.506
18437SOL     OW57143  13.331  11.930   2.496
18437SOL    HW157144  13.313  11.888   2.580
18437SOL    HW257145  13.373  12.013   2.519
18438SOL     OW57146  11.112   9.273   5.090
18438SOL    HW157147  11.149   9.217   5.159
18438SOL    HW257148  11.080   9.350   5.136
18439SOL     OW57149  13.615   4.897   4.936
18439SOL    HW157150  13.594   4.825   4.876
18439SOL    HW257151  13.656   4.963   4.880
18440SOL     OW57152   8.661   3.965   4.336
18440SOL    HW157153   8.651   3.916   4.418
18440SOL    HW257154   8.741   3.929   4.297
18441SOL     OW57155   0.855   0.959   5.336
18441SOL    HW157156   0.937   0.912   5.322
18441SOL    HW257157   0.858   1.033   5.276
18442SOL     OW57158   7.167   9.780  13.271
18442SOL    HW157159   7.217   9.857  13.299
18442SOL    HW257160   7.089   9.816  13.229
18443SOL     OW57161  12.384  14.652   7.598
18443SOL    HW157162  12.422  14.615   7.519
18443SOL    HW257163  12.296  14.616   7.602
18444SOL     OW57164   6.759   2.484  10.850
18444SOL    HW157165   6.686   2.433  10.815
18444SOL    HW257166   6.779   2.443  10.934
18445SOL     OW57167   3.371   0.694   9.550
18445SOL    HW157168   3.432   0.767   9.553
18445SOL    HW257169   3.356   0.670   9.641
18446SOL     OW57170   1.509  14.636  12.395
18446SOL    HW157171   1.496  14.702  12.464
18446SOL    HW257172   1.445  14.659  12.328
18447SOL     OW57173  14.456  14.814   9.580
18447SOL    HW157174  14.369  14.777   9.566
18447SOL    HW257175  14.478  14.792   9.671
18448SOL     OW57176   4.342   3.268   8.993
18448SOL    HW157177   4.313   3.234   8.909
18448SOL    HW257178   4.280   3.231   9.057
18449SOL     OW57179  12.316   7.766  14.464
18449SOL    HW157180  12.296   7.842  14.410
18449SOL    HW257181  12.406   7.742  14.440
18450SOL     OW57182   2.833  11.714   3.755
18450SOL    HW157183   2.768  11.706   3.685
18450SOL    HW257184   2.817  11.800   3.793
18451SOL     OW57185  10.745   4.976   8.943
18451SOL    HW157186  10.750   5.050   9.004
18451SOL    HW257187  10.653   4.948   8.946
18452SOL     OW57188   2.505  11.030   7.149
18452SOL    HW157189   2.478  11.120   7.168
18452SOL    HW257190   2.473  11.013   7.061
18453SOL     OW57191   7.571   0.885   4.571
18453SOL    HW157192   7.586   0.947   4.499
18453SOL    HW257193   7.525   0.937   4.637
18454SOL     OW57194   5.503  14.519  13.416
18454SOL    HW157195   5.478  14.535  13.507
18454SOL    HW257196   5.493  14.424  13.405
18455SOL     OW57197   4.341  10.510   6.560
18455SOL    HW157198   4.399  10.459   6.616
18455SOL    HW257199   4.282  10.445   6.522
18456SOL     OW57200   3.883   3.166   3.613
18456SOL    HW157201   3.842   3.249   3.640
18456SOL    HW257202   3.948   3.149   3.681
18457SOL     OW57203   5.889   6.313   7.027
18457SOL    HW157204   5.822   6.362   7.074
18457SOL    HW257205   5.935   6.264   7.095
18458SOL     OW57206   8.744  13.395   0.812
18458SOL    HW157207   8.756  13.429   0.901
18458SOL    HW257208   8.794  13.314   0.811
18459SOL     OW57209   3.212   0.014  10.686
18459SOL    HW157210   3.176   0.038  10.772
18459SOL    HW257211   3.163  14.814  10.661
18460SOL     OW57212   0.721   9.817  13.601
18460SOL    HW157213   0.661   9.780  13.537
18460SOL    HW257214   0.754   9.897  13.559
18461SOL     OW57215   6.452  11.072   1.593
18461SOL    HW157216   6.472  11.165   1.583
18461SOL    HW257217   6.482  11.050   1.681
18462SOL     OW57218   2.452  14.253   0.579
18462SOL    HW157219   2.396  14.234   0.505
18462SOL    HW257220   2.515  14.317   0.547
18463SOL     OW57221   3.923  13.699  14.271
18463SOL    HW157222   3.976  13.696  14.351
18463SOL    HW257223   3.980  13.662  14.204
18464SOL     OW57224   5.361   9.729  10.021
18464SOL    HW157225   5.348   9.810   9.972
18464SOL    HW257226   5.456   9.721  10.030
18465SOL     OW57227   6.146   8.150  11.767
18465SOL    HW157228   6.064   8.114  11.803
18465SOL    HW257229   6.121   8.186  11.682
18466SOL     OW57230   3.516   5.649   0.758
18466SOL    HW157231   3.421   5.665   0.757
18466SOL    HW257232   3.545   5.676   0.671
18467SOL     OW57233   0.649   2.026   4.235
18467SOL    HW157234   0.635   2.101   4.294
18467SOL    HW257235   0.743   2.027   4.218
18468SOL     OW57236   1.207  14.257  13.830
18468SOL    HW157237   1.187  14.327  13.891
18468SOL    HW257238   1.167  14.284  13.747
18469SOL     OW57239   6.826   0.762   5.207
18469SOL    HW157240   6.778   0.800   5.133
18469SOL    HW257241   6.886   0.831   5.235
18470SOL     OW57242   9.034  13.485   4.948
18470SOL    HW157243   8.985  13.418   4.996
18470SOL    HW257244   9.124  13.453   4.947
18471SOL     OW57245   7.094   1.341  12.839
18471SOL    HW157246   7.155   1.376  12.774
18471SOL    HW257247   7.032   1.412  12.855
18472SOL     OW57248   6.994  12.903   4.729
18472SOL    HW157249   6.948  12.890   4.812
18472SOL    HW257250   6.981  12.996   4.709
18473SOL     OW57251   3.508   9.678   9.749
18473SOL    HW157252   3.469   9.745   9.693
18473SOL    HW257253   3.469   9.693   9.835
18474SOL     OW57254  12.764  11.134   4.236
18474SOL    HW157255  12.759  11.041   4.215
18474SOL    HW257256  12.719  11.178   4.163
18475SOL     OW57257   7.018   9.513   4.799
18475SOL    HW157258   6.982   9.434   4.838
18475SOL    HW257259   6.942   9.562   4.768
18476SOL     OW57260   6.660   3.388  10.960
18476SOL    HW157261   6.718   3.426  10.894
18476SOL    HW257262   6.713   3.319  11.001
18477SOL     OW57263  10.768   7.309   1.747
18477SOL    HW157264  10.787   7.270   1.662
18477SOL    HW257265  10.684   7.271   1.773
18478SOL     OW57266   0.113   7.396  13.412
18478SOL    HW157267   0.180   7.416  13.478
18478SOL    HW257268   0.149   7.430  13.330
18479SOL     OW57269   7.789   2.935   6.242
18479SOL    HW157270   7.770   2.897   6.156
18479SOL    HW257271   7.859   2.999   6.224
18480SOL     OW57272  13.295  14.396   4.347
18480SOL    HW157273  13.380  14.379   4.307
18480SOL    HW257274  13.232  14.382   4.276
18481SOL     OW57275   0.591   7.423   0.094
18481SOL    HW157276   0.546   7.505   0.114
18481SOL    HW257277   0.637   7.401   0.175
18482SOL     OW57278   5.003   9.896   1.565
18482SOL    HW157279   4.931   9.907   1.503
18482SOL    HW257280   5.058   9.972   1.551
18483SOL     OW57281   7.276   0.372   9.644
18483SOL    HW157282   7.316   0.293   9.606
18483SOL    HW257283   7.206   0.338   9.700
18484SOL     OW57284   3.176  14.655   7.509
18484SOL    HW157285   3.130  14.631   7.429
18484SOL    HW257286   3.106  14.680   7.570
18485SOL     OW57287  14.149   8.029   7.429
18485SOL    HW157288  14.132   8.110   7.478
18485SOL    HW257289  14.121   7.959   7.489
18486SOL     OW57290  14.735   8.703   7.854
18486SOL    HW157291  14.721   8.779   7.797
18486SOL    HW257292  14.730   8.739   7.943
18487SOL     OW57293  12.707  13.463   6.105
18487SOL    HW157294  12.667  13.550   6.108
18487SOL    HW257295  12.770  13.464   6.177
18488SOL     OW57296   3.827  12.680   5.437
18488SOL    HW157297   3.921  12.689   5.421
18488SOL    HW257298   3.797  12.769   5.454
18489SOL     OW57299   9.897   4.632   8.180
18489SOL    HW157300   9.845   4.635   8.260
18489SOL    HW257301   9.986   4.653   8.209
18490SOL     OW57302   9.555  14.604  13.610
18490SOL    HW157303   9.542  14.689  13.569
18490SOL    HW257304   9.487  14.599  13.677
18491SOL     OW57305   6.130   4.887  14.289
18491SOL    HW157306   6.136   4.983  14.294
18491SOL    HW257307   6.139   4.867  14.196
18492SOL     OW57308   6.651  11.746   4.468
18492SOL    HW157309   6.580  11.808   4.481
18492SOL    HW257310   6.635  11.709   4.381
18493SOL     OW57311   6.384   9.675   6.607
18493SOL    HW157312   6.326   9.620   6.554
18493SOL    HW257313   6.324   9.726   6.663
18494SOL     OW57314  10.315   9.455   3.259
18494SOL    HW157315  10.389   9.399   3.234
18494SOL    HW257316  10.355   9.529   3.304
18495SOL     OW57317   7.717   4.724   4.574
18495SOL    HW157318   7.645   4.723   4.511
18495SOL    HW257319   7.792   4.689   4.526
18496SOL     OW57320   9.037  10.042   4.481
18496SOL    HW157321   9.082  10.097   4.546
18496SOL    HW257322   9.024  10.101   4.406
18497SOL     OW57323  14.425   8.823   6.352
18497SOL    HW157324  14.426   8.874   6.433
18497SOL    HW257325  14.517   8.798   6.339
18498SOL     OW57326   2.843   3.828   8.110
18498SOL    HW157327   2.785   3.815   8.035
18498SOL    HW257328   2.805   3.902   8.158
18499SOL     OW57329  13.051   4.326  12.361
18499SOL    HW157330  13.017   4.327  12.450
18499SOL    HW257331  13.093   4.411  12.349
18500SOL     OW57332  11.078   1.651  14.707
18500SOL    HW157333  11.005   1.704  14.738
18500SOL    HW257334  11.090   1.585  14.774
18501SOL     OW57335   0.073  11.899  12.197
18501SOL    HW157336   0.123  11.835  12.146
18501SOL    HW257337   0.139  11.953  12.239
18502SOL     OW57338   9.601  13.198   0.890
18502SOL    HW157339   9.689  13.202   0.928
18502SOL    HW257340   9.610  13.138   0.816
18503SOL     OW57341   8.624  11.104   4.913
18503SOL    HW157342   8.678  11.025   4.918
18503SOL    HW257343   8.622  11.137   5.003
18504SOL     OW57344   9.625   0.550   0.143
18504SOL    HW157345   9.704   0.499   0.127
18504SOL    HW257346   9.651   0.641   0.134
18505SOL     OW57347   7.697  11.562  11.921
18505SOL    HW157348   7.721  11.487  11.867
18505SOL    HW257349   7.630  11.607  11.870
18506SOL     OW57350  12.524   3.734   7.328
18506SOL    HW157351  12.583   3.794   7.284
18506SOL    HW257352  12.540   3.747   7.422
18507SOL     OW57353  10.935   8.643   3.586
18507SOL    HW157354  10.859   8.598   3.549
18507SOL    HW257355  11.008   8.617   3.529
18508SOL     OW57356  10.714   5.782  12.848
18508SOL    HW157357  10.706   5.693  12.883
18508SOL    HW257358  10.758   5.771  12.764
18509SOL     OW57359   2.687   0.951   7.635
18509SOL    HW157360   2.643   1.015   7.579
18509SOL    HW257361   2.777   0.983   7.642
18510SOL     OW57362  13.281   9.888   6.833
18510SOL    HW157363  13.311   9.852   6.750
18510SOL    HW257364  13.333   9.842   6.899
18511SOL     OW57365   9.088  12.686   3.402
18511SOL    HW157366   9.059  12.680   3.311
18511SOL    HW257367   9.161  12.748   3.401
18512SOL     OW57368  13.356   3.334   0.672
18512SOL    HW157369  13.319   3.246   0.685
18512SOL    HW257370  13.286   3.383   0.628
18513SOL     OW57371   7.549   3.702  14.747
18513SOL    HW157372   7.472   3.691  14.803
18513SOL    HW257373   7.561   3.797  14.744
18514SOL     OW57374   6.698   9.767   0.560
18514SOL    HW157375   6.773   9.767   0.501
18514SOL    HW257376   6.693   9.857   0.592
18515SOL     OW57377  13.120  10.894   8.615
18515SOL    HW157378  13.061  10.898   8.690
18515SOL    HW257379  13.203  10.926   8.648
18516SOL     OW57380   6.904   7.312  13.969
18516SOL    HW157381   6.923   7.385  14.027
18516SOL    HW257382   6.981   7.256  13.974
18517SOL     OW57383  12.096  13.195  13.177
18517SOL    HW157384  12.058  13.272  13.133
18517SOL    HW257385  12.033  13.125  13.159
18518SOL     OW57386   3.790   2.494  13.482
18518SOL    HW157387   3.696   2.511  13.487
18518SOL    HW257388   3.806   2.426  13.547
18519SOL     OW57389   4.108   5.098   2.547
18519SOL    HW157390   4.191   5.062   2.515
18519SOL    HW257391   4.046   5.082   2.476
18520SOL     OW57392  13.085   4.533   4.551
18520SOL    HW157393  13.054   4.536   4.460
18520SOL    HW257394  13.061   4.618   4.588
18521SOL     OW57395   4.703  10.882  12.002
18521SOL    HW157396   4.677  10.803  11.955
18521SOL    HW257397   4.631  10.943  11.989
18522SOL     OW57398   3.786   1.569  11.656
18522SOL    HW157399   3.743   1.516  11.590
18522SOL    HW257400   3.860   1.516  11.685
18523SOL     OW57401   7.719   8.076  10.268
18523SOL    HW157402   7.638   8.067  10.218
18523SOL    HW257403   7.729   7.992  10.313
18524SOL     OW57404  11.796  12.202   6.468
18524SOL    HW157405  11.764  12.156   6.545
18524SOL    HW257406  11.891  12.204   6.479
18525SOL     OW57407   5.080   8.351   9.063
18525SOL    HW157408   5.174   8.344   9.046
18525SOL    HW257409   5.040   8.301   8.992
18526SOL     OW57410   0.311   9.576   5.343
18526SOL    HW157411   0.335   9.521   5.268
18526SOL    HW257412   0.249   9.522   5.393
18527SOL     OW57413  13.801   6.024   4.593
18527SOL    HW157414  13.709   6.011   4.614
18527SOL    HW257415  13.812   5.985   4.507
18528SOL     OW57416  14.544   8.534  13.736
18528SOL    HW157417  14.638   8.524  13.750
18528SOL    HW257418  14.522   8.615  13.782
18529SOL     OW57419  11.171   1.177   9.900
18529SOL    HW157420  11.192   1.211   9.987
18529SOL    HW257421  11.172   1.082   9.910
18530SOL     OW57422   9.141   4.620   9.829
18530SOL    HW157423   9.161   4.648   9.740
18530SOL    HW257424   9.046   4.606   9.830
18531SOL     OW57425   2.865   7.878   2.035
18531SOL    HW157426   2.891   7.961   1.994
18531SOL    HW257427   2.780   7.858   1.997
18532SOL     OW57428  12.117   2.811   2.167
18532SOL    HW157429  12.182   2.874   2.199
18532SOL    HW257430  12.060   2.795   2.242
18533SOL     OW57431  13.691  11.189  13.680
18533SOL    HW157432  13.722  11.130  13.749
18533SOL    HW257433  13.733  11.272  13.699
18534SOL     OW57434  13.507   4.277  13.845
18534SOL    HW157435  13.504   4.182  13.841
18534SOL    HW257436  13.558   4.304  13.769
18535SOL     OW57437   7.571   3.817  10.537
18535SOL    HW157438   7.612   3.830  10.451
18535SOL    HW257439   7.479   3.803  10.518
18536SOL     OW57440  12.416   9.966  10.442
18536SOL    HW157441  12.353  10.003  10.379
18536SOL    HW257442  12.489  10.028  10.443
18537SOL     OW57443   1.922   1.306   9.914
18537SOL    HW157444   1.982   1.273   9.981
18537SOL    HW257445   1.952   1.267   9.832
18538SOL     OW57446   1.266  13.539   2.830
18538SOL    HW157447   1.332  13.472   2.844
18538SOL    HW257448   1.188  13.506   2.875
18539SOL     OW57449   5.400   6.519  13.781
18539SOL    HW157450   5.387   6.424  13.777
18539SOL    HW257451   5.315   6.556  13.758
18540SOL     OW57452  12.294   7.589   2.835
18540SOL    HW157453  12.380   7.567   2.799
18540SOL    HW257454  12.308   7.672   2.880
18541SOL     OW57455   4.965  11.344   7.678
18541SOL    HW157456   4.924  11.260   7.698
18541SOL    HW257457   4.991  11.338   7.586
18542SOL     OW57458   7.703   3.852   4.557
18542SOL    HW157459   7.684   3.946   4.563
18542SOL    HW257460   7.771   3.845   4.490
18543SOL     OW57461   7.993  11.634  13.451
18543SOL    HW157462   8.072  11.592  13.419
18543SOL    HW257463   8.008  11.646  13.545
18544SOL     OW57464   6.349  11.642  13.226
18544SOL    HW157465   6.268  11.619  13.181
18544SOL    HW257466   6.344  11.595  13.310
18545SOL     OW57467   6.201   3.050  12.977
18545SOL    HW157468   6.269   3.072  13.041
18545SOL    HW257469   6.124   3.031  13.030
18546SOL     OW57470   2.421   3.704   5.160
18546SOL    HW157471   2.342   3.757   5.152
18546SOL    HW257472   2.488   3.766   5.188
18547SOL     OW57473   9.004  12.638   4.311
18547SOL    HW157474   9.071  12.698   4.345
18547SOL    HW257475   8.970  12.681   4.233
18548SOL     OW57476  11.848  13.778   1.746
18548SOL    HW157477  11.758  13.760   1.718
18548SOL    HW257478  11.897  13.699   1.719
18549SOL     OW57479   3.393  14.418   5.818
18549SOL    HW157480   3.404  14.506   5.853
18549SOL    HW257481   3.479  14.396   5.781
18550SOL     OW57482   4.718  12.564   9.518
18550SOL    HW157483   4.686  12.534   9.432
18550SOL    HW257484   4.712  12.486   9.574
18551SOL     OW57485  11.453   0.042   3.417
18551SOL    HW157486  11.548   0.037   3.431
18551SOL    HW257487  11.427   0.124   3.458
18552SOL     OW57488   8.058   0.964   1.107
18552SOL    HW157489   8.092   0.904   1.040
18552SOL    HW257490   8.025   0.906   1.176
18553SOL     OW57491  13.216   7.268  13.330
18553SOL    HW157492  13.164   7.282  13.409
18553SOL    HW257493  13.260   7.352  13.315
18554SOL     OW57494   4.159  10.271   0.936
18554SOL    HW157495   4.182  10.270   1.029
18554SOL    HW257496   4.130  10.183   0.917
18555SOL     OW57497  12.647   7.538   3.113
18555SOL    HW157498  12.573   7.481   3.091
18555SOL    HW257499  12.703   7.483   3.167
18556SOL     OW57500   1.759   8.365   8.365
18556SOL    HW157501   1.769   8.288   8.310
18556SOL    HW257502   1.664   8.381   8.367
18557SOL     OW57503   4.219  14.700   7.897
18557SOL    HW157504   4.200  14.754   7.820
18557SOL    HW257505   4.133  14.681   7.934
18558SOL     OW57506  12.795   9.659   6.894
18558SOL    HW157507  12.854   9.722   6.852
18558SOL    HW257508  12.759   9.707   6.969
18559SOL     OW57509   1.861  11.818   3.863
18559SOL    HW157510   1.784  11.761   3.856
18559SOL    HW257511   1.867  11.860   3.778
18560SOL     OW57512   0.325   9.413  12.319
18560SOL    HW157513   0.322   9.321  12.293
18560SOL    HW257514   0.396   9.417  12.383
18561SOL     OW57515   7.871  10.948   8.851
18561SOL    HW157516   7.907  11.020   8.799
18561SOL    HW257517   7.861  10.876   8.790
18562SOL     OW57518   3.316   9.045   5.700
18562SOL    HW157519   3.252   8.988   5.657
18562SOL    HW257520   3.321   9.122   5.643
18563SOL     OW57521   7.198   1.148   4.149
18563SOL    HW157522   7.242   1.232   4.158
18563SOL    HW257523   7.123   1.166   4.092
18564SOL     OW57524  12.994   0.540   9.476
18564SOL    HW157525  12.916   0.596   9.471
18564SOL    HW257526  12.968   0.459   9.434
18565SOL     OW57527   4.977   6.331  11.369
18565SOL    HW157528   5.062   6.317  11.412
18565SOL    HW257529   4.998   6.384  11.292
18566SOL     OW57530  11.467  10.691  13.744
18566SOL    HW157531  11.397  10.627  13.747
18566SOL    HW257532  11.430  10.765  13.696
18567SOL     OW57533   0.179  10.923  12.227
18567SOL    HW157534   0.095  10.922  12.274
18567SOL    HW257535   0.244  10.897  12.292
18568SOL     OW57536  10.244  12.877   3.675
18568SOL    HW157537  10.161  12.894   3.630
18568SOL    HW257538  10.268  12.962   3.712
18569SOL     OW57539   4.586   1.381   4.044
18569SOL    HW157540   4.558   1.472   4.035
18569SOL    HW257541   4.532   1.333   3.980
18570SOL     OW57542   7.885   3.765   7.475
18570SOL    HW157543   7.905   3.675   7.500
18570SOL    HW257544   7.967   3.798   7.436
18571SOL     OW57545   1.843   3.207  10.841
18571SOL    HW157546   1.917   3.183  10.897
18571SOL    HW257547   1.787   3.261  10.897
18572SOL     OW57548   3.278   8.468   4.564
18572SOL    HW157549   3.221   8.529   4.516
18572SOL    HW257550   3.221   8.395   4.587
18573SOL     OW57551   7.825   7.471   3.927
18573SOL    HW157552   7.742   7.518   3.934
18573SOL    HW257553   7.873   7.516   3.858
18574SOL     OW57554   5.008  10.860   5.208
18574SOL    HW157555   5.078  10.925   5.216
18574SOL    HW257556   5.051  10.777   5.228
18575SOL     OW57557   2.509  11.570  11.893
18575SOL    HW157558   2.450  11.575  11.968
18575SOL    HW257559   2.515  11.660  11.861
18576SOL     OW57560   8.858   2.331   4.722
18576SOL    HW157561   8.770   2.321   4.685
18576SOL    HW257562   8.843   2.357   4.813
18577SOL     OW57563   4.500   7.751   7.349
18577SOL    HW157564   4.465   7.755   7.438
18577SOL    HW257565   4.583   7.798   7.353
18578SOL     OW57566   5.605   9.038   3.522
18578SOL    HW157567   5.519   9.078   3.528
18578SOL    HW257568   5.590   8.956   3.474
18579SOL     OW57569  14.682   7.288   2.614
18579SOL    HW157570  14.698   7.364   2.670
18579SOL    HW257571  14.657   7.326   2.530
18580SOL     OW57572   6.166   4.868   8.513
18580SOL    HW157573   6.244   4.924   8.519
18580SOL    HW257574   6.097   4.919   8.556
18581SOL     OW57575   0.002  12.345   0.358
18581SOL    HW157576  14.807  12.366   0.414
18581SOL    HW257577   0.015  12.251   0.369
18582SOL     OW57578   0.356   3.633   8.801
18582SOL    HW157579   0.355   3.589   8.886
18582SOL    HW257580   0.409   3.575   8.745
18583SOL     OW57581   2.505   7.147  14.152
18583SOL    HW157582   2.439   7.163  14.084
18583SOL    HW257583   2.578   7.205  14.129
18584SOL     OW57584   7.928  11.296   7.334
18584SOL    HW157585   7.866  11.367   7.319
18584SOL    HW257586   7.952  11.267   7.246
18585SOL     OW57587   9.701   8.587   0.464
18585SOL    HW157588   9.644   8.663   0.466
18585SOL    HW257589   9.787   8.620   0.491
18586SOL     OW57590  14.040  11.674  14.600
18586SOL    HW157591  14.082  11.591  14.577
18586SOL    HW257592  14.096  11.740  14.559
18587SOL     OW57593  12.542   0.505   0.444
18587SOL    HW157594  12.607   0.575   0.436
18587SOL    HW257595  12.567   0.459   0.525
18588SOL     OW57596  11.592  12.783   5.335
18588SOL    HW157597  11.590  12.805   5.242
18588SOL    HW257598  11.521  12.834   5.374
18589SOL     OW57599  13.992   7.741  10.949
18589SOL    HW157600  14.022   7.821  10.906
18589SOL    HW257601  13.897   7.744  10.942
18590SOL     OW57602   2.725   9.598   1.252
18590SOL    HW157603   2.787   9.615   1.322
18590SOL    HW257604   2.751   9.514   1.215
18591SOL     OW57605   7.442  12.342   8.752
18591SOL    HW157606   7.396  12.306   8.676
18591SOL    HW257607   7.400  12.426   8.768
18592SOL     OW57608   5.656   4.545  11.886
18592SOL    HW157609   5.602   4.587  11.819
18592SOL    HW257610   5.641   4.596  11.965
18593SOL     OW57611  14.831   7.320   1.734
18593SOL    HW157612  14.870   7.255   1.676
18593SOL    HW257613  14.768   7.270   1.786
18594SOL     OW57614   1.438   2.634  11.392
18594SOL    HW157615   1.491   2.662  11.467
18594SOL    HW257616   1.436   2.538  11.398
18595SOL     OW57617   5.056   8.964   8.626
18595SOL    HW157618   5.045   8.875   8.594
18595SOL    HW257619   4.984   8.977   8.689
18596SOL     OW57620   1.089  14.780   5.688
18596SOL    HW157621   1.111  14.842   5.759
18596SOL    HW257622   1.169  14.777   5.635
18597SOL     OW57623  12.502   7.208   4.895
18597SOL    HW157624  12.578   7.265   4.882
18597SOL    HW257625  12.536   7.119   4.885
18598SOL     OW57626   8.702  10.009   0.450
18598SOL    HW157627   8.645   9.957   0.507
18598SOL    HW257628   8.784   9.961   0.448
18599SOL     OW57629  13.566   1.253   9.407
18599SOL    HW157630  13.631   1.275   9.341
18599SOL    HW257631  13.581   1.161   9.427
18600SOL     OW57632   0.676  11.215   4.743
18600SOL    HW157633   0.609  11.215   4.674
18600SOL    HW257634   0.755  11.247   4.699
18601SOL     OW57635   9.061   9.752   7.924
18601SOL    HW157636   9.067   9.731   8.017
18601SOL    HW257637   8.974   9.791   7.913
18602SOL     OW57638  14.469   6.597  14.068
18602SOL    HW157639  14.428   6.680  14.045
18602SOL    HW257640  14.397   6.538  14.087
18603SOL     OW57641   8.303  14.201   2.441
18603SOL    HW157642   8.229  14.226   2.385
18603SOL    HW257643   8.380  14.218   2.388
18604SOL     OW57644   6.402   0.158  12.858
18604SOL    HW157645   6.410   0.204  12.774
18604SOL    HW257646   6.461   0.205  12.916
18605SOL     OW57647  14.799   6.842   7.562
18605SOL    HW157648  14.866   6.815   7.625
18605SOL    HW257649  14.785   6.935   7.580
18606SOL     OW57650  10.888   6.936  10.301
18606SOL    HW157651  10.903   6.842  10.301
18606SOL    HW257652  10.805   6.947  10.254
18607SOL     OW57653  13.794   5.150   0.921
18607SOL    HW157654  13.886   5.165   0.899
18607SOL    HW257655  13.785   5.055   0.925
18608SOL     OW57656   4.861   6.019  12.136
18608SOL    HW157657   4.820   5.969  12.207
18608SOL    HW257658   4.906   5.954  12.082
18609SOL     OW57659   8.845   8.708   7.723
18609SOL    HW157660   8.802   8.689   7.640
18609SOL    HW257661   8.829   8.631   7.777
18610SOL     OW57662  12.881   6.144   3.920
18610SOL    HW157663  12.797   6.100   3.937
18610SOL    HW257664  12.917   6.161   4.007
18611SOL     OW57665   5.108   5.988  13.162
18611SOL    HW157666   5.193   5.944  13.167
18611SOL    HW257667   5.126   6.079  13.183
18612SOL     OW57668   1.232   4.237  13.526
18612SOL    HW157669   1.158   4.190  13.488
18612SOL    HW257670   1.271   4.174  13.587
18613SOL     OW57671  11.753   8.801   4.182
18613SOL    HW157672  11.799   8.758   4.254
18613SOL    HW257673  11.661   8.775   4.194
18614SOL     OW57674  14.145   8.577   2.588
18614SOL    HW157675  14.140   8.486   2.617
18614SOL    HW257676  14.055   8.609   2.593
18615SOL     OW57677   9.483   2.344  12.297
18615SOL    HW157678   9.551   2.410  12.308
18615SOL    HW257679   9.497   2.310  12.208
18616SOL     OW57680  10.938  12.562   4.387
18616SOL    HW157681  10.944  12.561   4.483
18616SOL    HW257682  11.021  12.602   4.359
18617SOL     OW57683   3.921   5.661  12.523
18617SOL    HW157684   3.890   5.610  12.447
18617SOL    HW257685   3.907   5.752  12.498
18618SOL     OW57686   4.087  11.191   2.043
18618SOL    HW157687   4.131  11.263   1.996
18618SOL    HW257688   4.020  11.161   1.982
18619SOL     OW57689   0.845   0.720  12.684
18619SOL    HW157690   0.867   0.774  12.760
18619SOL    HW257691   0.925   0.719  12.632
18620SOL     OW57692   4.929   6.423   3.812
18620SOL    HW157693   4.874   6.444   3.887
18620SOL    HW257694   4.904   6.333   3.789
18621SOL     OW57695   7.315   6.548   8.583
18621SOL    HW157696   7.309   6.472   8.525
18621SOL    HW257697   7.378   6.606   8.541
18622SOL     OW57698  14.449   0.856   4.017
18622SOL    HW157699  14.357   0.869   3.994
18622SOL    HW257700  14.467   0.921   4.084
18623SOL     OW57701   5.649  11.679   1.921
18623SOL    HW157702   5.650  11.764   1.877
18623SOL    HW257703   5.741  11.652   1.925
18624SOL     OW57704  12.199  11.139  14.023
18624SOL    HW157705  12.198  11.047  13.997
18624SOL    HW257706  12.260  11.143  14.096
18625SOL     OW57707   0.221  10.463  13.065
18625SOL    HW157708   0.162  10.531  13.098
18625SOL    HW257709   0.176  10.427  12.988
18626SOL     OW57710  12.112   6.345  13.269
18626SOL    HW157711  12.117   6.332  13.174
18626SOL    HW257712  12.064   6.269  13.301
18627SOL     OW57713   8.194   8.356  13.592
18627SOL    HW157714   8.100   8.357  13.608
18627SOL    HW257715   8.216   8.264  13.583
18628SOL     OW57716  10.778  10.902   8.839
18628SOL    HW157717  10.788  10.994   8.813
18628SOL    HW257718  10.867  10.873   8.860
18629SOL     OW57719   9.352  12.227  10.837
18629SOL    HW157720   9.352  12.146  10.786
18629SOL    HW257721   9.439  12.231  10.876
18630SOL     OW57722  10.993  14.811  13.462
18630SOL    HW157723  10.998   0.008  13.404
18630SOL    HW257724  10.970  14.738  13.404
18631SOL     OW57725   3.954  11.425   7.622
18631SOL    HW157726   4.002  11.410   7.540
18631SOL    HW257727   3.992  11.362   7.683
18632SOL     OW57728  10.879   8.205   5.067
18632SOL    HW157729  10.928   8.134   5.109
18632SOL    HW257730  10.788   8.190   5.091
18633SOL     OW57731   3.140  10.058  13.185
18633SOL    HW157732   3.087  10.127  13.147
18633SOL    HW257733   3.213  10.047  13.124
18634SOL     OW57734  13.529  13.841   7.495
18634SOL    HW157735  13.485  13.882   7.420
18634SOL    HW257736  13.460  13.792   7.539
18635SOL     OW57737   6.021   4.761  13.224
18635SOL    HW157738   6.090   4.780  13.160
18635SOL    HW257739   5.940   4.783  13.178
18636SOL     OW57740  14.678   0.430   2.939
18636SOL    HW157741  14.682   0.337   2.920
18636SOL    HW257742  14.589   0.445   2.970
18637SOL     OW57743   7.624  14.590   3.562
18637SOL    HW157744   7.699  14.604   3.621
18637SOL    HW257745   7.611  14.495   3.564
18638SOL     OW57746   0.469   8.718   3.258
18638SOL    HW157747   0.386   8.735   3.214
18638SOL    HW257748   0.451   8.642   3.313
18639SOL     OW57749  13.384   0.338  13.863
18639SOL    HW157750  13.335   0.420  13.872
18639SOL    HW257751  13.383   0.300  13.951
18640SOL     OW57752   1.888  12.090   8.397
18640SOL    HW157753   1.854  12.154   8.460
18640SOL    HW257754   1.938  12.143   8.334
18641SOL     OW57755   6.266   1.229   1.340
18641SOL    HW157756   6.292   1.261   1.253
18641SOL    HW257757   6.207   1.156   1.322
18642SOL     OW57758  10.415  10.058   7.113
18642SOL    HW157759  10.383   9.979   7.157
18642SOL    HW257760  10.422  10.123   7.182
18643SOL     OW57761   8.765  12.538   4.416
18643SOL    HW157762   8.692  12.531   4.355
18643SOL    HW257763   8.843  12.527   4.361
18644SOL     OW57764   4.093   4.512   5.764
18644SOL    HW157765   4.108   4.606   5.753
18644SOL    HW257766   4.173   4.480   5.806
18645SOL     OW57767   4.733   0.007   6.461
18645SOL    HW157768   4.714   0.054   6.380
18645SOL    HW257769   4.813   0.047   6.494
18646SOL     OW57770   8.175   4.981  14.772
18646SOL    HW157771   8.195   4.938  14.689
18646SOL    HW257772   8.081   4.967  14.785
18647SOL     OW57773  10.358  14.538   2.902
18647SOL    HW157774  10.384  14.506   2.988
18647SOL    HW257775  10.325  14.461   2.856
18648SOL     OW57776  12.523   6.311   1.678
18648SOL    HW157777  12.468   6.335   1.603
18648SOL    HW257778  12.553   6.394   1.714
18649SOL     OW57779   5.354  14.815  10.389
18649SOL    HW157780   5.293   0.009  10.401
18649SOL    HW257781   5.332  14.779  10.303
18650SOL     OW57782   6.680  13.202   2.792
18650SOL    HW157783   6.731  13.129   2.826
18650SOL    HW257784   6.669  13.261   2.867
18651SOL     OW57785  14.859  12.235  12.393
18651SOL    HW157786  14.821  12.238  12.306
18651SOL    HW257787  14.785  12.226  12.452
18652SOL     OW57788   8.203   5.347   1.150
18652SOL    HW157789   8.219   5.255   1.170
18652SOL    HW257790   8.281   5.393   1.183
18653SOL     OW57791   4.306   9.897  14.560
18653SOL    HW157792   4.391   9.934  14.536
18653SOL    HW257793   4.326   9.833  14.629
18654SOL     OW57794   4.289   6.042   3.576
18654SOL    HW157795   4.320   5.959   3.540
18654SOL    HW257796   4.232   6.077   3.508
18655SOL     OW57797  10.253  13.181   5.269
18655SOL    HW157798  10.336  13.137   5.288
18655SOL    HW257799  10.277  13.273   5.256
18656SOL     OW57800   2.059   0.858   1.700
18656SOL    HW157801   2.053   0.785   1.760
18656SOL    HW257802   2.143   0.846   1.655
18657SOL     OW57803  13.588   0.420  14.505
18657SOL    HW157804  13.600   0.475  14.428
18657SOL    HW257805  13.533   0.473  14.564
18658SOL     OW57806  12.471  12.283  11.620
18658SOL    HW157807  12.404  12.347  11.595
18658SOL    HW257808  12.441  12.247  11.703
18659SOL     OW57809  12.423   5.645   4.010
18659SOL    HW157810  12.414   5.718   4.072
18659SOL    HW257811  12.347   5.653   3.952
18660SOL     OW57812   6.820   6.691   0.857
18660SOL    HW157813   6.867   6.687   0.940
18660SOL    HW257814   6.885   6.724   0.794
18661SOL     OW57815   7.183  13.599   6.732
18661SOL    HW157816   7.135  13.565   6.657
18661SOL    HW257817   7.127  13.669   6.766
18662SOL     OW57818  12.788   0.317  12.712
18662SOL    HW157819  12.832   0.390  12.669
18662SOL    HW257820  12.786   0.248  12.646
18663SOL     OW57821  13.236   2.068   8.978
18663SOL    HW157822  13.283   2.146   9.008
18663SOL    HW257823  13.145   2.084   9.002
18664SOL     OW57824   4.713   2.914   9.543
18664SOL    HW157825   4.756   2.855   9.605
18664SOL    HW257826   4.785   2.952   9.492
18665SOL     OW57827  13.794   7.978   6.557
18665SOL    HW157828  13.755   7.969   6.470
18665SOL    HW257829  13.888   7.970   6.543
18666SOL     OW57830   3.135   7.362   6.321
18666SOL    HW157831   3.176   7.439   6.282
18666SOL    HW257832   3.121   7.386   6.412
18667SOL     OW57833  13.865  11.415   9.818
18667SOL    HW157834  13.829  11.480   9.757
18667SOL    HW257835  13.868  11.461   9.902
18668SOL     OW57836   3.624   7.228   3.495
18668SOL    HW157837   3.668   7.313   3.500
18668SOL    HW257838   3.595   7.210   3.585
18669SOL     OW57839  13.888   3.251   0.822
18669SOL    HW157840  13.848   3.223   0.740
18669SOL    HW257841  13.978   3.219   0.818
18670SOL     OW57842   3.931  13.281   9.995
18670SOL    HW157843   3.884  13.351   9.949
18670SOL    HW257844   3.863  13.215  10.012
18671SOL     OW57845   7.429   0.678   3.584
18671SOL    HW157846   7.464   0.660   3.672
18671SOL    HW257847   7.335   0.688   3.597
18672SOL     OW57848  12.641   0.949   2.391
18672SOL    HW157849  12.731   0.977   2.377
18672SOL    HW257850  12.634   0.864   2.347
18673SOL     OW57851   0.221   2.734   0.535
18673SOL    HW157852   0.161   2.740   0.461
18673SOL    HW257853   0.303   2.770   0.502
18674SOL     OW57854   5.084   8.561   1.526
18674SOL    HW157855   5.174   8.591   1.519
18674SOL    HW257856   5.056   8.590   1.613
18675SOL     OW57857   5.069  13.668  12.280
18675SOL    HW157858   5.092  13.612  12.207
18675SOL    HW257859   5.052  13.754  12.240
18676SOL     OW57860   6.494   9.334   2.784
18676SOL    HW157861   6.451   9.417   2.761
18676SOL    HW257862   6.565   9.325   2.721
18677SOL     OW57863   4.644  10.627   0.715
18677SOL    HW157864   4.673  10.718   0.710
18677SOL    HW257865   4.717  10.576   0.681
18678SOL     OW57866   9.740   9.294   5.655
18678SOL    HW157867   9.678   9.320   5.722
18678SOL    HW257868   9.758   9.201   5.673
18679SOL     OW57869   3.248  11.589   4.629
18679SOL    HW157870   3.271  11.666   4.577
18679SOL    HW257871   3.289  11.605   4.714
18680SOL     OW57872  10.009   5.395   1.259
18680SOL    HW157873  10.047   5.413   1.173
18680SOL    HW257874  10.025   5.301   1.273
18681SOL     OW57875   7.138   0.882  13.674
18681SOL    HW157876   7.162   0.909  13.585
18681SOL    HW257877   7.130   0.787  13.668
18682SOL     OW57878  11.580   3.993   8.682
18682SOL    HW157879  11.646   4.042   8.731
18682SOL    HW257880  11.629   3.950   8.612
18683SOL     OW57881   6.348   7.133   7.825
18683SOL    HW157882   6.363   7.039   7.835
18683SOL    HW257883   6.426   7.165   7.780
18684SOL     OW57884   3.091   5.028   4.216
18684SOL    HW157885   3.181   5.007   4.242
18684SOL    HW257886   3.100   5.085   4.140
18685SOL     OW57887  14.794  12.101  10.536
18685SOL    HW157888  14.833  12.025  10.578
18685SOL    HW257889  14.700  12.090  10.549
18686SOL     OW57890   3.839   5.300   0.723
18686SOL    HW157891   3.796   5.364   0.780
18686SOL    HW257892   3.775   5.229   0.714
18687SOL     OW57893  12.523  12.390   9.300
18687SOL    HW157894  12.545  12.448   9.373
18687SOL    HW257895  12.556  12.435   9.223
18688SOL     OW57896   5.848   8.702   6.973
18688SOL    HW157897   5.898   8.623   6.952
18688SOL    HW257898   5.817   8.734   6.889
18689SOL     OW57899  14.277   8.006  10.930
18689SOL    HW157900  14.269   7.972  11.019
18689SOL    HW257901  14.188   8.005  10.896
18690SOL     OW57902  10.187   1.154   4.756
18690SOL    HW157903  10.176   1.129   4.848
18690SOL    HW257904  10.247   1.089   4.721
18691SOL     OW57905   8.390  12.438   5.864
18691SOL    HW157906   8.436  12.522   5.858
18691SOL    HW257907   8.447  12.377   5.816
18692SOL     OW57908   2.466   3.138  12.994
18692SOL    HW157909   2.520   3.191  12.937
18692SOL    HW257910   2.414   3.084  12.935
18693SOL     OW57911  12.015   8.635   0.991
18693SOL    HW157912  11.998   8.546   0.963
18693SOL    HW257913  11.933   8.681   0.977
18694SOL     OW57914   7.501   7.229   8.940
18694SOL    HW157915   7.578   7.223   8.884
18694SOL    HW257916   7.483   7.323   8.946
18695SOL     OW57917   8.787   1.590  11.112
18695SOL    HW157918   8.703   1.615  11.072
18695SOL    HW257919   8.764   1.518  11.171
18696SOL     OW57920   6.182  13.060   7.261
18696SOL    HW157921   6.270  13.040   7.294
18696SOL    HW257922   6.126  13.054   7.338
18697SOL     OW57923  14.469   6.069  10.759
18697SOL    HW157924  14.381   6.105  10.767
18697SOL    HW257925  14.526   6.146  10.755
18698SOL     OW57926   9.435  13.777  12.131
18698SOL    HW157927   9.481  13.787  12.047
18698SOL    HW257928   9.348  13.814  12.114
18699SOL     OW57929  13.537   3.571   7.584
18699SOL    HW157930  13.520   3.571   7.490
18699SOL    HW257931  13.607   3.507   7.596
18700SOL     OW57932  13.707  10.066   7.997
18700SOL    HW157933  13.777  10.125   8.023
18700SOL    HW257934  13.752   9.984   7.974
18701SOL     OW57935   8.909   5.025   1.239
18701SOL    HW157936   8.889   4.974   1.161
18701SOL    HW257937   9.003   5.043   1.232
18702SOL     OW57938   7.200   5.460  13.984
18702SOL    HW157939   7.163   5.544  14.012
18702SOL    HW257940   7.201   5.465  13.888
18703SOL     OW57941   0.142  13.370   3.503
18703SOL    HW157942   0.144  13.437   3.570
18703SOL    HW257943   0.132  13.419   3.421
18704SOL     OW57944   8.764  12.039   9.658
18704SOL    HW157945   8.777  12.057   9.565
18704SOL    HW257946   8.779  12.124   9.701
18705SOL     OW57947   3.239  12.886  10.546
18705SOL    HW157948   3.210  12.975  10.561
18705SOL    HW257949   3.184  12.833  10.603
18706SOL     OW57950  14.600  12.723  11.162
18706SOL    HW157951  14.596  12.687  11.250
18706SOL    HW257952  14.667  12.791  11.167
18707SOL     OW57953   7.671   9.172   8.045
18707SOL    HW157954   7.765   9.161   8.026
18707SOL    HW257955   7.636   9.083   8.045
18708SOL     OW57956   0.114   2.177  12.479
18708SOL    HW157957   0.129   2.244  12.412
18708SOL    HW257958   0.189   2.186  12.538
18709SOL     OW57959  11.934   7.811   0.360
18709SOL    HW157960  11.906   7.873   0.426
18709SOL    HW257961  11.865   7.813   0.294
18710SOL     OW57962  13.715  14.772   9.136
18710SOL    HW157963  13.650  14.771   9.066
18710SOL    HW257964  13.792  14.730   9.098
18711SOL     OW57965   7.892   1.135   4.631
18711SOL    HW157966   7.854   1.141   4.719
18711SOL    HW257967   7.818   1.150   4.572
18712SOL     OW57968  10.332  13.711  13.013
18712SOL    HW157969  10.295  13.627  13.042
18712SOL    HW257970  10.426  13.703  13.027
18713SOL     OW57971   6.317   5.951   6.417
18713SOL    HW157972   6.389   5.898   6.382
18713SOL    HW257973   6.353   6.040   6.422
18714SOL     OW57974   5.174   5.658  11.651
18714SOL    HW157975   5.125   5.577  11.662
18714SOL    HW257976   5.243   5.654  11.717
18715SOL     OW57977  11.178   9.308  11.000
18715SOL    HW157978  11.270   9.286  10.983
18715SOL    HW257979  11.140   9.228  11.036
18716SOL     OW57980   2.295  13.892  14.804
18716SOL    HW157981   2.249  13.976  14.808
18716SOL    HW257982   2.244  13.839  14.743
18717SOL     OW57983   3.381   2.538   4.515
18717SOL    HW157984   3.444   2.466   4.513
18717SOL    HW257985   3.340   2.531   4.601
18718SOL     OW57986  13.592   9.442  12.212
18718SOL    HW157987  13.525   9.500  12.176
18718SOL    HW257988  13.620   9.389  12.138
18719SOL     OW57989  11.265  13.388  10.966
18719SOL    HW157990  11.227  13.300  10.962
18719SOL    HW257991  11.249  13.417  11.056
18720SOL     OW57992   9.355   7.969   0.215
18720SOL    HW157993   9.434   7.977   0.269
18720SOL    HW257994   9.338   7.875   0.210
18721SOL     OW57995   4.127  14.792   5.684
18721SOL    HW157996   4.055  14.854   5.674
18721SOL    HW257997   4.086  14.706   5.673
18722SOL     OW57998   7.901   6.345  12.676
18722SOL    HW157999   7.858   6.349  12.761
18722SOL    HW258000   7.914   6.437  12.651
18723SOL     OW58001  11.835  10.977   8.228
18723SOL    HW158002  11.766  10.927   8.273
18723SOL    HW258003  11.791  11.011   8.150
18724SOL     OW58004   8.905  10.853  14.535
18724SOL    HW158005   8.929  10.808  14.617
18724SOL    HW258006   8.812  10.834  14.524
18725SOL     OW58007   2.415   4.867  12.718
18725SOL    HW158008   2.469   4.823  12.785
18725SOL    HW258009   2.342   4.904  12.768
18726SOL     OW58010   9.621   7.761   1.078
18726SOL    HW158011   9.529   7.772   1.101
18726SOL    HW258012   9.669   7.789   1.156
18727SOL     OW58013  12.509   4.562  10.877
18727SOL    HW158014  12.431   4.590  10.829
18727SOL    HW258015  12.475   4.529  10.960
18728SOL     OW58016  12.631   4.987   6.028
18728SOL    HW158017  12.687   5.024   6.097
18728SOL    HW258018  12.688   4.980   5.952
18729SOL     OW58019   9.685  12.870   6.107
18729SOL    HW158020   9.701  12.779   6.131
18729SOL    HW258021   9.631  12.905   6.178
18730SOL     OW58022  14.789   2.837  11.242
18730SOL    HW158023  14.775   2.752  11.283
18730SOL    HW258024  14.702   2.877  11.239
18731SOL     OW58025  10.180   2.114   9.897
18731SOL    HW158026  10.193   2.099   9.990
18731SOL    HW258027  10.227   2.042   9.855
18732SOL     OW58028  14.351   7.682   4.702
18732SOL    HW158029  14.404   7.761   4.716
18732SOL    HW258030  14.348   7.671   4.607
18733SOL     OW58031   3.574   0.186  14.165
18733SOL    HW158032   3.642   0.130  14.127
18733SOL    HW258033   3.532   0.228  14.089
18734SOL     OW58034  13.164  12.282   5.650
18734SOL    HW158035  13.095  12.217   5.642
18734SOL    HW258036  13.125  12.352   5.703
18735SOL     OW58037   9.348  10.819   4.379
18735SOL    HW158038   9.335  10.758   4.306
18735SOL    HW258039   9.382  10.898   4.338
18736SOL     OW58040   5.451   9.014  12.848
18736SOL    HW158041   5.368   9.056  12.869
18736SOL    HW258042   5.506   9.086  12.815
18737SOL     OW58043   9.249   1.197   8.124
18737SOL    HW158044   9.316   1.243   8.176
18737SOL    HW258045   9.295   1.122   8.087
18738SOL     OW58046  12.492  10.649   9.469
18738SOL    HW158047  12.512  10.644   9.375
18738SOL    HW258048  12.396  10.649   9.472
18739SOL     OW58049   1.059   9.844  11.505
18739SOL    HW158050   1.086   9.760  11.466
18739SOL    HW258051   1.092   9.910  11.444
18740SOL     OW58052   8.246  11.941   5.061
18740SOL    HW158053   8.217  11.901   5.143
18740SOL    HW258054   8.304  11.875   5.022
18741SOL     OW58055  11.914   4.649  10.048
18741SOL    HW158056  11.950   4.627  10.135
18741SOL    HW258057  11.938   4.741  10.035
18742SOL     OW58058   9.681   7.882  14.822
18742SOL    HW158059   9.631   7.841  14.751
18742SOL    HW258060   9.693   7.973  14.793
18743SOL     OW58061   6.512   9.559  12.850
18743SOL    HW158062   6.468   9.492  12.797
18743SOL    HW258063   6.593   9.578  12.802
18744SOL     OW58064   5.995   9.891  14.858
18744SOL    HW158065   6.069   9.830  14.854
18744SOL    HW258066   5.968   9.903  14.767
18745SOL     OW58067  12.020   4.566  10.696
18745SOL    HW158068  12.033   4.637  10.633
18745SOL    HW258069  11.956   4.508  10.654
18746SOL     OW58070  12.006  13.422  11.155
18746SOL    HW158071  12.097  13.392  11.156
18746SOL    HW258072  11.965  13.371  11.085
18747SOL     OW58073   0.595   0.482  14.876
18747SOL    HW158074   0.627   0.570   0.015
18747SOL    HW258075   0.597   0.474  14.780
18748SOL     OW58076   6.583   1.712   1.124
18748SOL    HW158077   6.673   1.682   1.133
18748SOL    HW258078   6.572   1.777   1.193
18749SOL     OW58079   3.081   1.127   5.295
18749SOL    HW158080   3.080   1.041   5.253
18749SOL    HW258081   3.172   1.155   5.290
18750SOL     OW58082   6.782  10.179   9.637
18750SOL    HW158083   6.850  10.164   9.571
18750SOL    HW258084   6.748  10.266   9.618
18751SOL     OW58085   6.327   2.704  10.138
18751SOL    HW158086   6.340   2.695  10.232
18751SOL    HW258087   6.274   2.629  10.114
18752SOL     OW58088   6.338   2.112   2.296
18752SOL    HW158089   6.336   2.063   2.378
18752SOL    HW258090   6.420   2.085   2.254
18753SOL     OW58091  12.314  12.989   3.586
18753SOL    HW158092  12.359  12.942   3.656
18753SOL    HW258093  12.290  13.073   3.624
18754SOL     OW58094   6.187   3.187   9.356
18754SOL    HW158095   6.153   3.159   9.441
18754SOL    HW258096   6.111   3.190   9.299
18755SOL     OW58097  10.336   4.237   2.277
18755SOL    HW158098  10.278   4.163   2.291
18755SOL    HW258099  10.424   4.199   2.279
18756SOL     OW58100   3.573  11.001   4.757
18756SOL    HW158101   3.483  10.980   4.732
18756SOL    HW258102   3.594  11.081   4.708
18757SOL     OW58103   1.091   8.372   0.550
18757SOL    HW158104   1.132   8.334   0.472
18757SOL    HW258105   1.162   8.420   0.593
18758SOL     OW58106  11.456   8.296   0.542
18758SOL    HW158107  11.391   8.289   0.612
18758SOL    HW258108  11.532   8.335   0.585
18759SOL     OW58109  12.458   9.328  12.015
18759SOL    HW158110  12.481   9.421  12.011
18759SOL    HW258111  12.416   9.310  11.931
18760SOL     OW58112   8.424   9.595   1.583
18760SOL    HW158113   8.367   9.625   1.512
18760SOL    HW258114   8.372   9.607   1.662
18761SOL     OW58115   0.309  10.745   8.353
18761SOL    HW158116   0.257  10.732   8.432
18761SOL    HW258117   0.399  10.754   8.385
18762SOL     OW58118  13.702   2.783   1.706
18762SOL    HW158119  13.631   2.738   1.660
18762SOL    HW258120  13.718   2.862   1.654
18763SOL     OW58121  10.409   2.483   9.263
18763SOL    HW158122  10.500   2.468   9.290
18763SOL    HW258123  10.388   2.407   9.208
18764SOL     OW58124  12.696  11.583   6.574
18764SOL    HW158125  12.700  11.591   6.670
18764SOL    HW258126  12.695  11.674   6.543
18765SOL     OW58127   2.545  11.931   9.833
18765SOL    HW158128   2.539  11.836   9.830
18765SOL    HW258129   2.638  11.950   9.818
18766SOL     OW58130   3.171  11.263   1.501
18766SOL    HW158131   3.232  11.318   1.451
18766SOL    HW258132   3.223  11.234   1.577
18767SOL     OW58133   7.113  11.132  11.155
18767SOL    HW158134   7.158  11.048  11.145
18767SOL    HW258135   7.108  11.145  11.249
18768SOL     OW58136   8.023   1.908  12.849
18768SOL    HW158137   8.114   1.937  12.854
18768SOL    HW258138   7.974   1.988  12.830
18769SOL     OW58139   8.522  12.193  13.716
18769SOL    HW158140   8.552  12.178  13.627
18769SOL    HW258141   8.603  12.198  13.768
18770SOL     OW58142   9.492  13.801  12.661
18770SOL    HW158143   9.555  13.784  12.592
18770SOL    HW258144   9.496  13.896  12.674
18771SOL     OW58145   6.294  13.751  13.990
18771SOL    HW158146   6.302  13.841  13.957
18771SOL    HW258147   6.297  13.697  13.911
18772SOL     OW58148  11.251   8.025   8.502
18772SOL    HW158149  11.315   8.054   8.438
18772SOL    HW258150  11.301   8.013   8.583
18773SOL     OW58151   3.530   8.366   3.160
18773SOL    HW158152   3.467   8.435   3.142
18773SOL    HW258153   3.479   8.285   3.154
18774SOL     OW58154  10.055   1.131  11.752
18774SOL    HW158155   9.981   1.169  11.705
18774SOL    HW258156  10.018   1.057  11.800
18775SOL     OW58157   2.148   3.934   2.768
18775SOL    HW158158   2.196   4.017   2.769
18775SOL    HW258159   2.134   3.916   2.675
18776SOL     OW58160  12.106  11.198   0.812
18776SOL    HW158161  12.117  11.293   0.814
18776SOL    HW258162  12.014  11.184   0.835
18777SOL     OW58163  13.177   2.233  10.252
18777SOL    HW158164  13.125   2.190  10.184
18777SOL    HW258165  13.161   2.182  10.331
18778SOL     OW58166   5.883   1.325   1.939
18778SOL    HW158167   5.851   1.364   1.857
18778SOL    HW258168   5.816   1.347   2.003
18779SOL     OW58169   9.158   4.098   7.325
18779SOL    HW158170   9.089   4.162   7.317
18779SOL    HW258171   9.224   4.140   7.381
18780SOL     OW58172   6.587   1.508   5.031
18780SOL    HW158173   6.581   1.460   5.114
18780SOL    HW258174   6.496   1.529   5.009
18781SOL     OW58175   2.020   9.830   5.768
18781SOL    HW158176   1.973   9.790   5.841
18781SOL    HW258177   2.053   9.913   5.803
18782SOL     OW58178   5.827   1.230   8.344
18782SOL    HW158179   5.886   1.299   8.375
18782SOL    HW258180   5.790   1.192   8.424
18783SOL     OW58181   2.048   5.543   7.398
18783SOL    HW158182   2.054   5.448   7.390
18783SOL    HW258183   2.066   5.561   7.490
18784SOL     OW58184  13.451   5.224   1.756
18784SOL    HW158185  13.386   5.165   1.720
18784SOL    HW258186  13.449   5.208   1.850
18785SOL     OW58187   2.240   8.422   1.520
18785SOL    HW158188   2.209   8.343   1.564
18785SOL    HW258189   2.284   8.473   1.588
18786SOL     OW58190   2.934   6.617  10.153
18786SOL    HW158191   2.887   6.570  10.084
18786SOL    HW258192   3.026   6.596  10.138
18787SOL     OW58193  13.155   7.660   6.369
18787SOL    HW158194  13.065   7.675   6.397
18787SOL    HW258195  13.200   7.742   6.388
18788SOL     OW58196   9.484   8.180   6.812
18788SOL    HW158197   9.453   8.092   6.836
18788SOL    HW258198   9.414   8.216   6.758
18789SOL     OW58199   2.314   2.869   1.163
18789SOL    HW158200   2.397   2.832   1.192
18789SOL    HW258201   2.325   2.964   1.172
18790SOL     OW58202   4.594   8.517   5.752
18790SOL    HW158203   4.579   8.451   5.684
18790SOL    HW258204   4.640   8.588   5.706
18791SOL     OW58205   4.629  12.415   9.301
18791SOL    HW158206   4.711  12.382   9.266
18791SOL    HW258207   4.601  12.350   9.366
18792SOL     OW58208   8.910  11.223   7.373
18792SOL    HW158209   8.829  11.254   7.332
18792SOL    HW258210   8.945  11.299   7.418
18793SOL     OW58211  14.365   2.568  13.083
18793SOL    HW158212  14.286   2.561  13.136
18793SOL    HW258213  14.418   2.492  13.110
18794SOL     OW58214  11.594   7.582  10.824
18794SOL    HW158215  11.665   7.573  10.761
18794SOL    HW258216  11.601   7.672  10.856
18795SOL     OW58217  13.919  12.943   6.974
18795SOL    HW158218  13.832  12.914   6.946
18795SOL    HW258219  13.973  12.936   6.895
18796SOL     OW58220  14.267   1.962  10.452
18796SOL    HW158221  14.346   1.934  10.499
18796SOL    HW258222  14.258   1.899  10.381
18797SOL     OW58223   1.368   2.647  12.811
18797SOL    HW158224   1.406   2.687  12.732
18797SOL    HW258225   1.274   2.664  12.804
18798SOL     OW58226  13.231   2.721  12.302
18798SOL    HW158227  13.166   2.762  12.246
18798SOL    HW258228  13.302   2.696  12.243
18799SOL     OW58229   9.779   9.221   2.077
18799SOL    HW158230   9.754   9.276   2.151
18799SOL    HW258231   9.776   9.132   2.109
18800SOL     OW58232   0.283  13.896   8.059
18800SOL    HW158233   0.280  13.921   8.151
18800SOL    HW258234   0.223  13.822   8.051
18801SOL     OW58235   2.328   1.310  12.698
18801SOL    HW158236   2.421   1.307  12.672
18801SOL    HW258237   2.284   1.350  12.623
18802SOL     OW58238   5.425  12.071   0.831
18802SOL    HW158239   5.370  11.996   0.807
18802SOL    HW258240   5.505  12.032   0.866
18803SOL     OW58241   4.623  11.667  13.169
18803SOL    HW158242   4.550  11.697  13.115
18803SOL    HW258243   4.602  11.699  13.257
18804SOL     OW58244   0.442   7.090   3.126
18804SOL    HW158245   0.376   7.080   3.195
18804SOL    HW258246   0.477   7.178   3.139
18805SOL     OW58247  11.284  13.086   2.880
18805SOL    HW158248  11.314  13.027   2.949
18805SOL    HW258249  11.359  13.096   2.822
18806SOL     OW58250  13.582  14.658   4.509
18806SOL    HW158251  13.610  14.718   4.578
18806SOL    HW258252  13.487  14.667   4.507
18807SOL     OW58253   0.036   1.691  13.743
18807SOL    HW158254   0.010   1.754  13.811
18807SOL    HW258255   0.002   1.728  13.662
18808SOL     OW58256  14.687   6.727   7.152
18808SOL    HW158257  14.781   6.727   7.173
18808SOL    HW258258  14.653   6.647   7.191
18809SOL     OW58259   7.567   1.443   6.097
18809SOL    HW158260   7.529   1.530   6.083
18809SOL    HW258261   7.585   1.410   6.009
18810SOL     OW58262  14.855   1.698   0.701
18810SOL    HW158263  14.837   1.671   0.611
18810SOL    HW258264   0.069   1.723   0.700
18811SOL     OW58265   7.656  14.764   6.772
18811SOL    HW158266   7.666  14.669   6.769
18811SOL    HW258267   7.597  14.780   6.847
18812SOL     OW58268   1.532   8.632  14.671
18812SOL    HW158269   1.580   8.682  14.736
18812SOL    HW258270   1.558   8.669  14.587
18813SOL     OW58271  14.073   1.583   0.358
18813SOL    HW158272  14.166   1.582   0.336
18813SOL    HW258273  14.038   1.502   0.320
18814SOL     OW58274   6.138   1.579  14.120
18814SOL    HW158275   6.228   1.600  14.147
18814SOL    HW258276   6.127   1.487  14.144
18815SOL     OW58277  13.835  11.579   4.883
18815SOL    HW158278  13.870  11.648   4.825
18815SOL    HW258279  13.844  11.499   4.832
18816SOL     OW58280   2.715   2.510   4.675
18816SOL    HW158281   2.679   2.492   4.588
18816SOL    HW258282   2.763   2.430   4.698
18817SOL     OW58283  12.540   6.759   9.305
18817SOL    HW158284  12.487   6.836   9.327
18817SOL    HW258285  12.476   6.688   9.295
18818SOL     OW58286  11.192  12.961  10.531
18818SOL    HW158287  11.108  13.008  10.531
18818SOL    HW258288  11.200  12.926  10.442
18819SOL     OW58289   0.606  14.498  12.160
18819SOL    HW158290   0.624  14.471  12.250
18819SOL    HW258291   0.537  14.563  12.168
18820SOL     OW58292   1.553  10.419   8.854
18820SOL    HW158293   1.588  10.507   8.869
18820SOL    HW258294   1.630  10.367   8.830
18821SOL     OW58295   6.028   4.776  11.212
18821SOL    HW158296   6.091   4.844  11.234
18821SOL    HW258297   5.973   4.815  11.145
18822SOL     OW58298  11.009   1.235   0.987
18822SOL    HW158299  11.072   1.250   0.916
18822SOL    HW258300  11.039   1.155   1.029
18823SOL     OW58301  12.070   2.130   9.168
18823SOL    HW158302  12.047   2.185   9.093
18823SOL    HW258303  12.022   2.169   9.241
18824SOL     OW58304   9.297   0.763   5.966
18824SOL    HW158305   9.312   0.854   5.942
18824SOL    HW258306   9.210   0.743   5.931
18825SOL     OW58307   3.494  10.653   7.525
18825SOL    HW158308   3.463  10.714   7.458
18825SOL    HW258309   3.527  10.710   7.595
18826SOL     OW58310  13.259  14.530   1.285
18826SOL    HW158311  13.280  14.445   1.247
18826SOL    HW258312  13.253  14.514   1.379
18827SOL     OW58313   8.971   5.329  12.703
18827SOL    HW158314   8.898   5.332  12.642
18827SOL    HW258315   8.993   5.420  12.719
18828SOL     OW58316   0.155   6.659   4.718
18828SOL    HW158317   0.117   6.575   4.740
18828SOL    HW258318   0.157   6.707   4.801
18829SOL     OW58319   5.508   2.235   6.189
18829SOL    HW158320   5.514   2.317   6.140
18829SOL    HW258321   5.420   2.203   6.171
18830SOL     OW58322  11.452   4.461   5.020
18830SOL    HW158323  11.396   4.536   5.001
18830SOL    HW258324  11.510   4.453   4.944
18831SOL     OW58325  12.075   0.752   3.660
18831SOL    HW158326  12.120   0.719   3.582
18831SOL    HW258327  12.023   0.826   3.628
18832SOL     OW58328   8.018   2.067   3.207
18832SOL    HW158329   8.056   2.006   3.270
18832SOL    HW258330   7.997   2.145   3.258
18833SOL     OW58331   2.374   1.483   6.154
18833SOL    HW158332   2.369   1.510   6.062
18833SOL    HW258333   2.454   1.523   6.187
18834SOL     OW58334  13.765   2.610   2.625
18834SOL    HW158335  13.721   2.542   2.575
18834SOL    HW258336  13.810   2.663   2.559
18835SOL     OW58337  12.122   1.257   8.470
18835SOL    HW158338  12.215   1.282   8.468
18835SOL    HW258339  12.080   1.315   8.406
18836SOL     OW58340   8.373  12.097   6.492
18836SOL    HW158341   8.329  12.013   6.506
18836SOL    HW258342   8.389  12.101   6.398
18837SOL     OW58343  14.764   3.999   7.889
18837SOL    HW158344  14.834   4.053   7.852
18837SOL    HW258345  14.697   3.999   7.821
18838SOL     OW58346   7.682   3.360   8.660
18838SOL    HW158347   7.741   3.288   8.636
18838SOL    HW258348   7.632   3.378   8.581
18839SOL     OW58349   1.432  13.144   2.476
18839SOL    HW158350   1.456  13.055   2.449
18839SOL    HW258351   1.337  13.147   2.467
18840SOL     OW58352  11.379   1.426   5.069
18840SOL    HW158353  11.372   1.353   5.131
18840SOL    HW258354  11.289   1.459   5.061
18841SOL     OW58355   4.094  11.714   1.743
18841SOL    HW158356   4.177  11.667   1.752
18841SOL    HW258357   4.080  11.719   1.649
18842SOL     OW58358   9.760   7.351   4.372
18842SOL    HW158359   9.846   7.393   4.376
18842SOL    HW258360   9.754   7.318   4.282
18843SOL     OW58361  10.657   9.496  10.171
18843SOL    HW158362  10.645   9.533  10.083
18843SOL    HW258363  10.569   9.493  10.208
18844SOL     OW58364   4.511   1.363   5.371
18844SOL    HW158365   4.531   1.366   5.464
18844SOL    HW258366   4.499   1.270   5.351
18845SOL     OW58367   0.607   8.928   0.035
18845SOL    HW158368   0.629   9.006  14.863
18845SOL    HW258369   0.514   8.938   0.055
18846SOL     OW58370  12.369   0.558   2.939
18846SOL    HW158371  12.374   0.638   2.993
18846SOL    HW258372  12.334   0.588   2.856
18847SOL     OW58373  11.171   3.782  13.411
18847SOL    HW158374  11.244   3.833  13.445
18847SOL    HW258375  11.164   3.707  13.470
18848SOL     OW58376  14.873   4.122  14.046
18848SOL    HW158377  14.795   4.151  13.999
18848SOL    HW258378  14.867   4.026  14.045
18849SOL     OW58379   0.544  13.927   0.428
18849SOL    HW158380   0.607  13.887   0.368
18849SOL    HW258381   0.573  14.018   0.437
18850SOL     OW58382   7.255  12.934  10.601
18850SOL    HW158383   7.292  12.867  10.543
18850SOL    HW258384   7.191  12.980  10.547
18851SOL     OW58385  13.679  12.672   6.051
18851SOL    HW158386  13.744  12.656   5.982
18851SOL    HW258387  13.678  12.767   6.062
18852SOL     OW58388  13.453   7.081   9.829
18852SOL    HW158389  13.388   7.150   9.821
18852SOL    HW258390  13.509   7.108   9.902
18853SOL     OW58391  11.882  13.069   0.682
18853SOL    HW158392  11.792  13.074   0.649
18853SOL    HW258393  11.873  13.039   0.772
18854SOL     OW58394   3.774  13.217  13.467
18854SOL    HW158395   3.832  13.293  13.462
18854SOL    HW258396   3.767  13.199  13.561
18855SOL     OW58397   3.366   5.442   2.710
18855SOL    HW158398   3.359   5.452   2.805
18855SOL    HW258399   3.301   5.503   2.675
18856SOL     OW58400   1.519   3.364   6.885
18856SOL    HW158401   1.593   3.323   6.931
18856SOL    HW258402   1.443   3.311   6.910
18857SOL     OW58403   3.697   4.949   7.750
18857SOL    HW158404   3.604   4.932   7.736
18857SOL    HW258405   3.723   4.886   7.817
18858SOL     OW58406   2.820  13.919   7.324
18858SOL    HW158407   2.777  14.005   7.326
18858SOL    HW258408   2.765  13.866   7.267
18859SOL     OW58409   2.410   0.774   7.048
18859SOL    HW158410   2.443   0.797   6.961
18859SOL    HW258411   2.474   0.812   7.108
18860SOL     OW58412   4.717   1.769   4.997
18860SOL    HW158413   4.803   1.730   5.010
18860SOL    HW258414   4.726   1.858   5.031
18861SOL     OW58415  11.589  10.123   9.981
18861SOL    HW158416  11.521  10.058   9.998
18861SOL    HW258417  11.562  10.166   9.900
18862SOL     OW58418   5.079   9.851  14.232
18862SOL    HW158419   5.144   9.902  14.281
18862SOL    HW258420   5.000   9.905  14.232
18863SOL     OW58421  13.802   9.559  10.150
18863SOL    HW158422  13.744   9.517  10.086
18863SOL    HW258423  13.786   9.512  10.232
18864SOL     OW58424   8.595   0.972  12.348
18864SOL    HW158425   8.679   0.973  12.395
18864SOL    HW258426   8.539   0.916  12.401
18865SOL     OW58427   1.266   5.965  13.931
18865SOL    HW158428   1.255   5.919  13.847
18865SOL    HW258429   1.179   5.965  13.970
18866SOL     OW58430   0.272  10.765   6.282
18866SOL    HW158431   0.277  10.858   6.304
18866SOL    HW258432   0.347  10.725   6.326
18867SOL     OW58433   3.963   0.538   7.801
18867SOL    HW158434   4.027   0.568   7.737
18867SOL    HW258435   3.981   0.444   7.811
18868SOL     OW58436   4.569   1.654   1.907
18868SOL    HW158437   4.602   1.736   1.944
18868SOL    HW258438   4.604   1.652   1.818
18869SOL     OW58439   2.957   3.568   5.221
18869SOL    HW158440   2.890   3.499   5.225
18869SOL    HW258441   2.908   3.647   5.202
18870SOL     OW58442   8.496   6.191   5.441
18870SOL    HW158443   8.545   6.200   5.359
18870SOL    HW258444   8.559   6.214   5.509
18871SOL     OW58445   3.986   2.094   5.502
18871SOL    HW158446   4.046   2.074   5.573
18871SOL    HW258447   4.019   2.043   5.428
18872SOL     OW58448  12.153   6.515   6.977
18872SOL    HW158449  12.084   6.581   6.976
18872SOL    HW258450  12.180   6.510   7.069
18873SOL     OW58451  14.582   1.105   7.341
18873SOL    HW158452  14.677   1.113   7.355
18873SOL    HW258453  14.548   1.192   7.358
18874SOL     OW58454   1.999   9.267  10.482
18874SOL    HW158455   1.943   9.344  10.482
18874SOL    HW258456   2.055   9.278  10.559
18875SOL     OW58457   5.312  11.333   1.019
18875SOL    HW158458   5.245  11.316   0.953
18875SOL    HW258459   5.371  11.258   1.013
18876SOL     OW58460   4.695   5.409   8.264
18876SOL    HW158461   4.633   5.455   8.320
18876SOL    HW258462   4.701   5.321   8.302
18877SOL     OW58463  12.944   7.592  10.047
18877SOL    HW158464  12.863   7.598  10.098
18877SOL    HW258465  12.995   7.524  10.091
18878SOL     OW58466  12.945  10.772   7.263
18878SOL    HW158467  12.996  10.693   7.239
18878SOL    HW258468  12.997  10.844   7.229
18879SOL     OW58469  12.845   6.716   6.728
18879SOL    HW158470  12.850   6.786   6.662
18879SOL    HW258471  12.921   6.661   6.709
18880SOL     OW58472  11.600   7.362   2.700
18880SOL    HW158473  11.568   7.441   2.658
18880SOL    HW258474  11.655   7.320   2.634
18881SOL     OW58475   2.888   9.103  14.568
18881SOL    HW158476   2.976   9.080  14.537
18881SOL    HW258477   2.830   9.041  14.523
18882SOL     OW58478  11.377   7.770  14.111
18882SOL    HW158479  11.467   7.737  14.109
18882SOL    HW258480  11.342   7.748  14.024
18883SOL     OW58481   8.471   8.633   9.895
18883SOL    HW158482   8.463   8.668   9.806
18883SOL    HW258483   8.416   8.689   9.949
18884SOL     OW58484   2.056   6.750  11.665
18884SOL    HW158485   1.969   6.749  11.705
18884SOL    HW258486   2.049   6.813  11.594
18885SOL     OW58487   1.076   0.092   4.818
18885SOL    HW158488   0.998   0.058   4.862
18885SOL    HW258489   1.071   0.056   4.729
18886SOL     OW58490   6.841   1.784   1.683
18886SOL    HW158491   6.784   1.854   1.714
18886SOL    HW258492   6.830   1.784   1.588
18887SOL     OW58493   6.997   5.549   8.994
18887SOL    HW158494   6.988   5.588   8.907
18887SOL    HW258495   7.038   5.464   8.977
18888SOL     OW58496   0.010   4.917   0.849
18888SOL    HW158497  14.854   4.910   0.938
18888SOL    HW258498   0.089   4.864   0.850
18889SOL     OW58499   4.999  13.400   3.805
18889SOL    HW158500   4.914  13.365   3.830
18889SOL    HW258501   4.982  13.492   3.785
18890SOL     OW58502   2.975  11.852  14.126
18890SOL    HW158503   2.984  11.946  14.136
18890SOL    HW258504   3.015  11.815  14.205
18891SOL     OW58505  11.023   2.830  12.136
18891SOL    HW158506  11.024   2.735  12.139
18891SOL    HW258507  11.105   2.857  12.176
18892SOL     OW58508  11.653  10.705   6.153
18892SOL    HW158509  11.717  10.722   6.222
18892SOL    HW258510  11.617  10.619   6.176
18893SOL     OW58511  10.745  14.396   2.789
18893SOL    HW158512  10.688  14.320   2.779
18893SOL    HW258513  10.717  14.455   2.719
18894SOL     OW58514   9.922   6.421  10.805
18894SOL    HW158515   9.920   6.511  10.771
18894SOL    HW258516   9.967   6.428  10.889
18895SOL     OW58517   9.676   0.300   5.543
18895SOL    HW158518   9.688   0.220   5.492
18895SOL    HW258519   9.755   0.351   5.524
18896SOL     OW58520  14.700  10.260  13.061
18896SOL    HW158521  14.729  10.280  12.972
18896SOL    HW258522  14.619  10.309  13.072
18897SOL     OW58523   5.280   3.986   4.407
18897SOL    HW158524   5.188   3.976   4.385
18897SOL    HW258525   5.327   3.942   4.337
18898SOL     OW58526   5.259  11.849   0.737
18898SOL    HW158527   5.167  11.875   0.734
18898SOL    HW258528   5.264  11.790   0.813
18899SOL     OW58529   3.065  13.703  11.016
18899SOL    HW158530   3.135  13.705  10.950
18899SOL    HW258531   2.984  13.709  10.964
18900SOL     OW58532  14.035  14.851   3.452
18900SOL    HW158533  14.049   0.059   3.490
18900SOL    HW258534  13.956  14.819   3.495
18901SOL     OW58535   2.000  11.292  12.212
18901SOL    HW158536   2.011  11.315  12.119
18901SOL    HW258537   2.081  11.247  12.236
18902SOL     OW58538   6.830  11.921   5.804
18902SOL    HW158539   6.868  11.997   5.848
18902SOL    HW258540   6.896  11.852   5.812
18903SOL     OW58541  13.398   4.764  11.204
18903SOL    HW158542  13.356   4.762  11.290
18903SOL    HW258543  13.352   4.697  11.153
18904SOL     OW58544   3.760   3.445  12.926
18904SOL    HW158545   3.834   3.502  12.948
18904SOL    HW258546   3.799   3.359  12.913
18905SOL     OW58547   0.875  13.319   5.770
18905SOL    HW158548   0.817  13.379   5.724
18905SOL    HW258549   0.828  13.295   5.849
18906SOL     OW58550   1.850   7.974  11.035
18906SOL    HW158551   1.889   8.021  10.961
18906SOL    HW258552   1.784   7.917  10.996
18907SOL     OW58553   6.383   2.244   1.912
18907SOL    HW158554   6.308   2.243   1.972
18907SOL    HW258555   6.449   2.191   1.956
18908SOL     OW58556   0.143   7.102   5.089
18908SOL    HW158557   0.059   7.093   5.134
18908SOL    HW258558   0.153   7.197   5.077
18909SOL     OW58559   2.234   8.175   8.017
18909SOL    HW158560   2.295   8.247   8.009
18909SOL    HW258561   2.160   8.211   8.066
18910SOL     OW58562   7.286   6.420   0.124
18910SOL    HW158563   7.302   6.377   0.208
18910SOL    HW258564   7.231   6.358   0.075
18911SOL     OW58565   4.121  11.738   6.807
18911SOL    HW158566   4.034  11.704   6.828
18911SOL    HW258567   4.105  11.826   6.773
18912SOL     OW58568  14.863   8.875  12.609
18912SOL    HW158569  14.826   8.872  12.698
18912SOL    HW258570   0.040   8.797  12.605
18913SOL     OW58571  10.944  11.832  11.933
18913SOL    HW158572  10.892  11.806  11.857
18913SOL    HW258573  10.968  11.923  11.915
18914SOL     OW58574   9.062   0.999   6.232
18914SOL    HW158575   8.984   1.039   6.269
18914SOL    HW258576   9.081   1.050   6.153
18915SOL     OW58577   1.364   6.462  12.290
18915SOL    HW158578   1.407   6.542  12.321
18915SOL    HW258579   1.387   6.395  12.354
18916SOL     OW58580   1.080   1.836  11.176
18916SOL    HW158581   1.169   1.811  11.201
18916SOL    HW258582   1.025   1.799  11.246
18917SOL     OW58583  14.494   1.832   1.066
18917SOL    HW158584  14.472   1.869   1.152
18917SOL    HW258585  14.537   1.904   1.020
18918SOL     OW58586   5.877  13.702  12.974
18918SOL    HW158587   5.827  13.653  13.040
18918SOL    HW258588   5.811  13.754  12.928
18919SOL     OW58589   9.931   7.691   3.389
18919SOL    HW158590   9.841   7.663   3.376
18919SOL    HW258591   9.983   7.611   3.377
18920SOL     OW58592   0.835   5.302   2.203
18920SOL    HW158593   0.928   5.289   2.223
18920SOL    HW258594   0.827   5.280   2.110
18921SOL     OW58595  11.527  13.912   8.218
18921SOL    HW158596  11.493  13.994   8.182
18921SOL    HW258597  11.593  13.939   8.281
18922SOL     OW58598  14.563   2.295   3.829
18922SOL    HW158599  14.526   2.296   3.740
18922SOL    HW258600  14.645   2.343   3.821
18923SOL     OW58601  12.330  12.508  14.376
18923SOL    HW158602  12.304  12.421  14.404
18923SOL    HW258603  12.271  12.567  14.424
18924SOL     OW58604   2.569   9.087   2.726
18924SOL    HW158605   2.584   9.169   2.773
18924SOL    HW258606   2.546   9.115   2.637
18925SOL     OW58607   1.611   0.587   8.609
18925SOL    HW158608   1.528   0.630   8.587
18925SOL    HW258609   1.603   0.569   8.703
18926SOL     OW58610   4.812  13.798   4.950
18926SOL    HW158611   4.842  13.838   4.868
18926SOL    HW258612   4.845  13.708   4.946
18927SOL     OW58613   0.676  13.085   0.295
18927SOL    HW158614   0.707  13.127   0.376
18927SOL    HW258615   0.620  13.150   0.255
18928SOL     OW58616  10.525  11.559   6.834
18928SOL    HW158617  10.479  11.476   6.822
18928SOL    HW258618  10.455  11.623   6.848
18929SOL     OW58619  14.809   1.821  12.360
18929SOL    HW158620  14.747   1.813  12.288
18929SOL    HW258621   0.003   1.872  12.324
18930SOL     OW58622  10.253   0.434   0.742
18930SOL    HW158623  10.196   0.358   0.733
18930SOL    HW258624  10.322   0.407   0.802
18931SOL     OW58625  14.338   6.851   4.756
18931SOL    HW158626  14.415   6.816   4.801
18931SOL    HW258627  14.367   6.863   4.666
18932SOL     OW58628  10.356   7.975   5.516
18932SOL    HW158629  10.298   7.923   5.572
18932SOL    HW258630  10.308   8.056   5.501
18933SOL     OW58631  12.079   9.617   1.516
18933SOL    HW158632  12.041   9.632   1.429
18933SOL    HW258633  12.173   9.615   1.501
18934SOL     OW58634   8.144  12.269   6.541
18934SOL    HW158635   8.232  12.233   6.550
18934SOL    HW258636   8.086  12.193   6.542
18935SOL     OW58637   7.090   7.099   0.345
18935SOL    HW158638   7.159   7.041   0.376
18935SOL    HW258639   7.050   7.052   0.272
18936SOL     OW58640   7.176  13.126  10.972
18936SOL    HW158641   7.213  13.073  11.043
18936SOL    HW258642   7.082  13.106  10.975
18937SOL     OW58643   2.377   4.209  10.694
18937SOL    HW158644   2.395   4.230  10.786
18937SOL    HW258645   2.282   4.196  10.690
18938SOL     OW58646   3.762   0.295  13.794
18938SOL    HW158647   3.848   0.330  13.819
18938SOL    HW258648   3.764   0.295  13.698
18939SOL     OW58649   9.990   4.815   8.894
18939SOL    HW158650   9.999   4.795   8.987
18939SOL    HW258651  10.008   4.909   8.888
18940SOL     OW58652   1.678  14.131  13.799
18940SOL    HW158653   1.713  14.200  13.854
18940SOL    HW258654   1.753  14.103  13.746
18941SOL     OW58655  11.925   3.402  14.777
18941SOL    HW158656  12.007   3.381  14.822
18941SOL    HW258657  11.951   3.428  14.689
18942SOL     OW58658   7.279   0.546   2.635
18942SOL    HW158659   7.229   0.513   2.560
18942SOL    HW258660   7.257   0.487   2.707
18943SOL     OW58661   3.022   8.506   7.917
18943SOL    HW158662   3.015   8.588   7.966
18943SOL    HW258663   2.989   8.528   7.829
18944SOL     OW58664   9.387  10.511   3.199
18944SOL    HW158665   9.408  10.425   3.165
18944SOL    HW258666   9.354  10.494   3.288
18945SOL     OW58667  11.560  12.036   3.222
18945SOL    HW158668  11.499  12.077   3.159
18945SOL    HW258669  11.597  11.962   3.175
18946SOL     OW58670   7.345  10.582   6.093
18946SOL    HW158671   7.346  10.614   6.002
18946SOL    HW258672   7.434  10.552   6.108
18947SOL     OW58673   4.078   7.436  12.598
18947SOL    HW158674   4.024   7.492  12.542
18947SOL    HW258675   4.087   7.485  12.679
18948SOL     OW58676   3.392  14.444  13.742
18948SOL    HW158677   3.445  14.367  13.761
18948SOL    HW258678   3.375  14.483  13.828
18949SOL     OW58679   1.945   1.597   6.689
18949SOL    HW158680   1.905   1.614   6.774
18949SOL    HW258681   2.029   1.642   6.692
18950SOL     OW58682   0.304  11.623   3.221
18950SOL    HW158683   0.388  11.663   3.243
18950SOL    HW258684   0.243  11.656   3.287
18951SOL     OW58685   0.628  14.501   9.534
18951SOL    HW158686   0.676  14.450   9.600
18951SOL    HW258687   0.544  14.457   9.527
18952SOL     OW58688   0.210   3.267   6.774
18952SOL    HW158689   0.178   3.244   6.861
18952SOL    HW258690   0.160   3.212   6.714
18953SOL     OW58691  11.645   8.919  12.294
18953SOL    HW158692  11.696   8.917  12.376
18953SOL    HW258693  11.711   8.929  12.226
18954SOL     OW58694   5.165   0.108   1.435
18954SOL    HW158695   5.098   0.050   1.473
18954SOL    HW258696   5.218   0.050   1.380
18955SOL     OW58697   2.908   8.223  12.722
18955SOL    HW158698   2.885   8.256  12.808
18955SOL    HW258699   2.884   8.294  12.662
18956SOL     OW58700  10.702   8.516  11.154
18956SOL    HW158701  10.744   8.488  11.235
18956SOL    HW258702  10.684   8.609  11.167
18957SOL     OW58703   8.256   9.470   0.281
18957SOL    HW158704   8.271   9.512   0.197
18957SOL    HW258705   8.186   9.407   0.265
18958SOL     OW58706  12.727   1.931  14.762
18958SOL    HW158707  12.700   1.856  14.815
18958SOL    HW258708  12.668   2.001  14.789
18959SOL     OW58709   1.898   8.731   3.658
18959SOL    HW158710   1.925   8.643   3.633
18959SOL    HW258711   1.821   8.749   3.605
18960SOL     OW58712   0.707   2.911   4.556
18960SOL    HW158713   0.720   2.987   4.613
18960SOL    HW258714   0.795   2.889   4.524
18961SOL     OW58715  10.915   7.540  13.693
18961SOL    HW158716  10.915   7.498  13.607
18961SOL    HW258717  11.001   7.580  13.700
18962SOL     OW58718   0.301   9.286   4.865
18962SOL    HW158719   0.381   9.258   4.821
18962SOL    HW258720   0.273   9.364   4.816
18963SOL     OW58721   7.373  11.169   2.687
18963SOL    HW158722   7.338  11.224   2.617
18963SOL    HW258723   7.299  11.117   2.716
18964SOL     OW58724  12.354   7.712   1.494
18964SOL    HW158725  12.295   7.787   1.504
18964SOL    HW258726  12.362   7.700   1.400
18965SOL     OW58727   1.854   8.898  11.779
18965SOL    HW158728   1.766   8.871  11.804
18965SOL    HW258729   1.865   8.864  11.690
18966SOL     OW58730   4.859   0.818   8.745
18966SOL    HW158731   4.944   0.820   8.789
18966SOL    HW258732   4.796   0.845   8.812
18967SOL     OW58733  12.833   2.781   0.655
18967SOL    HW158734  12.772   2.855   0.663
18967SOL    HW258735  12.787   2.708   0.697
18968SOL     OW58736  14.838   6.703  12.198
18968SOL    HW158737  14.864   6.617  12.164
18968SOL    HW258738  14.748   6.714  12.168
18969SOL     OW58739   2.209  14.116  13.641
18969SOL    HW158740   2.187  14.209  13.642
18969SOL    HW258741   2.288  14.110  13.588
18970SOL     OW58742  10.848  11.655  13.390
18970SOL    HW158743  10.838  11.744  13.423
18970SOL    HW258744  10.760  11.619  13.389
18971SOL     OW58745   3.063   5.850   0.750
18971SOL    HW158746   3.042   5.933   0.793
18971SOL    HW258747   2.979   5.814   0.723
18972SOL     OW58748  10.533  11.354   5.560
18972SOL    HW158749  10.454  11.328   5.512
18972SOL    HW258750  10.511  11.440   5.596
18973SOL     OW58751  13.562  14.599   5.020
18973SOL    HW158752  13.588  14.682   5.059
18973SOL    HW258753  13.477  14.579   5.059
18974SOL     OW58754   6.125   2.776   7.792
18974SOL    HW158755   6.172   2.857   7.772
18974SOL    HW258756   6.137   2.764   7.886
18975SOL     OW58757   1.793  14.160   7.997
18975SOL    HW158758   1.746  14.243   8.011
18975SOL    HW258759   1.725  14.097   7.976
18976SOL     OW58760  10.898  12.003  13.973
18976SOL    HW158761  10.990  12.006  14.001
18976SOL    HW258762  10.892  12.068  13.903
18977SOL     OW58763   8.311   2.354   9.519
18977SOL    HW158764   8.221   2.388   9.524
18977SOL    HW258765   8.349   2.377   9.603
18978SOL     OW58766  14.500  13.742   5.408
18978SOL    HW158767  14.582  13.744   5.456
18978SOL    HW258768  14.433  13.758   5.474
18979SOL     OW58769   5.365   6.022   2.551
18979SOL    HW158770   5.381   5.931   2.576
18979SOL    HW258771   5.378   6.071   2.632
18980SOL     OW58772   5.679   2.645   6.277
18980SOL    HW158773   5.696   2.675   6.366
18980SOL    HW258774   5.766   2.622   6.243
18981SOL     OW58775  12.531   2.065   1.211
18981SOL    HW158776  12.443   2.075   1.173
18981SOL    HW258777  12.525   2.111   1.295
18982SOL     OW58778   7.366  11.007   5.271
18982SOL    HW158779   7.417  10.926   5.282
18982SOL    HW258780   7.420  11.075   5.311
18983SOL     OW58781   1.016   3.121  12.147
18983SOL    HW158782   0.956   3.121  12.222
18983SOL    HW258783   1.011   3.032  12.112
18984SOL     OW58784   3.215  12.514   6.593
18984SOL    HW158785   3.120  12.513   6.609
18984SOL    HW258786   3.238  12.607   6.592
18985SOL     OW58787   2.175   7.089   5.257
18985SOL    HW158788   2.257   7.051   5.226
18985SOL    HW258789   2.201   7.167   5.305
18986SOL     OW58790   6.358   5.862   5.075
18986SOL    HW158791   6.367   5.937   5.017
18986SOL    HW258792   6.267   5.866   5.106
18987SOL     OW58793   2.662   2.800   1.693
18987SOL    HW158794   2.653   2.894   1.676
18987SOL    HW258795   2.578   2.763   1.665
18988SOL     OW58796   7.222   3.942   4.104
18988SOL    HW158797   7.213   3.848   4.094
18988SOL    HW258798   7.138   3.971   4.142
18989SOL     OW58799  11.191   9.266   7.909
18989SOL    HW158800  11.147   9.278   7.825
18989SOL    HW258801  11.179   9.174   7.930
18990SOL     OW58802  12.649   4.664   7.723
18990SOL    HW158803  12.606   4.619   7.650
18990SOL    HW258804  12.741   4.641   7.715
18991SOL     OW58805  14.448  12.887  14.022
18991SOL    HW158806  14.496  12.899  14.104
18991SOL    HW258807  14.453  12.793  14.004
18992SOL     OW58808  13.059   0.408   0.563
18992SOL    HW158809  13.111   0.363   0.497
18992SOL    HW258810  13.063   0.501   0.538
18993SOL     OW58811  13.944   5.193  12.914
18993SOL    HW158812  13.978   5.251  12.982
18993SOL    HW258813  13.955   5.105  12.950
18994SOL     OW58814  13.272   8.487  14.535
18994SOL    HW158815  13.352   8.539  14.524
18994SOL    HW258816  13.272   8.462  14.627
18995SOL     OW58817   6.315   1.678  12.250
18995SOL    HW158818   6.291   1.753  12.304
18995SOL    HW258819   6.389   1.638  12.297
18996SOL     OW58820  10.346   6.580   6.037
18996SOL    HW158821  10.401   6.510   6.073
18996SOL    HW258822  10.313   6.545   5.955
18997SOL     OW58823   9.105   5.995  10.799
18997SOL    HW158824   9.078   5.970  10.711
18997SOL    HW258825   9.150   6.078  10.787
18998SOL     OW58826   3.725  13.991   9.336
18998SOL    HW158827   3.818  13.974   9.325
18998SOL    HW258828   3.717  14.028   9.424
18999SOL     OW58829   5.767   2.389  11.831
18999SOL    HW158830   5.794   2.444  11.758
18999SOL    HW258831   5.826   2.313  11.826
19000SOL     OW58832   9.369   3.997   7.711
19000SOL    HW158833   9.293   3.939   7.711
19000SOL    HW258834   9.441   3.943   7.741
19001SOL     OW58835   4.261   7.461   8.958
19001SOL    HW158836   4.304   7.417   8.884
19001SOL    HW258837   4.233   7.389   9.015
19002SOL     OW58838  10.096   2.424   4.465
19002SOL    HW158839  10.190   2.415   4.450
19002SOL    HW258840  10.076   2.357   4.530
19003SOL     OW58841   7.097   3.203   6.660
19003SOL    HW158842   7.043   3.244   6.591
19003SOL    HW258843   7.090   3.263   6.734
19004SOL     OW58844   0.334   4.634   1.354
19004SOL    HW158845   0.332   4.721   1.393
19004SOL    HW258846   0.427   4.619   1.332
19005SOL     OW58847   4.273   2.142   7.970
19005SOL    HW158848   4.248   2.210   7.907
19005SOL    HW258849   4.274   2.061   7.920
19006SOL     OW58850   6.039   3.780  12.935
19006SOL    HW158851   6.034   3.801  12.841
19006SOL    HW258852   5.957   3.733  12.953
19007SOL     OW58853   6.909  12.769  13.814
19007SOL    HW158854   6.987  12.715  13.807
19007SOL    HW258855   6.866  12.761  13.729
19008SOL     OW58856   0.251   1.801  10.400
19008SOL    HW158857   0.184   1.756  10.348
19008SOL    HW258858   0.209   1.818  10.484
19009SOL     OW58859   6.021  10.656   0.798
19009SOL    HW158860   6.081  10.644   0.724
19009SOL    HW258861   6.028  10.749   0.819
19010SOL     OW58862   4.539   0.985   8.901
19010SOL    HW158863   4.462   1.003   8.955
19010SOL    HW258864   4.523   1.035   8.821
19011SOL     OW58865   5.962   3.408   3.498
19011SOL    HW158866   5.903   3.369   3.434
19011SOL    HW258867   5.950   3.503   3.488
19012SOL     OW58868  10.743   0.343   0.859
19012SOL    HW158869  10.826   0.301   0.880
19012SOL    HW258870  10.747   0.359   0.765
19013SOL     OW58871   5.677  12.862   5.091
19013SOL    HW158872   5.627  12.780   5.094
19013SOL    HW258873   5.682  12.884   4.998
19014SOL     OW58874   2.542  11.404   3.208
19014SOL    HW158875   2.570  11.335   3.268
19014SOL    HW258876   2.464  11.367   3.165
19015SOL     OW58877  12.772   5.746   2.637
19015SOL    HW158878  12.837   5.688   2.677
19015SOL    HW258879  12.783   5.732   2.543
19016SOL     OW58880  13.352   4.980   6.045
19016SOL    HW158881  13.387   4.984   6.134
19016SOL    HW258882  13.316   4.892   6.038
19017SOL     OW58883   1.631   2.644   8.836
19017SOL    HW158884   1.600   2.727   8.800
19017SOL    HW258885   1.699   2.670   8.898
19018SOL     OW58886   9.161  11.911   0.658
19018SOL    HW158887   9.216  11.929   0.735
19018SOL    HW258888   9.185  11.979   0.596
19019SOL     OW58889  11.042  12.553   1.354
19019SOL    HW158890  11.066  12.589   1.440
19019SOL    HW258891  11.017  12.463   1.373
19020SOL     OW58892  11.246   2.997   6.145
19020SOL    HW158893  11.251   2.906   6.114
19020SOL    HW258894  11.256   3.050   6.066
19021SOL     OW58895   9.045  12.815   2.589
19021SOL    HW158896   9.083  12.815   2.502
19021SOL    HW258897   9.116  12.787   2.647
19022SOL     OW58898   4.086   0.036   8.238
19022SOL    HW158899   4.004   0.014   8.193
19022SOL    HW258900   4.146   0.058   8.167
19023SOL     OW58901   5.623   3.343   7.920
19023SOL    HW158902   5.655   3.348   8.010
19023SOL    HW258903   5.619   3.249   7.901
19024SOL     OW58904   9.396  14.199   1.087
19024SOL    HW158905   9.436  14.273   1.041
19024SOL    HW258906   9.421  14.212   1.178
19025SOL     OW58907  12.281   0.931   4.400
19025SOL    HW158908  12.279   1.027   4.409
19025SOL    HW258909  12.355   0.915   4.341
19026SOL     OW58910  10.440  10.447   2.866
19026SOL    HW158911  10.378  10.375   2.857
19026SOL    HW258912  10.453  10.458   2.960
19027SOL     OW58913  13.505   9.109   0.979
19027SOL    HW158914  13.411   9.090   0.981
19027SOL    HW258915  13.517   9.178   1.045
19028SOL     OW58916   3.429   0.214   9.727
19028SOL    HW158917   3.345   0.176   9.754
19028SOL    HW258918   3.405   0.292   9.678
19029SOL     OW58919  12.810  11.354  14.856
19029SOL    HW158920  12.802  11.444   0.008
19029SOL    HW258921  12.852  11.360  14.771
19030SOL     OW58922   0.054   4.658   2.166
19030SOL    HW158923   0.071   4.565   2.150
19030SOL    HW258924   0.054   4.698   2.079
19031SOL     OW58925   7.547  10.310   1.750
19031SOL    HW158926   7.483  10.281   1.815
19031SOL    HW258927   7.595  10.380   1.795
19032SOL     OW58928  12.820   8.841  10.742
19032SOL    HW158929  12.820   8.932  10.713
19032SOL    HW258930  12.762   8.840  10.818
19033SOL     OW58931   8.138   3.302   7.970
19033SOL    HW158932   8.144   3.213   8.006
19033SOL    HW258933   8.209   3.350   8.014
19034SOL     OW58934  10.018   8.678   7.188
19034SOL    HW158935   9.926   8.655   7.196
19034SOL    HW258936  10.057   8.650   7.271
19035SOL     OW58937  12.984  14.367  14.534
19035SOL    HW158938  12.936  14.312  14.471
19035SOL    HW258939  13.026  14.434  14.480
19036SOL     OW58940  14.866   5.721  10.434
19036SOL    HW158941  14.846   5.742  10.343
19036SOL    HW258942   0.018   5.803  10.472
19037SOL     OW58943  11.946   0.368  12.173
19037SOL    HW158944  12.025   0.375  12.120
19037SOL    HW258945  11.882   0.422  12.127
19038SOL     OW58946   5.237  11.808   0.100
19038SOL    HW158947   5.305  11.778   0.039
19038SOL    HW258948   5.175  11.856   0.045
19039SOL     OW58949   0.288  11.234   4.812
19039SOL    HW158950   0.378  11.219   4.841
19039SOL    HW258951   0.267  11.157   4.759
19040SOL     OW58952   5.511   2.084   0.889
19040SOL    HW158953   5.556   2.033   0.957
19040SOL    HW258954   5.542   2.047   0.807
19041SOL     OW58955   3.483   3.799   8.790
19041SOL    HW158956   3.542   3.724   8.791
19041SOL    HW258957   3.518   3.858   8.857
19042SOL     OW58958  11.555  13.183   1.674
19042SOL    HW158959  11.647  13.175   1.647
19042SOL    HW258960  11.516  13.099   1.650
19043SOL     OW58961  12.384  12.152  11.856
19043SOL    HW158962  12.337  12.087  11.907
19043SOL    HW258963  12.456  12.180  11.913
19044SOL     OW58964  12.785  11.750   3.357
19044SOL    HW158965  12.867  11.708   3.384
19044SOL    HW258966  12.785  11.835   3.400
19045SOL     OW58967   3.123   0.192   0.080
19045SOL    HW158968   3.187   0.126   0.054
19045SOL    HW258969   3.157   0.227   0.162
19046SOL     OW58970  13.295   1.189   0.728
19046SOL    HW158971  13.328   1.206   0.639
19046SOL    HW258972  13.245   1.108   0.719
19047SOL     OW58973   8.415   0.863  12.544
19047SOL    HW158974   8.387   0.820  12.625
19047SOL    HW258975   8.334   0.875  12.494
19048SOL     OW58976   1.230   3.411  11.047
19048SOL    HW158977   1.294   3.480  11.033
19048SOL    HW258978   1.254   3.342  10.984
19049SOL     OW58979   7.498   9.097  13.484
19049SOL    HW158980   7.522   9.170  13.428
19049SOL    HW258981   7.561   9.028  13.462
19050SOL     OW58982   0.476  10.504  14.642
19050SOL    HW158983   0.397  10.458  14.616
19050SOL    HW258984   0.477  10.498  14.738
19051SOL     OW58985  12.667  11.387   7.272
19051SOL    HW158986  12.699  11.475   7.293
19051SOL    HW258987  12.728  11.356   7.204
19052SOL     OW58988  12.659   8.977  10.900
19052SOL    HW158989  12.672   9.064  10.862
19052SOL    HW258990  12.653   8.993  10.994
19053SOL     OW58991   0.830   5.465   5.162
19053SOL    HW158992   0.897   5.451   5.095
19053SOL    HW258993   0.763   5.518   5.118
19054SOL     OW58994   7.250   9.498   1.896
19054SOL    HW158995   7.340   9.479   1.871
19054SOL    HW258996   7.230   9.436   1.966
19055SOL     OW58997   8.373   1.823   5.166
19055SOL    HW158998   8.376   1.874   5.085
19055SOL    HW258999   8.349   1.888   5.233
19056SOL     OW59000  10.554   1.928   0.508
19056SOL    HW159001  10.562   1.979   0.589
19056SOL    HW259002  10.464   1.945   0.479
19057SOL     OW59003  10.163   6.920   6.106
19057SOL    HW159004  10.136   6.999   6.153
19057SOL    HW259005  10.213   6.870   6.171
19058SOL     OW59006  13.715   2.312   3.812
19058SOL    HW159007  13.745   2.266   3.734
19058SOL    HW259008  13.622   2.290   3.820
19059SOL     OW59009   5.959   6.415   6.349
19059SOL    HW159010   5.925   6.424   6.259
19059SOL    HW259011   5.971   6.505   6.379
19060SOL     OW59012   3.245   3.020  14.838
19060SOL    HW159013   3.170   3.077  14.859
19060SOL    HW259014   3.320   3.063   0.001
19061SOL     OW59015  10.085  10.361   5.576
19061SOL    HW159016  10.044  10.330   5.495
19061SOL    HW259017  10.033  10.321   5.646
19062SOL     OW59018   1.562   6.647   8.953
19062SOL    HW159019   1.594   6.586   9.018
19062SOL    HW259020   1.638   6.670   8.901
19063SOL     OW59021   2.070  13.182   0.371
19063SOL    HW159022   2.152  13.190   0.420
19063SOL    HW259023   2.084  13.107   0.313
19064SOL     OW59024   3.619  11.545   1.781
19064SOL    HW159025   3.710  11.515   1.786
19064SOL    HW259026   3.577  11.509   1.859
19065SOL     OW59027   2.600  14.230   3.321
19065SOL    HW159028   2.569  14.259   3.407
19065SOL    HW259029   2.538  14.268   3.259
19066SOL     OW59030   4.151  14.199  10.630
19066SOL    HW159031   4.102  14.128  10.672
19066SOL    HW259032   4.240  14.164  10.621
19067SOL     OW59033   9.787   7.941   8.421
19067SOL    HW159034   9.696   7.965   8.435
19067SOL    HW259035   9.787   7.845   8.421
19068SOL     OW59036   1.611  11.502  11.073
19068SOL    HW159037   1.674  11.529  11.006
19068SOL    HW259038   1.660  11.441  11.128
19069SOL     OW59039  10.096  14.114   9.230
19069SOL    HW159040  10.148  14.183   9.188
19069SOL    HW259041  10.153  14.081   9.300
19070SOL     OW59042   8.234   5.712   6.816
19070SOL    HW159043   8.231   5.805   6.837
19070SOL    HW259044   8.272   5.670   6.893
19071SOL     OW59045   3.724   0.747  11.131
19071SOL    HW159046   3.732   0.808  11.204
19071SOL    HW259047   3.735   0.802  11.053
19072SOL     OW59048  12.525   8.468   2.365
19072SOL    HW159049  12.446   8.492   2.413
19072SOL    HW259050  12.492   8.436   2.280
19073SOL     OW59051   0.831   8.237  10.973
19073SOL    HW159052   0.921   8.255  10.946
19073SOL    HW259053   0.838   8.164  11.034
19074SOL     OW59054   5.604   0.203  14.396
19074SOL    HW159055   5.596   0.213  14.301
19074SOL    HW259056   5.521   0.163  14.423
19075SOL     OW59057   2.424   8.756   1.363
19075SOL    HW159058   2.363   8.767   1.436
19075SOL    HW259059   2.499   8.711   1.402
19076SOL     OW59060   9.222   7.102   3.139
19076SOL    HW159061   9.189   7.089   3.228
19076SOL    HW259062   9.316   7.116   3.150
19077SOL     OW59063   2.422   8.504   2.409
19077SOL    HW159064   2.479   8.490   2.485
19077SOL    HW259065   2.481   8.536   2.341
19078SOL     OW59066   5.681   9.439   8.972
19078SOL    HW159067   5.767   9.443   9.015
19078SOL    HW259068   5.638   9.364   9.012
19079SOL     OW59069  10.940   4.653   9.422
19079SOL    HW159070  10.965   4.599   9.496
19079SOL    HW259071  10.876   4.601   9.374
19080SOL     OW59072   0.272  12.036  14.694
19080SOL    HW159073   0.264  12.062  14.785
19080SOL    HW259074   0.269  11.940  14.696
19081SOL     OW59075   2.214  11.115  11.326
19081SOL    HW159076   2.133  11.123  11.376
19081SOL    HW259077   2.262  11.044  11.369
19082SOL     OW59078   2.542   6.612   5.674
19082SOL    HW159079   2.580   6.573   5.595
19082SOL    HW259080   2.449   6.621   5.655
19083SOL     OW59081   4.082   9.711   7.396
19083SOL    HW159082   4.068   9.617   7.409
19083SOL    HW259083   3.997   9.745   7.367
19084SOL     OW59084   9.518  10.159   3.355
19084SOL    HW159085   9.494  10.181   3.445
19084SOL    HW259086   9.434  10.145   3.310
19085SOL     OW59087   0.969   3.705   2.911
19085SOL    HW159088   0.882   3.704   2.870
19085SOL    HW259089   1.009   3.623   2.884
19086SOL     OW59090   5.613   8.338   9.185
19086SOL    HW159091   5.581   8.428   9.178
19086SOL    HW259092   5.676   8.329   9.114
19087SOL     OW59093   3.782   6.437   9.155
19087SOL    HW159094   3.695   6.426   9.117
19087SOL    HW259095   3.840   6.389   9.096
19088SOL     OW59096  11.725  14.700   4.094
19088SOL    HW159097  11.788  14.762   4.129
19088SOL    HW259098  11.705  14.732   4.006
19089SOL     OW59099   1.408   7.158   1.118
19089SOL    HW159100   1.425   7.128   1.207
19089SOL    HW259101   1.447   7.090   1.062
19090SOL     OW59102   9.846   3.795   7.984
19090SOL    HW159103   9.759   3.814   8.018
19090SOL    HW259104   9.903   3.862   8.022
19091SOL     OW59105   9.863   9.350  10.475
19091SOL    HW159106   9.900   9.367  10.562
19091SOL    HW259107   9.915   9.277  10.441
19092SOL     OW59108   0.793   4.063   6.469
19092SOL    HW159109   0.861   4.002   6.497
19092SOL    HW259110   0.772   4.113   6.547
19093SOL     OW59111   0.905  10.570  12.473
19093SOL    HW159112   0.850  10.636  12.516
19093SOL    HW259113   0.950  10.618  12.404
19094SOL     OW59114   7.013  12.807   1.445
19094SOL    HW159115   6.981  12.887   1.403
19094SOL    HW259116   6.994  12.820   1.538
19095SOL     OW59117  13.835  11.848   0.479
19095SOL    HW159118  13.885  11.828   0.558
19095SOL    HW259119  13.895  11.900   0.425
19096SOL     OW59120   1.358   2.786   4.482
19096SOL    HW159121   1.316   2.872   4.474
19096SOL    HW259122   1.444   2.799   4.442
19097SOL     OW59123   0.246  13.122  12.531
19097SOL    HW159124   0.332  13.116  12.490
19097SOL    HW259125   0.256  13.188  12.599
19098SOL     OW59126   6.735   9.681   5.918
19098SOL    HW159127   6.663   9.618   5.916
19098SOL    HW259128   6.704   9.754   5.864
19099SOL     OW59129   4.403   6.397   9.439
19099SOL    HW159130   4.422   6.431   9.351
19099SOL    HW259131   4.366   6.310   9.424
19100SOL     OW59132  11.049   7.821  14.642
19100SOL    HW159133  11.121   7.762  14.624
19100SOL    HW259134  10.986   7.769  14.693
19101SOL     OW59135   8.078   8.845   0.075
19101SOL    HW159136   8.015   8.779   0.103
19101SOL    HW259137   8.137   8.855   0.150
19102SOL     OW59138   2.601   9.036  14.727
19102SOL    HW159139   2.636   9.042  14.816
19102SOL    HW259140   2.534   9.104  14.723
19103SOL     OW59141   9.922   7.516   5.096
19103SOL    HW159142   9.886   7.481   5.015
19103SOL    HW259143  10.016   7.497   5.091
19104SOL     OW59144  12.307   8.758  11.189
19104SOL    HW159145  12.234   8.714  11.232
19104SOL    HW259146  12.366   8.688  11.164
19105SOL     OW59147  10.889   3.741  13.409
19105SOL    HW159148  10.836   3.742  13.488
19105SOL    HW259149  10.973   3.778  13.435
19106SOL     OW59150   7.527   8.114  13.400
19106SOL    HW159151   7.613   8.130  13.363
19106SOL    HW259152   7.535   8.141  13.492
19107SOL     OW59153   7.033   5.713   7.689
19107SOL    HW159154   7.115   5.723   7.640
19107SOL    HW259155   7.019   5.618   7.691
19108SOL     OW59156   9.927  13.302   0.100
19108SOL    HW159157   9.961  13.258   0.022
19108SOL    HW259158   9.832  13.302   0.087
19109SOL     OW59159  10.490   5.070  14.203
19109SOL    HW159160  10.445   5.077  14.119
19109SOL    HW259161  10.425   5.035  14.263
19110SOL     OW59162   0.166  14.864   6.875
19110SOL    HW159163   0.092  14.867   6.814
19110SOL    HW259164   0.243  14.873   6.819
19111SOL     OW59165   2.471  10.742   0.454
19111SOL    HW159166   2.388  10.763   0.497
19111SOL    HW259167   2.534  10.736   0.525
19112SOL     OW59168   1.823   3.924   0.052
19112SOL    HW159169   1.768   3.993   0.089
19112SOL    HW259170   1.896   3.917   0.114
19113SOL     OW59171   4.953   7.340  12.691
19113SOL    HW159172   5.005   7.384  12.624
19113SOL    HW259173   4.949   7.403  12.763
19114SOL     OW59174   8.096  10.085   6.262
19114SOL    HW159175   8.187  10.108   6.243
19114SOL    HW259176   8.102  10.004   6.314
19115SOL     OW59177   2.200  14.140   8.912
19115SOL    HW159178   2.294  14.123   8.918
19115SOL    HW259179   2.193  14.213   8.851
19116SOL     OW59180   1.310   2.843   0.875
19116SOL    HW159181   1.365   2.843   0.797
19116SOL    HW259182   1.324   2.757   0.914
19117SOL     OW59183  10.704   4.688   8.343
19117SOL    HW159184  10.770   4.620   8.352
19117SOL    HW259185  10.664   4.694   8.430
19118SOL     OW59186   6.467   3.048  10.443
19118SOL    HW159187   6.508   3.078  10.525
19118SOL    HW259188   6.400   3.114  10.425
19119SOL     OW59189   8.767  10.591   9.461
19119SOL    HW159190   8.686  10.636   9.438
19119SOL    HW259191   8.751  10.556   9.548
19120SOL     OW59192   0.959   8.563  12.868
19120SOL    HW159193   0.945   8.563  12.963
19120SOL    HW259194   0.991   8.475  12.848
19121SOL     OW59195   1.270   8.913   4.823
19121SOL    HW159196   1.344   8.892   4.766
19121SOL    HW259197   1.297   8.992   4.869
19122SOL     OW59198   0.951  13.816  11.115
19122SOL    HW159199   0.936  13.783  11.027
19122SOL    HW259200   1.043  13.794  11.133
19123SOL     OW59201   2.913   3.708   7.620
19123SOL    HW159202   2.859   3.633   7.644
19123SOL    HW259203   2.999   3.689   7.658
19124SOL     OW59204   4.835   6.231   8.042
19124SOL    HW159205   4.820   6.323   8.067
19124SOL    HW259206   4.750   6.189   8.056
19125SOL     OW59207   8.663   7.109   7.494
19125SOL    HW159208   8.677   7.201   7.514
19125SOL    HW259209   8.738   7.064   7.533
19126SOL     OW59210   3.872   6.352   3.084
19126SOL    HW159211   3.863   6.262   3.053
19126SOL    HW259212   3.872   6.405   3.005
19127SOL     OW59213   3.685  12.104   0.940
19127SOL    HW159214   3.612  12.075   0.994
19127SOL    HW259215   3.728  12.172   0.992
19128SOL     OW59216   8.602  11.357   9.203
19128SOL    HW159217   8.679  11.302   9.187
19128SOL    HW259218   8.542  11.335   9.132
19129SOL     OW59219   7.528  11.459   2.255
19129SOL    HW159220   7.488  11.372   2.256
19129SOL    HW259221   7.466  11.514   2.207
19130SOL     OW59222  12.429   9.154   3.947
19130SOL    HW159223  12.436   9.146   3.852
19130SOL    HW259224  12.407   9.065   3.977
19131SOL     OW59225   6.825  10.081   7.093
19131SOL    HW159226   6.742  10.127   7.078
19131SOL    HW259227   6.826  10.062   7.187
19132SOL     OW59228  10.440   6.234   7.730
19132SOL    HW159229  10.521   6.281   7.711
19132SOL    HW259230  10.427   6.245   7.824
19133SOL     OW59231   0.428   2.058   5.922
19133SOL    HW159232   0.348   2.055   5.870
19133SOL    HW259233   0.478   2.131   5.886
19134SOL     OW59234   5.517   6.353   5.556
19134SOL    HW159235   5.612   6.350   5.547
19134SOL    HW259236   5.500   6.416   5.625
19135SOL     OW59237  12.808   5.371   3.045
19135SOL    HW159238  12.820   5.465   3.050
19135SOL    HW259239  12.894   5.337   3.023
19136SOL     OW59240  11.120   1.278   1.467
19136SOL    HW159241  11.062   1.205   1.444
19136SOL    HW259242  11.183   1.282   1.395
19137SOL     OW59243   3.899   9.270   7.521
19137SOL    HW159244   3.990   9.245   7.539
19137SOL    HW259245   3.847   9.198   7.557
19138SOL     OW59246   4.295   5.861  14.100
19138SOL    HW159247   4.326   5.777  14.134
19138SOL    HW259248   4.343   5.872  14.017
19139SOL     OW59249   4.584   9.491   0.114
19139SOL    HW159250   4.617   9.469   0.201
19139SOL    HW259251   4.560   9.407   0.075
19140SOL     OW59252   4.519   4.441   0.123
19140SOL    HW159253   4.461   4.467   0.194
19140SOL    HW259254   4.538   4.349   0.140
19141SOL     OW59255   3.471   9.774  13.396
19141SOL    HW159256   3.380   9.779  13.365
19141SOL    HW259257   3.524   9.793  13.318
19142SOL     OW59258   6.945   2.395   3.357
19142SOL    HW159259   6.908   2.440   3.282
19142SOL    HW259260   7.039   2.396   3.342
19143SOL     OW59261   7.338   3.879   2.568
19143SOL    HW159262   7.303   3.964   2.544
19143SOL    HW259263   7.431   3.896   2.587
19144SOL     OW59264   7.000   7.208  13.214
19144SOL    HW159265   6.963   7.138  13.269
19144SOL    HW259266   6.983   7.288  13.264
19145SOL     OW59267   5.087  10.487   6.359
19145SOL    HW159268   5.071  10.559   6.298
19145SOL    HW259269   5.000  10.458   6.387
19146SOL     OW59270   1.373   5.980   8.240
19146SOL    HW159271   1.325   5.898   8.252
19146SOL    HW259272   1.317   6.032   8.181
19147SOL     OW59273   4.930   6.119   3.525
19147SOL    HW159274   5.017   6.105   3.562
19147SOL    HW259275   4.935   6.082   3.437
19148SOL     OW59276   2.575   0.593   2.800
19148SOL    HW159277   2.479   0.597   2.801
19148SOL    HW259278   2.600   0.639   2.720
19149SOL     OW59279   3.922  10.541   3.912
19149SOL    HW159280   3.921  10.471   3.847
19149SOL    HW259281   3.885  10.617   3.867
19150SOL     OW59282  11.523   1.825   8.813
19150SOL    HW159283  11.567   1.877   8.881
19150SOL    HW259284  11.430   1.838   8.830
19151SOL     OW59285   5.032   5.325   8.094
19151SOL    HW159286   5.062   5.406   8.136
19151SOL    HW259287   5.100   5.304   8.030
19152SOL     OW59288   4.236  14.062   7.304
19152SOL    HW159289   4.275  14.006   7.372
19152SOL    HW259290   4.268  14.025   7.222
19153SOL     OW59291  11.667  12.781  13.630
19153SOL    HW159292  11.758  12.766  13.606
19153SOL    HW259293  11.617  12.755  13.552
19154SOL     OW59294   9.505  10.570   7.886
19154SOL    HW159295   9.507  10.646   7.944
19154SOL    HW259296   9.469  10.500   7.940
19155SOL     OW59297  11.201   0.766  10.593
19155SOL    HW159298  11.132   0.805  10.540
19155SOL    HW259299  11.281   0.781  10.543
19156SOL     OW59300   2.632  13.391   0.983
19156SOL    HW159301   2.549  13.361   1.021
19156SOL    HW259302   2.699  13.359   1.043
19157SOL     OW59303  12.222   2.072   5.502
19157SOL    HW159304  12.270   1.999   5.464
19157SOL    HW259305  12.135   2.037   5.520
19158SOL     OW59306   2.291  13.833   7.665
19158SOL    HW159307   2.370  13.782   7.683
19158SOL    HW259308   2.284  13.894   7.738
19159SOL     OW59309   4.486   0.897  12.923
19159SOL    HW159310   4.544   0.851  12.862
19159SOL    HW259311   4.414   0.928  12.869
19160SOL     OW59312   8.944   1.320   6.998
19160SOL    HW159313   8.855   1.351   6.982
19160SOL    HW259314   8.996   1.400   7.006
19161SOL     OW59315  12.529  11.328  13.679
19161SOL    HW159316  12.536  11.347  13.773
19161SOL    HW259317  12.528  11.232  13.674
19162SOL     OW59318   2.232   8.951   2.495
19162SOL    HW159319   2.195   9.037   2.478
19162SOL    HW259320   2.159   8.890   2.483
19163SOL     OW59321   1.545   7.643  12.347
19163SOL    HW159322   1.475   7.708  12.355
19163SOL    HW259323   1.607   7.665  12.417
19164SOL     OW59324  11.145   7.966   4.959
19164SOL    HW159325  11.210   8.020   4.914
19164SOL    HW259326  11.062   7.988   4.916
19165SOL     OW59327   1.150   1.296  10.573
19165SOL    HW159328   1.090   1.294  10.498
19165SOL    HW259329   1.093   1.281  10.649
19166SOL     OW59330  11.846   0.534   5.032
19166SOL    HW159331  11.936   0.559   5.053
19166SOL    HW259332  11.808   0.510   5.117
19167SOL     OW59333  12.792  10.693  14.865
19167SOL    HW159334  12.864  10.716   0.045
19167SOL    HW259335  12.715  10.736   0.024
19168SOL     OW59336  14.594   3.059   6.597
19168SOL    HW159337  14.644   3.054   6.515
19168SOL    HW259338  14.549   2.974   6.603
19169SOL     OW59339   8.344  13.923  10.910
19169SOL    HW159340   8.315  13.854  10.969
19169SOL    HW259341   8.293  14.000  10.936
19170SOL     OW59342   1.726  11.444   8.302
19170SOL    HW159343   1.814  11.409   8.292
19170SOL    HW259344   1.679  11.411   8.225
19171SOL     OW59345   1.539  12.766   7.971
19171SOL    HW159346   1.599  12.827   8.015
19171SOL    HW259347   1.579  12.751   7.886
19172SOL     OW59348   4.324   4.478   8.220
19172SOL    HW159349   4.417   4.467   8.237
19172SOL    HW259350   4.318   4.492   8.126
19173SOL     OW59351   7.705   5.830  11.758
19173SOL    HW159352   7.616   5.853  11.783
19173SOL    HW259353   7.710   5.852  11.664
19174SOL     OW59354  14.423  12.613  12.756
19174SOL    HW159355  14.366  12.614  12.832
19174SOL    HW259356  14.508  12.644  12.789
19175SOL     OW59357  14.465   8.772   1.369
19175SOL    HW159358  14.441   8.680   1.376
19175SOL    HW259359  14.542   8.773   1.312
19176SOL     OW59360  14.347   1.293   6.869
19176SOL    HW159361  14.348   1.388   6.878
19176SOL    HW259362  14.437   1.270   6.846
19177SOL     OW59363   1.393   5.385  10.209
19177SOL    HW159364   1.388   5.335  10.128
19177SOL    HW259365   1.463   5.344  10.259
19178SOL     OW59366   1.124  14.358   4.174
19178SOL    HW159367   1.071  14.309   4.237
19178SOL    HW259368   1.085  14.445   4.173
19179SOL     OW59369  13.637   1.179  14.153
19179SOL    HW159370  13.555   1.213  14.189
19179SOL    HW259371  13.624   1.085  14.148
19180SOL     OW59372  14.543   0.280   1.560
19180SOL    HW159373  14.605   0.337   1.605
19180SOL    HW259374  14.591   0.250   1.482
19181SOL     OW59375   3.583   0.481  10.578
19181SOL    HW159376   3.546   0.552  10.630
19181SOL    HW259377   3.567   0.507  10.487
19182SOL     OW59378   8.937   5.098   9.349
19182SOL    HW159379   8.886   5.099   9.430
19182SOL    HW259380   8.967   5.189   9.339
19183SOL     OW59381   7.708   1.814   3.972
19183SOL    HW159382   7.657   1.822   4.053
19183SOL    HW259383   7.645   1.833   3.902
19184SOL     OW59384  11.784  13.487   6.096
19184SOL    HW159385  11.776  13.520   6.186
19184SOL    HW259386  11.697  13.498   6.058
19185SOL     OW59387  10.373  11.202   7.548
19185SOL    HW159388  10.373  11.230   7.457
19185SOL    HW259389  10.296  11.146   7.556
19186SOL     OW59390   2.774   2.332   0.486
19186SOL    HW159391   2.685   2.361   0.466
19186SOL    HW259392   2.829   2.404   0.455
19187SOL     OW59393   4.837   7.020   0.542
19187SOL    HW159394   4.886   6.938   0.531
19187SOL    HW259395   4.852   7.068   0.461
19188SOL     OW59396   8.159   1.854   2.386
19188SOL    HW159397   8.073   1.812   2.397
19188SOL    HW259398   8.203   1.802   2.319
19189SOL     OW59399  12.621  10.079   5.531
19189SOL    HW159400  12.601  10.099   5.439
19189SOL    HW259401  12.697  10.133   5.551
19190SOL     OW59402   8.276   2.758  10.825
19190SOL    HW159403   8.189   2.719  10.815
19190SOL    HW259404   8.288   2.809  10.745
19191SOL     OW59405   4.345  13.098  11.620
19191SOL    HW159406   4.311  13.056  11.541
19191SOL    HW259407   4.282  13.074  11.688
19192SOL     OW59408   7.190  11.226  13.402
19192SOL    HW159409   7.140  11.177  13.336
19192SOL    HW259410   7.220  11.304  13.356
19193SOL     OW59411   1.383   6.963  11.983
19193SOL    HW159412   1.352   6.879  12.018
19193SOL    HW259413   1.309   7.022  11.992
19194SOL     OW59414   0.563  10.929   4.792
19194SOL    HW159415   0.632  10.871   4.822
19194SOL    HW259416   0.577  11.010   4.841
19195SOL     OW59417   2.853  13.228   5.011
19195SOL    HW159418   2.889  13.289   5.075
19195SOL    HW259419   2.929  13.190   4.967
19196SOL     OW59420  10.641   8.350   1.878
19196SOL    HW159421  10.574   8.408   1.913
19196SOL    HW259422  10.664   8.388   1.793
19197SOL     OW59423   9.525   0.001   4.171
19197SOL    HW159424   9.474   0.082   4.177
19197SOL    HW259425   9.616   0.031   4.160
19198SOL     OW59426   4.911   1.297   4.001
19198SOL    HW159427   4.867   1.347   4.070
19198SOL    HW259428   4.917   1.358   3.928
19199SOL     OW59429  12.191  13.383   7.442
19199SOL    HW159430  12.122  13.449   7.433
19199SOL    HW259431  12.205  13.375   7.536
19200SOL     OW59432   0.227   4.281  14.008
19200SOL    HW159433   0.142   4.237  14.000
19200SOL    HW259434   0.209   4.361  14.056
19201SOL     OW59435   0.848   4.662   1.135
19201SOL    HW159436   0.936   4.665   1.173
19201SOL    HW259437   0.851   4.723   1.062
19202SOL     OW59438   2.315   3.402   5.482
19202SOL    HW159439   2.306   3.318   5.528
19202SOL    HW259440   2.276   3.466   5.540
19203SOL     OW59441  13.351   1.525  11.799
19203SOL    HW159442  13.314   1.470  11.730
19203SOL    HW259443  13.279   1.582  11.826
19204SOL     OW59444  12.573   4.107   0.450
19204SOL    HW159445  12.647   4.154   0.489
19204SOL    HW259446  12.514   4.090   0.524
19205SOL     OW59447   6.331   2.487  10.311
19205SOL    HW159448   6.379   2.419  10.358
19205SOL    HW259449   6.239   2.468  10.330
19206SOL     OW59450  11.270   8.656   5.593
19206SOL    HW159451  11.239   8.665   5.503
19206SOL    HW259452  11.365   8.654   5.586
19207SOL     OW59453   5.913   5.298   5.648
19207SOL    HW159454   5.959   5.369   5.691
19207SOL    HW259455   5.900   5.328   5.558
19208SOL     OW59456   9.681   0.958  11.642
19208SOL    HW159457   9.736   1.032  11.668
19208SOL    HW259458   9.656   0.917  11.724
19209SOL     OW59459  10.125   6.038   1.758
19209SOL    HW159460  10.092   6.117   1.716
19209SOL    HW259461  10.057   6.013   1.821
19210SOL     OW59462   0.628   8.176  10.282
19210SOL    HW159463   0.655   8.261  10.318
19210SOL    HW259464   0.709   8.137  10.250
19211SOL     OW59465   2.972   9.910   2.259
19211SOL    HW159466   3.045   9.848   2.258
19211SOL    HW259467   2.999   9.981   2.201
19212SOL     OW59468  14.207  14.392   1.840
19212SOL    HW159469  14.279  14.359   1.786
19212SOL    HW259470  14.192  14.481   1.808
19213SOL     OW59471   3.070   9.455  11.211
19213SOL    HW159472   3.022   9.413  11.282
19213SOL    HW259473   3.162   9.439  11.232
19214SOL     OW59474   4.100   1.123   1.157
19214SOL    HW159475   4.125   1.068   1.232
19214SOL    HW259476   4.167   1.106   1.091
19215SOL     OW59477  10.896   8.674   0.327
19215SOL    HW159478  10.932   8.682   0.415
19215SOL    HW259479  10.801   8.681   0.340
19216SOL     OW59480  10.562  10.827  12.600
19216SOL    HW159481  10.565  10.900  12.662
19216SOL    HW259482  10.610  10.857  12.524
19217SOL     OW59483  12.738  10.923   0.336
19217SOL    HW159484  12.677  10.995   0.319
19217SOL    HW259485  12.796  10.956   0.405
19218SOL     OW59486   4.502   0.464  11.304
19218SOL    HW159487   4.550   0.476  11.222
19218SOL    HW259488   4.459   0.379  11.294
19219SOL     OW59489  10.794   2.747   2.907
19219SOL    HW159490  10.745   2.794   2.840
19219SOL    HW259491  10.773   2.655   2.892
19220SOL     OW59492   9.645   7.966   7.546
19220SOL    HW159493   9.703   7.896   7.513
19220SOL    HW259494   9.646   7.955   7.641
19221SOL     OW59495   6.551   0.615   9.457
19221SOL    HW159496   6.592   0.541   9.502
19221SOL    HW259497   6.581   0.607   9.367
19222SOL     OW59498   8.366  10.385  12.911
19222SOL    HW159499   8.392  10.389  13.003
19222SOL    HW259500   8.321  10.301  12.903
19223SOL     OW59501   1.183  14.806   1.902
19223SOL    HW159502   1.188  14.776   1.811
19223SOL    HW259503   1.216   0.017   1.900
19224SOL     OW59504   5.823   4.726   9.962
19224SOL    HW159505   5.834   4.799   9.900
19224SOL    HW259506   5.912   4.707   9.992
19225SOL     OW59507   9.620   7.702   2.928
19225SOL    HW159508   9.691   7.692   2.991
19225SOL    HW259509   9.543   7.722   2.981
19226SOL     OW59510   8.021   9.397   5.491
19226SOL    HW159511   8.044   9.490   5.489
19226SOL    HW259512   7.930   9.395   5.519
19227SOL     OW59513   3.006   9.529  10.366
19227SOL    HW159514   2.934   9.478  10.329
19227SOL    HW259515   3.072   9.465  10.389
19228SOL     OW59516   3.214   3.616  12.657
19228SOL    HW159517   3.250   3.688  12.606
19228SOL    HW259518   3.220   3.647  12.748
19229SOL     OW59519  13.776  11.810   4.281
19229SOL    HW159520  13.772  11.792   4.375
19229SOL    HW259521  13.687  11.796   4.250
19230SOL     OW59522   4.111   9.025   3.539
19230SOL    HW159523   4.064   9.103   3.510
19230SOL    HW259524   4.160   9.053   3.616
19231SOL     OW59525   8.447   4.157   2.490
19231SOL    HW159526   8.476   4.100   2.561
19231SOL    HW259527   8.526   4.204   2.464
19232SOL     OW59528  11.282   2.002   4.810
19232SOL    HW159529  11.314   2.092   4.805
19232SOL    HW259530  11.305   1.963   4.726
19233SOL     OW59531   3.799   7.942  12.702
19233SOL    HW159532   3.821   7.949  12.795
19233SOL    HW259533   3.776   8.032  12.676
19234SOL     OW59534   5.181  12.544   5.397
19234SOL    HW159535   5.146  12.556   5.309
19234SOL    HW259536   5.139  12.463   5.429
19235SOL     OW59537   1.756  10.648   5.900
19235SOL    HW159538   1.766  10.639   5.995
19235SOL    HW259539   1.694  10.720   5.889
19236SOL     OW59540   4.383   5.474   0.027
19236SOL    HW159541   4.425   5.552  14.869
19236SOL    HW259542   4.362   5.421  14.829
19237SOL     OW59543   5.874   1.348   1.262
19237SOL    HW159544   5.928   1.332   1.340
19237SOL    HW259545   5.920   1.301   1.192
19238SOL     OW59546   7.817   9.409   4.106
19238SOL    HW159547   7.792   9.324   4.070
19238SOL    HW259548   7.904   9.426   4.070
19239SOL     OW59549   3.222   5.408   1.453
19239SOL    HW159550   3.158   5.465   1.494
19239SOL    HW259551   3.303   5.459   1.451
19240SOL     OW59552   9.111   2.167   9.506
19240SOL    HW159553   9.144   2.207   9.587
19240SOL    HW259554   9.056   2.095   9.535
19241SOL     OW59555  14.008   0.817   8.575
19241SOL    HW159556  13.939   0.752   8.587
19241SOL    HW259557  14.075   0.792   8.638
19242SOL     OW59558   1.027  11.511   4.798
19242SOL    HW159559   1.010  11.419   4.818
19242SOL    HW259560   0.971  11.531   4.724
19243SOL     OW59561   4.397   2.932  10.048
19243SOL    HW159562   4.482   2.928  10.092
19243SOL    HW259563   4.404   2.869   9.976
19244SOL     OW59564   6.227   0.920   3.073
19244SOL    HW159565   6.259   1.011   3.070
19244SOL    HW259566   6.291   0.871   3.022
19245SOL     OW59567   2.671   4.956  12.138
19245SOL    HW159568   2.726   4.982  12.213
19245SOL    HW259569   2.590   4.923  12.178
19246SOL     OW59570   7.598   2.681  13.563
19246SOL    HW159571   7.560   2.728  13.637
19246SOL    HW259572   7.575   2.590  13.578
19247SOL     OW59573  12.137   8.687   9.035
19247SOL    HW159574  12.214   8.654   9.081
19247SOL    HW259575  12.119   8.771   9.076
19248SOL     OW59576  14.376   9.475   1.356
19248SOL    HW159577  14.381   9.413   1.283
19248SOL    HW259578  14.324   9.548   1.321
19249SOL     OW59579   7.542   0.411   2.465
19249SOL    HW159580   7.573   0.500   2.482
19249SOL    HW259581   7.545   0.368   2.551
19250SOL     OW59582   1.527   6.392  10.159
19250SOL    HW159583   1.524   6.385  10.064
19250SOL    HW259584   1.440   6.424  10.183
19251SOL     OW59585  14.871   9.052   5.511
19251SOL    HW159586   0.012   9.139   5.548
19251SOL    HW259587   0.043   8.992   5.566
19252SOL     OW59588   5.065   1.558   3.351
19252SOL    HW159589   5.149   1.516   3.371
19252SOL    HW259590   5.087   1.638   3.304
19253SOL     OW59591   1.818   9.361   0.068
19253SOL    HW159592   1.764   9.440   0.065
19253SOL    HW259593   1.907   9.392   0.054
19254SOL     OW59594   0.427   2.530  14.095
19254SOL    HW159595   0.441   2.609  14.147
19254SOL    HW259596   0.504   2.524  14.039
19255SOL     OW59597   2.705   9.936   7.923
19255SOL    HW159598   2.781   9.918   7.979
19255SOL    HW259599   2.657  10.004   7.969
19256SOL     OW59600   7.241  11.848  11.574
19256SOL    HW159601   7.259  11.923  11.630
19256SOL    HW259602   7.209  11.887  11.492
19257SOL     OW59603   2.703  10.458   4.876
19257SOL    HW159604   2.694  10.411   4.793
19257SOL    HW259605   2.722  10.548   4.850
19258SOL     OW59606  12.618   4.710   0.755
19258SOL    HW159607  12.571   4.784   0.793
19258SOL    HW259608  12.557   4.636   0.764
19259SOL     OW59609  12.776   1.957   1.748
19259SOL    HW159610  12.718   1.890   1.783
19259SOL    HW259611  12.826   1.987   1.824
19260SOL     OW59612  11.696   6.614   4.745
19260SOL    HW159613  11.692   6.519   4.748
19260SOL    HW259614  11.784   6.636   4.776
19261SOL     OW59615  13.861   7.792   2.753
19261SOL    HW159616  13.869   7.697   2.741
19261SOL    HW259617  13.945   7.819   2.789
19262SOL     OW59618   8.734   9.981   5.750
19262SOL    HW159619   8.762   9.980   5.658
19262SOL    HW259620   8.802  10.032   5.795
19263SOL     OW59621   4.989   0.682  14.110
19263SOL    HW159622   4.954   0.593  14.102
19263SOL    HW259623   5.031   0.699  14.026
19264SOL     OW59624  11.523  14.721  14.147
19264SOL    HW159625  11.497  14.629  14.155
19264SOL    HW259626  11.479  14.752  14.068
19265SOL     OW59627   5.999  10.716   3.700
19265SOL    HW159628   6.083  10.755   3.675
19265SOL    HW259629   5.998  10.632   3.654
19266SOL     OW59630  13.255   0.312   1.610
19266SOL    HW159631  13.309   0.316   1.689
19266SOL    HW259632  13.180   0.259   1.634
19267SOL     OW59633  14.307   7.584  10.465
19267SOL    HW159634  14.323   7.491  10.450
19267SOL    HW259635  14.261   7.586  10.549
19268SOL     OW59636  11.434  10.905   6.269
19268SOL    HW159637  11.397  10.831   6.221
19268SOL    HW259638  11.422  10.882   6.361
19269SOL     OW59639   0.787   7.071  10.665
19269SOL    HW159640   0.711   7.102  10.617
19269SOL    HW259641   0.840   7.025  10.599
19270SOL     OW59642   4.072   9.978  10.024
19270SOL    HW159643   4.051  10.061   9.981
19270SOL    HW259644   4.008   9.971  10.095
19271SOL     OW59645   3.138  12.705  10.783
19271SOL    HW159646   3.160  12.612  10.791
19271SOL    HW259647   3.189  12.748  10.852
19272SOL     OW59648   3.221   8.476   6.510
19272SOL    HW159649   3.224   8.455   6.417
19272SOL    HW259650   3.309   8.455   6.542
19273SOL     OW59651  12.882  11.673  14.168
19273SOL    HW159652  12.925  11.588  14.168
19273SOL    HW259653  12.934  11.726  14.108
19274SOL     OW59654   5.779  11.568   9.365
19274SOL    HW159655   5.741  11.640   9.415
19274SOL    HW259656   5.804  11.504   9.432
19275SOL     OW59657  12.976  11.358   2.194
19275SOL    HW159658  12.902  11.361   2.254
19275SOL    HW259659  12.947  11.300   2.123
19276SOL     OW59660   6.204   1.932  10.853
19276SOL    HW159661   6.112   1.919  10.827
19276SOL    HW259662   6.208   1.894  10.941
19277SOL     OW59663   9.531   9.553   1.163
19277SOL    HW159664   9.437   9.541   1.151
19277SOL    HW259665   9.542   9.555   1.258
19278SOL     OW59666   4.885  10.985   6.988
19278SOL    HW159667   4.941  10.923   6.941
19278SOL    HW259668   4.835  11.029   6.918
19279SOL     OW59669   2.478   2.084   9.549
19279SOL    HW159670   2.395   2.038   9.539
19279SOL    HW259671   2.455   2.164   9.596
19280SOL     OW59672   9.741  13.779   4.289
19280SOL    HW159673   9.689  13.736   4.357
19280SOL    HW259674   9.760  13.710   4.226
19281SOL     OW59675  13.013   8.114   8.534
19281SOL    HW159676  13.093   8.063   8.540
19281SOL    HW259677  12.964   8.091   8.614
19282SOL     OW59678   3.955  11.215   8.895
19282SOL    HW159679   3.875  11.184   8.937
19282SOL    HW259680   4.023  11.200   8.961
19283SOL     OW59681   7.974   0.026  13.175
19283SOL    HW159682   7.897  14.863  13.215
19283SOL    HW259683   7.951   0.034  13.083
19284SOL     OW59684   3.846  11.604   4.735
19284SOL    HW159685   3.836  11.697   4.755
19284SOL    HW259686   3.780  11.560   4.788
19285SOL     OW59687   7.535  12.733   4.110
19285SOL    HW159688   7.494  12.746   4.024
19285SOL    HW259689   7.537  12.638   4.121
19286SOL     OW59690   2.216  11.920   8.873
19286SOL    HW159691   2.224  12.006   8.915
19286SOL    HW259692   2.122  11.907   8.863
19287SOL     OW59693   4.200   5.069  12.110
19287SOL    HW159694   4.176   5.155  12.075
19287SOL    HW259695   4.214   5.085  12.204
19288SOL     OW59696   2.964  10.297  13.369
19288SOL    HW159697   2.966  10.328  13.279
19288SOL    HW259698   2.992  10.373  13.421
19289SOL     OW59699   1.896  12.032   3.107
19289SOL    HW159700   1.970  12.060   3.053
19289SOL    HW259701   1.922  11.947   3.142
19290SOL     OW59702   6.931   4.780   8.044
19290SOL    HW159703   6.965   4.869   8.054
19290SOL    HW259704   6.864   4.772   8.112
19291SOL     OW59705  11.410   3.013  14.530
19291SOL    HW159706  11.384   2.927  14.496
19291SOL    HW259707  11.328   3.055  14.554
19292SOL     OW59708   2.168   8.113   5.265
19292SOL    HW159709   2.217   8.148   5.191
19292SOL    HW259710   2.121   8.038   5.230
19293SOL     OW59711  13.934  13.282   3.633
19293SOL    HW159712  13.905  13.209   3.578
19293SOL    HW259713  13.863  13.346   3.628
19294SOL     OW59714   0.413   8.266   6.679
19294SOL    HW159715   0.437   8.316   6.757
19294SOL    HW259716   0.320   8.285   6.666
19295SOL     OW59717   6.160   6.231   6.317
19295SOL    HW159718   6.163   6.196   6.406
19295SOL    HW259719   6.090   6.297   6.319
19296SOL     OW59720   8.679   4.792   3.596
19296SOL    HW159721   8.738   4.718   3.583
19296SOL    HW259722   8.726   4.851   3.655
19297SOL     OW59723   8.729   6.757  13.836
19297SOL    HW159724   8.667   6.764  13.908
19297SOL    HW259725   8.687   6.696  13.775
19298SOL     OW59726  12.310   5.760   5.986
19298SOL    HW159727  12.282   5.670   5.973
19298SOL    HW259728  12.391   5.768   5.936
19299SOL     OW59729   3.821   1.929  11.568
19299SOL    HW159730   3.765   1.867  11.615
19299SOL    HW259731   3.831   1.891  11.481
19300SOL     OW59732  14.122   1.221   8.265
19300SOL    HW159733  14.145   1.256   8.179
19300SOL    HW259734  14.028   1.204   8.259
19301SOL     OW59735   9.360   4.092   8.245
19301SOL    HW159736   9.295   4.084   8.174
19301SOL    HW259737   9.387   4.002   8.262
19302SOL     OW59738   4.541   3.143  13.495
19302SOL    HW159739   4.534   3.180  13.583
19302SOL    HW259740   4.451   3.132  13.465
19303SOL     OW59741   2.869   0.152  12.456
19303SOL    HW159742   2.804   0.221  12.473
19303SOL    HW259743   2.899   0.170  12.367
19304SOL     OW59744   4.326   3.513  10.988
19304SOL    HW159745   4.309   3.588  10.931
19304SOL    HW259746   4.408   3.476  10.954
19305SOL     OW59747  12.172   9.977   4.762
19305SOL    HW159748  12.141   9.888   4.781
19305SOL    HW259749  12.102  10.015   4.710
19306SOL     OW59750   8.090   7.166   0.477
19306SOL    HW159751   8.181   7.189   0.457
19306SOL    HW259752   8.080   7.185   0.570
19307SOL     OW59753   1.550   0.948   3.302
19307SOL    HW159754   1.507   0.904   3.228
19307SOL    HW259755   1.624   0.892   3.323
19308SOL     OW59756   6.246  12.931   1.369
19308SOL    HW159757   6.330  12.886   1.357
19308SOL    HW259758   6.265  13.023   1.353
19309SOL     OW59759   9.643   7.982   2.368
19309SOL    HW159760   9.705   8.050   2.342
19309SOL    HW259761   9.679   7.946   2.449
19310SOL     OW59762   7.023   9.872   1.942
19310SOL    HW159763   6.985   9.794   1.984
19310SOL    HW259764   6.974   9.945   1.979
19311SOL     OW59765   4.197  14.432  10.166
19311SOL    HW159766   4.128  14.377  10.203
19311SOL    HW259767   4.244  14.374  10.106
19312SOL     OW59768   7.531   4.463   6.729
19312SOL    HW159769   7.534   4.512   6.811
19312SOL    HW259770   7.598   4.503   6.674
19313SOL     OW59771   8.135   3.037   7.477
19313SOL    HW159772   8.049   3.017   7.440
19313SOL    HW259773   8.186   3.072   7.404
19314SOL     OW59774  11.560  12.443   7.816
19314SOL    HW159775  11.626  12.437   7.884
19314SOL    HW259776  11.604  12.411   7.737
19315SOL     OW59777   6.556   2.518  11.177
19315SOL    HW159778   6.481   2.484  11.129
19315SOL    HW259779   6.519   2.549  11.260
19316SOL     OW59780   8.097  13.523  13.295
19316SOL    HW159781   8.057  13.449  13.341
19316SOL    HW259782   8.175  13.486  13.254
19317SOL     OW59783   5.458   6.557   5.756
19317SOL    HW159784   5.499   6.572   5.841
19317SOL    HW259785   5.378   6.508   5.777
19318SOL     OW59786   1.892  10.074  11.454
19318SOL    HW159787   1.817  10.045  11.505
19318SOL    HW259788   1.900  10.008  11.384
19319SOL     OW59789  12.493   7.190  14.169
19319SOL    HW159790  12.510   7.248  14.243
19319SOL    HW259791  12.577   7.182  14.125
19320SOL     OW59792   1.137   1.385  14.535
19320SOL    HW159793   1.041   1.381  14.533
19320SOL    HW259794   1.157   1.475  14.560
19321SOL     OW59795   8.360   3.923   4.243
19321SOL    HW159796   8.385   3.830   4.243
19321SOL    HW259797   8.361   3.947   4.336
19322SOL     OW59798   2.929  14.531  14.256
19322SOL    HW159799   2.972  14.536  14.341
19322SOL    HW259800   2.939  14.618  14.218
19323SOL     OW59801  13.328   2.002  10.867
19323SOL    HW159802  13.397   2.010  10.801
19323SOL    HW259803  13.343   2.076  10.926
19324SOL     OW59804   1.873   7.524  13.182
19324SOL    HW159805   1.958   7.486  13.206
19324SOL    HW259806   1.842   7.471  13.109
19325SOL     OW59807   3.402  11.428  11.489
19325SOL    HW159808   3.433  11.506  11.442
19325SOL    HW259809   3.447  11.431  11.573
19326SOL     OW59810   6.729   2.507   1.840
19326SOL    HW159811   6.634   2.496   1.846
19326SOL    HW259812   6.745   2.521   1.747
19327SOL     OW59813  13.963   1.847   0.437
19327SOL    HW159814  14.011   1.776   0.395
19327SOL    HW259815  13.886   1.860   0.383
19328SOL     OW59816   7.350  13.029   3.816
19328SOL    HW159817   7.440  13.056   3.835
19328SOL    HW259818   7.325  13.081   3.741
19329SOL     OW59819  13.016   1.391  13.593
19329SOL    HW159820  13.047   1.432  13.512
19329SOL    HW259821  13.032   1.297  13.581
19330SOL     OW59822   7.678   8.916  13.417
19330SOL    HW159823   7.678   8.831  13.461
19330SOL    HW259824   7.702   8.897  13.326
19331SOL     OW59825   6.244   7.010  12.069
19331SOL    HW159826   6.225   6.966  11.986
19331SOL    HW259827   6.313   7.072  12.048
19332SOL     OW59828   2.855   2.296   8.050
19332SOL    HW159829   2.903   2.245   7.985
19332SOL    HW259830   2.788   2.342   8.000
19333SOL     OW59831  13.639   5.524   0.740
19333SOL    HW159832  13.725   5.533   0.783
19333SOL    HW259833  13.618   5.431   0.748
19334SOL     OW59834  14.382   7.975   2.043
19334SOL    HW159835  14.464   8.019   2.022
19334SOL    HW259836  14.397   7.884   2.017
19335SOL     OW59837   4.710  14.822   1.516
19335SOL    HW159838   4.659  14.811   1.436
19335SOL    HW259839   4.671  14.761   1.578
19336SOL     OW59840   1.994   1.481  11.334
19336SOL    HW159841   2.002   1.486  11.429
19336SOL    HW259842   1.913   1.529  11.315
19337SOL     OW59843   0.285  12.035   2.425
19337SOL    HW159844   0.325  12.098   2.485
19337SOL    HW259845   0.248  12.089   2.355
19338SOL     OW59846   3.934   7.603  10.539
19338SOL    HW159847   3.863   7.610  10.475
19338SOL    HW259848   4.004   7.658  10.503
19339SOL     OW59849   6.234   2.064  12.876
19339SOL    HW159850   6.142   2.046  12.856
19339SOL    HW259851   6.234   2.152  12.913
19340SOL     OW59852  10.641   8.255  11.551
19340SOL    HW159853  10.550   8.286  11.550
19340SOL    HW259854  10.692   8.333  11.572
19341SOL     OW59855   0.829   0.642  11.636
19341SOL    HW159856   0.822   0.594  11.718
19341SOL    HW259857   0.771   0.596  11.575
19342SOL     OW59858   4.287   5.557  11.901
19342SOL    HW159859   4.358   5.620  11.913
19342SOL    HW259860   4.218   5.606  11.857
19343SOL     OW59861  11.739  12.054   2.369
19343SOL    HW159862  11.737  12.029   2.462
19343SOL    HW259863  11.683  12.131   2.363
19344SOL     OW59864   6.717  10.125   1.855
19344SOL    HW159865   6.693  10.218   1.858
19344SOL    HW259866   6.796  10.123   1.801
19345SOL     OW59867   6.422   7.738  12.203
19345SOL    HW159868   6.409   7.717  12.110
19345SOL    HW259869   6.444   7.654  12.243
19346SOL     OW59870  13.597   7.896   6.303
19346SOL    HW159871  13.537   7.904   6.229
19346SOL    HW259872  13.623   7.986   6.323
19347SOL     OW59873   5.900   4.896  14.653
19347SOL    HW159874   5.907   4.989  14.676
19347SOL    HW259875   5.824   4.866  14.703
19348SOL     OW59876  11.951   5.590   0.573
19348SOL    HW159877  11.892   5.658   0.541
19348SOL    HW259878  12.036   5.613   0.536
19349SOL     OW59879   5.627  14.803   0.837
19349SOL    HW159880   5.691  14.786   0.768
19349SOL    HW259881   5.550  14.753   0.810
19350SOL     OW59882   9.786  14.601   0.274
19350SOL    HW159883   9.842  14.542   0.223
19350SOL    HW259884   9.712  14.620   0.217
19351SOL     OW59885   4.726   2.528   7.364
19351SOL    HW159886   4.642   2.529   7.411
19351SOL    HW259887   4.791   2.509   7.432
19352SOL     OW59888   2.506   2.613  10.406
19352SOL    HW159889   2.584   2.635  10.354
19352SOL    HW259890   2.483   2.525  10.378
19353SOL     OW59891   1.443   6.965  12.563
19353SOL    HW159892   1.380   7.000  12.626
19353SOL    HW259893   1.509   6.921  12.616
19354SOL     OW59894  11.876   3.242   4.367
19354SOL    HW159895  11.952   3.269   4.315
19354SOL    HW259896  11.800   3.264   4.312
19355SOL     OW59897   2.462   4.615   2.641
19355SOL    HW159898   2.443   4.653   2.556
19355SOL    HW259899   2.495   4.527   2.622
19356SOL     OW59900  10.828   2.387   1.491
19356SOL    HW159901  10.868   2.365   1.575
19356SOL    HW259902  10.875   2.465   1.462
19357SOL     OW59903   3.935   3.310   7.547
19357SOL    HW159904   3.973   3.223   7.560
19357SOL    HW259905   3.960   3.359   7.626
19358SOL     OW59906   7.749   2.748   0.003
19358SOL    HW159907   7.720   2.657   0.008
19358SOL    HW259908   7.815   2.749  14.813
19359SOL     OW59909  13.609   1.541   6.005
19359SOL    HW159910  13.528   1.509   6.046
19359SOL    HW259911  13.672   1.545   6.077
19360SOL     OW59912   4.591   0.989   4.329
19360SOL    HW159913   4.594   0.954   4.418
19360SOL    HW259914   4.501   1.021   4.319
19361SOL     OW59915  13.499   8.606  14.865
19361SOL    HW159916  13.505   8.607   0.082
19361SOL    HW259917  13.427   8.666  14.845
19362SOL     OW59918   0.220  11.495  11.846
19362SOL    HW159919   0.187  11.498  11.756
19362SOL    HW259920   0.141  11.488  11.900
19363SOL     OW59921  12.817   0.189   8.088
19363SOL    HW159922  12.727   0.211   8.066
19363SOL    HW259923  12.864   0.194   8.004
19364SOL     OW59924   0.349   5.218  14.633
19364SOL    HW159925   0.343   5.145  14.694
19364SOL    HW259926   0.270   5.269  14.649
19365SOL     OW59927   3.199   4.522   2.005
19365SOL    HW159928   3.132   4.570   1.958
19365SOL    HW259929   3.151   4.471   2.070
19366SOL     OW59930   7.842   8.244  10.026
19366SOL    HW159931   7.772   8.270   9.966
19366SOL    HW259932   7.798   8.191  10.092
19367SOL     OW59933   2.657   2.190  10.682
19367SOL    HW159934   2.624   2.270  10.722
19367SOL    HW259935   2.662   2.209  10.589
19368SOL     OW59936  10.904   5.482  12.785
19368SOL    HW159937  10.990   5.450  12.812
19368SOL    HW259938  10.851   5.482  12.865
19369SOL     OW59939   4.634   0.716   6.776
19369SOL    HW159940   4.554   0.674   6.745
19369SOL    HW259941   4.604   0.778   6.843
19370SOL     OW59942   9.672   3.583   0.725
19370SOL    HW159943   9.733   3.612   0.793
19370SOL    HW259944   9.633   3.663   0.691
19371SOL     OW59945   4.525  14.262   3.091
19371SOL    HW159946   4.560  14.288   3.005
19371SOL    HW259947   4.493  14.344   3.128
19372SOL     OW59948  14.382   3.146   5.468
19372SOL    HW159949  14.466   3.116   5.432
19372SOL    HW259950  14.400   3.163   5.560
19373SOL     OW59951   3.636   8.465   5.160
19373SOL    HW159952   3.589   8.443   5.080
19373SOL    HW259953   3.578   8.438   5.231
19374SOL     OW59954   9.630   1.416  10.312
19374SOL    HW159955   9.635   1.452  10.401
19374SOL    HW259956   9.588   1.331  10.323
19375SOL     OW59957   7.572   6.489   1.254
19375SOL    HW159958   7.566   6.434   1.332
19375SOL    HW259959   7.656   6.466   1.214
19376SOL     OW59960   8.441   9.753   8.295
19376SOL    HW159961   8.417   9.671   8.339
19376SOL    HW259962   8.535   9.761   8.309
19377SOL     OW59963  14.392   4.826  13.719
19377SOL    HW159964  14.461   4.774  13.676
19377SOL    HW259965  14.433   4.856  13.800
19378SOL     OW59966   5.959  13.572   8.344
19378SOL    HW159967   5.938  13.480   8.361
19378SOL    HW259968   6.019  13.570   8.270
19379SOL     OW59969   2.104  13.996   9.747
19379SOL    HW159970   2.173  14.008   9.813
19379SOL    HW259971   2.028  13.966   9.798
19380SOL     OW59972  13.934   9.209  10.899
19380SOL    HW159973  14.008   9.226  10.841
19380SOL    HW259974  13.966   9.233  10.986
19381SOL     OW59975   8.137  14.082  13.114
19381SOL    HW159976   8.076  14.082  13.040
19381SOL    HW259977   8.184  13.999  13.107
19382SOL     OW59978   0.190  11.917   4.364
19382SOL    HW159979   0.213  11.937   4.274
19382SOL    HW259980   0.153  11.998   4.399
19383SOL     OW59981   6.768   2.328   9.267
19383SOL    HW159982   6.728   2.241   9.261
19383SOL    HW259983   6.771   2.360   9.177
19384SOL     OW59984  13.346  13.722  11.110
19384SOL    HW159985  13.302  13.777  11.174
19384SOL    HW259986  13.356  13.638  11.155
19385SOL     OW59987   8.663   0.283   7.166
19385SOL    HW159988   8.714   0.355   7.204
19385SOL    HW259989   8.583   0.324   7.134
19386SOL     OW59990   1.734   1.716   8.861
19386SOL    HW159991   1.726   1.676   8.948
19386SOL    HW259992   1.673   1.790   8.863
19387SOL     OW59993   5.690   4.173   8.172
19387SOL    HW159994   5.638   4.244   8.211
19387SOL    HW259995   5.745   4.216   8.107
19388SOL     OW59996   3.826   7.039   0.844
19388SOL    HW159997   3.794   6.992   0.921
19388SOL    HW259998   3.751   7.090   0.815
19389SOL     OW59999   5.137   6.890   3.590
19389SOL    HW160000   5.107   6.819   3.647
19389SOL    HW260001   5.066   6.954   3.590
19390SOL     OW60002   4.137   8.322   2.484
19390SOL    HW160003   4.206   8.372   2.442
19390SOL    HW260004   4.128   8.243   2.431
19391SOL     OW60005   9.740   9.639  13.746
19391SOL    HW160006   9.649   9.671  13.742
19391SOL    HW260007   9.745   9.591  13.828
19392SOL     OW60008  10.818  10.615   1.558
19392SOL    HW160009  10.816  10.705   1.591
19392SOL    HW260010  10.767  10.565   1.622
19393SOL     OW60011  12.123   6.349  12.992
19393SOL    HW160012  12.162   6.294  12.925
19393SOL    HW260013  12.080   6.419  12.943
19394SOL     OW60014   2.056  11.549  12.303
19394SOL    HW160015   2.052  11.469  12.356
19394SOL    HW260016   2.049  11.620  12.366
19395SOL     OW60017  13.159   6.184   6.851
19395SOL    HW160018  13.087   6.241   6.880
19395SOL    HW260019  13.231   6.244   6.833
19396SOL     OW60020  10.769  10.508   3.824
19396SOL    HW160021  10.683  10.548   3.840
19396SOL    HW260022  10.749  10.421   3.790
19397SOL     OW60023  12.898   2.823   9.154
19397SOL    HW160024  12.884   2.730   9.139
19397SOL    HW260025  12.860   2.840   9.240
19398SOL     OW60026   2.515  10.379   3.846
19398SOL    HW160027   2.500  10.462   3.801
19398SOL    HW260028   2.496  10.398   3.938
19399SOL     OW60029   9.755   9.388   6.689
19399SOL    HW160030   9.678   9.347   6.729
19399SOL    HW260031   9.736   9.481   6.689
19400SOL     OW60032  10.119   6.272   8.081
19400SOL    HW160033  10.082   6.239   7.999
19400SOL    HW260034  10.189   6.331   8.053
19401SOL     OW60035  11.047   6.916  11.687
19401SOL    HW160036  11.028   6.921  11.593
19401SOL    HW260037  11.085   6.829  11.699
19402SOL     OW60038   2.174  13.610   0.759
19402SOL    HW160039   2.208  13.527   0.792
19402SOL    HW260040   2.224  13.677   0.807
19403SOL     OW60041   9.045   4.067  14.320
19403SOL    HW160042   8.987   4.122  14.373
19403SOL    HW260043   9.113   4.126  14.289
19404SOL     OW60044   4.026  12.582   8.223
19404SOL    HW160045   3.936  12.552   8.208
19404SOL    HW260046   4.080  12.506   8.203
19405SOL     OW60047  11.451  14.866   9.022
19405SOL    HW160048  11.393   0.026   8.957
19405SOL    HW260049  11.436  14.771   9.014
19406SOL     OW60050   4.761   5.041   3.507
19406SOL    HW160051   4.719   5.021   3.590
19406SOL    HW260052   4.780   4.956   3.468
19407SOL     OW60053   9.117   8.219  13.741
19407SOL    HW160054   9.171   8.147  13.773
19407SOL    HW260055   9.053   8.178  13.684
19408SOL     OW60056  14.624   3.671   4.966
19408SOL    HW160057  14.641   3.578   4.954
19408SOL    HW260058  14.635   3.686   5.060
19409SOL     OW60059   0.719  11.770  14.413
19409SOL    HW160060   0.635  11.810  14.436
19409SOL    HW260061   0.706  11.734  14.325
19410SOL     OW60062   8.814   6.343   5.852
19410SOL    HW160063   8.838   6.261   5.895
19410SOL    HW260064   8.766   6.392   5.919
19411SOL     OW60065   2.627   9.681  12.492
19411SOL    HW160066   2.571   9.709  12.419
19411SOL    HW260067   2.614   9.586  12.497
19412SOL     OW60068  11.261   5.250  12.642
19412SOL    HW160069  11.286   5.160  12.663
19412SOL    HW260070  11.264   5.254  12.546
19413SOL     OW60071   6.533   4.479  13.755
19413SOL    HW160072   6.567   4.533  13.684
19413SOL    HW260073   6.440   4.503  13.761
19414SOL     OW60074  10.153   7.975  11.437
19414SOL    HW160075  10.239   7.945  11.408
19414SOL    HW260076  10.097   7.898  11.430
19415SOL     OW60077   9.413  13.312   5.861
19415SOL    HW160078   9.496  13.304   5.814
19415SOL    HW260079   9.409  13.232   5.915
19416SOL     OW60080   3.037   2.820  14.454
19416SOL    HW160081   3.002   2.847  14.539
19416SOL    HW260082   3.046   2.902  14.405
19417SOL     OW60083   0.761   6.294  14.494
19417SOL    HW160084   0.844   6.266  14.455
19417SOL    HW260085   0.725   6.214  14.533
19418SOL     OW60086  13.700  12.411  11.695
19418SOL    HW160087  13.722  12.503  11.710
19418SOL    HW260088  13.606  12.412  11.676
19419SOL     OW60089   1.250   1.144  10.940
19419SOL    HW160090   1.213   1.128  11.027
19419SOL    HW260091   1.174   1.160  10.884
19420SOL     OW60092  12.473   1.455  11.269
19420SOL    HW160093  12.474   1.536  11.321
19420SOL    HW260094  12.533   1.396  11.315
19421SOL     OW60095   1.649  12.115   5.592
19421SOL    HW160096   1.680  12.121   5.501
19421SOL    HW260097   1.625  12.204   5.615
19422SOL     OW60098   8.962   7.225   6.113
19422SOL    HW160099   8.869   7.213   6.091
19422SOL    HW260100   8.961   7.268   6.198
19423SOL     OW60101  10.971  10.038   6.073
19423SOL    HW160102  10.908  10.011   6.007
19423SOL    HW260103  10.919  10.079   6.141
19424SOL     OW60104  11.991   2.684   6.858
19424SOL    HW160105  11.925   2.664   6.924
19424SOL    HW260106  12.069   2.706   6.909
19425SOL     OW60107   3.858  13.471   4.227
19425SOL    HW160108   3.898  13.446   4.144
19425SOL    HW260109   3.820  13.557   4.210
19426SOL     OW60110  10.881   9.289   1.308
19426SOL    HW160111  10.799   9.328   1.337
19426SOL    HW260112  10.940   9.364   1.295
19427SOL     OW60113   5.007   1.995   3.175
19427SOL    HW160114   4.981   1.989   3.267
19427SOL    HW260115   4.974   2.081   3.146
19428SOL     OW60116  11.213   4.484   0.375
19428SOL    HW160117  11.305   4.468   0.353
19428SOL    HW260118  11.216   4.534   0.456
19429SOL     OW60119  14.078   3.298   5.747
19429SOL    HW160120  13.985   3.321   5.744
19429SOL    HW260121  14.104   3.294   5.655
19430SOL     OW60122  12.909  12.222  13.627
19430SOL    HW160123  12.905  12.152  13.563
19430SOL    HW260124  12.869  12.184  13.706
19431SOL     OW60125   6.810   0.568  12.858
19431SOL    HW160126   6.866   0.619  12.799
19431SOL    HW260127   6.855   0.571  12.942
19432SOL     OW60128   2.181  13.960  12.183
19432SOL    HW160129   2.198  13.887  12.124
19432SOL    HW260130   2.102  14.002  12.148
19433SOL     OW60131   6.229   2.962   5.092
19433SOL    HW160132   6.152   2.924   5.134
19433SOL    HW260133   6.203   2.972   5.000
19434SOL     OW60134   7.310   5.821  14.090
19434SOL    HW160135   7.223   5.816  14.128
19434SOL    HW260136   7.363   5.760  14.142
19435SOL     OW60137  14.380   0.018  12.912
19435SOL    HW160138  14.320  14.822  12.911
19435SOL    HW260139  14.356   0.067  12.991
19436SOL     OW60140  11.572   7.263  11.296
19436SOL    HW160141  11.485   7.232  11.319
19436SOL    HW260142  11.557   7.334  11.234
19437SOL     OW60143   0.065   5.458  12.238
19437SOL    HW160144   0.154   5.465  12.271
19437SOL    HW260145   0.015   5.524  12.287
19438SOL     OW60146   8.157  12.101   0.285
19438SOL    HW160147   8.160  12.105   0.380
19438SOL    HW260148   8.176  12.009   0.264
19439SOL     OW60149   8.523  12.672   4.038
19439SOL    HW160150   8.436  12.679   3.998
19439SOL    HW260151   8.583  12.662   3.964
19440SOL     OW60152   3.390  12.279   6.514
19440SOL    HW160153   3.331  12.351   6.535
19440SOL    HW260154   3.342  12.200   6.541
19441SOL     OW60155   0.150   2.907   7.364
19441SOL    HW160156   0.125   2.952   7.445
19441SOL    HW260157   0.237   2.872   7.382
19442SOL     OW60158   7.456  10.895   9.043
19442SOL    HW160159   7.435  10.847   8.963
19442SOL    HW260160   7.431  10.837   9.114
19443SOL     OW60161   8.470   1.919   4.391
19443SOL    HW160162   8.551   1.868   4.382
19443SOL    HW260163   8.404   1.866   4.347
19444SOL     OW60164   1.012   2.326   8.545
19444SOL    HW160165   1.006   2.235   8.517
19444SOL    HW260166   0.928   2.344   8.588
19445SOL     OW60167   0.126   5.573  12.767
19445SOL    HW160168   0.134   5.518  12.845
19445SOL    HW260169   0.199   5.634  12.773
19446SOL     OW60170   1.419   4.377   7.539
19446SOL    HW160171   1.358   4.451   7.543
19446SOL    HW260172   1.453   4.369   7.628
19447SOL     OW60173   6.666  10.090   0.719
19447SOL    HW160174   6.606  10.137   0.661
19447SOL    HW260175   6.752  10.124   0.698
19448SOL     OW60176   0.775  10.409   3.848
19448SOL    HW160177   0.788  10.480   3.785
19448SOL    HW260178   0.862  10.371   3.860
19449SOL     OW60179   2.185   6.150  14.422
19449SOL    HW160180   2.143   6.228  14.386
19449SOL    HW260181   2.254   6.128  14.359
19450SOL     OW60182   1.363   1.777  12.736
19450SOL    HW160183   1.300   1.833  12.690
19450SOL    HW260184   1.320   1.756  12.819
19451SOL     OW60185  12.749   2.493   8.207
19451SOL    HW160186  12.730   2.491   8.300
19451SOL    HW260187  12.666   2.514   8.165
19452SOL     OW60188   2.955   9.301  11.421
19452SOL    HW160189   2.989   9.212  11.408
19452SOL    HW260190   2.952   9.312  11.516
19453SOL     OW60191  14.866   7.369  14.298
19453SOL    HW160192   0.009   7.439  14.359
19453SOL    HW260193   0.070   7.348  14.255
19454SOL     OW60194  11.435   0.034   9.382
19454SOL    HW160195  11.367   0.095   9.354
19454SOL    HW260196  11.493   0.027   9.307
19455SOL     OW60197  13.065   0.186   5.265
19455SOL    HW160198  13.129   0.255   5.247
19455SOL    HW260199  13.078   0.164   5.357
19456SOL     OW60200  11.413   2.804  11.620
19456SOL    HW160201  11.477   2.873  11.638
19456SOL    HW260202  11.463   2.736  11.575
19457SOL     OW60203  14.809   2.990   7.227
19457SOL    HW160204  14.765   3.059   7.177
19457SOL    HW260205   0.013   3.030   7.255
19458SOL     OW60206  12.174  10.676  12.001
19458SOL    HW160207  12.176  10.689  12.096
19458SOL    HW260208  12.185  10.581  11.990
19459SOL     OW60209  13.752   2.817  13.495
19459SOL    HW160210  13.777   2.891  13.551
19459SOL    HW260211  13.809   2.824  13.419
19460SOL     OW60212   6.452  13.552   3.827
19460SOL    HW160213   6.452  13.611   3.902
19460SOL    HW260214   6.360  13.525   3.819
19461SOL     OW60215   9.770   4.000   4.544
19461SOL    HW160216   9.736   3.911   4.541
19461SOL    HW260217   9.738   4.035   4.628
19462SOL     OW60218   5.484  14.781  12.265
19462SOL    HW160219   5.580  14.781  12.259
19462SOL    HW260220   5.460  14.688  12.262
19463SOL     OW60221   0.077   8.262  11.237
19463SOL    HW160222   0.045   8.222  11.318
19463SOL    HW260223   0.072   8.356  11.253
19464SOL     OW60224   9.394  14.093  11.008
19464SOL    HW160225   9.446  14.159  10.961
19464SOL    HW260226   9.305  14.128  11.009
19465SOL     OW60227  12.982   8.536  12.072
19465SOL    HW160228  13.072   8.566  12.057
19465SOL    HW260229  12.954   8.502  11.986
19466SOL     OW60230   1.836   1.904   2.996
19466SOL    HW160231   1.754   1.935   2.957
19466SOL    HW260232   1.903   1.934   2.935
19467SOL     OW60233  11.118  12.484  14.789
19467SOL    HW160234  11.025  12.507  14.791
19467SOL    HW260235  11.124  12.400  14.834
19468SOL     OW60236   3.696  12.859   6.864
19468SOL    HW160237   3.781  12.820   6.847
19468SOL    HW260238   3.650  12.795   6.918
19469SOL     OW60239   0.635   9.705   6.752
19469SOL    HW160240   0.694   9.762   6.703
19469SOL    HW260241   0.566   9.764   6.783
19470SOL     OW60242  11.982  12.564   6.274
19470SOL    HW160243  11.908  12.504   6.285
19470SOL    HW260244  11.953  12.625   6.205
19471SOL     OW60245   7.883   2.623   1.470
19471SOL    HW160246   7.831   2.617   1.551
19471SOL    HW260247   7.925   2.538   1.462
19472SOL     OW60248   8.722  12.899   7.139
19472SOL    HW160249   8.660  12.936   7.202
19472SOL    HW260250   8.668  12.848   7.079
19473SOL     OW60251   1.323  12.610  11.136
19473SOL    HW160252   1.257  12.598  11.069
19473SOL    HW260253   1.318  12.704  11.158
19474SOL     OW60254   8.195   4.799  13.252
19474SOL    HW160255   8.156   4.730  13.305
19474SOL    HW260256   8.148   4.878  13.276
19475SOL     OW60257   0.889  13.220   4.566
19475SOL    HW160258   0.945  13.263   4.631
19475SOL    HW260259   0.868  13.290   4.503
19476SOL     OW60260   7.833   0.767  12.629
19476SOL    HW160261   7.764   0.763  12.564
19476SOL    HW260262   7.847   0.861  12.644
19477SOL     OW60263   5.520   0.510  11.859
19477SOL    HW160264   5.598   0.498  11.804
19477SOL    HW260265   5.518   0.604  11.877
19478SOL     OW60266  12.381  14.613   6.251
19478SOL    HW160267  12.311  14.553   6.225
19478SOL    HW260268  12.462  14.563   6.235
19479SOL     OW60269  14.191   8.709   9.829
19479SOL    HW160270  14.262   8.770   9.808
19479SOL    HW260271  14.235   8.628   9.854
19480SOL     OW60272   3.383   6.523   4.991
19480SOL    HW160273   3.390   6.605   5.041
19480SOL    HW260274   3.468   6.480   5.004
19481SOL     OW60275   3.040   6.358   1.999
19481SOL    HW160276   3.102   6.288   1.980
19481SOL    HW260277   2.983   6.321   2.067
19482SOL     OW60278   4.773  13.133   5.612
19482SOL    HW160279   4.742  13.220   5.588
19482SOL    HW260280   4.808  13.144   5.701
19483SOL     OW60281   9.777   5.788  14.556
19483SOL    HW160282   9.749   5.846  14.485
19483SOL    HW260283   9.696   5.752  14.591
19484SOL     OW60284   5.634   5.257  12.505
19484SOL    HW160285   5.595   5.344  12.508
19484SOL    HW260286   5.703   5.264  12.439
19485SOL     OW60287  12.308  10.487   3.278
19485SOL    HW160288  12.371  10.557   3.297
19485SOL    HW260289  12.226  10.519   3.315
19486SOL     OW60290   2.666   1.696   1.699
19486SOL    HW160291   2.630   1.769   1.750
19486SOL    HW260292   2.655   1.723   1.608
19487SOL     OW60293   8.926  13.722  12.822
19487SOL    HW160294   8.919  13.667  12.744
19487SOL    HW260295   8.969  13.667  12.887
19488SOL     OW60296   3.438  11.784   8.589
19488SOL    HW160297   3.502  11.769   8.659
19488SOL    HW260298   3.490  11.810   8.514
19489SOL     OW60299  11.969  13.578   1.597
19489SOL    HW160300  11.984  13.657   1.544
19489SOL    HW260301  11.902  13.529   1.550
19490SOL     OW60302  10.234   6.448   5.826
19490SOL    HW160303  10.310   6.444   5.768
19490SOL    HW260304  10.226   6.360   5.862
19491SOL     OW60305  13.757   5.762   0.461
19491SOL    HW160306  13.775   5.673   0.491
19491SOL    HW260307  13.771   5.759   0.366
19492SOL     OW60308  12.473  14.417   6.483
19492SOL    HW160309  12.419  14.480   6.434
19492SOL    HW260310  12.544  14.395   6.424
19493SOL     OW60311  10.172  11.871   8.394
19493SOL    HW160312  10.147  11.780   8.378
19493SOL    HW260313  10.172  11.911   8.307
19494SOL     OW60314   5.515   3.393  10.283
19494SOL    HW160315   5.526   3.388  10.378
19494SOL    HW260316   5.421   3.382  10.269
19495SOL     OW60317   3.696   8.555  10.356
19495SOL    HW160318   3.732   8.477  10.399
19495SOL    HW260319   3.756   8.573  10.284
19496SOL     OW60320  11.296   6.484   8.685
19496SOL    HW160321  11.262   6.570   8.709
19496SOL    HW260322  11.286   6.432   8.764
19497SOL     OW60323   8.032   0.031   3.353
19497SOL    HW160324   7.974  14.844   3.391
19497SOL    HW260325   8.018   0.109   3.406
19498SOL     OW60326   3.759   8.393  13.535
19498SOL    HW160327   3.762   8.452  13.460
19498SOL    HW260328   3.794   8.445  13.607
19499SOL     OW60329   4.089  11.221   3.182
19499SOL    HW160330   4.003  11.236   3.222
19499SOL    HW260331   4.099  11.126   3.185
19500SOL     OW60332   0.386   5.815   9.459
19500SOL    HW160333   0.363   5.724   9.478
19500SOL    HW260334   0.473   5.826   9.497
19501SOL     OW60335  11.685  10.273  13.012
19501SOL    HW160336  11.673  10.236  13.099
19501SOL    HW260337  11.755  10.221  12.972
19502SOL     OW60338  13.421  12.206  12.136
19502SOL    HW160339  13.486  12.154  12.087
19502SOL    HW260340  13.367  12.140  12.180
19503SOL     OW60341   4.427   6.700   8.620
19503SOL    HW160342   4.361   6.690   8.551
19503SOL    HW260343   4.436   6.613   8.658
19504SOL     OW60344   2.389   8.499  10.668
19504SOL    HW160345   2.478   8.465  10.679
19504SOL    HW260346   2.401   8.582  10.622
19505SOL     OW60347   6.556   5.977   3.229
19505SOL    HW160348   6.474   5.931   3.208
19505SOL    HW260349   6.591   5.930   3.304
19506SOL     OW60350  12.236  13.726  14.770
19506SOL    HW160351  12.305  13.777  14.727
19506SOL    HW260352  12.264  13.720  14.862
19507SOL     OW60353   9.098  10.705   9.897
19507SOL    HW160354   9.133  10.663   9.819
19507SOL    HW260355   9.133  10.794   9.896
19508SOL     OW60356   6.798   6.529   1.678
19508SOL    HW160357   6.717   6.485   1.651
19508SOL    HW260358   6.855   6.458   1.708
19509SOL     OW60359   3.036  14.068   0.094
19509SOL    HW160360   2.958  14.024   0.127
19509SOL    HW260361   3.095  14.072   0.170
19510SOL     OW60362  14.284   5.127   3.835
19510SOL    HW160363  14.269   5.057   3.772
19510SOL    HW260364  14.367   5.167   3.807
19511SOL     OW60365  12.059  13.490  13.735
19511SOL    HW160366  11.999  13.564  13.743
19511SOL    HW260367  12.059  13.449  13.822
19512SOL     OW60368  14.107   5.630   3.593
19512SOL    HW160369  14.129   5.618   3.501
19512SOL    HW260370  14.171   5.577   3.640
19513SOL     OW60371  11.943   6.237   8.460
19513SOL    HW160372  11.962   6.155   8.413
19513SOL    HW260373  11.881   6.283   8.404
19514SOL     OW60374   8.786  10.861  10.886
19514SOL    HW160375   8.838  10.899  10.814
19514SOL    HW260376   8.822  10.773  10.897
19515SOL     OW60377  13.594   8.957   0.803
19515SOL    HW160378  13.578   9.015   0.729
19515SOL    HW260379  13.557   9.002   0.879
19516SOL     OW60380   9.873   0.995   1.645
19516SOL    HW160381   9.877   0.987   1.741
19516SOL    HW260382   9.887   1.088   1.628
19517SOL     OW60383   7.684   8.274  10.889
19517SOL    HW160384   7.662   8.227  10.970
19517SOL    HW260385   7.599   8.290  10.847
19518SOL     OW60386   9.063  12.284   6.332
19518SOL    HW160387   8.968  12.297   6.326
19518SOL    HW260388   9.094  12.358   6.384
19519SOL     OW60389   0.362  14.509  13.276
19519SOL    HW160390   0.445  14.485  13.317
19519SOL    HW260391   0.365  14.467  13.190
19520SOL     OW60392  12.731   3.842  13.928
19520SOL    HW160393  12.769   3.851  14.015
19520SOL    HW260394  12.675   3.920  13.918
19521SOL     OW60395   9.957   8.492   4.281
19521SOL    HW160396   9.866   8.515   4.299
19521SOL    HW260397   9.978   8.427   4.349
19522SOL     OW60398   1.030  14.501  12.112
19522SOL    HW160399   0.968  14.489  12.040
19522SOL    HW260400   1.058  14.592  12.105
19523SOL     OW60401  10.205   0.507   1.235
19523SOL    HW160402  10.176   0.571   1.300
19523SOL    HW260403  10.128   0.451   1.221
19524SOL     OW60404   6.689   4.591  11.976
19524SOL    HW160405   6.643   4.529  11.920
19524SOL    HW260406   6.637   4.593  12.057
19525SOL     OW60407  12.360   0.176  14.060
19525SOL    HW160408  12.267   0.169  14.082
19525SOL    HW260409  12.363   0.171  13.965
19526SOL     OW60410  13.804   7.550  14.619
19526SOL    HW160411  13.758   7.632  14.598
19526SOL    HW260412  13.782   7.533  14.710
19527SOL     OW60413   2.932  13.694  10.031
19527SOL    HW160414   2.997  13.631  10.002
19527SOL    HW260415   2.983  13.766  10.068
19528SOL     OW60416   2.787   9.423  13.894
19528SOL    HW160417   2.822   9.364  13.961
19528SOL    HW260418   2.727   9.369  13.843
19529SOL     OW60419   7.665   1.700   2.582
19529SOL    HW160420   7.646   1.644   2.657
19529SOL    HW260421   7.597   1.678   2.518
19530SOL     OW60422   0.337   0.203  11.634
19530SOL    HW160423   0.386   0.152  11.570
19530SOL    HW260424   0.397   0.212  11.708
19531SOL     OW60425   2.349  10.193   2.736
19531SOL    HW160426   2.386  10.261   2.792
19531SOL    HW260427   2.425  10.150   2.697
19532SOL     OW60428   2.663   1.178   7.463
19532SOL    HW160429   2.580   1.191   7.417
19532SOL    HW260430   2.726   1.163   7.393
19533SOL     OW60431   6.912   3.468   3.767
19533SOL    HW160432   6.991   3.429   3.730
19533SOL    HW260433   6.936   3.487   3.858
19534SOL     OW60434   8.039   4.403   6.332
19534SOL    HW160435   8.034   4.406   6.428
19534SOL    HW260436   8.076   4.488   6.307
19535SOL     OW60437   4.565   7.497   4.194
19535SOL    HW160438   4.630   7.551   4.240
19535SOL    HW260439   4.591   7.407   4.214
19536SOL     OW60440   5.321  11.569  12.412
19536SOL    HW160441   5.329  11.617  12.494
19536SOL    HW260442   5.383  11.613  12.353
19537SOL     OW60443   8.394  14.589  11.187
19537SOL    HW160444   8.475  14.547  11.218
19537SOL    HW260445   8.417  14.681  11.178
19538SOL     OW60446   8.564   3.264   5.428
19538SOL    HW160447   8.627   3.254   5.356
19538SOL    HW260448   8.511   3.340   5.403
19539SOL     OW60449   8.660   5.298   4.496
19539SOL    HW160450   8.751   5.281   4.520
19539SOL    HW260451   8.655   5.393   4.484
19540SOL     OW60452  11.810   2.142   2.943
19540SOL    HW160453  11.864   2.109   3.015
19540SOL    HW260454  11.838   2.091   2.867
19541SOL     OW60455  13.373  14.460  11.121
19541SOL    HW160456  13.446  14.407  11.092
19541SOL    HW260457  13.411  14.523  11.182
19542SOL     OW60458  11.475   8.496   6.205
19542SOL    HW160459  11.427   8.416   6.224
19542SOL    HW260460  11.407   8.562   6.192
19543SOL     OW60461   4.915   4.955  10.582
19543SOL    HW160462   4.887   4.921  10.668
19543SOL    HW260463   4.965   5.034  10.603
19544SOL     OW60464   5.367   6.933   9.473
19544SOL    HW160465   5.371   6.915   9.379
19544SOL    HW260466   5.456   6.961   9.495
19545SOL     OW60467  13.590   5.280   1.070
19545SOL    HW160468  13.577   5.375   1.073
19545SOL    HW260469  13.674   5.268   1.026
19546SOL     OW60470  14.763  10.542   0.562
19546SOL    HW160471  14.721  10.509   0.642
19546SOL    HW260472  14.724  10.628   0.548
19547SOL     OW60473   8.543   4.678   2.431
19547SOL    HW160474   8.469   4.629   2.468
19547SOL    HW260475   8.580   4.620   2.365
19548SOL     OW60476  12.511   0.327  13.370
19548SOL    HW160477  12.482   0.247  13.415
19548SOL    HW260478  12.453   0.335  13.295
19549SOL     OW60479   1.414   4.470   9.586
19549SOL    HW160480   1.449   4.446   9.672
19549SOL    HW260481   1.390   4.562   9.594
19550SOL     OW60482  13.249   6.496   3.893
19550SOL    HW160483  13.160   6.485   3.926
19550SOL    HW260484  13.238   6.543   3.810
19551SOL     OW60485   4.208   1.515   7.658
19551SOL    HW160486   4.288   1.564   7.641
19551SOL    HW260487   4.199   1.458   7.581
19552SOL     OW60488  10.192  13.057   2.118
19552SOL    HW160489  10.159  12.973   2.084
19552SOL    HW260490  10.123  13.120   2.098
19553SOL     OW60491   1.507  11.732  14.071
19553SOL    HW160492   1.483  11.807  14.125
19553SOL    HW260493   1.427  11.708  14.025
19554SOL     OW60494  12.560  13.608   5.875
19554SOL    HW160495  12.560  13.634   5.783
19554SOL    HW260496  12.511  13.677   5.920
19555SOL     OW60497   1.745  12.890  10.874
19555SOL    HW160498   1.824  12.865  10.825
19555SOL    HW260499   1.778  12.925  10.956
19556SOL     OW60500   1.661   8.930   3.397
19556SOL    HW160501   1.687   9.022   3.401
19556SOL    HW260502   1.732   8.887   3.349
19557SOL     OW60503   5.077   6.469   4.785
19557SOL    HW160504   5.150   6.528   4.768
19557SOL    HW260505   5.117   6.384   4.801
19558SOL     OW60506   5.019   5.127  13.282
19558SOL    HW160507   5.011   5.213  13.323
19558SOL    HW260508   4.992   5.065  13.351
19559SOL     OW60509  13.864  11.067  14.774
19559SOL    HW160510  13.913  11.072  14.693
19559SOL    HW260511  13.849  10.973  14.787
19560SOL     OW60512   0.201   5.533  14.186
19560SOL    HW160513   0.230   5.441  14.192
19560SOL    HW260514   0.280   5.581  14.161
19561SOL     OW60515   4.103  10.008   0.227
19561SOL    HW160516   4.097  10.058   0.308
19561SOL    HW260517   4.030   9.946   0.231
19562SOL     OW60518   2.762   8.685   6.008
19562SOL    HW160519   2.777   8.627   5.934
19562SOL    HW260520   2.742   8.627   6.081
19563SOL     OW60521   5.554  10.690   8.653
19563SOL    HW160522   5.477  10.723   8.607
19563SOL    HW260523   5.600  10.769   8.682
19564SOL     OW60524   6.400   5.516   4.965
19564SOL    HW160525   6.405   5.461   5.043
19564SOL    HW260526   6.414   5.456   4.892
19565SOL     OW60527   0.831  10.034  13.455
19565SOL    HW160528   0.782  10.116  13.452
19565SOL    HW260529   0.867  10.024  13.368
19566SOL     OW60530   8.675  13.423   7.826
19566SOL    HW160531   8.759  13.429   7.871
19566SOL    HW260532   8.667  13.506   7.778
19567SOL     OW60533   1.075   5.205  11.642
19567SOL    HW160534   1.066   5.199  11.546
19567SOL    HW260535   1.017   5.137  11.676
19568SOL     OW60536   1.236   2.162   8.891
19568SOL    HW160537   1.325   2.198   8.891
19568SOL    HW260538   1.249   2.067   8.890
19569SOL     OW60539   5.122  10.175   9.561
19569SOL    HW160540   5.064  10.186   9.637
19569SOL    HW260541   5.197  10.232   9.580
19570SOL     OW60542   9.220   7.061  11.358
19570SOL    HW160543   9.127   7.055  11.336
19570SOL    HW260544   9.250   7.142  11.316
19571SOL     OW60545   7.773  14.798  14.169
19571SOL    HW160546   7.862  14.817  14.140
19571SOL    HW260547   7.769  14.833  14.259
19572SOL     OW60548  12.718   3.201  14.681
19572SOL    HW160549  12.765   3.118  14.676
19572SOL    HW260550  12.633   3.184  14.640
19573SOL     OW60551  11.387  11.648   8.460
19573SOL    HW160552  11.380  11.563   8.504
19573SOL    HW260553  11.363  11.630   8.369
19574SOL     OW60554   2.430   0.387  13.811
19574SOL    HW160555   2.362   0.394  13.878
19574SOL    HW260556   2.410   0.456  13.748
19575SOL     OW60557   5.107   8.659   5.007
19575SOL    HW160558   5.128   8.747   4.977
19575SOL    HW260559   5.117   8.663   5.103
19576SOL     OW60560   1.081   6.121  11.955
19576SOL    HW160561   1.002   6.071  11.936
19576SOL    HW260562   1.089   6.184  11.883
19577SOL     OW60563   9.283   8.591  14.072
19577SOL    HW160564   9.269   8.497  14.066
19577SOL    HW260565   9.355   8.601  14.133
19578SOL     OW60566   5.011  10.993   9.617
19578SOL    HW160567   5.105  10.975   9.612
19578SOL    HW260568   4.985  11.012   9.526
19579SOL     OW60569   3.348   2.584  13.658
19579SOL    HW160570   3.349   2.580  13.754
19579SOL    HW260571   3.260   2.552  13.634
19580SOL     OW60572  13.293   7.544  13.272
19580SOL    HW160573  13.271   7.636  13.253
19580SOL    HW260574  13.280   7.499  13.189
19581SOL     OW60575   8.507   1.234   7.611
19581SOL    HW160576   8.558   1.204   7.685
19581SOL    HW260577   8.517   1.329   7.611
19582SOL     OW60578   2.159  11.731   5.654
19582SOL    HW160579   2.119  11.681   5.725
19582SOL    HW260580   2.084  11.768   5.607
19583SOL     OW60581  13.427  10.701   8.799
19583SOL    HW160582  13.459  10.622   8.842
19583SOL    HW260583  13.411  10.674   8.709
19584SOL     OW60584   9.792  14.298   4.689
19584SOL    HW160585   9.817  14.374   4.743
19584SOL    HW260586   9.762  14.233   4.752
19585SOL     OW60587  11.959   1.220   7.883
19585SOL    HW160588  11.997   1.239   7.798
19585SOL    HW260589  11.892   1.287   7.895
19586SOL     OW60590  11.066   5.194   4.019
19586SOL    HW160591  11.132   5.257   4.046
19586SOL    HW260592  11.062   5.131   4.092
19587SOL     OW60593  13.145   7.170   3.944
19587SOL    HW160594  13.092   7.172   3.865
19587SOL    HW260595  13.099   7.228   4.005
19588SOL     OW60596  12.683   6.423   9.885
19588SOL    HW160597  12.656   6.339   9.922
19588SOL    HW260598  12.778   6.423   9.892
19589SOL     OW60599   1.378  10.428   9.214
19589SOL    HW160600   1.427  10.358   9.256
19589SOL    HW260601   1.399  10.507   9.264
19590SOL     OW60602   7.181   0.736  10.464
19590SOL    HW160603   7.252   0.673  10.476
19590SOL    HW260604   7.184   0.758  10.371
19591SOL     OW60605   1.530   8.735   0.236
19591SOL    HW160606   1.544   8.705   0.326
19591SOL    HW260607   1.436   8.729   0.223
19592SOL     OW60608   7.273  10.826  11.753
19592SOL    HW160609   7.294  10.920  11.745
19592SOL    HW260610   7.348  10.782  11.713
19593SOL     OW60611   4.289  13.450   1.791
19593SOL    HW160612   4.241  13.386   1.739
19593SOL    HW260613   4.308  13.405   1.873
19594SOL     OW60614   3.372   2.127   0.641
19594SOL    HW160615   3.467   2.126   0.653
19594SOL    HW260616   3.338   2.159   0.724
19595SOL     OW60617   6.329   0.546  13.327
19595SOL    HW160618   6.335   0.637  13.353
19595SOL    HW260619   6.247   0.541  13.277
19596SOL     OW60620  14.833   3.892   9.124
19596SOL    HW160621   0.016   3.819   9.122
19596SOL    HW260622  14.829   3.918   9.216
19597SOL     OW60623   1.540   4.567  10.114
19597SOL    HW160624   1.565   4.625  10.186
19597SOL    HW260625   1.463   4.520  10.146
19598SOL     OW60626  14.374  14.086   0.734
19598SOL    HW160627  14.337  14.077   0.646
19598SOL    HW260628  14.350  14.004   0.778
19599SOL     OW60629   0.043  14.422   5.266
19599SOL    HW160630   0.083  14.365   5.330
19599SOL    HW260631  14.852  14.466   5.314
19600SOL     OW60632   8.953   9.472  13.147
19600SOL    HW160633   8.858   9.469  13.150
19600SOL    HW260634   8.974   9.532  13.076
19601SOL     OW60635   5.968  12.539   3.718
19601SOL    HW160636   5.961  12.443   3.718
19601SOL    HW260637   5.986  12.562   3.627
19602SOL     OW60638   0.041   9.532   5.892
19602SOL    HW160639   0.078   9.474   5.825
19602SOL    HW260640   0.116   9.581   5.925
19603SOL     OW60641   1.912  13.281   7.990
19603SOL    HW160642   1.884  13.337   7.917
19603SOL    HW260643   1.976  13.222   7.951
19604SOL     OW60644   3.975  13.470  13.734
19604SOL    HW160645   3.909  13.504  13.675
19604SOL    HW260646   3.956  13.377  13.741
19605SOL     OW60647   9.677  10.055   2.602
19605SOL    HW160648   9.736   9.996   2.556
19605SOL    HW260649   9.632  10.000   2.666
19606SOL     OW60650   7.407   1.651   2.458
19606SOL    HW160651   7.397   1.563   2.495
19606SOL    HW260652   7.369   1.645   2.370
19607SOL     OW60653  13.015   3.018   0.603
19607SOL    HW160654  12.943   3.054   0.551
19607SOL    HW260655  12.990   3.034   0.694
19608SOL     OW60656   3.665   5.355   7.382
19608SOL    HW160657   3.716   5.417   7.434
19608SOL    HW260658   3.662   5.275   7.434
19609SOL     OW60659   3.731   0.683   6.391
19609SOL    HW160660   3.775   0.714   6.312
19609SOL    HW260661   3.691   0.600   6.366
19610SOL     OW60662   9.145   3.793  11.460
19610SOL    HW160663   9.240   3.798  11.447
19610SOL    HW260664   9.111   3.768  11.374
19611SOL     OW60665   9.364  10.801   8.337
19611SOL    HW160666   9.404  10.816   8.423
19611SOL    HW260667   9.269  10.805   8.354
19612SOL     OW60668  14.053  11.537  14.854
19612SOL    HW160669  14.123  11.597  14.827
19612SOL    HW260670  14.026  11.569   0.062
19613SOL     OW60671   7.851   2.402  12.727
19613SOL    HW160672   7.757   2.388  12.713
19613SOL    HW260673   7.855   2.462  12.801
19614SOL     OW60674   7.131  14.244  14.079
19614SOL    HW160675   7.206  14.300  14.100
19614SOL    HW260676   7.092  14.224  14.164
19615SOL     OW60677  13.306   0.670   2.475
19615SOL    HW160678  13.321   0.652   2.568
19615SOL    HW260679  13.223   0.626   2.455
19616SOL     OW60680  11.044   4.611   9.713
19616SOL    HW160681  10.997   4.690   9.689
19616SOL    HW260682  11.084   4.631   9.798
19617SOL     OW60683   9.332   0.202   3.472
19617SOL    HW160684   9.308   0.282   3.425
19617SOL    HW260685   9.274   0.201   3.548
19618SOL     OW60686   9.258   1.302   5.272
19618SOL    HW160687   9.169   1.311   5.238
19618SOL    HW260688   9.261   1.361   5.347
19619SOL     OW60689  14.033  13.429  14.450
19619SOL    HW160690  14.059  13.486  14.523
19619SOL    HW260691  13.944  13.403  14.471
19620SOL     OW60692   1.904   9.161   1.323
19620SOL    HW160693   1.931   9.072   1.302
19620SOL    HW260694   1.897   9.163   1.418
19621SOL     OW60695   0.134   3.589  14.779
19621SOL    HW160696   0.177   3.603  14.863
19621SOL    HW260697   0.101   3.675  14.753
19622SOL     OW60698  14.312   4.207   0.514
19622SOL    HW160699  14.235   4.151   0.521
19622SOL    HW260700  14.301   4.272   0.583
19623SOL     OW60701  14.687   4.707  11.698
19623SOL    HW160702  14.605   4.718  11.746
19623SOL    HW260703  14.690   4.614  11.678
19624SOL     OW60704   3.990  11.302  12.597
19624SOL    HW160705   4.003  11.329  12.688
19624SOL    HW260706   4.004  11.207  12.598
19625SOL     OW60707   4.992  10.441   6.953
19625SOL    HW160708   5.064  10.499   6.930
19625SOL    HW260709   4.999  10.369   6.890
19626SOL     OW60710   5.911  12.064   6.216
19626SOL    HW160711   5.930  12.156   6.233
19626SOL    HW260712   5.988  12.017   6.248
19627SOL     OW60713  12.755  11.732   1.260
19627SOL    HW160714  12.673  11.682   1.261
19627SOL    HW260715  12.821  11.669   1.289
19628SOL     OW60716   2.727  11.186  10.014
19628SOL    HW160717   2.704  11.233   9.934
19628SOL    HW260718   2.773  11.250  10.068
19629SOL     OW60719  12.842   9.088   4.273
19629SOL    HW160720  12.898   9.015   4.249
19629SOL    HW260721  12.867   9.158   4.213
19630SOL     OW60722   2.163  10.944  10.081
19630SOL    HW160723   2.253  10.913  10.077
19630SOL    HW260724   2.170  11.036  10.106
19631SOL     OW60725   4.992  11.339   0.230
19631SOL    HW160726   5.063  11.297   0.182
19631SOL    HW260727   4.913  11.293   0.202
19632SOL     OW60728   5.845   0.674   6.624
19632SOL    HW160729   5.775   0.735   6.649
19632SOL    HW260730   5.922   0.729   6.612
19633SOL     OW60731  10.243   2.204  11.309
19633SOL    HW160732  10.174   2.268  11.292
19633SOL    HW260733  10.197   2.121  11.324
19634SOL     OW60734   5.790  12.554   8.999
19634SOL    HW160735   5.783  12.567   8.904
19634SOL    HW260736   5.699  12.550   9.029
19635SOL     OW60737  13.529  12.232  13.814
19635SOL    HW160738  13.455  12.188  13.855
19635SOL    HW260739  13.549  12.178  13.737
19636SOL     OW60740   7.944   5.607   7.895
19636SOL    HW160741   7.888   5.573   7.965
19636SOL    HW260742   7.912   5.564   7.816
19637SOL     OW60743   8.705  13.968   7.217
19637SOL    HW160744   8.753  14.008   7.289
19637SOL    HW260745   8.692  13.877   7.243
19638SOL     OW60746   4.788   0.517   6.878
19638SOL    HW160747   4.875   0.534   6.842
19638SOL    HW260748   4.729   0.570   6.824
19639SOL     OW60749  13.366   1.743   5.145
19639SOL    HW160750  13.445   1.690   5.156
19639SOL    HW260751  13.358   1.754   5.050
19640SOL     OW60752  12.085  10.561   3.398
19640SOL    HW160753  12.067  10.471   3.423
19640SOL    HW260754  12.099  10.607   3.481
19641SOL     OW60755  12.630   1.789   0.111
19641SOL    HW160756  12.669   1.704   0.092
19641SOL    HW260757  12.685   1.827   0.179
19642SOL     OW60758  10.004   3.400   7.034
19642SOL    HW160759  10.032   3.491   7.044
19642SOL    HW260760  10.069   3.350   7.083
19643SOL     OW60761  12.231  10.900  13.905
19643SOL    HW160762  12.208  10.818  13.949
19643SOL    HW260763  12.246  10.875  13.814
19644SOL     OW60764   4.357  11.719   2.795
19644SOL    HW160765   4.425  11.657   2.819
19644SOL    HW260766   4.326  11.690   2.709
19645SOL     OW60767   2.188   1.269   6.069
19645SOL    HW160768   2.276   1.305   6.059
19645SOL    HW260769   2.187   1.191   6.012
19646SOL     OW60770  14.455  13.300   2.903
19646SOL    HW160771  14.532  13.263   2.860
19646SOL    HW260772  14.386  13.295   2.837
19647SOL     OW60773   7.737   4.887   6.697
19647SOL    HW160774   7.726   4.972   6.740
19647SOL    HW260775   7.767   4.828   6.766
19648SOL     OW60776  12.766   3.978   1.657
19648SOL    HW160777  12.789   3.941   1.742
19648SOL    HW260778  12.690   4.033   1.674
19649SOL     OW60779  13.608   3.948   2.755
19649SOL    HW160780  13.539   3.932   2.691
19649SOL    HW260781  13.651   3.863   2.765
19650SOL     OW60782   0.888  14.474  13.467
19650SOL    HW160783   0.832  14.426  13.406
19650SOL    HW260784   0.944  14.529  13.412
19651SOL     OW60785  14.647   5.558   8.248
19651SOL    HW160786  14.690   5.629   8.201
19651SOL    HW260787  14.561   5.550   8.207
19652SOL     OW60788   3.994   3.586   9.961
19652SOL    HW160789   4.049   3.563   9.885
19652SOL    HW260790   4.005   3.513  10.021
19653SOL     OW60791   1.059  13.843  13.023
19653SOL    HW160792   1.039  13.807  12.937
19653SOL    HW260793   1.045  13.770  13.084
19654SOL     OW60794  11.844   3.166   9.464
19654SOL    HW160795  11.831   3.195   9.373
19654SOL    HW260796  11.793   3.227   9.516
19655SOL     OW60797  10.852  12.556  14.391
19655SOL    HW160798  10.852  12.465  14.361
19655SOL    HW260799  10.786  12.558  14.461
19656SOL     OW60800  11.420   3.861  11.584
19656SOL    HW160801  11.448   3.944  11.546
19656SOL    HW260802  11.335   3.844  11.543
19657SOL     OW60803  12.023  10.862   1.675
19657SOL    HW160804  11.942  10.910   1.659
19657SOL    HW260805  12.010  10.820   1.760
19658SOL     OW60806   0.335   5.080  11.044
19658SOL    HW160807   0.309   5.041  10.961
19658SOL    HW260808   0.268   5.052  11.107
19659SOL     OW60809   1.210   2.408   2.302
19659SOL    HW160810   1.255   2.400   2.218
19659SOL    HW260811   1.117   2.413   2.279
19660SOL     OW60812  13.309   1.143   8.863
19660SOL    HW160813  13.296   1.061   8.816
19660SOL    HW260814  13.301   1.119   8.955
19661SOL     OW60815   7.271  12.111  13.996
19661SOL    HW160816   7.208  12.062  13.944
19661SOL    HW260817   7.247  12.093  14.087
19662SOL     OW60818   8.497  12.003   0.952
19662SOL    HW160819   8.500  12.081   1.007
19662SOL    HW260820   8.539  12.029   0.870
19663SOL     OW60821   5.874   0.667  13.116
19663SOL    HW160822   5.808   0.650  13.048
19663SOL    HW260823   5.845   0.749  13.156
19664SOL     OW60824  10.043   8.178   9.999
19664SOL    HW160825  10.121   8.130  10.027
19664SOL    HW260826   9.974   8.112   9.994
19665SOL     OW60827  12.636   8.766   5.463
19665SOL    HW160828  12.688   8.743   5.386
19665SOL    HW260829  12.632   8.861   5.462
19666SOL     OW60830   7.073  10.036   8.974
19666SOL    HW160831   7.079  10.084   9.057
19666SOL    HW260832   6.980  10.018   8.964
19667SOL     OW60833  10.102   4.979   5.622
19667SOL    HW160834  10.190   4.961   5.590
19667SOL    HW260835  10.078   5.062   5.580
19668SOL     OW60836   9.472   8.993   4.576
19668SOL    HW160837   9.459   8.945   4.658
19668SOL    HW260838   9.564   8.978   4.553
19669SOL     OW60839   6.970   9.881   5.143
19669SOL    HW160840   6.974   9.971   5.175
19669SOL    HW260841   6.921   9.887   5.061
19670SOL     OW60842  10.539   9.104  13.778
19670SOL    HW160843  10.536   9.083  13.684
19670SOL    HW260844  10.512   9.023  13.822
19671SOL     OW60845   4.056   7.280  14.483
19671SOL    HW160846   3.968   7.313  14.498
19671SOL    HW260847   4.090   7.262  14.571
19672SOL     OW60848   5.361  10.850   7.357
19672SOL    HW160849   5.266  10.853   7.342
19672SOL    HW260850   5.395  10.797   7.285
19673SOL     OW60851   2.818   3.495   4.791
19673SOL    HW160852   2.799   3.435   4.863
19673SOL    HW260853   2.790   3.581   4.824
19674SOL     OW60854   1.725   0.733   5.914
19674SOL    HW160855   1.686   0.722   6.001
19674SOL    HW260856   1.703   0.823   5.890
19675SOL     OW60857   4.671  10.453  11.127
19675SOL    HW160858   4.643  10.438  11.218
19675SOL    HW260859   4.730  10.381  11.108
19676SOL     OW60860   2.588   2.413  10.823
19676SOL    HW160861   2.514   2.465  10.794
19676SOL    HW260862   2.661   2.475  10.826
19677SOL     OW60863   9.583   3.268   2.512
19677SOL    HW160864   9.676   3.278   2.533
19677SOL    HW260865   9.542   3.252   2.597
19678SOL     OW60866  10.751  14.044   4.274
19678SOL    HW160867  10.774  13.993   4.351
19678SOL    HW260868  10.805  14.123   4.281
19679SOL     OW60869   7.478   5.724  13.347
19679SOL    HW160870   7.419   5.690  13.280
19679SOL    HW260871   7.530   5.648  13.373
19680SOL     OW60872   1.276   7.210  13.453
19680SOL    HW160873   1.243   7.194  13.541
19680SOL    HW260874   1.370   7.190  13.458
19681SOL     OW60875   2.303   6.121  11.827
19681SOL    HW160876   2.370   6.168  11.877
19681SOL    HW260877   2.289   6.040  11.875
19682SOL     OW60878   4.837   1.944   9.740
19682SOL    HW160879   4.757   1.966   9.693
19682SOL    HW260880   4.908   1.966   9.680
19683SOL     OW60881   2.447   9.951   7.304
19683SOL    HW160882   2.472  10.027   7.357
19683SOL    HW260883   2.514   9.945   7.237
19684SOL     OW60884  10.010   1.159   0.197
19684SOL    HW160885  10.001   1.169   0.292
19684SOL    HW260886  10.101   1.130   0.184
19685SOL     OW60887   7.190   6.503  14.586
19685SOL    HW160888   7.205   6.415  14.551
19685SOL    HW260889   7.274   6.548  14.574
19686SOL     OW60890  12.369   5.562  11.583
19686SOL    HW160891  12.278   5.537  11.567
19686SOL    HW260892  12.398   5.601  11.500
19687SOL     OW60893   9.912   4.015   1.276
19687SOL    HW160894   9.879   4.067   1.349
19687SOL    HW260895   9.929   3.928   1.314
19688SOL     OW60896  14.383   8.449   9.888
19688SOL    HW160897  14.399   8.385   9.959
19688SOL    HW260898  14.374   8.395   9.810
19689SOL     OW60899   7.137  11.742   7.363
19689SOL    HW160900   7.174  11.801   7.429
19689SOL    HW260901   7.205  11.735   7.296
19690SOL     OW60902   6.150   9.729   9.665
19690SOL    HW160903   6.105   9.666   9.609
19690SOL    HW260904   6.155   9.809   9.612
19691SOL     OW60905   3.842  11.961   5.202
19691SOL    HW160906   3.763  11.907   5.201
19691SOL    HW260907   3.871  11.964   5.110
19692SOL     OW60908  12.784   8.813   9.422
19692SOL    HW160909  12.863   8.788   9.471
19692SOL    HW260910  12.712   8.791   9.481
19693SOL     OW60911   2.220  11.216  13.502
19693SOL    HW160912   2.167  11.269  13.442
19693SOL    HW260913   2.298  11.269  13.518
19694SOL     OW60914   2.356   5.828   3.948
19694SOL    HW160915   2.356   5.816   4.043
19694SOL    HW260916   2.268   5.861   3.928
19695SOL     OW60917   2.991  10.872  12.246
19695SOL    HW160918   2.919  10.809  12.244
19695SOL    HW260919   2.996  10.905  12.156
19696SOL     OW60920   6.683   4.151   1.268
19696SOL    HW160921   6.720   4.080   1.216
19696SOL    HW260922   6.733   4.228   1.242
19697SOL     OW60923   6.847  14.374  10.989
19697SOL    HW160924   6.771  14.338  11.035
19697SOL    HW260925   6.816  14.388  10.900
19698SOL     OW60926   8.626   0.837   2.857
19698SOL    HW160927   8.580   0.843   2.773
19698SOL    HW260928   8.672   0.753   2.853
19699SOL     OW60929   8.530  11.881   0.613
19699SOL    HW160930   8.585  11.926   0.677
19699SOL    HW260931   8.522  11.942   0.540
19700SOL     OW60932   0.483   6.966  11.540
19700SOL    HW160933   0.418   6.998  11.602
19700SOL    HW260934   0.560   7.019  11.556
19701SOL     OW60935   2.485   6.270   6.634
19701SOL    HW160936   2.481   6.238   6.724
19701SOL    HW260937   2.486   6.366   6.644
19702SOL     OW60938   4.338   1.047   1.925
19702SOL    HW160939   4.427   1.045   1.891
19702SOL    HW260940   4.344   1.006   2.011
19703SOL     OW60941  10.370  12.467   3.260
19703SOL    HW160942  10.415  12.497   3.338
19703SOL    HW260943  10.282  12.443   3.291
19704SOL     OW60944  12.702  14.355   5.131
19704SOL    HW160945  12.711  14.298   5.208
19704SOL    HW260946  12.616  14.395   5.140
19705SOL     OW60947   0.321  10.005  11.383
19705SOL    HW160948   0.357  10.002  11.294
19705SOL    HW260949   0.273   9.923  11.392
19706SOL     OW60950   3.934  11.124   1.015
19706SOL    HW160951   3.916  11.115   1.109
19706SOL    HW260952   3.912  11.039   0.978
19707SOL     OW60953  13.927   3.698   1.726
19707SOL    HW160954  13.851   3.709   1.782
19707SOL    HW260955  13.973   3.622   1.763
19708SOL     OW60956   7.263   4.747   2.105
19708SOL    HW160957   7.321   4.768   2.178
19708SOL    HW260958   7.188   4.806   2.116
19709SOL     OW60959   3.143   0.982   3.389
19709SOL    HW160960   3.165   0.974   3.296
19709SOL    HW260961   3.048   0.992   3.391
19710SOL     OW60962   3.231   0.783   8.505
19710SOL    HW160963   3.142   0.756   8.481
19710SOL    HW260964   3.223   0.816   8.594
19711SOL     OW60965  13.201   9.161  14.079
19711SOL    HW160966  13.119   9.112  14.072
19711SOL    HW260967  13.231   9.144  14.169
19712SOL     OW60968  13.684   8.378   0.345
19712SOL    HW160969  13.603   8.411   0.307
19712SOL    HW260970  13.753   8.431   0.306
19713SOL     OW60971   9.387   1.238   8.953
19713SOL    HW160972   9.309   1.183   8.947
19713SOL    HW260973   9.402   1.269   8.864
19714SOL     OW60974  14.508   2.560   7.093
19714SOL    HW160975  14.556   2.640   7.117
19714SOL    HW260976  14.450   2.544   7.168
19715SOL     OW60977   7.478  14.683   5.689
19715SOL    HW160978   7.437  14.731   5.761
19715SOL    HW260979   7.546  14.741   5.656
19716SOL     OW60980   4.881   9.944   3.356
19716SOL    HW160981   4.967   9.908   3.334
19716SOL    HW260982   4.820   9.890   3.306
19717SOL     OW60983  10.597  11.804   6.667
19717SOL    HW160984  10.564  11.726   6.712
19717SOL    HW260985  10.533  11.821   6.599
19718SOL     OW60986   6.559  14.557  10.816
19718SOL    HW160987   6.638  14.520  10.778
19718SOL    HW260988   6.488  14.527  10.758
19719SOL     OW60989   6.909  13.547   3.864
19719SOL    HW160990   6.836  13.600   3.833
19719SOL    HW260991   6.870  13.461   3.883
19720SOL     OW60992   3.357   9.687   8.320
19720SOL    HW160993   3.402   9.671   8.403
19720SOL    HW260994   3.424   9.670   8.253
19721SOL     OW60995  11.555   6.792   4.107
19721SOL    HW160996  11.563   6.872   4.055
19721SOL    HW260997  11.494   6.815   4.177
19722SOL     OW60998  12.356   3.634  10.977
19722SOL    HW160999  12.423   3.635  10.908
19722SOL    HW261000  12.273   3.625  10.931
19723SOL     OW61001   6.783   8.944   9.404
19723SOL    HW161002   6.870   8.905   9.394
19723SOL    HW261003   6.792   9.032   9.366
19724SOL     OW61004  11.475  11.404   8.902
19724SOL    HW161005  11.505  11.313   8.901
19724SOL    HW261006  11.540  11.450   8.955
19725SOL     OW61007  10.397  11.475  10.474
19725SOL    HW161008  10.449  11.395  10.476
19725SOL    HW261009  10.327  11.460  10.537
19726SOL     OW61010  13.863   4.874   6.380
19726SOL    HW161011  13.859   4.902   6.472
19726SOL    HW261012  13.855   4.778   6.384
19727SOL     OW61013   1.311   6.131   0.982
19727SOL    HW161014   1.368   6.093   1.048
19727SOL    HW261015   1.289   6.058   0.924
19728SOL     OW61016   7.625   9.915   8.348
19728SOL    HW161017   7.638   9.827   8.315
19728SOL    HW261018   7.696   9.966   8.309
19729SOL     OW61019   1.343  13.800   0.031
19729SOL    HW161020   1.386  13.767  14.831
19729SOL    HW261021   1.383  13.749   0.102
19730SOL     OW61022  10.120   6.266   1.406
19730SOL    HW161023  10.074   6.343   1.439
19730SOL    HW261024  10.190   6.251   1.469
19731SOL     OW61025   0.598  14.095  12.603
19731SOL    HW161026   0.644  14.179  12.603
19731SOL    HW261027   0.622  14.054  12.520
19732SOL     OW61028  13.927  12.992  14.043
19732SOL    HW161029  14.018  12.966  14.055
19732SOL    HW261030  13.890  12.925  13.986
19733SOL     OW61031  11.291  14.621   7.351
19733SOL    HW161032  11.251  14.642   7.435
19733SOL    HW261033  11.258  14.689   7.292
19734SOL     OW61034   9.405   7.861   3.962
19734SOL    HW161035   9.330   7.814   3.925
19734SOL    HW261036   9.476   7.847   3.900
19735SOL     OW61037  13.236   7.151  11.753
19735SOL    HW161038  13.325   7.143  11.720
19735SOL    HW261039  13.229   7.084  11.821
19736SOL     OW61040   3.963   8.287   3.127
19736SOL    HW161041   3.924   8.311   3.211
19736SOL    HW261042   3.890   8.249   3.077
19737SOL     OW61043   1.561  14.797   5.960
19737SOL    HW161044   1.559  14.795   5.864
19737SOL    HW261045   1.654  14.801   5.982
19738SOL     OW61046   8.506   9.392  10.435
19738SOL    HW161047   8.573   9.333  10.399
19738SOL    HW261048   8.488   9.357  10.522
19739SOL     OW61049  12.559  10.669   9.206
19739SOL    HW161050  12.554  10.607   9.133
19739SOL    HW261051  12.523  10.750   9.170
19740SOL     OW61052  11.704   6.709  11.392
19740SOL    HW161053  11.616   6.715  11.352
19740SOL    HW261054  11.763   6.733  11.321
19741SOL     OW61055  11.032   1.526   1.584
19741SOL    HW161056  11.053   1.437   1.556
19741SOL    HW261057  11.107   1.578   1.556
19742SOL     OW61058   2.555   4.896  10.301
19742SOL    HW161059   2.610   4.818  10.301
19742SOL    HW261060   2.521   4.902  10.390
19743SOL     OW61061  11.037   3.486   7.960
19743SOL    HW161062  11.128   3.458   7.951
19743SOL    HW261063  11.030   3.518   8.050
19744SOL     OW61064   3.168   6.580  13.937
19744SOL    HW161065   3.101   6.648  13.935
19744SOL    HW261066   3.159   6.536  13.852
19745SOL     OW61067   0.820  12.782  11.200
19745SOL    HW161068   0.880  12.733  11.144
19745SOL    HW261069   0.742  12.795  11.146
19746SOL     OW61070   7.028   8.165   2.530
19746SOL    HW161071   7.000   8.126   2.612
19746SOL    HW261072   6.983   8.250   2.527
19747SOL     OW61073  13.157  12.543   8.640
19747SOL    HW161074  13.143  12.610   8.706
19747SOL    HW261075  13.232  12.573   8.590
19748SOL     OW61076   5.302   8.698  14.175
19748SOL    HW161077   5.311   8.767  14.109
19748SOL    HW261078   5.321   8.741  14.258
19749SOL     OW61079  11.795  11.605   3.914
19749SOL    HW161080  11.882  11.644   3.912
19749SOL    HW261081  11.737  11.677   3.940
19750SOL     OW61082   4.417   8.274   4.237
19750SOL    HW161083   4.364   8.352   4.218
19750SOL    HW261084   4.499   8.309   4.271
19751SOL     OW61085  13.785   5.104  10.169
19751SOL    HW161086  13.825   5.110  10.256
19751SOL    HW261087  13.832   5.169  10.117
19752SOL     OW61088  10.686   8.837   9.179
19752SOL    HW161089  10.625   8.911   9.183
19752SOL    HW261090  10.662   8.790   9.099
19753SOL     OW61091   7.891   2.482  10.455
19753SOL    HW161092   7.952   2.552  10.477
19753SOL    HW261093   7.858   2.452  10.540
19754SOL     OW61094  14.689  13.157   9.018
19754SOL    HW161095  14.760  13.221   9.016
19754SOL    HW261096  14.640  13.178   9.097
19755SOL     OW61097   3.921  11.470   6.882
19755SOL    HW161098   3.928  11.512   6.796
19755SOL    HW261099   3.862  11.396   6.869
19756SOL     OW61100   2.443   2.335  13.363
19756SOL    HW161101   2.508   2.392  13.406
19756SOL    HW261102   2.491   2.294  13.291
19757SOL     OW61103   8.155   9.263   8.811
19757SOL    HW161104   8.202   9.260   8.894
19757SOL    HW261105   8.067   9.294   8.834
19758SOL     OW61106   7.277   8.814   9.022
19758SOL    HW161107   7.297   8.757   9.096
19758SOL    HW261108   7.182   8.817   9.018
19759SOL     OW61109   2.263  13.690   2.576
19759SOL    HW161110   2.274  13.651   2.662
19759SOL    HW261111   2.342  13.665   2.528
19760SOL     OW61112  12.860   5.353   2.601
19760SOL    HW161113  12.912   5.362   2.522
19760SOL    HW261114  12.899   5.415   2.663
19761SOL     OW61115   2.759  13.871   5.111
19761SOL    HW161116   2.664  13.882   5.120
19761SOL    HW261117   2.776  13.783   5.145
19762SOL     OW61118  13.879  12.256   4.243
19762SOL    HW161119  13.817  12.221   4.179
19762SOL    HW261120  13.937  12.183   4.264
19763SOL     OW61121   1.540   8.184   0.202
19763SOL    HW161122   1.599   8.128   0.151
19763SOL    HW261123   1.499   8.241   0.138
19764SOL     OW61124  10.537   6.023   3.555
19764SOL    HW161125  10.615   5.972   3.578
19764SOL    HW261126  10.468   5.958   3.547
19765SOL     OW61127   3.186   2.754   5.856
19765SOL    HW161128   3.280   2.764   5.839
19765SOL    HW261129   3.152   2.844   5.856
19766SOL     OW61130   8.456   6.704   9.884
19766SOL    HW161131   8.373   6.655   9.886
19766SOL    HW261132   8.495   6.680   9.800
19767SOL     OW61133   6.054   3.185  11.262
19767SOL    HW161134   6.130   3.161  11.314
19767SOL    HW261135   6.089   3.203  11.175
19768SOL     OW61136   2.686   4.841   5.951
19768SOL    HW161137   2.730   4.758   5.970
19768SOL    HW261138   2.652   4.829   5.862
19769SOL     OW61139   8.982   4.394  10.092
19769SOL    HW161140   9.072   4.424  10.088
19769SOL    HW261141   8.933   4.456  10.037
19770SOL     OW61142   1.271   9.422   2.625
19770SOL    HW161143   1.257   9.517   2.620
19770SOL    HW261144   1.183   9.385   2.620
19771SOL     OW61145   2.976   2.417   9.809
19771SOL    HW161146   2.890   2.442   9.844
19771SOL    HW261147   3.037   2.482   9.844
19772SOL     OW61148   2.019  10.608   4.169
19772SOL    HW161149   1.958  10.634   4.100
19772SOL    HW261150   1.968  10.613   4.250
19773SOL     OW61151   0.408   7.117  10.972
19773SOL    HW161152   0.428   7.128  11.065
19773SOL    HW261153   0.475   7.169  10.927
19774SOL     OW61154   4.906   8.329  14.632
19774SOL    HW161155   4.838   8.373  14.579
19774SOL    HW261156   4.988   8.362  14.598
19775SOL     OW61157   3.657  12.270   2.013
19775SOL    HW161158   3.578  12.237   2.055
19775SOL    HW261159   3.716  12.195   2.009
19776SOL     OW61160   0.126   0.680   1.327
19776SOL    HW161161   0.201   0.633   1.292
19776SOL    HW261162   0.150   0.772   1.323
19777SOL     OW61163   1.354  13.808   8.110
19777SOL    HW161164   1.287  13.744   8.086
19777SOL    HW261165   1.385  13.844   8.026
19778SOL     OW61166  14.261  10.054   6.314
19778SOL    HW161167  14.336  10.073   6.370
19778SOL    HW261168  14.219   9.978   6.353
19779SOL     OW61169   6.467   2.938   2.744
19779SOL    HW161170   6.556   2.962   2.767
19779SOL    HW261171   6.442   2.871   2.808
19780SOL     OW61172  13.388  13.937   4.728
19780SOL    HW161173  13.301  13.930   4.690
19780SOL    HW261174  13.437  13.993   4.667
19781SOL     OW61175   0.868   1.905   6.362
19781SOL    HW161176   0.896   1.825   6.318
19781SOL    HW261177   0.947   1.940   6.402
19782SOL     OW61178   6.280  12.932   6.332
19782SOL    HW161179   6.195  12.956   6.296
19782SOL    HW261180   6.259  12.887   6.414
19783SOL     OW61181  11.729  10.802  11.825
19783SOL    HW161182  11.805  10.831  11.774
19783SOL    HW261183  11.672  10.759  11.760
19784SOL     OW61184  12.755  14.711   5.085
19784SOL    HW161185  12.678  14.767   5.086
19784SOL    HW261186  12.820  14.759   5.137
19785SOL     OW61187   5.692   1.476  12.918
19785SOL    HW161188   5.788   1.479  12.910
19785SOL    HW261189   5.669   1.388  12.891
19786SOL     OW61190  12.914   7.945   5.609
19786SOL    HW161191  12.842   7.932   5.548
19786SOL    HW261192  12.899   8.031   5.647
19787SOL     OW61193  14.375   8.993   1.105
19787SOL    HW161194  14.471   8.990   1.108
19787SOL    HW261195  14.354   8.962   1.017
19788SOL     OW61196  12.075   5.496   6.617
19788SOL    HW161197  11.989   5.536   6.628
19788SOL    HW261198  12.136   5.570   6.613
19789SOL     OW61199  10.347   7.174   5.142
19789SOL    HW161200  10.361   7.095   5.194
19789SOL    HW261201  10.435   7.210   5.129
19790SOL     OW61202  12.246   1.421   0.667
19790SOL    HW161203  12.262   1.339   0.620
19790SOL    HW261204  12.254   1.489   0.600
19791SOL     OW61205   2.242   7.023   3.607
19791SOL    HW161206   2.315   7.072   3.569
19791SOL    HW261207   2.187   7.090   3.649
19792SOL     OW61208   1.949   2.359   4.724
19792SOL    HW161209   2.034   2.396   4.702
19792SOL    HW261210   1.968   2.295   4.793
19793SOL     OW61211   5.644   7.542   1.370
19793SOL    HW161212   5.579   7.475   1.394
19793SOL    HW261213   5.725   7.493   1.357
19794SOL     OW61214   6.560  12.564   9.078
19794SOL    HW161215   6.531  12.651   9.048
19794SOL    HW261216   6.532  12.505   9.008
19795SOL     OW61217   3.475   9.184  10.619
19795SOL    HW161218   3.530   9.108  10.636
19795SOL    HW261219   3.404   9.178  10.683
19796SOL     OW61220   8.596   1.335   0.076
19796SOL    HW161221   8.572   1.254   0.121
19796SOL    HW261222   8.513   1.376   0.053
19797SOL     OW61223   2.894   6.430  13.767
19797SOL    HW161224   2.851   6.501  13.814
19797SOL    HW261225   2.970   6.471  13.726
19798SOL     OW61226  14.131   9.819  10.618
19798SOL    HW161227  14.042   9.791  10.594
19798SOL    HW261228  14.174   9.739  10.648
19799SOL     OW61229   1.469   1.697   4.890
19799SOL    HW161230   1.558   1.671   4.865
19799SOL    HW261231   1.414   1.626   4.857
19800SOL     OW61232  10.005   5.442   4.573
19800SOL    HW161233   9.915   5.412   4.562
19800SOL    HW261234  10.034   5.465   4.485
19801SOL     OW61235  13.312   1.948  11.331
19801SOL    HW161236  13.333   1.868  11.281
19801SOL    HW261237  13.306   1.918  11.421
19802SOL     OW61238   8.917  12.448   6.630
19802SOL    HW161239   9.003  12.482   6.605
19802SOL    HW261240   8.919  12.356   6.603
19803SOL     OW61241   8.997   9.091  14.735
19803SOL    HW161242   8.936   9.068  14.665
19803SOL    HW261243   8.969   9.178  14.764
19804SOL     OW61244   7.515  10.333   0.332
19804SOL    HW161245   7.444  10.284   0.292
19804SOL    HW261246   7.512  10.419   0.290
19805SOL     OW61247   3.111   4.779   6.035
19805SOL    HW161248   3.016   4.770   6.044
19805SOL    HW261249   3.146   4.696   6.067
19806SOL     OW61250   9.120   0.345   2.619
19806SOL    HW161251   9.051   0.380   2.677
19806SOL    HW261252   9.076   0.276   2.569
19807SOL     OW61253   9.660   3.145  13.828
19807SOL    HW161254   9.667   3.087  13.904
19807SOL    HW261255   9.670   3.233  13.864
19808SOL     OW61256   5.768  10.805   9.867
19808SOL    HW161257   5.817  10.747   9.808
19808SOL    HW261258   5.772  10.762   9.952
19809SOL     OW61259  10.327  13.787   1.845
19809SOL    HW161260  10.245  13.799   1.893
19809SOL    HW261261  10.312  13.708   1.793
19810SOL     OW61262  13.678  12.040   3.760
19810SOL    HW161263  13.690  12.004   3.672
19810SOL    HW261264  13.587  12.020   3.782
19811SOL     OW61265  13.330   2.690   8.660
19811SOL    HW161266  13.357   2.696   8.568
19811SOL    HW261267  13.237   2.712   8.659
19812SOL     OW61268  10.919   9.155   4.259
19812SOL    HW161269  10.998   9.125   4.215
19812SOL    HW261270  10.858   9.081   4.251
19813SOL     OW61271   7.916   3.524   7.613
19813SOL    HW161272   8.009   3.510   7.630
19813SOL    HW261273   7.879   3.436   7.611
19814SOL     OW61274   4.872   4.175   4.633
19814SOL    HW161275   4.949   4.201   4.683
19814SOL    HW261276   4.861   4.082   4.653
19815SOL     OW61277   8.050   2.977   6.548
19815SOL    HW161278   7.958   2.995   6.565
19815SOL    HW261279   8.061   2.884   6.570
19816SOL     OW61280   0.447  14.708   0.781
19816SOL    HW161281   0.483  14.642   0.840
19816SOL    HW261282   0.441  14.787   0.834
19817SOL     OW61283   3.196  11.031  13.856
19817SOL    HW161284   3.113  10.983  13.859
19817SOL    HW261285   3.263  10.964  13.860
19818SOL     OW61286   5.800  10.002   3.046
19818SOL    HW161287   5.732  10.034   2.986
19818SOL    HW261288   5.809  10.071   3.111
19819SOL     OW61289  12.255   8.185   1.038
19819SOL    HW161290  12.258   8.188   0.942
19819SOL    HW261291  12.240   8.276   1.064
19820SOL     OW61292   2.369  13.253   7.332
19820SOL    HW161293   2.333  13.170   7.303
19820SOL    HW261294   2.463  13.239   7.335
19821SOL     OW61295  11.079   4.342   8.135
19821SOL    HW161296  11.000   4.289   8.149
19821SOL    HW261297  11.126   4.295   8.066
19822SOL     OW61298   2.989  14.509   2.478
19822SOL    HW161299   3.013  14.595   2.513
19822SOL    HW261300   3.040  14.448   2.531
19823SOL     OW61301   5.083  13.237   8.352
19823SOL    HW161302   5.071  13.315   8.407
19823SOL    HW261303   5.034  13.256   8.272
19824SOL     OW61304   5.026  12.749   7.049
19824SOL    HW161305   4.952  12.733   7.108
19824SOL    HW261306   5.097  12.779   7.106
19825SOL     OW61307   4.995  14.042   9.294
19825SOL    HW161308   4.973  14.062   9.385
19825SOL    HW261309   4.953  13.957   9.278
19826SOL     OW61310   2.768   9.938   1.198
19826SOL    HW161311   2.741   9.935   1.107
19826SOL    HW261312   2.817   9.856   1.211
19827SOL     OW61313   7.768   8.962   0.673
19827SOL    HW161314   7.806   8.949   0.760
19827SOL    HW261315   7.691   8.905   0.672
19828SOL     OW61316  13.820  11.787   3.263
19828SOL    HW161317  13.796  11.702   3.300
19828SOL    HW261318  13.775  11.790   3.179
19829SOL     OW61319   1.579   0.520  14.353
19829SOL    HW161320   1.584   0.605  14.396
19829SOL    HW261321   1.573   0.457  14.425
19830SOL     OW61322   9.749   3.423   6.161
19830SOL    HW161323   9.715   3.404   6.073
19830SOL    HW261324   9.759   3.338   6.202
19831SOL     OW61325  13.147   9.836   6.510
19831SOL    HW161326  13.217   9.772   6.523
19831SOL    HW261327  13.192   9.917   6.484
19832SOL     OW61328   4.150   6.920   2.112
19832SOL    HW161329   4.074   6.898   2.165
19832SOL    HW261330   4.212   6.960   2.174
19833SOL     OW61331   0.374  10.808   4.156
19833SOL    HW161332   0.293  10.859   4.159
19833SOL    HW261333   0.388  10.790   4.063
19834SOL     OW61334   6.347  14.867  10.416
19834SOL    HW161335   6.426   0.014  10.463
19834SOL    HW261336   6.380  14.830  10.333
19835SOL     OW61337   4.552  13.555   1.739
19835SOL    HW161338   4.467  13.513   1.749
19835SOL    HW261339   4.531  13.647   1.721
19836SOL     OW61340   5.087   3.116   2.537
19836SOL    HW161341   5.167   3.067   2.518
19836SOL    HW261342   5.082   3.116   2.632
19837SOL     OW61343   1.524   9.920   5.514
19837SOL    HW161344   1.447   9.975   5.524
19837SOL    HW261345   1.558   9.909   5.603
19838SOL     OW61346   2.756   1.658   3.931
19838SOL    HW161347   2.826   1.679   3.992
19838SOL    HW261348   2.788   1.580   3.885
19839SOL     OW61349  13.872   6.217   4.059
19839SOL    HW161350  13.854   6.123   4.054
19839SOL    HW261351  13.848   6.241   4.149
19840SOL     OW61352   1.821  10.862  14.201
19840SOL    HW161353   1.818  10.822  14.288
19840SOL    HW261354   1.754  10.816  14.151
19841SOL     OW61355   5.875   7.331   0.760
19841SOL    HW161356   5.792   7.298   0.795
19841SOL    HW261357   5.869   7.317   0.666
19842SOL     OW61358   5.304  14.844   1.796
19842SOL    HW161359   5.213  14.865   1.776
19842SOL    HW261360   5.312  14.858   1.890
19843SOL     OW61361   9.195   3.999   6.002
19843SOL    HW161362   9.226   3.953   5.924
19843SOL    HW261363   9.235   3.953   6.075
19844SOL     OW61364  13.109   5.249   4.179
19844SOL    HW161365  13.025   5.278   4.216
19844SOL    HW261366  13.118   5.301   4.099
19845SOL     OW61367   4.498   9.524   5.419
19845SOL    HW161368   4.517   9.449   5.476
19845SOL    HW261369   4.418   9.562   5.456
19846SOL     OW61370   1.914  12.336   6.349
19846SOL    HW161371   2.001  12.358   6.382
19846SOL    HW261372   1.924  12.248   6.312
19847SOL     OW61373   8.175  11.427  13.357
19847SOL    HW161374   8.214  11.505  13.397
19847SOL    HW261375   8.225  11.354  13.393
19848SOL     OW61376   2.178   2.798  14.704
19848SOL    HW161377   2.110   2.864  14.722
19848SOL    HW261378   2.258   2.849  14.690
19849SOL     OW61379   2.903  14.448   3.984
19849SOL    HW161380   2.965  14.475   3.916
19849SOL    HW261381   2.817  14.461   3.945
19850SOL     OW61382   9.032  11.250  12.529
19850SOL    HW161383   8.941  11.277  12.541
19850SOL    HW261384   9.070  11.315  12.470
19851SOL     OW61385   3.603   6.998   6.211
19851SOL    HW161386   3.562   7.008   6.125
19851SOL    HW261387   3.627   7.087   6.236
19852SOL     OW61388  13.823  14.667   9.375
19852SOL    HW161389  13.770  14.703   9.304
19852SOL    HW261390  13.782  14.700   9.455
19853SOL     OW61391   7.171  11.901   8.911
19853SOL    HW161392   7.100  11.881   8.972
19853SOL    HW261393   7.172  11.997   8.906
19854SOL     OW61394   4.399   6.461  13.865
19854SOL    HW161395   4.471   6.418  13.819
19854SOL    HW261396   4.409   6.434  13.956
19855SOL     OW61397   5.199   0.521   5.689
19855SOL    HW161398   5.278   0.569   5.714
19855SOL    HW261399   5.141   0.528   5.764
19856SOL     OW61400  10.467   2.833  14.545
19856SOL    HW161401  10.455   2.794  14.458
19856SOL    HW261402  10.562   2.843  14.553
19857SOL     OW61403   0.811  12.960  11.495
19857SOL    HW161404   0.874  13.029  11.519
19857SOL    HW261405   0.848  12.921  11.416
19858SOL     OW61406  10.527  10.049  11.180
19858SOL    HW161407  10.566   9.962  11.188
19858SOL    HW261408  10.601  10.109  11.186
19859SOL     OW61409  11.091   3.346   5.170
19859SOL    HW161410  11.124   3.433   5.194
19859SOL    HW261411  11.076   3.303   5.254
19860SOL     OW61412   5.385   5.186   7.914
19860SOL    HW161413   5.454   5.219   7.972
19860SOL    HW261414   5.324   5.260   7.904
19861SOL     OW61415  12.454   6.753   5.282
19861SOL    HW161416  12.414   6.758   5.195
19861SOL    HW261417  12.380   6.761   5.343
19862SOL     OW61418   5.748   5.112   9.054
19862SOL    HW161419   5.745   5.101   8.959
19862SOL    HW261420   5.661   5.144   9.078
19863SOL     OW61421  13.432   4.594  12.945
19863SOL    HW161422  13.485   4.527  12.989
19863SOL    HW261423  13.477   4.609  12.862
19864SOL     OW61424   1.770  14.855   4.632
19864SOL    HW161425   1.839   0.026   4.675
19864SOL    HW261426   1.763  14.774   4.684
19865SOL     OW61427   2.509  12.634  14.738
19865SOL    HW161428   2.483  12.551  14.779
19865SOL    HW261429   2.449  12.643  14.664
19866SOL     OW61430   0.233   4.725   3.960
19866SOL    HW161431   0.286   4.670   4.018
19866SOL    HW261432   0.243   4.814   3.995
19867SOL     OW61433  11.383   4.539   4.482
19867SOL    HW161434  11.385   4.630   4.513
19867SOL    HW261435  11.474   4.521   4.458
19868SOL     OW61436   6.976   3.225   3.527
19868SOL    HW161437   6.890   3.240   3.567
19868SOL    HW261438   6.983   3.292   3.459
19869SOL     OW61439   6.223  11.296   5.675
19869SOL    HW161440   6.238  11.206   5.705
19869SOL    HW261441   6.196  11.287   5.583
19870SOL     OW61442   6.232   2.239   1.449
19870SOL    HW161443   6.315   2.239   1.401
19870SOL    HW261444   6.233   2.156   1.497
19871SOL     OW61445   3.268  10.928   7.797
19871SOL    HW161446   3.233  11.006   7.839
19871SOL    HW261447   3.258  10.945   7.703
19872SOL     OW61448   2.474   3.330  13.198
19872SOL    HW161449   2.528   3.408  13.190
19872SOL    HW261450   2.497   3.277  13.121
19873SOL     OW61451   5.374   7.303  12.415
19873SOL    HW161452   5.299   7.249  12.390
19873SOL    HW261453   5.343   7.356  12.488
19874SOL     OW61454   2.645   3.810  14.553
19874SOL    HW161455   2.659   3.819  14.459
19874SOL    HW261456   2.626   3.899  14.583
19875SOL     OW61457   3.888  10.637   7.605
19875SOL    HW161458   3.844  10.643   7.690
19875SOL    HW261459   3.879  10.725   7.567
19876SOL     OW61460   9.430   3.373   0.361
19876SOL    HW161461   9.428   3.399   0.453
19876SOL    HW261462   9.395   3.449   0.314
19877SOL     OW61463   6.687   8.272   8.643
19877SOL    HW161464   6.627   8.295   8.571
19877SOL    HW261465   6.740   8.350   8.657
19878SOL     OW61466   5.268   8.709   8.671
19878SOL    HW161467   5.306   8.794   8.692
19878SOL    HW261468   5.222   8.723   8.588
19879SOL     OW61469   6.448  13.020   7.329
19879SOL    HW161470   6.466  12.995   7.239
19879SOL    HW261471   6.463  12.941   7.380
19880SOL     OW61472   8.502   2.333   9.011
19880SOL    HW161473   8.582   2.283   8.997
19880SOL    HW261474   8.528   2.404   9.070
19881SOL     OW61475   2.155  11.343   1.013
19881SOL    HW161476   2.244  11.369   1.035
19881SOL    HW261477   2.138  11.382   0.927
19882SOL     OW61478   6.164   1.748   6.289
19882SOL    HW161479   6.257   1.737   6.310
19882SOL    HW261480   6.151   1.842   6.286
19883SOL     OW61481   7.215   9.648   4.688
19883SOL    HW161482   7.166   9.592   4.747
19883SOL    HW261483   7.187   9.620   4.600
19884SOL     OW61484  12.695   7.583  11.547
19884SOL    HW161485  12.712   7.501  11.592
19884SOL    HW261486  12.647   7.558  11.468
19885SOL     OW61487   1.161   6.774   3.402
19885SOL    HW161488   1.134   6.805   3.316
19885SOL    HW261489   1.250   6.741   3.389
19886SOL     OW61490  11.289   1.038   3.650
19886SOL    HW161491  11.243   0.971   3.701
19886SOL    HW261492  11.284   1.117   3.704
19887SOL     OW61493   6.379  12.617   9.332
19887SOL    HW161494   6.451  12.673   9.304
19887SOL    HW261495   6.339  12.587   9.251
19888SOL     OW61496   4.923   7.496   8.512
19888SOL    HW161497   4.897   7.517   8.422
19888SOL    HW261498   4.959   7.408   8.507
19889SOL     OW61499  14.803   5.620   2.687
19889SOL    HW161500  14.841   5.595   2.771
19889SOL    HW261501  14.730   5.559   2.674
19890SOL     OW61502   7.655   3.709  13.214
19890SOL    HW161503   7.621   3.791  13.250
19890SOL    HW261504   7.598   3.689  13.140
19891SOL     OW61505   0.091   4.293  12.322
19891SOL    HW161506   0.140   4.213  12.301
19891SOL    HW261507   0.092   4.343  12.240
19892SOL     OW61508   8.575   4.589   9.757
19892SOL    HW161509   8.484   4.619   9.765
19892SOL    HW261510   8.613   4.648   9.691
19893SOL     OW61511   8.790  11.350   5.812
19893SOL    HW161512   8.815  11.258   5.816
19893SOL    HW261513   8.858  11.396   5.861
19894SOL     OW61514  10.294   9.924  11.474
19894SOL    HW161515  10.273   9.870  11.398
19894SOL    HW261516  10.374   9.970  11.449
19895SOL     OW61517   1.594   8.079  12.013
19895SOL    HW161518   1.683   8.044  12.022
19895SOL    HW261519   1.544   8.006  11.978
19896SOL     OW61520   1.614  10.702   8.158
19896SOL    HW161521   1.559  10.707   8.080
19896SOL    HW261522   1.584  10.624   8.204
19897SOL     OW61523   1.836   5.427   2.342
19897SOL    HW161524   1.805   5.379   2.266
19897SOL    HW261525   1.772   5.407   2.411
19898SOL     OW61526   4.197   2.739   0.362
19898SOL    HW161527   4.246   2.810   0.321
19898SOL    HW261528   4.259   2.697   0.422
19899SOL     OW61529  10.571   7.877  10.975
19899SOL    HW161530  10.589   7.899  10.883
19899SOL    HW261531  10.653   7.898  11.021
19900SOL     OW61532   5.653  11.045  12.218
19900SOL    HW161533   5.668  11.086  12.304
19900SOL    HW261534   5.599  11.108  12.171
19901SOL     OW61535   2.604  13.779  10.460
19901SOL    HW161536   2.518  13.743  10.482
19901SOL    HW261537   2.637  13.720  10.392
19902SOL     OW61538   9.842   0.699  12.646
19902SOL    HW161539   9.804   0.654  12.721
19902SOL    HW261540   9.930   0.725  12.674
19903SOL     OW61541   8.076  14.601   1.840
19903SOL    HW161542   8.110  14.532   1.783
19903SOL    HW261543   7.992  14.566   1.872
19904SOL     OW61544   5.773   5.155   5.027
19904SOL    HW161545   5.845   5.213   5.051
19904SOL    HW261546   5.789   5.133   4.936
19905SOL     OW61547   6.569   9.776   1.447
19905SOL    HW161548   6.494   9.815   1.402
19905SOL    HW261549   6.645   9.813   1.403
19906SOL     OW61550   3.904  11.284   6.628
19906SOL    HW161551   3.924  11.376   6.607
19906SOL    HW261552   3.896  11.241   6.544
19907SOL     OW61553   2.982   6.929   0.994
19907SOL    HW161554   2.967   6.849   0.943
19907SOL    HW261555   3.032   6.900   1.070
19908SOL     OW61556   7.224  11.597   3.527
19908SOL    HW161557   7.223  11.528   3.461
19908SOL    HW261558   7.133  11.604   3.557
19909SOL     OW61559   5.090   7.754  13.569
19909SOL    HW161560   5.081   7.839  13.527
19909SOL    HW261561   5.003   7.736  13.605
19910SOL     OW61562   4.991  12.159  13.692
19910SOL    HW161563   5.022  12.246  13.668
19910SOL    HW261564   5.020  12.147  13.783
19911SOL     OW61565  14.630  11.670  12.018
19911SOL    HW161566  14.612  11.650  12.110
19911SOL    HW261567  14.633  11.765  12.015
19912SOL     OW61568   2.308  14.295   5.824
19912SOL    HW161569   2.302  14.211   5.870
19912SOL    HW261570   2.342  14.272   5.737
19913SOL     OW61571   1.905  10.947   9.861
19913SOL    HW161572   1.862  10.934   9.945
19913SOL    HW261573   1.998  10.956   9.882
19914SOL     OW61574   5.052   4.603  11.252
19914SOL    HW161575   5.137   4.632  11.219
19914SOL    HW261576   5.023   4.674  11.310
19915SOL     OW61577   2.331  11.933   8.476
19915SOL    HW161578   2.310  11.872   8.546
19915SOL    HW261579   2.326  11.880   8.396
19916SOL     OW61580   6.032   0.514   9.099
19916SOL    HW161581   5.992   0.578   9.040
19916SOL    HW261582   6.057   0.565   9.176
19917SOL     OW61583   1.970   9.325   4.777
19917SOL    HW161584   1.943   9.404   4.823
19917SOL    HW261585   1.962   9.347   4.684
19918SOL     OW61586   0.500   8.431   0.733
19918SOL    HW161587   0.536   8.519   0.744
19918SOL    HW261588   0.575   8.377   0.708
19919SOL     OW61589  10.145   8.786  12.262
19919SOL    HW161590  10.157   8.851  12.193
19919SOL    HW261591  10.182   8.705  12.226
19920SOL     OW61592   4.840  11.394   5.981
19920SOL    HW161593   4.885  11.440   5.910
19920SOL    HW261594   4.888  11.418   6.060
19921SOL     OW61595   5.524   0.324   7.906
19921SOL    HW161596   5.521   0.245   7.959
19921SOL    HW261597   5.501   0.296   7.818
19922SOL     OW61598   8.712   7.893  11.160
19922SOL    HW161599   8.731   7.970  11.106
19922SOL    HW261600   8.796   7.849  11.169
19923SOL     OW61601   7.670   2.989  12.121
19923SOL    HW161602   7.762   3.016  12.125
19923SOL    HW261603   7.672   2.896  12.140
19924SOL     OW61604   3.266   0.416   2.219
19924SOL    HW161605   3.283   0.507   2.196
19924SOL    HW261606   3.174   0.414   2.246
19925SOL     OW61607   4.996   2.932   1.848
19925SOL    HW161608   5.082   2.966   1.874
19925SOL    HW261609   4.954   2.907   1.930
19926SOL     OW61610   5.554  13.545  11.489
19926SOL    HW161611   5.610  13.613  11.452
19926SOL    HW261612   5.469  13.557  11.445
19927SOL     OW61613   4.105  13.753  12.051
19927SOL    HW161614   4.024  13.714  12.082
19927SOL    HW261615   4.085  13.785  11.963
19928SOL     OW61616   4.002  11.105   8.102
19928SOL    HW161617   3.950  11.154   8.038
19928SOL    HW261618   3.984  11.148   8.186
19929SOL     OW61619   5.811   1.774  12.282
19929SOL    HW161620   5.839   1.683  12.274
19929SOL    HW261621   5.856   1.806  12.361
19930SOL     OW61622   4.743   2.821  14.765
19930SOL    HW161623   4.818   2.845  14.711
19930SOL    HW261624   4.764   2.734  14.797
19931SOL     OW61625   1.357  11.296  10.009
19931SOL    HW161626   1.418  11.273   9.939
19931SOL    HW261627   1.289  11.229  10.004
19932SOL     OW61628   5.875  12.819   8.869
19932SOL    HW161629   5.866  12.820   8.774
19932SOL    HW261630   5.890  12.727   8.891
19933SOL     OW61631  10.500   3.006  12.906
19933SOL    HW161632  10.504   2.960  12.822
19933SOL    HW261633  10.567   2.964  12.960
19934SOL     OW61634  11.876   8.313  10.079
19934SOL    HW161635  11.794   8.325  10.031
19934SOL    HW261636  11.931   8.386  10.050
19935SOL     OW61637   0.705   9.441  12.303
19935SOL    HW161638   0.737   9.358  12.266
19935SOL    HW261639   0.631   9.416  12.357
19936SOL     OW61640   7.382  14.593  10.998
19936SOL    HW161641   7.296  14.598  10.958
19936SOL    HW261642   7.377  14.651  11.074
19937SOL     OW61643  10.594   3.285   3.919
19937SOL    HW161644  10.674   3.328   3.891
19937SOL    HW261645  10.601   3.196   3.887
19938SOL     OW61646   7.273   2.233   3.897
19938SOL    HW161647   7.264   2.273   3.983
19938SOL    HW261648   7.367   2.239   3.877
19939SOL     OW61649  12.382  13.649  11.173
19939SOL    HW161650  12.436  13.716  11.215
19939SOL    HW261651  12.434  13.569  11.179
19940SOL     OW61652   7.754  13.223  14.271
19940SOL    HW161653   7.815  13.231  14.344
19940SOL    HW261654   7.670  13.253  14.305
19941SOL     OW61655   6.470   9.780   9.214
19941SOL    HW161656   6.493   9.742   9.130
19941SOL    HW261657   6.553   9.787   9.261
19942SOL     OW61658  12.220   7.755   0.991
19942SOL    HW161659  12.131   7.721   0.989
19942SOL    HW261660  12.256   7.725   1.075
19943SOL     OW61661   1.617   4.131   1.368
19943SOL    HW161662   1.549   4.149   1.303
19943SOL    HW261663   1.603   4.196   1.436
19944SOL     OW61664   7.420   3.212  11.936
19944SOL    HW161665   7.462   3.291  11.902
19944SOL    HW261666   7.399   3.233  12.027
19945SOL     OW61667   1.044   7.255  11.429
19945SOL    HW161668   1.138   7.256  11.415
19945SOL    HW261669   1.015   7.169  11.400
19946SOL     OW61670  11.301   4.481   3.454
19946SOL    HW161671  11.336   4.507   3.539
19946SOL    HW261672  11.367   4.421   3.418
19947SOL     OW61673  13.026   4.582   3.862
19947SOL    HW161674  13.066   4.495   3.869
19947SOL    HW261675  13.081   4.637   3.918
19948SOL     OW61676   5.753   2.276   7.274
19948SOL    HW161677   5.660   2.279   7.255
19948SOL    HW261678   5.763   2.331   7.352
19949SOL     OW61679   7.571   1.490   6.987
19949SOL    HW161680   7.622   1.571   6.981
19949SOL    HW261681   7.486   1.517   7.020
19950SOL     OW61682   9.573   7.578   1.477
19950SOL    HW161683   9.549   7.584   1.385
19950SOL    HW261684   9.578   7.668   1.507
19951SOL     OW61685  14.685   6.215   5.327
19951SOL    HW161686  14.655   6.206   5.418
19951SOL    HW261687  14.620   6.272   5.286
19952SOL     OW61688   5.747   5.912   8.936
19952SOL    HW161689   5.706   5.990   8.898
19952SOL    HW261690   5.781   5.941   9.021
19953SOL     OW61691   8.159   5.732   0.775
19953SOL    HW161692   8.090   5.689   0.826
19953SOL    HW261693   8.216   5.660   0.747
19954SOL     OW61694   4.741   5.125  10.395
19954SOL    HW161695   4.760   5.065  10.323
19954SOL    HW261696   4.767   5.076  10.473
19955SOL     OW61697  12.791   6.167  14.436
19955SOL    HW161698  12.857   6.178  14.505
19955SOL    HW261699  12.749   6.252  14.428
19956SOL     OW61700   9.351   8.930   7.145
19956SOL    HW161701   9.429   8.884   7.175
19956SOL    HW261702   9.314   8.968   7.224
19957SOL     OW61703  11.386   2.524  13.947
19957SOL    HW161704  11.466   2.490  13.907
19957SOL    HW261705  11.328   2.448  13.952
19958SOL     OW61706   3.011  13.415   5.766
19958SOL    HW161707   2.962  13.337   5.793
19958SOL    HW261708   3.059  13.387   5.688
19959SOL     OW61709   1.152   8.620  14.287
19959SOL    HW161710   1.062   8.602  14.312
19959SOL    HW261711   1.162   8.579  14.201
19960SOL     OW61712  12.582  12.543   7.909
19960SOL    HW161713  12.522  12.468   7.918
19960SOL    HW261714  12.632  12.524   7.830
19961SOL     OW61715   5.324  14.276   1.152
19961SOL    HW161716   5.331  14.229   1.069
19961SOL    HW261717   5.301  14.209   1.216
19962SOL     OW61718   5.783   4.876   5.159
19962SOL    HW161719   5.791   4.836   5.246
19962SOL    HW261720   5.771   4.970   5.178
19963SOL     OW61721  13.273   7.525   9.920
19963SOL    HW161722  13.226   7.506  10.001
19963SOL    HW261723  13.262   7.446   9.867
19964SOL     OW61724   5.991  12.114   2.033
19964SOL    HW161725   5.937  12.053   2.082
19964SOL    HW261726   5.980  12.088   1.942
19965SOL     OW61727  13.444  14.067  14.705
19965SOL    HW161728  13.504  13.994  14.689
19965SOL    HW261729  13.374  14.028  14.758
19966SOL     OW61730   8.420   9.079  13.325
19966SOL    HW161731   8.484   9.038  13.266
19966SOL    HW261732   8.357   9.010  13.344
19967SOL     OW61733  11.730  11.053   9.912
19967SOL    HW161734  11.697  11.116   9.848
19967SOL    HW261735  11.732  11.102   9.994
19968SOL     OW61736   5.971   0.238   6.507
19968SOL    HW161737   6.036   0.301   6.538
19968SOL    HW261738   5.893   0.291   6.491
19969SOL     OW61739   7.017  14.302  13.117
19969SOL    HW161740   6.941  14.294  13.059
19969SOL    HW261741   6.994  14.372  13.178
19970SOL     OW61742  13.392  13.021  14.320
19970SOL    HW161743  13.402  13.100  14.373
19970SOL    HW261744  13.355  13.052  14.238
19971SOL     OW61745   0.558  11.045   1.577
19971SOL    HW161746   0.626  11.108   1.600
19971SOL    HW261747   0.486  11.064   1.637
19972SOL     OW61748  11.888   1.733  10.393
19972SOL    HW161749  11.884   1.828  10.398
19972SOL    HW261750  11.976   1.715  10.359
19973SOL     OW61751   8.508  10.378   9.560
19973SOL    HW161752   8.435  10.425   9.602
19973SOL    HW261753   8.586  10.413   9.602
19974SOL     OW61754   2.177  14.451  12.062
19974SOL    HW161755   2.090  14.477  12.093
19974SOL    HW261756   2.228  14.439  12.142
19975SOL     OW61757   2.256   5.709   7.273
19975SOL    HW161758   2.338   5.658   7.271
19975SOL    HW261759   2.187   5.643   7.280
19976SOL     OW61760  13.497   3.706   0.707
19976SOL    HW161761  13.532   3.795   0.716
19976SOL    HW261762  13.564   3.660   0.656
19977SOL     OW61763  11.228   7.225   8.140
19977SOL    HW161764  11.293   7.284   8.179
19977SOL    HW261765  11.143   7.263   8.164
19978SOL     OW61766  13.878   1.232   5.036
19978SOL    HW161767  13.906   1.204   5.123
19978SOL    HW261768  13.956   1.271   4.997
19979SOL     OW61769   8.860  12.863   4.522
19979SOL    HW161770   8.865  12.771   4.547
19979SOL    HW261771   8.801  12.864   4.447
19980SOL     OW61772   4.306   0.760  14.182
19980SOL    HW161773   4.398   0.787  14.181
19980SOL    HW261774   4.262   0.827  14.235
19981SOL     OW61775   5.551   7.628   9.534
19981SOL    HW161776   5.534   7.720   9.514
19981SOL    HW261777   5.464   7.588   9.535
19982SOL     OW61778   3.563  13.240   4.887
19982SOL    HW161779   3.541  13.148   4.903
19982SOL    HW261780   3.543  13.284   4.969
19983SOL     OW61781  11.160   0.682   0.365
19983SOL    HW161782  11.073   0.669   0.404
19983SOL    HW261783  11.169   0.612   0.301
19984SOL     OW61784  14.795   6.208  10.914
19984SOL    HW161785  14.840   6.241  10.837
19984SOL    HW261786  14.706   6.243  10.907
19985SOL     OW61787   7.560   0.011   9.776
19985SOL    HW161788   7.544  14.809   9.728
19985SOL    HW261789   7.485   0.019   9.836
19986SOL     OW61790   3.046  14.544   7.893
19986SOL    HW161791   3.045  14.457   7.855
19986SOL    HW261792   3.041  14.604   7.818
19987SOL     OW61793   2.232   0.853  13.915
19987SOL    HW161794   2.199   0.799  13.843
19987SOL    HW261795   2.327   0.843  13.910
19988SOL     OW61796   8.004   6.372   5.528
19988SOL    HW161797   8.096   6.361   5.550
19988SOL    HW261798   7.987   6.307   5.460
19989SOL     OW61799   6.935  10.036  13.388
19989SOL    HW161800   6.854  10.006  13.348
19989SOL    HW261801   6.918  10.129  13.407
19990SOL     OW61802  13.700   4.936   8.258
19990SOL    HW161803  13.780   4.971   8.219
19990SOL    HW261804  13.693   4.980   8.343
19991SOL     OW61805   2.386  11.307   2.291
19991SOL    HW161806   2.318  11.311   2.359
19991SOL    HW261807   2.374  11.221   2.251
19992SOL     OW61808   5.119   5.726  14.462
19992SOL    HW161809   5.154   5.748  14.375
19992SOL    HW261810   5.148   5.797  14.518
19993SOL     OW61811   4.916   7.952   5.283
19993SOL    HW161812   4.859   7.927   5.356
19993SOL    HW261813   4.857   7.993   5.219
19994SOL     OW61814  12.923   4.328   4.105
19994SOL    HW161815  12.876   4.270   4.045
19994SOL    HW261816  13.005   4.282   4.123
19995SOL     OW61817   3.586  11.886   6.652
19995SOL    HW161818   3.518  11.917   6.593
19995SOL    HW261819   3.539  11.857   6.730
19996SOL     OW61820  13.423   4.496  12.557
19996SOL    HW161821  13.383   4.527  12.475
19996SOL    HW261822  13.352   4.454  12.604
19997SOL     OW61823   7.888   5.866  13.362
19997SOL    HW161824   7.850   5.807  13.427
19997SOL    HW261825   7.813   5.896  13.310
19998SOL     OW61826  14.711   2.808  11.977
19998SOL    HW161827  14.784   2.858  12.013
19998SOL    HW261828  14.712   2.828  11.883
19999SOL     OW61829  11.055   7.234   0.071
19999SOL    HW161830  11.011   7.175   0.010
19999SOL    HW261831  10.988   7.298   0.094
20000SOL     OW61832  11.545   1.079   6.703
20000SOL    HW161833  11.621   1.093   6.759
20000SOL    HW261834  11.580   1.081   6.614
20001SOL     OW61835   0.230   6.827  11.488
20001SOL    HW161836   0.317   6.863  11.506
20001SOL    HW261837   0.173   6.904  11.483
20002SOL     OW61838   6.111   0.537   5.848
20002SOL    HW161839   6.168   0.613   5.862
20002SOL    HW261840   6.023   0.570   5.861
20003SOL     OW61841   9.367   1.803   2.067
20003SOL    HW161842   9.280   1.841   2.076
20003SOL    HW261843   9.398   1.792   2.157
20004SOL     OW61844  11.020   2.984   2.736
20004SOL    HW161845  11.052   3.066   2.698
20004SOL    HW261846  11.054   2.916   2.678
20005SOL     OW61847   2.241  10.083   0.309
20005SOL    HW161848   2.279  10.154   0.361
20005SOL    HW261849   2.165  10.123   0.267
20006SOL     OW61850   6.961  11.657  11.699
20006SOL    HW161851   7.040  11.706  11.720
20006SOL    HW261852   6.992  11.581  11.649
20007SOL     OW61853  14.412   6.051  13.676
20007SOL    HW161854  14.441   5.997  13.603
20007SOL    HW261855  14.425   5.997  13.754
20008SOL     OW61856   7.717  13.875   4.780
20008SOL    HW161857   7.653  13.811   4.810
20008SOL    HW261858   7.762  13.831   4.707
20009SOL     OW61859   1.548  12.334   1.465
20009SOL    HW161860   1.509  12.329   1.377
20009SOL    HW261861   1.603  12.256   1.471
20010SOL     OW61862  14.576   5.634   9.716
20010SOL    HW161863  14.556   5.653   9.808
20010SOL    HW261864  14.666   5.601   9.718
20011SOL     OW61865   5.760   5.539   1.809
20011SOL    HW161866   5.711   5.459   1.792
20011SOL    HW261867   5.718   5.577   1.886
20012SOL     OW61868   5.741   8.241   8.936
20012SOL    HW161869   5.659   8.286   8.912
20012SOL    HW261870   5.807   8.279   8.878
20013SOL     OW61871   6.761  13.469   4.834
20013SOL    HW161872   6.788  13.535   4.898
20013SOL    HW261873   6.843  13.436   4.799
20014SOL     OW61874   5.996   5.300   5.144
20014SOL    HW161875   5.987   5.395   5.140
20014SOL    HW261876   6.080   5.285   5.188
20015SOL     OW61877   5.334   0.239   4.012
20015SOL    HW161878   5.342   0.209   3.922
20015SOL    HW261879   5.393   0.314   4.018
20016SOL     OW61880   0.687   1.374  12.589
20016SOL    HW161881   0.646   1.461  12.596
20016SOL    HW261882   0.755   1.374  12.655
20017SOL     OW61883  12.643   9.511   6.709
20017SOL    HW161884  12.633   9.439   6.771
20017SOL    HW261885  12.697   9.575   6.755
20018SOL     OW61886   7.282  12.754  14.738
20018SOL    HW161887   7.225  12.802  14.798
20018SOL    HW261888   7.222  12.715  14.674
20019SOL     OW61889   0.923   8.716   5.694
20019SOL    HW161890   0.946   8.746   5.782
20019SOL    HW261891   0.859   8.780   5.663
20020SOL     OW61892   4.314   3.134   5.755
20020SOL    HW161893   4.293   3.176   5.839
20020SOL    HW261894   4.244   3.162   5.696
20021SOL     OW61895  14.383  11.875   5.050
20021SOL    HW161896  14.465  11.833   5.077
20021SOL    HW261897  14.354  11.825   4.974
20022SOL     OW61898   4.567   9.674   0.618
20022SOL    HW161899   4.476   9.663   0.591
20022SOL    HW261900   4.597   9.752   0.571
20023SOL     OW61901  12.836   9.166   8.451
20023SOL    HW161902  12.876   9.149   8.536
20023SOL    HW261903  12.911   9.174   8.391
20024SOL     OW61904   4.040   3.388   8.800
20024SOL    HW161905   3.998   3.349   8.724
20024SOL    HW261906   4.127   3.347   8.803
20025SOL     OW61907   6.555  12.165   3.197
20025SOL    HW161908   6.592  12.213   3.123
20025SOL    HW261909   6.476  12.214   3.220
20026SOL     OW61910   1.949   9.943   1.297
20026SOL    HW161911   1.930  10.024   1.345
20026SOL    HW261912   1.864   9.911   1.268
20027SOL     OW61913  11.843  11.462   1.153
20027SOL    HW161914  11.816  11.552   1.169
20027SOL    HW261915  11.920  11.450   1.208
20028SOL     OW61916   7.922  12.333  13.400
20028SOL    HW161917   7.974  12.265  13.359
20028SOL    HW261918   7.987  12.391  13.440
20029SOL     OW61919   2.325  13.223   0.519
20029SOL    HW161920   2.348  13.135   0.490
20029SOL    HW261921   2.363  13.281   0.452
20030SOL     OW61922   2.572   4.597   8.279
20030SOL    HW161923   2.550   4.687   8.257
20030SOL    HW261924   2.624   4.566   8.205
20031SOL     OW61925   9.660   4.055   6.868
20031SOL    HW161926   9.657   4.087   6.958
20031SOL    HW261927   9.718   3.979   6.871
20032SOL     OW61928  10.606   6.617   2.567
20032SOL    HW161929  10.559   6.669   2.632
20032SOL    HW261930  10.698   6.637   2.582
20033SOL     OW61931  11.331  12.002  11.473
20033SOL    HW161932  11.416  12.003  11.430
20033SOL    HW261933  11.320  11.912  11.504
20034SOL     OW61934  12.026   5.731   1.081
20034SOL    HW161935  12.098   5.794   1.091
20034SOL    HW261936  11.952   5.785   1.051
20035SOL     OW61937   2.152   2.776   7.621
20035SOL    HW161938   2.136   2.787   7.527
20035SOL    HW261939   2.117   2.689   7.641
20036SOL     OW61940   1.267  11.852  14.233
20036SOL    HW161941   1.215  11.931  14.248
20036SOL    HW261942   1.229  11.786  14.291
20037SOL     OW61943   0.925   2.451   8.953
20037SOL    HW161944   0.845   2.446   8.901
20037SOL    HW261945   0.947   2.544   8.955
20038SOL     OW61946   2.212   0.867   3.295
20038SOL    HW161947   2.167   0.882   3.378
20038SOL    HW261948   2.303   0.851   3.320
20039SOL     OW61949   4.154   8.829  11.771
20039SOL    HW161950   4.087   8.764  11.748
20039SOL    HW261951   4.111   8.914  11.757
20040SOL     OW61952   9.453   6.049  11.352
20040SOL    HW161953   9.500   5.979  11.397
20040SOL    HW261954   9.396   6.087  11.418
20041SOL     OW61955  12.094   1.444  12.100
20041SOL    HW161956  12.141   1.476  12.023
20041SOL    HW261957  12.127   1.355  12.112
20042SOL     OW61958   1.884   3.920   6.541
20042SOL    HW161959   1.974   3.907   6.572
20042SOL    HW261960   1.831   3.921   6.621
20043SOL     OW61961   9.242  11.896   9.877
20043SOL    HW161962   9.224  11.875   9.785
20043SOL    HW261963   9.262  11.990   9.876
20044SOL     OW61964  14.205   9.569   2.061
20044SOL    HW161965  14.284   9.540   2.107
20044SOL    HW261966  14.172   9.642   2.112
20045SOL     OW61967   0.879  10.086   5.947
20045SOL    HW161968   0.935  10.022   5.903
20045SOL    HW261969   0.790  10.053   5.933
20046SOL     OW61970  11.202   6.111   4.895
20046SOL    HW161971  11.166   6.151   4.816
20046SOL    HW261972  11.200   6.181   4.960
20047SOL     OW61973  10.577   8.939  14.129
20047SOL    HW161974  10.559   8.933  14.223
20047SOL    HW261975  10.509   8.998  14.096
20048SOL     OW61976   0.625   0.812   7.085
20048SOL    HW161977   0.555   0.774   7.032
20048SOL    HW261978   0.673   0.736   7.118
20049SOL     OW61979   1.521   9.879   7.505
20049SOL    HW161980   1.494   9.816   7.572
20049SOL    HW261981   1.572   9.828   7.442
20050SOL     OW61982  13.391   5.190   7.344
20050SOL    HW161983  13.458   5.131   7.381
20050SOL    HW261984  13.310   5.140   7.349
20051SOL     OW61985   8.437   3.036  12.105
20051SOL    HW161986   8.528   3.009  12.094
20051SOL    HW261987   8.422   3.101  12.037
20052SOL     OW61988  13.857   6.069  12.804
20052SOL    HW161989  13.845   5.974  12.804
20052SOL    HW261990  13.871   6.092  12.896
20053SOL     OW61991   4.211  10.527   8.192
20053SOL    HW161992   4.305  10.541   8.196
20053SOL    HW261993   4.189  10.486   8.276
20054SOL     OW61994   1.127   4.568   1.037
20054SOL    HW161995   1.205   4.516   1.055
20054SOL    HW261996   1.065   4.505   0.999
20055SOL     OW61997   6.570   3.470   6.510
20055SOL    HW161998   6.519   3.434   6.437
20055SOL    HW261999   6.526   3.553   6.531
20056SOL     OW62000  12.034  10.182   1.397
20056SOL    HW162001  11.964  10.247   1.392
20056SOL    HW262002  11.995  10.103   1.361
20057SOL     OW62003  12.273   7.919   9.274
20057SOL    HW162004  12.348   7.880   9.228
20057SOL    HW262005  12.287   7.895   9.366
20058SOL     OW62006  10.089   0.173   2.235
20058SOL    HW162007  10.091   0.247   2.174
20058SOL    HW262008  10.175   0.175   2.278
20059SOL     OW62009  13.427   7.198   7.268
20059SOL    HW162010  13.352   7.139   7.278
20059SOL    HW262011  13.402   7.255   7.195
20060SOL     OW62012  12.506  13.450   4.049
20060SOL    HW162013  12.512  13.521   3.985
20060SOL    HW262014  12.417  13.416   4.039
20061SOL     OW62015  12.589   0.846  11.042
20061SOL    HW162016  12.602   0.929  11.088
20061SOL    HW262017  12.494   0.838  11.033
20062SOL     OW62018   5.496   5.637  13.000
20062SOL    HW162019   5.462   5.670  12.917
20062SOL    HW262020   5.590   5.658  12.997
20063SOL     OW62021   2.732   8.231   9.394
20063SOL    HW162022   2.756   8.144   9.426
20063SOL    HW262023   2.720   8.218   9.300
20064SOL     OW62024   3.979  10.852   8.181
20064SOL    HW162025   4.072  10.849   8.155
20064SOL    HW262026   3.952  10.942   8.162
20065SOL     OW62027   8.403  13.112   6.374
20065SOL    HW162028   8.350  13.034   6.360
20065SOL    HW262029   8.372  13.174   6.309
20066SOL     OW62030  10.884   8.929  10.722
20066SOL    HW162031  10.979   8.916  10.718
20066SOL    HW262032  10.872   9.001  10.784
20067SOL     OW62033   5.880  14.453  12.101
20067SOL    HW162034   5.935  14.497  12.036
20067SOL    HW262035   5.938  14.388  12.141
20068SOL     OW62036   1.646   2.344   1.189
20068SOL    HW162037   1.694   2.414   1.232
20068SOL    HW262038   1.583   2.314   1.255
20069SOL     OW62039  14.766   0.812   0.765
20069SOL    HW162040  14.755   0.820   0.670
20069SOL    HW262041  14.784   0.719   0.779
20070SOL     OW62042   6.858   1.921  12.637
20070SOL    HW162043   6.948   1.888  12.641
20070SOL    HW262044   6.840   1.955  12.725
20071SOL     OW62045   4.132   7.860  13.361
20071SOL    HW162046   4.073   7.830  13.291
20071SOL    HW262047   4.164   7.780  13.401
20072SOL     OW62048   0.835   5.306  12.770
20072SOL    HW162049   0.844   5.267  12.683
20072SOL    HW262050   0.744   5.290  12.794
20073SOL     OW62051   2.298   4.951   2.275
20073SOL    HW162052   2.297   5.027   2.333
20073SOL    HW262053   2.348   4.885   2.323
20074SOL     OW62054   7.523   7.417  11.459
20074SOL    HW162055   7.549   7.325  11.450
20074SOL    HW262056   7.441   7.415  11.508
20075SOL     OW62057   3.973   3.273  14.590
20075SOL    HW162058   3.971   3.351  14.644
20075SOL    HW262059   3.895   3.278  14.535
20076SOL     OW62060   4.677  10.506  13.957
20076SOL    HW162061   4.624  10.574  13.999
20076SOL    HW262062   4.735  10.555  13.898
20077SOL     OW62063  14.195   8.305   9.353
20077SOL    HW162064  14.284   8.317   9.319
20077SOL    HW262065  14.155   8.391   9.344
20078SOL     OW62066  12.983   9.083   8.710
20078SOL    HW162067  13.037   9.037   8.775
20078SOL    HW262068  12.893   9.058   8.731
20079SOL     OW62069  12.880   4.972   2.405
20079SOL    HW162070  12.795   5.016   2.406
20079SOL    HW262071  12.932   5.019   2.471
20080SOL     OW62072   7.474  14.825  13.686
20080SOL    HW162073   7.509  14.832  13.775
20080SOL    HW262074   7.383  14.799  13.697
20081SOL     OW62075   6.621   9.230   1.252
20081SOL    HW162076   6.654   9.196   1.335
20081SOL    HW262077   6.683   9.198   1.186
20082SOL     OW62078   8.647   9.901   6.083
20082SOL    HW162079   8.635   9.937   6.171
20082SOL    HW262080   8.720   9.951   6.046
20083SOL     OW62081  13.889   0.976   9.831
20083SOL    HW162082  13.962   0.949   9.775
20083SOL    HW262083  13.930   0.990   9.917
20084SOL     OW62084   7.130   0.923   7.757
20084SOL    HW162085   7.115   0.851   7.696
20084SOL    HW262086   7.048   0.930   7.806
20085SOL     OW62087   3.053   1.936   6.609
20085SOL    HW162088   3.074   1.872   6.676
20085SOL    HW262089   3.025   1.883   6.534
20086SOL     OW62090  10.067  12.307  14.852
20086SOL    HW162091   9.983  12.351  14.865
20086SOL    HW262092  10.111  12.358  14.785
20087SOL     OW62093   0.996   6.331   5.877
20087SOL    HW162094   0.934   6.263   5.851
20087SOL    HW262095   1.077   6.309   5.830
20088SOL     OW62096   5.127   3.092  10.302
20088SOL    HW162097   5.177   3.082  10.383
20088SOL    HW262098   5.175   3.041  10.237
20089SOL     OW62099  12.068   3.681   7.519
20089SOL    HW162100  12.146   3.736   7.517
20089SOL    HW262101  12.014   3.713   7.448
20090SOL     OW62102   6.749   0.183   6.791
20090SOL    HW162103   6.708   0.257   6.834
20090SOL    HW262104   6.699   0.107   6.820
20091SOL     OW62105   9.960   9.161   0.482
20091SOL    HW162106   9.963   9.117   0.397
20091SOL    HW262107   9.875   9.205   0.483
20092SOL     OW62108   7.049   9.542   6.468
20092SOL    HW162109   6.973   9.535   6.527
20092SOL    HW262110   7.114   9.482   6.506
20093SOL     OW62111   6.180  10.456  14.332
20093SOL    HW162112   6.157  10.539  14.373
20093SOL    HW262113   6.199  10.479  14.241
20094SOL     OW62114   6.661  10.079   6.603
20094SOL    HW162115   6.607  10.016   6.555
20094SOL    HW262116   6.667  10.043   6.692
20095SOL     OW62117   3.518   5.006   0.854
20095SOL    HW162118   3.486   4.949   0.923
20095SOL    HW262119   3.466   5.086   0.862
20096SOL     OW62120   8.077   4.124   1.847
20096SOL    HW162121   8.171   4.144   1.847
20096SOL    HW262122   8.035   4.209   1.861
20097SOL     OW62123   6.691  12.108   0.097
20097SOL    HW162124   6.695  12.109   0.002
20097SOL    HW262125   6.621  12.169   0.120
20098SOL     OW62126  11.895   0.805   0.791
20098SOL    HW162127  11.834   0.828   0.721
20098SOL    HW262128  11.980   0.797   0.748
20099SOL     OW62129   1.936   8.943   5.066
20099SOL    HW162130   1.906   8.931   5.156
20099SOL    HW262131   1.978   9.028   5.065
20100SOL     OW62132  11.519   2.069  13.210
20100SOL    HW162133  11.541   2.075  13.303
20100SOL    HW262134  11.565   1.990  13.180
20101SOL     OW62135   7.275   1.921   8.190
20101SOL    HW162136   7.250   2.013   8.195
20101SOL    HW262137   7.229   1.888   8.114
20102SOL     OW62138   2.472  14.063   8.956
20102SOL    HW162139   2.452  14.098   9.043
20102SOL    HW262140   2.566  14.044   8.959
20103SOL     OW62141   8.322   8.743   5.375
20103SOL    HW162142   8.242   8.744   5.323
20103SOL    HW262143   8.383   8.797   5.324
20104SOL     OW62144   5.359   9.204   4.234
20104SOL    HW162145   5.276   9.231   4.274
20104SOL    HW262146   5.336   9.183   4.143
20105SOL     OW62147   6.369   7.195  13.450
20105SOL    HW162148   6.353   7.178  13.357
20105SOL    HW262149   6.322   7.277  13.468
20106SOL     OW62150   1.767  10.186  12.892
20106SOL    HW162151   1.721  10.165  12.974
20106SOL    HW262152   1.780  10.101  12.850
20107SOL     OW62153   9.654   3.066   8.968
20107SOL    HW162154   9.709   3.041   9.042
20107SOL    HW262155   9.614   2.983   8.940
20108SOL     OW62156   5.209   4.728   2.153
20108SOL    HW162157   5.251   4.813   2.146
20108SOL    HW262158   5.134   4.743   2.209
20109SOL     OW62159   4.611   3.334   0.427
20109SOL    HW162160   4.551   3.282   0.481
20109SOL    HW262161   4.553   3.393   0.378
20110SOL     OW62162   4.050   0.244   0.140
20110SOL    HW162163   3.990   0.226   0.068
20110SOL    HW262164   4.116   0.302   0.102
20111SOL     OW62165  13.307   6.591   8.854
20111SOL    HW162166  13.401   6.580   8.840
20111SOL    HW262167  13.295   6.579   8.948
20112SOL     OW62168   1.715   9.688   9.556
20112SOL    HW162169   1.784   9.636   9.515
20112SOL    HW262170   1.636   9.667   9.507
20113SOL     OW62171  14.212   9.783  11.418
20113SOL    HW162172  14.286   9.843  11.410
20113SOL    HW262173  14.135   9.838  11.404
20114SOL     OW62174   8.515   8.154   9.279
20114SOL    HW162175   8.477   8.219   9.337
20114SOL    HW262176   8.442   8.095   9.258
20115SOL     OW62177   0.053  11.669   3.335
20115SOL    HW162178   0.060  11.693   3.242
20115SOL    HW262179  14.874  11.592   3.335
20116SOL     OW62180  13.188   0.368   6.677
20116SOL    HW162181  13.182   0.308   6.603
20116SOL    HW262182  13.280   0.368   6.701
20117SOL     OW62183   0.706  13.413   2.594
20117SOL    HW162184   0.791  13.407   2.637
20117SOL    HW262185   0.716  13.363   2.513
20118SOL     OW62186   9.596   6.883  13.378
20118SOL    HW162187   9.574   6.976  13.384
20118SOL    HW262188   9.635   6.863  13.463
20119SOL     OW62189  11.257   6.059   1.579
20119SOL    HW162190  11.253   5.965   1.559
20119SOL    HW262191  11.339   6.069   1.627
20120SOL     OW62192   0.257  11.328  13.515
20120SOL    HW162193   0.351  11.309  13.507
20120SOL    HW262194   0.241  11.332  13.609
20121SOL     OW62195  11.979  13.341  13.505
20121SOL    HW162196  11.988  13.251  13.539
20121SOL    HW262197  12.003  13.397  13.579
20122SOL     OW62198   5.083   4.413   0.566
20122SOL    HW162199   5.093   4.408   0.471
20122SOL    HW262200   5.172   4.422   0.599
20123SOL     OW62201  14.274   5.138   5.231
20123SOL    HW162202  14.299   5.212   5.286
20123SOL    HW262203  14.236   5.075   5.292
20124SOL     OW62204   4.031  12.373   8.845
20124SOL    HW162205   3.970  12.302   8.826
20124SOL    HW262206   4.081  12.385   8.765
20125SOL     OW62207  13.052  12.795   6.759
20125SOL    HW162208  12.988  12.777   6.689
20125SOL    HW262209  13.057  12.712   6.807
20126SOL     OW62210   7.819  14.144  13.908
20126SOL    HW162211   7.894  14.173  13.857
20126SOL    HW262212   7.751  14.126  13.843
20127SOL     OW62213   6.848  12.624  10.219
20127SOL    HW162214   6.866  12.653  10.130
20127SOL    HW262215   6.753  12.632  10.228
20128SOL     OW62216   6.447   0.983   3.396
20128SOL    HW162217   6.537   0.987   3.364
20128SOL    HW262218   6.425   1.073   3.418
20129SOL     OW62219   3.666   9.643   2.508
20129SOL    HW162220   3.750   9.678   2.479
20129SOL    HW262221   3.638   9.703   2.577
20130SOL     OW62222  11.843   5.734  10.819
20130SOL    HW162223  11.767   5.765  10.768
20130SOL    HW262224  11.806   5.670  10.879
20131SOL     OW62225   7.068  12.666   3.608
20131SOL    HW162226   7.142  12.672   3.668
20131SOL    HW262227   7.103  12.620   3.531
20132SOL     OW62228   0.081   7.817  14.301
20132SOL    HW162229   0.098   7.750  14.367
20132SOL    HW262230  14.872   7.847  14.320
20133SOL     OW62231  12.992  14.562   3.855
20133SOL    HW162232  12.936  14.557   3.777
20133SOL    HW262233  13.060  14.625   3.831
20134SOL     OW62234   5.623  13.631   6.800
20134SOL    HW162235   5.665  13.547   6.782
20134SOL    HW262236   5.547  13.633   6.742
20135SOL     OW62237  13.089   7.178   2.068
20135SOL    HW162238  13.112   7.267   2.043
20135SOL    HW262239  13.131   7.123   2.002
20136SOL     OW62240   2.584   4.887  13.140
20136SOL    HW162241   2.514   4.926  13.193
20136SOL    HW262242   2.609   4.809  13.188
20137SOL     OW62243   2.348  12.755   4.791
20137SOL    HW162244   2.357  12.743   4.886
20137SOL    HW262245   2.279  12.822   4.782
20138SOL     OW62246   4.250  14.169   7.986
20138SOL    HW162247   4.205  14.087   7.967
20138SOL    HW262248   4.235  14.184   8.079
20139SOL     OW62249  10.893   0.602   7.584
20139SOL    HW162250  10.930   0.678   7.539
20139SOL    HW262251  10.968   0.544   7.598
20140SOL     OW62252  14.106   5.567  12.225
20140SOL    HW162253  14.058   5.485  12.237
20140SOL    HW262254  14.071   5.625  12.293
20141SOL     OW62255   5.865   6.977   3.924
20141SOL    HW162256   5.800   7.011   3.985
20141SOL    HW262257   5.813   6.933   3.857
20142SOL     OW62258  10.229   6.253   0.501
20142SOL    HW162259  10.290   6.180   0.488
20142SOL    HW262260  10.229   6.267   0.596
20143SOL     OW62261  14.831  13.632   8.228
20143SOL    HW162262  14.736  13.639   8.233
20143SOL    HW262263  14.850  13.544   8.261
20144SOL     OW62264   7.788   6.459  12.925
20144SOL    HW162265   7.749   6.527  12.871
20144SOL    HW262266   7.724   6.444  12.995
20145SOL     OW62267  13.224   0.486  13.557
20145SOL    HW162268  13.164   0.446  13.620
20145SOL    HW262269  13.179   0.479  13.473
20146SOL     OW62270   7.963  14.068  11.283
20146SOL    HW162271   7.893  14.133  11.276
20146SOL    HW262272   7.939  14.000  11.220
20147SOL     OW62273   0.134   0.201  14.865
20147SOL    HW162274   0.066   0.267  14.873
20147SOL    HW262275   0.128   0.149   0.067
20148SOL     OW62276   1.767   9.052  13.811
20148SOL    HW162277   1.857   9.084  13.814
20148SOL    HW262278   1.773   8.969  13.764
20149SOL     OW62279  12.012   7.607   5.376
20149SOL    HW162280  11.964   7.685   5.347
20149SOL    HW262281  12.019   7.552   5.298
20150SOL     OW62282  12.342  10.208   1.240
20150SOL    HW162283  12.255  10.201   1.278
20150SOL    HW262284  12.398  10.235   1.312
20151SOL     OW62285  12.092  10.682  11.379
20151SOL    HW162286  12.128  10.713  11.296
20151SOL    HW262287  12.014  10.735  11.392
20152SOL     OW62288  11.861  10.204   9.892
20152SOL    HW162289  11.770  10.177   9.882
20152SOL    HW262290  11.899  10.139   9.950
20153SOL     OW62291   2.342  14.677   9.386
20153SOL    HW162292   2.290  14.696   9.465
20153SOL    HW262293   2.425  14.720   9.402
20154SOL     OW62294   9.890   7.379   7.287
20154SOL    HW162295   9.837   7.419   7.356
20154SOL    HW262296   9.858   7.419   7.206
20155SOL     OW62297   3.993   4.708  10.111
20155SOL    HW162298   3.972   4.789  10.065
20155SOL    HW262299   4.085   4.692  10.090
20156SOL     OW62300   1.428   8.049  10.848
20156SOL    HW162301   1.357   8.072  10.908
20156SOL    HW262302   1.398   7.970  10.803
20157SOL     OW62303  14.451   7.021   4.994
20157SOL    HW162304  14.432   6.930   5.018
20157SOL    HW262305  14.419   7.029   4.904
20158SOL     OW62306   1.425   0.083  12.916
20158SOL    HW162307   1.401   0.013  12.977
20158SOL    HW262308   1.500   0.126  12.958
20159SOL     OW62309  10.778   0.260   6.152
20159SOL    HW162310  10.815   0.343   6.122
20159SOL    HW262311  10.767   0.208   6.073
20160SOL     OW62312  11.611  14.862   6.527
20160SOL    HW162313  11.656   0.067   6.515
20160SOL    HW262314  11.658  14.818   6.597
20161SOL     OW62315   0.475   4.881   9.578
20161SOL    HW162316   0.554   4.830   9.563
20161SOL    HW262317   0.429   4.881   9.494
20162SOL     OW62318   2.553   6.312  13.860
20162SOL    HW162319   2.486   6.251  13.829
20162SOL    HW262320   2.512   6.398  13.853
20163SOL     OW62321   0.560   3.035   2.212
20163SOL    HW162322   0.611   3.020   2.292
20163SOL    HW262323   0.528   2.949   2.188
20164SOL     OW62324  10.214  12.438   8.152
20164SOL    HW162325  10.297  12.418   8.194
20164SOL    HW262326  10.148  12.399   8.210
20165SOL     OW62327   9.310   2.122   2.696
20165SOL    HW162328   9.369   2.194   2.718
20165SOL    HW262329   9.301   2.126   2.601
20166SOL     OW62330  13.291   7.123   8.764
20166SOL    HW162331  13.322   7.163   8.683
20166SOL    HW262332  13.311   7.030   8.755
20167SOL     OW62333   6.519   5.835  14.130
20167SOL    HW162334   6.561   5.768  14.077
20167SOL    HW262335   6.591   5.878  14.176
20168SOL     OW62336   6.397   9.873   5.461
20168SOL    HW162337   6.387   9.845   5.552
20168SOL    HW262338   6.490   9.860   5.443
20169SOL     OW62339   1.233  14.852   6.837
20169SOL    HW162340   1.181  14.878   6.761
20169SOL    HW262341   1.323  14.875   6.813
20170SOL     OW62342   1.525   0.478  13.582
20170SOL    HW162343   1.531   0.404  13.642
20170SOL    HW262344   1.498   0.552  13.638
20171SOL     OW62345  10.280  13.993   0.549
20171SOL    HW162346  10.319  14.073   0.584
20171SOL    HW262347  10.354  13.933   0.538
20172SOL     OW62348   8.173   5.563   0.116
20172SOL    HW162349   8.206   5.504   0.048
20172SOL    HW262350   8.203   5.650   0.088
20173SOL     OW62351  12.854  14.095  12.196
20173SOL    HW162352  12.878  14.184  12.170
20173SOL    HW262353  12.900  14.082  12.279
20174SOL     OW62354  11.398  12.622   4.415
20174SOL    HW162355  11.393  12.565   4.492
20174SOL    HW262356  11.484  12.663   4.421
20175SOL     OW62357  13.113   0.313   0.823
20175SOL    HW162358  13.087   0.362   0.746
20175SOL    HW262359  13.043   0.329   0.887
20176SOL     OW62360   3.375  14.283  12.820
20176SOL    HW162361   3.441  14.281  12.890
20176SOL    HW262362   3.301  14.330  12.858
20177SOL     OW62363   4.329  11.203  12.154
20177SOL    HW162364   4.409  11.160  12.186
20177SOL    HW262365   4.262  11.180  12.219
20178SOL     OW62366   3.237   8.630   7.264
20178SOL    HW162367   3.325   8.591   7.268
20178SOL    HW262368   3.222   8.645   7.171
20179SOL     OW62369   1.951   7.058  13.563
20179SOL    HW162370   2.041   7.028  13.561
20179SOL    HW262371   1.901   6.982  13.592
20180SOL     OW62372   8.271  14.390  10.072
20180SOL    HW162373   8.357  14.356  10.098
20180SOL    HW262374   8.219  14.388  10.151
20181SOL     OW62375   6.155   7.403  12.672
20181SOL    HW162376   6.249   7.415  12.689
20181SOL    HW262377   6.113   7.425  12.755
20182SOL     OW62378  12.173   4.042   5.557
20182SOL    HW162379  12.127   4.116   5.518
20182SOL    HW262380  12.168   4.057   5.651
20183SOL     OW62381   1.101  12.115  13.487
20183SOL    HW162382   1.175  12.166  13.520
20183SOL    HW262383   1.135  12.026  13.480
20184SOL     OW62384   2.831   9.138   4.371
20184SOL    HW162385   2.738   9.140   4.349
20184SOL    HW262386   2.835   9.167   4.462
20185SOL     OW62387  12.193  10.669  11.126
20185SOL    HW162388  12.238  10.602  11.075
20185SOL    HW262389  12.107  10.677  11.086
20186SOL     OW62390   2.556   8.756   0.153
20186SOL    HW162391   2.533   8.721   0.066
20186SOL    HW262392   2.472   8.786   0.189
20187SOL     OW62393   6.211   8.503   2.635
20187SOL    HW162394   6.217   8.575   2.697
20187SOL    HW262395   6.246   8.540   2.553
20188SOL     OW62396   3.968   8.988  14.711
20188SOL    HW162397   3.961   8.920  14.644
20188SOL    HW262398   3.927   9.065  14.672
20189SOL     OW62399   6.134  14.625   0.814
20189SOL    HW162400   6.182  14.669   0.884
20189SOL    HW262401   6.053  14.596   0.856
20190SOL     OW62402   0.220   2.618   2.213
20190SOL    HW162403   0.128   2.620   2.187
20190SOL    HW262404   0.265   2.572   2.142
20191SOL     OW62405   9.901  11.371  13.274
20191SOL    HW162406   9.986  11.375  13.318
20191SOL    HW262407   9.862  11.458  13.288
20192SOL     OW62408  11.707  13.100   2.712
20192SOL    HW162409  11.760  13.134   2.784
20192SOL    HW262410  11.620  13.137   2.727
20193SOL     OW62411   7.959   7.445   1.810
20193SOL    HW162412   7.945   7.495   1.729
20193SOL    HW262413   7.883   7.466   1.865
20194SOL     OW62414   6.810   2.396   8.173
20194SOL    HW162415   6.723   2.435   8.183
20194SOL    HW262416   6.859   2.427   8.249
20195SOL     OW62417   4.143   0.476  12.045
20195SOL    HW162418   4.175   0.566  12.042
20195SOL    HW262419   4.072   0.474  11.980
20196SOL     OW62420  12.785  14.595   5.719
20196SOL    HW162421  12.825  14.509   5.727
20196SOL    HW262422  12.694  14.576   5.693
20197SOL     OW62423   8.555   0.212   9.480
20197SOL    HW162424   8.503   0.278   9.526
20197SOL    HW262425   8.499   0.184   9.407
20198SOL     OW62426  10.841   2.934   5.672
20198SOL    HW162427  10.908   2.992   5.708
20198SOL    HW262428  10.890   2.874   5.616
20199SOL     OW62429  13.823  11.549  13.283
20199SOL    HW162430  13.740  11.588  13.310
20199SOL    HW262431  13.834  11.474  13.340
20200SOL     OW62432  12.432  14.285   7.382
20200SOL    HW162433  12.418  14.374   7.350
20200SOL    HW262434  12.444  14.296   7.477
20201SOL     OW62435   3.150   4.797   0.511
20201SOL    HW162436   3.172   4.728   0.573
20201SOL    HW262437   3.182   4.764   0.427
20202SOL     OW62438   2.792   8.307   3.579
20202SOL    HW162439   2.739   8.386   3.594
20202SOL    HW262440   2.872   8.322   3.628
20203SOL     OW62441   8.395   9.666   1.136
20203SOL    HW162442   8.397   9.685   1.042
20203SOL    HW262443   8.350   9.582   1.142
20204SOL     OW62444  11.887  10.976  14.799
20204SOL    HW162445  11.792  10.990  14.800
20204SOL    HW262446  11.905  10.938  14.713
20205SOL     OW62447  14.634   9.019  14.695
20205SOL    HW162448  14.594   8.976  14.620
20205SOL    HW262449  14.574   9.091  14.717
20206SOL     OW62450   2.887   6.560   2.602
20206SOL    HW162451   2.934   6.512   2.670
20206SOL    HW262452   2.935   6.540   2.521
20207SOL     OW62453  12.652  14.333   2.233
20207SOL    HW162454  12.649  14.294   2.146
20207SOL    HW262455  12.630  14.261   2.292
20208SOL     OW62456   9.335   3.735   7.899
20208SOL    HW162457   9.367   3.649   7.873
20208SOL    HW262458   9.272   3.759   7.831
20209SOL     OW62459  13.058   0.833   2.946
20209SOL    HW162460  13.079   0.855   2.855
20209SOL    HW262461  13.093   0.745   2.958
20210SOL     OW62462   1.524   5.131   5.143
20210SOL    HW162463   1.617   5.121   5.124
20210SOL    HW262464   1.482   5.058   5.096
20211SOL     OW62465   6.993   8.825   5.746
20211SOL    HW162466   7.005   8.784   5.660
20211SOL    HW262467   7.016   8.917   5.733
20212SOL     OW62468  13.003   7.064   5.741
20212SOL    HW162469  13.000   7.071   5.836
20212SOL    HW262470  13.045   7.145   5.712
20213SOL     OW62471   9.570  10.087   3.804
20213SOL    HW162472   9.541  10.065   3.892
20213SOL    HW262473   9.660  10.116   3.815
20214SOL     OW62474  10.786  12.636   0.355
20214SOL    HW162475  10.798  12.621   0.449
20214SOL    HW262476  10.697  12.670   0.347
20215SOL     OW62477   2.505   5.716   9.772
20215SOL    HW162478   2.567   5.645   9.791
20215SOL    HW262479   2.500   5.766   9.854
20216SOL     OW62480  11.504  14.288   8.955
20216SOL    HW162481  11.418  14.252   8.936
20216SOL    HW262482  11.496  14.323   9.044
20217SOL     OW62483   4.359  10.840  14.258
20217SOL    HW162484   4.324  10.789  14.331
20217SOL    HW262485   4.281  10.864  14.207
20218SOL     OW62486  10.772  11.724   5.188
20218SOL    HW162487  10.858  11.753   5.220
20218SOL    HW262488  10.719  11.804   5.186
20219SOL     OW62489   4.124   6.590   6.925
20219SOL    HW162490   4.211   6.556   6.903
20219SOL    HW262491   4.063   6.523   6.892
20220SOL     OW62492   4.909   5.736   5.078
20220SOL    HW162493   4.964   5.662   5.106
20220SOL    HW262494   4.840   5.741   5.144
20221SOL     OW62495   0.571  13.909   8.811
20221SOL    HW162496   0.579  13.906   8.906
20221SOL    HW262497   0.520  13.832   8.788
20222SOL     OW62498   0.237   0.925   1.268
20222SOL    HW162499   0.307   0.980   1.302
20222SOL    HW262500   0.207   0.971   1.189
20223SOL     OW62501  12.375   0.959  11.460
20223SOL    HW162502  12.321   1.025  11.417
20223SOL    HW262503  12.353   0.877  11.416
20224SOL     OW62504   8.564  11.068   3.112
20224SOL    HW162505   8.624  11.138   3.134
20224SOL    HW262506   8.552  11.019   3.193
20225SOL     OW62507  14.247  11.994   5.401
20225SOL    HW162508  14.155  11.977   5.382
20225SOL    HW262509  14.246  12.072   5.457
20226SOL     OW62510  13.646   3.762   7.143
20226SOL    HW162511  13.668   3.811   7.223
20226SOL    HW262512  13.669   3.672   7.162
20227SOL     OW62513  13.091   4.338   4.738
20227SOL    HW162514  13.026   4.275   4.706
20227SOL    HW262515  13.096   4.404   4.669
20228SOL     OW62516  10.607  14.282   7.823
20228SOL    HW162517  10.534  14.336   7.791
20228SOL    HW262518  10.668  14.278   7.749
20229SOL     OW62519   4.552   0.114   2.318
20229SOL    HW162520   4.569   0.040   2.260
20229SOL    HW262521   4.476   0.087   2.369
20230SOL     OW62522  10.582  14.553   5.913
20230SOL    HW162523  10.557  14.627   5.969
20230SOL    HW262524  10.498  14.517   5.883
20231SOL     OW62525   6.386   7.748  10.002
20231SOL    HW162526   6.479   7.772  10.008
20231SOL    HW262527   6.341   7.831   9.986
20232SOL     OW62528   5.561   9.929   6.978
20232SOL    HW162529   5.504   9.857   6.952
20232SOL    HW262530   5.518   9.967   7.055
20233SOL     OW62531   2.204   6.691   0.923
20233SOL    HW162532   2.280   6.687   0.982
20233SOL    HW262533   2.223   6.627   0.855
20234SOL     OW62534   3.458   6.545   9.863
20234SOL    HW162535   3.456   6.613   9.796
20234SOL    HW262536   3.398   6.478   9.829
20235SOL     OW62537   9.144   5.664  10.286
20235SOL    HW162538   9.116   5.662  10.195
20235SOL    HW262539   9.229   5.619  10.286
20236SOL     OW62540   0.029  14.270   4.149
20236SOL    HW162541   0.054  14.344   4.094
20236SOL    HW262542   0.103  14.210   4.145
20237SOL     OW62543   5.446  11.583  13.165
20237SOL    HW162544   5.450  11.557  13.073
20237SOL    HW262545   5.446  11.679  13.163
20238SOL     OW62546   5.495  12.193   3.699
20238SOL    HW162547   5.534  12.141   3.629
20238SOL    HW262548   5.407  12.214   3.668
20239SOL     OW62549   5.834   4.465   1.518
20239SOL    HW162550   5.750   4.489   1.558
20239SOL    HW262551   5.898   4.520   1.564
20240SOL     OW62552  13.932   9.044   1.682
20240SOL    HW162553  14.008   8.994   1.651
20240SOL    HW262554  13.950   9.060   1.774
20241SOL     OW62555  14.642   4.520   8.914
20241SOL    HW162556  14.553   4.556   8.910
20241SOL    HW262557  14.645   4.475   8.998
20242SOL     OW62558   5.018   0.087   3.714
20242SOL    HW162559   4.942   0.033   3.735
20242SOL    HW262560   5.041   0.130   3.797
20243SOL     OW62561   0.773   9.835   8.043
20243SOL    HW162562   0.780   9.903   8.110
20243SOL    HW262563   0.773   9.883   7.960
20244SOL     OW62564  13.270   6.011   8.889
20244SOL    HW162565  13.176   6.031   8.894
20244SOL    HW262566  13.281   5.932   8.943
20245SOL     OW62567  13.287   8.674   3.373
20245SOL    HW162568  13.246   8.758   3.353
20245SOL    HW262569  13.236   8.611   3.322
20246SOL     OW62570   3.011   2.068  12.234
20246SOL    HW162571   2.918   2.081  12.248
20246SOL    HW262572   3.027   2.097  12.144
20247SOL     OW62573  12.902  14.839  13.682
20247SOL    HW162574  12.961   0.001  13.618
20247SOL    HW262575  12.926  14.747  13.682
20248SOL     OW62576  12.917  13.456   7.314
20248SOL    HW162577  12.891  13.548   7.316
20248SOL    HW262578  12.998  13.455   7.263
20249SOL     OW62579  11.786   0.560  12.023
20249SOL    HW162580  11.695   0.529  12.021
20249SOL    HW262581  11.826   0.523  11.944
20250SOL     OW62582   5.969   4.358   4.203
20250SOL    HW162583   5.981   4.437   4.254
20250SOL    HW262584   5.883   4.368   4.162
20251SOL     OW62585   4.025   9.550   6.392
20251SOL    HW162586   3.951   9.523   6.338
20251SOL    HW262587   3.995   9.630   6.435
20252SOL     OW62588   7.880  12.679   6.732
20252SOL    HW162589   7.928  12.649   6.655
20252SOL    HW262590   7.827  12.752   6.701
20253SOL     OW62591  14.124  11.188  11.688
20253SOL    HW162592  14.157  11.114  11.738
20253SOL    HW262593  14.034  11.200  11.718
20254SOL     OW62594   4.007   8.641  11.627
20254SOL    HW162595   3.927   8.623  11.578
20254SOL    HW262596   4.078   8.619  11.567
20255SOL     OW62597   0.178   2.766  10.037
20255SOL    HW162598   0.144   2.746   9.950
20255SOL    HW262599   0.107   2.743  10.097
20256SOL     OW62600   8.914  13.734  11.299
20256SOL    HW162601   8.961  13.704  11.377
20256SOL    HW262602   8.967  13.702  11.226
20257SOL     OW62603   1.563   5.057   9.135
20257SOL    HW162604   1.632   5.019   9.189
20257SOL    HW262605   1.503   4.984   9.118
20258SOL     OW62606  10.316   5.595  11.956
20258SOL    HW162607  10.374   5.551  11.893
20258SOL    HW262608  10.326   5.688  11.936
20259SOL     OW62609   7.652   9.666   3.558
20259SOL    HW162610   7.725   9.612   3.528
20259SOL    HW262611   7.578   9.606   3.561
20260SOL     OW62612   1.624   2.491   4.947
20260SOL    HW162613   1.651   2.420   5.007
20260SOL    HW262614   1.597   2.446   4.867
20261SOL     OW62615  13.847   0.780   9.141
20261SOL    HW162616  13.763   0.796   9.183
20261SOL    HW262617  13.906   0.844   9.182
20262SOL     OW62618   5.435  10.587  10.019
20262SOL    HW162619   5.458  10.497  10.040
20262SOL    HW262620   5.367  10.579   9.952
20263SOL     OW62621  11.825  13.031  13.391
20263SOL    HW162622  11.854  13.021  13.301
20263SOL    HW262623  11.866  12.958  13.438
20264SOL     OW62624   0.965   8.800   0.257
20264SOL    HW162625   0.876   8.823   0.285
20264SOL    HW262626   0.960   8.798   0.161
20265SOL     OW62627   1.348  12.857   5.819
20265SOL    HW162628   1.337  12.879   5.726
20265SOL    HW262629   1.294  12.920   5.866
20266SOL     OW62630   5.688  13.347   6.106
20266SOL    HW162631   5.747  13.304   6.166
20266SOL    HW262632   5.716  13.439   6.106
20267SOL     OW62633  10.076   5.354  13.939
20267SOL    HW162634  10.101   5.431  13.888
20267SOL    HW262635   9.983   5.365  13.956
20268SOL     OW62636  11.154   4.198   0.126
20268SOL    HW162637  11.105   4.281   0.122
20268SOL    HW262638  11.099   4.140   0.178
20269SOL     OW62639   5.404  13.745   3.072
20269SOL    HW162640   5.493  13.730   3.105
20269SOL    HW262641   5.347  13.702   3.135
20270SOL     OW62642   5.313   1.617   8.867
20270SOL    HW162643   5.308   1.698   8.918
20270SOL    HW262644   5.222   1.588   8.859
20271SOL     OW62645  14.622   2.346   0.529
20271SOL    HW162646  14.553   2.283   0.547
20271SOL    HW262647  14.603   2.378   0.440
20272SOL     OW62648   1.489  10.131  10.397
20272SOL    HW162649   1.453  10.208  10.439
20272SOL    HW262650   1.579  10.155  10.376
20273SOL     OW62651  14.512  14.290   5.849
20273SOL    HW162652  14.429  14.278   5.803
20273SOL    HW262653  14.556  14.205   5.841
20274SOL     OW62654   0.474   8.993   0.430
20274SOL    HW162655   0.536   9.050   0.383
20274SOL    HW262656   0.519   8.909   0.437
20275SOL     OW62657   4.649   3.242  11.925
20275SOL    HW162658   4.593   3.166  11.908
20275SOL    HW262659   4.645   3.293  11.844
20276SOL     OW62660  10.390  14.790  12.021
20276SOL    HW162661  10.345  14.870  12.047
20276SOL    HW262662  10.459  14.779  12.086
20277SOL     OW62663   6.420  14.192  10.551
20277SOL    HW162664   6.376  14.132  10.490
20277SOL    HW262665   6.481  14.136  10.600
20278SOL     OW62666  14.328   0.453   1.593
20278SOL    HW162667  14.336   0.492   1.680
20278SOL    HW262668  14.402   0.392   1.587
20279SOL     OW62669  10.311  11.699  10.816
20279SOL    HW162670  10.271  11.785  10.801
20279SOL    HW262671  10.347  11.705  10.905
20280SOL     OW62672   5.303  14.134   3.370
20280SOL    HW162673   5.368  14.119   3.301
20280SOL    HW262674   5.274  14.224   3.357
20281SOL     OW62675  12.659   7.822  14.240
20281SOL    HW162676  12.649   7.810  14.334
20281SOL    HW262677  12.670   7.734  14.205
20282SOL     OW62678   0.022  10.028   4.297
20282SOL    HW162679  14.868   9.939   4.284
20282SOL    HW262680  14.851  10.061   4.371
20283SOL     OW62681   5.958  11.457   7.502
20283SOL    HW162682   5.893  11.455   7.572
20283SOL    HW262683   5.918  11.511   7.434
20284SOL     OW62684   9.749  10.353   9.214
20284SOL    HW162685   9.705  10.269   9.214
20284SOL    HW262686   9.690  10.412   9.261
20285SOL     OW62687   8.253   7.759   4.155
20285SOL    HW162688   8.318   7.691   4.171
20285SOL    HW262689   8.304   7.840   4.152
20286SOL     OW62690   3.467   7.672  12.792
20286SOL    HW162691   3.463   7.622  12.874
20286SOL    HW262692   3.425   7.615  12.728
20287SOL     OW62693  10.808  13.220  14.150
20287SOL    HW162694  10.725  13.215  14.198
20287SOL    HW262695  10.783  13.221  14.058
20288SOL     OW62696   5.774   9.396   1.894
20288SOL    HW162697   5.777   9.450   1.815
20288SOL    HW262698   5.706   9.436   1.948
20289SOL     OW62699   6.172   9.836  13.036
20289SOL    HW162700   6.163   9.767  12.970
20289SOL    HW262701   6.266   9.847  13.047
20290SOL     OW62702   8.291   6.075   3.784
20290SOL    HW162703   8.351   6.008   3.817
20290SOL    HW262704   8.303   6.149   3.843
20291SOL     OW62705   0.295   7.544   2.477
20291SOL    HW162706   0.294   7.494   2.395
20291SOL    HW262707   0.367   7.506   2.527
20292SOL     OW62708   8.714   9.260   4.711
20292SOL    HW162709   8.771   9.289   4.782
20292SOL    HW262710   8.657   9.335   4.694
20293SOL     OW62711   8.928   1.849  12.377
20293SOL    HW162712   8.955   1.844  12.469
20293SOL    HW262713   8.875   1.770  12.363
20294SOL     OW62714   7.812   4.645  10.259
20294SOL    HW162715   7.887   4.611  10.308
20294SOL    HW262716   7.851   4.699  10.190
20295SOL     OW62717   3.839   5.360   4.406
20295SOL    HW162718   3.769   5.356   4.471
20295SOL    HW262719   3.801   5.406   4.331
20296SOL     OW62720   0.608   4.795   9.325
20296SOL    HW162721   0.582   4.854   9.255
20296SOL    HW262722   0.701   4.780   9.311
20297SOL     OW62723  11.134   8.111   1.047
20297SOL    HW162724  11.160   8.203   1.042
20297SOL    HW262725  11.131   8.092   1.141
20298SOL     OW62726  11.052   4.183   4.558
20298SOL    HW162727  11.116   4.116   4.535
20298SOL    HW262728  11.104   4.259   4.582
20299SOL     OW62729  10.957  11.260   7.231
20299SOL    HW162730  11.041  11.302   7.250
20299SOL    HW262731  10.980  11.182   7.180
20300SOL     OW62732   6.489  10.529   3.104
20300SOL    HW162733   6.477  10.478   3.024
20300SOL    HW262734   6.503  10.619   3.073
20301SOL     OW62735  13.177  11.226   1.082
20301SOL    HW162736  13.247  11.280   1.120
20301SOL    HW262737  13.192  11.230   0.988
20302SOL     OW62738   0.731  13.998   3.055
20302SOL    HW162739   0.728  14.089   3.026
20302SOL    HW262740   0.736  13.947   2.973
20303SOL     OW62741   3.776   6.474   4.082
20303SOL    HW162742   3.758   6.431   4.165
20303SOL    HW262743   3.867   6.503   4.089
20304SOL     OW62744   6.603   4.072   6.685
20304SOL    HW162745   6.682   4.048   6.734
20304SOL    HW262746   6.630   4.070   6.593
20305SOL     OW62747  11.678  11.123   9.593
20305SOL    HW162748  11.602  11.132   9.651
20305SOL    HW262749  11.661  11.184   9.522
20306SOL     OW62750   9.315   2.268   1.819
20306SOL    HW162751   9.357   2.228   1.895
20306SOL    HW262752   9.249   2.327   1.856
20307SOL     OW62753  12.393   3.234  10.056
20307SOL    HW162754  12.319   3.229   9.996
20307SOL    HW262755  12.470   3.221  10.001
20308SOL     OW62756   3.424   6.266   4.490
20308SOL    HW162757   3.450   6.272   4.582
20308SOL    HW262758   3.336   6.228   4.493
20309SOL     OW62759   2.714   9.533   0.095
20309SOL    HW162760   2.751   9.487   0.020
20309SOL    HW262761   2.663   9.604   0.057
20310SOL     OW62762   5.510  13.710  14.793
20310SOL    HW162763   5.514  13.743  14.704
20310SOL    HW262764   5.580  13.756  14.839
20311SOL     OW62765  11.466  12.200  14.370
20311SOL    HW162766  11.418  12.122  14.342
20311SOL    HW262767  11.406  12.273  14.355
20312SOL     OW62768  10.757   3.646  12.771
20312SOL    HW162769  10.697   3.634  12.697
20312SOL    HW262770  10.800   3.729  12.754
20313SOL     OW62771   4.578  13.175   0.568
20313SOL    HW162772   4.569  13.107   0.635
20313SOL    HW262773   4.581  13.257   0.617
20314SOL     OW62774   7.597  10.335   8.095
20314SOL    HW162775   7.661  10.338   8.166
20314SOL    HW262776   7.634  10.272   8.033
20315SOL     OW62777   3.693   0.255  10.679
20315SOL    HW162778   3.762   0.321  10.665
20315SOL    HW262779   3.611   0.303  10.665
20316SOL     OW62780   4.108   7.095   9.422
20316SOL    HW162781   4.019   7.103   9.456
20316SOL    HW262782   4.113   7.160   9.352
20317SOL     OW62783   1.255   3.959  10.473
20317SOL    HW162784   1.184   3.899  10.494
20317SOL    HW262785   1.334   3.913  10.501
20318SOL     OW62786  12.679  13.848   6.435
20318SOL    HW162787  12.706  13.897   6.513
20318SOL    HW262788  12.627  13.776   6.469
20319SOL     OW62789   6.665   8.313  11.498
20319SOL    HW162790   6.659   8.261  11.419
20319SOL    HW262791   6.598   8.276  11.556
20320SOL     OW62792   0.817   2.053   4.717
20320SOL    HW162793   0.728   2.035   4.747
20320SOL    HW262794   0.871   2.046   4.795
20321SOL     OW62795   5.095   8.485   2.197
20321SOL    HW162796   5.085   8.456   2.107
20321SOL    HW262797   5.186   8.513   2.203
20322SOL     OW62798  14.873   2.111  13.371
20322SOL    HW162799  14.861   2.106  13.276
20322SOL    HW262800  14.810   2.176  13.400
20323SOL     OW62801  14.109   4.720   6.092
20323SOL    HW162802  14.150   4.795   6.136
20323SOL    HW262803  14.180   4.659   6.076
20324SOL     OW62804   7.551   9.999   1.989
20324SOL    HW162805   7.509   9.922   1.951
20324SOL    HW262806   7.486  10.069   1.980
20325SOL     OW62807   1.307  12.072  14.507
20325SOL    HW162808   1.315  11.998  14.567
20325SOL    HW262809   1.318  12.150  14.562
20326SOL     OW62810  10.923  11.335  11.345
20326SOL    HW162811  10.968  11.255  11.373
20326SOL    HW262812  10.847  11.341  11.403
20327SOL     OW62813  13.270  10.332  14.735
20327SOL    HW162814  13.298  10.250  14.695
20327SOL    HW262815  13.194  10.310  14.787
20328SOL     OW62816   4.416  11.717   7.690
20328SOL    HW162817   4.509  11.729   7.671
20328SOL    HW262818   4.399  11.625   7.671
20329SOL     OW62819   1.354   0.894  14.485
20329SOL    HW162820   1.352   0.973  14.539
20329SOL    HW262821   1.262   0.878  14.463
20330SOL     OW62822  11.821   0.698   1.806
20330SOL    HW162823  11.809   0.673   1.714
20330SOL    HW262824  11.915   0.717   1.813
20331SOL     OW62825   5.875   2.508  13.461
20331SOL    HW162826   5.807   2.441  13.460
20331SOL    HW262827   5.874   2.543  13.372
20332SOL     OW62828  13.758   2.026   4.652
20332SOL    HW162829  13.733   2.117   4.666
20332SOL    HW262830  13.811   2.027   4.572
20333SOL     OW62831   9.607   1.294   6.305
20333SOL    HW162832   9.605   1.368   6.244
20333SOL    HW262833   9.571   1.221   6.255
20334SOL     OW62834   7.276   8.463   4.621
20334SOL    HW162835   7.231   8.544   4.599
20334SOL    HW262836   7.369   8.483   4.607
20335SOL     OW62837   6.294  12.325   8.100
20335SOL    HW162838   6.312  12.418   8.083
20335SOL    HW262839   6.365  12.278   8.057
20336SOL     OW62840   6.773  11.596   4.667
20336SOL    HW162841   6.712  11.571   4.737
20336SOL    HW262842   6.718  11.639   4.601
20337SOL     OW62843   7.659   6.874   3.688
20337SOL    HW162844   7.652   6.875   3.784
20337SOL    HW262845   7.586   6.818   3.661
20338SOL     OW62846   8.130  14.170   7.998
20338SOL    HW162847   8.069  14.214   8.058
20338SOL    HW262848   8.094  14.185   7.911
20339SOL     OW62849   8.112   2.009  11.607
20339SOL    HW162850   8.104   2.048  11.521
20339SOL    HW262851   8.143   1.920  11.591
20340SOL     OW62852  13.589   3.995   0.694
20340SOL    HW162853  13.509   4.048   0.701
20340SOL    HW262854  13.625   4.018   0.609
20341SOL     OW62855  13.088   4.293   5.732
20341SOL    HW162856  13.040   4.285   5.814
20341SOL    HW262857  13.040   4.358   5.682
20342SOL     OW62858   1.903   1.098   8.005
20342SOL    HW162859   1.817   1.061   7.985
20342SOL    HW262860   1.908   1.178   7.953
20343SOL     OW62861   9.152   9.926   7.039
20343SOL    HW162862   9.146   9.875   6.958
20343SOL    HW262863   9.161   9.861   7.108
20344SOL     OW62864   9.873   7.680  14.706
20344SOL    HW162865   9.846   7.748  14.768
20344SOL    HW262866   9.871   7.724  14.621
20345SOL     OW62867  11.388   9.034   5.495
20345SOL    HW162868  11.335   9.097   5.447
20345SOL    HW262869  11.326   8.987   5.551
20346SOL     OW62870  14.151  14.686  10.143
20346SOL    HW162871  14.138  14.768  10.189
20346SOL    HW262872  14.091  14.625  10.185
20347SOL     OW62873   8.633  11.316  13.450
20347SOL    HW162874   8.689  11.393  13.457
20347SOL    HW262875   8.683  11.246  13.491
20348SOL     OW62876  11.040   2.521   6.424
20348SOL    HW162877  10.961   2.558   6.462
20348SOL    HW262878  11.064   2.449   6.484
20349SOL     OW62879   9.856   6.776   0.004
20349SOL    HW162880   9.905   6.814   0.077
20349SOL    HW262881   9.910   6.703  14.853
20350SOL     OW62882  13.661   3.008   0.906
20350SOL    HW162883  13.591   2.943   0.910
20350SOL    HW262884  13.616   3.090   0.886
20351SOL     OW62885  10.776   5.195   9.110
20351SOL    HW162886  10.756   5.203   9.203
20351SOL    HW262887  10.721   5.260   9.067
20352SOL     OW62888   0.141  14.729   3.274
20352SOL    HW162889   0.107  14.650   3.232
20352SOL    HW262890   0.228  14.705   3.305
20353SOL     OW62891   0.459   4.656  12.101
20353SOL    HW162892   0.546   4.619  12.104
20353SOL    HW262893   0.450   4.691  12.012
20354SOL     OW62894   5.735  12.877   5.372
20354SOL    HW162895   5.739  12.972   5.374
20354SOL    HW262896   5.708  12.856   5.283
20355SOL     OW62897   3.835   2.712   9.523
20355SOL    HW162898   3.776   2.770   9.475
20355SOL    HW262899   3.918   2.759   9.525
20356SOL     OW62900   5.524  12.832  13.083
20356SOL    HW162901   5.443  12.799  13.042
20356SOL    HW262902   5.509  12.926  13.094
20357SOL     OW62903   0.226   6.251   5.689
20357SOL    HW162904   0.303   6.260   5.745
20357SOL    HW262905   0.207   6.341   5.660
20358SOL     OW62906  14.073   3.346   0.525
20358SOL    HW162907  14.056   3.305   0.440
20358SOL    HW262908  14.086   3.439   0.504
20359SOL     OW62909  10.958  11.517  12.326
20359SOL    HW162910  11.034  11.567  12.296
20359SOL    HW262911  10.891  11.531  12.259
20360SOL     OW62912   3.948   5.444   7.787
20360SOL    HW162913   3.937   5.532   7.749
20360SOL    HW262914   3.956   5.459   7.881
20361SOL     OW62915  12.307   6.924  13.937
20361SOL    HW162916  12.331   6.925  14.030
20361SOL    HW262917  12.320   6.833  13.911
20362SOL     OW62918   4.077   7.596   9.341
20362SOL    HW162919   4.110   7.685   9.350
20362SOL    HW262920   4.067   7.564   9.431
20363SOL     OW62921   8.962   4.368   7.608
20363SOL    HW162922   8.918   4.452   7.622
20363SOL    HW262923   8.970   4.330   7.696
20364SOL     OW62924   1.540   5.723  13.757
20364SOL    HW162925   1.603   5.795  13.757
20364SOL    HW262926   1.455   5.766  13.744
20365SOL     OW62927   4.048   0.950   2.082
20365SOL    HW162928   3.960   0.912   2.076
20365SOL    HW262929   4.049   0.992   2.168
20366SOL     OW62930  13.480   7.160  12.944
20366SOL    HW162931  13.553   7.174  12.884
20366SOL    HW262932  13.507   7.086  12.998
20367SOL     OW62933   0.361   4.337   9.663
20367SOL    HW162934   0.274   4.308   9.693
20367SOL    HW262935   0.356   4.432   9.662
20368SOL     OW62936   4.640   2.088  10.151
20368SOL    HW162937   4.689   2.092  10.069
20368SOL    HW262938   4.583   2.011  10.142
20369SOL     OW62939   8.644  14.497  12.907
20369SOL    HW162940   8.680  14.452  12.983
20369SOL    HW262941   8.642  14.590  12.933
20370SOL     OW62942   7.012   7.551   1.176
20370SOL    HW162943   7.077   7.519   1.238
20370SOL    HW262944   6.935   7.571   1.229
20371SOL     OW62945   4.161   4.368  10.445
20371SOL    HW162946   4.091   4.357  10.381
20371SOL    HW262947   4.117   4.370  10.530
20372SOL     OW62948  14.547   1.942   1.305
20372SOL    HW162949  14.506   1.954   1.390
20372SOL    HW262950  14.595   2.024   1.289
20373SOL     OW62951   7.633   0.897   1.739
20373SOL    HW162952   7.609   0.848   1.660
20373SOL    HW262953   7.728   0.905   1.735
20374SOL     OW62954   7.929   5.937   9.613
20374SOL    HW162955   7.906   5.981   9.531
20374SOL    HW262956   7.855   5.955   9.671
20375SOL     OW62957  11.990  10.020   7.308
20375SOL    HW162958  11.910   9.999   7.260
20375SOL    HW262959  12.048   9.945   7.292
20376SOL     OW62960  12.628  13.406   5.438
20376SOL    HW162961  12.621  13.458   5.358
20376SOL    HW262962  12.645  13.317   5.407
20377SOL     OW62963   9.362   9.701   8.674
20377SOL    HW162964   9.292   9.754   8.637
20377SOL    HW262965   9.319   9.648   8.741
20378SOL     OW62966   1.183   9.348   3.036
20378SOL    HW162967   1.244   9.351   2.962
20378SOL    HW262968   1.223   9.285   3.097
20379SOL     OW62969   4.730   3.911   6.677
20379SOL    HW162970   4.808   3.891   6.729
20379SOL    HW262971   4.727   4.006   6.673
20380SOL     OW62972  11.048  11.578  13.569
20380SOL    HW162973  10.974  11.567  13.628
20380SOL    HW262974  11.013  11.557  13.482
20381SOL     OW62975   7.482   1.884   9.929
20381SOL    HW162976   7.529   1.938   9.993
20381SOL    HW262977   7.534   1.805   9.922
20382SOL     OW62978   9.481   7.208  11.955
20382SOL    HW162979   9.424   7.206  11.878
20382SOL    HW262980   9.493   7.302  11.973
20383SOL     OW62981  14.861   0.150  10.693
20383SOL    HW162982  14.789   0.111  10.743
20383SOL    HW262983   0.058   0.144  10.751
20384SOL     OW62984  13.595  14.817   4.732
20384SOL    HW162985  13.680  14.828   4.775
20384SOL    HW262986  13.541   0.010   4.766
20385SOL     OW62987   4.579   1.661   8.899
20385SOL    HW162988   4.647   1.595   8.882
20385SOL    HW262989   4.508   1.612   8.940
20386SOL     OW62990   3.461   5.899   1.704
20386SOL    HW162991   3.370   5.904   1.733
20386SOL    HW262992   3.455   5.897   1.609
20387SOL     OW62993   4.756   4.674   1.058
20387SOL    HW162994   4.847   4.701   1.070
20387SOL    HW262995   4.762   4.590   1.012
20388SOL     OW62996   1.314  14.619   5.863
20388SOL    HW162997   1.376  14.684   5.830
20388SOL    HW262998   1.357  14.535   5.848
20389SOL     OW62999   4.866   2.874  10.437
20389SOL    HW163000   4.897   2.854  10.348
20389SOL    HW263001   4.853   2.788  10.477
20390SOL     OW63002   6.761  14.761   3.998
20390SOL    HW163003   6.685  14.711   4.027
20390SOL    HW263004   6.758  14.842   4.049
20391SOL     OW63005  11.504  14.810   4.161
20391SOL    HW163006  11.429  14.754   4.178
20391SOL    HW263007  11.580  14.756   4.183
20392SOL     OW63008  11.281   9.823   0.573
20392SOL    HW163009  11.287   9.731   0.547
20392SOL    HW263010  11.371   9.848   0.594
20393SOL     OW63011   3.337   0.566   2.736
20393SOL    HW163012   3.325   0.476   2.705
20393SOL    HW263013   3.259   0.582   2.790
20394SOL     OW63014   6.711   6.987   2.861
20394SOL    HW163015   6.713   7.051   2.932
20394SOL    HW263016   6.628   6.940   2.873
20395SOL     OW63017   3.766   2.391  10.761
20395SOL    HW163018   3.823   2.397  10.684
20395SOL    HW263019   3.771   2.299  10.787
20396SOL     OW63020   9.122   5.262   5.499
20396SOL    HW163021   9.147   5.319   5.572
20396SOL    HW263022   9.152   5.309   5.421
20397SOL     OW63023   2.731  10.053   4.729
20397SOL    HW163024   2.707  10.127   4.674
20397SOL    HW263025   2.743   9.980   4.669
20398SOL     OW63026   8.922   4.651  13.026
20398SOL    HW163027   8.874   4.718  13.075
20398SOL    HW263028   8.926   4.686  12.937
20399SOL     OW63029  11.683   5.328   9.285
20399SOL    HW163030  11.766   5.282   9.275
20399SOL    HW263031  11.639   5.280   9.356
20400SOL     OW63032   1.137   5.357  11.098
20400SOL    HW163033   1.112   5.265  11.105
20400SOL    HW263034   1.198   5.370  11.170
20401SOL     OW63035   8.560  12.087  12.140
20401SOL    HW163036   8.523  12.052  12.059
20401SOL    HW263037   8.511  12.044  12.210
20402SOL     OW63038   4.770   8.879   8.380
20402SOL    HW163039   4.786   8.802   8.435
20402SOL    HW263040   4.723   8.845   8.304
20403SOL     OW63041   2.087   8.605  10.823
20403SOL    HW163042   2.163   8.571  10.870
20403SOL    HW263043   2.108   8.697  10.806
20404SOL     OW63044  11.268   4.579   6.402
20404SOL    HW163045  11.193   4.613   6.450
20404SOL    HW263046  11.264   4.484   6.414
20405SOL     OW63047   0.567   5.692   2.079
20405SOL    HW163048   0.527   5.684   2.166
20405SOL    HW263049   0.519   5.763   2.038
20406SOL     OW63050  11.073   1.567   2.289
20406SOL    HW163051  10.993   1.590   2.241
20406SOL    HW263052  11.057   1.597   2.378
20407SOL     OW63053   1.782   9.107  10.219
20407SOL    HW163054   1.700   9.129  10.263
20407SOL    HW263055   1.843   9.176  10.247
20408SOL     OW63056   6.133   3.479  12.479
20408SOL    HW163057   6.202   3.543  12.458
20408SOL    HW263058   6.177   3.394  12.474
20409SOL     OW63059   3.926   2.813   5.689
20409SOL    HW163060   3.891   2.877   5.627
20409SOL    HW263061   3.871   2.735   5.678
20410SOL     OW63062   4.541   0.899  13.369
20410SOL    HW163063   4.621   0.924  13.415
20410SOL    HW263064   4.571   0.843  13.297
20411SOL     OW63065  10.568  13.754   5.591
20411SOL    HW163066  10.558  13.740   5.685
20411SOL    HW263067  10.487  13.799   5.565
20412SOL     OW63068  12.306   2.038  11.795
20412SOL    HW163069  12.392   2.043  11.837
20412SOL    HW263070  12.309   1.959  11.741
20413SOL     OW63071  14.707  10.196  13.412
20413SOL    HW163072  14.725  10.110  13.450
20413SOL    HW263073  14.631  10.182  13.355
20414SOL     OW63074  12.525   5.532   5.614
20414SOL    HW163075  12.497   5.453   5.660
20414SOL    HW263076  12.444   5.572   5.583
20415SOL     OW63077   2.127  12.661   0.824
20415SOL    HW163078   2.095  12.653   0.914
20415SOL    HW263079   2.162  12.575   0.803
20416SOL     OW63080  12.651  12.505   6.816
20416SOL    HW163081  12.575  12.539   6.767
20416SOL    HW263082  12.721  12.503   6.751
20417SOL     OW63083   8.240   0.810   7.207
20417SOL    HW163084   8.323   0.785   7.168
20417SOL    HW263085   8.215   0.891   7.163
20418SOL     OW63086   8.682   8.142  11.504
20418SOL    HW163087   8.620   8.075  11.475
20418SOL    HW263088   8.643   8.224  11.474
20419SOL     OW63089  10.329  11.427   7.041
20419SOL    HW163090  10.294  11.460   7.123
20419SOL    HW263091  10.291  11.485   6.974
20420SOL     OW63092   4.264   0.005  14.113
20420SOL    HW163093   4.202   0.029  14.182
20420SOL    HW263094   4.242   0.062  14.040
20421SOL     OW63095  14.296  11.124   9.891
20421SOL    HW163096  14.213  11.083   9.917
20421SOL    HW263097  14.308  11.096   9.800
20422SOL     OW63098   1.964   8.259   2.126
20422SOL    HW163099   2.015   8.333   2.159
20422SOL    HW263100   1.907   8.297   2.059
20423SOL     OW63101   4.445   3.670   5.644
20423SOL    HW163102   4.412   3.731   5.577
20423SOL    HW263103   4.529   3.709   5.671
20424SOL     OW63104  13.690  12.544   7.634
20424SOL    HW163105  13.684  12.506   7.546
20424SOL    HW263106  13.688  12.468   7.693
20425SOL     OW63107  11.304   9.586   6.038
20425SOL    HW163108  11.310   9.667   5.986
20425SOL    HW263109  11.211   9.573   6.051
20426SOL     OW63110   1.204  10.361   3.387
20426SOL    HW163111   1.221  10.342   3.479
20426SOL    HW263112   1.248  10.445   3.371
20427SOL     OW63113   1.098   3.226   7.047
20427SOL    HW163114   1.152   3.293   7.005
20427SOL    HW263115   1.046   3.274   7.111
20428SOL     OW63116   5.191  14.281  10.661
20428SOL    HW163117   5.148  14.221  10.722
20428SOL    HW263118   5.244  14.338  10.717
20429SOL     OW63119   0.500   9.816  14.178
20429SOL    HW163120   0.445   9.870  14.235
20429SOL    HW263121   0.558   9.878  14.134
20430SOL     OW63122   7.188  10.063  11.252
20430SOL    HW163123   7.110  10.010  11.234
20430SOL    HW263124   7.182  10.085  11.345
20431SOL     OW63125   3.978   3.366   3.036
20431SOL    HW163126   4.030   3.342   2.959
20431SOL    HW263127   4.041   3.405   3.097
20432SOL     OW63128  13.540   4.476   3.750
20432SOL    HW163129  13.516   4.443   3.838
20432SOL    HW263130  13.544   4.571   3.760
20433SOL     OW63131   5.250  12.243  12.652
20433SOL    HW163132   5.288  12.303  12.716
20433SOL    HW263133   5.303  12.163  12.659
20434SOL     OW63134   5.913  11.750   6.186
20434SOL    HW163135   5.923  11.831   6.135
20434SOL    HW263136   5.862  11.777   6.263
20435SOL     OW63137   7.523   1.289   2.799
20435SOL    HW163138   7.462   1.248   2.860
20435SOL    HW263139   7.468   1.331   2.734
20436SOL     OW63140   7.579  10.186   9.991
20436SOL    HW163141   7.629  10.136  10.055
20436SOL    HW263142   7.487  10.170  10.015
20437SOL     OW63143   0.582   8.941   7.166
20437SOL    HW163144   0.647   8.980   7.108
20437SOL    HW263145   0.631   8.876   7.216
20438SOL     OW63146   4.277   6.493   2.323
20438SOL    HW163147   4.191   6.491   2.282
20438SOL    HW263148   4.265   6.449   2.407
20439SOL     OW63149  12.244   2.731  12.953
20439SOL    HW163150  12.246   2.726  12.858
20439SOL    HW263151  12.252   2.824  12.973
20440SOL     OW63152   9.782  11.669   8.820
20440SOL    HW163153   9.815  11.583   8.793
20440SOL    HW263154   9.696  11.675   8.779
20441SOL     OW63155   1.563   8.644   6.554
20441SOL    HW163156   1.488   8.702   6.568
20441SOL    HW263157   1.633   8.701   6.523
20442SOL     OW63158   3.582  11.414   4.790
20442SOL    HW163159   3.553  11.325   4.771
20442SOL    HW263160   3.564  11.462   4.709
20443SOL     OW63161   1.489  10.492   5.780
20443SOL    HW163162   1.571  10.454   5.812
20443SOL    HW263163   1.510  10.583   5.759
20444SOL     OW63164   8.832   8.540  14.607
20444SOL    HW163165   8.802   8.494  14.686
20444SOL    HW263166   8.751   8.568  14.564
20445SOL     OW63167   1.898  14.375  13.464
20445SOL    HW163168   1.956  14.375  13.540
20445SOL    HW263169   1.862  14.464  13.461
20446SOL     OW63170  10.853   7.237  14.596
20446SOL    HW163171  10.880   7.326  14.622
20446SOL    HW263172  10.929   7.182  14.616
20447SOL     OW63173  13.118   1.023   0.499
20447SOL    HW163174  13.183   1.020   0.429
20447SOL    HW263175  13.160   0.977   0.572
20448SOL     OW63176  13.455  12.505   9.769
20448SOL    HW163177  13.417  12.569   9.830
20448SOL    HW263178  13.456  12.423   9.818
20449SOL     OW63179   7.326   9.951  14.666
20449SOL    HW163180   7.336   9.863  14.702
20449SOL    HW263181   7.344  10.009  14.740
20450SOL     OW63182   0.606  11.851   4.386
20450SOL    HW163183   0.567  11.937   4.369
20450SOL    HW263184   0.634  11.856   4.477
20451SOL     OW63185   7.073   2.129   3.441
20451SOL    HW163186   7.106   2.039   3.435
20451SOL    HW263187   7.052   2.141   3.533
20452SOL     OW63188   8.227   3.914  10.184
20452SOL    HW163189   8.136   3.944  10.176
20452SOL    HW263190   8.273   3.988  10.223
20453SOL     OW63191   1.728  14.152   0.978
20453SOL    HW163192   1.636  14.126   0.985
20453SOL    HW263193   1.741  14.214   1.050
20454SOL     OW63194   9.665   9.329   6.127
20454SOL    HW163195   9.651   9.414   6.086
20454SOL    HW263196   9.669   9.348   6.221
20455SOL     OW63197  12.831   6.723   3.822
20455SOL    HW163198  12.854   6.630   3.817
20455SOL    HW263199  12.759   6.734   3.761
20456SOL     OW63200   7.963   0.614   8.178
20456SOL    HW163201   7.945   0.708   8.179
20456SOL    HW263202   8.054   0.606   8.207
20457SOL     OW63203   9.852   0.800  11.494
20457SOL    HW163204   9.924   0.782  11.555
20457SOL    HW263205   9.788   0.847  11.547
20458SOL     OW63206   0.873   1.327  10.976
20458SOL    HW163207   0.860   1.421  10.971
20458SOL    HW263208   0.795   1.294  11.021
20459SOL     OW63209   5.400   4.191   1.478
20459SOL    HW163210   5.458   4.160   1.410
20459SOL    HW263211   5.458   4.221   1.548
20460SOL     OW63212   0.387   4.731  11.101
20460SOL    HW163213   0.371   4.760  11.011
20460SOL    HW263214   0.479   4.751  11.117
20461SOL     OW63215   6.730   7.779   7.658
20461SOL    HW163216   6.757   7.865   7.692
20461SOL    HW263217   6.638   7.791   7.634
20462SOL     OW63218   3.421   8.116   9.387
20462SOL    HW163219   3.402   8.035   9.339
20462SOL    HW263220   3.388   8.099   9.475
20463SOL     OW63221  12.766   0.566   8.438
20463SOL    HW163222  12.729   0.642   8.394
20463SOL    HW263223  12.692   0.527   8.485
20464SOL     OW63224  14.112   5.862   6.555
20464SOL    HW163225  14.148   5.851   6.467
20464SOL    HW263226  14.153   5.942   6.588
20465SOL     OW63227   4.374   8.429  13.492
20465SOL    HW163228   4.291   8.392  13.521
20465SOL    HW263229   4.362   8.444  13.398
20466SOL     OW63230   7.934   9.664  10.766
20466SOL    HW163231   7.879   9.589  10.788
20466SOL    HW263232   8.021   9.642  10.800
20467SOL     OW63233  11.574  13.537   5.775
20467SOL    HW163234  11.627  13.616   5.771
20467SOL    HW263235  11.514  13.545   5.701
20468SOL     OW63236  14.131   4.447  13.051
20468SOL    HW163237  14.221   4.480  13.053
20468SOL    HW263238  14.093   4.487  12.973
20469SOL     OW63239   5.590   0.064   7.063
20469SOL    HW163240   5.653   0.015   7.117
20469SOL    HW263241   5.589   0.017   6.980
20470SOL     OW63242   7.131   0.232   9.839
20470SOL    HW163243   7.091   0.171   9.776
20470SOL    HW263244   7.225   0.213   9.833
20471SOL     OW63245   3.554   2.499   9.710
20471SOL    HW163246   3.582   2.535   9.626
20471SOL    HW263247   3.469   2.459   9.691
20472SOL     OW63248   9.339   0.238   0.861
20472SOL    HW163249   9.345   0.313   0.920
20472SOL    HW263250   9.250   0.204   0.875
20473SOL     OW63251  12.057   3.407  14.522
20473SOL    HW163252  12.127   3.353  14.557
20473SOL    HW263253  12.092   3.444  14.441
20474SOL     OW63254  13.775   1.516  11.357
20474SOL    HW163255  13.752   1.452  11.424
20474SOL    HW263256  13.705   1.582  11.362
20475SOL     OW63257   3.161  13.063   2.881
20475SOL    HW163258   3.215  13.093   2.955
20475SOL    HW263259   3.086  13.020   2.922
20476SOL     OW63260  11.046  11.004  13.007
20476SOL    HW163261  11.041  10.911  12.987
20476SOL    HW263262  11.039  11.048  12.923
20477SOL     OW63263  12.007  14.559   9.199
20477SOL    HW163264  11.947  14.595   9.135
20477SOL    HW263265  12.011  14.465   9.179
20478SOL     OW63266  10.994   9.924   4.597
20478SOL    HW163267  11.069   9.979   4.576
20478SOL    HW263268  10.918   9.979   4.580
20479SOL     OW63269   2.951   7.349   9.622
20479SOL    HW163270   2.902   7.336   9.541
20479SOL    HW263271   2.895   7.314   9.690
20480SOL     OW63272  11.024   0.194  13.008
20480SOL    HW163273  11.085   0.239  12.949
20480SOL    HW263274  11.000   0.114  12.962
20481SOL     OW63275   1.788   4.345  13.105
20481SOL    HW163276   1.762   4.258  13.074
20481SOL    HW263277   1.850   4.376  13.040
20482SOL     OW63278   2.625   4.520   1.117
20482SOL    HW163279   2.561   4.542   1.184
20482SOL    HW263280   2.647   4.604   1.076
20483SOL     OW63281  12.664  11.111  14.473
20483SOL    HW163282  12.727  11.143  14.408
20483SOL    HW263283  12.716  11.095  14.552
20484SOL     OW63284  13.283  13.335  14.358
20484SOL    HW163285  13.191  13.309  14.362
20484SOL    HW263286  13.297  13.356  14.266
20485SOL     OW63287   3.462   9.910   9.571
20485SOL    HW163288   3.411   9.842   9.526
20485SOL    HW263289   3.461   9.984   9.511
20486SOL     OW63290   8.218   8.818   9.924
20486SOL    HW163291   8.143   8.861   9.882
20486SOL    HW263292   8.219   8.853  10.013
20487SOL     OW63293   3.416   3.161  12.163
20487SOL    HW163294   3.321   3.171  12.177
20487SOL    HW263295   3.423   3.082  12.109
20488SOL     OW63296   8.044  10.678   7.191
20488SOL    HW163297   8.098  10.615   7.145
20488SOL    HW263298   8.055  10.760   7.142
20489SOL     OW63299   8.873   7.189   0.932
20489SOL    HW163300   8.815   7.175   1.007
20489SOL    HW263301   8.960   7.193   0.970
20490SOL     OW63302   6.463   2.689   3.293
20490SOL    HW163303   6.455   2.598   3.323
20490SOL    HW263304   6.554   2.712   3.313
20491SOL     OW63305   9.309   7.990   6.936
20491SOL    HW163306   9.239   7.998   7.000
20491SOL    HW263307   9.377   7.941   6.982
20492SOL     OW63308   5.730   5.928   4.082
20492SOL    HW163309   5.701   6.009   4.040
20492SOL    HW263310   5.660   5.865   4.062
20493SOL     OW63311   1.535   2.306  13.088
20493SOL    HW163312   1.541   2.372  13.020
20493SOL    HW263313   1.584   2.343  13.162
20494SOL     OW63314   4.909   4.917  13.457
20494SOL    HW163315   4.884   4.863  13.383
20494SOL    HW263316   4.894   4.862  13.534
20495SOL     OW63317   2.349   5.688  10.768
20495SOL    HW163318   2.295   5.763  10.744
20495SOL    HW263319   2.305   5.650  10.844
20496SOL     OW63320   0.109   6.321   4.392
20496SOL    HW163321   0.185   6.375   4.414
20496SOL    HW263322   0.117   6.306   4.298
20497SOL     OW63323  14.261  12.036   3.081
20497SOL    HW163324  14.241  12.129   3.093
20497SOL    HW263325  14.186  11.990   3.119
20498SOL     OW63326  13.153   5.161   6.781
20498SOL    HW163327  13.174   5.077   6.741
20498SOL    HW263328  13.210   5.166   6.858
20499SOL     OW63329   5.295  10.569  13.856
20499SOL    HW163330   5.368  10.629  13.847
20499SOL    HW263331   5.253  10.568  13.770
20500SOL     OW63332   6.053   5.727  12.344
20500SOL    HW163333   6.069   5.793  12.277
20500SOL    HW263334   5.979   5.762  12.395
20501SOL     OW63335   8.936   9.707   6.695
20501SOL    HW163336   8.885   9.781   6.729
20501SOL    HW263337   8.872   9.652   6.652
20502SOL     OW63338   7.686   2.093  12.511
20502SOL    HW163339   7.679   2.170  12.454
20502SOL    HW263340   7.763   2.111  12.566
20503SOL     OW63341   0.768  10.854  11.565
20503SOL    HW163342   0.816  10.793  11.508
20503SOL    HW263343   0.836  10.893  11.620
20504SOL     OW63344   9.265  10.617   2.613
20504SOL    HW163345   9.352  10.617   2.652
20504SOL    HW263346   9.279  10.648   2.524
20505SOL     OW63347   0.489  10.097   8.635
20505SOL    HW163348   0.436  10.156   8.689
20505SOL    HW263349   0.458  10.009   8.658
20506SOL     OW63350   7.031  12.079  10.850
20506SOL    HW163351   7.087  12.138  10.799
20506SOL    HW263352   6.992  12.135  10.917
20507SOL     OW63353   8.378   8.335   9.419
20507SOL    HW163354   8.458   8.368   9.460
20507SOL    HW263355   8.307   8.369   9.474
20508SOL     OW63356  11.942   0.712   9.497
20508SOL    HW163357  11.880   0.746   9.432
20508SOL    HW263358  11.895   0.641   9.540
20509SOL     OW63359   3.607   9.746   1.601
20509SOL    HW163360   3.536   9.745   1.538
20509SOL    HW263361   3.657   9.666   1.583
20510SOL     OW63362  10.219  13.963  11.431
20510SOL    HW163363  10.142  13.910  11.453
20510SOL    HW263364  10.288  13.930  11.489
20511SOL     OW63365  12.897  10.534   7.001
20511SOL    HW163366  12.870  10.501   7.087
20511SOL    HW263367  12.840  10.488   6.939
20512SOL     OW63368   3.868  10.943   6.272
20512SOL    HW163369   3.818  10.935   6.191
20512SOL    HW263370   3.882  10.853   6.300
20513SOL     OW63371  12.591   5.732  13.721
20513SOL    HW163372  12.518   5.670  13.721
20513SOL    HW263373  12.668   5.677  13.737
20514SOL     OW63374  12.429   1.903   9.346
20514SOL    HW163375  12.483   1.849   9.404
20514SOL    HW263376  12.346   1.856   9.340
20515SOL     OW63377  14.146  13.004  12.406
20515SOL    HW163378  14.154  12.962  12.321
20515SOL    HW263379  14.053  12.998  12.427
20516SOL     OW63380  12.699   9.414   8.528
20516SOL    HW163381  12.760   9.352   8.488
20516SOL    HW263382  12.715   9.497   8.482
20517SOL     OW63383   3.827  11.582   5.080
20517SOL    HW163384   3.818  11.497   5.038
20517SOL    HW263385   3.911  11.577   5.127
20518SOL     OW63386  13.532   1.363   9.990
20518SOL    HW163387  13.540   1.455   9.964
20518SOL    HW263388  13.438   1.344   9.984
20519SOL     OW63389  10.636   8.575   0.608
20519SOL    HW163390  10.563   8.513   0.610
20519SOL    HW263391  10.642   8.603   0.517
20520SOL     OW63392   6.874   8.505   7.747
20520SOL    HW163393   6.869   8.498   7.652
20520SOL    HW263394   6.798   8.456   7.779
20521SOL     OW63395   0.928  14.788   8.949
20521SOL    HW163396   0.871  14.864   8.960
20521SOL    HW263397   0.869  14.713   8.957
20522SOL     OW63398  10.484  14.786   9.317
20522SOL    HW163399  10.547  14.856   9.298
20522SOL    HW263400  10.536  14.719   9.362
20523SOL     OW63401   7.405  11.499   4.298
20523SOL    HW163402   7.322  11.452   4.307
20523SOL    HW263403   7.390  11.582   4.343
20524SOL     OW63404   9.808   7.254   2.699
20524SOL    HW163405   9.901   7.254   2.723
20524SOL    HW263406   9.786   7.161   2.689
20525SOL     OW63407  14.515  13.166   0.498
20525SOL    HW163408  14.526  13.254   0.533
20525SOL    HW263409  14.562  13.167   0.414
20526SOL     OW63410   4.261   5.535   4.048
20526SOL    HW163411   4.242   5.548   4.141
20526SOL    HW263412   4.221   5.450   4.028
20527SOL     OW63413  12.511  11.842  13.201
20527SOL    HW163414  12.549  11.879  13.121
20527SOL    HW263415  12.484  11.919  13.252
20528SOL     OW63416  11.713   4.318   1.775
20528SOL    HW163417  11.673   4.293   1.858
20528SOL    HW263418  11.680   4.407   1.759
20529SOL     OW63419   7.837   0.777  14.843
20529SOL    HW163420   7.821   0.690  14.806
20529SOL    HW263421   7.913   0.810  14.795
20530SOL     OW63422  13.093   4.789  10.901
20530SOL    HW163423  13.129   4.875  10.925
20530SOL    HW263424  13.006   4.789  10.940
20531SOL     OW63425  10.928   8.041   4.801
20531SOL    HW163426  10.939   8.132   4.830
20531SOL    HW263427  10.846   8.013   4.842
20532SOL     OW63428   5.109   6.286   8.878
20532SOL    HW163429   5.197   6.288   8.917
20532SOL    HW263430   5.116   6.342   8.801
20533SOL     OW63431   2.905   2.892  10.949
20533SOL    HW163432   2.874   2.950  10.879
20533SOL    HW263433   2.841   2.820  10.950
20534SOL     OW63434   7.901   1.176   8.934
20534SOL    HW163435   7.960   1.151   8.863
20534SOL    HW263436   7.878   1.093   8.977
20535SOL     OW63437   5.691  13.462   2.292
20535SOL    HW163438   5.722  13.523   2.225
20535SOL    HW263439   5.614  13.505   2.330
20536SOL     OW63440   7.357   9.934  13.626
20536SOL    HW163441   7.405   9.862  13.584
20536SOL    HW263442   7.357   9.911  13.719
20537SOL     OW63443  13.535  12.059  10.499
20537SOL    HW163444  13.531  12.072  10.404
20537SOL    HW263445  13.446  12.033  10.523
20538SOL     OW63446   0.562   9.579   3.903
20538SOL    HW163447   0.633   9.548   3.960
20538SOL    HW263448   0.490   9.519   3.920
20539SOL     OW63449   5.423  10.966   9.067
20539SOL    HW163450   5.504  10.937   9.026
20539SOL    HW263451   5.357  10.957   8.999
20540SOL     OW63452   4.016   2.628   0.035
20540SOL    HW163453   3.947   2.675   0.081
20540SOL    HW263454   4.086   2.693   0.025
20541SOL     OW63455   9.757  11.746  10.958
20541SOL    HW163456   9.848  11.751  10.986
20541SOL    HW263457   9.706  11.769  11.035
20542SOL     OW63458   7.080   5.230  12.128
20542SOL    HW163459   7.036   5.257  12.209
20542SOL    HW263460   7.121   5.147  12.150
20543SOL     OW63461   7.278   4.089  10.895
20543SOL    HW163462   7.309   4.162  10.949
20543SOL    HW263463   7.183   4.089  10.906
20544SOL     OW63464   8.063   5.532  10.397
20544SOL    HW163465   8.030   5.467  10.459
20544SOL    HW263466   8.019   5.511  10.314
20545SOL     OW63467  13.832  12.630   6.899
20545SOL    HW163468  13.841  12.630   6.995
20545SOL    HW263469  13.776  12.704   6.880
20546SOL     OW63470  11.247   8.276  12.484
20546SOL    HW163471  11.222   8.331  12.410
20546SOL    HW263472  11.315   8.326  12.529
20547SOL     OW63473  14.628   6.472  14.321
20547SOL    HW163474  14.587   6.518  14.248
20547SOL    HW263475  14.681   6.539  14.365
20548SOL     OW63476  13.990   9.573   6.026
20548SOL    HW163477  13.959   9.579   5.936
20548SOL    HW263478  13.912   9.553   6.077
20549SOL     OW63479   5.281   7.922   7.965
20549SOL    HW163480   5.367   7.935   8.007
20549SOL    HW263481   5.265   7.828   7.974
20550SOL     OW63482   7.747   9.831   6.974
20550SOL    HW163483   7.826   9.847   7.026
20550SOL    HW263484   7.724   9.740   6.992
20551SOL     OW63485   0.237   2.739   9.515
20551SOL    HW163486   0.206   2.727   9.425
20551SOL    HW263487   0.247   2.833   9.525
20552SOL     OW63488   7.505   8.848  10.656
20552SOL    HW163489   7.502   8.760  10.618
20552SOL    HW263490   7.414   8.875  10.662
20553SOL     OW63491   3.376  12.033  11.286
20553SOL    HW163492   3.414  12.117  11.260
20553SOL    HW263493   3.282  12.047  11.282
20554SOL     OW63494  14.027   6.905  11.423
20554SOL    HW163495  13.957   6.864  11.475
20554SOL    HW263496  14.079   6.953  11.487
20555SOL     OW63497   1.449  12.908   5.087
20555SOL    HW163498   1.485  12.986   5.046
20555SOL    HW263499   1.509  12.837   5.062
20556SOL     OW63500  12.619  10.331  10.811
20556SOL    HW163501  12.633  10.413  10.763
20556SOL    HW263502  12.706  10.296  10.826
20557SOL     OW63503   8.629  13.998   9.250
20557SOL    HW163504   8.641  14.085   9.211
20557SOL    HW263505   8.546  13.967   9.214
20558SOL     OW63506  14.640   3.838   3.325
20558SOL    HW163507  14.587   3.901   3.277
20558SOL    HW263508  14.714   3.890   3.358
20559SOL     OW63509  10.332  13.347   8.259
20559SOL    HW163510  10.327  13.386   8.347
20559SOL    HW263511  10.354  13.255   8.276
20560SOL     OW63512   8.479   0.538   8.485
20560SOL    HW163513   8.500   0.451   8.520
20560SOL    HW263514   8.442   0.585   8.560
20561SOL     OW63515   3.345   4.771   2.577
20561SOL    HW163516   3.431   4.766   2.535
20561SOL    HW263517   3.285   4.792   2.505
20562SOL     OW63518   2.544  10.596   1.211
20562SOL    HW163519   2.609  10.530   1.234
20562SOL    HW263520   2.595  10.667   1.172
20563SOL     OW63521   3.291   4.742   3.261
20563SOL    HW163522   3.311   4.816   3.318
20563SOL    HW263523   3.349   4.752   3.186
20564SOL     OW63524  14.806   8.355   8.651
20564SOL    HW163525  14.760   8.421   8.599
20564SOL    HW263526  14.795   8.383   8.742
20565SOL     OW63527  12.797  14.491   9.854
20565SOL    HW163528  12.712  14.502   9.897
20565SOL    HW263529  12.859  14.537   9.910
20566SOL     OW63530   0.609   5.910  12.974
20566SOL    HW163531   0.654   5.953  13.047
20566SOL    HW263532   0.618   5.816  12.992
20567SOL     OW63533   9.886  11.681  14.817
20567SOL    HW163534   9.856  11.687   0.029
20567SOL    HW263535   9.805  11.689  14.765
20568SOL     OW63536  12.624   2.574  13.288
20568SOL    HW163537  12.540   2.561  13.245
20568SOL    HW263538  12.682   2.509  13.248
20569SOL     OW63539  11.507   1.557   8.930
20569SOL    HW163540  11.557   1.573   9.010
20569SOL    HW263541  11.522   1.634   8.876
20570SOL     OW63542   8.687   2.191  10.614
20570SOL    HW163543   8.757   2.223  10.672
20570SOL    HW263544   8.630   2.141  10.672
20571SOL     OW63545   6.520   6.160   3.020
20571SOL    HW163546   6.521   6.140   3.113
20571SOL    HW263547   6.597   6.116   2.985
20572SOL     OW63548   0.388   7.823   4.846
20572SOL    HW163549   0.317   7.820   4.910
20572SOL    HW263550   0.456   7.767   4.884
20573SOL     OW63551  11.713   5.878   7.781
20573SOL    HW163552  11.804   5.858   7.758
20573SOL    HW263553  11.717   5.901   7.874
20574SOL     OW63554  10.049  12.372  13.188
20574SOL    HW163555  10.040  12.456  13.145
20574SOL    HW263556  10.138  12.372  13.224
20575SOL     OW63557  12.257   5.655   5.101
20575SOL    HW163558  12.172   5.694   5.077
20575SOL    HW263559  12.309   5.662   5.021
20576SOL     OW63560   5.652   5.074   8.460
20576SOL    HW163561   5.684   5.019   8.532
20576SOL    HW263562   5.675   5.025   8.380
20577SOL     OW63563  14.567  14.751   1.655
20577SOL    HW163564  14.631  14.791   1.597
20577SOL    HW263565  14.498  14.718   1.597
20578SOL     OW63566  10.977   8.706   7.261
20578SOL    HW163567  11.018   8.789   7.284
20578SOL    HW263568  11.030   8.640   7.304
20579SOL     OW63569   4.426   9.074   3.927
20579SOL    HW163570   4.472   9.025   3.995
20579SOL    HW263571   4.351   9.019   3.904
20580SOL     OW63572   2.751   4.431  12.902
20580SOL    HW163573   2.731   4.350  12.856
20580SOL    HW263574   2.703   4.424  12.985
20581SOL     OW63575   3.479  12.018   4.661
20581SOL    HW163576   3.491  12.008   4.756
20581SOL    HW263577   3.521  12.101   4.641
20582SOL     OW63578   7.071  10.094   3.807
20582SOL    HW163579   7.140  10.101   3.741
20582SOL    HW263580   7.071  10.179   3.850
20583SOL     OW63581   5.719   1.290   2.530
20583SOL    HW163582   5.745   1.227   2.598
20583SOL    HW263583   5.767   1.262   2.452
20584SOL     OW63584   7.943   6.833   5.698
20584SOL    HW163585   7.976   6.781   5.625
20584SOL    HW263586   7.871   6.884   5.661
20585SOL     OW63587   9.136   7.937   5.057
20585SOL    HW163588   9.138   7.859   5.113
20585SOL    HW263589   9.220   7.980   5.071
20586SOL     OW63590  13.984  12.427   1.782
20586SOL    HW163591  14.011  12.515   1.755
20586SOL    HW263592  13.889  12.428   1.777
20587SOL     OW63593   7.743  13.003   3.694
20587SOL    HW163594   7.782  12.916   3.693
20587SOL    HW263595   7.738  13.026   3.786
20588SOL     OW63596   2.206  13.704  10.724
20588SOL    HW163597   2.127  13.747  10.758
20588SOL    HW263598   2.222  13.632  10.785
20589SOL     OW63599   6.480   8.020  13.421
20589SOL    HW163600   6.553   7.958  13.426
20589SOL    HW263601   6.413   7.984  13.479
20590SOL     OW63602  10.677   5.137  13.182
20590SOL    HW163603  10.638   5.224  13.188
20590SOL    HW263604  10.622   5.090  13.120
20591SOL     OW63605  12.412  10.058   3.117
20591SOL    HW163606  12.349  10.038   3.048
20591SOL    HW263607  12.496  10.028   3.082
20592SOL     OW63608  11.454   6.100   3.834
20592SOL    HW163609  11.514   6.055   3.894
20592SOL    HW263610  11.395   6.030   3.803
20593SOL     OW63611   2.594   5.737   7.465
20593SOL    HW163612   2.651   5.718   7.390
20593SOL    HW263613   2.571   5.651   7.499
20594SOL     OW63614   5.828   9.302   6.788
20594SOL    HW163615   5.917   9.292   6.754
20594SOL    HW263616   5.819   9.395   6.805
20595SOL     OW63617   3.221   4.712   1.465
20595SOL    HW163618   3.191   4.728   1.554
20595SOL    HW263619   3.252   4.797   1.434
20596SOL     OW63620   0.839   1.492   2.456
20596SOL    HW163621   0.826   1.580   2.491
20596SOL    HW263622   0.842   1.505   2.361
20597SOL     OW63623   1.992   2.052   4.555
20597SOL    HW163624   1.938   2.048   4.477
20597SOL    HW263625   2.065   2.109   4.531
20598SOL     OW63626   3.045   6.650   8.870
20598SOL    HW163627   3.024   6.559   8.849
20598SOL    HW263628   3.125   6.645   8.922
20599SOL     OW63629   9.656   9.658   6.776
20599SOL    HW163630   9.730   9.693   6.826
20599SOL    HW263631   9.612   9.598   6.836
20600SOL     OW63632   1.428  14.498   8.509
20600SOL    HW163633   1.359  14.504   8.575
20600SOL    HW263634   1.480  14.577   8.521
20601SOL     OW63635   2.861   9.054   6.572
20601SOL    HW163636   2.945   9.097   6.590
20601SOL    HW263637   2.865   9.031   6.479
20602SOL     OW63638  12.623  14.140   9.064
20602SOL    HW163639  12.627  14.047   9.084
20602SOL    HW263640  12.531  14.163   9.073
20603SOL     OW63641   9.984   3.884   6.993
20603SOL    HW163642  10.014   3.975   7.001
20603SOL    HW263643  10.026   3.838   7.065
20604SOL     OW63644   3.157   0.460  12.160
20604SOL    HW163645   3.130   0.373  12.130
20604SOL    HW263646   3.133   0.461  12.253
20605SOL     OW63647   1.600   9.399   0.296
20605SOL    HW163648   1.684   9.369   0.260
20605SOL    HW263649   1.623   9.444   0.377
20606SOL     OW63650  11.747   4.431  14.487
20606SOL    HW163651  11.694   4.478  14.551
20606SOL    HW263652  11.822   4.488  14.471
20607SOL     OW63653   7.738   6.844   8.889
20607SOL    HW163654   7.772   6.764   8.849
20607SOL    HW263655   7.777   6.846   8.976
20608SOL     OW63656   2.803   3.674   4.389
20608SOL    HW163657   2.713   3.694   4.415
20608SOL    HW263658   2.824   3.593   4.436
20609SOL     OW63659  11.079  12.789   4.756
20609SOL    HW163660  11.117  12.835   4.681
20609SOL    HW263661  11.070  12.856   4.823
20610SOL     OW63662  11.060   5.579  11.267
20610SOL    HW163663  10.993   5.588  11.199
20610SOL    HW263664  11.015   5.532  11.338
20611SOL     OW63665  10.348   3.867   4.922
20611SOL    HW163666  10.275   3.928   4.935
20611SOL    HW263667  10.409   3.914   4.866
20612SOL     OW63668  10.129   6.928   2.566
20612SOL    HW163669  10.209   6.892   2.528
20612SOL    HW263670  10.152   7.017   2.591
20613SOL     OW63671   4.036   1.753   3.049
20613SOL    HW163672   4.023   1.847   3.036
20613SOL    HW263673   4.129   1.739   3.034
20614SOL     OW63674   2.245   2.202   6.361
20614SOL    HW163675   2.305   2.198   6.435
20614SOL    HW263676   2.285   2.148   6.294
20615SOL     OW63677  14.483  14.324   0.875
20615SOL    HW163678  14.440  14.239   0.872
20615SOL    HW263679  14.510  14.340   0.785
20616SOL     OW63680  10.294   5.563  14.773
20616SOL    HW163681  10.260   5.632  14.830
20616SOL    HW263682  10.330   5.610  14.698
20617SOL     OW63683   1.388   4.100   9.864
20617SOL    HW163684   1.436   4.175   9.830
20617SOL    HW263685   1.386   4.113   9.959
20618SOL     OW63686  14.807   0.758   8.027
20618SOL    HW163687  14.846   0.682   8.070
20618SOL    HW263688  14.865   0.778   7.954
20619SOL     OW63689  10.682  11.625   2.693
20619SOL    HW163690  10.748  11.692   2.712
20619SOL    HW263691  10.667  11.582   2.777
20620SOL     OW63692  11.635   5.412  14.575
20620SOL    HW163693  11.687   5.420  14.495
20620SOL    HW263694  11.614   5.319  14.581
20621SOL     OW63695   3.670   1.917  12.611
20621SOL    HW163696   3.747   1.957  12.650
20621SOL    HW263697   3.691   1.824  12.605
20622SOL     OW63698   0.605   7.926  10.440
20622SOL    HW163699   0.530   7.968  10.482
20622SOL    HW263700   0.638   7.992  10.379
20623SOL     OW63701   6.997   6.100   5.907
20623SOL    HW163702   7.009   6.122   5.999
20623SOL    HW263703   7.020   6.180   5.860
20624SOL     OW63704  11.609   3.590   9.939
20624SOL    HW163705  11.541   3.560   9.878
20624SOL    HW263706  11.672   3.635   9.883
20625SOL     OW63707   3.607  11.877   2.551
20625SOL    HW163708   3.685  11.855   2.601
20625SOL    HW263709   3.594  11.971   2.566
20626SOL     OW63710   9.931  11.143   0.475
20626SOL    HW163711   9.897  11.230   0.497
20626SOL    HW263712  10.003  11.161   0.415
20627SOL     OW63713   8.063  12.909   3.807
20627SOL    HW163714   7.988  12.852   3.791
20627SOL    HW263715   8.106  12.917   3.722
20628SOL     OW63716  13.595   4.995   8.534
20628SOL    HW163717  13.559   5.082   8.515
20628SOL    HW263718  13.628   5.002   8.623
20629SOL     OW63719   5.894   2.584   4.224
20629SOL    HW163720   5.809   2.629   4.226
20629SOL    HW263721   5.950   2.636   4.282
20630SOL     OW63722   0.987   4.440   8.927
20630SOL    HW163723   0.972   4.354   8.888
20630SOL    HW263724   0.906   4.488   8.912
20631SOL     OW63725  10.983   5.925  12.996
20631SOL    HW163726  11.002   5.856  12.933
20631SOL    HW263727  11.022   5.894  13.078
20632SOL     OW63728  11.196   0.276  13.208
20632SOL    HW163729  11.217   0.368  13.188
20632SOL    HW263730  11.144   0.246  13.134
20633SOL     OW63731  13.885   2.522   0.746
20633SOL    HW163732  13.971   2.548   0.711
20633SOL    HW263733  13.895   2.430   0.768
20634SOL     OW63734  12.595  10.350   3.953
20634SOL    HW163735  12.577  10.321   4.042
20634SOL    HW263736  12.618  10.270   3.906
20635SOL     OW63737   1.242   5.832   2.306
20635SOL    HW163738   1.290   5.899   2.354
20635SOL    HW263739   1.168   5.810   2.363
20636SOL     OW63740   5.755   9.789   5.889
20636SOL    HW163741   5.818   9.721   5.914
20636SOL    HW263742   5.794   9.831   5.812
20637SOL     OW63743   5.389   4.376  11.526
20637SOL    HW163744   5.335   4.318  11.472
20637SOL    HW263745   5.349   4.462  11.516
20638SOL     OW63746   1.195   8.138   2.117
20638SOL    HW163747   1.203   8.122   2.211
20638SOL    HW263748   1.186   8.233   2.110
20639SOL     OW63749   0.156   8.301   7.443
20639SOL    HW163750   0.165   8.396   7.441
20639SOL    HW263751   0.087   8.284   7.508
20640SOL     OW63752   3.826  12.849  10.847
20640SOL    HW163753   3.771  12.889  10.780
20640SOL    HW263754   3.799  12.892  10.928
20641SOL     OW63755   9.785   6.028  12.129
20641SOL    HW163756   9.748   6.107  12.169
20641SOL    HW263757   9.877   6.030  12.156
20642SOL     OW63758   6.376   4.735   3.509
20642SOL    HW163759   6.422   4.651   3.519
20642SOL    HW263760   6.370   4.769   3.599
20643SOL     OW63761   7.102   1.850   5.642
20643SOL    HW163762   7.088   1.943   5.624
20643SOL    HW263763   7.145   1.817   5.563
20644SOL     OW63764   9.486  14.224   1.334
20644SOL    HW163765   9.581  14.236   1.335
20644SOL    HW263766   9.452  14.297   1.385
20645SOL     OW63767   5.808   3.231   2.511
20645SOL    HW163768   5.836   3.319   2.537
20645SOL    HW263769   5.810   3.232   2.416
20646SOL     OW63770   6.440  10.689   0.766
20646SOL    HW163771   6.521  10.690   0.817
20646SOL    HW263772   6.387  10.758   0.803
20647SOL     OW63773   0.988   1.990   2.358
20647SOL    HW163774   1.063   1.994   2.299
20647SOL    HW263775   1.025   1.961   2.442
20648SOL     OW63776  10.330   7.072   2.820
20648SOL    HW163777  10.327   7.128   2.742
20648SOL    HW263778  10.421   7.042   2.823
20649SOL     OW63779   1.311   2.654   4.180
20649SOL    HW163780   1.366   2.732   4.180
20649SOL    HW263781   1.351   2.597   4.114
20650SOL     OW63782  13.898  14.446   7.162
20650SOL    HW163783  13.878  14.375   7.102
20650SOL    HW263784  13.993  14.440   7.175
20651SOL     OW63785  13.865   4.069  11.790
20651SOL    HW163786  13.853   4.040  11.700
20651SOL    HW263787  13.873   4.165  11.784
20652SOL     OW63788  10.706   4.617   3.978
20652SOL    HW163789  10.613   4.599   3.963
20652SOL    HW263790  10.732   4.553   4.045
20653SOL     OW63791  11.070   3.660   3.239
20653SOL    HW163792  11.131   3.665   3.313
20653SOL    HW263793  10.995   3.713   3.266
20654SOL     OW63794   8.710   3.709   7.710
20654SOL    HW163795   8.713   3.747   7.622
20654SOL    HW263796   8.796   3.666   7.720
20655SOL     OW63797   6.102  12.954  14.648
20655SOL    HW163798   6.167  13.022  14.628
20655SOL    HW263799   6.040  12.997  14.707
20656SOL     OW63800   1.286   1.692  11.904
20656SOL    HW163801   1.196   1.662  11.892
20656SOL    HW263802   1.339   1.615  11.883
20657SOL     OW63803  13.766  13.156  11.964
20657SOL    HW163804  13.822  13.215  12.014
20657SOL    HW263805  13.684  13.204  11.953
20658SOL     OW63806  12.920  11.506   6.216
20658SOL    HW163807  12.910  11.426   6.268
20658SOL    HW263808  12.906  11.577   6.279
20659SOL     OW63809  14.230   2.873   3.131
20659SOL    HW163810  14.288   2.905   3.200
20659SOL    HW263811  14.278   2.802   3.089
20660SOL     OW63812  13.203   2.070   7.811
20660SOL    HW163813  13.234   2.100   7.896
20660SOL    HW263814  13.152   1.991   7.830
20661SOL     OW63815   8.746   0.545   8.918
20661SOL    HW163816   8.786   0.539   9.005
20661SOL    HW263817   8.787   0.621   8.878
20662SOL     OW63818  12.490   0.995   2.863
20662SOL    HW163819  12.575   0.956   2.880
20662SOL    HW263820  12.427   0.926   2.886
20663SOL     OW63821   2.985   4.699   1.118
20663SOL    HW163822   3.019   4.644   1.047
20663SOL    HW263823   2.896   4.719   1.091
20664SOL     OW63824   8.981   3.646   8.071
20664SOL    HW163825   8.931   3.726   8.055
20664SOL    HW263826   9.009   3.652   8.162
20665SOL     OW63827   5.675  13.587  11.181
20665SOL    HW163828   5.637  13.608  11.096
20665SOL    HW263829   5.738  13.657  11.197
20666SOL     OW63830   3.624   8.733   5.723
20666SOL    HW163831   3.538   8.701   5.695
20666SOL    HW263832   3.605   8.809   5.778
20667SOL     OW63833  14.733   6.446   1.832
20667SOL    HW163834  14.698   6.530   1.863
20667SOL    HW263835  14.665   6.382   1.852
20668SOL     OW63836  12.567  12.374   3.361
20668SOL    HW163837  12.560  12.407   3.271
20668SOL    HW263838  12.481  12.336   3.379
20669SOL     OW63839   5.952   9.570   5.369
20669SOL    HW163840   5.883   9.509   5.394
20669SOL    HW263841   5.922   9.655   5.400
20670SOL     OW63842  11.861   9.019   9.355
20670SOL    HW163843  11.805   9.093   9.331
20670SOL    HW263844  11.910   9.050   9.432
20671SOL     OW63845   2.933  11.685  10.295
20671SOL    HW163846   2.981  11.716  10.219
20671SOL    HW263847   2.845  11.723  10.286
20672SOL     OW63848   1.168   1.034   2.785
20672SOL    HW163849   1.108   0.993   2.848
20672SOL    HW263850   1.125   1.116   2.761
20673SOL     OW63851   6.610  14.193  13.630
20673SOL    HW163852   6.565  14.181  13.713
20673SOL    HW263853   6.549  14.159  13.564
20674SOL     OW63854   6.168   6.016   6.154
20674SOL    HW163855   6.161   6.069   6.233
20674SOL    HW263856   6.153   6.077   6.082
20675SOL     OW63857  14.744   5.126   2.559
20675SOL    HW163858  14.797   5.066   2.611
20675SOL    HW263859  14.669   5.147   2.614
20676SOL     OW63860   7.549  12.542   5.799
20676SOL    HW163861   7.543  12.562   5.706
20676SOL    HW263862   7.563  12.627   5.841
20677SOL     OW63863  11.824  10.325   1.093
20677SOL    HW163864  11.778  10.254   1.049
20677SOL    HW263865  11.757  10.368   1.146
20678SOL     OW63866  12.476   6.197  13.123
20678SOL    HW163867  12.409   6.133  13.101
20678SOL    HW263868  12.452   6.275  13.074
20679SOL     OW63869   4.377  14.169   1.819
20679SOL    HW163870   4.418  14.140   1.737
20679SOL    HW263871   4.449  14.173   1.882
20680SOL     OW63872  11.030  10.504   5.943
20680SOL    HW163873  11.082  10.452   5.882
20680SOL    HW263874  10.950  10.524   5.895
20681SOL     OW63875   7.623   1.020   8.153
20681SOL    HW163876   7.598   1.085   8.218
20681SOL    HW263877   7.541   0.996   8.111
20682SOL     OW63878   6.553  11.677   4.022
20682SOL    HW163879   6.459  11.662   4.010
20682SOL    HW263880   6.577  11.620   4.095
20683SOL     OW63881   7.443  13.620   2.233
20683SOL    HW163882   7.348  13.621   2.243
20683SOL    HW263883   7.460  13.559   2.162
20684SOL     OW63884  13.894  10.003   5.809
20684SOL    HW163885  13.883  10.083   5.757
20684SOL    HW263886  13.918   9.936   5.745
20685SOL     OW63887  11.240   5.428   0.819
20685SOL    HW163888  11.245   5.512   0.773
20685SOL    HW263889  11.328   5.393   0.814
20686SOL     OW63890   2.833   6.368   5.467
20686SOL    HW163891   2.739   6.379   5.483
20686SOL    HW263892   2.838   6.295   5.406
20687SOL     OW63893  11.225   4.178   3.106
20687SOL    HW163894  11.218   4.270   3.131
20687SOL    HW263895  11.137   4.142   3.119
20688SOL     OW63896   7.713   0.329  10.950
20688SOL    HW163897   7.712   0.359  11.040
20688SOL    HW263898   7.805   0.325  10.926
20689SOL     OW63899  12.321   7.332   2.311
20689SOL    HW163900  12.386   7.376   2.366
20689SOL    HW263901  12.301   7.251   2.358
20690SOL     OW63902   5.536   5.622   9.147
20690SOL    HW163903   5.567   5.683   9.214
20690SOL    HW263904   5.605   5.557   9.139
20691SOL     OW63905  11.440   5.037   8.586
20691SOL    HW163906  11.350   5.003   8.589
20691SOL    HW263907  11.471   5.029   8.677
20692SOL     OW63908   9.066   8.295  11.158
20692SOL    HW163909   9.065   8.223  11.221
20692SOL    HW263910   9.077   8.252  11.073
20693SOL     OW63911  14.225   4.452   2.692
20693SOL    HW163912  14.161   4.391   2.657
20693SOL    HW263913  14.175   4.530   2.714
20694SOL     OW63914   8.740   4.768   2.140
20694SOL    HW163915   8.821   4.718   2.149
20694SOL    HW263916   8.708   4.746   2.053
20695SOL     OW63917  12.745   8.782  11.773
20695SOL    HW163918  12.824   8.740  11.804
20695SOL    HW263919  12.698   8.714  11.725
20696SOL     OW63920   5.192  12.217   4.977
20696SOL    HW163921   5.185  12.132   5.020
20696SOL    HW263922   5.218  12.197   4.888
20697SOL     OW63923   6.349   5.747   2.914
20697SOL    HW163924   6.422   5.807   2.896
20697SOL    HW263925   6.290   5.760   2.840
20698SOL     OW63926  12.880  13.661   4.591
20698SOL    HW163927  12.933  13.584   4.611
20698SOL    HW263928  12.915  13.693   4.508
20699SOL     OW63929   6.379   7.667   0.369
20699SOL    HW163930   6.299   7.686   0.319
20699SOL    HW263931   6.383   7.736   0.435
20700SOL     OW63932   5.188   0.610  12.439
20700SOL    HW163933   5.098   0.639  12.428
20700SOL    HW263934   5.190   0.522  12.403
20701SOL     OW63935  13.014   6.437   9.008
20701SOL    HW163936  13.070   6.491   9.063
20701SOL    HW263937  12.995   6.491   8.931
20702SOL     OW63938  11.890   6.599   5.846
20702SOL    HW163939  11.821   6.665   5.844
20702SOL    HW263940  11.969   6.648   5.869
20703SOL     OW63941  13.127   6.828  13.278
20703SOL    HW163942  13.140   6.783  13.362
20703SOL    HW263943  13.093   6.760  13.220
20704SOL     OW63944   2.221   2.767   6.205
20704SOL    HW163945   2.272   2.689   6.228
20704SOL    HW263946   2.241   2.783   6.113
20705SOL     OW63947   5.042   2.579   8.750
20705SOL    HW163948   5.114   2.516   8.755
20705SOL    HW263949   4.964   2.525   8.742
20706SOL     OW63950   0.652  14.344  14.346
20706SOL    HW163951   0.576  14.354  14.289
20706SOL    HW263952   0.632  14.269  14.401
20707SOL     OW63953   4.642  10.426   7.359
20707SOL    HW163954   4.604  10.498   7.309
20707SOL    HW263955   4.717  10.396   7.307
20708SOL     OW63956  10.473  13.725   3.017
20708SOL    HW163957  10.386  13.739   3.055
20708SOL    HW263958  10.461  13.738   2.923
20709SOL     OW63959  10.610  10.066   1.227
20709SOL    HW163960  10.594  10.126   1.300
20709SOL    HW263961  10.548  10.093   1.160
20710SOL     OW63962  13.833   9.272   2.622
20710SOL    HW163963  13.790   9.296   2.540
20710SOL    HW263964  13.927   9.278   2.602
20711SOL     OW63965  12.145   5.605   7.130
20711SOL    HW163966  12.072   5.573   7.076
20711SOL    HW263967  12.223   5.592   7.076
20712SOL     OW63968   1.655  12.070   5.048
20712SOL    HW163969   1.720  12.131   5.082
20712SOL    HW263970   1.572  12.100   5.086
20713SOL     OW63971   1.379  10.928  13.570
20713SOL    HW163972   1.426  10.845  13.584
20713SOL    HW263973   1.426  10.991  13.625
20714SOL     OW63974   6.192   6.842   5.352
20714SOL    HW163975   6.135   6.832   5.428
20714SOL    HW263976   6.275   6.872   5.389
20715SOL     OW63977   5.810   4.899  13.979
20715SOL    HW163978   5.860   4.948  13.913
20715SOL    HW263979   5.876   4.850  14.028
20716SOL     OW63980   8.467   8.577  13.080
20716SOL    HW163981   8.522   8.636  13.028
20716SOL    HW263982   8.452   8.625  13.162
20717SOL     OW63983   2.141   9.353  10.713
20717SOL    HW163984   2.178   9.370  10.800
20717SOL    HW263985   2.047   9.364  10.725
20718SOL     OW63986   6.512   6.658   2.288
20718SOL    HW163987   6.523   6.633   2.380
20718SOL    HW263988   6.499   6.753   2.290
20719SOL     OW63989  10.983  14.803   5.973
20719SOL    HW163990  10.904  14.800   5.919
20719SOL    HW263991  10.957  14.763   6.056
20720SOL     OW63992   2.602   4.399   9.686
20720SOL    HW163993   2.684   4.381   9.640
20720SOL    HW263994   2.605   4.493   9.703
20721SOL     OW63995   0.473  11.277  10.795
20721SOL    HW163996   0.418  11.222  10.850
20721SOL    HW263997   0.514  11.338  10.857
20722SOL     OW63998  13.652   8.299  10.125
20722SOL    HW163999  13.707   8.365  10.167
20722SOL    HW264000  13.657   8.223  10.182
20723SOL     OW64001   2.217   2.887   4.362
20723SOL    HW164002   2.227   2.977   4.329
20723SOL    HW264003   2.273   2.835   4.306
20724SOL     OW64004   6.769  11.706   7.978
20724SOL    HW164005   6.692  11.650   7.984
20724SOL    HW264006   6.828  11.674   8.046
20725SOL     OW64007   7.827  10.686   2.553
20725SOL    HW164008   7.839  10.713   2.462
20725SOL    HW264009   7.772  10.607   2.547
20726SOL     OW64010   3.611  12.086   2.823
20726SOL    HW164011   3.644  12.091   2.913
20726SOL    HW264012   3.652  12.160   2.779
20727SOL     OW64013  11.612   9.877  11.321
20727SOL    HW164014  11.569   9.828  11.391
20727SOL    HW264015  11.706   9.871  11.341
20728SOL     OW64016   7.709   0.261  14.160
20728SOL    HW164017   7.743   0.209  14.232
20728SOL    HW264018   7.615   0.270  14.178
20729SOL     OW64019  10.382   5.690  13.280
20729SOL    HW164020  10.477   5.693  13.281
20729SOL    HW264021  10.360   5.609  13.326
20730SOL     OW64022   5.805   9.670  12.375
20730SOL    HW164023   5.752   9.601  12.334
20730SOL    HW264024   5.895   9.644  12.357
20731SOL     OW64025  14.632   8.416  12.048
20731SOL    HW164026  14.550   8.380  12.082
20731SOL    HW264027  14.649   8.493  12.102
20732SOL     OW64028   7.086   4.409   0.943
20732SOL    HW164029   7.069   4.319   0.915
20732SOL    HW264030   7.044   4.463   0.876
20733SOL     OW64031   0.198  12.360  14.041
20733SOL    HW164032   0.120  12.312  14.013
20733SOL    HW264033   0.236  12.393  13.959
20734SOL     OW64034  12.090   0.893   7.403
20734SOL    HW164035  12.005   0.852   7.420
20734SOL    HW264036  12.113   0.863   7.315
20735SOL     OW64037   3.889   9.102  10.517
20735SOL    HW164038   3.954   9.049  10.563
20735SOL    HW264039   3.939   9.148  10.449
20736SOL     OW64040   0.086   4.347  12.590
20736SOL    HW164041   0.081   4.328  12.497
20736SOL    HW264042   0.099   4.262  12.632
20737SOL     OW64043  13.359   5.973  10.797
20737SOL    HW164044  13.424   5.907  10.773
20737SOL    HW264045  13.344   6.023  10.717
20738SOL     OW64046   3.774   7.304   5.428
20738SOL    HW164047   3.747   7.352   5.349
20738SOL    HW264048   3.778   7.213   5.400
20739SOL     OW64049   2.511   2.063   4.506
20739SOL    HW164050   2.548   2.083   4.592
20739SOL    HW264051   2.568   2.108   4.444
20740SOL     OW64052  12.237   0.734   1.264
20740SOL    HW164053  12.271   0.713   1.177
20740SOL    HW264054  12.299   0.798   1.300
20741SOL     OW64055   3.848   1.451   8.851
20741SOL    HW164056   3.902   1.517   8.807
20741SOL    HW264057   3.840   1.483   8.941
20742SOL     OW64058  11.608   1.153  14.194
20742SOL    HW164059  11.628   1.080  14.135
20742SOL    HW264060  11.519   1.181  14.168
20743SOL     OW64061   8.641  10.820   0.366
20743SOL    HW164062   8.710  10.853   0.424
20743SOL    HW264063   8.664  10.854   0.280
20744SOL     OW64064   7.975   9.596  11.206
20744SOL    HW164065   8.017   9.529  11.153
20744SOL    HW264066   7.978   9.675  11.152
20745SOL     OW64067   0.328  10.922   8.733
20745SOL    HW164068   0.418  10.927   8.702
20745SOL    HW264069   0.289  10.850   8.685
20746SOL     OW64070   2.204   9.240  11.431
20746SOL    HW164071   2.109   9.236  11.442
20746SOL    HW264072   2.237   9.261  11.518
20747SOL     OW64073   3.708   4.584   9.820
20747SOL    HW164074   3.642   4.533   9.773
20747SOL    HW264075   3.767   4.616   9.751
20748SOL     OW64076   5.036   6.337   7.815
20748SOL    HW164077   4.953   6.369   7.851
20748SOL    HW264078   5.088   6.416   7.800
20749SOL     OW64079   1.727  13.763  13.559
20749SOL    HW164080   1.755  13.780  13.648
20749SOL    HW264081   1.668  13.835  13.538
20750SOL     OW64082  11.234   6.723   1.876
20750SOL    HW164083  11.212   6.629   1.874
20750SOL    HW264084  11.212   6.750   1.965
20751SOL     OW64085  10.911   8.381  13.050
20751SOL    HW164086  10.818   8.397  13.036
20751SOL    HW264087  10.947   8.370  12.962
20752SOL     OW64088   2.452  11.473  12.732
20752SOL    HW164089   2.384  11.454  12.797
20752SOL    HW264090   2.490  11.557  12.761
20753SOL     OW64091  12.461  14.083   8.570
20753SOL    HW164092  12.399  14.088   8.643
20753SOL    HW264093  12.407  14.087   8.491
20754SOL     OW64094   0.642   4.621  10.129
20754SOL    HW164095   0.627   4.613  10.035
20754SOL    HW264096   0.737   4.624  10.138
20755SOL     OW64097   4.208   0.304   0.448
20755SOL    HW164098   4.247   0.382   0.408
20755SOL    HW264099   4.243   0.231   0.397
20756SOL     OW64100   1.822   4.228   4.612
20756SOL    HW164101   1.801   4.169   4.539
20756SOL    HW264102   1.913   4.253   4.596
20757SOL     OW64103   7.460  13.038  13.937
20757SOL    HW164104   7.370  13.036  13.904
20757SOL    HW264105   7.464  13.115  13.992
20758SOL     OW64106   0.847   3.110   2.802
20758SOL    HW164107   0.827   3.176   2.736
20758SOL    HW264108   0.919   3.148   2.853
20759SOL     OW64109  12.484   5.513   7.512
20759SOL    HW164110  12.439   5.437   7.550
20759SOL    HW264111  12.437   5.529   7.430
20760SOL     OW64112  11.591   3.590  12.485
20760SOL    HW164113  11.539   3.523  12.441
20760SOL    HW264114  11.655   3.542  12.537
20761SOL     OW64115   3.739   5.768  14.306
20761SOL    HW164116   3.707   5.713  14.378
20761SOL    HW264117   3.775   5.845  14.350
20762SOL     OW64118   6.050   6.879   8.222
20762SOL    HW164119   6.100   6.958   8.244
20762SOL    HW264120   5.969   6.912   8.184
20763SOL     OW64121   4.003   9.727   4.404
20763SOL    HW164122   4.092   9.711   4.372
20763SOL    HW264123   3.965   9.639   4.413
20764SOL     OW64124   2.121   4.572   1.269
20764SOL    HW164125   2.167   4.596   1.189
20764SOL    HW264126   2.054   4.510   1.241
20765SOL     OW64127   1.214   0.574   2.213
20765SOL    HW164128   1.120   0.587   2.230
20765SOL    HW264129   1.221   0.482   2.187
20766SOL     OW64130   6.178   1.759   2.865
20766SOL    HW164131   6.175   1.746   2.771
20766SOL    HW264132   6.154   1.851   2.877
20767SOL     OW64133  13.171  11.165  11.923
20767SOL    HW164134  13.251  11.189  11.969
20767SOL    HW264135  13.121  11.247  11.919
20768SOL     OW64136   9.156  12.447   9.813
20768SOL    HW164137   9.096  12.475   9.745
20768SOL    HW264138   9.101  12.433   9.890
20769SOL     OW64139  13.539   5.697  11.913
20769SOL    HW164140  13.493   5.775  11.946
20769SOL    HW264141  13.496   5.624  11.958
20770SOL     OW64142  13.261  11.190  13.697
20770SOL    HW164143  13.185  11.142  13.729
20770SOL    HW264144  13.285  11.248  13.770
20771SOL     OW64145   0.027   4.015  11.990
20771SOL    HW164146  14.840   4.000  12.058
20771SOL    HW264147   0.054   3.927  11.963
20772SOL     OW64148   6.499   4.292   0.957
20772SOL    HW164149   6.504   4.371   0.904
20772SOL    HW264150   6.528   4.320   1.044
20773SOL     OW64151   4.083   0.293   7.775
20773SOL    HW164152   4.121   0.292   7.687
20773SOL    HW264153   4.100   0.206   7.809
20774SOL     OW64154   8.484   1.119   0.218
20774SOL    HW164155   8.482   1.153   0.307
20774SOL    HW264156   8.459   1.028   0.225
20775SOL     OW64157   9.353  14.019   2.981
20775SOL    HW164158   9.338  14.112   2.961
20775SOL    HW264159   9.274  13.975   2.950
20776SOL     OW64160   4.721   2.908  12.094
20776SOL    HW164161   4.647   2.968  12.090
20776SOL    HW264162   4.784   2.944  12.031
20777SOL     OW64163  14.705   0.299   5.641
20777SOL    HW164164  14.679   0.226   5.699
20777SOL    HW264165  14.640   0.367   5.658
20778SOL     OW64166  11.077  10.999  13.880
20778SOL    HW164167  11.162  10.983  13.921
20778SOL    HW264168  11.100  11.038  13.795
20779SOL     OW64169   8.691   2.983   5.499
20779SOL    HW164170   8.703   3.065   5.451
20779SOL    HW264171   8.622   3.002   5.562
20780SOL     OW64172   3.858  10.896   7.010
20780SOL    HW164173   3.862  10.809   7.049
20780SOL    HW264174   3.845  10.880   6.916
20781SOL     OW64175   2.361  10.930  13.853
20781SOL    HW164176   2.299  10.939  13.781
20781SOL    HW264177   2.314  10.879  13.919
20782SOL     OW64178   5.029   3.177   4.211
20782SOL    HW164179   5.056   3.257   4.255
20782SOL    HW264180   5.105   3.150   4.160
20783SOL     OW64181   4.073  14.741   3.023
20783SOL    HW164182   4.145  14.746   2.961
20783SOL    HW264183   3.994  14.744   2.968
20784SOL     OW64184  11.212  13.598  11.131
20784SOL    HW164185  11.210  13.664  11.201
20784SOL    HW264186  11.249  13.644  11.056
20785SOL     OW64187   9.793   9.933  13.841
20785SOL    HW164188   9.799   9.838  13.841
20785SOL    HW264189   9.840   9.960  13.920
20786SOL     OW64190   0.659  13.862  14.054
20786SOL    HW164191   0.635  13.773  14.028
20786SOL    HW264192   0.719  13.851  14.127
20787SOL     OW64193  14.166   5.379  12.013
20787SOL    HW164194  14.133   5.467  12.032
20787SOL    HW264195  14.126   5.355  11.929
20788SOL     OW64196  12.319  13.454  10.557
20788SOL    HW164197  12.259  13.413  10.620
20788SOL    HW264198  12.295  13.547  10.560
20789SOL     OW64199   6.003  10.605  13.727
20789SOL    HW164200   5.962  10.531  13.682
20789SOL    HW264201   6.097  10.587  13.720
20790SOL     OW64202   3.249   2.261  14.457
20790SOL    HW164203   3.312   2.257  14.530
20790SOL    HW264204   3.177   2.204  14.485
20791SOL     OW64205  10.195   1.768   4.974
20791SOL    HW164206  10.108   1.729   4.970
20791SOL    HW264207  10.214   1.795   4.884
20792SOL     OW64208   7.667   6.238  11.779
20792SOL    HW164209   7.615   6.158  11.791
20792SOL    HW264210   7.757   6.210  11.793
20793SOL     OW64211  12.555   8.563   5.944
20793SOL    HW164212  12.567   8.654   5.970
20793SOL    HW264213  12.639   8.521   5.961
20794SOL     OW64214   6.951   9.852   3.865
20794SOL    HW164215   7.003   9.800   3.804
20794SOL    HW264216   6.982   9.942   3.852
20795SOL     OW64217   8.849   8.166   4.332
20795SOL    HW164218   8.868   8.215   4.251
20795SOL    HW264219   8.846   8.074   4.304
20796SOL     OW64220   1.751   8.090   2.677
20796SOL    HW164221   1.658   8.069   2.665
20796SOL    HW264222   1.777   8.039   2.753
20797SOL     OW64223   6.206  14.426   7.090
20797SOL    HW164224   6.231  14.338   7.062
20797SOL    HW264225   6.280  14.456   7.141
20798SOL     OW64226  10.213   0.505  10.837
20798SOL    HW164227  10.231   0.437  10.772
20798SOL    HW264228  10.258   0.582  10.803
20799SOL     OW64229  14.260   4.011  10.825
20799SOL    HW164230  14.291   4.061  10.900
20799SOL    HW264231  14.294   3.922  10.839
20800SOL     OW64232  12.359  10.605  10.167
20800SOL    HW164233  12.446  10.607  10.206
20800SOL    HW264234  12.298  10.604  10.241
20801SOL     OW64235  14.656   1.462   0.677
20801SOL    HW164236  14.732   1.483   0.623
20801SOL    HW264237  14.583   1.458   0.616
20802SOL     OW64238   6.641   3.226   2.037
20802SOL    HW164239   6.556   3.240   1.996
20802SOL    HW264240   6.631   3.144   2.086
20803SOL     OW64241  13.410   6.188  11.171
20803SOL    HW164242  13.466   6.179  11.248
20803SOL    HW264243  13.442   6.122  11.110
20804SOL     OW64244   2.798   5.931   2.388
20804SOL    HW164245   2.755   6.016   2.381
20804SOL    HW264246   2.871   5.945   2.449
20805SOL     OW64247  12.489   4.973   4.020
20805SOL    HW164248  12.475   4.921   3.941
20805SOL    HW264249  12.535   4.914   4.080
20806SOL     OW64250   7.238   2.550   1.508
20806SOL    HW164251   7.162   2.512   1.552
20806SOL    HW264252   7.305   2.482   1.512
20807SOL     OW64253   5.944   6.646  13.576
20807SOL    HW164254   5.968   6.686  13.492
20807SOL    HW264255   5.864   6.598  13.558
20808SOL     OW64256  14.717  12.777   0.521
20808SOL    HW164257  14.648  12.779   0.587
20808SOL    HW264258  14.789  12.827   0.560
20809SOL     OW64259   8.605   5.622  10.812
20809SOL    HW164260   8.701   5.622  10.815
20809SOL    HW264261   8.579   5.671  10.890
20810SOL     OW64262   4.931  12.658  14.875
20810SOL    HW164263   4.941  12.684   0.087
20810SOL    HW264264   4.838  12.637  14.865
20811SOL     OW64265  13.859   2.347   3.238
20811SOL    HW164266  13.864   2.442   3.242
20811SOL    HW264267  13.787   2.329   3.177
20812SOL     OW64268   1.303  11.851   3.987
20812SOL    HW164269   1.218  11.808   3.996
20812SOL    HW264270   1.338  11.818   3.904
20813SOL     OW64271   4.772  10.261   4.823
20813SOL    HW164272   4.786  10.348   4.860
20813SOL    HW264273   4.702  10.222   4.875
20814SOL     OW64274   2.554  14.854  11.556
20814SOL    HW164275   2.491  14.800  11.604
20814SOL    HW264276   2.584  14.797  11.485
20815SOL     OW64277  13.695   6.389   0.012
20815SOL    HW164278  13.788   6.405   0.026
20815SOL    HW264279  13.676   6.426  14.805
20816SOL     OW64280   2.513  12.195   7.889
20816SOL    HW164281   2.555  12.279   7.869
20816SOL    HW264282   2.508  12.193   7.984
20817SOL     OW64283  11.480   6.499   5.720
20817SOL    HW164284  11.450   6.590   5.726
20817SOL    HW264285  11.443   6.466   5.638
20818SOL     OW64286   3.613   1.248   0.521
20818SOL    HW164287   3.555   1.285   0.454
20818SOL    HW264288   3.603   1.154   0.513
20819SOL     OW64289   1.184   0.060   7.586
20819SOL    HW164290   1.112   0.020   7.538
20819SOL    HW264291   1.223   0.122   7.525
20820SOL     OW64292   3.286   1.489   7.544
20820SOL    HW164293   3.378   1.508   7.564
20820SOL    HW264294   3.256   1.437   7.619
20821SOL     OW64295  14.388   2.206   1.052
20821SOL    HW164296  14.388   2.239   0.962
20821SOL    HW264297  14.299   2.220   1.083
20822SOL     OW64298  13.258  12.629  10.382
20822SOL    HW164299  13.197  12.638  10.308
20822SOL    HW264300  13.284  12.719  10.402
20823SOL     OW64301   8.409   7.928   5.647
20823SOL    HW164302   8.350   7.853   5.637
20823SOL    HW264303   8.367   7.998   5.597
20824SOL     OW64304   3.205   1.096   7.649
20824SOL    HW164305   3.161   1.169   7.692
20824SOL    HW264306   3.271   1.137   7.593
20825SOL     OW64307   9.324   7.729   1.111
20825SOL    HW164308   9.290   7.725   1.022
20825SOL    HW264309   9.307   7.819   1.139
20826SOL     OW64310  12.125   2.596   5.478
20826SOL    HW164311  12.189   2.529   5.504
20826SOL    HW264312  12.040   2.554   5.490
20827SOL     OW64313   3.078   4.340   9.257
20827SOL    HW164314   2.993   4.378   9.235
20827SOL    HW264315   3.068   4.309   9.348
20828SOL     OW64316   4.303   6.053   2.297
20828SOL    HW164317   4.365   6.090   2.360
20828SOL    HW264318   4.292   5.962   2.325
20829SOL     OW64319   9.219  11.094   9.930
20829SOL    HW164320   9.150  11.158   9.949
20829SOL    HW264321   9.280  11.100  10.004
20830SOL     OW64322   6.582   4.839  12.475
20830SOL    HW164323   6.494   4.808  12.456
20830SOL    HW264324   6.581   4.932  12.450
20831SOL     OW64325  14.280  14.811  12.586
20831SOL    HW164326  14.194  14.845  12.610
20831SOL    HW264327  14.341   0.001  12.610
20832SOL     OW64328   3.785   0.898   8.924
20832SOL    HW164329   3.872   0.880   8.888
20832SOL    HW264330   3.724   0.867   8.857
20833SOL     OW64331   8.263  10.196  10.673
20833SOL    HW164332   8.317  10.223  10.599
20833SOL    HW264333   8.317  10.214  10.750
20834SOL     OW64334   8.040  10.785   8.441
20834SOL    HW164335   8.068  10.710   8.387
20834SOL    HW264336   8.121  10.834   8.457
20835SOL     OW64337  10.190   1.524   1.222
20835SOL    HW164338  10.266   1.499   1.169
20835SOL    HW264339  10.155   1.441   1.253
20836SOL     OW64340   3.169   9.372  14.501
20836SOL    HW164341   3.193   9.462  14.521
20836SOL    HW264342   3.241   9.319  14.536
20837SOL     OW64343   7.265   1.000   7.466
20837SOL    HW164344   7.248   0.924   7.409
20837SOL    HW264345   7.353   0.985   7.500
20838SOL     OW64346  11.754   3.737   4.744
20838SOL    HW164347  11.771   3.643   4.738
20838SOL    HW264348  11.684   3.753   4.680
20839SOL     OW64349  13.065   8.641   4.619
20839SOL    HW164350  13.135   8.599   4.671
20839SOL    HW264351  12.998   8.662   4.684
20840SOL     OW64352   1.142  13.750  14.597
20840SOL    HW164353   1.206  13.695  14.641
20840SOL    HW264354   1.176  13.760  14.508
20841SOL     OW64355   2.278   2.937   2.144
20841SOL    HW164356   2.263   2.856   2.094
20841SOL    HW264357   2.361   2.970   2.110
20842SOL     OW64358   4.846   3.242   2.500
20842SOL    HW164359   4.935   3.212   2.517
20842SOL    HW264360   4.855   3.303   2.427
20843SOL     OW64361   8.794   6.818   0.274
20843SOL    HW164362   8.785   6.835   0.181
20843SOL    HW264363   8.709   6.784   0.301
20844SOL     OW64364   3.942   2.300   6.851
20844SOL    HW164365   3.847   2.300   6.849
20844SOL    HW264366   3.967   2.371   6.791
20845SOL     OW64367   5.079  10.487  14.039
20845SOL    HW164368   5.121  10.512  13.957
20845SOL    HW264369   4.985  10.488  14.020
20846SOL     OW64370  12.330   3.643   1.150
20846SOL    HW164371  12.288   3.717   1.106
20846SOL    HW264372  12.338   3.576   1.082
20847SOL     OW64373   5.142   3.916   2.508
20847SOL    HW164374   5.049   3.931   2.496
20847SOL    HW264375   5.183   3.999   2.484
20848SOL     OW64376  13.233   7.722  10.559
20848SOL    HW164377  13.302   7.762  10.506
20848SOL    HW264378  13.207   7.790  10.621
20849SOL     OW64379   8.925   3.440   0.599
20849SOL    HW164380   8.831   3.439   0.580
20849SOL    HW264381   8.937   3.518   0.654
20850SOL     OW64382   1.915   6.768   6.148
20850SOL    HW164383   1.845   6.733   6.093
20850SOL    HW264384   1.876   6.842   6.194
20851SOL     OW64385  14.773   1.395   2.227
20851SOL    HW164386  14.747   1.304   2.239
20851SOL    HW264387  14.727   1.442   2.297
20852SOL     OW64388  12.415   2.413   2.782
20852SOL    HW164389  12.498   2.435   2.740
20852SOL    HW264390  12.361   2.491   2.770
20853SOL     OW64391   9.705   1.070   7.866
20853SOL    HW164392   9.739   1.160   7.862
20853SOL    HW264393   9.682   1.057   7.958
20854SOL     OW64394   1.493   8.480   7.629
20854SOL    HW164395   1.477   8.395   7.588
20854SOL    HW264396   1.495   8.461   7.723
20855SOL     OW64397   5.341  13.152   1.600
20855SOL    HW164398   5.435  13.152   1.585
20855SOL    HW264399   5.322  13.065   1.636
20856SOL     OW64400  11.480   6.702   7.917
20856SOL    HW164401  11.458   6.699   8.011
20856SOL    HW264402  11.396   6.707   7.873
20857SOL     OW64403   8.603   1.076  13.264
20857SOL    HW164404   8.515   1.041  13.282
20857SOL    HW264405   8.654   1.054  13.342
20858SOL     OW64406  10.896   9.735  13.625
20858SOL    HW164407  10.872   9.673  13.694
20858SOL    HW264408  10.884   9.821  13.665
20859SOL     OW64409   1.340  12.429  10.798
20859SOL    HW164410   1.428  12.415  10.834
20859SOL    HW264411   1.331  12.364  10.729
20860SOL     OW64412   0.105   3.289   1.521
20860SOL    HW164413   0.147   3.371   1.547
20860SOL    HW264414   0.081   3.303   1.429
20861SOL     OW64415   2.585   9.374   4.808
20861SOL    HW164416   2.501   9.395   4.848
20861SOL    HW264417   2.594   9.280   4.818
20862SOL     OW64418   0.141   8.874  13.508
20862SOL    HW164419   0.120   8.816  13.580
20862SOL    HW264420   0.080   8.948  13.518
20863SOL     OW64421   8.837   7.746   9.638
20863SOL    HW164422   8.879   7.824   9.673
20863SOL    HW264423   8.811   7.770   9.549
20864SOL     OW64424   8.039   6.235  10.750
20864SOL    HW164425   8.042   6.250  10.845
20864SOL    HW264426   8.126   6.203  10.728
20865SOL     OW64427   5.133  14.498   2.273
20865SOL    HW164428   5.187  14.472   2.199
20865SOL    HW264429   5.191  14.496   2.348
20866SOL     OW64430   3.844   0.674   7.988
20866SOL    HW164431   3.915   0.660   7.924
20866SOL    HW264432   3.791   0.594   7.983
20867SOL     OW64433   6.713  14.416   5.134
20867SOL    HW164434   6.639  14.386   5.080
20867SOL    HW264435   6.724  14.348   5.200
20868SOL     OW64436  12.107   0.551   8.011
20868SOL    HW164437  12.076   0.532   8.100
20868SOL    HW264438  12.118   0.646   8.009
20869SOL     OW64439   3.634  13.779  12.919
20869SOL    HW164440   3.705  13.737  12.871
20869SOL    HW264441   3.558  13.769  12.862
20870SOL     OW64442   9.526   3.024   0.240
20870SOL    HW164443   9.485   3.002   0.156
20870SOL    HW264444   9.560   3.113   0.227
20871SOL     OW64445  13.904   8.755  14.251
20871SOL    HW164446  13.982   8.740  14.198
20871SOL    HW264447  13.840   8.790  14.189
20872SOL     OW64448  10.197  12.233   9.112
20872SOL    HW164449  10.121  12.198   9.065
20872SOL    HW264450  10.192  12.328   9.098
20873SOL     OW64451  12.125   8.022   2.908
20873SOL    HW164452  12.041   7.976   2.915
20873SOL    HW264453  12.124   8.084   2.981
20874SOL     OW64454  11.869   1.663   3.670
20874SOL    HW164455  11.857   1.587   3.614
20874SOL    HW264456  11.918   1.725   3.617
20875SOL     OW64457   4.433   1.477  11.988
20875SOL    HW164458   4.420   1.430  12.071
20875SOL    HW264459   4.345   1.503  11.961
20876SOL     OW64460  14.790   7.391  10.058
20876SOL    HW164461  14.730   7.322  10.084
20876SOL    HW264462  14.855   7.347  10.003
20877SOL     OW64463   6.617   7.032   8.351
20877SOL    HW164464   6.668   6.956   8.379
20877SOL    HW264465   6.571   7.001   8.273
20878SOL     OW64466   8.072   0.914   4.519
20878SOL    HW164467   8.074   0.846   4.586
20878SOL    HW264468   7.994   0.966   4.539
20879SOL     OW64469   3.259   0.115   6.575
20879SOL    HW164470   3.195   0.126   6.504
20879SOL    HW264471   3.232   0.180   6.641
20880SOL     OW64472  14.259   3.852   8.406
20880SOL    HW164473  14.314   3.808   8.341
20880SOL    HW264474  14.309   3.931   8.428
20881SOL     OW64475   8.959   1.150   5.526
20881SOL    HW164476   8.932   1.103   5.447
20881SOL    HW264477   8.934   1.240   5.509
20882SOL     OW64478   2.228   2.112  11.099
20882SOL    HW164479   2.209   2.056  11.024
20882SOL    HW264480   2.323   2.109  11.108
20883SOL     OW64481  14.263  14.569  12.205
20883SOL    HW164482  14.347  14.538  12.170
20883SOL    HW264483  14.284  14.653  12.246
20884SOL     OW64484  13.345   3.121  12.727
20884SOL    HW164485  13.428   3.081  12.701
20884SOL    HW264486  13.278   3.066  12.685
20885SOL     OW64487   0.458   2.418  10.543
20885SOL    HW164488   0.549   2.407  10.515
20885SOL    HW264489   0.431   2.501  10.505
20886SOL     OW64490   2.397  12.595   4.355
20886SOL    HW164491   2.471  12.633   4.307
20886SOL    HW264492   2.335  12.569   4.287
20887SOL     OW64493  10.708  13.905   3.401
20887SOL    HW164494  10.681  13.984   3.355
20887SOL    HW264495  10.733  13.844   3.332
20888SOL     OW64496   8.504  10.873  12.827
20888SOL    HW164497   8.523  10.848  12.918
20888SOL    HW264498   8.445  10.804  12.796
20889SOL     OW64499  13.401   3.928  11.961
20889SOL    HW164500  13.487   3.971  11.955
20889SOL    HW264501  13.419   3.837  11.938
20890SOL     OW64502  12.077   9.787   8.084
20890SOL    HW164503  12.080   9.819   7.994
20890SOL    HW264504  11.993   9.818   8.118
20891SOL     OW64505   5.398   6.724  12.725
20891SOL    HW164506   5.466   6.666  12.761
20891SOL    HW264507   5.316   6.676  12.739
20892SOL     OW64508   4.482   3.693  14.089
20892SOL    HW164509   4.458   3.766  14.147
20892SOL    HW264510   4.553   3.727  14.035
20893SOL     OW64511   4.944   1.831   4.161
20893SOL    HW164512   4.981   1.803   4.078
20893SOL    HW264513   5.019   1.855   4.215
20894SOL     OW64514   3.539   5.284  14.292
20894SOL    HW164515   3.605   5.285  14.362
20894SOL    HW264516   3.589   5.269  14.212
20895SOL     OW64517  11.261   0.013   2.058
20895SOL    HW164518  11.300   0.079   2.000
20895SOL    HW264519  11.209   0.063   2.120
20896SOL     OW64520  14.308   0.072   1.048
20896SOL    HW164521  14.346   0.138   1.107
20896SOL    HW264522  14.351  14.869   1.071
20897SOL     OW64523  14.073   0.328   7.439
20897SOL    HW164524  14.153   0.356   7.484
20897SOL    HW264525  14.025   0.410   7.425
20898SOL     OW64526   4.033  13.708  13.054
20898SOL    HW164527   4.045  13.773  12.985
20898SOL    HW264528   4.119  13.702  13.096
20899SOL     OW64529   0.387   1.752   4.537
20899SOL    HW164530   0.330   1.828   4.531
20899SOL    HW264531   0.439   1.754   4.456
20900SOL     OW64532  11.855  14.420  11.314
20900SOL    HW164533  11.777  14.366  11.303
20900SOL    HW264534  11.823  14.510  11.309
20901SOL     OW64535   0.487   7.477   0.615
20901SOL    HW164536   0.455   7.440   0.698
20901SOL    HW264537   0.453   7.418   0.548
20902SOL     OW64538   7.012  12.675   0.041
20902SOL    HW164539   6.965  12.668  14.837
20902SOL    HW264540   7.059  12.758   0.036
20903SOL     OW64541   8.428  13.085   7.548
20903SOL    HW164542   8.390  13.032   7.618
20903SOL    HW264543   8.358  13.144   7.522
20904SOL     OW64544  12.061   4.144   6.139
20904SOL    HW164545  12.067   4.231   6.099
20904SOL    HW264546  12.145   4.131   6.181
20905SOL     OW64547  12.679  12.811   9.264
20905SOL    HW164548  12.618  12.874   9.303
20905SOL    HW264549  12.631  12.772   9.191
20906SOL     OW64550   5.382  11.947  10.209
20906SOL    HW164551   5.410  11.888  10.279
20906SOL    HW264552   5.323  11.894  10.155
20907SOL     OW64553   9.790  14.013  11.469
20907SOL    HW164554   9.754  14.063  11.541
20907SOL    HW264555   9.721  14.013  11.403
20908SOL     OW64556   2.586  12.117   7.022
20908SOL    HW164557   2.518  12.147   7.082
20908SOL    HW264558   2.557  12.147   6.936
20909SOL     OW64559   0.546   3.005  10.053
20909SOL    HW164560   0.503   2.982   9.971
20909SOL    HW264561   0.483   3.063  10.097
20910SOL     OW64562   9.319   3.935  13.412
20910SOL    HW164563   9.272   4.017  13.400
20910SOL    HW264564   9.348   3.911  13.323
20911SOL     OW64565   7.143   6.515   8.954
20911SOL    HW164566   7.073   6.454   8.975
20911SOL    HW264567   7.208   6.502   9.023
20912SOL     OW64568   7.713   8.878   6.231
20912SOL    HW164569   7.636   8.934   6.244
20912SOL    HW264570   7.723   8.831   6.313
20913SOL     OW64571   3.295   3.296   9.518
20913SOL    HW164572   3.297   3.200   9.524
20913SOL    HW264573   3.303   3.326   9.608
20914SOL     OW64574   9.361   5.481   1.132
20914SOL    HW164575   9.271   5.493   1.102
20914SOL    HW264576   9.411   5.547   1.086
20915SOL     OW64577   1.370  12.501   8.349
20915SOL    HW164578   1.453  12.458   8.371
20915SOL    HW264579   1.396  12.580   8.303
20916SOL     OW64580   9.565   9.633   6.132
20916SOL    HW164581   9.650   9.657   6.170
20916SOL    HW264582   9.501   9.663   6.197
20917SOL     OW64583   4.313   6.863   8.086
20917SOL    HW164584   4.282   6.944   8.126
20917SOL    HW264585   4.235   6.810   8.075
20918SOL     OW64586  14.426   3.656   9.906
20918SOL    HW164587  14.464   3.599   9.839
20918SOL    HW264588  14.381   3.725   9.857
20919SOL     OW64589   3.590   0.085  12.373
20919SOL    HW164590   3.521   0.050  12.428
20919SOL    HW264591   3.576   0.180  12.375
20920SOL     OW64592   5.553  12.307   6.932
20920SOL    HW164593   5.466  12.278   6.904
20920SOL    HW264594   5.573  12.252   7.007
20921SOL     OW64595   3.346   1.182   4.098
20921SOL    HW164596   3.356   1.178   4.003
20921SOL    HW264597   3.353   1.090   4.126
20922SOL     OW64598   9.851   7.135   7.064
20922SOL    HW164599   9.867   7.142   6.970
20922SOL    HW264600   9.824   7.223   7.091
20923SOL     OW64601   2.965   4.594  12.873
20923SOL    HW164602   2.951   4.625  12.784
20923SOL    HW264603   2.890   4.536  12.891
20924SOL     OW64604  13.507   2.616   6.539
20924SOL    HW164605  13.532   2.685   6.477
20924SOL    HW264606  13.577   2.551   6.531
20925SOL     OW64607   0.194   7.042   7.261
20925SOL    HW164608   0.133   6.973   7.289
20925SOL    HW264609   0.241   7.004   7.187
20926SOL     OW64610   9.163  11.933   9.613
20926SOL    HW164611   9.092  11.868   9.621
20926SOL    HW264612   9.120  12.010   9.576
20927SOL     OW64613   8.493  11.360   5.760
20927SOL    HW164614   8.589  11.366   5.763
20927SOL    HW264615   8.475  11.266   5.768
20928SOL     OW64616   3.439  11.930   0.718
20928SOL    HW164617   3.435  12.023   0.694
20928SOL    HW264618   3.528  11.917   0.749
20929SOL     OW64619   1.853   2.073   3.218
20929SOL    HW164620   1.824   1.985   3.195
20929SOL    HW264621   1.928   2.089   3.162
20930SOL     OW64622   8.601  14.522   5.758
20930SOL    HW164623   8.653  14.594   5.723
20930SOL    HW264624   8.554  14.487   5.683
20931SOL     OW64625  14.465   6.209   4.647
20931SOL    HW164626  14.471   6.184   4.739
20931SOL    HW264627  14.416   6.137   4.606
20932SOL     OW64628   0.098  14.400   0.827
20932SOL    HW164629   0.072  14.308   0.818
20932SOL    HW264630   0.173  14.410   0.769
20933SOL     OW64631   9.561  10.151   6.678
20933SOL    HW164632   9.547  10.202   6.599
20933SOL    HW264633   9.657  10.145   6.686
20934SOL     OW64634   2.026   4.316  13.879
20934SOL    HW164635   1.937   4.297  13.910
20934SOL    HW264636   2.067   4.363  13.951
20935SOL     OW64637   4.739   5.767  12.835
20935SOL    HW164638   4.801   5.700  12.864
20935SOL    HW264639   4.787   5.850  12.844
20936SOL     OW64640   6.299  12.408  14.679
20936SOL    HW164641   6.297  12.446  14.591
20936SOL    HW264642   6.260  12.322  14.669
20937SOL     OW64643   2.029   3.743  13.009
20937SOL    HW164644   2.022   3.797  12.931
20937SOL    HW264645   2.116   3.762  13.044
20938SOL     OW64646  12.693   7.269   6.894
20938SOL    HW164647  12.635   7.232   6.960
20938SOL    HW264648  12.642   7.266   6.813
20939SOL     OW64649   2.489  14.808   1.479
20939SOL    HW164650   2.413  14.753   1.498
20939SOL    HW264651   2.564  14.758   1.513
20940SOL     OW64652   9.058   4.857   4.523
20940SOL    HW164653   9.091   4.929   4.577
20940SOL    HW264654   9.089   4.778   4.567
20941SOL     OW64655   2.450   5.527   3.357
20941SOL    HW164656   2.437   5.432   3.364
20941SOL    HW264657   2.458   5.556   3.448
20942SOL     OW64658   3.611   2.793   0.039
20942SOL    HW164659   3.684   2.843   0.004
20942SOL    HW264660   3.569   2.753  14.842
20943SOL     OW64661   7.287   4.637   0.413
20943SOL    HW164662   7.263   4.725   0.383
20943SOL    HW264663   7.209   4.584   0.397
20944SOL     OW64664   2.208   7.969   6.220
20944SOL    HW164665   2.200   7.976   6.124
20944SOL    HW264666   2.150   8.037   6.254
20945SOL     OW64667   3.139   1.626  13.177
20945SOL    HW164668   3.085   1.655  13.104
20945SOL    HW264669   3.095   1.662  13.255
20946SOL     OW64670   7.349   0.970  11.821
20946SOL    HW164671   7.398   1.017  11.888
20946SOL    HW264672   7.391   0.995  11.738
20947SOL     OW64673   0.491   8.342   3.639
20947SOL    HW164674   0.423   8.275   3.638
20947SOL    HW264675   0.573   8.293   3.627
20948SOL     OW64676   4.224   9.230  14.577
20948SOL    HW164677   4.243   9.143  14.612
20948SOL    HW264678   4.256   9.291  14.644
20949SOL     OW64679   5.225  12.048   7.942
20949SOL    HW164680   5.177  12.038   8.024
20949SOL    HW264681   5.161  12.084   7.881
20950SOL     OW64682   4.129   1.213   5.908
20950SOL    HW164683   4.112   1.119   5.903
20950SOL    HW264684   4.048   1.254   5.878
20951SOL     OW64685   8.291   6.923   4.084
20951SOL    HW164686   8.240   6.854   4.125
20951SOL    HW264687   8.382   6.903   4.106
20952SOL     OW64688  14.430   4.655  10.464
20952SOL    HW164689  14.436   4.714  10.389
20952SOL    HW264690  14.358   4.692  10.516
20953SOL     OW64691   3.885   7.764   7.984
20953SOL    HW164692   3.951   7.757   7.916
20953SOL    HW264693   3.906   7.847   8.029
20954SOL     OW64694  14.627   4.448  10.857
20954SOL    HW164695  14.701   4.506  10.843
20954SOL    HW264696  14.632   4.425  10.950
20955SOL     OW64697   6.317  13.673  10.109
20955SOL    HW164698   6.333  13.749  10.053
20955SOL    HW264699   6.404  13.641  10.132
20956SOL     OW64700   9.450   8.280  14.116
20956SOL    HW164701   9.362   8.301  14.086
20956SOL    HW264702   9.507   8.336  14.064
20957SOL     OW64703   3.838   7.018   6.616
20957SOL    HW164704   3.793   6.936   6.635
20957SOL    HW264705   3.890   7.000   6.538
20958SOL     OW64706   6.547  13.366  14.362
20958SOL    HW164707   6.598  13.351  14.283
20958SOL    HW264708   6.599  13.327  14.432
20959SOL     OW64709   6.016   8.608  10.892
20959SOL    HW164710   6.034   8.535  10.833
20959SOL    HW264711   6.075   8.595  10.966
20960SOL     OW64712   7.720   9.105   4.745
20960SOL    HW164713   7.726   9.078   4.653
20960SOL    HW264714   7.811   9.122   4.770
20961SOL     OW64715  10.729   1.812  11.786
20961SOL    HW164716  10.795   1.805  11.718
20961SOL    HW264717  10.646   1.817  11.738
20962SOL     OW64718  10.022  13.089  13.362
20962SOL    HW164719   9.936  13.126  13.381
20962SOL    HW264720  10.026  13.086  13.267
20963SOL     OW64721   9.932  10.990   3.761
20963SOL    HW164722   9.950  11.002   3.854
20963SOL    HW264723  10.009  11.027   3.717
20964SOL     OW64724  11.636   6.638   6.176
20964SOL    HW164725  11.687   6.587   6.239
20964SOL    HW264726  11.614   6.576   6.106
20965SOL     OW64727   3.720   4.693   2.113
20965SOL    HW164728   3.752   4.748   2.041
20965SOL    HW264729   3.694   4.611   2.071
20966SOL     OW64730   8.025   1.143  12.487
20966SOL    HW164731   7.977   1.144  12.404
20966SOL    HW264732   7.960   1.169  12.552
20967SOL     OW64733   1.232   1.335   5.040
20967SOL    HW164734   1.242   1.263   5.103
20967SOL    HW264735   1.212   1.411   5.094
20968SOL     OW64736   4.582   6.945  11.407
20968SOL    HW164737   4.625   6.875  11.456
20968SOL    HW264738   4.628   7.024  11.433
20969SOL     OW64739  12.789   6.629   7.001
20969SOL    HW164740  12.729   6.567   6.958
20969SOL    HW264741  12.848   6.657   6.931
20970SOL     OW64742  10.116   7.150  14.657
20970SOL    HW164743  10.030   7.134  14.696
20970SOL    HW264744  10.109   7.113  14.569
20971SOL     OW64745   9.445   6.489   7.714
20971SOL    HW164746   9.431   6.442   7.796
20971SOL    HW264747   9.395   6.440   7.649
20972SOL     OW64748  11.273   3.212   7.507
20972SOL    HW164749  11.343   3.262   7.466
20972SOL    HW264750  11.294   3.121   7.488
20973SOL     OW64751   0.726   8.476   1.180
20973SOL    HW164752   0.716   8.502   1.089
20973SOL    HW264753   0.817   8.500   1.202
20974SOL     OW64754   3.716  14.644  10.619
20974SOL    HW164755   3.676  14.678  10.699
20974SOL    HW264756   3.755  14.561  10.645
20975SOL     OW64757   7.668   6.558   0.086
20975SOL    HW164758   7.612   6.610   0.143
20975SOL    HW264759   7.737   6.525   0.144
20976SOL     OW64760  13.667  14.763  12.881
20976SOL    HW164761  13.750  14.787  12.924
20976SOL    HW264762  13.674  14.800  12.793
20977SOL     OW64763   6.287   6.605   0.769
20977SOL    HW164764   6.380   6.627   0.776
20977SOL    HW264765   6.281   6.514   0.799
20978SOL     OW64766   8.401   3.443  11.515
20978SOL    HW164767   8.478   3.462  11.569
20978SOL    HW264768   8.378   3.527  11.476
20979SOL     OW64769   9.956   8.129  13.419
20979SOL    HW164770   9.910   8.109  13.337
20979SOL    HW264771   9.954   8.225  13.423
20980SOL     OW64772   7.438   1.383   7.649
20980SOL    HW164773   7.482   1.373   7.734
20980SOL    HW264774   7.500   1.348   7.585
20981SOL     OW64775  10.654  14.161   5.949
20981SOL    HW164776  10.733  14.211   5.972
20981SOL    HW264777  10.631  14.114   6.030
20982SOL     OW64778   5.987  12.350  11.375
20982SOL    HW164779   5.983  12.312  11.287
20982SOL    HW264780   6.003  12.275  11.432
20983SOL     OW64781  12.637  11.406  12.547
20983SOL    HW164782  12.658  11.352  12.623
20983SOL    HW264783  12.641  11.346  12.473
20984SOL     OW64784   5.303   5.212   2.259
20984SOL    HW164785   5.324   5.281   2.196
20984SOL    HW264786   5.220   5.240   2.297
20985SOL     OW64787   8.914  10.462   5.136
20985SOL    HW164788   8.831  10.421   5.159
20985SOL    HW264789   8.925  10.533   5.199
20986SOL     OW64790  10.124   5.699   4.652
20986SOL    HW164791  10.194   5.697   4.586
20986SOL    HW264792  10.080   5.614   4.642
20987SOL     OW64793  13.002   8.959  11.684
20987SOL    HW164794  13.045   9.025  11.628
20987SOL    HW264795  12.913   8.954  11.650
20988SOL     OW64796   7.612   6.118   8.720
20988SOL    HW164797   7.527   6.117   8.676
20988SOL    HW264798   7.650   6.202   8.696
20989SOL     OW64799   7.178  10.580  14.613
20989SOL    HW164800   7.133  10.543  14.690
20989SOL    HW264801   7.267  10.545  14.619
20990SOL     OW64802   3.815  12.305  14.424
20990SOL    HW164803   3.741  12.245  14.433
20990SOL    HW264804   3.880  12.255  14.375
20991SOL     OW64805  10.482  10.865   4.770
20991SOL    HW164806  10.418  10.934   4.783
20991SOL    HW264807  10.429  10.786   4.755
20992SOL     OW64808   3.317   9.982   1.090
20992SOL    HW164809   3.325   9.901   1.040
20992SOL    HW264810   3.233   9.973   1.136
20993SOL     OW64811   3.529   9.275   4.603
20993SOL    HW164812   3.546   9.203   4.664
20993SOL    HW264813   3.575   9.250   4.523
20994SOL     OW64814  13.800   3.726  12.298
20994SOL    HW164815  13.848   3.797  12.342
20994SOL    HW264816  13.710   3.735  12.330
20995SOL     OW64817  12.349   0.450   5.976
20995SOL    HW164818  12.437   0.481   5.955
20995SOL    HW264819  12.355   0.355   5.968
20996SOL     OW64820   5.668   9.065  12.245
20996SOL    HW164821   5.752   9.022  12.256
20996SOL    HW264822   5.644   9.094  12.333
20997SOL     OW64823  12.970   8.984  14.039
20997SOL    HW164824  12.879   8.984  14.070
20997SOL    HW264825  12.963   8.980  13.944
20998SOL     OW64826   5.338   7.749   9.024
20998SOL    HW164827   5.331   7.768   8.930
20998SOL    HW264828   5.330   7.835   9.066
20999SOL     OW64829  12.249   4.562  10.008
20999SOL    HW164830  12.223   4.634  10.065
20999SOL    HW264831  12.337   4.586   9.978
21000SOL     OW64832   7.967   9.836   5.822
21000SOL    HW164833   7.942   9.881   5.741
21000SOL    HW264834   7.887   9.835   5.874
21001SOL     OW64835   3.553   2.686   7.397
21001SOL    HW164836   3.481   2.723   7.347
21001SOL    HW264837   3.553   2.593   7.374
21002SOL     OW64838   8.846  10.259   2.335
21002SOL    HW164839   8.853  10.163   2.327
21002SOL    HW264840   8.846  10.276   2.429
21003SOL     OW64841   9.528   4.052   9.013
21003SOL    HW164842   9.509   4.118   9.080
21003SOL    HW264843   9.476   3.976   9.039
21004SOL     OW64844   6.544   4.266  13.936
21004SOL    HW164845   6.530   4.350  13.893
21004SOL    HW264846   6.635   4.243  13.915
21005SOL     OW64847   6.970   3.313   2.530
21005SOL    HW164848   7.004   3.341   2.615
21005SOL    HW264849   6.996   3.382   2.469
21006SOL     OW64850  12.936  11.389  12.168
21006SOL    HW164851  12.994  11.331  12.218
21006SOL    HW264852  12.888  11.438  12.235
21007SOL     OW64853   5.720   3.152   1.171
21007SOL    HW164854   5.744   3.191   1.087
21007SOL    HW264855   5.673   3.222   1.217
21008SOL     OW64856   2.852  13.684   8.647
21008SOL    HW164857   2.906  13.641   8.581
21008SOL    HW264858   2.855  13.625   8.723
21009SOL     OW64859   6.577   0.826   5.948
21009SOL    HW164860   6.650   0.872   5.990
21009SOL    HW264861   6.594   0.835   5.854
21010SOL     OW64862   6.363   4.257  14.489
21010SOL    HW164863   6.294   4.258  14.422
21010SOL    HW264864   6.372   4.348  14.516
21011SOL     OW64865  11.022   4.538   9.121
21011SOL    HW164866  11.038   4.484   9.198
21011SOL    HW264867  11.095   4.600   9.120
21012SOL     OW64868   4.817   1.831  10.014
21012SOL    HW164869   4.792   1.869   9.930
21012SOL    HW264870   4.767   1.749  10.020
21013SOL     OW64871   8.953   9.030   7.222
21013SOL    HW164872   8.893   9.021   7.296
21013SOL    HW264873   8.999   8.946   7.218
21014SOL     OW64874   0.285   8.556   9.030
21014SOL    HW164875   0.224   8.628   9.013
21014SOL    HW264876   0.340   8.587   9.102
21015SOL     OW64877  14.365   2.190   9.916
21015SOL    HW164878  14.318   2.150   9.843
21015SOL    HW264879  14.307   2.177   9.991
21016SOL     OW64880  12.622   3.977   0.928
21016SOL    HW164881  12.648   3.901   0.980
21016SOL    HW264882  12.553   4.019   0.979
21017SOL     OW64883  14.398   5.188  14.359
21017SOL    HW164884  14.395   5.216  14.450
21017SOL    HW264885  14.450   5.254  14.314
21018SOL     OW64886   8.018   5.464   5.883
21018SOL    HW164887   8.105   5.503   5.887
21018SOL    HW264888   7.979   5.483   5.968
21019SOL     OW64889   3.694   6.815  14.281
21019SOL    HW164890   3.647   6.759  14.221
21019SOL    HW264891   3.681   6.903  14.247
21020SOL     OW64892   9.702  10.213  11.981
21020SOL    HW164893   9.748  10.131  11.962
21020SOL    HW264894   9.763  10.261  12.037
21021SOL     OW64895   5.017   9.859  10.030
21021SOL    HW164896   4.924   9.857  10.054
21021SOL    HW264897   5.036   9.770  10.000
21022SOL     OW64898   6.562   6.636   0.781
21022SOL    HW164899   6.546   6.696   0.708
21022SOL    HW264900   6.648   6.662   0.814
21023SOL     OW64901   5.806   2.925  13.916
21023SOL    HW164902   5.753   2.914  13.995
21023SOL    HW264903   5.888   2.879  13.935
21024SOL     OW64904   3.097  14.048   5.990
21024SOL    HW164905   3.081  13.954   5.977
21024SOL    HW264906   3.009  14.088   5.986
21025SOL     OW64907  12.247   5.471   3.108
21025SOL    HW164908  12.238   5.420   3.027
21025SOL    HW264909  12.333   5.511   3.102
21026SOL     OW64910  12.811   7.712   6.349
21026SOL    HW164911  12.716   7.713   6.343
21026SOL    HW264912  12.831   7.770   6.423
21027SOL     OW64913  11.380   0.587   9.346
21027SOL    HW164914  11.324   0.640   9.402
21027SOL    HW264915  11.355   0.497   9.364
21028SOL     OW64916   9.792  14.600   5.541
21028SOL    HW164917   9.705  14.637   5.555
21028SOL    HW264918   9.798  14.587   5.447
21029SOL     OW64919   0.333  13.164   6.109
21029SOL    HW164920   0.325  13.077   6.147
21029SOL    HW264921   0.304  13.224   6.178
21030SOL     OW64922   6.815   4.838  13.169
21030SOL    HW164923   6.777   4.814  13.085
21030SOL    HW264924   6.743   4.830  13.231
21031SOL     OW64925   1.711   6.893  14.146
21031SOL    HW164926   1.803   6.920  14.152
21031SOL    HW264927   1.682   6.926  14.061
21032SOL     OW64928  12.095   0.897   0.369
21032SOL    HW164929  12.058   0.821   0.414
21032SOL    HW264930  12.029   0.965   0.377
21033SOL     OW64931   9.426   9.774   6.317
21033SOL    HW164932   9.461   9.764   6.405
21033SOL    HW264933   9.447   9.864   6.293
21034SOL     OW64934   4.239   4.167   8.866
21034SOL    HW164935   4.193   4.095   8.909
21034SOL    HW264936   4.269   4.130   8.783
21035SOL     OW64937   1.345  12.748   4.229
21035SOL    HW164938   1.327  12.711   4.143
21035SOL    HW264939   1.326  12.841   4.219
21036SOL     OW64940   4.603   2.458  11.276
21036SOL    HW164941   4.687   2.422  11.246
21036SOL    HW264942   4.575   2.398  11.345
21037SOL     OW64943  11.510  12.854  10.389
21037SOL    HW164944  11.432  12.857  10.334
21037SOL    HW264945  11.570  12.795  10.343
21038SOL     OW64946   4.662  14.693  11.520
21038SOL    HW164947   4.703  14.778  11.501
21038SOL    HW264948   4.599  14.680  11.449
21039SOL     OW64949   5.851   5.506  11.814
21039SOL    HW164950   5.763   5.473  11.834
21039SOL    HW264951   5.846   5.600  11.830
21040SOL     OW64952  14.602  13.998   9.166
21040SOL    HW164953  14.540  14.061   9.202
21040SOL    HW264954  14.665  14.052   9.117
21041SOL     OW64955   3.692   2.220   7.426
21041SOL    HW164956   3.701   2.151   7.490
21041SOL    HW264957   3.711   2.301   7.474
21042SOL     OW64958  12.006  11.937  10.596
21042SOL    HW164959  12.092  11.952  10.636
21042SOL    HW264960  11.947  11.997  10.643
21043SOL     OW64961   0.870  14.085   3.800
21043SOL    HW164962   0.913  14.129   3.873
21043SOL    HW264963   0.879  14.146   3.726
21044SOL     OW64964  10.768  13.058   5.521
21044SOL    HW164965  10.839  13.061   5.585
21044SOL    HW264966  10.688  13.066   5.573
21045SOL     OW64967  11.806   6.017  11.350
21045SOL    HW164968  11.865   5.941  11.349
21045SOL    HW264969  11.739   5.996  11.284
21046SOL     OW64970   9.737   8.085   4.549
21046SOL    HW164971   9.683   8.025   4.498
21046SOL    HW264972   9.789   8.028   4.606
21047SOL     OW64973   7.526   1.998   5.441
21047SOL    HW164974   7.622   2.002   5.436
21047SOL    HW264975   7.499   2.089   5.450
21048SOL     OW64976   8.052  10.327   8.968
21048SOL    HW164977   8.135  10.299   9.006
21048SOL    HW264978   8.000  10.359   9.042
21049SOL     OW64979   9.283   3.166  13.187
21049SOL    HW164980   9.274   3.115  13.107
21049SOL    HW264981   9.305   3.254  13.157
21050SOL     OW64982  14.093   5.402  13.433
21050SOL    HW164983  14.031   5.472  13.451
21050SOL    HW264984  14.117   5.414  13.341
21051SOL     OW64985  12.790   6.408  14.656
21051SOL    HW164986  12.700   6.438  14.643
21051SOL    HW264987  12.838   6.485  14.687
21052SOL     OW64988   9.364   8.180   6.406
21052SOL    HW164989   9.286   8.214   6.363
21052SOL    HW264990   9.332   8.109   6.462
21053SOL     OW64991   0.016  14.434   8.050
21053SOL    HW164992  14.857  14.355   8.088
21053SOL    HW264993   0.000  14.426   7.956
21054SOL     OW64994   5.539   2.630   9.067
21054SOL    HW164995   5.630   2.658   9.079
21054SOL    HW264996   5.502   2.628   9.155
21055SOL     OW64997   7.034  14.309  14.558
21055SOL    HW164998   6.974  14.239  14.580
21055SOL    HW264999   6.985  14.390  14.574
21056SOL     OW65000  10.609  13.488   8.405
21056SOL    HW165001  10.617  13.531   8.321
21056SOL    HW265002  10.681  13.424   8.407
21057SOL     OW65003  11.210   9.875  14.312
21057SOL    HW165004  11.183   9.962  14.340
21057SOL    HW265005  11.157   9.815  14.363
21058SOL     OW65006   2.544   3.243   3.013
21058SOL    HW165007   2.593   3.237   2.931
21058SOL    HW265008   2.602   3.289   3.073
21059SOL     OW65009   6.820   1.450   6.002
21059SOL    HW165010   6.885   1.432   6.070
21059SOL    HW265011   6.852   1.530   5.960
21060SOL     OW65012   8.493  14.702  13.613
21060SOL    HW165013   8.449  14.712  13.529
21060SOL    HW265014   8.493  14.607  13.628
21061SOL     OW65015  12.027   2.617   3.680
21061SOL    HW165016  12.003   2.653   3.595
21061SOL    HW265017  12.044   2.693   3.735
21062SOL     OW65018  12.821   7.529   4.609
21062SOL    HW165019  12.815   7.535   4.513
21062SOL    HW265020  12.898   7.475   4.625
21063SOL     OW65021   0.415   9.783   1.334
21063SOL    HW165022   0.371   9.854   1.286
21063SOL    HW265023   0.363   9.705   1.313
21064SOL     OW65024  13.205   2.410   4.365
21064SOL    HW165025  13.293   2.414   4.328
21064SOL    HW265026  13.147   2.428   4.291
21065SOL     OW65027   7.152   8.996   7.007
21065SOL    HW165028   7.112   8.909   7.004
21065SOL    HW265029   7.181   9.012   6.917
21066SOL     OW65030   6.134  11.310   5.407
21066SOL    HW165031   6.057  11.253   5.417
21066SOL    HW265032   6.117  11.358   5.326
21067SOL     OW65033   0.948   0.009  13.422
21067SOL    HW165034   0.854   0.029  13.416
21067SOL    HW265035   0.980   0.065  13.493
21068SOL     OW65036   6.857   6.630   5.543
21068SOL    HW165037   6.812   6.549   5.519
21068SOL    HW265038   6.844   6.638   5.637
21069SOL     OW65039   7.504   4.740   5.266
21069SOL    HW165040   7.487   4.706   5.179
21069SOL    HW265041   7.472   4.672   5.326
21070SOL     OW65042  10.393   7.666  11.697
21070SOL    HW165043  10.393   7.745  11.751
21070SOL    HW265044  10.466   7.678  11.637
21071SOL     OW65045   4.298   8.612  12.593
21071SOL    HW165046   4.365   8.673  12.564
21071SOL    HW265047   4.235   8.665  12.641
21072SOL     OW65048  13.262   9.785  12.677
21072SOL    HW165049  13.290   9.694  12.679
21072SOL    HW265050  13.246   9.804  12.585
21073SOL     OW65051  14.242   0.146   7.316
21073SOL    HW165052  14.203   0.061   7.295
21073SOL    HW265053  14.170   0.197   7.353
21074SOL     OW65054   2.615   8.606   6.534
21074SOL    HW165055   2.624   8.533   6.595
21074SOL    HW265056   2.646   8.682   6.583
21075SOL     OW65057   8.215   0.765   7.705
21075SOL    HW165058   8.137   0.819   7.692
21075SOL    HW265059   8.288   0.822   7.682
21076SOL     OW65060  11.062   6.202  13.261
21076SOL    HW165061  10.997   6.136  13.238
21076SOL    HW265062  11.115   6.161  13.330
21077SOL     OW65063  12.197   3.056   8.502
21077SOL    HW165064  12.135   3.124   8.474
21077SOL    HW265065  12.178   2.982   8.445
21078SOL     OW65066  13.009   6.871  11.521
21078SOL    HW165067  12.979   6.827  11.601
21078SOL    HW265068  12.930   6.910  11.483
21079SOL     OW65069   2.770  13.435   6.974
21079SOL    HW165070   2.727  13.378   6.911
21079SOL    HW265071   2.699  13.472   7.027
21080SOL     OW65072   6.565   6.053  12.674
21080SOL    HW165073   6.511   6.130  12.660
21080SOL    HW265074   6.638   6.083  12.729
21081SOL     OW65075   2.039   8.850   0.335
21081SOL    HW165076   1.949   8.881   0.346
21081SOL    HW265077   2.094   8.918   0.374
21082SOL     OW65078   8.318  11.347  13.095
21082SOL    HW165079   8.379  11.293  13.045
21082SOL    HW265080   8.285  11.289  13.163
21083SOL     OW65081   6.230   3.809   4.551
21083SOL    HW165082   6.224   3.725   4.598
21083SOL    HW265083   6.192   3.791   4.465
21084SOL     OW65084   2.097   5.021   0.376
21084SOL    HW165085   2.175   5.077   0.368
21084SOL    HW265086   2.117   4.944   0.323
21085SOL     OW65087   0.807  14.681  14.276
21085SOL    HW165088   0.793  14.667  14.183
21085SOL    HW265089   0.733  14.736  14.303
21086SOL     OW65090   4.335   6.353  12.220
21086SOL    HW165091   4.369   6.426  12.168
21086SOL    HW265092   4.413   6.314  12.259
21087SOL     OW65093  10.080   8.851  13.600
21087SOL    HW165094  10.029   8.771  13.610
21087SOL    HW265095  10.061   8.902  13.679
21088SOL     OW65096   3.219   7.873   9.614
21088SOL    HW165097   3.301   7.852   9.658
21088SOL    HW265098   3.158   7.891   9.685
21089SOL     OW65099  14.156   5.911   5.202
21089SOL    HW165100  14.125   5.840   5.145
21089SOL    HW265101  14.110   5.897   5.285
21090SOL     OW65102   1.436   3.754   0.189
21090SOL    HW165103   1.419   3.784   0.100
21090SOL    HW265104   1.519   3.796   0.212
21091SOL     OW65105   4.347   1.609  11.492
21091SOL    HW165106   4.357   1.663  11.570
21091SOL    HW265107   4.412   1.540  11.502
21092SOL     OW65108  14.588   6.634  10.927
21092SOL    HW165109  14.500   6.669  10.927
21092SOL    HW265110  14.632   6.677  10.853
21093SOL     OW65111  10.613  11.382  13.445
21093SOL    HW165112  10.668  11.311  13.480
21093SOL    HW265113  10.613  11.367  13.350
21094SOL     OW65114   7.228   2.955   7.873
21094SOL    HW165115   7.142   2.938   7.912
21094SOL    HW265116   7.212   3.020   7.805
21095SOL     OW65117   8.600  11.079  10.286
21095SOL    HW165118   8.691  11.089  10.314
21095SOL    HW265119   8.566  11.008  10.341
21096SOL     OW65120   0.440   4.057   3.815
21096SOL    HW165121   0.444   3.968   3.850
21096SOL    HW265122   0.354   4.064   3.776
21097SOL     OW65123   1.678  10.459   7.888
21097SOL    HW165124   1.770  10.464   7.862
21097SOL    HW265125   1.631  10.502   7.818
21098SOL     OW65126  14.737   2.854  13.653
21098SOL    HW165127  14.768   2.872  13.742
21098SOL    HW265128  14.800   2.898  13.596
21099SOL     OW65129   5.718   3.019  12.054
21099SOL    HW165130   5.648   3.002  12.117
21099SOL    HW265131   5.797   2.985  12.096
21100SOL     OW65132   3.830   5.971  11.701
21100SOL    HW165133   3.900   5.995  11.761
21100SOL    HW265134   3.875   5.940  11.623
21101SOL     OW65135   4.163  14.199   0.503
21101SOL    HW165136   4.181  14.205   0.597
21101SOL    HW265137   4.087  14.256   0.490
21102SOL     OW65138   3.452   0.662   6.092
21102SOL    HW165139   3.478   0.741   6.139
21102SOL    HW265140   3.390   0.693   6.026
21103SOL     OW65141  14.113  12.972   5.702
21103SOL    HW165142  14.183  13.017   5.656
21103SOL    HW265143  14.092  12.897   5.645
21104SOL     OW65144  13.349   5.785   6.436
21104SOL    HW165145  13.402   5.706   6.445
21104SOL    HW265146  13.413   5.854   6.416
21105SOL     OW65147  11.319  12.789   4.976
21105SOL    HW165148  11.320  12.842   4.897
21105SOL    HW265149  11.235  12.809   5.018
21106SOL     OW65150  12.823  13.371   8.132
21106SOL    HW165151  12.914  13.379   8.104
21106SOL    HW265152  12.826  13.385   8.227
21107SOL     OW65153  11.755   8.634   3.352
21107SOL    HW165154  11.773   8.569   3.285
21107SOL    HW265155  11.743   8.716   3.303
21108SOL     OW65156  14.007   2.246   0.648
21108SOL    HW165157  14.009   2.156   0.680
21108SOL    HW265158  13.923   2.280   0.677
21109SOL     OW65159   2.276   7.478   1.106
21109SOL    HW165160   2.356   7.444   1.146
21109SOL    HW265161   2.302   7.564   1.071
21110SOL     OW65162   7.221   1.152   2.669
21110SOL    HW165163   7.252   1.129   2.581
21110SOL    HW265164   7.125   1.153   2.661
21111SOL     OW65165   6.590   3.594   1.756
21111SOL    HW165166   6.587   3.689   1.767
21111SOL    HW265167   6.501   3.570   1.731
21112SOL     OW65168  14.734  13.560   5.895
21112SOL    HW165169  14.789  13.481   5.898
21112SOL    HW265170  14.651  13.532   5.933
21113SOL     OW65171   7.095   5.653   0.464
21113SOL    HW165172   7.189   5.667   0.478
21113SOL    HW265173   7.053   5.731   0.500
21114SOL     OW65174   0.826  14.562  13.754
21114SOL    HW165175   0.843  14.588  13.664
21114SOL    HW265176   0.808  14.468  13.749
21115SOL     OW65177   2.117  14.546   0.264
21115SOL    HW165178   2.121  14.640   0.284
21115SOL    HW265179   2.178  14.534   0.191
21116SOL     OW65180   6.689   1.547   8.300
21116SOL    HW165181   6.764   1.606   8.293
21116SOL    HW265182   6.726   1.462   8.322
21117SOL     OW65183   6.297   2.779  10.473
21117SOL    HW165184   6.364   2.716  10.497
21117SOL    HW265185   6.334   2.864  10.498
21118SOL     OW65186   5.433  12.349  11.627
21118SOL    HW165187   5.507  12.299  11.592
21118SOL    HW265188   5.465  12.383  11.711
21119SOL     OW65189   5.377   4.824  11.039
21119SOL    HW165190   5.335   4.738  11.037
21119SOL    HW265191   5.460   4.810  10.994
21120SOL     OW65192  14.633   4.106   1.621
21120SOL    HW165193  14.570   4.101   1.693
21120SOL    HW265194  14.581   4.133   1.545
21121SOL     OW65195   3.332  10.125   0.859
21121SOL    HW165196   3.334  10.081   0.943
21121SOL    HW265197   3.313  10.056   0.795
21122SOL     OW65198   8.506   3.955   0.521
21122SOL    HW165199   8.582   3.896   0.522
21122SOL    HW265200   8.447   3.919   0.587
21123SOL     OW65201  14.409  10.468   9.458
21123SOL    HW165202  14.354  10.406   9.505
21123SOL    HW265203  14.419  10.542   9.517
21124SOL     OW65204   7.206   3.672   1.073
21124SOL    HW165205   7.296   3.704   1.081
21124SOL    HW265206   7.211   3.582   1.103
21125SOL     OW65207   3.145   2.923   0.558
21125SOL    HW165208   3.168   2.968   0.639
21125SOL    HW265209   3.098   2.844   0.587
21126SOL     OW65210   8.846   2.017   1.700
21126SOL    HW165211   8.807   2.101   1.676
21126SOL    HW265212   8.857   1.971   1.618
21127SOL     OW65213   5.387   9.240   2.425
21127SOL    HW165214   5.359   9.253   2.334
21127SOL    HW265215   5.330   9.297   2.476
21128SOL     OW65216   2.960  12.932   8.043
21128SOL    HW165217   3.005  12.848   8.044
21128SOL    HW265218   2.928  12.941   7.953
21129SOL     OW65219  11.117  13.391   7.765
21129SOL    HW165220  11.120  13.452   7.692
21129SOL    HW265221  11.198  13.407   7.813
21130SOL     OW65222   9.242   2.045  10.017
21130SOL    HW165223   9.285   1.959  10.019
21130SOL    HW265224   9.236   2.071  10.109
21131SOL     OW65225  13.347   4.108   7.215
21131SOL    HW165226  13.260   4.140   7.194
21131SOL    HW265227  13.382   4.171   7.278
21132SOL     OW65228   1.717   5.337   2.095
21132SOL    HW165229   1.770   5.395   2.042
21132SOL    HW265230   1.753   5.250   2.080
21133SOL     OW65231  13.548  13.211   7.458
21133SOL    HW165232  13.617  13.224   7.524
21133SOL    HW265233  13.531  13.299   7.423
21134SOL     OW65234  12.609   9.877  11.516
21134SOL    HW165235  12.546   9.813  11.483
21134SOL    HW265236  12.694   9.835  11.501
21135SOL     OW65237  11.353  12.639  13.254
21135SOL    HW165238  11.309  12.702  13.311
21135SOL    HW265239  11.319  12.656  13.167
21136SOL     OW65240   4.502  10.143   4.936
21136SOL    HW165241   4.441  10.126   4.863
21136SOL    HW265242   4.462  10.215   4.984
21137SOL     OW65243   0.363   7.389   3.880
21137SOL    HW165244   0.347   7.473   3.838
21137SOL    HW265245   0.398   7.334   3.810
21138SOL     OW65246   2.815   9.279   7.787
21138SOL    HW165247   2.773   9.244   7.708
21138SOL    HW265248   2.760   9.247   7.859
21139SOL     OW65249   2.642  12.367   8.597
21139SOL    HW165250   2.661  12.383   8.690
21139SOL    HW265251   2.578  12.435   8.574
21140SOL     OW65252   3.541  13.417   8.811
21140SOL    HW165253   3.601  13.419   8.737
21140SOL    HW265254   3.597  13.403   8.887
21141SOL     OW65255  13.699   8.089  10.283
21141SOL    HW165256  13.766   8.049  10.338
21141SOL    HW265257  13.642   8.016  10.258
21142SOL     OW65258   4.001  13.873  11.819
21142SOL    HW165259   4.073  13.851  11.761
21142SOL    HW265260   3.979  13.963  11.797
21143SOL     OW65261   8.904  11.775   0.569
21143SOL    HW165262   8.982  11.827   0.547
21143SOL    HW265263   8.859  11.764   0.485
21144SOL     OW65264  13.401  12.283   3.098
21144SOL    HW165265  13.440  12.205   3.138
21144SOL    HW265266  13.474  12.328   3.055
21145SOL     OW65267   6.384   4.434  11.475
21145SOL    HW165268   6.461   4.475  11.434
21145SOL    HW265269   6.342   4.506  11.523
21146SOL     OW65270   9.050   3.003  13.763
21146SOL    HW165271   9.033   2.939  13.693
21146SOL    HW265272   9.012   2.964  13.841
21147SOL     OW65273  13.431  10.413   7.710
21147SOL    HW165274  13.361  10.355   7.741
21147SOL    HW265275  13.395  10.501   7.720
21148SOL     OW65276   7.995   7.577   3.719
21148SOL    HW165277   7.944   7.654   3.692
21148SOL    HW265278   8.005   7.526   3.638
21149SOL     OW65279  14.247   6.228  10.048
21149SOL    HW165280  14.274   6.176  10.124
21149SOL    HW265281  14.157   6.252  10.066
21150SOL     OW65282   6.819   4.020   6.847
21150SOL    HW165283   6.903   4.032   6.802
21150SOL    HW265284   6.810   4.097   6.903
21151SOL     OW65285  11.622  13.794   4.426
21151SOL    HW165286  11.588  13.835   4.505
21151SOL    HW265287  11.685  13.729   4.457
21152SOL     OW65288   9.278   8.637  13.082
21152SOL    HW165289   9.254   8.658  13.172
21152SOL    HW265290   9.205   8.670  13.029
21153SOL     OW65291   7.427  13.309   8.448
21153SOL    HW165292   7.474  13.316   8.365
21153SOL    HW265293   7.335  13.317   8.423
21154SOL     OW65294   5.830   4.238   6.440
21154SOL    HW165295   5.865   4.297   6.506
21154SOL    HW265296   5.863   4.152   6.464
21155SOL     OW65297  10.300   5.416   2.174
21155SOL    HW165298  10.249   5.350   2.222
21155SOL    HW265299  10.391   5.391   2.188
21156SOL     OW65300   1.383   3.827   9.826
21156SOL    HW165301   1.373   3.922   9.838
21156SOL    HW265302   1.370   3.814   9.732
21157SOL     OW65303   6.371  10.482   9.693
21157SOL    HW165304   6.324  10.457   9.772
21157SOL    HW265305   6.348  10.415   9.628
21158SOL     OW65306  13.058   3.920   4.227
21158SOL    HW165307  12.964   3.909   4.234
21158SOL    HW265308  13.094   3.873   4.303
21159SOL     OW65309   9.606   7.355   4.605
21159SOL    HW165310   9.527   7.397   4.570
21159SOL    HW265311   9.660   7.339   4.528
21160SOL     OW65312   1.163   8.833   8.329
21160SOL    HW165313   1.215   8.897   8.377
21160SOL    HW265314   1.078   8.875   8.315
21161SOL     OW65315  10.556   2.779  11.392
21161SOL    HW165316  10.507   2.823  11.462
21161SOL    HW265317  10.621   2.843  11.365
21162SOL     OW65318   7.906  11.561   6.310
21162SOL    HW165319   7.825  11.516   6.335
21162SOL    HW265320   7.975  11.497   6.329
21163SOL     OW65321   0.946   9.105   5.975
21163SOL    HW165322   0.936   9.178   5.915
21163SOL    HW265323   1.034   9.115   6.010
21164SOL     OW65324   9.561  10.132   0.449
21164SOL    HW165325   9.498  10.079   0.499
21164SOL    HW265326   9.556  10.219   0.488
21165SOL     OW65327  14.691   3.593   8.428
21165SOL    HW165328  14.654   3.610   8.514
21165SOL    HW265329  14.748   3.667   8.410
21166SOL     OW65330  12.691   5.176  11.408
21166SOL    HW165331  12.613   5.216  11.447
21166SOL    HW265332  12.723   5.242  11.347
21167SOL     OW65333  10.387  14.225  13.094
21167SOL    HW165334  10.446  14.256  13.026
21167SOL    HW265335  10.312  14.286  13.090
21168SOL     OW65336   0.681   1.186  12.194
21168SOL    HW165337   0.740   1.233  12.253
21168SOL    HW265338   0.623   1.253  12.159
21169SOL     OW65339  13.160  13.757   1.256
21169SOL    HW165340  13.184  13.849   1.254
21169SOL    HW265341  13.096  13.746   1.186
21170SOL     OW65342  12.108   0.143  13.726
21170SOL    HW165343  12.117   0.157  13.820
21170SOL    HW265344  12.085   0.050  13.717
21171SOL     OW65345   5.074   0.013   1.713
21171SOL    HW165346   5.023   0.044   1.788
21171SOL    HW265347   5.013  14.837   1.663
21172SOL     OW65348   6.317   6.906   3.957
21172SOL    HW165349   6.323   6.814   3.984
21172SOL    HW265350   6.396   6.947   3.992
21173SOL     OW65351   2.071  12.663  11.128
21173SOL    HW165352   2.037  12.628  11.210
21173SOL    HW265353   2.003  12.642  11.064
21174SOL     OW65354   8.836   1.194   3.246
21174SOL    HW165355   8.888   1.201   3.326
21174SOL    HW265356   8.746   1.210   3.275
21175SOL     OW65357   7.585   0.217   4.933
21175SOL    HW165358   7.607   0.219   5.026
21175SOL    HW265359   7.497   0.179   4.929
21176SOL     OW65360   9.642   9.409   4.399
21176SOL    HW165361   9.562   9.367   4.431
21176SOL    HW265362   9.611   9.485   4.351
21177SOL     OW65363  13.151   1.636  12.269
21177SOL    HW165364  13.106   1.654  12.351
21177SOL    HW265365  13.111   1.555  12.237
21178SOL     OW65366   3.723   3.194   5.551
21178SOL    HW165367   3.744   3.192   5.645
21178SOL    HW265368   3.629   3.212   5.548
21179SOL     OW65369  14.426   1.015   8.847
21179SOL    HW165370  14.367   1.031   8.921
21179SOL    HW265371  14.513   1.012   8.887
21180SOL     OW65372   6.238   0.370   1.185
21180SOL    HW165373   6.231   0.283   1.146
21180SOL    HW265374   6.329   0.376   1.214
21181SOL     OW65375  13.831   2.611   3.329
21181SOL    HW165376  13.782   2.572   3.402
21181SOL    HW265377  13.878   2.684   3.369
21182SOL     OW65378   5.715  11.726   7.206
21182SOL    HW165379   5.646  11.736   7.272
21182SOL    HW265380   5.670  11.693   7.128
21183SOL     OW65381   4.182   0.573   0.802
21183SOL    HW165382   4.203   0.485   0.772
21183SOL    HW265383   4.150   0.618   0.724
21184SOL     OW65384   7.372   1.431  14.531
21184SOL    HW165385   7.427   1.441  14.609
21184SOL    HW265386   7.289   1.396  14.565
21185SOL     OW65387   6.777  13.299   4.218
21185SOL    HW165388   6.830  13.261   4.288
21185SOL    HW265389   6.693  13.317   4.260
21186SOL     OW65390   8.798   1.844   3.514
21186SOL    HW165391   8.732   1.891   3.565
21186SOL    HW265392   8.877   1.846   3.568
21187SOL     OW65393  11.191   1.949   2.472
21187SOL    HW165394  11.238   1.991   2.543
21187SOL    HW265395  11.174   1.860   2.504
21188SOL     OW65396  10.330   8.961   7.929
21188SOL    HW165397  10.284   8.912   7.996
21188SOL    HW265398  10.261   9.005   7.879
21189SOL     OW65399   1.078  13.617  11.763
21189SOL    HW165400   1.030  13.547  11.718
21189SOL    HW265401   1.039  13.622  11.849
21190SOL     OW65402   8.822  12.894   2.490
21190SOL    HW165403   8.775  12.914   2.571
21190SOL    HW265404   8.911  12.875   2.519
21191SOL     OW65405   4.128   3.748   7.430
21191SOL    HW165406   4.163   3.785   7.349
21191SOL    HW265407   4.127   3.821   7.491
21192SOL     OW65408   9.427   6.188   4.566
21192SOL    HW165409   9.466   6.254   4.508
21192SOL    HW265410   9.495   6.121   4.575
21193SOL     OW65411  12.044   9.276   0.137
21193SOL    HW165412  12.024   9.183   0.135
21193SOL    HW265413  12.092   9.288   0.219
21194SOL     OW65414   9.793   2.254   8.288
21194SOL    HW165415   9.754   2.177   8.246
21194SOL    HW265416   9.833   2.303   8.217
21195SOL     OW65417  12.792   0.018   1.713
21195SOL    HW165418  12.730  14.874   1.644
21195SOL    HW265419  12.816  14.813   1.752
21196SOL     OW65420   2.792   6.950   8.210
21196SOL    HW165421   2.777   6.997   8.292
21196SOL    HW265422   2.873   6.987   8.176
21197SOL     OW65423  13.435   9.458   9.782
21197SOL    HW165424  13.524   9.434   9.809
21197SOL    HW265425  13.410   9.528   9.843
21198SOL     OW65426   5.859   2.894   5.833
21198SOL    HW165427   5.837   2.870   5.743
21198SOL    HW265428   5.890   2.984   5.827
21199SOL     OW65429   3.556  12.092   8.424
21199SOL    HW165430   3.554  12.043   8.342
21199SOL    HW265431   3.471  12.137   8.426
21200SOL     OW65432   7.147  12.622  14.526
21200SOL    HW165433   7.205  12.644  14.454
21200SOL    HW265434   7.068  12.674  14.510
21201SOL     OW65435   8.096  11.150  12.801
21201SOL    HW165436   8.189  11.149  12.782
21201SOL    HW265437   8.057  11.196  12.726
21202SOL     OW65438   3.150  10.181   9.990
21202SOL    HW165439   3.093  10.235   9.936
21202SOL    HW265440   3.094  10.110  10.021
21203SOL     OW65441  10.515  12.974  11.194
21203SOL    HW165442  10.507  13.056  11.242
21203SOL    HW265443  10.596  12.983  11.144
21204SOL     OW65444   1.195  14.061  13.115
21204SOL    HW165445   1.150  13.981  13.090
21204SOL    HW265446   1.153  14.130  13.063
21205SOL     OW65447  11.771   5.051   9.007
21205SOL    HW165448  11.728   4.991   8.945
21205SOL    HW265449  11.818   4.993   9.067
21206SOL     OW65450   2.226   1.973   9.636
21206SOL    HW165451   2.183   2.054   9.612
21206SOL    HW265452   2.158   1.906   9.631
21207SOL     OW65453   1.171   9.796   1.461
21207SOL    HW165454   1.083   9.814   1.428
21207SOL    HW265455   1.208   9.733   1.399
21208SOL     OW65456  14.475  13.614   2.594
21208SOL    HW165457  14.436  13.554   2.530
21208SOL    HW265458  14.406  13.627   2.659
21209SOL     OW65459   8.412  12.693   8.933
21209SOL    HW165460   8.492  12.732   8.898
21209SOL    HW265461   8.432  12.676   9.025
21210SOL     OW65462   6.321   7.745   2.835
21210SOL    HW165463   6.373   7.676   2.794
21210SOL    HW265464   6.371   7.770   2.912
21211SOL     OW65465   1.993  12.974   3.969
21211SOL    HW165466   1.948  12.915   4.030
21211SOL    HW265467   2.085  12.952   3.978
21212SOL     OW65468   5.819   2.762  13.080
21212SOL    HW165469   5.797   2.778  12.989
21212SOL    HW265470   5.863   2.677  13.078
21213SOL     OW65471  13.869   5.559  13.518
21213SOL    HW165472  13.792   5.599  13.558
21213SOL    HW265473  13.835   5.518  13.438
21214SOL     OW65474   4.934  14.528   0.721
21214SOL    HW165475   4.851  14.531   0.672
21214SOL    HW265476   4.921  14.588   0.794
21215SOL     OW65477   6.610  12.878   9.355
21215SOL    HW165478   6.527  12.897   9.398
21215SOL    HW265479   6.625  12.953   9.298
21216SOL     OW65480   8.565   3.600  14.260
21216SOL    HW165481   8.585   3.624  14.351
21216SOL    HW265482   8.642   3.629  14.210
21217SOL     OW65483   3.180   8.532   9.555
21217SOL    HW165484   3.239   8.494   9.490
21217SOL    HW265485   3.094   8.528   9.515
21218SOL     OW65486   5.341  12.392   9.361
21218SOL    HW165487   5.372  12.303   9.342
21218SOL    HW265488   5.419  12.439   9.389
21219SOL     OW65489   1.979   2.793  12.559
21219SOL    HW165490   2.034   2.721  12.590
21219SOL    HW265491   1.919   2.752  12.497
21220SOL     OW65492  14.668   1.353  11.301
21220SOL    HW165493  14.680   1.428  11.360
21220SOL    HW265494  14.706   1.381  11.218
21221SOL     OW65495   0.669  11.104   9.675
21221SOL    HW165496   0.601  11.037   9.679
21221SOL    HW265497   0.720  11.091   9.755
21222SOL     OW65498   2.811   9.248   1.788
21222SOL    HW165499   2.757   9.325   1.773
21222SOL    HW265500   2.834   9.217   1.700
21223SOL     OW65501   4.077   8.952   1.235
21223SOL    HW165502   4.152   8.984   1.285
21223SOL    HW265503   4.073   8.858   1.254
21224SOL     OW65504   3.937   8.539   8.330
21224SOL    HW165505   4.030   8.542   8.350
21224SOL    HW265506   3.928   8.590   8.249
21225SOL     OW65507   5.306  12.470   4.271
21225SOL    HW165508   5.271  12.423   4.347
21225SOL    HW265509   5.401  12.473   4.286
21226SOL     OW65510   8.497   3.288  11.106
21226SOL    HW165511   8.533   3.361  11.055
21226SOL    HW265512   8.406   3.311  11.122
21227SOL     OW65513   3.539   1.702   3.284
21227SOL    HW165514   3.520   1.747   3.201
21227SOL    HW265515   3.495   1.754   3.351
21228SOL     OW65516  10.486   0.230  14.570
21228SOL    HW165517  10.577   0.235  14.540
21228SOL    HW265518  10.492   0.214  14.664
21229SOL     OW65519  11.020   6.484  13.313
21229SOL    HW165520  10.975   6.472  13.397
21229SOL    HW265521  11.035   6.395  13.282
21230SOL     OW65522   6.599   6.675   8.658
21230SOL    HW165523   6.572   6.583   8.662
21230SOL    HW265524   6.516   6.724   8.658
21231SOL     OW65525   6.134  13.177   5.396
21231SOL    HW165526   6.181  13.193   5.478
21231SOL    HW265527   6.058  13.235   5.401
21232SOL     OW65528  10.331   7.219   4.641
21232SOL    HW165529  10.350   7.312   4.630
21232SOL    HW265530  10.384   7.192   4.716
21233SOL     OW65531   3.200   1.480  11.502
21233SOL    HW165532   3.251   1.536  11.561
21233SOL    HW265533   3.156   1.540  11.443
21234SOL     OW65534   2.239   7.128   2.619
21234SOL    HW165535   2.223   7.169   2.704
21234SOL    HW265536   2.254   7.036   2.640
21235SOL     OW65537   8.771   3.241  11.143
21235SOL    HW165538   8.733   3.158  11.114
21235SOL    HW265539   8.699   3.285  11.188
21236SOL     OW65540  10.654   4.739   8.602
21236SOL    HW165541  10.584   4.797   8.572
21236SOL    HW265542  10.644   4.734   8.697
21237SOL     OW65543   1.465   9.293   5.758
21237SOL    HW165544   1.526   9.350   5.711
21237SOL    HW265545   1.521   9.227   5.800
21238SOL     OW65546   8.459   2.519   3.056
21238SOL    HW165547   8.438   2.489   3.145
21238SOL    HW265548   8.520   2.454   3.023
21239SOL     OW65549   2.968   8.311  12.231
21239SOL    HW165550   3.051   8.337  12.271
21239SOL    HW265551   2.903   8.372  12.267
21240SOL     OW65552   0.803   6.141  11.011
21240SOL    HW165553   0.878   6.171  10.960
21240SOL    HW265554   0.839   6.078  11.073
21241SOL     OW65555   5.536   5.510   8.690
21241SOL    HW165556   5.533   5.579   8.757
21241SOL    HW265557   5.506   5.431   8.734
21242SOL     OW65558  11.618   8.785   8.298
21242SOL    HW165559  11.671   8.723   8.347
21242SOL    HW265560  11.528   8.753   8.308
21243SOL     OW65561   9.245   3.501   1.369
21243SOL    HW165562   9.310   3.445   1.327
21243SOL    HW265563   9.191   3.534   1.297
21244SOL     OW65564  12.120   6.414   9.733
21244SOL    HW165565  12.191   6.461   9.689
21244SOL    HW265566  12.063   6.385   9.661
21245SOL     OW65567  11.067   2.997  11.834
21245SOL    HW165568  11.052   3.085  11.799
21245SOL    HW265569  11.003   2.942  11.789
21246SOL     OW65570  10.637   5.071  13.655
21246SOL    HW165571  10.663   5.143  13.597
21246SOL    HW265572  10.705   5.069  13.722
21247SOL     OW65573   3.196  13.142   6.546
21247SOL    HW165574   3.222  13.209   6.609
21247SOL    HW265575   3.135  13.186   6.487
21248SOL     OW65576   5.231   5.130   1.568
21248SOL    HW165577   5.179   5.102   1.494
21248SOL    HW265578   5.294   5.059   1.583
21249SOL     OW65579   3.820  14.720   2.897
21249SOL    HW165580   3.802  14.638   2.853
21249SOL    HW265581   3.801  14.788   2.832
21250SOL     OW65582  14.840  13.863   6.638
21250SOL    HW165583  14.803  13.920   6.705
21250SOL    HW265584   0.041  13.828   6.677
21251SOL     OW65585   2.583   4.722   5.273
21251SOL    HW165586   2.545   4.635   5.262
21251SOL    HW265587   2.547   4.754   5.356
21252SOL     OW65588   1.715   3.252  10.595
21252SOL    HW165589   1.734   3.345  10.580
21252SOL    HW265590   1.741   3.236  10.685
21253SOL     OW65591  11.638   8.048  11.377
21253SOL    HW165592  11.596   7.987  11.437
21253SOL    HW265593  11.670   7.993  11.305
21254SOL     OW65594  10.334   7.590   3.005
21254SOL    HW165595  10.395   7.641   2.952
21254SOL    HW265596  10.327   7.639   3.087
21255SOL     OW65597   4.775   0.218   4.795
21255SOL    HW165598   4.729   0.286   4.745
21255SOL    HW265599   4.757   0.137   4.747
21256SOL     OW65600   7.599   7.359   8.532
21256SOL    HW165601   7.568   7.307   8.458
21256SOL    HW265602   7.623   7.444   8.493
21257SOL     OW65603   5.197  13.785   4.797
21257SOL    HW165604   5.151  13.814   4.876
21257SOL    HW265605   5.159  13.698   4.778
21258SOL     OW65606  14.707   7.459  13.030
21258SOL    HW165607  14.674   7.538  13.072
21258SOL    HW265608  14.722   7.398  13.102
21259SOL     OW65609  14.192   6.418  12.076
21259SOL    HW165610  14.148   6.424  12.161
21259SOL    HW265611  14.121   6.405  12.013
21260SOL     OW65612   3.598  12.942  12.762
21260SOL    HW165613   3.584  12.999  12.838
21260SOL    HW265614   3.571  12.995  12.687
21261SOL     OW65615  10.917   1.554  11.601
21261SOL    HW165616  10.910   1.485  11.667
21261SOL    HW265617  10.947   1.631  11.650
21262SOL     OW65618   6.289   9.995   0.486
21262SOL    HW165619   6.303   9.988   0.580
21262SOL    HW265620   6.265   9.906   0.458
21263SOL     OW65621   7.885  14.620   6.115
21263SOL    HW165622   7.858  14.682   6.183
21263SOL    HW265623   7.820  14.549   6.121
21264SOL     OW65624  13.298  11.488  14.549
21264SOL    HW165625  13.390  11.504  14.571
21264SOL    HW265626  13.249  11.548  14.605
21265SOL     OW65627   8.653  12.591   2.158
21265SOL    HW165628   8.613  12.620   2.076
21265SOL    HW265629   8.646  12.496   2.156
21266SOL     OW65630   8.621  14.039  14.874
21266SOL    HW165631   8.604  14.103  14.805
21266SOL    HW265632   8.573  13.961  14.847
21267SOL     OW65633   4.421  14.047  12.214
21267SOL    HW165634   4.433  14.109  12.287
21267SOL    HW265635   4.328  14.028  12.213
21268SOL     OW65636  14.691   6.158   9.666
21268SOL    HW165637  14.616   6.111   9.703
21268SOL    HW265638  14.758   6.152   9.734
21269SOL     OW65639   6.262   8.376   9.046
21269SOL    HW165640   6.274   8.369   9.141
21269SOL    HW265641   6.238   8.288   9.018
21270SOL     OW65642  11.330   7.230  14.187
21270SOL    HW165643  11.410   7.237  14.135
21270SOL    HW265644  11.325   7.137  14.210
21271SOL     OW65645  14.635   8.382   3.472
21271SOL    HW165646  14.660   8.294   3.444
21271SOL    HW265647  14.695   8.440   3.425
21272SOL     OW65648   0.956   0.519   2.263
21272SOL    HW165649   0.895   0.532   2.190
21272SOL    HW265650   0.927   0.580   2.330
21273SOL     OW65651   4.859  14.824   6.003
21273SOL    HW165652   4.907  14.799   5.924
21273SOL    HW265653   4.866   0.041   6.007
21274SOL     OW65654  11.932  12.128  12.822
21274SOL    HW165655  11.946  12.216  12.855
21274SOL    HW265656  12.012  12.080  12.847
21275SOL     OW65657   8.929  10.995  13.837
21275SOL    HW165658   9.015  10.957  13.820
21275SOL    HW265659   8.890  10.937  13.903
21276SOL     OW65660   5.746  13.731   1.505
21276SOL    HW165661   5.730  13.664   1.572
21276SOL    HW265662   5.713  13.812   1.544
21277SOL     OW65663   4.275   1.772   9.493
21277SOL    HW165664   4.192   1.778   9.541
21277SOL    HW265665   4.284   1.857   9.450
21278SOL     OW65666   1.595  12.180   9.971
21278SOL    HW165667   1.589  12.128   9.891
21278SOL    HW265668   1.681  12.223   9.965
21279SOL     OW65669   3.692   7.614  11.711
21279SOL    HW165670   3.764   7.551  11.707
21279SOL    HW265671   3.616   7.565  11.681
21280SOL     OW65672  14.810   0.575  14.057
21280SOL    HW165673  14.771   0.607  14.138
21280SOL    HW265674  14.736   0.567  13.997
21281SOL     OW65675   5.741  11.780  11.320
21281SOL    HW165676   5.691  11.801  11.241
21281SOL    HW265677   5.781  11.695  11.302
21282SOL     OW65678   8.420  11.366   4.572
21282SOL    HW165679   8.485  11.297   4.588
21282SOL    HW265680   8.339  11.318   4.552
21283SOL     OW65681   2.373   4.883   0.643
21283SOL    HW165682   2.404   4.974   0.649
21283SOL    HW265683   2.451   4.833   0.620
21284SOL     OW65684   4.387  13.495   9.214
21284SOL    HW165685   4.437  13.512   9.294
21284SOL    HW265686   4.296  13.490   9.244
21285SOL     OW65687   5.778   6.013   3.414
21285SOL    HW165688   5.761   5.945   3.480
21285SOL    HW265689   5.732   5.982   3.336
21286SOL     OW65690  12.259   9.108   7.677
21286SOL    HW165691  12.354   9.105   7.679
21286SOL    HW265692  12.236   9.192   7.718
21287SOL     OW65693  12.106   7.686   6.844
21287SOL    HW165694  12.065   7.773   6.836
21287SOL    HW265695  12.046   7.636   6.899
21288SOL     OW65696   9.884   0.914   3.071
21288SOL    HW165697   9.942   0.979   3.110
21288SOL    HW265698   9.916   0.903   2.982
21289SOL     OW65699   8.944   1.034   1.988
21289SOL    HW165700   8.886   1.061   2.060
21289SOL    HW265701   9.032   1.042   2.025
21290SOL     OW65702  11.785  11.209   8.916
21290SOL    HW165703  11.774  11.188   8.823
21290SOL    HW265704  11.760  11.128   8.962
21291SOL     OW65705   4.009  10.697   8.949
21291SOL    HW165706   4.075  10.751   8.905
21291SOL    HW265707   3.926  10.739   8.929
21292SOL     OW65708   5.828  10.774   6.626
21292SOL    HW165709   5.880  10.854   6.632
21292SOL    HW265710   5.783  10.781   6.542
21293SOL     OW65711   0.804   3.393   1.334
21293SOL    HW165712   0.822   3.326   1.269
21293SOL    HW265713   0.749   3.456   1.288
21294SOL     OW65714  10.207   6.763   9.316
21294SOL    HW165715  10.161   6.775   9.399
21294SOL    HW265716  10.229   6.670   9.314
21295SOL     OW65717  14.618   4.261   2.167
21295SOL    HW165718  14.559   4.196   2.128
21295SOL    HW265719  14.561   4.333   2.194
21296SOL     OW65720  12.923   1.152   2.620
21296SOL    HW165721  12.829   1.171   2.623
21296SOL    HW265722  12.964   1.235   2.595
21297SOL     OW65723   6.725  13.742   3.237
21297SOL    HW165724   6.663  13.703   3.175
21297SOL    HW265725   6.677  13.747   3.319
21298SOL     OW65726   5.931   9.166   3.868
21298SOL    HW165727   5.994   9.149   3.938
21298SOL    HW265728   5.983   9.165   3.788
21299SOL     OW65729   0.536  11.411   3.908
21299SOL    HW165730   0.578  11.325   3.903
21299SOL    HW265731   0.471  11.402   3.977
21300SOL     OW65732   8.492   7.390   9.416
21300SOL    HW165733   8.527   7.353   9.335
21300SOL    HW265734   8.455   7.315   9.463
21301SOL     OW65735   0.003  13.454  12.778
21301SOL    HW165736   0.062  13.514  12.823
21301SOL    HW265737   0.002  13.483  12.687
21302SOL     OW65738  12.218  10.648  10.389
21302SOL    HW165739  12.210  10.624  10.481
21302SOL    HW265740  12.216  10.744  10.389
21303SOL     OW65741  11.927   4.709   8.213
21303SOL    HW165742  11.998   4.727   8.274
21303SOL    HW265743  11.917   4.613   8.216
21304SOL     OW65744   3.326   6.732   7.531
21304SOL    HW165745   3.319   6.637   7.532
21304SOL    HW265746   3.395   6.750   7.468
21305SOL     OW65747  11.505  11.538   0.489
21305SOL    HW165748  11.451  11.544   0.411
21305SOL    HW265749  11.522  11.445   0.500
21306SOL     OW65750  14.686   6.478   9.655
21306SOL    HW165751  14.701   6.443   9.743
21306SOL    HW265752  14.617   6.424   9.618
21307SOL     OW65753   8.101  13.773  12.789
21307SOL    HW165754   8.008  13.768  12.768
21307SOL    HW265755   8.145  13.726  12.719
21308SOL     OW65756   5.163   4.754   9.537
21308SOL    HW165757   5.129   4.820   9.478
21308SOL    HW265758   5.258   4.766   9.534
21309SOL     OW65759   4.734  14.793  13.912
21309SOL    HW165760   4.748  14.698  13.906
21309SOL    HW265761   4.724  14.809  14.006
21310SOL     OW65762  14.139   4.818   4.892
21310SOL    HW165763  14.113   4.900   4.935
21310SOL    HW265764  14.220   4.793   4.938
21311SOL     OW65765   9.654   4.079  14.149
21311SOL    HW165766   9.687   4.136  14.219
21311SOL    HW265767   9.589   4.023  14.191
21312SOL     OW65768  12.669   0.050  12.084
21312SOL    HW165769  12.647   0.020  12.172
21312SOL    HW265770  12.761   0.025  12.072
21313SOL     OW65771   1.899   6.956  12.912
21313SOL    HW165772   1.825   6.957  12.974
21313SOL    HW265773   1.965   6.901  12.954
21314SOL     OW65774   3.351  12.333   5.173
21314SOL    HW165775   3.336  12.239   5.166
21314SOL    HW265776   3.350  12.364   5.083
21315SOL     OW65777   5.480  11.161   1.321
21315SOL    HW165778   5.484  11.160   1.225
21315SOL    HW265779   5.568  11.134   1.348
21316SOL     OW65780  13.097   0.544   3.292
21316SOL    HW165781  13.138   0.603   3.228
21316SOL    HW265782  13.164   0.478   3.310
21317SOL     OW65783  12.454  10.344   7.199
21317SOL    HW165784  12.474  10.288   7.274
21317SOL    HW265785  12.359  10.359   7.206
21318SOL     OW65786  10.904   1.685   2.111
21318SOL    HW165787  10.919   1.682   2.016
21318SOL    HW265788  10.925   1.776   2.135
21319SOL     OW65789  13.668   0.283   2.446
21319SOL    HW165790  13.717   0.355   2.405
21319SOL    HW265791  13.695   0.286   2.538
21320SOL     OW65792  14.253   3.996   0.026
21320SOL    HW165793  14.283   3.959   0.109
21320SOL    HW265794  14.235   4.088   0.046
21321SOL     OW65795   8.600   1.536   2.945
21321SOL    HW165796   8.529   1.571   3.000
21321SOL    HW265797   8.611   1.601   2.876
21322SOL     OW65798  14.632   9.991   9.044
21322SOL    HW165799  14.706  10.017   9.099
21322SOL    HW265800  14.555  10.025   9.090
21323SOL     OW65801  13.646   7.302   6.989
21323SOL    HW165802  13.658   7.385   7.036
21323SOL    HW265803  13.692   7.314   6.906
21324SOL     OW65804   6.716   9.189  10.090
21324SOL    HW165805   6.740   9.097  10.079
21324SOL    HW265806   6.663   9.209  10.013
21325SOL     OW65807  11.412   8.634   0.608
21325SOL    HW165808  11.394   8.597   0.694
21325SOL    HW265809  11.326   8.649   0.569
21326SOL     OW65810  13.446   8.290   6.306
21326SOL    HW165811  13.448   8.283   6.401
21326SOL    HW265812  13.375   8.232   6.278
21327SOL     OW65813   7.842   7.230   2.612
21327SOL    HW165814   7.815   7.140   2.590
21327SOL    HW265815   7.926   7.241   2.568
21328SOL     OW65816   7.051   4.189   3.467
21328SOL    HW165817   7.134   4.158   3.502
21328SOL    HW265818   6.989   4.118   3.484
21329SOL     OW65819   7.593   2.121   5.129
21329SOL    HW165820   7.554   2.207   5.110
21329SOL    HW265821   7.558   2.098   5.215
21330SOL     OW65822   0.193   3.125   7.107
21330SOL    HW165823   0.285   3.138   7.129
21330SOL    HW265824   0.186   3.031   7.090
21331SOL     OW65825   9.495   8.496   0.646
21331SOL    HW165826   9.455   8.414   0.617
21331SOL    HW265827   9.547   8.526   0.571
21332SOL     OW65828   6.503   7.465  11.885
21332SOL    HW165829   6.550   7.525  11.944
21332SOL    HW265830   6.421   7.510  11.866
21333SOL     OW65831  13.409   0.941  11.294
21333SOL    HW165832  13.335   0.968  11.240
21333SOL    HW265833  13.463   1.020  11.302
21334SOL     OW65834  14.114   9.445  13.994
21334SOL    HW165835  14.061   9.413  14.067
21334SOL    HW265836  14.111   9.540  14.001
21335SOL     OW65837   2.742   5.556  13.997
21335SOL    HW165838   2.792   5.477  13.977
21335SOL    HW265839   2.670   5.555  13.933
21336SOL     OW65840  12.824   6.258   3.231
21336SOL    HW165841  12.786   6.174   3.205
21336SOL    HW265842  12.799   6.269   3.322
21337SOL     OW65843   7.654   7.529  13.623
21337SOL    HW165844   7.574   7.502  13.578
21337SOL    HW265845   7.638   7.511  13.715
21338SOL     OW65846   4.945  14.562   5.155
21338SOL    HW165847   4.984  14.504   5.090
21338SOL    HW265848   4.908  14.634   5.103
21339SOL     OW65849   6.676   1.188   2.726
21339SOL    HW165850   6.663   1.167   2.633
21339SOL    HW265851   6.591   1.173   2.766
21340SOL     OW65852   2.163   0.035  14.574
21340SOL    HW165853   2.229   0.085  14.621
21340SOL    HW265854   2.201   0.019  14.488
21341SOL     OW65855  10.407  13.881  14.289
21341SOL    HW165856  10.496  13.915  14.297
21341SOL    HW265857  10.358  13.926  14.358
21342SOL     OW65858   6.358   0.611   1.590
21342SOL    HW165859   6.423   0.561   1.640
21342SOL    HW265860   6.406   0.643   1.514
21343SOL     OW65861   4.185   2.040   6.885
21343SOL    HW165862   4.247   2.045   6.958
21343SOL    HW265863   4.201   2.120   6.835
21344SOL     OW65864  12.472  11.998   7.971
21344SOL    HW165865  12.447  11.943   8.045
21344SOL    HW265866  12.547  11.953   7.932
21345SOL     OW65867  12.721  13.452   2.876
21345SOL    HW165868  12.692  13.530   2.829
21345SOL    HW265869  12.814  13.467   2.892
21346SOL     OW65870   9.754   1.540  11.509
21346SOL    HW165871   9.739   1.502  11.596
21346SOL    HW265872   9.835   1.498  11.479
21347SOL     OW65873   2.610   2.633  11.697
21347SOL    HW165874   2.539   2.580  11.661
21347SOL    HW265875   2.579   2.723  11.691
21348SOL     OW65876   1.215   4.604  13.854
21348SOL    HW165877   1.262   4.540  13.907
21348SOL    HW265878   1.276   4.628  13.785
21349SOL     OW65879  12.811  14.355   1.399
21349SOL    HW165880  12.738  14.296   1.420
21349SOL    HW265881  12.797  14.379   1.307
21350SOL     OW65882   0.279   5.684   3.627
21350SOL    HW165883   0.321   5.770   3.631
21350SOL    HW265884   0.193   5.701   3.589
21351SOL     OW65885  10.643  10.832   4.332
21351SOL    HW165886  10.699  10.896   4.289
21351SOL    HW265887  10.582  10.885   4.384
21352SOL     OW65888   9.302   8.501   4.668
21352SOL    HW165889   9.380   8.530   4.621
21352SOL    HW265890   9.282   8.415   4.631
21353SOL     OW65891  14.833   8.630   6.458
21353SOL    HW165892  14.830   8.554   6.401
21353SOL    HW265893  14.808   8.703   6.402
21354SOL     OW65894   0.276  13.971   5.232
21354SOL    HW165895   0.200  13.929   5.192
21354SOL    HW265896   0.324  13.899   5.273
21355SOL     OW65897   8.290   6.413  12.183
21355SOL    HW165898   8.347   6.479  12.142
21355SOL    HW265899   8.343   6.334  12.186
21356SOL     OW65900   4.762  13.558  12.749
21356SOL    HW165901   4.722  13.641  12.723
21356SOL    HW265902   4.708  13.491  12.706
21357SOL     OW65903   1.800  13.852   0.319
21357SOL    HW165904   1.744  13.849   0.397
21357SOL    HW265905   1.824  13.760   0.304
21358SOL     OW65906   5.971  12.444   6.536
21358SOL    HW165907   5.885  12.485   6.535
21358SOL    HW265908   5.960  12.366   6.591
21359SOL     OW65909   2.429  14.057  13.465
21359SOL    HW165910   2.445  13.968  13.433
21359SOL    HW265911   2.471  14.113  13.401
21360SOL     OW65912   6.825  14.487   0.823
21360SOL    HW165913   6.884  14.560   0.838
21360SOL    HW265914   6.881  14.419   0.784
21361SOL     OW65915   8.332  10.668   6.273
21361SOL    HW165916   8.417  10.709   6.256
21361SOL    HW265917   8.348  10.613   6.350
21362SOL     OW65918   9.286   7.930  10.222
21362SOL    HW165919   9.199   7.962  10.244
21362SOL    HW265920   9.286   7.839  10.252
21363SOL     OW65921  12.677  10.628   5.421
21363SOL    HW165922  12.753  10.577   5.392
21363SOL    HW265923  12.624  10.566   5.469
21364SOL     OW65924  13.007   8.112   4.108
21364SOL    HW165925  12.971   8.045   4.050
21364SOL    HW265926  13.054   8.062   4.176
21365SOL     OW65927   3.177  11.716   7.811
21365SOL    HW165928   3.094  11.669   7.804
21365SOL    HW265929   3.204  11.730   7.721
21366SOL     OW65930  12.971   9.962   5.814
21366SOL    HW165931  13.003   9.894   5.874
21366SOL    HW265932  12.886   9.930   5.785
21367SOL     OW65933   6.318  11.530   7.023
21367SOL    HW165934   6.308  11.469   6.950
21367SOL    HW265935   6.374  11.483   7.085
21368SOL     OW65936   3.937  14.294   9.979
21368SOL    HW165937   3.879  14.352  10.029
21368SOL    HW265938   3.956  14.222  10.039
21369SOL     OW65939   5.465  11.629   0.198
21369SOL    HW165940   5.414  11.560   0.156
21369SOL    HW265941   5.417  11.649   0.278
21370SOL     OW65942   4.094  12.722   7.829
21370SOL    HW165943   4.060  12.667   7.758
21370SOL    HW265944   4.137  12.660   7.889
21371SOL     OW65945   2.224   0.550   1.584
21371SOL    HW165946   2.273   0.631   1.596
21371SOL    HW265947   2.167   0.567   1.510
21372SOL     OW65948   7.620   9.112  12.973
21372SOL    HW165949   7.628   9.026  12.932
21372SOL    HW265950   7.565   9.162  12.913
21373SOL     OW65951  13.178   3.471  10.768
21373SOL    HW165952  13.226   3.534  10.821
21373SOL    HW265953  13.221   3.473  10.683
21374SOL     OW65954  13.270   1.880   9.652
21374SOL    HW165955  13.199   1.891   9.715
21374SOL    HW265956  13.227   1.856   9.570
21375SOL     OW65957   8.304   9.885   3.142
21375SOL    HW165958   8.366   9.823   3.104
21375SOL    HW265959   8.346   9.971   3.133
21376SOL     OW65960   4.143  13.825   2.147
21376SOL    HW165961   4.080  13.892   2.176
21376SOL    HW265962   4.195  13.869   2.080
21377SOL     OW65963  13.860   6.943   6.654
21377SOL    HW165964  13.827   6.855   6.674
21377SOL    HW265965  13.783   6.999   6.663
21378SOL     OW65966   1.329  14.769   3.219
21378SOL    HW165967   1.336  14.855   3.262
21378SOL    HW265968   1.346  14.706   3.289
21379SOL     OW65969   7.069  10.158   3.034
21379SOL    HW165970   7.027  10.199   3.110
21379SOL    HW265971   7.091  10.070   3.065
21380SOL     OW65972   5.335  11.200   4.103
21380SOL    HW165973   5.418  11.179   4.060
21380SOL    HW265974   5.279  11.125   4.084
21381SOL     OW65975   3.467   1.575   7.827
21381SOL    HW165976   3.499   1.544   7.911
21381SOL    HW265977   3.421   1.499   7.790
21382SOL     OW65978  14.564   8.403   1.136
21382SOL    HW165979  14.475   8.420   1.107
21382SOL    HW265980  14.619   8.445   1.070
21383SOL     OW65981   4.451  10.876  13.834
21383SOL    HW165982   4.491  10.795  13.865
21383SOL    HW265983   4.504  10.946  13.872
21384SOL     OW65984  10.561   4.706  14.323
21384SOL    HW165985  10.538   4.614  14.340
21384SOL    HW265986  10.479   4.747  14.298
21385SOL     OW65987   5.486  10.797   4.076
21385SOL    HW165988   5.449  10.849   4.147
21385SOL    HW265989   5.455  10.708   4.091
21386SOL     OW65990   2.153   2.670  11.602
21386SOL    HW165991   2.079   2.715  11.561
21386SOL    HW265992   2.117   2.587  11.632
21387SOL     OW65993  10.592   6.068   6.350
21387SOL    HW165994  10.685   6.057   6.327
21387SOL    HW265995  10.573   5.995   6.409
21388SOL     OW65996   3.905   4.948  14.759
21388SOL    HW165997   3.897   4.909  14.846
21388SOL    HW265998   3.887   4.877  14.698
21389SOL     OW65999   5.974  13.851   0.823
21389SOL    HW166000   6.034  13.791   0.779
21389SOL    HW266001   6.013  13.938   0.811
21390SOL     OW66002   2.455   9.479  10.674
21390SOL    HW166003   2.550   9.482  10.665
21390SOL    HW266004   2.440   9.488  10.768
21391SOL     OW66005   3.699  14.661  11.866
21391SOL    HW166006   3.768  14.712  11.823
21391SOL    HW266007   3.703  14.687  11.957
21392SOL     OW66008   4.372   8.918   9.295
21392SOL    HW166009   4.290   8.954   9.329
21392SOL    HW266010   4.410   8.871   9.369
21393SOL     OW66011  14.073  13.104   3.219
21393SOL    HW166012  14.158  13.126   3.256
21393SOL    HW266013  14.014  13.171   3.253
21394SOL     OW66014  12.316   4.111  12.762
21394SOL    HW166015  12.283   4.021  12.755
21394SOL    HW266016  12.393   4.112  12.704
21395SOL     OW66017  13.240  14.006  11.749
21395SOL    HW166018  13.295  14.049  11.814
21395SOL    HW266019  13.224  13.919  11.785
21396SOL     OW66020   4.648  14.270   1.549
21396SOL    HW166021   4.653  14.299   1.458
21396SOL    HW266022   4.583  14.200   1.549
21397SOL     OW66023   2.009   7.584  14.572
21397SOL    HW166024   2.083   7.585  14.632
21397SOL    HW266025   2.041   7.535  14.495
21398SOL     OW66026   0.132   5.857  10.964
21398SOL    HW166027   0.194   5.818  11.025
21398SOL    HW266028   0.129   5.950  10.988
21399SOL     OW66029   0.623   4.466   8.190
21399SOL    HW166030   0.707   4.511   8.179
21399SOL    HW266031   0.618   4.447   8.284
21400SOL     OW66032  10.001   5.497   2.482
21400SOL    HW166033   9.911   5.521   2.501
21400SOL    HW266034  10.020   5.540   2.399
21401SOL     OW66035  14.161   2.702   6.806
21401SOL    HW166036  14.230   2.640   6.781
21401SOL    HW266037  14.136   2.676   6.894
21402SOL     OW66038   2.807   8.656  11.672
21402SOL    HW166039   2.891   8.697  11.652
21402SOL    HW266040   2.750   8.683  11.600
21403SOL     OW66041   7.892   4.384   2.903
21403SOL    HW166042   7.949   4.308   2.890
21403SOL    HW266043   7.850   4.397   2.817
21404SOL     OW66044  11.962  10.872  13.805
21404SOL    HW166045  12.052  10.857  13.776
21404SOL    HW266046  11.916  10.903  13.727
21405SOL     OW66047   9.044   7.714   0.491
21405SOL    HW166048   9.050   7.701   0.396
21405SOL    HW266049   8.954   7.691   0.512
21406SOL     OW66050   1.858   0.456   5.105
21406SOL    HW166051   1.781   0.503   5.139
21406SOL    HW266052   1.907   0.522   5.057
21407SOL     OW66053   6.098   7.597  13.154
21407SOL    HW166054   6.179   7.617  13.200
21407SOL    HW266055   6.029   7.616  13.217
21408SOL     OW66056  10.134  13.687   2.326
21408SOL    HW166057  10.056  13.667   2.379
21408SOL    HW266058  10.192  13.612   2.340
21409SOL     OW66059   9.462   8.574   9.413
21409SOL    HW166060   9.378   8.527   9.416
21409SOL    HW266061   9.524   8.514   9.455
21410SOL     OW66062   9.005   8.863  12.228
21410SOL    HW166063   8.942   8.829  12.292
21410SOL    HW266064   9.029   8.787  12.174
21411SOL     OW66065  10.809   8.535  14.550
21411SOL    HW166066  10.737   8.538  14.612
21411SOL    HW266067  10.888   8.540  14.604
21412SOL     OW66068   2.939   6.365   6.574
21412SOL    HW166069   3.015   6.381   6.517
21412SOL    HW266070   2.904   6.452   6.592
21413SOL     OW66071  10.457   4.479   9.616
21413SOL    HW166072  10.367   4.496   9.589
21413SOL    HW266073  10.449   4.444   9.705
21414SOL     OW66074   1.637   3.884   6.406
21414SOL    HW166075   1.578   3.833   6.461
21414SOL    HW266076   1.720   3.886   6.455
21415SOL     OW66077  10.781   7.428   9.672
21415SOL    HW166078  10.786   7.509   9.622
21415SOL    HW266079  10.700   7.386   9.643
21416SOL     OW66080  12.274   8.787   3.052
21416SOL    HW166081  12.246   8.852   3.117
21416SOL    HW266082  12.336   8.834   2.997
21417SOL     OW66083   2.947   1.251   4.872
21417SOL    HW166084   2.915   1.231   4.960
21417SOL    HW266085   3.042   1.254   4.882
21418SOL     OW66086  11.107  12.973  14.746
21418SOL    HW166087  11.119  12.889  14.701
21418SOL    HW266088  11.084  13.035  14.676
21419SOL     OW66089   0.392   8.600  12.036
21419SOL    HW166090   0.317   8.661  12.041
21419SOL    HW266091   0.356   8.516  12.065
21420SOL     OW66092  13.553   9.603  14.189
21420SOL    HW166093  13.615   9.562  14.250
21420SOL    HW266094  13.503   9.530  14.154
21421SOL     OW66095   7.104   9.054   1.185
21421SOL    HW166096   7.133   9.109   1.259
21421SOL    HW266097   7.183   9.040   1.134
21422SOL     OW66098  10.622   5.985   7.915
21422SOL    HW166099  10.628   5.890   7.903
21422SOL    HW266100  10.683   6.022   7.851
21423SOL     OW66101   2.510   3.963  12.522
21423SOL    HW166102   2.522   4.022  12.449
21423SOL    HW266103   2.501   3.876  12.482
21424SOL     OW66104   8.251  12.435   9.920
21424SOL    HW166105   8.278  12.505   9.979
21424SOL    HW266106   8.189  12.383   9.970
21425SOL     OW66107   9.757   3.864  11.912
21425SOL    HW166108   9.820   3.904  11.973
21425SOL    HW266109   9.695   3.934  11.893
21426SOL     OW66110   3.648  11.871   3.594
21426SOL    HW166111   3.718  11.860   3.659
21426SOL    HW266112   3.568  11.845   3.640
21427SOL     OW66113  10.380   4.653   4.596
21427SOL    HW166114  10.339   4.618   4.517
21427SOL    HW266115  10.451   4.591   4.615
21428SOL     OW66116   1.179  10.925   1.639
21428SOL    HW166117   1.164  10.987   1.568
21428SOL    HW266118   1.264  10.951   1.675
21429SOL     OW66119   8.799   8.521  10.470
21429SOL    HW166120   8.783   8.448  10.410
21429SOL    HW266121   8.862   8.488  10.533
21430SOL     OW66122   2.958  12.530  12.902
21430SOL    HW166123   2.930  12.445  12.867
21430SOL    HW266124   2.884  12.560  12.954
21431SOL     OW66125   7.160   2.665   1.267
21431SOL    HW166126   7.201   2.628   1.346
21431SOL    HW266127   7.079   2.705   1.299
21432SOL     OW66128  13.572   5.325   4.928
21432SOL    HW166129  13.628   5.248   4.925
21432SOL    HW266130  13.585   5.361   5.016
21433SOL     OW66131   0.540   4.957   7.509
21433SOL    HW166132   0.488   5.036   7.524
21433SOL    HW266133   0.492   4.909   7.441
21434SOL     OW66134  11.834  11.795   4.939
21434SOL    HW166135  11.924  11.789   4.907
21434SOL    HW266136  11.842  11.834   5.026
21435SOL     OW66137   9.021   3.128   3.339
21435SOL    HW166138   9.000   3.133   3.246
21435SOL    HW266139   9.113   3.157   3.344
21436SOL     OW66140   4.418   9.302  11.483
21436SOL    HW166141   4.386   9.248  11.411
21436SOL    HW266142   4.367   9.383  11.477
21437SOL     OW66143   2.619  10.044  10.727
21437SOL    HW166144   2.639   9.958  10.689
21437SOL    HW266145   2.524  10.043  10.739
21438SOL     OW66146   7.024  14.690   2.431
21438SOL    HW166147   6.951  14.669   2.489
21438SOL    HW266148   7.023  14.786   2.425
21439SOL     OW66149  10.699   4.794  11.709
21439SOL    HW166150  10.774   4.836  11.751
21439SOL    HW266151  10.622   4.836  11.747
21440SOL     OW66152  11.022   2.290   5.476
21440SOL    HW166153  10.997   2.198   5.475
21440SOL    HW266154  11.067   2.301   5.560
21441SOL     OW66155  10.301   2.340  11.931
21441SOL    HW166156  10.223   2.382  11.897
21441SOL    HW266157  10.339   2.405  11.991
21442SOL     OW66158   1.410   3.658   3.094
21442SOL    HW166159   1.422   3.574   3.049
21442SOL    HW266160   1.463   3.650   3.173
21443SOL     OW66161   7.036   8.747   7.013
21443SOL    HW166162   7.124   8.720   7.036
21443SOL    HW266163   6.983   8.726   7.089
21444SOL     OW66164  12.819  11.402   2.618
21444SOL    HW166165  12.784  11.326   2.665
21444SOL    HW266166  12.746  11.433   2.565
21445SOL     OW66167  13.847   9.341  12.648
21445SOL    HW166168  13.756   9.338  12.675
21445SOL    HW266169  13.877   9.428  12.675
21446SOL     OW66170   0.863   1.018   6.991
21446SOL    HW166171   0.885   1.050   6.904
21446SOL    HW266172   0.781   0.971   6.979
21447SOL     OW66173   9.637  11.335   7.762
21447SOL    HW166174   9.692  11.363   7.688
21447SOL    HW266175   9.684  11.365   7.840
21448SOL     OW66176   1.981   4.355   8.545
21448SOL    HW166177   1.892   4.360   8.579
21448SOL    HW266178   1.975   4.382   8.454
21449SOL     OW66179   1.937   2.411   6.144
21449SOL    HW166180   1.861   2.353   6.136
21449SOL    HW266181   1.928   2.472   6.071
21450SOL     OW66182   5.938   5.164  13.567
21450SOL    HW166183   5.962   5.115  13.489
21450SOL    HW266184   5.847   5.192  13.551
21451SOL     OW66185  14.258  10.509   2.339
21451SOL    HW166186  14.279  10.419   2.312
21451SOL    HW266187  14.167  10.504   2.369
21452SOL     OW66188   3.439  13.409   5.074
21452SOL    HW166189   3.370  13.474   5.059
21452SOL    HW266190   3.486  13.441   5.151
21453SOL     OW66191  14.371  12.214  10.875
21453SOL    HW166192  14.361  12.294  10.823
21453SOL    HW266193  14.379  12.245  10.965
21454SOL     OW66194   4.342   3.126  13.110
21454SOL    HW166195   4.252   3.151  13.089
21454SOL    HW266196   4.334   3.069  13.187
21455SOL     OW66197   2.383  14.846  12.831
21455SOL    HW166198   2.462  14.850  12.885
21455SOL    HW266199   2.410  14.796  12.754
21456SOL     OW66200  12.467   3.094   7.492
21456SOL    HW166201  12.500   3.160   7.431
21456SOL    HW266202  12.445   3.143   7.571
21457SOL     OW66203  13.778   8.174   7.861
21457SOL    HW166204  13.865   8.176   7.899
21457SOL    HW266205  13.731   8.245   7.904
21458SOL     OW66206   0.541   8.179  14.144
21458SOL    HW166207   0.535   8.176  14.048
21458SOL    HW266208   0.455   8.151  14.174
21459SOL     OW66209   4.025   0.600   3.465
21459SOL    HW166210   4.119   0.586   3.477
21459SOL    HW266211   3.983   0.543   3.530
21460SOL     OW66212   6.451   2.648  14.400
21460SOL    HW166213   6.430   2.728  14.447
21460SOL    HW266214   6.506   2.676  14.328
21461SOL     OW66215   6.297   6.114   8.737
21461SOL    HW166216   6.353   6.065   8.677
21461SOL    HW266217   6.341   6.198   8.748
21462SOL     OW66218  10.407   9.061   7.435
21462SOL    HW166219  10.434   9.125   7.501
21462SOL    HW266220  10.314   9.078   7.422
21463SOL     OW66221  11.404   4.809   7.250
21463SOL    HW166222  11.450   4.726   7.239
21463SOL    HW266223  11.433   4.863   7.176
21464SOL     OW66224   0.069   3.367   9.482
21464SOL    HW166225   0.103   3.303   9.544
21464SOL    HW266226  14.855   3.346   9.475
21465SOL     OW66227   0.612  10.662   7.190
21465SOL    HW166228   0.570  10.590   7.237
21465SOL    HW266229   0.560  10.739   7.214
21466SOL     OW66230  14.175   9.425   8.619
21466SOL    HW166231  14.258   9.382   8.639
21466SOL    HW266232  14.154   9.477   8.696
21467SOL     OW66233   4.174   6.151   1.142
21467SOL    HW166234   4.163   6.228   1.086
21467SOL    HW266235   4.151   6.181   1.230
21468SOL     OW66236  14.244   6.849  14.336
21468SOL    HW166237  14.187   6.908  14.288
21468SOL    HW266238  14.215   6.761  14.311
21469SOL     OW66239   6.797   0.203  13.528
21469SOL    HW166240   6.750   0.170  13.451
21469SOL    HW266241   6.755   0.158  13.602
21470SOL     OW66242   3.908  14.171   5.756
21470SOL    HW166243   3.842  14.148   5.691
21470SOL    HW266244   3.861  14.177   5.839
21471SOL     OW66245   5.877   8.006   1.384
21471SOL    HW166246   5.919   7.928   1.420
21471SOL    HW266247   5.792   8.011   1.429
21472SOL     OW66248   3.800   0.345   5.823
21472SOL    HW166249   3.754   0.354   5.740
21472SOL    HW266250   3.754   0.403   5.883
21473SOL     OW66251  14.482   9.715   0.452
21473SOL    HW166252  14.478   9.657   0.528
21473SOL    HW266253  14.541   9.670   0.392
21474SOL     OW66254   2.033   8.817  12.651
21474SOL    HW166255   2.082   8.833  12.570
21474SOL    HW266256   2.099   8.826  12.720
21475SOL     OW66257   7.909   3.053  13.413
21475SOL    HW166258   7.817   3.045  13.437
21475SOL    HW266259   7.943   3.122  13.471
21476SOL     OW66260  12.859   3.925   4.566
21476SOL    HW166261  12.915   3.877   4.505
21476SOL    HW266262  12.800   3.975   4.510
21477SOL     OW66263   4.949  12.366  13.340
21477SOL    HW166264   4.912  12.330  13.259
21477SOL    HW266265   5.036  12.326  13.347
21478SOL     OW66266  12.871  11.676  13.271
21478SOL    HW166267  12.779  11.649  13.278
21478SOL    HW266268  12.888  11.721  13.355
21479SOL     OW66269   8.558   2.322  13.829
21479SOL    HW166270   8.523   2.239  13.860
21479SOL    HW266271   8.488   2.359  13.774
21480SOL     OW66272   2.647  12.122   8.831
21480SOL    HW166273   2.567  12.096   8.786
21480SOL    HW266274   2.619  12.142   8.920
21481SOL     OW66275   4.211   4.328   4.732
21481SOL    HW166276   4.203   4.233   4.743
21481SOL    HW266277   4.289   4.351   4.783
21482SOL     OW66278   4.462   4.143  12.569
21482SOL    HW166279   4.515   4.063  12.576
21482SOL    HW266280   4.513   4.200  12.511
21483SOL     OW66281   8.641  11.205  12.446
21483SOL    HW166282   8.596  11.135  12.492
21483SOL    HW266283   8.578  11.277  12.443
21484SOL     OW66284  14.232  13.049   3.005
21484SOL    HW166285  14.165  13.022   3.068
21484SOL    HW266286  14.306  12.991   3.022
21485SOL     OW66287  10.765  10.598  13.112
21485SOL    HW166288  10.802  10.616  13.026
21485SOL    HW266289  10.816  10.523  13.145
21486SOL     OW66290   6.922   4.726   9.291
21486SOL    HW166291   6.882   4.646   9.325
21486SOL    HW266292   6.851   4.791   9.294
21487SOL     OW66293   8.017  10.143   8.120
21487SOL    HW166294   7.981  10.218   8.074
21487SOL    HW266295   8.100  10.174   8.157
21488SOL     OW66296  11.486   0.657   7.534
21488SOL    HW166297  11.558   0.618   7.484
21488SOL    HW266298  11.502   0.629   7.624
21489SOL     OW66299   1.201   1.806   2.936
21489SOL    HW166300   1.208   1.848   3.021
21489SOL    HW266301   1.273   1.744   2.933
21490SOL     OW66302   2.523   8.521   7.513
21490SOL    HW166303   2.452   8.581   7.537
21490SOL    HW266304   2.594   8.578   7.485
21491SOL     OW66305  13.212  11.838   3.548
21491SOL    HW166306  13.123  11.871   3.557
21491SOL    HW266307  13.228  11.838   3.453
21492SOL     OW66308  11.050   5.852   0.511
21492SOL    HW166309  11.037   5.782   0.575
21492SOL    HW266310  11.093   5.922   0.562
21493SOL     OW66311   3.417   9.523  13.194
21493SOL    HW166312   3.419   9.572  13.276
21493SOL    HW266313   3.431   9.432  13.220
21494SOL     OW66314   9.430   1.871   4.642
21494SOL    HW166315   9.425   1.933   4.569
21494SOL    HW266316   9.341   1.872   4.679
21495SOL     OW66317   0.299   6.531  13.993
21495SOL    HW166318   0.383   6.496  14.025
21495SOL    HW266319   0.280   6.604  14.052
21496SOL     OW66320  10.379   3.397   4.905
21496SOL    HW166321  10.347   3.455   4.974
21496SOL    HW266322  10.331   3.315   4.919
21497SOL     OW66323  14.775   7.738   3.992
21497SOL    HW166324  14.764   7.759   3.900
21497SOL    HW266325  14.705   7.676   4.012
21498SOL     OW66326   0.033   5.241   4.461
21498SOL    HW166327   0.015   5.175   4.394
21498SOL    HW266328   0.086   5.307   4.415
21499SOL     OW66329   4.744   0.433   9.572
21499SOL    HW166330   4.808   0.471   9.633
21499SOL    HW266331   4.733   0.343   9.602
21500SOL     OW66332   4.921   9.987   6.057
21500SOL    HW166333   4.974  10.004   5.979
21500SOL    HW266334   4.946  10.056   6.118
21501SOL     OW66335   7.269   4.308   9.513
21501SOL    HW166336   7.253   4.368   9.440
21501SOL    HW266337   7.347   4.259   9.485
21502SOL     OW66338   7.408   2.781   7.778
21502SOL    HW166339   7.346   2.710   7.797
21502SOL    HW266340   7.364   2.860   7.810
21503SOL     OW66341  10.989  10.327  13.379
21503SOL    HW166342  11.037  10.397  13.336
21503SOL    HW266343  11.044  10.250  13.369
21504SOL     OW66344   0.023   3.409   5.290
21504SOL    HW166345   0.048   3.328   5.245
21504SOL    HW266346   0.023   3.475   5.221
21505SOL     OW66347   9.422   2.244   6.920
21505SOL    HW166348   9.353   2.291   6.967
21505SOL    HW266349   9.401   2.152   6.932
21506SOL     OW66350   4.445   1.677  13.384
21506SOL    HW166351   4.464   1.585  13.402
21506SOL    HW266352   4.359   1.693  13.423
21507SOL     OW66353   1.571  10.531   6.278
21507SOL    HW166354   1.578  10.443   6.241
21507SOL    HW266355   1.636  10.533   6.349
21508SOL     OW66356  11.954   5.243   9.274
21508SOL    HW166357  12.042   5.264   9.305
21508SOL    HW266358  11.917   5.188   9.343
21509SOL     OW66359   1.686   5.584  14.004
21509SOL    HW166360   1.594   5.598  13.983
21509SOL    HW266361   1.692   5.595  14.099
21510SOL     OW66362   3.096   3.202   6.527
21510SOL    HW166363   3.185   3.187   6.557
21510SOL    HW266364   3.059   3.263   6.591
21511SOL     OW66365   4.495   7.866   2.505
21511SOL    HW166366   4.486   7.821   2.421
21511SOL    HW266367   4.558   7.936   2.488
21512SOL     OW66368   5.496   7.539   7.029
21512SOL    HW166369   5.419   7.595   7.030
21512SOL    HW266370   5.570   7.599   7.035
21513SOL     OW66371  14.289  13.263  14.490
21513SOL    HW166372  14.296  13.195  14.557
21513SOL    HW266373  14.202  13.301  14.503
21514SOL     OW66374   1.319  13.309   5.644
21514SOL    HW166375   1.321  13.383   5.584
21514SOL    HW266376   1.384  13.248   5.610
21515SOL     OW66377   1.961   3.142   3.603
21515SOL    HW166378   1.881   3.195   3.607
21515SOL    HW266379   1.996   3.158   3.516
21516SOL     OW66380   7.561  13.243   2.444
21516SOL    HW166381   7.517  13.272   2.364
21516SOL    HW266382   7.564  13.148   2.436
21517SOL     OW66383  13.059   7.084   6.033
21517SOL    HW166384  13.094   7.142   6.100
21517SOL    HW266385  12.994   7.030   6.078
21518SOL     OW66386   0.657  12.122   2.877
21518SOL    HW166387   0.662  12.105   2.783
21518SOL    HW266388   0.669  12.217   2.886
21519SOL     OW66389   7.309  12.145   1.609
21519SOL    HW166390   7.219  12.141   1.577
21519SOL    HW266391   7.301  12.155   1.704
21520SOL     OW66392  10.609   6.985   3.703
21520SOL    HW166393  10.680   6.923   3.723
21520SOL    HW266394  10.530   6.932   3.709
21521SOL     OW66395  14.053  10.797   6.467
21521SOL    HW166396  14.107  10.827   6.540
21521SOL    HW266397  14.114  10.790   6.394
21522SOL     OW66398  11.320   7.349   0.945
21522SOL    HW166399  11.272   7.269   0.967
21522SOL    HW266400  11.279   7.417   0.999
21523SOL     OW66401  13.162  14.136   7.153
21523SOL    HW166402  13.095  14.162   7.216
21523SOL    HW266403  13.134  14.175   7.070
21524SOL     OW66404   8.073   9.346   7.100
21524SOL    HW166405   8.003   9.281   7.096
21524SOL    HW266406   8.097   9.350   7.193
21525SOL     OW66407   3.554  13.941   7.436
21525SOL    HW166408   3.607  14.009   7.477
21525SOL    HW266409   3.575  13.861   7.484
21526SOL     OW66410   2.933  13.663   2.447
21526SOL    HW166411   2.988  13.586   2.466
21526SOL    HW266412   2.975  13.704   2.372
21527SOL     OW66413   0.656  14.149   2.415
21527SOL    HW166414   0.661  14.152   2.511
21527SOL    HW266415   0.651  14.241   2.389
21528SOL     OW66416  12.663   6.412  14.302
21528SOL    HW166417  12.643   6.493  14.255
21528SOL    HW266418  12.641   6.342  14.240
21529SOL     OW66419   3.094  11.350   9.149
21529SOL    HW166420   3.080  11.258   9.173
21529SOL    HW266421   3.185  11.354   9.121
21530SOL     OW66422  13.584   2.099   7.363
21530SOL    HW166423  13.651   2.050   7.316
21530SOL    HW266424  13.581   2.058   7.450
21531SOL     OW66425   7.372   9.606   4.330
21531SOL    HW166426   7.300   9.667   4.314
21531SOL    HW266427   7.446   9.643   4.282
21532SOL     OW66428  11.267   9.044   2.110
21532SOL    HW166429  11.246   9.061   2.018
21532SOL    HW266430  11.255   8.950   2.120
21533SOL     OW66431   2.318   0.384  12.692
21533SOL    HW166432   2.291   0.445  12.760
21533SOL    HW266433   2.262   0.307  12.705
21534SOL     OW66434  10.778   3.832   7.641
21534SOL    HW166435  10.740   3.897   7.700
21534SOL    HW266436  10.820   3.768   7.699
21535SOL     OW66437  14.686   5.531   6.135
21535SOL    HW166438  14.634   5.589   6.191
21535SOL    HW266439  14.769   5.578   6.123
21536SOL     OW66440  10.443   3.119   2.744
21536SOL    HW166441  10.360   3.165   2.750
21536SOL    HW266442  10.490   3.143   2.824
21537SOL     OW66443   5.908  12.967   3.251
21537SOL    HW166444   5.837  12.923   3.298
21537SOL    HW266445   5.975  12.981   3.317
21538SOL     OW66446  12.180   4.741  13.191
21538SOL    HW166447  12.203   4.650  13.173
21538SOL    HW266448  12.135   4.770  13.112
21539SOL     OW66449   3.187   3.443   7.503
21539SOL    HW166450   3.189   3.507   7.575
21539SOL    HW266451   3.278   3.439   7.473
21540SOL     OW66452   7.007   3.717   9.229
21540SOL    HW166453   6.989   3.631   9.267
21540SOL    HW266454   7.037   3.699   9.140
21541SOL     OW66455   3.173   3.964  14.339
21541SOL    HW166456   3.141   3.896  14.398
21541SOL    HW266457   3.111   3.963  14.265
21542SOL     OW66458   6.263   1.241  12.187
21542SOL    HW166459   6.256   1.151  12.154
21542SOL    HW266460   6.335   1.238  12.251
21543SOL     OW66461  13.456  10.340   5.185
21543SOL    HW166462  13.403  10.398   5.131
21543SOL    HW266463  13.490  10.396   5.255
21544SOL     OW66464   5.459   7.291   5.073
21544SOL    HW166465   5.461   7.219   5.009
21544SOL    HW266466   5.405   7.358   5.032
21545SOL     OW66467   2.414   8.068   2.302
21545SOL    HW166468   2.440   8.131   2.370
21545SOL    HW266469   2.319   8.064   2.309
21546SOL     OW66470  11.029  13.500   3.642
21546SOL    HW166471  11.019  13.497   3.547
21546SOL    HW266472  10.953  13.453   3.676
21547SOL     OW66473   6.333   3.813  13.517
21547SOL    HW166474   6.346   3.729  13.561
21547SOL    HW266475   6.360   3.879  13.581
21548SOL     OW66476   8.585   4.660  10.087
21548SOL    HW166477   8.565   4.660   9.993
21548SOL    HW266478   8.561   4.748  10.116
21549SOL     OW66479   7.945   6.467   1.413
21549SOL    HW166480   8.024   6.443   1.461
21549SOL    HW266481   7.955   6.561   1.395
21550SOL     OW66482   6.262  10.292   4.542
21550SOL    HW166483   6.219  10.211   4.514
21550SOL    HW266484   6.297  10.330   4.461
21551SOL     OW66485   0.513   7.804   3.309
21551SOL    HW166486   0.579   7.848   3.255
21551SOL    HW266487   0.507   7.716   3.272
21552SOL     OW66488   6.628   0.953  11.217
21552SOL    HW166489   6.678   0.982  11.293
21552SOL    HW266490   6.683   0.977  11.142
21553SOL     OW66491  10.075   3.967  12.275
21553SOL    HW166492  10.026   3.970  12.357
21553SOL    HW266493  10.158   4.010  12.296
21554SOL     OW66494   4.820   6.929   7.430
21554SOL    HW166495   4.877   6.957   7.358
21554SOL    HW266496   4.753   6.876   7.387
21555SOL     OW66497   0.798   1.580  11.071
21555SOL    HW166498   0.720   1.592  11.125
21555SOL    HW266499   0.779   1.629  10.991
21556SOL     OW66500  14.273   9.472   8.216
21556SOL    HW166501  14.208   9.540   8.203
21556SOL    HW266502  14.349   9.502   8.165
21557SOL     OW66503   7.930   6.396   8.465
21557SOL    HW166504   7.982   6.451   8.406
21557SOL    HW266505   7.908   6.318   8.413
21558SOL     OW66506  12.350   2.730  11.906
21558SOL    HW166507  12.402   2.805  11.934
21558SOL    HW266508  12.364   2.725  11.811
21559SOL     OW66509  11.326  10.327  11.139
21559SOL    HW166510  11.278  10.258  11.185
21559SOL    HW266511  11.398  10.349  11.198
21560SOL     OW66512   8.948   6.543   5.726
21560SOL    HW166513   8.931   6.485   5.800
21560SOL    HW266514   9.002   6.491   5.666
21561SOL     OW66515   8.373   5.163   9.633
21561SOL    HW166516   8.437   5.221   9.592
21561SOL    HW266517   8.312   5.141   9.563
21562SOL     OW66518  11.213   9.144   1.010
21562SOL    HW166519  11.204   9.219   0.953
21562SOL    HW266520  11.123   9.122   1.034
21563SOL     OW66521   5.309  14.565  12.285
21563SOL    HW166522   5.341  14.479  12.257
21563SOL    HW266523   5.215  14.552  12.301
21564SOL     OW66524  13.351   7.488  10.389
21564SOL    HW166525  13.305   7.531  10.461
21564SOL    HW266526  13.328   7.395  10.397
21565SOL     OW66527   0.403  13.231   1.795
21565SOL    HW166528   0.473  13.209   1.734
21565SOL    HW266529   0.435  13.307   1.843
21566SOL     OW66530   0.003   9.386  10.433
21566SOL    HW166531   0.089   9.358  10.465
21566SOL    HW266532   0.019   9.469  10.390
21567SOL     OW66533   4.433   5.043  12.812
21567SOL    HW166534   4.466   5.107  12.749
21567SOL    HW266535   4.351   5.012  12.775
21568SOL     OW66536  10.070   6.531  13.963
21568SOL    HW166537   9.999   6.521  13.900
21568SOL    HW266538  10.063   6.622  13.993
21569SOL     OW66539   6.955   8.934  10.848
21569SOL    HW166540   6.866   8.906  10.832
21569SOL    HW266541   7.008   8.855  10.839
21570SOL     OW66542   1.621   9.242   1.868
21570SOL    HW166543   1.697   9.295   1.889
21570SOL    HW266544   1.550   9.279   1.920
21571SOL     OW66545  11.944   4.246  12.344
21571SOL    HW166546  11.963   4.165  12.391
21571SOL    HW266547  11.912   4.219  12.259
21572SOL     OW66548   1.334  13.993  14.550
21572SOL    HW166549   1.291  14.043  14.619
21572SOL    HW266550   1.360  13.911  14.592
21573SOL     OW66551   9.178  11.743  14.449
21573SOL    HW166552   9.258  11.766  14.402
21573SOL    HW266553   9.209  11.707  14.532
21574SOL     OW66554   1.088  10.550   9.515
21574SOL    HW166555   1.179  10.556   9.543
21574SOL    HW266556   1.087  10.478   9.451
21575SOL     OW66557  10.967   6.620   6.305
21575SOL    HW166558  10.994   6.710   6.287
21575SOL    HW266559  10.871   6.625   6.313
21576SOL     OW66560  14.261   6.778  12.597
21576SOL    HW166561  14.241   6.761  12.690
21576SOL    HW266562  14.305   6.864  12.597
21577SOL     OW66563  11.844   8.770   2.868
21577SOL    HW166564  11.852   8.865   2.873
21577SOL    HW266565  11.798   8.754   2.786
21578SOL     OW66566   0.205   8.486  10.241
21578SOL    HW166567   0.151   8.499  10.320
21578SOL    HW266568   0.266   8.559  10.242
21579SOL     OW66569   4.368   8.486  11.270
21579SOL    HW166570   4.432   8.456  11.336
21579SOL    HW266571   4.421   8.506  11.193
21580SOL     OW66572  11.521   7.864   4.871
21580SOL    HW166573  11.604   7.840   4.829
21580SOL    HW266574  11.525   7.823   4.957
21581SOL     OW66575  14.362  10.974   9.611
21581SOL    HW166576  14.452  11.008   9.608
21581SOL    HW266577  14.310  11.040   9.567
21582SOL     OW66578  14.383   4.947   6.038
21582SOL    HW166579  14.453   4.882   6.046
21582SOL    HW266580  14.333   4.938   6.119
21583SOL     OW66581  12.924  13.961   7.914
21583SOL    HW166582  12.914  13.870   7.940
21583SOL    HW266583  12.839  14.001   7.930
21584SOL     OW66584  14.278   7.191   1.830
21584SOL    HW166585  14.332   7.112   1.841
21584SOL    HW266586  14.193   7.158   1.801
21585SOL     OW66587  10.277   4.842   4.785
21585SOL    HW166588  10.295   4.756   4.749
21585SOL    HW266589  10.355   4.894   4.764
21586SOL     OW66590   8.670   7.488  13.929
21586SOL    HW166591   8.661   7.397  13.900
21586SOL    HW266592   8.764   7.503  13.935
21587SOL     OW66593   3.183   2.668  13.345
21587SOL    HW166594   3.183   2.593  13.405
21587SOL    HW266595   3.119   2.645  13.278
21588SOL     OW66596   5.778   4.498  11.349
21588SOL    HW166597   5.827   4.510  11.430
21588SOL    HW266598   5.720   4.424  11.366
21589SOL     OW66599   5.571  13.742  10.962
21589SOL    HW166600   5.495  13.799  10.978
21589SOL    HW266601   5.625  13.791  10.900
21590SOL     OW66602  11.048   8.289   3.585
21590SOL    HW166603  10.982   8.306   3.517
21590SOL    HW266604  11.002   8.306   3.668
21591SOL     OW66605   3.369  10.220   8.386
21591SOL    HW166606   3.367  10.188   8.295
21591SOL    HW266607   3.350  10.143   8.439
21592SOL     OW66608   6.445   1.102   2.387
21592SOL    HW166609   6.532   1.136   2.406
21592SOL    HW266610   6.431   1.122   2.295
21593SOL     OW66611  12.168   7.193  11.894
21593SOL    HW166612  12.145   7.158  11.808
21593SOL    HW266613  12.133   7.283  11.894
21594SOL     OW66614   7.954   5.587   6.823
21594SOL    HW166615   7.895   5.655   6.790
21594SOL    HW266616   8.033   5.633   6.848
21595SOL     OW66617   9.853   7.611  13.565
21595SOL    HW166618   9.921   7.583  13.626
21595SOL    HW266619   9.798   7.534  13.553
21596SOL     OW66620   1.588   9.264   9.221
21596SOL    HW166621   1.547   9.346   9.248
21596SOL    HW266622   1.642   9.288   9.145
21597SOL     OW66623   2.246  14.168  14.782
21597SOL    HW166624   2.217  14.253  14.746
21597SOL    HW266625   2.300  14.191  14.858
21598SOL     OW66626   6.913   4.834   0.408
21598SOL    HW166627   6.860   4.886   0.347
21598SOL    HW266628   7.001   4.836   0.370
21599SOL     OW66629   0.733   4.549  12.127
21599SOL    HW166630   0.746   4.497  12.048
21599SOL    HW266631   0.820   4.553  12.168
21600SOL     OW66632  14.729   3.581   7.596
21600SOL    HW166633  14.807   3.583   7.651
21600SOL    HW266634  14.693   3.493   7.610
21601SOL     OW66635   4.163   9.775   1.588
21601SOL    HW166636   4.163   9.871   1.595
21601SOL    HW266637   4.237   9.747   1.641
21602SOL     OW66638   3.319  10.544   5.202
21602SOL    HW166639   3.390  10.607   5.216
21602SOL    HW266640   3.279  10.572   5.119
21603SOL     OW66641   3.410   0.340  12.654
21603SOL    HW166642   3.360   0.306  12.581
21603SOL    HW266643   3.349   0.341  12.728
21604SOL     OW66644   9.678   9.342   3.706
21604SOL    HW166645   9.765   9.302   3.703
21604SOL    HW266646   9.652   9.336   3.798
21605SOL     OW66647   6.795   4.189   9.146
21605SOL    HW166648   6.880   4.186   9.190
21605SOL    HW266649   6.736   4.227   9.210
21606SOL     OW66650  12.590   9.735   2.232
21606SOL    HW166651  12.636   9.654   2.210
21606SOL    HW266652  12.586   9.734   2.328
21607SOL     OW66653   2.651   9.515  11.851
21607SOL    HW166654   2.696   9.553  11.775
21607SOL    HW266655   2.716   9.458  11.891
21608SOL     OW66656   0.465   7.471   2.707
21608SOL    HW166657   0.486   7.377   2.705
21608SOL    HW266658   0.420   7.483   2.791
21609SOL     OW66659  12.128   6.666   5.142
21609SOL    HW166660  12.162   6.580   5.164
21609SOL    HW266661  12.081   6.694   5.221
21610SOL     OW66662  12.412   0.117   0.148
21610SOL    HW166663  12.363   0.056   0.203
21610SOL    HW266664  12.489   0.068   0.120
21611SOL     OW66665   8.447   8.433   4.069
21611SOL    HW166666   8.361   8.462   4.101
21611SOL    HW266667   8.444   8.338   4.077
21612SOL     OW66668  11.199   6.434  14.434
21612SOL    HW166669  11.270   6.376  14.462
21612SOL    HW266670  11.142   6.441  14.511
21613SOL     OW66671   5.361   2.960   7.481
21613SOL    HW166672   5.432   2.952   7.544
21613SOL    HW266673   5.403   2.946   7.396
21614SOL     OW66674   8.706   0.030   9.652
21614SOL    HW166675   8.640   0.078   9.602
21614SOL    HW266676   8.658  14.835   9.689
21615SOL     OW66677   6.381   6.095   5.523
21615SOL    HW166678   6.388   6.030   5.453
21615SOL    HW266679   6.472   6.114   5.546
21616SOL     OW66680   8.749   7.447   8.844
21616SOL    HW166681   8.755   7.444   8.940
21616SOL    HW266682   8.667   7.401   8.824
21617SOL     OW66683   0.699  13.115   8.190
21617SOL    HW166684   0.625  13.055   8.203
21617SOL    HW266685   0.775  13.066   8.223
21618SOL     OW66686  11.333   3.598  10.131
21618SOL    HW166687  11.389   3.676  10.136
21618SOL    HW266688  11.309   3.593  10.038
21619SOL     OW66689   2.274  12.092  13.531
21619SOL    HW166690   2.278  12.063  13.440
21619SOL    HW266691   2.325  12.027  13.579
21620SOL     OW66692  12.438   8.591   4.004
21620SOL    HW166693  12.448   8.656   4.073
21620SOL    HW266694  12.485   8.514   4.037
21621SOL     OW66695  10.544  12.620   3.444
21621SOL    HW166696  10.607  12.609   3.373
21621SOL    HW266697  10.595  12.608   3.524
21622SOL     OW66698   2.793   2.245   9.192
21622SOL    HW166699   2.812   2.212   9.104
21622SOL    HW266700   2.721   2.190   9.223
21623SOL     OW66701   9.855   5.649   4.370
21623SOL    HW166702   9.941   5.612   4.349
21623SOL    HW266703   9.793   5.581   4.344
21624SOL     OW66704   6.842  10.343   3.687
21624SOL    HW166705   6.837  10.329   3.781
21624SOL    HW266706   6.900  10.419   3.676
21625SOL     OW66707  13.893   8.849   1.193
21625SOL    HW166708  13.879   8.818   1.104
21625SOL    HW266709  13.961   8.790   1.228
21626SOL     OW66710   5.003   5.027  11.063
21626SOL    HW166711   4.956   5.075  11.131
21626SOL    HW266712   5.049   5.095  11.014
21627SOL     OW66713  11.267  10.968  12.497
21627SOL    HW166714  11.301  10.957  12.408
21627SOL    HW266715  11.245  10.880  12.525
21628SOL     OW66716   0.905   7.833   7.046
21628SOL    HW166717   0.863   7.869   7.125
21628SOL    HW266718   0.979   7.890   7.030
21629SOL     OW66719  11.198   2.403  11.629
21629SOL    HW166720  11.232   2.399  11.539
21629SOL    HW266721  11.271   2.374  11.683
21630SOL     OW66722   9.425   6.278  12.034
21630SOL    HW166723   9.487   6.207  12.017
21630SOL    HW266724   9.356   6.266  11.969
21631SOL     OW66725   7.058   6.112   9.025
21631SOL    HW166726   7.067   6.136   9.117
21631SOL    HW266727   7.141   6.139   8.985
21632SOL     OW66728   0.193   5.526   2.864
21632SOL    HW166729   0.233   5.535   2.778
21632SOL    HW266730   0.218   5.438   2.893
21633SOL     OW66731   4.149  11.103   3.505
21633SOL    HW166732   4.240  11.074   3.506
21633SOL    HW266733   4.099  11.028   3.534
21634SOL     OW66734   9.738  12.915   0.270
21634SOL    HW166735   9.667  12.866   0.228
21634SOL    HW266736   9.809  12.914   0.206
21635SOL     OW66737  11.136  13.747   3.543
21635SOL    HW166738  11.109  13.827   3.588
21635SOL    HW266739  11.082  13.678   3.581
21636SOL     OW66740  11.774   4.575   1.177
21636SOL    HW166741  11.778   4.670   1.170
21636SOL    HW266742  11.680   4.555   1.178
21637SOL     OW66743   9.718  12.832   0.776
21637SOL    HW166744   9.780  12.813   0.705
21637SOL    HW266745   9.661  12.899   0.740
21638SOL     OW66746   8.667   5.950   9.625
21638SOL    HW166747   8.707   5.927   9.709
21638SOL    HW266748   8.727   5.914   9.559
21639SOL     OW66749   7.829  10.891  12.345
21639SOL    HW166750   7.880  10.856  12.272
21639SOL    HW266751   7.894  10.916  12.410
21640SOL     OW66752  11.724   0.619  10.671
21640SOL    HW166753  11.754   0.553  10.734
21640SOL    HW266754  11.780   0.695  10.688
21641SOL     OW66755   5.998  13.874   9.901
21641SOL    HW166756   6.053  13.802   9.930
21641SOL    HW266757   6.051  13.921   9.836
21642SOL     OW66758   7.102  12.439   6.309
21642SOL    HW166759   7.147  12.358   6.287
21642SOL    HW266760   7.057  12.419   6.391
21643SOL     OW66761   2.893   8.250  14.499
21643SOL    HW166762   2.845   8.303  14.435
21643SOL    HW266763   2.867   8.286  14.584
21644SOL     OW66764   6.183  11.373   2.659
21644SOL    HW166765   6.263  11.416   2.688
21644SOL    HW266766   6.113  11.428   2.692
21645SOL     OW66767  12.845  13.401   3.267
21645SOL    HW166768  12.934  13.368   3.278
21645SOL    HW266769  12.797  13.365   3.342
21646SOL     OW66770  10.102  13.828  10.519
21646SOL    HW166771  10.124  13.758  10.457
21646SOL    HW266772  10.181  13.837  10.573
21647SOL     OW66773   5.130  11.844   5.431
21647SOL    HW166774   5.173  11.864   5.514
21647SOL    HW266775   5.070  11.917   5.417
21648SOL     OW66776  11.909   6.619  11.551
21648SOL    HW166777  11.962   6.615  11.472
21648SOL    HW266778  11.820   6.599  11.521
21649SOL     OW66779  10.010  13.254   5.691
21649SOL    HW166780   9.959  13.174   5.676
21649SOL    HW266781  10.096  13.233   5.656
21650SOL     OW66782  13.489   2.620   9.817
21650SOL    HW166783  13.521   2.690   9.759
21650SOL    HW266784  13.409   2.656   9.855
21651SOL     OW66785   5.644   3.385   1.627
21651SOL    HW166786   5.653   3.297   1.664
21651SOL    HW266787   5.551   3.392   1.604
21652SOL     OW66788   0.843  13.321  10.451
21652SOL    HW166789   0.809  13.283  10.370
21652SOL    HW266790   0.797  13.404  10.459
21653SOL     OW66791   8.205   6.294   4.679
21653SOL    HW166792   8.228   6.238   4.606
21653SOL    HW266793   8.145   6.241   4.733
21654SOL     OW66794  13.317   3.647   8.788
21654SOL    HW166795  13.326   3.601   8.705
21654SOL    HW266796  13.308   3.739   8.763
21655SOL     OW66797   7.916   9.396   8.001
21655SOL    HW166798   7.946   9.322   7.948
21655SOL    HW266799   7.972   9.469   7.975
21656SOL     OW66800   6.115  11.792  13.987
21656SOL    HW166801   6.024  11.765  13.972
21656SOL    HW266802   6.139  11.750  14.070
21657SOL     OW66803   3.998   0.862   8.773
21657SOL    HW166804   3.966   0.937   8.722
21657SOL    HW266805   4.062   0.820   8.716
21658SOL     OW66806   2.405   2.855   8.599
21658SOL    HW166807   2.371   2.902   8.676
21658SOL    HW266808   2.497   2.839   8.620
21659SOL     OW66809   5.631   0.469   9.974
21659SOL    HW166810   5.683   0.537  10.018
21659SOL    HW266811   5.544   0.507   9.966
21660SOL     OW66812   2.336   4.329  10.458
21660SOL    HW166813   2.355   4.271  10.532
21660SOL    HW266814   2.345   4.417  10.494
21661SOL     OW66815  12.470  12.173   2.158
21661SOL    HW166816  12.557  12.138   2.143
21661SOL    HW266817  12.456  12.235   2.087
21662SOL     OW66818  12.134   3.205   7.663
21662SOL    HW166819  12.125   3.301   7.665
21662SOL    HW266820  12.157   3.186   7.572
21663SOL     OW66821  13.508  14.090   4.508
21663SOL    HW166822  13.476  14.168   4.463
21663SOL    HW266823  13.573  14.123   4.570
21664SOL     OW66824   9.232  10.462  10.762
21664SOL    HW166825   9.240  10.486  10.854
21664SOL    HW266826   9.228  10.367  10.761
21665SOL     OW66827   4.613  14.735   7.680
21665SOL    HW166828   4.620  14.830   7.690
21665SOL    HW266829   4.601  14.703   7.769
21666SOL     OW66830   3.086   0.223   8.449
21666SOL    HW166831   3.071   0.132   8.425
21666SOL    HW266832   3.181   0.230   8.460
21667SOL     OW66833   5.294  11.577   9.761
21667SOL    HW166834   5.298  11.547   9.851
21667SOL    HW266835   5.259  11.502   9.712
21668SOL     OW66836   6.344  13.522   7.066
21668SOL    HW166837   6.337  13.443   7.119
21668SOL    HW266838   6.273  13.514   7.002
21669SOL     OW66839   1.874   5.885   7.024
21669SOL    HW166840   1.786   5.864   6.993
21669SOL    HW266841   1.930   5.869   6.948
21670SOL     OW66842  11.567   7.806   4.492
21670SOL    HW166843  11.499   7.862   4.455
21670SOL    HW266844  11.628   7.867   4.534
21671SOL     OW66845   0.897  10.226  10.489
21671SOL    HW166846   0.909  10.189  10.577
21671SOL    HW266847   0.818  10.280  10.496
21672SOL     OW66848   7.891   6.076   7.165
21672SOL    HW166849   7.931   6.138   7.226
21672SOL    HW266850   7.808   6.117   7.140
21673SOL     OW66851   3.180  14.445   8.367
21673SOL    HW166852   3.180  14.496   8.286
21673SOL    HW266853   3.268  14.408   8.372
21674SOL     OW66854   5.663   9.170  11.817
21674SOL    HW166855   5.668   9.095  11.758
21674SOL    HW266856   5.672   9.246  11.759
21675SOL     OW66857  14.728   9.227   6.896
21675SOL    HW166858  14.717   9.275   6.814
21675SOL    HW266859  14.658   9.261   6.952
21676SOL     OW66860   2.677   2.399   0.894
21676SOL    HW166861   2.688   2.440   0.979
21676SOL    HW266862   2.598   2.345   0.903
21677SOL     OW66863   6.493   9.392   3.741
21677SOL    HW166864   6.500   9.487   3.739
21677SOL    HW266865   6.530   9.364   3.657
21678SOL     OW66866  12.604  12.738  10.741
21678SOL    HW166867  12.670  12.705  10.680
21678SOL    HW266868  12.635  12.826  10.765
21679SOL     OW66869   8.118  13.684  14.831
21679SOL    HW166870   8.163  13.600  14.829
21679SOL    HW266871   8.042  13.672  14.773
21680SOL     OW66872   1.438   5.669   1.859
21680SOL    HW166873   1.447   5.578   1.888
21680SOL    HW266874   1.425   5.719   1.940
21681SOL     OW66875   7.620  13.177  13.697
21681SOL    HW166876   7.656  13.106  13.750
21681SOL    HW266877   7.593  13.135  13.615
21682SOL     OW66878   3.742   3.066   6.999
21682SOL    HW166879   3.833   3.055   6.973
21682SOL    HW266880   3.746   3.093   7.090
21683SOL     OW66881   2.322   4.636   1.597
21683SOL    HW166882   2.353   4.672   1.681
21683SOL    HW266883   2.358   4.548   1.593
21684SOL     OW66884   0.231   9.844   3.140
21684SOL    HW166885   0.191   9.764   3.174
21684SOL    HW266886   0.309   9.813   3.093
21685SOL     OW66887   2.434  12.991   9.574
21685SOL    HW166888   2.497  13.052   9.612
21685SOL    HW266889   2.463  12.905   9.604
21686SOL     OW66890  13.875   1.165  12.980
21686SOL    HW166891  13.848   1.078  12.952
21686SOL    HW266892  13.967   1.154  13.008
21687SOL     OW66893   5.495  10.179   1.136
21687SOL    HW166894   5.441  10.118   1.086
21687SOL    HW266895   5.585  10.156   1.113
21688SOL     OW66896   9.245   9.158   6.239
21688SOL    HW166897   9.254   9.150   6.145
21688SOL    HW266898   9.320   9.211   6.266
21689SOL     OW66899   0.339   4.096   3.065
21689SOL    HW166900   0.319   4.189   3.064
21689SOL    HW266901   0.403   4.086   3.136
21690SOL     OW66902   5.384   7.439   0.294
21690SOL    HW166903   5.453   7.500   0.321
21690SOL    HW266904   5.400   7.360   0.347
21691SOL     OW66905   1.740  10.728  14.427
21691SOL    HW166906   1.677  10.675  14.475
21691SOL    HW266907   1.825  10.688  14.446
21692SOL     OW66908  12.496   6.875   6.756
21692SOL    HW166909  12.531   6.908   6.673
21692SOL    HW266910  12.479   6.783   6.740
21693SOL     OW66911   2.431   8.952   8.873
21693SOL    HW166912   2.404   8.860   8.869
21693SOL    HW266913   2.527   8.949   8.876
21694SOL     OW66914   6.736   8.327   1.259
21694SOL    HW166915   6.686   8.397   1.300
21694SOL    HW266916   6.733   8.255   1.323
21695SOL     OW66917   7.171   9.793   4.329
21695SOL    HW166918   7.198   9.865   4.386
21695SOL    HW266919   7.102   9.830   4.274
21696SOL     OW66920  11.067   6.879   7.280
21696SOL    HW166921  11.043   6.917   7.364
21696SOL    HW266922  11.057   6.950   7.217
21697SOL     OW66923   3.567  14.493   0.242
21697SOL    HW166924   3.489  14.437   0.239
21697SOL    HW266925   3.639  14.434   0.220
21698SOL     OW66926   0.711  13.536   1.032
21698SOL    HW166927   0.772  13.510   1.101
21698SOL    HW266928   0.636  13.573   1.080
21699SOL     OW66929   7.623  12.442   4.524
21699SOL    HW166930   7.677  12.429   4.447
21699SOL    HW266931   7.622  12.357   4.568
21700SOL     OW66932   5.982   6.380   6.762
21700SOL    HW166933   5.961   6.365   6.854
21700SOL    HW266934   5.959   6.472   6.748
21701SOL     OW66935   0.218   4.190  13.565
21701SOL    HW166936   0.291   4.198  13.627
21701SOL    HW266937   0.169   4.114  13.596
21702SOL     OW66938   2.700   4.994  12.844
21702SOL    HW166939   2.655   5.050  12.782
21702SOL    HW266940   2.630   4.955  12.897
21703SOL     OW66941  10.205  11.141   0.311
21703SOL    HW166942  10.266  11.086   0.263
21703SOL    HW266943  10.156  11.188   0.244
21704SOL     OW66944   5.524  12.165  10.150
21704SOL    HW166945   5.472  12.085  10.148
21704SOL    HW266946   5.557  12.175  10.061
21705SOL     OW66947   2.486   3.073   0.774
21705SOL    HW166948   2.520   3.109   0.692
21705SOL    HW266949   2.422   3.007   0.746
21706SOL     OW66950  12.316   5.948  12.478
21706SOL    HW166951  12.305   5.854  12.463
21706SOL    HW266952  12.315   5.958  12.573
21707SOL     OW66953  13.963   1.056   3.230
21707SOL    HW166954  14.014   1.107   3.167
21707SOL    HW266955  14.029   1.009   3.280
21708SOL     OW66956  14.633   9.367   5.712
21708SOL    HW166957  14.601   9.451   5.679
21708SOL    HW266958  14.556   9.325   5.751
21709SOL     OW66959  13.212  12.555  11.152
21709SOL    HW166960  13.295  12.531  11.110
21709SOL    HW266961  13.229  12.641  11.189
21710SOL     OW66962   7.731   1.850   5.855
21710SOL    HW166963   7.784   1.875   5.778
21710SOL    HW266964   7.756   1.913   5.922
21711SOL     OW66965   0.326  11.174   0.613
21711SOL    HW166966   0.245  11.136   0.578
21711SOL    HW266967   0.335  11.134   0.700
21712SOL     OW66968  14.377   6.305   7.332
21712SOL    HW166969  14.420   6.224   7.360
21712SOL    HW266970  14.322   6.279   7.258
21713SOL     OW66971  11.692   6.171  12.335
21713SOL    HW166972  11.756   6.120  12.285
21713SOL    HW266973  11.693   6.132  12.423
21714SOL     OW66974  10.712   4.683   0.894
21714SOL    HW166975  10.658   4.615   0.853
21714SOL    HW266976  10.800   4.668   0.859
21715SOL     OW66977   7.056   0.748  10.700
21715SOL    HW166978   6.993   0.679  10.722
21715SOL    HW266979   7.083   0.728  10.610
21716SOL     OW66980   0.523   2.936  12.830
21716SOL    HW166981   0.588   2.938  12.760
21716SOL    HW266982   0.438   2.936  12.784
21717SOL     OW66983   1.724   3.007   3.853
21717SOL    HW166984   1.684   2.920   3.850
21717SOL    HW266985   1.694   3.050   3.773
21718SOL     OW66986   9.611   5.879   1.314
21718SOL    HW166987   9.701   5.872   1.285
21718SOL    HW266988   9.582   5.965   1.285
21719SOL     OW66989   1.989   1.543  12.586
21719SOL    HW166990   2.076   1.528  12.550
21719SOL    HW266991   1.945   1.597  12.519
21720SOL     OW66992   5.323  11.445   3.714
21720SOL    HW166993   5.395  11.480   3.767
21720SOL    HW266994   5.256  11.422   3.778
21721SOL     OW66995   2.841   9.127   3.782
21721SOL    HW166996   2.852   9.038   3.751
21721SOL    HW266997   2.854   9.121   3.877
21722SOL     OW66998   6.770   3.030   7.716
21722SOL    HW166999   6.773   2.941   7.681
21722SOL    HW267000   6.771   3.086   7.638
21723SOL     OW67001   1.293   5.275   0.898
21723SOL    HW167002   1.292   5.337   0.825
21723SOL    HW267003   1.359   5.210   0.874
21724SOL     OW67004   6.258   8.716   9.296
21724SOL    HW167005   6.288   8.625   9.308
21724SOL    HW267006   6.233   8.745   9.383
21725SOL     OW67007   2.232   1.499   1.828
21725SOL    HW167008   2.312   1.552   1.822
21725SOL    HW267009   2.161   1.561   1.811
21726SOL     OW67010   3.594   9.924   3.587
21726SOL    HW167011   3.614   9.989   3.519
21726SOL    HW267012   3.622   9.840   3.548
21727SOL     OW67013   9.545  10.968   2.087
21727SOL    HW167014   9.636  10.995   2.101
21727SOL    HW267015   9.509  11.034   2.028
21728SOL     OW67016   8.118   9.184  10.411
21728SOL    HW167017   8.087   9.268  10.445
21728SOL    HW267018   8.085   9.181  10.321
21729SOL     OW67019   0.161   4.494   7.545
21729SOL    HW167020   0.180   4.574   7.496
21729SOL    HW267021   0.073   4.468   7.515
21730SOL     OW67022  12.281  14.374  13.530
21730SOL    HW167023  12.277  14.439  13.600
21730SOL    HW267024  12.291  14.291  13.575
21731SOL     OW67025   8.097   5.818   7.957
21731SOL    HW167026   8.058   5.731   7.970
21731SOL    HW267027   8.034   5.879   7.995
21732SOL     OW67028   3.364  13.319  11.022
21732SOL    HW167029   3.451  13.356  11.034
21732SOL    HW267030   3.312  13.390  10.985
21733SOL     OW67031   0.244   4.883   0.559
21733SOL    HW167032   0.188   4.806   0.564
21733SOL    HW267033   0.327   4.855   0.599
21734SOL     OW67034   1.850   4.999  11.657
21734SOL    HW167035   1.838   4.990  11.562
21734SOL    HW267036   1.764   4.977  11.693
21735SOL     OW67037  13.755  12.638  10.290
21735SOL    HW167038  13.826  12.680  10.339
21735SOL    HW267039  13.752  12.686  10.207
21736SOL     OW67040  12.125   4.663  11.008
21736SOL    HW167041  12.135   4.587  10.950
21736SOL    HW267042  12.203   4.661  11.063
21737SOL     OW67043   9.572  13.922   8.833
21737SOL    HW167044   9.554  13.828   8.829
21737SOL    HW267045   9.661  13.931   8.801
21738SOL     OW67046   6.596   7.024   7.617
21738SOL    HW167047   6.641   7.063   7.693
21738SOL    HW267048   6.558   6.943   7.650
21739SOL     OW67049   8.906  12.500   6.903
21739SOL    HW167050   8.986  12.466   6.942
21739SOL    HW267051   8.914  12.478   6.810
21740SOL     OW67052  11.566   2.863   9.570
21740SOL    HW167053  11.656   2.844   9.542
21740SOL    HW267054  11.538   2.784   9.616
21741SOL     OW67055   0.419   1.616   5.512
21741SOL    HW167056   0.484   1.659   5.567
21741SOL    HW267057   0.340   1.613   5.566
21742SOL     OW67058  14.004   9.714   5.358
21742SOL    HW167059  13.920   9.715   5.313
21742SOL    HW267060  14.051   9.790   5.325
21743SOL     OW67061  12.440   6.192   4.521
21743SOL    HW167062  12.533   6.189   4.541
21743SOL    HW267063  12.413   6.282   4.541
21744SOL     OW67064  14.720   5.324   6.335
21744SOL    HW167065  14.708   5.393   6.270
21744SOL    HW267066  14.810   5.336   6.366
21745SOL     OW67067   9.775  12.286   1.471
21745SOL    HW167068   9.800  12.368   1.429
21745SOL    HW267069   9.732  12.313   1.552
21746SOL     OW67070   8.198   5.289   1.805
21746SOL    HW167071   8.143   5.286   1.883
21746SOL    HW267072   8.154   5.354   1.748
21747SOL     OW67073   4.691  11.149   6.792
21747SOL    HW167074   4.623  11.085   6.812
21747SOL    HW267075   4.702  11.144   6.697
21748SOL     OW67076   8.726   5.432   1.572
21748SOL    HW167077   8.660   5.384   1.622
21748SOL    HW267078   8.809   5.412   1.616
21749SOL     OW67079   2.348  13.971   6.871
21749SOL    HW167080   2.422  13.931   6.916
21749SOL    HW267081   2.381  14.056   6.842
21750SOL     OW67082   9.184   9.008   4.131
21750SOL    HW167083   9.270   8.970   4.147
21750SOL    HW267084   9.144   8.950   4.066
21751SOL     OW67085  14.627   3.920  10.319
21751SOL    HW167086  14.542   3.946  10.283
21751SOL    HW267087  14.676   4.002  10.325
21752SOL     OW67088   1.280   1.454   6.347
21752SOL    HW167089   1.351   1.442   6.284
21752SOL    HW267090   1.321   1.498   6.421
21753SOL     OW67091  13.462   0.172   9.672
21753SOL    HW167092  13.546   0.201   9.708
21753SOL    HW267093  13.461   0.078   9.687
21754SOL     OW67094  14.617   5.064   9.938
21754SOL    HW167095  14.624   4.974   9.905
21754SOL    HW267096  14.622   5.055  10.033
21755SOL     OW67097   1.080   3.297   0.457
21755SOL    HW167098   1.009   3.362   0.452
21755SOL    HW267099   1.044   3.227   0.513
21756SOL     OW67100   3.042  10.659   7.530
21756SOL    HW167101   3.039  10.678   7.436
21756SOL    HW267102   3.129  10.621   7.544
21757SOL     OW67103   6.621   7.226  10.485
21757SOL    HW167104   6.556   7.268  10.428
21757SOL    HW267105   6.704   7.241  10.440
21758SOL     OW67106   7.346  12.350  11.149
21758SOL    HW167107   7.416  12.324  11.209
21758SOL    HW267108   7.391  12.388  11.075
21759SOL     OW67109   7.145  10.434  11.716
21759SOL    HW167110   7.054  10.433  11.687
21759SOL    HW267111   7.145  10.495  11.790
21760SOL     OW67112   0.803   9.890   0.481
21760SOL    HW167113   0.770   9.903   0.570
21760SOL    HW267114   0.725   9.882   0.427
21761SOL     OW67115  11.061  14.197   6.664
21761SOL    HW167116  10.980  14.207   6.715
21761SOL    HW267117  11.039  14.228   6.577
21762SOL     OW67118   8.549  12.844  12.836
21762SOL    HW167119   8.483  12.785  12.874
21762SOL    HW267120   8.498  12.912  12.792
21763SOL     OW67121   8.559   4.122  14.137
21763SOL    HW167122   8.469   4.140  14.166
21763SOL    HW267123   8.607   4.104  14.218
21764SOL     OW67124  14.270   6.698   5.624
21764SOL    HW167125  14.357   6.660   5.637
21764SOL    HW267126  14.218   6.629   5.584
21765SOL     OW67127   3.467   7.484   7.478
21765SOL    HW167128   3.444   7.437   7.558
21765SOL    HW267129   3.526   7.425   7.431
21766SOL     OW67130   7.614   4.874  14.580
21766SOL    HW167131   7.690   4.821  14.558
21766SOL    HW267132   7.565   4.882  14.498
21767SOL     OW67133  12.607   1.953   6.017
21767SOL    HW167134  12.517   1.965   6.048
21767SOL    HW267135  12.619   2.020   5.951
21768SOL     OW67136   6.568   9.142  10.368
21768SOL    HW167137   6.494   9.131  10.309
21768SOL    HW267138   6.631   9.075  10.341
21769SOL     OW67139   4.342   4.183   4.396
21769SOL    HW167140   4.284   4.259   4.383
21769SOL    HW267141   4.283   4.112   4.420
21770SOL     OW67142   0.502  12.074   4.038
21770SOL    HW167143   0.462  12.074   4.125
21770SOL    HW267144   0.596  12.065   4.056
21771SOL     OW67145   6.559  12.948  10.384
21771SOL    HW167146   6.553  12.882  10.315
21771SOL    HW267147   6.525  12.903  10.462
21772SOL     OW67148   9.523   1.254  13.830
21772SOL    HW167149   9.595   1.224  13.775
21772SOL    HW267150   9.565   1.284  13.911
21773SOL     OW67151   6.007  12.740  11.127
21773SOL    HW167152   6.093  12.737  11.086
21773SOL    HW267153   6.024  12.725  11.220
21774SOL     OW67154   0.080   4.900   1.703
21774SOL    HW167155  14.871   4.895   1.665
21774SOL    HW267156   0.102   4.994   1.700
21775SOL     OW67157   8.002  13.206   6.913
21775SOL    HW167158   8.009  13.283   6.857
21775SOL    HW267159   8.077  13.213   6.973
21776SOL     OW67160  11.154  13.392  14.081
21776SOL    HW167161  11.076  13.416  14.131
21776SOL    HW267162  11.227  13.410  14.141
21777SOL     OW67163  10.910   2.795   5.423
21777SOL    HW167164  10.823   2.761   5.400
21777SOL    HW267165  10.901   2.889   5.414
21778SOL     OW67166  10.758   7.860   8.332
21778SOL    HW167167  10.811   7.820   8.264
21778SOL    HW267168  10.821   7.906   8.388
21779SOL     OW67169   9.959   3.221  11.998
21779SOL    HW167170   9.939   3.304  11.956
21779SOL    HW267171   9.960   3.157  11.927
21780SOL     OW67172  13.529  10.144   4.314
21780SOL    HW167173  13.504  10.056   4.285
21780SOL    HW267174  13.533  10.195   4.234
21781SOL     OW67175  14.716   4.419  11.736
21781SOL    HW167176  14.767   4.338  11.736
21781SOL    HW267177  14.755   4.472  11.805
21782SOL     OW67178  13.708   7.689   0.204
21782SOL    HW167179  13.764   7.629   0.154
21782SOL    HW267180  13.680   7.638   0.280
21783SOL     OW67181   9.915  12.920   0.025
21783SOL    HW167182   9.909  12.834  14.862
21783SOL    HW267183   9.893  12.982  14.834
21784SOL     OW67184   2.019  11.526   5.016
21784SOL    HW167185   1.989  11.612   5.046
21784SOL    HW267186   2.034  11.477   5.096
21785SOL     OW67187  12.245   3.094   8.191
21785SOL    HW167188  12.197   3.136   8.262
21785SOL    HW267189  12.196   3.015   8.171
21786SOL     OW67190   0.833   4.428   3.296
21786SOL    HW167191   0.882   4.455   3.218
21786SOL    HW267192   0.771   4.362   3.263
21787SOL     OW67193   1.011   7.935   2.942
21787SOL    HW167194   1.043   7.847   2.920
21787SOL    HW267195   1.009   7.936   3.038
21788SOL     OW67196   1.498  14.715   0.279
21788SOL    HW167197   1.429  14.650   0.266
21788SOL    HW267198   1.560  14.673   0.338
21789SOL     OW67199  12.916   9.961   2.238
21789SOL    HW167200  12.954  10.014   2.308
21789SOL    HW267201  12.821   9.974   2.246
21790SOL     OW67202  14.861   8.507  11.363
21790SOL    HW167203  14.829   8.497  11.453
21790SOL    HW267204  14.786   8.540  11.314
21791SOL     OW67205  12.267   4.078  10.161
21791SOL    HW167206  12.235   4.168  10.153
21791SOL    HW267207  12.317   4.077  10.242
21792SOL     OW67208  13.209  10.447  14.253
21792SOL    HW167209  13.274  10.403  14.199
21792SOL    HW267210  13.259  10.485  14.325
21793SOL     OW67211  13.858  12.229  14.513
21793SOL    HW167212  13.951  12.210  14.520
21793SOL    HW267213  13.854  12.321  14.489
21794SOL     OW67214  10.351  14.792   1.581
21794SOL    HW167215  10.299  14.813   1.658
21794SOL    HW267216  10.322  14.855   1.515
21795SOL     OW67217   4.369  13.649   5.876
21795SOL    HW167218   4.375  13.736   5.837
21795SOL    HW267219   4.383  13.663   5.970
21796SOL     OW67220  13.205   0.286   3.138
21796SOL    HW167221  13.184   0.281   3.045
21796SOL    HW267222  13.127   0.253   3.182
21797SOL     OW67223  13.163   7.961   4.619
21797SOL    HW167224  13.137   8.028   4.682
21797SOL    HW267225  13.117   7.882   4.648
21798SOL     OW67226  14.067  12.678   1.645
21798SOL    HW167227  14.104  12.656   1.560
21798SOL    HW267228  14.004  12.747   1.627
21799SOL     OW67229  13.832   3.604   0.783
21799SOL    HW167230  13.810   3.527   0.731
21799SOL    HW267231  13.880   3.569   0.858
21800SOL     OW67232  12.323   7.523   0.378
21800SOL    HW167233  12.415   7.549   0.379
21800SOL    HW267234  12.325   7.427   0.375
21801SOL     OW67235   6.673   5.808   3.664
21801SOL    HW167236   6.727   5.869   3.715
21801SOL    HW267237   6.601   5.785   3.722
21802SOL     OW67238  11.201   9.369   0.600
21802SOL    HW167239  11.121   9.375   0.651
21802SOL    HW267240  11.224   9.276   0.602
21803SOL     OW67241   5.620   8.568   8.807
21803SOL    HW167242   5.646   8.646   8.759
21803SOL    HW267243   5.678   8.566   8.884
21804SOL     OW67244   8.666   2.982   5.156
21804SOL    HW167245   8.671   3.059   5.212
21804SOL    HW267246   8.660   2.909   5.217
21805SOL     OW67247   8.377   0.682   6.303
21805SOL    HW167248   8.432   0.630   6.363
21805SOL    HW267249   8.376   0.632   6.222
21806SOL     OW67250   6.854   2.668   7.955
21806SOL    HW167251   6.915   2.598   7.979
21806SOL    HW267252   6.768   2.628   7.962
21807SOL     OW67253   3.281   3.804   5.349
21807SOL    HW167254   3.314   3.738   5.288
21807SOL    HW267255   3.194   3.826   5.317
21808SOL     OW67256   4.669   5.071   0.721
21808SOL    HW167257   4.656   5.084   0.627
21808SOL    HW267258   4.611   4.998   0.743
21809SOL     OW67259   1.647   4.874   2.624
21809SOL    HW167260   1.557   4.882   2.593
21809SOL    HW267261   1.668   4.960   2.659
21810SOL     OW67262   7.092  12.470   0.730
21810SOL    HW167263   7.080  12.470   0.635
21810SOL    HW267264   7.175  12.423   0.744
21811SOL     OW67265  12.335   4.273  11.380
21811SOL    HW167266  12.333   4.332  11.455
21811SOL    HW267267  12.349   4.187  11.418
21812SOL     OW67268  14.436   3.026   2.822
21812SOL    HW167269  14.476   3.091   2.764
21812SOL    HW267270  14.504   2.959   2.833
21813SOL     OW67271  10.447   8.845   2.665
21813SOL    HW167272  10.513   8.909   2.693
21813SOL    HW267273  10.498   8.777   2.619
21814SOL     OW67274   0.723  13.271  14.111
21814SOL    HW167275   0.743  13.192  14.161
21814SOL    HW267276   0.749  13.251  14.021
21815SOL     OW67277   2.249   6.687  13.739
21815SOL    HW167278   2.174   6.632  13.717
21815SOL    HW267279   2.320   6.626  13.757
21816SOL     OW67280  12.593   7.972  12.804
21816SOL    HW167281  12.665   7.981  12.741
21816SOL    HW267282  12.624   7.906  12.866
21817SOL     OW67283   1.061   3.377   7.650
21817SOL    HW167284   1.082   3.285   7.634
21817SOL    HW267285   1.025   3.378   7.739
21818SOL     OW67286   5.174   6.711   2.922
21818SOL    HW167287   5.101   6.694   2.982
21818SOL    HW267288   5.222   6.629   2.919
21819SOL     OW67289  11.511   9.382  11.944
21819SOL    HW167290  11.574   9.323  11.904
21819SOL    HW267291  11.449   9.402  11.873
21820SOL     OW67292   6.448  12.920   3.199
21820SOL    HW167293   6.493  12.985   3.253
21820SOL    HW267294   6.436  12.845   3.257
21821SOL     OW67295  13.926   7.348  14.041
21821SOL    HW167296  13.971   7.415  13.989
21821SOL    HW267297  13.989   7.325  14.111
21822SOL     OW67298   1.317   2.205   8.389
21822SOL    HW167299   1.280   2.292   8.400
21822SOL    HW267300   1.389   2.218   8.326
21823SOL     OW67301   0.699   7.877   2.479
21823SOL    HW167302   0.751   7.916   2.550
21823SOL    HW267303   0.756   7.809   2.442
21824SOL     OW67304  10.043  12.606  13.013
21824SOL    HW167305  10.095  12.600  12.933
21824SOL    HW267306   9.952  12.603  12.982
21825SOL     OW67307   5.574  12.247   8.933
21825SOL    HW167308   5.549  12.156   8.915
21825SOL    HW267309   5.648  12.240   8.993
21826SOL     OW67310  11.840  11.949   0.264
21826SOL    HW167311  11.875  11.951   0.354
21826SOL    HW267312  11.780  12.024   0.260
21827SOL     OW67313  11.337   8.714   7.323
21827SOL    HW167314  11.409   8.651   7.328
21827SOL    HW267315  11.269   8.677   7.379
21828SOL     OW67316   4.293   1.017  13.110
21828SOL    HW167317   4.270   1.089  13.052
21828SOL    HW267318   4.341   0.955  13.054
21829SOL     OW67319   5.809   6.993   6.380
21829SOL    HW167320   5.829   7.073   6.331
21829SOL    HW267321   5.889   6.941   6.374
21830SOL     OW67322   9.393   9.448   5.371
21830SOL    HW167323   9.437   9.533   5.373
21830SOL    HW267324   9.463   9.384   5.387
21831SOL     OW67325  11.731   0.834   3.981
21831SOL    HW167326  11.747   0.747   3.943
21831SOL    HW267327  11.800   0.844   4.047
21832SOL     OW67328  12.138   6.809   3.702
21832SOL    HW167329  12.116   6.809   3.795
21832SOL    HW267330  12.055   6.792   3.658
21833SOL     OW67331   7.106   1.759   6.278
21833SOL    HW167332   7.088   1.836   6.331
21833SOL    HW267333   7.202   1.753   6.275
21834SOL     OW67334   4.258   3.903  11.757
21834SOL    HW167335   4.328   3.883  11.695
21834SOL    HW267336   4.192   3.834  11.742
21835SOL     OW67337   2.387  10.509   3.221
21835SOL    HW167338   2.405  10.425   3.181
21835SOL    HW267339   2.387  10.491   3.315
21836SOL     OW67340  13.198  12.237  13.350
21836SOL    HW167341  13.204  12.282  13.266
21836SOL    HW267342  13.169  12.304  13.412
21837SOL     OW67343   5.694  10.415  14.432
21837SOL    HW167344   5.615  10.395  14.382
21837SOL    HW267345   5.766  10.383  14.378
21838SOL     OW67346   9.284   0.969  13.825
21838SOL    HW167347   9.230   0.943  13.750
21838SOL    HW267348   9.320   1.054  13.801
21839SOL     OW67349   6.084   3.090   0.510
21839SOL    HW167350   6.111   3.176   0.475
21839SOL    HW267351   6.159   3.033   0.492
21840SOL     OW67352   8.480   4.678   8.073
21840SOL    HW167353   8.569   4.697   8.105
21840SOL    HW267354   8.445   4.762   8.046
21841SOL     OW67355  14.822   1.819   1.221
21841SOL    HW167356  14.746   1.842   1.274
21841SOL    HW267357  14.793   1.746   1.167
21842SOL     OW67358   5.511   9.141   7.739
21842SOL    HW167359   5.441   9.091   7.781
21842SOL    HW267360   5.500   9.123   7.645
21843SOL     OW67361   1.020   0.031   7.005
21843SOL    HW167362   1.086   0.016   6.937
21843SOL    HW267363   1.065   0.014   7.087
21844SOL     OW67364   1.243   7.590   6.085
21844SOL    HW167365   1.305   7.654   6.050
21844SOL    HW267366   1.290   7.507   6.081
21845SOL     OW67367  13.432   1.672   2.999
21845SOL    HW167368  13.391   1.751   2.963
21845SOL    HW267369  13.485   1.703   3.073
21846SOL     OW67370   3.651   7.402  13.440
21846SOL    HW167371   3.573   7.412  13.386
21846SOL    HW267372   3.722   7.437  13.386
21847SOL     OW67373  11.693   9.200   3.651
21847SOL    HW167374  11.785   9.187   3.674
21847SOL    HW267375  11.692   9.203   3.555
21848SOL     OW67376  11.706   5.912   4.644
21848SOL    HW167377  11.739   5.830   4.680
21848SOL    HW267378  11.616   5.918   4.676
21849SOL     OW67379  13.068   1.320   4.488
21849SOL    HW167380  13.034   1.290   4.404
21849SOL    HW267381  13.118   1.246   4.522
21850SOL     OW67382   8.598  12.256  12.588
21850SOL    HW167383   8.606  12.166  12.617
21850SOL    HW267384   8.504  12.272  12.581
21851SOL     OW67385   3.221  11.100  11.924
21851SOL    HW167386   3.316  11.089  11.916
21851SOL    HW267387   3.210  11.193  11.943
21852SOL     OW67388  10.919   0.840   7.194
21852SOL    HW167389  10.837   0.800   7.223
21852SOL    HW267390  10.912   0.842   7.099
21853SOL     OW67391   3.424  10.527   1.514
21853SOL    HW167392   3.419  10.622   1.500
21853SOL    HW267393   3.482  10.518   1.590
21854SOL     OW67394   4.615   7.938   7.661
21854SOL    HW167395   4.647   7.905   7.745
21854SOL    HW267396   4.686   7.918   7.600
21855SOL     OW67397  13.524   5.320   3.819
21855SOL    HW167398  13.618   5.338   3.814
21855SOL    HW267399  13.518   5.228   3.844
21856SOL     OW67400  12.549  13.489   3.114
21856SOL    HW167401  12.617  13.478   3.047
21856SOL    HW267402  12.468  13.499   3.064
21857SOL     OW67403   0.387   7.007   4.999
21857SOL    HW167404   0.391   7.026   4.905
21857SOL    HW267405   0.313   7.059   5.031
21858SOL     OW67406   2.326   4.145   0.755
21858SOL    HW167407   2.319   4.239   0.741
21858SOL    HW267408   2.351   4.135   0.847
21859SOL     OW67409   7.656   2.222   2.387
21859SOL    HW167410   7.564   2.198   2.377
21859SOL    HW267411   7.705   2.143   2.365
21860SOL     OW67412   3.111  11.257   2.477
21860SOL    HW167413   3.060  11.281   2.400
21860SOL    HW267414   3.197  11.234   2.443
21861SOL     OW67415  10.734   3.467   7.627
21861SOL    HW167416  10.796   3.395   7.639
21861SOL    HW267417  10.759   3.506   7.543
21862SOL     OW67418   4.497   9.958  12.283
21862SOL    HW167419   4.452   9.923  12.360
21862SOL    HW267420   4.579   9.909  12.279
21863SOL     OW67421  13.704   9.797   5.519
21863SOL    HW167422  13.796   9.806   5.545
21863SOL    HW267423  13.686   9.875   5.468
21864SOL     OW67424   9.170   4.904  14.833
21864SOL    HW167425   9.258   4.922  14.867
21864SOL    HW267426   9.134   4.839   0.014
21865SOL     OW67427   0.520  11.588  13.790
21865SOL    HW167428   0.494  11.559  13.877
21865SOL    HW267429   0.590  11.652  13.806
21866SOL     OW67430   3.297   4.247   7.384
21866SOL    HW167431   3.310   4.211   7.296
21866SOL    HW267432   3.327   4.338   7.377
21867SOL     OW67433  10.053  13.954  12.506
21867SOL    HW167434  10.047  13.934  12.413
21867SOL    HW267435  10.006  14.037  12.516
21868SOL     OW67436  13.848   0.181   0.422
21868SOL    HW167437  13.774   0.122   0.433
21868SOL    HW267438  13.904   0.163   0.497
21869SOL     OW67439   0.395   3.822   9.016
21869SOL    HW167440   0.384   3.917   9.019
21869SOL    HW267441   0.417   3.803   8.925
21870SOL     OW67442   0.643   5.986  14.704
21870SOL    HW167443   0.589   6.063  14.725
21870SOL    HW267444   0.653   5.941  14.788
21871SOL     OW67445  10.872  13.346   0.787
21871SOL    HW167446  10.918  13.387   0.860
21871SOL    HW267447  10.872  13.413   0.718
21872SOL     OW67448   6.398   2.383   2.365
21872SOL    HW167449   6.398   2.287   2.367
21872SOL    HW267450   6.484   2.406   2.330
21873SOL     OW67451  13.081   9.090   3.087
21873SOL    HW167452  13.040   9.025   3.030
21873SOL    HW267453  13.116   9.039   3.160
21874SOL     OW67454   1.038  13.385   2.357
21874SOL    HW167455   1.033  13.442   2.433
21874SOL    HW267456   1.102  13.426   2.300
21875SOL     OW67457   5.393   5.860   4.472
21875SOL    HW167458   5.398   5.765   4.466
21875SOL    HW267459   5.388   5.889   4.381
21876SOL     OW67460  14.164  14.674   7.528
21876SOL    HW167461  14.096  14.608   7.515
21876SOL    HW267462  14.246  14.626   7.519
21877SOL     OW67463   9.531   1.929   9.213
21877SOL    HW167464   9.479   1.981   9.151
21877SOL    HW267465   9.542   1.986   9.289
21878SOL     OW67466  13.752   1.258   9.849
21878SOL    HW167467  13.738   1.165   9.867
21878SOL    HW267468  13.672   1.301   9.880
21879SOL     OW67469   2.580   3.568  14.282
21879SOL    HW167470   2.574   3.513  14.361
21879SOL    HW267471   2.564   3.507  14.210
21880SOL     OW67472   7.892   0.069   2.673
21880SOL    HW167473   7.886   0.130   2.747
21880SOL    HW267474   7.979   0.084   2.636
21881SOL     OW67475  14.359  14.115  10.499
21881SOL    HW167476  14.286  14.152  10.449
21881SOL    HW267477  14.422  14.186  10.506
21882SOL     OW67478   7.382   1.095   5.679
21882SOL    HW167479   7.317   1.034   5.714
21882SOL    HW267480   7.380   1.080   5.584
21883SOL     OW67481   3.967   8.111  11.557
21883SOL    HW167482   4.049   8.148  11.523
21883SOL    HW267483   3.992   8.026  11.592
21884SOL     OW67484   5.852   6.549   2.966
21884SOL    HW167485   5.927   6.582   2.916
21884SOL    HW267486   5.843   6.458   2.938
21885SOL     OW67487  14.318  11.794   3.716
21885SOL    HW167488  14.319  11.830   3.628
21885SOL    HW267489  14.237  11.828   3.755
21886SOL     OW67490   3.323   1.204   2.620
21886SOL    HW167491   3.363   1.248   2.695
21886SOL    HW267492   3.248   1.157   2.657
21887SOL     OW67493  11.208   5.137   2.703
21887SOL    HW167494  11.288   5.119   2.753
21887SOL    HW267495  11.162   5.203   2.754
21888SOL     OW67496   4.498   2.993   5.393
21888SOL    HW167497   4.432   3.028   5.333
21888SOL    HW267498   4.563   3.063   5.399
21889SOL     OW67499   1.512  10.427   4.492
21889SOL    HW167500   1.605  10.434   4.474
21889SOL    HW267501   1.507  10.371   4.570
21890SOL     OW67502  12.211   5.583   3.815
21890SOL    HW167503  12.127   5.565   3.771
21890SOL    HW267504  12.271   5.519   3.777
21891SOL     OW67505  11.809  10.033   5.972
21891SOL    HW167506  11.736  10.087   6.002
21891SOL    HW267507  11.826   9.973   6.045
21892SOL     OW67508  10.185   4.594   7.495
21892SOL    HW167509  10.248   4.634   7.555
21892SOL    HW267510  10.223   4.508   7.474
21893SOL     OW67511   0.808  10.906  12.218
21893SOL    HW167512   0.833  10.989  12.259
21893SOL    HW267513   0.771  10.932  12.134
21894SOL     OW67514  13.093  12.249  12.321
21894SOL    HW167515  13.119  12.158  12.310
21894SOL    HW267516  13.001  12.251  12.297
21895SOL     OW67517  13.731   5.853   5.295
21895SOL    HW167518  13.744   5.916   5.366
21895SOL    HW267519  13.727   5.768   5.338
21896SOL     OW67520   5.574   9.425  14.746
21896SOL    HW167521   5.644   9.403  14.807
21896SOL    HW267522   5.599   9.512  14.713
21897SOL     OW67523   5.197   4.765  10.744
21897SOL    HW167524   5.229   4.847  10.784
21897SOL    HW267525   5.234   4.766  10.656
21898SOL     OW67526  11.363   7.182   9.840
21898SOL    HW167527  11.371   7.190   9.935
21898SOL    HW267528  11.276   7.143   9.827
21899SOL     OW67529  12.066  12.143   8.882
21899SOL    HW167530  11.975  12.170   8.868
21899SOL    HW267531  12.118  12.218   8.853
21900SOL     OW67532   3.401   9.792   1.416
21900SOL    HW167533   3.425   9.752   1.332
21900SOL    HW267534   3.391   9.885   1.396
21901SOL     OW67535   0.563   0.717   4.221
21901SOL    HW167536   0.592   0.626   4.214
21901SOL    HW267537   0.473   0.716   4.187
21902SOL     OW67538   6.335   6.143  10.839
21902SOL    HW167539   6.248   6.159  10.803
21902SOL    HW267540   6.327   6.059  10.884
21903SOL     OW67541  13.486  10.619   3.292
21903SOL    HW167542  13.427  10.657   3.227
21903SOL    HW267543  13.456  10.654   3.375
21904SOL     OW67544   4.719  11.712  13.771
21904SOL    HW167545   4.692  11.802  13.749
21904SOL    HW267546   4.731  11.713  13.866
21905SOL     OW67547  14.866   4.154  10.983
21905SOL    HW167548  14.872   4.105  11.064
21905SOL    HW267549  14.777   4.139  10.952
21906SOL     OW67550  14.159   8.005  12.473
21906SOL    HW167551  14.108   7.949  12.415
21906SOL    HW267552  14.096   8.041  12.535
21907SOL     OW67553   6.181  14.864   2.984
21907SOL    HW167554   6.198   0.071   3.023
21907SOL    HW267555   6.103  14.832   3.029
21908SOL     OW67556  13.741   2.339  14.004
21908SOL    HW167557  13.807   2.381  13.948
21908SOL    HW267558  13.724   2.255  13.961
21909SOL     OW67559   6.058   5.041  12.979
21909SOL    HW167560   6.041   5.098  12.904
21909SOL    HW267561   6.111   5.094  13.039
21910SOL     OW67562   2.948   1.919  13.039
21910SOL    HW167563   3.022   1.879  12.995
21910SOL    HW267564   2.895   1.957  12.968
21911SOL     OW67565   2.803   5.991   9.491
21911SOL    HW167566   2.776   5.915   9.440
21911SOL    HW267567   2.890   5.969   9.524
21912SOL     OW67568  11.462  11.910   8.541
21912SOL    HW167569  11.419  11.994   8.526
21912SOL    HW267570  11.450  11.862   8.458
21913SOL     OW67571  13.122   7.183   2.363
21913SOL    HW167572  13.139   7.146   2.276
21913SOL    HW267573  13.040   7.143   2.390
21914SOL     OW67574  14.522   6.544   8.941
21914SOL    HW167575  14.475   6.461   8.931
21914SOL    HW267576  14.614   6.521   8.931
21915SOL     OW67577   1.391  10.713   8.689
21915SOL    HW167578   1.382  10.659   8.768
21915SOL    HW267579   1.485  10.727   8.681
21916SOL     OW67580   8.304  14.787   0.866
21916SOL    HW167581   8.322  14.862   0.921
21916SOL    HW267582   8.300  14.822   0.777
21917SOL     OW67583  11.647  12.083   4.973
21917SOL    HW167584  11.588  12.157   4.958
21917SOL    HW267585  11.697  12.108   5.051
21918SOL     OW67586   2.215   3.030   5.623
21918SOL    HW167587   2.205   3.021   5.528
21918SOL    HW267588   2.171   2.953   5.660
21919SOL     OW67589  11.427   2.684   6.685
21919SOL    HW167590  11.505   2.729   6.654
21919SOL    HW267591  11.371   2.677   6.607
21920SOL     OW67592   4.680  14.552   3.207
21920SOL    HW167593   4.666  14.512   3.292
21920SOL    HW267594   4.653  14.643   3.218
21921SOL     OW67595   1.135   1.918  12.039
21921SOL    HW167596   1.179   1.913  11.954
21921SOL    HW267597   1.205   1.935  12.102
21922SOL     OW67598   6.890   5.807   6.278
21922SOL    HW167599   6.872   5.783   6.369
21922SOL    HW267600   6.905   5.724   6.233
21923SOL     OW67601   6.863   2.229   4.484
21923SOL    HW167602   6.782   2.280   4.481
21923SOL    HW267603   6.905   2.257   4.566
21924SOL     OW67604  14.325   0.409  10.300
21924SOL    HW167605  14.342   0.315  10.307
21924SOL    HW267606  14.230   0.417  10.298
21925SOL     OW67607   5.898   7.956   4.179
21925SOL    HW167608   5.807   7.949   4.207
21925SOL    HW267609   5.911   8.049   4.160
21926SOL     OW67610  14.828   3.333  10.431
21926SOL    HW167611  14.740   3.307  10.405
21926SOL    HW267612  14.823   3.346  10.526
21927SOL     OW67613   3.048  11.488   3.616
21927SOL    HW167614   2.958  11.483   3.649
21927SOL    HW267615   3.083  11.568   3.654
21928SOL     OW67616   2.872   7.438   5.766
21928SOL    HW167617   2.929   7.492   5.711
21928SOL    HW267618   2.923   7.358   5.780
21929SOL     OW67619   9.266  14.292  13.057
21929SOL    HW167620   9.313  14.374  13.074
21929SOL    HW267621   9.246  14.258  13.144
21930SOL     OW67622   9.923   5.699  12.074
21930SOL    HW167623   9.940   5.610  12.104
21930SOL    HW267624   9.939   5.754  12.150
21931SOL     OW67625   8.485  10.314   1.148
21931SOL    HW167626   8.577  10.340   1.156
21931SOL    HW267627   8.437  10.397   1.152
21932SOL     OW67628   5.059   9.166  10.049
21932SOL    HW167629   5.122   9.099  10.023
21932SOL    HW267630   5.018   9.132  10.128
21933SOL     OW67631   9.623   1.677   5.347
21933SOL    HW167632   9.669   1.604   5.306
21933SOL    HW267633   9.690   1.744   5.358
21934SOL     OW67634   5.096   0.938   5.467
21934SOL    HW167635   5.086   0.846   5.440
21934SOL    HW267636   5.041   0.945   5.545
21935SOL     OW67637   3.124   3.989   9.612
21935SOL    HW167638   3.054   3.941   9.657
21935SOL    HW267639   3.116   3.961   9.520
21936SOL     OW67640  11.254   3.088   9.619
21936SOL    HW167641  11.235   3.133   9.537
21936SOL    HW267642  11.280   3.000   9.592
21937SOL     OW67643  14.805   3.855  13.971
21937SOL    HW167644  14.845   3.791  13.912
21937SOL    HW267645  14.727   3.811  14.005
21938SOL     OW67646  13.159  14.150   5.074
21938SOL    HW167647  13.232  14.132   5.133
21938SOL    HW267648  13.191  14.219   5.016
21939SOL     OW67649  14.677  12.549   9.120
21939SOL    HW167650  14.603  12.584   9.169
21939SOL    HW267651  14.707  12.475   9.171
21940SOL     OW67652  11.917  10.027  11.689
21940SOL    HW167653  11.970  10.105  11.709
21940SOL    HW267654  11.942   9.964  11.756
21941SOL     OW67655   9.017  12.398  12.468
21941SOL    HW167656   8.992  12.487  12.441
21941SOL    HW267657   9.051  12.358  12.388
21942SOL     OW67658  12.959  10.335   1.627
21942SOL    HW167659  13.053  10.338   1.643
21942SOL    HW267660  12.920  10.335   1.714
21943SOL     OW67661  11.562   4.039   7.253
21943SOL    HW167662  11.655   4.058   7.250
21943SOL    HW267663  11.523   4.096   7.186
21944SOL     OW67664  12.156   7.127  14.774
21944SOL    HW167665  12.102   7.099  14.700
21944SOL    HW267666  12.096   7.127  14.849
21945SOL     OW67667  13.399   5.861  12.069
21945SOL    HW167668  13.422   5.951  12.094
21945SOL    HW267669  13.320   5.843  12.119
21946SOL     OW67670   0.969   7.127   4.313
21946SOL    HW167671   0.975   7.168   4.226
21946SOL    HW267672   0.887   7.079   4.310
21947SOL     OW67673   8.999   2.582  13.921
21947SOL    HW167674   8.949   2.500  13.927
21947SOL    HW267675   9.089   2.554  13.905
21948SOL     OW67676  14.101   1.180  14.309
21948SOL    HW167677  14.140   1.267  14.301
21948SOL    HW267678  14.007   1.197  14.321
21949SOL     OW67679   9.177   4.036  10.589
21949SOL    HW167680   9.271   4.023  10.579
21949SOL    HW267681   9.167   4.131  10.600
21950SOL     OW67682  14.370  10.798   2.110
21950SOL    HW167683  14.443  10.762   2.161
21950SOL    HW267684  14.329  10.722   2.069
21951SOL     OW67685   3.626   3.843  10.061
21951SOL    HW167686   3.566   3.916  10.045
21951SOL    HW267687   3.628   3.835  10.157
21952SOL     OW67688   7.760   1.453  14.379
21952SOL    HW167689   7.695   1.398  14.335
21952SOL    HW267690   7.839   1.444  14.325
21953SOL     OW67691   6.116   3.284  14.374
21953SOL    HW167692   6.054   3.325  14.435
21953SOL    HW267693   6.085   3.309  14.287
21954SOL     OW67694   6.054   1.318  14.800
21954SOL    HW167695   6.066   1.322  14.705
21954SOL    HW267696   6.020   1.230  14.817
21955SOL     OW67697   8.745   8.398  11.890
21955SOL    HW167698   8.835   8.405  11.858
21955SOL    HW267699   8.708   8.325  11.840
21956SOL     OW67700   1.540  13.021   8.868
21956SOL    HW167701   1.613  12.975   8.827
21956SOL    HW267702   1.547  13.001   8.962
21957SOL     OW67703   9.843   9.335   0.833
21957SOL    HW167704   9.863   9.326   0.740
21957SOL    HW267705   9.878   9.256   0.873
21958SOL     OW67706   9.322   7.012   1.179
21958SOL    HW167707   9.287   6.951   1.245
21958SOL    HW267708   9.415   6.991   1.174
21959SOL     OW67709   6.032  14.500   2.536
21959SOL    HW167710   6.102  14.470   2.595
21959SOL    HW267711   5.954  14.455   2.567
21960SOL     OW67712   7.844   4.065   3.571
21960SOL    HW167713   7.883   4.024   3.648
21960SOL    HW267714   7.828   4.156   3.599
21961SOL     OW67715   4.308  14.467   9.159
21961SOL    HW167716   4.319  14.559   9.184
21961SOL    HW267717   4.228  14.440   9.204
21962SOL     OW67718   0.044  12.997   1.165
21962SOL    HW167719   0.096  13.077   1.156
21962SOL    HW267720   0.031  12.988   1.259
21963SOL     OW67721  10.541  13.548   0.125
21963SOL    HW167722  10.570  13.593   0.046
21963SOL    HW267723  10.499  13.468   0.093
21964SOL     OW67724   7.234  11.577  12.726
21964SOL    HW167725   7.236  11.546  12.816
21964SOL    HW267726   7.213  11.499  12.675
21965SOL     OW67727   0.975   8.904  12.254
21965SOL    HW167728   1.067   8.926  12.239
21965SOL    HW267729   0.937   8.983  12.293
21966SOL     OW67730   3.654   8.152   5.607
21966SOL    HW167731   3.706   8.182   5.532
21966SOL    HW267732   3.635   8.232   5.656
21967SOL     OW67733   0.232   0.449   3.220
21967SOL    HW167734   0.140   0.476   3.212
21967SOL    HW267735   0.264   0.444   3.130
21968SOL     OW67736  13.192   5.776   4.832
21968SOL    HW167737  13.162   5.835   4.901
21968SOL    HW267738  13.257   5.720   4.875
21969SOL     OW67739  12.639   5.739   1.383
21969SOL    HW167740  12.580   5.810   1.354
21969SOL    HW267741  12.583   5.682   1.436
21970SOL     OW67742   7.472   8.911  13.723
21970SOL    HW167743   7.434   8.980  13.777
21970SOL    HW267744   7.463   8.942  13.633
21971SOL     OW67745  11.655   0.347   1.845
21971SOL    HW167746  11.747   0.333   1.871
21971SOL    HW267747  11.658   0.423   1.788
21972SOL     OW67748   4.845  12.205   0.156
21972SOL    HW167749   4.870  12.223   0.247
21972SOL    HW267750   4.913  12.248   0.104
21973SOL     OW67751   6.089   5.379   7.084
21973SOL    HW167752   6.007   5.428   7.068
21973SOL    HW267753   6.060   5.298   7.126
21974SOL     OW67754  12.123   1.897   7.536
21974SOL    HW167755  12.067   1.821   7.522
21974SOL    HW267756  12.076   1.950   7.599
21975SOL     OW67757   7.175  14.098   2.445
21975SOL    HW167758   7.230  14.126   2.517
21975SOL    HW267759   7.109  14.040   2.485
21976SOL     OW67760   1.414  11.668   4.554
21976SOL    HW167761   1.474  11.595   4.541
21976SOL    HW267762   1.423  11.690   4.647
21977SOL     OW67763  11.282   0.685   8.338
21977SOL    HW167764  11.194   0.697   8.373
21977SOL    HW267765  11.291   0.590   8.329
21978SOL     OW67766   1.557  11.337   2.573
21978SOL    HW167767   1.623  11.385   2.622
21978SOL    HW267768   1.568  11.367   2.482
21979SOL     OW67769   9.480   6.994   5.224
21979SOL    HW167770   9.483   6.899   5.213
21979SOL    HW267771   9.516   7.008   5.312
21980SOL     OW67772  12.302   6.372   1.534
21980SOL    HW167773  12.237   6.354   1.466
21980SOL    HW267774  12.251   6.407   1.607
21981SOL     OW67775   9.887   1.848   0.743
21981SOL    HW167776   9.801   1.887   0.726
21981SOL    HW267777   9.876   1.797   0.823
21982SOL     OW67778  13.824   7.154   4.629
21982SOL    HW167779  13.771   7.169   4.551
21982SOL    HW267780  13.814   7.234   4.680
21983SOL     OW67781  13.327   0.504  12.995
21983SOL    HW167782  13.410   0.468  13.026
21983SOL    HW267783  13.339   0.599  12.999
21984SOL     OW67784  13.030   6.917   3.281
21984SOL    HW167785  13.110   6.866   3.268
21984SOL    HW267786  13.020   6.965   3.199
21985SOL     OW67787  10.840  10.936   7.081
21985SOL    HW167788  10.772  10.952   7.147
21985SOL    HW267789  10.905  10.882   7.126
21986SOL     OW67790   4.807   2.334  11.941
21986SOL    HW167791   4.725   2.304  11.902
21986SOL    HW267792   4.783   2.362  12.029
21987SOL     OW67793  10.369  14.049  10.875
21987SOL    HW167794  10.377  14.132  10.828
21987SOL    HW267795  10.450  14.043  10.925
21988SOL     OW67796  14.848   2.953  11.004
21988SOL    HW167797  14.807   2.903  10.934
21988SOL    HW267798  14.849   2.894  11.079
21989SOL     OW67799   9.018   0.417  12.358
21989SOL    HW167800   8.977   0.350  12.304
21989SOL    HW267801   9.006   0.386  12.448
21990SOL     OW67802   3.799   7.602  12.945
21990SOL    HW167803   3.893   7.620  12.941
21990SOL    HW267804   3.766   7.626  12.858
21991SOL     OW67805  11.395   5.104   8.860
21991SOL    HW167806  11.418   5.173   8.921
21991SOL    HW267807  11.303   5.084   8.879
21992SOL     OW67808   5.527   6.633  13.258
21992SOL    HW167809   5.580   6.704  13.294
21992SOL    HW267810   5.459   6.676  13.206
21993SOL     OW67811   4.895  14.728   0.338
21993SOL    HW167812   4.985  14.706   0.365
21993SOL    HW267813   4.874  14.806   0.390
21994SOL     OW67814   3.895   1.483  12.031
21994SOL    HW167815   3.914   1.574  12.007
21994SOL    HW267816   3.818   1.460  11.979
21995SOL     OW67817   1.463   7.125   8.704
21995SOL    HW167818   1.444   7.072   8.781
21995SOL    HW267819   1.400   7.197   8.709
21996SOL     OW67820   0.799   1.327   3.664
21996SOL    HW167821   0.710   1.349   3.635
21996SOL    HW267822   0.843   1.411   3.672
21997SOL     OW67823  12.664  11.709  14.329
21997SOL    HW167824  12.672  11.787  14.384
21997SOL    HW267825  12.740  11.712  14.272
21998SOL     OW67826   9.477   6.421   1.797
21998SOL    HW167827   9.437   6.411   1.883
21998SOL    HW267828   9.508   6.511   1.795
21999SOL     OW67829   7.976   5.167  11.600
21999SOL    HW167830   7.881   5.165  11.595
21999SOL    HW267831   7.998   5.261  11.604
22000SOL     OW67832   9.318   0.612   3.363
22000SOL    HW167833   9.262   0.656   3.299
22000SOL    HW267834   9.373   0.553   3.311
22001SOL     OW67835  13.419   3.281   4.117
22001SOL    HW167836  13.436   3.361   4.069
22001SOL    HW267837  13.377   3.310   4.198
22002SOL     OW67838   4.838   4.025   2.515
22002SOL    HW167839   4.780   3.962   2.473
22002SOL    HW267840   4.784   4.070   2.579
22003SOL     OW67841   6.450   9.684   4.629
22003SOL    HW167842   6.513   9.718   4.693
22003SOL    HW267843   6.476   9.593   4.617
22004SOL     OW67844   2.856  10.353  14.667
22004SOL    HW167845   2.884  10.318  14.583
22004SOL    HW267846   2.785  10.414  14.646
22005SOL     OW67847   2.580   2.252   6.157
22005SOL    HW167848   2.563   2.171   6.107
22005SOL    HW267849   2.496   2.270   6.200
22006SOL     OW67850  13.552   0.571   0.436
22006SOL    HW167851  13.618   0.628   0.475
22006SOL    HW267852  13.474   0.584   0.490
22007SOL     OW67853   8.235   6.630  14.731
22007SOL    HW167854   8.178   6.601  14.659
22007SOL    HW267855   8.317   6.654  14.688
22008SOL     OW67856   8.277   9.982   7.385
22008SOL    HW167857   8.204   9.923   7.406
22008SOL    HW267858   8.276   9.988   7.290
22009SOL     OW67859   5.322   1.818   0.087
22009SOL    HW167860   5.278   1.786   0.166
22009SOL    HW267861   5.305   1.751   0.021
22010SOL     OW67862  12.541  10.673   2.248
22010SOL    HW167863  12.628  10.710   2.264
22010SOL    HW267864  12.513  10.640   2.333
22011SOL     OW67865   2.166  13.929   4.293
22011SOL    HW167866   2.176  14.021   4.267
22011SOL    HW267867   2.079  13.904   4.261
22012SOL     OW67868  12.452   2.937   5.511
22012SOL    HW167869  12.374   2.984   5.538
22012SOL    HW267870  12.512   3.005   5.480
22013SOL     OW67871   6.925  14.428   1.310
22013SOL    HW167872   6.909  14.431   1.404
22013SOL    HW267873   6.849  14.472   1.271
22014SOL     OW67874  10.909   3.444   2.981
22014SOL    HW167875  10.817   3.439   3.006
22014SOL    HW267876  10.948   3.503   3.045
22015SOL     OW67877   2.429  13.432   3.365
22015SOL    HW167878   2.439  13.374   3.289
22015SOL    HW267879   2.356  13.489   3.342
22016SOL     OW67880   8.808  13.025  13.050
22016SOL    HW167881   8.809  12.948  12.994
22016SOL    HW267882   8.813  13.099  12.989
22017SOL     OW67883   4.440   6.615   5.971
22017SOL    HW167884   4.491   6.617   5.890
22017SOL    HW267885   4.471   6.537   6.017
22018SOL     OW67886   5.446  12.234   5.850
22018SOL    HW167887   5.418  12.215   5.760
22018SOL    HW267888   5.415  12.159   5.900
22019SOL     OW67889   1.161   7.254  10.116
22019SOL    HW167890   1.102   7.311  10.067
22019SOL    HW267891   1.217   7.214  10.050
22020SOL     OW67892   7.321   6.493   1.585
22020SOL    HW167893   7.279   6.478   1.500
22020SOL    HW267894   7.266   6.559   1.627
22021SOL     OW67895   0.667  12.616   0.586
22021SOL    HW167896   0.630  12.683   0.528
22021SOL    HW267897   0.597  12.598   0.649
22022SOL     OW67898  14.048   1.016   0.518
22022SOL    HW167899  14.025   0.993   0.608
22022SOL    HW267900  14.072   0.932   0.478
22023SOL     OW67901   3.669  12.198  10.829
22023SOL    HW167902   3.731  12.269  10.845
22023SOL    HW267903   3.713  12.119  10.863
22024SOL     OW67904  14.467   9.854   3.455
22024SOL    HW167905  14.385   9.898   3.478
22024SOL    HW267906  14.514   9.918   3.401
22025SOL     OW67907   5.593   8.408  12.683
22025SOL    HW167908   5.513   8.449  12.651
22025SOL    HW267909   5.640   8.478  12.727
22026SOL     OW67910  13.719   4.693  13.833
22026SOL    HW167911  13.722   4.755  13.907
22026SOL    HW267912  13.763   4.615  13.867
22027SOL     OW67913   4.538  11.361   1.159
22027SOL    HW167914   4.556  11.310   1.238
22027SOL    HW267915   4.613  11.420   1.152
22028SOL     OW67916   7.376   0.668   8.272
22028SOL    HW167917   7.463   0.709   8.277
22028SOL    HW267918   7.383   0.591   8.328
22029SOL     OW67919   7.616   6.958   4.595
22029SOL    HW167920   7.665   6.942   4.514
22029SOL    HW267921   7.528   6.981   4.566
22030SOL     OW67922  11.154   5.469   6.432
22030SOL    HW167923  11.232   5.523   6.441
22030SOL    HW267924  11.185   5.385   6.397
22031SOL     OW67925   6.300   3.176  14.104
22031SOL    HW167926   6.355   3.254  14.105
22031SOL    HW267927   6.360   3.104  14.085
22032SOL     OW67928   0.152   1.609   6.314
22032SOL    HW167929   0.241   1.637   6.294
22032SOL    HW267930   0.118   1.574   6.231
22033SOL     OW67931   9.378  10.266  13.237
22033SOL    HW167932   9.371  10.361  13.231
22033SOL    HW267933   9.380  10.235  13.147
22034SOL     OW67934   6.705   7.787  11.063
22034SOL    HW167935   6.752   7.836  11.130
22034SOL    HW267936   6.772   7.736  11.018
22035SOL     OW67937   5.199   1.427   6.748
22035SOL    HW167938   5.255   1.352   6.769
22035SOL    HW267939   5.200   1.480   6.828
22036SOL     OW67940   4.569   3.487   9.549
22036SOL    HW167941   4.509   3.462   9.478
22036SOL    HW267942   4.605   3.405   9.581
22037SOL     OW67943   2.554  11.545  10.973
22037SOL    HW167944   2.589  11.548  10.884
22037SOL    HW267945   2.576  11.458  11.005
22038SOL     OW67946  10.335   7.447   8.640
22038SOL    HW167947  10.279   7.494   8.703
22038SOL    HW267948  10.273   7.409   8.577
22039SOL     OW67949   0.020   7.938   6.668
22039SOL    HW167950  14.838   7.880   6.714
22039SOL    HW267951   0.049   8.000   6.736
22040SOL     OW67952   2.897   4.513   9.163
22040SOL    HW167953   2.891   4.491   9.070
22040SOL    HW267954   2.943   4.597   9.165
22041SOL     OW67955   8.548  11.451   3.021
22041SOL    HW167956   8.553  11.434   3.116
22041SOL    HW267957   8.604  11.383   2.982
22042SOL     OW67958   6.420  12.133  12.199
22042SOL    HW167959   6.340  12.140  12.147
22042SOL    HW267960   6.445  12.041  12.193
22043SOL     OW67961  12.277   7.858   7.125
22043SOL    HW167962  12.329   7.778   7.130
22043SOL    HW267963  12.186   7.829   7.122
22044SOL     OW67964  14.376   8.701   6.700
22044SOL    HW167965  14.283   8.680   6.704
22044SOL    HW267966  14.415   8.629   6.650
22045SOL     OW67967  12.232   8.115   0.129
22045SOL    HW167968  12.320   8.119   0.092
22045SOL    HW267969  12.233   8.037   0.184
22046SOL     OW67970   6.941   0.150   5.480
22046SOL    HW167971   6.868   0.108   5.527
22046SOL    HW267972   7.013   0.148   5.542
22047SOL     OW67973   4.598   7.338   6.053
22047SOL    HW167974   4.648   7.399   6.107
22047SOL    HW267975   4.576   7.388   5.974
22048SOL     OW67976  14.191   6.090  13.490
22048SOL    HW167977  14.253   6.079  13.562
22048SOL    HW267978  14.116   6.134  13.529
22049SOL     OW67979   7.496   1.079  14.196
22049SOL    HW167980   7.428   1.045  14.138
22049SOL    HW267981   7.578   1.051  14.154
22050SOL     OW67982   3.999   2.521   8.654
22050SOL    HW167983   3.991   2.596   8.594
22050SOL    HW267984   4.077   2.475   8.624
22051SOL     OW67985   1.443   3.891   6.908
22051SOL    HW167986   1.469   3.799   6.915
22051SOL    HW267987   1.356   3.888   6.867
22052SOL     OW67988   6.117   9.897  10.406
22052SOL    HW167989   6.022   9.888  10.406
22052SOL    HW267990   6.149   9.816  10.364
22053SOL     OW67991  10.989   8.127  13.653
22053SOL    HW167992  10.924   8.180  13.607
22053SOL    HW267993  10.943   8.046  13.676
22054SOL     OW67994   1.560   8.125   5.087
22054SOL    HW167995   1.520   8.042   5.062
22054SOL    HW267996   1.571   8.119   5.182
22055SOL     OW67997   3.642   7.399  13.744
22055SOL    HW167998   3.649   7.383  13.649
22055SOL    HW267999   3.709   7.464  13.763
22056SOL     OW68000   0.063   7.720   6.507
22056SOL    HW168001   0.055   7.803   6.554
22056SOL    HW268002   0.010   7.732   6.428
22057SOL     OW68003   7.563  14.764   6.050
22057SOL    HW168004   7.473  14.792   6.061
22057SOL    HW268005   7.566  14.675   6.086
22058SOL     OW68006  12.369  12.697   8.957
22058SOL    HW168007  12.336  12.705   8.868
22058SOL    HW268008  12.349  12.781   8.998
22059SOL     OW68009   5.976  14.318  10.690
22059SOL    HW168010   5.959  14.315  10.596
22059SOL    HW268011   6.017  14.403  10.705
22060SOL     OW68012  12.460  12.378   1.967
22060SOL    HW168013  12.494  12.370   1.878
22060SOL    HW268014  12.434  12.469   1.974
22061SOL     OW68015  12.445   7.056   8.929
22061SOL    HW168016  12.502   6.993   8.973
22061SOL    HW268017  12.393   7.094   9.000
22062SOL     OW68018   6.750   8.140   1.453
22062SOL    HW168019   6.835   8.096   1.451
22062SOL    HW268020   6.692   8.079   1.498
22063SOL     OW68021  14.793  14.522   3.472
22063SOL    HW168022  14.779  14.493   3.382
22063SOL    HW268023  14.841  14.450   3.513
22064SOL     OW68024  12.537   1.497   6.843
22064SOL    HW168025  12.615   1.441   6.839
22064SOL    HW268026  12.464   1.437   6.829
22065SOL     OW68027   1.142   0.918   0.191
22065SOL    HW168028   1.081   0.866   0.243
22065SOL    HW268029   1.227   0.874   0.201
22066SOL     OW68030   9.355   0.222  12.483
22066SOL    HW168031   9.358   0.165  12.406
22066SOL    HW268032   9.319   0.305  12.450
22067SOL     OW68033   9.520  11.576   5.225
22067SOL    HW168034   9.574  11.643   5.183
22067SOL    HW268035   9.564  11.558   5.308
22068SOL     OW68036   7.302  11.777   5.889
22068SOL    HW168037   7.372  11.784   5.824
22068SOL    HW268038   7.331  11.707   5.948
22069SOL     OW68039   6.062   6.787   3.595
22069SOL    HW168040   5.995   6.759   3.657
22069SOL    HW268041   6.013   6.831   3.526
22070SOL     OW68042   3.009  14.864   5.486
22070SOL    HW168043   2.981   0.074   5.462
22070SOL    HW268044   2.983  14.856   5.578
22071SOL     OW68045   7.419   4.671   3.469
22071SOL    HW168046   7.437   4.765   3.480
22071SOL    HW268047   7.331   4.659   3.504
22072SOL     OW68048  10.561  11.021   9.600
22072SOL    HW168049  10.548  10.926   9.607
22072SOL    HW268050  10.541  11.054   9.688
22073SOL     OW68051   4.921   3.909  12.997
22073SOL    HW168052   5.007   3.877  13.024
22073SOL    HW268053   4.928   3.919  12.902
22074SOL     OW68054   1.050   6.535   8.218
22074SOL    HW168055   1.129   6.481   8.219
22074SOL    HW268056   1.027   6.545   8.311
22075SOL     OW68057   3.598   6.729   6.104
22075SOL    HW168058   3.653   6.678   6.163
22075SOL    HW268059   3.586   6.813   6.149
22076SOL     OW68060   6.080   6.706  10.263
22076SOL    HW168061   6.073   6.799  10.285
22076SOL    HW268062   6.150   6.703  10.198
22077SOL     OW68063   7.284   6.082   2.930
22077SOL    HW168064   7.219   6.095   2.999
22077SOL    HW268065   7.234   6.050   2.855
22078SOL     OW68066   1.683  10.991  13.947
22078SOL    HW168067   1.668  10.904  13.983
22078SOL    HW268068   1.766  10.984  13.901
22079SOL     OW68069   4.819  10.537   4.242
22079SOL    HW168070   4.728  10.564   4.230
22079SOL    HW268071   4.860  10.608   4.291
22080SOL     OW68072   9.733   5.150  10.668
22080SOL    HW168073   9.646   5.152  10.627
22080SOL    HW268074   9.792   5.130  10.596
22081SOL     OW68075   5.348  11.181   8.367
22081SOL    HW168076   5.362  11.103   8.315
22081SOL    HW268077   5.417  11.241   8.338
22082SOL     OW68078  13.379   9.697   1.574
22082SOL    HW168079  13.387   9.605   1.548
22082SOL    HW268080  13.408   9.699   1.665
22083SOL     OW68081   6.495  10.468  11.560
22083SOL    HW168082   6.521  10.457  11.651
22083SOL    HW268083   6.570  10.436  11.510
22084SOL     OW68084   0.431  13.476  14.078
22084SOL    HW168085   0.427  13.386  14.046
22084SOL    HW268086   0.345  13.493  14.115
22085SOL     OW68087   0.825  12.982   6.023
22085SOL    HW168088   0.918  12.969   6.040
22085SOL    HW268089   0.802  13.060   6.074
22086SOL     OW68090   0.316   0.184   3.573
22086SOL    HW168091   0.227   0.161   3.602
22086SOL    HW268092   0.361   0.100   3.564
22087SOL     OW68093   8.404   6.961   1.255
22087SOL    HW168094   8.499   6.971   1.253
22087SOL    HW268095   8.372   7.044   1.289
22088SOL     OW68096  12.814  11.446   3.087
22088SOL    HW168097  12.749  11.515   3.097
22088SOL    HW268098  12.876  11.479   3.022
22089SOL     OW68099   5.620  14.294   5.391
22089SOL    HW168100   5.606  14.378   5.348
22089SOL    HW268101   5.600  14.229   5.324
22090SOL     OW68102   1.987  12.656   6.151
22090SOL    HW168103   1.913  12.603   6.122
22090SOL    HW268104   1.958  12.746   6.137
22091SOL     OW68105  12.562  13.795  11.304
22091SOL    HW168106  12.511  13.872  11.330
22091SOL    HW268107  12.650  13.829  11.287
22092SOL     OW68108  10.682   6.749   3.403
22092SOL    HW168109  10.641   6.664   3.385
22092SOL    HW268110  10.773   6.728   3.422
22093SOL     OW68111   3.614  13.165  14.517
22093SOL    HW168112   3.590  13.119  14.437
22093SOL    HW268113   3.535  13.164  14.570
22094SOL     OW68114   3.652  12.339   7.134
22094SOL    HW168115   3.674  12.271   7.070
22094SOL    HW268116   3.601  12.404   7.084
22095SOL     OW68117   9.307   4.367   2.997
22095SOL    HW168118   9.281   4.405   2.914
22095SOL    HW268119   9.319   4.274   2.979
22096SOL     OW68120   9.412   0.720   8.463
22096SOL    HW168121   9.398   0.799   8.515
22096SOL    HW268122   9.506   0.705   8.467
22097SOL     OW68123   1.300   5.377  11.329
22097SOL    HW168124   1.390   5.344  11.337
22097SOL    HW268125   1.264   5.371  11.418
22098SOL     OW68126   7.945   8.954   5.587
22098SOL    HW168127   7.996   8.958   5.668
22098SOL    HW268128   7.962   8.865   5.553
22099SOL     OW68129   5.900   8.479   3.932
22099SOL    HW168130   5.844   8.555   3.918
22099SOL    HW268131   5.971   8.512   3.986
22100SOL     OW68132  13.810   9.245  13.023
22100SOL    HW168133  13.833   9.300  13.098
22100SOL    HW268134  13.870   9.272  12.954
22101SOL     OW68135   7.373   2.204  10.894
22101SOL    HW168136   7.285   2.243  10.898
22101SOL    HW268137   7.405   2.228  10.806
22102SOL     OW68138   5.277   8.798   9.897
22102SOL    HW168139   5.371   8.779   9.900
22102SOL    HW268140   5.247   8.759   9.816
22103SOL     OW68141   0.920   8.173   9.274
22103SOL    HW168142   0.966   8.120   9.339
22103SOL    HW268143   0.910   8.116   9.198
22104SOL     OW68144   6.042   5.455   3.348
22104SOL    HW168145   5.998   5.382   3.304
22104SOL    HW268146   5.990   5.469   3.427
22105SOL     OW68147   1.109  10.918  13.636
22105SOL    HW168148   1.200  10.931  13.610
22105SOL    HW268149   1.078  10.847  13.580
22106SOL     OW68150  14.282  10.352   6.461
22106SOL    HW168151  14.251  10.372   6.550
22106SOL    HW268152  14.203  10.327   6.414
22107SOL     OW68153   1.822  10.966   2.122
22107SOL    HW168154   1.769  10.899   2.078
22107SOL    HW268155   1.841  11.030   2.055
22108SOL     OW68156   4.999   5.370  13.395
22108SOL    HW168157   5.085   5.400  13.426
22108SOL    HW268158   4.950   5.350  13.474
22109SOL     OW68159  12.303   2.084  10.362
22109SOL    HW168160  12.350   2.126  10.290
22109SOL    HW268161  12.211   2.105  10.345
22110SOL     OW68162   7.016   5.334   6.022
22110SOL    HW168163   7.103   5.301   5.998
22110SOL    HW268164   6.987   5.276   6.093
22111SOL     OW68165  14.184   7.835   2.197
22111SOL    HW168166  14.222   7.839   2.284
22111SOL    HW268167  14.247   7.878   2.140
22112SOL     OW68168  11.797  13.698   7.647
22112SOL    HW168169  11.861  13.627   7.652
22112SOL    HW268170  11.777  13.706   7.554
22113SOL     OW68171   5.466   5.504  13.638
22113SOL    HW168172   5.560   5.512  13.619
22113SOL    HW268173   5.461   5.435  13.704
22114SOL     OW68174   9.757   3.042   7.320
22114SOL    HW168175   9.815   2.983   7.271
22114SOL    HW268176   9.709   3.089   7.252
22115SOL     OW68177  10.500  12.666  12.050
22115SOL    HW168178  10.488  12.755  12.017
22115SOL    HW268179  10.437  12.613  12.000
22116SOL     OW68180  10.269   4.331  14.403
22116SOL    HW168181  10.354   4.287  14.404
22116SOL    HW268182  10.249   4.345  14.496
22117SOL     OW68183   8.934   6.532  10.868
22117SOL    HW168184   8.983   6.583  10.804
22117SOL    HW268185   8.999   6.477  10.910
22118SOL     OW68186  13.205   3.171   5.902
22118SOL    HW168187  13.121   3.203   5.934
22118SOL    HW268188  13.247   3.246   5.861
22119SOL     OW68189   0.235   9.043   0.350
22119SOL    HW168190   0.319   9.025   0.392
22119SOL    HW268191   0.187   8.960   0.356
22120SOL     OW68192  12.102   3.666   2.355
22120SOL    HW168193  12.196   3.684   2.355
22120SOL    HW268194  12.061   3.752   2.350
22121SOL     OW68195   6.030   5.697  14.052
22121SOL    HW168196   6.091   5.770  14.043
22121SOL    HW268197   6.069   5.627  14.000
22122SOL     OW68198   6.675   2.715   4.992
22122SOL    HW168199   6.646   2.743   5.079
22122SOL    HW268200   6.599   2.732   4.935
22123SOL     OW68201  10.059   9.629   6.019
22123SOL    HW168202  10.050   9.706   5.964
22123SOL    HW268203  10.011   9.560   5.973
22124SOL     OW68204   0.755  10.571  13.967
22124SOL    HW168205   0.810  10.548  13.892
22124SOL    HW268206   0.788  10.516  14.039
22125SOL     OW68207  11.064   9.284   7.668
22125SOL    HW168208  10.975   9.295   7.703
22125SOL    HW268209  11.091   9.373   7.643
22126SOL     OW68210   3.853   7.952  11.289
22126SOL    HW168211   3.768   7.994  11.274
22126SOL    HW268212   3.895   8.004  11.357
22127SOL     OW68213   3.962  13.487   9.559
22127SOL    HW168214   3.980  13.466   9.651
22127SOL    HW268215   3.871  13.515   9.558
22128SOL     OW68216  13.373  12.622   1.707
22128SOL    HW168217  13.385  12.691   1.771
22128SOL    HW268218  13.355  12.544   1.759
22129SOL     OW68219   2.381  10.601   8.226
22129SOL    HW168220   2.345  10.618   8.139
22129SOL    HW268221   2.376  10.506   8.235
22130SOL     OW68222   0.435   0.731   5.203
22130SOL    HW168223   0.505   0.669   5.184
22130SOL    HW268224   0.397   0.700   5.286
22131SOL     OW68225   6.049   7.034   0.102
22131SOL    HW168226   6.113   7.043   0.032
22131SOL    HW268227   6.056   6.943   0.129
22132SOL     OW68228  11.177   8.792  14.661
22132SOL    HW168229  11.233   8.778  14.738
22132SOL    HW268230  11.238   8.806  14.589
22133SOL     OW68231   3.656   8.635  10.808
22133SOL    HW168232   3.589   8.651  10.742
22133SOL    HW268233   3.635   8.697  10.879
22134SOL     OW68234   1.140  13.476   4.211
22134SOL    HW168235   1.137  13.451   4.303
22134SOL    HW268236   1.061  13.528   4.197
22135SOL     OW68237   9.636  10.932  12.556
22135SOL    HW168238   9.627  10.988  12.633
22135SOL    HW268239   9.546  10.917  12.527
22136SOL     OW68240   9.735   7.135  12.380
22136SOL    HW168241   9.739   7.212  12.323
22136SOL    HW268242   9.710   7.063  12.322
22137SOL     OW68243  10.067   8.352  11.457
22137SOL    HW168244  10.023   8.339  11.373
22137SOL    HW268245  10.018   8.422  11.500
22138SOL     OW68246   3.913   4.467   3.777
22138SOL    HW168247   3.923   4.378   3.810
22138SOL    HW268248   3.972   4.519   3.831
22139SOL     OW68249   2.133   2.544   8.347
22139SOL    HW168250   2.211   2.528   8.400
22139SOL    HW268251   2.159   2.522   8.257
22140SOL     OW68252   7.035  10.442   1.890
22140SOL    HW168253   7.124  10.477   1.888
22140SOL    HW268254   7.036  10.377   1.959
22141SOL     OW68255  12.610  12.503  10.472
22141SOL    HW168256  12.646  12.415  10.482
22141SOL    HW268257  12.687  12.560  10.463
22142SOL     OW68258   3.030  11.640  12.244
22142SOL    HW168259   3.118  11.677  12.251
22142SOL    HW268260   3.043  11.546  12.242
22143SOL     OW68261   7.610   3.575  12.382
22143SOL    HW168262   7.650   3.661  12.373
22143SOL    HW268263   7.525   3.592  12.424
22144SOL     OW68264   7.728  13.552   6.277
22144SOL    HW168265   7.823  13.539   6.275
22144SOL    HW268266   7.692  13.463   6.276
22145SOL     OW68267   4.006   7.342   4.021
22145SOL    HW168268   4.015   7.435   3.998
22145SOL    HW268269   3.968   7.343   4.109
22146SOL     OW68270   0.515  11.038  11.088
22146SOL    HW168271   0.438  11.094  11.099
22146SOL    HW268272   0.581  11.075  11.146
22147SOL     OW68273   5.656   5.825   5.823
22147SOL    HW168274   5.603   5.888   5.872
22147SOL    HW268275   5.625   5.832   5.733
22148SOL     OW68276   0.590   5.886   7.003
22148SOL    HW168277   0.594   5.812   6.942
22148SOL    HW268278   0.605   5.847   7.089
22149SOL     OW68279  13.228  11.394   0.648
22149SOL    HW168280  13.138  11.361   0.654
22149SOL    HW268281  13.223  11.482   0.687
22150SOL     OW68282   7.967  11.736   6.121
22150SOL    HW168283   7.958  11.684   6.041
22150SOL    HW268284   7.961  11.672   6.192
22151SOL     OW68285  13.988   2.282   3.978
22151SOL    HW168286  14.015   2.206   3.926
22151SOL    HW268287  13.919   2.322   3.926
22152SOL     OW68288   7.506   8.486   1.719
22152SOL    HW168289   7.586   8.476   1.770
22152SOL    HW268290   7.437   8.490   1.785
22153SOL     OW68291  14.593   4.411   6.934
22153SOL    HW168292  14.535   4.334   6.942
22153SOL    HW268293  14.670   4.388   6.986
22154SOL     OW68294  12.636   6.149   9.961
22154SOL    HW168295  12.613   6.080   9.900
22154SOL    HW268296  12.679   6.104  10.034
22155SOL     OW68297  10.270   0.155  13.889
22155SOL    HW168298  10.223   0.102  13.954
22155SOL    HW268299  10.351   0.108  13.872
22156SOL     OW68300   4.003  13.221  10.344
22156SOL    HW168301   3.992  13.309  10.380
22156SOL    HW268302   3.979  13.230  10.252
22157SOL     OW68303  11.751  13.004   9.671
22157SOL    HW168304  11.779  12.932   9.728
22157SOL    HW268305  11.727  13.074   9.732
22158SOL     OW68306   2.878   3.490   2.064
22158SOL    HW168307   2.963   3.482   2.019
22158SOL    HW268308   2.814   3.494   1.994
22159SOL     OW68309  13.148   8.133   5.984
22159SOL    HW168310  13.136   8.044   5.951
22159SOL    HW268311  13.131   8.189   5.908
22160SOL     OW68312   1.566   7.905   2.223
22160SOL    HW168313   1.594   7.852   2.148
22160SOL    HW268314   1.590   7.995   2.199
22161SOL     OW68315   2.741  13.826   4.711
22161SOL    HW168316   2.692  13.827   4.629
22161SOL    HW268317   2.770  13.917   4.722
22162SOL     OW68318   0.671   4.787   7.088
22162SOL    HW168319   0.720   4.779   7.006
22162SOL    HW268320   0.652   4.697   7.114
22163SOL     OW68321   4.787   6.278   6.520
22163SOL    HW168322   4.704   6.326   6.514
22163SOL    HW268323   4.833   6.299   6.439
22164SOL     OW68324   2.328   9.278  11.175
22164SOL    HW168325   2.305   9.274  11.267
22164SOL    HW268326   2.392   9.207  11.163
22165SOL     OW68327   7.563   5.640   0.180
22165SOL    HW168328   7.482   5.690   0.194
22165SOL    HW268329   7.573   5.588   0.259
22166SOL     OW68330   1.029   1.512   7.545
22166SOL    HW168331   1.031   1.423   7.580
22166SOL    HW268332   1.008   1.567   7.620
22167SOL     OW68333   8.627  11.426   1.460
22167SOL    HW168334   8.670  11.340   1.462
22167SOL    HW268335   8.689  11.484   1.503
22168SOL     OW68336   9.478   5.670   4.608
22168SOL    HW168337   9.387   5.683   4.583
22168SOL    HW268338   9.528   5.712   4.537
22169SOL     OW68339   0.600   6.107   6.615
22169SOL    HW168340   0.650   6.168   6.670
22169SOL    HW268341   0.600   6.147   6.528
22170SOL     OW68342   4.140  13.446   9.310
22170SOL    HW168343   4.152  13.355   9.338
22170SOL    HW268344   4.142  13.497   9.392
22171SOL     OW68345   8.837  10.613   8.376
22171SOL    HW168346   8.839  10.532   8.325
22171SOL    HW268347   8.747  10.620   8.407
22172SOL     OW68348   2.314   3.712   4.506
22172SOL    HW168349   2.318   3.755   4.591
22172SOL    HW268350   2.255   3.637   4.520
22173SOL     OW68351  11.587   2.250  14.501
22173SOL    HW168352  11.665   2.305  14.493
22173SOL    HW268353  11.615   2.164  14.472
22174SOL     OW68354   8.475  11.658   8.989
22174SOL    HW168355   8.470  11.681   8.896
22174SOL    HW268356   8.562  11.686   9.017
22175SOL     OW68357   1.574   9.599   1.752
22175SOL    HW168358   1.670   9.594   1.744
22175SOL    HW268359   1.558   9.611   1.846
22176SOL     OW68360   7.003   5.049   2.403
22176SOL    HW168361   6.978   5.139   2.423
22176SOL    HW268362   7.088   5.037   2.446
22177SOL     OW68363   2.831  14.361   3.659
22177SOL    HW168364   2.889  14.438   3.662
22177SOL    HW268365   2.866  14.308   3.587
22178SOL     OW68366  11.103   3.002  13.210
22178SOL    HW168367  11.190   3.040  13.224
22178SOL    HW268368  11.082   3.023  13.119
22179SOL     OW68369   9.577   1.181   3.593
22179SOL    HW168370   9.564   1.267   3.632
22179SOL    HW268371   9.525   1.184   3.512
22180SOL     OW68372   1.682   5.100   7.291
22180SOL    HW168373   1.611   5.106   7.227
22180SOL    HW268374   1.746   5.042   7.250
22181SOL     OW68375  11.801   7.570  14.042
22181SOL    HW168376  11.836   7.616  14.118
22181SOL    HW268377  11.853   7.490  14.036
22182SOL     OW68378  14.435   7.592   1.725
22182SOL    HW168379  14.452   7.635   1.808
22182SOL    HW268380  14.519   7.556   1.698
22183SOL     OW68381   4.270   1.225   6.520
22183SOL    HW168382   4.289   1.318   6.510
22183SOL    HW268383   4.277   1.209   6.614
22184SOL     OW68384  10.268  12.828   5.508
22184SOL    HW168385  10.203  12.884   5.465
22184SOL    HW268386  10.266  12.747   5.458
22185SOL     OW68387   0.607   4.856   0.958
22185SOL    HW168388   0.520   4.880   0.925
22185SOL    HW268389   0.662   4.931   0.937
22186SOL     OW68390   6.655   3.299  13.663
22186SOL    HW168391   6.732   3.243  13.646
22186SOL    HW268392   6.681   3.353  13.737
22187SOL     OW68393  11.359   2.555   4.582
22187SOL    HW168394  11.339   2.602   4.502
22187SOL    HW268395  11.451   2.530   4.574
22188SOL     OW68396  12.921   5.412   7.585
22188SOL    HW168397  12.931   5.349   7.514
22188SOL    HW268398  12.836   5.392   7.623
22189SOL     OW68399   5.411  11.832   4.832
22189SOL    HW168400   5.350  11.883   4.779
22189SOL    HW268401   5.375  11.744   4.832
22190SOL     OW68402   0.497  10.785   6.556
22190SOL    HW168403   0.565  10.824   6.501
22190SOL    HW268404   0.517  10.691   6.557
22191SOL     OW68405  10.512  10.707   1.127
22191SOL    HW168406  10.546  10.678   1.211
22191SOL    HW268407  10.585  10.697   1.066
22192SOL     OW68408   0.432  14.752   9.330
22192SOL    HW168409   0.365  14.750   9.261
22192SOL    HW268410   0.502  14.807   9.295
22193SOL     OW68411   8.148   2.266   6.743
22193SOL    HW168412   8.151   2.177   6.708
22193SOL    HW268413   8.126   2.321   6.668
22194SOL     OW68414  12.126   4.910  12.272
22194SOL    HW168415  12.034   4.887  12.257
22194SOL    HW268416  12.145   4.975  12.205
22195SOL     OW68417   7.824   7.463   1.055
22195SOL    HW168418   7.791   7.497   0.972
22195SOL    HW268419   7.808   7.534   1.118
22196SOL     OW68420  13.482   6.045  12.723
22196SOL    HW168421  13.480   6.052  12.818
22196SOL    HW268422  13.391   6.034  12.697
22197SOL     OW68423  10.307  12.130   0.969
22197SOL    HW168424  10.323  12.173   1.053
22197SOL    HW268425  10.383  12.073   0.956
22198SOL     OW68426   2.961  11.562   7.764
22198SOL    HW168427   2.913  11.508   7.702
22198SOL    HW268428   2.892  11.605   7.816
22199SOL     OW68429  12.621  12.957   0.954
22199SOL    HW168430  12.653  12.893   1.018
22199SOL    HW268431  12.645  12.921   0.869
22200SOL     OW68432   5.476   1.743  11.620
22200SOL    HW168433   5.483   1.816  11.682
22200SOL    HW268434   5.550   1.756  11.560
22201SOL     OW68435  10.184   1.407  12.291
22201SOL    HW168436  10.156   1.316  12.279
22201SOL    HW268437  10.106   1.451  12.326
22202SOL     OW68438  14.418   4.048   8.193
22202SOL    HW168439  14.466   3.985   8.247
22202SOL    HW268440  14.455   4.133   8.215
22203SOL     OW68441  14.323  13.455  10.024
22203SOL    HW168442  14.335  13.380  10.083
22203SOL    HW268443  14.278  13.520  10.077
22204SOL     OW68444  10.703   8.498  13.214
22204SOL    HW168445  10.659   8.417  13.191
22204SOL    HW268446  10.683   8.557  13.141
22205SOL     OW68447   7.129   3.309  10.575
22205SOL    HW168448   7.134   3.222  10.536
22205SOL    HW268449   7.122   3.293  10.669
22206SOL     OW68450   9.502  14.101   5.088
22206SOL    HW168451   9.426  14.143   5.048
22206SOL    HW268452   9.497  14.010   5.059
22207SOL     OW68453  12.658  10.005   2.242
22207SOL    HW168454  12.578  10.049   2.272
22207SOL    HW268455  12.628   9.925   2.201
22208SOL     OW68456   2.524   5.017  11.401
22208SOL    HW168457   2.560   4.946  11.454
22208SOL    HW268458   2.453   4.976  11.351
22209SOL     OW68459   4.234   0.540  11.575
22209SOL    HW168460   4.229   0.605  11.645
22209SOL    HW268461   4.314   0.560  11.528
22210SOL     OW68462   2.083   4.477   0.011
22210SOL    HW168463   2.030   4.557   0.012
22210SOL    HW268464   2.038   4.419   0.072
22211SOL     OW68465  12.248   2.353  12.750
22211SOL    HW168466  12.240   2.443  12.782
22211SOL    HW268467  12.291   2.306  12.822
22212SOL     OW68468  11.446  11.291  11.491
22212SOL    HW168469  11.377  11.236  11.529
22212SOL    HW268470  11.457  11.363  11.553
22213SOL     OW68471   8.292   5.065   5.116
22213SOL    HW168472   8.303   5.147   5.164
22213SOL    HW268473   8.381   5.028   5.109
22214SOL     OW68474   3.796   9.932   8.212
22214SOL    HW168475   3.787   9.972   8.125
22214SOL    HW268476   3.838   9.848   8.195
22215SOL     OW68477   2.662   8.768  10.518
22215SOL    HW168478   2.583   8.730  10.478
22215SOL    HW268479   2.629   8.843  10.567
22216SOL     OW68480   1.930   1.974   0.275
22216SOL    HW168481   1.974   2.037   0.218
22216SOL    HW268482   1.991   1.958   0.347
22217SOL     OW68483   9.178   3.170   7.110
22217SOL    HW168484   9.252   3.128   7.153
22217SOL    HW268485   9.202   3.263   7.104
22218SOL     OW68486   2.188   3.181   4.749
22218SOL    HW168487   2.111   3.229   4.718
22218SOL    HW268488   2.239   3.245   4.799
22219SOL     OW68489   9.991   9.416   3.929
22219SOL    HW168490   9.959   9.436   4.017
22219SOL    HW268491   9.983   9.498   3.881
22220SOL     OW68492   9.527  13.150   1.860
22220SOL    HW168493   9.550  13.130   1.769
22220SOL    HW268494   9.450  13.096   1.878
22221SOL     OW68495   7.352   4.866  14.119
22221SOL    HW168496   7.262   4.899  14.112
22221SOL    HW268497   7.377   4.844  14.029
22222SOL     OW68498   8.037  10.127  12.713
22222SOL    HW168499   8.060  10.122  12.806
22222SOL    HW268500   7.994  10.044  12.695
22223SOL     OW68501  13.778  14.418   2.521
22223SOL    HW168502  13.792  14.373   2.605
22223SOL    HW268503  13.851  14.480   2.515
22224SOL     OW68504   8.922   0.344   9.782
22224SOL    HW168505   8.868   0.369   9.707
22224SOL    HW268506   8.893   0.256   9.804
22225SOL     OW68507   4.975   7.861   5.782
22225SOL    HW168508   5.011   7.944   5.752
22225SOL    HW268509   4.885   7.862   5.752
22226SOL     OW68510   7.721   5.472   3.554
22226SOL    HW168511   7.693   5.557   3.588
22226SOL    HW268512   7.808   5.488   3.518
22227SOL     OW68513   3.136   9.661   3.244
22227SOL    HW168514   3.141   9.717   3.322
22227SOL    HW268515   3.208   9.692   3.188
22228SOL     OW68516   4.302   4.071   2.982
22228SOL    HW168517   4.292   4.165   2.963
22228SOL    HW268518   4.395   4.054   2.971
22229SOL     OW68519   8.569   5.107   1.516
22229SOL    HW168520   8.660   5.082   1.505
22229SOL    HW268521   8.537   5.122   1.427
22230SOL     OW68522   6.391  13.411   8.460
22230SOL    HW168523   6.319  13.409   8.524
22230SOL    HW268524   6.347  13.405   8.375
22231SOL     OW68525  13.123   8.508   3.218
22231SOL    HW168526  13.052   8.573   3.218
22231SOL    HW268527  13.080   8.426   3.194
22232SOL     OW68528  13.343   6.354   1.669
22232SOL    HW168529  13.248   6.359   1.685
22232SOL    HW268530  13.368   6.268   1.704
22233SOL     OW68531  10.411   1.529   1.516
22233SOL    HW168532  10.318   1.543   1.530
22233SOL    HW268533  10.441   1.609   1.472
22234SOL     OW68534   2.293   5.038   2.710
22234SOL    HW168535   2.272   5.030   2.803
22234SOL    HW268536   2.209   5.027   2.665
22235SOL     OW68537  12.665   1.376   5.112
22235SOL    HW168538  12.692   1.419   5.031
22235SOL    HW268539  12.571   1.362   5.101
22236SOL     OW68540  11.661   6.240  13.150
22236SOL    HW168541  11.596   6.194  13.097
22236SOL    HW268542  11.692   6.174  13.212
22237SOL     OW68543   3.623  12.587  13.094
22237SOL    HW168544   3.712  12.555  13.080
22237SOL    HW268545   3.615  12.597  13.188
22238SOL     OW68546   2.388   0.483   8.492
22238SOL    HW168547   2.333   0.501   8.568
22238SOL    HW268548   2.438   0.563   8.479
22239SOL     OW68549  12.463   0.807   8.051
22239SOL    HW168550  12.475   0.734   8.112
22239SOL    HW268551  12.404   0.773   7.984
22240SOL     OW68552  12.898   4.235   2.143
22240SOL    HW168553  12.976   4.254   2.196
22240SOL    HW268554  12.925   4.258   2.054
22241SOL     OW68555   7.803   6.718  14.345
22241SOL    HW168556   7.722   6.770  14.349
22241SOL    HW268557   7.809   6.677  14.431
22242SOL     OW68558   3.434   1.857  10.800
22242SOL    HW168559   3.367   1.868  10.733
22242SOL    HW268560   3.516   1.876  10.756
22243SOL     OW68561  12.699   1.376   4.844
22243SOL    HW168562  12.762   1.409   4.780
22243SOL    HW268563  12.620   1.427   4.827
22244SOL     OW68564  12.875   6.932   2.151
22244SOL    HW168565  12.891   6.870   2.080
22244SOL    HW268566  12.963   6.960   2.178
22245SOL     OW68567   5.078   1.541   9.053
22245SOL    HW168568   5.081   1.446   9.046
22245SOL    HW268569   5.124   1.561   9.135
22246SOL     OW68570  11.173   2.094   7.428
22246SOL    HW168571  11.209   2.016   7.471
22246SOL    HW268572  11.195   2.082   7.335
22247SOL     OW68573   2.926  12.286  12.793
22247SOL    HW168574   3.021  12.298  12.790
22247SOL    HW268575   2.914  12.191  12.794
22248SOL     OW68576   8.293   8.492   0.028
22248SOL    HW168577   8.333   8.426   0.086
22248SOL    HW268578   8.221   8.529   0.079
22249SOL     OW68579   2.049  13.433   9.644
22249SOL    HW168580   2.047  13.339   9.664
22249SOL    HW268581   2.138  13.460   9.666
22250SOL     OW68582  14.208   7.095   6.289
22250SOL    HW168583  14.295   7.063   6.314
22250SOL    HW268584  14.155   7.086   6.368
22251SOL     OW68585  10.868   3.608   0.173
22251SOL    HW168586  10.947   3.623   0.122
22251SOL    HW268587  10.796   3.621   0.111
22252SOL     OW68588  13.342   7.266   5.457
22252SOL    HW168589  13.406   7.324   5.499
22252SOL    HW268590  13.343   7.292   5.365
22253SOL     OW68591   0.580   8.772   6.449
22253SOL    HW168592   0.603   8.820   6.369
22253SOL    HW268593   0.515   8.708   6.421
22254SOL     OW68594  10.687   6.913   7.132
22254SOL    HW168595  10.606   6.954   7.101
22254SOL    HW268596  10.707   6.959   7.214
22255SOL     OW68597   6.960   8.285   3.572
22255SOL    HW168598   6.917   8.202   3.553
22255SOL    HW268599   6.983   8.279   3.665
22256SOL     OW68600   4.328  12.661  10.749
22256SOL    HW168601   4.379  12.651  10.669
22256SOL    HW268602   4.266  12.731  10.730
22257SOL     OW68603  14.559   5.648   1.055
22257SOL    HW168604  14.638   5.595   1.042
22257SOL    HW268605  14.537   5.679   0.967
22258SOL     OW68606  14.655  14.589   5.110
22258SOL    HW168607  14.624  14.662   5.056
22258SOL    HW268608  14.649  14.513   5.053
22259SOL     OW68609   1.115  13.667   3.977
22259SOL    HW168610   1.114  13.762   3.990
22259SOL    HW268611   1.205  13.641   3.992
22260SOL     OW68612   5.781  11.382   9.572
22260SOL    HW168613   5.865  11.369   9.616
22260SOL    HW268614   5.725  11.313   9.608
22261SOL     OW68615   1.856   2.055   9.084
22261SOL    HW168616   1.833   2.120   9.150
22261SOL    HW268617   1.797   2.073   9.011
22262SOL     OW68618   7.248   7.961  12.465
22262SOL    HW168619   7.167   7.923  12.432
22262SOL    HW268620   7.317   7.904  12.431
22263SOL     OW68621  12.706   7.945   7.305
22263SOL    HW168622  12.702   8.013   7.373
22263SOL    HW268623  12.638   7.882   7.330
22264SOL     OW68624   4.011   2.820   8.301
22264SOL    HW168625   3.969   2.745   8.343
22264SOL    HW268626   4.101   2.791   8.286
22265SOL     OW68627  10.615  11.488  11.192
22265SOL    HW168628  10.664  11.488  11.274
22265SOL    HW268629  10.526  11.511  11.216
22266SOL     OW68630   2.224  10.229   1.243
22266SOL    HW168631   2.294  10.166   1.226
22266SOL    HW268632   2.146  10.188   1.207
22267SOL     OW68633   8.974   1.960   7.533
22267SOL    HW168634   9.054   1.975   7.584
22267SOL    HW268635   8.993   1.883   7.481
22268SOL     OW68636   9.742  12.250   9.874
22268SOL    HW168637   9.749  12.345   9.886
22268SOL    HW268638   9.818  12.214   9.919
22269SOL     OW68639   9.855   5.951   6.012
22269SOL    HW168640   9.936   5.925   5.969
22269SOL    HW268641   9.788   5.942   5.944
22270SOL     OW68642  14.002   4.875   7.463
22270SOL    HW168643  14.028   4.857   7.553
22270SOL    HW268644  14.053   4.953   7.439
22271SOL     OW68645   6.759   8.207   9.529
22271SOL    HW168646   6.701   8.211   9.452
22271SOL    HW268647   6.847   8.204   9.492
22272SOL     OW68648   6.582  11.855  12.344
22272SOL    HW168649   6.647  11.861  12.274
22272SOL    HW268650   6.632  11.827  12.421
22273SOL     OW68651   7.151   3.391   1.268
22273SOL    HW168652   7.210   3.436   1.328
22273SOL    HW268653   7.074   3.370   1.321
22274SOL     OW68654   1.285   7.163   3.015
22274SOL    HW168655   1.348   7.178   3.085
22274SOL    HW268656   1.338   7.147   2.937
22275SOL     OW68657   1.736   4.078  10.049
22275SOL    HW168658   1.654   4.030  10.051
22275SOL    HW268659   1.717   4.161  10.094
22276SOL     OW68660   8.328   8.906  10.994
22276SOL    HW168661   8.412   8.908  11.039
22276SOL    HW268662   8.332   8.980  10.932
22277SOL     OW68663  14.063   3.865  10.633
22277SOL    HW168664  14.097   3.777  10.649
22277SOL    HW268665  14.123   3.923  10.680
22278SOL     OW68666   7.169  10.089   0.852
22278SOL    HW168667   7.155  10.001   0.889
22278SOL    HW268668   7.170  10.147   0.928
22279SOL     OW68669   9.731   5.260   2.134
22279SOL    HW168670   9.690   5.271   2.220
22279SOL    HW268671   9.684   5.320   2.077
22280SOL     OW68672   7.131   6.767  14.496
22280SOL    HW168673   7.149   6.726  14.412
22280SOL    HW268674   7.217   6.773  14.539
22281SOL     OW68675  13.588  10.447   7.960
22281SOL    HW168676  13.562  10.539   7.964
22281SOL    HW268677  13.568  10.422   7.870
22282SOL     OW68678   1.977  14.531   5.492
22282SOL    HW168679   1.925  14.522   5.413
22282SOL    HW268680   1.946  14.460   5.549
22283SOL     OW68681   5.487  10.068   0.310
22283SOL    HW168682   5.518   9.978   0.321
22283SOL    HW268683   5.400  10.059   0.272
22284SOL     OW68684   4.621   0.644  14.636
22284SOL    HW168685   4.530   0.673  14.640
22284SOL    HW268686   4.624   0.566  14.692
22285SOL     OW68687  12.018  14.094   3.148
22285SOL    HW168688  12.082  14.142   3.201
22285SOL    HW268689  11.955  14.161   3.120
22286SOL     OW68690   2.443   8.701   6.263
22286SOL    HW168691   2.363   8.754   6.260
22286SOL    HW268692   2.413   8.613   6.284
22287SOL     OW68693  12.535   9.087   7.682
22287SOL    HW168694  12.563   9.126   7.765
22287SOL    HW268695  12.602   9.023   7.661
22288SOL     OW68696   1.178  12.764  11.956
22288SOL    HW168697   1.190  12.689  11.897
22288SOL    HW268698   1.153  12.725  12.040
22289SOL     OW68699   5.892   2.986   9.173
22289SOL    HW168700   5.888   3.069   9.220
22289SOL    HW268701   5.800   2.965   9.154
22290SOL     OW68702  11.506   2.245  13.656
22290SOL    HW168703  11.433   2.231  13.716
22290SOL    HW268704  11.563   2.307  13.702
22291SOL     OW68705   6.347   1.607  11.751
22291SOL    HW168706   6.346   1.552  11.829
22291SOL    HW268707   6.346   1.546  11.678
22292SOL     OW68708   8.458  11.991  11.742
22292SOL    HW168709   8.494  11.914  11.786
22292SOL    HW268710   8.531  12.053  11.738
22293SOL     OW68711   3.516   7.757   7.212
22293SOL    HW168712   3.550   7.761   7.301
22293SOL    HW268713   3.464   7.676   7.210
22294SOL     OW68714   2.663  13.292   6.769
22294SOL    HW168715   2.579  13.334   6.755
22294SOL    HW268716   2.647  13.199   6.750
22295SOL     OW68717  13.659   6.152   7.765
22295SOL    HW168718  13.604   6.075   7.780
22295SOL    HW268719  13.692   6.175   7.852
22296SOL     OW68720   5.132  14.402   4.938
22296SOL    HW168721   5.066  14.334   4.943
22296SOL    HW268722   5.130  14.431   4.847
22297SOL     OW68723   4.944  10.881   1.387
22297SOL    HW168724   5.024  10.832   1.407
22297SOL    HW268725   4.951  10.903   1.295
22298SOL     OW68726   6.636   3.109   1.347
22298SOL    HW168727   6.626   3.018   1.373
22298SOL    HW268728   6.663   3.154   1.427
22299SOL     OW68729   5.591   5.716  10.670
22299SOL    HW168730   5.653   5.757  10.731
22299SOL    HW268731   5.647   5.677  10.603
22300SOL     OW68732   4.246   0.859   7.149
22300SOL    HW168733   4.191   0.836   7.224
22300SOL    HW268734   4.189   0.914   7.094
22301SOL     OW68735  11.553  13.738   6.029
22301SOL    HW168736  11.486  13.794   6.068
22301SOL    HW268737  11.524  13.649   6.048
22302SOL     OW68738   1.145   5.087   1.534
22302SOL    HW168739   1.080   5.023   1.566
22302SOL    HW268740   1.224   5.035   1.521
22303SOL     OW68741  10.110  13.405   2.424
22303SOL    HW168742  10.195  13.406   2.469
22303SOL    HW268743  10.048  13.434   2.490
22304SOL     OW68744   4.040   8.339   1.921
22304SOL    HW168745   3.986   8.290   1.860
22304SOL    HW268746   4.099   8.391   1.866
22305SOL     OW68747  10.644   6.047  13.975
22305SOL    HW168748  10.677   6.136  13.985
22305SOL    HW268749  10.579   6.038  14.045
22306SOL     OW68750   9.306   4.029   3.536
22306SOL    HW168751   9.222   4.030   3.490
22306SOL    HW268752   9.282   4.015   3.628
22307SOL     OW68753   2.843   8.792   0.506
22307SOL    HW168754   2.858   8.879   0.544
22307SOL    HW268755   2.868   8.802   0.414
22308SOL     OW68756   2.994   2.958   4.205
22308SOL    HW168757   3.028   3.046   4.190
22308SOL    HW268758   2.899   2.970   4.215
22309SOL     OW68759  11.731   2.618  14.080
22309SOL    HW168760  11.684   2.700  14.064
22309SOL    HW268761  11.733   2.610  14.175
22310SOL     OW68762  11.519   0.695  12.896
22310SOL    HW168763  11.428   0.719  12.878
22310SOL    HW268764  11.557   0.773  12.934
22311SOL     OW68765   1.743  12.442   4.425
22311SOL    HW168766   1.816  12.504   4.424
22311SOL    HW268767   1.783  12.357   4.443
22312SOL     OW68768   7.361  13.789   4.056
22312SOL    HW168769   7.277  13.770   4.098
22312SOL    HW268770   7.359  13.740   3.974
22313SOL     OW68771   0.635   0.049   5.400
22313SOL    HW168772   0.702   0.115   5.381
22313SOL    HW268773   0.573   0.094   5.458
22314SOL     OW68774   3.465   5.515   2.203
22314SOL    HW168775   3.497   5.428   2.176
22314SOL    HW268776   3.371   5.512   2.186
22315SOL     OW68777   9.631  12.129   2.171
22315SOL    HW168778   9.655  12.164   2.086
22315SOL    HW268779   9.624  12.206   2.228
22316SOL     OW68780  10.734   9.003   8.481
22316SOL    HW168781  10.686   8.937   8.532
22316SOL    HW268782  10.755   9.071   8.545
22317SOL     OW68783   2.194   4.336   9.753
22317SOL    HW168784   2.263   4.292   9.704
22317SOL    HW268785   2.167   4.272   9.819
22318SOL     OW68786   7.407   0.177   3.634
22318SOL    HW168787   7.343   0.172   3.705
22318SOL    HW268788   7.355   0.172   3.554
22319SOL     OW68789   6.673  13.665  12.557
22319SOL    HW168790   6.581  13.686  12.540
22319SOL    HW268791   6.721  13.711  12.488
22320SOL     OW68792   9.741   9.595   2.684
22320SOL    HW168793   9.824   9.547   2.685
22320SOL    HW268794   9.703   9.579   2.770
22321SOL     OW68795   4.631  12.344   6.715
22321SOL    HW168796   4.634  12.251   6.693
22321SOL    HW268797   4.542  12.359   6.745
22322SOL     OW68798  10.701  10.004   6.709
22322SOL    HW168799  10.654  10.083   6.681
22322SOL    HW268800  10.646   9.931   6.679
22323SOL     OW68801   1.777   0.360   0.231
22323SOL    HW168802   1.693   0.320   0.206
22323SOL    HW268803   1.799   0.318   0.314
22324SOL     OW68804   0.162   5.848   2.974
22324SOL    HW168805   0.234   5.907   2.954
22324SOL    HW268806   0.192   5.762   2.946
22325SOL     OW68807   7.203  12.551   1.025
22325SOL    HW168808   7.296  12.550   1.047
22325SOL    HW268809   7.158  12.550   1.110
22326SOL     OW68810   5.034  11.630   9.932
22326SOL    HW168811   4.998  11.606   9.847
22326SOL    HW268812   4.984  11.578   9.995
22327SOL     OW68813   3.223   3.230   5.790
22327SOL    HW168814   3.162   3.283   5.842
22327SOL    HW268815   3.269   3.293   5.735
22328SOL     OW68816   1.244   8.100   3.082
22328SOL    HW168817   1.157   8.139   3.067
22328SOL    HW268818   1.241   8.017   3.035
22329SOL     OW68819   8.174   2.148   4.113
22329SOL    HW168820   8.180   2.161   4.018
22329SOL    HW268821   8.249   2.194   4.149
22330SOL     OW68822   8.474   5.779   4.804
22330SOL    HW168823   8.438   5.860   4.770
22330SOL    HW268824   8.468   5.788   4.899
22331SOL     OW68825   8.187   5.105   0.793
22331SOL    HW168826   8.223   5.167   0.730
22331SOL    HW268827   8.262   5.078   0.846
22332SOL     OW68828   4.942   5.417   1.434
22332SOL    HW168829   5.023   5.418   1.484
22332SOL    HW268830   4.878   5.376   1.494
22333SOL     OW68831   1.826   1.875   1.006
22333SOL    HW168832   1.815   1.838   1.094
22333SOL    HW268833   1.909   1.923   1.011
22334SOL     OW68834  13.089   9.609   3.989
22334SOL    HW168835  13.126   9.529   3.950
22334SOL    HW268836  13.052   9.657   3.915
22335SOL     OW68837  13.932   3.007   5.528
22335SOL    HW168838  14.021   3.007   5.565
22335SOL    HW268839  13.881   3.060   5.590
22336SOL     OW68840   3.875  12.895   8.534
22336SOL    HW168841   3.926  12.817   8.555
22336SOL    HW268842   3.869  12.943   8.616
22337SOL     OW68843   0.643   0.800   6.455
22337SOL    HW168844   0.587   0.750   6.513
22337SOL    HW268845   0.592   0.879   6.435
22338SOL     OW68846  12.311   4.116   7.732
22338SOL    HW168847  12.274   4.028   7.740
22338SOL    HW268848  12.318   4.147   7.822
22339SOL     OW68849   2.929   6.793   9.449
22339SOL    HW168850   2.911   6.882   9.478
22339SOL    HW268851   2.947   6.802   9.355
22340SOL     OW68852   6.979   2.623  12.576
22340SOL    HW168853   6.889   2.649  12.559
22340SOL    HW268854   7.028   2.654  12.500
22341SOL     OW68855   0.893   8.613  13.803
22341SOL    HW168856   0.966   8.607  13.742
22341SOL    HW268857   0.873   8.522  13.826
22342SOL     OW68858  10.862  12.301  14.285
22342SOL    HW168859  10.918  12.290  14.208
22342SOL    HW268860  10.773  12.298  14.250
22343SOL     OW68861   1.411  13.038   2.080
22343SOL    HW168862   1.430  12.985   2.157
22343SOL    HW268863   1.405  13.128   2.113
22344SOL     OW68864   5.037   0.036  14.377
22344SOL    HW168865   5.071  14.843  14.325
22344SOL    HW268866   5.106   0.055  14.440
22345SOL     OW68867   2.985  12.531   0.908
22345SOL    HW168868   3.079  12.548   0.912
22345SOL    HW268869   2.978  12.437   0.894
22346SOL     OW68870   7.013  13.687   7.586
22346SOL    HW168871   7.069  13.679   7.508
22346SOL    HW268872   7.022  13.779   7.612
22347SOL     OW68873   8.093   4.953   3.115
22347SOL    HW168874   8.109   4.934   3.022
22347SOL    HW268875   8.005   4.919   3.131
22348SOL     OW68876   4.311   8.964   6.580
22348SOL    HW168877   4.357   9.036   6.623
22348SOL    HW268878   4.380   8.914   6.537
22349SOL     OW68879   2.054   9.892   3.023
22349SOL    HW168880   2.133   9.841   3.006
22349SOL    HW268881   2.074   9.980   2.991
22350SOL     OW68882  11.617  12.463   7.243
22350SOL    HW168883  11.587  12.470   7.152
22350SOL    HW268884  11.710  12.441   7.235
22351SOL     OW68885   7.738   0.759   3.818
22351SOL    HW168886   7.732   0.809   3.737
22351SOL    HW268887   7.788   0.681   3.795
22352SOL     OW68888   0.906   8.051   3.852
22352SOL    HW168889   0.908   7.963   3.815
22352SOL    HW268890   0.861   8.042   3.936
22353SOL     OW68891   6.583  12.801   6.122
22353SOL    HW168892   6.634  12.865   6.172
22353SOL    HW268893   6.497  12.842   6.112
22354SOL     OW68894   0.165  11.578   6.791
22354SOL    HW168895   0.200  11.511   6.850
22354SOL    HW268896   0.233  11.645   6.789
22355SOL     OW68897   8.782   8.028  10.381
22355SOL    HW168898   8.730   7.975  10.442
22355SOL    HW268899   8.718   8.071  10.325
22356SOL     OW68900  11.976   0.026   1.033
22356SOL    HW168901  12.054  14.849   1.037
22356SOL    HW268902  12.010   0.112   1.005
22357SOL     OW68903  13.667  14.722   0.665
22357SOL    HW168904  13.752  14.735   0.707
22357SOL    HW268905  13.604  14.725   0.738
22358SOL     OW68906   9.615  14.360   6.080
22358SOL    HW168907   9.674  14.315   6.139
22358SOL    HW268908   9.602  14.300   6.007
22359SOL     OW68909   6.592   4.120   0.135
22359SOL    HW168910   6.642   4.202   0.133
22359SOL    HW268911   6.507   4.145   0.173
22360SOL     OW68912   4.958   0.030  10.772
22360SOL    HW168913   4.981   0.051  10.863
22360SOL    HW268914   4.862   0.025  10.773
22361SOL     OW68915  10.175  10.544  14.196
22361SOL    HW168916  10.136  10.483  14.134
22361SOL    HW268917  10.269  10.540  14.178
22362SOL     OW68918   6.582   9.998   6.867
22362SOL    HW168919   6.581   9.930   6.935
22362SOL    HW268920   6.579  10.081   6.916
22363SOL     OW68921  13.535  14.764  10.988
22363SOL    HW168922  13.624  14.737  11.010
22363SOL    HW268923  13.512  14.828  11.056
22364SOL     OW68924   4.113  10.840   1.930
22364SOL    HW168925   4.183  10.837   1.995
22364SOL    HW268926   4.158  10.850   1.846
22365SOL     OW68927   3.745  14.108   8.712
22365SOL    HW168928   3.732  14.042   8.780
22365SOL    HW268929   3.657  14.126   8.679
22366SOL     OW68930   9.855   0.748   0.358
22366SOL    HW168931   9.791   0.799   0.308
22366SOL    HW268932   9.823   0.658   0.352
22367SOL     OW68933   2.863   7.798   5.320
22367SOL    HW168934   2.884   7.861   5.250
22367SOL    HW268935   2.879   7.846   5.401
22368SOL     OW68936  11.851   3.907   6.744
22368SOL    HW168937  11.883   3.963   6.815
22368SOL    HW268938  11.755   3.912   6.751
22369SOL     OW68939   6.853   6.968  14.223
22369SOL    HW168940   6.803   6.888  14.240
22369SOL    HW268941   6.787   7.032  14.198
22370SOL     OW68942   6.109   6.455  11.398
22370SOL    HW168943   6.154   6.421  11.320
22370SOL    HW268944   6.035   6.504  11.363
22371SOL     OW68945  14.406   7.823  14.292
22371SOL    HW168946  14.398   7.769  14.214
22371SOL    HW268947  14.322   7.812  14.337
22372SOL     OW68948   6.707   9.959   7.561
22372SOL    HW168949   6.773  10.028   7.555
22372SOL    HW268950   6.701   9.924   7.472
22373SOL     OW68951  13.499   8.275   4.810
22373SOL    HW168952  13.479   8.304   4.721
22373SOL    HW268953  13.591   8.298   4.823
22374SOL     OW68954  10.649   6.661   0.071
22374SOL    HW168955  10.624   6.753   0.062
22374SOL    HW268956  10.672   6.652   0.164
22375SOL     OW68957   4.319   3.512  14.773
22375SOL    HW168958   4.278   3.432  14.805
22375SOL    HW268959   4.322   3.503  14.678
22376SOL     OW68960  11.653   6.535   3.140
22376SOL    HW168961  11.646   6.629   3.157
22376SOL    HW268962  11.604   6.522   3.060
22377SOL     OW68963  14.080  13.753   6.053
22377SOL    HW168964  14.114  13.771   5.965
22377SOL    HW268965  14.106  13.828   6.105
22378SOL     OW68966   9.005  10.528   3.864
22378SOL    HW168967   9.009  10.586   3.940
22378SOL    HW268968   9.003  10.440   3.902
22379SOL     OW68969   5.055   7.777   3.510
22379SOL    HW168970   4.961   7.778   3.492
22379SOL    HW268971   5.061   7.748   3.602
22380SOL     OW68972  14.678   1.408   4.166
22380SOL    HW168973  14.765   1.446   4.156
22380SOL    HW268974  14.629   1.474   4.216
22381SOL     OW68975   7.441   0.232  14.233
22381SOL    HW168976   7.381   0.165  14.201
22381SOL    HW268977   7.414   0.246  14.324
22382SOL     OW68978  14.383   9.269   4.839
22382SOL    HW168979  14.317   9.335   4.815
22382SOL    HW268980  14.412   9.296   4.926
22383SOL     OW68981   5.305   3.865  13.322
22383SOL    HW168982   5.274   3.847  13.234
22383SOL    HW268983   5.280   3.788  13.373
22384SOL     OW68984   8.035  14.335  14.542
22384SOL    HW168985   8.109  14.287  14.506
22384SOL    HW268986   8.007  14.392  14.470
22385SOL     OW68987   0.678   5.501   8.516
22385SOL    HW168988   0.683   5.519   8.610
22385SOL    HW268989   0.764   5.467   8.492
22386SOL     OW68990   7.595   6.210   0.106
22386SOL    HW168991   7.685   6.216   0.138
22386SOL    HW268992   7.545   6.265   0.166
22387SOL     OW68993   3.976  13.792  12.373
22387SOL    HW168994   4.049  13.838  12.332
22387SOL    HW268995   3.898  13.836  12.339
22388SOL     OW68996   8.986   1.842  12.635
22388SOL    HW168997   8.976   1.795  12.718
22388SOL    HW268998   9.025   1.926  12.660
22389SOL     OW68999  10.384   6.300   6.119
22389SOL    HW169000  10.323   6.272   6.052
22389SOL    HW269001  10.334   6.297   6.201
22390SOL     OW69002  11.132  12.267   9.905
22390SOL    HW169003  11.141  12.176   9.932
22390SOL    HW269004  11.219  12.304   9.916
22391SOL     OW69005   7.674   5.127  13.532
22391SOL    HW169006   7.701   5.093  13.618
22391SOL    HW269007   7.587   5.163  13.547
22392SOL     OW69008   3.957   4.056   6.094
22392SOL    HW169009   4.025   4.108   6.052
22392SOL    HW269010   3.958   4.085   6.185
22393SOL     OW69011   2.637  14.437  11.165
22393SOL    HW169012   2.658  14.426  11.072
22393SOL    HW269013   2.617  14.530  11.174
22394SOL     OW69014   5.362  12.362   0.136
22394SOL    HW169015   5.330  12.291   0.192
22394SOL    HW269016   5.419  12.414   0.193
22395SOL     OW69017   5.604   6.693   5.417
22395SOL    HW169018   5.697   6.674   5.408
22395SOL    HW269019   5.594   6.727   5.506
22396SOL     OW69020   9.097   0.630   5.567
22396SOL    HW169021   9.164   0.686   5.606
22396SOL    HW269022   9.082   0.667   5.480
22397SOL     OW69023  13.415   0.154  13.650
22397SOL    HW169024  13.442   0.185  13.564
22397SOL    HW269025  13.414   0.232  13.705
22398SOL     OW69026   9.276   7.992   5.363
22398SOL    HW169027   9.370   7.984   5.377
22398SOL    HW269028   9.267   8.023   5.273
22399SOL     OW69029   1.913   3.896   8.149
22399SOL    HW169030   1.905   3.913   8.242
22399SOL    HW269031   1.990   3.839   8.141
22400SOL     OW69032  10.201   4.083  13.955
22400SOL    HW169033  10.266   4.015  13.973
22400SOL    HW269034  10.125   4.058  14.009
22401SOL     OW69035  14.015  14.058   9.967
22401SOL    HW169036  13.963  13.984   9.998
22401SOL    HW269037  14.052  14.096  10.047
22402SOL     OW69038   6.225   6.377   3.367
22402SOL    HW169039   6.190   6.322   3.437
22402SOL    HW269040   6.320   6.370   3.377
22403SOL     OW69041  14.359  14.807   2.205
22403SOL    HW169042  14.391  14.756   2.131
22403SOL    HW269043  14.379   0.019   2.182
22404SOL     OW69044   7.592  14.735   0.928
22404SOL    HW169045   7.515  14.771   0.883
22404SOL    HW269046   7.556  14.691   1.004
22405SOL     OW69047   4.246   3.731   4.821
22405SOL    HW169048   4.317   3.689   4.871
22405SOL    HW269049   4.280   3.737   4.732
22406SOL     OW69050  10.590  13.756  13.044
22406SOL    HW169051  10.662  13.715  12.995
22406SOL    HW269052  10.588  13.708  13.127
22407SOL     OW69053   8.877  14.320   7.351
22407SOL    HW169054   8.813  14.349   7.416
22407SOL    HW269055   8.828  14.318   7.269
22408SOL     OW69056   2.517   5.500   9.530
22408SOL    HW169057   2.539   5.522   9.439
22408SOL    HW269058   2.600   5.511   9.578
22409SOL     OW69059  10.180   7.789   7.396
22409SOL    HW169060  10.258   7.763   7.444
22409SOL    HW269061  10.121   7.823   7.464
22410SOL     OW69062   5.289   9.610   5.662
22410SOL    HW169063   5.212   9.580   5.710
22410SOL    HW269064   5.342   9.531   5.651
22411SOL     OW69065  11.828  11.233   0.422
22411SOL    HW169066  11.833  11.280   0.505
22411SOL    HW269067  11.864  11.294   0.357
22412SOL     OW69068   2.537   2.308   7.389
22412SOL    HW169069   2.584   2.225   7.384
22412SOL    HW269070   2.445   2.284   7.380
22413SOL     OW69071  14.153   5.476   3.976
22413SOL    HW169072  14.152   5.551   4.037
22413SOL    HW269073  14.067   5.477   3.936
22414SOL     OW69074  10.283   0.392   6.543
22414SOL    HW169075  10.331   0.474   6.529
22414SOL    HW269076  10.345   0.337   6.591
22415SOL     OW69077   9.109   5.482  12.078
22415SOL    HW169078   9.086   5.466  12.169
22415SOL    HW269079   9.184   5.425  12.061
22416SOL     OW69080  13.757  14.293   9.254
22416SOL    HW169081  13.818  14.265   9.323
22416SOL    HW269082  13.673  14.303   9.299
22417SOL     OW69083   5.775   6.498  12.982
22417SOL    HW169084   5.719   6.570  13.012
22417SOL    HW269085   5.833   6.538  12.917
22418SOL     OW69086   5.257   8.799   1.931
22418SOL    HW169087   5.311   8.830   2.003
22418SOL    HW269088   5.301   8.720   1.899
22419SOL     OW69089  11.610  12.388   0.749
22419SOL    HW169090  11.656  12.336   0.815
22419SOL    HW269091  11.653  12.474   0.752
22420SOL     OW69092   4.394  14.344   0.959
22420SOL    HW169093   4.414  14.431   0.991
22420SOL    HW269094   4.468  14.321   0.903
22421SOL     OW69095   1.122  12.772   7.550
22421SOL    HW169096   1.045  12.723   7.524
22421SOL    HW269097   1.105  12.862   7.521
22422SOL     OW69098   7.497   2.109  14.493
22422SOL    HW169099   7.428   2.065  14.444
22422SOL    HW269100   7.498   2.199  14.459
22423SOL     OW69101  11.863   7.796   3.613
22423SOL    HW169102  11.802   7.730   3.646
22423SOL    HW269103  11.933   7.799   3.678
22424SOL     OW69104   5.523  11.344  11.350
22424SOL    HW169105   5.438  11.334  11.306
22424SOL    HW269106   5.554  11.254  11.363
22425SOL     OW69107  12.879  10.144  13.565
22425SOL    HW169108  12.858  10.098  13.483
22425SOL    HW269109  12.896  10.074  13.628
22426SOL     OW69110  10.974   7.260  13.269
22426SOL    HW169111  10.981   7.246  13.174
22426SOL    HW269112  11.063   7.280  13.297
22427SOL     OW69113   4.062  13.888   4.611
22427SOL    HW169114   4.008  13.821   4.652
22427SOL    HW269115   3.999  13.952   4.576
22428SOL     OW69116   2.543  12.190   6.192
22428SOL    HW169117   2.501  12.133   6.256
22428SOL    HW269118   2.521  12.279   6.221
22429SOL     OW69119   2.628  13.966   9.702
22429SOL    HW169120   2.611  13.992   9.611
22429SOL    HW269121   2.724  13.968   9.710
22430SOL     OW69122   2.276   9.777   5.828
22430SOL    HW169123   2.193   9.755   5.786
22430SOL    HW269124   2.336   9.708   5.801
22431SOL     OW69125   4.078   3.150   9.446
22431SOL    HW169126   4.170   3.164   9.423
22431SOL    HW269127   4.030   3.163   9.364
22432SOL     OW69128   4.913   4.037  10.555
22432SOL    HW169129   4.948   4.116  10.514
22432SOL    HW269130   4.925   3.969  10.489
22433SOL     OW69131   6.941   8.274   2.892
22433SOL    HW169132   6.921   8.331   2.967
22433SOL    HW269133   6.882   8.199   2.903
22434SOL     OW69134   3.138  10.262   2.085
22434SOL    HW169135   3.055  10.223   2.059
22434SOL    HW269136   3.131  10.354   2.059
22435SOL     OW69137  13.757  13.540   9.382
22435SOL    HW169138  13.822  13.472   9.400
22435SOL    HW269139  13.735  13.576   9.468
22436SOL     OW69140   0.969   5.716   9.695
22436SOL    HW169141   0.956   5.660   9.619
22436SOL    HW269142   1.058   5.696   9.725
22437SOL     OW69143   0.659  12.108   3.146
22437SOL    HW169144   0.564  12.099   3.149
22437SOL    HW269145   0.679  12.111   3.052
22438SOL     OW69146   0.043   1.113   3.085
22438SOL    HW169147  14.849   1.176   3.084
22438SOL    HW269148   0.037   1.068   3.001
22439SOL     OW69149   3.862  10.730  14.864
22439SOL    HW169150   3.800  10.707   0.054
22439SOL    HW269151   3.815  10.793  14.810
22440SOL     OW69152   5.468   1.466  14.845
22440SOL    HW169153   5.465   1.412  14.766
22440SOL    HW269154   5.549   1.517  14.836
22441SOL     OW69155  13.533  11.493   8.745
22441SOL    HW169156  13.510  11.429   8.678
22441SOL    HW269157  13.628  11.489   8.750
22442SOL     OW69158   8.733  13.431   5.485
22442SOL    HW169159   8.770  13.357   5.534
22442SOL    HW269160   8.808  13.468   5.438
22443SOL     OW69161  11.229   6.966   4.478
22443SOL    HW169162  11.307   6.917   4.504
22443SOL    HW269163  11.263   7.052   4.451
22444SOL     OW69164   0.907   9.590   2.529
22444SOL    HW169165   0.915   9.684   2.516
22444SOL    HW269166   0.844   9.580   2.600
22445SOL     OW69167  13.613   6.044   2.836
22445SOL    HW169168  13.525   6.020   2.864
22445SOL    HW269169  13.669   6.026   2.912
22446SOL     OW69170  14.029  10.057   7.103
22446SOL    HW169171  13.995  10.037   7.190
22446SOL    HW269172  14.096   9.990   7.088
22447SOL     OW69173   1.312   6.217   3.541
22447SOL    HW169174   1.330   6.214   3.447
22447SOL    HW269175   1.397   6.207   3.583
22448SOL     OW69176  12.022  11.017   6.298
22448SOL    HW169177  12.099  11.020   6.243
22448SOL    HW269178  11.970  11.094   6.274
22449SOL     OW69179   5.834  13.180   1.378
22449SOL    HW169180   5.874  13.095   1.360
22449SOL    HW269181   5.811  13.177   1.470
22450SOL     OW69182   3.501   7.627   0.731
22450SOL    HW169183   3.410   7.599   0.718
22450SOL    HW269184   3.493   7.713   0.772
22451SOL     OW69185   0.233   6.578  10.918
22451SOL    HW169186   0.312   6.590  10.865
22451SOL    HW269187   0.266   6.564  11.007
22452SOL     OW69188   1.625   9.114  12.692
22452SOL    HW169189   1.665   9.032  12.719
22452SOL    HW269190   1.543   9.088  12.649
22453SOL     OW69191   1.166   7.415   7.743
22453SOL    HW169192   1.234   7.349   7.755
22453SOL    HW269193   1.084   7.369   7.756
22454SOL     OW69194  10.155  11.399  13.432
22454SOL    HW169195  10.219  11.338  13.396
22454SOL    HW269196  10.208  11.474  13.461
22455SOL     OW69197   2.340   5.799   7.987
22455SOL    HW169198   2.390   5.881   7.985
22455SOL    HW269199   2.283   5.803   7.911
22456SOL     OW69200   7.231  11.975   7.466
22456SOL    HW169201   7.136  11.979   7.463
22456SOL    HW269202   7.260  12.043   7.406
22457SOL     OW69203  11.613   2.650   2.702
22457SOL    HW169204  11.571   2.645   2.787
22457SOL    HW269205  11.689   2.592   2.710
22458SOL     OW69206   4.442  13.891   4.479
22458SOL    HW169207   4.405  13.912   4.565
22458SOL    HW269208   4.399  13.951   4.418
22459SOL     OW69209   8.183   2.772  14.085
22459SOL    HW169210   8.149   2.859  14.067
22459SOL    HW269211   8.238   2.751  14.010
22460SOL     OW69212  11.049   4.242   2.115
22460SOL    HW169213  10.990   4.317   2.127
22460SOL    HW269214  11.101   4.265   2.038
22461SOL     OW69215   0.929   0.673   2.479
22461SOL    HW169216   0.951   0.702   2.567
22461SOL    HW269217   0.840   0.704   2.465
22462SOL     OW69218   6.404   8.724   3.497
22462SOL    HW169219   6.437   8.647   3.452
22462SOL    HW269220   6.356   8.772   3.430
22463SOL     OW69221   3.411   3.716   9.625
22463SOL    HW169222   3.421   3.656   9.551
22463SOL    HW269223   3.445   3.800   9.592
22464SOL     OW69224  13.279   0.994   2.477
22464SOL    HW169225  13.254   1.016   2.387
22464SOL    HW269226  13.301   0.901   2.474
22465SOL     OW69227   7.056  10.044  11.972
22465SOL    HW169228   7.147  10.024  11.995
22465SOL    HW269229   7.038  10.127  12.016
22466SOL     OW69230  11.581   7.879   1.712
22466SOL    HW169231  11.612   7.864   1.801
22466SOL    HW269232  11.628   7.958   1.684
22467SOL     OW69233   0.933   4.104   0.878
22467SOL    HW169234   0.868   4.104   0.808
22467SOL    HW269235   0.900   4.168   0.942
22468SOL     OW69236   8.811   9.121   9.334
22468SOL    HW169237   8.730   9.116   9.384
22468SOL    HW269238   8.815   9.039   9.285
22469SOL     OW69239   9.216   6.776  10.108
22469SOL    HW169240   9.126   6.788  10.137
22469SOL    HW269241   9.269   6.806  10.182
22470SOL     OW69242   5.646   7.887   6.909
22470SOL    HW169243   5.682   7.901   6.821
22470SOL    HW269244   5.673   7.798   6.932
22471SOL     OW69245   4.791   9.197   4.730
22471SOL    HW169246   4.774   9.114   4.774
22471SOL    HW269247   4.830   9.253   4.797
22472SOL     OW69248   3.288   1.612   9.662
22472SOL    HW169249   3.326   1.559   9.732
22472SOL    HW269250   3.316   1.701   9.681
22473SOL     OW69251   9.024   6.012  11.989
22473SOL    HW169252   8.946   6.039  12.036
22473SOL    HW269253   9.064   5.945  12.044
22474SOL     OW69254  12.201   3.226   7.028
22474SOL    HW169255  12.229   3.290   6.963
22474SOL    HW269256  12.106   3.238   7.034
22475SOL     OW69257  10.817   0.921   1.426
22475SOL    HW169258  10.759   0.861   1.378
22475SOL    HW269259  10.771   0.940   1.508
22476SOL     OW69260   9.970  14.095  13.602
22476SOL    HW169261   9.930  14.171  13.559
22476SOL    HW269262   9.986  14.033  13.531
22477SOL     OW69263  13.746   1.328  12.154
22477SOL    HW169264  13.651   1.343  12.161
22477SOL    HW269265  13.770   1.365  12.069
22478SOL     OW69266  11.651   5.161   7.617
22478SOL    HW169267  11.630   5.249   7.584
22478SOL    HW269268  11.689   5.177   7.704
22479SOL     OW69269   1.045   7.554   4.150
22479SOL    HW169270   1.082   7.511   4.227
22479SOL    HW269271   1.099   7.632   4.137
22480SOL     OW69272   7.848   2.723  13.789
22480SOL    HW169273   7.833   2.706  13.881
22480SOL    HW269274   7.796   2.801  13.769
22481SOL     OW69275  10.607   4.666   4.916
22481SOL    HW169276  10.641   4.637   5.000
22481SOL    HW269277  10.514   4.682   4.932
22482SOL     OW69278   7.779  13.176  12.260
22482SOL    HW169279   7.751  13.176  12.168
22482SOL    HW269280   7.845  13.246  12.265
22483SOL     OW69281   9.463   9.292   9.711
22483SOL    HW169282   9.493   9.204   9.735
22483SOL    HW269283   9.378   9.278   9.669
22484SOL     OW69284  12.564   6.489  10.317
22484SOL    HW169285  12.616   6.442  10.251
22484SOL    HW269286  12.603   6.576  10.321
22485SOL     OW69287  13.826   1.388   2.011
22485SOL    HW169288  13.843   1.441   2.088
22485SOL    HW269289  13.765   1.320   2.042
22486SOL     OW69290   9.903   1.801  13.143
22486SOL    HW169291   9.830   1.792  13.082
22486SOL    HW269292   9.865   1.780  13.229
22487SOL     OW69293  14.040   4.328   5.230
22487SOL    HW169294  14.135   4.331   5.219
22487SOL    HW269295  14.013   4.420   5.226
22488SOL     OW69296   2.598   0.018   7.960
22488SOL    HW169297   2.505   0.018   7.939
22488SOL    HW269298   2.626   0.108   7.948
22489SOL     OW69299   1.164   8.071   1.758
22489SOL    HW169300   1.187   8.026   1.676
22489SOL    HW269301   1.227   8.039   1.822
22490SOL     OW69302  14.439   2.598  13.963
22490SOL    HW169303  14.418   2.650  13.885
22490SOL    HW269304  14.534   2.608  13.974
22491SOL     OW69305  13.340   9.498  12.414
22491SOL    HW169306  13.347   9.571  12.353
22491SOL    HW269307  13.246   9.490  12.431
22492SOL     OW69308   4.359   7.844   8.602
22492SOL    HW169309   4.442   7.891   8.605
22492SOL    HW269310   4.382   7.754   8.626
22493SOL     OW69311  10.320   1.466   0.653
22493SOL    HW169312  10.395   1.526   0.648
22493SOL    HW269313  10.260   1.506   0.715
22494SOL     OW69314   4.761  11.966   5.969
22494SOL    HW169315   4.695  12.026   5.933
22494SOL    HW269316   4.719  11.880   5.965
22495SOL     OW69317  10.703  11.322   9.275
22495SOL    HW169318  10.756  11.359   9.345
22495SOL    HW269319  10.655  11.250   9.316
22496SOL     OW69320   2.350   6.149   1.728
22496SOL    HW169321   2.322   6.063   1.696
22496SOL    HW269322   2.438   6.160   1.692
22497SOL     OW69323  10.369   7.117   7.817
22497SOL    HW169324  10.454   7.160   7.821
22497SOL    HW269325  10.388   7.027   7.792
22498SOL     OW69326   7.389  11.226  11.253
22498SOL    HW169327   7.417  11.314  11.230
22498SOL    HW269328   7.310  11.211  11.201
22499SOL     OW69329  12.915   7.675   0.040
22499SOL    HW169330  12.919   7.689   0.135
22499SOL    HW269331  13.002   7.642   0.018
22500SOL     OW69332   0.675  11.770   9.773
22500SOL    HW169333   0.730  11.842   9.744
22500SOL    HW269334   0.658  11.718   9.695
22501SOL     OW69335   3.739   1.841   2.826
22501SOL    HW169336   3.648   1.868   2.815
22501SOL    HW269337   3.733   1.753   2.865
22502SOL     OW69338  11.101   2.566  11.032
22502SOL    HW169339  11.196   2.576  11.019
22502SOL    HW269340  11.085   2.473  11.016
22503SOL     OW69341   9.030   1.227   6.734
22503SOL    HW169342   9.010   1.219   6.827
22503SOL    HW269343   8.966   1.171   6.691
22504SOL     OW69344   0.169   5.248   4.938
22504SOL    HW169345   0.185   5.154   4.927
22504SOL    HW269346   0.132   5.276   4.855
22505SOL     OW69347   6.935   4.389  13.701
22505SOL    HW169348   6.955   4.344  13.619
22505SOL    HW269349   6.915   4.319  13.763
22506SOL     OW69350   1.219   6.073  11.617
22506SOL    HW169351   1.294   6.058  11.675
22506SOL    HW269352   1.197   6.166  11.630
22507SOL     OW69353   9.971   2.631   3.561
22507SOL    HW169354  10.005   2.561   3.617
22507SOL    HW269355   9.939   2.697   3.623
22508SOL     OW69356  10.259   1.318   5.194
22508SOL    HW169357  10.216   1.347   5.114
22508SOL    HW269358  10.327   1.384   5.209
22509SOL     OW69359   0.872   2.818   5.777
22509SOL    HW169360   0.911   2.744   5.823
22509SOL    HW269361   0.855   2.883   5.845
22510SOL     OW69362   2.102  10.905   5.624
22510SOL    HW169363   2.072  10.964   5.555
22510SOL    HW269364   2.033  10.839   5.629
22511SOL     OW69365   8.315   1.657   1.927
22511SOL    HW169366   8.294   1.616   1.843
22511SOL    HW269367   8.388   1.715   1.907
22512SOL     OW69368   7.217   1.848  12.710
22512SOL    HW169369   7.282   1.780  12.727
22512SOL    HW269370   7.218   1.859  12.615
22513SOL     OW69371  13.280  12.960   5.008
22513SOL    HW169372  13.242  12.948   4.921
22513SOL    HW269373  13.307  12.873   5.035
22514SOL     OW69374   3.299   1.933  13.531
22514SOL    HW169375   3.222   1.899  13.577
22514SOL    HW269376   3.373   1.888  13.571
22515SOL     OW69377  10.785  14.653   1.866
22515SOL    HW169378  10.747  14.615   1.787
22515SOL    HW269379  10.753  14.743   1.867
22516SOL     OW69380  13.358   9.034  11.550
22516SOL    HW169381  13.311   9.101  11.501
22516SOL    HW269382  13.344   8.954  11.499
22517SOL     OW69383  12.413  11.048   9.972
22517SOL    HW169384  12.405  11.143   9.985
22517SOL    HW269385  12.324  11.020   9.950
22518SOL     OW69386   2.020   6.282   9.760
22518SOL    HW169387   1.932   6.259   9.789
22518SOL    HW269388   2.008   6.360   9.707
22519SOL     OW69389  10.128  11.895   1.927
22519SOL    HW169390  10.213  11.852   1.924
22519SOL    HW269391  10.143  11.977   1.973
22520SOL     OW69392   5.802  14.640   1.382
22520SOL    HW169393   5.859  14.614   1.309
22520SOL    HW269394   5.857  14.694   1.438
22521SOL     OW69395   4.519  11.007  14.368
22521SOL    HW169396   4.471  10.945  14.313
22521SOL    HW269397   4.495  10.983  14.457
22522SOL     OW69398  14.249   2.066   1.737
22522SOL    HW169399  14.264   2.146   1.787
22522SOL    HW269400  14.200   2.009   1.796
22523SOL     OW69401  12.366   1.845   6.298
22523SOL    HW169402  12.396   1.789   6.227
22523SOL    HW269403  12.270   1.838   6.295
22524SOL     OW69404   7.247   6.910   3.949
22524SOL    HW169405   7.241   6.968   3.874
22524SOL    HW269406   7.300   6.957   4.013
22525SOL     OW69407   6.504   7.319   4.596
22525SOL    HW169408   6.512   7.318   4.691
22525SOL    HW269409   6.420   7.278   4.578
22526SOL     OW69410   8.749   0.922   5.071
22526SOL    HW169411   8.673   0.979   5.063
22526SOL    HW269412   8.723   0.840   5.028
22527SOL     OW69413  13.883   0.040   5.523
22527SOL    HW169414  13.848   0.129   5.530
22527SOL    HW269415  13.811  14.862   5.549
22528SOL     OW69416   3.823  14.827   9.052
22528SOL    HW169417   3.766  14.771   9.000
22528SOL    HW269418   3.880  14.870   8.988
22529SOL     OW69419  13.705   6.418  10.522
22529SOL    HW169420  13.733   6.391  10.609
22529SOL    HW269421  13.610   6.422  10.527
22530SOL     OW69422   3.125   0.981  10.266
22530SOL    HW169423   3.134   0.898  10.219
22530SOL    HW269424   3.055   1.027  10.220
22531SOL     OW69425  11.653   7.580  11.587
22531SOL    HW169426  11.631   7.651  11.527
22531SOL    HW269427  11.605   7.504  11.553
22532SOL     OW69428   4.399   6.229   5.554
22532SOL    HW169429   4.304   6.221   5.546
22532SOL    HW269430   4.429   6.139   5.569
22533SOL     OW69431  14.838   6.920   3.351
22533SOL    HW169432  14.788   6.914   3.269
22533SOL    HW269433  14.798   6.994   3.397
22534SOL     OW69434   0.371  14.610   3.387
22534SOL    HW169435   0.427  14.579   3.316
22534SOL    HW269436   0.354  14.532   3.440
22535SOL     OW69437  14.414  14.646   5.920
22535SOL    HW169438  14.341  14.626   5.862
22535SOL    HW269439  14.382  14.717   5.976
22536SOL     OW69440   3.659  12.637  12.487
22536SOL    HW169441   3.744  12.665  12.521
22536SOL    HW269442   3.679  12.562  12.430
22537SOL     OW69443   5.528  10.076   3.304
22537SOL    HW169444   5.604  10.084   3.361
22537SOL    HW269445   5.461  10.131   3.346
22538SOL     OW69446   0.831  11.599   1.192
22538SOL    HW169447   0.758  11.600   1.130
22538SOL    HW269448   0.822  11.516   1.239
22539SOL     OW69449  14.172  14.533  13.466
22539SOL    HW169450  14.098  14.498  13.515
22539SOL    HW269451  14.247  14.483  13.497
22540SOL     OW69452   8.988   9.338  13.766
22540SOL    HW169453   8.907   9.382  13.791
22540SOL    HW269454   9.032   9.321  13.849
22541SOL     OW69455   2.143   3.227   3.412
22541SOL    HW169456   2.206   3.195   3.476
22541SOL    HW269457   2.172   3.191   3.329
22542SOL     OW69458   2.151   0.620  11.071
22542SOL    HW169459   2.183   0.671  11.145
22542SOL    HW269460   2.064   0.655  11.053
22543SOL     OW69461  11.790   2.605  12.925
22543SOL    HW169462  11.755   2.688  12.894
22543SOL    HW269463  11.849   2.628  12.996
22544SOL     OW69464   9.386   7.839  14.335
22544SOL    HW169465   9.388   7.817  14.242
22544SOL    HW269466   9.414   7.931  14.338
22545SOL     OW69467   1.130  13.431   5.803
22545SOL    HW169468   1.053  13.413   5.749
22545SOL    HW269469   1.204  13.425   5.743
22546SOL     OW69470   4.961  14.020   9.988
22546SOL    HW169471   5.042  14.032   9.939
22546SOL    HW269472   4.914  14.103   9.978
22547SOL     OW69473   6.427   6.646   9.027
22547SOL    HW169474   6.454   6.719   9.082
22547SOL    HW269475   6.484   6.574   9.053
22548SOL     OW69476  11.610  14.439   2.042
22548SOL    HW169477  11.684  14.386   2.012
22548SOL    HW269478  11.641  14.530   2.037
22549SOL     OW69479  14.856   7.112  14.151
22549SOL    HW169480  14.789   7.054  14.116
22549SOL    HW269481  14.819   7.200  14.144
22550SOL     OW69482   8.455  10.572   0.290
22550SOL    HW169483   8.495  10.657   0.309
22550SOL    HW269484   8.529  10.514   0.273
22551SOL     OW69485   0.786   0.147   9.029
22551SOL    HW169486   0.803   0.231   9.071
22551SOL    HW269487   0.732   0.169   8.952
22552SOL     OW69488  11.801   2.376   9.504
22552SOL    HW169489  11.893   2.403   9.498
22552SOL    HW269490  11.798   2.291   9.461
22553SOL     OW69491   7.017   3.564   2.296
22553SOL    HW169492   7.051   3.565   2.207
22553SOL    HW269493   6.930   3.526   2.288
22554SOL     OW69494   0.130   4.871  12.135
22554SOL    HW169495   0.220   4.876  12.169
22554SOL    HW269496   0.137   4.900  12.044
22555SOL     OW69497   9.940   4.861  10.454
22555SOL    HW169498   9.847   4.882  10.466
22555SOL    HW269499   9.952   4.858  10.360
22556SOL     OW69500   4.839   6.882   4.020
22556SOL    HW169501   4.927   6.902   3.990
22556SOL    HW269502   4.806   6.965   4.054
22557SOL     OW69503  13.600   8.719  11.521
22557SOL    HW169504  13.587   8.686  11.432
22557SOL    HW269505  13.694   8.735  11.526
22558SOL     OW69506  11.153   0.074   3.116
22558SOL    HW169507  11.205   0.151   3.095
22558SOL    HW269508  11.070   0.088   3.071
22559SOL     OW69509   1.989  12.163  12.830
22559SOL    HW169510   2.064  12.222  12.826
22559SOL    HW269511   1.948  12.170  12.744
22560SOL     OW69512   2.273  10.538   5.108
22560SOL    HW169513   2.329  10.523   5.032
22560SOL    HW269514   2.215  10.609   5.081
22561SOL     OW69515  12.083   5.047   9.623
22561SOL    HW169516  12.092   5.102   9.701
22561SOL    HW269517  12.124   4.964   9.648
22562SOL     OW69518  10.501  14.291  10.796
22562SOL    HW169519  10.560  14.253  10.731
22562SOL    HW269520  10.492  14.383  10.769
22563SOL     OW69521   5.831   4.962  10.826
22563SOL    HW169522   5.830   5.046  10.871
22563SOL    HW269523   5.845   4.985  10.734
22564SOL     OW69524   1.263  11.525  11.566
22564SOL    HW169525   1.354  11.496  11.578
22564SOL    HW269526   1.222  11.513  11.651
22565SOL     OW69527   9.553  12.903   5.404
22565SOL    HW169528   9.556  12.808   5.412
22565SOL    HW269529   9.493  12.919   5.331
22566SOL     OW69530  11.494   3.628   9.422
22566SOL    HW169531  11.534   3.641   9.508
22566SOL    HW269532  11.429   3.558   9.436
22567SOL     OW69533  12.899   4.207   1.693
22567SOL    HW169534  12.959   4.232   1.623
22567SOL    HW269535  12.881   4.114   1.676
22568SOL     OW69536   9.468   0.406   7.127
22568SOL    HW169537   9.540   0.345   7.145
22568SOL    HW269538   9.474   0.471   7.196
22569SOL     OW69539   6.755   4.324   6.123
22569SOL    HW169540   6.772   4.301   6.214
22569SOL    HW269541   6.828   4.380   6.098
22570SOL     OW69542   6.430  13.010   5.392
22570SOL    HW169543   6.371  12.944   5.428
22570SOL    HW269544   6.409  13.090   5.440
22571SOL     OW69545  11.820  14.037   4.612
22571SOL    HW169546  11.906  13.996   4.600
22571SOL    HW269547  11.791  14.058   4.523
22572SOL     OW69548  11.974   8.687  12.551
22572SOL    HW169549  11.886   8.666  12.520
22572SOL    HW269550  11.974   8.661  12.644
22573SOL     OW69551   3.427   5.285   0.575
22573SOL    HW169552   3.507   5.304   0.624
22573SOL    HW269553   3.356   5.311   0.634
22574SOL     OW69554  10.174   1.749  14.355
22574SOL    HW169555  10.200   1.777  14.267
22574SOL    HW269556  10.252   1.707  14.391
22575SOL     OW69557   6.658  13.282  11.609
22575SOL    HW169558   6.634  13.362  11.656
22575SOL    HW269559   6.626  13.211  11.665
22576SOL     OW69560   2.517  14.164   6.508
22576SOL    HW169561   2.576  14.088   6.505
22576SOL    HW269562   2.450  14.139   6.571
22577SOL     OW69563   5.567  12.730   3.189
22577SOL    HW169564   5.631  12.685   3.135
22577SOL    HW269565   5.579  12.823   3.168
22578SOL     OW69566   7.740  10.982  14.330
22578SOL    HW169567   7.776  11.053  14.277
22578SOL    HW269568   7.669  10.946  14.277
22579SOL     OW69569   9.498   0.185   6.198
22579SOL    HW169570   9.556   0.126   6.150
22579SOL    HW269571   9.530   0.273   6.177
22580SOL     OW69572   2.021  14.131  12.530
22580SOL    HW169573   2.052  14.054  12.482
22580SOL    HW269574   1.925  14.125  12.524
22581SOL     OW69575   3.575  14.119   3.512
22581SOL    HW169576   3.620  14.122   3.427
22581SOL    HW269577   3.547  14.028   3.520
22582SOL     OW69578  13.568   3.728   9.942
22582SOL    HW169579  13.572   3.701   9.850
22582SOL    HW269580  13.564   3.646   9.991
22583SOL     OW69581   6.411   3.254   6.827
22583SOL    HW169582   6.439   3.304   6.904
22583SOL    HW269583   6.342   3.307   6.787
22584SOL     OW69584   9.828  12.299   8.331
22584SOL    HW169585   9.758  12.258   8.280
22584SOL    HW269586   9.903  12.300   8.272
22585SOL     OW69587   2.978   1.297  11.189
22585SOL    HW169588   2.954   1.386  11.214
22585SOL    HW269589   3.020   1.261  11.267
22586SOL     OW69590   9.897  11.292  11.818
22586SOL    HW169591   9.860  11.211  11.852
22586SOL    HW269592   9.963  11.317  11.884
22587SOL     OW69593   1.556   5.849   5.357
22587SOL    HW169594   1.469   5.882   5.380
22587SOL    HW269595   1.543   5.799   5.277
22588SOL     OW69596   3.892   1.937  14.162
22588SOL    HW169597   3.801   1.950  14.136
22588SOL    HW269598   3.913   2.012  14.217
22589SOL     OW69599   7.008   6.196  13.293
22589SOL    HW169600   7.042   6.114  13.259
22589SOL    HW269601   6.967   6.173  13.377
22590SOL     OW69602   6.986   7.717  13.893
22590SOL    HW169603   6.915   7.663  13.926
22590SOL    HW269604   6.944   7.777  13.831
22591SOL     OW69605   4.287   2.203  13.719
22591SOL    HW169606   4.271   2.117  13.756
22591SOL    HW269607   4.275   2.264  13.793
22592SOL     OW69608   7.078   4.469   0.306
22592SOL    HW169609   7.037   4.394   0.348
22592SOL    HW269610   7.006   4.526   0.280
22593SOL     OW69611  11.972   2.816   9.826
22593SOL    HW169612  11.995   2.863   9.906
22593SOL    HW269613  11.937   2.883   9.768
22594SOL     OW69614   2.696   4.400   2.145
22594SOL    HW169615   2.698   4.454   2.225
22594SOL    HW269616   2.604   4.379   2.133
22595SOL     OW69617   9.620   3.006   7.552
22595SOL    HW169618   9.684   2.998   7.481
22595SOL    HW269619   9.667   3.049   7.623
22596SOL     OW69620   9.806  12.735   7.199
22596SOL    HW169621   9.888  12.722   7.248
22596SOL    HW269622   9.737  12.708   7.260
22597SOL     OW69623   4.735  13.073  10.617
22597SOL    HW169624   4.643  13.098  10.626
22597SOL    HW269625   4.780  13.126  10.682
22598SOL     OW69626   2.945  10.623   1.362
22598SOL    HW169627   2.956  10.545   1.308
22598SOL    HW269628   2.990  10.602   1.444
22599SOL     OW69629   5.066  12.621   4.723
22599SOL    HW169630   5.101  12.552   4.667
22599SOL    HW269631   5.027  12.575   4.797
22600SOL     OW69632   9.387   4.879  11.090
22600SOL    HW169633   9.328   4.855  11.018
22600SOL    HW269634   9.416   4.968  11.067
22601SOL     OW69635  14.096  10.359  14.416
22601SOL    HW169636  14.178  10.316  14.437
22601SOL    HW269637  14.119  10.423  14.348
22602SOL     OW69638   6.061   8.407  10.090
22602SOL    HW169639   6.132   8.370  10.143
22602SOL    HW269640   5.989   8.345  10.101
22603SOL     OW69641   9.634   0.153  13.319
22603SOL    HW169642   9.677   0.134  13.236
22603SOL    HW269643   9.682   0.100  13.383
22604SOL     OW69644  13.863   3.302  11.851
22604SOL    HW169645  13.866   3.207  11.846
22604SOL    HW269646  13.774   3.323  11.881
22605SOL     OW69647  13.028  10.722   3.724
22605SOL    HW169648  13.051  10.648   3.780
22605SOL    HW269649  12.967  10.773   3.775
22606SOL     OW69650   7.854   3.556   8.207
22606SOL    HW169651   7.835   3.634   8.259
22606SOL    HW269652   7.903   3.588   8.131
22607SOL     OW69653   8.213   9.698   2.874
22607SOL    HW169654   8.246   9.694   2.784
22607SOL    HW269655   8.268   9.764   2.917
22608SOL     OW69656  13.579   2.058   1.900
22608SOL    HW169657  13.591   2.153   1.894
22608SOL    HW269658  13.667   2.024   1.917
22609SOL     OW69659  10.857   2.615  13.784
22609SOL    HW169660  10.908   2.659  13.715
22609SOL    HW269661  10.767   2.647  13.771
22610SOL     OW69662  11.357   6.668   6.125
22610SOL    HW169663  11.449   6.680   6.148
22610SOL    HW269664  11.318   6.628   6.204
22611SOL     OW69665   7.297  14.269   7.130
22611SOL    HW169666   7.384  14.249   7.165
22611SOL    HW269667   7.309  14.270   7.035
22612SOL     OW69668   1.791   9.496   5.817
22612SOL    HW169669   1.873   9.492   5.867
22612SOL    HW269670   1.796   9.422   5.757
22613SOL     OW69671   1.945   3.742   3.533
22613SOL    HW169672   2.008   3.682   3.571
22613SOL    HW269673   1.998   3.810   3.491
22614SOL     OW69674   3.283   3.445  13.226
22614SOL    HW169675   3.362   3.400  13.195
22614SOL    HW269676   3.251   3.391  13.298
22615SOL     OW69677   6.354  13.720   2.144
22615SOL    HW169678   6.396  13.639   2.173
22615SOL    HW269679   6.378  13.785   2.210
22616SOL     OW69680  10.650   7.764   5.424
22616SOL    HW169681  10.665   7.786   5.331
22616SOL    HW269682  10.565   7.803   5.444
22617SOL     OW69683  12.652   3.816  10.952
22617SOL    HW169684  12.586   3.878  10.924
22617SOL    HW269685  12.622   3.785  11.037
22618SOL     OW69686   8.391   9.450  11.612
22618SOL    HW169687   8.391   9.521  11.547
22618SOL    HW269688   8.338   9.483  11.684
22619SOL     OW69689   6.307  12.138  14.601
22619SOL    HW169690   6.213  12.148  14.608
22619SOL    HW269691   6.332  12.085  14.676
22620SOL     OW69692   2.136   0.966   3.552
22620SOL    HW169693   2.193   1.031   3.593
22620SOL    HW269694   2.053   1.011   3.540
22621SOL     OW69695  10.880   4.189   8.273
22621SOL    HW169696  10.917   4.146   8.350
22621SOL    HW269697  10.800   4.141   8.254
22622SOL     OW69698   4.577  12.226   5.551
22622SOL    HW169699   4.531  12.301   5.588
22622SOL    HW269700   4.635  12.197   5.621
22623SOL     OW69701   9.010   4.510  12.678
22623SOL    HW169702   9.043   4.489  12.591
22623SOL    HW269703   9.080   4.561  12.719
22624SOL     OW69704   2.874   9.833   9.364
22624SOL    HW169705   2.856   9.899   9.297
22624SOL    HW269706   2.968   9.836   9.376
22625SOL     OW69707  11.401   1.774   7.522
22625SOL    HW169708  11.428   1.848   7.468
22625SOL    HW269709  11.472   1.765   7.587
22626SOL     OW69710  14.622  13.212   9.737
22626SOL    HW169711  14.665  13.174   9.813
22626SOL    HW269712  14.669  13.176   9.662
22627SOL     OW69713   8.648  10.555  13.296
22627SOL    HW169714   8.686  10.478  13.338
22627SOL    HW269715   8.566  10.571  13.342
22628SOL     OW69716   4.806   5.150   2.757
22628SOL    HW169717   4.827   5.068   2.713
22628SOL    HW269718   4.891   5.187   2.781
22629SOL     OW69719  11.265   7.244  11.575
22629SOL    HW169720  11.355   7.266  11.600
22629SOL    HW269721  11.272   7.211  11.486
22630SOL     OW69722   2.860   0.793   7.356
22630SOL    HW169723   2.930   0.856   7.370
22630SOL    HW269724   2.823   0.778   7.443
22631SOL     OW69725   9.442   7.684   0.145
22631SOL    HW169726   9.406   7.640   0.222
22631SOL    HW269727   9.534   7.657   0.142
22632SOL     OW69728  12.438   0.402   3.869
22632SOL    HW169729  12.421   0.446   3.952
22632SOL    HW269730  12.438   0.472   3.804
22633SOL     OW69731  10.322   3.074   4.288
22633SOL    HW169732  10.239   3.052   4.331
22633SOL    HW269733  10.364   3.137   4.348
22634SOL     OW69734   4.293   7.274   0.384
22634SOL    HW169735   4.289   7.229   0.468
22634SOL    HW269736   4.364   7.231   0.336
22635SOL     OW69737  10.917   6.655  12.626
22635SOL    HW169738  10.870   6.583  12.583
22635SOL    HW269739  10.949   6.709  12.554
22636SOL     OW69740   1.367   6.536   1.925
22636SOL    HW169741   1.440   6.535   1.864
22636SOL    HW269742   1.291   6.509   1.873
22637SOL     OW69743  14.559   1.449   0.946
22637SOL    HW169744  14.492   1.518   0.950
22637SOL    HW269745  14.581   1.443   0.853
22638SOL     OW69746  10.055   9.625   2.760
22638SOL    HW169747  10.087   9.580   2.838
22638SOL    HW269748  10.051   9.557   2.693
22639SOL     OW69749   4.916   3.057  10.611
22639SOL    HW169750   5.011   3.060  10.620
22639SOL    HW269751   4.901   2.997  10.538
22640SOL     OW69752  13.316   9.505   5.270
22640SOL    HW169753  13.385   9.489   5.205
22640SOL    HW269754  13.335   9.592   5.304
22641SOL     OW69755   1.718   1.073   0.857
22641SOL    HW169756   1.693   0.984   0.833
22641SOL    HW269757   1.729   1.070   0.952
22642SOL     OW69758   0.657   6.209   0.858
22642SOL    HW169759   0.569   6.239   0.837
22642SOL    HW269760   0.649   6.170   0.945
22643SOL     OW69761   4.887  11.092   8.240
22643SOL    HW169762   4.911  11.022   8.300
22643SOL    HW269763   4.796  11.113   8.262
22644SOL     OW69764  12.557  14.100  10.339
22644SOL    HW169765  12.564  14.181  10.389
22644SOL    HW269766  12.597  14.033  10.394
22645SOL     OW69767   5.125  13.790   9.782
22645SOL    HW169768   5.117  13.885   9.775
22645SOL    HW269769   5.092  13.757   9.698
22646SOL     OW69770   6.297  14.074   0.178
22646SOL    HW169771   6.389  14.077   0.151
22646SOL    HW269772   6.282  14.157   0.222
22647SOL     OW69773   3.511   6.592  13.470
22647SOL    HW169774   3.586   6.534  13.485
22647SOL    HW269775   3.482   6.617  13.557
22648SOL     OW69776  12.858  10.152   7.296
22648SOL    HW169777  12.790  10.152   7.228
22648SOL    HW269778  12.886  10.243   7.301
22649SOL     OW69779   7.083  12.356   1.946
22649SOL    HW169780   7.022  12.301   1.994
22649SOL    HW269781   7.079  12.441   1.990
22650SOL     OW69782   8.969   7.990   9.603
22650SOL    HW169783   8.930   8.066   9.561
22650SOL    HW269784   9.062   8.012   9.609
22651SOL     OW69785  12.220   3.693   4.522
22651SOL    HW169786  12.152   3.630   4.502
22651SOL    HW269787  12.239   3.736   4.439
22652SOL     OW69788   2.266  13.265   6.997
22652SOL    HW169789   2.268  13.359   6.979
22652SOL    HW269790   2.199  13.231   6.938
22653SOL     OW69791   7.048   0.259   7.573
22653SOL    HW169792   6.971   0.316   7.571
22653SOL    HW269793   7.065   0.239   7.481
22654SOL     OW69794  11.872   4.132   4.000
22654SOL    HW169795  11.795   4.186   3.983
22654SOL    HW269796  11.863   4.057   3.941
22655SOL     OW69797   9.327   4.227   5.914
22655SOL    HW169798   9.279   4.161   5.964
22655SOL    HW269799   9.419   4.209   5.932
22656SOL     OW69800   2.286   7.600   3.168
22656SOL    HW169801   2.247   7.619   3.083
22656SOL    HW269802   2.212   7.577   3.225
22657SOL     OW69803   8.455  12.604  13.206
22657SOL    HW169804   8.399  12.621  13.130
22657SOL    HW269805   8.394  12.581  13.276
22658SOL     OW69806   8.351  13.367   9.255
22658SOL    HW169807   8.343  13.279   9.292
22658SOL    HW269808   8.412  13.357   9.183
22659SOL     OW69809   3.392   5.032   0.532
22659SOL    HW169810   3.354   5.006   0.616
22659SOL    HW269811   3.440   5.113   0.550
22660SOL     OW69812   5.640  14.614   2.312
22660SOL    HW169813   5.640  14.655   2.225
22660SOL    HW269814   5.711  14.658   2.359
22661SOL     OW69815   7.181   8.238  10.670
22661SOL    HW169816   7.112   8.281  10.619
22661SOL    HW269817   7.151   8.148  10.679
22662SOL     OW69818   6.647   3.177   7.213
22662SOL    HW169819   6.560   3.137   7.212
22662SOL    HW269820   6.631   3.267   7.242
22663SOL     OW69821  11.343   5.904  14.802
22663SOL    HW169822  11.387   5.845  14.740
22663SOL    HW269823  11.415   5.954  14.841
22664SOL     OW69824   9.764  11.545  12.714
22664SOL    HW169825   9.676  11.582  12.714
22664SOL    HW269826   9.819  11.615  12.680
22665SOL     OW69827   6.831   7.937  13.188
22665SOL    HW169828   6.754   7.945  13.132
22665SOL    HW269829   6.882   7.867  13.149
22666SOL     OW69830  14.032   1.313  13.446
22666SOL    HW169831  13.976   1.388  13.428
22666SOL    HW269832  13.975   1.250  13.490
22667SOL     OW69833  10.966  10.839   4.014
22667SOL    HW169834  10.911  10.836   3.936
22667SOL    HW269835  10.936  10.765   4.067
22668SOL     OW69836   8.928   5.181  13.940
22668SOL    HW169837   8.990   5.137  13.881
22668SOL    HW269838   8.875   5.111  13.976
22669SOL     OW69839   6.874   5.220   2.730
22669SOL    HW169840   6.947   5.246   2.786
22669SOL    HW269841   6.801   5.276   2.757
22670SOL     OW69842   4.213   2.332  14.190
22670SOL    HW169843   4.194   2.280  14.268
22670SOL    HW269844   4.236   2.418  14.223
22671SOL     OW69845   2.671  11.221   6.847
22671SOL    HW169846   2.586  11.178   6.856
22671SOL    HW269847   2.688  11.261   6.932
22672SOL     OW69848   7.181   1.284  11.603
22672SOL    HW169849   7.121   1.214  11.578
22672SOL    HW269850   7.225   1.308  11.521
22673SOL     OW69851  11.777   3.088  11.173
22673SOL    HW169852  11.818   3.166  11.209
22673SOL    HW269853  11.760   3.111  11.081
22674SOL     OW69854  10.089   0.794  10.216
22674SOL    HW169855  10.092   0.723  10.152
22674SOL    HW269856  10.170   0.842  10.202
22675SOL     OW69857  12.027   6.760  14.034
22675SOL    HW169858  12.001   6.681  14.083
22675SOL    HW269859  12.102   6.732  13.982
22676SOL     OW69860  10.709   1.680   9.349
22676SOL    HW169861  10.785   1.630   9.321
22676SOL    HW269862  10.653   1.616   9.393
22677SOL     OW69863   8.884   6.500   7.417
22677SOL    HW169864   8.839   6.519   7.335
22677SOL    HW269865   8.936   6.578   7.435
22678SOL     OW69866   7.332   9.767   6.167
22678SOL    HW169867   7.252   9.717   6.184
22678SOL    HW269868   7.386   9.708   6.114
22679SOL     OW69869  13.725  10.672  14.500
22679SOL    HW169870  13.641  10.675  14.453
22679SOL    HW269871  13.729  10.755  14.548
22680SOL     OW69872   4.195  14.018   3.255
22680SOL    HW169873   4.106  13.987   3.239
22680SOL    HW269874   4.193  14.048   3.346
22681SOL     OW69875   4.417  13.738   3.681
22681SOL    HW169876   4.418  13.808   3.616
22681SOL    HW269877   4.459  13.664   3.637
22682SOL     OW69878   6.002   3.666   5.010
22682SOL    HW169879   5.979   3.696   5.098
22682SOL    HW269880   6.079   3.718   4.987
22683SOL     OW69881  12.942   3.455  11.488
22683SOL    HW169882  13.007   3.421  11.550
22683SOL    HW269883  12.859   3.449  11.536
22684SOL     OW69884  11.384  14.076   2.667
22684SOL    HW169885  11.465  14.119   2.642
22684SOL    HW269886  11.352  14.128   2.741
22685SOL     OW69887   0.527  10.377   7.028
22685SOL    HW169888   0.549  10.424   7.109
22685SOL    HW269889   0.557  10.434   6.958
22686SOL     OW69890   0.151   4.082   4.414
22686SOL    HW169891   0.161   4.177   4.419
22686SOL    HW269892   0.087   4.068   4.344
22687SOL     OW69893   3.459   3.379   7.441
22687SOL    HW169894   3.532   3.382   7.379
22687SOL    HW269895   3.493   3.421   7.519
22688SOL     OW69896   8.768   0.408   9.579
22688SOL    HW169897   8.728   0.477   9.525
22688SOL    HW269898   8.711   0.332   9.565
22689SOL     OW69899   1.622  10.464  13.629
22689SOL    HW169900   1.706  10.467  13.675
22689SOL    HW269901   1.568  10.404  13.681
22690SOL     OW69902  12.275  14.586  14.629
22690SOL    HW169903  12.262  14.492  14.642
22690SOL    HW269904  12.371  14.597  14.626
22691SOL     OW69905   1.939  10.152   6.869
22691SOL    HW169906   1.873  10.120   6.929
22691SOL    HW269907   1.918  10.245   6.857
22692SOL     OW69908   4.379   1.295   2.153
22692SOL    HW169909   4.375   1.201   2.173
22692SOL    HW269910   4.340   1.303   2.066
22693SOL     OW69911   8.967  10.885  10.622
22693SOL    HW169912   9.035  10.838  10.670
22693SOL    HW269913   8.915  10.816  10.580
22694SOL     OW69914   5.837   4.488  14.755
22694SOL    HW169915   5.805   4.398  14.755
22694SOL    HW269916   5.886   4.496  14.837
22695SOL     OW69917   6.354  14.053   2.740
22695SOL    HW169918   6.281  14.064   2.800
22695SOL    HW269919   6.313  14.053   2.653
22696SOL     OW69920   2.586   6.577   9.420
22696SOL    HW169921   2.561   6.490   9.390
22696SOL    HW269922   2.536   6.590   9.501
22697SOL     OW69923   9.663   7.584  12.731
22697SOL    HW169924   9.582   7.563  12.779
22697SOL    HW269925   9.689   7.501  12.692
22698SOL     OW69926   4.901  10.813  14.223
22698SOL    HW169927   4.827  10.770  14.265
22698SOL    HW269928   4.890  10.795  14.130
22699SOL     OW69929   3.260  13.579   0.824
22699SOL    HW169930   3.217  13.622   0.897
22699SOL    HW269931   3.206  13.502   0.806
22700SOL     OW69932   6.268   2.849  12.571
22700SOL    HW169933   6.187   2.847  12.622
22700SOL    HW269934   6.245   2.807  12.488
22701SOL     OW69935   3.187   1.535  14.852
22701SOL    HW169936   3.204   1.629  14.865
22701SOL    HW269937   3.223   1.516  14.765
22702SOL     OW69938   5.054   7.103   5.713
22702SOL    HW169939   5.024   7.078   5.625
22702SOL    HW269940   5.063   7.199   5.709
22703SOL     OW69941   7.125   1.053  14.424
22703SOL    HW169942   7.096   1.105  14.349
22703SOL    HW269943   7.055   1.062  14.488
22704SOL     OW69944  13.628   9.168  11.614
22704SOL    HW169945  13.548   9.115  11.623
22704SOL    HW269946  13.688   9.132  11.679
22705SOL     OW69947  13.566  13.259   3.102
22705SOL    HW169948  13.585  13.340   3.054
22705SOL    HW269949  13.636  13.199   3.075
22706SOL     OW69950  10.750   7.727   9.623
22706SOL    HW169951  10.794   7.810   9.640
22706SOL    HW269952  10.661   7.739   9.657
22707SOL     OW69953   6.133  12.509   8.262
22707SOL    HW169954   6.183  12.584   8.295
22707SOL    HW269955   6.183  12.432   8.292
22708SOL     OW69956   8.830   6.595   9.911
22708SOL    HW169957   8.844   6.689   9.904
22708SOL    HW269958   8.917   6.559   9.927
22709SOL     OW69959   2.289  10.359   0.407
22709SOL    HW169960   2.199  10.368   0.376
22709SOL    HW269961   2.288  10.395   0.496
22710SOL     OW69962   8.933  14.193   2.073
22710SOL    HW169963   8.990  14.163   2.003
22710SOL    HW269964   8.959  14.284   2.087
22711SOL     OW69965  14.521  12.096   7.376
22711SOL    HW169966  14.488  12.174   7.422
22711SOL    HW269967  14.471  12.093   7.295
22712SOL     OW69968   3.002   3.025  13.317
22712SOL    HW169969   2.928   2.969  13.290
22712SOL    HW269970   3.024   2.994  13.405
22713SOL     OW69971  10.380   3.072   5.191
22713SOL    HW169972  10.315   3.088   5.123
22713SOL    HW269973  10.362   3.138   5.258
22714SOL     OW69974   5.487   2.246   7.221
22714SOL    HW169975   5.425   2.173   7.226
22714SOL    HW269976   5.433   2.321   7.195
22715SOL     OW69977   8.546   5.273   2.818
22715SOL    HW169978   8.588   5.291   2.734
22715SOL    HW269979   8.472   5.334   2.821
22716SOL     OW69980  13.734   4.545   5.857
22716SOL    HW169981  13.788   4.542   5.936
22716SOL    HW269982  13.721   4.639   5.841
22717SOL     OW69983  11.974  10.181  12.370
22717SOL    HW169984  11.885  10.183  12.404
22717SOL    HW269985  12.016  10.258  12.409
22718SOL     OW69986   7.898   5.411   9.523
22718SOL    HW169987   7.964   5.412   9.592
22718SOL    HW269988   7.939   5.365   9.450
22719SOL     OW69989  13.781  14.639   6.830
22719SOL    HW169990  13.871  14.664   6.853
22719SOL    HW269991  13.789  14.601   6.742
22720SOL     OW69992   6.310   8.805   8.535
22720SOL    HW169993   6.266   8.869   8.478
22720SOL    HW269994   6.400   8.801   8.501
22721SOL     OW69995  14.187   9.939   8.999
22721SOL    HW169996  14.220  10.012   9.052
22721SOL    HW269997  14.156   9.980   8.918
22722SOL     OW69998   2.688  10.939  13.633
22722SOL    HW169999   2.682  10.898  13.547
22722SOL    HW270000   2.641  11.022  13.623
22723SOL     OW70001   2.043   8.075   4.779
22723SOL    HW170002   2.021   7.997   4.728
22723SOL    HW270003   2.138   8.079   4.777
22724SOL     OW70004   7.081   9.029  12.269
22724SOL    HW170005   7.052   9.120  12.267
22724SOL    HW270006   7.066   9.001  12.359
22725SOL     OW70007   7.989  10.726   7.525
22725SOL    HW170008   7.970  10.781   7.449
22725SOL    HW270009   7.958  10.777   7.600
22726SOL     OW70010   8.944   0.125   0.738
22726SOL    HW170011   8.918   0.189   0.671
22726SOL    HW270012   8.862   0.086   0.768
22727SOL     OW70013   9.869   6.506   4.921
22727SOL    HW170014   9.820   6.554   4.988
22727SOL    HW270015   9.804   6.489   4.852
22728SOL     OW70016   1.486   2.942  10.188
22728SOL    HW170017   1.448   2.858  10.216
22728SOL    HW270018   1.580   2.929  10.194
22729SOL     OW70019   7.931  13.308   1.980
22729SOL    HW170020   7.932  13.314   2.076
22729SOL    HW270021   7.883  13.386   1.952
22730SOL     OW70022   7.463   3.880  13.361
22730SOL    HW170023   7.370   3.886  13.383
22730SOL    HW270024   7.506   3.940  13.421
22731SOL     OW70025  10.681   7.908   4.439
22731SOL    HW170026  10.594   7.930   4.472
22731SOL    HW270027  10.674   7.815   4.415
22732SOL     OW70028   5.150   4.568   7.139
22732SOL    HW170029   5.177   4.516   7.063
22732SOL    HW270030   5.177   4.516   7.215
22733SOL     OW70031   4.618   0.454  12.344
22733SOL    HW170032   4.696   0.441  12.398
22733SOL    HW270033   4.605   0.370  12.300
22734SOL     OW70034   6.092   1.897   5.508
22734SOL    HW170035   6.160   1.832   5.527
22734SOL    HW270036   6.032   1.891   5.582
22735SOL     OW70037   3.319   4.383  11.062
22735SOL    HW170038   3.302   4.408  11.153
22735SOL    HW270039   3.257   4.434  11.011
22736SOL     OW70040   0.850   8.709   8.960
22736SOL    HW170041   0.937   8.747   8.951
22736SOL    HW270042   0.826   8.726   9.051
22737SOL     OW70043   3.421   3.014  10.371
22737SOL    HW170044   3.463   2.954  10.309
22737SOL    HW270045   3.391   2.958  10.443
22738SOL     OW70046   2.127  10.261  11.901
22738SOL    HW170047   2.077  10.226  11.975
22738SOL    HW270048   2.101  10.208  11.826
22739SOL     OW70049   1.530  13.943  10.466
22739SOL    HW170050   1.512  13.852  10.488
22739SOL    HW270051   1.449  13.990  10.486
22740SOL     OW70052   1.504   2.248   1.434
22740SOL    HW170053   1.495   2.155   1.457
22740SOL    HW270054   1.490   2.294   1.517
22741SOL     OW70055   7.968   2.711   2.551
22741SOL    HW170056   8.063   2.704   2.547
22741SOL    HW270057   7.938   2.682   2.465
22742SOL     OW70058   4.115  12.661  13.150
22742SOL    HW170059   4.179  12.714  13.199
22742SOL    HW270060   4.074  12.722  13.089
22743SOL     OW70061  10.421   7.227   6.454
22743SOL    HW170062  10.334   7.186   6.459
22743SOL    HW270063  10.403   7.319   6.435
22744SOL     OW70064  13.390   8.196   5.051
22744SOL    HW170065  13.426   8.205   4.962
22744SOL    HW270066  13.299   8.170   5.037
22745SOL     OW70067   9.754  10.168  14.518
22745SOL    HW170068   9.769  10.253  14.559
22745SOL    HW270069   9.664  10.173  14.485
22746SOL     OW70070  10.925   7.292   2.794
22746SOL    HW170071  10.929   7.220   2.857
22746SOL    HW270072  11.014   7.327   2.791
22747SOL     OW70073   8.909   7.944   5.992
22747SOL    HW170074   8.989   7.932   6.043
22747SOL    HW270075   8.909   8.037   5.969
22748SOL     OW70076   9.316   5.428   5.347
22748SOL    HW170077   9.341   5.513   5.311
22748SOL    HW270078   9.265   5.387   5.277
22749SOL     OW70079   7.695   1.244   1.830
22749SOL    HW170080   7.786   1.220   1.813
22749SOL    HW270081   7.652   1.233   1.745
22750SOL     OW70082   0.838   2.187   0.326
22750SOL    HW170083   0.858   2.106   0.278
22750SOL    HW270084   0.743   2.187   0.334
22751SOL     OW70085  12.055  10.560   5.779
22751SOL    HW170086  12.005  10.551   5.860
22751SOL    HW270087  12.117  10.488   5.780
22752SOL     OW70088   3.154   3.819   1.166
22752SOL    HW170089   3.081   3.862   1.209
22752SOL    HW270090   3.222   3.812   1.234
22753SOL     OW70091   4.750  11.126   5.638
22753SOL    HW170092   4.736  11.137   5.733
22753SOL    HW270093   4.732  11.034   5.622
22754SOL     OW70094   9.362   5.166  11.054
22754SOL    HW170095   9.288   5.154  11.114
22754SOL    HW270096   9.395   5.254  11.073
22755SOL     OW70097   8.111   8.064   3.894
22755SOL    HW170098   8.095   7.970   3.882
22755SOL    HW270099   8.096   8.080   3.987
22756SOL     OW70100   9.484   0.028   7.063
22756SOL    HW170101   9.412   0.003   7.005
22756SOL    HW270102   9.441   0.055   7.144
22757SOL     OW70103   9.520  13.290  11.617
22757SOL    HW170104   9.532  13.256  11.706
22757SOL    HW270105   9.602  13.335  11.598
22758SOL     OW70106   1.042  14.318   6.086
22758SOL    HW170107   1.011  14.271   6.164
22758SOL    HW270108   1.085  14.251   6.033
22759SOL     OW70109   9.872   6.893   5.701
22759SOL    HW170110   9.868   6.985   5.673
22759SOL    HW270111   9.964   6.871   5.698
22760SOL     OW70112   5.635   3.363   8.669
22760SOL    HW170113   5.728   3.385   8.674
22760SOL    HW270114   5.632   3.285   8.615
22761SOL     OW70115   6.355   6.546   7.108
22761SOL    HW170116   6.423   6.584   7.053
22761SOL    HW270117   6.386   6.458   7.128
22762SOL     OW70118  12.487   6.679   0.262
22762SOL    HW170119  12.420   6.715   0.321
22762SOL    HW270120  12.561   6.738   0.271
22763SOL     OW70121   5.792   1.978   1.645
22763SOL    HW170122   5.778   2.068   1.618
22763SOL    HW270123   5.733   1.966   1.719
22764SOL     OW70124  14.195   7.357  14.727
22764SOL    HW170125  14.187   7.430  14.665
22764SOL    HW270126  14.289   7.348  14.743
22765SOL     OW70127   9.272   8.995   5.664
22765SOL    HW170128   9.195   9.014   5.610
22765SOL    HW270129   9.248   8.916   5.712
22766SOL     OW70130   1.069   1.532  11.867
22766SOL    HW170131   1.058   1.461  11.804
22766SOL    HW270132   1.043   1.611  11.819
22767SOL     OW70133  11.145   9.908   5.730
22767SOL    HW170134  11.077   9.918   5.663
22767SOL    HW270135  11.195   9.831   5.702
22768SOL     OW70136   0.421   4.197   7.193
22768SOL    HW170137   0.451   4.262   7.129
22768SOL    HW270138   0.376   4.131   7.140
22769SOL     OW70139   4.949   2.280   3.087
22769SOL    HW170140   4.880   2.306   3.149
22769SOL    HW270141   5.029   2.280   3.139
22770SOL     OW70142   1.079  14.710   9.554
22770SOL    HW170143   1.057  14.640   9.616
22770SOL    HW270144   0.999  14.762   9.547
22771SOL     OW70145   3.569   2.960  10.807
22771SOL    HW170146   3.616   3.016  10.869
22771SOL    HW270147   3.631   2.891  10.784
22772SOL     OW70148   2.987   3.111   0.003
22772SOL    HW170149   2.941   3.195  14.871
22772SOL    HW270150   2.957   3.078   0.088
22773SOL     OW70151   7.197   2.464  12.673
22773SOL    HW170152   7.254   2.538  12.691
22773SOL    HW270153   7.112   2.503  12.655
22774SOL     OW70154  14.062   3.055  10.591
22774SOL    HW170155  13.996   2.986  10.600
22774SOL    HW270156  14.016   3.127  10.547
22775SOL     OW70157   2.620   6.684   7.357
22775SOL    HW170158   2.670   6.735   7.421
22775SOL    HW270159   2.609   6.599   7.398
22776SOL     OW70160   4.181   6.360   0.987
22776SOL    HW170161   4.242   6.302   0.942
22776SOL    HW270162   4.233   6.437   1.011
22777SOL     OW70163  12.115   4.565  14.458
22777SOL    HW170164  12.204   4.567  14.422
22777SOL    HW270165  12.107   4.478  14.498
22778SOL     OW70166   5.593  10.301  14.692
22778SOL    HW170167   5.682  10.267  14.689
22778SOL    HW270168   5.601  10.391  14.661
22779SOL     OW70169  11.988   5.890   7.661
22779SOL    HW170170  11.986   5.820   7.595
22779SOL    HW270171  12.012   5.845   7.742
22780SOL     OW70172   4.210   9.722   7.137
22780SOL    HW170173   4.144   9.730   7.206
22780SOL    HW270174   4.184   9.787   7.071
22781SOL     OW70175   7.278   2.767  13.957
22781SOL    HW170176   7.227   2.689  13.940
22781SOL    HW270177   7.214   2.832  13.987
22782SOL     OW70178  10.965   8.358   8.265
22782SOL    HW170179  10.968   8.345   8.360
22782SOL    HW270180  10.996   8.448   8.252
22783SOL     OW70181  14.449   4.620  12.082
22783SOL    HW170182  14.509   4.546  12.068
22783SOL    HW270183  14.477   4.657  12.165
22784SOL     OW70184   0.539  11.972   1.884
22784SOL    HW170185   0.492  11.892   1.910
22784SOL    HW270186   0.617  11.973   1.940
22785SOL     OW70187   0.694  11.916   0.119
22785SOL    HW170188   0.646  11.934   0.038
22785SOL    HW270189   0.634  11.941   0.189
22786SOL     OW70190   4.291   0.809   0.202
22786SOL    HW170191   4.264   0.887   0.251
22786SOL    HW270192   4.354   0.842   0.138
22787SOL     OW70193  10.551   6.427   4.794
22787SOL    HW170194  10.579   6.455   4.707
22787SOL    HW270195  10.471   6.377   4.779
22788SOL     OW70196   4.629   2.889  10.181
22788SOL    HW170197   4.664   2.969  10.219
22788SOL    HW270198   4.621   2.828  10.255
22789SOL     OW70199   3.241   7.497  12.393
22789SOL    HW170200   3.167   7.528  12.341
22789SOL    HW270201   3.315   7.495  12.332
22790SOL     OW70202   6.069   2.385  10.346
22790SOL    HW170203   5.981   2.404  10.378
22790SOL    HW270204   6.080   2.291  10.357
22791SOL     OW70205   6.950   9.610   8.300
22791SOL    HW170206   6.870   9.559   8.311
22791SOL    HW270207   6.936   9.690   8.351
22792SOL     OW70208   8.856   5.791  11.764
22792SOL    HW170209   8.829   5.823  11.678
22792SOL    HW270210   8.866   5.871  11.816
22793SOL     OW70211  10.294   1.148  11.627
22793SOL    HW170212  10.211   1.125  11.669
22793SOL    HW270213  10.359   1.090  11.668
22794SOL     OW70214   0.589   2.407   1.475
22794SOL    HW170215   0.596   2.501   1.489
22794SOL    HW270216   0.576   2.397   1.380
22795SOL     OW70217   7.257  10.681   2.184
22795SOL    HW170218   7.230  10.698   2.094
22795SOL    HW270219   7.193  10.727   2.237
22796SOL     OW70220  14.256   2.772   1.443
22796SOL    HW170221  14.310   2.716   1.498
22796SOL    HW270222  14.265   2.737   1.355
22797SOL     OW70223   3.875   5.347   5.694
22797SOL    HW170224   3.781   5.341   5.711
22797SOL    HW270225   3.915   5.302   5.769
22798SOL     OW70226   0.824   3.291  10.233
22798SOL    HW170227   0.897   3.242  10.271
22798SOL    HW270228   0.798   3.240  10.156
22799SOL     OW70229   0.242   1.672  11.007
22799SOL    HW170230   0.225   1.705  11.096
22799SOL    HW270231   0.216   1.580  11.010
22800SOL     OW70232   0.724  11.762  13.836
22800SOL    HW170233   0.648  11.810  13.802
22800SOL    HW270234   0.783  11.755  13.761
22801SOL     OW70235  14.313   0.481  12.234
22801SOL    HW170236  14.398   0.522  12.251
22801SOL    HW270237  14.250   0.548  12.258
22802SOL     OW70238   4.025   1.955  11.801
22802SOL    HW170239   4.101   1.917  11.758
22802SOL    HW270240   3.952   1.936  11.742
22803SOL     OW70241  11.020  12.455  12.930
22803SOL    HW170242  10.952  12.392  12.952
22803SOL    HW270243  11.042  12.435  12.839
22804SOL     OW70244   3.359   1.345   3.512
22804SOL    HW170245   3.328   1.330   3.423
22804SOL    HW270246   3.449   1.312   3.513
22805SOL     OW70247   9.767   9.246   2.661
22805SOL    HW170248   9.857   9.253   2.632
22805SOL    HW270249   9.773   9.234   2.755
22806SOL     OW70250  13.733   4.254   1.211
22806SOL    HW170251  13.684   4.203   1.275
22806SOL    HW270252  13.669   4.274   1.142
22807SOL     OW70253   9.520   6.049   1.941
22807SOL    HW170254   9.593   6.019   1.995
22807SOL    HW270255   9.443   6.039   1.998
22808SOL     OW70256   8.597   1.219   3.409
22808SOL    HW170257   8.603   1.228   3.504
22808SOL    HW270258   8.560   1.132   3.396
22809SOL     OW70259  13.540  13.691   4.736
22809SOL    HW170260  13.493  13.649   4.808
22809SOL    HW270261  13.503  13.779   4.731
22810SOL     OW70262   0.478  11.577   6.040
22810SOL    HW170263   0.403  11.539   5.994
22810SOL    HW270264   0.446  11.660   6.074
22811SOL     OW70265  10.031   3.846   7.276
22811SOL    HW170266  10.070   3.838   7.363
22811SOL    HW270267  10.000   3.936   7.272
22812SOL     OW70268   1.899   5.963  12.370
22812SOL    HW170269   1.913   5.939  12.462
22812SOL    HW270270   1.927   6.055  12.365
22813SOL     OW70271   7.447  10.614   4.493
22813SOL    HW170272   7.532  10.572   4.476
22813SOL    HW270273   7.468  10.693   4.543
22814SOL     OW70274   9.600   8.252   5.363
22814SOL    HW170275   9.572   8.281   5.277
22814SOL    HW270276   9.662   8.319   5.393
22815SOL     OW70277   3.829  14.149  10.192
22815SOL    HW170278   3.821  14.054  10.179
22815SOL    HW270279   3.792  14.164  10.279
22816SOL     OW70280  12.462   5.521  14.461
22816SOL    HW170281  12.441   5.573  14.539
22816SOL    HW270282  12.557   5.528  14.452
22817SOL     OW70283  10.775   1.052   7.823
22817SOL    HW170284  10.771   1.147   7.812
22817SOL    HW270285  10.708   1.032   7.889
22818SOL     OW70286  13.394   4.498   0.601
22818SOL    HW170287  13.315   4.537   0.564
22818SOL    HW270288  13.387   4.405   0.580
22819SOL     OW70289   6.013   2.601  14.616
22819SOL    HW170290   5.931   2.596  14.568
22819SOL    HW270291   6.080   2.615  14.549
22820SOL     OW70292   2.210  11.491  12.900
22820SOL    HW170293   2.153  11.520  12.829
22820SOL    HW270294   2.206  11.561  12.964
22821SOL     OW70295   9.956   8.948   7.178
22821SOL    HW170296   9.976   8.856   7.193
22821SOL    HW270297   9.940   8.954   7.084
22822SOL     OW70298  12.584  13.301  10.673
22822SOL    HW170299  12.511  13.358  10.647
22822SOL    HW270300  12.662  13.354  10.658
22823SOL     OW70301   7.328  10.424  12.930
22823SOL    HW170302   7.390  10.386  12.992
22823SOL    HW270303   7.361  10.512  12.912
22824SOL     OW70304   7.551   0.205   5.444
22824SOL    HW170305   7.471   0.240   5.403
22824SOL    HW270306   7.621   0.264   5.414
22825SOL     OW70307  10.309   7.573   9.924
22825SOL    HW170308  10.282   7.567   9.832
22825SOL    HW270309  10.231   7.605   9.970
22826SOL     OW70310   7.368   8.697  11.680
22826SOL    HW170311   7.393   8.729  11.767
22826SOL    HW270312   7.445   8.715  11.626
22827SOL     OW70313   8.700   6.605   5.765
22827SOL    HW170314   8.759   6.531   5.753
22827SOL    HW270315   8.755   6.682   5.750
22828SOL     OW70316   3.546   1.188   8.095
22828SOL    HW170317   3.496   1.138   8.031
22828SOL    HW270318   3.637   1.165   8.079
22829SOL     OW70319   8.875  11.182  11.038
22829SOL    HW170320   8.797  11.229  11.067
22829SOL    HW270321   8.914  11.149  11.120
22830SOL     OW70322  11.717   0.656  13.686
22830SOL    HW170323  11.728   0.581  13.627
22830SOL    HW270324  11.686   0.727  13.629
22831SOL     OW70325   8.807   7.231  12.032
22831SOL    HW170326   8.807   7.168  11.960
22831SOL    HW270327   8.869   7.195  12.095
22832SOL     OW70328   7.713  12.567  11.193
22832SOL    HW170329   7.779  12.624  11.154
22832SOL    HW270330   7.723  12.581  11.288
22833SOL     OW70331   9.361  14.489   1.873
22833SOL    HW170332   9.408  14.546   1.813
22833SOL    HW270333   9.322  14.548   1.938
22834SOL     OW70334   3.042   5.778   8.752
22834SOL    HW170335   3.003   5.827   8.825
22834SOL    HW270336   3.134   5.770   8.776
22835SOL     OW70337   0.499   1.787   4.306
22835SOL    HW170338   0.560   1.724   4.269
22835SOL    HW270339   0.542   1.872   4.293
22836SOL     OW70340   0.286   9.203  13.913
22836SOL    HW170341   0.312   9.293  13.895
22836SOL    HW270342   0.262   9.168  13.827
22837SOL     OW70343   2.792   1.761  14.577
22837SOL    HW170344   2.828   1.685  14.623
22837SOL    HW270345   2.857   1.782  14.511
22838SOL     OW70346   5.648   0.359   3.580
22838SOL    HW170347   5.559   0.344   3.548
22838SOL    HW270348   5.698   0.284   3.548
22839SOL     OW70349  11.322  14.215  13.107
22839SOL    HW170350  11.370  14.225  13.189
22839SOL    HW270351  11.375  14.263  13.043
22840SOL     OW70352  14.764   9.979   2.257
22840SOL    HW170353  14.832  10.016   2.314
22840SOL    HW270354  14.747   9.893   2.295
22841SOL     OW70355   6.324   7.010   0.355
22841SOL    HW170356   6.318   7.093   0.307
22841SOL    HW270357   6.418   6.997   0.368
22842SOL     OW70358   9.832   2.869  11.604
22842SOL    HW170359   9.770   2.934  11.638
22842SOL    HW270360   9.914   2.889  11.650
22843SOL     OW70361   3.124   8.164   4.534
22843SOL    HW170362   3.049   8.168   4.475
22843SOL    HW270363   3.200   8.162   4.475
22844SOL     OW70364  10.760   3.297  11.310
22844SOL    HW170365  10.721   3.376  11.347
22844SOL    HW270366  10.790   3.324  11.223
22845SOL     OW70367   5.255   8.296  10.989
22845SOL    HW170368   5.231   8.322  11.078
22845SOL    HW270369   5.298   8.373  10.952
22846SOL     OW70370  13.260   7.283   9.805
22846SOL    HW170371  13.254   7.275   9.710
22846SOL    HW270372  13.184   7.235   9.838
22847SOL     OW70373   0.342   2.877   7.806
22847SOL    HW170374   0.373   2.961   7.841
22847SOL    HW270375   0.301   2.833   7.880
22848SOL     OW70376   9.442  11.110   3.924
22848SOL    HW170377   9.518  11.066   3.963
22848SOL    HW270378   9.452  11.098   3.830
22849SOL     OW70379   8.108   2.496   8.482
22849SOL    HW170380   8.069   2.578   8.451
22849SOL    HW270381   8.043   2.460   8.543
22850SOL     OW70382   0.678   6.885   0.226
22850SOL    HW170383   0.679   6.849   0.137
22850SOL    HW270384   0.735   6.826   0.276
22851SOL     OW70385   7.946   9.493   4.333
22851SOL    HW170386   7.937   9.430   4.404
22851SOL    HW270387   7.900   9.453   4.259
22852SOL     OW70388   9.224   0.522   5.272
22852SOL    HW170389   9.186   0.593   5.323
22852SOL    HW270390   9.208   0.444   5.325
22853SOL     OW70391   6.456   6.522   5.688
22853SOL    HW170392   6.533   6.477   5.722
22853SOL    HW270393   6.422   6.571   5.763
22854SOL     OW70394   6.947   4.262   1.306
22854SOL    HW170395   7.015   4.292   1.246
22854SOL    HW270396   6.982   4.182   1.344
22855SOL     OW70397   3.897   2.237   7.202
22855SOL    HW170398   3.864   2.327   7.213
22855SOL    HW270399   3.827   2.182   7.236
22856SOL     OW70400   9.678  14.022   4.762
22856SOL    HW170401   9.611  13.958   4.786
22856SOL    HW270402   9.663  14.095   4.823
22857SOL     OW70403  10.611   7.518   5.543
22857SOL    HW170404  10.660   7.594   5.510
22857SOL    HW270405  10.646   7.504   5.632
22858SOL     OW70406  14.558  12.389   8.669
22858SOL    HW170407  14.479  12.349   8.705
22858SOL    HW270408  14.578  12.460   8.730
22859SOL     OW70409   8.479   6.044  14.665
22859SOL    HW170410   8.510   6.116  14.721
22859SOL    HW270411   8.389   6.030  14.692
22860SOL     OW70412   7.609   0.216   5.753
22860SOL    HW170413   7.533   0.270   5.773
22860SOL    HW270414   7.594   0.183   5.665
22861SOL     OW70415  11.429   6.350   9.197
22861SOL    HW170416  11.444   6.274   9.254
22861SOL    HW270417  11.335   6.365   9.201
22862SOL     OW70418  12.352   4.770   0.038
22862SOL    HW170419  12.376   4.861   0.053
22862SOL    HW270420  12.430   4.720   0.062
22863SOL     OW70421   2.574   8.346  11.839
22863SOL    HW170422   2.588   8.440  11.851
22863SOL    HW270423   2.627   8.306  11.908
22864SOL     OW70424  13.580   2.127  13.196
22864SOL    HW170425  13.660   2.097  13.153
22864SOL    HW270426  13.533   2.047  13.217
22865SOL     OW70427   1.884   2.774  13.619
22865SOL    HW170428   1.800   2.737  13.645
22865SOL    HW270429   1.868   2.868  13.615
22866SOL     OW70430   8.192   9.653   7.561
22866SOL    HW170431   8.256   9.709   7.603
22866SOL    HW270432   8.109   9.676   7.602
22867SOL     OW70433   6.229   6.806  13.113
22867SOL    HW170434   6.240   6.895  13.149
22867SOL    HW270435   6.318   6.777  13.094
22868SOL     OW70436   9.183   4.728  10.950
22868SOL    HW170437   9.135   4.733  10.867
22868SOL    HW270438   9.117   4.704  11.015
22869SOL     OW70439  13.436   6.900   0.662
22869SOL    HW170440  13.481   6.928   0.743
22869SOL    HW270441  13.507   6.878   0.602
22870SOL     OW70442  10.464   2.519   3.412
22870SOL    HW170443  10.494   2.434   3.443
22870SOL    HW270444  10.369   2.509   3.404
22871SOL     OW70445  10.198   5.561   5.911
22871SOL    HW170446  10.132   5.503   5.873
22871SOL    HW270447  10.232   5.611   5.836
22872SOL     OW70448   3.123   7.405   1.468
22872SOL    HW170449   3.179   7.444   1.535
22872SOL    HW270450   3.048   7.463   1.462
22873SOL     OW70451   6.493  13.370   9.618
22873SOL    HW170452   6.401  13.394   9.628
22873SOL    HW270453   6.515  13.325   9.700
22874SOL     OW70454   0.945   2.320   4.225
22874SOL    HW170455   0.935   2.225   4.225
22874SOL    HW270456   1.036   2.334   4.250
22875SOL     OW70457   7.811   8.188   5.314
22875SOL    HW170458   7.723   8.151   5.307
22875SOL    HW270459   7.868   8.118   5.283
22876SOL     OW70460  13.917   0.014  13.971
22876SOL    HW170461  13.966   0.056  14.041
22876SOL    HW270462  13.866  14.825  14.015
22877SOL     OW70463   0.163  14.249  13.846
22877SOL    HW170464   0.077  14.291  13.839
22877SOL    HW270465   0.198  14.251  13.757
22878SOL     OW70466   9.604   6.961   5.848
22878SOL    HW170467   9.600   7.052   5.877
22878SOL    HW270468   9.679   6.958   5.788
22879SOL     OW70469  13.957   4.604   5.285
22879SOL    HW170470  13.896   4.643   5.223
22879SOL    HW270471  13.915   4.613   5.370
22880SOL     OW70472  10.881   1.856  14.752
22880SOL    HW170473  10.790   1.834  14.735
22880SOL    HW270474  10.883   1.877  14.846
22881SOL     OW70475  14.179   7.165   8.938
22881SOL    HW170476  14.222   7.092   8.894
22881SOL    HW270477  14.250   7.214   8.980
22882SOL     OW70478   2.993   1.117  11.939
22882SOL    HW170479   2.959   1.039  11.895
22882SOL    HW270480   3.088   1.111  11.926
22883SOL     OW70481   6.794   6.904   3.851
22883SOL    HW170482   6.829   6.953   3.777
22883SOL    HW270483   6.867   6.897   3.913
22884SOL     OW70484   0.584   2.677  13.322
22884SOL    HW170485   0.507   2.686  13.378
22884SOL    HW270486   0.638   2.611  13.365
22885SOL     OW70487   8.584   7.270  12.238
22885SOL    HW170488   8.540   7.218  12.305
22885SOL    HW270489   8.604   7.208  12.168
22886SOL     OW70490   1.584  10.616  14.683
22886SOL    HW170491   1.635  10.688  14.720
22886SOL    HW270492   1.500  10.619  14.730
22887SOL     OW70493   8.671   4.900  11.128
22887SOL    HW170494   8.683   4.855  11.045
22887SOL    HW270495   8.638   4.833  11.188
22888SOL     OW70496  13.597   8.733   4.646
22888SOL    HW170497  13.597   8.638   4.643
22888SOL    HW270498  13.688   8.759   4.638
22889SOL     OW70499   0.969   3.863   4.164
22889SOL    HW170500   0.962   3.779   4.120
22889SOL    HW270501   0.896   3.915   4.129
22890SOL     OW70502   5.354  14.413   9.912
22890SOL    HW170503   5.333  14.466   9.989
22890SOL    HW270504   5.338  14.323   9.940
22891SOL     OW70505  10.158   1.749   7.633
22891SOL    HW170506  10.172   1.787   7.547
22891SOL    HW270507  10.244   1.750   7.674
22892SOL     OW70508   2.110   1.307   0.523
22892SOL    HW170509   2.059   1.310   0.443
22892SOL    HW270510   2.044   1.294   0.592
22893SOL     OW70511  11.688  12.695   7.016
22893SOL    HW170512  11.739  12.631   6.967
22893SOL    HW270513  11.733  12.700   7.101
22894SOL     OW70514  13.901   2.120  13.616
22894SOL    HW170515  13.863   2.202  13.583
22894SOL    HW270516  13.882   2.056  13.548
22895SOL     OW70517  10.784   5.364   1.531
22895SOL    HW170518  10.860   5.402   1.489
22895SOL    HW270519  10.731   5.329   1.459
22896SOL     OW70520   6.531  13.160   9.448
22896SOL    HW170521   6.621  13.133   9.463
22896SOL    HW270522   6.518  13.236   9.506
22897SOL     OW70523   8.975  12.754  14.198
22897SOL    HW170524   8.969  12.669  14.243
22897SOL    HW270525   8.911  12.748  14.127
22898SOL     OW70526  13.086   6.600   6.637
22898SOL    HW170527  13.107   6.574   6.547
22898SOL    HW270528  13.141   6.675   6.654
22899SOL     OW70529   6.283   0.836  10.816
22899SOL    HW170530   6.305   0.743  10.808
22899SOL    HW270531   6.336   0.879  10.749
22900SOL     OW70532   7.177   9.714  11.001
22900SOL    HW170533   7.114   9.736  11.070
22900SOL    HW270534   7.256   9.689  11.047
22901SOL     OW70535  11.890   1.781   2.289
22901SOL    HW170536  11.875   1.692   2.320
22901SOL    HW270537  11.986   1.789   2.284
22902SOL     OW70538   8.527  10.283   9.326
22902SOL    HW170539   8.517  10.317   9.415
22902SOL    HW270540   8.438  10.260   9.298
22903SOL     OW70541   9.490  11.881   0.494
22903SOL    HW170542   9.459  11.845   0.577
22903SOL    HW270543   9.584  11.864   0.494
22904SOL     OW70544   3.170   3.180   4.693
22904SOL    HW170545   3.237   3.132   4.742
22904SOL    HW270546   3.152   3.258   4.745
22905SOL     OW70547   7.231   6.391  13.377
22905SOL    HW170548   7.264   6.309  13.414
22905SOL    HW270549   7.224   6.374  13.283
22906SOL     OW70550   0.767  13.169   3.607
22906SOL    HW170551   0.707  13.100   3.578
22906SOL    HW270552   0.850  13.149   3.564
22907SOL     OW70553   2.850   9.099   1.096
22907SOL    HW170554   2.864   9.151   1.175
22907SOL    HW270555   2.756   9.083   1.094
22908SOL     OW70556  11.702   3.413   2.235
22908SOL    HW170557  11.670   3.502   2.249
22908SOL    HW270558  11.772   3.423   2.170
22909SOL     OW70559   5.486   5.301   4.635
22909SOL    HW170560   5.541   5.246   4.691
22909SOL    HW270561   5.409   5.246   4.616
22910SOL     OW70562   0.401   4.349   8.039
22910SOL    HW170563   0.343   4.319   8.108
22910SOL    HW270564   0.483   4.371   8.084
22911SOL     OW70565  14.153   3.827   4.380
22911SOL    HW170566  14.178   3.741   4.346
22911SOL    HW270567  14.153   3.884   4.303
22912SOL     OW70568  11.068  12.170   8.690
22912SOL    HW170569  11.095  12.189   8.779
22912SOL    HW270570  11.007  12.240   8.667
22913SOL     OW70571  11.053   3.349  12.006
22913SOL    HW170572  11.111   3.423  12.024
22913SOL    HW270573  10.983   3.386  11.952
22914SOL     OW70574  14.201  10.761   5.652
22914SOL    HW170575  14.266  10.717   5.597
22914SOL    HW270576  14.219  10.730   5.741
22915SOL     OW70577   7.034   1.058   1.845
22915SOL    HW170578   7.038   1.153   1.836
22915SOL    HW270579   6.982   1.044   1.925
22916SOL     OW70580   3.352   4.226   2.532
22916SOL    HW170581   3.333   4.281   2.457
22916SOL    HW270582   3.429   4.266   2.573
22917SOL     OW70583   5.632  12.118  12.899
22917SOL    HW170584   5.621  12.137  12.993
22917SOL    HW270585   5.716  12.073  12.894
22918SOL     OW70586   9.637  10.443   7.672
22918SOL    HW170587   9.665  10.518   7.621
22918SOL    HW270588   9.594  10.480   7.749
22919SOL     OW70589  11.852  13.152   3.964
22919SOL    HW170590  11.757  13.147   3.954
22919SOL    HW270591  11.885  13.157   3.874
22920SOL     OW70592   0.791   8.601  12.168
22920SOL    HW170593   0.865   8.629  12.221
22920SOL    HW270594   0.715   8.644  12.208
22921SOL     OW70595  12.702  10.814  11.532
22921SOL    HW170596  12.762  10.871  11.580
22921SOL    HW270597  12.668  10.754  11.597
22922SOL     OW70598   6.169   9.180   1.237
22922SOL    HW170599   6.207   9.215   1.156
22922SOL    HW270600   6.214   9.096   1.250
22923SOL     OW70601   3.708   9.484   1.576
22923SOL    HW170602   3.729   9.459   1.666
22923SOL    HW270603   3.788   9.467   1.527
22924SOL     OW70604   0.429   7.155   7.754
22924SOL    HW170605   0.383   7.223   7.802
22924SOL    HW270606   0.398   7.163   7.664
22925SOL     OW70607   8.318   0.903   6.571
22925SOL    HW170608   8.257   0.880   6.641
22925SOL    HW270609   8.292   0.849   6.497
22926SOL     OW70610  12.145  11.175   1.312
22926SOL    HW170611  12.237  11.152   1.303
22926SOL    HW270612  12.101  11.092   1.328
22927SOL     OW70613   9.298  10.346   7.967
22927SOL    HW170614   9.296  10.332   7.872
22927SOL    HW270615   9.373  10.293   7.997
22928SOL     OW70616  13.910   3.587  11.133
22928SOL    HW170617  13.869   3.530  11.198
22928SOL    HW270618  13.860   3.573  11.053
22929SOL     OW70619  11.982   0.332   5.229
22929SOL    HW170620  12.020   0.413   5.264
22929SOL    HW270621  11.914   0.309   5.292
22930SOL     OW70622   2.942  10.223  11.802
22930SOL    HW170623   2.982  10.143  11.835
22930SOL    HW270624   2.923  10.275  11.880
22931SOL     OW70625  10.794   4.405   9.353
22931SOL    HW170626  10.709   4.448   9.343
22931SOL    HW270627  10.781   4.340   9.422
22932SOL     OW70628   6.204   4.643   6.189
22932SOL    HW170629   6.162   4.657   6.274
22932SOL    HW270630   6.288   4.604   6.210
22933SOL     OW70631  12.113   3.650   7.970
22933SOL    HW170632  12.074   3.695   7.894
22933SOL    HW270633  12.062   3.570   7.979
22934SOL     OW70634   7.951   0.097  14.624
22934SOL    HW170635   8.039   0.077  14.592
22934SOL    HW270636   7.960   0.181  14.669
22935SOL     OW70637   5.463  11.287   5.882
22935SOL    HW170638   5.487  11.200   5.851
22935SOL    HW270639   5.516  11.300   5.960
22936SOL     OW70640  13.624  13.594   6.607
22936SOL    HW170641  13.594  13.549   6.528
22936SOL    HW270642  13.705  13.549   6.631
22937SOL     OW70643  14.464  10.486   7.551
22937SOL    HW170644  14.440  10.508   7.642
22937SOL    HW270645  14.382  10.492   7.503
22938SOL     OW70646   2.737  13.712   3.769
22938SOL    HW170647   2.732  13.630   3.719
22938SOL    HW270648   2.649  13.749   3.764
22939SOL     OW70649   1.571   1.178   8.201
22939SOL    HW170650   1.511   1.222   8.260
22939SOL    HW270651   1.640   1.144   8.258
22940SOL     OW70652  14.676  12.550   0.033
22940SOL    HW170653  14.748  12.577  14.855
22940SOL    HW270654  14.711  12.558   0.122
22941SOL     OW70655   1.917   1.976   1.957
22941SOL    HW170656   1.856   1.903   1.962
22941SOL    HW270657   1.919   1.999   1.864
22942SOL     OW70658   4.795  10.070   6.355
22942SOL    HW170659   4.783   9.983   6.318
22942SOL    HW270660   4.834  10.122   6.285
22943SOL     OW70661   0.213   2.728   8.306
22943SOL    HW170662   0.125   2.722   8.341
22943SOL    HW270663   0.252   2.643   8.324
22944SOL     OW70664   0.508   9.213  13.248
22944SOL    HW170665   0.432   9.171  13.290
22944SOL    HW270666   0.521   9.163  13.167
22945SOL     OW70667   9.636   0.277   3.477
22945SOL    HW170668   9.570   0.224   3.523
22945SOL    HW270669   9.585   0.341   3.428
22946SOL     OW70670   0.498   1.192   2.739
22946SOL    HW170671   0.432   1.198   2.670
22946SOL    HW270672   0.579   1.221   2.696
22947SOL     OW70673  11.593   1.534  11.354
22947SOL    HW170674  11.578   1.512  11.446
22947SOL    HW270675  11.614   1.627  11.355
22948SOL     OW70676   3.500   0.750   1.861
22948SOL    HW170677   3.471   0.688   1.795
22948SOL    HW270678   3.548   0.696   1.925
22949SOL     OW70679   0.166   3.921   4.923
22949SOL    HW170680   0.189   3.959   5.008
22949SOL    HW270681   0.130   3.995   4.873
22950SOL     OW70682   2.611  11.415  10.332
22950SOL    HW170683   2.573  11.466  10.261
22950SOL    HW270684   2.700  11.397  10.305
22951SOL     OW70685  13.728  13.501   3.630
22951SOL    HW170686  13.653  13.445   3.614
22951SOL    HW270687  13.749  13.487   3.723
22952SOL     OW70688   5.514  13.384   3.652
22952SOL    HW170689   5.499  13.310   3.593
22952SOL    HW270690   5.585  13.433   3.611
22953SOL     OW70691   9.289   7.353   8.031
22953SOL    HW170692   9.361   7.327   8.089
22953SOL    HW270693   9.315   7.322   7.944
22954SOL     OW70694   3.018  12.505   9.460
22954SOL    HW170695   3.077  12.498   9.535
22954SOL    HW270696   3.068  12.554   9.395
22955SOL     OW70697   5.182   4.804   1.794
22955SOL    HW170698   5.139   4.719   1.804
22955SOL    HW270699   5.275   4.783   1.792
22956SOL     OW70700   1.232   7.031  13.885
22956SOL    HW170701   1.238   7.108  13.827
22956SOL    HW270702   1.146   7.038  13.925
22957SOL     OW70703   8.250   6.936   3.426
22957SOL    HW170704   8.309   6.903   3.494
22957SOL    HW270705   8.188   6.991   3.472
22958SOL     OW70706   0.890   4.952   4.518
22958SOL    HW170707   0.912   4.862   4.497
22958SOL    HW270708   0.956   5.004   4.473
22959SOL     OW70709   3.463   2.134  12.688
22959SOL    HW170710   3.518   2.061  12.661
22959SOL    HW270711   3.462   2.193  12.612
22960SOL     OW70712   8.754  12.149  13.847
22960SOL    HW170713   8.808  12.145  13.926
22960SOL    HW270714   8.809  12.113  13.778
22961SOL     OW70715  14.788   1.120   9.587
22961SOL    HW170716  14.868   1.071   9.603
22961SOL    HW270717  14.764   1.155   9.672
22962SOL     OW70718   9.987   9.626   4.331
22962SOL    HW170719  10.029   9.680   4.398
22962SOL    HW270720   9.919   9.682   4.294
22963SOL     OW70721  12.936  11.044   0.483
22963SOL    HW170722  13.016  11.001   0.514
22963SOL    HW270723  12.967  11.111   0.422
22964SOL     OW70724   0.889   7.599  14.685
22964SOL    HW170725   0.982   7.607  14.661
22964SOL    HW270726   0.888   7.612  14.780
22965SOL     OW70727  11.831   8.079   3.623
22965SOL    HW170728  11.779   8.010   3.663
22965SOL    HW270729  11.825   8.152   3.685
22966SOL     OW70730   0.552  10.776   0.481
22966SOL    HW170731   0.471  10.747   0.522
22966SOL    HW270732   0.618  10.768   0.550
22967SOL     OW70733  11.101   2.543  11.329
22967SOL    HW170734  11.113   2.634  11.357
22967SOL    HW270735  11.075   2.551  11.237
22968SOL     OW70736   5.401   8.557   0.566
22968SOL    HW170737   5.484   8.516   0.540
22968SOL    HW270738   5.427   8.642   0.601
22969SOL     OW70739  13.914   4.099   5.156
22969SOL    HW170740  13.902   4.092   5.061
22969SOL    HW270741  13.975   4.172   5.167
22970SOL     OW70742  11.539  14.513  11.031
22970SOL    HW170743  11.496  14.588  11.071
22970SOL    HW270744  11.570  14.460  11.105
22971SOL     OW70745  13.413  13.975   6.885
22971SOL    HW170746  13.491  13.921   6.877
22971SOL    HW270747  13.440  14.061   6.851
22972SOL     OW70748   5.194   0.071  14.604
22972SOL    HW170749   5.256   0.071  14.677
22972SOL    HW270750   5.140   0.149  14.619
22973SOL     OW70751   5.247   2.166   4.559
22973SOL    HW170752   5.223   2.205   4.474
22973SOL    HW270753   5.164   2.133   4.594
22974SOL     OW70754   2.387  11.875   9.290
22974SOL    HW170755   2.399  11.942   9.222
22974SOL    HW270756   2.354  11.798   9.243
22975SOL     OW70757   0.683   4.943   7.834
22975SOL    HW170758   0.711   4.921   7.923
22975SOL    HW270759   0.591   4.921   7.831
22976SOL     OW70760   7.418  10.839   0.594
22976SOL    HW170761   7.462  10.924   0.602
22976SOL    HW270762   7.415  10.805   0.683
22977SOL     OW70763   0.262  12.523   3.718
22977SOL    HW170764   0.248  12.456   3.652
22977SOL    HW270765   0.221  12.602   3.681
22978SOL     OW70766   5.854   9.504   9.898
22978SOL    HW170767   5.782   9.459   9.942
22978SOL    HW270768   5.817   9.586   9.867
22979SOL     OW70769   9.037   6.246   6.169
22979SOL    HW170770   9.127   6.276   6.158
22979SOL    HW270771   9.007   6.228   6.080
22980SOL     OW70772   6.508   8.585   1.686
22980SOL    HW170773   6.485   8.676   1.702
22980SOL    HW270774   6.513   8.577   1.591
22981SOL     OW70775   6.360  10.107  14.851
22981SOL    HW170776   6.418  10.110   0.049
22981SOL    HW270777   6.272  10.111   0.009
22982SOL     OW70778   5.277  11.301  12.957
22982SOL    HW170779   5.238  11.381  12.992
22982SOL    HW270780   5.249  11.299  12.865
22983SOL     OW70781   0.092   6.541   0.449
22983SOL    HW170782   0.139   6.623   0.434
22983SOL    HW270783   0.119   6.513   0.536
22984SOL     OW70784  10.414   6.811   9.583
22984SOL    HW170785  10.485   6.765   9.538
22984SOL    HW270786  10.450   6.898   9.601
22985SOL     OW70787   1.800  11.877   9.535
22985SOL    HW170788   1.850  11.959   9.538
22985SOL    HW270789   1.713  11.904   9.506
22986SOL     OW70790   1.605  13.185   1.646
22986SOL    HW170791   1.696  13.206   1.628
22986SOL    HW270792   1.599  13.183   1.742
22987SOL     OW70793   3.518  13.745  11.086
22987SOL    HW170794   3.505  13.694  11.166
22987SOL    HW270795   3.551  13.829  11.117
22988SOL     OW70796   6.755  13.501  13.640
22988SOL    HW170797   6.802  13.504  13.723
22988SOL    HW270798   6.690  13.571  13.647
22989SOL     OW70799   7.466   4.005   1.834
22989SOL    HW170800   7.497   4.090   1.803
22989SOL    HW270801   7.380   4.023   1.871
22990SOL     OW70802   1.146   7.193   0.712
22990SOL    HW170803   1.128   7.109   0.756
22990SOL    HW270804   1.201   7.240   0.775
22991SOL     OW70805   4.398   6.815   5.481
22991SOL    HW170806   4.330   6.754   5.453
22991SOL    HW270807   4.372   6.841   5.569
22992SOL     OW70808   1.965  14.034  13.676
22992SOL    HW170809   2.000  13.991  13.754
22992SOL    HW270810   2.042  14.075  13.636
22993SOL     OW70811   9.064   3.434  12.416
22993SOL    HW170812   9.080   3.342  12.435
22993SOL    HW270813   9.106   3.481  12.488
22994SOL     OW70814  13.110   7.443  13.775
22994SOL    HW170815  13.155   7.465  13.856
22994SOL    HW270816  13.023   7.482  13.785
22995SOL     OW70817   9.393  11.098  10.127
22995SOL    HW170818   9.462  11.068  10.186
22995SOL    HW270819   9.341  11.158  10.180
22996SOL     OW70820  11.996  14.580   8.551
22996SOL    HW170821  11.955  14.503   8.513
22996SOL    HW270822  11.924  14.629   8.591
22997SOL     OW70823   1.908  13.864   3.979
22997SOL    HW170824   1.815  13.843   3.986
22997SOL    HW270825   1.935  13.828   3.895
22998SOL     OW70826  11.351  10.383   3.372
22998SOL    HW170827  11.382  10.327   3.301
22998SOL    HW270828  11.265  10.347   3.394
22999SOL     OW70829  13.740   5.529   1.559
22999SOL    HW170830  13.758   5.549   1.467
22999SOL    HW270831  13.756   5.435   1.566
23000SOL     OW70832   5.515  11.407   1.539
23000SOL    HW170833   5.483  11.359   1.462
23000SOL    HW270834   5.494  11.498   1.520
23001SOL     OW70835   5.445  12.136   4.420
23001SOL    HW170836   5.385  12.146   4.346
23001SOL    HW270837   5.423  12.050   4.457
23002SOL     OW70838   9.921   8.422   3.761
23002SOL    HW170839   9.891   8.493   3.705
23002SOL    HW270840   9.919   8.459   3.850
23003SOL     OW70841   2.450   8.139   4.554
23003SOL    HW170842   2.469   8.048   4.578
23003SOL    HW270843   2.429   8.135   4.461
23004SOL     OW70844   0.503  11.719   3.910
23004SOL    HW170845   0.574  11.735   3.972
23004SOL    HW270846   0.513  11.627   3.885
23005SOL     OW70847   9.823   7.164   1.917
23005SOL    HW170848   9.878   7.184   1.841
23005SOL    HW270849   9.867   7.090   1.959
23006SOL     OW70850   2.771   8.611   7.389
23006SOL    HW170851   2.831   8.633   7.460
23006SOL    HW270852   2.828   8.608   7.311
23007SOL     OW70853  10.734   9.782  10.853
23007SOL    HW170854  10.760   9.693  10.829
23007SOL    HW270855  10.800   9.838  10.812
23008SOL     OW70856   1.896   2.889  11.915
23008SOL    HW170857   1.992   2.888  11.913
23008SOL    HW270858   1.873   2.974  11.878
23009SOL     OW70859   1.354  11.821   2.919
23009SOL    HW170860   1.289  11.841   2.852
23009SOL    HW270861   1.314  11.750   2.970
23010SOL     OW70862   3.203   6.961   8.713
23010SOL    HW170863   3.140   6.891   8.729
23010SOL    HW270864   3.149   7.037   8.689
23011SOL     OW70865   0.049  14.671   8.357
23011SOL    HW170866   0.089  14.654   8.271
23011SOL    HW270867  14.836  14.691   8.337
23012SOL     OW70868  10.152   7.492   9.130
23012SOL    HW170869  10.073   7.500   9.077
23012SOL    HW270870  10.119   7.476   9.219
23013SOL     OW70871   9.315   7.438   7.185
23013SOL    HW170872   9.314   7.403   7.096
23013SOL    HW270873   9.256   7.381   7.234
23014SOL     OW70874  13.737   5.886   9.260
23014SOL    HW170875  13.798   5.847   9.323
23014SOL    HW270876  13.679   5.814   9.235
23015SOL     OW70877   3.973   5.980   2.797
23015SOL    HW170878   3.889   6.008   2.833
23015SOL    HW270879   3.998   5.904   2.850
23016SOL     OW70880   7.594  13.151   5.116
23016SOL    HW170881   7.531  13.081   5.105
23016SOL    HW270882   7.679  13.110   5.101
23017SOL     OW70883  11.988   6.768   7.021
23017SOL    HW170884  12.057   6.828   7.050
23017SOL    HW270885  11.996   6.766   6.925
23018SOL     OW70886   2.343   3.963   6.788
23018SOL    HW170887   2.385   3.960   6.874
23018SOL    HW270888   2.413   3.985   6.727
23019SOL     OW70889   6.570  14.363  14.110
23019SOL    HW170890   6.505  14.312  14.159
23019SOL    HW270891   6.542  14.454  14.121
23020SOL     OW70892   9.048   4.832   7.945
23020SOL    HW170893   9.142   4.841   7.926
23020SOL    HW270894   9.037   4.872   8.031
23021SOL     OW70895   3.221  11.786  13.085
23021SOL    HW170896   3.266  11.870  13.097
23021SOL    HW270897   3.268  11.726  13.142
23022SOL     OW70898  12.435   3.195   0.255
23022SOL    HW170899  12.347   3.189   0.290
23022SOL    HW270900  12.477   3.265   0.306
23023SOL     OW70901  13.867   3.639   9.559
23023SOL    HW170902  13.884   3.730   9.583
23023SOL    HW270903  13.939   3.590   9.599
23024SOL     OW70904  14.025   7.999  13.152
23024SOL    HW170905  13.950   8.010  13.210
23024SOL    HW270906  14.066   7.918  13.182
23025SOL     OW70907   4.594   9.946   8.085
23025SOL    HW170908   4.538   9.924   8.159
23025SOL    HW270909   4.540  10.005   8.032
23026SOL     OW70910  12.736   0.618   9.440
23026SOL    HW170911  12.677   0.609   9.366
23026SOL    HW270912  12.681   0.605   9.517
23027SOL     OW70913  12.804   6.177  11.103
23027SOL    HW170914  12.756   6.220  11.174
23027SOL    HW270915  12.819   6.088  11.135
23028SOL     OW70916  10.338   1.364   4.044
23028SOL    HW170917  10.300   1.308   4.111
23028SOL    HW270918  10.269   1.374   3.978
23029SOL     OW70919  11.133  11.023  14.713
23029SOL    HW170920  11.152  11.114  14.690
23029SOL    HW270921  11.039  11.022  14.732
23030SOL     OW70922   5.798   7.416   3.856
23030SOL    HW170923   5.851   7.347   3.816
23030SOL    HW270924   5.860   7.466   3.910
23031SOL     OW70925   5.372   7.807   8.763
23031SOL    HW170926   5.419   7.801   8.680
23031SOL    HW270927   5.284   7.838   8.739
23032SOL     OW70928   2.926  14.752  11.358
23032SOL    HW170929   3.007  14.781  11.400
23032SOL    HW270930   2.916  14.809  11.283
23033SOL     OW70931  10.973  10.976   2.022
23033SOL    HW170932  10.888  10.961   1.980
23033SOL    HW270933  10.965  11.063   2.061
23034SOL     OW70934   0.405  14.650  14.367
23034SOL    HW170935   0.417  14.556  14.354
23034SOL    HW270936   0.341  14.676  14.300
23035SOL     OW70937  13.685   9.308   0.157
23035SOL    HW170938  13.682   9.362   0.078
23035SOL    HW270939  13.777   9.284   0.166
23036SOL     OW70940   7.664   7.205   3.837
23036SOL    HW170941   7.746   7.225   3.882
23036SOL    HW270942   7.597   7.246   3.891
23037SOL     OW70943  11.336   1.848   5.502
23037SOL    HW170944  11.318   1.931   5.547
23037SOL    HW270945  11.250   1.813   5.480
23038SOL     OW70946   4.029   6.465   2.166
23038SOL    HW170947   4.018   6.375   2.135
23038SOL    HW270948   4.054   6.514   2.088
23039SOL     OW70949   6.908  10.241   0.721
23039SOL    HW170950   6.976  10.294   0.762
23039SOL    HW270951   6.882  10.292   0.643
23040SOL     OW70952   2.977  13.825   3.500
23040SOL    HW170953   2.918  13.878   3.445
23040SOL    HW270954   2.928  13.745   3.517
23041SOL     OW70955   6.253  13.533  10.982
23041SOL    HW170956   6.205  13.506  11.060
23041SOL    HW270957   6.189  13.523  10.911
23042SOL     OW70958  14.395   1.873   1.932
23042SOL    HW170959  14.416   1.910   1.846
23042SOL    HW270960  14.472   1.823   1.956
23043SOL     OW70961   4.515   1.662   4.045
23043SOL    HW170962   4.432   1.636   4.005
23043SOL    HW270963   4.492   1.686   4.135
23044SOL     OW70964   1.232   3.841  12.129
23044SOL    HW170965   1.231   3.933  12.103
23044SOL    HW270966   1.325   3.820  12.143
23045SOL     OW70967  14.841   4.385   7.341
23045SOL    HW170968  14.842   4.424   7.253
23045SOL    HW270969   0.047   4.340   7.348
23046SOL     OW70970   0.590  13.403   8.705
23046SOL    HW170971   0.622  13.402   8.796
23046SOL    HW270972   0.658  13.358   8.655
23047SOL     OW70973  14.749  13.718   1.883
23047SOL    HW170974  14.808  13.722   1.958
23047SOL    HW270975  14.806  13.729   1.807
23048SOL     OW70976  14.777   3.330   6.635
23048SOL    HW170977  14.759   3.236   6.630
23048SOL    HW270978  14.716   3.370   6.573
23049SOL     OW70979   5.858  13.349   4.049
23049SOL    HW170980   5.871  13.443   4.064
23049SOL    HW270981   5.947  13.314   4.041
23050SOL     OW70982   7.798   1.266   5.272
23050SOL    HW170983   7.887   1.299   5.263
23050SOL    HW270984   7.805   1.172   5.257
23051SOL     OW70985   9.372   4.220   1.470
23051SOL    HW170986   9.419   4.145   1.506
23051SOL    HW270987   9.390   4.216   1.376
23052SOL     OW70988  11.188   0.755   7.835
23052SOL    HW170989  11.207   0.794   7.921
23052SOL    HW270990  11.250   0.682   7.828
23053SOL     OW70991  13.825  13.161   0.585
23053SOL    HW170992  13.876  13.224   0.534
23053SOL    HW270993  13.890  13.114   0.637
23054SOL     OW70994  13.363   1.835   0.795
23054SOL    HW170995  13.269   1.826   0.782
23054SOL    HW270996  13.402   1.776   0.730
23055SOL     OW70997   7.409   7.090  12.071
23055SOL    HW170998   7.433   7.164  12.016
23055SOL    HW270999   7.488   7.074  12.124
23056SOL     OW71000   6.909   3.014   6.364
23056SOL    HW171001   6.961   2.993   6.441
23056SOL    HW271002   6.937   3.103   6.339
23057SOL     OW71003   8.524   4.213   8.231
23057SOL    HW171004   8.563   4.270   8.297
23057SOL    HW271005   8.503   4.271   8.158
23058SOL     OW71006   9.777   5.871   7.176
23058SOL    HW171007   9.780   5.951   7.227
23058SOL    HW271008   9.684   5.849   7.171
23059SOL     OW71009  12.241   3.787   6.356
23059SOL    HW171010  12.280   3.750   6.435
23059SOL    HW271011  12.290   3.867   6.339
23060SOL     OW71012   5.685  14.692   7.745
23060SOL    HW171013   5.713  14.613   7.792
23060SOL    HW271014   5.732  14.764   7.788
23061SOL     OW71015  11.689   8.088   8.693
23061SOL    HW171016  11.680   8.183   8.688
23061SOL    HW271017  11.706   8.071   8.786
23062SOL     OW71018   0.858  13.781  14.259
23062SOL    HW171019   0.843  13.686  14.259
23062SOL    HW271020   0.867  13.803  14.352
23063SOL     OW71021   2.850  10.351   0.063
23063SOL    HW171022   2.755  10.355   0.057
23063SOL    HW271023   2.881  10.367  14.853
23064SOL     OW71024  11.692   4.205   2.526
23064SOL    HW171025  11.786   4.212   2.544
23064SOL    HW271026  11.658   4.293   2.543
23065SOL     OW71027  13.816   7.446   9.863
23065SOL    HW171028  13.877   7.507   9.822
23065SOL    HW271029  13.827   7.364   9.814
23066SOL     OW71030  13.646   5.741   6.215
23066SOL    HW171031  13.732   5.784   6.210
23066SOL    HW271032  13.602   5.767   6.134
23067SOL     OW71033  12.067   9.395  10.540
23067SOL    HW171034  12.126   9.462  10.505
23067SOL    HW271035  12.090   9.388  10.632
23068SOL     OW71036   9.224   1.289  10.027
23068SOL    HW171037   9.164   1.296  10.101
23068SOL    HW271038   9.282   1.216  10.049
23069SOL     OW71039  14.377   1.643   3.641
23069SOL    HW171040  14.355   1.661   3.732
23069SOL    HW271041  14.294   1.618   3.600
23070SOL     OW71042  13.955  10.174   7.585
23070SOL    HW171043  13.920  10.105   7.641
23070SOL    HW271044  13.879  10.228   7.563
23071SOL     OW71045  12.359   7.145   8.190
23071SOL    HW171046  12.440   7.112   8.229
23071SOL    HW271047  12.291   7.085   8.221
23072SOL     OW71048  10.819   1.948   3.497
23072SOL    HW171049  10.828   1.942   3.592
23072SOL    HW271050  10.834   2.041   3.477
23073SOL     OW71051   0.549   0.843   3.779
23073SOL    HW171052   0.552   0.759   3.826
23073SOL    HW271053   0.573   0.908   3.845
23074SOL     OW71054  11.930  11.612  14.261
23074SOL    HW171055  11.980  11.534  14.236
23074SOL    HW271056  11.888  11.587  14.343
23075SOL     OW71057   8.189   8.912   4.685
23075SOL    HW171058   8.190   8.845   4.754
23075SOL    HW271059   8.280   8.917   4.656
23076SOL     OW71060  13.716   3.980  13.352
23076SOL    HW171061  13.730   4.059  13.299
23076SOL    HW271062  13.799   3.966  13.397
23077SOL     OW71063   7.198   2.907   0.163
23077SOL    HW171064   7.231   2.974   0.103
23077SOL    HW271065   7.247   2.828   0.139
23078SOL     OW71066  13.516   0.104   7.870
23078SOL    HW171067  13.444   0.047   7.844
23078SOL    HW271068  13.508   0.180   7.812
23079SOL     OW71069   0.998   7.018  10.464
23079SOL    HW171070   0.996   7.113  10.466
23079SOL    HW271071   0.960   6.994  10.380
23080SOL     OW71072  13.613  11.354   1.530
23080SOL    HW171073  13.673  11.291   1.569
23080SOL    HW271074  13.561  11.303   1.467
23081SOL     OW71075   1.541  10.960   7.579
23081SOL    HW171076   1.576  11.048   7.568
23081SOL    HW271077   1.616  10.902   7.567
23082SOL     OW71078   1.026   1.486  14.145
23082SOL    HW171079   1.085   1.504  14.072
23082SOL    HW271080   1.044   1.556  14.209
23083SOL     OW71081  13.908  11.823  10.427
23083SOL    HW171082  13.842  11.856  10.487
23083SOL    HW271083  13.867  11.830  10.340
23084SOL     OW71084   1.429  12.463  14.021
23084SOL    HW171085   1.492  12.392  14.015
23084SOL    HW271086   1.452  12.522  13.949
23085SOL     OW71087  10.649  14.707   8.514
23085SOL    HW171088  10.740  14.731   8.500
23085SOL    HW271089  10.602  14.749   8.441
23086SOL     OW71090   3.484   4.689   4.861
23086SOL    HW171091   3.463   4.669   4.770
23086SOL    HW271092   3.578   4.706   4.862
23087SOL     OW71093   2.090   7.956  13.653
23087SOL    HW171094   2.172   7.907  13.649
23087SOL    HW271095   2.069   7.959  13.747
23088SOL     OW71096   8.684   5.310  13.854
23088SOL    HW171097   8.735   5.316  13.773
23088SOL    HW271098   8.749   5.309  13.924
23089SOL     OW71099   8.618  10.407   6.225
23089SOL    HW171100   8.588  10.433   6.138
23089SOL    HW271101   8.589  10.316   6.234
23090SOL     OW71102   8.657  10.711   9.198
23090SOL    HW171103   8.752  10.721   9.202
23090SOL    HW271104   8.643  10.624   9.161
23091SOL     OW71105  10.317   0.411   3.343
23091SOL    HW171106  10.308   0.399   3.249
23091SOL    HW271107  10.302   0.504   3.357
23092SOL     OW71108  11.922   9.452   2.707
23092SOL    HW171109  11.852   9.486   2.762
23092SOL    HW271110  12.003   9.481   2.748
23093SOL     OW71111   6.795   6.355   7.404
23093SOL    HW171112   6.816   6.393   7.489
23093SOL    HW271113   6.849   6.277   7.398
23094SOL     OW71114  12.110  14.779  10.711
23094SOL    HW171115  12.130  14.767  10.804
23094SOL    HW271116  12.033  14.835  10.710
23095SOL     OW71117  11.661  11.538   7.022
23095SOL    HW171118  11.707  11.563   6.942
23095SOL    HW271119  11.713  11.578   7.092
23096SOL     OW71120  10.960   3.667   9.806
23096SOL    HW171121  10.899   3.594   9.814
23096SOL    HW271122  10.970   3.701   9.895
23097SOL     OW71123   9.584  11.476   0.234
23097SOL    HW171124   9.675  11.505   0.228
23097SOL    HW271125   9.567  11.436   0.148
23098SOL     OW71126   1.959  12.103   9.533
23098SOL    HW171127   2.048  12.108   9.568
23098SOL    HW271128   1.968  12.125   9.440
23099SOL     OW71129  14.601  14.758  13.098
23099SOL    HW171130  14.682  14.763  13.046
23099SOL    HW271131  14.535  14.799  13.043
23100SOL     OW71132  13.083   2.619   7.486
23100SOL    HW171133  13.051   2.709   7.491
23100SOL    HW271134  13.037   2.574   7.557
23101SOL     OW71135  13.844   4.793  10.406
23101SOL    HW171136  13.814   4.708  10.375
23101SOL    HW271137  13.764   4.846  10.412
23102SOL     OW71138   6.234   1.476   0.768
23102SOL    HW171139   6.321   1.509   0.788
23102SOL    HW271140   6.192   1.547   0.719
23103SOL     OW71141   0.729   8.790   6.682
23103SOL    HW171142   0.687   8.822   6.602
23103SOL    HW271143   0.721   8.862   6.744
23104SOL     OW71144  12.046  10.657  10.681
23104SOL    HW171145  12.054  10.739  10.730
23104SOL    HW271146  11.958  10.626  10.701
23105SOL     OW71147  10.695  11.961   8.838
23105SOL    HW171148  10.703  11.971   8.743
23105SOL    HW271149  10.613  12.006   8.859
23106SOL     OW71150  14.435   0.683   8.998
23106SOL    HW171151  14.493   0.676   9.073
23106SOL    HW271152  14.347   0.689   9.035
23107SOL     OW71153   5.754  14.737   3.044
23107SOL    HW171154   5.716  14.818   3.010
23107SOL    HW271155   5.738  14.673   2.975
23108SOL     OW71156  11.095   9.552   1.572
23108SOL    HW171157  11.179   9.514   1.599
23108SOL    HW271158  11.076   9.511   1.488
23109SOL     OW71159  12.744  10.999   2.346
23109SOL    HW171160  12.726  11.047   2.427
23109SOL    HW271161  12.785  10.918   2.376
23110SOL     OW71162   0.058   5.243  10.312
23110SOL    HW171163   0.019   5.218  10.395
23110SOL    HW271164  14.872   5.300  10.271
23111SOL     OW71165   8.914   8.877  13.002
23111SOL    HW171166   8.983   8.820  13.036
23111SOL    HW271167   8.834   8.825  13.009
23112SOL     OW71168   5.253   8.200  11.724
23112SOL    HW171169   5.192   8.237  11.661
23112SOL    HW271170   5.249   8.259  11.799
23113SOL     OW71171  11.710   6.888  12.079
23113SOL    HW171172  11.691   6.829  12.006
23113SOL    HW271173  11.722   6.829  12.154
23114SOL     OW71174   1.059   2.759  14.425
23114SOL    HW171175   1.075   2.844  14.466
23114SOL    HW271176   0.963   2.753  14.418
23115SOL     OW71177  14.751   7.393   6.237
23115SOL    HW171178  14.699   7.447   6.296
23115SOL    HW271179  14.831   7.444   6.223
23116SOL     OW71180  10.209   6.768  12.264
23116SOL    HW171181  10.303   6.753  12.259
23116SOL    HW271182  10.173   6.684  12.293
23117SOL     OW71183   6.240   8.980  11.602
23117SOL    HW171184   6.255   8.886  11.592
23117SOL    HW271185   6.327   9.017  11.616
23118SOL     OW71186  14.497  14.544   7.142
23118SOL    HW171187  14.518  14.637   7.134
23118SOL    HW271188  14.559  14.500   7.084
23119SOL     OW71189   4.442  12.284  10.869
23119SOL    HW171190   4.478  12.267  10.782
23119SOL    HW271191   4.451  12.379  10.881
23120SOL     OW71192  12.429   0.694   9.638
23120SOL    HW171193  12.405   0.602   9.645
23120SOL    HW271194  12.346   0.741   9.648
23121SOL     OW71195   1.311  11.468   1.602
23121SOL    HW171196   1.397  11.446   1.567
23121SOL    HW271197   1.265  11.508   1.528
23122SOL     OW71198  13.005   5.945   2.157
23122SOL    HW171199  12.913   5.920   2.143
23122SOL    HW271200  13.055   5.871   2.122
23123SOL     OW71201  13.650   3.273   4.800
23123SOL    HW171202  13.692   3.358   4.805
23123SOL    HW271203  13.708   3.214   4.848
23124SOL     OW71204   5.489   1.331   9.560
23124SOL    HW171205   5.477   1.383   9.639
23124SOL    HW271206   5.441   1.250   9.578
23125SOL     OW71207  11.313  10.297   7.242
23125SOL    HW171208  11.314  10.246   7.161
23125SOL    HW271209  11.304  10.231   7.311
23126SOL     OW71210   9.107  12.253   0.875
23126SOL    HW171211   9.069  12.341   0.874
23126SOL    HW271212   9.198  12.266   0.901
23127SOL     OW71213   5.364   2.481   6.644
23127SOL    HW171214   5.273   2.504   6.624
23127SOL    HW271215   5.379   2.519   6.731
23128SOL     OW71216   3.757   0.083   5.977
23128SOL    HW171217   3.761   0.149   5.907
23128SOL    HW271218   3.768   0.133   6.058
23129SOL     OW71219   7.729   7.978   2.443
23129SOL    HW171220   7.732   7.887   2.414
23129SOL    HW271221   7.734   8.029   2.362
23130SOL     OW71222   6.802   0.357   9.513
23130SOL    HW171223   6.788   0.319   9.426
23130SOL    HW271224   6.716   0.352   9.556
23131SOL     OW71225   2.833  13.072   0.533
23131SOL    HW171226   2.885  13.114   0.464
23131SOL    HW271227   2.763  13.134   0.552
23132SOL     OW71228  12.813   4.345   7.004
23132SOL    HW171229  12.832   4.284   7.075
23132SOL    HW271230  12.869   4.316   6.932
23133SOL     OW71231   6.173   9.009   2.044
23133SOL    HW171232   6.132   8.969   1.968
23133SOL    HW271233   6.179   9.102   2.022
23134SOL     OW71234   3.027   2.874  14.724
23134SOL    HW171235   3.067   2.946  14.772
23134SOL    HW271236   3.042   2.797  14.779
23135SOL     OW71237   3.607  13.680   3.877
23135SOL    HW171238   3.627  13.595   3.916
23135SOL    HW271239   3.517  13.698   3.904
23136SOL     OW71240   6.897   3.202   5.674
23136SOL    HW171241   6.850   3.127   5.637
23136SOL    HW271242   6.986   3.194   5.640
23137SOL     OW71243  10.746   3.414  12.391
23137SOL    HW171244  10.766   3.323  12.366
23137SOL    HW271245  10.785   3.466  12.321
23138SOL     OW71246   7.693   7.792  10.365
23138SOL    HW171247   7.618   7.779  10.307
23138SOL    HW271248   7.710   7.706  10.404
23139SOL     OW71249   9.532  10.369   1.987
23139SOL    HW171250   9.464  10.436   1.994
23139SOL    HW271251   9.551  10.345   2.078
23140SOL     OW71252  14.329   8.597  10.905
23140SOL    HW171253  14.256   8.607  10.844
23140SOL    HW271254  14.362   8.508  10.887
23141SOL     OW71255  10.898   7.064   5.896
23141SOL    HW171256  10.936   7.116   5.967
23141SOL    HW271257  10.849   7.127   5.843
23142SOL     OW71258  12.808   1.851  11.965
23142SOL    HW171259  12.855   1.772  11.937
23142SOL    HW271260  12.850   1.923  11.918
23143SOL     OW71261  13.898  10.010   0.618
23143SOL    HW171262  13.960  10.025   0.546
23143SOL    HW271263  13.833  10.079   0.609
23144SOL     OW71264  13.881   1.316   9.608
23144SOL    HW171265  13.864   1.228   9.575
23144SOL    HW271266  13.831   1.321   9.690
23145SOL     OW71267   7.438   8.936   6.152
23145SOL    HW171268   7.457   8.843   6.164
23145SOL    HW271269   7.391   8.939   6.069
23146SOL     OW71270   4.916   3.787  13.295
23146SOL    HW171271   4.846   3.845  13.264
23146SOL    HW271272   4.960   3.838  13.363
23147SOL     OW71273   5.454  11.795   2.282
23147SOL    HW171274   5.466  11.828   2.371
23147SOL    HW271275   5.386  11.851   2.245
23148SOL     OW71276  14.159   5.267  10.238
23148SOL    HW171277  14.249   5.238  10.228
23148SOL    HW271278  14.143   5.264  10.333
23149SOL     OW71279   6.396   0.690   7.898
23149SOL    HW171280   6.457   0.755   7.932
23149SOL    HW271281   6.342   0.738   7.835
23150SOL     OW71282  14.231   3.488   1.415
23150SOL    HW171283  14.256   3.420   1.353
23150SOL    HW271284  14.149   3.523   1.381
23151SOL     OW71285   2.437   9.751   9.304
23151SOL    HW171286   2.361   9.700   9.274
23151SOL    HW271287   2.399   9.832   9.338
23152SOL     OW71288   2.305   5.168  11.523
23152SOL    HW171289   2.294   5.132  11.611
23152SOL    HW271290   2.389   5.132  11.493
23153SOL     OW71291   3.852   3.295   2.668
23153SOL    HW171292   3.934   3.343   2.674
23153SOL    HW271293   3.872   3.208   2.704
23154SOL     OW71294   7.302   1.521   9.337
23154SOL    HW171295   7.213   1.490   9.355
23154SOL    HW271296   7.292   1.616   9.326
23155SOL     OW71297   7.256   5.060  12.273
23155SOL    HW171298   7.274   5.041  12.366
23155SOL    HW271299   7.342   5.072  12.234
23156SOL     OW71300   8.472   1.226   3.796
23156SOL    HW171301   8.409   1.200   3.729
23156SOL    HW271302   8.532   1.286   3.751
23157SOL     OW71303   9.552  11.246   3.083
23157SOL    HW171304   9.481  11.305   3.108
23157SOL    HW271305   9.508  11.171   3.042
23158SOL     OW71306   5.170   1.883  12.183
23158SOL    HW171307   5.214   1.817  12.130
23158SOL    HW271308   5.240   1.945  12.205
23159SOL     OW71309  14.695   2.633  12.534
23159SOL    HW171310  14.688   2.694  12.608
23159SOL    HW271311  14.693   2.690  12.457
23160SOL     OW71312   6.601   5.205  13.869
23160SOL    HW171313   6.673   5.265  13.850
23160SOL    HW271314   6.522   5.257  13.853
23161SOL     OW71315   6.354   5.378   0.304
23161SOL    HW171316   6.384   5.460   0.265
23161SOL    HW271317   6.346   5.398   0.398
23162SOL     OW71318   5.297  13.269   3.062
23162SOL    HW171319   5.207  13.275   3.030
23162SOL    HW271320   5.349  13.315   2.996
23163SOL     OW71321  11.220   3.601   4.226
23163SOL    HW171322  11.271   3.599   4.306
23163SOL    HW271323  11.265   3.664   4.170
23164SOL     OW71324   0.702   2.489  11.293
23164SOL    HW171325   0.795   2.467  11.285
23164SOL    HW271326   0.696   2.580  11.263
23165SOL     OW71327   7.357   1.071   7.806
23165SOL    HW171328   7.287   1.029   7.757
23165SOL    HW271329   7.349   1.035   7.894
23166SOL     OW71330   6.597   4.814   2.323
23166SOL    HW171331   6.628   4.805   2.233
23166SOL    HW271332   6.628   4.901   2.351
23167SOL     OW71333  12.173   2.802   5.119
23167SOL    HW171334  12.261   2.800   5.155
23167SOL    HW271335  12.116   2.818   5.194
23168SOL     OW71336   0.656   9.171  12.529
23168SOL    HW171337   0.564   9.164  12.504
23168SOL    HW271338   0.670   9.095  12.587
23169SOL     OW71339   1.216   2.181   1.440
23169SOL    HW171340   1.241   2.137   1.522
23169SOL    HW271341   1.237   2.117   1.372
23170SOL     OW71342   7.964  14.566   5.493
23170SOL    HW171343   7.927  14.591   5.578
23170SOL    HW271344   8.050  14.609   5.492
23171SOL     OW71345   0.790   8.264   4.339
23171SOL    HW171346   0.882   8.237   4.332
23171SOL    HW271347   0.790   8.325   4.413
23172SOL     OW71348  14.816   7.238   8.826
23172SOL    HW171349  14.838   7.197   8.742
23172SOL    HW271350  14.813   7.165   8.888
23173SOL     OW71351   2.705  13.215   8.479
23173SOL    HW171352   2.611  13.208   8.462
23173SOL    HW271353   2.746  13.187   8.397
23174SOL     OW71354   4.895   8.840  12.778
23174SOL    HW171355   4.922   8.820  12.688
23174SOL    HW271356   4.943   8.778  12.832
23175SOL     OW71357   4.557   0.628   6.318
23175SOL    HW171358   4.513   0.543   6.307
23175SOL    HW271359   4.513   0.668   6.393
23176SOL     OW71360   9.328   0.025   7.281
23176SOL    HW171361   9.233   0.034   7.278
23176SOL    HW271362   9.344  14.824   7.331
23177SOL     OW71363   4.736   9.581   5.791
23177SOL    HW171364   4.805   9.646   5.806
23177SOL    HW271365   4.773   9.500   5.826
23178SOL     OW71366  14.570   8.703  14.582
23178SOL    HW171367  14.530   8.780  14.541
23178SOL    HW271368  14.619   8.661  14.511
23179SOL     OW71369   1.380   5.656   8.575
23179SOL    HW171370   1.341   5.714   8.640
23179SOL    HW271371   1.452   5.613   8.621
23180SOL     OW71372  13.925  10.375  10.536
23180SOL    HW171373  13.871  10.335  10.605
23180SOL    HW271374  13.987  10.430  10.582
23181SOL     OW71375  10.228  13.453   8.525
23181SOL    HW171376  10.184  13.371   8.551
23181SOL    HW271377  10.228  13.505   8.605
23182SOL     OW71378   7.334  14.274   0.743
23182SOL    HW171379   7.332  14.369   0.743
23182SOL    HW271380   7.416  14.251   0.700
23183SOL     OW71381   8.818   5.599   2.505
23183SOL    HW171382   8.753   5.647   2.557
23183SOL    HW271383   8.810   5.509   2.536
23184SOL     OW71384   8.020   5.453   1.316
23184SOL    HW171385   7.984   5.380   1.367
23184SOL    HW271386   8.085   5.413   1.259
23185SOL     OW71387  12.821  12.944   9.885
23185SOL    HW171388  12.736  12.981   9.907
23185SOL    HW271389  12.848  12.990   9.806
23186SOL     OW71390   7.300   1.323   9.672
23186SOL    HW171391   7.220   1.374   9.685
23186SOL    HW271392   7.273   1.247   9.620
23187SOL     OW71393   8.584   7.012  10.518
23187SOL    HW171394   8.520   6.969  10.574
23187SOL    HW271395   8.628   7.075  10.576
23188SOL     OW71396  14.094   1.093  13.115
23188SOL    HW171397  14.130   1.165  13.167
23188SOL    HW271398  14.059   1.032  13.180
23189SOL     OW71399  10.603   2.772  13.033
23189SOL    HW171400  10.580   2.813  13.116
23189SOL    HW271401  10.614   2.679  13.054
23190SOL     OW71402  14.130   7.622   6.089
23190SOL    HW171403  14.044   7.584   6.109
23190SOL    HW271404  14.122   7.654   5.999
23191SOL     OW71405   6.939  12.171   2.097
23191SOL    HW171406   7.004  12.116   2.140
23191SOL    HW271407   6.891  12.212   2.169
23192SOL     OW71408  13.393   0.698   4.239
23192SOL    HW171409  13.328   0.768   4.233
23192SOL    HW271410  13.384   0.650   4.157
23193SOL     OW71411   9.839  10.800  13.049
23193SOL    HW171412   9.921  10.804  13.098
23193SOL    HW271413   9.827  10.707  13.030
23194SOL     OW71414  13.181   7.390  11.167
23194SOL    HW171415  13.180   7.437  11.083
23194SOL    HW271416  13.273   7.366  11.179
23195SOL     OW71417  14.079   4.045   2.757
23195SOL    HW171418  14.172   4.069   2.751
23195SOL    HW271419  14.057   4.056   2.850
23196SOL     OW71420  12.890   0.351   0.989
23196SOL    HW171421  12.914   0.395   1.071
23196SOL    HW271422  12.884   0.259   1.013
23197SOL     OW71423   5.576  11.363  13.661
23197SOL    HW171424   5.589  11.416  13.740
23197SOL    HW271425   5.556  11.428  13.593
23198SOL     OW71426  10.084   8.441   0.679
23198SOL    HW171427  10.140   8.418   0.606
23198SOL    HW271428  10.118   8.524   0.711
23199SOL     OW71429  10.347   8.707   0.366
23199SOL    HW171430  10.333   8.646   0.293
23199SOL    HW271431  10.310   8.790   0.335
23200SOL     OW71432  14.067  12.062   0.729
23200SOL    HW171433  13.973  12.060   0.745
23200SOL    HW271434  14.102  12.120   0.797
23201SOL     OW71435   9.168   7.970   8.603
23201SOL    HW171436   9.248   7.948   8.650
23201SOL    HW271437   9.146   7.891   8.554
23202SOL     OW71438   9.732   6.549  13.427
23202SOL    HW171439   9.740   6.456  13.450
23202SOL    HW271440   9.638   6.565  13.427
23203SOL     OW71441   0.070   1.093  14.375
23203SOL    HW171442   0.097   1.183  14.396
23203SOL    HW271443   0.018   1.066  14.451
23204SOL     OW71444   7.205   3.953   0.877
23204SOL    HW171445   7.301   3.945   0.880
23204SOL    HW271446   7.175   3.906   0.955
23205SOL     OW71447   8.793   1.664   8.604
23205SOL    HW171448   8.698   1.663   8.609
23205SOL    HW271449   8.813   1.720   8.530
23206SOL     OW71450   0.842   2.556  12.692
23206SOL    HW171451   0.831   2.631  12.633
23206SOL    HW271452   0.755   2.540  12.727
23207SOL     OW71453   4.692   9.500   2.187
23207SOL    HW171454   4.722   9.580   2.142
23207SOL    HW271455   4.732   9.505   2.273
23208SOL     OW71456   5.049  13.548  11.513
23208SOL    HW171457   5.058  13.605  11.589
23208SOL    HW271458   4.997  13.474  11.543
23209SOL     OW71459  11.299  13.164   2.161
23209SOL    HW171460  11.230  13.196   2.103
23209SOL    HW271461  11.366  13.131   2.102
23210SOL     OW71462   5.248  13.817   3.404
23210SOL    HW171463   5.279  13.885   3.463
23210SOL    HW271464   5.207  13.866   3.332
23211SOL     OW71465   0.785   0.922  12.191
23211SOL    HW171466   0.766   1.016  12.194
23211SOL    HW271467   0.789   0.895  12.283
23212SOL     OW71468  11.191   5.629   0.007
23212SOL    HW171469  11.108   5.645   0.052
23212SOL    HW271470  11.236   5.714   0.009
23213SOL     OW71471   3.224   5.413  13.538
23213SOL    HW171472   3.225   5.497  13.492
23213SOL    HW271473   3.297   5.364  13.499
23214SOL     OW71474   6.909   6.648   5.808
23214SOL    HW171475   6.889   6.633   5.900
23214SOL    HW271476   6.981   6.712   5.810
23215SOL     OW71477   6.222   4.002  12.877
23215SOL    HW171478   6.175   3.976  12.797
23215SOL    HW271479   6.181   3.950  12.946
23216SOL     OW71480   4.790   7.028   2.262
23216SOL    HW171481   4.727   7.004   2.330
23216SOL    HW271482   4.865   7.062   2.311
23217SOL     OW71483  14.309   2.899   8.486
23217SOL    HW171484  14.286   2.968   8.548
23217SOL    HW271485  14.315   2.943   8.401
23218SOL     OW71486   6.961  13.951  11.187
23218SOL    HW171487   6.918  13.905  11.258
23218SOL    HW271488   7.038  13.991  11.228
23219SOL     OW71489   2.213   1.718  14.836
23219SOL    HW171490   2.304   1.740  14.815
23219SOL    HW271491   2.206   1.736   0.051
23220SOL     OW71492   2.786   5.016  10.540
23220SOL    HW171493   2.705   5.066  10.546
23220SOL    HW271494   2.805   4.990  10.631
23221SOL     OW71495   6.874   3.403   5.380
23221SOL    HW171496   6.948   3.429   5.434
23221SOL    HW271497   6.899   3.429   5.291
23222SOL     OW71498   1.455  11.217  10.448
23222SOL    HW171499   1.512  11.271  10.503
23222SOL    HW271500   1.513  11.185  10.378
23223SOL     OW71501   2.211   9.420  13.773
23223SOL    HW171502   2.255   9.370  13.705
23223SOL    HW271503   2.227   9.371  13.854
23224SOL     OW71504   7.942   4.571   3.757
23224SOL    HW171505   7.937   4.666   3.746
23224SOL    HW271506   7.898   4.554   3.840
23225SOL     OW71507   2.308   6.175   3.236
23225SOL    HW171508   2.226   6.125   3.234
23225SOL    HW271509   2.293   6.246   3.174
23226SOL     OW71510   9.716   3.011   5.673
23226SOL    HW171511   9.665   2.978   5.747
23226SOL    HW271512   9.768   2.935   5.644
23227SOL     OW71513   6.963  10.247  13.071
23227SOL    HW171514   7.050  10.284  13.086
23227SOL    HW271515   6.925  10.238  13.159
23228SOL     OW71516   2.459   1.268   6.315
23228SOL    HW171517   2.415   1.211   6.379
23228SOL    HW271518   2.404   1.346   6.312
23229SOL     OW71519   8.151   8.885  11.882
23229SOL    HW171520   8.065   8.917  11.856
23229SOL    HW271521   8.210   8.917  11.813
23230SOL     OW71522   8.487   6.720  14.716
23230SOL    HW171523   8.568   6.683  14.752
23230SOL    HW271524   8.514   6.766  14.637
23231SOL     OW71525   9.682   7.456  11.991
23231SOL    HW171526   9.735   7.534  12.007
23231SOL    HW271527   9.591   7.488  11.994
23232SOL     OW71528   9.155  14.697   4.741
23232SOL    HW171529   9.188  14.785   4.757
23232SOL    HW271530   9.104  14.676   4.820
23233SOL     OW71531   1.139   0.852  10.432
23233SOL    HW171532   1.067   0.882  10.377
23233SOL    HW271533   1.125   0.758  10.441
23234SOL     OW71534   4.789   7.191   8.528
23234SOL    HW171535   4.729   7.117   8.516
23234SOL    HW271536   4.840   7.194   8.447
23235SOL     OW71537   9.761  11.239   9.435
23235SOL    HW171538   9.711  11.251   9.354
23235SOL    HW271539   9.831  11.304   9.429
23236SOL     OW71540  11.371   2.216  11.192
23236SOL    HW171541  11.388   2.129  11.228
23236SOL    HW271542  11.304   2.200  11.125
23237SOL     OW71543  12.400   7.646   1.219
23237SOL    HW171544  12.444   7.670   1.138
23237SOL    HW271545  12.433   7.560   1.241
23238SOL     OW71546   2.045   3.441   8.149
23238SOL    HW171547   1.963   3.435   8.199
23238SOL    HW271548   2.103   3.378   8.190
23239SOL     OW71549   3.632  11.611  14.231
23239SOL    HW171550   3.695  11.539  14.238
23239SOL    HW271551   3.546  11.569  14.236
23240SOL     OW71552   3.848   0.165   4.273
23240SOL    HW171553   3.812   0.076   4.283
23240SOL    HW271554   3.788   0.220   4.324
23241SOL     OW71555   8.436   3.605  12.588
23241SOL    HW171556   8.390   3.552  12.523
23241SOL    HW271557   8.412   3.567  12.672
23242SOL     OW71558   4.150  14.666   3.661
23242SOL    HW171559   4.122  14.574   3.662
23242SOL    HW271560   4.142  14.694   3.752
23243SOL     OW71561  13.920   4.980   8.100
23243SOL    HW171562  13.908   5.046   8.032
23243SOL    HW271563  14.007   4.944   8.082
23244SOL     OW71564  12.604   4.776   0.466
23244SOL    HW171565  12.589   4.870   0.456
23244SOL    HW271566  12.590   4.760   0.560
23245SOL     OW71567  13.922   7.637  10.290
23245SOL    HW171568  13.918   7.714  10.347
23245SOL    HW271569  13.837   7.635  10.247
23246SOL     OW71570   1.952   6.032  11.862
23246SOL    HW171571   1.900   6.009  11.939
23246SOL    HW271572   2.025   5.969  11.864
23247SOL     OW71573  11.092   4.839  14.102
23247SOL    HW171574  11.017   4.839  14.162
23247SOL    HW271575  11.139   4.919  14.124
23248SOL     OW71576  14.232   3.216  11.643
23248SOL    HW171577  14.305   3.251  11.694
23248SOL    HW271578  14.188   3.293  11.608
23249SOL     OW71579   6.031  13.997  11.654
23249SOL    HW171580   6.019  13.904  11.636
23249SOL    HW271581   5.943  14.029  11.676
23250SOL     OW71582   8.704   7.028  11.330
23250SOL    HW171583   8.621   6.995  11.366
23250SOL    HW271584   8.722   6.969  11.257
23251SOL     OW71585  12.682  11.888   6.512
23251SOL    HW171586  12.663  11.961   6.453
23251SOL    HW271587  12.668  11.923   6.600
23252SOL     OW71588   0.960  11.633  11.343
23252SOL    HW171589   1.021  11.560  11.329
23252SOL    HW271590   0.932  11.624  11.434
23253SOL     OW71591  10.883  11.167  14.661
23253SOL    HW171592  10.867  11.120  14.743
23253SOL    HW271593  10.899  11.257  14.688
23254SOL     OW71594   2.723   1.751   6.009
23254SOL    HW171595   2.728   1.830   6.063
23254SOL    HW271596   2.699   1.783   5.922
23255SOL     OW71597   8.875  12.901   1.460
23255SOL    HW171598   8.876  12.933   1.550
23255SOL    HW271599   8.809  12.954   1.416
23256SOL     OW71600  11.007  12.776  14.513
23256SOL    HW171601  10.975  12.697  14.470
23256SOL    HW271602  11.081  12.747  14.566
23257SOL     OW71603   8.456  11.648  11.574
23257SOL    HW171604   8.479  11.729  11.620
23257SOL    HW271605   8.383  11.611  11.624
23258SOL     OW71606   3.623   0.332  13.289
23258SOL    HW171607   3.539   0.346  13.333
23258SOL    HW271608   3.687   0.331  13.360
23259SOL     OW71609   5.431  14.713   1.617
23259SOL    HW171610   5.365  14.664   1.568
23259SOL    HW271611   5.382  14.768   1.677
23260SOL     OW71612  12.795   3.297   8.367
23260SOL    HW171613  12.706   3.297   8.403
23260SOL    HW271614  12.851   3.292   8.445
23261SOL     OW71615   5.035   5.676  10.858
23261SOL    HW171616   5.109   5.618  10.872
23261SOL    HW271617   4.962   5.633  10.903
23262SOL     OW71618  13.094   7.380  10.599
23262SOL    HW171619  13.132   7.305  10.553
23262SOL    HW271620  13.054   7.432  10.530
23263SOL     OW71621   3.448   6.252  14.669
23263SOL    HW171622   3.481   6.336  14.637
23263SOL    HW271623   3.357   6.250  14.640
23264SOL     OW71624   4.491   0.962  13.650
23264SOL    HW171625   4.450   0.983  13.566
23264SOL    HW271626   4.484   0.867  13.657
23265SOL     OW71627   7.519   4.162   2.376
23265SOL    HW171628   7.510   4.119   2.291
23265SOL    HW271629   7.481   4.249   2.362
23266SOL     OW71630   7.204   7.973  10.702
23266SOL    HW171631   7.211   7.957  10.608
23266SOL    HW271632   7.290   7.951  10.737
23267SOL     OW71633   2.017   8.705   6.917
23267SOL    HW171634   2.066   8.625   6.939
23267SOL    HW271635   2.081   8.761   6.874
23268SOL     OW71636   8.336  14.637   1.934
23268SOL    HW171637   8.242  14.639   1.915
23268SOL    HW271638   8.369  14.563   1.883
23269SOL     OW71639   8.067  14.784   2.161
23269SOL    HW171640   8.096  14.693   2.161
23269SOL    HW271641   8.125  14.828   2.223
23270SOL     OW71642  14.173   6.281   2.105
23270SOL    HW171643  14.238   6.305   2.039
23270SOL    HW271644  14.095   6.332   2.081
23271SOL     OW71645  11.350   2.066   0.896
23271SOL    HW171646  11.323   1.975   0.912
23271SOL    HW271647  11.433   2.075   0.943
23272SOL     OW71648   4.891  12.702   6.378
23272SOL    HW171649   4.878  12.712   6.284
23272SOL    HW271650   4.824  12.639   6.405
23273SOL     OW71651   2.498  14.509   4.590
23273SOL    HW171652   2.496  14.558   4.672
23273SOL    HW271653   2.525  14.421   4.616
23274SOL     OW71654   3.704  10.858   0.910
23274SOL    HW171655   3.639  10.919   0.876
23274SOL    HW271656   3.662  10.772   0.903
23275SOL     OW71657   8.408  11.575   6.313
23275SOL    HW171658   8.356  11.620   6.246
23275SOL    HW271659   8.343  11.529   6.366
23276SOL     OW71660  11.464   0.985  10.165
23276SOL    HW171661  11.455   1.046  10.092
23276SOL    HW271662  11.453   0.898  10.126
23277SOL     OW71663   2.211  10.812  12.077
23277SOL    HW171664   2.174  10.898  12.057
23277SOL    HW271665   2.155  10.750  12.030
23278SOL     OW71666  11.230   7.685   5.019
23278SOL    HW171667  11.270   7.709   4.935
23278SOL    HW271668  11.218   7.768   5.065
23279SOL     OW71669   4.142   6.226   7.234
23279SOL    HW171670   4.067   6.183   7.192
23279SOL    HW271671   4.182   6.276   7.163
23280SOL     OW71672  11.925   8.320  12.230
23280SOL    HW171673  11.838   8.281  12.219
23280SOL    HW271674  11.980   8.271  12.170
23281SOL     OW71675  13.201   7.215   4.469
23281SOL    HW171676  13.222   7.295   4.516
23281SOL    HW271677  13.272   7.203   4.406
23282SOL     OW71678   2.784   7.983  12.745
23282SOL    HW171679   2.830   8.066  12.730
23282SOL    HW271680   2.829   7.943  12.820
23283SOL     OW71681   2.969   3.084   0.464
23283SOL    HW171682   3.030   3.021   0.502
23283SOL    HW271683   3.020   3.129   0.396
23284SOL     OW71684   5.692   5.652   3.805
23284SOL    HW171685   5.671   5.698   3.886
23284SOL    HW271686   5.673   5.560   3.824
23285SOL     OW71687  13.388  14.566   8.342
23285SOL    HW171688  13.388  14.542   8.435
23285SOL    HW271689  13.297  14.558   8.315
23286SOL     OW71690  12.953   6.877  12.636
23286SOL    HW171691  12.994   6.930  12.704
23286SOL    HW271692  12.929   6.796  12.680
23287SOL     OW71693   9.902   5.488   7.166
23287SOL    HW171694   9.966   5.425   7.200
23287SOL    HW271695   9.952   5.570   7.157
23288SOL     OW71696   7.410  12.234   7.310
23288SOL    HW171697   7.491  12.266   7.270
23288SOL    HW271698   7.357  12.204   7.237
23289SOL     OW71699   3.789   7.466   2.292
23289SOL    HW171700   3.715   7.430   2.244
23289SOL    HW271701   3.861   7.406   2.273
23290SOL     OW71702  10.695  11.878   5.598
23290SOL    HW171703  10.629  11.942   5.624
23290SOL    HW271704  10.739  11.917   5.522
23291SOL     OW71705   9.254   2.588   9.463
23291SOL    HW171706   9.296   2.622   9.542
23291SOL    HW271707   9.300   2.506   9.445
23292SOL     OW71708   0.355  13.210   4.975
23292SOL    HW171709   0.381  13.300   4.955
23292SOL    HW271710   0.367  13.202   5.069
23293SOL     OW71711   7.041  14.349   8.042
23293SOL    HW171712   7.110  14.412   8.064
23293SOL    HW271713   6.963  14.403   8.028
23294SOL     OW71714   3.907   8.434   7.241
23294SOL    HW171715   3.935   8.353   7.282
23294SOL    HW271716   3.943   8.430   7.152
23295SOL     OW71717   5.506   1.245  13.620
23295SOL    HW171718   5.468   1.333  13.616
23295SOL    HW271719   5.537   1.236  13.710
23296SOL     OW71720   5.041  12.489  11.368
23296SOL    HW171721   4.959  12.458  11.329
23296SOL    HW271722   5.028  12.477  11.462
23297SOL     OW71723  12.425   3.961   3.700
23297SOL    HW171724  12.513   3.995   3.682
23297SOL    HW271725  12.367   4.035   3.681
23298SOL     OW71726   0.182  11.759  14.054
23298SOL    HW171727   0.126  11.708  13.995
23298SOL    HW271728   0.139  11.844  14.059
23299SOL     OW71729  13.132  11.394   5.627
23299SOL    HW171730  13.038  11.388   5.642
23299SOL    HW271731  13.171  11.381   5.714
23300SOL     OW71732   7.175   8.144   2.885
23300SOL    HW171733   7.094   8.191   2.870
23300SOL    HW271734   7.193   8.158   2.978
23301SOL     OW71735   4.681   2.306  12.204
23301SOL    HW171736   4.738   2.238  12.241
23301SOL    HW271737   4.628   2.335  12.278
23302SOL     OW71738   9.795   1.471  11.803
23302SOL    HW171739   9.868   1.448  11.860
23302SOL    HW271740   9.791   1.567  11.808
23303SOL     OW71741   0.915   0.939  10.260
23303SOL    HW171742   0.829   0.973  10.238
23303SOL    HW271743   0.964   0.939  10.178
23304SOL     OW71744   8.249  13.825  10.673
23304SOL    HW171745   8.329  13.844  10.624
23304SOL    HW271746   8.270  13.849  10.763
23305SOL     OW71747  12.825   0.964   3.468
23305SOL    HW171748  12.750   1.024   3.466
23305SOL    HW271749  12.845   0.954   3.561
23306SOL     OW71750   6.106   3.680   9.151
23306SOL    HW171751   6.175   3.616   9.130
23306SOL    HW271752   6.064   3.644   9.230
23307SOL     OW71753   7.030   7.025  14.434
23307SOL    HW171754   6.961   7.004  14.371
23307SOL    HW271755   7.067   6.940  14.458
23308SOL     OW71756  11.587   3.108   0.279
23308SOL    HW171757  11.658   3.075   0.224
23308SOL    HW271758  11.617   3.096   0.369
23309SOL     OW71759   1.826   5.648   3.911
23309SOL    HW171760   1.773   5.660   3.990
23309SOL    HW271761   1.805   5.560   3.881
23310SOL     OW71762   7.284  11.173   8.249
23310SOL    HW171763   7.350  11.230   8.288
23310SOL    HW271764   7.235  11.138   8.324
23311SOL     OW71765   7.001  12.649   5.149
23311SOL    HW171766   6.967  12.739   5.153
23311SOL    HW271767   6.934  12.600   5.103
23312SOL     OW71768  11.537   4.431  13.422
23312SOL    HW171769  11.460   4.396  13.376
23312SOL    HW271770  11.586   4.477  13.354
23313SOL     OW71771   5.146   7.060   6.182
23313SOL    HW171772   5.135   7.028   6.092
23313SOL    HW271773   5.223   7.117   6.178
23314SOL     OW71774  10.824  13.792  12.728
23314SOL    HW171775  10.785  13.877  12.710
23314SOL    HW271776  10.749  13.732  12.729
23315SOL     OW71777   7.914  10.374   2.312
23315SOL    HW171778   7.881  10.292   2.349
23315SOL    HW271779   7.896  10.368   2.218
23316SOL     OW71780   0.369   2.658   3.952
23316SOL    HW171781   0.292   2.652   4.009
23316SOL    HW271782   0.358   2.742   3.907
23317SOL     OW71783  14.135  11.166   6.582
23317SOL    HW171784  14.142  11.260   6.598
23317SOL    HW271785  14.222  11.140   6.551
23318SOL     OW71786   7.521  11.291  13.034
23318SOL    HW171787   7.551  11.201  13.035
23318SOL    HW271788   7.575  11.336  13.100
23319SOL     OW71789  13.794   5.700   9.966
23319SOL    HW171790  13.809   5.653   9.884
23319SOL    HW271791  13.727   5.649  10.012
23320SOL     OW71792   7.277   5.758   3.435
23320SOL    HW171793   7.193   5.787   3.399
23320SOL    HW271794   7.254   5.690   3.498
23321SOL     OW71795   4.342   6.627  13.229
23321SOL    HW171796   4.374   6.538  13.240
23321SOL    HW271797   4.418   6.682  13.248
23322SOL     OW71798   9.243  14.410   5.545
23322SOL    HW171799   9.268  14.489   5.498
23322SOL    HW271800   9.323  14.359   5.553
23323SOL     OW71801  13.078   0.700   2.235
23323SOL    HW171802  13.058   0.645   2.159
23323SOL    HW271803  13.074   0.641   2.310
23324SOL     OW71804   5.463  11.057  12.800
23324SOL    HW171805   5.475  11.152  12.809
23324SOL    HW271806   5.546  11.020  12.831
23325SOL     OW71807   4.192   7.107   0.568
23325SOL    HW171808   4.152   7.028   0.533
23325SOL    HW271809   4.150   7.120   0.653
23326SOL     OW71810   8.903   3.858   1.298
23326SOL    HW171811   8.978   3.885   1.351
23326SOL    HW271812   8.891   3.766   1.319
23327SOL     OW71813  13.056   0.966   5.443
23327SOL    HW171814  13.011   1.051   5.450
23327SOL    HW271815  13.109   0.974   5.363
23328SOL     OW71816   1.624  14.528   0.421
23328SOL    HW171817   1.705  14.527   0.370
23328SOL    HW271818   1.648  14.492   0.506
23329SOL     OW71819  11.597  10.985   3.743
23329SOL    HW171820  11.670  10.945   3.696
23329SOL    HW271821  11.594  11.075   3.710
23330SOL     OW71822  13.670   3.728   1.861
23330SOL    HW171823  13.653   3.634   1.867
23330SOL    HW271824  13.583   3.768   1.855
23331SOL     OW71825   9.171  10.982  11.085
23331SOL    HW171826   9.153  10.888  11.098
23331SOL    HW271827   9.266  10.987  11.072
23332SOL     OW71828  10.778   5.892  14.827
23332SOL    HW171829  10.704   5.839  14.856
23332SOL    HW271830  10.797   5.861  14.738
23333SOL     OW71831   3.696   0.379   4.039
23333SOL    HW171832   3.739   0.463   4.027
23333SOL    HW271833   3.649   0.365   3.957
23334SOL     OW71834   5.175   9.175   9.344
23334SOL    HW171835   5.177   9.096   9.397
23334SOL    HW271836   5.242   9.161   9.277
23335SOL     OW71837   0.198   5.277   7.858
23335SOL    HW171838   0.208   5.244   7.947
23335SOL    HW271839   0.286   5.306   7.833
23336SOL     OW71840   5.756  10.015   6.028
23336SOL    HW171841   5.721   9.952   5.965
23336SOL    HW271842   5.678  10.059   6.062
23337SOL     OW71843   7.160   7.294  13.640
23337SOL    HW171844   7.163   7.382  13.678
23337SOL    HW271845   7.220   7.242  13.694
23338SOL     OW71846  11.634   5.380   6.733
23338SOL    HW171847  11.569   5.412   6.671
23338SOL    HW271848  11.693   5.455   6.746
23339SOL     OW71849   5.774   4.849   2.274
23339SOL    HW171850   5.778   4.825   2.181
23339SOL    HW271851   5.847   4.801   2.314
23340SOL     OW71852   2.938  13.271  13.277
23340SOL    HW171853   2.916  13.314  13.194
23340SOL    HW271854   3.031  13.250  13.268
23341SOL     OW71855   1.349   0.252   3.115
23341SOL    HW171856   1.413   0.182   3.111
23341SOL    HW271857   1.280   0.225   3.054
23342SOL     OW71858   8.473  12.637  13.847
23342SOL    HW171859   8.517  12.552  13.837
23342SOL    HW271860   8.512  12.674  13.926
23343SOL     OW71861   9.461   9.121   1.257
23343SOL    HW171862   9.427   9.032   1.271
23343SOL    HW271863   9.545   9.107   1.212
23344SOL     OW71864   1.112  12.935   0.421
23344SOL    HW171865   1.089  12.955   0.331
23344SOL    HW271866   1.068  13.003   0.473
23345SOL     OW71867   0.327  13.360   3.832
23345SOL    HW171868   0.391  13.324   3.771
23345SOL    HW271869   0.266  13.410   3.777
23346SOL     OW71870  14.304   4.453   6.581
23346SOL    HW171871  14.300   4.537   6.535
23346SOL    HW271872  14.322   4.476   6.672
23347SOL     OW71873  12.172  10.607   6.905
23347SOL    HW171874  12.150  10.643   6.819
23347SOL    HW271875  12.092  10.617   6.956
23348SOL     OW71876   5.472   2.717   5.217
23348SOL    HW171877   5.452   2.662   5.141
23348SOL    HW271878   5.499   2.801   5.179
23349SOL     OW71879   5.900  10.321   8.633
23349SOL    HW171880   5.948  10.304   8.714
23349SOL    HW271881   5.946  10.395   8.593
23350SOL     OW71882  10.384   3.895   8.209
23350SOL    HW171883  10.364   3.818   8.157
23350SOL    HW271884  10.354   3.874   8.297
23351SOL     OW71885  10.078  12.475   1.948
23351SOL    HW171886  10.009  12.524   1.993
23351SOL    HW271887  10.085  12.517   1.862
23352SOL     OW71888   0.695   2.081  13.476
23352SOL    HW171889   0.601   2.096  13.487
23352SOL    HW271890   0.705   2.058  13.384
23353SOL     OW71891  13.942  13.667   6.937
23353SOL    HW171892  13.969  13.744   6.986
23353SOL    HW271893  14.016  13.647   6.879
23354SOL     OW71894   3.156   9.463   3.543
23354SOL    HW171895   3.148   9.387   3.484
23354SOL    HW271896   3.240   9.450   3.587
23355SOL     OW71897  11.412   2.510   1.237
23355SOL    HW171898  11.404   2.604   1.256
23355SOL    HW271899  11.464   2.506   1.157
23356SOL     OW71900  10.119  12.245   3.218
23356SOL    HW171901  10.050  12.310   3.214
23356SOL    HW271902  10.125  12.220   3.310
23357SOL     OW71903   6.765  12.018   1.918
23357SOL    HW171904   6.682  12.062   1.902
23357SOL    HW271905   6.831  12.086   1.906
23358SOL     OW71906   7.317   6.484  12.201
23358SOL    HW171907   7.338   6.504  12.110
23358SOL    HW271908   7.361   6.552  12.251
23359SOL     OW71909   5.773   2.985   5.372
23359SOL    HW171910   5.786   2.910   5.430
23359SOL    HW271911   5.775   3.061   5.429
23360SOL     OW71912  14.551  14.474   4.126
23360SOL    HW171913  14.623  14.490   4.186
23360SOL    HW271914  14.532  14.559   4.087
23361SOL     OW71915   2.415   4.392  12.788
23361SOL    HW171916   2.441   4.451  12.717
23361SOL    HW271917   2.355   4.330  12.747
23362SOL     OW71918  12.815  10.561   2.325
23362SOL    HW171919  12.755  10.489   2.346
23362SOL    HW271920  12.896  10.518   2.299
23363SOL     OW71921   0.984   2.736   4.657
23363SOL    HW171922   0.928   2.748   4.734
23363SOL    HW271923   1.064   2.783   4.677
23364SOL     OW71924  14.254   5.169  10.751
23364SOL    HW171925  14.291   5.168  10.840
23364SOL    HW271926  14.159   5.167  10.765
23365SOL     OW71927   5.086   4.594  10.178
23365SOL    HW171928   5.163   4.558  10.136
23365SOL    HW271929   5.027   4.520  10.189
23366SOL     OW71930   2.050   2.843   0.542
23366SOL    HW171931   1.980   2.908   0.551
23366SOL    HW271932   2.003   2.761   0.524
23367SOL     OW71933   8.108  12.689   2.589
23367SOL    HW171934   8.096  12.739   2.508
23367SOL    HW271935   8.178  12.735   2.635
23368SOL     OW71936  11.490  14.818   6.033
23368SOL    HW171937  11.397  14.821   6.011
23368SOL    HW271938  11.535  14.825   5.949
23369SOL     OW71939   9.337   4.819   3.795
23369SOL    HW171940   9.241   4.812   3.797
23369SOL    HW271941   9.366   4.744   3.743
23370SOL     OW71942   9.871   3.241  12.665
23370SOL    HW171943   9.864   3.157  12.711
23370SOL    HW271944   9.942   3.228  12.602
23371SOL     OW71945   5.776  14.791  12.656
23371SOL    HW171946   5.835  14.787  12.581
23371SOL    HW271947   5.831  14.822  12.728
23372SOL     OW71948   2.484   1.507  14.662
23372SOL    HW171949   2.461   1.522  14.571
23372SOL    HW271950   2.488   1.594  14.701
23373SOL     OW71951  13.951  10.275   3.274
23373SOL    HW171952  13.863  10.242   3.290
23373SOL    HW271953  13.962  10.345   3.338
23374SOL     OW71954   2.733   7.002  11.239
23374SOL    HW171955   2.772   6.998  11.327
23374SOL    HW271956   2.639   6.994  11.254
23375SOL     OW71957   8.516   0.067   9.991
23375SOL    HW171958   8.561  14.875  10.038
23375SOL    HW271959   8.526   0.143  10.048
23376SOL     OW71960  10.710   5.595   6.876
23376SOL    HW171961  10.737   5.679   6.913
23376SOL    HW271962  10.790   5.560   6.836
23377SOL     OW71963   3.625   5.727  10.975
23377SOL    HW171964   3.573   5.669  10.920
23377SOL    HW271965   3.620   5.689  11.062
23378SOL     OW71966   0.011   1.463  14.809
23378SOL    HW171967   0.037   1.374  14.786
23378SOL    HW271968   0.052   1.479   0.015
23379SOL     OW71969   0.592  10.141  11.986
23379SOL    HW171970   0.687  10.147  12.000
23379SOL    HW271971   0.573  10.048  11.997
23380SOL     OW71972  14.766   9.782  13.115
23380SOL    HW171973  14.750   9.840  13.189
23380SOL    HW271974  14.706   9.812  13.047
23381SOL     OW71975  10.911   7.388   6.876
23381SOL    HW171976  10.835   7.335   6.900
23381SOL    HW271977  10.978   7.324   6.854
23382SOL     OW71978   3.641   8.659   3.566
23382SOL    HW171979   3.667   8.654   3.658
23382SOL    HW271980   3.707   8.608   3.519
23383SOL     OW71981   3.467   1.306  12.795
23383SOL    HW171982   3.539   1.355  12.755
23383SOL    HW271983   3.502   1.278  12.880
23384SOL     OW71984   7.949  12.320   1.422
23384SOL    HW171985   7.894  12.348   1.495
23384SOL    HW271986   7.946  12.394   1.361
23385SOL     OW71987   2.824  10.910   8.954
23385SOL    HW171988   2.746  10.870   8.994
23385SOL    HW271989   2.870  10.838   8.913
23386SOL     OW71990   8.444   3.200  10.778
23386SOL    HW171991   8.359   3.157  10.772
23386SOL    HW271992   8.448   3.255  10.699
23387SOL     OW71993   4.019   0.446  11.450
23387SOL    HW171994   4.004   0.501  11.373
23387SOL    HW271995   4.105   0.471  11.482
23388SOL     OW71996  14.650   7.765   3.369
23388SOL    HW171997  14.611   7.852   3.367
23388SOL    HW271998  14.720   7.771   3.434
23389SOL     OW71999   2.922  10.148  13.706
23389SOL    HW172000   2.833  10.176  13.683
23389SOL    HW272001   2.915  10.119  13.797
23390SOL     OW72002  12.744   1.500   4.291
23390SOL    HW172003  12.746   1.461   4.378
23390SOL    HW272004  12.775   1.590   4.304
23391SOL     OW72005  11.053   4.555   1.591
23391SOL    HW172006  11.109   4.573   1.667
23391SOL    HW272007  11.104   4.587   1.516
23392SOL     OW72008   1.410   9.645  11.318
23392SOL    HW172009   1.384   9.618  11.230
23392SOL    HW272010   1.328   9.647  11.367
23393SOL     OW72011  12.892  13.714   6.330
23393SOL    HW172012  12.828  13.776   6.366
23393SOL    HW272013  12.883  13.723   6.235
23394SOL     OW72014   4.069  10.583   9.385
23394SOL    HW172015   4.157  10.619   9.376
23394SOL    HW272016   4.056  10.575   9.480
23395SOL     OW72017   7.361   8.689   8.396
23395SOL    HW172018   7.371   8.777   8.361
23395SOL    HW272019   7.372   8.632   8.320
23396SOL     OW72020   0.244   5.906  11.378
23396SOL    HW172021   0.152   5.887  11.361
23396SOL    HW272022   0.288   5.886  11.295
23397SOL     OW72023  12.940  11.816   4.136
23397SOL    HW172024  12.999  11.742   4.152
23397SOL    HW272025  12.918  11.810   4.044
23398SOL     OW72026   6.336   2.101   5.647
23398SOL    HW172027   6.277   2.148   5.706
23398SOL    HW272028   6.279   2.046   5.594
23399SOL     OW72029   0.728  11.688   5.228
23399SOL    HW172030   0.679  11.606   5.243
23399SOL    HW272031   0.666  11.744   5.180
23400SOL     OW72032   9.319   1.783   7.480
23400SOL    HW172033   9.249   1.782   7.414
23400SOL    HW272034   9.320   1.693   7.514
23401SOL     OW72035  11.014  11.637   7.903
23401SOL    HW172036  11.050  11.553   7.932
23401SOL    HW272037  10.944  11.613   7.842
23402SOL     OW72038   3.998  12.766   9.644
23402SOL    HW172039   4.040  12.765   9.730
23402SOL    HW272040   3.955  12.681   9.638
23403SOL     OW72041   9.649   0.999   1.107
23403SOL    HW172042   9.565   1.016   1.064
23403SOL    HW272043   9.632   0.924   1.164
23404SOL     OW72044   7.443   4.490   2.209
23404SOL    HW172045   7.362   4.492   2.158
23404SOL    HW272046   7.511   4.474   2.143
23405SOL     OW72047  13.519   4.005   9.269
23405SOL    HW172048  13.577   3.933   9.294
23405SOL    HW272049  13.433   3.964   9.261
23406SOL     OW72050   4.869   0.157   3.289
23406SOL    HW172051   4.888   0.069   3.321
23406SOL    HW272052   4.806   0.192   3.351
23407SOL     OW72053   0.068  10.785   3.879
23407SOL    HW172054   0.083  10.820   3.967
23407SOL    HW272055   0.066  10.861   3.822
23408SOL     OW72056   0.207  12.103   0.101
23408SOL    HW172057   0.275  12.100   0.168
23408SOL    HW272058   0.145  12.035   0.127
23409SOL     OW72059   3.119  11.257  13.712
23409SOL    HW172060   3.081  11.334  13.752
23409SOL    HW272061   3.180  11.223  13.777
23410SOL     OW72062   7.990  10.377  14.804
23410SOL    HW172063   8.004  10.341   0.012
23410SOL    HW272064   7.905  10.422  14.810
23411SOL     OW72065  10.887   3.625   7.795
23411SOL    HW172066  10.940   3.571   7.854
23411SOL    HW272067  10.841   3.561   7.740
23412SOL     OW72068  13.844  11.087  10.004
23412SOL    HW172069  13.927  11.039  10.010
23412SOL    HW272070  13.802  11.053   9.925
23413SOL     OW72071   5.769  11.155   5.767
23413SOL    HW172072   5.701  11.104   5.723
23413SOL    HW272073   5.808  11.094   5.830
23414SOL     OW72074   1.617  10.385  14.574
23414SOL    HW172075   1.594  10.323  14.642
23414SOL    HW272076   1.620  10.470  14.618
23415SOL     OW72077   2.475   1.872   2.550
23415SOL    HW172078   2.397   1.927   2.552
23415SOL    HW272079   2.489   1.846   2.641
23416SOL     OW72080   2.265  12.444  14.398
23416SOL    HW172081   2.190  12.487  14.440
23416SOL    HW272082   2.292  12.505  14.330
23417SOL     OW72083   4.471  11.147   5.265
23417SOL    HW172084   4.396  11.094   5.238
23417SOL    HW272085   4.453  11.172   5.355
23418SOL     OW72086   1.105  11.380   8.612
23418SOL    HW172087   1.163  11.412   8.543
23418SOL    HW272088   1.137  11.291   8.629
23419SOL     OW72089  12.848  13.791   6.076
23419SOL    HW172090  12.846  13.885   6.092
23419SOL    HW272091  12.829  13.782   5.982
23420SOL     OW72092  13.845   5.351   9.588
23420SOL    HW172093  13.897   5.426   9.560
23420SOL    HW272094  13.805   5.318   9.508
23421SOL     OW72095   2.071  14.054  11.126
23421SOL    HW172096   2.005  13.985  11.122
23421SOL    HW272097   2.077  14.087  11.036
23422SOL     OW72098  10.795   9.328   8.892
23422SOL    HW172099  10.805   9.421   8.872
23422SOL    HW272100  10.881   9.290   8.878
23423SOL     OW72101   8.294  14.446  13.343
23423SOL    HW172102   8.209  14.482  13.367
23423SOL    HW272103   8.355  14.520  13.353
23424SOL     OW72104   7.467   5.148  12.743
23424SOL    HW172105   7.472   5.054  12.760
23424SOL    HW272106   7.376   5.162  12.715
23425SOL     OW72107   5.252  14.718   2.524
23425SOL    HW172108   5.296  14.800   2.500
23425SOL    HW272109   5.302  14.650   2.478
23426SOL     OW72110   1.987  10.193  13.482
23426SOL    HW172111   1.990  10.196  13.386
23426SOL    HW272112   2.035  10.272  13.509
23427SOL     OW72113   1.516   1.181   5.465
23427SOL    HW172114   1.447   1.247   5.453
23427SOL    HW272115   1.471   1.108   5.508
23428SOL     OW72116   1.448  12.120  13.490
23428SOL    HW172117   1.481  12.042  13.446
23428SOL    HW272118   1.475  12.109  13.581
23429SOL     OW72119  12.326   0.330   4.808
23429SOL    HW172120  12.270   0.372   4.742
23429SOL    HW272121  12.325   0.391   4.882
23430SOL     OW72122   7.493   0.627   3.892
23430SOL    HW172123   7.548   0.657   3.965
23430SOL    HW272124   7.505   0.532   3.891
23431SOL     OW72125   5.673   0.354   5.031
23431SOL    HW172126   5.608   0.303   5.081
23431SOL    HW272127   5.702   0.422   5.092
23432SOL     OW72128   0.550  13.851   0.997
23432SOL    HW172129   0.539  13.761   1.027
23432SOL    HW272130   0.556  13.844   0.901
23433SOL     OW72131  12.102   4.305   6.612
23433SOL    HW172132  12.085   4.230   6.555
23433SOL    HW272133  12.165   4.273   6.676
23434SOL     OW72134   1.889   7.460   7.071
23434SOL    HW172135   1.793   7.470   7.074
23434SOL    HW272136   1.923   7.544   7.100
23435SOL     OW72137   8.688   0.454  14.867
23435SOL    HW172138   8.723   0.542  14.851
23435SOL    HW272139   8.765   0.399   0.002
23436SOL     OW72140   1.364   8.404  13.541
23436SOL    HW172141   1.283   8.397  13.491
23436SOL    HW272142   1.336   8.408  13.632
23437SOL     OW72143   2.627   8.122   5.658
23437SOL    HW172144   2.711   8.095   5.623
23437SOL    HW272145   2.563   8.090   5.594
23438SOL     OW72146   2.109   6.962   7.534
23438SOL    HW172147   2.126   7.054   7.514
23438SOL    HW272148   2.117   6.917   7.450
23439SOL     OW72149   5.295   6.747   2.044
23439SOL    HW172150   5.285   6.742   1.949
23439SOL    HW272151   5.382   6.785   2.057
23440SOL     OW72152  12.944   6.563   1.108
23440SOL    HW172153  12.971   6.472   1.101
23440SOL    HW272154  12.959   6.599   1.020
23441SOL     OW72155   0.507   5.326   3.514
23441SOL    HW172156   0.513   5.385   3.589
23441SOL    HW272157   0.594   5.286   3.507
23442SOL     OW72158   6.651   1.081   8.860
23442SOL    HW172159   6.556   1.092   8.860
23442SOL    HW272160   6.682   1.147   8.797
23443SOL     OW72161   9.916   4.965  14.283
23443SOL    HW172162   9.848   4.988  14.219
23443SOL    HW272163   9.994   5.010  14.250
23444SOL     OW72164  11.966  13.849   7.319
23444SOL    HW172165  11.969  13.829   7.226
23444SOL    HW272166  11.882  13.813   7.348
23445SOL     OW72167   1.917   1.080  11.513
23445SOL    HW172168   1.923   1.030  11.594
23445SOL    HW272169   2.008   1.098  11.489
23446SOL     OW72170   5.588   1.542   3.716
23446SOL    HW172171   5.533   1.548   3.794
23446SOL    HW272172   5.669   1.500   3.747
23447SOL     OW72173  11.617   4.556   1.701
23447SOL    HW172174  11.589   4.626   1.761
23447SOL    HW272175  11.657   4.602   1.628
23448SOL     OW72176  11.889   1.537  14.833
23448SOL    HW172177  11.880   1.622  14.792
23448SOL    HW272178  11.805   1.493  14.817
23449SOL     OW72179  12.484  12.180  10.714
23449SOL    HW172180  12.458  12.264  10.751
23449SOL    HW272181  12.486  12.195  10.620
23450SOL     OW72182  11.628   3.428  14.191
23450SOL    HW172183  11.710   3.467  14.220
23450SOL    HW272184  11.582   3.500  14.147
23451SOL     OW72185   8.992  12.312   8.368
23451SOL    HW172186   8.980  12.301   8.462
23451SOL    HW272187   8.957  12.400   8.350
23452SOL     OW72188   3.264   4.729  11.781
23452SOL    HW172189   3.317   4.657  11.816
23452SOL    HW272190   3.181   4.723  11.830
23453SOL     OW72191  11.603   3.784   7.359
23453SOL    HW172192  11.557   3.852   7.309
23453SOL    HW272193  11.534   3.740   7.408
23454SOL     OW72194  13.890   3.410   3.414
23454SOL    HW172195  13.970   3.386   3.461
23454SOL    HW272196  13.834   3.449   3.481
23455SOL     OW72197  14.342  11.433   5.226
23455SOL    HW172198  14.289  11.354   5.221
23455SOL    HW272199  14.428  11.403   5.256
23456SOL     OW72200   7.075   0.998  13.897
23456SOL    HW172201   6.979   1.006  13.899
23456SOL    HW272202   7.092   0.947  13.817
23457SOL     OW72203  10.252   4.926  11.903
23457SOL    HW172204  10.208   4.942  11.820
23457SOL    HW272205  10.192   4.959  11.969
23458SOL     OW72206  10.440   9.377  13.785
23458SOL    HW172207  10.435   9.398  13.692
23458SOL    HW272208  10.470   9.286  13.788
23459SOL     OW72209   6.956  12.187   9.842
23459SOL    HW172210   6.878  12.208   9.893
23459SOL    HW272211   6.967  12.262   9.784
23460SOL     OW72212   2.188  11.839   0.019
23460SOL    HW172213   2.096  11.842  14.875
23460SOL    HW272214   2.229  11.907  14.844
23461SOL     OW72215  10.069  12.871   1.977
23461SOL    HW172216   9.990  12.917   1.948
23461SOL    HW272217  10.103  12.828   1.899
23462SOL     OW72218  13.594  12.747   5.145
23462SOL    HW172219  13.574  12.833   5.106
23462SOL    HW272220  13.577  12.759   5.239
23463SOL     OW72221  12.793   2.168  12.862
23463SOL    HW172222  12.769   2.100  12.799
23463SOL    HW272223  12.749   2.246  12.831
23464SOL     OW72224   6.501  11.255   1.023
23464SOL    HW172225   6.439  11.327   1.036
23464SOL    HW272226   6.517  11.221   1.111
23465SOL     OW72227   3.867   0.289   8.622
23465SOL    HW172228   3.962   0.277   8.614
23465SOL    HW272229   3.831   0.246   8.544
23466SOL     OW72230   8.748   1.641   4.702
23466SOL    HW172231   8.754   1.547   4.721
23466SOL    HW272232   8.656   1.662   4.715
23467SOL     OW72233   9.389  11.067   4.801
23467SOL    HW172234   9.418  11.092   4.888
23467SOL    HW272235   9.462  11.016   4.765
23468SOL     OW72236  14.799   0.235   8.630
23468SOL    HW172237   0.002   0.212   8.673
23468SOL    HW272238  14.741   0.161   8.647
23469SOL     OW72239   0.365  12.092   3.814
23469SOL    HW172240   0.428  12.102   3.742
23469SOL    HW272241   0.419  12.070   3.890
23470SOL     OW72242   9.613   1.539   4.074
23470SOL    HW172243   9.524   1.569   4.092
23470SOL    HW272244   9.649   1.518   4.160
23471SOL     OW72245   0.464   3.677   2.208
23471SOL    HW172246   0.441   3.668   2.301
23471SOL    HW272247   0.545   3.628   2.199
23472SOL     OW72248  11.303   5.821   5.537
23472SOL    HW172249  11.215   5.848   5.562
23472SOL    HW272250  11.356   5.900   5.545
23473SOL     OW72251   5.430  12.643  10.589
23473SOL    HW172252   5.490  12.569  10.577
23473SOL    HW272253   5.367  12.613  10.654
23474SOL     OW72254  14.215   7.672   0.206
23474SOL    HW172255  14.259   7.746   0.163
23474SOL    HW272256  14.277   7.600   0.198
23475SOL     OW72257   4.213  10.029   6.185
23475SOL    HW172258   4.260   9.947   6.201
23475SOL    HW272259   4.122  10.001   6.169
23476SOL     OW72260   4.188   4.411   9.651
23476SOL    HW172261   4.277   4.426   9.683
23476SOL    HW272262   4.181   4.469   9.575
23477SOL     OW72263  12.320  12.618   6.765
23477SOL    HW172264  12.334  12.710   6.785
23477SOL    HW272265  12.341  12.610   6.672
23478SOL     OW72266   2.079   3.420   1.596
23478SOL    HW172267   2.047   3.409   1.686
23478SOL    HW272268   2.092   3.515   1.587
23479SOL     OW72269   4.686   5.232  11.618
23479SOL    HW172270   4.713   5.214  11.528
23479SOL    HW272271   4.683   5.328  11.624
23480SOL     OW72272   5.100   9.810   3.880
23480SOL    HW172273   5.184   9.810   3.926
23480SOL    HW272274   5.045   9.751   3.931
23481SOL     OW72275   7.828   8.711  12.665
23481SOL    HW172276   7.833   8.629  12.715
23481SOL    HW272277   7.916   8.723  12.629
23482SOL     OW72278   2.420   7.334   8.061
23482SOL    HW172279   2.498   7.350   8.007
23482SOL    HW272280   2.402   7.419   8.102
23483SOL     OW72281   0.803  12.090   5.112
23483SOL    HW172282   0.787  12.030   5.185
23483SOL    HW272283   0.716  12.121   5.086
23484SOL     OW72284  11.697   0.779   8.210
23484SOL    HW172285  11.629   0.785   8.278
23484SOL    HW272286  11.695   0.864   8.167
23485SOL     OW72287  10.200   3.602   5.866
23485SOL    HW172288  10.242   3.632   5.785
23485SOL    HW272289  10.272   3.573   5.922
23486SOL     OW72290  11.294   5.336   1.881
23486SOL    HW172291  11.374   5.296   1.847
23486SOL    HW272292  11.324   5.386   1.957
23487SOL     OW72293   3.400   6.000  12.089
23487SOL    HW172294   3.477   6.054  12.107
23487SOL    HW272295   3.424   5.913  12.123
23488SOL     OW72296   9.143   2.704   8.352
23488SOL    HW172297   9.207   2.759   8.398
23488SOL    HW272298   9.190   2.674   8.273
23489SOL     OW72299   2.922   0.399  10.732
23489SOL    HW172300   3.003   0.409  10.780
23489SOL    HW272301   2.939   0.437  10.646
23490SOL     OW72302   5.209  13.957   3.169
23490SOL    HW172303   5.205  13.903   3.090
23490SOL    HW272304   5.279  14.020   3.152
23491SOL     OW72305  12.458   1.011   9.014
23491SOL    HW172306  12.507   0.933   8.988
23491SOL    HW272307  12.378   0.977   9.053
23492SOL     OW72308   3.917  10.825   3.299
23492SOL    HW172309   3.906  10.855   3.389
23492SOL    HW272310   3.872  10.740   3.297
23493SOL     OW72311   7.027   6.951   6.690
23493SOL    HW172312   6.995   7.029   6.644
23493SOL    HW272313   6.954   6.889   6.685
23494SOL     OW72314   6.040   5.112   2.833
23494SOL    HW172315   6.110   5.047   2.844
23494SOL    HW272316   6.044   5.165   2.913
23495SOL     OW72317   4.506   7.015   7.461
23495SOL    HW172318   4.588   7.058   7.439
23495SOL    HW272319   4.519   6.982   7.550
23496SOL     OW72320   7.698   9.567   4.684
23496SOL    HW172321   7.636   9.543   4.615
23496SOL    HW272322   7.722   9.658   4.664
23497SOL     OW72323  12.900   2.454  12.687
23497SOL    HW172324  12.983   2.438  12.732
23497SOL    HW272325  12.864   2.531  12.730
23498SOL     OW72326   0.561   0.146   2.015
23498SOL    HW172327   0.545   0.058   2.049
23498SOL    HW272328   0.474   0.184   2.003
23499SOL     OW72329   8.562  11.902   5.382
23499SOL    HW172330   8.592  11.968   5.321
23499SOL    HW272331   8.603  11.925   5.465
23500SOL     OW72332   7.088   3.990   3.140
23500SOL    HW172333   7.140   3.969   3.063
23500SOL    HW272334   7.100   4.084   3.153
23501SOL     OW72335   2.430  11.917   1.302
23501SOL    HW172336   2.375  11.958   1.235
23501SOL    HW272337   2.476  11.847   1.256
23502SOL     OW72338  14.094  10.974  10.982
23502SOL    HW172339  14.051  11.002  10.902
23502SOL    HW272340  14.186  10.998  10.969
23503SOL     OW72341   5.678   1.447   9.712
23503SOL    HW172342   5.639   1.387   9.648
23503SOL    HW272343   5.695   1.527   9.662
23504SOL     OW72344   9.284   4.393   4.818
23504SOL    HW172345   9.267   4.433   4.903
23504SOL    HW272346   9.261   4.300   4.830
23505SOL     OW72347   5.469   3.313  11.574
23505SOL    HW172348   5.475   3.347  11.485
23505SOL    HW272349   5.560   3.298  11.601
23506SOL     OW72350   8.670   1.912  12.723
23506SOL    HW172351   8.722   1.968  12.666
23506SOL    HW272352   8.615   1.861  12.663
23507SOL     OW72353   7.792   9.712  14.206
23507SOL    HW172354   7.770   9.793  14.252
23507SOL    HW272355   7.712   9.659  14.211
23508SOL     OW72356   3.091   0.992   6.583
23508SOL    HW172357   3.159   0.930   6.557
23508SOL    HW272358   3.009   0.952   6.555
23509SOL     OW72359  11.399   4.793   6.271
23509SOL    HW172360  11.346   4.722   6.306
23509SOL    HW272361  11.488   4.757   6.266
23510SOL     OW72362  13.358  14.589  13.703
23510SOL    HW172363  13.452  14.572  13.701
23510SOL    HW272364  13.337  14.599  13.796
23511SOL     OW72365   3.343  14.381   1.239
23511SOL    HW172366   3.375  14.334   1.316
23511SOL    HW272367   3.322  14.311   1.176
23512SOL     OW72368   3.679   7.608   8.294
23512SOL    HW172369   3.769   7.594   8.325
23512SOL    HW272370   3.626   7.614   8.373
23513SOL     OW72371  14.723   4.516  11.308
23513SOL    HW172372  14.819   4.522  11.311
23513SOL    HW272373  14.693   4.607  11.308
23514SOL     OW72374  12.873   1.361  10.892
23514SOL    HW172375  12.875   1.346  10.986
23514SOL    HW272376  12.936   1.431  10.877
23515SOL     OW72377   4.941   8.567   0.380
23515SOL    HW172378   4.919   8.478   0.351
23515SOL    HW272379   4.870   8.621   0.346
23516SOL     OW72380   5.745  12.010   9.691
23516SOL    HW172381   5.678  11.944   9.675
23516SOL    HW272382   5.707  12.091   9.656
23517SOL     OW72383  11.849   0.200   0.130
23517SOL    HW172384  11.785   0.129   0.123
23517SOL    HW272385  11.932   0.156   0.147
23518SOL     OW72386   5.701   9.713  11.634
23518SOL    HW172387   5.720   9.806  11.620
23518SOL    HW272388   5.757   9.689  11.708
23519SOL     OW72389   2.466   5.917   8.283
23519SOL    HW172390   2.462   6.012   8.267
23519SOL    HW272391   2.397   5.880   8.228
23520SOL     OW72392   6.979  11.254   8.289
23520SOL    HW172393   7.025  11.321   8.340
23520SOL    HW272394   7.013  11.171   8.323
23521SOL     OW72395  12.708   8.926   7.593
23521SOL    HW172396  12.738   8.840   7.622
23521SOL    HW272397  12.781   8.961   7.542
23522SOL     OW72398  13.584  14.827   8.084
23522SOL    HW172399  13.509  14.770   8.068
23522SOL    HW272400  13.574   0.019   8.020
23523SOL     OW72401  13.291   8.041  10.594
23523SOL    HW172402  13.234   7.983  10.644
23523SOL    HW272403  13.340   7.983  10.536
23524SOL     OW72404  13.365  14.705   1.844
23524SOL    HW172405  13.344  14.705   1.751
23524SOL    HW272406  13.460  14.721   1.847
23525SOL     OW72407   7.755   3.253   5.656
23525SOL    HW172408   7.731   3.217   5.571
23525SOL    HW272409   7.832   3.202   5.682
23526SOL     OW72410  12.579   1.237   5.584
23526SOL    HW172411  12.604   1.176   5.653
23526SOL    HW272412  12.621   1.319   5.608
23527SOL     OW72413   7.693   1.960   0.465
23527SOL    HW172414   7.715   1.967   0.373
23527SOL    HW272415   7.614   2.014   0.475
23528SOL     OW72416   5.422   1.700  14.068
23528SOL    HW172417   5.344   1.685  14.121
23528SOL    HW272418   5.420   1.633  14.001
23529SOL     OW72419  12.937  12.801  13.939
23529SOL    HW172420  12.860  12.807  13.884
23529SOL    HW272421  12.921  12.726  13.995
23530SOL     OW72422   4.472   0.056   6.952
23530SOL    HW172423   4.540   0.005   6.910
23530SOL    HW272424   4.475   0.141   6.908
23531SOL     OW72425   0.781  10.546   5.764
23531SOL    HW172426   0.713  10.597   5.807
23531SOL    HW272427   0.819  10.492   5.833
23532SOL     OW72428   2.603  11.780   8.793
23532SOL    HW172429   2.513  11.751   8.797
23532SOL    HW272430   2.644  11.742   8.871
23533SOL     OW72431  12.017   8.613   8.801
23533SOL    HW172432  12.053   8.627   8.888
23533SOL    HW272433  11.989   8.700   8.773
23534SOL     OW72434   3.582   5.185   8.738
23534SOL    HW172435   3.526   5.123   8.784
23534SOL    HW272436   3.561   5.172   8.645
23535SOL     OW72437  13.052   4.586   0.854
23535SOL    HW172438  13.132   4.636   0.839
23535SOL    HW272439  13.072   4.498   0.822
23536SOL     OW72440   9.750   6.644   6.379
23536SOL    HW172441   9.669   6.658   6.330
23536SOL    HW272442   9.817   6.685   6.325
23537SOL     OW72443  10.954   0.632  14.683
23537SOL    HW172444  10.925   0.722  14.697
23537SOL    HW272445  10.937   0.616  14.590
23538SOL     OW72446   4.021   9.105   4.014
23538SOL    HW172447   3.927   9.100   4.030
23538SOL    HW272448   4.034   9.057   3.932
23539SOL     OW72449   3.777  13.616  14.015
23539SOL    HW172450   3.743  13.700  13.984
23539SOL    HW272451   3.844  13.640  14.079
23540SOL     OW72452   5.771   5.559   3.215
23540SOL    HW172453   5.780   5.647   3.251
23540SOL    HW272454   5.769   5.573   3.120
23541SOL     OW72455   6.397  14.563   9.384
23541SOL    HW172456   6.467  14.498   9.377
23541SOL    HW272457   6.336  14.541   9.313
23542SOL     OW72458   8.825   9.863   7.631
23542SOL    HW172459   8.733   9.870   7.604
23542SOL    HW272460   8.822   9.848   7.725
23543SOL     OW72461  14.651   6.212  11.647
23543SOL    HW172462  14.645   6.171  11.561
23543SOL    HW272463  14.728   6.268  11.642
23544SOL     OW72464  12.232   5.216   3.611
23544SOL    HW172465  12.252   5.289   3.553
23544SOL    HW272466  12.136   5.207   3.607
23545SOL     OW72467   5.645   9.278   6.138
23545SOL    HW172468   5.680   9.225   6.210
23545SOL    HW272469   5.654   9.368   6.168
23546SOL     OW72470   1.223   7.294   2.634
23546SOL    HW172471   1.155   7.283   2.701
23546SOL    HW272472   1.274   7.213   2.640
23547SOL     OW72473  12.852  11.746   6.355
23547SOL    HW172474  12.806  11.808   6.412
23547SOL    HW272475  12.808  11.752   6.271
23548SOL     OW72476   3.599   4.558  10.642
23548SOL    HW172477   3.544   4.620  10.594
23548SOL    HW272478   3.686   4.598  10.640
23549SOL     OW72479   3.807  12.147   1.658
23549SOL    HW172480   3.722  12.169   1.621
23549SOL    HW272481   3.813  12.052   1.650
23550SOL     OW72482   5.257   4.680   0.146
23550SOL    HW172483   5.304   4.648   0.069
23550SOL    HW272484   5.298   4.765   0.165
23551SOL     OW72485   0.972  12.943  12.261
23551SOL    HW172486   0.949  12.960  12.170
23551SOL    HW272487   0.955  12.850  12.274
23552SOL     OW72488   1.425  12.505   4.709
23552SOL    HW172489   1.389  12.483   4.795
23552SOL    HW272490   1.381  12.445   4.649
23553SOL     OW72491  11.378   8.419  12.036
23553SOL    HW172492  11.303   8.397  12.091
23553SOL    HW272493  11.376   8.515  12.030
23554SOL     OW72494  12.855   4.205   3.346
23554SOL    HW172495  12.783   4.219   3.407
23554SOL    HW272496  12.832   4.125   3.299
23555SOL     OW72497   1.518   7.596   8.635
23555SOL    HW172498   1.608   7.622   8.620
23555SOL    HW272499   1.525   7.511   8.678
23556SOL     OW72500   5.916   5.875   2.009
23556SOL    HW172501   5.860   5.911   2.078
23556SOL    HW272502   5.882   5.912   1.928
23557SOL     OW72503   9.954  10.667   0.317
23557SOL    HW172504   9.959  10.725   0.240
23557SOL    HW272505   9.970  10.724   0.391
23558SOL     OW72506  13.847   9.411  13.255
23558SOL    HW172507  13.803   9.491  13.224
23558SOL    HW272508  13.835   9.413  13.350
23559SOL     OW72509   3.877   6.302   5.531
23559SOL    HW172510   3.857   6.309   5.624
23559SOL    HW272511   3.799   6.261   5.492
23560SOL     OW72512   7.719   7.910   4.218
23560SOL    HW172513   7.761   7.824   4.224
23560SOL    HW272514   7.747   7.944   4.133
23561SOL     OW72515   3.957   9.736   9.875
23561SOL    HW172516   3.983   9.815   9.923
23561SOL    HW272517   3.983   9.752   9.785
23562SOL     OW72518   4.484   0.367   6.264
23562SOL    HW172519   4.423   0.352   6.192
23562SOL    HW272520   4.568   0.335   6.232
23563SOL     OW72521   1.462   2.873   2.339
23563SOL    HW172522   1.408   2.863   2.418
23563SOL    HW272523   1.401   2.906   2.272
23564SOL     OW72524   9.248   8.670   4.882
23564SOL    HW172525   9.267   8.609   4.811
23564SOL    HW272526   9.165   8.711   4.856
23565SOL     OW72527   3.074   9.923   9.091
23565SOL    HW172528   3.003   9.982   9.114
23565SOL    HW272529   3.145   9.982   9.063
23566SOL     OW72530  12.738   8.869  11.497
23566SOL    HW172531  12.764   8.784  11.461
23566SOL    HW272532  12.693   8.847  11.579
23567SOL     OW72533   4.876  12.251   6.100
23567SOL    HW172534   4.781  12.265   6.089
23567SOL    HW272535   4.895  12.173   6.047
23568SOL     OW72536   9.662   3.687   1.852
23568SOL    HW172537   9.724   3.654   1.788
23568SOL    HW272538   9.701   3.769   1.884
23569SOL     OW72539   5.890  14.217   9.687
23569SOL    HW172540   5.871  14.192   9.778
23569SOL    HW272541   5.982  14.196   9.675
23570SOL     OW72542   6.957   9.611  10.607
23570SOL    HW172543   6.991   9.700  10.614
23570SOL    HW272544   6.946   9.582  10.698
23571SOL     OW72545  10.133   7.993   5.256
23571SOL    HW172546  10.150   7.907   5.295
23571SOL    HW272547  10.112   7.973   5.165
23572SOL     OW72548  10.846   4.787  14.367
23572SOL    HW172549  10.862   4.870  14.322
23572SOL    HW272550  10.751   4.775  14.360
23573SOL     OW72551  11.859   4.455   8.255
23573SOL    HW172552  11.812   4.392   8.200
23573SOL    HW272553  11.936   4.407   8.286
23574SOL     OW72554   5.923  12.869  10.147
23574SOL    HW172555   5.848  12.838  10.198
23574SOL    HW272556   5.986  12.899  10.213
23575SOL     OW72557  10.302  14.707   0.416
23575SOL    HW172558  10.226  14.747   0.374
23575SOL    HW272559  10.347  14.780   0.458
23576SOL     OW72560   4.685  10.038   3.123
23576SOL    HW172561   4.731  10.087   3.191
23576SOL    HW272562   4.608  10.001   3.166
23577SOL     OW72563  14.796   6.990   4.247
23577SOL    HW172564  14.878   7.008   4.293
23577SOL    HW272565  14.737   7.061   4.273
23578SOL     OW72566   1.736   5.089   2.405
23578SOL    HW172567   1.668   5.072   2.339
23578SOL    HW272568   1.818   5.070   2.360
23579SOL     OW72569   5.743  13.170   3.766
23579SOL    HW172570   5.779  13.150   3.852
23579SOL    HW272571   5.691  13.249   3.778
23580SOL     OW72572  12.753   6.479   1.843
23580SOL    HW172573  12.802   6.428   1.908
23580SOL    HW272574  12.683   6.521   1.893
23581SOL     OW72575  12.714   3.707   1.515
23581SOL    HW172576  12.621   3.726   1.524
23581SOL    HW272577  12.757   3.792   1.511
23582SOL     OW72578  13.253   7.218   7.968
23582SOL    HW172579  13.205   7.135   7.958
23582SOL    HW272580  13.339   7.192   8.002
23583SOL     OW72581  13.244   3.170  12.333
23583SOL    HW172582  13.294   3.221  12.398
23583SOL    HW272583  13.160   3.153  12.376
23584SOL     OW72584   4.492   6.732   7.757
23584SOL    HW172585   4.487   6.654   7.702
23584SOL    HW272586   4.484   6.699   7.847
23585SOL     OW72587   4.324  12.164  12.015
23585SOL    HW172588   4.389  12.168  12.085
23585SOL    HW272589   4.359  12.221  11.946
23586SOL     OW72590   6.729   9.420   8.109
23586SOL    HW172591   6.699   9.502   8.069
23586SOL    HW272592   6.720   9.434   8.203
23587SOL     OW72593   3.506   0.916   9.256
23587SOL    HW172594   3.555   0.997   9.240
23587SOL    HW272595   3.498   0.912   9.351
23588SOL     OW72596   9.335  14.424   4.595
23588SOL    HW172597   9.355  14.470   4.513
23588SOL    HW272598   9.415  14.433   4.647
23589SOL     OW72599  10.756  13.877   3.668
23589SOL    HW172600  10.746  13.901   3.576
23589SOL    HW272601  10.696  13.804   3.681
23590SOL     OW72602  13.338   4.534   7.798
23590SOL    HW172603  13.356   4.619   7.839
23590SOL    HW272604  13.406   4.476   7.833
23591SOL     OW72605   8.216   3.831  13.882
23591SOL    HW172606   8.218   3.892  13.808
23591SOL    HW272607   8.188   3.748  13.844
23592SOL     OW72608  12.205   5.330   8.521
23592SOL    HW172609  12.153   5.285   8.454
23592SOL    HW272610  12.140   5.366   8.582
23593SOL     OW72611   8.318   2.241   6.278
23593SOL    HW172612   8.249   2.174   6.271
23593SOL    HW272613   8.356   2.228   6.365
23594SOL     OW72614   5.639   9.672  11.382
23594SOL    HW172615   5.729   9.687  11.354
23594SOL    HW272616   5.640   9.687  11.476
23595SOL     OW72617   9.259   1.764  13.311
23595SOL    HW172618   9.259   1.815  13.230
23595SOL    HW272619   9.218   1.681  13.288
23596SOL     OW72620   3.595   4.808   0.324
23596SOL    HW172621   3.599   4.727   0.273
23596SOL    HW272622   3.521   4.857   0.286
23597SOL     OW72623   8.226   8.890   6.955
23597SOL    HW172624   8.161   8.894   7.025
23597SOL    HW272625   8.203   8.962   6.896
23598SOL     OW72626   7.587  13.726  10.698
23598SOL    HW172627   7.527  13.660  10.665
23598SOL    HW272628   7.600  13.787  10.625
23599SOL     OW72629  13.271   2.422   6.587
23599SOL    HW172630  13.351   2.474   6.580
23599SOL    HW272631  13.202   2.481   6.557
23600SOL     OW72632   6.641   3.702   4.512
23600SOL    HW172633   6.673   3.640   4.577
23600SOL    HW272634   6.606   3.775   4.563
23601SOL     OW72635   0.085   8.693  11.105
23601SOL    HW172636  14.876   8.657  11.120
23601SOL    HW272637   0.069   8.781  11.071
23602SOL     OW72638   3.765   7.435  14.305
23602SOL    HW172639   3.841   7.393  14.264
23602SOL    HW272640   3.778   7.529  14.289
23603SOL     OW72641   8.111  13.968  12.527
23603SOL    HW172642   8.083  13.927  12.609
23603SOL    HW272643   8.170  14.038  12.554
23604SOL     OW72644   6.700   6.585   4.050
23604SOL    HW172645   6.643   6.516   4.082
23604SOL    HW272646   6.786   6.564   4.087
23605SOL     OW72647   5.456   5.794   8.054
23605SOL    HW172648   5.522   5.769   7.988
23605SOL    HW272649   5.505   5.839   8.122
23606SOL     OW72650   7.611   4.960   4.671
23606SOL    HW172651   7.625   4.920   4.757
23606SOL    HW272652   7.666   4.910   4.612
23607SOL     OW72653   5.822   8.352   9.501
23607SOL    HW172654   5.787   8.273   9.459
23607SOL    HW272655   5.902   8.372   9.451
23608SOL     OW72656   7.854   8.667  11.472
23608SOL    HW172657   7.778   8.712  11.508
23608SOL    HW272658   7.927   8.727  11.489
23609SOL     OW72659  10.400   8.128   3.514
23609SOL    HW172660  10.492   8.154   3.522
23609SOL    HW272661  10.391   8.052   3.571
23610SOL     OW72662  12.406  10.386  10.488
23610SOL    HW172663  12.356  10.422  10.561
23610SOL    HW272664  12.344  10.380  10.416
23611SOL     OW72665   0.847   7.605   0.108
23611SOL    HW172666   0.754   7.585   0.094
23611SOL    HW272667   0.887   7.521   0.128
23612SOL     OW72668  10.852   0.149   6.400
23612SOL    HW172669  10.833   0.198   6.320
23612SOL    HW272670  10.937   0.107   6.383
23613SOL     OW72671   7.496  11.245   3.634
23613SOL    HW172672   7.499  11.187   3.558
23613SOL    HW272673   7.583  11.285   3.637
23614SOL     OW72674   1.878  11.423   9.668
23614SOL    HW172675   1.946  11.403   9.733
23614SOL    HW272676   1.825  11.343   9.664
23615SOL     OW72677   1.766   3.328   3.607
23615SOL    HW172678   1.794   3.401   3.551
23615SOL    HW272679   1.720   3.370   3.680
23616SOL     OW72680   7.695  10.232  12.854
23616SOL    HW172681   7.618  10.236  12.910
23616SOL    HW272682   7.698  10.318  12.811
23617SOL     OW72683   2.522   8.767  14.735
23617SOL    HW172684   2.542   8.848  14.687
23617SOL    HW272685   2.442   8.734  14.695
23618SOL     OW72686   0.856   7.171   9.850
23618SOL    HW172687   0.916   7.097   9.844
23618SOL    HW272688   0.783   7.139   9.902
23619SOL     OW72689   6.482   2.154   4.227
23619SOL    HW172690   6.467   2.109   4.310
23619SOL    HW272691   6.541   2.096   4.179
23620SOL     OW72692  10.117   3.055   6.957
23620SOL    HW172693  10.067   3.030   7.034
23620SOL    HW272694  10.134   2.972   6.911
23621SOL     OW72695   3.725   8.650  12.374
23621SOL    HW172696   3.764   8.614  12.294
23621SOL    HW272697   3.643   8.689  12.344
23622SOL     OW72698  14.857  11.715   9.019
23622SOL    HW172699   0.055  11.659   9.005
23622SOL    HW272700  14.876  11.763   9.099
23623SOL     OW72701  14.104  14.805   9.318
23623SOL    HW172702  14.076  14.808   9.410
23623SOL    HW272703  14.058  14.729   9.282
23624SOL     OW72704  10.693  10.716   6.121
23624SOL    HW172705  10.682  10.733   6.214
23624SOL    HW272706  10.669  10.624   6.110
23625SOL     OW72707   0.646   9.888   9.960
23625SOL    HW172708   0.674   9.943   9.886
23625SOL    HW272709   0.564   9.849   9.931
23626SOL     OW72710   1.573   0.093   1.342
23626SOL    HW172711   1.643   0.029   1.340
23626SOL    HW272712   1.493   0.042   1.357
23627SOL     OW72713  12.871   4.248  14.057
23627SOL    HW172714  12.787   4.292  14.072
23627SOL    HW272715  12.926   4.314  14.015
23628SOL     OW72716  13.473   9.493  13.790
23628SOL    HW172717  13.522   9.411  13.790
23628SOL    HW272718  13.531   9.556  13.748
23629SOL     OW72719  12.109   9.823   3.763
23629SOL    HW172720  12.080   9.814   3.854
23629SOL    HW272721  12.104   9.734   3.727
23630SOL     OW72722  14.087   1.765   6.942
23630SOL    HW172723  14.110   1.767   7.035
23630SOL    HW272724  14.066   1.855   6.919
23631SOL     OW72725   7.419  13.329  11.219
23631SOL    HW172726   7.375  13.347  11.136
23631SOL    HW272727   7.493  13.274  11.194
23632SOL     OW72728  13.234  10.171   1.541
23632SOL    HW172729  13.185  10.115   1.601
23632SOL    HW272730  13.271  10.240   1.597
23633SOL     OW72731  11.415  13.833   0.919
23633SOL    HW172732  11.417  13.885   0.839
23633SOL    HW272733  11.466  13.883   0.982
23634SOL     OW72734   6.808   1.331   8.421
23634SOL    HW172735   6.899   1.303   8.412
23634SOL    HW272736   6.757   1.250   8.424
23635SOL     OW72737   2.453   0.955  13.313
23635SOL    HW172738   2.538   0.978  13.276
23635SOL    HW272739   2.470   0.943  13.406
23636SOL     OW72740   3.279   8.217   7.225
23636SOL    HW172741   3.365   8.216   7.183
23636SOL    HW272742   3.236   8.137   7.194
23637SOL     OW72743  11.836  14.583  12.044
23637SOL    HW172744  11.747  14.579  12.010
23637SOL    HW272745  11.883  14.515  11.996
23638SOL     OW72746   3.332   0.978   0.828
23638SOL    HW172747   3.389   1.054   0.825
23638SOL    HW272748   3.391   0.904   0.843
23639SOL     OW72749   6.861   4.285  10.794
23639SOL    HW172750   6.846   4.379  10.806
23639SOL    HW272751   6.858   4.271  10.700
23640SOL     OW72752   2.139   2.460   3.577
23640SOL    HW172753   2.131   2.538   3.633
23640SOL    HW272754   2.220   2.418   3.607
23641SOL     OW72755  12.536  14.598  14.561
23641SOL    HW172756  12.543  14.514  14.606
23641SOL    HW272757  12.608  14.597  14.497
23642SOL     OW72758   0.625  13.792   4.515
23642SOL    HW172759   0.677  13.872   4.505
23642SOL    HW272760   0.664  13.747   4.590
23643SOL     OW72761   6.496   2.149   8.121
23643SOL    HW172762   6.530   2.236   8.142
23643SOL    HW272763   6.408   2.166   8.085
23644SOL     OW72764  12.642  12.311  10.222
23644SOL    HW172765  12.604  12.354  10.145
23644SOL    HW272766  12.736  12.327  10.215
23645SOL     OW72767   4.037  11.631  13.963
23645SOL    HW172768   4.073  11.622  14.051
23645SOL    HW272769   3.944  11.611  13.973
23646SOL     OW72770   8.148  10.739   5.149
23646SOL    HW172771   8.163  10.666   5.209
23646SOL    HW272772   8.056  10.731   5.123
23647SOL     OW72773  12.708   5.148   1.746
23647SOL    HW172774  12.730   5.055   1.735
23647SOL    HW272775  12.684   5.178   1.658
23648SOL     OW72776   6.441   7.435  10.790
23648SOL    HW172777   6.440   7.519  10.744
23648SOL    HW272778   6.380   7.447  10.863
23649SOL     OW72779   8.096   0.800   2.086
23649SOL    HW172780   8.164   0.856   2.049
23649SOL    HW272781   8.139   0.716   2.102
23650SOL     OW72782   0.958  10.458  10.829
23650SOL    HW172783   0.898  10.410  10.772
23650SOL    HW272784   0.903  10.486  10.903
23651SOL     OW72785   1.413   2.922  14.124
23651SOL    HW172786   1.474   2.964  14.185
23651SOL    HW272787   1.447   2.833  14.113
23652SOL     OW72788   2.042   2.234   4.963
23652SOL    HW172789   1.979   2.295   5.001
23652SOL    HW272790   2.025   2.151   5.007
23653SOL     OW72791   6.720   3.164   7.490
23653SOL    HW172792   6.714   3.178   7.396
23653SOL    HW272793   6.632   3.180   7.523
23654SOL     OW72794   4.173  13.130   0.552
23654SOL    HW172795   4.115  13.140   0.628
23654SOL    HW272796   4.178  13.217   0.514
23655SOL     OW72797   3.274  13.277  10.702
23655SOL    HW172798   3.206  13.343  10.690
23655SOL    HW272799   3.227  13.199  10.731
23656SOL     OW72800  14.871  13.711   0.244
23656SOL    HW172801  14.819  13.635   0.271
23656SOL    HW272802  14.825  13.786   0.282
23657SOL     OW72803   6.181   8.975   7.722
23657SOL    HW172804   6.143   9.053   7.681
23657SOL    HW272805   6.217   8.925   7.649
23658SOL     OW72806   5.713   1.727  13.796
23658SOL    HW172807   5.667   1.747  13.714
23658SOL    HW272808   5.728   1.813  13.836
23659SOL     OW72809   5.900   0.238   8.886
23659SOL    HW172810   5.912   0.157   8.936
23659SOL    HW272811   5.988   0.274   8.876
23660SOL     OW72812  11.423   9.134   0.825
23660SOL    HW172813  11.484   9.063   0.805
23660SOL    HW272814  11.380   9.106   0.906
23661SOL     OW72815   7.766  13.799   0.676
23661SOL    HW172816   7.862  13.795   0.677
23661SOL    HW272817   7.746  13.892   0.677
23662SOL     OW72818  14.348   7.862   1.456
23662SOL    HW172819  14.408   7.817   1.397
23662SOL    HW272820  14.401   7.931   1.496
23663SOL     OW72821   3.866   0.780   9.423
23663SOL    HW172822   3.822   0.740   9.348
23663SOL    HW272823   3.804   0.771   9.495
23664SOL     OW72824   7.375   2.643   7.487
23664SOL    HW172825   7.436   2.672   7.554
23664SOL    HW272826   7.427   2.642   7.406
23665SOL     OW72827   3.413   4.658   5.969
23665SOL    HW172828   3.354   4.623   6.035
23665SOL    HW272829   3.462   4.727   6.014
23666SOL     OW72830   9.108  14.358   1.878
23666SOL    HW172831   9.189  14.407   1.890
23666SOL    HW272832   9.136  14.267   1.869
23667SOL     OW72833   2.554   2.484   3.855
23667SOL    HW172834   2.560   2.573   3.819
23667SOL    HW272835   2.625   2.479   3.918
23668SOL     OW72836  12.690  10.359  11.516
23668SOL    HW172837  12.746  10.349  11.438
23668SOL    HW272838  12.614  10.304  11.498
23669SOL     OW72839   0.567   5.140  13.591
23669SOL    HW172840   0.649   5.090  13.594
23669SOL    HW272841   0.543   5.142  13.499
23670SOL     OW72842  12.310   5.826   5.328
23670SOL    HW172843  12.402   5.808   5.346
23670SOL    HW272844  12.289   5.770   5.253
23671SOL     OW72845   7.019   4.007   1.417
23671SOL    HW172846   7.004   4.006   1.512
23671SOL    HW272847   6.997   3.918   1.389
23672SOL     OW72848   0.030   8.886   8.653
23672SOL    HW172849  14.841   8.903   8.718
23672SOL    HW272850   0.110   8.920   8.692
23673SOL     OW72851   3.792  14.783  10.977
23673SOL    HW172852   3.749  14.860  10.941
23673SOL    HW272853   3.732  14.751  11.043
23674SOL     OW72854   7.824  10.560  11.562
23674SOL    HW172855   7.883  10.540  11.635
23674SOL    HW272856   7.861  10.638  11.521
23675SOL     OW72857   4.669   0.404   8.368
23675SOL    HW172858   4.708   0.491   8.364
23675SOL    HW272859   4.575   0.419   8.375
23676SOL     OW72860  14.792   7.728  11.428
23676SOL    HW172861  14.764   7.650  11.379
23676SOL    HW272862  14.826   7.787  11.360
23677SOL     OW72863  14.176   1.139  10.714
23677SOL    HW172864  14.093   1.095  10.696
23677SOL    HW272865  14.206   1.170  10.628
23678SOL     OW72866  10.939   3.495   9.052
23678SOL    HW172867  10.901   3.550   9.120
23678SOL    HW272868  11.029   3.480   9.081
23679SOL     OW72869   3.060   5.543  13.188
23679SOL    HW172870   3.111   5.569  13.264
23679SOL    HW272871   3.009   5.467  13.218
23680SOL     OW72872  13.343   0.176   2.757
23680SOL    HW172873  13.351   0.081   2.750
23680SOL    HW272874  13.288   0.190   2.835
23681SOL     OW72875   6.331   9.664   0.998
23681SOL    HW172876   6.355   9.682   0.907
23681SOL    HW272877   6.415   9.657   1.044
23682SOL     OW72878   9.942  14.203  12.450
23682SOL    HW172879  10.000  14.279  12.455
23682SOL    HW272880   9.890  14.217  12.371
23683SOL     OW72881  12.954  12.911   8.703
23683SOL    HW172882  12.889  12.892   8.635
23683SOL    HW272883  12.920  12.989   8.747
23684SOL     OW72884   1.237   5.039   9.283
23684SOL    HW172885   1.269   5.013   9.370
23684SOL    HW272886   1.293   4.990   9.222
23685SOL     OW72887   3.820   5.619   7.092
23685SOL    HW172888   3.908   5.641   7.123
23685SOL    HW272889   3.826   5.527   7.066
23686SOL     OW72890   0.661  12.175   5.571
23686SOL    HW172891   0.687  12.102   5.627
23686SOL    HW272892   0.739  12.231   5.567
23687SOL     OW72893  11.602  14.299   0.591
23687SOL    HW172894  11.654  14.236   0.641
23687SOL    HW272895  11.546  14.245   0.536
23688SOL     OW72896   8.462   4.477   4.286
23688SOL    HW172897   8.432   4.388   4.273
23688SOL    HW272898   8.422   4.527   4.215
23689SOL     OW72899   1.466   1.831  13.603
23689SOL    HW172900   1.532   1.811  13.669
23689SOL    HW272901   1.512   1.826  13.519
23690SOL     OW72902   4.940   3.948   9.371
23690SOL    HW172903   4.976   3.860   9.369
23690SOL    HW272904   4.856   3.938   9.417
23691SOL     OW72905   4.481  14.286  10.597
23691SOL    HW172906   4.442  14.209  10.555
23691SOL    HW272907   4.420  14.310  10.666
23692SOL     OW72908  12.239   7.052   4.382
23692SOL    HW172909  12.291   7.020   4.308
23692SOL    HW272910  12.150   7.057   4.348
23693SOL     OW72911   4.445  13.518   3.265
23693SOL    HW172912   4.388  13.585   3.229
23693SOL    HW272913   4.402  13.435   3.244
23694SOL     OW72914   8.435   4.121  11.292
23694SOL    HW172915   8.509   4.178  11.310
23694SOL    HW272916   8.466   4.033  11.313
23695SOL     OW72917   2.872   5.050   1.215
23695SOL    HW172918   2.937   4.985   1.239
23695SOL    HW272919   2.918   5.109   1.155
23696SOL     OW72920   9.368   4.131   9.362
23696SOL    HW172921   9.287   4.103   9.318
23696SOL    HW272922   9.348   4.125   9.455
23697SOL     OW72923   3.485  13.902  14.211
23697SOL    HW172924   3.430  13.947  14.275
23697SOL    HW272925   3.423  13.859  14.152
23698SOL     OW72926   5.902   6.030   7.198
23698SOL    HW172927   5.945   5.975   7.132
23698SOL    HW272928   5.965   6.100   7.216
23699SOL     OW72929   4.206   8.233  11.422
23699SOL    HW172930   4.193   8.325  11.444
23699SOL    HW272931   4.291   8.211  11.460
23700SOL     OW72932   2.560   7.404   0.920
23700SOL    HW172933   2.630   7.418   0.857
23700SOL    HW272934   2.480   7.430   0.873
23701SOL     OW72935   5.024   6.498   9.072
23701SOL    HW172936   5.035   6.565   9.005
23701SOL    HW272937   4.987   6.423   9.026
23702SOL     OW72938   4.977  13.609   3.075
23702SOL    HW172939   4.956  13.642   2.987
23702SOL    HW272940   4.892  13.604   3.119
23703SOL     OW72941   2.551   2.407  14.046
23703SOL    HW172942   2.561   2.479  14.108
23703SOL    HW272943   2.627   2.351  14.063
23704SOL     OW72944   4.513   9.704   4.183
23704SOL    HW172945   4.522   9.629   4.242
23704SOL    HW272946   4.480   9.667   4.102
23705SOL     OW72947   6.270   1.447  11.537
23705SOL    HW172948   6.330   1.429  11.465
23705SOL    HW272949   6.196   1.389  11.523
23706SOL     OW72950   6.089   0.036   0.431
23706SOL    HW172951   6.164  14.855   0.432
23706SOL    HW272952   6.092   0.079   0.517
23707SOL     OW72953   4.375  13.787   7.736
23707SOL    HW172954   4.382  13.812   7.828
23707SOL    HW272955   4.345  13.866   7.692
23708SOL     OW72956   7.896  14.294   8.613
23708SOL    HW172957   7.882  14.300   8.519
23708SOL    HW272958   7.809  14.305   8.651
23709SOL     OW72959  11.159   3.033   5.375
23709SOL    HW172960  11.193   2.948   5.348
23709SOL    HW272961  11.065   3.028   5.360
23710SOL     OW72962   5.590   2.882  13.723
23710SOL    HW172963   5.628   2.894  13.636
23710SOL    HW272964   5.660   2.909  13.783
23711SOL     OW72965   9.061  11.135   7.919
23711SOL    HW172966   9.106  11.051   7.917
23711SOL    HW272967   9.072  11.170   7.830
23712SOL     OW72968   3.412   0.264  11.968
23712SOL    HW172969   3.500   0.230  11.951
23712SOL    HW272970   3.358   0.187  11.982
23713SOL     OW72971   1.059   3.728   0.319
23713SOL    HW172972   1.117   3.654   0.300
23713SOL    HW272973   1.117   3.799   0.345
23714SOL     OW72974   7.912   3.443   5.511
23714SOL    HW172975   7.863   3.387   5.451
23714SOL    HW272976   7.883   3.415   5.598
23715SOL     OW72977   1.728  13.636   4.424
23715SOL    HW172978   1.695  13.650   4.335
23715SOL    HW272979   1.811  13.684   4.427
23716SOL     OW72980  12.302  14.284   6.654
23716SOL    HW172981  12.373  14.322   6.603
23716SOL    HW272982  12.224  14.331   6.625
23717SOL     OW72983   3.168   3.754   4.201
23717SOL    HW172984   3.137   3.774   4.113
23717SOL    HW272985   3.135   3.666   4.218
23718SOL     OW72986   4.366   2.618   8.798
23718SOL    HW172987   4.301   2.591   8.862
23718SOL    HW272988   4.433   2.664   8.849
23719SOL     OW72989   9.602   3.806   4.819
23719SOL    HW172990   9.508   3.804   4.804
23719SOL    HW272991   9.641   3.809   4.732
23720SOL     OW72992  11.162   1.174   2.535
23720SOL    HW172993  11.083   1.195   2.585
23720SOL    HW272994  11.130   1.142   2.451
23721SOL     OW72995   3.896   5.053   5.172
23721SOL    HW172996   3.804   5.072   5.193
23721SOL    HW272997   3.892   4.976   5.115
23722SOL     OW72998  13.087  11.762   1.541
23722SOL    HW172999  13.124  11.761   1.453
23722SOL    HW273000  13.162  11.778   1.599
23723SOL     OW73001   4.027  11.756   9.534
23723SOL    HW173002   4.064  11.702   9.603
23723SOL    HW273003   4.103  11.792   9.488
23724SOL     OW73004  10.131   1.582   0.797
23724SOL    HW173005  10.123   1.623   0.883
23724SOL    HW273006  10.043   1.552   0.776
23725SOL     OW73007   2.067   4.668   0.657
23725SOL    HW173008   2.060   4.763   0.650
23725SOL    HW273009   1.999   4.644   0.720
23726SOL     OW73010  12.721  14.286   6.420
23726SOL    HW173011  12.662  14.241   6.481
23726SOL    HW273012  12.808  14.253   6.442
23727SOL     OW73013   4.422  13.371   4.418
23727SOL    HW173014   4.513  13.367   4.449
23727SOL    HW273015   4.371  13.333   4.490
23728SOL     OW73016   2.251   4.322  11.924
23728SOL    HW173017   2.332   4.283  11.890
23728SOL    HW273018   2.184   4.298  11.860
23729SOL     OW73019   9.990   7.355   4.013
23729SOL    HW173020  10.079   7.335   4.041
23729SOL    HW273021   9.947   7.269   4.009
23730SOL     OW73022   7.955   1.476   1.613
23730SOL    HW173023   7.994   1.496   1.698
23730SOL    HW273024   7.865   1.451   1.633
23731SOL     OW73025  13.563   8.979  10.614
23731SOL    HW173026  13.527   8.915  10.675
23731SOL    HW273027  13.658   8.968  10.621
23732SOL     OW73028   2.737   7.466  14.692
23732SOL    HW173029   2.716   7.458  14.785
23732SOL    HW273030   2.655   7.447  14.647
23733SOL     OW73031   4.482  10.462   7.055
23733SOL    HW173032   4.560  10.419   7.020
23733SOL    HW273033   4.516  10.531   7.111
23734SOL     OW73034  14.708  10.196   5.582
23734SOL    HW173035  14.781  10.244   5.544
23734SOL    HW273036  14.748  10.138   5.647
23735SOL     OW73037   0.650   9.051   3.292
23735SOL    HW173038   0.659   9.143   3.314
23735SOL    HW273039   0.571   9.047   3.238
23736SOL     OW73040   4.507  11.764   6.103
23736SOL    HW173041   4.447  11.769   6.028
23736SOL    HW273042   4.481  11.838   6.158
23737SOL     OW73043  11.688  12.245   1.999
23737SOL    HW173044  11.759  12.193   2.037
23737SOL    HW273045  11.611  12.222   2.052
23738SOL     OW73046   8.757   7.693   4.749
23738SOL    HW173047   8.764   7.787   4.766
23738SOL    HW273048   8.678   7.666   4.796
23739SOL     OW73049   0.002  11.606   4.160
23739SOL    HW173050  14.807  11.651   4.118
23739SOL    HW273051   0.077  11.663   4.143
23740SOL     OW73052  12.682   5.358   6.172
23740SOL    HW173053  12.589   5.379   6.170
23740SOL    HW273054  12.723   5.433   6.216
23741SOL     OW73055   9.158   7.449   4.570
23741SOL    HW173056   9.162   7.544   4.581
23741SOL    HW273057   9.114   7.418   4.649
23742SOL     OW73058  13.885  13.895   8.247
23742SOL    HW173059  13.860  13.934   8.163
23742SOL    HW273060  13.849  13.955   8.312
23743SOL     OW73061   1.272   2.886  12.606
23743SOL    HW173062   1.339   2.953  12.617
23743SOL    HW273063   1.216   2.918  12.535
23744SOL     OW73064   1.885   2.602   8.056
23744SOL    HW173065   1.883   2.690   8.093
23744SOL    HW273066   1.952   2.606   7.988
23745SOL     OW73067   7.912  12.151  14.009
23745SOL    HW173068   7.917  12.229  13.953
23745SOL    HW273069   7.860  12.179  14.084
23746SOL     OW73070   0.576  10.036  10.204
23746SOL    HW173071   0.659  10.021  10.249
23746SOL    HW273072   0.587   9.992  10.119
23747SOL     OW73073  12.228   9.708  10.944
23747SOL    HW173074  12.230   9.780  10.882
23747SOL    HW273075  12.302   9.652  10.920
23748SOL     OW73076   0.256   4.218   8.232
23748SOL    HW173077   0.263   4.284   8.301
23748SOL    HW273078   0.194   4.154   8.266
23749SOL     OW73079   9.324   3.322   6.888
23749SOL    HW173080   9.310   3.401   6.940
23749SOL    HW273081   9.418   3.320   6.873
23750SOL     OW73082   8.258   6.814   0.616
23750SOL    HW173083   8.292   6.867   0.544
23750SOL    HW273084   8.334   6.797   0.671
23751SOL     OW73085  12.901   4.299   9.506
23751SOL    HW173086  12.877   4.312   9.414
23751SOL    HW273087  12.818   4.296   9.553
23752SOL     OW73088   4.251  10.669   3.364
23752SOL    HW173089   4.327  10.635   3.412
23752SOL    HW273090   4.184  10.680   3.432
23753SOL     OW73091   0.276  11.044   6.079
23753SOL    HW173092   0.340  11.078   6.141
23753SOL    HW273093   0.199  11.024   6.132
23754SOL     OW73094  14.417   9.218   1.237
23754SOL    HW173095  14.371   9.153   1.184
23754SOL    HW273096  14.425   9.294   1.180
23755SOL     OW73097  11.765   3.696  13.360
23755SOL    HW173098  11.831   3.752  13.402
23755SOL    HW273099  11.801   3.680  13.272
23756SOL     OW73100  12.638   3.832  12.102
23756SOL    HW173101  12.612   3.851  12.012
23756SOL    HW273102  12.654   3.917  12.142
23757SOL     OW73103  10.528   8.343   9.728
23757SOL    HW173104  10.505   8.374   9.815
23757SOL    HW273105  10.445   8.344   9.679
23758SOL     OW73106  11.376   2.413   3.827
23758SOL    HW173107  11.346   2.438   3.739
23758SOL    HW273108  11.443   2.346   3.810
23759SOL     OW73109  13.267   0.407  14.131
23759SOL    HW173110  13.339   0.370  14.183
23759SOL    HW273111  13.193   0.349  14.148
23760SOL     OW73112   4.690   5.468  13.014
23760SOL    HW173113   4.694   5.555  13.054
23760SOL    HW273114   4.600   5.439  13.027
23761SOL     OW73115   4.831   6.227  14.326
23761SOL    HW173116   4.923   6.214  14.349
23761SOL    HW273117   4.807   6.149  14.277
23762SOL     OW73118  14.095   1.139   3.656
23762SOL    HW173119  14.004   1.154   3.681
23762SOL    HW273120  14.109   1.197   3.581
23763SOL     OW73121   4.488   0.124   4.166
23763SOL    HW173122   4.422   0.081   4.221
23763SOL    HW273123   4.476   0.217   4.183
23764SOL     OW73124   0.661   0.426   1.223
23764SOL    HW173125   0.748   0.400   1.253
23764SOL    HW273126   0.653   0.518   1.250
23765SOL     OW73127  14.819   2.856  10.473
23765SOL    HW173128  14.824   2.839  10.379
23765SOL    HW273129  14.844   2.773  10.514
23766SOL     OW73130   0.950   5.464   8.524
23766SOL    HW173131   1.021   5.494   8.467
23766SOL    HW273132   0.990   5.397   8.579
23767SOL     OW73133  12.852   1.490   1.723
23767SOL    HW173134  12.817   1.564   1.672
23767SOL    HW273135  12.792   1.418   1.704
23768SOL     OW73136   2.070   0.419   4.714
23768SOL    HW173137   2.146   0.393   4.662
23768SOL    HW273138   2.079   0.368   4.795
23769SOL     OW73139  14.210   0.363   1.379
23769SOL    HW173140  14.279   0.347   1.314
23769SOL    HW273141  14.256   0.387   1.459
23770SOL     OW73142   3.108  12.509   8.142
23770SOL    HW173143   3.143  12.502   8.231
23770SOL    HW273144   3.116  12.420   8.107
23771SOL     OW73145  12.985   6.558   0.816
23771SOL    HW173146  13.059   6.547   0.756
23771SOL    HW273147  12.955   6.647   0.800
23772SOL     OW73148  12.827   2.678   6.457
23772SOL    HW173149  12.826   2.692   6.362
23772SOL    HW273150  12.811   2.765   6.493
23773SOL     OW73151   5.715   7.652   3.708
23773SOL    HW173152   5.634   7.617   3.671
23773SOL    HW273153   5.748   7.581   3.763
23774SOL     OW73154   5.298  10.748   8.570
23774SOL    HW173155   5.279  10.657   8.593
23774SOL    HW273156   5.246  10.764   8.492
23775SOL     OW73157   0.895   6.449   7.420
23775SOL    HW173158   0.985   6.475   7.399
23775SOL    HW273159   0.900   6.355   7.437
23776SOL     OW73160  12.693  11.193  10.558
23776SOL    HW173161  12.701  11.229  10.647
23776SOL    HW273162  12.665  11.102  10.571
23777SOL     OW73163   0.623  10.828   5.527
23777SOL    HW173164   0.694  10.764   5.521
23777SOL    HW273165   0.588  10.816   5.616
23778SOL     OW73166   8.430  11.760  14.176
23778SOL    HW173167   8.500  11.823  14.194
23778SOL    HW273168   8.352  11.799  14.214
23779SOL     OW73169  14.790   7.954  11.217
23779SOL    HW173170  14.816   7.942  11.126
23779SOL    HW273171  14.861   8.004  11.256
23780SOL     OW73172  13.198   5.205  12.659
23780SOL    HW173173  13.199   5.182  12.566
23780SOL    HW273174  13.174   5.298  12.660
23781SOL     OW73175  10.025   0.439   5.789
23781SOL    HW173176  10.101   0.381   5.797
23781SOL    HW273177  10.010   0.445   5.694
23782SOL     OW73178  10.827   2.140   1.348
23782SOL    HW173179  10.812   2.230   1.375
23782SOL    HW273180  10.829   2.091   1.430
23783SOL     OW73181   6.156   8.590  11.146
23783SOL    HW173182   6.204   8.514  11.113
23783SOL    HW273183   6.220   8.661  11.146
23784SOL     OW73184   7.731  12.361  11.712
23784SOL    HW173185   7.820  12.383  11.741
23784SOL    HW273186   7.714  12.275  11.750
23785SOL     OW73187   8.400   9.663  11.432
23785SOL    HW173188   8.388   9.572  11.404
23785SOL    HW273189   8.336   9.712  11.380
23786SOL     OW73190  13.782  10.752   2.786
23786SOL    HW173191  13.743  10.728   2.702
23786SOL    HW273192  13.866  10.707   2.787
23787SOL     OW73193   0.882   8.908   5.416
23787SOL    HW173194   0.850   8.839   5.357
23787SOL    HW273195   0.968   8.878   5.443
23788SOL     OW73196   0.204   2.954   0.290
23788SOL    HW173197   0.155   3.027   0.329
23788SOL    HW273198   0.197   2.967   0.196
23789SOL     OW73199  11.023   9.661   8.100
23789SOL    HW173200  10.947   9.677   8.157
23789SOL    HW273201  11.058   9.577   8.130
23790SOL     OW73202   3.394   3.387  11.703
23790SOL    HW173203   3.343   3.366  11.782
23790SOL    HW273204   3.331   3.378  11.631
23791SOL     OW73205   9.940   4.449   0.119
23791SOL    HW173206   9.917   4.382   0.054
23791SOL    HW273207   9.953   4.528   0.067
23792SOL     OW73208   3.717   6.448  12.261
23792SOL    HW173209   3.738   6.514  12.194
23792SOL    HW273210   3.803   6.418  12.292
23793SOL     OW73211  11.864   9.649  10.225
23793SOL    HW173212  11.943   9.684  10.266
23793SOL    HW273213  11.866   9.683  10.136
23794SOL     OW73214   7.918  10.006  13.649
23794SOL    HW173215   7.838  10.016  13.597
23794SOL    HW273216   7.889  10.013  13.740
23795SOL     OW73217  13.936   8.192   8.578
23795SOL    HW173218  14.030   8.210   8.571
23795SOL    HW273219  13.926   8.148   8.662
23796SOL     OW73220  10.981  13.910   2.637
23796SOL    HW173221  10.996  13.996   2.598
23796SOL    HW273222  11.010  13.920   2.728
23797SOL     OW73223  10.984   2.375   7.120
23797SOL    HW173224  10.924   2.436   7.161
23797SOL    HW273225  11.068   2.422   7.117
23798SOL     OW73226   7.089   4.102   6.430
23798SOL    HW173227   7.068   4.016   6.394
23798SOL    HW273228   7.089   4.089   6.525
23799SOL     OW73229   6.247   4.731  10.692
23799SOL    HW173230   6.339   4.758  10.694
23799SOL    HW273231   6.244   4.654  10.749
23800SOL     OW73232   2.894   9.799   9.837
23800SOL    HW173233   2.799   9.788   9.826
23800SOL    HW273234   2.915   9.747   9.915
23801SOL     OW73235  11.116  12.176  12.902
23801SOL    HW173236  11.129  12.099  12.957
23801SOL    HW273237  11.195  12.180  12.847
23802SOL     OW73238   8.641   7.805   5.645
23802SOL    HW173239   8.603   7.718   5.632
23802SOL    HW273240   8.569   7.865   5.626
23803SOL     OW73241   8.914  13.387   0.292
23803SOL    HW173242   8.837  13.350   0.249
23803SOL    HW273243   8.914  13.348   0.379
23804SOL     OW73244   0.956   0.045   3.283
23804SOL    HW173245   1.023   0.114   3.285
23804SOL    HW273246   0.878   0.089   3.250
23805SOL     OW73247   9.429   0.523   6.897
23805SOL    HW173248   9.453   0.517   6.990
23805SOL    HW273249   9.511   0.503   6.850
23806SOL     OW73250   0.616   1.665   4.880
23806SOL    HW173251   0.601   1.753   4.846
23806SOL    HW273252   0.706   1.666   4.912
23807SOL     OW73253   7.571   1.347  13.600
23807SOL    HW173254   7.661   1.367  13.573
23807SOL    HW273255   7.520   1.423  13.571
23808SOL     OW73256  14.367  11.613   3.473
23808SOL    HW173257  14.329  11.554   3.538
23808SOL    HW273258  14.324  11.589   3.390
23809SOL     OW73259   5.200   7.956   0.813
23809SOL    HW173260   5.244   7.892   0.757
23809SOL    HW273261   5.127   7.988   0.761
23810SOL     OW73262  10.118   6.219   3.579
23810SOL    HW173263  10.202   6.238   3.620
23810SOL    HW273264  10.060   6.198   3.653
23811SOL     OW73265  12.630   1.152   6.098
23811SOL    HW173266  12.635   1.073   6.152
23811SOL    HW273267  12.716   1.194   6.110
23812SOL     OW73268   4.046   7.483   7.786
23812SOL    HW173269   4.131   7.487   7.741
23812SOL    HW273270   3.983   7.510   7.719
23813SOL     OW73271  11.369   7.274   7.433
23813SOL    HW173272  11.392   7.296   7.524
23813SOL    HW273273  11.312   7.346   7.405
23814SOL     OW73274   7.879   1.728   9.585
23814SOL    HW173275   7.831   1.755   9.507
23814SOL    HW273276   7.941   1.662   9.553
23815SOL     OW73277  10.178  11.112   4.224
23815SOL    HW173278  10.203  11.028   4.262
23815SOL    HW273279  10.131  11.157   4.295
23816SOL     OW73280   1.832   1.265  12.702
23816SOL    HW173281   1.787   1.277  12.786
23816SOL    HW273282   1.925   1.257  12.726
23817SOL     OW73283   9.984  12.011   9.970
23817SOL    HW173284  10.039  12.084  10.000
23817SOL    HW273285  10.045  11.955   9.922
23818SOL     OW73286  10.267   4.670   2.822
23818SOL    HW173287  10.201   4.600   2.826
23818SOL    HW273288  10.218   4.748   2.795
23819SOL     OW73289   1.361  11.855  11.343
23819SOL    HW173290   1.422  11.830  11.413
23819SOL    HW273291   1.322  11.772  11.315
23820SOL     OW73292  10.404  13.414   5.190
23820SOL    HW173293  10.451  13.392   5.270
23820SOL    HW273294  10.443  13.496   5.160
23821SOL     OW73295  12.383  12.619  11.044
23821SOL    HW173296  12.314  12.601  10.981
23821SOL    HW273297  12.349  12.691  11.097
23822SOL     OW73298   7.377   7.113  14.870
23822SOL    HW173299   7.437   7.091  14.799
23822SOL    HW273300   7.301   7.151  14.826
23823SOL     OW73301   3.962   7.891   4.614
23823SOL    HW173302   4.055   7.888   4.634
23823SOL    HW273303   3.919   7.890   4.700
23824SOL     OW73304  12.713  11.819   4.276
23824SOL    HW173305  12.801  11.830   4.238
23824SOL    HW273306  12.691  11.727   4.260
23825SOL     OW73307   1.061  12.113   3.447
23825SOL    HW173308   1.079  12.068   3.365
23825SOL    HW273309   1.004  12.186   3.422
23826SOL     OW73310   8.737   7.120   7.863
23826SOL    HW173311   8.656   7.069   7.859
23826SOL    HW273312   8.786   7.095   7.785
23827SOL     OW73313   8.180   0.966   9.184
23827SOL    HW173314   8.084   0.968   9.180
23827SOL    HW273315   8.204   1.054   9.212
23828SOL     OW73316   0.590  14.545   3.209
23828SOL    HW173317   0.641  14.617   3.247
23828SOL    HW273318   0.654  14.478   3.189
23829SOL     OW73319   0.836  11.739  10.741
23829SOL    HW173320   0.824  11.782  10.826
23829SOL    HW273321   0.913  11.684  10.753
23830SOL     OW73322  14.558   1.772   4.249
23830SOL    HW173323  14.487   1.831   4.223
23830SOL    HW273324  14.638   1.822   4.232
23831SOL     OW73325  10.097   2.107   9.285
23831SOL    HW173326  10.111   2.148   9.371
23831SOL    HW273327  10.011   2.139   9.257
23832SOL     OW73328  11.278   1.667   2.482
23832SOL    HW173329  11.285   1.705   2.394
23832SOL    HW273330  11.369   1.655   2.509
23833SOL     OW73331   6.034  11.920   7.623
23833SOL    HW173332   6.023  11.847   7.684
23833SOL    HW273333   6.121  11.908   7.586
23834SOL     OW73334  13.472   5.321  13.095
23834SOL    HW173335  13.480   5.293  13.004
23834SOL    HW273336  13.393   5.376  13.096
23835SOL     OW73337  11.192  12.146   8.952
23835SOL    HW173338  11.266  12.182   9.000
23835SOL    HW273339  11.226  12.068   8.910
23836SOL     OW73340  10.199   1.554   5.346
23836SOL    HW173341  10.134   1.618   5.315
23836SOL    HW273342  10.281   1.582   5.306
23837SOL     OW73343  12.015  10.936   0.571
23837SOL    HW173344  11.950  10.926   0.641
23837SOL    HW273345  12.067  11.011   0.598
23838SOL     OW73346  11.895   0.241   1.907
23838SOL    HW173347  11.972   0.261   1.960
23838SOL    HW273348  11.911   0.285   1.824
23839SOL     OW73349   8.849  11.564   0.755
23839SOL    HW173350   8.754  11.559   0.744
23839SOL    HW273351   8.881  11.606   0.676
23840SOL     OW73352  11.581  10.183   0.671
23840SOL    HW173353  11.610  10.240   0.600
23840SOL    HW273354  11.624  10.218   0.749
23841SOL     OW73355   6.655  12.180   5.300
23841SOL    HW173356   6.639  12.086   5.302
23841SOL    HW273357   6.751  12.189   5.294
23842SOL     OW73358  14.366  10.909   5.345
23842SOL    HW173359  14.322  10.954   5.273
23842SOL    HW273360  14.458  10.906   5.319
23843SOL     OW73361   7.285   0.861   8.496
23843SOL    HW173362   7.368   0.859   8.544
23843SOL    HW273363   7.277   0.774   8.458
23844SOL     OW73364   7.049  12.118   1.547
23844SOL    HW173365   6.994  12.168   1.607
23844SOL    HW273366   7.074  12.180   1.479
23845SOL     OW73367  12.170   4.905   2.668
23845SOL    HW173368  12.178   4.969   2.739
23845SOL    HW273369  12.075   4.901   2.651
23846SOL     OW73370   9.517  11.659  12.458
23846SOL    HW173371   9.587  11.725  12.457
23846SOL    HW273372   9.541  11.599  12.387
23847SOL     OW73373   6.080  13.130   8.238
23847SOL    HW173374   6.038  13.068   8.298
23847SOL    HW273375   6.026  13.127   8.159
23848SOL     OW73376   1.435   8.998  13.563
23848SOL    HW173377   1.348   8.998  13.603
23848SOL    HW273378   1.476   8.917  13.593
23849SOL     OW73379   5.432   7.595  14.489
23849SOL    HW173380   5.370   7.564  14.424
23849SOL    HW273381   5.422   7.690  14.488
23850SOL     OW73382   8.196   9.984   0.270
23850SOL    HW173383   8.155   9.910   0.225
23850SOL    HW273384   8.248   9.944   0.340
23851SOL     OW73385   0.746   7.619   9.664
23851SOL    HW173386   0.768   7.623   9.571
23851SOL    HW273387   0.726   7.527   9.680
23852SOL     OW73388   3.977   1.708   7.448
23852SOL    HW173389   3.983   1.631   7.392
23852SOL    HW273390   3.955   1.673   7.535
23853SOL     OW73391   0.590   2.406   6.115
23853SOL    HW173392   0.523   2.468   6.088
23853SOL    HW273393   0.558   2.370   6.198
23854SOL     OW73394  14.579  10.266   8.485
23854SOL    HW173395  14.521  10.320   8.538
23854SOL    HW273396  14.573  10.304   8.397
23855SOL     OW73397  10.165  13.113   7.091
23855SOL    HW173398  10.243  13.106   7.147
23855SOL    HW273399  10.166  13.032   7.040
23856SOL     OW73400  12.587  11.729  13.695
23856SOL    HW173401  12.517  11.705  13.756
23856SOL    HW273402  12.555  11.700  13.609
23857SOL     OW73403   2.107   4.101  14.241
23857SOL    HW173404   2.095   4.083  14.335
23857SOL    HW273405   2.174   4.169  14.239
23858SOL     OW73406  13.401  14.355   4.055
23858SOL    HW173407  13.491  14.342   4.084
23858SOL    HW273408  13.408  14.364   3.960
23859SOL     OW73409   4.397   9.477  13.195
23859SOL    HW173410   4.416   9.422  13.270
23859SOL    HW273411   4.302   9.477  13.188
23860SOL     OW73412   4.594   9.707  12.115
23860SOL    HW173413   4.675   9.755  12.097
23860SOL    HW273414   4.538   9.728  12.041
23861SOL     OW73415  14.087  13.313   1.399
23861SOL    HW173416  14.026  13.276   1.463
23861SOL    HW273417  14.107  13.240   1.340
23862SOL     OW73418   0.576  12.406   9.118
23862SOL    HW173419   0.547  12.497   9.122
23862SOL    HW273420   0.507  12.360   9.071
23863SOL     OW73421  10.189  14.341   8.614
23863SOL    HW173422  10.117  14.391   8.574
23863SOL    HW273423  10.256  14.338   8.546
23864SOL     OW73424   8.764   7.486  13.287
23864SOL    HW173425   8.768   7.529  13.202
23864SOL    HW273426   8.771   7.557  13.351
23865SOL     OW73427   4.421  14.005   3.089
23865SOL    HW173428   4.449  14.097   3.090
23865SOL    HW273429   4.332  14.007   3.125
23866SOL     OW73430   7.935   3.753  12.273
23866SOL    HW173431   7.950   3.711  12.358
23866SOL    HW273432   7.984   3.698  12.211
23867SOL     OW73433  10.307   2.822   3.636
23867SOL    HW173434  10.282   2.742   3.683
23867SOL    HW273435  10.379   2.858   3.686
23868SOL     OW73436   0.764   1.514   4.709
23868SOL    HW173437   0.692   1.514   4.772
23868SOL    HW273438   0.805   1.429   4.719
23869SOL     OW73439   0.388   2.870  12.144
23869SOL    HW173440   0.331   2.797  12.123
23869SOL    HW273441   0.414   2.907  12.060
23870SOL     OW73442   7.024   7.297  11.375
23870SOL    HW173443   7.035   7.214  11.422
23870SOL    HW273444   7.102   7.348  11.396
23871SOL     OW73445   4.404   0.713   9.168
23871SOL    HW173446   4.403   0.634   9.222
23871SOL    HW273447   4.322   0.711   9.119
23872SOL     OW73448   0.473  11.568  10.383
23872SOL    HW173449   0.390  11.615  10.392
23872SOL    HW273450   0.525  11.597  10.457
23873SOL     OW73451   4.765   4.919  10.210
23873SOL    HW173452   4.676   4.923  10.175
23873SOL    HW273453   4.801   4.838  10.175
23874SOL     OW73454   4.437   4.289   4.901
23874SOL    HW173455   4.472   4.200   4.905
23874SOL    HW273456   4.430   4.316   4.992
23875SOL     OW73457   1.805  12.260   0.312
23875SOL    HW173458   1.808  12.175   0.356
23875SOL    HW273459   1.758  12.244   0.231
23876SOL     OW73460   8.700   0.497   4.178
23876SOL    HW173461   8.667   0.476   4.090
23876SOL    HW273462   8.753   0.421   4.202
23877SOL     OW73463   2.962   6.425   5.720
23877SOL    HW173464   2.913   6.396   5.643
23877SOL    HW273465   2.956   6.520   5.718
23878SOL     OW73466   9.509   7.912   3.303
23878SOL    HW173467   9.423   7.921   3.343
23878SOL    HW273468   9.491   7.885   3.213
23879SOL     OW73469   4.869   8.087  10.676
23879SOL    HW173470   4.855   8.043  10.760
23879SOL    HW273471   4.882   8.179  10.699
23880SOL     OW73472  13.940   5.003   7.192
23880SOL    HW173473  13.976   4.914   7.189
23880SOL    HW273474  13.903   5.011   7.280
23881SOL     OW73475  11.934   3.694   1.294
23881SOL    HW173476  11.885   3.758   1.347
23881SOL    HW273477  11.932   3.729   1.205
23882SOL     OW73478   0.320  10.749  14.460
23882SOL    HW173479   0.248  10.759  14.523
23882SOL    HW273480   0.396  10.785  14.505
23883SOL     OW73481  11.855   2.698   4.406
23883SOL    HW173482  11.824   2.758   4.339
23883SOL    HW273483  11.940   2.733   4.433
23884SOL     OW73484   9.930   9.901   7.960
23884SOL    HW173485   9.855   9.848   7.986
23884SOL    HW273486  10.002   9.870   8.015
23885SOL     OW73487   4.675   5.889  12.329
23885SOL    HW173488   4.700   5.932  12.411
23885SOL    HW273489   4.610   5.824  12.355
23886SOL     OW73490   0.864   9.704  10.354
23886SOL    HW173491   0.905   9.645  10.418
23886SOL    HW273492   0.933   9.721  10.290
23887SOL     OW73493  12.563  13.033   2.752
23887SOL    HW173494  12.545  12.985   2.671
23887SOL    HW273495  12.552  13.125   2.729
23888SOL     OW73496  11.363   1.464   7.989
23888SOL    HW173497  11.329   1.551   8.010
23888SOL    HW273498  11.288   1.406   7.999
23889SOL     OW73499  10.737   5.876   3.219
23889SOL    HW173500  10.738   5.971   3.229
23889SOL    HW273501  10.649   5.856   3.185
23890SOL     OW73502  14.397   8.202  13.460
23890SOL    HW173503  14.465   8.187  13.526
23890SOL    HW273504  14.367   8.291  13.477
23891SOL     OW73505   5.796   0.515  10.638
23891SOL    HW173506   5.866   0.508  10.574
23891SOL    HW273507   5.767   0.425  10.652
23892SOL     OW73508  13.848   3.621  11.599
23892SOL    HW173509  13.913   3.679  11.640
23892SOL    HW273510  13.872   3.533  11.629
23893SOL     OW73511   7.191  10.968  14.574
23893SOL    HW173512   7.224  11.057  14.585
23893SOL    HW273513   7.203  10.949  14.481
23894SOL     OW73514   9.555   0.214   2.031
23894SOL    HW173515   9.633   0.225   2.086
23894SOL    HW273516   9.483   0.242   2.087
23895SOL     OW73517  13.396   9.577  11.771
23895SOL    HW173518  13.466   9.558  11.709
23895SOL    HW273519  13.437   9.568  11.857
23896SOL     OW73520   9.218   7.431   0.039
23896SOL    HW173521   9.256   7.506  14.872
23896SOL    HW273522   9.136   7.414  14.872
23897SOL     OW73523  14.638   5.452   2.913
23897SOL    HW173524  14.684   5.404   2.982
23897SOL    HW273525  14.648   5.396   2.835
23898SOL     OW73526  13.838   6.057  10.101
23898SOL    HW173527  13.911   6.073  10.161
23898SOL    HW273528  13.835   6.135  10.046
23899SOL     OW73529   5.731   1.071   2.128
23899SOL    HW173530   5.750   1.155   2.170
23899SOL    HW273531   5.694   1.095   2.043
23900SOL     OW73532   8.617  10.828   6.460
23900SOL    HW173533   8.609  10.776   6.540
23900SOL    HW273534   8.711  10.841   6.448
23901SOL     OW73535  14.324   4.505   6.020
23901SOL    HW173536  14.269   4.463   5.954
23901SOL    HW273537  14.354   4.433   6.076
23902SOL     OW73538  13.747   6.817   7.524
23902SOL    HW173539  13.699   6.772   7.455
23902SOL    HW273540  13.775   6.899   7.483
23903SOL     OW73541  10.784   2.145   6.509
23903SOL    HW173542  10.739   2.142   6.593
23903SOL    HW273543  10.730   2.203   6.455
23904SOL     OW73544  12.807   4.644   6.273
23904SOL    HW173545  12.833   4.712   6.336
23904SOL    HW273546  12.753   4.583   6.323
23905SOL     OW73547   0.951  13.382   9.194
23905SOL    HW173548   0.912  13.365   9.108
23905SOL    HW273549   0.970  13.476   9.193
23906SOL     OW73550   9.195  13.856   6.156
23906SOL    HW173551   9.285  13.872   6.184
23906SOL    HW273552   9.142  13.870   6.234
23907SOL     OW73553   6.305   6.235   5.226
23907SOL    HW173554   6.234   6.214   5.286
23907SOL    HW273555   6.267   6.224   5.138
23908SOL     OW73556  10.270  14.129  12.254
23908SOL    HW173557  10.181  14.095  12.262
23908SOL    HW273558  10.305  14.084  12.176
23909SOL     OW73559   5.781   3.285   8.142
23909SOL    HW173560   5.863   3.267   8.096
23909SOL    HW273561   5.735   3.201   8.143
23910SOL     OW73562  13.702   3.023  14.625
23910SOL    HW173563  13.642   3.048  14.695
23910SOL    HW273564  13.681   3.081  14.553
23911SOL     OW73565  14.066   9.879   1.789
23911SOL    HW173566  14.152   9.860   1.825
23911SOL    HW273567  14.007   9.874   1.864
23912SOL     OW73568   0.606   0.996  11.790
23912SOL    HW173569   0.635   0.976  11.701
23912SOL    HW273570   0.672   1.056  11.825
23913SOL     OW73571   5.634   3.725   6.959
23913SOL    HW173572   5.682   3.743   7.040
23913SOL    HW273573   5.634   3.809   6.912
23914SOL     OW73574   4.906   5.042   6.687
23914SOL    HW173575   4.932   5.126   6.649
23914SOL    HW273576   4.823   5.021   6.643
23915SOL     OW73577   0.890   2.203   9.400
23915SOL    HW173578   0.846   2.286   9.420
23915SOL    HW273579   0.983   2.224   9.402
23916SOL     OW73580  13.987  11.041  12.232
23916SOL    HW173581  14.022  11.127  12.257
23916SOL    HW273582  13.911  11.029  12.289
23917SOL     OW73583  12.317  11.375  14.736
23917SOL    HW173584  12.343  11.317  14.664
23917SOL    HW273585  12.223  11.388  14.723
23918SOL     OW73586   5.599  10.940   2.479
23918SOL    HW173587   5.647  10.863   2.509
23918SOL    HW273588   5.523  10.945   2.536
23919SOL     OW73589  10.124  10.076   0.229
23919SOL    HW173590  10.174  10.028   0.295
23919SOL    HW273591  10.041  10.028   0.222
23920SOL     OW73592  11.737  12.463  11.160
23920SOL    HW173593  11.830  12.441  11.154
23920SOL    HW273594  11.704  12.450  11.071
23921SOL     OW73595   9.965  10.233   5.822
23921SOL    HW173596   9.943  10.278   5.903
23921SOL    HW273597   9.881  10.207   5.784
23922SOL     OW73598   7.978   3.270  13.553
23922SOL    HW173599   7.984   3.356  13.512
23922SOL    HW273600   7.932   3.286  13.635
23923SOL     OW73601   4.389   8.200   6.477
23923SOL    HW173602   4.342   8.254   6.541
23923SOL    HW273603   4.472   8.180   6.520
23924SOL     OW73604   9.535  12.051  14.215
23924SOL    HW173605   9.608  12.080  14.271
23924SOL    HW273606   9.556  12.086  14.129
23925SOL     OW73607   5.228   0.749  14.585
23925SOL    HW173608   5.260   0.700  14.509
23925SOL    HW273609   5.206   0.835  14.549
23926SOL     OW73610   9.731   0.658   2.333
23926SOL    HW173611   9.687   0.592   2.388
23926SOL    HW273612   9.823   0.652   2.359
23927SOL     OW73613  10.853  14.001   0.100
23927SOL    HW173614  10.883  14.076   0.049
23927SOL    HW273615  10.917  13.932   0.080
23928SOL     OW73616  12.690  10.681   7.311
23928SOL    HW173617  12.659  10.639   7.230
23928SOL    HW273618  12.771  10.725   7.286
23929SOL     OW73619   5.745  14.217   6.610
23929SOL    HW173620   5.764  14.144   6.668
23929SOL    HW273621   5.672  14.262   6.652
23930SOL     OW73622   2.091   2.881   8.712
23930SOL    HW173623   2.106   2.911   8.622
23930SOL    HW273624   2.156   2.927   8.764
23931SOL     OW73625   4.846  10.252   8.728
23931SOL    HW173626   4.807  10.272   8.643
23931SOL    HW273627   4.817  10.323   8.785
23932SOL     OW73628  12.701   7.670   8.574
23932SOL    HW173629  12.671   7.597   8.520
23932SOL    HW273630  12.793   7.682   8.548
23933SOL     OW73631   4.498  10.419   2.440
23933SOL    HW173632   4.532  10.345   2.490
23933SOL    HW273633   4.574  10.475   2.425
23934SOL     OW73634  14.429  10.705   1.263
23934SOL    HW173635  14.417  10.800   1.268
23934SOL    HW273636  14.354  10.674   1.214
23935SOL     OW73637  10.318   7.999  10.101
23935SOL    HW173638  10.304   7.910  10.133
23935SOL    HW273639  10.408   8.021  10.126
23936SOL     OW73640  10.286   7.717   0.875
23936SOL    HW173641  10.343   7.722   0.798
23936SOL    HW273642  10.287   7.805   0.912
23937SOL     OW73643   5.414   2.151   2.968
23937SOL    HW173644   5.366   2.201   3.034
23937SOL    HW273645   5.429   2.212   2.897
23938SOL     OW73646  12.636   5.242  13.379
23938SOL    HW173647  12.677   5.169  13.333
23938SOL    HW273648  12.544   5.217  13.386
23939SOL     OW73649  10.424   9.959   1.470
23939SOL    HW173650  10.348  10.009   1.442
23939SOL    HW273651  10.416   9.956   1.566
23940SOL     OW73652   2.434   9.854   7.819
23940SOL    HW173653   2.401   9.943   7.831
23940SOL    HW273654   2.528   9.861   7.833
23941SOL     OW73655   8.007  14.502  11.030
23941SOL    HW173656   8.040  14.429  11.082
23941SOL    HW273657   8.083  14.533  10.982
23942SOL     OW73658  11.548  11.682  12.784
23942SOL    HW173659  11.480  11.659  12.720
23942SOL    HW273660  11.614  11.613  12.776
23943SOL     OW73661   9.237   3.778  13.047
23943SOL    HW173662   9.241   3.740  13.135
23943SOL    HW273663   9.146   3.767  13.021
23944SOL     OW73664   6.360   2.544   4.594
23944SOL    HW173665   6.265   2.558   4.600
23944SOL    HW273666   6.374   2.503   4.509
23945SOL     OW73667   1.351   6.181  12.944
23945SOL    HW173668   1.418   6.135  12.994
23945SOL    HW273669   1.307   6.112  12.893
23946SOL     OW73670  10.924   7.615   5.967
23946SOL    HW173671  10.876   7.690   5.933
23946SOL    HW273672  10.857   7.555   5.999
23947SOL     OW73673  13.487  13.694  10.265
23947SOL    HW173674  13.490  13.749  10.343
23947SOL    HW273675  13.410  13.724  10.217
23948SOL     OW73676   7.861  14.758  10.466
23948SOL    HW173677   7.801  14.759  10.540
23948SOL    HW273678   7.944  14.788  10.502
23949SOL     OW73679   1.294  13.070   4.206
23949SOL    HW173680   1.354  13.104   4.273
23949SOL    HW273681   1.350  13.054   4.130
23950SOL     OW73682   6.747   5.610   1.696
23950SOL    HW173683   6.802   5.603   1.617
23950SOL    HW273684   6.789   5.679   1.748
23951SOL     OW73685  14.438   5.122   7.256
23951SOL    HW173686  14.392   5.105   7.174
23951SOL    HW273687  14.514   5.175   7.231
23952SOL     OW73688   8.528  13.881   1.522
23952SOL    HW173689   8.614  13.840   1.530
23952SOL    HW273690   8.544  13.958   1.466
23953SOL     OW73691   4.194   5.812   3.802
23953SOL    HW173692   4.274   5.845   3.763
23953SOL    HW273693   4.190   5.855   3.888
23954SOL     OW73694   4.919   6.027   6.561
23954SOL    HW173695   4.967   6.069   6.490
23954SOL    HW273696   4.857   6.094   6.591
23955SOL     OW73697  14.489  10.592   4.926
23955SOL    HW173698  14.578  10.601   4.960
23955SOL    HW273699  14.500  10.581   4.832
23956SOL     OW73700   6.888   5.843   1.781
23956SOL    HW173701   6.845   5.862   1.698
23956SOL    HW273702   6.942   5.920   1.799
23957SOL     OW73703  10.932  13.533   2.987
23957SOL    HW173704  10.928  13.488   2.903
23957SOL    HW273705  10.846  13.518   3.027
23958SOL     OW73706   1.106   7.771   2.611
23958SOL    HW173707   1.050   7.706   2.570
23958SOL    HW273708   1.192   7.729   2.616
23959SOL     OW73709   9.887  12.472  11.517
23959SOL    HW173710   9.975  12.508  11.512
23959SOL    HW273711   9.843  12.504  11.438
23960SOL     OW73712   5.015   7.135  13.071
23960SOL    HW173713   5.076   7.149  12.999
23960SOL    HW273714   5.035   7.046  13.102
23961SOL     OW73715   2.878  12.480   5.139
23961SOL    HW173716   2.949  12.466   5.201
23961SOL    HW273717   2.921  12.491   5.055
23962SOL     OW73718  10.753   7.252   0.996
23962SOL    HW173719  10.785   7.316   0.933
23962SOL    HW273720  10.779   7.168   0.960
23963SOL     OW73721  14.709   0.636   0.130
23963SOL    HW173722  14.676   0.712   0.082
23963SOL    HW273723  14.735   0.671   0.215
23964SOL     OW73724   7.265  11.888   2.429
23964SOL    HW173725   7.248  11.905   2.521
23964SOL    HW273726   7.354  11.851   2.427
23965SOL     OW73727   6.385  13.108   7.784
23965SOL    HW173728   6.369  13.063   7.867
23965SOL    HW273729   6.327  13.184   7.786
23966SOL     OW73730   3.048   7.617  14.559
23966SOL    HW173731   3.099   7.612  14.640
23966SOL    HW273732   2.980   7.550  14.570
23967SOL     OW73733  11.083  14.216   4.750
23967SOL    HW173734  11.071  14.129   4.788
23967SOL    HW273735  11.164  14.248   4.788
23968SOL     OW73736   5.818   6.364  11.415
23968SOL    HW173737   5.770   6.401  11.489
23968SOL    HW273738   5.838   6.439  11.359
23969SOL     OW73739   6.642   1.057  11.557
23969SOL    HW173740   6.729   1.031  11.525
23969SOL    HW273741   6.644   1.036  11.650
23970SOL     OW73742  13.595   2.735  10.823
23970SOL    HW173743  13.635   2.699  10.744
23970SOL    HW273744  13.593   2.830  10.808
23971SOL     OW73745   3.779  14.507  10.375
23971SOL    HW173746   3.719  14.544  10.440
23971SOL    HW273747   3.859  14.559  10.383
23972SOL     OW73748  14.274   5.784  13.799
23972SOL    HW173749  14.259   5.787  13.704
23972SOL    HW273750  14.197   5.827  13.837
23973SOL     OW73751   7.122  11.553   5.586
23973SOL    HW173752   7.068  11.549   5.507
23973SOL    HW273753   7.182  11.626   5.570
23974SOL     OW73754   7.859  11.731   8.913
23974SOL    HW173755   7.834  11.823   8.921
23974SOL    HW273756   7.819  11.702   8.831
23975SOL     OW73757   4.373  11.753   0.619
23975SOL    HW173758   4.456  11.793   0.594
23975SOL    HW273759   4.384  11.660   0.598
23976SOL     OW73760   5.788  14.478  14.457
23976SOL    HW173761   5.699  14.458  14.486
23976SOL    HW273762   5.790  14.573  14.447
23977SOL     OW73763   7.394   9.775   9.902
23977SOL    HW173764   7.422   9.782   9.994
23977SOL    HW273765   7.462   9.722   9.860
23978SOL     OW73766   0.813   3.660   0.100
23978SOL    HW173767   0.788   3.731   0.160
23978SOL    HW273768   0.906   3.647   0.117
23979SOL     OW73769  11.155   9.324  13.311
23979SOL    HW173770  11.133   9.415  13.332
23979SOL    HW273771  11.183   9.286  13.394
23980SOL     OW73772   1.945   0.578  13.802
23980SOL    HW173773   1.929   0.574  13.896
23980SOL    HW273774   1.884   0.513  13.765
23981SOL     OW73775   4.766  10.783   2.043
23981SOL    HW173776   4.757  10.813   1.953
23981SOL    HW273777   4.725  10.697   2.045
23982SOL     OW73778   1.912   1.548  14.155
23982SOL    HW173779   1.922   1.494  14.234
23982SOL    HW273780   1.979   1.517  14.095
23983SOL     OW73781   6.357   5.822   0.616
23983SOL    HW173782   6.400   5.739   0.597
23983SOL    HW273783   6.265   5.799   0.629
23984SOL     OW73784   9.167   0.039  14.838
23984SOL    HW173785   9.230   0.080  14.778
23984SOL    HW273786   9.089   0.025  14.785
23985SOL     OW73787  11.782   9.001   2.263
23985SOL    HW173788  11.868   9.040   2.276
23985SOL    HW273789  11.725   9.076   2.244
23986SOL     OW73790   4.458   1.399  13.387
23986SOL    HW173791   4.508   1.334  13.338
23986SOL    HW273792   4.368   1.367  13.384
23987SOL     OW73793  13.712   0.237  12.942
23987SOL    HW173794  13.784   0.275  12.892
23987SOL    HW273795  13.684   0.161  12.890
23988SOL     OW73796   5.411  13.066  12.914
23988SOL    HW173797   5.382  13.149  12.877
23988SOL    HW273798   5.335  13.033  12.961
23989SOL     OW73799  10.768  14.133   9.277
23989SOL    HW173800  10.831  14.068   9.309
23989SOL    HW273801  10.736  14.097   9.194
23990SOL     OW73802   7.520  13.829   7.038
23990SOL    HW173803   7.450  13.800   7.097
23990SOL    HW273804   7.510  13.773   6.961
23991SOL     OW73805   3.918   0.528  14.147
23991SOL    HW173806   3.936   0.441  14.183
23991SOL    HW273807   3.878   0.510  14.061
23992SOL     OW73808   3.593   7.677   9.448
23992SOL    HW173809   3.549   7.615   9.506
23992SOL    HW273810   3.654   7.624   9.396
23993SOL     OW73811   7.853  13.467  10.989
23993SOL    HW173812   7.869  13.381  11.028
23993SOL    HW273813   7.873  13.529  11.059
23994SOL     OW73814  11.281   5.661   0.664
23994SOL    HW173815  11.333   5.729   0.620
23994SOL    HW273816  11.285   5.586   0.606
23995SOL     OW73817   8.322   8.251  13.934
23995SOL    HW173818   8.300   8.218  13.847
23995SOL    HW273819   8.248   8.307  13.958
23996SOL     OW73820   1.532   5.613   9.493
23996SOL    HW173821   1.618   5.650   9.510
23996SOL    HW273822   1.533   5.529   9.537
23997SOL     OW73823  11.812   1.513   8.880
23997SOL    HW173824  11.839   1.455   8.951
23997SOL    HW273825  11.789   1.595   8.923
23998SOL     OW73826   1.240   3.235  13.367
23998SOL    HW173827   1.244   3.327  13.339
23998SOL    HW273828   1.325   3.219  13.408
23999SOL     OW73829   5.289  12.250   8.601
23999SOL    HW173830   5.361  12.313   8.603
23999SOL    HW273831   5.331  12.166   8.585
24000SOL     OW73832   8.723   9.059   2.053
24000SOL    HW173833   8.813   9.046   2.021
24000SOL    HW273834   8.734   9.094   2.142
24001SOL     OW73835   9.165   0.679   4.235
24001SOL    HW173836   9.166   0.643   4.323
24001SOL    HW273837   9.072   0.689   4.214
24002SOL     OW73838   4.178  10.138  12.224
24002SOL    HW173839   4.198  10.223  12.264
24002SOL    HW273840   4.124  10.159  12.148
24003SOL     OW73841   6.242  14.509   9.153
24003SOL    HW173842   6.173  14.567   9.184
24003SOL    HW273843   6.227  14.503   9.058
24004SOL     OW73844   4.223   3.038   8.527
24004SOL    HW173845   4.281   3.030   8.452
24004SOL    HW273846   4.184   2.951   8.538
24005SOL     OW73847   1.014   7.734  13.962
24005SOL    HW173848   1.088   7.673  13.970
24005SOL    HW273849   0.965   7.722  14.043
24006SOL     OW73850   8.651   3.519  10.695
24006SOL    HW173851   8.615   3.532  10.608
24006SOL    HW273852   8.719   3.453  10.684
24007SOL     OW73853   4.513  10.871  11.588
24007SOL    HW173854   4.449  10.825  11.533
24007SOL    HW273855   4.471  10.954  11.610
24008SOL     OW73856   6.503   6.191   8.006
24008SOL    HW173857   6.531   6.107   7.969
24008SOL    HW273858   6.471   6.241   7.930
24009SOL     OW73859  11.797   0.759  14.413
24009SOL    HW173860  11.745   0.739  14.335
24009SOL    HW273861  11.873   0.807  14.379
24010SOL     OW73862   5.803  11.746  11.021
24010SOL    HW173863   5.791  11.836  10.990
24010SOL    HW273864   5.716  11.707  11.017
24011SOL     OW73865  14.336  11.396   7.881
24011SOL    HW173866  14.429  11.416   7.878
24011SOL    HW273867  14.292  11.478   7.858
24012SOL     OW73868  13.071   5.203  14.253
24012SOL    HW173869  12.982   5.192  14.218
24012SOL    HW273870  13.128   5.188  14.178
24013SOL     OW73871   1.029   3.145   0.153
24013SOL    HW173872   1.072   3.063   0.177
24013SOL    HW273873   0.972   3.165   0.228
24014SOL     OW73874   5.465   1.753   7.315
24014SOL    HW173875   5.477   1.832   7.368
24014SOL    HW273876   5.381   1.717   7.344
24015SOL     OW73877   4.901   9.459  12.709
24015SOL    HW173878   4.869   9.548  12.727
24015SOL    HW273879   4.961   9.470  12.635
24016SOL     OW73880  11.409  10.046   2.848
24016SOL    HW173881  11.424  10.116   2.785
24016SOL    HW273882  11.323  10.011   2.825
24017SOL     OW73883   6.114  13.489  12.400
24017SOL    HW173884   6.098  13.569  12.350
24017SOL    HW273885   6.066  13.502  12.482
24018SOL     OW73886   0.932   0.555   0.618
24018SOL    HW173887   1.015   0.509   0.626
24018SOL    HW273888   0.867   0.486   0.606
24019SOL     OW73889   2.721  14.377   6.583
24019SOL    HW173890   2.765  14.302   6.544
24019SOL    HW273891   2.628  14.353   6.584
24020SOL     OW73892   7.491   5.100   3.138
24020SOL    HW173893   7.460   5.156   3.209
24020SOL    HW273894   7.416   5.045   3.116
24021SOL     OW73895  14.223   7.274   7.090
24021SOL    HW173896  14.272   7.192   7.094
24021SOL    HW273897  14.143   7.257   7.140
24022SOL     OW73898   4.249   7.537   5.896
24022SOL    HW173899   4.307   7.512   5.825
24022SOL    HW273900   4.308   7.564   5.967
24023SOL     OW73901   6.805  11.059   1.321
24023SOL    HW173902   6.900  11.048   1.323
24023SOL    HW273903   6.789  11.147   1.356
24024SOL     OW73904   1.540   2.713   5.328
24024SOL    HW173905   1.444   2.713   5.327
24024SOL    HW273906   1.565   2.707   5.236
24025SOL     OW73907   8.701   8.928   9.686
24025SOL    HW173908   8.651   8.911   9.606
24025SOL    HW273909   8.635   8.937   9.755
24026SOL     OW73910  12.376   7.588   9.376
24026SOL    HW173911  12.399   7.594   9.283
24026SOL    HW273912  12.458   7.606   9.422
24027SOL     OW73913   9.823   4.567   4.814
24027SOL    HW173914   9.894   4.622   4.847
24027SOL    HW273915   9.793   4.519   4.891
24028SOL     OW73916   0.980   4.033   1.778
24028SOL    HW173917   0.927   3.954   1.767
24028SOL    HW273918   0.917   4.105   1.778
24029SOL     OW73919   8.805  13.799  11.695
24029SOL    HW173920   8.781  13.839  11.778
24029SOL    HW273921   8.749  13.722  11.688
24030SOL     OW73922   5.220   3.257   3.021
24030SOL    HW173923   5.140   3.218   2.988
24030SOL    HW273924   5.239   3.329   2.960
24031SOL     OW73925   7.965  13.239  12.684
24031SOL    HW173926   7.993  13.154  12.718
24031SOL    HW273927   7.870  13.233  12.679
24032SOL     OW73928   3.411   3.651   5.143
24032SOL    HW173929   3.435   3.736   5.107
24032SOL    HW273930   3.394   3.596   5.067
24033SOL     OW73931   4.333   7.125  12.814
24033SOL    HW173932   4.334   7.162  12.726
24033SOL    HW273933   4.420   7.146  12.849
24034SOL     OW73934  12.506   4.942   0.965
24034SOL    HW173935  12.483   4.850   0.974
24034SOL    HW273936  12.447   4.987   1.026
24035SOL     OW73937   9.440   5.350   6.265
24035SOL    HW173938   9.517   5.337   6.320
24035SOL    HW273939   9.467   5.416   6.201
24036SOL     OW73940   7.833   3.261  10.235
24036SOL    HW173941   7.815   3.273  10.142
24036SOL    HW273942   7.928   3.252  10.241
24037SOL     OW73943  10.948   2.555  14.420
24037SOL    HW173944  10.937   2.630  14.361
24037SOL    HW273945  10.957   2.480  14.361
24038SOL     OW73946   0.742   2.513  11.794
24038SOL    HW173947   0.806   2.542  11.728
24038SOL    HW273948   0.657   2.531  11.754
24039SOL     OW73949  11.931   7.025   0.454
24039SOL    HW173950  11.956   7.114   0.427
24039SOL    HW273951  11.837   7.021   0.439
24040SOL     OW73952   7.240   8.856   3.251
24040SOL    HW173953   7.330   8.867   3.281
24040SOL    HW273954   7.244   8.872   3.157
24041SOL     OW73955   0.457  14.324   6.029
24041SOL    HW173956   0.408  14.321   6.111
24041SOL    HW273957   0.465  14.417   6.009
24042SOL     OW73958  11.955   1.802   8.134
24042SOL    HW173959  12.050   1.794   8.121
24042SOL    HW273960  11.944   1.889   8.172
24043SOL     OW73961  10.715   5.518   0.096
24043SOL    HW173962  10.680   5.431   0.076
24043SOL    HW273963  10.802   5.500   0.133
24044SOL     OW73964   3.057   4.450   1.004
24044SOL    HW173965   3.143   4.444   1.045
24044SOL    HW273966   3.023   4.360   1.005
24045SOL     OW73967   9.040   7.351   5.394
24045SOL    HW173968   9.007   7.367   5.482
24045SOL    HW273969   9.000   7.420   5.341
24046SOL     OW73970   5.854   2.812   3.721
24046SOL    HW173971   5.863   2.750   3.649
24046SOL    HW273972   5.942   2.822   3.757
24047SOL     OW73973   8.667   6.990  12.157
24047SOL    HW173974   8.638   6.963  12.070
24047SOL    HW273975   8.752   6.948  12.169
24048SOL     OW73976  10.451   3.364   9.732
24048SOL    HW173977  10.453   3.458   9.713
24048SOL    HW273978  10.437   3.359   9.827
24049SOL     OW73979   6.680   8.665   5.572
24049SOL    HW173980   6.732   8.602   5.621
24049SOL    HW273981   6.589   8.646   5.597
24050SOL     OW73982   5.386   4.452   3.336
24050SOL    HW173983   5.319   4.468   3.401
24050SOL    HW273984   5.351   4.381   3.283
24051SOL     OW73985   6.056  12.616   4.159
24051SOL    HW173986   6.106  12.538   4.184
24051SOL    HW273987   5.998  12.633   4.233
24052SOL     OW73988   6.782   2.825   2.887
24052SOL    HW173989   6.808   2.733   2.877
24052SOL    HW273990   6.781   2.859   2.797
24053SOL     OW73991  11.441   5.171  14.440
24053SOL    HW173992  11.506   5.175  14.510
24053SOL    HW273993  11.358   5.155  14.485
24054SOL     OW73994   1.095  14.368   6.667
24054SOL    HW173995   1.107  14.297   6.605
24054SOL    HW273996   1.015  14.345   6.715
24055SOL     OW73997  10.512  10.289   8.621
24055SOL    HW173998  10.446  10.233   8.662
24055SOL    HW273999  10.487  10.378   8.646
24056SOL     OW74000   1.589   8.198  10.677
24056SOL    HW174001   1.537   8.141  10.733
24056SOL    HW274002   1.550   8.189  10.590
24057SOL     OW74003  10.182   9.630  13.703
24057SOL    HW174004  10.097   9.659  13.670
24057SOL    HW274005  10.216   9.572  13.636
24058SOL     OW74006   0.146   4.783   8.343
24058SOL    HW174007   0.231   4.809   8.378
24058SOL    HW274008   0.165   4.740   8.260
24059SOL     OW74009  13.345  11.345   5.042
24059SOL    HW174010  13.429  11.378   5.011
24059SOL    HW274011  13.281  11.406   5.007
24060SOL     OW74012  10.273   9.962   0.424
24060SOL    HW174013  10.349  10.002   0.383
24060SOL    HW274014  10.309   9.890   0.475
24061SOL     OW74015  13.705  12.471   1.247
24061SOL    HW174016  13.667  12.406   1.188
24061SOL    HW274017  13.654  12.463   1.328
24062SOL     OW74018   1.863   8.520  14.401
24062SOL    HW174019   1.799   8.449  14.403
24062SOL    HW274020   1.815   8.594  14.364
24063SOL     OW74021  10.932   9.980   9.127
24063SOL    HW174022  10.875  10.005   9.199
24063SOL    HW274023  10.887  10.010   9.048
24064SOL     OW74024   1.721   1.637  10.537
24064SOL    HW174025   1.647   1.578  10.552
24064SOL    HW274026   1.685   1.707  10.483
24065SOL     OW74027  11.658   7.954  10.449
24065SOL    HW174028  11.692   8.036  10.483
24065SOL    HW274029  11.578   7.938  10.499
24066SOL     OW74030   3.041   4.724   8.104
24066SOL    HW174031   3.130   4.688   8.100
24066SOL    HW274032   3.017   4.739   8.013
24067SOL     OW74033   9.513  12.342  13.693
24067SOL    HW174034   9.491  12.251  13.713
24067SOL    HW274035   9.474  12.358  13.607
24068SOL     OW74036   8.795   9.170   5.611
24068SOL    HW174037   8.759   9.153   5.698
24068SOL    HW274038   8.755   9.105   5.555
24069SOL     OW74039  14.235  11.069  12.919
24069SOL    HW174040  14.289  11.138  12.958
24069SOL    HW274041  14.201  11.108  12.838
24070SOL     OW74042   1.128  13.718   7.962
24070SOL    HW174043   1.143  13.803   7.920
24070SOL    HW274044   1.046  13.729   8.010
24071SOL     OW74045  10.311   3.394  10.243
24071SOL    HW174046  10.216   3.382  10.236
24071SOL    HW274047  10.333   3.355  10.328
24072SOL     OW74048   0.286  13.022   5.470
24072SOL    HW174049   0.325  12.944   5.507
24072SOL    HW274050   0.228  12.989   5.401
24073SOL     OW74051   0.745   2.110   3.372
24073SOL    HW174052   0.761   2.099   3.466
24073SOL    HW274053   0.761   2.203   3.356
24074SOL     OW74054   0.301  14.185  14.369
24074SOL    HW174055   0.322  14.096  14.343
24074SOL    HW274056   0.323  14.239  14.293
24075SOL     OW74057   0.389   9.422  10.795
24075SOL    HW174058   0.353   9.353  10.851
24075SOL    HW274059   0.441   9.477  10.854
24076SOL     OW74060   6.869  10.112  14.337
24076SOL    HW174061   6.889  10.055  14.263
24076SOL    HW274062   6.837  10.054  14.405
24077SOL     OW74063   9.175  12.388   6.937
24077SOL    HW174064   9.250  12.437   6.971
24077SOL    HW274065   9.213  12.313   6.891
24078SOL     OW74066  12.071   6.357  11.543
24078SOL    HW174067  12.132   6.288  11.517
24078SOL    HW274068  11.985   6.326  11.514
24079SOL     OW74069  12.369   8.704  11.530
24079SOL    HW174070  12.286   8.661  11.548
24079SOL    HW274071  12.356   8.748  11.446
24080SOL     OW74072  12.006   7.378   9.261
24080SOL    HW174073  12.061   7.322   9.316
24080SOL    HW274074  12.068   7.429   9.210
24081SOL     OW74075   4.816  12.075   2.418
24081SOL    HW174076   4.807  12.101   2.327
24081SOL    HW274077   4.728  12.078   2.454
24082SOL     OW74078  12.976   0.530   8.638
24082SOL    HW174079  12.910   0.526   8.570
24082SOL    HW274080  13.044   0.468   8.610
24083SOL     OW74081  11.923   4.643   0.184
24083SOL    HW174082  11.948   4.554   0.209
24083SOL    HW274083  11.951   4.651   0.093
24084SOL     OW74084  11.800  13.264  11.545
24084SOL    HW174085  11.875  13.292  11.492
24084SOL    HW274086  11.836  13.199  11.605
24085SOL     OW74087   9.486   9.453  14.718
24085SOL    HW174088   9.457   9.366  14.689
24085SOL    HW274089   9.536   9.436  14.798
24086SOL     OW74090   3.033   3.865   8.366
24086SOL    HW174091   3.092   3.859   8.291
24086SOL    HW274092   2.945   3.870   8.328
24087SOL     OW74093  11.195  14.665   7.614
24087SOL    HW174094  11.109  14.631   7.639
24087SOL    HW274095  11.251  14.648   7.690
24088SOL     OW74096   4.177  11.744  12.449
24088SOL    HW174097   4.246  11.702  12.397
24088SOL    HW274098   4.185  11.837  12.429
24089SOL     OW74099  11.982   1.809  10.922
24089SOL    HW174100  11.934   1.788  10.842
24089SOL    HW274101  12.072   1.824  10.893
24090SOL     OW74102   9.657  10.201  10.347
24090SOL    HW174103   9.572  10.164  10.321
24090SOL    HW274104   9.720  10.132  10.328
24091SOL     OW74105   3.859  14.563   8.031
24091SOL    HW174106   3.936  14.544   8.085
24091SOL    HW274107   3.797  14.493   8.053
24092SOL     OW74108   7.736  14.342  14.129
24092SOL    HW174109   7.817  14.389  14.148
24092SOL    HW274110   7.763  14.269  14.073
24093SOL     OW74111   6.775   6.422   2.508
24093SOL    HW174112   6.773   6.432   2.413
24093SOL    HW274113   6.839   6.487   2.538
24094SOL     OW74114   8.196  12.050   3.003
24094SOL    HW174115   8.121  12.066   2.946
24094SOL    HW274116   8.272  12.062   2.946
24095SOL     OW74117  11.474  12.415   6.188
24095SOL    HW174118  11.502  12.459   6.108
24095SOL    HW274119  11.421  12.341   6.158
24096SOL     OW74120   1.374   6.837   8.176
24096SOL    HW174121   1.360   6.918   8.128
24096SOL    HW274122   1.317   6.773   8.134
24097SOL     OW74123  13.705   1.827   5.012
24097SOL    HW174124  13.745   1.743   5.036
24097SOL    HW274125  13.657   1.808   4.931
24098SOL     OW74126  10.980   1.606   0.839
24098SOL    HW174127  10.979   1.589   0.933
24098SOL    HW274128  10.888   1.599   0.813
24099SOL     OW74129   0.666   0.893  12.960
24099SOL    HW174130   0.653   0.800  12.980
24099SOL    HW274131   0.591   0.917  12.906
24100SOL     OW74132  12.866   3.590  13.357
24100SOL    HW174133  12.873   3.539  13.276
24100SOL    HW274134  12.899   3.531  13.425
24101SOL     OW74135   1.766  11.971   4.370
24101SOL    HW174136   1.710  12.049   4.376
24101SOL    HW274137   1.718  11.911   4.313
24102SOL     OW74138   0.860   7.070   1.898
24102SOL    HW174139   0.841   7.060   1.805
24102SOL    HW274140   0.955   7.086   1.901
24103SOL     OW74141   5.654   7.659  14.642
24103SOL    HW174142   5.569   7.633  14.607
24103SOL    HW274143   5.696   7.577  14.668
24104SOL     OW74144   6.440  10.921   6.384
24104SOL    HW174145   6.462  11.002   6.338
24104SOL    HW274146   6.507  10.858   6.356
24105SOL     OW74147   7.183  12.096   9.947
24105SOL    HW174148   7.108  12.128   9.895
24105SOL    HW274149   7.145  12.070  10.030
24106SOL     OW74150  13.527   8.588  10.251
24106SOL    HW174151  13.465   8.520  10.223
24106SOL    HW274152  13.527   8.652  10.180
24107SOL     OW74153   2.927  14.538   8.141
24107SOL    HW174154   2.985  14.606   8.175
24107SOL    HW274155   2.945  14.535   8.047
24108SOL     OW74156  10.916   7.078   4.794
24108SOL    HW174157  10.878   7.090   4.707
24108SOL    HW274158  10.892   7.157   4.842
24109SOL     OW74159  11.526   8.331   5.029
24109SOL    HW174160  11.589   8.285   5.084
24109SOL    HW274161  11.574   8.349   4.948
24110SOL     OW74162  10.713   4.002   7.834
24110SOL    HW174163  10.785   4.022   7.894
24110SOL    HW274164  10.653   4.076   7.844
24111SOL     OW74165   7.712   0.377   7.718
24111SOL    HW174166   7.794   0.363   7.766
24111SOL    HW274167   7.738   0.377   7.626
24112SOL     OW74168   6.478  13.415   3.287
24112SOL    HW174169   6.561  13.457   3.268
24112SOL    HW274170   6.437  13.472   3.354
24113SOL     OW74171   0.842   9.477   3.838
24113SOL    HW174172   0.935   9.462   3.825
24113SOL    HW274173   0.815   9.527   3.761
24114SOL     OW74174  11.227   9.295   9.126
24114SOL    HW174175  11.216   9.388   9.108
24114SOL    HW274176  11.159   9.275   9.190
24115SOL     OW74177   1.526   0.096  14.646
24115SOL    HW174178   1.475   0.100  14.565
24115SOL    HW274179   1.564   0.008  14.646
24116SOL     OW74180  14.218   9.424   1.699
24116SOL    HW174181  14.273   9.497   1.672
24116SOL    HW274182  14.264   9.346   1.666
24117SOL     OW74183   8.413   5.034   8.779
24117SOL    HW174184   8.471   5.096   8.824
24117SOL    HW274185   8.398   4.965   8.843
24118SOL     OW74186   2.407   5.699  12.853
24118SOL    HW174187   2.402   5.619  12.800
24118SOL    HW274188   2.447   5.764  12.795
24119SOL     OW74189   5.551  11.205  14.286
24119SOL    HW174190   5.472  11.176  14.239
24119SOL    HW274191   5.586  11.275  14.232
24120SOL     OW74192  14.271   7.852  13.363
24120SOL    HW174193  14.242   7.762  13.350
24120SOL    HW274194  14.317   7.874  13.282
24121SOL     OW74195   3.280   3.662   5.749
24121SOL    HW174196   3.247   3.682   5.837
24121SOL    HW274197   3.219   3.706   5.690
24122SOL     OW74198   7.166   4.805  12.852
24122SOL    HW174199   7.152   4.721  12.896
24122SOL    HW274200   7.261   4.816  12.853
24123SOL     OW74201   4.706  13.767  12.989
24123SOL    HW174202   4.697  13.778  12.894
24123SOL    HW274203   4.792  13.804  13.009
24124SOL     OW74204   3.119  12.796   7.220
24124SOL    HW174205   3.134  12.719   7.275
24124SOL    HW274206   3.207  12.832   7.204
24125SOL     OW74207   5.101  10.872  11.334
24125SOL    HW174208   5.052  10.955  11.341
24125SOL    HW274209   5.190  10.899  11.313
24126SOL     OW74210   1.419  13.005   1.585
24126SOL    HW174211   1.472  12.927   1.571
24126SOL    HW274212   1.482  13.077   1.583
24127SOL     OW74213  14.380  12.738   5.040
24127SOL    HW174214  14.361  12.673   5.108
24127SOL    HW274215  14.459  12.705   4.997
24128SOL     OW74216   8.556  13.302   1.517
24128SOL    HW174217   8.542  13.222   1.568
24128SOL    HW274218   8.650  13.316   1.518
24129SOL     OW74219  14.516   2.418  14.371
24129SOL    HW174220  14.428   2.407  14.334
24129SOL    HW274221  14.525   2.343  14.431
24130SOL     OW74222   2.146  12.539   9.931
24130SOL    HW174223   2.081  12.567   9.866
24130SOL    HW274224   2.169  12.620   9.978
24131SOL     OW74225   9.255   8.197   5.547
24131SOL    HW174226   9.264   8.130   5.479
24131SOL    HW274227   9.173   8.175   5.592
24132SOL     OW74228  10.365   7.706  12.799
24132SOL    HW174229  10.373   7.612  12.818
24132SOL    HW274230  10.456   7.737  12.798
24133SOL     OW74231  11.170   3.954   5.480
24133SOL    HW174232  11.183   3.859   5.483
24133SOL    HW274233  11.205   3.980   5.394
24134SOL     OW74234   2.123   8.590  12.341
24134SOL    HW174235   2.037   8.609  12.304
24134SOL    HW274236   2.157   8.518  12.288
24135SOL     OW74237   4.954  14.115   1.173
24135SOL    HW174238   4.883  14.149   1.120
24135SOL    HW274239   5.017  14.081   1.110
24136SOL     OW74240   7.047   1.732   9.737
24136SOL    HW174241   7.099   1.695   9.809
24136SOL    HW274242   7.035   1.824   9.761
24137SOL     OW74243   1.605  14.836   7.567
24137SOL    HW174244   1.616   0.030   7.505
24137SOL    HW274245   1.574  14.878   7.647
24138SOL     OW74246   9.328  13.944  10.564
24138SOL    HW174247   9.281  13.930  10.646
24138SOL    HW274248   9.335  14.039  10.556
24139SOL     OW74249  11.944  13.229   8.644
24139SOL    HW174250  11.987  13.266   8.721
24139SOL    HW274251  12.007  13.167   8.608
24140SOL     OW74252   2.707   7.806   7.028
24140SOL    HW174253   2.764   7.877   6.998
24140SOL    HW274254   2.647   7.791   6.955
24141SOL     OW74255   4.322  11.506   1.139
24141SOL    HW174256   4.401  11.453   1.140
24141SOL    HW274257   4.296  11.513   1.231
24142SOL     OW74258  14.501  14.262  11.729
24142SOL    HW174259  14.521  14.207  11.805
24142SOL    HW274260  14.470  14.344  11.767
24143SOL     OW74261   5.987  12.757   3.551
24143SOL    HW174262   5.980  12.756   3.455
24143SOL    HW274263   5.908  12.801   3.580
24144SOL     OW74264  12.206  10.801   9.168
24144SOL    HW174265  12.236  10.711   9.160
24144SOL    HW274266  12.279  10.854   9.136
24145SOL     OW74267  10.714   7.165  11.161
24145SOL    HW174268  10.725   7.119  11.078
24145SOL    HW274269  10.718   7.258  11.138
24146SOL     OW74270   5.473   1.857   1.492
24146SOL    HW174271   5.409   1.902   1.548
24146SOL    HW274272   5.426   1.781   1.458
24147SOL     OW74273   2.838   0.406   6.974
24147SOL    HW174274   2.748   0.400   7.005
24147SOL    HW274275   2.850   0.499   6.954
24148SOL     OW74276  12.429   2.136   6.546
24148SOL    HW174277  12.382   2.213   6.515
24148SOL    HW274278  12.360   2.074   6.571
24149SOL     OW74279  14.033  10.784   7.723
24149SOL    HW174280  14.022  10.756   7.633
24149SOL    HW274281  13.951  10.830   7.744
24150SOL     OW74282  13.609   6.275   6.237
24150SOL    HW174283  13.700   6.298   6.254
24150SOL    HW274284  13.586   6.212   6.305
24151SOL     OW74285  12.532  10.556   0.588
24151SOL    HW174286  12.463  10.491   0.576
24151SOL    HW274287  12.520  10.617   0.515
24152SOL     OW74288  11.014  13.732   9.570
24152SOL    HW174289  11.007  13.643   9.537
24152SOL    HW274290  11.108  13.748   9.580
24153SOL     OW74291   5.195  11.438   2.355
24153SOL    HW174292   5.283  11.429   2.393
24153SOL    HW274293   5.169  11.528   2.377
24154SOL     OW74294  13.666  13.085   9.099
24154SOL    HW174295  13.756  13.070   9.129
24154SOL    HW274296  13.619  13.114   9.177
24155SOL     OW74297   8.565   8.898   8.599
24155SOL    HW174298   8.601   8.915   8.512
24155SOL    HW274299   8.488   8.843   8.584
24156SOL     OW74300   2.699  14.254  12.936
24156SOL    HW174301   2.655  14.338  12.919
24156SOL    HW274302   2.788  14.279  12.963
24157SOL     OW74303   6.062   6.615  13.036
24157SOL    HW174304   6.090   6.538  13.085
24157SOL    HW274305   6.129   6.680  13.053
24158SOL     OW74306   2.044   4.825   9.172
24158SOL    HW174307   2.067   4.763   9.102
24158SOL    HW274308   2.045   4.772   9.252
24159SOL     OW74309  12.429   6.923   0.500
24159SOL    HW174310  12.351   6.919   0.445
24159SOL    HW274311  12.400   6.897   0.587
24160SOL     OW74312   5.041  11.796   8.369
24160SOL    HW174313   4.989  11.722   8.399
24160SOL    HW274314   5.126  11.785   8.412
24161SOL     OW74315   8.227   1.047  13.991
24161SOL    HW174316   8.227   0.951  13.987
24161SOL    HW274317   8.145   1.072  13.947
24162SOL     OW74318   3.566   5.434   1.292
24162SOL    HW174319   3.496   5.453   1.229
24162SOL    HW274320   3.598   5.521   1.318
24163SOL     OW74321   6.005  10.979   4.251
24163SOL    HW174322   6.057  11.028   4.315
24163SOL    HW274323   5.952  10.920   4.304
24164SOL     OW74324   0.735   6.711   6.559
24164SOL    HW174325   0.656   6.703   6.504
24164SOL    HW274326   0.786   6.781   6.517
24165SOL     OW74327  10.607   4.774   1.912
24165SOL    HW174328  10.627   4.866   1.928
24165SOL    HW274329  10.686   4.739   1.872
24166SOL     OW74330   0.160   7.436   9.340
24166SOL    HW174331   0.080   7.385   9.325
24166SOL    HW274332   0.187   7.412   9.429
24167SOL     OW74333   7.347   6.472   9.163
24167SOL    HW174334   7.402   6.550   9.154
24167SOL    HW274335   7.397   6.414   9.221
24168SOL     OW74336  12.332   0.509   7.377
24168SOL    HW174337  12.388   0.515   7.454
24168SOL    HW274338  12.245   0.492   7.412
24169SOL     OW74339  14.872  14.095   2.761
24169SOL    HW174340  14.844  14.159   2.827
24169SOL    HW274341  14.839  14.011   2.794
24170SOL     OW74342   7.954  13.670   4.236
24170SOL    HW174343   7.918  13.738   4.293
24170SOL    HW274344   8.049  13.684   4.239
24171SOL     OW74345   7.684  11.362   6.598
24171SOL    HW174346   7.609  11.304   6.609
24171SOL    HW274347   7.684  11.385   6.505
24172SOL     OW74348  13.518   1.446   8.261
24172SOL    HW174349  13.538   1.377   8.324
24172SOL    HW274350  13.540   1.527   8.307
24173SOL     OW74351   5.352  11.802   3.846
24173SOL    HW174352   5.399  11.884   3.860
24173SOL    HW274353   5.365  11.753   3.927
24174SOL     OW74354   5.699   3.850   8.413
24174SOL    HW174355   5.723   3.836   8.505
24174SOL    HW274356   5.775   3.893   8.374
24175SOL     OW74357  12.801   2.874   7.926
24175SOL    HW174358  12.802   2.898   8.019
24175SOL    HW274359  12.752   2.792   7.923
24176SOL     OW74360   6.179   0.381   1.572
24176SOL    HW174361   6.219   0.295   1.561
24176SOL    HW274362   6.241   0.442   1.534
24177SOL     OW74363  11.901  10.409   8.110
24177SOL    HW174364  11.992  10.380   8.108
24177SOL    HW274365  11.893  10.460   8.190
24178SOL     OW74366   2.095   1.652   2.127
24178SOL    HW174367   2.097   1.695   2.042
24178SOL    HW274368   2.077   1.560   2.107
24179SOL     OW74369   7.852   9.317  11.032
24179SOL    HW174370   7.798   9.353  11.103
24179SOL    HW274371   7.921   9.268  11.077
24180SOL     OW74372   9.897   4.704   6.314
24180SOL    HW174373   9.971   4.687   6.372
24180SOL    HW274374   9.929   4.679   6.227
24181SOL     OW74375   1.002  10.945  11.373
24181SOL    HW174376   1.069  10.974  11.435
24181SOL    HW274377   1.028  10.856  11.349
24182SOL     OW74378   4.277   1.080   0.959
24182SOL    HW174379   4.328   1.003   0.935
24182SOL    HW274380   4.293   1.143   0.889
24183SOL     OW74381   8.926   3.680   0.391
24183SOL    HW174382   8.913   3.592   0.354
24183SOL    HW274383   8.924   3.738   0.316
24184SOL     OW74384  13.275   9.717  10.306
24184SOL    HW174385  13.263   9.791  10.245
24184SOL    HW274386  13.189   9.675  10.310
24185SOL     OW74387   2.456   0.139  14.664
24185SOL    HW174388   2.462   0.215  14.722
24185SOL    HW274389   2.502   0.166  14.584
24186SOL     OW74390   3.712   5.771   8.044
24186SOL    HW174391   3.801   5.749   8.071
24186SOL    HW274392   3.658   5.700   8.077
24187SOL     OW74393   3.982  10.558   6.061
24187SOL    HW174394   4.017  10.604   5.985
24187SOL    HW274395   3.968  10.468   6.030
24188SOL     OW74396   3.357   3.735   6.544
24188SOL    HW174397   3.437   3.707   6.501
24188SOL    HW274398   3.324   3.657   6.588
24189SOL     OW74399  11.223  13.743   5.617
24189SOL    HW174400  11.186  13.828   5.596
24189SOL    HW274401  11.281  13.760   5.692
24190SOL     OW74402  14.119   8.978   6.524
24190SOL    HW174403  14.208   8.987   6.557
24190SOL    HW274404  14.098   9.065   6.488
24191SOL     OW74405   9.338   6.676   2.154
24191SOL    HW174406   9.251   6.690   2.191
24191SOL    HW274407   9.382   6.760   2.163
24192SOL     OW74408   5.794   8.260  11.337
24192SOL    HW174409   5.764   8.310  11.413
24192SOL    HW274410   5.728   8.276  11.270
24193SOL     OW74411   2.582  12.089   4.685
24193SOL    HW174412   2.498  12.087   4.638
24193SOL    HW274413   2.644  12.047   4.625
24194SOL     OW74414   6.556  11.737   8.777
24194SOL    HW174415   6.569  11.813   8.833
24194SOL    HW274416   6.463  11.739   8.755
24195SOL     OW74417   9.425   5.376   3.759
24195SOL    HW174418   9.416   5.291   3.716
24195SOL    HW274419   9.422   5.357   3.852
24196SOL     OW74420   9.227   9.565   8.874
24196SOL    HW174421   9.188   9.640   8.918
24196SOL    HW274422   9.153   9.511   8.848
24197SOL     OW74423  13.177   9.978   3.168
24197SOL    HW174424  13.216  10.064   3.151
24197SOL    HW274425  13.122   9.991   3.245
24198SOL     OW74426  11.135   7.987   6.062
24198SOL    HW174427  11.183   7.976   6.144
24198SOL    HW274428  11.150   7.906   6.014
24199SOL     OW74429  14.025   8.032  10.842
24199SOL    HW174430  13.936   8.038  10.877
24199SOL    HW274431  14.029   8.100  10.775
24200SOL     OW74432   9.338   8.367   3.047
24200SOL    HW174433   9.245   8.348   3.059
24200SOL    HW274434   9.349   8.457   3.076
24201SOL     OW74435  13.464   9.506  11.293
24201SOL    HW174436  13.514   9.444  11.239
24201SOL    HW274437  13.447   9.458  11.374
24202SOL     OW74438  10.481  14.797   8.298
24202SOL    HW174439  10.451  14.863   8.360
24202SOL    HW274440  10.512  14.846   8.222
24203SOL     OW74441   8.899  10.304   7.916
24203SOL    HW174442   8.979  10.354   7.898
24203SOL    HW274443   8.830  10.351   7.870
24204SOL     OW74444  13.984   7.915   0.555
24204SOL    HW174445  13.890   7.932   0.554
24204SOL    HW274446  14.005   7.893   0.464
24205SOL     OW74447   3.973   2.124  11.385
24205SOL    HW174448   4.063   2.152  11.401
24205SOL    HW274449   3.978   2.029  11.378
24206SOL     OW74450   5.242   2.885   3.500
24206SOL    HW174451   5.276   2.914   3.415
24206SOL    HW274452   5.149   2.868   3.484
24207SOL     OW74453   4.921  12.512   7.586
24207SOL    HW174454   4.890  12.435   7.538
24207SOL    HW274455   4.971  12.562   7.522
24208SOL     OW74456   1.138   8.537   3.692
24208SOL    HW174457   1.204   8.469   3.711
24208SOL    HW274458   1.136   8.542   3.597
24209SOL     OW74459  14.192   0.667   9.114
24209SOL    HW174460  14.111   0.683   9.065
24209SOL    HW274461  14.187   0.728   9.188
24210SOL     OW74462   3.410   7.743  14.800
24210SOL    HW174463   3.378   7.771  14.715
24210SOL    HW274464   3.463   7.665  14.781
24211SOL     OW74465  14.382   1.905   6.367
24211SOL    HW174466  14.400   1.967   6.438
24211SOL    HW274467  14.315   1.949   6.314
24212SOL     OW74468   6.139   4.396   1.634
24212SOL    HW174469   6.107   4.486   1.622
24212SOL    HW274470   6.114   4.373   1.724
24213SOL     OW74471   4.580  13.125  13.271
24213SOL    HW174472   4.552  13.056  13.212
24213SOL    HW274473   4.615  13.079  13.347
24214SOL     OW74474   7.358  10.562  13.422
24214SOL    HW174475   7.442  10.551  13.465
24214SOL    HW274476   7.379  10.605  13.339
24215SOL     OW74477   5.822   1.863   5.240
24215SOL    HW174478   5.787   1.864   5.329
24215SOL    HW274479   5.774   1.931   5.194
24216SOL     OW74480   6.670  13.306  13.300
24216SOL    HW174481   6.719  13.224  13.300
24216SOL    HW274482   6.638  13.315  13.389
24217SOL     OW74483   3.369   4.191  12.398
24217SOL    HW174484   3.423   4.117  12.426
24217SOL    HW274485   3.289   4.183  12.450
24218SOL     OW74486   5.604   4.650   3.397
24218SOL    HW174487   5.681   4.621   3.347
24218SOL    HW274488   5.533   4.595   3.365
24219SOL     OW74489   0.134  11.186   8.699
24219SOL    HW174490   0.202  11.235   8.652
24219SOL    HW274491   0.176  11.104   8.723
24220SOL     OW74492   4.076   2.770  14.518
24220SOL    HW174493   4.143   2.820  14.471
24220SOL    HW274494   4.072   2.687  14.472
24221SOL     OW74495  13.578   1.610   0.672
24221SOL    HW174496  13.630   1.530   0.660
24221SOL    HW274497  13.550   1.633   0.584
24222SOL     OW74498   8.802  14.745   8.680
24222SOL    HW174499   8.767  14.747   8.769
24222SOL    HW274500   8.779  14.658   8.647
24223SOL     OW74501  13.087   3.952   0.622
24223SOL    HW174502  13.147   3.881   0.645
24223SOL    HW274503  13.131   3.998   0.551
24224SOL     OW74504  12.317   9.033   6.995
24224SOL    HW174505  12.259   8.958   7.003
24224SOL    HW274506  12.280   9.098   7.055
24225SOL     OW74507  12.042  14.084   8.222
24225SOL    HW174508  12.121  14.063   8.171
24225SOL    HW274509  12.068  14.068   8.313
24226SOL     OW74510   3.669   9.644   5.942
24226SOL    HW174511   3.618   9.619   6.019
24226SOL    HW274512   3.607   9.637   5.869
24227SOL     OW74513   9.162  12.922  10.804
24227SOL    HW174514   9.106  12.971  10.864
24227SOL    HW274515   9.136  12.950  10.717
24228SOL     OW74516   6.291   3.876  11.856
24228SOL    HW174517   6.276   3.785  11.830
24228SOL    HW274518   6.209   3.921  11.834
24229SOL     OW74519   7.175   2.859   2.830
24229SOL    HW174520   7.254   2.819   2.793
24229SOL    HW274521   7.132   2.900   2.755
24230SOL     OW74522   4.812  10.408   6.008
24230SOL    HW174523   4.905  10.386   6.019
24230SOL    HW274524   4.802  10.421   5.914
24231SOL     OW74525  14.070  13.605   8.196
24231SOL    HW174526  14.104  13.524   8.234
24231SOL    HW274527  14.114  13.674   8.245
24232SOL     OW74528   8.266  14.604   1.069
24232SOL    HW174529   8.314  14.656   1.133
24232SOL    HW274530   8.259  14.661   0.993
24233SOL     OW74531   1.151   8.319  12.706
24233SOL    HW174532   1.135   8.246  12.646
24233SOL    HW274533   1.176   8.391  12.648
24234SOL     OW74534  11.786  11.612   5.307
24234SOL    HW174535  11.720  11.546   5.325
24234SOL    HW274536  11.822  11.587   5.221
24235SOL     OW74537   8.017   9.203  14.117
24235SOL    HW174538   7.990   9.288  14.151
24235SOL    HW274539   7.983   9.200  14.028
24236SOL     OW74540   3.048   7.465  13.259
24236SOL    HW174541   3.082   7.548  13.225
24236SOL    HW274542   3.083   7.460  13.348
24237SOL     OW74543   5.740  11.909   5.498
24237SOL    HW174544   5.668  11.934   5.439
24237SOL    HW274545   5.727  11.815   5.513
24238SOL     OW74546   2.219  13.025   8.948
24238SOL    HW174547   2.257  12.952   8.997
24238SOL    HW274548   2.124  13.013   8.956
24239SOL     OW74549   4.212   3.950   3.189
24239SOL    HW174550   4.261   3.998   3.122
24239SOL    HW274551   4.134   4.003   3.205
24240SOL     OW74552  12.278   6.924   0.232
24240SOL    HW174553  12.265   6.876   0.150
24240SOL    HW274554  12.221   7.000   0.225
24241SOL     OW74555   8.876  10.654   1.906
24241SOL    HW174556   8.933  10.699   1.844
24241SOL    HW274557   8.820  10.722   1.941
24242SOL     OW74558  13.304   1.828  11.589
24242SOL    HW174559  13.336   1.906  11.635
24242SOL    HW274560  13.256   1.779  11.656
24243SOL     OW74561   0.391   0.886   4.536
24243SOL    HW174562   0.343   0.956   4.582
24243SOL    HW274563   0.416   0.825   4.605
24244SOL     OW74564  14.612   2.443  12.127
24244SOL    HW174565  14.697   2.458  12.084
24244SOL    HW274566  14.634   2.411  12.214
24245SOL     OW74567   7.206   3.673  12.373
24245SOL    HW174568   7.264   3.618  12.425
24245SOL    HW274569   7.264   3.717  12.311
24246SOL     OW74570   8.859   6.889  13.297
24246SOL    HW174571   8.861   6.960  13.361
24246SOL    HW274572   8.838   6.811  13.350
24247SOL     OW74573  13.254   5.301   0.422
24247SOL    HW174574  13.180   5.248   0.392
24247SOL    HW274575  13.331   5.245   0.408
24248SOL     OW74576   7.687   4.308  10.059
24248SOL    HW174577   7.704   4.379   9.998
24248SOL    HW274578   7.635   4.245  10.009
24249SOL     OW74579   5.484  11.553   2.124
24249SOL    HW174580   5.522  11.605   2.053
24249SOL    HW274581   5.471  11.616   2.195
24250SOL     OW74582   4.989   6.189   6.313
24250SOL    HW174583   4.992   6.282   6.337
24250SOL    HW274584   5.079   6.168   6.289
24251SOL     OW74585   9.652   7.879   2.701
24251SOL    HW174586   9.622   7.814   2.765
24251SOL    HW274587   9.571   7.918   2.667
24252SOL     OW74588   8.464   0.654   5.516
24252SOL    HW174589   8.406   0.670   5.590
24252SOL    HW274590   8.427   0.706   5.445
24253SOL     OW74591   6.306   1.635  10.761
24253SOL    HW174592   6.401   1.644  10.766
24253SOL    HW274593   6.276   1.652  10.850
24254SOL     OW74594   2.350   1.475   2.388
24254SOL    HW174595   2.360   1.446   2.297
24254SOL    HW274596   2.429   1.444   2.432
24255SOL     OW74597   2.982   2.022   5.340
24255SOL    HW174598   2.913   2.069   5.294
24255SOL    HW274599   2.999   1.946   5.285
24256SOL     OW74600   4.620   4.331   0.695
24256SOL    HW174601   4.547   4.391   0.709
24256SOL    HW274602   4.584   4.244   0.710
24257SOL     OW74603   4.508   3.890  12.886
24257SOL    HW174604   4.507   3.797  12.863
24257SOL    HW274605   4.428   3.926  12.849
24258SOL     OW74606  11.803   3.968  12.332
24258SOL    HW174607  11.795   3.980  12.238
24258SOL    HW274608  11.733   3.907  12.355
24259SOL     OW74609   3.294   9.606   0.140
24259SOL    HW174610   3.271   9.522   0.100
24259SOL    HW274611   3.377   9.630   0.100
24260SOL     OW74612   5.077   9.477   5.781
24260SOL    HW174613   5.131   9.398   5.774
24260SOL    HW274614   4.997   9.456   5.734
24261SOL     OW74615   3.505  11.414   9.826
24261SOL    HW174616   3.525  11.398   9.733
24261SOL    HW274617   3.431  11.474   9.824
24262SOL     OW74618  11.483   0.743  10.569
24262SOL    HW174619  11.521   0.780  10.489
24262SOL    HW274620  11.541   0.671  10.593
24263SOL     OW74621   9.993   5.916   4.769
24263SOL    HW174622   9.903   5.908   4.737
24263SOL    HW274623  10.038   5.840   4.733
24264SOL     OW74624  11.664   7.578   8.293
24264SOL    HW174625  11.584   7.624   8.318
24264SOL    HW274626  11.717   7.578   8.373
24265SOL     OW74627   5.013  13.716   4.160
24265SOL    HW174628   4.934  13.692   4.207
24265SOL    HW274629   4.988  13.791   4.106
24266SOL     OW74630   6.468   9.845   5.146
24266SOL    HW174631   6.445   9.753   5.160
24266SOL    HW274632   6.496   9.876   5.231
24267SOL     OW74633   9.516  10.249  11.021
24267SOL    HW174634   9.462  10.172  11.038
24267SOL    HW274635   9.606  10.217  11.029
24268SOL     OW74636   6.529   2.222   6.468
24268SOL    HW174637   6.562   2.208   6.557
24268SOL    HW274638   6.511   2.134   6.436
24269SOL     OW74639   1.529   1.055  13.864
24269SOL    HW174640   1.474   1.076  13.788
24269SOL    HW274641   1.523   1.133  13.920
24270SOL     OW74642   1.328  10.448   4.290
24270SOL    HW174643   1.367  10.445   4.377
24270SOL    HW274644   1.401  10.435   4.230
24271SOL     OW74645   7.566   2.719  10.268
24271SOL    HW174646   7.627   2.688  10.201
24271SOL    HW274647   7.483   2.729  10.221
24272SOL     OW74648   0.407   0.122  11.010
24272SOL    HW174649   0.408   0.107  11.104
24272SOL    HW274650   0.492   0.164  10.992
24273SOL     OW74651   8.583  12.445   8.628
24273SOL    HW174652   8.614  12.523   8.583
24273SOL    HW274653   8.488  12.456   8.632
24274SOL     OW74654  11.822   4.529   9.183
24274SOL    HW174655  11.853   4.531   9.092
24274SOL    HW274656  11.797   4.620   9.202
24275SOL     OW74657  10.341   5.307   9.662
24275SOL    HW174658  10.316   5.215   9.664
24275SOL    HW274659  10.264   5.354   9.695
24276SOL     OW74660   2.977   6.546   9.197
24276SOL    HW174661   3.030   6.625   9.185
24276SOL    HW274662   3.041   6.476   9.205
24277SOL     OW74663   2.570   8.057  12.457
24277SOL    HW174664   2.589   8.134  12.402
24277SOL    HW274665   2.641   7.996  12.439
24278SOL     OW74666   8.042   2.245   0.042
24278SOL    HW174667   8.091   2.187   0.100
24278SOL    HW274668   8.003   2.187  14.856
24279SOL     OW74669   3.936   9.951   6.058
24279SOL    HW174670   3.876   9.892   6.104
24279SOL    HW274671   3.881  10.025   6.033
24280SOL     OW74672   2.943  14.432  12.963
24280SOL    HW174673   2.994  14.351  12.964
24280SOL    HW274674   2.966  14.473  12.879
24281SOL     OW74675   3.564   1.821  12.004
24281SOL    HW174676   3.473   1.807  12.030
24281SOL    HW274677   3.577   1.915  12.014
24282SOL     OW74678  11.651   2.332  11.238
24282SOL    HW174679  11.566   2.326  11.193
24282SOL    HW274680  11.667   2.244  11.272
24283SOL     OW74681   9.527  10.719   3.760
24283SOL    HW174682   9.593  10.775   3.720
24283SOL    HW274683   9.511  10.651   3.694
24284SOL     OW74684   6.276  11.680  10.585
24284SOL    HW174685   6.248  11.772  10.581
24284SOL    HW274686   6.194  11.631  10.579
24285SOL     OW74687   9.030   7.096  13.735
24285SOL    HW174688   9.058   7.013  13.772
24285SOL    HW274689   9.062   7.094  13.645
24286SOL     OW74690  13.866   1.260   3.671
24286SOL    HW174691  13.907   1.294   3.750
24286SOL    HW274692  13.772   1.274   3.685
24287SOL     OW74693  13.316   5.041  10.588
24287SOL    HW174694  13.355   5.074  10.507
24287SOL    HW274695  13.384   5.052  10.654
24288SOL     OW74696  11.536   8.899  10.190
24288SOL    HW174697  11.497   8.984  10.209
24288SOL    HW274698  11.555   8.862  10.275
24289SOL     OW74699  11.199   8.800  11.157
24289SOL    HW174700  11.255   8.768  11.228
24289SOL    HW274701  11.145   8.725  11.133
24290SOL     OW74702   8.036  14.171   4.222
24290SOL    HW174703   7.976  14.173   4.147
24290SOL    HW274704   7.997  14.231   4.286
24291SOL     OW74705  12.902   1.685   4.099
24291SOL    HW174706  12.960   1.629   4.151
24291SOL    HW274707  12.953   1.706   4.021
24292SOL     OW74708  14.457   9.107   9.585
24292SOL    HW174709  14.424   9.162   9.514
24292SOL    HW274710  14.552   9.125   9.586
24293SOL     OW74711   7.892   7.205  12.373
24293SOL    HW174712   7.932   7.178  12.455
24293SOL    HW274713   7.966   7.225  12.315
24294SOL     OW74714   1.847   2.160   1.212
24294SOL    HW174715   1.915   2.154   1.144
24294SOL    HW274716   1.800   2.241   1.193
24295SOL     OW74717   9.490  12.322   4.962
24295SOL    HW174718   9.457  12.233   4.975
24295SOL    HW274719   9.523  12.348   5.048
24296SOL     OW74720   7.353  11.144  10.711
24296SOL    HW174721   7.268  11.179  10.684
24296SOL    HW274722   7.391  11.214  10.765
24297SOL     OW74723   2.476   8.677  10.348
24297SOL    HW174724   2.476   8.699  10.254
24297SOL    HW274725   2.477   8.582  10.350
24298SOL     OW74726  14.742  13.977   2.089
24298SOL    HW174727  14.721  14.059   2.133
24298SOL    HW274728  14.678  13.971   2.018
24299SOL     OW74729   6.779   5.633   4.866
24299SOL    HW174730   6.833   5.712   4.863
24299SOL    HW274731   6.745   5.632   4.956
24300SOL     OW74732  11.992  13.074   0.098
24300SOL    HW174733  11.980  13.056   0.004
24300SOL    HW274734  11.995  12.988   0.139
24301SOL     OW74735  14.436   8.351   2.560
24301SOL    HW174736  14.496   8.420   2.590
24301SOL    HW274737  14.355   8.368   2.607
24302SOL     OW74738  10.980  13.135  10.536
24302SOL    HW174739  10.941  13.060  10.580
24302SOL    HW274740  10.914  13.163  10.472
24303SOL     OW74741   0.634  11.663   9.509
24303SOL    HW174742   0.544  11.689   9.490
24303SOL    HW274743   0.677  11.661   9.424
24304SOL     OW74744   5.358   5.927   5.152
24304SOL    HW174745   5.335   5.998   5.213
24304SOL    HW274746   5.294   5.858   5.171
24305SOL     OW74747  14.405   6.249   0.783
24305SOL    HW174748  14.432   6.164   0.749
24305SOL    HW274749  14.391   6.302   0.704
24306SOL     OW74750   4.183   4.934  11.874
24306SOL    HW174751   4.127   4.865  11.909
24306SOL    HW274752   4.195   4.995  11.947
24307SOL     OW74753   8.855   0.140   7.006
24307SOL    HW174754   8.899   0.220   6.979
24307SOL    HW274755   8.796   0.168   7.076
24308SOL     OW74756  12.161   8.670   1.220
24308SOL    HW174757  12.111   8.648   1.141
24308SOL    HW274758  12.095   8.706   1.280
24309SOL     OW74759   2.142   6.884   0.704
24309SOL    HW174760   2.217   6.827   0.717
24309SOL    HW274761   2.114   6.908   0.792
24310SOL     OW74762  11.089   3.583   6.621
24310SOL    HW174763  11.030   3.551   6.553
24310SOL    HW274764  11.042   3.657   6.660
24311SOL     OW74765   3.085  12.681   3.038
24311SOL    HW174766   3.139  12.676   3.116
24311SOL    HW274767   3.043  12.768   3.043
24312SOL     OW74768  13.294   7.426   6.377
24312SOL    HW174769  13.255   7.514   6.385
24312SOL    HW274770  13.226   7.374   6.334
24313SOL     OW74771   0.953  13.863  10.596
24313SOL    HW174772   1.030  13.873  10.539
24313SOL    HW274773   0.979  13.795  10.659
24314SOL     OW74774   1.074   2.803  14.829
24314SOL    HW174775   1.043   2.735  14.768
24314SOL    HW274776   1.106   2.873  14.773
24315SOL     OW74777   6.919   1.223  11.987
24315SOL    HW174778   6.931   1.279  11.910
24315SOL    HW274779   6.999   1.237  12.038
24316SOL     OW74780  12.418   3.470   8.352
24316SOL    HW174781  12.422   3.374   8.347
24316SOL    HW274782  12.483   3.493   8.419
24317SOL     OW74783  12.870  14.045  11.785
24317SOL    HW174784  12.916  14.127  11.801
24317SOL    HW274785  12.833  14.021  11.871
24318SOL     OW74786   9.615   3.701  12.724
24318SOL    HW174787   9.643   3.625  12.774
24318SOL    HW274788   9.676   3.704  12.650
24319SOL     OW74789   8.281   3.981   2.664
24319SOL    HW174790   8.307   4.046   2.598
24319SOL    HW274791   8.190   4.003   2.684
24320SOL     OW74792  13.432   1.051   4.786
24320SOL    HW174793  13.452   0.970   4.739
24320SOL    HW274794  13.516   1.082   4.818
24321SOL     OW74795   7.256  10.749   7.007
24321SOL    HW174796   7.231  10.658   6.991
24321SOL    HW274797   7.226  10.767   7.096
24322SOL     OW74798   0.955   9.652  13.580
24322SOL    HW174799   0.910   9.731  13.609
24322SOL    HW274800   0.935   9.587  13.648
24323SOL     OW74801   3.834  11.572   9.426
24323SOL    HW174802   3.762  11.613   9.378
24323SOL    HW274803   3.905  11.635   9.423
24324SOL     OW74804   3.744   4.329   8.788
24324SOL    HW174805   3.835   4.326   8.761
24324SOL    HW274806   3.695   4.289   8.716
24325SOL     OW74807  12.529  10.965   0.738
24325SOL    HW174808  12.464  10.983   0.806
24325SOL    HW274809  12.480  10.920   0.669
24326SOL     OW74810  13.749   9.309   4.990
24326SOL    HW174811  13.756   9.258   4.909
24326SOL    HW274812  13.828   9.288   5.039
24327SOL     OW74813   7.166  10.844   3.132
24327SOL    HW174814   7.163  10.751   3.154
24327SOL    HW274815   7.094  10.855   3.069
24328SOL     OW74816   1.897  12.622   4.019
24328SOL    HW174817   1.833  12.676   3.972
24328SOL    HW274818   1.937  12.681   4.082
24329SOL     OW74819   8.934   8.138   7.520
24329SOL    HW174820   8.892   8.177   7.597
24329SOL    HW274821   8.924   8.205   7.452
24330SOL     OW74822   6.733  11.733   9.666
24330SOL    HW174823   6.722  11.802   9.601
24330SOL    HW274824   6.827  11.715   9.667
24331SOL     OW74825   9.199   0.489   8.741
24331SOL    HW174826   9.173   0.432   8.813
24331SOL    HW274827   9.224   0.429   8.670
24332SOL     OW74828   5.018   2.191   1.222
24332SOL    HW174829   5.083   2.127   1.194
24332SOL    HW274830   5.063   2.275   1.219
24333SOL     OW74831  14.829  10.893   6.564
24333SOL    HW174832  14.822  10.798   6.554
24333SOL    HW274833   0.032  10.916   6.519
24334SOL     OW74834   1.333  11.780  12.424
24334SOL    HW174835   1.426  11.757  12.421
24334SOL    HW274836   1.307  11.763  12.515
24335SOL     OW74837   2.754   7.292   1.932
24335SOL    HW174838   2.808   7.229   1.979
24335SOL    HW274839   2.816   7.357   1.899
24336SOL     OW74840   7.635   0.531   8.800
24336SOL    HW174841   7.682   0.595   8.747
24336SOL    HW274842   7.700   0.500   8.864
24337SOL     OW74843  13.266  13.691   3.129
24337SOL    HW174844  13.215  13.772   3.121
24337SOL    HW274845  13.296  13.691   3.219
24338SOL     OW74846   6.486  11.306   1.941
24338SOL    HW174847   6.413  11.289   1.881
24338SOL    HW274848   6.530  11.383   1.905
24339SOL     OW74849   3.073   1.786  13.685
24339SOL    HW174850   3.052   1.880  13.685
24339SOL    HW274851   3.000   1.746  13.732
24340SOL     OW74852  10.289  11.418  13.719
24340SOL    HW174853  10.329  11.433  13.804
24340SOL    HW274854  10.219  11.355  13.735
24341SOL     OW74855   8.670  13.381   8.281
24341SOL    HW174856   8.715  13.419   8.356
24341SOL    HW274857   8.577  13.380   8.307
24342SOL     OW74858  14.708   8.632  11.149
24342SOL    HW174859  14.620   8.668  11.144
24342SOL    HW274860  14.702   8.546  11.109
24343SOL     OW74861  14.465   7.421  14.482
24343SOL    HW174862  14.397   7.456  14.424
24343SOL    HW274863  14.541   7.411  14.425
24344SOL     OW74864  12.576   2.664   9.333
24344SOL    HW174865  12.580   2.586   9.278
24344SOL    HW274866  12.652   2.716   9.307
24345SOL     OW74867  14.619  11.339   5.229
24345SOL    HW174868  14.713  11.347   5.217
24345SOL    HW274869  14.609  11.260   5.283
24346SOL     OW74870  12.406   6.162   6.040
24346SOL    HW174871  12.454   6.107   5.978
24346SOL    HW274872  12.474   6.203   6.094
24347SOL     OW74873   4.214  13.936   0.101
24347SOL    HW174874   4.134  13.900   0.138
24347SOL    HW274875   4.243  14.002   0.164
24348SOL     OW74876  12.306  14.634   0.073
24348SOL    HW174877  12.302  14.648   0.168
24348SOL    HW274878  12.394  14.600   0.057
24349SOL     OW74879  12.138  13.191   5.696
24349SOL    HW174880  12.081  13.144   5.756
24349SOL    HW274881  12.222  13.196   5.742
24350SOL     OW74882   0.603  13.544   7.414
24350SOL    HW174883   0.538  13.506   7.354
24350SOL    HW274884   0.602  13.638   7.394
24351SOL     OW74885  10.054   6.613   1.108
24351SOL    HW174886  10.091   6.624   1.196
24351SOL    HW274887  10.002   6.533   1.113
24352SOL     OW74888  12.768   3.724   0.489
24352SOL    HW174889  12.842   3.782   0.475
24352SOL    HW274890  12.726   3.757   0.569
24353SOL     OW74891   2.620   4.432   1.472
24353SOL    HW174892   2.664   4.372   1.411
24353SOL    HW274893   2.610   4.381   1.553
24354SOL     OW74894   5.485   4.697   8.624
24354SOL    HW174895   5.420   4.627   8.625
24354SOL    HW274896   5.494   4.723   8.716
24355SOL     OW74897   9.774   2.288   2.136
24355SOL    HW174898   9.690   2.320   2.101
24355SOL    HW274899   9.749   2.220   2.198
24356SOL     OW74900  11.372   2.370   0.164
24356SOL    HW174901  11.381   2.357   0.070
24356SOL    HW274902  11.332   2.457   0.173
24357SOL     OW74903  11.873   3.263   8.604
24357SOL    HW174904  11.828   3.236   8.684
24357SOL    HW274905  11.803   3.277   8.540
24358SOL     OW74906   2.192   8.910  11.410
24358SOL    HW174907   2.222   8.935  11.497
24358SOL    HW274908   2.183   8.992  11.363
24359SOL     OW74909  11.292   2.241   3.231
24359SOL    HW174910  11.356   2.270   3.166
24359SOL    HW274911  11.222   2.201   3.180
24360SOL     OW74912  12.287   0.452   2.203
24360SOL    HW174913  12.285   0.545   2.179
24360SOL    HW274914  12.363   0.442   2.259
24361SOL     OW74915   7.922   1.971   9.769
24361SOL    HW174916   7.977   1.913   9.717
24361SOL    HW274917   7.834   1.959   9.733
24362SOL     OW74918  13.332   5.622   4.386
24362SOL    HW174919  13.316   5.642   4.478
24362SOL    HW274920  13.270   5.677   4.339
24363SOL     OW74921  13.792  13.307  12.550
24363SOL    HW174922  13.845  13.387  12.556
24363SOL    HW274923  13.702  13.338  12.557
24364SOL     OW74924  11.574   3.297   8.523
24364SOL    HW174925  11.614   3.377   8.488
24364SOL    HW274926  11.513   3.328   8.590
24365SOL     OW74927  11.682   5.507  10.465
24365SOL    HW174928  11.649   5.542  10.548
24365SOL    HW274929  11.647   5.418  10.461
24366SOL     OW74930  11.102   3.084   3.166
24366SOL    HW174931  11.126   3.169   3.129
24366SOL    HW274932  11.022   3.059   3.120
24367SOL     OW74933   5.613   8.464   2.630
24367SOL    HW174934   5.596   8.494   2.720
24367SOL    HW274935   5.575   8.377   2.626
24368SOL     OW74936   4.139  12.964   0.309
24368SOL    HW174937   4.091  12.912   0.373
24368SOL    HW274938   4.177  13.036   0.360
24369SOL     OW74939  14.747  12.675   1.213
24369SOL    HW174940  14.777  12.672   1.303
24369SOL    HW274941  14.818  12.717   1.165
24370SOL     OW74942   1.532  10.846  10.481
24370SOL    HW174943   1.518  10.809  10.394
24370SOL    HW274944   1.612  10.899  10.472
24371SOL     OW74945   3.103  10.974   2.388
24371SOL    HW174946   3.052  11.054   2.398
24371SOL    HW274947   3.192  10.999   2.415
24372SOL     OW74948   9.624   2.737   3.830
24372SOL    HW174949   9.677   2.659   3.814
24372SOL    HW274950   9.561   2.739   3.758
24373SOL     OW74951  11.935   0.836  13.862
24373SOL    HW174952  11.925   0.748  13.896
24373SOL    HW274953  12.029   0.846  13.847
24374SOL     OW74954  12.183   3.445  14.277
24374SOL    HW174955  12.137   3.361  14.280
24374SOL    HW274956  12.229   3.444  14.194
24375SOL     OW74957  10.278   9.977   5.188
24375SOL    HW174958  10.289   9.914   5.259
24375SOL    HW274959  10.212   9.938   5.131
24376SOL     OW74960  14.509   5.625   2.086
24376SOL    HW174961  14.502   5.709   2.129
24376SOL    HW274962  14.487   5.561   2.154
24377SOL     OW74963   8.915  11.008  12.007
24377SOL    HW174964   8.927  10.977  11.917
24377SOL    HW274965   8.821  11.027  12.013
24378SOL     OW74966   3.182  12.106   2.755
24378SOL    HW174967   3.233  12.032   2.788
24378SOL    HW274968   3.168  12.162   2.831
24379SOL     OW74969   2.291   0.312   6.064
24379SOL    HW174970   2.203   0.303   6.101
24379SOL    HW274971   2.340   0.240   6.104
24380SOL     OW74972  14.008   2.964  10.108
24380SOL    HW174973  13.981   3.028  10.043
24380SOL    HW274974  14.081   3.005  10.154
24381SOL     OW74975   8.331   9.918  11.103
24381SOL    HW174976   8.377   9.864  11.039
24381SOL    HW274977   8.288   9.855  11.161
24382SOL     OW74978  14.319  11.629  12.084
24382SOL    HW174979  14.354  11.659  12.000
24382SOL    HW274980  14.396  11.617  12.139
24383SOL     OW74981   3.482   4.660  10.207
24383SOL    HW174982   3.505   4.569  10.190
24383SOL    HW274983   3.542   4.711  10.153
24384SOL     OW74984   9.495  14.012   0.120
24384SOL    HW174985   9.490  13.962   0.202
24384SOL    HW274986   9.407  14.047   0.109
24385SOL     OW74987   5.185   8.284   8.613
24385SOL    HW174988   5.255   8.223   8.590
24385SOL    HW274989   5.220   8.335   8.686
24386SOL     OW74990   4.279   6.578   3.180
24386SOL    HW174991   4.358   6.618   3.145
24386SOL    HW274992   4.282   6.595   3.274
24387SOL     OW74993   4.379  14.419  12.172
24387SOL    HW174994   4.410  14.357  12.106
24387SOL    HW274995   4.346  14.493  12.122
24388SOL     OW74996   6.310  10.910   6.635
24388SOL    HW174997   6.290  10.817   6.626
24388SOL    HW274998   6.361  10.932   6.557
24389SOL     OW74999   5.859   8.537   3.472
24389SOL    HW175000   5.881   8.625   3.505
24389SOL    HW275001   5.936   8.484   3.495
24390SOL     OW75002   4.556  13.278   1.378
24390SOL    HW175003   4.509  13.217   1.434
24390SOL    HW275004   4.488  13.338   1.347
24391SOL     OW75005  12.843   7.286   9.564
24391SOL    HW175006  12.864   7.193   9.578
24391SOL    HW275007  12.850   7.325   9.651
24392SOL     OW75008  12.620  12.520   8.192
24392SOL    HW175009  12.580  12.518   8.105
24392SOL    HW275010  12.589  12.602   8.231
24393SOL     OW75011   9.304  12.655  11.783
24393SOL    HW175012   9.241  12.712  11.739
24393SOL    HW275013   9.311  12.579  11.725
24394SOL     OW75014  12.686   6.406   1.342
24394SOL    HW175015  12.648   6.461   1.410
24394SOL    HW275016  12.771   6.447   1.324
24395SOL     OW75017  10.944   7.545   4.684
24395SOL    HW175018  10.952   7.640   4.691
24395SOL    HW275019  10.878   7.532   4.616
24396SOL     OW75020   6.197  13.776   4.673
24396SOL    HW175021   6.231  13.864   4.690
24396SOL    HW275022   6.275  13.723   4.659
24397SOL     OW75023  13.474   3.832  10.248
24397SOL    HW175024  13.560   3.852  10.285
24397SOL    HW275025  13.471   3.736  10.246
24398SOL     OW75026  12.337   4.529  12.041
24398SOL    HW175027  12.307   4.611  12.003
24398SOL    HW275028  12.315   4.537  12.134
24399SOL     OW75029   8.942   4.823  12.246
24399SOL    HW175030   8.904   4.828  12.334
24399SOL    HW275031   8.892   4.755  12.202
24400SOL     OW75032   5.166   2.436   1.121
24400SOL    HW175033   5.253   2.462   1.091
24400SOL    HW275034   5.138   2.370   1.057
24401SOL     OW75035   7.343   9.619   1.535
24401SOL    HW175036   7.398   9.697   1.535
24401SOL    HW275037   7.257   9.650   1.563
24402SOL     OW75038   1.849   9.282   5.661
24402SOL    HW175039   1.811   9.198   5.636
24402SOL    HW275040   1.939   9.278   5.627
24403SOL     OW75041  14.329  13.908  10.983
24403SOL    HW175042  14.388  13.886  10.911
24403SOL    HW275043  14.386  13.918  11.059
24404SOL     OW75044   2.273   1.208   0.803
24404SOL    HW175045   2.344   1.272   0.794
24404SOL    HW275046   2.196   1.253   0.771
24405SOL     OW75047   2.837   0.095   4.501
24405SOL    HW175048   2.749   0.131   4.507
24405SOL    HW275049   2.823   0.001   4.486
24406SOL     OW75050   7.041   6.721   9.618
24406SOL    HW175051   6.992   6.699   9.539
24406SOL    HW275052   7.131   6.735   9.588
24407SOL     OW75053  10.630   3.476   9.358
24407SOL    HW175054  10.539   3.467   9.385
24407SOL    HW275055  10.669   3.533   9.424
24408SOL     OW75056   7.548   8.901   5.248
24408SOL    HW175057   7.600   8.821   5.252
24408SOL    HW275058   7.540   8.920   5.154
24409SOL     OW75059   6.864   6.462   3.176
24409SOL    HW175060   6.790   6.493   3.228
24409SOL    HW275061   6.829   6.457   3.087
24410SOL     OW75062   3.815  13.417  12.648
24410SOL    HW175063   3.733  13.410  12.696
24410SOL    HW275064   3.803  13.358  12.573
24411SOL     OW75065  13.457   4.441   4.015
24411SOL    HW175066  13.437   4.515   4.072
24411SOL    HW275067  13.456   4.365   4.074
24412SOL     OW75068   6.920   1.804   7.413
24412SOL    HW175069   6.936   1.728   7.357
24412SOL    HW275070   6.949   1.776   7.500
24413SOL     OW75071  12.721  10.424  12.740
24413SOL    HW175072  12.718  10.518  12.757
24413SOL    HW275073  12.710  10.417  12.645
24414SOL     OW75074   2.692   4.422   2.943
24414SOL    HW175075   2.721   4.513   2.932
24414SOL    HW275076   2.757   4.384   3.002
24415SOL     OW75077  10.283   3.344   7.172
24415SOL    HW175078  10.298   3.372   7.263
24415SOL    HW275079  10.344   3.397   7.120
24416SOL     OW75080   8.710   8.291  12.457
24416SOL    HW175081   8.670   8.273  12.372
24416SOL    HW275082   8.803   8.277  12.444
24417SOL     OW75083   7.368   0.006  10.007
24417SOL    HW175084   7.313  14.807  10.023
24417SOL    HW275085   7.441  14.874  10.068
24418SOL     OW75086   2.698   4.405   4.000
24418SOL    HW175087   2.658   4.318   4.008
24418SOL    HW275088   2.681   4.446   4.085
24419SOL     OW75089  11.332   5.732   7.725
24419SOL    HW175090  11.377   5.792   7.785
24419SOL    HW275091  11.274   5.789   7.674
24420SOL     OW75092   9.436   4.516  10.316
24420SOL    HW175093   9.510   4.506  10.375
24420SOL    HW275094   9.428   4.431  10.272
24421SOL     OW75095   4.811   0.998  12.619
24421SOL    HW175096   4.740   1.044  12.664
24421SOL    HW275097   4.873   1.067  12.596
24422SOL     OW75098   6.677   4.850   2.025
24422SOL    HW175099   6.773   4.847   2.026
24422SOL    HW275100   6.656   4.903   1.948
24423SOL     OW75101   8.231  14.092   0.908
24423SOL    HW175102   8.270  14.119   0.825
24423SOL    HW275103   8.260  14.158   0.971
24424SOL     OW75104  12.825   9.561  14.106
24424SOL    HW175105  12.732   9.571  14.127
24424SOL    HW275106  12.859   9.502  14.173
24425SOL     OW75107   3.037  10.254   2.826
24425SOL    HW175108   2.985  10.174   2.823
24425SOL    HW275109   2.986  10.315   2.878
24426SOL     OW75110   4.957  12.040   5.347
24426SOL    HW175111   4.904  12.098   5.292
24426SOL    HW275112   4.905  11.960   5.355
24427SOL     OW75113   9.965   4.463   3.436
24427SOL    HW175114   9.908   4.391   3.464
24427SOL    HW275115  10.053   4.426   3.437
24428SOL     OW75116  10.379   3.188   2.265
24428SOL    HW175117  10.406   3.117   2.207
24428SOL    HW275118  10.397   3.155   2.353
24429SOL     OW75119   5.163   0.386  14.142
24429SOL    HW175120   5.070   0.395  14.161
24429SOL    HW275121   5.206   0.392  14.227
24430SOL     OW75122  14.408  14.160   7.952
24430SOL    HW175123  14.436  14.069   7.963
24430SOL    HW275124  14.414  14.176   7.858
24431SOL     OW75125   5.789  11.763   8.630
24431SOL    HW175126   5.710  11.816   8.642
24431SOL    HW275127   5.830  11.798   8.551
24432SOL     OW75128   7.988   2.971  10.551
24432SOL    HW175129   7.929   2.905  10.515
24432SOL    HW275130   7.931   3.044  10.575
24433SOL     OW75131  13.977   2.196  10.297
24433SOL    HW175132  13.883   2.211  10.295
24433SOL    HW275133  13.999   2.189  10.389
24434SOL     OW75134   8.370   5.431   9.535
24434SOL    HW175135   8.441   5.493   9.517
24434SOL    HW275136   8.290   5.482   9.525
24435SOL     OW75137   9.409  12.984  10.475
24435SOL    HW175138   9.408  12.891  10.496
24435SOL    HW275139   9.459  13.025  10.545
24436SOL     OW75140   6.697  10.672   9.266
24436SOL    HW175141   6.645  10.702   9.341
24436SOL    HW275142   6.749  10.748   9.241
24437SOL     OW75143  11.656  10.509   3.942
24437SOL    HW175144  11.705  10.519   3.860
24437SOL    HW275145  11.636  10.599   3.968
24438SOL     OW75146   3.398   6.892  10.562
24438SOL    HW175147   3.474   6.920  10.511
24438SOL    HW275148   3.402   6.946  10.641
24439SOL     OW75149   2.823   1.110   5.839
24439SOL    HW175150   2.780   1.077   5.760
24439SOL    HW275151   2.911   1.073   5.835
24440SOL     OW75152   0.969  14.427   9.670
24440SOL    HW175153   0.883  14.392   9.695
24440SOL    HW275154   1.032  14.373   9.717
24441SOL     OW75155   3.783  12.588   0.439
24441SOL    HW175156   3.836  12.512   0.417
24441SOL    HW275157   3.730  12.560   0.514
24442SOL     OW75158  11.334  12.225   4.182
24442SOL    HW175159  11.387  12.184   4.250
24442SOL    HW275160  11.367  12.315   4.177
24443SOL     OW75161   8.904  13.734   7.636
24443SOL    HW175162   8.981  13.681   7.656
24443SOL    HW275163   8.938  13.823   7.626
24444SOL     OW75164   0.493  13.474  12.894
24444SOL    HW175165   0.474  13.475  12.988
24444SOL    HW275166   0.426  13.530  12.856
24445SOL     OW75167   6.988  12.568   5.685
24445SOL    HW175168   7.030  12.622   5.618
24445SOL    HW275169   6.908  12.615   5.707
24446SOL     OW75170   8.426   8.823   6.630
24446SOL    HW175171   8.458   8.772   6.704
24446SOL    HW275172   8.474   8.790   6.555
24447SOL     OW75173   4.434   6.927  11.185
24447SOL    HW175174   4.469   6.919  11.274
24447SOL    HW275175   4.339   6.923  11.196
24448SOL     OW75176   5.040   8.083  12.667
24448SOL    HW175177   5.034   8.057  12.575
24448SOL    HW275178   5.019   8.003  12.716
24449SOL     OW75179   0.793   2.418   8.692
24449SOL    HW175180   0.699   2.429   8.680
24449SOL    HW275181   0.803   2.333   8.734
24450SOL     OW75182   4.200   9.320   5.105
24450SOL    HW175183   4.266   9.263   5.066
24450SOL    HW275184   4.146   9.349   5.032
24451SOL     OW75185   7.247  11.380  13.046
24451SOL    HW175186   7.341  11.379  13.061
24451SOL    HW275187   7.225  11.288  13.028
24452SOL     OW75188   5.085   6.730   5.242
24452SOL    HW175189   5.161   6.755   5.295
24452SOL    HW275190   5.103   6.766   5.156
24453SOL     OW75191   4.673   9.096  10.914
24453SOL    HW175192   4.716   9.120  10.832
24453SOL    HW275193   4.609   9.166  10.929
24454SOL     OW75194  10.567  14.812   0.714
24454SOL    HW175195  10.519  14.866   0.650
24454SOL    HW275196  10.505  14.800   0.786
24455SOL     OW75197  11.543   7.322   8.155
24455SOL    HW175198  11.500   7.402   8.186
24455SOL    HW275199  11.579   7.283   8.234
24456SOL     OW75200   7.896   3.970   2.213
24456SOL    HW175201   7.836   3.895   2.216
24456SOL    HW275202   7.889   4.002   2.123
24457SOL     OW75203   4.959   2.831  10.168
24457SOL    HW175204   4.902   2.899  10.133
24457SOL    HW275205   4.929   2.750  10.126
24458SOL     OW75206   4.759   1.935  10.651
24458SOL    HW175207   4.790   1.846  10.664
24458SOL    HW275208   4.817   1.971  10.584
24459SOL     OW75209  13.983   2.658   7.567
24459SOL    HW175210  14.019   2.747   7.567
24459SOL    HW275211  14.034   2.611   7.632
24460SOL     OW75212   1.278   3.470  13.893
24460SOL    HW175213   1.253   3.415  13.819
24460SOL    HW275214   1.327   3.543  13.854
24461SOL     OW75215  14.145   0.168   9.968
24461SOL    HW175216  14.187   0.212   9.894
24461SOL    HW275217  14.217   0.121  10.011
24462SOL     OW75218   8.323   9.478  12.466
24462SOL    HW175219   8.276   9.441  12.540
24462SOL    HW275220   8.335   9.404  12.406
24463SOL     OW75221   1.681   0.914   4.013
24463SOL    HW175222   1.710   1.003   4.030
24463SOL    HW275223   1.628   0.891   4.089
24464SOL     OW75224  12.625   1.525  14.170
24464SOL    HW175225  12.667   1.440  14.176
24464SOL    HW275226  12.673   1.571  14.101
24465SOL     OW75227   8.448   5.425  13.171
24465SOL    HW175228   8.455   5.366  13.096
24465SOL    HW275229   8.538   5.433  13.203
24466SOL     OW75230  13.435  10.253  12.205
24466SOL    HW175231  13.389  10.170  12.214
24466SOL    HW275232  13.459  10.257  12.112
24467SOL     OW75233   2.237  11.950   8.079
24467SOL    HW175234   2.193  11.992   8.005
24467SOL    HW275235   2.171  11.950   8.149
24468SOL     OW75236  13.570   9.108   3.992
24468SOL    HW175237  13.576   9.018   4.023
24468SOL    HW275238  13.504   9.149   4.049
24469SOL     OW75239   4.252   8.269  14.660
24469SOL    HW175240   4.249   8.330  14.586
24469SOL    HW275241   4.320   8.207  14.636
24470SOL     OW75242   0.417   5.441   7.408
24470SOL    HW175243   0.361   5.408   7.338
24470SOL    HW275244   0.492   5.480   7.364
24471SOL     OW75245   6.149   5.878  11.969
24471SOL    HW175246   6.114   5.897  12.057
24471SOL    HW275247   6.077   5.902  11.910
24472SOL     OW75248  11.859   1.260  10.695
24472SOL    HW175249  11.770   1.290  10.712
24472SOL    HW275250  11.901   1.335  10.652
24473SOL     OW75251  10.692   8.527  14.800
24473SOL    HW175252  10.682   8.506   0.014
24473SOL    HW275253  10.724   8.617  14.799
24474SOL     OW75254  10.691   8.220   9.024
24474SOL    HW175255  10.715   8.132   9.054
24474SOL    HW275256  10.615   8.206   8.968
24475SOL     OW75257   9.368   3.905   5.798
24475SOL    HW175258   9.352   3.859   5.716
24475SOL    HW275259   9.402   3.837   5.857
24476SOL     OW75260   9.203  14.038   5.780
24476SOL    HW175261   9.176  14.070   5.694
24476SOL    HW275262   9.296  14.058   5.785
24477SOL     OW75263   1.938   3.221   6.282
24477SOL    HW175264   1.903   3.307   6.257
24477SOL    HW275265   1.967   3.183   6.199
24478SOL     OW75266  10.606   7.404  11.062
24478SOL    HW175267  10.526   7.353  11.069
24478SOL    HW275268  10.577   7.493  11.041
24479SOL     OW75269   1.357   7.815  12.451
24479SOL    HW175270   1.278   7.857  12.419
24479SOL    HW275271   1.383   7.868  12.527
24480SOL     OW75272   1.898   6.018  14.084
24480SOL    HW175273   1.830   6.085  14.077
24480SOL    HW275274   1.896   5.991  14.176
24481SOL     OW75275   9.313   7.016  13.225
24481SOL    HW175276   9.387   7.076  13.232
24481SOL    HW275277   9.321   6.980  13.136
24482SOL     OW75278  12.849   5.918   4.571
24482SOL    HW175279  12.819   5.915   4.480
24482SOL    HW275280  12.935   5.877   4.569
24483SOL     OW75281   6.133  12.734   7.139
24483SOL    HW175282   6.165  12.781   7.216
24483SOL    HW275283   6.171  12.647   7.147
24484SOL     OW75284  11.944   1.518   1.125
24484SOL    HW175285  11.992   1.476   1.053
24484SOL    HW275286  11.931   1.608   1.096
24485SOL     OW75287   7.298   2.817   8.734
24485SOL    HW175288   7.224   2.762   8.709
24485SOL    HW275289   7.273   2.905   8.706
24486SOL     OW75290  12.819   2.672  10.966
24486SOL    HW175291  12.827   2.656  10.872
24486SOL    HW275292  12.879   2.745  10.982
24487SOL     OW75293  14.463   6.594   9.254
24487SOL    HW175294  14.418   6.532   9.311
24487SOL    HW275295  14.533   6.544   9.213
24488SOL     OW75296   7.583   1.356  12.030
24488SOL    HW175297   7.533   1.416  11.975
24488SOL    HW275298   7.610   1.408  12.106
24489SOL     OW75299   1.190  10.409  13.929
24489SOL    HW175300   1.113  10.430  13.877
24489SOL    HW275301   1.226  10.493  13.956
24490SOL     OW75302   2.842   0.424   4.609
24490SOL    HW175303   2.872   0.475   4.684
24490SOL    HW275304   2.919   0.416   4.552
24491SOL     OW75305   9.753  14.240   1.186
24491SOL    HW175306   9.781  14.166   1.132
24491SOL    HW275307   9.834  14.281   1.215
24492SOL     OW75308  14.652  13.660  10.490
24492SOL    HW175309  14.675  13.628  10.577
24492SOL    HW275310  14.613  13.746  10.506
24493SOL     OW75311   2.976  13.378   0.306
24493SOL    HW175312   3.013  13.379   0.218
24493SOL    HW275313   2.882  13.382   0.292
24494SOL     OW75314  14.759   5.317  14.839
24494SOL    HW175315  14.805   5.367   0.028
24494SOL    HW275316  14.688   5.273   0.007
24495SOL     OW75317   0.419   8.995   4.149
24495SOL    HW175318   0.351   8.993   4.216
24495SOL    HW275319   0.434   9.088   4.133
24496SOL     OW75320  13.806  12.775   2.968
24496SOL    HW175321  13.896  12.773   2.999
24496SOL    HW275322  13.753  12.766   3.047
24497SOL     OW75323   4.459   4.962   6.172
24497SOL    HW175324   4.517   4.987   6.100
24497SOL    HW275325   4.408   4.889   6.139
24498SOL     OW75326   3.351   2.966  12.432
24498SOL    HW175327   3.366   3.039  12.373
24498SOL    HW275328   3.307   3.005  12.508
24499SOL     OW75329  11.886   0.744   9.235
24499SOL    HW175330  11.868   0.697   9.153
24499SOL    HW275331  11.945   0.815   9.209
24500SOL     OW75332   4.379   4.239   2.702
24500SOL    HW175333   4.428   4.237   2.620
24500SOL    HW275334   4.299   4.190   2.683
24501SOL     OW75335  10.149   7.646   8.766
24501SOL    HW175336  10.214   7.714   8.783
24501SOL    HW275337  10.081   7.690   8.714
24502SOL     OW75338   7.558   9.300  13.236
24502SOL    HW175339   7.575   9.239  13.164
24502SOL    HW275340   7.644   9.315  13.275
24503SOL     OW75341   6.175   2.901   9.776
24503SOL    HW175342   6.236   2.975   9.778
24503SOL    HW275343   6.126   2.913   9.695
24504SOL     OW75344   3.177   3.122   5.423
24504SOL    HW175345   3.087   3.149   5.441
24504SOL    HW275346   3.169   3.035   5.385
24505SOL     OW75347  10.964   3.604   8.233
24505SOL    HW175348  11.030   3.668   8.261
24505SOL    HW275349  10.905   3.596   8.309
24506SOL     OW75350   8.357   6.812  12.105
24506SOL    HW175351   8.366   6.722  12.073
24506SOL    HW275352   8.355   6.866  12.025
24507SOL     OW75353  13.393   9.838  11.657
24507SOL    HW175354  13.393   9.750  11.695
24507SOL    HW275355  13.474   9.844  11.607
24508SOL     OW75356  13.585  11.347   6.142
24508SOL    HW175357  13.627  11.291   6.207
24508SOL    HW275358  13.499  11.308   6.129
24509SOL     OW75359  10.009   8.612  11.925
24509SOL    HW175360   9.917   8.597  11.906
24509SOL    HW275361  10.044   8.525  11.947
24510SOL     OW75362  10.270  10.903   6.747
24510SOL    HW175363  10.303  10.930   6.833
24510SOL    HW275364  10.338  10.844   6.714
24511SOL     OW75365   5.282  13.398   3.416
24511SOL    HW175366   5.248  13.326   3.469
24511SOL    HW275367   5.283  13.364   3.326
24512SOL     OW75368   0.673   2.516   0.155
24512SOL    HW175369   0.762   2.516   0.189
24512SOL    HW275370   0.619   2.485   0.228
24513SOL     OW75371   3.620   9.451   3.266
24513SOL    HW175372   3.594   9.396   3.339
24513SOL    HW275373   3.648   9.389   3.198
24514SOL     OW75374   2.619   5.829   7.768
24514SOL    HW175375   2.688   5.804   7.706
24514SOL    HW275376   2.611   5.753   7.826
24515SOL     OW75377   0.261   8.019   6.214
24515SOL    HW175378   0.206   8.038   6.291
24515SOL    HW275379   0.293   7.930   6.229
24516SOL     OW75380   6.922   4.560   2.119
24516SOL    HW175381   6.844   4.569   2.064
24516SOL    HW275382   6.919   4.469   2.150
24517SOL     OW75383  10.179   8.988   1.490
24517SOL    HW175384  10.253   9.045   1.509
24517SOL    HW275385  10.194   8.957   1.401
24518SOL     OW75386  13.225   2.371   8.777
24518SOL    HW175387  13.276   2.291   8.789
24518SOL    HW275388  13.135   2.341   8.768
24519SOL     OW75389   7.037  12.650  12.221
24519SOL    HW175390   7.040  12.576  12.161
24519SOL    HW275391   6.959  12.699  12.194
24520SOL     OW75392   0.937   7.295   7.813
24520SOL    HW175393   0.880   7.357   7.858
24520SOL    HW275394   0.877   7.240   7.762
24521SOL     OW75395  12.528   5.325  12.527
24521SOL    HW175396  12.559   5.281  12.447
24521SOL    HW275397  12.507   5.414  12.498
24522SOL     OW75398  14.097  12.690   4.776
24522SOL    HW175399  14.144  12.767   4.743
24522SOL    HW275400  14.079  12.711   4.868
24523SOL     OW75401   2.167   3.675  13.609
24523SOL    HW175402   2.140   3.610  13.675
24523SOL    HW275403   2.088   3.696  13.561
24524SOL     OW75404   8.241  12.485  10.835
24524SOL    HW175405   8.242  12.391  10.817
24524SOL    HW275406   8.148  12.508  10.838
24525SOL     OW75407  10.597   1.153   5.231
24525SOL    HW175408  10.626   1.225   5.176
24525SOL    HW275409  10.636   1.170   5.317
24526SOL     OW75410   6.905  13.029   2.939
24526SOL    HW175411   6.906  12.955   2.879
24526SOL    HW275412   6.863  12.996   3.018
24527SOL     OW75413  13.320   0.115   3.589
24527SOL    HW175414  13.323   0.076   3.676
24527SOL    HW275415  13.236   0.086   3.553
24528SOL     OW75416   0.854  13.582  10.795
24528SOL    HW175417   0.835  13.670  10.829
24528SOL    HW275418   0.768  13.545  10.775
24529SOL     OW75419  14.457  14.815   6.888
24529SOL    HW175420  14.443  14.743   6.828
24529SOL    HW275421  14.535  14.791   6.938
24530SOL     OW75422  10.985  12.710   2.135
24530SOL    HW175423  11.049  12.775   2.164
24530SOL    HW275424  11.038  12.632   2.116
24531SOL     OW75425  11.396  12.289   0.591
24531SOL    HW175426  11.390  12.303   0.496
24531SOL    HW275427  11.475  12.337   0.617
24532SOL     OW75428   2.037   1.417   0.272
24532SOL    HW175429   1.945   1.444   0.274
24532SOL    HW275430   2.062   1.427   0.180
24533SOL     OW75431  10.262   2.465  12.353
24533SOL    HW175432  10.336   2.505  12.308
24533SOL    HW275433  10.285   2.372  12.359
24534SOL     OW75434   7.769   8.880  10.081
24534SOL    HW175435   7.833   8.846  10.143
24534SOL    HW275436   7.713   8.938  10.133
24535SOL     OW75437  10.751   7.136  12.231
24535SOL    HW175438  10.794   7.118  12.147
24535SOL    HW275439  10.736   7.050  12.270
24536SOL     OW75440   5.460  10.686   0.179
24536SOL    HW175441   5.380  10.635   0.193
24536SOL    HW275442   5.531  10.622   0.190
24537SOL     OW75443  11.979  11.020  12.627
24537SOL    HW175444  11.943  11.095  12.580
24537SOL    HW275445  12.018  10.965  12.558
24538SOL     OW75446   7.658   3.533  11.545
24538SOL    HW175447   7.717   3.515  11.618
24538SOL    HW275448   7.643   3.627  11.547
24539SOL     OW75449   0.948   9.721   5.975
24539SOL    HW175450   1.041   9.736   5.995
24539SOL    HW275451   0.937   9.755   5.887
24540SOL     OW75452  12.522   6.012   5.826
24540SOL    HW175453  12.508   5.922   5.797
24540SOL    HW275454  12.611   6.013   5.861
24541SOL     OW75455   6.925   3.219  10.015
24541SOL    HW175456   6.860   3.153   9.990
24541SOL    HW275457   6.878   3.277  10.075
24542SOL     OW75458  11.261  14.468   3.967
24542SOL    HW175459  11.253  14.506   3.880
24542SOL    HW275460  11.323  14.395   3.957
24543SOL     OW75461   2.112  12.763   8.595
24543SOL    HW175462   2.119  12.755   8.690
24543SOL    HW275463   2.040  12.706   8.570
24544SOL     OW75464   6.195  13.700  14.416
24544SOL    HW175465   6.158  13.731  14.334
24544SOL    HW275466   6.119  13.687  14.473
24545SOL     OW75467   7.706   9.264   2.950
24545SOL    HW175468   7.639   9.217   2.998
24545SOL    HW275469   7.787   9.215   2.967
24546SOL     OW75470   3.287   1.081  12.534
24546SOL    HW175471   3.344   1.008  12.511
24546SOL    HW275472   3.290   1.139  12.458
24547SOL     OW75473   1.834   9.133  11.634
24547SOL    HW175474   1.788   9.167  11.711
24547SOL    HW275475   1.888   9.062  11.669
24548SOL     OW75476   2.944  13.502  13.450
24548SOL    HW175477   3.011  13.552  13.404
24548SOL    HW275478   2.901  13.451  13.382
24549SOL     OW75479   8.257   3.006  14.282
24549SOL    HW175480   8.255   2.929  14.339
24549SOL    HW275481   8.347   3.038  14.287
24550SOL     OW75482  11.421   2.412   7.544
24550SOL    HW175483  11.427   2.484   7.482
24550SOL    HW275484  11.383   2.450   7.623
24551SOL     OW75485   2.977   3.374   6.740
24551SOL    HW175486   2.955   3.452   6.790
24551SOL    HW275487   3.044   3.330   6.792
24552SOL     OW75488  13.881   8.361  13.951
24552SOL    HW175489  13.851   8.371  14.041
24552SOL    HW275490  13.808   8.390  13.897
24553SOL     OW75491   6.101   7.265   7.546
24553SOL    HW175492   6.151   7.184   7.538
24553SOL    HW275493   6.014   7.243   7.513
24554SOL     OW75494   3.027  10.877   5.566
24554SOL    HW175495   2.956  10.939   5.549
24554SOL    HW275496   2.983  10.793   5.582
24555SOL     OW75497   1.448   0.743   7.132
24555SOL    HW175498   1.486   0.800   7.065
24555SOL    HW275499   1.522   0.691   7.163
24556SOL     OW75500   3.143  10.424   8.082
24556SOL    HW175501   3.193  10.382   8.012
24556SOL    HW275502   3.190  10.504   8.101
24557SOL     OW75503  10.809   0.818   2.132
24557SOL    HW175504  10.871   0.828   2.059
24557SOL    HW275505  10.760   0.738   2.111
24558SOL     OW75506   5.063  11.545  12.269
24558SOL    HW175507   5.028  11.631  12.290
24558SOL    HW275508   5.149  11.543  12.312
24559SOL     OW75509  10.718  11.083  11.425
24559SOL    HW175510  10.715  11.141  11.501
24559SOL    HW275511  10.634  11.037  11.426
24560SOL     OW75512   9.517   2.334  13.297
24560SOL    HW175513   9.560   2.348  13.213
24560SOL    HW275514   9.585   2.297  13.353
24561SOL     OW75515  10.159   9.262   6.729
24561SOL    HW175516  10.152   9.174   6.693
24561SOL    HW275517  10.217   9.309   6.668
24562SOL     OW75518  12.672   3.545   1.824
24562SOL    HW175519  12.647   3.632   1.794
24562SOL    HW275520  12.730   3.512   1.755
24563SOL     OW75521  10.929   0.602   0.160
24563SOL    HW175522  10.925   0.638   0.072
24563SOL    HW275523  10.911   0.677   0.217
24564SOL     OW75524   9.212   3.570   5.699
24564SOL    HW175525   9.145   3.521   5.653
24564SOL    HW275526   9.222   3.524   5.783
24565SOL     OW75527   7.390  14.812   9.347
24565SOL    HW175528   7.481  14.784   9.347
24565SOL    HW275529   7.357  14.787   9.261
24566SOL     OW75530   3.414  11.661   4.845
24566SOL    HW175531   3.472  11.673   4.920
24566SOL    HW275532   3.470  11.678   4.769
24567SOL     OW75533   5.977   5.777   3.288
24567SOL    HW175534   6.029   5.776   3.208
24567SOL    HW275535   5.980   5.687   3.320
24568SOL     OW75536  13.902   8.617  11.303
24568SOL    HW175537  13.956   8.634  11.380
24568SOL    HW275538  13.946   8.546  11.257
24569SOL     OW75539   4.564   9.443   3.315
24569SOL    HW175540   4.495   9.420   3.253
24569SOL    HW275541   4.568   9.368   3.374
24570SOL     OW75542   7.267   6.330   0.413
24570SOL    HW175543   7.240   6.370   0.496
24570SOL    HW275544   7.269   6.236   0.432
24571SOL     OW75545   3.178  10.259  13.647
24571SOL    HW175546   3.237  10.217  13.709
24571SOL    HW275547   3.092  10.220  13.665
24572SOL     OW75548   9.726   6.397  12.965
24572SOL    HW175549   9.648   6.357  12.927
24572SOL    HW275550   9.709   6.491  12.962
24573SOL     OW75551   9.530   2.373  13.957
24573SOL    HW175552   9.513   2.335  14.043
24573SOL    HW275553   9.494   2.310  13.895
24574SOL     OW75554   4.717   6.586   1.835
24574SOL    HW175555   4.698   6.662   1.781
24574SOL    HW275556   4.648   6.523   1.814
24575SOL     OW75557   4.716   4.779   9.836
24575SOL    HW175558   4.722   4.871   9.860
24575SOL    HW275559   4.713   4.732   9.919
24576SOL     OW75560   8.717  11.174  12.771
24576SOL    HW175561   8.678  11.098  12.728
24576SOL    HW275562   8.802  11.144  12.802
24577SOL     OW75563  10.766   8.261   6.571
24577SOL    HW175564  10.794   8.216   6.491
24577SOL    HW275565  10.671   8.266   6.564
24578SOL     OW75566   4.092  13.356   1.610
24578SOL    HW175567   4.147  13.421   1.567
24578SOL    HW275568   4.015  13.405   1.640
24579SOL     OW75569   2.834   8.468  12.596
24579SOL    HW175570   2.793   8.488  12.511
24579SOL    HW275571   2.766   8.490  12.660
24580SOL     OW75572   9.213   7.586   2.660
24580SOL    HW175573   9.237   7.553   2.573
24580SOL    HW275574   9.225   7.681   2.653
24581SOL     OW75575   9.564   2.366   5.127
24581SOL    HW175576   9.498   2.430   5.151
24581SOL    HW275577   9.543   2.289   5.179
24582SOL     OW75578   5.604  14.857  10.128
24582SOL    HW175579   5.605   0.021  10.043
24582SOL    HW275580   5.640   0.043  10.188
24583SOL     OW75581   3.943  11.514   2.080
24583SOL    HW175582   3.923  11.469   1.998
24583SOL    HW275583   3.864  11.564   2.100
24584SOL     OW75584  14.836   6.861   7.903
24584SOL    HW175585  14.784   6.897   7.975
24584SOL    HW275586  14.777   6.802   7.858
24585SOL     OW75587   3.615   7.060  14.188
24585SOL    HW175588   3.629   7.102  14.102
24585SOL    HW275589   3.541   7.107  14.226
24586SOL     OW75590   3.980   5.665  14.449
24586SOL    HW175591   3.978   5.759  14.468
24586SOL    HW275592   3.964   5.660  14.354
24587SOL     OW75593   3.050   9.680  12.206
24587SOL    HW175594   2.998   9.733  12.145
24587SOL    HW275595   2.985   9.643  12.267
24588SOL     OW75596   7.503   3.577  13.496
24588SOL    HW175597   7.560   3.648  13.465
24588SOL    HW275598   7.431   3.576  13.433
24589SOL     OW75599   0.546  10.319  14.417
24589SOL    HW175600   0.454  10.307  14.393
24589SOL    HW275601   0.548  10.406  14.457
24590SOL     OW75602   5.626   4.054   3.766
24590SOL    HW175603   5.541   4.013   3.780
24590SOL    HW275604   5.624   4.084   3.676
24591SOL     OW75605   3.575   7.980  13.913
24591SOL    HW175606   3.646   7.961  13.974
24591SOL    HW275607   3.605   7.944  13.829
24592SOL     OW75608  12.441   4.913   1.597
24592SOL    HW175609  12.530   4.917   1.633
24592SOL    HW275610  12.384   4.915   1.674
24593SOL     OW75611   9.450  13.896   0.375
24593SOL    HW175612   9.394  13.854   0.440
24593SOL    HW275613   9.488  13.823   0.325
24594SOL     OW75614  11.377  11.218   9.687
24594SOL    HW175615  11.299  11.248   9.733
24594SOL    HW275616  11.361  11.243   9.596
24595SOL     OW75617  14.144   9.770   6.112
24595SOL    HW175618  14.204   9.705   6.149
24595SOL    HW275619  14.074   9.717   6.072
24596SOL     OW75620  13.430  11.525   4.023
24596SOL    HW175621  13.419  11.620   4.015
24596SOL    HW275622  13.356  11.488   3.974
24597SOL     OW75623   7.937   2.744   7.135
24597SOL    HW175624   7.908   2.658   7.164
24597SOL    HW275625   8.031   2.746   7.154
24598SOL     OW75626   6.671   8.835   8.142
24598SOL    HW175627   6.643   8.750   8.109
24598SOL    HW275628   6.764   8.824   8.163
24599SOL     OW75629  10.056  10.152   2.636
24599SOL    HW175630  10.118  10.087   2.604
24599SOL    HW275631  10.049  10.216   2.565
24600SOL     OW75632   1.247  13.934   0.337
24600SOL    HW175633   1.194  13.997   0.386
24600SOL    HW275634   1.197  13.917   0.257
24601SOL     OW75635   2.221   8.064   5.942
24601SOL    HW175636   2.172   8.142   5.967
24601SOL    HW275637   2.237   8.075   5.848
24602SOL     OW75638  11.258   0.142   5.684
24602SOL    HW175639  11.253   0.237   5.695
24602SOL    HW275640  11.316   0.129   5.609
24603SOL     OW75641  12.574  14.143   6.588
24603SOL    HW175642  12.642  14.093   6.633
24603SOL    HW275643  12.498  14.137   6.645
24604SOL     OW75644   4.552  11.097   9.943
24604SOL    HW175645   4.486  11.160   9.913
24604SOL    HW275646   4.634  11.147   9.943
24605SOL     OW75647  10.265   1.043  10.059
24605SOL    HW175648  10.189   1.089  10.096
24605SOL    HW275649  10.288   1.093   9.981
24606SOL     OW75650   8.555   6.893  12.376
24606SOL    HW175651   8.469   6.934  12.381
24606SOL    HW275652   8.587   6.914  12.289
24607SOL     OW75653  10.250   2.327   7.447
24607SOL    HW175654  10.170   2.355   7.491
24607SOL    HW275655  10.232   2.339   7.353
24608SOL     OW75656   2.127   9.143   9.201
24608SOL    HW175657   2.199   9.095   9.239
24608SOL    HW275658   2.168   9.200   9.135
24609SOL     OW75659  10.456   4.156   0.206
24609SOL    HW175660  10.456   4.202   0.122
24609SOL    HW275661  10.363   4.142   0.226
24610SOL     OW75662  14.523   1.262   5.115
24610SOL    HW175663  14.514   1.252   5.021
24610SOL    HW275664  14.579   1.339   5.127
24611SOL     OW75665  10.318   4.338   1.300
24611SOL    HW175666  10.375   4.382   1.238
24611SOL    HW275667  10.230   4.370   1.278
24612SOL     OW75668   3.609   1.552   7.501
24612SOL    HW175669   3.605   1.474   7.556
24612SOL    HW275670   3.701   1.577   7.501
24613SOL     OW75671  10.530   3.686  11.968
24613SOL    HW175672  10.454   3.744  11.958
24613SOL    HW275673  10.590   3.713  11.899
24614SOL     OW75674   7.122   6.287  12.867
24614SOL    HW175675   7.067   6.335  12.804
24614SOL    HW275676   7.193   6.252  12.813
24615SOL     OW75677   3.725   6.370  12.644
24615SOL    HW175678   3.786   6.330  12.582
24615SOL    HW275679   3.720   6.462  12.617
24616SOL     OW75680  12.226  13.452  14.450
24616SOL    HW175681  12.183  13.371  14.422
24616SOL    HW275682  12.259  13.433  14.538
24617SOL     OW75683  13.153   0.489   8.973
24617SOL    HW175684  13.152   0.437   8.893
24617SOL    HW275685  13.222   0.555   8.958
24618SOL     OW75686  11.856  12.662  12.364
24618SOL    HW175687  11.775  12.618  12.390
24618SOL    HW275688  11.827  12.740  12.316
24619SOL     OW75689   6.015   4.979   5.527
24619SOL    HW175690   6.026   4.901   5.472
24619SOL    HW275691   5.965   5.040   5.473
24620SOL     OW75692   2.334  11.465   6.211
24620SOL    HW175693   2.391  11.532   6.174
24620SOL    HW275694   2.245  11.500   6.200
24621SOL     OW75695  12.303   1.343   6.830
24621SOL    HW175696  12.267   1.255   6.846
24621SOL    HW275697  12.331   1.341   6.739
24622SOL     OW75698   6.190   2.557  14.400
24622SOL    HW175699   6.184   2.480  14.344
24622SOL    HW275700   6.284   2.577  14.405
24623SOL     OW75701  13.949  13.134   2.037
24623SOL    HW175702  13.912  13.047   2.044
24623SOL    HW275703  14.043  13.120   2.030
24624SOL     OW75704   6.870   5.577   2.908
24624SOL    HW175705   6.826   5.621   2.981
24624SOL    HW275706   6.956   5.554   2.942
24625SOL     OW75707   3.038   6.381   1.691
24625SOL    HW175708   3.049   6.343   1.778
24625SOL    HW275709   3.117   6.434   1.677
24626SOL     OW75710   8.267   0.811  14.864
24626SOL    HW175711   8.330   0.740   0.002
24626SOL    HW275712   8.233   0.793  14.777
24627SOL     OW75713  10.120  11.697   1.041
24627SOL    HW175714  10.163  11.612   1.036
24627SOL    HW275715  10.156  11.738   1.120
24628SOL     OW75716   5.129   0.554   9.002
24628SOL    HW175717   5.144   0.460   8.991
24628SOL    HW275718   5.051   0.560   9.058
24629SOL     OW75719   0.735  12.869  14.776
24629SOL    HW175720   0.718  12.779  14.747
24629SOL    HW275721   0.716  12.867  14.870
24630SOL     OW75722   8.582   6.194  13.224
24630SOL    HW175723   8.604   6.160  13.311
24630SOL    HW275724   8.493   6.228  13.234
24631SOL     OW75725   0.575   9.861   0.339
24631SOL    HW175726   0.486   9.868   0.375
24631SOL    HW275727   0.573   9.917   0.261
24632SOL     OW75728   8.902   0.529   7.736
24632SOL    HW175729   8.849   0.596   7.779
24632SOL    HW275730   8.844   0.491   7.670
24633SOL     OW75731  11.694  14.090   5.201
24633SOL    HW175732  11.662  13.999   5.198
24633SOL    HW275733  11.724  14.102   5.291
24634SOL     OW75734  12.616   2.938  13.404
24634SOL    HW175735  12.571   2.856  13.422
24634SOL    HW275736  12.634   2.976  13.490
24635SOL     OW75737  10.165   8.446  12.333
24635SOL    HW175738  10.130   8.507  12.398
24635SOL    HW275739  10.252   8.481  12.313
24636SOL     OW75740  14.283  11.185   5.611
24636SOL    HW175741  14.190  11.173   5.592
24636SOL    HW275742  14.291  11.172   5.705
24637SOL     OW75743   6.186   2.293  12.231
24637SOL    HW175744   6.200   2.343  12.310
24637SOL    HW275745   6.146   2.211  12.261
24638SOL     OW75746   5.692  11.431   2.858
24638SOL    HW175747   5.659  11.517   2.830
24638SOL    HW275748   5.624  11.369   2.831
24639SOL     OW75749   0.472  11.313   7.944
24639SOL    HW175750   0.484  11.341   7.854
24639SOL    HW275751   0.412  11.378   7.982
24640SOL     OW75752  12.231   7.283   5.016
24640SOL    HW175753  12.324   7.268   5.002
24640SOL    HW275754  12.224   7.309   5.108
24641SOL     OW75755   9.605   1.394   1.142
24641SOL    HW175756   9.622   1.472   1.194
24641SOL    HW275757   9.592   1.427   1.053
24642SOL     OW75758  13.007  10.103   2.417
24642SOL    HW175759  12.941  10.091   2.485
24642SOL    HW275760  13.090  10.109   2.466
24643SOL     OW75761   0.105  11.526  11.614
24643SOL    HW175762   0.083  11.618  11.598
24643SOL    HW275763   0.145  11.497  11.532
24644SOL     OW75764   5.005   4.012   7.948
24644SOL    HW175765   5.044   3.968   8.024
24644SOL    HW275766   4.911   4.000   7.960
24645SOL     OW75767   3.784  13.428   1.629
24645SOL    HW175768   3.810  13.518   1.650
24645SOL    HW275769   3.764  13.431   1.535
24646SOL     OW75770   7.523   4.786   3.126
24646SOL    HW175771   7.578   4.753   3.197
24646SOL    HW275772   7.567   4.866   3.097
24647SOL     OW75773   4.804   6.622  11.406
24647SOL    HW175774   4.830   6.686  11.472
24647SOL    HW275775   4.817   6.537  11.448
24648SOL     OW75776  14.436  13.029   6.244
24648SOL    HW175777  14.381  13.073   6.179
24648SOL    HW275778  14.442  12.939   6.214
24649SOL     OW75779  11.996  10.839  14.300
24649SOL    HW175780  12.072  10.889  14.273
24649SOL    HW275781  11.943  10.831  14.221
24650SOL     OW75782  14.623   5.496   3.476
24650SOL    HW175783  14.625   5.456   3.389
24650SOL    HW275784  14.540   5.467   3.514
24651SOL     OW75785   4.254   4.418  10.810
24651SOL    HW175786   4.305   4.337  10.809
24651SOL    HW275787   4.269   4.455  10.897
24652SOL     OW75788  13.932   5.132   0.457
24652SOL    HW175789  13.858   5.074   0.477
24652SOL    HW275790  13.935   5.135   0.362
24653SOL     OW75791   4.521   5.856   9.770
24653SOL    HW175792   4.607   5.897   9.772
24653SOL    HW275793   4.490   5.860   9.860
24654SOL     OW75794   1.359   9.675   4.300
24654SOL    HW175795   1.434   9.630   4.340
24654SOL    HW275796   1.283   9.633   4.340
24655SOL     OW75797   5.966   6.165   0.326
24655SOL    HW175798   5.907   6.117   0.383
24655SOL    HW275799   5.935   6.255   0.330
24656SOL     OW75800   8.952  10.908   2.927
24656SOL    HW175801   9.025  10.846   2.915
24656SOL    HW275802   8.876  10.852   2.944
24657SOL     OW75803  10.959   1.085   3.691
24657SOL    HW175804  11.014   1.062   3.765
24657SOL    HW275805  11.021   1.108   3.621
24658SOL     OW75806   8.590   2.747   2.940
24658SOL    HW175807   8.545   2.697   3.008
24658SOL    HW275808   8.668   2.696   2.920
24659SOL     OW75809  13.292   9.409   7.651
24659SOL    HW175810  13.251   9.492   7.629
24659SOL    HW275811  13.321   9.419   7.741
24660SOL     OW75812  14.220   8.739   6.100
24660SOL    HW175813  14.291   8.686   6.136
24660SOL    HW275814  14.167   8.764   6.175
24661SOL     OW75815   9.053   4.352   1.253
24661SOL    HW175816   9.136   4.394   1.233
24661SOL    HW275817   9.002   4.357   1.172
24662SOL     OW75818  14.695   3.060  10.072
24662SOL    HW175819  14.783   3.093  10.093
24662SOL    HW275820  14.669   3.012  10.151
24663SOL     OW75821   9.349  11.391   6.434
24663SOL    HW175822   9.262  11.353   6.445
24663SOL    HW275823   9.409  11.317   6.443
24664SOL     OW75824  11.978   5.298   1.204
24664SOL    HW175825  11.888   5.308   1.171
24664SOL    HW275826  12.032   5.345   1.140
24665SOL     OW75827  13.443  13.207  10.031
24665SOL    HW175828  13.350  13.226  10.041
24665SOL    HW275829  13.446  13.134   9.969
24666SOL     OW75830   0.025  12.655  11.674
24666SOL    HW175831  14.810  12.639  11.664
24666SOL    HW275832   0.052  12.598  11.745
24667SOL     OW75833  12.312  14.294  11.508
24667SOL    HW175834  12.265  14.329  11.433
24667SOL    HW275835  12.256  14.224  11.542
24668SOL     OW75836   9.608   0.520  12.371
24668SOL    HW175837   9.651   0.458  12.313
24668SOL    HW275838   9.621   0.484  12.459
24669SOL     OW75839   3.305  10.456   4.496
24669SOL    HW175840   3.362  10.386   4.526
24669SOL    HW275841   3.219  10.414   4.484
24670SOL     OW75842   0.487   7.558  11.361
24670SOL    HW175843   0.426   7.485  11.370
24670SOL    HW275844   0.431   7.636  11.363
24671SOL     OW75845   2.648  14.701  11.340
24671SOL    HW175846   2.742  14.718  11.350
24671SOL    HW275847   2.637  14.611  11.371
24672SOL     OW75848  13.326   7.073   6.615
24672SOL    HW175849  13.247   7.124   6.600
24672SOL    HW275850  13.380   7.090   6.538
24673SOL     OW75851  12.836   7.870  13.022
24673SOL    HW175852  12.795   7.944  13.066
24673SOL    HW275853  12.900   7.911  12.963
24674SOL     OW75854  13.363   2.402   1.772
24674SOL    HW175855  13.380   2.347   1.849
24674SOL    HW275856  13.449   2.419   1.735
24675SOL     OW75857  10.469  13.039   5.376
24675SOL    HW175858  10.507  13.126   5.381
24675SOL    HW275859  10.513  12.989   5.445
24676SOL     OW75860   3.779  11.210   7.935
24676SOL    HW175861   3.704  11.185   7.988
24676SOL    HW275862   3.755  11.184   7.846
24677SOL     OW75863  10.292   8.069   9.561
24677SOL    HW175864  10.289   8.049   9.654
24677SOL    HW275865  10.205   8.045   9.528
24678SOL     OW75866  10.399  13.620   2.524
24678SOL    HW175867  10.376  13.710   2.548
24678SOL    HW275868  10.493  13.622   2.508
24679SOL     OW75869   8.557   9.499   4.665
24679SOL    HW175870   8.616   9.542   4.727
24679SOL    HW275871   8.481   9.557   4.660
24680SOL     OW75872   6.768  13.704   7.441
24680SOL    HW175873   6.849  13.689   7.490
24680SOL    HW275874   6.710  13.632   7.467
24681SOL     OW75875   5.304  10.539   1.252
24681SOL    HW175876   5.400  10.534   1.260
24681SOL    HW275877   5.286  10.499   1.167
24682SOL     OW75878   8.471   5.908   7.756
24682SOL    HW175879   8.376   5.908   7.749
24682SOL    HW275880   8.495   6.001   7.756
24683SOL     OW75881   3.755   1.907   3.117
24683SOL    HW175882   3.736   1.823   3.159
24683SOL    HW275883   3.830   1.889   3.060
24684SOL     OW75884  14.794  10.502   3.575
24684SOL    HW175885  14.766  10.576   3.521
24684SOL    HW275886  14.785  10.426   3.518
24685SOL     OW75887   4.230   0.232   4.988
24685SOL    HW175888   4.205   0.304   4.930
24685SOL    HW275889   4.296   0.271   5.046
24686SOL     OW75890   0.453   0.995   9.267
24686SOL    HW175891   0.380   1.056   9.282
24686SOL    HW275892   0.431   0.951   9.185
24687SOL     OW75893  10.660   1.327   5.023
24687SOL    HW175894  10.601   1.395   4.990
24687SOL    HW275895  10.694   1.284   4.945
24688SOL     OW75896  13.984  10.662  14.378
24688SOL    HW175897  13.957  10.615  14.299
24688SOL    HW275898  13.909  10.657  14.437
24689SOL     OW75899   3.432   5.671  13.056
24689SOL    HW175900   3.386   5.601  13.010
24689SOL    HW275901   3.366   5.739  13.068
24690SOL     OW75902  12.647   9.707  12.130
24690SOL    HW175903  12.656   9.612  12.145
24690SOL    HW275904  12.737   9.738  12.121
24691SOL     OW75905   4.295  12.322   4.645
24691SOL    HW175906   4.206  12.357   4.652
24691SOL    HW275907   4.334  12.374   4.574
24692SOL     OW75908   0.627   9.046   9.030
24692SOL    HW175909   0.636   8.953   9.053
24692SOL    HW275910   0.700   9.063   8.971
24693SOL     OW75911   3.788  12.221   5.582
24693SOL    HW175912   3.717  12.158   5.588
24693SOL    HW275913   3.868  12.171   5.600
24694SOL     OW75914   1.467   9.561   9.931
24694SOL    HW175915   1.485   9.655   9.933
24694SOL    HW275916   1.550   9.522   9.902
24695SOL     OW75917   1.155  13.751  13.334
24695SOL    HW175918   1.121  13.668  13.366
24695SOL    HW275919   1.209  13.785  13.406
24696SOL     OW75920   7.497  12.125   5.627
24696SOL    HW175921   7.582  12.110   5.668
24696SOL    HW275922   7.481  12.045   5.576
24697SOL     OW75923  13.525   6.799   8.077
24697SOL    HW175924  13.611   6.776   8.113
24697SOL    HW275925  13.537   6.796   7.983
24698SOL     OW75926   6.701   7.004   6.093
24698SOL    HW175927   6.663   7.091   6.076
24698SOL    HW275928   6.688   6.990   6.187
24699SOL     OW75929  12.895  13.649   0.340
24699SOL    HW175930  12.974  13.614   0.381
24699SOL    HW275931  12.877  13.729   0.389
24700SOL     OW75932   9.317  10.469   4.711
24700SOL    HW175933   9.358  10.441   4.792
24700SOL    HW275934   9.254  10.536   4.737
24701SOL     OW75935  13.312  14.199  14.118
24701SOL    HW175936  13.262  14.121  14.142
24701SOL    HW275937  13.403  14.177  14.139
24702SOL     OW75938  14.020   5.396  10.828
24702SOL    HW175939  13.992   5.309  10.856
24702SOL    HW275940  13.963   5.456  10.876
24703SOL     OW75941   6.281   3.991   8.940
24703SOL    HW175942   6.375   3.994   8.921
24703SOL    HW275943   6.270   4.049   9.016
24704SOL     OW75944   0.789  14.341  12.636
24704SOL    HW175945   0.771  14.391  12.716
24704SOL    HW275946   0.884  14.328  12.637
24705SOL     OW75947  10.118   9.064   7.375
24705SOL    HW175948  10.055   9.050   7.304
24705SOL    HW275949  10.120   8.981   7.423
24706SOL     OW75950   1.845  10.474   0.537
24706SOL    HW175951   1.894  10.487   0.618
24706SOL    HW275952   1.826  10.380   0.535
24707SOL     OW75953   7.223   3.627   4.316
24707SOL    HW175954   7.160   3.641   4.387
24707SOL    HW275955   7.221   3.532   4.300
24708SOL     OW75956  12.926  11.708   2.407
24708SOL    HW175957  12.836  11.720   2.436
24708SOL    HW275958  12.978  11.713   2.488
24709SOL     OW75959   2.539   4.722  12.912
24709SOL    HW175960   2.562   4.761  12.996
24709SOL    HW275961   2.601   4.650  12.900
24710SOL     OW75962   2.034   6.952   4.211
24710SOL    HW175963   1.972   6.885   4.238
24710SOL    HW275964   2.060   6.926   4.123
24711SOL     OW75965   4.417   0.313   3.737
24711SOL    HW175966   4.388   0.325   3.827
24711SOL    HW275967   4.502   0.270   3.745
24712SOL     OW75968   5.361  12.253   9.847
24712SOL    HW175969   5.325  12.328   9.895
24712SOL    HW275970   5.332  12.266   9.757
24713SOL     OW75971  11.512  10.505  13.196
24713SOL    HW175972  11.493  10.575  13.258
24713SOL    HW275973  11.475  10.535  13.113
24714SOL     OW75974   5.682  12.786   5.661
24714SOL    HW175975   5.637  12.863   5.695
24714SOL    HW275976   5.709  12.811   5.572
24715SOL     OW75977   5.933   8.011   7.793
24715SOL    HW175978   5.949   7.942   7.858
24715SOL    HW275979   5.995   7.993   7.723
24716SOL     OW75980   9.476  13.457   7.572
24716SOL    HW175981   9.402  13.408   7.535
24716SOL    HW275982   9.550  13.436   7.515
24717SOL     OW75983   8.464  13.911   8.093
24717SOL    HW175984   8.371  13.893   8.077
24717SOL    HW275985   8.472  14.006   8.082
24718SOL     OW75986   5.232   8.237  12.597
24718SOL    HW175987   5.173   8.179  12.645
24718SOL    HW275988   5.215   8.324  12.634
24719SOL     OW75989  14.660  12.895   9.022
24719SOL    HW175990  14.663  12.868   8.931
24719SOL    HW275991  14.677  12.989   9.020
24720SOL     OW75992  11.159   8.204   8.140
24720SOL    HW175993  11.087   8.253   8.180
24720SOL    HW275994  11.225   8.271   8.120
24721SOL     OW75995   3.067   2.274   9.292
24721SOL    HW175996   2.980   2.244   9.267
24721SOL    HW275997   3.059   2.369   9.298
24722SOL     OW75998  13.959  12.161   4.642
24722SOL    HW175999  13.903  12.087   4.618
24722SOL    HW276000  14.001  12.186   4.560
24723SOL     OW76001   3.559  10.187   5.365
24723SOL    HW176002   3.527  10.269   5.329
24723SOL    HW276003   3.641  10.209   5.408
24724SOL     OW76004  11.333   0.980   6.167
24724SOL    HW176005  11.263   0.995   6.103
24724SOL    HW276006  11.290   0.991   6.252
24725SOL     OW76007   4.539   5.650  14.739
24725SOL    HW176008   4.584   5.734  14.742
24725SOL    HW276009   4.468   5.662  14.677
24726SOL     OW76010   8.572   9.363  14.724
24726SOL    HW176011   8.601   9.337  14.811
24726SOL    HW276012   8.476   9.363  14.730
24727SOL     OW76013  13.137   6.367   0.399
24727SOL    HW176014  13.115   6.309   0.326
24727SOL    HW276015  13.233   6.370   0.399
24728SOL     OW76016  13.764   7.700   8.834
24728SOL    HW176017  13.812   7.617   8.836
24728SOL    HW276018  13.802   7.751   8.906
24729SOL     OW76019  14.257  13.836   3.816
24729SOL    HW176020  14.190  13.875   3.872
24729SOL    HW276021  14.284  13.757   3.863
24730SOL     OW76022   4.873   0.906  10.217
24730SOL    HW176023   4.883   0.865  10.303
24730SOL    HW276024   4.853   0.833  10.158
24731SOL     OW76025   7.360  11.547   8.933
24731SOL    HW176026   7.361  11.451   8.926
24731SOL    HW276027   7.354  11.564   9.026
24732SOL     OW76028   5.115  11.848  10.099
24732SOL    HW176029   5.132  11.911  10.030
24732SOL    HW276030   5.123  11.763  10.057
24733SOL     OW76031  12.202  14.016   9.555
24733SOL    HW176032  12.250  13.938   9.527
24733SOL    HW276033  12.156  13.989   9.634
24734SOL     OW76034  12.226   9.686   4.518
24734SOL    HW176035  12.310   9.730   4.505
24734SOL    HW276036  12.162   9.748   4.483
24735SOL     OW76037  10.574  11.876   2.903
24735SOL    HW176038  10.497  11.827   2.933
24735SOL    HW276039  10.569  11.873   2.808
24736SOL     OW76040   4.281   2.509   2.343
24736SOL    HW176041   4.272   2.563   2.422
24736SOL    HW276042   4.198   2.462   2.337
24737SOL     OW76043   6.456   4.834   5.479
24737SOL    HW176044   6.524   4.875   5.532
24737SOL    HW276045   6.374   4.871   5.510
24738SOL     OW76046   1.870   8.153   9.254
24738SOL    HW176047   1.798   8.098   9.286
24738SOL    HW276048   1.840   8.243   9.268
24739SOL     OW76049   4.293   8.962  11.336
24739SOL    HW176050   4.374   9.004  11.308
24739SOL    HW276051   4.226   8.995  11.276
24740SOL     OW76052   4.696  10.313  10.071
24740SOL    HW176053   4.646  10.336   9.993
24740SOL    HW276054   4.744  10.392  10.094
24741SOL     OW76055   3.512   5.464  11.828
24741SOL    HW176056   3.471   5.535  11.779
24741SOL    HW276057   3.567   5.420  11.764
24742SOL     OW76058   2.693   1.296  10.034
24742SOL    HW176059   2.777   1.343  10.029
24742SOL    HW276060   2.712   1.220  10.089
24743SOL     OW76061   6.545   2.233  12.202
24743SOL    HW176062   6.528   2.328  12.199
24743SOL    HW276063   6.552   2.207  12.111
24744SOL     OW76064  11.684  14.447   4.872
24744SOL    HW176065  11.677  14.355   4.847
24744SOL    HW276066  11.763  14.452   4.925
24745SOL     OW76067   2.922  13.725   0.897
24745SOL    HW176068   2.834  13.688   0.909
24745SOL    HW276069   2.938  13.719   0.803
24746SOL     OW76070   6.383  14.557   4.448
24746SOL    HW176071   6.445  14.619   4.485
24746SOL    HW276072   6.302  14.570   4.498
24747SOL     OW76073   1.434   2.888  12.932
24747SOL    HW176074   1.399   2.801  12.913
24747SOL    HW276075   1.427   2.935  12.849
24748SOL     OW76076  13.012   5.400   8.809
24748SOL    HW176077  13.033   5.375   8.719
24748SOL    HW276078  13.028   5.321   8.861
24749SOL     OW76079   2.479  10.288   8.782
24749SOL    HW176080   2.482  10.194   8.765
24749SOL    HW276081   2.463  10.295   8.877
24750SOL     OW76082  12.601  13.540   5.208
24750SOL    HW176083  12.666  13.533   5.139
24750SOL    HW276084  12.517  13.528   5.163
24751SOL     OW76085   2.021   8.497  13.367
24751SOL    HW176086   2.009   8.525  13.457
24751SOL    HW276087   1.948   8.437  13.350
24752SOL     OW76088   0.519   3.601  13.445
24752SOL    HW176089   0.521   3.620  13.539
24752SOL    HW276090   0.569   3.521  13.435
24753SOL     OW76091  13.609  14.361   3.547
24753SOL    HW176092  13.539  14.366   3.482
24753SOL    HW276093  13.662  14.287   3.520
24754SOL     OW76094   2.169  10.527   6.434
24754SOL    HW176095   2.139  10.438   6.419
24754SOL    HW276096   2.260  10.517   6.462
24755SOL     OW76097   4.264  14.039  11.657
24755SOL    HW176098   4.297  13.953  11.685
24755SOL    HW276099   4.330  14.070  11.595
24756SOL     OW76100   3.944   0.423  12.394
24756SOL    HW176101   3.923   0.486  12.324
24756SOL    HW276102   3.931   0.472  12.475
24757SOL     OW76103   8.880  12.251   1.449
24757SOL    HW176104   8.892  12.204   1.366
24757SOL    HW276105   8.786  12.245   1.466
24758SOL     OW76106   4.090   8.326   4.514
24758SOL    HW176107   4.044   8.257   4.467
24758SOL    HW276108   4.151   8.280   4.572
24759SOL     OW76109   0.620  12.127   8.814
24759SOL    HW176110   0.577  12.137   8.899
24759SOL    HW276111   0.678  12.202   8.808
24760SOL     OW76112   3.382  10.790   1.523
24760SOL    HW176113   3.407  10.846   1.597
24760SOL    HW276114   3.312  10.838   1.479
24761SOL     OW76115   4.946  10.783   7.658
24761SOL    HW176116   5.039  10.774   7.636
24761SOL    HW276117   4.942  10.770   7.753
24762SOL     OW76118   0.481  10.770   2.043
24762SOL    HW176119   0.411  10.731   2.094
24762SOL    HW276120   0.469  10.735   1.954
24763SOL     OW76121   7.250   8.429   1.218
24763SOL    HW176122   7.170   8.395   1.258
24763SOL    HW276123   7.308   8.353   1.214
24764SOL     OW76124  13.667   3.577   4.755
24764SOL    HW176125  13.692   3.584   4.847
24764SOL    HW276126  13.607   3.650   4.741
24765SOL     OW76127   6.152   1.610   2.030
24765SOL    HW176128   6.098   1.603   2.109
24765SOL    HW276129   6.090   1.603   1.958
24766SOL     OW76130   0.742  12.405  13.873
24766SOL    HW176131   0.805  12.430  13.805
24766SOL    HW276132   0.791  12.413  13.955
24767SOL     OW76133   8.715   2.831   3.937
24767SOL    HW176134   8.683   2.749   3.976
24767SOL    HW276135   8.810   2.819   3.931
24768SOL     OW76136   9.015  14.009   6.303
24768SOL    HW176137   9.093  14.046   6.344
24768SOL    HW276138   9.001  14.063   6.226
24769SOL     OW76139  11.222  12.945  11.696
24769SOL    HW176140  11.136  12.985  11.697
24769SOL    HW276141  11.211  12.867  11.641
24770SOL     OW76142   9.362   1.485   3.049
24770SOL    HW176143   9.410   1.549   2.998
24770SOL    HW276144   9.408   1.403   3.035
24771SOL     OW76145   3.247   9.015   9.490
24771SOL    HW176146   3.300   8.973   9.558
24771SOL    HW276147   3.203   8.943   9.445
24772SOL     OW76148   6.564   0.466  13.228
24772SOL    HW176149   6.565   0.460  13.132
24772SOL    HW276150   6.477   0.502  13.248
24773SOL     OW76151  11.846   3.772  11.639
24773SOL    HW176152  11.905   3.697  11.627
24773SOL    HW276153  11.786   3.768  11.564
24774SOL     OW76154   8.393   0.471   3.633
24774SOL    HW176155   8.351   0.421   3.703
24774SOL    HW276156   8.403   0.408   3.562
24775SOL     OW76157   3.861   0.662   9.075
24775SOL    HW176158   3.802   0.666   9.151
24775SOL    HW276159   3.839   0.739   9.024
24776SOL     OW76160  10.441  10.976  13.388
24776SOL    HW176161  10.374  10.968  13.457
24776SOL    HW276162  10.510  10.916  13.415
24777SOL     OW76163   9.245   3.184   0.240
24777SOL    HW176164   9.326   3.226   0.268
24777SOL    HW276165   9.178   3.221   0.297
24778SOL     OW76166   4.129   0.674   8.586
24778SOL    HW176167   4.201   0.735   8.570
24778SOL    HW276168   4.172   0.589   8.593
24779SOL     OW76169   4.195   1.496   0.506
24779SOL    HW176170   4.166   1.479   0.416
24779SOL    HW276171   4.217   1.410   0.541
24780SOL     OW76172   0.005   8.391  13.268
24780SOL    HW176173   0.026   8.480  13.298
24780SOL    HW276174  14.792   8.396  13.242
24781SOL     OW76175   7.623   8.836   3.509
24781SOL    HW176176   7.715   8.810   3.514
24781SOL    HW276177   7.576   8.762   3.548
24782SOL     OW76178   4.158  13.782   8.430
24782SOL    HW176179   4.074  13.773   8.384
24782SOL    HW276180   4.205  13.849   8.381
24783SOL     OW76181  11.329  12.025   9.801
24783SOL    HW176182  11.321  12.006   9.707
24783SOL    HW276183  11.409  11.980   9.827
24784SOL     OW76184   3.173  12.096   7.828
24784SOL    HW176185   3.160  12.149   7.906
24784SOL    HW276186   3.097  12.037   7.826
24785SOL     OW76187   1.837  12.571   2.397
24785SOL    HW176188   1.900  12.499   2.398
24785SOL    HW276189   1.889  12.649   2.377
24786SOL     OW76190  13.453   3.548   6.596
24786SOL    HW176191  13.523   3.482   6.589
24786SOL    HW276192  13.430   3.567   6.505
24787SOL     OW76193  10.028   0.315   1.475
24787SOL    HW176194   9.941   0.302   1.438
24787SOL    HW276195  10.029   0.406   1.505
24788SOL     OW76196   0.922   0.927  11.961
24788SOL    HW176197   0.990   0.868  11.994
24788SOL    HW276198   0.848   0.914  12.020
24789SOL     OW76199   2.853   3.175   6.855
24789SOL    HW176200   2.872   3.260   6.817
24789SOL    HW276201   2.797   3.194   6.930
24790SOL     OW76202  11.458  12.056  14.695
24790SOL    HW176203  11.465  12.008  14.777
24790SOL    HW276204  11.364  12.067  14.681
24791SOL     OW76205  12.609  14.841   0.034
24791SOL    HW176206  12.581  14.846  14.822
24791SOL    HW276207  12.683   0.022   0.040
24792SOL     OW76208  11.475   1.406   3.641
24792SOL    HW176209  11.457   1.499   3.629
24792SOL    HW276210  11.456   1.390   3.733
24793SOL     OW76211   6.427  11.013  14.650
24793SOL    HW176212   6.351  10.957  14.661
24793SOL    HW276213   6.446  11.011  14.557
24794SOL     OW76214   1.850  10.427  10.923
24794SOL    HW176215   1.930  10.452  10.969
24794SOL    HW276216   1.785  10.490  10.954
24795SOL     OW76217   5.817   4.786   0.382
24795SOL    HW176218   5.771   4.779   0.466
24795SOL    HW276219   5.906   4.757   0.401
24796SOL     OW76220   2.322   6.305  14.607
24796SOL    HW176221   2.274   6.252  14.544
24796SOL    HW276222   2.401   6.333  14.559
24797SOL     OW76223   8.328  13.578  12.928
24797SOL    HW176224   8.294  13.667  12.929
24797SOL    HW276225   8.255  13.524  12.897
24798SOL     OW76226  12.706   9.859  12.434
24798SOL    HW176227  12.733   9.877  12.524
24798SOL    HW276228  12.642   9.788  12.442
24799SOL     OW76229  11.004   2.036  10.557
24799SOL    HW176230  10.922   2.004  10.519
24799SOL    HW276231  11.029   2.111  10.503
24800SOL     OW76232   1.511  11.652   0.937
24800SOL    HW176233   1.465  11.632   0.856
24800SOL    HW276234   1.488  11.743   0.956
24801SOL     OW76235  11.328   2.094   5.674
24801SOL    HW176236  11.385   2.055   5.741
24801SOL    HW276237  11.240   2.064   5.696
24802SOL     OW76238   8.562   0.507   6.409
24802SOL    HW176239   8.554   0.453   6.488
24802SOL    HW276240   8.650   0.488   6.375
24803SOL     OW76241  10.360  14.060   6.758
24803SOL    HW176242  10.313  14.102   6.686
24803SOL    HW276243  10.447  14.042   6.722
24804SOL     OW76244  13.333   6.770   2.765
24804SOL    HW176245  13.248   6.802   2.737
24804SOL    HW276246  13.380   6.849   2.794
24805SOL     OW76247   3.021  10.312  12.793
24805SOL    HW176248   2.992  10.390  12.745
24805SOL    HW276249   3.032  10.245  12.726
24806SOL     OW76250   6.418   8.313  12.660
24806SOL    HW176251   6.328   8.307  12.692
24806SOL    HW276252   6.446   8.222  12.649
24807SOL     OW76253  11.607   0.733  14.214
24807SOL    HW176254  11.540   0.680  14.170
24807SOL    HW276255  11.619   0.809  14.157
24808SOL     OW76256   1.962  13.356   3.305
24808SOL    HW176257   1.954  13.265   3.333
24808SOL    HW276258   2.016  13.398   3.372
24809SOL     OW76259   7.043   8.145   1.764
24809SOL    HW176260   7.049   8.054   1.795
24809SOL    HW276261   6.953   8.171   1.784
24810SOL     OW76262   8.763   3.644   6.871
24810SOL    HW176263   8.850   3.684   6.876
24810SOL    HW276264   8.780   3.553   6.848
24811SOL     OW76265   9.182  13.255   7.218
24811SOL    HW176266   9.231  13.196   7.161
24811SOL    HW276267   9.119  13.199   7.263
24812SOL     OW76268   9.275   2.985   1.843
24812SOL    HW176269   9.349   2.934   1.810
24812SOL    HW276270   9.231   3.017   1.764
24813SOL     OW76271   4.033   0.349   6.300
24813SOL    HW176272   4.049   0.293   6.224
24813SOL    HW276273   4.059   0.296   6.375
24814SOL     OW76274   4.271   5.337   8.791
24814SOL    HW176275   4.244   5.413   8.843
24814SOL    HW276276   4.366   5.336   8.797
24815SOL     OW76277   1.805  13.538   6.245
24815SOL    HW176278   1.730  13.572   6.294
24815SOL    HW276279   1.838  13.467   6.298
24816SOL     OW76280   6.802   6.337   0.811
24816SOL    HW176281   6.719   6.373   0.780
24816SOL    HW276282   6.800   6.352   0.906
24817SOL     OW76283   7.956  14.361   2.616
24817SOL    HW176284   7.962  14.266   2.602
24817SOL    HW276285   7.929  14.397   2.532
24818SOL     OW76286  13.155   5.021   3.580
24818SOL    HW176287  13.156   5.114   3.555
24818SOL    HW276288  13.229   4.983   3.534
24819SOL     OW76289   9.391   1.524  10.191
24819SOL    HW176290   9.383   1.457  10.123
24819SOL    HW276291   9.481   1.515  10.223
24820SOL     OW76292   2.191   0.802   9.957
24820SOL    HW176293   2.175   0.708   9.957
24820SOL    HW276294   2.283   0.811   9.980
24821SOL     OW76295   1.628   3.686   0.569
24821SOL    HW176296   1.682   3.747   0.620
24821SOL    HW276297   1.691   3.626   0.530
24822SOL     OW76298   4.045   1.102   6.422
24822SOL    HW176299   4.128   1.149   6.423
24822SOL    HW276300   3.984   1.163   6.379
24823SOL     OW76301   2.587   1.509   5.094
24823SOL    HW176302   2.571   1.419   5.123
24823SOL    HW276303   2.582   1.561   5.175
24824SOL     OW76304   4.853   4.088   8.289
24824SOL    HW176305   4.813   4.030   8.225
24824SOL    HW276306   4.912   4.143   8.238
24825SOL     OW76307  11.939   5.819   2.485
24825SOL    HW176308  11.879   5.834   2.559
24825SOL    HW276309  11.967   5.906   2.458
24826SOL     OW76310  11.772   9.303  13.963
24826SOL    HW176311  11.794   9.282  13.872
24826SOL    HW276312  11.688   9.260  13.977
24827SOL     OW76313   1.199   1.211  12.255
24827SOL    HW176314   1.218   1.304  12.271
24827SOL    HW276315   1.121   1.193  12.308
24828SOL     OW76316   7.404  11.514   9.231
24828SOL    HW176317   7.435  11.605   9.233
24828SOL    HW276318   7.483  11.462   9.245
24829SOL     OW76319  10.406   6.492   1.365
24829SOL    HW176320  10.331   6.536   1.405
24829SOL    HW276321  10.461   6.466   1.439
24830SOL     OW76322   3.943   8.022   8.054
24830SOL    HW176323   3.883   8.091   8.081
24830SOL    HW276324   4.030   8.062   8.063
24831SOL     OW76325   5.855   7.121   7.598
24831SOL    HW176326   5.811   7.205   7.589
24831SOL    HW276327   5.806   7.062   7.540
24832SOL     OW76328   3.239  11.382   8.736
24832SOL    HW176329   3.163  11.340   8.694
24832SOL    HW276330   3.295  11.407   8.663
24833SOL     OW76331  12.683  12.996   8.669
24833SOL    HW176332  12.678  13.083   8.709
24833SOL    HW276333  12.658  13.010   8.578
24834SOL     OW76334  13.496  14.858   0.878
24834SOL    HW176335  13.412  14.820   0.904
24834SOL    HW276336  13.475   0.037   0.805
24835SOL     OW76337   0.520  12.051   9.092
24835SOL    HW176338   0.465  12.128   9.106
24835SOL    HW276339   0.462  11.985   9.055
24836SOL     OW76340   1.478  13.241   7.207
24836SOL    HW176341   1.398  13.205   7.246
24836SOL    HW276342   1.477  13.334   7.230
24837SOL     OW76343  11.632  11.868   5.194
24837SOL    HW176344  11.537  11.868   5.181
24837SOL    HW276345  11.645  11.841   5.285
24838SOL     OW76346  14.702   9.199   3.215
24838SOL    HW176347  14.710   9.152   3.299
24838SOL    HW276348  14.616   9.172   3.181
24839SOL     OW76349   6.119   1.297  10.873
24839SOL    HW176350   6.210   1.322  10.855
24839SOL    HW276351   6.108   1.212  10.830
24840SOL     OW76352   1.557   9.937  11.809
24840SOL    HW176353   1.488   9.910  11.748
24840SOL    HW276354   1.520  10.012  11.856
24841SOL     OW76355   4.871  11.115  14.478
24841SOL    HW176356   4.835  11.083  14.395
24841SOL    HW276357   4.961  11.081  14.479
24842SOL     OW76358   7.054   3.063   1.824
24842SOL    HW176359   7.129   3.105   1.865
24842SOL    HW276360   7.005   3.024   1.897
24843SOL     OW76361   0.969  11.401  13.292
24843SOL    HW176362   0.977  11.497  13.292
24843SOL    HW276363   0.990  11.376  13.382
24844SOL     OW76364   2.534  13.317   0.399
24844SOL    HW176365   2.603  13.357   0.346
24844SOL    HW276366   2.518  13.232   0.358
24845SOL     OW76367   4.259  14.624  14.018
24845SOL    HW176368   4.287  14.705  14.060
24845SOL    HW276369   4.168  14.640  13.992
24846SOL     OW76370   8.963   7.253  13.984
24846SOL    HW176371   8.985   7.229  13.894
24846SOL    HW276372   9.047   7.278  14.023
24847SOL     OW76373   2.454   9.859  11.578
24847SOL    HW176374   2.537   9.855  11.625
24847SOL    HW276375   2.413   9.774  11.594
24848SOL     OW76376   7.220   3.312   4.486
24848SOL    HW176377   7.140   3.275   4.450
24848SOL    HW276378   7.284   3.306   4.414
24849SOL     OW76379   9.836  13.723  11.015
24849SOL    HW176380   9.772  13.657  10.989
24849SOL    HW276381   9.906  13.716  10.950
24850SOL     OW76382   1.798   3.471   6.134
24850SOL    HW176383   1.869   3.521   6.174
24850SOL    HW276384   1.719   3.521   6.154
24851SOL     OW76385   2.490   0.515  12.061
24851SOL    HW176386   2.552   0.475  12.123
24851SOL    HW276387   2.543   0.533  11.983
24852SOL     OW76388  14.555   8.294  14.139
24852SOL    HW176389  14.650   8.295  14.147
24852SOL    HW276390  14.524   8.335  14.220
24853SOL     OW76391   9.548   0.325  11.855
24853SOL    HW176392   9.642   0.328  11.874
24853SOL    HW276393   9.542   0.281  11.770
24854SOL     OW76394   7.591   8.282   8.400
24854SOL    HW176395   7.658   8.268   8.333
24854SOL    HW276396   7.565   8.194   8.427
24855SOL     OW76397   9.225   5.078   0.214
24855SOL    HW176398   9.306   5.046   0.174
24855SOL    HW276399   9.234   5.173   0.214
24856SOL     OW76400  10.622   2.312  10.816
24856SOL    HW176401  10.540   2.346  10.780
24856SOL    HW276402  10.659   2.259  10.745
24857SOL     OW76403   7.538   3.413  11.101
24857SOL    HW176404   7.600   3.453  11.163
24857SOL    HW276405   7.578   3.429  11.015
24858SOL     OW76406   3.942   8.136   4.395
24858SOL    HW176407   3.915   8.056   4.440
24858SOL    HW276408   3.866   8.193   4.400
24859SOL     OW76409  14.594   5.013  12.753
24859SOL    HW176410  14.672   4.958  12.767
24859SOL    HW276411  14.523   4.951  12.739
24860SOL     OW76412  11.015   1.221   9.147
24860SOL    HW176413  10.931   1.189   9.112
24860SOL    HW276414  11.049   1.278   9.079
24861SOL     OW76415   3.125   2.627   6.106
24861SOL    HW176416   3.174   2.547   6.084
24861SOL    HW276417   3.142   2.686   6.033
24862SOL     OW76418   3.182  14.439   4.125
24862SOL    HW176419   3.093  14.403   4.123
24862SOL    HW276420   3.190  14.488   4.043
24863SOL     OW76421  13.874   6.698   6.341
24863SOL    HW176422  13.894   6.757   6.414
24863SOL    HW276423  13.875   6.755   6.264
24864SOL     OW76424  11.938   6.983   4.098
24864SOL    HW176425  11.928   7.044   4.171
24864SOL    HW276426  11.944   6.897   4.139
24865SOL     OW76427  11.630   0.025   5.805
24865SOL    HW176428  11.682  14.840   5.756
24865SOL    HW276429  11.565   0.057   5.742
24866SOL     OW76430   7.775  13.633   7.533
24866SOL    HW176431   7.691  13.646   7.578
24866SOL    HW276432   7.792  13.539   7.543
24867SOL     OW76433  14.626  11.396  11.338
24867SOL    HW176434  14.690  11.468  11.340
24867SOL    HW276435  14.633  11.354  11.424
24868SOL     OW76436   5.036  13.014   2.881
24868SOL    HW176437   5.087  13.086   2.844
24868SOL    HW276438   5.097  12.941   2.887
24869SOL     OW76439   1.454   8.559   3.471
24869SOL    HW176440   1.495   8.623   3.530
24869SOL    HW276441   1.524   8.496   3.451
24870SOL     OW76442  11.649  10.877   1.455
24870SOL    HW176443  11.612  10.889   1.368
24870SOL    HW276444  11.575  10.851   1.509
24871SOL     OW76445   9.838   1.609  13.874
24871SOL    HW176446   9.870   1.641  13.958
24871SOL    HW276447   9.808   1.688  13.829
24872SOL     OW76448  13.684   6.023  10.632
24872SOL    HW176449  13.597   6.042  10.597
24872SOL    HW276450  13.669   6.015  10.727
24873SOL     OW76451   3.207  14.113   3.970
24873SOL    HW176452   3.203  14.173   3.895
24873SOL    HW276453   3.292  14.130   4.010
24874SOL     OW76454  14.061   9.107   0.439
24874SOL    HW176455  14.070   9.200   0.416
24874SOL    HW276456  14.004   9.108   0.516
24875SOL     OW76457  14.721  10.083  12.278
24875SOL    HW176458  14.720  10.117  12.188
24875SOL    HW276459  14.814  10.073  12.299
24876SOL     OW76460  11.133  12.629   1.600
24876SOL    HW176461  11.188  12.693   1.555
24876SOL    HW276462  11.124  12.663   1.689
24877SOL     OW76463  11.718  12.969   5.908
24877SOL    HW176464  11.644  12.972   5.969
24877SOL    HW276465  11.764  13.052   5.923
24878SOL     OW76466  10.433  12.748  13.485
24878SOL    HW176467  10.435  12.782  13.575
24878SOL    HW276468  10.342  12.755  13.459
24879SOL     OW76469   7.118   1.452  11.078
24879SOL    HW176470   7.139   1.531  11.029
24879SOL    HW276471   7.023   1.446  11.075
24880SOL     OW76472  10.389   2.096   7.614
24880SOL    HW176473  10.375   2.176   7.563
24880SOL    HW276474  10.364   2.120   7.703
24881SOL     OW76475  10.419   1.245  11.856
24881SOL    HW176476  10.349   1.293  11.812
24881SOL    HW276477  10.499   1.293  11.834
24882SOL     OW76478   3.446  10.924   1.762
24882SOL    HW176479   3.451  10.930   1.858
24882SOL    HW276480   3.537  10.930   1.733
24883SOL     OW76481   7.972  11.977   0.021
24883SOL    HW176482   8.037  11.936   0.077
24883SOL    HW276483   7.950  11.910  14.834
24884SOL     OW76484   3.934   0.567  11.208
24884SOL    HW176485   3.874   0.642  11.205
24884SOL    HW276486   3.960   0.553  11.117
24885SOL     OW76487  14.360  13.980  10.162
24885SOL    HW176488  14.286  13.980  10.223
24885SOL    HW276489  14.327  13.934  10.085
24886SOL     OW76490   3.667   1.893   0.876
24886SOL    HW176491   3.678   1.918   0.784
24886SOL    HW276492   3.744   1.840   0.895
24887SOL     OW76493  10.722   8.576  10.495
24887SOL    HW176494  10.640   8.557  10.540
24887SOL    HW276495  10.787   8.582  10.564
24888SOL     OW76496  13.879  14.589  10.532
24888SOL    HW176497  13.869  14.684  10.526
24888SOL    HW276498  13.795  14.558  10.566
24889SOL     OW76499  14.067  13.053   1.307
24889SOL    HW176500  14.058  13.001   1.386
24889SOL    HW276501  13.977  13.069   1.278
24890SOL     OW76502   0.259  14.698   8.708
24890SOL    HW176503   0.345  14.679   8.745
24890SOL    HW276504   0.277  14.743   8.626
24891SOL     OW76505  11.906  10.148   0.603
24891SOL    HW176506  11.883  10.232   0.563
24891SOL    HW276507  11.990  10.162   0.645
24892SOL     OW76508   6.287  11.923   7.474
24892SOL    HW176509   6.310  12.003   7.522
24892SOL    HW276510   6.341  11.855   7.514
24893SOL     OW76511   8.838   6.767   7.648
24893SOL    HW176512   8.832   6.767   7.743
24893SOL    HW276513   8.927   6.740   7.629
24894SOL     OW76514   1.421   6.146   9.412
24894SOL    HW176515   1.335   6.113   9.386
24894SOL    HW276516   1.475   6.136   9.334
24895SOL     OW76517   1.338   5.619   2.971
24895SOL    HW176518   1.416   5.565   2.953
24895SOL    HW276519   1.264   5.563   2.947
24896SOL     OW76520   0.903   5.731   8.567
24896SOL    HW176521   0.940   5.643   8.563
24896SOL    HW276522   0.818   5.723   8.523
24897SOL     OW76523   7.657   0.211  13.036
24897SOL    HW176524   7.576   0.211  12.984
24897SOL    HW276525   7.647   0.134  13.092
24898SOL     OW76526   5.997  11.557   8.718
24898SOL    HW176527   6.071  11.586   8.664
24898SOL    HW276528   5.926  11.617   8.695
24899SOL     OW76529   0.755   9.274  11.519
24899SOL    HW176530   0.690   9.205  11.507
24899SOL    HW276531   0.818   9.238  11.581
24900SOL     OW76532   5.121  13.164   0.938
24900SOL    HW176533   5.216  13.179   0.934
24900SOL    HW276534   5.108  13.080   0.895
24901SOL     OW76535   5.597   6.866  13.375
24901SOL    HW176536   5.524   6.929  13.376
24901SOL    HW276537   5.624   6.860  13.466
24902SOL     OW76538   8.381  10.554   5.442
24902SOL    HW176539   8.440  10.618   5.401
24902SOL    HW276540   8.371  10.485   5.376
24903SOL     OW76541   7.993   6.329  13.026
24903SOL    HW176542   7.926   6.388  12.991
24903SOL    HW276543   7.944   6.260  13.071
24904SOL     OW76544   2.544   9.807   6.752
24904SOL    HW176545   2.457   9.810   6.712
24904SOL    HW276546   2.529   9.818   6.845
24905SOL     OW76547   3.474  12.207   9.343
24905SOL    HW176548   3.556  12.173   9.379
24905SOL    HW276549   3.501  12.273   9.279
24906SOL     OW76550   1.648   6.161   7.648
24906SOL    HW176551   1.575   6.100   7.651
24906SOL    HW276552   1.608   6.248   7.657
24907SOL     OW76553  14.068   6.466   2.757
24907SOL    HW176554  14.138   6.485   2.694
24907SOL    HW276555  14.023   6.390   2.720
24908SOL     OW76556   4.844   6.158   3.797
24908SOL    HW176557   4.893   6.101   3.857
24908SOL    HW276558   4.853   6.116   3.711
24909SOL     OW76559  10.506   0.806  11.774
24909SOL    HW176560  10.467   0.837  11.692
24909SOL    HW276561  10.432   0.785  11.830
24910SOL     OW76562  14.090  14.786   1.145
24910SOL    HW176563  14.160  14.794   1.209
24910SOL    HW276564  14.117  14.842   1.073
24911SOL     OW76565   3.582   6.998   0.634
24911SOL    HW176566   3.640   6.928   0.604
24911SOL    HW276567   3.569   6.980   0.727
24912SOL     OW76568   5.879   5.722   6.771
24912SOL    HW176569   5.928   5.752   6.695
24912SOL    HW276570   5.947   5.693   6.833
24913SOL     OW76571   8.598   3.882  12.956
24913SOL    HW176572   8.622   3.825  12.883
24913SOL    HW276573   8.661   3.860  13.025
24914SOL     OW76574  13.306  13.341   8.278
24914SOL    HW176575  13.261  13.263   8.245
24914SOL    HW276576  13.260  13.361   8.360
24915SOL     OW76577   2.228   4.971   2.015
24915SOL    HW176578   2.199   5.057   1.986
24915SOL    HW276579   2.260   4.985   2.104
24916SOL     OW76580   0.707   0.266  13.515
24916SOL    HW176581   0.713   0.345  13.569
24916SOL    HW276582   0.767   0.282  13.442
24917SOL     OW76583   5.870  13.619  12.591
24917SOL    HW176584   5.920  13.699  12.574
24917SOL    HW276585   5.805  13.645  12.656
24918SOL     OW76586   5.726   1.283   3.377
24918SOL    HW176587   5.671   1.250   3.306
24918SOL    HW276588   5.751   1.205   3.426
24919SOL     OW76589  10.088   8.334   3.013
24919SOL    HW176590  10.179   8.313   3.032
24919SOL    HW276591  10.074   8.304   2.923
24920SOL     OW76592  11.739   4.587   8.478
24920SOL    HW176593  11.794   4.564   8.554
24920SOL    HW276594  11.788   4.555   8.402
24921SOL     OW76595   7.144  14.503  11.611
24921SOL    HW176596   7.156  14.597  11.608
24921SOL    HW276597   7.060  14.491  11.654
24922SOL     OW76598   4.418   3.811   7.863
24922SOL    HW176599   4.461   3.772   7.787
24922SOL    HW276600   4.441   3.904   7.858
24923SOL     OW76601   9.007   1.729  11.070
24923SOL    HW176602   8.995   1.808  11.017
24923SOL    HW276603   8.917   1.699  11.087
24924SOL     OW76604   4.777  12.416   1.632
24924SOL    HW176605   4.853  12.360   1.647
24924SOL    HW276606   4.786  12.445   1.541
24925SOL     OW76607   3.497   8.581   2.413
24925SOL    HW176608   3.465   8.575   2.323
24925SOL    HW276609   3.581   8.626   2.405
24926SOL     OW76610   5.816  12.286   5.630
24926SOL    HW176611   5.790  12.372   5.663
24926SOL    HW276612   5.877  12.305   5.559
24927SOL     OW76613   7.622   4.021  10.727
24927SOL    HW176614   7.640   4.096  10.671
24927SOL    HW276615   7.580   3.957  10.670
24928SOL     OW76616  13.838   2.685  12.412
24928SOL    HW176617  13.817   2.643  12.329
24928SOL    HW276618  13.763   2.665  12.469
24929SOL     OW76619   6.123   4.707   0.026
24929SOL    HW176620   6.035   4.715  14.867
24929SOL    HW276621   6.151   4.797   0.042
24930SOL     OW76622   3.535  12.436   0.927
24930SOL    HW176623   3.516  12.526   0.955
24930SOL    HW276624   3.475  12.382   0.978
24931SOL     OW76625   5.898   5.137   5.353
24931SOL    HW176626   5.927   5.190   5.278
24931SOL    HW276627   5.804   5.127   5.340
24932SOL     OW76628   7.200  10.991  13.636
24932SOL    HW176629   7.180  10.911  13.588
24932SOL    HW276630   7.114  11.027  13.658
24933SOL     OW76631  12.495  11.353  11.791
24933SOL    HW176632  12.565  11.397  11.742
24933SOL    HW276633  12.524  11.262  11.797
24934SOL     OW76634  11.635   9.989   1.647
24934SOL    HW176635  11.685   9.911   1.621
24934SOL    HW276636  11.633   9.986   1.742
24935SOL     OW76637   3.525   9.242  14.359
24935SOL    HW176638   3.593   9.219  14.297
24935SOL    HW276639   3.506   9.335  14.342
24936SOL     OW76640  12.853  13.354  13.319
24936SOL    HW176641  12.821  13.372  13.232
24936SOL    HW276642  12.828  13.263  13.336
24937SOL     OW76643   7.309  14.294   4.709
24937SOL    HW176644   7.318  14.387   4.730
24937SOL    HW276645   7.312  14.291   4.613
24938SOL     OW76646  11.686   3.111   0.522
24938SOL    HW176647  11.745   3.178   0.557
24938SOL    HW276648  11.685   3.042   0.588
24939SOL     OW76649  11.272   5.454   7.178
24939SOL    HW176650  11.319   5.429   7.098
24939SOL    HW276651  11.191   5.494   7.146
24940SOL     OW76652   6.772  10.303  12.830
24940SOL    HW176653   6.777  10.335  12.920
24940SOL    HW276654   6.722  10.222  12.836
24941SOL     OW76655   7.062   1.693   8.538
24941SOL    HW176656   7.142   1.745   8.532
24941SOL    HW276657   7.092   1.603   8.548
24942SOL     OW76658  13.813  11.941   1.308
24942SOL    HW176659  13.842  11.872   1.248
24942SOL    HW276660  13.883  11.948   1.372
24943SOL     OW76661   9.609   9.481   3.480
24943SOL    HW176662   9.641   9.452   3.565
24943SOL    HW276663   9.532   9.427   3.464
24944SOL     OW76664  12.959   3.567  10.915
24944SOL    HW176665  13.023   3.551  10.845
24944SOL    HW276666  13.010   3.608  10.985
24945SOL     OW76667   0.615  14.155  14.562
24945SOL    HW176668   0.572  14.072  14.542
24945SOL    HW276669   0.613  14.161  14.657
24946SOL     OW76670   0.888  14.035   5.736
24946SOL    HW176671   0.829  13.972   5.695
24946SOL    HW276672   0.857  14.121   5.706
24947SOL     OW76673   5.571   9.827   5.409
24947SOL    HW176674   5.615   9.783   5.482
24947SOL    HW276675   5.514   9.760   5.371
24948SOL     OW76676   5.851  13.731   3.425
24948SOL    HW176677   5.858  13.824   3.444
24948SOL    HW276678   5.939  13.705   3.398
24949SOL     OW76679   3.815   9.771   8.879
24949SOL    HW176680   3.791   9.709   8.948
24949SOL    HW276681   3.891   9.818   8.915
24950SOL     OW76682   9.771  12.091  12.632
24950SOL    HW176683   9.691  12.144  12.631
24950SOL    HW276684   9.791  12.080  12.725
24951SOL     OW76685   8.461  11.258   2.775
24951SOL    HW176686   8.532  11.280   2.835
24951SOL    HW276687   8.505  11.236   2.693
24952SOL     OW76688  11.627   3.516   0.322
24952SOL    HW176689  11.646   3.449   0.256
24952SOL    HW276690  11.608   3.468   0.402
24953SOL     OW76691  11.108  14.128   2.519
24953SOL    HW176692  11.133  14.122   2.611
24953SOL    HW276693  11.189  14.155   2.474
24954SOL     OW76694   4.346  14.543   6.189
24954SOL    HW176695   4.255  14.517   6.202
24954SOL    HW276696   4.350  14.570   6.097
24955SOL     OW76697   5.913   0.325   2.373
24955SOL    HW176698   5.965   0.405   2.369
24955SOL    HW276699   5.977   0.255   2.359
24956SOL     OW76700   6.800   4.966  14.003
24956SOL    HW176701   6.718   4.917  14.014
24956SOL    HW276702   6.819   4.960  13.909
24957SOL     OW76703   3.698   0.969  14.238
24957SOL    HW176704   3.719   0.918  14.316
24957SOL    HW276705   3.780   0.975  14.189
24958SOL     OW76706   5.614  14.042  13.965
24958SOL    HW176707   5.526  14.044  14.002
24958SOL    HW276708   5.636  14.133  13.949
24959SOL     OW76709   4.546   3.351  10.923
24959SOL    HW176710   4.604   3.293  10.874
24959SOL    HW276711   4.580   3.439  10.905
24960SOL     OW76712   5.119   0.792  13.892
24960SOL    HW176713   5.102   0.875  13.848
24960SOL    HW276714   5.142   0.732  13.822
24961SOL     OW76715   0.305   5.986   3.219
24961SOL    HW176716   0.232   5.960   3.162
24961SOL    HW276717   0.313   6.081   3.206
24962SOL     OW76718  10.178   2.061   6.930
24962SOL    HW176719  10.201   2.150   6.904
24962SOL    HW276720  10.126   2.027   6.857
24963SOL     OW76721   4.421   4.916  12.208
24963SOL    HW176722   4.330   4.909  12.177
24963SOL    HW276723   4.440   4.829  12.242
24964SOL     OW76724   7.329  11.281   8.839
24964SOL    HW176725   7.354  11.224   8.911
24964SOL    HW276726   7.234  11.291   8.847
24965SOL     OW76727   7.075  14.875   6.507
24965SOL    HW176728   7.011  14.829   6.562
24965SOL    HW276729   7.148   0.014   6.566
24966SOL     OW76730   9.038   5.650   1.635
24966SOL    HW176731   8.988   5.670   1.556
24966SOL    HW276732   8.973   5.649   1.705
24967SOL     OW76733   5.594   6.511   9.280
24967SOL    HW176734   5.656   6.483   9.347
24967SOL    HW276735   5.564   6.430   9.239
24968SOL     OW76736   9.867   5.738  12.399
24968SOL    HW176737   9.845   5.655  12.357
24968SOL    HW276738   9.828   5.732  12.486
24969SOL     OW76739   1.345   2.691  10.274
24969SOL    HW176740   1.266   2.746  10.278
24969SOL    HW276741   1.319   2.609  10.315
24970SOL     OW76742   4.921  13.106   3.190
24970SOL    HW176743   4.955  13.125   3.103
24970SOL    HW276744   4.918  13.010   3.194
24971SOL     OW76745   6.327   5.760  12.528
24971SOL    HW176746   6.416   5.787  12.550
24971SOL    HW276747   6.277   5.842  12.530
24972SOL     OW76748  14.379   6.262  13.331
24972SOL    HW176749  14.332   6.197  13.383
24972SOL    HW276750  14.447   6.212  13.286
24973SOL     OW76751  11.387   6.750   4.334
24973SOL    HW176752  11.449   6.703   4.389
24973SOL    HW276753  11.313   6.690   4.324
24974SOL     OW76754   3.514   2.438   1.417
24974SOL    HW176755   3.461   2.396   1.485
24974SOL    HW276756   3.472   2.414   1.335
24975SOL     OW76757  14.149   1.060  12.821
24975SOL    HW176758  14.186   1.133  12.871
24975SOL    HW276759  14.129   0.994  12.888
24976SOL     OW76760   9.693   5.721  11.898
24976SOL    HW176761   9.777   5.676  11.893
24976SOL    HW276762   9.681   5.739  11.992
24977SOL     OW76763   7.180   8.737   4.244
24977SOL    HW176764   7.150   8.649   4.267
24977SOL    HW276765   7.194   8.734   4.150
24978SOL     OW76766  13.460   3.648   5.539
24978SOL    HW176767  13.444   3.558   5.510
24978SOL    HW276768  13.538   3.642   5.594
24979SOL     OW76769   5.728  10.291  14.044
24979SOL    HW176770   5.697  10.346  13.971
24979SOL    HW276771   5.670  10.214  14.042
24980SOL     OW76772   5.624   6.581  14.682
24980SOL    HW176773   5.536   6.545  14.690
24980SOL    HW276774   5.663   6.534  14.609
24981SOL     OW76775   6.010   3.027   3.436
24981SOL    HW176776   6.009   2.935   3.461
24981SOL    HW276777   6.102   3.052   3.437
24982SOL     OW76778   8.542   5.054   3.166
24982SOL    HW176779   8.555   5.028   3.075
24982SOL    HW276780   8.628   5.087   3.194
24983SOL     OW76781   4.300  12.310   6.556
24983SOL    HW176782   4.299  12.231   6.500
24983SOL    HW276783   4.274  12.278   6.642
24984SOL     OW76784   2.472   8.620   9.071
24984SOL    HW176785   2.386   8.644   9.107
24984SOL    HW276786   2.526   8.601   9.148
24985SOL     OW76787  11.371   7.307   6.438
24985SOL    HW176788  11.434   7.329   6.506
24985SOL    HW276789  11.372   7.382   6.378
24986SOL     OW76790  12.800   0.190  12.456
24986SOL    HW176791  12.716   0.199  12.411
24986SOL    HW276792  12.865   0.206  12.389
24987SOL     OW76793   4.292   9.190   5.354
24987SOL    HW176794   4.250   9.227   5.276
24987SOL    HW276795   4.325   9.105   5.324
24988SOL     OW76796   3.109  10.179  12.313
24988SOL    HW176797   3.019  10.188  12.281
24988SOL    HW276798   3.163  10.203  12.238
24989SOL     OW76799   1.253   1.352   9.331
24989SOL    HW176800   1.251   1.256   9.336
24989SOL    HW276801   1.210   1.372   9.248
24990SOL     OW76802   9.609   0.458  13.335
24990SOL    HW176803   9.677   0.502  13.285
24990SOL    HW276804   9.534   0.454  13.276
24991SOL     OW76805  10.234   4.964  14.325
24991SOL    HW176806  10.195   5.025  14.263
24991SOL    HW276807  10.240   4.881  14.277
24992SOL     OW76808   2.951   3.362   7.357
24992SOL    HW176809   3.011   3.418   7.406
24992SOL    HW276810   2.864   3.399   7.375
24993SOL     OW76811   9.782  12.923   7.743
24993SOL    HW176812   9.752  12.983   7.811
24993SOL    HW276813   9.832  12.857   7.791
24994SOL     OW76814   7.993   5.327  14.229
24994SOL    HW176815   8.006   5.273  14.307
24994SOL    HW276816   7.968   5.413  14.263
24995SOL     OW76817   6.570   0.188   0.012
24995SOL    HW176818   6.575   0.276  14.854
24995SOL    HW276819   6.502   0.145  14.839
24996SOL     OW76820   9.069   8.765   3.670
24996SOL    HW176821   9.038   8.675   3.659
24996SOL    HW276822   9.159   8.756   3.703
24997SOL     OW76823   9.539   3.158   4.466
24997SOL    HW176824   9.624   3.156   4.509
24997SOL    HW276825   9.550   3.101   4.389
24998SOL     OW76826  12.321   6.248   4.035
24998SOL    HW176827  12.280   6.328   4.070
24998SOL    HW276828  12.302   6.251   3.942
24999SOL     OW76829   1.937  10.079  10.373
24999SOL    HW176830   1.857  10.128  10.356
24999SOL    HW276831   1.965  10.047  10.287
25000SOL     OW76832  10.095   7.528  14.728
25000SOL    HW176833  10.080   7.491  14.641
25000SOL    HW276834  10.016   7.578  14.747
25001SOL     OW76835   4.757   4.206  14.424
25001SOL    HW176836   4.844   4.187  14.390
25001SOL    HW276837   4.731   4.126  14.470
25002SOL     OW76838  10.877   0.325   1.697
25002SOL    HW176839  10.888   0.357   1.608
25002SOL    HW276840  10.965   0.330   1.735
25003SOL     OW76841  13.489   1.006  14.354
25003SOL    HW176842  13.578   1.023  14.324
25003SOL    HW276843  13.468   0.920  14.319
25004SOL     OW76844  13.821  12.755   5.834
25004SOL    HW176845  13.828  12.842   5.796
25004SOL    HW276846  13.798  12.698   5.760
25005SOL     OW76847   6.338   1.287   5.214
25005SOL    HW176848   6.294   1.227   5.274
25005SOL    HW276849   6.415   1.316   5.262
25006SOL     OW76850   9.465   9.371  13.558
25006SOL    HW176851   9.558   9.384  13.576
25006SOL    HW276852   9.435   9.311  13.626
25007SOL     OW76853   3.166  10.333   7.131
25007SOL    HW176854   3.221  10.284   7.192
25007SOL    HW276855   3.169  10.282   7.049
25008SOL     OW76856  13.619  14.220  12.089
25008SOL    HW176857  13.629  14.299  12.036
25008SOL    HW276858  13.530  14.189  12.070
25009SOL     OW76859  12.209   8.122   2.679
25009SOL    HW176860  12.294   8.081   2.666
25009SOL    HW276861  12.182   8.094   2.766
25010SOL     OW76862   0.585   9.321  14.062
25010SOL    HW176863   0.598   9.412  14.038
25010SOL    HW276864   0.511   9.292  14.008
25011SOL     OW76865   6.187  14.402  11.981
25011SOL    HW176866   6.137  14.353  11.915
25011SOL    HW276867   6.278  14.383  11.962
25012SOL     OW76868   6.035   0.980   3.545
25012SOL    HW176869   6.082   0.947   3.468
25012SOL    HW276870   6.098   1.036   3.590
25013SOL     OW76871   2.601  12.871  12.875
25013SOL    HW176872   2.609  12.867  12.970
25013SOL    HW276873   2.507  12.872  12.859
25014SOL     OW76874  12.726   6.734   1.136
25014SOL    HW176875  12.773   6.817   1.139
25014SOL    HW276876  12.793   6.669   1.112
25015SOL     OW76877   2.252   3.936   1.853
25015SOL    HW176878   2.280   3.964   1.767
25015SOL    HW276879   2.332   3.935   1.906
25016SOL     OW76880  14.422   0.172   2.038
25016SOL    HW176881  14.373   0.182   1.956
25016SOL    HW276882  14.418   0.259   2.079
25017SOL     OW76883   2.272  14.345   1.963
25017SOL    HW176884   2.178  14.331   1.963
25017SOL    HW276885   2.283  14.440   1.955
25018SOL     OW76886   3.880   4.546   0.543
25018SOL    HW176887   3.918   4.475   0.491
25018SOL    HW276888   3.786   4.539   0.528
25019SOL     OW76889   1.834   6.124   2.457
25019SOL    HW176890   1.799   6.153   2.373
25019SOL    HW276891   1.768   6.151   2.521
25020SOL     OW76892   8.266  13.012   4.751
25020SOL    HW176893   8.255  12.986   4.842
25020SOL    HW276894   8.328  13.085   4.754
25021SOL     OW76895   6.710   1.794   2.036
25021SOL    HW176896   6.697   1.705   2.004
25021SOL    HW276897   6.700   1.849   1.958
25022SOL     OW76898  10.823   4.990   8.147
25022SOL    HW176899  10.832   5.058   8.080
25022SOL    HW276900  10.833   5.037   8.230
25023SOL     OW76901   8.911   7.526   4.189
25023SOL    HW176902   8.991   7.566   4.152
25023SOL    HW276903   8.840   7.563   4.137
25024SOL     OW76904   2.443   3.255   4.607
25024SOL    HW176905   2.469   3.266   4.698
25024SOL    HW276906   2.347   3.258   4.608
25025SOL     OW76907   6.896   2.439   4.180
25025SOL    HW176908   6.835   2.397   4.118
25025SOL    HW276909   6.979   2.444   4.132
25026SOL     OW76910   0.179   1.889  11.727
25026SOL    HW176911   0.134   1.889  11.642
25026SOL    HW276912   0.192   1.796  11.747
25027SOL     OW76913   0.987  12.479  14.870
25027SOL    HW176914   0.910  12.503   0.044
25027SOL    HW276915   1.061  12.507   0.044
25028SOL     OW76916   0.283   8.445   2.308
25028SOL    HW176917   0.267   8.353   2.331
25028SOL    HW276918   0.257   8.450   2.216
25029SOL     OW76919   9.180   2.832  14.642
25029SOL    HW176920   9.169   2.894  14.571
25029SOL    HW276921   9.217   2.754  14.601
25030SOL     OW76922  11.679   9.233   1.467
25030SOL    HW176923  11.683   9.324   1.496
25030SOL    HW276924  11.742   9.229   1.395
25031SOL     OW76925   8.395   6.114  10.094
25031SOL    HW176926   8.459   6.044  10.101
25031SOL    HW276927   8.412   6.155  10.010
25032SOL     OW76928   2.312   2.009  12.991
25032SOL    HW176929   2.272   2.059  13.062
25032SOL    HW276930   2.295   1.918  13.014
25033SOL     OW76931   8.857  10.220   0.347
25033SOL    HW176932   8.833  10.159   0.417
25033SOL    HW276933   8.826  10.178   0.267
25034SOL     OW76934  13.383  11.111   2.190
25034SOL    HW176935  13.348  11.024   2.206
25034SOL    HW276936  13.404  11.112   2.097
25035SOL     OW76937   3.947   3.460   0.686
25035SOL    HW176938   3.968   3.473   0.778
25035SOL    HW276939   3.962   3.367   0.670
25036SOL     OW76940   4.517  14.143   8.999
25036SOL    HW176941   4.521  14.188   8.915
25036SOL    HW276942   4.534  14.211   9.064
25037SOL     OW76943   5.776   1.710  13.291
25037SOL    HW176944   5.706   1.739  13.349
25037SOL    HW276945   5.731   1.677  13.213
25038SOL     OW76946   8.055   4.228  10.899
25038SOL    HW176947   8.123   4.211  10.963
25038SOL    HW276948   8.021   4.141  10.876
25039SOL     OW76949  14.001   2.641   8.316
25039SOL    HW176950  13.947   2.716   8.340
25039SOL    HW276951  13.999   2.585   8.394
25040SOL     OW76952   8.354   8.707   8.506
25040SOL    HW176953   8.271   8.746   8.479
25040SOL    HW276954   8.328   8.626   8.551
25041SOL     OW76955   4.072   1.241   6.812
25041SOL    HW176956   4.097   1.333   6.825
25041SOL    HW276957   4.147   1.192   6.848
25042SOL     OW76958  13.603  14.755   7.307
25042SOL    HW176959  13.646  14.707   7.236
25042SOL    HW276960  13.564  14.831   7.263
25043SOL     OW76961   1.209  14.518   6.981
25043SOL    HW176962   1.246  14.561   6.904
25043SOL    HW276963   1.259  14.436   6.990
25044SOL     OW76964   8.606   3.747   1.580
25044SOL    HW176965   8.557   3.689   1.638
25044SOL    HW276966   8.548   3.761   1.505
25045SOL     OW76967  12.312   8.877   9.245
25045SOL    HW176968  12.229   8.888   9.293
25045SOL    HW276969  12.307   8.940   9.174
25046SOL     OW76970   3.417   8.600  12.828
25046SOL    HW176971   3.480   8.578  12.760
25046SOL    HW276972   3.332   8.586  12.786
25047SOL     OW76973  11.435   2.383   1.477
25047SOL    HW176974  11.372   2.312   1.470
25047SOL    HW276975  11.420   2.437   1.399
25048SOL     OW76976   2.458   1.038   6.111
25048SOL    HW176977   2.546   1.014   6.141
25048SOL    HW276978   2.443   1.125   6.148
25049SOL     OW76979  13.542  14.279  10.783
25049SOL    HW176980  13.536  14.374  10.780
25049SOL    HW276981  13.497  14.249  10.704
25050SOL     OW76982   9.595   2.949   2.747
25050SOL    HW176983   9.577   2.890   2.674
25050SOL    HW276984   9.653   3.016   2.711
25051SOL     OW76985   8.944   1.966   1.454
25051SOL    HW176986   8.946   2.052   1.411
25051SOL    HW276987   8.993   1.909   1.396
25052SOL     OW76988   3.334  11.146  10.581
25052SOL    HW176989   3.338  11.166  10.675
25052SOL    HW276990   3.395  11.073  10.570
25053SOL     OW76991   1.198   9.556   7.742
25053SOL    HW176992   1.148   9.586   7.818
25053SOL    HW276993   1.253   9.486   7.776
25054SOL     OW76994   5.871  13.883   8.233
25054SOL    HW176995   5.957  13.858   8.268
25054SOL    HW276996   5.830  13.934   8.303
25055SOL     OW76997  12.086   4.744   7.851
25055SOL    HW176998  12.180   4.748   7.831
25055SOL    HW276999  12.044   4.776   7.771
25056SOL     OW77000  14.571  14.807   4.241
25056SOL    HW177001  14.659  14.769   4.235
25056SOL    HW277002  14.565  14.865   4.165
25057SOL     OW77003   7.340   2.429  10.108
25057SOL    HW177004   7.313   2.338  10.117
25057SOL    HW277005   7.422   2.435  10.156
25058SOL     OW77006   3.987   8.396   3.764
25058SOL    HW177007   3.964   8.315   3.809
25058SOL    HW277008   4.052   8.437   3.821
25059SOL     OW77009   1.832  13.188   3.878
25059SOL    HW177010   1.778  13.176   3.800
25059SOL    HW277011   1.881  13.106   3.886
25060SOL     OW77012   3.124   2.551   8.038
25060SOL    HW177013   3.182   2.497   8.092
25060SOL    HW277014   3.176   2.572   7.961
25061SOL     OW77015   4.671   3.214   8.433
25061SOL    HW177016   4.719   3.136   8.462
25061SOL    HW277017   4.739   3.274   8.402
25062SOL     OW77018  11.295   7.949   0.038
25062SOL    HW177019  11.311   7.858   0.016
25062SOL    HW277020  11.200   7.958   0.036
25063SOL     OW77021   0.644  10.295   5.421
25063SOL    HW177022   0.587  10.331   5.353
25063SOL    HW277023   0.589  10.232   5.468
25064SOL     OW77024  12.856   4.073  11.253
25064SOL    HW177025  12.930   4.087  11.312
25064SOL    HW277026  12.826   3.985  11.272
25065SOL     OW77027   5.288   3.287   1.328
25065SOL    HW177028   5.256   3.214   1.274
25065SOL    HW277029   5.379   3.297   1.302
25066SOL     OW77030   8.932   3.281   5.676
25066SOL    HW177031   8.929   3.251   5.767
25066SOL    HW277032   8.853   3.334   5.666
25067SOL     OW77033   0.537  14.113   5.460
25067SOL    HW177034   0.580  14.167   5.394
25067SOL    HW277035   0.561  14.154   5.544
25068SOL     OW77036   9.918   2.694   0.252
25068SOL    HW177037   9.884   2.660   0.169
25068SOL    HW277038   9.963   2.775   0.228
25069SOL     OW77039   8.996   1.078   1.302
25069SOL    HW177040   8.994   1.014   1.230
25069SOL    HW277041   8.908   1.073   1.340
25070SOL     OW77042  13.431  12.577  12.719
25070SOL    HW177043  13.377  12.604  12.645
25070SOL    HW277044  13.520  12.604  12.694
25071SOL     OW77045   6.641   0.049  13.738
25071SOL    HW177046   6.547   0.032  13.742
25071SOL    HW277047   6.664   0.081  13.825
25072SOL     OW77048   8.637  11.715  11.818
25072SOL    HW177049   8.707  11.652  11.838
25072SOL    HW277050   8.675  11.800  11.837
25073SOL     OW77051   2.360   7.256   0.130
25073SOL    HW177052   2.275   7.212   0.134
25073SOL    HW277053   2.396   7.247   0.218
25074SOL     OW77054  11.960   2.226  11.259
25074SOL    HW177055  11.915   2.288  11.202
25074SOL    HW277056  12.009   2.169  11.200
25075SOL     OW77057   0.991  11.060  11.936
25075SOL    HW177058   0.983  11.063  12.032
25075SOL    HW277059   0.997  11.152  11.910
25076SOL     OW77060   6.397   4.386  12.279
25076SOL    HW177061   6.315   4.343  12.255
25076SOL    HW277062   6.465   4.328  12.244
25077SOL     OW77063   2.399  10.232   0.988
25077SOL    HW177064   2.354  10.178   0.923
25077SOL    HW277065   2.393  10.182   1.070
25078SOL     OW77066   4.122   5.773   3.349
25078SOL    HW177067   4.197   5.732   3.306
25078SOL    HW277068   4.112   5.725   3.431
25079SOL     OW77069  14.144   7.599   4.023
25079SOL    HW177070  14.202   7.670   3.996
25079SOL    HW277071  14.169   7.525   3.967
25080SOL     OW77072   5.195   4.029  11.165
25080SOL    HW177073   5.120   4.052  11.110
25080SOL    HW277074   5.232   3.951  11.123
25081SOL     OW77075  10.307   9.451  13.544
25081SOL    HW177076  10.350   9.476  13.462
25081SOL    HW277077  10.275   9.362  13.528
25082SOL     OW77078   1.655  12.389   5.649
25082SOL    HW177079   1.727  12.422   5.702
25082SOL    HW277080   1.579  12.440   5.678
25083SOL     OW77081   6.115   5.407   5.852
25083SOL    HW177082   6.149   5.496   5.864
25083SOL    HW277083   6.080   5.382   5.938
25084SOL     OW77084   6.920   0.468   2.259
25084SOL    HW177085   6.827   0.467   2.239
25084SOL    HW277086   6.961   0.504   2.181
25085SOL     OW77087   3.568   6.330  13.120
25085SOL    HW177088   3.659   6.308  13.139
25085SOL    HW277089   3.526   6.341  13.205
25086SOL     OW77090   1.609   4.110   9.616
25086SOL    HW177091   1.636   4.027   9.655
25086SOL    HW277092   1.517   4.098   9.594
25087SOL     OW77093  11.451  12.757  10.006
25087SOL    HW177094  11.436  12.756   9.912
25087SOL    HW277095  11.386  12.697  10.042
25088SOL     OW77096   4.635  10.693   2.625
25088SOL    HW177097   4.663  10.656   2.541
25088SOL    HW277098   4.634  10.787   2.611
25089SOL     OW77099  12.414   7.421   8.979
25089SOL    HW177100  12.491   7.374   9.013
25089SOL    HW277101  12.448   7.472   8.906
25090SOL     OW77102   5.271   6.792   3.379
25090SOL    HW177103   5.239   6.714   3.335
25090SOL    HW277104   5.200   6.818   3.437
25091SOL     OW77105   1.158   1.306   5.884
25091SOL    HW177106   1.120   1.394   5.878
25091SOL    HW277107   1.247   1.321   5.915
25092SOL     OW77108   0.557   0.574   8.092
25092SOL    HW177109   0.552   0.645   8.028
25092SOL    HW277110   0.651   0.554   8.097
25093SOL     OW77111  14.354   1.013  12.245
25093SOL    HW177112  14.307   0.951  12.301
25093SOL    HW277113  14.287   1.071  12.211
25094SOL     OW77114   1.712   5.948  13.759
25094SOL    HW177115   1.762   5.956  13.840
25094SOL    HW277116   1.667   6.032  13.750
25095SOL     OW77117  11.443  10.895   6.541
25095SOL    HW177118  11.390  10.935   6.609
25095SOL    HW277119  11.433  10.801   6.554
25096SOL     OW77120   7.710   7.108   4.847
25096SOL    HW177121   7.693   7.083   4.757
25096SOL    HW277122   7.804   7.096   4.859
25097SOL     OW77123   0.647   4.890   6.772
25097SOL    HW177124   0.731   4.875   6.817
25097SOL    HW277125   0.620   4.804   6.742
25098SOL     OW77126   2.403   2.702   8.123
25098SOL    HW177127   2.402   2.744   8.209
25098SOL    HW277128   2.380   2.611   8.141
25099SOL     OW77129   3.109   8.862   5.106
25099SOL    HW177130   3.107   8.940   5.050
25099SOL    HW277131   3.177   8.881   5.171
25100SOL     OW77132   3.098  13.095   9.918
25100SOL    HW177133   3.092  13.000   9.914
25100SOL    HW277134   3.091  13.115  10.011
25101SOL     OW77135  13.645  13.002   0.256
25101SOL    HW177136  13.617  13.072   0.196
25101SOL    HW277137  13.582  12.931   0.241
25102SOL     OW77138   8.363  14.812   9.787
25102SOL    HW177139   8.342  14.812   9.880
25102SOL    HW277140   8.456  14.790   9.783
25103SOL     OW77141   2.686  11.309   4.221
25103SOL    HW177142   2.669  11.384   4.278
25103SOL    HW277143   2.670  11.232   4.276
25104SOL     OW77144   2.507   3.885   6.993
25104SOL    HW177145   2.501   3.819   6.925
25104SOL    HW277146   2.423   3.881   7.039
25105SOL     OW77147   9.380   6.833   1.842
25105SOL    HW177148   9.376   6.928   1.830
25105SOL    HW277149   9.344   6.819   1.930
25106SOL     OW77150   4.263  10.234   8.578
25106SOL    HW177151   4.315  10.203   8.652
25106SOL    HW277152   4.227  10.155   8.539
25107SOL     OW77153   5.832   6.653   3.676
25107SOL    HW177154   5.875   6.571   3.700
25107SOL    HW277155   5.777   6.630   3.601
25108SOL     OW77156   6.063   5.418   1.222
25108SOL    HW177157   6.029   5.463   1.144
25108SOL    HW277158   6.030   5.469   1.296
25109SOL     OW77159   2.443   1.152  11.332
25109SOL    HW177160   2.456   1.200  11.413
25109SOL    HW277161   2.498   1.074  11.341
25110SOL     OW77162  14.575   6.356   2.151
25110SOL    HW177163  14.555   6.316   2.235
25110SOL    HW277164  14.669   6.347   2.141
25111SOL     OW77165   1.560   2.656  14.125
25111SOL    HW177166   1.655   2.649  14.135
25111SOL    HW277167   1.523   2.605  14.197
25112SOL     OW77168   3.552  10.168   9.123
25112SOL    HW177169   3.590  10.120   9.049
25112SOL    HW277170   3.587  10.256   9.114
25113SOL     OW77171  14.448   4.155   1.323
25113SOL    HW177172  14.397   4.232   1.299
25113SOL    HW277173  14.533   4.191   1.350
25114SOL     OW77174  12.095   7.458  10.541
25114SOL    HW177175  12.059   7.544  10.522
25114SOL    HW277176  12.166   7.447  10.478
25115SOL     OW77177  12.545   1.437   1.732
25115SOL    HW177178  12.573   1.512   1.679
25115SOL    HW277179  12.502   1.476   1.808
25116SOL     OW77180   0.395   8.824  10.945
25116SOL    HW177181   0.363   8.911  10.923
25116SOL    HW277182   0.366   8.809  11.035
25117SOL     OW77183  12.494  14.476  10.296
25117SOL    HW177184  12.483  14.417  10.371
25117SOL    HW277185  12.412  14.526  10.292
25118SOL     OW77186   9.260   8.942   2.305
25118SOL    HW177187   9.184   8.883   2.299
25118SOL    HW277188   9.299   8.939   2.218
25119SOL     OW77189   6.524  14.737   8.109
25119SOL    HW177190   6.565  14.817   8.079
25119SOL    HW277191   6.465  14.712   8.038
25120SOL     OW77192   0.072   2.608  10.513
25120SOL    HW177193   0.106   2.519  10.525
25120SOL    HW277194   0.149   2.659  10.487
25121SOL     OW77195  10.803   2.231  13.128
25121SOL    HW177196  10.773   2.140  13.125
25121SOL    HW277197  10.839   2.248  13.041
25122SOL     OW77198   6.692   3.207   4.928
25122SOL    HW177199   6.657   3.275   4.985
25122SOL    HW277200   6.786   3.205   4.947
25123SOL     OW77201  11.460   8.972  12.624
25123SOL    HW177202  11.423   9.059  12.618
25123SOL    HW277203  11.552   8.983  12.600
25124SOL     OW77204   9.372   8.037   7.971
25124SOL    HW177205   9.368   7.978   7.896
25124SOL    HW277206   9.451   8.089   7.956
25125SOL     OW77207  10.627   6.010  12.141
25125SOL    HW177208  10.579   5.949  12.196
25125SOL    HW277209  10.657   5.958  12.067
25126SOL     OW77210  12.596   4.145  13.210
25126SOL    HW177211  12.610   4.220  13.151
25126SOL    HW277212  12.583   4.185  13.296
25127SOL     OW77213  11.370   6.510   8.157
25127SOL    HW177214  11.369   6.471   8.244
25127SOL    HW277215  11.324   6.593   8.167
25128SOL     OW77216   2.316   8.448   0.877
25128SOL    HW177217   2.297   8.454   0.970
25128SOL    HW277218   2.387   8.384   0.871
25129SOL     OW77219   6.824   2.110  12.840
25129SOL    HW177220   6.899   2.152  12.882
25129SOL    HW277221   6.813   2.158  12.758
25130SOL     OW77222   0.030   6.121   8.889
25130SOL    HW177223   0.051   6.194   8.831
25130SOL    HW277224   0.109   6.107   8.940
25131SOL     OW77225   1.906   6.790  10.366
25131SOL    HW177226   1.812   6.790  10.383
25131SOL    HW277227   1.941   6.723  10.425
25132SOL     OW77228  12.455   5.164   8.136
25132SOL    HW177229  12.379   5.212   8.104
25132SOL    HW277230  12.458   5.183   8.230
25133SOL     OW77231  13.596  12.202   1.659
25133SOL    HW177232  13.506  12.210   1.689
25133SOL    HW277233  13.633  12.131   1.712
25134SOL     OW77234  11.355   9.597  11.142
25134SOL    HW177235  11.339   9.635  11.229
25134SOL    HW277236  11.280   9.539  11.129
25135SOL     OW77237   9.611  14.190   6.910
25135SOL    HW177238   9.678  14.251   6.880
25135SOL    HW277239   9.530  14.241   6.911
25136SOL     OW77240   7.316   5.004   2.904
25136SOL    HW177241   7.279   4.916   2.900
25136SOL    HW277242   7.275   5.043   2.981
25137SOL     OW77243   5.407   5.674  14.413
25137SOL    HW177244   5.348   5.603  14.387
25137SOL    HW277245   5.490   5.630  14.431
25138SOL     OW77246  10.506   5.761  13.748
25138SOL    HW177247  10.479   5.852  13.750
25138SOL    HW277248  10.429   5.713  13.718
25139SOL     OW77249   2.622  13.906  14.020
25139SOL    HW177250   2.672  13.845  14.075
25139SOL    HW277251   2.630  13.870  13.931
25140SOL     OW77252   9.087  12.129   2.536
25140SOL    HW177253   9.100  12.152   2.444
25140SOL    HW277254   9.127  12.043   2.545
25141SOL     OW77255   0.907  11.408  10.901
25141SOL    HW177256   0.881  11.458  10.979
25141SOL    HW277257   1.002  11.398  10.911
25142SOL     OW77258   3.215   8.055   0.450
25142SOL    HW177259   3.308   8.033   0.452
25142SOL    HW277260   3.191   8.052   0.357
25143SOL     OW77261   8.765   2.219  14.477
25143SOL    HW177262   8.705   2.255  14.542
25143SOL    HW277263   8.750   2.124  14.481
25144SOL     OW77264   5.460   1.529  10.469
25144SOL    HW177265   5.497   1.448  10.503
25144SOL    HW277266   5.516   1.598  10.505
25145SOL     OW77267   7.882   7.123   1.745
25145SOL    HW177268   7.822   7.055   1.714
25145SOL    HW277269   7.849   7.147   1.831
25146SOL     OW77270  14.051   1.855  12.424
25146SOL    HW177271  14.023   1.765  12.410
25146SOL    HW277272  13.992   1.907  12.370
25147SOL     OW77273   2.031   1.777  12.329
25147SOL    HW177274   1.974   1.820  12.393
25147SOL    HW277275   2.118   1.809  12.350
25148SOL     OW77276   4.344   8.442   3.604
25148SOL    HW177277   4.313   8.470   3.518
25148SOL    HW277278   4.410   8.508   3.628
25149SOL     OW77279   8.618   9.255   9.492
25149SOL    HW177280   8.527   9.227   9.486
25149SOL    HW277281   8.630   9.278   9.584
25150SOL     OW77282   6.715  14.831   7.141
25150SOL    HW177283   6.655  14.863   7.209
25150SOL    HW277284   6.761  14.758   7.183
25151SOL     OW77285  13.619   9.773   5.051
25151SOL    HW177286  13.641   9.832   4.979
25151SOL    HW277287  13.702   9.734   5.077
25152SOL     OW77288   2.382   4.168   3.183
25152SOL    HW177289   2.357   4.252   3.143
25152SOL    HW277290   2.463   4.187   3.230
25153SOL     OW77291   5.798   8.481   7.650
25153SOL    HW177292   5.719   8.511   7.605
25153SOL    HW277293   5.849   8.561   7.666
25154SOL     OW77294  12.318   2.568   5.759
25154SOL    HW177295  12.254   2.639   5.763
25154SOL    HW277296  12.290   2.506   5.826
25155SOL     OW77297   3.981   8.079   9.271
25155SOL    HW177298   3.891   8.047   9.273
25155SOL    HW277299   3.976   8.169   9.302
25156SOL     OW77300  11.373   0.373  11.552
25156SOL    HW177301  11.338   0.336  11.471
25156SOL    HW277302  11.296   0.394  11.604
25157SOL     OW77303  11.808   1.289  13.991
25157SOL    HW177304  11.811   1.337  14.074
25157SOL    HW277305  11.830   1.199  14.014
25158SOL     OW77306  10.712   1.732  10.805
25158SOL    HW177307  10.679   1.815  10.771
25158SOL    HW277308  10.756   1.692  10.730
25159SOL     OW77309  13.498  10.461  13.499
25159SOL    HW177310  13.541  10.522  13.438
25159SOL    HW277311  13.406  10.484  13.494
25160SOL     OW77312   9.354   5.027   8.178
25160SOL    HW177313   9.417   4.958   8.200
25160SOL    HW277314   9.343   5.075   8.261
25161SOL     OW77315   4.254  14.610   5.054
25161SOL    HW177316   4.180  14.556   5.028
25161SOL    HW277317   4.301  14.628   4.972
25162SOL     OW77318  11.484   8.378   5.883
25162SOL    HW177319  11.506   8.288   5.857
25162SOL    HW277320  11.394   8.372   5.916
25163SOL     OW77321   3.220   9.932  11.650
25163SOL    HW177322   3.220   9.838  11.632
25163SOL    HW277323   3.128   9.956  11.652
25164SOL     OW77324   4.138   4.677   8.520
25164SOL    HW177325   4.120   4.765   8.488
25164SOL    HW277326   4.061   4.654   8.572
25165SOL     OW77327   0.370  12.060   3.253
25165SOL    HW177328   0.421  12.018   3.322
25165SOL    HW277329   0.337  11.987   3.200
25166SOL     OW77330   6.497   8.974   6.374
25166SOL    HW177331   6.530   9.013   6.293
25166SOL    HW277332   6.567   8.915   6.402
25167SOL     OW77333   4.726   8.703   4.529
25167SOL    HW177334   4.778   8.634   4.488
25167SOL    HW277335   4.762   8.710   4.618
25168SOL     OW77336  13.552  10.712   6.163
25168SOL    HW177337  13.576  10.627   6.199
25168SOL    HW277338  13.456  10.709   6.158
25169SOL     OW77339   3.482  11.011   8.005
25169SOL    HW177340   3.399  10.993   7.961
25169SOL    HW277341   3.459  11.068   8.078
25170SOL     OW77342   1.119   6.635  12.229
25170SOL    HW177343   1.057   6.609  12.297
25170SOL    HW277344   1.191   6.572  12.236
25171SOL     OW77345   5.734   0.913   6.350
25171SOL    HW177346   5.668   0.976   6.320
25171SOL    HW277347   5.689   0.829   6.353
25172SOL     OW77348  10.468  14.280   0.395
25172SOL    HW177349  10.541  14.246   0.344
25172SOL    HW277350  10.454  14.213   0.463
25173SOL     OW77351   6.502   2.602   2.759
25173SOL    HW177352   6.502   2.646   2.845
25173SOL    HW277353   6.593   2.576   2.745
25174SOL     OW77354  12.352   0.598   4.065
25174SOL    HW177355  12.312   0.664   4.007
25174SOL    HW277356  12.389   0.649   4.137
25175SOL     OW77357  13.355   3.938  12.275
25175SOL    HW177358  13.336   3.933  12.181
25175SOL    HW277359  13.279   3.984  12.312
25176SOL     OW77360   5.281   1.898   2.874
25176SOL    HW177361   5.343   1.826   2.866
25176SOL    HW277362   5.331   1.968   2.918
25177SOL     OW77363  13.995  13.634   5.521
25177SOL    HW177364  13.974  13.727   5.517
25177SOL    HW277365  13.918  13.591   5.484
25178SOL     OW77366   1.592   8.778   3.611
25178SOL    HW177367   1.550   8.826   3.682
25178SOL    HW277368   1.606   8.843   3.542
25179SOL     OW77369  10.873   7.635  10.880
25179SOL    HW177370  10.965   7.631  10.855
25179SOL    HW277371  10.856   7.729  10.891
25180SOL     OW77372   3.612   7.311   9.456
25180SOL    HW177373   3.595   7.321   9.362
25180SOL    HW277374   3.551   7.243   9.484
25181SOL     OW77375   0.494  14.066   8.318
25181SOL    HW177376   0.489  14.075   8.414
25181SOL    HW277377   0.451  13.982   8.300
25182SOL     OW77378  10.817   7.763  10.638
25182SOL    HW177379  10.821   7.819  10.560
25182SOL    HW277380  10.822   7.823  10.712
25183SOL     OW77381   1.660   6.893  11.179
25183SOL    HW177382   1.704   6.833  11.120
25183SOL    HW277383   1.729   6.925  11.237
25184SOL     OW77384  14.229   1.393   6.233
25184SOL    HW177385  14.323   1.406   6.243
25184SOL    HW277386  14.221   1.305   6.194
25185SOL     OW77387  11.017  13.240   9.135
25185SOL    HW177388  11.017  13.326   9.177
25185SOL    HW277389  10.926  13.213   9.135
25186SOL     OW77390   0.189   4.723   9.075
25186SOL    HW177391   0.098   4.754   9.075
25186SOL    HW277392   0.192   4.657   9.145
25187SOL     OW77393   0.824  12.484  12.671
25187SOL    HW177394   0.766  12.420  12.712
25187SOL    HW277395   0.775  12.515  12.595
25188SOL     OW77396   2.699   9.875  13.588
25188SOL    HW177397   2.696   9.961  13.545
25188SOL    HW277398   2.611   9.862  13.623
25189SOL     OW77399   7.718   3.603   7.865
25189SOL    HW177400   7.735   3.697   7.872
25189SOL    HW277401   7.798   3.562   7.897
25190SOL     OW77402  12.849  11.983   5.356
25190SOL    HW177403  12.865  12.052   5.292
25190SOL    HW277404  12.936  11.947   5.375
25191SOL     OW77405   2.842   3.274   9.292
25191SOL    HW177406   2.814   3.264   9.201
25191SOL    HW277407   2.761   3.295   9.339
25192SOL     OW77408   3.865  10.387  11.162
25192SOL    HW177409   3.930  10.429  11.219
25192SOL    HW277410   3.869  10.436  11.081
25193SOL     OW77411   2.914   9.622  11.091
25193SOL    HW177412   2.836   9.569  11.107
25193SOL    HW277413   2.988   9.566  11.115
25194SOL     OW77414   9.534  14.614   3.814
25194SOL    HW177415   9.440  14.606   3.830
25194SOL    HW277416   9.541  14.684   3.749
25195SOL     OW77417   8.814  10.335   6.408
25195SOL    HW177418   8.753  10.389   6.357
25195SOL    HW277419   8.771  10.324   6.493
25196SOL     OW77420  12.282  13.987   2.523
25196SOL    HW177421  12.261  14.020   2.436
25196SOL    HW277422  12.196  13.978   2.566
25197SOL     OW77423  14.674   3.186  12.052
25197SOL    HW177424  14.672   3.268  12.003
25197SOL    HW277425  14.760   3.185  12.094
25198SOL     OW77426   9.991  14.342   9.436
25198SOL    HW177427  10.051  14.309   9.369
25198SOL    HW277428   9.953  14.263   9.475
25199SOL     OW77429   2.650   6.850   1.757
25199SOL    HW177430   2.608   6.905   1.822
25199SOL    HW277431   2.727   6.900   1.728
25200SOL     OW77432  12.302   1.064  13.995
25200SOL    HW177433  12.386   1.110  13.991
25200SOL    HW277434  12.248   1.109  13.930
25201SOL     OW77435  12.855  14.173   6.950
25201SOL    HW177436  12.849  14.080   6.929
25201SOL    HW277437  12.926  14.206   6.895
25202SOL     OW77438  10.979  13.606   1.255
25202SOL    HW177439  10.939  13.613   1.342
25202SOL    HW277440  11.014  13.694   1.238
25203SOL     OW77441   7.756  10.491   4.867
25203SOL    HW177442   7.684  10.453   4.817
25203SOL    HW277443   7.811  10.534   4.802
25204SOL     OW77444   5.597   1.011  14.694
25204SOL    HW177445   5.578   1.064  14.617
25204SOL    HW277446   5.512   0.996  14.735
25205SOL     OW77447   2.504  11.820   6.317
25205SOL    HW177448   2.442  11.887   6.286
25205SOL    HW277449   2.479  11.741   6.269
25206SOL     OW77450  10.081   6.866  13.805
25206SOL    HW177451   9.988   6.863  13.830
25206SOL    HW277452  10.117   6.941  13.852
25207SOL     OW77453   0.190   2.600  14.293
25207SOL    HW177454   0.143   2.597  14.377
25207SOL    HW277455   0.277   2.633  14.315
25208SOL     OW77456  10.495   1.660   0.539
25208SOL    HW177457  10.553   1.606   0.485
25208SOL    HW277458  10.523   1.750   0.521
25209SOL     OW77459  14.350   2.807   4.576
25209SOL    HW177460  14.258   2.831   4.565
25209SOL    HW277461  14.389   2.882   4.623
25210SOL     OW77462   6.086   2.466   5.623
25210SOL    HW177463   6.177   2.464   5.655
25210SOL    HW277464   6.070   2.558   5.603
25211SOL     OW77465   5.540   1.340   4.047
25211SOL    HW177466   5.470   1.393   4.009
25211SOL    HW277467   5.619   1.391   4.030
25212SOL     OW77468   6.827  14.722  13.002
25212SOL    HW177469   6.804  14.653  12.939
25212SOL    HW277470   6.906  14.761  12.966
25213SOL     OW77471   9.260   0.743  11.022
25213SOL    HW177472   9.260   0.649  11.002
25213SOL    HW277473   9.297   0.748  11.110
25214SOL     OW77474   1.491  14.827   5.700
25214SOL    HW177475   1.553   0.018   5.679
25214SOL    HW277476   1.452  14.803   5.616
25215SOL     OW77477  10.648   0.711   7.712
25215SOL    HW177478  10.642   0.793   7.664
25215SOL    HW277479  10.731   0.673   7.684
25216SOL     OW77480   0.451  11.100  14.131
25216SOL    HW177481   0.407  11.177  14.168
25216SOL    HW277482   0.531  11.135  14.092
25217SOL     OW77483  12.452   7.200   1.848
25217SOL    HW177484  12.503   7.281   1.850
25217SOL    HW277485  12.377   7.218   1.904
25218SOL     OW77486   9.240   1.001   6.813
25218SOL    HW177487   9.178   0.957   6.755
25218SOL    HW277488   9.309   0.937   6.827
25219SOL     OW77489   0.137   7.812   2.897
25219SOL    HW177490   0.183   7.730   2.914
25219SOL    HW277491   0.072   7.818   2.966
25220SOL     OW77492   2.441  11.926   0.885
25220SOL    HW177493   2.453  11.959   0.795
25220SOL    HW277494   2.479  11.839   0.884
25221SOL     OW77495   9.776  11.855   0.259
25221SOL    HW177496   9.696  11.907   0.248
25221SOL    HW277497   9.774  11.826   0.350
25222SOL     OW77498   1.312  13.898   7.395
25222SOL    HW177499   1.333  13.828   7.457
25222SOL    HW277500   1.332  13.979   7.443
25223SOL     OW77501  12.640   3.175   9.095
25223SOL    HW177502  12.622   3.234   9.022
25223SOL    HW277503  12.587   3.098   9.077
25224SOL     OW77504   9.144  12.549   5.974
25224SOL    HW177505   9.168  12.602   5.898
25224SOL    HW277506   9.123  12.463   5.938
25225SOL     OW77507   5.752   4.211  13.547
25225SOL    HW177508   5.818   4.143  13.551
25225SOL    HW277509   5.789   4.284  13.596
25226SOL     OW77510  10.409   0.866   2.951
25226SOL    HW177511  10.397   0.791   3.008
25226SOL    HW277512  10.494   0.851   2.909
25227SOL     OW77513   5.303  11.691   8.947
25227SOL    HW177514   5.390  11.689   8.905
25227SOL    HW277515   5.243  11.710   8.875
25228SOL     OW77516  12.855   7.341   5.521
25228SOL    HW177517  12.940   7.334   5.565
25228SOL    HW277518  12.867   7.412   5.457
25229SOL     OW77519   3.954   6.734  10.072
25229SOL    HW177520   3.978   6.780  10.153
25229SOL    HW277521   4.025   6.671  10.059
25230SOL     OW77522   1.110   9.705   0.027
25230SOL    HW177523   1.064   9.622   0.014
25230SOL    HW277524   1.069   9.743   0.105
25231SOL     OW77525  12.592   4.229  14.846
25231SOL    HW177526  12.530   4.209  14.776
25231SOL    HW277527  12.562   4.177   0.042
25232SOL     OW77528   0.474   4.212  12.471
25232SOL    HW177529   0.532   4.179  12.539
25232SOL    HW277530   0.427   4.135  12.439
25233SOL     OW77531  12.922  12.368  10.183
25233SOL    HW177532  12.929  12.400  10.093
25233SOL    HW277533  12.924  12.447  10.237
25234SOL     OW77534   8.889   4.480   0.082
25234SOL    HW177535   8.955   4.414   0.103
25234SOL    HW277536   8.935   4.563   0.087
25235SOL     OW77537  14.309   0.087  14.506
25235SOL    HW177538  14.248   0.141  14.555
25235SOL    HW277539  14.313   0.128  14.419
25236SOL     OW77540   1.114   4.547   5.998
25236SOL    HW177541   1.128   4.636   6.029
25236SOL    HW277542   1.090   4.556   5.906
25237SOL     OW77543  14.399   6.045   9.356
25237SOL    HW177544  14.425   6.029   9.265
25237SOL    HW277545  14.418   5.962   9.401
25238SOL     OW77546  13.484   5.503   1.698
25238SOL    HW177547  13.570   5.519   1.660
25238SOL    HW277548  13.476   5.408   1.701
25239SOL     OW77549  11.532   1.253   5.831
25239SOL    HW177550  11.618   1.294   5.841
25239SOL    HW277551  11.536   1.210   5.745
25240SOL     OW77552   9.418   5.392  13.670
25240SOL    HW177553   9.378   5.475  13.698
25240SOL    HW277554   9.454   5.411  13.583
25241SOL     OW77555   1.687   7.742   8.240
25241SOL    HW177556   1.601   7.736   8.281
25241SOL    HW277557   1.694   7.662   8.187
25242SOL     OW77558  13.015   6.008   8.994
25242SOL    HW177559  13.037   6.068   9.065
25242SOL    HW277560  12.927   5.976   9.015
25243SOL     OW77561   6.212  14.056  14.682
25243SOL    HW177562   6.296  14.037  14.640
25243SOL    HW277563   6.147  14.040  14.614
25244SOL     OW77564   6.047   4.801   6.367
25244SOL    HW177565   6.007   4.760   6.444
25244SOL    HW277566   6.032   4.895   6.380
25245SOL     OW77567   7.293  13.169  12.089
25245SOL    HW177568   7.323  13.184  12.000
25245SOL    HW277569   7.294  13.255  12.131
25246SOL     OW77570  14.834   0.943  11.300
25246SOL    HW177571   0.022   0.980  11.243
25246SOL    HW277572  14.751   0.973  11.262
25247SOL     OW77573   0.452   7.688   9.331
25247SOL    HW177574   0.535   7.664   9.372
25247SOL    HW277575   0.431   7.613   9.274
25248SOL     OW77576  14.541  11.602  12.276
25248SOL    HW177577  14.586  11.539  12.333
25248SOL    HW277578  14.521  11.676  12.334
25249SOL     OW77579   3.040   2.362   4.902
25249SOL    HW177580   2.973   2.343   4.836
25249SOL    HW277581   2.991   2.393   4.978
25250SOL     OW77582   3.923  14.746  10.089
25250SOL    HW177583   3.863  14.810  10.129
25250SOL    HW277584   3.972  14.709  10.163
25251SOL     OW77585   9.536  12.829  11.724
25251SOL    HW177586   9.523  12.891  11.652
25251SOL    HW277587   9.471  12.761  11.708
25252SOL     OW77588   9.319  12.540   7.597
25252SOL    HW177589   9.228  12.511   7.596
25252SOL    HW277590   9.370  12.460   7.582
25253SOL     OW77591   1.604  14.616   2.875
25253SOL    HW177592   1.587  14.522   2.870
25253SOL    HW277593   1.699  14.623   2.865
25254SOL     OW77594   3.634  13.800   1.033
25254SOL    HW177595   3.612  13.743   1.107
25254SOL    HW277596   3.587  13.762   0.958
25255SOL     OW77597   0.274   1.515   8.686
25255SOL    HW177598   0.258   1.470   8.769
25255SOL    HW277599   0.243   1.604   8.701
25256SOL     OW77600   1.822  13.865  12.007
25256SOL    HW177601   1.908  13.828  11.984
25256SOL    HW277602   1.771  13.859  11.927
25257SOL     OW77603   1.841   6.305  13.238
25257SOL    HW177604   1.789   6.235  13.199
25257SOL    HW277605   1.853   6.278  13.329
25258SOL     OW77606  11.882   4.838   4.019
25258SOL    HW177607  11.898   4.895   4.094
25258SOL    HW277608  11.912   4.752   4.048
25259SOL     OW77609   3.000   1.514   7.648
25259SOL    HW177610   2.962   1.481   7.567
25259SOL    HW277611   2.957   1.599   7.662
25260SOL     OW77612   3.284   6.418  10.123
25260SOL    HW177613   3.243   6.394  10.040
25260SOL    HW277614   3.307   6.510  10.112
25261SOL     OW77615   5.007  14.313  14.830
25261SOL    HW177616   5.023  14.295  14.737
25261SOL    HW277617   4.951  14.241  14.859
25262SOL     OW77618   5.073   3.707   6.622
25262SOL    HW177619   5.122   3.699   6.540
25262SOL    HW277620   5.000   3.646   6.612
25263SOL     OW77621   0.202   7.146   8.594
25263SOL    HW177622   0.197   7.052   8.610
25263SOL    HW277623   0.206   7.185   8.682
25264SOL     OW77624   6.763   8.534   0.462
25264SOL    HW177625   6.785   8.451   0.503
25264SOL    HW277626   6.706   8.578   0.526
25265SOL     OW77627   7.520   6.619   6.369
25265SOL    HW177628   7.521   6.583   6.280
25265SOL    HW277629   7.448   6.683   6.368
25266SOL     OW77630   3.526   2.507  11.083
25266SOL    HW177631   3.470   2.494  11.160
25266SOL    HW277632   3.497   2.440  11.022
25267SOL     OW77633   3.121  13.175   5.622
25267SOL    HW177634   3.216  13.168   5.635
25267SOL    HW277635   3.106  13.140   5.534
25268SOL     OW77636  14.616   0.116   5.105
25268SOL    HW177637  14.579   0.188   5.156
25268SOL    HW277638  14.679   0.074   5.164
25269SOL     OW77639   8.551  13.452   7.374
25269SOL    HW177640   8.550  13.392   7.300
25269SOL    HW277641   8.595  13.404   7.444
25270SOL     OW77642  11.112   1.268   3.055
25270SOL    HW177643  11.109   1.198   3.120
25270SOL    HW277644  11.144   1.226   2.976
25271SOL     OW77645   3.400   7.301   1.697
25271SOL    HW177646   3.448   7.271   1.619
25271SOL    HW277647   3.357   7.222   1.731
25272SOL     OW77648  14.855   5.500   0.162
25272SOL    HW177649  14.801   5.556   0.217
25272SOL    HW277650   0.064   5.505   0.199
25273SOL     OW77651  11.367  10.290   1.686
25273SOL    HW177652  11.317  10.371   1.688
25273SOL    HW277653  11.405  10.287   1.598
25274SOL     OW77654  11.141  11.382  11.153
25274SOL    HW177655  11.080  11.398  11.225
25274SOL    HW277656  11.130  11.289  11.133
25275SOL     OW77657  12.877  11.510  12.821
25275SOL    HW177658  12.943  11.575  12.845
25275SOL    HW277659  12.802  11.531  12.877
25276SOL     OW77660   2.527   7.921   0.291
25276SOL    HW177661   2.587   7.977   0.242
25276SOL    HW277662   2.574   7.839   0.302
25277SOL     OW77663   8.345  10.473   2.976
25277SOL    HW177664   8.307  10.510   3.055
25277SOL    HW277665   8.293  10.394   2.959
25278SOL     OW77666  10.028   7.437  12.121
25278SOL    HW177667  10.047   7.359  12.173
25278SOL    HW277668  10.094   7.437  12.052
25279SOL     OW77669  11.749  12.346  12.312
25279SOL    HW177670  11.737  12.434  12.347
25279SOL    HW277671  11.767  12.359  12.218
25280SOL     OW77672   4.929   3.776   0.527
25280SOL    HW177673   4.954   3.748   0.439
25280SOL    HW277674   4.964   3.708   0.584
25281SOL     OW77675   4.247   1.314   3.986
25281SOL    HW177676   4.213   1.403   3.974
25281SOL    HW277677   4.310   1.303   3.915
25282SOL     OW77678   5.843   4.049   0.844
25282SOL    HW177679   5.781   3.978   0.857
25282SOL    HW277680   5.822   4.112   0.913
25283SOL     OW77681   9.170  10.205   4.634
25283SOL    HW177682   9.178  10.123   4.682
25283SOL    HW277683   9.226  10.266   4.683
25284SOL     OW77684  11.220  11.636  11.256
25284SOL    HW177685  11.222  11.669  11.167
25284SOL    HW277686  11.150  11.571  11.256
25285SOL     OW77687   0.119  13.874   4.794
25285SOL    HW177688   0.046  13.812   4.783
25285SOL    HW277689   0.091  13.952   4.746
25286SOL     OW77690  14.679   8.635   5.080
25286SOL    HW177691  14.709   8.669   4.996
25286SOL    HW277692  14.754   8.647   5.138
25287SOL     OW77693   4.185  12.285  13.594
25287SOL    HW177694   4.098  12.323  13.605
25287SOL    HW277695   4.175  12.221  13.523
25288SOL     OW77696  10.193   9.787   7.835
25288SOL    HW177697  10.197   9.692   7.840
25288SOL    HW277698  10.100   9.808   7.842
25289SOL     OW77699   1.172  13.094  13.781
25289SOL    HW177700   1.141  13.169  13.731
25289SOL    HW277701   1.095  13.038  13.791
25290SOL     OW77702   4.010   2.602   4.320
25290SOL    HW177703   4.053   2.619   4.404
25290SOL    HW277704   3.937   2.543   4.341
25291SOL     OW77705  11.341   5.593  11.248
25291SOL    HW177706  11.246   5.590  11.243
25291SOL    HW277707  11.371   5.530  11.183
25292SOL     OW77708   3.351   2.481   5.823
25292SOL    HW177709   3.387   2.569   5.838
25292SOL    HW277710   3.379   2.458   5.735
25293SOL     OW77711  10.393  13.834  11.568
25293SOL    HW177712  10.395  13.779  11.647
25293SOL    HW277713  10.442  13.784  11.503
25294SOL     OW77714   9.747  14.355  10.514
25294SOL    HW177715   9.754  14.266  10.479
25294SOL    HW277716   9.708  14.344  10.600
25295SOL     OW77717  14.017   8.555   8.059
25295SOL    HW177718  13.984   8.479   8.010
25295SOL    HW277719  14.094   8.582   8.010
25296SOL     OW77720   6.413   1.726   4.525
25296SOL    HW177721   6.399   1.807   4.574
25296SOL    HW277722   6.486   1.683   4.570
25297SOL     OW77723   4.109   6.871   4.654
25297SOL    HW177724   4.143   6.892   4.741
25297SOL    HW277725   4.124   6.950   4.603
25298SOL     OW77726   6.056   6.263   4.370
25298SOL    HW177727   5.962   6.277   4.358
25298SOL    HW277728   6.061   6.189   4.430
25299SOL     OW77729   4.620   3.751  13.502
25299SOL    HW177730   4.686   3.758  13.571
25299SOL    HW277731   4.661   3.695  13.435
25300SOL     OW77732   9.291  13.822   5.570
25300SOL    HW177733   9.338  13.792   5.492
25300SOL    HW277734   9.294  13.747   5.630
25301SOL     OW77735  14.530  13.442   3.516
25301SOL    HW177736  14.594  13.404   3.456
25301SOL    HW277737  14.534  13.386   3.593
25302SOL     OW77738   7.312  10.196   4.703
25302SOL    HW177739   7.318  10.286   4.669
25302SOL    HW277740   7.219  10.174   4.694
25303SOL     OW77741  11.399   7.945   0.964
25303SOL    HW177742  11.329   7.932   1.028
25303SOL    HW277743  11.437   8.029   0.987
25304SOL     OW77744   3.193  10.232   4.747
25304SOL    HW177745   3.287  10.251   4.737
25304SOL    HW277746   3.187  10.137   4.741
25305SOL     OW77747   6.083   6.224  12.010
25305SOL    HW177748   6.176   6.230  12.031
25305SOL    HW277749   6.039   6.235  12.094
25306SOL     OW77750   2.556   6.365   9.670
25306SOL    HW177751   2.494   6.292   9.675
25306SOL    HW277752   2.502   6.441   9.650
25307SOL     OW77753   5.567   2.469   2.016
25307SOL    HW177754   5.619   2.529   2.069
25307SOL    HW277755   5.608   2.383   2.029
25308SOL     OW77756   3.902   6.900  12.637
25308SOL    HW177757   3.992   6.901  12.669
25308SOL    HW277758   3.904   6.841  12.561
25309SOL     OW77759   6.854  13.395   2.043
25309SOL    HW177760   6.945  13.372   2.023
25309SOL    HW277761   6.848  13.488   2.025
25310SOL     OW77762  12.948   8.166   0.634
25310SOL    HW177763  12.879   8.226   0.662
25310SOL    HW277764  12.969   8.115   0.712
25311SOL     OW77765   9.745   9.830   4.305
25311SOL    HW177766   9.679   9.890   4.271
25311SOL    HW277767   9.701   9.788   4.380
25312SOL     OW77768   3.535  12.937  14.376
25312SOL    HW177769   3.548  12.893  14.292
25312SOL    HW277770   3.441  12.932  14.391
25313SOL     OW77771   1.950   9.872   2.199
25313SOL    HW177772   1.889   9.799   2.214
25313SOL    HW277773   2.036   9.836   2.222
25314SOL     OW77774  14.607  13.368  13.588
25314SOL    HW177775  14.524  13.353  13.634
25314SOL    HW277776  14.590  13.443  13.531
25315SOL     OW77777  11.986  13.366   6.625
25315SOL    HW177778  11.941  13.440   6.665
25315SOL    HW277779  11.986  13.385   6.531
25316SOL     OW77780  11.008  14.418   4.054
25316SOL    HW177781  11.090  14.449   4.017
25316SOL    HW277782  11.012  14.322   4.047
25317SOL     OW77783   1.701   2.647   0.620
25317SOL    HW177784   1.634   2.703   0.659
25317SOL    HW277785   1.754   2.617   0.694
25318SOL     OW77786  10.372  12.294  12.966
25318SOL    HW177787  10.397  12.242  13.043
25318SOL    HW277788  10.282  12.323  12.985
25319SOL     OW77789   2.698   2.138   4.312
25319SOL    HW177790   2.677   2.185   4.232
25319SOL    HW277791   2.789   2.161   4.330
25320SOL     OW77792   1.510   1.457   7.576
25320SOL    HW177793   1.463   1.383   7.537
25320SOL    HW277794   1.446   1.527   7.579
25321SOL     OW77795   4.655   4.458  10.156
25321SOL    HW177796   4.638   4.390  10.091
25321SOL    HW277797   4.715   4.417  10.219
25322SOL     OW77798  10.913   0.725   0.474
25322SOL    HW177799  10.911   0.735   0.569
25322SOL    HW277800  10.822   0.704   0.451
25323SOL     OW77801   5.207   4.939   6.513
25323SOL    HW177802   5.197   5.015   6.454
25323SOL    HW277803   5.199   4.863   6.455
25324SOL     OW77804   0.909  11.476   8.399
25324SOL    HW177805   0.959  11.399   8.424
25324SOL    HW277806   0.818  11.452   8.414
25325SOL     OW77807  13.402  11.155  13.018
25325SOL    HW177808  13.313  11.170  13.048
25325SOL    HW277809  13.457  11.186  13.090
25326SOL     OW77810  11.294  13.829   6.618
25326SOL    HW177811  11.346  13.815   6.697
25326SOL    HW277812  11.204  13.834   6.649
25327SOL     OW77813  13.631   6.593   9.400
25327SOL    HW177814  13.698   6.534   9.434
25327SOL    HW277815  13.549   6.544   9.407
25328SOL     OW77816   7.205   5.794   2.785
25328SOL    HW177817   7.215   5.861   2.718
25328SOL    HW277818   7.140   5.733   2.748
25329SOL     OW77819   5.111   9.393  13.771
25329SOL    HW177820   5.038   9.330  13.777
25329SOL    HW277821   5.071   9.473  13.737
25330SOL     OW77822   6.279   2.516   0.386
25330SOL    HW177823   6.299   2.471   0.468
25330SOL    HW277824   6.297   2.452   0.318
25331SOL     OW77825   7.059   8.805   9.421
25331SOL    HW177826   7.100   8.886   9.449
25331SOL    HW277827   7.117   8.735   9.452
25332SOL     OW77828   3.358   9.737  13.830
25332SOL    HW177829   3.315   9.792  13.764
25332SOL    HW277830   3.289   9.714  13.891
25333SOL     OW77831   1.800  12.536   4.758
25333SOL    HW177832   1.772  12.458   4.711
25333SOL    HW277833   1.733  12.602   4.737
25334SOL     OW77834  14.235   6.001  14.006
25334SOL    HW177835  14.224   6.056  14.083
25334SOL    HW277836  14.147   5.972  13.984
25335SOL     OW77837  12.885  14.326  13.427
25335SOL    HW177838  12.973  14.320  13.389
25335SOL    HW277839  12.831  14.362  13.356
25336SOL     OW77840   6.570   1.808  10.784
25336SOL    HW177841   6.553   1.820  10.690
25336SOL    HW277842   6.504   1.862  10.827
25337SOL     OW77843   1.853   9.514   6.204
25337SOL    HW177844   1.913   9.506   6.279
25337SOL    HW277845   1.828   9.424   6.184
25338SOL     OW77846  10.949   5.992  11.064
25338SOL    HW177847  11.029   5.955  11.101
25338SOL    HW277848  10.937   5.945  10.981
25339SOL     OW77849   3.483  14.336  10.116
25339SOL    HW177850   3.465  14.358  10.207
25339SOL    HW277851   3.515  14.417  10.077
25340SOL     OW77852   6.849  11.946  12.338
25340SOL    HW177853   6.930  11.954  12.389
25340SOL    HW277854   6.827  12.036  12.313
25341SOL     OW77855   8.038   3.012  12.481
25341SOL    HW177856   8.131   3.006  12.504
25341SOL    HW277857   8.020   3.105  12.472
25342SOL     OW77858  14.264   0.888   4.797
25342SOL    HW177859  14.344   0.934   4.826
25342SOL    HW277860  14.289   0.796   4.796
25343SOL     OW77861  11.828  11.587   5.702
25343SOL    HW177862  11.792  11.518   5.646
25343SOL    HW277863  11.751  11.632   5.737
25344SOL     OW77864   7.747   5.278   2.780
25344SOL    HW177865   7.665   5.231   2.765
25344SOL    HW277866   7.815   5.221   2.745
25345SOL     OW77867   1.434  12.419   9.004
25345SOL    HW177868   1.523  12.437   9.035
25345SOL    HW277869   1.411  12.335   9.043
25346SOL     OW77870  11.777  13.028   5.600
25346SOL    HW177871  11.807  12.994   5.684
25346SOL    HW277872  11.841  12.994   5.537
25347SOL     OW77873   8.381   2.215  14.205
25347SOL    HW177874   8.465   2.187  14.167
25347SOL    HW277875   8.338   2.263  14.134
25348SOL     OW77876   5.379   3.313   6.899
25348SOL    HW177877   5.459   3.360   6.875
25348SOL    HW277878   5.308   3.374   6.879
25349SOL     OW77879  11.035  11.678   7.183
25349SOL    HW177880  11.078  11.596   7.206
25349SOL    HW277881  10.991  11.705   7.264
25350SOL     OW77882   7.869   4.086   4.506
25350SOL    HW177883   7.879   4.118   4.416
25350SOL    HW277884   7.856   4.165   4.558
25351SOL     OW77885   5.796  10.381   2.291
25351SOL    HW177886   5.846  10.316   2.242
25351SOL    HW277887   5.838  10.464   2.270
25352SOL     OW77888   4.283   2.496   6.069
25352SOL    HW177889   4.351   2.430   6.056
25352SOL    HW277890   4.276   2.541   5.985
25353SOL     OW77891  11.331   7.860   5.230
25353SOL    HW177892  11.353   7.924   5.298
25353SOL    HW277893  11.274   7.797   5.275
25354SOL     OW77894  10.470   2.819   5.775
25354SOL    HW177895  10.537   2.883   5.799
25354SOL    HW277896  10.411   2.867   5.716
25355SOL     OW77897  12.631   3.499   1.194
25355SOL    HW177898  12.628   3.430   1.128
25355SOL    HW277899  12.546   3.495   1.238
25356SOL     OW77900  12.530   4.790  10.638
25356SOL    HW177901  12.461   4.854  10.656
25356SOL    HW277902  12.571   4.774  10.723
25357SOL     OW77903  10.225   3.294  11.853
25357SOL    HW177904  10.215   3.259  11.941
25357SOL    HW277905  10.158   3.248  11.801
25358SOL     OW77906   9.099   0.859   2.263
25358SOL    HW177907   9.066   0.798   2.197
25358SOL    HW277908   9.142   0.802   2.328
25359SOL     OW77909  12.178   4.980  13.302
25359SOL    HW177910  12.184   4.890  13.270
25359SOL    HW277911  12.084   4.993  13.318
25360SOL     OW77912   9.169   8.444  13.607
25360SOL    HW177913   9.170   8.367  13.663
25360SOL    HW277914   9.088   8.490  13.629
25361SOL     OW77915   1.072   7.701   0.688
25361SOL    HW177916   0.980   7.720   0.700
25361SOL    HW277917   1.084   7.698   0.593
25362SOL     OW77918  14.362   2.384   6.481
25362SOL    HW177919  14.267   2.373   6.470
25362SOL    HW277920  14.370   2.443   6.556
25363SOL     OW77921  10.305   9.269  12.280
25363SOL    HW177922  10.394   9.287  12.247
25363SOL    HW277923  10.255   9.245  12.202
25364SOL     OW77924  13.301   5.308   4.374
25364SOL    HW177925  13.224   5.293   4.320
25364SOL    HW277926  13.311   5.403   4.375
25365SOL     OW77927   6.301   6.796  12.815
25365SOL    HW177928   6.313   6.867  12.752
25365SOL    HW277929   6.377   6.802  12.872
25366SOL     OW77930   0.871   4.481   4.545
25366SOL    HW177931   0.833   4.516   4.626
25366SOL    HW277932   0.795   4.469   4.487
25367SOL     OW77933  11.405  10.464   5.481
25367SOL    HW177934  11.372  10.441   5.394
25367SOL    HW277935  11.496  10.489   5.467
25368SOL     OW77936   1.643   3.834   3.830
25368SOL    HW177937   1.579   3.894   3.793
25368SOL    HW277938   1.619   3.829   3.923
25369SOL     OW77939  10.482  14.814  11.542
25369SOL    HW177940  10.499  14.829  11.635
25369SOL    HW277941  10.392  14.782  11.539
25370SOL     OW77942   1.275   4.473   4.204
25370SOL    HW177943   1.251   4.466   4.111
25370SOL    HW277944   1.331   4.551   4.208
25371SOL     OW77945  12.097   5.989   5.374
25371SOL    HW177946  12.154   5.925   5.331
25371SOL    HW277947  12.155   6.060   5.401
25372SOL     OW77948   8.625  11.949   9.957
25372SOL    HW177949   8.566  11.875   9.943
25372SOL    HW277950   8.662  11.967   9.870
25373SOL     OW77951   1.793  12.805   9.968
25373SOL    HW177952   1.842  12.745  10.025
25373SOL    HW277953   1.842  12.887   9.972
25374SOL     OW77954   9.040   2.643  14.202
25374SOL    HW177955   9.039   2.550  14.224
25374SOL    HW277956   8.952   2.661  14.169
25375SOL     OW77957  12.822  13.441  10.656
25375SOL    HW177958  12.856  13.426  10.744
25375SOL    HW277959  12.888  13.403  10.598
25376SOL     OW77960   0.166   2.351   8.772
25376SOL    HW177961   0.188   2.435   8.812
25376SOL    HW277962   0.144   2.373   8.681
25377SOL     OW77963   5.649   5.841  14.532
25377SOL    HW177964   5.585   5.864  14.465
25377SOL    HW277965   5.621   5.889  14.610
25378SOL     OW77966   7.452   5.641   7.003
25378SOL    HW177967   7.526   5.637   6.942
25378SOL    HW277968   7.428   5.734   7.005
25379SOL     OW77969   0.629   9.591  14.043
25379SOL    HW177970   0.622   9.614  13.950
25379SOL    HW277971   0.593   9.667  14.089
25380SOL     OW77972   8.728  10.040  11.634
25380SOL    HW177973   8.678   9.962  11.609
25380SOL    HW277974   8.666  10.112  11.625
25381SOL     OW77975   9.762  12.249   8.684
25381SOL    HW177976   9.777  12.186   8.614
25381SOL    HW277977   9.714  12.320   8.642
25382SOL     OW77978   6.917  11.817   5.317
25382SOL    HW177979   6.909  11.816   5.221
25382SOL    HW277980   6.833  11.851   5.347
25383SOL     OW77981   1.794   0.967   1.148
25383SOL    HW177982   1.717   0.981   1.204
25383SOL    HW277983   1.811   0.873   1.152
25384SOL     OW77984   2.862   4.882  12.301
25384SOL    HW177985   2.919   4.959  12.302
25384SOL    HW277986   2.923   4.807  12.297
25385SOL     OW77987   4.175   1.819  14.155
25385SOL    HW177988   4.179   1.726  14.178
25385SOL    HW277989   4.082   1.842  14.163
25386SOL     OW77990   8.832   4.127   1.548
25386SOL    HW177991   8.924   4.148   1.536
25386SOL    HW277992   8.786   4.180   1.483
25387SOL     OW77993   4.893  14.458   5.973
25387SOL    HW177994   4.955  14.497   6.035
25387SOL    HW277995   4.941  14.450   5.891
25388SOL     OW77996   9.101   4.878   6.879
25388SOL    HW177997   9.051   4.959   6.864
25388SOL    HW277998   9.134   4.887   6.968
25389SOL     OW77999  14.247   8.904  10.426
25389SOL    HW178000  14.292   8.943  10.352
25389SOL    HW278001  14.158   8.888  10.396
25390SOL     OW78002  12.049   1.845  14.284
25390SOL    HW178003  11.954   1.842  14.289
25390SOL    HW278004  12.078   1.837  14.374
25391SOL     OW78005   6.168   9.966  13.717
25391SOL    HW178006   6.108   9.982  13.643
25391SOL    HW278007   6.133  10.021  13.787
25392SOL     OW78008   3.756  14.670   3.342
25392SOL    HW178009   3.794  14.586   3.314
25392SOL    HW278010   3.695  14.693   3.273
25393SOL     OW78011   6.932  13.027   1.291
25393SOL    HW178012   6.990  13.086   1.339
25393SOL    HW278013   6.911  13.073   1.210
25394SOL     OW78014   9.173   5.625  11.238
25394SOL    HW178015   9.259   5.666  11.249
25394SOL    HW278016   9.123   5.654  11.314
25395SOL     OW78017   2.576   1.418  13.243
25395SOL    HW178018   2.608   1.372  13.321
25395SOL    HW278019   2.588   1.354  13.173
25396SOL     OW78020   5.087   1.028   6.087
25396SOL    HW178021   5.153   1.078   6.038
25396SOL    HW278022   5.003   1.067   6.062
25397SOL     OW78023   3.684   5.136  13.760
25397SOL    HW178024   3.642   5.142  13.674
25397SOL    HW278025   3.742   5.212  13.764
25398SOL     OW78026  11.616  11.487   0.192
25398SOL    HW178027  11.629  11.438   0.110
25398SOL    HW278028  11.560  11.430   0.245
25399SOL     OW78029  11.177   8.778   2.023
25399SOL    HW178030  11.093   8.752   2.060
25399SOL    HW278031  11.173   8.751   1.931
25400SOL     OW78032   3.328  14.619   1.389
25400SOL    HW178033   3.412  14.661   1.404
25400SOL    HW278034   3.341  14.567   1.309
25401SOL     OW78035   7.406   4.309   6.567
25401SOL    HW178036   7.337   4.301   6.633
25401SOL    HW278037   7.474   4.360   6.611
25402SOL     OW78038   1.586   1.002  10.513
25402SOL    HW178039   1.528   0.992  10.588
25402SOL    HW278040   1.548   1.074  10.463
25403SOL     OW78041   1.721   6.525   8.336
25403SOL    HW178042   1.716   6.607   8.384
25403SOL    HW278043   1.718   6.551   8.244
25404SOL     OW78044  10.134   1.641   8.674
25404SOL    HW178045  10.129   1.710   8.609
25404SOL    HW278046  10.043   1.617   8.691
25405SOL     OW78047   3.825   9.785   9.392
25405SOL    HW178048   3.899   9.729   9.368
25405SOL    HW278049   3.760   9.724   9.428
25406SOL     OW78050   3.387  14.345  11.298
25406SOL    HW178051   3.379  14.252  11.277
25406SOL    HW278052   3.342  14.390  11.227
25407SOL     OW78053  14.388   4.432   2.065
25407SOL    HW178054  14.340   4.369   2.010
25407SOL    HW278055  14.321   4.493   2.095
25408SOL     OW78056  10.532   2.622   6.935
25408SOL    HW178057  10.495   2.537   6.959
25408SOL    HW278058  10.557   2.662   7.018
25409SOL     OW78059   2.099  13.520   3.532
25409SOL    HW178060   2.012  13.550   3.558
25409SOL    HW278061   2.147  13.510   3.614
25410SOL     OW78062  10.114   1.983   1.132
25410SOL    HW178063  10.190   2.035   1.159
25410SOL    HW278064  10.055   2.047   1.093
25411SOL     OW78065   7.076   6.619   8.465
25411SOL    HW178066   7.018   6.616   8.541
25411SOL    HW278067   7.160   6.589   8.498
25412SOL     OW78068   5.384   8.288   9.765
25412SOL    HW178069   5.468   8.319   9.729
25412SOL    HW278070   5.404   8.267   9.856
25413SOL     OW78071   0.611   5.802  10.688
25413SOL    HW178072   0.592   5.864  10.759
25413SOL    HW278073   0.637   5.858  10.614
25414SOL     OW78074   7.584   7.908   3.692
25414SOL    HW178075   7.580   7.993   3.736
25414SOL    HW278076   7.678   7.887   3.689
25415SOL     OW78077   7.736   3.896   7.906
25415SOL    HW178078   7.749   3.901   7.811
25415SOL    HW278079   7.773   3.978   7.939
25416SOL     OW78080   2.854   6.441  13.346
25416SOL    HW178081   2.859   6.531  13.315
25416SOL    HW278082   2.822   6.391  13.271
25417SOL     OW78083  13.120   9.356  13.192
25417SOL    HW178084  13.191   9.300  13.223
25417SOL    HW278085  13.059   9.360  13.265
25418SOL     OW78086   0.979   5.767  10.860
25418SOL    HW178087   0.921   5.777  10.936
25418SOL    HW278088   1.003   5.674  10.860
25419SOL     OW78089   8.648  11.155  12.037
25419SOL    HW178090   8.587  11.229  12.039
25419SOL    HW278091   8.592  11.078  12.042
25420SOL     OW78092   3.020   3.851   3.030
25420SOL    HW178093   3.042   3.897   2.949
25420SOL    HW278094   2.957   3.784   3.002
25421SOL     OW78095   6.147  10.112   4.389
25421SOL    HW178096   6.143  10.065   4.306
25421SOL    HW278097   6.056  10.134   4.409
25422SOL     OW78098   8.603   6.299   3.816
25422SOL    HW178099   8.622   6.388   3.843
25422SOL    HW278100   8.630   6.295   3.724
25423SOL     OW78101   6.160   5.912   9.366
25423SOL    HW178102   6.187   5.827   9.331
25423SOL    HW278103   6.218   5.975   9.322
25424SOL     OW78104   9.013   0.740  11.202
25424SOL    HW178105   9.079   0.783  11.146
25424SOL    HW278106   9.051   0.743  11.289
25425SOL     OW78107   5.652   5.807   3.565
25425SOL    HW178108   5.571   5.787   3.517
25425SOL    HW278109   5.645   5.757   3.646
25426SOL     OW78110   1.217  11.806   5.060
25426SOL    HW178111   1.215  11.815   4.964
25426SOL    HW278112   1.161  11.877   5.092
25427SOL     OW78113  10.914   4.080  13.418
25427SOL    HW178114  10.893   4.170  13.394
25427SOL    HW278115  10.871   4.026  13.351
25428SOL     OW78116   0.735   7.540   7.890
25428SOL    HW178117   0.666   7.491   7.846
25428SOL    HW278118   0.760   7.608   7.828
25429SOL     OW78119  14.387  10.636  13.482
25429SOL    HW178120  14.343  10.586  13.414
25429SOL    HW278121  14.447  10.693  13.435
25430SOL     OW78122   9.346  10.574   2.004
25430SOL    HW178123   9.266  10.523   2.004
25430SOL    HW278124   9.317  10.665   1.998
25431SOL     OW78125   2.912  12.425   3.729
25431SOL    HW178126   2.851  12.352   3.717
25431SOL    HW278127   2.916  12.437   3.824
25432SOL     OW78128   5.790   3.852   9.174
25432SOL    HW178129   5.748   3.915   9.232
25432SOL    HW278130   5.728   3.842   9.101
25433SOL     OW78131   4.835   0.785  11.891
25433SOL    HW178132   4.792   0.711  11.934
25433SOL    HW278133   4.927   0.777  11.915
25434SOL     OW78134   1.108   1.349   5.583
25434SOL    HW178135   1.068   1.434   5.568
25434SOL    HW278136   1.120   1.345   5.678
25435SOL     OW78137  11.861   4.780   5.411
25435SOL    HW178138  11.859   4.805   5.318
25435SOL    HW278139  11.848   4.686   5.411
25436SOL     OW78140  12.552   7.357  12.778
25436SOL    HW178141  12.551   7.316  12.864
25436SOL    HW278142  12.496   7.301  12.724
25437SOL     OW78143   0.261   0.969   6.908
25437SOL    HW178144   0.246   0.933   6.821
25437SOL    HW278145   0.334   1.031   6.896
25438SOL     OW78146   6.665   2.331  13.565
25438SOL    HW178147   6.711   2.410  13.538
25438SOL    HW278148   6.606   2.360  13.634
25439SOL     OW78149   2.249   6.484   2.349
25439SOL    HW178150   2.293   6.555   2.397
25439SOL    HW278151   2.183   6.528   2.295
25440SOL     OW78152  13.956   2.272   9.733
25440SOL    HW178153  13.897   2.302   9.802
25440SOL    HW278154  13.945   2.336   9.662
25441SOL     OW78155   5.077   0.054   2.000
25441SOL    HW178156   5.044  14.850   2.034
25441SOL    HW278157   5.162   0.065   2.043
25442SOL     OW78158   1.920   7.890   1.658
25442SOL    HW178159   1.956   7.935   1.581
25442SOL    HW278160   1.953   7.939   1.733
25443SOL     OW78161   7.577   2.811   1.676
25443SOL    HW178162   7.639   2.856   1.618
25443SOL    HW278163   7.493   2.818   1.630
25444SOL     OW78164   1.399   6.665   3.039
25444SOL    HW178165   1.425   6.737   2.981
25444SOL    HW278166   1.473   6.657   3.100
25445SOL     OW78167   2.591  11.178   1.278
25445SOL    HW178168   2.629  11.151   1.194
25445SOL    HW278169   2.641  11.256   1.303
25446SOL     OW78170   1.665  12.087   3.249
25446SOL    HW178171   1.608  12.102   3.174
25446SOL    HW278172   1.732  12.027   3.217
25447SOL     OW78173   6.627   3.010   4.707
25447SOL    HW178174   6.559   2.943   4.719
25447SOL    HW278175   6.613   3.071   4.778
25448SOL     OW78176   1.708   6.759   1.874
25448SOL    HW178177   1.674   6.818   1.941
25448SOL    HW278178   1.772   6.810   1.826
25449SOL     OW78179   1.563   9.693  14.731
25449SOL    HW178180   1.630   9.757  14.753
25449SOL    HW278181   1.579   9.620  14.790
25450SOL     OW78182   5.539  12.714   0.016
25450SOL    HW178183   5.487  12.790   0.042
25450SOL    HW278184   5.607  12.706   0.083
25451SOL     OW78185  11.058  10.049  11.978
25451SOL    HW178186  10.980  10.089  12.017
25451SOL    HW278187  11.074  10.099  11.898
25452SOL     OW78188  13.363   7.095   0.381
25452SOL    HW178189  13.446   7.048   0.369
25452SOL    HW278190  13.389   7.178   0.421
25453SOL     OW78191   7.189   7.438  12.140
25453SOL    HW178192   7.117   7.442  12.076
25453SOL    HW278193   7.164   7.502  12.207
25454SOL     OW78194   7.378   8.723  12.597
25454SOL    HW178195   7.387   8.686  12.685
25454SOL    HW278196   7.284   8.716  12.578
25455SOL     OW78197   3.848   2.893  14.609
25455SOL    HW178198   3.933   2.869  14.572
25455SOL    HW278199   3.870   2.947  14.685
25456SOL     OW78200   2.577  10.428  14.680
25456SOL    HW178201   2.579  10.333  14.693
25456SOL    HW278202   2.494  10.444  14.637
25457SOL     OW78203  10.149  14.012  13.325
25457SOL    HW178204  10.185  13.964  13.400
25457SOL    HW278205  10.223  14.060  13.289
25458SOL     OW78206   5.129  13.392   7.901
25458SOL    HW178207   5.100  13.373   7.812
25458SOL    HW278208   5.053  13.370   7.956
25459SOL     OW78209   0.613   0.452   4.160
25459SOL    HW178210   0.678   0.424   4.096
25459SOL    HW278211   0.597   0.374   4.214
25460SOL     OW78212   2.684   1.199   1.894
25460SOL    HW178213   2.695   1.104   1.889
25460SOL    HW278214   2.737   1.233   1.822
25461SOL     OW78215   9.382   2.854  11.396
25461SOL    HW178216   9.424   2.789  11.452
25461SOL    HW278217   9.403   2.827  11.307
25462SOL     OW78218   8.509   4.787   4.964
25462SOL    HW178219   8.516   4.858   5.028
25462SOL    HW278220   8.432   4.810   4.912
25463SOL     OW78221   0.759   8.031   5.482
25463SOL    HW178222   0.793   8.105   5.433
25463SOL    HW278223   0.798   8.039   5.569
25464SOL     OW78224   5.197  11.976  12.317
25464SOL    HW178225   5.279  11.944  12.353
25464SOL    HW278226   5.176  11.915  12.246
25465SOL     OW78227   0.867   6.485  10.730
25465SOL    HW178228   0.848   6.502  10.822
25465SOL    HW278229   0.956   6.450  10.730
25466SOL     OW78230   7.848   3.923   1.333
25466SOL    HW178231   7.812   3.980   1.264
25466SOL    HW278232   7.853   3.837   1.292
25467SOL     OW78233  14.219   3.597   4.245
25467SOL    HW178234  14.268   3.535   4.299
25467SOL    HW278235  14.261   3.593   4.159
25468SOL     OW78236   1.588   3.733  13.521
25468SOL    HW178237   1.647   3.668  13.559
25468SOL    HW278238   1.526   3.682  13.469
25469SOL     OW78239   0.544   0.791  14.129
25469SOL    HW178240   0.581   0.876  14.155
25469SOL    HW278241   0.513   0.752  14.210
25470SOL     OW78242  13.111   2.916   5.535
25470SOL    HW178243  13.167   2.940   5.609
25470SOL    HW278244  13.044   2.859   5.574
25471SOL     OW78245   8.686   7.664   8.086
25471SOL    HW178246   8.625   7.591   8.074
25471SOL    HW278247   8.698   7.700   7.999
25472SOL     OW78248   5.797   7.396   7.509
25472SOL    HW178249   5.705   7.422   7.502
25472SOL    HW278250   5.825   7.381   7.419
25473SOL     OW78251  14.125   2.212   1.066
25473SOL    HW178252  14.053   2.266   1.098
25473SOL    HW278253  14.083   2.146   1.012
25474SOL     OW78254  10.793   3.596  13.200
25474SOL    HW178255  10.845   3.649  13.260
25474SOL    HW278256  10.857   3.543  13.153
25475SOL     OW78257   3.605   9.748  12.753
25475SOL    HW178258   3.607   9.663  12.797
25475SOL    HW278259   3.683   9.793  12.785
25476SOL     OW78260   6.379   6.622   4.028
25476SOL    HW178261   6.328   6.589   4.102
25476SOL    HW278262   6.403   6.544   3.978
25477SOL     OW78263  12.950   6.305   4.747
25477SOL    HW178264  13.009   6.298   4.672
25477SOL    HW278265  12.897   6.382   4.728
25478SOL     OW78266   7.468  14.537   7.100
25478SOL    HW178267   7.499  14.447   7.114
25478SOL    HW278268   7.465  14.546   7.005
25479SOL     OW78269   6.042   1.153   0.687
25479SOL    HW178270   5.953   1.167   0.720
25479SOL    HW278271   6.097   1.210   0.742
25480SOL     OW78272   3.762   1.343   8.329
25480SOL    HW178273   3.677   1.381   8.349
25480SOL    HW278274   3.750   1.249   8.342
25481SOL     OW78275   5.357  13.160   7.986
25481SOL    HW178276   5.395  13.114   7.911
25481SOL    HW278277   5.328  13.244   7.950
25482SOL     OW78278   8.504  11.335   4.268
25482SOL    HW178279   8.457  11.378   4.196
25482SOL    HW278280   8.478  11.385   4.345
25483SOL     OW78281   5.988   6.020  11.820
25483SOL    HW178282   6.013   6.099  11.868
25483SOL    HW278283   6.022   6.034  11.731
25484SOL     OW78284  12.068   2.758  14.640
25484SOL    HW178285  12.055   2.751  14.734
25484SOL    HW278286  12.075   2.667  14.610
25485SOL     OW78287   4.195   0.586   7.654
25485SOL    HW178288   4.239   0.527   7.594
25485SOL    HW278289   4.207   0.547   7.740
25486SOL     OW78290  14.089   6.283   9.184
25486SOL    HW178291  14.167   6.289   9.128
25486SOL    HW278292  14.022   6.244   9.127
25487SOL     OW78293   2.866  13.091  12.040
25487SOL    HW178294   2.941  13.035  12.058
25487SOL    HW278295   2.799  13.062  12.102
25488SOL     OW78296  11.251  14.308   9.665
25488SOL    HW178297  11.321  14.258   9.622
25488SOL    HW278298  11.290  14.337   9.748
25489SOL     OW78299   3.559   8.434   1.602
25489SOL    HW178300   3.488   8.390   1.556
25489SOL    HW278301   3.555   8.400   1.691
25490SOL     OW78302  12.548   9.198   2.967
25490SOL    HW178303  12.469   9.211   3.020
25490SOL    HW278304  12.616   9.174   3.030
25491SOL     OW78305  11.207   0.700  11.848
25491SOL    HW178306  11.259   0.766  11.802
25491SOL    HW278307  11.199   0.628  11.785
25492SOL     OW78308  12.047   1.941   0.515
25492SOL    HW178309  12.077   1.878   0.580
25492SOL    HW278310  11.968   1.902   0.478
25493SOL     OW78311   5.245  14.722  14.228
25493SOL    HW178312   5.312  14.780  14.263
25493SOL    HW278313   5.267  14.711  14.136
25494SOL     OW78314  11.021   2.008   4.878
25494SOL    HW178315  11.100   1.995   4.826
25494SOL    HW278316  11.043   1.972   4.964
25495SOL     OW78317  11.534   4.152   4.211
25495SOL    HW178318  11.450   4.131   4.171
25495SOL    HW278319  11.599   4.123   4.147
25496SOL     OW78320  14.622   4.029   5.258
25496SOL    HW178321  14.690   4.067   5.314
25496SOL    HW278322  14.541   4.069   5.289
25497SOL     OW78323   5.000  10.412   2.057
25497SOL    HW178324   5.095  10.397   2.060
25497SOL    HW278325   4.987  10.470   1.983
25498SOL     OW78326  11.239   8.651   2.965
25498SOL    HW178327  11.209   8.706   3.038
25498SOL    HW278328  11.323   8.689   2.940
25499SOL     OW78329   1.394  13.318  14.152
25499SOL    HW178330   1.344  13.388  14.110
25499SOL    HW278331   1.418  13.259  14.081
25500SOL     OW78332   2.984  13.035   1.963
25500SOL    HW178333   3.031  12.966   1.918
25500SOL    HW278334   2.961  13.097   1.894
25501SOL     OW78335  11.795   2.734   9.584
25501SOL    HW178336  11.876   2.773   9.617
25501SOL    HW278337  11.772   2.667   9.648
25502SOL     OW78338   3.383   4.571   8.529
25502SOL    HW178339   3.471   4.604   8.510
25502SOL    HW278340   3.344   4.637   8.586
25503SOL     OW78341  11.746   7.517   9.226
25503SOL    HW178342  11.706   7.459   9.162
25503SOL    HW278343  11.824   7.471   9.255
25504SOL     OW78344   6.957  11.735  14.203
25504SOL    HW178345   7.035  11.747  14.256
25504SOL    HW278346   6.940  11.821  14.165
25505SOL     OW78347  14.058   3.528   3.884
25505SOL    HW178348  14.062   3.437   3.911
25505SOL    HW278349  13.991   3.568   3.940
25506SOL     OW78350   1.469   1.268  11.831
25506SOL    HW178351   1.388   1.261  11.882
25506SOL    HW278352   1.462   1.199  11.765
25507SOL     OW78353   1.878   2.150  13.593
25507SOL    HW178354   1.946   2.164  13.658
25507SOL    HW278355   1.884   2.057  13.571
25508SOL     OW78356  13.898   1.833   7.924
25508SOL    HW178357  13.848   1.808   8.002
25508SOL    HW278358  13.849   1.794   7.851
25509SOL     OW78359   5.840  11.578   8.957
25509SOL    HW178360   5.901  11.538   9.019
25509SOL    HW278361   5.886  11.576   8.873
25510SOL     OW78362   6.821   6.698   4.422
25510SOL    HW178363   6.774   6.626   4.464
25510SOL    HW278364   6.781   6.777   4.459
25511SOL     OW78365   2.676   0.533   5.874
25511SOL    HW178366   2.593   0.558   5.832
25511SOL    HW278367   2.699   0.609   5.928
25512SOL     OW78368   0.708   3.449   4.987
25512SOL    HW178369   0.772   3.408   4.929
25512SOL    HW278370   0.747   3.533   5.011
25513SOL     OW78371   6.225  13.321   7.796
25513SOL    HW178372   6.249  13.410   7.822
25513SOL    HW278373   6.175  13.333   7.715
25514SOL     OW78374  14.238  12.920  11.529
25514SOL    HW178375  14.156  12.969  11.534
25514SOL    HW278376  14.216  12.833  11.563
25515SOL     OW78377   5.833   8.777  14.672
25515SOL    HW178378   5.822   8.727  14.591
25515SOL    HW278379   5.913   8.827  14.658
25516SOL     OW78380   8.351   9.042   9.013
25516SOL    HW178381   8.376   9.049   8.921
25516SOL    HW278382   8.434   9.032   9.060
25517SOL     OW78383   8.024   5.260   9.329
25517SOL    HW178384   7.963   5.239   9.258
25517SOL    HW278385   8.059   5.346   9.306
25518SOL     OW78386   2.692   0.903  10.951
25518SOL    HW178387   2.763   0.839  10.956
25518SOL    HW278388   2.736   0.988  10.951
25519SOL     OW78389   7.864  12.014  13.636
25519SOL    HW178390   7.801  12.079  13.603
25519SOL    HW278391   7.885  11.961  13.559
25520SOL     OW78392   9.510   4.647   0.575
25520SOL    HW178393   9.461   4.695   0.507
25520SOL    HW278394   9.588   4.700   0.589
25521SOL     OW78395   6.255   4.899   3.711
25521SOL    HW178396   6.179   4.886   3.654
25521SOL    HW278397   6.231   4.973   3.766
25522SOL     OW78398  12.689   5.602   2.037
25522SOL    HW178399  12.683   5.525   2.093
25522SOL    HW278400  12.662   5.571   1.950
25523SOL     OW78401   4.568   2.324  13.389
25523SOL    HW178402   4.552   2.315  13.483
25523SOL    HW278403   4.529   2.408  13.366
25524SOL     OW78404  10.761   3.209   3.186
25524SOL    HW178405  10.833   3.272   3.189
25524SOL    HW278406  10.800   3.132   3.144
25525SOL     OW78407  11.118   8.242   8.750
25525SOL    HW178408  11.204   8.201   8.759
25525SOL    HW278409  11.061   8.191   8.808
25526SOL     OW78410  13.455  14.042  11.161
25526SOL    HW178411  13.527  13.981  11.142
25526SOL    HW278412  13.388  13.987  11.202
25527SOL     OW78413   0.405   4.204   0.516
25527SOL    HW178414   0.311   4.192   0.526
25527SOL    HW278415   0.424   4.172   0.427
25528SOL     OW78416   8.723  12.405  11.217
25528SOL    HW178417   8.721  12.315  11.184
25528SOL    HW278418   8.786  12.450  11.160
25529SOL     OW78419   6.972  13.201   8.421
25529SOL    HW178420   7.032  13.245   8.362
25529SOL    HW278421   6.917  13.271   8.456
25530SOL     OW78422   9.891   1.211   2.824
25530SOL    HW178423   9.812   1.162   2.802
25530SOL    HW278424   9.956   1.144   2.844
25531SOL     OW78425   6.002   7.349   1.621
25531SOL    HW178426   5.963   7.422   1.670
25531SOL    HW278427   5.940   7.277   1.633
25532SOL     OW78428  12.838  10.766  14.257
25532SOL    HW178429  12.746  10.739  14.252
25532SOL    HW278430  12.863  10.750  14.348
25533SOL     OW78431   8.971   9.409   3.175
25533SOL    HW178432   8.897   9.435   3.230
25533SOL    HW278433   8.993   9.489   3.126
25534SOL     OW78434   5.131   5.803   3.273
25534SOL    HW178435   5.046   5.836   3.245
25534SOL    HW278436   5.194   5.849   3.218
25535SOL     OW78437   9.543   8.384   7.598
25535SOL    HW178438   9.487   8.313   7.628
25535SOL    HW278439   9.610   8.342   7.543
25536SOL     OW78440   6.247  12.107   3.833
25536SOL    HW178441   6.185  12.138   3.899
25536SOL    HW278442   6.316  12.174   3.831
25537SOL     OW78443  12.382  13.048   7.741
25537SOL    HW178444  12.287  13.040   7.728
25537SOL    HW278445  12.419  13.035   7.654
25538SOL     OW78446  10.424  10.497   6.912
25538SOL    HW178447  10.472  10.580   6.915
25538SOL    HW278448  10.488  10.433   6.882
25539SOL     OW78449   7.520  10.356   8.874
25539SOL    HW178450   7.505  10.433   8.930
25539SOL    HW278451   7.572  10.390   8.801
25540SOL     OW78452   0.880   3.038  12.372
25540SOL    HW178453   0.823   3.095  12.423
25540SOL    HW278454   0.826   2.962  12.350
25541SOL     OW78455   7.426   8.061   9.671
25541SOL    HW178456   7.451   7.987   9.615
25541SOL    HW278457   7.379   8.020   9.744
25542SOL     OW78458   5.366   1.036   1.089
25542SOL    HW178459   5.327   1.043   1.176
25542SOL    HW278460   5.401   0.947   1.086
25543SOL     OW78461   4.509   0.873   8.357
25543SOL    HW178462   4.517   0.818   8.279
25543SOL    HW278463   4.596   0.909   8.370
25544SOL     OW78464   3.761   7.811   7.082
25544SOL    HW178465   3.800   7.869   7.148
25544SOL    HW278466   3.667   7.811   7.103
25545SOL     OW78467  14.425   9.234   6.351
25545SOL    HW178468  14.496   9.202   6.406
25545SOL    HW278469  14.454   9.321   6.323
25546SOL     OW78470  10.088   1.811  12.741
25546SOL    HW178471  10.098   1.879  12.808
25546SOL    HW278472   9.994   1.804  12.727
25547SOL     OW78473   5.290   8.719   2.742
25547SOL    HW178474   5.226   8.652   2.715
25547SOL    HW278475   5.272   8.793   2.684
25548SOL     OW78476  12.636   6.269   9.310
25548SOL    HW178477  12.692   6.312   9.374
25548SOL    HW278478  12.657   6.311   9.227
25549SOL     OW78479   3.554   7.415  10.672
25549SOL    HW178480   3.508   7.423  10.589
25549SOL    HW278481   3.488   7.432  10.739
25550SOL     OW78482  12.899  10.013   4.536
25550SOL    HW178483  12.962  10.062   4.588
25550SOL    HW278484  12.821  10.008   4.592
25551SOL     OW78485   2.110   1.092  12.048
25551SOL    HW178486   2.131   1.003  12.079
25551SOL    HW278487   2.034   1.118  12.099
25552SOL     OW78488   8.709  10.205   0.751
25552SOL    HW178489   8.705  10.254   0.833
25552SOL    HW278490   8.756  10.125   0.773
25553SOL     OW78491  12.254   6.269   4.787
25553SOL    HW178492  12.336   6.276   4.835
25553SOL    HW278493  12.190   6.243   4.853
25554SOL     OW78494  10.756   1.754   5.175
25554SOL    HW178495  10.681   1.803   5.209
25554SOL    HW278496  10.739   1.746   5.081
25555SOL     OW78497   0.874   4.849   7.680
25555SOL    HW178498   0.841   4.843   7.590
25555SOL    HW278499   0.815   4.912   7.722
25556SOL     OW78500   8.648  14.211   0.726
25556SOL    HW178501   8.596  14.282   0.689
25556SOL    HW278502   8.621  14.133   0.676
25557SOL     OW78503  13.801  10.760   4.184
25557SOL    HW178504  13.716  10.746   4.142
25557SOL    HW278505  13.800  10.852   4.211
25558SOL     OW78506  14.553   7.049   2.731
25558SOL    HW178507  14.601   7.091   2.659
25558SOL    HW278508  14.501   6.981   2.689
25559SOL     OW78509   8.224   6.551   0.813
25559SOL    HW178510   8.216   6.640   0.778
25559SOL    HW278511   8.153   6.543   0.876
25560SOL     OW78512   1.125  12.078  14.312
25560SOL    HW178513   1.170  12.140  14.256
25560SOL    HW278514   1.175  12.078  14.393
25561SOL     OW78515   5.706   4.774   9.060
25561SOL    HW178516   5.648   4.788   9.135
25561SOL    HW278517   5.655   4.801   8.984
25562SOL     OW78518   1.815  12.387   5.390
25562SOL    HW178519   1.853  12.474   5.377
25562SOL    HW278520   1.769  12.394   5.474
25563SOL     OW78521  11.926  11.664   2.515
25563SOL    HW178522  11.874  11.698   2.588
25563SOL    HW278523  11.877  11.687   2.437
25564SOL     OW78524   5.224   2.994  11.265
25564SOL    HW178525   5.151   3.018  11.209
25564SOL    HW278526   5.302   3.013  11.213
25565SOL     OW78527  12.514   7.894  13.216
25565SOL    HW178528  12.479   7.882  13.128
25565SOL    HW278529  12.585   7.957  13.206
25566SOL     OW78530  10.725  12.335   2.424
25566SOL    HW178531  10.761  12.412   2.469
25566SOL    HW278532  10.651  12.370   2.374
25567SOL     OW78533  11.734   0.957  12.390
25567SOL    HW178534  11.684   0.900  12.331
25567SOL    HW278535  11.669   0.991  12.451
25568SOL     OW78536   8.166   1.748  11.373
25568SOL    HW178537   8.159   1.704  11.288
25568SOL    HW278538   8.117   1.692  11.433
25569SOL     OW78539   3.685   4.132  14.434
25569SOL    HW178540   3.667   4.220  14.402
25569SOL    HW278541   3.660   4.075  14.361
25570SOL     OW78542   2.445  10.898  10.038
25570SOL    HW178543   2.468  10.825   9.980
25570SOL    HW278544   2.495  10.881  10.118
25571SOL     OW78545  10.021   2.595   8.623
25571SOL    HW178546   9.942   2.646   8.639
25571SOL    HW278547   9.990   2.517   8.577
25572SOL     OW78548  10.571  11.047   0.571
25572SOL    HW178549  10.665  11.029   0.567
25572SOL    HW278550  10.561  11.131   0.526
25573SOL     OW78551   2.401  10.066  13.623
25573SOL    HW178552   2.389  10.123  13.548
25573SOL    HW278553   2.413   9.979  13.586
25574SOL     OW78554   7.029  13.293   7.966
25574SOL    HW178555   7.104  13.266   7.913
25574SOL    HW278556   6.979  13.351   7.909
25575SOL     OW78557  10.392  14.369  10.053
25575SOL    HW178558  10.303  14.359  10.019
25575SOL    HW278559  10.413  14.284  10.091
25576SOL     OW78560   0.132   1.790  14.233
25576SOL    HW178561   0.142   1.816  14.325
25576SOL    HW278562   0.198   1.722  14.220
25577SOL     OW78563   1.181   0.108   8.735
25577SOL    HW178564   1.236   0.179   8.768
25577SOL    HW278565   1.105   0.107   8.794
25578SOL     OW78566  11.826  10.367   9.596
25578SOL    HW178567  11.848  10.361   9.689
25578SOL    HW278568  11.731  10.366   9.594
25579SOL     OW78569   3.412   8.692   9.934
25579SOL    HW178570   3.396   8.634   9.859
25579SOL    HW278571   3.445   8.634  10.003
25580SOL     OW78572   9.408   6.299   7.882
25580SOL    HW178573   9.418   6.255   7.798
25580SOL    HW278574   9.317   6.329   7.883
25581SOL     OW78575   4.288   3.404   3.007
25581SOL    HW178576   4.271   3.498   3.021
25581SOL    HW278577   4.325   3.374   3.090
25582SOL     OW78578  12.360   1.642  13.173
25582SOL    HW178579  12.333   1.734  13.168
25582SOL    HW278580  12.421   1.631  13.100
25583SOL     OW78581   4.766  13.442   5.996
25583SOL    HW178582   4.797  13.525   5.962
25583SOL    HW278583   4.813  13.430   6.078
25584SOL     OW78584   3.666   4.563   1.280
25584SOL    HW178585   3.580   4.576   1.320
25584SOL    HW278586   3.713   4.506   1.342
25585SOL     OW78587   1.450  14.212  11.329
25585SOL    HW178588   1.482  14.126  11.304
25585SOL    HW278589   1.422  14.202  11.420
25586SOL     OW78590  12.406   0.532   4.381
25586SOL    HW178591  12.458   0.458   4.351
25586SOL    HW278592  12.465   0.584   4.436
25587SOL     OW78593   6.520   9.124  13.245
25587SOL    HW178594   6.509   9.212  13.210
25587SOL    HW278595   6.464   9.069  13.190
25588SOL     OW78596   2.982   1.739   7.920
25588SOL    HW178597   2.897   1.764   7.885
25588SOL    HW278598   3.027   1.697   7.846
25589SOL     OW78599   2.164   8.458   0.404
25589SOL    HW178600   2.107   8.406   0.460
25589SOL    HW278601   2.232   8.491   0.462
25590SOL     OW78602  11.187  14.434   0.096
25590SOL    HW178603  11.274  14.447   0.134
25590SOL    HW278604  11.174  14.339   0.099
25591SOL     OW78605  10.680   3.296  10.050
25591SOL    HW178606  10.743   3.235  10.012
25591SOL    HW278607  10.710   3.310  10.140
25592SOL     OW78608   2.598   5.632   7.214
25592SOL    HW178609   2.625   5.558   7.160
25592SOL    HW278610   2.577   5.702   7.151
25593SOL     OW78611  11.658   1.502   6.378
25593SOL    HW178612  11.662   1.589   6.339
25593SOL    HW278613  11.738   1.458   6.349
25594SOL     OW78614   2.458  13.599  12.880
25594SOL    HW178615   2.495  13.636  12.801
25594SOL    HW278616   2.378  13.554  12.851
25595SOL     OW78617   8.534  12.514   4.244
25595SOL    HW178618   8.454  12.464   4.233
25595SOL    HW278619   8.547  12.558   4.160
25596SOL     OW78620  14.421   2.776  12.530
25596SOL    HW178621  14.428   2.784  12.435
25596SOL    HW278622  14.459   2.691  12.550
25597SOL     OW78623   3.424   6.006   0.615
25597SOL    HW178624   3.385   6.050   0.691
25597SOL    HW278625   3.512   5.984   0.644
25598SOL     OW78626   0.044   4.325   6.920
25598SOL    HW178627   0.045   4.230   6.908
25598SOL    HW278628   0.047   4.360   6.831
25599SOL     OW78629  12.908   3.766  14.258
25599SOL    HW178630  12.904   3.854  14.221
25599SOL    HW278631  12.921   3.709  14.182
25600SOL     OW78632   3.455  10.811   0.355
25600SOL    HW178633   3.405  10.889   0.376
25600SOL    HW278634   3.437  10.750   0.427
25601SOL     OW78635   3.223   1.195   8.737
25601SOL    HW178636   3.292   1.187   8.803
25601SOL    HW278637   3.147   1.229   8.785
25602SOL     OW78638   2.650   4.086  14.590
25602SOL    HW178639   2.703   4.156  14.550
25602SOL    HW278640   2.567   4.089  14.543
25603SOL     OW78641   2.847   5.490  10.256
25603SOL    HW178642   2.859   5.565  10.198
25603SOL    HW278643   2.816   5.420  10.198
25604SOL     OW78644   4.319   5.853   8.344
25604SOL    HW178645   4.360   5.854   8.258
25604SOL    HW278646   4.384   5.893   8.402
25605SOL     OW78647   9.821   9.644   8.021
25605SOL    HW178648   9.762   9.647   8.097
25605SOL    HW278649   9.803   9.559   7.981
25606SOL     OW78650   8.660  11.568   8.275
25606SOL    HW178651   8.714  11.587   8.352
25606SOL    HW278652   8.643  11.474   8.282
25607SOL     OW78653   1.476   4.653   9.259
25607SOL    HW178654   1.538   4.597   9.213
25607SOL    HW278655   1.509   4.657   9.349
25608SOL     OW78656   8.184   2.733  12.650
25608SOL    HW178657   8.270   2.695  12.669
25608SOL    HW278658   8.155   2.770  12.734
25609SOL     OW78659   1.688  11.043   3.207
25609SOL    HW178660   1.711  11.048   3.115
25609SOL    HW278661   1.602  11.085   3.213
25610SOL     OW78662   8.219   3.861   5.345
25610SOL    HW178663   8.170   3.907   5.277
25610SOL    HW278664   8.297   3.915   5.359
25611SOL     OW78665   7.697  14.356  14.810
25611SOL    HW178666   7.764  14.294  14.781
25611SOL    HW278667   7.615  14.317  14.780
25612SOL     OW78668  14.660   5.859  13.047
25612SOL    HW178669  14.701   5.881  12.963
25612SOL    HW278670  14.633   5.767  13.036
25613SOL     OW78671   0.252  14.843  14.155
25613SOL    HW178672   0.175  14.859  14.209
25613SOL    HW278673   0.317   0.027  14.186
25614SOL     OW78674  11.217  12.347   6.457
25614SOL    HW178675  11.152  12.348   6.527
25614SOL    HW278676  11.172  12.387   6.382
25615SOL     OW78677   4.673   0.154   6.220
25615SOL    HW178678   4.750   0.189   6.176
25615SOL    HW278679   4.634   0.094   6.156
25616SOL     OW78680  10.209   8.506   5.556
25616SOL    HW178681  10.219   8.496   5.461
25616SOL    HW278682  10.285   8.462   5.594
25617SOL     OW78683  11.081  10.208  13.066
25617SOL    HW178684  11.143  10.141  13.036
25617SOL    HW278685  11.041  10.170  13.144
25618SOL     OW78686   1.905  11.847  10.208
25618SOL    HW178687   1.897  11.782  10.278
25618SOL    HW278688   1.965  11.913  10.243
25619SOL     OW78689   1.807   5.437   3.109
25619SOL    HW178690   1.832   5.529   3.122
25619SOL    HW278691   1.889   5.393   3.088
25620SOL     OW78692   5.225   0.218  13.373
25620SOL    HW178693   5.226   0.175  13.287
25620SOL    HW278694   5.264   0.304  13.357
25621SOL     OW78695   5.582   5.198  14.780
25621SOL    HW178696   5.516   5.265  14.763
25621SOL    HW278697   5.651   5.215  14.715
25622SOL     OW78698   5.266   0.546   4.403
25622SOL    HW178699   5.338   0.606   4.421
25622SOL    HW278700   5.275   0.477   4.469
25623SOL     OW78701  14.852  11.490   6.091
25623SOL    HW178702   0.024  11.414   6.064
25623SOL    HW278703  14.816  11.466   6.177
25624SOL     OW78704   4.942  12.177   8.734
25624SOL    HW178705   4.969  12.184   8.642
25624SOL    HW278706   5.012  12.126   8.775
25625SOL     OW78707   8.069   6.301   7.140
25625SOL    HW178708   8.161   6.321   7.159
25625SOL    HW278709   8.068   6.273   7.049
25626SOL     OW78710  13.704   9.727   6.379
25626SOL    HW178711  13.686   9.790   6.310
25626SOL    HW278712  13.618   9.703   6.413
25627SOL     OW78713  11.245   9.230   1.355
25627SOL    HW178714  11.206   9.155   1.310
25627SOL    HW278715  11.285   9.193   1.433
25628SOL     OW78716   1.567   8.248  13.731
25628SOL    HW178717   1.522   8.165  13.713
25628SOL    HW278718   1.643   8.222  13.784
25629SOL     OW78719   1.792  10.351   4.420
25629SOL    HW178720   1.801  10.295   4.497
25629SOL    HW278721   1.810  10.292   4.346
25630SOL     OW78722   6.623  11.037   1.836
25630SOL    HW178723   6.658  11.125   1.846
25630SOL    HW278724   6.601  11.009   1.925
25631SOL     OW78725  11.400   9.995  12.372
25631SOL    HW178726  11.327  10.040  12.329
25631SOL    HW278727  11.444   9.948  12.302
25632SOL     OW78728   0.804   7.989   9.083
25632SOL    HW178729   0.789   7.933   9.159
25632SOL    HW278730   0.717   8.018   9.056
25633SOL     OW78731  11.448   6.518   4.975
25633SOL    HW178732  11.424   6.561   5.057
25633SOL    HW278733  11.539   6.541   4.961
25634SOL     OW78734   1.482  13.425  10.242
25634SOL    HW178735   1.508  13.439  10.151
25634SOL    HW278736   1.446  13.336  10.243
25635SOL     OW78737   7.376   0.430   1.648
25635SOL    HW178738   7.369   0.409   1.555
25635SOL    HW278739   7.464   0.399   1.672
25636SOL     OW78740   9.790   0.145   2.581
25636SOL    HW178741   9.804   0.062   2.534
25636SOL    HW278742   9.832   0.132   2.666
25637SOL     OW78743  12.948   3.558  13.069
25637SOL    HW178744  12.990   3.619  13.009
25637SOL    HW278745  12.861   3.543  13.030
25638SOL     OW78746   5.510  11.270   2.747
25638SOL    HW178747   5.481  11.179   2.746
25638SOL    HW278748   5.464  11.310   2.674
25639SOL     OW78749   4.340   9.745  14.786
25639SOL    HW178750   4.432   9.741  14.761
25639SOL    HW278751   4.340   9.788  14.872
25640SOL     OW78752  11.280   2.777  11.852
25640SOL    HW178753  11.329   2.775  11.770
25640SOL    HW278754  11.219   2.850  11.842
25641SOL     OW78755   7.156   9.249  10.122
25641SOL    HW178756   7.123   9.176  10.174
25641SOL    HW278757   7.137   9.326  10.175
25642SOL     OW78758   9.291   7.321  11.284
25642SOL    HW178759   9.261   7.343  11.195
25642SOL    HW278760   9.274   7.400  11.335
25643SOL     OW78761   8.691   4.709   7.369
25643SOL    HW178762   8.601   4.741   7.379
25643SOL    HW278763   8.685   4.616   7.387
25644SOL     OW78764   8.933  12.076   2.023
25644SOL    HW178765   9.013  12.094   1.973
25644SOL    HW278766   8.924  11.981   2.020
25645SOL     OW78767   3.215   3.499  14.322
25645SOL    HW178768   3.120   3.505  14.313
25645SOL    HW278769   3.249   3.537  14.241
25646SOL     OW78770  11.103   4.092   7.715
25646SOL    HW178771  11.102   4.183   7.683
25646SOL    HW278772  11.170   4.049   7.662
25647SOL     OW78773   1.458   2.434   8.471
25647SOL    HW178774   1.440   2.528   8.470
25647SOL    HW278775   1.450   2.409   8.563
25648SOL     OW78776  13.649   3.915   5.534
25648SOL    HW178777  13.589   3.988   5.547
25648SOL    HW278778  13.612   3.867   5.459
25649SOL     OW78779   9.343   2.876  13.546
25649SOL    HW178780   9.427   2.859  13.503
25649SOL    HW278781   9.334   2.806  13.611
25650SOL     OW78782   1.202   6.460   4.628
25650SOL    HW178783   1.155   6.524   4.574
25650SOL    HW278784   1.155   6.378   4.615
25651SOL     OW78785   3.238   6.460   9.517
25651SOL    HW178786   3.223   6.546   9.556
25651SOL    HW278787   3.205   6.468   9.428
25652SOL     OW78788  14.229   8.074  13.769
25652SOL    HW178789  14.200   8.158  13.734
25652SOL    HW278790  14.316   8.092  13.803
25653SOL     OW78791  14.458   6.917  13.488
25653SOL    HW178792  14.520   6.867  13.540
25653SOL    HW278793  14.372   6.896  13.525
25654SOL     OW78794  10.698   0.736   7.332
25654SOL    HW178795  10.698   0.782   7.416
25654SOL    HW278796  10.621   0.679   7.337
25655SOL     OW78797   2.594  13.876   5.478
25655SOL    HW178798   2.642  13.806   5.435
25655SOL    HW278799   2.555  13.835   5.555
25656SOL     OW78800   5.922   5.212  12.069
25656SOL    HW178801   5.966   5.289  12.032
25656SOL    HW278802   5.962   5.138  12.024
25657SOL     OW78803  13.067   5.402   5.210
25657SOL    HW178804  12.997   5.385   5.273
25657SOL    HW278805  13.033   5.366   5.128
25658SOL     OW78806  13.987   0.284   4.284
25658SOL    HW178807  14.030   0.294   4.199
25658SOL    HW278808  13.902   0.327   4.274
25659SOL     OW78809  13.743   7.139   5.492
25659SOL    HW178810  13.753   7.050   5.525
25659SOL    HW278811  13.747   7.194   5.570
25660SOL     OW78812   2.925   4.596  13.301
25660SOL    HW178813   2.983   4.626  13.232
25660SOL    HW278814   2.948   4.503  13.313
25661SOL     OW78815   2.260   5.490   0.829
25661SOL    HW178816   2.201   5.550   0.875
25661SOL    HW278817   2.336   5.544   0.807
25662SOL     OW78818   1.551   1.093  11.212
25662SOL    HW178819   1.603   1.041  11.273
25662SOL    HW278820   1.461   1.080  11.240
25663SOL     OW78821  13.344  13.126  11.024
25663SOL    HW178822  13.427  13.118  10.979
25663SOL    HW278823  13.359  13.085  11.110
25664SOL     OW78824  10.888   3.941  14.855
25664SOL    HW178825  10.863   4.024  14.815
25664SOL    HW278826  10.845   3.874  14.801
25665SOL     OW78827   0.572   9.889   2.160
25665SOL    HW178828   0.636   9.861   2.225
25665SOL    HW278829   0.595   9.980   2.142
25666SOL     OW78830  14.223  11.341  14.245
25666SOL    HW178831  14.261  11.268  14.293
25666SOL    HW278832  14.144  11.306  14.205
25667SOL     OW78833  14.390   4.235   4.374
25667SOL    HW178834  14.307   4.209   4.334
25667SOL    HW278835  14.451   4.241   4.300
25668SOL     OW78836  11.210  11.128   5.148
25668SOL    HW178837  11.171  11.187   5.084
25668SOL    HW278838  11.159  11.047   5.141
25669SOL     OW78839   1.780   6.706  11.462
25669SOL    HW178840   1.771   6.681  11.554
25669SOL    HW278841   1.851   6.651  11.429
25670SOL     OW78842   2.119   2.667   3.733
25670SOL    HW178843   2.082   2.683   3.820
25670SOL    HW278844   2.195   2.724   3.729
25671SOL     OW78845  10.825   2.237   5.200
25671SOL    HW178846  10.765   2.247   5.275
25671SOL    HW278847  10.891   2.175   5.231
25672SOL     OW78848  13.727  13.351  12.856
25672SOL    HW178849  13.646  13.401  12.862
25672SOL    HW278850  13.719  13.301  12.775
25673SOL     OW78851  11.653  12.589   5.575
25673SOL    HW178852  11.656  12.648   5.650
25673SOL    HW278853  11.609  12.639   5.506
25674SOL     OW78854   5.363  14.526  10.158
25674SOL    HW178855   5.348  14.470  10.234
25674SOL    HW278856   5.448  14.567  10.174
25675SOL     OW78857  10.888  13.981  12.968
25675SOL    HW178858  10.830  14.047  13.006
25675SOL    HW278859  10.973  14.025  12.962
25676SOL     OW78860   1.407  10.735   7.902
25676SOL    HW178861   1.352  10.770   7.832
25676SOL    HW278862   1.497  10.756   7.875
25677SOL     OW78863   1.954  11.417   3.299
25677SOL    HW178864   1.951  11.348   3.232
25677SOL    HW278865   1.917  11.377   3.377
25678SOL     OW78866   0.506  14.419   6.534
25678SOL    HW178867   0.543  14.507   6.540
25678SOL    HW278868   0.524  14.378   6.618
25679SOL     OW78869  13.789   8.668   1.701
25679SOL    HW178870  13.753   8.697   1.617
25679SOL    HW278871  13.804   8.748   1.750
25680SOL     OW78872   5.561   1.717   8.038
25680SOL    HW178873   5.551   1.805   8.072
25680SOL    HW278874   5.653   1.696   8.050
25681SOL     OW78875   2.635   6.454  11.698
25681SOL    HW178876   2.660   6.546  11.707
25681SOL    HW278877   2.561   6.444  11.758
25682SOL     OW78878   8.195   7.337   1.670
25682SOL    HW178879   8.250   7.297   1.737
25682SOL    HW278880   8.108   7.339   1.708
25683SOL     OW78881  14.731   1.972  11.498
25683SOL    HW178882  14.741   2.047  11.440
25683SOL    HW278883  14.748   2.006  11.586
25684SOL     OW78884   2.672  12.284  14.445
25684SOL    HW178885   2.768  12.280  14.451
25684SOL    HW278886   2.654  12.368  14.402
25685SOL     OW78887   6.864   4.818   3.145
25685SOL    HW178888   6.840   4.782   3.060
25685SOL    HW278889   6.781   4.835   3.188
25686SOL     OW78890   5.059  11.136   4.809
25686SOL    HW178891   5.010  11.062   4.844
25686SOL    HW278892   5.136  11.096   4.768
25687SOL     OW78893   2.506   4.134   9.152
25687SOL    HW178894   2.520   4.067   9.219
25687SOL    HW278895   2.590   4.141   9.107
25688SOL     OW78896   6.645   0.080   2.200
25688SOL    HW178897   6.581   0.091   2.130
25688SOL    HW278898   6.730   0.095   2.159
25689SOL     OW78899   5.221   8.487   8.797
25689SOL    HW178900   5.253   8.559   8.744
25689SOL    HW278901   5.150   8.526   8.849
25690SOL     OW78902   0.437   9.525   7.261
25690SOL    HW178903   0.455   9.521   7.167
25690SOL    HW278904   0.350   9.486   7.270
25691SOL     OW78905  10.568  11.714  10.374
25691SOL    HW178906  10.587  11.730  10.467
25691SOL    HW278907  10.652  11.685  10.338
25692SOL     OW78908   9.346  10.843   0.481
25692SOL    HW178909   9.400  10.821   0.557
25692SOL    HW278910   9.372  10.932   0.458
25693SOL     OW78911   0.098   1.803   5.131
25693SOL    HW178912   0.177   1.796   5.186
25693SOL    HW278913   0.128   1.775   5.044
25694SOL     OW78914   9.608   5.348  11.013
25694SOL    HW178915   9.557   5.330  10.934
25694SOL    HW278916   9.697   5.360  10.982
25695SOL     OW78917  13.388   3.606  12.352
25695SOL    HW178918  13.456   3.665  12.384
25695SOL    HW278919  13.367   3.639  12.265
25696SOL     OW78920   4.824  13.713   9.814
25696SOL    HW178921   4.812  13.782   9.879
25696SOL    HW278922   4.916  13.719   9.789
25697SOL     OW78923   9.029  14.225  10.768
25697SOL    HW178924   9.062  14.255  10.853
25697SOL    HW278925   9.091  14.261  10.704
25698SOL     OW78926  13.822   0.760   0.012
25698SOL    HW178927  13.784   0.706   0.082
25698SOL    HW278928  13.807   0.850   0.041
25699SOL     OW78929   4.771   3.721   3.508
25699SOL    HW178930   4.705   3.653   3.518
25699SOL    HW278931   4.773   3.739   3.414
25700SOL     OW78932   0.113   3.747   6.247
25700SOL    HW178933   0.117   3.832   6.291
25700SOL    HW278934   0.203   3.713   6.253
25701SOL     OW78935   9.313   0.123   7.587
25701SOL    HW178936   9.256   0.162   7.520
25701SOL    HW278937   9.252   0.092   7.655
25702SOL     OW78938   8.188  11.344   1.145
25702SOL    HW178939   8.245  11.313   1.216
25702SOL    HW278940   8.100  11.345   1.184
25703SOL     OW78941   9.531   7.311   8.210
25703SOL    HW178942   9.589   7.259   8.155
25703SOL    HW278943   9.487   7.247   8.266
25704SOL     OW78944   2.216   3.793  14.541
25704SOL    HW178945   2.275   3.857  14.501
25704SOL    HW278946   2.143   3.785  14.480
25705SOL     OW78947  12.126   2.060   6.556
25705SOL    HW178948  12.113   2.154   6.545
25705SOL    HW278949  12.079   2.021   6.483
25706SOL     OW78950   3.457   3.249   5.464
25706SOL    HW178951   3.381   3.217   5.416
25706SOL    HW278952   3.431   3.336   5.494
25707SOL     OW78953   6.615   9.280   8.920
25707SOL    HW178954   6.531   9.313   8.951
25707SOL    HW278955   6.595   9.241   8.835
25708SOL     OW78956   9.283   3.674  10.432
25708SOL    HW178957   9.339   3.597  10.421
25708SOL    HW278958   9.342   3.748  10.421
25709SOL     OW78959   8.965   8.062   8.447
25709SOL    HW178960   9.018   8.132   8.410
25709SOL    HW278961   9.015   8.031   8.522
25710SOL     OW78962   4.278  13.200   6.898
25710SOL    HW178963   4.288  13.105   6.894
25710SOL    HW278964   4.249  13.217   6.988
25711SOL     OW78965  11.961   5.293  13.328
25711SOL    HW178966  12.041   5.334  13.361
25711SOL    HW278967  11.938   5.344  13.251
25712SOL     OW78968  14.136   3.919   3.518
25712SOL    HW178969  14.061   3.861   3.535
25712SOL    HW278970  14.164   3.947   3.606
25713SOL     OW78971   6.628   5.743   4.457
25713SOL    HW178972   6.547   5.766   4.411
25713SOL    HW278973   6.668   5.827   4.479
25714SOL     OW78974   2.938  12.408   8.439
25714SOL    HW178975   2.934  12.438   8.530
25714SOL    HW278976   2.952  12.487   8.388
25715SOL     OW78977  10.818   5.803   7.033
25715SOL    HW178978  10.733   5.829   7.070
25715SOL    HW278979  10.872   5.783   7.109
25716SOL     OW78980   7.842  13.846  12.695
25716SOL    HW178981   7.839  13.942  12.693
25716SOL    HW278982   7.754  13.820  12.724
25717SOL     OW78983   3.694   2.665  13.052
25717SOL    HW178984   3.600   2.677  13.041
25717SOL    HW278985   3.702   2.585  13.103
25718SOL     OW78986  10.818  10.829   1.731
25718SOL    HW178987  10.814  10.921   1.757
25718SOL    HW278988  10.788  10.781   1.809
25719SOL     OW78989   3.191   1.525  13.775
25719SOL    HW178990   3.171   1.611  13.739
25719SOL    HW278991   3.244   1.542  13.852
25720SOL     OW78992  12.685   7.326  10.002
25720SOL    HW178993  12.701   7.237  10.032
25720SOL    HW278994  12.601   7.321   9.956
25721SOL     OW78995   8.903   1.569  12.005
25721SOL    HW178996   8.931   1.653  11.968
25721SOL    HW278997   8.929   1.504  11.940
25722SOL     OW78998  10.189  12.380   2.820
25722SOL    HW178999  10.283  12.398   2.817
25722SOL    HW279000  10.149  12.466   2.827
25723SOL     OW79001   4.147   2.916   7.865
25723SOL    HW179002   4.165   2.823   7.868
25723SOL    HW279003   4.180   2.944   7.779
25724SOL     OW79004   4.107   8.557  11.179
25724SOL    HW179005   4.158   8.479  11.202
25724SOL    HW279006   4.116   8.615  11.254
25725SOL     OW79007   3.222   0.736   7.146
25725SOL    HW179008   3.249   0.798   7.214
25725SOL    HW279009   3.190   0.660   7.195
25726SOL     OW79010  10.219   8.676   1.752
25726SOL    HW179011  10.194   8.768   1.759
25726SOL    HW279012  10.310   8.679   1.720
25727SOL     OW79013   8.895   5.741  12.202
25727SOL    HW179014   8.840   5.695  12.138
25727SOL    HW279015   8.974   5.765  12.154
25728SOL     OW79016   6.969   0.639   5.022
25728SOL    HW179017   6.920   0.674   5.097
25728SOL    HW279018   7.018   0.714   4.989
25729SOL     OW79019   5.353   9.494   6.825
25729SOL    HW179020   5.394   9.532   6.748
25729SOL    HW279021   5.420   9.437   6.863
25730SOL     OW79022   3.587   8.450   0.081
25730SOL    HW179023   3.623   8.433   0.168
25730SOL    HW279024   3.606   8.543   0.065
25731SOL     OW79025   2.547   2.364   7.751
25731SOL    HW179026   2.600   2.422   7.805
25731SOL    HW279027   2.534   2.412   7.670
25732SOL     OW79028  13.144  13.780  11.870
25732SOL    HW179029  13.124  13.813  11.957
25732SOL    HW279030  13.063  13.737  11.842
25733SOL     OW79031  13.943   1.010  10.625
25733SOL    HW179032  13.957   0.924  10.665
25733SOL    HW279033  13.902   1.062  10.694
25734SOL     OW79034   3.084   3.155   7.262
25734SOL    HW179035   3.046   3.230   7.309
25734SOL    HW279036   3.158   3.128   7.317
25735SOL     OW79037   3.128   7.917   5.304
25735SOL    HW179038   3.144   7.997   5.254
25735SOL    HW279039   3.089   7.856   5.241
25736SOL     OW79040   5.344   2.168   7.915
25736SOL    HW179041   5.295   2.121   7.847
25736SOL    HW279042   5.283   2.235   7.946
25737SOL     OW79043  13.061  11.612  14.687
25737SOL    HW179044  13.090  11.653  14.605
25737SOL    HW279045  13.006  11.679  14.728
25738SOL     OW79046   5.337   9.271   6.103
25738SOL    HW179047   5.315   9.238   6.190
25738SOL    HW279048   5.428   9.243   6.089
25739SOL     OW79049   8.401   0.097   3.067
25739SOL    HW179050   8.424   0.190   3.073
25739SOL    HW279051   8.366   0.075   3.153
25740SOL     OW79052   5.330   8.693  14.576
25740SOL    HW179053   5.381   8.732  14.647
25740SOL    HW279054   5.357   8.602  14.573
25741SOL     OW79055  10.981  14.125   5.748
25741SOL    HW179056  11.026  14.145   5.830
25741SOL    HW279057  10.915  14.061   5.773
25742SOL     OW79058   1.098  11.826   8.682
25742SOL    HW179059   1.176  11.871   8.650
25742SOL    HW279060   1.060  11.885   8.747
25743SOL     OW79061   7.818   7.104   8.515
25743SOL    HW179062   7.883   7.158   8.560
25743SOL    HW279063   7.854   7.092   8.427
25744SOL     OW79064   0.971   9.976   3.216
25744SOL    HW179065   1.054   9.927   3.212
25744SOL    HW279066   0.980  10.044   3.150
25745SOL     OW79067   9.896  11.614   6.744
25745SOL    HW179068   9.940  11.676   6.801
25745SOL    HW279069   9.965  11.579   6.688
25746SOL     OW79070   0.917   0.319   6.371
25746SOL    HW179071   0.941   0.345   6.282
25746SOL    HW279072   0.991   0.345   6.425
25747SOL     OW79073   1.356   9.365   5.067
25747SOL    HW179074   1.387   9.277   5.089
25747SOL    HW279075   1.340   9.363   4.973
25748SOL     OW79076   8.595  10.439   2.377
25748SOL    HW179077   8.524  10.397   2.328
25748SOL    HW279078   8.673  10.388   2.353
25749SOL     OW79079   7.529   5.222   8.305
25749SOL    HW179080   7.576   5.157   8.251
25749SOL    HW279081   7.446   5.180   8.325
25750SOL     OW79082  11.650   2.957  10.110
25750SOL    HW179083  11.724   2.983  10.165
25750SOL    HW279084  11.573   2.973  10.165
25751SOL     OW79085   0.861   6.800  14.498
25751SOL    HW179086   0.950   6.788  14.466
25751SOL    HW279087   0.867   6.785  14.592
25752SOL     OW79088   4.994   4.876   5.321
25752SOL    HW179089   5.053   4.952   5.312
25752SOL    HW279090   4.929   4.904   5.386
25753SOL     OW79091   6.117   2.165  13.587
25753SOL    HW179092   6.033   2.129  13.614
25753SOL    HW279093   6.105   2.260  13.587
25754SOL     OW79094   3.271  10.357   2.399
25754SOL    HW179095   3.207  10.295   2.435
25754SOL    HW279096   3.310  10.311   2.325
25755SOL     OW79097  10.860   3.298   9.358
25755SOL    HW179098  10.798   3.295   9.431
25755SOL    HW279099  10.864   3.390   9.333
25756SOL     OW79100  13.788   9.124   9.841
25756SOL    HW179101  13.809   9.039   9.878
25756SOL    HW279102  13.872   9.157   9.808
25757SOL     OW79103   6.238   9.324  13.593
25757SOL    HW179104   6.261   9.231  13.585
25757SOL    HW279105   6.243   9.358  13.504
25758SOL     OW79106  10.523  11.669   7.891
25758SOL    HW179107  10.461  11.673   7.964
25758SOL    HW279108  10.533  11.576   7.873
25759SOL     OW79109   3.651  12.804   4.954
25759SOL    HW179110   3.594  12.878   4.977
25759SOL    HW279111   3.646  12.746   5.029
25760SOL     OW79112   7.359  10.523  10.980
25760SOL    HW179113   7.440  10.559  11.015
25760SOL    HW279114   7.377  10.509  10.887
25761SOL     OW79115   7.766  10.313   3.197
25761SOL    HW179116   7.700  10.362   3.147
25761SOL    HW279117   7.748  10.222   3.176
25762SOL     OW79118   4.649   1.236  12.826
25762SOL    HW179119   4.695   1.191  12.897
25762SOL    HW279120   4.652   1.329  12.851
25763SOL     OW79121   6.964   2.162   3.691
25763SOL    HW179122   6.952   2.190   3.782
25763SOL    HW279123   6.876   2.165   3.654
25764SOL     OW79124   5.827   6.093   5.710
25764SOL    HW179125   5.834   6.174   5.659
25764SOL    HW279126   5.878   6.029   5.660
25765SOL     OW79127   3.859   0.264   2.519
25765SOL    HW179128   3.777   0.260   2.568
25765SOL    HW279129   3.871   0.358   2.501
25766SOL     OW79130   6.924   1.855   0.566
25766SOL    HW179131   6.913   1.868   0.471
25766SOL    HW279132   6.967   1.936   0.596
25767SOL     OW79133   4.678   3.600  11.600
25767SOL    HW179134   4.679   3.601  11.505
25767SOL    HW279135   4.651   3.510  11.622
25768SOL     OW79136  11.600   3.082   8.031
25768SOL    HW179137  11.554   3.163   8.052
25768SOL    HW279138  11.589   3.072   7.936
25769SOL     OW79139   6.928  13.807   6.228
25769SOL    HW179140   6.880  13.868   6.284
25769SOL    HW279141   6.898  13.826   6.139
25770SOL     OW79142   3.913   7.663  11.963
25770SOL    HW179143   3.932   7.624  11.878
25770SOL    HW279144   3.935   7.756  11.953
25771SOL     OW79145   7.626   0.044  12.175
25771SOL    HW179146   7.567   0.039  12.251
25771SOL    HW279147   7.713   0.056  12.213
25772SOL     OW79148   4.502   8.917   3.454
25772SOL    HW179149   4.495   9.003   3.494
25772SOL    HW279150   4.586   8.883   3.485
25773SOL     OW79151   9.050  13.328   3.386
25773SOL    HW179152   9.050  13.280   3.468
25773SOL    HW279153   9.142  13.350   3.369
25774SOL     OW79154   4.531   8.655   4.767
25774SOL    HW179155   4.592   8.702   4.708
25774SOL    HW279156   4.575   8.656   4.852
25775SOL     OW79157  10.208   0.111   1.429
25775SOL    HW179158  10.254   0.134   1.349
25775SOL    HW279159  10.155   0.187   1.450
25776SOL     OW79160   3.527  13.148   6.597
25776SOL    HW179161   3.611  13.111   6.571
25776SOL    HW279162   3.518  13.125   6.690
25777SOL     OW79163  13.230   1.203   2.729
25777SOL    HW179164  13.308   1.257   2.717
25777SOL    HW279165  13.258   1.114   2.713
25778SOL     OW79166   8.882  11.500   7.642
25778SOL    HW179167   8.881  11.450   7.723
25778SOL    HW279168   8.809  11.562   7.651
25779SOL     OW79169   5.938  11.008  13.546
25779SOL    HW179170   5.870  11.072  13.524
25779SOL    HW279171   5.916  10.979  13.634
25780SOL     OW79172   6.127  10.785  10.131
25780SOL    HW179173   6.098  10.875  10.118
25780SOL    HW279174   6.220  10.786  10.109
25781SOL     OW79175   6.405  12.568   8.082
25781SOL    HW179176   6.487  12.586   8.036
25781SOL    HW279177   6.389  12.647   8.133
25782SOL     OW79178   3.056   2.596   3.470
25782SOL    HW179179   3.028   2.507   3.491
25782SOL    HW279180   2.977   2.649   3.476
25783SOL     OW79181  14.454   5.247  12.258
25783SOL    HW179182  14.498   5.178  12.209
25783SOL    HW279183  14.525   5.300  12.294
25784SOL     OW79184   4.496   0.274   2.129
25784SOL    HW179185   4.491   0.213   2.055
25784SOL    HW279186   4.490   0.219   2.207
25785SOL     OW79187   5.605   1.515   3.083
25785SOL    HW179188   5.637   1.558   3.004
25785SOL    HW279189   5.682   1.509   3.139
25786SOL     OW79190  11.857  12.636  14.627
25786SOL    HW179191  11.856  12.545  14.656
25786SOL    HW279192  11.830  12.633  14.535
25787SOL     OW79193   5.663   6.062  12.044
25787SOL    HW179194   5.687   6.040  11.954
25787SOL    HW279195   5.679   6.156  12.051
25788SOL     OW79196  12.767   8.363   2.854
25788SOL    HW179197  12.755   8.430   2.786
25788SOL    HW279198  12.824   8.298   2.813
25789SOL     OW79199   4.290  10.694   9.453
25789SOL    HW179200   4.341  10.736   9.523
25789SOL    HW279201   4.297  10.754   9.379
25790SOL     OW79202   0.739  10.276  13.383
25790SOL    HW179203   0.708  10.269  13.293
25790SOL    HW279204   0.697  10.355  13.417
25791SOL     OW79205   4.694   5.335  12.765
25791SOL    HW179206   4.715   5.388  12.841
25791SOL    HW279207   4.761   5.267  12.764
25792SOL     OW79208   9.524   9.698  10.251
25792SOL    HW179209   9.548   9.607  10.271
25792SOL    HW279210   9.510   9.699  10.157
25793SOL     OW79211   5.888   5.943   1.340
25793SOL    HW179212   5.796   5.932   1.363
25793SOL    HW279213   5.910   5.865   1.289
25794SOL     OW79214   8.938  13.678   2.111
25794SOL    HW179215   8.941  13.582   2.111
25794SOL    HW279216   8.891  13.701   2.031
25795SOL     OW79217   6.703   4.226   2.112
25795SOL    HW179218   6.634   4.234   2.178
25795SOL    HW279219   6.696   4.307   2.060
25796SOL     OW79220   9.872   8.924   4.127
25796SOL    HW179221   9.920   9.003   4.152
25796SOL    HW279222   9.811   8.954   4.059
25797SOL     OW79223   5.438  14.173  11.863
25797SOL    HW179224   5.480  14.129  11.936
25797SOL    HW279225   5.462  14.265  11.872
25798SOL     OW79226  11.056   7.116   7.161
25798SOL    HW179227  11.152   7.126   7.163
25798SOL    HW279228  11.023   7.205   7.154
25799SOL     OW79229  10.974   9.507   4.056
25799SOL    HW179230  11.060   9.496   4.016
25799SOL    HW279231  10.992   9.517   4.150
25800SOL     OW79232  11.243   8.073   7.776
25800SOL    HW179233  11.174   8.082   7.711
25800SOL    HW279234  11.265   8.163   7.800
25801SOL     OW79235  14.256   8.663   4.880
25801SOL    HW179236  14.301   8.740   4.914
25801SOL    HW279237  14.164   8.691   4.872
25802SOL     OW79238   8.854   8.703   9.360
25802SOL    HW179239   8.760   8.696   9.348
25802SOL    HW279240   8.884   8.757   9.287
25803SOL     OW79241   4.304   1.229   6.143
25803SOL    HW179242   4.363   1.300   6.120
25803SOL    HW279243   4.241   1.225   6.071
25804SOL     OW79244   1.553   9.722   3.756
25804SOL    HW179245   1.489   9.767   3.700
25804SOL    HW279246   1.634   9.723   3.705
25805SOL     OW79247   3.118  12.267   3.007
25805SOL    HW179248   3.046  12.321   2.972
25805SOL    HW279249   3.097  12.257   3.100
25806SOL     OW79250   8.072   3.046  14.093
25806SOL    HW179251   8.153   3.044  14.144
25806SOL    HW279252   8.054   3.139  14.079
25807SOL     OW79253   6.176  10.317  10.661
25807SOL    HW179254   6.139  10.311  10.749
25807SOL    HW279255   6.214  10.405  10.657
25808SOL     OW79256   7.092   7.111  10.141
25808SOL    HW179257   7.175   7.088  10.100
25808SOL    HW279258   7.025   7.085  10.078
25809SOL     OW79259   6.951  12.784   5.917
25809SOL    HW179260   6.957  12.879   5.927
25809SOL    HW279261   6.928  12.772   5.825
25810SOL     OW79262  13.326   0.257  11.787
25810SOL    HW179263  13.417   0.233  11.808
25810SOL    HW279264  13.334   0.341  11.741
25811SOL     OW79265  12.344  12.840  14.436
25811SOL    HW179266  12.306  12.770  14.489
25811SOL    HW279267  12.351  12.802  14.348
25812SOL     OW79268   5.442   8.091  10.790
25812SOL    HW179269   5.383   8.021  10.818
25812SOL    HW279270   5.462   8.071  10.699
25813SOL     OW79271   2.283  13.366  13.349
25813SOL    HW179272   2.207  13.353  13.404
25813SOL    HW279273   2.252  13.347  13.260
25814SOL     OW79274   8.898  10.232   7.463
25814SOL    HW179275   8.854  10.271   7.539
25814SOL    HW279276   8.826  10.205   7.406
25815SOL     OW79277  11.238  10.168   6.513
25815SOL    HW179278  11.190  10.111   6.574
25815SOL    HW279279  11.252  10.113   6.436
25816SOL     OW79280  10.932  14.277  10.669
25816SOL    HW179281  10.838  14.261  10.665
25816SOL    HW279282  10.959  14.282  10.577
25817SOL     OW79283   0.351   0.094  12.261
25817SOL    HW179284   0.363   0.153  12.336
25817SOL    HW279285   0.302   0.147  12.198
25818SOL     OW79286  11.377   0.613   3.640
25818SOL    HW179287  11.465   0.614   3.675
25818SOL    HW279288  11.380   0.676   3.567
25819SOL     OW79289   9.818   9.375  11.387
25819SOL    HW179290   9.736   9.338  11.354
25819SOL    HW279291   9.843   9.316  11.458
25820SOL     OW79292   3.234   2.490   6.625
25820SOL    HW179293   3.217   2.564   6.684
25820SOL    HW279294   3.155   2.482   6.573
25821SOL     OW79295   9.878  10.560   1.659
25821SOL    HW179296   9.948  10.607   1.702
25821SOL    HW279297   9.847  10.497   1.724
25822SOL     OW79298  14.791   1.550   3.115
25822SOL    HW179299  14.700   1.576   3.131
25822SOL    HW279300  14.820   1.606   3.043
25823SOL     OW79301   7.278   3.663   8.730
25823SOL    HW179302   7.191   3.657   8.771
25823SOL    HW279303   7.297   3.574   8.702
25824SOL     OW79304   7.391  10.245   1.965
25824SOL    HW179305   7.410  10.307   2.037
25824SOL    HW279306   7.297  10.228   1.973
25825SOL     OW79307   2.432   7.111   9.629
25825SOL    HW179308   2.348   7.093   9.672
25825SOL    HW279309   2.464   7.025   9.602
25826SOL     OW79310   9.559  14.383  13.243
25826SOL    HW179311   9.597  14.295  13.240
25826SOL    HW279312   9.581  14.421  13.157
25827SOL     OW79313   7.299   6.059   9.398
25827SOL    HW179314   7.312   5.971   9.435
25827SOL    HW279315   7.380   6.077   9.350
25828SOL     OW79316   6.394   1.722  13.139
25828SOL    HW179317   6.338   1.796  13.115
25828SOL    HW279318   6.443   1.753  13.216
25829SOL     OW79319  13.824  13.748   3.096
25829SOL    HW179320  13.844  13.655   3.110
25829SOL    HW279321  13.734  13.758   3.124
25830SOL     OW79322  13.342   4.025  12.582
25830SOL    HW179323  13.403   3.984  12.521
25830SOL    HW279324  13.286   4.080  12.528
25831SOL     OW79325  12.476  14.822   7.992
25831SOL    HW179326  12.489  14.786   7.904
25831SOL    HW279327  12.547  14.785   8.044
25832SOL     OW79328   7.667   1.855   8.644
25832SOL    HW179329   7.729   1.784   8.631
25832SOL    HW279330   7.686   1.887   8.733
25833SOL     OW79331   0.801   5.782   3.044
25833SOL    HW179332   0.729   5.843   3.063
25833SOL    HW279333   0.757   5.700   3.022
25834SOL     OW79334   2.161  13.297   2.442
25834SOL    HW179335   2.223  13.308   2.370
25834SOL    HW279336   2.108  13.376   2.440
25835SOL     OW79337   2.811   3.790  12.370
25835SOL    HW179338   2.870   3.727  12.330
25835SOL    HW279339   2.869   3.849  12.419
25836SOL     OW79340   7.520  13.241   3.740
25836SOL    HW179341   7.532  13.234   3.645
25836SOL    HW279342   7.427  13.256   3.752
25837SOL     OW79343  12.402   2.745  12.325
25837SOL    HW179344  12.437   2.711  12.407
25837SOL    HW279345  12.470   2.804  12.292
25838SOL     OW79346   2.602   2.877   2.954
25838SOL    HW179347   2.676   2.844   2.903
25838SOL    HW279348   2.529   2.879   2.892
25839SOL     OW79349   4.790  13.757   3.409
25839SOL    HW179350   4.824  13.668   3.415
25839SOL    HW279351   4.833  13.804   3.481
25840SOL     OW79352   0.896   4.870   2.940
25840SOL    HW179353   0.974   4.850   2.993
25840SOL    HW279354   0.827   4.885   3.004
25841SOL     OW79355   4.339  13.701   5.323
25841SOL    HW179356   4.275  13.760   5.284
25841SOL    HW279357   4.361  13.641   5.252
25842SOL     OW79358   3.300   6.687   8.977
25842SOL    HW179359   3.347   6.623   8.922
25842SOL    HW279360   3.330   6.668   9.066
25843SOL     OW79361   4.858  14.636  14.502
25843SOL    HW179362   4.952  14.632  14.486
25843SOL    HW279363   4.851  14.665  14.593
25844SOL     OW79364   9.339   7.555  12.668
25844SOL    HW179365   9.343   7.532  12.761
25844SOL    HW279366   9.318   7.648  12.668
25845SOL     OW79367   9.439   9.573   7.239
25845SOL    HW179368   9.496   9.507   7.280
25845SOL    HW279369   9.473   9.656   7.272
25846SOL     OW79370  11.255   7.439  14.455
25846SOL    HW179371  11.300   7.356  14.466
25846SOL    HW279372  11.233   7.443  14.362
25847SOL     OW79373   3.676   5.711   4.594
25847SOL    HW179374   3.636   5.754   4.670
25847SOL    HW279375   3.770   5.714   4.612
25848SOL     OW79376  11.524   0.034   4.706
25848SOL    HW179377  11.511  14.828   4.663
25848SOL    HW279378  11.472   0.027   4.786
25849SOL     OW79379  13.741   8.969  12.345
25849SOL    HW179380  13.675   9.038  12.339
25849SOL    HW279381  13.806   8.992  12.279
25850SOL     OW79382   0.538  12.597  14.202
25850SOL    HW179383   0.552  12.606  14.108
25850SOL    HW279384   0.506  12.508  14.214
25851SOL     OW79385  10.567   6.938   0.524
25851SOL    HW179386  10.615   6.856   0.535
25851SOL    HW279387  10.634   7.002   0.500
25852SOL     OW79388  11.179  10.445   6.819
25852SOL    HW179389  11.240  10.433   6.746
25852SOL    HW279390  11.101  10.396   6.793
25853SOL     OW79391   1.751   0.838   9.084
25853SOL    HW179392   1.717   0.770   9.142
25853SOL    HW279393   1.818   0.883   9.136
25854SOL     OW79394  12.394   0.054   4.493
25854SOL    HW179395  12.460   0.018   4.552
25854SOL    HW279396  12.318   0.070   4.549
25855SOL     OW79397  11.973   4.577  14.147
25855SOL    HW179398  12.025   4.607  14.072
25855SOL    HW279399  12.023   4.504  14.183
25856SOL     OW79400   1.482  10.940  10.121
25856SOL    HW179401   1.410  10.895  10.165
25856SOL    HW279402   1.472  10.918  10.028
25857SOL     OW79403   0.665   2.520   2.237
25857SOL    HW179404   0.593   2.480   2.188
25857SOL    HW279405   0.680   2.460   2.310
25858SOL     OW79406   6.559  13.541   7.410
25858SOL    HW179407   6.495  13.544   7.481
25858SOL    HW279408   6.539  13.617   7.356
25859SOL     OW79409   0.736  10.511   8.552
25859SOL    HW179410   0.831  10.519   8.549
25859SOL    HW279411   0.707  10.539   8.465
25860SOL     OW79412  13.664   2.486   4.018
25860SOL    HW179413  13.575   2.519   4.004
25860SOL    HW279414  13.676   2.419   3.951
25861SOL     OW79415   7.090   9.896   3.145
25861SOL    HW179416   7.155   9.914   3.213
25861SOL    HW279417   7.006   9.895   3.192
25862SOL     OW79418  14.750  11.129  10.125
25862SOL    HW179419  14.823  11.147  10.065
25862SOL    HW279420  14.672  11.148  10.074
25863SOL     OW79421  11.240   6.595  13.197
25863SOL    HW179422  11.316   6.553  13.236
25863SOL    HW279423  11.166   6.565  13.248
25864SOL     OW79424   6.970   7.634   6.919
25864SOL    HW179425   7.007   7.633   6.831
25864SOL    HW279426   7.046   7.630   6.977
25865SOL     OW79427  14.036   0.603   3.274
25865SOL    HW179428  13.971   0.536   3.292
25865SOL    HW279429  14.110   0.581   3.331
25866SOL     OW79430   0.285   0.008   2.918
25866SOL    HW179431   0.289  14.819   2.851
25866SOL    HW279432   0.323  14.846   2.996
25867SOL     OW79433   8.329   8.399   5.738
25867SOL    HW179434   8.359   8.342   5.809
25867SOL    HW279435   8.371   8.363   5.659
25868SOL     OW79436   4.705   8.988   0.171
25868SOL    HW179437   4.631   9.031   0.127
25868SOL    HW279438   4.777   9.050   0.160
25869SOL     OW79439   9.428   2.128   4.518
25869SOL    HW179440   9.435   2.222   4.532
25869SOL    HW279441   9.339   2.115   4.486
25870SOL     OW79442   4.118   4.378   3.249
25870SOL    HW179443   4.083   4.289   3.242
25870SOL    HW279444   4.066   4.420   3.317
25871SOL     OW79445  12.563   6.822   2.315
25871SOL    HW179446  12.622   6.797   2.386
25871SOL    HW279447  12.476   6.816   2.353
25872SOL     OW79448  11.895   4.512   9.619
25872SOL    HW179449  11.925   4.526   9.709
25872SOL    HW279450  11.971   4.475   9.573
25873SOL     OW79451   5.458   2.798   6.239
25873SOL    HW179452   5.440   2.790   6.333
25873SOL    HW279453   5.546   2.761   6.228
25874SOL     OW79454  11.215  12.983   6.467
25874SOL    HW179455  11.148  12.914   6.471
25874SOL    HW279456  11.239  12.987   6.374
25875SOL     OW79457   7.281  11.321   2.488
25875SOL    HW179458   7.303  11.309   2.396
25875SOL    HW279459   7.215  11.391   2.488
25876SOL     OW79460   3.523   6.452   1.387
25876SOL    HW179461   3.505   6.399   1.309
25876SOL    HW279462   3.553   6.389   1.452
25877SOL     OW79463   5.925  11.827   9.377
25877SOL    HW179464   5.888  11.765   9.314
25877SOL    HW279465   5.975  11.773   9.438
25878SOL     OW79466   3.502  11.507   2.024
25878SOL    HW179467   3.510  11.453   2.103
25878SOL    HW279468   3.423  11.559   2.040
25879SOL     OW79469  10.397  11.380   3.643
25879SOL    HW179470  10.452  11.333   3.580
25879SOL    HW279471  10.403  11.472   3.616
25880SOL     OW79472  13.602   8.860  13.295
25880SOL    HW179473  13.662   8.874  13.368
25880SOL    HW279474  13.542   8.934  13.299
25881SOL     OW79475   5.116   7.375   4.521
25881SOL    HW179476   5.073   7.435   4.582
25881SOL    HW279477   5.055   7.301   4.515
25882SOL     OW79478  14.195   2.657   5.537
25882SOL    HW179479  14.284   2.636   5.564
25882SOL    HW279480  14.138   2.614   5.602
25883SOL     OW79481   0.654  12.009   5.978
25883SOL    HW179482   0.700  11.990   5.896
25883SOL    HW279483   0.663  11.929   6.030
25884SOL     OW79484  10.022   9.578  12.968
25884SOL    HW179485  10.107   9.543  12.942
25884SOL    HW279486  10.013   9.553  13.060
25885SOL     OW79487   7.328   4.172  13.553
25885SOL    HW179488   7.293   4.213  13.632
25885SOL    HW279489   7.413   4.138  13.580
25886SOL     OW79490   5.721   8.438  11.815
25886SOL    HW179491   5.704   8.455  11.722
25886SOL    HW279492   5.776   8.511  11.843
25887SOL     OW79493  13.300   0.544   9.828
25887SOL    HW179494  13.250   0.505   9.899
25887SOL    HW279495  13.284   0.486   9.753
25888SOL     OW79496   0.371  13.246  11.691
25888SOL    HW179497   0.320  13.225  11.770
25888SOL    HW279498   0.459  13.214  11.710
25889SOL     OW79499   1.404   9.924   5.815
25889SOL    HW179500   1.326   9.932   5.760
25889SOL    HW279501   1.460   9.998   5.789
25890SOL     OW79502   6.501  12.285   3.520
25890SOL    HW179503   6.502  12.380   3.504
25890SOL    HW279504   6.410  12.266   3.545
25891SOL     OW79505   3.543  12.469   7.733
25891SOL    HW179506   3.468  12.412   7.714
25891SOL    HW279507   3.514  12.524   7.806
25892SOL     OW79508   9.710   8.757   2.944
25892SOL    HW179509   9.669   8.673   2.924
25892SOL    HW279510   9.681   8.815   2.874
25893SOL     OW79511   8.649   3.478  12.348
25893SOL    HW179512   8.658   3.397  12.398
25893SOL    HW279513   8.579   3.460  12.285
25894SOL     OW79514  13.665   0.971   6.771
25894SOL    HW179515  13.708   1.057   6.772
25894SOL    HW279516  13.694   0.931   6.689
25895SOL     OW79517   8.648   9.470  13.681
25895SOL    HW179518   8.657   9.401  13.616
25895SOL    HW279519   8.671   9.551  13.634
25896SOL     OW79520   1.882   0.937  10.411
25896SOL    HW179521   1.893   1.019  10.458
25896SOL    HW279522   1.969   0.913  10.381
25897SOL     OW79523   1.206   8.079   9.549
25897SOL    HW179524   1.286   8.029   9.534
25897SOL    HW279525   1.148   8.056   9.476
25898SOL     OW79526   0.404  12.645   1.075
25898SOL    HW179527   0.330  12.594   1.042
25898SOL    HW279528   0.438  12.594   1.148
25899SOL     OW79529   9.971   1.863   3.212
25899SOL    HW179530   9.957   1.872   3.306
25899SOL    HW279531  10.055   1.817   3.204
25900SOL     OW79532   8.746  11.420  10.558
25900SOL    HW179533   8.705  11.497  10.521
25900SOL    HW279534   8.829  11.412  10.511
25901SOL     OW79535  10.654   7.218  14.875
25901SOL    HW179536  10.597   7.289  14.844
25901SOL    HW279537  10.741   7.258   0.003
25902SOL     OW79538   6.854  12.447   1.479
25902SOL    HW179539   6.908  12.402   1.545
25902SOL    HW279540   6.764  12.429   1.506
25903SOL     OW79541  10.687  13.740   6.852
25903SOL    HW179542  10.692  13.835   6.862
25903SOL    HW279543  10.660  13.708   6.938
25904SOL     OW79544  10.192   8.777   6.616
25904SOL    HW179545  10.252   8.805   6.685
25904SOL    HW279546  10.246   8.723   6.557
25905SOL     OW79547   5.340   9.278   8.470
25905SOL    HW179548   5.298   9.292   8.555
25905SOL    HW279549   5.395   9.201   8.483
25906SOL     OW79550   6.487   0.723  11.128
25906SOL    HW179551   6.547   0.769  11.186
25906SOL    HW279552   6.494   0.631  11.155
25907SOL     OW79553   3.848   1.370   9.857
25907SOL    HW179554   3.807   1.447   9.897
25907SOL    HW279555   3.807   1.296   9.902
25908SOL     OW79556  10.336   0.676  10.384
25908SOL    HW179557  10.418   0.633  10.360
25908SOL    HW279558  10.346   0.765  10.352
25909SOL     OW79559   0.810   6.818  12.338
25909SOL    HW179560   0.875   6.851  12.276
25909SOL    HW279561   0.800   6.889  12.402
25910SOL     OW79562   3.573   3.192   9.660
25910SOL    HW179563   3.594   3.101   9.639
25910SOL    HW279564   3.622   3.210   9.740
25911SOL     OW79565   4.700   6.655   4.238
25911SOL    HW179566   4.771   6.690   4.184
25911SOL    HW279567   4.623   6.705   4.211
25912SOL     OW79568   2.807   7.672  11.146
25912SOL    HW179569   2.859   7.601  11.182
25912SOL    HW279570   2.716   7.650  11.168
25913SOL     OW79571  10.023   4.875   1.737
25913SOL    HW179572  10.036   4.966   1.764
25913SOL    HW279573  10.101   4.855   1.685
25914SOL     OW79574  12.287  10.221   8.188
25914SOL    HW179575  12.286  10.158   8.116
25914SOL    HW279576  12.253  10.302   8.150
25915SOL     OW79577   1.090  12.277   0.245
25915SOL    HW179578   1.016  12.263   0.186
25915SOL    HW279579   1.080  12.210   0.313
25916SOL     OW79580   3.211  10.623   9.122
25916SOL    HW179581   3.118  10.599   9.125
25916SOL    HW279582   3.253  10.548   9.080
25917SOL     OW79583  10.421  14.321  13.621
25917SOL    HW179584  10.344  14.277  13.658
25917SOL    HW279585  10.495  14.270  13.654
25918SOL     OW79586   8.406   2.140   0.841
25918SOL    HW179587   8.332   2.177   0.794
25918SOL    HW279588   8.464   2.106   0.773
25919SOL     OW79589   9.252  10.433   9.085
25919SOL    HW179590   9.188  10.380   9.133
25919SOL    HW279591   9.336  10.392   9.104
25920SOL     OW79592   9.936   0.202   9.094
25920SOL    HW179593   9.969   0.267   9.156
25920SOL    HW279594   9.915   0.252   9.016
25921SOL     OW79595   1.816   0.601  12.170
25921SOL    HW179596   1.797   0.575  12.260
25921SOL    HW279597   1.793   0.694  12.165
25922SOL     OW79598  12.999   8.940   6.712
25922SOL    HW179599  12.924   8.952   6.770
25922SOL    HW279600  13.002   9.021   6.661
25923SOL     OW79601   9.793   4.954   8.367
25923SOL    HW179602   9.773   4.892   8.437
25923SOL    HW279603   9.857   5.014   8.405
25924SOL     OW79604  10.869  13.493   6.223
25924SOL    HW179605  10.921  13.485   6.143
25924SOL    HW279606  10.917  13.442   6.288
25925SOL     OW79607  11.849   3.779  13.754
25925SOL    HW179608  11.861   3.684  13.745
25925SOL    HW279609  11.930   3.810  13.795
25926SOL     OW79610   4.946   5.599  12.897
25926SOL    HW179611   4.967   5.541  12.824
25926SOL    HW279612   5.006   5.571  12.966
25927SOL     OW79613  13.300   7.558   0.430
25927SOL    HW179614  13.237   7.627   0.453
25927SOL    HW279615  13.265   7.480   0.472
25928SOL     OW79616   8.466   2.273   4.377
25928SOL    HW179617   8.427   2.343   4.324
25928SOL    HW279618   8.415   2.273   4.458
25929SOL     OW79619   4.999  14.164   9.529
25929SOL    HW179620   5.065  14.231   9.514
25929SOL    HW279621   4.929  14.210   9.577
25930SOL     OW79622   4.016  11.147   2.926
25930SOL    HW179623   4.045  11.180   3.011
25930SOL    HW279624   4.094  11.150   2.871
25931SOL     OW79625   2.142   0.573   7.735
25931SOL    HW179626   2.085   0.642   7.767
25931SOL    HW279627   2.229   0.613   7.731
25932SOL     OW79628  11.016   9.429   4.341
25932SOL    HW179629  11.075   9.456   4.411
25932SOL    HW279630  11.015   9.334   4.346
25933SOL     OW79631   0.043   8.564   8.125
25933SOL    HW179632   0.003   8.649   8.108
25933SOL    HW279633   0.067   8.530   8.039
25934SOL     OW79634   1.728   7.074   2.856
25934SOL    HW179635   1.744   6.984   2.827
25934SOL    HW279636   1.761   7.128   2.784
25935SOL     OW79637   7.507   4.412   4.894
25935SOL    HW179638   7.487   4.318   4.899
25935SOL    HW279639   7.428   4.455   4.926
25936SOL     OW79640   4.841   5.064   5.998
25936SOL    HW179641   4.749   5.078   5.975
25936SOL    HW279642   4.884   5.146   5.974
25937SOL     OW79643   8.563  13.683   6.892
25937SOL    HW179644   8.627  13.753   6.902
25937SOL    HW279645   8.616  13.604   6.881
25938SOL     OW79646   7.002  14.497  13.906
25938SOL    HW179647   7.097  14.500  13.899
25938SOL    HW279648   6.984  14.518  13.997
25939SOL     OW79649  14.728   1.596   7.567
25939SOL    HW179650  14.738   1.527   7.633
25939SOL    HW279651  14.748   1.677   7.614
25940SOL     OW79652  14.352  12.975  10.823
25940SOL    HW179653  14.319  13.038  10.759
25940SOL    HW279654  14.293  12.900  10.815
25941SOL     OW79655   1.615  12.433   6.610
25941SOL    HW179656   1.525  12.422   6.640
25941SOL    HW279657   1.612  12.416   6.516
25942SOL     OW79658   0.170   2.303  10.526
25942SOL    HW179659   0.103   2.267  10.585
25942SOL    HW279660   0.253   2.290  10.574
25943SOL     OW79661  10.376  13.434   8.864
25943SOL    HW179662  10.419  13.495   8.804
25943SOL    HW279663  10.320  13.489   8.918
25944SOL     OW79664   6.134   8.641  10.500
25944SOL    HW179665   6.113   8.715  10.556
25944SOL    HW279666   6.098   8.665  10.414
25945SOL     OW79667  13.585  12.112   6.023
25945SOL    HW179668  13.658  12.071   6.070
25945SOL    HW279669  13.588  12.204   6.049
25946SOL     OW79670   5.253   6.528  13.280
25946SOL    HW179671   5.197   6.493  13.350
25946SOL    HW279672   5.340   6.533  13.320
25947SOL     OW79673   6.915  11.963   4.238
25947SOL    HW179674   6.822  11.944   4.227
25947SOL    HW279675   6.948  11.889   4.289
25948SOL     OW79676   1.048  14.179   2.289
25948SOL    HW179677   1.020  14.259   2.245
25948SOL    HW279678   1.040  14.198   2.382
25949SOL     OW79679   4.747   9.076   5.934
25949SOL    HW179680   4.735   8.981   5.937
25949SOL    HW279681   4.734   9.104   6.025
25950SOL     OW79682  14.245   0.637  10.743
25950SOL    HW179683  14.260   0.579  10.667
25950SOL    HW279684  14.333   0.669  10.766
25951SOL     OW79685   7.276  11.594  13.368
25951SOL    HW179686   7.332  11.538  13.423
25951SOL    HW279687   7.240  11.658  13.428
25952SOL     OW79688   4.687   9.412   9.209
25952SOL    HW179689   4.685   9.335   9.266
25952SOL    HW279690   4.771   9.407   9.164
25953SOL     OW79691  12.758  12.358   8.372
25953SOL    HW179692  12.730  12.425   8.310
25953SOL    HW279693  12.676  12.321   8.405
25954SOL     OW79694   5.941   1.740   7.404
25954SOL    HW179695   5.890   1.821   7.401
25954SOL    HW279696   5.982   1.741   7.491
25955SOL     OW79697   1.089  10.919  12.552
25955SOL    HW179698   1.087  10.830  12.587
25955SOL    HW279699   0.997  10.942  12.542
25956SOL     OW79700   4.276   0.995  12.769
25956SOL    HW179701   4.286   1.019  12.676
25956SOL    HW279702   4.257   1.077  12.813
25957SOL     OW79703   4.861   9.596   4.629
25957SOL    HW179704   4.861   9.691   4.642
25957SOL    HW279705   4.890   9.560   4.712
25958SOL     OW79706  13.314   4.192   6.377
25958SOL    HW179707  13.388   4.238   6.417
25958SOL    HW279708  13.353   4.143   6.305
25959SOL     OW79709   4.252   8.099  13.444
25959SOL    HW179710   4.208   8.014  13.439
25959SOL    HW279711   4.181   8.162  13.460
25960SOL     OW79712  14.851  10.426  12.098
25960SOL    HW179713   0.057  10.423  12.143
25960SOL    HW279714  14.843  10.339  12.058
25961SOL     OW79715   9.205   8.235   4.755
25961SOL    HW179716   9.147   8.285   4.698
25961SOL    HW279717   9.174   8.145   4.747
25962SOL     OW79718   9.346   3.810  11.012
25962SOL    HW179719   9.316   3.862  11.087
25962SOL    HW279720   9.271   3.808  10.953
25963SOL     OW79721  12.110   3.545   5.644
25963SOL    HW179722  12.194   3.544   5.691
25963SOL    HW279723  12.121   3.611   5.576
25964SOL     OW79724   7.543   1.936   9.418
25964SOL    HW179725   7.620   1.945   9.362
25964SOL    HW279726   7.575   1.954   9.506
25965SOL     OW79727   5.077   8.848   2.536
25965SOL    HW179728   5.062   8.833   2.443
25965SOL    HW279729   5.170   8.872   2.541
25966SOL     OW79730  13.282   6.824  10.729
25966SOL    HW179731  13.320   6.766  10.795
25966SOL    HW279732  13.237   6.765  10.668
25967SOL     OW79733  10.973   3.207   8.611
25967SOL    HW179734  10.998   3.276   8.673
25967SOL    HW279735  11.036   3.216   8.539
25968SOL     OW79736   8.880  10.719  13.314
25968SOL    HW179737   8.788  10.701  13.335
25968SOL    HW279738   8.921  10.633  13.310
25969SOL     OW79739  13.463   0.709   3.797
25969SOL    HW179740  13.544   0.666   3.772
25969SOL    HW279741  13.475   0.800   3.771
25970SOL     OW79742  10.288   8.801   7.385
25970SOL    HW179743  10.314   8.769   7.298
25970SOL    HW279744  10.324   8.889   7.390
25971SOL     OW79745   4.671  10.858   5.249
25971SOL    HW179746   4.592  10.881   5.200
25971SOL    HW279747   4.709  10.942   5.275
25972SOL     OW79748   0.080   8.040   4.715
25972SOL    HW179749   0.165   8.082   4.732
25972SOL    HW279750   0.034   8.046   4.799
25973SOL     OW79751   6.995  12.023  12.600
25973SOL    HW179752   7.081  11.990  12.628
25973SOL    HW279753   6.949  12.040  12.682
25974SOL     OW79754   3.916   8.527   2.364
25974SOL    HW179755   3.859   8.454   2.389
25974SOL    HW279756   4.003   8.502   2.394
25975SOL     OW79757  13.939  14.504   1.825
25975SOL    HW179758  14.006  14.446   1.861
25975SOL    HW279759  13.976  14.592   1.833
25976SOL     OW79760   0.445  11.348  14.286
25976SOL    HW179761   0.477  11.336  14.375
25976SOL    HW279762   0.401  11.433  14.287
25977SOL     OW79763   4.051  12.428   3.442
25977SOL    HW179764   4.074  12.500   3.384
25977SOL    HW279765   3.964  12.400   3.411
25978SOL     OW79766   4.753  13.076   2.019
25978SOL    HW179767   4.837  13.051   1.981
25978SOL    HW279768   4.703  12.994   2.022
25979SOL     OW79769   9.989   4.900   9.482
25979SOL    HW179770   9.925   4.861   9.541
25979SOL    HW279771   9.971   4.994   9.485
25980SOL     OW79772   9.231  10.830   2.439
25980SOL    HW179773   9.314  10.839   2.393
25980SOL    HW279774   9.184  10.762   2.391
25981SOL     OW79775  10.358  14.037   2.508
25981SOL    HW179776  10.285  14.043   2.571
25981SOL    HW279777  10.403  14.121   2.516
25982SOL     OW79778  13.159  12.355  13.104
25982SOL    HW179779  13.173  12.370  13.011
25982SOL    HW279780  13.064  12.359  13.115
25983SOL     OW79781   9.303   9.569   3.514
25983SOL    HW179782   9.331   9.655   3.482
25983SOL    HW279783   9.231   9.589   3.574
25984SOL     OW79784   0.639   1.100   0.029
25984SOL    HW179785   0.702   1.086  14.837
25984SOL    HW279786   0.656   1.029   0.091
25985SOL     OW79787   8.062   7.771   0.944
25985SOL    HW179788   7.968   7.782   0.928
25985SOL    HW279789   8.076   7.676   0.940
25986SOL     OW79790  13.688   6.154   9.758
25986SOL    HW179791  13.736   6.236   9.762
25986SOL    HW279792  13.754   6.087   9.775
25987SOL     OW79793  13.204   1.773  10.987
25987SOL    HW179794  13.281   1.741  10.940
25987SOL    HW279795  13.225   1.864  11.007
25988SOL     OW79796   8.332   0.929   2.046
25988SOL    HW179797   8.424   0.924   2.019
25988SOL    HW279798   8.305   1.018   2.023
25989SOL     OW79799   0.877   1.469   5.225
25989SOL    HW179800   0.823   1.509   5.293
25989SOL    HW279801   0.918   1.393   5.268
25990SOL     OW79802   8.968   2.957   6.329
25990SOL    HW179803   8.992   2.864   6.333
25990SOL    HW279804   8.966   2.985   6.420
25991SOL     OW79805   6.395   1.042   8.796
25991SOL    HW179806   6.304   1.054   8.768
25991SOL    HW279807   6.411   0.948   8.783
25992SOL     OW79808   8.224   4.290   5.441
25992SOL    HW179809   8.263   4.374   5.417
25992SOL    HW279810   8.143   4.313   5.486
25993SOL     OW79811   2.247   6.331   6.249
25993SOL    HW179812   2.306   6.369   6.184
25993SOL    HW279813   2.297   6.259   6.287
25994SOL     OW79814  14.693   6.492   6.390
25994SOL    HW179815  14.638   6.543   6.450
25994SOL    HW279816  14.686   6.402   6.422
25995SOL     OW79817  13.901   0.104   7.418
25995SOL    HW179818  13.955   0.182   7.404
25995SOL    HW279819  13.943   0.036   7.366
25996SOL     OW79820   4.489  10.899   0.460
25996SOL    HW179821   4.561  10.961   0.452
25996SOL    HW279822   4.439  10.909   0.379
25997SOL     OW79823   5.375  14.337   6.151
25997SOL    HW179824   5.468  14.355   6.165
25997SOL    HW279825   5.359  14.253   6.194
25998SOL     OW79826   6.131   1.280   8.198
25998SOL    HW179827   6.038   1.256   8.196
25998SOL    HW279828   6.171   1.219   8.259
25999SOL     OW79829   2.522  10.390   7.873
25999SOL    HW179830   2.434  10.405   7.840
25999SOL    HW279831   2.559  10.477   7.884
26000SOL     OW79832   2.190   6.310   9.988
26000SOL    HW179833   2.176   6.246  10.058
26000SOL    HW279834   2.128   6.285   9.920
26001SOL     OW79835  10.871   9.292   1.949
26001SOL    HW179836  10.833   9.354   2.012
26001SOL    HW279837  10.947   9.338   1.914
26002SOL     OW79838  14.112   5.401   0.207
26002SOL    HW179839  14.149   5.317   0.180
26002SOL    HW279840  14.144   5.413   0.297
26003SOL     OW79841   2.310  12.773   6.814
26003SOL    HW179842   2.341  12.799   6.727
26003SOL    HW279843   2.385  12.729   6.854
26004SOL     OW79844   7.339   4.719   1.235
26004SOL    HW179845   7.282   4.664   1.288
26004SOL    HW279846   7.389   4.770   1.298
26005SOL     OW79847   2.195   3.109  12.075
26005SOL    HW179848   2.242   3.187  12.047
26005SOL    HW279849   2.235   3.037  12.025
26006SOL     OW79850   2.763  12.195   5.219
26006SOL    HW179851   2.759  12.288   5.197
26006SOL    HW279852   2.680  12.159   5.188
26007SOL     OW79853   9.422   3.499   0.610
26007SOL    HW179854   9.402   3.494   0.703
26007SOL    HW279855   9.511   3.534   0.605
26008SOL     OW79856   2.153   0.432  12.296
26008SOL    HW179857   2.072   0.432  12.346
26008SOL    HW279858   2.130   0.470  12.211
26009SOL     OW79859   1.033   6.212  10.875
26009SOL    HW179860   1.065   6.276  10.812
26009SOL    HW279861   1.079   6.234  10.956
26010SOL     OW79862   9.560  12.782   7.663
26010SOL    HW179863   9.630  12.847   7.672
26010SOL    HW279864   9.505  12.796   7.740
26011SOL     OW79865   6.461   1.682   9.439
26011SOL    HW179866   6.493   1.669   9.528
26011SOL    HW279867   6.378   1.729   9.450
26012SOL     OW79868   2.950   6.897  10.176
26012SOL    HW179869   3.040   6.865  10.169
26012SOL    HW279870   2.896   6.820  10.159
26013SOL     OW79871   8.255   7.753  12.276
26013SOL    HW179872   8.252   7.670  12.324
26013SOL    HW279873   8.166   7.765  12.244
26014SOL     OW79874  12.207   4.563   3.536
26014SOL    HW179875  12.228   4.655   3.550
26014SOL    HW279876  12.220   4.550   3.442
26015SOL     OW79877  12.101  13.771   4.005
26015SOL    HW179878  12.016  13.808   4.026
26015SOL    HW279879  12.081  13.687   3.964
26016SOL     OW79880  10.062   6.429  13.577
26016SOL    HW179881  10.105   6.457  13.496
26016SOL    HW279882  10.124   6.454  13.646
26017SOL     OW79883   5.495  10.926   6.712
26017SOL    HW179884   5.402  10.942   6.695
26017SOL    HW279885   5.539  10.959   6.633
26018SOL     OW79886   6.378   8.159  14.131
26018SOL    HW179887   6.401   8.147  14.223
26018SOL    HW279888   6.360   8.071  14.098
26019SOL     OW79889   6.372  12.584   3.860
26019SOL    HW179890   6.320  12.628   3.792
26019SOL    HW279891   6.437  12.649   3.887
26020SOL     OW79892  12.935   4.021   9.267
26020SOL    HW179893  12.872   4.090   9.289
26020SOL    HW279894  12.965   3.988   9.352
26021SOL     OW79895  13.192   1.822  10.610
26021SOL    HW179896  13.202   1.752  10.545
26021SOL    HW279897  13.137   1.783  10.678
26022SOL     OW79898   9.147  12.378  10.664
26022SOL    HW179899   9.215  12.337  10.719
26022SOL    HW279900   9.126  12.460  10.709
26023SOL     OW79901  14.681   3.079   8.171
26023SOL    HW179902  14.590   3.090   8.144
26023SOL    HW279903  14.678   3.080   8.267
26024SOL     OW79904   0.235   3.097   3.212
26024SOL    HW179905   0.284   3.022   3.180
26024SOL    HW279906   0.245   3.163   3.143
26025SOL     OW79907   3.338  13.364  11.525
26025SOL    HW179908   3.249  13.374  11.559
26025SOL    HW279909   3.339  13.277  11.485
26026SOL     OW79910   4.385  14.081  12.493
26026SOL    HW179911   4.478  14.078  12.517
26026SOL    HW279912   4.341  14.117  12.569
26027SOL     OW79913   2.314  12.392   9.144
26027SOL    HW179914   2.305  12.465   9.205
26027SOL    HW279915   2.407  12.389   9.124
26028SOL     OW79916   4.688   0.816   9.830
26028SOL    HW179917   4.679   0.793   9.923
26028SOL    HW279918   4.672   0.733   9.784
26029SOL     OW79919   2.152   8.341   9.164
26029SOL    HW179920   2.095   8.331   9.088
26029SOL    HW279921   2.107   8.296   9.235
26030SOL     OW79922   4.295  13.870   4.111
26030SOL    HW179923   4.335  13.946   4.154
26030SOL    HW279924   4.206  13.867   4.145
26031SOL     OW79925   5.046   7.091   2.386
26031SOL    HW179926   5.026   7.183   2.406
26031SOL    HW279927   5.136   7.079   2.418
26032SOL     OW79928   6.490  10.514   7.181
26032SOL    HW179929   6.454  10.426   7.187
26032SOL    HW279930   6.421  10.570   7.217
26033SOL     OW79931   9.003   6.646   9.571
26033SOL    HW179932   8.954   6.716   9.527
26033SOL    HW279933   9.065   6.616   9.505
26034SOL     OW79934   2.589   5.168   4.331
26034SOL    HW179935   2.533   5.194   4.258
26034SOL    HW279936   2.534   5.181   4.409
26035SOL     OW79937   0.207  10.681   8.609
26035SOL    HW179938   0.116  10.657   8.591
26035SOL    HW279939   0.248  10.598   8.635
26036SOL     OW79940  10.565   6.884  14.501
26036SOL    HW179941  10.542   6.900  14.410
26036SOL    HW279942  10.559   6.970  14.543
26037SOL     OW79943  14.333  13.127   3.331
26037SOL    HW179944  14.391  13.189   3.286
26037SOL    HW279945  14.322  13.165   3.418
26038SOL     OW79946  11.147   8.966   2.518
26038SOL    HW179947  11.242   8.956   2.514
26038SOL    HW279948  11.114   8.909   2.449
26039SOL     OW79949   4.171   3.358   3.854
26039SOL    HW179950   4.114   3.282   3.859
26039SOL    HW279951   4.171   3.395   3.942
26040SOL     OW79952   7.169   8.778   1.714
26040SOL    HW179953   7.135   8.689   1.715
26040SOL    HW279954   7.208   8.790   1.800
26041SOL     OW79955  13.940  14.061  10.344
26041SOL    HW179956  13.903  14.134  10.394
26041SOL    HW279957  14.018  14.098  10.303
26042SOL     OW79958   3.677   9.510   5.487
26042SOL    HW179959   3.756   9.520   5.540
26042SOL    HW279960   3.657   9.416   5.490
26043SOL     OW79961   9.369   9.002   9.974
26043SOL    HW179962   9.410   8.932  10.025
26043SOL    HW279963   9.343   9.067  10.038
26044SOL     OW79964  13.431  10.618   2.190
26044SOL    HW179965  13.356  10.614   2.248
26044SOL    HW279966  13.490  10.682   2.230
26045SOL     OW79967   6.198  14.076   4.486
26045SOL    HW179968   6.233  14.034   4.564
26045SOL    HW279969   6.275  14.086   4.428
26046SOL     OW79970   9.938  12.807   6.616
26046SOL    HW179971   9.882  12.758   6.676
26046SOL    HW279972   9.943  12.752   6.537
26047SOL     OW79973   3.296   8.399   0.235
26047SOL    HW179974   3.310   8.479   0.184
26047SOL    HW279975   3.372   8.394   0.294
26048SOL     OW79976  11.792   8.048   6.197
26048SOL    HW179977  11.867   8.011   6.150
26048SOL    HW279978  11.760   8.117   6.139
26049SOL     OW79979  11.708   8.212  12.781
26049SOL    HW179980  11.629   8.186  12.734
26049SOL    HW279981  11.759   8.262  12.717
26050SOL     OW79982   2.459  10.624   7.611
26050SOL    HW179983   2.544  10.623   7.567
26050SOL    HW279984   2.420  10.539   7.590
26051SOL     OW79985  12.135   7.517   6.299
26051SOL    HW179986  12.067   7.570   6.257
26051SOL    HW279987  12.126   7.534   6.392
26052SOL     OW79988  11.387  10.133   7.472
26052SOL    HW179989  11.305  10.096   7.506
26052SOL    HW279990  11.384  10.225   7.496
26053SOL     OW79991   0.005   8.275   9.347
26053SOL    HW179992  14.878   8.214   9.420
26053SOL    HW279993   0.074   8.336   9.372
26054SOL     OW79994  12.100  14.429   3.094
26054SOL    HW179995  12.090  14.481   3.174
26054SOL    HW279996  12.011  14.409   3.067
26055SOL     OW79997   1.749   4.838   7.525
26055SOL    HW179998   1.824   4.873   7.477
26055SOL    HW279999   1.673   4.869   7.476
26056SOL     OW80000   0.910   4.123  11.366
26056SOL    HW180001   0.829   4.119  11.317
26056SOL    HW280002   0.978   4.135  11.300
26057SOL     OW80003   0.799   6.710   1.569
26057SOL    HW180004   0.718   6.663   1.553
26057SOL    HW280005   0.807   6.712   1.664
26058SOL     OW80006   9.714   1.080  12.554
26058SOL    HW180007   9.660   1.096  12.631
26058SOL    HW280008   9.682   0.997  12.518
26059SOL     OW80009   5.161  14.861   7.014
26059SOL    HW180010   5.177   0.032   7.094
26059SOL    HW280011   5.146   0.050   6.947
26060SOL     OW80012   3.356   1.112  11.196
26060SOL    HW180013   3.325   1.186  11.247
26060SOL    HW280014   3.290   1.044  11.210
26061SOL     OW80015   6.421   9.338  12.464
26061SOL    HW180016   6.467   9.288  12.532
26061SOL    HW280017   6.383   9.412  12.510
26062SOL     OW80018   5.385   5.994  11.905
26062SOL    HW180019   5.466   5.962  11.865
26062SOL    HW280020   5.392   5.967  11.996
26063SOL     OW80021   3.394   8.217  12.089
26063SOL    HW180022   3.479   8.233  12.130
26063SOL    HW280023   3.403   8.253  12.001
26064SOL     OW80024   3.742  12.060  12.253
26064SOL    HW180025   3.675  12.071  12.320
26064SOL    HW280026   3.694  12.055  12.171
26065SOL     OW80027   7.017  13.286   9.500
26065SOL    HW180028   7.026  13.382   9.500
26065SOL    HW280029   7.086  13.256   9.441
26066SOL     OW80030   0.369   3.990   2.806
26066SOL    HW180031   0.427   4.055   2.766
26066SOL    HW280032   0.355   4.023   2.895
26067SOL     OW80033  10.226   2.751  13.212
26067SOL    HW180034  10.263   2.718  13.294
26067SOL    HW280035  10.236   2.846  13.218
26068SOL     OW80036   7.256   8.232   3.645
26068SOL    HW180037   7.189   8.299   3.659
26068SOL    HW280038   7.308   8.231   3.725
26069SOL     OW80039   0.851   2.685   8.716
26069SOL    HW180040   0.769   2.724   8.686
26069SOL    HW280041   0.843   2.592   8.692
26070SOL     OW80042  12.030  10.275  11.662
26070SOL    HW180043  12.016  10.342  11.729
26070SOL    HW280044  12.119  10.290  11.630
26071SOL     OW80045  11.743   6.755   7.176
26071SOL    HW180046  11.824   6.760   7.124
26071SOL    HW280047  11.741   6.666   7.211
26072SOL     OW80048   6.311   1.789   3.250
26072SOL    HW180049   6.300   1.884   3.254
26072SOL    HW280050   6.222   1.754   3.251
26073SOL     OW80051   9.424   9.624   9.777
26073SOL    HW180052   9.380   9.705   9.750
26073SOL    HW280053   9.457   9.586   9.695
26074SOL     OW80054   5.929  12.735  10.606
26074SOL    HW180055   5.896  12.816  10.646
26074SOL    HW280056   6.016  12.723  10.644
26075SOL     OW80057   7.552   3.662   9.846
26075SOL    HW180058   7.608   3.591   9.875
26075SOL    HW280059   7.608   3.740   9.851
26076SOL     OW80060  12.112   1.697   6.367
26076SOL    HW180061  12.176   1.641   6.411
26076SOL    HW280062  12.030   1.682   6.415
26077SOL     OW80063   0.566  10.479  13.440
26077SOL    HW180064   0.532  10.504  13.354
26077SOL    HW280065   0.530  10.544  13.500
26078SOL     OW80066   4.103   6.720   7.166
26078SOL    HW180067   4.070   6.653   7.226
26078SOL    HW280068   4.102   6.678   7.080
26079SOL     OW80069   3.411  12.528   4.692
26079SOL    HW180070   3.417  12.565   4.780
26079SOL    HW280071   3.320  12.502   4.683
26080SOL     OW80072   9.112   5.088  10.383
26080SOL    HW180073   9.190   5.066  10.332
26080SOL    HW280074   9.125   5.179  10.409
26081SOL     OW80075  11.430   6.893  14.863
26081SOL    HW180076  11.405   6.837   0.058
26081SOL    HW280077  11.520   6.867  14.843
26082SOL     OW80078   2.065   5.699   8.878
26082SOL    HW180079   2.065   5.709   8.973
26082SOL    HW280080   2.136   5.755   8.848
26083SOL     OW80081   1.034   6.152   1.696
26083SOL    HW180082   1.105   6.090   1.715
26083SOL    HW280083   0.962   6.123   1.751
26084SOL     OW80084   8.651  12.853   2.271
26084SOL    HW180085   8.666  12.764   2.240
26084SOL    HW280086   8.698  12.857   2.354
26085SOL     OW80087  13.256  14.754  14.727
26085SOL    HW180088  13.284  14.696  14.656
26085SOL    HW280089  13.322  14.823  14.730
26086SOL     OW80090   7.461  11.224   0.311
26086SOL    HW180091   7.448  11.305   0.360
26086SOL    HW280092   7.556  11.213   0.308
26087SOL     OW80093   9.613  12.849   3.703
26087SOL    HW180094   9.693  12.823   3.749
26087SOL    HW280095   9.557  12.884   3.771
26088SOL     OW80096   5.621   4.107   6.615
26088SOL    HW180097   5.638   4.192   6.574
26088SOL    HW280098   5.638   4.043   6.546
26089SOL     OW80099   9.962   6.039   2.257
26089SOL    HW180100  10.057   6.037   2.243
26089SOL    HW280101   9.953   6.070   2.347
26090SOL     OW80102  10.097  10.757  14.008
26090SOL    HW180103  10.046  10.710  14.074
26090SOL    HW280104  10.188  10.748  14.038
26091SOL     OW80105  13.173  12.403   4.138
26091SOL    HW180106  13.209  12.492   4.143
26091SOL    HW280107  13.190  12.366   4.224
26092SOL     OW80108  14.496   1.858   2.728
26092SOL    HW180109  14.497   1.889   2.819
26092SOL    HW280110  14.500   1.938   2.676
26093SOL     OW80111   3.991  12.995   9.499
26093SOL    HW180112   4.002  12.912   9.547
26093SOL    HW280113   3.989  12.969   9.407
26094SOL     OW80114   6.506   6.495  11.341
26094SOL    HW180115   6.522   6.568  11.281
26094SOL    HW280116   6.580   6.436  11.327
26095SOL     OW80117   3.414  11.493   0.616
26095SOL    HW180118   3.360  11.542   0.554
26095SOL    HW280119   3.502  11.493   0.578
26096SOL     OW80120  12.293   2.524  10.664
26096SOL    HW180121  12.308   2.612  10.698
26096SOL    HW280122  12.274   2.471  10.741
26097SOL     OW80123   8.072   5.901   5.871
26097SOL    HW180124   8.149   5.916   5.926
26097SOL    HW280125   8.098   5.828   5.814
26098SOL     OW80126  14.706   0.949   6.909
26098SOL    HW180127  14.743   0.973   6.994
26098SOL    HW280128  14.778   0.906   6.863
26099SOL     OW80129   5.418   0.518   0.645
26099SOL    HW180130   5.385   0.556   0.563
26099SOL    HW280131   5.396   0.425   0.639
26100SOL     OW80132   1.419  14.097   7.602
26100SOL    HW180133   1.508  14.087   7.568
26100SOL    HW280134   1.425  14.167   7.667
26101SOL     OW80135   9.924   2.084   1.734
26101SOL    HW180136   9.890   1.999   1.763
26101SOL    HW280137   9.876   2.148   1.787
26102SOL     OW80138  14.642  14.786  11.687
26102SOL    HW180139  14.641  14.844  11.610
26102SOL    HW280140  14.710  14.722  11.667
26103SOL     OW80141   6.904   8.897   1.296
26103SOL    HW180142   6.960   8.948   1.238
26103SOL    HW280143   6.957   8.820   1.318
26104SOL     OW80144   6.986  10.858   2.216
26104SOL    HW180145   6.907  10.912   2.207
26104SOL    HW280146   6.964  10.776   2.171
26105SOL     OW80147  12.962  11.467  10.950
26105SOL    HW180148  12.967  11.557  10.919
26105SOL    HW280149  12.937  11.416  10.873
26106SOL     OW80150   8.229  11.456  12.277
26106SOL    HW180151   8.253  11.503  12.197
26106SOL    HW280152   8.164  11.511  12.319
26107SOL     OW80153   7.438  13.415   2.045
26107SOL    HW180154   7.459  13.352   1.976
26107SOL    HW280155   7.389  13.484   2.001
26108SOL     OW80156   9.655  10.578   4.782
26108SOL    HW180157   9.600  10.624   4.845
26108SOL    HW280158   9.688  10.502   4.830
26109SOL     OW80159  11.776  10.889   6.657
26109SOL    HW180160  11.807  10.839   6.732
26109SOL    HW280161  11.841  10.958   6.646
26110SOL     OW80162   1.937  12.829   3.296
26110SOL    HW180163   1.891  12.754   3.334
26110SOL    HW280164   1.970  12.878   3.372
26111SOL     OW80165   6.678  10.179   6.140
26111SOL    HW180166   6.642  10.102   6.186
26111SOL    HW280167   6.770  10.157   6.126
26112SOL     OW80168   9.875  13.404   6.391
26112SOL    HW180169   9.779  13.415   6.390
26112SOL    HW280170   9.908  13.478   6.341
26113SOL     OW80171  12.640   2.480   2.663
26113SOL    HW180172  12.642   2.575   2.655
26113SOL    HW280173  12.731   2.453   2.654
26114SOL     OW80174   9.764  10.478  13.776
26114SOL    HW180175   9.815  10.496  13.697
26114SOL    HW280176   9.795  10.542  13.840
26115SOL     OW80177  14.378  10.226  12.054
26115SOL    HW180178  14.437  10.157  12.024
26115SOL    HW280179  14.301  10.180  12.085
26116SOL     OW80180   9.774  14.203   2.784
26116SOL    HW180181   9.850  14.173   2.833
26116SOL    HW280182   9.765  14.295   2.806
26117SOL     OW80183   7.887   4.429   7.158
26117SOL    HW180184   7.963   4.438   7.099
26117SOL    HW280185   7.901   4.497   7.224
26118SOL     OW80186   6.087  10.395   0.874
26118SOL    HW180187   6.181  10.386   0.862
26118SOL    HW280188   6.064  10.475   0.827
26119SOL     OW80189  14.465   9.121   7.541
26119SOL    HW180190  14.396   9.136   7.476
26119SOL    HW280191  14.418   9.109   7.624
26120SOL     OW80192   2.032   6.342   7.394
26120SOL    HW180193   1.990   6.325   7.310
26120SOL    HW280194   2.009   6.267   7.449
26121SOL     OW80195   0.202  14.749   9.174
26121SOL    HW180196   0.149  14.670   9.166
26121SOL    HW280197   0.201  14.788   9.086
26122SOL     OW80198   0.809  12.441  14.533
26122SOL    HW180199   0.893  12.400  14.551
26122SOL    HW280200   0.810  12.457  14.439
26123SOL     OW80201   2.713  14.616   7.671
26123SOL    HW180202   2.671  14.557   7.609
26123SOL    HW280203   2.640  14.661   7.714
26124SOL     OW80204  14.035  12.788   1.204
26124SOL    HW180205  14.083  12.755   1.128
26124SOL    HW280206  14.071  12.876   1.219
26125SOL     OW80207   6.777   8.047   0.477
26125SOL    HW180208   6.860   8.000   0.485
26125SOL    HW280209   6.801   8.139   0.486
26126SOL     OW80210   0.330   0.940   4.095
26126SOL    HW180211   0.391   0.972   4.029
26126SOL    HW280212   0.326   1.010   4.160
26127SOL     OW80213   2.471   8.102  12.815
26127SOL    HW180214   2.525   8.102  12.736
26127SOL    HW280215   2.381   8.091  12.783
26128SOL     OW80216  14.389   7.473  11.561
26128SOL    HW180217  14.337   7.461  11.641
26128SOL    HW280218  14.461   7.411  11.570
26129SOL     OW80219  11.592   2.460   7.884
26129SOL    HW180220  11.497   2.445   7.884
26129SOL    HW280221  11.610   2.498   7.798
26130SOL     OW80222   5.356   7.675   6.414
26130SOL    HW180223   5.411   7.618   6.361
26130SOL    HW280224   5.282   7.697   6.357
26131SOL     OW80225  11.678   1.033   3.414
26131SOL    HW180226  11.586   1.039   3.391
26131SOL    HW280227  11.682   1.057   3.506
26132SOL     OW80228  10.107   5.439   7.909
26132SOL    HW180229  10.113   5.520   7.860
26132SOL    HW280230  10.147   5.459   7.994
26133SOL     OW80231   0.089   7.738   0.813
26133SOL    HW180232  14.876   7.765   0.818
26133SOL    HW280233   0.114   7.755   0.722
26134SOL     OW80234   1.128  14.370   5.420
26134SOL    HW180235   1.107  14.462   5.405
26134SOL    HW280236   1.062  14.322   5.370
26135SOL     OW80237   3.974   9.861  11.066
26135SOL    HW180238   4.059   9.891  11.099
26135SOL    HW280239   3.946   9.929  11.005
26136SOL     OW80240   3.044  14.022   6.706
26136SOL    HW180241   3.084  13.968   6.638
26136SOL    HW280242   3.080  14.109   6.692
26137SOL     OW80243   2.589   8.592   8.129
26137SOL    HW180244   2.543   8.634   8.201
26137SOL    HW280245   2.608   8.504   8.160
26138SOL     OW80246   3.324   0.217   2.707
26138SOL    HW180247   3.326   0.148   2.640
26138SOL    HW280248   3.337   0.171   2.789
26139SOL     OW80249   7.409   7.242  11.128
26139SOL    HW180250   7.484   7.225  11.071
26139SOL    HW280251   7.385   7.155  11.161
26140SOL     OW80252   3.561   6.329   2.465
26140SOL    HW180253   3.553   6.240   2.431
26140SOL    HW280254   3.484   6.341   2.520
26141SOL     OW80255  10.702  13.633   2.773
26141SOL    HW180256  10.741  13.560   2.725
26141SOL    HW280257  10.664  13.689   2.705
26142SOL     OW80258  11.556   1.774   9.421
26142SOL    HW180259  11.631   1.780   9.480
26142SOL    HW280260  11.484   1.815   9.469
26143SOL     OW80261   9.766  12.022   8.508
26143SOL    HW180262   9.858  12.022   8.535
26143SOL    HW280263   9.759  11.948   8.448
26144SOL     OW80264  11.728  12.229  11.786
26144SOL    HW180265  11.714  12.160  11.722
26144SOL    HW280266  11.667  12.209  11.857
26145SOL     OW80267  13.720   0.374   4.624
26145SOL    HW180268  13.707   0.469   4.621
26145SOL    HW280269  13.643   0.338   4.581
26146SOL     OW80270   1.418   8.452  14.509
26146SOL    HW180271   1.492   8.432  14.451
26146SOL    HW280272   1.450   8.523  14.564
26147SOL     OW80273   3.454   4.490   8.847
26147SOL    HW180274   3.533   4.437   8.857
26147SOL    HW280275   3.485   4.580   8.846
26148SOL     OW80276  12.151  11.675  10.210
26148SOL    HW180277  12.199  11.641  10.286
26148SOL    HW280278  12.219  11.716  10.156
26149SOL     OW80279   9.400   4.022  12.705
26149SOL    HW180280   9.400   4.098  12.648
26149SOL    HW280281   9.410   3.947  12.646
26150SOL     OW80282  11.984  11.855   7.752
26150SOL    HW180283  12.053  11.813   7.701
26150SOL    HW280284  11.962  11.934   7.702
26151SOL     OW80285   6.185   4.010  11.299
26151SOL    HW180286   6.113   4.064  11.332
26151SOL    HW280287   6.257   4.072  11.285
26152SOL     OW80288   5.955  14.172   4.993
26152SOL    HW180289   5.923  14.142   4.908
26152SOL    HW280290   5.985  14.262   4.977
26153SOL     OW80291  14.504   0.814   1.298
26153SOL    HW180292  14.586   0.805   1.250
26153SOL    HW280293  14.455   0.881   1.250
26154SOL     OW80294   2.485   4.649   3.907
26154SOL    HW180295   2.408   4.702   3.929
26154SOL    HW280296   2.450   4.562   3.889
26155SOL     OW80297   8.536  10.093  14.225
26155SOL    HW180298   8.498  10.132  14.146
26155SOL    HW280299   8.590  10.021  14.193
26156SOL     OW80300   0.066   2.658   6.299
26156SOL    HW180301   0.086   2.728   6.236
26156SOL    HW280302   0.075   2.577   6.248
26157SOL     OW80303   2.881  12.053   6.746
26157SOL    HW180304   2.824  11.982   6.716
26157SOL    HW280305   2.843  12.132   6.709
26158SOL     OW80306   5.826   8.722   0.473
26158SOL    HW180307   5.878   8.645   0.450
26158SOL    HW280308   5.794   8.756   0.389
26159SOL     OW80309   3.296  12.275   8.524
26159SOL    HW180310   3.261  12.208   8.464
26159SOL    HW280311   3.249  12.355   8.502
26160SOL     OW80312   8.326   0.864   0.269
26160SOL    HW180313   8.281   0.859   0.185
26160SOL    HW280314   8.266   0.824   0.331
26161SOL     OW80315   7.458  14.119  13.341
26161SOL    HW180316   7.375  14.129  13.295
26161SOL    HW280317   7.488  14.031  13.318
26162SOL     OW80318   7.258   0.894   0.329
26162SOL    HW180319   7.303   0.812   0.349
26162SOL    HW280320   7.327   0.952   0.297
26163SOL     OW80321  14.317   6.012   1.802
26163SOL    HW180322  14.357   6.023   1.715
26163SOL    HW280323  14.386   6.037   1.863
26164SOL     OW80324   6.012   7.559   7.611
26164SOL    HW180325   6.028   7.478   7.562
26164SOL    HW280326   5.932   7.542   7.660
26165SOL     OW80327  10.392   9.158   6.075
26165SOL    HW180328  10.416   9.076   6.032
26165SOL    HW280329  10.302   9.144   6.105
26166SOL     OW80330  11.404   7.540   6.318
26166SOL    HW180331  11.483   7.527   6.265
26166SOL    HW280332  11.384   7.633   6.307
26167SOL     OW80333   4.976   4.535  12.591
26167SOL    HW180334   5.010   4.568  12.674
26167SOL    HW280335   5.044   4.556  12.527
26168SOL     OW80336   5.741  11.536   6.185
26168SOL    HW180337   5.746  11.499   6.096
26168SOL    HW280338   5.802  11.609   6.184
26169SOL     OW80339   1.975  12.589  13.464
26169SOL    HW180340   2.053  12.538  13.485
26169SOL    HW280341   1.944  12.621  13.549
26170SOL     OW80342   7.398   8.226   0.896
26170SOL    HW180343   7.453   8.283   0.843
26170SOL    HW280344   7.446   8.144   0.901
26171SOL     OW80345   1.919  13.692  13.866
26171SOL    HW180346   1.991  13.733  13.913
26171SOL    HW280347   1.856  13.763  13.852
26172SOL     OW80348   5.966   2.290   1.449
26172SOL    HW180349   6.059   2.272   1.460
26172SOL    HW280350   5.928   2.206   1.422
26173SOL     OW80351   5.240  10.651   1.946
26173SOL    HW180352   5.329  10.667   1.916
26173SOL    HW280353   5.248  10.578   2.007
26174SOL     OW80354  14.477   4.624   7.897
26174SOL    HW180355  14.572   4.636   7.904
26174SOL    HW280356  14.455   4.654   7.809
26175SOL     OW80357   1.485  11.830   8.552
26175SOL    HW180358   1.510  11.769   8.483
26175SOL    HW280359   1.418  11.885   8.511
26176SOL     OW80360   0.114   4.087  10.706
26176SOL    HW180361   0.077   4.106  10.620
26176SOL    HW280362   0.052   4.126  10.767
26177SOL     OW80363   8.374   0.903   4.007
26177SOL    HW180364   8.396   0.835   3.944
26177SOL    HW280365   8.453   0.957   4.013
26178SOL     OW80366  11.342   9.092   2.737
26178SOL    HW180367  11.299   9.060   2.816
26178SOL    HW280368  11.353   9.014   2.682
26179SOL     OW80369   6.096  13.195   2.692
26179SOL    HW180370   6.109  13.285   2.720
26179SOL    HW280371   6.110  13.143   2.771
26180SOL     OW80372   0.989  14.856   6.672
26180SOL    HW180373   0.969  14.774   6.717
26180SOL    HW280374   0.971  14.838   6.580
26181SOL     OW80375   0.030  14.168   0.542
26181SOL    HW180376   0.095  14.113   0.498
26181SOL    HW280377  14.826  14.147   0.499
26182SOL     OW80378   8.251  13.839   6.477
26182SOL    HW180379   8.303  13.898   6.424
26182SOL    HW280380   8.182  13.894   6.514
26183SOL     OW80381   0.191  10.539  10.066
26183SOL    HW180382   0.166  10.484   9.992
26183SOL    HW280383   0.118  10.600  10.076
26184SOL     OW80384   5.681   1.779   4.603
26184SOL    HW180385   5.668   1.686   4.586
26184SOL    HW280386   5.646   1.793   4.691
26185SOL     OW80387   7.822  11.474  10.678
26185SOL    HW180388   7.889  11.418  10.639
26185SOL    HW280389   7.869  11.525  10.744
26186SOL     OW80390   9.147   1.553  13.175
26186SOL    HW180391   9.153   1.464  13.209
26186SOL    HW280392   9.170   1.546  13.083
26187SOL     OW80393   6.959  12.140   5.928
26187SOL    HW180394   6.959  12.099   6.014
26187SOL    HW280395   6.910  12.222   5.940
26188SOL     OW80396  10.576   9.260   0.484
26188SOL    HW180397  10.490   9.221   0.468
26188SOL    HW280398  10.593   9.313   0.405
26189SOL     OW80399   9.801   4.119   0.371
26189SOL    HW180400   9.763   4.207   0.379
26189SOL    HW280401   9.866   4.127   0.302
26190SOL     OW80402   9.732   8.312   0.328
26190SOL    HW180403   9.800   8.270   0.381
26190SOL    HW280404   9.710   8.391   0.377
26191SOL     OW80405  10.275   9.392   1.114
26191SOL    HW180406  10.191   9.401   1.068
26191SOL    HW280407  10.273   9.460   1.181
26192SOL     OW80408   5.196   8.707   7.664
26192SOL    HW180409   5.144   8.761   7.723
26192SOL    HW280410   5.216   8.764   7.590
26193SOL     OW80411   5.921   2.849   0.583
26193SOL    HW180412   5.949   2.780   0.523
26193SOL    HW280413   5.996   2.908   0.589
26194SOL     OW80414  12.414  12.730  10.154
26194SOL    HW180415  12.489  12.781  10.123
26194SOL    HW280416  12.402  12.758  10.245
26195SOL     OW80417   1.941  12.191   5.747
26195SOL    HW180418   1.852  12.169   5.775
26195SOL    HW280419   1.949  12.285   5.766
26196SOL     OW80420   3.718   8.661   5.970
26196SOL    HW180421   3.674   8.678   5.887
26196SOL    HW280422   3.767   8.580   5.956
26197SOL     OW80423  14.712   1.583   2.441
26197SOL    HW180424  14.689   1.573   2.533
26197SOL    HW280425  14.780   1.650   2.440
26198SOL     OW80426  14.304   2.211   9.496
26198SOL    HW180427  14.391   2.204   9.534
26198SOL    HW280428  14.246   2.169   9.559
26199SOL     OW80429   5.623  13.493   4.768
26199SOL    HW180430   5.550  13.431   4.768
26199SOL    HW280431   5.693  13.449   4.816
26200SOL     OW80432  12.592   3.606   5.925
26200SOL    HW180433  12.672   3.563   5.896
26200SOL    HW280434  12.576   3.570   6.012
26201SOL     OW80435   1.757   6.122   5.735
26201SOL    HW180436   1.775   6.072   5.655
26201SOL    HW280437   1.759   6.058   5.805
26202SOL     OW80438  11.321  12.343   8.215
26202SOL    HW180439  11.268  12.267   8.236
26202SOL    HW280440  11.369  12.362   8.296
26203SOL     OW80441  13.097   5.158   6.127
26203SOL    HW180442  13.105   5.065   6.110
26203SOL    HW280443  13.171   5.198   6.083
26204SOL     OW80444   8.069   7.949   9.423
26204SOL    HW180445   8.026   7.932   9.339
26204SOL    HW280446   8.099   7.863   9.452
26205SOL     OW80447  10.407  12.183   5.073
26205SOL    HW180448  10.489  12.186   5.024
26205SOL    HW280449  10.340  12.162   5.007
26206SOL     OW80450   4.910   4.062  12.700
26206SOL    HW180451   4.912   4.157  12.687
26206SOL    HW280452   5.000   4.034  12.686
26207SOL     OW80453  13.490  11.369  10.662
26207SOL    HW180454  13.503  11.278  10.688
26207SOL    HW280455  13.569  11.414  10.692
26208SOL     OW80456  11.469   7.389   9.606
26208SOL    HW180457  11.486   7.404   9.514
26208SOL    HW280458  11.495   7.470   9.649
26209SOL     OW80459  12.125   2.684  14.071
26209SOL    HW180460  12.126   2.663  13.977
26209SOL    HW280461  12.117   2.779  14.074
26210SOL     OW80462   7.083   4.730  13.293
26210SOL    HW180463   7.085   4.726  13.197
26210SOL    HW280464   7.073   4.823  13.313
26211SOL     OW80465  11.369   4.454  13.914
26211SOL    HW180466  11.412   4.480  13.832
26211SOL    HW280467  11.348   4.537  13.956
26212SOL     OW80468   2.570   3.832   4.126
26212SOL    HW180469   2.663   3.845   4.109
26212SOL    HW280470   2.567   3.783   4.207
26213SOL     OW80471   2.122  10.579   6.026
26213SOL    HW180472   2.161  10.587   5.939
26213SOL    HW280473   2.168  10.643   6.079
26214SOL     OW80474   6.345   1.266   6.553
26214SOL    HW180475   6.292   1.222   6.620
26214SOL    HW280476   6.288   1.336   6.520
26215SOL     OW80477   9.028  14.376   6.964
26215SOL    HW180478   9.060  14.335   7.044
26215SOL    HW280479   8.976  14.308   6.921
26216SOL     OW80480  13.373  11.543   6.599
26216SOL    HW180481  13.395  11.618   6.653
26216SOL    HW280482  13.287  11.563   6.563
26217SOL     OW80483   6.100   9.974  14.479
26217SOL    HW180484   6.096  10.068  14.495
26217SOL    HW280485   6.157   9.966  14.402
26218SOL     OW80486   5.134   6.662  11.661
26218SOL    HW180487   5.055   6.654  11.716
26218SOL    HW280488   5.099   6.678  11.573
26219SOL     OW80489   3.378  11.531  12.600
26219SOL    HW180490   3.330  11.566  12.675
26219SOL    HW280491   3.351  11.440  12.595
26220SOL     OW80492   4.204   7.721   7.509
26220SOL    HW180493   4.189   7.692   7.599
26220SOL    HW280494   4.118   7.718   7.468
26221SOL     OW80495   2.550   3.099   8.110
26221SOL    HW180496   2.505   3.131   8.032
26221SOL    HW280497   2.488   3.112   8.182
26222SOL     OW80498   3.576   6.292  11.896
26222SOL    HW180499   3.594   6.265  11.986
26222SOL    HW280500   3.570   6.387  11.900
26223SOL     OW80501   7.362   4.503   6.362
26223SOL    HW180502   7.364   4.422   6.413
26223SOL    HW280503   7.396   4.479   6.276
26224SOL     OW80504   8.210   4.776   7.184
26224SOL    HW180505   8.269   4.706   7.156
26224SOL    HW280506   8.225   4.846   7.120
26225SOL     OW80507  12.464   7.410   1.320
26225SOL    HW180508  12.395   7.396   1.385
26225SOL    HW280509  12.479   7.323   1.282
26226SOL     OW80510  10.886   9.475  13.368
26226SOL    HW180511  10.919   9.562  13.390
26226SOL    HW280512  10.841   9.446  13.448
26227SOL     OW80513   9.182   1.896   1.840
26227SOL    HW180514   9.099   1.865   1.803
26227SOL    HW280515   9.180   1.867   1.931
26228SOL     OW80516   9.159   8.281   9.014
26228SOL    HW180517   9.094   8.225   8.972
26228SOL    HW280518   9.223   8.300   8.945
26229SOL     OW80519   0.398  14.300  10.635
26229SOL    HW180520   0.472  14.286  10.576
26229SOL    HW280521   0.377  14.393  10.625
26230SOL     OW80522   8.090   0.714   2.507
26230SOL    HW180523   8.100   0.625   2.474
26230SOL    HW280524   8.112   0.770   2.433
26231SOL     OW80525  14.618   6.410   5.095
26231SOL    HW180526  14.526   6.423   5.070
26231SOL    HW280527  14.656   6.361   5.022
26232SOL     OW80528   5.644   4.031   9.317
26232SOL    HW180529   5.617   4.056   9.228
26232SOL    HW280530   5.593   4.089   9.374
26233SOL     OW80531   9.318   9.324   8.063
26233SOL    HW180532   9.357   9.237   8.072
26233SOL    HW280533   9.275   9.340   8.147
26234SOL     OW80534   5.577   7.288   7.009
26234SOL    HW180535   5.550   7.379   7.022
26234SOL    HW280536   5.617   7.287   6.922
26235SOL     OW80537   8.416   4.757   7.425
26235SOL    HW180538   8.385   4.822   7.362
26235SOL    HW280539   8.341   4.700   7.440
26236SOL     OW80540  12.751  14.327   5.966
26236SOL    HW180541  12.793  14.396   6.018
26236SOL    HW280542  12.790  14.336   5.879
26237SOL     OW80543   8.943   7.213   1.311
26237SOL    HW180544   8.970   7.223   1.403
26237SOL    HW280545   8.863   7.161   1.315
26238SOL     OW80546  10.985  12.157   6.636
26238SOL    HW180547  10.985  12.119   6.724
26238SOL    HW280548  10.994  12.251   6.650
26239SOL     OW80549   5.764  11.354   1.654
26239SOL    HW180550   5.804  11.313   1.578
26239SOL    HW280551   5.671  11.364   1.630
26240SOL     OW80552  12.750   1.998   2.641
26240SOL    HW180553  12.681   2.063   2.654
26240SOL    HW280554  12.767   2.000   2.547
26241SOL     OW80555   2.087   7.617  10.897
26241SOL    HW180556   2.048   7.533  10.920
26241SOL    HW280557   2.169   7.620  10.948
26242SOL     OW80558  14.359   8.657  14.349
26242SOL    HW180559  14.416   8.585  14.379
26242SOL    HW280560  14.385   8.731  14.403
26243SOL     OW80561  13.574   4.016   8.714
26243SOL    HW180562  13.555   4.047   8.802
26243SOL    HW280563  13.579   4.096   8.661
26244SOL     OW80564   2.942   8.976  14.830
26244SOL    HW180565   2.901   9.049  14.877
26244SOL    HW280566   2.923   8.995  14.737
26245SOL     OW80567   3.901   3.332   7.917
26245SOL    HW180568   3.820   3.336   7.969
26245SOL    HW280569   3.971   3.337   7.982
26246SOL     OW80570   4.585   8.964   0.877
26246SOL    HW180571   4.580   9.010   0.794
26246SOL    HW280572   4.674   8.929   0.880
26247SOL     OW80573  12.973   2.215  10.036
26247SOL    HW180574  13.013   2.128  10.044
26247SOL    HW280575  12.914   2.207   9.961
26248SOL     OW80576   7.702   9.923   2.218
26248SOL    HW180577   7.627   9.953   2.167
26248SOL    HW280578   7.766   9.895   2.153
26249SOL     OW80579   0.203   7.494  11.880
26249SOL    HW180580   0.232   7.456  11.797
26249SOL    HW280581   0.284   7.518  11.925
26250SOL     OW80582  13.669   9.968   5.318
26250SOL    HW180583  13.702  10.038   5.375
26250SOL    HW280584  13.692   9.995   5.230
26251SOL     OW80585   5.432   6.217  12.177
26251SOL    HW180586   5.499   6.151  12.160
26251SOL    HW280587   5.418   6.259  12.093
26252SOL     OW80588   6.322  11.296  12.863
26252SOL    HW180589   6.230  11.301  12.891
26252SOL    HW280590   6.348  11.206  12.882
26253SOL     OW80591   2.370   2.077   4.132
26253SOL    HW180592   2.348   2.148   4.072
26253SOL    HW280593   2.377   2.119   4.218
26254SOL     OW80594  13.850  14.059  12.104
26254SOL    HW180595  13.781  14.124  12.096
26254SOL    HW280596  13.885  14.051  12.015
26255SOL     OW80597  11.869   6.082   5.309
26255SOL    HW180598  11.808   6.071   5.382
26255SOL    HW280599  11.950   6.041   5.340
26256SOL     OW80600   7.417  11.586   6.075
26256SOL    HW180601   7.425  11.490   6.076
26256SOL    HW280602   7.499  11.616   6.114
26257SOL     OW80603   1.837   7.035  11.328
26257SOL    HW180604   1.822   7.005  11.417
26257SOL    HW280605   1.925   7.003  11.306
26258SOL     OW80606   3.457   4.775  12.043
26258SOL    HW180607   3.551   4.794  12.043
26258SOL    HW280608   3.416   4.857  12.015
26259SOL     OW80609  11.591   4.418   9.322
26259SOL    HW180610  11.666   4.446   9.270
26259SOL    HW280611  11.580   4.487   9.388
26260SOL     OW80612   5.524   8.945  10.475
26260SOL    HW180613   5.470   8.996  10.536
26260SOL    HW280614   5.592   8.906  10.529
26261SOL     OW80615   9.832  10.011   0.414
26261SOL    HW180616   9.740  10.023   0.438
26261SOL    HW280617   9.879  10.006   0.498
26262SOL     OW80618   7.055   2.302   5.691
26262SOL    HW180619   7.130   2.249   5.667
26262SOL    HW280620   7.086   2.392   5.686
26263SOL     OW80621  11.355  11.597   4.652
26263SOL    HW180622  11.350  11.655   4.577
26263SOL    HW280623  11.280  11.538   4.641
26264SOL     OW80624  12.270  13.710   5.315
26264SOL    HW180625  12.227  13.748   5.392
26264SOL    HW280626  12.212  13.639   5.288
26265SOL     OW80627  13.300   4.216   2.704
26265SOL    HW180628  13.347   4.149   2.655
26265SOL    HW280629  13.251   4.265   2.637
26266SOL     OW80630  14.030  14.638  12.787
26266SOL    HW180631  13.979  14.693  12.847
26266SOL    HW280632  14.117  14.632  12.827
26267SOL     OW80633   7.218   6.897   8.951
26267SOL    HW180634   7.287   6.952   8.988
26267SOL    HW280635   7.264   6.824   8.911
26268SOL     OW80636   9.000   8.913   8.968
26268SOL    HW180637   8.919   8.863   8.975
26268SOL    HW280638   8.979   8.985   8.909
26269SOL     OW80639  12.248  10.943  10.457
26269SOL    HW180640  12.309  10.932  10.385
26269SOL    HW280641  12.274  11.026  10.498
26270SOL     OW80642  11.251  12.361   3.442
26270SOL    HW180643  11.296  12.360   3.527
26270SOL    HW280644  11.210  12.448   3.438
26271SOL     OW80645   7.485  13.583  10.451
26271SOL    HW180646   7.562  13.531  10.427
26271SOL    HW280647   7.412  13.521  10.449
26272SOL     OW80648   2.280   9.356   4.437
26272SOL    HW180649   2.338   9.301   4.490
26272SOL    HW280650   2.195   9.311   4.441
26273SOL     OW80651   9.583   8.552   0.128
26273SOL    HW180652   9.517   8.527   0.193
26273SOL    HW280653   9.575   8.488   0.059
26274SOL     OW80654   8.058   9.523   6.658
26274SOL    HW180655   8.056   9.435   6.620
26274SOL    HW280656   8.057   9.509   6.752
26275SOL     OW80657  13.598   2.251   7.855
26275SOL    HW180658  13.598   2.283   7.946
26275SOL    HW280659  13.689   2.259   7.827
26276SOL     OW80660   5.509  10.702  11.901
26276SOL    HW180661   5.474  10.756  11.972
26276SOL    HW280662   5.599  10.684  11.928
26277SOL     OW80663   6.241  13.507   6.413
26277SOL    HW180664   6.256  13.566   6.487
26277SOL    HW280665   6.311  13.442   6.420
26278SOL     OW80666   7.268   4.002   9.671
26278SOL    HW180667   7.195   3.987   9.612
26278SOL    HW280668   7.345   3.971   9.623
26279SOL     OW80669   2.144   2.114   5.802
26279SOL    HW180670   2.107   2.148   5.720
26279SOL    HW280671   2.234   2.091   5.780
26280SOL     OW80672   6.039   0.240   5.587
26280SOL    HW180673   5.992   0.157   5.590
26280SOL    HW280674   5.977   0.301   5.546
26281SOL     OW80675   5.267  12.554  10.800
26281SOL    HW180676   5.318  12.618  10.850
26281SOL    HW280677   5.200  12.522  10.860
26282SOL     OW80678   5.690   2.098   5.141
26282SOL    HW180679   5.715   2.115   5.051
26282SOL    HW280680   5.596   2.115   5.144
26283SOL     OW80681   2.917  12.692  11.545
26283SOL    HW180682   2.939  12.713  11.636
26283SOL    HW280683   2.824  12.713  11.537
26284SOL     OW80684  11.929   0.250  12.947
26284SOL    HW180685  11.844   0.227  12.910
26284SOL    HW280686  11.920   0.233  13.041
26285SOL     OW80687   2.361  14.651   7.067
26285SOL    HW180688   2.284  14.639   7.010
26285SOL    HW280689   2.432  14.607   7.020
26286SOL     OW80690   4.748   2.274  12.795
26286SOL    HW180691   4.771   2.340  12.861
26286SOL    HW280692   4.823   2.274  12.735
26287SOL     OW80693   0.946  11.851  12.541
26287SOL    HW180694   0.961  11.898  12.622
26287SOL    HW280695   1.026  11.865  12.490
26288SOL     OW80696  11.816   5.461   6.453
26288SOL    HW180697  11.833   5.500   6.539
26288SOL    HW280698  11.812   5.536   6.394
26289SOL     OW80699  12.387   4.690   9.259
26289SOL    HW180700  12.428   4.715   9.176
26289SOL    HW280701  12.301   4.733   9.257
26290SOL     OW80702   4.929  11.827   8.100
26290SOL    HW180703   4.903  11.736   8.083
26290SOL    HW280704   4.979  11.822   8.182
26291SOL     OW80705  10.096   7.324   3.145
26291SOL    HW180706  10.046   7.247   3.118
26291SOL    HW280707  10.187   7.302   3.124
26292SOL     OW80708  10.037   3.663   9.523
26292SOL    HW180709  10.050   3.725   9.451
26292SOL    HW280710   9.963   3.699   9.572
26293SOL     OW80711   7.342  11.742   4.424
26293SOL    HW180712   7.363  11.832   4.399
26293SOL    HW280713   7.254  11.747   4.462
26294SOL     OW80714   3.002  13.704   5.060
26294SOL    HW180715   2.992  13.728   4.967
26294SOL    HW280716   3.030  13.785   5.102
26295SOL     OW80717   7.189   4.680  14.616
26295SOL    HW180718   7.266   4.625  14.630
26295SOL    HW280719   7.118   4.635  14.662
26296SOL     OW80720  11.241  13.593   1.407
26296SOL    HW180721  11.323  13.564   1.366
26296SOL    HW280722  11.179  13.597   1.335
26297SOL     OW80723   0.730  14.339  11.380
26297SOL    HW180724   0.668  14.267  11.372
26297SOL    HW280725   0.765  14.351  11.292
26298SOL     OW80726   7.225  12.717   5.707
26298SOL    HW180727   7.252  12.668   5.630
26298SOL    HW280728   7.287  12.789   5.713
26299SOL     OW80729   1.909  14.220  10.691
26299SOL    HW180730   1.837  14.281  10.704
26299SOL    HW280731   1.879  14.162  10.621
26300SOL     OW80732   2.934   5.866   8.089
26300SOL    HW180733   2.999   5.801   8.061
26300SOL    HW280734   2.985   5.930   8.139
26301SOL     OW80735   0.558   9.548   7.522
26301SOL    HW180736   0.534   9.482   7.586
26301SOL    HW280737   0.489   9.544   7.456
26302SOL     OW80738   7.253   0.855   1.233
26302SOL    HW180739   7.269   0.933   1.285
26302SOL    HW280740   7.170   0.821   1.266
26303SOL     OW80741   0.523   4.374   6.940
26303SOL    HW180742   0.510   4.433   6.866
26303SOL    HW280743   0.614   4.387   6.967
26304SOL     OW80744   2.700   6.240   0.952
26304SOL    HW180745   2.783   6.216   0.911
26304SOL    HW280746   2.721   6.247   1.045
26305SOL     OW80747  11.463   3.016   6.399
26305SOL    HW180748  11.472   3.076   6.325
26305SOL    HW280749  11.369   3.018   6.421
26306SOL     OW80750   3.452   5.746   6.221
26306SOL    HW180751   3.495   5.829   6.200
26306SOL    HW280752   3.451   5.743   6.317
26307SOL     OW80753   6.953   0.530   7.171
26307SOL    HW180754   6.877   0.471   7.173
26307SOL    HW280755   7.015   0.488   7.111
26308SOL     OW80756   4.688   3.572  10.972
26308SOL    HW180757   4.752   3.502  10.987
26308SOL    HW280758   4.727   3.626  10.903
26309SOL     OW80759   7.102  13.136   1.536
26309SOL    HW180760   7.129  13.102   1.621
26309SOL    HW280761   7.033  13.199   1.556
26310SOL     OW80762   5.951  12.172   4.688
26310SOL    HW180763   5.929  12.264   4.705
26310SOL    HW280764   6.044  12.174   4.666
26311SOL     OW80765   5.754   2.246   2.040
26311SOL    HW180766   5.790   2.176   1.984
26311SOL    HW280767   5.704   2.200   2.107
26312SOL     OW80768   3.636   4.333   4.305
26312SOL    HW180769   3.670   4.307   4.391
26312SOL    HW280770   3.685   4.413   4.284
26313SOL     OW80771   1.811   5.621   0.688
26313SOL    HW180772   1.737   5.642   0.632
26313SOL    HW280773   1.887   5.653   0.640
26314SOL     OW80774   4.336   7.333   4.694
26314SOL    HW180775   4.330   7.351   4.601
26314SOL    HW280776   4.428   7.348   4.716
26315SOL     OW80777  14.535  13.629   3.185
26315SOL    HW180778  14.577  13.711   3.211
26315SOL    HW280779  14.442  13.651   3.179
26316SOL     OW80780  12.364   3.337  13.819
26316SOL    HW180781  12.420   3.262  13.796
26316SOL    HW280782  12.275   3.303  13.812
26317SOL     OW80783   0.060  11.013   1.950
26317SOL    HW180784  14.873  11.039   1.885
26317SOL    HW280785   0.016  11.024   2.034
26318SOL     OW80786  14.860   8.259  12.513
26318SOL    HW180787  14.806   8.333  12.484
26318SOL    HW280788  14.847   8.257  12.608
26319SOL     OW80789   4.367   0.258   6.030
26319SOL    HW180790   4.309   0.282   5.958
26319SOL    HW280791   4.413   0.180   5.999
26320SOL     OW80792  13.902  10.007   3.945
26320SOL    HW180793  13.940  10.003   4.033
26320SOL    HW280794  13.817   9.965   3.954
26321SOL     OW80795   0.409   2.897   3.045
26321SOL    HW180796   0.487   2.948   3.026
26321SOL    HW280797   0.351   2.913   2.970
26322SOL     OW80798  13.031  13.617  14.577
26322SOL    HW180799  12.969  13.561  14.530
26322SOL    HW280800  13.110  13.616  14.523
26323SOL     OW80801  10.787   2.686  11.916
26323SOL    HW180802  10.704   2.669  11.871
26323SOL    HW280803  10.768   2.758  11.975
26324SOL     OW80804   0.215  13.707  13.985
26324SOL    HW180805   0.169  13.704  14.069
26324SOL    HW280806   0.279  13.777  13.996
26325SOL     OW80807  12.169  14.410   4.430
26325SOL    HW180808  12.097  14.358   4.466
26325SOL    HW280809  12.127  14.487   4.394
26326SOL     OW80810  11.291  12.033   1.467
26326SOL    HW180811  11.316  11.990   1.549
26326SOL    HW280812  11.253  12.117   1.493
26327SOL     OW80813   3.235   9.159   9.092
26327SOL    HW180814   3.154   9.209   9.090
26327SOL    HW280815   3.207   9.068   9.083
26328SOL     OW80816   1.056  11.639  13.214
26328SOL    HW180817   1.148  11.649  13.188
26328SOL    HW280818   1.010  11.621  13.132
26329SOL     OW80819   8.744   8.056  12.140
26329SOL    HW180820   8.716   7.996  12.208
26329SOL    HW280821   8.713   8.142  12.168
26330SOL     OW80822   4.053   0.605   6.425
26330SOL    HW180823   4.074   0.512   6.423
26330SOL    HW280824   3.964   0.609   6.459
26331SOL     OW80825   3.513   4.067   1.678
26331SOL    HW180826   3.506   4.000   1.746
26331SOL    HW280827   3.431   4.060   1.629
26332SOL     OW80828   0.661   8.111   3.716
26332SOL    HW180829   0.729   8.108   3.783
26332SOL    HW280830   0.708   8.097   3.634
26333SOL     OW80831   0.257  10.347   6.966
26333SOL    HW180832   0.337  10.326   7.015
26333SOL    HW280833   0.220  10.423   7.012
26334SOL     OW80834   0.141   3.631   2.425
26334SOL    HW180835   0.215   3.677   2.466
26334SOL    HW280836   0.067   3.690   2.437
26335SOL     OW80837  13.758  14.679   7.107
26335SOL    HW180838  13.748  14.660   7.014
26335SOL    HW280839  13.817  14.610   7.139
26336SOL     OW80840   9.248  11.925  11.294
26336SOL    HW180841   9.313  11.987  11.327
26336SOL    HW280842   9.271  11.914  11.201
26337SOL     OW80843   9.193   9.489   4.979
26337SOL    HW180844   9.233   9.403   4.985
26337SOL    HW280845   9.124   9.488   5.046
26338SOL     OW80846   7.671   6.668   6.888
26338SOL    HW180847   7.613   6.682   6.962
26338SOL    HW280848   7.616   6.628   6.821
26339SOL     OW80849   2.976  12.003  13.650
26339SOL    HW180850   3.044  11.936  13.646
26339SOL    HW280851   2.920  11.976  13.723
26340SOL     OW80852  13.822   4.699  11.587
26340SOL    HW180853  13.914   4.704  11.613
26340SOL    HW280854  13.781   4.644  11.653
26341SOL     OW80855   2.249  13.347   0.747
26341SOL    HW180856   2.156  13.324   0.747
26341SOL    HW280857   2.288  13.288   0.682
26342SOL     OW80858  13.719   0.922  14.214
26342SOL    HW180859  13.729   0.931  14.309
26342SOL    HW280860  13.795   0.871  14.187
26343SOL     OW80861   4.564   1.657  13.111
26343SOL    HW180862   4.582   1.675  13.203
26343SOL    HW280863   4.487   1.710  13.090
26344SOL     OW80864  12.400   7.684   9.956
26344SOL    HW180865  12.351   7.701   9.875
26344SOL    HW280866  12.490   7.670   9.927
26345SOL     OW80867   5.238  11.592   7.589
26345SOL    HW180868   5.210  11.650   7.519
26345SOL    HW280869   5.279  11.650   7.654
26346SOL     OW80870   1.658  10.062   7.668
26346SOL    HW180871   1.586  10.108   7.711
26346SOL    HW280872   1.617   9.988   7.624
26347SOL     OW80873  13.662   2.401   3.001
26347SOL    HW180874  13.718   2.370   2.929
26347SOL    HW280875  13.652   2.494   2.985
26348SOL     OW80876   3.397   0.491  11.579
26348SOL    HW180877   3.350   0.555  11.526
26348SOL    HW280878   3.389   0.409  11.532
26349SOL     OW80879   7.957   0.271   2.107
26349SOL    HW180880   7.967   0.210   2.181
26349SOL    HW280881   7.999   0.351   2.137
26350SOL     OW80882   2.264   8.468   6.203
26350SOL    HW180883   2.339   8.408   6.205
26350SOL    HW280884   2.253   8.496   6.294
26351SOL     OW80885  12.329  14.630   5.663
26351SOL    HW180886  12.301  14.672   5.582
26351SOL    HW280887  12.254  14.577   5.690
26352SOL     OW80888  14.871  11.738  10.341
26352SOL    HW180889  14.823  11.700  10.268
26352SOL    HW280890  14.808  11.740  10.413
26353SOL     OW80891  10.916   6.703   9.301
26353SOL    HW180892  10.914   6.781   9.356
26353SOL    HW280893  10.916   6.630   9.363
26354SOL     OW80894   2.195   2.872   3.988
26354SOL    HW180895   2.136   2.834   4.053
26354SOL    HW280896   2.136   2.909   3.922
26355SOL     OW80897   6.718   9.821   2.239
26355SOL    HW180898   6.688   9.730   2.231
26355SOL    HW280899   6.664   9.857   2.309
26356SOL     OW80900  11.031   6.842  10.596
26356SOL    HW180901  11.001   6.772  10.538
26356SOL    HW280902  11.080   6.901  10.540
26357SOL     OW80903   5.603  10.471  12.134
26357SOL    HW180904   5.660  10.487  12.058
26357SOL    HW280905   5.663  10.446  12.204
26358SOL     OW80906   2.872   3.073   7.516
26358SOL    HW180907   2.848   3.163   7.495
26358SOL    HW280908   2.791   3.033   7.548
26359SOL     OW80909   1.743   6.028   6.526
26359SOL    HW180910   1.833   6.020   6.494
26359SOL    HW280911   1.739   6.116   6.563
26360SOL     OW80912   3.110   5.096   8.553
26360SOL    HW180913   3.160   5.078   8.473
26360SOL    HW280914   3.020   5.105   8.523
26361SOL     OW80915  13.977   3.071   3.770
26361SOL    HW180916  13.941   3.060   3.858
26361SOL    HW280917  13.931   3.006   3.716
26362SOL     OW80918   7.203   3.280  10.268
26362SOL    HW180919   7.238   3.363  10.233
26362SOL    HW280920   7.269   3.251  10.331
26363SOL     OW80921  10.740  13.635  12.309
26363SOL    HW180922  10.650  13.611  12.332
26363SOL    HW280923  10.731  13.697  12.237
26364SOL     OW80924   3.069   9.248  12.837
26364SOL    HW180925   3.018   9.323  12.866
26364SOL    HW280926   3.033   9.174  12.887
26365SOL     OW80927   9.694  11.820   4.503
26365SOL    HW180928   9.782  11.858   4.499
26365SOL    HW280929   9.637  11.888   4.467
26366SOL     OW80930  13.476   8.310   1.673
26366SOL    HW180931  13.571   8.315   1.668
26366SOL    HW280932  13.445   8.371   1.607
26367SOL     OW80933  10.918   2.693  14.755
26367SOL    HW180934  10.869   2.719  14.834
26367SOL    HW280935  10.957   2.609  14.777
26368SOL     OW80936   3.847   0.710   3.316
26368SOL    HW180937   3.802   0.640   3.269
26368SOL    HW280938   3.921   0.666   3.358
26369SOL     OW80939   7.617  13.399   7.579
26369SOL    HW180940   7.615  13.419   7.673
26369SOL    HW280941   7.687  13.335   7.570
26370SOL     OW80942   3.641   9.597   2.138
26370SOL    HW180943   3.638   9.563   2.048
26370SOL    HW280944   3.731   9.582   2.166
26371SOL     OW80945   4.920  11.372   9.204
26371SOL    HW180946   4.922  11.401   9.113
26371SOL    HW280947   4.827  11.361   9.224
26372SOL     OW80948   4.631   6.825  11.015
26372SOL    HW180949   4.571   6.847  11.086
26372SOL    HW280950   4.710   6.796  11.058
26373SOL     OW80951  13.082  12.185  10.075
26373SOL    HW180952  13.154  12.228  10.120
26373SOL    HW280953  13.009  12.247  10.080
26374SOL     OW80954   5.427  10.700   2.401
26374SOL    HW180955   5.447  10.628   2.341
26374SOL    HW280956   5.392  10.769   2.345
26375SOL     OW80957   3.401  13.462   2.376
26375SOL    HW180958   3.445  13.379   2.357
26375SOL    HW280959   3.370  13.453   2.466
26376SOL     OW80960   9.096  10.873   5.093
26376SOL    HW180961   9.181  10.902   5.126
26376SOL    HW280962   9.069  10.941   5.032
26377SOL     OW80963   7.203  11.772   4.984
26377SOL    HW180964   7.185  11.855   5.029
26377SOL    HW280965   7.129  11.760   4.925
26378SOL     OW80966   4.134   3.143   6.252
26378SOL    HW180967   4.078   3.116   6.179
26378SOL    HW280968   4.190   3.211   6.214
26379SOL     OW80969   7.936   7.102  13.790
26379SOL    HW180970   7.964   7.192  13.773
26379SOL    HW280971   7.855   7.111  13.841
26380SOL     OW80972  13.865   7.606   8.113
26380SOL    HW180973  13.818   7.637   8.036
26380SOL    HW280974  13.802   7.548   8.156
26381SOL     OW80975  10.214   4.594  10.444
26381SOL    HW180976  10.182   4.525  10.502
26381SOL    HW280977  10.169   4.577  10.361
26382SOL     OW80978   9.990  11.005   4.051
26382SOL    HW180979  10.061  11.045   4.100
26382SOL    HW280980   9.931  10.970   4.118
26383SOL     OW80981  12.346   5.570  10.645
26383SOL    HW180982  12.315   5.659  10.633
26383SOL    HW280983  12.268   5.519  10.667
26384SOL     OW80984  13.558  14.148   3.811
26384SOL    HW180985  13.651  14.155   3.835
26384SOL    HW280986  13.538  14.231   3.768
26385SOL     OW80987   1.505   5.741  11.274
26385SOL    HW180988   1.541   5.729  11.187
26385SOL    HW280989   1.438   5.809  11.264
26386SOL     OW80990  10.893   2.502  12.739
26386SOL    HW180991  10.926   2.432  12.683
26386SOL    HW280992  10.798   2.494  12.733
26387SOL     OW80993   6.950   6.145  13.601
26387SOL    HW180994   6.933   6.051  13.611
26387SOL    HW280995   7.045   6.154  13.613
26388SOL     OW80996  11.844  12.956   6.612
26388SOL    HW180997  11.808  12.877   6.571
26388SOL    HW280998  11.771  12.991   6.663
26389SOL     OW80999   1.615   2.566   2.793
26389SOL    HW181000   1.556   2.600   2.861
26389SOL    HW281001   1.702   2.572   2.833
26390SOL     OW81002   9.006  14.191   8.004
26390SOL    HW181003   9.066  14.117   8.018
26390SOL    HW281004   9.005  14.203   7.909
26391SOL     OW81005   2.912   5.401   9.521
26391SOL    HW181006   2.872   5.375   9.439
26391SOL    HW281007   2.896   5.327   9.580
26392SOL     OW81008   6.275   3.296   8.866
26392SOL    HW181009   6.312   3.314   8.780
26392SOL    HW281010   6.266   3.200   8.868
26393SOL     OW81011  10.843   8.472  10.061
26393SOL    HW181012  10.903   8.501   9.992
26393SOL    HW281013  10.854   8.536  10.131
26394SOL     OW81014   0.368   3.953   7.492
26394SOL    HW181015   0.277   3.929   7.472
26394SOL    HW281016   0.389   4.021   7.428
26395SOL     OW81017   3.162  12.895   8.665
26395SOL    HW181018   3.232  12.887   8.600
26395SOL    HW281019   3.099  12.955   8.625
26396SOL     OW81020   7.817   3.078  14.864
26396SOL    HW181021   7.816   3.041   0.073
26396SOL    HW281022   7.813   3.172  14.877
26397SOL     OW81023   2.505   4.621   0.414
26397SOL    HW181024   2.547   4.542   0.448
26397SOL    HW281025   2.412   4.598   0.409
26398SOL     OW81026   2.200  10.784  12.739
26398SOL    HW181027   2.140  10.725  12.694
26398SOL    HW281028   2.149  10.821  12.811
26399SOL     OW81029   9.136  11.551   4.673
26399SOL    HW181030   9.055  11.566   4.721
26399SOL    HW281031   9.184  11.486   4.725
26400SOL     OW81032   0.839  10.641   8.942
26400SOL    HW181033   0.887  10.689   8.873
26400SOL    HW281034   0.768  10.598   8.895
26401SOL     OW81035  12.211  11.202  13.411
26401SOL    HW181036  12.248  11.255  13.341
26401SOL    HW281037  12.223  11.255  13.490
26402SOL     OW81038  12.898   7.158   8.083
26402SOL    HW181039  12.909   7.182   7.991
26402SOL    HW281040  12.826   7.095   8.083
26403SOL     OW81041   0.104   3.766  11.895
26403SOL    HW181042   0.176   3.735  11.950
26403SOL    HW281043   0.106   3.709  11.818
26404SOL     OW81044  10.946   2.252   4.948
26404SOL    HW181045  10.906   2.253   5.035
26404SOL    HW281046  10.960   2.159   4.930
26405SOL     OW81047  14.852  14.009   8.526
26405SOL    HW181048   0.051  13.979   8.574
26405SOL    HW281049   0.004  14.084   8.475
26406SOL     OW81050  14.054  11.277  11.310
26406SOL    HW181051  14.087  11.299  11.397
26406SOL    HW281052  14.131  11.249  11.262
26407SOL     OW81053  14.523   8.047   1.561
26407SOL    HW181054  14.592   8.051   1.495
26407SOL    HW281055  14.565   8.007   1.637
26408SOL     OW81056   3.584  13.934   8.379
26408SOL    HW181057   3.510  13.892   8.337
26408SOL    HW281058   3.606  13.877   8.452
26409SOL     OW81059   0.488  12.664   4.642
26409SOL    HW181060   0.536  12.659   4.559
26409SOL    HW281061   0.508  12.751   4.676
26410SOL     OW81062   3.049   3.680   3.255
26410SOL    HW181063   3.058   3.751   3.191
26410SOL    HW281064   3.020   3.605   3.203
26411SOL     OW81065  10.221  13.311   3.615
26411SOL    HW181066  10.297  13.343   3.566
26411SOL    HW281067  10.165  13.387   3.626
26412SOL     OW81068   1.545  13.451   1.506
26412SOL    HW181069   1.639  13.436   1.498
26412SOL    HW281070   1.534  13.545   1.492
26413SOL     OW81071   1.862   7.059   6.255
26413SOL    HW181072   1.877   7.106   6.173
26413SOL    HW281073   1.766   7.061   6.265
26414SOL     OW81074   4.380   2.728  12.218
26414SOL    HW181075   4.307   2.673  12.191
26414SOL    HW281076   4.457   2.687  12.180
26415SOL     OW81077   1.339  10.717   6.769
26415SOL    HW181078   1.297  10.729   6.854
26415SOL    HW281079   1.389  10.797   6.755
26416SOL     OW81080   7.306   0.810   9.667
26416SOL    HW181081   7.312   0.891   9.717
26416SOL    HW281082   7.213   0.802   9.644
26417SOL     OW81083   1.255  11.608  12.709
26417SOL    HW181084   1.216  11.546  12.648
26417SOL    HW281085   1.264  11.558  12.791
26418SOL     OW81086  12.766  14.349  10.251
26418SOL    HW181087  12.685  14.380  10.291
26418SOL    HW281088  12.835  14.383  10.308
26419SOL     OW81089   6.309  11.124   8.271
26419SOL    HW181090   6.289  11.202   8.323
26419SOL    HW281091   6.396  11.141   8.234
26420SOL     OW81092   1.236  14.530   1.944
26420SOL    HW181093   1.188  14.613   1.949
26420SOL    HW281094   1.328  14.556   1.941
26421SOL     OW81095   9.765  10.737   9.589
26421SOL    HW181096   9.802  10.825   9.597
26421SOL    HW281097   9.671  10.750   9.607
26422SOL     OW81098  13.314   0.609   2.738
26422SOL    HW181099  13.386   0.569   2.786
26422SOL    HW281100  13.248   0.627   2.806
26423SOL     OW81101  13.256   3.260  13.921
26423SOL    HW181102  13.306   3.223  13.994
26423SOL    HW281103  13.193   3.191  13.898
26424SOL     OW81104   6.863   2.124  13.172
26424SOL    HW181105   6.786   2.071  13.155
26424SOL    HW281106   6.908   2.080  13.244
26425SOL     OW81107   4.782   6.984   8.059
26425SOL    HW181108   4.748   7.002   8.147
26425SOL    HW281109   4.717   6.926   8.019
26426SOL     OW81110   8.690  13.697   7.329
26426SOL    HW181111   8.647  13.612   7.338
26426SOL    HW281112   8.653  13.751   7.398
26427SOL     OW81113   2.574   1.087   0.560
26427SOL    HW181114   2.659   1.118   0.529
26427SOL    HW281115   2.511   1.149   0.524
26428SOL     OW81116  14.431   5.787   5.473
26428SOL    HW181117  14.516   5.823   5.497
26428SOL    HW281118  14.437   5.769   5.380
26429SOL     OW81119   2.772  10.604   2.772
26429SOL    HW181120   2.847  10.581   2.826
26429SOL    HW281121   2.801  10.681   2.722
26430SOL     OW81122   0.676   8.033   1.044
26430SOL    HW181123   0.728   7.961   1.009
26430SOL    HW281124   0.707   8.110   0.996
26431SOL     OW81125  12.962  11.909   5.843
26431SOL    HW181126  12.941  11.819   5.818
26431SOL    HW281127  12.878  11.955   5.839
26432SOL     OW81128   9.593  10.758  10.921
26432SOL    HW181129   9.531  10.775  10.851
26432SOL    HW281130   9.679  10.778  10.883
26433SOL     OW81131  12.011  13.123  14.682
26433SOL    HW181132  12.077  13.179  14.723
26433SOL    HW281133  11.949  13.183  14.641
26434SOL     OW81134   7.627  14.716   9.282
26434SOL    HW181135   7.663  14.627   9.289
26434SOL    HW281136   7.649  14.743   9.192
26435SOL     OW81137   6.159   4.092   5.163
26435SOL    HW181138   6.078   4.135   5.136
26435SOL    HW281139   6.131   4.022   5.222
26436SOL     OW81140   2.984  10.892   7.646
26436SOL    HW181141   3.001  10.813   7.595
26436SOL    HW281142   2.982  10.863   7.737
26437SOL     OW81143  10.625  12.986   6.015
26437SOL    HW181144  10.713  13.015   5.991
26437SOL    HW281145  10.628  12.891   6.004
26438SOL     OW81146   6.853   6.604  13.642
26438SOL    HW181147   6.790   6.539  13.674
26438SOL    HW281148   6.938   6.568  13.666
26439SOL     OW81149  12.637   5.227  10.997
26439SOL    HW181150  12.579   5.275  11.055
26439SOL    HW281151  12.650   5.285  10.922
26440SOL     OW81152   2.222   4.825  10.221
26440SOL    HW181153   2.265   4.906  10.245
26440SOL    HW281154   2.278   4.786  10.154
26441SOL     OW81155  12.873   3.605   1.299
26441SOL    HW181156  12.823   3.554   1.235
26441SOL    HW281157  12.810   3.622   1.369
26442SOL     OW81158   6.763  14.661   2.274
26442SOL    HW181159   6.813  14.734   2.238
26442SOL    HW281160   6.769  14.671   2.369
26443SOL     OW81161   0.905  10.341   5.907
26443SOL    HW181162   0.962  10.349   5.831
26443SOL    HW281163   0.883  10.248   5.912
26444SOL     OW81164   5.511  10.787  10.475
26444SOL    HW181165   5.500  10.880  10.497
26444SOL    HW281166   5.444  10.742  10.527
26445SOL     OW81167   6.244   3.057   6.945
26445SOL    HW181168   6.274   2.974   6.908
26445SOL    HW281169   6.277   3.123   6.884
26446SOL     OW81170   8.578   8.441   6.779
26446SOL    HW181171   8.549   8.359   6.739
26446SOL    HW281172   8.499   8.479   6.816
26447SOL     OW81173   7.433   8.597  12.011
26447SOL    HW181174   7.360   8.535  12.007
26447SOL    HW281175   7.427   8.635  12.099
26448SOL     OW81176   0.282   5.033   5.817
26448SOL    HW181177   0.333   4.954   5.835
26448SOL    HW281178   0.299   5.051   5.724
26449SOL     OW81179   0.358   7.223   7.127
26449SOL    HW181180   0.297   7.204   7.055
26449SOL    HW281181   0.365   7.318   7.128
26450SOL     OW81182  11.123   0.485   2.051
26450SOL    HW181183  11.105   0.438   1.969
26450SOL    HW281184  11.201   0.537   2.031
26451SOL     OW81185  13.220  10.075   5.820
26451SOL    HW181186  13.137  10.027   5.812
26451SOL    HW281187  13.194  10.167   5.818
26452SOL     OW81188  13.302   0.773  11.737
26452SOL    HW181189  13.370   0.809  11.793
26452SOL    HW281190  13.236   0.740  11.798
26453SOL     OW81191   4.798   8.599   0.636
26453SOL    HW181192   4.714   8.636   0.608
26453SOL    HW281193   4.856   8.613   0.561
26454SOL     OW81194  14.829   6.110   8.444
26454SOL    HW181195  14.834   6.038   8.508
26454SOL    HW281196  14.854   6.070   8.361
26455SOL     OW81197  13.081   9.631   3.520
26455SOL    HW181198  13.140   9.702   3.493
26455SOL    HW281199  13.106   9.557   3.465
26456SOL     OW81200   7.107   6.877   7.776
26456SOL    HW181201   7.187   6.840   7.814
26456SOL    HW281202   7.132   6.901   7.686
26457SOL     OW81203   4.202  13.878   1.713
26457SOL    HW181204   4.106  13.871   1.718
26457SOL    HW281205   4.221  13.873   1.620
26458SOL     OW81206   2.220   9.043   5.349
26458SOL    HW181207   2.247   9.055   5.258
26458SOL    HW281208   2.285   8.984   5.386
26459SOL     OW81209   2.099  12.339   0.739
26459SOL    HW181210   2.078  12.304   0.652
26459SOL    HW281211   2.188  12.306   0.757
26460SOL     OW81212   6.157   4.208   5.437
26460SOL    HW181213   6.117   4.170   5.359
26460SOL    HW281214   6.088   4.206   5.503
26461SOL     OW81215  12.724  11.141   0.645
26461SOL    HW181216  12.785  11.112   0.578
26461SOL    HW281217  12.662  11.068   0.654
26462SOL     OW81218   8.420   2.586   2.657
26462SOL    HW181219   8.462   2.505   2.689
26462SOL    HW281220   8.364   2.614   2.730
26463SOL     OW81221  12.749   3.212  10.322
26463SOL    HW181222  12.655   3.196  10.311
26463SOL    HW281223  12.779   3.240  10.235
26464SOL     OW81224   3.025  14.801   8.189
26464SOL    HW181225   3.005   0.016   8.182
26464SOL    HW281226   3.059  14.790   8.277
26465SOL     OW81227   3.275   7.703   1.007
26465SOL    HW181228   3.357   7.671   0.969
26465SOL    HW281229   3.251   7.777   0.951
26466SOL     OW81230   0.184   5.069  10.801
26466SOL    HW181231   0.257   5.085  10.741
26466SOL    HW281232   0.131   5.149  10.795
26467SOL     OW81233   5.857   9.630   4.094
26467SOL    HW181234   5.847   9.616   4.189
26467SOL    HW281235   5.778   9.591   4.057
26468SOL     OW81236  11.026   6.501   6.569
26468SOL    HW181237  11.037   6.560   6.495
26468SOL    HW281238  11.114   6.492   6.606
26469SOL     OW81239   6.855  13.323   0.860
26469SOL    HW181240   6.912  13.396   0.835
26469SOL    HW281241   6.890  13.248   0.812
26470SOL     OW81242  12.205   5.239  11.769
26470SOL    HW181243  12.231   5.318  11.720
26470SOL    HW281244  12.124   5.211  11.727
26471SOL     OW81245   3.784   5.940   0.365
26471SOL    HW181246   3.798   5.937   0.459
26471SOL    HW281247   3.869   5.965   0.328
26472SOL     OW81248  13.494   1.942   1.165
26472SOL    HW181249  13.514   1.855   1.130
26472SOL    HW281250  13.402   1.937   1.190
26473SOL     OW81251  13.203   4.336  14.593
26473SOL    HW181252  13.136   4.304  14.532
26473SOL    HW281253  13.175   4.302  14.678
26474SOL     OW81254  11.286  12.266   4.704
26474SOL    HW181255  11.313  12.228   4.788
26474SOL    HW281256  11.229  12.340   4.729
26475SOL     OW81257   9.068   8.912   6.804
26475SOL    HW181258   9.063   8.864   6.887
26475SOL    HW281259   9.124   8.987   6.824
26476SOL     OW81260   5.530   5.413   9.631
26476SOL    HW181261   5.508   5.504   9.650
26476SOL    HW281262   5.465   5.362   9.679
26477SOL     OW81263  10.774   0.141   8.440
26477SOL    HW181264  10.805   0.179   8.523
26477SOL    HW281265  10.823   0.060   8.431
26478SOL     OW81266   8.978   8.204  14.153
26478SOL    HW181267   8.993   8.187  14.246
26478SOL    HW281268   8.906   8.267  14.151
26479SOL     OW81269  14.767   8.802   6.736
26479SOL    HW181270  14.778   8.746   6.659
26479SOL    HW281271  14.673   8.815   6.743
26480SOL     OW81272   5.964  12.699  14.274
26480SOL    HW181273   5.900  12.690  14.345
26480SOL    HW281274   6.049  12.698  14.318
26481SOL     OW81275   2.112   6.688  12.955
26481SOL    HW181276   2.205   6.668  12.953
26481SOL    HW281277   2.079   6.642  13.033
26482SOL     OW81278   0.746  12.306  12.384
26482SOL    HW181279   0.761  12.223  12.428
26482SOL    HW281280   0.675  12.347  12.433
26483SOL     OW81281   3.135   4.908   8.780
26483SOL    HW181282   3.128   4.818   8.747
26483SOL    HW281283   3.114   4.963   8.704
26484SOL     OW81284   0.082   0.042   3.664
26484SOL    HW181285   0.031   0.046   3.745
26484SOL    HW281286   0.031  14.864   3.606
26485SOL     OW81287   9.453  10.503   9.834
26485SOL    HW181288   9.510  10.455   9.774
26485SOL    HW281289   9.495  10.587   9.847
26486SOL     OW81290   6.760  12.325   8.035
26486SOL    HW181291   6.710  12.399   8.001
26486SOL    HW281292   6.819  12.363   8.100
26487SOL     OW81293   2.199   1.404  12.490
26487SOL    HW181294   2.228   1.451  12.412
26487SOL    HW281295   2.144   1.333  12.457
26488SOL     OW81296  14.461   9.241  14.306
26488SOL    HW181297  14.453   9.336  14.308
26488SOL    HW281298  14.554   9.225  14.316
26489SOL     OW81299  11.817   9.745   6.434
26489SOL    HW181300  11.904   9.730   6.472
26489SOL    HW281301  11.762   9.678   6.473
26490SOL     OW81302  14.564   7.289   6.871
26490SOL    HW181303  14.517   7.372   6.883
26490SOL    HW281304  14.497   7.228   6.839
26491SOL     OW81305  13.045   9.050   5.572
26491SOL    HW181306  13.034   9.044   5.477
26491SOL    HW281307  13.140   9.044   5.586
26492SOL     OW81308  10.743   8.091   7.299
26492SOL    HW181309  10.741   8.026   7.370
26492SOL    HW281310  10.808   8.155   7.327
26493SOL     OW81311   3.874  12.859   0.037
26493SOL    HW181312   3.844  12.769   0.048
26493SOL    HW281313   3.823  12.909   0.101
26494SOL     OW81314  13.708   7.645   6.996
26494SOL    HW181315  13.623   7.646   7.039
26494SOL    HW281316  13.695   7.693   6.915
26495SOL     OW81317   1.241  14.126  11.126
26495SOL    HW181318   1.255  14.046  11.177
26495SOL    HW281319   1.244  14.196  11.191
26496SOL     OW81320  12.478   9.406  14.622
26496SOL    HW181321  12.539   9.338  14.650
26496SOL    HW281322  12.496   9.480  14.679
26497SOL     OW81323   9.417  12.513   1.429
26497SOL    HW181324   9.393  12.424   1.457
26497SOL    HW281325   9.344  12.568   1.458
26498SOL     OW81326   9.285   8.479   4.231
26498SOL    HW181327   9.262   8.565   4.266
26498SOL    HW281328   9.357   8.496   4.170
26499SOL     OW81329   0.759   5.228   9.863
26499SOL    HW181330   0.850   5.247   9.887
26499SOL    HW281331   0.765   5.188   9.776
26500SOL     OW81332  13.220  10.030   0.516
26500SOL    HW181333  13.245  10.075   0.597
26500SOL    HW281334  13.269   9.948   0.518
26501SOL     OW81335   3.548   7.444   5.537
26501SOL    HW181336   3.596   7.523   5.515
26501SOL    HW281337   3.610   7.373   5.520
26502SOL     OW81338   6.564   7.113   3.874
26502SOL    HW181339   6.631   7.174   3.846
26502SOL    HW281340   6.613   7.040   3.913
26503SOL     OW81341   1.893   2.685  14.063
26503SOL    HW181342   1.983   2.714  14.046
26503SOL    HW281343   1.841   2.765  14.056
26504SOL     OW81344  14.453  10.748   3.308
26504SOL    HW181345  14.358  10.740   3.318
26504SOL    HW281346  14.470  10.842   3.314
26505SOL     OW81347   5.002   5.984  14.175
26505SOL    HW181348   5.019   5.895  14.203
26505SOL    HW281349   4.910   6.000  14.198
26506SOL     OW81350   9.651  14.384  10.953
26506SOL    HW181351   9.682  14.472  10.977
26506SOL    HW281352   9.731  14.335  10.934
26507SOL     OW81353   4.536  11.084   3.560
26507SOL    HW181354   4.553  11.034   3.480
26507SOL    HW281355   4.609  11.145   3.567
26508SOL     OW81356  10.047  12.746   9.203
26508SOL    HW181357  10.050  12.656   9.169
26508SOL    HW281358  10.115  12.749   9.270
26509SOL     OW81359  10.716   1.821   7.792
26509SOL    HW181360  10.756   1.754   7.736
26509SOL    HW281361  10.727   1.903   7.744
26510SOL     OW81362  13.701  11.656   4.494
26510SOL    HW181363  13.750  11.576   4.472
26510SOL    HW281364  13.617  11.624   4.525
26511SOL     OW81365   0.792   0.278  11.994
26511SOL    HW181366   0.757   0.204  11.944
26511SOL    HW281367   0.866   0.241  12.043
26512SOL     OW81368  14.195   3.705   3.732
26512SOL    HW181369  14.137   3.650   3.784
26512SOL    HW281370  14.155   3.792   3.735
26513SOL     OW81371   6.850   3.811  12.584
26513SOL    HW181372   6.929   3.851  12.547
26513SOL    HW281373   6.834   3.734  12.530
26514SOL     OW81374   4.952   2.622   9.950
26514SOL    HW181375   4.904   2.606   9.869
26514SOL    HW281376   5.044   2.616   9.924
26515SOL     OW81377   2.124   5.852   1.188
26515SOL    HW181378   2.076   5.926   1.225
26515SOL    HW281379   2.198   5.838   1.247
26516SOL     OW81380   7.709   7.627   8.421
26516SOL    HW181381   7.802   7.617   8.401
26516SOL    HW281382   7.666   7.615   8.337
26517SOL     OW81383   9.812   1.030   3.862
26517SOL    HW181384   9.885   0.973   3.885
26517SOL    HW281385   9.781   0.995   3.778
26518SOL     OW81386  13.650   2.329   1.900
26518SOL    HW181387  13.675   2.402   1.957
26518SOL    HW281388  13.717   2.327   1.832
26519SOL     OW81389   2.914   9.891  12.801
26519SOL    HW181390   3.000   9.932  12.801
26519SOL    HW281391   2.901   9.862  12.710
26520SOL     OW81392   4.551   4.615  12.948
26520SOL    HW181393   4.513   4.652  12.869
26520SOL    HW281394   4.481   4.562  12.986
26521SOL     OW81395   8.525  10.915   9.528
26521SOL    HW181396   8.439  10.956   9.518
26521SOL    HW281397   8.526  10.882   9.618
26522SOL     OW81398   4.596  10.255   1.191
26522SOL    HW181399   4.575  10.251   1.284
26522SOL    HW281400   4.531  10.314   1.154
26523SOL     OW81401   8.557   9.354   0.211
26523SOL    HW181402   8.605   9.435   0.194
26523SOL    HW281403   8.512   9.369   0.294
26524SOL     OW81404  13.225   4.098  14.114
26524SOL    HW181405  13.252   4.189  14.102
26524SOL    HW281406  13.300   4.056  14.155
26525SOL     OW81407   6.929  10.491   4.140
26525SOL    HW181408   6.919  10.458   4.229
26525SOL    HW281409   6.910  10.585   4.146
26526SOL     OW81410  12.469   5.484   1.485
26526SOL    HW181411  12.423   5.436   1.554
26526SOL    HW281412  12.400   5.508   1.423
26527SOL     OW81413   2.480   4.858   5.511
26527SOL    HW181414   2.390   4.850   5.482
26527SOL    HW281415   2.481   4.935   5.567
26528SOL     OW81416   6.244   3.807  12.184
26528SOL    HW181417   6.152   3.784  12.175
26528SOL    HW281418   6.254   3.886  12.131
26529SOL     OW81419   4.874   3.386   3.144
26529SOL    HW181420   4.884   3.474   3.108
26529SOL    HW281421   4.794   3.352   3.103
26530SOL     OW81422  11.167   2.573  10.559
26530SOL    HW181423  11.187   2.611  10.474
26530SOL    HW281424  11.253   2.561  10.601
26531SOL     OW81425   6.147   3.222   2.209
26531SOL    HW181426   6.162   3.170   2.130
26531SOL    HW281427   6.151   3.159   2.281
26532SOL     OW81428  11.496   7.741  14.686
26532SOL    HW181429  11.541   7.665  14.722
26532SOL    HW281430  11.526   7.746  14.595
26533SOL     OW81431   5.181  13.001  12.086
26533SOL    HW181432   5.159  12.968  12.173
26533SOL    HW281433   5.271  13.031  12.094
26534SOL     OW81434   5.351   9.117   1.718
26534SOL    HW181435   5.336   9.211   1.708
26534SOL    HW281436   5.438   9.110   1.757
26535SOL     OW81437   5.944   5.029   0.160
26535SOL    HW181438   5.924   4.967   0.231
26535SOL    HW281439   6.030   5.003   0.129
26536SOL     OW81440   2.593  13.517  14.170
26536SOL    HW181441   2.540  13.484  14.242
26536SOL    HW281442   2.629  13.600  14.202
26537SOL     OW81443   7.831   0.171  12.312
26537SOL    HW181444   7.898   0.151  12.377
26537SOL    HW281445   7.874   0.230  12.250
26538SOL     OW81446   1.885  13.057  11.821
26538SOL    HW181447   1.846  13.055  11.908
26538SOL    HW281448   1.828  13.114  11.770
26539SOL     OW81449   7.635  12.640  14.142
26539SOL    HW181450   7.599  12.720  14.103
26539SOL    HW281451   7.645  12.661  14.235
26540SOL     OW81452   8.914   6.133   0.462
26540SOL    HW181453   8.868   6.215   0.449
26540SOL    HW281454   9.007   6.156   0.454
26541SOL     OW81455   4.732  13.365  11.169
26541SOL    HW181456   4.658  13.328  11.218
26541SOL    HW281457   4.704  13.363  11.078
26542SOL     OW81458  12.858  13.109  14.275
26542SOL    HW181459  12.841  13.015  14.279
26542SOL    HW281460  12.911  13.121  14.197
26543SOL     OW81461   3.140  10.410  11.131
26543SOL    HW181462   3.062  10.408  11.186
26543SOL    HW281463   3.173  10.499  11.139
26544SOL     OW81464  11.955   7.489  14.613
26544SOL    HW181465  12.036   7.468  14.566
26544SOL    HW281466  11.916   7.404  14.632
26545SOL     OW81467   9.334   6.130   0.796
26545SOL    HW181468   9.318   6.224   0.789
26545SOL    HW281469   9.377   6.107   0.714
26546SOL     OW81470  12.950  13.525   1.733
26546SOL    HW181471  12.935  13.553   1.824
26546SOL    HW281472  13.030  13.571   1.707
26547SOL     OW81473   7.848  13.074   6.194
26547SOL    HW181474   7.867  13.165   6.169
26547SOL    HW281475   7.781  13.082   6.262
26548SOL     OW81476   4.360   7.897   9.826
26548SOL    HW181477   4.373   7.893   9.731
26548SOL    HW281478   4.397   7.815   9.858
26549SOL     OW81479   8.423   1.192   9.863
26549SOL    HW181480   8.512   1.169   9.838
26549SOL    HW281481   8.430   1.278   9.903
26550SOL     OW81482  11.164   0.441  14.820
26550SOL    HW181483  11.249   0.397  14.821
26550SOL    HW281484  11.113   0.395  14.754
26551SOL     OW81485   0.351   7.595   1.479
26551SOL    HW181486   0.434   7.643   1.483
26551SOL    HW281487   0.354   7.549   1.395
26552SOL     OW81488  10.615  12.225  12.823
26552SOL    HW181489  10.522  12.220  12.844
26552SOL    HW281490  10.620  12.290  12.753
26553SOL     OW81491   5.364  11.918   9.156
26553SOL    HW181492   5.458  11.936   9.150
26553SOL    HW281493   5.349  11.846   9.095
26554SOL     OW81494   7.207   7.014  11.018
26554SOL    HW181495   7.207   6.978  11.107
26554SOL    HW281496   7.160   7.097  11.026
26555SOL     OW81497  12.099   7.437  13.718
26555SOL    HW181498  12.103   7.455  13.625
26555SOL    HW281499  12.174   7.483  13.756
26556SOL     OW81500  11.591   9.078   8.063
26556SOL    HW181501  11.602   9.142   7.993
26556SOL    HW281502  11.566   8.997   8.018
26557SOL     OW81503  11.894   4.127  10.334
26557SOL    HW181504  11.961   4.196  10.328
26557SOL    HW281505  11.922   4.073  10.409
26558SOL     OW81506   0.217   9.441  12.734
26558SOL    HW181507   0.276   9.365  12.736
26558SOL    HW281508   0.222   9.477  12.822
26559SOL     OW81509   7.958  13.456   7.154
26559SOL    HW181510   7.903  13.524   7.192
26559SOL    HW281511   8.021  13.503   7.100
26560SOL     OW81512   0.028   6.537  11.756
26560SOL    HW181513   0.026   6.498  11.669
26560SOL    HW281514   0.040   6.630  11.741
26561SOL     OW81515   9.484   3.023   3.434
26561SOL    HW181516   9.533   2.959   3.383
26561SOL    HW281517   9.549   3.087   3.461
26562SOL     OW81518   1.204   5.647   3.268
26562SOL    HW181519   1.182   5.726   3.219
26562SOL    HW281520   1.256   5.594   3.207
26563SOL     OW81521   6.497   8.059  12.656
26563SOL    HW181522   6.589   8.061  12.682
26563SOL    HW281523   6.454   8.008  12.725
26564SOL     OW81524  11.009  10.271  12.344
26564SOL    HW181525  10.941  10.206  12.359
26564SOL    HW281526  11.077  10.250  12.408
26565SOL     OW81527   3.251   4.271   1.330
26565SOL    HW181528   3.268   4.215   1.254
26565SOL    HW281529   3.182   4.331   1.300
26566SOL     OW81530   8.771  14.842   0.940
26566SOL    HW181531   8.793   0.001   1.026
26566SOL    HW281532   8.849  14.793   0.915
26567SOL     OW81533  11.898  12.186   3.795
26567SOL    HW181534  11.985  12.181   3.835
26567SOL    HW281535  11.914  12.178   3.701
26568SOL     OW81536   6.646   9.705   4.826
26568SOL    HW181537   6.600   9.654   4.893
26568SOL    HW281538   6.711   9.755   4.876
26569SOL     OW81539  10.300   2.571   8.569
26569SOL    HW181540  10.374   2.620   8.605
26569SOL    HW281541  10.229   2.634   8.564
26570SOL     OW81542  11.626   8.307  12.146
26570SOL    HW181543  11.577   8.384  12.117
26570SOL    HW281544  11.610   8.302  12.240
26571SOL     OW81545  10.467   5.799   1.017
26571SOL    HW181546  10.379   5.763   1.008
26571SOL    HW281547  10.497   5.770   1.103
26572SOL     OW81548   9.146  11.211   3.891
26572SOL    HW181549   9.123  11.287   3.945
26572SOL    HW281550   9.239  11.199   3.906
26573SOL     OW81551  12.684  14.701  13.862
26573SOL    HW181552  12.676  14.794  13.883
26573SOL    HW281553  12.769  14.675  13.898
26574SOL     OW81554   5.081  10.390   4.156
26574SOL    HW181555   5.003  10.446   4.161
26574SOL    HW281556   5.152  10.445   4.189
26575SOL     OW81557  14.745   3.581   9.272
26575SOL    HW181558  14.691   3.603   9.196
26575SOL    HW281559  14.682   3.564   9.342
26576SOL     OW81560   1.327  13.939   6.526
26576SOL    HW181561   1.389  13.922   6.455
26576SOL    HW281562   1.355  14.021   6.565
26577SOL     OW81563   1.051   3.061  11.662
26577SOL    HW181564   1.095   3.133  11.617
26577SOL    HW281565   1.068   3.077  11.755
26578SOL     OW81566  13.123  14.419   2.145
26578SOL    HW181567  13.191  14.446   2.083
26578SOL    HW281568  13.169  14.364   2.209
26579SOL     OW81569   5.494   6.392  11.909
26579SOL    HW181570   5.562   6.391  11.843
26579SOL    HW281571   5.501   6.478  11.950
26580SOL     OW81572   2.530   8.655   7.072
26580SOL    HW181573   2.480   8.714   7.128
26580SOL    HW281574   2.487   8.570   7.082
26581SOL     OW81575  14.849   2.509  11.086
26581SOL    HW181576  14.852   2.528  11.180
26581SOL    HW281577   0.028   2.434  11.075
26582SOL     OW81578   3.743  13.157   2.817
26582SOL    HW181579   3.736  13.248   2.790
26582SOL    HW281580   3.798  13.116   2.751
26583SOL     OW81581   6.636   4.214  13.347
26583SOL    HW181582   6.580   4.271  13.400
26583SOL    HW281583   6.575   4.169  13.289
26584SOL     OW81584   5.220  14.716   7.919
26584SOL    HW181585   5.267  14.633   7.911
26584SOL    HW281586   5.157  14.701   7.989
26585SOL     OW81587   2.770   4.358   6.102
26585SOL    HW181588   2.850   4.318   6.134
26585SOL    HW281589   2.716   4.372   6.180
26586SOL     OW81590  14.743   1.340   5.342
26586SOL    HW181591  14.665   1.305   5.385
26586SOL    HW281592  14.785   1.395   5.408
26587SOL     OW81593   3.162   4.918   1.196
26587SOL    HW181594   3.091   4.855   1.186
26587SOL    HW281595   3.236   4.878   1.150
26588SOL     OW81596   0.550   1.062   3.963
26588SOL    HW181597   0.612   1.121   4.006
26588SOL    HW281598   0.506   1.117   3.898
26589SOL     OW81599   4.681  11.152  10.363
26589SOL    HW181600   4.727  11.189  10.438
26589SOL    HW281601   4.738  11.169  10.288
26590SOL     OW81602   1.315   0.998   7.213
26590SOL    HW181603   1.377   0.976   7.283
26590SOL    HW281604   1.311   0.919   7.159
26591SOL     OW81605   9.497   2.255  11.671
26591SOL    HW181606   9.467   2.326  11.615
26591SOL    HW281607   9.472   2.282  11.760
26592SOL     OW81608   3.631   6.125   5.134
26592SOL    HW181609   3.712   6.095   5.092
26592SOL    HW281610   3.562   6.105   5.071
26593SOL     OW81611   2.538   1.243  10.367
26593SOL    HW181612   2.632   1.246  10.349
26593SOL    HW281613   2.528   1.169  10.427
26594SOL     OW81614   7.599   4.103  13.613
26594SOL    HW181615   7.621   4.157  13.538
26594SOL    HW281616   7.684   4.076  13.649
26595SOL     OW81617  12.536  14.740   1.072
26595SOL    HW181618  12.546  14.825   1.029
26595SOL    HW281619  12.471  14.694   1.019
26596SOL     OW81620   0.075   0.968   0.555
26596SOL    HW181621   0.067   1.063   0.568
26596SOL    HW281622   0.010   0.948   0.487
26597SOL     OW81623   9.244  10.542   0.824
26597SOL    HW181624   9.265  10.542   0.731
26597SOL    HW281625   9.181  10.470   0.834
26598SOL     OW81626   0.195   7.465   6.802
26598SOL    HW181627   0.103   7.472   6.827
26598SOL    HW281628   0.218   7.552   6.769
26599SOL     OW81629  14.161   5.093   7.357
26599SOL    HW181630  14.111   5.138   7.289
26599SOL    HW281631  14.253   5.113   7.337
26600SOL     OW81632   2.184   3.598   6.908
26600SOL    HW181633   2.201   3.575   6.817
26600SOL    HW281634   2.167   3.515   6.951
26601SOL     OW81635   8.145   9.983   9.307
26601SOL    HW181636   8.058   9.960   9.338
26601SOL    HW281637   8.200   9.910   9.336
26602SOL     OW81638  11.061   2.767   6.218
26602SOL    HW181639  11.067   2.777   6.123
26602SOL    HW281640  11.007   2.841   6.247
26603SOL     OW81641   5.175   8.212   3.903
26603SOL    HW181642   5.227   8.202   3.823
26603SOL    HW281643   5.093   8.168   3.883
26604SOL     OW81644   8.271  12.701   5.170
26604SOL    HW181645   8.202  12.731   5.228
26604SOL    HW281646   8.242  12.614   5.142
26605SOL     OW81647   4.452   2.449   9.242
26605SOL    HW181648   4.483   2.443   9.151
26605SOL    HW281649   4.531   2.461   9.294
26606SOL     OW81650   8.036   9.079  12.656
26606SOL    HW181651   7.946   9.107  12.641
26606SOL    HW281652   8.051   9.011  12.590
26607SOL     OW81653  10.008   8.961   2.366
26607SOL    HW181654  10.047   8.879   2.397
26607SOL    HW281655   9.926   8.969   2.416
26608SOL     OW81656  12.498   2.679   3.552
26608SOL    HW181657  12.470   2.688   3.461
26608SOL    HW281658  12.456   2.752   3.597
26609SOL     OW81659   1.769  14.522  12.614
26609SOL    HW181660   1.717  14.602  12.607
26609SOL    HW281661   1.840  14.544  12.674
26610SOL     OW81662  13.967  13.655  11.426
26610SOL    HW181663  13.987  13.565  11.453
26610SOL    HW281664  14.044  13.705  11.454
26611SOL     OW81665  10.659   9.029   0.768
26611SOL    HW181666  10.729   9.040   0.704
26611SOL    HW281667  10.680   8.946   0.811
26612SOL     OW81668  14.752   4.811   4.852
26612SOL    HW181669  14.836   4.848   4.825
26612SOL    HW281670  14.764   4.787   4.944
26613SOL     OW81671   2.684  13.003   7.063
26613SOL    HW181672   2.666  13.003   6.970
26613SOL    HW281673   2.707  12.912   7.083
26614SOL     OW81674  10.773   0.212  14.509
26614SOL    HW181675  10.824   0.276  14.460
26614SOL    HW281676  10.839   0.161  14.557
26615SOL     OW81677   3.110   8.322   0.417
26615SOL    HW181678   3.128   8.228   0.418
26615SOL    HW281679   3.170   8.357   0.351
26616SOL     OW81680  10.484  10.443   9.201
26616SOL    HW181681  10.396  10.478   9.187
26616SOL    HW281682  10.473  10.374   9.266
26617SOL     OW81683   4.548  10.710  14.096
26617SOL    HW181684   4.471  10.740  14.144
26617SOL    HW281685   4.616  10.703  14.163
26618SOL     OW81686   5.007  14.672   2.075
26618SOL    HW181687   4.914  14.648   2.075
26618SOL    HW281688   5.050  14.602   2.027
26619SOL     OW81689   2.824  10.379  10.976
26619SOL    HW181690   2.846  10.403  11.066
26619SOL    HW281691   2.846  10.285  10.971
26620SOL     OW81692   3.964  14.092   9.114
26620SOL    HW181693   3.992  14.182   9.134
26620SOL    HW281694   4.007  14.038   9.181
26621SOL     OW81695  10.951  13.183  10.898
26621SOL    HW181696  10.880  13.134  10.938
26621SOL    HW281697  10.976  13.248  10.963
26622SOL     OW81698   9.452   6.552   5.527
26622SOL    HW181699   9.389   6.491   5.490
26622SOL    HW281700   9.524   6.554   5.463
26623SOL     OW81701  12.719   6.406   3.927
26623SOL    HW181702  12.789   6.383   3.866
26623SOL    HW281703  12.646   6.434   3.872
26624SOL     OW81704   3.851  11.944   8.043
26624SOL    HW181705   3.910  11.871   8.020
26624SOL    HW281706   3.826  11.982   7.959
26625SOL     OW81707   6.003   6.482  10.798
26625SOL    HW181708   5.919   6.473  10.842
26625SOL    HW281709   6.037   6.393  10.791
26626SOL     OW81710  14.855   7.595   7.133
26626SOL    HW181711  14.840   7.569   7.224
26626SOL    HW281712  14.830   7.519   7.081
26627SOL     OW81713   9.241  14.355   9.009
26627SOL    HW181714   9.264  14.328   9.098
26627SOL    HW281715   9.319  14.333   8.957
26628SOL     OW81716   2.415   3.376   3.361
26628SOL    HW181717   2.333   3.423   3.372
26628SOL    HW281718   2.394   3.306   3.298
26629SOL     OW81719  10.907   8.802   1.327
26629SOL    HW181720  10.835   8.785   1.266
26629SOL    HW281721  10.901   8.896   1.345
26630SOL     OW81722  11.509  13.551   2.533
26630SOL    HW181723  11.548  13.638   2.530
26630SOL    HW281724  11.418  13.565   2.507
26631SOL     OW81725   2.744   9.631   6.753
26631SOL    HW181726   2.682   9.704   6.749
26631SOL    HW281727   2.725   9.579   6.675
26632SOL     OW81728   8.886  11.528   1.470
26632SOL    HW181729   8.924  11.455   1.519
26632SOL    HW281730   8.952  11.597   1.474
26633SOL     OW81731  11.495   9.618   2.232
26633SOL    HW181732  11.585   9.587   2.218
26633SOL    HW281733  11.442   9.538   2.235
26634SOL     OW81734   4.435   0.715   7.352
26634SOL    HW181735   4.394   0.752   7.273
26634SOL    HW281736   4.383   0.749   7.424
26635SOL     OW81737   7.919   5.962   8.727
26635SOL    HW181738   7.925   5.942   8.821
26635SOL    HW281739   7.840   6.015   8.719
26636SOL     OW81740   2.438   5.424   4.913
26636SOL    HW181741   2.355   5.448   4.872
26636SOL    HW281742   2.420   5.341   4.958
26637SOL     OW81743   6.671   3.796  10.009
26637SOL    HW181744   6.718   3.718  10.039
26637SOL    HW281745   6.650   3.777   9.917
26638SOL     OW81746   2.630   8.476   3.367
26638SOL    HW181747   2.659   8.519   3.287
26638SOL    HW281748   2.688   8.510   3.435
26639SOL     OW81749   2.597  12.488  14.338
26639SOL    HW181750   2.528  12.481  14.272
26639SOL    HW281751   2.608  12.583  14.351
26640SOL     OW81752   0.049   8.690  14.259
26640SOL    HW181753  14.840   8.724  14.274
26640SOL    HW281754   0.108   8.750  14.305
26641SOL     OW81755   5.440   3.069   9.980
26641SOL    HW181756   5.396   2.986   9.996
26641SOL    HW281757   5.483   3.090  10.063
26642SOL     OW81758   3.002   8.068   9.780
26642SOL    HW181759   3.085   8.063   9.827
26642SOL    HW281760   2.954   7.991   9.808
26643SOL     OW81761   8.647   4.457   0.298
26643SOL    HW181762   8.726   4.445   0.350
26643SOL    HW281763   8.655   4.546   0.262
26644SOL     OW81764   4.377  14.820   0.047
26644SOL    HW181765   4.413  14.735   0.072
26644SOL    HW281766   4.291  14.799   0.010
26645SOL     OW81767  13.603   5.440   7.660
26645SOL    HW181768  13.516   5.464   7.628
26645SOL    HW281769  13.663   5.480   7.597
26646SOL     OW81770   9.925  10.548   2.748
26646SOL    HW181771   9.984  10.524   2.820
26646SOL    HW281772   9.844  10.501   2.767
26647SOL     OW81773   9.104   8.520   7.644
26647SOL    HW181774   9.025   8.477   7.676
26647SOL    HW281775   9.136   8.571   7.718
26648SOL     OW81776  10.123  14.111   2.650
26648SOL    HW181777  10.057  14.150   2.592
26648SOL    HW281778  10.095  14.020   2.659
26649SOL     OW81779   4.820   2.378   6.698
26649SOL    HW181780   4.750   2.418   6.647
26649SOL    HW281781   4.839   2.442   6.767
26650SOL     OW81782   3.162   4.491   5.596
26650SOL    HW181783   3.149   4.501   5.502
26650SOL    HW281784   3.254   4.514   5.610
26651SOL     OW81785  14.015  10.775   5.931
26651SOL    HW181786  14.019  10.834   6.006
26651SOL    HW281787  13.940  10.807   5.880
26652SOL     OW81788  10.910   3.870   3.034
26652SOL    HW181789  10.887   3.814   3.108
26652SOL    HW281790  10.924   3.956   3.073
26653SOL     OW81791  13.368   9.714   7.064
26653SOL    HW181792  13.379   9.732   7.157
26653SOL    HW281793  13.277   9.685   7.055
26654SOL     OW81794  10.490   4.091  12.030
26654SOL    HW181795  10.507   4.185  12.031
26654SOL    HW281796  10.480   4.069  11.937
26655SOL     OW81797   0.712   2.446   9.330
26655SOL    HW181798   0.724   2.512   9.262
26655SOL    HW281799   0.718   2.362   9.284
26656SOL     OW81800  12.606   5.954  12.346
26656SOL    HW181801  12.521   5.973  12.385
26656SOL    HW281802  12.665   6.017  12.387
26657SOL     OW81803   4.700   1.086   7.974
26657SOL    HW181804   4.723   1.035   7.896
26657SOL    HW281805   4.634   1.147   7.944
26658SOL     OW81806   3.596   1.976   4.961
26658SOL    HW181807   3.614   1.983   5.055
26658SOL    HW281808   3.615   1.885   4.939
26659SOL     OW81809   6.622   1.958  13.188
26659SOL    HW181810   6.614   2.043  13.232
26659SOL    HW281811   6.599   1.894  13.255
26660SOL     OW81812  10.109   7.704  11.653
26660SOL    HW181813  10.110   7.633  11.589
26660SOL    HW281814  10.201   7.716  11.677
26661SOL     OW81815   3.885   2.423  12.702
26661SOL    HW181816   3.940   2.446  12.627
26661SOL    HW281817   3.811   2.484  12.697
26662SOL     OW81818   9.130   5.215   1.838
26662SOL    HW181819   9.092   5.127   1.838
26662SOL    HW281820   9.058   5.273   1.864
26663SOL     OW81821   3.326   5.728  13.857
26663SOL    HW181822   3.395   5.752  13.795
26663SOL    HW281823   3.259   5.795  13.846
26664SOL     OW81824   0.535  12.737  13.121
26664SOL    HW181825   0.583  12.806  13.076
26664SOL    HW281826   0.467  12.784  13.170
26665SOL     OW81827   7.562   2.981   5.183
26665SOL    HW181828   7.621   3.045   5.223
26665SOL    HW281829   7.581   2.899   5.229
26666SOL     OW81830   0.750   5.529  10.433
26666SOL    HW181831   0.773   5.518  10.340
26666SOL    HW281832   0.749   5.624  10.446
26667SOL     OW81833   9.812   5.976   2.615
26667SOL    HW181834   9.735   5.926   2.589
26667SOL    HW281835   9.824   5.956   2.707
26668SOL     OW81836  14.454   9.461  11.501
26668SOL    HW181837  14.435   9.423  11.415
26668SOL    HW281838  14.482   9.387  11.555
26669SOL     OW81839   9.198   3.216  11.446
26669SOL    HW181840   9.247   3.167  11.379
26669SOL    HW281841   9.266   3.253  11.502
26670SOL     OW81842   2.746   2.388   9.480
26670SOL    HW181843   2.779   2.477   9.461
26670SOL    HW281844   2.685   2.370   9.409
26671SOL     OW81845  11.438   4.323  12.684
26671SOL    HW181846  11.372   4.296  12.620
26671SOL    HW281847  11.516   4.340  12.631
26672SOL     OW81848   8.044  13.841   6.180
26672SOL    HW181849   7.987  13.899   6.129
26672SOL    HW281850   7.990  13.816   6.256
26673SOL     OW81851  10.066   8.171   2.153
26673SOL    HW181852  10.059   8.076   2.158
26673SOL    HW281853  10.157   8.190   2.178
26674SOL     OW81854   6.370   8.036  11.480
26674SOL    HW181855   6.382   8.104  11.546
26674SOL    HW281856   6.320   8.079  11.410
26675SOL     OW81857   9.824  13.685   2.668
26675SOL    HW181858   9.835  13.667   2.575
26675SOL    HW281859   9.736  13.653   2.689
26676SOL     OW81860   6.030   1.541   8.838
26676SOL    HW181861   6.036   1.634   8.858
26676SOL    HW281862   5.937   1.526   8.820
26677SOL     OW81863   2.696  12.033   2.490
26677SOL    HW181864   2.766  12.098   2.498
26677SOL    HW281865   2.734  11.962   2.439
26678SOL     OW81866  11.953   6.665  12.595
26678SOL    HW181867  12.007   6.598  12.553
26678SOL    HW281868  11.927   6.626  12.678
26679SOL     OW81869   5.225  10.004   0.220
26679SOL    HW181870   5.246   9.919   0.182
26679SOL    HW281871   5.190  10.055   0.148
26680SOL     OW81872   8.296   0.816  14.376
26680SOL    HW181873   8.224   0.873  14.347
26680SOL    HW281874   8.351   0.806  14.299
26681SOL     OW81875  13.816   7.343  12.097
26681SOL    HW181876  13.879   7.271  12.093
26681SOL    HW281877  13.738   7.304  12.136
26682SOL     OW81878  12.500   1.145   3.184
26682SOL    HW181879  12.536   1.209   3.121
26682SOL    HW281880  12.483   1.067   3.132
26683SOL     OW81881   9.044   2.724   2.187
26683SOL    HW181882   8.963   2.758   2.150
26683SOL    HW281883   9.035   2.739   2.281
26684SOL     OW81884  14.281  11.234   9.348
26684SOL    HW181885  14.305  11.282   9.269
26684SOL    HW281886  14.222  11.166   9.317
26685SOL     OW81887  10.274  13.009   4.567
26685SOL    HW181888  10.258  13.054   4.484
26685SOL    HW281889  10.188  12.999   4.607
26686SOL     OW81890   7.130   0.765  12.457
26686SOL    HW181891   7.181   0.761  12.376
26686SOL    HW281892   7.101   0.856  12.463
26687SOL     OW81893   8.834   9.493  13.964
26687SOL    HW181894   8.872   9.557  13.904
26687SOL    HW281895   8.778   9.545  14.022
26688SOL     OW81896   1.362   3.927   3.111
26688SOL    HW181897   1.272   3.956   3.098
26688SOL    HW281898   1.361   3.834   3.091
26689SOL     OW81899   8.199   7.847   1.164
26689SOL    HW181900   8.124   7.830   1.221
26689SOL    HW281901   8.182   7.794   1.086
26690SOL     OW81902   6.672   0.092   3.187
26690SOL    HW181903   6.652   0.181   3.216
26690SOL    HW281904   6.753   0.101   3.137
26691SOL     OW81905   3.991  12.957  14.474
26691SOL    HW181906   3.969  12.899  14.546
26691SOL    HW281907   3.906  12.979  14.435
26692SOL     OW81908   2.933  11.760   6.036
26692SOL    HW181909   2.849  11.715   6.023
26692SOL    HW281910   2.961  11.735   6.124
26693SOL     OW81911   0.277   9.366   3.682
26693SOL    HW181912   0.260   9.419   3.604
26693SOL    HW281913   0.315   9.285   3.649
26694SOL     OW81914   2.328   2.349   4.989
26694SOL    HW181915   2.233   2.350   4.976
26694SOL    HW281916   2.362   2.302   4.912
26695SOL     OW81917  10.766   4.139   0.517
26695SOL    HW181918  10.707   4.215   0.519
26695SOL    HW281919  10.853   4.177   0.528
26696SOL     OW81920   9.086  11.311   5.985
26696SOL    HW181921   9.068  11.293   6.077
26696SOL    HW281922   9.181  11.305   5.977
26697SOL     OW81923   7.940   5.602   0.884
26697SOL    HW181924   7.904   5.565   0.965
26697SOL    HW281925   7.923   5.535   0.818
26698SOL     OW81926  10.566   2.668   8.741
26698SOL    HW181927  10.647   2.659   8.690
26698SOL    HW281928  10.535   2.756   8.720
26699SOL     OW81929  11.827   2.604  10.165
26699SOL    HW181930  11.767   2.560  10.104
26699SOL    HW281931  11.906   2.619  10.114
26700SOL     OW81932  14.656   3.899  11.037
26700SOL    HW181933  14.722   3.879  10.971
26700SOL    HW281934  14.612   3.816  11.053
26701SOL     OW81935  14.501   5.067   5.452
26701SOL    HW181936  14.411   5.037   5.464
26701SOL    HW281937  14.536   5.011   5.383
26702SOL     OW81938   5.651  14.334  10.167
26702SOL    HW181939   5.646  14.429  10.164
26702SOL    HW281940   5.569  14.304  10.128
26703SOL     OW81941   4.861   2.195   9.415
26703SOL    HW181942   4.863   2.132   9.343
26703SOL    HW281943   4.891   2.146   9.491
26704SOL     OW81944   6.313   6.876   0.787
26704SOL    HW181945   6.285   6.787   0.768
26704SOL    HW281946   6.356   6.870   0.872
26705SOL     OW81947  13.307   9.520   7.913
26705SOL    HW181948  13.344   9.495   7.998
26705SOL    HW281949  13.327   9.614   7.905
26706SOL     OW81950   2.675   4.814  14.290
26706SOL    HW181951   2.675   4.910  14.286
26706SOL    HW281952   2.768   4.790  14.289
26707SOL     OW81953   0.406  10.451   2.140
26707SOL    HW181954   0.490  10.425   2.103
26707SOL    HW281955   0.427  10.487   2.226
26708SOL     OW81956   6.950  12.426   4.793
26708SOL    HW181957   6.896  12.489   4.839
26708SOL    HW281958   6.915  12.424   4.704
26709SOL     OW81959   3.493   0.435   4.263
26709SOL    HW181960   3.538   0.412   4.181
26709SOL    HW281961   3.547   0.397   4.331
26710SOL     OW81962   2.435  10.414   4.591
26710SOL    HW181963   2.445  10.422   4.496
26710SOL    HW281964   2.341  10.400   4.604
26711SOL     OW81965  13.191  10.969  10.451
26711SOL    HW181966  13.196  11.024  10.373
26711SOL    HW281967  13.272  10.918  10.449
26712SOL     OW81968   7.757  12.872   4.170
26712SOL    HW181969   7.683  12.811   4.175
26712SOL    HW281970   7.742  12.934   4.241
26713SOL     OW81971   1.885   6.021   3.205
26713SOL    HW181972   1.808   6.033   3.260
26713SOL    HW281973   1.899   6.106   3.163
26714SOL     OW81974   0.869  10.259  12.214
26714SOL    HW181975   0.907  10.323  12.154
26714SOL    HW281976   0.872  10.177  12.166
26715SOL     OW81977   0.793  12.569  14.276
26715SOL    HW181978   0.835  12.630  14.337
26715SOL    HW281979   0.709  12.609  14.255
26716SOL     OW81980  13.624  14.375   4.386
26716SOL    HW181981  13.613  14.469   4.394
26716SOL    HW281982  13.710  14.357   4.423
26717SOL     OW81983   8.217   4.316  12.674
26717SOL    HW181984   8.304   4.280  12.695
26717SOL    HW281985   8.182   4.343  12.758
26718SOL     OW81986  12.009   9.750   7.574
26718SOL    HW181987  11.919   9.762   7.544
26718SOL    HW281988  12.063   9.776   7.499
26719SOL     OW81989   7.342   9.097  13.877
26719SOL    HW181990   7.287   9.175  13.875
26719SOL    HW281991   7.337   9.065  13.967
26720SOL     OW81992  12.738   4.774   3.245
26720SOL    HW181993  12.666   4.763   3.307
26720SOL    HW281994  12.766   4.685   3.226
26721SOL     OW81995  13.635   2.059  10.919
26721SOL    HW181996  13.570   2.129  10.913
26721SOL    HW281997  13.603   2.001  10.988
26722SOL     OW81998   2.519   5.623  12.312
26722SOL    HW181999   2.468   5.600  12.235
26722SOL    HW282000   2.525   5.542  12.362
26723SOL     OW82001   0.295   1.461   1.658
26723SOL    HW182002   0.302   1.546   1.700
26723SOL    HW282003   0.203   1.436   1.669
26724SOL     OW82004  12.239  10.504  13.640
26724SOL    HW182005  12.320  10.458  13.659
26724SOL    HW282006  12.178  10.435  13.614
26725SOL     OW82007  11.514   6.628   4.531
26725SOL    HW182008  11.570   6.683   4.585
26725SOL    HW282009  11.457   6.583   4.594
26726SOL     OW82010  12.433   2.019   4.200
26726SOL    HW182011  12.514   1.977   4.170
26726SOL    HW282012  12.430   1.999   4.294
26727SOL     OW82013  14.852   1.214   5.048
26727SOL    HW182014   0.059   1.257   5.047
26727SOL    HW282015  14.821   1.225   5.138
26728SOL     OW82016   0.004   0.066   6.649
26728SOL    HW182017  14.807   0.008   6.634
26728SOL    HW282018   0.020   0.105   6.563
26729SOL     OW82019  10.053   8.698  10.559
26729SOL    HW182020  10.140   8.734  10.542
26729SOL    HW282021   9.996   8.743  10.496
26730SOL     OW82022   4.956   1.386   3.133
26730SOL    HW182023   4.954   1.453   3.201
26730SOL    HW282024   4.885   1.326   3.156
26731SOL     OW82025   6.677   4.931   1.757
26731SOL    HW182026   6.741   4.859   1.751
26731SOL    HW282027   6.702   4.990   1.686
26732SOL     OW82028   1.690  14.216   0.122
26732SOL    HW182029   1.699  14.192   0.214
26732SOL    HW282030   1.618  14.161   0.090
26733SOL     OW82031   4.938   8.094  10.239
26733SOL    HW182032   4.980   8.156  10.179
26733SOL    HW282033   4.933   8.012  10.190
26734SOL     OW82034   1.607  12.721  13.023
26734SOL    HW182035   1.587  12.813  13.005
26734SOL    HW282036   1.603  12.714  13.118
26735SOL     OW82037  13.809   1.783   0.749
26735SOL    HW182038  13.891   1.757   0.707
26735SOL    HW282039  13.748   1.713   0.727
26736SOL     OW82040   3.532   8.890   3.931
26736SOL    HW182041   3.490   8.948   3.868
26736SOL    HW282042   3.464   8.829   3.958
26737SOL     OW82043  14.129  10.246   1.689
26737SOL    HW182044  14.041  10.271   1.659
26737SOL    HW282045  14.115  10.171   1.747
26738SOL     OW82046  11.465   6.989   5.484
26738SOL    HW182047  11.384   7.010   5.436
26738SOL    HW282048  11.440   6.995   5.576
26739SOL     OW82049  11.695  13.509  13.431
26739SOL    HW182050  11.785  13.482  13.409
26739SOL    HW282051  11.691  13.500  13.526
26740SOL     OW82052   5.523   3.105   3.482
26740SOL    HW182053   5.572   3.022   3.479
26740SOL    HW282054   5.462   3.098   3.408
26741SOL     OW82055  11.453  10.580   2.165
26741SOL    HW182056  11.548  10.570   2.158
26741SOL    HW282057  11.423  10.494   2.195
26742SOL     OW82058   2.644   8.626   1.736
26742SOL    HW182059   2.689   8.692   1.788
26742SOL    HW282060   2.688   8.629   1.651
26743SOL     OW82061   0.499  14.028   6.528
26743SOL    HW182062   0.459  14.063   6.608
26743SOL    HW282063   0.424  14.002   6.474
26744SOL     OW82064   7.359   1.854   7.261
26744SOL    HW182065   7.323   1.772   7.295
26744SOL    HW282066   7.289   1.918   7.273
26745SOL     OW82067   0.400   2.250   3.419
26745SOL    HW182068   0.380   2.157   3.427
26745SOL    HW282069   0.465   2.267   3.488
26746SOL     OW82070   1.627   5.389   1.170
26746SOL    HW182071   1.693   5.436   1.221
26746SOL    HW282072   1.662   5.388   1.081
26747SOL     OW82073   8.221   5.038   9.405
26747SOL    HW182074   8.256   5.103   9.344
26747SOL    HW282075   8.130   5.027   9.379
26748SOL     OW82076   1.725   8.370  11.276
26748SOL    HW182077   1.635   8.350  11.249
26748SOL    HW282078   1.767   8.285  11.286
26749SOL     OW82079  11.276   1.618  11.406
26749SOL    HW182080  11.184   1.593  11.400
26749SOL    HW282081  11.306   1.621  11.315
26750SOL     OW82082   9.102  14.270   7.490
26750SOL    HW182083   9.126  14.356   7.526
26750SOL    HW282084   9.036  14.289   7.424
26751SOL     OW82085   8.631   8.184  12.735
26751SOL    HW182086   8.654   8.187  12.642
26751SOL    HW282087   8.678   8.108  12.769
26752SOL     OW82088   7.358  12.400  14.538
26752SOL    HW182089   7.281  12.361  14.578
26752SOL    HW282090   7.410  12.326  14.508
26753SOL     OW82091  14.602  11.259  13.306
26753SOL    HW182092  14.682  11.308  13.327
26753SOL    HW282093  14.632  11.168  13.298
26754SOL     OW82094   9.393   7.620   9.341
26754SOL    HW182095   9.441   7.555   9.393
26754SOL    HW282096   9.307   7.581   9.328
26755SOL     OW82097  10.143   5.932   3.100
26755SOL    HW182098  10.060   5.918   3.147
26755SOL    HW282099  10.154   6.027   3.100
26756SOL     OW82100   9.979   7.786   7.979
26756SOL    HW182101   9.949   7.805   8.068
26756SOL    HW282102   9.952   7.695   7.964
26757SOL     OW82103  11.505   9.221  11.325
26757SOL    HW182104  11.410   9.223  11.331
26757SOL    HW282105  11.536   9.265  11.404
26758SOL     OW82106   8.269   7.284  10.474
26758SOL    HW182107   8.250   7.203  10.520
26758SOL    HW282108   8.229   7.272  10.388
26759SOL     OW82109  12.985  13.564   9.593
26759SOL    HW182110  12.968  13.552   9.499
26759SOL    HW282111  13.039  13.488   9.617
26760SOL     OW82112  12.190   8.798   6.183
26760SOL    HW182113  12.129   8.805   6.109
26760SOL    HW282114  12.252   8.730   6.157
26761SOL     OW82115  13.837  12.355  12.072
26761SOL    HW182116  13.869  12.306  12.148
26761SOL    HW282117  13.749  12.383  12.097
26762SOL     OW82118  13.472  14.471   0.365
26762SOL    HW182119  13.501  14.469   0.456
26762SOL    HW282120  13.498  14.386   0.329
26763SOL     OW82121  12.337  14.126  13.655
26763SOL    HW182122  12.291  14.043  13.639
26763SOL    HW282123  12.408  14.102  13.715
26764SOL     OW82124   8.241   2.620  11.928
26764SOL    HW182125   8.270   2.562  11.857
26764SOL    HW282126   8.320   2.642  11.976
26765SOL     OW82127   9.904   8.470   7.450
26765SOL    HW182128   9.981   8.525   7.437
26765SOL    HW282129   9.866   8.501   7.532
26766SOL     OW82130  10.637   4.046   1.278
26766SOL    HW182131  10.546   4.042   1.307
26766SOL    HW282132  10.636   4.106   1.203
26767SOL     OW82133   6.957   1.314   3.685
26767SOL    HW182134   6.866   1.339   3.670
26767SOL    HW282135   6.977   1.253   3.614
26768SOL     OW82136   9.953   2.180   9.768
26768SOL    HW182137  10.032   2.161   9.819
26768SOL    HW282138   9.909   2.248   9.818
26769SOL     OW82139  13.801   4.016   1.576
26769SOL    HW182140  13.801   4.012   1.672
26769SOL    HW282141  13.887   3.982   1.551
26770SOL     OW82142   4.773   5.355   3.822
26770SOL    HW182143   4.744   5.385   3.736
26770SOL    HW282144   4.850   5.408   3.842
26771SOL     OW82145  11.599  10.574   7.249
26771SOL    HW182146  11.511  10.580   7.288
26771SOL    HW282147  11.657  10.610   7.316
26772SOL     OW82148  10.074   4.556  10.822
26772SOL    HW182149  10.077   4.498  10.746
26772SOL    HW282150  10.083   4.497  10.898
26773SOL     OW82151   6.802  10.536   6.298
26773SOL    HW182152   6.714  10.519   6.264
26773SOL    HW282153   6.860  10.515   6.224
26774SOL     OW82154   2.543  13.648   9.413
26774SOL    HW182155   2.551  13.650   9.318
26774SOL    HW282156   2.530  13.556   9.434
26775SOL     OW82157   6.250   7.063  13.229
26775SOL    HW182158   6.259   7.110  13.146
26775SOL    HW282159   6.163   7.088  13.261
26776SOL     OW82160   4.316   9.582   9.853
26776SOL    HW182161   4.277   9.494   9.855
26776SOL    HW282162   4.314   9.607   9.761
26777SOL     OW82163   6.833   8.866   3.033
26777SOL    HW182164   6.862   8.924   3.104
26777SOL    HW282165   6.821   8.781   3.076
26778SOL     OW82166   3.164   2.310  12.442
26778SOL    HW182167   3.211   2.230  12.465
26778SOL    HW282168   3.225   2.359  12.387
26779SOL     OW82169  13.388  11.944   3.737
26779SOL    HW182170  13.319  12.010   3.742
26779SOL    HW282171  13.349  11.871   3.690
26780SOL     OW82172   1.483   1.077  11.551
26780SOL    HW182173   1.498   0.985  11.572
26780SOL    HW282174   1.560   1.103  11.501
26781SOL     OW82175   5.690  12.572   8.457
26781SOL    HW182176   5.661  12.490   8.417
26781SOL    HW282177   5.780  12.554   8.485
26782SOL     OW82178  13.032   0.038   4.303
26782SOL    HW182179  13.059  14.863   4.228
26782SOL    HW282180  12.946   0.004   4.327
26783SOL     OW82181   6.381   3.719   2.530
26783SOL    HW182182   6.361   3.658   2.601
26783SOL    HW282183   6.470   3.696   2.503
26784SOL     OW82184   3.291   8.622  11.080
26784SOL    HW182185   3.327   8.566  11.012
26784SOL    HW282186   3.196   8.607  11.075
26785SOL     OW82187   6.092  14.772  10.894
26785SOL    HW182188   6.070  14.865  10.894
26785SOL    HW282189   6.115  14.753  10.985
26786SOL     OW82190  13.558   7.264   2.124
26786SOL    HW182191  13.640   7.313   2.111
26786SOL    HW282192  13.534   7.234   2.037
26787SOL     OW82193   9.275   1.505   3.589
26787SOL    HW182194   9.267   1.458   3.506
26787SOL    HW282195   9.355   1.556   3.580
26788SOL     OW82196   6.289   0.879   2.398
26788SOL    HW182197   6.316   0.970   2.387
26788SOL    HW282198   6.355   0.841   2.455
26789SOL     OW82199  13.320   4.117  13.482
26789SOL    HW182200  13.323   4.044  13.421
26789SOL    HW282201  13.412   4.140  13.496
26790SOL     OW82202   4.370   4.292  12.787
26790SOL    HW182203   4.450   4.328  12.825
26790SOL    HW282204   4.401   4.242  12.711
26791SOL     OW82205  13.356   5.759   3.418
26791SOL    HW182206  13.316   5.812   3.349
26791SOL    HW282207  13.307   5.783   3.497
26792SOL     OW82208   8.003   0.050   4.771
26792SOL    HW182209   7.987   0.109   4.845
26792SOL    HW282210   8.039  14.850   4.810
26793SOL     OW82211   3.439  13.854   6.046
26793SOL    HW182212   3.413  13.795   5.975
26793SOL    HW282213   3.422  13.942   6.012
26794SOL     OW82214  10.123   8.806  13.138
26794SOL    HW182215  10.086   8.794  13.051
26794SOL    HW282216  10.207   8.850  13.122
26795SOL     OW82217   9.756   0.570   4.422
26795SOL    HW182218   9.808   0.548   4.345
26795SOL    HW282219   9.801   0.645   4.460
26796SOL     OW82220   1.506  14.300   5.087
26796SOL    HW182221   1.473  14.321   5.175
26796SOL    HW282222   1.600  14.286   5.100
26797SOL     OW82223   2.716  13.429  13.287
26797SOL    HW182224   2.665  13.436  13.367
26797SOL    HW282225   2.663  13.476  13.221
26798SOL     OW82226  11.109   5.482   9.344
26798SOL    HW182227  11.097   5.540   9.268
26798SOL    HW282228  11.200   5.453   9.338
26799SOL     OW82229  11.997  14.032   2.306
26799SOL    HW182230  11.928  14.089   2.271
26799SOL    HW282231  12.078  14.072   2.275
26800SOL     OW82232  14.265   2.157   7.434
26800SOL    HW182233  14.208   2.185   7.506
26800SOL    HW282234  14.205   2.143   7.361
26801SOL     OW82235   7.830   8.159   4.062
26801SOL    HW182236   7.912   8.143   4.108
26801SOL    HW282237   7.792   8.235   4.105
26802SOL     OW82238  14.406  10.410   4.592
26802SOL    HW182239  14.439  10.349   4.658
26802SOL    HW282240  14.449  10.493   4.612
26803SOL     OW82241  14.422  11.494  14.124
26803SOL    HW182242  14.346  11.447  14.160
26803SOL    HW282243  14.458  11.434  14.059
26804SOL     OW82244  11.307   3.504  10.937
26804SOL    HW182245  11.331   3.486  10.846
26804SOL    HW282246  11.229   3.559  10.931
26805SOL     OW82247   1.816  12.002  13.048
26805SOL    HW182248   1.799  12.064  13.118
26805SOL    HW282249   1.875  12.048  12.988
26806SOL     OW82250   7.599  12.074   9.561
26806SOL    HW182251   7.623  12.062   9.653
26806SOL    HW282252   7.679  12.052   9.512
26807SOL     OW82253   1.551   1.821  11.608
26807SOL    HW182254   1.548   1.863  11.694
26807SOL    HW282255   1.642   1.830  11.581
26808SOL     OW82256   2.240   2.230   8.716
26808SOL    HW182257   2.198   2.179   8.785
26808SOL    HW282258   2.167   2.269   8.667
26809SOL     OW82259   6.638   5.701   8.785
26809SOL    HW182260   6.592   5.721   8.703
26809SOL    HW282261   6.615   5.772   8.844
26810SOL     OW82262   4.726  14.298  12.883
26810SOL    HW182263   4.701  14.386  12.912
26810SOL    HW282264   4.646  14.247  12.894
26811SOL     OW82265   5.754   0.389   6.595
26811SOL    HW182266   5.760   0.327   6.668
26811SOL    HW282267   5.766   0.475   6.636
26812SOL     OW82268  11.232   0.883   1.377
26812SOL    HW182269  11.170   0.832   1.428
26812SOL    HW282270  11.194   0.888   1.289
26813SOL     OW82271   7.617   9.467  13.773
26813SOL    HW182272   7.605   9.372  13.780
26813SOL    HW282273   7.605   9.499  13.862
26814SOL     OW82274   4.455   3.151  11.078
26814SOL    HW182275   4.459   3.245  11.095
26814SOL    HW282276   4.372   3.139  11.031
26815SOL     OW82277   9.245  13.506   4.040
26815SOL    HW182278   9.178  13.456   4.087
26815SOL    HW282279   9.200  13.542   3.964
26816SOL     OW82280  11.491  13.098   1.103
26816SOL    HW182281  11.456  13.147   1.029
26816SOL    HW282282  11.485  13.006   1.077
26817SOL     OW82283   8.231   3.298  13.793
26817SOL    HW182284   8.260   3.207  13.802
26817SOL    HW282285   8.193   3.320  13.878
26818SOL     OW82286   5.303   6.916  13.703
26818SOL    HW182287   5.260   6.972  13.639
26818SOL    HW282288   5.241   6.911  13.776
26819SOL     OW82289   7.968  10.979   2.776
26819SOL    HW182290   7.943  10.979   2.684
26819SOL    HW282291   8.059  11.009   2.777
26820SOL     OW82292   2.393   1.981   9.840
26820SOL    HW182293   2.408   1.889   9.863
26820SOL    HW282294   2.340   1.976   9.760
26821SOL     OW82295   5.965   3.438   2.588
26821SOL    HW182296   6.035   3.430   2.523
26821SOL    HW282297   5.975   3.526   2.624
26822SOL     OW82298   6.197  10.033   2.652
26822SOL    HW182299   6.146  10.089   2.711
26822SOL    HW282300   6.146  10.033   2.571
26823SOL     OW82301   1.731  11.958   1.828
26823SOL    HW182302   1.648  11.911   1.816
26823SOL    HW282303   1.712  12.022   1.897
26824SOL     OW82304  12.617   8.616  10.293
26824SOL    HW182305  12.663   8.551  10.240
26824SOL    HW282306  12.584   8.680  10.229
26825SOL     OW82307   3.032  10.988   8.526
26825SOL    HW182308   3.016  10.924   8.457
26825SOL    HW282309   2.944  11.014   8.555
26826SOL     OW82310  11.102   3.761  10.611
26826SOL    HW182311  11.181   3.777  10.559
26826SOL    HW282312  11.087   3.842  10.659
26827SOL     OW82313   7.254   8.694   9.900
26827SOL    HW182314   7.202   8.664   9.825
26827SOL    HW282315   7.209   8.772   9.931
26828SOL     OW82316  12.930   4.009  14.135
26828SOL    HW182317  12.896   4.096  14.114
26828SOL    HW282318  13.025   4.018  14.124
26829SOL     OW82319  14.054   2.214  13.322
26829SOL    HW182320  14.042   2.184  13.412
26829SOL    HW282321  14.100   2.141  13.279
26830SOL     OW82322   5.679   1.183   6.177
26830SOL    HW182323   5.773   1.169   6.161
26830SOL    HW282324   5.675   1.219   6.266
26831SOL     OW82325  11.056   7.554   6.713
26831SOL    HW182326  10.999   7.495   6.762
26831SOL    HW282327  11.138   7.554   6.762
26832SOL     OW82328   2.071  12.428   2.381
26832SOL    HW182329   2.092  12.340   2.414
26832SOL    HW282330   2.047  12.414   2.289
26833SOL     OW82331   1.345  13.817   4.340
26833SOL    HW182332   1.251  13.831   4.345
26833SOL    HW282333   1.382  13.882   4.400
26834SOL     OW82334   9.156   4.415  12.070
26834SOL    HW182335   9.209   4.456  12.138
26834SOL    HW282336   9.133   4.487  12.011
26835SOL     OW82337  14.113   6.554   3.435
26835SOL    HW182338  14.087   6.576   3.524
26835SOL    HW282339  14.106   6.637   3.387
26836SOL     OW82340   3.847   4.962   6.372
26836SOL    HW182341   3.903   4.890   6.346
26836SOL    HW282342   3.785   4.972   6.300
26837SOL     OW82343   6.446   5.275   2.934
26837SOL    HW182344   6.523   5.254   2.987
26837SOL    HW282345   6.404   5.347   2.981
26838SOL     OW82346   0.758  10.380   9.416
26838SOL    HW182347   0.785  10.348   9.502
26838SOL    HW282348   0.692  10.317   9.386
26839SOL     OW82349  10.832   1.378  10.379
26839SOL    HW182350  10.799   1.310  10.321
26839SOL    HW282351  10.772   1.378  10.453
26840SOL     OW82352   9.147   2.318   3.603
26840SOL    HW182353   9.054   2.313   3.622
26840SOL    HW282354   9.159   2.407   3.569
26841SOL     OW82355   9.035  10.003   7.543
26841SOL    HW182356   8.982  10.082   7.532
26841SOL    HW282357   8.975   9.940   7.583
26842SOL     OW82358  12.354  11.545   0.406
26842SOL    HW182359  12.389  11.544   0.495
26842SOL    HW282360  12.288  11.615   0.406
26843SOL     OW82361   0.803   2.258   3.993
26843SOL    HW182362   0.846   2.297   4.069
26843SOL    HW282363   0.727   2.314   3.977
26844SOL     OW82364  11.033   4.586   8.827
26844SOL    HW182365  10.978   4.630   8.761
26844SOL    HW282366  10.973   4.568   8.899
26845SOL     OW82367   5.079   5.987   2.530
26845SOL    HW182368   5.173   5.983   2.515
26845SOL    HW282369   5.053   6.073   2.495
26846SOL     OW82370  10.341   6.271   4.735
26846SOL    HW182371  10.325   6.265   4.641
26846SOL    HW282372  10.340   6.181   4.766
26847SOL     OW82373  13.099  13.564   0.659
26847SOL    HW182374  13.027  13.545   0.721
26847SOL    HW282375  13.177  13.570   0.715
26848SOL     OW82376  12.187   2.276   2.109
26848SOL    HW182377  12.178   2.223   2.188
26848SOL    HW282378  12.202   2.365   2.142
26849SOL     OW82379   1.132  12.475   6.835
26849SOL    HW182380   1.078  12.447   6.909
26849SOL    HW282381   1.124  12.571   6.834
26850SOL     OW82382  12.792   3.021   0.226
26850SOL    HW182383  12.808   2.939   0.274
26850SOL    HW282384  12.863   3.026   0.163
26851SOL     OW82385   7.423   1.159   6.806
26851SOL    HW182386   7.335   1.184   6.832
26851SOL    HW282387   7.474   1.165   6.887
26852SOL     OW82388   0.422   3.333   4.209
26852SOL    HW182389   0.391   3.261   4.153
26852SOL    HW282390   0.473   3.290   4.278
26853SOL     OW82391   5.522   9.103   9.325
26853SOL    HW182392   5.428   9.091   9.309
26853SOL    HW282393   5.526   9.161   9.401
26854SOL     OW82394  14.112  13.379  14.179
26854SOL    HW182395  14.105  13.465  14.137
26854SOL    HW282396  14.109  13.397  14.273
26855SOL     OW82397   1.881   2.444   8.301
26855SOL    HW182398   1.873   2.490   8.218
26855SOL    HW282399   1.950   2.490   8.348
26856SOL     OW82400  10.651   2.163   4.966
26856SOL    HW182401  10.559   2.172   4.992
26856SOL    HW282402  10.696   2.136   5.046
26857SOL     OW82403   4.946   5.225   1.197
26857SOL    HW182404   4.981   5.286   1.132
26857SOL    HW282405   4.908   5.281   1.264
26858SOL     OW82406   6.834   6.493  11.003
26858SOL    HW182407   6.820   6.429  11.073
26858SOL    HW282408   6.907   6.458  10.953
26859SOL     OW82409  14.718  10.296   3.420
26859SOL    HW182410  14.750  10.232   3.356
26859SOL    HW282411  14.624  10.282   3.423
26860SOL     OW82412   4.094   4.495   8.933
26860SOL    HW182413   4.013   4.545   8.944
26860SOL    HW282414   4.078   4.440   8.857
26861SOL     OW82415   8.960   3.216   5.953
26861SOL    HW182416   9.005   3.212   6.037
26861SOL    HW282417   8.941   3.124   5.932
26862SOL     OW82418   6.252  14.773  11.537
26862SOL    HW182419   6.244  14.864  11.565
26862SOL    HW282420   6.162  14.743  11.527
26863SOL     OW82421   9.897   8.348   6.089
26863SOL    HW182422   9.823   8.300   6.127
26863SOL    HW282423   9.862   8.435   6.071
26864SOL     OW82424  10.697   7.249  12.524
26864SOL    HW182425  10.633   7.297  12.472
26864SOL    HW282426  10.778   7.300  12.515
26865SOL     OW82427   0.569  11.161   0.858
26865SOL    HW182428   0.520  11.083   0.831
26865SOL    HW282429   0.524  11.190   0.938
26866SOL     OW82430   4.862   4.859   8.380
26866SOL    HW182431   4.941   4.897   8.341
26866SOL    HW282432   4.895   4.801   8.449
26867SOL     OW82433   3.479   7.939   8.826
26867SOL    HW182434   3.433   7.889   8.894
26867SOL    HW282435   3.564   7.895   8.818
26868SOL     OW82436   4.142   8.231  10.051
26868SOL    HW182437   4.201   8.198  10.119
26868SOL    HW282438   4.147   8.167   9.981
26869SOL     OW82439   8.981   5.302   1.559
26869SOL    HW182440   9.060   5.300   1.505
26869SOL    HW282441   9.011   5.331   1.645
26870SOL     OW82442   5.648  14.200   7.236
26870SOL    HW182443   5.743  14.188   7.234
26870SOL    HW282444   5.629  14.259   7.163
26871SOL     OW82445   4.420  14.455   8.884
26871SOL    HW182446   4.467  14.521   8.935
26871SOL    HW282447   4.356  14.418   8.945
26872SOL     OW82448  12.320   5.638   8.770
26872SOL    HW182449  12.250   5.693   8.734
26872SOL    HW282450  12.394   5.652   8.710
26873SOL     OW82451   0.796  12.361   1.668
26873SOL    HW182452   0.859  12.352   1.596
26873SOL    HW282453   0.848  12.342   1.747
26874SOL     OW82454   7.992   0.912   9.589
26874SOL    HW182455   7.953   0.912   9.677
26874SOL    HW282456   7.959   0.991   9.548
26875SOL     OW82457   4.923   3.225  10.403
26875SOL    HW182458   4.989   3.176  10.354
26875SOL    HW282459   4.921   3.182  10.489
26876SOL     OW82460   0.660   0.296  13.865
26876SOL    HW182461   0.706   0.216  13.838
26876SOL    HW282462   0.575   0.265  13.897
26877SOL     OW82463   0.802  13.710   5.389
26877SOL    HW182464   0.865  13.715   5.317
26877SOL    HW282465   0.717  13.726   5.348
26878SOL     OW82466  13.311   7.641  14.287
26878SOL    HW182467  13.221   7.611  14.293
26878SOL    HW282468  13.320   7.672  14.196
26879SOL     OW82469   7.913   6.043  13.594
26879SOL    HW182470   7.818   6.032  13.600
26879SOL    HW282471   7.937   6.000  13.512
26880SOL     OW82472   6.863  14.324  10.377
26880SOL    HW182473   6.815  14.243  10.398
26880SOL    HW282474   6.918  14.300  10.302
26881SOL     OW82475   2.173  11.552   0.561
26881SOL    HW182476   2.199  11.644   0.568
26881SOL    HW282477   2.168  11.536   0.467
26882SOL     OW82478   8.754   1.760   6.604
26882SOL    HW182479   8.819   1.815   6.562
26882SOL    HW282480   8.702   1.723   6.532
26883SOL     OW82481   0.542   1.235   9.629
26883SOL    HW182482   0.490   1.184   9.691
26883SOL    HW282483   0.621   1.259   9.678
26884SOL     OW82484  12.863   4.638  12.632
26884SOL    HW182485  12.920   4.703  12.672
26884SOL    HW282486  12.774   4.668  12.653
26885SOL     OW82487  12.390  10.836   7.373
26885SOL    HW182488  12.348  10.901   7.429
26885SOL    HW282489  12.343  10.754   7.392
26886SOL     OW82490  13.985  12.948  13.596
26886SOL    HW182491  13.970  13.005  13.521
26886SOL    HW282492  13.907  12.893  13.601
26887SOL     OW82493   6.583  12.704   1.570
26887SOL    HW182494   6.650  12.673   1.631
26887SOL    HW282495   6.553  12.787   1.608
26888SOL     OW82496   6.978  13.726  11.847
26888SOL    HW182497   6.922  13.673  11.790
26888SOL    HW282498   6.961  13.816  11.820
26889SOL     OW82499   2.140  14.654   3.784
26889SOL    HW182500   2.116  14.744   3.763
26889SOL    HW282501   2.234  14.658   3.802
26890SOL     OW82502  14.790   6.449   8.962
26890SOL    HW182503  14.810   6.531   8.916
26890SOL    HW282504  14.875   6.421   8.998
26891SOL     OW82505  13.665   4.944  13.308
26891SOL    HW182506  13.621   4.874  13.356
26891SOL    HW282507  13.758   4.931  13.326
26892SOL     OW82508   0.491  10.705  13.639
26892SOL    HW182509   0.490  10.761  13.562
26892SOL    HW282510   0.489  10.766  13.713
26893SOL     OW82511   3.950   1.469  13.744
26893SOL    HW182512   3.901   1.470  13.662
26893SOL    HW282513   3.965   1.376  13.763
26894SOL     OW82514  14.570   5.127   4.067
26894SOL    HW182515  14.509   5.065   4.107
26894SOL    HW282516  14.546   5.212   4.103
26895SOL     OW82517   6.909  12.058   0.754
26895SOL    HW182518   6.990  12.065   0.804
26895SOL    HW282519   6.932  12.006   0.677
26896SOL     OW82520   3.399  13.001  12.239
26896SOL    HW182521   3.345  13.023  12.163
26896SOL    HW282522   3.411  12.907  12.233
26897SOL     OW82523  13.128   1.028   1.525
26897SOL    HW182524  13.217   0.994   1.526
26897SOL    HW282525  13.079   0.967   1.470
26898SOL     OW82526   6.975   6.421  12.669
26898SOL    HW182527   6.939   6.497  12.714
26898SOL    HW282528   7.052   6.455  12.624
26899SOL     OW82529   5.946  13.982  13.968
26899SOL    HW182530   5.971  14.037  14.043
26899SOL    HW282531   5.902  13.907  14.007
26900SOL     OW82532  10.418  13.040   0.162
26900SOL    HW182533  10.373  13.124   0.164
26900SOL    HW282534  10.379  12.991   0.235
26901SOL     OW82535   9.208   6.534   2.492
26901SOL    HW182536   9.298   6.500   2.489
26901SOL    HW282537   9.219   6.629   2.500
26902SOL     OW82538   5.747  10.157   5.113
26902SOL    HW182539   5.781  10.178   5.026
26902SOL    HW282540   5.740  10.061   5.113
26903SOL     OW82541   9.940   4.506  12.709
26903SOL    HW182542   9.899   4.584  12.673
26903SOL    HW282543   9.953   4.448  12.634
26904SOL     OW82544   3.702   1.989   2.321
26904SOL    HW182545   3.632   1.932   2.289
26904SOL    HW282546   3.676   2.011   2.410
26905SOL     OW82547   5.406   7.350  14.672
26905SOL    HW182548   5.318   7.361  14.706
26905SOL    HW282549   5.414   7.416  14.603
26906SOL     OW82550   2.389  11.376   1.143
26906SOL    HW182551   2.483  11.387   1.160
26906SOL    HW282552   2.346  11.427   1.212
26907SOL     OW82553  10.744   5.318   5.939
26907SOL    HW182554  10.706   5.356   5.859
26907SOL    HW282555  10.672   5.268   5.978
26908SOL     OW82556   9.007   8.642  12.070
26908SOL    HW182557   8.918   8.661  12.041
26908SOL    HW282558   9.062   8.660  11.993
26909SOL     OW82559  14.339   4.693   7.416
26909SOL    HW182560  14.255   4.734   7.436
26909SOL    HW282561  14.333   4.606   7.456
26910SOL     OW82562   2.757  12.024   1.157
26910SOL    HW182563   2.683  11.966   1.171
26910SOL    HW282564   2.788  12.004   1.069
26911SOL     OW82565   8.769   9.422   3.527
26911SOL    HW182566   8.835   9.352   3.522
26911SOL    HW282567   8.697   9.382   3.576
26912SOL     OW82568  13.803   7.090  13.584
26912SOL    HW182569  13.816   7.144  13.663
26912SOL    HW282570  13.734   7.136  13.536
26913SOL     OW82571   8.568   5.672  12.871
26913SOL    HW182572   8.634   5.613  12.905
26913SOL    HW282573   8.572   5.661  12.776
26914SOL     OW82574   4.318   4.314   0.686
26914SOL    HW182575   4.232   4.286   0.718
26914SOL    HW282576   4.367   4.233   0.677
26915SOL     OW82577  12.824  13.130  13.070
26915SOL    HW182578  12.750  13.175  13.030
26915SOL    HW282579  12.898  13.148  13.012
26916SOL     OW82580   2.637   9.511   6.460
26916SOL    HW182581   2.675   9.423   6.456
26916SOL    HW282582   2.604   9.527   6.371
26917SOL     OW82583  14.046  11.788  11.350
26917SOL    HW182584  13.957  11.778  11.317
26917SOL    HW282585  14.037  11.791  11.445
26918SOL     OW82586  12.786   3.817   0.143
26918SOL    HW182587  12.788   3.841   0.050
26918SOL    HW282588  12.854   3.750   0.152
26919SOL     OW82589  10.318   7.359   0.215
26919SOL    HW182590  10.285   7.347   0.126
26919SOL    HW282591  10.405   7.397   0.203
26920SOL     OW82592   0.498   2.698   9.489
26920SOL    HW182593   0.404   2.714   9.484
26920SOL    HW282594   0.508   2.639   9.563
26921SOL     OW82595  13.218   9.290   9.668
26921SOL    HW182596  13.305   9.327   9.680
26921SOL    HW282597  13.230   9.218   9.607
26922SOL     OW82598  14.037   2.511   7.845
26922SOL    HW182599  13.967   2.495   7.908
26922SOL    HW282600  14.100   2.566   7.891
26923SOL     OW82601   0.070   2.359   0.247
26923SOL    HW182602   0.036   2.319   0.327
26923SOL    HW282603   0.163   2.337   0.248
26924SOL     OW82604   1.229   4.400   1.727
26924SOL    HW182605   1.210   4.375   1.817
26924SOL    HW282606   1.200   4.325   1.675
26925SOL     OW82607   9.527   9.626   4.036
26925SOL    HW182608   9.451   9.567   4.040
26925SOL    HW282609   9.542   9.652   4.127
26926SOL     OW82610   9.160   3.703   3.714
26926SOL    HW182611   9.134   3.745   3.632
26926SOL    HW282612   9.088   3.644   3.735
26927SOL     OW82613   8.791   4.742   0.546
26927SOL    HW182614   8.823   4.660   0.509
26927SOL    HW282615   8.697   4.742   0.528
26928SOL     OW82616   9.304   4.417  14.711
26928SOL    HW182617   9.263   4.465  14.639
26928SOL    HW282618   9.253   4.336  14.718
26929SOL     OW82619   2.843   5.269  13.877
26929SOL    HW182620   2.866   5.218  13.955
26929SOL    HW282621   2.927   5.291  13.837
26930SOL     OW82622   3.016   0.308   0.896
26930SOL    HW182623   2.927   0.273   0.893
26930SOL    HW282624   3.043   0.295   0.987
26931SOL     OW82625  12.408   9.645  12.800
26931SOL    HW182626  12.466   9.571  12.816
26931SOL    HW282627  12.444   9.717  12.853
26932SOL     OW82628  10.288   8.172   2.561
26932SOL    HW182629  10.356   8.206   2.619
26932SOL    HW282630  10.221   8.138   2.619
26933SOL     OW82631  13.227  14.518  14.247
26933SOL    HW182632  13.296  14.475  14.298
26933SOL    HW282633  13.213  14.460  14.172
26934SOL     OW82634   6.839   8.673   8.391
26934SOL    HW182635   6.822   8.581   8.413
26934SOL    HW282636   6.931   8.686   8.413
26935SOL     OW82637   6.287  10.097  10.477
26935SOL    HW182638   6.231  10.023  10.453
26935SOL    HW282639   6.238  10.145  10.543
26936SOL     OW82640  12.939   3.373  13.480
26936SOL    HW182641  12.860   3.334  13.445
26936SOL    HW282642  12.946   3.338  13.569
26937SOL     OW82643   8.395  10.900  14.550
26937SOL    HW182644   8.305  10.868  14.561
26937SOL    HW282645   8.419  10.932  14.637
26938SOL     OW82646   0.653   3.725  13.918
26938SOL    HW182647   0.605   3.807  13.903
26938SOL    HW282648   0.689   3.734  14.006
26939SOL     OW82649   0.037   9.671   7.438
26939SOL    HW182650   0.082   9.743   7.394
26939SOL    HW282651   0.095   9.647   7.510
26940SOL     OW82652   7.316   7.146   7.774
26940SOL    HW182653   7.342   7.076   7.834
26940SOL    HW282654   7.243   7.189   7.817
26941SOL     OW82655   6.343  13.288   7.508
26941SOL    HW182656   6.361  13.372   7.550
26941SOL    HW282657   6.328  13.227   7.581
26942SOL     OW82658  14.305  12.992  12.633
26942SOL    HW182659  14.251  13.038  12.697
26942SOL    HW282660  14.265  13.012  12.548
26943SOL     OW82661   6.359   0.087  12.194
26943SOL    HW182662   6.355   0.123  12.105
26943SOL    HW282663   6.375   0.162  12.250
26944SOL     OW82664  10.435  11.776  11.054
26944SOL    HW182665  10.483  11.694  11.067
26944SOL    HW282666  10.501  11.845  11.063
26945SOL     OW82667   8.416   1.251   1.233
26945SOL    HW182668   8.345   1.261   1.169
26945SOL    HW282669   8.495   1.247   1.180
26946SOL     OW82670   1.588   7.928  14.135
26946SOL    HW182671   1.554   8.012  14.104
26946SOL    HW282672   1.521   7.896  14.196
26947SOL     OW82673  13.252   1.012   9.912
26947SOL    HW182674  13.264   0.920   9.935
26947SOL    HW282675  13.165   1.015   9.871
26948SOL     OW82676   8.079   2.344   2.978
26948SOL    HW182677   8.094   2.434   3.009
26948SOL    HW282678   7.986   2.328   2.994
26949SOL     OW82679   6.405  10.907  10.725
26949SOL    HW182680   6.402  10.898  10.821
26949SOL    HW282681   6.486  10.956  10.709
26950SOL     OW82682   7.587  10.466   3.080
26950SOL    HW182683   7.615  10.549   3.042
26950SOL    HW282684   7.538  10.423   3.010
26951SOL     OW82685  13.034   8.112   9.675
26951SOL    HW182686  12.994   8.103   9.762
26951SOL    HW282687  12.974   8.168   9.626
26952SOL     OW82688  13.801   6.134   7.277
26952SOL    HW182689  13.709   6.114   7.293
26952SOL    HW282690  13.831   6.176   7.358
26953SOL     OW82691  14.491  11.724   0.060
26953SOL    HW182692  14.412  11.743   0.009
26953SOL    HW282693  14.483  11.778   0.138
26954SOL     OW82694  14.586  11.548   5.001
26954SOL    HW182695  14.551  11.473   5.048
26954SOL    HW282696  14.511  11.581   4.950
26955SOL     OW82697  12.476   6.564  12.154
26955SOL    HW182698  12.401   6.518  12.116
26955SOL    HW282699  12.494   6.636  12.094
26956SOL     OW82700  14.053  13.068  11.258
26956SOL    HW182701  14.135  13.055  11.210
26956SOL    HW282702  14.040  13.163  11.257
26957SOL     OW82703   4.755   0.699  10.879
26957SOL    HW182704   4.672   0.656  10.899
26957SOL    HW282705   4.794   0.718  10.965
26958SOL     OW82706  13.914   4.958   5.209
26958SOL    HW182707  13.879   4.906   5.136
26958SOL    HW282708  13.974   5.020   5.168
26959SOL     OW82709   4.242   6.089   0.607
26959SOL    HW182710   4.247   6.006   0.655
26959SOL    HW282711   4.312   6.083   0.541
26960SOL     OW82712  11.504   4.668   1.976
26960SOL    HW182713  11.486   4.760   1.991
26960SOL    HW282714  11.597   4.658   1.996
26961SOL     OW82715   9.259   7.952   1.245
26961SOL    HW182716   9.310   8.031   1.229
26961SOL    HW282717   9.232   7.959   1.336
26962SOL     OW82718   9.641  12.643   9.793
26962SOL    HW182719   9.593  12.585   9.734
26962SOL    HW282720   9.732  12.614   9.786
26963SOL     OW82721  11.711   7.037   3.932
26963SOL    HW182722  11.690   7.118   3.980
26963SOL    HW282723  11.792   7.006   3.973
26964SOL     OW82724   7.802   9.891   6.238
26964SOL    HW182725   7.775   9.933   6.156
26964SOL    HW282726   7.825   9.801   6.212
26965SOL     OW82727  11.350  12.114   4.960
26965SOL    HW182728  11.372  12.022   4.946
26965SOL    HW282729  11.327  12.119   5.053
26966SOL     OW82730  11.426   4.806   6.719
26966SOL    HW182731  11.517   4.825   6.697
26966SOL    HW282732  11.402   4.734   6.661
26967SOL     OW82733   0.898   8.431   3.845
26967SOL    HW182734   0.829   8.452   3.782
26967SOL    HW282735   0.979   8.432   3.795
26968SOL     OW82736   2.402   0.611   9.806
26968SOL    HW182737   2.448   0.670   9.747
26968SOL    HW282738   2.457   0.607   9.884
26969SOL     OW82739   3.999   9.933   9.033
26969SOL    HW182740   4.062   9.885   9.086
26969SOL    HW282741   4.026  10.025   9.040
26970SOL     OW82742   2.056   7.651   3.892
26970SOL    HW182743   2.016   7.714   3.832
26970SOL    HW282744   1.984   7.622   3.948
26971SOL     OW82745   5.964  11.135  14.816
26971SOL    HW182746   6.030  11.146   0.006
26971SOL    HW282747   5.912  11.060  14.844
26972SOL     OW82748  10.414   4.133   1.448
26972SOL    HW182749  10.406   4.147   1.543
26972SOL    HW282750  10.363   4.205   1.409
26973SOL     OW82751   0.445   6.449   4.574
26973SOL    HW182752   0.373   6.510   4.587
26973SOL    HW282753   0.479   6.471   4.487
26974SOL     OW82754   0.395   4.180  14.849
26974SOL    HW182755   0.452   4.170  14.772
26974SOL    HW282756   0.355   4.267  14.837
26975SOL     OW82757  10.498   4.861   5.734
26975SOL    HW182758  10.449   4.822   5.661
26975SOL    HW282759  10.581   4.815   5.735
26976SOL     OW82760   5.677   6.630   8.261
26976SOL    HW182761   5.726   6.551   8.235
26976SOL    HW282762   5.711   6.699   8.204
26977SOL     OW82763   1.103  13.676   7.651
26977SOL    HW182764   1.049  13.621   7.707
26977SOL    HW282765   1.193  13.655   7.675
26978SOL     OW82766   5.110   7.164  12.332
26978SOL    HW182767   5.110   7.161  12.428
26978SOL    HW282768   5.021   7.191  12.309
26979SOL     OW82769  14.481   0.595  14.211
26979SOL    HW182770  14.463   0.687  14.190
26979SOL    HW282771  14.506   0.556  14.127
26980SOL     OW82772  10.905   0.395  14.375
26980SOL    HW182773  10.938   0.329  14.314
26980SOL    HW282774  10.881   0.470  14.319
26981SOL     OW82775   4.679   8.580   3.081
26981SOL    HW182776   4.773   8.562   3.083
26981SOL    HW282777   4.640   8.511   3.135
26982SOL     OW82778  13.922  11.589   2.433
26982SOL    HW182779  13.925  11.673   2.479
26982SOL    HW282780  13.982  11.533   2.482
26983SOL     OW82781  12.888   4.546   7.287
26983SOL    HW182782  12.984   4.544   7.280
26983SOL    HW282783  12.866   4.469   7.339
26984SOL     OW82784   5.157   5.944   4.613
26984SOL    HW182785   5.235   5.909   4.569
26984SOL    HW282786   5.150   5.892   4.693
26985SOL     OW82787   1.976  11.695   3.377
26985SOL    HW182788   1.891  11.732   3.401
26985SOL    HW282789   1.954  11.610   3.338
26986SOL     OW82790  12.905  11.981   9.989
26986SOL    HW182791  12.969  11.916   9.962
26986SOL    HW282792  12.958  12.054  10.021
26987SOL     OW82793   7.117   9.908  11.641
26987SOL    HW182794   7.209   9.905  11.665
26987SOL    HW282795   7.072   9.864  11.714
26988SOL     OW82796  13.041   5.339   8.534
26988SOL    HW182797  12.989   5.259   8.526
26988SOL    HW282798  13.022   5.388   8.454
26989SOL     OW82799  14.154   1.532   3.541
26989SOL    HW182800  14.194   1.445   3.552
26989SOL    HW282801  14.094   1.521   3.467
26990SOL     OW82802  13.429   8.496   1.062
26990SOL    HW182803  13.451   8.429   0.997
26990SOL    HW282804  13.475   8.575   1.031
26991SOL     OW82805   5.621  13.557  12.790
26991SOL    HW182806   5.628  13.479  12.735
26991SOL    HW282807   5.549  13.536  12.850
26992SOL     OW82808   1.572   8.787   9.588
26992SOL    HW182809   1.575   8.693   9.601
26992SOL    HW282810   1.656   8.809   9.547
26993SOL     OW82811   6.417  10.374  14.502
26993SOL    HW182812   6.381  10.286  14.490
26993SOL    HW282813   6.427  10.408  14.413
26994SOL     OW82814  12.899  11.215  11.633
26994SOL    HW182815  12.851  11.291  11.666
26994SOL    HW282816  12.863  11.200  11.546
26995SOL     OW82817  13.767   7.959   5.203
26995SOL    HW182818  13.818   7.978   5.282
26995SOL    HW282819  13.676   7.972   5.230
26996SOL     OW82820   3.581  13.279  14.122
26996SOL    HW182821   3.571  13.185  14.107
26996SOL    HW282822   3.673  13.297  14.100
26997SOL     OW82823   6.826   7.170   8.698
26997SOL    HW182824   6.879   7.099   8.734
26997SOL    HW282825   6.829   7.156   8.603
26998SOL     OW82826   5.134   3.629   8.670
26998SOL    HW182827   5.203   3.586   8.621
26998SOL    HW282828   5.110   3.705   8.616
26999SOL     OW82829   6.297   0.692  11.469
26999SOL    HW182830   6.357   0.620  11.490
26999SOL    HW282831   6.315   0.757  11.537
27000SOL     OW82832  11.282   7.946   9.590
27000SOL    HW182833  11.349   7.879   9.601
27000SOL    HW282834  11.269   7.953   9.496
27001SOL     OW82835   7.953   7.567   1.572
27001SOL    HW182836   8.019   7.529   1.513
27001SOL    HW282837   7.988   7.653   1.594
27002SOL     OW82838   1.398  11.297   6.024
27002SOL    HW182839   1.312  11.293   6.065
27002SOL    HW282840   1.400  11.382   5.981
27003SOL     OW82841  10.644   3.037  11.323
27003SOL    HW182842  10.731   3.001  11.308
27003SOL    HW282843  10.653   3.130  11.304
27004SOL     OW82844  10.562   6.539   2.948
27004SOL    HW182845  10.595   6.621   2.985
27004SOL    HW282846  10.507   6.566   2.875
27005SOL     OW82847  11.136   3.254   9.413
27005SOL    HW182848  11.041   3.261   9.400
27005SOL    HW282849  11.164   3.188   9.349
27006SOL     OW82850   3.249   3.101   1.935
27006SOL    HW182851   3.292   3.113   2.020
27006SOL    HW282852   3.316   3.125   1.870
27007SOL     OW82853   1.456   2.358   2.661
27007SOL    HW182854   1.478   2.281   2.714
27007SOL    HW282855   1.520   2.424   2.685
27008SOL     OW82856   9.060   7.238   6.700
27008SOL    HW182857   8.973   7.206   6.727
27008SOL    HW282858   9.102   7.163   6.658
27009SOL     OW82859   5.757   3.204   6.367
27009SOL    HW182860   5.683   3.145   6.373
27009SOL    HW282861   5.804   3.193   6.450
27010SOL     OW82862   7.483   7.044  11.728
27010SOL    HW182863   7.456   6.954  11.709
27010SOL    HW282864   7.522   7.040  11.815
27011SOL     OW82865   2.253  13.374  11.594
27011SOL    HW182866   2.202  13.382  11.513
27011SOL    HW282867   2.188  13.349  11.660
27012SOL     OW82868   6.714  12.082  11.894
27012SOL    HW182869   6.700  12.097  11.987
27012SOL    HW282870   6.727  11.987  11.886
27013SOL     OW82871   9.412   1.033   0.974
27013SOL    HW182872   9.394   1.044   0.881
27013SOL    HW282873   9.328   1.009   1.012
27014SOL     OW82874  14.564  13.681  13.223
27014SOL    HW182875  14.624  13.682  13.148
27014SOL    HW282876  14.479  13.659  13.185
27015SOL     OW82877   1.908  10.418  14.827
27015SOL    HW182878   1.972  10.425   0.018
27015SOL    HW282879   1.915  10.500  14.778
27016SOL     OW82880   1.507   8.938   8.309
27016SOL    HW182881   1.490   8.845   8.294
27016SOL    HW282882   1.597   8.940   8.341
27017SOL     OW82883   5.581  14.173   9.419
27017SOL    HW182884   5.572  14.238   9.350
27017SOL    HW282885   5.505  14.116   9.408
27018SOL     OW82886   8.789   2.858   7.035
27018SOL    HW182887   8.775   2.854   7.129
27018SOL    HW282888   8.878   2.825   7.022
27019SOL     OW82889   3.765   9.676  11.698
27019SOL    HW182890   3.695   9.657  11.635
27019SOL    HW282891   3.746   9.764  11.729
27020SOL     OW82892  12.713   2.571  12.352
27020SOL    HW182893  12.788   2.512  12.359
27020SOL    HW282894  12.744   2.643  12.298
27021SOL     OW82895   3.487   5.150   9.499
27021SOL    HW182896   3.393   5.148   9.519
27021SOL    HW282897   3.510   5.243   9.500
27022SOL     OW82898   1.891   7.143  11.036
27022SOL    HW182899   1.876   7.088  10.959
27022SOL    HW282900   1.825   7.114  11.099
27023SOL     OW82901  10.844   0.056   3.174
27023SOL    HW182902  10.867  14.855   3.221
27023SOL    HW282903  10.832   0.122   3.243
27024SOL     OW82904  10.320  11.022  13.641
27024SOL    HW182905  10.319  11.118  13.644
27024SOL    HW282906  10.228  10.997  13.646
27025SOL     OW82907   4.087   3.661   2.488
27025SOL    HW182908   4.111   3.740   2.439
27025SOL    HW282909   4.000   3.680   2.524
27026SOL     OW82910   1.335   7.172   7.673
27026SOL    HW182911   1.242   7.186   7.656
27026SOL    HW282912   1.355   7.088   7.632
27027SOL     OW82913   1.793   8.945  11.298
27027SOL    HW182914   1.779   8.873  11.236
27027SOL    HW282915   1.804   9.023  11.243
27028SOL     OW82916   0.917   4.913  10.967
27028SOL    HW182917   0.964   4.994  10.948
27028SOL    HW282918   0.830   4.941  10.996
27029SOL     OW82919   1.579   2.439   7.115
27029SOL    HW182920   1.558   2.346   7.107
27029SOL    HW282921   1.517   2.473   7.180
27030SOL     OW82922   6.313  12.748   4.424
27030SOL    HW182923   6.304  12.762   4.330
27030SOL    HW282924   6.406  12.762   4.442
27031SOL     OW82925   6.138  14.558   5.992
27031SOL    HW182926   6.061  14.579   5.939
27031SOL    HW282927   6.163  14.641   6.032
27032SOL     OW82928   5.384   1.595  10.230
27032SOL    HW182929   5.346   1.521  10.182
27032SOL    HW282930   5.406   1.558  10.316
27033SOL     OW82931  12.722  13.879   3.887
27033SOL    HW182932  12.766  13.932   3.954
27033SOL    HW282933  12.726  13.933   3.808
27034SOL     OW82934   8.717   2.807   7.790
27034SOL    HW182935   8.806   2.843   7.789
27034SOL    HW282936   8.675   2.849   7.865
27035SOL     OW82937   6.417  10.935  11.323
27035SOL    HW182938   6.381  10.969  11.405
27035SOL    HW282939   6.454  10.849  11.348
27036SOL     OW82940  11.325  11.308  10.345
27036SOL    HW182941  11.242  11.315  10.392
27036SOL    HW282942  11.303  11.261  10.265
27037SOL     OW82943   4.738   8.169   9.070
27037SOL    HW182944   4.745   8.253   9.025
27037SOL    HW282945   4.648   8.142   9.057
27038SOL     OW82946   3.379   4.486   4.215
27038SOL    HW182947   3.454   4.427   4.216
27038SOL    HW282948   3.349   4.487   4.124
27039SOL     OW82949  10.771   5.617   9.432
27039SOL    HW182950  10.697   5.677   9.444
27039SOL    HW282951  10.784   5.614   9.337
27040SOL     OW82952   3.862   4.032  13.088
27040SOL    HW182953   3.846   4.126  13.093
27040SOL    HW282954   3.791   3.993  13.139
27041SOL     OW82955   6.065   7.808  13.732
27041SOL    HW182956   6.159   7.794  13.721
27041SOL    HW282957   6.056   7.903  13.738
27042SOL     OW82958   0.424  13.629   1.651
27042SOL    HW182959   0.489  13.576   1.604
27042SOL    HW282960   0.475  13.695   1.696
27043SOL     OW82961  14.263   4.403  12.667
27043SOL    HW182962  14.178   4.433  12.700
27043SOL    HW282963  14.247   4.386  12.573
27044SOL     OW82964  13.457  13.102  13.179
27044SOL    HW182965  13.436  13.119  13.087
27044SOL    HW282966  13.376  13.124  13.226
27045SOL     OW82967   9.900  12.566   5.096
27045SOL    HW182968   9.943  12.591   5.178
27045SOL    HW282969   9.860  12.481   5.115
27046SOL     OW82970  10.275   3.597   9.161
27046SOL    HW182971  10.299   3.579   9.252
27046SOL    HW282972  10.222   3.676   9.166
27047SOL     OW82973   0.828   8.927  14.446
27047SOL    HW182974   0.889   8.907  14.375
27047SOL    HW282975   0.880   8.979  14.508
27048SOL     OW82976   5.481   7.703   2.236
27048SOL    HW182977   5.452   7.708   2.327
27048SOL    HW282978   5.563   7.653   2.239
27049SOL     OW82979   0.491   6.928   4.587
27049SOL    HW182980   0.430   6.924   4.513
27049SOL    HW282981   0.567   6.974   4.553
27050SOL     OW82982   8.201   9.660   1.401
27050SOL    HW182983   8.121   9.646   1.350
27050SOL    HW282984   8.252   9.721   1.348
27051SOL     OW82985  11.957   5.852  13.321
27051SOL    HW182986  12.043   5.821  13.291
27051SOL    HW282987  11.913   5.774  13.353
27052SOL     OW82988  11.351   0.976   1.016
27052SOL    HW182989  11.329   0.921   0.941
27052SOL    HW282990  11.403   0.919   1.073
27053SOL     OW82991  10.378   8.094  12.902
27053SOL    HW182992  10.320   8.019  12.908
27053SOL    HW282993  10.364   8.128  12.814
27054SOL     OW82994   4.335   5.423   1.378
27054SOL    HW182995   4.323   5.420   1.283
27054SOL    HW282996   4.430   5.414   1.390
27055SOL     OW82997  13.383   8.619  13.289
27055SOL    HW182998  13.430   8.542  13.258
27055SOL    HW282999  13.451   8.683  13.308
27056SOL     OW83000  14.428  12.750   9.548
27056SOL    HW183001  14.351  12.793   9.511
27056SOL    HW283002  14.411  12.656   9.538
27057SOL     OW83003   8.295   3.187   0.927
27057SOL    HW183004   8.260   3.099   0.913
27057SOL    HW283005   8.240   3.244   0.873
27058SOL     OW83006   9.955  10.913  10.979
27058SOL    HW183007  10.016  10.963  10.923
27058SOL    HW283008   9.998  10.829  10.992
27059SOL     OW83009  12.386  11.811  12.022
27059SOL    HW183010  12.402  11.786  12.113
27059SOL    HW283011  12.341  11.896  12.028
27060SOL     OW83012   0.373   1.333  12.286
27060SOL    HW183013   0.420   1.387  12.350
27060SOL    HW283014   0.293   1.307  12.330
27061SOL     OW83015   1.045  14.158   3.370
27061SOL    HW183016   0.987  14.190   3.439
27061SOL    HW283017   1.119  14.219   3.371
27062SOL     OW83018  13.177   8.951   8.254
27062SOL    HW183019  13.239   8.893   8.297
27062SOL    HW283020  13.231   9.012   8.204
27063SOL     OW83021   7.613   6.330  11.513
27063SOL    HW183022   7.681   6.294  11.457
27063SOL    HW283023   7.628   6.290  11.599
27064SOL     OW83024   1.658  14.819   6.368
27064SOL    HW183025   1.724  14.753   6.343
27064SOL    HW283026   1.584  14.800   6.310
27065SOL     OW83027   2.988  11.459  14.745
27065SOL    HW183028   3.055  11.449  14.677
27065SOL    HW283029   2.912  11.413  14.711
27066SOL     OW83030   4.865   1.630   9.475
27066SOL    HW183031   4.958   1.608   9.468
27066SOL    HW283032   4.852   1.648   9.569
27067SOL     OW83033   2.486   6.522  14.156
27067SOL    HW183034   2.399   6.485  14.171
27067SOL    HW283035   2.475   6.580  14.081
27068SOL     OW83036   2.760   8.786  13.398
27068SOL    HW183037   2.734   8.859  13.341
27068SOL    HW283038   2.682   8.768  13.450
27069SOL     OW83039   3.990   3.793   5.206
27069SOL    HW183040   3.965   3.884   5.223
27069SOL    HW283041   4.072   3.800   5.157
27070SOL     OW83042  12.791   2.256   9.089
27070SOL    HW183043  12.875   2.211   9.104
27070SOL    HW283044  12.736   2.190   9.046
27071SOL     OW83045  10.823   5.848   3.567
27071SOL    HW183046  10.802   5.761   3.601
27071SOL    HW283047  10.881   5.886   3.632
27072SOL     OW83048   8.778  10.756   7.698
27072SOL    HW183049   8.833  10.819   7.650
27072SOL    HW283050   8.796  10.672   7.657
27073SOL     OW83051   4.554  10.284  14.867
27073SOL    HW183052   4.465  10.308   0.012
27073SOL    HW283053   4.582  10.223   0.056
27074SOL     OW83054  10.170   4.289   0.208
27074SOL    HW183055  10.147   4.375   0.171
27074SOL    HW283056  10.112   4.228   0.164
27075SOL     OW83057   4.646   9.189   4.497
27075SOL    HW183058   4.634   9.282   4.475
27075SOL    HW283059   4.716   9.190   4.562
27076SOL     OW83060  10.995  11.641   4.430
27076SOL    HW183061  10.927  11.666   4.367
27076SOL    HW283062  11.040  11.722   4.452
27077SOL     OW83063  10.320   0.193   1.187
27077SOL    HW183064  10.390   0.161   1.129
27077SOL    HW283065  10.364   0.254   1.245
27078SOL     OW83066  11.713   1.866   5.793
27078SOL    HW183067  11.791   1.809   5.795
27078SOL    HW283068  11.732   1.930   5.725
27079SOL     OW83069   5.125   3.071  14.432
27079SOL    HW183070   5.168   3.107  14.509
27079SOL    HW283071   5.196   3.056  14.370
27080SOL     OW83072  12.187  14.070  11.365
27080SOL    HW183073  12.209  14.089  11.274
27080SOL    HW283074  12.268  14.038  11.403
27081SOL     OW83075   8.817   9.809  10.190
27081SOL    HW183076   8.861   9.755  10.256
27081SOL    HW283077   8.823   9.898  10.224
27082SOL     OW83078   9.967  12.635   6.413
27082SOL    HW183079  10.038  12.571   6.415
27082SOL    HW283080   9.888  12.583   6.399
27083SOL     OW83081   4.978  12.230  12.027
27083SOL    HW183082   5.004  12.167  11.960
27083SOL    HW283083   4.971  12.314  11.981
27084SOL     OW83084  13.200   6.062   9.585
27084SOL    HW183085  13.203   6.046   9.490
27084SOL    HW283086  13.285   6.100   9.606
27085SOL     OW83087   2.430   8.679  11.036
27085SOL    HW183088   2.469   8.666  10.950
27085SOL    HW283089   2.349   8.728  11.019
27086SOL     OW83090   2.165   0.467   5.110
27086SOL    HW183091   2.142   0.527   5.181
27086SOL    HW283092   2.235   0.412   5.146
27087SOL     OW83093   8.043   3.747   3.957
27087SOL    HW183094   7.976   3.682   3.980
27087SOL    HW283095   8.111   3.696   3.912
27088SOL     OW83096   6.746  13.993   0.865
27088SOL    HW183097   6.741  13.899   0.883
27088SOL    HW283098   6.676  14.032   0.917
27089SOL     OW83099   8.301   1.910   8.597
27089SOL    HW183100   8.309   1.815   8.586
27089SOL    HW283101   8.231   1.921   8.662
27090SOL     OW83102   4.960  14.658   6.820
27090SOL    HW183103   4.910  14.579   6.842
27090SOL    HW283104   5.039  14.651   6.874
27091SOL     OW83105  13.444   9.818  14.811
27091SOL    HW183106  13.529   9.852  14.781
27091SOL    HW283107  13.425   9.746  14.750
27092SOL     OW83108  10.990   6.148   1.968
27092SOL    HW183109  11.058   6.185   1.911
27092SOL    HW283110  11.002   6.053   1.960
27093SOL     OW83111  14.219   6.972   7.278
27093SOL    HW183112  14.250   6.991   7.189
27093SOL    HW283113  14.129   6.941   7.265
27094SOL     OW83114   3.384   3.161   6.614
27094SOL    HW183115   3.430   3.234   6.572
27094SOL    HW283116   3.451   3.093   6.624
27095SOL     OW83117   4.433   1.638   0.397
27095SOL    HW183118   4.374   1.713   0.400
27095SOL    HW283119   4.388   1.570   0.447
27096SOL     OW83120  12.080   0.641   9.932
27096SOL    HW183121  12.033   0.700   9.992
27096SOL    HW283122  12.144   0.598   9.988
27097SOL     OW83123  12.237   6.287   8.738
27097SOL    HW183124  12.237   6.365   8.794
27097SOL    HW283125  12.226   6.322   8.650
27098SOL     OW83126   1.459   2.718   2.968
27098SOL    HW183127   1.447   2.673   3.051
27098SOL    HW283128   1.514   2.793   2.989
27099SOL     OW83129   7.140   6.091   9.883
27099SOL    HW183130   7.212   6.152   9.899
27099SOL    HW283131   7.136   6.084   9.787
27100SOL     OW83132   7.180   9.625   5.027
27100SOL    HW183133   7.236   9.553   5.000
27100SOL    HW283134   7.179   9.685   4.952
27101SOL     OW83135  12.829   2.044  10.414
27101SOL    HW183136  12.880   2.011  10.340
27101SOL    HW283137  12.756   2.091  10.373
27102SOL     OW83138   5.310   6.870  11.956
27102SOL    HW183139   5.301   6.881  11.861
27102SOL    HW283140   5.318   6.775  11.968
27103SOL     OW83141   7.599   2.064   8.479
27103SOL    HW183142   7.599   1.992   8.542
27103SOL    HW283143   7.587   2.022   8.394
27104SOL     OW83144  11.768   2.572  12.498
27104SOL    HW183145  11.825   2.643  12.527
27104SOL    HW283146  11.681   2.595  12.531
27105SOL     OW83147   1.902  12.546  13.783
27105SOL    HW183148   1.913  12.466  13.834
27105SOL    HW283149   1.820  12.533  13.735
27106SOL     OW83150   4.697  13.261   0.897
27106SOL    HW183151   4.777  13.278   0.848
27106SOL    HW283152   4.727  13.234   0.984
27107SOL     OW83153   2.455  11.766  14.810
27107SOL    HW183154   2.524  11.740  14.872
27107SOL    HW283155   2.375  11.768  14.863
27108SOL     OW83156  11.505   8.119   3.308
27108SOL    HW183157  11.464   8.197   3.271
27108SOL    HW283158  11.472   8.114   3.397
27109SOL     OW83159   6.832  11.054  11.063
27109SOL    HW183160   6.791  11.103  10.993
27109SOL    HW283161   6.919  11.092  11.072
27110SOL     OW83162   9.578   4.579   5.059
27110SOL    HW183163   9.660   4.533   5.077
27110SOL    HW283164   9.510   4.512   5.068
27111SOL     OW83165   8.938   4.369  12.904
27111SOL    HW183166   8.900   4.445  12.949
27111SOL    HW283167   8.954   4.400  12.815
27112SOL     OW83168  14.640  13.766   7.136
27112SOL    HW183169  14.585  13.840   7.162
27112SOL    HW283170  14.579  13.692   7.129
27113SOL     OW83171   2.286   3.357   3.058
27113SOL    HW183172   2.372   3.331   3.025
27113SOL    HW283173   2.232   3.278   3.049
27114SOL     OW83174  10.398   9.501   2.245
27114SOL    HW183175  10.432   9.582   2.284
27114SOL    HW283176  10.402   9.517   2.150
27115SOL     OW83177  13.910   5.507  11.443
27115SOL    HW183178  13.913   5.412  11.451
27115SOL    HW283179  13.839   5.534  11.502
27116SOL     OW83180   9.097   4.358   2.202
27116SOL    HW183181   9.062   4.349   2.291
27116SOL    HW283182   9.055   4.288   2.152
27117SOL     OW83183   5.326   5.090  10.709
27117SOL    HW183184   5.393   5.115  10.773
27117SOL    HW283185   5.372   5.090  10.625
27118SOL     OW83186  13.418   8.438   8.371
27118SOL    HW183187  13.473   8.369   8.336
27118SOL    HW283188  13.462   8.520   8.348
27119SOL     OW83189  14.198   6.779  10.139
27119SOL    HW183190  14.211   6.703  10.195
27119SOL    HW283191  14.105   6.776  10.116
27120SOL     OW83192   9.251  10.957  10.536
27120SOL    HW183193   9.186  10.968  10.604
27120SOL    HW283194   9.201  10.933  10.458
27121SOL     OW83195  10.477   0.374   7.502
27121SOL    HW183196  10.453   0.419   7.584
27121SOL    HW283197  10.394   0.362   7.456
27122SOL     OW83198   6.896   1.119  12.249
27122SOL    HW183199   6.939   1.044  12.206
27122SOL    HW283200   6.865   1.173  12.176
27123SOL     OW83201  12.073   9.923  12.944
27123SOL    HW183202  12.041   9.889  12.860
27123SOL    HW283203  12.023   9.876  13.010
27124SOL     OW83204  10.825  12.105   2.463
27124SOL    HW183205  10.789  12.192   2.447
27124SOL    HW283206  10.861  12.079   2.378
27125SOL     OW83207   6.816   9.654   8.898
27125SOL    HW183208   6.797   9.603   8.977
27125SOL    HW283209   6.912   9.654   8.892
27126SOL     OW83210   2.458   0.694  13.171
27126SOL    HW183211   2.362   0.697  13.171
27126SOL    HW283212   2.485   0.780  13.202
27127SOL     OW83213   1.958   7.853   2.610
27127SOL    HW183214   2.043   7.895   2.600
27127SOL    HW283215   1.905   7.915   2.660
27128SOL     OW83216  14.494   8.583  14.050
27128SOL    HW183217  14.501   8.488  14.050
27128SOL    HW283218  14.421   8.601  13.990
27129SOL     OW83219  12.385  12.060  13.315
27129SOL    HW183220  12.293  12.081  13.327
27129SOL    HW283221  12.404  11.999  13.387
27130SOL     OW83222  12.965  10.420   8.033
27130SOL    HW183223  13.030  10.350   8.048
27130SOL    HW283224  13.017  10.500   8.030
27131SOL     OW83225   3.488  13.265   0.983
27131SOL    HW183226   3.534  13.192   1.023
27131SOL    HW283227   3.498  13.252   0.889
27132SOL     OW83228   2.163  10.840  14.354
27132SOL    HW183229   2.145  10.869  14.265
27132SOL    HW283230   2.248  10.796  14.349
27133SOL     OW83231   9.989  12.130   1.548
27133SOL    HW183232   9.931  12.199   1.517
27133SOL    HW283233   9.949  12.049   1.516
27134SOL     OW83234   1.725   6.734  10.654
27134SOL    HW183235   1.687   6.688  10.579
27134SOL    HW283236   1.650   6.761  10.706
27135SOL     OW83237   0.925   0.767   0.766
27135SOL    HW183238   0.920   0.722   0.850
27135SOL    HW283239   0.936   0.698   0.701
27136SOL     OW83240  10.103   2.308  11.618
27136SOL    HW183241  10.116   2.378  11.554
27136SOL    HW283242  10.043   2.346  11.682
27137SOL     OW83243  12.701  14.147   2.764
27137SOL    HW183244  12.732  14.231   2.730
27137SOL    HW283245  12.607  14.146   2.743
27138SOL     OW83246  14.388   8.524   0.105
27138SOL    HW183247  14.468   8.519   0.052
27138SOL    HW283248  14.361   8.615   0.100
27139SOL     OW83249   1.706  12.022   6.746
27139SOL    HW183250   1.731  11.930   6.752
27139SOL    HW283251   1.712  12.055   6.836
27140SOL     OW83252  13.365   0.254  11.400
27140SOL    HW183253  13.409   0.169  11.409
27140SOL    HW283254  13.290   0.236  11.343
27141SOL     OW83255   0.247  13.350   8.161
27141SOL    HW183256   0.165  13.349   8.211
27141SOL    HW283257   0.275  13.258   8.159
27142SOL     OW83258   4.379   3.149   2.114
27142SOL    HW183259   4.319   3.196   2.172
27142SOL    HW283260   4.463   3.192   2.126
27143SOL     OW83261   0.970   8.315  11.803
27143SOL    HW183262   1.029   8.241  11.788
27143SOL    HW283263   0.952   8.312  11.897
27144SOL     OW83264  14.439   0.163   3.323
27144SOL    HW183265  14.423   0.154   3.229
27144SOL    HW283266  14.356   0.139   3.363
27145SOL     OW83267  11.135   0.872  14.615
27145SOL    HW183268  11.053   0.904  14.579
27145SOL    HW283269  11.111   0.794  14.666
27146SOL     OW83270  12.619   3.240  11.455
27146SOL    HW183271  12.662   3.325  11.466
27146SOL    HW283272  12.689   3.176  11.468
27147SOL     OW83273   6.745   2.221   4.037
27147SOL    HW183274   6.790   2.187   4.115
27147SOL    HW283275   6.701   2.145   4.000
27148SOL     OW83276   7.065   0.626   4.375
27148SOL    HW183277   7.138   0.575   4.410
27148SOL    HW283278   7.075   0.713   4.415
27149SOL     OW83279   2.716   2.510   7.903
27149SOL    HW183280   2.783   2.579   7.906
27149SOL    HW283281   2.673   2.515   7.987
27150SOL     OW83282   9.066  10.812  13.523
27150SOL    HW183283   9.009  10.792  13.449
27150SOL    HW283284   9.043  10.902  13.548
27151SOL     OW83285   8.803   5.671   4.884
27151SOL    HW183286   8.822   5.655   4.977
27151SOL    HW283287   8.721   5.624   4.869
27152SOL     OW83288  13.292   7.007   1.908
27152SOL    HW183289  13.245   7.007   1.824
27152SOL    HW283290  13.365   7.067   1.895
27153SOL     OW83291   6.207  10.190  11.682
27153SOL    HW183292   6.254  10.228  11.608
27153SOL    HW283293   6.269  10.127  11.719
27154SOL     OW83294  12.145   5.709   0.389
27154SOL    HW183295  12.146   5.805   0.388
27154SOL    HW283296  12.237   5.685   0.399
27155SOL     OW83297   3.786  11.271  10.030
27155SOL    HW183298   3.696  11.238  10.036
27155SOL    HW283299   3.839  11.194  10.012
27156SOL     OW83300  10.247   2.474  10.098
27156SOL    HW183301  10.302   2.549  10.077
27156SOL    HW283302  10.158   2.505  10.083
27157SOL     OW83303   0.558  13.047   8.902
27157SOL    HW183304   0.524  13.025   8.816
27157SOL    HW283305   0.516  12.984   8.961
27158SOL     OW83306   6.042  11.320  12.914
27158SOL    HW183307   6.048  11.257  12.843
27158SOL    HW283308   5.949  11.321  12.937
27159SOL     OW83309  14.643   0.095   4.827
27159SOL    HW183310  14.644   0.096   4.923
27159SOL    HW283311  14.697   0.020   4.804
27160SOL     OW83312   3.982   3.259   4.739
27160SOL    HW183313   3.997   3.268   4.833
27160SOL    HW283314   3.993   3.348   4.705
27161SOL     OW83315   6.700   5.078   1.347
27161SOL    HW183316   6.626   5.018   1.362
27161SOL    HW283317   6.726   5.106   1.434
27162SOL     OW83318   9.003  14.384   2.486
27162SOL    HW183319   9.045  14.333   2.556
27162SOL    HW283320   8.944  14.444   2.532
27163SOL     OW83321   8.878  13.290  12.150
27163SOL    HW183322   8.930  13.235  12.209
27163SOL    HW283323   8.812  13.329  12.206
27164SOL     OW83324   7.811   9.564   5.281
27164SOL    HW183325   7.779   9.480   5.316
27164SOL    HW283326   7.793   9.627   5.350
27165SOL     OW83327  10.292  11.683   6.881
27165SOL    HW183328  10.289  11.743   6.956
27165SOL    HW283329  10.205  11.688   6.843
27166SOL     OW83330   8.142   5.799  10.392
27166SOL    HW183331   8.123   5.705  10.399
27166SOL    HW283332   8.231   5.807  10.425
27167SOL     OW83333   4.934   1.667   5.132
27167SOL    HW183334   4.966   1.723   5.204
27167SOL    HW283335   4.995   1.593   5.131
27168SOL     OW83336  12.469   8.492   4.887
27168SOL    HW183337  12.510   8.477   4.802
27168SOL    HW283338  12.389   8.541   4.868
27169SOL     OW83339   8.740   4.044   4.060
27169SOL    HW183340   8.805   4.110   4.085
27169SOL    HW283341   8.707   4.010   4.142
27170SOL     OW83342   2.361   6.456  11.192
27170SOL    HW183343   2.319   6.495  11.114
27170SOL    HW283344   2.443   6.504  11.200
27171SOL     OW83345   9.133   9.766   1.184
27171SOL    HW183346   9.091   9.761   1.098
27171SOL    HW283347   9.067   9.733   1.245
27172SOL     OW83348  13.287   6.730   0.069
27172SOL    HW183349  13.325   6.733  14.860
27172SOL    HW283350  13.261   6.820   0.087
27173SOL     OW83351   3.330   4.068   9.760
27173SOL    HW183352   3.396   4.082   9.692
27173SOL    HW283353   3.253   4.036   9.713
27174SOL     OW83354   8.292   3.986   4.519
27174SOL    HW183355   8.236   3.934   4.577
27174SOL    HW283356   8.245   4.068   4.507
27175SOL     OW83357  10.536   0.792   7.017
27175SOL    HW183358  10.553   0.734   7.090
27175SOL    HW283359  10.442   0.785   7.001
27176SOL     OW83360  12.830   9.571  11.822
27176SOL    HW183361  12.815   9.489  11.870
27176SOL    HW283362  12.742   9.607  11.810
27177SOL     OW83363   9.977  11.143   6.970
27177SOL    HW183364   9.891  11.113   6.942
27177SOL    HW283365  10.028  11.149   6.889
27178SOL     OW83366   7.332   7.771  13.794
27178SOL    HW183367   7.425   7.773  13.771
27178SOL    HW283368   7.330   7.728  13.879
27179SOL     OW83369   3.414  11.047  13.625
27179SOL    HW183370   3.331  11.091  13.610
27179SOL    HW283371   3.392  10.954  13.624
27180SOL     OW83372   4.630   8.120   6.594
27180SOL    HW183373   4.646   8.037   6.549
27180SOL    HW283374   4.716   8.159   6.605
27181SOL     OW83375  10.428  12.353  11.130
27181SOL    HW183376  10.400  12.379  11.218
27181SOL    HW283377  10.464  12.433  11.092
27182SOL     OW83378   6.282   1.686   0.240
27182SOL    HW183379   6.276   1.776   0.207
27182SOL    HW283380   6.236   1.633   0.175
27183SOL     OW83381  14.603  14.218   9.425
27183SOL    HW183382  14.608  14.266   9.343
27183SOL    HW283383  14.581  14.284   9.490
27184SOL     OW83384   4.867   4.046  13.912
27184SOL    HW183385   4.809   4.050  13.836
27184SOL    HW283386   4.871   4.135  13.945
27185SOL     OW83387   1.747  14.093   6.951
27185SOL    HW183388   1.819  14.056   6.900
27185SOL    HW283389   1.740  14.037   7.028
27186SOL     OW83390  14.011   3.287  11.019
27186SOL    HW183391  13.986   3.378  11.001
27186SOL    HW283392  14.072   3.264  10.949
27187SOL     OW83393   3.094  13.942   8.832
27187SOL    HW183394   3.075  13.859   8.874
27187SOL    HW283395   3.028  13.950   8.763
27188SOL     OW83396   5.300  12.596   6.825
27188SOL    HW183397   5.298  12.501   6.813
27188SOL    HW283398   5.220  12.628   6.784
27189SOL     OW83399   4.236   5.769   2.360
27189SOL    HW183400   4.168   5.716   2.319
27189SOL    HW283401   4.214   5.770   2.453
27190SOL     OW83402   4.688  11.690   8.914
27190SOL    HW183403   4.597  11.695   8.944
27190SOL    HW283404   4.686  11.726   8.825
27191SOL     OW83405   5.025  11.338   6.677
27191SOL    HW183406   5.057  11.428   6.668
27191SOL    HW283407   4.948  11.335   6.620
27192SOL     OW83408   0.444   3.912  13.596
27192SOL    HW183409   0.536   3.915  13.567
27192SOL    HW283410   0.450   3.893  13.690
27193SOL     OW83411   2.926  11.287   1.379
27193SOL    HW183412   2.979  11.335   1.316
27193SOL    HW283413   2.989  11.241   1.433
27194SOL     OW83414   9.561   1.224  13.027
27194SOL    HW183415   9.609   1.141  13.019
27194SOL    HW283416   9.475   1.206  12.989
27195SOL     OW83417   3.121  13.409   0.057
27195SOL    HW183418   3.112  13.499   0.090
27195SOL    HW283419   3.127  13.420  14.841
27196SOL     OW83420   7.379   7.065   4.158
27196SOL    HW183421   7.401   7.158   4.150
27196SOL    HW283422   7.293   7.064   4.200
27197SOL     OW83423  14.400   2.464   1.443
27197SOL    HW183424  14.465   2.393   1.441
27197SOL    HW283425  14.330   2.433   1.386
27198SOL     OW83426   9.646   1.476   6.084
27198SOL    HW183427   9.696   1.494   6.005
27198SOL    HW283428   9.565   1.526   6.073
27199SOL     OW83429   1.145   9.041   5.266
27199SOL    HW183430   1.129   9.007   5.354
27199SOL    HW283431   1.199   8.974   5.224
27200SOL     OW83432   8.203   6.943   0.116
27200SOL    HW183433   8.215   6.985   0.031
27200SOL    HW283434   8.279   6.971   0.168
27201SOL     OW83435  11.419   1.076   3.032
27201SOL    HW183436  11.450   0.987   3.015
27201SOL    HW283437  11.346   1.064   3.094
27202SOL     OW83438   3.488  11.153   7.434
27202SOL    HW183439   3.524  11.106   7.358
27202SOL    HW283440   3.551  11.223   7.451
27203SOL     OW83441   4.450  13.160   7.762
27203SOL    HW183442   4.354  13.166   7.759
27203SOL    HW283443   4.472  13.095   7.696
27204SOL     OW83444   6.669   6.023   7.538
27204SOL    HW183445   6.678   6.058   7.627
27204SOL    HW283446   6.752   5.978   7.522
27205SOL     OW83447   3.945  12.229   7.455
27205SOL    HW183448   3.979  12.143   7.429
27205SOL    HW283449   4.021  12.277   7.487
27206SOL     OW83450   5.499   0.555  12.734
27206SOL    HW183451   5.526   0.610  12.661
27206SOL    HW283452   5.409   0.581  12.752
27207SOL     OW83453  11.890  10.086  14.138
27207SOL    HW183454  11.850  10.002  14.161
27207SOL    HW283455  11.970  10.089  14.190
27208SOL     OW83456   7.039   9.715   0.713
27208SOL    HW183457   7.103   9.648   0.738
27208SOL    HW283458   6.972   9.709   0.781
27209SOL     OW83459   1.049   2.440   7.276
27209SOL    HW183460   1.120   2.483   7.228
27209SOL    HW283461   1.038   2.356   7.233
27210SOL     OW83462   9.558   6.810  11.710
27210SOL    HW183463   9.524   6.878  11.653
27210SOL    HW283464   9.535   6.728  11.666
27211SOL     OW83465  10.961   1.478  13.047
27211SOL    HW183466  10.866   1.470  13.051
27211SOL    HW283467  10.986   1.431  12.968
27212SOL     OW83468   1.929   1.969   1.387
27212SOL    HW183469   1.892   2.036   1.329
27212SOL    HW283470   1.961   1.901   1.328
27213SOL     OW83471   8.939   3.522  10.480
27213SOL    HW183472   8.934   3.617  10.493
27213SOL    HW283473   9.007   3.510  10.414
27214SOL     OW83474   2.400  14.371   9.764
27214SOL    HW183475   2.370  14.291   9.807
27214SOL    HW283476   2.420  14.345   9.674
27215SOL     OW83477  10.903  11.204   0.829
27215SOL    HW183478  10.906  11.130   0.769
27215SOL    HW283479  10.919  11.166   0.915
27216SOL     OW83480  12.856   4.432   0.262
27216SOL    HW183481  12.767   4.398   0.274
27216SOL    HW283482  12.849   4.525   0.281
27217SOL     OW83483   4.766  13.465   8.212
27217SOL    HW183484   4.742  13.439   8.300
27217SOL    HW283485   4.683  13.467   8.164
27218SOL     OW83486   5.022   0.273  10.195
27218SOL    HW183487   5.002   0.234  10.280
27218SOL    HW283488   5.033   0.199  10.136
27219SOL     OW83489   0.395   8.609   6.366
27219SOL    HW183490   0.413   8.515   6.362
27219SOL    HW283491   0.318   8.616   6.423
27220SOL     OW83492   2.592   5.240  10.261
27220SOL    HW183493   2.632   5.233  10.348
27220SOL    HW283494   2.636   5.173  10.209
27221SOL     OW83495   6.056  12.694   2.500
27221SOL    HW183496   6.118  12.656   2.561
27221SOL    HW283497   6.014  12.765   2.549
27222SOL     OW83498   6.270   0.270  13.375
27222SOL    HW183499   6.175   0.271  13.371
27222SOL    HW283500   6.296   0.361  13.360
27223SOL     OW83501  14.334   8.567   3.523
27223SOL    HW183502  14.392   8.579   3.448
27223SOL    HW283503  14.325   8.472   3.532
27224SOL     OW83504   0.969   3.573  13.007
27224SOL    HW183505   1.006   3.655  12.976
27224SOL    HW283506   0.975   3.514  12.932
27225SOL     OW83507   3.407  10.215   5.631
27225SOL    HW183508   3.438  10.125   5.615
27225SOL    HW283509   3.437  10.234   5.720
27226SOL     OW83510  10.734   2.834  14.613
27226SOL    HW183511  10.791   2.771  14.657
27226SOL    HW283512  10.794   2.890  14.564
27227SOL     OW83513  12.071   4.557   4.799
27227SOL    HW183514  12.027   4.605   4.729
27227SOL    HW283515  12.108   4.625   4.856
27228SOL     OW83516   1.881  13.812  13.306
27228SOL    HW183517   1.976  13.824  13.312
27228SOL    HW283518   1.849  13.830  13.395
27229SOL     OW83519   4.746   2.158   7.995
27229SOL    HW183520   4.835   2.152   7.961
27229SOL    HW283521   4.692   2.177   7.918
27230SOL     OW83522   0.512   7.608  13.878
27230SOL    HW183523   0.588   7.597  13.935
27230SOL    HW283524   0.491   7.519  13.850
27231SOL     OW83525   4.916   9.038  13.482
27231SOL    HW183526   4.880   8.954  13.510
27231SOL    HW283527   4.841   9.098  13.480
27232SOL     OW83528   1.331  10.373   8.657
27232SOL    HW183529   1.260  10.430   8.687
27232SOL    HW283530   1.392  10.369   8.730
27233SOL     OW83531   4.274   5.840   1.475
27233SOL    HW183532   4.201   5.901   1.491
27233SOL    HW283533   4.352   5.888   1.504
27234SOL     OW83534  13.452  14.409   2.703
27234SOL    HW183535  13.489  14.493   2.675
27234SOL    HW283536  13.440  14.361   2.622
27235SOL     OW83537   1.007   4.133  13.913
27235SOL    HW183538   0.951   4.209  13.901
27235SOL    HW283539   0.956   4.073  13.967
27236SOL     OW83540  14.840   6.316  13.050
27236SOL    HW183541   0.016   6.242  13.024
27236SOL    HW283542   0.023   6.390  13.056
27237SOL     OW83543  13.171  12.309   5.051
27237SOL    HW183544  13.189  12.363   4.974
27237SOL    HW283545  13.144  12.371   5.118
27238SOL     OW83546  13.999  10.464   0.425
27238SOL    HW183547  13.934  10.525   0.460
27238SOL    HW283548  13.952  10.381   0.415
27239SOL     OW83549   3.252   2.843   6.517
27239SOL    HW183550   3.273   2.931   6.550
27239SOL    HW283551   3.264   2.785   6.592
27240SOL     OW83552   3.169   5.342  12.686
27240SOL    HW183553   3.210   5.325  12.771
27240SOL    HW283554   3.135   5.431  12.694
27241SOL     OW83555  10.440  11.701   2.245
27241SOL    HW183556  10.459  11.709   2.338
27241SOL    HW283557  10.506  11.756   2.202
27242SOL     OW83558   9.462   9.181   1.531
27242SOL    HW183559   9.553   9.152   1.544
27242SOL    HW283560   9.453   9.189   1.436
27243SOL     OW83561   0.628   1.302   6.075
27243SOL    HW183562   0.567   1.295   6.001
27243SOL    HW283563   0.571   1.300   6.152
27244SOL     OW83564   7.453   0.551   5.996
27244SOL    HW183565   7.439   0.483   6.062
27244SOL    HW283566   7.414   0.514   5.916
27245SOL     OW83567  12.340   8.472  11.270
27245SOL    HW183568  12.308   8.500  11.184
27245SOL    HW283569  12.320   8.378  11.274
27246SOL     OW83570   1.910   7.966   6.394
27246SOL    HW183571   1.993   8.009   6.415
27246SOL    HW283572   1.908   7.889   6.450
27247SOL     OW83573   9.615   8.301   5.693
27247SOL    HW183574   9.561   8.325   5.768
27247SOL    HW283575   9.670   8.230   5.725
27248SOL     OW83576  13.274   6.462  11.960
27248SOL    HW183577  13.216   6.507  11.898
27248SOL    HW283578  13.220   6.392  11.996
27249SOL     OW83579  12.548   2.748  12.858
27249SOL    HW183580  12.511   2.830  12.891
27249SOL    HW283581  12.516   2.740  12.768
27250SOL     OW83582   5.123   5.323  14.009
27250SOL    HW183583   5.124   5.307  13.914
27250SOL    HW283584   5.031   5.340  14.030
27251SOL     OW83585  14.209   8.315   6.266
27251SOL    HW183586  14.248   8.391   6.309
27251SOL    HW283587  14.127   8.348   6.230
27252SOL     OW83588   5.551   1.377   4.599
27252SOL    HW183589   5.510   1.291   4.596
27252SOL    HW283590   5.510   1.421   4.673
27253SOL     OW83591  10.725   7.279  13.012
27253SOL    HW183592  10.686   7.226  12.943
27253SOL    HW283593  10.795   7.225  13.048
27254SOL     OW83594   0.592   5.627  12.038
27254SOL    HW183595   0.648   5.671  12.102
27254SOL    HW283596   0.503   5.640  12.071
27255SOL     OW83597   0.895   2.744   0.222
27255SOL    HW183598   0.960   2.765   0.155
27255SOL    HW283599   0.923   2.659   0.256
27256SOL     OW83600  13.554  10.762  11.517
27256SOL    HW183601  13.583  10.717  11.437
27256SOL    HW283602  13.517  10.693  11.571
27257SOL     OW83603   5.939  13.203  13.660
27257SOL    HW183604   5.974  13.219  13.748
27257SOL    HW283605   6.003  13.143  13.620
27258SOL     OW83606   8.599  11.826  12.971
27258SOL    HW183607   8.555  11.768  13.033
27258SOL    HW283608   8.651  11.767  12.916
27259SOL     OW83609   1.289  12.195  10.268
27259SOL    HW183610   1.248  12.248  10.336
27259SOL    HW283611   1.346  12.256  10.221
27260SOL     OW83612   9.983  11.976  13.933
27260SOL    HW183613   9.922  11.958  14.004
27260SOL    HW283614  10.050  11.907  13.941
27261SOL     OW83615   4.816   5.743  10.634
27261SOL    HW183616   4.875   5.700  10.696
27261SOL    HW283617   4.836   5.702  10.550
27262SOL     OW83618   8.302   2.854   7.600
27262SOL    HW183619   8.249   2.826   7.675
27262SOL    HW283620   8.247   2.919   7.556
27263SOL     OW83621   3.144  14.324   6.071
27263SOL    HW183622   3.141  14.245   6.017
27263SOL    HW283623   3.105  14.392   6.016
27264SOL     OW83624   3.033  12.672   7.670
27264SOL    HW183625   3.024  12.615   7.746
27264SOL    HW283626   3.098  12.737   7.696
27265SOL     OW83627   8.099   5.165  12.476
27265SOL    HW183628   8.079   5.248  12.433
27265SOL    HW283629   8.120   5.106  12.405
27266SOL     OW83630   5.823   8.591  10.046
27266SOL    HW183631   5.855   8.505  10.075
27266SOL    HW283632   5.830   8.588   9.950
27267SOL     OW83633   2.261   4.405   4.841
27267SOL    HW183634   2.327   4.473   4.825
27267SOL    HW283635   2.178   4.447   4.818
27268SOL     OW83636   5.594  13.285   4.079
27268SOL    HW183637   5.557  13.360   4.125
27268SOL    HW283638   5.675  13.317   4.041
27269SOL     OW83639   5.770  12.058   0.389
27269SOL    HW183640   5.734  12.070   0.301
27269SOL    HW283641   5.827  11.982   0.382
27270SOL     OW83642  12.856   1.742   5.342
27270SOL    HW183643  12.905   1.750   5.260
27270SOL    HW283644  12.786   1.680   5.323
27271SOL     OW83645  14.516   4.402   4.957
27271SOL    HW183646  14.578   4.330   4.961
27271SOL    HW283647  14.455   4.379   4.887
27272SOL     OW83648  14.715   1.434  10.082
27272SOL    HW183649  14.723   1.353  10.133
27272SOL    HW283650  14.669   1.494  10.141
27273SOL     OW83651   7.204   1.323   9.015
27273SOL    HW183652   7.269   1.348   8.950
27273SOL    HW283653   7.254   1.299   9.092
27274SOL     OW83654   8.067  14.488   3.261
27274SOL    HW183655   8.055  14.507   3.168
27274SOL    HW283656   8.068  14.392   3.266
27275SOL     OW83657  10.606  12.553   8.894
27275SOL    HW183658  10.616  12.590   8.982
27275SOL    HW283659  10.695  12.540   8.863
27276SOL     OW83660   5.307   4.419   6.315
27276SOL    HW183661   5.351   4.467   6.244
27276SOL    HW283662   5.351   4.448   6.394
27277SOL     OW83663   1.250   3.142   2.316
27277SOL    HW183664   1.220   3.110   2.231
27277SOL    HW283665   1.316   3.208   2.295
27278SOL     OW83666   7.156  12.062   2.225
27278SOL    HW183667   7.232  12.110   2.192
27278SOL    HW283668   7.192  11.999   2.287
27279SOL     OW83669  11.877   0.072   6.261
27279SOL    HW183670  11.845   0.084   6.351
27279SOL    HW283671  11.828  14.875   6.228
27280SOL     OW83672   9.753  10.794   3.331
27280SOL    HW183673   9.732  10.849   3.256
27280SOL    HW283674   9.825  10.839   3.375
27281SOL     OW83675  14.622   0.681  11.354
27281SOL    HW183676  14.694   0.700  11.294
27281SOL    HW283677  14.595   0.592  11.333
27282SOL     OW83678   1.471   7.771  11.188
27282SOL    HW183679   1.475   7.827  11.266
27282SOL    HW283680   1.561   7.741  11.176
27283SOL     OW83681   2.552  11.750   3.005
27283SOL    HW183682   2.574  11.842   2.993
27283SOL    HW283683   2.559  11.712   2.917
27284SOL     OW83684  11.095   8.753  12.154
27284SOL    HW183685  11.147   8.810  12.099
27284SOL    HW283686  11.151   8.734  12.229
27285SOL     OW83687   9.538   8.064  13.757
27285SOL    HW183688   9.489   7.984  13.773
27285SOL    HW283689   9.542   8.072  13.662
27286SOL     OW83690  12.422   4.741   4.670
27286SOL    HW183691  12.344   4.777   4.628
27286SOL    HW283692  12.487   4.738   4.601
27287SOL     OW83693   0.794   4.157   6.726
27287SOL    HW183694   0.751   4.190   6.805
27287SOL    HW283695   0.875   4.117   6.758
27288SOL     OW83696   7.465   0.102   4.380
27288SOL    HW183697   7.390   0.159   4.399
27288SOL    HW283698   7.530   0.125   4.447
27289SOL     OW83699   9.101   0.941   0.524
27289SOL    HW183700   9.060   0.869   0.476
27289SOL    HW283701   9.077   0.925   0.616
27290SOL     OW83702   9.192   3.174   9.629
27290SOL    HW183703   9.195   3.117   9.552
27290SOL    HW283704   9.248   3.131   9.694
27291SOL     OW83705   6.604   3.125   6.655
27291SOL    HW183706   6.619   3.037   6.688
27291SOL    HW283707   6.534   3.160   6.710
27292SOL     OW83708   8.692   1.099   2.463
27292SOL    HW183709   8.626   1.082   2.530
27292SOL    HW283710   8.755   1.157   2.505
27293SOL     OW83711  10.243   3.601   2.179
27293SOL    HW183712  10.296   3.678   2.158
27293SOL    HW283713  10.216   3.614   2.270
27294SOL     OW83714   7.933   8.401  10.769
27294SOL    HW183715   7.930   8.470  10.836
27294SOL    HW283716   7.864   8.340  10.794
27295SOL     OW83717  12.533   4.084   0.194
27295SOL    HW183718  12.472   4.011   0.198
27295SOL    HW283719  12.568   4.090   0.283
27296SOL     OW83720  12.318  11.431   0.935
27296SOL    HW183721  12.241  11.426   0.991
27296SOL    HW283722  12.391  11.413   0.994
27297SOL     OW83723   7.379   2.143  10.630
27297SOL    HW183724   7.307   2.106  10.682
27297SOL    HW283725   7.405   2.072  10.572
27298SOL     OW83726   9.621   2.412  10.402
27298SOL    HW183727   9.564   2.472  10.449
27298SOL    HW283728   9.624   2.446  10.312
27299SOL     OW83729   4.344   0.589   6.744
27299SOL    HW183730   4.251   0.570   6.740
27299SOL    HW283731   4.364   0.597   6.837
27300SOL     OW83732   8.528  11.746   4.501
27300SOL    HW183733   8.545  11.652   4.504
27300SOL    HW283734   8.452  11.758   4.558
27301SOL     OW83735  13.833   2.915  12.197
27301SOL    HW183736  13.870   2.855  12.132
27301SOL    HW283737  13.833   2.865  12.278
27302SOL     OW83738   0.766   5.230   7.272
27302SOL    HW183739   0.721   5.216   7.355
27302SOL    HW283740   0.859   5.229   7.295
27303SOL     OW83741   5.350   3.782   9.658
27303SOL    HW183742   5.388   3.870   9.667
27303SOL    HW283743   5.423   3.727   9.629
27304SOL     OW83744   0.743   7.178   4.900
27304SOL    HW183745   0.727   7.241   4.971
27304SOL    HW283746   0.658   7.167   4.858
27305SOL     OW83747  13.639   3.232  14.468
27305SOL    HW183748  13.592   3.280  14.536
27305SOL    HW283749  13.572   3.208  14.405
27306SOL     OW83750   8.018   8.516  12.338
27306SOL    HW183751   8.092   8.456  12.338
27306SOL    HW283752   8.045   8.589  12.283
27307SOL     OW83753   6.775   4.588   4.917
27307SOL    HW183754   6.729   4.670   4.898
27307SOL    HW283755   6.831   4.608   4.993
27308SOL     OW83756   5.245  12.109   3.282
27308SOL    HW183757   5.308  12.064   3.227
27308SOL    HW283758   5.188  12.040   3.316
27309SOL     OW83759  13.694  14.229   8.788
27309SOL    HW183760  13.731  14.317   8.799
27309SOL    HW283761  13.713  14.184   8.870
27310SOL     OW83762  10.079  14.549  10.211
27310SOL    HW183763  10.050  14.459  10.194
27310SOL    HW283764  10.170  14.550  10.183
27311SOL     OW83765   0.777   5.993   1.144
27311SOL    HW183766   0.858   6.007   1.095
27311SOL    HW283767   0.774   5.898   1.159
27312SOL     OW83768  11.376   5.515  14.319
27312SOL    HW183769  11.305   5.506  14.382
27312SOL    HW283770  11.452   5.539  14.372
27313SOL     OW83771   5.263   4.897   9.189
27313SOL    HW183772   5.262   4.891   9.094
27313SOL    HW283773   5.241   4.989   9.207
27314SOL     OW83774   4.246  13.232   2.188
27314SOL    HW183775   4.187  13.164   2.221
27314SOL    HW283776   4.281  13.274   2.266
27315SOL     OW83777   7.198   1.205  13.746
27315SOL    HW183778   7.131   1.156  13.793
27315SOL    HW283779   7.234   1.143  13.683
27316SOL     OW83780   5.791  10.300   4.850
27316SOL    HW183781   5.805  10.235   4.781
27316SOL    HW283782   5.852  10.371   4.830
27317SOL     OW83783   5.287   3.576   1.714
27317SOL    HW183784   5.222   3.613   1.654
27317SOL    HW283785   5.322   3.651   1.762
27318SOL     OW83786   2.919   2.106   8.966
27318SOL    HW183787   2.989   2.139   8.909
27318SOL    HW283788   2.846   2.087   8.907
27319SOL     OW83789   2.718  10.836  14.211
27319SOL    HW183790   2.787  10.810  14.151
27319SOL    HW283791   2.725  10.775  14.284
27320SOL     OW83792   0.319  13.042   3.953
27320SOL    HW183793   0.358  13.115   4.000
27320SOL    HW283794   0.227  13.044   3.980
27321SOL     OW83795  13.583  12.415   6.062
27321SOL    HW183796  13.526  12.393   5.988
27321SOL    HW283797  13.610  12.505   6.045
27322SOL     OW83798   1.747   9.007  14.332
27322SOL    HW183799   1.654   9.003  14.310
27322SOL    HW283800   1.786   8.934  14.285
27323SOL     OW83801  14.314   5.496  14.437
27323SOL    HW183802  14.319   5.529  14.527
27323SOL    HW283803  14.405   5.487  14.410
27324SOL     OW83804   2.932   7.560   0.068
27324SOL    HW183805   2.879   7.637   0.045
27324SOL    HW283806   3.005   7.562   0.006
27325SOL     OW83807  13.262   4.053   2.346
27325SOL    HW183808  13.187   4.062   2.406
27325SOL    HW283809  13.267   4.138   2.302
27326SOL     OW83810  12.102  13.183  10.405
27326SOL    HW183811  12.166  13.216  10.342
27326SOL    HW283812  12.017  13.207  10.368
27327SOL     OW83813   7.541  14.071  13.787
27327SOL    HW183814   7.528  14.125  13.865
27327SOL    HW283815   7.467  14.092  13.731
27328SOL     OW83816   2.815   6.980   0.765
27328SOL    HW183817   2.720   6.967   0.769
27328SOL    HW283818   2.846   6.955   0.852
27329SOL     OW83819   6.080  10.861  12.829
27329SOL    HW183820   6.039  10.920  12.893
27329SOL    HW283821   6.035  10.879  12.747
27330SOL     OW83822   9.855   4.095  12.766
27330SOL    HW183823   9.914   4.065  12.835
27330SOL    HW283824   9.768   4.069  12.796
27331SOL     OW83825   6.141   9.299   7.176
27331SOL    HW183826   6.226   9.262   7.151
27331SOL    HW283827   6.086   9.223   7.192
27332SOL     OW83828   8.508   5.081   9.183
27332SOL    HW183829   8.525   4.987   9.183
27332SOL    HW283830   8.562   5.115   9.111
27333SOL     OW83831   4.968   6.815  14.599
27333SOL    HW183832   5.055   6.776  14.604
27333SOL    HW283833   4.908   6.740  14.605
27334SOL     OW83834  12.827   4.627  13.792
27334SOL    HW183835  12.807   4.711  13.834
27334SOL    HW283836  12.895   4.588  13.847
27335SOL     OW83837  10.778  11.210   5.568
27335SOL    HW183838  10.713  11.280   5.557
27335SOL    HW283839  10.840  11.246   5.631
27336SOL     OW83840  12.292  14.423   1.840
27336SOL    HW183841  12.282  14.410   1.746
27336SOL    HW283842  12.338  14.506   1.849
27337SOL     OW83843  13.614   1.253   7.157
27337SOL    HW183844  13.535   1.200   7.172
27337SOL    HW283845  13.667   1.237   7.235
27338SOL     OW83846  12.500   5.768  10.022
27338SOL    HW183847  12.549   5.719  10.088
27338SOL    HW283848  12.487   5.706   9.950
27339SOL     OW83849   8.306   5.487   3.640
27339SOL    HW183850   8.268   5.565   3.681
27339SOL    HW283851   8.400   5.496   3.653
27340SOL     OW83852  12.345   5.092   9.861
27340SOL    HW183853  12.384   5.149   9.795
27340SOL    HW283854  12.419   5.050   9.904
27341SOL     OW83855  10.511   0.812  12.177
27341SOL    HW183856  10.548   0.871  12.111
27341SOL    HW283857  10.567   0.824  12.254
27342SOL     OW83858  11.329  12.322  13.577
27342SOL    HW183859  11.373  12.238  13.563
27342SOL    HW283860  11.367  12.379  13.510
27343SOL     OW83861   0.979  12.060  13.869
27343SOL    HW183862   0.967  12.009  13.949
27343SOL    HW283863   0.893  12.061  13.828
27344SOL     OW83864  13.745   3.525   2.583
27344SOL    HW183865  13.791   3.540   2.501
27344SOL    HW283866  13.804   3.469   2.634
27345SOL     OW83867   8.685   1.179   6.538
27345SOL    HW183868   8.592   1.197   6.525
27345SOL    HW283869   8.693   1.164   6.632
27346SOL     OW83870   9.341  11.764   1.608
27346SOL    HW183871   9.281  11.693   1.583
27346SOL    HW283872   9.380  11.792   1.525
27347SOL     OW83873   2.333   7.828   3.484
27347SOL    HW183874   2.323   7.737   3.455
27347SOL    HW283875   2.422   7.832   3.520
27348SOL     OW83876  11.236   4.216   7.951
27348SOL    HW183877  11.249   4.295   7.899
27348SOL    HW283878  11.228   4.146   7.886
27349SOL     OW83879   2.009  12.099  12.409
27349SOL    HW183880   1.997  12.054  12.325
27349SOL    HW283881   1.931  12.154  12.418
27350SOL     OW83882   6.653  11.391  10.676
27350SOL    HW183883   6.668  11.474  10.629
27350SOL    HW283884   6.697  11.326  10.622
27351SOL     OW83885   8.187   6.540   9.600
27351SOL    HW183886   8.276   6.545   9.565
27351SOL    HW283887   8.163   6.448   9.590
27352SOL     OW83888   4.301  14.433   4.222
27352SOL    HW183889   4.356  14.512   4.224
27352SOL    HW283890   4.241  14.444   4.295
27353SOL     OW83891   7.684   8.986  11.520
27353SOL    HW183892   7.631   8.906  11.520
27353SOL    HW283893   7.721   8.989  11.432
27354SOL     OW83894   3.269  13.294   7.585
27354SOL    HW183895   3.345  13.309   7.642
27354SOL    HW283896   3.305  13.294   7.496
27355SOL     OW83897   1.136  11.621   7.948
27355SOL    HW183898   1.228  11.623   7.976
27355SOL    HW283899   1.092  11.570   8.016
27356SOL     OW83900   7.314  11.466  11.177
27356SOL    HW183901   7.315  11.539  11.115
27356SOL    HW283902   7.223  11.460  11.207
27357SOL     OW83903  14.359  12.106   1.599
27357SOL    HW183904  14.431  12.042   1.592
27357SOL    HW283905  14.398  12.180   1.645
27358SOL     OW83906   6.878   5.745  10.394
27358SOL    HW183907   6.850   5.826  10.435
27358SOL    HW283908   6.796   5.700  10.372
27359SOL     OW83909   0.012  14.151   0.806
27359SOL    HW183910   0.057  14.071   0.833
27359SOL    HW283911   0.005  14.144   0.711
27360SOL     OW83912   7.469  12.788   4.584
27360SOL    HW183913   7.446  12.721   4.520
27360SOL    HW283914   7.513  12.740   4.655
27361SOL     OW83915  13.576  14.176  14.249
27361SOL    HW183916  13.661  14.161  14.291
27361SOL    HW283917  13.551  14.090  14.214
27362SOL     OW83918  12.275   1.990   9.764
27362SOL    HW183919  12.300   1.919   9.823
27362SOL    HW283920  12.253   1.947   9.682
27363SOL     OW83921   6.708   3.675   7.186
27363SOL    HW183922   6.647   3.747   7.172
27363SOL    HW283923   6.762   3.674   7.107
27364SOL     OW83924  12.710  11.982  10.693
27364SOL    HW183925  12.669  12.061  10.728
27364SOL    HW283926  12.636  11.923  10.677
27365SOL     OW83927   9.629   9.587   0.490
27365SOL    HW183928   9.720   9.617   0.496
27365SOL    HW283929   9.628   9.529   0.414
27366SOL     OW83930   1.150   7.247   1.536
27366SOL    HW183931   1.231   7.224   1.582
27366SOL    HW283932   1.122   7.329   1.576
27367SOL     OW83933   0.016   0.869   8.267
27367SOL    HW183934  14.826   0.874   8.333
27367SOL    HW283935  14.851   0.834   8.190
27368SOL     OW83936  14.447   1.493   4.943
27368SOL    HW183937  14.504   1.523   5.014
27368SOL    HW283938  14.386   1.566   4.930
27369SOL     OW83939  14.051  11.543   8.424
27369SOL    HW183940  14.068  11.461   8.377
27369SOL    HW283941  14.101  11.535   8.505
27370SOL     OW83942  14.628   1.526  11.510
27370SOL    HW183943  14.593   1.490  11.591
27370SOL    HW283944  14.550   1.551  11.460
27371SOL     OW83945   8.146  11.404   4.761
27371SOL    HW183946   8.236  11.421   4.735
27371SOL    HW283947   8.107  11.360   4.686
27372SOL     OW83948   9.112   5.241   0.457
27372SOL    HW183949   9.197   5.275   0.430
27372SOL    HW283950   9.132   5.182   0.530
27373SOL     OW83951   8.896   8.119   1.493
27373SOL    HW183952   8.806   8.122   1.526
27373SOL    HW283953   8.948   8.085   1.566
27374SOL     OW83954  12.394   7.948   6.683
27374SOL    HW183955  12.313   7.996   6.665
27374SOL    HW283956  12.403   7.953   6.778
27375SOL     OW83957   7.182  10.388   2.359
27375SOL    HW183958   7.174  10.335   2.438
27375SOL    HW283959   7.156  10.476   2.386
27376SOL     OW83960   8.267   5.574   7.052
27376SOL    HW183961   8.222   5.498   7.015
27376SOL    HW283962   8.254   5.566   7.146
27377SOL     OW83963   7.278   5.341  10.629
27377SOL    HW183964   7.220   5.397  10.681
27377SOL    HW283965   7.235   5.334  10.544
27378SOL     OW83966  13.242  14.417  10.440
27378SOL    HW183967  13.258  14.490  10.501
27378SOL    HW283968  13.310  14.426  10.374
27379SOL     OW83969  13.889   8.834   0.896
27379SOL    HW183970  13.798   8.862   0.906
27379SOL    HW283971  13.910   8.852   0.804
27380SOL     OW83972  12.945   6.376   5.616
27380SOL    HW183973  12.849   6.372   5.610
27380SOL    HW283974  12.975   6.342   5.531
27381SOL     OW83975  12.116   5.162   0.819
27381SOL    HW183976  12.167   5.195   0.893
27381SOL    HW283977  12.054   5.101   0.858
27382SOL     OW83978   5.154  13.890  11.420
27382SOL    HW183979   5.067  13.855  11.441
27382SOL    HW283980   5.137  13.976  11.383
27383SOL     OW83981  14.593   4.519   2.396
27383SOL    HW183982  14.645   4.550   2.470
27383SOL    HW283983  14.552   4.597   2.360
27384SOL     OW83984   8.136   4.535   9.414
27384SOL    HW183985   8.172   4.455   9.376
27384SOL    HW283986   8.048   4.543   9.376
27385SOL     OW83987   0.074   4.809   9.922
27385SOL    HW183988   0.160   4.777   9.949
27385SOL    HW283989   0.041   4.857   9.998
27386SOL     OW83990   3.391  11.949   9.859
27386SOL    HW183991   3.452  11.910   9.921
27386SOL    HW283992   3.439  11.951   9.776
27387SOL     OW83993  14.003   9.244   9.735
27387SOL    HW183994  14.072   9.259   9.799
27387SOL    HW283995  14.045   9.198   9.663
27388SOL     OW83996  14.739   4.034   2.533
27388SOL    HW183997  14.802   4.058   2.601
27388SOL    HW283998  14.784   3.965   2.483
27389SOL     OW83999   5.682   6.716   0.231
27389SOL    HW184000   5.691   6.807   0.259
27389SOL    HW284001   5.733   6.666   0.295
27390SOL     OW84002   2.967   0.427   0.427
27390SOL    HW184003   2.910   0.478   0.484
27390SOL    HW284004   2.924   0.428   0.342
27391SOL     OW84005   6.954  11.387   6.303
27391SOL    HW184006   6.975  11.477   6.327
27391SOL    HW284007   6.973  11.336   6.381
27392SOL     OW84008   8.284  12.553   9.344
27392SOL    HW184009   8.217  12.509   9.290
27392SOL    HW284010   8.259  12.645   9.342
27393SOL     OW84011  10.011   8.409   1.131
27393SOL    HW184012   9.982   8.477   1.071
27393SOL    HW284013  10.026   8.454   1.214
27394SOL     OW84014   3.928   4.170  12.038
27394SOL    HW184015   4.006   4.150  12.090
27394SOL    HW284016   3.905   4.086  11.997
27395SOL     OW84017   6.393  11.250  10.484
27395SOL    HW184018   6.383  11.295  10.567
27395SOL    HW284019   6.381  11.318  10.418
27396SOL     OW84020   5.053   0.320   1.669
27396SOL    HW184021   5.009   0.323   1.754
27396SOL    HW284022   5.103   0.238   1.671
27397SOL     OW84023  13.209  11.679  12.606
27397SOL    HW184024  13.154  11.693  12.683
27397SOL    HW284025  13.298  11.700  12.635
27398SOL     OW84026  12.219  10.776   2.256
27398SOL    HW184027  12.171  10.859   2.257
27398SOL    HW284028  12.292  10.791   2.197
27399SOL     OW84029  11.342   1.809  13.875
27399SOL    HW184030  11.252   1.839  13.891
27399SOL    HW284031  11.337   1.759  13.794
27400SOL     OW84032   8.113   3.649   3.405
27400SOL    HW184033   8.113   3.722   3.343
27400SOL    HW284034   8.036   3.663   3.459
27401SOL     OW84035  14.667   7.067   3.527
27401SOL    HW184036  14.646   7.159   3.540
27401SOL    HW284037  14.584   7.021   3.538
27402SOL     OW84038   7.575   8.792   2.933
27402SOL    HW184039   7.481   8.804   2.921
27402SOL    HW284040   7.583   8.754   3.020
27403SOL     OW84041  14.391   3.712   4.779
27403SOL    HW184042  14.463   3.692   4.839
27403SOL    HW284043  14.337   3.633   4.780
27404SOL     OW84044  10.927   6.313   5.964
27404SOL    HW184045  10.894   6.402   5.975
27404SOL    HW284046  10.974   6.295   6.045
27405SOL     OW84047  14.121   3.015   0.147
27405SOL    HW184048  14.115   2.950   0.077
27405SOL    HW284049  14.082   2.972   0.223
27406SOL     OW84050   2.749   7.327   9.851
27406SOL    HW184051   2.692   7.321   9.775
27406SOL    HW284052   2.748   7.419   9.875
27407SOL     OW84053   8.015   4.957   5.129
27407SOL    HW184054   7.975   4.952   5.215
27407SOL    HW284055   8.100   4.998   5.144
27408SOL     OW84056   6.056  13.715  12.265
27408SOL    HW184057   5.989  13.765  12.310
27408SOL    HW284058   6.127  13.777  12.250
27409SOL     OW84059   7.538   6.835   2.157
27409SOL    HW184060   7.565   6.756   2.110
27409SOL    HW284061   7.604   6.900   2.136
27410SOL     OW84062  12.571  13.270   1.944
27410SOL    HW184063  12.625  13.230   2.011
27410SOL    HW284064  12.484  13.274   1.983
27411SOL     OW84065   9.188   6.357   1.365
27411SOL    HW184066   9.243   6.312   1.430
27411SOL    HW284067   9.200   6.305   1.285
27412SOL     OW84068   2.239   0.666   6.407
27412SOL    HW184069   2.238   0.572   6.427
27412SOL    HW284070   2.290   0.673   6.326
27413SOL     OW84071   9.152   5.822   0.632
27413SOL    HW184072   9.158   5.904   0.680
27413SOL    HW284073   9.134   5.756   0.699
27414SOL     OW84074  11.235   6.458  10.376
27414SOL    HW184075  11.182   6.405  10.436
27414SOL    HW284076  11.185   6.458  10.295
27415SOL     OW84077   2.362   5.770  11.472
27415SOL    HW184078   2.416   5.837  11.431
27415SOL    HW284079   2.390   5.768  11.563
27416SOL     OW84080  11.813  13.797   0.905
27416SOL    HW184081  11.750  13.865   0.930
27416SOL    HW284082  11.782  13.767   0.819
27417SOL     OW84083   7.423  14.482   8.913
27417SOL    HW184084   7.452  14.474   9.004
27417SOL    HW284085   7.390  14.571   8.906
27418SOL     OW84086   2.833  13.778   1.326
27418SOL    HW184087   2.748  13.763   1.284
27418SOL    HW284088   2.894  13.792   1.253
27419SOL     OW84089  11.921  11.824  10.928
27419SOL    HW184090  11.878  11.778  10.856
27419SOL    HW284091  11.918  11.763  11.001
27420SOL     OW84092  10.413   5.071   7.976
27420SOL    HW184093  10.436   5.146   8.031
27420SOL    HW284094  10.445   4.995   8.024
27421SOL     OW84095   4.815   9.142   6.823
27421SOL    HW184096   4.752   9.195   6.873
27421SOL    HW284097   4.779   9.053   6.826
27422SOL     OW84098  12.041  12.835   1.934
27422SOL    HW184099  12.129  12.872   1.937
27422SOL    HW284100  12.044  12.771   1.863
27423SOL     OW84101  12.453  12.361  13.363
27423SOL    HW184102  12.398  12.304  13.416
27423SOL    HW284103  12.539  12.320  13.364
27424SOL     OW84104  11.211   8.415  11.299
27424SOL    HW184105  11.300   8.381  11.306
27424SOL    HW284106  11.156   8.338  11.303
27425SOL     OW84107   1.960   0.338   5.356
27425SOL    HW184108   1.864   0.331   5.353
27425SOL    HW284109   1.984   0.376   5.272
27426SOL     OW84110  11.629   2.982  13.646
27426SOL    HW184111  11.664   3.022  13.726
27426SOL    HW284112  11.583   2.904  13.676
27427SOL     OW84113   3.948   0.832  11.520
27427SOL    HW184114   3.886   0.812  11.450
27427SOL    HW284115   3.927   0.922  11.546
27428SOL     OW84116  12.972   1.650   7.572
27428SOL    HW184117  12.889   1.680   7.609
27428SOL    HW284118  13.017   1.730   7.545
27429SOL     OW84119   1.774   1.431   7.653
27429SOL    HW184120   1.698   1.459   7.601
27429SOL    HW284121   1.846   1.486   7.620
27430SOL     OW84122  14.572  11.466   1.606
27430SOL    HW184123  14.522  11.524   1.664
27430SOL    HW284124  14.563  11.506   1.520
27431SOL     OW84125  10.106   0.222   1.715
27431SOL    HW184126  10.074   0.248   1.628
27431SOL    HW284127  10.178   0.283   1.733
27432SOL     OW84128   6.224   4.009   0.561
27432SOL    HW184129   6.151   4.047   0.512
27432SOL    HW284130   6.203   4.027   0.652
27433SOL     OW84131   5.852   5.289  11.616
27433SOL    HW184132   5.856   5.349  11.690
27433SOL    HW284133   5.855   5.202  11.655
27434SOL     OW84134   8.077   1.757  13.157
27434SOL    HW184135   8.141   1.686  13.161
27434SOL    HW284136   8.127   1.836  13.180
27435SOL     OW84137  14.828  10.366   4.125
27435SOL    HW184138  14.827  10.460   4.142
27435SOL    HW284139  14.878  10.357   4.043
27436SOL     OW84140  13.237   3.762   0.317
27436SOL    HW184141  13.243   3.672   0.285
27436SOL    HW284142  13.266   3.757   0.408
27437SOL     OW84143   3.837   1.462   3.849
27437SOL    HW184144   3.821   1.492   3.760
27437SOL    HW284145   3.880   1.535   3.893
27438SOL     OW84146   8.331   2.355   2.078
27438SOL    HW184147   8.280   2.276   2.096
27438SOL    HW284148   8.405   2.324   2.026
27439SOL     OW84149   5.151  12.434   9.008
27439SOL    HW184150   5.072  12.428   8.955
27439SOL    HW284151   5.182  12.344   9.014
27440SOL     OW84152   5.994   3.282   6.212
27440SOL    HW184153   5.907   3.243   6.218
27440SOL    HW284154   5.991   3.332   6.130
27441SOL     OW84155   5.199  14.087   1.337
27441SOL    HW184156   5.115  14.075   1.292
27441SOL    HW284157   5.242  14.002   1.329
27442SOL     OW84158   6.153   8.039   1.293
27442SOL    HW184159   6.202   8.118   1.318
27442SOL    HW284160   6.064   8.057   1.322
27443SOL     OW84161   4.625   8.524   2.684
27443SOL    HW184162   4.613   8.448   2.627
27443SOL    HW284163   4.667   8.490   2.763
27444SOL     OW84164   1.740  14.838   0.191
27444SOL    HW184165   1.754   0.030   0.254
27444SOL    HW284166   1.656  14.801   0.217
27445SOL     OW84167   2.730   7.801  13.072
27445SOL    HW184168   2.718   7.706  13.071
27445SOL    HW284169   2.809   7.816  13.020
27446SOL     OW84170   6.366  10.235   9.951
27446SOL    HW184171   6.461  10.218   9.956
27446SOL    HW284172   6.334  10.215  10.039
27447SOL     OW84173   2.296  12.673   9.483
27447SOL    HW184174   2.368  12.694   9.543
27447SOL    HW284175   2.261  12.590   9.515
27448SOL     OW84176   9.504   2.342   0.173
27448SOL    HW184177   9.412   2.341   0.147
27448SOL    HW284178   9.529   2.434   0.169
27449SOL     OW84179   4.158   2.275   5.827
27449SOL    HW184180   4.190   2.365   5.829
27449SOL    HW284181   4.069   2.281   5.862
27450SOL     OW84182   1.440   6.338  14.630
27450SOL    HW184183   1.450   6.243  14.640
27450SOL    HW284184   1.399   6.349  14.544
27451SOL     OW84185   6.010   1.189   7.723
27451SOL    HW184186   6.059   1.140   7.789
27451SOL    HW284187   5.931   1.218   7.768
27452SOL     OW84188  14.052  12.229  11.657
27452SOL    HW184189  14.144  12.219  11.684
27452SOL    HW284190  14.002  12.220  11.738
27453SOL     OW84191   5.146  14.057  13.146
27453SOL    HW184192   5.079  13.994  13.174
27453SOL    HW284193   5.097  14.137  13.127
27454SOL     OW84194  12.885  14.344   3.983
27454SOL    HW184195  12.960  14.307   4.030
27454SOL    HW284196  12.923  14.413   3.928
27455SOL     OW84197   7.353  11.034  13.265
27455SOL    HW184198   7.400  11.110  13.299
27455SOL    HW284199   7.300  11.004  13.339
27456SOL     OW84200   5.919   6.991   7.248
27456SOL    HW184201   5.856   6.945   7.304
27456SOL    HW284202   5.885   6.980   7.159
27457SOL     OW84203  14.450   0.977   6.557
27457SOL    HW184204  14.393   0.902   6.572
27457SOL    HW284205  14.539   0.943   6.567
27458SOL     OW84206  13.697   8.775  12.880
27458SOL    HW184207  13.689   8.682  12.858
27458SOL    HW284208  13.682   8.821  12.798
27459SOL     OW84209   2.367   6.123  14.219
27459SOL    HW184210   2.380   6.087  14.131
27459SOL    HW284211   2.456   6.140  14.251
27460SOL     OW84212   6.854   1.451  11.152
27460SOL    HW184213   6.830   1.360  11.138
27460SOL    HW284214   6.778   1.490  11.194
27461SOL     OW84215   7.712  10.445  11.335
27461SOL    HW184216   7.686  10.355  11.353
27461SOL    HW284217   7.736  10.481  11.421
27462SOL     OW84218   3.891   0.238   3.149
27462SOL    HW184219   3.803   0.200   3.151
27462SOL    HW284220   3.944   0.179   3.202
27463SOL     OW84221  14.709   8.402   1.613
27463SOL    HW184222  14.687   8.375   1.702
27463SOL    HW284223  14.788   8.352   1.592
27464SOL     OW84224  14.690   8.191   9.116
27464SOL    HW184225  14.736   8.275   9.117
27464SOL    HW284226  14.694   8.160   9.206
27465SOL     OW84227  10.518  14.479  12.123
27465SOL    HW184228  10.541  14.569  12.143
27465SOL    HW284229  10.557  14.462  12.037
27466SOL     OW84230  13.939  14.377   1.255
27466SOL    HW184231  13.987  14.433   1.316
27466SOL    HW284232  13.947  14.421   1.170
27467SOL     OW84233  12.730   9.885   9.130
27467SOL    HW184234  12.742   9.797   9.094
27467SOL    HW284235  12.644   9.882   9.172
27468SOL     OW84236   3.410   9.466   8.503
27468SOL    HW184237   3.419   9.548   8.551
27468SOL    HW284238   3.349   9.414   8.555
27469SOL     OW84239   5.092   9.851   8.817
27469SOL    HW184240   5.162   9.787   8.803
27469SOL    HW284241   5.131   9.935   8.792
27470SOL     OW84242   5.720   5.676   0.401
27470SOL    HW184243   5.653   5.744   0.405
27470SOL    HW284244   5.707   5.634   0.316
27471SOL     OW84245   9.428   0.784  13.559
27471SOL    HW184246   9.491   0.803  13.629
27471SOL    HW284247   9.353   0.840  13.579
27472SOL     OW84248  10.629   7.128   8.265
27472SOL    HW184249  10.610   7.215   8.230
27472SOL    HW284250  10.560   7.112   8.330
27473SOL     OW84251   9.435  11.657  13.016
27473SOL    HW184252   9.507  11.606  13.054
27473SOL    HW284253   9.441  11.640  12.922
27474SOL     OW84254   3.526   7.637   2.705
27474SOL    HW184255   3.573   7.580   2.765
27474SOL    HW284256   3.590   7.660   2.638
27475SOL     OW84257   0.518  12.835  12.189
27475SOL    HW184258   0.508  12.798  12.101
27475SOL    HW284259   0.570  12.770  12.236
27476SOL     OW84260   0.801  10.007  10.333
27476SOL    HW184261   0.845  10.079  10.377
27476SOL    HW284262   0.830   9.929  10.379
27477SOL     OW84263   6.248   7.544   8.010
27477SOL    HW184264   6.266   7.520   8.101
27477SOL    HW284265   6.332   7.576   7.977
27478SOL     OW84266   1.027  14.372   0.673
27478SOL    HW184267   1.016  14.391   0.580
27478SOL    HW284268   0.956  14.311   0.694
27479SOL     OW84269   2.995   2.925   1.388
27479SOL    HW184270   3.067   2.924   1.325
27479SOL    HW284271   3.017   2.996   1.449
27480SOL     OW84272   1.872   0.662   4.213
27480SOL    HW184273   1.898   0.754   4.204
27480SOL    HW284274   1.783   0.659   4.179
27481SOL     OW84275   7.405  14.401  10.620
27481SOL    HW184276   7.484  14.415  10.569
27481SOL    HW284277   7.350  14.347  10.563
27482SOL     OW84278   6.761   0.829   1.508
27482SOL    HW184279   6.722   0.891   1.570
27482SOL    HW284280   6.829   0.785   1.558
27483SOL     OW84281   3.465   8.792  12.000
27483SOL    HW184282   3.457   8.838  12.083
27483SOL    HW284283   3.456   8.860  11.934
27484SOL     OW84284  12.731  13.386   1.621
27484SOL    HW184285  12.761  13.348   1.538
27484SOL    HW284286  12.793  13.456   1.638
27485SOL     OW84287   2.514   0.897  12.381
27485SOL    HW184288   2.482   0.954  12.312
27485SOL    HW284289   2.510   0.951  12.460
27486SOL     OW84290  10.449   9.508  12.452
27486SOL    HW184291  10.436   9.438  12.515
27486SOL    HW284292  10.415   9.473  12.370
27487SOL     OW84293   5.383  10.607   3.278
27487SOL    HW184294   5.450  10.672   3.257
27487SOL    HW284295   5.388  10.544   3.206
27488SOL     OW84296   1.201   7.945   5.483
27488SOL    HW184297   1.234   7.861   5.513
27488SOL    HW284298   1.138   7.923   5.414
27489SOL     OW84299   2.224   2.940   8.004
27489SOL    HW184300   2.186   2.869   7.950
27489SOL    HW284301   2.272   2.894   8.073
27490SOL     OW84302   7.628   0.601   2.127
27490SOL    HW184303   7.542   0.609   2.170
27490SOL    HW284304   7.690   0.632   2.193
27491SOL     OW84305   0.028   4.521   3.065
27491SOL    HW184306   0.040   4.442   3.117
27491SOL    HW284307  14.820   4.511   3.025
27492SOL     OW84308  14.692   1.300  10.432
27492SOL    HW184309  14.762   1.263  10.379
27492SOL    HW284310  14.627   1.230  10.439
27493SOL     OW84311   9.058   3.858   7.467
27493SOL    HW184312   9.104   3.909   7.401
27493SOL    HW284313   8.989   3.916   7.499
27494SOL     OW84314  13.196   9.444  14.281
27494SOL    HW184315  13.127   9.488  14.331
27494SOL    HW284316  13.197   9.491  14.197
27495SOL     OW84317  12.176   0.307   6.901
27495SOL    HW184318  12.123   0.356   6.838
27495SOL    HW284319  12.199   0.372   6.968
27496SOL     OW84320   2.488   5.872   6.897
27496SOL    HW184321   2.426   5.806   6.928
27496SOL    HW284322   2.553   5.879   6.967
27497SOL     OW84323   1.285   1.346  12.543
27497SOL    HW184324   1.329   1.375  12.463
27497SOL    HW284325   1.280   1.251  12.534
27498SOL     OW84326   1.350   7.301   6.005
27498SOL    HW184327   1.261   7.327   5.982
27498SOL    HW284328   1.348   7.205   6.004
27499SOL     OW84329  13.009   0.886   1.314
27499SOL    HW184330  12.913   0.888   1.306
27499SOL    HW284331  13.037   0.827   1.244
27500SOL     OW84332   1.954   5.414  10.742
27500SOL    HW184333   1.997   5.339  10.783
27500SOL    HW284334   1.999   5.424  10.658
27501SOL     OW84335   2.718   5.200  13.438
27501SOL    HW184336   2.670   5.144  13.499
27501SOL    HW284337   2.734   5.145  13.361
27502SOL     OW84338   0.607  13.236   6.973
27502SOL    HW184339   0.524  13.199   7.003
27502SOL    HW284340   0.640  13.174   6.909
27503SOL     OW84341   7.467   9.891   1.229
27503SOL    HW184342   7.517   9.965   1.263
27503SOL    HW284343   7.376   9.913   1.247
27504SOL     OW84344   5.674  12.598   2.122
27504SOL    HW184345   5.754  12.561   2.158
27504SOL    HW284346   5.607  12.582   2.189
27505SOL     OW84347   6.691  13.460   8.095
27505SOL    HW184348   6.777  13.484   8.130
27505SOL    HW284349   6.653  13.404   8.163
27506SOL     OW84350   9.446   7.029   6.887
27506SOL    HW184351   9.446   6.937   6.913
27506SOL    HW284352   9.467   7.028   6.794
27507SOL     OW84353   4.315   9.351   6.522
27507SOL    HW184354   4.253   9.395   6.581
27507SOL    HW284355   4.277   9.361   6.435
27508SOL     OW84356   4.843  12.297   3.602
27508SOL    HW184357   4.916  12.359   3.610
27508SOL    HW284358   4.871  12.221   3.653
27509SOL     OW84359   0.835   8.250   5.013
27509SOL    HW184360   0.811   8.157   5.006
27509SOL    HW284361   0.916   8.257   4.964
27510SOL     OW84362   2.871   7.072   2.434
27510SOL    HW184363   2.780   7.054   2.410
27510SOL    HW284364   2.920   7.067   2.352
27511SOL     OW84365   2.329   7.740   4.760
27511SOL    HW184366   2.252   7.735   4.703
27511SOL    HW284367   2.308   7.685   4.835
27512SOL     OW84368   1.627   7.385   5.360
27512SOL    HW184369   1.684   7.462   5.359
27512SOL    HW284370   1.594   7.377   5.271
27513SOL     OW84371   0.459   8.076  14.843
27513SOL    HW184372   0.394   8.069  14.773
27513SOL    HW284373   0.408   8.095   0.043
27514SOL     OW84374   5.159  13.387   6.035
27514SOL    HW184375   5.250  13.372   6.059
27514SOL    HW284376   5.161  13.460   5.973
27515SOL     OW84377   6.583  13.500  11.761
27515SOL    HW184378   6.639  13.549  11.821
27515SOL    HW284379   6.551  13.566  11.699
27516SOL     OW84380   2.607   2.704   6.244
27516SOL    HW184381   2.649   2.632   6.291
27516SOL    HW284382   2.578   2.764   6.313
27517SOL     OW84383   1.033   2.849  12.152
27517SOL    HW184384   1.121   2.820  12.172
27517SOL    HW284385   0.976   2.792  12.204
27518SOL     OW84386  14.812  10.150   3.169
27518SOL    HW184387  14.783  10.096   3.096
27518SOL    HW284388   0.022  10.178   3.145
27519SOL     OW84389  10.528  11.409   5.206
27519SOL    HW184390  10.570  11.387   5.123
27519SOL    HW284391  10.470  11.335   5.224
27520SOL     OW84392  10.096   9.306  12.432
27520SOL    HW184393  10.045   9.233  12.398
27520SOL    HW284394  10.166   9.317  12.368
27521SOL     OW84395   7.224  14.427   6.547
27521SOL    HW184396   7.311  14.401   6.574
27521SOL    HW284397   7.216  14.518   6.576
27522SOL     OW84398  14.650  12.141   8.743
27522SOL    HW184399  14.694  12.087   8.809
27522SOL    HW284400  14.720  12.186   8.697
27523SOL     OW84401  14.519   8.812   8.981
27523SOL    HW184402  14.513   8.721   9.011
27523SOL    HW284403  14.449   8.822   8.918
27524SOL     OW84404  11.366  13.020   7.707
27524SOL    HW184405  11.369  13.021   7.802
27524SOL    HW284406  11.454  13.048   7.680
27525SOL     OW84407  12.865   9.538   7.153
27525SOL    HW184408  12.776   9.556   7.184
27525SOL    HW284409  12.886   9.453   7.192
27526SOL     OW84410   2.157   9.364   2.884
27526SOL    HW184411   2.103   9.438   2.856
27526SOL    HW284412   2.220   9.352   2.813
27527SOL     OW84413   4.526   8.942  10.582
27527SOL    HW184414   4.602   8.909  10.631
27527SOL    HW284415   4.454   8.884  10.608
27528SOL     OW84416  11.242   5.879  14.235
27528SOL    HW184417  11.260   5.874  14.328
27528SOL    HW284418  11.149   5.904  14.229
27529SOL     OW84419  10.024   5.032  11.983
27529SOL    HW184420   9.966   5.060  12.054
27529SOL    HW284421   9.969   4.979  11.926
27530SOL     OW84422   0.563   1.241   0.871
27530SOL    HW184423   0.484   1.203   0.833
27530SOL    HW284424   0.624   1.168   0.879
27531SOL     OW84425  11.719   8.142  13.355
27531SOL    HW184426  11.786   8.209  13.336
27531SOL    HW284427  11.762   8.082  13.415
27532SOL     OW84428  13.960   0.379  12.866
27532SOL    HW184429  13.898   0.417  12.804
27532SOL    HW284430  14.029   0.341  12.812
27533SOL     OW84431   9.384   9.061   2.759
27533SOL    HW184432   9.376   9.156   2.744
27533SOL    HW284433   9.294   9.029   2.752
27534SOL     OW84434  13.237  14.384   9.897
27534SOL    HW184435  13.246  14.361   9.805
27534SOL    HW284436  13.303  14.330   9.942
27535SOL     OW84437   0.815   1.849   9.341
27535SOL    HW184438   0.800   1.889   9.427
27535SOL    HW284439   0.730   1.856   9.297
27536SOL     OW84440   6.179  12.118   2.458
27536SOL    HW184441   6.132  12.181   2.512
27536SOL    HW284442   6.110  12.061   2.423
27537SOL     OW84443  14.039   1.490   4.324
27537SOL    HW184444  14.090   1.409   4.334
27537SOL    HW284445  14.098   1.559   4.354
27538SOL     OW84446   5.439   9.123  13.702
27538SOL    HW184447   5.347   9.099  13.689
27538SOL    HW284448   5.481   9.103  13.618
27539SOL     OW84449  13.704   0.215   9.894
27539SOL    HW184450  13.757   0.261   9.828
27539SOL    HW284451  13.649   0.283   9.932
27540SOL     OW84452   0.481   3.107  12.283
27540SOL    HW184453   0.532   3.032  12.313
27540SOL    HW284454   0.405   3.069  12.239
27541SOL     OW84455   8.500  14.804  12.569
27541SOL    HW184456   8.578  14.791  12.514
27541SOL    HW284457   8.471   0.014  12.546
27542SOL     OW84458   5.601  14.568   3.428
27542SOL    HW184459   5.598  14.592   3.335
27542SOL    HW284460   5.665  14.628   3.466
27543SOL     OW84461   5.872   0.063  14.319
27543SOL    HW184462   5.820   0.119  14.377
27543SOL    HW284463   5.936   0.122  14.279
27544SOL     OW84464   5.963   8.972  12.247
27544SOL    HW184465   6.028   9.035  12.217
27544SOL    HW284466   5.992   8.888  12.211
27545SOL     OW84467   1.092   5.444  14.203
27545SOL    HW184468   1.097   5.493  14.122
27545SOL    HW284469   1.180   5.450  14.241
27546SOL     OW84470   0.914   9.088   7.669
27546SOL    HW184471   0.982   9.116   7.730
27546SOL    HW284472   0.875   9.169   7.637
27547SOL     OW84473  11.145   5.759   0.898
27547SOL    HW184474  11.205   5.735   0.827
27547SOL    HW284475  11.060   5.723   0.870
27548SOL     OW84476  10.424  13.608   6.917
27548SOL    HW184477  10.339  13.630   6.957
27548SOL    HW284478  10.444  13.682   6.861
27549SOL     OW84479  12.691  13.961  10.523
27549SOL    HW184480  12.735  13.879  10.544
27549SOL    HW284481  12.679  14.004  10.607
27550SOL     OW84482   9.089   7.680   0.224
27550SOL    HW184483   9.005   7.727   0.224
27550SOL    HW284484   9.090   7.634   0.140
27551SOL     OW84485   2.048  11.794  13.250
27551SOL    HW184486   2.025  11.755  13.334
27551SOL    HW284487   2.115  11.737  13.214
27552SOL     OW84488  11.616   7.145  12.019
27552SOL    HW184489  11.695   7.181  11.977
27552SOL    HW284490  11.642   7.058  12.048
27553SOL     OW84491   9.516   2.157  12.097
27553SOL    HW184492   9.459   2.080  12.089
27553SOL    HW284493   9.584   2.129  12.158
27554SOL     OW84494  10.231  10.107   2.159
27554SOL    HW184495  10.314  10.096   2.113
27554SOL    HW284496  10.231  10.199   2.188
27555SOL     OW84497   1.793   9.092   9.101
27555SOL    HW184498   1.708   9.104   9.057
27555SOL    HW284499   1.858   9.116   9.035
27556SOL     OW84500  11.761   9.752   0.307
27556SOL    HW184501  11.716   9.668   0.296
27556SOL    HW284502  11.789   9.776   0.218
27557SOL     OW84503   1.468   7.669   4.423
27557SOL    HW184504   1.544   7.706   4.469
27557SOL    HW284505   1.402   7.658   4.492
27558SOL     OW84506   4.081   8.572   4.879
27558SOL    HW184507   4.082   8.597   4.971
27558SOL    HW284508   4.033   8.489   4.878
27559SOL     OW84509   8.460   5.436   9.836
27559SOL    HW184510   8.423   5.417   9.749
27559SOL    HW284511   8.400   5.500   9.873
27560SOL     OW84512   9.640  11.364  12.555
27560SOL    HW184513   9.683  11.352  12.471
27560SOL    HW284514   9.678  11.444  12.592
27561SOL     OW84515   1.006   3.898   6.539
27561SOL    HW184516   1.098   3.901   6.513
27561SOL    HW284517   0.976   3.810   6.516
27562SOL     OW84518  10.284   0.880   7.564
27562SOL    HW184519  10.328   0.894   7.480
27562SOL    HW284520  10.348   0.833   7.617
27563SOL     OW84521   7.278  12.444   5.832
27563SOL    HW184522   7.370  12.445   5.807
27563SOL    HW284523   7.252  12.352   5.822
27564SOL     OW84524   0.956   8.066   8.679
27564SOL    HW184525   1.016   8.130   8.640
27564SOL    HW284526   0.944   7.999   8.611
27565SOL     OW84527   7.267   2.029   0.001
27565SOL    HW184528   7.270   2.119   0.032
27565SOL    HW284529   7.355   2.012  14.846
27566SOL     OW84530   5.033   6.669   2.239
27566SOL    HW184531   4.964   6.645   2.176
27566SOL    HW284532   5.113   6.674   2.186
27567SOL     OW84533  10.008   8.305  13.915
27567SOL    HW184534   9.977   8.224  13.956
27567SOL    HW284535  10.053   8.277  13.836
27568SOL     OW84536  12.768   6.591  13.772
27568SOL    HW184537  12.700   6.632  13.826
27568SOL    HW284538  12.789   6.510  13.818
27569SOL     OW84539   8.441   3.124   5.928
27569SOL    HW184540   8.524   3.144   5.885
27569SOL    HW284541   8.454   3.036   5.964
27570SOL     OW84542   8.017   5.872   7.000
27570SOL    HW184543   8.032   5.811   7.073
27570SOL    HW284544   7.967   5.944   7.038
27571SOL     OW84545   4.072  10.011   5.595
27571SOL    HW184546   4.167  10.004   5.607
27571SOL    HW284547   4.063  10.045   5.506
27572SOL     OW84548   8.782   3.877   5.371
27572SOL    HW184549   8.790   3.789   5.406
27572SOL    HW284550   8.711   3.916   5.421
27573SOL     OW84551   8.116   7.532  12.610
27573SOL    HW184552   8.067   7.606  12.647
27573SOL    HW284553   8.190   7.521  12.670
27574SOL     OW84554  14.152   2.664   0.015
27574SOL    HW184555  14.166   2.576   0.049
27574SOL    HW284556  14.238   2.705   0.018
27575SOL     OW84557   6.855   7.930   9.420
27575SOL    HW184558   6.879   7.854   9.367
27575SOL    HW284559   6.770   7.958   9.387
27576SOL     OW84560  14.341   3.031   3.923
27576SOL    HW184561  14.249   3.007   3.914
27576SOL    HW284562  14.363   3.008   4.014
27577SOL     OW84563   2.249   3.735   6.001
27577SOL    HW184564   2.265   3.829   6.002
27577SOL    HW284565   2.166   3.724   5.956
27578SOL     OW84566   3.397  14.258   4.866
27578SOL    HW184567   3.380  14.213   4.948
27578SOL    HW284568   3.487  14.234   4.843
27579SOL     OW84569   2.398   0.002   5.374
27579SOL    HW184570   2.321   0.047   5.409
27579SOL    HW284571   2.380  14.788   5.390
27580SOL     OW84572   9.145  14.597   1.318
27580SOL    HW184573   9.096  14.539   1.259
27580SOL    HW284574   9.113  14.685   1.298
27581SOL     OW84575   7.906   2.464   0.538
27581SOL    HW184576   7.926   2.497   0.626
27581SOL    HW284577   7.890   2.370   0.551
27582SOL     OW84578   1.639   7.355  13.335
27582SOL    HW184579   1.731   7.331  13.343
27582SOL    HW284580   1.592   7.273  13.350
27583SOL     OW84581   2.210   2.419   9.018
27583SOL    HW184582   2.160   2.354   8.969
27583SOL    HW284583   2.145   2.459   9.077
27584SOL     OW84584   0.500   5.946   9.017
27584SOL    HW184585   0.525   5.904   9.099
27584SOL    HW284586   0.429   5.891   8.983
27585SOL     OW84587   0.910  12.309  10.737
27585SOL    HW184588   0.817  12.330  10.735
27585SOL    HW284589   0.934  12.295  10.646
27586SOL     OW84590   6.252   0.274   4.005
27586SOL    HW184591   6.176   0.256   4.059
27586SOL    HW284592   6.246   0.211   3.933
27587SOL     OW84593   5.869   4.540   5.848
27587SOL    HW184594   5.862   4.630   5.879
27587SOL    HW284595   5.907   4.548   5.760
27588SOL     OW84596  10.465   2.981   6.192
27588SOL    HW184597  10.390   2.932   6.224
27588SOL    HW284598  10.536   2.917   6.189
27589SOL     OW84599  10.217   3.582   4.547
27589SOL    HW184600  10.203   3.596   4.453
27589SOL    HW284601  10.221   3.670   4.584
27590SOL     OW84602  13.509   6.704   4.874
27590SOL    HW184603  13.437   6.758   4.840
27590SOL    HW284604  13.466   6.625   4.908
27591SOL     OW84605  10.097  12.660   3.790
27591SOL    HW184606  10.033  12.665   3.719
27591SOL    HW284607  10.162  12.728   3.769
27592SOL     OW84608   5.280  10.995   5.208
27592SOL    HW184609   5.367  10.993   5.248
27592SOL    HW284610   5.244  11.080   5.234
27593SOL     OW84611   9.760  12.600   6.169
27593SOL    HW184612   9.835  12.624   6.115
27593SOL    HW284613   9.785  12.516   6.208
27594SOL     OW84614   5.997   0.591   4.285
27594SOL    HW184615   6.084   0.586   4.324
27594SOL    HW284616   5.942   0.537   4.342
27595SOL     OW84617   8.962   3.856   0.161
27595SOL    HW184618   8.984   3.829   0.072
27595SOL    HW284619   9.032   3.915   0.186
27596SOL     OW84620   0.449  14.624   8.892
27596SOL    HW184621   0.400  14.555   8.935
27596SOL    HW284622   0.536  14.620   8.931
27597SOL     OW84623  10.544   9.944  12.626
27597SOL    HW184624  10.459   9.900  12.632
27597SOL    HW284625  10.595   9.906  12.697
27598SOL     OW84626  10.401   3.150   9.563
27598SOL    HW184627  10.416   3.233   9.609
27598SOL    HW284628  10.306   3.144   9.556
27599SOL     OW84629   7.647   7.639   0.182
27599SOL    HW184630   7.737   7.669   0.167
27599SOL    HW284631   7.646   7.608   0.272
27600SOL     OW84632   9.840  14.680  13.269
27600SOL    HW184633   9.907  14.744  13.294
27600SOL    HW284634   9.863  14.601  13.317
27601SOL     OW84635   4.018   3.024   6.970
27601SOL    HW184636   4.104   3.058   6.947
27601SOL    HW284637   4.036   2.943   7.018
27602SOL     OW84638   7.930  10.292  12.397
27602SOL    HW184639   7.970  10.206  12.406
27602SOL    HW284640   7.841  10.282  12.430
27603SOL     OW84641   3.661  12.135  12.767
27603SOL    HW184642   3.683  12.083  12.844
27603SOL    HW284643   3.695  12.222  12.786
27604SOL     OW84644  10.845   2.315  13.684
27604SOL    HW184645  10.899   2.393  13.698
27604SOL    HW284646  10.815   2.322  13.593
27605SOL     OW84647  13.135   0.413  10.008
27605SOL    HW184648  13.154   0.388  10.099
27605SOL    HW284649  13.045   0.383   9.993
27606SOL     OW84650   9.391   1.900   6.180
27606SOL    HW184651   9.444   1.836   6.132
27606SOL    HW284652   9.392   1.978   6.125
27607SOL     OW84653   9.597   9.817   5.787
27607SOL    HW184654   9.619   9.888   5.848
27607SOL    HW284655   9.682   9.789   5.751
27608SOL     OW84656   3.433   5.278  10.110
27608SOL    HW184657   3.420   5.309  10.020
27608SOL    HW284658   3.422   5.183  10.104
27609SOL     OW84659   8.462   2.063  13.876
27609SOL    HW184660   8.433   2.037  13.789
27609SOL    HW284661   8.395   2.028  13.935
27610SOL     OW84662  14.084  10.986  10.030
27610SOL    HW184663  14.096  10.892  10.041
27610SOL    HW284664  14.109  11.023  10.115
27611SOL     OW84665   9.759   8.181   7.121
27611SOL    HW184666   9.769   8.087   7.109
27611SOL    HW284667   9.711   8.190   7.203
27612SOL     OW84668  12.828  11.643   7.315
27612SOL    HW184669  12.840  11.581   7.388
27612SOL    HW284670  12.898  11.707   7.326
27613SOL     OW84671  11.556   7.749  12.246
27613SOL    HW184672  11.579   7.829  12.199
27613SOL    HW284673  11.463   7.735  12.226
27614SOL     OW84674  10.506  12.935   7.886
27614SOL    HW184675  10.534  12.972   7.803
27614SOL    HW284676  10.425  12.888   7.866
27615SOL     OW84677  10.143   5.256   4.732
27615SOL    HW184678  10.232   5.270   4.701
27615SOL    HW284679  10.093   5.327   4.691
27616SOL     OW84680  10.562   6.236  12.027
27616SOL    HW184681  10.562   6.157  12.082
27616SOL    HW284682  10.475   6.238  11.987
27617SOL     OW84683  11.986  14.487   1.868
27617SOL    HW184684  11.968  14.405   1.822
27617SOL    HW284685  12.046  14.535   1.810
27618SOL     OW84686   1.798   6.683   7.585
27618SOL    HW184687   1.825   6.671   7.494
27618SOL    HW284688   1.851   6.620   7.634
27619SOL     OW84689  14.517   1.264   1.472
27619SOL    HW184690  14.542   1.172   1.471
27619SOL    HW284691  14.586   1.308   1.422
27620SOL     OW84692   1.332   1.992  10.609
27620SOL    HW184693   1.315   2.086  10.624
27620SOL    HW284694   1.400   1.970  10.673
27621SOL     OW84695   3.496   0.719   8.897
27621SOL    HW184696   3.549   0.643   8.922
27621SOL    HW284697   3.529   0.743   8.811
27622SOL     OW84698   3.696   5.493  11.405
27622SOL    HW184699   3.617   5.459  11.448
27622SOL    HW284700   3.750   5.416  11.391
27623SOL     OW84701  14.061   1.869   2.980
27623SOL    HW184702  14.123   1.914   3.037
27623SOL    HW284703  14.090   1.778   2.980
27624SOL     OW84704  14.809   5.547   7.994
27624SOL    HW184705  14.763   5.488   7.935
27624SOL    HW284706  14.826   5.494   8.072
27625SOL     OW84707  11.007   1.938   5.152
27625SOL    HW184708  10.952   1.863   5.176
27625SOL    HW284709  11.010   1.992   5.231
27626SOL     OW84710  12.307   9.933   8.079
27626SOL    HW184711  12.226   9.882   8.086
27626SOL    HW284712  12.359   9.886   8.014
27627SOL     OW84713   9.686   8.586   3.259
27627SOL    HW184714   9.710   8.679   3.259
27627SOL    HW284715   9.606   8.583   3.313
27628SOL     OW84716  14.266  14.594  14.376
27628SOL    HW184717  14.346  14.554  14.342
27628SOL    HW284718  14.203  14.523  14.380
27629SOL     OW84719   8.975   1.355   5.167
27629SOL    HW184720   8.883   1.355   5.140
27629SOL    HW284721   9.002   1.446   5.160
27630SOL     OW84722  13.670  14.573   2.936
27630SOL    HW184723  13.621  14.514   2.879
27630SOL    HW284724  13.711  14.635   2.876
27631SOL     OW84725  12.542   7.050  14.541
27631SOL    HW184726  12.555   6.959  14.569
27631SOL    HW284727  12.627   7.091  14.551
27632SOL     OW84728   1.235   7.740  13.346
27632SOL    HW184729   1.243   7.682  13.270
27632SOL    HW284730   1.293   7.814  13.327
27633SOL     OW84731   0.226   7.817   0.228
27633SOL    HW184732   0.241   7.906   0.261
27633SOL    HW284733   0.149   7.786   0.276
27634SOL     OW84734   9.977  11.349   1.982
27634SOL    HW184735  10.049  11.302   1.940
27634SOL    HW284736   9.990  11.441   1.957
27635SOL     OW84737  11.918  13.245   1.114
27635SOL    HW184738  11.952  13.335   1.110
27635SOL    HW284739  11.947  13.212   1.198
27636SOL     OW84740   6.209  14.479   0.298
27636SOL    HW184741   6.130  14.426   0.289
27636SOL    HW284742   6.202  14.517   0.385
27637SOL     OW84743   0.133   3.604   0.983
27637SOL    HW184744   0.049   3.612   0.938
27637SOL    HW284745   0.120   3.646   1.068
27638SOL     OW84746  11.682   8.675  13.860
27638SOL    HW184747  11.640   8.733  13.796
27638SOL    HW284748  11.672   8.720  13.944
27639SOL     OW84749   4.646   8.897  12.914
27639SOL    HW184750   4.728   8.848  12.905
27639SOL    HW284751   4.651   8.936  13.002
27640SOL     OW84752  12.666   5.318  13.966
27640SOL    HW184753  12.598   5.254  13.950
27640SOL    HW284754  12.623   5.387  14.017
27641SOL     OW84755  10.587   5.368   2.215
27641SOL    HW184756  10.578   5.279   2.250
27641SOL    HW284757  10.661   5.362   2.154
27642SOL     OW84758   3.108   6.610   7.012
27642SOL    HW184759   3.132   6.699   7.037
27642SOL    HW284760   3.018   6.618   6.980
27643SOL     OW84761   3.032  11.175   8.276
27643SOL    HW184762   3.104  11.111   8.274
27643SOL    HW284763   2.981  11.151   8.354
27644SOL     OW84764   9.385  11.768   4.668
27644SOL    HW184765   9.394  11.683   4.711
27644SOL    HW284766   9.295  11.768   4.635
27645SOL     OW84767   6.144   7.702  14.420
27645SOL    HW184768   6.154   7.719  14.327
27645SOL    HW284769   6.227   7.731  14.459
27646SOL     OW84770   4.455   8.023   9.065
27646SOL    HW184771   4.446   7.965   9.141
27646SOL    HW284772   4.365   8.033   9.032
27647SOL     OW84773   7.938   8.397   0.449
27647SOL    HW184774   7.883   8.362   0.518
27647SOL    HW284775   7.934   8.331   0.379
27648SOL     OW84776  11.452   6.987   8.405
27648SOL    HW184777  11.485   6.960   8.491
27648SOL    HW284778  11.531   6.992   8.350
27649SOL     OW84779  13.459  13.062  13.786
27649SOL    HW184780  13.523  13.108  13.732
27649SOL    HW284781  13.484  13.085  13.876
27650SOL     OW84782  14.248   4.638   5.323
27650SOL    HW184783  14.252   4.711   5.385
27650SOL    HW284784  14.156   4.615   5.319
27651SOL     OW84785   0.102   6.843   3.986
27651SOL    HW184786   0.085   6.825   3.893
27651SOL    HW284787   0.090   6.938   3.993
27652SOL     OW84788   9.701   1.420  14.196
27652SOL    HW184789   9.734   1.399  14.109
27652SOL    HW284790   9.778   1.449  14.245
27653SOL     OW84791   5.381   0.431  14.753
27653SOL    HW184792   5.326   0.437  14.831
27653SOL    HW284793   5.390   0.337  14.738
27654SOL     OW84794   3.551  12.079  12.052
27654SOL    HW184795   3.460  12.058  12.071
27654SOL    HW284796   3.563  12.053  11.960
27655SOL     OW84797  13.612   8.463   0.825
27655SOL    HW184798  13.637   8.373   0.844
27655SOL    HW284799  13.639   8.477   0.734
27656SOL     OW84800  10.718   5.501  13.384
27656SOL    HW184801  10.793   5.514  13.325
27656SOL    HW284802  10.674   5.423  13.350
27657SOL     OW84803   2.367   8.537   1.741
27657SOL    HW184804   2.330   8.520   1.828
27657SOL    HW284805   2.459   8.553   1.757
27658SOL     OW84806   8.755  12.234  10.155
27658SOL    HW184807   8.823  12.196  10.211
27658SOL    HW284808   8.798  12.309  10.113
27659SOL     OW84809  13.111  10.833  11.893
27659SOL    HW184810  13.140  10.844  11.984
27659SOL    HW284811  13.096  10.738  11.884
27660SOL     OW84812  14.015   9.406   1.917
27660SOL    HW184813  14.056   9.467   1.978
27660SOL    HW284814  14.081   9.393   1.848
27661SOL     OW84815  11.512   3.442   1.987
27661SOL    HW184816  11.590   3.433   2.041
27661SOL    HW284817  11.506   3.535   1.968
27662SOL     OW84818   5.584   1.594  13.128
27662SOL    HW184819   5.628   1.539  13.063
27662SOL    HW284820   5.517   1.537  13.166
27663SOL     OW84821   2.190   3.805  13.293
27663SOL    HW184822   2.115   3.749  13.315
27663SOL    HW284823   2.152   3.893  13.286
27664SOL     OW84824   7.435  11.971   0.817
27664SOL    HW184825   7.449  12.057   0.777
27664SOL    HW284826   7.520  11.927   0.811
27665SOL     OW84827   4.350  13.018   6.492
27665SOL    HW184828   4.434  13.019   6.538
27665SOL    HW284829   4.315  12.930   6.508
27666SOL     OW84830  13.149  13.563   2.361
27666SOL    HW184831  13.066  13.611   2.366
27666SOL    HW284832  13.123  13.473   2.343
27667SOL     OW84833   7.114   7.796   1.274
27667SOL    HW184834   7.123   7.717   1.222
27667SOL    HW284835   7.188   7.851   1.249
27668SOL     OW84836  13.218   6.067   0.871
27668SOL    HW184837  13.257   6.066   0.784
27668SOL    HW284838  13.166   5.987   0.875
27669SOL     OW84839   8.232   9.366   8.121
27669SOL    HW184840   8.141   9.338   8.133
27669SOL    HW284841   8.283   9.288   8.142
27670SOL     OW84842   1.051   3.690   5.366
27670SOL    HW184843   0.977   3.671   5.307
27670SOL    HW284844   1.075   3.780   5.345
27671SOL     OW84845   8.763  14.319   2.375
27671SOL    HW184846   8.710  14.370   2.436
27671SOL    HW284847   8.853  14.327   2.408
27672SOL     OW84848   0.707   3.427   4.508
27672SOL    HW184849   0.676   3.498   4.452
27672SOL    HW284850   0.796   3.452   4.532
27673SOL     OW84851   9.942  10.559   3.991
27673SOL    HW184852   9.928  10.653   3.979
27673SOL    HW284853   9.869  10.518   3.946
27674SOL     OW84854   2.295  13.156   0.115
27674SOL    HW184855   2.230  13.087   0.129
27674SOL    HW284856   2.344  13.127   0.038
27675SOL     OW84857   5.769   4.700   0.121
27675SOL    HW184858   5.813   4.616   0.122
27675SOL    HW284859   5.771   4.729   0.212
27676SOL     OW84860   3.108   9.329   2.234
27676SOL    HW184861   3.079   9.263   2.172
27676SOL    HW284862   3.114   9.410   2.182
27677SOL     OW84863   5.027   1.534   8.375
27677SOL    HW184864   5.067   1.583   8.447
27677SOL    HW284865   4.963   1.594   8.338
27678SOL     OW84866   3.131  14.204   2.895
27678SOL    HW184867   3.040  14.216   2.924
27678SOL    HW284868   3.183  14.209   2.975
27679SOL     OW84869   1.520   5.933   4.952
27679SOL    HW184870   1.610   5.909   4.929
27679SOL    HW284871   1.531   5.998   5.021
27680SOL     OW84872   5.075  13.709  11.733
27680SOL    HW184873   5.045  13.647  11.800
27680SOL    HW284874   5.142  13.762  11.778
27681SOL     OW84875  12.619   0.403  10.558
27681SOL    HW184876  12.541   0.457  10.547
27681SOL    HW284877  12.586   0.319  10.587
27682SOL     OW84878  13.039  11.662  11.506
27682SOL    HW184879  12.976  11.601  11.469
27682SOL    HW284880  13.071  11.620  11.586
27683SOL     OW84881   1.323   9.875   6.620
27683SOL    HW184882   1.371   9.815   6.563
27683SOL    HW284883   1.330   9.836   6.707
27684SOL     OW84884   7.209   5.687   9.315
27684SOL    HW184885   7.140   5.745   9.347
27684SOL    HW284886   7.290   5.735   9.333
27685SOL     OW84887   1.532   7.895  11.812
27685SOL    HW184888   1.614   7.893  11.762
27685SOL    HW284889   1.485   7.817  11.784
27686SOL     OW84890   6.553  12.792   3.552
27686SOL    HW184891   6.459  12.795   3.537
27686SOL    HW284892   6.565  12.836   3.636
27687SOL     OW84893  12.766   4.094   8.214
27687SOL    HW184894  12.787   4.187   8.228
27687SOL    HW284895  12.672   4.088   8.229
27688SOL     OW84896   7.596  14.571  14.141
27688SOL    HW184897   7.645  14.493  14.117
27688SOL    HW284898   7.658  14.643  14.130
27689SOL     OW84899   4.281   8.447   9.345
27689SOL    HW184900   4.232   8.515   9.299
27689SOL    HW284901   4.215   8.402   9.398
27690SOL     OW84902   6.433   3.721  11.216
27690SOL    HW184903   6.426   3.743  11.123
27690SOL    HW284904   6.349   3.680  11.237
27691SOL     OW84905  13.337   6.744  14.631
27691SOL    HW184906  13.422   6.787  14.623
27691SOL    HW284907  13.323   6.702  14.546
27692SOL     OW84908   1.836   6.600   2.382
27692SOL    HW184909   1.803   6.688   2.360
27692SOL    HW284910   1.773   6.567   2.446
27693SOL     OW84911   1.695   3.491   0.799
27693SOL    HW184912   1.733   3.499   0.712
27693SOL    HW284913   1.693   3.581   0.832
27694SOL     OW84914   7.476  14.780   4.182
27694SOL    HW184915   7.451  14.859   4.228
27694SOL    HW284916   7.546  14.742   4.235
27695SOL     OW84917  10.583   4.418   9.040
27695SOL    HW184918  10.555   4.497   9.086
27695SOL    HW284919  10.675   4.433   9.019
27696SOL     OW84920   8.529   8.623   8.323
27696SOL    HW184921   8.463   8.590   8.263
27696SOL    HW284922   8.478   8.664   8.394
27697SOL     OW84923   3.998  14.761   4.221
27697SOL    HW184924   3.924  14.753   4.280
27697SOL    HW284925   4.024  14.671   4.203
27698SOL     OW84926  14.127   3.568   9.665
27698SOL    HW184927  14.178   3.512   9.723
27698SOL    HW284928  14.153   3.540   9.577
27699SOL     OW84929   6.188   2.113   8.725
27699SOL    HW184930   6.249   2.161   8.782
27699SOL    HW284931   6.234   2.108   8.641
27700SOL     OW84932   5.891   3.592  10.732
27700SOL    HW184933   5.928   3.622  10.815
27700SOL    HW284934   5.958   3.614  10.667
27701SOL     OW84935  10.955   5.789  11.531
27701SOL    HW184936  10.896   5.719  11.560
27701SOL    HW284937  10.904   5.839  11.468
27702SOL     OW84938   6.812   0.864   3.187
27702SOL    HW184939   6.830   0.770   3.195
27702SOL    HW284940   6.744   0.870   3.120
27703SOL     OW84941   2.966   4.918   5.688
27703SOL    HW184942   2.999   4.930   5.777
27703SOL    HW284943   2.934   5.005   5.662
27704SOL     OW84944   4.449  11.368   5.069
27704SOL    HW184945   4.473  11.449   5.114
27704SOL    HW284946   4.474  11.299   5.130
27705SOL     OW84947   2.186   5.536  11.291
27705SOL    HW184948   2.248   5.608  11.303
27705SOL    HW284949   2.147   5.524  11.378
27706SOL     OW84950   2.204   7.770   5.537
27706SOL    HW184951   2.252   7.689   5.552
27706SOL    HW284952   2.270   7.830   5.500
27707SOL     OW84953  12.096   5.473   1.052
27707SOL    HW184954  12.078   5.567   1.044
27707SOL    HW284955  12.074   5.438   0.965
27708SOL     OW84956   9.074   5.716   4.787
27708SOL    HW184957   9.084   5.810   4.773
27708SOL    HW284958   8.982   5.704   4.812
27709SOL     OW84959   8.956   8.346   2.900
27709SOL    HW184960   9.015   8.414   2.868
27709SOL    HW284961   8.994   8.319   2.983
27710SOL     OW84962  11.748  11.970   8.759
27710SOL    HW184963  11.750  11.998   8.850
27710SOL    HW284964  11.836  11.937   8.742
27711SOL     OW84965   4.400   8.249   0.834
27711SOL    HW184966   4.417   8.230   0.742
27711SOL    HW284967   4.484   8.282   0.868
27712SOL     OW84968   9.491   2.561   9.135
27712SOL    HW184969   9.546   2.617   9.190
27712SOL    HW284970   9.401   2.585   9.158
27713SOL     OW84971   3.078   6.153  12.994
27713SOL    HW184972   3.141   6.193  13.053
27713SOL    HW284973   3.084   6.059  13.011
27714SOL     OW84974   8.657   9.214   8.612
27714SOL    HW184975   8.619   9.292   8.653
27714SOL    HW284976   8.631   9.221   8.520
27715SOL     OW84977   8.234   2.658   4.064
27715SOL    HW184978   8.286   2.727   4.106
27715SOL    HW284979   8.227   2.685   3.972
27716SOL     OW84980   3.866  11.710  10.025
27716SOL    HW184981   3.787  11.687   9.977
27716SOL    HW284982   3.895  11.629  10.066
27717SOL     OW84983   2.143   4.084   4.483
27717SOL    HW184984   2.052   4.077   4.454
27717SOL    HW284985   2.194   4.042   4.414
27718SOL     OW84986   1.756  11.088   6.056
27718SOL    HW184987   1.675  11.040   6.040
27718SOL    HW284988   1.746  11.126   6.143
27719SOL     OW84989   1.154  13.230  12.196
27719SOL    HW184990   1.152  13.325  12.195
27719SOL    HW284991   1.074  13.203  12.152
27720SOL     OW84992   1.809   4.520  12.534
27720SOL    HW184993   1.795   4.606  12.575
27720SOL    HW284994   1.868   4.538  12.461
27721SOL     OW84995  14.419  14.654  10.204
27721SOL    HW184996  14.336  14.622  10.169
27721SOL    HW284997  14.408  14.649  10.299
27722SOL     OW84998  10.899  11.298  10.045
27722SOL    HW184999  10.806  11.319  10.042
27722SOL    HW285000  10.930  11.312   9.955
27723SOL     OW85001   6.317   3.828   1.801
27723SOL    HW185002   6.323   3.733   1.801
27723SOL    HW285003   6.398   3.857   1.760
27724SOL     OW85004  12.350  10.050  12.972
27724SOL    HW185005  12.340  10.098  12.890
27724SOL    HW285006  12.275   9.990  12.975
27725SOL     OW85007   3.575  14.215  11.682
27725SOL    HW185008   3.560  14.296  11.731
27725SOL    HW285009   3.629  14.242  11.608
27726SOL     OW85010   8.880  10.616   8.965
27726SOL    HW185011   8.888  10.524   8.939
27726SOL    HW285012   8.910  10.618   9.056
27727SOL     OW85013   3.909   6.506   6.517
27727SOL    HW185014   3.822   6.526   6.551
27727SOL    HW285015   3.958   6.587   6.529
27728SOL     OW85016  13.843   0.013  11.055
27728SOL    HW185017  13.829   0.045  11.144
27728SOL    HW285018  13.860   0.092  11.003
27729SOL     OW85019  12.837   1.328   6.120
27729SOL    HW185020  12.915   1.282   6.091
27729SOL    HW285021  12.869   1.412   6.154
27730SOL     OW85022   5.082   2.407   8.367
27730SOL    HW185023   5.069   2.490   8.414
27730SOL    HW285024   5.056   2.340   8.431
27731SOL     OW85025   3.635  13.948  11.825
27731SOL    HW185026   3.644  14.043  11.826
27731SOL    HW285027   3.600  13.926  11.912
27732SOL     OW85028   4.131  11.020   9.366
27732SOL    HW185029   4.171  11.041   9.450
27732SOL    HW285030   4.048  11.068   9.366
27733SOL     OW85031  14.618   7.322  12.447
27733SOL    HW185032  14.539   7.291  12.489
27733SOL    HW285033  14.596   7.324  12.353
27734SOL     OW85034   1.723  12.241   8.580
27734SOL    HW185035   1.785  12.272   8.645
27734SOL    HW285036   1.681  12.164   8.620
27735SOL     OW85037  10.292   1.763  13.439
27735SOL    HW185038  10.352   1.786  13.369
27735SOL    HW285039  10.348   1.738  13.513
27736SOL     OW85040   0.769  13.385   4.369
27736SOL    HW185041   0.694  13.412   4.316
27736SOL    HW285042   0.838  13.368   4.304
27737SOL     OW85043   3.539   9.709   6.235
27737SOL    HW185044   3.497   9.769   6.296
27737SOL    HW285045   3.467   9.673   6.183
27738SOL     OW85046   0.436  13.565   9.554
27738SOL    HW185047   0.381  13.637   9.584
27738SOL    HW285048   0.396  13.537   9.471
27739SOL     OW85049  10.850   0.674   4.706
27739SOL    HW185050  10.829   0.750   4.653
27739SOL    HW285051  10.850   0.707   4.796
27740SOL     OW85052  12.242   1.315   2.784
27740SOL    HW185053  12.223   1.371   2.860
27740SOL    HW285054  12.312   1.360   2.738
27741SOL     OW85055   5.570  10.858   3.230
27741SOL    HW185056   5.567  10.937   3.284
27741SOL    HW285057   5.633  10.801   3.274
27742SOL     OW85058   7.405   7.067  10.016
27742SOL    HW185059   7.444   7.128   9.954
27742SOL    HW285060   7.458   7.074  10.095
27743SOL     OW85061   4.977   9.017   8.094
27743SOL    HW185062   4.926   8.945   8.129
27743SOL    HW285063   5.063   9.008   8.134
27744SOL     OW85064   2.887   6.545  14.368
27744SOL    HW185065   2.967   6.494  14.383
27744SOL    HW285066   2.854   6.514  14.284
27745SOL     OW85067  11.368   3.399   6.039
27745SOL    HW185068  11.320   3.435   6.114
27745SOL    HW285069  11.441   3.351   6.078
27746SOL     OW85070   8.415   8.782   2.801
27746SOL    HW185071   8.369   8.700   2.785
27746SOL    HW285072   8.508   8.760   2.789
27747SOL     OW85073  12.852   4.963   3.508
27747SOL    HW185074  12.803   4.887   3.476
27747SOL    HW285075  12.910   4.927   3.575
27748SOL     OW85076   8.244  12.471   3.690
27748SOL    HW185077   8.299  12.520   3.628
27748SOL    HW285078   8.304  12.411   3.734
27749SOL     OW85079  10.312   2.808  10.529
27749SOL    HW185080  10.244   2.831  10.592
27749SOL    HW285081  10.358   2.890  10.512
27750SOL     OW85082  11.761   0.945  14.801
27750SOL    HW185083  11.740   0.892  14.878
27750SOL    HW285084  11.709   1.025  14.813
27751SOL     OW85085  14.288   0.692   5.336
27751SOL    HW185086  14.351   0.693   5.409
27751SOL    HW285087  14.279   0.599   5.314
27752SOL     OW85088   5.606  12.139   8.646
27752SOL    HW185089   5.665  12.076   8.606
27752SOL    HW285090   5.541  12.085   8.692
27753SOL     OW85091   6.735   6.219  13.125
27753SOL    HW185092   6.709   6.195  13.214
27753SOL    HW285093   6.826   6.248  13.135
27754SOL     OW85094   7.015   0.206  10.115
27754SOL    HW185095   7.059   0.246  10.040
27754SOL    HW285096   7.013   0.112  10.094
27755SOL     OW85097   5.298   5.424   4.204
27755SOL    HW185098   5.379   5.378   4.228
27755SOL    HW285099   5.304   5.508   4.250
27756SOL     OW85100   6.960   5.130   6.207
27756SOL    HW185101   6.993   5.145   6.296
27756SOL    HW285102   7.025   5.072   6.167
27757SOL     OW85103   7.932   6.945   3.460
27757SOL    HW185104   7.893   6.994   3.533
27757SOL    HW285105   7.859   6.895   3.423
27758SOL     OW85106   6.356  13.903  12.682
27758SOL    HW185107   6.387  13.836  12.621
27758SOL    HW285108   6.384  13.873  12.768
27759SOL     OW85109   5.807   1.633   8.650
27759SOL    HW185110   5.776   1.692   8.581
27759SOL    HW285111   5.823   1.690   8.725
27760SOL     OW85112  12.970   3.640   0.201
27760SOL    HW185113  12.990   3.547   0.193
27760SOL    HW285114  13.052   3.679   0.234
27761SOL     OW85115   1.026   7.162   3.716
27761SOL    HW185116   1.063   7.075   3.703
27761SOL    HW285117   0.939   7.157   3.676
27762SOL     OW85118   0.253  13.128  13.619
27762SOL    HW185119   0.221  13.104  13.706
27762SOL    HW285120   0.212  13.213  13.602
27763SOL     OW85121   7.378   4.328   8.206
27763SOL    HW185122   7.380   4.423   8.194
27763SOL    HW285123   7.344   4.317   8.295
27764SOL     OW85124  13.949   9.744  13.953
27764SOL    HW185125  14.044   9.749  13.947
27764SOL    HW285126  13.924   9.814  14.013
27765SOL     OW85127   6.915   0.320  12.458
27765SOL    HW185128   6.974   0.367  12.517
27765SOL    HW285129   6.940   0.228  12.467
27766SOL     OW85130   0.953  14.598   8.389
27766SOL    HW185131   1.020  14.667   8.385
27766SOL    HW285132   0.929  14.582   8.298
27767SOL     OW85133  12.084  12.471   6.725
27767SOL    HW185134  12.063  12.520   6.646
27767SOL    HW285135  12.173  12.498   6.748
27768SOL     OW85136  14.040   1.495  14.295
27768SOL    HW185137  14.016   1.564  14.234
27768SOL    HW285138  13.966   1.435  14.294
27769SOL     OW85139  14.311   9.038   7.231
27769SOL    HW185140  14.347   8.952   7.209
27769SOL    HW285141  14.312   9.087   7.148
27770SOL     OW85142   6.622   0.801  10.902
27770SOL    HW185143   6.570   0.793  10.983
27770SOL    HW285144   6.676   0.878  10.916
27771SOL     OW85145   0.281   3.214   4.873
27771SOL    HW185146   0.190   3.242   4.883
27771SOL    HW285147   0.331   3.275   4.928
27772SOL     OW85148  11.762   5.741   3.611
27772SOL    HW185149  11.757   5.736   3.707
27772SOL    HW285150  11.675   5.769   3.583
27773SOL     OW85151   4.224   1.672  13.570
27773SOL    HW185152   4.187   1.746  13.523
27773SOL    HW285153   4.204   1.689  13.662
27774SOL     OW85154   6.750   3.158  13.907
27774SOL    HW185155   6.817   3.129  13.846
27774SOL    HW285156   6.702   3.078  13.929
27775SOL     OW85157   6.513  11.110   1.274
27775SOL    HW185158   6.586  11.048   1.277
27775SOL    HW285159   6.544  11.187   1.322
27776SOL     OW85160  14.465  11.135   4.548
27776SOL    HW185161  14.525  11.091   4.607
27776SOL    HW285162  14.381  11.089   4.559
27777SOL     OW85163   1.476  10.772   2.379
27777SOL    HW185164   1.478  10.787   2.474
27777SOL    HW285165   1.478  10.677   2.370
27778SOL     OW85166   9.994  10.129   4.575
27778SOL    HW185167  10.039  10.204   4.537
27778SOL    HW285168   9.906  10.161   4.594
27779SOL     OW85169   4.185   4.428   7.506
27779SOL    HW185170   4.144   4.342   7.502
27779SOL    HW285171   4.261   4.422   7.448
27780SOL     OW85172   4.891  13.751  10.674
27780SOL    HW185173   4.838  13.782  10.601
27780SOL    HW285174   4.975  13.795  10.664
27781SOL     OW85175  14.664   6.061   2.877
27781SOL    HW185176  14.727   6.132   2.875
27781SOL    HW285177  14.704   5.995   2.934
27782SOL     OW85178  14.482   4.853   0.072
27782SOL    HW185179  14.560   4.814   0.113
27782SOL    HW285180  14.427   4.878   0.145
27783SOL     OW85181   2.036   4.714   3.314
27783SOL    HW185182   2.076   4.775   3.252
27783SOL    HW285183   2.022   4.634   3.264
27784SOL     OW85184   6.743   1.086  14.357
27784SOL    HW185185   6.774   1.158  14.301
27784SOL    HW285186   6.661   1.119  14.395
27785SOL     OW85187   9.060  12.274   8.630
27785SOL    HW185188   9.066  12.179   8.622
27785SOL    HW285189   9.112  12.295   8.707
27786SOL     OW85190   6.711   5.728  12.834
27786SOL    HW185191   6.637   5.731  12.773
27786SOL    HW285192   6.673   5.748  12.919
27787SOL     OW85193   8.190   1.214   3.270
27787SOL    HW185194   8.130   1.249   3.204
27787SOL    HW285195   8.273   1.259   3.255
27788SOL     OW85196   4.106   3.911  10.849
27788SOL    HW185197   4.152   3.827  10.846
27788SOL    HW285198   4.170   3.971  10.887
27789SOL     OW85199   3.448   4.106  11.133
27789SOL    HW185200   3.371   4.130  11.185
27789SOL    HW285201   3.505   4.183  11.140
27790SOL     OW85202  12.387   4.238   3.903
27790SOL    HW185203  12.332   4.233   3.981
27790SOL    HW285204  12.469   4.196   3.929
27791SOL     OW85205   4.289  14.253  12.702
27791SOL    HW185206   4.239  14.214  12.774
27791SOL    HW285207   4.316  14.339  12.735
27792SOL     OW85208   9.931   2.309  14.144
27792SOL    HW185209   9.901   2.398  14.129
27792SOL    HW285210  10.017   2.320  14.185
27793SOL     OW85211   6.107   5.117   6.175
27793SOL    HW185212   6.022   5.140   6.137
27793SOL    HW285213   6.091   5.115   6.269
27794SOL     OW85214  12.705  10.460   1.497
27794SOL    HW185215  12.787  10.412   1.485
27794SOL    HW285216  12.705  10.486   1.589
27795SOL     OW85217   9.507   6.841   1.319
27795SOL    HW185218   9.417   6.823   1.346
27795SOL    HW285219   9.554   6.759   1.334
27796SOL     OW85220   6.161   0.772  12.406
27796SOL    HW185221   6.254   0.795  12.404
27796SOL    HW285222   6.153   0.698  12.346
27797SOL     OW85223   1.931   1.498   7.274
27797SOL    HW185224   1.896   1.585   7.296
27797SOL    HW285225   1.856   1.451   7.237
27798SOL     OW85226   6.727   4.560  10.748
27798SOL    HW185227   6.684   4.501  10.810
27798SOL    HW285228   6.744   4.639  10.799
27799SOL     OW85229   7.110  10.089  14.073
27799SOL    HW185230   7.024  10.051  14.088
27799SOL    HW285231   7.094  10.160  14.011
27800SOL     OW85232  10.591  10.283   4.973
27800SOL    HW185233  10.572  10.375   4.955
27800SOL    HW285234  10.678  10.284   5.013
27801SOL     OW85235   2.404   3.016  14.807
27801SOL    HW185236   2.437   3.075  14.874
27801SOL    HW285237   2.466   2.943  14.806
27802SOL     OW85238   4.080   2.079  12.149
27802SOL    HW185239   4.102   2.111  12.062
27802SOL    HW285240   4.127   1.996  12.158
27803SOL     OW85241  10.250   0.414  10.007
27803SOL    HW185242  10.243   0.406  10.102
27803SOL    HW285243  10.231   0.506   9.989
27804SOL     OW85244  12.656   6.916  12.733
27804SOL    HW185245  12.705   6.883  12.658
27804SOL    HW285246  12.715   6.981  12.773
27805SOL     OW85247   0.357  10.539   1.206
27805SOL    HW185248   0.300  10.616   1.214
27805SOL    HW285249   0.442  10.569   1.237
27806SOL     OW85250   3.517   9.488  11.323
27806SOL    HW185251   3.560   9.419  11.373
27806SOL    HW285252   3.423   9.470  11.332
27807SOL     OW85253   2.990   0.783   8.421
27807SOL    HW185254   2.932   0.781   8.345
27807SOL    HW285255   2.933   0.805   8.494
27808SOL     OW85256   5.583  12.570  13.282
27808SOL    HW185257   5.517  12.595  13.346
27808SOL    HW285258   5.617  12.653  13.248
27809SOL     OW85259   9.049  11.910   7.174
27809SOL    HW185260   9.006  11.972   7.115
27809SOL    HW285261   9.033  11.824   7.135
27810SOL     OW85262   0.692   6.194  11.931
27810SOL    HW185263   0.649   6.191  11.846
27810SOL    HW285264   0.744   6.274  11.930
27811SOL     OW85265   8.897  13.121   6.629
27811SOL    HW185266   8.815  13.143   6.674
27811SOL    HW285267   8.869  13.079   6.548
27812SOL     OW85268   1.913   9.008   5.334
27812SOL    HW185269   1.880   8.944   5.397
27812SOL    HW285270   1.994   9.041   5.373
27813SOL     OW85271   5.187  13.176  10.942
27813SOL    HW185272   5.123  13.244  10.965
27813SOL    HW285273   5.222  13.204  10.857
27814SOL     OW85274   8.306   9.579   3.400
27814SOL    HW185275   8.371   9.648   3.385
27814SOL    HW285276   8.295   9.577   3.495
27815SOL     OW85277   9.139   7.685  13.400
27815SOL    HW185278   9.198   7.705  13.327
27815SOL    HW285279   9.196   7.659  13.472
27816SOL     OW85280   4.714   6.457  11.676
27816SOL    HW185281   4.699   6.538  11.726
27816SOL    HW285282   4.787   6.414  11.721
27817SOL     OW85283   1.337   6.921  10.123
27817SOL    HW185284   1.282   6.996  10.145
27817SOL    HW285285   1.280   6.845  10.134
27818SOL     OW85286  12.184  13.803   5.053
27818SOL    HW185287  12.228  13.782   5.135
27818SOL    HW285288  12.135  13.883   5.071
27819SOL     OW85289   8.091   0.702   4.732
27819SOL    HW185290   8.001   0.705   4.699
27819SOL    HW285291   8.136   0.641   4.675
27820SOL     OW85292   9.291  12.138  14.257
27820SOL    HW185293   9.281  12.175  14.169
27820SOL    HW285294   9.376  12.094  14.255
27821SOL     OW85295   8.448   3.908   8.927
27821SOL    HW185296   8.453   3.994   8.885
27821SOL    HW285297   8.523   3.905   8.986
27822SOL     OW85298   8.952  14.031   5.289
27822SOL    HW185299   8.879  14.067   5.338
27822SOL    HW285300   8.999  13.977   5.354
27823SOL     OW85301   0.563   3.301   3.082
27823SOL    HW185302   0.481   3.282   3.128
27823SOL    HW285303   0.545   3.382   3.034
27824SOL     OW85304   7.765   1.466   5.006
27824SOL    HW185305   7.860   1.475   5.013
27824SOL    HW285306   7.743   1.394   5.066
27825SOL     OW85307   6.828   1.747   3.889
27825SOL    HW185308   6.779   1.677   3.931
27825SOL    HW285309   6.800   1.827   3.934
27826SOL     OW85310  14.180   6.308   8.318
27826SOL    HW185311  14.086   6.312   8.305
27826SOL    HW285312  14.204   6.218   8.298
27827SOL     OW85313   7.081   0.392  10.650
27827SOL    HW185314   7.055   0.345  10.571
27827SOL    HW285315   7.010   0.453  10.667
27828SOL     OW85316   7.356   0.311   7.047
27828SOL    HW185317   7.431   0.356   7.086
27828SOL    HW285318   7.388   0.279   6.963
27829SOL     OW85319   7.137   2.930   3.762
27829SOL    HW185320   7.193   2.951   3.836
27829SOL    HW285321   7.191   2.949   3.685
27830SOL     OW85322  14.645   5.021   6.905
27830SOL    HW185323  14.694   4.983   6.978
27830SOL    HW285324  14.698   5.001   6.828
27831SOL     OW85325   2.300   4.702   7.354
27831SOL    HW185326   2.343   4.765   7.412
27831SOL    HW285327   2.226   4.669   7.406
27832SOL     OW85328   3.526  13.065  12.991
27832SOL    HW185329   3.489  12.981  13.017
27832SOL    HW285330   3.562  13.102  13.071
27833SOL     OW85331  13.166  11.550   4.919
27833SOL    HW185332  13.178  11.633   4.874
27833SOL    HW285333  13.105  11.570   4.990
27834SOL     OW85334  14.498   9.690   3.701
27834SOL    HW185335  14.413   9.694   3.743
27834SOL    HW285336  14.486   9.734   3.617
27835SOL     OW85337   0.161   7.659   4.090
27835SOL    HW185338   0.167   7.690   4.181
27835SOL    HW285339   0.073   7.684   4.062
27836SOL     OW85340  10.708   8.208  14.534
27836SOL    HW185341  10.636   8.237  14.478
27836SOL    HW285342  10.775   8.177  14.473
27837SOL     OW85343   0.373   4.791   7.705
27837SOL    HW185344   0.286   4.807   7.668
27837SOL    HW285345   0.433   4.831   7.643
27838SOL     OW85346   3.676  10.874   3.804
27838SOL    HW185347   3.689  10.834   3.718
27838SOL    HW285348   3.698  10.966   3.790
27839SOL     OW85349   3.157  13.545  10.194
27839SOL    HW185350   3.240  13.497  10.188
27839SOL    HW285351   3.143  13.558  10.288
27840SOL     OW85352   2.272   8.544   9.457
27840SOL    HW185353   2.212   8.470   9.447
27840SOL    HW285354   2.323   8.544   9.376
27841SOL     OW85355   8.120   6.923   2.134
27841SOL    HW185356   8.207   6.961   2.119
27841SOL    HW285357   8.071   6.942   2.053
27842SOL     OW85358   4.959   4.697   0.781
27842SOL    HW185359   4.987   4.618   0.827
27842SOL    HW285360   4.864   4.692   0.780
27843SOL     OW85361   3.931   5.441   8.077
27843SOL    HW185362   3.959   5.531   8.089
27843SOL    HW285363   3.866   5.427   8.145
27844SOL     OW85364   6.468   7.980  13.941
27844SOL    HW185365   6.441   7.894  13.907
27844SOL    HW285366   6.410   8.042  13.898
27845SOL     OW85367   0.013   3.534   1.679
27845SOL    HW185368   0.024   3.465   1.744
27845SOL    HW285369  14.799   3.533   1.658
27846SOL     OW85370   4.066   0.203   1.002
27846SOL    HW185371   3.990   0.255   0.977
27846SOL    HW285372   4.140   0.244   0.957
27847SOL     OW85373  13.722  10.370  10.332
27847SOL    HW185374  13.814  10.384  10.354
27847SOL    HW285375  13.723  10.329  10.245
27848SOL     OW85376  10.248   4.548  14.750
27848SOL    HW185377  10.335   4.547  14.711
27848SOL    HW285378  10.198   4.610  14.696
27849SOL     OW85379  13.233  10.909   2.274
27849SOL    HW185380  13.167  10.972   2.245
27849SOL    HW285381  13.193  10.823   2.256
27850SOL     OW85382   6.738  12.990  14.305
27850SOL    HW185383   6.738  13.068  14.249
27850SOL    HW285384   6.800  13.010  14.375
27851SOL     OW85385   7.094  14.867   3.028
27851SOL    HW185386   7.093  14.774   3.051
27851SOL    HW285387   7.183   0.017   3.046
27852SOL     OW85388  12.424   7.882   8.784
27852SOL    HW185389  12.338   7.856   8.753
27852SOL    HW285390  12.479   7.884   8.705
27853SOL     OW85391   0.225   0.985   7.411
27853SOL    HW185392   0.312   0.963   7.380
27853SOL    HW285393   0.231   0.979   7.506
27854SOL     OW85394   3.473   3.637   6.056
27854SOL    HW185395   3.434   3.553   6.031
27854SOL    HW285396   3.524   3.663   5.980
27855SOL     OW85397   1.151   9.612   6.875
27855SOL    HW185398   1.146   9.523   6.910
27855SOL    HW285399   1.244   9.628   6.863
27856SOL     OW85400   4.877   6.287   9.960
27856SOL    HW185401   4.898   6.194   9.973
27856SOL    HW285402   4.956   6.333   9.989
27857SOL     OW85403  12.699   6.277   0.108
27857SOL    HW185404  12.697   6.189   0.145
27857SOL    HW285405  12.617   6.285   0.059
27858SOL     OW85406   4.246  12.021   8.908
27858SOL    HW185407   4.295  12.070   8.842
27858SOL    HW285408   4.155  12.023   8.878
27859SOL     OW85409   9.603  12.438   9.129
27859SOL    HW185410   9.518  12.448   9.086
27859SOL    HW285411   9.667  12.442   9.058
27860SOL     OW85412   1.305   9.724   8.010
27860SOL    HW185413   1.393   9.689   7.998
27860SOL    HW285414   1.270   9.730   7.921
27861SOL     OW85415  11.739   3.241  13.554
27861SOL    HW185416  11.801   3.236  13.482
27861SOL    HW285417  11.732   3.151  13.586
27862SOL     OW85418   7.929   8.319  14.778
27862SOL    HW185419   7.995   8.273  14.727
27862SOL    HW285420   7.855   8.258  14.781
27863SOL     OW85421  12.392   6.398   8.069
27863SOL    HW185422  12.442   6.473   8.103
27863SOL    HW285423  12.308   6.436   8.042
27864SOL     OW85424  10.223   0.350   7.367
27864SOL    HW185425  10.244   0.365   7.274
27864SOL    HW285426  10.194   0.259   7.371
27865SOL     OW85427   5.516   5.871   8.516
27865SOL    HW185428   5.528   5.882   8.421
27865SOL    HW285429   5.433   5.825   8.525
27866SOL     OW85430   2.102  13.588  12.953
27866SOL    HW185431   2.134  13.578  12.864
27866SOL    HW285432   2.106  13.682  12.970
27867SOL     OW85433   3.610   4.512   0.494
27867SOL    HW185434   3.587   4.593   0.540
27867SOL    HW285435   3.607   4.536   0.402
27868SOL     OW85436   2.975  10.621   0.150
27868SOL    HW185437   2.999  10.557   0.218
27868SOL    HW285438   3.030  10.598   0.075
27869SOL     OW85439   7.719   3.447   2.973
27869SOL    HW185440   7.639   3.464   2.923
27869SOL    HW285441   7.786   3.500   2.930
27870SOL     OW85442   4.994   6.370  12.457
27870SOL    HW185443   5.056   6.313  12.412
27870SOL    HW285444   4.934   6.398  12.388
27871SOL     OW85445  13.959  11.272   8.672
27871SOL    HW185446  13.950  11.332   8.598
27871SOL    HW285447  13.882  11.216   8.666
27872SOL     OW85448   2.749   0.740  14.819
27872SOL    HW185449   2.726   0.650  14.796
27872SOL    HW285450   2.669   0.777  14.857
27873SOL     OW85451  10.103   7.947   7.169
27873SOL    HW185452  10.116   7.932   7.262
27873SOL    HW285453  10.179   7.907   7.127
27874SOL     OW85454   9.655  13.162  12.355
27874SOL    HW185455   9.626  13.084  12.401
27874SOL    HW285456   9.630  13.235  12.412
27875SOL     OW85457   5.875  11.273   0.906
27875SOL    HW185458   5.801  11.313   0.861
27875SOL    HW285459   5.843  11.254   0.994
27876SOL     OW85460   5.612   8.005   3.339
27876SOL    HW185461   5.699   8.040   3.355
27876SOL    HW285462   5.552   8.069   3.378
27877SOL     OW85463   7.658   3.161  14.293
27877SOL    HW185464   7.733   3.172  14.351
27877SOL    HW285465   7.594   3.225  14.323
27878SOL     OW85466  12.951   8.499   5.082
27878SOL    HW185467  12.909   8.419   5.050
27878SOL    HW285468  12.957   8.555   5.005
27879SOL     OW85469  11.786   9.740  12.865
27879SOL    HW185470  11.714   9.800  12.843
27879SOL    HW285471  11.851   9.755  12.796
27880SOL     OW85472   8.072   2.134  14.042
27880SOL    HW185473   8.125   2.055  14.052
27880SOL    HW285474   7.987   2.110  14.079
27881SOL     OW85475   1.405  11.102   1.719
27881SOL    HW185476   1.428  11.121   1.810
27881SOL    HW285477   1.469  11.150   1.667
27882SOL     OW85478   0.282  10.309   9.222
27882SOL    HW185479   0.204  10.356   9.251
27882SOL    HW285480   0.276  10.308   9.126
27883SOL     OW85481   3.955   5.107   2.291
27883SOL    HW185482   3.917   5.194   2.285
27883SOL    HW285483   4.048   5.119   2.270
27884SOL     OW85484   9.824   2.573   3.226
27884SOL    HW185485   9.896   2.623   3.263
27884SOL    HW285486   9.794   2.518   3.299
27885SOL     OW85487   9.387  14.052   9.995
27885SOL    HW185488   9.439  13.976   9.968
27885SOL    HW285489   9.425  14.079  10.078
27886SOL     OW85490   4.089   4.936   0.175
27886SOL    HW185491   4.176   4.898   0.177
27886SOL    HW285492   4.103   5.027   0.149
27887SOL     OW85493  10.879  12.932   2.353
27887SOL    HW185494  10.799  12.894   2.389
27887SOL    HW285495  10.856  12.957   2.264
27888SOL     OW85496   0.909   8.446  11.275
27888SOL    HW185497   0.944   8.365  11.312
27888SOL    HW285498   0.953   8.456  11.191
27889SOL     OW85499   4.958   1.068   4.228
27889SOL    HW185500   4.887   1.130   4.243
27889SOL    HW285501   4.927   1.014   4.155
27890SOL     OW85502   9.803   1.807  12.697
27890SOL    HW185503   9.738   1.820  12.629
27890SOL    HW285504   9.763   1.844  12.776
27891SOL     OW85505  10.124   7.871   3.498
27891SOL    HW185506  10.090   7.957   3.477
27891SOL    HW285507  10.058   7.809   3.466
27892SOL     OW85508   4.612  12.251  13.786
27892SOL    HW185509   4.541  12.279  13.728
27892SOL    HW285510   4.648  12.173  13.743
27893SOL     OW85511  11.744  11.146   5.414
27893SOL    HW185512  11.810  11.172   5.478
27893SOL    HW285513  11.689  11.224   5.403
27894SOL     OW85514   5.608   9.819   0.387
27894SOL    HW185515   5.691   9.853   0.353
27894SOL    HW285516   5.633   9.746   0.443
27895SOL     OW85517   8.696   1.436   6.983
27895SOL    HW185518   8.635   1.448   7.056
27895SOL    HW285519   8.667   1.500   6.917
27896SOL     OW85520   6.126  11.418  10.220
27896SOL    HW185521   6.200  11.470  10.250
27896SOL    HW285522   6.051  11.453  10.267
27897SOL     OW85523   7.238   2.039   3.687
27897SOL    HW185524   7.145   2.050   3.668
27897SOL    HW285525   7.254   2.099   3.760
27898SOL     OW85526   7.993  12.703  14.856
27898SOL    HW185527   7.982  12.713   0.072
27898SOL    HW285528   7.912  12.662  14.827
27899SOL     OW85529   8.140  12.443   2.793
27899SOL    HW185530   8.235  12.452   2.803
27899SOL    HW285531   8.123  12.468   2.702
27900SOL     OW85532  11.224  13.431   5.147
27900SOL    HW185533  11.312  13.410   5.178
27900SOL    HW285534  11.235  13.445   5.053
27901SOL     OW85535  14.441  14.592  12.584
27901SOL    HW185536  14.410  14.546  12.506
27901SOL    HW285537  14.380  14.666  12.593
27902SOL     OW85538   6.903   3.869   8.888
27902SOL    HW185539   6.850   3.944   8.863
27902SOL    HW285540   6.992   3.893   8.865
27903SOL     OW85541   8.025   2.757   0.494
27903SOL    HW185542   8.053   2.757   0.402
27903SOL    HW285543   8.079   2.690   0.536
27904SOL     OW85544  13.214  13.689   5.039
27904SOL    HW185545  13.185  13.697   5.130
27904SOL    HW285546  13.188  13.772   4.998
27905SOL     OW85547   3.078  13.767  13.583
27905SOL    HW185548   3.002  13.741  13.634
27905SOL    HW285549   3.052  13.753  13.492
27906SOL     OW85550  10.166   3.103   7.302
27906SOL    HW185551  10.186   3.191   7.270
27906SOL    HW285552  10.251   3.058   7.303
27907SOL     OW85553   0.648   2.471  13.957
27907SOL    HW185554   0.715   2.435  14.015
27907SOL    HW285555   0.698   2.510  13.884
27908SOL     OW85556  10.727   9.941   7.642
27908SOL    HW185557  10.702   9.894   7.562
27908SOL    HW285558  10.674  10.021   7.641
27909SOL     OW85559  14.474   8.844   4.266
27909SOL    HW185560  14.433   8.911   4.211
27909SOL    HW285561  14.518   8.894   4.335
27910SOL     OW85562   4.431   0.551   5.978
27910SOL    HW185563   4.388   0.591   6.054
27910SOL    HW285564   4.444   0.459   6.003
27911SOL     OW85565  14.015   3.393   3.143
27911SOL    HW185566  14.054   3.316   3.184
27911SOL    HW285567  13.955   3.429   3.209
27912SOL     OW85568  14.777  13.295   8.760
27912SOL    HW185569  14.827  13.342   8.693
27912SOL    HW285570  14.805  13.204   8.750
27913SOL     OW85571   8.406   2.860   5.458
27913SOL    HW185572   8.347   2.934   5.444
27913SOL    HW285573   8.358   2.802   5.517
27914SOL     OW85574   2.230  14.483  14.307
27914SOL    HW185575   2.231  14.389  14.325
27914SOL    HW285576   2.151  14.515  14.349
27915SOL     OW85577   1.511   7.635  10.418
27915SOL    HW185578   1.423   7.626  10.455
27915SOL    HW285579   1.522   7.730  10.407
27916SOL     OW85580   5.537   7.318   3.753
27916SOL    HW185581   5.477   7.352   3.687
27916SOL    HW285582   5.624   7.327   3.712
27917SOL     OW85583   7.395  14.204   5.189
27917SOL    HW185584   7.373  14.297   5.195
27917SOL    HW285585   7.347  14.173   5.112
27918SOL     OW85586   6.932   9.024   0.301
27918SOL    HW185587   7.014   9.071   0.283
27918SOL    HW285588   6.954   8.963   0.372
27919SOL     OW85589   0.257   1.590   5.753
27919SOL    HW185590   0.331   1.615   5.807
27919SOL    HW285591   0.183   1.586   5.814
27920SOL     OW85592   4.696   8.221   9.568
27920SOL    HW185593   4.722   8.180   9.486
27920SOL    HW285594   4.610   8.259   9.550
27921SOL     OW85595   0.163   1.241   1.334
27921SOL    HW185596   0.245   1.199   1.307
27921SOL    HW285597   0.098   1.207   1.273
27922SOL     OW85598  11.627   1.597   1.009
27922SOL    HW185599  11.581   1.513   1.007
27922SOL    HW285600  11.690   1.591   0.937
27923SOL     OW85601  11.882   7.869   3.336
27923SOL    HW185602  11.906   7.959   3.316
27923SOL    HW285603  11.891   7.861   3.431
27924SOL     OW85604   6.385  11.185   5.473
27924SOL    HW185605   6.296  11.206   5.445
27924SOL    HW285606   6.386  11.090   5.483
27925SOL     OW85607   8.696   0.548   5.161
27925SOL    HW185608   8.763   0.611   5.135
27925SOL    HW285609   8.614   0.598   5.157
27926SOL     OW85610   8.420   1.094   6.223
27926SOL    HW185611   8.334   1.128   6.248
27926SOL    HW285612   8.478   1.170   6.226
27927SOL     OW85613  10.925   3.384  14.219
27927SOL    HW185614  10.923   3.443  14.295
27927SOL    HW285615  11.010   3.401  14.178
27928SOL     OW85616   7.307   7.892   2.482
27928SOL    HW185617   7.392   7.881   2.526
27928SOL    HW285618   7.244   7.902   2.554
27929SOL     OW85619   6.941  13.037   2.324
27929SOL    HW185620   7.033  13.018   2.305
27929SOL    HW285621   6.930  13.129   2.301
27930SOL     OW85622   0.472  10.275   8.438
27930SOL    HW185623   0.561  10.309   8.438
27930SOL    HW285624   0.476  10.198   8.494
27931SOL     OW85625   9.623   2.038  14.736
27931SOL    HW185626   9.542   1.997  14.706
27931SOL    HW285627   9.692   1.977  14.710
27932SOL     OW85628   8.014   6.564   7.730
27932SOL    HW185629   7.958   6.504   7.780
27932SOL    HW285630   8.101   6.525   7.736
27933SOL     OW85631   8.994  11.683  13.749
27933SOL    HW185632   9.024  11.598  13.781
27933SOL    HW285633   9.074  11.734  13.740
27934SOL     OW85634   7.738   5.906  10.861
27934SOL    HW185635   7.668   5.887  10.924
27934SOL    HW285636   7.711   5.989  10.820
27935SOL     OW85637   2.529  13.099   2.016
27935SOL    HW185638   2.460  13.121   1.953
27935SOL    HW285639   2.584  13.177   2.019
27936SOL     OW85640   1.956   4.489   4.142
27936SOL    HW185641   1.863   4.485   4.118
27936SOL    HW285642   1.988   4.399   4.130
27937SOL     OW85643   9.791   3.178   3.735
27937SOL    HW185644   9.853   3.250   3.752
27937SOL    HW285645   9.716   3.199   3.790
27938SOL     OW85646   8.837  11.474   9.482
27938SOL    HW185647   8.903  11.466   9.551
27938SOL    HW285648   8.874  11.424   9.409
27939SOL     OW85649   7.001   1.176  14.849
27939SOL    HW185650   7.067   1.240  14.872
27939SOL    HW285651   6.989   1.124   0.050
27940SOL     OW85652   0.205   8.206   1.947
27940SOL    HW185653   0.246   8.134   1.995
27940SOL    HW285654   0.152   8.163   1.880
27941SOL     OW85655  13.451   2.800   6.183
27941SOL    HW185656  13.522   2.774   6.242
27941SOL    HW285657  13.409   2.873   6.227
27942SOL     OW85658   5.337   9.614   2.131
27942SOL    HW185659   5.432   9.616   2.130
27942SOL    HW285660   5.314   9.636   2.222
27943SOL     OW85661   8.171   8.418   1.483
27943SOL    HW185662   8.078   8.409   1.463
27943SOL    HW285663   8.177   8.409   1.578
27944SOL     OW85664   2.856  11.457  12.632
27944SOL    HW185665   2.779  11.401  12.617
27944SOL    HW285666   2.930  11.396  12.632
27945SOL     OW85667  14.471   2.836   9.206
27945SOL    HW185668  14.392   2.877   9.172
27945SOL    HW285669  14.525   2.818   9.129
27946SOL     OW85670   1.577   6.685  13.145
27946SOL    HW185671   1.668   6.669  13.167
27946SOL    HW285672   1.549   6.606  13.098
27947SOL     OW85673   5.976   5.143   7.155
27947SOL    HW185674   5.894   5.154   7.108
27947SOL    HW285675   6.035   5.101   7.092
27948SOL     OW85676   1.603   3.496   4.077
27948SOL    HW185677   1.516   3.498   4.118
27948SOL    HW285678   1.586   3.494   3.983
27949SOL     OW85679   3.794   8.364  11.317
27949SOL    HW185680   3.882   8.340  11.287
27949SOL    HW285681   3.745   8.380  11.236
27950SOL     OW85682   5.378   6.424   3.214
27950SOL    HW185683   5.471   6.436   3.192
27950SOL    HW285684   5.364   6.479   3.291
27951SOL     OW85685  11.114   5.219   0.971
27951SOL    HW185686  11.148   5.293   0.920
27951SOL    HW285687  11.032   5.197   0.928
27952SOL     OW85688   2.484   6.607   2.121
27952SOL    HW185689   2.415   6.592   2.186
27952SOL    HW285690   2.456   6.686   2.075
27953SOL     OW85691   2.472   2.102  10.378
27953SOL    HW185692   2.433   2.090  10.291
27953SOL    HW285693   2.422   2.045  10.436
27954SOL     OW85694   2.420   1.635  13.457
27954SOL    HW185695   2.501   1.652  13.506
27954SOL    HW285696   2.438   1.669  13.369
27955SOL     OW85697  14.762  11.328   0.277
27955SOL    HW185698  14.685  11.376   0.307
27955SOL    HW285699  14.818  11.395   0.237
27956SOL     OW85700   6.815  12.371  13.334
27956SOL    HW185701   6.721  12.367  13.317
27956SOL    HW285702   6.824  12.419  13.416
27957SOL     OW85703  10.728   6.808   2.795
27957SOL    HW185704  10.665   6.874   2.822
27957SOL    HW285705  10.776   6.786   2.875
27958SOL     OW85706   4.625  12.202   9.069
27958SOL    HW185707   4.608  12.296   9.070
27958SOL    HW285708   4.628  12.180   8.976
27959SOL     OW85709   6.196   5.383  11.152
27959SOL    HW185710   6.180   5.477  11.154
27959SOL    HW285711   6.268   5.369  11.214
27960SOL     OW85712   9.006   9.784  13.827
27960SOL    HW185713   9.073   9.849  13.848
27960SOL    HW285714   8.927   9.835  13.812
27961SOL     OW85715   1.225   4.884   4.753
27961SOL    HW185716   1.289   4.820   4.783
27961SOL    HW285717   1.211   4.942   4.827
27962SOL     OW85718   0.040  14.085  14.288
27962SOL    HW185719   0.109  14.109  14.227
27962SOL    HW285720   0.025  14.164  14.340
27963SOL     OW85721   5.465  13.283   2.434
27963SOL    HW185722   5.523  13.232   2.378
27963SOL    HW285723   5.488  13.257   2.523
27964SOL     OW85724   6.608   4.617  13.516
27964SOL    HW185725   6.679   4.627  13.453
27964SOL    HW285726   6.553   4.547  13.480
27965SOL     OW85727   2.677   5.519   9.841
27965SOL    HW185728   2.668   5.548   9.932
27965SOL    HW285729   2.717   5.432   9.847
27966SOL     OW85730  11.955   1.954   3.071
27966SOL    HW185731  11.882   1.902   3.106
27966SOL    HW285732  11.992   1.899   3.002
27967SOL     OW85733   0.805  13.214   2.312
27967SOL    HW185734   0.872  13.282   2.306
27967SOL    HW285735   0.722  13.262   2.312
27968SOL     OW85736  13.117  12.479  14.163
27968SOL    HW185737  13.118  12.574  14.154
27968SOL    HW285738  13.189  12.460  14.224
27969SOL     OW85739   8.595  10.784   6.052
27969SOL    HW185740   8.588  10.707   5.995
27969SOL    HW285741   8.621  10.855   5.993
27970SOL     OW85742   2.307  13.315  10.637
27970SOL    HW185743   2.244  13.288  10.703
27970SOL    HW285744   2.316  13.240  10.578
27971SOL     OW85745  11.862   7.326  14.324
27971SOL    HW185746  11.904   7.328  14.238
27971SOL    HW285747  11.772   7.356  14.308
27972SOL     OW85748   6.701   9.086   0.795
27972SOL    HW185749   6.651   9.167   0.781
27972SOL    HW285750   6.680   9.032   0.719
27973SOL     OW85751  12.950   9.019   1.140
27973SOL    HW185752  12.936   9.109   1.172
27973SOL    HW285753  13.003   8.977   1.208
27974SOL     OW85754  10.041  10.496   6.683
27974SOL    HW185755  10.013  10.582   6.653
27974SOL    HW285756  10.124  10.481   6.638
27975SOL     OW85757  13.605  10.730   1.151
27975SOL    HW185758  13.589  10.720   1.057
27975SOL    HW285759  13.664  10.658   1.173
27976SOL     OW85760  12.857   9.793  12.988
27976SOL    HW185761  12.768   9.756  12.987
27976SOL    HW285762  12.915   9.717  12.983
27977SOL     OW85763  13.600  10.898   0.602
27977SOL    HW185764  13.585  10.979   0.553
27977SOL    HW285765  13.615  10.927   0.692
27978SOL     OW85766  12.103  10.302   4.622
27978SOL    HW185767  12.031  10.364   4.611
27978SOL    HW285768  12.062  10.216   4.617
27979SOL     OW85769   4.449   0.293   7.993
27979SOL    HW185770   4.524   0.332   8.038
27979SOL    HW285771   4.385   0.364   7.989
27980SOL     OW85772  14.435  12.311   4.621
27980SOL    HW185773  14.441  12.276   4.532
27980SOL    HW285774  14.353  12.275   4.655
27981SOL     OW85775  12.142  13.308  10.176
27981SOL    HW185776  12.181  13.240  10.122
27981SOL    HW285777  12.049  13.306  10.156
27982SOL     OW85778   3.932   1.341   1.230
27982SOL    HW185779   3.979   1.259   1.211
27982SOL    HW285780   3.842   1.323   1.203
27983SOL     OW85781   4.535  13.611   7.631
27983SOL    HW185782   4.613  13.633   7.681
27983SOL    HW285783   4.471  13.678   7.656
27984SOL     OW85784   9.931   2.006   2.989
27984SOL    HW185785   9.894   2.078   3.040
27984SOL    HW285786   9.912   1.927   3.041
27985SOL     OW85787   1.805  13.793   7.638
27985SOL    HW185788   1.816  13.886   7.619
27985SOL    HW285789   1.800  13.752   7.551
27986SOL     OW85790   5.563   3.622  10.966
27986SOL    HW185791   5.614   3.552  10.925
27986SOL    HW285792   5.563   3.693  10.902
27987SOL     OW85793  12.937   6.271   6.968
27987SOL    HW185794  12.986   6.323   7.032
27987SOL    HW285795  12.853   6.316   6.959
27988SOL     OW85796   9.481   2.631  14.057
27988SOL    HW185797   9.493   2.699  13.991
27988SOL    HW285798   9.496   2.549  14.011
27989SOL     OW85799   5.374   7.378   8.093
27989SOL    HW185800   5.330   7.303   8.135
27989SOL    HW285801   5.432   7.338   8.028
27990SOL     OW85802  14.237  14.672   3.356
27990SOL    HW185803  14.202  14.746   3.406
27990SOL    HW285804  14.162  14.614   3.344
27991SOL     OW85805   9.531  13.054   8.115
27991SOL    HW185806   9.586  13.066   8.038
27991SOL    HW285807   9.552  13.129   8.171
27992SOL     OW85808   4.564   5.268   9.565
27992SOL    HW185809   4.582   5.187   9.517
27992SOL    HW285810   4.607   5.336   9.514
27993SOL     OW85811   8.000   2.689  10.801
27993SOL    HW185812   7.996   2.640  10.883
27993SOL    HW285813   7.929   2.753  10.807
27994SOL     OW85814   9.028  14.347   9.306
27994SOL    HW185815   9.066  14.266   9.271
27994SOL    HW285816   8.942  14.352   9.265
27995SOL     OW85817   5.362   0.532   5.116
27995SOL    HW185818   5.371   0.454   5.061
27995SOL    HW285819   5.402   0.603   5.066
27996SOL     OW85820   8.861   9.462   7.875
27996SOL    HW185821   8.801   9.404   7.828
27996SOL    HW285822   8.934   9.405   7.900
27997SOL     OW85823  14.589  11.611   4.616
27997SOL    HW185824  14.574  11.636   4.525
27997SOL    HW285825  14.582  11.692   4.665
27998SOL     OW85826  10.066  13.895   8.621
27998SOL    HW185827  10.114  13.825   8.665
27998SOL    HW285828  10.095  13.890   8.530
27999SOL     OW85829   3.609  11.238   1.670
27999SOL    HW185830   3.656  11.195   1.741
27999SOL    HW285831   3.673  11.296   1.630
28000SOL     OW85832   2.199   6.980  14.356
28000SOL    HW185833   2.277   6.937  14.321
28000SOL    HW285834   2.204   6.965  14.450
28001SOL     OW85835  10.380  10.799  13.202
28001SOL    HW185836  10.461  10.782  13.154
28001SOL    HW285837  10.402  10.870  13.262
28002SOL     OW85838   4.936  13.109  13.408
28002SOL    HW185839   4.912  13.179  13.348
28002SOL    HW285840   5.030  13.123  13.424
28003SOL     OW85841   1.441  10.862   9.865
28003SOL    HW185842   1.396  10.937   9.826
28003SOL    HW285843   1.450  10.799   9.793
28004SOL     OW85844  13.227   9.195   1.002
28004SOL    HW185845  13.173   9.142   0.944
28004SOL    HW285846  13.223   9.283   0.964
28005SOL     OW85847   4.762   9.857  12.336
28005SOL    HW185848   4.821   9.930  12.317
28005SOL    HW285849   4.761   9.805  12.255
28006SOL     OW85850   2.340  14.683   7.341
28006SOL    HW185851   2.246  14.692   7.356
28006SOL    HW285852   2.347  14.660   7.249
28007SOL     OW85853   7.842  12.077   0.784
28007SOL    HW185854   7.803  12.032   0.859
28007SOL    HW285855   7.935  12.081   0.805
28008SOL     OW85856   7.057   3.659   2.994
28008SOL    HW185857   7.135   3.686   2.946
28008SOL    HW285858   6.984   3.684   2.938
28009SOL     OW85859   2.204   3.411   1.886
28009SOL    HW185860   2.122   3.393   1.839
28009SOL    HW285861   2.191   3.499   1.922
28010SOL     OW85862  12.646   5.242  14.474
28010SOL    HW185863  12.659   5.238  14.568
28010SOL    HW285864  12.558   5.278  14.463
28011SOL     OW85865   4.390   4.693   4.530
28011SOL    HW185866   4.339   4.771   4.555
28011SOL    HW285867   4.418   4.657   4.614
28012SOL     OW85868  14.753   9.751   3.664
28012SOL    HW185869  14.663   9.722   3.677
28012SOL    HW285870  14.802   9.710   3.736
28013SOL     OW85871   5.428   8.356  10.715
28013SOL    HW185872   5.442   8.274  10.761
28013SOL    HW285873   5.393   8.331  10.630
28014SOL     OW85874   7.393  13.774   7.287
28014SOL    HW185875   7.447  13.732   7.354
28014SOL    HW285876   7.303  13.758   7.316
28015SOL     OW85877   6.208  10.057   6.543
28015SOL    HW185878   6.236  10.002   6.616
28015SOL    HW285879   6.158  10.128   6.584
28016SOL     OW85880   4.924  14.316   3.989
28016SOL    HW185881   4.970  14.276   4.062
28016SOL    HW285882   4.833  14.290   4.001
28017SOL     OW85883  11.875   5.887   6.894
28017SOL    HW185884  11.858   5.840   6.975
28017SOL    HW285885  11.967   5.866   6.873
28018SOL     OW85886   5.492  11.563  12.876
28018SOL    HW185887   5.429  11.588  12.808
28018SOL    HW285888   5.523  11.647  12.911
28019SOL     OW85889   8.012   9.140   4.002
28019SOL    HW185890   7.919   9.129   3.980
28019SOL    HW285891   8.025   9.086   4.080
28020SOL     OW85892   3.237   8.419   2.744
28020SOL    HW185893   3.298   8.482   2.784
28020SOL    HW285894   3.279   8.393   2.663
28021SOL     OW85895   2.423   1.238   7.351
28021SOL    HW185896   2.351   1.177   7.332
28021SOL    HW285897   2.438   1.284   7.269
28022SOL     OW85898   0.032   3.573   9.878
28022SOL    HW185899   0.103   3.634   9.901
28022SOL    HW285900  14.834   3.608   9.923
28023SOL     OW85901  14.521   3.029   9.610
28023SOL    HW185902  14.600   3.008   9.660
28023SOL    HW285903  14.462   3.068   9.675
28024SOL     OW85904   6.440  11.121   9.551
28024SOL    HW185905   6.407  11.165   9.473
28024SOL    HW285906   6.419  11.028   9.537
28025SOL     OW85907   2.955   5.788  10.698
28025SOL    HW185908   2.894   5.818  10.766
28025SOL    HW285909   2.998   5.712  10.738
28026SOL     OW85910   2.917   2.320  14.809
28026SOL    HW185911   2.823   2.316  14.826
28026SOL    HW285912   2.952   2.376  14.879
28027SOL     OW85913   8.721  10.490   0.213
28027SOL    HW185914   8.762  10.491   0.299
28027SOL    HW285915   8.751  10.408   0.173
28028SOL     OW85916   3.831  12.528  14.097
28028SOL    HW185917   3.859  12.568  14.179
28028SOL    HW285918   3.880  12.575  14.029
28029SOL     OW85919   4.373   1.811   4.943
28029SOL    HW185920   4.437   1.878   4.917
28029SOL    HW285921   4.368   1.753   4.867
28030SOL     OW85922  12.762   0.483  11.366
28030SOL    HW185923  12.796   0.414  11.309
28030SOL    HW285924  12.714   0.436  11.434
28031SOL     OW85925   2.363  10.326  14.085
28031SOL    HW185926   2.376  10.286  13.999
28031SOL    HW285927   2.419  10.404  14.085
28032SOL     OW85928  13.219  10.160  11.400
28032SOL    HW185929  13.308  10.152  11.366
28032SOL    HW285930  13.200  10.074  11.439
28033SOL     OW85931   0.080   0.387   8.972
28033SOL    HW185932   0.019   0.327   9.014
28033SOL    HW285933   0.093   0.350   8.885
28034SOL     OW85934  13.281   1.872   2.338
28034SOL    HW185935  13.251   1.912   2.420
28034SOL    HW285936  13.377   1.869   2.347
28035SOL     OW85937   9.560   3.014  14.504
28035SOL    HW185938   9.610   3.083  14.462
28035SOL    HW285939   9.499   3.060  14.562
28036SOL     OW85940   7.799   2.715   0.762
28036SOL    HW185941   7.745   2.670   0.697
28036SOL    HW285942   7.782   2.808   0.747
28037SOL     OW85943  12.308   1.639   0.195
28037SOL    HW185944  12.362   1.607   0.123
28037SOL    HW285945  12.219   1.639   0.160
28038SOL     OW85946  14.058  13.802  13.645
28038SOL    HW185947  14.123  13.766  13.584
28038SOL    HW285948  14.051  13.736  13.714
28039SOL     OW85949   1.384   3.250   0.347
28039SOL    HW185950   1.379   3.197   0.267
28039SOL    HW285951   1.318   3.319   0.334
28040SOL     OW85952   2.689  13.708   9.919
28040SOL    HW185953   2.765  13.684   9.971
28040SOL    HW285954   2.702  13.662   9.835
28041SOL     OW85955   8.792   0.846   0.616
28041SOL    HW185956   8.800   0.774   0.553
28041SOL    HW285957   8.699   0.847   0.639
28042SOL     OW85958   9.451  14.646   2.869
28042SOL    HW185959   9.509  14.697   2.813
28042SOL    HW285960   9.500  14.566   2.889
28043SOL     OW85961  10.854  11.176   3.880
28043SOL    HW185962  10.906  11.184   3.800
28043SOL    HW285963  10.792  11.249   3.875
28044SOL     OW85964  12.823   9.820   4.755
28044SOL    HW185965  12.734   9.855   4.753
28044SOL    HW285966  12.828   9.773   4.837
28045SOL     OW85967   2.795   0.987   1.788
28045SOL    HW185968   2.833   0.899   1.787
28045SOL    HW285969   2.836   1.032   1.714
28046SOL     OW85970   7.729   6.009   3.302
28046SOL    HW185971   7.757   5.991   3.212
28046SOL    HW285972   7.714   5.922   3.339
28047SOL     OW85973   9.403   1.759  10.846
28047SOL    HW185974   9.425   1.834  10.791
28047SOL    HW285975   9.359   1.798  10.922
28048SOL     OW85976   3.145  14.618  14.451
28048SOL    HW185977   3.139  14.594  14.543
28048SOL    HW285978   3.111  14.708  14.447
28049SOL     OW85979  12.933  14.544   9.626
28049SOL    HW185980  12.874  14.532   9.701
28049SOL    HW285981  12.943  14.639   9.620
28050SOL     OW85982   5.554   1.079   3.686
28050SOL    HW185983   5.560   1.144   3.755
28050SOL    HW285984   5.491   1.015   3.718
28051SOL     OW85985   4.261   8.275   8.212
28051SOL    HW185986   4.166   8.279   8.227
28051SOL    HW285987   4.293   8.360   8.241
28052SOL     OW85988  10.555   2.256   3.490
28052SOL    HW185989  10.528   2.248   3.581
28052SOL    HW285990  10.632   2.199   3.483
28053SOL     OW85991   6.887   9.130   8.788
28053SOL    HW185992   6.843   9.068   8.847
28053SOL    HW285993   6.863   9.101   8.700
28054SOL     OW85994   8.074  13.459   1.675
28054SOL    HW185995   8.126  13.444   1.595
28054SOL    HW285996   8.027  13.541   1.657
28055SOL     OW85997  13.699   2.650  12.136
28055SOL    HW185998  13.644   2.728  12.129
28055SOL    HW285999  13.767   2.663  12.069
28056SOL     OW86000  11.049   0.639   1.499
28056SOL    HW186001  10.953   0.635   1.498
28056SOL    HW286002  11.071   0.669   1.587
28057SOL     OW86003   0.027   7.870   7.757
28057SOL    HW186004   0.095   7.865   7.825
28057SOL    HW286005   0.076   7.865   7.674
28058SOL     OW86006   5.484   4.941   3.006
28058SOL    HW186007   5.544   4.987   2.947
28058SOL    HW286008   5.403   4.992   3.002
28059SOL     OW86009   4.911  10.384   4.482
28059SOL    HW186010   4.888  10.299   4.446
28059SOL    HW286011   4.891  10.447   4.412
28060SOL     OW86012   5.272   6.125   5.300
28060SOL    HW186013   5.246   6.180   5.226
28060SOL    HW286014   5.227   6.163   5.376
28061SOL     OW86015   5.653  12.192  11.898
28061SOL    HW186016   5.747  12.206  11.906
28061SOL    HW286017   5.614  12.276  11.921
28062SOL     OW86018  11.177  11.680   1.161
28062SOL    HW186019  11.192  11.774   1.167
28062SOL    HW286020  11.253  11.647   1.112
28063SOL     OW86021   6.609  13.240   0.743
28063SOL    HW186022   6.693  13.243   0.789
28063SOL    HW286023   6.631  13.209   0.655
28064SOL     OW86024   3.762  12.767   1.377
28064SOL    HW186025   3.832  12.704   1.394
28064SOL    HW286026   3.720  12.779   1.462
28065SOL     OW86027   0.604   0.677   1.284
28065SOL    HW186028   0.679   0.713   1.238
28065SOL    HW286029   0.624   0.691   1.377
28066SOL     OW86030  14.126   9.228  14.301
28066SOL    HW186031  14.112   9.145  14.347
28066SOL    HW286032  14.154   9.203  14.214
28067SOL     OW86033   2.763   7.863  12.337
28067SOL    HW186034   2.835   7.926  12.330
28067SOL    HW286035   2.806   7.781  12.363
28068SOL     OW86036   4.108   3.932   8.942
28068SOL    HW186037   4.092   3.868   8.873
28068SOL    HW286038   4.162   3.885   9.006
28069SOL     OW86039  11.859   9.029   9.780
28069SOL    HW186040  11.907   8.986   9.851
28069SOL    HW286041  11.786   9.073   9.822
28070SOL     OW86042   2.423   5.374   2.265
28070SOL    HW186043   2.500   5.323   2.238
28070SOL    HW286044   2.349   5.317   2.245
28071SOL     OW86045   6.013   9.111   4.317
28071SOL    HW186046   6.032   9.163   4.239
28071SOL    HW286047   6.073   9.037   4.312
28072SOL     OW86048   6.087   0.698   8.864
28072SOL    HW186049   6.163   0.705   8.921
28072SOL    HW286050   6.124   0.694   8.775
28073SOL     OW86051   5.383   4.077  10.834
28073SOL    HW186052   5.471   4.114  10.837
28073SOL    HW286053   5.391   3.993  10.880
28074SOL     OW86054  13.020   9.604  12.711
28074SOL    HW186055  13.029   9.595  12.806
28074SOL    HW286056  13.063   9.687  12.691
28075SOL     OW86057   3.246  13.136  11.410
28075SOL    HW186058   3.224  13.062  11.467
28075SOL    HW286059   3.295  13.096  11.338
28076SOL     OW86060   6.360  11.984  13.503
28076SOL    HW186061   6.285  12.044  13.498
28076SOL    HW286062   6.409  12.000  13.423
28077SOL     OW86063   3.829   3.987   3.031
28077SOL    HW186064   3.752   3.930   3.033
28077SOL    HW286065   3.837   4.014   2.939
28078SOL     OW86066   9.712   8.202   6.253
28078SOL    HW186067   9.639   8.164   6.204
28078SOL    HW286068   9.679   8.210   6.342
28079SOL     OW86069   0.437  11.779   9.891
28079SOL    HW186070   0.371  11.826   9.942
28079SOL    HW286071   0.515  11.833   9.896
28080SOL     OW86072   7.565   4.299   0.513
28080SOL    HW186073   7.469   4.302   0.512
28080SOL    HW286074   7.585   4.222   0.565
28081SOL     OW86075   0.699  14.773  12.564
28081SOL    HW186076   0.694  14.804  12.474
28081SOL    HW286077   0.627  14.817  12.609
28082SOL     OW86078  13.021  13.445   5.566
28082SOL    HW186079  13.032  13.520   5.624
28082SOL    HW286080  12.993  13.373   5.624
28083SOL     OW86081  11.512  10.685   8.081
28083SOL    HW186082  11.421  10.670   8.105
28083SOL    HW286083  11.507  10.746   8.007
28084SOL     OW86084  13.028   3.849   3.184
28084SOL    HW186085  12.946   3.828   3.139
28084SOL    HW286086  13.011   3.933   3.228
28085SOL     OW86087   8.496  14.239  10.135
28085SOL    HW186088   8.507  14.234  10.039
28085SOL    HW286089   8.586  14.238  10.169
28086SOL     OW86090   6.767   3.359   6.643
28086SOL    HW186091   6.690   3.385   6.591
28086SOL    HW286092   6.753   3.266   6.661
28087SOL     OW86093  13.030   6.555   8.515
28087SOL    HW186094  13.119   6.587   8.530
28087SOL    HW286095  13.029   6.527   8.424
28088SOL     OW86096   8.928   5.137   7.351
28088SOL    HW186097   8.980   5.118   7.273
28088SOL    HW286098   8.985   5.191   7.406
28089SOL     OW86099  11.901  10.565   5.995
28089SOL    HW186100  11.883  10.657   6.017
28089SOL    HW286101  11.916  10.523   6.080
28090SOL     OW86102   6.033   7.325   5.095
28090SOL    HW186103   5.941   7.302   5.108
28090SOL    HW286104   6.078   7.292   5.173
28091SOL     OW86105   7.865   9.858  13.922
28091SOL    HW186106   7.917   9.780  13.902
28091SOL    HW286107   7.774   9.831  13.909
28092SOL     OW86108  14.128   2.239  12.490
28092SOL    HW186109  14.166   2.273  12.409
28092SOL    HW286110  14.203   2.232  12.550
28093SOL     OW86111   9.846   0.392   0.147
28093SOL    HW186112   9.882   0.312   0.184
28093SOL    HW286113   9.923   0.442   0.119
28094SOL     OW86114   7.154  10.639   3.328
28094SOL    HW186115   7.235  10.591   3.307
28094SOL    HW286116   7.183  10.714   3.380
28095SOL     OW86117   5.955  13.653   8.614
28095SOL    HW186118   5.899  13.582   8.644
28095SOL    HW286119   5.947  13.651   8.518
28096SOL     OW86120   6.529   6.769   5.172
28096SOL    HW186121   6.459   6.801   5.228
28096SOL    HW286122   6.526   6.826   5.095
28097SOL     OW86123  13.364   2.176  14.729
28097SOL    HW186124  13.399   2.126  14.803
28097SOL    HW286125  13.293   2.122  14.695
28098SOL     OW86126   0.937   4.748   6.448
28098SOL    HW186127   0.904   4.838   6.443
28098SOL    HW286128   1.018   4.750   6.398
28099SOL     OW86129  11.100   8.449   8.944
28099SOL    HW186130  11.156   8.409   9.011
28099SOL    HW286131  11.103   8.387   8.871
28100SOL     OW86132  13.108   1.060  12.334
28100SOL    HW186133  13.144   1.122  12.396
28100SOL    HW286134  13.023   1.036  12.370
28101SOL     OW86135  10.995   8.645   5.663
28101SOL    HW186136  11.090   8.646   5.667
28101SOL    HW286137  10.968   8.585   5.733
28102SOL     OW86138   8.517  10.610   2.838
28102SOL    HW186139   8.436  10.624   2.888
28102SOL    HW286140   8.504  10.527   2.793
28103SOL     OW86141  14.414   6.998  12.530
28103SOL    HW186142  14.380   7.087  12.515
28103SOL    HW286143  14.501   6.999  12.492
28104SOL     OW86144   7.852   8.968   7.354
28104SOL    HW186145   7.812   8.908   7.291
28104SOL    HW286146   7.778   9.016   7.391
28105SOL     OW86147   0.886   9.911   8.646
28105SOL    HW186148   0.938   9.988   8.671
28105SOL    HW286149   0.884   9.857   8.725
28106SOL     OW86150   3.702  14.422   6.383
28106SOL    HW186151   3.644  14.409   6.308
28106SOL    HW286152   3.784  14.380   6.357
28107SOL     OW86153   1.008   8.362   7.424
28107SOL    HW186154   1.032   8.449   7.392
28107SOL    HW286155   1.026   8.366   7.518
28108SOL     OW86156   5.666   3.154  12.421
28108SOL    HW186157   5.712   3.238  12.422
28108SOL    HW286158   5.605   3.160  12.348
28109SOL     OW86159  13.447  13.789  12.262
28109SOL    HW186160  13.481  13.715  12.213
28109SOL    HW286161  13.520  13.818  12.317
28110SOL     OW86162  13.436   1.173   2.937
28110SOL    HW186163  13.375   1.234   2.979
28110SOL    HW286164  13.408   1.086   2.969
28111SOL     OW86165   6.483  14.839   7.685
28111SOL    HW186166   6.557   0.020   7.696
28111SOL    HW286167   6.518  14.767   7.632
28112SOL     OW86168  11.164  12.100   3.441
28112SOL    HW186169  11.230  12.031   3.451
28112SOL    HW286170  11.215  12.179   3.422
28113SOL     OW86171   4.638   9.121   3.603
28113SOL    HW186172   4.670   9.106   3.692
28113SOL    HW286173   4.717   9.120   3.549
28114SOL     OW86174   4.965   3.751  14.134
28114SOL    HW186175   5.013   3.776  14.055
28114SOL    HW286176   5.025   3.693  14.181
28115SOL     OW86177   0.166   8.146   9.157
28115SOL    HW186178   0.080   8.180   9.181
28115SOL    HW286179   0.227   8.194   9.214
28116SOL     OW86180   7.149  11.323   7.630
28116SOL    HW186181   7.194  11.249   7.672
28116SOL    HW286182   7.150  11.301   7.536
28117SOL     OW86183   1.252   8.887  12.211
28117SOL    HW186184   1.342   8.905  12.240
28117SOL    HW286185   1.257   8.799  12.173
28118SOL     OW86186  12.484   8.240   7.351
28118SOL    HW186187  12.396   8.201   7.353
28118SOL    HW286188  12.533   8.191   7.417
28119SOL     OW86189   8.853  10.175  11.233
28119SOL    HW186190   8.831  10.086  11.206
28119SOL    HW286191   8.884  10.166  11.323
28120SOL     OW86192   8.028  13.230  13.529
28120SOL    HW186193   7.956  13.253  13.471
28120SOL    HW286194   7.987  13.177  13.597
28121SOL     OW86195   0.005   8.275   2.119
28121SOL    HW186196   0.081   8.257   2.062
28121SOL    HW286197  14.853   8.361   2.091
28122SOL     OW86198   3.225  10.271   6.560
28122SOL    HW186199   3.177  10.353   6.572
28122SOL    HW286200   3.160  10.210   6.526
28123SOL     OW86201  12.433   9.282   2.234
28123SOL    HW186202  12.429   9.223   2.310
28123SOL    HW286203  12.507   9.339   2.252
28124SOL     OW86204  12.227   3.233   9.197
28124SOL    HW186205  12.157   3.278   9.150
28124SOL    HW286206  12.264   3.299   9.255
28125SOL     OW86207   1.461  12.437   1.708
28125SOL    HW186208   1.484  12.407   1.620
28125SOL    HW286209   1.437  12.529   1.697
28126SOL     OW86210   4.893  14.298   6.723
28126SOL    HW186211   4.965  14.317   6.662
28126SOL    HW286212   4.841  14.232   6.677
28127SOL     OW86213   2.110   9.537   0.900
28127SOL    HW186214   2.141   9.585   0.823
28127SOL    HW286215   2.061   9.463   0.864
28128SOL     OW86216   6.112  11.069   3.842
28128SOL    HW186217   6.053  11.128   3.795
28128SOL    HW286218   6.053  11.012   3.892
28129SOL     OW86219   6.732   5.507   3.623
28129SOL    HW186220   6.723   5.601   3.636
28129SOL    HW286221   6.642   5.474   3.622
28130SOL     OW86222   3.153   2.254   1.081
28130SOL    HW186223   3.059   2.273   1.085
28130SOL    HW286224   3.157   2.161   1.061
28131SOL     OW86225   1.876   8.838  11.526
28131SOL    HW186226   1.850   8.905  11.463
28131SOL    HW286227   1.834   8.758  11.494
28132SOL     OW86228  11.096   7.168   1.802
28132SOL    HW186229  11.137   7.085   1.779
28132SOL    HW286230  11.081   7.212   1.719
28133SOL     OW86231   0.609  10.967   8.742
28133SOL    HW186232   0.629  10.897   8.679
28133SOL    HW286233   0.587  10.920   8.823
28134SOL     OW86234   4.621  10.308  12.148
28134SOL    HW186235   4.674  10.361  12.088
28134SOL    HW286236   4.655  10.330  12.235
28135SOL     OW86237   4.507   2.541   7.538
28135SOL    HW186238   4.429   2.572   7.493
28135SOL    HW286239   4.543   2.619   7.581
28136SOL     OW86240   6.647   5.752  14.542
28136SOL    HW186241   6.632   5.717  14.454
28136SOL    HW286242   6.607   5.839  14.540
28137SOL     OW86243   9.284   4.746   7.795
28137SOL    HW186244   9.227   4.705   7.729
28137SOL    HW286245   9.319   4.823   7.751
28138SOL     OW86246   8.699   8.377   3.241
28138SOL    HW186247   8.653   8.294   3.233
28138SOL    HW286248   8.689   8.419   3.156
28139SOL     OW86249   3.395   5.165  13.083
28139SOL    HW186250   3.421   5.086  13.036
28139SOL    HW286251   3.422   5.237  13.025
28140SOL     OW86252  12.811   1.102   4.241
28140SOL    HW186253  12.863   1.113   4.320
28140SOL    HW286254  12.858   1.152   4.174
28141SOL     OW86255   9.287   7.673   8.186
28141SOL    HW186256   9.316   7.639   8.271
28141SOL    HW286257   9.305   7.603   8.124
28142SOL     OW86258  14.582  10.816   5.631
28142SOL    HW186259  14.629  10.889   5.592
28142SOL    HW286260  14.525  10.857   5.697
28143SOL     OW86261   3.505  10.217  14.773
28143SOL    HW186262   3.511  10.312  14.782
28143SOL    HW286263   3.580  10.193  14.719
28144SOL     OW86264   8.011  10.768   6.886
28144SOL    HW186265   8.080  10.730   6.832
28144SOL    HW286266   7.957  10.693   6.911
28145SOL     OW86267   5.426  11.736  11.495
28145SOL    HW186268   5.407  11.818  11.540
28145SOL    HW286269   5.400  11.668  11.557
28146SOL     OW86270   6.276   4.666   5.350
28146SOL    HW186271   6.295   4.586   5.400
28146SOL    HW286272   6.345   4.727   5.377
28147SOL     OW86273  11.020   1.009   3.204
28147SOL    HW186274  10.931   0.985   3.178
28147SOL    HW286275  11.069   0.927   3.198
28148SOL     OW86276  10.013   0.653   1.381
28148SOL    HW186277   9.974   0.684   1.300
28148SOL    HW286278  10.045   0.733   1.424
28149SOL     OW86279   8.806   7.213   4.796
28149SOL    HW186280   8.806   7.118   4.808
28149SOL    HW286281   8.878   7.230   4.735
28150SOL     OW86282   6.985  13.712   5.872
28150SOL    HW186283   7.068  13.669   5.896
28150SOL    HW286284   6.922  13.641   5.867
28151SOL     OW86285   2.173   2.891  10.492
28151SOL    HW186286   2.141   2.967  10.444
28151SOL    HW286287   2.104   2.826  10.484
28152SOL     OW86288   1.793   3.624  11.379
28152SOL    HW186289   1.823   3.689  11.315
28152SOL    HW286290   1.703   3.604  11.353
28153SOL     OW86291  11.763   2.368  12.286
28153SOL    HW186292  11.787   2.398  12.373
28153SOL    HW286293  11.834   2.400  12.229
28154SOL     OW86294  10.873   5.559   8.324
28154SOL    HW186295  10.816   5.599   8.259
28154SOL    HW286296  10.931   5.629   8.351
28155SOL     OW86297  10.919  11.646   3.436
28155SOL    HW186298  10.859  11.572   3.444
28155SOL    HW286299  10.999  11.617   3.479
28156SOL     OW86300   6.692   6.686   1.117
28156SOL    HW186301   6.719   6.776   1.134
28156SOL    HW286302   6.709   6.672   1.024
28157SOL     OW86303  13.380  14.779   1.575
28157SOL    HW186304  13.437  14.762   1.500
28157SOL    HW286305  13.385  14.874   1.587
28158SOL     OW86306   4.062   7.592   8.712
28158SOL    HW186307   4.106   7.664   8.758
28158SOL    HW286308   3.979   7.630   8.683
28159SOL     OW86309   9.173  13.391   5.236
28159SOL    HW186310   9.188  13.471   5.287
28159SOL    HW286311   9.088  13.359   5.267
28160SOL     OW86312  13.348   0.791   6.904
28160SOL    HW186313  13.405   0.845   6.849
28160SOL    HW286314  13.272   0.774   6.849
28161SOL     OW86315   7.982   7.716   5.396
28161SOL    HW186316   7.916   7.743   5.332
28161SOL    HW286317   7.955   7.629   5.424
28162SOL     OW86318  10.600   3.244  13.097
28162SOL    HW186319  10.652   3.317  13.064
28162SOL    HW286320  10.576   3.194  13.019
28163SOL     OW86321   8.025   5.217   2.014
28163SOL    HW186322   7.986   5.260   2.090
28163SOL    HW286323   8.084   5.151   2.051
28164SOL     OW86324   4.914   7.627   2.606
28164SOL    HW186325   4.885   7.552   2.554
28164SOL    HW286326   4.834   7.666   2.640
28165SOL     OW86327  13.496   7.816   9.320
28165SOL    HW186328  13.577   7.845   9.360
28165SOL    HW286329  13.427   7.842   9.381
28166SOL     OW86330   8.123   1.512   7.793
28166SOL    HW186331   8.211   1.549   7.798
28166SOL    HW286332   8.135   1.420   7.815
28167SOL     OW86333   0.301  12.037   6.523
28167SOL    HW186334   0.374  12.088   6.488
28167SOL    HW286335   0.262  11.996   6.446
28168SOL     OW86336   7.340   2.593  13.362
28168SOL    HW186337   7.408   2.526  13.364
28168SOL    HW286338   7.349   2.636  13.277
28169SOL     OW86339  14.114   6.998   5.273
28169SOL    HW186340  14.123   6.952   5.189
28169SOL    HW286341  14.193   6.974   5.322
28170SOL     OW86342   6.972  10.114   8.331
28170SOL    HW186343   6.981  10.036   8.275
28170SOL    HW286344   7.061  10.143   8.346
28171SOL     OW86345   8.552  13.696   8.285
28171SOL    HW186346   8.570  13.648   8.204
28171SOL    HW286347   8.514  13.779   8.255
28172SOL     OW86348   7.842   0.407   5.681
28172SOL    HW186349   7.854   0.318   5.715
28172SOL    HW286350   7.824   0.459   5.759
28173SOL     OW86351   6.578  10.300   6.446
28173SOL    HW186352   6.650  10.302   6.384
28173SOL    HW286353   6.611  10.249   6.520
28174SOL     OW86354   6.630   6.490   9.104
28174SOL    HW186355   6.651   6.491   9.198
28174SOL    HW286356   6.657   6.404   9.074
28175SOL     OW86357   6.472   6.754   4.343
28175SOL    HW186358   6.498   6.809   4.417
28175SOL    HW286359   6.524   6.786   4.270
28176SOL     OW86360  12.961   5.681  12.777
28176SOL    HW186361  13.037   5.720  12.733
28176SOL    HW286362  12.892   5.683  12.711
28177SOL     OW86363   4.486   6.212  12.971
28177SOL    HW186364   4.398   6.233  12.941
28177SOL    HW286365   4.533   6.188  12.891
28178SOL     OW86366   8.724  14.089  10.219
28178SOL    HW186367   8.760  14.021  10.276
28178SOL    HW286368   8.743  14.058  10.130
28179SOL     OW86369  11.111   0.658  13.015
28179SOL    HW186370  11.145   0.724  12.956
28179SOL    HW286371  11.029   0.695  13.048
28180SOL     OW86372  10.233   9.776   2.317
28180SOL    HW186373  10.324   9.768   2.286
28180SOL    HW286374  10.182   9.794   2.238
28181SOL     OW86375   1.279  11.353   6.562
28181SOL    HW186376   1.298  11.290   6.492
28181SOL    HW286377   1.280  11.438   6.519
28182SOL     OW86378   3.740   4.228  13.477
28182SOL    HW186379   3.662   4.261  13.432
28182SOL    HW286380   3.798   4.303  13.484
28183SOL     OW86381   6.245   2.240  11.417
28183SOL    HW186382   6.227   2.146  11.421
28183SOL    HW286383   6.255   2.266  11.508
28184SOL     OW86384   5.539  13.618  13.830
28184SOL    HW186385   5.583  13.694  13.791
28184SOL    HW286386   5.450  13.621  13.796
28185SOL     OW86387   7.946  11.059   8.384
28185SOL    HW186388   8.007  10.987   8.368
28185SOL    HW286389   7.865  11.016   8.412
28186SOL     OW86390   4.559   8.358   1.163
28186SOL    HW186391   4.544   8.305   1.241
28186SOL    HW286392   4.472   8.389   1.138
28187SOL     OW86393  11.366   3.242  13.888
28187SOL    HW186394  11.304   3.311  13.913
28187SOL    HW286395  11.399   3.269  13.803
28188SOL     OW86396   3.447   6.994   9.173
28188SOL    HW186397   3.392   7.023   9.100
28188SOL    HW286398   3.536   7.018   9.147
28189SOL     OW86399  13.796   3.963   6.711
28189SOL    HW186400  13.886   3.943   6.736
28189SOL    HW286401  13.773   3.897   6.646
28190SOL     OW86402  13.612   0.899   4.074
28190SOL    HW186403  13.563   0.901   4.156
28190SOL    HW286404  13.588   0.980   4.029
28191SOL     OW86405   6.931  13.660  12.991
28191SOL    HW186406   6.884  13.611  13.059
28191SOL    HW286407   6.889  13.634  12.909
28192SOL     OW86408   2.864  14.543   9.549
28192SOL    HW186409   2.927  14.595   9.600
28192SOL    HW286410   2.834  14.475   9.610
28193SOL     OW86411   5.454   4.966  14.628
28193SOL    HW186412   5.383   5.011  14.674
28193SOL    HW286413   5.530   4.977  14.686
28194SOL     OW86414   3.665   2.781  11.310
28194SOL    HW186415   3.734   2.752  11.370
28194SOL    HW286416   3.589   2.727  11.334
28195SOL     OW86417   4.671  10.137   1.758
28195SOL    HW186418   4.739  10.196   1.790
28195SOL    HW286419   4.674  10.062   1.817
28196SOL     OW86420   6.486   6.802   2.960
28196SOL    HW186421   6.425   6.787   2.888
28196SOL    HW286422   6.532   6.718   2.970
28197SOL     OW86423   0.185   1.513   8.421
28197SOL    HW186424   0.195   1.419   8.434
28197SOL    HW286425   0.218   1.552   8.501
28198SOL     OW86426   4.846   0.237   6.003
28198SOL    HW186427   4.795   0.228   5.922
28198SOL    HW286428   4.850   0.332   6.017
28199SOL     OW86429  13.835   9.981   7.716
28199SOL    HW186430  13.741   9.963   7.719
28199SOL    HW286431  13.877   9.900   7.743
28200SOL     OW86432   4.594   1.424   0.661
28200SOL    HW186433   4.659   1.390   0.722
28200SOL    HW286434   4.579   1.353   0.599
28201SOL     OW86435   0.193   6.463   8.893
28201SOL    HW186436   0.205   6.456   8.987
28201SOL    HW286437   0.172   6.556   8.878
28202SOL     OW86438  10.818  12.607   2.834
28202SOL    HW186439  10.767  12.541   2.882
28202SOL    HW286440  10.800  12.689   2.878
28203SOL     OW86441   2.410  10.166  11.031
28203SOL    HW186442   2.397  10.218  10.951
28203SOL    HW286443   2.449  10.227  11.093
28204SOL     OW86444  12.100  13.018   3.899
28204SOL    HW186445  12.138  13.078   3.835
28204SOL    HW286446  12.052  12.954   3.846
28205SOL     OW86447   5.515   6.812  12.227
28205SOL    HW186448   5.565   6.850  12.300
28205SOL    HW286449   5.424   6.827  12.250
28206SOL     OW86450   4.088  12.534   2.741
28206SOL    HW186451   4.086  12.463   2.676
28206SOL    HW286452   4.175  12.529   2.780
28207SOL     OW86453  12.070   0.348  10.745
28207SOL    HW186454  12.140   0.411  10.728
28207SOL    HW286455  12.056   0.305  10.661
28208SOL     OW86456   6.186   3.726   3.332
28208SOL    HW186457   6.226   3.683   3.407
28208SOL    HW286458   6.098   3.689   3.326
28209SOL     OW86459   1.548   1.208   3.247
28209SOL    HW186460   1.637   1.244   3.247
28209SOL    HW286461   1.560   1.113   3.250
28210SOL     OW86462   5.763   0.442   4.039
28210SOL    HW186463   5.700   0.462   4.109
28210SOL    HW286464   5.708   0.431   3.961
28211SOL     OW86465   9.847   2.490   3.852
28211SOL    HW186466   9.828   2.413   3.798
28211SOL    HW286467   9.940   2.508   3.836
28212SOL     OW86468   3.897  11.943   2.963
28212SOL    HW186469   3.956  12.018   2.967
28212SOL    HW286470   3.898  11.908   3.052
28213SOL     OW86471   2.768   6.836  13.053
28213SOL    HW186472   2.757   6.741  13.048
28213SOL    HW286473   2.863   6.849  13.048
28214SOL     OW86474   7.805   2.325  14.522
28214SOL    HW186475   7.710   2.318  14.522
28214SOL    HW286476   7.833   2.265  14.452
28215SOL     OW86477  13.226   5.401  14.414
28215SOL    HW186478  13.309   5.355  14.430
28215SOL    HW286479  13.176   5.341  14.358
28216SOL     OW86480   2.236   1.061   9.251
28216SOL    HW186481   2.279   1.147   9.248
28216SOL    HW286482   2.144   1.080   9.268
28217SOL     OW86483   3.073  12.811   3.587
28217SOL    HW186484   2.989  12.766   3.595
28217SOL    HW286485   3.122  12.786   3.664
28218SOL     OW86486   0.222   5.206   6.028
28218SOL    HW186487   0.254   5.150   5.957
28218SOL    HW286488   0.298   5.257   6.055
28219SOL     OW86489   7.839   0.530   4.058
28219SOL    HW186490   7.759   0.576   4.083
28219SOL    HW286491   7.906   0.599   4.054
28220SOL     OW86492   7.594   5.557   1.183
28220SOL    HW186493   7.551   5.588   1.104
28220SOL    HW286494   7.670   5.508   1.152
28221SOL     OW86495  13.577  10.937  13.189
28221SOL    HW186496  13.626  11.012  13.221
28221SOL    HW286497  13.620  10.912  13.107
28222SOL     OW86498   5.871  11.227   8.773
28222SOL    HW186499   5.885  11.132   8.769
28222SOL    HW286500   5.958  11.264   8.757
28223SOL     OW86501   6.299   5.485  10.385
28223SOL    HW186502   6.258   5.447  10.307
28223SOL    HW286503   6.258   5.439  10.458
28224SOL     OW86504  12.112   3.659  12.514
28224SOL    HW186505  12.070   3.732  12.559
28224SOL    HW286506  12.062   3.582  12.542
28225SOL     OW86507   5.014   6.291  11.020
28225SOL    HW186508   5.041   6.357  11.085
28225SOL    HW286509   5.002   6.341  10.939
28226SOL     OW86510   8.560   4.086  11.794
28226SOL    HW186511   8.635   4.141  11.818
28226SOL    HW286512   8.512   4.137  11.729
28227SOL     OW86513   6.711   8.903  12.103
28227SOL    HW186514   6.657   8.835  12.144
28227SOL    HW286515   6.665   8.985  12.121
28228SOL     OW86516   3.100   0.707   9.866
28228SOL    HW186517   3.025   0.706   9.807
28228SOL    HW286518   3.168   0.659   9.819
28229SOL     OW86519   9.574   5.398   0.349
28229SOL    HW186520   9.593   5.491   0.343
28229SOL    HW286521   9.651   5.355   0.311
28230SOL     OW86522   0.867   5.158   3.028
28230SOL    HW186523   0.809   5.106   3.085
28230SOL    HW286524   0.907   5.094   2.969
28231SOL     OW86525   1.698  13.095   7.105
28231SOL    HW186526   1.622  13.153   7.106
28231SOL    HW286527   1.680  13.030   7.172
28232SOL     OW86528  11.690   4.951  13.504
28232SOL    HW186529  11.638   4.896  13.446
28232SOL    HW286530  11.695   4.901  13.586
28233SOL     OW86531  11.821   5.204   0.776
28233SOL    HW186532  11.733   5.218   0.811
28233SOL    HW286533  11.865   5.288   0.785
28234SOL     OW86534   8.228  13.588   0.726
28234SOL    HW186535   8.263  13.499   0.719
28234SOL    HW286536   8.159  13.582   0.792
28235SOL     OW86537  11.964  11.670  13.727
28235SOL    HW186538  11.944  11.576  13.721
28235SOL    HW286539  11.884  11.708  13.764
28236SOL     OW86540  10.107   8.805   3.394
28236SOL    HW186541  10.184   8.810   3.337
28236SOL    HW286542  10.038   8.851   3.345
28237SOL     OW86543   4.129   5.758  12.132
28237SOL    HW186544   4.136   5.824  12.062
28237SOL    HW286545   4.120   5.809  12.212
28238SOL     OW86546   0.155   9.179  12.332
28238SOL    HW186547   0.155   9.153  12.240
28238SOL    HW286548   0.064   9.168  12.360
28239SOL     OW86549   3.505   3.003  11.322
28239SOL    HW186550   3.429   2.951  11.350
28239SOL    HW286551   3.578   2.941  11.320
28240SOL     OW86552   0.039   5.270  11.126
28240SOL    HW186553   0.056   5.289  11.218
28240SOL    HW286554   0.028   5.356  11.086
28241SOL     OW86555   1.535   1.517   8.054
28241SOL    HW186556   1.556   1.441   8.001
28241SOL    HW286557   1.509   1.584   7.991
28242SOL     OW86558  14.760  10.242  10.313
28242SOL    HW186559  14.854  10.256  10.309
28242SOL    HW286560  14.750  10.146  10.318
28243SOL     OW86561   2.491  11.935   1.581
28243SOL    HW186562   2.484  11.926   1.486
28243SOL    HW286563   2.409  11.898   1.614
28244SOL     OW86564   2.219   5.078   9.966
28244SOL    HW186565   2.257   5.160   9.938
28244SOL    HW286566   2.187   5.096  10.055
28245SOL     OW86567  10.723   0.575   8.870
28245SOL    HW186568  10.657   0.595   8.804
28245SOL    HW286569  10.806   0.580   8.823
28246SOL     OW86570   3.405   1.143  10.103
28246SOL    HW186571   3.357   1.096  10.035
28246SOL    HW286572   3.468   1.079  10.136
28247SOL     OW86573   0.475   6.218   5.809
28247SOL    HW186574   0.565   6.250   5.802
28247SOL    HW286575   0.455   6.224   5.903
28248SOL     OW86576   0.097  11.257   6.763
28248SOL    HW186577   0.033  11.276   6.831
28248SOL    HW286578   0.045  11.220   6.691
28249SOL     OW86579  11.133   1.878   7.882
28249SOL    HW186580  11.095   1.890   7.969
28249SOL    HW286581  11.101   1.792   7.854
28250SOL     OW86582   2.979   9.245   8.568
28250SOL    HW186583   3.069   9.277   8.558
28250SOL    HW286584   2.936   9.269   8.486
28251SOL     OW86585   1.484  10.453   3.974
28251SOL    HW186586   1.485  10.454   3.878
28251SOL    HW286587   1.574  10.429   3.998
28252SOL     OW86588   0.490   0.229   8.470
28252SOL    HW186589   0.395   0.217   8.466
28252SOL    HW286590   0.505   0.280   8.550
28253SOL     OW86591   7.207  13.985  12.352
28253SOL    HW186592   7.209  13.904  12.300
28253SOL    HW286593   7.253  14.049  12.297
28254SOL     OW86594   3.156  12.330  10.021
28254SOL    HW186595   3.195  12.259  10.072
28254SOL    HW286596   3.231  12.378   9.985
28255SOL     OW86597  13.226  13.980   3.171
28255SOL    HW186598  13.154  13.977   3.109
28255SOL    HW286599  13.184  13.973   3.257
28256SOL     OW86600   9.126   0.752   8.712
28256SOL    HW186601   9.167   0.665   8.715
28256SOL    HW286602   9.074   0.757   8.793
28257SOL     OW86603  13.001  11.428   0.442
28257SOL    HW186604  13.092  11.450   0.465
28257SOL    HW286605  13.009  11.354   0.382
28258SOL     OW86606  13.565  11.790   8.264
28258SOL    HW186607  13.607  11.760   8.345
28258SOL    HW286608  13.601  11.877   8.249
28259SOL     OW86609  10.482   7.434   0.679
28259SOL    HW186610  10.547   7.443   0.748
28259SOL    HW286611  10.451   7.524   0.664
28260SOL     OW86612   1.099   4.688   9.068
28260SOL    HW186613   1.128   4.678   9.158
28260SOL    HW286614   1.095   4.598   9.034
28261SOL     OW86615   7.280   3.026   6.326
28261SOL    HW186616   7.315   3.111   6.354
28261SOL    HW286617   7.328   2.962   6.378
28262SOL     OW86618   0.176   9.244   2.119
28262SOL    HW186619   0.094   9.242   2.168
28262SOL    HW286620   0.181   9.158   2.077
28263SOL     OW86621  11.222  13.443  10.676
28263SOL    HW186622  11.244  13.535  10.661
28263SOL    HW286623  11.238  13.431  10.770
28264SOL     OW86624   6.299  10.420   3.300
28264SOL    HW186625   6.332  10.455   3.217
28264SOL    HW286626   6.241  10.488   3.333
28265SOL     OW86627   2.226   3.363   7.068
28265SOL    HW186628   2.243   3.270   7.052
28265SOL    HW286629   2.300   3.392   7.121
28266SOL     OW86630   3.226  10.256   8.802
28266SOL    HW186631   3.142  10.242   8.758
28266SOL    HW286632   3.207  10.248   8.895
28267SOL     OW86633  10.171   9.453  10.821
28267SOL    HW186634  10.206   9.542  10.832
28267SOL    HW286635  10.224   9.399  10.880
28268SOL     OW86636  10.398   4.413   4.162
28268SOL    HW186637  10.333   4.349   4.135
28268SOL    HW286638  10.363   4.450   4.243
28269SOL     OW86639   7.481   6.476   3.446
28269SOL    HW186640   7.570   6.497   3.474
28269SOL    HW286641   7.452   6.553   3.398
28270SOL     OW86642   9.211  13.930   4.907
28270SOL    HW186643   9.196  13.982   4.828
28270SOL    HW286644   9.141  13.865   4.906
28271SOL     OW86645  10.013   9.756   5.185
28271SOL    HW186646  10.085   9.696   5.204
28271SOL    HW286647  10.035   9.795   5.101
28272SOL     OW86648   0.250   5.455   1.796
28272SOL    HW186649   0.342   5.433   1.781
28272SOL    HW286650   0.210   5.452   1.709
28273SOL     OW86651   7.084   5.994  10.663
28273SOL    HW186652   7.015   6.056  10.686
28273SOL    HW286653   7.120   6.027  10.581
28274SOL     OW86654   2.506   9.580  12.083
28274SOL    HW186655   2.576   9.595  12.019
28274SOL    HW286656   2.505   9.659  12.136
28275SOL     OW86657   8.224   5.759  13.393
28275SOL    HW186658   8.147   5.742  13.338
28275SOL    HW286659   8.225   5.854  13.404
28276SOL     OW86660   9.388   2.734   2.270
28276SOL    HW186661   9.429   2.819   2.280
28276SOL    HW286662   9.342   2.740   2.186
28277SOL     OW86663   3.968   1.570   7.982
28277SOL    HW186664   3.962   1.596   8.074
28277SOL    HW286665   3.996   1.650   7.936
28278SOL     OW86666   9.730   9.853   7.478
28278SOL    HW186667   9.765   9.880   7.393
28278SOL    HW286668   9.637   9.838   7.462
28279SOL     OW86669  12.332  10.023   6.755
28279SOL    HW186670  12.333  10.083   6.680
28279SOL    HW286671  12.377  10.071   6.824
28280SOL     OW86672   9.021  10.979  10.100
28280SOL    HW186673   9.113  11.000  10.086
28280SOL    HW286674   9.022  10.908  10.165
28281SOL     OW86675  12.616   0.218   5.158
28281SOL    HW186676  12.614   0.264   5.074
28281SOL    HW286677  12.537   0.246   5.203
28282SOL     OW86678   9.936  10.909   1.958
28282SOL    HW186679   9.869  10.841   1.956
28282SOL    HW286680   9.889  10.990   1.977
28283SOL     OW86681  10.470  10.964   1.208
28283SOL    HW186682  10.466  10.890   1.147
28283SOL    HW286683  10.517  10.929   1.284
28284SOL     OW86684   5.931   0.295  14.625
28284SOL    HW186685   5.962   0.357  14.559
28284SOL    HW286686   5.868   0.345  14.678
28285SOL     OW86687  10.562   5.797   0.659
28285SOL    HW186688  10.483   5.746   0.676
28285SOL    HW286689  10.618   5.780   0.735
28286SOL     OW86690   1.302  12.834  13.456
28286SOL    HW186691   1.321  12.742  13.477
28286SOL    HW286692   1.213  12.848  13.487
28287SOL     OW86693   0.425   4.938   8.036
28287SOL    HW186694   0.440   4.853   8.080
28287SOL    HW286695   0.336   4.932   8.002
28288SOL     OW86696   4.133   1.200   2.700
28288SOL    HW186697   4.152   1.225   2.609
28288SOL    HW286698   4.166   1.273   2.752
28289SOL     OW86699   3.463  14.405  13.436
28289SOL    HW186700   3.395  14.427  13.500
28289SOL    HW286701   3.526  14.353  13.485
28290SOL     OW86702   5.500   4.537   9.654
28290SOL    HW186703   5.452   4.456   9.636
28290SOL    HW286704   5.438   4.607   9.631
28291SOL     OW86705   0.495  13.270   6.703
28291SOL    HW186706   0.525  13.255   6.792
28291SOL    HW286707   0.400  13.279   6.709
28292SOL     OW86708   7.699   5.297   3.963
28292SOL    HW186709   7.741   5.266   3.883
28292SOL    HW286710   7.722   5.231   4.029
28293SOL     OW86711   5.019  11.601   3.999
28293SOL    HW186712   4.987  11.686   4.029
28293SOL    HW286713   5.055  11.618   3.911
28294SOL     OW86714   3.577   9.014   5.801
28294SOL    HW186715   3.484   9.014   5.778
28294SOL    HW286716   3.610   9.097   5.767
28295SOL     OW86717  13.186   1.214   8.359
28295SOL    HW186718  13.260   1.173   8.405
28295SOL    HW286719  13.205   1.308   8.362
28296SOL     OW86720   5.468   5.484  12.577
28296SOL    HW186721   5.376   5.495  12.554
28296SOL    HW286722   5.506   5.572  12.566
28297SOL     OW86723   5.362  14.615   4.588
28297SOL    HW186724   5.415  14.665   4.527
28297SOL    HW286725   5.415  14.538   4.608
28298SOL     OW86726   5.601  14.277   8.166
28298SOL    HW186727   5.638  14.194   8.196
28298SOL    HW286728   5.664  14.309   8.101
28299SOL     OW86729   6.895   1.508   0.415
28299SOL    HW186730   6.854   1.594   0.414
28299SOL    HW286731   6.984   1.524   0.446
28300SOL     OW86732  14.600  10.786  10.721
28300SOL    HW186733  14.676  10.824  10.677
28300SOL    HW286734  14.612  10.810  10.813
28301SOL     OW86735   7.968   4.719  10.490
28301SOL    HW186736   7.889   4.773  10.478
28301SOL    HW286737   8.006   4.749  10.572
28302SOL     OW86738  14.749   1.085  10.671
28302SOL    HW186739  14.724   1.066  10.581
28302SOL    HW286740  14.771   1.178  10.670
28303SOL     OW86741   2.591   3.821   9.911
28303SOL    HW186742   2.531   3.749   9.933
28303SOL    HW286743   2.570   3.842   9.821
28304SOL     OW86744  14.398   8.347   2.264
28304SOL    HW186745  14.370   8.257   2.246
28304SOL    HW286746  14.430   8.345   2.354
28305SOL     OW86747   7.355  13.583   2.537
28305SOL    HW186748   7.387  13.609   2.623
28305SOL    HW286749   7.433  13.555   2.489
28306SOL     OW86750  14.445   9.491   5.366
28306SOL    HW186751  14.360   9.519   5.399
28306SOL    HW286752  14.486   9.572   5.334
28307SOL     OW86753  12.049   0.672  11.259
28307SOL    HW186754  12.059   0.584  11.223
28307SOL    HW286755  11.957   0.678  11.283
28308SOL     OW86756  12.081  11.369  10.162
28308SOL    HW186757  12.124  11.440  10.210
28308SOL    HW286758  11.990  11.371  10.192
28309SOL     OW86759   7.060   3.141  14.202
28309SOL    HW186760   7.125   3.192  14.152
28309SOL    HW286761   6.988   3.202  14.216
28310SOL     OW86762   9.810   9.876   1.528
28310SOL    HW186763   9.725   9.845   1.559
28310SOL    HW286764   9.873   9.815   1.567
28311SOL     OW86765  12.076  14.238  10.599
28311SOL    HW186766  12.027  14.265  10.677
28311SOL    HW286767  12.015  14.183  10.550
28312SOL     OW86768  13.854  11.525   3.780
28312SOL    HW186769  13.936  11.521   3.828
28312SOL    HW286770  13.787  11.503   3.845
28313SOL     OW86771   3.674   8.444  14.130
28313SOL    HW186772   3.648   8.462  14.039
28313SOL    HW286773   3.673   8.349  14.137
28314SOL     OW86774   8.089   1.810  13.672
28314SOL    HW186775   8.054   1.750  13.606
28314SOL    HW286776   8.045   1.785  13.753
28315SOL     OW86777   8.962  14.598  13.703
28315SOL    HW186778   8.878  14.630  13.670
28315SOL    HW286779   8.959  14.616  13.797
28316SOL     OW86780   7.231  11.778   4.076
28316SOL    HW186781   7.257  11.713   4.011
28316SOL    HW286782   7.157  11.824   4.036
28317SOL     OW86783   4.686  13.629   0.070
28317SOL    HW186784   4.605  13.595   0.032
28317SOL    HW286785   4.657  13.703   0.124
28318SOL     OW86786   4.283   9.896  11.460
28318SOL    HW186787   4.365   9.887  11.413
28318SOL    HW286788   4.267   9.991  11.463
28319SOL     OW86789   8.850   2.201  12.648
28319SOL    HW186790   8.816   2.122  12.606
28319SOL    HW286791   8.780   2.230  12.707
28320SOL     OW86792  13.145  11.994   3.122
28320SOL    HW186793  13.143  11.901   3.141
28320SOL    HW286794  13.215  12.029   3.177
28321SOL     OW86795  10.198   7.145   1.593
28321SOL    HW186796  10.247   7.138   1.675
28321SOL    HW286797  10.110   7.172   1.621
28322SOL     OW86798   2.741   2.406   5.324
28322SOL    HW186799   2.725   2.453   5.406
28322SOL    HW286800   2.780   2.472   5.266
28323SOL     OW86801   8.477   2.702  13.590
28323SOL    HW186802   8.413   2.771  13.570
28323SOL    HW286803   8.548   2.716  13.527
28324SOL     OW86804  14.064  12.011   0.358
28324SOL    HW186805  14.157  11.989   0.366
28324SOL    HW286806  14.035  11.967   0.279
28325SOL     OW86807  11.388  11.838   1.299
28325SOL    HW186808  11.356  11.863   1.213
28325SOL    HW286809  11.352  11.904   1.358
28326SOL     OW86810   8.700   5.208  11.982
28326SOL    HW186811   8.718   5.212  12.076
28326SOL    HW286812   8.750   5.281  11.945
28327SOL     OW86813   9.483   2.334   2.608
28327SOL    HW186814   9.499   2.304   2.518
28327SOL    HW286815   9.435   2.416   2.597
28328SOL     OW86816   4.245   1.595   3.982
28328SOL    HW186817   4.192   1.628   3.910
28328SOL    HW286818   4.182   1.576   4.052
28329SOL     OW86819   0.689   5.379  11.480
28329SOL    HW186820   0.677   5.305  11.540
28329SOL    HW286821   0.767   5.356  11.430
28330SOL     OW86822   2.800  14.841   3.081
28330SOL    HW186823   2.730  14.782   3.111
28330SOL    HW286824   2.755   0.031   3.032
28331SOL     OW86825   8.344   5.732  12.672
28331SOL    HW186826   8.349   5.804  12.736
28331SOL    HW286827   8.263   5.747  12.624
28332SOL     OW86828   0.351  11.966   7.980
28332SOL    HW186829   0.364  11.949   8.073
28332SOL    HW286830   0.385  11.888   7.936
28333SOL     OW86831  12.135   8.454   7.188
28333SOL    HW186832  12.069   8.385   7.179
28333SOL    HW286833  12.150   8.484   7.098
28334SOL     OW86834   0.516  12.657   7.834
28334SOL    HW186835   0.424  12.685   7.835
28334SOL    HW286836   0.536  12.643   7.742
28335SOL     OW86837   8.163  10.624   9.108
28335SOL    HW186838   8.108  10.548   9.127
28335SOL    HW286839   8.106  10.700   9.124
28336SOL     OW86840  11.216   7.563   2.873
28336SOL    HW186841  11.286   7.587   2.813
28336SOL    HW286842  11.247   7.484   2.916
28337SOL     OW86843  10.566  13.020  14.702
28337SOL    HW186844  10.613  12.999  14.621
28337SOL    HW286845  10.600  12.957  14.766
28338SOL     OW86846  13.192   2.565   2.627
28338SOL    HW186847  13.216   2.480   2.590
28338SOL    HW286848  13.176   2.548   2.719
28339SOL     OW86849   3.248  11.869   3.518
28339SOL    HW186850   3.205  11.813   3.454
28339SOL    HW286851   3.298  11.809   3.574
28340SOL     OW86852   5.245   0.958   7.470
28340SOL    HW186853   5.199   0.946   7.387
28340SOL    HW286854   5.223   1.047   7.497
28341SOL     OW86855  10.713  14.437   8.533
28341SOL    HW186856  10.671  14.523   8.535
28341SOL    HW286857  10.739  14.425   8.442
28342SOL     OW86858  11.896  11.256   6.268
28342SOL    HW186859  11.914  11.350   6.269
28342SOL    HW286860  11.884  11.235   6.176
28343SOL     OW86861   4.418  10.427   1.090
28343SOL    HW186862   4.371  10.402   1.011
28343SOL    HW286863   4.418  10.523   1.089
28344SOL     OW86864  14.126   2.670   6.365
28344SOL    HW186865  14.060   2.611   6.330
28344SOL    HW286866  14.081   2.718   6.435
28345SOL     OW86867  11.030   9.307   0.787
28345SOL    HW186868  10.983   9.224   0.775
28345SOL    HW286869  10.962   9.368   0.817
28346SOL     OW86870  14.272  13.234  12.406
28346SOL    HW186871  14.359  13.238  12.366
28346SOL    HW286872  14.233  13.154  12.371
28347SOL     OW86873   8.694  14.568   8.166
28347SOL    HW186874   8.714  14.500   8.101
28347SOL    HW286875   8.778  14.586   8.209
28348SOL     OW86876  14.433   6.196   2.746
28348SOL    HW186877  14.505   6.136   2.728
28348SOL    HW286878  14.358   6.138   2.762
28349SOL     OW86879   0.956  10.147   8.360
28349SOL    HW186880   0.985  10.221   8.307
28349SOL    HW286881   0.989  10.165   8.448
28350SOL     OW86882   2.248   8.232   7.578
28350SOL    HW186883   2.188   8.163   7.549
28350SOL    HW286884   2.301   8.190   7.646
28351SOL     OW86885   2.596   0.360  12.765
28351SOL    HW186886   2.598   0.377  12.859
28351SOL    HW286887   2.503   0.361  12.742
28352SOL     OW86888   6.967   6.351   6.965
28352SOL    HW186889   7.012   6.428   6.998
28352SOL    HW286890   7.000   6.279   7.018
28353SOL     OW86891  13.302  13.262   8.580
28353SOL    HW186892  13.332  13.177   8.550
28353SOL    HW286893  13.381  13.306   8.612
28354SOL     OW86894   2.239  10.727   0.251
28354SOL    HW186895   2.177  10.750   0.320
28354SOL    HW286896   2.324  10.726   0.295
28355SOL     OW86897   7.054   5.978  12.680
28355SOL    HW186898   7.099   5.903  12.641
28355SOL    HW286899   7.091   6.054  12.635
28356SOL     OW86900   3.400  11.928   2.897
28356SOL    HW186901   3.476  11.986   2.884
28356SOL    HW286902   3.416  11.887   2.982
28357SOL     OW86903  11.030   0.038   4.665
28357SOL    HW186904  11.110   0.089   4.652
28357SOL    HW286905  10.960   0.095   4.634
28358SOL     OW86906   6.329  14.357  14.552
28358SOL    HW186907   6.352  14.318  14.636
28358SOL    HW286908   6.234  14.370  14.556
28359SOL     OW86909   2.259  10.348   9.430
28359SOL    HW186910   2.292  10.438   9.430
28359SOL    HW286911   2.163  10.359   9.428
28360SOL     OW86912  10.974  13.604   6.674
28360SOL    HW186913  10.970  13.674   6.740
28360SOL    HW286914  11.061  13.566   6.684
28361SOL     OW86915   6.201   9.721  11.202
28361SOL    HW186916   6.199   9.735  11.108
28361SOL    HW286917   6.174   9.806  11.239
28362SOL     OW86918  12.620   7.930   8.278
28362SOL    HW186919  12.633   8.025   8.275
28362SOL    HW286920  12.686   7.895   8.218
28363SOL     OW86921  12.335   9.567   7.819
28363SOL    HW186922  12.334   9.566   7.724
28363SOL    HW286923  12.280   9.493   7.845
28364SOL     OW86924   7.569  14.590   2.411
28364SOL    HW186925   7.496  14.584   2.350
28364SOL    HW286926   7.533  14.632   2.489
28365SOL     OW86927  12.940   6.578   0.422
28365SOL    HW186928  12.882   6.568   0.346
28365SOL    HW286929  13.008   6.512   0.409
28366SOL     OW86930   1.270   2.834  13.380
28366SOL    HW186931   1.310   2.747  13.384
28366SOL    HW286932   1.191   2.827  13.433
28367SOL     OW86933   5.145   2.701   5.501
28367SOL    HW186934   5.074   2.648   5.537
28367SOL    HW286935   5.224   2.666   5.543
28368SOL     OW86936   7.392  10.529  10.019
28368SOL    HW186937   7.480  10.505  10.047
28368SOL    HW286938   7.334  10.483  10.080
28369SOL     OW86939   6.074   4.475   2.674
28369SOL    HW186940   6.045   4.531   2.746
28369SOL    HW286941   6.154   4.516   2.641
28370SOL     OW86942  11.266   4.972  14.291
28370SOL    HW186943  11.282   4.899  14.351
28370SOL    HW286944  11.321   5.043  14.326
28371SOL     OW86945   2.566   7.866   0.697
28371SOL    HW186946   2.625   7.914   0.639
28371SOL    HW286947   2.545   7.786   0.649
28372SOL     OW86948   9.550   8.805   1.149
28372SOL    HW186949   9.558   8.710   1.145
28372SOL    HW286950   9.456   8.821   1.149
28373SOL     OW86951  10.664   0.048   9.844
28373SOL    HW186952  10.621   0.113   9.900
28373SOL    HW286953  10.593   0.014   9.789
28374SOL     OW86954  12.754   3.063   1.741
28374SOL    HW186955  12.698   3.127   1.785
28374SOL    HW286956  12.744   2.983   1.792
28375SOL     OW86957  13.645  10.278  11.162
28375SOL    HW186958  13.571  10.240  11.210
28375SOL    HW286959  13.659  10.219  11.088
28376SOL     OW86960  12.974   2.902   1.073
28376SOL    HW186961  12.917   2.878   1.147
28376SOL    HW286962  12.985   2.997   1.081
28377SOL     OW86963   7.440   2.220   5.900
28377SOL    HW186964   7.535   2.213   5.907
28377SOL    HW286965   7.414   2.276   5.972
28378SOL     OW86966  11.859  14.110   6.745
28378SOL    HW186967  11.810  14.191   6.744
28378SOL    HW286968  11.945  14.134   6.779
28379SOL     OW86969   8.262  14.570  10.909
28379SOL    HW186970   8.271  14.597  11.000
28379SOL    HW286971   8.333  14.507  10.895
28380SOL     OW86972   2.490  10.232   9.335
28380SOL    HW186973   2.503  10.178   9.412
28380SOL    HW286974   2.403  10.271   9.347
28381SOL     OW86975  12.376   0.465   5.062
28381SOL    HW186976  12.336   0.499   5.143
28381SOL    HW286977  12.456   0.517   5.051
28382SOL     OW86978   0.143   8.369   6.338
28382SOL    HW186979   0.116   8.280   6.360
28382SOL    HW286980   0.234   8.375   6.367
28383SOL     OW86981   6.413   9.845  12.063
28383SOL    HW186982   6.374   9.928  12.037
28383SOL    HW286983   6.508   9.860  12.056
28384SOL     OW86984  11.195   3.318   4.738
28384SOL    HW186985  11.122   3.308   4.799
28384SOL    HW286986  11.162   3.282   4.656
28385SOL     OW86987   7.642  12.357   3.583
28385SOL    HW186988   7.617  12.356   3.491
28385SOL    HW286989   7.723  12.306   3.586
28386SOL     OW86990   3.193   9.888  11.192
28386SOL    HW186991   3.226   9.978  11.200
28386SOL    HW286992   3.263   9.841  11.147
28387SOL     OW86993   5.909   8.080   6.210
28387SOL    HW186994   6.003   8.099   6.201
28387SOL    HW286995   5.869   8.118   6.132
28388SOL     OW86996  11.297  11.310   2.041
28388SOL    HW186997  11.381  11.327   2.083
28388SOL    HW286998  11.245  11.388   2.059
28389SOL     OW86999   6.956  14.087  12.359
28389SOL    HW187000   6.986  14.173  12.388
28389SOL    HW287001   7.033  14.031  12.366
28390SOL     OW87002   5.965  14.017  11.288
28390SOL    HW187003   6.050  14.058  11.274
28390SOL    HW287004   5.975  13.965  11.368
28391SOL     OW87005   7.911   4.603   3.466
28391SOL    HW187006   8.000   4.572   3.449
28391SOL    HW287007   7.895   4.581   3.558
28392SOL     OW87008   2.395  12.789   6.562
28392SOL    HW187009   2.377  12.883   6.554
28392SOL    HW287010   2.475  12.775   6.511
28393SOL     OW87011   5.516   1.537  11.108
28393SOL    HW187012   5.425   1.507  11.110
28393SOL    HW287013   5.529   1.569  11.019
28394SOL     OW87014   6.616   6.580  12.749
28394SOL    HW187015   6.658   6.655  12.791
28394SOL    HW287016   6.640   6.587  12.657
28395SOL     OW87017   9.513   1.127   7.580
28395SOL    HW187018   9.463   1.103   7.657
28395SOL    HW287019   9.464   1.200   7.542
28396SOL     OW87020   2.889   5.011   2.096
28396SOL    HW187021   2.960   5.030   2.158
28396SOL    HW287022   2.900   4.918   2.075
28397SOL     OW87023  13.755  11.517   5.245
28397SOL    HW187024  13.816  11.495   5.175
28397SOL    HW287025  13.671  11.530   5.201
28398SOL     OW87026   9.633  13.786  11.287
28398SOL    HW187027   9.657  13.829  11.205
28398SOL    HW287028   9.661  13.696  11.276
28399SOL     OW87029   0.611   1.867   3.649
28399SOL    HW187030   0.678   1.825   3.596
28399SOL    HW287031   0.542   1.889   3.587
28400SOL     OW87032   3.272   2.863   0.187
28400SOL    HW187033   3.268   2.897   0.098
28400SOL    HW287034   3.364   2.876   0.213
28401SOL     OW87035   4.108   3.223   0.089
28401SOL    HW187036   4.179   3.195   0.148
28401SOL    HW287037   4.129   3.183   0.005
28402SOL     OW87038   5.535   8.282  10.043
28402SOL    HW187039   5.510   8.242  10.127
28402SOL    HW287040   5.576   8.211   9.994
28403SOL     OW87041   8.122  11.819   7.911
28403SOL    HW187042   8.049  11.879   7.928
28403SOL    HW287043   8.097  11.738   7.956
28404SOL     OW87044   5.453   5.899   4.891
28404SOL    HW187045   5.434   5.937   4.977
28404SOL    HW287046   5.366   5.881   4.853
28405SOL     OW87047   2.033  11.533  13.871
28405SOL    HW187048   1.965  11.468  13.887
28405SOL    HW287049   2.114  11.490  13.899
28406SOL     OW87050  14.665   1.254  14.218
28406SOL    HW187051  14.730   1.275  14.285
28406SOL    HW287052  14.708   1.276  14.135
28407SOL     OW87053   9.914   7.490   2.844
28407SOL    HW187054   9.969   7.422   2.806
28407SOL    HW287055   9.972   7.539   2.902
28408SOL     OW87056   6.906  13.134  12.401
28408SOL    HW187057   6.865  13.218  12.421
28408SOL    HW287058   6.899  13.126  12.306
28409SOL     OW87059   6.411   7.924   4.556
28409SOL    HW187060   6.405   7.906   4.650
28409SOL    HW287061   6.505   7.924   4.538
28410SOL     OW87062   3.357   0.992   4.413
28410SOL    HW187063   3.286   1.051   4.438
28410SOL    HW287064   3.338   0.969   4.322
28411SOL     OW87065  13.537   3.350   0.103
28411SOL    HW187066  13.479   3.345   0.179
28411SOL    HW287067  13.609   3.406   0.132
28412SOL     OW87068   6.176   1.928   0.009
28412SOL    HW187069   6.113   1.872   0.056
28412SOL    HW287070   6.208   1.874  14.816
28413SOL     OW87071   5.374   4.792   8.394
28413SOL    HW187072   5.412   4.762   8.476
28413SOL    HW287073   5.424   4.745   8.326
28414SOL     OW87074   1.692   4.753  14.302
28414SOL    HW187075   1.657   4.765  14.214
28414SOL    HW287076   1.784   4.779  14.295
28415SOL     OW87077   0.715   4.627   7.575
28415SOL    HW187078   0.724   4.696   7.509
28415SOL    HW287079   0.728   4.672   7.659
28416SOL     OW87080   1.919   8.945   6.589
28416SOL    HW187081   1.911   8.971   6.681
28416SOL    HW287082   2.010   8.916   6.581
28417SOL     OW87083  11.939  10.135   5.477
28417SOL    HW187084  11.863  10.170   5.524
28417SOL    HW287085  11.928  10.040   5.482
28418SOL     OW87086   9.224   3.670   0.481
28418SOL    HW187087   9.137   3.630   0.496
28418SOL    HW287088   9.283   3.619   0.537
28419SOL     OW87089   2.561   2.864   0.285
28419SOL    HW187090   2.578   2.862   0.379
28419SOL    HW287091   2.580   2.775   0.255
28420SOL     OW87092  12.016   2.553   1.057
28420SOL    HW187093  12.013   2.649   1.063
28420SOL    HW287094  11.933   2.525   1.096
28421SOL     OW87095   2.151   0.231   4.926
28421SOL    HW187096   2.184   0.310   4.969
28421SOL    HW287097   2.156   0.163   4.994
28422SOL     OW87098   1.663  10.042   1.019
28422SOL    HW187099   1.650  10.024   0.926
28422SOL    HW287100   1.626  10.129   1.031
28423SOL     OW87101  10.478  13.258   0.714
28423SOL    HW187102  10.407  13.246   0.778
28423SOL    HW287103  10.557  13.229   0.760
28424SOL     OW87104   3.358   4.142   4.043
28424SOL    HW187105   3.398   4.228   4.034
28424SOL    HW287106   3.326   4.121   3.955
28425SOL     OW87107   7.263   9.308  11.149
28425SOL    HW187108   7.231   9.257  11.073
28425SOL    HW287109   7.313   9.379  11.111
28426SOL     OW87110  13.188   7.725   3.083
28426SOL    HW187111  13.258   7.661   3.068
28426SOL    HW287112  13.226   7.787   3.145
28427SOL     OW87113   7.316   0.400   5.408
28427SOL    HW187114   7.289   0.370   5.321
28427SOL    HW287115   7.374   0.474   5.390
28428SOL     OW87116   9.273   2.881   9.048
28428SOL    HW187117   9.267   2.800   9.100
28428SOL    HW287118   9.204   2.873   8.982
28429SOL     OW87119   2.982   1.173  14.106
28429SOL    HW187120   2.963   1.089  14.064
28429SOL    HW287121   2.942   1.238  14.048
28430SOL     OW87122   6.673   7.460  12.145
28430SOL    HW187123   6.738   7.391  12.160
28430SOL    HW287124   6.721   7.528  12.098
28431SOL     OW87125   5.665  12.521   7.077
28431SOL    HW187126   5.630  12.446   7.029
28431SOL    HW287127   5.715  12.571   7.013
28432SOL     OW87128   9.336   8.526   1.581
28432SOL    HW187129   9.359   8.442   1.620
28432SOL    HW287130   9.415   8.578   1.588
28433SOL     OW87131  13.640   2.988  10.910
28433SOL    HW187132  13.694   3.062  10.881
28433SOL    HW287133  13.659   2.979  11.003
28434SOL     OW87134  11.290   4.680  13.275
28434SOL    HW187135  11.266   4.772  13.275
28434SOL    HW287136  11.218   4.636  13.320
28435SOL     OW87137  11.974   8.360   5.777
28435SOL    HW187138  11.967   8.264   5.779
28435SOL    HW287139  11.969   8.386   5.869
28436SOL     OW87140  12.518  14.246   5.869
28436SOL    HW187141  12.510  14.331   5.825
28436SOL    HW287142  12.607  14.246   5.904
28437SOL     OW87143   1.927   0.342  13.494
28437SOL    HW187144   1.989   0.366  13.425
28437SOL    HW287145   1.841   0.354  13.455
28438SOL     OW87146  11.711   7.264   0.457
28438SOL    HW187147  11.805   7.258   0.441
28438SOL    HW287148  11.704   7.290   0.549
28439SOL     OW87149  11.515   1.113   1.938
28439SOL    HW187150  11.539   1.074   1.854
28439SOL    HW287151  11.573   1.071   2.002
28440SOL     OW87152  10.580   1.838   0.137
28440SOL    HW187153  10.575   1.920   0.187
28440SOL    HW287154  10.499   1.792   0.158
28441SOL     OW87155   3.226   7.310   0.659
28441SOL    HW187156   3.186   7.227   0.683
28441SOL    HW287157   3.287   7.329   0.731
28442SOL     OW87158   0.897  13.777   8.095
28442SOL    HW187159   0.834  13.845   8.118
28442SOL    HW287160   0.853  13.724   8.029
28443SOL     OW87161   3.813  10.781   5.408
28443SOL    HW187162   3.788  10.809   5.320
28443SOL    HW287163   3.837  10.689   5.397
28444SOL     OW87164  12.139   4.995   4.214
28444SOL    HW187165  12.157   4.917   4.162
28444SOL    HW287166  12.220   5.045   4.212
28445SOL     OW87167   2.858  11.168  12.785
28445SOL    HW187168   2.809  11.239  12.825
28445SOL    HW287169   2.793  11.119  12.735
28446SOL     OW87170  14.723   9.387   6.027
28446SOL    HW187171  14.732   9.293   6.018
28446SOL    HW287172  14.800   9.424   5.985
28447SOL     OW87173   1.495   7.429   1.978
28447SOL    HW187174   1.445   7.509   1.996
28447SOL    HW287175   1.547   7.416   2.057
28448SOL     OW87176   6.351  13.182   4.623
28448SOL    HW187177   6.284  13.114   4.619
28448SOL    HW287178   6.434  13.135   4.620
28449SOL     OW87179   4.692   8.318  13.296
28449SOL    HW187180   4.642   8.341  13.218
28449SOL    HW287181   4.663   8.230  13.319
28450SOL     OW87182   9.582   8.727  11.286
28450SOL    HW187183   9.574   8.821  11.270
28450SOL    HW287184   9.502   8.689  11.249
28451SOL     OW87185   1.732   2.829   6.856
28451SOL    HW187186   1.760   2.800   6.770
28451SOL    HW287187   1.683   2.754   6.891
28452SOL     OW87188   9.901   4.502  11.481
28452SOL    HW187189   9.815   4.501  11.524
28452SOL    HW287190   9.893   4.569  11.413
28453SOL     OW87191   3.466   3.105   7.650
28453SOL    HW187192   3.538   3.087   7.590
28453SOL    HW287193   3.505   3.154   7.722
28454SOL     OW87194   7.610   7.118  10.235
28454SOL    HW187195   7.675   7.168  10.186
28454SOL    HW287196   7.612   7.031  10.197
28455SOL     OW87197   9.805   5.805   7.449
28455SOL    HW187198   9.858   5.785   7.372
28455SOL    HW287199   9.835   5.744   7.516
28456SOL     OW87200  11.180   7.002  10.408
28456SOL    HW187201  11.131   6.961  10.337
28456SOL    HW287202  11.267   7.019  10.371
28457SOL     OW87203   4.295   7.381   2.960
28457SOL    HW187204   4.341   7.465   2.970
28457SOL    HW287205   4.206   7.406   2.933
28458SOL     OW87206   5.360  10.134   0.563
28458SOL    HW187207   5.422  10.150   0.491
28458SOL    HW287208   5.398  10.181   0.637
28459SOL     OW87209   2.502  11.725  12.880
28459SOL    HW187210   2.578  11.693  12.930
28459SOL    HW287211   2.540  11.779  12.811
28460SOL     OW87212  14.080   2.606  10.529
28460SOL    HW187213  14.040   2.683  10.488
28460SOL    HW287214  14.010   2.542  10.532
28461SOL     OW87215   6.688   6.113  13.425
28461SOL    HW187216   6.620   6.054  13.458
28461SOL    HW287217   6.770   6.079  13.462
28462SOL     OW87218  11.819   1.243   4.789
28462SOL    HW187219  11.780   1.257   4.703
28462SOL    HW287220  11.891   1.181   4.773
28463SOL     OW87221   8.734   5.338   0.779
28463SOL    HW187222   8.754   5.421   0.736
28463SOL    HW287223   8.649   5.312   0.743
28464SOL     OW87224   2.596   1.742   9.934
28464SOL    HW187225   2.686   1.731   9.966
28464SOL    HW287226   2.595   1.695   9.850
28465SOL     OW87227   8.698   2.158  10.069
28465SOL    HW187228   8.700   2.148   9.974
28465SOL    HW287229   8.784   2.131  10.098
28466SOL     OW87230   3.144   5.836  12.365
28466SOL    HW187231   3.116   5.798  12.448
28466SOL    HW287232   3.163   5.928  12.385
28467SOL     OW87233  13.382   7.214   6.985
28467SOL    HW187234  13.477   7.215   6.974
28467SOL    HW287235  13.352   7.297   6.948
28468SOL     OW87236  12.866   0.103   7.126
28468SOL    HW187237  12.932   0.145   7.071
28468SOL    HW287238  12.832   0.032   7.072
28469SOL     OW87239   8.995   3.764   6.876
28469SOL    HW187240   8.968   3.856   6.879
28469SOL    HW287241   9.073   3.764   6.820
28470SOL     OW87242  10.352  10.763   8.616
28470SOL    HW187243  10.260  10.746   8.637
28470SOL    HW287244  10.381  10.823   8.685
28471SOL     OW87245  12.204   6.958  11.360
28471SOL    HW187246  12.164   6.872  11.350
28471SOL    HW287247  12.231   6.982  11.272
28472SOL     OW87248   4.974   3.298   9.976
28472SOL    HW187249   5.067   3.293   9.954
28472SOL    HW287250   4.934   3.349   9.905
28473SOL     OW87251  14.389   9.777   9.648
28473SOL    HW187252  14.322   9.837   9.681
28473SOL    HW287253  14.462   9.787   9.708
28474SOL     OW87254   4.899   2.544   9.100
28474SOL    HW187255   4.987   2.548   9.137
28474SOL    HW287256   4.845   2.594   9.162
28475SOL     OW87257  12.509   4.479  10.234
28475SOL    HW187258  12.551   4.564  10.224
28475SOL    HW287259  12.515   4.461  10.328
28476SOL     OW87260   3.051   1.441   4.054
28476SOL    HW187261   3.061   1.383   3.979
28476SOL    HW287262   3.041   1.381   4.129
28477SOL     OW87263   6.033  14.421   4.962
28477SOL    HW187264   6.113  14.454   4.922
28477SOL    HW287265   5.993  14.498   5.003
28478SOL     OW87266   6.754  10.787  10.804
28478SOL    HW187267   6.713  10.791  10.890
28478SOL    HW287268   6.784  10.697  10.796
28479SOL     OW87269   3.360   2.832  12.120
28479SOL    HW187270   3.271   2.819  12.152
28479SOL    HW287271   3.351   2.843  12.025
28480SOL     OW87272   2.084   9.133  11.155
28480SOL    HW187273   2.126   9.217  11.139
28480SOL    HW287274   2.051   9.139  11.245
28481SOL     OW87275   4.392   5.193   3.171
28481SOL    HW187276   4.463   5.214   3.232
28481SOL    HW287277   4.326   5.150   3.225
28482SOL     OW87278   8.135   7.676  10.929
28482SOL    HW187279   8.058   7.731  10.939
28482SOL    HW287280   8.112   7.615  10.859
28483SOL     OW87281   4.139   4.135   0.472
28483SOL    HW187282   4.222   4.152   0.428
28483SOL    HW287283   4.158   4.146   0.565
28484SOL     OW87284  14.479  14.684   6.398
28484SOL    HW187285  14.460  14.595   6.367
28484SOL    HW287286  14.403  14.736   6.370
28485SOL     OW87287   4.879   7.039   5.194
28485SOL    HW187288   4.848   6.970   5.135
28485SOL    HW287289   4.964   7.065   5.159
28486SOL     OW87290   1.728   8.037   4.789
28486SOL    HW187291   1.799   7.997   4.739
28486SOL    HW287292   1.750   8.020   4.880
28487SOL     OW87293   3.674   2.604  12.637
28487SOL    HW187294   3.654   2.697  12.622
28487SOL    HW287295   3.638   2.585  12.723
28488SOL     OW87296   7.516   8.906   8.606
28488SOL    HW187297   7.529   8.992   8.645
28488SOL    HW287298   7.433   8.913   8.559
28489SOL     OW87299   3.377   9.028   2.165
28489SOL    HW187300   3.426   9.066   2.238
28489SOL    HW287301   3.438   8.967   2.124
28490SOL     OW87302   7.338   5.854   1.984
28490SOL    HW187303   7.416   5.806   1.957
28490SOL    HW287304   7.370   5.914   2.052
28491SOL     OW87305   9.322  11.902  11.020
28491SOL    HW187306   9.231  11.873  11.013
28491SOL    HW287307   9.342  11.937  10.933
28492SOL     OW87308   2.700   0.220   8.223
28492SOL    HW187309   2.703   0.225   8.318
28492SOL    HW287310   2.624   0.164   8.205
28493SOL     OW87311   1.723   7.678  11.117
28493SOL    HW187312   1.706   7.625  11.040
28493SOL    HW287313   1.762   7.617  11.180
28494SOL     OW87314  10.871   2.557   7.592
28494SOL    HW187315  10.961   2.532   7.569
28494SOL    HW287316  10.822   2.475   7.589
28495SOL     OW87317   7.986   9.076   4.852
28495SOL    HW187318   8.072   9.043   4.827
28495SOL    HW287319   7.981   9.062   4.947
28496SOL     OW87320  13.881  14.816   4.111
28496SOL    HW187321  13.798  14.840   4.151
28496SOL    HW287322  13.920  14.753   4.171
28497SOL     OW87323   7.959  14.276  10.134
28497SOL    HW187324   7.958  14.369  10.111
28497SOL    HW287325   8.050  14.259  10.159
28498SOL     OW87326   2.653  11.318   5.564
28498SOL    HW187327   2.622  11.273   5.485
28498SOL    HW287328   2.745  11.292   5.572
28499SOL     OW87329   8.169   8.541   6.602
28499SOL    HW187330   8.156   8.466   6.660
28499SOL    HW287331   8.082   8.579   6.591
28500SOL     OW87332  10.744   3.855   0.509
28500SOL    HW187333  10.773   3.834   0.598
28500SOL    HW287334  10.736   3.951   0.508
28501SOL     OW87335   7.942  12.550   1.277
28501SOL    HW187336   7.887  12.560   1.199
28501SOL    HW287337   7.890  12.588   1.348
28502SOL     OW87338   9.923   6.383  11.976
28502SOL    HW187339   9.951   6.471  11.949
28502SOL    HW287340   9.958   6.325  11.908
28503SOL     OW87341   5.704  11.505   3.637
28503SOL    HW187342   5.689  11.414   3.611
28503SOL    HW287343   5.746  11.545   3.561
28504SOL     OW87344  12.255  13.577  14.197
28504SOL    HW187345  12.262  13.534  14.282
28504SOL    HW287346  12.344  13.576  14.162
28505SOL     OW87347  13.957   4.848   4.218
28505SOL    HW187348  13.927   4.926   4.265
28505SOL    HW287349  13.902   4.845   4.139
28506SOL     OW87350   2.589   9.838  12.262
28506SOL    HW187351   2.571   9.880  12.177
28506SOL    HW287352   2.520   9.870  12.320
28507SOL     OW87353   8.991   5.280   8.333
28507SOL    HW187354   9.029   5.344   8.272
28507SOL    HW287355   8.930   5.230   8.278
28508SOL     OW87356   3.053   4.168  11.082
28508SOL    HW187357   3.038   4.263  11.085
28508SOL    HW287358   3.124   4.153  11.144
28509SOL     OW87359   9.494  12.089   9.568
28509SOL    HW187360   9.581  12.118   9.594
28509SOL    HW287361   9.457  12.049   9.646
28510SOL     OW87362   8.337   5.237  13.683
28510SOL    HW187363   8.248   5.209  13.703
28510SOL    HW287364   8.333   5.333  13.682
28511SOL     OW87365   3.912  12.976  11.682
28511SOL    HW187366   4.005  12.992  11.696
28511SOL    HW287367   3.889  12.910  11.748
28512SOL     OW87368   8.089   6.344   1.829
28512SOL    HW187369   8.166   6.355   1.773
28512SOL    HW287370   8.038   6.424   1.815
28513SOL     OW87371   4.631  12.291   6.164
28513SOL    HW187372   4.647  12.292   6.258
28513SOL    HW287373   4.604  12.380   6.142
28514SOL     OW87374   3.580   4.715   6.516
28514SOL    HW187375   3.575   4.746   6.607
28514SOL    HW287376   3.545   4.626   6.519
28515SOL     OW87377  10.445  10.504  12.451
28515SOL    HW187378  10.455  10.572  12.385
28515SOL    HW287379  10.533  10.468  12.462
28516SOL     OW87380  14.532   4.406  13.743
28516SOL    HW187381  14.456   4.440  13.789
28516SOL    HW287382  14.498   4.338  13.686
28517SOL     OW87383  11.973  13.621   8.743
28517SOL    HW187384  11.917  13.634   8.666
28517SOL    HW287385  11.948  13.692   8.802
28518SOL     OW87386  10.104   2.956  12.642
28518SOL    HW187387  10.167   2.893  12.679
28518SOL    HW287388  10.025   2.945  12.694
28519SOL     OW87389  10.664   5.965  12.560
28519SOL    HW187390  10.682   5.878  12.526
28519SOL    HW287391  10.736   5.984  12.619
28520SOL     OW87392   6.283  14.748   0.255
28520SOL    HW187393   6.249  14.659   0.255
28520SOL    HW287394   6.376  14.737   0.233
28521SOL     OW87395  11.141   1.496   5.858
28521SOL    HW187396  11.185   1.548   5.791
28521SOL    HW287397  11.055   1.537   5.867
28522SOL     OW87398  11.809   5.969   3.815
28522SOL    HW187399  11.881   6.021   3.850
28522SOL    HW287400  11.804   5.995   3.723
28523SOL     OW87401   4.776   6.530   8.097
28523SOL    HW187402   4.721   6.567   8.166
28523SOL    HW287403   4.810   6.606   8.049
28524SOL     OW87404  11.343   3.979  11.817
28524SOL    HW187405  11.388   4.063  11.825
28524SOL    HW287406  11.369   3.945  11.732
28525SOL     OW87407   0.198  11.772  14.767
28525SOL    HW187408   0.263  11.736  14.706
28525SOL    HW287409   0.230  11.748  14.854
28526SOL     OW87410   1.990   1.120   2.117
28526SOL    HW187411   1.979   1.027   2.094
28526SOL    HW287412   2.012   1.118   2.210
28527SOL     OW87413   1.906   3.482  14.128
28527SOL    HW187414   1.822   3.453  14.164
28527SOL    HW287415   1.966   3.479  14.202
28528SOL     OW87416   8.462  14.331   7.264
28528SOL    HW187417   8.417  14.387   7.328
28528SOL    HW287418   8.396  14.267   7.238
28529SOL     OW87419  11.068   4.876   9.333
28529SOL    HW187420  11.039   4.873   9.242
28529SOL    HW287421  11.005   4.821   9.380
28530SOL     OW87422   4.002  12.789   0.497
28530SOL    HW187423   3.944  12.721   0.463
28530SOL    HW287424   4.068  12.741   0.547
28531SOL     OW87425  14.235   4.834   4.593
28531SOL    HW187426  14.273   4.921   4.602
28531SOL    HW287427  14.213   4.808   4.683
28532SOL     OW87428   1.485   0.885   0.542
28532SOL    HW187429   1.458   0.879   0.633
28532SOL    HW287430   1.404   0.903   0.493
28533SOL     OW87431   9.857   4.613  13.735
28533SOL    HW187432   9.805   4.540  13.701
28533SOL    HW287433   9.886   4.584  13.821
28534SOL     OW87434   5.363  14.363   8.220
28534SOL    HW187435   5.341  14.300   8.289
28534SOL    HW287436   5.451  14.338   8.191
28535SOL     OW87437   1.594   8.502   9.625
28535SOL    HW187438   1.513   8.490   9.673
28535SOL    HW287439   1.661   8.457   9.677
28536SOL     OW87440  11.726   2.465   0.690
28536SOL    HW187441  11.702   2.416   0.768
28536SOL    HW287442  11.788   2.408   0.644
28537SOL     OW87443   0.569   6.704   9.416
28537SOL    HW187444   0.474   6.694   9.424
28537SOL    HW287445   0.583   6.730   9.325
28538SOL     OW87446   8.241   8.864   7.932
28538SOL    HW187447   8.149   8.861   7.905
28538SOL    HW287448   8.241   8.842   8.025
28539SOL     OW87449   7.499  14.419   2.865
28539SOL    HW187450   7.572  14.400   2.806
28539SOL    HW287451   7.514  14.361   2.940
28540SOL     OW87452  13.952   8.150   9.325
28540SOL    HW187453  13.883   8.212   9.348
28540SOL    HW287454  14.034   8.195   9.347
28541SOL     OW87455  14.800  11.069   0.333
28541SOL    HW187456  14.733  11.037   0.272
28541SOL    HW287457  14.817  11.159   0.305
28542SOL     OW87458   2.937   4.258   1.322
28542SOL    HW187459   2.949   4.353   1.323
28542SOL    HW287460   2.924   4.237   1.230
28543SOL     OW87461   5.161   7.550   0.843
28543SOL    HW187462   5.160   7.467   0.794
28543SOL    HW287463   5.161   7.618   0.776
28544SOL     OW87464   7.970   4.643   5.161
28544SOL    HW187465   7.943   4.711   5.222
28544SOL    HW287466   7.919   4.660   5.082
28545SOL     OW87467  14.538  13.775  12.781
28545SOL    HW187468  14.516  13.699  12.726
28545SOL    HW287469  14.612  13.815  12.736
28546SOL     OW87470   4.459  10.710   1.128
28546SOL    HW187471   4.400  10.725   1.202
28546SOL    HW287472   4.419  10.760   1.056
28547SOL     OW87473   5.050   5.663   4.096
28547SOL    HW187474   4.971   5.709   4.122
28547SOL    HW287475   5.095   5.643   4.179
28548SOL     OW87476   9.419   0.937   7.273
28548SOL    HW187477   9.427   0.912   7.365
28548SOL    HW287478   9.379   1.024   7.276
28549SOL     OW87479   0.108  10.310   2.939
28549SOL    HW187480   0.168  10.243   2.973
28549SOL    HW287481   0.139  10.392   2.978
28550SOL     OW87482   2.039  13.053  12.481
28550SOL    HW187483   1.974  12.991  12.514
28550SOL    HW287484   2.053  13.114  12.554
28551SOL     OW87485   2.344   1.318  10.832
28551SOL    HW187486   2.423   1.316  10.779
28551SOL    HW287487   2.375   1.310  10.922
28552SOL     OW87488  12.348   5.522   2.756
28552SOL    HW187489  12.339   5.613   2.784
28552SOL    HW287490  12.303   5.519   2.671
28553SOL     OW87491  10.318  12.995   9.672
28553SOL    HW187492  10.283  13.057   9.735
28553SOL    HW287493  10.399  13.035   9.640
28554SOL     OW87494  13.484   0.259   8.266
28554SOL    HW187495  13.540   0.186   8.293
28554SOL    HW287496  13.542   0.334   8.264
28555SOL     OW87497   9.537   4.843   6.345
28555SOL    HW187498   9.568   4.928   6.377
28555SOL    HW287499   9.544   4.849   6.250
28556SOL     OW87500  13.919  14.418  13.085
28556SOL    HW187501  13.873  14.411  13.002
28556SOL    HW287502  13.962  14.333  13.096
28557SOL     OW87503   8.913   5.650   7.878
28557SOL    HW187504   8.824   5.685   7.870
28557SOL    HW287505   8.958   5.712   7.936
28558SOL     OW87506   6.852  13.466   7.152
28558SOL    HW187507   6.832  13.449   7.244
28558SOL    HW287508   6.772  13.442   7.106
28559SOL     OW87509   8.291   2.096   4.844
28559SOL    HW187510   8.305   2.181   4.886
28559SOL    HW287511   8.215   2.060   4.889
28560SOL     OW87512   7.363  11.049   7.397
28560SOL    HW187513   7.404  11.039   7.311
28560SOL    HW287514   7.311  11.128   7.390
28561SOL     OW87515   2.761   1.132   6.929
28561SOL    HW187516   2.695   1.153   6.862
28561SOL    HW287517   2.791   1.044   6.906
28562SOL     OW87518  13.523  13.279  13.383
28562SOL    HW187519  13.580  13.349  13.351
28562SOL    HW287520  13.525  13.212  13.315
28563SOL     OW87521   7.888  10.470   7.341
28563SOL    HW187522   7.911  10.518   7.261
28563SOL    HW287523   7.856  10.537   7.401
28564SOL     OW87524   1.931   8.604   9.333
28564SOL    HW187525   1.912   8.665   9.404
28564SOL    HW287526   1.894   8.520   9.363
28565SOL     OW87527   7.020   5.651   5.769
28565SOL    HW187528   7.009   5.742   5.741
28565SOL    HW287529   6.959   5.601   5.714
28566SOL     OW87530   9.141   6.639   0.787
28566SOL    HW187531   9.133   6.678   0.874
28566SOL    HW287532   9.052   6.645   0.750
28567SOL     OW87533  14.827   3.517   6.201
28567SOL    HW187534   0.016   3.571   6.242
28567SOL    HW287535  14.858   3.427   6.213
28568SOL     OW87536  14.447   6.364  12.165
28568SOL    HW187537  14.451   6.362  12.261
28568SOL    HW287538  14.361   6.400  12.146
28569SOL     OW87539   9.496  14.062   4.370
28569SOL    HW187540   9.416  14.114   4.369
28569SOL    HW287541   9.476  13.988   4.427
28570SOL     OW87542   7.727   3.575   3.213
28570SOL    HW187543   7.737   3.663   3.177
28570SOL    HW287544   7.716   3.519   3.136
28571SOL     OW87545   2.914   7.949  10.937
28571SOL    HW187546   2.923   7.854  10.937
28571SOL    HW287547   3.004   7.982  10.940
28572SOL     OW87548  13.003   2.745   1.907
28572SOL    HW187549  13.082   2.703   1.873
28572SOL    HW287550  12.954   2.769   1.829
28573SOL     OW87551  10.476   1.730  11.691
28573SOL    HW187552  10.396   1.749  11.739
28573SOL    HW287553  10.458   1.649  11.643
28574SOL     OW87554   4.265  12.869  14.415
28574SOL    HW187555   4.175  12.889  14.439
28574SOL    HW287556   4.258  12.794  14.356
28575SOL     OW87557  12.901   4.461  14.268
28575SOL    HW187558  12.879   4.470  14.361
28575SOL    HW287559  12.964   4.389  14.266
28576SOL     OW87560   9.278  14.153  13.299
28576SOL    HW187561   9.203  14.093  13.301
28576SOL    HW287562   9.341  14.115  13.359
28577SOL     OW87563   6.579   1.691   6.836
28577SOL    HW187564   6.590   1.702   6.931
28577SOL    HW287565   6.665   1.663   6.805
28578SOL     OW87566   3.116  10.349   0.181
28578SOL    HW187567   3.038  10.331   0.130
28578SOL    HW287568   3.161  10.265   0.187
28579SOL     OW87569  12.761  14.695   2.716
28579SOL    HW187570  12.792  14.631   2.780
28579SOL    HW287571  12.744  14.643   2.637
28580SOL     OW87572   6.217   1.930  13.102
28580SOL    HW187573   6.208   2.003  13.163
28580SOL    HW287574   6.229   1.972  13.016
28581SOL     OW87575   4.965  12.616   1.776
28581SOL    HW187576   4.984  12.625   1.683
28581SOL    HW287577   4.872  12.593   1.779
28582SOL     OW87578   5.487   6.171   5.802
28582SOL    HW187579   5.462   6.127   5.721
28582SOL    HW287580   5.579   6.194   5.790
28583SOL     OW87581   0.911   6.773   3.642
28583SOL    HW187582   0.972   6.845   3.659
28583SOL    HW287583   0.967   6.695   3.639
28584SOL     OW87584   0.839   2.771   9.660
28584SOL    HW187585   0.822   2.865   9.658
28584SOL    HW287586   0.884   2.753   9.577
28585SOL     OW87587  13.093   1.358   3.574
28585SOL    HW187588  13.133   1.445   3.581
28585SOL    HW287589  13.046   1.361   3.491
28586SOL     OW87590   5.896  10.476  13.380
28586SOL    HW187591   5.973  10.449  13.330
28586SOL    HW287592   5.887  10.569  13.362
28587SOL     OW87593  10.207   7.649   3.693
28587SOL    HW187594  10.179   7.740   3.685
28587SOL    HW287595  10.128   7.601   3.718
28588SOL     OW87596   7.612  11.121  11.131
28588SOL    HW187597   7.670  11.070  11.187
28588SOL    HW287598   7.541  11.149  11.189
28589SOL     OW87599   3.927   7.155   7.377
28589SOL    HW187600   3.895   7.065   7.385
28589SOL    HW287601   4.006   7.147   7.323
28590SOL     OW87602   1.383  12.104  11.696
28590SOL    HW187603   1.469  12.071  11.720
28590SOL    HW287604   1.323  12.036  11.727
28591SOL     OW87605   2.491   2.385   9.047
28591SOL    HW187606   2.535   2.303   9.069
28591SOL    HW287607   2.398   2.365   9.055
28592SOL     OW87608  14.669  12.951   5.249
28592SOL    HW187609  14.675  13.006   5.170
28592SOL    HW287610  14.705  12.867   5.222
28593SOL     OW87611   3.310  11.348   4.981
28593SOL    HW187612   3.232  11.401   5.001
28593SOL    HW287613   3.321  11.357   4.886
28594SOL     OW87614   9.137  14.315   0.254
28594SOL    HW187615   9.132  14.226   0.288
28594SOL    HW287616   9.082  14.314   0.175
28595SOL     OW87617   5.511   1.932  14.308
28595SOL    HW187618   5.601   1.938  14.340
28595SOL    HW287619   5.511   1.855  14.251
28596SOL     OW87620   0.859   6.900   6.400
28596SOL    HW187621   0.914   6.940   6.333
28596SOL    HW287622   0.845   6.970   6.464
28597SOL     OW87623   9.037  12.737  13.431
28597SOL    HW187624   9.015  12.771  13.345
28597SOL    HW287625   9.066  12.814  13.481
28598SOL     OW87626  13.953   8.681   5.388
28598SOL    HW187627  13.980   8.765   5.424
28598SOL    HW287628  14.014   8.618   5.428
28599SOL     OW87629   2.805   0.782   3.849
28599SOL    HW187630   2.885   0.759   3.801
28599SOL    HW287631   2.739   0.721   3.815
28600SOL     OW87632  12.486   5.521   7.076
28600SOL    HW187633  12.460   5.583   7.008
28600SOL    HW287634  12.508   5.576   7.151
28601SOL     OW87635   6.556  10.792  10.265
28601SOL    HW187636   6.648  10.794  10.236
28601SOL    HW287637   6.560  10.765  10.356
28602SOL     OW87638   4.480   5.779   2.772
28602SOL    HW187639   4.496   5.777   2.677
28602SOL    HW287640   4.399   5.829   2.781
28603SOL     OW87641   0.017   1.264   0.412
28603SOL    HW187642  14.860   1.252   0.499
28603SOL    HW287643  14.871   1.184   0.364
28604SOL     OW87644   8.136   8.069   4.414
28604SOL    HW187645   8.096   7.983   4.422
28604SOL    HW287646   8.167   8.090   4.502
28605SOL     OW87647   8.432   5.023   5.597
28605SOL    HW187648   8.364   5.091   5.594
28605SOL    HW287649   8.463   5.023   5.687
28606SOL     OW87650   0.063   6.143   3.809
28606SOL    HW187651  14.871   6.108   3.863
28606SOL    HW287652   0.061   6.090   3.730
28607SOL     OW87653  10.648   5.285   7.254
28607SOL    HW187654  10.621   5.336   7.178
28607SOL    HW287655  10.646   5.347   7.327
28608SOL     OW87656  13.644  10.674   2.534
28608SOL    HW187657  13.553  10.701   2.540
28608SOL    HW287658  13.647  10.615   2.460
28609SOL     OW87659  14.706  12.884   6.091
28609SOL    HW187660  14.798  12.858   6.094
28609SOL    HW287661  14.662  12.822   6.150
28610SOL     OW87662  14.151   9.424   5.142
28610SOL    HW187663  14.117   9.435   5.053
28610SOL    HW287664  14.079   9.451   5.199
28611SOL     OW87665   4.812  10.760   4.589
28611SOL    HW187666   4.805  10.835   4.648
28611SOL    HW287667   4.870  10.699   4.634
28612SOL     OW87668   9.743   2.696   9.487
28612SOL    HW187669   9.769   2.783   9.520
28612SOL    HW287670   9.824   2.646   9.485
28613SOL     OW87671   8.116   0.572   6.829
28613SOL    HW187672   8.125   0.507   6.899
28613SOL    HW287673   8.206   0.587   6.800
28614SOL     OW87674   3.166   1.018  10.538
28614SOL    HW187675   3.143   0.984  10.451
28614SOL    HW287676   3.250   1.061  10.525
28615SOL     OW87677   9.578   1.658   0.187
28615SOL    HW187678   9.663   1.676   0.147
28615SOL    HW287679   9.514   1.678   0.119
28616SOL     OW87680  13.676   3.507   8.503
28616SOL    HW187681  13.625   3.435   8.542
28616SOL    HW287682  13.635   3.586   8.537
28617SOL     OW87683  11.312   6.156   7.735
28617SOL    HW187684  11.407   6.140   7.737
28617SOL    HW287685  11.273   6.071   7.758
28618SOL     OW87686   1.488   5.263   2.419
28618SOL    HW187687   1.422   5.319   2.377
28618SOL    HW287688   1.557   5.324   2.445
28619SOL     OW87689  13.762  13.281  12.266
28619SOL    HW187690  13.784  13.302  12.356
28619SOL    HW287691  13.838  13.308  12.215
28620SOL     OW87692   1.863  11.853   6.525
28620SOL    HW187693   1.888  11.819   6.610
28620SOL    HW287694   1.767  11.852   6.526
28621SOL     OW87695   5.608   9.914   5.140
28621SOL    HW187696   5.601   9.907   5.235
28621SOL    HW287697   5.543   9.852   5.107
28622SOL     OW87698   2.110   8.914   9.610
28622SOL    HW187699   2.182   8.876   9.661
28622SOL    HW287700   2.152   8.984   9.559
28623SOL     OW87701   2.439   2.356  10.391
28623SOL    HW187702   2.454   2.263  10.411
28623SOL    HW287703   2.346   2.361  10.370
28624SOL     OW87704   1.510  12.692   3.375
28624SOL    HW187705   1.509  12.782   3.344
28624SOL    HW287706   1.500  12.639   3.296
28625SOL     OW87707  11.206   7.082   8.376
28625SOL    HW187708  11.204   7.128   8.292
28625SOL    HW287709  11.295   7.047   8.382
28626SOL     OW87710   7.448   3.884   9.456
28626SOL    HW187711   7.501   3.848   9.527
28626SOL    HW287712   7.394   3.811   9.426
28627SOL     OW87713   8.503   4.348   7.612
28627SOL    HW187714   8.411   4.330   7.592
28627SOL    HW287715   8.548   4.267   7.590
28628SOL     OW87716   4.167   2.922  12.100
28628SOL    HW187717   4.215   2.898  12.021
28628SOL    HW287718   4.126   2.840  12.129
28629SOL     OW87719  14.526   5.943   4.913
28629SOL    HW187720  14.431   5.953   4.913
28629SOL    HW287721  14.542   5.863   4.963
28630SOL     OW87722   2.699   6.538   4.306
28630SOL    HW187723   2.688   6.589   4.386
28630SOL    HW287724   2.786   6.561   4.274
28631SOL     OW87725   4.525   7.365   9.584
28631SOL    HW187726   4.431   7.350   9.588
28631SOL    HW287727   4.563   7.277   9.591
28632SOL     OW87728  11.065   9.669   7.828
28632SOL    HW187729  11.042   9.577   7.828
28632SOL    HW287730  11.063   9.695   7.920
28633SOL     OW87731   7.082   2.194  14.414
28633SOL    HW187732   7.019   2.238  14.471
28633SOL    HW287733   7.028   2.135  14.361
28634SOL     OW87734  12.969   0.058   8.777
28634SOL    HW187735  13.009  14.865   8.728
28634SOL    HW287736  12.876   0.052   8.759
28635SOL     OW87737   3.093  10.946   1.501
28635SOL    HW187738   3.096  10.987   1.588
28635SOL    HW287739   3.000  10.944   1.479
28636SOL     OW87740   5.152   5.720   0.853
28636SOL    HW187741   5.084   5.784   0.875
28636SOL    HW287742   5.121   5.638   0.892
28637SOL     OW87743  10.490  12.012   9.409
28637SOL    HW187744  10.585  12.017   9.406
28637SOL    HW287745  10.470  11.923   9.378
28638SOL     OW87746  10.206   9.831  13.459
28638SOL    HW187747  10.274   9.897  13.470
28638SOL    HW287748  10.182   9.806  13.548
28639SOL     OW87749  11.966   8.398  10.683
28639SOL    HW187750  12.018   8.334  10.634
28639SOL    HW287751  11.978   8.480  10.635
28640SOL     OW87752   2.590   6.589  11.126
28640SOL    HW187753   2.664   6.617  11.179
28640SOL    HW287754   2.605   6.626  11.040
28641SOL     OW87755   3.246   6.189   1.927
28641SOL    HW187756   3.339   6.212   1.920
28641SOL    HW287757   3.241   6.130   2.002
28642SOL     OW87758   0.765   1.772   5.302
28642SOL    HW187759   0.741   1.702   5.241
28642SOL    HW287760   0.681   1.812   5.326
28643SOL     OW87761  10.227  11.910  13.188
28643SOL    HW187762  10.256  11.852  13.258
28643SOL    HW287763  10.237  11.998  13.224
28644SOL     OW87764   1.888   4.362   8.247
28644SOL    HW187765   1.863   4.448   8.281
28644SOL    HW287766   1.935   4.380   8.166
28645SOL     OW87767   8.551   8.249  14.608
28645SOL    HW187768   8.591   8.292  14.533
28645SOL    HW287769   8.478   8.306  14.634
28646SOL     OW87770  14.262   6.594   6.014
28646SOL    HW187771  14.321   6.579   6.088
28646SOL    HW287772  14.253   6.690   6.010
28647SOL     OW87773   1.716   4.513   5.959
28647SOL    HW187774   1.623   4.531   5.972
28647SOL    HW287775   1.752   4.595   5.926
28648SOL     OW87776   1.292   2.621   5.009
28648SOL    HW187777   1.201   2.644   5.030
28648SOL    HW287778   1.284   2.540   4.958
28649SOL     OW87779  12.208  11.318  12.379
28649SOL    HW187780  12.173  11.258  12.313
28649SOL    HW287781  12.269  11.374  12.332
28650SOL     OW87782   2.382   6.162   7.368
28650SOL    HW187783   2.293   6.129   7.355
28650SOL    HW287784   2.371   6.235   7.429
28651SOL     OW87785  10.898   6.674   8.726
28651SOL    HW187786  10.829   6.739   8.715
28651SOL    HW287787  10.853   6.594   8.750
28652SOL     OW87788   0.227   2.786   8.616
28652SOL    HW187789   0.181   2.845   8.556
28652SOL    HW287790   0.282   2.845   8.669
28653SOL     OW87791  11.610   8.427  10.712
28653SOL    HW187792  11.639   8.499  10.769
28653SOL    HW287793  11.535   8.389  10.757
28654SOL     OW87794  11.924  13.684   7.095
28654SOL    HW187795  11.998  13.664   7.038
28654SOL    HW287796  11.878  13.600   7.105
28655SOL     OW87797   0.634   6.754  11.844
28655SOL    HW187798   0.671   6.811  11.911
28655SOL    HW287799   0.706   6.737  11.784
28656SOL     OW87800  10.584   7.255   9.505
28656SOL    HW187801  10.530   7.176   9.513
28656SOL    HW287802  10.524   7.320   9.468
28657SOL     OW87803  10.425   3.818   7.522
28657SOL    HW187804  10.500   3.791   7.575
28657SOL    HW287805  10.445   3.908   7.496
28658SOL     OW87806  12.203   1.913   7.066
28658SOL    HW187807  12.145   1.837   7.068
28658SOL    HW287808  12.198   1.945   6.976
28659SOL     OW87809   7.989   1.313  11.056
28659SOL    HW187810   7.982   1.379  11.125
28659SOL    HW287811   7.986   1.230  11.104
28660SOL     OW87812   8.159   7.965   2.145
28660SOL    HW187813   8.102   8.041   2.135
28660SOL    HW287814   8.233   7.982   2.087
28661SOL     OW87815   9.525   1.289   2.938
28661SOL    HW187816   9.598   1.323   2.886
28661SOL    HW287817   9.519   1.197   2.915
28662SOL     OW87818  11.026   2.979  12.900
28662SOL    HW187819  11.098   2.952  12.843
28662SOL    HW287820  10.955   2.918  12.879
28663SOL     OW87821  13.080   6.962  12.856
28663SOL    HW187822  13.131   6.914  12.921
28663SOL    HW287823  13.138   7.032  12.827
28664SOL     OW87824  11.597   9.722  11.875
28664SOL    HW187825  11.578   9.628  11.876
28664SOL    HW287826  11.692   9.727  11.886
28665SOL     OW87827   5.913   2.303   7.757
28665SOL    HW187828   5.939   2.333   7.670
28665SOL    HW287829   5.931   2.378   7.814
28666SOL     OW87830   5.969   8.834   3.267
28666SOL    HW187831   5.938   8.809   3.354
28666SOL    HW287832   5.916   8.911   3.244
28667SOL     OW87833   4.427   3.210   3.181
28667SOL    HW187834   4.470   3.198   3.096
28667SOL    HW287835   4.448   3.131   3.230
28668SOL     OW87836   9.106   2.231  12.312
28668SOL    HW187837   9.030   2.216  12.256
28668SOL    HW287838   9.136   2.144  12.336
28669SOL     OW87839   0.006  12.688  10.361
28669SOL    HW187840   0.079  12.713  10.419
28669SOL    HW287841   0.007  12.593  10.361
28670SOL     OW87842   9.958   1.615  10.937
28670SOL    HW187843   9.880   1.621  10.993
28670SOL    HW287844   9.994   1.704  10.937
28671SOL     OW87845   3.906   4.432   2.418
28671SOL    HW187846   3.966   4.506   2.415
28671SOL    HW287847   3.820   4.470   2.402
28672SOL     OW87848   2.445   7.081   7.163
28672SOL    HW187849   2.418   7.172   7.175
28672SOL    HW287850   2.506   7.083   7.089
28673SOL     OW87851   7.198   5.035  14.859
28673SOL    HW187852   7.104   5.025  14.843
28673SOL    HW287853   7.240   5.006  14.778
28674SOL     OW87854   8.653   6.077   8.218
28674SOL    HW187855   8.644   6.101   8.310
28674SOL    HW287856   8.613   6.149   8.170
28675SOL     OW87857   9.760  13.590   2.181
28675SOL    HW187858   9.813  13.601   2.102
28675SOL    HW287859   9.716  13.506   2.169
28676SOL     OW87860  10.811   1.969   7.462
28676SOL    HW187861  10.723   2.001   7.442
28676SOL    HW287862  10.865   2.048   7.465
28677SOL     OW87863   2.399  13.293   8.125
28677SOL    HW187864   2.357  13.334   8.050
28677SOL    HW287865   2.336  13.302   8.196
28678SOL     OW87866   6.659   9.951  12.108
28678SOL    HW187867   6.650   9.973  12.201
28678SOL    HW287868   6.753   9.946  12.094
28679SOL     OW87869   4.463   7.437   6.329
28679SOL    HW187870   4.501   7.363   6.377
28679SOL    HW287871   4.369   7.428   6.343
28680SOL     OW87872  11.835  14.112   3.732
28680SOL    HW187873  11.843  14.016   3.735
28680SOL    HW287874  11.867  14.137   3.646
28681SOL     OW87875   0.740  13.123  13.616
28681SOL    HW187876   0.651  13.089  13.609
28681SOL    HW287877   0.788  13.080  13.546
28682SOL     OW87878  11.344   5.912  11.786
28682SOL    HW187879  11.370   5.893  11.695
28682SOL    HW287880  11.299   5.996  11.780
28683SOL     OW87881  10.298  12.805   4.374
28683SOL    HW187882  10.335  12.849   4.450
28683SOL    HW287883  10.278  12.716   4.405
28684SOL     OW87884  12.596   7.966   3.399
28684SOL    HW187885  12.533   7.928   3.338
28684SOL    HW287886  12.676   7.976   3.348
28685SOL     OW87887   2.082   4.616  12.739
28685SOL    HW187888   2.132   4.599  12.659
28685SOL    HW287889   2.145   4.652  12.800
28686SOL     OW87890   0.796  12.615   6.419
28686SOL    HW187891   0.771  12.584   6.332
28686SOL    HW287892   0.886  12.584   6.431
28687SOL     OW87893   1.505  13.623   9.988
28687SOL    HW187894   1.549  13.574   9.918
28687SOL    HW287895   1.567  13.620  10.061
28688SOL     OW87896  12.776  12.242   7.517
28688SOL    HW187897  12.681  12.230   7.512
28688SOL    HW287898  12.791  12.273   7.606
28689SOL     OW87899   4.337   1.451   7.910
28689SOL    HW187900   4.265   1.471   7.850
28689SOL    HW287901   4.295   1.439   7.995
28690SOL     OW87902   5.306  12.199   6.781
28690SOL    HW187903   5.357  12.164   6.709
28690SOL    HW287904   5.259  12.274   6.743
28691SOL     OW87905   6.872   2.774   1.313
28691SOL    HW187906   6.794   2.831   1.311
28691SOL    HW287907   6.887   2.758   1.406
28692SOL     OW87908  13.944  12.355  10.673
28692SOL    HW187909  13.880  12.319  10.611
28692SOL    HW287910  14.029  12.329  10.637
28693SOL     OW87911   3.884   2.369   5.494
28693SOL    HW187912   3.918   2.282   5.475
28693SOL    HW287913   3.805   2.376   5.441
28694SOL     OW87914   4.148   3.361   9.859
28694SOL    HW187915   4.190   3.295   9.914
28694SOL    HW287916   4.103   3.311   9.792
28695SOL     OW87917   7.177  12.603   4.198
28695SOL    HW187918   7.260  12.585   4.242
28695SOL    HW287919   7.125  12.524   4.212
28696SOL     OW87920   5.345  10.782   5.459
28696SOL    HW187921   5.299  10.701   5.479
28696SOL    HW287922   5.370  10.774   5.367
28697SOL     OW87923   5.981   8.362  12.598
28697SOL    HW187924   6.044   8.425  12.563
28697SOL    HW287925   6.024   8.277  12.589
28698SOL     OW87926   6.346   8.821   1.667
28698SOL    HW187927   6.255   8.797   1.654
28698SOL    HW287928   6.342   8.912   1.699
28699SOL     OW87929  10.675   3.508  13.418
28699SOL    HW187930  10.679   3.585  13.474
28699SOL    HW287931  10.706   3.539  13.333
28700SOL     OW87932   1.821   2.971   6.330
28700SOL    HW187933   1.843   3.062   6.309
28700SOL    HW287934   1.725   2.970   6.335
28701SOL     OW87935   2.367   0.402  11.849
28701SOL    HW187936   2.389   0.454  11.926
28701SOL    HW287937   2.378   0.311  11.877
28702SOL     OW87938  13.586   2.406   0.749
28702SOL    HW187939  13.621   2.338   0.807
28702SOL    HW287940  13.662   2.458   0.724
28703SOL     OW87941   3.187  11.319   9.704
28703SOL    HW187942   3.201  11.269   9.785
28703SOL    HW287943   3.142  11.258   9.646
28704SOL     OW87944  11.759   6.018   6.695
28704SOL    HW187945  11.802   5.955   6.752
28704SOL    HW287946  11.666   5.993   6.697
28705SOL     OW87947   9.592   1.482   9.407
28705SOL    HW187948   9.649   1.529   9.345
28705SOL    HW287949   9.540   1.424   9.352
28706SOL     OW87950   3.148   4.199  11.590
28706SOL    HW187951   3.166   4.125  11.648
28706SOL    HW287952   3.226   4.254  11.597
28707SOL     OW87953  11.983   5.536   9.734
28707SOL    HW187954  11.960   5.591   9.809
28707SOL    HW287955  11.924   5.564   9.665
28708SOL     OW87956   7.275  11.674  10.158
28708SOL    HW187957   7.343  11.725  10.115
28708SOL    HW287958   7.234  11.625  10.088
28709SOL     OW87959   1.803   2.332  13.247
28709SOL    HW187960   1.788   2.426  13.234
28709SOL    HW287961   1.819   2.298  13.159
28710SOL     OW87962  13.795   6.104  13.952
28710SOL    HW187963  13.844   6.070  14.027
28710SOL    HW287964  13.807   6.199  13.957
28711SOL     OW87965   7.029   5.918   5.678
28711SOL    HW187966   7.087   5.973   5.626
28711SOL    HW287967   6.990   5.978   5.742
28712SOL     OW87968  11.273   4.822   7.872
28712SOL    HW187969  11.219   4.821   7.951
28712SOL    HW287970  11.362   4.839   7.904
28713SOL     OW87971  11.750   4.986  14.354
28713SOL    HW187972  11.826   4.951  14.307
28713SOL    HW287973  11.782   5.063  14.399
28714SOL     OW87974   5.042   1.886   2.731
28714SOL    HW187975   5.002   1.971   2.750
28714SOL    HW287976   5.123   1.885   2.784
28715SOL     OW87977   7.792  13.206   9.183
28715SOL    HW187978   7.750  13.149   9.247
28715SOL    HW287979   7.755  13.293   9.200
28716SOL     OW87980   8.807   2.907  10.624
28716SOL    HW187981   8.864   2.967  10.672
28716SOL    HW287982   8.725   2.908  10.673
28717SOL     OW87983   1.683   4.345   7.942
28717SOL    HW187984   1.763   4.348   7.889
28717SOL    HW287985   1.694   4.415   8.007
28718SOL     OW87986   7.517   5.472   9.684
28718SOL    HW187987   7.474   5.540   9.736
28718SOL    HW287988   7.550   5.409   9.748
28719SOL     OW87989  10.316   7.302   6.713
28719SOL    HW187990  10.306   7.234   6.780
28719SOL    HW287991  10.405   7.334   6.724
28720SOL     OW87992   4.373   7.159   6.723
28720SOL    HW187993   4.285   7.126   6.738
28720SOL    HW287994   4.380   7.166   6.628
28721SOL     OW87995   5.400   9.513  11.382
28721SOL    HW187996   5.478   9.567  11.393
28721SOL    HW287997   5.333   9.573  11.349
28722SOL     OW87998   8.999   8.764   8.563
28722SOL    HW187999   8.994   8.753   8.658
28722SOL    HW288000   9.051   8.689   8.533
28723SOL     OW88001   6.764   4.442  13.207
28723SOL    HW188002   6.715   4.375  13.255
28723SOL    HW288003   6.799   4.499  13.276
28724SOL     OW88004   5.943   2.010   6.103
28724SOL    HW188005   5.937   2.104   6.120
28724SOL    HW288006   5.872   1.972   6.155
28725SOL     OW88007  10.969  14.536   7.709
28725SOL    HW188008  11.007  14.477   7.644
28725SOL    HW288009  10.875  14.532   7.694
28726SOL     OW88010   2.706   8.879   8.863
28726SOL    HW188011   2.760   8.939   8.811
28726SOL    HW288012   2.770   8.832   8.918
28727SOL     OW88013   8.903   8.978   3.640
28727SOL    HW188014   8.825   8.923   3.643
28727SOL    HW288015   8.975   8.918   3.660
28728SOL     OW88016   9.638  13.407   4.815
28728SOL    HW188017   9.638  13.337   4.881
28728SOL    HW288018   9.722  13.397   4.770
28729SOL     OW88019   6.957   1.099  12.730
28729SOL    HW188020   7.003   1.181  12.748
28729SOL    HW288021   6.973   1.044  12.807
28730SOL     OW88022   6.763   3.431   5.730
28730SOL    HW188023   6.692   3.390   5.780
28730SOL    HW288024   6.810   3.358   5.690
28731SOL     OW88025  12.549   6.931  12.339
28731SOL    HW188026  12.460   6.916  12.369
28731SOL    HW288027  12.580   7.005  12.391
28732SOL     OW88028   1.923   3.263   8.489
28732SOL    HW188029   1.865   3.305   8.425
28732SOL    HW288030   1.866   3.242   8.563
28733SOL     OW88031   9.960  12.520  14.046
28733SOL    HW188032   9.984  12.431  14.021
28733SOL    HW288033  10.011  12.576  13.988
28734SOL     OW88034   8.774   7.851  12.672
28734SOL    HW188035   8.832   7.776  12.657
28734SOL    HW288036   8.775   7.864  12.767
28735SOL     OW88037   2.938  12.755   9.098
28735SOL    HW188038   3.007  12.696   9.126
28735SOL    HW288039   2.983  12.839   9.084
28736SOL     OW88040  14.124  10.388   3.099
28736SOL    HW188041  14.200  10.351   3.143
28736SOL    HW288042  14.050  10.366   3.156
28737SOL     OW88043   7.376  13.774   8.235
28737SOL    HW188044   7.403  13.791   8.325
28737SOL    HW288045   7.407  13.851   8.186
28738SOL     OW88046  14.690  14.519   1.785
28738SOL    HW188047  14.647  14.486   1.864
28738SOL    HW288048  14.630  14.586   1.751
28739SOL     OW88049   5.166  12.758   2.333
28739SOL    HW188050   5.197  12.848   2.342
28739SOL    HW288051   5.148  12.747   2.240
28740SOL     OW88052  14.532  14.732  14.186
28740SOL    HW188053  14.484  14.734  14.103
28740SOL    HW288054  14.496  14.656  14.233
28741SOL     OW88055   4.648   0.966  12.122
28741SOL    HW188056   4.743   0.981  12.122
28741SOL    HW288057   4.627   0.944  12.031
28742SOL     OW88058   0.962  12.459   9.245
28742SOL    HW188059   0.881  12.481   9.291
28742SOL    HW288060   1.031  12.500   9.297
28743SOL     OW88061   3.169   8.104   5.100
28743SOL    HW188062   3.166   8.091   5.006
28743SOL    HW288063   3.156   8.198   5.112
28744SOL     OW88064   7.924  11.900   1.148
28744SOL    HW188065   7.953  11.980   1.191
28744SOL    HW288066   7.914  11.836   1.220
28745SOL     OW88067  10.098   3.558  12.037
28745SOL    HW188068  10.063   3.475  12.005
28745SOL    HW288069  10.171   3.534  12.093
28746SOL     OW88070   5.546   5.999  14.334
28746SOL    HW188071   5.618   6.009  14.272
28746SOL    HW288072   5.560   6.069  14.398
28747SOL     OW88073   5.785   7.668   7.371
28747SOL    HW188074   5.829   7.653   7.455
28747SOL    HW288075   5.850   7.640   7.306
28748SOL     OW88076  14.153   1.052   8.480
28748SOL    HW188077  14.073   1.017   8.520
28748SOL    HW288078  14.123   1.097   8.401
28749SOL     OW88079   1.391   0.451   9.770
28749SOL    HW188080   1.435   0.423   9.689
28749SOL    HW288081   1.297   0.445   9.749
28750SOL     OW88082   9.853   8.759   1.122
28750SOL    HW188083   9.765   8.784   1.093
28750SOL    HW288084   9.890   8.711   1.048
28751SOL     OW88085  11.278   3.223  11.640
28751SOL    HW188086  11.273   3.203  11.734
28751SOL    HW288087  11.187   3.226  11.611
28752SOL     OW88088   1.746  13.569   0.576
28752SOL    HW188089   1.841  13.565   0.566
28752SOL    HW288090   1.712  13.531   0.495
28753SOL     OW88091   0.342   3.391   9.436
28753SOL    HW188092   0.369   3.314   9.486
28753SOL    HW288093   0.246   3.385   9.434
28754SOL     OW88094  10.383  11.465  12.106
28754SOL    HW188095  10.342  11.507  12.182
28754SOL    HW288096  10.362  11.523  12.033
28755SOL     OW88097   3.423  12.560   5.824
28755SOL    HW188098   3.513  12.592   5.814
28755SOL    HW288099   3.369  12.630   5.787
28756SOL     OW88100   7.993   4.385   4.319
28756SOL    HW188101   8.075   4.378   4.271
28756SOL    HW288102   7.943   4.308   4.293
28757SOL     OW88103   3.325  10.450  14.080
28757SOL    HW188104   3.312  10.370  14.132
28757SOL    HW288105   3.398  10.495  14.123
28758SOL     OW88106   5.957   0.997   6.588
28758SOL    HW188107   5.974   0.931   6.521
28758SOL    HW288108   5.862   0.996   6.599
28759SOL     OW88109   2.482   7.640   5.821
28759SOL    HW188110   2.394   7.610   5.845
28759SOL    HW288111   2.485   7.731   5.850
28760SOL     OW88112  13.063   5.803   3.904
28760SOL    HW188113  13.112   5.885   3.910
28760SOL    HW288114  12.975   5.830   3.879
28761SOL     OW88115  12.134   5.430   1.406
28761SOL    HW188116  12.145   5.524   1.392
28761SOL    HW288117  12.062   5.405   1.348
28762SOL     OW88118   4.201   5.632  12.526
28762SOL    HW188119   4.225   5.599  12.439
28762SOL    HW288120   4.108   5.651  12.520
28763SOL     OW88121  13.027  12.125  13.904
28763SOL    HW188122  13.103  12.162  13.858
28763SOL    HW288123  12.964  12.197  13.906
28764SOL     OW88124   2.236   2.819   8.370
28764SOL    HW188125   2.292   2.853   8.441
28764SOL    HW288126   2.225   2.726   8.390
28765SOL     OW88127   6.787   9.938  10.304
28765SOL    HW188128   6.790   9.842  10.308
28765SOL    HW288129   6.710   9.962  10.356
28766SOL     OW88130  11.194   4.351   8.564
28766SOL    HW188131  11.223   4.437   8.592
28766SOL    HW288132  11.127   4.325   8.628
28767SOL     OW88133  11.843   0.642  12.853
28767SOL    HW188134  11.751   0.650  12.878
28767SOL    HW288135  11.849   0.558  12.809
28768SOL     OW88136   5.190   4.142   8.595
28768SOL    HW188137   5.259   4.096   8.644
28768SOL    HW288138   5.113   4.087   8.606
28769SOL     OW88139  12.972   8.783   8.162
28769SOL    HW188140  12.988   8.698   8.205
28769SOL    HW288141  13.030   8.844   8.208
28770SOL     OW88142   2.266  11.647   7.257
28770SOL    HW188143   2.343  11.591   7.249
28770SOL    HW288144   2.212  11.624   7.181
28771SOL     OW88145  10.142  13.003  14.562
28771SOL    HW188146  10.163  13.071  14.498
28771SOL    HW288147  10.111  12.929  14.509
28772SOL     OW88148   4.553   9.736  13.006
28772SOL    HW188149   4.583   9.687  13.083
28772SOL    HW288150   4.515   9.816  13.043
28773SOL     OW88151   5.581  12.546  13.012
28773SOL    HW188152   5.569  12.640  12.998
28773SOL    HW288153   5.567  12.533  13.106
28774SOL     OW88154   9.830   4.987  11.790
28774SOL    HW188155   9.882   4.948  11.720
28774SOL    HW288156   9.748   5.013  11.748
28775SOL     OW88157   7.297   7.732   7.344
28775SOL    HW188158   7.360   7.804   7.332
28775SOL    HW288159   7.223   7.773   7.389
28776SOL     OW88160  10.280  13.193  13.127
28776SOL    HW188161  10.338  13.195  13.051
28776SOL    HW288162  10.314  13.123  13.182
28777SOL     OW88163   5.151   1.153  14.754
28777SOL    HW188164   5.094   1.102  14.811
28777SOL    HW288165   5.160   1.237  14.799
28778SOL     OW88166   5.915   0.243   4.648
28778SOL    HW188167   5.844   0.306   4.658
28778SOL    HW288168   5.994   0.290   4.677
28779SOL     OW88169  11.050   1.622   7.558
28779SOL    HW188170  10.957   1.597   7.554
28779SOL    HW288171  11.069   1.656   7.471
28780SOL     OW88172  13.995   0.913   4.063
28780SOL    HW188173  14.010   0.945   4.153
28780SOL    HW288174  13.924   0.968   4.030
28781SOL     OW88175   1.549  11.421   5.270
28781SOL    HW188176   1.463  11.391   5.240
28781SOL    HW288177   1.561  11.507   5.229
28782SOL     OW88178   7.007   6.219   6.140
28782SOL    HW188179   6.979   6.309   6.120
28782SOL    HW288180   6.931   6.178   6.180
28783SOL     OW88181   6.492   0.728   3.176
28783SOL    HW188182   6.486   0.752   3.269
28783SOL    HW288183   6.405   0.695   3.154
28784SOL     OW88184   2.316   2.560  14.072
28784SOL    HW188185   2.380   2.518  14.014
28784SOL    HW288186   2.281   2.632  14.020
28785SOL     OW88187   5.485   0.956   1.392
28785SOL    HW188188   5.510   1.048   1.398
28785SOL    HW288189   5.389   0.957   1.386
28786SOL     OW88190  13.601  13.891   0.579
28786SOL    HW188191  13.647  13.960   0.531
28786SOL    HW288192  13.508  13.913   0.568
28787SOL     OW88193   1.151   3.913   5.973
28787SOL    HW188194   1.213   3.980   6.001
28787SOL    HW288195   1.108   3.885   6.053
28788SOL     OW88196   8.573   1.772   5.845
28788SOL    HW188197   8.560   1.815   5.930
28788SOL    HW288198   8.600   1.843   5.787
28789SOL     OW88199  13.547   6.090   3.912
28789SOL    HW188200  13.496   6.165   3.942
28789SOL    HW288201  13.629   6.094   3.962
28790SOL     OW88202   0.902   7.644   2.501
28790SOL    HW188203   0.876   7.583   2.569
28790SOL    HW288204   0.848   7.620   2.425
28791SOL     OW88205   1.119   3.306   9.523
28791SOL    HW188206   1.030   3.334   9.501
28791SOL    HW288207   1.120   3.303   9.619
28792SOL     OW88208  13.442   5.448  11.387
28792SOL    HW188209  13.430   5.357  11.413
28792SOL    HW288210  13.356   5.488  11.401
28793SOL     OW88211   3.826   5.298   3.677
28793SOL    HW188212   3.735   5.319   3.657
28793SOL    HW288213   3.821   5.231   3.746
28794SOL     OW88214  12.784  13.818  10.978
28794SOL    HW188215  12.773  13.777  10.893
28794SOL    HW288216  12.869  13.862  10.973
28795SOL     OW88217   7.734   2.982   1.011
28795SOL    HW188218   7.784   2.984   1.093
28795SOL    HW288219   7.662   2.922   1.029
28796SOL     OW88220   0.836   0.532   3.732
28796SOL    HW188221   0.853   0.511   3.640
28796SOL    HW288222   0.742   0.548   3.737
28797SOL     OW88223  10.629   0.275  13.242
28797SOL    HW188224  10.534   0.284  13.235
28797SOL    HW288225  10.665   0.352  13.197
28798SOL     OW88226   3.521   5.358  12.916
28798SOL    HW188227   3.604   5.317  12.892
28798SOL    HW288228   3.493   5.404  12.837
28799SOL     OW88229  11.583   4.173   9.454
28799SOL    HW188230  11.547   4.213   9.375
28799SOL    HW288231  11.617   4.247   9.505
28800SOL     OW88232   6.073   6.086   2.166
28800SOL    HW188233   6.054   6.039   2.085
28800SOL    HW288234   5.991   6.084   2.215
28801SOL     OW88235  10.909  14.279   1.229
28801SOL    HW188236  10.886  14.315   1.143
28801SOL    HW288237  10.937  14.189   1.211
28802SOL     OW88238   7.289   3.965   1.409
28802SOL    HW188239   7.302   4.039   1.470
28802SOL    HW288240   7.195   3.967   1.389
28803SOL     OW88241  12.121  13.612   6.427
28803SOL    HW188242  12.083  13.698   6.407
28803SOL    HW288243  12.182  13.629   6.498
28804SOL     OW88244   5.859   7.526  13.574
28804SOL    HW188245   5.818   7.488  13.651
28804SOL    HW288246   5.818   7.611  13.564
28805SOL     OW88247  14.866  14.585  11.127
28805SOL    HW188248   0.071  14.605  11.086
28805SOL    HW288249  14.879  14.499  11.166
28806SOL     OW88250   9.627   7.462   2.742
28806SOL    HW188251   9.597   7.529   2.803
28806SOL    HW288252   9.712   7.434   2.776
28807SOL     OW88253   8.938  12.384   4.179
28807SOL    HW188254   8.973  12.298   4.200
28807SOL    HW288255   9.001  12.446   4.216
28808SOL     OW88256  11.761   6.527   7.310
28808SOL    HW188257  11.782   6.433   7.313
28808SOL    HW288258  11.760   6.554   7.402
28809SOL     OW88259   4.480   9.674   3.124
28809SOL    HW188260   4.527   9.705   3.046
28809SOL    HW288261   4.400   9.634   3.090
28810SOL     OW88262  13.295  13.708   0.891
28810SOL    HW188263  13.271  13.766   0.818
28810SOL    HW288264  13.243  13.741   0.965
28811SOL     OW88265   5.983  11.865   4.857
28811SOL    HW188266   5.921  11.801   4.822
28811SOL    HW288267   5.934  11.913   4.923
28812SOL     OW88268   0.305   5.256   8.655
28812SOL    HW188269   0.279   5.180   8.603
28812SOL    HW288270   0.228   5.275   8.709
28813SOL     OW88271   5.315  13.055   5.738
28813SOL    HW188272   5.405  13.046   5.707
28813SOL    HW288273   5.310  13.144   5.772
28814SOL     OW88274   7.942   6.807   5.293
28814SOL    HW188275   7.928   6.902   5.303
28814SOL    HW288276   7.945   6.793   5.199
28815SOL     OW88277   6.338   9.733   1.761
28815SOL    HW188278   6.264   9.731   1.700
28815SOL    HW288279   6.371   9.823   1.756
28816SOL     OW88280  14.322   9.509   0.240
28816SOL    HW188281  14.297   9.513   0.148
28816SOL    HW288282  14.327   9.601   0.268
28817SOL     OW88283   0.602   5.051  10.231
28817SOL    HW188284   0.514   5.036  10.198
28817SOL    HW288285   0.595   5.035  10.325
28818SOL     OW88286   7.312  14.168  13.667
28818SOL    HW188287   7.275  14.248  13.629
28818SOL    HW288288   7.245  14.138  13.728
28819SOL     OW88289   4.047   9.803  10.447
28819SOL    HW188290   3.975   9.834  10.501
28819SOL    HW288291   4.004   9.764  10.370
28820SOL     OW88292   0.354   8.024   2.128
28820SOL    HW188293   0.294   7.955   2.156
28820SOL    HW288294   0.381   8.067   2.209
28821SOL     OW88295   5.785  14.806   4.919
28821SOL    HW188296   5.726  14.731   4.919
28821SOL    HW288297   5.731   0.001   4.891
28822SOL     OW88298   5.500   6.145  11.060
28822SOL    HW188299   5.406   6.129  11.051
28822SOL    HW288300   5.532   6.145  10.970
28823SOL     OW88301   0.439   3.874  14.284
28823SOL    HW188302   0.485   3.793  14.306
28823SOL    HW288303   0.390   3.897  14.362
28824SOL     OW88304   2.555   8.988  10.617
28824SOL    HW188305   2.635   9.018  10.661
28824SOL    HW288306   2.484   9.023  10.671
28825SOL     OW88307   3.927   3.606   4.308
28825SOL    HW188308   4.014   3.638   4.332
28825SOL    HW288309   3.867   3.662   4.355
28826SOL     OW88310   6.511   5.330   3.611
28826SOL    HW188311   6.496   5.262   3.545
28826SOL    HW288312   6.424   5.357   3.639
28827SOL     OW88313  11.446   3.941  14.823
28827SOL    HW188314  11.370   3.987  14.786
28827SOL    HW288315  11.475   3.997   0.016
28828SOL     OW88316   2.398  13.506  12.056
28828SOL    HW188317   2.303  13.513  12.043
28828SOL    HW288318   2.429  13.452  11.984
28829SOL     OW88319   3.784  11.436   1.542
28829SOL    HW188320   3.694  11.456   1.515
28829SOL    HW288321   3.838  11.490   1.484
28830SOL     OW88322  13.942   7.607   9.187
28830SOL    HW188323  13.866   7.661   9.166
28830SOL    HW288324  13.998   7.664   9.240
28831SOL     OW88325   3.048   9.697   8.616
28831SOL    HW188326   3.077   9.630   8.677
28831SOL    HW288327   3.040   9.777   8.669
28832SOL     OW88328   0.299  12.449   0.469
28832SOL    HW188329   0.240  12.504   0.521
28832SOL    HW288330   0.241  12.399   0.412
28833SOL     OW88331  12.268  14.335   6.019
28833SOL    HW188332  12.226  14.416   5.991
28833SOL    HW288333  12.320  14.308   5.943
28834SOL     OW88334   5.468   7.080  12.058
28834SOL    HW188335   5.405   7.021  12.018
28834SOL    HW288336   5.549   7.029  12.063
28835SOL     OW88337  10.533   9.750   9.650
28835SOL    HW188338  10.540   9.810   9.724
28835SOL    HW288339  10.623   9.737   9.620
28836SOL     OW88340   7.404   7.766   5.150
28836SOL    HW188341   7.350   7.791   5.225
28836SOL    HW288342   7.487   7.739   5.189
28837SOL     OW88343  10.124  11.495   3.041
28837SOL    HW188344  10.212  11.507   3.005
28837SOL    HW288345  10.135  11.430   3.110
28838SOL     OW88346   6.010   0.958   1.527
28838SOL    HW188347   6.035   0.908   1.605
28838SOL    HW288348   5.927   0.919   1.499
28839SOL     OW88349  14.098   3.033  12.865
28839SOL    HW188350  14.166   2.986  12.817
28839SOL    HW288351  14.124   3.125  12.859
28840SOL     OW88352  13.670   3.027  14.125
28840SOL    HW188353  13.683   2.962  14.057
28840SOL    HW288354  13.661   3.110  14.077
28841SOL     OW88355   5.366  12.390   7.803
28841SOL    HW188356   5.423  12.466   7.813
28841SOL    HW288357   5.424  12.320   7.771
28842SOL     OW88358   6.418  13.766  11.604
28842SOL    HW188359   6.394  13.813  11.684
28842SOL    HW288360   6.342  13.709  11.587
28843SOL     OW88361   0.457   7.898   5.652
28843SOL    HW188362   0.546   7.863   5.655
28843SOL    HW288363   0.402   7.823   5.629
28844SOL     OW88364   2.954  14.189   9.698
28844SOL    HW188365   2.935  14.121   9.763
28844SOL    HW288366   2.894  14.171   9.626
28845SOL     OW88367   2.663  10.752   2.164
28845SOL    HW188368   2.593  10.744   2.100
28845SOL    HW288369   2.740  10.712   2.122
28846SOL     OW88370   1.764   2.071  12.307
28846SOL    HW188371   1.773   2.046  12.399
28846SOL    HW288372   1.672   2.093  12.296
28847SOL     OW88373  12.145  12.400   9.284
28847SOL    HW188374  12.064  12.353   9.307
28847SOL    HW288375  12.181  12.428   9.367
28848SOL     OW88376   1.326  12.534   2.793
28848SOL    HW188377   1.393  12.465   2.797
28848SOL    HW288378   1.245  12.491   2.821
28849SOL     OW88379   0.531  13.485   4.180
28849SOL    HW188380   0.486  13.512   4.260
28849SOL    HW288381   0.498  13.544   4.112
28850SOL     OW88382  10.503   6.554   8.223
28850SOL    HW188383  10.577   6.508   8.262
28850SOL    HW288384  10.501   6.639   8.266
28851SOL     OW88385   2.459   2.326   0.678
28851SOL    HW188386   2.507   2.246   0.657
28851SOL    HW288387   2.450   2.325   0.773
28852SOL     OW88388   9.375  10.474   8.844
28852SOL    HW188389   9.414  10.387   8.833
28852SOL    HW288390   9.317  10.465   8.919
28853SOL     OW88391   9.882  11.270   4.040
28853SOL    HW188392   9.973  11.282   4.013
28853SOL    HW288393   9.868  11.176   4.039
28854SOL     OW88394  11.324  14.269   2.407
28854SOL    HW188395  11.348  14.329   2.478
28854SOL    HW288396  11.334  14.321   2.328
28855SOL     OW88397   9.944   1.670   4.927
28855SOL    HW188398   9.949   1.681   4.832
28855SOL    HW288399   9.856   1.636   4.943
28856SOL     OW88400   1.677   3.350  11.884
28856SOL    HW188401   1.619   3.365  11.959
28856SOL    HW288402   1.727   3.432  11.876
28857SOL     OW88403   5.018   4.776   1.075
28857SOL    HW188404   5.013   4.857   1.025
28857SOL    HW288405   5.080   4.721   1.026
28858SOL     OW88406   7.731  13.980   1.783
28858SOL    HW188407   7.638  14.000   1.769
28858SOL    HW288408   7.734  13.938   1.869
28859SOL     OW88409   5.588   4.809  10.885
28859SOL    HW188410   5.667   4.861  10.874
28859SOL    HW288411   5.606   4.728  10.838
28860SOL     OW88412   3.234   6.417   8.570
28860SOL    HW188413   3.294   6.362   8.522
28860SOL    HW288414   3.163   6.359   8.597
28861SOL     OW88415  10.525   3.054   6.964
28861SOL    HW188416  10.497   2.985   6.903
28861SOL    HW288417  10.484   3.029   7.047
28862SOL     OW88418   4.142   5.705  10.719
28862SOL    HW188419   4.060   5.685  10.675
28862SOL    HW288420   4.128   5.790  10.760
28863SOL     OW88421  13.599   9.168   0.643
28863SOL    HW188422  13.668   9.221   0.683
28863SOL    HW288423  13.518   9.215   0.663
28864SOL     OW88424  12.451   7.295   5.784
28864SOL    HW188425  12.546   7.303   5.781
28864SOL    HW288426  12.434   7.202   5.765
28865SOL     OW88427  14.768   6.773  11.092
28865SOL    HW188428  14.695   6.724  11.055
28865SOL    HW288429  14.822   6.706  11.134
28866SOL     OW88430  14.270  10.577   8.048
28866SOL    HW188431  14.272  10.621   8.133
28866SOL    HW288432  14.317  10.637   7.990
28867SOL     OW88433   7.600   9.151  14.590
28867SOL    HW188434   7.527   9.115  14.641
28867SOL    HW288435   7.678   9.129  14.640
28868SOL     OW88436  14.791   2.133   9.787
28868SOL    HW188437  14.753   2.212   9.825
28868SOL    HW288438   0.006   2.139   9.806
28869SOL     OW88439  13.170   9.513   8.688
28869SOL    HW188440  13.102   9.581   8.689
28869SOL    HW288441  13.147   9.455   8.760
28870SOL     OW88442  10.996  12.957   3.025
28870SOL    HW188443  11.053  12.880   3.034
28870SOL    HW288444  10.917  12.923   2.983
28871SOL     OW88445   8.221   6.794   7.702
28871SOL    HW188446   8.146   6.736   7.704
28871SOL    HW288447   8.294   6.740   7.733
28872SOL     OW88448   2.742  12.500  12.208
28872SOL    HW188449   2.819  12.499  12.265
28872SOL    HW288450   2.743  12.415  12.164
28873SOL     OW88451   7.632   8.318   8.677
28873SOL    HW188452   7.656   8.310   8.585
28873SOL    HW288453   7.650   8.233   8.715
28874SOL     OW88454  13.428   4.823   3.232
28874SOL    HW188455  13.441   4.729   3.244
28874SOL    HW288456  13.393   4.830   3.143
28875SOL     OW88457   1.260   0.197   6.263
28875SOL    HW188458   1.311   0.278   6.272
28875SOL    HW288459   1.217   0.205   6.178
28876SOL     OW88460   1.217  12.439   3.919
28876SOL    HW188461   1.134  12.475   3.888
28876SOL    HW288462   1.195  12.390   3.998
28877SOL     OW88463   5.262   9.770  10.265
28877SOL    HW188464   5.305   9.685  10.275
28877SOL    HW288465   5.257   9.783  10.170
28878SOL     OW88466  10.704   8.395  12.672
28878SOL    HW188467  10.668   8.307  12.663
28878SOL    HW288468  10.785   8.393  12.621
28879SOL     OW88469   5.286   9.970   6.059
28879SOL    HW188470   5.235   9.985   5.980
28879SOL    HW288471   5.354   9.908   6.033
28880SOL     OW88472  12.640   2.181  13.476
28880SOL    HW188473  12.711   2.234  13.513
28880SOL    HW288474  12.587   2.156  13.552
28881SOL     OW88475   5.954  13.632   7.152
28881SOL    HW188476   6.027  13.691   7.166
28881SOL    HW288477   5.882  13.689   7.123
28882SOL     OW88478   0.654   9.539  11.589
28882SOL    HW188479   0.659   9.445  11.570
28882SOL    HW288480   0.594   9.545  11.663
28883SOL     OW88481   7.852  11.522  12.217
28883SOL    HW188482   7.762  11.490  12.210
28883SOL    HW288483   7.854  11.600  12.160
28884SOL     OW88484   7.431   4.301   5.713
28884SOL    HW188485   7.350   4.337   5.750
28884SOL    HW288486   7.499   4.362   5.740
28885SOL     OW88487  14.286   1.365  13.526
28885SOL    HW188488  14.262   1.407  13.609
28885SOL    HW288489  14.202   1.348  13.483
28886SOL     OW88490   3.978  12.599   1.435
28886SOL    HW188491   3.987  12.517   1.482
28886SOL    HW288492   4.038  12.659   1.480
28887SOL     OW88493  14.798   8.487   9.630
28887SOL    HW188494  14.771   8.437   9.707
28887SOL    HW288495   0.009   8.513   9.648
28888SOL     OW88496  10.951   2.682  12.489
28888SOL    HW188497  11.044   2.696  12.507
28888SOL    HW288498  10.907   2.708  12.570
28889SOL     OW88499  11.707   4.618  13.887
28889SOL    HW188500  11.632   4.642  13.832
28889SOL    HW288501  11.763   4.695  13.885
28890SOL     OW88502   1.231   7.744   4.228
28890SOL    HW188503   1.192   7.799   4.296
28890SOL    HW288504   1.325   7.758   4.237
28891SOL     OW88505  11.441  10.316  12.883
28891SOL    HW188506  11.376  10.367  12.932
28891SOL    HW288507  11.522  10.326  12.934
28892SOL     OW88508   4.373   6.158   3.194
28892SOL    HW188509   4.362   6.193   3.282
28892SOL    HW288510   4.310   6.206   3.141
28893SOL     OW88511   8.880  13.955   9.674
28893SOL    HW188512   8.953  13.903   9.640
28893SOL    HW288513   8.855  14.012   9.602
28894SOL     OW88514   6.186  11.265  11.572
28894SOL    HW188515   6.100  11.305  11.563
28894SOL    HW288516   6.237  11.328  11.623
28895SOL     OW88517   8.702  13.244   8.058
28895SOL    HW188518   8.716  13.304   7.985
28895SOL    HW288519   8.683  13.300   8.132
28896SOL     OW88520  14.738   5.626   0.835
28896SOL    HW188521  14.738   5.530   0.827
28896SOL    HW288522  14.826   5.648   0.866
28897SOL     OW88523   7.578  10.543   3.437
28897SOL    HW188524   7.651  10.545   3.375
28897SOL    HW288525   7.604  10.477   3.502
28898SOL     OW88526   6.833  12.337  11.196
28898SOL    HW188527   6.796  12.324  11.283
28898SOL    HW288528   6.826  12.432  11.181
28899SOL     OW88529   6.035   3.878   9.979
28899SOL    HW188530   6.084   3.956   9.954
28899SOL    HW288531   5.945   3.909   9.988
28900SOL     OW88532  13.305  13.657  11.492
28900SOL    HW188533  13.352  13.597  11.550
28900SOL    HW288534  13.263  13.600  11.428
28901SOL     OW88535   7.713   3.002   4.134
28901SOL    HW188536   7.710   3.078   4.076
28901SOL    HW288537   7.664   2.934   4.087
28902SOL     OW88538  14.355   5.055   4.654
28902SOL    HW188539  14.372   5.112   4.579
28902SOL    HW288540  14.363   5.112   4.730
28903SOL     OW88541  13.648   7.483   6.382
28903SOL    HW188542  13.719   7.420   6.389
28903SOL    HW288543  13.687   7.559   6.340
28904SOL     OW88544   4.949   4.791  11.463
28904SOL    HW188545   4.946   4.785  11.559
28904SOL    HW288546   4.934   4.884  11.445
28905SOL     OW88547   2.171   5.641   2.347
28905SOL    HW188548   2.091   5.691   2.335
28905SOL    HW288549   2.229   5.700   2.395
28906SOL     OW88550   0.430   0.324   7.531
28906SOL    HW188551   0.344   0.281   7.534
28906SOL    HW288552   0.493   0.252   7.540
28907SOL     OW88553   0.537  12.031  12.935
28907SOL    HW188554   0.459  12.057  12.984
28907SOL    HW288555   0.596  11.995  13.001
28908SOL     OW88556  14.480   4.045   9.476
28908SOL    HW188557  14.512   4.021   9.564
28908SOL    HW288558  14.500   4.138   9.468
28909SOL     OW88559  14.672   9.524   4.410
28909SOL    HW188560  14.623   9.476   4.344
28909SOL    HW288561  14.761   9.487   4.406
28910SOL     OW88562  13.085   4.845   5.075
28910SOL    HW188563  13.022   4.896   5.025
28910SOL    HW288564  13.062   4.754   5.058
28911SOL     OW88565  12.752   6.497   8.548
28911SOL    HW188566  12.738   6.407   8.518
28911SOL    HW288567  12.847   6.506   8.555
28912SOL     OW88568   4.915  11.029   2.087
28912SOL    HW188569   4.870  10.945   2.097
28912SOL    HW288570   4.997  11.007   2.043
28913SOL     OW88571   6.553   0.146   4.963
28913SOL    HW188572   6.471   0.185   4.993
28913SOL    HW288573   6.613   0.155   5.037
28914SOL     OW88574   9.866   2.087   4.458
28914SOL    HW188575   9.823   2.026   4.518
28914SOL    HW288576   9.863   2.172   4.503
28915SOL     OW88577   1.091  10.183  11.295
28915SOL    HW188578   0.998  10.203  11.292
28915SOL    HW288579   1.132  10.265  11.321
28916SOL     OW88580   3.498   2.171   7.206
28916SOL    HW188581   3.555   2.174   7.282
28916SOL    HW288582   3.555   2.145   7.134
28917SOL     OW88583   3.782   8.698  14.683
28917SOL    HW188584   3.841   8.638  14.639
28917SOL    HW288585   3.743   8.646  14.753
28918SOL     OW88586  10.541   2.360   2.905
28918SOL    HW188587  10.546   2.270   2.873
28918SOL    HW288588  10.554   2.352   3.000
28919SOL     OW88589  12.480   8.208   2.001
28919SOL    HW188590  12.485   8.140   2.068
28919SOL    HW288591  12.561   8.200   1.952
28920SOL     OW88592   5.753   6.021  14.154
28920SOL    HW188593   5.812   6.095  14.142
28920SOL    HW288594   5.724   5.998  14.065
28921SOL     OW88595   6.347   8.821   2.092
28921SOL    HW188596   6.422   8.873   2.064
28921SOL    HW288597   6.275   8.884   2.097
28922SOL     OW88598   5.260   9.527  14.635
28922SOL    HW188599   5.294   9.614  14.652
28922SOL    HW288600   5.330   9.468  14.666
28923SOL     OW88601  14.671   1.616   6.300
28923SOL    HW188602  14.729   1.577   6.365
28923SOL    HW288603  14.662   1.707   6.327
28924SOL     OW88604   3.931   2.810   6.250
28924SOL    HW188605   3.836   2.815   6.261
28924SOL    HW288606   3.943   2.763   6.167
28925SOL     OW88607  14.304   3.083   4.302
28925SOL    HW188608  14.312   3.081   4.397
28925SOL    HW288609  14.395   3.078   4.270
28926SOL     OW88610   1.192   9.164   6.099
28926SOL    HW188611   1.236   9.142   6.181
28926SOL    HW288612   1.223   9.252   6.078
28927SOL     OW88613  13.396  10.484  11.306
28927SOL    HW188614  13.347  10.458  11.384
28927SOL    HW288615  13.484  10.505  11.339
28928SOL     OW88616   6.439   2.304  12.563
28928SOL    HW188617   6.347   2.322  12.542
28928SOL    HW288618   6.440   2.213  12.591
28929SOL     OW88619  13.053   7.042   7.128
28929SOL    HW188620  13.035   7.120   7.076
28929SOL    HW288621  12.980   6.983   7.110
28930SOL     OW88622  10.858   3.743   1.681
28930SOL    HW188623  10.789   3.706   1.626
28930SOL    HW288624  10.936   3.691   1.659
28931SOL     OW88625  13.263   2.735   9.908
28931SOL    HW188626  13.217   2.676   9.968
28931SOL    HW288627  13.238   2.823   9.938
28932SOL     OW88628   3.696   4.090   1.501
28932SOL    HW188629   3.675   4.034   1.425
28932SOL    HW288630   3.623   4.075   1.561
28933SOL     OW88631   9.568   2.053  11.818
28933SOL    HW188632   9.572   2.117  11.747
28933SOL    HW288633   9.570   2.105  11.898
28934SOL     OW88634  10.670   4.439   7.039
28934SOL    HW188635  10.734   4.442   7.110
28934SOL    HW288636  10.692   4.514   6.984
28935SOL     OW88637   3.701   4.968   1.506
28935SOL    HW188638   3.736   4.888   1.466
28935SOL    HW288639   3.758   5.037   1.473
28936SOL     OW88640   0.098   3.530   6.888
28936SOL    HW188641   0.176   3.507   6.939
28936SOL    HW288642   0.130   3.532   6.797
28937SOL     OW88643   0.191   2.864   3.840
28937SOL    HW188644   0.210   2.952   3.809
28937SOL    HW288645   0.144   2.823   3.767
28938SOL     OW88646   4.809   2.092   4.797
28938SOL    HW188647   4.877   2.046   4.847
28938SOL    HW288648   4.784   2.166   4.852
28939SOL     OW88649   4.166   3.844   2.806
28939SOL    HW188650   4.195   3.767   2.854
28939SOL    HW288651   4.163   3.913   2.872
28940SOL     OW88652   0.142   3.411   2.820
28940SOL    HW188653   0.064   3.464   2.804
28940SOL    HW288654   0.197   3.426   2.743
28941SOL     OW88655  12.378   1.740   4.733
28941SOL    HW188656  12.326   1.793   4.795
28941SOL    HW288657  12.318   1.722   4.661
28942SOL     OW88658   4.621  14.581  10.674
28942SOL    HW188659   4.615  14.510  10.610
28942SOL    HW288660   4.701  14.628  10.650
28943SOL     OW88661   5.730  11.186   0.215
28943SOL    HW188662   5.697  11.240   0.143
28943SOL    HW288663   5.679  11.105   0.210
28944SOL     OW88664   4.349   7.326  11.545
28944SOL    HW188665   4.257   7.309  11.522
28944SOL    HW288666   4.399   7.295  11.470
28945SOL     OW88667  10.721  14.059  10.856
28945SOL    HW188668  10.785  13.989  10.848
28945SOL    HW288669  10.771  14.134  10.890
28946SOL     OW88670   7.332   0.185  13.554
28946SOL    HW188671   7.385   0.110  13.581
28946SOL    HW288672   7.245   0.149  13.539
28947SOL     OW88673  11.813  12.723   7.262
28947SOL    HW188674  11.884  12.676   7.305
28947SOL    HW288675  11.786  12.789   7.326
28948SOL     OW88676  12.416   1.707   6.071
28948SOL    HW188677  12.508   1.681   6.068
28948SOL    HW288678  12.383   1.686   5.984
28949SOL     OW88679  11.460  10.846   4.920
28949SOL    HW188680  11.370  10.816   4.915
28949SOL    HW288681  11.490  10.849   4.829
28950SOL     OW88682   1.813   2.368   4.464
28950SOL    HW188683   1.891   2.408   4.426
28950SOL    HW288684   1.842   2.331   4.547
28951SOL     OW88685   2.585   6.613  10.001
28951SOL    HW188686   2.528   6.680  10.037
28951SOL    HW288687   2.538   6.531  10.015
28952SOL     OW88688   9.939  12.925   0.453
28952SOL    HW188689   9.854  12.927   0.409
28952SOL    HW288690   9.995  12.980   0.398
28953SOL     OW88691   4.222   1.362   5.588
28953SOL    HW188692   4.267   1.279   5.574
28953SOL    HW288693   4.279   1.410   5.649
28954SOL     OW88694   5.827   5.031   5.719
28954SOL    HW188695   5.857   5.122   5.722
28954SOL    HW288696   5.886   4.988   5.658
28955SOL     OW88697  11.180   5.105   9.435
28955SOL    HW188698  11.150   5.018   9.408
28955SOL    HW288699  11.173   5.158   9.356
28956SOL     OW88700  13.176  11.552   4.388
28956SOL    HW188701  13.167  11.588   4.299
28956SOL    HW288702  13.237  11.479   4.378
28957SOL     OW88703   2.161   0.970   0.520
28957SOL    HW188704   2.066   0.963   0.532
28957SOL    HW288705   2.192   0.880   0.523
28958SOL     OW88706   1.367  12.192  10.655
28958SOL    HW188707   1.292  12.204  10.597
28958SOL    HW288708   1.341  12.121  10.714
28959SOL     OW88709   1.901   7.288   5.489
28959SOL    HW188710   1.830   7.350   5.507
28959SOL    HW288711   1.964   7.302   5.560
28960SOL     OW88712   6.104  11.678  14.242
28960SOL    HW188713   6.024  11.624  14.242
28960SOL    HW288714   6.087  11.745  14.309
28961SOL     OW88715   4.491   2.163   3.919
28961SOL    HW188716   4.585   2.163   3.939
28961SOL    HW288717   4.481   2.094   3.853
28962SOL     OW88718   8.032   6.550   6.905
28962SOL    HW188719   8.119   6.510   6.906
28962SOL    HW288720   8.016   6.573   6.997
28963SOL     OW88721   1.705   3.825   2.752
28963SOL    HW188722   1.744   3.754   2.701
28963SOL    HW288723   1.684   3.892   2.687
28964SOL     OW88724   8.422   9.128  13.697
28964SOL    HW188725   8.499   9.086  13.659
28964SOL    HW288726   8.347   9.085  13.655
28965SOL     OW88727   5.693   7.605   2.738
28965SOL    HW188728   5.683   7.683   2.793
28965SOL    HW288729   5.788   7.591   2.736
28966SOL     OW88730   4.592   3.446   5.896
28966SOL    HW188731   4.616   3.448   5.989
28966SOL    HW288732   4.561   3.534   5.877
28967SOL     OW88733   0.249   6.622   5.164
28967SOL    HW188734   0.237   6.694   5.102
28967SOL    HW288735   0.296   6.661   5.238
28968SOL     OW88736   8.887  14.266  13.775
28968SOL    HW188737   8.952  14.215  13.822
28968SOL    HW288738   8.919  14.269  13.685
28969SOL     OW88739   1.649   3.825   0.329
28969SOL    HW188740   1.687   3.745   0.291
28969SOL    HW288741   1.636   3.803   0.421
28970SOL     OW88742   4.345  14.235  10.045
28970SOL    HW188743   4.425  14.190  10.070
28970SOL    HW288744   4.275  14.172  10.063
28971SOL     OW88745  12.756   5.096   5.739
28971SOL    HW188746  12.847   5.070   5.754
28971SOL    HW288747  12.759   5.192   5.740
28972SOL     OW88748  13.669   4.656  10.036
28972SOL    HW188749  13.734   4.619   9.976
28972SOL    HW288750  13.675   4.751  10.021
28973SOL     OW88751   8.489  10.823   8.388
28973SOL    HW188752   8.558  10.841   8.325
28973SOL    HW288753   8.518  10.745   8.434
28974SOL     OW88754  14.478   2.526   3.985
28974SOL    HW188755  14.396   2.493   4.023
28974SOL    HW288756  14.523   2.447   3.953
28975SOL     OW88757   4.878  10.105  12.559
28975SOL    HW188758   4.848  10.156  12.483
28975SOL    HW288759   4.861  10.014  12.535
28976SOL     OW88760   0.671   8.125   1.480
28976SOL    HW188761   0.604   8.139   1.546
28976SOL    HW288762   0.634   8.163   1.400
28977SOL     OW88763   8.605   6.057   4.644
28977SOL    HW188764   8.596   6.094   4.556
28977SOL    HW288765   8.547   6.111   4.698
28978SOL     OW88766   7.970  13.454   0.561
28978SOL    HW188767   7.960  13.549   0.567
28978SOL    HW288768   8.064  13.441   0.548
28979SOL     OW88769   6.058   6.791   1.701
28979SOL    HW188770   6.152   6.794   1.683
28979SOL    HW288771   6.047   6.715   1.758
28980SOL     OW88772   2.825   5.826   0.529
28980SOL    HW188773   2.742   5.873   0.535
28980SOL    HW288774   2.879   5.879   0.471
28981SOL     OW88775   5.866  12.400   3.147
28981SOL    HW188776   5.822  12.327   3.103
28981SOL    HW288777   5.827  12.403   3.235
28982SOL     OW88778   9.668   9.791   0.292
28982SOL    HW188779   9.634   9.725   0.352
28982SOL    HW288780   9.721   9.849   0.347
28983SOL     OW88781   9.076   1.197   0.649
28983SOL    HW188782   9.053   1.197   0.741
28983SOL    HW288783   9.128   1.118   0.637
28984SOL     OW88784  13.013  13.966   3.025
28984SOL    HW188785  12.957  14.043   3.018
28984SOL    HW288786  12.973  13.901   2.967
28985SOL     OW88787   5.291   2.448   1.972
28985SOL    HW188788   5.284   2.400   2.055
28985SOL    HW288789   5.378   2.486   1.973
28986SOL     OW88790  13.039   0.020  14.409
28986SOL    HW188791  12.952   0.013  14.450
28986SOL    HW288792  13.021   0.027  14.315
28987SOL     OW88793  14.374   7.731  14.603
28987SOL    HW188794  14.391   7.638  14.617
28987SOL    HW288795  14.306   7.733  14.535
28988SOL     OW88796  10.010  13.958   0.602
28988SOL    HW188797  10.022  13.937   0.694
28988SOL    HW288798  10.096  13.945   0.563
28989SOL     OW88799   0.584   0.949   7.824
28989SOL    HW188800   0.581   0.853   7.834
28989SOL    HW288801   0.530   0.982   7.896
28990SOL     OW88802  13.597   0.300   6.371
28990SOL    HW188803  13.520   0.296   6.314
28990SOL    HW288804  13.562   0.298   6.460
28991SOL     OW88805  14.780   5.860   3.040
28991SOL    HW188806  14.872   5.866   3.015
28991SOL    HW288807  14.778   5.885   3.132
28992SOL     OW88808  14.197  10.304   4.799
28992SOL    HW188809  14.176  10.302   4.705
28992SOL    HW288810  14.255  10.228   4.812
28993SOL     OW88811  12.274   6.515  14.601
28993SOL    HW188812  12.218   6.467  14.662
28993SOL    HW288813  12.220   6.527  14.523
28994SOL     OW88814   7.237  12.597   4.755
28994SOL    HW188815   7.181  12.627   4.683
28994SOL    HW288816   7.180  12.541   4.808
28995SOL     OW88817   0.255  13.485  13.837
28995SOL    HW188818   0.255  13.576  13.868
28995SOL    HW288819   0.347  13.460  13.835
28996SOL     OW88820   0.078   8.735   6.968
28996SOL    HW188821   0.131   8.667   6.927
28996SOL    HW288822  14.867   8.718   6.939
28997SOL     OW88823   4.743   1.668   5.755
28997SOL    HW188824   4.821   1.644   5.704
28997SOL    HW288825   4.762   1.757   5.786
28998SOL     OW88826   5.866   8.032   3.163
28998SOL    HW188827   5.959   8.014   3.149
28998SOL    HW288828   5.864   8.087   3.241
28999SOL     OW88829   3.227   0.379   1.718
28999SOL    HW188830   3.165   0.320   1.676
28999SOL    HW288831   3.174   0.432   1.777
29000SOL     OW88832   7.163  13.011   1.067
29000SOL    HW188833   7.106  13.029   1.141
29000SOL    HW288834   7.204  13.095   1.047
29001SOL     OW88835   5.442   2.870   2.264
29001SOL    HW188836   5.506   2.941   2.265
29001SOL    HW288837   5.367   2.906   2.312
29002SOL     OW88838   9.485   9.618   0.752
29002SOL    HW188839   9.521   9.544   0.801
29002SOL    HW288840   9.517   9.604   0.662
29003SOL     OW88841   7.139   5.872   1.562
29003SOL    HW188842   7.215   5.845   1.511
29003SOL    HW288843   7.075   5.802   1.549
29004SOL     OW88844   3.804  11.035   8.393
29004SOL    HW188845   3.833  10.950   8.427
29004SOL    HW288846   3.823  11.097   8.463
29005SOL     OW88847   7.749   3.726   5.793
29005SOL    HW188848   7.754   3.710   5.699
29005SOL    HW288849   7.656   3.723   5.813
29006SOL     OW88850   8.572   8.296   1.829
29006SOL    HW188851   8.644   8.360   1.826
29006SOL    HW288852   8.547   8.294   1.922
29007SOL     OW88853   7.035  13.503   4.309
29007SOL    HW188854   7.060  13.418   4.345
29007SOL    HW288855   7.077  13.506   4.223
29008SOL     OW88856  10.386   8.173  14.846
29008SOL    HW188857  10.378   8.129  14.761
29008SOL    HW288858  10.472   8.215  14.844
29009SOL     OW88859   2.287  14.463  14.032
29009SOL    HW188860   2.376  14.496  14.021
29009SOL    HW288861   2.274  14.459  14.127
29010SOL     OW88862   8.198  14.813  10.468
29010SOL    HW188863   8.194  14.804  10.564
29010SOL    HW288864   8.228   0.024  10.455
29011SOL     OW88865   6.903  10.236  12.360
29011SOL    HW188866   6.936  10.218  12.271
29011SOL    HW288867   6.972  10.203  12.418
29012SOL     OW88868  10.459   9.270  11.402
29012SOL    HW188869  10.507   9.273  11.484
29012SOL    HW288870  10.469   9.358  11.365
29013SOL     OW88871   1.087   4.890  12.977
29013SOL    HW188872   1.012   4.935  12.939
29013SOL    HW288873   1.069   4.887  13.071
29014SOL     OW88874   7.234   4.628  13.948
29014SOL    HW188875   7.323   4.597  13.966
29014SOL    HW288876   7.177   4.570  13.999
29015SOL     OW88877  13.697   5.214   2.226
29015SOL    HW188878  13.628   5.192   2.163
29015SOL    HW288879  13.733   5.297   2.195
29016SOL     OW88880   4.491   6.411  11.055
29016SOL    HW188881   4.452   6.441  11.137
29016SOL    HW288882   4.582   6.391  11.077
29017SOL     OW88883   5.223   7.506   4.901
29017SOL    HW188884   5.153   7.518   4.837
29017SOL    HW288885   5.290   7.457   4.855
29018SOL     OW88886   9.125  14.495   7.685
29018SOL    HW188887   9.103  14.575   7.733
29018SOL    HW288888   9.219  14.501   7.669
29019SOL     OW88889   5.302   4.099   6.430
29019SOL    HW188890   5.384   4.130   6.390
29019SOL    HW288891   5.237   4.164   6.405
29020SOL     OW88892   9.509   6.581  14.745
29020SOL    HW188893   9.458   6.650  14.703
29020SOL    HW288894   9.552   6.625  14.819
29021SOL     OW88895  11.583   9.317  13.052
29021SOL    HW188896  11.584   9.231  13.010
29021SOL    HW288897  11.674   9.335  13.074
29022SOL     OW88898   5.436   3.778   1.383
29022SOL    HW188899   5.494   3.758   1.457
29022SOL    HW288900   5.377   3.845   1.417
29023SOL     OW88901  10.595  13.428  14.341
29023SOL    HW188902  10.597  13.366  14.414
29023SOL    HW288903  10.625  13.510  14.379
29024SOL     OW88904   0.166   8.703  11.902
29024SOL    HW188905   0.120   8.718  11.985
29024SOL    HW288906   0.101   8.660  11.847
29025SOL     OW88907   4.895  11.331   0.784
29025SOL    HW188908   4.804  11.328   0.814
29025SOL    HW288909   4.939  11.261   0.831
29026SOL     OW88910   9.975   8.937  12.010
29026SOL    HW188911  10.004   8.961  11.922
29026SOL    HW288912   9.973   8.841  12.010
29027SOL     OW88913  12.054  10.417   7.741
29027SOL    HW188914  12.009  10.502   7.740
29027SOL    HW288915  12.106  10.417   7.661
29028SOL     OW88916   8.926   1.560   8.204
29028SOL    HW188917   9.000   1.500   8.219
29028SOL    HW288918   8.917   1.607   8.287
29029SOL     OW88919  13.507  10.090  11.376
29029SOL    HW188920  13.570  10.045  11.431
29029SOL    HW288921  13.505  10.039  11.295
29030SOL     OW88922  13.716   0.847   0.787
29030SOL    HW188923  13.780   0.900   0.834
29030SOL    HW288924  13.669   0.909   0.732
29031SOL     OW88925   3.289   4.061  12.970
29031SOL    HW188926   3.280   3.979  13.019
29031SOL    HW288927   3.343   4.116  13.027
29032SOL     OW88928  12.660   5.993  13.943
29032SOL    HW188929  12.654   5.997  13.847
29032SOL    HW288930  12.743   5.948  13.959
29033SOL     OW88931  13.290  14.868   6.076
29033SOL    HW188932  13.294   0.069   6.023
29033SOL    HW288933  13.299   0.021   6.166
29034SOL     OW88934  11.197   9.536   7.604
29034SOL    HW188935  11.183   9.588   7.525
29034SOL    HW288936  11.201   9.601   7.675
29035SOL     OW88937  10.073  13.942  13.850
29035SOL    HW188938  10.034  13.855  13.864
29035SOL    HW288939  10.033  13.974  13.769
29036SOL     OW88940  14.052  14.282   7.917
29036SOL    HW188941  14.056  14.375   7.897
29036SOL    HW288942  14.124  14.267   7.978
29037SOL     OW88943  13.268   3.032   5.098
29037SOL    HW188944  13.213   3.067   5.028
29037SOL    HW288945  13.206   2.996   5.161
29038SOL     OW88946   3.358  11.509   8.513
29038SOL    HW188947   3.297  11.544   8.448
29038SOL    HW288948   3.394  11.586   8.557
29039SOL     OW88949   2.526   4.812   3.088
29039SOL    HW188950   2.538   4.899   3.050
29039SOL    HW288951   2.598   4.760   3.052
29040SOL     OW88952   5.980   2.326   4.736
29040SOL    HW188953   6.028   2.325   4.653
29040SOL    HW288954   5.917   2.397   4.725
29041SOL     OW88955  14.145  13.574   6.792
29041SOL    HW188956  14.196  13.597   6.714
29041SOL    HW288957  14.202  13.518   6.844
29042SOL     OW88958  10.935   1.289  14.662
29042SOL    HW188959  10.849   1.328  14.673
29042SOL    HW288960  10.980   1.346  14.600
29043SOL     OW88961   4.523  11.869   9.790
29043SOL    HW188962   4.511  11.960   9.818
29043SOL    HW288963   4.618  11.855   9.796
29044SOL     OW88964  14.789   4.968   4.133
29044SOL    HW188965  14.724   5.038   4.131
29044SOL    HW288966  14.743   4.891   4.097
29045SOL     OW88967   4.010   6.393   7.579
29045SOL    HW188968   3.982   6.302   7.583
29045SOL    HW288969   3.953   6.439   7.641
29046SOL     OW88970   1.552  14.871  12.015
29046SOL    HW188971   1.484   0.023  11.954
29046SOL    HW288972   1.509  14.802  12.065
29047SOL     OW88973  12.283   9.141  10.944
29047SOL    HW188974  12.352   9.153  11.009
29047SOL    HW288975  12.242   9.058  10.966
29048SOL     OW88976   3.437  14.777  14.685
29048SOL    HW188977   3.472  14.698  14.644
29048SOL    HW288978   3.344  14.777  14.660
29049SOL     OW88979   3.785  13.638   5.437
29049SOL    HW188980   3.874  13.611   5.459
29049SOL    HW288981   3.730  13.597   5.504
29050SOL     OW88982   4.693   5.254   7.723
29050SOL    HW188983   4.660   5.277   7.810
29050SOL    HW288984   4.717   5.338   7.684
29051SOL     OW88985  12.503   9.329   6.063
29051SOL    HW188986  12.462   9.365   6.142
29051SOL    HW288987  12.585   9.378   6.054
29052SOL     OW88988   8.097  12.347   0.434
29052SOL    HW188989   8.129  12.284   0.369
29052SOL    HW288990   8.127  12.312   0.518
29053SOL     OW88991  13.529   2.911   1.317
29053SOL    HW188992  13.602   2.966   1.345
29053SOL    HW288993  13.480   2.965   1.255
29054SOL     OW88994   7.935  14.379   4.386
29054SOL    HW188995   7.986  14.441   4.438
29054SOL    HW288996   7.847  14.416   4.383
29055SOL     OW88997   4.692   7.752   2.665
29055SOL    HW188998   4.708   7.808   2.741
29055SOL    HW288999   4.611   7.787   2.627
29056SOL     OW89000   0.487   9.697   9.653
29056SOL    HW189001   0.553   9.760   9.623
29056SOL    HW289002   0.458   9.731   9.738
29057SOL     OW89003  12.865   8.834   5.983
29057SOL    HW189004  12.922   8.813   5.909
29057SOL    HW289005  12.906   8.790   6.057
29058SOL     OW89006   1.626   9.267  11.511
29058SOL    HW189007   1.581   9.196  11.466
29058SOL    HW289008   1.691   9.224  11.567
29059SOL     OW89009  11.357  10.013  11.672
29059SOL    HW189010  11.413   9.995  11.748
29059SOL    HW289011  11.308   9.932  11.659
29060SOL     OW89012   5.187  13.825   6.615
29060SOL    HW189013   5.103  13.787   6.638
29060SOL    HW289014   5.252  13.768   6.656
29061SOL     OW89015   3.225   7.711   0.617
29061SOL    HW189016   3.219   7.681   0.526
29061SOL    HW289017   3.264   7.798   0.611
29062SOL     OW89018   6.450   3.740  10.939
29062SOL    HW189019   6.408   3.679  10.879
29062SOL    HW289020   6.387   3.811  10.949
29063SOL     OW89021   4.456  10.231  13.768
29063SOL    HW189022   4.466  10.295  13.697
29063SOL    HW289023   4.458  10.283  13.848
29064SOL     OW89024   0.366   8.033  13.191
29064SOL    HW189025   0.389   7.982  13.113
29064SOL    HW289026   0.449   8.063  13.226
29065SOL     OW89027   8.678   8.982  10.798
29065SOL    HW189028   8.754   9.041  10.792
29065SOL    HW289029   8.610   9.036  10.839
29066SOL     OW89030   8.732   8.221   0.187
29066SOL    HW189031   8.678   8.202   0.110
29066SOL    HW289032   8.800   8.153   0.186
29067SOL     OW89033  11.750   5.231  12.638
29067SOL    HW189034  11.667   5.264  12.603
29067SOL    HW289035  11.725   5.163  12.700
29068SOL     OW89036  10.255   2.209   0.774
29068SOL    HW189037  10.277   2.152   0.847
29068SOL    HW289038  10.160   2.213   0.774
29069SOL     OW89039   9.338   6.608   4.549
29069SOL    HW189040   9.346   6.704   4.549
29069SOL    HW289041   9.282   6.589   4.474
29070SOL     OW89042   0.837  12.941  14.536
29070SOL    HW189043   0.780  12.920  14.609
29070SOL    HW289044   0.884  13.020  14.563
29071SOL     OW89045   4.305   6.937   1.789
29071SOL    HW189046   4.308   6.969   1.699
29071SOL    HW289047   4.212   6.925   1.807
29072SOL     OW89048  11.718  12.115  13.016
29072SOL    HW189049  11.797  12.101  12.963
29072SOL    HW289050  11.673  12.031  13.016
29073SOL     OW89051   5.125   1.953   9.210
29073SOL    HW189052   5.103   1.906   9.130
29073SOL    HW289053   5.044   1.955   9.260
29074SOL     OW89054   2.233  12.268   7.120
29074SOL    HW189055   2.167  12.200   7.103
29074SOL    HW289056   2.190  12.350   7.099
29075SOL     OW89057   1.921   3.305  14.859
29075SOL    HW189058   1.899   3.392   0.013
29075SOL    HW289059   2.016   3.305  14.851
29076SOL     OW89060  10.392  10.909   6.996
29076SOL    HW189061  10.315  10.885   7.047
29076SOL    HW289062  10.441  10.827   6.985
29077SOL     OW89063   3.445  12.505   6.323
29077SOL    HW189064   3.433  12.417   6.359
29077SOL    HW289065   3.540  12.517   6.320
29078SOL     OW89066   6.878   5.433  11.219
29078SOL    HW189067   6.973   5.429  11.208
29078SOL    HW289068   6.845   5.471  11.138
29079SOL     OW89069   9.725   3.036   5.045
29079SOL    HW189070   9.685   2.951   5.064
29079SOL    HW289071   9.809   3.034   5.092
29080SOL     OW89072  10.215   0.940   9.720
29080SOL    HW189073  10.226   0.952   9.626
29080SOL    HW289074  10.155   1.010   9.746
29081SOL     OW89075   1.194   1.968  14.122
29081SOL    HW189076   1.230   1.897  14.069
29081SOL    HW289077   1.133   1.925  14.182
29082SOL     OW89078   0.485   4.688  11.839
29082SOL    HW189079   0.421   4.728  11.779
29082SOL    HW289080   0.538   4.632  11.783
29083SOL     OW89081   8.801   4.963   3.783
29083SOL    HW189082   8.895   4.965   3.798
29083SOL    HW289083   8.765   4.911   3.855
29084SOL     OW89084   7.273  11.821  14.712
29084SOL    HW189085   7.295  11.754  14.777
29084SOL    HW289086   7.357  11.848  14.675
29085SOL     OW89087   8.483  11.091   9.857
29085SOL    HW189088   8.444  11.120   9.774
29085SOL    HW289089   8.409  11.054   9.906
29086SOL     OW89090   6.952  13.399   5.085
29086SOL    HW189091   7.028  13.419   5.139
29086SOL    HW289092   6.973  13.314   5.045
29087SOL     OW89093   2.147   6.285   1.879
29087SOL    HW189094   2.158   6.380   1.885
29087SOL    HW289095   2.205   6.258   1.808
29088SOL     OW89096  12.958   1.871   9.223
29088SOL    HW189097  12.864   1.850   9.226
29088SOL    HW289098  13.001   1.787   9.240
29089SOL     OW89099   8.649   0.009  14.244
29089SOL    HW189100   8.730  14.878  14.194
29089SOL    HW289101   8.590  14.823  14.205
29090SOL     OW89102  14.844   9.076  11.869
29090SOL    HW189103  14.815   9.147  11.926
29090SOL    HW289104   0.059   9.091  11.857
29091SOL     OW89105  12.676   2.106  10.036
29091SOL    HW189106  12.610   2.145   9.979
29091SOL    HW289107  12.716   2.037   9.983
29092SOL     OW89108   3.432  12.268  12.691
29092SOL    HW189109   3.507  12.215  12.717
29092SOL    HW289110   3.470  12.353  12.667
29093SOL     OW89111  13.354   7.916  13.756
29093SOL    HW189112  13.441   7.894  13.791
29093SOL    HW289113  13.315   7.973  13.823
29094SOL     OW89114   6.894   0.668   0.874
29094SOL    HW189115   6.810   0.646   0.835
29094SOL    HW289116   6.919   0.751   0.833
29095SOL     OW89117   1.368   7.382   0.617
29095SOL    HW189118   1.421   7.333   0.680
29095SOL    HW289119   1.398   7.473   0.626
29096SOL     OW89120   6.654   0.172   4.058
29096SOL    HW189121   6.685   0.225   3.985
29096SOL    HW289122   6.614   0.234   4.118
29097SOL     OW89123  10.473  13.888   8.297
29097SOL    HW189124  10.518  13.908   8.379
29097SOL    HW289125  10.438  13.800   8.308
29098SOL     OW89126  14.240   8.760   5.510
29098SOL    HW189127  14.260   8.853   5.521
29098SOL    HW289128  14.189   8.736   5.588
29099SOL     OW89129   9.642   5.875   5.834
29099SOL    HW189130   9.686   5.844   5.754
29099SOL    HW289131   9.549   5.868   5.814
29100SOL     OW89132   4.869  13.006   6.815
29100SOL    HW189133   4.959  13.013   6.846
29100SOL    HW289134   4.873  12.945   6.742
29101SOL     OW89135  13.586  10.775   7.214
29101SOL    HW189136  13.553  10.845   7.271
29101SOL    HW289137  13.636  10.821   7.146
29102SOL     OW89138   2.295   9.993   2.138
29102SOL    HW189139   2.375   9.974   2.188
29102SOL    HW289140   2.241   9.914   2.150
29103SOL     OW89141   2.839  13.941  12.828
29103SOL    HW189142   2.874  14.023  12.862
29103SOL    HW289143   2.908  13.877  12.845
29104SOL     OW89144  13.400   4.681   0.152
29104SOL    HW189145  13.331   4.706   0.090
29104SOL    HW289146  13.392   4.585   0.159
29105SOL     OW89147  11.065  12.060   1.951
29105SOL    HW189148  11.113  12.020   1.878
29105SOL    HW289149  10.999  12.114   1.909
29106SOL     OW89150   9.130   7.013   6.547
29106SOL    HW189151   9.224   7.003   6.565
29106SOL    HW289152   9.109   6.942   6.487
29107SOL     OW89153   2.249   0.595   3.735
29107SOL    HW189154   2.284   0.569   3.820
29107SOL    HW289155   2.233   0.689   3.744
29108SOL     OW89156   5.707  11.836   6.714
29108SOL    HW189157   5.619  11.827   6.749
29108SOL    HW289158   5.724  11.931   6.715
29109SOL     OW89159  12.283  13.866   7.793
29109SOL    HW189160  12.372  13.835   7.780
29109SOL    HW289161  12.236  13.838   7.715
29110SOL     OW89162   3.006   2.625   7.615
29110SOL    HW189163   2.946   2.691   7.650
29110SOL    HW289164   3.078   2.675   7.578
29111SOL     OW89165   0.092  10.851   9.781
29111SOL    HW189166   0.003  10.887   9.780
29111SOL    HW289167   0.128  10.876   9.696
29112SOL     OW89168   2.218   6.044  12.650
29112SOL    HW189169   2.147   6.087  12.602
29112SOL    HW289170   2.245   5.972  12.592
29113SOL     OW89171  10.977   8.183   0.325
29113SOL    HW189172  11.056   8.226   0.293
29113SOL    HW289173  11.007   8.125   0.395
29114SOL     OW89174   0.016   4.059  10.138
29114SOL    HW189175   0.083   4.121  10.111
29114SOL    HW289176  14.821   4.113  10.167
29115SOL     OW89177   2.424  14.524   6.508
29115SOL    HW189178   2.370  14.446   6.522
29115SOL    HW289179   2.441  14.525   6.414
29116SOL     OW89180   9.494   3.360   4.290
29116SOL    HW189181   9.480   3.290   4.353
29116SOL    HW289182   9.420   3.351   4.229
29117SOL     OW89183   8.321  10.973  13.514
29117SOL    HW189184   8.412  10.984  13.541
29117SOL    HW289185   8.273  10.961  13.596
29118SOL     OW89186   2.889   7.111   5.424
29118SOL    HW189187   2.860   7.077   5.339
29118SOL    HW289188   2.912   7.034   5.475
29119SOL     OW89189   6.830  11.347   7.121
29119SOL    HW189190   6.912  11.394   7.104
29119SOL    HW289191   6.852  11.285   7.190
29120SOL     OW89192   2.974   3.035   8.966
29120SOL    HW189193   3.010   3.065   8.883
29120SOL    HW289194   2.928   3.112   9.002
29121SOL     OW89195   1.955   2.404  14.340
29121SOL    HW189196   1.996   2.429  14.257
29121SOL    HW289197   1.871   2.366  14.315
29122SOL     OW89198   5.286   3.051   1.664
29122SOL    HW189199   5.307   2.987   1.732
29122SOL    HW289200   5.326   3.015   1.584
29123SOL     OW89201   5.645   2.839  11.279
29123SOL    HW189202   5.580   2.893  11.325
29123SOL    HW289203   5.606   2.752  11.277
29124SOL     OW89204   7.945   2.406  13.946
29124SOL    HW189205   7.955   2.474  14.013
29124SOL    HW289206   7.932   2.326  13.995
29125SOL     OW89207   2.790   5.360   0.961
29125SOL    HW189208   2.857   5.294   0.976
29125SOL    HW289209   2.838   5.442   0.952
29126SOL     OW89210   6.403   4.156  10.845
29126SOL    HW189211   6.324   4.108  10.821
29126SOL    HW289212   6.475   4.099  10.817
29127SOL     OW89213   8.129   3.962  13.292
29127SOL    HW189214   8.085   4.004  13.366
29127SOL    HW289215   8.149   3.874  13.324
29128SOL     OW89216  10.233   4.583   1.027
29128SOL    HW189217  10.315   4.629   1.006
29128SOL    HW289218  10.258   4.491   1.032
29129SOL     OW89219   8.937   3.986   3.712
29129SOL    HW189220   8.955   3.932   3.635
29129SOL    HW289221   8.870   3.938   3.760
29130SOL     OW89222   6.071   9.788   7.150
29130SOL    HW189223   6.018   9.848   7.202
29130SOL    HW289224   6.007   9.734   7.105
29131SOL     OW89225   5.855  10.378  13.643
29131SOL    HW189226   5.778  10.428  13.670
29131SOL    HW289227   5.852  10.379  13.548
29132SOL     OW89228   5.236  12.003   9.395
29132SOL    HW189229   5.275  11.949   9.463
29132SOL    HW289230   5.277  11.974   9.314
29133SOL     OW89231   4.490  13.032  12.782
29133SOL    HW189232   4.533  13.082  12.713
29133SOL    HW289233   4.405  13.007  12.746
29134SOL     OW89234  10.803   1.519   3.936
29134SOL    HW189235  10.852   1.454   3.985
29134SOL    HW289236  10.822   1.499   3.844
29135SOL     OW89237   0.550   0.791   3.330
29135SOL    HW189238   0.599   0.846   3.390
29135SOL    HW289239   0.459   0.800   3.358
29136SOL     OW89240   7.924   3.237   0.615
29136SOL    HW189241   7.859   3.169   0.596
29136SOL    HW289242   8.008   3.193   0.602
29137SOL     OW89243   3.120   0.750   4.565
29137SOL    HW189244   3.048   0.726   4.507
29137SOL    HW289245   3.194   0.699   4.534
29138SOL     OW89246  11.476   3.276   3.734
29138SOL    HW189247  11.496   3.206   3.797
29138SOL    HW289248  11.436   3.230   3.660
29139SOL     OW89249   7.997  12.972  12.403
29139SOL    HW189250   7.910  12.986  12.367
29139SOL    HW289251   7.981  12.948  12.495
29140SOL     OW89252   9.224  14.508   9.644
29140SOL    HW189253   9.132  14.486   9.658
29140SOL    HW289254   9.229  14.602   9.663
29141SOL     OW89255   8.714   1.568   5.768
29141SOL    HW189256   8.740   1.552   5.859
29141SOL    HW289257   8.663   1.649   5.772
29142SOL     OW89258  13.837  11.858  12.494
29142SOL    HW189259  13.871  11.770  12.476
29142SOL    HW289260  13.839  11.865  12.590
29143SOL     OW89261   5.727   6.980   2.443
29143SOL    HW189262   5.751   7.007   2.532
29143SOL    HW289263   5.687   6.894   2.454
29144SOL     OW89264   4.251   0.926   7.971
29144SOL    HW189265   4.199   0.968   7.902
29144SOL    HW289266   4.328   0.892   7.925
29145SOL     OW89267  10.010   3.072   6.024
29145SOL    HW189268   9.992   3.117   6.107
29145SOL    HW289269  10.105   3.062   6.022
29146SOL     OW89270   7.792   0.632   7.575
29146SOL    HW189271   7.799   0.674   7.660
29146SOL    HW289272   7.881   0.602   7.555
29147SOL     OW89273  10.315  11.788   2.952
29147SOL    HW189274  10.308  11.878   2.919
29147SOL    HW289275  10.257  11.787   3.029
29148SOL     OW89276   2.280  14.033   2.086
29148SOL    HW189277   2.367  14.017   2.049
29148SOL    HW289278   2.283  13.996   2.173
29149SOL     OW89279   0.819   4.515   1.696
29149SOL    HW189280   0.760   4.541   1.625
29149SOL    HW289281   0.854   4.430   1.669
29150SOL     OW89282  12.117   6.341  10.928
29150SOL    HW189283  12.144   6.249  10.929
29150SOL    HW289284  12.021   6.338  10.935
29151SOL     OW89285  12.333   3.791   6.918
29151SOL    HW189286  12.360   3.879   6.945
29151SOL    HW289287  12.332   3.795   6.823
29152SOL     OW89288   3.549   9.971  12.629
29152SOL    HW189289   3.557   9.886  12.672
29152SOL    HW289290   3.623   9.973  12.568
29153SOL     OW89291   3.340   4.793   4.163
29153SOL    HW189292   3.422   4.757   4.198
29153SOL    HW289293   3.332   4.754   4.077
29154SOL     OW89294  11.404   0.779  13.184
29154SOL    HW189295  11.376   0.869  13.166
29154SOL    HW289296  11.419   0.777  13.278
29155SOL     OW89297  14.462   7.648  12.608
29155SOL    HW189298  14.434   7.672  12.519
29155SOL    HW289299  14.557   7.661  12.608
29156SOL     OW89300   1.939   9.251   8.409
29156SOL    HW189301   2.001   9.204   8.353
29156SOL    HW289302   1.957   9.219   8.497
29157SOL     OW89303   4.128  10.755  11.589
29157SOL    HW189304   4.053  10.695  11.583
29157SOL    HW289305   4.190  10.710  11.647
29158SOL     OW89306   5.298   2.626   7.536
29158SOL    HW189307   5.276   2.534   7.549
29158SOL    HW289308   5.392   2.631   7.552
29159SOL     OW89309  11.612   8.837   9.933
29159SOL    HW189310  11.552   8.901   9.896
29159SOL    HW289311  11.619   8.861  10.025
29160SOL     OW89312   1.427  11.802  11.687
29160SOL    HW189313   1.350  11.762  11.727
29160SOL    HW289314   1.467  11.853  11.758
29161SOL     OW89315   4.888   7.623  12.427
29161SOL    HW189316   4.894   7.628  12.332
29161SOL    HW289317   4.819   7.684  12.451
29162SOL     OW89318   5.062   9.912   2.697
29162SOL    HW189319   5.029   9.841   2.642
29162SOL    HW289320   5.156   9.899   2.699
29163SOL     OW89321   2.739   2.108   0.623
29163SOL    HW189322   2.815   2.147   0.666
29163SOL    HW289323   2.729   2.159   0.542
29164SOL     OW89324   9.364   1.574   6.255
29164SOL    HW189325   9.347   1.481   6.269
29164SOL    HW289326   9.361   1.585   6.160
29165SOL     OW89327   4.759  13.061   9.471
29165SOL    HW189328   4.750  12.971   9.440
29165SOL    HW289329   4.749  13.115   9.393
29166SOL     OW89330  12.223   9.253  10.121
29166SOL    HW189331  12.286   9.322  10.101
29166SOL    HW289332  12.207   9.261  10.215
29167SOL     OW89333   8.522  13.492   8.711
29167SOL    HW189334   8.522  13.571   8.765
29167SOL    HW289335   8.510  13.525   8.622
29168SOL     OW89336   3.764  12.731  12.910
29168SOL    HW189337   3.682  12.682  12.921
29168SOL    HW289338   3.739  12.808  12.858
29169SOL     OW89339   0.019   3.677   3.941
29169SOL    HW189340  14.845   3.611   3.987
29169SOL    HW289341  14.835   3.745   3.918
29170SOL     OW89342   2.981  14.372   0.116
29170SOL    HW189343   3.000  14.343   0.027
29170SOL    HW289344   2.968  14.291   0.165
29171SOL     OW89345   6.048   6.109   1.771
29171SOL    HW189346   6.107   6.053   1.720
29171SOL    HW289347   5.980   6.135   1.709
29172SOL     OW89348  14.656  13.399   6.220
29172SOL    HW189349  14.684  13.382   6.310
29172SOL    HW289350  14.735  13.388   6.167
29173SOL     OW89351  12.760   5.505  13.764
29173SOL    HW189352  12.753   5.423  13.715
29173SOL    HW289353  12.702   5.493  13.839
29174SOL     OW89354  10.749  10.574   6.603
29174SOL    HW189355  10.719  10.530   6.683
29174SOL    HW289356  10.842  10.590   6.618
29175SOL     OW89357   6.058  12.527   5.632
29175SOL    HW189358   5.975  12.519   5.679
29175SOL    HW289359   6.061  12.450   5.575
29176SOL     OW89360   5.210  11.849  14.238
29176SOL    HW189361   5.255  11.815  14.314
29176SOL    HW289362   5.194  11.941  14.258
29177SOL     OW89363  14.402  12.009  11.963
29177SOL    HW189364  14.419  12.049  12.048
29177SOL    HW289365  14.474  11.948  11.950
29178SOL     OW89366   7.268   4.869   7.963
29178SOL    HW189367   7.294   4.781   7.991
29178SOL    HW289368   7.337   4.897   7.904
29179SOL     OW89369   9.334   0.689   1.585
29179SOL    HW189370   9.262   0.627   1.595
29179SOL    HW289371   9.336   0.738   1.667
29180SOL     OW89372  10.213   5.553   5.459
29180SOL    HW189373  10.218   5.604   5.378
29180SOL    HW289374  10.146   5.597   5.511
29181SOL     OW89375   0.948  11.369   9.303
29181SOL    HW189376   0.978  11.298   9.360
29181SOL    HW289377   1.006  11.366   9.227
29182SOL     OW89378   9.608   3.402   5.013
29182SOL    HW189379   9.668   3.440   5.078
29182SOL    HW289380   9.661   3.392   4.934
29183SOL     OW89381  11.099   8.773   9.771
29183SOL    HW189382  11.046   8.718   9.829
29183SOL    HW289383  11.148   8.710   9.718
29184SOL     OW89384   0.325   0.000   6.456
29184SOL    HW189385   0.231  14.861   6.453
29184SOL    HW289386   0.339   0.071   6.393
29185SOL     OW89387   1.814   9.240  13.153
29185SOL    HW189388   1.753   9.284  13.211
29185SOL    HW289389   1.772   9.157  13.132
29186SOL     OW89390  11.563   2.772   0.378
29186SOL    HW189391  11.622   2.786   0.453
29186SOL    HW289392  11.476   2.781   0.415
29187SOL     OW89393   6.791   9.764   3.036
29187SOL    HW189394   6.796   9.856   3.062
29187SOL    HW289395   6.848   9.718   3.098
29188SOL     OW89396   3.499   2.541   2.054
29188SOL    HW189397   3.411   2.537   2.092
29188SOL    HW289398   3.508   2.458   2.007
29189SOL     OW89399   4.553   5.220   0.334
29189SOL    HW189400   4.612   5.145   0.336
29189SOL    HW289401   4.525   5.226   0.243
29190SOL     OW89402  12.359   3.156   8.786
29190SOL    HW189403  12.288   3.197   8.736
29190SOL    HW289404  12.341   3.062   8.780
29191SOL     OW89405   0.888   3.889  14.423
29191SOL    HW189406   0.861   3.932  14.504
29191SOL    HW289407   0.879   3.795  14.442
29192SOL     OW89408   0.005   6.086   2.194
29192SOL    HW189409   0.059   6.037   2.257
29192SOL    HW289410  14.859   6.021   2.128
29193SOL     OW89411  11.731   8.225   5.971
29193SOL    HW189412  11.735   8.320   5.962
29193SOL    HW289413  11.712   8.193   5.883
29194SOL     OW89414   8.312   8.378   8.892
29194SOL    HW189415   8.400   8.414   8.879
29194SOL    HW289416   8.306   8.363   8.986
29195SOL     OW89417  10.306  14.684  10.416
29195SOL    HW189418  10.329  14.591  10.410
29195SOL    HW289419  10.294  14.712  10.326
29196SOL     OW89420  10.325   0.806  11.566
29196SOL    HW189421  10.276   0.846  11.495
29196SOL    HW289422  10.388   0.749  11.522
29197SOL     OW89423  14.207   3.315   6.180
29197SOL    HW189424  14.169   3.310   6.267
29197SOL    HW289425  14.228   3.407   6.167
29198SOL     OW89426  11.895  14.871   4.241
29198SOL    HW189427  11.867   0.070   4.290
29198SOL    HW289428  11.978  14.846   4.281
29199SOL     OW89429  10.360  12.466   1.907
29199SOL    HW189430  10.277  12.420   1.918
29199SOL    HW289431  10.426  12.405   1.943
29200SOL     OW89432  11.306   2.040   7.755
29200SOL    HW189433  11.236   1.984   7.789
29200SOL    HW289434  11.369   2.046   7.827
29201SOL     OW89435   6.375  12.843   7.649
29201SOL    HW189436   6.381  12.929   7.691
29201SOL    HW289437   6.448  12.794   7.685
29202SOL     OW89438  11.918  13.266   7.447
29202SOL    HW189439  11.864  13.270   7.526
29202SOL    HW289440  11.995  13.216   7.473
29203SOL     OW89441  10.054   6.419  11.061
29203SOL    HW189442  10.074   6.341  11.112
29203SOL    HW289443  10.139   6.462  11.048
29204SOL     OW89444  12.618  12.808   4.269
29204SOL    HW189445  12.626  12.713   4.275
29204SOL    HW289446  12.592  12.836   4.356
29205SOL     OW89447  11.414  13.667   3.000
29205SOL    HW189448  11.496  13.647   2.955
29205SOL    HW289449  11.360  13.588   2.988
29206SOL     OW89450   6.895   9.052  14.511
29206SOL    HW189451   6.978   9.098  14.512
29206SOL    HW289452   6.838   9.105  14.567
29207SOL     OW89453  14.705   5.971   7.049
29207SOL    HW189454  14.755   6.035   7.099
29207SOL    HW289455  14.762   5.950   6.974
29208SOL     OW89456   2.648   0.231   3.908
29208SOL    HW189457   2.610   0.306   3.862
29208SOL    HW289458   2.584   0.209   3.976
29209SOL     OW89459   4.995  11.177   3.461
29209SOL    HW189460   5.090  11.167   3.467
29209SOL    HW289461   4.961  11.128   3.535
29210SOL     OW89462   1.227   0.381  12.422
29210SOL    HW189463   1.183   0.325  12.486
29210SOL    HW289464   1.249   0.460  12.471
29211SOL     OW89465  14.682  13.004  13.128
29211SOL    HW189466  14.674  12.998  13.223
29211SOL    HW289467  14.597  13.036  13.098
29212SOL     OW89468   5.316   7.728   2.624
29212SOL    HW189469   5.394   7.768   2.664
29212SOL    HW289470   5.278   7.674   2.693
29213SOL     OW89471  13.269   5.916   9.373
29213SOL    HW189472  13.192   5.863   9.392
29213SOL    HW289473  13.337   5.852   9.351
29214SOL     OW89474  11.816   7.536  10.642
29214SOL    HW189475  11.812   7.467  10.577
29214SOL    HW289476  11.872   7.603  10.604
29215SOL     OW89477  11.223  14.286   3.324
29215SOL    HW189478  11.299  14.285   3.265
29215SOL    HW289479  11.191  14.196   3.323
29216SOL     OW89480   3.658   5.255   2.419
29216SOL    HW189481   3.746   5.236   2.452
29216SOL    HW289482   3.614   5.170   2.417
29217SOL     OW89483   1.064   0.878   8.973
29217SOL    HW189484   1.068   0.943   8.903
29217SOL    HW289485   1.020   0.923   9.045
29218SOL     OW89486  10.173  12.275  11.499
29218SOL    HW189487  10.118  12.335  11.448
29218SOL    HW289488  10.110  12.226  11.553
29219SOL     OW89489  10.475   0.328   9.233
29219SOL    HW189490  10.492   0.306   9.325
29219SOL    HW289491  10.562   0.344   9.196
29220SOL     OW89492   5.647   5.968  13.858
29220SOL    HW189493   5.683   5.880  13.855
29220SOL    HW289494   5.561   5.957  13.898
29221SOL     OW89495   3.654   9.023  12.851
29221SOL    HW189496   3.598   9.016  12.929
29221SOL    HW289497   3.681   8.933  12.834
29222SOL     OW89498   1.172   1.784   0.784
29222SOL    HW189499   1.178   1.740   0.699
29222SOL    HW289500   1.087   1.759   0.819
29223SOL     OW89501   6.358   9.631   6.943
29223SOL    HW189502   6.282   9.625   6.885
29223SOL    HW289503   6.413   9.557   6.918
29224SOL     OW89504  12.506   0.711   4.604
29224SOL    HW189505  12.571   0.642   4.617
29224SOL    HW289506  12.554   0.792   4.619
29225SOL     OW89507   7.953   2.163   2.115
29225SOL    HW189508   7.861   2.137   2.125
29225SOL    HW289509   7.997   2.085   2.082
29226SOL     OW89510  11.725   6.064  10.918
29226SOL    HW189511  11.693   6.004  10.850
29226SOL    HW289512  11.717   6.015  10.999
29227SOL     OW89513  12.313   6.930  11.880
29227SOL    HW189514  12.279   6.930  11.790
29227SOL    HW289515  12.259   6.995  11.926
29228SOL     OW89516  10.721  13.876   1.928
29228SOL    HW189517  10.748  13.966   1.947
29228SOL    HW289518  10.766  13.823   1.994
29229SOL     OW89519   3.684   8.673   1.883
29229SOL    HW189520   3.703   8.579   1.884
29229SOL    HW289521   3.754   8.712   1.934
29230SOL     OW89522  10.231  13.694  12.292
29230SOL    HW189523  10.221  13.749  12.214
29230SOL    HW289524  10.141  13.669  12.314
29231SOL     OW89525   2.636   9.729   5.904
29231SOL    HW189526   2.552   9.694   5.875
29231SOL    HW289527   2.701   9.681   5.853
29232SOL     OW89528  12.254   8.685   6.918
29232SOL    HW189529  12.325   8.681   6.982
29232SOL    HW289530  12.208   8.767   6.938
29233SOL     OW89531  13.173   9.122   8.479
29233SOL    HW189532  13.172   9.052   8.414
29233SOL    HW289533  13.162   9.077   8.563
29234SOL     OW89534   1.929   2.887   5.097
29234SOL    HW189535   1.835   2.901   5.113
29234SOL    HW289536   1.966   2.874   5.184
29235SOL     OW89537   3.089  12.313   4.478
29235SOL    HW189538   3.056  12.275   4.397
29235SOL    HW289539   3.117  12.237   4.530
29236SOL     OW89540  13.557  13.728   3.636
29236SOL    HW189541  13.602  13.644   3.638
29236SOL    HW289542  13.562  13.760   3.726
29237SOL     OW89543   0.171   4.315   2.482
29237SOL    HW189544   0.092   4.277   2.444
29237SOL    HW289545   0.139   4.370   2.554
29238SOL     OW89546  13.792   8.050  10.966
29238SOL    HW189547  13.722   7.995  10.931
29238SOL    HW289548  13.757   8.139  10.963
29239SOL     OW89549   4.888   2.499  12.250
29239SOL    HW189550   4.815   2.463  12.201
29239SOL    HW289551   4.893   2.446  12.329
29240SOL     OW89552  13.505   3.322   8.910
29240SOL    HW189553  13.481   3.291   8.823
29240SOL    HW289554  13.516   3.416   8.900
29241SOL     OW89555   9.792   8.597  14.719
29241SOL    HW189556   9.861   8.557  14.665
29241SOL    HW289557   9.818   8.577  14.809
29242SOL     OW89558   2.965   8.569   6.395
29242SOL    HW189559   3.028   8.506   6.359
29242SOL    HW289560   2.953   8.542   6.486
29243SOL     OW89561   7.843   3.375   7.077
29243SOL    HW189562   7.841   3.326   7.159
29243SOL    HW289563   7.936   3.395   7.063
29244SOL     OW89564   9.088  10.061   0.997
29244SOL    HW189565   9.032   9.984   1.011
29244SOL    HW289566   9.173  10.023   0.973
29245SOL     OW89567  13.654   1.478   3.021
29245SOL    HW189568  13.728   1.539   3.018
29245SOL    HW289569  13.579   1.530   2.990
29246SOL     OW89570   0.134   7.547   6.197
29246SOL    HW189571   0.189   7.513   6.127
29246SOL    HW289572   0.194   7.561   6.270
29247SOL     OW89573  14.879   8.291  12.146
29247SOL    HW189574  14.865   8.385  12.155
29247SOL    HW289575  14.815   8.264  12.079
29248SOL     OW89576   2.346   7.203  12.671
29248SOL    HW189577   2.326   7.217  12.578
29248SOL    HW289578   2.338   7.290  12.710
29249SOL     OW89579   9.967  14.416   0.165
29249SOL    HW189580  10.041  14.444   0.219
29249SOL    HW289581   9.999  14.421   0.075
29250SOL     OW89582   7.589   3.999   2.591
29250SOL    HW189583   7.565   4.021   2.501
29250SOL    HW289584   7.625   4.080   2.627
29251SOL     OW89585  11.518   8.839   5.386
29251SOL    HW189586  11.469   8.914   5.422
29251SOL    HW289587  11.484   8.829   5.297
29252SOL     OW89588  13.869  10.329   1.613
29252SOL    HW189589  13.848  10.405   1.558
29252SOL    HW289590  13.865  10.254   1.554
29253SOL     OW89591   2.972   1.076   2.201
29253SOL    HW189592   2.955   1.167   2.178
29253SOL    HW289593   2.976   1.076   2.297
29254SOL     OW89594   3.484  11.817  14.372
29254SOL    HW189595   3.508  11.783  14.286
29254SOL    HW289596   3.410  11.876  14.354
29255SOL     OW89597   2.698   1.352   6.270
29255SOL    HW189598   2.604   1.333   6.276
29255SOL    HW289599   2.712   1.378   6.179
29256SOL     OW89600   6.000   7.454   3.533
29256SOL    HW189601   6.039   7.498   3.609
29256SOL    HW289602   6.005   7.518   3.462
29257SOL     OW89603   1.302   6.496   4.315
29257SOL    HW189604   1.336   6.583   4.335
29257SOL    HW289605   1.300   6.451   4.399
29258SOL     OW89606  14.349  10.230  12.488
29258SOL    HW189607  14.266  10.269  12.460
29258SOL    HW289608  14.332  10.199  12.577
29259SOL     OW89609   7.543   7.225   9.797
29259SOL    HW189610   7.635   7.199   9.789
29259SOL    HW289611   7.542   7.316   9.767
29260SOL     OW89612   1.629   5.711  10.323
29260SOL    HW189613   1.592   5.793  10.292
29260SOL    HW289614   1.553   5.656  10.341
29261SOL     OW89615   7.658  14.041   8.742
29261SOL    HW189616   7.700  14.087   8.815
29261SOL    HW289617   7.564  14.050   8.758
29262SOL     OW89618   6.671   2.620   3.805
29262SOL    HW189619   6.632   2.680   3.742
29262SOL    HW289620   6.731   2.566   3.753
29263SOL     OW89621   4.861  12.260   0.896
29263SOL    HW189622   4.898  12.196   0.957
29263SOL    HW289623   4.894  12.232   0.810
29264SOL     OW89624   4.618   8.058  11.709
29264SOL    HW189625   4.553   7.987  11.708
29264SOL    HW289626   4.691   8.022  11.760
29265SOL     OW89627   4.410   5.437   5.134
29265SOL    HW189628   4.462   5.428   5.054
29265SOL    HW289629   4.475   5.455   5.202
29266SOL     OW89630   0.329  11.813   2.599
29266SOL    HW189631   0.298  11.899   2.573
29266SOL    HW289632   0.351  11.769   2.517
29267SOL     OW89633   8.319  12.307  14.458
29267SOL    HW189634   8.251  12.240  14.466
29267SOL    HW289635   8.306  12.344  14.371
29268SOL     OW89636   1.084   2.341  14.163
29268SOL    HW189637   1.172   2.304  14.170
29268SOL    HW289638   1.067   2.344  14.069
29269SOL     OW89639   4.753   3.386   4.546
29269SOL    HW189640   4.749   3.332   4.624
29269SOL    HW289641   4.710   3.333   4.478
29270SOL     OW89642  12.977   7.736   8.559
29270SOL    HW189643  12.957   7.781   8.477
29270SOL    HW289644  13.067   7.705   8.549
29271SOL     OW89645   8.510   2.301   3.964
29271SOL    HW189646   8.476   2.259   3.885
29271SOL    HW289647   8.499   2.395   3.948
29272SOL     OW89648   3.350  14.081   5.873
29272SOL    HW189649   3.263  14.073   5.912
29272SOL    HW289650   3.341  14.150   5.808
29273SOL     OW89651   4.984  12.358   9.318
29273SOL    HW189652   4.957  12.343   9.228
29273SOL    HW289653   5.046  12.430   9.313
29274SOL     OW89654  11.559  13.590  11.179
29274SOL    HW189655  11.468  13.562  11.174
29274SOL    HW289656  11.555  13.685  11.180
29275SOL     OW89657   5.567  12.177   5.528
29275SOL    HW189658   5.603  12.188   5.441
29275SOL    HW289659   5.638  12.204   5.587
29276SOL     OW89660   1.190  10.659   4.138
29276SOL    HW189661   1.225  10.581   4.181
29276SOL    HW289662   1.260  10.687   4.079
29277SOL     OW89663   1.745   3.386  13.407
29277SOL    HW189664   1.820   3.384  13.467
29277SOL    HW289665   1.744   3.475  13.373
29278SOL     OW89666   7.674   5.006   8.161
29278SOL    HW189667   7.754   5.027   8.115
29278SOL    HW289668   7.700   4.941   8.226
29279SOL     OW89669   9.928  11.273  13.580
29279SOL    HW189670   9.991  11.340  13.553
29279SOL    HW289671   9.935  11.205  13.513
29280SOL     OW89672   4.287   2.532   5.809
29280SOL    HW189673   4.273   2.512   5.716
29280SOL    HW289674   4.344   2.608   5.809
29281SOL     OW89675  14.558   8.078  13.822
29281SOL    HW189676  14.598   8.132  13.754
29281SOL    HW289677  14.491   8.134  13.861
29282SOL     OW89678  10.422   2.109   1.183
29282SOL    HW189679  10.488   2.067   1.238
29282SOL    HW289680  10.422   2.056   1.103
29283SOL     OW89681   9.385   0.079  12.241
29283SOL    HW189682   9.299   0.060  12.204
29283SOL    HW289683   9.435  14.878  12.225
29284SOL     OW89684  13.527  11.962   3.424
29284SOL    HW189685  13.575  12.008   3.355
29284SOL    HW289686  13.451  12.019   3.440
29285SOL     OW89687   5.970   9.801   3.418
29285SOL    HW189688   5.970   9.780   3.325
29285SOL    HW289689   5.969   9.716   3.462
29286SOL     OW89690   0.541   6.306   6.849
29286SOL    HW189691   0.446   6.302   6.854
29286SOL    HW289692   0.559   6.356   6.770
29287SOL     OW89693  13.196   3.043   4.640
29287SOL    HW189694  13.153   2.964   4.607
29287SOL    HW289695  13.264   3.011   4.699
29288SOL     OW89696   9.166   3.454   6.294
29288SOL    HW189697   9.138   3.540   6.264
29288SOL    HW289698   9.258   3.465   6.317
29289SOL     OW89699   7.327   5.700  10.367
29289SOL    HW189700   7.377   5.629  10.327
29289SOL    HW289701   7.356   5.701  10.458
29290SOL     OW89702   8.204  10.956   5.852
29290SOL    HW189703   8.134  10.916   5.903
29290SOL    HW289704   8.274  10.891   5.852
29291SOL     OW89705   8.189   0.733   3.232
29291SOL    HW189706   8.225   0.761   3.316
29291SOL    HW289707   8.254   0.759   3.167
29292SOL     OW89708  12.129   4.573  13.523
29292SOL    HW189709  12.139   4.493  13.471
29292SOL    HW289710  12.101   4.542  13.609
29293SOL     OW89711   2.935   1.150   8.747
29293SOL    HW189712   2.890   1.235   8.742
29293SOL    HW289713   2.889   1.094   8.685
29294SOL     OW89714   8.614   1.586   6.762
29294SOL    HW189715   8.663   1.643   6.703
29294SOL    HW289716   8.536   1.636   6.785
29295SOL     OW89717   2.657   4.139   9.756
29295SOL    HW189718   2.731   4.140   9.816
29295SOL    HW289719   2.688   4.092   9.679
29296SOL     OW89720   4.064  14.491   4.056
29296SOL    HW189721   4.147  14.444   4.068
29296SOL    HW289722   3.997  14.425   4.075
29297SOL     OW89723   9.670   4.751  11.804
29297SOL    HW189724   9.727   4.679  11.830
29297SOL    HW289725   9.729   4.821  11.778
29298SOL     OW89726   4.257   2.196  11.349
29298SOL    HW189727   4.308   2.265  11.392
29298SOL    HW289728   4.323   2.137  11.313
29299SOL     OW89729   9.113   0.996   5.937
29299SOL    HW189730   9.207   1.010   5.941
29299SOL    HW289731   9.084   1.045   5.861
29300SOL     OW89732   6.421  13.212  12.056
29300SOL    HW189733   6.380  13.280  12.003
29300SOL    HW289734   6.409  13.240  12.147
29301SOL     OW89735  11.801   3.281  14.446
29301SOL    HW189736  11.823   3.191  14.470
29301SOL    HW289737  11.881   3.331  14.461
29302SOL     OW89738  12.035   7.178  13.712
29302SOL    HW189739  11.950   7.208  13.679
29302SOL    HW289740  12.082   7.258  13.734
29303SOL     OW89741  13.582   0.360   3.922
29303SOL    HW189742  13.538   0.331   3.842
29303SOL    HW289743  13.672   0.329   3.913
29304SOL     OW89744   9.527  11.060  12.107
29304SOL    HW189745   9.493  11.000  12.042
29304SOL    HW289746   9.492  11.028  12.190
29305SOL     OW89747   2.111  13.111   7.883
29305SOL    HW189748   2.041  13.059   7.845
29305SOL    HW289749   2.158  13.051   7.941
29306SOL     OW89750  10.376  14.581   3.917
29306SOL    HW189751  10.413  14.667   3.896
29306SOL    HW289752  10.290  14.600   3.955
29307SOL     OW89753   1.339  10.055   9.549
29307SOL    HW189754   1.286  10.111   9.605
29307SOL    HW289755   1.320   9.966   9.579
29308SOL     OW89756   5.445   2.849  10.931
29308SOL    HW189757   5.523   2.793  10.929
29308SOL    HW289758   5.469   2.922  10.989
29309SOL     OW89759   6.979   3.837   0.738
29309SOL    HW189760   6.967   3.837   0.643
29309SOL    HW289761   7.073   3.854   0.750
29310SOL     OW89762   9.669   0.029  14.303
29310SOL    HW189763   9.622  14.828  14.279
29310SOL    HW289764   9.701   0.012  14.392
29311SOL     OW89765   5.303   2.787   9.531
29311SOL    HW189766   5.354   2.709   9.509
29311SOL    HW289767   5.366   2.846   9.573
29312SOL     OW89768   5.266  11.718   7.847
29312SOL    HW189769   5.206  11.778   7.893
29312SOL    HW289770   5.333  11.776   7.811
29313SOL     OW89771  14.243   6.336   1.232
29313SOL    HW189772  14.160   6.378   1.209
29313SOL    HW289773  14.229   6.305   1.322
29314SOL     OW89774  13.847   1.753   2.398
29314SOL    HW189775  13.879   1.693   2.465
29314SOL    HW289776  13.751   1.745   2.403
29315SOL     OW89777  13.680  14.517   1.903
29315SOL    HW189778  13.760  14.467   1.888
29315SOL    HW289779  13.620  14.488   1.834
29316SOL     OW89780   1.387   1.759   2.580
29316SOL    HW189781   1.373   1.748   2.486
29316SOL    HW289782   1.479   1.783   2.588
29317SOL     OW89783   9.006   9.387   7.465
29317SOL    HW189784   9.019   9.478   7.492
29317SOL    HW289785   8.930   9.390   7.407
29318SOL     OW89786   2.385   7.523   0.096
29318SOL    HW189787   2.409   7.554   0.184
29318SOL    HW289788   2.403   7.429   0.098
29319SOL     OW89789   5.319  13.822  10.294
29319SOL    HW189790   5.252  13.789  10.234
29319SOL    HW289791   5.306  13.772  10.374
29320SOL     OW89792  13.764   9.599   2.929
29320SOL    HW189793  13.741   9.679   2.881
29320SOL    HW289794  13.846   9.622   2.974
29321SOL     OW89795   5.954   3.245   3.719
29321SOL    HW189796   5.945   3.325   3.771
29321SOL    HW289797   5.967   3.276   3.630
29322SOL     OW89798   4.613   2.795   5.561
29322SOL    HW189799   4.638   2.753   5.479
29322SOL    HW289800   4.555   2.866   5.536
29323SOL     OW89801  11.470   5.208   3.320
29323SOL    HW189802  11.526   5.211   3.242
29323SOL    HW289803  11.510   5.272   3.380
29324SOL     OW89804   2.169   0.508   9.299
29324SOL    HW189805   2.187   0.536   9.388
29324SOL    HW289806   2.246   0.457   9.273
29325SOL     OW89807   0.409  12.340   1.941
29325SOL    HW189808   0.457  12.371   1.863
29325SOL    HW289809   0.374  12.420   1.980
29326SOL     OW89810   9.378  13.528   1.411
29326SOL    HW189811   9.363  13.489   1.497
29326SOL    HW289812   9.442  13.598   1.427
29327SOL     OW89813   1.146   2.067   8.248
29327SOL    HW189814   1.207   2.002   8.213
29327SOL    HW289815   1.201   2.123   8.304
29328SOL     OW89816   1.507   0.695  12.816
29328SOL    HW189817   1.522   0.765  12.753
29328SOL    HW289818   1.587   0.642  12.812
29329SOL     OW89819  12.317  11.686   1.503
29329SOL    HW189820  12.410  11.705   1.515
29329SOL    HW289821  12.302  11.606   1.553
29330SOL     OW89822   3.385   5.408   7.529
29330SOL    HW189823   3.450   5.377   7.466
29330SOL    HW289824   3.402   5.502   7.537
29331SOL     OW89825   1.965   7.495  14.203
29331SOL    HW189826   1.996   7.432  14.139
29331SOL    HW289827   2.014   7.474  14.283
29332SOL     OW89828   4.674   2.845   9.884
29332SOL    HW189829   4.735   2.821   9.814
29332SOL    HW289830   4.726   2.902   9.942
29333SOL     OW89831  11.060   3.312  10.714
29333SOL    HW189832  11.144   3.358  10.715
29333SOL    HW289833  11.072   3.242  10.649
29334SOL     OW89834  14.460   8.395   8.646
29334SOL    HW189835  14.502   8.346   8.575
29334SOL    HW289836  14.367   8.376   8.635
29335SOL     OW89837   9.603  10.787   7.656
29335SOL    HW189838   9.697  10.806   7.655
29335SOL    HW289839   9.568  10.842   7.726
29336SOL     OW89840   7.949   8.567  11.799
29336SOL    HW189841   7.922   8.481  11.766
29336SOL    HW289842   7.993   8.608  11.724
29337SOL     OW89843   0.832   6.149   5.767
29337SOL    HW189844   0.868   6.161   5.680
29337SOL    HW289845   0.745   6.111   5.753
29338SOL     OW89846   5.128   3.280   2.286
29338SOL    HW189847   5.131   3.237   2.371
29338SOL    HW289848   5.136   3.208   2.223
29339SOL     OW89849  10.423  12.745  11.355
29339SOL    HW189850  10.460  12.822  11.312
29339SOL    HW289851  10.329  12.749  11.337
29340SOL     OW89852  14.391  10.300  11.496
29340SOL    HW189853  14.358  10.355  11.567
29340SOL    HW289854  14.459  10.246  11.537
29341SOL     OW89855   7.253  10.328   8.417
29341SOL    HW189856   7.286  10.254   8.365
29341SOL    HW289857   7.290  10.314   8.504
29342SOL     OW89858  10.503   3.862  13.637
29342SOL    HW189859  10.423   3.915  13.644
29342SOL    HW289860  10.488   3.806  13.561
29343SOL     OW89861   6.651   4.513   4.409
29343SOL    HW189862   6.615   4.562   4.335
29343SOL    HW289863   6.696   4.439   4.368
29344SOL     OW89864   5.679  10.563   5.123
29344SOL    HW189865   5.767  10.526   5.119
29344SOL    HW289866   5.631  10.520   5.053
29345SOL     OW89867  13.679   6.324   6.562
29345SOL    HW189868  13.594   6.283   6.575
29345SOL    HW289869  13.658   6.412   6.530
29346SOL     OW89870  13.317  13.851   8.064
29346SOL    HW189871  13.394  13.900   8.034
29346SOL    HW289872  13.307  13.876   8.156
29347SOL     OW89873   3.075   7.167  12.563
29347SOL    HW189874   3.015   7.182  12.491
29347SOL    HW289875   3.159   7.146  12.522
29348SOL     OW89876   6.364   1.401   8.366
29348SOL    HW189877   6.435   1.466   8.371
29348SOL    HW289878   6.326   1.414   8.280
29349SOL     OW89879  12.420   3.088   0.781
29349SOL    HW189880  12.352   3.096   0.847
29349SOL    HW289881  12.496   3.051   0.827
29350SOL     OW89882   8.798   5.076  14.397
29350SOL    HW189883   8.816   5.028  14.478
29350SOL    HW289884   8.753   5.013  14.341
29351SOL     OW89885   6.418   3.808   3.133
29351SOL    HW189886   6.351   3.763   3.185
29351SOL    HW289887   6.376   3.823   3.048
29352SOL     OW89888   5.206   0.990   6.753
29352SOL    HW189889   5.205   1.068   6.809
29352SOL    HW289890   5.201   0.916   6.813
29353SOL     OW89891   5.803   4.156   2.493
29353SOL    HW189892   5.864   4.082   2.489
29353SOL    HW289893   5.776   4.160   2.585
29354SOL     OW89894   9.420   2.214   7.664
29354SOL    HW189895   9.456   2.179   7.583
29354SOL    HW289896   9.328   2.231   7.645
29355SOL     OW89897   1.782   6.971   3.978
29355SOL    HW189898   1.774   6.955   4.072
29355SOL    HW289899   1.821   6.891   3.944
29356SOL     OW89900  14.868  14.192   9.633
29356SOL    HW189901   0.026  14.253   9.569
29356SOL    HW289902  14.775  14.213   9.635
29357SOL     OW89903   2.832   1.121   7.863
29357SOL    HW189904   2.856   1.031   7.841
29357SOL    HW289905   2.914   1.170   7.853
29358SOL     OW89906   2.627  13.300   3.857
29358SOL    HW189907   2.669  13.348   3.786
29358SOL    HW289908   2.592  13.221   3.815
29359SOL     OW89909   6.282   6.593  14.178
29359SOL    HW189910   6.191   6.584  14.206
29359SOL    HW289911   6.279   6.582  14.083
29360SOL     OW89912   5.886  12.977   2.976
29360SOL    HW189913   5.904  12.992   3.069
29360SOL    HW289914   5.971  12.980   2.934
29361SOL     OW89915  10.586   7.309   0.460
29361SOL    HW189916  10.545   7.358   0.531
29361SOL    HW289917  10.607   7.376   0.395
29362SOL     OW89918   5.854   1.593   2.830
29362SOL    HW189919   5.773   1.541   2.826
29362SOL    HW289920   5.834   1.662   2.893
29363SOL     OW89921   8.468   9.072   1.148
29363SOL    HW189922   8.412   9.101   1.076
29363SOL    HW289923   8.552   9.114   1.132
29364SOL     OW89924  14.341   4.644   8.136
29364SOL    HW189925  14.382   4.642   8.049
29364SOL    HW289926  14.259   4.596   8.124
29365SOL     OW89927   7.211   1.987   2.116
29365SOL    HW189928   7.228   1.947   2.031
29365SOL    HW289929   7.286   1.962   2.170
29366SOL     OW89930   7.844   7.615  12.650
29366SOL    HW189931   7.753   7.586  12.647
29366SOL    HW289932   7.881   7.573  12.728
29367SOL     OW89933  11.502  11.102   8.286
29367SOL    HW189934  11.543  11.175   8.332
29367SOL    HW289935  11.537  11.024   8.329
29368SOL     OW89936   5.269  14.290   1.574
29368SOL    HW189937   5.284  14.355   1.643
29368SOL    HW289938   5.257  14.341   1.495
29369SOL     OW89939  12.685   5.008   0.787
29369SOL    HW189940  12.626   4.998   0.862
29369SOL    HW289941  12.772   4.995   0.822
29370SOL     OW89942   8.078   8.154   9.599
29370SOL    HW189943   8.084   8.114   9.685
29370SOL    HW289944   8.083   8.080   9.538
29371SOL     OW89945  13.418   1.706   3.686
29371SOL    HW189946  13.401   1.724   3.594
29371SOL    HW289947  13.402   1.790   3.730
29372SOL     OW89948  13.044  14.165  14.771
29372SOL    HW189949  13.022  14.074  14.751
29372SOL    HW289950  13.003  14.215  14.701
29373SOL     OW89951  12.225   6.840   6.490
29373SOL    HW189952  12.150   6.845   6.430
29373SOL    HW289953  12.283   6.775   6.451
29374SOL     OW89954   3.286   1.918   6.157
29374SOL    HW189955   3.355   1.894   6.095
29374SOL    HW289956   3.330   1.966   6.226
29375SOL     OW89957  10.988   0.734   8.038
29375SOL    HW189958  11.052   0.735   7.967
29375SOL    HW289959  10.993   0.822   8.077
29376SOL     OW89960   7.509   7.740  10.167
29376SOL    HW189961   7.509   7.813  10.106
29376SOL    HW289962   7.458   7.671  10.124
29377SOL     OW89963  13.327  12.026   4.734
29377SOL    HW189964  13.324  11.998   4.642
29377SOL    HW289965  13.253  12.086   4.742
29378SOL     OW89966   5.867   6.459   2.379
29378SOL    HW189967   5.912   6.526   2.328
29378SOL    HW289968   5.807   6.417   2.317
29379SOL     OW89969   0.120   8.350  10.494
29379SOL    HW189970   0.141   8.279  10.434
29379SOL    HW289971   0.173   8.333  10.572
29380SOL     OW89972   8.128   0.781   8.586
29380SOL    HW189973   8.209   0.781   8.535
29380SOL    HW289974   8.135   0.703   8.642
29381SOL     OW89975   0.903   9.124  12.393
29381SOL    HW189976   0.813   9.133  12.425
29381SOL    HW289977   0.957   9.164  12.461
29382SOL     OW89978   8.009   4.534   0.629
29382SOL    HW189979   7.953   4.459   0.650
29382SOL    HW289980   7.949   4.609   0.628
29383SOL     OW89981   3.151   4.034   4.162
29383SOL    HW189982   3.235   4.058   4.122
29383SOL    HW289983   3.162   3.941   4.185
29384SOL     OW89984   6.229   2.780   0.674
29384SOL    HW189985   6.182   2.739   0.601
29384SOL    HW289986   6.174   2.766   0.750
29385SOL     OW89987   9.752  10.678   1.996
29385SOL    HW189988   9.738  10.594   1.953
29385SOL    HW289989   9.739  10.660   2.089
29386SOL     OW89990   8.997   9.370  12.809
29386SOL    HW189991   8.992   9.308  12.737
29386SOL    HW289992   8.990   9.316  12.888
29387SOL     OW89993   2.951   1.692  10.943
29387SOL    HW189994   2.856   1.688  10.954
29387SOL    HW289995   2.978   1.601  10.936
29388SOL     OW89996   4.949  12.414   2.628
29388SOL    HW189997   5.041  12.393   2.607
29388SOL    HW289998   4.922  12.346   2.689
29389SOL     OW89999   7.496  14.241  10.364
29389SOL    HW190000   7.577  14.289  10.382
29389SOL    HW290001   7.436  14.307  10.331
29390SOL     OW90002   5.265   5.616   0.615
29390SOL    HW190003   5.238   5.643   0.527
29390SOL    HW290004   5.234   5.686   0.672
29391SOL     OW90005   2.573   2.731   3.755
29391SOL    HW190006   2.527   2.739   3.671
29391SOL    HW290007   2.536   2.800   3.810
29392SOL     OW90008  10.140   2.439  11.397
29392SOL    HW190009  10.164   2.529  11.420
29392SOL    HW290010  10.201   2.415  11.327
29393SOL     OW90011   2.146   7.910  11.602
29393SOL    HW190012   2.145   7.815  11.599
29393SOL    HW290013   2.181   7.931  11.689
29394SOL     OW90014  10.269   0.092   9.289
29394SOL    HW190015  10.316   0.176   9.287
29394SOL    HW290016  10.332   0.030   9.326
29395SOL     OW90017   8.630   6.609   1.365
29395SOL    HW190018   8.566   6.550   1.405
29395SOL    HW290019   8.640   6.680   1.429
29396SOL     OW90020  10.377  12.751  12.634
29396SOL    HW190021  10.375  12.711  12.547
29396SOL    HW290022  10.351  12.681  12.694
29397SOL     OW90023  11.879   3.702  14.521
29397SOL    HW190024  11.794   3.668  14.551
29397SOL    HW290025  11.898   3.652  14.441
29398SOL     OW90026   4.405  10.843   7.768
29398SOL    HW190027   4.366  10.772   7.819
29398SOL    HW290028   4.494  10.815   7.750
29399SOL     OW90029  14.116  14.723   0.723
29399SOL    HW190030  14.187  14.786   0.717
29399SOL    HW290031  14.159  14.639   0.736
29400SOL     OW90032   9.129  14.826   0.640
29400SOL    HW190033   9.156  14.845   0.550
29400SOL    HW290034   9.061   0.013   0.659
29401SOL     OW90035  14.049   3.909   1.541
29401SOL    HW190036  14.061   3.833   1.597
29401SOL    HW290037  14.133   3.955   1.545
29402SOL     OW90038  12.727   0.359   3.858
29402SOL    HW190039  12.634   0.336   3.865
29402SOL    HW290040  12.762   0.297   3.793
29403SOL     OW90041  13.476   9.231   1.477
29403SOL    HW190042  13.544   9.297   1.494
29403SOL    HW290043  13.509   9.152   1.520
29404SOL     OW90044   5.633  14.587  11.440
29404SOL    HW190045   5.666  14.594  11.350
29404SOL    HW290046   5.557  14.528  11.434
29405SOL     OW90047   2.406  10.037   0.074
29405SOL    HW190048   2.361  10.029  14.869
29405SOL    HW290049   2.341  10.077   0.132
29406SOL     OW90050   7.972   2.246  12.336
29406SOL    HW190051   8.027   2.314  12.297
29406SOL    HW290052   7.938   2.197  12.262
29407SOL     OW90053   6.535   2.130   7.257
29407SOL    HW190054   6.504   2.053   7.305
29407SOL    HW290055   6.480   2.202   7.288
29408SOL     OW90056  11.070   5.559   2.693
29408SOL    HW190057  10.998   5.616   2.721
29408SOL    HW290058  11.142   5.582   2.752
29409SOL     OW90059   4.613   8.105   1.791
29409SOL    HW190060   4.699   8.141   1.809
29409SOL    HW290061   4.624   8.057   1.708
29410SOL     OW90062   4.973  13.031   5.052
29410SOL    HW190063   5.009  12.960   4.998
29410SOL    HW290064   4.937  13.093   4.989
29411SOL     OW90065   5.402   8.901   4.150
29411SOL    HW190066   5.486   8.857   4.156
29411SOL    HW290067   5.378   8.918   4.241
29412SOL     OW90068   5.304  12.300   4.692
29412SOL    HW190069   5.363  12.371   4.666
29412SOL    HW290070   5.361  12.237   4.735
29413SOL     OW90071   7.109   5.670  14.773
29413SOL    HW190072   7.193   5.707  14.746
29413SOL    HW290073   7.049   5.695  14.703
29414SOL     OW90074   6.403   5.986  11.928
29414SOL    HW190075   6.443   5.938  12.001
29414SOL    HW290076   6.321   5.940  11.912
29415SOL     OW90077   0.990  14.859   8.096
29415SOL    HW190078   1.067  14.803   8.108
29415SOL    HW290079   0.917  14.797   8.092
29416SOL     OW90080   0.362   6.307  12.483
29416SOL    HW190081   0.267   6.296  12.491
29416SOL    HW290082   0.375   6.339  12.394
29417SOL     OW90083  12.447   9.268   8.428
29417SOL    HW190084  12.460   9.176   8.407
29417SOL    HW290085  12.533   9.299   8.456
29418SOL     OW90086   8.818  12.651   6.320
29418SOL    HW190087   8.877  12.691   6.384
29418SOL    HW290088   8.852  12.679   6.235
29419SOL     OW90089   0.334   6.706   9.732
29419SOL    HW190090   0.248   6.691   9.695
29419SOL    HW290091   0.317   6.737   9.821
29420SOL     OW90092   0.715   8.676  14.142
29420SOL    HW190093   0.679   8.761  14.118
29420SOL    HW290094   0.672   8.614  14.084
29421SOL     OW90095   5.351   3.816   6.567
29421SOL    HW190096   5.368   3.884   6.633
29421SOL    HW290097   5.306   3.863   6.496
29422SOL     OW90098   0.214   9.426   1.051
29422SOL    HW190099   0.245   9.345   1.010
29422SOL    HW290100   0.134   9.401   1.096
29423SOL     OW90101  13.183  12.695  12.094
29423SOL    HW190102  13.173  12.711  12.000
29423SOL    HW290103  13.170  12.780  12.135
29424SOL     OW90104  10.647  12.799   6.291
29424SOL    HW190105  10.698  12.733   6.245
29424SOL    HW290106  10.688  12.804   6.378
29425SOL     OW90107  14.263   8.120   4.888
29425SOL    HW190108  14.239   8.027   4.888
29425SOL    HW290109  14.187   8.164   4.925
29426SOL     OW90110  10.687   8.215   0.324
29426SOL    HW190111  10.783   8.220   0.322
29426SOL    HW290112  10.666   8.192   0.414
29427SOL     OW90113  11.374   6.298  12.550
29427SOL    HW190114  11.337   6.366  12.607
29427SOL    HW290115  11.297   6.252  12.515
29428SOL     OW90116   1.218  13.585   1.137
29428SOL    HW190117   1.215  13.553   1.047
29428SOL    HW290118   1.296  13.544   1.174
29429SOL     OW90119  14.547  14.484   9.565
29429SOL    HW190120  14.478  14.521   9.510
29429SOL    HW290121  14.618  14.548   9.560
29430SOL     OW90122   2.200  12.822   1.923
29430SOL    HW190123   2.275  12.802   1.867
29430SOL    HW290124   2.238  12.840   2.009
29431SOL     OW90125  13.340   0.080   6.849
29431SOL    HW190126  13.401   0.152   6.863
29431SOL    HW290127  13.261   0.106   6.896
29432SOL     OW90128  10.124   8.194  14.388
29432SOL    HW190129  10.067   8.228  14.456
29432SOL    HW290130  10.210   8.187  14.430
29433SOL     OW90131   6.801   2.140  13.846
29433SOL    HW190132   6.787   2.068  13.784
29433SOL    HW290133   6.784   2.101  13.932
29434SOL     OW90134   4.387   4.517   5.577
29434SOL    HW190135   4.328   4.553   5.511
29434SOL    HW290136   4.428   4.442   5.535
29435SOL     OW90137   1.148   7.818   9.844
29435SOL    HW190138   1.231   7.858   9.820
29435SOL    HW290139   1.159   7.725   9.824
29436SOL     OW90140  14.829   1.687   3.978
29436SOL    HW190141  14.844   1.763   4.034
29436SOL    HW290142  14.766   1.717   3.913
29437SOL     OW90143   5.211  11.159   0.156
29437SOL    HW190144   5.182  11.123   0.072
29437SOL    HW290145   5.227  11.082   0.210
29438SOL     OW90146   6.555   9.787   7.039
29438SOL    HW190147   6.540   9.811   7.130
29438SOL    HW290148   6.476   9.738   7.014
29439SOL     OW90149   2.225   7.258   2.375
29439SOL    HW190150   2.257   7.212   2.452
29439SOL    HW290151   2.250   7.201   2.301
29440SOL     OW90152   0.507  14.306   9.215
29440SOL    HW190153   0.443  14.245   9.252
29440SOL    HW290154   0.585  14.294   9.269
29441SOL     OW90155  12.781   6.985  10.320
29441SOL    HW190156  12.762   6.891  10.314
29441SOL    HW290157  12.773   7.005  10.413
29442SOL     OW90158   8.142   1.595   2.785
29442SOL    HW190159   8.182   1.602   2.872
29442SOL    HW290160   8.169   1.675   2.740
29443SOL     OW90161   5.481  11.030   5.779
29443SOL    HW190162   5.453  10.966   5.844
29443SOL    HW290163   5.411  11.032   5.714
29444SOL     OW90164   0.857  13.893   6.173
29444SOL    HW190165   0.788  13.947   6.135
29444SOL    HW290166   0.896  13.948   6.241
29445SOL     OW90167   5.946   6.477   8.521
29445SOL    HW190168   5.859   6.497   8.485
29445SOL    HW290169   6.003   6.543   8.483
29446SOL     OW90170  13.745   9.999   3.440
29446SOL    HW190171  13.775   9.930   3.380
29446SOL    HW290172  13.743   9.956   3.526
29447SOL     OW90173   9.672   0.668   5.059
29447SOL    HW190174   9.675   0.763   5.051
29447SOL    HW290175   9.634   0.651   5.145
29448SOL     OW90176   6.371   3.869  14.441
29448SOL    HW190177   6.416   3.795  14.400
29448SOL    HW290178   6.441   3.929  14.466
29449SOL     OW90179   3.741   3.934   4.774
29449SOL    HW190180   3.818   3.906   4.822
29449SOL    HW290181   3.750   4.029   4.766
29450SOL     OW90182  10.037   5.094  13.817
29450SOL    HW190183  10.047   5.180  13.857
29450SOL    HW290184   9.945   5.090  13.790
29451SOL     OW90185  11.168   0.521  10.269
29451SOL    HW190186  11.115   0.486  10.340
29451SOL    HW290187  11.160   0.457  10.199
29452SOL     OW90188   1.140  13.328   0.542
29452SOL    HW190189   1.068  13.386   0.566
29452SOL    HW290190   1.188  13.376   0.474
29453SOL     OW90191  13.458   2.454   7.258
29453SOL    HW190192  13.389   2.392   7.283
29453SOL    HW290193  13.433   2.483   7.170
29454SOL     OW90194   6.456  12.755   1.306
29454SOL    HW190195   6.515  12.716   1.370
29454SOL    HW290196   6.388  12.688   1.293
29455SOL     OW90197  14.753   1.504  12.173
29455SOL    HW190198  14.687   1.438  12.194
29455SOL    HW290199  14.825   1.455  12.133
29456SOL     OW90200  14.861   7.948   2.450
29456SOL    HW190201   0.038   7.901   2.512
29456SOL    HW290202  14.800   7.881   2.418
29457SOL     OW90203   2.757  10.229  10.612
29457SOL    HW190204   2.701  10.172  10.665
29457SOL    HW290205   2.800  10.170  10.550
29458SOL     OW90206  14.467   5.282  11.107
29458SOL    HW190207  14.549   5.246  11.073
29458SOL    HW290208  14.464   5.372  11.074
29459SOL     OW90209  12.341   2.860  10.339
29459SOL    HW190210  12.323   2.948  10.372
29459SOL    HW290211  12.270   2.806  10.376
29460SOL     OW90212  10.203  10.713   0.623
29460SOL    HW190213  10.265  10.731   0.553
29460SOL    HW290214  10.129  10.771   0.606
29461SOL     OW90215  11.190   2.542  14.569
29461SOL    HW190216  11.180   2.495  14.651
29461SOL    HW290217  11.101   2.549  14.534
29462SOL     OW90218   2.758  12.259   2.879
29462SOL    HW190219   2.825  12.328   2.876
29462SOL    HW290220   2.730  12.248   2.788
29463SOL     OW90221   0.092   3.548   7.733
29463SOL    HW190222   0.140   3.627   7.709
29463SOL    HW290223   0.140   3.477   7.691
29464SOL     OW90224  13.703  12.572   9.681
29464SOL    HW190225  13.763  12.524   9.739
29464SOL    HW290226  13.616  12.551   9.714
29465SOL     OW90227   5.658   8.848  11.751
29465SOL    HW190228   5.612   8.797  11.817
29465SOL    HW290229   5.733   8.794  11.727
29466SOL     OW90230   5.512   1.081   7.991
29466SOL    HW190231   5.419   1.085   8.011
29466SOL    HW290232   5.555   1.082   8.076
29467SOL     OW90233   4.541   7.148   4.554
29467SOL    HW190234   4.576   7.105   4.633
29467SOL    HW290235   4.453   7.113   4.545
29468SOL     OW90236   1.248  14.041   9.319
29468SOL    HW190237   1.320  13.981   9.335
29468SOL    HW290238   1.262  14.073   9.230
29469SOL     OW90239   3.994   4.143   3.232
29469SOL    HW190240   3.951   4.088   3.297
29469SOL    HW290241   3.936   4.139   3.155
29470SOL     OW90242   3.229  10.594   4.914
29470SOL    HW190243   3.229  10.607   4.819
29470SOL    HW290244   3.159  10.531   4.929
29471SOL     OW90245   9.460   8.318   0.268
29471SOL    HW190246   9.554   8.320   0.286
29471SOL    HW290247   9.419   8.298   0.352
29472SOL     OW90248  14.148   1.030  13.754
29472SOL    HW190249  14.213   1.075  13.809
29472SOL    HW290250  14.196   1.008  13.674
29473SOL     OW90251   6.394  11.396   6.168
29473SOL    HW190252   6.464  11.460   6.170
29473SOL    HW290253   6.380  11.378   6.075
29474SOL     OW90254   8.307   5.514  13.590
29474SOL    HW190255   8.221   5.518  13.632
29474SOL    HW290256   8.292   5.549  13.502
29475SOL     OW90257  11.699  14.121   1.960
29475SOL    HW190258  11.659  14.075   1.886
29475SOL    HW290259  11.662  14.079   2.037
29476SOL     OW90260   0.784   5.867  14.185
29476SOL    HW190261   0.748   5.920  14.256
29476SOL    HW290262   0.708   5.819  14.151
29477SOL     OW90263   5.258   3.557   2.949
29477SOL    HW190264   5.306   3.515   3.021
29477SOL    HW290265   5.325   3.604   2.900
29478SOL     OW90266   4.785   2.670   9.292
29478SOL    HW190267   4.827   2.712   9.368
29478SOL    HW290268   4.694   2.699   9.295
29479SOL     OW90269   0.552  10.522   5.311
29479SOL    HW190270   0.611  10.560   5.246
29479SOL    HW290271   0.473  10.575   5.307
29480SOL     OW90272   3.078   4.267   9.536
29480SOL    HW190273   3.012   4.324   9.575
29480SOL    HW290274   3.079   4.190   9.593
29481SOL     OW90275   4.884  13.724   2.848
29481SOL    HW190276   4.843  13.807   2.873
29481SOL    HW290277   4.811  13.662   2.843
29482SOL     OW90278   1.403   4.498  14.864
29482SOL    HW190279   1.388   4.561  14.794
29482SOL    HW290280   1.427   4.417  14.819
29483SOL     OW90281  11.988   8.728   0.024
29483SOL    HW190282  12.008   8.821   0.022
29483SOL    HW290283  11.893   8.723   0.023
29484SOL     OW90284  10.757  12.353   0.601
29484SOL    HW190285  10.715  12.401   0.673
29484SOL    HW290286  10.850  12.351   0.624
29485SOL     OW90287   2.919   2.357   0.748
29485SOL    HW190288   2.891   2.357   0.657
29485SOL    HW290289   2.841   2.381   0.798
29486SOL     OW90290   1.090   3.647   4.934
29486SOL    HW190291   1.159   3.713   4.947
29486SOL    HW290292   1.027   3.690   4.876
29487SOL     OW90293  11.034  10.129  10.978
29487SOL    HW190294  11.110  10.133  10.920
29487SOL    HW290295  11.000  10.218  10.980
29488SOL     OW90296   3.047  12.999   9.048
29488SOL    HW190297   3.108  13.013   8.976
29488SOL    HW290298   3.073  13.063   9.115
29489SOL     OW90299   6.842   6.282   4.329
29489SOL    HW190300   6.912   6.267   4.392
29489SOL    HW290301   6.825   6.197   4.290
29490SOL     OW90302  10.301   2.286   6.505
29490SOL    HW190303  10.208   2.295   6.482
29490SOL    HW290304  10.337   2.227   6.439
29491SOL     OW90305  13.044  10.374   2.285
29491SOL    HW190306  13.045  10.313   2.358
29491SOL    HW290307  13.046  10.319   2.207
29492SOL     OW90308   0.483   7.199   4.718
29492SOL    HW190309   0.396   7.223   4.750
29492SOL    HW290310   0.472   7.112   4.680
29493SOL     OW90311   4.664   8.223   2.690
29493SOL    HW190312   4.608   8.195   2.617
29493SOL    HW290313   4.639   8.165   2.762
29494SOL     OW90314   1.962   7.679   3.005
29494SOL    HW190315   2.047   7.659   2.965
29494SOL    HW290316   1.947   7.606   3.065
29495SOL     OW90317  13.586  11.105  11.162
29495SOL    HW190318  13.555  11.045  11.230
29495SOL    HW290319  13.681  11.109  11.174
29496SOL     OW90320   4.057  11.357   5.821
29496SOL    HW190321   3.990  11.337   5.886
29496SOL    HW290322   4.106  11.431   5.857
29497SOL     OW90323   6.908   4.871   7.536
29497SOL    HW190324   6.988   4.913   7.504
29497SOL    HW290325   6.933   4.832   7.619
29498SOL     OW90326  11.191   2.690  12.569
29498SOL    HW190327  11.199   2.768  12.624
29498SOL    HW290328  11.217   2.618  12.627
29499SOL     OW90329  11.864  14.825   4.622
29499SOL    HW190330  11.793  14.799   4.563
29499SOL    HW290331  11.851   0.040   4.636
29500SOL     OW90332   6.655   8.385  11.064
29500SOL    HW190333   6.685   8.325  11.133
29500SOL    HW290334   6.716   8.371  10.992
29501SOL     OW90335   7.934   5.199  10.724
29501SOL    HW190336   7.934   5.263  10.653
29501SOL    HW290337   8.013   5.218  10.774
29502SOL     OW90338   7.753   4.662  13.589
29502SOL    HW190339   7.720   4.603  13.656
29502SOL    HW290340   7.697   4.646  13.513
29503SOL     OW90341   9.775   5.690  13.290
29503SOL    HW190342   9.802   5.772  13.248
29503SOL    HW290343   9.692   5.667  13.246
29504SOL     OW90344   9.528  12.482   2.086
29504SOL    HW190345   9.520  12.447   2.174
29504SOL    HW290346   9.591  12.554   2.094
29505SOL     OW90347   8.386   9.107  10.820
29505SOL    HW190348   8.381   9.072  10.731
29505SOL    HW290349   8.406   9.200  10.808
29506SOL     OW90350   4.420   7.705  11.146
29506SOL    HW190351   4.457   7.656  11.220
29506SOL    HW290352   4.496   7.750  11.107
29507SOL     OW90353   2.256  10.811   1.307
29507SOL    HW190354   2.272  10.717   1.301
29507SOL    HW290355   2.206  10.832   1.228
29508SOL     OW90356  12.236   2.953   3.427
29508SOL    HW190357  12.313   2.961   3.371
29508SOL    HW290358  12.265   2.983   3.513
29509SOL     OW90359   5.741   0.335   5.749
29509SOL    HW190360   5.657   0.308   5.710
29509SOL    HW290361   5.715   0.390   5.823
29510SOL     OW90362   0.988   6.617   6.230
29510SOL    HW190363   1.040   6.537   6.233
29510SOL    HW290364   0.898   6.588   6.246
29511SOL     OW90365   5.137  13.392  10.778
29511SOL    HW190366   5.209  13.386  10.715
29511SOL    HW290367   5.067  13.436  10.729
29512SOL     OW90368   7.179   2.804   4.316
29512SOL    HW190369   7.249   2.864   4.292
29512SOL    HW290370   7.118   2.808   4.243
29513SOL     OW90371   4.605   4.028  14.638
29513SOL    HW190372   4.596   4.110  14.686
29513SOL    HW290373   4.663   3.974  14.691
29514SOL     OW90374   6.025  14.742  11.373
29514SOL    HW190375   5.960  14.672  11.379
29514SOL    HW290376   6.086  14.713  11.305
29515SOL     OW90377   6.298   9.935   6.770
29515SOL    HW190378   6.254   9.891   6.843
29515SOL    HW290379   6.380   9.968   6.807
29516SOL     OW90380   4.936   4.987   0.378
29516SOL    HW190381   4.992   4.980   0.456
29516SOL    HW290382   4.978   4.930   0.313
29517SOL     OW90383   3.473  11.210   7.729
29517SOL    HW190384   3.507  11.293   7.696
29517SOL    HW290385   3.552  11.160   7.751
29518SOL     OW90386   8.032  12.530  13.980
29518SOL    HW190387   8.073  12.614  14.003
29518SOL    HW290388   7.952  12.528  14.031
29519SOL     OW90389  11.701   4.223   6.476
29519SOL    HW190390  11.776   4.187   6.429
29519SOL    HW290391  11.734   4.242   6.563
29520SOL     OW90392  11.973  11.919  12.161
29520SOL    HW190393  11.999  11.911  12.253
29520SOL    HW290394  11.891  11.968  12.164
29521SOL     OW90395   2.643  13.485   4.267
29521SOL    HW190396   2.682  13.424   4.205
29521SOL    HW290397   2.629  13.565   4.218
29522SOL     OW90398   1.780  13.704   3.125
29522SOL    HW190399   1.830  13.624   3.108
29522SOL    HW290400   1.712  13.705   3.057
29523SOL     OW90401   4.170   3.307   2.237
29523SOL    HW190402   4.150   3.401   2.237
29523SOL    HW290403   4.116   3.270   2.167
29524SOL     OW90404   2.075   1.251  10.788
29524SOL    HW190405   2.046   1.314  10.855
29524SOL    HW290406   2.169   1.266  10.780
29525SOL     OW90407  13.080   3.540   3.707
29525SOL    HW190408  13.091   3.620   3.657
29525SOL    HW290409  13.028   3.565   3.784
29526SOL     OW90410   7.577   3.460   5.684
29526SOL    HW190411   7.632   3.382   5.676
29526SOL    HW290412   7.524   3.445   5.762
29527SOL     OW90413  11.065  12.513   6.275
29527SOL    HW190414  10.978  12.547   6.293
29527SOL    HW290415  11.055  12.459   6.197
29528SOL     OW90416   9.105   5.956   6.406
29528SOL    HW190417   9.153   5.991   6.331
29528SOL    HW290418   9.073   6.034   6.452
29529SOL     OW90419   8.394   5.031  12.756
29529SOL    HW190420   8.487   5.050  12.742
29529SOL    HW290421   8.384   4.939  12.732
29530SOL     OW90422   7.270   1.910   8.498
29530SOL    HW190423   7.322   1.866   8.430
29530SOL    HW290424   7.194   1.946   8.450
29531SOL     OW90425   4.502   0.647  10.993
29531SOL    HW190426   4.448   0.682  10.921
29531SOL    HW290427   4.461   0.563  11.014
29532SOL     OW90428   5.405  13.064  11.048
29532SOL    HW190429   5.472  13.127  11.020
29532SOL    HW290430   5.322  13.107  11.029
29533SOL     OW90431   6.935   2.683  12.108
29533SOL    HW190432   6.949   2.721  12.021
29533SOL    HW290433   6.893   2.599  12.092
29534SOL     OW90434   8.248  13.875   4.019
29534SOL    HW190435   8.244  13.968   4.042
29534SOL    HW290436   8.291  13.834   4.093
29535SOL     OW90437   1.652  12.646   3.918
29535SOL    HW190438   1.609  12.631   4.003
29535SOL    HW290439   1.617  12.578   3.861
29536SOL     OW90440   5.580  13.761   4.455
29536SOL    HW190441   5.647  13.697   4.481
29536SOL    HW290442   5.508  13.746   4.517
29537SOL     OW90443  10.958  11.647  11.475
29537SOL    HW190444  11.001  11.561  11.481
29537SOL    HW290445  10.868  11.630  11.501
29538SOL     OW90446   0.946   2.053   4.201
29538SOL    HW190447   1.009   2.059   4.130
29538SOL    HW290448   0.909   1.965   4.193
29539SOL     OW90449   1.940   8.062   1.906
29539SOL    HW190450   1.847   8.067   1.928
29539SOL    HW290451   1.977   8.144   1.937
29540SOL     OW90452   3.188   2.049  12.693
29540SOL    HW190453   3.275   2.087  12.692
29540SOL    HW290454   3.163   2.043  12.601
29541SOL     OW90455   7.253   1.202  13.038
29541SOL    HW190456   7.189   1.253  12.988
29541SOL    HW290457   7.266   1.122  12.987
29542SOL     OW90458   9.439   2.515  13.702
29542SOL    HW190459   9.366   2.570  13.729
29542SOL    HW290460   9.515   2.573  13.705
29543SOL     OW90461   7.639   6.631   2.630
29543SOL    HW190462   7.624   6.543   2.596
29543SOL    HW290463   7.630   6.689   2.554
29544SOL     OW90464   5.599   6.073  12.468
29544SOL    HW190465   5.671   6.099  12.525
29544SOL    HW290466   5.555   6.155  12.446
29545SOL     OW90467   4.138  10.767   4.343
29545SOL    HW190468   4.096  10.711   4.278
29545SOL    HW290469   4.203  10.817   4.294
29546SOL     OW90470   8.861   3.739  13.948
29546SOL    HW190471   8.799   3.668  13.932
29546SOL    HW290472   8.842   3.768  14.037
29547SOL     OW90473  12.162   3.606   6.655
29547SOL    HW190474  12.234   3.615   6.593
29547SOL    HW290475  12.118   3.691   6.654
29548SOL     OW90476   0.738   0.955   9.001
29548SOL    HW190477   0.749   0.864   9.028
29548SOL    HW290478   0.698   0.950   8.915
29549SOL     OW90479   6.749  11.263   6.145
29549SOL    HW190480   6.809  11.301   6.209
29549SOL    HW290481   6.803  11.252   6.066
29550SOL     OW90482   0.022   6.821   0.795
29550SOL    HW190483  14.824   6.807   0.740
29550SOL    HW290484  14.871   6.877   0.866
29551SOL     OW90485  13.336   4.755  13.166
29551SOL    HW190486  13.255   4.705  13.174
29551SOL    HW290487  13.381   4.716  13.091
29552SOL     OW90488  10.708   1.439  14.465
29552SOL    HW190489  10.629   1.391  14.488
29552SOL    HW290490  10.722   1.500  14.538
29553SOL     OW90491   6.043   2.702   3.443
29553SOL    HW190492   6.064   2.717   3.351
29553SOL    HW290493   5.995   2.619   3.443
29554SOL     OW90494  10.253  14.815   3.259
29554SOL    HW190495  10.331  14.870   3.253
29554SOL    HW290496  10.231  14.814   3.352
29555SOL     OW90497   1.631   2.744   3.896
29555SOL    HW190498   1.549   2.696   3.901
29555SOL    HW290499   1.681   2.700   3.827
29556SOL     OW90500   2.970  14.164   3.516
29556SOL    HW190501   3.016  14.086   3.547
29556SOL    HW290502   2.901  14.130   3.460
29557SOL     OW90503   1.334  10.399   9.586
29557SOL    HW190504   1.279  10.351   9.648
29557SOL    HW290505   1.415  10.349   9.584
29558SOL     OW90506   2.047  11.011  14.104
29558SOL    HW190507   2.005  11.029  14.020
29558SOL    HW290508   1.974  11.000  14.166
29559SOL     OW90509   3.238  10.507   2.641
29559SOL    HW190510   3.301  10.487   2.710
29559SOL    HW290511   3.256  10.443   2.572
29560SOL     OW90512   4.019  11.792   8.659
29560SOL    HW190513   4.056  11.718   8.611
29560SOL    HW290514   3.995  11.756   8.745
29561SOL     OW90515  13.500   1.838   1.434
29561SOL    HW190516  13.465   1.925   1.451
29561SOL    HW290517  13.433   1.794   1.383
29562SOL     OW90518   5.686   6.922  12.825
29562SOL    HW190519   5.704   6.908  12.732
29562SOL    HW290520   5.767   6.898  12.870
29563SOL     OW90521  12.334   1.639   0.501
29563SOL    HW190522  12.412   1.668   0.454
29563SOL    HW290523  12.264   1.645   0.437
29564SOL     OW90524   4.524  14.303   8.665
29564SOL    HW190525   4.505  14.352   8.585
29564SOL    HW290526   4.476  14.350   8.734
29565SOL     OW90527  14.796   6.411   7.654
29565SOL    HW190528  14.719   6.379   7.702
29565SOL    HW290529  14.803   6.503   7.679
29566SOL     OW90530  14.720   4.258   7.535
29566SOL    HW190531  14.753   4.305   7.459
29566SOL    HW290532  14.767   4.175   7.536
29567SOL     OW90533   7.185  12.639   3.884
29567SOL    HW190534   7.180  12.624   3.978
29567SOL    HW290535   7.273  12.673   3.870
29568SOL     OW90536   4.146   3.139  14.372
29568SOL    HW190537   4.225   3.159  14.423
29568SOL    HW290538   4.080   3.200  14.405
29569SOL     OW90539   7.813   8.809   4.702
29569SOL    HW190540   7.790   8.884   4.756
29569SOL    HW290541   7.854   8.747   4.762
29570SOL     OW90542   7.772  14.374  12.806
29570SOL    HW190543   7.827  14.416  12.872
29570SOL    HW290544   7.683  14.404  12.827
29571SOL     OW90545   2.395  13.275   5.817
29571SOL    HW190546   2.360  13.309   5.899
29571SOL    HW290547   2.331  13.302   5.751
29572SOL     OW90548  14.761   5.008   3.198
29572SOL    HW190549  14.803   5.048   3.274
29572SOL    HW290550  14.670   4.997   3.225
29573SOL     OW90551   8.962  13.012   2.024
29573SOL    HW190552   8.974  13.035   2.116
29573SOL    HW290553   8.871  13.035   2.005
29574SOL     OW90554  12.025  13.885   8.542
29574SOL    HW190555  12.028  13.928   8.628
29574SOL    HW290556  11.943  13.836   8.542
29575SOL     OW90557   8.217   5.107   1.414
29575SOL    HW190558   8.195   5.051   1.340
29575SOL    HW290559   8.276   5.173   1.376
29576SOL     OW90560  13.560  11.057  14.211
29576SOL    HW190561  13.541  11.105  14.131
29576SOL    HW290562  13.606  11.120  14.267
29577SOL     OW90563   5.929  10.785   7.400
29577SOL    HW190564   5.953  10.868   7.358
29577SOL    HW290565   5.848  10.804   7.447
29578SOL     OW90566  12.647   8.568  13.459
29578SOL    HW190567  12.707   8.592  13.388
29578SOL    HW290568  12.602   8.649  13.481
29579SOL     OW90569   3.071  10.496   1.890
29579SOL    HW190570   3.047  10.568   1.831
29579SOL    HW290571   3.090  10.422   1.832
29580SOL     OW90572   2.525   1.822   7.490
29580SOL    HW190573   2.442   1.800   7.533
29580SOL    HW290574   2.592   1.805   7.556
29581SOL     OW90575   8.856  12.954   4.912
29581SOL    HW190576   8.866  12.982   5.004
29581SOL    HW290577   8.762  12.937   4.903
29582SOL     OW90578   6.009  12.310   6.293
29582SOL    HW190579   5.986  12.348   6.378
29582SOL    HW290580   6.102  12.288   6.301
29583SOL     OW90581   2.276   8.056   0.287
29583SOL    HW190582   2.226   7.976   0.277
29583SOL    HW290583   2.364   8.027   0.312
29584SOL     OW90584   7.989   5.147  11.175
29584SOL    HW190585   8.050   5.105  11.236
29584SOL    HW290586   7.916   5.175  11.230
29585SOL     OW90587  10.983  12.460  10.036
29585SOL    HW190588  11.016  12.377  10.003
29585SOL    HW290589  10.992  12.454  10.131
29586SOL     OW90590  11.571  11.781   8.748
29586SOL    HW190591  11.514  11.796   8.673
29586SOL    HW290592  11.638  11.850   8.741
29587SOL     OW90593   5.601   4.773   0.619
29587SOL    HW190594   5.604   4.767   0.715
29587SOL    HW290595   5.602   4.867   0.601
29588SOL     OW90596   2.511  12.646   0.662
29588SOL    HW190597   2.486  12.732   0.696
29588SOL    HW290598   2.571  12.611   0.727
29589SOL     OW90599   3.134  12.884   3.858
29589SOL    HW190600   3.144  12.862   3.951
29589SOL    HW290601   3.041  12.904   3.849
29590SOL     OW90602   0.220  10.238  13.381
29590SOL    HW190603   0.155  10.224  13.312
29590SOL    HW290604   0.217  10.332  13.398
29591SOL     OW90605   6.082  13.492  10.769
29591SOL    HW190606   6.038  13.408  10.755
29591SOL    HW290607   6.016  13.557  10.744
29592SOL     OW90608   5.156   5.564   3.163
29592SOL    HW190609   5.234   5.574   3.109
29592SOL    HW290610   5.162   5.634   3.228
29593SOL     OW90611  10.096   3.456  11.366
29593SOL    HW190612  10.109   3.499  11.450
29593SOL    HW290613  10.095   3.527  11.302
29594SOL     OW90614   9.692   0.192   1.029
29594SOL    HW190615   9.727   0.146   0.953
29594SOL    HW290616   9.647   0.124   1.080
29595SOL     OW90617  13.826   6.398   8.830
29595SOL    HW190618  13.770   6.474   8.846
29595SOL    HW290619  13.768   6.333   8.791
29596SOL     OW90620   4.874   2.031   7.331
29596SOL    HW190621   4.905   2.028   7.240
29596SOL    HW290622   4.788   1.988   7.329
29597SOL     OW90623   8.106   8.656   7.205
29597SOL    HW190624   8.167   8.633   7.275
29597SOL    HW290625   8.097   8.751   7.212
29598SOL     OW90626   7.751   1.929  13.129
29598SOL    HW190627   7.845   1.924  13.108
29598SOL    HW290628   7.709   1.876  13.062
29599SOL     OW90629   7.073   7.064   2.663
29599SOL    HW190630   7.032   7.039   2.745
29599SOL    HW290631   7.059   6.990   2.604
29600SOL     OW90632   8.918   7.319   8.188
29600SOL    HW190633   8.930   7.413   8.204
29600SOL    HW290634   8.864   7.289   8.261
29601SOL     OW90635   4.807  10.509  14.208
29601SOL    HW190636   4.755  10.531  14.131
29601SOL    HW290637   4.766  10.430  14.244
29602SOL     OW90638   6.577   2.362   5.043
29602SOL    HW190639   6.541   2.388   4.958
29602SOL    HW290640   6.580   2.443   5.093
29603SOL     OW90641   9.181  13.997   4.640
29603SOL    HW190642   9.152  14.088   4.644
29603SOL    HW290643   9.161  13.970   4.550
29604SOL     OW90644   5.685   1.161   4.895
29604SOL    HW190645   5.650   1.247   4.919
29604SOL    HW290646   5.646   1.142   4.810
29605SOL     OW90647   5.895   8.011  11.246
29605SOL    HW190648   5.856   8.096  11.268
29605SOL    HW290649   5.947   7.988  11.323
29606SOL     OW90650   2.534   2.673  13.160
29606SOL    HW190651   2.522   2.768  13.164
29606SOL    HW290652   2.530   2.645  13.251
29607SOL     OW90653   4.631   9.917   8.887
29607SOL    HW190654   4.540   9.915   8.918
29607SOL    HW290655   4.677   9.854   8.943
29608SOL     OW90656   4.264  12.186   5.059
29608SOL    HW190657   4.170  12.181   5.076
29608SOL    HW290658   4.301  12.111   5.106
29609SOL     OW90659   6.824   2.577  11.367
29609SOL    HW190660   6.825   2.670  11.390
29609SOL    HW290661   6.860   2.575  11.278
29610SOL     OW90662   5.775   2.724  12.267
29610SOL    HW190663   5.857   2.677  12.286
29610SOL    HW290664   5.761   2.710  12.174
29611SOL     OW90665   3.159   0.889   5.145
29611SOL    HW190666   3.228   0.954   5.136
29611SOL    HW290667   3.204   0.805   5.148
29612SOL     OW90668  10.494  12.988  11.520
29612SOL    HW190669  10.507  13.047  11.447
29612SOL    HW290670  10.546  13.026  11.592
29613SOL     OW90671  14.048   4.339  10.305
29613SOL    HW190672  14.056   4.282  10.382
29613SOL    HW290673  13.993   4.411  10.334
29614SOL     OW90674  13.405  10.152   6.074
29614SOL    HW190675  13.344  10.079   6.059
29614SOL    HW290676  13.492  10.114   6.062
29615SOL     OW90677  10.420   5.568   8.358
29615SOL    HW190678  10.380   5.653   8.340
29615SOL    HW290679  10.456   5.540   8.273
29616SOL     OW90680   7.639  14.812   2.738
29616SOL    HW190681   7.729  14.835   2.717
29616SOL    HW290682   7.640  14.789   2.831
29617SOL     OW90683   8.730   7.017   1.378
29617SOL    HW190684   8.701   7.004   1.468
29617SOL    HW290685   8.806   6.960   1.368
29618SOL     OW90686   1.225   8.206   3.588
29618SOL    HW190687   1.267   8.241   3.510
29618SOL    HW290688   1.168   8.136   3.555
29619SOL     OW90689  10.231   8.444  11.654
29619SOL    HW190690  10.249   8.536  11.632
29619SOL    HW290691  10.187   8.409  11.577
29620SOL     OW90692   3.323   0.323  10.380
29620SOL    HW190693   3.254   0.281  10.330
29620SOL    HW290694   3.402   0.271  10.362
29621SOL     OW90695   3.488  11.203  11.906
29621SOL    HW190696   3.518  11.203  11.815
29621SOL    HW290697   3.564  11.176  11.957
29622SOL     OW90698   8.649  11.123  13.224
29622SOL    HW190699   8.636  11.205  13.270
29622SOL    HW290700   8.733  11.090  13.256
29623SOL     OW90701   0.065   0.178   5.453
29623SOL    HW190702   0.134   0.145   5.510
29623SOL    HW290703   0.049   0.268   5.484
29624SOL     OW90704   7.427   3.348   3.206
29624SOL    HW190705   7.503   3.290   3.214
29624SOL    HW290706   7.366   3.317   3.274
29625SOL     OW90707   5.912  11.724  10.181
29625SOL    HW190708   6.004  11.729  10.156
29625SOL    HW290709   5.874  11.659  10.122
29626SOL     OW90710   7.135   8.390  11.266
29626SOL    HW190711   7.165   8.301  11.284
29626SOL    HW290712   7.042   8.389  11.288
29627SOL     OW90713   9.045  13.833   9.446
29627SOL    HW190714   9.109  13.865   9.510
29627SOL    HW290715   9.096  13.776   9.388
29628SOL     OW90716  12.462   6.593   1.762
29628SOL    HW190717  12.502   6.609   1.676
29628SOL    HW290718  12.379   6.642   1.759
29629SOL     OW90719   6.697   5.064   2.382
29629SOL    HW190720   6.649   5.111   2.450
29629SOL    HW290721   6.786   5.057   2.416
29630SOL     OW90722  11.968   1.906   1.929
29630SOL    HW190723  11.897   1.851   1.960
29630SOL    HW290724  11.935   1.996   1.939
29631SOL     OW90725   8.617  10.516   4.602
29631SOL    HW190726   8.610  10.577   4.529
29631SOL    HW290727   8.615  10.571   4.680
29632SOL     OW90728   3.056   3.693   0.505
29632SOL    HW190729   2.995   3.623   0.483
29632SOL    HW290730   3.137   3.648   0.529
29633SOL     OW90731  11.711  10.299  10.154
29633SOL    HW190732  11.773  10.317  10.083
29633SOL    HW290733  11.662  10.223  10.123
29634SOL     OW90734   1.188   5.522   8.428
29634SOL    HW190735   1.262   5.559   8.477
29634SOL    HW290736   1.228   5.466   8.363
29635SOL     OW90737  12.902   6.573  10.166
29635SOL    HW190738  12.875   6.558  10.257
29635SOL    HW290739  12.969   6.506  10.150
29636SOL     OW90740  13.929  10.830   2.473
29636SOL    HW190741  13.865  10.761   2.452
29636SOL    HW290742  13.992  10.827   2.400
29637SOL     OW90743  11.886  13.006   2.086
29637SOL    HW190744  11.812  13.016   2.026
29637SOL    HW290745  11.945  12.945   2.042
29638SOL     OW90746  11.027   6.592   7.273
29638SOL    HW190747  11.055   6.683   7.259
29638SOL    HW290748  11.062   6.544   7.198
29639SOL     OW90749   5.819   0.891  13.338
29639SOL    HW190750   5.899   0.931  13.370
29639SOL    HW290751   5.808   0.812  13.392
29640SOL     OW90752  12.538   1.270   1.342
29640SOL    HW190753  12.494   1.235   1.264
29640SOL    HW290754  12.469   1.274   1.408
29641SOL     OW90755   8.424   2.425   7.923
29641SOL    HW190756   8.411   2.466   7.837
29641SOL    HW290757   8.384   2.339   7.915
29642SOL     OW90758   7.411   5.913  11.542
29642SOL    HW190759   7.456   5.970  11.480
29642SOL    HW290760   7.442   5.825  11.520
29643SOL     OW90761   5.133  13.031   9.257
29643SOL    HW190762   5.062  12.967   9.266
29643SOL    HW290763   5.092  13.107   9.216
29644SOL     OW90764  10.897   9.374  12.463
29644SOL    HW190765  10.819   9.318  12.467
29644SOL    HW290766  10.872   9.454  12.510
29645SOL     OW90767   1.145   6.354  10.660
29645SOL    HW190768   1.140   6.388  10.571
29645SOL    HW290769   1.213   6.287  10.656
29646SOL     OW90770  12.339  14.576   0.955
29646SOL    HW190771  12.342  14.487   0.991
29646SOL    HW290772  12.292  14.567   0.872
29647SOL     OW90773  13.546   5.932   7.867
29647SOL    HW190774  13.491   5.867   7.823
29647SOL    HW290775  13.600   5.880   7.927
29648SOL     OW90776   8.058   5.622  12.115
29648SOL    HW190777   8.079   5.695  12.058
29648SOL    HW290778   8.084   5.544  12.066
29649SOL     OW90779  13.127  11.852   1.963
29649SOL    HW190780  13.152  11.828   2.052
29649SOL    HW290781  13.208  11.843   1.912
29650SOL     OW90782  11.131   7.528  12.633
29650SOL    HW190783  11.217   7.521  12.674
29650SOL    HW290784  11.138   7.604  12.575
29651SOL     OW90785   9.357   6.693   0.360
29651SOL    HW190786   9.450   6.702   0.339
29651SOL    HW290787   9.338   6.768   0.416
29652SOL     OW90788  11.696  12.675   3.307
29652SOL    HW190789  11.646  12.594   3.309
29652SOL    HW290790  11.711  12.696   3.399
29653SOL     OW90791   0.436   7.019  10.142
29653SOL    HW190792   0.397   7.102  10.115
29653SOL    HW290793   0.411   7.008  10.234
29654SOL     OW90794   3.439   1.710   6.393
29654SOL    HW190795   3.465   1.803   6.395
29654SOL    HW290796   3.371   1.703   6.460
29655SOL     OW90797   1.908   4.300   2.189
29655SOL    HW190798   1.915   4.344   2.273
29655SOL    HW290799   1.839   4.234   2.201
29656SOL     OW90800   1.775   3.975   9.278
29656SOL    HW190801   1.725   3.908   9.324
29656SOL    HW290802   1.839   4.006   9.342
29657SOL     OW90803   7.125   0.374  11.285
29657SOL    HW190804   7.175   0.411  11.358
29657SOL    HW290805   7.187   0.371  11.212
29658SOL     OW90806   4.295  10.460   4.287
29658SOL    HW190807   4.212  10.499   4.258
29658SOL    HW290808   4.301  10.484   4.380
29659SOL     OW90809   4.544  10.908  10.530
29659SOL    HW190810   4.576  10.993  10.500
29659SOL    HW290811   4.510  10.866  10.451
29660SOL     OW90812  10.396   6.563  13.068
29660SOL    HW190813  10.391   6.657  13.049
29660SOL    HW290814  10.306   6.538  13.091
29661SOL     OW90815   4.383   5.964   9.324
29661SOL    HW190816   4.427   5.955   9.408
29661SOL    HW290817   4.433   5.908   9.265
29662SOL     OW90818  11.486   9.433   6.405
29662SOL    HW190819  11.521   9.344   6.404
29662SOL    HW290820  11.411   9.431   6.345
29663SOL     OW90821   5.644   8.373   3.496
29663SOL    HW190822   5.697   8.452   3.501
29663SOL    HW290823   5.635   8.344   3.587
29664SOL     OW90824   6.615   6.670   2.559
29664SOL    HW190825   6.709   6.682   2.550
29664SOL    HW290826   6.604   6.577   2.576
29665SOL     OW90827   1.104  12.054   8.038
29665SOL    HW190828   1.197  12.062   8.061
29665SOL    HW290829   1.063  12.019   8.117
29666SOL     OW90830  14.173   0.563   3.029
29666SOL    HW190831  14.148   0.473   3.008
29666SOL    HW290832  14.125   0.584   3.109
29667SOL     OW90833   3.255  13.389   6.702
29667SOL    HW190834   3.197  13.428   6.636
29667SOL    HW290835   3.313  13.461   6.727
29668SOL     OW90836   0.687   0.149   8.298
29668SOL    HW190837   0.620   0.164   8.365
29668SOL    HW290838   0.682   0.055   8.280
29669SOL     OW90839  11.816   4.381  14.832
29669SOL    HW190840  11.908   4.398  14.815
29669SOL    HW290841  11.792   4.312  14.771
29670SOL     OW90842   5.640   8.660   1.867
29670SOL    HW190843   5.611   8.730   1.808
29670SOL    HW290844   5.667   8.706   1.947
29671SOL     OW90845  11.097   0.326   2.923
29671SOL    HW190846  11.062   0.338   2.835
29671SOL    HW290847  11.166   0.392   2.930
29672SOL     OW90848   7.181   5.806  10.173
29672SOL    HW190849   7.216   5.760  10.249
29672SOL    HW290850   7.136   5.882  10.210
29673SOL     OW90851   9.370   1.739   3.288
29673SOL    HW190852   9.457   1.736   3.248
29673SOL    HW290853   9.329   1.656   3.263
29674SOL     OW90854   7.598   7.937   8.264
29674SOL    HW190855   7.616   7.962   8.355
29674SOL    HW290856   7.505   7.958   8.251
29675SOL     OW90857   4.078  10.416   2.371
29675SOL    HW190858   4.127  10.454   2.297
29675SOL    HW290859   4.074  10.323   2.351
29676SOL     OW90860   2.410  11.037   6.195
29676SOL    HW190861   2.490  11.047   6.245
29676SOL    HW290862   2.436  10.986   6.118
29677SOL     OW90863  13.107   9.549  13.532
29677SOL    HW190864  13.093   9.644  13.521
29677SOL    HW290865  13.025   9.510  13.503
29678SOL     OW90866   2.968   0.483  11.533
29678SOL    HW190867   2.872   0.474  11.533
29678SOL    HW290868   2.999   0.401  11.496
29679SOL     OW90869   3.456   9.748   8.596
29679SOL    HW190870   3.551   9.761   8.591
29679SOL    HW290871   3.438   9.741   8.690
29680SOL     OW90872   9.404   4.697   6.001
29680SOL    HW190873   9.415   4.789   6.028
29680SOL    HW290874   9.461   4.688   5.924
29681SOL     OW90875  11.971   5.643   4.767
29681SOL    HW190876  11.877   5.631   4.780
29681SOL    HW290877  11.991   5.593   4.688
29682SOL     OW90878   0.994  14.716   9.933
29682SOL    HW190879   0.902  14.705   9.906
29682SOL    HW290880   0.989  14.755  10.020
29683SOL     OW90881  13.593   9.654   8.654
29683SOL    HW190882  13.654   9.650   8.581
29683SOL    HW290883  13.525   9.716   8.626
29684SOL     OW90884   9.390   3.734  13.981
29684SOL    HW190885   9.303   3.735  13.942
29684SOL    HW290886   9.443   3.788  13.922
29685SOL     OW90887   5.526  14.258   0.814
29685SOL    HW190888   5.609  14.210   0.813
29685SOL    HW290889   5.464  14.197   0.854
29686SOL     OW90890   7.656   2.252   9.648
29686SOL    HW190891   7.706   2.311   9.705
29686SOL    HW290892   7.700   2.258   9.563
29687SOL     OW90893  14.342   5.483  12.339
29687SOL    HW190894  14.276   5.514  12.277
29687SOL    HW290895  14.374   5.401  12.301
29688SOL     OW90896   6.714   7.847   3.888
29688SOL    HW190897   6.785   7.807   3.837
29688SOL    HW290898   6.635   7.832   3.835
29689SOL     OW90899  14.794  10.712   6.879
29689SOL    HW190900  14.790  10.617   6.873
29689SOL    HW290901  14.713  10.738   6.922
29690SOL     OW90902   6.640   6.433   8.059
29690SOL    HW190903   6.682   6.348   8.062
29690SOL    HW290904   6.565   6.421   8.000
29691SOL     OW90905   0.400  12.908   9.184
29691SOL    HW190906   0.348  12.932   9.261
29691SOL    HW290907   0.337  12.908   9.112
29692SOL     OW90908   9.884   7.959   5.536
29692SOL    HW190909   9.805   7.948   5.483
29692SOL    HW290910   9.896   8.054   5.542
29693SOL     OW90911  14.785   5.596   6.506
29693SOL    HW190912  14.795   5.525   6.568
29693SOL    HW290913  14.718   5.652   6.544
29694SOL     OW90914  12.009  12.476   0.550
29694SOL    HW190915  11.985  12.566   0.571
29694SOL    HW290916  12.031  12.437   0.635
29695SOL     OW90917   8.993   6.261  10.463
29695SOL    HW190918   9.047   6.295  10.392
29695SOL    HW290919   8.914   6.316  10.462
29696SOL     OW90920   8.990   9.419   8.746
29696SOL    HW190921   9.063   9.384   8.694
29696SOL    HW290922   8.926   9.447   8.680
29697SOL     OW90923   7.769  13.073   1.777
29697SOL    HW190924   7.864  13.081   1.783
29697SOL    HW290925   7.750  13.078   1.683
29698SOL     OW90926   7.982  12.406   5.553
29698SOL    HW190927   8.051  12.389   5.488
29698SOL    HW290928   7.911  12.445   5.502
29699SOL     OW90929   2.890   5.476   2.464
29699SOL    HW190930   2.822   5.466   2.397
29699SOL    HW290931   2.843   5.509   2.541
29700SOL     OW90932   5.032   9.543  13.300
29700SOL    HW190933   5.053   9.450  13.310
29700SOL    HW290934   5.116   9.585  13.285
29701SOL     OW90935   1.113   0.131   3.756
29701SOL    HW190936   1.176   0.198   3.782
29701SOL    HW290937   1.115   0.133   3.660
29702SOL     OW90938   8.133   7.536  10.273
29702SOL    HW190939   8.147   7.442  10.274
29702SOL    HW290940   8.221   7.573  10.257
29703SOL     OW90941  10.032   6.981   2.864
29703SOL    HW190942  10.126   6.995   2.870
29703SOL    HW290943  10.023   6.898   2.818
29704SOL     OW90944   9.506   7.592  14.481
29704SOL    HW190945   9.478   7.583  14.390
29704SOL    HW290946   9.482   7.682  14.505
29705SOL     OW90947  13.472   4.842   4.581
29705SOL    HW190948  13.471   4.785   4.659
29705SOL    HW290949  13.397   4.813   4.530
29706SOL     OW90950   0.203   5.955   3.548
29706SOL    HW190951   0.121   5.926   3.590
29706SOL    HW290952   0.197   5.922   3.458
29707SOL     OW90953   1.125   1.623   9.102
29707SOL    HW190954   1.032   1.601   9.109
29707SOL    HW290955   1.149   1.652   9.190
29708SOL     OW90956   4.486   6.462   8.395
29708SOL    HW190957   4.540   6.387   8.419
29708SOL    HW290958   4.408   6.455   8.451
29709SOL     OW90959   8.008   8.290   7.097
29709SOL    HW190960   8.030   8.208   7.142
29709SOL    HW290961   7.920   8.312   7.129
29710SOL     OW90962   7.219   4.191   9.087
29710SOL    HW190963   7.280   4.132   9.044
29710SOL    HW290964   7.179   4.138   9.156
29711SOL     OW90965   8.740  13.666   3.300
29711SOL    HW190966   8.645  13.655   3.308
29711SOL    HW290967   8.774  13.578   3.287
29712SOL     OW90968  11.502   7.932  13.430
29712SOL    HW190969  11.473   7.987  13.502
29712SOL    HW290970  11.556   7.989  13.375
29713SOL     OW90971   9.870   6.893   2.423
29713SOL    HW190972   9.885   6.849   2.339
29713SOL    HW290973   9.957   6.902   2.461
29714SOL     OW90974   8.358   2.477  13.467
29714SOL    HW190975   8.275   2.517  13.438
29714SOL    HW290976   8.399   2.544  13.521
29715SOL     OW90977   9.382  13.278  13.074
29715SOL    HW190978   9.393  13.289  13.169
29715SOL    HW290979   9.326  13.351  13.047
29716SOL     OW90980  12.966   8.490  11.791
29716SOL    HW190981  13.051   8.529  11.771
29716SOL    HW290982  12.964   8.410  11.738
29717SOL     OW90983   1.926   7.221   4.157
29717SOL    HW190984   1.832   7.234   4.149
29717SOL    HW290985   1.937   7.126   4.166
29718SOL     OW90986  12.303   8.520   6.137
29718SOL    HW190987  12.356   8.497   6.060
29718SOL    HW290988  12.358   8.496   6.212
29719SOL     OW90989  13.185  10.315   3.703
29719SOL    HW190990  13.206  10.403   3.732
29719SOL    HW290991  13.157  10.269   3.782
29720SOL     OW90992  14.235  12.516  13.215
29720SOL    HW190993  14.261  12.587  13.273
29720SOL    HW290994  14.250  12.436  13.266
29721SOL     OW90995  10.466  14.838   5.065
29721SOL    HW190996  10.545  14.872   5.024
29721SOL    HW290997  10.492  14.819   5.155
29722SOL     OW90998   5.738   4.400  13.265
29722SOL    HW190999   5.794   4.437  13.197
29722SOL    HW291000   5.779   4.427  13.347
29723SOL     OW91001   5.987   9.796   3.158
29723SOL    HW191002   6.029   9.762   3.079
29723SOL    HW291003   5.929   9.865   3.127
29724SOL     OW91004  10.719  10.696   5.172
29724SOL    HW191005  10.710  10.756   5.098
29724SOL    HW291006  10.811  10.703   5.198
29725SOL     OW91007   0.848  13.864  10.849
29725SOL    HW191008   0.762  13.903  10.865
29725SOL    HW291009   0.868  13.884  10.758
29726SOL     OW91010   4.125   7.178   6.184
29726SOL    HW191011   4.053   7.118   6.165
29726SOL    HW291012   4.204   7.130   6.157
29727SOL     OW91013  10.849  12.669  12.902
29727SOL    HW191014  10.892  12.584  12.915
29727SOL    HW291015  10.918  12.726  12.870
29728SOL     OW91016  13.522  13.304   3.540
29728SOL    HW191017  13.458  13.304   3.611
29728SOL    HW291018  13.489  13.239   3.478
29729SOL     OW91019   8.208   5.726   3.781
29729SOL    HW191020   8.277   5.794   3.780
29729SOL    HW291021   8.171   5.731   3.870
29730SOL     OW91022   2.524  10.461   5.732
29730SOL    HW191023   2.616  10.476   5.711
29730SOL    HW291024   2.521  10.370   5.763
29731SOL     OW91025   2.966  12.851  10.083
29731SOL    HW191026   2.965  12.945  10.100
29731SOL    HW291027   2.915  12.812  10.154
29732SOL     OW91028   0.841   3.782  11.109
29732SOL    HW191029   0.864   3.710  11.050
29732SOL    HW291030   0.926   3.813  11.142
29733SOL     OW91031   6.746   2.888   2.629
29733SOL    HW191032   6.795   2.929   2.557
29733SOL    HW291033   6.670   2.848   2.587
29734SOL     OW91034  11.111  11.254  10.515
29734SOL    HW191035  11.076  11.170  10.483
29734SOL    HW291036  11.090  11.255  10.608
29735SOL     OW91037  12.937   6.980   0.252
29735SOL    HW191038  12.991   6.925   0.308
29735SOL    HW291039  12.914   7.055   0.307
29736SOL     OW91040   8.069   4.971  11.418
29736SOL    HW191041   8.035   5.052  11.455
29736SOL    HW291042   8.157   4.962  11.455
29737SOL     OW91043  13.776   5.236   7.720
29737SOL    HW191044  13.704   5.298   7.703
29737SOL    HW291045  13.771   5.218   7.814
29738SOL     OW91046   4.330   2.827  11.874
29738SOL    HW191047   4.254   2.826  11.815
29738SOL    HW291048   4.367   2.739  11.865
29739SOL     OW91049   7.461   3.412  14.272
29739SOL    HW191050   7.484   3.472  14.201
29739SOL    HW291051   7.415   3.467  14.336
29740SOL     OW91052   4.482   8.275   6.049
29740SOL    HW191053   4.568   8.302   6.015
29740SOL    HW291054   4.502   8.220   6.124
29741SOL     OW91055  13.293   0.098  14.463
29741SOL    HW191056  13.205   0.063  14.455
29741SOL    HW291057  13.348   0.020  14.477
29742SOL     OW91058   8.616   9.619   0.482
29742SOL    HW191059   8.555   9.550   0.508
29742SOL    HW291060   8.652   9.588   0.398
29743SOL     OW91061   7.258   3.180   9.959
29743SOL    HW191062   7.178   3.140   9.993
29743SOL    HW291063   7.256   3.270   9.992
29744SOL     OW91064   3.922   9.659  10.893
29744SOL    HW191065   3.949   9.719  10.963
29744SOL    HW291066   3.864   9.596  10.936
29745SOL     OW91067   3.561   9.812   2.685
29745SOL    HW191068   3.475   9.772   2.690
29745SOL    HW291069   3.553   9.894   2.735
29746SOL     OW91070   5.440  11.915   1.568
29746SOL    HW191071   5.460  11.993   1.619
29746SOL    HW291072   5.353  11.889   1.597
29747SOL     OW91073   3.191   2.295   4.421
29747SOL    HW191074   3.278   2.281   4.383
29747SOL    HW291075   3.165   2.381   4.389
29748SOL     OW91076   3.011   7.651  14.083
29748SOL    HW191077   2.993   7.720  14.146
29748SOL    HW291078   3.088   7.681  14.035
29749SOL     OW91079   0.668  12.306  14.778
29749SOL    HW191080   0.694  12.327  14.689
29749SOL    HW291081   0.606  12.374  14.803
29750SOL     OW91082   8.812   5.581   4.579
29750SOL    HW191083   8.755   5.633   4.524
29750SOL    HW291084   8.787   5.605   4.669
29751SOL     OW91085  12.944  14.311   5.422
29751SOL    HW191086  12.926  14.237   5.364
29751SOL    HW291087  13.039  14.311   5.432
29752SOL     OW91088   9.112   5.666   5.782
29752SOL    HW191089   9.141   5.700   5.697
29752SOL    HW291090   9.193   5.655   5.832
29753SOL     OW91091   2.000   4.762   8.501
29753SOL    HW191092   1.918   4.778   8.547
29753SOL    HW291093   2.059   4.726   8.567
29754SOL     OW91094   8.054   4.825   4.899
29754SOL    HW191095   8.058   4.870   4.983
29754SOL    HW291096   8.052   4.896   4.834
29755SOL     OW91097   0.964  11.368  14.031
29755SOL    HW191098   1.041  11.322  13.997
29755SOL    HW291099   0.909  11.384  13.954
29756SOL     OW91100  14.781   4.218   4.314
29756SOL    HW191101  14.768   4.312   4.322
29756SOL    HW291102  14.704   4.187   4.266
29757SOL     OW91103   2.871   7.494  10.162
29757SOL    HW191104   2.861   7.401  10.146
29757SOL    HW291105   2.871   7.502  10.258
29758SOL     OW91106   2.006   1.726   7.676
29758SOL    HW191107   2.006   1.655   7.740
29758SOL    HW291108   2.099   1.744   7.660
29759SOL     OW91109   6.314  10.795   7.393
29759SOL    HW191110   6.251  10.723   7.389
29759SOL    HW291111   6.337  10.801   7.486
29760SOL     OW91112  10.859  12.155   7.050
29760SOL    HW191113  10.865  12.185   7.141
29760SOL    HW291114  10.836  12.234   7.001
29761SOL     OW91115  11.449  11.650   3.606
29761SOL    HW191116  11.401  11.579   3.646
29761SOL    HW291117  11.383  11.701   3.559
29762SOL     OW91118  12.920   7.885  14.713
29762SOL    HW191119  12.890   7.975  14.726
29762SOL    HW291120  12.897   7.840  14.794
29763SOL     OW91121   4.723   4.588  13.781
29763SOL    HW191122   4.645   4.640  13.801
29763SOL    HW291123   4.703   4.544  13.699
29764SOL     OW91124   1.434  14.017   3.702
29764SOL    HW191125   1.512  14.067   3.726
29764SOL    HW291126   1.417  13.961   3.778
29765SOL     OW91127   9.242   6.645   5.767
29765SOL    HW191128   9.267   6.727   5.810
29765SOL    HW291129   9.237   6.668   5.674
29766SOL     OW91130  13.068   1.930   4.334
29766SOL    HW191131  12.979   1.962   4.343
29766SOL    HW291132  13.119   1.985   4.394
29767SOL     OW91133   9.423  13.325   6.689
29767SOL    HW191134   9.441  13.294   6.778
29767SOL    HW291135   9.327  13.330   6.685
29768SOL     OW91136   7.820  14.416  10.731
29768SOL    HW191137   7.860  14.497  10.762
29768SOL    HW291138   7.871  14.347  10.772
29769SOL     OW91139   9.899  14.345  13.454
29769SOL    HW191140   9.833  14.388  13.509
29769SOL    HW291141   9.974  14.405  13.455
29770SOL     OW91142  13.076   6.058   8.207
29770SOL    HW191143  13.130   6.020   8.276
29770SOL    HW291144  13.080   5.995   8.135
29771SOL     OW91145  14.449   6.409   0.560
29771SOL    HW191146  14.505   6.373   0.491
29771SOL    HW291147  14.504   6.473   0.605
29772SOL     OW91148   3.530  14.251   9.334
29772SOL    HW191149   3.465  14.186   9.308
29772SOL    HW291150   3.561  14.220   9.420
29773SOL     OW91151   3.178   6.995   7.589
29773SOL    HW191152   3.135   7.065   7.639
29773SOL    HW291153   3.243   7.040   7.536
29774SOL     OW91154  11.361   3.739  13.134
29774SOL    HW191155  11.421   3.674  13.170
29774SOL    HW291156  11.315   3.775  13.210
29775SOL     OW91157  14.446   6.648  12.386
29775SOL    HW191158  14.526   6.664  12.437
29775SOL    HW291159  14.376   6.684  12.440
29776SOL     OW91160  11.959   9.755   6.752
29776SOL    HW191161  11.982   9.707   6.672
29776SOL    HW291162  12.028   9.733   6.814
29777SOL     OW91163   5.772  12.923   1.125
29777SOL    HW191164   5.864  12.937   1.101
29777SOL    HW291165   5.730  12.898   1.043
29778SOL     OW91166  12.189   0.382   3.277
29778SOL    HW191167  12.237   0.361   3.197
29778SOL    HW291168  12.098   0.392   3.250
29779SOL     OW91169   0.197  12.082  12.387
29779SOL    HW191170   0.250  12.100  12.464
29779SOL    HW291171   0.122  12.142  12.395
29780SOL     OW91172   3.277  11.638   9.500
29780SOL    HW191173   3.194  11.599   9.527
29780SOL    HW291174   3.341  11.567   9.508
29781SOL     OW91175   9.672   5.957  14.315
29781SOL    HW191176   9.591   5.970  14.364
29781SOL    HW291177   9.644   5.946  14.225
29782SOL     OW91178   7.534  13.526   0.011
29782SOL    HW191179   7.595  13.537  14.817
29782SOL    HW291180   7.578  13.565   0.086
29783SOL     OW91181  11.361   9.646   9.827
29783SOL    HW191182  11.298   9.704   9.870
29783SOL    HW291183  11.348   9.661   9.733
29784SOL     OW91184   1.094   8.939   0.444
29784SOL    HW191185   1.058   8.879   0.378
29784SOL    HW291186   1.049   9.022   0.427
29785SOL     OW91187   9.258  11.000  11.503
29785SOL    HW191188   9.267  11.080  11.451
29785SOL    HW291189   9.197  11.023  11.572
29786SOL     OW91190  10.163  10.039  14.147
29786SOL    HW191191  10.131  10.049  14.236
29786SOL    HW291192  10.195   9.949  14.143
29787SOL     OW91193  13.318   7.340  12.597
29787SOL    HW191194  13.392   7.398  12.615
29787SOL    HW291195  13.353   7.275  12.536
29788SOL     OW91196  13.165   7.582   4.035
29788SOL    HW191197  13.159   7.543   3.948
29788SOL    HW291198  13.202   7.669   4.020
29789SOL     OW91199   0.295   1.064   9.973
29789SOL    HW191200   0.380   1.021   9.957
29789SOL    HW291201   0.243   0.997  10.016
29790SOL     OW91202   7.051   0.226  12.858
29790SOL    HW191203   7.069   0.257  12.947
29790SOL    HW291204   7.045   0.131  12.867
29791SOL     OW91205   7.585   8.081   0.690
29791SOL    HW191206   7.593   7.986   0.700
29791SOL    HW291207   7.519   8.092   0.621
29792SOL     OW91208   6.719   7.878  13.432
29792SOL    HW191209   6.757   7.791  13.439
29792SOL    HW291210   6.756   7.914  13.351
29793SOL     OW91211   7.665   5.380   5.457
29793SOL    HW191212   7.631   5.311   5.514
29793SOL    HW291213   7.594   5.396   5.395
29794SOL     OW91214  12.386  14.269  14.309
29794SOL    HW191215  12.428  14.329  14.246
29794SOL    HW291216  12.457  14.212  14.339
29795SOL     OW91217   7.711   6.856  11.079
29795SOL    HW191218   7.737   6.809  11.000
29795SOL    HW291219   7.793   6.888  11.116
29796SOL     OW91220  12.146  10.596   4.898
29796SOL    HW191221  12.124  10.573   4.988
29796SOL    HW291222  12.069  10.643   4.866
29797SOL     OW91223   5.616   9.226  12.754
29797SOL    HW191224   5.575   9.304  12.791
29797SOL    HW291225   5.710   9.239  12.768
29798SOL     OW91226  13.610  12.593   4.813
29798SOL    HW191227  13.635  12.678   4.776
29798SOL    HW291228  13.682  12.534   4.788
29799SOL     OW91229   9.609  10.474   4.132
29799SOL    HW191230   9.652  10.441   4.054
29799SOL    HW291231   9.532  10.521   4.099
29800SOL     OW91232   0.529   0.840   2.124
29800SOL    HW191233   0.501   0.902   2.191
29800SOL    HW291234   0.448   0.801   2.092
29801SOL     OW91235  10.948   5.509   5.998
29801SOL    HW191236  10.884   5.459   5.946
29801SOL    HW291237  10.902   5.530   6.079
29802SOL     OW91238  14.815  11.058   8.539
29802SOL    HW191239   0.012  11.106   8.573
29802SOL    HW291240  14.800  11.094   8.452
29803SOL     OW91241   8.709   0.582   5.496
29803SOL    HW191242   8.616   0.601   5.498
29803SOL    HW291243   8.751   0.666   5.477
29804SOL     OW91244   3.580   5.818   3.064
29804SOL    HW191245   3.500   5.772   3.039
29804SOL    HW291246   3.603   5.782   3.150
29805SOL     OW91247   1.832  13.247   6.933
29805SOL    HW191248   1.814  13.332   6.973
29805SOL    HW291249   1.794  13.183   6.992
29806SOL     OW91250   7.492   0.137   6.396
29806SOL    HW191251   7.514   0.208   6.336
29806SOL    HW291252   7.415   0.168   6.443
29807SOL     OW91253  11.387   0.732  10.134
29807SOL    HW191254  11.453   0.665  10.149
29807SOL    HW291255  11.315   0.708  10.192
29808SOL     OW91256  14.845  10.868   4.419
29808SOL    HW191257  14.838  10.954   4.461
29808SOL    HW291258   0.059  10.846   4.425
29809SOL     OW91259  13.246   5.467  13.155
29809SOL    HW191260  13.166   5.496  13.112
29809SOL    HW291261  13.304   5.543  13.151
29810SOL     OW91262  13.032   6.686  13.871
29810SOL    HW191263  13.060   6.598  13.896
29810SOL    HW291264  12.937   6.683  13.873
29811SOL     OW91265   6.633   9.863  10.632
29811SOL    HW191266   6.684   9.796  10.585
29811SOL    HW291267   6.544   9.855  10.598
29812SOL     OW91268   8.003   7.787  12.178
29812SOL    HW191269   7.954   7.707  12.159
29812SOL    HW291270   7.938   7.849  12.212
29813SOL     OW91271  14.602  12.384   8.401
29813SOL    HW191272  14.581  12.384   8.495
29813SOL    HW291273  14.697  12.395   8.398
29814SOL     OW91274   7.226   7.554   2.096
29814SOL    HW191275   7.147   7.608   2.090
29814SOL    HW291276   7.196   7.465   2.079
29815SOL     OW91277   1.500   5.035  12.983
29815SOL    HW191278   1.415   5.077  12.970
29815SOL    HW291279   1.556   5.073  12.916
29816SOL     OW91280   4.522   5.373   2.052
29816SOL    HW191281   4.593   5.314   2.077
29816SOL    HW291282   4.548   5.408   1.967
29817SOL     OW91283  14.173   6.102   1.080
29817SOL    HW191284  14.183   6.181   1.132
29817SOL    HW291285  14.090   6.115   1.033
29818SOL     OW91286  12.803   3.387  14.466
29818SOL    HW191287  12.875   3.327  14.446
29818SOL    HW291288  12.777   3.365  14.555
29819SOL     OW91289  12.272  11.879   3.033
29819SOL    HW191290  12.233  11.830   2.960
29819SOL    HW291291  12.246  11.970   3.018
29820SOL     OW91292   1.691  13.385   3.384
29820SOL    HW191293   1.781  13.372   3.355
29820SOL    HW291294   1.683  13.479   3.398
29821SOL     OW91295   0.264  14.441   0.615
29821SOL    HW191296   0.179  14.409   0.586
29821SOL    HW291297   0.267  14.532   0.588
29822SOL     OW91298   7.889  13.796   5.101
29822SOL    HW191299   7.896  13.712   5.055
29822SOL    HW291300   7.979  13.817   5.127
29823SOL     OW91301   1.045   2.794   1.670
29823SOL    HW191302   1.085   2.791   1.583
29823SOL    HW291303   1.068   2.710   1.710
29824SOL     OW91304   1.198  14.610   9.807
29824SOL    HW191305   1.111  14.639   9.835
29824SOL    HW291306   1.251  14.689   9.805
29825SOL     OW91307   8.896   8.358   4.109
29825SOL    HW191308   8.876   8.287   4.048
29825SOL    HW291309   8.883   8.438   4.059
29826SOL     OW91310   5.704   0.113   2.943
29826SOL    HW191311   5.672   0.099   2.854
29826SOL    HW291312   5.651   0.186   2.976
29827SOL     OW91313   8.270   5.980  11.538
29827SOL    HW191314   8.269   5.888  11.510
29827SOL    HW291315   8.343   6.019  11.491
29828SOL     OW91316   2.274   6.520  14.779
29828SOL    HW191317   2.298   6.449  14.719
29828SOL    HW291318   2.205   6.483  14.834
29829SOL     OW91319   1.412  13.854   5.696
29829SOL    HW191320   1.365  13.797   5.757
29829SOL    HW291321   1.420  13.802   5.616
29830SOL     OW91322   0.696   9.604  12.024
29830SOL    HW191323   0.693   9.586  12.117
29830SOL    HW291324   0.790   9.608  12.003
29831SOL     OW91325  12.619   2.501  11.969
29831SOL    HW191326  12.660   2.588  11.972
29831SOL    HW291327  12.564   2.504  11.891
29832SOL     OW91328   6.440   1.581   9.074
29832SOL    HW191329   6.464   1.504   9.023
29832SOL    HW291330   6.351   1.563   9.106
29833SOL     OW91331   1.195   0.322  10.999
29833SOL    HW191332   1.261   0.277  11.052
29833SOL    HW291333   1.134   0.359  11.063
29834SOL     OW91334   9.990  14.364   3.937
29834SOL    HW191335  10.005  14.310   3.860
29834SOL    HW291336   9.903  14.402   3.924
29835SOL     OW91337   4.236   1.114   5.356
29835SOL    HW191338   4.324   1.115   5.317
29835SOL    HW291339   4.246   1.063   5.436
29836SOL     OW91340   7.431   7.289  12.914
29836SOL    HW191341   7.407   7.304  12.822
29836SOL    HW291342   7.380   7.355  12.962
29837SOL     OW91343   8.975  10.232   3.126
29837SOL    HW191344   9.000  10.158   3.069
29837SOL    HW291345   8.880  10.226   3.133
29838SOL     OW91346   4.302  12.655   7.077
29838SOL    HW191347   4.207  12.658   7.087
29838SOL    HW291348   4.317  12.596   7.003
29839SOL     OW91349   6.604   7.829   9.103
29839SOL    HW191350   6.615   7.816   9.197
29839SOL    HW291351   6.675   7.778   9.063
29840SOL     OW91352   3.236   7.982  11.569
29840SOL    HW191353   3.308   8.044  11.580
29840SOL    HW291354   3.278   7.898  11.550
29841SOL     OW91355   3.235  14.159  12.286
29841SOL    HW191356   3.153  14.185  12.244
29841SOL    HW291357   3.274  14.241  12.316
29842SOL     OW91358   8.338  13.759  14.155
29842SOL    HW191359   8.335  13.665  14.136
29842SOL    HW291360   8.411  13.791  14.101
29843SOL     OW91361  12.654   1.389   9.531
29843SOL    HW191362  12.720   1.340   9.579
29843SOL    HW291363  12.704   1.452   9.478
29844SOL     OW91364   9.755   8.648  12.246
29844SOL    HW191365   9.775   8.631  12.153
29844SOL    HW291366   9.661   8.633  12.253
29845SOL     OW91367   7.944  14.182   7.267
29845SOL    HW191368   7.893  14.222   7.338
29845SOL    HW291369   7.984  14.257   7.222
29846SOL     OW91370   2.786  14.077   6.629
29846SOL    HW191371   2.766  14.110   6.716
29846SOL    HW291372   2.881  14.071   6.626
29847SOL     OW91373   6.022   0.862   0.758
29847SOL    HW191374   6.064   0.858   0.844
29847SOL    HW291375   5.979   0.948   0.756
29848SOL     OW91376   3.111   1.017  14.730
29848SOL    HW191377   3.017   1.010  14.747
29848SOL    HW291378   3.150   0.946  14.781
29849SOL     OW91379   6.124   1.035   7.933
29849SOL    HW191380   6.114   0.942   7.950
29849SOL    HW291381   6.069   1.078   7.998
29850SOL     OW91382   2.832   5.780  13.144
29850SOL    HW191383   2.780   5.843  13.095
29850SOL    HW291384   2.897   5.748  13.082
29851SOL     OW91385  10.563   6.988   5.259
29851SOL    HW191386  10.630   6.946   5.205
29851SOL    HW291387  10.609   7.060   5.302
29852SOL     OW91388  10.435   7.496   6.102
29852SOL    HW191389  10.461   7.529   6.188
29852SOL    HW291390  10.483   7.551   6.040
29853SOL     OW91391   7.632   5.943   8.469
29853SOL    HW191392   7.669   5.879   8.530
29853SOL    HW291393   7.538   5.925   8.468
29854SOL     OW91394   6.632  14.423   5.507
29854SOL    HW191395   6.589  14.362   5.447
29854SOL    HW291396   6.637  14.506   5.460
29855SOL     OW91397  14.206   6.043   8.449
29855SOL    HW191398  14.296   6.047   8.480
29855SOL    HW291399  14.153   6.050   8.529
29856SOL     OW91400   3.644   0.591   7.210
29856SOL    HW191401   3.590   0.630   7.142
29856SOL    HW291402   3.582   0.552   7.271
29857SOL     OW91403  10.558   4.317  11.807
29857SOL    HW191404  10.569   4.332  11.901
29857SOL    HW291405  10.515   4.396  11.775
29858SOL     OW91406   0.642   2.731   4.775
29858SOL    HW191407   0.669   2.749   4.685
29858SOL    HW291408   0.602   2.812   4.806
29859SOL     OW91409   9.227  10.677   8.096
29859SOL    HW191410   9.185  10.763   8.095
29859SOL    HW291411   9.303  10.688   8.154
29860SOL     OW91412  10.002   9.807  11.944
29860SOL    HW191413  10.075   9.811  11.882
29860SOL    HW291414  10.022   9.875  12.008
29861SOL     OW91415   8.353   4.363   3.967
29861SOL    HW191416   8.416   4.433   3.986
29861SOL    HW291417   8.407   4.284   3.959
29862SOL     OW91418   4.071   1.915  10.725
29862SOL    HW191419   4.099   1.997  10.683
29862SOL    HW291420   4.133   1.849  10.693
29863SOL     OW91421   8.866  12.593   5.766
29863SOL    HW191422   8.913  12.513   5.744
29863SOL    HW291423   8.892  12.656   5.698
29864SOL     OW91424   4.136  12.431   2.219
29864SOL    HW191425   4.231  12.423   2.217
29864SOL    HW291426   4.117  12.487   2.294
29865SOL     OW91427   6.015   7.063   4.308
29865SOL    HW191428   6.034   6.969   4.314
29865SOL    HW291429   5.981   7.087   4.394
29866SOL     OW91430   7.473   7.656   4.253
29866SOL    HW191431   7.425   7.574   4.258
29866SOL    HW291432   7.531   7.656   4.329
29867SOL     OW91433  12.568   9.973   5.070
29867SOL    HW191434  12.549   9.881   5.050
29867SOL    HW291435  12.658   9.972   5.102
29868SOL     OW91436   7.193  11.349   2.848
29868SOL    HW191437   7.274  11.297   2.848
29868SOL    HW291438   7.123  11.285   2.836
29869SOL     OW91439  13.454   3.373   5.548
29869SOL    HW191440  13.484   3.305   5.609
29869SOL    HW291441  13.359   3.363   5.546
29870SOL     OW91442   2.094  10.267  11.405
29870SOL    HW191443   2.029  10.198  11.412
29870SOL    HW291444   2.084  10.301  11.316
29871SOL     OW91445   4.517   7.560  13.521
29871SOL    HW191446   4.566   7.539  13.441
29871SOL    HW291447   4.531   7.654  13.534
29872SOL     OW91448  14.625   9.483  13.744
29872SOL    HW191449  14.593   9.541  13.812
29872SOL    HW291450  14.547   9.443  13.707
29873SOL     OW91451  13.470   2.285   1.127
29873SOL    HW191452  13.464   2.237   1.045
29873SOL    HW291453  13.502   2.221   1.191
29874SOL     OW91454   6.887   5.783  14.673
29874SOL    HW191455   6.860   5.842  14.744
29874SOL    HW291456   6.806   5.754  14.632
29875SOL     OW91457  11.766   3.473   1.319
29875SOL    HW191458  11.750   3.567   1.319
29875SOL    HW291459  11.811   3.456   1.236
29876SOL     OW91460   4.697   6.412  12.124
29876SOL    HW191461   4.765   6.350  12.096
29876SOL    HW291462   4.646   6.364  12.190
29877SOL     OW91463   8.525  10.072   8.519
29877SOL    HW191464   8.564  10.154   8.488
29877SOL    HW291465   8.433  10.094   8.534
29878SOL     OW91466  12.971  12.033   4.532
29878SOL    HW191467  12.985  11.940   4.553
29878SOL    HW291468  12.918  12.032   4.453
29879SOL     OW91469   6.225  12.948   3.965
29879SOL    HW191470   6.268  12.924   3.883
29879SOL    HW291471   6.138  12.979   3.939
29880SOL     OW91472   4.156   2.202   1.170
29880SOL    HW191473   4.150   2.122   1.221
29880SOL    HW291474   4.228   2.251   1.210
29881SOL     OW91475  14.758   2.579   8.746
29881SOL    HW191476  14.710   2.631   8.810
29881SOL    HW291477  14.699   2.573   8.671
29882SOL     OW91478  11.296   4.377  10.471
29882SOL    HW191479  11.322   4.465  10.497
29882SOL    HW291480  11.201   4.384  10.457
29883SOL     OW91481   5.844   7.527  14.310
29883SOL    HW191482   5.804   7.441  14.300
29883SOL    HW291483   5.898   7.520  14.388
29884SOL     OW91484   0.594   2.322   7.023
29884SOL    HW191485   0.607   2.246   7.080
29884SOL    HW291486   0.603   2.287   6.934
29885SOL     OW91487  13.565  14.557   8.802
29885SOL    HW191488  13.534  14.498   8.870
29885SOL    HW291489  13.560  14.644   8.841
29886SOL     OW91490  10.011   7.943   3.041
29886SOL    HW191491  10.000   7.902   2.955
29886SOL    HW291492   9.970   8.028   3.032
29887SOL     OW91493  14.861  14.108   3.792
29887SOL    HW191494  14.829  14.027   3.831
29887SOL    HW291495  14.820  14.177   3.844
29888SOL     OW91496   2.068   2.342  12.291
29888SOL    HW191497   1.991   2.382  12.332
29888SOL    HW291498   2.066   2.373  12.200
29889SOL     OW91499  13.399   8.920   9.282
29889SOL    HW191500  13.359   8.996   9.240
29889SOL    HW291501  13.325   8.871   9.318
29890SOL     OW91502   5.581   9.659   0.087
29890SOL    HW191503   5.564   9.677   0.179
29890SOL    HW291504   5.672   9.630   0.084
29891SOL     OW91505  14.258   6.223   1.481
29891SOL    HW191506  14.167   6.205   1.458
29891SOL    HW291507  14.268   6.191   1.570
29892SOL     OW91508   1.751   0.920   1.818
29892SOL    HW191509   1.725   0.836   1.780
29892SOL    HW291510   1.836   0.940   1.778
29893SOL     OW91511  11.406  14.767   6.347
29893SOL    HW191512  11.476  14.790   6.408
29893SOL    HW291513  11.418  14.828   6.274
29894SOL     OW91514   6.678   5.191   2.088
29894SOL    HW191515   6.715   5.131   2.153
29894SOL    HW291516   6.596   5.221   2.127
29895SOL     OW91517   4.201   7.138  10.802
29895SOL    HW191518   4.293   7.123  10.781
29895SOL    HW291519   4.172   7.206  10.741
29896SOL     OW91520   1.350  13.529   4.027
29896SOL    HW191521   1.431  13.496   4.065
29896SOL    HW291522   1.284  13.513   4.095
29897SOL     OW91523   5.734  11.065  14.152
29897SOL    HW191524   5.665  11.125  14.180
29897SOL    HW291525   5.696  11.016  14.080
29898SOL     OW91526   9.550  14.544  11.275
29898SOL    HW191527   9.628  14.566  11.327
29898SOL    HW291528   9.482  14.525  11.340
29899SOL     OW91529  13.822   4.987  11.754
29899SOL    HW191530  13.908   5.028  11.759
29899SOL    HW291531  13.834   4.902  11.796
29900SOL     OW91532   8.225   0.125   1.241
29900SOL    HW191533   8.186   0.207   1.270
29900SOL    HW291534   8.161   0.058   1.262
29901SOL     OW91535  14.339   6.043   3.285
29901SOL    HW191536  14.370   6.046   3.376
29901SOL    HW291537  14.304   6.130   3.269
29902SOL     OW91538   8.444   3.266   0.600
29902SOL    HW191539   8.435   3.257   0.506
29902SOL    HW291540   8.367   3.221   0.636
29903SOL     OW91541   5.480   2.414  13.842
29903SOL    HW191542   5.526   2.483  13.793
29903SOL    HW291543   5.396   2.452  13.864
29904SOL     OW91544   0.680  11.207  14.033
29904SOL    HW191545   0.728  11.143  14.086
29904SOL    HW291546   0.707  11.188  13.943
29905SOL     OW91547   5.748  13.864   8.561
29905SOL    HW191548   5.668  13.867   8.614
29905SOL    HW291549   5.812  13.822   8.618
29906SOL     OW91550   3.603   2.183  13.588
29906SOL    HW191551   3.693   2.213  13.584
29906SOL    HW291552   3.609   2.088  13.573
29907SOL     OW91553  11.390  11.761  14.363
29907SOL    HW191554  11.300  11.746  14.332
29907SOL    HW291555  11.443  11.700  14.312
29908SOL     OW91556   9.497  12.525  11.058
29908SOL    HW191557   9.519  12.558  10.970
29908SOL    HW291558   9.440  12.593  11.095
29909SOL     OW91559  11.003  12.708   9.889
29909SOL    HW191560  10.995  12.635   9.951
29909SOL    HW291561  10.979  12.670   9.804
29910SOL     OW91562   4.733   9.641   5.501
29910SOL    HW191563   4.664   9.592   5.455
29910SOL    HW291564   4.710   9.632   5.594
29911SOL     OW91565   4.726   1.384   4.717
29911SOL    HW191566   4.683   1.463   4.750
29911SOL    HW291567   4.818   1.395   4.741
29912SOL     OW91568   2.255   8.520   1.139
29912SOL    HW191569   2.269   8.611   1.111
29912SOL    HW291570   2.186   8.525   1.204
29913SOL     OW91571   6.478   4.438   7.354
29913SOL    HW191572   6.567   4.423   7.321
29913SOL    HW291573   6.441   4.350   7.362
29914SOL     OW91574  10.289   2.650   6.703
29914SOL    HW191575  10.255   2.656   6.614
29914SOL    HW291576  10.359   2.585   6.698
29915SOL     OW91577   5.872  10.245   0.783
29915SOL    HW191578   5.941  10.287   0.835
29915SOL    HW291579   5.864  10.157   0.820
29916SOL     OW91580   7.809   4.342   3.620
29916SOL    HW191581   7.733   4.400   3.628
29916SOL    HW291582   7.880   4.387   3.666
29917SOL     OW91583  11.277  11.195   8.698
29917SOL    HW191584  11.254  11.222   8.787
29917SOL    HW291585  11.226  11.115   8.683
29918SOL     OW91586  12.343   5.456   8.233
29918SOL    HW191587  12.284   5.389   8.198
29918SOL    HW291588  12.348   5.436   8.326
29919SOL     OW91589  10.348  14.072   2.063
29919SOL    HW191590  10.367  13.991   2.111
29919SOL    HW291591  10.406  14.137   2.101
29920SOL     OW91592  12.084  13.016  14.269
29920SOL    HW191593  12.163  13.071  14.272
29920SOL    HW291594  12.055  13.011  14.360
29921SOL     OW91595  12.923  12.388   8.627
29921SOL    HW191596  12.878  12.375   8.543
29921SOL    HW291597  13.009  12.421   8.603
29922SOL     OW91598  14.611   4.286  11.497
29922SOL    HW191599  14.651   4.334  11.424
29922SOL    HW291600  14.667   4.306  11.572
29923SOL     OW91601   2.746   0.503   8.342
29923SOL    HW191602   2.717   0.419   8.376
29923SOL    HW291603   2.836   0.511   8.373
29924SOL     OW91604  11.405   9.877   4.153
29924SOL    HW191605  11.472   9.830   4.202
29924SOL    HW291606  11.327   9.822   4.162
29925SOL     OW91607   0.972   3.019   3.272
29925SOL    HW191608   0.887   2.982   3.248
29925SOL    HW291609   0.990   2.981   3.359
29926SOL     OW91610   8.183  14.097   9.575
29926SOL    HW191611   8.251  14.147   9.530
29926SOL    HW291612   8.222  14.010   9.588
29927SOL     OW91613   2.632   4.147   4.060
29927SOL    HW191614   2.702   4.088   4.088
29927SOL    HW291615   2.554   4.112   4.102
29928SOL     OW91616   4.314   7.832   1.020
29928SOL    HW191617   4.308   7.917   0.978
29928SOL    HW291618   4.292   7.769   0.951
29929SOL     OW91619   3.974   9.522   4.648
29929SOL    HW191620   4.060   9.543   4.611
29929SOL    HW291621   3.923   9.492   4.573
29930SOL     OW91622   9.247   9.329   2.704
29930SOL    HW191623   9.255   9.292   2.616
29930SOL    HW291624   9.305   9.405   2.704
29931SOL     OW91625   6.611  14.005   0.431
29931SOL    HW191626   6.543  13.938   0.434
29931SOL    HW291627   6.606  14.049   0.516
29932SOL     OW91628   0.601   5.970   3.144
29932SOL    HW191629   0.628   6.055   3.179
29932SOL    HW291630   0.559   5.927   3.218
29933SOL     OW91631   4.509  14.378  11.048
29933SOL    HW191632   4.569  14.306  11.068
29933SOL    HW291633   4.471  14.355  10.963
29934SOL     OW91634  11.886   2.714  12.015
29934SOL    HW191635  11.926   2.679  11.935
29934SOL    HW291636  11.910   2.652  12.084
29935SOL     OW91637  11.757   7.503   1.795
29935SOL    HW191638  11.829   7.461   1.750
29935SOL    HW291639  11.763   7.595   1.770
29936SOL     OW91640  12.707   8.227   1.824
29936SOL    HW191641  12.745   8.314   1.816
29936SOL    HW291642  12.782   8.170   1.844
29937SOL     OW91643  13.025   5.042  13.467
29937SOL    HW191644  13.055   4.994  13.390
29937SOL    HW291645  12.951   4.991  13.500
29938SOL     OW91646   3.472  14.759   5.545
29938SOL    HW191647   3.411  14.722   5.609
29938SOL    HW291648   3.415  14.794   5.477
29939SOL     OW91649   9.499   7.910   2.153
29939SOL    HW191650   9.552   7.946   2.224
29939SOL    HW291651   9.438   7.851   2.196
29940SOL     OW91652   4.553   5.740   3.150
29940SOL    HW191653   4.558   5.648   3.125
29940SOL    HW291654   4.539   5.738   3.245
29941SOL     OW91655   2.247   9.027   0.170
29941SOL    HW191656   2.285   9.055   0.087
29941SOL    HW291657   2.259   8.932   0.171
29942SOL     OW91658  14.533   1.119   4.505
29942SOL    HW191659  14.451   1.155   4.537
29942SOL    HW291660  14.576   1.083   4.582
29943SOL     OW91661   0.436   4.511   2.094
29943SOL    HW191662   0.464   4.474   2.177
29943SOL    HW291663   0.341   4.517   2.101
29944SOL     OW91664  14.504   3.246   1.223
29944SOL    HW191665  14.491   3.154   1.202
29944SOL    HW291666  14.418   3.286   1.207
29945SOL     OW91667  11.258  11.777   7.466
29945SOL    HW191668  11.168  11.744   7.472
29945SOL    HW291669  11.274  11.786   7.373
29946SOL     OW91670  13.333   9.101   1.263
29946SOL    HW191671  13.338   9.158   1.340
29946SOL    HW291672  13.292   9.155   1.195
29947SOL     OW91673  10.857   4.224   4.031
29947SOL    HW191674  10.841   4.244   3.939
29947SOL    HW291675  10.850   4.308   4.076
29948SOL     OW91676   5.228   7.056   1.379
29948SOL    HW191677   5.277   7.137   1.361
29948SOL    HW291678   5.287   7.004   1.433
29949SOL     OW91679   3.325  12.270   1.034
29949SOL    HW191680   3.281  12.305   1.111
29949SOL    HW291681   3.388  12.207   1.070
29950SOL     OW91682   4.892   2.039  10.424
29950SOL    HW191683   4.985   2.059  10.424
29950SOL    HW291684   4.868   2.036  10.331
29951SOL     OW91685  11.666   0.780   0.117
29951SOL    HW191686  11.663   0.789   0.212
29951SOL    HW291687  11.597   0.716   0.097
29952SOL     OW91688   7.605   9.260  10.240
29952SOL    HW191689   7.674   9.257  10.174
29952SOL    HW291690   7.594   9.353  10.258
29953SOL     OW91691  13.041   9.058   3.580
29953SOL    HW191692  13.126   9.064   3.622
29953SOL    HW291693  13.021   9.147   3.553
29954SOL     OW91694   0.203  13.272   6.751
29954SOL    HW191695   0.111  13.268   6.776
29954SOL    HW291696   0.227  13.364   6.763
29955SOL     OW91697   9.250  12.539  14.105
29955SOL    HW191698   9.337  12.508  14.078
29955SOL    HW291699   9.192  12.516  14.032
29956SOL     OW91700   3.662  11.841   4.487
29956SOL    HW191701   3.624  11.924   4.458
29956SOL    HW291702   3.683  11.855   4.579
29957SOL     OW91703   2.428   5.441   3.672
29957SOL    HW191704   2.346   5.476   3.707
29957SOL    HW291705   2.490   5.514   3.680
29958SOL     OW91706  11.949   0.252   7.330
29958SOL    HW191707  12.011   0.180   7.315
29958SOL    HW291708  11.869   0.208   7.358
29959SOL     OW91709  14.724  13.757   7.426
29959SOL    HW191710  14.690  13.804   7.350
29959SOL    HW291711  14.668  13.784   7.498
29960SOL     OW91712   4.956  12.711   9.532
29960SOL    HW191713   4.885  12.652   9.559
29960SOL    HW291714   5.023  12.699   9.599
29961SOL     OW91715  14.001   3.153  12.140
29961SOL    HW191716  13.926   3.212  12.146
29961SOL    HW291717  13.970   3.070  12.176
29962SOL     OW91718  13.720  11.460   2.273
29962SOL    HW191719  13.758  11.372   2.281
29962SOL    HW291720  13.780  11.516   2.323
29963SOL     OW91721   3.603   1.530   1.086
29963SOL    HW191722   3.613   1.523   1.181
29963SOL    HW291723   3.511   1.552   1.073
29964SOL     OW91724   2.630  13.716   0.875
29964SOL    HW191725   2.607  13.628   0.847
29964SOL    HW291726   2.622  13.769   0.796
29965SOL     OW91727  14.129   5.499   6.315
29965SOL    HW191728  14.214   5.492   6.358
29965SOL    HW291729  14.122   5.591   6.291
29966SOL     OW91730   1.255  13.016   5.570
29966SOL    HW191731   1.267  13.052   5.483
29966SOL    HW291732   1.165  13.039   5.594
29967SOL     OW91733   5.163   9.341   1.470
29967SOL    HW191734   5.073   9.367   1.486
29967SOL    HW291735   5.158   9.248   1.447
29968SOL     OW91736  13.479   0.865   4.589
29968SOL    HW191737  13.479   0.903   4.502
29968SOL    HW291738  13.513   0.776   4.577
29969SOL     OW91739   7.486   6.769  13.670
29969SOL    HW191740   7.405   6.790  13.624
29969SOL    HW291741   7.546   6.841  13.647
29970SOL     OW91742   9.759   4.955  12.498
29970SOL    HW191743   9.669   4.955  12.464
29970SOL    HW291744   9.773   5.045  12.527
29971SOL     OW91745   4.363   6.964   7.839
29971SOL    HW191746   4.404   6.882   7.809
29971SOL    HW291747   4.347   6.949   7.932
29972SOL     OW91748   3.106   0.241  11.973
29972SOL    HW191749   3.129   0.295  11.897
29972SOL    HW291750   3.089   0.155  11.935
29973SOL     OW91751  14.848   0.298   5.117
29973SOL    HW191752  14.776   0.251   5.074
29973SOL    HW291753  14.813   0.325   5.201
29974SOL     OW91754   4.516  11.015  13.281
29974SOL    HW191755   4.510  11.073  13.206
29974SOL    HW291756   4.600  10.970  13.270
29975SOL     OW91757   0.802  11.573   7.679
29975SOL    HW191758   0.844  11.489   7.658
29975SOL    HW291759   0.739  11.587   7.609
29976SOL     OW91760   2.091   2.150   8.327
29976SOL    HW191761   2.044   2.139   8.410
29976SOL    HW291762   2.063   2.236   8.294
29977SOL     OW91763   4.837   7.415   2.211
29977SOL    HW191764   4.757   7.461   2.234
29977SOL    HW291765   4.818   7.373   2.127
29978SOL     OW91766   4.936  12.428  11.631
29978SOL    HW191767   4.940  12.349  11.576
29978SOL    HW291768   4.846  12.459  11.622
29979SOL     OW91769   5.990   3.267   8.878
29979SOL    HW191770   6.077   3.270   8.918
29979SOL    HW291771   5.980   3.176   8.849
29980SOL     OW91772   7.270  13.067  11.822
29980SOL    HW191773   7.359  13.081  11.791
29980SOL    HW291774   7.273  12.984  11.869
29981SOL     OW91775   1.584   8.171  14.618
29981SOL    HW191776   1.575   8.232  14.690
29981SOL    HW291777   1.632   8.097  14.655
29982SOL     OW91778   6.122   0.711  10.301
29982SOL    HW191779   6.144   0.804  10.302
29982SOL    HW291780   6.138   0.683  10.211
29983SOL     OW91781   7.360   3.608   5.115
29983SOL    HW191782   7.331   3.670   5.049
29983SOL    HW291783   7.455   3.605   5.106
29984SOL     OW91784   1.627   4.307   1.603
29984SOL    HW191785   1.599   4.232   1.655
29984SOL    HW291786   1.691   4.352   1.658
29985SOL     OW91787   2.015   6.975   0.951
29985SOL    HW191788   1.977   7.063   0.960
29985SOL    HW291789   2.108   6.988   0.970
29986SOL     OW91790   7.578   9.987   5.732
29986SOL    HW191791   7.507  10.040   5.696
29986SOL    HW291792   7.646   9.988   5.664
29987SOL     OW91793   1.957  13.035   6.421
29987SOL    HW191794   1.871  13.029   6.379
29987SOL    HW291795   1.950  12.979   6.498
29988SOL     OW91796   1.834   1.025  14.180
29988SOL    HW191797   1.742   1.005  14.164
29988SOL    HW291798   1.880   0.984  14.107
29989SOL     OW91799   1.569  12.834   6.570
29989SOL    HW191800   1.528  12.908   6.525
29989SOL    HW291801   1.597  12.869   6.654
29990SOL     OW91802   3.907   3.249   4.087
29990SOL    HW191803   3.813   3.262   4.101
29990SOL    HW291804   3.948   3.280   4.168
29991SOL     OW91805   7.780  11.713  14.013
29991SOL    HW191806   7.846  11.734  13.947
29991SOL    HW291807   7.701  11.757  13.981
29992SOL     OW91808   6.148  14.485   2.318
29992SOL    HW191809   6.094  14.498   2.396
29992SOL    HW291810   6.198  14.567   2.310
29993SOL     OW91811  11.836   4.738   9.448
29993SOL    HW191812  11.826   4.645   9.467
29993SOL    HW291813  11.829   4.781   9.532
29994SOL     OW91814   3.089   6.319   3.955
29994SOL    HW191815   3.010   6.272   3.928
29994SOL    HW291816   3.149   6.251   3.985
29995SOL     OW91817   3.882   4.163   1.676
29995SOL    HW191818   3.840   4.243   1.706
29995SOL    HW291819   3.818   4.123   1.618
29996SOL     OW91820  11.769   6.810   8.980
29996SOL    HW191821  11.685   6.846   8.952
29996SOL    HW291822  11.797   6.868   9.051
29997SOL     OW91823  14.027   8.237   3.783
29997SOL    HW191824  13.955   8.212   3.842
29997SOL    HW291825  14.049   8.157   3.736
29998SOL     OW91826   0.080   7.624  13.935
29998SOL    HW191827  14.877   7.649  13.977
29998SOL    HW291828   0.146   7.628  14.005
29999SOL     OW91829  13.523   2.773   4.656
29999SOL    HW191830  13.457   2.739   4.596
29999SOL    HW291831  13.474   2.803   4.733
30000SOL     OW91832  10.396   3.179   8.421
30000SOL    HW191833  10.436   3.178   8.508
30000SOL    HW291834  10.408   3.269   8.390
30001SOL     OW91835   5.917  11.827   8.850
30001SOL    HW191836   5.851  11.798   8.786
30001SOL    HW291837   5.867  11.846   8.929
30002SOL     OW91838  14.671   7.449   9.703
30002SOL    HW191839  14.662   7.523   9.642
30002SOL    HW291840  14.722   7.385   9.654
30003SOL     OW91841   7.630  13.554   1.745
30003SOL    HW191842   7.674  13.540   1.661
30003SOL    HW291843   7.700  13.582   1.804
30004SOL     OW91844   3.015  14.398   9.887
30004SOL    HW191845   3.105  14.395   9.920
30004SOL    HW291846   3.001  14.312   9.848
30005SOL     OW91847   7.549   6.706   9.143
30005SOL    HW191848   7.562   6.652   9.065
30005SOL    HW291849   7.636   6.711   9.183
30006SOL     OW91850  12.298   8.283  12.227
30006SOL    HW191851  12.346   8.208  12.192
30006SOL    HW291852  12.206   8.262  12.209
30007SOL     OW91853  10.799   7.393  13.473
30007SOL    HW191854  10.709   7.385  13.441
30007SOL    HW291855  10.853   7.366  13.399
30008SOL     OW91856   0.162   3.733   9.111
30008SOL    HW191857   0.235   3.763   9.057
30008SOL    HW291858   0.133   3.652   9.069
30009SOL     OW91859   1.448   6.567  11.700
30009SOL    HW191860   1.501   6.550  11.622
30009SOL    HW291861   1.503   6.538  11.773
30010SOL     OW91862   9.045   6.807   5.323
30010SOL    HW191863   9.089   6.869   5.382
30010SOL    HW291864   9.001   6.862   5.259
30011SOL     OW91865   6.935   8.551   4.986
30011SOL    HW191866   7.005   8.498   4.949
30011SOL    HW291867   6.896   8.495   5.054
30012SOL     OW91868   8.733  14.838   1.937
30012SOL    HW191869   8.812  14.879   1.972
30012SOL    HW291870   8.747  14.744   1.949
30013SOL     OW91871   1.050  10.396   5.689
30013SOL    HW191872   0.983  10.367   5.628
30013SOL    HW291873   1.107  10.453   5.637
30014SOL     OW91874  13.577   8.118   2.848
30014SOL    HW191875  13.660   8.160   2.827
30014SOL    HW291876  13.515   8.152   2.783
30015SOL     OW91877  14.621  11.757   6.435
30015SOL    HW191878  14.648  11.717   6.517
30015SOL    HW291879  14.701  11.758   6.381
30016SOL     OW91880   7.446   1.861   5.983
30016SOL    HW191881   7.487   1.929   6.037
30016SOL    HW291882   7.501   1.857   5.905
30017SOL     OW91883   4.188  13.596   8.908
30017SOL    HW191884   4.168  13.641   8.826
30017SOL    HW291885   4.112  13.613   8.964
30018SOL     OW91886   3.037   5.465   0.451
30018SOL    HW191887   3.046   5.485   0.357
30018SOL    HW291888   3.060   5.372   0.458
30019SOL     OW91889   2.951   9.625   2.509
30019SOL    HW191890   2.940   9.550   2.567
30019SOL    HW291891   2.902   9.602   2.430
30020SOL     OW91892   0.834  12.411  11.415
30020SOL    HW191893   0.758  12.389  11.361
30020SOL    HW291894   0.907  12.415  11.353
30021SOL     OW91895   5.512  13.635   8.527
30021SOL    HW191896   5.540  13.669   8.442
30021SOL    HW291897   5.471  13.710   8.570
30022SOL     OW91898  13.234   9.192  13.559
30022SOL    HW191899  13.190   9.247  13.623
30022SOL    HW291900  13.275   9.254  13.498
30023SOL     OW91901   5.444   9.264   3.441
30023SOL    HW191902   5.466   9.349   3.402
30023SOL    HW291903   5.353   9.248   3.413
30024SOL     OW91904  13.317   7.747   8.808
30024SOL    HW191905  13.396   7.702   8.777
30024SOL    HW291906  13.349   7.815   8.866
30025SOL     OW91907   5.550   1.753  13.488
30025SOL    HW191908   5.508   1.742  13.403
30025SOL    HW291909   5.541   1.846  13.508
30026SOL     OW91910  13.038  14.576   0.098
30026SOL    HW191911  13.001  14.619   0.021
30026SOL    HW291912  13.109  14.634   0.126
30027SOL     OW91913   0.998  13.799   5.208
30027SOL    HW191914   1.042  13.858   5.269
30027SOL    HW291915   1.022  13.832   5.121
30028SOL     OW91916   4.973   4.294   1.873
30028SOL    HW191917   4.902   4.308   1.936
30028SOL    HW291918   4.932   4.304   1.787
30029SOL     OW91919  12.494   3.963  14.047
30029SOL    HW191920  12.485   4.032  14.113
30029SOL    HW291921  12.518   3.885  14.097
30030SOL     OW91922  11.306   8.159   5.300
30030SOL    HW191923  11.278   8.217   5.229
30030SOL    HW291924  11.400   8.177   5.311
30031SOL     OW91925   5.453   7.484   8.720
30031SOL    HW191926   5.377   7.461   8.666
30031SOL    HW291927   5.497   7.554   8.671
30032SOL     OW91928  13.708  14.175   7.381
30032SOL    HW191929  13.729  14.133   7.297
30032SOL    HW291930  13.613  14.170   7.387
30033SOL     OW91931  12.651  12.005  13.029
30033SOL    HW191932  12.685  12.068  13.092
30033SOL    HW291933  12.723  11.993  12.966
30034SOL     OW91934   2.912  14.073  11.480
30034SOL    HW191935   2.932  14.065  11.573
30034SOL    HW291936   2.989  14.036  11.436
30035SOL     OW91937   3.768   7.601   0.737
30035SOL    HW191938   3.790   7.680   0.688
30035SOL    HW291939   3.675   7.607   0.754
30036SOL     OW91940  13.202  13.951   1.628
30036SOL    HW191941  13.117  13.962   1.672
30036SOL    HW291942  13.262  13.925   1.698
30037SOL     OW91943   5.648  13.122  13.968
30037SOL    HW191944   5.665  13.190  13.903
30037SOL    HW291945   5.683  13.157  14.050
30038SOL     OW91946   1.011  12.982  11.865
30038SOL    HW191947   1.073  12.921  11.906
30038SOL    HW291948   1.051  13.003  11.780
30039SOL     OW91949  14.855   6.157  13.947
30039SOL    HW191950  14.831   6.234  13.896
30039SOL    HW291951  14.773   6.107  13.955
30040SOL     OW91952  11.430   9.665   1.403
30040SOL    HW191953  11.351   9.654   1.351
30040SOL    HW291954  11.416   9.745   1.453
30041SOL     OW91955  13.914   7.422   6.124
30041SOL    HW191956  13.877   7.491   6.070
30041SOL    HW291957  13.853   7.413   6.198
30042SOL     OW91958   8.979   5.923   5.020
30042SOL    HW191959   8.894   5.906   4.980
30042SOL    HW291960   9.004   5.840   5.060
30043SOL     OW91961   2.794  13.456   2.739
30043SOL    HW191962   2.873  13.445   2.685
30043SOL    HW291963   2.809  13.537   2.787
30044SOL     OW91964   1.697   2.638   5.538
30044SOL    HW191965   1.636   2.569   5.564
30044SOL    HW291966   1.646   2.694   5.479
30045SOL     OW91967  13.975   0.158   1.839
30045SOL    HW191968  13.905   0.116   1.789
30045SOL    HW291969  13.992   0.097   1.911
30046SOL     OW91970   6.014  13.874   5.647
30046SOL    HW191971   6.017  13.779   5.664
30046SOL    HW291972   6.082  13.888   5.581
30047SOL     OW91973   4.833  12.428  11.210
30047SOL    HW191974   4.788  12.344  11.220
30047SOL    HW291975   4.807  12.460  11.124
30048SOL     OW91976  13.471   7.999   9.879
30048SOL    HW191977  13.409   7.930   9.854
30048SOL    HW291978  13.538   7.996   9.810
30049SOL     OW91979   3.695   1.189  12.126
30049SOL    HW191980   3.665   1.248  12.056
30049SOL    HW291981   3.646   1.109  12.113
30050SOL     OW91982   0.450   5.333   1.387
30050SOL    HW191983   0.486   5.382   1.460
30050SOL    HW291984   0.519   5.337   1.320
30051SOL     OW91985   5.304  13.783   8.378
30051SOL    HW191986   5.221  13.736   8.392
30051SOL    HW291987   5.292  13.865   8.425
30052SOL     OW91988  12.319  11.371   5.093
30052SOL    HW191989  12.282  11.457   5.112
30052SOL    HW291990  12.251  11.309   5.117
30053SOL     OW91991   5.388   9.778   3.903
30053SOL    HW191992   5.395   9.699   3.956
30053SOL    HW291993   5.463   9.774   3.844
30054SOL     OW91994  13.972   6.430  13.696
30054SOL    HW191995  14.044   6.484  13.664
30054SOL    HW291996  13.971   6.444  13.790
30055SOL     OW91997   5.856  11.197   6.114
30055SOL    HW191998   5.906  11.227   6.038
30055SOL    HW291999   5.792  11.136   6.077
30056SOL     OW92000   6.534   7.004  13.204
30056SOL    HW192001   6.515   6.927  13.151
30056SOL    HW292002   6.480   6.994  13.282
30057SOL     OW92003   7.862   9.816   6.491
30057SOL    HW192004   7.824   9.856   6.413
30057SOL    HW292005   7.813   9.734   6.503
30058SOL     OW92006   9.558   9.954  10.829
30058SOL    HW192007   9.522   9.878  10.783
30058SOL    HW292008   9.492   9.976  10.894
30059SOL     OW92009  10.714   5.548   2.543
30059SOL    HW192010  10.639   5.588   2.499
30059SOL    HW292011  10.767   5.511   2.472
30060SOL     OW92012   0.095   9.220   1.570
30060SOL    HW192013   0.027   9.154   1.585
30060SOL    HW292014   0.130   9.238   1.657
30061SOL     OW92015   4.963  13.786   2.318
30061SOL    HW192016   5.023  13.785   2.243
30061SOL    HW292017   4.966  13.876   2.351
30062SOL     OW92018   2.844   3.604  11.168
30062SOL    HW192019   2.799   3.648  11.095
30062SOL    HW292020   2.929   3.581  11.132
30063SOL     OW92021   5.616   6.391   0.141
30063SOL    HW192022   5.620   6.406   0.236
30063SOL    HW292023   5.691   6.439   0.107
30064SOL     OW92024   6.439   1.374   7.209
30064SOL    HW192025   6.400   1.331   7.285
30064SOL    HW292026   6.474   1.302   7.157
30065SOL     OW92027  14.858   2.046   2.069
30065SOL    HW192028   0.063   2.061   2.025
30065SOL    HW292029  14.862   1.955   2.098
30066SOL     OW92030  12.597   6.614  12.561
30066SOL    HW192031  12.609   6.641  12.652
30066SOL    HW292032  12.502   6.616  12.548
30067SOL     OW92033   9.673   7.410   7.046
30067SOL    HW192034   9.701   7.458   6.969
30067SOL    HW292035   9.590   7.369   7.020
30068SOL     OW92036   9.360   9.541   5.680
30068SOL    HW192037   9.408   9.620   5.655
30068SOL    HW292038   9.395   9.472   5.623
30069SOL     OW92039   7.307   1.613   4.765
30069SOL    HW192040   7.307   1.532   4.815
30069SOL    HW292041   7.261   1.675   4.821
30070SOL     OW92042   3.961  13.275  11.632
30070SOL    HW192043   4.047  13.317  11.628
30070SOL    HW292044   3.964  13.222  11.712
30071SOL     OW92045   0.490  14.100   2.770
30071SOL    HW192046   0.410  14.051   2.752
30071SOL    HW292047   0.476  14.139   2.856
30072SOL     OW92048  12.507   1.184   6.633
30072SOL    HW192049  12.565   1.216   6.702
30072SOL    HW292050  12.563   1.130   6.577
30073SOL     OW92051  11.227   6.521  12.680
30073SOL    HW192052  11.135   6.548  12.686
30073SOL    HW292053  11.255   6.512  12.771
30074SOL     OW92054   4.249   5.067   6.732
30074SOL    HW192055   4.194   5.045   6.807
30074SOL    HW292056   4.209   5.146   6.695
30075SOL     OW92057  10.169   2.521  10.849
30075SOL    HW192058  10.218   2.593  10.889
30075SOL    HW292059  10.105   2.564  10.792
30076SOL     OW92060  10.855   8.718   3.278
30076SOL    HW192061  10.936   8.669   3.263
30076SOL    HW292062  10.785   8.659   3.250
30077SOL     OW92063  12.811   2.947  14.622
30077SOL    HW192064  12.782   2.972  14.535
30077SOL    HW292065  12.896   2.905  14.608
30078SOL     OW92066  13.416  12.301   3.685
30078SOL    HW192067  13.484  12.283   3.750
30078SOL    HW292068  13.334  12.278   3.729
30079SOL     OW92069   5.859   9.860  12.581
30079SOL    HW192070   5.866   9.830  12.671
30079SOL    HW292071   5.841   9.780  12.531
30080SOL     OW92072  12.875   7.820   6.597
30080SOL    HW192073  12.852   7.737   6.638
30080SOL    HW292074  12.849   7.886   6.661
30081SOL     OW92075   9.059   1.326   7.981
30081SOL    HW192076   9.123   1.301   8.047
30081SOL    HW292077   8.975   1.292   8.014
30082SOL     OW92078  10.653  12.280  13.869
30082SOL    HW192079  10.744  12.301  13.846
30082SOL    HW292080  10.606  12.363  13.857
30083SOL     OW92081   1.563   0.284   5.706
30083SOL    HW192082   1.622   0.308   5.635
30083SOL    HW292083   1.483   0.332   5.688
30084SOL     OW92084  13.334  13.767  10.802
30084SOL    HW192085  13.350  13.706  10.874
30084SOL    HW292086  13.370  13.850  10.832
30085SOL     OW92087   6.268  10.897   0.878
30085SOL    HW192088   6.176  10.909   0.852
30085SOL    HW292089   6.266  10.898   0.974
30086SOL     OW92090  14.538   3.872   5.763
30086SOL    HW192091  14.506   3.795   5.715
30086SOL    HW292092  14.461   3.906   5.808
30087SOL     OW92093   2.457   7.060   4.088
30087SOL    HW192094   2.479   7.151   4.067
30087SOL    HW292095   2.467   7.055   4.183
30088SOL     OW92096   8.446   0.825   3.064
30088SOL    HW192097   8.368   0.875   3.039
30088SOL    HW292098   8.503   0.829   2.987
30089SOL     OW92099  11.428  13.185  14.568
30089SOL    HW192100  11.490  13.252  14.594
30089SOL    HW292101  11.445  13.169  14.475
30090SOL     OW92102  12.899   3.278  10.724
30090SOL    HW192103  12.830   3.222  10.760
30090SOL    HW292104  12.963   3.285  10.795
30091SOL     OW92105   9.013  14.086   9.222
30091SOL    HW192106   9.040  14.014   9.279
30091SOL    HW292107   9.071  14.080   9.146
30092SOL     OW92108   7.823   5.334   6.497
30092SOL    HW192109   7.868   5.407   6.455
30092SOL    HW292110   7.817   5.267   6.429
30093SOL     OW92111   9.554   8.666   9.037
30093SOL    HW192112   9.577   8.589   8.985
30093SOL    HW292113   9.533   8.631   9.124
30094SOL     OW92114   3.359  12.980   0.871
30094SOL    HW192115   3.319  12.972   0.957
30094SOL    HW292116   3.337  12.899   0.826
30095SOL     OW92117   5.085   3.657  13.691
30095SOL    HW192118   5.138   3.695  13.621
30095SOL    HW292119   5.076   3.729  13.755
30096SOL     OW92120  13.480   4.708   9.408
30096SOL    HW192121  13.569   4.673   9.414
30096SOL    HW292122  13.480   4.783   9.468
30097SOL     OW92123   9.377   5.482   6.868
30097SOL    HW192124   9.460   5.435   6.861
30097SOL    HW292125   9.335   5.445   6.945
30098SOL     OW92126  13.225   0.707  11.017
30098SOL    HW192127  13.191   0.772  10.955
30098SOL    HW292128  13.215   0.748  11.103
30099SOL     OW92129   3.257   6.954  13.407
30099SOL    HW192130   3.314   6.979  13.481
30099SOL    HW292131   3.190   6.899  13.446
30100SOL     OW92132   8.506  12.114  10.130
30100SOL    HW192133   8.582  12.163  10.162
30100SOL    HW292134   8.543  12.047  10.073
30101SOL     OW92135  10.329   8.507   8.088
30101SOL    HW192136  10.411   8.469   8.120
30101SOL    HW292137  10.261   8.449   8.123
30102SOL     OW92138   2.061   5.694  12.528
30102SOL    HW192139   2.024   5.636  12.462
30102SOL    HW292140   2.151   5.708  12.499
30103SOL     OW92141   5.308   5.420  14.362
30103SOL    HW192142   5.319   5.339  14.412
30103SOL    HW292143   5.360   5.406  14.282
30104SOL     OW92144   1.893  13.984   2.266
30104SOL    HW192145   1.827  13.988   2.335
30104SOL    HW292146   1.964  14.041   2.296
30105SOL     OW92147   9.460  11.120   6.488
30105SOL    HW192148   9.503  11.129   6.572
30105SOL    HW292149   9.514  11.056   6.440
30106SOL     OW92150   3.901   4.449   6.806
30106SOL    HW192151   3.948   4.510   6.749
30106SOL    HW292152   3.923   4.478   6.895
30107SOL     OW92153  12.175   6.705   5.925
30107SOL    HW192154  12.253   6.650   5.923
30107SOL    HW292155  12.200   6.785   5.880
30108SOL     OW92156   9.670   9.983  10.092
30108SOL    HW192157   9.599  10.046  10.107
30108SOL    HW292158   9.626   9.905  10.059
30109SOL     OW92159  13.896   1.106   1.201
30109SOL    HW192160  13.882   1.198   1.224
30109SOL    HW292161  13.811   1.065   1.216
30110SOL     OW92162   1.120   6.612  13.239
30110SOL    HW192163   1.183   6.637  13.307
30110SOL    HW292164   1.035   6.626  13.280
30111SOL     OW92165   6.591  14.311   1.376
30111SOL    HW192166   6.597  14.289   1.469
30111SOL    HW292167   6.549  14.397   1.374
30112SOL     OW92168   8.641  10.483  12.938
30112SOL    HW192169   8.607  10.435  12.862
30112SOL    HW292170   8.646  10.418  13.007
30113SOL     OW92171   8.162   3.341   7.456
30113SOL    HW192172   8.209   3.299   7.528
30113SOL    HW292173   8.229   3.354   7.389
30114SOL     OW92174   6.072   2.966   0.902
30114SOL    HW192175   5.983   2.993   0.883
30114SOL    HW292176   6.070   2.871   0.898
30115SOL     OW92177   2.064  11.636  14.355
30115SOL    HW192178   2.033  11.567  14.295
30115SOL    HW292179   2.037  11.718  14.313
30116SOL     OW92180  14.592  14.301   3.661
30116SOL    HW192181  14.565  14.237   3.727
30116SOL    HW292182  14.628  14.373   3.712
30117SOL     OW92183   7.939   6.276   9.282
30117SOL    HW192184   8.017   6.294   9.230
30117SOL    HW292185   7.874   6.337   9.248
30118SOL     OW92186  14.687  14.789   6.592
30118SOL    HW192187  14.601  14.776   6.631
30118SOL    HW292188  14.719  14.701   6.573
30119SOL     OW92189   3.421   4.112  12.113
30119SOL    HW192190   3.409   4.179  12.180
30119SOL    HW292191   3.340   4.112  12.063
30120SOL     OW92192   1.494   0.964   9.182
30120SOL    HW192193   1.405   0.985   9.155
30120SOL    HW292194   1.498   0.869   9.181
30121SOL     OW92195  10.421   0.516   7.725
30121SOL    HW192196  10.340   0.557   7.756
30121SOL    HW292197  10.484   0.587   7.721
30122SOL     OW92198   3.954   0.532  13.207
30122SOL    HW192199   3.868   0.574  13.203
30122SOL    HW292200   3.938   0.449  13.252
30123SOL     OW92201  10.601  12.745   5.937
30123SOL    HW192202  10.637  12.658   5.921
30123SOL    HW292203  10.515  12.742   5.897
30124SOL     OW92204   5.381   3.635   4.390
30124SOL    HW192205   5.401   3.561   4.333
30124SOL    HW292206   5.462   3.651   4.437
30125SOL     OW92207   8.810   1.367   5.448
30125SOL    HW192208   8.744   1.382   5.381
30125SOL    HW292209   8.761   1.369   5.531
30126SOL     OW92210   7.815  14.126  12.677
30126SOL    HW192211   7.814  14.212  12.717
30126SOL    HW292212   7.780  14.139  12.589
30127SOL     OW92213  13.609  10.000  14.239
30127SOL    HW192214  13.546   9.967  14.303
30127SOL    HW292215  13.630  10.088  14.270
30128SOL     OW92216   7.296  13.609   0.652
30128SOL    HW192217   7.369  13.550   0.635
30128SOL    HW292218   7.279  13.651   0.567
30129SOL     OW92219   4.732  12.608  13.326
30129SOL    HW192220   4.784  12.591  13.404
30129SOL    HW292221   4.752  12.699  13.304
30130SOL     OW92222   1.909   0.187  11.818
30130SOL    HW192223   1.836   0.136  11.783
30130SOL    HW292224   1.903   0.272  11.774
30131SOL     OW92225  13.897  10.033  11.081
30131SOL    HW192226  13.969  10.092  11.059
30131SOL    HW292227  13.834  10.045  11.011
30132SOL     OW92228  13.747   9.520  11.014
30132SOL    HW192229  13.784   9.507  11.102
30132SOL    HW292230  13.696   9.441  10.998
30133SOL     OW92231  14.275   5.295  12.788
30133SOL    HW192232  14.346   5.304  12.725
30133SOL    HW292233  14.234   5.211  12.767
30134SOL     OW92234  12.368   8.878  10.448
30134SOL    HW192235  12.317   8.800  10.470
30134SOL    HW292236  12.331   8.947  10.503
30135SOL     OW92237  14.143   0.261  12.711
30135SOL    HW192238  14.117   0.192  12.649
30135SOL    HW292239  14.213   0.308  12.666
30136SOL     OW92240   2.277  11.089  10.927
30136SOL    HW192241   2.373  11.094  10.921
30136SOL    HW292242   2.246  11.162  10.872
30137SOL     OW92243   9.851   7.906   7.098
30137SOL    HW192244   9.942   7.929   7.115
30137SOL    HW292245   9.819   7.872   7.182
30138SOL     OW92246   9.470   5.739   8.993
30138SOL    HW192247   9.441   5.775   8.909
30138SOL    HW292248   9.408   5.774   9.057
30139SOL     OW92249   9.278  12.130  12.086
30139SOL    HW192250   9.359  12.176  12.109
30139SOL    HW292251   9.241  12.182  12.014
30140SOL     OW92252   9.583   5.699   4.860
30140SOL    HW192253   9.543   5.685   4.774
30140SOL    HW292254   9.510   5.719   4.918
30141SOL     OW92255  12.311  12.860   2.316
30141SOL    HW192256  12.391  12.901   2.283
30141SOL    HW292257  12.326  12.766   2.304
30142SOL     OW92258   2.293   5.263   8.710
30142SOL    HW192259   2.241   5.186   8.687
30142SOL    HW292260   2.229   5.333   8.724
30143SOL     OW92261  11.214   5.767   8.891
30143SOL    HW192262  11.198   5.792   8.800
30143SOL    HW292263  11.257   5.844   8.930
30144SOL     OW92264   9.795   7.888  13.776
30144SOL    HW192265   9.714   7.936  13.755
30144SOL    HW292266   9.863   7.932  13.724
30145SOL     OW92267   8.024   7.714  11.328
30145SOL    HW192268   8.113   7.694  11.298
30145SOL    HW292269   8.036   7.785  11.391
30146SOL     OW92270   1.314   1.368  13.268
30146SOL    HW192271   1.294   1.449  13.314
30146SOL    HW292272   1.406   1.378  13.241
30147SOL     OW92273   1.811   9.972   9.485
30147SOL    HW192274   1.780   9.973   9.576
30147SOL    HW292275   1.863  10.051   9.476
30148SOL     OW92276  10.047   9.817  10.976
30148SOL    HW192277  10.080   9.801  10.888
30148SOL    HW292278   9.971   9.875  10.963
30149SOL     OW92279  10.539  13.646   1.927
30149SOL    HW192280  10.463  13.703   1.917
30149SOL    HW292281  10.614  13.705   1.921
30150SOL     OW92282  10.165  13.339   7.990
30150SOL    HW192283  10.233  13.346   8.057
30150SOL    HW292284  10.133  13.250   7.998
30151SOL     OW92285   7.115   5.436   7.759
30151SOL    HW192286   7.199   5.472   7.732
30151SOL    HW292287   7.128   5.412   7.851
30152SOL     OW92288   1.874   2.211  11.263
30152SOL    HW192289   1.813   2.283  11.282
30152SOL    HW292290   1.960   2.248  11.278
30153SOL     OW92291  13.057  14.353   9.481
30153SOL    HW192292  12.993  14.409   9.524
30153SOL    HW292293  13.117  14.327   9.551
30154SOL     OW92294  13.138  12.030   8.573
30154SOL    HW192295  13.134  11.976   8.652
30154SOL    HW292296  13.047  12.044   8.549
30155SOL     OW92297   1.913  10.146   1.791
30155SOL    HW192298   1.989  10.202   1.803
30155SOL    HW292299   1.900  10.103   1.875
30156SOL     OW92300  12.948   2.501  14.365
30156SOL    HW192301  13.025   2.509  14.308
30156SOL    HW292302  12.955   2.414  14.404
30157SOL     OW92303   3.229   8.447  13.500
30157SOL    HW192304   3.283   8.526  13.490
30157SOL    HW292305   3.141   8.480  13.520
30158SOL     OW92306   4.723   6.035   1.826
30158SOL    HW192307   4.753   5.950   1.796
30158SOL    HW292308   4.628   6.030   1.825
30159SOL     OW92309   2.171   9.572  12.958
30159SOL    HW192310   2.114   9.552  13.032
30159SOL    HW292311   2.159   9.499  12.898
30160SOL     OW92312   2.561   8.210  10.812
30160SOL    HW192313   2.630   8.169  10.761
30160SOL    HW292314   2.586   8.302  10.819
30161SOL     OW92315  11.195   6.967  11.978
30161SOL    HW192316  11.253   7.021  12.032
30161SOL    HW292317  11.253   6.928  11.912
30162SOL     OW92318  10.303   9.969   0.024
30162SOL    HW192319  10.256   9.885   0.021
30162SOL    HW292320  10.257  10.020   0.090
30163SOL     OW92321  11.824  12.482   1.922
30163SOL    HW192322  11.778  12.410   1.965
30163SOL    HW292323  11.915  12.472   1.949
30164SOL     OW92324  11.134   7.339  14.025
30164SOL    HW192325  11.182   7.360  13.945
30164SOL    HW292326  11.203   7.317  14.089
30165SOL     OW92327  13.487  12.525  10.491
30165SOL    HW192328  13.404  12.561  10.459
30165SOL    HW292329  13.545  12.601  10.498
30166SOL     OW92330   5.719  10.105   1.670
30166SOL    HW192331   5.687  10.106   1.580
30166SOL    HW292332   5.652  10.057   1.719
30167SOL     OW92333   4.434   6.082   1.265
30167SOL    HW192334   4.363   6.101   1.203
30167SOL    HW292335   4.484   6.164   1.269
30168SOL     OW92336   4.228  11.137  11.053
30168SOL    HW192337   4.319  11.122  11.079
30168SOL    HW292338   4.214  11.231  11.063
30169SOL     OW92339   7.016  13.110  11.735
30169SOL    HW192340   6.979  13.024  11.717
30169SOL    HW292341   7.106  13.091  11.763
30170SOL     OW92342   8.325  10.287  13.203
30170SOL    HW192343   8.281  10.341  13.269
30170SOL    HW292344   8.337  10.202  13.246
30171SOL     OW92345   0.027  11.576   7.981
30171SOL    HW192346  14.817  11.592   8.014
30171SOL    HW292347   0.079  11.558   8.059
30172SOL     OW92348   2.155   9.031   0.972
30172SOL    HW192349   2.124   9.121   0.980
30172SOL    HW292350   2.087   8.986   0.922
30173SOL     OW92351   3.807  12.104   4.683
30173SOL    HW192352   3.725  12.145   4.657
30173SOL    HW292353   3.866  12.119   4.609
30174SOL     OW92354  13.460   1.948   4.401
30174SOL    HW192355  13.460   2.001   4.322
30174SOL    HW292356  13.450   2.011   4.472
30175SOL     OW92357   5.380   7.947   3.936
30175SOL    HW192358   5.286   7.957   3.947
30175SOL    HW292359   5.396   7.854   3.949
30176SOL     OW92360   1.885  11.108   1.896
30176SOL    HW192361   1.849  11.052   1.827
30176SOL    HW292362   1.840  11.191   1.885
30177SOL     OW92363  10.525  10.005  13.751
30177SOL    HW192364  10.610   9.983  13.791
30177SOL    HW292365  10.461   9.966  13.810
30178SOL     OW92366  13.363   4.672   2.986
30178SOL    HW192367  13.403   4.744   2.937
30178SOL    HW292368  13.424   4.599   2.975
30179SOL     OW92369   1.651   5.979   7.982
30179SOL    HW192370   1.709   5.970   8.058
30179SOL    HW292371   1.705   5.955   7.907
30180SOL     OW92372  10.094  13.727   8.044
30180SOL    HW192373  10.158  13.798   8.035
30180SOL    HW292374  10.143  13.648   8.022
30181SOL     OW92375   8.639   2.200  13.530
30181SOL    HW192376   8.634   2.107  13.509
30181SOL    HW292377   8.563   2.238  13.486
30182SOL     OW92378   4.844   1.780   0.635
30182SOL    HW192379   4.864   1.873   0.647
30182SOL    HW292380   4.869   1.740   0.718
30183SOL     OW92381   0.749  14.056   4.489
30183SOL    HW192382   0.666  14.081   4.447
30183SOL    HW292383   0.750  14.106   4.571
30184SOL     OW92384   4.317  13.275   0.910
30184SOL    HW192385   4.387  13.215   0.936
30184SOL    HW292386   4.241  13.218   0.896
30185SOL     OW92387   3.127   3.200  13.646
30185SOL    HW192388   3.113   3.107  13.630
30185SOL    HW292389   3.193   3.202  13.716
30186SOL     OW92390   2.942   4.615   9.437
30186SOL    HW192391   2.929   4.553   9.366
30186SOL    HW292392   2.957   4.699   9.393
30187SOL     OW92393   7.730   5.958   4.521
30187SOL    HW192394   7.749   6.051   4.512
30187SOL    HW292395   7.671   5.953   4.596
30188SOL     OW92396   7.082   8.349   3.335
30188SOL    HW192397   7.036   8.331   3.417
30188SOL    HW292398   7.129   8.431   3.351
30189SOL     OW92399  13.772   0.534   9.845
30189SOL    HW192400  13.767   0.607   9.907
30189SOL    HW292401  13.767   0.575   9.759
30190SOL     OW92402  11.037  11.559   0.320
30190SOL    HW192403  11.126  11.525   0.326
30190SOL    HW292404  11.020  11.564   0.226
30191SOL     OW92405   5.557   5.340   6.697
30191SOL    HW192406   5.536   5.434   6.691
30191SOL    HW292407   5.515   5.312   6.779
30192SOL     OW92408   6.679   5.397  13.339
30192SOL    HW192409   6.623   5.375  13.265
30192SOL    HW292410   6.761   5.350  13.322
30193SOL     OW92411   4.742   7.621   8.712
30193SOL    HW192412   4.771   7.589   8.798
30193SOL    HW292413   4.794   7.570   8.650
30194SOL     OW92414   9.040  14.309  14.149
30194SOL    HW192415   9.128  14.345  14.158
30194SOL    HW292416   8.993  14.374  14.096
30195SOL     OW92417  11.396   1.068  11.735
30195SOL    HW192418  11.389   1.160  11.761
30195SOL    HW292419  11.310   1.031  11.754
30196SOL     OW92420   0.355   3.857   7.160
30196SOL    HW192421   0.279   3.846   7.217
30196SOL    HW292422   0.321   3.893   7.079
30197SOL     OW92423   2.532  11.157  10.440
30197SOL    HW192424   2.567  11.098  10.507
30197SOL    HW292425   2.596  11.228  10.436
30198SOL     OW92426   4.716  10.997   0.283
30198SOL    HW192427   4.658  10.963   0.216
30198SOL    HW292428   4.693  11.090   0.290
30199SOL     OW92429   5.010   3.676   9.434
30199SOL    HW192430   5.032   3.703   9.523
30199SOL    HW292431   4.920   3.644   9.439
30200SOL     OW92432   2.534  12.709   0.383
30200SOL    HW192433   2.627  12.713   0.359
30200SOL    HW292434   2.533  12.660   0.465
30201SOL     OW92435  13.353   3.918  10.017
30201SOL    HW192436  13.403   3.887  10.092
30201SOL    HW292437  13.402   3.887   9.941
30202SOL     OW92438   0.394   2.857   7.458
30202SOL    HW192439   0.414   2.763   7.465
30202SOL    HW292440   0.377   2.884   7.548
30203SOL     OW92441   8.525   2.861   6.029
30203SOL    HW192442   8.449   2.823   6.073
30203SOL    HW292443   8.557   2.792   5.971
30204SOL     OW92444   1.142  13.194   5.101
30204SOL    HW192445   1.065  13.240   5.133
30204SOL    HW292446   1.108  13.115   5.060
30205SOL     OW92447   1.448   8.411   1.896
30205SOL    HW192448   1.401   8.357   1.833
30205SOL    HW292449   1.506   8.466   1.843
30206SOL     OW92450   2.447   9.491  13.399
30206SOL    HW192451   2.445   9.537  13.315
30206SOL    HW292452   2.530   9.516  13.438
30207SOL     OW92453   0.587   7.470   4.667
30207SOL    HW192454   0.678   7.481   4.641
30207SOL    HW292455   0.581   7.380   4.697
30208SOL     OW92456   9.753  10.660  11.678
30208SOL    HW192457   9.695  10.589  11.705
30208SOL    HW292458   9.836  10.616  11.656
30209SOL     OW92459   9.102   3.992  13.863
30209SOL    HW192460   9.048   4.011  13.939
30209SOL    HW292461   9.108   3.897  13.860
30210SOL     OW92462   7.364   0.977   2.156
30210SOL    HW192463   7.313   0.926   2.093
30210SOL    HW292464   7.444   1.000   2.109
30211SOL     OW92465  12.326  10.878   0.589
30211SOL    HW192466  12.304  10.816   0.519
30211SOL    HW292467  12.282  10.959   0.564
30212SOL     OW92468  13.380   4.321  14.082
30212SOL    HW192469  13.411   4.300  13.993
30212SOL    HW292470  13.358   4.414  14.078
30213SOL     OW92471   0.728   0.914  11.561
30213SOL    HW192472   0.729   0.930  11.467
30213SOL    HW292473   0.722   0.818  11.569
30214SOL     OW92474   5.435   1.704  10.866
30214SOL    HW192475   5.367   1.637  10.857
30214SOL    HW292476   5.398   1.768  10.926
30215SOL     OW92477   0.921   5.961   9.511
30215SOL    HW192478   0.978   5.891   9.543
30215SOL    HW292479   0.981   6.023   9.468
30216SOL     OW92480   4.690   2.727   6.315
30216SOL    HW192481   4.649   2.760   6.235
30216SOL    HW292482   4.731   2.803   6.355
30217SOL     OW92483  12.574  10.443   5.668
30217SOL    HW192484  12.580  10.380   5.740
30217SOL    HW292485  12.497  10.415   5.618
30218SOL     OW92486   4.456   7.829  12.647
30218SOL    HW192487   4.526   7.848  12.710
30218SOL    HW292488   4.470   7.737  12.623
30219SOL     OW92489   4.118   5.016  13.732
30219SOL    HW192490   4.198   5.038  13.684
30219SOL    HW292491   4.049   5.017  13.666
30220SOL     OW92492   0.946   3.715   3.569
30220SOL    HW192493   0.853   3.714   3.591
30220SOL    HW292494   0.970   3.623   3.560
30221SOL     OW92495   1.197  14.575  11.014
30221SOL    HW192496   1.289  14.590  11.037
30221SOL    HW292497   1.180  14.485  11.041
30222SOL     OW92498   9.064  11.715  14.082
30222SOL    HW192499   9.070  11.735  14.175
30222SOL    HW292500   9.015  11.633  14.077
30223SOL     OW92501   1.132   1.030   5.736
30223SOL    HW192502   1.077   1.049   5.660
30223SOL    HW292503   1.136   1.112   5.785
30224SOL     OW92504   9.753  10.809   4.985
30224SOL    HW192505   9.729  10.848   4.901
30224SOL    HW292506   9.672  10.807   5.035
30225SOL     OW92507  13.627  12.620   0.389
30225SOL    HW192508  13.669  12.552   0.441
30225SOL    HW292509  13.578  12.573   0.321
30226SOL     OW92510   2.199  10.711   7.411
30226SOL    HW192511   2.237  10.763   7.341
30226SOL    HW292512   2.207  10.766   7.489
30227SOL     OW92513   6.625  11.668   6.972
30227SOL    HW192514   6.705  11.662   7.024
30227SOL    HW292515   6.625  11.587   6.920
30228SOL     OW92516   3.861  14.017  14.695
30228SOL    HW192517   3.941  14.005  14.746
30228SOL    HW292518   3.890  14.059  14.614
30229SOL     OW92519   3.810   4.152   0.241
30229SOL    HW192520   3.851   4.078   0.195
30229SOL    HW292521   3.726   4.118   0.272
30230SOL     OW92522   9.707   7.387   5.861
30230SOL    HW192523   9.665   7.353   5.939
30230SOL    HW292524   9.692   7.482   5.865
30231SOL     OW92525   0.596   3.391   2.625
30231SOL    HW192526   0.507   3.382   2.659
30231SOL    HW292527   0.585   3.400   2.530
30232SOL     OW92528  14.661  14.406   6.950
30232SOL    HW192529  14.608  14.411   6.870
30232SOL    HW292530  14.749  14.429   6.922
30233SOL     OW92531   5.207  11.180   6.800
30233SOL    HW192532   5.137  11.239   6.771
30233SOL    HW292533   5.189  11.097   6.755
30234SOL     OW92534   9.163   1.750  14.128
30234SOL    HW192535   9.200   1.776  14.044
30234SOL    HW292536   9.070   1.772  14.121
30235SOL     OW92537   8.332  10.457   9.005
30235SOL    HW192538   8.407  10.473   9.062
30235SOL    HW292539   8.271  10.528   9.024
30236SOL     OW92540  11.175   3.285   2.681
30236SOL    HW192541  11.202   3.252   2.595
30236SOL    HW292542  11.149   3.376   2.664
30237SOL     OW92543  14.599   6.951   6.968
30237SOL    HW192544  14.660   6.898   6.916
30237SOL    HW292545  14.567   6.891   7.035
30238SOL     OW92546   0.484  10.706   3.074
30238SOL    HW192547   0.403  10.723   3.123
30238SOL    HW292548   0.477  10.761   2.996
30239SOL     OW92549   6.620  14.357   9.403
30239SOL    HW192550   6.631  14.363   9.498
30239SOL    HW292551   6.657  14.272   9.380
30240SOL     OW92552   4.889  11.533   4.304
30240SOL    HW192553   4.908  11.562   4.215
30240SOL    HW292554   4.938  11.594   4.359
30241SOL     OW92555  11.425  13.981   1.535
30241SOL    HW192556  11.334  14.006   1.552
30241SOL    HW292557  11.441  14.010   1.445
30242SOL     OW92558  12.176   1.354   5.489
30242SOL    HW192559  12.152   1.403   5.411
30242SOL    HW292560  12.164   1.262   5.464
30243SOL     OW92561   4.962   3.106   6.837
30243SOL    HW192562   5.016   3.085   6.761
30243SOL    HW292563   4.983   3.197   6.857
30244SOL     OW92564   1.940   3.970  14.687
30244SOL    HW192565   1.863   4.001  14.639
30244SOL    HW292566   1.904   3.925  14.764
30245SOL     OW92567   2.742   4.619   1.971
30245SOL    HW192568   2.728   4.551   2.037
30245SOL    HW292569   2.670   4.681   1.984
30246SOL     OW92570   4.966   6.525   7.488
30246SOL    HW192571   4.948   6.586   7.417
30246SOL    HW292572   5.061   6.531   7.501
30247SOL     OW92573   6.872   4.871   7.235
30247SOL    HW192574   6.810   4.818   7.185
30247SOL    HW292575   6.846   4.860   7.326
30248SOL     OW92576  13.056   5.251   2.024
30248SOL    HW192577  13.045   5.336   2.068
30248SOL    HW292578  13.134   5.213   2.064
30249SOL     OW92579   4.156  10.870   7.964
30249SOL    HW192580   4.209  10.931   7.913
30249SOL    HW292581   4.069  10.909   7.966
30250SOL     OW92582   7.175  10.172   5.370
30250SOL    HW192583   7.209  10.229   5.301
30250SOL    HW292584   7.234  10.097   5.371
30251SOL     OW92585   7.537   6.825  10.249
30251SOL    HW192586   7.543   6.791  10.339
30251SOL    HW292587   7.443   6.835  10.234
30252SOL     OW92588   0.646  12.910  11.920
30252SOL    HW192589   0.640  12.873  11.832
30252SOL    HW292590   0.721  12.867  11.960
30253SOL     OW92591   4.202   1.016  14.590
30253SOL    HW192592   4.272   1.056  14.538
30253SOL    HW292593   4.243   0.940  14.631
30254SOL     OW92594   8.192  14.101   4.518
30254SOL    HW192595   8.258  14.135   4.579
30254SOL    HW292596   8.219  14.134   4.432
30255SOL     OW92597   7.621   1.909   7.379
30255SOL    HW192598   7.617   1.829   7.431
30255SOL    HW292599   7.540   1.909   7.329
30256SOL     OW92600  14.795   8.451  13.806
30256SOL    HW192601  14.815   8.392  13.734
30256SOL    HW292602  14.817   8.401  13.885
30257SOL     OW92603   4.684   2.258   8.869
30257SOL    HW192604   4.662   2.169   8.842
30257SOL    HW292605   4.767   2.248   8.917
30258SOL     OW92606  11.115  12.211  14.869
30258SOL    HW192607  11.175  12.160  14.815
30258SOL    HW292608  11.032  12.208  14.821
30259SOL     OW92609   9.998   7.660   4.424
30259SOL    HW192610   9.935   7.682   4.493
30259SOL    HW292611  10.042   7.581   4.455
30260SOL     OW92612   4.624   3.380   1.342
30260SOL    HW192613   4.591   3.332   1.418
30260SOL    HW292614   4.664   3.458   1.379
30261SOL     OW92615  13.574   1.626   9.931
30261SOL    HW192616  13.621   1.628   9.847
30261SOL    HW292617  13.504   1.690   9.920
30262SOL     OW92618   8.228   6.869  14.533
30262SOL    HW192619   8.272   6.888  14.616
30262SOL    HW292620   8.277   6.794  14.497
30263SOL     OW92621  12.957   3.276   5.978
30263SOL    HW192622  12.913   3.201   5.937
30263SOL    HW292623  12.909   3.353   5.947
30264SOL     OW92624   5.272   8.078   7.400
30264SOL    HW192625   5.286   8.079   7.305
30264SOL    HW292626   5.306   8.163   7.430
30265SOL     OW92627   0.869   9.346   1.251
30265SOL    HW192628   0.918   9.364   1.332
30265SOL    HW292629   0.936   9.318   1.189
30266SOL     OW92630   6.741   3.699  13.591
30266SOL    HW192631   6.689   3.777  13.575
30266SOL    HW292632   6.716   3.670  13.679
30267SOL     OW92633   9.995   2.633   1.721
30267SOL    HW192634  10.078   2.673   1.696
30267SOL    HW292635   9.997   2.629   1.816
30268SOL     OW92636  10.990   4.281  13.819
30268SOL    HW192637  10.934   4.322  13.885
30268SOL    HW292638  10.945   4.201  13.794
30269SOL     OW92639   5.644   8.009   7.772
30269SOL    HW192640   5.619   7.970   7.688
30269SOL    HW292641   5.735   8.036   7.759
30270SOL     OW92642   5.089   1.512   7.879
30270SOL    HW192643   5.056   1.596   7.908
30270SOL    HW292644   5.134   1.476   7.955
30271SOL     OW92645   9.006  13.648   8.379
30271SOL    HW192646   9.073  13.606   8.325
30271SOL    HW292647   8.972  13.719   8.324
30272SOL     OW92648   8.887   3.039   0.871
30272SOL    HW192649   8.928   2.955   0.852
30272SOL    HW292650   8.946   3.104   0.834
30273SOL     OW92651  14.123   0.045   7.669
30273SOL    HW192652  14.113  14.861   7.597
30273SOL    HW292653  14.211   0.080   7.656
30274SOL     OW92654   6.966   6.994   5.102
30274SOL    HW192655   6.947   7.079   5.142
30274SOL    HW292656   6.999   6.941   5.174
30275SOL     OW92657   2.952  12.996  10.412
30275SOL    HW192658   2.964  13.037  10.498
30275SOL    HW292659   2.946  13.070  10.351
30276SOL     OW92660  14.821   9.228   2.365
30276SOL    HW192661  14.777   9.144   2.363
30276SOL    HW292662  14.853   9.237   2.455
30277SOL     OW92663  13.208  12.887  14.754
30277SOL    HW192664  13.250  12.948  14.815
30277SOL    HW292665  13.228  12.921  14.667
30278SOL     OW92666  13.830  13.330   2.587
30278SOL    HW192667  13.735  13.334   2.601
30278SOL    HW292668  13.843  13.363   2.498
30279SOL     OW92669  14.302  13.088   3.590
30279SOL    HW192670  14.388  13.054   3.617
30279SOL    HW292671  14.239  13.028   3.630
30280SOL     OW92672   3.926   1.532   6.496
30280SOL    HW192673   3.904   1.440   6.512
30280SOL    HW292674   4.005   1.529   6.442
30281SOL     OW92675   2.609   5.108   1.224
30281SOL    HW192676   2.587   5.068   1.308
30281SOL    HW292677   2.702   5.089   1.212
30282SOL     OW92678  14.745   8.648  10.854
30282SOL    HW192679  14.703   8.570  10.816
30282SOL    HW292680  14.749   8.629  10.948
30283SOL     OW92681   3.277  13.911   8.602
30283SOL    HW192682   3.239  13.958   8.676
30283SOL    HW292683   3.204  13.904   8.539
30284SOL     OW92684   2.672   0.672  12.435
30284SOL    HW192685   2.621   0.595  12.413
30284SOL    HW292686   2.610   0.744  12.432
30285SOL     OW92687   8.042   9.832   4.521
30285SOL    HW192688   8.043   9.902   4.456
30285SOL    HW292689   8.067   9.753   4.472
30286SOL     OW92690  10.582  12.174  14.773
30286SOL    HW192691  10.615  12.112  14.838
30286SOL    HW292692  10.505  12.213  14.814
30287SOL     OW92693  10.048   7.568  14.324
30287SOL    HW192694  10.128   7.585  14.275
30287SOL    HW292695   9.981   7.620  14.279
30288SOL     OW92696  10.484  14.594   5.503
30288SOL    HW192697  10.565  14.590   5.553
30288SOL    HW292698  10.470  14.687   5.486
30289SOL     OW92699  13.202   5.380  10.348
30289SOL    HW192700  13.168   5.399  10.260
30289SOL    HW292701  13.129   5.398  10.407
30290SOL     OW92702  14.457   9.617   4.927
30290SOL    HW192703  14.440   9.531   4.965
30290SOL    HW292704  14.542   9.642   4.963
30291SOL     OW92705   2.682   3.285   0.294
30291SOL    HW192706   2.706   3.378   0.290
30291SOL    HW292707   2.667   3.268   0.387
30292SOL     OW92708   5.256  13.351  11.911
30292SOL    HW192709   5.319  13.297  11.960
30292SOL    HW292710   5.264  13.321  11.821
30293SOL     OW92711   1.549  12.182   2.048
30293SOL    HW192712   1.558  12.139   2.134
30293SOL    HW292713   1.592  12.267   2.059
30294SOL     OW92714   7.836   0.857   8.090
30294SOL    HW192715   7.911   0.910   8.114
30294SOL    HW292716   7.762   0.918   8.093
30295SOL     OW92717   7.042   5.463   9.308
30295SOL    HW192718   7.100   5.538   9.320
30295SOL    HW292719   6.956   5.501   9.289
30296SOL     OW92720   1.429   3.666   7.239
30296SOL    HW192721   1.345   3.698   7.209
30296SOL    HW292722   1.451   3.596   7.177
30297SOL     OW92723  12.632   1.212   8.278
30297SOL    HW192724  12.581   1.197   8.358
30297SOL    HW292725  12.718   1.174   8.299
30298SOL     OW92726  10.442   3.042   2.042
30298SOL    HW192727  10.533   3.036   2.013
30298SOL    HW292728  10.403   2.958   2.015
30299SOL     OW92729   4.972   7.812   8.181
30299SOL    HW192730   4.932   7.847   8.261
30299SOL    HW292731   5.022   7.885   8.145
30300SOL     OW92732   2.337  13.203   6.316
30300SOL    HW192733   2.370  13.280   6.270
30300SOL    HW292734   2.297  13.149   6.248
30301SOL     OW92735   7.349  13.977  12.983
30301SOL    HW192736   7.279  14.037  13.009
30301SOL    HW292737   7.401  13.964  13.062
30302SOL     OW92738   3.905  13.126  13.027
30302SOL    HW192739   3.894  13.172  12.944
30302SOL    HW292740   3.828  13.150  13.078
30303SOL     OW92741   9.418   6.358   8.183
30303SOL    HW192742   9.481   6.322   8.121
30303SOL    HW292743   9.365   6.419   8.131
30304SOL     OW92744  14.563   3.775   2.085
30304SOL    HW192745  14.606   3.770   2.000
30304SOL    HW292746  14.586   3.693   2.129
30305SOL     OW92747   9.351   0.985  14.718
30305SOL    HW192748   9.417   1.002  14.785
30305SOL    HW292749   9.267   0.997  14.763
30306SOL     OW92750  12.164  13.196   1.709
30306SOL    HW192751  12.207  13.125   1.662
30306SOL    HW292752  12.145  13.262   1.642
30307SOL     OW92753   9.045  12.811  14.825
30307SOL    HW192754   9.086  12.729  14.797
30307SOL    HW292755   8.978  12.784   0.009
30308SOL     OW92756   7.762   2.423   4.383
30308SOL    HW192757   7.815   2.361   4.333
30308SOL    HW292758   7.674   2.415   4.344
30309SOL     OW92759  13.250   9.090  11.289
30309SOL    HW192760  13.181   9.036  11.327
30309SOL    HW292761  13.207   9.170  11.261
30310SOL     OW92762   3.292   5.336   8.889
30310SOL    HW192763   3.344   5.316   8.966
30310SOL    HW292764   3.218   5.387   8.923
30311SOL     OW92765   1.856  10.854   7.094
30311SOL    HW192766   1.823  10.904   7.169
30311SOL    HW292767   1.778  10.836   7.041
30312SOL     OW92768   5.910   8.656  11.321
30312SOL    HW192769   5.868   8.726  11.272
30312SOL    HW292770   5.974   8.619  11.260
30313SOL     OW92771   8.436   8.494  10.498
30313SOL    HW192772   8.424   8.585  10.526
30313SOL    HW292773   8.471   8.450  10.575
30314SOL     OW92774  14.030   4.267   6.192
30314SOL    HW192775  13.988   4.181   6.191
30314SOL    HW292776  14.124   4.247   6.199
30315SOL     OW92777   2.147   5.420   2.809
30315SOL    HW192778   2.194   5.501   2.794
30315SOL    HW292779   2.116   5.393   2.723
30316SOL     OW92780   2.564   3.935   5.304
30316SOL    HW192781   2.476   3.973   5.310
30316SOL    HW292782   2.598   3.938   5.393
30317SOL     OW92783   5.523  13.450  11.967
30317SOL    HW192784   5.503  13.360  11.992
30317SOL    HW292785   5.610  13.466  12.005
30318SOL     OW92786   9.693  12.377   0.663
30318SOL    HW192787   9.785  12.354   0.675
30318SOL    HW292788   9.692  12.472   0.654
30319SOL     OW92789   9.876   2.389   6.142
30319SOL    HW192790   9.857   2.297   6.158
30319SOL    HW292791   9.819   2.436   6.203
30320SOL     OW92792   4.943   9.089   6.232
30320SOL    HW192793   4.950   9.019   6.297
30320SOL    HW292794   4.849   9.108   6.227
30321SOL     OW92795  12.209   9.553   1.148
30321SOL    HW192796  12.148   9.483   1.123
30321SOL    HW292797  12.276   9.509   1.199
30322SOL     OW92798   0.524   4.154   0.899
30322SOL    HW192799   0.436   4.125   0.923
30322SOL    HW292800   0.559   4.192   0.980
30323SOL     OW92801   4.892   0.028   6.700
30323SOL    HW192802   4.905  14.817   6.731
30323SOL    HW292803   4.856   0.074   6.776
30324SOL     OW92804   5.579   1.507   1.489
30324SOL    HW192805   5.530   1.504   1.407
30324SOL    HW292806   5.645   1.576   1.476
30325SOL     OW92807   1.913   0.941   9.295
30325SOL    HW192808   1.880   1.024   9.329
30325SOL    HW292809   1.962   0.903   9.368
30326SOL     OW92810   8.732  11.590  14.532
30326SOL    HW192811   8.801  11.528  14.509
30326SOL    HW292812   8.776  11.675  14.535
30327SOL     OW92813  10.985   6.922   0.586
30327SOL    HW192814  10.931   6.856   0.630
30327SOL    HW292815  10.922   6.983   0.548
30328SOL     OW92816   2.247   3.551   6.422
30328SOL    HW192817   2.308   3.617   6.389
30328SOL    HW292818   2.267   3.472   6.372
30329SOL     OW92819   3.022   8.542  10.743
30329SOL    HW192820   3.017   8.491  10.824
30329SOL    HW292821   3.112   8.530  10.712
30330SOL     OW92822  13.809   9.241  12.063
30330SOL    HW192823  13.886   9.246  12.120
30330SOL    HW292824  13.767   9.159  12.087
30331SOL     OW92825   4.994   0.829  12.691
30331SOL    HW192826   4.922   0.885  12.661
30331SOL    HW292827   4.975   0.813  12.783
30332SOL     OW92828   3.341  11.556   6.749
30332SOL    HW192829   3.378  11.642   6.770
30332SOL    HW292830   3.409  11.513   6.696
30333SOL     OW92831   0.282   6.042   6.155
30333SOL    HW192832   0.342   5.973   6.126
30333SOL    HW292833   0.304   6.055   6.247
30334SOL     OW92834  14.572   2.393   2.700
30334SOL    HW192835  14.648   2.379   2.643
30334SOL    HW292836  14.528   2.469   2.661
30335SOL     OW92837   1.056   6.896   8.298
30335SOL    HW192838   1.107   6.906   8.378
30335SOL    HW292839   1.087   6.813   8.260
30336SOL     OW92840  13.160  11.931   6.019
30336SOL    HW192841  13.113  11.915   5.937
30336SOL    HW292842  13.250  11.946   5.992
30337SOL     OW92843  14.597   4.853   8.525
30337SOL    HW192844  14.626   4.768   8.558
30337SOL    HW292845  14.556   4.834   8.441
30338SOL     OW92846   9.428  10.246  13.751
30338SOL    HW192847   9.462  10.248  13.662
30338SOL    HW292848   9.475  10.174  13.793
30339SOL     OW92849  12.873   3.713   9.959
30339SOL    HW192850  12.815   3.643   9.989
30339SOL    HW292851  12.948   3.708  10.018
30340SOL     OW92852   7.965  11.265  12.565
30340SOL    HW192853   8.031  11.248  12.498
30340SOL    HW292854   7.943  11.357  12.553
30341SOL     OW92855   8.254   7.897   3.220
30341SOL    HW192856   8.237   7.978   3.267
30341SOL    HW292857   8.305   7.843   3.281
30342SOL     OW92858   9.918  12.337  11.924
30342SOL    HW192859   9.916  12.429  11.896
30342SOL    HW292860   9.948  12.290  11.846
30343SOL     OW92861   9.812   7.874   3.648
30343SOL    HW192862   9.813   7.883   3.553
30343SOL    HW292863   9.859   7.951   3.680
30344SOL     OW92864  12.345   6.915   8.430
30344SOL    HW192865  12.399   6.842   8.399
30344SOL    HW292866  12.408   6.978   8.465
30345SOL     OW92867   6.535   7.608   6.983
30345SOL    HW192868   6.484   7.626   7.062
30345SOL    HW292869   6.503   7.672   6.920
30346SOL     OW92870   7.947  14.161   4.666
30346SOL    HW192871   7.963  14.088   4.725
30346SOL    HW292872   8.023  14.161   4.607
30347SOL     OW92873   8.188   3.651   8.654
30347SOL    HW192874   8.170   3.703   8.732
30347SOL    HW292875   8.283   3.639   8.654
30348SOL     OW92876   9.915   8.123   3.702
30348SOL    HW192877   9.977   8.136   3.630
30348SOL    HW292878   9.903   8.211   3.738
30349SOL     OW92879   9.663   4.063   5.419
30349SOL    HW192880   9.621   4.109   5.347
30349SOL    HW292881   9.594   4.047   5.483
30350SOL     OW92882   4.275  10.857  13.628
30350SOL    HW192883   4.217  10.931  13.643
30350SOL    HW292884   4.337  10.860  13.701
30351SOL     OW92885   4.912   6.929   4.806
30351SOL    HW192886   4.907   6.875   4.728
30351SOL    HW292887   4.872   7.013   4.780
30352SOL     OW92888  13.363   3.675   2.861
30352SOL    HW192889  13.347   3.591   2.818
30352SOL    HW292890  13.458   3.687   2.856
30353SOL     OW92891   0.533   3.698  10.671
30353SOL    HW192892   0.479   3.708  10.749
30353SOL    HW292893   0.581   3.616  10.684
30354SOL     OW92894   9.709  14.073  10.780
30354SOL    HW192895   9.786  14.022  10.756
30354SOL    HW292896   9.744  14.158  10.806
30355SOL     OW92897   2.091  13.645   4.607
30355SOL    HW192898   2.052  13.729   4.634
30355SOL    HW292899   2.182  13.666   4.588
30356SOL     OW92900  13.658   6.617   6.507
30356SOL    HW192901  13.714   6.637   6.432
30356SOL    HW292902  13.574   6.659   6.487
30357SOL     OW92903   5.551  13.004   9.028
30357SOL    HW192904   5.528  13.072   8.964
30357SOL    HW292905   5.467  12.966   9.053
30358SOL     OW92906  14.115   7.738   6.542
30358SOL    HW192907  14.124   7.666   6.481
30358SOL    HW292908  14.199   7.741   6.589
30359SOL     OW92909   8.239   5.117  11.850
30359SOL    HW192910   8.295   5.194  11.841
30359SOL    HW292911   8.196   5.108  11.766
30360SOL     OW92912   2.754   6.077   1.387
30360SOL    HW192913   2.717   6.001   1.342
30360SOL    HW292914   2.806   6.039   1.458
30361SOL     OW92915  13.944  11.331   9.328
30361SOL    HW192916  13.931  11.238   9.311
30361SOL    HW292917  13.890  11.376   9.263
30362SOL     OW92918   7.429   1.555  11.905
30362SOL    HW192919   7.384   1.634  11.875
30362SOL    HW292920   7.376   1.483  11.871
30363SOL     OW92921  14.650  12.873  10.386
30363SOL    HW192922  14.630  12.853  10.478
30363SOL    HW292923  14.721  12.812  10.364
30364SOL     OW92924  10.077  14.661   4.542
30364SOL    HW192925  10.025  14.644   4.463
30364SOL    HW292926  10.152  14.603   4.535
30365SOL     OW92927   1.419  12.154  13.178
30365SOL    HW192928   1.479  12.224  13.152
30365SOL    HW292929   1.353  12.198  13.231
30366SOL     OW92930   6.209  13.489   8.676
30366SOL    HW192931   6.147  13.547   8.720
30366SOL    HW292932   6.159  13.409   8.660
30367SOL     OW92933   6.007   6.837   4.768
30367SOL    HW192934   5.951   6.915   4.765
30367SOL    HW292935   6.093   6.869   4.792
30368SOL     OW92936   8.414  10.001   4.686
30368SOL    HW192937   8.461  10.052   4.753
30368SOL    HW292938   8.465  10.014   4.606
30369SOL     OW92939  11.133   6.427   5.810
30369SOL    HW192940  11.058   6.378   5.845
30369SOL    HW292941  11.185   6.361   5.764
30370SOL     OW92942   5.371   5.645   5.562
30370SOL    HW192943   5.321   5.663   5.642
30370SOL    HW292944   5.431   5.719   5.554
30371SOL     OW92945  11.658   6.182  13.452
30371SOL    HW192946  11.670   6.198  13.546
30371SOL    HW292947  11.598   6.108  13.447
30372SOL     OW92948   1.431  12.002   3.527
30372SOL    HW192949   1.395  12.087   3.500
30372SOL    HW292950   1.421  11.946   3.450
30373SOL     OW92951   1.837   3.904  13.179
30373SOL    HW192952   1.772   3.861  13.235
30373SOL    HW292953   1.873   3.834  13.125
30374SOL     OW92954  10.062   0.774  11.704
30374SOL    HW192955  10.147   0.800  11.671
30374SOL    HW292956  10.054   0.817  11.789
30375SOL     OW92957  12.893   8.469   9.447
30375SOL    HW192958  12.905   8.395   9.388
30375SOL    HW292959  12.854   8.431   9.526
30376SOL     OW92960   1.014  13.075   1.633
30376SOL    HW192961   1.029  12.985   1.663
30376SOL    HW292962   1.005  13.067   1.538
30377SOL     OW92963   6.757   7.871   2.006
30377SOL    HW192964   6.777   7.783   1.974
30377SOL    HW292965   6.709   7.913   1.934
30378SOL     OW92966   9.348   1.791   6.433
30378SOL    HW192967   9.347   1.851   6.358
30378SOL    HW292968   9.325   1.706   6.396
30379SOL     OW92969   5.259  10.477   6.677
30379SOL    HW192970   5.227  10.540   6.741
30379SOL    HW292971   5.195  10.406   6.679
30380SOL     OW92972   5.943   2.507   0.148
30380SOL    HW192973   5.924   2.566   0.221
30380SOL    HW292974   6.007   2.555   0.095
30381SOL     OW92975  10.581   3.102  10.725
30381SOL    HW192976  10.546   3.165  10.789
30381SOL    HW292977  10.666   3.139  10.701
30382SOL     OW92978   2.636  11.346   2.922
30382SOL    HW192979   2.551  11.306   2.902
30382SOL    HW292980   2.621  11.398   3.001
30383SOL     OW92981   8.611   9.101   4.356
30383SOL    HW192982   8.541   9.069   4.299
30383SOL    HW292983   8.645   9.179   4.310
30384SOL     OW92984   9.198   5.621   8.159
30384SOL    HW192985   9.138   5.696   8.159
30384SOL    HW292986   9.242   5.626   8.074
30385SOL     OW92987  11.072   0.372   9.273
30385SOL    HW192988  11.061   0.461   9.239
30385SOL    HW292989  11.017   0.370   9.352
30386SOL     OW92990  11.382   3.235   9.809
30386SOL    HW192991  11.315   3.242   9.876
30386SOL    HW292992  11.349   3.168   9.749
30387SOL     OW92993   6.388   0.429  10.577
30387SOL    HW192994   6.386   0.377  10.497
30387SOL    HW292995   6.407   0.518  10.548
30388SOL     OW92996   9.496   0.176   9.476
30388SOL    HW192997   9.579   0.166   9.524
30388SOL    HW292998   9.522   0.174   9.384
30389SOL     OW92999   8.132  14.829   3.824
30389SOL    HW193000   8.133  14.734   3.838
30389SOL    HW293001   8.216  14.859   3.861
30390SOL     OW93002   5.518   0.700   3.207
30390SOL    HW193003   5.552   0.773   3.259
30390SOL    HW293004   5.504   0.737   3.120
30391SOL     OW93005  11.180   9.080   3.532
30391SOL    HW193006  11.268   9.085   3.569
30391SOL    HW293007  11.194   9.077   3.437
30392SOL     OW93008  12.671  14.654  13.075
30392SOL    HW193009  12.659  14.740  13.115
30392SOL    HW293010  12.713  14.673  12.990
30393SOL     OW93011   6.828   9.308   1.675
30393SOL    HW193012   6.909   9.262   1.654
30393SOL    HW293013   6.767   9.284   1.605
30394SOL     OW93014  13.499  11.313  11.030
30394SOL    HW193015  13.513  11.258  10.953
30394SOL    HW293016  13.562  11.281  11.095
30395SOL     OW93017  10.460   4.383   5.027
30395SOL    HW193018  10.394   4.434   4.979
30395SOL    HW293019  10.490   4.441   5.096
30396SOL     OW93020  11.936  12.683  13.178
30396SOL    HW193021  12.025  12.661  13.205
30396SOL    HW293022  11.902  12.602  13.140
30397SOL     OW93023   3.641   7.663   8.005
30397SOL    HW193024   3.647   7.638   8.097
30397SOL    HW293025   3.729   7.694   7.983
30398SOL     OW93026  14.502   4.594   1.093
30398SOL    HW193027  14.423   4.555   1.130
30398SOL    HW293028  14.549   4.629   1.169
30399SOL     OW93029   1.942  13.186  10.380
30399SOL    HW193030   1.918  13.270  10.421
30399SOL    HW293031   1.860  13.137  10.376
30400SOL     OW93032   4.333   5.542  10.013
30400SOL    HW193033   4.416   5.497   9.999
30400SOL    HW293034   4.268   5.488   9.969
30401SOL     OW93035   0.128   6.816   6.552
30401SOL    HW193036   0.187   6.744   6.529
30401SOL    HW293037   0.053   6.774   6.593
30402SOL     OW93038   9.908  12.335   2.285
30402SOL    HW193039   9.860  12.391   2.224
30402SOL    HW293040   9.843  12.310   2.350
30403SOL     OW93041  13.156   6.057   5.667
30403SOL    HW193042  13.176   6.082   5.577
30403SOL    HW293043  13.201   6.122   5.720
30404SOL     OW93044  13.653  13.034   5.062
30404SOL    HW193045  13.741  13.063   5.040
30404SOL    HW293046  13.634  13.077   5.146
30405SOL     OW93047   1.001  14.679  13.153
30405SOL    HW193048   1.068  14.724  13.204
30405SOL    HW293049   0.996  14.730  13.071
30406SOL     OW93050   3.940   6.912   1.621
30406SOL    HW193051   3.999   6.850   1.579
30406SOL    HW293052   3.961   6.906   1.714
30407SOL     OW93053  10.565   1.063   4.966
30407SOL    HW193054  10.595   1.118   5.039
30407SOL    HW293055  10.557   0.976   5.003
30408SOL     OW93056   0.727  10.696   9.177
30408SOL    HW193057   0.760  10.700   9.087
30408SOL    HW293058   0.675  10.616   9.180
30409SOL     OW93059  14.299  14.401   0.558
30409SOL    HW193060  14.268  14.311   0.554
30409SOL    HW293061  14.375  14.403   0.500
30410SOL     OW93062   9.805   5.524   5.974
30410SOL    HW193063   9.875   5.510   5.910
30410SOL    HW293064   9.850   5.519   6.059
30411SOL     OW93065   8.884  12.537   8.291
30411SOL    HW193066   8.913  12.614   8.242
30411SOL    HW293067   8.809  12.567   8.341
30412SOL     OW93068   9.137   5.369   9.206
30412SOL    HW193069   9.056   5.401   9.167
30412SOL    HW293070   9.113   5.345   9.296
30413SOL     OW93071  13.094   5.718  10.588
30413SOL    HW193072  13.100   5.757  10.500
30413SOL    HW293073  13.032   5.645  10.577
30414SOL     OW93074   9.295   2.266   4.905
30414SOL    HW193075   9.211   2.220   4.893
30414SOL    HW293076   9.297   2.286   4.999
30415SOL     OW93077   2.883   9.761   9.015
30415SOL    HW193078   2.947   9.813   9.064
30415SOL    HW293079   2.866   9.686   9.071
30416SOL     OW93080   8.350   5.460  10.398
30416SOL    HW193081   8.357   5.364  10.398
30416SOL    HW293082   8.256   5.477  10.396
30417SOL     OW93083   6.882  11.804   3.109
30417SOL    HW193084   6.802  11.760   3.136
30417SOL    HW293085   6.920  11.838   3.190
30418SOL     OW93086   9.715  14.800   3.955
30418SOL    HW193087   9.662  14.728   3.921
30418SOL    HW293088   9.798  14.759   3.981
30419SOL     OW93089  14.840  12.094  13.426
30419SOL    HW193090  14.848  12.032  13.353
30419SOL    HW293091  14.768  12.060  13.479
30420SOL     OW93092  11.087   0.397   5.259
30420SOL    HW193093  11.047   0.317   5.225
30420SOL    HW293094  11.044   0.411   5.344
30421SOL     OW93095   9.474   1.929  10.406
30421SOL    HW193096   9.482   1.907  10.313
30421SOL    HW293097   9.528   2.008  10.417
30422SOL     OW93098   0.617   9.630  14.339
30422SOL    HW193099   0.575   9.694  14.282
30422SOL    HW293100   0.702   9.614  14.298
30423SOL     OW93101   3.651  13.935   7.175
30423SOL    HW193102   3.716  13.866   7.162
30423SOL    HW293103   3.606  13.910   7.257
30424SOL     OW93104   5.691   3.138   3.733
30424SOL    HW193105   5.782   3.167   3.733
30424SOL    HW293106   5.662   3.149   3.642
30425SOL     OW93107  13.652   7.826   6.766
30425SOL    HW193108  13.625   7.796   6.680
30425SOL    HW293109  13.710   7.900   6.749
30426SOL     OW93110   9.585   1.310   8.331
30426SOL    HW193111   9.520   1.352   8.275
30426SOL    HW293112   9.648   1.379   8.351
30427SOL     OW93113   8.913  13.022   6.368
30427SOL    HW193114   8.992  13.037   6.316
30427SOL    HW293115   8.860  12.962   6.314
30428SOL     OW93116   4.087   3.700  13.202
30428SOL    HW193117   4.150   3.772  13.195
30428SOL    HW293118   4.042   3.717  13.285
30429SOL     OW93119   2.816   2.104   7.574
30429SOL    HW193120   2.856   2.190   7.560
30429SOL    HW293121   2.761   2.090   7.498
30430SOL     OW93122  14.306   1.599   8.248
30430SOL    HW193123  14.271   1.533   8.189
30430SOL    HW293124  14.279   1.572   8.335
30431SOL     OW93125   2.606   8.422   9.849
30431SOL    HW193126   2.578   8.433   9.940
30431SOL    HW293127   2.525   8.404   9.801
30432SOL     OW93128  14.041   1.981   0.673
30432SOL    HW193129  14.101   1.910   0.696
30432SOL    HW293130  13.996   1.951   0.594
30433SOL     OW93131  12.496  12.647   6.543
30433SOL    HW193132  12.488  12.740   6.563
30433SOL    HW293133  12.578  12.639   6.494
30434SOL     OW93134  12.719   0.396   3.123
30434SOL    HW193135  12.690   0.329   3.184
30434SOL    HW293136  12.658   0.391   3.050
30435SOL     OW93137   1.280  13.206   4.620
30435SOL    HW193138   1.276  13.142   4.691
30435SOL    HW293139   1.334  13.163   4.553
30436SOL     OW93140  11.210   1.958   7.177
30436SOL    HW193141  11.124   1.998   7.168
30436SOL    HW293142  11.236   1.935   7.088
30437SOL     OW93143   3.239   3.300   8.589
30437SOL    HW193144   3.305   3.363   8.562
30437SOL    HW293145   3.162   3.353   8.608
30438SOL     OW93146   9.408   1.731  14.235
30438SOL    HW193147   9.325   1.742  14.189
30438SOL    HW293148   9.445   1.819  14.240
30439SOL     OW93149   8.797   1.688   1.954
30439SOL    HW193150   8.787   1.783   1.943
30439SOL    HW293151   8.722   1.663   2.008
30440SOL     OW93152   2.804   6.299   7.995
30440SOL    HW193153   2.787   6.221   8.046
30440SOL    HW293154   2.849   6.267   7.917
30441SOL     OW93155  14.619   1.576  14.771
30441SOL    HW193156  14.636   1.482  14.765
30441SOL    HW293157  14.698   1.612  14.813
30442SOL     OW93158   6.926  13.010   0.308
30442SOL    HW193159   6.885  12.926   0.288
30442SOL    HW293160   6.899  13.067   0.236
30443SOL     OW93161  10.673  14.472   0.485
30443SOL    HW193162  10.634  14.452   0.400
30443SOL    HW293163  10.598  14.489   0.542
30444SOL     OW93164   7.752   0.771   4.915
30444SOL    HW193165   7.759   0.747   4.823
30444SOL    HW293166   7.834   0.742   4.954
30445SOL     OW93167   1.601   4.048  11.526
30445SOL    HW193168   1.673   4.029  11.586
30445SOL    HW293169   1.605   4.143  11.513
30446SOL     OW93170  13.905   8.317  10.868
30446SOL    HW193171  13.858   8.267  10.801
30446SOL    HW293172  13.996   8.316  10.838
30447SOL     OW93173   9.872  13.570   7.762
30447SOL    HW193174   9.826  13.492   7.731
30447SOL    HW293175   9.821  13.644   7.728
30448SOL     OW93176  14.512  11.445   9.194
30448SOL    HW193177  14.473  11.532   9.193
30448SOL    HW293178  14.554  11.438   9.280
30449SOL     OW93179   2.803  11.970  13.180
30449SOL    HW193180   2.736  12.019  13.133
30449SOL    HW293181   2.886  12.001  13.141
30450SOL     OW93182  13.231   3.161   9.294
30450SOL    HW193183  13.155   3.135   9.345
30450SOL    HW293184  13.194   3.210   9.220
30451SOL     OW93185   4.980   1.578   5.669
30451SOL    HW193186   5.069   1.608   5.685
30451SOL    HW293187   4.966   1.508   5.732
30452SOL     OW93188   2.479  10.598  14.037
30452SOL    HW193189   2.385  10.615  14.039
30452SOL    HW293190   2.518  10.678  14.002
30453SOL     OW93191   0.926  12.474   8.542
30453SOL    HW193192   0.895  12.426   8.466
30453SOL    HW293193   1.008  12.514   8.513
30454SOL     OW93194   6.060  14.646  14.685
30454SOL    HW193195   6.089  14.687  14.767
30454SOL    HW293196   5.968  14.623  14.701
30455SOL     OW93197  14.568   2.114  10.749
30455SOL    HW193198  14.585   2.140  10.658
30455SOL    HW293199  14.472   2.106  10.754
30456SOL     OW93200   7.977   2.111  11.835
30456SOL    HW193201   8.009   2.063  11.758
30456SOL    HW293202   7.929   2.185  11.798
30457SOL     OW93203   8.512  11.316   8.234
30457SOL    HW193204   8.431  11.279   8.199
30457SOL    HW293205   8.535  11.260   8.308
30458SOL     OW93206  13.933  11.187   0.944
30458SOL    HW193207  14.005  11.219   0.999
30458SOL    HW293208  13.912  11.261   0.887
30459SOL     OW93209  14.221  11.127   5.861
30459SOL    HW193210  14.135  11.133   5.819
30459SOL    HW293211  14.201  11.109   5.953
30460SOL     OW93212  11.243  11.785   4.833
30460SOL    HW193213  11.239  11.694   4.804
30460SOL    HW293214  11.337  11.805   4.837
30461SOL     OW93215   6.714   7.163  11.863
30461SOL    HW193216   6.642   7.112  11.827
30461SOL    HW293217   6.731   7.230  11.797
30462SOL     OW93218   8.534   8.879   2.500
30462SOL    HW193219   8.467   8.931   2.456
30462SOL    HW293220   8.506   8.876   2.591
30463SOL     OW93221   4.716  14.816   5.634
30463SOL    HW193222   4.638  14.770   5.665
30463SOL    HW293223   4.725  14.788   5.543
30464SOL     OW93224   9.527  10.581   2.683
30464SOL    HW193225   9.526  10.486   2.693
30464SOL    HW293226   9.568  10.595   2.598
30465SOL     OW93227   4.896   1.280  13.092
30465SOL    HW193228   4.831   1.212  13.110
30465SOL    HW293229   4.851   1.344  13.037
30466SOL     OW93230   3.138  11.860   0.930
30466SOL    HW193231   3.200  11.786   0.930
30466SOL    HW293232   3.172  11.919   0.997
30467SOL     OW93233   0.317  12.862   0.288
30467SOL    HW193234   0.297  12.942   0.337
30467SOL    HW293235   0.309  12.888   0.196
30468SOL     OW93236  12.918   6.907   4.720
30468SOL    HW193237  12.990   6.951   4.676
30468SOL    HW293238  12.952   6.889   4.808
30469SOL     OW93239   1.796   5.261  12.106
30469SOL    HW193240   1.842   5.178  12.119
30469SOL    HW293241   1.773   5.261  12.013
30470SOL     OW93242   7.354  12.680   6.947
30470SOL    HW193243   7.409  12.603   6.957
30470SOL    HW293244   7.273  12.657   6.992
30471SOL     OW93245   2.686   8.566  14.659
30471SOL    HW193246   2.679   8.501  14.728
30471SOL    HW293247   2.646   8.645  14.697
30472SOL     OW93248   2.158   5.180   3.899
30472SOL    HW193249   2.146   5.086   3.914
30472SOL    HW293250   2.070   5.216   3.895
30473SOL     OW93251   9.473  12.050   3.212
30473SOL    HW193252   9.465  12.126   3.269
30473SOL    HW293253   9.420  12.072   3.135
30474SOL     OW93254   5.441   6.837  14.147
30474SOL    HW193255   5.353   6.815  14.178
30474SOL    HW293256   5.445   6.802  14.058
30475SOL     OW93257   0.933   1.837  11.475
30475SOL    HW193258   0.927   1.931  11.455
30475SOL    HW293259   0.846   1.803  11.454
30476SOL     OW93260   4.850   2.026   6.136
30476SOL    HW193261   4.781   2.029   6.202
30476SOL    HW293262   4.921   1.977   6.178
30477SOL     OW93263  14.655  14.103   3.455
30477SOL    HW193264  14.642  14.186   3.501
30477SOL    HW293265  14.566  14.069   3.441
30478SOL     OW93266  13.959  10.181  14.256
30478SOL    HW193267  13.887  10.233  14.219
30478SOL    HW293268  14.010  10.244  14.307
30479SOL     OW93269   7.991   4.348  11.589
30479SOL    HW193270   7.976   4.443  11.594
30479SOL    HW293271   8.021   4.334  11.499
30480SOL     OW93272  11.324   5.339   5.410
30480SOL    HW193273  11.376   5.330   5.330
30480SOL    HW293274  11.243   5.290   5.392
30481SOL     OW93275  10.313   3.868   4.488
30481SOL    HW193276  10.377   3.818   4.438
30481SOL    HW293277  10.280   3.933   4.426
30482SOL     OW93278   7.314   8.127  10.948
30482SOL    HW193279   7.313   8.195  10.881
30482SOL    HW293280   7.373   8.060  10.913
30483SOL     OW93281  14.817   0.646   3.474
30483SOL    HW193282   0.004   0.577   3.480
30483SOL    HW293283  14.835   0.703   3.549
30484SOL     OW93284   1.735   4.160   6.470
30484SOL    HW193285   1.639   4.167   6.468
30484SOL    HW293286   1.752   4.066   6.477
30485SOL     OW93287   3.789  10.935  13.666
30485SOL    HW193288   3.739  10.998  13.613
30485SOL    HW293289   3.786  10.854  13.616
30486SOL     OW93290  13.434  14.234   8.726
30486SOL    HW193291  13.527  14.250   8.741
30486SOL    HW293292  13.402  14.198   8.809
30487SOL     OW93293   6.032  12.172   6.711
30487SOL    HW193294   6.089  12.108   6.667
30487SOL    HW293295   6.072  12.184   6.797
30488SOL     OW93296   4.974   3.517   3.813
30488SOL    HW193297   4.950   3.494   3.903
30488SOL    HW293298   4.958   3.437   3.763
30489SOL     OW93299   9.647   2.687   0.594
30489SOL    HW193300   9.686   2.754   0.538
30489SOL    HW293301   9.569   2.658   0.546
30490SOL     OW93302  13.982   6.469   7.078
30490SOL    HW193303  13.939   6.410   7.016
30490SOL    HW293304  13.918   6.479   7.149
30491SOL     OW93305   0.792   0.036   1.659
30491SOL    HW193306   0.815  14.822   1.659
30491SOL    HW293307   0.697   0.038   1.670
30492SOL     OW93308   5.807   3.118   4.048
30492SOL    HW193309   5.771   3.037   4.013
30492SOL    HW293310   5.898   3.118   4.020
30493SOL     OW93311   3.201   3.082   8.399
30493SOL    HW193312   3.235   2.995   8.422
30493SOL    HW293313   3.237   3.140   8.466
30494SOL     OW93314  14.651   5.345   3.766
30494SOL    HW193315  14.564   5.354   3.807
30494SOL    HW293316  14.699   5.422   3.794
30495SOL     OW93317   1.253   0.617   9.515
30495SOL    HW193318   1.229   0.666   9.436
30495SOL    HW293319   1.317   0.673   9.559
30496SOL     OW93320   8.295   2.762   9.767
30496SOL    HW193321   8.199   2.758   9.774
30496SOL    HW293322   8.314   2.856   9.764
30497SOL     OW93323   8.500  12.697  11.269
30497SOL    HW193324   8.494  12.605  11.293
30497SOL    HW293325   8.462  12.703  11.182
30498SOL     OW93326  10.093   4.623   3.987
30498SOL    HW193327  10.103   4.713   4.020
30498SOL    HW293328  10.051   4.634   3.902
30499SOL     OW93329   1.856   1.851   4.697
30499SOL    HW193330   1.878   1.885   4.784
30499SOL    HW293331   1.896   1.913   4.636
30500SOL     OW93332  10.468  14.305   1.472
30500SOL    HW193333  10.407  14.233   1.487
30500SOL    HW293334  10.453  14.365   1.545
30501SOL     OW93335   5.872  14.869   7.827
30501SOL    HW193336   5.865   0.053   7.755
30501SOL    HW293337   5.950   0.018   7.875
30502SOL     OW93338   9.098   4.313   2.496
30502SOL    HW193339   9.107   4.382   2.562
30502SOL    HW293340   9.188   4.296   2.467
30503SOL     OW93341  11.291   2.595   2.314
30503SOL    HW193342  11.313   2.597   2.221
30503SOL    HW293343  11.375   2.600   2.359
30504SOL     OW93344  14.675  14.549   1.004
30504SOL    HW193345  14.654  14.457   0.989
30504SOL    HW293346  14.623  14.597   0.940
30505SOL     OW93347   4.330   6.560   4.059
30505SOL    HW193348   4.377   6.477   4.073
30505SOL    HW293349   4.267   6.541   3.990
30506SOL     OW93350   8.248  12.417   7.390
30506SOL    HW193351   8.329  12.464   7.369
30506SOL    HW293352   8.178  12.478   7.365
30507SOL     OW93353   8.053   4.077   9.787
30507SOL    HW193354   8.140   4.048   9.758
30507SOL    HW293355   8.009   4.104   9.707
30508SOL     OW93356   5.517  11.473   3.899
30508SOL    HW193357   5.529  11.487   3.993
30508SOL    HW293358   5.600  11.436   3.869
30509SOL     OW93359  14.427   3.206  12.603
30509SOL    HW193360  14.374   3.260  12.544
30509SOL    HW293361  14.503   3.180  12.550
30510SOL     OW93362  14.104   1.433   3.192
30510SOL    HW193363  14.130   1.358   3.138
30510SOL    HW293364  14.187   1.470   3.222
30511SOL     OW93365  10.989   5.793  10.876
30511SOL    HW193366  10.950   5.743  10.947
30511SOL    HW293367  11.082   5.793  10.894
30512SOL     OW93368   9.603   3.287  11.861
30512SOL    HW193369   9.532   3.350  11.870
30512SOL    HW293370   9.682   3.340  11.854
30513SOL     OW93371  11.642  11.096  11.422
30513SOL    HW193372  11.579  11.151  11.468
30513SOL    HW293373  11.588  11.028  11.381
30514SOL     OW93374  12.336   0.782   5.856
30514SOL    HW193375  12.307   0.804   5.945
30514SOL    HW293376  12.430   0.767   5.864
30515SOL     OW93377   2.758   5.982   0.142
30515SOL    HW193378   2.708   6.026   0.073
30515SOL    HW293379   2.798   5.907   0.099
30516SOL     OW93380  14.778   4.408   1.986
30516SOL    HW193381  14.715   4.386   2.055
30516SOL    HW293382  14.862   4.374   2.018
30517SOL     OW93383   1.396   3.097   6.388
30517SOL    HW193384   1.445   3.102   6.470
30517SOL    HW293385   1.455   3.051   6.328
30518SOL     OW93386   2.448   6.972  12.423
30518SOL    HW193387   2.540   7.000  12.427
30518SOL    HW293388   2.446   6.891  12.474
30519SOL     OW93389  11.945   7.658   9.793
30519SOL    HW193390  12.040   7.663   9.793
30519SOL    HW293391  11.922   7.634   9.703
30520SOL     OW93392   7.634   1.946   6.394
30520SOL    HW193393   7.634   1.853   6.416
30520SOL    HW293394   7.564   1.984   6.447
30521SOL     OW93395  13.055  13.981   6.220
30521SOL    HW193396  12.988  14.040   6.255
30521SOL    HW293397  13.063  13.912   6.285
30522SOL     OW93398  11.898   2.348  13.758
30522SOL    HW193399  11.900   2.259  13.723
30522SOL    HW293400  11.990   2.374  13.763
30523SOL     OW93401  13.244  14.780  11.473
30523SOL    HW193402  13.161  14.760  11.430
30523SOL    HW293403  13.303  14.710  11.445
30524SOL     OW93404  13.289  11.093  14.261
30524SOL    HW193405  13.382  11.112  14.266
30524SOL    HW293406  13.252  11.134  14.339
30525SOL     OW93407  11.753  13.343   3.618
30525SOL    HW193408  11.696  13.286   3.671
30525SOL    HW293409  11.787  13.285   3.549
30526SOL     OW93410   4.606   5.283   7.019
30526SOL    HW193411   4.622   5.241   7.103
30526SOL    HW293412   4.566   5.214   6.965
30527SOL     OW93413   2.168  10.593   2.991
30527SOL    HW193414   2.258  10.583   2.959
30527SOL    HW293415   2.162  10.686   3.016
30528SOL     OW93416   4.066   9.903  14.406
30528SOL    HW193417   4.149   9.886  14.450
30528SOL    HW293418   4.034   9.985  14.444
30529SOL     OW93419   8.077  10.132   2.992
30529SOL    HW193420   8.049  10.220   2.968
30529SOL    HW293421   8.148  10.144   3.053
30530SOL     OW93422   6.826   9.154   1.045
30530SOL    HW193423   6.876   9.082   1.084
30530SOL    HW293424   6.778   9.114   0.973
30531SOL     OW93425   3.756   7.618   5.436
30531SOL    HW193426   3.833   7.653   5.391
30531SOL    HW293427   3.765   7.523   5.430
30532SOL     OW93428   4.732   0.941   5.932
30532SOL    HW193429   4.709   0.894   5.852
30532SOL    HW293430   4.654   0.933   5.987
30533SOL     OW93431   9.441  11.202   5.747
30533SOL    HW193432   9.435  11.243   5.833
30533SOL    HW293433   9.417  11.271   5.686
30534SOL     OW93434  11.693   0.558   5.322
30534SOL    HW193435  11.640   0.539   5.400
30534SOL    HW293436  11.629   0.566   5.251
30535SOL     OW93437   4.521   8.194   8.791
30535SOL    HW193438   4.578   8.269   8.809
30535SOL    HW293439   4.581   8.123   8.767
30536SOL     OW93440   8.218   5.841  11.051
30536SOL    HW193441   8.160   5.859  10.977
30536SOL    HW293442   8.254   5.927  11.075
30537SOL     OW93443  11.665   9.736   9.145
30537SOL    HW193444  11.579   9.774   9.166
30537SOL    HW293445  11.644   9.661   9.089
30538SOL     OW93446   6.859   7.212   8.013
30538SOL    HW193447   6.892   7.278   8.073
30538SOL    HW293448   6.938   7.165   7.984
30539SOL     OW93449   4.153   7.153  11.453
30539SOL    HW193450   4.125   7.062  11.464
30539SOL    HW293451   4.234   7.147  11.403
30540SOL     OW93452  11.721   5.996   5.543
30540SOL    HW193453  11.721   5.903   5.566
30540SOL    HW293454  11.628   6.021   5.546
30541SOL     OW93455   1.362   7.444   3.459
30541SOL    HW193456   1.371   7.483   3.546
30541SOL    HW293457   1.322   7.358   3.475
30542SOL     OW93458   9.342   7.499   8.809
30542SOL    HW193459   9.299   7.539   8.733
30542SOL    HW293460   9.426   7.469   8.775
30543SOL     OW93461   4.001   9.820  13.703
30543SOL    HW193462   4.057   9.854  13.633
30543SOL    HW293463   4.063   9.782  13.766
30544SOL     OW93464  13.425  10.565  12.284
30544SOL    HW193465  13.486  10.622  12.238
30544SOL    HW293466  13.448  10.477  12.255
30545SOL     OW93467  12.741  12.252   6.456
30545SOL    HW193468  12.763  12.240   6.548
30545SOL    HW293469  12.648  12.233   6.450
30546SOL     OW93470  10.267   5.970   1.169
30546SOL    HW193471  10.322   6.048   1.173
30546SOL    HW293472  10.180   6.001   1.197
30547SOL     OW93473  11.447   9.993  12.646
30547SOL    HW193474  11.372   9.943  12.678
30547SOL    HW293475  11.436   9.995  12.551
30548SOL     OW93476   4.914   9.402  14.246
30548SOL    HW193477   4.832   9.391  14.293
30548SOL    HW293478   4.978   9.424  14.315
30549SOL     OW93479  10.668   3.940   2.919
30549SOL    HW193480  10.757   3.947   2.952
30549SOL    HW293481  10.614   3.982   2.985
30550SOL     OW93482   5.007  10.951   0.640
30550SOL    HW193483   5.090  10.938   0.595
30550SOL    HW293484   4.954  11.003   0.580
30551SOL     OW93485  12.751   7.836  10.957
30551SOL    HW193486  12.823   7.795  11.005
30551SOL    HW293487  12.778   7.833  10.865
30552SOL     OW93488   1.233  10.345   7.893
30552SOL    HW193489   1.182  10.315   7.968
30552SOL    HW293490   1.172  10.339   7.819
30553SOL     OW93491   4.788  11.436   4.009
30553SOL    HW193492   4.852  11.500   3.977
30553SOL    HW293493   4.740  11.483   4.077
30554SOL     OW93494   1.359   9.855   9.980
30554SOL    HW193495   1.292   9.816  10.035
30554SOL    HW293496   1.381   9.938  10.023
30555SOL     OW93497   9.148  14.626   9.013
30555SOL    HW193498   9.166  14.533   9.021
30555SOL    HW293499   9.102  14.649   9.093
30556SOL     OW93500   1.998   5.100   4.197
30556SOL    HW193501   1.917   5.095   4.146
30556SOL    HW293502   2.003   5.191   4.226
30557SOL     OW93503   6.964   0.318  13.178
30557SOL    HW193504   6.980   0.338  13.271
30557SOL    HW293505   6.879   0.276  13.177
30558SOL     OW93506   0.274   7.187   6.086
30558SOL    HW193507   0.305   7.277   6.075
30558SOL    HW293508   0.244   7.183   6.177
30559SOL     OW93509   7.869   3.604   5.229
30559SOL    HW193510   7.848   3.514   5.257
30559SOL    HW293511   7.964   3.610   5.237
30560SOL     OW93512   0.106  10.682   9.197
30560SOL    HW193513   0.121  10.744   9.126
30560SOL    HW293514   0.192  10.671   9.238
30561SOL     OW93515   9.643  10.857  10.519
30561SOL    HW193516   9.609  10.941  10.552
30561SOL    HW293517   9.734  10.876  10.495
30562SOL     OW93518  13.488   2.096   2.157
30562SOL    HW193519  13.522   2.078   2.070
30562SOL    HW293520  13.416   2.159   2.143
30563SOL     OW93521   8.072   1.907   2.047
30563SOL    HW193522   8.131   1.831   2.039
30563SOL    HW293523   7.984   1.871   2.039
30564SOL     OW93524   7.374   2.414   6.122
30564SOL    HW193525   7.287   2.386   6.151
30564SOL    HW293526   7.372   2.509   6.128
30565SOL     OW93527  10.579  13.638   1.224
30565SOL    HW193528  10.519  13.700   1.183
30565SOL    HW293529  10.523  13.584   1.280
30566SOL     OW93530   1.174   4.488  13.096
30566SOL    HW193531   1.240   4.459  13.158
30566SOL    HW293532   1.218   4.486  13.011
30567SOL     OW93533   9.108  11.967  13.916
30567SOL    HW193534   9.140  11.880  13.939
30567SOL    HW293535   9.170  12.027  13.955
30568SOL     OW93536  11.048  10.151   0.519
30568SOL    HW193537  11.123  10.134   0.462
30568SOL    HW293538  11.077  10.124   0.606
30569SOL     OW93539  11.022  14.045   7.008
30569SOL    HW193540  11.001  14.010   7.094
30569SOL    HW293541  11.108  14.086   7.019
30570SOL     OW93542   4.895   1.721   8.236
30570SOL    HW193543   4.953   1.798   8.232
30570SOL    HW293544   4.807   1.757   8.236
30571SOL     OW93545   6.228  13.464  10.537
30571SOL    HW193546   6.181  13.520  10.475
30571SOL    HW293547   6.172  13.462  10.614
30572SOL     OW93548   7.475   1.658  11.028
30572SOL    HW193549   7.449   1.739  10.985
30572SOL    HW293550   7.530   1.686  11.101
30573SOL     OW93551   1.462   8.056   6.175
30573SOL    HW193552   1.554   8.061   6.200
30573SOL    HW293553   1.417   8.110   6.241
30574SOL     OW93554   1.712  13.214  12.639
30574SOL    HW193555   1.661  13.268  12.698
30574SOL    HW293556   1.682  13.124  12.656
30575SOL     OW93557   5.690  12.983   4.062
30575SOL    HW193558   5.679  12.893   4.030
30575SOL    HW293559   5.608  13.027   4.039
30576SOL     OW93560  12.659   5.920   0.588
30576SOL    HW193561  12.606   5.975   0.645
30576SOL    HW293562  12.631   5.944   0.499
30577SOL     OW93563   9.484   2.862  11.771
30577SOL    HW193564   9.542   2.806  11.822
30577SOL    HW293565   9.407   2.808  11.754
30578SOL     OW93566   7.088  12.293   1.088
30578SOL    HW193567   6.997  12.312   1.113
30578SOL    HW293568   7.116  12.370   1.038
30579SOL     OW93569  10.779  12.539   5.929
30579SOL    HW193570  10.784  12.451   5.894
30579SOL    HW293571  10.845  12.589   5.881
30580SOL     OW93572  10.937   3.328   4.342
30580SOL    HW193573  10.927   3.409   4.391
30580SOL    HW293574  10.902   3.260   4.399
30581SOL     OW93575  11.450   4.384   6.922
30581SOL    HW193576  11.377   4.385   6.861
30581SOL    HW293577  11.471   4.291   6.933
30582SOL     OW93578   0.260   0.776   5.602
30582SOL    HW193579   0.290   0.702   5.548
30582SOL    HW293580   0.261   0.851   5.543
30583SOL     OW93581  13.336  12.713  11.828
30583SOL    HW193582  13.393  12.649  11.872
30583SOL    HW293583  13.383  12.796  11.837
30584SOL     OW93584   8.497  11.065   6.693
30584SOL    HW193585   8.528  11.014   6.768
30584SOL    HW293586   8.534  11.152   6.706
30585SOL     OW93587  11.539   0.378   8.410
30585SOL    HW193588  11.518   0.453   8.466
30585SOL    HW293589  11.515   0.301   8.463
30586SOL     OW93590  12.970  12.055   2.857
30586SOL    HW193591  13.032  12.039   2.928
30586SOL    HW293592  12.890  12.084   2.902
30587SOL     OW93593   0.517  12.546   2.552
30587SOL    HW193594   0.509  12.598   2.472
30587SOL    HW293595   0.500  12.607   2.623
30588SOL     OW93596   8.110   9.247  13.299
30588SOL    HW193597   8.145   9.205  13.220
30588SOL    HW293598   8.081   9.174  13.354
30589SOL     OW93599  14.205  10.018  10.243
30589SOL    HW193600  14.158  10.100  10.258
30589SOL    HW293601  14.281  10.023  10.301
30590SOL     OW93602  14.844   2.149   7.964
30590SOL    HW193603  14.802   2.199   8.035
30590SOL    HW293604  14.866   2.065   8.004
30591SOL     OW93605   5.505   5.312   4.364
30591SOL    HW193606   5.529   5.365   4.440
30591SOL    HW293607   5.588   5.275   4.333
30592SOL     OW93608   5.204  12.062  11.377
30592SOL    HW193609   5.207  12.087  11.469
30592SOL    HW293610   5.240  12.137  11.331
30593SOL     OW93611   8.153   5.678   4.881
30593SOL    HW193612   8.202   5.659   4.801
30593SOL    HW293613   8.062   5.681   4.853
30594SOL     OW93614   7.890   6.737  13.831
30594SOL    HW193615   7.974   6.712  13.794
30594SOL    HW293616   7.912   6.791  13.907
30595SOL     OW93617  12.485  10.975   3.360
30595SOL    HW193618  12.441  11.042   3.307
30595SOL    HW293619  12.567  11.017   3.388
30596SOL     OW93620   2.593   0.845  12.867
30596SOL    HW193621   2.593   0.928  12.819
30596SOL    HW293622   2.540   0.786  12.813
30597SOL     OW93623   2.418   8.504   4.853
30597SOL    HW193624   2.342   8.541   4.808
30597SOL    HW293625   2.427   8.556   4.932
30598SOL     OW93626  13.167  11.247   3.110
30598SOL    HW193627  13.178  11.269   3.203
30598SOL    HW293628  13.171  11.151   3.108
30599SOL     OW93629   4.441  11.004   7.274
30599SOL    HW193630   4.511  10.995   7.209
30599SOL    HW293631   4.382  10.931   7.256
30600SOL     OW93632   0.090   6.216   7.793
30600SOL    HW193633   0.052   6.301   7.772
30600SOL    HW293634   0.123   6.183   7.710
30601SOL     OW93635  10.668   0.805  10.184
30601SOL    HW193636  10.640   0.891  10.216
30601SOL    HW293637  10.674   0.750  10.262
30602SOL     OW93638   3.105   5.177  13.037
30602SOL    HW193639   3.158   5.136  12.968
30602SOL    HW293640   3.165   5.186  13.111
30603SOL     OW93641  12.039  13.661  14.483
30603SOL    HW193642  12.085  13.739  14.514
30603SOL    HW293643  12.106  13.609  14.439
30604SOL     OW93644  10.176   4.986   5.910
30604SOL    HW193645  10.195   5.070   5.870
30604SOL    HW293646  10.136   4.934   5.839
30605SOL     OW93647  10.830   7.897   8.694
30605SOL    HW193648  10.889   7.922   8.622
30605SOL    HW293649  10.848   7.805   8.710
30606SOL     OW93650  11.031   8.765  13.923
30606SOL    HW193651  11.039   8.821  14.000
30606SOL    HW293652  10.998   8.682  13.957
30607SOL     OW93653  11.513   4.287   7.838
30607SOL    HW193654  11.535   4.239   7.919
30607SOL    HW293655  11.538   4.377   7.856
30608SOL     OW93656   0.629   2.160  13.082
30608SOL    HW193657   0.699   2.224  13.067
30608SOL    HW293658   0.581   2.195  13.157
30609SOL     OW93659   2.541  10.376  10.844
30609SOL    HW193660   2.573  10.451  10.793
30609SOL    HW293661   2.617  10.348  10.895
30610SOL     OW93662   8.520   2.213  10.946
30610SOL    HW193663   8.476   2.292  10.977
30610SOL    HW293664   8.609   2.242  10.926
30611SOL     OW93665  12.477   0.996   9.790
30611SOL    HW193666  12.415   0.929   9.819
30611SOL    HW293667  12.523   0.956   9.716
30612SOL     OW93668   9.408   2.854   6.313
30612SOL    HW193669   9.416   2.885   6.403
30612SOL    HW293670   9.498   2.852   6.280
30613SOL     OW93671   5.660   9.162   9.076
30613SOL    HW193672   5.736   9.103   9.074
30613SOL    HW293673   5.627   9.156   9.165
30614SOL     OW93674   8.469   2.567   3.881
30614SOL    HW193675   8.474   2.632   3.811
30614SOL    HW293676   8.509   2.610   3.956
30615SOL     OW93677  13.178  12.603  13.527
30615SOL    HW193678  13.135  12.518  13.521
30615SOL    HW293679  13.201  12.625  13.436
30616SOL     OW93680   3.952   7.271   3.402
30616SOL    HW193681   3.970   7.353   3.356
30616SOL    HW293682   3.958   7.204   3.334
30617SOL     OW93683   7.731   1.093   0.363
30617SOL    HW193684   7.742   1.187   0.375
30617SOL    HW293685   7.818   1.056   0.374
30618SOL     OW93686   1.821   8.345   1.906
30618SOL    HW193687   1.745   8.332   1.849
30618SOL    HW293688   1.895   8.347   1.846
30619SOL     OW93689   9.297   2.856  10.416
30619SOL    HW193690   9.318   2.818  10.331
30619SOL    HW293691   9.263   2.782  10.468
30620SOL     OW93692   9.263   4.219  13.805
30620SOL    HW193693   9.249   4.227  13.711
30620SOL    HW293694   9.204   4.149  13.833
30621SOL     OW93695   9.271  12.312   7.406
30621SOL    HW193696   9.220  12.340   7.331
30621SOL    HW293697   9.205  12.292   7.473
30622SOL     OW93698  10.592  12.093   8.337
30622SOL    HW193699  10.513  12.070   8.386
30622SOL    HW293700  10.657  12.115   8.405
30623SOL     OW93701   8.808   2.956  11.138
30623SOL    HW193702   8.760   2.904  11.073
30623SOL    HW293703   8.894   2.969  11.099
30624SOL     OW93704   7.060   5.821  11.041
30624SOL    HW193705   7.030   5.911  11.053
30624SOL    HW293706   6.997   5.767  11.088
30625SOL     OW93707  12.191   7.437   4.792
30625SOL    HW193708  12.205   7.378   4.866
30625SOL    HW293709  12.253   7.406   4.726
30626SOL     OW93710   1.122   6.929   8.759
30626SOL    HW193711   1.055   6.861   8.768
30626SOL    HW293712   1.074   7.007   8.732
30627SOL     OW93713   1.081  12.107  10.822
30627SOL    HW193714   1.037  12.188  10.795
30627SOL    HW293715   1.076  12.050  10.746
30628SOL     OW93716   3.850   6.626   1.201
30628SOL    HW193717   3.755   6.627   1.192
30628SOL    HW293718   3.882   6.586   1.120
30629SOL     OW93719   0.273  11.077  13.174
30629SOL    HW193720   0.235  11.059  13.089
30629SOL    HW293721   0.325  11.156  13.162
30630SOL     OW93722   1.134  10.442  12.591
30630SOL    HW193723   1.190  10.501  12.641
30630SOL    HW293724   1.057  10.495  12.569
30631SOL     OW93725   6.112   1.474   6.483
30631SOL    HW193726   6.072   1.474   6.570
30631SOL    HW293727   6.157   1.558   6.477
30632SOL     OW93728  12.068   9.641   4.232
30632SOL    HW193729  12.149   9.639   4.283
30632SOL    HW293730  12.043   9.549   4.224
30633SOL     OW93731  10.492   1.286  10.247
30633SOL    HW193732  10.503   1.317  10.157
30633SOL    HW293733  10.408   1.322  10.274
30634SOL     OW93734   4.646  13.824  13.548
30634SOL    HW193735   4.644  13.897  13.486
30634SOL    HW293736   4.667  13.864  13.632
30635SOL     OW93737   4.067   4.801   9.449
30635SOL    HW193738   4.056   4.722   9.395
30635SOL    HW293739   4.034   4.775   9.535
30636SOL     OW93740   5.979   8.202   1.789
30636SOL    HW193741   5.959   8.119   1.832
30636SOL    HW293742   5.899   8.253   1.795
30637SOL     OW93743   9.892   1.535   9.707
30637SOL    HW193744   9.942   1.526   9.626
30637SOL    HW293745   9.922   1.619   9.744
30638SOL     OW93746   5.720   6.977   5.348
30638SOL    HW193747   5.633   7.008   5.322
30638SOL    HW293748   5.768   7.056   5.371
30639SOL     OW93749   9.277   3.980  10.155
30639SOL    HW193750   9.304   3.978  10.247
30639SOL    HW293751   9.303   3.895  10.121
30640SOL     OW93752   8.225   4.149   0.632
30640SOL    HW193753   8.135   4.175   0.650
30640SOL    HW293754   8.239   4.073   0.688
30641SOL     OW93755   4.907   8.966   6.533
30641SOL    HW193756   4.855   9.046   6.534
30641SOL    HW293757   4.954   8.967   6.616
30642SOL     OW93758   3.439   3.633   0.364
30642SOL    HW193759   3.419   3.549   0.323
30642SOL    HW293760   3.355   3.680   0.365
30643SOL     OW93761  11.227  13.319   5.878
30643SOL    HW193762  11.140  13.286   5.855
30643SOL    HW293763  11.242  13.289   5.967
30644SOL     OW93764   8.031  10.391   2.894
30644SOL    HW193765   7.941  10.393   2.863
30644SOL    HW293766   8.073  10.467   2.853
30645SOL     OW93767  11.866  12.345   0.079
30645SOL    HW193768  11.953  12.313   0.103
30645SOL    HW293769  11.808  12.306   0.145
30646SOL     OW93770   3.350   3.541   4.897
30646SOL    HW193771   3.361   3.497   4.813
30646SOL    HW293772   3.269   3.505   4.933
30647SOL     OW93773  13.089  11.374   4.057
30647SOL    HW193774  13.146  11.377   3.981
30647SOL    HW293775  13.000  11.372   4.021
30648SOL     OW93776   0.697   7.221   8.095
30648SOL    HW193777   0.755   7.288   8.058
30648SOL    HW293778   0.743   7.188   8.171
30649SOL     OW93779   5.399   2.224   6.540
30649SOL    HW193780   5.415   2.301   6.595
30649SOL    HW293781   5.466   2.230   6.471
30650SOL     OW93782   4.022  11.565  13.039
30650SOL    HW193783   4.098  11.562  13.097
30650SOL    HW293784   3.947  11.574  13.099
30651SOL     OW93785  13.046   0.382  13.750
30651SOL    HW193786  13.016   0.314  13.810
30651SOL    HW293787  12.967   0.413  13.707
30652SOL     OW93788  13.589  11.220  14.747
30652SOL    HW193789  13.678  11.187  14.760
30652SOL    HW293790  13.590  11.308  14.785
30653SOL     OW93791  11.301   2.455  12.370
30653SOL    HW193792  11.267   2.504  12.445
30653SOL    HW293793  11.234   2.466  12.303
30654SOL     OW93794  14.447   6.039   1.507
30654SOL    HW193795  14.538   6.068   1.513
30654SOL    HW293796  14.400   6.116   1.474
30655SOL     OW93797   3.882  10.072  13.493
30655SOL    HW193798   3.973  10.099  13.484
30655SOL    HW293799   3.846  10.079  13.404
30656SOL     OW93800   0.875   6.659   2.353
30656SOL    HW193801   0.869   6.710   2.273
30656SOL    HW293802   0.949   6.599   2.338
30657SOL     OW93803   7.561  10.696   1.167
30657SOL    HW193804   7.580  10.639   1.241
30657SOL    HW293805   7.571  10.641   1.090
30658SOL     OW93806   2.158  11.155   1.314
30658SOL    HW193807   2.124  11.244   1.311
30658SOL    HW293808   2.080  11.099   1.312
30659SOL     OW93809  13.006   3.772   4.953
30659SOL    HW193810  13.027   3.851   4.904
30659SOL    HW293811  12.997   3.801   5.044
30660SOL     OW93812   6.690   6.234   6.897
30660SOL    HW193813   6.670   6.319   6.859
30660SOL    HW293814   6.779   6.215   6.868
30661SOL     OW93815   8.576   7.510   4.462
30661SOL    HW193816   8.601   7.417   4.461
30661SOL    HW293817   8.530   7.520   4.546
30662SOL     OW93818  12.871  11.290   5.706
30662SOL    HW193819  12.842  11.216   5.652
30662SOL    HW293820  12.811  11.361   5.682
30663SOL     OW93821   4.832   6.024   7.710
30663SOL    HW193822   4.784   5.981   7.781
30663SOL    HW293823   4.768   6.084   7.672
30664SOL     OW93824   2.927   2.720   0.953
30664SOL    HW193825   2.886   2.723   1.040
30664SOL    HW293826   2.984   2.643   0.956
30665SOL     OW93827   7.585   5.707  11.395
30665SOL    HW193828   7.668   5.749  11.415
30665SOL    HW293829   7.597   5.670  11.308
30666SOL     OW93830   4.942  11.051   9.346
30666SOL    HW193831   4.931  11.010   9.261
30666SOL    HW293832   4.918  11.143   9.332
30667SOL     OW93833   0.731   7.801   6.458
30667SOL    HW193834   0.740   7.864   6.386
30667SOL    HW293835   0.820   7.792   6.493
30668SOL     OW93836  12.896   2.154  11.472
30668SOL    HW193837  12.986   2.180  11.453
30668SOL    HW293838  12.893   2.061  11.451
30669SOL     OW93839  13.256  13.801   4.054
30669SOL    HW193840  13.189  13.836   4.113
30669SOL    HW293841  13.287  13.877   4.006
30670SOL     OW93842   3.000   8.359   2.557
30670SOL    HW193843   3.026   8.358   2.465
30670SOL    HW293844   3.049   8.431   2.596
30671SOL     OW93845   9.419   5.677   8.319
30671SOL    HW193846   9.383   5.706   8.403
30671SOL    HW293847   9.347   5.628   8.278
30672SOL     OW93848   8.994  14.213  12.120
30672SOL    HW193849   8.911  14.259  12.106
30672SOL    HW293850   8.975  14.150  12.189
30673SOL     OW93851   4.367   3.717   4.567
30673SOL    HW193852   4.432   3.771   4.611
30673SOL    HW293853   4.403   3.702   4.479
30674SOL     OW93854  10.379  10.906  12.194
30674SOL    HW193855  10.375  10.983  12.251
30674SOL    HW293856  10.296  10.861  12.209
30675SOL     OW93857   9.153  13.304   0.772
30675SOL    HW193858   9.168  13.245   0.846
30675SOL    HW293859   9.085  13.364   0.804
30676SOL     OW93860   6.494   9.397   6.876
30676SOL    HW193861   6.426   9.338   6.845
30676SOL    HW293862   6.515   9.365   6.964
30677SOL     OW93863   2.963  14.501  12.707
30677SOL    HW193864   2.977  14.562  12.635
30677SOL    HW293865   2.870  14.478  12.701
30678SOL     OW93866   2.616  14.215   4.857
30678SOL    HW193867   2.567  14.168   4.924
30678SOL    HW293868   2.704  14.225   4.894
30679SOL     OW93869  11.050  14.231  13.299
30679SOL    HW193870  11.016  14.219  13.388
30679SOL    HW293871  11.082  14.145  13.273
30680SOL     OW93872   0.589   7.505   6.210
30680SOL    HW193873   0.668   7.560   6.215
30680SOL    HW293874   0.543   7.522   6.292
30681SOL     OW93875   9.124   8.794   7.326
30681SOL    HW193876   9.093   8.705   7.340
30681SOL    HW293877   9.156   8.822   7.412
30682SOL     OW93878   9.780  10.380   0.074
30682SOL    HW193879   9.873  10.402   0.073
30682SOL    HW293880   9.769  10.324   0.151
30683SOL     OW93881  10.376   5.199   0.016
30683SOL    HW193882  10.320   5.274  14.872
30683SOL    HW293883  10.328   5.154   0.086
30684SOL     OW93884   2.915   6.594   3.124
30684SOL    HW193885   2.942   6.632   3.208
30684SOL    HW293886   2.854   6.524   3.148
30685SOL     OW93887   1.653   6.163  14.077
30685SOL    HW193888   1.616   6.092  14.024
30685SOL    HW293889   1.667   6.234  14.015
30686SOL     OW93890  14.468  14.244  12.624
30686SOL    HW193891  14.423  14.310  12.571
30686SOL    HW293892  14.424  14.247  12.709
30687SOL     OW93893   5.852   6.485   0.060
30687SOL    HW193894   5.888   6.573   0.048
30687SOL    HW293895   5.928   6.431   0.085
30688SOL     OW93896   8.240   8.580   7.778
30688SOL    HW193897   8.199   8.666   7.773
30688SOL    HW293898   8.167   8.518   7.773
30689SOL     OW93899   3.241   2.522   7.152
30689SOL    HW193900   3.204   2.610   7.164
30689SOL    HW293901   3.165   2.465   7.147
30690SOL     OW93902   7.000  10.784  10.016
30690SOL    HW193903   7.086  10.755   9.985
30690SOL    HW293904   6.946  10.788   9.937
30691SOL     OW93905   4.313   7.960   6.353
30691SOL    HW193906   4.296   7.909   6.433
30691SOL    HW293907   4.332   8.048   6.385
30692SOL     OW93908  12.475   2.766   4.424
30692SOL    HW193909  12.508   2.682   4.457
30692SOL    HW293910  12.549   2.826   4.434
30693SOL     OW93911   8.077   5.299   4.611
30693SOL    HW193912   8.036   5.267   4.692
30693SOL    HW293913   8.165   5.326   4.638
30694SOL     OW93914  10.563   6.401   2.047
30694SOL    HW193915  10.599   6.321   2.086
30694SOL    HW293916  10.510   6.440   2.116
30695SOL     OW93917   2.445   5.852  11.721
30695SOL    HW193918   2.436   5.824  11.812
30695SOL    HW293919   2.492   5.935  11.725
30696SOL     OW93920   6.824  12.902   7.293
30696SOL    HW193921   6.789  12.953   7.220
30696SOL    HW293922   6.747  12.858   7.330
30697SOL     OW93923  12.524   6.256   4.878
30697SOL    HW193924  12.554   6.173   4.916
30697SOL    HW293925  12.563   6.258   4.791
30698SOL     OW93926   9.616   3.597  12.348
30698SOL    HW193927   9.544   3.540  12.374
30698SOL    HW293928   9.654   3.628  12.430
30699SOL     OW93929  11.455   6.686  12.565
30699SOL    HW193930  11.382   6.642  12.521
30699SOL    HW293931  11.530   6.671  12.507
30700SOL     OW93932   4.240  11.649  10.129
30700SOL    HW193933   4.223  11.603  10.047
30700SOL    HW293934   4.162  11.703  10.143
30701SOL     OW93935   5.969  11.617   7.286
30701SOL    HW193936   5.891  11.661   7.252
30701SOL    HW293937   6.038  11.683   7.280
30702SOL     OW93938  13.653   4.478  13.683
30702SOL    HW193939  13.666   4.567  13.715
30702SOL    HW293940  13.561   4.459  13.701
30703SOL     OW93941   9.906   1.266   2.111
30703SOL    HW193942   9.940   1.226   2.191
30703SOL    HW293943   9.842   1.330   2.143
30704SOL     OW93944   3.064   3.898   1.621
30704SOL    HW193945   3.139   3.938   1.578
30704SOL    HW293946   3.102   3.845   1.691
30705SOL     OW93947   4.956   1.315   7.347
30705SOL    HW193948   5.001   1.313   7.431
30705SOL    HW293949   4.951   1.223   7.321
30706SOL     OW93950  10.271   9.327   9.516
30706SOL    HW193951  10.320   9.261   9.566
30706SOL    HW293952  10.268   9.292   9.427
30707SOL     OW93953  11.528   7.640  13.837
30707SOL    HW193954  11.504   7.572  13.774
30707SOL    HW293955  11.463   7.708  13.825
30708SOL     OW93956  11.053   7.956   3.752
30708SOL    HW193957  10.987   8.025   3.740
30708SOL    HW293958  11.002   7.876   3.761
30709SOL     OW93959   5.892   0.884   7.462
30709SOL    HW193960   5.888   0.790   7.483
30709SOL    HW293961   5.846   0.926   7.535
30710SOL     OW93962   5.030   8.486   9.787
30710SOL    HW193963   5.007   8.401   9.823
30710SOL    HW293964   4.951   8.515   9.741
30711SOL     OW93965  13.744  12.124   6.701
30711SOL    HW193966  13.823  12.072   6.718
30711SOL    HW293967  13.696  12.121   6.784
30712SOL     OW93968   1.182  13.378   4.816
30712SOL    HW193969   1.231  13.309   4.771
30712SOL    HW293970   1.249  13.436   4.850
30713SOL     OW93971   8.339   4.056  14.359
30713SOL    HW193972   8.264   4.015  14.314
30713SOL    HW293973   8.303   4.083  14.444
30714SOL     OW93974   5.292   8.879   6.967
30714SOL    HW193975   5.263   8.967   6.991
30714SOL    HW293976   5.367   8.862   7.024
30715SOL     OW93977   3.417  14.797  11.624
30715SOL    HW193978   3.501  14.837  11.600
30715SOL    HW293979   3.422  14.708  11.590
30716SOL     OW93980   7.333  10.128  12.825
30716SOL    HW193981   7.247  10.091  12.845
30716SOL    HW293982   7.333  10.214  12.865
30717SOL     OW93983   0.695   5.870   0.073
30717SOL    HW193984   0.628   5.843   0.135
30717SOL    HW293985   0.764   5.804   0.082
30718SOL     OW93986   0.506   2.175   0.935
30718SOL    HW193987   0.419   2.152   0.902
30718SOL    HW293988   0.490   2.239   1.003
30719SOL     OW93989   8.255   4.786   0.644
30719SOL    HW193990   8.232   4.732   0.568
30719SOL    HW293991   8.171   4.803   0.687
30720SOL     OW93992  11.646  12.496  14.853
30720SOL    HW193993  11.722  12.449   0.008
30720SOL    HW293994  11.647  12.580   0.021
30721SOL     OW93995   1.299   6.559  11.105
30721SOL    HW193996   1.316   6.583  11.196
30721SOL    HW293997   1.372   6.598  11.056
30722SOL     OW93998   9.719  13.566   4.100
30722SOL    HW193999   9.653  13.498   4.095
30722SOL    HW294000   9.800  13.524   4.069
30723SOL     OW94001   6.115   5.454   0.185
30723SOL    HW194002   6.135   5.423   0.097
30723SOL    HW294003   6.194   5.434   0.236
30724SOL     OW94004   8.683   0.626   3.496
30724SOL    HW194005   8.623   0.559   3.527
30724SOL    HW294006   8.649   0.652   3.410
30725SOL     OW94007   0.329  10.604   5.458
30725SOL    HW194008   0.249  10.639   5.497
30725SOL    HW294009   0.397  10.667   5.484
30726SOL     OW94010   6.953   4.814   6.913
30726SOL    HW194011   7.026   4.773   6.959
30726SOL    HW294012   6.875   4.781   6.958
30727SOL     OW94013   9.161   3.181   4.029
30727SOL    HW194014   9.084   3.225   3.995
30727SOL    HW294015   9.181   3.227   4.111
30728SOL     OW94016  11.612   5.678   7.655
30728SOL    HW194017  11.518   5.693   7.647
30728SOL    HW294018  11.648   5.764   7.678
30729SOL     OW94019   6.243  12.456   1.638
30729SOL    HW194020   6.257  12.419   1.551
30729SOL    HW294021   6.232  12.550   1.622
30730SOL     OW94022   2.608   2.610   9.168
30730SOL    HW194023   2.683   2.591   9.224
30730SOL    HW294024   2.569   2.525   9.150
30731SOL     OW94025   4.278   0.067  13.006
30731SOL    HW194026   4.250   0.145  12.959
30731SOL    HW294027   4.243   0.078  13.095
30732SOL     OW94028   3.655   1.948   0.602
30732SOL    HW194029   3.700   1.886   0.544
30732SOL    HW294030   3.647   2.028   0.549
30733SOL     OW94031   6.844   1.045   6.401
30733SOL    HW194032   6.791   1.124   6.410
30733SOL    HW294033   6.934   1.077   6.401
30734SOL     OW94034   9.370   6.349   6.556
30734SOL    HW194035   9.330   6.324   6.472
30734SOL    HW294036   9.320   6.426   6.583
30735SOL     OW94037   6.366  14.339  10.125
30735SOL    HW194038   6.391  14.345  10.218
30735SOL    HW294039   6.429  14.278  10.088
30736SOL     OW94040   1.564   3.530   0.017
30736SOL    HW194041   1.586   3.584   0.092
30736SOL    HW294042   1.617   3.565  14.824
30737SOL     OW94043   0.650  13.489   8.077
30737SOL    HW194044   0.710  13.436   8.128
30737SOL    HW294045   0.702  13.565   8.049
30738SOL     OW94046   1.236   1.316   4.215
30738SOL    HW194047   1.234   1.259   4.293
30738SOL    HW294048   1.275   1.397   4.246
30739SOL     OW94049   5.095  14.493   9.253
30739SOL    HW194050   5.011  14.514   9.212
30739SOL    HW294051   5.117  14.406   9.220
30740SOL     OW94052  12.389  12.788   2.887
30740SOL    HW194053  12.373  12.766   2.795
30740SOL    HW294054  12.474  12.832   2.887
30741SOL     OW94055   2.001  13.634   7.201
30741SOL    HW194056   2.042  13.548   7.200
30741SOL    HW294057   2.046  13.682   7.131
30742SOL     OW94058  10.540   9.711  11.745
30742SOL    HW194059  10.466   9.657  11.773
30742SOL    HW294060  10.582   9.738  11.827
30743SOL     OW94061  11.635  13.527   6.354
30743SOL    HW194062  11.548  13.549   6.320
30743SOL    HW294063  11.633  13.557   6.445
30744SOL     OW94064   9.967   5.745   5.052
30744SOL    HW194065  10.046   5.716   5.098
30744SOL    HW294066   9.997   5.816   4.995
30745SOL     OW94067   2.745   1.772   0.467
30745SOL    HW194068   2.769   1.684   0.435
30745SOL    HW294069   2.825   1.805   0.507
30746SOL     OW94070   2.751   5.680   0.281
30746SOL    HW194071   2.818   5.709   0.343
30746SOL    HW294072   2.785   5.706   0.196
30747SOL     OW94073   8.502   5.539   2.489
30747SOL    HW194074   8.465   5.561   2.575
30747SOL    HW294075   8.428   5.500   2.441
30748SOL     OW94076   7.487   3.036  14.106
30748SOL    HW194077   7.544   3.065  14.178
30748SOL    HW294078   7.527   2.955  14.075
30749SOL     OW94079  11.814  10.881   9.574
30749SOL    HW194080  11.830  10.846   9.662
30749SOL    HW294081  11.773  10.966   9.589
30750SOL     OW94082   4.643   2.553   2.046
30750SOL    HW194083   4.554   2.551   2.081
30750SOL    HW294084   4.667   2.461   2.035
30751SOL     OW94085   9.097  13.651   7.134
30751SOL    HW194086   9.096  13.716   7.204
30751SOL    HW294087   9.168  13.591   7.159
30752SOL     OW94088   9.360  12.843   6.136
30752SOL    HW194089   9.312  12.778   6.187
30752SOL    HW294090   9.434  12.795   6.099
30753SOL     OW94091   1.400   6.926   7.546
30753SOL    HW194092   1.419   6.927   7.452
30753SOL    HW294093   1.467   6.870   7.584
30754SOL     OW94094  14.326   8.902   5.030
30754SOL    HW194095  14.359   8.831   5.085
30754SOL    HW294096  14.265   8.950   5.086
30755SOL     OW94097  11.403   2.643   5.746
30755SOL    HW194098  11.497   2.644   5.728
30755SOL    HW294099  11.393   2.580   5.818
30756SOL     OW94100   9.429  13.908   4.584
30756SOL    HW194101   9.483  13.960   4.644
30756SOL    HW294102   9.339  13.928   4.609
30757SOL     OW94103   3.408   8.939   7.564
30757SOL    HW194104   3.466   8.981   7.628
30757SOL    HW294105   3.401   9.002   7.493
30758SOL     OW94106  14.445   6.363   3.860
30758SOL    HW194107  14.468   6.330   3.774
30758SOL    HW294108  14.500   6.441   3.872
30759SOL     OW94109   0.874  11.296   5.173
30759SOL    HW194110   0.948  11.235   5.178
30759SOL    HW294111   0.911  11.382   5.193
30760SOL     OW94112  11.116   8.983   4.131
30760SOL    HW194113  11.132   8.909   4.073
30760SOL    HW294114  11.197   9.034   4.129
30761SOL     OW94115  10.571  11.608   0.429
30761SOL    HW194116  10.658  11.628   0.462
30761SOL    HW294117  10.566  11.512   0.429
30762SOL     OW94118  12.009   5.840   7.198
30762SOL    HW194119  12.081   5.883   7.151
30762SOL    HW294120  12.017   5.747   7.173
30763SOL     OW94121  11.433  14.351   6.940
30763SOL    HW194122  11.396  14.304   6.865
30763SOL    HW294123  11.405  14.441   6.928
30764SOL     OW94124   7.336   5.876   8.446
30764SOL    HW194125   7.320   5.898   8.355
30764SOL    HW294126   7.307   5.785   8.454
30765SOL     OW94127  13.296   7.865  12.855
30765SOL    HW194128  13.383   7.837  12.882
30765SOL    HW294129  13.271   7.802  12.787
30766SOL     OW94130   8.696   0.302  12.395
30766SOL    HW194131   8.603   0.301  12.374
30766SOL    HW294132   8.739   0.279  12.312
30767SOL     OW94133   5.887   6.399  10.266
30767SOL    HW194134   5.983   6.401  10.270
30767SOL    HW294135   5.859   6.389  10.357
30768SOL     OW94136  13.205   6.598  12.350
30768SOL    HW194137  13.149   6.675  12.343
30768SOL    HW294138  13.248   6.607  12.435
30769SOL     OW94139   6.725   9.331   1.917
30769SOL    HW194140   6.636   9.365   1.911
30769SOL    HW294141   6.764   9.352   1.832
30770SOL     OW94142  14.717   6.191   4.207
30770SOL    HW194143  14.709   6.126   4.277
30770SOL    HW294144  14.644   6.252   4.223
30771SOL     OW94145  12.544  14.498  14.844
30771SOL    HW194146  12.511  14.425  14.792
30771SOL    HW294147  12.639  14.497  14.829
30772SOL     OW94148   5.378   6.906   3.154
30772SOL    HW194149   5.334   6.865   3.229
30772SOL    HW294150   5.471   6.888   3.168
30773SOL     OW94151   1.155   6.461  14.470
30773SOL    HW194152   1.225   6.470  14.406
30773SOL    HW294153   1.115   6.376  14.450
30774SOL     OW94154  11.218   0.626  12.126
30774SOL    HW194155  11.208   0.639  12.032
30774SOL    HW294156  11.284   0.690  12.152
30775SOL     OW94157   4.868  10.379   7.201
30775SOL    HW194158   4.930  10.413   7.136
30775SOL    HW294159   4.901  10.292   7.223
30776SOL     OW94160   3.436   3.365  14.097
30776SOL    HW194161   3.395   3.329  14.018
30776SOL    HW294162   3.396   3.452  14.107
30777SOL     OW94163  13.675   8.254   9.001
30777SOL    HW194164  13.626   8.244   9.082
30777SOL    HW294165  13.709   8.344   9.004
30778SOL     OW94166   2.502   4.528   6.713
30778SOL    HW194167   2.464   4.507   6.628
30778SOL    HW294168   2.541   4.614   6.702
30779SOL     OW94169  13.416   0.871  13.765
30779SOL    HW194170  13.473   0.948  13.757
30779SOL    HW294171  13.335   0.896  13.721
30780SOL     OW94172   3.627   2.970   4.747
30780SOL    HW194173   3.716   3.002   4.733
30780SOL    HW294174   3.637   2.897   4.808
30781SOL     OW94175   8.466  11.852   6.335
30781SOL    HW194176   8.466  11.856   6.239
30781SOL    HW294177   8.434  11.763   6.354
30782SOL     OW94178   2.063   2.712   7.364
30782SOL    HW194179   2.002   2.735   7.293
30782SOL    HW294180   2.048   2.619   7.379
30783SOL     OW94181   1.141  11.167   5.493
30783SOL    HW194182   1.189  11.154   5.575
30783SOL    HW294183   1.120  11.260   5.492
30784SOL     OW94184   0.056   6.840  10.537
30784SOL    HW194185   0.012   6.799  10.611
30784SOL    HW294186   0.056   6.773  10.468
30785SOL     OW94187   5.620   5.396  10.342
30785SOL    HW194188   5.692   5.345  10.303
30785SOL    HW294189   5.583   5.444  10.269
30786SOL     OW94190   8.227   6.113   9.461
30786SOL    HW194191   8.288   6.164   9.408
30786SOL    HW294192   8.282   6.056   9.514
30787SOL     OW94193   8.898  11.106   1.894
30787SOL    HW194194   8.876  11.015   1.911
30787SOL    HW294195   8.912  11.145   1.980
30788SOL     OW94196   4.032   8.688  14.131
30788SOL    HW194197   3.970   8.684  14.203
30788SOL    HW294198   3.978   8.687  14.052
30789SOL     OW94199   9.459  11.540   3.892
30789SOL    HW194200   9.499  11.523   3.977
30789SOL    HW294201   9.369  11.508   3.900
30790SOL     OW94202   3.879   3.373  12.513
30790SOL    HW194203   3.807   3.425  12.550
30790SOL    HW294204   3.946   3.438  12.490
30791SOL     OW94205  12.085  14.523   3.557
30791SOL    HW194206  12.135  14.510   3.637
30791SOL    HW294207  12.110  14.449   3.501
30792SOL     OW94208   2.907  14.055  13.665
30792SOL    HW194209   2.813  14.049  13.680
30792SOL    HW294210   2.933  13.968  13.633
30793SOL     OW94211   7.707   4.611  12.219
30793SOL    HW194212   7.708   4.701  12.188
30793SOL    HW294213   7.711   4.618  12.315
30794SOL     OW94214   4.980  14.578  14.048
30794SOL    HW194215   4.984  14.658  14.100
30794SOL    HW294216   4.998  14.607  13.959
30795SOL     OW94217   5.480  13.241   7.632
30795SOL    HW194218   5.474  13.174   7.699
30795SOL    HW294219   5.516  13.317   7.677
30796SOL     OW94220  12.578   6.193   8.047
30796SOL    HW194221  12.514   6.257   8.076
30796SOL    HW294222  12.620   6.233   7.971
30797SOL     OW94223   6.357   5.233   6.781
30797SOL    HW194224   6.316   5.300   6.835
30797SOL    HW294225   6.412   5.282   6.720
30798SOL     OW94226   6.675  14.294   1.769
30798SOL    HW194227   6.736  14.221   1.754
30798SOL    HW294228   6.604  14.255   1.820
30799SOL     OW94229  10.319  10.229   6.576
30799SOL    HW194230  10.255  10.226   6.505
30799SOL    HW294231  10.394  10.180   6.544
30800SOL     OW94232  13.357  12.690   4.883
30800SOL    HW194233  13.439  12.643   4.896
30800SOL    HW294234  13.366  12.731   4.797
30801SOL     OW94235  11.751   4.639  12.407
30801SOL    HW194236  11.773   4.547  12.423
30801SOL    HW294237  11.720   4.641  12.317
30802SOL     OW94238   6.112  14.281   5.317
30802SOL    HW194239   6.055  14.224   5.266
30802SOL    HW294240   6.088  14.264   5.408
30803SOL     OW94241  11.367   8.563  12.794
30803SOL    HW194242  11.331   8.503  12.860
30803SOL    HW294243  11.297   8.572  12.730
30804SOL     OW94244   2.097   6.469   4.496
30804SOL    HW194245   2.101   6.528   4.422
30804SOL    HW294246   2.158   6.506   4.560
30805SOL     OW94247   5.041   9.718  13.952
30805SOL    HW194248   5.098   9.739  14.026
30805SOL    HW294249   4.983   9.649  13.985
30806SOL     OW94250   4.987  14.825  13.390
30806SOL    HW194251   5.014  14.784  13.307
30806SOL    HW294252   4.965   0.036  13.366
30807SOL     OW94253   7.001   4.805   9.941
30807SOL    HW194254   6.955   4.738   9.992
30807SOL    HW294255   7.091   4.773   9.935
30808SOL     OW94256   7.083   6.395   5.005
30808SOL    HW194257   7.011   6.457   4.988
30808SOL    HW294258   7.105   6.408   5.097
30809SOL     OW94259   1.669   4.289   4.273
30809SOL    HW194260   1.704   4.202   4.294
30809SOL    HW294261   1.576   4.283   4.293
30810SOL     OW94262   1.294  10.312  14.673
30810SOL    HW194263   1.266  10.340  14.586
30810SOL    HW294264   1.376  10.264  14.658
30811SOL     OW94265   4.935  10.628   6.768
30811SOL    HW194266   4.933  10.593   6.857
30811SOL    HW294267   4.843  10.631   6.741
30812SOL     OW94268   3.116   5.509   6.859
30812SOL    HW194269   3.070   5.483   6.938
30812SOL    HW294270   3.078   5.454   6.790
30813SOL     OW94271  13.800  11.577   1.240
30813SOL    HW194272  13.884  11.578   1.195
30813SOL    HW294273  13.823  11.586   1.333
30814SOL     OW94274   7.766   3.618   8.766
30814SOL    HW194275   7.809   3.673   8.701
30814SOL    HW294276   7.742   3.538   8.719
30815SOL     OW94277   0.220   4.728   0.882
30815SOL    HW194278   0.250   4.660   0.821
30815SOL    HW294279   0.289   4.794   0.879
30816SOL     OW94280  14.435   8.688   4.677
30816SOL    HW194281  14.392   8.615   4.633
30816SOL    HW294282  14.381   8.705   4.754
30817SOL     OW94283  10.386  12.993   2.291
30817SOL    HW194284  10.431  12.922   2.244
30817SOL    HW294285  10.322  13.025   2.228
30818SOL     OW94286   4.542   6.729   3.121
30818SOL    HW194287   4.601   6.683   3.061
30818SOL    HW294288   4.485   6.781   3.065
30819SOL     OW94289   7.208  13.953  12.023
30819SOL    HW194290   7.273  14.017  11.995
30819SOL    HW294291   7.257  13.872  12.035
30820SOL     OW94292  14.693   5.205   9.614
30820SOL    HW194293  14.741   5.229   9.693
30820SOL    HW294294  14.738   5.128   9.579
30821SOL     OW94295   5.235   3.762  11.689
30821SOL    HW194296   5.282   3.683  11.713
30821SOL    HW294297   5.260   3.779  11.598
30822SOL     OW94298   4.934   4.659  10.669
30822SOL    HW194299   4.994   4.703  10.729
30822SOL    HW294300   4.991   4.615  10.607
30823SOL     OW94301  12.823   5.396  11.259
30823SOL    HW194302  12.755   5.462  11.252
30823SOL    HW294303  12.841   5.371  11.168
30824SOL     OW94304   6.344   7.396  11.370
30824SOL    HW194305   6.432   7.361  11.353
30824SOL    HW294306   6.290   7.319  11.384
30825SOL     OW94307   8.204   3.131   4.020
30825SOL    HW194308   8.198   3.215   3.975
30825SOL    HW294309   8.241   3.071   3.956
30826SOL     OW94310   2.562  10.190  10.199
30826SOL    HW194311   2.509  10.165  10.123
30826SOL    HW294312   2.558  10.114  10.257
30827SOL     OW94313   4.032   0.060   2.726
30827SOL    HW194314   3.967   0.123   2.757
30827SOL    HW294315   4.111   0.111   2.711
30828SOL     OW94316   9.713   5.907   0.787
30828SOL    HW194317   9.742   5.974   0.726
30828SOL    HW294318   9.714   5.826   0.735
30829SOL     OW94319   3.774   5.272  11.852
30829SOL    HW194320   3.764   5.247  11.760
30829SOL    HW294321   3.717   5.212  11.900
30830SOL     OW94322   8.397  12.172   5.072
30830SOL    HW194323   8.403  12.174   4.976
30830SOL    HW294324   8.325  12.112   5.091
30831SOL     OW94325   5.316   4.111  12.373
30831SOL    HW194326   5.393   4.057  12.391
30831SOL    HW294327   5.288   4.141  12.459
30832SOL     OW94328   1.753   6.499   4.842
30832SOL    HW194329   1.805   6.430   4.801
30832SOL    HW294330   1.743   6.565   4.774
30833SOL     OW94331   2.628   6.602   6.956
30833SOL    HW194332   2.565   6.585   6.887
30833SOL    HW294333   2.592   6.557   7.033
30834SOL     OW94334   0.165  13.238  14.691
30834SOL    HW194335   0.236  13.287  14.648
30834SOL    HW294336   0.167  13.152  14.649
30835SOL     OW94337   6.160   2.989  14.422
30835SOL    HW194338   6.143   3.077  14.387
30835SOL    HW294339   6.077   2.943  14.412
30836SOL     OW94340  10.658   4.156   4.372
30836SOL    HW194341  10.707   4.234   4.347
30836SOL    HW294342  10.631   4.173   4.462
30837SOL     OW94343   3.966  11.590   4.333
30837SOL    HW194344   3.929  11.565   4.418
30837SOL    HW294345   3.955  11.685   4.328
30838SOL     OW94346   2.016   3.496   9.528
30838SOL    HW194347   2.053   3.548   9.456
30838SOL    HW294348   2.091   3.449   9.565
30839SOL     OW94349  13.561   6.016   7.336
30839SOL    HW194350  13.466   6.025   7.326
30839SOL    HW294351  13.572   5.943   7.396
30840SOL     OW94352  10.465  11.864   5.375
30840SOL    HW194353  10.428  11.933   5.320
30840SOL    HW294354  10.488  11.907   5.457
30841SOL     OW94355   4.405   3.108   7.829
30841SOL    HW194356   4.444   3.023   7.849
30841SOL    HW294357   4.344   3.089   7.757
30842SOL     OW94358   4.285  10.446   3.985
30842SOL    HW194359   4.277  10.479   3.895
30842SOL    HW294360   4.345  10.372   3.979
30843SOL     OW94361   8.668   2.393  11.430
30843SOL    HW194362   8.588   2.426  11.389
30843SOL    HW294363   8.723   2.365  11.356
30844SOL     OW94364   9.110   4.190  13.387
30844SOL    HW194365   9.020   4.169  13.412
30844SOL    HW294366   9.106   4.207  13.293
30845SOL     OW94367  11.415  13.972   9.086
30845SOL    HW194368  11.342  14.029   9.113
30845SOL    HW294369  11.398  13.955   8.993
30846SOL     OW94370   0.623  10.639  10.802
30846SOL    HW194371   0.528  10.624  10.797
30846SOL    HW294372   0.631  10.731  10.829
30847SOL     OW94373   7.636   3.092   2.282
30847SOL    HW194374   7.619   3.018   2.341
30847SOL    HW294375   7.636   3.052   2.195
30848SOL     OW94376   7.180   3.430   7.951
30848SOL    HW194377   7.177   3.475   8.035
30848SOL    HW294378   7.092   3.395   7.939
30849SOL     OW94379   7.579  12.070   5.964
30849SOL    HW194380   7.640  12.002   5.936
30849SOL    HW294381   7.579  12.065   6.059
30850SOL     OW94382   6.915   8.155  10.334
30850SOL    HW194383   6.930   8.116  10.248
30850SOL    HW294384   6.971   8.232  10.336
30851SOL     OW94385  10.022  12.562   7.239
30851SOL    HW194386  10.104  12.525   7.207
30851SOL    HW294387   9.956  12.498   7.212
30852SOL     OW94388   8.038  11.621   4.569
30852SOL    HW194389   7.966  11.612   4.631
30852SOL    HW294390   8.117  11.617   4.623
30853SOL     OW94391   6.071  13.343  13.405
30853SOL    HW194392   6.119  13.297  13.474
30853SOL    HW294393   6.108  13.308  13.324
30854SOL     OW94394  11.879   9.300  13.065
30854SOL    HW194395  11.892   9.258  13.150
30854SOL    HW294396  11.946   9.367  13.061
30855SOL     OW94397  10.093   3.691   2.709
30855SOL    HW194398  10.144   3.623   2.752
30855SOL    HW294399  10.134   3.703   2.624
30856SOL     OW94400   4.143  10.639   5.436
30856SOL    HW194401   4.235  10.638   5.461
30856SOL    HW294402   4.116  10.730   5.449
30857SOL     OW94403   9.420   8.283   2.185
30857SOL    HW194404   9.478   8.320   2.118
30857SOL    HW294405   9.333   8.290   2.148
30858SOL     OW94406  11.996  14.227  13.129
30858SOL    HW194407  12.059  14.297  13.111
30858SOL    HW294408  12.050  14.152  13.154
30859SOL     OW94409   4.357  10.149  11.328
30859SOL    HW194410   4.337  10.132  11.236
30859SOL    HW294411   4.354  10.244  11.337
30860SOL     OW94412   3.230   2.519   4.755
30860SOL    HW194413   3.214   2.431   4.719
30860SOL    HW294414   3.174   2.524   4.832
30861SOL     OW94415  12.778   5.753  11.914
30861SOL    HW194416  12.804   5.698  11.840
30861SOL    HW294417  12.857   5.802  11.937
30862SOL     OW94418   6.322  11.441   5.178
30862SOL    HW194419   6.237  11.398   5.170
30862SOL    HW294420   6.304  11.521   5.228
30863SOL     OW94421   9.957   1.095  13.850
30863SOL    HW194422   9.985   1.059  13.934
30863SOL    HW294423  10.030   1.076  13.791
30864SOL     OW94424  10.867   8.225   8.063
30864SOL    HW194425  10.917   8.273   7.998
30864SOL    HW294426  10.878   8.274   8.144
30865SOL     OW94427  14.558   6.196  10.210
30865SOL    HW194428  14.498   6.265  10.240
30865SOL    HW294429  14.605   6.169  10.290
30866SOL     OW94430   9.228   6.600   3.690
30866SOL    HW194431   9.216   6.690   3.720
30866SOL    HW294432   9.286   6.561   3.755
30867SOL     OW94433  14.145  14.160   7.621
30867SOL    HW194434  14.234  14.190   7.639
30867SOL    HW294435  14.114  14.219   7.552
30868SOL     OW94436  11.083  10.655   1.464
30868SOL    HW194437  11.118  10.619   1.383
30868SOL    HW294438  10.988  10.654   1.451
30869SOL     OW94439   0.392   3.358   7.333
30869SOL    HW194440   0.470   3.400   7.369
30869SOL    HW294441   0.415   3.265   7.329
30870SOL     OW94442  11.802  10.570   7.653
30870SOL    HW194443  11.708  10.574   7.637
30870SOL    HW294444  11.810  10.565   7.748
30871SOL     OW94445   5.148   3.049   8.384
30871SOL    HW194446   5.054   3.070   8.385
30871SOL    HW294447   5.189   3.124   8.428
30872SOL     OW94448  12.753   1.829  13.454
30872SOL    HW194449  12.788   1.759  13.399
30872SOL    HW294450  12.683   1.868  13.402
30873SOL     OW94451   9.362   9.247   0.426
30873SOL    HW194452   9.335   9.157   0.404
30873SOL    HW294453   9.322   9.301   0.358
30874SOL     OW94454   0.546   8.482   4.291
30874SOL    HW194455   0.636   8.497   4.264
30874SOL    HW294456   0.533   8.388   4.284
30875SOL     OW94457   6.456   8.867   7.067
30875SOL    HW194458   6.534   8.814   7.084
30875SOL    HW294459   6.385   8.821   7.113
30876SOL     OW94460  13.719   9.317  14.018
30876SOL    HW194461  13.784   9.363  14.071
30876SOL    HW294462  13.635   9.336  14.061
30877SOL     OW94463  10.595   9.181   9.165
30877SOL    HW194464  10.571   9.248   9.101
30877SOL    HW294465  10.667   9.133   9.123
30878SOL     OW94466  14.096  14.534   1.483
30878SOL    HW194467  14.168  14.590   1.514
30878SOL    HW294468  14.017  14.581   1.508
30879SOL     OW94469  13.497   6.279  11.682
30879SOL    HW194470  13.568   6.216  11.683
30879SOL    HW294471  13.453   6.265  11.598
30880SOL     OW94472  13.417   7.318   9.203
30880SOL    HW194473  13.362   7.289   9.276
30880SOL    HW294474  13.481   7.376   9.244
30881SOL     OW94475   9.257  11.431   9.715
30881SOL    HW194476   9.336  11.472   9.680
30881SOL    HW294477   9.288  11.350   9.757
30882SOL     OW94478   8.093   4.725   8.753
30882SOL    HW194479   8.135   4.811   8.756
30882SOL    HW294480   8.020   4.736   8.691
30883SOL     OW94481   5.136  14.159  11.205
30883SOL    HW194482   5.231  14.147  11.198
30883SOL    HW294483   5.125  14.245  11.246
30884SOL     OW94484  11.691  10.172  10.441
30884SOL    HW194485  11.680  10.144  10.350
30884SOL    HW294486  11.605  10.207  10.465
30885SOL     OW94487  12.856   6.028  13.048
30885SOL    HW194488  12.843   5.933  13.050
30885SOL    HW294489  12.883   6.051  13.137
30886SOL     OW94490  12.771   8.015   5.275
30886SOL    HW194491  12.751   7.922   5.280
30886SOL    HW294492  12.730   8.053   5.353
30887SOL     OW94493   5.465   3.221  14.871
30887SOL    HW194494   5.417   3.181  14.799
30887SOL    HW294495   5.527   3.153   0.021
30888SOL     OW94496   2.300  10.789   5.461
30888SOL    HW194497   2.252  10.775   5.543
30888SOL    HW294498   2.242  10.841   5.407
30889SOL     OW94499   3.633   4.920   6.194
30889SOL    HW194500   3.579   4.974   6.136
30889SOL    HW294501   3.610   4.830   6.171
30890SOL     OW94502   9.048   8.431   4.368
30890SOL    HW194503   9.127   8.385   4.340
30890SOL    HW294504   8.985   8.415   4.297
30891SOL     OW94505   6.608   6.194  12.332
30891SOL    HW194506   6.596   6.257  12.261
30891SOL    HW294507   6.702   6.176  12.332
30892SOL     OW94508  14.478   7.608   7.401
30892SOL    HW194509  14.457   7.541   7.465
30892SOL    HW294510  14.399   7.617   7.348
30893SOL     OW94511  14.096   1.876   9.257
30893SOL    HW194512  14.174   1.920   9.291
30893SOL    HW294513  14.031   1.887   9.327
30894SOL     OW94514  11.373   8.605   3.335
30894SOL    HW194515  11.383   8.554   3.255
30894SOL    HW294516  11.418   8.554   3.403
30895SOL     OW94517   9.175   9.245   3.661
30895SOL    HW194518   9.221   9.169   3.624
30895SOL    HW294519   9.119   9.208   3.729
30896SOL     OW94520   1.627   7.225  11.370
30896SOL    HW194521   1.686   7.152  11.351
30896SOL    HW294522   1.592   7.250  11.284
30897SOL     OW94523   9.253   7.508  13.982
30897SOL    HW194524   9.173   7.497  14.034
30897SOL    HW294525   9.238   7.456  13.903
30898SOL     OW94526  11.458   8.970  14.515
30898SOL    HW194527  11.411   8.998  14.594
30898SOL    HW294528  11.392   8.924  14.463
30899SOL     OW94529   9.744   7.923   6.546
30899SOL    HW194530   9.721   7.995   6.605
30899SOL    HW294531   9.812   7.959   6.489
30900SOL     OW94532   8.058   7.178   0.753
30900SOL    HW194533   7.977   7.130   0.733
30900SOL    HW294534   8.029   7.266   0.776
30901SOL     OW94535  12.840   9.504   8.894
30901SOL    HW194536  12.879   9.580   8.851
30901SOL    HW294537  12.900   9.432   8.876
30902SOL     OW94538   0.123   6.289   8.051
30902SOL    HW194539   0.120   6.265   7.959
30902SOL    HW294540   0.083   6.376   8.055
30903SOL     OW94541   0.391  12.994   9.813
30903SOL    HW194542   0.338  13.016   9.890
30903SOL    HW294543   0.354  12.912   9.780
30904SOL     OW94544   3.826   8.478  12.574
30904SOL    HW194545   3.921   8.480  12.566
30904SOL    HW294546   3.794   8.531  12.501
30905SOL     OW94547  10.647  12.716   8.001
30905SOL    HW194548  10.631  12.806   7.972
30905SOL    HW294549  10.685  12.672   7.925
30906SOL     OW94550   3.976   0.382   4.181
30906SOL    HW194551   3.923   0.303   4.172
30906SOL    HW294552   3.947   0.439   4.109
30907SOL     OW94553   6.163   1.631   4.383
30907SOL    HW194554   6.113   1.670   4.455
30907SOL    HW294555   6.255   1.646   4.407
30908SOL     OW94556   8.910   3.403   1.318
30908SOL    HW194557   8.823   3.444   1.321
30908SOL    HW294558   8.953   3.446   1.244
30909SOL     OW94559  12.948  11.618   2.677
30909SOL    HW194560  12.884  11.674   2.721
30909SOL    HW294561  12.897  11.542   2.649
30910SOL     OW94562   3.442   1.872   2.825
30910SOL    HW194563   3.363   1.912   2.790
30910SOL    HW294564   3.411   1.809   2.890
30911SOL     OW94565   9.877   1.530   1.519
30911SOL    HW194566   9.818   1.576   1.579
30911SOL    HW294567   9.825   1.514   1.440
30912SOL     OW94568   4.494  11.573   6.525
30912SOL    HW194569   4.402  11.585   6.501
30912SOL    HW294570   4.506  11.478   6.527
30913SOL     OW94571   7.045  10.689  14.394
30913SOL    HW194572   7.097  10.680  14.474
30913SOL    HW294573   6.961  10.649  14.417
30914SOL     OW94574   8.256   1.465  10.229
30914SOL    HW194575   8.346   1.436  10.239
30914SOL    HW294576   8.232   1.499  10.315
30915SOL     OW94577   0.225   4.647   2.366
30915SOL    HW194578   0.181   4.625   2.447
30915SOL    HW294579   0.158   4.639   2.299
30916SOL     OW94580  10.782  12.776  14.689
30916SOL    HW194581  10.816  12.736  14.769
30916SOL    HW294582  10.859  12.789  14.634
30917SOL     OW94583   2.975   6.885   4.821
30917SOL    HW194584   3.068   6.883   4.844
30917SOL    HW294585   2.941   6.801   4.851
30918SOL     OW94586   6.882   4.235   0.025
30918SOL    HW194587   6.827   4.303   0.063
30918SOL    HW294588   6.970   4.273   0.022
30919SOL     OW94589   9.266  12.090  13.252
30919SOL    HW194590   9.201  12.042  13.200
30919SOL    HW294591   9.289  12.165  13.197
30920SOL     OW94592   8.723  12.468  10.769
30920SOL    HW194593   8.694  12.513  10.691
30920SOL    HW294594   8.697  12.525  10.842
30921SOL     OW94595  12.312  13.553   4.460
30921SOL    HW194596  12.336  13.645   4.462
30921SOL    HW294597  12.282  13.534   4.550
30922SOL     OW94598   4.285   0.051   7.726
30922SOL    HW194599   4.376   0.074   7.706
30922SOL    HW294600   4.234   0.100   7.661
30923SOL     OW94601  14.443   4.690   3.200
30923SOL    HW194602  14.366   4.665   3.251
30923SOL    HW294603  14.407   4.713   3.114
30924SOL     OW94604   3.658   3.742   3.523
30924SOL    HW194605   3.620   3.697   3.448
30924SOL    HW294606   3.750   3.717   3.522
30925SOL     OW94607   9.334   7.876   2.666
30925SOL    HW194608   9.331   7.911   2.754
30925SOL    HW294609   9.260   7.916   2.621
30926SOL     OW94610   8.263  14.250   5.672
30926SOL    HW194611   8.176  14.267   5.635
30926SOL    HW294612   8.304  14.336   5.679
30927SOL     OW94613   4.163   3.347  11.415
30927SOL    HW194614   4.076   3.313  11.394
30927SOL    HW294615   4.145   3.425  11.467
30928SOL     OW94616  10.046   8.942  13.858
30928SOL    HW194617   9.966   8.914  13.903
30928SOL    HW294618  10.117   8.902  13.908
30929SOL     OW94619   6.187  14.856   2.714
30929SOL    HW194620   6.272   0.001   2.677
30929SOL    HW294621   6.191   0.009   2.804
30930SOL     OW94622   3.581  12.077   4.351
30930SOL    HW194623   3.634  12.156   4.353
30930SOL    HW294624   3.600  12.037   4.267
30931SOL     OW94625   6.434  11.928   3.122
30931SOL    HW194626   6.463  11.920   3.031
30931SOL    HW294627   6.457  12.018   3.147
30932SOL     OW94628  11.084   4.918   3.433
30932SOL    HW194629  11.023   4.860   3.388
30932SOL    HW294630  11.030   4.989   3.466
30933SOL     OW94631  12.380   2.780  10.789
30933SOL    HW194632  12.436   2.774  10.712
30933SOL    HW294633  12.296   2.813  10.755
30934SOL     OW94634  14.157  13.865  14.780
30934SOL    HW194635  14.163  13.789  14.839
30934SOL    HW294636  14.205  13.934  14.825
30935SOL     OW94637   7.043   3.310  13.815
30935SOL    HW194638   7.096   3.239  13.852
30935SOL    HW294639   7.036   3.289  13.721
30936SOL     OW94640  10.506  11.444   8.266
30936SOL    HW194641  10.557  11.520   8.239
30936SOL    HW294642  10.568  11.372   8.270
30937SOL     OW94643  10.319   8.841   3.207
30937SOL    HW194644  10.346   8.750   3.197
30937SOL    HW294645  10.331   8.880   3.121
30938SOL     OW94646  10.286  11.328   1.899
30938SOL    HW194647  10.379  11.344   1.887
30938SOL    HW294648  10.269  11.247   1.852
30939SOL     OW94649   5.018   8.921   9.074
30939SOL    HW194650   4.980   8.937   9.161
30939SOL    HW294651   5.113   8.924   9.088
30940SOL     OW94652  12.272   6.348   0.326
30940SOL    HW194653  12.266   6.312   0.237
30940SOL    HW294654  12.294   6.272   0.380
30941SOL     OW94655   9.412   3.312   4.664
30941SOL    HW194656   9.450   3.238   4.616
30941SOL    HW294657   9.488   3.358   4.700
30942SOL     OW94658  12.532  13.559   0.837
30942SOL    HW194659  12.537  13.595   0.926
30942SOL    HW294660  12.439  13.564   0.815
30943SOL     OW94661   6.968   9.318   9.892
30943SOL    HW194662   7.013   9.303   9.809
30943SOL    HW294663   7.025   9.279   9.958
30944SOL     OW94664   7.379   2.318   5.155
30944SOL    HW194665   7.390   2.403   5.111
30944SOL    HW294666   7.337   2.263   5.089
30945SOL     OW94667   6.337   1.808   7.837
30945SOL    HW194668   6.426   1.834   7.861
30945SOL    HW294669   6.307   1.755   7.911
30946SOL     OW94670  11.297  14.084  10.623
30946SOL    HW194671  11.214  14.128  10.604
30946SOL    HW294672  11.349  14.095  10.544
30947SOL     OW94673   7.261   0.056   1.614
30947SOL    HW194674   7.261   0.110   1.694
30947SOL    HW294675   7.203  14.861   1.636
30948SOL     OW94676   2.823   0.297   2.787
30948SOL    HW194677   2.742   0.339   2.758
30948SOL    HW294678   2.806   0.203   2.776
30949SOL     OW94679  10.266  13.582   1.640
30949SOL    HW194680  10.316  13.504   1.615
30949SOL    HW294681  10.291  13.648   1.577
30950SOL     OW94682  11.866   5.872   0.551
30950SOL    HW194683  11.813   5.838   0.480
30950SOL    HW294684  11.803   5.892   0.621
30951SOL     OW94685  12.752   6.192   1.750
30951SOL    HW194686  12.673   6.220   1.704
30951SOL    HW294687  12.758   6.251   1.825
30952SOL     OW94688   1.299   5.185   8.858
30952SOL    HW194689   1.283   5.148   8.771
30952SOL    HW294690   1.212   5.196   8.896
30953SOL     OW94691  13.251   9.478   9.373
30953SOL    HW194692  13.345   9.491   9.361
30953SOL    HW294693  13.222   9.436   9.292
30954SOL     OW94694  13.679   7.610   4.654
30954SOL    HW194695  13.720   7.681   4.605
30954SOL    HW294696  13.593   7.644   4.679
30955SOL     OW94697   2.519  13.169  13.807
30955SOL    HW194698   2.433  13.198  13.835
30955SOL    HW294699   2.576  13.184  13.882
30956SOL     OW94700   4.115   5.055   5.287
30956SOL    HW194701   4.028   5.039   5.250
30956SOL    HW294702   4.100   5.062   5.381
30957SOL     OW94703   3.601   5.059  11.879
30957SOL    HW194704   3.654   5.008  11.940
30957SOL    HW294705   3.583   4.999  11.807
30958SOL     OW94706  13.049   8.940   7.726
30958SOL    HW194707  13.025   9.002   7.795
30958SOL    HW294708  13.016   8.979   7.645
30959SOL     OW94709   0.099  11.873  12.992
30959SOL    HW194710   0.060  11.960  12.998
30959SOL    HW294711   0.047  11.819  13.051
30960SOL     OW94712  10.806   1.463   3.384
30960SOL    HW194713  10.761   1.454   3.300
30960SOL    HW294714  10.756   1.531   3.430
30961SOL     OW94715   3.616   8.103  11.215
30961SOL    HW194716   3.550   8.107  11.146
30961SOL    HW294717   3.577   8.152  11.288
30962SOL     OW94718  12.678   2.335  11.446
30962SOL    HW194719  12.666   2.339  11.351
30962SOL    HW294720  12.750   2.273  11.458
30963SOL     OW94721   5.383  11.365   7.234
30963SOL    HW194722   5.308  11.362   7.175
30963SOL    HW294723   5.426  11.448   7.215
30964SOL     OW94724   6.218   9.953   5.180
30964SOL    HW194725   6.191   9.870   5.220
30964SOL    HW294726   6.297   9.931   5.131
30965SOL     OW94727   8.791   0.508   2.185
30965SOL    HW194728   8.781   0.428   2.236
30965SOL    HW294729   8.741   0.574   2.234
30966SOL     OW94730   0.476   2.824   1.623
30966SOL    HW194731   0.466   2.916   1.648
30966SOL    HW294732   0.558   2.796   1.665
30967SOL     OW94733   7.583   4.482  10.883
30967SOL    HW194734   7.668   4.448  10.855
30967SOL    HW294735   7.589   4.486  10.978
30968SOL     OW94736  10.738   4.383   8.069
30968SOL    HW194737  10.788   4.359   8.147
30968SOL    HW294738  10.804   4.389   7.999
30969SOL     OW94739   9.228   1.495   8.264
30969SOL    HW194740   9.237   1.554   8.189
30969SOL    HW294741   9.303   1.516   8.319
30970SOL     OW94742   3.059   1.352   2.761
30970SOL    HW194743   2.977   1.378   2.801
30970SOL    HW294744   3.068   1.259   2.784
30971SOL     OW94745   6.408   7.334   3.442
30971SOL    HW194746   6.351   7.326   3.518
30971SOL    HW294747   6.378   7.266   3.382
30972SOL     OW94748  14.494   7.054  11.505
30972SOL    HW194749  14.547   7.046  11.426
30972SOL    HW294750  14.487   6.965  11.538
30973SOL     OW94751   3.314  12.610  10.586
30973SOL    HW194752   3.295  12.703  10.572
30973SOL    HW294753   3.408  12.606  10.601
30974SOL     OW94754   9.100   3.876  12.659
30974SOL    HW194755   9.049   3.852  12.582
30974SOL    HW294756   9.113   3.971  12.650
30975SOL     OW94757  12.980   1.463   0.267
30975SOL    HW194758  12.919   1.524   0.308
30975SOL    HW294759  13.067   1.493   0.295
30976SOL     OW94760   5.788  11.678  11.952
30976SOL    HW194761   5.749  11.637  11.874
30976SOL    HW294762   5.719  11.735  11.986
30977SOL     OW94763  14.392   5.399   3.843
30977SOL    HW194764  14.299   5.393   3.864
30977SOL    HW294765  14.395   5.415   3.748
30978SOL     OW94766  13.731   8.257  11.337
30978SOL    HW194767  13.662   8.191  11.347
30978SOL    HW294768  13.808   8.217  11.377
30979SOL     OW94769   1.572   7.805   4.679
30979SOL    HW194770   1.610   7.746   4.744
30979SOL    HW294771   1.598   7.892   4.707
30980SOL     OW94772  11.927   6.780   3.484
30980SOL    HW194773  11.890   6.858   3.527
30980SOL    HW294774  11.867   6.709   3.507
30981SOL     OW94775   3.058   5.803   9.272
30981SOL    HW194776   3.052   5.790   9.366
30981SOL    HW294777   2.989   5.749   9.235
30982SOL     OW94778   6.186   9.894  10.970
30982SOL    HW194779   6.232   9.824  10.924
30982SOL    HW294780   6.159   9.954  10.901
30983SOL     OW94781  13.008   9.287   2.315
30983SOL    HW194782  13.076   9.220   2.322
30983SOL    HW294783  12.952   9.271   2.392
30984SOL     OW94784   8.733   9.972  13.559
30984SOL    HW194785   8.713   9.972  13.653
30984SOL    HW294786   8.822  10.005  13.554
30985SOL     OW94787   3.992   4.827   5.671
30985SOL    HW194788   3.921   4.868   5.721
30985SOL    HW294789   4.060   4.810   5.736
30986SOL     OW94790   0.787   8.549   0.635
30986SOL    HW194791   0.812   8.514   0.549
30986SOL    HW294792   0.722   8.616   0.615
30987SOL     OW94793  14.211  11.736  12.313
30987SOL    HW194794  14.226  11.701  12.226
30987SOL    HW294795  14.294  11.778  12.337
30988SOL     OW94796   9.431   9.532   4.581
30988SOL    HW194797   9.465   9.443   4.595
30988SOL    HW294798   9.337   9.524   4.599
30989SOL     OW94799   2.228   5.218  12.122
30989SOL    HW194800   2.234   5.313  12.130
30989SOL    HW294801   2.221   5.203  12.028
30990SOL     OW94802   3.059   4.892   9.456
30990SOL    HW194803   3.098   4.815   9.498
30990SOL    HW294804   3.132   4.953   9.446
30991SOL     OW94805   6.952   3.082   2.881
30991SOL    HW194806   6.930   2.989   2.884
30991SOL    HW294807   7.005   3.092   2.802
30992SOL     OW94808   4.511  10.082   8.699
30992SOL    HW194809   4.578  10.050   8.759
30992SOL    HW294810   4.438  10.020   8.709
30993SOL     OW94811   9.947   7.671  13.832
30993SOL    HW194812   9.988   7.727  13.898
30993SOL    HW294813   9.899   7.732  13.776
30994SOL     OW94814  13.236   9.297   0.023
30994SOL    HW194815  13.189   9.361  14.847
30994SOL    HW294816  13.305   9.263  14.844
30995SOL     OW94817   1.341   8.787  11.848
30995SOL    HW194818   1.329   8.868  11.799
30995SOL    HW294819   1.328   8.718  11.783
30996SOL     OW94820  11.014  14.451  10.273
30996SOL    HW194821  11.034  14.492  10.189
30996SOL    HW294822  10.981  14.523  10.327
30997SOL     OW94823   2.811   4.986   4.163
30997SOL    HW194824   2.896   5.005   4.202
30997SOL    HW294825   2.786   5.068   4.120
30998SOL     OW94826   4.824   0.230  14.857
30998SOL    HW194827   4.765   0.290   0.025
30998SOL    HW294828   4.766   0.163  14.822
30999SOL     OW94829   9.723   4.314   7.582
30999SOL    HW194830   9.720   4.286   7.673
30999SOL    HW294831   9.777   4.393   7.582
31000SOL     OW94832   1.258   9.439  10.426
31000SOL    HW194833   1.277   9.504  10.359
31000SOL    HW294834   1.202   9.374  10.381
31001SOL     OW94835   3.816   4.645  14.205
31001SOL    HW194836   3.901   4.684  14.187
31001SOL    HW294837   3.819   4.621  14.298
31002SOL     OW94838   7.354   3.267   6.897
31002SOL    HW194839   7.377   3.190   6.846
31002SOL    HW294840   7.384   3.246   6.986
31003SOL     OW94841   6.109  13.269   4.025
31003SOL    HW194842   6.163  13.230   4.093
31003SOL    HW294843   6.135  13.361   4.023
31004SOL     OW94844   3.824   4.672   9.585
31004SOL    HW194845   3.738   4.705   9.559
31004SOL    HW294846   3.825   4.581   9.555
31005SOL     OW94847   1.972   0.754   6.483
31005SOL    HW194848   1.945   0.702   6.559
31005SOL    HW294849   2.059   0.720   6.460
31006SOL     OW94850  11.748   6.626  13.806
31006SOL    HW194851  11.817   6.692  13.804
31006SOL    HW294852  11.700   6.638  13.724
31007SOL     OW94853   2.493   5.899  13.515
31007SOL    HW194854   2.403   5.903  13.483
31007SOL    HW294855   2.498   5.814  13.560
31008SOL     OW94856   0.550  11.522   4.419
31008SOL    HW194857   0.598  11.511   4.337
31008SOL    HW294858   0.492  11.596   4.403
31009SOL     OW94859   4.872  10.183   7.627
31009SOL    HW194860   4.803  10.250   7.626
31009SOL    HW294861   4.861  10.139   7.711
31010SOL     OW94862   9.063   0.526  10.886
31010SOL    HW194863   8.970   0.546  10.873
31010SOL    HW294864   9.106   0.561  10.808
31011SOL     OW94865   6.495  14.167   1.973
31011SOL    HW194866   6.430  14.232   2.000
31011SOL    HW294867   6.454  14.121   1.900
31012SOL     OW94868   0.411   6.499   7.740
31012SOL    HW194869   0.433   6.590   7.760
31012SOL    HW294870   0.424   6.492   7.645
31013SOL     OW94871  11.826   3.222   5.456
31013SOL    HW194872  11.809   3.224   5.550
31013SOL    HW294873  11.757   3.166   5.421
31014SOL     OW94874   8.674   3.068  13.411
31014SOL    HW194875   8.635   3.067  13.323
31014SOL    HW294876   8.760   3.028  13.398
31015SOL     OW94877  14.209  12.778  10.683
31015SOL    HW194878  14.224  12.774  10.589
31015SOL    HW294879  14.122  12.741  10.695
31016SOL     OW94880   2.501   7.172  14.416
31016SOL    HW194881   2.515   7.147  14.325
31016SOL    HW294882   2.477   7.090  14.460
31017SOL     OW94883   6.605   3.179   8.433
31017SOL    HW194884   6.594   3.166   8.339
31017SOL    HW294885   6.673   3.246   8.440
31018SOL     OW94886  11.154   7.939   6.364
31018SOL    HW194887  11.233   7.887   6.377
31018SOL    HW294888  11.097   7.915   6.437
31019SOL     OW94889  11.679  10.739   4.140
31019SOL    HW194890  11.723  10.818   4.172
31019SOL    HW294891  11.606  10.773   4.087
31020SOL     OW94892   9.366   4.557  12.940
31020SOL    HW194893   9.379   4.462  12.934
31020SOL    HW294894   9.338   4.571  13.031
31021SOL     OW94895   9.498   1.915   3.968
31021SOL    HW194896   9.469   2.001   3.998
31021SOL    HW294897   9.584   1.902   4.008
31022SOL     OW94898   7.942   9.821   7.584
31022SOL    HW194899   7.862   9.768   7.582
31022SOL    HW294900   7.918   9.904   7.543
31023SOL     OW94901   5.803   1.193  14.488
31023SOL    HW194902   5.857   1.260  14.530
31023SOL    HW294903   5.861   1.153  14.424
31024SOL     OW94904  10.543   2.704   3.216
31024SOL    HW194905  10.639   2.703   3.218
31024SOL    HW294906  10.518   2.626   3.266
31025SOL     OW94907   3.679   2.026   5.655
31025SOL    HW194908   3.761   2.009   5.609
31025SOL    HW294909   3.684   1.972   5.734
31026SOL     OW94910   8.497   0.439  14.650
31026SOL    HW194911   8.568   0.429  14.713
31026SOL    HW294912   8.507   0.528  14.617
31027SOL     OW94913   6.743   2.977  12.034
31027SOL    HW194914   6.802   2.981  12.108
31027SOL    HW294915   6.676   3.043  12.054
31028SOL     OW94916   0.625  12.821   2.019
31028SOL    HW194917   0.628  12.916   2.033
31028SOL    HW294918   0.700  12.803   1.962
31029SOL     OW94919   1.478   9.589   7.323
31029SOL    HW194920   1.566   9.564   7.351
31029SOL    HW294921   1.432   9.609   7.404
31030SOL     OW94922   2.584   0.552   1.925
31030SOL    HW194923   2.489   0.552   1.917
31030SOL    HW294924   2.603   0.486   1.992
31031SOL     OW94925   6.327  12.098   9.022
31031SOL    HW194926   6.301  12.006   9.026
31031SOL    HW294927   6.252  12.143   8.982
31032SOL     OW94928  12.102  14.544  13.310
31032SOL    HW194929  12.015  14.568  13.280
31032SOL    HW294930  12.106  14.574  13.401
31033SOL     OW94931   1.439   5.150   7.163
31033SOL    HW194932   1.462   5.230   7.211
31033SOL    HW294933   1.480   5.161   7.077
31034SOL     OW94934   9.668   1.618   1.280
31034SOL    HW194935   9.753   1.658   1.299
31034SOL    HW294936   9.612   1.691   1.254
31035SOL     OW94937   0.206   4.460   4.735
31035SOL    HW194938   0.164   4.490   4.654
31035SOL    HW294939   0.143   4.481   4.804
31036SOL     OW94940  12.196  12.612   0.195
31036SOL    HW194941  12.185  12.536   0.253
31036SOL    HW294942  12.172  12.687   0.249
31037SOL     OW94943   5.081  14.436   3.801
31037SOL    HW194944   5.166  14.400   3.775
31037SOL    HW294945   5.046  14.373   3.864
31038SOL     OW94946   7.919   8.353  13.541
31038SOL    HW194947   7.855   8.411  13.581
31038SOL    HW294948   7.873   8.311  13.469
31039SOL     OW94949  10.330   1.093   4.364
31039SOL    HW194950  10.377   1.021   4.322
31039SOL    HW294951  10.263   1.119   4.300
31040SOL     OW94952  11.371   1.378   8.343
31040SOL    HW194953  11.393   1.312   8.408
31040SOL    HW294954  11.278   1.366   8.326
31041SOL     OW94955   7.076  12.727   7.376
31041SOL    HW194956   7.010  12.787   7.341
31041SOL    HW294957   7.158  12.759   7.338
31042SOL     OW94958   2.499   8.208   8.642
31042SOL    HW194959   2.577   8.222   8.588
31042SOL    HW294960   2.433   8.176   8.581
31043SOL     OW94961  14.621  12.693  10.892
31043SOL    HW194962  14.608  12.689  10.987
31043SOL    HW294963  14.686  12.762  10.880
31044SOL     OW94964   3.851  13.677  11.420
31044SOL    HW194965   3.906  13.748  11.453
31044SOL    HW294966   3.763  13.715  11.414
31045SOL     OW94967  10.923   8.839   8.336
31045SOL    HW194968  10.844   8.845   8.283
31045SOL    HW294969  10.891   8.831   8.426
31046SOL     OW94970  13.557  13.863   8.487
31046SOL    HW194971  13.576  13.869   8.581
31046SOL    HW294972  13.584  13.774   8.463
31047SOL     OW94973   6.083  11.808   1.120
31047SOL    HW194974   5.997  11.766   1.112
31047SOL    HW294975   6.098  11.850   1.036
31048SOL     OW94976  11.598   2.290   4.289
31048SOL    HW194977  11.618   2.200   4.263
31048SOL    HW294978  11.683   2.327   4.314
31049SOL     OW94979   5.775   5.836   2.612
31049SOL    HW194980   5.694   5.794   2.642
31049SOL    HW294981   5.762   5.929   2.630
31050SOL     OW94982   3.551  10.269  11.552
31050SOL    HW194983   3.539  10.345  11.608
31050SOL    HW294984   3.600  10.302  11.477
31051SOL     OW94985   8.433  12.931   4.083
31051SOL    HW194986   8.479  12.850   4.105
31051SOL    HW294987   8.343  12.915   4.109
31052SOL     OW94988  13.608   6.656   1.182
31052SOL    HW194989  13.693   6.688   1.211
31052SOL    HW294990  13.628   6.597   1.108
31053SOL     OW94991   1.357   4.147   8.091
31053SOL    HW194992   1.326   4.231   8.057
31053SOL    HW294993   1.295   4.083   8.056
31054SOL     OW94994  10.491   8.599   4.087
31054SOL    HW194995  10.484   8.610   3.992
31054SOL    HW294996  10.401   8.594   4.118
31055SOL     OW94997  12.054  12.093  11.737
31055SOL    HW194998  12.092  12.045  11.811
31055SOL    HW294999  12.020  12.174  11.775
31056SOL     OW95000  10.255   4.653   9.400
31056SOL    HW195001  10.214   4.651   9.487
31056SOL    HW295002  10.303   4.736   9.399
31057SOL     OW95003   8.496   8.577  12.685
31057SOL    HW195004   8.429   8.612  12.743
31057SOL    HW295005   8.472   8.610  12.598
31058SOL     OW95006  14.561   0.066   6.028
31058SOL    HW195007  14.504   0.114   6.089
31058SOL    HW295008  14.617   0.013   6.085
31059SOL     OW95009   2.089   4.047  13.662
31059SOL    HW195010   2.145   3.973  13.688
31059SOL    HW295011   2.051   4.019  13.578
31060SOL     OW95012   4.884  11.441  12.573
31060SOL    HW195013   4.864  11.381  12.501
31060SOL    HW295014   4.825  11.515  12.560
31061SOL     OW95015   7.698   2.850   6.008
31061SOL    HW195016   7.661   2.779   6.061
31061SOL    HW295017   7.623   2.891   5.967
31062SOL     OW95018  10.486   0.016  14.816
31062SOL    HW195019  10.555   0.053  14.872
31062SOL    HW295020  10.406   0.025  14.867
31063SOL     OW95021   9.651   1.912   3.703
31063SOL    HW195022   9.597   1.862   3.764
31063SOL    HW295023   9.602   1.913   3.621
31064SOL     OW95024  10.720   9.395   7.386
31064SOL    HW195025  10.670   9.359   7.313
31064SOL    HW295026  10.700   9.488   7.385
31065SOL     OW95027  13.252   2.364   8.458
31065SOL    HW195028  13.256   2.397   8.547
31065SOL    HW295029  13.170   2.397   8.423
31066SOL     OW95030   3.663  12.977   2.531
31066SOL    HW195031   3.729  12.930   2.479
31066SOL    HW295032   3.695  13.068   2.533
31067SOL     OW95033   9.857   0.284   3.206
31067SOL    HW195034   9.920   0.212   3.200
31067SOL    HW295035   9.910   0.363   3.203
31068SOL     OW95036   2.923   1.534   5.133
31068SOL    HW195037   2.987   1.488   5.078
31068SOL    HW295038   2.845   1.479   5.129
31069SOL     OW95039   4.665   1.853   1.344
31069SOL    HW195040   4.608   1.844   1.420
31069SOL    HW295041   4.735   1.912   1.374
31070SOL     OW95042   3.891  12.567  12.198
31070SOL    HW195043   3.918  12.477  12.211
31070SOL    HW295044   3.946  12.618  12.257
31071SOL     OW95045   4.692   8.076  12.632
31071SOL    HW195046   4.602   8.107  12.624
31071SOL    HW295047   4.743   8.154  12.654
31072SOL     OW95048   2.597   7.606   8.679
31072SOL    HW195049   2.604   7.510   8.678
31072SOL    HW295050   2.597   7.628   8.772
31073SOL     OW95051   0.169   5.023  11.268
31073SOL    HW195052   0.125   5.083  11.209
31073SOL    HW295053   0.097   4.985  11.320
31074SOL     OW95054  11.348   1.151  14.404
31074SOL    HW195055  11.359   1.242  14.431
31074SOL    HW295056  11.267   1.151  14.352
31075SOL     OW95057   0.880   5.125  12.531
31075SOL    HW195058   0.803   5.130  12.475
31075SOL    HW295059   0.954   5.142  12.471
31076SOL     OW95060   3.662   3.523  10.319
31076SOL    HW195061   3.623   3.604  10.288
31076SOL    HW295062   3.597   3.487  10.380
31077SOL     OW95063   0.744  11.715   0.710
31077SOL    HW195064   0.800  11.790   0.724
31077SOL    HW295065   0.743  11.704   0.614
31078SOL     OW95066   1.223   6.391   1.054
31078SOL    HW195067   1.264   6.305   1.049
31078SOL    HW295068   1.140   6.381   1.008
31079SOL     OW95069   2.986   4.075  10.706
31079SOL    HW195070   3.018   4.041  10.622
31079SOL    HW295071   3.065   4.084  10.759
31080SOL     OW95072   4.211  12.776  13.367
31080SOL    HW195073   4.226  12.853  13.422
31080SOL    HW295074   4.263  12.707  13.409
31081SOL     OW95075   8.357   7.681   6.150
31081SOL    HW195076   8.394   7.654   6.234
31081SOL    HW295077   8.263   7.665   6.158
31082SOL     OW95078   3.564   1.424  11.530
31082SOL    HW195079   3.518   1.354  11.576
31082SOL    HW295080   3.586   1.386  11.445
31083SOL     OW95081  13.096   4.211  14.346
31083SOL    HW195082  13.026   4.150  14.324
31083SOL    HW295083  13.158   4.204  14.273
31084SOL     OW95084   2.004   3.905   5.419
31084SOL    HW195085   1.913   3.935   5.405
31084SOL    HW295086   2.007   3.879   5.510
31085SOL     OW95087   0.016   8.273   7.697
31085SOL    HW195088  14.848   8.353   7.674
31085SOL    HW295089  14.840   8.202   7.664
31086SOL     OW95090  14.301  12.093   3.852
31086SOL    HW195091  14.249  12.036   3.795
31086SOL    HW295092  14.271  12.072   3.941
31087SOL     OW95093   0.093   0.438   5.543
31087SOL    HW195094   0.092   0.429   5.638
31087SOL    HW295095   0.024   0.502   5.525
31088SOL     OW95096  12.783   6.858   8.470
31088SOL    HW195097  12.875   6.879   8.482
31088SOL    HW295098  12.781   6.806   8.389
31089SOL     OW95099   9.527   7.017   2.809
31089SOL    HW195100   9.478   7.098   2.800
31089SOL    HW295101   9.591   7.020   2.738
31090SOL     OW95102   1.118  13.416   8.295
31090SOL    HW195103   1.097  13.490   8.352
31090SOL    HW295104   1.102  13.339   8.349
31091SOL     OW95105  12.777   3.429  12.416
31091SOL    HW195106  12.712   3.399  12.480
31091SOL    HW295107  12.861   3.420  12.461
31092SOL     OW95108  11.631  11.399   4.915
31092SOL    HW195109  11.612  11.486   4.949
31092SOL    HW295110  11.696  11.363   4.976
31093SOL     OW95111  11.625  13.952   0.278
31093SOL    HW195112  11.577  14.011   0.337
31093SOL    HW295113  11.716  13.958   0.307
31094SOL     OW95114  14.570   4.060  11.716
31094SOL    HW195115  14.479   4.091  11.709
31094SOL    HW295116  14.592   4.072  11.808
31095SOL     OW95117   0.457   5.866   4.133
31095SOL    HW195118   0.529   5.926   4.116
31095SOL    HW295119   0.387   5.921   4.167
31096SOL     OW95120   1.682   2.268   6.246
31096SOL    HW195121   1.598   2.313   6.241
31096SOL    HW295122   1.733   2.320   6.308
31097SOL     OW95123   6.736   3.678   5.633
31097SOL    HW195124   6.747   3.591   5.672
31097SOL    HW295125   6.641   3.689   5.626
31098SOL     OW95126   4.466  14.682   5.669
31098SOL    HW195127   4.389  14.731   5.641
31098SOL    HW295128   4.470  14.606   5.610
31099SOL     OW95129   5.896   7.162  14.769
31099SOL    HW195130   5.927   7.126  14.686
31099SOL    HW295131   5.869   7.085  14.819
31100SOL     OW95132  12.445   7.707   5.928
31100SOL    HW195133  12.406   7.622   5.908
31100SOL    HW295134  12.370   7.764   5.949
31101SOL     OW95135  11.225   1.823  12.804
31101SOL    HW195136  11.314   1.849  12.784
31101SOL    HW295137  11.181   1.903  12.831
31102SOL     OW95138  14.578  10.443  10.975
31102SOL    HW195139  14.499  10.391  10.989
31102SOL    HW295140  14.571  10.474  10.885
31103SOL     OW95141   2.995   5.207   1.022
31103SOL    HW195142   3.073   5.260   1.040
31103SOL    HW295143   3.025   5.141   0.959
31104SOL     OW95144   4.610  12.655   4.278
31104SOL    HW195145   4.677  12.722   4.292
31104SOL    HW295146   4.546  12.697   4.220
31105SOL     OW95147  11.773   6.385   9.985
31105SOL    HW195148  11.725   6.335  10.050
31105SOL    HW295149  11.834   6.438  10.036
31106SOL     OW95150   7.894   8.276   2.744
31106SOL    HW195151   7.930   8.350   2.696
31106SOL    HW295152   7.816   8.310   2.786
31107SOL     OW95153   1.956   5.889   4.730
31107SOL    HW195154   1.980   5.955   4.665
31107SOL    HW295155   1.921   5.816   4.679
31108SOL     OW95156   8.055  14.337   0.898
31108SOL    HW195157   7.979  14.307   0.948
31108SOL    HW295158   8.101  14.257   0.873
31109SOL     OW95159   9.403  10.925   9.020
31109SOL    HW195160   9.349  10.875   9.081
31109SOL    HW295161   9.434  10.860   8.957
31110SOL     OW95162  10.991  13.718   7.724
31110SOL    HW195163  10.934  13.643   7.736
31110SOL    HW295164  10.942  13.792   7.760
31111SOL     OW95165   9.721   2.688  11.790
31111SOL    HW195166   9.813   2.661  11.799
31111SOL    HW295167   9.725   2.767  11.737
31112SOL     OW95168  11.397   5.725   6.235
31112SOL    HW195169  11.475   5.747   6.184
31112SOL    HW295170  11.385   5.631   6.221
31113SOL     OW95171   8.402   5.332   1.370
31113SOL    HW195172   8.498   5.327   1.362
31113SOL    HW295173   8.386   5.418   1.407
31114SOL     OW95174   8.143   3.125   0.050
31114SOL    HW195175   8.104   3.205   0.015
31114SOL    HW295176   8.107   3.055  14.874
31115SOL     OW95177   9.068   2.248   8.094
31115SOL    HW195178   9.044   2.290   8.011
31115SOL    HW295179   9.112   2.167   8.068
31116SOL     OW95180  10.128   3.784  10.165
31116SOL    HW195181  10.161   3.780  10.255
31116SOL    HW295182  10.207   3.788  10.111
31117SOL     OW95183  14.570   8.687   0.947
31117SOL    HW195184  14.574   8.756   1.012
31117SOL    HW295185  14.604   8.726   0.867
31118SOL     OW95186  10.510  13.796   8.053
31118SOL    HW195187  10.552  13.871   8.011
31118SOL    HW295188  10.505  13.819   8.145
31119SOL     OW95189   4.877   5.013   9.547
31119SOL    HW195190   4.916   4.968   9.473
31119SOL    HW295191   4.798   5.054   9.510
31120SOL     OW95192   7.374   9.632  11.263
31120SOL    HW195193   7.415   9.554  11.300
31120SOL    HW295194   7.324   9.670  11.335
31121SOL     OW95195  12.930  12.784   4.053
31121SOL    HW195196  13.002  12.785   4.116
31121SOL    HW295197  12.924  12.875   4.023
31122SOL     OW95198   5.994   0.112   9.505
31122SOL    HW195199   5.909   0.145   9.474
31122SOL    HW295200   6.059   0.165   9.459
31123SOL     OW95201  14.481   5.008   9.629
31123SOL    HW195202  14.501   4.967   9.545
31123SOL    HW295203  14.551   5.072   9.642
31124SOL     OW95204  10.684   2.685   7.870
31124SOL    HW195205  10.742   2.634   7.813
31124SOL    HW295206  10.738   2.758   7.900
31125SOL     OW95207   1.609   0.703   7.609
31125SOL    HW195208   1.663   0.780   7.624
31125SOL    HW295209   1.566   0.687   7.693
31126SOL     OW95210  11.846  12.196   6.080
31126SOL    HW195211  11.866  12.143   6.002
31126SOL    HW295212  11.845  12.133   6.152
31127SOL     OW95213   9.030  12.577  12.044
31127SOL    HW195214   9.077  12.495  12.026
31127SOL    HW295215   8.941  12.549  12.066
31128SOL     OW95216   6.101  12.180   4.067
31128SOL    HW195217   6.131  12.119   4.135
31128SOL    HW295218   6.007  12.190   4.084
31129SOL     OW95219  14.049   4.476   3.794
31129SOL    HW195220  14.063   4.545   3.860
31129SOL    HW295221  14.135   4.464   3.753
31130SOL     OW95222   2.544   3.259   1.009
31130SOL    HW195223   2.596   3.205   1.068
31130SOL    HW295224   2.517   3.199   0.940
31131SOL     OW95225   1.388   4.967   9.519
31131SOL    HW195226   1.365   4.880   9.552
31131SOL    HW295227   1.482   4.963   9.505
31132SOL     OW95228   1.627   3.066   0.697
31132SOL    HW195229   1.588   3.059   0.784
31132SOL    HW295230   1.578   3.136   0.654
31133SOL     OW95231   5.891  13.087  11.298
31133SOL    HW195232   5.889  13.003  11.344
31133SOL    HW295233   5.890  13.153  11.368
31134SOL     OW95234   1.843   5.722   3.034
31134SOL    HW195235   1.793   5.715   2.953
31134SOL    HW295236   1.777   5.740   3.101
31135SOL     OW95237   6.518  13.017  13.064
31135SOL    HW195238   6.476  13.034  13.149
31135SOL    HW295239   6.600  12.973  13.087
31136SOL     OW95240  11.935   0.777   8.354
31136SOL    HW195241  11.914   0.859   8.399
31136SOL    HW295242  11.882   0.779   8.275
31137SOL     OW95243  11.203   0.040   1.384
31137SOL    HW195244  11.251  14.857   1.328
31137SOL    HW295245  11.270   0.103   1.412
31138SOL     OW95246   9.724  12.983  11.322
31138SOL    HW195247   9.789  12.924  11.361
31138SOL    HW295248   9.656  12.991  11.388
31139SOL     OW95249   7.793   4.696   6.871
31139SOL    HW195250   7.838   4.719   6.953
31139SOL    HW295251   7.724   4.635   6.898
31140SOL     OW95252  11.031  13.882   4.393
31140SOL    HW195253  11.106  13.930   4.427
31140SOL    HW295254  11.044  13.880   4.299
31141SOL     OW95255   5.011   3.397  13.660
31141SOL    HW195256   5.062   3.323  13.694
31141SOL    HW295257   5.029   3.468  13.721
31142SOL     OW95258   5.457   6.665   1.687
31142SOL    HW195259   5.471   6.752   1.647
31142SOL    HW295260   5.422   6.612   1.615
31143SOL     OW95261   3.706  14.458   8.559
31143SOL    HW195262   3.735  14.395   8.493
31143SOL    HW295263   3.613  14.442   8.569
31144SOL     OW95264   5.547   8.399   2.992
31144SOL    HW195265   5.514   8.488   2.989
31144SOL    HW295266   5.491   8.354   3.055
31145SOL     OW95267   3.910  11.209   0.519
31145SOL    HW195268   3.936  11.217   0.428
31145SOL    HW295269   3.981  11.249   0.568
31146SOL     OW95270  12.865   7.333  12.361
31146SOL    HW195271  12.866   7.422  12.326
31146SOL    HW295272  12.925   7.335  12.435
31147SOL     OW95273  11.556   4.012   4.886
31147SOL    HW195274  11.594   3.959   4.816
31147SOL    HW295275  11.465   3.983   4.892
31148SOL     OW95276   0.457   5.984   4.626
31148SOL    HW195277   0.544   5.945   4.617
31148SOL    HW295278   0.453   6.050   4.557
31149SOL     OW95279   2.846   0.460   8.634
31149SOL    HW195280   2.916   0.462   8.569
31149SOL    HW295281   2.892   0.466   8.718
31150SOL     OW95282  10.310   6.258   6.970
31150SOL    HW195283  10.325   6.165   6.953
31150SOL    HW295284  10.294   6.296   6.884
31151SOL     OW95285  12.422   6.256  12.708
31151SOL    HW195286  12.425   6.349  12.733
31151SOL    HW295287  12.510   6.236  12.677
31152SOL     OW95288  14.565   2.323   5.956
31152SOL    HW195289  14.627   2.315   6.029
31152SOL    HW295290  14.602   2.391   5.900
31153SOL     OW95291   1.172   2.616   1.864
31153SOL    HW195292   1.187   2.654   1.950
31153SOL    HW295293   1.086   2.575   1.871
31154SOL     OW95294   3.488   2.437   5.601
31154SOL    HW195295   3.517   2.371   5.539
31154SOL    HW295296   3.569   2.478   5.631
31155SOL     OW95297   6.468  14.009  14.432
31155SOL    HW195298   6.546  14.004  14.376
31155SOL    HW295299   6.398  14.037  14.373
31156SOL     OW95300   3.886   1.141  12.419
31156SOL    HW195301   3.855   1.056  12.387
31156SOL    HW295302   3.836   1.205  12.367
31157SOL     OW95303   4.605  14.578   5.038
31157SOL    HW195304   4.653  14.658   5.059
31157SOL    HW295305   4.520  14.609   5.008
31158SOL     OW95306   9.820   5.783  12.675
31158SOL    HW195307   9.761   5.834  12.731
31158SOL    HW295308   9.858   5.847  12.615
31159SOL     OW95309   0.350   3.500   3.758
31159SOL    HW195310   0.397   3.416   3.759
31159SOL    HW295311   0.268   3.481   3.803
31160SOL     OW95312  11.155   7.947   4.225
31160SOL    HW195313  11.202   7.990   4.296
31160SOL    HW295314  11.212   7.874   4.200
31161SOL     OW95315  12.241   1.574   7.226
31161SOL    HW195316  12.190   1.654   7.216
31161SOL    HW295317  12.196   1.510   7.172
31162SOL     OW95318   0.013   5.201   4.722
31162SOL    HW195319  14.814   5.250   4.747
31162SOL    HW295320   0.024   5.219   4.629
31163SOL     OW95321  10.198   6.927   4.367
31163SOL    HW195322  10.174   6.988   4.298
31163SOL    HW295323  10.159   6.964   4.447
31164SOL     OW95324   5.671   4.869   8.248
31164SOL    HW195325   5.639   4.779   8.255
31164SOL    HW295326   5.624   4.905   8.173
31165SOL     OW95327  11.400   5.279   9.455
31165SOL    HW195328  11.396   5.316   9.367
31165SOL    HW295329  11.326   5.218   9.459
31166SOL     OW95330   0.949   3.262  14.515
31166SOL    HW195331   0.863   3.230  14.489
31166SOL    HW295332   0.944   3.267  14.611
31167SOL     OW95333   8.073  11.263   0.703
31167SOL    HW195334   8.104  11.173   0.707
31167SOL    HW295335   8.142  11.314   0.746
31168SOL     OW95336   1.284   7.044   5.443
31168SOL    HW195337   1.361   6.997   5.412
31168SOL    HW295338   1.312   7.135   5.450
31169SOL     OW95339   5.646  13.948   1.654
31169SOL    HW195340   5.696  14.029   1.651
31169SOL    HW295341   5.555  13.976   1.658
31170SOL     OW95342   6.011  13.556   6.302
31170SOL    HW195343   6.079  13.496   6.334
31170SOL    HW295344   5.967  13.587   6.382
31171SOL     OW95345   8.058  11.453  11.394
31171SOL    HW195346   8.038  11.529  11.339
31171SOL    HW295347   8.143  11.422  11.363
31172SOL     OW95348  12.532   8.251  11.535
31172SOL    HW195349  12.456   8.298  11.568
31172SOL    HW295350  12.549   8.184  11.600
31173SOL     OW95351   7.203   3.505   3.698
31173SOL    HW195352   7.189   3.528   3.606
31173SOL    HW295353   7.191   3.588   3.745
31174SOL     OW95354   0.045   4.594  12.449
31174SOL    HW195355   0.106   4.584  12.376
31174SOL    HW295356   0.052   4.512  12.498
31175SOL     OW95357   6.750  12.718   8.834
31175SOL    HW195358   6.743  12.789   8.898
31175SOL    HW295359   6.659  12.696   8.812
31176SOL     OW95360   2.615  11.941   7.887
31176SOL    HW195361   2.583  12.024   7.852
31176SOL    HW295362   2.579  11.938   7.976
31177SOL     OW95363  10.408  14.090   1.212
31177SOL    HW195364  10.386  14.093   1.119
31177SOL    HW295365  10.484  14.148   1.221
31178SOL     OW95366   2.582  11.542  10.587
31178SOL    HW195367   2.585  11.635  10.567
31178SOL    HW295368   2.594  11.498  10.503
31179SOL     OW95369   0.721   7.828  10.089
31179SOL    HW195370   0.775   7.754  10.061
31179SOL    HW295371   0.664   7.792  10.158
31180SOL     OW95372   2.378   7.479   4.494
31180SOL    HW195373   2.465   7.519   4.490
31180SOL    HW295374   2.318   7.550   4.469
31181SOL     OW95375   6.612   6.266   8.917
31181SOL    HW195376   6.527   6.277   8.876
31181SOL    HW295377   6.675   6.269   8.845
31182SOL     OW95378  11.260  14.255   2.836
31182SOL    HW195379  11.167  14.241   2.815
31182SOL    HW295380  11.271  14.350   2.833
31183SOL     OW95381   6.177   8.712  12.292
31183SOL    HW195382   6.135   8.642  12.242
31183SOL    HW295383   6.223   8.764  12.226
31184SOL     OW95384   7.231  12.052   5.466
31184SOL    HW195385   7.203  11.961   5.476
31184SOL    HW295386   7.231  12.086   5.555
31185SOL     OW95387   5.489   8.802  14.868
31185SOL    HW195388   5.507   8.884   0.036
31185SOL    HW295389   5.495   8.734   0.057
31186SOL     OW95390  10.223   4.601   9.150
31186SOL    HW195391  10.202   4.634   9.238
31186SOL    HW295392  10.298   4.652   9.122
31187SOL     OW95393   0.870   1.769  13.214
31187SOL    HW195394   0.844   1.836  13.277
31187SOL    HW295395   0.810   1.696  13.230
31188SOL     OW95396  12.777   6.545  10.776
31188SOL    HW195397  12.824   6.462  10.768
31188SOL    HW295398  12.702   6.535  10.718
31189SOL     OW95399   6.687  10.666   2.760
31189SOL    HW195400   6.768  10.663   2.812
31189SOL    HW295401   6.617  10.677   2.825
31190SOL     OW95402  13.911  11.041   9.305
31190SOL    HW195403  13.859  10.975   9.260
31190SOL    HW295404  13.996  11.000   9.320
31191SOL     OW95405  14.390   2.473  13.515
31191SOL    HW195406  14.330   2.523  13.569
31191SOL    HW295407  14.409   2.529  13.440
31192SOL     OW95408   0.383   0.219   8.917
31192SOL    HW195409   0.465   0.184   8.882
31192SOL    HW295410   0.408   0.300   8.962
31193SOL     OW95411   6.673   2.082   9.239
31193SOL    HW195412   6.613   2.008   9.253
31193SOL    HW295413   6.752   2.058   9.287
31194SOL     OW95414   6.306   6.717   8.376
31194SOL    HW195415   6.341   6.803   8.398
31194SOL    HW295416   6.231   6.706   8.435
31195SOL     OW95417   7.313   3.555   6.226
31195SOL    HW195418   7.246   3.536   6.160
31195SOL    HW295419   7.376   3.483   6.218
31196SOL     OW95420   2.694   0.161  13.785
31196SOL    HW195421   2.614   0.159  13.838
31196SOL    HW295422   2.681   0.236  13.726
31197SOL     OW95423   8.849   0.543  12.843
31197SOL    HW195424   8.900   0.548  12.924
31197SOL    HW295425   8.814   0.454  12.842
31198SOL     OW95426   1.357   2.981  12.089
31198SOL    HW195427   1.315   2.911  12.039
31198SOL    HW295428   1.420   3.020  12.029
31199SOL     OW95429   6.123   8.854  13.841
31199SOL    HW195430   6.168   8.782  13.796
31199SOL    HW295431   6.187   8.884  13.906
31200SOL     OW95432   0.024   2.869  13.228
31200SOL    HW195433   0.002   2.888  13.137
31200SOL    HW295434   0.060   2.780  13.226
31201SOL     OW95435  14.687   2.873   5.268
31201SOL    HW195436  14.631   2.825   5.329
31201SOL    HW295437  14.685   2.964   5.299
31202SOL     OW95438  13.351   6.623   9.612
31202SOL    HW195439  13.446   6.614   9.613
31202SOL    HW295440  13.336   6.717   9.618
31203SOL     OW95441  14.110   0.352   0.873
31203SOL    HW195442  14.139   0.407   0.947
31203SOL    HW295443  14.018   0.378   0.860
31204SOL     OW95444  14.278  10.725   0.650
31204SOL    HW195445  14.192  10.766   0.652
31204SOL    HW295446  14.305  10.719   0.742
31205SOL     OW95447   9.978   6.719   3.100
31205SOL    HW195448   9.900   6.775   3.105
31205SOL    HW295449   9.953   6.639   3.145
31206SOL     OW95450  14.010  10.020   4.188
31206SOL    HW195451  14.096  10.038   4.226
31206SOL    HW295452  13.954  10.002   4.264
31207SOL     OW95453  14.562   7.890  14.674
31207SOL    HW195454  14.494   7.832  14.639
31207SOL    HW295455  14.604   7.838  14.743
31208SOL     OW95456   1.849   8.536   5.456
31208SOL    HW195457   1.822   8.459   5.407
31208SOL    HW295458   1.944   8.529   5.462
31209SOL     OW95459   9.633   8.987   0.951
31209SOL    HW195460   9.720   9.007   0.985
31209SOL    HW295461   9.591   8.935   1.019
31210SOL     OW95462   4.678  12.520  11.483
31210SOL    HW195463   4.735  12.597  11.487
31210SOL    HW295464   4.636  12.526  11.397
31211SOL     OW95465  13.467   1.513   1.062
31211SOL    HW195466  13.440   1.535   1.151
31211SOL    HW295467  13.413   1.437   1.039
31212SOL     OW95468  12.847  11.849   1.641
31212SOL    HW195469  12.872  11.935   1.676
31212SOL    HW295470  12.924  11.820   1.593
31213SOL     OW95471  13.813  10.928   7.769
31213SOL    HW195472  13.843  10.954   7.856
31213SOL    HW295473  13.717  10.926   7.777
31214SOL     OW95474   6.486   3.923   4.568
31214SOL    HW195475   6.480   3.997   4.629
31214SOL    HW295476   6.398   3.886   4.566
31215SOL     OW95477   1.126  13.755   6.789
31215SOL    HW195478   1.058  13.793   6.845
31215SOL    HW295479   1.127  13.811   6.712
31216SOL     OW95480   8.450  11.574   5.188
31216SOL    HW195481   8.443  11.485   5.155
31216SOL    HW295482   8.390  11.577   5.262
31217SOL     OW95483   0.776   8.652  11.393
31217SOL    HW195484   0.701   8.624  11.445
31217SOL    HW295485   0.811   8.572  11.355
31218SOL     OW95486  13.846   2.460   6.915
31218SOL    HW195487  13.847   2.514   6.836
31218SOL    HW295488  13.754   2.452   6.938
31219SOL     OW95489  11.960  12.193   3.536
31219SOL    HW195490  11.955  12.099   3.524
31219SOL    HW295491  11.974  12.228   3.448
31220SOL     OW95492   1.956  13.265   6.260
31220SOL    HW195493   1.903  13.234   6.186
31220SOL    HW295494   1.993  13.185   6.297
31221SOL     OW95495  10.224  14.100   8.748
31221SOL    HW195496  10.220  14.194   8.728
31221SOL    HW295497  10.147  14.063   8.704
31222SOL     OW95498   5.756   3.455   2.990
31222SOL    HW195499   5.676   3.422   3.032
31222SOL    HW295500   5.775   3.391   2.921
31223SOL     OW95501   3.044   6.961   4.256
31223SOL    HW195502   3.007   6.873   4.255
31223SOL    HW295503   3.129   6.952   4.297
31224SOL     OW95504  14.434  11.370  14.592
31224SOL    HW195505  14.383  11.294  14.621
31224SOL    HW295506  14.371  11.421  14.541
31225SOL     OW95507   6.077  14.399  14.594
31225SOL    HW195508   5.987  14.369  14.609
31225SOL    HW295509   6.080  14.486  14.632
31226SOL     OW95510   9.238  10.872   7.728
31226SOL    HW195511   9.167  10.812   7.750
31226SOL    HW295512   9.288  10.827   7.660
31227SOL     OW95513   2.362  12.466   5.865
31227SOL    HW195514   2.387  12.425   5.783
31227SOL    HW295515   2.313  12.398   5.912
31228SOL     OW95516   9.276   2.043   9.063
31228SOL    HW195517   9.304   2.112   9.123
31228SOL    HW295518   9.291   2.079   8.976
31229SOL     OW95519   6.111   6.270  12.656
31229SOL    HW195520   6.194   6.263  12.609
31229SOL    HW295521   6.133   6.315  12.738
31230SOL     OW95522   9.870  14.125  10.098
31230SOL    HW195523   9.814  14.152  10.025
31230SOL    HW295524   9.887  14.033  10.082
31231SOL     OW95525   6.094   6.531   8.248
31231SOL    HW195526   6.111   6.590   8.174
31231SOL    HW295527   6.145   6.568   8.320
31232SOL     OW95528   4.350  14.706   9.305
31232SOL    HW195529   4.349  14.801   9.316
31232SOL    HW295530   4.347  14.672   9.394
31233SOL     OW95531   6.466   0.865   7.243
31233SOL    HW195532   6.417   0.930   7.294
31233SOL    HW295533   6.399   0.816   7.196
31234SOL     OW95534  12.721  13.377   1.144
31234SOL    HW195535  12.815  13.383   1.162
31234SOL    HW295536  12.715  13.365   1.050
31235SOL     OW95537   6.315  12.196   9.627
31235SOL    HW195538   6.273  12.117   9.592
31235SOL    HW295539   6.246  12.262   9.623
31236SOL     OW95540   8.712   0.913  10.567
31236SOL    HW195541   8.789   0.856  10.561
31236SOL    HW295542   8.748   0.997  10.595
31237SOL     OW95543  13.345   2.693   3.236
31237SOL    HW195544  13.406   2.672   3.165
31237SOL    HW295545  13.400   2.736   3.302
31238SOL     OW95546   9.424  13.357   8.148
31238SOL    HW195547   9.378  13.297   8.207
31238SOL    HW295548   9.516  13.330   8.153
31239SOL     OW95549   1.807   2.169  14.148
31239SOL    HW195550   1.830   2.086  14.190
31239SOL    HW295551   1.732   2.148  14.093
31240SOL     OW95552  11.294   9.130   3.293
31240SOL    HW195553  11.371   9.132   3.237
31240SOL    HW295554  11.320   9.178   3.371
31241SOL     OW95555  13.913   1.505  11.687
31241SOL    HW195556  14.004   1.481  11.674
31241SOL    HW295557  13.890   1.557  11.610
31242SOL     OW95558   8.572  12.701   6.095
31242SOL    HW195559   8.588  12.774   6.155
31242SOL    HW295560   8.492  12.726   6.048
31243SOL     OW95561   1.060   7.131   7.628
31243SOL    HW195562   0.990   7.118   7.691
31243SOL    HW295563   1.015   7.153   7.546
31244SOL     OW95564   4.001   2.528   6.668
31244SOL    HW195565   3.913   2.563   6.652
31244SOL    HW295566   4.056   2.573   6.605
31245SOL     OW95567   6.577  14.029   0.168
31245SOL    HW195568   6.590  14.052   0.260
31245SOL    HW295569   6.665  14.026   0.130
31246SOL     OW95570   6.338   4.746   6.539
31246SOL    HW195571   6.433   4.752   6.552
31246SOL    HW295572   6.301   4.766   6.625
31247SOL     OW95573   6.048   8.722   2.404
31247SOL    HW195574   6.134   8.682   2.389
31247SOL    HW295575   6.016   8.743   2.317
31248SOL     OW95576   4.648   2.009   5.681
31248SOL    HW195577   4.696   1.988   5.761
31248SOL    HW295578   4.626   1.924   5.643
31249SOL     OW95579  12.980   4.888   2.108
31249SOL    HW195580  13.057   4.836   2.087
31249SOL    HW295581  12.938   4.841   2.180
31250SOL     OW95582  13.201  14.045   2.566
31250SOL    HW195583  13.162  14.131   2.579
31250SOL    HW295584  13.199  14.031   2.471
31251SOL     OW95585   2.371  13.117  13.443
31251SOL    HW195586   2.278  13.105  13.421
31251SOL    HW295587   2.381  13.211  13.454
31252SOL     OW95588   3.379   7.272  13.622
31252SOL    HW195589   3.462   7.308  13.653
31252SOL    HW295590   3.401   7.184  13.593
31253SOL     OW95591  10.397   3.525   3.121
31253SOL    HW195592  10.339   3.471   3.068
31253SOL    HW295593  10.344   3.550   3.197
31254SOL     OW95594   1.462   2.645  12.118
31254SOL    HW195595   1.446   2.695  12.199
31254SOL    HW295596   1.391   2.672  12.059
31255SOL     OW95597   0.606   4.579   1.276
31255SOL    HW195598   0.622   4.502   1.330
31255SOL    HW295599   0.693   4.605   1.245
31256SOL     OW95600  14.715   9.098   5.267
31256SOL    HW195601  14.766   9.045   5.329
31256SOL    HW295602  14.694   9.178   5.316
31257SOL     OW95603   6.119   5.825   5.192
31257SOL    HW195604   6.076   5.742   5.212
31257SOL    HW295605   6.057   5.892   5.221
31258SOL     OW95606   8.332  13.148  12.694
31258SOL    HW195607   8.382  13.152  12.775
31258SOL    HW295608   8.399  13.150  12.625
31259SOL     OW95609   9.360   0.567  10.603
31259SOL    HW195610   9.362   0.634  10.535
31259SOL    HW295611   9.414   0.495  10.569
31260SOL     OW95612   4.045   8.805  12.103
31260SOL    HW195613   4.057   8.710  12.113
31260SOL    HW295614   4.064   8.841  12.190
31261SOL     OW95615  12.145  13.764   7.525
31261SOL    HW195616  12.113  13.841   7.477
31261SOL    HW295617  12.080  13.696   7.505
31262SOL     OW95618   8.343   6.859   5.031
31262SOL    HW195619   8.271   6.901   5.077
31262SOL    HW295620   8.351   6.908   4.949
31263SOL     OW95621   0.276   3.835   4.679
31263SOL    HW195622   0.366   3.859   4.658
31263SOL    HW295623   0.264   3.863   4.770
31264SOL     OW95624   1.015   6.886  12.165
31264SOL    HW195625   1.082   6.909  12.230
31264SOL    HW295626   1.045   6.803  12.128
31265SOL     OW95627   5.618   2.867   4.088
31265SOL    HW195628   5.713   2.871   4.086
31265SOL    HW295629   5.598   2.802   4.156
31266SOL     OW95630   3.605   5.564   4.986
31266SOL    HW195631   3.581   5.520   4.904
31266SOL    HW295632   3.621   5.655   4.960
31267SOL     OW95633   9.223  14.771  13.544
31267SOL    HW195634   9.156  14.704  13.534
31267SOL    HW295635   9.175  14.851  13.567
31268SOL     OW95636   6.818   0.646  13.551
31268SOL    HW195637   6.904   0.640  13.593
31268SOL    HW295638   6.757   0.616  13.618
31269SOL     OW95639   6.960  11.208   2.893
31269SOL    HW195640   6.993  11.118   2.887
31269SOL    HW295641   6.869  11.201   2.865
31270SOL     OW95642   2.690   4.793   1.770
31270SOL    HW195643   2.706   4.777   1.677
31270SOL    HW295644   2.739   4.723   1.815
31271SOL     OW95645  12.599   7.779   1.057
31271SOL    HW195646  12.606   7.871   1.032
31271SOL    HW295647  12.610   7.779   1.152
31272SOL     OW95648   0.344   3.023  12.572
31272SOL    HW195649   0.321   3.114  12.589
31272SOL    HW295650   0.275   2.990  12.514
31273SOL     OW95651   3.476  13.430  14.718
31273SOL    HW195652   3.514  13.433  14.630
31273SOL    HW295653   3.546  13.395  14.773
31274SOL     OW95654  12.738  12.280   3.885
31274SOL    HW195655  12.667  12.332   3.923
31274SOL    HW295656  12.809  12.285   3.949
31275SOL     OW95657   7.674   4.932  13.362
31275SOL    HW195658   7.669   5.005  13.423
31275SOL    HW295659   7.676   4.853  13.417
31276SOL     OW95660  13.375  13.626   2.569
31276SOL    HW195661  13.304  13.627   2.504
31276SOL    HW295662  13.377  13.715   2.603
31277SOL     OW95663  14.641   5.569   5.385
31277SOL    HW195664  14.659   5.599   5.474
31277SOL    HW295665  14.624   5.475   5.394
31278SOL     OW95666   4.303  12.352  10.371
31278SOL    HW195667   4.279  12.367  10.463
31278SOL    HW295668   4.389  12.310  10.376
31279SOL     OW95669   7.549  11.747  10.901
31279SOL    HW195670   7.623  11.752  10.962
31279SOL    HW295671   7.483  11.806  10.937
31280SOL     OW95672   3.873   6.233   0.919
31280SOL    HW195673   3.936   6.214   0.850
31280SOL    HW295674   3.920   6.289   0.980
31281SOL     OW95675   8.033   2.208  13.766
31281SOL    HW195676   8.018   2.302  13.778
31281SOL    HW295677   8.024   2.171  13.854
31282SOL     OW95678  12.922  11.618   5.046
31282SOL    HW195679  12.947  11.574   5.127
31282SOL    HW295680  12.884  11.701   5.074
31283SOL     OW95681  13.994  10.526   6.367
31283SOL    HW195682  13.993  10.563   6.279
31283SOL    HW295683  14.007  10.602   6.425
31284SOL     OW95684  11.292   3.508   0.348
31284SOL    HW195685  11.296   3.419   0.383
31284SOL    HW295686  11.209   3.543   0.380
31285SOL     OW95687   2.554   6.752  12.622
31285SOL    HW195688   2.595   6.819  12.676
31285SOL    HW295689   2.543   6.677  12.681
31286SOL     OW95690   9.305  12.670   5.275
31286SOL    HW195691   9.301  12.719   5.358
31286SOL    HW295692   9.240  12.713   5.219
31287SOL     OW95693   0.883   6.582   4.964
31287SOL    HW195694   0.963   6.584   4.912
31287SOL    HW295695   0.905   6.625   5.046
31288SOL     OW95696   5.973  13.939  12.436
31288SOL    HW195697   5.969  14.012  12.498
31288SOL    HW295698   5.973  13.980  12.350
31289SOL     OW95699   2.724   4.268   5.593
31289SOL    HW195700   2.745   4.186   5.637
31289SOL    HW295701   2.683   4.322   5.661
31290SOL     OW95702  12.091   8.280  12.446
31290SOL    HW195703  12.040   8.286  12.527
31290SOL    HW295704  12.032   8.310  12.378
31291SOL     OW95705  11.057  11.895   0.117
31291SOL    HW195706  10.973  11.939   0.130
31291SOL    HW295707  11.080  11.912   0.026
31292SOL     OW95708  13.231   4.337  13.305
31292SOL    HW195709  13.150   4.350  13.355
31292SOL    HW295710  13.294   4.397  13.346
31293SOL     OW95711  11.408   1.947   2.859
31293SOL    HW195712  11.388   1.854   2.854
31293SOL    HW295713  11.452   1.957   2.944
31294SOL     OW95714   4.278  10.332   3.198
31294SOL    HW195715   4.278  10.326   3.294
31294SOL    HW295716   4.260  10.243   3.169
31295SOL     OW95717   1.413  13.871   8.912
31295SOL    HW195718   1.494  13.850   8.958
31295SOL    HW295719   1.439  13.885   8.821
31296SOL     OW95720   1.378   4.878   9.085
31296SOL    HW195721   1.380   4.795   9.133
31296SOL    HW295722   1.299   4.872   9.030
31297SOL     OW95723   6.579  13.254   8.269
31297SOL    HW195724   6.485  13.246   8.285
31297SOL    HW295725   6.620  13.197   8.333
31298SOL     OW95726   3.701   7.918  13.658
31298SOL    HW195727   3.715   8.011  13.641
31298SOL    HW295728   3.770   7.894  13.720
31299SOL     OW95729   2.025   9.761   9.956
31299SOL    HW195730   1.943   9.721   9.984
31299SOL    HW295731   2.089   9.690   9.959
31300SOL     OW95732  11.367   2.000  12.133
31300SOL    HW195733  11.323   2.054  12.067
31300SOL    HW295734  11.298   1.981  12.197
31301SOL     OW95735   8.188  13.893   8.033
31301SOL    HW195736   8.176  13.986   8.053
31301SOL    HW295737   8.182  13.889   7.938
31302SOL     OW95738   6.656   7.939   0.157
31302SOL    HW195739   6.728   7.881   0.181
31302SOL    HW295740   6.601   7.942   0.235
31303SOL     OW95741   8.008  12.505   2.131
31303SOL    HW195742   8.039  12.424   2.172
31303SOL    HW295743   7.925  12.480   2.089
31304SOL     OW95744   5.634   7.272   0.911
31304SOL    HW195745   5.578   7.333   0.864
31304SOL    HW295746   5.574   7.210   0.953
31305SOL     OW95747   4.769   2.144   4.327
31305SOL    HW195748   4.702   2.094   4.372
31305SOL    HW295749   4.751   2.132   4.234
31306SOL     OW95750  11.658   8.278   9.900
31306SOL    HW195751  11.591   8.322   9.848
31306SOL    HW295752  11.615   8.199   9.933
31307SOL     OW95753  10.693   9.137   1.822
31307SOL    HW195754  10.610   9.145   1.869
31307SOL    HW295755  10.749   9.203   1.862
31308SOL     OW95756  10.442  13.329   0.979
31308SOL    HW195757  10.413  13.419   0.960
31308SOL    HW295758  10.537  13.336   0.987
31309SOL     OW95759   2.840   8.351  13.540
31309SOL    HW195760   2.912   8.297  13.572
31309SOL    HW295761   2.879   8.437  13.526
31310SOL     OW95762   1.703  11.045   6.854
31310SOL    HW195763   1.795  11.024   6.870
31310SOL    HW295764   1.671  11.077   6.938
31311SOL     OW95765   6.303  11.645   5.879
31311SOL    HW195766   6.226  11.642   5.936
31311SOL    HW295767   6.313  11.738   5.857
31312SOL     OW95768  11.837   6.880  14.440
31312SOL    HW195769  11.831   6.785  14.439
31312SOL    HW295770  11.826   6.906  14.349
31313SOL     OW95771  11.043   9.917   8.258
31313SOL    HW195772  11.080   9.846   8.206
31313SOL    HW295773  10.960   9.937   8.216
31314SOL     OW95774  12.144   3.817   8.957
31314SOL    HW195775  12.219   3.792   9.011
31314SOL    HW295776  12.101   3.886   9.007
31315SOL     OW95777   3.394   5.778   2.073
31315SOL    HW195778   3.326   5.756   2.008
31315SOL    HW295779   3.410   5.695   2.119
31316SOL     OW95780   8.038   7.159   3.318
31316SOL    HW195781   8.008   7.087   3.375
31316SOL    HW295782   7.966   7.172   3.256
31317SOL     OW95783   9.613  10.358   4.384
31317SOL    HW195784   9.525  10.386   4.408
31317SOL    HW295785   9.632  10.405   4.302
31318SOL     OW95786  13.143  12.958   5.320
31318SOL    HW195787  13.185  13.002   5.246
31318SOL    HW295788  13.180  13.000   5.397
31319SOL     OW95789   2.094   3.629   7.689
31319SOL    HW195790   2.038   3.666   7.621
31319SOL    HW295791   2.142   3.705   7.723
31320SOL     OW95792  13.740   4.880   2.042
31320SOL    HW195793  13.749   4.823   2.118
31320SOL    HW295794  13.829   4.885   2.006
31321SOL     OW95795   5.444  10.134   4.526
31321SOL    HW195796   5.435  10.113   4.433
31321SOL    HW295797   5.481  10.055   4.565
31322SOL     OW95798   4.616  14.237   7.458
31322SOL    HW195799   4.584  14.148   7.444
31322SOL    HW295800   4.536  14.290   7.466
31323SOL     OW95801   2.093  14.799   8.182
31323SOL    HW195802   2.161  14.796   8.114
31323SOL    HW295803   2.104  14.717   8.230
31324SOL     OW95804   5.367   0.062  14.373
31324SOL    HW195805   5.340   0.144  14.331
31324SOL    HW295806   5.332   0.068  14.462
31325SOL     OW95807   3.257   9.339  14.143
31325SOL    HW195808   3.252   9.296  14.057
31325SOL    HW295809   3.206   9.282  14.201
31326SOL     OW95810  12.579   8.739   2.537
31326SOL    HW195811  12.600   8.647   2.554
31326SOL    HW295812  12.491   8.737   2.501
31327SOL     OW95813  10.620   7.761  12.756
31327SOL    HW195814  10.639   7.806  12.838
31327SOL    HW295815  10.694   7.702  12.743
31328SOL     OW95816   1.125  14.667   9.244
31328SOL    HW195817   1.206  14.621   9.266
31328SOL    HW295818   1.057  14.599   9.243
31329SOL     OW95819   7.424  14.020   8.908
31329SOL    HW195820   7.339  13.976   8.900
31329SOL    HW295821   7.430  14.042   9.001
31330SOL     OW95822   9.906   9.724   7.635
31330SOL    HW195823   9.855   9.645   7.651
31330SOL    HW295824   9.851   9.776   7.576
31331SOL     OW95825  10.914   3.370   1.882
31331SOL    HW195826  10.821   3.352   1.871
31331SOL    HW295827  10.916   3.443   1.944
31332SOL     OW95828   7.853  12.541  13.146
31332SOL    HW195829   7.928  12.482  13.132
31332SOL    HW295830   7.879  12.594  13.221
31333SOL     OW95831   2.568   0.846   3.593
31333SOL    HW195832   2.519   0.908   3.539
31333SOL    HW295833   2.650   0.832   3.545
31334SOL     OW95834   3.914   8.639   6.447
31334SOL    HW195835   3.929   8.546   6.434
31334SOL    HW295836   4.001   8.679   6.441
31335SOL     OW95837   4.064   0.120   2.401
31335SOL    HW195838   4.130   0.189   2.409
31335SOL    HW295839   3.989   0.152   2.451
31336SOL     OW95840  10.964  10.683   1.010
31336SOL    HW195841  11.019  10.631   1.069
31336SOL    HW295842  11.026  10.727   0.953
31337SOL     OW95843   1.877   6.356  10.961
31337SOL    HW195844   1.905   6.370  11.051
31337SOL    HW295845   1.790   6.315  10.969
31338SOL     OW95846  12.108   3.558  13.651
31338SOL    HW195847  12.190   3.512  13.634
31338SOL    HW295848  12.105   3.626  13.584
31339SOL     OW95849   8.972   1.678   2.582
31339SOL    HW195850   8.881   1.682   2.611
31339SOL    HW295851   9.011   1.608   2.633
31340SOL     OW95852   3.975   3.185   9.711
31340SOL    HW195853   3.989   3.155   9.621
31340SOL    HW295854   3.992   3.109   9.765
31341SOL     OW95855   5.212   3.520   9.312
31341SOL    HW195856   5.137   3.568   9.349
31341SOL    HW295857   5.230   3.452   9.377
31342SOL     OW95858  14.506   0.676  13.407
31342SOL    HW195859  14.568   0.624  13.457
31342SOL    HW295860  14.547   0.763  13.401
31343SOL     OW95861   0.358   4.161   1.415
31343SOL    HW195862   0.280   4.106   1.419
31343SOL    HW295863   0.329   4.240   1.368
31344SOL     OW95864   0.554  12.713  10.076
31344SOL    HW195865   0.489  12.778  10.102
31344SOL    HW295866   0.606  12.698  10.155
31345SOL     OW95867   6.543   7.429  13.551
31345SOL    HW195868   6.610   7.455  13.614
31345SOL    HW295869   6.463   7.417  13.603
31346SOL     OW95870   4.720   2.114   6.490
31346SOL    HW195871   4.773   2.034   6.498
31346SOL    HW295872   4.772   2.180   6.536
31347SOL     OW95873   0.112   5.181  12.478
31347SOL    HW195874   0.053   5.200  12.551
31347SOL    HW295875   0.134   5.267  12.442
31348SOL     OW95876   6.721   1.343   8.814
31348SOL    HW195877   6.737   1.419   8.758
31348SOL    HW295878   6.800   1.334   8.866
31349SOL     OW95879  12.246   7.331  12.465
31349SOL    HW195880  12.304   7.278  12.519
31349SOL    HW295881  12.220   7.272  12.394
31350SOL     OW95882   7.524  12.546   2.712
31350SOL    HW195883   7.576  12.469   2.689
31350SOL    HW295884   7.451  12.512   2.763
31351SOL     OW95885   6.710  12.351   2.649
31351SOL    HW195886   6.735  12.323   2.561
31351SOL    HW295887   6.788  12.393   2.684
31352SOL     OW95888   7.172   8.040   4.779
31352SOL    HW195889   7.111   7.971   4.753
31352SOL    HW295890   7.232   7.996   4.840
31353SOL     OW95891   1.240   4.326   3.683
31353SOL    HW195892   1.330   4.330   3.652
31353SOL    HW295893   1.195   4.396   3.637
31354SOL     OW95894   6.285  14.654   5.071
31354SOL    HW195895   6.216  14.689   5.126
31354SOL    HW295896   6.344  14.610   5.133
31355SOL     OW95897   6.953   1.194   9.914
31355SOL    HW195898   6.876   1.229   9.961
31355SOL    HW295899   6.969   1.258   9.845
31356SOL     OW95900  14.134  12.190  14.571
31356SOL    HW195901  14.165  12.141  14.496
31356SOL    HW295902  14.170  12.278  14.559
31357SOL     OW95903   0.019   4.882   5.610
31357SOL    HW195904   0.021   4.857   5.517
31357SOL    HW295905  14.842   4.960   5.613
31358SOL     OW95906  14.709   9.747  10.064
31358SOL    HW195907  14.775   9.811  10.039
31358SOL    HW295908  14.722   9.735  10.158
31359SOL     OW95909   4.042   5.684   8.072
31359SOL    HW195910   4.078   5.726   8.150
31359SOL    HW295911   4.102   5.710   8.001
31360SOL     OW95912   8.815   2.862  11.395
31360SOL    HW195913   8.823   2.901  11.308
31360SOL    HW295914   8.724   2.880  11.421
31361SOL     OW95915   2.781   8.949   1.421
31361SOL    HW195916   2.766   9.035   1.460
31361SOL    HW295917   2.734   8.951   1.337
31362SOL     OW95918   0.860   7.139   8.289
31362SOL    HW195919   0.917   7.062   8.287
31362SOL    HW295920   0.807   7.127   8.368
31363SOL     OW95921   1.917   8.077   0.293
31363SOL    HW195922   1.965   7.994   0.293
31363SOL    HW295923   1.948   8.124   0.215
31364SOL     OW95924  13.552   2.425   3.304
31364SOL    HW195925  13.584   2.503   3.260
31364SOL    HW295926  13.566   2.354   3.241
31365SOL     OW95927  12.712   4.822  11.688
31365SOL    HW195928  12.685   4.859  11.772
31365SOL    HW295929  12.634   4.778  11.655
31366SOL     OW95930   2.787  10.424   5.801
31366SOL    HW195931   2.767  10.342   5.846
31366SOL    HW295932   2.815  10.483   5.871
31367SOL     OW95933   7.294  11.999  10.828
31367SOL    HW195934   7.276  12.082  10.784
31367SOL    HW295935   7.208  11.970  10.859
31368SOL     OW95936  12.570   2.604   0.516
31368SOL    HW195937  12.514   2.574   0.587
31368SOL    HW295938  12.548   2.696   0.505
31369SOL     OW95939   2.941   3.926  12.103
31369SOL    HW195940   2.850   3.906  12.126
31369SOL    HW295941   2.983   3.947  12.186
31370SOL     OW95942  11.425   2.409   8.884
31370SOL    HW195943  11.377   2.485   8.851
31370SOL    HW295944  11.404   2.406   8.978
31371SOL     OW95945   8.331   1.169  14.416
31371SOL    HW195946   8.259   1.183  14.353
31371SOL    HW295947   8.409   1.165  14.361
31372SOL     OW95948   5.354   1.903   9.326
31372SOL    HW195949   5.266   1.923   9.296
31372SOL    HW295950   5.345   1.886   9.420
31373SOL     OW95951   1.614   1.799   3.525
31373SOL    HW195952   1.639   1.805   3.432
31373SOL    HW295953   1.675   1.857   3.570
31374SOL     OW95954   6.360  12.085   0.634
31374SOL    HW195955   6.365  12.033   0.714
31374SOL    HW295956   6.443  12.068   0.589
31375SOL     OW95957  13.580   8.637   5.880
31375SOL    HW195958  13.638   8.634   5.804
31375SOL    HW295959  13.557   8.729   5.890
31376SOL     OW95960  13.803   6.893   9.826
31376SOL    HW195961  13.846   6.939   9.898
31376SOL    HW295962  13.836   6.803   9.833
31377SOL     OW95963  10.709   6.727   6.403
31377SOL    HW195964  10.724   6.821   6.402
31377SOL    HW295965  10.748   6.698   6.485
31378SOL     OW95966   7.271   6.026   0.288
31378SOL    HW195967   7.258   5.932   0.303
31378SOL    HW295968   7.187   6.058   0.255
31379SOL     OW95969   6.555   4.015   3.374
31379SOL    HW195970   6.538   3.954   3.445
31379SOL    HW295971   6.486   4.081   3.381
31380SOL     OW95972   3.246   8.425   8.599
31380SOL    HW195973   3.242   8.486   8.526
31380SOL    HW295974   3.268   8.341   8.559
31381SOL     OW95975   9.527  13.745   8.503
31381SOL    HW195976   9.507  13.836   8.479
31381SOL    HW295977   9.604  13.723   8.450
31382SOL     OW95978  13.494   6.037   5.831
31382SOL    HW195979  13.415   6.008   5.785
31382SOL    HW295980  13.464   6.052   5.921
31383SOL     OW95981  14.508   8.858   9.371
31383SOL    HW195982  14.585   8.804   9.351
31383SOL    HW295983  14.464   8.812   9.442
31384SOL     OW95984  13.234   7.069  14.497
31384SOL    HW195985  13.316   7.065  14.546
31384SOL    HW295986  13.260   7.055  14.406
31385SOL     OW95987  11.366   8.061  11.979
31385SOL    HW195988  11.454   8.056  12.016
31385SOL    HW295989  11.380   8.065  11.884
31386SOL     OW95990   1.048  10.184   2.210
31386SOL    HW195991   1.135  10.155   2.184
31386SOL    HW295992   0.993  10.166   2.134
31387SOL     OW95993   7.322  13.602   5.072
31387SOL    HW195994   7.309  13.681   5.123
31387SOL    HW295995   7.343  13.634   4.984
31388SOL     OW95996   5.324   4.313   0.719
31388SOL    HW195997   5.383   4.237   0.714
31388SOL    HW295998   5.382   4.386   0.744
31389SOL     OW95999  11.966  10.321   5.098
31389SOL    HW196000  12.015  10.270   5.033
31389SOL    HW296001  11.883  10.340   5.056
31390SOL     OW96002  13.968  11.749   4.707
31390SOL    HW196003  14.032  11.783   4.644
31390SOL    HW296004  13.933  11.827   4.750
31391SOL     OW96005   9.408  10.630   0.120
31391SOL    HW196006   9.466  10.681   0.176
31391SOL    HW296007   9.363  10.695   0.067
31392SOL     OW96008   7.223   2.477  12.177
31392SOL    HW196009   7.295   2.530  12.145
31392SOL    HW296010   7.163   2.469  12.103
31393SOL     OW96011  10.445  10.284  10.641
31393SOL    HW196012  10.386  10.297  10.567
31393SOL    HW296013  10.453  10.189  10.650
31394SOL     OW96014   1.455  10.000   0.016
31394SOL    HW196015   1.373  10.050   0.022
31394SOL    HW296016   1.426   9.909   0.010
31395SOL     OW96017   8.657   4.547  11.566
31395SOL    HW196018   8.744   4.587  11.563
31395SOL    HW296019   8.658   4.496  11.647
31396SOL     OW96020   2.912   0.732  11.040
31396SOL    HW196021   2.868   0.647  11.045
31396SOL    HW296022   2.955   0.731  10.954
31397SOL     OW96023   3.212   9.754   2.411
31397SOL    HW196024   3.259   9.718   2.336
31397SOL    HW296025   3.142   9.692   2.428
31398SOL     OW96026  12.389  10.310   5.482
31398SOL    HW196027  12.454  10.262   5.430
31398SOL    HW296028  12.307  10.296   5.436
31399SOL     OW96029   7.472  14.291  11.683
31399SOL    HW196030   7.386  14.270  11.648
31399SOL    HW296031   7.463  14.379  11.719
31400SOL     OW96032  12.347   5.316   1.781
31400SOL    HW196033  12.305   5.233   1.760
31400SOL    HW296034  12.276   5.380   1.781
31401SOL     OW96035  10.609   0.834  14.802
31401SOL    HW196036  10.572   0.757  14.759
31401SOL    HW296037  10.540   0.864  14.860
31402SOL     OW96038   3.546   6.228  10.032
31402SOL    HW196039   3.451   6.228  10.039
31402SOL    HW296040   3.571   6.138  10.054
31403SOL     OW96041   6.817  13.051  13.256
31403SOL    HW196042   6.824  12.983  13.324
31403SOL    HW296043   6.814  13.002  13.174
31404SOL     OW96044  14.868   5.320   5.704
31404SOL    HW196045  14.850   5.226   5.702
31404SOL    HW296046   0.005   5.338   5.797
31405SOL     OW96047  11.853  13.565   2.230
31405SOL    HW196048  11.904  13.631   2.277
31405SOL    HW296049  11.804  13.519   2.298
31406SOL     OW96050  10.161   2.086  14.828
31406SOL    HW196051  10.110   2.142   0.008
31406SOL    HW296052  10.115   2.090  14.744
31407SOL     OW96053  14.002  11.054   2.085
31407SOL    HW196054  14.046  11.091   2.161
31407SOL    HW296055  13.928  11.113   2.068
31408SOL     OW96056   0.081  11.231   2.637
31408SOL    HW196057   0.060  11.203   2.726
31408SOL    HW296058   0.177  11.229   2.633
31409SOL     OW96059   5.791   3.586  11.187
31409SOL    HW196060   5.782   3.626  11.100
31409SOL    HW296061   5.723   3.628  11.240
31410SOL     OW96062  13.322  11.626   8.261
31410SOL    HW196063  13.412  11.603   8.288
31410SOL    HW296064  13.289  11.679   8.333
31411SOL     OW96065   7.719  11.354   7.974
31411SOL    HW196066   7.626  11.363   7.953
31411SOL    HW296067   7.730  11.400   8.057
31412SOL     OW96068   0.177   5.920   2.341
31412SOL    HW196069   0.235   5.937   2.416
31412SOL    HW296070   0.091   5.904   2.380
31413SOL     OW96071  10.721   6.613  14.123
31413SOL    HW196072  10.759   6.647  14.042
31413SOL    HW296073  10.628   6.599  14.102
31414SOL     OW96074  12.923   2.735  13.396
31414SOL    HW196075  12.926   2.646  13.361
31414SOL    HW296076  12.984   2.785  13.341
31415SOL     OW96077   2.531  12.891   0.802
31415SOL    HW196078   2.444  12.893   0.841
31415SOL    HW296079   2.586  12.939   0.864
31416SOL     OW96080  13.060   6.241   2.177
31416SOL    HW196081  13.054   6.146   2.173
31416SOL    HW296082  13.154   6.260   2.171
31417SOL     OW96083   1.839   4.188   1.229
31417SOL    HW196084   1.894   4.117   1.197
31417SOL    HW296085   1.775   4.146   1.286
31418SOL     OW96086   7.969   5.714   3.542
31418SOL    HW196087   8.062   5.733   3.543
31418SOL    HW296088   7.938   5.737   3.629
31419SOL     OW96089   0.311   0.996  14.308
31419SOL    HW196090   0.221   1.007  14.338
31419SOL    HW296091   0.310   0.915  14.257
31420SOL     OW96092   5.657  12.908   1.810
31420SOL    HW196093   5.744  12.924   1.849
31420SOL    HW296094   5.652  12.813   1.801
31421SOL     OW96095   8.645   1.917   7.187
31421SOL    HW196096   8.717   1.944   7.244
31421SOL    HW296097   8.688   1.863   7.120
31422SOL     OW96098   9.104   5.767   4.235
31422SOL    HW196099   9.199   5.769   4.234
31422SOL    HW296100   9.079   5.816   4.313
31423SOL     OW96101  10.585   4.653  12.284
31423SOL    HW196102  10.636   4.613  12.355
31423SOL    HW296103  10.649   4.703  12.234
31424SOL     OW96104   1.115   1.937  10.066
31424SOL    HW196105   1.096   1.916   9.974
31424SOL    HW296106   1.139   1.853  10.105
31425SOL     OW96107  14.778   2.960   9.774
31425SOL    HW196108  14.753   3.006   9.854
31425SOL    HW296109  14.750   2.869   9.790
31426SOL     OW96110   5.730   4.879   3.473
31426SOL    HW196111   5.707   4.915   3.387
31426SOL    HW296112   5.678   4.798   3.480
31427SOL     OW96113   8.858   6.595   7.091
31427SOL    HW196114   8.768   6.619   7.112
31427SOL    HW296115   8.910   6.632   7.163
31428SOL     OW96116   7.661   6.953  13.549
31428SOL    HW196117   7.747   6.978  13.583
31428SOL    HW296118   7.681   6.913  13.463
31429SOL     OW96119   6.727   4.080   6.458
31429SOL    HW196120   6.774   4.163   6.459
31429SOL    HW296121   6.722   4.056   6.366
31430SOL     OW96122  12.861  13.469  12.106
31430SOL    HW196123  12.775  13.457  12.067
31430SOL    HW296124  12.875  13.391  12.160
31431SOL     OW96125   2.985   6.831   2.975
31431SOL    HW196126   2.972   6.749   3.024
31431SOL    HW296127   2.936   6.819   2.894
31432SOL     OW96128   8.826   8.198   3.859
31432SOL    HW196129   8.827   8.263   3.789
31432SOL    HW296130   8.754   8.140   3.838
31433SOL     OW96131   6.381  10.152  13.527
31433SOL    HW196132   6.368  10.058  13.542
31433SOL    HW296133   6.415  10.185  13.610
31434SOL     OW96134   0.569   1.650   0.620
31434SOL    HW196135   0.600   1.731   0.663
31434SOL    HW296136   0.531   1.599   0.691
31435SOL     OW96137   1.671   9.451   4.691
31435SOL    HW196138   1.653   9.468   4.784
31435SOL    HW296139   1.748   9.505   4.672
31436SOL     OW96140  11.227   8.868  14.375
31436SOL    HW196141  11.171   8.791  14.365
31436SOL    HW296142  11.181   8.937  14.328
31437SOL     OW96143  10.115   8.687   9.972
31437SOL    HW196144  10.070   8.650   9.896
31437SOL    HW296145  10.155   8.612  10.015
31438SOL     OW96146   6.733   6.717  14.239
31438SOL    HW196147   6.681   6.639  14.261
31438SOL    HW296148   6.713   6.733  14.146
31439SOL     OW96149   7.061   6.429   6.408
31439SOL    HW196150   7.073   6.523   6.398
31439SOL    HW296151   7.144   6.391   6.380
31440SOL     OW96152   0.802   7.066   1.619
31440SOL    HW196153   0.734   7.129   1.644
31440SOL    HW296154   0.847   7.107   1.545
31441SOL     OW96155   6.356  12.327   5.074
31441SOL    HW196156   6.341  12.242   5.032
31441SOL    HW296157   6.302  12.389   5.024
31442SOL     OW96158  12.691   2.094   9.528
31442SOL    HW196159  12.776   2.079   9.485
31442SOL    HW296160  12.666   2.008   9.561
31443SOL     OW96161  11.641   6.255   7.466
31443SOL    HW196162  11.720   6.261   7.413
31443SOL    HW296163  11.605   6.343   7.466
31444SOL     OW96164   4.027  10.030   0.924
31444SOL    HW196165   3.977  10.055   0.846
31444SOL    HW296166   3.961  10.011   0.990
31445SOL     OW96167  12.092   6.582   9.083
31445SOL    HW196168  12.150   6.581   9.007
31445SOL    HW296169  12.128   6.515   9.141
31446SOL     OW96170  10.334  10.122   8.746
31446SOL    HW196171  10.272  10.052   8.725
31446SOL    HW296172  10.279  10.197   8.768
31447SOL     OW96173   5.752   7.257   5.023
31447SOL    HW196174   5.657   7.267   5.035
31447SOL    HW296175   5.763   7.164   5.001
31448SOL     OW96176   2.334   2.006  14.809
31448SOL    HW196177   2.261   2.066  14.792
31448SOL    HW296178   2.339   1.952  14.731
31449SOL     OW96179   9.522  14.332  13.501
31449SOL    HW196180   9.548  14.362  13.414
31449SOL    HW296181   9.544  14.405  13.559
31450SOL     OW96182   6.577  10.353   7.689
31450SOL    HW196183   6.621  10.419   7.742
31450SOL    HW296184   6.643  10.325   7.626
31451SOL     OW96185   9.900   6.160   1.642
31451SOL    HW196186   9.899   6.066   1.662
31451SOL    HW296187   9.813   6.190   1.667
31452SOL     OW96188  10.271   7.607   5.828
31452SOL    HW196189  10.199   7.635   5.771
31452SOL    HW296190  10.268   7.512   5.825
31453SOL     OW96191   1.885   8.491  13.596
31453SOL    HW196192   1.883   8.401  13.566
31453SOL    HW296193   1.817   8.496  13.662
31454SOL     OW96194   0.683  14.342  11.650
31454SOL    HW196195   0.722  14.361  11.565
31454SOL    HW296196   0.758  14.324  11.707
31455SOL     OW96197  10.337   7.103  13.162
31455SOL    HW196198  10.259   7.063  13.200
31455SOL    HW296199  10.398   7.110  13.236
31456SOL     OW96200   5.935   9.884   9.128
31456SOL    HW196201   5.854   9.846   9.093
31456SOL    HW296202   5.987   9.808   9.154
31457SOL     OW96203   3.423  10.566  13.351
31457SOL    HW196204   3.336  10.604  13.363
31457SOL    HW296205   3.415  10.477  13.385
31458SOL     OW96206  13.593  12.050   9.621
31458SOL    HW196207  13.687  12.036   9.632
31458SOL    HW296208  13.571  12.116   9.687
31459SOL     OW96209   8.655   7.494   0.055
31459SOL    HW196210   8.661   7.548  14.855
31459SOL    HW296211   8.738   7.508   0.100
31460SOL     OW96212   2.296   6.552  10.234
31460SOL    HW196213   2.215   6.556  10.183
31460SOL    HW296214   2.335   6.468  10.212
31461SOL     OW96215   1.685  11.893   0.279
31461SOL    HW196216   1.649  11.807   0.303
31461SOL    HW296217   1.673  11.899   0.185
31462SOL     OW96218  11.244   2.871   5.666
31462SOL    HW196219  11.294   2.796   5.698
31462SOL    HW296220  11.266   2.877   5.573
31463SOL     OW96221   4.952   9.072   1.641
31463SOL    HW196222   4.954   9.162   1.674
31463SOL    HW296223   4.872   9.035   1.678
31464SOL     OW96224   6.496  12.179   8.741
31464SOL    HW196225   6.466  12.091   8.720
31464SOL    HW296226   6.579  12.166   8.787
31465SOL     OW96227   8.313  13.394  13.165
31465SOL    HW196228   8.321  13.462  13.097
31465SOL    HW296229   8.403  13.364  13.178
31466SOL     OW96230   2.496   7.672  10.982
31466SOL    HW196231   2.456   7.755  11.007
31466SOL    HW296232   2.541   7.643  11.061
31467SOL     OW96233   7.213  14.071   6.501
31467SOL    HW196234   7.264  13.991   6.494
31467SOL    HW296235   7.245  14.126   6.429
31468SOL     OW96236  11.369   1.319  12.066
31468SOL    HW196237  11.293   1.312  12.124
31468SOL    HW296238  11.423   1.244  12.088
31469SOL     OW96239   3.075  11.516   9.821
31469SOL    HW196240   3.022  11.542   9.746
31469SOL    HW296241   3.126  11.441   9.791
31470SOL     OW96242  11.740   8.393   2.232
31470SOL    HW196243  11.742   8.308   2.186
31470SOL    HW296244  11.827   8.399   2.272
31471SOL     OW96245   6.018   8.066   0.115
31471SOL    HW196246   5.941   8.010   0.126
31471SOL    HW296247   6.043   8.056   0.023
31472SOL     OW96248   9.817   5.480   3.652
31472SOL    HW196249   9.761   5.403   3.660
31472SOL    HW296250   9.757   5.553   3.638
31473SOL     OW96251  10.170   1.359   8.047
31473SOL    HW196252  10.078   1.384   8.047
31473SOL    HW296253  10.217   1.441   8.036
31474SOL     OW96254  13.998   7.087  12.617
31474SOL    HW196255  13.995   7.154  12.686
31474SOL    HW296256  14.052   7.126  12.548
31475SOL     OW96257   2.339   3.372  13.641
31475SOL    HW196258   2.419   3.408  13.680
31475SOL    HW296259   2.269   3.429  13.672
31476SOL     OW96260  13.464  11.334   6.953
31476SOL    HW196261  13.490  11.276   7.024
31476SOL    HW296262  13.521  11.309   6.879
31477SOL     OW96263   3.888   9.033  14.237
31477SOL    HW196264   3.897   9.096  14.308
31477SOL    HW296265   3.926   8.952  14.271
31478SOL     OW96266  14.544  12.742   0.750
31478SOL    HW196267  14.600  12.811   0.786
31478SOL    HW296268  14.455  12.776   0.759
31479SOL     OW96269   5.000   4.731   3.664
31479SOL    HW196270   5.057   4.680   3.721
31479SOL    HW296271   4.939   4.667   3.627
31480SOL     OW96272   3.734   8.311   4.320
31480SOL    HW196273   3.762   8.340   4.406
31480SOL    HW296274   3.762   8.380   4.260
31481SOL     OW96275  10.614  10.580  10.451
31481SOL    HW196276  10.593  10.646  10.386
31481SOL    HW296277  10.610  10.497  10.403
31482SOL     OW96278   4.832  12.026   7.952
31482SOL    HW196279   4.851  11.955   8.013
31482SOL    HW296280   4.913  12.039   7.903
31483SOL     OW96281  13.033   2.824  14.009
31483SOL    HW196282  13.000   2.767  13.940
31483SOL    HW296283  13.115   2.783  14.037
31484SOL     OW96284   4.474   6.429   3.001
31484SOL    HW196285   4.442   6.518   2.986
31484SOL    HW296286   4.567   6.433   2.979
31485SOL     OW96287   2.997  11.068   2.069
31485SOL    HW196288   2.999  10.974   2.051
31485SOL    HW296289   2.904  11.088   2.079
31486SOL     OW96290  13.861  12.916   6.520
31486SOL    HW196291  13.825  12.974   6.587
31486SOL    HW296292  13.805  12.839   6.522
31487SOL     OW96293   0.752   0.634   2.073
31487SOL    HW196294   0.734   0.708   2.130
31487SOL    HW296295   0.665   0.597   2.054
31488SOL     OW96296   0.527   0.899   2.811
31488SOL    HW196297   0.544   0.990   2.837
31488SOL    HW296298   0.436   0.883   2.838
31489SOL     OW96299   8.744   3.135   2.597
31489SOL    HW196300   8.756   3.086   2.516
31489SOL    HW296301   8.700   3.074   2.656
31490SOL     OW96302  13.812   6.504   7.304
31490SOL    HW196303  13.764   6.441   7.357
31490SOL    HW296304  13.771   6.588   7.323
31491SOL     OW96305  12.922   8.486  10.576
31491SOL    HW196306  12.927   8.431  10.498
31491SOL    HW296307  12.915   8.575  10.543
31492SOL     OW96308  14.327   3.629   6.442
31492SOL    HW196309  14.274   3.584   6.507
31492SOL    HW296310  14.403   3.661   6.491
31493SOL     OW96311   3.462   0.130   8.872
31493SOL    HW196312   3.545   0.120   8.919
31493SOL    HW296313   3.472   0.079   8.793
31494SOL     OW96314  10.823   6.610  11.119
31494SOL    HW196315  10.782   6.689  11.085
31494SOL    HW296316  10.751   6.546  11.123
31495SOL     OW96317   5.354  10.321   7.239
31495SOL    HW196318   5.287  10.287   7.180
31495SOL    HW296319   5.395  10.393   7.190
31496SOL     OW96320  12.165   6.347   4.539
31496SOL    HW196321  12.235   6.412   4.534
31496SOL    HW296322  12.180   6.301   4.622
31497SOL     OW96323   3.133  11.388   4.039
31497SOL    HW196324   3.139  11.294   4.021
31497SOL    HW296325   3.039  11.404   4.049
31498SOL     OW96326  12.088   5.965   2.107
31498SOL    HW196327  12.067   5.883   2.152
31498SOL    HW296328  12.131   6.019   2.174
31499SOL     OW96329   0.105  13.456   6.391
31499SOL    HW196330   0.107  13.445   6.295
31499SOL    HW296331   0.149  13.540   6.406
31500SOL     OW96332  10.326   0.217  11.877
31500SOL    HW196333  10.253   0.198  11.936
31500SOL    HW296334  10.321   0.149  11.810
31501SOL     OW96335   5.117   7.657   5.538
31501SOL    HW196336   5.196   7.693   5.579
31501SOL    HW296337   5.143   7.639   5.448
31502SOL     OW96338  13.111  10.602   3.961
31502SOL    HW196339  13.126  10.621   4.053
31502SOL    HW296340  13.053  10.525   3.961
31503SOL     OW96341   7.781   2.829  10.773
31503SOL    HW196342   7.747   2.744  10.744
31503SOL    HW296343   7.703   2.883  10.786
31504SOL     OW96344  13.921  10.177   2.493
31504SOL    HW196345  13.860  10.105   2.510
31504SOL    HW296346  14.005  10.146   2.526
31505SOL     OW96347   6.711   7.845  11.660
31505SOL    HW196348   6.699   7.752  11.645
31505SOL    HW296349   6.624   7.883  11.647
31506SOL     OW96350   8.453  10.670   8.102
31506SOL    HW196351   8.445  10.753   8.149
31506SOL    HW296352   8.502  10.692   8.023
31507SOL     OW96353   3.381  14.139   5.113
31507SOL    HW196354   3.330  14.085   5.174
31507SOL    HW296355   3.437  14.192   5.170
31508SOL     OW96356   1.791   2.198   8.856
31508SOL    HW196357   1.805   2.140   8.781
31508SOL    HW296358   1.816   2.285   8.824
31509SOL     OW96359   9.245   1.826  14.525
31509SOL    HW196360   9.175   1.879  14.487
31509SOL    HW296361   9.229   1.738  14.491
31510SOL     OW96362  10.761   0.558   2.049
31510SOL    HW196363  10.708   0.479   2.044
31510SOL    HW296364  10.759   0.593   1.960
31511SOL     OW96365   5.162   8.787   3.809
31511SOL    HW196366   5.245   8.816   3.770
31511SOL    HW296367   5.180   8.781   3.903
31512SOL     OW96368   0.413   3.784  10.425
31512SOL    HW196369   0.336   3.834  10.451
31512SOL    HW296370   0.454   3.757  10.507
31513SOL     OW96371  12.985  14.671   5.559
31513SOL    HW196372  12.911  14.650   5.617
31513SOL    HW296373  12.977  14.765   5.542
31514SOL     OW96374   8.950   0.142   6.193
31514SOL    HW196375   9.029   0.103   6.231
31514SOL    HW296376   8.878   0.098   6.238
31515SOL     OW96377   6.650   0.897  13.612
31515SOL    HW196378   6.699   0.967  13.569
31515SOL    HW296379   6.680   0.817  13.569
31516SOL     OW96380  14.229   8.733   7.432
31516SOL    HW196381  14.228   8.715   7.337
31516SOL    HW296382  14.318   8.766   7.448
31517SOL     OW96383   2.345  14.192  12.272
31517SOL    HW196384   2.414  14.151  12.324
31517SOL    HW296385   2.288  14.119  12.247
31518SOL     OW96386   9.443   4.973   0.062
31518SOL    HW196387   9.514   5.029   0.093
31518SOL    HW296388   9.484   4.914  14.877
31519SOL     OW96389   8.032   0.341  10.555
31519SOL    HW196390   8.002   0.263  10.507
31519SOL    HW296391   7.956   0.369  10.605
31520SOL     OW96392   7.907  13.198   7.608
31520SOL    HW196393   7.962  13.274   7.590
31520SOL    HW296394   7.969  13.124   7.612
31521SOL     OW96395   2.806   1.388   1.143
31521SOL    HW196396   2.717   1.396   1.109
31521SOL    HW296397   2.801   1.318   1.208
31522SOL     OW96398  14.832  13.450   1.596
31522SOL    HW196399  14.809  13.370   1.550
31522SOL    HW296400   0.049  13.452   1.594
31523SOL     OW96401   2.819  12.374  14.190
31523SOL    HW196402   2.893  12.434  14.181
31523SOL    HW296403   2.773  12.405  14.268
31524SOL     OW96404  14.521   3.007   6.035
31524SOL    HW196405  14.433   2.970   6.029
31524SOL    HW296406  14.554   2.978   6.121
31525SOL     OW96407   1.142   8.260   9.734
31525SOL    HW196408   1.110   8.307   9.657
31525SOL    HW296409   1.161   8.171   9.702
31526SOL     OW96410  13.985   1.037  12.367
31526SOL    HW196411  13.949   1.088  12.440
31526SOL    HW296412  14.076   1.021  12.392
31527SOL     OW96413   7.206   5.893  11.722
31527SOL    HW196414   7.176   5.808  11.691
31527SOL    HW296415   7.276   5.918  11.661
31528SOL     OW96416   8.496   8.504   5.327
31528SOL    HW196417   8.434   8.576   5.334
31528SOL    HW296418   8.529   8.509   5.237
31529SOL     OW96419   1.006  11.338   4.394
31529SOL    HW196420   1.051  11.416   4.428
31529SOL    HW296421   1.077  11.277   4.373
31530SOL     OW96422   9.351   6.353  14.648
31530SOL    HW196423   9.364   6.321  14.559
31530SOL    HW296424   9.433   6.398  14.670
31531SOL     OW96425   8.999   0.563  13.080
31531SOL    HW196426   8.972   0.647  13.118
31531SOL    HW296427   9.074   0.535  13.134
31532SOL     OW96428   1.465   4.874  10.355
31532SOL    HW196429   1.385   4.874  10.409
31532SOL    HW296430   1.497   4.784  10.361
31533SOL     OW96431   3.906   3.991  14.153
31533SOL    HW196432   3.951   4.071  14.179
31533SOL    HW296433   3.972   3.922  14.160
31534SOL     OW96434   0.100  14.563   2.255
31534SOL    HW196435   0.012  14.540   2.226
31534SOL    HW296436   0.100  14.544   2.349
31535SOL     OW96437   1.566  14.673   2.579
31535SOL    HW196438   1.578  14.676   2.674
31535SOL    HW296439   1.650  14.641   2.545
31536SOL     OW96440  10.045  13.871  12.774
31536SOL    HW196441  10.033  13.944  12.835
31536SOL    HW296442  10.014  13.906  12.690
31537SOL     OW96443   5.758   8.587   8.013
31537SOL    HW196444   5.838   8.539   8.035
31537SOL    HW296445   5.703   8.523   7.968
31538SOL     OW96446  10.675  10.784  11.718
31538SOL    HW196447  10.717  10.716  11.665
31538SOL    HW296448  10.621  10.736  11.781
31539SOL     OW96449  10.145   9.138   6.185
31539SOL    HW196450  10.052   9.133   6.165
31539SOL    HW296451  10.163   9.232   6.196
31540SOL     OW96452   2.877  14.336   4.987
31540SOL    HW196453   2.919  14.250   4.990
31540SOL    HW296454   2.895  14.374   5.073
31541SOL     OW96455  12.279   0.801   3.855
31541SOL    HW196456  12.198   0.771   3.814
31541SOL    HW296457  12.341   0.811   3.783
31542SOL     OW96458  10.227   3.218   5.378
31542SOL    HW196459  10.228   3.298   5.431
31542SOL    HW296460  10.157   3.165   5.417
31543SOL     OW96461   0.666   7.531   7.553
31543SOL    HW196462   0.673   7.480   7.472
31543SOL    HW296463   0.583   7.579   7.544
31544SOL     OW96464   1.625  13.271  11.943
31544SOL    HW196465   1.711  13.238  11.969
31544SOL    HW296466   1.602  13.335  12.010
31545SOL     OW96467  13.095  11.989  13.364
31545SOL    HW196468  13.156  11.935  13.415
31545SOL    HW296469  13.147  12.066  13.340
31546SOL     OW96470   6.187  13.446  14.714
31546SOL    HW196471   6.229  13.515  14.765
31546SOL    HW296472   6.109  13.424  14.765
31547SOL     OW96473  13.976  11.994   5.299
31547SOL    HW196474  13.916  12.030   5.364
31547SOL    HW296475  13.922  11.932   5.249
31548SOL     OW96476  13.951   9.813   3.708
31548SOL    HW196477  13.919   9.856   3.787
31548SOL    HW296478  13.955   9.884   3.643
31549SOL     OW96479   8.897  13.319   3.831
31549SOL    HW196480   8.804  13.336   3.812
31549SOL    HW296481   8.933  13.290   3.747
31550SOL     OW96482  12.805  13.751   3.522
31550SOL    HW196483  12.735  13.746   3.587
31550SOL    HW296484  12.769  13.708   3.445
31551SOL     OW96485   1.210  10.308  14.343
31551SOL    HW196486   1.173  10.283  14.259
31551SOL    HW296487   1.171  10.248  14.406
31552SOL     OW96488  10.956   2.124   2.460
31552SOL    HW196489  11.045   2.091   2.451
31552SOL    HW296490  10.914   2.061   2.519
31553SOL     OW96491   7.729   9.153  10.044
31553SOL    HW196492   7.713   9.081   9.983
31553SOL    HW296493   7.691   9.230  10.000
31554SOL     OW96494  11.404   2.784   8.846
31554SOL    HW196495  11.433   2.820   8.930
31554SOL    HW296496  11.336   2.844   8.815
31555SOL     OW96497  12.373   9.160  13.247
31555SOL    HW196498  12.410   9.086  13.198
31555SOL    HW296499  12.316   9.204  13.183
31556SOL     OW96500   9.920  11.325   9.639
31556SOL    HW196501   9.914  11.389   9.710
31556SOL    HW296502   9.831  11.313   9.609
31557SOL     OW96503   9.791  13.540   5.529
31557SOL    HW196504   9.743  13.621   5.547
31557SOL    HW296505   9.788  13.531   5.434
31558SOL     OW96506  14.131   9.417   2.750
31558SOL    HW196507  14.176   9.448   2.828
31558SOL    HW296508  14.082   9.493   2.719
31559SOL     OW96509  11.995   7.675  14.300
31559SOL    HW196510  11.963   7.738  14.365
31559SOL    HW296511  11.993   7.591  14.346
31560SOL     OW96512   4.446   3.186  13.797
31560SOL    HW196513   4.412   3.119  13.856
31560SOL    HW296514   4.422   3.269  13.838
31561SOL     OW96515   0.804   5.267  14.664
31561SOL    HW196516   0.725   5.292  14.713
31561SOL    HW296517   0.781   5.280  14.573
31562SOL     OW96518  11.368   1.152   0.115
31562SOL    HW196519  11.444   1.135   0.060
31562SOL    HW296520  11.293   1.138   0.058
31563SOL     OW96521  12.801   5.514   8.054
31563SOL    HW196522  12.768   5.425   8.041
31563SOL    HW296523  12.846   5.535   7.972
31564SOL     OW96524  10.635  13.333  12.665
31564SOL    HW196525  10.726  13.327  12.634
31564SOL    HW296526  10.643  13.356  12.757
31565SOL     OW96527   0.919  10.164  10.771
31565SOL    HW196528   0.945  10.196  10.857
31565SOL    HW296529   0.830  10.132  10.782
31566SOL     OW96530   4.637   6.623   6.247
31566SOL    HW196531   4.675   6.571   6.176
31566SOL    HW296532   4.636   6.563   6.322
31567SOL     OW96533  11.656  12.690   1.271
31567SOL    HW196534  11.677  12.783   1.256
31567SOL    HW296535  11.563  12.683   1.252
31568SOL     OW96536   6.646   5.877   2.530
31568SOL    HW196537   6.581   5.842   2.470
31568SOL    HW296538   6.648   5.971   2.513
31569SOL     OW96539   6.379  13.554  13.454
31569SOL    HW196540   6.396  13.617  13.384
31569SOL    HW296541   6.320  13.600  13.514
31570SOL     OW96542   8.621   4.667   4.733
31570SOL    HW196543   8.573   4.714   4.800
31570SOL    HW296544   8.561   4.662   4.658
31571SOL     OW96545  10.791   5.265   4.483
31571SOL    HW196546  10.860   5.229   4.428
31571SOL    HW296547  10.819   5.355   4.501
31572SOL     OW96548   3.758  10.299   2.292
31572SOL    HW196549   3.744  10.273   2.383
31572SOL    HW296550   3.806  10.225   2.254
31573SOL     OW96551  10.677   5.572   1.671
31573SOL    HW196552  10.712   5.498   1.621
31573SOL    HW296553  10.606   5.534   1.723
31574SOL     OW96554   3.252   5.162  12.480
31574SOL    HW196555   3.319   5.117  12.532
31574SOL    HW296556   3.221   5.233  12.536
31575SOL     OW96557   4.840   5.265   3.160
31575SOL    HW196558   4.883   5.234   3.080
31575SOL    HW296559   4.755   5.222   3.160
31576SOL     OW96560   0.818   8.599   7.101
31576SOL    HW196561   0.739   8.619   7.050
31576SOL    HW296562   0.802   8.639   7.187
31577SOL     OW96563   1.637   2.554  11.946
31577SOL    HW196564   1.690   2.482  11.980
31577SOL    HW296565   1.594   2.590  12.023
31578SOL     OW96566   3.451   1.340   4.306
31578SOL    HW196567   3.420   1.290   4.230
31578SOL    HW296568   3.371   1.372   4.347
31579SOL     OW96569  10.083   8.064   0.262
31579SOL    HW196570  10.101   7.979   0.221
31579SOL    HW296571  10.148   8.070   0.332
31580SOL     OW96572   2.280  13.453   3.765
31580SOL    HW196573   2.337  13.478   3.838
31580SOL    HW296574   2.225  13.383   3.801
31581SOL     OW96575   0.064   1.869  13.970
31581SOL    HW196576   0.045   1.873  14.064
31581SOL    HW296577   0.159   1.883  13.964
31582SOL     OW96578   2.098   4.690   1.025
31582SOL    HW196579   2.125   4.782   1.025
31582SOL    HW296580   2.162   4.646   0.969
31583SOL     OW96581   6.264  11.939   2.846
31583SOL    HW196582   6.264  12.031   2.822
31583SOL    HW296583   6.357  11.913   2.845
31584SOL     OW96584  10.718   9.676  11.973
31584SOL    HW196585  10.751   9.587  11.959
31584SOL    HW296586  10.700   9.680  12.067
31585SOL     OW96587  12.870  11.126   3.798
31585SOL    HW196588  12.906  11.046   3.838
31585SOL    HW296589  12.887  11.114   3.704
31586SOL     OW96590   4.421  13.309  10.275
31586SOL    HW196591   4.484  13.258  10.223
31586SOL    HW296592   4.360  13.344  10.210
31587SOL     OW96593   9.110   4.675  11.443
31587SOL    HW196594   9.159   4.628  11.510
31587SOL    HW296595   9.172   4.686  11.370
31588SOL     OW96596   9.397   9.904   2.125
31588SOL    HW196597   9.338   9.975   2.102
31588SOL    HW296598   9.433   9.873   2.042
31589SOL     OW96599  12.024  10.947   1.414
31589SOL    HW196600  12.036  10.883   1.485
31589SOL    HW296601  11.983  10.896   1.344
31590SOL     OW96602   5.442   7.490  11.842
31590SOL    HW196603   5.432   7.494  11.937
31590SOL    HW296604   5.353   7.479  11.808
31591SOL     OW96605  14.723  14.860   9.977
31591SOL    HW196606  14.628  14.871   9.980
31591SOL    HW296607  14.756   0.064   9.943
31592SOL     OW96608   1.857  11.293   6.543
31592SOL    HW196609   1.790  11.282   6.611
31592SOL    HW296610   1.813  11.343   6.474
31593SOL     OW96611  10.425   4.556   3.918
31593SOL    HW196612  10.447   4.528   4.007
31593SOL    HW296613  10.353   4.499   3.893
31594SOL     OW96614   6.730  12.971   5.453
31594SOL    HW196615   6.659  13.030   5.427
31594SOL    HW296616   6.767  12.940   5.371
31595SOL     OW96617   4.821   3.604  12.740
31595SOL    HW196618   4.904   3.609  12.789
31595SOL    HW296619   4.780   3.524  12.771
31596SOL     OW96620   5.824   3.895  10.651
31596SOL    HW196621   5.870   3.841  10.588
31596SOL    HW296622   5.862   3.982  10.640
31597SOL     OW96623  12.406   0.473   3.400
31597SOL    HW196624  12.481   0.504   3.350
31597SOL    HW296625  12.345   0.441   3.334
31598SOL     OW96626   6.547   2.621   7.998
31598SOL    HW196627   6.514   2.542   8.041
31598SOL    HW296628   6.538   2.689   8.064
31599SOL     OW96629   1.610   6.314   6.706
31599SOL    HW196630   1.584   6.406   6.711
31599SOL    HW296631   1.706   6.316   6.709
31600SOL     OW96632   3.562   7.892   3.079
31600SOL    HW196633   3.495   7.825   3.094
31600SOL    HW296634   3.600   7.908   3.165
31601SOL     OW96635   8.065   6.734   2.574
31601SOL    HW196636   8.103   6.822   2.575
31601SOL    HW296637   8.011   6.731   2.653
31602SOL     OW96638   5.044  12.505  12.252
31602SOL    HW196639   5.092  12.422  12.253
31602SOL    HW296640   5.112  12.572  12.263
31603SOL     OW96641   6.955  10.138  10.116
31603SOL    HW196642   7.021  10.096  10.173
31603SOL    HW296643   6.885  10.073  10.109
31604SOL     OW96644   8.049  14.091   8.302
31604SOL    HW196645   8.126  14.126   8.347
31604SOL    HW296646   8.074  14.003   8.276
31605SOL     OW96647   0.427   6.145  11.016
31605SOL    HW196648   0.468   6.189  11.091
31605SOL    HW296649   0.333   6.149  11.034
31606SOL     OW96650   1.308  10.982  13.926
31606SOL    HW196651   1.222  10.945  13.905
31606SOL    HW296652   1.326  10.952  14.015
31607SOL     OW96653  12.448   2.618   3.260
31607SOL    HW196654  12.438   2.558   3.186
31607SOL    HW296655  12.542   2.626   3.273
31608SOL     OW96656   3.653   3.644   7.894
31608SOL    HW196657   3.696   3.714   7.844
31608SOL    HW296658   3.719   3.617   7.958
31609SOL     OW96659  14.124   8.917   4.586
31609SOL    HW196660  14.198   8.936   4.644
31609SOL    HW296661  14.144   8.831   4.549
31610SOL     OW96662  14.232   5.298   0.816
31610SOL    HW196663  14.280   5.215   0.816
31610SOL    HW296664  14.168   5.289   0.746
31611SOL     OW96665   8.751   6.583   4.329
31611SOL    HW196666   8.776   6.519   4.396
31611SOL    HW296667   8.655   6.585   4.332
31612SOL     OW96668  12.454   2.163   9.367
31612SOL    HW196669  12.401   2.087   9.343
31612SOL    HW296670  12.536   2.125   9.400
31613SOL     OW96671   8.481  10.703   2.216
31613SOL    HW196672   8.391  10.733   2.226
31613SOL    HW296673   8.473  10.622   2.166
31614SOL     OW96674   6.576   4.271   5.950
31614SOL    HW196675   6.655   4.298   5.998
31614SOL    HW296676   6.608   4.208   5.885
31615SOL     OW96677   7.171   9.602   9.602
31615SOL    HW196678   7.185   9.578   9.511
31615SOL    HW296679   7.225   9.680   9.615
31616SOL     OW96680   9.181   3.133  10.312
31616SOL    HW196681   9.195   3.039  10.322
31616SOL    HW296682   9.210   3.171  10.395
31617SOL     OW96683   1.334   1.847   5.087
31617SOL    HW196684   1.371   1.807   5.008
31617SOL    HW296685   1.397   1.827   5.156
31618SOL     OW96686   0.441   3.582   4.057
31618SOL    HW196687   0.367   3.629   4.095
31618SOL    HW296688   0.439   3.496   4.098
31619SOL     OW96689   7.019   7.787   7.219
31619SOL    HW196690   7.082   7.725   7.181
31619SOL    HW296691   7.026   7.864   7.163
31620SOL     OW96692  12.806  11.713   4.559
31620SOL    HW196693  12.768  11.712   4.647
31620SOL    HW296694  12.746  11.660   4.506
31621SOL     OW96695   8.658   1.258   2.988
31621SOL    HW196696   8.625   1.348   2.984
31621SOL    HW296697   8.611   1.219   3.062
31622SOL     OW96698  10.132   9.857   2.065
31622SOL    HW196699  10.190   9.931   2.081
31622SOL    HW296700  10.043   9.894   2.072
31623SOL     OW96701   8.832  14.744   7.344
31623SOL    HW196702   8.755  14.800   7.348
31623SOL    HW296703   8.807  14.674   7.284
31624SOL     OW96704   9.322   8.125   5.108
31624SOL    HW196705   9.283   8.192   5.164
31624SOL    HW296706   9.335   8.169   5.024
31625SOL     OW96707  13.706   7.877   8.620
31625SOL    HW196708  13.718   7.797   8.672
31625SOL    HW296709  13.736   7.948   8.678
31626SOL     OW96710   2.225   5.999   9.901
31626SOL    HW196711   2.145   5.949   9.886
31626SOL    HW296712   2.211   6.043   9.984
31627SOL     OW96713  11.014  13.797   0.017
31627SOL    HW196714  11.094  13.840  14.866
31627SOL    HW296715  11.003  13.722  14.837
31628SOL     OW96716   6.824  12.243  12.367
31628SOL    HW196717   6.851  12.258  12.458
31628SOL    HW296718   6.768  12.317  12.346
31629SOL     OW96719   4.687   4.073  10.262
31629SOL    HW196720   4.615   4.068  10.199
31629SOL    HW296721   4.644   4.078  10.347
31630SOL     OW96722   2.444  11.642  12.416
31630SOL    HW196723   2.436  11.579  12.488
31630SOL    HW296724   2.443  11.588  12.337
31631SOL     OW96725  10.241  12.160   4.788
31631SOL    HW196726  10.321  12.201   4.755
31631SOL    HW296727  10.171  12.222   4.767
31632SOL     OW96728   9.303   6.478   6.784
31632SOL    HW196729   9.245   6.415   6.828
31632SOL    HW296730   9.389   6.461   6.820
31633SOL     OW96731   8.841  11.445  12.129
31633SOL    HW196732   8.782  11.431  12.203
31633SOL    HW296733   8.874  11.357  12.108
31634SOL     OW96734  14.391  12.478   0.989
31634SOL    HW196735  14.302  12.470   0.955
31634SOL    HW296736  14.447  12.461   0.913
31635SOL     OW96737   5.643   6.872   9.206
31635SOL    HW196738   5.640   6.795   9.150
31635SOL    HW296739   5.709   6.929   9.167
31636SOL     OW96740   0.936   5.440   5.958
31636SOL    HW196741   0.861   5.447   6.018
31636SOL    HW296742   0.967   5.350   5.969
31637SOL     OW96743   3.314   0.759  10.519
31637SOL    HW196744   3.295   0.853  10.514
31637SOL    HW296745   3.346   0.746  10.608
31638SOL     OW96746   7.250   0.554   1.230
31638SOL    HW196747   7.294   0.624   1.182
31638SOL    HW296748   7.164   0.590   1.252
31639SOL     OW96749   7.285   2.016  13.042
31639SOL    HW196750   7.351   1.977  12.985
31639SOL    HW296751   7.310   1.987  13.130
31640SOL     OW96752   9.660  14.278  11.560
31640SOL    HW196753   9.712  14.332  11.619
31640SOL    HW296754   9.695  14.298  11.473
31641SOL     OW96755   5.512   5.359   0.841
31641SOL    HW196756   5.589   5.387   0.891
31641SOL    HW296757   5.480   5.282   0.887
31642SOL     OW96758  10.348   1.363   8.494
31642SOL    HW196759  10.428   1.325   8.458
31642SOL    HW296760  10.278   1.310   8.454
31643SOL     OW96761   6.272  10.488  12.374
31643SOL    HW196762   6.218  10.566  12.385
31643SOL    HW296763   6.227  10.421  12.425
31644SOL     OW96764  12.098   8.884   6.960
31644SOL    HW196765  12.045   8.919   7.032
31644SOL    HW296766  12.120   8.960   6.906
31645SOL     OW96767   5.891   4.491   1.084
31645SOL    HW196768   5.900   4.563   1.022
31645SOL    HW296769   5.813   4.513   1.135
31646SOL     OW96770  11.732   6.406   8.895
31646SOL    HW196771  11.657   6.457   8.926
31646SOL    HW296772  11.700   6.316   8.896
31647SOL     OW96773   0.109   0.456  13.140
31647SOL    HW196774   0.200   0.485  13.147
31647SOL    HW296775   0.058   0.528  13.177
31648SOL     OW96776   0.728   7.705  13.426
31648SOL    HW196777   0.722   7.709  13.522
31648SOL    HW296778   0.819   7.728  13.406
31649SOL     OW96779   1.943  11.032  13.861
31649SOL    HW196780   2.000  11.101  13.826
31649SOL    HW296781   1.992  10.951  13.846
31650SOL     OW96782   5.382   1.160   0.846
31650SOL    HW196783   5.377   1.119   0.933
31650SOL    HW296784   5.290   1.180   0.825
31651SOL     OW96785   6.666   9.796   3.911
31651SOL    HW196786   6.761   9.806   3.913
31651SOL    HW296787   6.633   9.878   3.874
31652SOL     OW96788   1.755  10.038   7.029
31652SOL    HW196789   1.780  10.034   7.121
31652SOL    HW296790   1.680  10.097   7.026
31653SOL     OW96791   2.373   3.177  10.797
31653SOL    HW196792   2.443   3.156  10.735
31653SOL    HW296793   2.381   3.270  10.813
31654SOL     OW96794   7.568   9.762   3.309
31654SOL    HW196795   7.591   9.749   3.401
31654SOL    HW296796   7.581   9.676   3.269
31655SOL     OW96797  13.979   1.165  14.827
31655SOL    HW196798  14.035   1.200  14.757
31655SOL    HW296799  13.890   1.189  14.801
31656SOL     OW96800   7.889  10.478   4.029
31656SOL    HW196801   7.946  10.548   3.997
31656SOL    HW296802   7.809  10.486   3.977
31657SOL     OW96803   2.559   3.247  12.300
31657SOL    HW196804   2.653   3.241  12.280
31657SOL    HW296805   2.531   3.156  12.311
31658SOL     OW96806   4.398  13.415   2.734
31658SOL    HW196807   4.316  13.407   2.782
31658SOL    HW296808   4.452  13.473   2.788
31659SOL     OW96809  13.847   6.969  14.217
31659SOL    HW196810  13.851   7.004  14.128
31659SOL    HW296811  13.885   6.881  14.210
31660SOL     OW96812  12.668  13.926  14.658
31660SOL    HW196813  12.631  13.839  14.668
31660SOL    HW296814  12.696  13.951  14.746
31661SOL     OW96815   2.488   4.095   0.983
31661SOL    HW196816   2.479   4.092   1.078
31661SOL    HW296817   2.545   4.170   0.966
31662SOL     OW96818   5.935  12.819  11.411
31662SOL    HW196819   5.985  12.796  11.490
31662SOL    HW296820   5.880  12.742  11.395
31663SOL     OW96821  14.501   4.106   0.331
31663SOL    HW196822  14.465   4.149   0.409
31663SOL    HW296823  14.441   4.034   0.313
31664SOL     OW96824  12.319  13.467   6.797
31664SOL    HW196825  12.414  13.480   6.800
31664SOL    HW296826  12.307  13.372   6.791
31665SOL     OW96827   1.220   8.134   0.152
31665SOL    HW196828   1.279   8.059   0.162
31665SOL    HW296829   1.265   8.206   0.196
31666SOL     OW96830  14.273  14.191   9.465
31666SOL    HW196831  14.245  14.210   9.555
31666SOL    HW296832  14.230  14.108   9.443
31667SOL     OW96833   0.263  13.879   8.628
31667SOL    HW196834   0.187  13.890   8.685
31667SOL    HW296835   0.252  13.792   8.590
31668SOL     OW96836   2.106   1.381   6.997
31668SOL    HW196837   2.120   1.409   6.907
31668SOL    HW296838   2.195   1.373   7.033
31669SOL     OW96839  13.779   4.605   6.414
31669SOL    HW196840  13.846   4.537   6.427
31669SOL    HW296841  13.712   4.562   6.361
31670SOL     OW96842   3.802   3.612   6.321
31670SOL    HW196843   3.827   3.541   6.261
31670SOL    HW296844   3.873   3.615   6.385
31671SOL     OW96845   5.787  11.704  10.429
31671SOL    HW196846   5.694  11.693  10.408
31671SOL    HW296847   5.827  11.734  10.347
31672SOL     OW96848   0.648   0.300   2.630
31672SOL    HW196849   0.595   0.239   2.577
31672SOL    HW296850   0.736   0.291   2.594
31673SOL     OW96851   4.574   2.330  10.643
31673SOL    HW196852   4.568   2.263  10.711
31673SOL    HW296853   4.606   2.283  10.566
31674SOL     OW96854   6.141  11.837  13.085
31674SOL    HW196855   6.230  11.874  13.083
31674SOL    HW296856   6.084  11.913  13.077
31675SOL     OW96857  10.810  12.391   1.522
31675SOL    HW196858  10.786  12.476   1.559
31675SOL    HW296859  10.729  12.359   1.482
31676SOL     OW96860  14.190   1.421   2.531
31676SOL    HW196861  14.126   1.492   2.533
31676SOL    HW296862  14.214   1.408   2.623
31677SOL     OW96863  13.797   3.486  13.655
31677SOL    HW196864  13.739   3.410  13.650
31677SOL    HW296865  13.799   3.521  13.565
31678SOL     OW96866  14.354   4.550  13.893
31678SOL    HW196867  14.373   4.634  13.850
31678SOL    HW296868  14.316   4.575  13.977
31679SOL     OW96869   6.551  12.684   2.309
31679SOL    HW196870   6.563  12.769   2.267
31679SOL    HW296871   6.623  12.677   2.371
31680SOL     OW96872   9.452   9.140   0.807
31680SOL    HW196873   9.490   9.070   0.861
31680SOL    HW296874   9.513   9.213   0.816
31681SOL     OW96875  14.644   6.771  14.618
31681SOL    HW196876  14.732   6.773  14.656
31681SOL    HW296877  14.600   6.847  14.656
31682SOL     OW96878   7.631   3.244   8.130
31682SOL    HW196879   7.678   3.250   8.048
31682SOL    HW296880   7.699   3.233   8.197
31683SOL     OW96881   9.286   2.993  12.026
31683SOL    HW196882   9.368   3.010  12.072
31683SOL    HW296883   9.311   2.982  11.935
31684SOL     OW96884  14.822  14.529   6.146
31684SOL    HW196885  14.769  14.466   6.194
31684SOL    HW296886  14.785  14.529   6.057
31685SOL     OW96887   2.332   9.292  10.527
31685SOL    HW196888   2.259   9.319  10.583
31685SOL    HW296889   2.411   9.317  10.576
31686SOL     OW96890   3.181  13.296   9.557
31686SOL    HW196891   3.186  13.214   9.507
31686SOL    HW296892   3.130  13.355   9.500
31687SOL     OW96893   4.628   9.489  11.384
31687SOL    HW196894   4.670   9.458  11.465
31687SOL    HW296895   4.659   9.428  11.317
31688SOL     OW96896  11.250   1.774  11.150
31688SOL    HW196897  11.306   1.697  11.139
31688SOL    HW296898  11.168   1.750  11.107
31689SOL     OW96899  10.330   1.579   4.452
31689SOL    HW196900  10.254   1.636   4.468
31689SOL    HW296901  10.405   1.631   4.478
31690SOL     OW96902  13.358   6.283   5.740
31690SOL    HW196903  13.402   6.272   5.825
31690SOL    HW296904  13.415   6.343   5.692
31691SOL     OW96905   9.989   5.805   9.186
31691SOL    HW196906   9.936   5.794   9.106
31691SOL    HW296907   9.925   5.826   9.254
31692SOL     OW96908   9.540   1.859   1.252
31692SOL    HW196909   9.597   1.934   1.232
31692SOL    HW296910   9.459   1.898   1.283
31693SOL     OW96911  11.539   3.360   1.700
31693SOL    HW196912  11.548   3.385   1.792
31693SOL    HW296913  11.497   3.274   1.702
31694SOL     OW96914   7.148  14.448  10.732
31694SOL    HW196915   7.216  14.428  10.667
31694SOL    HW296916   7.099  14.366  10.741
31695SOL     OW96917  14.319   9.735  12.771
31695SOL    HW196918  14.411   9.729  12.794
31695SOL    HW296919  14.277   9.665  12.821
31696SOL     OW96920  11.828   1.062   7.493
31696SOL    HW196921  11.791   1.025   7.573
31696SOL    HW296922  11.755   1.105   7.449
31697SOL     OW96923   6.914   6.183   3.639
31697SOL    HW196924   6.860   6.115   3.680
31697SOL    HW296925   6.883   6.185   3.548
31698SOL     OW96926  11.109   7.914  13.894
31698SOL    HW196927  11.039   7.870  13.943
31698SOL    HW296928  11.091   8.007  13.904
31699SOL     OW96929   8.472   3.554   9.178
31699SOL    HW196930   8.414   3.628   9.158
31699SOL    HW296931   8.559   3.593   9.179
31700SOL     OW96932   1.964   5.056   6.448
31700SOL    HW196933   1.953   5.125   6.513
31700SOL    HW296934   1.966   5.102   6.364
31701SOL     OW96935   0.521  11.232   4.503
31701SOL    HW196936   0.470  11.299   4.458
31701SOL    HW296937   0.602  11.225   4.452
31702SOL     OW96938   5.033  13.720   2.578
31702SOL    HW196939   4.957  13.768   2.611
31702SOL    HW296940   5.028  13.729   2.483
31703SOL     OW96941   7.554   2.785   8.134
31703SOL    HW196942   7.533   2.856   8.073
31703SOL    HW296943   7.607   2.826   8.202
31704SOL     OW96944  13.939  11.713   8.737
31704SOL    HW196945  13.990  11.767   8.676
31704SOL    HW296946  13.925  11.770   8.812
31705SOL     OW96947  10.933  13.442  14.233
31705SOL    HW196948  10.883  13.522  14.217
31705SOL    HW296949  10.875  13.371  14.205
31706SOL     OW96950  10.864   0.891   0.763
31706SOL    HW196951  10.842   0.854   0.849
31706SOL    HW296952  10.792   0.952   0.744
31707SOL     OW96953   6.166  12.382  11.093
31707SOL    HW196954   6.102  12.452  11.112
31707SOL    HW296955   6.119  12.323  11.035
31708SOL     OW96956   6.095   9.167   3.150
31708SOL    HW196957   6.020   9.139   3.202
31708SOL    HW296958   6.089   9.262   3.147
31709SOL     OW96959   8.380   8.400   1.701
31709SOL    HW196960   8.427   8.469   1.653
31709SOL    HW296961   8.448   8.344   1.737
31710SOL     OW96962   6.663   9.870  13.659
31710SOL    HW196963   6.743   9.837  13.699
31710SOL    HW296964   6.672   9.849  13.566
31711SOL     OW96965   6.304   8.527  14.230
31711SOL    HW196966   6.232   8.490  14.281
31711SOL    HW296967   6.294   8.488  14.143
31712SOL     OW96968   3.020   1.319   3.746
31712SOL    HW196969   2.975   1.343   3.665
31712SOL    HW296970   3.097   1.377   3.749
31713SOL     OW96971  13.047   7.916   3.385
31713SOL    HW196972  12.988   7.912   3.310
31713SOL    HW296973  12.993   7.945   3.458
31714SOL     OW96974  10.241   1.802   7.003
31714SOL    HW196975  10.147   1.786   6.997
31714SOL    HW296976  10.253   1.888   6.962
31715SOL     OW96977   7.590   9.252   2.687
31715SOL    HW196978   7.634   9.266   2.770
31715SOL    HW296979   7.535   9.175   2.701
31716SOL     OW96980  10.883   4.727   1.813
31716SOL    HW196981  10.947   4.656   1.820
31716SOL    HW296982  10.886   4.752   1.720
31717SOL     OW96983   5.584   0.731   4.159
31717SOL    HW196984   5.656   0.794   4.151
31717SOL    HW296985   5.531   0.744   4.081
31718SOL     OW96986   0.527   8.989   2.184
31718SOL    HW196987   0.571   9.072   2.200
31718SOL    HW296988   0.526   8.945   2.269
31719SOL     OW96989   3.379  13.655  12.834
31719SOL    HW196990   3.327  13.687  12.760
31719SOL    HW296991   3.319  13.658  12.908
31720SOL     OW96992   0.792  14.503  11.947
31720SOL    HW196993   0.762  14.586  11.909
31720SOL    HW296994   0.723  14.480  12.010
31721SOL     OW96995  13.075  10.628  13.166
31721SOL    HW196996  12.998  10.612  13.112
31721SOL    HW296997  13.081  10.551  13.222
31722SOL     OW96998  13.097   8.641  13.878
31722SOL    HW196999  13.149   8.598  13.811
31722SOL    HW297000  13.162   8.674  13.941
31723SOL     OW97001   0.101  12.546   1.546
31723SOL    HW197002   0.038  12.491   1.593
31723SOL    HW297003   0.175  12.488   1.529
31724SOL     OW97004   0.334   8.327   1.353
31724SOL    HW197005   0.392   8.401   1.372
31724SOL    HW297006   0.387   8.249   1.371
31725SOL     OW97007   1.267   9.518   8.798
31725SOL    HW197008   1.258   9.459   8.723
31725SOL    HW297009   1.352   9.560   8.785
31726SOL     OW97010   9.068   9.494   9.241
31726SOL    HW197011   9.055   9.579   9.199
31726SOL    HW297012   9.102   9.515   9.328
31727SOL     OW97013   3.512  11.551   3.337
31727SOL    HW197014   3.487  11.612   3.269
31727SOL    HW297015   3.430  11.523   3.377
31728SOL     OW97016   6.319   2.334   0.576
31728SOL    HW197017   6.403   2.315   0.619
31728SOL    HW297018   6.254   2.289   0.630
31729SOL     OW97019   0.187   5.067   5.316
31729SOL    HW197020   0.161   5.029   5.232
31729SOL    HW297021   0.152   5.156   5.314
31730SOL     OW97022   8.036  11.577   5.621
31730SOL    HW197023   8.105  11.513   5.637
31730SOL    HW297024   8.083  11.660   5.610
31731SOL     OW97025   2.691   0.683   7.549
31731SOL    HW197026   2.691   0.767   7.595
31731SOL    HW297027   2.668   0.619   7.617
31732SOL     OW97028  14.849  10.229   5.977
31732SOL    HW197029   0.001  10.312   5.941
31732SOL    HW297030  14.843  10.170   5.902
31733SOL     OW97031   3.135   5.704  10.410
31733SOL    HW197032   3.071   5.774  10.421
31733SOL    HW297033   3.183   5.701  10.492
31734SOL     OW97034   5.958   3.776  10.912
31734SOL    HW197035   5.913   3.814  10.988
31734SOL    HW297036   5.929   3.829  10.838
31735SOL     OW97037  10.103  11.037   9.371
31735SOL    HW197038  10.040  10.983   9.322
31735SOL    HW297039  10.157  10.974   9.419
31736SOL     OW97040   5.564   3.644   3.583
31736SOL    HW197041   5.594   3.566   3.536
31736SOL    HW297042   5.473   3.625   3.604
31737SOL     OW97043   7.341   0.211   8.355
31737SOL    HW197044   7.343   0.235   8.263
31737SOL    HW297045   7.384   0.285   8.400
31738SOL     OW97046   7.509   2.407   4.245
31738SOL    HW197047   7.483   2.492   4.281
31738SOL    HW297048   7.430   2.374   4.202
31739SOL     OW97049   5.944   4.014   7.650
31739SOL    HW197050   6.018   4.073   7.668
31739SOL    HW297051   5.965   3.974   7.565
31740SOL     OW97052   7.127   9.289   8.511
31740SOL    HW197053   7.055   9.316   8.568
31740SOL    HW297054   7.085   9.270   8.427
31741SOL     OW97055   9.782   1.214   8.113
31741SOL    HW197056   9.719   1.269   8.066
31741SOL    HW297057   9.728   1.159   8.170
31742SOL     OW97058   2.666  13.061   5.148
31742SOL    HW197059   2.727  13.124   5.108
31742SOL    HW297060   2.659  12.991   5.084
31743SOL     OW97061  14.575  12.658   5.868
31743SOL    HW197062  14.631  12.665   5.790
31743SOL    HW297063  14.486  12.654   5.834
31744SOL     OW97064   0.275   9.032   1.921
31744SOL    HW197065   0.355   8.990   1.889
31744SOL    HW297066   0.265   9.110   1.867
31745SOL     OW97067   0.521   0.049   5.730
31745SOL    HW197068   0.513   0.144   5.722
31745SOL    HW297069   0.464   0.014   5.661
31746SOL     OW97070   2.063   0.519   4.407
31746SOL    HW197071   2.038   0.557   4.322
31746SOL    HW297072   2.034   0.583   4.471
31747SOL     OW97073   0.602  14.349   8.594
31747SOL    HW197074   0.544  14.277   8.618
31747SOL    HW297075   0.577  14.370   8.504
31748SOL     OW97076   0.424   9.132   6.588
31748SOL    HW197077   0.422   9.228   6.586
31748SOL    HW297078   0.509   9.111   6.627
31749SOL     OW97079   9.806  12.991  12.893
31749SOL    HW197080   9.750  13.069  12.894
31749SOL    HW297081   9.867  13.004  12.966
31750SOL     OW97082   5.915   5.379  10.695
31750SOL    HW197083   5.957   5.433  10.762
31750SOL    HW297084   5.980   5.372  10.625
31751SOL     OW97085  11.215   5.406   8.124
31751SOL    HW197086  11.255   5.461   8.056
31751SOL    HW297087  11.285   5.347   8.152
31752SOL     OW97088   5.456  14.657  11.963
31752SOL    HW197089   5.493  14.726  11.908
31752SOL    HW297090   5.417  14.703  12.037
31753SOL     OW97091   4.205   7.075   3.589
31753SOL    HW197092   4.171   7.030   3.666
31753SOL    HW297093   4.148   7.048   3.518
31754SOL     OW97094  10.764  10.470  11.733
31754SOL    HW197095  10.791  10.424  11.653
31754SOL    HW297096  10.846  10.502  11.771
31755SOL     OW97097   2.736   0.696  13.621
31755SOL    HW197098   2.657   0.710  13.673
31755SOL    HW297099   2.802   0.753  13.661
31756SOL     OW97100   9.770  10.678   8.014
31756SOL    HW197101   9.863  10.657   8.004
31756SOL    HW297102   9.725  10.596   7.995
31757SOL     OW97103  13.499  12.319   2.625
31757SOL    HW197104  13.507  12.397   2.680
31757SOL    HW297105  13.434  12.343   2.560
31758SOL     OW97106   3.411   4.655   0.062
31758SOL    HW197107   3.443   4.574   0.023
31758SOL    HW297108   3.378   4.706  14.867
31759SOL     OW97109  13.987  13.008   7.739
31759SOL    HW197110  13.995  13.100   7.764
31759SOL    HW297111  14.045  12.962   7.801
31760SOL     OW97112  11.069   6.281   8.724
31760SOL    HW197113  10.977   6.257   8.741
31760SOL    HW297114  11.109   6.282   8.811
31761SOL     OW97115   2.402  12.791  11.815
31761SOL    HW197116   2.361  12.749  11.891
31761SOL    HW297117   2.447  12.867  11.851
31762SOL     OW97118   0.876  14.505   6.455
31762SOL    HW197119   0.797  14.469   6.415
31762SOL    HW297120   0.947  14.449   6.424
31763SOL     OW97121   6.777   6.745   1.483
31763SOL    HW197122   6.769   6.650   1.492
31763SOL    HW297123   6.688   6.776   1.467
31764SOL     OW97124  10.634   6.787  11.040
31764SOL    HW197125  10.657   6.767  10.949
31764SOL    HW297126  10.541   6.765  11.046
31765SOL     OW97127  13.102  10.936   3.557
31765SOL    HW197128  13.073  10.869   3.619
31765SOL    HW297129  13.196  10.919   3.546
31766SOL     OW97130  12.943   2.851   2.543
31766SOL    HW197131  13.030   2.886   2.564
31766SOL    HW297132  12.891   2.929   2.520
31767SOL     OW97133  13.358  11.104   4.445
31767SOL    HW197134  13.421  11.060   4.389
31767SOL    HW297135  13.354  11.050   4.524
31768SOL     OW97136   5.078   8.251   0.917
31768SOL    HW197137   5.125   8.250   0.834
31768SOL    HW297138   5.003   8.308   0.901
31769SOL     OW97139  12.843   3.068  11.518
31769SOL    HW197140  12.916   3.030  11.567
31769SOL    HW297141  12.835   3.012  11.440
31770SOL     OW97142  13.785   6.547   1.801
31770SOL    HW197143  13.841   6.470   1.805
31770SOL    HW297144  13.699   6.513   1.776
31771SOL     OW97145   9.692   4.931   5.943
31771SOL    HW197146   9.756   4.924   5.872
31771SOL    HW297147   9.745   4.937   6.022
31772SOL     OW97148   8.979   1.166   3.491
31772SOL    HW197149   8.971   1.246   3.543
31772SOL    HW297150   8.907   1.111   3.519
31773SOL     OW97151   7.511  10.151   6.126
31773SOL    HW197152   7.586  10.200   6.091
31773SOL    HW297153   7.543  10.113   6.208
31774SOL     OW97154  13.866  12.328   9.852
31774SOL    HW197155  13.823  12.243   9.841
31774SOL    HW297156  13.936  12.328   9.785
31775SOL     OW97157   6.456  12.122   1.329
31775SOL    HW197158   6.539  12.102   1.284
31775SOL    HW297159   6.412  12.038   1.338
31776SOL     OW97160   4.578   0.191   0.210
31776SOL    HW197161   4.573   0.151   0.123
31776SOL    HW297162   4.503   0.154   0.257
31777SOL     OW97163  10.421   6.057   1.866
31777SOL    HW197164  10.499   6.027   1.913
31777SOL    HW297165  10.383   5.978   1.829
31778SOL     OW97166   8.819   8.584   5.506
31778SOL    HW197167   8.750   8.627   5.455
31778SOL    HW297168   8.771   8.532   5.571
31779SOL     OW97169   4.784  10.061   2.036
31779SOL    HW197170   4.740  10.141   2.066
31779SOL    HW297171   4.855  10.091   1.981
31780SOL     OW97172   8.026   6.266  13.582
31780SOL    HW197173   8.020   6.294  13.673
31780SOL    HW297174   7.971   6.188  13.578
31781SOL     OW97175  13.710   0.094  10.672
31781SOL    HW197176  13.670   0.025  10.724
31781SOL    HW297177  13.672   0.175  10.706
31782SOL     OW97178  10.727   9.338   2.259
31782SOL    HW197179  10.658   9.365   2.199
31782SOL    HW297180  10.734   9.243   2.248
31783SOL     OW97181   5.542  12.741   6.751
31783SOL    HW197182   5.462  12.694   6.730
31783SOL    HW297183   5.512  12.826   6.785
31784SOL     OW97184   5.836  10.702  12.399
31784SOL    HW197185   5.831  10.608  12.415
31784SOL    HW297186   5.824  10.711  12.304
31785SOL     OW97187  13.186  11.496  11.686
31785SOL    HW197188  13.153  11.494  11.776
31785SOL    HW297189  13.179  11.405  11.656
31786SOL     OW97190   5.057   4.030   0.467
31786SOL    HW197191   5.025   3.941   0.479
31786SOL    HW297192   5.043   4.072   0.552
31787SOL     OW97193   1.752  10.831   0.316
31787SOL    HW197194   1.664  10.855   0.287
31787SOL    HW297195   1.753  10.736   0.313
31788SOL     OW97196   0.685   4.402   3.540
31788SOL    HW197197   0.756   4.451   3.501
31788SOL    HW297198   0.625   4.469   3.574
31789SOL     OW97199  12.811   4.202   0.554
31789SOL    HW197200  12.787   4.294   0.562
31789SOL    HW297201  12.830   4.174   0.644
31790SOL     OW97202   5.923   1.374   8.592
31790SOL    HW197203   6.015   1.403   8.585
31790SOL    HW297204   5.873   1.456   8.591
31791SOL     OW97205   6.165   5.598   9.650
31791SOL    HW197206   6.112   5.530   9.691
31791SOL    HW297207   6.210   5.553   9.578
31792SOL     OW97208   1.463   2.484   2.394
31792SOL    HW197209   1.371   2.471   2.371
31792SOL    HW297210   1.478   2.425   2.468
31793SOL     OW97211   6.343   2.175   6.057
31793SOL    HW197212   6.427   2.151   6.018
31793SOL    HW297213   6.353   2.268   6.080
31794SOL     OW97214   3.655  14.010  13.318
31794SOL    HW197215   3.660  14.088  13.373
31794SOL    HW297216   3.662  14.044  13.228
31795SOL     OW97217   0.059   7.686   9.281
31795SOL    HW197218   0.100   7.601   9.296
31795SOL    HW297219   0.000   7.671   9.207
31796SOL     OW97220   1.495   0.064   8.305
31796SOL    HW197221   1.462   0.103   8.224
31796SOL    HW297222   1.509   0.138   8.364
31797SOL     OW97223   1.056  14.110   2.008
31797SOL    HW197224   1.079  14.105   2.100
31797SOL    HW297225   1.133  14.148   1.966
31798SOL     OW97226  12.682   7.767   4.539
31798SOL    HW197227  12.725   7.705   4.598
31798SOL    HW297228  12.597   7.727   4.520
31799SOL     OW97229  13.499   0.914  10.739
31799SOL    HW197230  13.436   0.979  10.770
31799SOL    HW297231  13.575   0.925  10.797
31800SOL     OW97232  13.907  13.065  10.116
31800SOL    HW197233  13.831  13.035  10.166
31800SOL    HW297234  13.870  13.107  10.038
31801SOL     OW97235  11.351  13.749  12.380
31801SOL    HW197236  11.411  13.705  12.441
31801SOL    HW297237  11.289  13.795  12.436
31802SOL     OW97238   0.330   5.825  14.695
31802SOL    HW197239   0.341   5.750  14.637
31802SOL    HW297240   0.313   5.787  14.781
31803SOL     OW97241   6.724  14.217  12.619
31803SOL    HW197242   6.748  14.138  12.667
31803SOL    HW297243   6.806  14.266  12.611
31804SOL     OW97244   8.261   0.436   1.270
31804SOL    HW197245   8.225   0.472   1.189
31804SOL    HW297246   8.195   0.454   1.337
31805SOL     OW97247  10.317  12.940  13.928
31805SOL    HW197248  10.297  12.958  13.836
31805SOL    HW297249  10.261  13.001  13.977
31806SOL     OW97250   0.396   3.533   1.132
31806SOL    HW197251   0.343   3.488   1.067
31806SOL    HW297252   0.336   3.548   1.205
31807SOL     OW97253   1.833   3.810   5.113
31807SOL    HW197254   1.878   3.893   5.131
31807SOL    HW297255   1.791   3.787   5.196
31808SOL     OW97256   2.039   4.214   5.980
31808SOL    HW197257   2.053   4.277   5.909
31808SOL    HW297258   2.053   4.265   6.060
31809SOL     OW97259  14.154   8.955  10.990
31809SOL    HW197260  14.190   9.042  11.005
31809SOL    HW297261  14.151   8.946  10.895
31810SOL     OW97262   2.501   2.951  13.186
31810SOL    HW197263   2.432   2.964  13.251
31810SOL    HW297264   2.491   3.025  13.126
31811SOL     OW97265   7.609  13.553   2.994
31811SOL    HW197266   7.668  13.478   3.000
31811SOL    HW297267   7.584  13.572   3.084
31812SOL     OW97268   2.804  14.159   1.167
31812SOL    HW197269   2.770  14.213   1.096
31812SOL    HW297270   2.739  14.168   1.237
31813SOL     OW97271   1.951   9.392   5.151
31813SOL    HW197272   2.024   9.407   5.211
31813SOL    HW297273   1.960   9.461   5.085
31814SOL     OW97274  12.593  14.271   1.550
31814SOL    HW197275  12.553  14.184   1.554
31814SOL    HW297276  12.644  14.277   1.631
31815SOL     OW97277   5.032  12.483   6.047
31815SOL    HW197278   4.973  12.408   6.039
31815SOL    HW297279   5.113  12.446   6.084
31816SOL     OW97280   2.125   3.744   5.206
31816SOL    HW197281   2.064   3.800   5.253
31816SOL    HW297282   2.106   3.655   5.238
31817SOL     OW97283  14.304   3.865   2.801
31817SOL    HW197284  14.217   3.877   2.762
31817SOL    HW297285  14.290   3.873   2.895
31818SOL     OW97286   0.926  13.298   8.939
31818SOL    HW197287   0.988  13.369   8.924
31818SOL    HW297288   0.971  13.220   8.906
31819SOL     OW97289   8.465   8.843   0.062
31819SOL    HW197290   8.497   8.914   0.006
31819SOL    HW297291   8.452   8.769   0.003
31820SOL     OW97292   9.093   9.214   7.066
31820SOL    HW197293   9.152   9.237   7.138
31820SOL    HW297294   9.042   9.140   7.099
31821SOL     OW97295  14.494  13.730   6.089
31821SOL    HW197296  14.493  13.714   6.184
31821SOL    HW297297  14.560  13.798   6.077
31822SOL     OW97298  12.669   4.130  12.117
31822SOL    HW197299  12.676   4.147  12.211
31822SOL    HW297300  12.635   4.211  12.081
31823SOL     OW97301   0.554   1.744  11.657
31823SOL    HW197302   0.551   1.836  11.633
31823SOL    HW297303   0.509   1.739  11.742
31824SOL     OW97304  10.492  12.195   6.505
31824SOL    HW197305  10.519  12.165   6.591
31824SOL    HW297306  10.405  12.234   6.519
31825SOL     OW97307   5.453   7.556   8.322
31825SOL    HW197308   5.432   7.483   8.264
31825SOL    HW297309   5.538   7.533   8.360
31826SOL     OW97310   4.499   7.300   6.957
31826SOL    HW197311   4.587   7.263   6.948
31826SOL    HW297312   4.449   7.264   6.884
31827SOL     OW97313  11.890   9.287   2.329
31827SOL    HW197314  11.823   9.263   2.393
31827SOL    HW297315  11.962   9.321   2.382
31828SOL     OW97316   1.360   4.624   2.835
31828SOL    HW197317   1.349   4.719   2.831
31828SOL    HW297318   1.282   4.589   2.791
31829SOL     OW97319  10.823   8.514   2.341
31829SOL    HW197320  10.898   8.544   2.393
31829SOL    HW297321  10.861   8.457   2.275
31830SOL     OW97322   5.161   7.078   0.946
31830SOL    HW197323   5.113   7.147   0.992
31830SOL    HW297324   5.140   6.998   0.993
31831SOL     OW97325  11.555   6.303   6.329
31831SOL    HW197326  11.572   6.251   6.408
31831SOL    HW297327  11.641   6.317   6.290
31832SOL     OW97328   1.923  11.203   5.115
31832SOL    HW197329   1.885  11.261   5.050
31832SOL    HW297330   1.966  11.261   5.178
31833SOL     OW97331   2.822   2.461  12.037
31833SOL    HW197332   2.877   2.391  12.001
31833SOL    HW297333   2.862   2.481  12.122
31834SOL     OW97334  12.389   6.845  13.431
31834SOL    HW197335  12.331   6.871  13.503
31834SOL    HW297336  12.425   6.927  13.398
31835SOL     OW97337   3.222   4.136   4.663
31835SOL    HW197338   3.141   4.143   4.613
31835SOL    HW297339   3.290   4.122   4.596
31836SOL     OW97340   2.072  11.584   2.461
31836SOL    HW197341   2.054  11.678   2.450
31836SOL    HW297342   2.148  11.568   2.406
31837SOL     OW97343  11.442  14.111   0.408
31837SOL    HW197344  11.384  14.036   0.393
31837SOL    HW297345  11.409  14.179   0.350
31838SOL     OW97346   4.335   3.093   1.228
31838SOL    HW197347   4.352   3.137   1.311
31838SOL    HW297348   4.346   3.000   1.248
31839SOL     OW97349   1.438   7.675  11.651
31839SOL    HW197350   1.515   7.630  11.685
31839SOL    HW297351   1.377   7.606  11.627
31840SOL     OW97352   8.536  11.811   1.993
31840SOL    HW197353   8.454  11.764   2.012
31840SOL    HW297354   8.532  11.828   1.899
31841SOL     OW97355  12.557  11.311  13.176
31841SOL    HW197356  12.538  11.242  13.112
31841SOL    HW297357  12.477  11.319  13.228
31842SOL     OW97358   9.891  14.209   2.546
31842SOL    HW197359   9.834  14.173   2.478
31842SOL    HW297360   9.848  14.184   2.628
31843SOL     OW97361   0.916  13.609  10.382
31843SOL    HW197362   0.984  13.604  10.450
31843SOL    HW297363   0.837  13.633  10.430
31844SOL     OW97364   6.729  10.737   6.033
31844SOL    HW197365   6.770  10.650   6.025
31844SOL    HW297366   6.769  10.788   5.963
31845SOL     OW97367   2.712   5.128  13.703
31845SOL    HW197368   2.754   5.190  13.763
31845SOL    HW297369   2.648   5.083  13.758
31846SOL     OW97370   9.671   4.795   9.275
31846SOL    HW197371   9.594   4.779   9.220
31846SOL    HW297372   9.681   4.890   9.275
31847SOL     OW97373   4.494  13.814   1.747
31847SOL    HW197374   4.534  13.846   1.827
31847SOL    HW297375   4.461  13.892   1.703
31848SOL     OW97376  12.583   8.702  10.555
31848SOL    HW197377  12.575   8.787  10.512
31848SOL    HW297378  12.636   8.650  10.494
31849SOL     OW97379   3.999   0.972   7.834
31849SOL    HW197380   3.973   0.944   7.922
31849SOL    HW297381   3.918   1.005   7.795
31850SOL     OW97382   1.321   0.188  14.804
31850SOL    HW197383   1.403   0.152  14.771
31850SOL    HW297384   1.313   0.274  14.761
31851SOL     OW97385   0.152  14.126   6.688
31851SOL    HW197386   0.237  14.168   6.698
31851SOL    HW297387   0.136  14.085   6.773
31852SOL     OW97388  12.555  14.852  11.591
31852SOL    HW197389  12.524  14.761  11.591
31852SOL    HW297390  12.475   0.025  11.597
31853SOL     OW97391   7.793   2.764   7.515
31853SOL    HW197392   7.776   2.765   7.609
31853SOL    HW297393   7.789   2.671   7.490
31854SOL     OW97394   6.721   1.901   5.555
31854SOL    HW197395   6.780   1.970   5.586
31854SOL    HW297396   6.633   1.933   5.573
31855SOL     OW97397   5.130  10.361   6.001
31855SOL    HW197398   5.198  10.428   6.006
31855SOL    HW297399   5.122  10.342   5.907
31856SOL     OW97400   8.026  11.454   5.277
31856SOL    HW197401   7.979  11.537   5.291
31856SOL    HW297402   8.049  11.455   5.185
31857SOL     OW97403   6.286  13.737   5.593
31857SOL    HW197404   6.235  13.776   5.522
31857SOL    HW297405   6.347  13.806   5.619
31858SOL     OW97406   7.250   0.532   6.789
31858SOL    HW197407   7.339   0.562   6.770
31858SOL    HW297408   7.234   0.463   6.725
31859SOL     OW97409  10.003   3.239  12.268
31859SOL    HW197410  10.000   3.224  12.173
31859SOL    HW297411  10.081   3.293  12.281
31860SOL     OW97412  11.339   7.443  12.826
31860SOL    HW197413  11.314   7.354  12.853
31860SOL    HW297414  11.434   7.441  12.823
31861SOL     OW97415   9.994  12.986   4.733
31861SOL    HW197416   9.932  12.969   4.663
31861SOL    HW297417   9.980  12.915   4.796
31862SOL     OW97418   5.226   8.047  10.548
31862SOL    HW197419   5.180   8.128  10.567
31862SOL    HW297420   5.158   7.987  10.517
31863SOL     OW97421   8.269   5.288   4.341
31863SOL    HW197422   8.188   5.339   4.337
31863SOL    HW297423   8.275   5.260   4.432
31864SOL     OW97424  10.773   6.570   7.421
31864SOL    HW197425  10.801   6.618   7.499
31864SOL    HW297426  10.844   6.583   7.358
31865SOL     OW97427  13.251  11.356   2.232
31865SOL    HW197428  13.265  11.261   2.235
31865SOL    HW297429  13.164  11.366   2.194
31866SOL     OW97430   6.162  12.188  13.505
31866SOL    HW197431   6.091  12.189  13.570
31866SOL    HW297432   6.234  12.233  13.548
31867SOL     OW97433  13.182   2.864  11.514
31867SOL    HW197434  13.268   2.900  11.538
31867SOL    HW297435  13.121   2.902  11.577
31868SOL     OW97436  13.701   3.281   3.919
31868SOL    HW197437  13.777   3.305   3.973
31868SOL    HW297438  13.645   3.359   3.922
31869SOL     OW97439   9.584  14.457   0.506
31869SOL    HW197440   9.648  14.417   0.565
31869SOL    HW297441   9.565  14.388   0.441
31870SOL     OW97442   2.674   9.498   1.841
31870SOL    HW197443   2.627   9.437   1.898
31870SOL    HW297444   2.606   9.549   1.798
31871SOL     OW97445   1.199   7.922   1.527
31871SOL    HW197446   1.260   7.856   1.492
31871SOL    HW297447   1.183   7.980   1.453
31872SOL     OW97448   8.291   9.976   8.336
31872SOL    HW197449   8.355   9.906   8.325
31872SOL    HW297450   8.267   9.973   8.428
31873SOL     OW97451   5.632  12.528   5.446
31873SOL    HW197452   5.626  12.445   5.400
31873SOL    HW297453   5.659  12.505   5.535
31874SOL     OW97454  13.775   6.936   9.033
31874SOL    HW197455  13.764   7.008   9.095
31874SOL    HW297456  13.762   6.857   9.086
31875SOL     OW97457  12.229  14.711  11.889
31875SOL    HW197458  12.156  14.772  11.879
31875SOL    HW297459  12.192  14.637  11.937
31876SOL     OW97460   9.071   9.332  11.771
31876SOL    HW197461   9.041   9.252  11.727
31876SOL    HW297462   9.122   9.300  11.845
31877SOL     OW97463   0.132   0.139   6.169
31877SOL    HW197464   0.142   0.148   6.074
31877SOL    HW297465   0.116   0.227   6.201
31878SOL     OW97466   0.787   6.758   7.226
31878SOL    HW197467   0.694   6.778   7.218
31878SOL    HW297468   0.791   6.671   7.265
31879SOL     OW97469   9.738  13.879   0.715
31879SOL    HW197470   9.720  13.947   0.650
31879SOL    HW297471   9.722  13.797   0.668
31880SOL     OW97472  12.457  14.326  10.533
31880SOL    HW197473  12.438  14.293  10.620
31880SOL    HW297474  12.381  14.299  10.480
31881SOL     OW97475  10.839  13.982  11.436
31881SOL    HW197476  10.761  14.023  11.398
31881SOL    HW297477  10.855  14.031  11.517
31882SOL     OW97478   6.880   7.331  14.633
31882SOL    HW197479   6.798   7.284  14.649
31882SOL    HW297480   6.887   7.333  14.537
31883SOL     OW97481   3.566  14.272  12.489
31883SOL    HW197482   3.582  14.340  12.554
31883SOL    HW297483   3.479  14.292  12.454
31884SOL     OW97484  12.303   6.298   3.033
31884SOL    HW197485  12.279   6.223   2.979
31884SOL    HW297486  12.225   6.316   3.085
31885SOL     OW97487   2.818   8.972  14.206
31885SOL    HW197488   2.861   8.919  14.274
31885SOL    HW297489   2.887   9.030  14.174
31886SOL     OW97490   4.016   3.430   5.886
31886SOL    HW197491   4.093   3.461   5.839
31886SOL    HW297492   3.955   3.504   5.885
31887SOL     OW97493   0.633  14.624   2.855
31887SOL    HW197494   0.644  14.714   2.887
31887SOL    HW297495   0.678  14.624   2.770
31888SOL     OW97496  13.769  11.870   0.859
31888SOL    HW197497  13.743  11.957   0.830
31888SOL    HW297498  13.717  11.854   0.937
31889SOL     OW97499  14.393   7.300   8.356
31889SOL    HW197500  14.306   7.261   8.366
31889SOL    HW297501  14.376   7.390   8.327
31890SOL     OW97502   2.066  14.240   2.831
31890SOL    HW197503   2.110  14.160   2.803
31890SOL    HW297504   1.976  14.213   2.851
31891SOL     OW97505   5.689   1.812   8.456
31891SOL    HW197506   5.645   1.738   8.414
31891SOL    HW297507   5.714   1.869   8.383
31892SOL     OW97508   1.895   8.783   2.001
31892SOL    HW197509   1.881   8.876   2.015
31892SOL    HW297510   1.816   8.741   2.035
31893SOL     OW97511   2.970   5.228   1.959
31893SOL    HW197512   2.939   5.146   1.997
31893SOL    HW297513   2.891   5.277   1.937
31894SOL     OW97514  12.347   3.569  10.432
31894SOL    HW197515  12.363   3.539  10.343
31894SOL    HW297516  12.425   3.619  10.455
31895SOL     OW97517  13.680   9.540  11.625
31895SOL    HW197518  13.676   9.562  11.532
31895SOL    HW297519  13.758   9.485  11.633
31896SOL     OW97520  13.170   8.214  13.742
31896SOL    HW197521  13.234   8.244  13.807
31896SOL    HW297522  13.171   8.282  13.674
31897SOL     OW97523   0.674   1.082  13.593
31897SOL    HW197524   0.677   1.116  13.682
31897SOL    HW297525   0.610   1.137  13.548
31898SOL     OW97526  14.240   9.988   3.757
31898SOL    HW197527  14.159  10.039   3.753
31898SOL    HW297528  14.309  10.054   3.761
31899SOL     OW97529  11.484   3.922   3.641
31899SOL    HW197530  11.571   3.947   3.612
31899SOL    HW297531  11.428   3.935   3.565
31900SOL     OW97532   8.979   0.619  14.840
31900SOL    HW197533   8.967   0.669  14.760
31900SOL    HW297534   9.065   0.577  14.830
31901SOL     OW97535   0.091   6.282   2.389
31901SOL    HW197536   0.017   6.240   2.433
31901SOL    HW297537   0.068   6.280   2.296
31902SOL     OW97538   0.320   9.673  12.591
31902SOL    HW197539   0.291   9.592  12.634
31902SOL    HW297540   0.414   9.661  12.578
31903SOL     OW97541  13.934  12.629   0.251
31903SOL    HW197542  13.962  12.637   0.343
31903SOL    HW297543  13.839  12.642   0.254
31904SOL     OW97544  11.926   0.288  14.555
31904SOL    HW197545  11.850   0.291  14.497
31904SOL    HW297546  11.984   0.222  14.516
31905SOL     OW97547  12.216   8.785   4.878
31905SOL    HW197548  12.244   8.713   4.822
31905SOL    HW297549  12.154   8.834   4.824
31906SOL     OW97550   0.509  14.209  13.975
31906SOL    HW197551   0.515  14.263  13.896
31906SOL    HW297552   0.446  14.140  13.953
31907SOL     OW97553   4.213   6.246   7.500
31907SOL    HW197554   4.201   6.254   7.405
31907SOL    HW297555   4.143   6.300   7.537
31908SOL     OW97556   9.376   7.876   4.504
31908SOL    HW197557   9.458   7.912   4.471
31908SOL    HW297558   9.310   7.906   4.441
31909SOL     OW97559   7.871  12.456   1.672
31909SOL    HW197560   7.941  12.415   1.721
31909SOL    HW297561   7.895  12.549   1.668
31910SOL     OW97562  10.947   5.023   3.805
31910SOL    HW197563  10.937   4.945   3.861
31910SOL    HW297564  10.990   5.087   3.861
31911SOL     OW97565  12.087   4.320  14.589
31911SOL    HW197566  12.019   4.260  14.620
31911SOL    HW297567  12.144   4.334  14.665
31912SOL     OW97568   6.311   7.666  13.691
31912SOL    HW197569   6.313   7.570  13.698
31912SOL    HW297570   6.402   7.692  13.679
31913SOL     OW97571  10.948  12.390   5.660
31913SOL    HW197572  10.972  12.480   5.682
31913SOL    HW297573  10.865  12.397   5.614
31914SOL     OW97574   2.111  12.400  13.611
31914SOL    HW197575   2.205  12.394  13.599
31914SOL    HW297576   2.100  12.441  13.697
31915SOL     OW97577   1.239  10.465  10.225
31915SOL    HW197578   1.317  10.440  10.274
31915SOL    HW297579   1.168  10.415  10.267
31916SOL     OW97580   4.102  10.355   5.473
31916SOL    HW197581   4.129  10.447   5.464
31916SOL    HW297582   4.053  10.352   5.555
31917SOL     OW97583   7.800   7.620   6.217
31917SOL    HW197584   7.854   7.635   6.294
31917SOL    HW297585   7.766   7.707   6.194
31918SOL     OW97586  11.324   1.601   5.666
31918SOL    HW197587  11.377   1.629   5.741
31918SOL    HW297588  11.363   1.645   5.591
31919SOL     OW97589  13.183  14.231  11.454
31919SOL    HW197590  13.244  14.158  11.457
31919SOL    HW297591  13.097  14.191  11.456
31920SOL     OW97592   7.450   7.064   4.977
31920SOL    HW197593   7.533   7.073   4.929
31920SOL    HW297594   7.476   7.036   5.065
31921SOL     OW97595   4.220   6.845  12.098
31921SOL    HW197596   4.232   6.814  12.187
31921SOL    HW297597   4.126   6.837  12.082
31922SOL     OW97598  13.149   7.364   9.430
31922SOL    HW197599  13.060   7.355   9.466
31922SOL    HW297600  13.204   7.315   9.490
31923SOL     OW97601  11.114   3.412   9.718
31923SOL    HW197602  11.115   3.318   9.696
31923SOL    HW297603  11.022   3.437   9.713
31924SOL     OW97604  13.649  12.001  12.396
31924SOL    HW197605  13.714  11.937  12.426
31924SOL    HW297606  13.665  12.078  12.450
31925SOL     OW97607   1.223   6.734   5.749
31925SOL    HW197608   1.202   6.827   5.748
31925SOL    HW297609   1.185   6.701   5.830
31926SOL     OW97610   5.194  13.729   1.839
31926SOL    HW197611   5.128  13.765   1.779
31926SOL    HW297612   5.274  13.726   1.787
31927SOL     OW97613   7.409   9.375   2.253
31927SOL    HW197614   7.428   9.286   2.222
31927SOL    HW297615   7.314   9.384   2.243
31928SOL     OW97616   9.720  12.692   6.807
31928SOL    HW197617   9.790  12.686   6.872
31928SOL    HW297618   9.697  12.601   6.788
31929SOL     OW97619  13.585  14.675   0.007
31929SOL    HW197620  13.635  14.689   0.088
31929SOL    HW297621  13.557  14.762  14.859
31930SOL     OW97622  11.168  10.584  13.246
31930SOL    HW197623  11.169  10.618  13.336
31930SOL    HW297624  11.257  10.599  13.214
31931SOL     OW97625  10.693  11.108  13.465
31931SOL    HW197626  10.660  11.056  13.539
31931SOL    HW297627  10.619  11.111  13.403
31932SOL     OW97628  14.197   3.281   1.668
31932SOL    HW197629  14.196   3.373   1.641
31932SOL    HW297630  14.134   3.277   1.739
31933SOL     OW97631   6.530   5.090   0.412
31933SOL    HW197632   6.607   5.131   0.452
31933SOL    HW297633   6.563   5.048   0.333
31934SOL     OW97634   6.176   6.392  13.181
31934SOL    HW197635   6.163   6.373  13.274
31934SOL    HW297636   6.270   6.406  13.173
31935SOL     OW97637   0.183   6.617   0.885
31935SOL    HW197638   0.134   6.690   0.848
31935SOL    HW297639   0.272   6.628   0.853
31936SOL     OW97640  11.877   6.018  10.046
31936SOL    HW197641  11.964   6.038  10.079
31936SOL    HW297642  11.857   6.089   9.985
31937SOL     OW97643   4.394   1.297   0.829
31937SOL    HW197644   4.451   1.335   0.763
31937SOL    HW297645   4.365   1.372   0.882
31938SOL     OW97646  12.119   0.051  14.046
31938SOL    HW197647  12.025   0.046  14.030
31938SOL    HW297648  12.152  14.843  14.022
31939SOL     OW97649  11.801   7.968   4.671
31939SOL    HW197650  11.860   7.986   4.597
31939SOL    HW297651  11.803   8.048   4.723
31940SOL     OW97652  13.965  12.593  13.227
31940SOL    HW197653  13.945  12.686  13.222
31940SOL    HW297654  14.060  12.588  13.212
31941SOL     OW97655  12.593   9.634  10.074
31941SOL    HW197656  12.586   9.555  10.129
31941SOL    HW297657  12.636   9.604   9.994
31942SOL     OW97658  10.145   6.202  14.305
31942SOL    HW197659  10.093   6.128  14.276
31942SOL    HW297660  10.217   6.206  14.242
31943SOL     OW97661   4.387  14.417  13.076
31943SOL    HW197662   4.403  14.323  13.072
31943SOL    HW297663   4.459  14.456  13.027
31944SOL     OW97664   8.146  13.071  14.022
31944SOL    HW197665   8.151  13.077  14.117
31944SOL    HW297666   8.066  13.119  13.999
31945SOL     OW97667   3.505   4.287   8.559
31945SOL    HW197668   3.492   4.379   8.538
31945SOL    HW297669   3.466   4.239   8.486
31946SOL     OW97670   5.515   9.123   9.991
31946SOL    HW197671   5.497   9.061  10.062
31946SOL    HW297672   5.438   9.118   9.935
31947SOL     OW97673   2.536   4.163   5.098
31947SOL    HW197674   2.562   4.135   5.010
31947SOL    HW297675   2.571   4.095   5.156
31948SOL     OW97676   3.038   9.089   4.109
31948SOL    HW197677   3.064   9.105   4.018
31948SOL    HW297678   3.065   9.168   4.156
31949SOL     OW97679   2.760   6.514  12.434
31949SOL    HW197680   2.831   6.481  12.489
31949SOL    HW297681   2.746   6.444  12.369
31950SOL     OW97682   6.478   2.079   6.706
31950SOL    HW197683   6.405   2.020   6.685
31950SOL    HW297684   6.455   2.118   6.790
31951SOL     OW97685  12.138  11.416   2.938
31951SOL    HW197686  12.084  11.493   2.921
31951SOL    HW297687  12.205  11.417   2.869
31952SOL     OW97688   6.818   4.077   9.546
31952SOL    HW197689   6.807   4.145   9.613
31952SOL    HW297690   6.733   4.032   9.543
31953SOL     OW97691  10.094  13.040   4.334
31953SOL    HW197692  10.117  12.964   4.387
31953SOL    HW297693  10.019  13.011   4.282
31954SOL     OW97694   2.154   9.541   9.337
31954SOL    HW197695   2.157   9.538   9.432
31954SOL    HW297696   2.223   9.481   9.308
31955SOL     OW97697  10.623   2.968   1.400
31955SOL    HW197698  10.684   3.039   1.424
31955SOL    HW297699  10.592   2.993   1.313
31956SOL     OW97700  11.102   9.488   5.699
31956SOL    HW197701  11.110   9.451   5.787
31956SOL    HW297702  11.013   9.523   5.696
31957SOL     OW97703   9.276  13.968   1.662
31957SOL    HW197704   9.337  13.984   1.733
31957SOL    HW297705   9.295  13.878   1.634
31958SOL     OW97706   6.091   6.699  12.490
31958SOL    HW197707   6.054   6.726  12.574
31958SOL    HW297708   6.130   6.778  12.453
31959SOL     OW97709   8.538   1.809   1.902
31959SOL    HW197710   8.557   1.773   1.988
31959SOL    HW297711   8.507   1.898   1.919
31960SOL     OW97712   8.330   2.788   5.723
31960SOL    HW197713   8.338   2.884   5.724
31960SOL    HW297714   8.398   2.758   5.783
31961SOL     OW97715   0.189   2.113   9.433
31961SOL    HW197716   0.207   2.085   9.343
31961SOL    HW297717   0.206   2.035   9.486
31962SOL     OW97718   0.274  12.462   6.112
31962SOL    HW197719   0.252  12.465   6.019
31962SOL    HW297720   0.191  12.443   6.156
31963SOL     OW97721  10.349  12.960  13.251
31963SOL    HW197722  10.267  12.911  13.257
31963SOL    HW297723  10.417  12.893  13.250
31964SOL     OW97724   9.109  11.284   7.716
31964SOL    HW197725   9.129  11.354   7.778
31964SOL    HW297726   9.183  11.285   7.654
31965SOL     OW97727   4.941   2.597   6.483
31965SOL    HW197728   4.899   2.652   6.416
31965SOL    HW297729   4.920   2.641   6.565
31966SOL     OW97730  12.280  10.400   2.993
31966SOL    HW197731  12.365  10.383   2.952
31966SOL    HW297732  12.301  10.428   3.082
31967SOL     OW97733  14.806   9.773  13.719
31967SOL    HW197734  14.737   9.823  13.676
31967SOL    HW297735  14.838   9.831  13.788
31968SOL     OW97736   1.204   9.910  11.982
31968SOL    HW197737   1.134   9.909  11.916
31968SOL    HW297738   1.230   9.818  11.991
31969SOL     OW97739   2.885   2.014   1.709
31969SOL    HW197740   2.929   1.929   1.716
31969SOL    HW297741   2.921   2.054   1.630
31970SOL     OW97742   6.872   3.248   9.692
31970SOL    HW197743   6.904   3.158   9.692
31970SOL    HW297744   6.783   3.241   9.727
31971SOL     OW97745  10.944   4.773  12.556
31971SOL    HW197746  10.957   4.868  12.552
31971SOL    HW297747  11.020   4.740  12.603
31972SOL     OW97748  13.474   2.154  10.511
31972SOL    HW197749  13.469   2.070  10.556
31972SOL    HW297750  13.408   2.209  10.553
31973SOL     OW97751  11.083   7.416   5.829
31973SOL    HW197752  11.074   7.368   5.911
31973SOL    HW297753  11.034   7.497   5.843
31974SOL     OW97754  13.272  10.382  11.523
31974SOL    HW197755  13.242  10.311  11.466
31974SOL    HW297756  13.265  10.346  11.611
31975SOL     OW97757  12.469   8.751   8.849
31975SOL    HW197758  12.519   8.796   8.917
31975SOL    HW297759  12.481   8.658   8.868
31976SOL     OW97760  11.598   2.506  11.463
31976SOL    HW197761  11.638   2.479  11.381
31976SOL    HW297762  11.507   2.478  11.456
31977SOL     OW97763   2.165   5.843  11.933
31977SOL    HW197764   2.154   5.822  12.026
31977SOL    HW297765   2.185   5.759  11.892
31978SOL     OW97766   5.699   7.060  11.600
31978SOL    HW197767   5.699   6.982  11.655
31978SOL    HW297768   5.658   7.128  11.654
31979SOL     OW97769  14.836   7.218   4.879
31979SOL    HW197770  14.764   7.277   4.902
31979SOL    HW297771  14.817   7.138   4.928
31980SOL     OW97772   1.777  14.465   0.646
31980SOL    HW197773   1.854  14.515   0.619
31980SOL    HW297774   1.734  14.521   0.711
31981SOL     OW97775  14.096  13.227   6.986
31981SOL    HW197776  14.013  13.187   7.010
31981SOL    HW297777  14.093  13.315   7.024
31982SOL     OW97778  10.573  12.233  10.832
31982SOL    HW197779  10.576  12.143  10.799
31982SOL    HW297780  10.579  12.224  10.927
31983SOL     OW97781   8.666  11.028  11.729
31983SOL    HW197782   8.663  11.008  11.822
31983SOL    HW297783   8.678  11.123  11.726
31984SOL     OW97784   6.948  10.592   2.937
31984SOL    HW197785   6.966  10.526   3.004
31984SOL    HW297786   7.034  10.622   2.908
31985SOL     OW97787  12.632  10.070   1.235
31985SOL    HW197788  12.616  10.001   1.299
31985SOL    HW297789  12.557  10.129   1.245
31986SOL     OW97790  10.262  10.617   2.508
31986SOL    HW197791  10.241  10.658   2.592
31986SOL    HW297792  10.357  10.624   2.501
31987SOL     OW97793   4.071  10.846   3.796
31987SOL    HW197794   4.034  10.894   3.869
31987SOL    HW297795   4.132  10.784   3.837
31988SOL     OW97796   3.982  12.702  10.619
31988SOL    HW197797   3.952  12.624  10.572
31988SOL    HW297798   3.903  12.738  10.659
31989SOL     OW97799   0.739   2.135   0.792
31989SOL    HW197800   0.653   2.161   0.826
31989SOL    HW297801   0.783   2.218   0.773
31990SOL     OW97802   6.711   2.848   0.089
31990SOL    HW197803   6.668   2.928   0.120
31990SOL    HW297804   6.790   2.841   0.143
31991SOL     OW97805   7.942   4.801   6.023
31991SOL    HW197806   8.010   4.812   5.957
31991SOL    HW297807   7.907   4.713   6.007
31992SOL     OW97808  12.837   7.143   3.686
31992SOL    HW197809  12.808   7.107   3.770
31992SOL    HW297810  12.759   7.140   3.630
31993SOL     OW97811   5.889  11.535   4.865
31993SOL    HW197812   5.899  11.592   4.789
31993SOL    HW297813   5.977  11.529   4.904
31994SOL     OW97814   7.510  14.466  12.828
31994SOL    HW197815   7.453  14.418  12.888
31994SOL    HW297816   7.454  14.488  12.754
31995SOL     OW97817   9.344   5.374   9.873
31995SOL    HW197818   9.333   5.411   9.961
31995SOL    HW297819   9.373   5.284   9.889
31996SOL     OW97820   6.003   7.094   2.428
31996SOL    HW197821   6.002   7.054   2.514
31996SOL    HW297822   5.922   7.145   2.424
31997SOL     OW97823   3.697   3.560  13.236
31997SOL    HW197824   3.691   3.596  13.325
31997SOL    HW297825   3.769   3.497  13.240
31998SOL     OW97826   5.932  14.475   5.716
31998SOL    HW197827   5.931  14.428   5.633
31998SOL    HW297828   6.018  14.455   5.753
31999SOL     OW97829   5.089   9.270  10.634
31999SOL    HW197830   5.069   9.211  10.707
31999SOL    HW297831   5.149   9.220  10.579
32000SOL     OW97832   2.214  11.864   2.637
32000SOL    HW197833   2.174  11.932   2.583
32000SOL    HW297834   2.305  11.891   2.646
32001SOL     OW97835   4.917   8.502   5.451
32001SOL    HW197836   4.961   8.417   5.459
32001SOL    HW297837   4.985   8.566   5.471
32002SOL     OW97838   0.971   5.036   8.197
32002SOL    HW197839   1.055   5.005   8.162
32002SOL    HW297840   0.985   5.043   8.291
32003SOL     OW97841   4.185   3.576   9.363
32003SOL    HW197842   4.198   3.585   9.457
32003SOL    HW297843   4.101   3.532   9.354
32004SOL     OW97844   4.740   4.651   6.550
32004SOL    HW197845   4.670   4.713   6.570
32004SOL    HW297846   4.820   4.698   6.572
32005SOL     OW97847  13.523   0.927  10.058
32005SOL    HW197848  13.447   0.869  10.053
32005SOL    HW297849  13.517   0.968  10.143
32006SOL     OW97850  11.292   5.019   3.816
32006SOL    HW197851  11.244   4.975   3.887
32006SOL    HW297852  11.384   5.009   3.840
32007SOL     OW97853  14.871   1.041  14.086
32007SOL    HW197854  14.862   1.126  14.042
32007SOL    HW297855   0.023   1.064  14.174
32008SOL     OW97856   7.867  13.838   2.073
32008SOL    HW197857   7.878  13.876   2.160
32008SOL    HW297858   7.954  13.842   2.033
32009SOL     OW97859  10.238   6.500   9.263
32009SOL    HW197860  10.163   6.447   9.287
32009SOL    HW297861  10.310   6.437   9.256
32010SOL     OW97862  10.623   4.219   4.652
32010SOL    HW197863  10.628   4.314   4.651
32010SOL    HW297864  10.714   4.191   4.665
32011SOL     OW97865  14.238   1.076  11.527
32011SOL    HW197866  14.331   1.096  11.527
32011SOL    HW297867  14.230   1.000  11.469
32012SOL     OW97868   7.718  11.566   2.421
32012SOL    HW197869   7.758  11.498   2.475
32012SOL    HW297870   7.652  11.520   2.370
32013SOL     OW97871   8.208  10.554   8.097
32013SOL    HW197872   8.297  10.590   8.101
32013SOL    HW297873   8.215  10.471   8.144
32014SOL     OW97874   7.689   0.213   7.443
32014SOL    HW197875   7.691   0.277   7.371
32014SOL    HW297876   7.600   0.217   7.476
32015SOL     OW97877   3.343   3.925   4.843
32015SOL    HW197878   3.410   3.975   4.796
32015SOL    HW297879   3.263   3.938   4.792
32016SOL     OW97880   6.807   2.838  11.420
32016SOL    HW197881   6.739   2.881  11.472
32016SOL    HW297882   6.786   2.862  11.329
32017SOL     OW97883   8.965  14.650  13.006
32017SOL    HW197884   8.995  14.566  13.040
32017SOL    HW297885   8.921  14.628  12.923
32018SOL     OW97886  13.143   2.186  14.378
32018SOL    HW197887  13.118   2.135  14.301
32018SOL    HW297888  13.225   2.229  14.352
32019SOL     OW97889   2.721   9.808   3.844
32019SOL    HW197890   2.669   9.747   3.896
32019SOL    HW297891   2.668   9.824   3.765
32020SOL     OW97892   7.559  10.101  13.209
32020SOL    HW197893   7.582  10.035  13.143
32020SOL    HW297894   7.476  10.071  13.246
32021SOL     OW97895   4.192   1.272   2.451
32021SOL    HW197896   4.190   1.367   2.441
32021SOL    HW297897   4.257   1.241   2.388
32022SOL     OW97898   1.159  12.249   6.252
32022SOL    HW197899   1.166  12.254   6.347
32022SOL    HW297900   1.156  12.340   6.223
32023SOL     OW97901  13.323   5.879  10.158
32023SOL    HW197902  13.354   5.789  10.167
32023SOL    HW297903  13.295   5.886  10.066
32024SOL     OW97904   7.181   9.612   8.469
32024SOL    HW197905   7.115   9.620   8.400
32024SOL    HW297906   7.256   9.571   8.426
32025SOL     OW97907  12.263   6.988   2.986
32025SOL    HW197908  12.300   6.900   2.993
32025SOL    HW297909  12.168   6.974   2.980
32026SOL     OW97910   6.540   5.315   1.606
32026SOL    HW197911   6.564   5.323   1.514
32026SOL    HW297912   6.528   5.406   1.636
32027SOL     OW97913  12.625   9.295   0.257
32027SOL    HW197914  12.551   9.303   0.318
32027SOL    HW297915  12.700   9.326   0.307
32028SOL     OW97916  11.265   2.631   0.163
32028SOL    HW197917  11.284   2.696   0.231
32028SOL    HW297918  11.275   2.679   0.081
32029SOL     OW97919  11.106  10.373  14.733
32029SOL    HW197920  11.050  10.298  14.714
32029SOL    HW297921  11.044  10.446  14.743
32030SOL     OW97922  14.247   8.104   7.861
32030SOL    HW197923  14.264   8.174   7.798
32030SOL    HW297924  14.302   8.125   7.936
32031SOL     OW97925   2.415   3.608   7.787
32031SOL    HW197926   2.385   3.692   7.822
32031SOL    HW297927   2.419   3.550   7.864
32032SOL     OW97928  11.798   5.029   4.900
32032SOL    HW197929  11.845   4.974   4.836
32032SOL    HW297930  11.860   5.042   4.971
32033SOL     OW97931   6.825   5.693  12.448
32033SOL    HW197932   6.915   5.687  12.479
32033SOL    HW297933   6.791   5.603  12.453
32034SOL     OW97934   7.644  12.257   2.788
32034SOL    HW197935   7.731  12.280   2.821
32034SOL    HW297936   7.656  12.171   2.748
32035SOL     OW97937   2.824   2.920  10.063
32035SOL    HW197938   2.843   2.897   9.972
32035SOL    HW297939   2.894   2.878  10.113
32036SOL     OW97940   7.055   4.930  13.078
32036SOL    HW197941   6.965   4.906  13.100
32036SOL    HW297942   7.073   4.885  12.996
32037SOL     OW97943   8.652  14.758   6.269
32037SOL    HW197944   8.663  14.851   6.289
32037SOL    HW297945   8.559  14.741   6.286
32038SOL     OW97946  11.796  10.627   7.944
32038SOL    HW197947  11.717  10.645   7.993
32038SOL    HW297948  11.853  10.582   8.006
32039SOL     OW97949   2.484   9.748   1.363
32039SOL    HW197950   2.470   9.781   1.452
32039SOL    HW297951   2.579   9.740   1.355
32040SOL     OW97952   5.137   5.381  12.976
32040SOL    HW197953   5.229   5.381  12.999
32040SOL    HW297954   5.116   5.289  12.958
32041SOL     OW97955   4.166  10.315   6.475
32041SOL    HW197956   4.156  10.304   6.380
32041SOL    HW297957   4.175  10.226   6.508
32042SOL     OW97958  10.156  11.793  14.072
32042SOL    HW197959  10.151  11.699  14.089
32042SOL    HW297960  10.171  11.832  14.158
32043SOL     OW97961   5.918  10.592   1.622
32043SOL    HW197962   5.932  10.645   1.701
32043SOL    HW297963   5.987  10.620   1.562
32044SOL     OW97964   5.875   9.370   7.763
32044SOL    HW197965   5.802   9.429   7.784
32044SOL    HW297966   5.862   9.295   7.822
32045SOL     OW97967   2.169  12.270  10.622
32045SOL    HW197968   2.121  12.271  10.539
32045SOL    HW297969   2.101  12.271  10.690
32046SOL     OW97970  14.592   8.627   6.209
32046SOL    HW197971  14.616   8.695   6.147
32046SOL    HW297972  14.660   8.560   6.199
32047SOL     OW97973   5.975  11.849   2.837
32047SOL    HW197974   6.055  11.897   2.818
32047SOL    HW297975   5.977  11.835   2.932
32048SOL     OW97976   2.198  13.798   7.414
32048SOL    HW197977   2.230  13.840   7.493
32048SOL    HW297978   2.174  13.870   7.356
32049SOL     OW97979   5.188   6.040   3.635
32049SOL    HW197980   5.193   6.069   3.726
32049SOL    HW297981   5.279   6.031   3.608
32050SOL     OW97982   2.584  14.018   1.747
32050SOL    HW197983   2.512  14.080   1.760
32050SOL    HW297984   2.583  13.999   1.654
32051SOL     OW97985   5.888   9.096  14.491
32051SOL    HW197986   5.889   9.154  14.415
32051SOL    HW297987   5.953   9.028  14.470
32052SOL     OW97988  13.735   8.665  13.143
32052SOL    HW197989  13.738   8.686  13.050
32052SOL    HW297990  13.683   8.735  13.182
32053SOL     OW97991   9.939   1.251   1.628
32053SOL    HW197992   9.968   1.264   1.718
32053SOL    HW297993   9.907   1.337   1.600
32054SOL     OW97994   3.372   7.592   1.426
32054SOL    HW197995   3.292   7.596   1.373
32054SOL    HW297996   3.420   7.672   1.403
32055SOL     OW97997   6.840   3.916   3.211
32055SOL    HW197998   6.859   3.891   3.301
32055SOL    HW297999   6.927   3.929   3.172
32056SOL     OW98000  13.647  12.032  11.641
32056SOL    HW198001  13.585  12.008  11.711
32056SOL    HW298002  13.651  12.128  11.645
32057SOL     OW98003  10.913   8.452   5.848
32057SOL    HW198004  10.879   8.374   5.805
32057SOL    HW298005  10.863   8.458   5.930
32058SOL     OW98006   5.796  14.390  11.730
32058SOL    HW198007   5.877  14.410  11.683
32058SOL    HW298008   5.794  14.295  11.735
32059SOL     OW98009   1.159  10.964   3.226
32059SOL    HW198010   1.104  11.038   3.201
32059SOL    HW298011   1.106  10.914   3.288
32060SOL     OW98012   5.885  13.259  11.569
32060SOL    HW198013   5.902  13.323  11.639
32060SOL    HW298014   5.960  13.200  11.572
32061SOL     OW98015  12.736   2.570   6.177
32061SOL    HW198016  12.831   2.571   6.167
32061SOL    HW298017  12.704   2.636   6.115
32062SOL     OW98018  13.104   7.912   5.862
32062SOL    HW198019  13.062   7.941   5.781
32062SOL    HW298020  13.036   7.866   5.910
32063SOL     OW98021   8.204   1.029  12.103
32063SOL    HW198022   8.273   1.042  12.038
32063SOL    HW298023   8.126   1.070  12.065
32064SOL     OW98024   4.799   6.803   5.034
32064SOL    HW198025   4.882   6.769   5.068
32064SOL    HW298026   4.821   6.835   4.946
32065SOL     OW98027   1.850   7.054  12.289
32065SOL    HW198028   1.881   7.134  12.246
32065SOL    HW298029   1.773   7.082  12.339
32066SOL     OW98030   6.560   8.452  13.869
32066SOL    HW198031   6.516   8.533  13.845
32066SOL    HW298032   6.607   8.426  13.790
32067SOL     OW98033   7.818   7.969  13.464
32067SOL    HW198034   7.905   7.947  13.431
32067SOL    HW298035   7.761   7.902  13.426
32068SOL     OW98036  13.821   7.617   5.944
32068SOL    HW198037  13.766   7.608   5.866
32068SOL    HW298038  13.851   7.708   5.941
32069SOL     OW98039   7.328   7.351   9.228
32069SOL    HW198040   7.254   7.337   9.168
32069SOL    HW298041   7.402   7.308   9.185
32070SOL     OW98042  14.800   1.399   7.734
32070SOL    HW198043  14.773   1.402   7.826
32070SOL    HW298044  14.841   1.313   7.723
32071SOL     OW98045  14.524   6.621   6.566
32071SOL    HW198046  14.500   6.712   6.549
32071SOL    HW298047  14.453   6.586   6.619
32072SOL     OW98048   1.720   4.597   3.159
32072SOL    HW198049   1.787   4.538   3.124
32072SOL    HW298050   1.747   4.684   3.128
32073SOL     OW98051  12.253   7.876   4.254
32073SOL    HW198052  12.268   7.858   4.161
32073SOL    HW298053  12.272   7.793   4.297
32074SOL     OW98054   6.982   2.062   1.466
32074SOL    HW198055   7.064   2.041   1.422
32074SOL    HW298056   6.949   2.139   1.420
32075SOL     OW98057   2.051   6.648   6.894
32075SOL    HW198058   2.067   6.627   6.802
32075SOL    HW298059   2.137   6.675   6.927
32076SOL     OW98060   4.539  12.072  14.286
32076SOL    HW198061   4.589  12.152  14.269
32076SOL    HW298062   4.499  12.051  14.202
32077SOL     OW98063  12.886  12.614   2.280
32077SOL    HW198064  12.906  12.681   2.345
32077SOL    HW298065  12.907  12.654   2.196
32078SOL     OW98066  14.106  14.277  11.366
32078SOL    HW198067  14.157  14.355  11.346
32078SOL    HW298068  14.170  14.213  11.395
32079SOL     OW98069   9.210  10.416   8.631
32079SOL    HW198070   9.249  10.479   8.691
32079SOL    HW298071   9.149  10.468   8.578
32080SOL     OW98072   6.701  10.209   2.700
32080SOL    HW198073   6.629  10.149   2.680
32080SOL    HW298074   6.762  10.199   2.627
32081SOL     OW98075   0.243   6.748  13.432
32081SOL    HW198076   0.261   6.667  13.384
32081SOL    HW298077   0.259   6.726  13.523
32082SOL     OW98078   8.441  14.754   2.612
32082SOL    HW198079   8.423  14.814   2.685
32082SOL    HW298080   8.398  14.672   2.637
32083SOL     OW98081   0.583   8.218   9.760
32083SOL    HW198082   0.616   8.138   9.802
32083SOL    HW298083   0.550   8.189   9.675
32084SOL     OW98084   0.396  12.178  10.108
32084SOL    HW198085   0.305  12.157  10.127
32084SOL    HW298086   0.426  12.226  10.185
32085SOL     OW98087   3.071   8.002   8.198
32085SOL    HW198088   3.011   8.070   8.229
32085SOL    HW298089   3.145   8.051   8.162
32086SOL     OW98090  10.413   2.310   4.747
32086SOL    HW198091  10.394   2.385   4.691
32086SOL    HW298092  10.365   2.237   4.707
32087SOL     OW98093   0.769   7.167   5.701
32087SOL    HW198094   0.679   7.136   5.711
32087SOL    HW298095   0.800   7.178   5.791
32088SOL     OW98096   8.071   7.215  10.942
32088SOL    HW198097   8.032   7.264  11.014
32088SOL    HW298098   7.996   7.172  10.900
32089SOL     OW98099  13.458   4.293  12.241
32089SOL    HW198100  13.417   4.376  12.267
32089SOL    HW298101  13.414   4.270  12.159
32090SOL     OW98102   7.126   6.561   9.832
32090SOL    HW198103   7.083   6.602   9.757
32090SOL    HW298104   7.195   6.622   9.857
32091SOL     OW98105   3.732   4.827   4.847
32091SOL    HW198106   3.801   4.813   4.913
32091SOL    HW298107   3.679   4.898   4.882
32092SOL     OW98108   4.028  11.997   6.755
32092SOL    HW198109   3.934  11.997   6.734
32092SOL    HW298110   4.061  12.078   6.716
32093SOL     OW98111   0.704   6.009   6.239
32093SOL    HW198112   0.792   5.985   6.269
32093SOL    HW298113   0.711   6.010   6.144
32094SOL     OW98114   7.492  11.480   0.463
32094SOL    HW198115   7.491  11.556   0.405
32094SOL    HW298116   7.428  11.500   0.531
32095SOL     OW98117   8.144  14.605   8.030
32095SOL    HW198118   8.169  14.628   7.941
32095SOL    HW298119   8.203  14.656   8.086
32096SOL     OW98120   6.754   8.516   6.385
32096SOL    HW198121   6.832   8.491   6.435
32096SOL    HW298122   6.722   8.434   6.348
32097SOL     OW98123   5.044   0.932  10.876
32097SOL    HW198124   5.027   0.898  10.964
32097SOL    HW298125   4.962   0.972  10.849
32098SOL     OW98126   5.279   2.591   2.541
32098SOL    HW198127   5.305   2.683   2.541
32098SOL    HW298128   5.317   2.555   2.461
32099SOL     OW98129  12.046  12.792   8.554
32099SOL    HW198130  11.969  12.750   8.594
32099SOL    HW298131  12.012  12.834   8.475
32100SOL     OW98132   6.512  12.569   3.187
32100SOL    HW198133   6.556  12.636   3.239
32100SOL    HW298134   6.540  12.584   3.097
32101SOL     OW98135   1.865   3.978   4.070
32101SOL    HW198136   1.823   4.029   4.000
32101SOL    HW298137   1.939   3.935   4.028
32102SOL     OW98138   5.822  14.685  11.628
32102SOL    HW198139   5.891  14.619  11.635
32102SOL    HW298140   5.756  14.644  11.572
32103SOL     OW98141   6.951   9.559   6.030
32103SOL    HW198142   6.986   9.528   5.947
32103SOL    HW298143   6.868   9.601   6.007
32104SOL     OW98144  10.776   8.941   4.180
32104SOL    HW198145  10.820   8.948   4.095
32104SOL    HW298146  10.693   8.987   4.168
32105SOL     OW98147  14.648   0.980   1.678
32105SOL    HW198148  14.680   1.066   1.649
32105SOL    HW298149  14.555   0.994   1.695
32106SOL     OW98150  13.982   6.362   7.884
32106SOL    HW198151  14.032   6.281   7.894
32106SOL    HW298152  13.898   6.344   7.926
32107SOL     OW98153   2.284  12.006   1.088
32107SOL    HW198154   2.343  11.996   1.014
32107SOL    HW298155   2.198  12.023   1.049
32108SOL     OW98156  10.359  12.389  13.279
32108SOL    HW198157  10.382  12.459  13.217
32108SOL    HW298158  10.408  12.410  13.358
32109SOL     OW98159   4.587  14.303  10.145
32109SOL    HW198160   4.592  14.322  10.239
32109SOL    HW298161   4.510  14.351  10.115
32110SOL     OW98162   8.863   8.710   3.338
32110SOL    HW198163   8.815   8.790   3.361
32110SOL    HW298164   8.932   8.739   3.279
32111SOL     OW98165   6.849   9.269   6.561
32111SOL    HW198166   6.861   9.209   6.488
32111SOL    HW298167   6.893   9.227   6.634
32112SOL     OW98168   2.920  12.712   6.406
32112SOL    HW198169   2.981  12.729   6.333
32112SOL    HW298170   2.951  12.630   6.443
32113SOL     OW98171   4.785   9.624   8.542
32113SOL    HW198172   4.880   9.633   8.551
32113SOL    HW298173   4.771   9.596   8.452
32114SOL     OW98174   3.712   9.379   2.697
32114SOL    HW198175   3.628   9.383   2.652
32114SOL    HW298176   3.776   9.409   2.632
32115SOL     OW98177   7.318   5.843  13.542
32115SOL    HW198178   7.345   5.795  13.464
32115SOL    HW298179   7.387   5.826  13.606
32116SOL     OW98180   4.068  13.847  11.434
32116SOL    HW198181   4.126  13.831  11.508
32116SOL    HW298182   4.126  13.850  11.358
32117SOL     OW98183   8.827   1.190  11.465
32117SOL    HW198184   8.888   1.224  11.531
32117SOL    HW298185   8.757   1.149  11.516
32118SOL     OW98186  13.577   2.740   0.031
32118SOL    HW198187  13.643   2.765   0.095
32118SOL    HW298188  13.493   2.756   0.075
32119SOL     OW98189   7.998  14.669   6.608
32119SOL    HW198190   8.059  14.691   6.679
32119SOL    HW298191   8.011  14.738   6.543
32120SOL     OW98192  11.674   3.162   3.113
32120SOL    HW198193  11.670   3.083   3.059
32120SOL    HW298194  11.658   3.234   3.051
32121SOL     OW98195   2.616  12.169   8.414
32121SOL    HW198196   2.644  12.095   8.467
32121SOL    HW298197   2.598  12.238   8.478
32122SOL     OW98198  12.059  10.441   6.169
32122SOL    HW198199  12.024  10.504   6.231
32122SOL    HW298200  12.135  10.485   6.129
32123SOL     OW98201   6.554   4.750  11.076
32123SOL    HW198202   6.626   4.776  11.018
32123SOL    HW298203   6.575   4.790  11.160
32124SOL     OW98204   3.163   9.131  14.821
32124SOL    HW198205   3.237   9.076  14.795
32124SOL    HW298206   3.089   9.070  14.824
32125SOL     OW98207   7.563  11.067   7.596
32125SOL    HW198208   7.491  11.092   7.538
32125SOL    HW298209   7.622  11.142   7.594
32126SOL     OW98210  13.646   4.821   5.396
32126SOL    HW198211  13.618   4.871   5.320
32126SOL    HW298212  13.565   4.795   5.439
32127SOL     OW98213  13.576   4.334   4.629
32127SOL    HW198214  13.588   4.374   4.543
32127SOL    HW298215  13.619   4.394   4.690
32128SOL     OW98216   6.198   3.343   7.639
32128SOL    HW198217   6.210   3.311   7.550
32128SOL    HW298218   6.279   3.389   7.660
32129SOL     OW98219   2.896  10.665  14.476
32129SOL    HW198220   2.942  10.608  14.414
32129SOL    HW298221   2.951  10.743  14.482
32130SOL     OW98222  13.655   9.902   3.975
32130SOL    HW198223  13.603   9.837   3.928
32130SOL    HW298224  13.603   9.926   4.051
32131SOL     OW98225   4.022   7.192   9.915
32131SOL    HW198226   3.952   7.137   9.950
32131SOL    HW298227   4.086   7.131   9.879
32132SOL     OW98228  13.399   5.216   3.181
32132SOL    HW198229  13.419   5.276   3.253
32132SOL    HW298230  13.485   5.188   3.150
32133SOL     OW98231  13.991   0.575   0.642
32133SOL    HW198232  13.976   0.527   0.561
32133SOL    HW298233  13.938   0.529   0.707
32134SOL     OW98234  11.175  13.835  10.372
32134SOL    HW198235  11.259  13.836  10.419
32134SOL    HW298236  11.124  13.767  10.416
32135SOL     OW98237   2.372   0.016   3.501
32135SOL    HW198238   2.334   0.038   3.416
32135SOL    HW298239   2.360   0.095   3.554
32136SOL     OW98240   3.009  12.373   9.785
32136SOL    HW198241   3.095  12.402   9.754
32136SOL    HW298242   3.027  12.328   9.867
32137SOL     OW98243  14.837   5.450   7.637
32137SOL    HW198244   0.054   5.452   7.631
32137SOL    HW298245  14.814   5.535   7.674
32138SOL     OW98246   7.536  10.400   4.718
32138SOL    HW198247   7.560  10.364   4.632
32138SOL    HW298248   7.453  10.445   4.703
32139SOL     OW98249  12.627   2.672   7.865
32139SOL    HW198250  12.594   2.670   7.775
32139SOL    HW298251  12.672   2.588   7.876
32140SOL     OW98252  10.891   9.186   6.412
32140SOL    HW198253  10.962   9.146   6.462
32140SOL    HW298254  10.811   9.153   6.451
32141SOL     OW98255  10.366  13.892  13.430
32141SOL    HW198256  10.415  13.837  13.492
32141SOL    HW298257  10.432  13.949  13.391
32142SOL     OW98258  12.141   0.822   0.665
32142SOL    HW198259  12.190   0.894   0.624
32142SOL    HW298260  12.177   0.743   0.624
32143SOL     OW98261   9.834   8.838   3.802
32143SOL    HW198262   9.750   8.868   3.837
32143SOL    HW298263   9.855   8.759   3.852
32144SOL     OW98264  13.467  12.763   9.042
32144SOL    HW198265  13.554  12.785   9.078
32144SOL    HW298266  13.415  12.741   9.119
32145SOL     OW98267   1.870   4.259   3.429
32145SOL    HW198268   1.818   4.188   3.468
32145SOL    HW298269   1.938   4.213   3.379
32146SOL     OW98270   6.592  13.636  10.157
32146SOL    HW198271   6.630  13.549  10.170
32146SOL    HW298272   6.618  13.660  10.068
32147SOL     OW98273  12.288   8.316   6.969
32147SOL    HW198274  12.322   8.252   6.906
32147SOL    HW298275  12.197   8.291   6.981
32148SOL     OW98276   4.609  12.891   3.168
32148SOL    HW198277   4.606  12.935   3.083
32148SOL    HW298278   4.539  12.826   3.163
32149SOL     OW98279  13.218   5.140   2.233
32149SOL    HW198280  13.252   5.051   2.229
32149SOL    HW298281  13.285   5.188   2.283
32150SOL     OW98282   7.515   9.160   8.751
32150SOL    HW198283   7.444   9.224   8.751
32150SOL    HW298284   7.587   9.204   8.705
32151SOL     OW98285   1.394   3.929  13.211
32151SOL    HW198286   1.427   3.866  13.147
32151SOL    HW298287   1.464   3.936  13.276
32152SOL     OW98288   6.279   6.815  11.053
32152SOL    HW198289   6.311   6.896  11.014
32152SOL    HW298290   6.259   6.758  10.978
32153SOL     OW98291   0.684   0.006   4.213
32153SOL    HW198292   0.753  14.833   4.254
32153SOL    HW298293   0.712   0.015   4.122
32154SOL     OW98294   5.285  10.486   9.814
32154SOL    HW198295   5.358  10.457   9.759
32154SOL    HW298296   5.235  10.407   9.832
32155SOL     OW98297   7.470   6.293   2.938
32155SOL    HW198298   7.403   6.229   2.914
32155SOL    HW298299   7.526   6.247   3.001
32156SOL     OW98300  11.203   9.892   7.706
32156SOL    HW198301  11.289   9.864   7.739
32156SOL    HW298302  11.154   9.810   7.694
32157SOL     OW98303   6.449   1.862  10.546
32157SOL    HW198304   6.503   1.867  10.467
32157SOL    HW298305   6.374   1.808  10.520
32158SOL     OW98306   6.119   4.587   1.400
32158SOL    HW198307   6.180   4.515   1.414
32158SOL    HW298308   6.032   4.546   1.403
32159SOL     OW98309   1.907   4.880   3.098
32159SOL    HW198310   1.889   4.857   3.007
32159SOL    HW298311   2.000   4.904   3.099
32160SOL     OW98312   4.117   6.621   2.887
32160SOL    HW198313   4.211   6.613   2.901
32160SOL    HW298314   4.082   6.648   2.972
32161SOL     OW98315  10.298   6.474  11.789
32161SOL    HW198316  10.238   6.548  11.795
32161SOL    HW298317  10.315   6.464  11.695
32162SOL     OW98318  13.763   9.596   9.207
32162SOL    HW198319  13.752   9.632   9.118
32162SOL    HW298320  13.851   9.621   9.232
32163SOL     OW98321  10.690  14.078  10.346
32163SOL    HW198322  10.599  14.048  10.356
32163SOL    HW298323  10.702  14.085  10.251
32164SOL     OW98324   6.863   3.713   6.911
32164SOL    HW198325   6.959   3.712   6.905
32164SOL    HW298326   6.838   3.800   6.879
32165SOL     OW98327  11.038  10.776   4.542
32165SOL    HW198328  11.057  10.855   4.490
32165SOL    HW298329  11.106  10.714   4.518
32166SOL     OW98330   8.445   0.314   3.889
32166SOL    HW198331   8.411   0.372   3.957
32166SOL    HW298332   8.537   0.336   3.882
32167SOL     OW98333  13.126   7.124   3.413
32167SOL    HW198334  13.112   7.038   3.374
32167SOL    HW298335  13.191   7.166   3.357
32168SOL     OW98336   4.541  10.436  12.584
32168SOL    HW198337   4.489  10.389  12.519
32168SOL    HW298338   4.552  10.524  12.548
32169SOL     OW98339   8.944  10.850  11.422
32169SOL    HW198340   8.975  10.779  11.365
32169SOL    HW298341   8.868  10.813  11.467
32170SOL     OW98342   3.285  11.946  10.666
32170SOL    HW198343   3.332  12.026  10.646
32170SOL    HW298344   3.342  11.876  10.634
32171SOL     OW98345  13.679   8.148   6.333
32171SOL    HW198346  13.675   8.204   6.411
32171SOL    HW298347  13.631   8.197   6.266
32172SOL     OW98348   0.645   1.204   2.457
32172SOL    HW198349   0.729   1.160   2.472
32172SOL    HW298350   0.584   1.133   2.439
32173SOL     OW98351  14.415   0.962  10.587
32173SOL    HW198352  14.422   0.948  10.681
32173SOL    HW298353  14.465   0.890  10.548
32174SOL     OW98354   3.791  14.499  13.254
32174SOL    HW198355   3.830  14.434  13.196
32174SOL    HW298356   3.701  14.508  13.223
32175SOL     OW98357  11.185   7.892   0.371
32175SOL    HW198358  11.190   7.811   0.421
32175SOL    HW298359  11.186   7.864   0.279
32176SOL     OW98360   0.138  14.051   6.964
32176SOL    HW198361   0.054  14.077   7.001
32176SOL    HW298362   0.203  14.092   7.020
32177SOL     OW98363   0.243  13.803   7.623
32177SOL    HW198364   0.304  13.876   7.619
32177SOL    HW298365   0.286  13.739   7.679
32178SOL     OW98366   8.705   9.625   8.059
32178SOL    HW198367   8.761   9.570   8.003
32178SOL    HW298368   8.623   9.577   8.064
32179SOL     OW98369   6.753  12.907   3.134
32179SOL    HW198370   6.680  12.968   3.124
32179SOL    HW298371   6.717  12.835   3.185
32180SOL     OW98372  12.365   1.660   1.610
32180SOL    HW198373  12.407   1.588   1.561
32180SOL    HW298374  12.271   1.646   1.596
32181SOL     OW98375   6.714   9.339   2.572
32181SOL    HW198376   6.809   9.338   2.585
32181SOL    HW298377   6.693   9.249   2.547
32182SOL     OW98378   5.377   4.548   9.255
32182SOL    HW198379   5.458   4.500   9.270
32182SOL    HW298380   5.373   4.560   9.160
32183SOL     OW98381   9.626   2.208   1.389
32183SOL    HW198382   9.595   2.208   1.479
32183SOL    HW298383   9.548   2.230   1.337
32184SOL     OW98384   2.236  12.011  12.967
32184SOL    HW198385   2.176  12.055  13.027
32184SOL    HW298386   2.285  11.950  13.022
32185SOL     OW98387  12.437   7.897   4.935
32185SOL    HW198388  12.372   7.927   4.998
32185SOL    HW298389  12.515   7.949   4.955
32186SOL     OW98390  10.142   9.594  11.133
32186SOL    HW198391  10.082   9.649  11.083
32186SOL    HW298392  10.092   9.514  11.151
32187SOL     OW98393   1.010  12.735  10.350
32187SOL    HW198394   1.057  12.687  10.283
32187SOL    HW298395   1.017  12.681  10.429
32188SOL     OW98396   7.754   3.705   5.516
32188SOL    HW198397   7.819   3.639   5.492
32188SOL    HW298398   7.776   3.781   5.461
32189SOL     OW98399   3.912   2.128  12.611
32189SOL    HW198400   3.926   2.097  12.700
32189SOL    HW298401   3.890   2.221  12.621
32190SOL     OW98402   9.492   7.909   1.525
32190SOL    HW198403   9.570   7.892   1.471
32190SOL    HW298404   9.492   8.003   1.538
32191SOL     OW98405   4.692  10.283   6.938
32191SOL    HW198406   4.691  10.197   6.979
32191SOL    HW298407   4.727  10.341   7.006
32192SOL     OW98408   4.014   6.835   0.810
32192SOL    HW198409   4.027   6.828   0.715
32192SOL    HW298410   3.942   6.897   0.819
32193SOL     OW98411   8.195   5.901   5.027
32193SOL    HW198412   8.151   5.827   4.986
32193SOL    HW298413   8.287   5.874   5.033
32194SOL     OW98414   2.440   0.281   5.520
32194SOL    HW198415   2.486   0.198   5.532
32194SOL    HW298416   2.389   0.292   5.600
32195SOL     OW98417  11.403   4.787   2.250
32195SOL    HW198418  11.469   4.721   2.231
32195SOL    HW298419  11.442   4.842   2.318
32196SOL     OW98420   4.338   8.898   5.255
32196SOL    HW198421   4.299   8.824   5.302
32196SOL    HW298422   4.278   8.913   5.182
32197SOL     OW98423  13.202   9.122   4.339
32197SOL    HW198424  13.266   9.158   4.400
32197SOL    HW298425  13.223   9.029   4.335
32198SOL     OW98426   0.664  14.266   5.638
32198SOL    HW198427   0.757  14.252   5.618
32198SOL    HW298428   0.665  14.315   5.720
32199SOL     OW98429  10.988  14.574  12.142
32199SOL    HW198430  10.999  14.479  12.145
32199SOL    HW298431  11.023  14.605  12.226
32200SOL     OW98432   1.482  12.051   2.601
32200SOL    HW198433   1.425  11.986   2.643
32200SOL    HW298434   1.569  12.032   2.633
32201SOL     OW98435   9.849   6.481   1.366
32201SOL    HW198436   9.816   6.429   1.439
32201SOL    HW298437   9.780   6.475   1.300
32202SOL     OW98438   3.911   9.136  12.932
32202SOL    HW198439   3.820   9.115  12.910
32202SOL    HW298440   3.904   9.215  12.985
32203SOL     OW98441   7.692   9.386   5.450
32203SOL    HW198442   7.616   9.412   5.503
32203SOL    HW298443   7.685   9.291   5.444
32204SOL     OW98444  12.446   1.477   0.010
32204SOL    HW198445  12.505   1.525  14.831
32204SOL    HW298446  12.392   1.425  14.830
32205SOL     OW98447  11.367   3.505   7.163
32205SOL    HW198448  11.418   3.575   7.123
32205SOL    HW298449  11.427   3.464   7.226
32206SOL     OW98450   3.875   3.415   6.132
32206SOL    HW198451   3.788   3.381   6.108
32206SOL    HW298452   3.920   3.425   6.048
32207SOL     OW98453   6.340  13.298   9.915
32207SOL    HW198454   6.386  13.379   9.891
32207SOL    HW298455   6.261  13.328   9.959
32208SOL     OW98456   2.049   4.989  14.073
32208SOL    HW198457   2.118   4.931  14.041
32208SOL    HW298458   2.013   5.030  13.994
32209SOL     OW98459   5.131  12.770   6.717
32209SOL    HW198460   5.153  12.832   6.786
32209SOL    HW298461   5.049  12.803   6.680
32210SOL     OW98462   9.256   5.790  14.056
32210SOL    HW198463   9.261   5.810  13.963
32210SOL    HW298464   9.164   5.804  14.079
32211SOL     OW98465   5.627   6.377   2.232
32211SOL    HW198466   5.600   6.287   2.251
32211SOL    HW298467   5.683   6.369   2.155
32212SOL     OW98468   5.983  10.992   6.630
32212SOL    HW198469   6.010  10.985   6.538
32212SOL    HW298470   5.943  11.078   6.637
32213SOL     OW98471   3.981  12.883   7.262
32213SOL    HW198472   4.007  12.909   7.350
32213SOL    HW298473   3.967  12.966   7.215
32214SOL     OW98474   8.359   1.436   3.502
32214SOL    HW198475   8.448   1.469   3.492
32214SOL    HW298476   8.304   1.501   3.458
32215SOL     OW98477   5.562   3.068   7.762
32215SOL    HW198478   5.613   2.996   7.799
32215SOL    HW298479   5.487   3.077   7.820
32216SOL     OW98480  13.776   9.648  13.126
32216SOL    HW198481  13.854   9.701  13.111
32216SOL    HW298482  13.706   9.711  13.143
32217SOL     OW98483  11.284   7.623   9.848
32217SOL    HW198484  11.223   7.638   9.920
32217SOL    HW298485  11.250   7.546   9.803
32218SOL     OW98486  10.411  12.053  12.180
32218SOL    HW198487  10.468  12.077  12.253
32218SOL    HW298488  10.325  12.086  12.205
32219SOL     OW98489   3.855   5.123   6.025
32219SOL    HW198490   3.802   5.178   6.082
32219SOL    HW298491   3.945   5.139   6.053
32220SOL     OW98492   6.633  13.839   2.867
32220SOL    HW198493   6.557  13.811   2.817
32220SOL    HW298494   6.623  13.934   2.873
32221SOL     OW98495   8.466   3.194   1.173
32221SOL    HW198496   8.488   3.103   1.191
32221SOL    HW298497   8.402   3.190   1.102
32222SOL     OW98498   6.796  10.823  13.431
32222SOL    HW198499   6.885  10.853  13.445
32222SOL    HW298500   6.803  10.761  13.358
32223SOL     OW98501   0.242   3.118   8.252
32223SOL    HW198502   0.181   3.076   8.191
32223SOL    HW298503   0.239   3.211   8.229
32224SOL     OW98504   8.598   0.988  10.960
32224SOL    HW198505   8.684   0.949  10.972
32224SOL    HW298506   8.552   0.926  10.903
32225SOL     OW98507   4.530   7.424  13.762
32225SOL    HW198508   4.530   7.472  13.679
32225SOL    HW298509   4.618   7.437  13.798
32226SOL     OW98510   6.605   3.959  11.257
32226SOL    HW198511   6.553   3.886  11.291
32226SOL    HW298512   6.641   4.001  11.335
32227SOL     OW98513   5.077   0.156   4.015
32227SOL    HW198514   5.154   0.213   4.021
32227SOL    HW298515   5.112   0.073   3.984
32228SOL     OW98516   2.639   6.378   1.921
32228SOL    HW198517   2.631   6.297   1.972
32228SOL    HW298518   2.588   6.443   1.970
32229SOL     OW98519   6.659  12.555   7.954
32229SOL    HW198520   6.604  12.536   7.878
32229SOL    HW298521   6.682  12.648   7.944
32230SOL     OW98522   5.184   0.363   9.277
32230SOL    HW198523   5.148   0.355   9.365
32230SOL    HW298524   5.137   0.436   9.238
32231SOL     OW98525  12.721  10.717   8.922
32231SOL    HW198526  12.728  10.737   9.015
32231SOL    HW298527  12.671  10.636   8.919
32232SOL     OW98528   9.806   1.738   0.029
32232SOL    HW198529   9.893   1.712   0.058
32232SOL    HW298530   9.816   1.828  14.879
32233SOL     OW98531   1.243  10.263   2.894
32233SOL    HW198532   1.336  10.266   2.919
32233SOL    HW298533   1.197  10.241   2.975
32234SOL     OW98534  13.858  11.393  13.729
32234SOL    HW198535  13.941  11.346  13.722
32234SOL    HW298536  13.873  11.457  13.798
32235SOL     OW98537   3.015  14.481   5.179
32235SOL    HW198538   2.952  14.553   5.187
32235SOL    HW298539   3.060  14.479   5.263
32236SOL     OW98540   1.302   4.757   0.250
32236SOL    HW198541   1.216   4.727   0.220
32236SOL    HW298542   1.295   4.757   0.345
32237SOL     OW98543   0.491   9.917   8.187
32237SOL    HW198544   0.481   9.983   8.118
32237SOL    HW298545   0.572   9.940   8.231
32238SOL     OW98546  14.759  10.370   8.000
32238SOL    HW198547  14.665  10.386   8.008
32238SOL    HW298548  14.800  10.445   8.042
32239SOL     OW98549  11.678  14.763   4.396
32239SOL    HW198550  11.749  14.759   4.331
32239SOL    HW298551  11.630  14.681   4.384
32240SOL     OW98552   5.935   9.692  10.183
32240SOL    HW198553   5.956   9.743  10.104
32240SOL    HW298554   6.019   9.677  10.224
32241SOL     OW98555   2.896   8.680  14.138
32241SOL    HW198556   2.915   8.774  14.133
32241SOL    HW298557   2.811   8.674  14.180
32242SOL     OW98558   4.259   7.670   0.785
32242SOL    HW198559   4.211   7.588   0.786
32242SOL    HW298560   4.308   7.668   0.703
32243SOL     OW98561   7.727  14.224   5.601
32243SOL    HW198562   7.677  14.300   5.569
32243SOL    HW298563   7.715  14.158   5.533
32244SOL     OW98564   3.956   6.935  13.451
32244SOL    HW198565   3.916   6.855  13.418
32244SOL    HW298566   3.894   6.968  13.517
32245SOL     OW98567  12.798   7.913   4.334
32245SOL    HW198568  12.720   7.889   4.284
32245SOL    HW298569  12.790   7.864   4.416
32246SOL     OW98570  12.047   5.705  12.660
32246SOL    HW198571  12.101   5.628  12.681
32246SOL    HW298572  12.058   5.762  12.736
32247SOL     OW98573   7.154   9.172   1.903
32247SOL    HW198574   7.082   9.203   1.959
32247SOL    HW298575   7.169   9.244   1.842
32248SOL     OW98576   8.598  10.977   1.402
32248SOL    HW198577   8.674  10.994   1.346
32248SOL    HW298578   8.632  10.917   1.469
32249SOL     OW98579  13.278   4.992  12.802
32249SOL    HW198580  13.249   5.067  12.750
32249SOL    HW298581  13.328   4.939  12.740
32250SOL     OW98582   2.663   3.801  10.986
32250SOL    HW198583   2.675   3.797  10.891
32250SOL    HW298584   2.728   3.865  11.015
32251SOL     OW98585   9.523  12.924  12.764
32251SOL    HW198586   9.432  12.895  12.769
32251SOL    HW298587   9.548  12.940  12.855
32252SOL     OW98588  13.406   1.225  11.158
32252SOL    HW198589  13.333   1.230  11.220
32252SOL    HW298590  13.448   1.311  11.162
32253SOL     OW98591   6.531  11.619   2.910
32253SOL    HW198592   6.537  11.714   2.903
32253SOL    HW298593   6.439  11.601   2.925
32254SOL     OW98594  10.210   2.012  12.224
32254SOL    HW198595  10.252   2.044  12.144
32254SOL    HW298596  10.192   1.920  12.206
32255SOL     OW98597   7.234   5.787   7.509
32255SOL    HW198598   7.203   5.878   7.506
32255SOL    HW298599   7.312   5.786   7.453
32256SOL     OW98600  13.259   2.690  13.987
32256SOL    HW198601  13.344   2.708  14.028
32256SOL    HW298602  13.281   2.669  13.896
32257SOL     OW98603   0.457   3.812   3.895
32257SOL    HW198604   0.441   3.747   3.963
32257SOL    HW298605   0.442   3.765   3.813
32258SOL     OW98606   3.286   6.722  11.972
32258SOL    HW198607   3.362   6.774  11.949
32258SOL    HW298608   3.244   6.702  11.889
32259SOL     OW98609   8.310  12.466   0.659
32259SOL    HW198610   8.323  12.387   0.606
32259SOL    HW298611   8.316  12.538   0.597
32260SOL     OW98612   0.039   9.608   1.611
32260SOL    HW198613   0.106   9.564   1.559
32260SOL    HW298614   0.071   9.698   1.620
32261SOL     OW98615   8.184   8.228   1.927
32261SOL    HW198616   8.262   8.179   1.952
32261SOL    HW298617   8.211   8.319   1.928
32262SOL     OW98618   4.570   3.941   0.304
32262SOL    HW198619   4.533   3.960   0.218
32262SOL    HW298620   4.660   3.913   0.286
32263SOL     OW98621   9.283   4.517   6.165
32263SOL    HW198622   9.306   4.566   6.087
32263SOL    HW298623   9.364   4.471   6.189
32264SOL     OW98624   4.226  12.968  11.846
32264SOL    HW198625   4.164  13.034  11.878
32264SOL    HW298626   4.203  12.888  11.894
32265SOL     OW98627   9.402   8.155  11.914
32265SOL    HW198628   9.390   8.123  11.825
32265SOL    HW298629   9.494   8.180  11.919
32266SOL     OW98630   1.055   2.014   7.368
32266SOL    HW198631   1.033   1.948   7.303
32266SOL    HW298632   0.989   2.004   7.436
32267SOL     OW98633  14.409   8.073  14.810
32267SOL    HW198634  14.485   8.033  14.766
32267SOL    HW298635  14.434   8.164  14.822
32268SOL     OW98636  11.647   9.523   8.129
32268SOL    HW198637  11.685   9.530   8.042
32268SOL    HW298638  11.606   9.437   8.131
32269SOL     OW98639   0.706   7.803   5.573
32269SOL    HW198640   0.699   7.892   5.540
32269SOL    HW298641   0.801   7.786   5.575
32270SOL     OW98642   2.085   6.239   7.699
32270SOL    HW198643   2.096   6.149   7.667
32270SOL    HW298644   1.990   6.250   7.708
32271SOL     OW98645   5.551   3.804  14.677
32271SOL    HW198646   5.638   3.791  14.640
32271SOL    HW298647   5.503   3.725  14.652
32272SOL     OW98648   9.715   2.444   4.275
32272SOL    HW198649   9.771   2.438   4.352
32272SOL    HW298650   9.770   2.484   4.208
32273SOL     OW98651  14.552   7.608   5.250
32273SOL    HW198652  14.464   7.579   5.275
32273SOL    HW298653  14.590   7.533   5.205
32274SOL     OW98654  13.535  10.603   0.639
32274SOL    HW198655  13.563  10.688   0.608
32274SOL    HW298656  13.557  10.542   0.568
32275SOL     OW98657   4.047   0.197  10.407
32275SOL    HW198658   3.990   0.152  10.470
32275SOL    HW298659   4.009   0.284  10.398
32276SOL     OW98660  12.402  12.955   5.068
32276SOL    HW198661  12.468  13.022   5.088
32276SOL    HW298662  12.319  13.003   5.068
32277SOL     OW98663   8.971   7.364   3.749
32277SOL    HW198664   8.880   7.386   3.769
32277SOL    HW298665   8.978   7.377   3.654
32278SOL     OW98666   2.100   1.929   7.852
32278SOL    HW198667   2.154   1.866   7.900
32278SOL    HW298668   2.067   1.879   7.777
32279SOL     OW98669   9.284   9.086   6.905
32279SOL    HW198670   9.211   9.134   6.944
32279SOL    HW298671   9.306   9.019   6.970
32280SOL     OW98672   7.023   8.634   1.382
32280SOL    HW198673   7.111   8.672   1.384
32280SOL    HW298674   7.036   8.544   1.353
32281SOL     OW98675   1.134   8.259  12.170
32281SOL    HW198676   1.211   8.297  12.211
32281SOL    HW298677   1.155   8.259  12.076
32282SOL     OW98678   3.650   5.856   4.199
32282SOL    HW198679   3.686   5.941   4.225
32282SOL    HW298680   3.711   5.824   4.132
32283SOL     OW98681   5.770  10.927  14.854
32283SOL    HW198682   5.727  10.849   0.011
32283SOL    HW298683   5.797  10.901  14.766
32284SOL     OW98684   8.161   0.156  12.790
32284SOL    HW198685   8.112   0.116  12.862
32284SOL    HW298686   8.157   0.090  12.720
32285SOL     OW98687   8.584   0.885   6.243
32285SOL    HW198688   8.533   0.967   6.243
32285SOL    HW298689   8.519   0.816   6.233
32286SOL     OW98690   4.384   0.434   7.472
32286SOL    HW198691   4.454   0.381   7.434
32286SOL    HW298692   4.395   0.521   7.433
32287SOL     OW98693   7.830   6.785  11.350
32287SOL    HW198694   7.920   6.815  11.360
32287SOL    HW298695   7.781   6.832  11.418
32288SOL     OW98696  10.070   9.881  12.602
32288SOL    HW198697  10.038   9.843  12.684
32288SOL    HW298698  10.005   9.946  12.579
32289SOL     OW98699   2.495   0.868   5.095
32289SOL    HW198700   2.558   0.911   5.152
32289SOL    HW298701   2.546   0.839   5.020
32290SOL     OW98702  12.681   6.498   6.123
32290SOL    HW198703  12.706   6.429   6.061
32290SOL    HW298704  12.764   6.525   6.163
32291SOL     OW98705   1.340  12.580   9.770
32291SOL    HW198706   1.347  12.536   9.855
32291SOL    HW298707   1.430  12.583   9.737
32292SOL     OW98708   2.668  10.261   6.155
32292SOL    HW198709   2.610  10.205   6.206
32292SOL    HW298710   2.611  10.327   6.117
32293SOL     OW98711  14.330  10.742   4.494
32293SOL    HW198712  14.264  10.740   4.563
32293SOL    HW298713  14.398  10.683   4.525
32294SOL     OW98714   0.809  10.476  10.588
32294SOL    HW198715   0.871  10.546  10.566
32294SOL    HW298716   0.755  10.513  10.659
32295SOL     OW98717  11.613  13.932  10.260
32295SOL    HW198718  11.673  13.884  10.317
32295SOL    HW298719  11.670  13.978  10.198
32296SOL     OW98720   3.797  14.348   7.228
32296SOL    HW198721   3.817  14.365   7.136
32296SOL    HW298722   3.881  14.324   7.267
32297SOL     OW98723  12.478   6.217   1.210
32297SOL    HW198724  12.450   6.250   1.125
32297SOL    HW298725  12.500   6.295   1.261
32298SOL     OW98726  14.325  11.269   9.043
32298SOL    HW198727  14.282  11.297   8.962
32298SOL    HW298728  14.389  11.338   9.061
32299SOL     OW98729   2.151  12.836  12.184
32299SOL    HW198730   2.198  12.865  12.262
32299SOL    HW298731   2.069  12.800  12.217
32300SOL     OW98732  12.737  11.421   5.984
32300SOL    HW198733  12.811  11.395   6.039
32300SOL    HW298734  12.754  11.378   5.900
32301SOL     OW98735   1.808  13.401   1.476
32301SOL    HW198736   1.823  13.458   1.401
32301SOL    HW298737   1.828  13.313   1.443
32302SOL     OW98738   5.762  10.975  11.973
32302SOL    HW198739   5.705  11.000  12.046
32302SOL    HW298740   5.755  11.048  11.911
32303SOL     OW98741   9.015   0.631   2.113
32303SOL    HW198742   9.043   0.617   2.023
32303SOL    HW298743   8.941   0.571   2.124
32304SOL     OW98744   2.799   6.708   8.725
32304SOL    HW198745   2.732   6.742   8.784
32304SOL    HW298746   2.875   6.695   8.781
32305SOL     OW98747   2.477   4.168  13.158
32305SOL    HW198748   2.541   4.110  13.200
32305SOL    HW298749   2.475   4.138  13.067
32306SOL     OW98750   8.763   4.289   2.900
32306SOL    HW198751   8.832   4.317   2.959
32306SOL    HW298752   8.734   4.205   2.936
32307SOL     OW98753   1.544  11.111   4.734
32307SOL    HW198754   1.631  11.091   4.700
32307SOL    HW298755   1.536  11.059   4.813
32308SOL     OW98756   4.888  13.565  11.293
32308SOL    HW198757   4.842  13.484  11.270
32308SOL    HW298758   4.916  13.551  11.383
32309SOL     OW98759  12.488   7.326  14.615
32309SOL    HW198760  12.557   7.318  14.549
32309SOL    HW298761  12.474   7.237  14.646
32310SOL     OW98762   7.945  11.487  13.830
32310SOL    HW198763   7.943  11.440  13.747
32310SOL    HW298764   7.953  11.579  13.806
32311SOL     OW98765   8.888   3.552  12.236
32311SOL    HW198766   8.797   3.559  12.265
32311SOL    HW298767   8.929   3.494  12.300
32312SOL     OW98768   9.029  10.734   8.662
32312SOL    HW198769   8.947  10.685   8.666
32312SOL    HW298770   9.003  10.824   8.682
32313SOL     OW98771  11.663   2.214  10.347
32313SOL    HW198772  11.605   2.180  10.414
32313SOL    HW298773  11.654   2.309  10.353
32314SOL     OW98774  10.993   7.522  10.612
32314SOL    HW198775  10.953   7.495  10.530
32314SOL    HW298776  10.931   7.584  10.650
32315SOL     OW98777   5.187   4.916  11.228
32315SOL    HW198778   5.239   4.854  11.177
32315SOL    HW298779   5.126   4.954  11.164
32316SOL     OW98780   0.713  11.313   8.070
32316SOL    HW198781   0.620  11.302   8.051
32316SOL    HW298782   0.718  11.394   8.121
32317SOL     OW98783   4.299   5.756  11.615
32317SOL    HW198784   4.374   5.712  11.576
32317SOL    HW298785   4.332   5.841  11.643
32318SOL     OW98786   5.998   5.647   7.190
32318SOL    HW198787   6.007   5.737   7.221
32318SOL    HW298788   6.073   5.634   7.131
32319SOL     OW98789  11.231   9.710   7.351
32319SOL    HW198790  11.319   9.696   7.314
32319SOL    HW298791  11.202   9.793   7.313
32320SOL     OW98792  11.874   4.874  12.222
32320SOL    HW198793  11.795   4.849  12.174
32320SOL    HW298794  11.855   4.962  12.253
32321SOL     OW98795   5.042  13.012   6.425
32321SOL    HW198796   4.994  12.935   6.395
32321SOL    HW298797   5.129  13.002   6.386
32322SOL     OW98798   6.080   8.463   9.828
32322SOL    HW198799   6.082   8.454   9.923
32322SOL    HW298800   6.114   8.551   9.811
32323SOL     OW98801   7.840  13.672   2.356
32323SOL    HW198802   7.875  13.758   2.332
32323SOL    HW298803   7.750  13.690   2.384
32324SOL     OW98804  13.532   4.488   9.761
32324SOL    HW198805  13.602   4.444   9.809
32324SOL    HW298806  13.478   4.418   9.726
32325SOL     OW98807  10.313  12.844   8.568
32325SOL    HW198808  10.315  12.865   8.661
32325SOL    HW298809  10.316  12.928   8.524
32326SOL     OW98810   9.598  14.676  11.808
32326SOL    HW198811   9.660  14.688  11.736
32326SOL    HW298812   9.579  14.766  11.837
32327SOL     OW98813  12.956  12.823   0.200
32327SOL    HW198814  12.936  12.842   0.108
32327SOL    HW298815  12.922  12.735   0.215
32328SOL     OW98816  14.098  10.240  10.355
32328SOL    HW198817  14.171  10.301  10.364
32328SOL    HW298818  14.032  10.273  10.415
32329SOL     OW98819   0.507   5.940   2.430
32329SOL    HW198820   0.447   5.995   2.479
32329SOL    HW298821   0.593   5.960   2.467
32330SOL     OW98822  14.837   0.563   0.840
32330SOL    HW198823  14.827   0.523   0.927
32330SOL    HW298824   0.052   0.571   0.828
32331SOL     OW98825   0.435  12.650   9.443
32331SOL    HW198826   0.456  12.655   9.350
32331SOL    HW298827   0.350  12.607   9.446
32332SOL     OW98828  13.182   3.616  12.505
32332SOL    HW198829  13.183   3.696  12.559
32332SOL    HW298830  13.272   3.608  12.473
32333SOL     OW98831   7.578   7.415   5.747
32333SOL    HW198832   7.614   7.460   5.823
32333SOL    HW298833   7.593   7.476   5.674
32334SOL     OW98834   5.187   2.749  14.153
32334SOL    HW198835   5.111   2.693  14.170
32334SOL    HW298836   5.215   2.725  14.065
32335SOL     OW98837   3.223  14.658   3.029
32335SOL    HW198838   3.243  14.604   3.105
32335SOL    HW298839   3.128  14.672   3.033
32336SOL     OW98840  12.279  10.791   1.713
32336SOL    HW198841  12.286  10.732   1.638
32336SOL    HW298842  12.190  10.825   1.710
32337SOL     OW98843   0.689   9.170  12.842
32337SOL    HW198844   0.726   9.094  12.797
32337SOL    HW298845   0.757   9.196  12.904
32338SOL     OW98846   6.658   5.585   7.134
32338SOL    HW198847   6.742   5.577   7.179
32338SOL    HW298848   6.599   5.623   7.199
32339SOL     OW98849   5.677   3.853   3.446
32339SOL    HW198850   5.617   3.782   3.467
32339SOL    HW298851   5.635   3.932   3.481
32340SOL     OW98852  13.595   1.292   3.696
32340SOL    HW198853  13.537   1.353   3.740
32340SOL    HW298854  13.592   1.318   3.604
32341SOL     OW98855  10.536   9.013  12.506
32341SOL    HW198856  10.447   9.040  12.527
32341SOL    HW298857  10.526   8.946  12.438
32342SOL     OW98858   7.684   2.871   7.114
32342SOL    HW198859   7.670   2.839   7.025
32342SOL    HW298860   7.775   2.848   7.134
32343SOL     OW98861  12.531  14.599   7.376
32343SOL    HW198862  12.540  14.693   7.362
32343SOL    HW298863  12.610  14.561   7.338
32344SOL     OW98864   4.429   4.815   8.970
32344SOL    HW198865   4.394   4.796   8.882
32344SOL    HW298866   4.518   4.781   8.968
32345SOL     OW98867   6.388  11.856  13.938
32345SOL    HW198868   6.310  11.806  13.916
32345SOL    HW298869   6.382  11.868  14.033
32346SOL     OW98870   2.260  10.952   2.855
32346SOL    HW198871   2.188  10.927   2.913
32346SOL    HW298872   2.217  10.984   2.775
32347SOL     OW98873  12.633   9.256   6.803
32347SOL    HW198874  12.642   9.257   6.898
32347SOL    HW298875  12.578   9.180   6.785
32348SOL     OW98876   7.659   3.701   5.114
32348SOL    HW198877   7.639   3.644   5.040
32348SOL    HW298878   7.736   3.661   5.155
32349SOL     OW98879  12.602   2.313   9.675
32349SOL    HW198880  12.632   2.241   9.620
32349SOL    HW298881  12.681   2.361   9.698
32350SOL     OW98882   5.151  14.682   4.292
32350SOL    HW198883   5.175  14.593   4.265
32350SOL    HW298884   5.075  14.670   4.349
32351SOL     OW98885  12.603   5.757   5.368
32351SOL    HW198886  12.686   5.736   5.412
32351SOL    HW298887  12.571   5.673   5.336
32352SOL     OW98888   8.444  11.364  14.187
32352SOL    HW198889   8.490  11.321  14.260
32352SOL    HW298890   8.514  11.389  14.127
32353SOL     OW98891   7.159  13.316   1.275
32353SOL    HW198892   7.236  13.293   1.327
32353SOL    HW298893   7.195  13.355   1.196
32354SOL     OW98894  11.762   1.676   2.705
32354SOL    HW198895  11.690   1.612   2.704
32354SOL    HW298896  11.747   1.729   2.627
32355SOL     OW98897   6.205   7.355  11.782
32355SOL    HW198898   6.254   7.389  11.707
32355SOL    HW298899   6.243   7.400  11.857
32356SOL     OW98900   4.385   3.004   3.854
32356SOL    HW198901   4.293   2.977   3.849
32356SOL    HW298902   4.413   2.979   3.942
32357SOL     OW98903   6.966   6.095   7.850
32357SOL    HW198904   6.997   6.092   7.941
32357SOL    HW298905   7.023   6.159   7.808
32358SOL     OW98906   8.753   1.746  13.773
32358SOL    HW198907   8.845   1.743  13.746
32358SOL    HW298908   8.711   1.677  13.722
32359SOL     OW98909   0.763   2.803  13.627
32359SOL    HW198910   0.701   2.871  13.602
32359SOL    HW298911   0.715   2.721  13.615
32360SOL     OW98912  12.089   0.621   5.118
32360SOL    HW198913  12.153   0.632   5.047
32360SOL    HW298914  12.134   0.655   5.196
32361SOL     OW98915   5.940  11.932   2.395
32361SOL    HW198916   5.875  11.921   2.326
32361SOL    HW298917   5.949  11.845   2.433
32362SOL     OW98918   8.515  13.569   8.010
32362SOL    HW198919   8.564  13.541   7.933
32362SOL    HW298920   8.460  13.494   8.032
32363SOL     OW98921   4.844   3.338   9.496
32363SOL    HW198922   4.862   3.351   9.403
32363SOL    HW298923   4.779   3.268   9.499
32364SOL     OW98924   2.918   6.595   4.695
32364SOL    HW198925   2.993   6.644   4.660
32364SOL    HW298926   2.896   6.641   4.777
32365SOL     OW98927  13.311  13.917   8.839
32365SOL    HW198928  13.255  13.864   8.895
32365SOL    HW298929  13.345  13.985   8.897
32366SOL     OW98930   0.207   8.678   4.058
32366SOL    HW198931   0.197   8.767   4.091
32366SOL    HW298932   0.144   8.627   4.109
32367SOL     OW98933   5.014   1.967   6.338
32367SOL    HW198934   4.959   1.930   6.407
32367SOL    HW298935   5.053   2.045   6.378
32368SOL     OW98936   3.132  12.826   9.876
32368SOL    HW198937   3.221  12.793   9.892
32368SOL    HW298938   3.088  12.818   9.960
32369SOL     OW98939   3.737   7.392   7.894
32369SOL    HW198940   3.674   7.450   7.938
32369SOL    HW298941   3.821   7.415   7.934
32370SOL     OW98942   7.221  13.424   2.840
32370SOL    HW198943   7.263  13.384   2.764
32370SOL    HW298944   7.171  13.354   2.880
32371SOL     OW98945   6.720   1.894   4.529
32371SOL    HW198946   6.697   1.838   4.602
32371SOL    HW298947   6.729   1.981   4.568
32372SOL     OW98948   3.664  10.780   1.919
32372SOL    HW198949   3.707  10.834   1.985
32372SOL    HW298950   3.720  10.703   1.911
32373SOL     OW98951  13.579  10.584  10.428
32373SOL    HW198952  13.600  10.503  10.381
32373SOL    HW298953  13.660  10.608  10.472
32374SOL     OW98954  10.674  14.019   6.973
32374SOL    HW198955  10.633  14.105   6.976
32374SOL    HW298956  10.757  14.034   6.927
32375SOL     OW98957   5.885   9.718  10.486
32375SOL    HW198958   5.874   9.677  10.400
32375SOL    HW298959   5.832   9.798  10.481
32376SOL     OW98960   3.802  10.397   0.160
32376SOL    HW198961   3.823  10.370   0.070
32376SOL    HW298962   3.781  10.490   0.153
32377SOL     OW98963   3.976   1.050  13.435
32377SOL    HW198964   4.061   1.009  13.424
32377SOL    HW298965   3.914   0.987  13.399
32378SOL     OW98966   0.114   6.502   6.250
32378SOL    HW198967   0.024   6.470   6.256
32378SOL    HW298968   0.158   6.467   6.327
32379SOL     OW98969   6.282  12.230   3.272
32379SOL    HW198970   6.207  12.202   3.219
32379SOL    HW298971   6.255  12.214   3.362
32380SOL     OW98972   8.618   6.265   5.205
32380SOL    HW198973   8.658   6.228   5.126
32380SOL    HW298974   8.532   6.295   5.176
32381SOL     OW98975  14.351  12.044  12.511
32381SOL    HW198976  14.313  12.125  12.544
32381SOL    HW298977  14.302  11.974  12.554
32382SOL     OW98978   0.960  14.507   3.480
32382SOL    HW198979   1.049  14.517   3.446
32382SOL    HW298980   0.934  14.595   3.506
32383SOL     OW98981   0.856   0.293   4.864
32383SOL    HW198982   0.942   0.283   4.823
32383SOL    HW298983   0.801   0.333   4.797
32384SOL     OW98984   5.243   5.557   3.743
32384SOL    HW198985   5.198   5.622   3.688
32384SOL    HW298986   5.281   5.495   3.680
32385SOL     OW98987  11.430   9.426  13.456
32385SOL    HW198988  11.471   9.453  13.538
32385SOL    HW298989  11.376   9.350  13.480
32386SOL     OW98990   4.730   3.142  10.205
32386SOL    HW198991   4.794   3.164  10.273
32386SOL    HW298992   4.764   3.185  10.126
32387SOL     OW98993  10.856  12.113   1.693
32387SOL    HW198994  10.881  12.201   1.722
32387SOL    HW298995  10.780  12.127   1.636
32388SOL     OW98996   0.521   9.290   4.239
32388SOL    HW198997   0.591   9.265   4.300
32388SOL    HW298998   0.564   9.294   4.153
32389SOL     OW98999   8.853   9.096  10.168
32389SOL    HW199000   8.845   9.013  10.120
32389SOL    HW299001   8.939   9.130  10.143
32390SOL     OW99002   6.398   5.910  12.839
32390SOL    HW199003   6.374   5.986  12.892
32390SOL    HW299004   6.457   5.945  12.772
32391SOL     OW99005  10.505  14.546   0.670
32391SOL    HW199006  10.542  14.633   0.687
32391SOL    HW299007  10.548  14.489   0.733
32392SOL     OW99008   9.806   4.537   9.360
32392SOL    HW199009   9.861   4.520   9.283
32392SOL    HW299010   9.755   4.614   9.336
32393SOL     OW99011   8.306   2.574  14.604
32393SOL    HW199012   8.339   2.522  14.531
32393SOL    HW299013   8.263   2.510  14.661
32394SOL     OW99014   3.980  13.375   8.310
32394SOL    HW199015   4.062  13.371   8.260
32394SOL    HW299016   4.005  13.417   8.393
32395SOL     OW99017   7.026   1.102  10.160
32395SOL    HW199018   7.118   1.077  10.147
32395SOL    HW299019   7.004   1.152  10.081
32396SOL     OW99020  14.791  10.176  11.040
32396SOL    HW199021  14.809  10.098  10.986
32396SOL    HW299022  14.770  10.244  10.976
32397SOL     OW99023   5.864   8.641   7.228
32397SOL    HW199024   5.915   8.561   7.242
32397SOL    HW299025   5.860   8.651   7.133
32398SOL     OW99026   9.977   3.968  12.521
32398SOL    HW199027  10.024   3.886  12.533
32398SOL    HW299028   9.994   4.018  12.600
32399SOL     OW99029  14.400   1.817   3.312
32399SOL    HW199030  14.491   1.802   3.336
32399SOL    HW299031  14.382   1.752   3.244
32400SOL     OW99032   3.157  14.037  14.722
32400SOL    HW199033   3.113  14.023  14.806
32400SOL    HW299034   3.180  13.949  14.692
32401SOL     OW99035  13.339   0.900   8.683
32401SOL    HW199036  13.254   0.926   8.720
32401SOL    HW299037  13.316   0.842   8.611
32402SOL     OW99038  10.125   4.267   0.946
32402SOL    HW199039  10.102   4.175   0.938
32402SOL    HW299040  10.041   4.313   0.940
32403SOL     OW99041  12.330   5.830  12.187
32403SOL    HW199042  12.403   5.825  12.125
32403SOL    HW299043  12.358   5.894  12.252
32404SOL     OW99044   7.068  13.577   6.236
32404SOL    HW199045   7.112  13.570   6.152
32404SOL    HW299046   7.001  13.644   6.222
32405SOL     OW99047  10.202   8.649   2.931
32405SOL    HW199048  10.167   8.737   2.938
32405SOL    HW299049  10.177   8.620   2.843
32406SOL     OW99050   6.749   2.099   8.819
32406SOL    HW199051   6.843   2.078   8.819
32406SOL    HW299052   6.710   2.029   8.870
32407SOL     OW99053   4.277  11.148   0.573
32407SOL    HW199054   4.301  11.238   0.594
32407SOL    HW299055   4.322  11.095   0.640
32408SOL     OW99056   7.951   8.863   8.993
32408SOL    HW199057   7.952   8.939   9.051
32408SOL    HW299058   7.969   8.789   9.050
32409SOL     OW99059   9.410   2.315   9.679
32409SOL    HW199060   9.446   2.388   9.729
32409SOL    HW299061   9.328   2.293   9.724
32410SOL     OW99062   2.526  11.053  14.604
32410SOL    HW199063   2.455  11.074  14.544
32410SOL    HW299064   2.489  10.989  14.664
32411SOL     OW99065  11.901   6.846   5.247
32411SOL    HW199066  11.944   6.931   5.248
32411SOL    HW299067  11.819   6.861   5.295
32412SOL     OW99068  11.814   1.900   0.991
32412SOL    HW199069  11.882   1.872   0.930
32412SOL    HW299070  11.835   1.856   1.073
32413SOL     OW99071   6.687  11.859  13.902
32413SOL    HW199072   6.606  11.824  13.939
32413SOL    HW299073   6.714  11.794  13.837
32414SOL     OW99074   6.937   4.975   1.339
32414SOL    HW199075   6.843   4.989   1.324
32414SOL    HW299076   6.974   4.966   1.251
32415SOL     OW99077  10.156  13.886  10.880
32415SOL    HW199078  10.136  13.871  10.972
32415SOL    HW299079  10.222  13.955  10.880
32416SOL     OW99080   5.521  13.549  10.273
32416SOL    HW199081   5.504  13.613  10.204
32416SOL    HW299082   5.469  13.472  10.248
32417SOL     OW99083   5.711  12.922   4.835
32417SOL    HW199084   5.712  12.831   4.805
32417SOL    HW299085   5.691  12.973   4.756
32418SOL     OW99086  14.449  13.126  13.053
32418SOL    HW199087  14.469  13.208  13.009
32418SOL    HW299088  14.437  13.150  13.145
32419SOL     OW99089   1.737  12.031   7.286
32419SOL    HW199090   1.739  11.936   7.300
32419SOL    HW299091   1.698  12.066   7.365
32420SOL     OW99092  11.917   9.953  11.089
32420SOL    HW199093  11.957   9.871  11.062
32420SOL    HW299094  11.830   9.952  11.047
32421SOL     OW99095   9.700   4.120   8.163
32421SOL    HW199096   9.655   4.150   8.085
32421SOL    HW299097   9.631   4.091   8.222
32422SOL     OW99098   3.757   0.247   8.967
32422SOL    HW199099   3.813   0.274   9.040
32422SOL    HW299100   3.816   0.200   8.907
32423SOL     OW99101   1.513   8.870   9.883
32423SOL    HW199102   1.545   8.901   9.799
32423SOL    HW299103   1.504   8.949   9.936
32424SOL     OW99104  11.302   8.865  10.406
32424SOL    HW199105  11.264   8.777  10.399
32424SOL    HW299106  11.389   8.850  10.443
32425SOL     OW99107  10.047   0.920   6.906
32425SOL    HW199108  10.002   0.996   6.869
32425SOL    HW299109  10.122   0.907   6.848
32426SOL     OW99110   5.963   3.816  12.215
32426SOL    HW199111   5.867   3.817  12.221
32426SOL    HW299112   5.992   3.784  12.300
32427SOL     OW99113  13.280   4.870   7.208
32427SOL    HW199114  13.265   4.919   7.288
32427SOL    HW299115  13.330   4.793   7.236
32428SOL     OW99116   7.575   6.258   2.170
32428SOL    HW199117   7.505   6.308   2.128
32428SOL    HW299118   7.598   6.309   2.247
32429SOL     OW99119  10.236  12.248   9.764
32429SOL    HW199120  10.308  12.190   9.787
32429SOL    HW299121  10.266  12.295   9.686
32430SOL     OW99122  11.320  14.362   7.690
32430SOL    HW199123  11.402  14.318   7.711
32430SOL    HW299124  11.345  14.438   7.637
32431SOL     OW99125   1.018   2.474   7.778
32431SOL    HW199126   0.987   2.443   7.693
32431SOL    HW299127   1.051   2.563   7.761
32432SOL     OW99128  14.079   1.058   6.350
32432SOL    HW199129  14.172   1.074   6.334
32432SOL    HW299130  14.065   0.969   6.317
32433SOL     OW99131   7.087  14.509   8.614
32433SOL    HW199132   7.163  14.454   8.633
32433SOL    HW299133   7.098  14.586   8.669
32434SOL     OW99134   1.372  12.168  13.947
32434SOL    HW199135   1.468  12.167  13.951
32434SOL    HW299136   1.344  12.158  14.038
32435SOL     OW99137   7.849   1.792  10.841
32435SOL    HW199138   7.944   1.783  10.833
32435SOL    HW299139   7.836   1.854  10.912
32436SOL     OW99140  14.267  12.713  12.528
32436SOL    HW199141  14.293  12.804  12.530
32436SOL    HW299142  14.314  12.672  12.600
32437SOL     OW99143  12.107   6.535   0.226
32437SOL    HW199144  12.061   6.557   0.307
32437SOL    HW299145  12.173   6.471   0.253
32438SOL     OW99146   0.348  14.476   1.143
32438SOL    HW199147   0.288  14.409   1.176
32438SOL    HW299148   0.434  14.434   1.146
32439SOL     OW99149  13.866   9.275   8.837
32439SOL    HW199150  13.893   9.323   8.915
32439SOL    HW299151  13.897   9.186   8.850
32440SOL     OW99152   0.340   3.977  12.452
32440SOL    HW199153   0.383   3.892  12.442
32440SOL    HW299154   0.246   3.958  12.442
32441SOL     OW99155   6.685   1.527   4.592
32441SOL    HW199156   6.770   1.491   4.568
32441SOL    HW299157   6.706   1.602   4.649
32442SOL     OW99158  14.356  13.145   0.100
32442SOL    HW199159  14.347  13.143   0.005
32442SOL    HW299160  14.334  13.235   0.124
32443SOL     OW99161   7.247  11.993  14.282
32443SOL    HW199162   7.259  11.921  14.219
32443SOL    HW299163   7.187  11.957  14.347
32444SOL     OW99164   5.564  10.104   5.708
32444SOL    HW199165   5.557  10.100   5.613
32444SOL    HW299166   5.657  10.115   5.725
32445SOL     OW99167   7.144   9.064   9.236
32445SOL    HW199168   7.067   9.117   9.251
32445SOL    HW299169   7.165   9.028   9.322
32446SOL     OW99170   6.319   0.173  11.930
32446SOL    HW199171   6.227   0.157  11.909
32446SOL    HW299172   6.344   0.246  11.873
32447SOL     OW99173   6.395   7.740  10.714
32447SOL    HW199174   6.441   7.815  10.752
32447SOL    HW299175   6.345   7.776  10.641
32448SOL     OW99176   6.972   9.542   0.462
32448SOL    HW199177   6.988   9.616   0.403
32448SOL    HW299178   6.960   9.582   0.548
32449SOL     OW99179   9.182  10.987   6.076
32449SOL    HW199180   9.128  10.911   6.097
32449SOL    HW299181   9.172  10.998   5.981
32450SOL     OW99182  11.362   3.530   4.684
32450SOL    HW199183  11.385   3.493   4.599
32450SOL    HW299184  11.320   3.458   4.731
32451SOL     OW99185  14.213  10.268   2.862
32451SOL    HW199186  14.271  10.343   2.869
32451SOL    HW299187  14.156  10.273   2.939
32452SOL     OW99188  11.832  11.149  11.685
32452SOL    HW199189  11.799  11.239  11.682
32452SOL    HW299190  11.757  11.097  11.712
32453SOL     OW99191   6.711  14.097  10.058
32453SOL    HW199192   6.799  14.120  10.087
32453SOL    HW299193   6.656  14.107  10.135
32454SOL     OW99194   8.501   8.439   4.695
32454SOL    HW199195   8.593   8.459   4.680
32454SOL    HW299196   8.456   8.522   4.684
32455SOL     OW99197  14.696  11.210   7.238
32455SOL    HW199198  14.612  11.252   7.257
32455SOL    HW299199  14.671  11.124   7.203
32456SOL     OW99200   5.475   8.278  11.539
32456SOL    HW199201   5.472   8.372  11.522
32456SOL    HW299202   5.399   8.261  11.595
32457SOL     OW99203  11.500   0.512  11.739
32457SOL    HW199204  11.458   0.457  11.673
32457SOL    HW299205  11.469   0.477  11.823
32458SOL     OW99206   0.249   6.960   5.318
32458SOL    HW199207   0.227   6.967   5.225
32458SOL    HW299208   0.295   6.877   5.326
32459SOL     OW99209   0.778   7.191   5.429
32459SOL    HW199210   0.712   7.132   5.393
32459SOL    HW299211   0.775   7.174   5.524
32460SOL     OW99212   3.831   4.346   4.538
32460SOL    HW199213   3.882   4.414   4.580
32460SOL    HW299214   3.769   4.317   4.605
32461SOL     OW99215   2.221  14.017   1.503
32461SOL    HW199216   2.146  14.076   1.502
32461SOL    HW299217   2.185  13.935   1.537
32462SOL     OW99218   1.731   7.177  11.854
32462SOL    HW199219   1.706   7.194  11.764
32462SOL    HW299220   1.649   7.182  11.904
32463SOL     OW99221   7.613   9.162  12.314
32463SOL    HW199222   7.623   9.075  12.276
32463SOL    HW299223   7.630   9.222  12.241
32464SOL     OW99224   1.437   6.397  12.008
32464SOL    HW199225   1.430   6.394  12.103
32464SOL    HW299226   1.362   6.346  11.976
32465SOL     OW99227  14.726   7.831  10.862
32465SOL    HW199228  14.646   7.884  10.864
32465SOL    HW299229  14.797   7.894  10.862
32466SOL     OW99230   2.294   4.874  11.282
32466SOL    HW199231   2.347   4.813  11.230
32466SOL    HW299232   2.273   4.944  11.221
32467SOL     OW99233   8.158   1.466   3.692
32467SOL    HW199234   8.229   1.460   3.629
32467SOL    HW299235   8.109   1.384   3.682
32468SOL     OW99236   8.464  14.774  13.103
32468SOL    HW199237   8.495  14.777  13.012
32468SOL    HW299238   8.371  14.751  13.095
32469SOL     OW99239  10.649   6.161   8.323
32469SOL    HW199240  10.566   6.183   8.365
32469SOL    HW299241  10.672   6.074   8.357
32470SOL     OW99242  12.226   9.341   5.750
32470SOL    HW199243  12.215   9.268   5.690
32470SOL    HW299244  12.250   9.300   5.833
32471SOL     OW99245   5.150   4.253   5.914
32471SOL    HW199246   5.120   4.323   5.855
32471SOL    HW299247   5.156   4.176   5.859
32472SOL     OW99248  10.730  10.211  11.170
32472SOL    HW199249  10.800  10.171  11.223
32472SOL    HW299250  10.773  10.284  11.125
32473SOL     OW99251   3.568  12.057   6.158
32473SOL    HW199252   3.520  12.093   6.083
32473SOL    HW299253   3.562  11.962   6.148
32474SOL     OW99254   6.625   8.794  11.836
32474SOL    HW199255   6.704   8.843  11.857
32474SOL    HW299256   6.553   8.852  11.862
32475SOL     OW99257   7.315   7.648   4.694
32475SOL    HW199258   7.291   7.697   4.773
32475SOL    HW299259   7.355   7.713   4.637
32476SOL     OW99260   1.862   8.278   4.835
32476SOL    HW199261   1.796   8.219   4.871
32476SOL    HW299262   1.926   8.221   4.793
32477SOL     OW99263  13.300   5.607  14.599
32477SOL    HW199264  13.218   5.655  14.610
32477SOL    HW299265  13.277   5.532  14.544
32478SOL     OW99266  11.180   5.450  12.814
32478SOL    HW199267  11.198   5.379  12.752
32478SOL    HW299268  11.251   5.513  12.799
32479SOL     OW99269   9.182   7.130   2.603
32479SOL    HW199270   9.213   7.096   2.687
32479SOL    HW299271   9.120   7.199   2.626
32480SOL     OW99272   4.384   3.096   2.661
32480SOL    HW199273   4.317   3.127   2.600
32480SOL    HW299274   4.377   3.155   2.736
32481SOL     OW99275   7.041   8.307  14.651
32481SOL    HW199276   7.068   8.267  14.568
32481SOL    HW299277   7.119   8.302  14.707
32482SOL     OW99278   5.436  10.065  14.704
32482SOL    HW199279   5.473  10.150  14.684
32482SOL    HW299280   5.505  10.019  14.752
32483SOL     OW99281   4.212   4.506   7.790
32483SOL    HW199282   4.233   4.496   7.697
32483SOL    HW299283   4.282   4.561   7.825
32484SOL     OW99284   0.911   5.703   4.329
32484SOL    HW199285   0.906   5.662   4.416
32484SOL    HW299286   0.826   5.686   4.289
32485SOL     OW99287   9.672   3.796   2.195
32485SOL    HW199288   9.602   3.850   2.231
32485SOL    HW299289   9.629   3.741   2.129
32486SOL     OW99290   9.764   6.979  14.384
32486SOL    HW199291   9.673   7.006  14.399
32486SOL    HW299292   9.801   7.046  14.327
32487SOL     OW99293   2.196   9.536  14.114
32487SOL    HW199294   2.106   9.540  14.147
32487SOL    HW299295   2.209   9.443  14.094
32488SOL     OW99296   9.223  14.182   9.785
32488SOL    HW199297   9.150  14.243   9.796
32488SOL    HW299298   9.260  14.173   9.873
32489SOL     OW99299   4.776   8.861   6.860
32489SOL    HW199300   4.699   8.842   6.806
32489SOL    HW299301   4.740   8.886   6.945
32490SOL     OW99302   8.322   2.965   9.436
32490SOL    HW199303   8.256   3.029   9.411
32490SOL    HW299304   8.317   2.962   9.531
32491SOL     OW99305   5.865   5.282   3.958
32491SOL    HW199306   5.777   5.301   3.927
32491SOL    HW299307   5.868   5.320   4.046
32492SOL     OW99308  11.979   5.479   3.763
32492SOL    HW199309  11.902   5.422   3.762
32492SOL    HW299310  11.948   5.560   3.804
32493SOL     OW99311  10.778   2.963   4.819
32493SOL    HW199312  10.851   3.023   4.801
32493SOL    HW299313  10.775   2.957   4.914
32494SOL     OW99314  12.799   8.640  12.832
32494SOL    HW199315  12.725   8.688  12.872
32494SOL    HW299316  12.759   8.560  12.799
32495SOL     OW99317   2.009  14.262  11.837
32495SOL    HW199318   2.020  14.211  11.917
32495SOL    HW299319   2.023  14.200  11.766
32496SOL     OW99320   1.537   9.582  11.697
32496SOL    HW199321   1.551   9.574  11.603
32496SOL    HW299322   1.625   9.597  11.733
32497SOL     OW99323  10.078   9.984  13.753
32497SOL    HW199324  10.111  10.050  13.692
32497SOL    HW299325   9.983   9.984  13.739
32498SOL     OW99326   1.994   9.707   0.581
32498SOL    HW199327   1.975   9.613   0.578
32498SOL    HW299328   2.075   9.713   0.632
32499SOL     OW99329  14.106   5.601  14.324
32499SOL    HW199330  14.157   5.546  14.383
32499SOL    HW299331  14.160   5.679  14.312
32500SOL     OW99332  10.168   2.469   9.691
32500SOL    HW199333  10.169   2.375   9.707
32500SOL    HW299334  10.245   2.485   9.637
32501SOL     OW99335  14.832   9.886   0.466
32501SOL    HW199336  14.834   9.868   0.372
32501SOL    HW299337   0.001   9.813   0.505
32502SOL     OW99338  13.697   4.286   2.313
32502SOL    HW199339  13.727   4.365   2.358
32502SOL    HW299340  13.777   4.249   2.274
32503SOL     OW99341   8.760  13.066   4.673
32503SOL    HW199342   8.831  13.032   4.728
32503SOL    HW299343   8.761  13.011   4.595
32504SOL     OW99344   8.222  12.794  14.039
32504SOL    HW199345   8.292  12.785  13.974
32504SOL    HW299346   8.183  12.879  14.021
32505SOL     OW99347   6.911   9.240  10.608
32505SOL    HW199348   6.993   9.280  10.635
32505SOL    HW299349   6.895   9.274  10.520
32506SOL     OW99350   7.256   7.392   3.805
32506SOL    HW199351   7.281   7.440   3.884
32506SOL    HW299352   7.334   7.397   3.749
32507SOL     OW99353   8.525   6.171  10.529
32507SOL    HW199354   8.591   6.208  10.588
32507SOL    HW299355   8.534   6.221  10.448
32508SOL     OW99356   1.754   7.753   5.117
32508SOL    HW199357   1.836   7.716   5.148
32508SOL    HW299358   1.697   7.753   5.194
32509SOL     OW99359   9.315   6.229  10.859
32509SOL    HW199360   9.353   6.191  10.938
32509SOL    HW299361   9.369   6.195  10.788
32510SOL     OW99362  13.790   7.281  10.126
32510SOL    HW199363  13.768   7.332  10.048
32510SOL    HW299364  13.713   7.226  10.140
32511SOL     OW99365   8.428   6.905   7.233
32511SOL    HW199366   8.388   6.818   7.230
32511SOL    HW299367   8.482   6.909   7.153
32512SOL     OW99368   2.646   1.928  14.086
32512SOL    HW199369   2.588   1.940  14.011
32512SOL    HW299370   2.614   1.849  14.129
32513SOL     OW99371   8.156   3.379  14.406
32513SOL    HW199372   8.192   3.407  14.321
32513SOL    HW299373   8.191   3.290  14.417
32514SOL     OW99374  12.735   7.465   7.601
32514SOL    HW199375  12.791   7.497   7.530
32514SOL    HW299376  12.660   7.524   7.601
32515SOL     OW99377   6.195   3.204  12.750
32515SOL    HW199378   6.144   3.276  12.787
32515SOL    HW299379   6.193   3.136  12.818
32516SOL     OW99380  11.634   2.754   6.859
32516SOL    HW199381  11.675   2.758   6.772
32516SOL    HW299382  11.540   2.759   6.841
32517SOL     OW99383   9.899  14.297  10.878
32517SOL    HW199384   9.943  14.374  10.842
32517SOL    HW299385   9.966  14.253  10.930
32518SOL     OW99386  12.289   4.779  14.207
32518SOL    HW199387  12.338   4.708  14.249
32518SOL    HW299388  12.255   4.831  14.280
32519SOL     OW99389  11.471   0.595   3.026
32519SOL    HW199390  11.448   0.576   3.117
32519SOL    HW299391  11.519   0.678   3.031
32520SOL     OW99392   2.613   5.956  13.091
32520SOL    HW199393   2.607   6.040  13.046
32520SOL    HW299394   2.523   5.925  13.096
32521SOL     OW99395   8.056   5.892  14.545
32521SOL    HW199396   8.061   5.825  14.477
32521SOL    HW299397   7.963   5.898  14.567
32522SOL     OW99398  11.258   1.228  10.471
32522SOL    HW199399  11.278   1.248  10.562
32522SOL    HW299400  11.275   1.309  10.424
32523SOL     OW99401  11.260   5.880   8.370
32523SOL    HW199402  11.291   5.946   8.309
32523SOL    HW299403  11.245   5.927   8.452
32524SOL     OW99404  11.300   7.962  11.704
32524SOL    HW199405  11.390   7.967  11.671
32524SOL    HW299406  11.299   7.883  11.759
32525SOL     OW99407   5.641   9.632   5.626
32525SOL    HW199408   5.671   9.689   5.698
32525SOL    HW299409   5.571   9.580   5.665
32526SOL     OW99410   2.641  11.518   5.880
32526SOL    HW199411   2.600  11.572   5.812
32526SOL    HW299412   2.669  11.439   5.833
32527SOL     OW99413   9.611  13.485  12.844
32527SOL    HW199414   9.688  13.462  12.895
32527SOL    HW299415   9.545  13.508  12.909
32528SOL     OW99416   1.494   7.779   7.466
32528SOL    HW199417   1.476   7.821   7.550
32528SOL    HW299418   1.587   7.793   7.451
32529SOL     OW99419  13.032  12.296   0.210
32529SOL    HW199420  13.083  12.217   0.228
32529SOL    HW299421  12.982  12.311   0.291
32530SOL     OW99422   0.775  10.694   7.818
32530SOL    HW199423   0.797  10.661   7.731
32530SOL    HW299424   0.697  10.748   7.805
32531SOL     OW99425  13.918  13.535  12.587
32531SOL    HW199426  14.013  13.523  12.595
32531SOL    HW299427  13.908  13.595  12.513
32532SOL     OW99428   9.269  14.753   9.824
32532SOL    HW199429   9.333  14.731   9.891
32532SOL    HW299430   9.310  14.822   9.772
32533SOL     OW99431   9.132   2.460   4.004
32533SOL    HW199432   9.083   2.469   3.922
32533SOL    HW299433   9.110   2.538   4.054
32534SOL     OW99434   6.496   4.265   2.275
32534SOL    HW199435   6.428   4.283   2.210
32534SOL    HW299436   6.472   4.179   2.311
32535SOL     OW99437   0.444   0.479   8.999
32535SOL    HW199438   0.354   0.499   9.025
32535SOL    HW299439   0.473   0.556   8.951
32536SOL     OW99440  12.689  10.369   6.876
32536SOL    HW199441  12.663  10.347   6.787
32536SOL    HW299442  12.607  10.377   6.924
32537SOL     OW99443   1.992  12.834  10.322
32537SOL    HW199444   1.906  12.799  10.343
32537SOL    HW299445   1.977  12.897  10.252
32538SOL     OW99446   8.308  14.709  14.746
32538SOL    HW199447   8.249  14.706  14.822
32538SOL    HW299448   8.283  14.788  14.698
32539SOL     OW99449   0.503  14.254  13.483
32539SOL    HW199450   0.572  14.228  13.544
32539SOL    HW299451   0.465  14.172  13.452
32540SOL     OW99452  10.052   0.265  14.838
32540SOL    HW199453   9.992   0.248  14.765
32540SOL    HW299454  10.135   0.224  14.811
32541SOL     OW99455  10.396  10.940  11.864
32541SOL    HW199456  10.420  10.936  11.957
32541SOL    HW299457  10.321  10.881  11.856
32542SOL     OW99458   6.040   2.388   0.982
32542SOL    HW199459   5.959   2.438   0.995
32542SOL    HW299460   6.077   2.379   1.069
32543SOL     OW99461  12.317   5.706  11.842
32543SOL    HW199462  12.325   5.669  11.754
32543SOL    HW299463  12.298   5.631  11.898
32544SOL     OW99464  12.563  14.010   5.578
32544SOL    HW199465  12.493  13.996   5.641
32544SOL    HW299466  12.564  13.932   5.524
32545SOL     OW99467   5.590  10.988   6.975
32545SOL    HW199468   5.508  11.005   7.022
32545SOL    HW299469   5.563  10.974   6.884
32546SOL     OW99470  11.987   0.933   1.334
32546SOL    HW199471  12.070   0.960   1.374
32546SOL    HW299472  12.011   0.894   1.251
32547SOL     OW99473  12.691   9.020   3.486
32547SOL    HW199474  12.737   8.983   3.562
32547SOL    HW299475  12.745   9.095   3.460
32548SOL     OW99476  12.217  13.068   9.354
32548SOL    HW199477  12.182  13.088   9.441
32548SOL    HW299478  12.182  13.138   9.298
32549SOL     OW99479  10.440   1.362   5.626
32549SOL    HW199480  10.349   1.388   5.637
32549SOL    HW299481  10.443   1.272   5.660
32550SOL     OW99482   2.337  11.136  14.210
32550SOL    HW199483   2.263  11.087  14.174
32550SOL    HW299484   2.394  11.069  14.247
32551SOL     OW99485   8.602   3.983   5.571
32551SOL    HW199486   8.544   4.018   5.503
32551SOL    HW299487   8.554   3.908   5.608
32552SOL     OW99488  14.565   2.422   3.340
32552SOL    HW199489  14.622   2.403   3.414
32552SOL    HW299490  14.527   2.338   3.316
32553SOL     OW99491   1.447   5.396   5.124
32553SOL    HW199492   1.435   5.428   5.214
32553SOL    HW299493   1.464   5.303   5.134
32554SOL     OW99494   7.061   2.700   8.642
32554SOL    HW199495   7.006   2.773   8.613
32554SOL    HW299496   7.012   2.660   8.714
32555SOL     OW99497   5.218  10.787   1.293
32555SOL    HW199498   5.189  10.804   1.203
32555SOL    HW299499   5.257  10.700   1.290
32556SOL     OW99500   8.001  10.690   0.768
32556SOL    HW199501   7.984  10.600   0.796
32556SOL    HW299502   8.093  10.691   0.743
32557SOL     OW99503   0.159  10.948  14.384
32557SOL    HW199504   0.186  11.028  14.429
32557SOL    HW299505   0.231  10.887  14.399
32558SOL     OW99506   2.693   8.478   4.410
32558SOL    HW199507   2.732   8.418   4.474
32558SOL    HW299508   2.693   8.563   4.454
32559SOL     OW99509   5.248  14.160   0.560
32559SOL    HW199510   5.190  14.236   0.572
32559SOL    HW299511   5.191  14.084   0.571
32560SOL     OW99512   0.844   2.019   6.874
32560SOL    HW199513   0.849   2.044   6.782
32560SOL    HW299514   0.812   1.929   6.873
32561SOL     OW99515  13.340   6.255   3.044
32561SOL    HW199516  13.324   6.327   2.983
32561SOL    HW299517  13.271   6.264   3.110
32562SOL     OW99518  11.337   9.567  11.822
32562SOL    HW199519  11.319   9.634  11.757
32562SOL    HW299520  11.327   9.611  11.906
32563SOL     OW99521  14.591   9.180   6.571
32563SOL    HW199522  14.604   9.264   6.616
32563SOL    HW299523  14.675   9.134   6.581
32564SOL     OW99524  14.052  10.989  13.103
32564SOL    HW199525  14.088  10.901  13.118
32564SOL    HW299526  14.080  11.011  13.014
32565SOL     OW99527   2.256   9.623   4.789
32565SOL    HW199528   2.283   9.711   4.816
32565SOL    HW299529   2.162   9.631   4.773
32566SOL     OW99530   7.231   1.453  12.255
32566SOL    HW199531   7.236   1.549  12.254
32566SOL    HW299532   7.314   1.425  12.295
32567SOL     OW99533   5.600   9.803   4.344
32567SOL    HW199534   5.541   9.769   4.411
32567SOL    HW299535   5.555   9.783   4.261
32568SOL     OW99536  14.686  12.301   0.805
32568SOL    HW199537  14.690  12.334   0.894
32568SOL    HW299538  14.593  12.301   0.783
32569SOL     OW99539   5.277   3.854   0.410
32569SOL    HW199540   5.228   3.933   0.384
32569SOL    HW299541   5.248   3.837   0.499
32570SOL     OW99542   3.261  11.848  13.829
32570SOL    HW199543   3.303  11.934  13.835
32570SOL    HW299544   3.304  11.796  13.897
32571SOL     OW99545   1.547   1.250  14.803
32571SOL    HW199546   1.552   1.158  14.830
32571SOL    HW299547   1.535   1.247  14.708
32572SOL     OW99548  12.871   9.712   7.498
32572SOL    HW199549  12.901   9.754   7.579
32572SOL    HW299550  12.828   9.782   7.450
32573SOL     OW99551   3.980   4.203   7.692
32573SOL    HW199552   3.947   4.114   7.701
32573SOL    HW299553   3.966   4.225   7.600
32574SOL     OW99554   0.413   9.459   8.280
32574SOL    HW199555   0.325   9.466   8.317
32574SOL    HW299556   0.423   9.537   8.226
32575SOL     OW99557   0.477   3.542   1.901
32575SOL    HW199558   0.572   3.534   1.897
32575SOL    HW299559   0.448   3.531   1.811
32576SOL     OW99560  11.324  12.963  12.748
32576SOL    HW199561  11.369  12.970  12.832
32576SOL    HW299562  11.330  13.050  12.710
32577SOL     OW99563   9.828   3.131  12.988
32577SOL    HW199564   9.751   3.183  13.010
32577SOL    HW299565   9.902   3.184  13.017
32578SOL     OW99566   5.078   5.436  11.164
32578SOL    HW199567   5.057   5.467  11.076
32578SOL    HW299568   5.093   5.516  11.214
32579SOL     OW99569   0.349   3.403   5.297
32579SOL    HW199570   0.366   3.411   5.203
32579SOL    HW299571   0.368   3.489   5.333
32580SOL     OW99572  11.820   7.933   6.798
32580SOL    HW199573  11.786   7.867   6.859
32580SOL    HW299574  11.890   7.977   6.846
32581SOL     OW99575   9.653   6.230   1.714
32581SOL    HW199576   9.570   6.270   1.738
32581SOL    HW299577   9.630   6.141   1.687
32582SOL     OW99578  12.813   9.086  10.105
32582SOL    HW199579  12.759   9.033  10.046
32582SOL    HW299580  12.859   9.147  10.047
32583SOL     OW99581  10.752   2.297  10.532
32583SOL    HW199582  10.845   2.320  10.543
32583SOL    HW299583  10.705   2.378  10.550
32584SOL     OW99584   5.508   5.297  13.815
32584SOL    HW199585   5.533   5.205  13.808
32584SOL    HW299586   5.473   5.306  13.904
32585SOL     OW99587  12.347   4.093   8.835
32585SOL    HW199588  12.305   4.146   8.903
32585SOL    HW299589  12.311   4.005   8.847
32586SOL     OW99590   2.273   9.306   2.644
32586SOL    HW199591   2.334   9.356   2.590
32586SOL    HW299592   2.230   9.246   2.583
32587SOL     OW99593   4.628   1.130   4.772
32587SOL    HW199594   4.700   1.076   4.738
32587SOL    HW299595   4.661   1.220   4.767
32588SOL     OW99596   9.801  14.703   9.739
32588SOL    HW199597   9.818  14.679   9.830
32588SOL    HW299598   9.887  14.702   9.697
32589SOL     OW99599  13.062   6.840   7.468
32589SOL    HW199600  13.050   6.755   7.427
32589SOL    HW299601  12.996   6.843   7.537
32590SOL     OW99602  11.125   5.997   1.070
32590SOL    HW199603  11.140   6.072   1.013
32590SOL    HW299604  11.133   5.921   1.011
32591SOL     OW99605  14.245   7.999   9.308
32591SOL    HW199606  14.296   8.025   9.231
32591SOL    HW299607  14.241   8.077   9.363
32592SOL     OW99608   0.086   5.448   9.290
32592SOL    HW199609   0.129   5.471   9.207
32592SOL    HW299610  14.872   5.459   9.272
32593SOL     OW99611   6.317   8.759   6.414
32593SOL    HW199612   6.231   8.797   6.396
32593SOL    HW299613   6.373   8.834   6.432
32594SOL     OW99614  12.226   1.963  14.123
32594SOL    HW199615  12.289   1.891  14.119
32594SOL    HW299616  12.150   1.926  14.170
32595SOL     OW99617   7.870   5.862   3.767
32595SOL    HW199618   7.934   5.894   3.831
32595SOL    HW299619   7.852   5.938   3.711
32596SOL     OW99620  13.847   7.737  11.722
32596SOL    HW199621  13.818   7.790  11.796
32596SOL    HW299622  13.824   7.789  11.645
32597SOL     OW99623   3.143   8.441   6.262
32597SOL    HW199624   3.212   8.379   6.240
32597SOL    HW299625   3.098   8.457   6.179
32598SOL     OW99626  11.007   9.979  11.575
32598SOL    HW199627  11.085  10.034  11.586
32598SOL    HW299628  10.983   9.955  11.664
32599SOL     OW99629   2.435  14.280   8.392
32599SOL    HW199630   2.511  14.270   8.450
32599SOL    HW299631   2.381  14.346   8.435
32600SOL     OW99632  13.969   5.321   6.636
32600SOL    HW199633  14.023   5.397   6.658
32600SOL    HW299634  13.997   5.253   6.697
32601SOL     OW99635  13.029   7.550  14.286
32601SOL    HW199636  13.021   7.456  14.299
32601SOL    HW299637  12.987   7.589  14.362
32602SOL     OW99638  12.205   7.138   2.521
32602SOL    HW199639  12.202   7.164   2.614
32602SOL    HW299640  12.130   7.183   2.482
32603SOL     OW99641  12.044  13.501   9.763
32603SOL    HW199642  11.977  13.440   9.794
32603SOL    HW299643  12.127  13.455   9.780
32604SOL     OW99644   8.504   2.343  11.945
32604SOL    HW199645   8.584   2.365  11.992
32604SOL    HW299646   8.524   2.361  11.853
32605SOL     OW99647  14.441   6.306  12.820
32605SOL    HW199648  14.458   6.262  12.737
32605SOL    HW299649  14.405   6.237  12.877
32606SOL     OW99650   7.975   1.174   6.844
32606SOL    HW199651   8.014   1.219   6.769
32606SOL    HW299652   7.883   1.164   6.822
32607SOL     OW99653  11.961   2.887   7.507
32607SOL    HW199654  11.949   2.975   7.471
32607SOL    HW299655  12.055   2.881   7.521
32608SOL     OW99656   3.364  13.531   1.862
32608SOL    HW199657   3.423  13.577   1.802
32608SOL    HW299658   3.335  13.599   1.924
32609SOL     OW99659   6.407  12.408  13.593
32609SOL    HW199660   6.439  12.493  13.623
32609SOL    HW299661   6.464  12.344  13.636
32610SOL     OW99662  12.604   8.210   7.979
32610SOL    HW199663  12.685   8.205   8.029
32610SOL    HW299664  12.614   8.146   7.909
32611SOL     OW99665   8.431  12.714   1.298
32611SOL    HW199666   8.350  12.697   1.346
32611SOL    HW299667   8.428  12.655   1.223
32612SOL     OW99668  14.520  13.075   1.105
32612SOL    HW199669  14.477  13.161   1.093
32612SOL    HW299670  14.508  13.031   1.021
32613SOL     OW99671   6.230   8.655  13.686
32613SOL    HW199672   6.322   8.665  13.712
32613SOL    HW299673   6.235   8.640  13.591
32614SOL     OW99674  11.497   2.155   5.462
32614SOL    HW199675  11.440   2.144   5.537
32614SOL    HW299676  11.473   2.240   5.425
32615SOL     OW99677  11.364   0.764   6.420
32615SOL    HW199678  11.348   0.858   6.405
32615SOL    HW299679  11.418   0.737   6.346
32616SOL     OW99680   8.708   5.102   9.824
32616SOL    HW199681   8.795   5.138   9.812
32616SOL    HW299682   8.721   5.008   9.834
32617SOL     OW99683   6.591  14.737   1.974
32617SOL    HW199684   6.618  14.738   2.066
32617SOL    HW299685   6.495  14.737   1.978
32618SOL     OW99686  12.411   0.557   8.141
32618SOL    HW199687  12.319   0.546   8.163
32618SOL    HW299688  12.445   0.468   8.137
32619SOL     OW99689  12.609  14.351  14.165
32619SOL    HW199690  12.678  14.354  14.098
32619SOL    HW299691  12.558  14.431  14.150
32620SOL     OW99692  10.296   4.364  13.971
32620SOL    HW199693  10.268   4.276  13.947
32620SOL    HW299694  10.218   4.418  13.960
32621SOL     OW99695   3.759  10.247  14.579
32621SOL    HW199696   3.697  10.290  14.520
32621SOL    HW299697   3.807  10.319  14.620
32622SOL     OW99698  11.836   0.903   9.696
32622SOL    HW199699  11.915   0.943   9.733
32622SOL    HW299700  11.869   0.829   9.644
32623SOL     OW99701  13.696   9.163   5.802
32623SOL    HW199702  13.754   9.218   5.748
32623SOL    HW299703  13.704   9.076   5.765
32624SOL     OW99704   6.258  10.510   4.704
32624SOL    HW199705   6.257  10.434   4.647
32624SOL    HW299706   6.248  10.585   4.646
32625SOL     OW99707   3.868  11.003  13.894
32625SOL    HW199708   3.826  10.934  13.946
32625SOL    HW299709   3.830  10.994  13.807
32626SOL     OW99710  12.043   0.282  13.506
32626SOL    HW199711  11.958   0.318  13.532
32626SOL    HW299712  12.079   0.245  13.587
32627SOL     OW99713   7.019  11.970   9.701
32627SOL    HW199714   6.979  12.052   9.730
32627SOL    HW299715   7.044  11.926   9.782
32628SOL     OW99716   5.605  10.232   2.411
32628SOL    HW199717   5.674  10.286   2.372
32628SOL    HW299718   5.638  10.211   2.499
32629SOL     OW99719   1.052   9.299   4.068
32629SOL    HW199720   1.102   9.236   4.016
32629SOL    HW299721   0.976   9.320   4.013
32630SOL     OW99722   6.097  14.510   1.588
32630SOL    HW199723   6.106  14.506   1.683
32630SOL    HW299724   6.023  14.569   1.574
32631SOL     OW99725   9.619  10.659   5.585
32631SOL    HW199726   9.575  10.740   5.558
32631SOL    HW299727   9.551  10.592   5.583
32632SOL     OW99728   9.775   9.098   7.296
32632SOL    HW199729   9.705   9.035   7.278
32632SOL    HW299730   9.852   9.063   7.251
32633SOL     OW99731  10.534   5.127   6.784
32633SOL    HW199732  10.549   5.210   6.738
32633SOL    HW299733  10.502   5.068   6.716
32634SOL     OW99734   7.475  10.632   6.844
32634SOL    HW199735   7.532  10.647   6.769
32634SOL    HW299736   7.451  10.719   6.875
32635SOL     OW99737   6.613  13.271   1.995
32635SOL    HW199738   6.688  13.324   2.021
32635SOL    HW299739   6.625  13.256   1.901
32636SOL     OW99740   5.851   2.379  14.214
32636SOL    HW199741   5.794   2.306  14.234
32636SOL    HW299742   5.797   2.437  14.159
32637SOL     OW99743   0.479   7.626   4.456
32637SOL    HW199744   0.417   7.686   4.498
32637SOL    HW299745   0.534   7.595   4.528
32638SOL     OW99746   1.432   9.550   5.946
32638SOL    HW199747   1.389   9.467   5.967
32638SOL    HW299748   1.370   9.617   5.977
32639SOL     OW99749  10.558   3.300   5.827
32639SOL    HW199750  10.554   3.246   5.749
32639SOL    HW299751  10.466   3.318   5.848
32640SOL     OW99752   1.754   0.021   2.717
32640SOL    HW199753   1.784  14.849   2.642
32640SOL    HW299754   1.773   0.112   2.694
32641SOL     OW99755   0.189   4.363  14.792
32641SOL    HW199756   0.126   4.321  14.851
32641SOL    HW299757   0.153   4.349  14.705
32642SOL     OW99758   6.904   8.498   5.669
32642SOL    HW199759   6.957   8.559   5.618
32642SOL    HW299760   6.897   8.420   5.613
32643SOL     OW99761   5.630   3.760   6.461
32643SOL    HW199762   5.541   3.786   6.485
32643SOL    HW299763   5.631   3.762   6.365
32644SOL     OW99764   4.662  12.349   4.486
32644SOL    HW199765   4.745  12.303   4.478
32644SOL    HW299766   4.676  12.432   4.441
32645SOL     OW99767   0.386   9.962   0.867
32645SOL    HW199768   0.382   9.997   0.778
32645SOL    HW299769   0.405   9.869   0.856
32646SOL     OW99770   3.517   9.704  11.521
32646SOL    HW199771   3.521   9.799  11.528
32646SOL    HW299772   3.544   9.684  11.432
32647SOL     OW99773   2.613   7.667  11.838
32647SOL    HW199774   2.695   7.681  11.883
32647SOL    HW299775   2.613   7.731  11.766
32648SOL     OW99776   2.018   1.173   8.561
32648SOL    HW199777   1.954   1.190   8.630
32648SOL    HW299778   2.103   1.172   8.606
32649SOL     OW99779   4.373  11.625   8.800
32649SOL    HW199780   4.404  11.561   8.736
32649SOL    HW299781   4.334  11.695   8.748
32650SOL     OW99782  13.903   5.793   6.126
32650SOL    HW199783  13.902   5.709   6.079
32650SOL    HW299784  13.877   5.857   6.060
32651SOL     OW99785  13.474   5.994   3.676
32651SOL    HW199786  13.552   5.943   3.654
32651SOL    HW299787  13.491   6.026   3.765
32652SOL     OW99788   5.122  13.901  10.667
32652SOL    HW199789   5.165  13.955  10.601
32652SOL    HW299790   5.149  13.939  10.750
32653SOL     OW99791   8.139   3.559  13.753
32653SOL    HW199792   8.168   3.468  13.754
32653SOL    HW299793   8.107   3.574  13.664
32654SOL     OW99794  10.413  14.007   0.107
32654SOL    HW199795  10.375  13.977   0.025
32654SOL    HW299796  10.341  14.054   0.150
32655SOL     OW99797  10.352  14.521   9.339
32655SOL    HW199798  10.395  14.599   9.305
32655SOL    HW299799  10.258  14.540   9.332
32656SOL     OW99800  10.674   1.192  11.369
32656SOL    HW199801  10.754   1.199  11.317
32656SOL    HW299802  10.606   1.170  11.305
32657SOL     OW99803   0.818  11.714   1.478
32657SOL    HW199804   0.804  11.700   1.385
32657SOL    HW299805   0.907  11.749   1.484
32658SOL     OW99806   7.041   5.600  12.580
32658SOL    HW199807   6.982   5.557  12.642
32658SOL    HW299808   7.121   5.548  12.583
32659SOL     OW99809   9.364  10.157  11.644
32659SOL    HW199810   9.331  10.247  11.648
32659SOL    HW299811   9.384  10.135  11.735
32660SOL     OW99812   2.255   0.223   2.776
32660SOL    HW199813   2.173   0.185   2.808
32660SOL    HW299814   2.232   0.258   2.690
32661SOL     OW99815  14.302   8.220   1.354
32661SOL    HW199816  14.236   8.162   1.394
32661SOL    HW299817  14.270   8.308   1.373
32662SOL     OW99818   3.137   3.672  11.556
32662SOL    HW199819   3.207   3.689  11.620
32662SOL    HW299820   3.056   3.675  11.608
32663SOL     OW99821   3.970   1.008   5.640
32663SOL    HW199822   3.979   0.914   5.658
32663SOL    HW299823   3.879   1.019   5.614
32664SOL     OW99824   7.103   4.376  11.756
32664SOL    HW199825   7.167   4.409  11.694
32664SOL    HW299826   7.043   4.449  11.771
32665SOL     OW99827   9.958   3.037   3.394
32665SOL    HW199828   9.880   3.047   3.448
32665SOL    HW299829  10.026   3.087   3.440
32666SOL     OW99830  14.336   2.039  14.391
32666SOL    HW199831  14.393   2.089  14.449
32666SOL    HW299832  14.251   2.040  14.434
32667SOL     OW99833   4.141   3.493  12.540
32667SOL    HW199834   4.229   3.487  12.503
32667SOL    HW299835   4.110   3.580  12.515
32668SOL     OW99836   2.430  12.051   0.101
32668SOL    HW199837   2.484  11.989   0.151
32668SOL    HW299838   2.440  12.134   0.148
32669SOL     OW99839   3.833   5.854   5.858
32669SOL    HW199840   3.865   5.858   5.947
32669SOL    HW299841   3.893   5.795   5.813
32670SOL     OW99842   9.721   3.166   7.809
32670SOL    HW199843   9.798   3.177   7.865
32670SOL    HW299844   9.684   3.254   7.803
32671SOL     OW99845   3.083   2.527   4.332
32671SOL    HW199846   2.992   2.503   4.351
32671SOL    HW299847   3.098   2.607   4.383
32672SOL     OW99848   1.276   3.049   0.562
32672SOL    HW199849   1.244   3.108   0.494
32672SOL    HW299850   1.261   3.097   0.644
32673SOL     OW99851   6.410   7.984   7.865
32673SOL    HW199852   6.502   8.010   7.865
32673SOL    HW299853   6.379   8.007   7.777
32674SOL     OW99854  12.160   9.220  12.700
32674SOL    HW199855  12.118   9.147  12.654
32674SOL    HW299856  12.090   9.258  12.753
32675SOL     OW99857  14.613   3.972   4.568
32675SOL    HW199858  14.686   3.910   4.556
32675SOL    HW299859  14.586   3.960   4.659
32676SOL     OW99860   2.309  12.853   5.301
32676SOL    HW199861   2.372  12.821   5.367
32676SOL    HW299862   2.350  12.831   5.217
32677SOL     OW99863  13.177   0.114   9.396
32677SOL    HW199864  13.159   0.051   9.326
32677SOL    HW299865  13.090   0.146   9.422
32678SOL     OW99866   7.591   4.083   5.782
32678SOL    HW199867   7.543   4.137   5.719
32678SOL    HW299868   7.561   3.994   5.766
32679SOL     OW99869   5.903  14.240   2.828
32679SOL    HW199870   5.828  14.295   2.807
32679SOL    HW299871   5.865  14.159   2.862
32680SOL     OW99872  13.251   7.865   7.766
32680SOL    HW199873  13.304   7.945   7.761
32680SOL    HW299874  13.230   7.856   7.859
32681SOL     OW99875   5.631   0.180   1.984
32681SOL    HW199876   5.567   0.246   2.009
32681SOL    HW299877   5.714   0.211   2.021
32682SOL     OW99878  13.330   2.609  12.559
32682SOL    HW199879  13.260   2.668  12.531
32682SOL    HW299880  13.410   2.659  12.549
32683SOL     OW99881   7.420   7.918   4.900
32683SOL    HW199882   7.433   7.873   4.984
32683SOL    HW299883   7.508   7.921   4.862
32684SOL     OW99884  10.359  13.587  14.250
32684SOL    HW199885  10.383  13.680  14.257
32684SOL    HW299886  10.439  13.540  14.274
32685SOL     OW99887   3.533  13.549   6.224
32685SOL    HW199888   3.600  13.613   6.249
32685SOL    HW299889   3.451  13.599   6.225
32686SOL     OW99890   1.755  14.259   1.591
32686SOL    HW199891   1.672  14.246   1.637
32686SOL    HW299892   1.785  14.345   1.618
32687SOL     OW99893   3.775   5.859  12.347
32687SOL    HW199894   3.786   5.767  12.324
32687SOL    HW299895   3.798   5.907  12.268
32688SOL     OW99896   0.840  10.370   7.030
32688SOL    HW199897   0.896  10.376   6.953
32688SOL    HW299898   0.791  10.288   7.018
32689SOL     OW99899   9.689   1.715   6.931
32689SOL    HW199900   9.647   1.632   6.953
32689SOL    HW299901   9.650   1.778   6.991
32690SOL     OW99902  10.215   5.815  14.830
32690SOL    HW199903  10.125   5.845  14.842
32690SOL    HW299904  10.268   5.892  14.847
32691SOL     OW99905  14.749   7.442  14.786
32691SOL    HW199906  14.824   7.491  14.819
32691SOL    HW299907  14.787   7.375  14.729
32692SOL     OW99908   5.468  12.615   2.301
32692SOL    HW199909   5.374  12.601   2.308
32692SOL    HW299910   5.505  12.578   2.381
32693SOL     OW99911   7.659   4.478   1.421
32693SOL    HW199912   7.688   4.479   1.330
32693SOL    HW299913   7.722   4.421   1.465
32694SOL     OW99914   4.835   7.365   7.090
32694SOL    HW199915   4.853   7.303   7.020
32694SOL    HW299916   4.775   7.318   7.149
32695SOL     OW99917   8.345  14.620   3.181
32695SOL    HW199918   8.258  14.605   3.144
32695SOL    HW299919   8.352  14.715   3.190
32696SOL     OW99920   9.397   2.554   0.456
32696SOL    HW199921   9.317   2.583   0.499
32696SOL    HW299922   9.393   2.594   0.369
32697SOL     OW99923  14.274   6.375  14.052
32697SOL    HW199924  14.302   6.345  13.966
32697SOL    HW299925  14.243   6.295  14.096
32698SOL     OW99926  11.094   1.164  14.842
32698SOL    HW199927  11.037   1.216  14.785
32698SOL    HW299928  11.041   1.089  14.866
32699SOL     OW99929   7.103  12.216  11.234
32699SOL    HW199930   7.023  12.268  11.233
32699SOL    HW299931   7.173  12.280  11.222
32700SOL     OW99932  13.649   7.310  12.334
32700SOL    HW199933  13.554   7.327  12.329
32700SOL    HW299934  13.656   7.215  12.326
32701SOL     OW99935   7.482   7.580   0.982
32701SOL    HW199936   7.461   7.546   1.069
32701SOL    HW299937   7.525   7.507   0.938
32702SOL     OW99938   7.158   5.077   0.442
32702SOL    HW199939   7.136   5.162   0.402
32702SOL    HW299940   7.146   5.092   0.536
32703SOL     OW99941   3.154   5.764   3.939
32703SOL    HW199942   3.156   5.714   3.857
32703SOL    HW299943   3.199   5.846   3.918
32704SOL     OW99944   5.551   3.598  12.221
32704SOL    HW199945   5.487   3.618  12.289
32704SOL    HW299946   5.508   3.623  12.139
32705SOL     OW99947  13.199   8.417  14.129
32705SOL    HW199948  13.135   8.346  14.125
32705SOL    HW299949  13.269   8.382  14.185
32706SOL     OW99950   0.683  14.083   6.335
32706SOL    HW199951   0.627  14.058   6.408
32706SOL    HW299952   0.631  14.067   6.257
32707SOL     OW99953   6.160   4.366   5.891
32707SOL    HW199954   6.121   4.365   5.978
32707SOL    HW299955   6.198   4.454   5.883
32708SOL     OW99956   9.542  10.128   1.577
32708SOL    HW199957   9.549  10.035   1.598
32708SOL    HW299958   9.631  10.162   1.592
32709SOL     OW99959   1.433   4.436  11.231
32709SOL    HW199960   1.360   4.468  11.176
32709SOL    HW299961   1.418   4.342  11.238
32710SOL     OW99962   4.087  10.677   6.648
32710SOL    HW199963   4.177  10.707   6.657
32710SOL    HW299964   4.034  10.752   6.677
32711SOL     OW99965   1.591  10.985   9.225
32711SOL    HW199966   1.630  11.071   9.207
32711SOL    HW299967   1.657  10.922   9.196
32712SOL     OW99968   5.339   6.387  10.224
32712SOL    HW199969   5.379   6.461  10.179
32712SOL    HW299970   5.403   6.316  10.216
32713SOL     OW99971   5.111   6.327   1.823
32713SOL    HW199972   5.120   6.422   1.831
32713SOL    HW299973   5.118   6.309   1.730
32714SOL     OW99974   0.526   7.132   3.716
32714SOL    HW199975   0.571   7.048   3.718
32714SOL    HW299976   0.433   7.110   3.719
32715SOL     OW99977  13.366  11.800   3.976
32715SOL    HW199978  13.403  11.863   4.038
32715SOL    HW299979  13.369  11.846   3.892
32716SOL     OW99980   3.777   4.780  10.841
32716SOL    HW199981   3.812   4.699  10.877
32716SOL    HW299982   3.806   4.848  10.902
32717SOL     OW99983   5.600  10.785   1.455
32717SOL    HW199984   5.516  10.829   1.468
32717SOL    HW299985   5.604  10.769   1.361
32718SOL     OW99986   6.959  12.115  13.631
32718SOL    HW199987   6.959  12.130  13.536
32718SOL    HW299988   6.974  12.202  13.668
32719SOL     OW99989  13.194  14.409  10.845
32719SOL    HW199990  13.189  14.324  10.802
32719SOL    HW299991  13.263  14.399  10.911
32720SOL     OW99992  10.529   8.129   3.012
32720SOL    HW199993  10.620   8.151   2.995
32720SOL    HW299994  10.523   8.125   3.108
32721SOL     OW99995  11.606   1.444  14.800
32721SOL    HW199996  11.554   1.512  14.759
32721SOL    HW299997  11.566   1.429   0.006
32722SOL     OW99998   3.796  10.615   5.750
32722SOL    HW199999   3.741  10.665   5.690
32722SOL    HW2    0   3.744  10.607   5.830
32723SOL     OW    1   9.075   8.540   9.779
32723SOL    HW1    2   9.062   8.587   9.696
32723SOL    HW2    3   9.129   8.599   9.832
32724SOL     OW    4  12.406   4.985   9.350
32724SOL    HW1    5  12.470   5.047   9.317
32724SOL    HW2    6  12.345   4.972   9.277
32725SOL     OW    7  14.765   3.404   2.512
32725SOL    HW1    8  14.734   3.484   2.553
32725SOL    HW2    9  14.861   3.409   2.516
32726SOL     OW   10   0.120   0.821   2.325
32726SOL    HW1   11   0.074   0.768   2.389
32726SOL    HW2   12   0.052   0.877   2.286
32727SOL     OW   13   1.897   3.055   0.599
32727SOL    HW1   14   1.942   3.047   0.683
32727SOL    HW2   15   1.805   3.071   0.623
32728SOL     OW   16  12.949   6.621   5.949
32728SOL    HW1   17  12.948   6.689   6.016
32728SOL    HW2   18  13.003   6.551   5.986
32729SOL     OW   19   4.779   5.468   7.596
32729SOL    HW1   20   4.710   5.487   7.532
32729SOL    HW2   21   4.809   5.555   7.624
32730SOL     OW   22   7.323   2.956  11.698
32730SOL    HW1   23   7.352   3.027  11.640
32730SOL    HW2   24   7.403   2.908  11.718
32731SOL     OW   25  13.710   0.444   6.983
32731SOL    HW1   26  13.674   0.523   7.024
32731SOL    HW2   27  13.754   0.398   7.054
32732SOL     OW   28   7.224  10.653   0.987
32732SOL    HW1   29   7.188  10.595   0.919
32732SOL    HW2   30   7.150  10.706   1.015
32733SOL     OW   31   3.315  10.300   1.401
32733SOL    HW1   32   3.221  10.313   1.391
32733SOL    HW2   33   3.347  10.379   1.445
32734SOL     OW   34   8.451   0.860   2.659
32734SOL    HW1   35   8.407   0.781   2.627
32734SOL    HW2   36   8.431   0.926   2.593
32735SOL     OW   37  14.540   1.751   7.384
32735SOL    HW1   38  14.619   1.737   7.436
32735SOL    HW2   39  14.553   1.837   7.344
32736SOL     OW   40   6.912  12.562   6.550
32736SOL    HW1   41   6.864  12.644   6.538
32736SOL    HW2   42   6.985  12.585   6.608
32737SOL     OW   43  11.537  11.213  10.753
32737SOL    HW1   44  11.545  11.204  10.848
32737SOL    HW2   45  11.609  11.161  10.718
32738SOL     OW   46   8.738   9.113   2.357
32738SOL    HW1   47   8.756   9.115   2.451
32738SOL    HW2   48   8.691   9.194   2.340
32739SOL     OW   49   3.740   3.865  11.506
32739SOL    HW1   50   3.788   3.893  11.428
32739SOL    HW2   51   3.684   3.940  11.527
32740SOL     OW   52  10.218  12.009   6.699
32740SOL    HW1   53  10.293  11.950   6.707
32740SOL    HW2   54  10.236  12.078   6.763
32741SOL     OW   55   2.112   9.612   2.638
32741SOL    HW1   56   2.031   9.604   2.688
32741SOL    HW2   57   2.178   9.634   2.704
32742SOL     OW   58   2.679  10.136  11.251
32742SOL    HW1   59   2.705  10.156  11.161
32742SOL    HW2   60   2.630  10.054  11.244
32743SOL     OW   61   7.276   0.238   6.009
32743SOL    HW1   62   7.203   0.274   6.059
32743SOL    HW2   63   7.313   0.170   6.066
32744SOL     OW   64   7.702  11.383   0.925
32744SOL    HW1   65   7.770  11.446   0.947
32744SOL    HW2   66   7.748  11.305   0.895
32745SOL     OW   67  11.955   1.294  11.399
32745SOL    HW1   68  11.942   1.201  11.419
32745SOL    HW2   69  11.949   1.299  11.303
32746SOL     OW   70  13.573   5.631  13.955
32746SOL    HW1   71  13.516   5.583  14.015
32746SOL    HW2   72  13.592   5.713  14.000
32747SOL     OW   73   1.611   4.302   2.868
32747SOL    HW1   74   1.666   4.224   2.860
32747SOL    HW2   75   1.544   4.279   2.932
32748SOL     OW   76   8.553   1.446  10.290
32748SOL    HW1   77   8.519   1.434  10.378
32748SOL    HW2   78   8.614   1.519  10.298
32749SOL     OW   79   6.621   9.857   5.774
32749SOL    HW1   80   6.609   9.950   5.757
32749SOL    HW2   81   6.532   9.821   5.774
32750SOL     OW   82   0.341   8.408   8.419
32750SOL    HW1   83   0.336   8.314   8.432
32750SOL    HW2   84   0.407   8.421   8.351
32751SOL     OW   85   3.630   3.934   8.543
32751SOL    HW1   86   3.548   3.967   8.507
32751SOL    HW2   87   3.605   3.859   8.595
32752SOL     OW   88   8.974   4.003  14.644
32752SOL    HW1   89   8.898   4.060  14.637
32752SOL    HW2   90   8.944   3.930  14.699
32753SOL     OW   91  10.192   2.309   5.214
32753SOL    HW1   92  10.104   2.346   5.204
32753SOL    HW2   93  10.248   2.384   5.236
32754SOL     OW   94   4.707   0.490   8.818
32754SOL    HW1   95   4.761   0.510   8.742
32754SOL    HW2   96   4.702   0.572   8.866
32755SOL     OW   97   1.102   0.389   0.877
32755SOL    HW1   98   1.194   0.391   0.853
32755SOL    HW2   99   1.058   0.354   0.800
32756SOL     OW  100  11.070   1.973  13.596
32756SOL    HW1  101  11.114   2.058  13.591
32756SOL    HW2  102  10.979   1.993  13.618
32757SOL     OW  103  11.407   4.109   6.895
32757SOL    HW1  104  11.360   4.040   6.942
32757SOL    HW2  105  11.345   4.140   6.829
32758SOL     OW  106   5.344  10.286   9.175
32758SOL    HW1  107   5.362  10.277   9.081
32758SOL    HW2  108   5.358  10.199   9.211
32759SOL     OW  109  14.832   0.141   9.021
32759SOL    HW1  110   0.046   0.122   9.009
32759SOL    HW2  111  14.820   0.142   9.116
32760SOL     OW  112   3.856   7.533   6.946
32760SOL    HW1  113   3.888   7.615   6.983
32760SOL    HW2  114   3.892   7.530   6.858
32761SOL     OW  115   2.337   9.306   0.559
32761SOL    HW1  116   2.399   9.264   0.500
32761SOL    HW2  117   2.341   9.399   0.537
32762SOL     OW  118  11.980   7.469   3.697
32762SOL    HW1  119  11.894   7.508   3.710
32762SOL    HW2  120  11.965   7.394   3.640
32763SOL     OW  121   5.583  14.023  13.547
32763SOL    HW1  122   5.495  14.058  13.558
32763SOL    HW2  123   5.615  14.063  13.466
32764SOL     OW  124  12.524   9.551   0.156
32764SOL    HW1  125  12.501   9.622   0.217
32764SOL    HW2  126  12.534   9.474   0.212
32765SOL     OW  127  10.415   0.918   4.175
32765SOL    HW1  128  10.451   0.944   4.091
32765SOL    HW2  129  10.347   0.853   4.154
32766SOL     OW  130   7.122   7.927   3.372
32766SOL    HW1  131   7.114   7.839   3.407
32766SOL    HW2  132   7.113   7.984   3.449
32767SOL     OW  133  11.741   3.437  12.660
32767SOL    HW1  134  11.669   3.397  12.709
32767SOL    HW2  135  11.755   3.521  12.703
32768SOL     OW  136   1.394   4.454   1.042
32768SOL    HW1  137   1.486   4.458   1.069
32768SOL    HW2  138   1.396   4.469   0.948
32769SOL     OW  139   5.772   9.432   5.475
32769SOL    HW1  140   5.720   9.493   5.527
32769SOL    HW2  141   5.808   9.371   5.540
32770SOL     OW  142  13.341   3.165  10.443
32770SOL    HW1  143  13.283   3.189  10.515
32770SOL    HW2  144  13.293   3.191  10.364
32771SOL     OW  145   8.315   1.141  10.162
32771SOL    HW1  146   8.320   1.083  10.086
32771SOL    HW2  147   8.261   1.214  10.133
32772SOL     OW  148   0.733   9.711   7.390
32772SOL    HW1  149   0.704   9.716   7.299
32772SOL    HW2  150   0.677   9.644   7.429
32773SOL     OW  151   1.702   6.871   3.486
32773SOL    HW1  152   1.656   6.931   3.426
32773SOL    HW2  153   1.660   6.886   3.571
32774SOL     OW  154  14.291  10.772   8.838
32774SOL    HW1  155  14.316  10.862   8.861
32774SOL    HW2  156  14.296  10.724   8.921
32775SOL     OW  157   4.724   4.499  14.491
32775SOL    HW1  158   4.642   4.509  14.541
32775SOL    HW2  159   4.735   4.405  14.483
32776SOL     OW  160  10.677   8.004   1.222
32776SOL    HW1  161  10.772   8.015   1.220
32776SOL    HW2  162  10.661   7.942   1.294
32777SOL     OW  163  14.059   9.682   9.050
32777SOL    HW1  164  14.071   9.609   8.989
32777SOL    HW2  165  14.101   9.757   9.008
32778SOL     OW  166   4.106   9.746  13.302
32778SOL    HW1  167   4.143   9.833  13.289
32778SOL    HW2  168   4.170   9.700  13.356
32779SOL     OW  169   0.911   4.625  10.129
32779SOL    HW1  170   0.981   4.685  10.153
32779SOL    HW2  171   0.955   4.553  10.084
32780SOL     OW  172  14.461   0.777  10.843
32780SOL    HW1  173  14.433   0.783  10.935
32780SOL    HW2  174  14.542   0.828  10.839
32781SOL     OW  175  12.903  12.562   3.076
32781SOL    HW1  176  12.905  12.626   3.005
32781SOL    HW2  177  12.974  12.500   3.055
32782SOL     OW  178   0.258   9.608  11.880
32782SOL    HW1  179   0.209   9.529  11.859
32782SOL    HW2  180   0.197   9.680  11.862
32783SOL     OW  181   2.962   4.739   4.289
32783SOL    HW1  182   2.987   4.649   4.308
32783SOL    HW2  183   2.866   4.736   4.285
32784SOL     OW  184   2.608   2.072  12.052
32784SOL    HW1  185   2.662   2.137  12.097
32784SOL    HW2  186   2.615   1.993  12.106
32785SOL     OW  187  13.474   0.310   6.639
32785SOL    HW1  188  13.471   0.406   6.638
32785SOL    HW2  189  13.509   0.288   6.726
32786SOL     OW  190   0.870   9.110   8.912
32786SOL    HW1  191   0.920   9.060   8.848
32786SOL    HW2  192   0.906   9.083   8.997
32787SOL     OW  193   0.779   6.573  10.985
32787SOL    HW1  194   0.811   6.510  11.049
32787SOL    HW2  195   0.795   6.658  11.025
32788SOL     OW  196   3.538  12.916   6.361
32788SOL    HW1  197   3.586  12.892   6.440
32788SOL    HW2  198   3.446  12.906   6.385
32789SOL     OW  199   9.908   0.940  14.119
32789SOL    HW1  200   9.959   0.885  14.060
32789SOL    HW2  201   9.963   0.950  14.197
32790SOL     OW  202  13.007   2.870   7.685
32790SOL    HW1  203  12.941   2.829   7.628
32790SOL    HW2  204  12.970   2.862   7.773
32791SOL     OW  205   1.491  13.733  10.639
32791SOL    HW1  206   1.549  13.692  10.703
32791SOL    HW2  207   1.446  13.659  10.597
32792SOL     OW  208  12.125  12.400   5.114
32792SOL    HW1  209  12.070  12.474   5.089
32792SOL    HW2  210  12.066  12.340   5.159
32793SOL     OW  211  12.834   4.911   6.395
32793SOL    HW1  212  12.823   4.952   6.309
32793SOL    HW2  213  12.883   4.975   6.446
32794SOL     OW  214   8.095  12.135   7.872
32794SOL    HW1  215   8.177  12.148   7.920
32794SOL    HW2  216   8.120  12.085   7.794
32795SOL     OW  217  12.804   3.087   2.515
32795SOL    HW1  218  12.781   3.170   2.556
32795SOL    HW2  219  12.849   3.112   2.434
32796SOL     OW  220   0.038  12.986  14.477
32796SOL    HW1  221  14.851  12.955  14.415
32796SOL    HW2  222   0.116  12.933  14.458
32797SOL     OW  223   3.118  11.995   9.523
32797SOL    HW1  224   3.049  11.985   9.457
32797SOL    HW2  225   3.195  11.953   9.484
32798SOL     OW  226  11.177   2.093  13.289
32798SOL    HW1  227  11.239   2.124  13.355
32798SOL    HW2  228  11.140   2.173  13.250
32799SOL     OW  229   8.645  11.315  11.074
32799SOL    HW1  230   8.573  11.268  11.033
32799SOL    HW2  231   8.636  11.296  11.168
32800SOL     OW  232  14.085  13.224   5.869
32800SOL    HW1  233  13.999  13.267   5.864
32800SOL    HW2  234  14.073  13.140   5.824
32801SOL     OW  235   4.232   6.946   2.815
32801SOL    HW1  236   4.299   6.895   2.860
32801SOL    HW2  237   4.279   7.020   2.777
32802SOL     OW  238   7.464   1.073   0.309
32802SOL    HW1  239   7.459   1.075   0.213
32802SOL    HW2  240   7.556   1.055   0.328
32803SOL     OW  241  14.096  11.265  13.139
32803SOL    HW1  242  14.164  11.265  13.071
32803SOL    HW2  243  14.032  11.329  13.109
32804SOL     OW  244  11.727   0.308  14.328
32804SOL    HW1  245  11.677   0.238  14.368
32804SOL    HW2  246  11.666   0.351  14.268
32805SOL     OW  247   3.923  11.841  11.392
32805SOL    HW1  248   3.997  11.786  11.367
32805SOL    HW2  249   3.956  11.931  11.385
32806SOL     OW  250  14.185   5.590   7.771
32806SOL    HW1  251  14.099   5.630   7.785
32806SOL    HW2  252  14.236   5.658   7.727
32807SOL     OW  253  11.293   9.576  10.710
32807SOL    HW1  254  11.298   9.534  10.625
32807SOL    HW2  255  11.353   9.525  10.765
32808SOL     OW  256   1.657  12.242   0.084
32808SOL    HW1  257   1.562  12.258   0.083
32808SOL    HW2  258   1.684  12.258  14.873
32809SOL     OW  259   4.143   7.631  14.476
32809SOL    HW1  260   4.063   7.598  14.517
32809SOL    HW2  261   4.213   7.574  14.510
32810SOL     OW  262   8.224   8.255  10.233
32810SOL    HW1  263   8.242   8.263  10.327
32810SOL    HW2  264   8.266   8.173  10.208
32811SOL     OW  265  12.046   7.051   7.803
32811SOL    HW1  266  12.050   7.092   7.717
32811SOL    HW2  267  12.134   7.061   7.839
32812SOL     OW  268   3.508   4.440   7.874
32812SOL    HW1  269   3.463   4.456   7.956
32812SOL    HW2  270   3.572   4.372   7.894
32813SOL     OW  271  12.030  13.816  10.323
32813SOL    HW1  272  12.111  13.867  10.314
32813SOL    HW2  273  11.968  13.859  10.264
32814SOL     OW  274   6.756  14.453  11.545
32814SOL    HW1  275   6.765  14.364  11.512
32814SOL    HW2  276   6.806  14.454  11.626
32815SOL     OW  277  10.695   4.176   4.969
32815SOL    HW1  278  10.674   4.083   4.972
32815SOL    HW2  279  10.756   4.189   5.041
32816SOL     OW  280   7.472   6.942  12.492
32816SOL    HW1  281   7.514   7.021  12.527
32816SOL    HW2  282   7.531   6.871  12.516
32817SOL     OW  283   7.127  13.558  10.970
32817SOL    HW1  284   7.169  13.554  10.885
32817SOL    HW2  285   7.193  13.596  11.028
32818SOL     OW  286   3.545  13.965   1.717
32818SOL    HW1  287   3.582  14.012   1.642
32818SOL    HW2  288   3.454  13.949   1.691
32819SOL     OW  289  12.847   6.960   5.199
32819SOL    HW1  290  12.787   6.913   5.257
32819SOL    HW2  291  12.822   7.052   5.208
32820SOL     OW  292  14.654   8.446   0.267
32820SOL    HW1  293  14.626   8.436   0.358
32820SOL    HW2  294  14.586   8.500   0.226
32821SOL     OW  295   0.767   4.850   7.449
32821SOL    HW1  296   0.774   4.873   7.356
32821SOL    HW2  297   0.685   4.892   7.477
32822SOL     OW  298   1.230  14.648   4.503
32822SOL    HW1  299   1.177  14.728   4.500
32822SOL    HW2  300   1.300  14.662   4.440
32823SOL     OW  301   8.363   9.586   7.218
32823SOL    HW1  302   8.350   9.533   7.297
32823SOL    HW2  303   8.417   9.531   7.161
32824SOL     OW  304   9.976   1.148  13.448
32824SOL    HW1  305   9.999   1.072  13.503
32824SOL    HW2  306  10.051   1.159  13.390
32825SOL     OW  307   1.131  11.274   8.927
32825SOL    HW1  308   1.175  11.241   8.849
32825SOL    HW2  309   1.064  11.208   8.947
32826SOL     OW  310  13.653   7.550   2.683
32826SOL    HW1  311  13.667   7.597   2.765
32826SOL    HW2  312  13.673   7.459   2.704
32827SOL     OW  313   8.389  13.780   2.038
32827SOL    HW1  314   8.420  13.694   2.068
32827SOL    HW2  315   8.432  13.843   2.096
32828SOL     OW  316   2.843   3.679   2.950
32828SOL    HW1  317   2.765   3.626   2.967
32828SOL    HW2  318   2.879   3.642   2.869
32829SOL     OW  319   6.720  10.266   2.169
32829SOL    HW1  320   6.674  10.219   2.239
32829SOL    HW2  321   6.786  10.318   2.215
32830SOL     OW  322   6.916  11.584   7.460
32830SOL    HW1  323   6.847  11.646   7.479
32830SOL    HW2  324   6.995  11.637   7.453
32831SOL     OW  325   2.684  11.719   5.044
32831SOL    HW1  326   2.756  11.730   4.982
32831SOL    HW2  327   2.607  11.702   4.989
32832SOL     OW  328  13.521  10.999   9.050
32832SOL    HW1  329  13.443  10.960   9.090
32832SOL    HW2  330  13.534  11.081   9.097
32833SOL     OW  331   8.906  14.181   3.182
32833SOL    HW1  332   8.947  14.101   3.214
32833SOL    HW2  333   8.917  14.178   3.087
32834SOL     OW  334   7.777  11.574   6.732
32834SOL    HW1  335   7.693  11.613   6.755
32834SOL    HW2  336   7.755  11.500   6.676
32835SOL     OW  337  12.201  10.795  13.641
32835SOL    HW1  338  12.282  10.825  13.601
32835SOL    HW2  339  12.202  10.700  13.628
32836SOL     OW  340   5.820  14.117   3.660
32836SOL    HW1  341   5.771  14.193   3.692
32836SOL    HW2  342   5.880  14.095   3.732
32837SOL     OW  343  12.411   9.505   9.133
32837SOL    HW1  344  12.353   9.572   9.169
32837SOL    HW2  345  12.457   9.549   9.062
32838SOL     OW  346   3.954   1.492   1.812
32838SOL    HW1  347   3.992   1.438   1.881
32838SOL    HW2  348   3.927   1.572   1.856
32839SOL     OW  349   8.698  13.122  14.809
32839SOL    HW1  350   8.617  13.080  14.777
32839SOL    HW2  351   8.676  13.152   0.019
32840SOL     OW  352   0.964  12.665  11.003
32840SOL    HW1  353   0.975  12.725  10.930
32840SOL    HW2  354   1.025  12.594  10.986
32841SOL     OW  355   0.585   1.673   6.632
32841SOL    HW1  356   0.553   1.696   6.545
32841SOL    HW2  357   0.680   1.668   6.622
32842SOL     OW  358   6.001   0.798  14.634
32842SOL    HW1  359   6.087   0.823  14.599
32842SOL    HW2  360   6.022   0.737  14.704
32843SOL     OW  361  10.457   4.162   9.515
32843SOL    HW1  362  10.384   4.210   9.555
32843SOL    HW2  363  10.469   4.204   9.430
32844SOL     OW  364  14.344   2.492   8.641
32844SOL    HW1  365  14.380   2.581   8.642
32844SOL    HW2  366  14.408   2.441   8.692
32845SOL     OW  367  12.048  12.023   4.531
32845SOL    HW1  368  12.041  12.029   4.436
32845SOL    HW2  369  11.979  11.961   4.556
32846SOL     OW  370  12.391   3.441   0.955
32846SOL    HW1  371  12.472   3.392   0.971
32846SOL    HW2  372  12.418   3.514   0.900
32847SOL     OW  373   2.388   1.132   1.876
32847SOL    HW1  374   2.320   1.190   1.910
32847SOL    HW2  375   2.470   1.174   1.899
32848SOL     OW  376   0.686  14.358  12.926
32848SOL    HW1  377   0.692  14.263  12.939
32848SOL    HW2  378   0.770  14.392  12.956
32849SOL     OW  379   4.230   5.455   4.441
32849SOL    HW1  380   4.151   5.504   4.417
32849SOL    HW2  381   4.207   5.411   4.523
32850SOL     OW  382  10.265   7.329  14.478
32850SOL    HW1  383  10.301   7.267  14.542
32850SOL    HW2  384  10.318   7.408  14.490
32851SOL     OW  385  11.858   0.594  13.995
32851SOL    HW1  386  11.846   0.578  14.089
32851SOL    HW2  387  11.770   0.587  13.958
32852SOL     OW  388   2.268   5.987   4.782
32852SOL    HW1  389   2.261   6.039   4.702
32852SOL    HW2  390   2.206   5.915   4.770
32853SOL     OW  391  10.244   4.658   6.382
32853SOL    HW1  392  10.290   4.576   6.362
32853SOL    HW2  393  10.220   4.649   6.475
32854SOL     OW  394   1.366   8.832   0.823
32854SOL    HW1  395   1.452   8.797   0.800
32854SOL    HW2  396   1.349   8.898   0.757
32855SOL     OW  397  11.812   4.838  11.779
32855SOL    HW1  398  11.895   4.804  11.746
32855SOL    HW2  399  11.802   4.923  11.736
32856SOL     OW  400  14.859  14.800   0.870
32856SOL    HW1  401  14.821  14.735   0.809
32856SOL    HW2  402   0.070  14.770   0.883
32857SOL     OW  403   9.794   4.007   2.683
32857SOL    HW1  404   9.844   3.925   2.680
32857SOL    HW2  405   9.762   4.019   2.593
32858SOL     OW  406   6.056   2.269   6.693
32858SOL    HW1  407   6.098   2.215   6.627
32858SOL    HW2  408   6.128   2.303   6.746
32859SOL     OW  409   0.977  10.869   3.490
32859SOL    HW1  410   1.041  10.798   3.500
32859SOL    HW2  411   0.908  10.831   3.435
32860SOL     OW  412   5.683   2.010   2.621
32860SOL    HW1  413   5.716   2.072   2.555
32860SOL    HW2  414   5.609   1.967   2.578
32861SOL     OW  415   5.115   4.690  14.677
32861SOL    HW1  416   5.038   4.635  14.686
32861SOL    HW2  417   5.185   4.640  14.719
32862SOL     OW  418   3.497  14.723   8.329
32862SOL    HW1  419   3.461  14.642   8.366
32862SOL    HW2  420   3.421  14.774   8.302
32863SOL     OW  421   9.617   0.663   1.509
32863SOL    HW1  422   9.660   0.746   1.491
32863SOL    HW2  423   9.530   0.672   1.470
32864SOL     OW  424   8.936  11.708   0.984
32864SOL    HW1  425   8.883  11.665   1.051
32864SOL    HW2  426   8.912  11.664   0.903
32865SOL     OW  427   6.525   8.954   3.109
32865SOL    HW1  428   6.558   9.030   3.062
32865SOL    HW2  429   6.580   8.946   3.186
32866SOL     OW  430  12.349  13.863   7.023
32866SOL    HW1  431  12.332  13.873   7.117
32866SOL    HW2  432  12.370  13.770   7.012
32867SOL     OW  433   7.335  14.322   6.872
32867SOL    HW1  434   7.408  14.324   6.811
32867SOL    HW2  435   7.259  14.301   6.817
32868SOL     OW  436   5.061   9.242   6.600
32868SOL    HW1  437   5.043   9.310   6.665
32868SOL    HW2  438   4.977   9.198   6.588
32869SOL     OW  439   8.539  13.708   8.905
32869SOL    HW1  440   8.448  13.723   8.928
32869SOL    HW2  441   8.586  13.784   8.939
32870SOL     OW  442   7.330   2.088   6.293
32870SOL    HW1  443   7.246   2.046   6.309
32870SOL    HW2  444   7.378   2.080   6.376
32871SOL     OW  445   1.663   6.936  13.052
32871SOL    HW1  446   1.619   7.009  13.011
32871SOL    HW2  447   1.593   6.875  13.075
32872SOL     OW  448   4.946   5.481  12.195
32872SOL    HW1  449   4.955   5.478  12.290
32872SOL    HW2  450   4.878   5.546  12.179
32873SOL     OW  451  10.868   2.741  12.892
32873SOL    HW1  452  10.887   2.661  12.843
32873SOL    HW2  453  10.780   2.727  12.926
32874SOL     OW  454   5.023   9.987  13.851
32874SOL    HW1  455   5.051   9.896  13.850
32874SOL    HW2  456   4.952   9.990  13.916
32875SOL     OW  457   1.147   4.073   5.262
32875SOL    HW1  458   1.188   4.152   5.296
32875SOL    HW2  459   1.187   4.001   5.311
32876SOL     OW  460  14.717   9.741   7.221
32876SOL    HW1  461  14.647   9.676   7.229
32876SOL    HW2  462  14.796   9.695   7.246
32877SOL     OW  463   1.792   9.450  11.743
32877SOL    HW1  464   1.816   9.454  11.650
32877SOL    HW2  465   1.751   9.364  11.753
32878SOL     OW  466   7.128  13.643   7.973
32878SOL    HW1  467   7.120  13.728   8.016
32878SOL    HW2  468   7.040  13.625   7.939
32879SOL     OW  469   9.793   4.377   4.616
32879SOL    HW1  470   9.760   4.299   4.661
32879SOL    HW2  471   9.820   4.436   4.687
32880SOL     OW  472   4.183   6.750   0.010
32880SOL    HW1  473   4.145   6.825  14.843
32880SOL    HW2  474   4.123   6.733   0.082
32881SOL     OW  475   0.270  12.359   5.427
32881SOL    HW1  476   0.332  12.377   5.499
32881SOL    HW2  477   0.211  12.433   5.428
32882SOL     OW  478  12.494  13.017   2.172
32882SOL    HW1  479  12.556  13.004   2.100
32882SOL    HW2  480  12.533  13.086   2.225
32883SOL     OW  481   9.057   1.034  14.374
32883SOL    HW1  482   9.078   1.126  14.388
32883SOL    HW2  483   9.141   0.989  14.384
32884SOL     OW  484   0.790  11.500   4.588
32884SOL    HW1  485   0.817  11.446   4.513
32884SOL    HW2  486   0.716  11.551   4.554
32885SOL     OW  487  10.280   9.483   9.736
32885SOL    HW1  488  10.285   9.562   9.682
32885SOL    HW2  489  10.283   9.411   9.673
32886SOL     OW  490  12.653   7.782   0.742
32886SOL    HW1  491  12.635   7.841   0.815
32886SOL    HW2  492  12.568   7.773   0.697
32887SOL     OW  493   3.037  10.442   6.536
32887SOL    HW1  494   3.013  10.430   6.444
32887SOL    HW2  495   3.010  10.532   6.555
32888SOL     OW  496   9.788  12.023  12.899
32888SOL    HW1  497   9.694  12.039  12.909
32888SOL    HW2  498   9.829  12.084  12.961
32889SOL     OW  499   1.681   1.040   2.662
32889SOL    HW1  500   1.764   0.995   2.645
32889SOL    HW2  501   1.664   1.088   2.581
32890SOL     OW  502   7.083   4.655   4.359
32890SOL    HW1  503   7.113   4.698   4.439
32890SOL    HW2  504   7.100   4.562   4.374
32891SOL     OW  505  12.686   2.275  12.301
32891SOL    HW1  506  12.592   2.285  12.316
32891SOL    HW2  507  12.701   2.313  12.214
32892SOL     OW  508  12.982   9.922   5.533
32892SOL    HW1  509  12.921   9.992   5.555
32892SOL    HW2  510  13.031   9.906   5.614
32893SOL     OW  511   5.773   3.448  12.160
32893SOL    HW1  512   5.725   3.414  12.084
32893SOL    HW2  513   5.707   3.497  12.209
32894SOL     OW  514  10.194   0.438  14.243
32894SOL    HW1  515  10.177   0.498  14.316
32894SOL    HW2  516  10.254   0.373  14.279
32895SOL     OW  517   6.525   0.725  13.887
32895SOL    HW1  518   6.503   0.691  13.973
32895SOL    HW2  519   6.449   0.705  13.832
32896SOL     OW  520   4.999  10.588   1.212
32896SOL    HW1  521   5.051  10.631   1.144
32896SOL    HW2  522   4.952  10.519   1.166
32897SOL     OW  523   6.184  12.044   5.564
32897SOL    HW1  524   6.251  12.035   5.497
32897SOL    HW2  525   6.103  12.017   5.522
32898SOL     OW  526   3.496   7.970   0.538
32898SOL    HW1  527   3.587   8.000   0.527
32898SOL    HW2  528   3.464   8.019   0.614
32899SOL     OW  529  13.604  12.655   2.557
32899SOL    HW1  530  13.657  12.730   2.583
32899SOL    HW2  531  13.568  12.621   2.639
32900SOL     OW  532   3.688  13.170   3.809
32900SOL    HW1  533   3.776  13.142   3.836
32900SOL    HW2  534   3.635  13.163   3.889
32901SOL     OW  535   0.542   0.775  13.724
32901SOL    HW1  536   0.464   0.816  13.762
32901SOL    HW2  537   0.590   0.742  13.799
32902SOL     OW  538   9.712  10.027  11.425
32902SOL    HW1  539   9.623  10.013  11.391
32902SOL    HW2  540   9.760   9.949  11.397
32903SOL     OW  541   9.096  14.644   9.284
32903SOL    HW1  542   9.109  14.557   9.321
32903SOL    HW2  543   9.163  14.698   9.325
32904SOL     OW  544   4.475   8.444   7.144
32904SOL    HW1  545   4.556   8.449   7.195
32904SOL    HW2  546   4.449   8.536   7.132
32905SOL     OW  547  10.100  12.023   4.475
32905SOL    HW1  548  10.077  11.942   4.429
32905SOL    HW2  549  10.116  11.995   4.565
32906SOL     OW  550   6.752   0.223   6.271
32906SOL    HW1  551   6.749   0.255   6.181
32906SOL    HW2  552   6.838   0.182   6.279
32907SOL     OW  553   6.599   7.483  10.355
32907SOL    HW1  554   6.588   7.494  10.261
32907SOL    HW2  555   6.560   7.562  10.392
32908SOL     OW  556   4.046   6.608   4.126
32908SOL    HW1  557   4.127   6.587   4.171
32908SOL    HW2  558   4.064   6.691   4.081
32909SOL     OW  559   3.555  13.833   0.079
32909SOL    HW1  560   3.609  13.789   0.014
32909SOL    HW2  561   3.586  13.800   0.163
32910SOL     OW  562  11.092   4.546   1.886
32910SOL    HW1  563  11.117   4.600   1.961
32910SOL    HW2  564  11.153   4.472   1.889
32911SOL     OW  565  14.131   2.977   5.839
32911SOL    HW1  566  14.093   3.063   5.824
32911SOL    HW2  567  14.162   2.949   5.753
32912SOL     OW  568   3.090  11.927   3.894
32912SOL    HW1  569   2.999  11.913   3.922
32912SOL    HW2  570   3.083  11.964   3.806
32913SOL     OW  571   4.452  10.506   8.463
32913SOL    HW1  572   4.476  10.493   8.372
32913SOL    HW2  573   4.395  10.432   8.484
32914SOL     OW  574   8.637  11.341   3.429
32914SOL    HW1  575   8.679  11.295   3.356
32914SOL    HW2  576   8.698  11.411   3.452
32915SOL     OW  577  12.411  12.860   4.756
32915SOL    HW1  578  12.393  12.767   4.741
32915SOL    HW2  579  12.447  12.864   4.845
32916SOL     OW  580  10.224   0.497  11.969
32916SOL    HW1  581  10.238   0.587  11.996
32916SOL    HW2  582  10.300   0.474  11.916
32917SOL     OW  583   8.137   6.434  13.392
32917SOL    HW1  584   8.079   6.388  13.452
32917SOL    HW2  585   8.102   6.523  13.387
32918SOL     OW  586   0.854   0.502   0.248
32918SOL    HW1  587   0.873   0.516   0.155
32918SOL    HW2  588   0.909   0.428   0.273
32919SOL     OW  589   3.841   7.127   0.061
32919SOL    HW1  590   3.771   7.142   0.124
32919SOL    HW2  591   3.922   7.142   0.110
32920SOL     OW  592   0.345   7.439  10.266
32920SOL    HW1  593   0.417   7.443  10.328
32920SOL    HW2  594   0.296   7.521  10.280
32921SOL     OW  595   0.383   0.401  13.907
32921SOL    HW1  596   0.401   0.424  13.998
32921SOL    HW2  597   0.301   0.445  13.886
32922SOL     OW  598  11.818  12.260  14.366
32922SOL    HW1  599  11.794  12.215  14.447
32922SOL    HW2  600  11.735  12.296  14.334
32923SOL     OW  601   2.137   4.938   6.871
32923SOL    HW1  602   2.156   4.855   6.826
32923SOL    HW2  603   2.157   4.921   6.963
32924SOL     OW  604  12.874   7.517  13.384
32924SOL    HW1  605  12.847   7.563  13.305
32924SOL    HW2  606  12.795   7.475  13.417
32925SOL     OW  607   3.827   4.112  12.753
32925SOL    HW1  608   3.779   4.080  12.829
32925SOL    HW2  609   3.887   4.178  12.789
32926SOL     OW  610  10.173   5.863  14.336
32926SOL    HW1  611  10.097   5.919  14.352
32926SOL    HW2  612  10.243   5.903  14.388
32927SOL     OW  613   9.629   5.790   3.026
32927SOL    HW1  614   9.560   5.788   2.959
32927SOL    HW2  615   9.703   5.832   2.983
32928SOL     OW  616   8.065   8.533   5.657
32928SOL    HW1  617   8.023   8.607   5.702
32928SOL    HW2  618   8.016   8.457   5.688
32929SOL     OW  619   5.286  14.089  10.204
32929SOL    HW1  620   5.311  14.009  10.249
32929SOL    HW2  621   5.191  14.096  10.219
32930SOL     OW  622   4.681   5.781  14.042
32930SOL    HW1  623   4.603   5.732  14.016
32930SOL    HW2  624   4.731   5.793  13.961
32931SOL     OW  625   7.478   8.060  13.678
32931SOL    HW1  626   7.458   8.078  13.770
32931SOL    HW2  627   7.469   7.965  13.669
32932SOL     OW  628   1.906   4.948   6.759
32932SOL    HW1  629   1.859   4.891   6.820
32932SOL    HW2  630   1.993   4.958   6.798
32933SOL     OW  631   9.090   7.091  10.489
32933SOL    HW1  632   9.055   7.047  10.411
32933SOL    HW2  633   9.148   7.158  10.455
32934SOL     OW  634   4.010   2.344   3.040
32934SOL    HW1  635   3.962   2.365   2.960
32934SOL    HW2  636   3.943   2.341   3.108
32935SOL     OW  637   9.879   8.974   9.678
32935SOL    HW1  638   9.829   8.908   9.725
32935SOL    HW2  639   9.865   8.953   9.585
32936SOL     OW  640   7.731  12.468   1.080
32936SOL    HW1  641   7.676  12.421   1.017
32936SOL    HW2  642   7.670  12.520   1.132
32937SOL     OW  643   5.845  11.068   9.869
32937SOL    HW1  644   5.939  11.051   9.863
32937SOL    HW2  645   5.805  10.981   9.865
32938SOL     OW  646   4.955  10.828   9.144
32938SOL    HW1  647   5.039  10.795   9.176
32938SOL    HW2  648   4.970  10.845   9.051
32939SOL     OW  649   1.703   8.774   3.924
32939SOL    HW1  650   1.697   8.862   3.962
32939SOL    HW2  651   1.778   8.778   3.865
32940SOL     OW  652   6.771   8.434   4.364
32940SOL    HW1  653   6.690   8.419   4.413
32940SOL    HW2  654   6.822   8.492   4.419
32941SOL     OW  655  11.828  14.438  14.224
32941SOL    HW1  656  11.802  14.529  14.218
32941SOL    HW2  657  11.917  14.436  14.189
32942SOL     OW  658  14.529   1.341   8.592
32942SOL    HW1  659  14.510   1.434   8.577
32942SOL    HW2  660  14.507   1.298   8.510
32943SOL     OW  661  10.490   0.959   9.765
32943SOL    HW1  662  10.495   0.908   9.684
32943SOL    HW2  663  10.399   0.953   9.792
32944SOL     OW  664  13.579  11.032   4.620
32944SOL    HW1  665  13.613  10.949   4.653
32944SOL    HW2  666  13.489  11.037   4.654
32945SOL     OW  667   1.948  13.423   4.473
32945SOL    HW1  668   1.856  13.441   4.493
32945SOL    HW2  669   1.990  13.508   4.475
32946SOL     OW  670  14.103  10.461   5.849
32946SOL    HW1  671  14.063  10.547   5.861
32946SOL    HW2  672  14.191  10.480   5.817
32947SOL     OW  673   1.360   9.855   1.132
32947SOL    HW1  674   1.339   9.880   1.042
32947SOL    HW2  675   1.417   9.779   1.124
32948SOL     OW  676   2.738  11.647  12.985
32948SOL    HW1  677   2.740  11.554  12.961
32948SOL    HW2  678   2.767  11.648  13.077
32949SOL     OW  679   8.367   0.098   5.574
32949SOL    HW1  680   8.451   0.143   5.567
32949SOL    HW2  681   8.345   0.104   5.667
32950SOL     OW  682  13.791   5.224   1.932
32950SOL    HW1  683  13.803   5.296   1.993
32950SOL    HW2  684  13.697   5.207   1.932
32951SOL     OW  685   9.737  14.572  10.365
32951SOL    HW1  686   9.740  14.476  10.372
32951SOL    HW2  687   9.669  14.598  10.427
32952SOL     OW  688   9.346   4.202   7.524
32952SOL    HW1  689   9.362   4.295   7.541
32952SOL    HW2  690   9.368   4.158   7.606
32953SOL     OW  691   4.090  12.450   6.127
32953SOL    HW1  692   4.080  12.414   6.039
32953SOL    HW2  693   4.170  12.503   6.122
32954SOL     OW  694   2.464   4.239   0.330
32954SOL    HW1  695   2.384   4.230   0.279
32954SOL    HW2  696   2.435   4.238   0.421
32955SOL     OW  697   4.827   2.239  11.232
32955SOL    HW1  698   4.791   2.192  11.307
32955SOL    HW2  699   4.856   2.171  11.172
32956SOL     OW  700   4.844  10.083   5.735
32956SOL    HW1  701   4.805  10.093   5.821
32956SOL    HW2  702   4.808  10.001   5.701
32957SOL     OW  703   4.011   5.869   6.064
32957SOL    HW1  704   4.103   5.877   6.040
32957SOL    HW2  705   4.000   5.930   6.137
32958SOL     OW  706   8.779   7.912   6.492
32958SOL    HW1  707   8.836   7.987   6.475
32958SOL    HW2  708   8.732   7.899   6.410
32959SOL     OW  709  10.423   7.252  12.309
32959SOL    HW1  710  10.442   7.204  12.228
32959SOL    HW2  711  10.414   7.183  12.375
32960SOL     OW  712   1.968   0.609   1.427
32960SOL    HW1  713   1.881   0.599   1.389
32960SOL    HW2  714   2.006   0.684   1.382
32961SOL     OW  715   0.452   5.912   2.929
32961SOL    HW1  716   0.508   5.947   2.998
32961SOL    HW2  717   0.454   5.817   2.942
32962SOL     OW  718   3.208   8.458  14.750
32962SOL    HW1  719   3.169   8.545  14.756
32962SOL    HW2  720   3.178   8.423  14.667
32963SOL     OW  721  12.102  10.126   4.978
32963SOL    HW1  722  12.025  10.075   5.002
32963SOL    HW2  723  12.139  10.080   4.903
32964SOL     OW  724  12.356   3.000   1.929
32964SOL    HW1  725  12.391   3.046   1.853
32964SOL    HW2  726  12.314   3.069   1.982
32965SOL     OW  727   5.849   3.272  11.033
32965SOL    HW1  728   5.813   3.228  11.110
32965SOL    HW2  729   5.929   3.315  11.064
32966SOL     OW  730   7.296   4.799  13.531
32966SOL    HW1  731   7.360   4.850  13.482
32966SOL    HW2  732   7.235   4.766  13.465
32967SOL     OW  733  11.116   4.589  10.387
32967SOL    HW1  734  11.167   4.650  10.439
32967SOL    HW2  735  11.179   4.552  10.325
32968SOL     OW  736   3.939   9.651   4.940
32968SOL    HW1  737   3.902   9.739   4.944
32968SOL    HW2  738   4.025   9.659   4.983
32969SOL     OW  739   0.014   7.127  12.324
32969SOL    HW1  740   0.080   7.104  12.389
32969SOL    HW2  741  14.820   7.067  12.341
32970SOL     OW  742   6.360   3.152   2.585
32970SOL    HW1  743   6.268   3.165   2.608
32970SOL    HW2  744   6.391   3.086   2.647
32971SOL     OW  745   3.283  10.959   6.405
32971SOL    HW1  746   3.221  10.958   6.332
32971SOL    HW2  747   3.353  10.900   6.378
32972SOL     OW  748   4.867   0.535   9.875
32972SOL    HW1  749   4.854   0.540   9.970
32972SOL    HW2  750   4.939   0.596   9.857
32973SOL     OW  751   6.609   7.427   7.408
32973SOL    HW1  752   6.546   7.496   7.386
32973SOL    HW2  753   6.558   7.346   7.404
32974SOL     OW  754   6.523   0.143   5.427
32974SOL    HW1  755   6.572   0.063   5.408
32974SOL    HW2  756   6.432   0.114   5.433
32975SOL     OW  757  10.589   1.979  10.779
32975SOL    HW1  758  10.497   1.989  10.755
32975SOL    HW2  759  10.594   2.010  10.869
32976SOL     OW  760   9.501  12.222   5.675
32976SOL    HW1  761   9.406  12.212   5.680
32976SOL    HW2  762   9.529  12.239   5.765
32977SOL     OW  763  10.153  11.741  11.604
32977SOL    HW1  764  10.105  11.781  11.532
32977SOL    HW2  765  10.130  11.648  11.599
32978SOL     OW  766  14.233   5.826   7.165
32978SOL    HW1  767  14.170   5.790   7.104
32978SOL    HW2  768  14.199   5.913   7.186
32979SOL     OW  769   5.093   4.742   8.494
32979SOL    HW1  770   5.180   4.741   8.453
32979SOL    HW2  771   5.075   4.650   8.515
32980SOL     OW  772   0.295   3.424   2.097
32980SOL    HW1  773   0.341   3.498   2.057
32980SOL    HW2  774   0.354   3.350   2.084
32981SOL     OW  775   8.148   4.617  11.379
32981SOL    HW1  776   8.154   4.688  11.315
32981SOL    HW2  777   8.235   4.611  11.418
32982SOL     OW  778  10.662   2.740   6.140
32982SOL    HW1  779  10.636   2.653   6.111
32982SOL    HW2  780  10.683   2.787   6.060
32983SOL     OW  781   8.431  13.544  10.789
32983SOL    HW1  782   8.340  13.545  10.817
32983SOL    HW2  783   8.428  13.535  10.694
32984SOL     OW  784  12.833  10.754  12.943
32984SOL    HW1  785  12.753  10.805  12.955
32984SOL    HW2  786  12.823  10.679  13.002
32985SOL     OW  787  10.043   5.446  12.587
32985SOL    HW1  788  10.003   5.527  12.617
32985SOL    HW2  789   9.971   5.383  12.584
32986SOL     OW  790   0.544   8.561  10.034
32986SOL    HW1  791   0.521   8.624   9.966
32986SOL    HW2  792   0.492   8.483  10.013
32987SOL     OW  793  13.446   3.743   4.457
32987SOL    HW1  794  13.503   3.669   4.480
32987SOL    HW2  795  13.440   3.741   4.362
32988SOL     OW  796   8.954  11.481   5.081
32988SOL    HW1  797   8.879  11.430   5.051
32988SOL    HW2  798   8.934  11.570   5.053
32989SOL     OW  799  10.864  14.333   6.022
32989SOL    HW1  800  10.908  14.418   6.028
32989SOL    HW2  801  10.923  14.273   6.068
32990SOL     OW  802   5.112  10.529  10.364
32990SOL    HW1  803   5.076  10.488  10.443
32990SOL    HW2  804   5.206  10.534  10.380
32991SOL     OW  805   5.795   1.115   2.728
32991SOL    HW1  806   5.889   1.119   2.711
32991SOL    HW2  807   5.779   1.023   2.750
32992SOL     OW  808   5.608   6.348   1.846
32992SOL    HW1  809   5.668   6.312   1.911
32992SOL    HW2  810   5.521   6.340   1.885
32993SOL     OW  811   1.966  11.927   8.775
32993SOL    HW1  812   1.993  11.898   8.688
32993SOL    HW2  813   1.879  11.965   8.762
32994SOL     OW  814   9.751   3.877  13.285
32994SOL    HW1  815   9.844   3.865  13.265
32994SOL    HW2  816   9.734   3.968  13.265
32995SOL     OW  817   2.989   4.312  10.553
32995SOL    HW1  818   2.966   4.263  10.632
32995SOL    HW2  819   3.084   4.305  10.546
32996SOL     OW  820  14.425   1.609  12.052
32996SOL    HW1  821  14.387   1.665  12.120
32996SOL    HW2  822  14.381   1.637  11.971
32997SOL     OW  823  11.093   1.899   3.360
32997SOL    HW1  824  11.017   1.891   3.418
32997SOL    HW2  825  11.129   1.810   3.355
32998SOL     OW  826  11.225   8.011   9.082
32998SOL    HW1  827  11.143   8.060   9.080
32998SOL    HW2  828  11.197   7.919   9.079
32999SOL     OW  829  12.694   0.176   2.291
32999SOL    HW1  830  12.644   0.185   2.372
32999SOL    HW2  831  12.759   0.108   2.310
33000SOL     OW  832   8.641   5.901   0.520
33000SOL    HW1  833   8.718   5.887   0.464
33000SOL    HW2  834   8.677   5.931   0.604
33001SOL     OW  835  10.670   4.830   0.574
33001SOL    HW1  836  10.586   4.876   0.572
33001SOL    HW2  837  10.647   4.740   0.597
33002SOL     OW  838   4.738   1.014  11.457
33002SOL    HW1  839   4.699   1.091  11.417
33002SOL    HW2  840   4.745   1.035  11.550
33003SOL     OW  841  13.171   7.005  11.982
33003SOL    HW1  842  13.168   6.921  11.937
33003SOL    HW2  843  13.114   6.993  12.058
33004SOL     OW  844   0.221   1.674   4.242
33004SOL    HW1  845   0.264   1.599   4.201
33004SOL    HW2  846   0.293   1.727   4.277
33005SOL     OW  847   7.748  14.307   2.190
33005SOL    HW1  848   7.708  14.390   2.164
33005SOL    HW2  849   7.677  14.259   2.234
33006SOL     OW  850   1.629  13.118   3.039
33006SOL    HW1  851   1.610  13.044   2.982
33006SOL    HW2  852   1.716  13.100   3.074
33007SOL     OW  853   1.733  13.979  13.174
33007SOL    HW1  854   1.729  13.930  13.091
33007SOL    HW2  855   1.795  13.930  13.228
33008SOL     OW  856   7.311   4.725   8.596
33008SOL    HW1  857   7.401   4.739   8.623
33008SOL    HW2  858   7.261   4.793   8.641
33009SOL     OW  859   2.451   8.077   3.103
33009SOL    HW1  860   2.497   8.087   3.186
33009SOL    HW2  861   2.443   7.982   3.091
33010SOL     OW  862   6.790  13.639   2.761
33010SOL    HW1  863   6.748  13.719   2.793
33010SOL    HW2  864   6.742  13.618   2.681
33011SOL     OW  865   4.497  12.341   7.066
33011SOL    HW1  866   4.480  12.383   7.150
33011SOL    HW2  867   4.496  12.413   7.003
33012SOL     OW  868  13.147   6.463   1.437
33012SOL    HW1  869  13.127   6.402   1.366
33012SOL    HW2  870  13.236   6.442   1.463
33013SOL     OW  871  13.291  10.920   6.351
33013SOL    HW1  872  13.324  10.868   6.278
33013SOL    HW2  873  13.358  10.987   6.366
33014SOL     OW  874  14.622   4.141   5.014
33014SOL    HW1  875  14.603   4.076   4.946
33014SOL    HW2  876  14.605   4.095   5.096
33015SOL     OW  877   6.547   1.618   5.456
33015SOL    HW1  878   6.638   1.606   5.486
33015SOL    HW2  879   6.497   1.631   5.537
33016SOL     OW  880   4.636  11.561   7.061
33016SOL    HW1  881   4.694  11.597   7.127
33016SOL    HW2  882   4.691  11.547   6.984
33017SOL     OW  883   8.344   8.233  10.732
33017SOL    HW1  884   8.422   8.183  10.756
33017SOL    HW2  885   8.289   8.232  10.811
33018SOL     OW  886  10.597  13.789   9.658
33018SOL    HW1  887  10.568  13.826   9.575
33018SOL    HW2  888  10.679  13.744   9.637
33019SOL     OW  889   1.889  10.362   5.568
33019SOL    HW1  890   1.896  10.296   5.499
33019SOL    HW2  891   1.858  10.440   5.522
33020SOL     OW  892   1.783   3.587   6.499
33020SOL    HW1  893   1.844   3.626   6.561
33020SOL    HW2  894   1.810   3.622   6.414
33021SOL     OW  895   1.461   8.318   0.623
33021SOL    HW1  896   1.492   8.227   0.628
33021SOL    HW2  897   1.540   8.371   0.629
33022SOL     OW  898   2.572   2.945  13.742
33022SOL    HW1  899   2.557   2.851  13.756
33022SOL    HW2  900   2.667   2.954  13.745
33023SOL     OW  901  14.060   2.717   9.193
33023SOL    HW1  902  14.047   2.735   9.286
33023SOL    HW2  903  14.066   2.803   9.152
33024SOL     OW  904  12.959  13.964   2.657
33024SOL    HW1  905  12.953  13.986   2.750
33024SOL    HW2  906  13.045  13.995   2.630
33025SOL     OW  907   3.336   4.928   0.246
33025SOL    HW1  908   3.293   4.987   0.185
33025SOL    HW2  909   3.334   4.975   0.330
33026SOL     OW  910   0.776   7.435   5.898
33026SOL    HW1  911   0.809   7.524   5.902
33026SOL    HW2  912   0.777   7.404   5.988
33027SOL     OW  913   6.713   6.180   7.768
33027SOL    HW1  914   6.683   6.174   7.859
33027SOL    HW2  915   6.809   6.177   7.775
33028SOL     OW  916   3.825   6.981   0.376
33028SOL    HW1  917   3.798   6.902   0.423
33028SOL    HW2  918   3.910   6.958   0.338
33029SOL     OW  919  11.319   1.530  13.691
33029SOL    HW1  920  11.281   1.615  13.668
33029SOL    HW2  921  11.406   1.531  13.651
33030SOL     OW  922  12.422  10.146   7.816
33030SOL    HW1  923  12.436  10.241   7.819
33030SOL    HW2  924  12.488  10.110   7.875
33031SOL     OW  925   2.590  12.462   9.097
33031SOL    HW1  926   2.640  12.407   9.158
33031SOL    HW2  927   2.655  12.496   9.036
33032SOL     OW  928   4.372   8.011  11.293
33032SOL    HW1  929   4.459   8.003  11.333
33032SOL    HW2  930   4.383   8.079  11.227
33033SOL     OW  931  13.610  11.723  14.769
33033SOL    HW1  932  13.526  11.766  14.753
33033SOL    HW2  933  13.600  11.637  14.729
33034SOL     OW  934   2.243  11.293   5.406
33034SOL    HW1  935   2.292  11.278   5.325
33034SOL    HW2  936   2.279  11.374   5.442
33035SOL     OW  937   2.463  13.409   7.698
33035SOL    HW1  938   2.432  13.417   7.788
33035SOL    HW2  939   2.385  13.419   7.644
33036SOL     OW  940   4.152   8.775   6.404
33036SOL    HW1  941   4.226   8.786   6.465
33036SOL    HW2  942   4.194   8.766   6.318
33037SOL     OW  943   8.356  12.190   1.173
33037SOL    HW1  944   8.401  12.168   1.254
33037SOL    HW2  945   8.263  12.182   1.195
33038SOL     OW  946   8.678   1.059   8.902
33038SOL    HW1  947   8.668   0.972   8.863
33038SOL    HW2  948   8.701   1.043   8.993
33039SOL     OW  949   9.885  14.265  14.090
33039SOL    HW1  950   9.938  14.196  14.130
33039SOL    HW2  951   9.850  14.313  14.165
33040SOL     OW  952   1.141  13.062  10.024
33040SOL    HW1  953   1.101  13.024  10.102
33040SOL    HW2  954   1.098  13.147  10.013
33041SOL     OW  955   2.494   4.830   4.975
33041SOL    HW1  956   2.523   4.831   4.883
33041SOL    HW2  957   2.569   4.797   5.024
33042SOL     OW  958  11.835  14.662  10.546
33042SOL    HW1  959  11.867  14.712  10.621
33042SOL    HW2  960  11.910  14.611  10.517
33043SOL     OW  961   0.320   4.163   5.913
33043SOL    HW1  962   0.224   4.157   5.918
33043SOL    HW2  963   0.339   4.156   5.819
33044SOL     OW  964   1.668   2.017   7.693
33044SOL    HW1  965   1.715   2.057   7.767
33044SOL    HW2  966   1.710   1.932   7.681
33045SOL     OW  967   2.745   3.812  10.709
33045SOL    HW1  968   2.776   3.789  10.621
33045SOL    HW2  969   2.756   3.907  10.713
33046SOL     OW  970   3.881  14.078   3.105
33046SOL    HW1  971   3.937  14.144   3.063
33046SOL    HW2  972   3.898  13.998   3.055
33047SOL     OW  973   5.511   6.967   5.130
33047SOL    HW1  974   5.537   7.011   5.049
33047SOL    HW2  975   5.497   6.876   5.105
33048SOL     OW  976   7.262   6.773  10.924
33048SOL    HW1  977   7.236   6.865  10.938
33048SOL    HW2  978   7.199   6.740  10.861
33049SOL     OW  979   4.284   9.797   9.374
33049SOL    HW1  980   4.243   9.882   9.391
33049SOL    HW2  981   4.303   9.762   9.460
33050SOL     OW  982  12.952  11.002  14.481
33050SOL    HW1  983  12.954  11.035  14.571
33050SOL    HW2  984  13.017  11.055  14.434
33051SOL     OW  985   4.434   1.313   8.342
33051SOL    HW1  986   4.355   1.367   8.337
33051SOL    HW2  987   4.418   1.241   8.282
33052SOL     OW  988   2.654   2.944   7.324
33052SOL    HW1  989   2.733   2.898   7.295
33052SOL    HW2  990   2.614   2.886   7.389
33053SOL     OW  991   2.218   4.767   4.296
33053SOL    HW1  992   2.234   4.852   4.255
33053SOL    HW2  993   2.271   4.705   4.246
33054SOL     OW  994   2.881  11.449   0.983
33054SOL    HW1  995   2.809  11.479   0.928
33054SOL    HW2  996   2.956  11.500   0.953
33055SOL     OW  997  14.764  11.649  11.377
33055SOL    HW1  998  14.831  11.711  11.406
33055SOL    HW2  999  14.747  11.673  11.286
33056SOL     OW 1000   1.283  13.360  12.790
33056SOL    HW1 1001   1.209  13.414  12.764
33056SOL    HW2 1002   1.262  13.331  12.879
33057SOL     OW 1003   7.869  10.145   9.533
33057SOL    HW1 1004   7.956  10.183   9.528
33057SOL    HW2 1005   7.835  10.174   9.617
33058SOL     OW 1006  12.157   8.261   9.294
33058SOL    HW1 1007  12.109   8.181   9.314
33058SOL    HW2 1008  12.092   8.330   9.300
33059SOL     OW 1009   0.244   3.135   3.786
33059SOL    HW1 1010   0.334   3.164   3.800
33059SOL    HW2 1011   0.190   3.210   3.810
33060SOL     OW 1012   4.638   3.724   3.881
33060SOL    HW1 1013   4.728   3.720   3.850
33060SOL    HW2 1014   4.602   3.803   3.840
33061SOL     OW 1015   9.004  11.937  10.636
33061SOL    HW1 1016   9.017  11.844  10.656
33061SOL    HW2 1017   8.925  11.939  10.582
33062SOL     OW 1018   7.462   8.535  10.597
33062SOL    HW1 1019   7.522   8.511  10.527
33062SOL    HW2 1020   7.461   8.459  10.655
33063SOL     OW 1021   0.001   4.796   3.638
33063SOL    HW1 1022  14.791   4.771   3.663
33063SOL    HW2 1023   0.024   4.867   3.698
33064SOL     OW 1024  10.962  11.446  14.398
33064SOL    HW1 1025  10.954  11.435  14.493
33064SOL    HW2 1026  11.046  11.407  14.377
33065SOL     OW 1027   6.223   2.635  11.234
33065SOL    HW1 1028   6.298   2.689  11.256
33065SOL    HW2 1029   6.259   2.566  11.178
33066SOL     OW 1030   1.439   4.456   0.778
33066SOL    HW1 1031   1.419   4.420   0.692
33066SOL    HW2 1032   1.446   4.551   0.763
33067SOL     OW 1033  12.024   4.482  12.200
33067SOL    HW1 1034  12.108   4.519  12.227
33067SOL    HW2 1035  12.003   4.419  12.269
33068SOL     OW 1036  11.045  13.675   0.257
33068SOL    HW1 1037  11.023  13.719   0.174
33068SOL    HW2 1038  10.991  13.597   0.257
33069SOL     OW 1039   2.113   5.376   2.473
33069SOL    HW1 1040   2.156   5.424   2.403
33069SOL    HW2 1041   2.022   5.407   2.472
33070SOL     OW 1042   8.683  10.120   7.322
33070SOL    HW1 1043   8.608  10.154   7.369
33070SOL    HW2 1044   8.650  10.043   7.276
33071SOL     OW 1045   3.520   1.076   4.731
33071SOL    HW1 1046   3.595   1.080   4.789
33071SOL    HW2 1047   3.492   1.167   4.721
33072SOL     OW 1048   0.595   9.748   5.267
33072SOL    HW1 1049   0.559   9.828   5.229
33072SOL    HW2 1050   0.689   9.752   5.247
33073SOL     OW 1051  13.293   4.392  11.260
33073SOL    HW1 1052  13.372   4.387  11.314
33073SOL    HW2 1053  13.323   4.431  11.177
33074SOL     OW 1054  11.940   4.680  11.228
33074SOL    HW1 1055  12.020   4.666  11.176
33074SOL    HW2 1056  11.870   4.683  11.163
33075SOL     OW 1057   9.980   2.946   7.188
33075SOL    HW1 1058  10.015   2.859   7.205
33075SOL    HW2 1059  10.038   3.005   7.236
33076SOL     OW 1060  14.326   8.603   0.663
33076SOL    HW1 1061  14.278   8.533   0.619
33076SOL    HW2 1062  14.283   8.612   0.748
33077SOL     OW 1063   1.412  14.821   9.887
33077SOL    HW1 1064   1.347   0.002   9.923
33077SOL    HW2 1065   1.494  14.869   9.890
33078SOL     OW 1066   9.604   6.378   5.696
33078SOL    HW1 1067   9.687   6.425   5.701
33078SOL    HW2 1068   9.542   6.441   5.660
33079SOL     OW 1069  12.222  12.031  12.085
33079SOL    HW1 1070  12.211  12.107  12.142
33079SOL    HW2 1071  12.140  11.983  12.092
33080SOL     OW 1072   9.613  11.265   4.349
33080SOL    HW1 1073   9.608  11.277   4.254
33080SOL    HW2 1074   9.540  11.318   4.383
33081SOL     OW 1075   1.371  10.640   8.416
33081SOL    HW1 1076   1.398  10.639   8.508
33081SOL    HW2 1077   1.418  10.567   8.376
33082SOL     OW 1078   2.582   0.450   0.744
33082SOL    HW1 1079   2.491   0.475   0.759
33082SOL    HW2 1080   2.633   0.524   0.777
33083SOL     OW 1081   1.960   5.883   0.539
33083SOL    HW1 1082   1.876   5.868   0.495
33083SOL    HW2 1083   1.938   5.940   0.613
33084SOL     OW 1084   1.647   1.850   2.567
33084SOL    HW1 1085   1.703   1.786   2.522
33084SOL    HW2 1086   1.684   1.935   2.543
33085SOL     OW 1087   5.945  10.117   9.664
33085SOL    HW1 1088   5.902  10.107   9.749
33085SOL    HW2 1089   6.038  10.125   9.686
33086SOL     OW 1090   8.921   2.301   7.045
33086SOL    HW1 1091   8.879   2.357   7.110
33086SOL    HW2 1092   8.932   2.358   6.969
33087SOL     OW 1093   6.346  11.654  11.038
33087SOL    HW1 1094   6.267  11.619  10.996
33087SOL    HW2 1095   6.379  11.719  10.976
33088SOL     OW 1096   1.059   4.133   3.625
33088SOL    HW1 1097   1.115   4.207   3.651
33088SOL    HW2 1098   0.972   4.157   3.655
33089SOL     OW 1099   1.867  13.242  14.385
33089SOL    HW1 1100   1.796  13.263  14.324
33089SOL    HW2 1101   1.942  13.226  14.328
33090SOL     OW 1102   8.353  10.644  12.798
33090SOL    HW1 1103   8.308  10.669  12.878
33090SOL    HW2 1104   8.370  10.550  12.809
33091SOL     OW 1105   3.902   6.329  14.643
33091SOL    HW1 1106   3.864   6.341  14.556
33091SOL    HW2 1107   3.982   6.279  14.628
33092SOL     OW 1108  11.722   2.483  10.713
33092SOL    HW1 1109  11.708   2.503  10.621
33092SOL    HW2 1110  11.786   2.547  10.742
33093SOL     OW 1111  10.888  10.912   6.109
33093SOL    HW1 1112  10.801  10.890   6.076
33093SOL    HW2 1113  10.924  10.828   6.138
33094SOL     OW 1114   1.288   3.251  14.064
33094SOL    HW1 1115   1.275   3.328  14.008
33094SOL    HW2 1116   1.224   3.261  14.134
33095SOL     OW 1117   8.165   9.926  12.351
33095SOL    HW1 1118   8.153   9.862  12.421
33095SOL    HW2 1119   8.171  10.010  12.397
33096SOL     OW 1120   8.234   3.708  13.388
33096SOL    HW1 1121   8.261   3.616  13.384
33096SOL    HW2 1122   8.314   3.756  13.366
33097SOL     OW 1123   9.049   8.830   1.050
33097SOL    HW1 1124   8.954   8.830   1.039
33097SOL    HW2 1125   9.081   8.893   0.985
33098SOL     OW 1126  12.147   0.024   6.041
33098SOL    HW1 1127  12.090   0.100   6.042
33098SOL    HW2 1128  12.221   0.048   6.098
33099SOL     OW 1129   6.358  13.650   3.412
33099SOL    HW1 1130   6.274  13.673   3.452
33099SOL    HW2 1131   6.423  13.688   3.470
33100SOL     OW 1132   4.441  10.706   6.371
33100SOL    HW1 1133   4.416  10.637   6.433
33100SOL    HW2 1134   4.383  10.693   6.296
33101SOL     OW 1135   9.850  11.499   9.857
33101SOL    HW1 1136   9.875  11.589   9.880
33101SOL    HW2 1137   9.903  11.444   9.915
33102SOL     OW 1138   2.132   8.299  11.700
33102SOL    HW1 1139   2.132   8.261  11.612
33102SOL    HW2 1140   2.050   8.349  11.705
33103SOL     OW 1141   5.466   9.810  12.076
33103SOL    HW1 1142   5.532   9.845  12.016
33103SOL    HW2 1143   5.389   9.866  12.063
33104SOL     OW 1144   3.893   2.803   3.765
33104SOL    HW1 1145   3.858   2.717   3.739
33104SOL    HW2 1146   3.820   2.846   3.809
33105SOL     OW 1147   6.857   4.613  13.396
33105SOL    HW1 1148   6.880   4.621  13.489
33105SOL    HW2 1149   6.922   4.666  13.350
33106SOL     OW 1150  11.901   8.879  12.188
33106SOL    HW1 1151  11.956   8.870  12.110
33106SOL    HW2 1152  11.962   8.866  12.261
33107SOL     OW 1153  10.141   4.523   9.955
33107SOL    HW1 1154  10.061   4.561   9.918
33107SOL    HW2 1155  10.212   4.568   9.909
33108SOL     OW 1156   6.666   6.723   1.830
33108SOL    HW1 1157   6.724   6.792   1.862
33108SOL    HW2 1158   6.722   6.665   1.778
33109SOL     OW 1159  10.014   0.120  13.751
33109SOL    HW1 1160  10.102   0.121  13.788
33109SOL    HW2 1161  10.017   0.185  13.681
33110SOL     OW 1162  10.235   6.886  14.310
33110SOL    HW1 1163  10.241   6.878  14.405
33110SOL    HW2 1164  10.325   6.902  14.281
33111SOL     OW 1165   0.807   6.896   4.720
33111SOL    HW1 1166   0.772   6.947   4.792
33111SOL    HW2 1167   0.897   6.877   4.745
33112SOL     OW 1168  11.582   2.829  14.022
33112SOL    HW1 1169  11.489   2.852  14.016
33112SOL    HW2 1170  11.627   2.898  13.974
33113SOL     OW 1171   5.913   7.564   4.735
33113SOL    HW1 1172   5.899   7.623   4.809
33113SOL    HW2 1173   5.884   7.613   4.659
33114SOL     OW 1174   9.413   3.492   7.915
33114SOL    HW1 1175   9.366   3.409   7.930
33114SOL    HW2 1176   9.499   3.478   7.954
33115SOL     OW 1177   7.826   7.827   3.618
33115SOL    HW1 1178   7.880   7.905   3.622
33115SOL    HW2 1179   7.832   7.798   3.527
33116SOL     OW 1180   8.287   0.809  10.302
33116SOL    HW1 1181   8.251   0.886  10.344
33116SOL    HW2 1182   8.316   0.840  10.216
33117SOL     OW 1183   8.585   6.439   1.132
33117SOL    HW1 1184   8.536   6.396   1.202
33117SOL    HW2 1185   8.640   6.503   1.178
33118SOL     OW 1186  11.684   1.798  11.348
33118SOL    HW1 1187  11.744   1.812  11.421
33118SOL    HW2 1188  11.734   1.823  11.270
33119SOL     OW 1189  10.194  10.203   9.019
33119SOL    HW1 1190  10.142  10.224   8.942
33119SOL    HW2 1191  10.283  10.191   8.985
33120SOL     OW 1192  11.232   5.043   2.340
33120SOL    HW1 1193  11.259   5.133   2.358
33120SOL    HW2 1194  11.311   5.001   2.305
33121SOL     OW 1195   8.666   5.155   1.094
33121SOL    HW1 1196   8.661   5.208   1.173
33121SOL    HW2 1197   8.747   5.104   1.105
33122SOL     OW 1198  14.736   2.821  14.590
33122SOL    HW1 1199  14.656   2.770  14.575
33122SOL    HW2 1200  14.731   2.892  14.526
33123SOL     OW 1201   3.747   1.163  10.024
33123SOL    HW1 1202   3.677   1.102  10.049
33123SOL    HW2 1203   3.821   1.139  10.079
33124SOL     OW 1204  11.513   1.435   0.195
33124SOL    HW1 1205  11.550   1.523   0.193
33124SOL    HW2 1206  11.515   1.410   0.288
33125SOL     OW 1207   2.200   8.604   9.190
33125SOL    HW1 1208   2.180   8.511   9.179
33125SOL    HW2 1209   2.138   8.634   9.256
33126SOL     OW 1210   2.451   7.611  10.254
33126SOL    HW1 1211   2.450   7.662  10.335
33126SOL    HW2 1212   2.367   7.565  10.253
33127SOL     OW 1213   3.714  12.027   5.844
33127SOL    HW1 1214   3.737  11.969   5.918
33127SOL    HW2 1215   3.797  12.047   5.803
33128SOL     OW 1216   1.305  14.516   2.294
33128SOL    HW1 1217   1.231  14.536   2.237
33128SOL    HW2 1218   1.282  14.558   2.378
33129SOL     OW 1219  12.871   7.395   6.127
33129SOL    HW1 1220  12.886   7.438   6.043
33129SOL    HW2 1221  12.777   7.378   6.129
33130SOL     OW 1222   2.777   8.609   3.552
33130SOL    HW1 1223   2.860   8.656   3.557
33130SOL    HW2 1224   2.716   8.659   3.606
33131SOL     OW 1225  13.709  13.656   4.035
33131SOL    HW1 1226  13.690  13.717   3.964
33131SOL    HW2 1227  13.635  13.665   4.095
33132SOL     OW 1228  14.440   7.723  12.341
33132SOL    HW1 1229  14.510   7.678  12.294
33132SOL    HW2 1230  14.396   7.776  12.275
33133SOL     OW 1231   8.715   7.813   9.891
33133SOL    HW1 1232   8.699   7.779   9.803
33133SOL    HW2 1233   8.748   7.902   9.877
33134SOL     OW 1234   9.719  11.077   6.949
33134SOL    HW1 1235   9.660  11.105   6.880
33134SOL    HW2 1236   9.678  11.108   7.030
33135SOL     OW 1237   3.372   6.629  12.783
33135SOL    HW1 1238   3.340   6.622  12.693
33135SOL    HW2 1239   3.421   6.548  12.797
33136SOL     OW 1240   2.673   2.732  11.275
33136SOL    HW1 1241   2.705   2.820  11.254
33136SOL    HW2 1242   2.605   2.715  11.209
33137SOL     OW 1243   4.014   3.296  11.715
33137SOL    HW1 1244   4.053   3.240  11.648
33137SOL    HW2 1245   4.012   3.383  11.675
33138SOL     OW 1246  10.795   8.120   2.917
33138SOL    HW1 1247  10.832   8.158   2.997
33138SOL    HW2 1248  10.818   8.027   2.923
33139SOL     OW 1249  14.120  14.217   0.557
33139SOL    HW1 1250  14.090  14.244   0.643
33139SOL    HW2 1251  14.045  14.232   0.499
33140SOL     OW 1252   7.446   2.801   2.750
33140SOL    HW1 1253   7.435   2.719   2.799
33140SOL    HW2 1254   7.534   2.796   2.714
33141SOL     OW 1255  12.834   2.626   4.318
33141SOL    HW1 1256  12.753   2.676   4.312
33141SOL    HW2 1257  12.899   2.689   4.350
33142SOL     OW 1258   1.277   5.287   3.453
33142SOL    HW1 1259   1.208   5.237   3.412
33142SOL    HW2 1260   1.291   5.362   3.395
33143SOL     OW 1261   9.120   0.513  11.562
33143SOL    HW1 1262   9.162   0.598  11.575
33143SOL    HW2 1263   9.141   0.463  11.642
33144SOL     OW 1264  11.895   4.243   0.763
33144SOL    HW1 1265  11.822   4.237   0.824
33144SOL    HW2 1266  11.928   4.153   0.756
33145SOL     OW 1267  11.087  11.387   7.975
33145SOL    HW1 1268  11.057  11.297   7.967
33145SOL    HW2 1269  11.089  11.403   8.070
33146SOL     OW 1270   9.351  13.864  13.317
33146SOL    HW1 1271   9.366  13.798  13.385
33146SOL    HW2 1272   9.409  13.936  13.342
33147SOL     OW 1273   6.540  14.264   5.319
33147SOL    HW1 1274   6.550  14.236   5.228
33147SOL    HW2 1275   6.481  14.198   5.357
33148SOL     OW 1276   0.406  12.788   6.525
33148SOL    HW1 1277   0.458  12.861   6.490
33148SOL    HW2 1278   0.470  12.720   6.544
33149SOL     OW 1279   6.314   0.445   2.597
33149SOL    HW1 1280   6.250   0.378   2.575
33149SOL    HW2 1281   6.389   0.425   2.541
33150SOL     OW 1282   5.166   7.494   6.023
33150SOL    HW1 1283   5.107   7.493   5.948
33150SOL    HW2 1284   5.112   7.463   6.096
33151SOL     OW 1285   4.718   1.917   0.371
33151SOL    HW1 1286   4.722   1.846   0.307
33151SOL    HW2 1287   4.744   1.876   0.454
33152SOL     OW 1288   1.859   1.959   1.671
33152SOL    HW1 1289   1.845   1.865   1.677
33152SOL    HW2 1290   1.888   1.974   1.581
33153SOL     OW 1291   9.850  10.946  12.395
33153SOL    HW1 1292   9.785  10.977  12.458
33153SOL    HW2 1293   9.867  11.023  12.340
33154SOL     OW 1294   2.955   4.948   0.894
33154SOL    HW1 1295   2.995   4.862   0.879
33154SOL    HW2 1296   2.868   4.942   0.854
33155SOL     OW 1297   8.726   9.767   0.685
33155SOL    HW1 1298   8.647   9.765   0.740
33155SOL    HW2 1299   8.699   9.724   0.604
33156SOL     OW 1300   5.369  13.919  14.020
33156SOL    HW1 1301   5.293  13.953  13.973
33156SOL    HW2 1302   5.392  13.839  13.973
33157SOL     OW 1303  11.510  10.803   9.896
33157SOL    HW1 1304  11.524  10.780   9.988
33157SOL    HW2 1305  11.566  10.880   9.883
33158SOL     OW 1306  14.334   0.051  11.428
33158SOL    HW1 1307  14.257   0.025  11.376
33158SOL    HW2 1308  14.307   0.039  11.519
33159SOL     OW 1309   6.366   1.098   6.030
33159SOL    HW1 1310   6.447   1.142   6.004
33159SOL    HW2 1311   6.315   1.092   5.950
33160SOL     OW 1312   5.472   4.841   8.854
33160SOL    HW1 1313   5.499   4.912   8.795
33160SOL    HW2 1314   5.377   4.853   8.864
33161SOL     OW 1315   1.466   3.681  10.303
33161SOL    HW1 1316   1.423   3.694  10.219
33161SOL    HW2 1317   1.397   3.695  10.368
33162SOL     OW 1318   7.725   8.585   8.385
33162SOL    HW1 1319   7.731   8.666   8.435
33162SOL    HW2 1320   7.799   8.533   8.416
33163SOL     OW 1321  10.232  14.516   0.662
33163SOL    HW1 1322  10.214  14.488   0.573
33163SOL    HW2 1323  10.324  14.541   0.662
33164SOL     OW 1324  14.765   5.989   9.483
33164SOL    HW1 1325  14.817   6.039   9.420
33164SOL    HW2 1326  14.742   6.053   9.551
33165SOL     OW 1327   3.343  14.386  12.397
33165SOL    HW1 1328   3.295  14.431  12.466
33165SOL    HW2 1329   3.401  14.453  12.360
33166SOL     OW 1330  11.151  10.433   8.515
33166SOL    HW1 1331  11.193  10.383   8.445
33166SOL    HW2 1332  11.106  10.368   8.568
33167SOL     OW 1333   3.624   7.637   1.127
33167SOL    HW1 1334   3.577   7.644   1.044
33167SOL    HW2 1335   3.626   7.544   1.146
33168SOL     OW 1336   1.218   6.693  10.188
33168SOL    HW1 1337   1.220   6.599  10.170
33168SOL    HW2 1338   1.146   6.704  10.251
33169SOL     OW 1339  10.649  11.081   3.239
33169SOL    HW1 1340  10.741  11.066   3.261
33169SOL    HW2 1341  10.611  10.993   3.238
33170SOL     OW 1342   7.822   3.920   5.365
33170SOL    HW1 1343   7.887   3.878   5.309
33170SOL    HW2 1344   7.782   3.987   5.310
33171SOL     OW 1345   1.757   4.221   7.336
33171SOL    HW1 1346   1.717   4.160   7.397
33171SOL    HW2 1347   1.757   4.175   7.252
33172SOL     OW 1348  11.486  13.920   6.244
33172SOL    HW1 1349  11.437  13.853   6.293
33172SOL    HW2 1350  11.577  13.908   6.272
33173SOL     OW 1351   5.976   5.448   2.419
33173SOL    HW1 1352   5.970   5.377   2.356
33173SOL    HW2 1353   5.912   5.426   2.487
33174SOL     OW 1354  14.473   6.548   7.986
33174SOL    HW1 1355  14.393   6.535   8.037
33174SOL    HW2 1356  14.475   6.472   7.927
33175SOL     OW 1357  11.919   2.405   3.073
33175SOL    HW1 1358  11.918   2.440   2.984
33175SOL    HW2 1359  12.011   2.386   3.090
33176SOL     OW 1360   7.078   4.291   5.467
33176SOL    HW1 1361   7.069   4.326   5.555
33176SOL    HW2 1362   7.140   4.219   5.476
33177SOL     OW 1363   7.122   1.162  11.101
33177SOL    HW1 1364   7.112   1.243  11.050
33177SOL    HW2 1365   7.169   1.102  11.043
33178SOL     OW 1366   7.150   0.566   0.854
33178SOL    HW1 1367   7.057   0.566   0.875
33178SOL    HW2 1368   7.192   0.604   0.931
33179SOL     OW 1369   1.424   6.455   9.280
33179SOL    HW1 1370   1.356   6.452   9.213
33179SOL    HW2 1371   1.503   6.427   9.235
33180SOL     OW 1372   4.348   5.255   9.760
33180SOL    HW1 1373   4.439   5.268   9.735
33180SOL    HW2 1374   4.299   5.269   9.678
33181SOL     OW 1375   8.135   5.800   2.140
33181SOL    HW1 1376   8.193   5.725   2.125
33181SOL    HW2 1377   8.066   5.766   2.196
33182SOL     OW 1378  11.368  11.628   4.185
33182SOL    HW1 1379  11.385  11.536   4.202
33182SOL    HW2 1380  11.275  11.639   4.204
33183SOL     OW 1381   6.833   6.794   0.375
33183SOL    HW1 1382   6.831   6.799   0.471
33183SOL    HW2 1383   6.868   6.707   0.356
33184SOL     OW 1384  12.618  11.820   9.068
33184SOL    HW1 1385  12.657  11.754   9.010
33184SOL    HW2 1386  12.690  11.848   9.125
33185SOL     OW 1387   3.273  11.149   2.157
33185SOL    HW1 1388   3.305  11.067   2.195
33185SOL    HW2 1389   3.182  11.131   2.135
33186SOL     OW 1390   5.001   0.825   3.459
33186SOL    HW1 1391   5.003   0.775   3.540
33186SOL    HW2 1392   5.092   0.826   3.430
33187SOL     OW 1393   6.990   9.021   5.338
33187SOL    HW1 1394   6.903   9.011   5.375
33187SOL    HW2 1395   7.044   9.053   5.410
33188SOL     OW 1396   7.002  13.869   4.368
33188SOL    HW1 1397   7.097  13.857   4.356
33188SOL    HW2 1398   6.962  13.822   4.295
33189SOL     OW 1399  11.127   8.636  10.354
33189SOL    HW1 1400  11.099   8.606  10.267
33189SOL    HW2 1401  11.074   8.714  10.370
33190SOL     OW 1402  14.683   3.858   8.144
33190SOL    HW1 1403  14.710   3.928   8.084
33190SOL    HW2 1404  14.710   3.777   8.101
33191SOL     OW 1405   0.589   0.328   6.510
33191SOL    HW1 1406   0.663   0.267   6.513
33191SOL    HW2 1407   0.564   0.332   6.418
33192SOL     OW 1408   0.870   7.776   1.984
33192SOL    HW1 1409   0.816   7.787   1.906
33192SOL    HW2 1410   0.911   7.862   1.997
33193SOL     OW 1411   3.145  12.644  13.040
33193SOL    HW1 1412   3.145  12.730  12.998
33193SOL    HW2 1413   3.091  12.590  12.983
33194SOL     OW 1414   8.963   8.894   9.681
33194SOL    HW1 1415   8.975   8.812   9.632
33194SOL    HW2 1416   8.873   8.920   9.660
33195SOL     OW 1417  10.629  10.829  10.324
33195SOL    HW1 1418  10.597  10.866  10.406
33195SOL    HW2 1419  10.615  10.898  10.259
33196SOL     OW 1420   6.236   5.891   0.252
33196SOL    HW1 1421   6.279   5.807   0.266
33196SOL    HW2 1422   6.222   5.896   0.158
33197SOL     OW 1423   6.870   1.927   6.985
33197SOL    HW1 1424   6.801   1.939   6.919
33197SOL    HW2 1425   6.823   1.929   7.069
33198SOL     OW 1426   6.914   3.948  10.368
33198SOL    HW1 1427   6.833   3.899  10.379
33198SOL    HW2 1428   6.950   3.955  10.456
33199SOL     OW 1429   6.701  10.515   8.258
33199SOL    HW1 1430   6.757  10.572   8.310
33199SOL    HW2 1431   6.758  10.484   8.187
33200SOL     OW 1432  13.041  12.343   7.999
33200SOL    HW1 1433  13.015  12.435   7.998
33200SOL    HW2 1434  13.028  12.314   8.089
33201SOL     OW 1435  11.391  13.379  12.233
33201SOL    HW1 1436  11.432  13.324  12.166
33201SOL    HW2 1437  11.439  13.462  12.229
33202SOL     OW 1438  14.189  12.300  10.592
33202SOL    HW1 1439  14.217  12.263  10.509
33202SOL    HW2 1440  14.230  12.387  10.595
33203SOL     OW 1441  10.163  10.267   0.023
33203SOL    HW1 1442  10.150  10.224   0.107
33203SOL    HW2 1443  10.247  10.312   0.031
33204SOL     OW 1444   6.782   8.978   7.224
33204SOL    HW1 1445   6.833   8.958   7.303
33204SOL    HW2 1446   6.784   8.897   7.174
33205SOL     OW 1447  13.769   0.722   0.531
33205SOL    HW1 1448  13.717   0.789   0.576
33205SOL    HW2 1449  13.849   0.716   0.583
33206SOL     OW 1450   8.381   6.660  14.418
33206SOL    HW1 1451   8.459   6.690  14.465
33206SOL    HW2 1452   8.412   6.586  14.365
33207SOL     OW 1453   1.681   7.683   3.675
33207SOL    HW1 1454   1.763   7.639   3.650
33207SOL    HW2 1455   1.667   7.658   3.766
33208SOL     OW 1456   3.979   9.838   6.488
33208SOL    HW1 1457   3.940   9.853   6.402
33208SOL    HW2 1458   3.905   9.830   6.548
33209SOL     OW 1459   8.137   1.667  11.116
33209SOL    HW1 1460   8.189   1.681  11.037
33209SOL    HW2 1461   8.150   1.574  11.138
33210SOL     OW 1462  11.469  12.840   1.020
33210SOL    HW1 1463  11.397  12.845   0.957
33210SOL    HW2 1464  11.436  12.782   1.089
33211SOL     OW 1465   4.965  11.792   9.285
33211SOL    HW1 1466   5.030  11.810   9.218
33211SOL    HW2 1467   4.889  11.845   9.261
33212SOL     OW 1468  10.474   6.731  12.250
33212SOL    HW1 1469  10.511   6.645  12.229
33212SOL    HW2 1470  10.481   6.781  12.169
33213SOL     OW 1471  13.490   2.697   1.532
33213SOL    HW1 1472  13.487   2.746   1.449
33213SOL    HW2 1473  13.399   2.677   1.551
33214SOL     OW 1474  13.046   9.996   5.260
33214SOL    HW1 1475  13.118  10.059   5.261
33214SOL    HW2 1476  13.039   9.966   5.350
33215SOL     OW 1477   5.415   0.764   8.721
33215SOL    HW1 1478   5.402   0.701   8.650
33215SOL    HW2 1479   5.480   0.722   8.779
33216SOL     OW 1480   8.561  14.652  12.125
33216SOL    HW1 1481   8.623  14.618  12.061
33216SOL    HW2 1482   8.553  14.583  12.190
33217SOL     OW 1483   7.669   2.519   1.099
33217SOL    HW1 1484   7.602   2.512   1.167
33217SOL    HW2 1485   7.739   2.461   1.128
33218SOL     OW 1486   1.604   1.788  11.040
33218SOL    HW1 1487   1.619   1.865  10.984
33218SOL    HW2 1488   1.617   1.713  10.982
33219SOL     OW 1489   4.557   0.633   3.403
33219SOL    HW1 1490   4.512   0.576   3.341
33219SOL    HW2 1491   4.510   0.716   3.398
33220SOL     OW 1492   6.415  11.892  14.304
33220SOL    HW1 1493   6.432  11.867  14.394
33220SOL    HW2 1494   6.489  11.949  14.280
33221SOL     OW 1495  13.787   8.360  13.630
33221SOL    HW1 1496  13.725   8.310  13.577
33221SOL    HW2 1497  13.733   8.407  13.694
33222SOL     OW 1498   2.131   1.627  11.136
33222SOL    HW1 1499   2.101   1.552  11.187
33222SOL    HW2 1500   2.059   1.645  11.075
33223SOL     OW 1501   4.435   1.405   6.836
33223SOL    HW1 1502   4.468   1.495   6.843
33223SOL    HW2 1503   4.358   1.412   6.780
33224SOL     OW 1504   3.751   7.275   7.559
33224SOL    HW1 1505   3.816   7.238   7.498
33224SOL    HW2 1506   3.773   7.368   7.562
33225SOL     OW 1507  13.975  14.109  13.029
33225SOL    HW1 1508  13.924  14.159  12.964
33225SOL    HW2 1509  13.982  14.021  12.991
33226SOL     OW 1510   3.870   9.907   3.030
33226SOL    HW1 1511   3.836   9.987   2.990
33226SOL    HW2 1512   3.847   9.837   2.969
33227SOL     OW 1513   3.505   5.224   3.309
33227SOL    HW1 1514   3.554   5.173   3.374
33227SOL    HW2 1515   3.508   5.170   3.230
33228SOL     OW 1516   5.417  10.530   3.825
33228SOL    HW1 1517   5.359  10.457   3.849
33228SOL    HW2 1518   5.366  10.609   3.845
33229SOL     OW 1519  13.640  10.204  14.638
33229SOL    HW1 1520  13.674  10.291  14.618
33229SOL    HW2 1521  13.555  10.201  14.594
33230SOL     OW 1522  12.456  13.147   5.680
33230SOL    HW1 1523  12.534  13.144   5.736
33230SOL    HW2 1524  12.490  13.129   5.592
33231SOL     OW 1525   0.689   6.813   1.113
33231SOL    HW1 1526   0.774   6.849   1.138
33231SOL    HW2 1527   0.630   6.888   1.114
33232SOL     OW 1528  12.347   1.028   1.867
33232SOL    HW1 1529  12.358   0.988   1.782
33232SOL    HW2 1530  12.377   0.962   1.930
33233SOL     OW 1531   3.271   0.186   7.040
33233SOL    HW1 1532   3.291   0.092   7.041
33233SOL    HW2 1533   3.204   0.197   7.107
33234SOL     OW 1534   5.769   2.344   5.304
33234SOL    HW1 1535   5.744   2.265   5.255
33234SOL    HW2 1536   5.752   2.322   5.395
33235SOL     OW 1537   1.756   2.717  14.658
33235SOL    HW1 1538   1.777   2.785  14.721
33235SOL    HW2 1539   1.691   2.757  14.600
33236SOL     OW 1540   1.946   6.586   7.309
33236SOL    HW1 1541   1.880   6.520   7.287
33236SOL    HW2 1542   2.018   6.535   7.347
33237SOL     OW 1543   4.889   1.363   1.747
33237SOL    HW1 1544   4.801   1.335   1.723
33237SOL    HW2 1545   4.926   1.398   1.667
33238SOL     OW 1546  13.321  12.157   1.426
33238SOL    HW1 1547  13.315  12.110   1.343
33238SOL    HW2 1548  13.409  12.195   1.425
33239SOL     OW 1549  10.312  12.098   2.900
33239SOL    HW1 1550  10.237  12.156   2.886
33239SOL    HW2 1551  10.366  12.146   2.963
33240SOL     OW 1552  10.041   5.162   7.104
33240SOL    HW1 1553  10.091   5.207   7.036
33240SOL    HW2 1554  10.107   5.139   7.170
33241SOL     OW 1555  13.096   9.878   8.583
33241SOL    HW1 1556  13.150   9.825   8.524
33241SOL    HW2 1557  13.136   9.965   8.580
33242SOL     OW 1558   0.705   7.831   1.761
33242SOL    HW1 1559   0.744   7.869   1.682
33242SOL    HW2 1560   0.611   7.851   1.753
33243SOL     OW 1561   3.840   6.391   2.561
33243SOL    HW1 1562   3.748   6.386   2.536
33243SOL    HW2 1563   3.871   6.301   2.557
33244SOL     OW 1564   7.895  13.206   0.373
33244SOL    HW1 1565   7.915  13.238   0.285
33244SOL    HW2 1566   7.915  13.281   0.431
33245SOL     OW 1567   3.016   5.243   2.476
33245SOL    HW1 1568   2.963   5.320   2.496
33245SOL    HW2 1569   2.955   5.183   2.433
33246SOL     OW 1570   6.562   5.865   2.798
33246SOL    HW1 1571   6.636   5.919   2.825
33246SOL    HW2 1572   6.588   5.832   2.712
33247SOL     OW 1573  14.733   4.477  13.038
33247SOL    HW1 1574  14.775   4.501  12.956
33247SOL    HW2 1575  14.726   4.382  13.034
33248SOL     OW 1576   7.144   4.034  12.753
33248SOL    HW1 1577   7.198   4.107  12.784
33248SOL    HW2 1578   7.084   4.017  12.826
33249SOL     OW 1579   9.321   1.270   1.557
33249SOL    HW1 1580   9.259   1.226   1.499
33249SOL    HW2 1581   9.331   1.358   1.519
33250SOL     OW 1582  14.804   4.252   8.493
33250SOL    HW1 1583  14.787   4.346   8.500
33250SOL    HW2 1584  14.787   4.218   8.581
33251SOL     OW 1585  10.857   0.888  14.722
33251SOL    HW1 1586  10.850   0.943  14.644
33251SOL    HW2 1587  10.767   0.875  14.751
33252SOL     OW 1588   4.960   6.618  10.813
33252SOL    HW1 1589   4.954   6.712  10.800
33252SOL    HW2 1590   4.882   6.582  10.772
33253SOL     OW 1591   3.760   2.092  13.375
33253SOL    HW1 1592   3.702   2.145  13.321
33253SOL    HW2 1593   3.768   2.009  13.327
33254SOL     OW 1594   8.649   1.227   7.845
33254SOL    HW1 1595   8.729   1.175   7.837
33254SOL    HW2 1596   8.666   1.305   7.792
33255SOL     OW 1597   7.442  14.289   8.754
33255SOL    HW1 1598   7.448  14.371   8.802
33255SOL    HW2 1599   7.486  14.225   8.810
33256SOL     OW 1600   8.947   9.807  12.450
33256SOL    HW1 1601   8.871   9.857  12.480
33256SOL    HW2 1602   9.011   9.816  12.521
33257SOL     OW 1603   8.601   5.134   5.386
33257SOL    HW1 1604   8.634   5.181   5.463
33257SOL    HW2 1605   8.542   5.068   5.422
33258SOL     OW 1606   4.258   9.822   5.309
33258SOL    HW1 1607   4.216   9.748   5.266
33258SOL    HW2 1608   4.189   9.861   5.363
33259SOL     OW 1609   4.125   2.082   1.442
33259SOL    HW1 1610   4.110   2.141   1.515
33259SOL    HW2 1611   4.039   2.043   1.425
33260SOL     OW 1612   2.941  10.906   0.019
33260SOL    HW1 1613   2.986  10.990   0.027
33260SOL    HW2 1614   2.989  10.860  14.828
33261SOL     OW 1615   9.969  12.119   0.180
33261SOL    HW1 1616   9.905  12.088   0.115
33261SOL    HW2 1617  10.039  12.158   0.128
33262SOL     OW 1618  11.304   1.685   7.255
33262SOL    HW1 1619  11.357   1.716   7.328
33262SOL    HW2 1620  11.269   1.764   7.215
33263SOL     OW 1621   6.253   7.546   9.227
33263SOL    HW1 1622   6.211   7.632   9.239
33263SOL    HW2 1623   6.312   7.559   9.153
33264SOL     OW 1624  13.365  11.186  11.450
33264SOL    HW1 1625  13.313  11.208  11.527
33264SOL    HW2 1626  13.317  11.225  11.377
33265SOL     OW 1627   7.480  14.448   7.582
33265SOL    HW1 1628   7.576  14.451   7.581
33265SOL    HW2 1629   7.458  14.365   7.541
33266SOL     OW 1630   1.005   6.324  12.133
33266SOL    HW1 1631   1.057   6.253  12.096
33266SOL    HW2 1632   0.986   6.381  12.058
33267SOL     OW 1633  13.517   0.041   2.108
33267SOL    HW1 1634  13.569   0.111   2.146
33267SOL    HW2 1635  13.562   0.020   2.026
33268SOL     OW 1636   5.249   9.413  11.737
33268SOL    HW1 1637   5.200   9.424  11.818
33268SOL    HW2 1638   5.319   9.478  11.743
33269SOL     OW 1639   2.169   4.151   8.051
33269SOL    HW1 1640   2.080   4.158   8.016
33269SOL    HW2 1641   2.222   4.125   7.975
33270SOL     OW 1642   2.150   3.153   6.642
33270SOL    HW1 1643   2.170   3.077   6.587
33270SOL    HW2 1644   2.055   3.152   6.650
33271SOL     OW 1645   6.109   5.673  13.027
33271SOL    HW1 1646   6.021   5.671  13.065
33271SOL    HW2 1647   6.117   5.762  12.991
33272SOL     OW 1648   4.700  13.727   8.104
33272SOL    HW1 1649   4.753  13.649   8.120
33272SOL    HW2 1650   4.732  13.792   8.167
33273SOL     OW 1651  11.532   2.880   1.245
33273SOL    HW1 1652  11.442   2.850   1.232
33273SOL    HW2 1653  11.579   2.802   1.275
33274SOL     OW 1654   0.704   4.824   5.593
33274SOL    HW1 1655   0.659   4.900   5.556
33274SOL    HW2 1656   0.666   4.813   5.680
33275SOL     OW 1657   1.642   9.347   6.006
33275SOL    HW1 1658   1.668   9.405   5.934
33275SOL    HW2 1659   1.725   9.312   6.039
33276SOL     OW 1660   4.197   0.137   2.128
33276SOL    HW1 1661   4.142   0.109   2.201
33276SOL    HW2 1662   4.255   0.204   2.167
33277SOL     OW 1663  14.241   4.235   1.905
33277SOL    HW1 1664  14.236   4.180   1.984
33277SOL    HW2 1665  14.157   4.281   1.903
33278SOL     OW 1666  14.084   3.884   5.297
33278SOL    HW1 1667  14.001   3.905   5.255
33278SOL    HW2 1668  14.060   3.854   5.385
33279SOL     OW 1669   8.902  13.953   8.716
33279SOL    HW1 1670   8.816  13.962   8.757
33279SOL    HW2 1671   8.904  14.023   8.650
33280SOL     OW 1672  12.068  13.200   9.124
33280SOL    HW1 1673  12.017  13.281   9.124
33280SOL    HW2 1674  12.131  13.212   9.053
33281SOL     OW 1675   5.185   0.225   5.017
33281SOL    HW1 1676   5.213   0.179   5.095
33281SOL    HW2 1677   5.188   0.159   4.947
33282SOL     OW 1678  12.523   4.638  11.512
33282SOL    HW1 1679  12.567   4.665  11.432
33282SOL    HW2 1680  12.458   4.705  11.528
33283SOL     OW 1681   5.454  11.300   3.038
33283SOL    HW1 1682   5.452  11.291   2.942
33283SOL    HW2 1683   5.370  11.265   3.067
33284SOL     OW 1684  11.879  10.304  13.606
33284SOL    HW1 1685  11.789  10.283  13.631
33284SOL    HW2 1686  11.913  10.353  13.680
33285SOL     OW 1687   7.294   5.460   0.242
33285SOL    HW1 1688   7.221   5.399   0.246
33285SOL    HW2 1689   7.334   5.456   0.329
33286SOL     OW 1690  13.244  10.691   4.217
33286SOL    HW1 1691  13.175  10.707   4.281
33286SOL    HW2 1692  13.271  10.600   4.234
33287SOL     OW 1693   5.133  10.520   2.331
33287SOL    HW1 1694   5.114  10.577   2.257
33287SOL    HW2 1695   5.094  10.435   2.307
33288SOL     OW 1696   5.306   5.318   3.095
33288SOL    HW1 1697   5.225   5.307   3.145
33288SOL    HW2 1698   5.309   5.241   3.038
33289SOL     OW 1699   3.539   3.309   8.615
33289SOL    HW1 1700   3.590   3.267   8.547
33289SOL    HW2 1701   3.461   3.255   8.625
33290SOL     OW 1702   4.213   1.038  14.271
33290SOL    HW1 1703   4.151   1.097  14.314
33290SOL    HW2 1704   4.242   1.088  14.194
33291SOL     OW 1705   5.253  13.238   3.786
33291SOL    HW1 1706   5.196  13.315   3.785
33291SOL    HW2 1707   5.214  13.178   3.722
33292SOL     OW 1708   5.858   0.573  13.411
33292SOL    HW1 1709   5.923   0.510  13.442
33292SOL    HW2 1710   5.852   0.558  13.317
33293SOL     OW 1711   1.987  10.637  14.430
33293SOL    HW1 1712   1.952  10.604  14.348
33293SOL    HW2 1713   2.037  10.714  14.406
33294SOL     OW 1714   3.064  12.101   7.464
33294SOL    HW1 1715   3.159  12.109   7.456
33294SOL    HW2 1716   3.038  12.177   7.517
33295SOL     OW 1717  10.679  13.205   4.507
33295SOL    HW1 1718  10.607  13.231   4.563
33295SOL    HW2 1719  10.717  13.288   4.477
33296SOL     OW 1720  11.632  10.926  12.908
33296SOL    HW1 1721  11.615  10.889  12.822
33296SOL    HW2 1722  11.548  10.918  12.954
33297SOL     OW 1723   9.068  14.102   1.506
33297SOL    HW1 1724   9.147  14.064   1.545
33297SOL    HW2 1725   9.101  14.148   1.428
33298SOL     OW 1726   9.989  12.325   9.455
33298SOL    HW1 1727  10.079  12.294   9.445
33298SOL    HW2 1728   9.959  12.345   9.366
33299SOL     OW 1729   5.088   2.907  11.738
33299SOL    HW1 1730   5.147   2.921  11.812
33299SOL    HW2 1731   5.125   2.961  11.667
33300SOL     OW 1732   2.606   4.052   0.005
33300SOL    HW1 1733   2.634   4.142   0.021
33300SOL    HW2 1734   2.578   4.050  14.793
33301SOL     OW 1735   4.513   6.867   3.626
33301SOL    HW1 1736   4.608   6.857   3.627
33301SOL    HW2 1737   4.482   6.808   3.695
33302SOL     OW 1738   2.837   6.697  13.303
33302SOL    HW1 1739   2.801   6.760  13.364
33302SOL    HW2 1740   2.919   6.737  13.272
33303SOL     OW 1741   6.210  14.487   4.250
33303SOL    HW1 1742   6.121  14.483   4.285
33303SOL    HW2 1743   6.266  14.484   4.328
33304SOL     OW 1744   7.108   9.678  11.451
33304SOL    HW1 1745   7.089   9.621  11.525
33304SOL    HW2 1746   7.137   9.760  11.491
33305SOL     OW 1747  11.295  14.641   7.894
33305SOL    HW1 1748  11.387  14.641   7.866
33305SOL    HW2 1749  11.289  14.571   7.958
33306SOL     OW 1750  13.911   5.660   7.774
33306SOL    HW1 1751  13.878   5.609   7.699
33306SOL    HW2 1752  13.880   5.611   7.851
33307SOL     OW 1753  10.745  10.676   9.443
33307SOL    HW1 1754  10.708  10.744   9.387
33307SOL    HW2 1755  10.828  10.712   9.473
33308SOL     OW 1756   0.624   7.517  14.705
33308SOL    HW1 1757   0.645   7.462  14.781
33308SOL    HW2 1758   0.709   7.547  14.673
33309SOL     OW 1759  12.558  13.819   2.291
33309SOL    HW1 1760  12.525  13.729   2.285
33309SOL    HW2 1761  12.569  13.835   2.385
33310SOL     OW 1762  13.922   1.213   8.072
33310SOL    HW1 1763  13.849   1.227   8.012
33310SOL    HW2 1764  13.975   1.145   8.030
33311SOL     OW 1765   9.078   8.253  11.826
33311SOL    HW1 1766   9.123   8.303  11.758
33311SOL    HW2 1767   9.025   8.189  11.779
33312SOL     OW 1768   8.822   0.817   7.864
33312SOL    HW1 1769   8.873   0.788   7.939
33312SOL    HW2 1770   8.880   0.875   7.816
33313SOL     OW 1771   1.639   5.241   1.698
33313SOL    HW1 1772   1.688   5.211   1.622
33313SOL    HW2 1773   1.679   5.195   1.772
33314SOL     OW 1774   0.341   9.388   6.621
33314SOL    HW1 1775   0.414   9.401   6.681
33314SOL    HW2 1776   0.274   9.450   6.651
33315SOL     OW 1777   9.667   9.318   5.354
33315SOL    HW1 1778   9.685   9.345   5.444
33315SOL    HW2 1779   9.752   9.326   5.310
33316SOL     OW 1780   9.075  13.830   5.890
33316SOL    HW1 1781   9.132  13.829   5.967
33316SOL    HW2 1782   9.108  13.903   5.837
33317SOL     OW 1783  10.349   5.974  13.674
33317SOL    HW1 1784  10.317   6.024  13.749
33317SOL    HW2 1785  10.357   6.039  13.604
33318SOL     OW 1786   7.063   4.832  14.352
33318SOL    HW1 1787   7.014   4.751  14.367
33318SOL    HW2 1788   7.142   4.823  14.405
33319SOL     OW 1789  11.581  13.623   8.606
33319SOL    HW1 1790  11.527  13.702   8.606
33319SOL    HW2 1791  11.519  13.551   8.590
33320SOL     OW 1792   1.899   6.877   0.130
33320SOL    HW1 1793   1.861   6.961   0.155
33320SOL    HW2 1794   1.943   6.894   0.047
33321SOL     OW 1795   3.271  12.774   5.713
33321SOL    HW1 1796   3.322  12.813   5.784
33321SOL    HW2 1797   3.213  12.845   5.683
33322SOL     OW 1798   3.136   1.195   9.826
33322SOL    HW1 1799   3.154   1.272   9.881
33322SOL    HW2 1800   3.118   1.231   9.740
33323SOL     OW 1801   5.577  10.477   8.479
33323SOL    HW1 1802   5.661  10.452   8.440
33323SOL    HW2 1803   5.596  10.555   8.530
33324SOL     OW 1804   0.997  11.043   3.950
33324SOL    HW1 1805   0.926  11.048   4.014
33324SOL    HW2 1806   0.952  11.047   3.865
33325SOL     OW 1807  10.979   3.597   1.429
33325SOL    HW1 1808  10.998   3.518   1.479
33325SOL    HW2 1809  10.907   3.573   1.371
33326SOL     OW 1810   5.753   4.903   8.676
33326SOL    HW1 1811   5.840   4.937   8.699
33326SOL    HW2 1812   5.768   4.810   8.659
33327SOL     OW 1813   5.877   0.545   6.862
33327SOL    HW1 1814   5.894   0.574   6.772
33327SOL    HW2 1815   5.941   0.475   6.877
33328SOL     OW 1816   8.341   9.449   9.984
33328SOL    HW1 1817   8.289   9.408  10.053
33328SOL    HW2 1818   8.292   9.528   9.961
33329SOL     OW 1819   1.669   6.189   8.646
33329SOL    HW1 1820   1.580   6.162   8.666
33329SOL    HW2 1821   1.669   6.202   8.551
33330SOL     OW 1822  11.440   0.748   3.414
33330SOL    HW1 1823  11.400   0.834   3.406
33330SOL    HW2 1824  11.533   0.766   3.430
33331SOL     OW 1825   2.858   7.742   7.452
33331SOL    HW1 1826   2.948   7.733   7.422
33331SOL    HW2 1827   2.836   7.658   7.491
33332SOL     OW 1828   0.355  12.561   5.112
33332SOL    HW1 1829   0.391  12.480   5.075
33332SOL    HW2 1830   0.382  12.629   5.050
33333SOL     OW 1831   2.345   0.611   8.061
33333SOL    HW1 1832   2.272   0.668   8.085
33333SOL    HW2 1833   2.326   0.528   8.107
33334SOL     OW 1834   1.029   9.356   6.303
33334SOL    HW1 1835   0.941   9.384   6.276
33334SOL    HW2 1836   1.044   9.274   6.255
33335SOL     OW 1837  10.651  14.667   2.139
33335SOL    HW1 1838  10.697  14.658   2.056
33335SOL    HW2 1839  10.686  14.597   2.194
33336SOL     OW 1840  14.236   1.073   3.867
33336SOL    HW1 1841  14.213   1.105   3.780
33336SOL    HW2 1842  14.188   0.990   3.875
33337SOL     OW 1843  13.253  12.702  12.534
33337SOL    HW1 1844  13.275  12.711  12.441
33337SOL    HW2 1845  13.305  12.771  12.577
33338SOL     OW 1846  10.500   4.915  11.835
33338SOL    HW1 1847  10.405   4.928  11.835
33338SOL    HW2 1848  10.530   4.962  11.913
33339SOL     OW 1849   6.395  12.627   2.513
33339SOL    HW1 1850   6.316  12.587   2.477
33339SOL    HW2 1851   6.444  12.658   2.437
33340SOL     OW 1852  10.493  10.979   4.519
33340SOL    HW1 1853  10.515  11.070   4.539
33340SOL    HW2 1854  10.505  10.933   4.602
33341SOL     OW 1855   8.569   9.133   3.746
33341SOL    HW1 1856   8.550   9.222   3.715
33341SOL    HW2 1857   8.610   9.147   3.832
33342SOL     OW 1858  11.739   2.838   3.782
33342SOL    HW1 1859  11.782   2.923   3.770
33342SOL    HW2 1860  11.761   2.812   3.871
33343SOL     OW 1861   6.744   1.626   2.613
33343SOL    HW1 1862   6.824   1.578   2.596
33343SOL    HW2 1863   6.743   1.695   2.547
33344SOL     OW 1864  14.219   9.603   6.969
33344SOL    HW1 1865  14.175   9.590   6.885
33344SOL    HW2 1866  14.309   9.625   6.946
33345SOL     OW 1867   1.816   0.938  10.731
33345SOL    HW1 1868   1.846   1.014  10.682
33345SOL    HW2 1869   1.731   0.916  10.693
33346SOL     OW 1870   4.293   1.714   5.554
33346SOL    HW1 1871   4.232   1.707   5.481
33346SOL    HW2 1872   4.368   1.763   5.519
33347SOL     OW 1873  12.491  10.989  11.430
33347SOL    HW1 1874  12.445  10.905  11.421
33347SOL    HW2 1875  12.580  10.965  11.457
33348SOL     OW 1876  12.241   5.577   9.921
33348SOL    HW1 1877  12.209   5.539   9.839
33348SOL    HW2 1878  12.331   5.604   9.902
33349SOL     OW 1879  11.657   4.885   9.940
33349SOL    HW1 1880  11.585   4.945   9.958
33349SOL    HW2 1881  11.732   4.941   9.923
33350SOL     OW 1882   2.857  12.932  12.839
33350SOL    HW1 1883   2.771  12.891  12.833
33350SOL    HW2 1884   2.918  12.863  12.812
33351SOL     OW 1885  12.357   9.173   6.448
33351SOL    HW1 1886  12.350   9.133   6.534
33351SOL    HW2 1887  12.423   9.241   6.458
33352SOL     OW 1888  10.279   8.566  14.101
33352SOL    HW1 1889  10.259   8.473  14.113
33352SOL    HW2 1890  10.373   8.569  14.088
33353SOL     OW 1891   3.772  11.706   3.978
33353SOL    HW1 1892   3.739  11.742   4.060
33353SOL    HW2 1893   3.832  11.636   4.005
33354SOL     OW 1894   6.382  11.429   4.728
33354SOL    HW1 1895   6.352  11.506   4.680
33354SOL    HW2 1896   6.476  11.444   4.742
33355SOL     OW 1897   0.420  10.559  11.583
33355SOL    HW1 1898   0.350  10.522  11.637
33355SOL    HW2 1899   0.380  10.634  11.540
33356SOL     OW 1900  14.739  14.179  13.362
33356SOL    HW1 1901  14.740  14.256  13.419
33356SOL    HW2 1902  14.715  14.213  13.276
33357SOL     OW 1903   9.717  11.244   6.324
33357SOL    HW1 1904   9.686  11.159   6.355
33357SOL    HW2 1905   9.705  11.303   6.398
33358SOL     OW 1906  12.888   1.830  10.552
33358SOL    HW1 1907  12.938   1.860  10.628
33358SOL    HW2 1908  12.860   1.910  10.508
33359SOL     OW 1909   2.767   9.209   0.828
33359SOL    HW1 1910   2.679   9.171   0.826
33359SOL    HW2 1911   2.809   9.168   0.904
33360SOL     OW 1912   6.172  10.461   2.935
33360SOL    HW1 1913   6.211  10.384   2.976
33360SOL    HW2 1914   6.078  10.442   2.931
33361SOL     OW 1915   2.227  10.707   4.761
33361SOL    HW1 1916   2.168  10.665   4.698
33361SOL    HW2 1917   2.271  10.776   4.710
33362SOL     OW 1918  14.049   5.736   8.497
33362SOL    HW1 1919  14.120   5.729   8.561
33362SOL    HW2 1920  13.969   5.740   8.549
33363SOL     OW 1921   3.320   1.677  12.443
33363SOL    HW1 1922   3.268   1.677  12.363
33363SOL    HW2 1923   3.406   1.644  12.417
33364SOL     OW 1924  13.970   1.340   0.208
33364SOL    HW1 1925  14.041   1.281   0.232
33364SOL    HW2 1926  13.971   1.340   0.112
33365SOL     OW 1927   7.986   8.833   0.375
33365SOL    HW1 1928   7.985   8.782   0.457
33365SOL    HW2 1929   8.079   8.845   0.356
33366SOL     OW 1930  13.401   7.185   5.834
33366SOL    HW1 1931  13.429   7.113   5.777
33366SOL    HW2 1932  13.482   7.229   5.859
33367SOL     OW 1933  13.890   0.478   0.399
33367SOL    HW1 1934  13.852   0.391   0.409
33367SOL    HW2 1935  13.815   0.536   0.394
33368SOL     OW 1936   8.006  11.123   9.718
33368SOL    HW1 1937   8.071  11.155   9.656
33368SOL    HW2 1938   8.054  11.062   9.774
33369SOL     OW 1939  12.931   0.331   5.533
33369SOL    HW1 1940  12.913   0.242   5.566
33369SOL    HW2 1941  12.898   0.331   5.444
33370SOL     OW 1942  13.683   5.413  13.838
33370SOL    HW1 1943  13.640   5.485  13.885
33370SOL    HW2 1944  13.740   5.457  13.775
33371SOL     OW 1945  10.802   3.140  12.331
33371SOL    HW1 1946  10.885   3.110  12.369
33371SOL    HW2 1947  10.804   3.109  12.240
33372SOL     OW 1948   0.654  10.159   3.225
33372SOL    HW1 1949   0.732  10.188   3.176
33372SOL    HW2 1950   0.669  10.191   3.314
33373SOL     OW 1951   4.268   1.099  10.453
33373SOL    HW1 1952   4.353   1.085  10.413
33373SOL    HW2 1953   4.263   1.035  10.523
33374SOL     OW 1954  13.391   0.565   4.002
33374SOL    HW1 1955  13.414   0.475   3.978
33374SOL    HW2 1956  13.429   0.619   3.933
33375SOL     OW 1957   3.099   2.206   7.441
33375SOL    HW1 1958   3.112   2.145   7.369
33375SOL    HW2 1959   3.093   2.292   7.399
33376SOL     OW 1960   5.091   1.904   5.104
33376SOL    HW1 1961   5.177   1.863   5.099
33376SOL    HW2 1962   5.091   1.949   5.189
33377SOL     OW 1963   2.191   2.845   4.983
33377SOL    HW1 1964   2.155   2.790   4.913
33377SOL    HW2 1965   2.117   2.859   5.043
33378SOL     OW 1966   1.979   2.547   6.537
33378SOL    HW1 1967   2.044   2.539   6.467
33378SOL    HW2 1968   1.936   2.462   6.539
33379SOL     OW 1969   4.952   7.403   3.726
33379SOL    HW1 1970   4.882   7.372   3.783
33379SOL    HW2 1971   5.021   7.431   3.785
33380SOL     OW 1972   4.260  11.411   3.083
33380SOL    HW1 1973   4.203  11.487   3.071
33380SOL    HW2 1974   4.203  11.345   3.123
33381SOL     OW 1975   3.074   0.168  10.850
33381SOL    HW1 1976   2.992   0.123  10.869
33381SOL    HW2 1977   3.053   0.224  10.775
33382SOL     OW 1978   2.644   1.746   9.078
33382SOL    HW1 1979   2.729   1.733   9.120
33382SOL    HW2 1980   2.581   1.741   9.149
33383SOL     OW 1981   8.261   5.352  11.253
33383SOL    HW1 1982   8.345   5.360  11.299
33383SOL    HW2 1983   8.196   5.344  11.322
33384SOL     OW 1984  11.816  12.074  10.713
33384SOL    HW1 1985  11.836  12.163  10.684
33384SOL    HW2 1986  11.745  12.045  10.657
33385SOL     OW 1987   4.129   0.099  10.859
33385SOL    HW1 1988   4.201   0.160  10.876
33385SOL    HW2 1989   4.052   0.144  10.893
33386SOL     OW 1990   7.452   4.606  14.508
33386SOL    HW1 1991   7.471   4.688  14.553
33386SOL    HW2 1992   7.432   4.545  14.579
33387SOL     OW 1993  12.587   3.994   2.479
33387SOL    HW1 1994  12.608   4.067   2.538
33387SOL    HW2 1995  12.494   3.979   2.491
33388SOL     OW 1996   1.621   8.275   3.683
33388SOL    HW1 1997   1.643   8.182   3.686
33388SOL    HW2 1998   1.645   8.302   3.594
33389SOL     OW 1999   5.842  14.687   2.452
33389SOL    HW1 2000   5.914  14.626   2.466
33389SOL    HW2 2001   5.807  14.704   2.539
33390SOL     OW 2002   2.331   0.495   2.487
33390SOL    HW1 2003   2.410   0.448   2.513
33390SOL    HW2 2004   2.339   0.503   2.392
33391SOL     OW 2005  10.813   2.621   0.659
33391SOL    HW1 2006  10.872   2.664   0.721
33391SOL    HW2 2007  10.725   2.643   0.690
33392SOL     OW 2008  10.852   9.703   0.579
33392SOL    HW1 2009  10.820   9.612   0.579
33392SOL    HW2 2010  10.849   9.729   0.487
33393SOL     OW 2011   4.570   3.156   9.845
33393SOL    HW1 2012   4.555   3.233   9.898
33393SOL    HW2 2013   4.577   3.084   9.908
33394SOL     OW 2014   3.925   3.108   5.125
33394SOL    HW1 2015   3.866   3.037   5.153
33394SOL    HW2 2016   3.899   3.182   5.179
33395SOL     OW 2017   9.684   0.163   0.237
33395SOL    HW1 2018   9.748   0.137   0.170
33395SOL    HW2 2019   9.719   0.127   0.318
33396SOL     OW 2020  11.338   0.651   1.829
33396SOL    HW1 2021  11.344   0.586   1.759
33396SOL    HW2 2022  11.326   0.734   1.784
33397SOL     OW 2023   5.833   4.859  13.027
33397SOL    HW1 2024   5.780   4.891  12.955
33397SOL    HW2 2025   5.920   4.897  13.011
33398SOL     OW 2026  13.272   5.612  13.833
33398SOL    HW1 2027  13.183   5.627  13.802
33398SOL    HW2 2028  13.313   5.699  13.834
33399SOL     OW 2029   0.196  11.190  11.367
33399SOL    HW1 2030   0.122  11.174  11.309
33399SOL    HW2 2031   0.243  11.107  11.370
33400SOL     OW 2032   8.842  11.067   4.094
33400SOL    HW1 2033   8.784  11.114   4.034
33400SOL    HW2 2034   8.913  11.036   4.039
33401SOL     OW 2035   7.999  10.876   9.098
33401SOL    HW1 2036   8.073  10.937   9.106
33401SOL    HW2 2037   7.961  10.896   9.012
33402SOL     OW 2038   8.786   0.967   3.543
33402SOL    HW1 2039   8.700   0.940   3.574
33402SOL    HW2 2040   8.847   0.930   3.607
33403SOL     OW 2041  11.310   7.008  10.722
33403SOL    HW1 2042  11.331   6.923  10.681
33403SOL    HW2 2043  11.238   6.988  10.781
33404SOL     OW 2044  14.159   5.131  13.515
33404SOL    HW1 2045  14.220   5.100  13.448
33404SOL    HW2 2046  14.125   5.213  13.480
33405SOL     OW 2047   2.741   2.152   5.252
33405SOL    HW1 2048   2.693   2.101   5.318
33405SOL    HW2 2049   2.741   2.241   5.286
33406SOL     OW 2050   8.490  13.394  11.811
33406SOL    HW1 2051   8.562  13.339  11.843
33406SOL    HW2 2052   8.415  13.334  11.806
33407SOL     OW 2053   9.145   3.461   8.751
33407SOL    HW1 2054   9.237   3.458   8.776
33407SOL    HW2 2055   9.130   3.551   8.722
33408SOL     OW 2056   7.610  13.386  10.867
33408SOL    HW1 2057   7.517  13.392  10.885
33408SOL    HW2 2058   7.653  13.417  10.947
33409SOL     OW 2059   5.993   9.367   9.732
33409SOL    HW1 2060   5.949   9.421   9.797
33409SOL    HW2 2061   5.958   9.279   9.744
33410SOL     OW 2062   0.872   3.474   0.413
33410SOL    HW1 2063   0.801   3.493   0.353
33410SOL    HW2 2064   0.836   3.493   0.500
33411SOL     OW 2065   1.738   4.663  11.906
33411SOL    HW1 2066   1.752   4.572  11.932
33411SOL    HW2 2067   1.826   4.699  11.896
33412SOL     OW 2068   8.548   2.550   1.330
33412SOL    HW1 2069   8.532   2.622   1.391
33412SOL    HW2 2070   8.520   2.584   1.245
33413SOL     OW 2071  12.052   9.661   7.007
33413SOL    HW1 2072  12.089   9.574   7.027
33413SOL    HW2 2073  11.978   9.670   7.066
33414SOL     OW 2074   7.058   1.302   5.856
33414SOL    HW1 2075   7.004   1.275   5.930
33414SOL    HW2 2076   7.137   1.248   5.863
33415SOL     OW 2077   1.362   9.001  13.306
33415SOL    HW1 2078   1.391   9.005  13.397
33415SOL    HW2 2079   1.439   8.970  13.258
33416SOL     OW 2080   7.288   1.409  12.648
33416SOL    HW1 2081   7.260   1.344  12.584
33416SOL    HW2 2082   7.345   1.361  12.708
33417SOL     OW 2083  11.856  14.743   7.087
33417SOL    HW1 2084  11.886  14.655   7.111
33417SOL    HW2 2085  11.774  14.754   7.134
33418SOL     OW 2086   5.449   7.922  10.543
33418SOL    HW1 2087   5.373   7.979  10.541
33418SOL    HW2 2088   5.428   7.851  10.481
33419SOL     OW 2089  14.585  14.270   9.773
33419SOL    HW1 2090  14.569  14.345   9.716
33419SOL    HW2 2091  14.661  14.295   9.826
33420SOL     OW 2092   0.602   3.678   3.228
33420SOL    HW1 2093   0.587   3.706   3.318
33420SOL    HW2 2094   0.697   3.681   3.218
33421SOL     OW 2095   3.605  13.151   4.085
33421SOL    HW1 2096   3.617  13.196   4.169
33421SOL    HW2 2097   3.544  13.079   4.105
33422SOL     OW 2098   5.153  14.156   5.730
33422SOL    HW1 2099   5.147  14.166   5.825
33422SOL    HW2 2100   5.185  14.241   5.699
33423SOL     OW 2101  10.294  11.641   9.057
33423SOL    HW1 2102  10.255  11.563   9.096
33423SOL    HW2 2103  10.220  11.696   9.033
33424SOL     OW 2104   8.296   4.109   4.990
33424SOL    HW1 2105   8.332   4.175   5.049
33424SOL    HW2 2106   8.229   4.156   4.940
33425SOL     OW 2107   2.297  12.962  13.193
33425SOL    HW1 2108   2.384  12.926  13.209
33425SOL    HW2 2109   2.303  13.053  13.223
33426SOL     OW 2110   3.327   6.460   8.054
33426SOL    HW1 2111   3.368   6.389   8.102
33426SOL    HW2 2112   3.394   6.529   8.050
33427SOL     OW 2113  12.427   2.986  11.974
33427SOL    HW1 2114  12.350   3.042  11.988
33427SOL    HW2 2115  12.492   3.021  12.035
33428SOL     OW 2116  12.219   2.407   0.112
33428SOL    HW1 2117  12.140   2.360   0.139
33428SOL    HW2 2118  12.206   2.424   0.018
33429SOL     OW 2119   7.829   1.952   0.693
33429SOL    HW1 2120   7.800   1.897   0.766
33429SOL    HW2 2121   7.765   1.935   0.624
33430SOL     OW 2122  10.771  12.169   4.796
33430SOL    HW1 2123  10.772  12.073   4.805
33430SOL    HW2 2124  10.739  12.184   4.707
33431SOL     OW 2125  13.702   5.213   8.959
33431SOL    HW1 2126  13.629   5.260   9.000
33431SOL    HW2 2127  13.776   5.275   8.963
33432SOL     OW 2128   7.280   1.007  10.930
33432SOL    HW1 2129   7.325   0.965  10.857
33432SOL    HW2 2130   7.349   1.031  10.991
33433SOL     OW 2131  10.858   6.749   0.784
33433SOL    HW1 2132  10.783   6.713   0.831
33433SOL    HW2 2133  10.914   6.673   0.766
33434SOL     OW 2134   8.389   6.172   2.855
33434SOL    HW1 2135   8.318   6.113   2.832
33434SOL    HW2 2136   8.383   6.244   2.792
33435SOL     OW 2137  13.058   9.184  12.959
33435SOL    HW1 2138  13.057   9.230  13.043
33435SOL    HW2 2139  13.042   9.092  12.982
33436SOL     OW 2140  12.684   0.436  14.262
33436SOL    HW1 2141  12.737   0.358  14.275
33436SOL    HW2 2142  12.744   0.509  14.278
33437SOL     OW 2143  13.045  12.988  13.217
33437SOL    HW1 2144  12.961  13.027  13.194
33437SOL    HW2 2145  13.084  12.964  13.133
33438SOL     OW 2146   6.141  13.463  10.014
33438SOL    HW1 2147   6.204  13.509  10.069
33438SOL    HW2 2148   6.075  13.530   9.993
33439SOL     OW 2149  13.699   0.752   9.706
33439SOL    HW1 2150  13.744   0.799   9.776
33439SOL    HW2 2151  13.607   0.779   9.715
33440SOL     OW 2152  10.955   0.133  13.267
33440SOL    HW1 2153  10.995   0.178  13.341
33440SOL    HW2 2154  10.992   0.177  13.190
33441SOL     OW 2155   3.076   7.098   9.668
33441SOL    HW1 2156   2.997   7.103   9.615
33441SOL    HW2 2157   3.090   7.188   9.699
33442SOL     OW 2158   8.668  11.367  13.886
33442SOL    HW1 2159   8.679  11.303  13.956
33442SOL    HW2 2160   8.643  11.448  13.931
33443SOL     OW 2161   5.422   4.037  10.243
33443SOL    HW1 2162   5.359   4.105  10.219
33443SOL    HW2 2163   5.463   4.070  10.323
33444SOL     OW 2164   8.161   0.225   7.318
33444SOL    HW1 2165   8.241   0.177   7.337
33444SOL    HW2 2166   8.091   0.172   7.357
33445SOL     OW 2167   3.339   2.527  13.925
33445SOL    HW1 2168   3.317   2.435  13.935
33445SOL    HW2 2169   3.422   2.538  13.972
33446SOL     OW 2170   1.075   7.084  14.588
33446SOL    HW1 2171   1.132   7.157  14.615
33446SOL    HW2 2172   1.117   7.006  14.624
33447SOL     OW 2173  11.714  14.711   4.904
33447SOL    HW1 2174  11.665  14.738   4.826
33447SOL    HW2 2175  11.722  14.616   4.896
33448SOL     OW 2176   7.204   5.802   5.315
33448SOL    HW1 2177   7.207   5.845   5.400
33448SOL    HW2 2178   7.239   5.714   5.331
33449SOL     OW 2179   7.720  10.067  12.553
33449SOL    HW1 2180   7.762  10.052  12.638
33449SOL    HW2 2181   7.640  10.115  12.575
33450SOL     OW 2182   1.894   3.160   6.714
33450SOL    HW1 2183   1.921   3.136   6.802
33450SOL    HW2 2184   1.801   3.141   6.710
33451SOL     OW 2185   5.521   3.385  13.689
33451SOL    HW1 2186   5.607   3.350  13.669
33451SOL    HW2 2187   5.510   3.370  13.783
33452SOL     OW 2188   6.181  11.630   5.317
33452SOL    HW1 2189   6.147  11.709   5.273
33452SOL    HW2 2190   6.126  11.621   5.395
33453SOL     OW 2191  13.529   4.433  11.362
33453SOL    HW1 2192  13.600   4.497  11.367
33453SOL    HW2 2193  13.494   4.429  11.451
33454SOL     OW 2194  10.738  14.189   6.583
33454SOL    HW1 2195  10.744  14.197   6.678
33454SOL    HW2 2196  10.695  14.270   6.555
33455SOL     OW 2197   5.938   4.831  13.488
33455SOL    HW1 2198   5.984   4.786  13.416
33455SOL    HW2 2199   5.951   4.775  13.564
33456SOL     OW 2200   0.034   7.811  13.152
33456SOL    HW1 2201  14.849   7.873  13.188
33456SOL    HW2 2202   0.081   7.778  13.228
33457SOL     OW 2203   1.598  13.999   6.761
33457SOL    HW1 2204   1.615  14.035   6.848
33457SOL    HW2 2205   1.539  14.062   6.720
33458SOL     OW 2206  10.090   4.013   4.949
33458SOL    HW1 2207  10.051   4.098   4.969
33458SOL    HW2 2208  10.095   4.011   4.854
33459SOL     OW 2209   9.256   4.288  14.286
33459SOL    HW1 2210   9.347   4.316  14.302
33459SOL    HW2 2211   9.241   4.308  14.193
33460SOL     OW 2212   2.651   3.570   7.655
33460SOL    HW1 2213   2.642   3.662   7.629
33460SOL    HW2 2214   2.585   3.558   7.723
33461SOL     OW 2215  13.657   5.318   3.280
33461SOL    HW1 2216  13.603   5.366   3.343
33461SOL    HW2 2217  13.712   5.385   3.240
33462SOL     OW 2218   9.947   3.987   4.320
33462SOL    HW1 2219   9.900   4.051   4.266
33462SOL    HW2 2220   9.887   3.968   4.392
33463SOL     OW 2221   5.746  11.405  14.555
33463SOL    HW1 2222   5.723  11.313  14.565
33463SOL    HW2 2223   5.831  11.414  14.599
33464SOL     OW 2224   8.274   8.096   1.080
33464SOL    HW1 2225   8.209   8.083   1.010
33464SOL    HW2 2226   8.275   8.013   1.128
33465SOL     OW 2227   8.722  12.805   4.248
33465SOL    HW1 2228   8.771  12.815   4.167
33465SOL    HW2 2229   8.734  12.714   4.272
33466SOL     OW 2230   3.026   4.979   8.219
33466SOL    HW1 2231   3.040   4.892   8.183
33466SOL    HW2 2232   3.114   5.010   8.240
33467SOL     OW 2233   7.542  10.643   1.595
33467SOL    HW1 2234   7.621  10.610   1.553
33467SOL    HW2 2235   7.544  10.737   1.580
33468SOL     OW 2236   2.039   1.190   9.076
33468SOL    HW1 2237   1.948   1.209   9.053
33468SOL    HW2 2238   2.073   1.142   9.000
33469SOL     OW 2239   1.803   7.170   0.958
33469SOL    HW1 2240   1.823   7.144   1.048
33469SOL    HW2 2241   1.725   7.225   0.965
33470SOL     OW 2242   1.185   1.319   0.876
33470SOL    HW1 2243   1.152   1.229   0.865
33470SOL    HW2 2244   1.279   1.311   0.863
33471SOL     OW 2245   3.481   6.623   4.751
33471SOL    HW1 2246   3.570   6.615   4.786
33471SOL    HW2 2247   3.425   6.584   4.819
33472SOL     OW 2248  10.421   5.977   5.879
33472SOL    HW1 2249  10.489   6.003   5.816
33472SOL    HW2 2250  10.457   6.004   5.964
33473SOL     OW 2251   2.735   5.055  10.068
33473SOL    HW1 2252   2.821   5.013  10.072
33473SOL    HW2 2253   2.673   4.985  10.085
33474SOL     OW 2254   9.183   2.204   5.168
33474SOL    HW1 2255   9.201   2.122   5.122
33474SOL    HW2 2256   9.117   2.180   5.234
33475SOL     OW 2257  10.577   7.679   9.037
33475SOL    HW1 2258  10.556   7.659   8.946
33475SOL    HW2 2259  10.502   7.647   9.086
33476SOL     OW 2260   4.102   3.897   7.713
33476SOL    HW1 2261   4.171   3.837   7.741
33476SOL    HW2 2262   4.052   3.914   7.793
33477SOL     OW 2263   9.528   1.054   8.719
33477SOL    HW1 2264   9.497   1.144   8.715
33477SOL    HW2 2265   9.463   1.004   8.670
33478SOL     OW 2266   4.802   6.512   7.742
33478SOL    HW1 2267   4.830   6.595   7.781
33478SOL    HW2 2268   4.838   6.515   7.653
33479SOL     OW 2269   5.009   6.641   4.122
33479SOL    HW1 2270   4.971   6.612   4.039
33479SOL    HW2 2271   5.012   6.736   4.115
33480SOL     OW 2272   7.600   8.441   0.823
33480SOL    HW1 2273   7.554   8.524   0.807
33480SOL    HW2 2274   7.693   8.464   0.818
33481SOL     OW 2275   0.692   0.883   3.560
33481SOL    HW1 2276   0.645   0.854   3.639
33481SOL    HW2 2277   0.757   0.945   3.593
33482SOL     OW 2278  14.661  11.934   7.863
33482SOL    HW1 2279  14.732  11.980   7.817
33482SOL    HW2 2280  14.693  11.922   7.952
33483SOL     OW 2281  12.953   5.858   7.925
33483SOL    HW1 2282  12.951   5.767   7.895
33483SOL    HW2 2283  12.863   5.876   7.954
33484SOL     OW 2284  11.002   1.568  11.363
33484SOL    HW1 2285  10.962   1.556  11.449
33484SOL    HW2 2286  10.928   1.560  11.302
33485SOL     OW 2287   4.374  13.811  14.273
33485SOL    HW1 2288   4.420  13.727  14.280
33485SOL    HW2 2289   4.441  13.877  14.290
33486SOL     OW 2290  12.896   0.524  10.890
33486SOL    HW1 2291  12.840   0.561  10.958
33486SOL    HW2 2292  12.893   0.588  10.819
33487SOL     OW 2293  14.267  13.695   3.098
33487SOL    HW1 2294  14.292  13.760   3.033
33487SOL    HW2 2295  14.236  13.620   3.047
33488SOL     OW 2296   4.483   9.338   3.637
33488SOL    HW1 2297   4.554   9.276   3.619
33488SOL    HW2 2298   4.517   9.393   3.708
33489SOL     OW 2299  13.620   5.691   8.081
33489SOL    HW1 2300  13.550   5.661   8.139
33489SOL    HW2 2301  13.650   5.612   8.037
33490SOL     OW 2302   5.760   5.757   7.128
33490SOL    HW1 2303   5.772   5.847   7.160
33490SOL    HW2 2304   5.843   5.714   7.147
33491SOL     OW 2305   3.911  13.830   5.835
33491SOL    HW1 2306   3.843  13.873   5.783
33491SOL    HW2 2307   3.877  13.834   5.925
33492SOL     OW 2308   6.940   3.888   4.473
33492SOL    HW1 2309   6.910   3.957   4.531
33492SOL    HW2 2310   6.873   3.820   4.480
33493SOL     OW 2311  10.124   2.864   4.564
33493SOL    HW1 2312  10.146   2.903   4.649
33493SOL    HW2 2313  10.195   2.803   4.546
33494SOL     OW 2314   1.853  11.044   4.304
33494SOL    HW1 2315   1.857  11.069   4.396
33494SOL    HW2 2316   1.814  11.119   4.260
33495SOL     OW 2317   9.136  12.292   7.919
33495SOL    HW1 2318   9.090  12.222   7.873
33495SOL    HW2 2319   9.227  12.282   7.893
33496SOL     OW 2320   2.561  11.669   0.866
33496SOL    HW1 2321   2.540  11.626   0.783
33496SOL    HW2 2322   2.657  11.677   0.865
33497SOL     OW 2323   7.092  13.015  10.370
33497SOL    HW1 2324   7.089  13.111  10.367
33497SOL    HW2 2325   7.172  12.992  10.322
33498SOL     OW 2326   5.880   5.557   9.975
33498SOL    HW1 2327   5.899   5.488   9.911
33498SOL    HW2 2328   5.852   5.632   9.922
33499SOL     OW 2329   1.203   6.340   8.500
33499SOL    HW1 2330   1.279   6.366   8.450
33499SOL    HW2 2331   1.154   6.421   8.515
33500SOL     OW 2332   1.034  14.216   0.225
33500SOL    HW1 2333   0.997  14.151   0.285
33500SOL    HW2 2334   1.100  14.167   0.175
33501SOL     OW 2335   9.842  10.492   0.736
33501SOL    HW1 2336   9.892  10.473   0.656
33501SOL    HW2 2337   9.797  10.409   0.756
33502SOL     OW 2338  13.047   4.898   6.034
33502SOL    HW1 2339  13.115   4.835   6.058
33502SOL    HW2 2340  12.967   4.845   6.027
33503SOL     OW 2341   6.904   3.215  11.690
33503SOL    HW1 2342   6.917   3.144  11.753
33503SOL    HW2 2343   6.988   3.261  11.690
33504SOL     OW 2344  12.557   1.789   1.834
33504SOL    HW1 2345  12.524   1.726   1.898
33504SOL    HW2 2346  12.494   1.785   1.762
33505SOL     OW 2347  10.312  13.468   4.788
33505SOL    HW1 2348  10.330  13.544   4.843
33505SOL    HW2 2349  10.285  13.505   4.704
33506SOL     OW 2350   1.874   6.272   1.821
33506SOL    HW1 2351   1.962   6.247   1.851
33506SOL    HW2 2352   1.872   6.367   1.831
33507SOL     OW 2353  10.422   5.544   7.573
33507SOL    HW1 2354  10.362   5.587   7.633
33507SOL    HW2 2355  10.445   5.461   7.615
33508SOL     OW 2356   2.446   6.415   6.021
33508SOL    HW1 2357   2.541   6.421   6.010
33508SOL    HW2 2358   2.426   6.322   6.011
33509SOL     OW 2359  10.831  13.488   0.188
33509SOL    HW1 2360  10.793  13.421   0.245
33509SOL    HW2 2361  10.757  13.543   0.164
33510SOL     OW 2362   2.935   7.409  10.913
33510SOL    HW1 2363   3.024   7.424  10.945
33510SOL    HW2 2364   2.893   7.359  10.983
33511SOL     OW 2365   7.529   7.145   3.603
33511SOL    HW1 2366   7.572   7.159   3.688
33511SOL    HW2 2367   7.572   7.066   3.568
33512SOL     OW 2368   1.899  13.482   6.011
33512SOL    HW1 2369   1.879  13.539   5.937
33512SOL    HW2 2370   1.850  13.519   6.084
33513SOL     OW 2371   4.962   1.296   5.738
33513SOL    HW1 2372   4.969   1.348   5.818
33513SOL    HW2 2373   4.889   1.236   5.755
33514SOL     OW 2374   6.194   1.948   8.308
33514SOL    HW1 2375   6.272   1.958   8.253
33514SOL    HW2 2376   6.227   1.946   8.397
33515SOL     OW 2377   2.287   0.312   5.774
33515SOL    HW1 2378   2.227   0.247   5.739
33515SOL    HW2 2379   2.285   0.299   5.868
33516SOL     OW 2380   8.356   3.371   0.278
33516SOL    HW1 2381   8.287   3.437   0.271
33516SOL    HW2 2382   8.310   3.288   0.291
33517SOL     OW 2383   1.218  14.474   1.281
33517SOL    HW1 2384   1.166  14.416   1.225
33517SOL    HW2 2385   1.266  14.529   1.220
33518SOL     OW 2386  13.785   4.167   5.719
33518SOL    HW1 2387  13.729   4.151   5.643
33518SOL    HW2 2388  13.871   4.184   5.682
33519SOL     OW 2389  12.367   3.271   2.621
33519SOL    HW1 2390  12.356   3.330   2.696
33519SOL    HW2 2391  12.277   3.253   2.592
33520SOL     OW 2392   1.375  10.912   1.990
33520SOL    HW1 2393   1.308  10.907   2.058
33520SOL    HW2 2394   1.396  11.005   1.983
33521SOL     OW 2395  10.196   8.679  14.714
33521SOL    HW1 2396  10.124   8.737  14.691
33521SOL    HW2 2397  10.264   8.736  14.749
33522SOL     OW 2398   5.319   5.848   1.256
33522SOL    HW1 2399   5.355   5.842   1.167
33522SOL    HW2 2400   5.337   5.762   1.295
33523SOL     OW 2401   7.348   4.806   9.179
33523SOL    HW1 2402   7.262   4.778   9.209
33523SOL    HW2 2403   7.397   4.826   9.259
33524SOL     OW 2404  11.402   5.480   0.259
33524SOL    HW1 2405  11.350   5.486   0.339
33524SOL    HW2 2406  11.391   5.566   0.218
33525SOL     OW 2407   3.279   5.623  14.518
33525SOL    HW1 2408   3.187   5.651  14.523
33525SOL    HW2 2409   3.292   5.571  14.598
33526SOL     OW 2410   5.653  12.721   8.721
33526SOL    HW1 2411   5.593  12.711   8.795
33526SOL    HW2 2412   5.622  12.656   8.657
33527SOL     OW 2413   6.520  12.367  12.544
33527SOL    HW1 2414   6.461  12.344  12.472
33527SOL    HW2 2415   6.553  12.454  12.521
33528SOL     OW 2416  12.260   1.010   5.709
33528SOL    HW1 2417  12.253   1.067   5.785
33528SOL    HW2 2418  12.299   0.929   5.743
33529SOL     OW 2419   3.501   4.329   6.953
33529SOL    HW1 2420   3.458   4.384   6.887
33529SOL    HW2 2421   3.565   4.387   6.994
33530SOL     OW 2422  11.936  12.978   8.336
33530SOL    HW1 2423  12.006  12.970   8.271
33530SOL    HW2 2424  11.859  13.002   8.285
33531SOL     OW 2425  12.768   7.995   1.308
33531SOL    HW1 2426  12.742   7.904   1.312
33531SOL    HW2 2427  12.861   7.992   1.283
33532SOL     OW 2428   9.960  14.514   6.018
33532SOL    HW1 2429  10.021  14.530   6.090
33532SOL    HW2 2430   9.879  14.485   6.061
33533SOL     OW 2431   6.839   1.400   8.009
33533SOL    HW1 2432   6.924   1.437   8.035
33533SOL    HW2 2433   6.841   1.310   8.042
33534SOL     OW 2434   6.544  13.142   3.335
33534SOL    HW1 2435   6.510  13.231   3.337
33534SOL    HW2 2436   6.637  13.151   3.357
33535SOL     OW 2437   8.607   6.891   5.126
33535SOL    HW1 2438   8.519   6.875   5.090
33535SOL    HW2 2439   8.597   6.969   5.180
33536SOL     OW 2440   0.354  11.077   3.919
33536SOL    HW1 2441   0.441  11.117   3.918
33536SOL    HW2 2442   0.296  11.145   3.951
33537SOL     OW 2443   0.587   8.425   9.129
33537SOL    HW1 2444   0.545   8.365   9.068
33537SOL    HW2 2445   0.623   8.494   9.074
33538SOL     OW 2446   4.892   3.790   4.122
33538SOL    HW1 2447   4.806   3.829   4.105
33538SOL    HW2 2448   4.879   3.696   4.110
33539SOL     OW 2449  12.358   7.585   7.153
33539SOL    HW1 2450  12.401   7.503   7.178
33539SOL    HW2 2451  12.285   7.593   7.214
33540SOL     OW 2452   9.735  11.619   4.675
33540SOL    HW1 2453   9.830  11.626   4.669
33540SOL    HW2 2454   9.703  11.692   4.621
33541SOL     OW 2455   1.562   3.713   5.409
33541SOL    HW1 2456   1.647   3.673   5.392
33541SOL    HW2 2457   1.500   3.640   5.402
33542SOL     OW 2458  12.877   5.834  11.092
33542SOL    HW1 2459  12.890   5.798  11.004
33542SOL    HW2 2460  12.964   5.865  11.119
33543SOL     OW 2461  14.086   7.762   7.535
33543SOL    HW1 2462  13.993   7.753   7.517
33543SOL    HW2 2463  14.127   7.692   7.485
33544SOL     OW 2464  13.193   8.788   5.948
33544SOL    HW1 2465  13.207   8.695   5.934
33544SOL    HW2 2466  13.136   8.815   5.876
33545SOL     OW 2467  12.753   1.802   8.884
33545SOL    HW1 2468  12.710   1.726   8.845
33545SOL    HW2 2469  12.729   1.800   8.976
33546SOL     OW 2470   0.019  12.820   8.847
33546SOL    HW1 2471   0.022  12.773   8.764
33546SOL    HW2 2472  14.838  12.893   8.830
33547SOL     OW 2473   6.028   8.802   8.578
33547SOL    HW1 2474   6.015   8.895   8.560
33547SOL    HW2 2475   6.055   8.798   8.670
33548SOL     OW 2476   8.673   6.821  11.924
33548SOL    HW1 2477   8.617   6.813  11.847
33548SOL    HW2 2478   8.657   6.741  11.974
33549SOL     OW 2479   2.384   1.279   0.148
33549SOL    HW1 2480   2.306   1.254   0.198
33549SOL    HW2 2481   2.407   1.366   0.183
33550SOL     OW 2482   7.796   9.720  12.504
33550SOL    HW1 2483   7.850   9.669  12.443
33550SOL    HW2 2484   7.751   9.784  12.450
33551SOL     OW 2485  14.065   2.033   2.560
33551SOL    HW1 2486  14.093   2.111   2.608
33551SOL    HW2 2487  14.145   1.981   2.549
33552SOL     OW 2488  13.018   8.207   3.170
33552SOL    HW1 2489  12.976   8.251   3.096
33552SOL    HW2 2490  13.105   8.184   3.137
33553SOL     OW 2491   4.389  10.671  14.726
33553SOL    HW1 2492   4.438  10.637  14.801
33553SOL    HW2 2493   4.311  10.711  14.764
33554SOL     OW 2494   0.286   4.351   2.774
33554SOL    HW1 2495   0.339   4.296   2.715
33554SOL    HW2 2496   0.339   4.429   2.787
33555SOL     OW 2497   0.649   5.204   6.533
33555SOL    HW1 2498   0.560   5.235   6.547
33555SOL    HW2 2499   0.691   5.272   6.481
33556SOL     OW 2500   3.717  10.353   3.524
33556SOL    HW1 2501   3.638  10.332   3.573
33556SOL    HW2 2502   3.734  10.275   3.470
33557SOL     OW 2503   5.547   5.227   5.542
33557SOL    HW1 2504   5.592   5.183   5.470
33557SOL    HW2 2505   5.500   5.158   5.587
33558SOL     OW 2506  12.563   3.908   2.223
33558SOL    HW1 2507  12.632   3.846   2.201
33558SOL    HW2 2508  12.594   3.950   2.304
33559SOL     OW 2509  12.359  10.952   1.404
33559SOL    HW1 2510  12.339  10.990   1.489
33559SOL    HW2 2511  12.357  10.857   1.418
33560SOL     OW 2512  13.008  10.718   1.995
33560SOL    HW1 2513  12.925  10.692   1.955
33560SOL    HW2 2514  13.017  10.811   1.973
33561SOL     OW 2515   1.928   9.563  11.970
33561SOL    HW1 2516   1.904   9.509  11.895
33561SOL    HW2 2517   2.018   9.589  11.954
33562SOL     OW 2518   7.525  14.058   7.669
33562SOL    HW1 2519   7.540  13.968   7.699
33562SOL    HW2 2520   7.550  14.057   7.577
33563SOL     OW 2521   3.490   0.231  13.899
33563SOL    HW1 2522   3.442   0.207  13.820
33563SOL    HW2 2523   3.579   0.248  13.869
33564SOL     OW 2524  13.742   0.828   6.207
33564SOL    HW1 2525  13.695   0.784   6.277
33564SOL    HW2 2526  13.835   0.816   6.228
33565SOL     OW 2527   2.423   8.531   4.303
33565SOL    HW1 2528   2.511   8.495   4.311
33565SOL    HW2 2529   2.437   8.625   4.290
33566SOL     OW 2530   0.272  11.078  10.627
33566SOL    HW1 2531   0.354  11.031  10.643
33566SOL    HW2 2532   0.228  11.028  10.558
33567SOL     OW 2533   0.809  10.006   4.173
33567SOL    HW1 2534   0.744   9.946   4.208
33567SOL    HW2 2535   0.766  10.048   4.099
33568SOL     OW 2536   9.222   3.003  14.434
33568SOL    HW1 2537   9.223   3.092  14.468
33568SOL    HW2 2538   9.230   3.015  14.339
33569SOL     OW 2539   3.116   1.026   7.096
33569SOL    HW1 2540   3.170   1.053   7.022
33569SOL    HW2 2541   3.094   0.935   7.078
33570SOL     OW 2542  14.229  11.006   4.684
33570SOL    HW1 2543  14.154  11.051   4.645
33570SOL    HW2 2544  14.211  10.913   4.669
33571SOL     OW 2545   5.163  11.314  13.917
33571SOL    HW1 2546   5.069  11.299  13.915
33571SOL    HW2 2547   5.197  11.270  13.839
33572SOL     OW 2548  12.903  10.855   9.122
33572SOL    HW1 2549  12.975  10.796   9.145
33572SOL    HW2 2550  12.850  10.859   9.202
33573SOL     OW 2551  10.122   0.169   7.747
33573SOL    HW1 2552  10.068   0.174   7.668
33573SOL    HW2 2553  10.060   0.182   7.819
33574SOL     OW 2554   7.035   5.235  14.006
33574SOL    HW1 2555   7.094   5.306  14.033
33574SOL    HW2 2556   7.039   5.172  14.078
33575SOL     OW 2557   5.537   4.952   5.633
33575SOL    HW1 2558   5.604   4.988   5.691
33575SOL    HW2 2559   5.585   4.893   5.575
33576SOL     OW 2560  10.684   1.016   9.417
33576SOL    HW1 2561  10.662   0.935   9.463
33576SOL    HW2 2562  10.760   1.050   9.463
33577SOL     OW 2563   2.531   0.679   5.317
33577SOL    HW1 2564   2.490   0.727   5.244
33577SOL    HW2 2565   2.615   0.723   5.330
33578SOL     OW 2566   8.991   1.060   9.071
33578SOL    HW1 2567   9.055   1.096   9.132
33578SOL    HW2 2568   8.906   1.081   9.111
33579SOL     OW 2569   5.904   9.811   4.850
33579SOL    HW1 2570   5.904   9.774   4.938
33579SOL    HW2 2571   5.947   9.746   4.796
33580SOL     OW 2572   3.992  12.720   6.505
33580SOL    HW1 2573   3.986  12.719   6.410
33580SOL    HW2 2574   4.044  12.642   6.527
33581SOL     OW 2575  12.615   0.997   1.507
33581SOL    HW1 2576  12.636   1.065   1.571
33581SOL    HW2 2577  12.610   0.916   1.559
33582SOL     OW 2578   0.760   9.222  12.070
33582SOL    HW1 2579   0.780   9.144  12.121
33582SOL    HW2 2580   0.724   9.188  11.987
33583SOL     OW 2581   0.957  10.146   9.158
33583SOL    HW1 2582   0.882  10.089   9.141
33583SOL    HW2 2583   1.032  10.096   9.127
33584SOL     OW 2584   1.546  11.158  11.712
33584SOL    HW1 2585   1.475  11.097  11.689
33584SOL    HW2 2586   1.601  11.161  11.634
33585SOL     OW 2587  10.450  11.792  12.310
33585SOL    HW1 2588  10.453  11.696  12.316
33585SOL    HW2 2589  10.472  11.822  12.398
33586SOL     OW 2590  14.377   8.563   8.155
33586SOL    HW1 2591  14.322   8.544   8.079
33586SOL    HW2 2592  14.382   8.658   8.158
33587SOL     OW 2593   1.821   1.720  14.643
33587SOL    HW1 2594   1.811   1.741  14.736
33587SOL    HW2 2595   1.916   1.711  14.630
33588SOL     OW 2596  13.514   3.064   8.107
33588SOL    HW1 2597  13.599   3.076   8.149
33588SOL    HW2 2598  13.498   3.146   8.060
33589SOL     OW 2599   1.097   1.754   9.356
33589SOL    HW1 2600   1.017   1.725   9.400
33589SOL    HW2 2601   1.078   1.844   9.330
33590SOL     OW 2602  11.802   8.176   7.310
33590SOL    HW1 2603  11.789   8.244   7.244
33590SOL    HW2 2604  11.726   8.118   7.300
33591SOL     OW 2605  11.469   6.163  12.967
33591SOL    HW1 2606  11.389   6.112  12.985
33591SOL    HW2 2607  11.492   6.138  12.877
33592SOL     OW 2608   2.818   4.378   7.457
33592SOL    HW1 2609   2.879   4.450   7.473
33592SOL    HW2 2610   2.873   4.307   7.423
33593SOL     OW 2611  11.143  14.820   5.327
33593SOL    HW1 2612  11.110  14.802   5.415
33593SOL    HW2 2613  11.119  14.742   5.277
33594SOL     OW 2614  10.771  11.496   1.470
33594SOL    HW1 2615  10.694  11.463   1.423
33594SOL    HW2 2616  10.737  11.519   1.557
33595SOL     OW 2617   4.683  14.206   6.464
33595SOL    HW1 2618   4.725  14.279   6.418
33595SOL    HW2 2619   4.625  14.248   6.528
33596SOL     OW 2620   5.415   3.163   4.761
33596SOL    HW1 2621   5.370   3.112   4.694
33596SOL    HW2 2622   5.501   3.182   4.723
33597SOL     OW 2623  14.014  13.039   0.021
33597SOL    HW1 2624  14.080  13.105   0.003
33597SOL    HW2 2625  14.063  12.963   0.051
33598SOL     OW 2626   9.402   0.761   0.638
33598SOL    HW1 2627   9.415   0.732   0.548
33598SOL    HW2 2628   9.332   0.706   0.672
33599SOL     OW 2629   9.012  11.778   5.280
33599SOL    HW1 2630   8.980  11.690   5.301
33599SOL    HW2 2631   9.088  11.789   5.338
33600SOL     OW 2632   2.151   9.982   6.911
33600SOL    HW1 2633   2.120   9.954   6.997
33600SOL    HW2 2634   2.093  10.055   6.887
33601SOL     OW 2635   1.280   4.532  12.291
33601SOL    HW1 2636   1.302   4.516  12.199
33601SOL    HW2 2637   1.245   4.449  12.322
33602SOL     OW 2638   9.106   9.519   9.511
33602SOL    HW1 2639   9.180   9.460   9.522
33602SOL    HW2 2640   9.073   9.533   9.599
33603SOL     OW 2641  14.874   4.881  13.623
33603SOL    HW1 2642  14.812   4.953  13.622
33603SOL    HW2 2643   0.066   4.910  13.565
33604SOL     OW 2644  10.971   8.301   0.637
33604SOL    HW1 2645  10.896   8.269   0.688
33604SOL    HW2 2646  11.001   8.225   0.588
33605SOL     OW 2647   6.634   0.345   4.727
33605SOL    HW1 2648   6.678   0.264   4.754
33605SOL    HW2 2649   6.702   0.396   4.684
33606SOL     OW 2650   6.332   8.254  14.663
33606SOL    HW1 2651   6.406   8.278  14.608
33606SOL    HW2 2652   6.368   8.257  14.752
33607SOL     OW 2653   4.301  12.855   5.193
33607SOL    HW1 2654   4.353  12.785   5.154
33607SOL    HW2 2655   4.363  12.905   5.245
33608SOL     OW 2656   3.083   1.852  14.674
33608SOL    HW1 2657   3.126   1.833  14.590
33608SOL    HW2 2658   3.038   1.935  14.659
33609SOL     OW 2659   1.355   4.753   0.869
33609SOL    HW1 2660   1.416   4.826   0.878
33609SOL    HW2 2661   1.344   4.721   0.959
33610SOL     OW 2662   6.753  13.149  12.106
33610SOL    HW1 2663   6.659  13.167  12.098
33610SOL    HW2 2664   6.774  13.099  12.027
33611SOL     OW 2665  14.745   9.049   7.487
33611SOL    HW1 2666  14.743   9.038   7.392
33611SOL    HW2 2667  14.666   9.100   7.507
33612SOL     OW 2668   9.700   1.181   0.850
33612SOL    HW1 2669   9.709   1.129   0.770
33612SOL    HW2 2670   9.623   1.144   0.894
33613SOL     OW 2671   7.750   5.877   6.397
33613SOL    HW1 2672   7.744   5.968   6.429
33613SOL    HW2 2673   7.698   5.876   6.317
33614SOL     OW 2674   0.738   2.893   0.978
33614SOL    HW1 2675   0.730   2.932   1.064
33614SOL    HW2 2676   0.690   2.952   0.919
33615SOL     OW 2677   1.366  10.775  14.493
33615SOL    HW1 2678   1.323  10.694  14.466
33615SOL    HW2 2679   1.431  10.791  14.425
33616SOL     OW 2680  14.636  12.024  14.477
33616SOL    HW1 2681  14.584  11.944  14.487
33616SOL    HW2 2682  14.645  12.035  14.382
33617SOL     OW 2683   8.609   4.172  14.831
33617SOL    HW1 2684   8.570   4.167   0.039
33617SOL    HW2 2685   8.558   4.239  14.786
33618SOL     OW 2686  14.331   2.201  13.136
33618SOL    HW1 2687  14.350   2.230  13.226
33618SOL    HW2 2688  14.288   2.116  13.148
33619SOL     OW 2689   9.056   1.797  12.897
33619SOL    HW1 2690   9.016   1.712  12.879
33619SOL    HW2 2691   9.047   1.808  12.991
33620SOL     OW 2692   5.524   3.328  10.542
33620SOL    HW1 2693   5.522   3.411  10.590
33620SOL    HW2 2694   5.520   3.261  10.611
33621SOL     OW 2695   9.483   9.002   9.482
33621SOL    HW1 2696   9.396   8.997   9.523
33621SOL    HW2 2697   9.539   9.039   9.549
33622SOL     OW 2698   6.415   4.270   3.645
33622SOL    HW1 2699   6.462   4.295   3.566
33622SOL    HW2 2700   6.405   4.351   3.694
33623SOL     OW 2701   1.958   7.791   1.982
33623SOL    HW1 2702   1.966   7.880   1.947
33623SOL    HW2 2703   1.928   7.804   2.073
33624SOL     OW 2704  11.798   2.998  12.072
33624SOL    HW1 2705  11.775   2.907  12.090
33624SOL    HW2 2706  11.719   3.035  12.032
33625SOL     OW 2707   5.335   4.593   9.983
33625SOL    HW1 2708   5.414   4.648   9.979
33625SOL    HW2 2709   5.290   4.610   9.901
33626SOL     OW 2710   2.620   9.924   7.058
33626SOL    HW1 2711   2.637   9.996   6.998
33626SOL    HW2 2712   2.706   9.902   7.093
33627SOL     OW 2713   4.928   0.026   7.215
33627SOL    HW1 2714   4.926   0.002   7.308
33627SOL    HW2 2715   4.869  14.841   7.174
33628SOL     OW 2716  11.561   8.055   7.270
33628SOL    HW1 2717  11.490   8.040   7.207
33628SOL    HW2 2718  11.525   8.119   7.331
33629SOL     OW 2719   3.823  10.064   9.274
33629SOL    HW1 2720   3.779  10.062   9.189
33629SOL    HW2 2721   3.833   9.972   9.297
33630SOL     OW 2722  11.604  13.376   1.891
33630SOL    HW1 2723  11.619  13.318   1.817
33630SOL    HW2 2724  11.685  13.426   1.899
33631SOL     OW 2725   6.182  12.229   4.401
33631SOL    HW1 2726   6.131  12.149   4.414
33631SOL    HW2 2727   6.248  12.227   4.470
33632SOL     OW 2728  10.043   3.698   0.826
33632SOL    HW1 2729  10.134   3.674   0.806
33632SOL    HW2 2730  10.012   3.629   0.885
33633SOL     OW 2731  10.775  11.807  11.740
33633SOL    HW1 2732  10.708  11.875  11.728
33633SOL    HW2 2733  10.726  11.725  11.744
33634SOL     OW 2734   0.542  13.289   9.551
33634SOL    HW1 2735   0.521  13.381   9.569
33634SOL    HW2 2736   0.605  13.292   9.479
33635SOL     OW 2737  14.455   5.239   3.093
33635SOL    HW1 2738  14.463   5.176   3.023
33635SOL    HW2 2739  14.545   5.254   3.124
33636SOL     OW 2740  11.804   5.613   9.547
33636SOL    HW1 2741  11.810   5.677   9.476
33636SOL    HW2 2742  11.735   5.553   9.519
33637SOL     OW 2743   3.436  12.566  14.572
33637SOL    HW1 2744   3.377  12.639  14.553
33637SOL    HW2 2745   3.522  12.595  14.542
33638SOL     OW 2746   4.041   8.894  13.309
33638SOL    HW1 2747   4.038   8.988  13.330
33638SOL    HW2 2748   4.060   8.891  13.215
33639SOL     OW 2749  13.517   6.575   0.864
33639SOL    HW1 2750  13.565   6.503   0.906
33639SOL    HW2 2751  13.543   6.570   0.772
33640SOL     OW 2752  10.998   0.236  12.189
33640SOL    HW1 2753  10.968   0.324  12.169
33640SOL    HW2 2754  11.086   0.248  12.225
33641SOL     OW 2755  12.489  13.345   2.250
33641SOL    HW1 2756  12.443  13.268   2.218
33641SOL    HW2 2757  12.477  13.411   2.182
33642SOL     OW 2758  14.825  11.504   4.396
33642SOL    HW1 2759   0.010  11.547   4.453
33642SOL    HW2 2760  14.849  11.530   4.308
33643SOL     OW 2761   0.808   4.826  13.606
33643SOL    HW1 2762   0.859   4.834  13.687
33643SOL    HW2 2763   0.832   4.741  13.570
33644SOL     OW 2764   6.178  13.561  11.488
33644SOL    HW1 2765   6.176  13.652  11.457
33644SOL    HW2 2766   6.090  13.546  11.523
33645SOL     OW 2767   9.963   1.757  10.380
33645SOL    HW1 2768   9.989   1.705  10.456
33645SOL    HW2 2769   9.909   1.697  10.328
33646SOL     OW 2770  10.416   7.865   9.294
33646SOL    HW1 2771  10.416   7.896   9.385
33646SOL    HW2 2772  10.407   7.945   9.242
33647SOL     OW 2773   9.333   5.757   7.339
33647SOL    HW1 2774   9.248   5.797   7.319
33647SOL    HW2 2775   9.392   5.793   7.272
33648SOL     OW 2776   2.150   7.882   9.554
33648SOL    HW1 2777   2.175   7.792   9.533
33648SOL    HW2 2778   2.116   7.916   9.471
33649SOL     OW 2779   8.193   9.166   8.569
33649SOL    HW1 2780   8.222   9.077   8.589
33649SOL    HW2 2781   8.184   9.208   8.654
33650SOL     OW 2782  11.193   1.158   3.899
33650SOL    HW1 2783  11.146   1.179   3.980
33650SOL    HW2 2784  11.266   1.103   3.928
33651SOL     OW 2785  10.456   7.080   5.668
33651SOL    HW1 2786  10.368   7.047   5.647
33651SOL    HW2 2787  10.465   7.065   5.762
33652SOL     OW 2788  14.776   1.277  11.764
33652SOL    HW1 2789  14.697   1.326  11.788
33652SOL    HW2 2790  14.831   1.342  11.720
33653SOL     OW 2791  11.688   6.346  13.683
33653SOL    HW1 2792  11.779   6.320  13.696
33653SOL    HW2 2793  11.681   6.430  13.728
33654SOL     OW 2794   9.797   0.586  13.179
33654SOL    HW1 2795   9.853   0.633  13.241
33654SOL    HW2 2796   9.857   0.549  13.115
33655SOL     OW 2797   6.517   8.650   0.536
33655SOL    HW1 2798   6.464   8.575   0.563
33655SOL    HW2 2799   6.454   8.716   0.507
33656SOL     OW 2800  12.188   8.470   5.059
33656SOL    HW1 2801  12.145   8.472   4.973
33656SOL    HW2 2802  12.165   8.384   5.095
33657SOL     OW 2803   7.656   1.656  14.519
33657SOL    HW1 2804   7.683   1.576  14.474
33657SOL    HW2 2805   7.704   1.726  14.475
33658SOL     OW 2806  11.492   0.610   4.705
33658SOL    HW1 2807  11.521   0.564   4.626
33658SOL    HW2 2808  11.443   0.685   4.673
33659SOL     OW 2809   1.222   2.163  10.215
33659SOL    HW1 2810   1.156   2.118  10.162
33659SOL    HW2 2811   1.243   2.101  10.285
33660SOL     OW 2812   9.616  12.569   2.448
33660SOL    HW1 2813   9.535  12.563   2.499
33660SOL    HW2 2814   9.650  12.656   2.467
33661SOL     OW 2815  14.627   6.271  12.458
33661SOL    HW1 2816  14.673   6.232  12.384
33661SOL    HW2 2817  14.562   6.206  12.483
33662SOL     OW 2818   5.106  10.285  11.571
33662SOL    HW1 2819   5.086  10.352  11.506
33662SOL    HW2 2820   5.036  10.220  11.560
33663SOL     OW 2821   7.527   3.361  13.874
33663SOL    HW1 2822   7.484   3.439  13.838
33663SOL    HW2 2823   7.479   3.343  13.955
33664SOL     OW 2824   8.282  14.756   6.243
33664SOL    HW1 2825   8.339  14.699   6.192
33664SOL    HW2 2826   8.331  14.838   6.251
33665SOL     OW 2827   4.274  13.687   1.893
33665SOL    HW1 2828   4.268  13.609   1.838
33665SOL    HW2 2829   4.265  13.760   1.832
33666SOL     OW 2830  12.039  12.114   8.129
33666SOL    HW1 2831  12.043  12.184   8.194
33666SOL    HW2 2832  11.962  12.063   8.153
33667SOL     OW 2833   1.743   5.610  14.299
33667SOL    HW1 2834   1.721   5.519  14.319
33667SOL    HW2 2835   1.839   5.612  14.298
33668SOL     OW 2836  12.003   9.131   7.106
33668SOL    HW1 2837  11.941   9.107   7.174
33668SOL    HW2 2838  11.950   9.133   7.026
33669SOL     OW 2839   0.879   3.270   2.571
33669SOL    HW1 2840   0.883   3.357   2.531
33669SOL    HW2 2841   0.966   3.234   2.557
33670SOL     OW 2842   5.536   5.050   0.568
33670SOL    HW1 2843   5.544   5.122   0.506
33670SOL    HW2 2844   5.451   5.062   0.609
33671SOL     OW 2845   2.330   8.785  10.768
33671SOL    HW1 2846   2.291   8.768  10.682
33671SOL    HW2 2847   2.346   8.879  10.769
33672SOL     OW 2848  14.539   4.893   9.357
33672SOL    HW1 2849  14.561   4.911   9.265
33672SOL    HW2 2850  14.448   4.864   9.355
33673SOL     OW 2851   3.018   1.931   0.308
33673SOL    HW1 2852   3.083   1.947   0.240
33673SOL    HW2 2853   2.933   1.935   0.263
33674SOL     OW 2854   8.992   5.752   7.619
33674SOL    HW1 2855   9.057   5.807   7.661
33674SOL    HW2 2856   8.929   5.732   7.687
33675SOL     OW 2857   2.227  10.398   4.232
33675SOL    HW1 2858   2.167  10.472   4.224
33675SOL    HW2 2859   2.170  10.321   4.244
33676SOL     OW 2860   4.486   5.702   1.659
33676SOL    HW1 2861   4.493   5.791   1.693
33676SOL    HW2 2862   4.410   5.666   1.705
33677SOL     OW 2863  14.379   4.524  14.813
33677SOL    HW1 2864  14.365   4.566  14.728
33677SOL    HW2 2865  14.370   4.430  14.795
33678SOL     OW 2866   8.461   6.166   9.835
33678SOL    HW1 2867   8.421   6.090   9.792
33678SOL    HW2 2868   8.531   6.194   9.775
33679SOL     OW 2869  14.444  11.162   1.564
33679SOL    HW1 2870  14.501  11.229   1.601
33679SOL    HW2 2871  14.475  11.080   1.603
33680SOL     OW 2872  13.984   8.370  10.115
33680SOL    HW1 2873  14.062   8.320  10.140
33680SOL    HW2 2874  13.971   8.347  10.022
33681SOL     OW 2875  10.011   1.796   3.612
33681SOL    HW1 2876   9.996   1.888   3.593
33681SOL    HW2 2877   9.969   1.749   3.540
33682SOL     OW 2878   3.524   0.257   6.489
33682SOL    HW1 2879   3.529   0.256   6.394
33682SOL    HW2 2880   3.465   0.185   6.511
33683SOL     OW 2881   8.174   8.773  13.056
33683SOL    HW1 2882   8.175   8.709  12.985
33683SOL    HW2 2883   8.215   8.851  13.019
33684SOL     OW 2884  11.295   2.572   5.472
33684SOL    HW1 2885  11.335   2.510   5.411
33684SOL    HW2 2886  11.354   2.574   5.547
33685SOL     OW 2887   3.402   7.287   5.131
33685SOL    HW1 2888   3.340   7.278   5.203
33685SOL    HW2 2889   3.348   7.309   5.055
33686SOL     OW 2890  10.000   0.799   7.558
33686SOL    HW1 2891  10.026   0.707   7.555
33686SOL    HW2 2892  10.081   0.848   7.549
33687SOL     OW 2893   5.861   0.926   5.605
33687SOL    HW1 2894   5.887   0.971   5.524
33687SOL    HW2 2895   5.941   0.884   5.636
33688SOL     OW 2896   8.849  13.248   9.673
33688SOL    HW1 2897   8.889  13.163   9.695
33688SOL    HW2 2898   8.899  13.311   9.723
33689SOL     OW 2899  14.103   6.252   7.236
33689SOL    HW1 2900  14.054   6.322   7.193
33689SOL    HW2 2901  14.063   6.244   7.322
33690SOL     OW 2902  11.737   7.116  13.866
33690SOL    HW1 2903  11.707   7.035  13.824
33690SOL    HW2 2904  11.775   7.088  13.949
33691SOL     OW 2905  12.378  11.818   5.630
33691SOL    HW1 2906  12.323  11.882   5.675
33691SOL    HW2 2907  12.443  11.871   5.583
33692SOL     OW 2908  11.986   8.151   7.507
33692SOL    HW1 2909  11.922   8.132   7.438
33692SOL    HW2 2910  11.972   8.083   7.573
33693SOL     OW 2911   1.803  13.262   4.855
33693SOL    HW1 2912   1.771  13.335   4.802
33693SOL    HW2 2913   1.872  13.223   4.801
33694SOL     OW 2914  13.446  13.944   1.280
33694SOL    HW1 2915  13.431  14.021   1.336
33694SOL    HW2 2916  13.521  13.900   1.319
33695SOL     OW 2917   4.016  10.959  14.643
33695SOL    HW1 2918   3.930  10.938  14.679
33695SOL    HW2 2919   3.998  10.993  14.555
33696SOL     OW 2920   4.545  14.526   1.591
33696SOL    HW1 2921   4.574  14.434   1.588
33696SOL    HW2 2922   4.482  14.529   1.663
33697SOL     OW 2923   3.721   1.387   3.177
33697SOL    HW1 2924   3.749   1.458   3.235
33697SOL    HW2 2925   3.673   1.431   3.107
33698SOL     OW 2926   4.886  13.609   0.819
33698SOL    HW1 2927   4.931  13.526   0.801
33698SOL    HW2 2928   4.858  13.602   0.910
33699SOL     OW 2929   8.468   4.233  10.637
33699SOL    HW1 2930   8.466   4.256  10.730
33699SOL    HW2 2931   8.376   4.225  10.612
33700SOL     OW 2932   6.940   6.134   8.517
33700SOL    HW1 2933   6.908   6.045   8.534
33700SOL    HW2 2934   6.929   6.146   8.423
33701SOL     OW 2935   1.305   6.094   4.421
33701SOL    HW1 2936   1.349   6.047   4.350
33701SOL    HW2 2937   1.213   6.067   4.414
33702SOL     OW 2938   0.198  14.835  12.503
33702SOL    HW1 2939   0.235  14.747  12.506
33702SOL    HW2 2940   0.170  14.846  12.412
33703SOL     OW 2941   3.549  10.328  12.357
33703SOL    HW1 2942   3.489  10.382  12.305
33703SOL    HW2 2943   3.565  10.251  12.303
33704SOL     OW 2944   0.349  10.077   0.586
33704SOL    HW1 2945   0.262  10.091   0.550
33704SOL    HW2 2946   0.408  10.118   0.522
33705SOL     OW 2947   7.002  11.827  12.090
33705SOL    HW1 2948   7.024  11.742  12.128
33705SOL    HW2 2949   6.996  11.886  12.165
33706SOL     OW 2950  13.335   4.657   9.802
33706SOL    HW1 2951  13.311   4.647   9.709
33706SOL    HW2 2952  13.410   4.600   9.814
33707SOL     OW 2953   6.372   6.525   1.743
33707SOL    HW1 2954   6.382   6.614   1.709
33707SOL    HW2 2955   6.371   6.536   1.838
33708SOL     OW 2956   9.922   1.420   5.600
33708SOL    HW1 2957   9.882   1.369   5.530
33708SOL    HW2 2958   9.876   1.504   5.599
33709SOL     OW 2959  11.640  13.323  14.656
33709SOL    HW1 2960  11.697  13.366  14.720
33709SOL    HW2 2961  11.694  13.317  14.577
33710SOL     OW 2962  10.589  12.422   5.264
33710SOL    HW1 2963  10.672  12.419   5.216
33710SOL    HW2 2964  10.527  12.461   5.203
33711SOL     OW 2965   6.854   4.412   5.287
33711SOL    HW1 2966   6.800   4.356   5.232
33711SOL    HW2 2967   6.930   4.358   5.310
33712SOL     OW 2968  10.287  12.583   5.367
33712SOL    HW1 2969  10.293  12.532   5.286
33712SOL    HW2 2970  10.336  12.531   5.431
33713SOL     OW 2971  10.351  10.622   7.211
33713SOL    HW1 2972  10.285  10.600   7.145
33713SOL    HW2 2973  10.411  10.548   7.210
33714SOL     OW 2974   5.424  10.248   5.909
33714SOL    HW1 2975   5.329  10.258   5.902
33714SOL    HW2 2976   5.448  10.195   5.833
33715SOL     OW 2977  10.201  13.786  12.045
33715SOL    HW1 2978  10.265  13.719  12.021
33715SOL    HW2 2979  10.197  13.843  11.969
33716SOL     OW 2980  13.619   3.113   9.706
33716SOL    HW1 2981  13.571   3.177   9.654
33716SOL    HW2 2982  13.706   3.109   9.664
33717SOL     OW 2983   8.544  11.936   7.730
33717SOL    HW1 2984   8.499  12.019   7.713
33717SOL    HW2 2985   8.498  11.872   7.677
33718SOL     OW 2986   8.067  12.842   5.298
33718SOL    HW1 2987   8.119  12.914   5.333
33718SOL    HW2 2988   8.031  12.876   5.216
33719SOL     OW 2989   1.892  13.260  14.636
33719SOL    HW1 2990   1.869  13.256  14.543
33719SOL    HW2 2991   1.983  13.288  14.636
33720SOL     OW 2992   0.388  13.925  13.947
33720SOL    HW1 2993   0.479  13.911  13.976
33720SOL    HW2 2994   0.383  13.885  13.861
33721SOL     OW 2995   8.432  12.989   9.807
33721SOL    HW1 2996   8.392  13.015   9.723
33721SOL    HW2 2997   8.501  13.053   9.821
33722SOL     OW 2998   0.516   7.329   4.104
33722SOL    HW1 2999   0.472   7.357   4.184
33722SOL    HW2 3000   0.456   7.353   4.033
33723SOL     OW 3001   9.247  14.588   3.171
33723SOL    HW1 3002   9.243  14.564   3.079
33723SOL    HW2 3003   9.314  14.656   3.176
33724SOL     OW 3004   6.195   3.616   3.654
33724SOL    HW1 3005   6.107   3.601   3.620
33724SOL    HW2 3006   6.181   3.663   3.736
33725SOL     OW 3007  10.053  14.486  10.492
33725SOL    HW1 3008  10.083  14.513  10.405
33725SOL    HW2 3009   9.977  14.430  10.474
33726SOL     OW 3010  13.396   1.341   5.669
33726SOL    HW1 3011  13.471   1.387   5.632
33726SOL    HW2 3012  13.428   1.253   5.688
33727SOL     OW 3013   6.746  11.508   0.731
33727SOL    HW1 3014   6.816  11.528   0.793
33727SOL    HW2 3015   6.770  11.554   0.651
33728SOL     OW 3016   1.295   0.533  12.715
33728SOL    HW1 3017   1.317   0.440  12.722
33728SOL    HW2 3018   1.361   0.577  12.769
33729SOL     OW 3019   0.331  12.303   4.420
33729SOL    HW1 3020   0.312  12.382   4.471
33729SOL    HW2 3021   0.283  12.315   4.338
33730SOL     OW 3022  14.872  10.816   7.352
33730SOL    HW1 3023  14.873  10.730   7.309
33730SOL    HW2 3024  14.799  10.811   7.414
33731SOL     OW 3025   1.651  10.001  11.178
33731SOL    HW1 3026   1.669   9.995  11.085
33731SOL    HW2 3027   1.622  10.091  11.192
33732SOL     OW 3028  11.084  11.350  11.909
33732SOL    HW1 3029  11.136  11.343  11.988
33732SOL    HW2 3030  11.105  11.270  11.859
33733SOL     OW 3031  11.918   0.469  12.677
33733SOL    HW1 3032  11.876   0.383  12.680
33733SOL    HW2 3033  11.904   0.500  12.588
33734SOL     OW 3034   2.476   5.580   2.438
33734SOL    HW1 3035   2.470   5.511   2.372
33734SOL    HW2 3036   2.471   5.534   2.522
33735SOL     OW 3037  12.301   9.348   2.713
33735SOL    HW1 3038  12.249   9.410   2.764
33735SOL    HW2 3039  12.328   9.281   2.777
33736SOL     OW 3040  14.135   0.231   2.476
33736SOL    HW1 3041  14.164   0.263   2.562
33736SOL    HW2 3042  14.117   0.311   2.426
33737SOL     OW 3043  10.796  11.103   1.778
33737SOL    HW1 3044  10.843  11.102   1.695
33737SOL    HW2 3045  10.861  11.133   1.842
33738SOL     OW 3046   8.120   4.868  10.677
33738SOL    HW1 3047   8.109   4.931  10.748
33738SOL    HW2 3048   8.186   4.908  10.620
33739SOL     OW 3049   6.091  13.556   4.027
33739SOL    HW1 3050   6.122  13.623   4.089
33739SOL    HW2 3051   6.092  13.600   3.942
33740SOL     OW 3052  10.539   2.092   2.856
33740SOL    HW1 3053  10.594   2.026   2.814
33740SOL    HW2 3054  10.452   2.053   2.858
33741SOL     OW 3055   1.089   7.024   8.033
33741SOL    HW1 3056   1.064   6.955   8.094
33741SOL    HW2 3057   1.024   7.017   7.962
33742SOL     OW 3058  14.551   3.611   4.288
33742SOL    HW1 3059  14.513   3.699   4.288
33742SOL    HW2 3060  14.599   3.606   4.371
33743SOL     OW 3061   8.036  13.491   2.312
33743SOL    HW1 3062   7.950  13.533   2.316
33743SOL    HW2 3063   8.091  13.553   2.264
33744SOL     OW 3064  12.564   2.212   1.952
33744SOL    HW1 3065  12.527   2.296   1.980
33744SOL    HW2 3066  12.529   2.199   1.864
33745SOL     OW 3067   6.289   4.977   2.586
33745SOL    HW1 3068   6.261   4.935   2.667
33745SOL    HW2 3069   6.378   5.007   2.603
33746SOL     OW 3070   0.868   6.683  13.501
33746SOL    HW1 3071   0.837   6.610  13.555
33746SOL    HW2 3072   0.867   6.649  13.412
33747SOL     OW 3073   6.827   4.126  11.962
33747SOL    HW1 3074   6.824   4.105  12.056
33747SOL    HW2 3075   6.882   4.204  11.957
33748SOL     OW 3076   7.037   6.601  11.763
33748SOL    HW1 3077   7.020   6.694  11.752
33748SOL    HW2 3078   7.037   6.587  11.858
33749SOL     OW 3079  10.463  11.212  11.997
33749SOL    HW1 3080  10.376  11.178  12.015
33749SOL    HW2 3081  10.476  11.280  12.063
33750SOL     OW 3082  14.697   4.730   0.271
33750SOL    HW1 3083  14.743   4.646   0.272
33750SOL    HW2 3084  14.606   4.707   0.287
33751SOL     OW 3085   7.880   5.059   7.644
33751SOL    HW1 3086   7.961   5.018   7.613
33751SOL    HW2 3087   7.907   5.147   7.670
33752SOL     OW 3088   7.071   5.668  14.096
33752SOL    HW1 3089   7.018   5.721  14.037
33752SOL    HW2 3090   7.068   5.714  14.180
33753SOL     OW 3091   8.125   3.208   6.388
33753SOL    HW1 3092   8.095   3.137   6.445
33753SOL    HW2 3093   8.183   3.164   6.324
33754SOL     OW 3094  13.152   0.345   8.500
33754SOL    HW1 3095  13.178   0.408   8.433
33754SOL    HW2 3096  13.103   0.278   8.453
33755SOL     OW 3097  11.976  13.603   4.969
33755SOL    HW1 3098  12.049  13.657   5.000
33755SOL    HW2 3099  11.995  13.515   5.003
33756SOL     OW 3100   0.004  14.784   7.982
33756SOL    HW1 3101   0.083  14.804   7.932
33756SOL    HW2 3102  14.821  14.750   7.917
33757SOL     OW 3103   5.797  10.428  11.529
33757SOL    HW1 3104   5.855  10.487  11.482
33757SOL    HW2 3105   5.722  10.481  11.552
33758SOL     OW 3106  10.956   8.347   9.221
33758SOL    HW1 3107  10.947   8.335   9.316
33758SOL    HW2 3108  10.920   8.433   9.203
33759SOL     OW 3109   8.961   8.518  12.895
33759SOL    HW1 3110   8.880   8.471  12.873
33759SOL    HW2 3111   8.978   8.496  12.986
33760SOL     OW 3112   5.871   5.130  12.614
33760SOL    HW1 3113   5.806   5.190  12.577
33760SOL    HW2 3114   5.955   5.162  12.580
33761SOL     OW 3115  14.797   4.103   9.779
33761SOL    HW1 3116  14.790   4.072   9.870
33761SOL    HW2 3117  14.722   4.063   9.735
33762SOL     OW 3118   7.894   0.688  10.347
33762SOL    HW1 3119   7.968   0.742  10.320
33762SOL    HW2 3120   7.843   0.674  10.268
33763SOL     OW 3121  12.029   0.909   4.695
33763SOL    HW1 3122  12.105   0.879   4.645
33763SOL    HW2 3123  11.990   0.829   4.730
33764SOL     OW 3124   4.597   7.124  11.010
33764SOL    HW1 3125   4.565   7.099  10.924
33764SOL    HW2 3126   4.582   7.047  11.065
33765SOL     OW 3127  12.617   2.105   4.867
33765SOL    HW1 3128  12.667   2.032   4.903
33765SOL    HW2 3129  12.532   2.101   4.912
33766SOL     OW 3130   2.869   6.644  14.862
33766SOL    HW1 3131   2.951   6.674  14.822
33766SOL    HW2 3132   2.868   6.686   0.069
33767SOL     OW 3133  13.582   1.048   5.512
33767SOL    HW1 3134  13.677   1.052   5.522
33767SOL    HW2 3135  13.563   1.108   5.440
33768SOL     OW 3136  11.387   4.998   0.235
33768SOL    HW1 3137  11.416   4.908   0.249
33768SOL    HW2 3138  11.305   5.005   0.284
33769SOL     OW 3139  11.917  12.602  10.469
33769SOL    HW1 3140  12.010  12.581  10.473
33769SOL    HW2 3141  11.903  12.638  10.382
33770SOL     OW 3142  14.478  12.842  11.618
33770SOL    HW1 3143  14.388  12.868  11.601
33770SOL    HW2 3144  14.471  12.764  11.672
33771SOL     OW 3145   6.697   6.361  13.633
33771SOL    HW1 3146   6.717   6.325  13.720
33771SOL    HW2 3147   6.733   6.297  13.572
33772SOL     OW 3148  14.815   7.439  11.635
33772SOL    HW1 3149  14.752   7.385  11.682
33772SOL    HW2 3150  14.846   7.384  11.564
33773SOL     OW 3151   9.643   1.302   7.241
33773SOL    HW1 3152   9.607   1.374   7.293
33773SOL    HW2 3153   9.697   1.253   7.303
33774SOL     OW 3154   5.855   9.911   8.471
33774SOL    HW1 3155   5.795   9.983   8.491
33774SOL    HW2 3156   5.930   9.954   8.429
33775SOL     OW 3157   7.637  10.735  12.048
33775SOL    HW1 3158   7.586  10.699  11.976
33775SOL    HW2 3159   7.684  10.660  12.084
33776SOL     OW 3160   3.922  14.276   6.265
33776SOL    HW1 3161   3.929  14.183   6.285
33776SOL    HW2 3162   3.961  14.285   6.179
33777SOL     OW 3163   8.206  10.140   4.930
33777SOL    HW1 3164   8.202  10.046   4.917
33777SOL    HW2 3165   8.196  10.177   4.842
33778SOL     OW 3166  10.233   5.675   9.224
33778SOL    HW1 3167  10.230   5.652   9.317
33778SOL    HW2 3168  10.147   5.714   9.206
33779SOL     OW 3169   8.624   1.288   0.436
33779SOL    HW1 3170   8.698   1.229   0.421
33779SOL    HW2 3171   8.561   1.236   0.487
33780SOL     OW 3172   8.510   6.197  14.194
33780SOL    HW1 3173   8.557   6.119  14.164
33780SOL    HW2 3174   8.440   6.209  14.130
33781SOL     OW 3175  10.186   7.069   4.133
33781SOL    HW1 3176  10.111   7.084   4.075
33781SOL    HW2 3177  10.248   7.138   4.110
33782SOL     OW 3178   9.146   4.851   1.681
33782SOL    HW1 3179   9.149   4.763   1.643
33782SOL    HW2 3180   9.217   4.898   1.638
33783SOL     OW 3181   6.975  12.516  10.831
33783SOL    HW1 3182   6.999  12.529  10.923
33783SOL    HW2 3183   7.006  12.594  10.786
33784SOL     OW 3184   2.432   2.107  11.815
33784SOL    HW1 3185   2.486   2.131  11.891
33784SOL    HW2 3186   2.459   2.018  11.794
33785SOL     OW 3187  13.392   2.825  13.140
33785SOL    HW1 3188  13.325   2.894  13.145
33785SOL    HW2 3189  13.460   2.862  13.084
33786SOL     OW 3190   6.943   8.137   9.728
33786SOL    HW1 3191   6.877   8.147   9.658
33786SOL    HW2 3192   7.015   8.091   9.685
33787SOL     OW 3193   9.635  11.265  13.570
33787SOL    HW1 3194   9.728  11.248  13.559
33787SOL    HW2 3195   9.596  11.178  13.582
33788SOL     OW 3196  12.781  14.565   7.249
33788SOL    HW1 3197  12.844  14.585   7.180
33788SOL    HW2 3198  12.823  14.593   7.330
33789SOL     OW 3199  12.907   7.650   8.007
33789SOL    HW1 3200  12.945   7.631   7.921
33789SOL    HW2 3201  12.816   7.620   8.001
33790SOL     OW 3202   3.680   7.896   3.324
33790SOL    HW1 3203   3.616   7.853   3.380
33790SOL    HW2 3204   3.695   7.981   3.365
33791SOL     OW 3205   8.546   2.602   3.381
33791SOL    HW1 3206   8.530   2.511   3.360
33791SOL    HW2 3207   8.640   2.607   3.399
33792SOL     OW 3208   5.671   7.740  12.418
33792SOL    HW1 3209   5.713   7.775  12.339
33792SOL    HW2 3210   5.715   7.657  12.434
33793SOL     OW 3211   5.366   3.507  11.715
33793SOL    HW1 3212   5.355   3.469  11.803
33793SOL    HW2 3213   5.424   3.446  11.670
33794SOL     OW 3214  11.936   2.129   7.740
33794SOL    HW1 3215  11.869   2.136   7.808
33794SOL    HW2 3216  12.019   2.134   7.787
33795SOL     OW 3217   6.984   7.080   7.253
33795SOL    HW1 3218   7.001   7.174   7.256
33795SOL    HW2 3219   6.924   7.063   7.326
33796SOL     OW 3220   2.888  10.273   2.425
33796SOL    HW1 3221   2.826  10.240   2.491
33796SOL    HW2 3222   2.968  10.223   2.440
33797SOL     OW 3223  13.445  13.163   5.342
33797SOL    HW1 3224  13.466  13.071   5.356
33797SOL    HW2 3225  13.381  13.184   5.410
33798SOL     OW 3226   4.129   7.306   1.147
33798SOL    HW1 3227   4.116   7.213   1.160
33798SOL    HW2 3228   4.199   7.330   1.208
33799SOL     OW 3229   0.626   6.130   3.436
33799SOL    HW1 3230   0.680   6.156   3.511
33799SOL    HW2 3231   0.564   6.067   3.473
33800SOL     OW 3232   7.280  10.986   6.796
33800SOL    HW1 3233   7.263  10.929   6.871
33800SOL    HW2 3234   7.290  10.926   6.722
33801SOL     OW 3235   2.187   9.784   2.282
33801SOL    HW1 3236   2.244   9.809   2.355
33801SOL    HW2 3237   2.184   9.688   2.287
33802SOL     OW 3238   2.802  10.925  10.098
33802SOL    HW1 3239   2.854  10.958  10.171
33802SOL    HW2 3240   2.756  11.002  10.064
33803SOL     OW 3241  10.960   0.391  10.395
33803SOL    HW1 3242  10.941   0.301  10.421
33803SOL    HW2 3243  10.887   0.416  10.338
33804SOL     OW 3244   0.578   3.350   0.040
33804SOL    HW1 3245   0.660   3.302   0.052
33804SOL    HW2 3246   0.585   3.389  14.831
33805SOL     OW 3247  10.266  14.636   4.798
33805SOL    HW1 3248  10.269  14.582   4.876
33805SOL    HW2 3249  10.233  14.721   4.828
33806SOL     OW 3250  14.758   4.651   0.758
33806SOL    HW1 3251  14.763   4.746   0.758
33806SOL    HW2 3252  14.816   4.624   0.687
33807SOL     OW 3253   7.922   4.264  14.667
33807SOL    HW1 3254   7.963   4.250  14.752
33807SOL    HW2 3255   7.830   4.240  14.680
33808SOL     OW 3256  12.323   5.007   1.201
33808SOL    HW1 3257  12.316   4.924   1.249
33808SOL    HW2 3258  12.324   5.074   1.269
33809SOL     OW 3259  14.470   8.581   7.018
33809SOL    HW1 3260  14.495   8.528   7.094
33809SOL    HW2 3261  14.527   8.550   6.948
33810SOL     OW 3262  11.906   6.774   8.727
33810SOL    HW1 3263  11.917   6.679   8.728
33810SOL    HW2 3264  11.842   6.792   8.796
33811SOL     OW 3265  11.710   2.153   6.308
33811SOL    HW1 3266  11.671   2.108   6.383
33811SOL    HW2 3267  11.685   2.245   6.321
33812SOL     OW 3268   8.198  12.847   3.094
33812SOL    HW1 3269   8.278  12.876   3.050
33812SOL    HW2 3270   8.170  12.770   3.044
33813SOL     OW 3271   9.856  14.784  12.734
33813SOL    HW1 3272   9.946  14.754  12.749
33813SOL    HW2 3273   9.841  14.850  12.802
33814SOL     OW 3274   1.474   1.984   7.499
33814SOL    HW1 3275   1.532   2.021   7.565
33814SOL    HW2 3276   1.513   1.899   7.478
33815SOL     OW 3277   5.749   7.044   8.992
33815SOL    HW1 3278   5.672   7.036   8.935
33815SOL    HW2 3279   5.769   7.137   8.992
33816SOL     OW 3280  11.677   0.310  12.591
33816SOL    HW1 3281  11.687   0.252  12.516
33816SOL    HW2 3282  11.639   0.390  12.555
33817SOL     OW 3283  13.329  14.060   0.482
33817SOL    HW1 3284  13.367  14.099   0.404
33817SOL    HW2 3285  13.309  14.135   0.538
33818SOL     OW 3286   2.455  10.421   0.212
33818SOL    HW1 3287   2.398  10.398   0.285
33818SOL    HW2 3288   2.525  10.356   0.214
33819SOL     OW 3289  10.322   4.918   6.629
33819SOL    HW1 3290  10.313   4.860   6.706
33819SOL    HW2 3291  10.409   4.899   6.595
33820SOL     OW 3292   0.997   9.118  10.513
33820SOL    HW1 3293   0.979   9.044  10.456
33820SOL    HW2 3294   0.993   9.194  10.455
33821SOL     OW 3295   3.354   7.600  10.773
33821SOL    HW1 3296   3.350   7.689  10.807
33821SOL    HW2 3297   3.296   7.601  10.696
33822SOL     OW 3298  14.012   7.695   4.456
33822SOL    HW1 3299  14.057   7.764   4.407
33822SOL    HW2 3300  13.965   7.646   4.389
33823SOL     OW 3301   0.782   6.305   4.182
33823SOL    HW1 3302   0.713   6.243   4.157
33823SOL    HW2 3303   0.746   6.351   4.257
33824SOL     OW 3304  13.574  14.480   1.663
33824SOL    HW1 3305  13.525  14.516   1.589
33824SOL    HW2 3306  13.603  14.393   1.633
33825SOL     OW 3307  13.025   1.070  13.574
33825SOL    HW1 3308  12.935   1.079  13.608
33825SOL    HW2 3309  13.081   1.085  13.651
33826SOL     OW 3310   1.608   3.341   5.650
33826SOL    HW1 3311   1.656   3.410   5.696
33826SOL    HW2 3312   1.675   3.295   5.599
33827SOL     OW 3313  10.696   0.796  13.480
33827SOL    HW1 3314  10.700   0.838  13.566
33827SOL    HW2 3315  10.634   0.849  13.430
33828SOL     OW 3316   4.264   3.714   3.321
33828SOL    HW1 3317   4.238   3.806   3.313
33828SOL    HW2 3318   4.352   3.711   3.283
33829SOL     OW 3319   0.258  13.106  13.280
33829SOL    HW1 3320   0.184  13.093  13.221
33829SOL    HW2 3321   0.270  13.021  13.322
33830SOL     OW 3322   7.358  13.347  10.542
33830SOL    HW1 3323   7.362  13.290  10.619
33830SOL    HW2 3324   7.424  13.310  10.483
33831SOL     OW 3325  14.741   4.043   3.025
33831SOL    HW1 3326  14.818   4.047   3.082
33831SOL    HW2 3327  14.724   3.950   3.015
33832SOL     OW 3328   4.009   7.369   6.011
33832SOL    HW1 3329   4.067   7.402   5.943
33832SOL    HW2 3330   4.068   7.329   6.075
33833SOL     OW 3331  13.518  12.085   7.639
33833SOL    HW1 3332  13.485  12.044   7.719
33833SOL    HW2 3333  13.558  12.014   7.590
33834SOL     OW 3334   6.906  13.555  10.256
33834SOL    HW1 3335   6.815  13.532  10.276
33834SOL    HW2 3336   6.946  13.566  10.342
33835SOL     OW 3337   7.470   2.540   1.283
33835SOL    HW1 3338   7.423   2.484   1.222
33835SOL    HW2 3339   7.474   2.489   1.364
33836SOL     OW 3340  14.126  11.507   1.779
33836SOL    HW1 3341  14.136  11.447   1.852
33836SOL    HW2 3342  14.037  11.492   1.747
33837SOL     OW 3343  10.052   3.587  11.116
33837SOL    HW1 3344  10.078   3.504  11.075
33837SOL    HW2 3345  10.098   3.654  11.064
33838SOL     OW 3346  12.758   3.690   2.279
33838SOL    HW1 3347  12.833   3.727   2.234
33838SOL    HW2 3348  12.697   3.668   2.208
33839SOL     OW 3349   1.422  14.522  11.230
33839SOL    HW1 3350   1.445  14.436  11.265
33839SOL    HW2 3351   1.348  14.550  11.284
33840SOL     OW 3352   5.593  10.594   0.649
33840SOL    HW1 3353   5.543  10.666   0.688
33840SOL    HW2 3354   5.531  10.521   0.643
33841SOL     OW 3355   9.824  11.957   2.859
33841SOL    HW1 3356   9.789  11.894   2.922
33841SOL    HW2 3357   9.880  12.015   2.910
33842SOL     OW 3358   0.328   2.670   4.872
33842SOL    HW1 3359   0.317   2.650   4.779
33842SOL    HW2 3360   0.363   2.759   4.873
33843SOL     OW 3361   8.440   8.302   5.491
33843SOL    HW1 3362   8.455   8.378   5.434
33843SOL    HW2 3363   8.525   8.287   5.533
33844SOL     OW 3364   5.585   9.977   8.714
33844SOL    HW1 3365   5.516   9.930   8.667
33844SOL    HW2 3366   5.635  10.022   8.646
33845SOL     OW 3367  13.749   2.978   1.505
33845SOL    HW1 3368  13.816   2.911   1.494
33845SOL    HW2 3369  13.797   3.056   1.533
33846SOL     OW 3370  12.163  12.292  11.453
33846SOL    HW1 3371  12.199  12.364  11.400
33846SOL    HW2 3372  12.090  12.258  11.401
33847SOL     OW 3373   1.969   6.129   0.031
33847SOL    HW1 3374   2.045   6.130  14.851
33847SOL    HW2 3375   2.004   6.102   0.115
33848SOL     OW 3376   1.936   4.512   8.864
33848SOL    HW1 3377   1.893   4.564   8.796
33848SOL    HW2 3378   1.869   4.449   8.893
33849SOL     OW 3379   4.245   4.777   8.077
33849SOL    HW1 3380   4.162   4.736   8.100
33849SOL    HW2 3381   4.221   4.847   8.015
33850SOL     OW 3382  13.601   9.000   4.522
33850SOL    HW1 3383  13.688   9.040   4.516
33850SOL    HW2 3384  13.618   8.905   4.519
33851SOL     OW 3385   2.239   5.035   3.353
33851SOL    HW1 3386   2.145   5.051   3.359
33851SOL    HW2 3387   2.260   4.986   3.433
33852SOL     OW 3388   9.231  11.115   3.391
33852SOL    HW1 3389   9.146  11.072   3.378
33852SOL    HW2 3390   9.234  11.134   3.484
33853SOL     OW 3391  14.582   6.788   8.917
33853SOL    HW1 3392  14.606   6.833   8.999
33853SOL    HW2 3393  14.556   6.701   8.945
33854SOL     OW 3394  10.257  12.006   4.176
33854SOL    HW1 3395  10.166  12.011   4.208
33854SOL    HW2 3396  10.281  11.914   4.189
33855SOL     OW 3397   4.770   5.358  10.265
33855SOL    HW1 3398   4.792   5.294  10.198
33855SOL    HW2 3399   4.759   5.307  10.345
33856SOL     OW 3400   8.041   6.335  13.851
33856SOL    HW1 3401   8.129   6.304  13.873
33856SOL    HW2 3402   8.020   6.397  13.920
33857SOL     OW 3403   9.183   0.160  12.888
33857SOL    HW1 3404   9.118   0.162  12.958
33857SOL    HW2 3405   9.132   0.144  12.809
33858SOL     OW 3406   0.354   6.393   1.142
33858SOL    HW1 3407   0.339   6.351   1.057
33858SOL    HW2 3408   0.427   6.343   1.180
33859SOL     OW 3409   6.445   4.162   8.069
33859SOL    HW1 3410   6.404   4.237   8.026
33859SOL    HW2 3411   6.386   4.089   8.048
33860SOL     OW 3412   9.345  10.567   5.602
33860SOL    HW1 3413   9.305  10.555   5.688
33860SOL    HW2 3414   9.275  10.546   5.540
33861SOL     OW 3415  13.460   0.338  12.389
33861SOL    HW1 3416  13.368   0.366  12.386
33861SOL    HW2 3417  13.483   0.344  12.482
33862SOL     OW 3418   3.546   5.478   3.799
33862SOL    HW1 3419   3.518   5.518   3.881
33862SOL    HW2 3420   3.607   5.541   3.761
33863SOL     OW 3421   8.756   7.461  11.579
33863SOL    HW1 3422   8.735   7.375  11.542
33863SOL    HW2 3423   8.719   7.524  11.517
33864SOL     OW 3424   5.265  13.666   0.027
33864SOL    HW1 3425   5.358  13.668   0.004
33864SOL    HW2 3426   5.225  13.610  14.839
33865SOL     OW 3427   7.660   3.751   2.224
33865SOL    HW1 3428   7.635   3.760   2.132
33865SOL    HW2 3429   7.590   3.698   2.263
33866SOL     OW 3430   6.303  11.858   3.944
33866SOL    HW1 3431   6.328  11.917   4.015
33866SOL    HW2 3432   6.288  11.916   3.869
33867SOL     OW 3433   8.884   4.079   7.461
33867SOL    HW1 3434   8.910   4.165   7.428
33867SOL    HW2 3435   8.853   4.032   7.383
33868SOL     OW 3436   7.632  12.001  12.566
33868SOL    HW1 3437   7.659  12.073  12.622
33868SOL    HW2 3438   7.552  11.968  12.606
33869SOL     OW 3439   3.088   4.495  10.987
33869SOL    HW1 3440   3.078   4.544  10.906
33869SOL    HW2 3441   3.036   4.543  11.051
33870SOL     OW 3442   3.407   4.622   2.192
33870SOL    HW1 3443   3.434   4.582   2.109
33870SOL    HW2 3444   3.334   4.679   2.168
33871SOL     OW 3445  10.658   9.514   9.519
33871SOL    HW1 3446  10.625   9.429   9.490
33871SOL    HW2 3447  10.717   9.542   9.449
33872SOL     OW 3448   4.489   5.672   8.086
33872SOL    HW1 3449   4.432   5.747   8.069
33872SOL    HW2 3450   4.526   5.689   8.173
33873SOL     OW 3451  14.685  13.791   2.556
33873SOL    HW1 3452  14.697  13.835   2.640
33873SOL    HW2 3453  14.601  13.747   2.564
33874SOL     OW 3454   9.323   8.536  14.851
33874SOL    HW1 3455   9.256   8.558  14.787
33874SOL    HW2 3456   9.298   8.584   0.051
33875SOL     OW 3457   2.762  11.380   8.968
33875SOL    HW1 3458   2.840  11.323   8.969
33875SOL    HW2 3459   2.718  11.357   8.886
33876SOL     OW 3460   4.995   2.487   0.085
33876SOL    HW1 3461   5.008   2.560   0.145
33876SOL    HW2 3462   5.077   2.438   0.090
33877SOL     OW 3463   7.978  14.466  14.188
33877SOL    HW1 3464   7.987  14.543  14.243
33877SOL    HW2 3465   8.041  14.479  14.117
33878SOL     OW 3466   6.459  13.357  13.146
33878SOL    HW1 3467   6.529  13.386  13.205
33878SOL    HW2 3468   6.483  13.395  13.061
33879SOL     OW 3469  11.499   6.818  14.006
33879SOL    HW1 3470  11.450   6.864  14.074
33879SOL    HW2 3471  11.435   6.804  13.937
33880SOL     OW 3472  14.764   9.329   7.513
33880SOL    HW1 3473  14.817   9.346   7.591
33880SOL    HW2 3474  14.802   9.250   7.475
33881SOL     OW 3475   0.869   9.104  13.583
33881SOL    HW1 3476   0.824   9.138  13.661
33881SOL    HW2 3477   0.861   9.173  13.518
33882SOL     OW 3478   6.161   4.301   2.181
33882SOL    HW1 3479   6.218   4.271   2.251
33882SOL    HW2 3480   6.075   4.311   2.222
33883SOL     OW 3481   4.812   3.658   7.969
33883SOL    HW1 3482   4.769   3.742   7.952
33883SOL    HW2 3483   4.851   3.633   7.886
33884SOL     OW 3484  11.382   3.084   7.162
33884SOL    HW1 3485  11.460   3.031   7.179
33884SOL    HW2 3486  11.402   3.129   7.080
33885SOL     OW 3487  13.414   5.623   0.568
33885SOL    HW1 3488  13.491   5.590   0.614
33885SOL    HW2 3489  13.410   5.571   0.487
33886SOL     OW 3490  10.274  12.032  13.639
33886SOL    HW1 3491  10.281  12.005  13.731
33886SOL    HW2 3492  10.215  11.968  13.600
33887SOL     OW 3493   5.139   0.039  12.229
33887SOL    HW1 3494   5.081  14.876  12.293
33887SOL    HW2 3495   5.218   0.060  12.278
33888SOL     OW 3496   4.021  12.956   6.953
33888SOL    HW1 3497   4.011  12.877   6.901
33888SOL    HW2 3498   4.116  12.963   6.967
33889SOL     OW 3499  12.005   4.536   6.478
33889SOL    HW1 3500  12.044   4.476   6.542
33889SOL    HW2 3501  11.941   4.483   6.432
33890SOL     OW 3502  10.828  13.395  13.813
33890SOL    HW1 3503  10.780  13.444  13.879
33890SOL    HW2 3504  10.801  13.304  13.825
33891SOL     OW 3505  14.092  10.034   6.019
33891SOL    HW1 3506  14.105   9.946   6.053
33891SOL    HW2 3507  14.013  10.028   5.965
33892SOL     OW 3508  14.244   4.335   2.929
33892SOL    HW1 3509  14.260   4.364   2.840
33892SOL    HW2 3510  14.182   4.399   2.964
33893SOL     OW 3511  14.448   8.417  10.556
33893SOL    HW1 3512  14.401   8.496  10.527
33893SOL    HW2 3513  14.382   8.348  10.552
33894SOL     OW 3514   5.243   4.024   1.226
33894SOL    HW1 3515   5.167   3.965   1.227
33894SOL    HW2 3516   5.208   4.108   1.254
33895SOL     OW 3517   9.204   7.116   6.114
33895SOL    HW1 3518   9.213   7.025   6.142
33895SOL    HW2 3519   9.110   7.133   6.113
33896SOL     OW 3520   1.299  13.684   8.496
33896SOL    HW1 3521   1.219  13.639   8.467
33896SOL    HW2 3522   1.267  13.759   8.545
33897SOL     OW 3523  12.136   2.496  11.170
33897SOL    HW1 3524  12.143   2.591  11.162
33897SOL    HW2 3525  12.043   2.477  11.157
33898SOL     OW 3526  13.126  11.650   2.158
33898SOL    HW1 3527  13.091  11.701   2.231
33898SOL    HW2 3528  13.182  11.585   2.199
33899SOL     OW 3529   9.262   1.736  12.430
33899SOL    HW1 3530   9.236   1.664  12.373
33899SOL    HW2 3531   9.250   1.702  12.519
33900SOL     OW 3532  13.623  10.148   2.656
33900SOL    HW1 3533  13.676  10.069   2.645
33900SOL    HW2 3534  13.687  10.218   2.672
33901SOL     OW 3535   6.088   5.251  12.753
33901SOL    HW1 3536   6.128   5.321  12.804
33901SOL    HW2 3537   5.998   5.281  12.739
33902SOL     OW 3538   7.150  11.290   1.618
33902SOL    HW1 3539   7.184  11.234   1.688
33902SOL    HW2 3540   7.228  11.333   1.582
33903SOL     OW 3541   0.005  10.496   8.879
33903SOL    HW1 3542  14.832  10.525   8.954
33903SOL    HW2 3543  14.857  10.554   8.808
33904SOL     OW 3544   9.185   0.049  10.131
33904SOL    HW1 3545   9.137   0.099  10.065
33904SOL    HW2 3546   9.194   0.108  10.205
33905SOL     OW 3547   2.382   0.390   4.877
33905SOL    HW1 3548   2.350   0.357   4.793
33905SOL    HW2 3549   2.353   0.482   4.879
33906SOL     OW 3550  11.437   8.910   1.299
33906SOL    HW1 3551  11.458   8.823   1.333
33906SOL    HW2 3552  11.341   8.910   1.290
33907SOL     OW 3553   0.720   5.452  11.112
33907SOL    HW1 3554   0.764   5.535  11.097
33907SOL    HW2 3555   0.662   5.442  11.036
33908SOL     OW 3556   3.930  11.987   0.408
33908SOL    HW1 3557   3.861  12.034   0.455
33908SOL    HW2 3558   3.980  11.942   0.476
33909SOL     OW 3559  14.587   2.104   1.646
33909SOL    HW1 3560  14.529   2.030   1.632
33909SOL    HW2 3561  14.564   2.138   1.732
33910SOL     OW 3562   7.656  11.282   6.960
33910SOL    HW1 3563   7.713  11.277   6.884
33910SOL    HW2 3564   7.606  11.201   6.958
33911SOL     OW 3565   6.383   1.133  14.231
33911SOL    HW1 3566   6.429   1.162  14.310
33911SOL    HW2 3567   6.453   1.104  14.173
33912SOL     OW 3568   0.674  13.642   2.013
33912SOL    HW1 3569   0.633  13.658   2.098
33912SOL    HW2 3570   0.761  13.608   2.035
33913SOL     OW 3571   4.267   2.412   8.605
33913SOL    HW1 3572   4.311   2.460   8.675
33913SOL    HW2 3573   4.337   2.390   8.544
33914SOL     OW 3574   9.996   0.466   5.501
33914SOL    HW1 3575   9.994   0.371   5.487
33914SOL    HW2 3576   9.945   0.502   5.429
33915SOL     OW 3577   1.137   9.642  10.839
33915SOL    HW1 3578   1.122   9.734  10.862
33915SOL    HW2 3579   1.073   9.595  10.892
33916SOL     OW 3580   1.177  11.328  12.556
33916SOL    HW1 3581   1.138  11.321  12.469
33916SOL    HW2 3582   1.232  11.250  12.563
33917SOL     OW 3583  12.356   6.564   0.478
33917SOL    HW1 3584  12.334   6.497   0.414
33917SOL    HW2 3585  12.286   6.560   0.543
33918SOL     OW 3586  10.228   4.069   5.893
33918SOL    HW1 3587  10.235   4.010   5.818
33918SOL    HW2 3588  10.214   4.012   5.968
33919SOL     OW 3589   8.273   2.922  13.584
33919SOL    HW1 3590   8.228   2.879  13.511
33919SOL    HW2 3591   8.202   2.951  13.642
33920SOL     OW 3592   2.214   5.022  12.841
33920SOL    HW1 3593   2.156   5.026  12.765
33920SOL    HW2 3594   2.157   4.995  12.913
33921SOL     OW 3595   5.019   7.339   5.563
33921SOL    HW1 3596   5.107   7.376   5.564
33921SOL    HW2 3597   4.965   7.408   5.525
33922SOL     OW 3598   2.327   0.536   3.991
33922SOL    HW1 3599   2.396   0.571   4.048
33922SOL    HW2 3600   2.248   0.583   4.018
33923SOL     OW 3601   2.360   8.308  12.974
33923SOL    HW1 3602   2.397   8.246  12.911
33923SOL    HW2 3603   2.281   8.341  12.932
33924SOL     OW 3604  13.382   3.442   2.730
33924SOL    HW1 3605  13.451   3.417   2.792
33924SOL    HW2 3606  13.401   3.391   2.652
33925SOL     OW 3607  14.586   3.502  10.610
33925SOL    HW1 3608  14.640   3.525  10.685
33925SOL    HW2 3609  14.593   3.576  10.551
33926SOL     OW 3610   6.037   6.891   7.616
33926SOL    HW1 3611   6.021   6.869   7.708
33926SOL    HW2 3612   5.991   6.974   7.603
33927SOL     OW 3613   3.066   7.129   6.107
33927SOL    HW1 3614   3.109   7.044   6.120
33927SOL    HW2 3615   3.135   7.186   6.075
33928SOL     OW 3616  10.071   6.150  13.577
33928SOL    HW1 3617  10.052   6.244  13.572
33928SOL    HW2 3618   9.988   6.110  13.600
33929SOL     OW 3619   2.460   9.454   8.112
33929SOL    HW1 3620   2.541   9.471   8.064
33929SOL    HW2 3621   2.488   9.427   8.199
33930SOL     OW 3622  14.185  11.406   6.299
33930SOL    HW1 3623  14.201  11.425   6.207
33930SOL    HW2 3624  14.145  11.486   6.334
33931SOL     OW 3625   4.436   1.622   5.268
33931SOL    HW1 3626   4.407   1.589   5.183
33931SOL    HW2 3627   4.412   1.553   5.330
33932SOL     OW 3628  14.311   7.006   0.594
33932SOL    HW1 3629  14.312   6.971   0.683
33932SOL    HW2 3630  14.289   6.930   0.539
33933SOL     OW 3631   4.167   9.141   9.381
33933SOL    HW1 3632   4.103   9.125   9.312
33933SOL    HW2 3633   4.115   9.141   9.462
33934SOL     OW 3634   4.143   3.375  13.262
33934SOL    HW1 3635   4.170   3.413  13.346
33934SOL    HW2 3636   4.187   3.429  13.196
33935SOL     OW 3637   3.151   8.678   7.015
33935SOL    HW1 3638   3.199   8.625   6.951
33935SOL    HW2 3639   3.090   8.729   6.962
33936SOL     OW 3640   8.569   2.940   2.736
33936SOL    HW1 3641   8.589   2.865   2.791
33936SOL    HW2 3642   8.546   2.902   2.651
33937SOL     OW 3643  14.131   9.914   8.362
33937SOL    HW1 3644  14.122   9.953   8.275
33937SOL    HW2 3645  14.221   9.880   8.364
33938SOL     OW 3646   3.739   4.676   3.365
33938SOL    HW1 3647   3.702   4.606   3.312
33938SOL    HW2 3648   3.778   4.737   3.303
33939SOL     OW 3649   5.496  11.713  14.220
33939SOL    HW1 3650   5.448  11.734  14.300
33939SOL    HW2 3651   5.556  11.643  14.245
33940SOL     OW 3652  10.107  10.047   9.775
33940SOL    HW1 3653  10.036  10.023   9.833
33940SOL    HW2 3654  10.141  10.129   9.811
33941SOL     OW 3655   3.448  11.738   1.309
33941SOL    HW1 3656   3.509  11.811   1.323
33941SOL    HW2 3657   3.489  11.664   1.353
33942SOL     OW 3658   5.658   4.621  14.006
33942SOL    HW1 3659   5.590   4.658  13.948
33942SOL    HW2 3660   5.622   4.630  14.094
33943SOL     OW 3661   9.519  13.646   2.456
33943SOL    HW1 3662   9.477  13.648   2.370
33943SOL    HW2 3663   9.613  13.642   2.436
33944SOL     OW 3664   0.066  11.726   9.538
33944SOL    HW1 3665   0.076  11.746   9.631
33944SOL    HW2 3666   0.126  11.653   9.524
33945SOL     OW 3667   9.656   0.766  10.529
33945SOL    HW1 3668   9.714   0.695  10.505
33945SOL    HW2 3669   9.597   0.776  10.454
33946SOL     OW 3670   4.963  10.450  11.393
33946SOL    HW1 3671   4.942  10.522  11.452
33946SOL    HW2 3672   4.928  10.477  11.308
33947SOL     OW 3673   4.515  12.711   0.521
33947SOL    HW1 3674   4.451  12.660   0.471
33947SOL    HW2 3675   4.566  12.757   0.454
33948SOL     OW 3676   9.705  12.235   1.061
33948SOL    HW1 3677   9.712  12.167   1.128
33948SOL    HW2 3678   9.778  12.295   1.081
33949SOL     OW 3679  14.396   4.571   6.819
33949SOL    HW1 3680  14.428   4.644   6.873
33949SOL    HW2 3681  14.434   4.493   6.859
33950SOL     OW 3682  11.377   8.310   2.685
33950SOL    HW1 3683  11.421   8.299   2.769
33950SOL    HW2 3684  11.284   8.292   2.705
33951SOL     OW 3685   5.241  14.841   3.606
33951SOL    HW1 3686   5.160   0.013   3.604
33951SOL    HW2 3687   5.258  14.826   3.699
33952SOL     OW 3688   1.167   0.485   1.364
33952SOL    HW1 3689   1.125   0.518   1.444
33952SOL    HW2 3690   1.256   0.520   1.367
33953SOL     OW 3691   4.903   2.717  13.145
33953SOL    HW1 3692   4.865   2.733  13.059
33953SOL    HW2 3693   4.852   2.772  13.204
33954SOL     OW 3694   8.689   3.838  11.749
33954SOL    HW1 3695   8.738   3.801  11.675
33954SOL    HW2 3696   8.666   3.927  11.721
33955SOL     OW 3697   5.506  11.289  13.158
33955SOL    HW1 3698   5.444  11.272  13.088
33955SOL    HW2 3699   5.466  11.358  13.211
33956SOL     OW 3700  13.547  14.599  10.000
33956SOL    HW1 3701  13.580  14.583   9.912
33956SOL    HW2 3702  13.471  14.656   9.987
33957SOL     OW 3703   6.614   1.346  10.637
33957SOL    HW1 3704   6.523   1.368  10.616
33957SOL    HW2 3705   6.658   1.347  10.552
33958SOL     OW 3706  13.907   7.286   3.014
33958SOL    HW1 3707  13.874   7.373   2.993
33958SOL    HW2 3708  14.003   7.295   3.009
33959SOL     OW 3709  11.230  11.290   8.937
33959SOL    HW1 3710  11.309  11.342   8.929
33959SOL    HW2 3711  11.193  11.316   9.022
33960SOL     OW 3712   6.095   7.234  12.255
33960SOL    HW1 3713   6.143   7.302  12.208
33960SOL    HW2 3714   6.130   7.151  12.223
33961SOL     OW 3715   8.566  13.549   0.585
33961SOL    HW1 3716   8.642  13.603   0.562
33961SOL    HW2 3717   8.572  13.537   0.680
33962SOL     OW 3718  14.015  12.018   6.839
33962SOL    HW1 3719  14.005  12.110   6.864
33962SOL    HW2 3720  14.105  11.996   6.863
33963SOL     OW 3721   3.488   3.367  12.993
33963SOL    HW1 3722   3.582   3.383  12.994
33963SOL    HW2 3723   3.450   3.450  12.961
33964SOL     OW 3724   6.458   1.127   9.219
33964SOL    HW1 3725   6.468   1.207   9.271
33964SOL    HW2 3726   6.382   1.082   9.258
33965SOL     OW 3727   5.934   7.526   8.676
33965SOL    HW1 3728   5.870   7.458   8.654
33965SOL    HW2 3729   5.894   7.573   8.749
33966SOL     OW 3730  11.826   5.035   0.235
33966SOL    HW1 3731  11.863   4.979   0.303
33966SOL    HW2 3732  11.739   5.057   0.268
33967SOL     OW 3733   1.656   8.054   1.926
33967SOL    HW1 3734   1.649   8.125   1.989
33967SOL    HW2 3735   1.690   7.980   1.977
33968SOL     OW 3736  10.101   9.325   9.893
33968SOL    HW1 3737  10.156   9.382   9.840
33968SOL    HW2 3738  10.109   9.239   9.851
33969SOL     OW 3739   8.156   1.127   9.793
33969SOL    HW1 3740   8.131   1.053   9.848
33969SOL    HW2 3741   8.248   1.142   9.813
33970SOL     OW 3742  13.098  10.895   2.525
33970SOL    HW1 3743  13.014  10.853   2.512
33970SOL    HW2 3744  13.131  10.911   2.437
33971SOL     OW 3745   9.025   4.850   4.851
33971SOL    HW1 3746   9.113   4.851   4.813
33971SOL    HW2 3747   8.967   4.872   4.779
33972SOL     OW 3748  11.156   0.322  10.080
33972SOL    HW1 3749  11.183   0.375  10.005
33972SOL    HW2 3750  11.228   0.260  10.093
33973SOL     OW 3751  11.610   4.611  10.693
33973SOL    HW1 3752  11.673   4.673  10.656
33973SOL    HW2 3753  11.630   4.528  10.650
33974SOL     OW 3754   2.748   9.947   0.624
33974SOL    HW1 3755   2.805   9.888   0.575
33974SOL    HW2 3756   2.663   9.941   0.580
33975SOL     OW 3757  11.565   3.154   5.829
33975SOL    HW1 3758  11.470   3.150   5.825
33975SOL    HW2 3759  11.585   3.150   5.923
33976SOL     OW 3760   0.117   3.936   0.392
33976SOL    HW1 3761   0.158   3.849   0.399
33976SOL    HW2 3762   0.061   3.930   0.315
33977SOL     OW 3763   2.911  11.756   9.161
33977SOL    HW1 3764   2.942  11.768   9.071
33977SOL    HW2 3765   2.875  11.841   9.186
33978SOL     OW 3766  14.037   4.178  13.099
33978SOL    HW1 3767  14.079   4.247  13.048
33978SOL    HW2 3768  14.017   4.219  13.183
33979SOL     OW 3769   0.855   5.948   5.995
33979SOL    HW1 3770   0.858   6.018   5.929
33979SOL    HW2 3771   0.882   5.870   5.947
33980SOL     OW 3772   0.401  12.917   0.599
33980SOL    HW1 3773   0.447  12.999   0.617
33980SOL    HW2 3774   0.393  12.875   0.685
33981SOL     OW 3775  14.865  11.457   9.267
33981SOL    HW1 3776  14.872  11.388   9.202
33981SOL    HW2 3777  14.783  11.437   9.314
33982SOL     OW 3778  10.506   9.361   8.390
33982SOL    HW1 3779  10.549   9.391   8.311
33982SOL    HW2 3780  10.545   9.414   8.460
33983SOL     OW 3781   0.849  14.334   7.727
33983SOL    HW1 3782   0.944  14.337   7.733
33983SOL    HW2 3783   0.821  14.288   7.806
33984SOL     OW 3784  10.331   2.379   3.151
33984SOL    HW1 3785  10.418   2.345   3.171
33984SOL    HW2 3786  10.284   2.376   3.234
33985SOL     OW 3787   6.629   9.537   1.051
33985SOL    HW1 3788   6.566   9.484   1.101
33985SOL    HW2 3789   6.680   9.472   1.002
33986SOL     OW 3790   9.064   1.436  13.536
33986SOL    HW1 3791   8.994   1.499  13.520
33986SOL    HW2 3792   9.145   1.484  13.521
33987SOL     OW 3793  14.059   1.274   1.939
33987SOL    HW1 3794  13.977   1.323   1.946
33987SOL    HW2 3795  14.068   1.229   2.023
33988SOL     OW 3796  11.248  10.529  10.961
33988SOL    HW1 3797  11.251  10.464  11.031
33988SOL    HW2 3798  11.178  10.589  10.987
33989SOL     OW 3799  14.371   2.194   0.002
33989SOL    HW1 3800  14.345   2.114  14.835
33989SOL    HW2 3801  14.345   2.180   0.093
33990SOL     OW 3802  13.404   9.483   4.779
33990SOL    HW1 3803  13.466   9.414   4.752
33990SOL    HW2 3804  13.321   9.458   4.738
33991SOL     OW 3805   1.438   8.707   7.907
33991SOL    HW1 3806   1.402   8.651   7.976
33991SOL    HW2 3807   1.384   8.688   7.830
33992SOL     OW 3808   9.840   6.836  11.713
33992SOL    HW1 3809   9.864   6.769  11.778
33992SOL    HW2 3810   9.745   6.833  11.709
33993SOL     OW 3811   4.938   8.061   3.834
33993SOL    HW1 3812   4.866   8.005   3.864
33993SOL    HW2 3813   4.914   8.085   3.744
33994SOL     OW 3814  14.491   8.431   5.330
33994SOL    HW1 3815  14.488   8.495   5.402
33994SOL    HW2 3816  14.452   8.477   5.256
33995SOL     OW 3817  14.166   0.718   5.747
33995SOL    HW1 3818  14.169   0.770   5.827
33995SOL    HW2 3819  14.257   0.714   5.717
33996SOL     OW 3820   4.870   0.442  14.067
33996SOL    HW1 3821   4.862   0.413  13.976
33996SOL    HW2 3822   4.811   0.385  14.116
33997SOL     OW 3823   8.248   5.564   7.334
33997SOL    HW1 3824   8.281   5.612   7.409
33997SOL    HW2 3825   8.168   5.522   7.366
33998SOL     OW 3826   3.901   0.057  10.598
33998SOL    HW1 3827   3.865  14.869  10.657
33998SOL    HW2 3828   3.828   0.118  10.584
33999SOL     OW 3829   8.255   5.003  10.199
33999SOL    HW1 3830   8.237   4.932  10.138
33999SOL    HW2 3831   8.183   5.065  10.185
34000SOL     OW 3832   6.719  12.376  14.546
34000SOL    HW1 3833   6.673  12.453  14.577
34000SOL    HW2 3834   6.767  12.406  14.468
34001SOL     OW 3835   4.374   0.232  11.287
34001SOL    HW1 3836   4.352   0.166  11.353
34001SOL    HW2 3837   4.290   0.261  11.253
34002SOL     OW 3838  10.293   1.238   1.863
34002SOL    HW1 3839  10.273   1.192   1.782
34002SOL    HW2 3840  10.312   1.167   1.925
34003SOL     OW 3841  14.448  11.460   8.810
34003SOL    HW1 3842  14.413  11.512   8.883
34003SOL    HW2 3843  14.515  11.405   8.850
34004SOL     OW 3844   6.721  13.668  14.152
34004SOL    HW1 3845   6.626  13.663  14.140
34004SOL    HW2 3846   6.753  13.713  14.073
34005SOL     OW 3847   1.572   2.918   9.326
34005SOL    HW1 3848   1.609   2.935   9.413
34005SOL    HW2 3849   1.607   2.987   9.270
34006SOL     OW 3850   3.561  13.223   8.176
34006SOL    HW1 3851   3.585  13.197   8.087
34006SOL    HW2 3852   3.480  13.273   8.166
34007SOL     OW 3853  12.851   3.344   2.061
34007SOL    HW1 3854  12.865   3.408   2.131
34007SOL    HW2 3855  12.765   3.306   2.080
34008SOL     OW 3856   3.368  12.522  12.383
34008SOL    HW1 3857   3.323  12.463  12.444
34008SOL    HW2 3858   3.438  12.469  12.345
34009SOL     OW 3859   5.192  11.354   9.958
34009SOL    HW1 3860   5.250  11.284   9.989
34009SOL    HW2 3861   5.125  11.308   9.907
34010SOL     OW 3862   2.881   8.017   3.500
34010SOL    HW1 3863   2.791   8.047   3.491
34010SOL    HW2 3864   2.891   7.950   3.432
34011SOL     OW 3865   4.012   6.059   9.068
34011SOL    HW1 3866   4.046   6.020   9.148
34011SOL    HW2 3867   4.060   6.015   8.998
34012SOL     OW 3868   8.585   8.947  13.160
34012SOL    HW1 3869   8.589   8.874  13.098
34012SOL    HW2 3870   8.578   9.024  13.105
34013SOL     OW 3871   3.089  12.751   4.592
34013SOL    HW1 3872   3.025  12.776   4.659
34013SOL    HW2 3873   3.121  12.665   4.621
34014SOL     OW 3874  11.289  13.180   1.299
34014SOL    HW1 3875  11.372  13.227   1.299
34014SOL    HW2 3876  11.225  13.243   1.268
34015SOL     OW 3877   6.401   0.568   0.539
34015SOL    HW1 3878   6.377   0.659   0.525
34015SOL    HW2 3879   6.368   0.522   0.462
34016SOL     OW 3880  10.249  11.553   4.474
34016SOL    HW1 3881  10.275  11.529   4.385
34016SOL    HW2 3882  10.292  11.488   4.530
34017SOL     OW 3883  10.433   9.592   1.454
34017SOL    HW1 3884  10.397   9.636   1.377
34017SOL    HW2 3885  10.373   9.520   1.471
34018SOL     OW 3886   5.193  14.493  14.769
34018SOL    HW1 3887   5.171  14.450  14.686
34018SOL    HW2 3888   5.127  14.462  14.831
34019SOL     OW 3889  12.142   4.860   1.786
34019SOL    HW1 3890  12.110   4.845   1.875
34019SOL    HW2 3891  12.127   4.777   1.740
34020SOL     OW 3892  11.189   5.774   0.273
34020SOL    HW1 3893  11.161   5.805   0.359
34020SOL    HW2 3894  11.178   5.850   0.216
34021SOL     OW 3895   9.067   9.306   7.937
34021SOL    HW1 3896   9.059   9.216   7.968
34021SOL    HW2 3897   9.159   9.328   7.951
34022SOL     OW 3898   2.879   7.872  13.823
34022SOL    HW1 3899   2.906   7.794  13.775
34022SOL    HW2 3900   2.956   7.896  13.875
34023SOL     OW 3901   3.300   5.038  13.302
34023SOL    HW1 3902   3.337   5.078  13.223
34023SOL    HW2 3903   3.333   4.948  13.300
34024SOL     OW 3904   2.226   5.407  12.978
34024SOL    HW1 3905   2.253   5.478  13.038
34024SOL    HW2 3906   2.299   5.345  12.980
34025SOL     OW 3907   2.444   9.587  12.756
34025SOL    HW1 3908   2.381   9.553  12.819
34025SOL    HW2 3909   2.517   9.620  12.810
34026SOL     OW 3910   1.589   6.556   1.753
34026SOL    HW1 3911   1.617   6.636   1.797
34026SOL    HW2 3912   1.570   6.583   1.663
34027SOL     OW 3913   4.546  11.532   2.965
34027SOL    HW1 3914   4.593  11.566   3.041
34027SOL    HW2 3915   4.467  11.492   3.002
34028SOL     OW 3916  11.339   2.340  10.454
34028SOL    HW1 3917  11.250   2.311  10.435
34028SOL    HW2 3918  11.382   2.263  10.489
34029SOL     OW 3919   8.517   1.783   3.285
34029SOL    HW1 3920   8.555   1.860   3.243
34029SOL    HW2 3921   8.592   1.734   3.318
34030SOL     OW 3922   3.228   6.237   3.612
34030SOL    HW1 3923   3.264   6.273   3.693
34030SOL    HW2 3924   3.295   6.254   3.546
34031SOL     OW 3925   4.069   1.801   0.117
34031SOL    HW1 3926   4.074   1.867   0.186
34031SOL    HW2 3927   4.066   1.718   0.164
34032SOL     OW 3928   3.523   7.860   0.877
34032SOL    HW1 3929   3.594   7.904   0.830
34032SOL    HW2 3930   3.483   7.929   0.930
34033SOL     OW 3931   9.375   4.826  10.708
34033SOL    HW1 3932   9.352   4.789  10.794
34033SOL    HW2 3933   9.367   4.920  10.719
34034SOL     OW 3934  11.355  11.838   4.482
34034SOL    HW1 3935  11.381  11.909   4.540
34034SOL    HW2 3936  11.430  11.827   4.423
34035SOL     OW 3937  10.036   8.079  14.785
34035SOL    HW1 3938  10.087   8.082  14.866
34035SOL    HW2 3939  10.094   8.035  14.722
34036SOL     OW 3940   1.724  11.670   6.217
34036SOL    HW1 3941   1.713  11.575   6.222
34036SOL    HW2 3942   1.663  11.705   6.283
34037SOL     OW 3943   0.778  14.808   0.106
34037SOL    HW1 3944   0.727  14.868   0.053
34037SOL    HW2 3945   0.827  14.755   0.043
34038SOL     OW 3946   5.740   6.384   9.480
34038SOL    HW1 3947   5.667   6.324   9.465
34038SOL    HW2 3948   5.810   6.329   9.514
34039SOL     OW 3949   0.556   1.112   8.307
34039SOL    HW1 3950   0.512   1.096   8.223
34039SOL    HW2 3951   0.648   1.091   8.290
34040SOL     OW 3952   8.384   5.276   4.596
34040SOL    HW1 3953   8.472   5.264   4.558
34040SOL    HW2 3954   8.364   5.192   4.636
34041SOL     OW 3955  11.990   4.934  12.730
34041SOL    HW1 3956  12.024   4.983  12.656
34041SOL    HW2 3957  11.969   4.847  12.694
34042SOL     OW 3958   4.350   8.965   1.350
34042SOL    HW1 3959   4.402   8.969   1.269
34042SOL    HW2 3960   4.388   8.892   1.399
34043SOL     OW 3961   1.223   1.765   1.678
34043SOL    HW1 3962   1.196   1.691   1.732
34043SOL    HW2 3963   1.147   1.822   1.676
34044SOL     OW 3964  12.289   6.625  12.486
34044SOL    HW1 3965  12.251   6.564  12.422
34044SOL    HW2 3966  12.280   6.711  12.445
34045SOL     OW 3967   6.927   5.369   0.659
34045SOL    HW1 3968   6.974   5.376   0.742
34045SOL    HW2 3969   6.836   5.358   0.684
34046SOL     OW 3970   2.407   0.217   0.644
34046SOL    HW1 3971   2.486   0.184   0.599
34046SOL    HW2 3972   2.433   0.300   0.681
34047SOL     OW 3973  11.292   3.941  10.335
34047SOL    HW1 3974  11.246   4.023  10.317
34047SOL    HW2 3975  11.315   3.946  10.428
34048SOL     OW 3976  14.555   9.996  13.066
34048SOL    HW1 3977  14.601  10.071  13.028
34048SOL    HW2 3978  14.540  10.019  13.157
34049SOL     OW 3979   7.289   4.623   8.935
34049SOL    HW1 3980   7.248   4.538   8.920
34049SOL    HW2 3981   7.217   4.686   8.930
34050SOL     OW 3982  14.811  13.262   6.916
34050SOL    HW1 3983  14.796  13.229   6.828
34050SOL    HW2 3984  14.727  13.301   6.942
34051SOL     OW 3985   3.345  13.772   4.834
34051SOL    HW1 3986   3.375  13.840   4.774
34051SOL    HW2 3987   3.420  13.715   4.846
34052SOL     OW 3988   3.242  13.604   4.253
34052SOL    HW1 3989   3.147  13.614   4.258
34052SOL    HW2 3990   3.260  13.520   4.295
34053SOL     OW 3991   6.559   5.755   3.407
34053SOL    HW1 3992   6.598   5.778   3.491
34053SOL    HW2 3993   6.465   5.760   3.422
34054SOL     OW 3994  10.727   8.723   0.812
34054SOL    HW1 3995  10.821   8.722   0.793
34054SOL    HW2 3996  10.687   8.675   0.740
34055SOL     OW 3997   0.946   7.279   3.242
34055SOL    HW1 3998   0.921   7.350   3.301
34055SOL    HW2 3999   0.954   7.202   3.300
34056SOL     OW 4000   6.490   6.929   2.265
34056SOL    HW1 4001   6.549   6.966   2.330
34056SOL    HW2 4002   6.407   6.975   2.279
34057SOL     OW 4003   9.356  12.900   1.439
34057SOL    HW1 4004   9.353  12.815   1.393
34057SOL    HW2 4005   9.290  12.953   1.395
34058SOL     OW 4006   4.380   3.516   0.215
34058SOL    HW1 4007   4.287   3.532   0.229
34058SOL    HW2 4008   4.388   3.421   0.208
34059SOL     OW 4009   9.968   3.163   6.271
34059SOL    HW1 4010  10.016   3.224   6.327
34059SOL    HW2 4011   9.892   3.138   6.322
34060SOL     OW 4012   6.157   1.464  13.409
34060SOL    HW1 4013   6.175   1.524  13.481
34060SOL    HW2 4014   6.062   1.453  13.411
34061SOL     OW 4015   3.360  12.522   2.209
34061SOL    HW1 4016   3.312  12.587   2.261
34061SOL    HW2 4017   3.337  12.438   2.249
34062SOL     OW 4018  14.032   7.108   1.545
34062SOL    HW1 4019  14.008   7.060   1.466
34062SOL    HW2 4020  14.020   7.045   1.616
34063SOL     OW 4021   6.038   0.471  10.486
34063SOL    HW1 4022   6.081   0.534  10.428
34063SOL    HW2 4023   6.072   0.386  10.458
34064SOL     OW 4024  10.936   6.413  10.632
34064SOL    HW1 4025  10.956   6.476  10.701
34064SOL    HW2 4026  10.853   6.372  10.659
34065SOL     OW 4027   0.260   0.276   6.773
34065SOL    HW1 4028   0.330   0.337   6.795
34065SOL    HW2 4029   0.301   0.190   6.777
34066SOL     OW 4030  11.621   1.291  10.052
34066SOL    HW1 4031  11.699   1.331  10.091
34066SOL    HW2 4032  11.629   1.310   9.959
34067SOL     OW 4033   6.517   6.993  11.834
34067SOL    HW1 4034   6.550   6.919  11.785
34067SOL    HW2 4035   6.423   6.977  11.842
34068SOL     OW 4036   1.158   4.808   6.034
34068SOL    HW1 4037   1.117   4.881   6.081
34068SOL    HW2 4038   1.180   4.845   5.949
34069SOL     OW 4039   1.171   8.952  11.332
34069SOL    HW1 4040   1.224   8.936  11.254
34069SOL    HW2 4041   1.148   8.865  11.363
34070SOL     OW 4042   0.908   6.789   8.863
34070SOL    HW1 4043   0.831   6.752   8.821
34070SOL    HW2 4044   0.883   6.880   8.882
34071SOL     OW 4045   8.527  13.045  14.377
34071SOL    HW1 4046   8.493  12.970  14.427
34071SOL    HW2 4047   8.471  13.118  14.403
34072SOL     OW 4048  13.746   6.680   9.141
34072SOL    HW1 4049  13.698   6.672   9.224
34072SOL    HW2 4050  13.831   6.640   9.159
34073SOL     OW 4051   4.738  11.297   7.987
34073SOL    HW1 4052   4.822  11.258   8.011
34073SOL    HW2 4053   4.711  11.249   7.908
34074SOL     OW 4054   9.012   0.662  14.083
34074SOL    HW1 4055   8.948   0.711  14.031
34074SOL    HW2 4056   9.096   0.701  14.060
34075SOL     OW 4057   5.040   8.665  12.082
34075SOL    HW1 4058   5.031   8.725  12.008
34075SOL    HW2 4059   5.013   8.716  12.158
34076SOL     OW 4060  11.804   7.098  10.960
34076SOL    HW1 4061  11.792   7.139  10.874
34076SOL    HW2 4062  11.793   7.170  11.022
34077SOL     OW 4063  11.447  11.714   6.791
34077SOL    HW1 4064  11.389  11.666   6.850
34077SOL    HW2 4065  11.423  11.685   6.704
34078SOL     OW 4066  13.563  12.452   5.100
34078SOL    HW1 4067  13.565  12.543   5.071
34078SOL    HW2 4068  13.497  12.450   5.169
34079SOL     OW 4069   0.205  10.093   3.042
34079SOL    HW1 4070   0.183  10.004   3.071
34079SOL    HW2 4071   0.300  10.099   3.053
34080SOL     OW 4072   4.578   9.985  14.387
34080SOL    HW1 4073   4.566  10.063  14.442
34080SOL    HW2 4074   4.673   9.979  14.375
34081SOL     OW 4075  10.258   2.921   6.509
34081SOL    HW1 4076  10.168   2.945   6.530
34081SOL    HW2 4077  10.296   2.897   6.593
34082SOL     OW 4078   1.302  13.671  12.444
34082SOL    HW1 4079   1.248  13.641  12.518
34082SOL    HW2 4080   1.353  13.744  12.480
34083SOL     OW 4081   4.062   5.959   0.189
34083SOL    HW1 4082   4.032   6.005   0.111
34083SOL    HW2 4083   4.096   6.028   0.247
34084SOL     OW 4084   7.339   4.004   7.790
34084SOL    HW1 4085   7.377   4.059   7.859
34084SOL    HW2 4086   7.325   3.919   7.833
34085SOL     OW 4087   9.974   1.266   8.454
34085SOL    HW1 4088  10.005   1.275   8.544
34085SOL    HW2 4089  10.051   1.238   8.405
34086SOL     OW 4090   2.650  12.857  11.306
34086SOL    HW1 4091   2.555  12.847  11.310
34086SOL    HW2 4092   2.666  12.949  11.331
34087SOL     OW 4093   3.086  10.863   9.818
34087SOL    HW1 4094   3.151  10.817   9.766
34087SOL    HW2 4095   3.103  10.835   9.908
34088SOL     OW 4096   4.065   5.066   5.567
34088SOL    HW1 4097   4.043   4.988   5.618
34088SOL    HW2 4098   4.132   5.111   5.619
34089SOL     OW 4099   5.508   0.778  11.862
34089SOL    HW1 4100   5.412   0.768  11.863
34089SOL    HW2 4101   5.529   0.806  11.773
34090SOL     OW 4102   9.481  10.288   4.929
34090SOL    HW1 4103   9.468  10.247   5.014
34090SOL    HW2 4104   9.470  10.217   4.866
34091SOL     OW 4105  11.158   1.344   4.933
34091SOL    HW1 4106  11.162   1.321   4.841
34091SOL    HW2 4107  11.119   1.268   4.975
34092SOL     OW 4108  14.504  12.691   8.831
34092SOL    HW1 4109  14.466  12.746   8.900
34092SOL    HW2 4110  14.519  12.750   8.758
34093SOL     OW 4111   4.763   6.267  13.799
34093SOL    HW1 4112   4.834   6.222  13.753
34093SOL    HW2 4113   4.683   6.229  13.762
34094SOL     OW 4114   8.669   4.983  11.836
34094SOL    HW1 4115   8.686   4.902  11.884
34094SOL    HW2 4116   8.679   5.053  11.901
34095SOL     OW 4117  11.017   2.586   2.291
34095SOL    HW1 4118  11.108   2.557   2.295
34095SOL    HW2 4119  11.019   2.664   2.235
34096SOL     OW 4120   1.503   8.083  10.128
34096SOL    HW1 4121   1.570   8.147  10.152
34096SOL    HW2 4122   1.431   8.136  10.093
34097SOL     OW 4123   2.942   8.277   8.055
34097SOL    HW1 4124   2.851   8.271   8.026
34097SOL    HW2 4125   2.975   8.358   8.016
34098SOL     OW 4126  11.455   6.988   1.134
34098SOL    HW1 4127  11.384   6.926   1.154
34098SOL    HW2 4128  11.487   6.960   1.048
34099SOL     OW 4129   0.576   8.794  12.770
34099SOL    HW1 4130   0.600   8.827  12.857
34099SOL    HW2 4131   0.599   8.701  12.772
34100SOL     OW 4132   4.429   3.734   2.360
34100SOL    HW1 4133   4.395   3.806   2.307
34100SOL    HW2 4134   4.353   3.700   2.406
34101SOL     OW 4135  10.549   6.514   3.344
34101SOL    HW1 4136  10.467   6.541   3.304
34101SOL    HW2 4137  10.530   6.429   3.384
34102SOL     OW 4138  12.532   3.173  12.255
34102SOL    HW1 4139  12.552   3.266  12.242
34102SOL    HW2 4140  12.448   3.173  12.301
34103SOL     OW 4141   1.133   8.196   1.113
34103SOL    HW1 4142   1.191   8.218   1.186
34103SOL    HW2 4143   1.092   8.280   1.089
34104SOL     OW 4144  14.563   6.106  14.014
34104SOL    HW1 4145  14.474   6.131  13.988
34104SOL    HW2 4146  14.569   6.013  13.991
34105SOL     OW 4147   1.085  11.077   8.057
34105SOL    HW1 4148   1.027  11.025   8.002
34105SOL    HW2 4149   1.168  11.029   8.056
34106SOL     OW 4150  12.213   1.856   2.334
34106SOL    HW1 4151  12.261   1.806   2.400
34106SOL    HW2 4152  12.278   1.879   2.268
34107SOL     OW 4153  12.262   5.235   9.071
34107SOL    HW1 4154  12.204   5.311   9.067
34107SOL    HW2 4155  12.259   5.198   8.983
34108SOL     OW 4156   2.942   8.663  12.069
34108SOL    HW1 4157   3.036   8.659  12.049
34108SOL    HW2 4158   2.934   8.621  12.154
34109SOL     OW 4159  12.765   3.884   4.271
34109SOL    HW1 4160  12.752   3.798   4.309
34109SOL    HW2 4161  12.681   3.929   4.283
34110SOL     OW 4162   9.813   9.387   4.194
34110SOL    HW1 4163   9.900   9.364   4.228
34110SOL    HW2 4164   9.757   9.392   4.271
34111SOL     OW 4165  11.023  11.709   5.371
34111SOL    HW1 4166  10.987  11.792   5.401
34111SOL    HW2 4167  11.020  11.652   5.448
34112SOL     OW 4168  13.396   2.494   2.939
34112SOL    HW1 4169  13.437   2.503   2.853
34112SOL    HW2 4170  13.456   2.438   2.988
34113SOL     OW 4171   3.256   8.616  11.693
34113SOL    HW1 4172   3.313   8.564  11.636
34113SOL    HW2 4173   3.229   8.556  11.762
34114SOL     OW 4174   1.593   0.937  14.096
34114SOL    HW1 4175   1.502   0.930  14.124
34114SOL    HW2 4176   1.589   0.989  14.016
34115SOL     OW 4177  14.414   5.265   7.640
34115SOL    HW1 4178  14.473   5.213   7.694
34115SOL    HW2 4179  14.332   5.216   7.640
34116SOL     OW 4180   3.045   1.188   0.352
34116SOL    HW1 4181   3.070   1.273   0.315
34116SOL    HW2 4182   3.021   1.206   0.442
34117SOL     OW 4183   0.261   5.028   0.248
34117SOL    HW1 4184   0.226   5.105   0.204
34117SOL    HW2 4185   0.243   5.044   0.341
34118SOL     OW 4186   0.424  13.223  13.952
34118SOL    HW1 4187   0.344  13.171  13.946
34118SOL    HW2 4188   0.434  13.261  13.864
34119SOL     OW 4189  10.217  12.688  13.206
34119SOL    HW1 4190  10.305  12.668  13.174
34119SOL    HW2 4191  10.158  12.647  13.142
34120SOL     OW 4192  11.479   8.224   1.080
34120SOL    HW1 4193  11.554   8.275   1.048
34120SOL    HW2 4194  11.437   8.280   1.144
34121SOL     OW 4195  14.257   8.096   4.554
34121SOL    HW1 4196  14.234   8.063   4.641
34121SOL    HW2 4197  14.337   8.147   4.568
34122SOL     OW 4198  11.814  10.330   1.438
34122SOL    HW1 4199  11.734  10.287   1.408
34122SOL    HW2 4200  11.792  10.423   1.437
34123SOL     OW 4201   3.894   8.953   0.087
34123SOL    HW1 4202   3.876   8.974  14.874
34123SOL    HW2 4203   3.942   9.030   0.119
34124SOL     OW 4204   1.704   4.952  10.834
34124SOL    HW1 4205   1.794   4.937  10.861
34124SOL    HW2 4206   1.711   5.005  10.754
34125SOL     OW 4207   5.702   6.344  12.095
34125SOL    HW1 4208   5.758   6.360  12.019
34125SOL    HW2 4209   5.644   6.419  12.098
34126SOL     OW 4210   2.989  13.499   9.124
34126SOL    HW1 4211   2.987  13.565   9.193
34126SOL    HW2 4212   3.063  13.443   9.146
34127SOL     OW 4213  14.021  14.549   1.035
34127SOL    HW1 4214  14.019  14.639   1.066
34127SOL    HW2 4215  14.105  14.515   1.065
34128SOL     OW 4216   6.219   9.566   3.401
34128SOL    HW1 4217   6.255   9.572   3.489
34128SOL    HW2 4218   6.221   9.656   3.369
34129SOL     OW 4219   6.147  13.657   2.570
34129SOL    HW1 4220   6.194  13.583   2.532
34129SOL    HW2 4221   6.091  13.689   2.499
34130SOL     OW 4222   7.845   0.498   2.747
34130SOL    HW1 4223   7.759   0.493   2.789
34130SOL    HW2 4224   7.907   0.493   2.820
34131SOL     OW 4225   0.798   1.487   4.440
34131SOL    HW1 4226   0.711   1.511   4.410
34131SOL    HW2 4227   0.792   1.490   4.535
34132SOL     OW 4228   9.855   6.975   1.208
34132SOL    HW1 4229   9.859   6.908   1.275
34132SOL    HW2 4230   9.893   7.053   1.250
34133SOL     OW 4231   4.024   4.798  12.840
34133SOL    HW1 4232   3.982   4.850  12.908
34133SOL    HW2 4233   3.952   4.752  12.796
34134SOL     OW 4234   5.460   4.778   7.687
34134SOL    HW1 4235   5.378   4.745   7.724
34134SOL    HW2 4236   5.441   4.793   7.595
34135SOL     OW 4237   4.798   7.383   3.946
34135SOL    HW1 4238   4.718   7.374   3.894
34135SOL    HW2 4239   4.769   7.427   4.026
34136SOL     OW 4240   1.302   1.634   7.506
34136SOL    HW1 4241   1.294   1.723   7.541
34136SOL    HW2 4242   1.212   1.602   7.500
34137SOL     OW 4243   1.764   1.925   5.271
34137SOL    HW1 4244   1.687   1.966   5.233
34137SOL    HW2 4245   1.753   1.937   5.366
34138SOL     OW 4246   7.688   3.889   6.890
34138SOL    HW1 4247   7.713   3.947   6.961
34138SOL    HW2 4248   7.676   3.804   6.932
34139SOL     OW 4249   3.395  14.438   2.641
34139SOL    HW1 4250   3.462  14.490   2.684
34139SOL    HW2 4251   3.440  14.359   2.612
34140SOL     OW 4252   6.767   5.393   5.861
34140SOL    HW1 4253   6.785   5.422   5.771
34140SOL    HW2 4254   6.854   5.372   5.896
34141SOL     OW 4255   7.594   5.706   5.318
34141SOL    HW1 4256   7.562   5.793   5.344
34141SOL    HW2 4257   7.527   5.646   5.352
34142SOL     OW 4258  11.849   4.419   5.923
34142SOL    HW1 4259  11.836   4.509   5.892
34142SOL    HW2 4260  11.762   4.380   5.921
34143SOL     OW 4261   5.416  14.834   9.719
34143SOL    HW1 4262   5.463  14.750   9.713
34143SOL    HW2 4263   5.469   0.007   9.779
34144SOL     OW 4264  13.872   2.121  12.479
34144SOL    HW1 4265  13.947   2.177  12.502
34144SOL    HW2 4266  13.894   2.087  12.392
34145SOL     OW 4267  14.459   4.173   5.407
34145SOL    HW1 4268  14.478   4.267   5.411
34145SOL    HW2 4269  14.516   4.134   5.473
34146SOL     OW 4270   0.718   8.697  12.479
34146SOL    HW1 4271   0.678   8.614  12.503
34146SOL    HW2 4272   0.802   8.698  12.526
34147SOL     OW 4273  12.673  14.075  13.444
34147SOL    HW1 4274  12.752  14.029  13.416
34147SOL    HW2 4275  12.674  14.157  13.394
34148SOL     OW 4276   2.964   3.736   7.256
34148SOL    HW1 4277   2.884   3.726   7.308
34148SOL    HW2 4278   2.971   3.830   7.241
34149SOL     OW 4279   9.110   2.003  13.709
34149SOL    HW1 4280   9.158   2.001  13.627
34149SOL    HW2 4281   9.072   1.915  13.716
34150SOL     OW 4282   7.998  10.827  13.214
34150SOL    HW1 4283   7.964  10.904  13.169
34150SOL    HW2 4284   7.931  10.760  13.203
34151SOL     OW 4285   0.366   5.089  11.722
34151SOL    HW1 4286   0.448   5.123  11.758
34151SOL    HW2 4287   0.356   5.134  11.638
34152SOL     OW 4288  14.144   7.398  13.605
34152SOL    HW1 4289  14.228   7.354  13.615
34152SOL    HW2 4290  14.098   7.348  13.538
34153SOL     OW 4291  11.372   0.833  12.199
34153SOL    HW1 4292  11.379   0.928  12.212
34153SOL    HW2 4293  11.460   0.800  12.218
34154SOL     OW 4294   2.882   4.006   6.475
34154SOL    HW1 4295   2.925   4.090   6.454
34154SOL    HW2 4296   2.955   3.946   6.492
34155SOL     OW 4297   6.859   6.732   6.641
34155SOL    HW1 4298   6.817   6.725   6.555
34155SOL    HW2 4299   6.897   6.645   6.656
34156SOL     OW 4300  14.221   8.459   1.587
34156SOL    HW1 4301  14.297   8.401   1.601
34156SOL    HW2 4302  14.248   8.542   1.627
34157SOL     OW 4303   9.310  14.215  13.994
34157SOL    HW1 4304   9.279  14.204  14.084
34157SOL    HW2 4305   9.396  14.256  14.004
34158SOL     OW 4306   3.203   6.013   1.726
34158SOL    HW1 4307   3.137   6.040   1.662
34158SOL    HW2 4308   3.218   6.090   1.781
34159SOL     OW 4309  12.579   5.573  13.056
34159SOL    HW1 4310  12.664   5.613  13.039
34159SOL    HW2 4311  12.592   5.479  13.042
34160SOL     OW 4312  12.654  10.585  11.686
34160SOL    HW1 4313  12.578  10.572  11.743
34160SOL    HW2 4314  12.672  10.497  11.652
34161SOL     OW 4315   3.913   6.525  10.655
34161SOL    HW1 4316   3.948   6.597  10.602
34161SOL    HW2 4317   3.847   6.485  10.598
34162SOL     OW 4318  12.477  14.841   4.238
34162SOL    HW1 4319  12.460   0.001   4.324
34162SOL    HW2 4320  12.396  14.795   4.216
34163SOL     OW 4321   0.882   9.119   6.233
34163SOL    HW1 4322   0.847   9.033   6.256
34163SOL    HW2 4323   0.912   9.109   6.143
34164SOL     OW 4324   2.924  13.798   3.168
34164SOL    HW1 4325   2.918  13.756   3.253
34164SOL    HW2 4326   3.016  13.821   3.159
34165SOL     OW 4327   5.952   4.280  11.698
34165SOL    HW1 4328   6.046   4.268  11.703
34165SOL    HW2 4329   5.919   4.196  11.666
34166SOL     OW 4330  10.191  11.848  11.203
34166SOL    HW1 4331  10.195  11.920  11.266
34166SOL    HW2 4332  10.277  11.847  11.162
34167SOL     OW 4333  13.431  13.478   6.787
34167SOL    HW1 4334  13.520  13.448   6.773
34167SOL    HW2 4335  13.408  13.523   6.705
34168SOL     OW 4336   2.509   5.992   3.157
34168SOL    HW1 4337   2.492   5.902   3.185
34168SOL    HW2 4338   2.427   6.038   3.176
34169SOL     OW 4339  14.198   3.185   4.787
34169SOL    HW1 4340  14.111   3.149   4.770
34169SOL    HW2 4341  14.205   3.188   4.882
34170SOL     OW 4342   2.949  10.010   1.736
34170SOL    HW1 4343   2.999   9.930   1.722
34170SOL    HW2 4344   2.865   9.994   1.693
34171SOL     OW 4345  14.107   0.527   6.198
34171SOL    HW1 4346  14.181   0.500   6.144
34171SOL    HW2 4347  14.040   0.461   6.181
34172SOL     OW 4348   4.895  10.998   2.939
34172SOL    HW1 4349   4.805  11.017   2.912
34172SOL    HW2 4350   4.905  11.044   3.022
34173SOL     OW 4351  10.163   1.056   8.555
34173SOL    HW1 4352  10.107   1.055   8.633
34173SOL    HW2 4353  10.244   1.098   8.585
34174SOL     OW 4354   8.232  12.874   7.265
34174SOL    HW1 4355   8.249  12.843   7.354
34174SOL    HW2 4356   8.137  12.881   7.260
34175SOL     OW 4357   0.035   4.534   7.097
34175SOL    HW1 4358   0.023   4.475   7.022
34175SOL    HW2 4359   0.110   4.588   7.073
34176SOL     OW 4360   4.552   7.814   6.299
34176SOL    HW1 4361   4.483   7.880   6.292
34176SOL    HW2 4362   4.522   7.755   6.368
34177SOL     OW 4363   2.836   3.317   3.347
34177SOL    HW1 4364   2.749   3.356   3.335
34177SOL    HW2 4365   2.884   3.381   3.399
34178SOL     OW 4366   6.265   1.468   2.623
34178SOL    HW1 4367   6.236   1.379   2.605
34178SOL    HW2 4368   6.356   1.458   2.653
34179SOL     OW 4369  10.726  14.822   3.921
34179SOL    HW1 4370  10.672   0.021   3.906
34179SOL    HW2 4371  10.785  14.819   3.845
34180SOL     OW 4372   6.585   2.091   2.574
34180SOL    HW1 4373   6.671   2.080   2.615
34180SOL    HW2 4374   6.529   2.026   2.618
34181SOL     OW 4375   3.488  11.059   2.005
34181SOL    HW1 4376   3.427  11.117   2.051
34181SOL    HW2 4377   3.571  11.071   2.050
34182SOL     OW 4378   6.109   3.928   2.600
34182SOL    HW1 4379   6.200   3.914   2.627
34182SOL    HW2 4380   6.080   4.003   2.652
34183SOL     OW 4381   1.121   6.630   4.088
34183SOL    HW1 4382   1.146   6.546   4.127
34183SOL    HW2 4383   1.031   6.644   4.117
34184SOL     OW 4384   4.735   6.606   3.490
34184SOL    HW1 4385   4.692   6.582   3.572
34184SOL    HW2 4386   4.795   6.534   3.473
34185SOL     OW 4387   3.254  14.078   5.405
34185SOL    HW1 4388   3.175  14.130   5.394
34185SOL    HW2 4389   3.222  13.988   5.415
34186SOL     OW 4390   0.680   8.215   2.129
34186SOL    HW1 4391   0.630   8.180   2.203
34186SOL    HW2 4392   0.658   8.308   2.127
34187SOL     OW 4393  11.548   6.406   2.510
34187SOL    HW1 4394  11.488   6.359   2.568
34187SOL    HW2 4395  11.521   6.380   2.421
34188SOL     OW 4396  14.054  13.462   7.085
34188SOL    HW1 4397  13.993  13.461   7.159
34188SOL    HW2 4398  14.028  13.539   7.034
34189SOL     OW 4399   9.478   2.434   7.430
34189SOL    HW1 4400   9.390   2.398   7.418
34189SOL    HW2 4401   9.480   2.511   7.374
34190SOL     OW 4402   2.787  10.740   4.931
34190SOL    HW1 4403   2.718  10.801   4.955
34190SOL    HW2 4404   2.817  10.770   4.845
34191SOL     OW 4405   1.185   4.726  11.495
34191SOL    HW1 4406   1.181   4.643  11.448
34191SOL    HW2 4407   1.127   4.784  11.446
34192SOL     OW 4408  12.616   2.168  10.289
34192SOL    HW1 4409  12.524   2.171  10.314
34192SOL    HW2 4410  12.615   2.153  10.194
34193SOL     OW 4411   5.160  12.519   4.047
34193SOL    HW1 4412   5.224  12.488   4.110
34193SOL    HW2 4413   5.182  12.611   4.033
34194SOL     OW 4414   4.378   3.465  10.257
34194SOL    HW1 4415   4.363   3.523  10.332
34194SOL    HW2 4416   4.400   3.525  10.185
34195SOL     OW 4417   0.909   8.428   9.450
34195SOL    HW1 4418   0.881   8.349   9.403
34195SOL    HW2 4419   1.003   8.418   9.461
34196SOL     OW 4420   7.566  10.774  10.867
34196SOL    HW1 4421   7.554  10.691  10.915
34196SOL    HW2 4422   7.654  10.802  10.892
34197SOL     OW 4423   6.351   5.304  14.580
34197SOL    HW1 4424   6.347   5.341  14.492
34197SOL    HW2 4425   6.420   5.353  14.623
34198SOL     OW 4426   7.398   7.589   9.371
34198SOL    HW1 4427   7.488   7.565   9.350
34198SOL    HW2 4428   7.345   7.524   9.325
34199SOL     OW 4429   3.155   4.437   8.405
34199SOL    HW1 4430   3.166   4.348   8.436
34199SOL    HW2 4431   3.231   4.484   8.438
34200SOL     OW 4432   9.546   9.562   6.983
34200SOL    HW1 4433   9.494   9.606   7.050
34200SOL    HW2 4434   9.583   9.485   7.028
34201SOL     OW 4435  11.130   6.430   2.109
34201SOL    HW1 4436  11.117   6.370   2.183
34201SOL    HW2 4437  11.046   6.435   2.065
34202SOL     OW 4438   5.775  14.053   9.223
34202SOL    HW1 4439   5.767  14.119   9.292
34202SOL    HW2 4440   5.744  13.972   9.263
34203SOL     OW 4441   7.757   4.217   9.382
34203SOL    HW1 4442   7.664   4.225   9.359
34203SOL    HW2 4443   7.789   4.145   9.328
34204SOL     OW 4444   6.186  10.388   6.391
34204SOL    HW1 4445   6.202  10.355   6.302
34204SOL    HW2 4446   6.270  10.423   6.419
34205SOL     OW 4447  13.068   1.280   7.239
34205SOL    HW1 4448  13.078   1.196   7.194
34205SOL    HW2 4449  13.132   1.338   7.197
34206SOL     OW 4450   7.031  11.242   6.512
34206SOL    HW1 4451   7.081  11.229   6.592
34206SOL    HW2 4452   7.063  11.175   6.452
34207SOL     OW 4453   9.169   4.752  13.752
34207SOL    HW1 4454   9.147   4.841  13.778
34207SOL    HW2 4455   9.254   4.735  13.794
34208SOL     OW 4456  12.218  11.272   0.257
34208SOL    HW1 4457  12.266  11.296   0.337
34208SOL    HW2 4458  12.285  11.271   0.189
34209SOL     OW 4459  11.701   7.115  13.310
34209SOL    HW1 4460  11.728   7.050  13.374
34209SOL    HW2 4461  11.660   7.064  13.239
34210SOL     OW 4462   7.136   9.977   7.867
34210SOL    HW1 4463   7.168   9.966   7.778
34210SOL    HW2 4464   7.114   9.889   7.897
34211SOL     OW 4465  13.040   9.747  11.753
34211SOL    HW1 4466  12.958   9.719  11.793
34211SOL    HW2 4467  13.065   9.674  11.696
34212SOL     OW 4468   1.553  10.143   5.760
34212SOL    HW1 4469   1.521  10.171   5.846
34212SOL    HW2 4470   1.582  10.223   5.718
34213SOL     OW 4471   9.403   9.824  14.029
34213SOL    HW1 4472   9.433   9.845  14.118
34213SOL    HW2 4473   9.431   9.733  14.016
34214SOL     OW 4474   4.341  11.077  12.828
34214SOL    HW1 4475   4.264  11.021  12.841
34214SOL    HW2 4476   4.381  11.084  12.915
34215SOL     OW 4477   8.049   9.275   0.219
34215SOL    HW1 4478   7.978   9.339   0.213
34215SOL    HW2 4479   8.061   9.260   0.312
34216SOL     OW 4480  11.669   9.921  10.935
34216SOL    HW1 4481  11.588   9.900  10.982
34216SOL    HW2 4482  11.653   9.894  10.845
34217SOL     OW 4483   8.044   1.290   7.090
34217SOL    HW1 4484   7.972   1.343   7.124
34217SOL    HW2 4485   8.012   1.258   7.005
34218SOL     OW 4486  12.798   7.017   9.578
34218SOL    HW1 4487  12.781   6.923   9.578
34218SOL    HW2 4488  12.765   7.048   9.494
34219SOL     OW 4489   5.851  12.525   5.009
34219SOL    HW1 4490   5.906  12.482   5.075
34219SOL    HW2 4491   5.776  12.558   5.058
34220SOL     OW 4492   1.557   8.930   7.088
34220SOL    HW1 4493   1.565   8.933   6.993
34220SOL    HW2 4494   1.485   8.869   7.105
34221SOL     OW 4495   0.388   8.165   7.001
34221SOL    HW1 4496   0.453   8.226   6.967
34221SOL    HW2 4497   0.304   8.207   6.981
34222SOL     OW 4498   9.676  10.826  14.156
34222SOL    HW1 4499   9.704  10.834  14.065
34222SOL    HW2 4500   9.743  10.770  14.197
34223SOL     OW 4501   0.429   3.221  10.242
34223SOL    HW1 4502   0.479   3.293  10.282
34223SOL    HW2 4503   0.367   3.195  10.310
34224SOL     OW 4504   8.567   2.528   0.362
34224SOL    HW1 4505   8.627   2.464   0.322
34224SOL    HW2 4506   8.616   2.610   0.359
34225SOL     OW 4507   6.072  12.871   9.531
34225SOL    HW1 4508   6.085  12.776   9.524
34225SOL    HW2 4509   6.083  12.902   9.441
34226SOL     OW 4510   4.906  12.198   1.687
34226SOL    HW1 4511   4.903  12.171   1.779
34226SOL    HW2 4512   4.995  12.176   1.659
34227SOL     OW 4513   4.344   5.555   6.341
34227SOL    HW1 4514   4.321   5.528   6.431
34227SOL    HW2 4515   4.263   5.543   6.292
34228SOL     OW 4516   0.187  10.355   8.312
34228SOL    HW1 4517   0.103  10.309   8.311
34228SOL    HW2 4518   0.227  10.331   8.396
34229SOL     OW 4519   7.874   9.893   9.643
34229SOL    HW1 4520   7.849   9.968   9.589
34229SOL    HW2 4521   7.962   9.913   9.673
34230SOL     OW 4522   4.036   5.501   0.691
34230SOL    HW1 4523   3.966   5.436   0.700
34230SOL    HW2 4524   4.031   5.530   0.600
34231SOL     OW 4525   3.936   6.469  13.453
34231SOL    HW1 4526   3.969   6.526  13.522
34231SOL    HW2 4527   3.939   6.522  13.374
34232SOL     OW 4528   2.727  13.486   3.176
34232SOL    HW1 4529   2.637  13.492   3.208
34232SOL    HW2 4530   2.729  13.542   3.098
34233SOL     OW 4531  13.527   0.426   9.950
34233SOL    HW1 4532  13.447   0.448   9.902
34233SOL    HW2 4533  13.583   0.502   9.938
34234SOL     OW 4534  10.693   3.677  14.864
34234SOL    HW1 4535  10.645   3.760  14.860
34234SOL    HW2 4536  10.713   3.656  14.773
34235SOL     OW 4537   6.072   8.172   9.486
34235SOL    HW1 4538   6.074   8.237   9.416
34235SOL    HW2 4539   5.999   8.114   9.463
34236SOL     OW 4540  12.268   7.814   2.439
34236SOL    HW1 4541  12.197   7.867   2.404
34236SOL    HW2 4542  12.248   7.725   2.410
34237SOL     OW 4543  14.588   2.560  11.373
34237SOL    HW1 4544  14.566   2.479  11.419
34237SOL    HW2 4545  14.684   2.563  11.376
34238SOL     OW 4546   6.594   9.510  14.219
34238SOL    HW1 4547   6.634   9.584  14.266
34238SOL    HW2 4548   6.549   9.550  14.145
34239SOL     OW 4549   7.204   5.350  12.505
34239SOL    HW1 4550   7.178   5.272  12.553
34239SOL    HW2 4551   7.129   5.370  12.449
34240SOL     OW 4552   6.258   4.305   2.976
34240SOL    HW1 4553   6.292   4.259   3.054
34240SOL    HW2 4554   6.323   4.288   2.908
34241SOL     OW 4555   6.830  10.899   9.177
34241SOL    HW1 4556   6.924  10.894   9.165
34241SOL    HW2 4557   6.809  10.992   9.171
34242SOL     OW 4558   4.765  13.966   3.198
34242SOL    HW1 4559   4.681  13.996   3.232
34242SOL    HW2 4560   4.782  13.884   3.245
34243SOL     OW 4561   6.908   2.568   7.181
34243SOL    HW1 4562   6.848   2.508   7.136
34243SOL    HW2 4563   6.850   2.622   7.235
34244SOL     OW 4564  11.442  13.475   6.070
34244SOL    HW1 4565  11.386  13.430   6.133
34244SOL    HW2 4566  11.389  13.481   5.990
34245SOL     OW 4567   0.189   7.818   2.262
34245SOL    HW1 4568   0.154   7.827   2.351
34245SOL    HW2 4569   0.112   7.826   2.205
34246SOL     OW 4570  12.799   3.428  14.802
34246SOL    HW1 4571  12.720   3.443  14.854
34246SOL    HW2 4572  12.785   3.341  14.763
34247SOL     OW 4573   7.401   3.146   5.037
34247SOL    HW1 4574   7.450   3.104   5.108
34247SOL    HW2 4575   7.331   3.083   5.017
34248SOL     OW 4576  14.855  11.881   5.428
34248SOL    HW1 4577  14.864  11.975   5.442
34248SOL    HW2 4578  14.761  11.868   5.416
34249SOL     OW 4579   8.815   9.999   5.478
34249SOL    HW1 4580   8.787   9.908   5.470
34249SOL    HW2 4581   8.822  10.030   5.388
34250SOL     OW 4582  13.699   4.269   3.870
34250SOL    HW1 4583  13.723   4.338   3.932
34250SOL    HW2 4584  13.741   4.294   3.788
34251SOL     OW 4585   4.081   4.195  14.191
34251SOL    HW1 4586   4.156   4.207  14.250
34251SOL    HW2 4587   4.074   4.278  14.144
34252SOL     OW 4588   9.910   8.254  11.201
34252SOL    HW1 4589   9.996   8.211  11.198
34252SOL    HW2 4590   9.911   8.315  11.127
34253SOL     OW 4591   3.387  11.515  14.149
34253SOL    HW1 4592   3.399  11.422  14.133
34253SOL    HW2 4593   3.298  11.523  14.184
34254SOL     OW 4594   4.687   2.772   8.296
34254SOL    HW1 4595   4.770   2.775   8.250
34254SOL    HW2 4596   4.709   2.799   8.386
34255SOL     OW 4597   0.424  10.284   5.146
34255SOL    HW1 4598   0.356  10.285   5.079
34255SOL    HW2 4599   0.504  10.305   5.099
34256SOL     OW 4600  10.422  14.337   5.424
34256SOL    HW1 4601  10.446  14.331   5.332
34256SOL    HW2 4602  10.460  14.420   5.453
34257SOL     OW 4603   3.238   3.146   7.492
34257SOL    HW1 4604   3.243   3.241   7.487
34257SOL    HW2 4605   3.295   3.122   7.565
34258SOL     OW 4606   0.291   9.500   5.702
34258SOL    HW1 4607   0.387   9.501   5.707
34258SOL    HW2 4608   0.268   9.589   5.674
34259SOL     OW 4609   1.338   2.555   9.761
34259SOL    HW1 4610   1.275   2.608   9.711
34259SOL    HW2 4611   1.375   2.495   9.696
34260SOL     OW 4612   1.438  12.213   3.898
34260SOL    HW1 4613   1.421  12.120   3.885
34260SOL    HW2 4614   1.387  12.256   3.829
34261SOL     OW 4615   3.598   4.875   4.430
34261SOL    HW1 4616   3.693   4.879   4.424
34261SOL    HW2 4617   3.581   4.861   4.523
34262SOL     OW 4618   7.756   2.223   7.844
34262SOL    HW1 4619   7.786   2.313   7.835
34262SOL    HW2 4620   7.750   2.209   7.938
34263SOL     OW 4621   4.148   4.460   1.380
34263SOL    HW1 4622   4.186   4.541   1.346
34263SOL    HW2 4623   4.097   4.487   1.457
34264SOL     OW 4624   1.271   3.576   8.125
34264SOL    HW1 4625   1.325   3.599   8.200
34264SOL    HW2 4626   1.197   3.527   8.161
34265SOL     OW 4627   1.296   7.746   0.105
34265SOL    HW1 4628   1.206   7.773   0.121
34265SOL    HW2 4629   1.317   7.781   0.018
34266SOL     OW 4630   3.123   5.545   2.893
34266SOL    HW1 4631   3.105   5.519   2.803
34266SOL    HW2 4632   3.041   5.525   2.940
34267SOL     OW 4633   1.879  14.038  10.479
34267SOL    HW1 4634   1.827  13.985  10.539
34267SOL    HW2 4635   1.837  14.028  10.394
34268SOL     OW 4636  14.476  11.804   8.775
34268SOL    HW1 4637  14.546  11.764   8.724
34268SOL    HW2 4638  14.484  11.765   8.862
34269SOL     OW 4639   7.291  10.774  14.352
34269SOL    HW1 4640   7.200  10.744  14.357
34269SOL    HW2 4641   7.343  10.694  14.362
34270SOL     OW 4642   8.934   0.194   2.460
34270SOL    HW1 4643   8.875   0.154   2.524
34270SOL    HW2 4644   8.974   0.120   2.415
34271SOL     OW 4645   4.809   8.083   0.887
34271SOL    HW1 4646   4.861   8.092   0.807
34271SOL    HW2 4647   4.811   8.170   0.927
34272SOL     OW 4648   9.637  14.832   1.196
34272SOL    HW1 4649   9.705  14.862   1.257
34272SOL    HW2 4650   9.667  14.745   1.168
34273SOL     OW 4651  11.066   3.664  11.593
34273SOL    HW1 4652  11.151   3.665  11.548
34273SOL    HW2 4653  11.018   3.736  11.552
34274SOL     OW 4654   3.377   9.057   7.332
34274SOL    HW1 4655   3.389   9.001   7.255
34274SOL    HW2 4656   3.288   9.091   7.324
34275SOL     OW 4657   9.524  13.492  11.967
34275SOL    HW1 4658   9.448  13.472  12.021
34275SOL    HW2 4659   9.558  13.407  11.939
34276SOL     OW 4660   4.469   3.885   8.650
34276SOL    HW1 4661   4.533   3.921   8.712
34276SOL    HW2 4662   4.518   3.878   8.567
34277SOL     OW 4663   7.405   8.653   3.521
34277SOL    HW1 4664   7.440   8.563   3.520
34277SOL    HW2 4665   7.348   8.657   3.444
34278SOL     OW 4666  13.882   6.280   9.967
34278SOL    HW1 4667  13.941   6.338  10.015
34278SOL    HW2 4668  13.860   6.329   9.888
34279SOL     OW 4669   1.897   4.045   9.508
34279SOL    HW1 4670   1.866   3.965   9.550
34279SOL    HW2 4671   1.832   4.111   9.532
34280SOL     OW 4672   6.210  13.745   4.227
34280SOL    HW1 4673   6.142  13.719   4.289
34280SOL    HW2 4674   6.256  13.816   4.270
34281SOL     OW 4675  11.257   6.439  12.936
34281SOL    HW1 4676  11.181   6.394  12.972
34281SOL    HW2 4677  11.318   6.447  13.009
34282SOL     OW 4678   9.223   9.370   8.623
34282SOL    HW1 4679   9.205   9.282   8.590
34282SOL    HW2 4680   9.305   9.360   8.673
34283SOL     OW 4681   1.559  11.200  12.529
34283SOL    HW1 4682   1.584  11.246  12.449
34283SOL    HW2 4683   1.464  11.194  12.525
34284SOL     OW 4684  12.369   0.778  14.707
34284SOL    HW1 4685  12.432   0.813  14.770
34284SOL    HW2 4686  12.292   0.835  14.716
34285SOL     OW 4687   4.647   3.564   5.357
34285SOL    HW1 4688   4.676   3.484   5.402
34285SOL    HW2 4689   4.722   3.624   5.366
34286SOL     OW 4690   7.218  13.721  12.319
34286SOL    HW1 4691   7.306  13.685  12.314
34286SOL    HW2 4692   7.164  13.659  12.270
34287SOL     OW 4693   5.176   2.248   0.920
34287SOL    HW1 4694   5.141   2.245   0.831
34287SOL    HW2 4695   5.264   2.284   0.910
34288SOL     OW 4696   2.090   7.597   4.264
34288SOL    HW1 4697   2.050   7.532   4.323
34288SOL    HW2 4698   2.015   7.636   4.218
34289SOL     OW 4699   6.088   0.865   5.222
34289SOL    HW1 4700   6.083   0.883   5.128
34289SOL    HW2 4701   5.999   0.839   5.247
34290SOL     OW 4702   5.063   8.892   7.839
34290SOL    HW1 4703   4.976   8.905   7.801
34290SOL    HW2 4704   5.049   8.900   7.934
34291SOL     OW 4705  12.223   2.489  11.884
34291SOL    HW1 4706  12.275   2.554  11.931
34291SOL    HW2 4707  12.136   2.527  11.878
34292SOL     OW 4708   7.720  14.480   6.731
34292SOL    HW1 4709   7.801  14.454   6.688
34292SOL    HW2 4710   7.722  14.437   6.816
34293SOL     OW 4711  10.677   6.568   5.242
34293SOL    HW1 4712  10.602   6.612   5.283
34293SOL    HW2 4713  10.679   6.602   5.153
34294SOL     OW 4714   4.654   4.416   4.768
34294SOL    HW1 4715   4.578   4.387   4.818
34294SOL    HW2 4716   4.703   4.472   4.828
34295SOL     OW 4717   0.621  10.521   4.028
34295SOL    HW1 4718   0.561  10.481   4.091
34295SOL    HW2 4719   0.652  10.448   3.975
34296SOL     OW 4720   7.545   1.244   3.668
34296SOL    HW1 4721   7.540   1.153   3.639
34296SOL    HW2 4722   7.474   1.252   3.732
34297SOL     OW 4723   8.797   1.825   8.842
34297SOL    HW1 4724   8.877   1.851   8.888
34297SOL    HW2 4725   8.821   1.823   8.750
34298SOL     OW 4726  14.562   7.406  11.002
34298SOL    HW1 4727  14.638   7.463  11.014
34298SOL    HW2 4728  14.531   7.389  11.090
34299SOL     OW 4729   8.836   2.835   2.015
34299SOL    HW1 4730   8.753   2.863   2.053
34299SOL    HW2 4731   8.853   2.899   1.946
34300SOL     OW 4732  11.479   0.632   6.628
34300SOL    HW1 4733  11.436   0.677   6.555
34300SOL    HW2 4734  11.439   0.670   6.706
34301SOL     OW 4735  11.938   0.222   7.064
34301SOL    HW1 4736  11.949   0.248   7.156
34301SOL    HW2 4737  12.019   0.250   7.021
34302SOL     OW 4738   4.956   8.693  14.035
34302SOL    HW1 4739   4.862   8.707  14.028
34302SOL    HW2 4740   4.995   8.778  14.015
34303SOL     OW 4741  13.003   1.806   1.080
34303SOL    HW1 4742  12.908   1.814   1.087
34303SOL    HW2 4743  13.017   1.727   1.029
34304SOL     OW 4744  12.756   1.466  13.519
34304SOL    HW1 4745  12.684   1.412  13.552
34304SOL    HW2 4746  12.831   1.441  13.572
34305SOL     OW 4747   3.453  13.180   2.819
34305SOL    HW1 4748   3.431  13.164   2.910
34305SOL    HW2 4749   3.531  13.128   2.803
34306SOL     OW 4750   4.264  13.367  13.036
34306SOL    HW1 4751   4.232  13.316  13.111
34306SOL    HW2 4752   4.353  13.334  13.022
34307SOL     OW 4753   2.281   7.186  12.422
34307SOL    HW1 4754   2.337   7.108  12.425
34307SOL    HW2 4755   2.288   7.217  12.332
34308SOL     OW 4756  10.693  14.027   0.562
34308SOL    HW1 4757  10.644  13.948   0.585
34308SOL    HW2 4758  10.731  14.007   0.476
34309SOL     OW 4759   1.681   1.554   3.178
34309SOL    HW1 4760   1.708   1.466   3.150
34309SOL    HW2 4761   1.586   1.546   3.190
34310SOL     OW 4762  14.051   0.100  11.893
34310SOL    HW1 4763  14.110   0.058  11.955
34310SOL    HW2 4764  14.092   0.184  11.874
34311SOL     OW 4765   1.556   0.513  11.617
34311SOL    HW1 4766   1.465   0.516  11.646
34311SOL    HW2 4767   1.601   0.577  11.672
34312SOL     OW 4768   4.108   1.800   2.213
34312SOL    HW1 4769   4.135   1.746   2.140
34312SOL    HW2 4770   4.177   1.789   2.279
34313SOL     OW 4771   8.423  14.591   8.592
34313SOL    HW1 4772   8.427  14.595   8.497
34313SOL    HW2 4773   8.508  14.556   8.619
34314SOL     OW 4774   5.444  11.883   3.573
34314SOL    HW1 4775   5.533  11.917   3.583
34314SOL    HW2 4776   5.427  11.837   3.655
34315SOL     OW 4777   8.743   6.097   0.704
34315SOL    HW1 4778   8.793   6.143   0.771
34315SOL    HW2 4779   8.790   6.116   0.622
34316SOL     OW 4780  12.165   8.671   7.968
34316SOL    HW1 4781  12.237   8.634   7.916
34316SOL    HW2 4782  12.147   8.605   8.035
34317SOL     OW 4783  13.751   8.224   3.381
34317SOL    HW1 4784  13.796   8.267   3.309
34317SOL    HW2 4785  13.658   8.238   3.363
34318SOL     OW 4786   1.448   2.526   8.086
34318SOL    HW1 4787   1.513   2.590   8.114
34318SOL    HW2 4788   1.366   2.558   8.125
34319SOL     OW 4789  13.686   6.400  14.246
34319SOL    HW1 4790  13.666   6.493  14.249
34319SOL    HW2 4791  13.660   6.367  14.332
34320SOL     OW 4792   3.028  10.577  13.422
34320SOL    HW1 4793   3.093  10.633  13.379
34320SOL    HW2 4794   3.054  10.577  13.514
34321SOL     OW 4795   8.675   4.739   0.067
34321SOL    HW1 4796   8.737   4.720  14.876
34321SOL    HW2 4797   8.715   4.812   0.116
34322SOL     OW 4798   9.886   0.547   1.573
34322SOL    HW1 4799   9.792   0.541   1.555
34322SOL    HW2 4800   9.921   0.594   1.497
34323SOL     OW 4801   5.175   0.386  11.294
34323SOL    HW1 4802   5.270   0.381  11.286
34323SOL    HW2 4803   5.160   0.389  11.389
34324SOL     OW 4804  10.117   5.138  14.149
34324SOL    HW1 4805  10.067   5.219  14.135
34324SOL    HW2 4806  10.153   5.118  14.062
34325SOL     OW 4807   8.822   0.259   4.234
34325SOL    HW1 4808   8.753   0.225   4.290
34325SOL    HW2 4809   8.903   0.230   4.276
34326SOL     OW 4810   6.900   9.069   2.840
34326SOL    HW1 4811   6.922   9.152   2.883
34326SOL    HW2 4812   6.883   9.009   2.913
34327SOL     OW 4813   8.994   7.349   7.637
34327SOL    HW1 4814   8.981   7.399   7.717
34327SOL    HW2 4815   8.942   7.396   7.571
34328SOL     OW 4816   7.839   8.569  10.993
34328SOL    HW1 4817   7.910   8.624  10.961
34328SOL    HW2 4818   7.771   8.630  11.022
34329SOL     OW 4819   7.124  11.960  12.361
34329SOL    HW1 4820   7.193  12.000  12.414
34329SOL    HW2 4821   7.159  11.874  12.337
34330SOL     OW 4822   6.289   5.202   8.816
34330SOL    HW1 4823   6.249   5.127   8.860
34330SOL    HW2 4824   6.226   5.273   8.828
34331SOL     OW 4825   0.862   8.460   2.260
34331SOL    HW1 4826   0.936   8.424   2.212
34331SOL    HW2 4827   0.791   8.464   2.195
34332SOL     OW 4828   0.980  10.101   7.633
34332SOL    HW1 4829   0.953  10.076   7.545
34332SOL    HW2 4830   1.058  10.048   7.651
34333SOL     OW 4831   6.666   1.062  10.693
34333SOL    HW1 4832   6.712   1.023  10.619
34333SOL    HW2 4833   6.665   1.156  10.674
34334SOL     OW 4834   3.304   9.918  11.997
34334SOL    HW1 4835   3.317   9.892  12.088
34334SOL    HW2 4836   3.348   9.849  11.946
34335SOL     OW 4837   9.356   1.403  10.498
34335SOL    HW1 4838   9.402   1.479  10.462
34335SOL    HW2 4839   9.355   1.417  10.592
34336SOL     OW 4840  11.857   8.205   4.818
34336SOL    HW1 4841  11.945   8.236   4.839
34336SOL    HW2 4842  11.800   8.280   4.837
34337SOL     OW 4843  13.269   1.011   3.326
34337SOL    HW1 4844  13.310   0.925   3.313
34337SOL    HW2 4845  13.191   1.008   3.270
34338SOL     OW 4846   1.702  11.722  11.944
34338SOL    HW1 4847   1.731  11.642  11.988
34338SOL    HW2 4848   1.769  11.787  11.964
34339SOL     OW 4849   3.914  12.860   8.170
34339SOL    HW1 4850   3.964  12.781   8.190
34339SOL    HW2 4851   3.834  12.851   8.221
34340SOL     OW 4852   1.720   5.024  10.324
34340SOL    HW1 4853   1.727   5.030  10.229
34340SOL    HW2 4854   1.642   4.970  10.339
34341SOL     OW 4855   8.616   3.902   3.555
34341SOL    HW1 4856   8.541   3.944   3.513
34341SOL    HW2 4857   8.626   3.949   3.638
34342SOL     OW 4858   4.910   3.537   4.074
34342SOL    HW1 4859   4.987   3.510   4.124
34342SOL    HW2 4860   4.847   3.466   4.087
34343SOL     OW 4861  11.857   4.080   6.324
34343SOL    HW1 4862  11.770   4.055   6.293
34343SOL    HW2 4863  11.899   4.119   6.248
34344SOL     OW 4864   3.207   1.689   3.268
34344SOL    HW1 4865   3.169   1.619   3.215
34344SOL    HW2 4866   3.183   1.668   3.358
34345SOL     OW 4867  13.697   7.080   8.664
34345SOL    HW1 4868  13.768   7.140   8.642
34345SOL    HW2 4869  13.662   7.113   8.747
34346SOL     OW 4870   5.151   6.410  10.763
34346SOL    HW1 4871   5.180   6.382  10.676
34346SOL    HW2 4872   5.084   6.475  10.745
34347SOL     OW 4873  13.826   8.178  12.401
34347SOL    HW1 4874  13.836   8.179  12.306
34347SOL    HW2 4875  13.804   8.268  12.424
34348SOL     OW 4876   3.235   3.975   6.089
34348SOL    HW1 4877   3.244   3.902   6.149
34348SOL    HW2 4878   3.212   3.935   6.005
34349SOL     OW 4879  11.761   0.309   9.020
34349SOL    HW1 4880  11.754   0.403   9.034
34349SOL    HW2 4881  11.803   0.300   8.935
34350SOL     OW 4882   6.557   6.997  14.059
34350SOL    HW1 4883   6.470   7.005  14.099
34350SOL    HW2 4884   6.606   7.071  14.094
34351SOL     OW 4885  13.092   8.629   5.286
34351SOL    HW1 4886  13.142   8.551   5.311
34351SOL    HW2 4887  13.043   8.602   5.209
34352SOL     OW 4888   9.977   5.170   6.033
34352SOL    HW1 4889  10.070   5.172   6.054
34352SOL    HW2 4890   9.940   5.101   6.088
34353SOL     OW 4891  13.094   6.700   1.299
34353SOL    HW1 4892  13.137   6.623   1.338
34353SOL    HW2 4893  13.027   6.663   1.242
34354SOL     OW 4894  13.811   0.919   2.697
34354SOL    HW1 4895  13.817   0.926   2.602
34354SOL    HW2 4896  13.772   0.832   2.712
34355SOL     OW 4897   3.877   7.083   8.451
34355SOL    HW1 4898   3.958   7.133   8.441
34355SOL    HW2 4899   3.816   7.145   8.491
34356SOL     OW 4900   6.432   9.575  10.591
34356SOL    HW1 4901   6.478   9.531  10.519
34356SOL    HW2 4902   6.413   9.662  10.558
34357SOL     OW 4903  11.844  12.075   5.416
34357SOL    HW1 4904  11.862  12.112   5.503
34357SOL    HW2 4905  11.750  12.058   5.417
34358SOL     OW 4906   0.614  10.218   3.720
34358SOL    HW1 4907   0.552  10.291   3.711
34358SOL    HW2 4908   0.690  10.257   3.764
34359SOL     OW 4909   7.688  12.033  10.720
34359SOL    HW1 4910   7.630  12.080  10.779
34359SOL    HW2 4911   7.636  12.018  10.642
34360SOL     OW 4912  13.868   3.362  14.601
34360SOL    HW1 4913  13.807   3.296  14.569
34360SOL    HW2 4914  13.940   3.361  14.537
34361SOL     OW 4915   8.471  13.570   3.285
34361SOL    HW1 4916   8.486  13.476   3.293
34361SOL    HW2 4917   8.385  13.577   3.243
34362SOL     OW 4918   0.501  10.242   0.404
34362SOL    HW1 4919   0.543  10.319   0.443
34362SOL    HW2 4920   0.533  10.241   0.314
34363SOL     OW 4921   3.907  13.452  13.429
34363SOL    HW1 4922   3.974  13.499  13.478
34363SOL    HW2 4923   3.895  13.504  13.349
34364SOL     OW 4924   7.017   4.180   8.047
34364SOL    HW1 4925   7.035   4.094   8.010
34364SOL    HW2 4926   7.094   4.233   8.024
34365SOL     OW 4927   1.373   1.226   2.556
34365SOL    HW1 4928   1.400   1.288   2.624
34365SOL    HW2 4929   1.347   1.281   2.482
34366SOL     OW 4930   2.916   2.968   2.953
34366SOL    HW1 4931   2.852   3.005   3.013
34366SOL    HW2 4932   2.999   3.010   2.978
34367SOL     OW 4933  13.801  10.246   8.601
34367SOL    HW1 4934  13.827  10.187   8.671
34367SOL    HW2 4935  13.823  10.199   8.520
34368SOL     OW 4936  11.910  12.329  10.670
34368SOL    HW1 4937  11.889  12.342  10.578
34368SOL    HW2 4938  11.881  12.410  10.712
34369SOL     OW 4939   0.830   1.264   1.035
34369SOL    HW1 4940   0.855   1.246   0.945
34369SOL    HW2 4941   0.842   1.359   1.045
34370SOL     OW 4942   4.599  10.651   8.912
34370SOL    HW1 4943   4.529  10.643   8.977
34370SOL    HW2 4944   4.553  10.653   8.828
34371SOL     OW 4945  10.130   6.612   1.355
34371SOL    HW1 4946  10.146   6.699   1.392
34371SOL    HW2 4947  10.083   6.565   1.424
34372SOL     OW 4948   5.546   7.521   3.961
34372SOL    HW1 4949   5.631   7.548   3.995
34372SOL    HW2 4950   5.565   7.443   3.909
34373SOL     OW 4951   2.820   9.069   5.161
34373SOL    HW1 4952   2.890   9.132   5.143
34373SOL    HW2 4953   2.867   8.991   5.191
34374SOL     OW 4954  12.833   1.020  12.331
34374SOL    HW1 4955  12.743   1.053  12.333
34374SOL    HW2 4956  12.856   1.020  12.238
34375SOL     OW 4957  10.911  14.733   9.405
34375SOL    HW1 4958  10.934  14.727   9.497
34375SOL    HW2 4959  10.994  14.749   9.360
34376SOL     OW 4960   1.934  13.727   0.821
34376SOL    HW1 4961   1.890  13.753   0.740
34376SOL    HW2 4962   2.023  13.703   0.793
34377SOL     OW 4963   3.395  11.991   3.202
34377SOL    HW1 4964   3.358  12.045   3.272
34377SOL    HW2 4965   3.319  11.947   3.163
34378SOL     OW 4966   8.176   8.498  11.222
34378SOL    HW1 4967   8.209   8.441  11.291
34378SOL    HW2 4968   8.254   8.523  11.172
34379SOL     OW 4969   7.164  13.699  13.409
34379SOL    HW1 4970   7.170  13.769  13.474
34379SOL    HW2 4971   7.115  13.630  13.454
34380SOL     OW 4972   7.624   9.269   1.244
34380SOL    HW1 4973   7.565   9.320   1.299
34380SOL    HW2 4974   7.670   9.334   1.191
34381SOL     OW 4975   5.087   1.811  11.668
34381SOL    HW1 4976   5.141   1.754  11.721
34381SOL    HW2 4977   5.138   1.891  11.658
34382SOL     OW 4978  14.665   7.746   2.389
34382SOL    HW1 4979  14.575   7.762   2.416
34382SOL    HW2 4980  14.665   7.761   2.294
34383SOL     OW 4981  13.869   8.585   2.670
34383SOL    HW1 4982  13.817   8.512   2.636
34383SOL    HW2 4983  13.870   8.571   2.765
34384SOL     OW 4984   6.615   7.398   2.289
34384SOL    HW1 4985   6.621   7.489   2.260
34384SOL    HW2 4986   6.655   7.398   2.377
34385SOL     OW 4987   8.985   7.555   6.060
34385SOL    HW1 4988   8.987   7.464   6.028
34385SOL    HW2 4989   8.893   7.569   6.084
34386SOL     OW 4990   4.916   7.803  10.198
34386SOL    HW1 4991   4.968   7.766  10.127
34386SOL    HW2 4992   4.836   7.835  10.155
34387SOL     OW 4993  11.178  13.014   8.198
34387SOL    HW1 4994  11.197  13.104   8.222
34387SOL    HW2 4995  11.216  12.961   8.269
34388SOL     OW 4996   0.867   8.733  11.909
34388SOL    HW1 4997   0.860   8.683  11.990
34388SOL    HW2 4998   0.951   8.708  11.872
34389SOL     OW 4999  14.596   9.486   8.366
34389SOL    HW1 5000  14.672   9.428   8.362
34389SOL    HW2 5001  14.619   9.560   8.310
34390SOL     OW 5002   2.428   8.208  13.730
34390SOL    HW1 5003   2.476   8.262  13.667
34390SOL    HW2 5004   2.480   8.129  13.738
34391SOL     OW 5005  10.003  12.597   8.375
34391SOL    HW1 5006  10.003  12.503   8.357
34391SOL    HW2 5007  10.092  12.625   8.357
34392SOL     OW 5008   4.734  14.635  12.719
34392SOL    HW1 5009   4.809  14.632  12.778
34392SOL    HW2 5010   4.738  14.721  12.679
34393SOL     OW 5011   9.424  12.860   2.129
34393SOL    HW1 5012   9.379  12.777   2.116
34393SOL    HW2 5013   9.372  12.924   2.079
34394SOL     OW 5014  11.296  10.256  10.114
34394SOL    HW1 5015  11.212  10.276  10.154
34394SOL    HW2 5016  11.274  10.205  10.036
34395SOL     OW 5017   6.454  12.899   7.067
34395SOL    HW1 5018   6.434  12.811   7.100
34395SOL    HW2 5019   6.500  12.884   6.985
34396SOL     OW 5020   1.203  10.972   2.195
34396SOL    HW1 5021   1.113  10.951   2.220
34396SOL    HW2 5022   1.215  11.062   2.226
34397SOL     OW 5023   6.476   8.045   2.203
34397SOL    HW1 5024   6.569   8.047   2.227
34397SOL    HW2 5025   6.433   8.097   2.271
34398SOL     OW 5026  12.313   3.326  14.618
34398SOL    HW1 5027  12.353   3.311  14.532
34398SOL    HW2 5028  12.350   3.257  14.674
34399SOL     OW 5029   6.099  11.523  13.147
34399SOL    HW1 5030   6.037  11.558  13.211
34399SOL    HW2 5031   6.071  11.559  13.063
34400SOL     OW 5032   6.833   8.374   5.186
34400SOL    HW1 5033   6.865   8.291   5.222
34400SOL    HW2 5034   6.771   8.406   5.251
34401SOL     OW 5035   8.709   1.578   5.147
34401SOL    HW1 5036   8.692   1.633   5.070
34401SOL    HW2 5037   8.690   1.489   5.117
34402SOL     OW 5038  10.165  11.353   3.260
34402SOL    HW1 5039  10.129  11.421   3.316
34402SOL    HW2 5040  10.095  11.287   3.253
34403SOL     OW 5041   5.199   6.107  11.744
34403SOL    HW1 5042   5.266   6.052  11.785
34403SOL    HW2 5043   5.206   6.089  11.650
34404SOL     OW 5044  12.046   7.052   3.848
34404SOL    HW1 5045  12.075   7.143   3.851
34404SOL    HW2 5046  12.017   7.034   3.938
34405SOL     OW 5047   2.843   0.865   6.893
34405SOL    HW1 5048   2.929   0.827   6.912
34405SOL    HW2 5049   2.830   0.847   6.799
34406SOL     OW 5050  12.409   6.177   5.353
34406SOL    HW1 5051  12.334   6.210   5.403
34406SOL    HW2 5052  12.460   6.126   5.416
34407SOL     OW 5053   4.385   8.802   1.657
34407SOL    HW1 5054   4.297   8.834   1.639
34407SOL    HW2 5055   4.390   8.796   1.752
34408SOL     OW 5056   7.565   1.428   4.240
34408SOL    HW1 5057   7.593   1.515   4.270
34408SOL    HW2 5058   7.643   1.391   4.198
34409SOL     OW 5059  12.588   1.138   3.751
34409SOL    HW1 5060  12.680   1.157   3.767
34409SOL    HW2 5061  12.564   1.196   3.678
34410SOL     OW 5062   5.215  10.112   1.551
34410SOL    HW1 5063   5.277  10.047   1.585
34410SOL    HW2 5064   5.266  10.161   1.486
34411SOL     OW 5065  10.196  13.479  14.797
34411SOL    HW1 5066  10.251  13.556  14.807
34411SOL    HW2 5067  10.106  13.513  14.797
34412SOL     OW 5068   7.443   2.590   7.050
34412SOL    HW1 5069   7.441   2.543   6.967
34412SOL    HW2 5070   7.353   2.588   7.082
34413SOL     OW 5071   6.241  12.618  10.188
34413SOL    HW1 5072   6.288  12.612  10.271
34413SOL    HW2 5073   6.214  12.710  10.182
34414SOL     OW 5074   9.127   9.233  14.012
34414SOL    HW1 5075   9.194   9.297  13.990
34414SOL    HW2 5076   9.175   9.152  14.030
34415SOL     OW 5077  11.613   4.469   2.605
34415SOL    HW1 5078  11.706   4.493   2.612
34415SOL    HW2 5079  11.579   4.479   2.694
34416SOL     OW 5080   3.203   1.100   8.138
34416SOL    HW1 5081   3.292   1.080   8.167
34416SOL    HW2 5082   3.149   1.085   8.215
34417SOL     OW 5083  13.938   7.158   0.194
34417SOL    HW1 5084  13.857   7.113   0.167
34417SOL    HW2 5085  13.951   7.225   0.127
34418SOL     OW 5086   5.413  12.135   7.176
34418SOL    HW1 5087   5.338  12.123   7.117
34418SOL    HW2 5088   5.374  12.146   7.262
34419SOL     OW 5089   5.566  12.177  14.752
34419SOL    HW1 5090   5.563  12.119  14.828
34419SOL    HW2 5091   5.521  12.128  14.683
34420SOL     OW 5092   3.209   2.399   2.089
34420SOL    HW1 5093   3.146   2.343   2.135
34420SOL    HW2 5094   3.273   2.337   2.053
34421SOL     OW 5095  11.090  11.241  13.670
34421SOL    HW1 5096  11.035  11.311  13.706
34421SOL    HW2 5097  11.038  11.203  13.599
34422SOL     OW 5098   2.635  12.182  12.186
34422SOL    HW1 5099   2.657  12.152  12.274
34422SOL    HW2 5100   2.540  12.168  12.179
34423SOL     OW 5101   4.896   9.805   2.266
34423SOL    HW1 5102   4.955   9.876   2.242
34423SOL    HW2 5103   4.869   9.767   2.183
34424SOL     OW 5104   2.641  10.372   2.280
34424SOL    HW1 5105   2.718  10.380   2.336
34424SOL    HW2 5106   2.648  10.446   2.219
34425SOL     OW 5107   1.877   9.547   9.352
34425SOL    HW1 5108   1.971   9.568   9.353
34425SOL    HW2 5109   1.874   9.452   9.341
34426SOL     OW 5110  10.361  12.594  11.791
34426SOL    HW1 5111  10.293  12.641  11.743
34426SOL    HW2 5112  10.362  12.507  11.750
34427SOL     OW 5113   7.976   4.604   7.347
34427SOL    HW1 5114   8.060   4.575   7.381
34427SOL    HW2 5115   7.959   4.687   7.391
34428SOL     OW 5116   7.463   0.633   9.058
34428SOL    HW1 5117   7.519   0.711   9.052
34428SOL    HW2 5118   7.394   0.658   9.119
34429SOL     OW 5119   8.705   5.709  14.493
34429SOL    HW1 5120   8.652   5.674  14.422
34429SOL    HW2 5121   8.795   5.703  14.461
34430SOL     OW 5122   7.558   8.453  10.234
34430SOL    HW1 5123   7.620   8.380  10.241
34430SOL    HW2 5124   7.590   8.517  10.298
34431SOL     OW 5125   3.637   1.326  10.463
34431SOL    HW1 5126   3.596   1.326  10.377
34431SOL    HW2 5127   3.729   1.346  10.445
34432SOL     OW 5128  10.530   9.629   5.643
34432SOL    HW1 5129  10.574   9.606   5.561
34432SOL    HW2 5130  10.453   9.573   5.645
34433SOL     OW 5131  14.098  12.172   0.998
34433SOL    HW1 5132  14.022  12.198   1.049
34433SOL    HW2 5133  14.149  12.252   0.989
34434SOL     OW 5134   2.651   5.348  14.806
34434SOL    HW1 5135   2.561   5.345  14.838
34434SOL    HW2 5136   2.663   5.264  14.761
34435SOL     OW 5137   9.041  10.947   6.837
34435SOL    HW1 5138   8.953  10.964   6.870
34435SOL    HW2 5139   9.074  10.876   6.892
34436SOL     OW 5140   3.076   0.522   1.178
34436SOL    HW1 5141   3.087   0.428   1.187
34436SOL    HW2 5142   3.162   0.554   1.153
34437SOL     OW 5143   1.434   6.804   6.689
34437SOL    HW1 5144   1.411   6.830   6.600
34437SOL    HW2 5145   1.350   6.797   6.735
34438SOL     OW 5146  14.745   4.694   1.630
34438SOL    HW1 5147  14.820   4.676   1.574
34438SOL    HW2 5148  14.712   4.608   1.656
34439SOL     OW 5149   1.014   1.748  13.906
34439SOL    HW1 5150   1.014   1.775  13.998
34439SOL    HW2 5151   0.921   1.739  13.884
34440SOL     OW 5152   9.938   4.707   2.508
34440SOL    HW1 5153   9.938   4.785   2.564
34440SOL    HW2 5154  10.026   4.702   2.473
34441SOL     OW 5155  13.790   5.192  13.948
34441SOL    HW1 5156  13.870   5.178  13.897
34441SOL    HW2 5157  13.752   5.272  13.912
34442SOL     OW 5158   2.913   3.377   6.439
34442SOL    HW1 5159   2.915   3.413   6.528
34442SOL    HW2 5160   2.977   3.306   6.440
34443SOL     OW 5161   7.419   3.593   1.739
34443SOL    HW1 5162   7.324   3.590   1.725
34443SOL    HW2 5163   7.435   3.526   1.805
34444SOL     OW 5164   2.575   7.871  13.568
34444SOL    HW1 5165   2.604   7.880  13.477
34444SOL    HW2 5166   2.653   7.891  13.620
34445SOL     OW 5167  12.726  14.828  14.342
34445SOL    HW1 5168  12.646  14.804  14.297
34445SOL    HW2 5169  12.767  14.745  14.365
34446SOL     OW 5170   7.191   6.152  12.030
34446SOL    HW1 5171   7.174   6.063  11.999
34446SOL    HW2 5172   7.112   6.175  12.080
34447SOL     OW 5173  12.310   0.054   9.734
34447SOL    HW1 5174  12.364   0.058   9.813
34447SOL    HW2 5175  12.232   0.005   9.761
34448SOL     OW 5176   0.961   6.459  11.868
34448SOL    HW1 5177   0.962   6.549  11.836
34448SOL    HW2 5178   0.875   6.449  11.909
34449SOL     OW 5179   7.328   0.441   2.304
34449SOL    HW1 5180   7.412   0.438   2.351
34449SOL    HW2 5181   7.338   0.513   2.241
34450SOL     OW 5182   0.620   4.352  14.461
34450SOL    HW1 5183   0.559   4.386  14.396
34450SOL    HW2 5184   0.682   4.299  14.412
34451SOL     OW 5185   5.312  12.921  10.528
34451SOL    HW1 5186   5.239  12.956  10.478
34451SOL    HW2 5187   5.333  12.838  10.486
34452SOL     OW 5188  12.493  10.581  13.932
34452SOL    HW1 5189  12.465  10.567  14.022
34452SOL    HW2 5190  12.587  10.599  13.939
34453SOL     OW 5191   3.707   0.577  13.502
34453SOL    HW1 5192   3.711   0.486  13.474
34453SOL    HW2 5193   3.654   0.575  13.581
34454SOL     OW 5194  12.727   4.379   6.077
34454SOL    HW1 5195  12.699   4.469   6.057
34454SOL    HW2 5196  12.698   4.328   6.001
34455SOL     OW 5197  11.622  14.447   5.563
34455SOL    HW1 5198  11.708  14.441   5.521
34455SOL    HW2 5199  11.602  14.541   5.564
34456SOL     OW 5200   3.876   8.799   5.453
34456SOL    HW1 5201   3.853   8.842   5.535
34456SOL    HW2 5202   3.926   8.865   5.404
34457SOL     OW 5203  13.774   1.920   7.247
34457SOL    HW1 5204  13.862   1.928   7.208
34457SOL    HW2 5205  13.791   1.899   7.339
34458SOL     OW 5206   9.604   4.398   2.884
34458SOL    HW1 5207   9.535   4.443   2.933
34458SOL    HW2 5208   9.670   4.376   2.949
34459SOL     OW 5209   0.654   7.310   1.340
34459SOL    HW1 5210   0.656   7.264   1.424
34459SOL    HW2 5211   0.561   7.323   1.322
34460SOL     OW 5212   1.053  12.454   7.354
34460SOL    HW1 5213   0.968  12.495   7.336
34460SOL    HW2 5214   1.036  12.395   7.428
34461SOL     OW 5215   6.227   2.056   4.198
34461SOL    HW1 5216   6.234   2.009   4.281
34461SOL    HW2 5217   6.308   2.106   4.192
34462SOL     OW 5218  10.252   7.764   4.123
34462SOL    HW1 5219  10.163   7.728   4.116
34462SOL    HW2 5220  10.247   7.826   4.195
34463SOL     OW 5221   8.183   3.087  10.385
34463SOL    HW1 5222   8.187   3.008  10.331
34463SOL    HW2 5223   8.147   3.057  10.468
34464SOL     OW 5224  13.389   6.394   0.343
34464SOL    HW1 5225  13.392   6.321   0.281
34464SOL    HW2 5226  13.398   6.472   0.288
34465SOL     OW 5227   6.385   4.183   5.079
34465SOL    HW1 5228   6.369   4.276   5.096
34465SOL    HW2 5229   6.301   4.141   5.093
34466SOL     OW 5230  12.307   9.173   2.027
34466SOL    HW1 5231  12.360   9.210   2.097
34466SOL    HW2 5232  12.221   9.159   2.066
34467SOL     OW 5233  13.142   7.961   7.466
34467SOL    HW1 5234  13.192   7.914   7.533
34467SOL    HW2 5235  13.108   7.892   7.409
34468SOL     OW 5236   3.300   4.532   4.948
34468SOL    HW1 5237   3.241   4.596   4.987
34468SOL    HW2 5238   3.371   4.584   4.909
34469SOL     OW 5239   3.765   7.040  13.663
34469SOL    HW1 5240   3.813   6.964  13.695
34469SOL    HW2 5241   3.727   7.079  13.742
34470SOL     OW 5242  12.824   7.035  12.907
34470SOL    HW1 5243  12.914   7.002  12.915
34470SOL    HW2 5244  12.832   7.112  12.850
34471SOL     OW 5245   5.697   9.665   4.644
34471SOL    HW1 5246   5.707   9.616   4.725
34471SOL    HW2 5247   5.649   9.744   4.669
34472SOL     OW 5248   3.300   7.271  14.237
34472SOL    HW1 5249   3.234   7.341  14.242
34472SOL    HW2 5250   3.379   7.315  14.205
34473SOL     OW 5251   2.142  14.777   4.856
34473SOL    HW1 5252   2.057  14.820   4.843
34473SOL    HW2 5253   2.187  14.786   4.771
34474SOL     OW 5254   0.391  14.582   2.979
34474SOL    HW1 5255   0.468  14.593   2.924
34474SOL    HW2 5256   0.417  14.616   3.065
34475SOL     OW 5257   8.704  14.094   1.799
34475SOL    HW1 5258   8.765  14.028   1.765
34475SOL    HW2 5259   8.695  14.072   1.892
34476SOL     OW 5260   2.727   0.412  13.681
34476SOL    HW1 5261   2.774   0.482  13.634
34476SOL    HW2 5262   2.644   0.452  13.706
34477SOL     OW 5263  14.316   3.887   0.264
34477SOL    HW1 5264  14.348   3.810   0.311
34477SOL    HW2 5265  14.225   3.895   0.290
34478SOL     OW 5266   2.128   3.900   3.969
34478SOL    HW1 5267   2.150   3.984   3.927
34478SOL    HW2 5268   2.114   3.840   3.896
34479SOL     OW 5269  11.737  10.542   9.293
34479SOL    HW1 5270  11.799  10.611   9.315
34479SOL    HW2 5271  11.697  10.517   9.377
34480SOL     OW 5272   9.990  12.688   5.303
34480SOL    HW1 5273  10.002  12.782   5.316
34480SOL    HW2 5274  10.079  12.651   5.310
34481SOL     OW 5275   8.677  10.339   5.190
34481SOL    HW1 5276   8.589  10.372   5.171
34481SOL    HW2 5277   8.666  10.284   5.267
34482SOL     OW 5278   5.834  12.310  10.471
34482SOL    HW1 5279   5.929  12.314  10.458
34482SOL    HW2 5280   5.804  12.252  10.401
34483SOL     OW 5281  10.179  13.597   9.826
34483SOL    HW1 5282  10.224  13.546   9.758
34483SOL    HW2 5283  10.091  13.560   9.830
34484SOL     OW 5284   4.888   4.168   0.952
34484SOL    HW1 5285   4.978   4.197   0.968
34484SOL    HW2 5286   4.835   4.220   1.013
34485SOL     OW 5287   9.807  14.301   5.402
34485SOL    HW1 5288   9.858  14.246   5.343
34485SOL    HW2 5289   9.827  14.390   5.375
34486SOL     OW 5290  14.094   0.018   8.509
34486SOL    HW1 5291  14.038   0.026   8.431
34486SOL    HW2 5292  14.124   0.107   8.526
34487SOL     OW 5293   3.001  10.800   2.845
34487SOL    HW1 5294   3.017  10.869   2.909
34487SOL    HW2 5295   3.000  10.845   2.760
34488SOL     OW 5296   5.126   7.076   5.028
34488SOL    HW1 5297   5.139   6.982   5.040
34488SOL    HW2 5298   5.183   7.098   4.954
34489SOL     OW 5299  10.289  14.479   5.033
34489SOL    HW1 5300  10.323  14.519   5.113
34489SOL    HW2 5301  10.335  14.395   5.026
34490SOL     OW 5302  11.604  10.745  14.102
34490SOL    HW1 5303  11.529  10.692  14.127
34490SOL    HW2 5304  11.613  10.730  14.007
34491SOL     OW 5305  12.371   9.697   9.787
34491SOL    HW1 5306  12.415   9.645   9.720
34491SOL    HW2 5307  12.390   9.788   9.763
34492SOL     OW 5308   1.692   5.002  11.277
34492SOL    HW1 5309   1.623   4.958  11.326
34492SOL    HW2 5310   1.669   5.095  11.279
34493SOL     OW 5311   9.090   7.778   7.821
34493SOL    HW1 5312   9.135   7.829   7.753
34493SOL    HW2 5313   9.105   7.687   7.797
34494SOL     OW 5314   7.482  14.810   6.963
34494SOL    HW1 5315   7.417  14.876   6.988
34494SOL    HW2 5316   7.493  14.756   7.041
34495SOL     OW 5317   9.121   5.621   9.998
34495SOL    HW1 5318   9.195   5.573  10.036
34495SOL    HW2 5319   9.161   5.698   9.959
34496SOL     OW 5320  11.590  12.583  12.466
34496SOL    HW1 5321  11.540  12.524  12.521
34496SOL    HW2 5322  11.545  12.667  12.473
34497SOL     OW 5323   0.097  13.394   9.362
34497SOL    HW1 5324   0.089  13.311   9.315
34497SOL    HW2 5325   0.177  13.434   9.325
34498SOL     OW 5326   5.825   2.609   5.291
34498SOL    HW1 5327   5.834   2.515   5.305
34498SOL    HW2 5328   5.731   2.626   5.296
34499SOL     OW 5329  13.001  11.640   5.978
34499SOL    HW1 5330  12.954  11.606   6.055
34499SOL    HW2 5331  13.090  11.655   6.009
34500SOL     OW 5332   0.129  12.320   5.808
34500SOL    HW1 5333   0.049  12.269   5.796
34500SOL    HW2 5334   0.200  12.259   5.787
34501SOL     OW 5335   3.253   6.377   9.838
34501SOL    HW1 5336   3.233   6.284   9.828
34501SOL    HW2 5337   3.209   6.418   9.764
34502SOL     OW 5338   3.020   3.494   7.875
34502SOL    HW1 5339   3.061   3.408   7.888
34502SOL    HW2 5340   2.928   3.480   7.899
34503SOL     OW 5341  11.169   5.034   7.150
34503SOL    HW1 5342  11.203   5.081   7.226
34503SOL    HW2 5343  11.213   4.949   7.152
34504SOL     OW 5344   6.606  10.687   0.979
34504SOL    HW1 5345   6.639  10.761   1.030
34504SOL    HW2 5346   6.652  10.611   1.014
34505SOL     OW 5347   0.024   3.124   0.411
34505SOL    HW1 5348  14.810   3.106   0.418
34505SOL    HW2 5349   0.053   3.140   0.501
34506SOL     OW 5350   8.335  10.442   1.413
34506SOL    HW1 5351   8.354  10.499   1.338
34506SOL    HW2 5352   8.338  10.353   1.376
34507SOL     OW 5353  12.661   1.541   5.353
34507SOL    HW1 5354  12.576   1.534   5.397
34507SOL    HW2 5355  12.654   1.482   5.277
34508SOL     OW 5356  14.290  10.793   4.933
34508SOL    HW1 5357  14.352  10.721   4.943
34508SOL    HW2 5358  14.272  10.796   4.839
34509SOL     OW 5359   2.878   7.940   0.291
34509SOL    HW1 5360   2.800   7.960   0.239
34509SOL    HW2 5361   2.949   7.989   0.249
34510SOL     OW 5362   4.922   6.451   6.124
34510SOL    HW1 5363   5.009   6.437   6.161
34510SOL    HW2 5364   4.916   6.546   6.112
34511SOL     OW 5365  10.090  14.695   5.094
34511SOL    HW1 5366  10.017  14.656   5.046
34511SOL    HW2 5367  10.152  14.624   5.105
34512SOL     OW 5368  10.189  10.392   4.377
34512SOL    HW1 5369  10.145  10.367   4.296
34512SOL    HW2 5370  10.249  10.462   4.350
34513SOL     OW 5371   0.844  11.113  10.940
34513SOL    HW1 5372   0.868  11.090  11.030
34513SOL    HW2 5373   0.854  11.208  10.936
34514SOL     OW 5374   8.387   3.060   5.172
34514SOL    HW1 5375   8.368   3.150   5.147
34514SOL    HW2 5376   8.476   3.045   5.141
34515SOL     OW 5377   6.636  11.377  10.270
34515SOL    HW1 5378   6.729  11.375  10.295
34515SOL    HW2 5379   6.594  11.430  10.338
34516SOL     OW 5380  10.563   8.650   9.363
34516SOL    HW1 5381  10.565   8.588   9.290
34516SOL    HW2 5382  10.595   8.732   9.326
34517SOL     OW 5383   8.996   9.735   2.220
34517SOL    HW1 5384   9.088   9.733   2.246
34517SOL    HW2 5385   8.983   9.655   2.170
34518SOL     OW 5386   2.921   4.190   1.051
34518SOL    HW1 5387   2.840   4.207   1.003
34518SOL    HW2 5388   2.977   4.145   0.988
34519SOL     OW 5389   0.292  11.014   3.251
34519SOL    HW1 5390   0.322  11.093   3.295
34519SOL    HW2 5391   0.310  11.030   3.158
34520SOL     OW 5392  10.982  11.805   9.919
34520SOL    HW1 5393  10.934  11.875   9.875
34520SOL    HW2 5394  10.922  11.773   9.987
34521SOL     OW 5395   0.685   4.280  13.139
34521SOL    HW1 5396   0.721   4.193  13.127
34521SOL    HW2 5397   0.732   4.335  13.076
34522SOL     OW 5398   7.171   8.891   0.899
34522SOL    HW1 5399   7.238   8.869   0.964
34522SOL    HW2 5400   7.217   8.945   0.835
34523SOL     OW 5401  14.193  10.925   3.671
34523SOL    HW1 5402  14.171  10.866   3.598
34523SOL    HW2 5403  14.265  10.881   3.716
34524SOL     OW 5404   8.213   5.345   6.667
34524SOL    HW1 5405   8.118   5.347   6.678
34524SOL    HW2 5406   8.231   5.414   6.604
34525SOL     OW 5407  10.812   8.409   1.052
34525SOL    HW1 5408  10.862   8.433   0.974
34525SOL    HW2 5409  10.742   8.475   1.056
34526SOL     OW 5410   1.491   8.473   8.727
34526SOL    HW1 5411   1.496   8.382   8.757
34526SOL    HW2 5412   1.471   8.523   8.807
34527SOL     OW 5413   1.015   5.601   0.691
34527SOL    HW1 5414   0.931   5.582   0.734
34527SOL    HW2 5415   0.992   5.654   0.615
34528SOL     OW 5416   5.916  12.282  11.913
34528SOL    HW1 5417   5.988  12.231  11.876
34528SOL    HW2 5418   5.941  12.373  11.898
34529SOL     OW 5419   7.794   5.886   7.877
34529SOL    HW1 5420   7.852   5.826   7.830
34529SOL    HW2 5421   7.834   5.973   7.864
34530SOL     OW 5422   3.594   1.975   9.341
34530SOL    HW1 5423   3.638   2.047   9.296
34530SOL    HW2 5424   3.534   1.940   9.276
34531SOL     OW 5425  14.204  12.340   7.230
34531SOL    HW1 5426  14.207  12.409   7.163
34531SOL    HW2 5427  14.113  12.339   7.260
34532SOL     OW 5428   9.249   8.055   3.434
34532SOL    HW1 5429   9.334   8.097   3.449
34532SOL    HW2 5430   9.185   8.119   3.465
34533SOL     OW 5431   0.460   5.180   4.477
34533SOL    HW1 5432   0.547   5.191   4.515
34533SOL    HW2 5433   0.415   5.122   4.538
34534SOL     OW 5434  11.567   2.809  10.563
34534SOL    HW1 5435  11.637   2.869  10.587
34534SOL    HW2 5436  11.528   2.783  10.647
34535SOL     OW 5437   4.331   3.186  10.826
34535SOL    HW1 5438   4.394   3.256  10.842
34535SOL    HW2 5439   4.298   3.203  10.738
34536SOL     OW 5440   3.781   1.093   9.314
34536SOL    HW1 5441   3.866   1.082   9.357
34536SOL    HW2 5442   3.730   1.146   9.375
34537SOL     OW 5443  12.813  11.088   7.278
34537SOL    HW1 5444  12.896  11.103   7.324
34537SOL    HW2 5445  12.837  11.087   7.185
34538SOL     OW 5446   4.363   4.065  11.265
34538SOL    HW1 5447   4.342   4.126  11.194
34538SOL    HW2 5448   4.286   4.067  11.322
34539SOL     OW 5449   7.187   2.880  12.494
34539SOL    HW1 5450   7.133   2.830  12.432
34539SOL    HW2 5451   7.259   2.913  12.441
34540SOL     OW 5452   1.217   5.007  12.478
34540SOL    HW1 5453   1.192   5.016  12.570
34540SOL    HW2 5454   1.250   4.917  12.471
34541SOL     OW 5455   0.660   3.405   7.188
34541SOL    HW1 5456   0.653   3.449   7.273
34541SOL    HW2 5457   0.735   3.447   7.146
34542SOL     OW 5458   1.947   1.310   2.601
34542SOL    HW1 5459   1.868   1.363   2.612
34542SOL    HW2 5460   2.019   1.369   2.623
34543SOL     OW 5461  12.373   6.844  10.311
34543SOL    HW1 5462  12.340   6.763  10.272
34543SOL    HW2 5463  12.409   6.893  10.237
34544SOL     OW 5464  14.199   0.383   7.917
34544SOL    HW1 5465  14.193   0.306   7.973
34544SOL    HW2 5466  14.110   0.420   7.917
34545SOL     OW 5467   1.737   3.487  10.470
34545SOL    HW1 5468   1.678   3.561  10.484
34545SOL    HW2 5469   1.781   3.506  10.387
34546SOL     OW 5470   9.193   1.511  12.918
34546SOL    HW1 5471   9.148   1.447  12.863
34546SOL    HW2 5472   9.261   1.548  12.862
34547SOL     OW 5473   2.728   1.782   7.814
34547SOL    HW1 5474   2.694   1.701   7.853
34547SOL    HW2 5475   2.680   1.852   7.858
34548SOL     OW 5476   2.737   6.008   7.999
34548SOL    HW1 5477   2.704   5.951   7.929
34548SOL    HW2 5478   2.810   5.960   8.037
34549SOL     OW 5479   8.006   1.284   2.361
34549SOL    HW1 5480   7.980   1.224   2.431
34549SOL    HW2 5481   8.068   1.344   2.402
34550SOL     OW 5482   1.496  12.130  12.612
34550SOL    HW1 5483   1.536  12.126  12.699
34550SOL    HW2 5484   1.407  12.099  12.625
34551SOL     OW 5485   9.970   6.568   5.313
34551SOL    HW1 5486  10.013   6.516   5.381
34551SOL    HW2 5487   9.983   6.517   5.233
34552SOL     OW 5488  11.239  13.242   6.915
34552SOL    HW1 5489  11.329  13.263   6.890
34552SOL    HW2 5490  11.212  13.174   6.852
34553SOL     OW 5491  14.677   5.705   4.138
34553SOL    HW1 5492  14.644   5.730   4.224
34553SOL    HW2 5493  14.618   5.747   4.076
34554SOL     OW 5494   8.305   9.653   2.372
34554SOL    HW1 5495   8.239   9.659   2.304
34554SOL    HW2 5496   8.388   9.644   2.325
34555SOL     OW 5497   8.401   6.051  11.111
34555SOL    HW1 5498   8.481   6.038  11.161
34555SOL    HW2 5499   8.419   6.127  11.055
34556SOL     OW 5500   3.942   8.461   1.070
34556SOL    HW1 5501   4.025   8.432   1.033
34556SOL    HW2 5502   3.966   8.505   1.152
34557SOL     OW 5503   7.147  13.615   8.295
34557SOL    HW1 5504   7.161  13.585   8.384
34557SOL    HW2 5505   7.215  13.681   8.281
34558SOL     OW 5506   1.698   2.403   3.707
34558SOL    HW1 5507   1.745   2.407   3.790
34558SOL    HW2 5508   1.762   2.368   3.645
34559SOL     OW 5509  11.454   6.658   1.535
34559SOL    HW1 5510  11.389   6.591   1.516
34559SOL    HW2 5511  11.514   6.617   1.598
34560SOL     OW 5512   3.435   5.943   5.609
34560SOL    HW1 5513   3.416   5.851   5.627
34560SOL    HW2 5514   3.408   5.990   5.688
34561SOL     OW 5515   3.937   6.038  10.880
34561SOL    HW1 5516   3.927   6.132  10.890
34561SOL    HW2 5517   3.986   6.027  10.798
34562SOL     OW 5518  12.236   0.993   9.528
34562SOL    HW1 5519  12.181   1.046   9.586
34562SOL    HW2 5520  12.211   0.903   9.546
34563SOL     OW 5521   0.481   0.443   6.809
34563SOL    HW1 5522   0.556   0.458   6.866
34563SOL    HW2 5523   0.519   0.415   6.726
34564SOL     OW 5524   3.682   8.279  10.814
34564SOL    HW1 5525   3.692   8.196  10.862
34564SOL    HW2 5526   3.643   8.339  10.878
34565SOL     OW 5527   5.801   6.694  11.957
34565SOL    HW1 5528   5.872   6.654  11.907
34565SOL    HW2 5529   5.842   6.727  12.036
34566SOL     OW 5530   3.569   7.338   8.307
34566SOL    HW1 5531   3.629   7.400   8.265
34566SOL    HW2 5532   3.484   7.357   8.268
34567SOL     OW 5533  12.134   7.367   6.845
34567SOL    HW1 5534  12.125   7.322   6.762
34567SOL    HW2 5535  12.046   7.368   6.882
34568SOL     OW 5536  11.386   5.366   5.725
34568SOL    HW1 5537  11.470   5.412   5.721
34568SOL    HW2 5538  11.327   5.420   5.673
34569SOL     OW 5539   5.890   6.353   0.553
34569SOL    HW1 5540   5.944   6.280   0.581
34569SOL    HW2 5541   5.935   6.431   0.587
34570SOL     OW 5542   5.139  12.352   4.467
34570SOL    HW1 5543   5.179  12.307   4.542
34570SOL    HW2 5544   5.070  12.292   4.438
34571SOL     OW 5545   0.257  11.823  12.762
34571SOL    HW1 5546   0.200  11.849  12.834
34571SOL    HW2 5547   0.197  11.799  12.691
34572SOL     OW 5548  14.546   9.754   5.307
34572SOL    HW1 5549  14.500   9.808   5.371
34572SOL    HW2 5550  14.633   9.794   5.300
34573SOL     OW 5551  12.970  13.099   0.208
34573SOL    HW1 5552  12.971  13.003   0.216
34573SOL    HW2 5553  13.002  13.115   0.119
34574SOL     OW 5554   0.145   8.257   4.104
34574SOL    HW1 5555   0.059   8.236   4.141
34574SOL    HW2 5556   0.126   8.307   4.025
34575SOL     OW 5557   4.403   2.676   7.314
34575SOL    HW1 5558   4.309   2.687   7.307
34575SOL    HW2 5559   4.440   2.746   7.260
34576SOL     OW 5560   7.684  14.186  10.980
34576SOL    HW1 5561   7.626  14.146  11.045
34576SOL    HW2 5562   7.632  14.258  10.944
34577SOL     OW 5563   3.696   4.258   7.975
34577SOL    HW1 5564   3.766   4.196   7.954
34577SOL    HW2 5565   3.724   4.298   8.057
34578SOL     OW 5566   6.148   0.866   5.632
34578SOL    HW1 5567   6.202   0.932   5.589
34578SOL    HW2 5568   6.202   0.835   5.705
34579SOL     OW 5569  13.542   5.840  11.178
34579SOL    HW1 5570  13.617   5.791  11.143
34579SOL    HW2 5571  13.553   5.837  11.273
34580SOL     OW 5572  13.595  13.299   2.318
34580SOL    HW1 5573  13.580  13.392   2.336
34580SOL    HW2 5574  13.554  13.285   2.232
34581SOL     OW 5575   7.638  14.434  13.289
34581SOL    HW1 5576   7.566  14.488  13.324
34581SOL    HW2 5577   7.611  14.344  13.306
34582SOL     OW 5578   4.161  13.335   8.681
34582SOL    HW1 5579   4.152  13.300   8.770
34582SOL    HW2 5580   4.216  13.270   8.636
34583SOL     OW 5581   7.278   8.296   8.481
34583SOL    HW1 5582   7.215   8.269   8.548
34583SOL    HW2 5583   7.226   8.345   8.417
34584SOL     OW 5584  13.371   9.740   3.877
34584SOL    HW1 5585  13.399   9.667   3.822
34584SOL    HW2 5586  13.283   9.717   3.906
34585SOL     OW 5587  14.422   2.152   4.936
34585SOL    HW1 5588  14.346   2.166   4.880
34585SOL    HW2 5589  14.497   2.157   4.877
34586SOL     OW 5590   0.775  13.374  13.031
34586SOL    HW1 5591   0.703  13.320  12.997
34586SOL    HW2 5592   0.779  13.448  12.971
34587SOL     OW 5593   9.310   9.078  12.556
34587SOL    HW1 5594   9.243   9.009  12.554
34587SOL    HW2 5595   9.310   9.108  12.647
34588SOL     OW 5596  10.324   2.475   2.197
34588SOL    HW1 5597  10.376   2.427   2.261
34588SOL    HW2 5598  10.249   2.419   2.180
34589SOL     OW 5599   6.841   7.212   9.270
34589SOL    HW1 5600   6.812   7.181   9.184
34589SOL    HW2 5601   6.924   7.168   9.286
34590SOL     OW 5602  10.095   5.509  13.608
34590SOL    HW1 5603  10.084   5.415  13.595
34590SOL    HW2 5604  10.070   5.548  13.525
34591SOL     OW 5605   9.650   1.315  14.679
34591SOL    HW1 5606   9.670   1.292  14.588
34591SOL    HW2 5607   9.722   1.371  14.706
34592SOL     OW 5608  10.392   6.849   2.237
34592SOL    HW1 5609  10.433   6.771   2.200
34592SOL    HW2 5610  10.447   6.871   2.313
34593SOL     OW 5611   7.401   1.451   5.853
34593SOL    HW1 5612   7.484   1.497   5.842
34593SOL    HW2 5613   7.338   1.520   5.873
34594SOL     OW 5614   5.977   2.140  12.903
34594SOL    HW1 5615   5.933   2.159  12.985
34594SOL    HW2 5616   5.912   2.091  12.852
34595SOL     OW 5617   9.761   1.294  12.323
34595SOL    HW1 5618   9.853   1.269  12.313
34595SOL    HW2 5619   9.726   1.230  12.386
34596SOL     OW 5620   7.953   6.599  12.576
34596SOL    HW1 5621   7.972   6.690  12.557
34596SOL    HW2 5622   8.009   6.550  12.515
34597SOL     OW 5623  10.647   8.432   9.207
34597SOL    HW1 5624  10.573   8.382   9.241
34597SOL    HW2 5625  10.682   8.378   9.136
34598SOL     OW 5626  14.152   7.498   8.215
34598SOL    HW1 5627  14.106   7.488   8.132
34598SOL    HW2 5628  14.234   7.541   8.193
34599SOL     OW 5629  13.903   3.599  13.183
34599SOL    HW1 5630  13.811   3.612  13.206
34599SOL    HW2 5631  13.924   3.674  13.128
34600SOL     OW 5632  11.611  10.042   8.429
34600SOL    HW1 5633  11.655  10.018   8.347
34600SOL    HW2 5634  11.554   9.968   8.449
34601SOL     OW 5635  12.284   0.028  11.415
34601SOL    HW1 5636  12.271  14.820  11.454
34601SOL    HW2 5637  12.285   0.088  11.489
34602SOL     OW 5638  13.266  12.294   7.864
34602SOL    HW1 5639  13.188  12.323   7.912
34602SOL    HW2 5640  13.231  12.252   7.786
34603SOL     OW 5641  13.378   0.770  13.045
34603SOL    HW1 5642  13.463   0.775  13.001
34603SOL    HW2 5643  13.360   0.859  13.074
34604SOL     OW 5644   1.796  14.621  13.439
34604SOL    HW1 5645   1.848  14.695  13.471
34604SOL    HW2 5646   1.723  14.662  13.391
34605SOL     OW 5647   8.755   6.810  12.580
34605SOL    HW1 5648   8.843   6.843  12.565
34605SOL    HW2 5649   8.701   6.853  12.513
34606SOL     OW 5650   1.153  13.396   7.427
34606SOL    HW1 5651   1.062  13.418   7.406
34606SOL    HW2 5652   1.205  13.462   7.381
34607SOL     OW 5653  10.146  11.031   7.462
34607SOL    HW1 5654  10.072  10.972   7.447
34607SOL    HW2 5655  10.157  11.077   7.378
34608SOL     OW 5656   0.041   4.861   7.683
34608SOL    HW1 5657   0.009   4.853   7.594
34608SOL    HW2 5658   0.044   4.956   7.699
34609SOL     OW 5659   3.774  13.227  12.477
34609SOL    HW1 5660   3.856  13.204  12.433
34609SOL    HW2 5661   3.706  13.209  12.412
34610SOL     OW 5662  14.414   3.660  12.806
34610SOL    HW1 5663  14.499   3.638  12.768
34610SOL    HW2 5664  14.404   3.754  12.792
34611SOL     OW 5665   7.141   0.168   1.362
34611SOL    HW1 5666   7.090   0.230   1.311
34611SOL    HW2 5667   7.108   0.178   1.452
34612SOL     OW 5668   4.565   5.654  12.429
34612SOL    HW1 5669   4.521   5.578  12.392
34612SOL    HW2 5670   4.553   5.646  12.524
34613SOL     OW 5671  10.876   5.948   3.867
34613SOL    HW1 5672  10.909   5.895   3.940
34613SOL    HW2 5673  10.851   6.032   3.907
34614SOL     OW 5674  11.503  14.414   9.504
34614SOL    HW1 5675  11.508  14.384   9.595
34614SOL    HW2 5676  11.590  14.396   9.468
34615SOL     OW 5677  13.053   8.804  12.269
34615SOL    HW1 5678  12.972   8.814  12.218
34615SOL    HW2 5679  13.080   8.893  12.290
34616SOL     OW 5680   5.412   7.013   0.167
34616SOL    HW1 5681   5.489   6.987   0.118
34616SOL    HW2 5682   5.359   7.064   0.105
34617SOL     OW 5683   5.075   4.031   3.015
34617SOL    HW1 5684   5.155   4.052   2.966
34617SOL    HW2 5685   5.096   4.050   3.106
34618SOL     OW 5686  13.884  10.969  11.421
34618SOL    HW1 5687  13.869  10.919  11.341
34618SOL    HW2 5688  13.979  10.975  11.429
34619SOL     OW 5689   8.214   2.459   6.926
34619SOL    HW1 5690   8.229   2.396   6.855
34619SOL    HW2 5691   8.124   2.490   6.910
34620SOL     OW 5692   1.837   2.898   4.141
34620SOL    HW1 5693   1.866   2.989   4.131
34620SOL    HW2 5694   1.786   2.898   4.222
34621SOL     OW 5695   5.525  12.406   8.685
34621SOL    HW1 5696   5.571  12.333   8.644
34621SOL    HW2 5697   5.536  12.390   8.779
34622SOL     OW 5698  10.025   0.154  10.697
34622SOL    HW1 5699   9.934   0.184  10.692
34622SOL    HW2 5700  10.021   0.062  10.671
34623SOL     OW 5701   0.060  11.899  12.583
34623SOL    HW1 5702   0.122  11.937  12.521
34623SOL    HW2 5703   0.004  11.972  12.610
34624SOL     OW 5704   9.673  13.290   8.189
34624SOL    HW1 5705   9.753  13.277   8.137
34624SOL    HW2 5706   9.701  13.273   8.279
34625SOL     OW 5707   7.146  12.114  14.652
34625SOL    HW1 5708   7.139  12.208  14.665
34625SOL    HW2 5709   7.207  12.085  14.720
34626SOL     OW 5710   3.636   9.298   7.224
34626SOL    HW1 5711   3.663   9.387   7.250
34626SOL    HW2 5712   3.613   9.256   7.306
34627SOL     OW 5713  12.004  12.625  14.186
34627SOL    HW1 5714  12.020  12.539  14.148
34627SOL    HW2 5715  12.085  12.673  14.170
34628SOL     OW 5716   6.917   0.120   5.994
34628SOL    HW1 5717   6.880   0.044   6.038
34628SOL    HW2 5718   6.849   0.187   5.999
34629SOL     OW 5719   4.316  12.025   2.593
34629SOL    HW1 5720   4.367  12.033   2.512
34629SOL    HW2 5721   4.229  11.998   2.564
34630SOL     OW 5722   7.993  14.270   5.097
34630SOL    HW1 5723   7.931  14.209   5.139
34630SOL    HW2 5724   8.065  14.215   5.067
34631SOL     OW 5725   1.113  14.067   5.915
34631SOL    HW1 5726   1.045  14.074   5.848
34631SOL    HW2 5727   1.192  14.097   5.872
34632SOL     OW 5728   3.126   8.656   3.751
34632SOL    HW1 5729   3.175   8.736   3.732
34632SOL    HW2 5730   3.121   8.610   3.667
34633SOL     OW 5731   0.225   7.050   0.265
34633SOL    HW1 5732   0.214   6.962   0.229
34633SOL    HW2 5733   0.317   7.070   0.251
34634SOL     OW 5734  10.582   7.228  11.807
34634SOL    HW1 5735  10.545   7.228  11.719
34634SOL    HW2 5736  10.648   7.298  11.806
34635SOL     OW 5737   8.587   1.194   5.909
34635SOL    HW1 5738   8.631   1.109   5.908
34635SOL    HW2 5739   8.597   1.225   5.999
34636SOL     OW 5740  11.035   8.887   4.748
34636SOL    HW1 5741  10.959   8.850   4.704
34636SOL    HW2 5742  11.059   8.963   4.694
34637SOL     OW 5743  13.019   2.498   5.295
34637SOL    HW1 5744  13.034   2.548   5.375
34637SOL    HW2 5745  12.986   2.413   5.325
34638SOL     OW 5746   4.999   9.799  10.385
34638SOL    HW1 5747   5.090   9.799  10.355
34638SOL    HW2 5748   4.979   9.891  10.401
34639SOL     OW 5749   1.740   2.350   6.515
34639SOL    HW1 5750   1.649   2.380   6.527
34639SOL    HW2 5751   1.752   2.283   6.582
34640SOL     OW 5752   2.679  11.212  12.480
34640SOL    HW1 5753   2.620  11.266  12.428
34640SOL    HW2 5754   2.727  11.160  12.416
34641SOL     OW 5755   0.085  10.271  10.547
34641SOL    HW1 5756   0.155  10.293  10.486
34641SOL    HW2 5757   0.077  10.176  10.540
34642SOL     OW 5758   8.506  14.847   6.535
34642SOL    HW1 5759   8.596  14.849   6.566
34642SOL    HW2 5760   8.479  14.755   6.544
34643SOL     OW 5761   0.983   3.531   9.951
34643SOL    HW1 5762   0.892   3.502   9.961
34643SOL    HW2 5763   0.976   3.623   9.926
34644SOL     OW 5764   0.335   9.193   5.759
34644SOL    HW1 5765   0.304   9.172   5.848
34644SOL    HW2 5766   0.315   9.286   5.749
34645SOL     OW 5767   4.690  13.990   7.773
34645SOL    HW1 5768   4.707  14.036   7.855
34645SOL    HW2 5769   4.645  14.054   7.718
34646SOL     OW 5770   5.800   6.755  12.586
34646SOL    HW1 5771   5.894   6.772  12.574
34646SOL    HW2 5772   5.758   6.805  12.517
34647SOL     OW 5773   7.979   4.379   5.601
34647SOL    HW1 5774   7.920   4.305   5.586
34647SOL    HW2 5775   8.014   4.364   5.689
34648SOL     OW 5776  14.394   4.644   9.613
34648SOL    HW1 5777  14.386   4.619   9.705
34648SOL    HW2 5778  14.471   4.597   9.581
34649SOL     OW 5779  13.716   3.246  13.993
34649SOL    HW1 5780  13.662   3.279  13.921
34649SOL    HW2 5781  13.796   3.299  13.988
34650SOL     OW 5782   3.539  13.693   1.732
34650SOL    HW1 5783   3.555  13.785   1.710
34650SOL    HW2 5784   3.626  13.657   1.748
34651SOL     OW 5785  11.839  12.478   6.849
34651SOL    HW1 5786  11.918  12.488   6.795
34651SOL    HW2 5787  11.772  12.448   6.788
34652SOL     OW 5788   2.061   3.620  10.784
34652SOL    HW1 5789   2.064   3.714  10.799
34652SOL    HW2 5790   2.141   3.602  10.734
34653SOL     OW 5791  14.069   5.219   5.590
34653SOL    HW1 5792  14.098   5.165   5.517
34653SOL    HW2 5793  14.151   5.245   5.634
34654SOL     OW 5794   3.572  14.296   0.579
34654SOL    HW1 5795   3.577  14.253   0.493
34654SOL    HW2 5796   3.573  14.389   0.560
34655SOL     OW 5797  14.409   1.142   3.591
34655SOL    HW1 5798  14.455   1.086   3.653
34655SOL    HW2 5799  14.476   1.203   3.560
34656SOL     OW 5800   9.620   6.865  13.114
34656SOL    HW1 5801   9.618   6.874  13.209
34656SOL    HW2 5802   9.533   6.890  13.085
34657SOL     OW 5803   3.672  11.300   2.904
34657SOL    HW1 5804   3.653  11.207   2.891
34657SOL    HW2 5805   3.678  11.311   2.999
34658SOL     OW 5806  13.286   3.249  14.200
34658SOL    HW1 5807  13.206   3.196  14.189
34658SOL    HW2 5808  13.287   3.272  14.292
34659SOL     OW 5809   3.651   7.573  11.190
34659SOL    HW1 5810   3.732   7.605  11.151
34659SOL    HW2 5811   3.598   7.652  11.204
34660SOL     OW 5812   3.109  14.248   4.792
34660SOL    HW1 5813   3.192  14.203   4.803
34660SOL    HW2 5814   3.101  14.304   4.869
34661SOL     OW 5815   8.607   2.374   9.568
34661SOL    HW1 5816   8.568   2.451   9.526
34661SOL    HW2 5817   8.596   2.390   9.661
34662SOL     OW 5818  14.422  14.472   3.466
34662SOL    HW1 5819  14.370  14.515   3.398
34662SOL    HW2 5820  14.473  14.406   3.419
34663SOL     OW 5821   5.581   4.319   6.395
34663SOL    HW1 5822   5.545   4.276   6.318
34663SOL    HW2 5823   5.670   4.287   6.401
34664SOL     OW 5824   6.170   1.875   7.125
34664SOL    HW1 5825   6.108   1.807   7.097
34664SOL    HW2 5826   6.255   1.831   7.124
34665SOL     OW 5827   2.152   9.203  10.256
34665SOL    HW1 5828   2.172   9.118  10.296
34665SOL    HW2 5829   2.113   9.254  10.326
34666SOL     OW 5830  11.278   0.039   4.452
34666SOL    HW1 5831  11.244   0.066   4.366
34666SOL    HW2 5832  11.295  14.824   4.442
34667SOL     OW 5833   8.353   6.299   3.090
34667SOL    HW1 5834   8.364   6.235   3.160
34667SOL    HW2 5835   8.411   6.269   3.020
34668SOL     OW 5836   0.501   5.103  13.338
34668SOL    HW1 5837   0.506   5.008  13.338
34668SOL    HW2 5838   0.420   5.123  13.291
34669SOL     OW 5839   7.291   4.516   2.445
34669SOL    HW1 5840   7.228   4.578   2.408
34669SOL    HW2 5841   7.353   4.499   2.375
34670SOL     OW 5842   2.659  12.545  10.053
34670SOL    HW1 5843   2.746  12.513  10.074
34670SOL    HW2 5844   2.609  12.535  10.134
34671SOL     OW 5845   5.923   4.161   5.055
34671SOL    HW1 5846   5.830   4.155   5.078
34671SOL    HW2 5847   5.925   4.165   4.960
34672SOL     OW 5848   5.078  11.572  14.247
34672SOL    HW1 5849   5.020  11.628  14.196
34672SOL    HW2 5850   5.025  11.497  14.272
34673SOL     OW 5851  13.635  13.643  10.049
34673SOL    HW1 5852  13.574  13.701  10.004
34673SOL    HW2 5853  13.613  13.651  10.142
34674SOL     OW 5854   3.791   5.774   2.193
34674SOL    HW1 5855   3.738   5.726   2.257
34674SOL    HW2 5856   3.860   5.712   2.169
34675SOL     OW 5857  11.812  14.157   0.698
34675SOL    HW1 5858  11.880  14.091   0.681
34675SOL    HW2 5859  11.855  14.222   0.753
34676SOL     OW 5860  13.813  10.993   4.287
34676SOL    HW1 5861  13.766  11.074   4.304
34676SOL    HW2 5862  13.897  11.021   4.251
34677SOL     OW 5863   0.688  11.160   2.066
34677SOL    HW1 5864   0.760  11.223   2.072
34677SOL    HW2 5865   0.722  11.082   2.111
34678SOL     OW 5866  12.499   6.350   3.410
34678SOL    HW1 5867  12.543   6.294   3.474
34678SOL    HW2 5868  12.475   6.428   3.459
34679SOL     OW 5869   3.794   6.689  12.809
34679SOL    HW1 5870   3.717   6.730  12.847
34679SOL    HW2 5871   3.775   6.683  12.716
34680SOL     OW 5872   8.205   8.486  10.765
34680SOL    HW1 5873   8.249   8.406  10.737
34680SOL    HW2 5874   8.112   8.464  10.768
34681SOL     OW 5875   7.851  12.763   4.836
34681SOL    HW1 5876   7.813  12.769   4.748
34681SOL    HW2 5877   7.861  12.669   4.852
34682SOL     OW 5878  11.724   2.642  14.651
34682SOL    HW1 5879  11.634   2.639  14.686
34682SOL    HW2 5880  11.760   2.724  14.685
34683SOL     OW 5881  10.902  11.826  12.659
34683SOL    HW1 5882  10.912  11.829  12.564
34683SOL    HW2 5883  10.814  11.858  12.675
34684SOL     OW 5884   4.320   8.735  10.597
34684SOL    HW1 5885   4.302   8.667  10.662
34684SOL    HW2 5886   4.282   8.700  10.516
34685SOL     OW 5887   6.836   7.242   0.365
34685SOL    HW1 5888   6.878   7.189   0.433
34685SOL    HW2 5889   6.904   7.253   0.299
34686SOL     OW 5890  12.102   0.009  12.324
34686SOL    HW1 5891  12.160   0.077  12.290
34686SOL    HW2 5892  12.039   0.055  12.378
34687SOL     OW 5893  11.522   6.844  11.030
34687SOL    HW1 5894  11.503   6.876  11.118
34687SOL    HW2 5895  11.547   6.922  10.981
34688SOL     OW 5896   7.565   0.837   9.617
34688SOL    HW1 5897   7.574   0.926   9.584
34688SOL    HW2 5898   7.471   0.819   9.614
34689SOL     OW 5899  12.665   8.140  14.533
34689SOL    HW1 5900  12.722   8.146  14.457
34689SOL    HW2 5901  12.656   8.231  14.564
34690SOL     OW 5902  14.419   9.571   1.614
34690SOL    HW1 5903  14.403   9.537   1.526
34690SOL    HW2 5904  14.507   9.542   1.637
34691SOL     OW 5905   9.982  12.242   6.235
34691SOL    HW1 5906   9.923  12.298   6.285
34691SOL    HW2 5907  10.069  12.273   6.257
34692SOL     OW 5908   3.630   3.118  12.680
34692SOL    HW1 5909   3.652   3.059  12.608
34692SOL    HW2 5910   3.571   3.067  12.735
34693SOL     OW 5911   4.895  10.115   4.344
34693SOL    HW1 5912   4.961  10.050   4.368
34693SOL    HW2 5913   4.916  10.138   4.254
34694SOL     OW 5914   1.062   3.963   8.290
34694SOL    HW1 5915   1.025   3.875   8.298
34694SOL    HW2 5916   1.135   3.964   8.352
34695SOL     OW 5917  13.934   5.183   3.473
34695SOL    HW1 5918  13.956   5.236   3.397
34695SOL    HW2 5919  13.855   5.136   3.448
34696SOL     OW 5920  11.873  10.559   2.400
34696SOL    HW1 5921  11.964  10.552   2.429
34696SOL    HW2 5922  11.840  10.637   2.444
34697SOL     OW 5923   9.279   6.419   5.336
34697SOL    HW1 5924   9.294   6.496   5.282
34697SOL    HW2 5925   9.270   6.347   5.273
34698SOL     OW 5926   4.411   2.460   4.441
34698SOL    HW1 5927   4.469   2.531   4.415
34698SOL    HW2 5928   4.356   2.444   4.364
34699SOL     OW 5929   0.626   7.341   3.166
34699SOL    HW1 5930   0.686   7.371   3.098
34699SOL    HW2 5931   0.669   7.366   3.249
34700SOL     OW 5932   7.251  11.732   0.787
34700SOL    HW1 5933   7.290  11.797   0.846
34700SOL    HW2 5934   7.242  11.778   0.704
34701SOL     OW 5935   4.733  11.410  13.207
34701SOL    HW1 5936   4.648  11.404  13.251
34701SOL    HW2 5937   4.751  11.504  13.202
34702SOL     OW 5938  13.748  13.970   0.138
34702SOL    HW1 5939  13.821  14.005   0.086
34702SOL    HW2 5940  13.774  13.880   0.159
34703SOL     OW 5941   6.199   0.833  11.101
34703SOL    HW1 5942   6.187   0.843  11.007
34703SOL    HW2 5943   6.288   0.798  11.109
34704SOL     OW 5944  12.426   0.370   9.333
34704SOL    HW1 5945  12.447   0.281   9.305
34704SOL    HW2 5946  12.394   0.359   9.423
34705SOL     OW 5947   3.317   1.928  11.351
34705SOL    HW1 5948   3.342   1.837  11.342
34705SOL    HW2 5949   3.375   1.962  11.420
34706SOL     OW 5950   1.552  11.565  11.670
34706SOL    HW1 5951   1.536  11.659  11.681
34706SOL    HW2 5952   1.573  11.555  11.577
34707SOL     OW 5953  11.598   9.239   3.352
34707SOL    HW1 5954  11.582   9.186   3.274
34707SOL    HW2 5955  11.517   9.288   3.365
34708SOL     OW 5956   7.083  13.188  13.302
34708SOL    HW1 5957   7.064  13.274  13.264
34708SOL    HW2 5958   7.005  13.136  13.285
34709SOL     OW 5959  10.258  11.623  14.365
34709SOL    HW1 5960  10.350  11.606  14.345
34709SOL    HW2 5961  10.260  11.681  14.441
34710SOL     OW 5962   3.180  12.990   1.474
34710SOL    HW1 5963   3.103  13.015   1.423
34710SOL    HW2 5964   3.230  12.933   1.416
34711SOL     OW 5965  12.304   9.678   9.324
34711SOL    HW1 5966  12.274   9.767   9.306
34711SOL    HW2 5967  12.231   9.636   9.370
34712SOL     OW 5968  12.538   5.128  12.275
34712SOL    HW1 5969  12.479   5.197  12.243
34712SOL    HW2 5970  12.617   5.137  12.222
34713SOL     OW 5971   3.533   9.068  11.130
34713SOL    HW1 5972   3.541   9.163  11.141
34713SOL    HW2 5973   3.525   9.034  11.219
34714SOL     OW 5974  13.482  12.475   1.514
34714SOL    HW1 5975  13.428  12.532   1.569
34714SOL    HW2 5976  13.503  12.401   1.571
34715SOL     OW 5977  11.881   1.786   4.125
34715SOL    HW1 5978  11.902   1.816   4.213
34715SOL    HW2 5979  11.918   1.854   4.068
34716SOL     OW 5980  13.364   8.983   2.586
34716SOL    HW1 5981  13.390   9.070   2.615
34716SOL    HW2 5982  13.446   8.936   2.572
34717SOL     OW 5983   7.199  10.763   6.626
34717SOL    HW1 5984   7.110  10.740   6.653
34717SOL    HW2 5985   7.244  10.680   6.615
34718SOL     OW 5986   8.595   0.763  13.446
34718SOL    HW1 5987   8.507   0.727  13.450
34718SOL    HW2 5988   8.614   0.768  13.352
34719SOL     OW 5989  11.424  12.486   4.160
34719SOL    HW1 5990  11.464  12.501   4.075
34719SOL    HW2 5991  11.375  12.566   4.179
34720SOL     OW 5992  11.672  12.200   4.578
34720SOL    HW1 5993  11.730  12.260   4.625
34720SOL    HW2 5994  11.658  12.242   4.493
34721SOL     OW 5995   7.477   0.711   0.416
34721SOL    HW1 5996   7.487   0.619   0.440
34721SOL    HW2 5997   7.544   0.757   0.467
34722SOL     OW 5998   6.608   9.228   9.831
34722SOL    HW1 5999   6.594   9.320   9.808
34722SOL    HW2 6000   6.534   9.182   9.790
34723SOL     OW 6001  11.229  13.125   5.605
34723SOL    HW1 6002  11.265  13.042   5.636
34723SOL    HW2 6003  11.303  13.185   5.607
34724SOL     OW 6004  13.467   1.263   4.276
34724SOL    HW1 6005  13.509   1.347   4.257
34724SOL    HW2 6006  13.417   1.243   4.196
34725SOL     OW 6007   6.145   4.252   8.062
34725SOL    HW1 6008   6.058   4.283   8.034
34725SOL    HW2 6009   6.150   4.162   8.029
34726SOL     OW 6010   7.429   6.556   3.035
34726SOL    HW1 6011   7.443   6.465   3.059
34726SOL    HW2 6012   7.389   6.552   2.948
34727SOL     OW 6013  12.723   6.247  11.363
34727SOL    HW1 6014  12.738   6.330  11.319
34727SOL    HW2 6015  12.634   6.253  11.397
34728SOL     OW 6016  12.002   5.532   7.999
34728SOL    HW1 6017  11.947   5.481   8.059
34728SOL    HW2 6018  11.943   5.561   7.930
34729SOL     OW 6019  10.692  12.804   3.910
34729SOL    HW1 6020  10.736  12.783   3.993
34729SOL    HW2 6021  10.745  12.875   3.873
34730SOL     OW 6022   9.557   5.866   5.405
34730SOL    HW1 6023   9.510   5.925   5.463
34730SOL    HW2 6024   9.590   5.923   5.335
34731SOL     OW 6025   7.137  13.019   4.422
34731SOL    HW1 6026   7.124  12.950   4.487
34731SOL    HW2 6027   7.217  12.993   4.376
34732SOL     OW 6028  14.398   0.421   2.176
34732SOL    HW1 6029  14.399   0.430   2.271
34732SOL    HW2 6030  14.309   0.447   2.150
34733SOL     OW 6031  10.009   5.474   3.138
34733SOL    HW1 6032  10.014   5.427   3.221
34733SOL    HW2 6033   9.934   5.533   3.149
34734SOL     OW 6034   4.652   8.369   0.756
34734SOL    HW1 6035   4.595   8.433   0.712
34734SOL    HW2 6036   4.732   8.369   0.703
34735SOL     OW 6037   1.546   5.361   9.590
34735SOL    HW1 6038   1.611   5.299   9.556
34735SOL    HW2 6039   1.462   5.316   9.579
34736SOL     OW 6040   8.418   2.620  12.736
34736SOL    HW1 6041   8.402   2.527  12.720
34736SOL    HW2 6042   8.510   2.633  12.713
34737SOL     OW 6043  12.846  13.690   6.718
34737SOL    HW1 6044  12.835  13.779   6.751
34737SOL    HW2 6045  12.816  13.634   6.790
34738SOL     OW 6046   4.126   5.416   5.598
34738SOL    HW1 6047   4.040   5.376   5.587
34738SOL    HW2 6048   4.164   5.415   5.511
34739SOL     OW 6049   2.493  11.554   9.748
34739SOL    HW1 6050   2.588  11.563   9.738
34739SOL    HW2 6051   2.456  11.611   9.680
34740SOL     OW 6052   3.134  14.563   5.414
34740SOL    HW1 6053   3.155  14.621   5.487
34740SOL    HW2 6054   3.210  14.506   5.407
34741SOL     OW 6055   5.305   0.086   0.993
34741SOL    HW1 6056   5.241   0.044   0.935
34741SOL    HW2 6057   5.321   0.022   1.062
34742SOL     OW 6058   9.185  13.656   4.636
34742SOL    HW1 6059   9.161  13.566   4.658
34742SOL    HW2 6060   9.135  13.710   4.697
34743SOL     OW 6061   5.135   4.365   5.244
34743SOL    HW1 6062   5.148   4.272   5.224
34743SOL    HW2 6063   5.120   4.368   5.338
34744SOL     OW 6064   9.344  13.702  11.703
34744SOL    HW1 6065   9.295  13.782  11.684
34744SOL    HW2 6066   9.279  13.643  11.742
34745SOL     OW 6067   5.633   9.170  12.486
34745SOL    HW1 6068   5.709   9.227  12.483
34745SOL    HW2 6069   5.613   9.161  12.579
34746SOL     OW 6070  10.872   3.957   1.855
34746SOL    HW1 6071  10.894   3.895   1.785
34746SOL    HW2 6072  10.956   3.975   1.899
34747SOL     OW 6073   5.507   6.409  11.125
34747SOL    HW1 6074   5.510   6.314  11.118
34747SOL    HW2 6075   5.465   6.438  11.044
34748SOL     OW 6076   2.889  11.754   4.865
34748SOL    HW1 6077   2.984  11.761   4.870
34748SOL    HW2 6078   2.863  11.823   4.804
34749SOL     OW 6079   7.725  13.156  11.979
34749SOL    HW1 6080   7.721  13.063  11.957
34749SOL    HW2 6081   7.819  13.176  11.979
34750SOL     OW 6082   8.508  13.288   2.704
34750SOL    HW1 6083   8.500  13.209   2.652
34750SOL    HW2 6084   8.442  13.348   2.667
34751SOL     OW 6085  10.005  10.282   7.694
34751SOL    HW1 6086  10.017  10.187   7.688
34751SOL    HW2 6087   9.917  10.293   7.729
34752SOL     OW 6088   5.158   5.222   2.566
34752SOL    HW1 6089   5.064   5.240   2.574
34752SOL    HW2 6090   5.164   5.127   2.575
34753SOL     OW 6091   5.127  10.407   7.415
34753SOL    HW1 6092   5.099  10.316   7.399
34753SOL    HW2 6093   5.205  10.417   7.361
34754SOL     OW 6094  12.384   0.179   6.269
34754SOL    HW1 6095  12.397   0.119   6.343
34754SOL    HW2 6096  12.299   0.220   6.287
34755SOL     OW 6097   4.996   4.300   2.868
34755SOL    HW1 6098   5.056   4.290   2.795
34755SOL    HW2 6099   5.019   4.230   2.929
34756SOL     OW 6100   8.745  10.684  13.053
34756SOL    HW1 6101   8.709  10.621  12.990
34756SOL    HW2 6102   8.745  10.637  13.137
34757SOL     OW 6103  12.327  12.390   8.120
34757SOL    HW1 6104  12.365  12.326   8.060
34757SOL    HW2 6105  12.337  12.351   8.206
34758SOL     OW 6106  14.704  13.599  12.164
34758SOL    HW1 6107  14.638  13.625  12.228
34758SOL    HW2 6108  14.666  13.522  12.121
34759SOL     OW 6109  12.553   7.122   0.775
34759SOL    HW1 6110  12.605   7.122   0.856
34759SOL    HW2 6111  12.527   7.030   0.764
34760SOL     OW 6112  13.007  12.481  12.166
34760SOL    HW1 6113  13.078  12.537  12.134
34760SOL    HW2 6114  13.051  12.412  12.215
34761SOL     OW 6115   1.643  13.784   9.735
34761SOL    HW1 6116   1.676  13.848   9.799
34761SOL    HW2 6117   1.706  13.712   9.737
34762SOL     OW 6118  14.448   7.952   9.482
34762SOL    HW1 6119  14.507   7.889   9.441
34762SOL    HW2 6120  14.372   7.955   9.425
34763SOL     OW 6121   5.618  12.134  13.960
34763SOL    HW1 6122   5.676  12.093  14.024
34763SOL    HW2 6123   5.639  12.227  13.964
34764SOL     OW 6124   7.680   6.704  11.864
34764SOL    HW1 6125   7.676   6.650  11.785
34764SOL    HW2 6126   7.607   6.673  11.917
34765SOL     OW 6127   3.692   7.398  14.857
34765SOL    HW1 6128   3.735   7.312  14.860
34765SOL    HW2 6129   3.726   7.444   0.055
34766SOL     OW 6130  11.871   1.836   8.958
34766SOL    HW1 6131  11.877   1.820   9.053
34766SOL    HW2 6132  11.924   1.914   8.944
34767SOL     OW 6133  11.736   9.100  13.229
34767SOL    HW1 6134  11.673   9.063  13.292
34767SOL    HW2 6135  11.684   9.117  13.151
34768SOL     OW 6136   2.761   3.893   5.508
34768SOL    HW1 6137   2.833   3.944   5.471
34768SOL    HW2 6138   2.771   3.903   5.603
34769SOL     OW 6139  12.278   1.437   3.564
34769SOL    HW1 6140  12.243   1.359   3.606
34769SOL    HW2 6141  12.201   1.480   3.527
34770SOL     OW 6142   7.924   8.018   9.166
34770SOL    HW1 6143   7.848   7.972   9.131
34770SOL    HW2 6144   7.967   8.056   9.089
34771SOL     OW 6145   6.980   1.715   9.404
34771SOL    HW1 6146   7.066   1.744   9.436
34771SOL    HW2 6147   6.991   1.713   9.308
34772SOL     OW 6148   2.945  12.747  11.811
34772SOL    HW1 6149   2.873  12.690  11.839
34772SOL    HW2 6150   2.996  12.761  11.891
34773SOL     OW 6151   1.138  10.987   1.050
34773SOL    HW1 6152   1.085  11.067   1.056
34773SOL    HW2 6153   1.207  11.009   0.988
34774SOL     OW 6154  12.075   2.959  12.773
34774SOL    HW1 6155  11.995   2.976  12.823
34774SOL    HW2 6156  12.137   3.026  12.804
34775SOL     OW 6157   9.713  14.441   7.143
34775SOL    HW1 6158   9.761  14.458   7.062
34775SOL    HW2 6159   9.639  14.502   7.140
34776SOL     OW 6160  13.945  10.667   5.679
34776SOL    HW1 6161  13.881  10.737   5.693
34776SOL    HW2 6162  14.023  10.713   5.646
34777SOL     OW 6163  14.026   3.506  11.831
34777SOL    HW1 6164  13.963   3.435  11.841
34777SOL    HW2 6165  14.015   3.560  11.909
34778SOL     OW 6166   4.714  13.758   2.510
34778SOL    HW1 6167   4.730  13.852   2.521
34778SOL    HW2 6168   4.621  13.747   2.532
34779SOL     OW 6169  11.342   8.100  13.115
34779SOL    HW1 6170  11.395   8.135  13.187
34779SOL    HW2 6171  11.382   8.016  13.094
34780SOL     OW 6172   5.708   4.510  13.591
34780SOL    HW1 6173   5.750   4.595  13.575
34780SOL    HW2 6174   5.726   4.492  13.684
34781SOL     OW 6175   7.286  12.955   2.501
34781SOL    HW1 6176   7.258  12.936   2.412
34781SOL    HW2 6177   7.363  12.900   2.514
34782SOL     OW 6178  11.292   8.257   0.770
34782SOL    HW1 6179  11.308   8.169   0.803
34782SOL    HW2 6180  11.276   8.310   0.848
34783SOL     OW 6181   3.669   6.071   5.904
34783SOL    HW1 6182   3.730   6.013   5.858
34783SOL    HW2 6183   3.694   6.063   5.996
34784SOL     OW 6184  11.047   0.147   5.176
34784SOL    HW1 6185  11.095   0.099   5.243
34784SOL    HW2 6186  11.000   0.080   5.126
34785SOL     OW 6187   6.408   5.023   8.138
34785SOL    HW1 6188   6.325   5.066   8.159
34785SOL    HW2 6189   6.383   4.941   8.096
34786SOL     OW 6190  10.515   4.034  14.226
34786SOL    HW1 6191  10.548   4.089  14.155
34786SOL    HW2 6192  10.495   4.096  14.297
34787SOL     OW 6193   3.346   0.094   8.336
34787SOL    HW1 6194   3.425   0.147   8.328
34787SOL    HW2 6195   3.333   0.058   8.248
34788SOL     OW 6196   3.056   8.564   4.007
34788SOL    HW1 6197   2.985   8.627   4.017
34788SOL    HW2 6198   3.081   8.571   3.914
34789SOL     OW 6199   6.738   5.974   4.535
34789SOL    HW1 6200   6.788   5.952   4.613
34789SOL    HW2 6201   6.708   6.064   4.550
34790SOL     OW 6202   1.872   7.966  12.399
34790SOL    HW1 6203   1.965   7.948  12.414
34790SOL    HW2 6204   1.841   7.893  12.346
34791SOL     OW 6205   9.316  12.824   7.523
34791SOL    HW1 6206   9.383  12.769   7.566
34791SOL    HW2 6207   9.251  12.761   7.493
34792SOL     OW 6208   3.857   4.416   3.035
34792SOL    HW1 6209   3.922   4.380   2.974
34792SOL    HW2 6210   3.874   4.510   3.035
34793SOL     OW 6211   5.207   1.611  10.554
34793SOL    HW1 6212   5.204   1.601  10.649
34793SOL    HW2 6213   5.290   1.570  10.529
34794SOL     OW 6214   3.875  11.355   2.694
34794SOL    HW1 6215   3.824  11.339   2.773
34794SOL    HW2 6216   3.841  11.439   2.661
34795SOL     OW 6217   2.828   7.041   9.490
34795SOL    HW1 6218   2.780   7.109   9.443
34795SOL    HW2 6219   2.761   6.988   9.533
34796SOL     OW 6220  14.834   2.227   5.124
34796SOL    HW1 6221  14.821   2.133   5.113
34796SOL    HW2 6222   0.050   2.239   5.117
34797SOL     OW 6223   4.637  10.237   1.492
34797SOL    HW1 6224   4.550  10.272   1.513
34797SOL    HW2 6225   4.656  10.176   1.563
34798SOL     OW 6226   7.971  12.350   1.040
34798SOL    HW1 6227   7.883  12.381   1.059
34798SOL    HW2 6228   8.000  12.403   0.966
34799SOL     OW 6229  12.283   9.428   0.752
34799SOL    HW1 6230  12.333   9.450   0.831
34799SOL    HW2 6231  12.224   9.503   0.740
34800SOL     OW 6232  11.640   6.647   2.603
34800SOL    HW1 6233  11.577   6.576   2.593
34800SOL    HW2 6234  11.691   6.646   2.522
34801SOL     OW 6235  12.117   3.830   1.077
34801SOL    HW1 6236  12.038   3.783   1.050
34801SOL    HW2 6237  12.144   3.879   0.999
34802SOL     OW 6238   9.802   1.695   5.918
34802SOL    HW1 6239   9.819   1.775   5.868
34802SOL    HW2 6240   9.751   1.640   5.858
34803SOL     OW 6241  11.728   8.634   8.513
34803SOL    HW1 6242  11.644   8.625   8.559
34803SOL    HW2 6243  11.783   8.684   8.573
34804SOL     OW 6244   8.635   2.202  12.816
34804SOL    HW1 6245   8.620   2.109  12.799
34804SOL    HW2 6246   8.550   2.244  12.801
34805SOL     OW 6247   7.404   9.253  12.791
34805SOL    HW1 6248   7.433   9.259  12.700
34805SOL    HW2 6249   7.389   9.343  12.818
34806SOL     OW 6250   9.407  13.426  13.794
34806SOL    HW1 6251   9.371  13.453  13.878
34806SOL    HW2 6252   9.415  13.331  13.801
34807SOL     OW 6253   0.223  10.035  10.171
34807SOL    HW1 6254   0.188  10.103  10.229
34807SOL    HW2 6255   0.276  10.083  10.108
34808SOL     OW 6256   0.629  14.348   7.567
34808SOL    HW1 6257   0.704  14.361   7.625
34808SOL    HW2 6258   0.627  14.426   7.512
34809SOL     OW 6259   7.987   0.990   0.318
34809SOL    HW1 6260   8.042   1.054   0.273
34809SOL    HW2 6261   8.048   0.939   0.372
34810SOL     OW 6262  11.394  12.663  10.809
34810SOL    HW1 6263  11.420  12.704  10.891
34810SOL    HW2 6264  11.407  12.731  10.743
34811SOL     OW 6265   6.742  14.557   0.411
34811SOL    HW1 6266   6.779  14.630   0.461
34811SOL    HW2 6267   6.702  14.500   0.478
34812SOL     OW 6268   0.321   4.199   8.541
34812SOL    HW1 6269   0.288   4.262   8.478
34812SOL    HW2 6270   0.269   4.215   8.620
34813SOL     OW 6271  11.031  13.684   8.127
34813SOL    HW1 6272  10.955  13.738   8.107
34813SOL    HW2 6273  11.047  13.634   8.048
34814SOL     OW 6274   6.408  12.261  11.108
34814SOL    HW1 6275   6.322  12.303  11.109
34814SOL    HW2 6276   6.413  12.218  11.023
34815SOL     OW 6277   9.807  13.714  12.884
34815SOL    HW1 6278   9.835  13.626  12.909
34815SOL    HW2 6279   9.888  13.759  12.859
34816SOL     OW 6280   3.473   8.710   8.655
34816SOL    HW1 6281   3.490   8.797   8.617
34816SOL    HW2 6282   3.515   8.713   8.741
34817SOL     OW 6283  13.513  13.392   8.703
34817SOL    HW1 6284  13.582  13.458   8.701
34817SOL    HW2 6285  13.462  13.414   8.781
34818SOL     OW 6286   4.927  10.485  12.504
34818SOL    HW1 6287   4.964  10.523  12.583
34818SOL    HW2 6288   4.998  10.431  12.467
34819SOL     OW 6289  13.348   0.695  12.673
34819SOL    HW1 6290  13.261   0.672  12.704
34819SOL    HW2 6291  13.334   0.770  12.614
34820SOL     OW 6292   5.991   4.456   5.109
34820SOL    HW1 6293   5.934   4.381   5.124
34820SOL    HW2 6294   6.067   4.441   5.166
34821SOL     OW 6295   6.041  14.387  10.104
34821SOL    HW1 6296   5.962  14.407  10.055
34821SOL    HW2 6297   6.068  14.301  10.071
34822SOL     OW 6298   3.155   8.875  10.477
34822SOL    HW1 6299   3.132   8.961  10.512
34822SOL    HW2 6300   3.088   8.816  10.513
34823SOL     OW 6301   0.623   8.721   5.556
34823SOL    HW1 6302   0.546   8.776   5.543
34823SOL    HW2 6303   0.600   8.637   5.517
34824SOL     OW 6304   9.760   9.987   3.008
34824SOL    HW1 6305   9.799   9.964   2.924
34824SOL    HW2 6306   9.820  10.051   3.046
34825SOL     OW 6307   0.318   2.501   7.259
34825SOL    HW1 6308   0.382   2.542   7.317
34825SOL    HW2 6309   0.365   2.489   7.176
34826SOL     OW 6310   0.403   0.873   6.086
34826SOL    HW1 6311   0.474   0.819   6.118
34826SOL    HW2 6312   0.404   0.861   5.991
34827SOL     OW 6313   7.477   2.379   1.502
34827SOL    HW1 6314   7.469   2.287   1.527
34827SOL    HW2 6315   7.547   2.414   1.558
34828SOL     OW 6316   1.699   9.243  11.093
34828SOL    HW1 6317   1.711   9.311  11.160
34828SOL    HW2 6318   1.637   9.282  11.031
34829SOL     OW 6319   4.524   7.803  13.652
34829SOL    HW1 6320   4.534   7.811  13.747
34829SOL    HW2 6321   4.527   7.894  13.620
34830SOL     OW 6322   1.980   6.937  14.130
34830SOL    HW1 6323   2.024   6.892  14.058
34830SOL    HW2 6324   2.044   6.938  14.201
34831SOL     OW 6325  12.400  13.049  13.580
34831SOL    HW1 6326  12.375  13.057  13.672
34831SOL    HW2 6327  12.462  13.121  13.566
34832SOL     OW 6328   1.659  14.145   3.752
34832SOL    HW1 6329   1.696  14.115   3.669
34832SOL    HW2 6330   1.714  14.218   3.778
34833SOL     OW 6331  10.546   2.400   8.463
34833SOL    HW1 6332  10.457   2.384   8.430
34833SOL    HW2 6333  10.565   2.490   8.436
34834SOL     OW 6334  11.076   7.978  12.923
34834SOL    HW1 6335  11.014   7.946  12.988
34834SOL    HW2 6336  11.042   7.945  12.839
34835SOL     OW 6337   8.578   5.534   4.797
34835SOL    HW1 6338   8.524   5.613   4.797
34835SOL    HW2 6339   8.539   5.477   4.731
34836SOL     OW 6340   4.193  10.305  12.610
34836SOL    HW1 6341   4.188  10.209  12.611
34836SOL    HW2 6342   4.246  10.325  12.532
34837SOL     OW 6343  14.073   8.049   0.029
34837SOL    HW1 6344  14.067   7.992   0.106
34837SOL    HW2 6345  14.064   8.137   0.064
34838SOL     OW 6346   7.913   6.108   4.140
34838SOL    HW1 6347   7.825   6.080   4.113
34838SOL    HW2 6348   7.972   6.061   4.082
34839SOL     OW 6349   6.648  13.662  11.186
34839SOL    HW1 6350   6.577  13.607  11.220
34839SOL    HW2 6351   6.692  13.607  11.121
34840SOL     OW 6352   8.540  14.740   9.300
34840SOL    HW1 6353   8.516  14.708   9.213
34840SOL    HW2 6354   8.636  14.742   9.300
34841SOL     OW 6355   1.960  11.195   9.251
34841SOL    HW1 6356   2.050  11.226   9.250
34841SOL    HW2 6357   1.961  11.116   9.197
34842SOL     OW 6358  11.106   5.463  13.456
34842SOL    HW1 6359  11.131   5.502  13.372
34842SOL    HW2 6360  11.188   5.456  13.505
34843SOL     OW 6361   9.092   3.237  12.040
34843SOL    HW1 6362   9.063   3.159  11.994
34843SOL    HW2 6363   9.021   3.300  12.028
34844SOL     OW 6364   7.476  10.608   5.439
34844SOL    HW1 6365   7.468  10.534   5.379
34844SOL    HW2 6366   7.492  10.684   5.382
34845SOL     OW 6367  10.371   9.353   4.222
34845SOL    HW1 6368  10.385   9.344   4.127
34845SOL    HW2 6369  10.442   9.410   4.251
34846SOL     OW 6370  13.430  11.150   2.719
34846SOL    HW1 6371  13.493  11.099   2.771
34846SOL    HW2 6372  13.484  11.193   2.652
34847SOL     OW 6373  10.347  13.425   9.628
34847SOL    HW1 6374  10.401  13.476   9.568
34847SOL    HW2 6375  10.376  13.334   9.614
34848SOL     OW 6376   2.551  12.993   6.127
34848SOL    HW1 6377   2.458  13.012   6.113
34848SOL    HW2 6378   2.592  13.011   6.043
34849SOL     OW 6379  13.131  14.808   6.490
34849SOL    HW1 6380  13.122  14.726   6.441
34849SOL    HW2 6381  13.042  14.829   6.519
34850SOL     OW 6382  11.710   6.661  14.066
34850SOL    HW1 6383  11.621   6.695  14.077
34850SOL    HW2 6384  11.711   6.625  13.978
34851SOL     OW 6385  12.841   6.293  13.348
34851SOL    HW1 6386  12.847   6.359  13.417
34851SOL    HW2 6387  12.768   6.237  13.375
34852SOL     OW 6388   5.209   1.595   0.599
34852SOL    HW1 6389   5.172   1.508   0.616
34852SOL    HW2 6390   5.269   1.581   0.526
34853SOL     OW 6391   5.324   4.735  14.002
34853SOL    HW1 6392   5.389   4.781  14.055
34853SOL    HW2 6393   5.296   4.661  14.056
34854SOL     OW 6394   3.228  12.558   6.013
34854SOL    HW1 6395   3.303  12.555   5.953
34854SOL    HW2 6396   3.267  12.577   6.098
34855SOL     OW 6397  10.447   5.052   4.398
34855SOL    HW1 6398  10.373   5.081   4.345
34855SOL    HW2 6399  10.517   5.114   4.379
34856SOL     OW 6400   6.306   0.821   4.978
34856SOL    HW1 6401   6.286   0.913   4.998
34856SOL    HW2 6402   6.354   0.790   5.055
34857SOL     OW 6403  11.605  10.882   5.431
34857SOL    HW1 6404  11.661  10.959   5.424
34857SOL    HW2 6405  11.573  10.884   5.521
34858SOL     OW 6406  11.909   5.033  13.331
34858SOL    HW1 6407  11.821   5.027  13.370
34858SOL    HW2 6408  11.925   5.127  13.323
34859SOL     OW 6409  12.968   8.224  14.170
34859SOL    HW1 6410  12.961   8.231  14.075
34859SOL    HW2 6411  12.880   8.202  14.200
34860SOL     OW 6412   8.501   0.136   5.309
34860SOL    HW1 6413   8.411   0.166   5.298
34860SOL    HW2 6414   8.529   0.174   5.393
34861SOL     OW 6415   1.229   9.829   7.578
34861SOL    HW1 6416   1.243   9.767   7.649
34861SOL    HW2 6417   1.141   9.809   7.546
34862SOL     OW 6418   9.060   9.386   6.847
34862SOL    HW1 6419   9.076   9.320   6.915
34862SOL    HW2 6420   9.147   9.419   6.824
34863SOL     OW 6421   1.274   6.100   8.663
34863SOL    HW1 6422   1.248   6.182   8.621
34863SOL    HW2 6423   1.221   6.033   8.620
34864SOL     OW 6424  10.570  13.981   1.467
34864SOL    HW1 6425  10.506  14.036   1.422
34864SOL    HW2 6426  10.565  14.009   1.558
34865SOL     OW 6427   7.681   7.107  12.164
34865SOL    HW1 6428   7.777   7.099  12.170
34865SOL    HW2 6429   7.660   7.180  12.221
34866SOL     OW 6430  12.054   4.620  10.318
34866SOL    HW1 6431  12.051   4.674  10.397
34866SOL    HW2 6432  12.127   4.560  10.332
34867SOL     OW 6433  11.954   2.339   8.497
34867SOL    HW1 6434  11.884   2.337   8.562
34867SOL    HW2 6435  11.919   2.391   8.425
34868SOL     OW 6436  10.611   4.221   3.279
34868SOL    HW1 6437  10.586   4.289   3.216
34868SOL    HW2 6438  10.696   4.249   3.313
34869SOL     OW 6439   6.623  12.222  13.577
34869SOL    HW1 6440   6.601  12.210  13.484
34869SOL    HW2 6441   6.604  12.137  13.617
34870SOL     OW 6442   8.343   6.169   8.453
34870SOL    HW1 6443   8.284   6.139   8.522
34870SOL    HW2 6444   8.347   6.264   8.464
34871SOL     OW 6445   0.549   2.641   5.428
34871SOL    HW1 6446   0.561   2.733   5.449
34871SOL    HW2 6447   0.502   2.641   5.344
34872SOL     OW 6448  11.268  11.210   4.351
34872SOL    HW1 6449  11.246  11.296   4.314
34872SOL    HW2 6450  11.362  11.216   4.369
34873SOL     OW 6451   9.974  11.404   2.807
34873SOL    HW1 6452   9.900  11.406   2.869
34873SOL    HW2 6453  10.051  11.414   2.862
34874SOL     OW 6454   3.346  14.303   8.083
34874SOL    HW1 6455   3.306  14.389   8.096
34874SOL    HW2 6456   3.421  14.303   8.144
34875SOL     OW 6457   1.928   0.224   0.803
34875SOL    HW1 6458   1.928   0.133   0.832
34875SOL    HW2 6459   2.009   0.261   0.838
34876SOL     OW 6460   3.833   7.940  12.976
34876SOL    HW1 6461   3.828   8.034  12.991
34876SOL    HW2 6462   3.749   7.906  13.007
34877SOL     OW 6463   8.286  11.329   3.409
34877SOL    HW1 6464   8.297  11.407   3.464
34877SOL    HW2 6465   8.366  11.279   3.422
34878SOL     OW 6466   8.815  13.751   1.180
34878SOL    HW1 6467   8.873  13.822   1.153
34878SOL    HW2 6468   8.729  13.793   1.190
34879SOL     OW 6469   9.198  13.897  10.811
34879SOL    HW1 6470   9.177  13.941  10.894
34879SOL    HW2 6471   9.122  13.842  10.794
34880SOL     OW 6472  11.289   1.259  12.380
34880SOL    HW1 6473  11.352   1.331  12.388
34880SOL    HW2 6474  11.273   1.231  12.470
34881SOL     OW 6475  14.252   8.846  11.219
34881SOL    HW1 6476  14.257   8.932  11.260
34881SOL    HW2 6477  14.206   8.862  11.136
34882SOL     OW 6478   6.096   2.794   3.822
34882SOL    HW1 6479   6.149   2.775   3.899
34882SOL    HW2 6480   6.159   2.796   3.749
34883SOL     OW 6481   6.963   8.534  11.051
34883SOL    HW1 6482   7.051   8.501  11.072
34883SOL    HW2 6483   6.945   8.600  11.118
34884SOL     OW 6484  11.702   1.138   4.131
34884SOL    HW1 6485  11.667   1.111   4.046
34884SOL    HW2 6486  11.792   1.107   4.130
34885SOL     OW 6487   0.970   3.612   6.433
34885SOL    HW1 6488   1.021   3.533   6.412
34885SOL    HW2 6489   0.879   3.585   6.425
34886SOL     OW 6490  13.746   6.180   4.320
34886SOL    HW1 6491  13.652   6.169   4.303
34886SOL    HW2 6492  13.752   6.266   4.362
34887SOL     OW 6493   7.783  14.042   6.334
34887SOL    HW1 6494   7.785  14.054   6.239
34887SOL    HW2 6495   7.761  13.950   6.346
34888SOL     OW 6496  14.175   3.974   6.874
34888SOL    HW1 6497  14.220   3.955   6.957
34888SOL    HW2 6498  14.143   3.889   6.845
34889SOL     OW 6499  10.598  12.614   3.715
34889SOL    HW1 6500  10.645  12.671   3.776
34889SOL    HW2 6501  10.615  12.526   3.748
34890SOL     OW 6502   1.725   6.840  12.414
34890SOL    HW1 6503   1.783   6.905  12.374
34890SOL    HW2 6504   1.721   6.866  12.506
34891SOL     OW 6505   1.289   8.065  13.508
34891SOL    HW1 6506   1.300   8.031  13.418
34891SOL    HW2 6507   1.295   8.160  13.498
34892SOL     OW 6508   3.161   2.834   7.544
34892SOL    HW1 6509   3.130   2.882   7.620
34892SOL    HW2 6510   3.180   2.901   7.479
34893SOL     OW 6511  12.770   9.423   6.051
34893SOL    HW1 6512  12.823   9.381   6.119
34893SOL    HW2 6513  12.832   9.442   5.981
34894SOL     OW 6514   3.924   5.560   1.365
34894SOL    HW1 6515   3.956   5.481   1.409
34894SOL    HW2 6516   4.002   5.614   1.354
34895SOL     OW 6517   3.647   3.238   1.500
34895SOL    HW1 6518   3.638   3.308   1.565
34895SOL    HW2 6519   3.629   3.281   1.417
34896SOL     OW 6520   2.137   2.231   2.446
34896SOL    HW1 6521   2.157   2.175   2.371
34896SOL    HW2 6522   2.095   2.308   2.408
34897SOL     OW 6523   9.857   5.422  14.806
34897SOL    HW1 6524   9.940   5.405  14.760
34897SOL    HW2 6525   9.874   5.499  14.859
34898SOL     OW 6526  13.614   8.604   9.617
34898SOL    HW1 6527  13.611   8.697   9.639
34898SOL    HW2 6528  13.525   8.582   9.591
34899SOL     OW 6529   0.969   2.402   2.157
34899SOL    HW1 6530   0.917   2.482   2.155
34899SOL    HW2 6531   0.969   2.370   2.067
34900SOL     OW 6532  11.317   3.491  11.496
34900SOL    HW1 6533  11.248   3.465  11.435
34900SOL    HW2 6534  11.293   3.450  11.579
34901SOL     OW 6535   4.842   2.692  11.101
34901SOL    HW1 6536   4.866   2.762  11.161
34901SOL    HW2 6537   4.881   2.613  11.138
34902SOL     OW 6538  10.448   1.186   8.828
34902SOL    HW1 6539  10.387   1.155   8.894
34902SOL    HW2 6540  10.441   1.281   8.830
34903SOL     OW 6541   7.135   6.222  11.395
34903SOL    HW1 6542   7.040   6.223  11.409
34903SOL    HW2 6543   7.171   6.253  11.478
34904SOL     OW 6544  12.204   9.969   1.212
34904SOL    HW1 6545  12.268  10.036   1.186
34904SOL    HW2 6546  12.246   9.886   1.187
34905SOL     OW 6547   5.349  12.062   1.331
34905SOL    HW1 6548   5.384  12.004   1.398
34905SOL    HW2 6549   5.425  12.082   1.276
34906SOL     OW 6550   8.032  13.154   0.990
34906SOL    HW1 6551   7.943  13.127   1.013
34906SOL    HW2 6552   8.023  13.247   0.968
34907SOL     OW 6553   8.194   8.857   8.218
34907SOL    HW1 6554   8.120   8.911   8.244
34907SOL    HW2 6555   8.169   8.768   8.243
34908SOL     OW 6556   1.459   8.849   4.665
34908SOL    HW1 6557   1.454   8.762   4.624
34908SOL    HW2 6558   1.435   8.910   4.595
34909SOL     OW 6559   1.953   3.413   9.179
34909SOL    HW1 6560   1.886   3.475   9.209
34909SOL    HW2 6561   2.026   3.468   9.152
34910SOL     OW 6562  11.553   9.549   9.616
34910SOL    HW1 6563  11.595   9.509   9.692
34910SOL    HW2 6564  11.578   9.641   9.620
34911SOL     OW 6565  13.531   2.835  13.646
34911SOL    HW1 6566  13.476   2.855  13.570
34911SOL    HW2 6567  13.621   2.837  13.613
34912SOL     OW 6568   7.665   1.602   7.441
34912SOL    HW1 6569   7.733   1.599   7.375
34912SOL    HW2 6570   7.709   1.575   7.522
34913SOL     OW 6571   6.171   3.627  11.843
34913SOL    HW1 6572   6.114   3.635  11.767
34913SOL    HW2 6573   6.112   3.608  11.916
34914SOL     OW 6574   8.694   3.316   7.613
34914SOL    HW1 6575   8.773   3.315   7.558
34914SOL    HW2 6576   8.648   3.396   7.587
34915SOL     OW 6577   1.902   4.769   9.691
34915SOL    HW1 6578   1.938   4.681   9.697
34915SOL    HW2 6579   1.975   4.823   9.662
34916SOL     OW 6580   7.643   7.269   2.808
34916SOL    HW1 6581   7.674   7.244   2.720
34916SOL    HW2 6582   7.673   7.359   2.819
34917SOL     OW 6583   7.247  14.668  13.055
34917SOL    HW1 6584   7.254  14.578  13.026
34917SOL    HW2 6585   7.240  14.663  13.151
34918SOL     OW 6586   4.703  14.262  12.080
34918SOL    HW1 6587   4.769  14.278  12.013
34918SOL    HW2 6588   4.628  14.226  12.032
34919SOL     OW 6589  13.187  12.963   8.555
34919SOL    HW1 6590  13.273  12.952   8.598
34919SOL    HW2 6591  13.127  12.980   8.627
34920SOL     OW 6592   9.824   9.014  10.759
34920SOL    HW1 6593   9.729   9.006  10.761
34920SOL    HW2 6594   9.843   9.089  10.815
34921SOL     OW 6595   0.864  10.255   0.196
34921SOL    HW1 6596   0.925  10.183   0.177
34921SOL    HW2 6597   0.827  10.278   0.111
34922SOL     OW 6598  13.231   9.754   2.990
34922SOL    HW1 6599  13.292   9.795   2.929
34922SOL    HW2 6600  13.195   9.827   3.041
34923SOL     OW 6601   0.641  13.422   0.772
34923SOL    HW1 6602   0.637  13.444   0.865
34923SOL    HW2 6603   0.718  13.365   0.765
34924SOL     OW 6604   9.440  11.174   2.569
34924SOL    HW1 6605   9.428  11.095   2.622
34924SOL    HW2 6606   9.374  11.167   2.500
34925SOL     OW 6607   2.995   7.395   2.026
34925SOL    HW1 6608   3.021   7.481   1.993
34925SOL    HW2 6609   3.029   7.392   2.115
34926SOL     OW 6610   7.763  12.137  11.419
34926SOL    HW1 6611   7.834  12.199  11.403
34926SOL    HW2 6612   7.764  12.123  11.513
34927SOL     OW 6613  11.606  13.459   7.421
34927SOL    HW1 6614  11.527  13.476   7.472
34927SOL    HW2 6615  11.663  13.411   7.481
34928SOL     OW 6616  13.888  11.212  11.852
34928SOL    HW1 6617  13.923  11.131  11.889
34928SOL    HW2 6618  13.807  11.186  11.809
34929SOL     OW 6619   5.146   6.255  12.254
34929SOL    HW1 6620   5.202   6.305  12.194
34929SOL    HW2 6621   5.171   6.164  12.240
34930SOL     OW 6622   3.560  11.595   5.180
34930SOL    HW1 6623   3.652  11.596   5.154
34930SOL    HW2 6624   3.543  11.505   5.206
34931SOL     OW 6625   6.991   9.777   7.175
34931SOL    HW1 6626   7.045   9.798   7.251
34931SOL    HW2 6627   6.902   9.800   7.202
34932SOL     OW 6628  11.273   5.331   7.651
34932SOL    HW1 6629  11.346   5.300   7.597
34932SOL    HW2 6630  11.256   5.258   7.711
34933SOL     OW 6631   7.154   6.999   1.785
34933SOL    HW1 6632   7.103   6.956   1.716
34933SOL    HW2 6633   7.127   6.954   1.866
34934SOL     OW 6634   3.770   5.549   7.521
34934SOL    HW1 6635   3.853   5.591   7.540
34934SOL    HW2 6636   3.706   5.620   7.518
34935SOL     OW 6637   4.660   8.526   5.357
34935SOL    HW1 6638   4.636   8.616   5.335
34935SOL    HW2 6639   4.747   8.534   5.396
34936SOL     OW 6640   8.387   2.698   1.538
34936SOL    HW1 6641   8.293   2.716   1.535
34936SOL    HW2 6642   8.395   2.626   1.601
34937SOL     OW 6643  12.543  13.306   2.673
34937SOL    HW1 6644  12.535  13.376   2.608
34937SOL    HW2 6645  12.562  13.352   2.755
34938SOL     OW 6646  12.673  14.621  13.488
34938SOL    HW1 6647  12.641  14.544  13.441
34938SOL    HW2 6648  12.611  14.691  13.466
34939SOL     OW 6649  10.046   2.075   8.863
34939SOL    HW1 6650  10.128   2.073   8.912
34939SOL    HW2 6651   9.979   2.096   8.928
34940SOL     OW 6652  11.868   7.529   2.844
34940SOL    HW1 6653  11.928   7.555   2.774
34940SOL    HW2 6654  11.830   7.611   2.874
34941SOL     OW 6655   7.396  11.682  14.418
34941SOL    HW1 6656   7.312  11.727  14.410
34941SOL    HW2 6657   7.380  11.612  14.481
34942SOL     OW 6658   5.085   4.516   1.602
34942SOL    HW1 6659   5.059   4.538   1.691
34942SOL    HW2 6660   5.079   4.421   1.598
34943SOL     OW 6661   5.891   7.551   9.989
34943SOL    HW1 6662   5.932   7.466  10.008
34943SOL    HW2 6663   5.958   7.615  10.008
34944SOL     OW 6664  14.339  12.318   8.083
34944SOL    HW1 6665  14.403  12.309   8.154
34944SOL    HW2 6666  14.257  12.285   8.121
34945SOL     OW 6667   7.821   0.847   6.920
34945SOL    HW1 6668   7.901   0.815   6.961
34945SOL    HW2 6669   7.756   0.779   6.939
34946SOL     OW 6670   7.841   1.301   6.612
34946SOL    HW1 6671   7.769   1.350   6.652
34946SOL    HW2 6672   7.911   1.366   6.602
34947SOL     OW 6673   8.094  13.002   8.018
34947SOL    HW1 6674   8.125  12.914   7.997
34947SOL    HW2 6675   8.020  13.016   7.959
34948SOL     OW 6676   7.500   8.929   9.720
34948SOL    HW1 6677   7.461   8.963   9.800
34948SOL    HW2 6678   7.533   8.842   9.743
34949SOL     OW 6679   5.360  14.603   6.051
34949SOL    HW1 6680   5.428  14.559   6.102
34949SOL    HW2 6681   5.291  14.538   6.042
34950SOL     OW 6682  10.311  10.518   5.510
34950SOL    HW1 6683  10.300  10.565   5.427
34950SOL    HW2 6684  10.232  10.465   5.519
34951SOL     OW 6685  12.753   5.777   8.755
34951SOL    HW1 6686  12.774   5.862   8.793
34951SOL    HW2 6687  12.837   5.730   8.755
34952SOL     OW 6688  11.762   7.621   8.722
34952SOL    HW1 6689  11.815   7.668   8.786
34952SOL    HW2 6690  11.761   7.531   8.754
34953SOL     OW 6691   3.239   9.253  12.625
34953SOL    HW1 6692   3.154   9.249  12.670
34953SOL    HW2 6693   3.303   9.230  12.692
34954SOL     OW 6694   3.646   7.692   2.071
34954SOL    HW1 6695   3.566   7.722   2.115
34954SOL    HW2 6696   3.623   7.694   1.978
34955SOL     OW 6697   0.089  13.014   5.243
34955SOL    HW1 6698   0.008  12.995   5.194
34955SOL    HW2 6699   0.095  13.109   5.243
34956SOL     OW 6700   5.551  14.322   8.665
34956SOL    HW1 6701   5.597  14.287   8.741
34956SOL    HW2 6702   5.621  14.356   8.608
34957SOL     OW 6703   2.040   8.272  12.562
34957SOL    HW1 6704   2.007   8.360  12.577
34957SOL    HW2 6705   2.006   8.249  12.475
34958SOL     OW 6706   7.840   1.596   0.669
34958SOL    HW1 6707   7.830   1.683   0.629
34958SOL    HW2 6708   7.837   1.535   0.595
34959SOL     OW 6709   9.719  10.388   8.033
34959SOL    HW1 6710   9.652  10.326   8.063
34959SOL    HW2 6711   9.795  10.333   8.014
34960SOL     OW 6712  10.604   1.483  11.799
34960SOL    HW1 6713  10.633   1.409  11.747
34960SOL    HW2 6714  10.615   1.560  11.742
34961SOL     OW 6715   1.197  10.826   4.889
34961SOL    HW1 6716   1.240  10.779   4.817
34961SOL    HW2 6717   1.183  10.759   4.956
34962SOL     OW 6718  11.647   6.055   3.105
34962SOL    HW1 6719  11.571   6.083   3.156
34962SOL    HW2 6720  11.624   6.076   3.015
34963SOL     OW 6721   1.796   8.393  12.193
34963SOL    HW1 6722   1.845   8.331  12.246
34963SOL    HW2 6723   1.858   8.464  12.175
34964SOL     OW 6724   8.595   4.747   3.242
34964SOL    HW1 6725   8.524   4.716   3.186
34964SOL    HW2 6726   8.581   4.841   3.248
34965SOL     OW 6727   8.404   5.774   3.096
34965SOL    HW1 6728   8.311   5.756   3.108
34965SOL    HW2 6729   8.425   5.838   3.164
34966SOL     OW 6730  10.300  13.364   5.858
34966SOL    HW1 6731  10.368  13.333   5.799
34966SOL    HW2 6732  10.275  13.288   5.910
34967SOL     OW 6733  13.531   3.649  14.234
34967SOL    HW1 6734  13.593   3.576  14.237
34967SOL    HW2 6735  13.569   3.715  14.291
34968SOL     OW 6736  14.400  12.163  11.719
34968SOL    HW1 6737  14.374  12.098  11.783
34968SOL    HW2 6738  14.454  12.115  11.656
34969SOL     OW 6739  10.326  14.540   8.235
34969SOL    HW1 6740  10.386  14.607   8.268
34969SOL    HW2 6741  10.350  14.528   8.143
34970SOL     OW 6742   1.090   2.223   9.758
34970SOL    HW1 6743   1.133   2.208   9.842
34970SOL    HW2 6744   1.138   2.167   9.697
34971SOL     OW 6745   3.126  10.758  11.862
34971SOL    HW1 6746   3.194  10.697  11.832
34971SOL    HW2 6747   3.128  10.830  11.800
34972SOL     OW 6748   9.106  12.505  13.884
34972SOL    HW1 6749   9.049  12.566  13.836
34972SOL    HW2 6750   9.096  12.422  13.838
34973SOL     OW 6751   6.912  14.154   1.257
34973SOL    HW1 6752   6.829  14.131   1.214
34973SOL    HW2 6753   6.930  14.243   1.228
34974SOL     OW 6754  12.876   8.862   0.842
34974SOL    HW1 6755  12.873   8.957   0.849
34974SOL    HW2 6756  12.968   8.842   0.823
34975SOL     OW 6757   0.034   9.299  10.043
34975SOL    HW1 6758   0.081   9.267   9.966
34975SOL    HW2 6759  14.868   9.378  10.012
34976SOL     OW 6760   4.676   9.663   2.614
34976SOL    HW1 6761   4.594   9.707   2.590
34976SOL    HW2 6762   4.720   9.647   2.530
34977SOL     OW 6763  11.622   2.813   5.951
34977SOL    HW1 6764  11.528   2.803   5.965
34977SOL    HW2 6765  11.650   2.727   5.920
34978SOL     OW 6766  10.289  13.643   0.687
34978SOL    HW1 6767  10.196  13.624   0.684
34978SOL    HW2 6768  10.327  13.592   0.616
34979SOL     OW 6769   5.701  12.792  11.986
34979SOL    HW1 6770   5.766  12.842  12.036
34979SOL    HW2 6771   5.719  12.813  11.894
34980SOL     OW 6772  13.345   5.835   8.226
34980SOL    HW1 6773  13.358   5.740   8.229
34980SOL    HW2 6774  13.292   5.849   8.148
34981SOL     OW 6775   1.632   4.335   3.272
34981SOL    HW1 6776   1.623   4.422   3.234
34981SOL    HW2 6777   1.708   4.342   3.330
34982SOL     OW 6778   2.582  13.827  13.766
34982SOL    HW1 6779   2.495  13.868  13.772
34982SOL    HW2 6780   2.573  13.744  13.811
34983SOL     OW 6781  12.071   1.851   0.868
34983SOL    HW1 6782  12.159   1.856   0.829
34983SOL    HW2 6783  12.020   1.800   0.805
34984SOL     OW 6784   9.347  11.434   2.640
34984SOL    HW1 6785   9.253  11.444   2.654
34984SOL    HW2 6786   9.358  11.341   2.617
34985SOL     OW 6787   1.648   8.703  14.309
34985SOL    HW1 6788   1.641   8.731  14.218
34985SOL    HW2 6789   1.580   8.754  14.355
34986SOL     OW 6790   8.330   3.203  14.630
34986SOL    HW1 6791   8.365   3.114  14.638
34986SOL    HW2 6792   8.239   3.195  14.657
34987SOL     OW 6793  13.196  13.161   5.525
34987SOL    HW1 6794  13.113  13.207   5.518
34987SOL    HW2 6795  13.182  13.098   5.595
34988SOL     OW 6796   4.409  11.120  10.367
34988SOL    HW1 6797   4.504  11.111  10.366
34988SOL    HW2 6798   4.382  11.101  10.277
34989SOL     OW 6799   7.380  12.812   8.780
34989SOL    HW1 6800   7.303  12.805   8.724
34989SOL    HW2 6801   7.447  12.853   8.726
34990SOL     OW 6802  10.211  12.978   9.116
34990SOL    HW1 6803  10.167  13.059   9.142
34990SOL    HW2 6804  10.145  12.910   9.126
34991SOL     OW 6805  10.838   3.892  11.002
34991SOL    HW1 6806  10.926   3.929  10.994
34991SOL    HW2 6807  10.837   3.852  11.089
34992SOL     OW 6808   1.528   5.957  10.254
34992SOL    HW1 6809   1.558   6.042  10.284
34992SOL    HW2 6810   1.432   5.963  10.255
34993SOL     OW 6811  11.603   5.265   4.524
34993SOL    HW1 6812  11.660   5.272   4.600
34993SOL    HW2 6813  11.661   5.283   4.450
34994SOL     OW 6814   8.920   3.122   9.716
34994SOL    HW1 6815   9.008   3.122   9.679
34994SOL    HW2 6816   8.865   3.159   9.647
34995SOL     OW 6817  10.941   2.954   6.629
34995SOL    HW1 6818  10.957   2.941   6.723
34995SOL    HW2 6819  11.005   3.021   6.603
34996SOL     OW 6820   6.875   5.512  12.073
34996SOL    HW1 6821   6.815   5.438  12.087
34996SOL    HW2 6822   6.841   5.556  11.995
34997SOL     OW 6823   9.067  13.167   0.523
34997SOL    HW1 6824   9.018  13.088   0.544
34997SOL    HW2 6825   9.110  13.191   0.605
34998SOL     OW 6826   8.009   4.909   0.728
34998SOL    HW1 6827   8.079   4.970   0.750
34998SOL    HW2 6828   7.948   4.962   0.675
34999SOL     OW 6829  12.073   2.931  11.980
34999SOL    HW1 6830  12.093   2.861  12.043
34999SOL    HW2 6831  11.979   2.925  11.965
35000SOL     OW 6832  12.491  14.763   5.368
35000SOL    HW1 6833  12.510  14.819   5.292
35000SOL    HW2 6834  12.562  14.698   5.368
35001SOL     OW 6835   1.079   9.412   3.717
35001SOL    HW1 6836   1.101   9.350   3.648
35001SOL    HW2 6837   1.164   9.433   3.757
35002SOL     OW 6838   8.811  12.543  10.232
35002SOL    HW1 6839   8.757  12.583  10.299
35002SOL    HW2 6840   8.897  12.532  10.273
35003SOL     OW 6841   2.491   9.077  13.582
35003SOL    HW1 6842   2.584   9.078  13.603
35003SOL    HW2 6843   2.485   9.019  13.505
35004SOL     OW 6844   1.855   6.249  13.832
35004SOL    HW1 6845   1.903   6.173  13.798
35004SOL    HW2 6846   1.923   6.303  13.873
35005SOL     OW 6847  13.483   0.573   7.748
35005SOL    HW1 6848  13.428   0.562   7.671
35005SOL    HW2 6849  13.489   0.668   7.760
35006SOL     OW 6850   9.600   8.485  12.639
35006SOL    HW1 6851   9.624   8.505  12.730
35006SOL    HW2 6852   9.507   8.509  12.634
35007SOL     OW 6853   3.048  12.744   5.144
35007SOL    HW1 6854   2.966  12.726   5.189
35007SOL    HW2 6855   3.115  12.736   5.212
35008SOL     OW 6856   8.217   4.115  10.675
35008SOL    HW1 6857   8.155   4.161  10.732
35008SOL    HW2 6858   8.163   4.057  10.623
35009SOL     OW 6859   3.728   9.914  14.498
35009SOL    HW1 6860   3.764   9.845  14.443
35009SOL    HW2 6861   3.779   9.909  14.579
35010SOL     OW 6862  10.892   6.658   7.657
35010SOL    HW1 6863  10.822   6.637   7.719
35010SOL    HW2 6864  10.949   6.718   7.706
35011SOL     OW 6865   0.508   4.595  14.841
35011SOL    HW1 6866   0.558   4.593  14.759
35011SOL    HW2 6867   0.418   4.616  14.813
35012SOL     OW 6868  13.490   1.660   3.280
35012SOL    HW1 6869  13.503   1.572   3.316
35012SOL    HW2 6870  13.399   1.661   3.252
35013SOL     OW 6871   7.681   7.800   9.177
35013SOL    HW1 6872   7.706   7.715   9.142
35013SOL    HW2 6873   7.700   7.793   9.271
35014SOL     OW 6874  11.857   9.903  11.440
35014SOL    HW1 6875  11.849   9.901  11.536
35014SOL    HW2 6876  11.901   9.986  11.422
35015SOL     OW 6877   6.347   6.233  12.064
35015SOL    HW1 6878   6.430   6.269  12.095
35015SOL    HW2 6879   6.373   6.168  11.999
35016SOL     OW 6880  11.188   9.680   5.354
35016SOL    HW1 6881  11.283   9.670   5.345
35016SOL    HW2 6882  11.154   9.663   5.266
35017SOL     OW 6883   4.682   0.988   2.555
35017SOL    HW1 6884   4.731   0.919   2.600
35017SOL    HW2 6885   4.729   1.002   2.473
35018SOL     OW 6886  13.524   5.232   4.647
35018SOL    HW1 6887  13.562   5.303   4.597
35018SOL    HW2 6888  13.505   5.271   4.733
35019SOL     OW 6889  13.087   3.445   0.587
35019SOL    HW1 6890  13.003   3.428   0.545
35019SOL    HW2 6891  13.076   3.532   0.627
35020SOL     OW 6892   0.158   4.620   4.482
35020SOL    HW1 6893   0.231   4.678   4.503
35020SOL    HW2 6894   0.080   4.676   4.485
35021SOL     OW 6895  11.283  13.648  13.740
35021SOL    HW1 6896  11.217  13.589  13.775
35021SOL    HW2 6897  11.314  13.605  13.660
35022SOL     OW 6898   2.761   8.832   0.871
35022SOL    HW1 6899   2.726   8.771   0.805
35022SOL    HW2 6900   2.696   8.903   0.874
35023SOL     OW 6901   7.719   9.518   8.690
35023SOL    HW1 6902   7.691   9.517   8.781
35023SOL    HW2 6903   7.707   9.428   8.660
35024SOL     OW 6904  12.565   9.738   8.679
35024SOL    HW1 6905  12.593   9.816   8.728
35024SOL    HW2 6906  12.613   9.744   8.596
35025SOL     OW 6907   3.718   0.786  10.515
35025SOL    HW1 6908   3.793   0.783  10.574
35025SOL    HW2 6909   3.657   0.847  10.556
35026SOL     OW 6910   7.753   4.637   8.043
35026SOL    HW1 6911   7.815   4.576   8.083
35026SOL    HW2 6912   7.733   4.700   8.112
35027SOL     OW 6913  12.861   5.267  13.545
35027SOL    HW1 6914  12.928   5.211  13.504
35027SOL    HW2 6915  12.787   5.264  13.484
35028SOL     OW 6916   6.881   2.269  12.628
35028SOL    HW1 6917   6.828   2.274  12.548
35028SOL    HW2 6918   6.899   2.360  12.651
35029SOL     OW 6919   1.444   9.062   9.358
35029SOL    HW1 6920   1.510   9.114   9.312
35029SOL    HW2 6921   1.490   8.982   9.383
35030SOL     OW 6922   6.594   5.474   6.881
35030SOL    HW1 6923   6.500   5.459   6.890
35030SOL    HW2 6924   6.614   5.544   6.944
35031SOL     OW 6925  10.532  12.198   7.300
35031SOL    HW1 6926  10.459  12.142   7.277
35031SOL    HW2 6927  10.494  12.265   7.357
35032SOL     OW 6928   6.018  14.797   5.623
35032SOL    HW1 6929   5.991  14.821   5.712
35032SOL    HW2 6930   5.939  14.811   5.570
35033SOL     OW 6931   3.943   6.559  11.230
35033SOL    HW1 6932   3.885   6.500  11.183
35033SOL    HW2 6933   3.949   6.637  11.175
35034SOL     OW 6934  14.118   7.812   2.828
35034SOL    HW1 6935  14.201   7.830   2.784
35034SOL    HW2 6936  14.141   7.801   2.920
35035SOL     OW 6937   1.105   6.715  14.482
35035SOL    HW1 6938   1.165   6.762  14.541
35035SOL    HW2 6939   1.133   6.623  14.488
35036SOL     OW 6940   2.815   3.505   1.215
35036SOL    HW1 6941   2.868   3.488   1.292
35036SOL    HW2 6942   2.871   3.481   1.141
35037SOL     OW 6943  11.464  14.558  13.829
35037SOL    HW1 6944  11.524  14.573  13.756
35037SOL    HW2 6945  11.392  14.507  13.792
35038SOL     OW 6946  10.922   0.231  14.877
35038SOL    HW1 6947  10.942   0.237  14.783
35038SOL    HW2 6948  11.007   0.214   0.039
35039SOL     OW 6949   1.528  13.930   0.398
35039SOL    HW1 6950   1.537  13.882   0.480
35039SOL    HW2 6951   1.435  13.953   0.394
35040SOL     OW 6952   8.887  14.334   8.796
35040SOL    HW1 6953   8.920  14.385   8.723
35040SOL    HW2 6954   8.961  14.279   8.822
35041SOL     OW 6955   2.181  10.023   7.224
35041SOL    HW1 6956   2.262   9.973   7.235
35041SOL    HW2 6957   2.111   9.959   7.240
35042SOL     OW 6958   6.046  10.342   8.127
35042SOL    HW1 6959   6.071  10.284   8.200
35042SOL    HW2 6960   6.118  10.335   8.065
35043SOL     OW 6961   9.809  10.077   9.316
35043SOL    HW1 6962   9.835  10.052   9.227
35043SOL    HW2 6963   9.886  10.118   9.354
35044SOL     OW 6964  13.271   6.139   4.121
35044SOL    HW1 6965  13.333   6.211   4.105
35044SOL    HW2 6966  13.185   6.180   4.112
35045SOL     OW 6967  12.955   8.153   2.776
35045SOL    HW1 6968  13.050   8.142   2.770
35045SOL    HW2 6969  12.923   8.069   2.807
35046SOL     OW 6970   2.558  13.569   8.651
35046SOL    HW1 6971   2.547  13.486   8.698
35046SOL    HW2 6972   2.636  13.608   8.690
35047SOL     OW 6973  12.980   4.638  11.802
35047SOL    HW1 6974  12.914   4.660  11.867
35047SOL    HW2 6975  12.930   4.601  11.729
35048SOL     OW 6976  12.340   4.215   2.301
35048SOL    HW1 6977  12.381   4.282   2.355
35048SOL    HW2 6978  12.344   4.135   2.353
35049SOL     OW 6979   7.453   5.117  11.967
35049SOL    HW1 6980   7.475   5.196  11.916
35049SOL    HW2 6981   7.360   5.103  11.948
35050SOL     OW 6982   8.834  14.551   9.846
35050SOL    HW1 6983   8.848  14.507   9.761
35050SOL    HW2 6984   8.922  14.573   9.875
35051SOL     OW 6985   9.338   8.235   1.201
35051SOL    HW1 6986   9.245   8.246   1.218
35051SOL    HW2 6987   9.382   8.276   1.276
35052SOL     OW 6988  11.301  10.234   6.982
35052SOL    HW1 6989  11.388  10.233   6.942
35052SOL    HW2 6990  11.255  10.304   6.935
35053SOL     OW 6991   1.372   7.921   8.542
35053SOL    HW1 6992   1.405   7.851   8.486
35053SOL    HW2 6993   1.408   8.001   8.505
35054SOL     OW 6994   8.028   9.115  10.755
35054SOL    HW1 6995   8.107   9.073  10.788
35054SOL    HW2 6996   7.981   9.046  10.709
35055SOL     OW 6997   2.733   4.356   1.775
35055SOL    HW1 6998   2.762   4.402   1.853
35055SOL    HW2 6999   2.790   4.388   1.705
35056SOL     OW 7000  14.787   0.980   2.189
35056SOL    HW1 7001  14.739   0.899   2.207
35056SOL    HW2 7002  14.770   0.999   2.097
35057SOL     OW 7003  13.529   5.015   3.887
35057SOL    HW1 7004  13.452   5.048   3.932
35057SOL    HW2 7005  13.596   5.009   3.956
35058SOL     OW 7006  10.341   1.187   0.197
35058SOL    HW1 7007  10.317   1.278   0.217
35058SOL    HW2 7008  10.380   1.154   0.278
35059SOL     OW 7009  12.377   3.834  14.486
35059SOL    HW1 7010  12.425   3.755  14.511
35059SOL    HW2 7011  12.354   3.820  14.394
35060SOL     OW 7012   5.523   9.342   3.686
35060SOL    HW1 7013   5.496   9.294   3.608
35060SOL    HW2 7014   5.445   9.389   3.714
35061SOL     OW 7015   5.589   9.025   1.435
35061SOL    HW1 7016   5.637   9.107   1.423
35061SOL    HW2 7017   5.502   9.043   1.398
35062SOL     OW 7018   7.032   7.019   1.469
35062SOL    HW1 7019   7.002   7.073   1.543
35062SOL    HW2 7020   6.989   7.056   1.393
35063SOL     OW 7021   1.353   5.553   4.368
35063SOL    HW1 7022   1.444   5.568   4.392
35063SOL    HW2 7023   1.340   5.459   4.380
35064SOL     OW 7024   6.859   5.563   4.478
35064SOL    HW1 7025   6.776   5.605   4.499
35064SOL    HW2 7026   6.919   5.635   4.460
35065SOL     OW 7027  11.827   7.649   8.990
35065SOL    HW1 7028  11.811   7.595   9.067
35065SOL    HW2 7029  11.766   7.723   8.999
35066SOL     OW 7030  14.359   1.642   6.486
35066SOL    HW1 7031  14.373   1.722   6.436
35066SOL    HW2 7032  14.278   1.605   6.450
35067SOL     OW 7033   7.003   7.651  10.412
35067SOL    HW1 7034   7.056   7.711  10.359
35067SOL    HW2 7035   7.055   7.637  10.491
35068SOL     OW 7036   8.432   7.055   3.898
35068SOL    HW1 7037   8.377   7.025   3.970
35068SOL    HW2 7038   8.519   7.068   3.937
35069SOL     OW 7039  10.867   3.551  12.187
35069SOL    HW1 7040  10.823   3.516  12.109
35069SOL    HW2 7041  10.870   3.646  12.172
35070SOL     OW 7042   9.088   0.427  12.663
35070SOL    HW1 7043   9.024   0.369  12.622
35070SOL    HW2 7044   9.037   0.478  12.726
35071SOL     OW 7045  14.080   4.480  10.750
35071SOL    HW1 7046  14.018   4.452  10.683
35071SOL    HW2 7047  14.145   4.409  10.754
35072SOL     OW 7048   7.941   6.734   3.754
35072SOL    HW1 7049   7.910   6.798   3.690
35072SOL    HW2 7050   8.031   6.760   3.772
35073SOL     OW 7051  11.192   7.460   6.140
35073SOL    HW1 7052  11.272   7.474   6.191
35073SOL    HW2 7053  11.124   7.504   6.190
35074SOL     OW 7054   5.175   6.197   3.288
35074SOL    HW1 7055   5.236   6.143   3.338
35074SOL    HW2 7056   5.217   6.283   3.282
35075SOL     OW 7057   4.462   7.498   8.316
35075SOL    HW1 7058   4.371   7.516   8.292
35075SOL    HW2 7059   4.468   7.402   8.318
35076SOL     OW 7060   5.967   3.654   5.321
35076SOL    HW1 7061   5.879   3.623   5.344
35076SOL    HW2 7062   6.021   3.575   5.321
35077SOL     OW 7063   4.137  13.259   2.564
35077SOL    HW1 7064   4.088  13.330   2.523
35077SOL    HW2 7065   4.076  13.185   2.565
35078SOL     OW 7066   1.170  12.262  13.763
35078SOL    HW1 7067   1.237  12.242  13.829
35078SOL    HW2 7068   1.102  12.197  13.777
35079SOL     OW 7069   1.921  11.241  12.935
35079SOL    HW1 7070   1.834  11.209  12.909
35079SOL    HW2 7071   1.917  11.335  12.918
35080SOL     OW 7072  11.257   3.246   6.273
35080SOL    HW1 7073  11.233   3.167   6.224
35080SOL    HW2 7074  11.176   3.273   6.316
35081SOL     OW 7075   4.922   9.180   9.015
35081SOL    HW1 7076   4.917   9.202   9.108
35081SOL    HW2 7077   4.936   9.086   9.012
35082SOL     OW 7078   6.421   5.584   2.168
35082SOL    HW1 7079   6.381   5.565   2.083
35082SOL    HW2 7080   6.514   5.598   2.148
35083SOL     OW 7081   3.740  11.291   5.200
35083SOL    HW1 7082   3.779  11.351   5.264
35083SOL    HW2 7083   3.653  11.272   5.235
35084SOL     OW 7084   1.599   0.637  14.124
35084SOL    HW1 7085   1.619   0.730  14.135
35084SOL    HW2 7086   1.578   0.606  14.212
35085SOL     OW 7087   6.890   8.299   6.666
35085SOL    HW1 7088   6.807   8.282   6.709
35085SOL    HW2 7089   6.926   8.374   6.714
35086SOL     OW 7090  14.034  10.343   7.275
35086SOL    HW1 7091  14.036  10.247   7.275
35086SOL    HW2 7092  13.992  10.366   7.193
35087SOL     OW 7093   6.327  13.722   5.941
35087SOL    HW1 7094   6.253  13.674   5.905
35087SOL    HW2 7095   6.303  13.738   6.033
35088SOL     OW 7096  11.555   9.685   7.057
35088SOL    HW1 7097  11.490   9.623   7.026
35088SOL    HW2 7098  11.597   9.717   6.977
35089SOL     OW 7099   2.137   3.737   0.451
35089SOL    HW1 7100   2.207   3.679   0.423
35089SOL    HW2 7101   2.121   3.713   0.542
35090SOL     OW 7102   0.225  12.277   3.122
35090SOL    HW1 7103   0.290  12.223   3.168
35090SOL    HW2 7104   0.153  12.217   3.104
35091SOL     OW 7105  13.777   9.936   9.707
35091SOL    HW1 7106  13.708   9.995   9.738
35091SOL    HW2 7107  13.732   9.853   9.692
35092SOL     OW 7108   4.187   0.132  13.669
35092SOL    HW1 7109   4.166   0.212  13.621
35092SOL    HW2 7110   4.272   0.149  13.708
35093SOL     OW 7111   1.086   2.631  12.802
35093SOL    HW1 7112   1.068   2.652  12.894
35093SOL    HW2 7113   1.000   2.630  12.760
35094SOL     OW 7114   0.556   7.360  10.896
35094SOL    HW1 7115   0.598   7.393  10.817
35094SOL    HW2 7116   0.539   7.438  10.949
35095SOL     OW 7117   2.855   5.472   8.937
35095SOL    HW1 7118   2.798   5.509   8.870
35095SOL    HW2 7119   2.807   5.395   8.970
35096SOL     OW 7120  10.408   5.183   1.497
35096SOL    HW1 7121  10.431   5.245   1.566
35096SOL    HW2 7122  10.341   5.228   1.446
35097SOL     OW 7123   1.955   6.702  13.630
35097SOL    HW1 7124   2.016   6.733  13.564
35097SOL    HW2 7125   1.901   6.638  13.584
35098SOL     OW 7126  13.753  10.397   8.186
35098SOL    HW1 7127  13.683  10.407   8.121
35098SOL    HW2 7128  13.727  10.320   8.238
35099SOL     OW 7129   9.738  10.870   2.712
35099SOL    HW1 7130   9.818  10.821   2.695
35099SOL    HW2 7131   9.691  10.870   2.629
35100SOL     OW 7132   8.141  12.906   1.584
35100SOL    HW1 7133   8.187  12.985   1.613
35100SOL    HW2 7134   8.066  12.938   1.535
35101SOL     OW 7135   4.609   9.755   2.914
35101SOL    HW1 7136   4.657   9.692   2.861
35101SOL    HW2 7137   4.670   9.828   2.927
35102SOL     OW 7138   1.964   4.906  13.571
35102SOL    HW1 7139   1.931   4.839  13.631
35102SOL    HW2 7140   2.030   4.861  13.519
35103SOL     OW 7141  14.229   5.520   2.229
35103SOL    HW1 7142  14.144   5.504   2.269
35103SOL    HW2 7143  14.210   5.537   2.137
35104SOL     OW 7144   3.298   3.718   9.205
35104SOL    HW1 7145   3.228   3.664   9.169
35104SOL    HW2 7146   3.298   3.797   9.151
35105SOL     OW 7147   1.485   4.292  10.949
35105SOL    HW1 7148   1.485   4.387  10.934
35105SOL    HW2 7149   1.447   4.255  10.870
35106SOL     OW 7150   8.835   4.827   9.314
35106SOL    HW1 7151   8.796   4.804   9.230
35106SOL    HW2 7152   8.862   4.919   9.303
35107SOL     OW 7153   7.088   2.114   6.990
35107SOL    HW1 7154   7.111   2.065   6.911
35107SOL    HW2 7155   7.000   2.083   7.013
35108SOL     OW 7156   6.804  12.143   4.415
35108SOL    HW1 7157   6.732  12.151   4.353
35108SOL    HW2 7158   6.876  12.105   4.365
35109SOL     OW 7159   7.220   0.057  13.943
35109SOL    HW1 7160   7.200  14.864  13.884
35109SOL    HW2 7161   7.234   0.132  13.886
35110SOL     OW 7162   2.677   9.357   0.588
35110SOL    HW1 7163   2.701   9.412   0.514
35110SOL    HW2 7164   2.644   9.276   0.548
35111SOL     OW 7165  11.419   4.154   0.122
35111SOL    HW1 7166  11.441   4.227   0.063
35111SOL    HW2 7167  11.325   4.164   0.137
35112SOL     OW 7168   4.169  14.874  10.283
35112SOL    HW1 7169   4.118   0.069  10.316
35112SOL    HW2 7170   4.255   0.004  10.325
35113SOL     OW 7171   9.807  14.765   7.039
35113SOL    HW1 7172   9.862  14.843   7.033
35113SOL    HW2 7173   9.739  14.778   6.972
35114SOL     OW 7174  14.343   7.044   7.026
35114SOL    HW1 7175  14.430   7.064   6.993
35114SOL    HW2 7176  14.328   6.953   7.001
35115SOL     OW 7177   5.317  14.784   1.197
35115SOL    HW1 7178   5.330  14.699   1.157
35115SOL    HW2 7179   5.393  14.797   1.254
35116SOL     OW 7180   7.169   1.795  11.303
35116SOL    HW1 7181   7.224   1.836  11.370
35116SOL    HW2 7182   7.216   1.810  11.221
35117SOL     OW 7183   5.317   6.454   4.387
35117SOL    HW1 7184   5.372   6.527   4.416
35117SOL    HW2 7185   5.292   6.477   4.297
35118SOL     OW 7186  11.582   3.781   0.273
35118SOL    HW1 7187  11.571   3.687   0.290
35118SOL    HW2 7188  11.505   3.806   0.222
35119SOL     OW 7189   3.970  13.674   4.778
35119SOL    HW1 7190   4.040  13.634   4.726
35119SOL    HW2 7191   3.954  13.612   4.849
35120SOL     OW 7192   7.276   0.796  12.210
35120SOL    HW1 7193   7.369   0.805  12.234
35120SOL    HW2 7194   7.277   0.771  12.118
35121SOL     OW 7195  10.091   3.836  13.715
35121SOL    HW1 7196  10.144   3.916  13.717
35121SOL    HW2 7197  10.129   3.785  13.643
35122SOL     OW 7198  13.971   1.894  14.050
35122SOL    HW1 7199  13.975   1.907  13.956
35122SOL    HW2 7200  14.060   1.912  14.080
35123SOL     OW 7201   5.846   7.915   8.682
35123SOL    HW1 7202   5.916   7.868   8.636
35123SOL    HW2 7203   5.845   8.001   8.641
35124SOL     OW 7204  14.589   9.401  12.667
35124SOL    HW1 7205  14.614   9.471  12.608
35124SOL    HW2 7206  14.631   9.422  12.750
35125SOL     OW 7207   3.244   8.714   8.503
35125SOL    HW1 7208   3.296   8.715   8.583
35125SOL    HW2 7209   3.251   8.804   8.469
35126SOL     OW 7210   0.340   4.399   1.059
35126SOL    HW1 7211   0.267   4.392   0.997
35126SOL    HW2 7212   0.407   4.447   1.011
35127SOL     OW 7213   9.933  14.697   1.878
35127SOL    HW1 7214   9.960  14.605   1.883
35127SOL    HW2 7215   9.839  14.696   1.896
35128SOL     OW 7216   8.245   5.982   0.879
35128SOL    HW1 7217   8.229   5.900   0.832
35128SOL    HW2 7218   8.336   6.003   0.861
35129SOL     OW 7219  11.316   2.058  14.086
35129SOL    HW1 7220  11.250   2.076  14.153
35129SOL    HW2 7221  11.281   1.984  14.037
35130SOL     OW 7222   8.081  14.181   0.432
35130SOL    HW1 7223   8.008  14.223   0.478
35130SOL    HW2 7224   8.110  14.247   0.369
35131SOL     OW 7225   4.901   0.049   1.165
35131SOL    HW1 7226   4.941   0.024   1.248
35131SOL    HW2 7227   4.923   0.142   1.155
35132SOL     OW 7228   3.112   0.606   2.443
35132SOL    HW1 7229   3.030   0.655   2.433
35132SOL    HW2 7230   3.176   0.671   2.472
35133SOL     OW 7231  12.975   7.842   4.090
35133SOL    HW1 7232  13.070   7.850   4.097
35133SOL    HW2 7233  12.945   7.842   4.180
35134SOL     OW 7234   3.550   5.442   3.478
35134SOL    HW1 7235   3.526   5.419   3.568
35134SOL    HW2 7236   3.520   5.368   3.425
35135SOL     OW 7237   0.103   7.164   8.147
35135SOL    HW1 7238   0.174   7.209   8.194
35135SOL    HW2 7239   0.027   7.172   8.204
35136SOL     OW 7240   9.749  13.422  14.008
35136SOL    HW1 7241   9.756  13.512  14.040
35136SOL    HW2 7242   9.672  13.386  14.053
35137SOL     OW 7243  13.247   2.434   9.553
35137SOL    HW1 7244  13.201   2.428   9.637
35137SOL    HW2 7245  13.264   2.343   9.529
35138SOL     OW 7246   0.281   8.309  11.593
35138SOL    HW1 7247   0.286   8.344  11.681
35138SOL    HW2 7248   0.203   8.253  11.594
35139SOL     OW 7249  12.264  14.590   6.929
35139SOL    HW1 7250  12.279  14.561   6.838
35139SOL    HW2 7251  12.350  14.618   6.960
35140SOL     OW 7252   2.390  10.429   3.487
35140SOL    HW1 7253   2.449  10.488   3.533
35140SOL    HW2 7254   2.341  10.385   3.556
35141SOL     OW 7255   1.861   5.737   6.227
35141SOL    HW1 7256   1.782   5.685   6.243
35141SOL    HW2 7257   1.911   5.731   6.308
35142SOL     OW 7258   8.884  11.381   2.510
35142SOL    HW1 7259   8.821  11.312   2.529
35142SOL    HW2 7260   8.848  11.459   2.551
35143SOL     OW 7261   8.738  11.343  11.469
35143SOL    HW1 7262   8.730  11.432  11.436
35143SOL    HW2 7263   8.668  11.295  11.424
35144SOL     OW 7264   0.441  10.200  10.647
35144SOL    HW1 7265   0.436  10.139  10.573
35144SOL    HW2 7266   0.408  10.283  10.612
35145SOL     OW 7267   5.170   4.453  11.891
35145SOL    HW1 7268   5.206   4.368  11.917
35145SOL    HW2 7269   5.135   4.438  11.803
35146SOL     OW 7270   5.028  14.628  12.591
35146SOL    HW1 7271   4.969  14.553  12.589
35146SOL    HW2 7272   5.115  14.590  12.604
35147SOL     OW 7273   5.497   4.494   6.113
35147SOL    HW1 7274   5.568   4.471   6.173
35147SOL    HW2 7275   5.537   4.555   6.051
35148SOL     OW 7276   4.961   4.785   6.607
35148SOL    HW1 7277   4.958   4.880   6.602
35148SOL    HW2 7278   5.054   4.763   6.597
35149SOL     OW 7279   7.175   0.282  11.576
35149SOL    HW1 7280   7.211   0.370  11.562
35149SOL    HW2 7281   7.238   0.240  11.635
35150SOL     OW 7282   6.671   6.923   8.918
35150SOL    HW1 7283   6.583   6.903   8.887
35150SOL    HW2 7284   6.729   6.866   8.868
35151SOL     OW 7285   4.372  11.871   9.536
35151SOL    HW1 7286   4.466  11.857   9.522
35151SOL    HW2 7287   4.361  11.866   9.631
35152SOL     OW 7288   2.917   0.255  12.950
35152SOL    HW1 7289   2.825   0.271  12.926
35152SOL    HW2 7290   2.967   0.303  12.884
35153SOL     OW 7291   6.268   5.043   9.333
35153SOL    HW1 7292   6.317   5.112   9.288
35153SOL    HW2 7293   6.301   4.962   9.294
35154SOL     OW 7294  13.239  14.735   7.002
35154SOL    HW1 7295  13.244  14.793   7.077
35154SOL    HW2 7296  13.293  14.778   6.935
35155SOL     OW 7297   9.493   8.639   1.892
35155SOL    HW1 7298   9.480   8.725   1.852
35155SOL    HW2 7299   9.406   8.615   1.925
35156SOL     OW 7300   4.292   8.745   3.620
35156SOL    HW1 7301   4.313   8.827   3.575
35156SOL    HW2 7302   4.374   8.719   3.663
35157SOL     OW 7303   3.680   7.103  14.499
35157SOL    HW1 7304   3.732   7.027  14.474
35157SOL    HW2 7305   3.596   7.089  14.457
35158SOL     OW 7306   0.750   6.310   0.630
35158SOL    HW1 7307   0.680   6.289   0.568
35158SOL    HW2 7308   0.720   6.274   0.713
35159SOL     OW 7309   2.554   0.684   8.466
35159SOL    HW1 7310   2.603   0.730   8.535
35159SOL    HW2 7311   2.622   0.648   8.408
35160SOL     OW 7312   5.322  13.645  13.315
35160SOL    HW1 7313   5.336  13.550  13.319
35160SOL    HW2 7314   5.312  13.671  13.407
35161SOL     OW 7315  12.514  12.186  12.592
35161SOL    HW1 7316  12.460  12.127  12.645
35161SOL    HW2 7317  12.596  12.138  12.580
35162SOL     OW 7318  11.685  12.923   6.877
35162SOL    HW1 7319  11.693  12.957   6.966
35162SOL    HW2 7320  11.724  12.836   6.881
35163SOL     OW 7321   0.897   1.067  10.553
35163SOL    HW1 7322   0.888   0.989  10.498
35163SOL    HW2 7323   0.930   1.134  10.493
35164SOL     OW 7324  11.434   7.039   3.842
35164SOL    HW1 7325  11.524   7.048   3.873
35164SOL    HW2 7326  11.390   7.118   3.873
35165SOL     OW 7327   1.189   8.592   3.973
35165SOL    HW1 7328   1.269   8.547   4.001
35165SOL    HW2 7329   1.187   8.581   3.878
35166SOL     OW 7330   3.035   5.337   4.710
35166SOL    HW1 7331   3.035   5.324   4.616
35166SOL    HW2 7332   2.989   5.420   4.723
35167SOL     OW 7333  14.824   7.148   9.716
35167SOL    HW1 7334  14.875   7.069   9.700
35167SOL    HW2 7335  14.870   7.192   9.788
35168SOL     OW 7336   2.064   1.861   3.637
35168SOL    HW1 7337   2.004   1.884   3.566
35168SOL    HW2 7338   2.135   1.813   3.595
35169SOL     OW 7339  11.401   2.821  13.515
35169SOL    HW1 7340  11.435   2.795  13.600
35169SOL    HW2 7341  11.387   2.916  13.523
35170SOL     OW 7342   1.867   2.749  14.402
35170SOL    HW1 7343   1.889   2.731  14.493
35170SOL    HW2 7344   1.936   2.707  14.351
35171SOL     OW 7345   1.644   5.580   9.241
35171SOL    HW1 7346   1.581   5.517   9.206
35171SOL    HW2 7347   1.632   5.576   9.336
35172SOL     OW 7348  10.864   7.521   1.391
35172SOL    HW1 7349  10.840   7.442   1.440
35172SOL    HW2 7350  10.898   7.488   1.308
35173SOL     OW 7351   9.956  11.239   8.640
35173SOL    HW1 7352  10.046  11.226   8.672
35173SOL    HW2 7353   9.939  11.162   8.586
35174SOL     OW 7354   1.988  14.538  14.466
35174SOL    HW1 7355   2.005  14.606  14.532
35174SOL    HW2 7356   1.957  14.586  14.390
35175SOL     OW 7357   3.513   7.823   1.305
35175SOL    HW1 7358   3.562   7.749   1.268
35175SOL    HW2 7359   3.575   7.895   1.308
35176SOL     OW 7360  13.742   0.022  14.371
35176SOL    HW1 7361  13.717  14.810  14.358
35176SOL    HW2 7362  13.835   0.025  14.348
35177SOL     OW 7363   5.074   4.546  13.581
35177SOL    HW1 7364   5.041   4.623  13.627
35177SOL    HW2 7365   5.033   4.551  13.494
35178SOL     OW 7366   3.359  13.490   8.198
35178SOL    HW1 7367   3.336  13.536   8.279
35178SOL    HW2 7368   3.276  13.482   8.151
35179SOL     OW 7369   1.473   3.354  13.622
35179SOL    HW1 7370   1.462   3.321  13.711
35179SOL    HW2 7371   1.515   3.282  13.575
35180SOL     OW 7372   1.357   9.407   7.904
35180SOL    HW1 7373   1.350   9.391   7.998
35180SOL    HW2 7374   1.450   9.419   7.888
35181SOL     OW 7375   1.018   1.067   5.053
35181SOL    HW1 7376   1.069   1.141   5.087
35181SOL    HW2 7377   0.961   1.106   4.988
35182SOL     OW 7378   5.551   5.056   3.663
35182SOL    HW1 7379   5.624   5.037   3.604
35182SOL    HW2 7380   5.549   4.981   3.723
35183SOL     OW 7381   3.480   9.434   1.186
35183SOL    HW1 7382   3.442   9.521   1.195
35183SOL    HW2 7383   3.405   9.375   1.185
35184SOL     OW 7384   6.570   2.069   5.958
35184SOL    HW1 7385   6.550   2.097   5.869
35184SOL    HW2 7386   6.502   2.006   5.980
35185SOL     OW 7387   6.418   2.646   2.011
35185SOL    HW1 7388   6.387   2.602   1.932
35185SOL    HW2 7389   6.468   2.578   2.057
35186SOL     OW 7390  10.666   7.143   5.506
35186SOL    HW1 7391  10.741   7.103   5.550
35186SOL    HW2 7392  10.591   7.121   5.562
35187SOL     OW 7393   1.812  11.211  10.578
35187SOL    HW1 7394   1.785  11.128  10.539
35187SOL    HW2 7395   1.834  11.267  10.504
35188SOL     OW 7396   2.412  12.159   2.169
35188SOL    HW1 7397   2.333  12.194   2.128
35188SOL    HW2 7398   2.409  12.065   2.151
35189SOL     OW 7399  11.296   7.206  11.309
35189SOL    HW1 7400  11.263   7.120  11.284
35189SOL    HW2 7401  11.243   7.268  11.258
35190SOL     OW 7402  13.816   8.261   3.945
35190SOL    HW1 7403  13.741   8.218   3.986
35190SOL    HW2 7404  13.784   8.286   3.858
35191SOL     OW 7405   1.127   3.736   2.280
35191SOL    HW1 7406   1.153   3.769   2.366
35191SOL    HW2 7407   1.153   3.644   2.281
35192SOL     OW 7408  11.718   4.019  10.175
35192SOL    HW1 7409  11.656   4.089  10.154
35192SOL    HW2 7410  11.780   4.060  10.235
35193SOL     OW 7411   9.856   6.311   3.779
35193SOL    HW1 7412   9.801   6.248   3.826
35193SOL    HW2 7413   9.816   6.319   3.693
35194SOL     OW 7414   2.231  13.639   5.062
35194SOL    HW1 7415   2.309  13.608   5.108
35194SOL    HW2 7416   2.202  13.563   5.012
35195SOL     OW 7417   5.196   3.556   2.219
35195SOL    HW1 7418   5.238   3.542   2.134
35195SOL    HW2 7419   5.190   3.469   2.257
35196SOL     OW 7420  12.443   3.074   6.160
35196SOL    HW1 7421  12.479   3.141   6.102
35196SOL    HW2 7422  12.409   3.007   6.101
35197SOL     OW 7423   2.991   5.301  13.639
35197SOL    HW1 7424   3.064   5.353  13.606
35197SOL    HW2 7425   2.993   5.221  13.585
35198SOL     OW 7426   4.201   9.823  11.822
35198SOL    HW1 7427   4.153   9.816  11.740
35198SOL    HW2 7428   4.135   9.813  11.890
35199SOL     OW 7429   2.335   7.606  13.839
35199SOL    HW1 7430   2.337   7.621  13.933
35199SOL    HW2 7431   2.330   7.511  13.829
35200SOL     OW 7432  13.599   4.899  10.344
35200SOL    HW1 7433  13.505   4.886  10.326
35200SOL    HW2 7434  13.627   4.961  10.277
35201SOL     OW 7435  13.261  12.130   8.353
35201SOL    HW1 7436  13.237  12.077   8.429
35201SOL    HW2 7437  13.258  12.069   8.279
35202SOL     OW 7438   6.641   6.862  12.809
35202SOL    HW1 7439   6.631   6.881  12.716
35202SOL    HW2 7440   6.683   6.939  12.846
35203SOL     OW 7441  10.845  11.551   3.801
35203SOL    HW1 7442  10.841  11.629   3.857
35203SOL    HW2 7443  10.889  11.581   3.722
35204SOL     OW 7444  13.652   4.428   6.227
35204SOL    HW1 7445  13.577   4.483   6.202
35204SOL    HW2 7446  13.722   4.453   6.167
35205SOL     OW 7447  12.381   2.410  13.187
35205SOL    HW1 7448  12.355   2.318  13.193
35205SOL    HW2 7449  12.393   2.425  13.093
35206SOL     OW 7450   8.144   3.328   1.397
35206SOL    HW1 7451   8.081   3.335   1.325
35206SOL    HW2 7452   8.091   3.309   1.474
35207SOL     OW 7453   0.695   4.267  11.656
35207SOL    HW1 7454   0.780   4.290  11.620
35207SOL    HW2 7455   0.661   4.200  11.595
35208SOL     OW 7456  13.634  11.768   2.794
35208SOL    HW1 7457  13.605  11.687   2.754
35208SOL    HW2 7458  13.575  11.835   2.758
35209SOL     OW 7459   5.530  11.145  10.112
35209SOL    HW1 7460   5.583  11.066  10.126
35209SOL    HW2 7461   5.480  11.127  10.033
35210SOL     OW 7462   3.766  10.093   2.591
35210SOL    HW1 7463   3.684  10.107   2.543
35210SOL    HW2 7464   3.740  10.093   2.683
35211SOL     OW 7465   9.206   7.539   8.582
35211SOL    HW1 7466   9.128   7.483   8.583
35211SOL    HW2 7467   9.173   7.626   8.561
35212SOL     OW 7468  10.559   1.651   3.114
35212SOL    HW1 7469  10.549   1.562   3.146
35212SOL    HW2 7470  10.570   1.704   3.192
35213SOL     OW 7471  12.941   3.883   3.805
35213SOL    HW1 7472  13.027   3.843   3.822
35213SOL    HW2 7473  12.900   3.825   3.741
35214SOL     OW 7474   1.574   3.500   9.758
35214SOL    HW1 7475   1.632   3.473   9.688
35214SOL    HW2 7476   1.629   3.552   9.817
35215SOL     OW 7477  13.818   6.418  11.937
35215SOL    HW1 7478  13.727   6.444  11.951
35215SOL    HW2 7479  13.823   6.329  11.971
35216SOL     OW 7480   6.004   5.783   8.408
35216SOL    HW1 7481   6.088   5.787   8.361
35216SOL    HW2 7482   6.010   5.852   8.473
35217SOL     OW 7483  13.856   4.967  12.636
35217SOL    HW1 7484  13.817   5.028  12.699
35217SOL    HW2 7485  13.829   5.000  12.550
35218SOL     OW 7486  11.649   6.017   4.015
35218SOL    HW1 7487  11.710   6.047   4.083
35218SOL    HW2 7488  11.706   5.983   3.946
35219SOL     OW 7489   0.702   9.169   8.505
35219SOL    HW1 7490   0.769   9.232   8.530
35219SOL    HW2 7491   0.698   9.174   8.410
35220SOL     OW 7492  12.716   4.957   3.025
35220SOL    HW1 7493  12.810   4.949   3.039
35220SOL    HW2 7494  12.677   4.900   3.091
35221SOL     OW 7495   5.179  11.978   9.884
35221SOL    HW1 7496   5.187  11.941   9.796
35221SOL    HW2 7497   5.252  12.039   9.891
35222SOL     OW 7498   5.131  13.884   2.841
35222SOL    HW1 7499   5.099  13.795   2.828
35222SOL    HW2 7500   5.059  13.940   2.812
35223SOL     OW 7501  14.414   0.505  10.529
35223SOL    HW1 7502  14.427   0.430  10.587
35223SOL    HW2 7503  14.391   0.466  10.444
35224SOL     OW 7504  14.124   8.644  11.661
35224SOL    HW1 7505  14.136   8.660  11.567
35224SOL    HW2 7506  14.056   8.577  11.665
35225SOL     OW 7507   4.982  13.897   8.977
35225SOL    HW1 7508   4.908  13.837   8.986
35225SOL    HW2 7509   4.942  13.985   8.977
35226SOL     OW 7510   7.878   7.625  11.979
35226SOL    HW1 7511   7.958   7.574  11.965
35226SOL    HW2 7512   7.884   7.695  11.914
35227SOL     OW 7513   1.490  11.211   0.512
35227SOL    HW1 7514   1.532  11.127   0.495
35227SOL    HW2 7515   1.486  11.254   0.426
35228SOL     OW 7516   4.133  13.992   8.907
35228SOL    HW1 7517   4.208  14.019   8.962
35228SOL    HW2 7518   4.058  13.997   8.966
35229SOL     OW 7519  10.808   5.779  14.576
35229SOL    HW1 7520  10.832   5.694  14.611
35229SOL    HW2 7521  10.786   5.762  14.484
35230SOL     OW 7522   3.264  13.090   3.725
35230SOL    HW1 7523   3.222  13.007   3.749
35230SOL    HW2 7524   3.327  13.066   3.657
35231SOL     OW 7525   9.284   3.195   3.348
35231SOL    HW1 7526   9.356   3.139   3.375
35231SOL    HW2 7527   9.326   3.274   3.314
35232SOL     OW 7528   2.098  14.143   4.572
35232SOL    HW1 7529   2.130  14.186   4.493
35232SOL    HW2 7530   2.057  14.212   4.623
35233SOL     OW 7531  10.968  12.070   5.030
35233SOL    HW1 7532  11.025  11.994   5.020
35233SOL    HW2 7533  10.972  12.114   4.945
35234SOL     OW 7534   1.837  12.705   5.800
35234SOL    HW1 7535   1.757  12.730   5.846
35234SOL    HW2 7536   1.843  12.767   5.727
35235SOL     OW 7537   8.387   7.721   1.491
35235SOL    HW1 7538   8.456   7.740   1.428
35235SOL    HW2 7539   8.394   7.793   1.555
35236SOL     OW 7540   3.398  12.533   4.136
35236SOL    HW1 7541   3.342  12.532   4.059
35236SOL    HW2 7542   3.486  12.516   4.102
35237SOL     OW 7543   3.375   7.809   2.131
35237SOL    HW1 7544   3.338   7.820   2.218
35237SOL    HW2 7545   3.339   7.882   2.080
35238SOL     OW 7546  13.600  12.443   0.605
35238SOL    HW1 7547  13.599  12.385   0.681
35238SOL    HW2 7548  13.594  12.531   0.642
35239SOL     OW 7549   9.385  12.978   2.391
35239SOL    HW1 7550   9.446  12.919   2.435
35239SOL    HW2 7551   9.418  12.984   2.301
35240SOL     OW 7552   3.729   3.223   9.879
35240SOL    HW1 7553   3.713   3.280   9.954
35240SOL    HW2 7554   3.823   3.209   9.878
35241SOL     OW 7555   5.619   5.732   1.524
35241SOL    HW1 7556   5.710   5.728   1.551
35241SOL    HW2 7557   5.606   5.652   1.472
35242SOL     OW 7558   7.636   3.699  10.902
35242SOL    HW1 7559   7.551   3.736  10.924
35242SOL    HW2 7560   7.668   3.753  10.830
35243SOL     OW 7561   2.298  11.892   4.740
35243SOL    HW1 7562   2.288  11.894   4.645
35243SOL    HW2 7563   2.251  11.969   4.771
35244SOL     OW 7564   2.999   1.619   3.706
35244SOL    HW1 7565   3.061   1.547   3.715
35244SOL    HW2 7566   3.053   1.698   3.718
35245SOL     OW 7567  14.405  14.130  11.982
35245SOL    HW1 7568  14.405  14.155  12.074
35245SOL    HW2 7569  14.485  14.078  11.971
35246SOL     OW 7570  13.435   5.717   8.795
35246SOL    HW1 7571  13.407   5.776   8.866
35246SOL    HW2 7572  13.368   5.729   8.727
35247SOL     OW 7573   0.029   6.225   1.841
35247SOL    HW1 7574  14.865   6.310   1.839
35247SOL    HW2 7575   0.105   6.239   1.899
35248SOL     OW 7576   1.353  12.295   2.587
35248SOL    HW1 7577   1.422  12.334   2.640
35248SOL    HW2 7578   1.385  12.207   2.568
35249SOL     OW 7579   9.596   1.979  11.012
35249SOL    HW1 7580   9.669   1.934  10.969
35249SOL    HW2 7581   9.529   1.987  10.945
35250SOL     OW 7582   5.316   0.749  12.185
35250SOL    HW1 7583   5.391   0.703  12.223
35250SOL    HW2 7584   5.256   0.680  12.157
35251SOL     OW 7585  13.170  11.274   9.798
35251SOL    HW1 7586  13.109  11.335   9.840
35251SOL    HW2 7587  13.122  11.192   9.793
35252SOL     OW 7588  10.822  10.120   6.456
35252SOL    HW1 7589  10.835  10.025   6.462
35252SOL    HW2 7590  10.728  10.131   6.439
35253SOL     OW 7591   1.524  11.169   5.838
35253SOL    HW1 7592   1.503  11.207   5.924
35253SOL    HW2 7593   1.592  11.104   5.856
35254SOL     OW 7594   0.539   4.605   9.871
35254SOL    HW1 7595   0.516   4.597   9.778
35254SOL    HW2 7596   0.470   4.662   9.907
35255SOL     OW 7597   1.345  11.780   9.670
35255SOL    HW1 7598   1.266  11.833   9.655
35255SOL    HW2 7599   1.396  11.790   9.590
35256SOL     OW 7600   2.738  10.571   7.490
35256SOL    HW1 7601   2.833  10.576   7.479
35256SOL    HW2 7602   2.724  10.495   7.547
35257SOL     OW 7603   4.695   9.435  14.410
35257SOL    HW1 7604   4.728   9.433  14.500
35257SOL    HW2 7605   4.615   9.382  14.413
35258SOL     OW 7606   4.551  13.273   6.077
35258SOL    HW1 7607   4.476  13.332   6.069
35258SOL    HW2 7608   4.628  13.328   6.064
35259SOL     OW 7609  12.180   7.262   0.590
35259SOL    HW1 7610  12.245   7.273   0.660
35259SOL    HW2 7611  12.232   7.245   0.512
35260SOL     OW 7612  14.229   9.742   5.106
35260SOL    HW1 7613  14.288   9.736   5.030
35260SOL    HW2 7614  14.238   9.657   5.149
35261SOL     OW 7615   7.166  14.230   4.123
35261SOL    HW1 7616   7.259  14.206   4.126
35261SOL    HW2 7617   7.166  14.324   4.143
35262SOL     OW 7618   3.025   8.304   4.746
35262SOL    HW1 7619   3.051   8.231   4.691
35262SOL    HW2 7620   2.941   8.277   4.783
35263SOL     OW 7621  14.617   5.933  11.744
35263SOL    HW1 7622  14.626   6.016  11.697
35263SOL    HW2 7623  14.531   5.900  11.719
35264SOL     OW 7624   2.476  10.921  14.304
35264SOL    HW1 7625   2.456  10.830  14.326
35264SOL    HW2 7626   2.572  10.922  14.294
35265SOL     OW 7627  14.214   8.476   1.313
35265SOL    HW1 7628  14.227   8.481   1.407
35265SOL    HW2 7629  14.128   8.515   1.298
35266SOL     OW 7630   4.317   2.109   0.105
35266SOL    HW1 7631   4.299   2.085   0.196
35266SOL    HW2 7632   4.392   2.054   0.081
35267SOL     OW 7633   4.753   1.271  13.413
35267SOL    HW1 7634   4.706   1.210  13.356
35267SOL    HW2 7635   4.797   1.332  13.354
35268SOL     OW 7636   4.647   4.113   9.635
35268SOL    HW1 7637   4.679   4.203   9.638
35268SOL    HW2 7638   4.583   4.113   9.564
35269SOL     OW 7639   3.240   2.301   3.543
35269SOL    HW1 7640   3.334   2.310   3.562
35269SOL    HW2 7641   3.196   2.343   3.617
35270SOL     OW 7642   0.013   7.304  12.688
35270SOL    HW1 7643  14.854   7.361  12.622
35270SOL    HW2 7644   0.077   7.251  12.641
35271SOL     OW 7645   9.801  12.953   4.555
35271SOL    HW1 7646   9.775  13.022   4.494
35271SOL    HW2 7647   9.723  12.937   4.608
35272SOL     OW 7648   7.153  14.168   7.542
35272SOL    HW1 7649   7.154  14.195   7.633
35272SOL    HW2 7650   7.097  14.090   7.540
35273SOL     OW 7651  12.747   8.901   2.000
35273SOL    HW1 7652  12.734   8.825   1.943
35273SOL    HW2 7653  12.821   8.948   1.962
35274SOL     OW 7654   4.088   5.882   7.059
35274SOL    HW1 7655   4.073   5.862   6.967
35274SOL    HW2 7656   4.090   5.797   7.102
35275SOL     OW 7657   3.035   8.042   2.961
35275SOL    HW1 7658   3.071   8.028   3.048
35275SOL    HW2 7659   3.072   7.972   2.908
35276SOL     OW 7660   8.096   9.273   6.584
35276SOL    HW1 7661   8.154   9.215   6.633
35276SOL    HW2 7662   8.009   9.236   6.598
35277SOL     OW 7663  14.209   7.890   4.367
35277SOL    HW1 7664  14.278   7.838   4.408
35277SOL    HW2 7665  14.208   7.972   4.416
35278SOL     OW 7666   7.151   3.505  11.864
35278SOL    HW1 7667   7.121   3.455  11.939
35278SOL    HW2 7668   7.234   3.544  11.892
35279SOL     OW 7669  10.875   3.092   3.973
35279SOL    HW1 7670  10.846   3.179   3.945
35279SOL    HW2 7671  10.795   3.048   4.001
35280SOL     OW 7672   7.624  10.732  11.683
35280SOL    HW1 7673   7.579  10.730  11.598
35280SOL    HW2 7674   7.684  10.657  11.680
35281SOL     OW 7675  10.129   8.110  13.176
35281SOL    HW1 7676  10.069   8.182  13.193
35281SOL    HW2 7677  10.112   8.085  13.085
35282SOL     OW 7678  13.096   0.196   6.998
35282SOL    HW1 7679  13.134   0.200   7.085
35282SOL    HW2 7680  13.049   0.279   6.989
35283SOL     OW 7681   9.958  10.931   1.268
35283SOL    HW1 7682   9.865  10.908   1.264
35283SOL    HW2 7683   9.990  10.915   1.179
35284SOL     OW 7684  11.128  13.752   9.237
35284SOL    HW1 7685  11.071  13.829   9.243
35284SOL    HW2 7686  11.159  13.753   9.147
35285SOL     OW 7687  12.230   0.450   7.119
35285SOL    HW1 7688  12.267   0.452   7.208
35285SOL    HW2 7689  12.170   0.525   7.116
35286SOL     OW 7690  10.660   6.914   9.719
35286SOL    HW1 7691  10.578   6.938   9.761
35286SOL    HW2 7692  10.716   6.883   9.791
35287SOL     OW 7693   6.829   4.616   7.716
35287SOL    HW1 7694   6.883   4.537   7.710
35287SOL    HW2 7695   6.761   4.594   7.779
35288SOL     OW 7696   9.423  13.381  10.894
35288SOL    HW1 7697   9.464  13.468  10.894
35288SOL    HW2 7698   9.329  13.399  10.889
35289SOL     OW 7699  13.087  12.795  13.703
35289SOL    HW1 7700  13.135  12.718  13.671
35289SOL    HW2 7701  13.073  12.777  13.796
35290SOL     OW 7702   0.512  13.640   1.219
35290SOL    HW1 7703   0.428  13.602   1.245
35290SOL    HW2 7704   0.545  13.680   1.300
35291SOL     OW 7705   0.064   3.646  11.646
35291SOL    HW1 7706   0.066   3.628  11.552
35291SOL    HW2 7707  14.849   3.653  11.667
35292SOL     OW 7708   3.568  11.179   1.058
35292SOL    HW1 7709   3.560  11.238   1.134
35292SOL    HW2 7710   3.587  11.094   1.097
35293SOL     OW 7711   1.668   4.056  11.113
35293SOL    HW1 7712   1.616   4.027  11.187
35293SOL    HW2 7713   1.704   3.975  11.076
35294SOL     OW 7714   5.308   5.800  14.827
35294SOL    HW1 7715   5.355   5.832  14.750
35294SOL    HW2 7716   5.256   5.874  14.857
35295SOL     OW 7717   7.802  10.305  13.656
35295SOL    HW1 7718   7.751  10.269  13.583
35295SOL    HW2 7719   7.736  10.333  13.719
35296SOL     OW 7720   3.420   3.459  10.431
35296SOL    HW1 7721   3.431   3.469  10.526
35296SOL    HW2 7722   3.366   3.534  10.406
35297SOL     OW 7723  14.680  12.969  11.314
35297SOL    HW1 7724  14.708  13.053  11.279
35297SOL    HW2 7725  14.585  12.977  11.322
35298SOL     OW 7726   6.497   4.563  12.871
35298SOL    HW1 7727   6.466   4.508  12.944
35298SOL    HW2 7728   6.520   4.500  12.803
35299SOL     OW 7729  12.999   2.119   5.646
35299SOL    HW1 7730  13.053   2.059   5.595
35299SOL    HW2 7731  13.051   2.138   5.724
35300SOL     OW 7732   6.622   2.935  14.370
35300SOL    HW1 7733   6.541   2.916  14.418
35300SOL    HW2 7734   6.618   2.878  14.293
35301SOL     OW 7735  14.397   7.144   5.913
35301SOL    HW1 7736  14.466   7.114   5.972
35301SOL    HW2 7737  14.398   7.080   5.841
35302SOL     OW 7738  11.258  12.531   0.161
35302SOL    HW1 7739  11.296  12.461   0.108
35302SOL    HW2 7740  11.174  12.550   0.120
35303SOL     OW 7741   3.114  10.464   9.615
35303SOL    HW1 7742   3.129  10.542   9.668
35303SOL    HW2 7743   3.173  10.474   9.540
35304SOL     OW 7744   8.735  10.689  11.469
35304SOL    HW1 7745   8.684  10.680  11.549
35304SOL    HW2 7746   8.726  10.604  11.426
35305SOL     OW 7747   1.536   1.538  11.845
35305SOL    HW1 7748   1.588   1.572  11.773
35305SOL    HW2 7749   1.516   1.448  11.821
35306SOL     OW 7750  10.628  10.327   5.725
35306SOL    HW1 7751  10.556  10.388   5.737
35306SOL    HW2 7752  10.622  10.300   5.633
35307SOL     OW 7753   5.271  11.199   0.725
35307SOL    HW1 7754   5.260  11.149   0.644
35307SOL    HW2 7755   5.346  11.256   0.708
35308SOL     OW 7756  10.931   7.765  14.073
35308SOL    HW1 7757  10.966   7.791  14.158
35308SOL    HW2 7758  10.842   7.736  14.092
35309SOL     OW 7759   6.446   6.154  13.720
35309SOL    HW1 7760   6.395   6.148  13.639
35309SOL    HW2 7761   6.429   6.243  13.752
35310SOL     OW 7762   3.374  13.938  11.448
35310SOL    HW1 7763   3.452  13.888  11.471
35310SOL    HW2 7764   3.354  13.989  11.527
35311SOL     OW 7765   9.305  13.193   8.868
35311SOL    HW1 7766   9.233  13.138   8.898
35311SOL    HW2 7767   9.328  13.159   8.782
35312SOL     OW 7768   5.059  13.515   9.922
35312SOL    HW1 7769   5.113  13.521   9.843
35312SOL    HW2 7770   5.122  13.502   9.993
35313SOL     OW 7771   7.897   9.934   1.700
35313SOL    HW1 7772   7.804   9.909   1.699
35313SOL    HW2 7773   7.902  10.004   1.765
35314SOL     OW 7774   3.349   3.555  11.243
35314SOL    HW1 7775   3.283   3.624  11.253
35314SOL    HW2 7776   3.392   3.550  11.328
35315SOL     OW 7777  13.368   8.269  10.920
35315SOL    HW1 7778  13.424   8.211  10.869
35315SOL    HW2 7779  13.293   8.285  10.863
35316SOL     OW 7780  13.368  14.865  10.643
35316SOL    HW1 7781  13.383   0.079  10.622
35316SOL    HW2 7782  13.422  14.817  10.580
35317SOL     OW 7783  12.787   7.382   9.298
35317SOL    HW1 7784  12.770   7.370   9.391
35317SOL    HW2 7785  12.767   7.474   9.281
35318SOL     OW 7786   6.053   5.038   8.122
35318SOL    HW1 7787   6.047   5.133   8.109
35318SOL    HW2 7788   5.999   5.021   8.199
35319SOL     OW 7789   0.459   5.998  13.655
35319SOL    HW1 7790   0.370   5.967  13.640
35319SOL    HW2 7791   0.451   6.058  13.729
35320SOL     OW 7792  10.654  10.237   0.586
35320SOL    HW1 7793  10.726  10.214   0.644
35320SOL    HW2 7794  10.598  10.159   0.584
35321SOL     OW 7795  13.360  11.666   5.973
35321SOL    HW1 7796  13.444  11.620   5.981
35321SOL    HW2 7797  13.383  11.759   5.984
35322SOL     OW 7798  12.733   4.919   7.498
35322SOL    HW1 7799  12.746   4.855   7.428
35322SOL    HW2 7800  12.686   4.991   7.456
35323SOL     OW 7801   3.590  12.048  12.487
35323SOL    HW1 7802   3.623  11.962  12.513
35323SOL    HW2 7803   3.628  12.109  12.551
35324SOL     OW 7804   9.249  11.898  12.436
35324SOL    HW1 7805   9.341  11.923  12.443
35324SOL    HW2 7806   9.235  11.886  12.342
35325SOL     OW 7807  14.009   1.673   9.841
35325SOL    HW1 7808  13.995   1.763   9.810
35325SOL    HW2 7809  14.103   1.659   9.831
35326SOL     OW 7810  12.305   2.144   2.996
35326SOL    HW1 7811  12.341   2.165   3.082
35326SOL    HW2 7812  12.337   2.056   2.977
35327SOL     OW 7813   9.379   3.764   5.551
35327SOL    HW1 7814   9.328   3.688   5.581
35327SOL    HW2 7815   9.469   3.744   5.575
35328SOL     OW 7816   7.847  11.168   0.881
35328SOL    HW1 7817   7.907  11.202   0.815
35328SOL    HW2 7818   7.862  11.074   0.881
35329SOL     OW 7819  11.823  11.101  12.110
35329SOL    HW1 7820  11.889  11.042  12.074
35329SOL    HW2 7821  11.832  11.181  12.059
35330SOL     OW 7822  14.467   8.846   7.135
35330SOL    HW1 7823  14.537   8.904   7.103
35330SOL    HW2 7824  14.476   8.767   7.082
35331SOL     OW 7825   6.467   4.461   6.166
35331SOL    HW1 7826   6.523   4.396   6.124
35331SOL    HW2 7827   6.478   4.540   6.113
35332SOL     OW 7828   2.557  11.786  11.700
35332SOL    HW1 7829   2.604  11.855  11.748
35332SOL    HW2 7830   2.625  11.744  11.647
35333SOL     OW 7831  11.088   5.130   5.414
35333SOL    HW1 7832  11.113   5.120   5.322
35333SOL    HW2 7833  10.997   5.157   5.411
35334SOL     OW 7834  10.250  13.876   3.126
35334SOL    HW1 7835  10.325  13.935   3.135
35334SOL    HW2 7836  10.212  13.872   3.213
35335SOL     OW 7837   9.882   2.442  11.324
35335SOL    HW1 7838   9.873   2.488  11.407
35335SOL    HW2 7839   9.975   2.424  11.316
35336SOL     OW 7840  13.132   6.908   2.651
35336SOL    HW1 7841  13.177   6.902   2.566
35336SOL    HW2 7842  13.077   6.986   2.644
35337SOL     OW 7843   1.649  11.726   5.949
35337SOL    HW1 7844   1.701  11.680   6.015
35337SOL    HW2 7845   1.714  11.770   5.894
35338SOL     OW 7846   2.847  12.672   8.339
35338SOL    HW1 7847   2.806  12.724   8.409
35338SOL    HW2 7848   2.782  12.606   8.317
35339SOL     OW 7849   9.833   6.459   3.161
35339SOL    HW1 7850   9.750   6.507   3.163
35339SOL    HW2 7851   9.811   6.371   3.190
35340SOL     OW 7852   4.232  12.393  10.671
35340SOL    HW1 7853   4.185  12.360  10.747
35340SOL    HW2 7854   4.283  12.467  10.703
35341SOL     OW 7855   4.626   7.807  14.855
35341SOL    HW1 7856   4.581   7.772   0.053
35341SOL    HW2 7857   4.608   7.901  14.858
35342SOL     OW 7858   4.072   9.664  14.796
35342SOL    HW1 7859   4.166   9.684  14.791
35342SOL    HW2 7860   4.059   9.631   0.006
35343SOL     OW 7861   1.298  12.395   0.718
35343SOL    HW1 7862   1.381  12.417   0.759
35343SOL    HW2 7863   1.312  12.308   0.679
35344SOL     OW 7864   9.110   4.430  14.441
35344SOL    HW1 7865   9.043   4.367  14.465
35344SOL    HW2 7866   9.172   4.380  14.387
35345SOL     OW 7867   1.953   6.764  11.137
35345SOL    HW1 7868   1.952   6.705  11.212
35345SOL    HW2 7869   1.884   6.731  11.080
35346SOL     OW 7870   7.771   1.440   1.302
35346SOL    HW1 7871   7.859   1.429   1.266
35346SOL    HW2 7872   7.767   1.377   1.374
35347SOL     OW 7873   0.752   2.142   2.804
35347SOL    HW1 7874   0.833   2.098   2.831
35347SOL    HW2 7875   0.781   2.213   2.746
35348SOL     OW 7876  14.553   9.210   2.597
35348SOL    HW1 7877  14.572   9.285   2.652
35348SOL    HW2 7878  14.463   9.186   2.620
35349SOL     OW 7879   9.668   5.581   2.261
35349SOL    HW1 7880   9.734   5.590   2.192
35349SOL    HW2 7881   9.663   5.487   2.278
35350SOL     OW 7882   6.179   4.127  13.783
35350SOL    HW1 7883   6.092   4.107  13.818
35350SOL    HW2 7884   6.225   4.170  13.855
35351SOL     OW 7885   2.683   2.547   1.134
35351SOL    HW1 7886   2.600   2.541   1.181
35351SOL    HW2 7887   2.735   2.609   1.185
35352SOL     OW 7888   2.919  12.932  13.180
35352SOL    HW1 7889   2.846  12.994  13.188
35352SOL    HW2 7890   2.964  12.959  13.099
35353SOL     OW 7891   1.451   2.290   1.702
35353SOL    HW1 7892   1.540   2.291   1.738
35353SOL    HW2 7893   1.413   2.208   1.734
35354SOL     OW 7894   8.073  11.295  13.621
35354SOL    HW1 7895   8.076  11.200  13.612
35354SOL    HW2 7896   8.165  11.322  13.625
35355SOL     OW 7897  10.368  11.362   0.281
35355SOL    HW1 7898  10.449  11.316   0.300
35355SOL    HW2 7899  10.301  11.314   0.329
35356SOL     OW 7900  12.762   5.128   5.213
35356SOL    HW1 7901  12.794   5.140   5.303
35356SOL    HW2 7902  12.666   5.137   5.221
35357SOL     OW 7903   5.971  13.346  14.182
35357SOL    HW1 7904   5.880  13.326  14.203
35357SOL    HW2 7905   5.972  13.441  14.168
35358SOL     OW 7906   6.625  10.747   3.718
35358SOL    HW1 7907   6.587  10.830   3.692
35358SOL    HW2 7908   6.652  10.706   3.636
35359SOL     OW 7909  12.511   5.367   2.121
35359SOL    HW1 7910  12.537   5.355   2.213
35359SOL    HW2 7911  12.531   5.284   2.079
35360SOL     OW 7912   1.313   6.304   0.766
35360SOL    HW1 7913   1.285   6.241   0.833
35360SOL    HW2 7914   1.231   6.337   0.729
35361SOL     OW 7915   3.363  10.402   9.030
35361SOL    HW1 7916   3.353  10.320   9.079
35361SOL    HW2 7917   3.454  10.400   9.000
35362SOL     OW 7918   8.414   4.743  12.765
35362SOL    HW1 7919   8.446   4.702  12.685
35362SOL    HW2 7920   8.368   4.672  12.811
35363SOL     OW 7921  13.375   6.099   0.607
35363SOL    HW1 7922  13.450   6.052   0.641
35363SOL    HW2 7923  13.402   6.191   0.607
35364SOL     OW 7924  12.049   7.203   1.491
35364SOL    HW1 7925  12.017   7.184   1.403
35364SOL    HW2 7926  12.003   7.283   1.516
35365SOL     OW 7927  11.080   1.276   7.172
35365SOL    HW1 7928  11.172   1.295   7.192
35365SOL    HW2 7929  11.031   1.350   7.206
35366SOL     OW 7930   8.033   3.438   8.718
35366SOL    HW1 7931   8.075   3.414   8.801
35366SOL    HW2 7932   8.076   3.520   8.693
35367SOL     OW 7933  14.180   0.272   8.561
35367SOL    HW1 7934  14.255   0.306   8.609
35367SOL    HW2 7935  14.141   0.348   8.518
35368SOL     OW 7936  11.381   1.681   2.808
35368SOL    HW1 7937  11.346   1.603   2.851
35368SOL    HW2 7938  11.423   1.649   2.729
35369SOL     OW 7939   4.184   6.814   8.843
35369SOL    HW1 7940   4.176   6.901   8.805
35369SOL    HW2 7941   4.105   6.803   8.896
35370SOL     OW 7942   5.575   1.754   6.405
35370SOL    HW1 7943   5.620   1.688   6.458
35370SOL    HW2 7944   5.486   1.757   6.440
35371SOL     OW 7945   8.050  11.968  10.956
35371SOL    HW1 7946   8.024  11.987  11.047
35371SOL    HW2 7947   7.969  11.974  10.906
35372SOL     OW 7948   3.063  14.093   4.373
35372SOL    HW1 7949   3.011  14.113   4.296
35372SOL    HW2 7950   3.149  14.132   4.355
35373SOL     OW 7951   1.340   7.025   8.941
35373SOL    HW1 7952   1.301   7.023   9.029
35373SOL    HW2 7953   1.286   6.965   8.889
35374SOL     OW 7954   5.841   0.593   6.341
35374SOL    HW1 7955   5.822   0.502   6.316
35374SOL    HW2 7956   5.755   0.629   6.366
35375SOL     OW 7957  11.708   4.589  13.239
35375SOL    HW1 7958  11.755   4.527  13.183
35375SOL    HW2 7959  11.775   4.624  13.298
35376SOL     OW 7960   1.903   0.636   3.796
35376SOL    HW1 7961   1.896   0.556   3.744
35376SOL    HW2 7962   1.816   0.674   3.794
35377SOL     OW 7963  13.640  10.146   7.327
35377SOL    HW1 7964  13.707  10.207   7.357
35377SOL    HW2 7965  13.557  10.191   7.343
35378SOL     OW 7966  10.134   6.814  11.342
35378SOL    HW1 7967  10.094   6.828  11.256
35378SOL    HW2 7968  10.074   6.856  11.403
35379SOL     OW 7969  12.219   8.381   1.240
35379SOL    HW1 7970  12.213   8.476   1.251
35379SOL    HW2 7971  12.169   8.345   1.313
35380SOL     OW 7972   8.894  11.611   4.764
35380SOL    HW1 7973   8.895  11.656   4.849
35380SOL    HW2 7974   8.852  11.672   4.705
35381SOL     OW 7975   9.924   0.875   4.132
35381SOL    HW1 7976   9.890   0.958   4.168
35381SOL    HW2 7977   9.848   0.835   4.090
35382SOL     OW 7978   9.271   6.884   5.883
35382SOL    HW1 7979   9.282   6.978   5.869
35382SOL    HW2 7980   9.248   6.876   5.976
35383SOL     OW 7981   5.926  12.821  14.842
35383SOL    HW1 7982   5.955  12.775   0.042
35383SOL    HW2 7983   6.006  12.834  14.791
35384SOL     OW 7984  14.628   4.937   8.040
35384SOL    HW1 7985  14.634   4.847   8.008
35384SOL    HW2 7986  14.688   4.940   8.114
35385SOL     OW 7987  14.835  14.841  13.534
35385SOL    HW1 7988   0.002  14.861  13.615
35385SOL    HW2 7989  14.772  14.774  13.558
35386SOL     OW 7990  10.000  11.708  14.359
35386SOL    HW1 7991   9.980  11.654  14.435
35386SOL    HW2 7992  10.095  11.707  14.353
35387SOL     OW 7993   2.412  14.476   7.877
35387SOL    HW1 7994   2.450  14.530   7.947
35387SOL    HW2 7995   2.469  14.399   7.873
35388SOL     OW 7996  10.957  12.925   1.384
35388SOL    HW1 7997  10.945  12.859   1.316
35388SOL    HW2 7998  10.914  13.003   1.349
35389SOL     OW 7999  10.487   5.892   3.121
35389SOL    HW1 8000  10.462   5.801   3.106
35389SOL    HW2 8001  10.411   5.931   3.165
35390SOL     OW 8002   2.121   1.768  14.568
35390SOL    HW1 8003   2.133   1.741  14.659
35390SOL    HW2 8004   2.160   1.856  14.564
35391SOL     OW 8005  12.235   5.910   3.874
35391SOL    HW1 8006  12.235   5.816   3.857
35391SOL    HW2 8007  12.198   5.918   3.962
35392SOL     OW 8008   2.244   7.741  12.717
35392SOL    HW1 8009   2.150   7.742  12.702
35392SOL    HW2 8010   2.282   7.725  12.631
35393SOL     OW 8011   7.836   2.346   1.212
35393SOL    HW1 8012   7.858   2.398   1.290
35393SOL    HW2 8013   7.915   2.347   1.159
35394SOL     OW 8014   7.140  12.086   6.559
35394SOL    HW1 8015   7.149  12.095   6.464
35394SOL    HW2 8016   7.129  11.992   6.573
35395SOL     OW 8017   9.358  11.015   9.681
35395SOL    HW1 8018   9.394  11.095   9.643
35395SOL    HW2 8019   9.330  11.041   9.769
35396SOL     OW 8020  14.201  13.331   3.669
35396SOL    HW1 8021  14.221  13.242   3.639
35396SOL    HW2 8022  14.105  13.332   3.674
35397SOL     OW 8023   2.640  11.636   7.057
35397SOL    HW1 8024   2.566  11.676   7.012
35397SOL    HW2 8025   2.694  11.710   7.086
35398SOL     OW 8026   5.204   4.603   5.109
35398SOL    HW1 8027   5.273   4.636   5.168
35398SOL    HW2 8028   5.177   4.520   5.148
35399SOL     OW 8029  11.521  12.421   8.392
35399SOL    HW1 8030  11.548  12.337   8.354
35399SOL    HW2 8031  11.557  12.487   8.332
35400SOL     OW 8032  14.052   4.477  11.380
35400SOL    HW1 8033  14.040   4.429  11.298
35400SOL    HW2 8034  13.988   4.549  11.374
35401SOL     OW 8035  10.022   2.697   0.933
35401SOL    HW1 8036  10.076   2.706   0.854
35401SOL    HW2 8037  10.010   2.603   0.944
35402SOL     OW 8038   2.851  14.695   1.178
35402SOL    HW1 8039   2.871  14.747   1.100
35402SOL    HW2 8040   2.801  14.621   1.145
35403SOL     OW 8041   3.703   9.267   7.943
35403SOL    HW1 8042   3.691   9.273   8.038
35403SOL    HW2 8043   3.798   9.266   7.932
35404SOL     OW 8044  11.586  14.701  10.812
35404SOL    HW1 8045  11.569  14.664  10.899
35404SOL    HW2 8046  11.657  14.764  10.826
35405SOL     OW 8047   2.604   0.120   2.972
35405SOL    HW1 8048   2.529   0.066   3.000
35405SOL    HW2 8049   2.579   0.151   2.885
35406SOL     OW 8050  11.647  13.990   2.869
35406SOL    HW1 8051  11.635  13.966   2.961
35406SOL    HW2 8052  11.642  14.086   2.869
35407SOL     OW 8053   6.599   8.492   6.639
35407SOL    HW1 8054   6.655   8.454   6.572
35407SOL    HW2 8055   6.526   8.532   6.591
35408SOL     OW 8056  14.080   9.468   3.746
35408SOL    HW1 8057  13.990   9.441   3.728
35408SOL    HW2 8058  14.125   9.387   3.771
35409SOL     OW 8059  14.040  11.199   2.357
35409SOL    HW1 8060  13.974  11.151   2.408
35409SOL    HW2 8061  14.076  11.263   2.419
35410SOL     OW 8062   9.082   2.574   7.671
35410SOL    HW1 8063   9.050   2.560   7.760
35410SOL    HW2 8064   9.162   2.627   7.682
35411SOL     OW 8065   0.671  13.477  11.096
35411SOL    HW1 8066   0.681  13.388  11.064
35411SOL    HW2 8067   0.616  13.469  11.174
35412SOL     OW 8068   3.231   7.126  13.878
35412SOL    HW1 8069   3.213   7.219  13.896
35412SOL    HW2 8070   3.216   7.083  13.962
35413SOL     OW 8071   3.666   9.033  14.097
35413SOL    HW1 8072   3.678   9.087  14.019
35413SOL    HW2 8073   3.749   9.039  14.144
35414SOL     OW 8074   1.832   4.617   5.594
35414SOL    HW1 8075   1.754   4.562   5.598
35414SOL    HW2 8076   1.887   4.577   5.526
35415SOL     OW 8077   6.828   1.991   2.682
35415SOL    HW1 8078   6.821   1.910   2.732
35415SOL    HW2 8079   6.859   2.056   2.745
35416SOL     OW 8080   9.979   3.064   5.163
35416SOL    HW1 8081   9.974   2.968   5.163
35416SOL    HW2 8082  10.026   3.085   5.244
35417SOL     OW 8083  10.944  14.281   2.369
35417SOL    HW1 8084  10.982  14.240   2.446
35417SOL    HW2 8085  10.986  14.238   2.295
35418SOL     OW 8086  12.116   1.182   2.096
35418SOL    HW1 8087  12.110   1.087   2.088
35418SOL    HW2 8088  12.029   1.210   2.125
35419SOL     OW 8089   5.404  14.243   2.911
35419SOL    HW1 8090   5.417  14.150   2.929
35419SOL    HW2 8091   5.476  14.287   2.956
35420SOL     OW 8092   1.891  11.552  11.291
35420SOL    HW1 8093   1.930  11.606  11.223
35420SOL    HW2 8094   1.924  11.464  11.274
35421SOL     OW 8095   2.538   0.867   0.081
35421SOL    HW1 8096   2.577   0.955   0.080
35421SOL    HW2 8097   2.536   0.844   0.174
35422SOL     OW 8098  11.378   9.968  10.086
35422SOL    HW1 8099  11.318   9.896  10.066
35422SOL    HW2 8100  11.322  10.038  10.119
35423SOL     OW 8101  14.393   8.162   7.290
35423SOL    HW1 8102  14.299   8.152   7.304
35423SOL    HW2 8103  14.429   8.075   7.310
35424SOL     OW 8104   8.673  14.730   8.924
35424SOL    HW1 8105   8.600  14.673   8.949
35424SOL    HW2 8106   8.635  14.818   8.923
35425SOL     OW 8107   3.996  11.569   3.291
35425SOL    HW1 8108   3.911  11.602   3.318
35425SOL    HW2 8109   4.023  11.510   3.362
35426SOL     OW 8110   3.818   0.895   8.227
35426SOL    HW1 8111   3.839   0.808   8.262
35426SOL    HW2 8112   3.902   0.931   8.200
35427SOL     OW 8113   0.772   2.625   3.912
35427SOL    HW1 8114   0.855   2.624   3.959
35427SOL    HW2 8115   0.725   2.701   3.947
35428SOL     OW 8116   1.990   6.111  10.550
35428SOL    HW1 8117   1.949   6.054  10.485
35428SOL    HW2 8118   1.943   6.194  10.543
35429SOL     OW 8119   1.658   0.926  11.930
35429SOL    HW1 8120   1.674   1.020  11.933
35429SOL    HW2 8121   1.570   0.915  11.967
35430SOL     OW 8122   5.524  14.654  14.439
35430SOL    HW1 8123   5.486  14.566  14.430
35430SOL    HW2 8124   5.466  14.699  14.500
35431SOL     OW 8125   4.757   9.335   4.014
35431SOL    HW1 8126   4.851   9.344   4.030
35431SOL    HW2 8127   4.745   9.242   3.993
35432SOL     OW 8128   4.686   2.427   9.374
35432SOL    HW1 8129   4.738   2.347   9.368
35432SOL    HW2 8130   4.746   2.497   9.349
35433SOL     OW 8131  12.433   9.494  13.441
35433SOL    HW1 8132  12.343   9.514  13.466
35433SOL    HW2 8133  12.487   9.526  13.514
35434SOL     OW 8134   8.889   6.870   2.320
35434SOL    HW1 8135   8.868   6.875   2.413
35434SOL    HW2 8136   8.935   6.952   2.301
35435SOL     OW 8137   1.772   4.505   4.415
35435SOL    HW1 8138   1.867   4.506   4.423
35435SOL    HW2 8139   1.751   4.419   4.379
35436SOL     OW 8140   4.712   5.788  10.173
35436SOL    HW1 8141   4.706   5.702  10.215
35436SOL    HW2 8142   4.801   5.792  10.139
35437SOL     OW 8143   7.178  10.742  13.110
35437SOL    HW1 8144   7.103  10.704  13.156
35437SOL    HW2 8145   7.143  10.820  13.067
35438SOL     OW 8146   4.225   8.194   4.721
35438SOL    HW1 8147   4.272   8.168   4.642
35438SOL    HW2 8148   4.275   8.156   4.793
35439SOL     OW 8149  14.174   7.748   0.738
35439SOL    HW1 8150  14.252   7.727   0.686
35439SOL    HW2 8151  14.111   7.781   0.674
35440SOL     OW 8152  11.527   9.213   9.093
35440SOL    HW1 8153  11.452   9.155   9.104
35440SOL    HW2 8154  11.581   9.172   9.026
35441SOL     OW 8155   5.930   0.635   1.399
35441SOL    HW1 8156   5.985   0.620   1.476
35441SOL    HW2 8157   5.861   0.694   1.430
35442SOL     OW 8158   6.567   5.724   7.729
35442SOL    HW1 8159   6.647   5.776   7.718
35442SOL    HW2 8160   6.597   5.634   7.727
35443SOL     OW 8161  10.357   5.948  12.316
35443SOL    HW1 8162  10.278   5.907  12.280
35443SOL    HW2 8163  10.351   6.040  12.289
35444SOL     OW 8164   6.552  12.360  14.796
35444SOL    HW1 8165   6.588  12.283  14.752
35444SOL    HW2 8166   6.461  12.364  14.766
35445SOL     OW 8167   0.753   4.407   7.426
35445SOL    HW1 8168   0.722   4.470   7.491
35445SOL    HW2 8169   0.843   4.387   7.451
35446SOL     OW 8170  13.874   9.999   8.769
35446SOL    HW1 8171  13.965  10.012   8.796
35446SOL    HW2 8172  13.880   9.944   8.691
35447SOL     OW 8173  13.483   8.312  13.596
35447SOL    HW1 8174  13.428   8.315  13.517
35447SOL    HW2 8175  13.492   8.219  13.615
35448SOL     OW 8176   9.775   5.305  12.526
35448SOL    HW1 8177   9.812   5.261  12.450
35448SOL    HW2 8178   9.704   5.359  12.491
35449SOL     OW 8179   7.307   6.329  11.849
35449SOL    HW1 8180   7.265   6.260  11.899
35449SOL    HW2 8181   7.249   6.343  11.773
35450SOL     OW 8182   9.227   8.626   3.104
35450SOL    HW1 8183   9.157   8.667   3.154
35450SOL    HW2 8184   9.275   8.700   3.065
35451SOL     OW 8185   1.239   7.604   8.072
35451SOL    HW1 8186   1.308   7.566   8.126
35451SOL    HW2 8187   1.269   7.589   7.982
35452SOL     OW 8188   2.675  11.366   0.242
35452SOL    HW1 8189   2.706  11.304   0.176
35452SOL    HW2 8190   2.580  11.358   0.240
35453SOL     OW 8191   2.119   5.992   0.218
35453SOL    HW1 8192   2.129   5.948   0.303
35453SOL    HW2 8193   2.160   5.932   0.156
35454SOL     OW 8194   6.740   1.487   3.414
35454SOL    HW1 8195   6.793   1.546   3.468
35454SOL    HW2 8196   6.739   1.526   3.327
35455SOL     OW 8197   7.160   7.627   5.024
35455SOL    HW1 8198   7.185   7.553   5.080
35455SOL    HW2 8199   7.072   7.651   5.054
35456SOL     OW 8200   8.688  11.958  11.928
35456SOL    HW1 8201   8.705  12.051  11.921
35456SOL    HW2 8202   8.739  11.929  12.003
35457SOL     OW 8203   7.563   0.172   4.639
35457SOL    HW1 8204   7.565   0.210   4.726
35457SOL    HW2 8205   7.635   0.109   4.638
35458SOL     OW 8206   1.931  13.698   5.176
35458SOL    HW1 8207   2.017  13.656   5.175
35458SOL    HW2 8208   1.885  13.658   5.250
35459SOL     OW 8209  11.400   1.017   3.405
35459SOL    HW1 8210  11.384   1.102   3.366
35459SOL    HW2 8211  11.355   1.020   3.490
35460SOL     OW 8212   0.553   0.262   4.362
35460SOL    HW1 8213   0.500   0.306   4.429
35460SOL    HW2 8214   0.553   0.170   4.389
35461SOL     OW 8215  11.204   7.106   5.544
35461SOL    HW1 8216  11.259   7.101   5.622
35461SOL    HW2 8217  11.123   7.147   5.574
35462SOL     OW 8218  13.700   0.389   9.539
35462SOL    HW1 8219  13.693   0.329   9.465
35462SOL    HW2 8220  13.660   0.471   9.507
35463SOL     OW 8221   6.644   1.830  14.684
35463SOL    HW1 8222   6.641   1.869  14.597
35463SOL    HW2 8223   6.679   1.742  14.670
35464SOL     OW 8224   9.464   2.098   7.902
35464SOL    HW1 8225   9.455   2.157   7.827
35464SOL    HW2 8226   9.520   2.145   7.963
35465SOL     OW 8227  11.219   6.107  13.481
35465SOL    HW1 8228  11.304   6.097  13.437
35465SOL    HW2 8229  11.223   6.193  13.523
35466SOL     OW 8230  13.774   3.941   5.889
35466SOL    HW1 8231  13.770   4.011   5.824
35466SOL    HW2 8232  13.838   3.971   5.953
35467SOL     OW 8233   5.362  10.200  14.162
35467SOL    HW1 8234   5.378  10.291  14.184
35467SOL    HW2 8235   5.266  10.193  14.156
35468SOL     OW 8236   9.671   8.200   9.937
35468SOL    HW1 8237   9.641   8.189   9.847
35468SOL    HW2 8238   9.596   8.174   9.991
35469SOL     OW 8239   4.849   8.955   8.843
35469SOL    HW1 8240   4.886   8.931   8.928
35469SOL    HW2 8241   4.755   8.942   8.854
35470SOL     OW 8242   3.256   8.339   6.830
35470SOL    HW1 8243   3.283   8.427   6.856
35470SOL    HW2 8244   3.317   8.315   6.761
35471SOL     OW 8245  12.345   8.375   6.568
35471SOL    HW1 8246  12.290   8.452   6.553
35471SOL    HW2 8247  12.385   8.390   6.653
35472SOL     OW 8248   6.286   2.854   6.796
35472SOL    HW1 8249   6.204   2.825   6.755
35472SOL    HW2 8250   6.331   2.901   6.727
35473SOL     OW 8251   6.610   6.316  14.609
35473SOL    HW1 8252   6.535   6.273  14.567
35473SOL    HW2 8253   6.676   6.322  14.540
35474SOL     OW 8254  10.376   2.063   6.342
35474SOL    HW1 8255  10.347   1.995   6.282
35474SOL    HW2 8256  10.441   2.113   6.292
35475SOL     OW 8257   1.607  10.965   0.508
35475SOL    HW1 8258   1.682  10.918   0.471
35475SOL    HW2 8259   1.530  10.924   0.469
35476SOL     OW 8260   7.714   4.212   7.606
35476SOL    HW1 8261   7.788   4.254   7.562
35476SOL    HW2 8262   7.637   4.248   7.563
35477SOL     OW 8263   1.118  13.861   4.922
35477SOL    HW1 8264   1.088  13.812   4.845
35477SOL    HW2 8265   1.200  13.819   4.947
35478SOL     OW 8266   8.304   9.235   1.567
35478SOL    HW1 8267   8.386   9.258   1.523
35478SOL    HW2 8268   8.331   9.187   1.645
35479SOL     OW 8269  10.371   6.875   4.843
35479SOL    HW1 8270  10.355   6.822   4.921
35479SOL    HW2 8271  10.294   6.858   4.787
35480SOL     OW 8272  14.315   1.712  10.956
35480SOL    HW1 8273  14.319   1.625  10.995
35480SOL    HW2 8274  14.381   1.710  10.887
35481SOL     OW 8275   1.890   7.274   5.069
35481SOL    HW1 8276   1.878   7.226   5.150
35481SOL    HW2 8277   1.816   7.249   5.014
35482SOL     OW 8278   4.660  13.401  10.928
35482SOL    HW1 8279   4.676  13.488  10.891
35482SOL    HW2 8280   4.565  13.398  10.941
35483SOL     OW 8281   6.206   7.972   3.522
35483SOL    HW1 8282   6.122   7.941   3.555
35483SOL    HW2 8283   6.189   7.997   3.431
35484SOL     OW 8284   3.429   1.021   3.753
35484SOL    HW1 8285   3.493   0.985   3.814
35484SOL    HW2 8286   3.344   0.992   3.786
35485SOL     OW 8287   1.503  10.655   1.989
35485SOL    HW1 8288   1.464  10.604   1.918
35485SOL    HW2 8289   1.450  10.735   1.992
35486SOL     OW 8290  10.338  12.918   8.837
35486SOL    HW1 8291  10.385  13.002   8.841
35486SOL    HW2 8292  10.312  12.901   8.927
35487SOL     OW 8293   9.012   3.852  12.163
35487SOL    HW1 8294   9.004   3.905  12.084
35487SOL    HW2 8295   9.099   3.813  12.156
35488SOL     OW 8296   3.355   1.140   9.592
35488SOL    HW1 8297   3.271   1.120   9.553
35488SOL    HW2 8298   3.383   1.221   9.548
35489SOL     OW 8299   9.702   5.147   3.329
35489SOL    HW1 8300   9.644   5.093   3.276
35489SOL    HW2 8301   9.720   5.094   3.407
35490SOL     OW 8302   3.364  13.821  14.701
35490SOL    HW1 8303   3.388  13.802  14.791
35490SOL    HW2 8304   3.443  13.860  14.663
35491SOL     OW 8305   7.985  12.354   8.418
35491SOL    HW1 8306   7.914  12.417   8.408
35491SOL    HW2 8307   8.005  12.324   8.330
35492SOL     OW 8308   9.675  10.762  14.873
35492SOL    HW1 8309   9.627  10.787   0.074
35492SOL    HW2 8310   9.657  10.669  14.863
35493SOL     OW 8311   6.335   2.461  14.827
35493SOL    HW1 8312   6.382   2.540  14.852
35493SOL    HW2 8313   6.367   2.440  14.740
35494SOL     OW 8314   1.705   0.387   0.938
35494SOL    HW1 8315   1.716   0.327   1.011
35494SOL    HW2 8316   1.765   0.355   0.871
35495SOL     OW 8317   1.048   5.025   6.199
35495SOL    HW1 8318   1.003   5.016   6.283
35495SOL    HW2 8319   1.093   5.109   6.204
35496SOL     OW 8320  12.017   2.978  13.131
35496SOL    HW1 8321  12.076   3.030  13.076
35496SOL    HW2 8322  11.934   2.978  13.084
35497SOL     OW 8323  11.804   5.038   2.029
35497SOL    HW1 8324  11.791   5.038   1.934
35497SOL    HW2 8325  11.733   5.094   2.062
35498SOL     OW 8326   4.345   3.929   5.852
35498SOL    HW1 8327   4.405   3.860   5.824
35498SOL    HW2 8328   4.260   3.886   5.857
35499SOL     OW 8329   7.958  10.485   9.244
35499SOL    HW1 8330   7.903  10.410   9.266
35499SOL    HW2 8331   7.896  10.558   9.237
35500SOL     OW 8332   7.244   7.093   0.673
35500SOL    HW1 8333   7.203   7.031   0.613
35500SOL    HW2 8334   7.280   7.161   0.616
35501SOL     OW 8335  13.818   8.347   5.177
35501SOL    HW1 8336  13.852   8.436   5.170
35501SOL    HW2 8337  13.787   8.340   5.267
35502SOL     OW 8338  10.784   8.892   3.097
35502SOL    HW1 8339  10.811   8.813   3.143
35502SOL    HW2 8340  10.859   8.951   3.105
35503SOL     OW 8341   0.017   4.699   3.357
35503SOL    HW1 8342   0.012   4.734   3.446
35503SOL    HW2 8343  14.819   4.644   3.348
35504SOL     OW 8344   7.963   4.719   9.999
35504SOL    HW1 8345   7.937   4.756   9.915
35504SOL    HW2 8346   8.049   4.681   9.984
35505SOL     OW 8347   8.358   1.799  10.517
35505SOL    HW1 8348   8.426   1.815  10.451
35505SOL    HW2 8349   8.300   1.875  10.511
35506SOL     OW 8350  11.821  14.501  13.947
35506SOL    HW1 8351  11.902  14.453  13.960
35506SOL    HW2 8352  11.753  14.434  13.949
35507SOL     OW 8353   9.497   3.070   5.413
35507SOL    HW1 8354   9.512   3.061   5.507
35507SOL    HW2 8355   9.452   3.154   5.404
35508SOL     OW 8356   2.173   0.939   2.413
35508SOL    HW1 8357   2.164   0.931   2.508
35508SOL    HW2 8358   2.102   0.998   2.387
35509SOL     OW 8359   2.688   1.938   5.058
35509SOL    HW1 8360   2.706   2.012   5.116
35509SOL    HW2 8361   2.774   1.916   5.020
35510SOL     OW 8362   2.586  12.821   4.421
35510SOL    HW1 8363   2.595  12.781   4.335
35510SOL    HW2 8364   2.590  12.915   4.404
35511SOL     OW 8365   7.102  12.937  14.878
35511SOL    HW1 8366   7.033  12.995  14.845
35511SOL    HW2 8367   7.141  12.985   0.072
35512SOL     OW 8368  10.121   9.047   2.114
35512SOL    HW1 8369  10.201   9.014   2.154
35512SOL    HW2 8370  10.057   9.045   2.185
35513SOL     OW 8371   7.744  10.008   1.457
35513SOL    HW1 8372   7.808  10.017   1.528
35513SOL    HW2 8373   7.672  10.067   1.482
35514SOL     OW 8374   0.954   3.225   4.550
35514SOL    HW1 8375   1.044   3.235   4.580
35514SOL    HW2 8376   0.960   3.222   4.455
35515SOL     OW 8377   7.794  11.159   9.286
35515SOL    HW1 8378   7.874  11.179   9.238
35515SOL    HW2 8379   7.739  11.112   9.223
35516SOL     OW 8380   7.691   9.821  10.885
35516SOL    HW1 8381   7.621   9.769  10.925
35516SOL    HW2 8382   7.647   9.896  10.847
35517SOL     OW 8383   1.811   6.566   6.488
35517SOL    HW1 8384   1.811   6.498   6.421
35517SOL    HW2 8385   1.755   6.635   6.454
35518SOL     OW 8386  11.246  13.770   5.347
35518SOL    HW1 8387  11.259  13.730   5.433
35518SOL    HW2 8388  11.293  13.712   5.287
35519SOL     OW 8389   8.610   7.928   1.907
35519SOL    HW1 8390   8.692   7.962   1.942
35519SOL    HW2 8391   8.620   7.833   1.908
35520SOL     OW 8392   8.757  12.591   3.594
35520SOL    HW1 8393   8.713  12.601   3.509
35520SOL    HW2 8394   8.838  12.545   3.574
35521SOL     OW 8395   7.262   7.456  11.549
35521SOL    HW1 8396   7.261   7.477  11.456
35521SOL    HW2 8397   7.180   7.490  11.583
35522SOL     OW 8398   4.474   3.225  10.321
35522SOL    HW1 8399   4.435   3.304  10.282
35522SOL    HW2 8400   4.560   3.218  10.279
35523SOL     OW 8401   0.377  14.282  14.811
35523SOL    HW1 8402   0.389  14.188  14.813
35523SOL    HW2 8403   0.318  14.297  14.736
35524SOL     OW 8404   5.562   0.440   3.837
35524SOL    HW1 8405   5.467   0.454   3.831
35524SOL    HW2 8406   5.581   0.379   3.767
35525SOL     OW 8407  11.055   1.359   8.467
35525SOL    HW1 8408  10.960   1.364   8.472
35525SOL    HW2 8409  11.081   1.435   8.415
35526SOL     OW 8410  11.910   9.769  12.320
35526SOL    HW1 8411  11.935   9.701  12.257
35526SOL    HW2 8412  11.962   9.845  12.294
35527SOL     OW 8413   2.703   6.752  14.317
35527SOL    HW1 8414   2.737   6.675  14.364
35527SOL    HW2 8415   2.774   6.816  14.321
35528SOL     OW 8416   0.362   2.503   3.280
35528SOL    HW1 8417   0.295   2.475   3.217
35528SOL    HW2 8418   0.386   2.424   3.327
35529SOL     OW 8419   7.031   6.733  14.228
35529SOL    HW1 8420   7.006   6.823  14.250
35529SOL    HW2 8421   6.994   6.719  14.141
35530SOL     OW 8422   3.415   2.577   0.946
35530SOL    HW1 8423   3.461   2.546   0.868
35530SOL    HW2 8424   3.323   2.554   0.930
35531SOL     OW 8425   1.172   9.265   3.512
35531SOL    HW1 8426   1.100   9.203   3.525
35531SOL    HW2 8427   1.204   9.247   3.424
35532SOL     OW 8428   4.742   0.830  13.735
35532SOL    HW1 8429   4.813   0.887  13.762
35532SOL    HW2 8430   4.669   0.889  13.717
35533SOL     OW 8431  11.914   7.482   6.506
35533SOL    HW1 8432  11.858   7.550   6.543
35533SOL    HW2 8433  12.001   7.502   6.539
35534SOL     OW 8434  12.716   7.583  14.695
35534SOL    HW1 8435  12.759   7.571  14.779
35534SOL    HW2 8436  12.683   7.496  14.672
35535SOL     OW 8437   8.129   8.822  10.703
35535SOL    HW1 8438   8.111   8.793  10.792
35535SOL    HW2 8439   8.077   8.764  10.647
35536SOL     OW 8440  11.341  11.914   9.103
35536SOL    HW1 8441  11.347  11.840   9.043
35536SOL    HW2 8442  11.407  11.976   9.071
35537SOL     OW 8443   5.870   6.348  11.874
35537SOL    HW1 8444   5.909   6.391  11.797
35537SOL    HW2 8445   5.943   6.303  11.915
35538SOL     OW 8446   9.188   4.802   6.207
35538SOL    HW1 8447   9.251   4.872   6.191
35538SOL    HW2 8448   9.241   4.727   6.233
35539SOL     OW 8449  14.425  11.452  13.268
35539SOL    HW1 8450  14.493  11.389  13.246
35539SOL    HW2 8451  14.456  11.494  13.349
35540SOL     OW 8452   4.602  13.295   9.601
35540SOL    HW1 8453   4.659  13.367   9.626
35540SOL    HW2 8454   4.660  13.229   9.564
35541SOL     OW 8455   9.007   5.446   7.028
35541SOL    HW1 8456   9.085   5.399   7.057
35541SOL    HW2 8457   8.940   5.421   7.092
35542SOL     OW 8458  14.211  12.423  14.443
35542SOL    HW1 8459  14.299  12.459  14.430
35542SOL    HW2 8460  14.153  12.499  14.443
35543SOL     OW 8461  12.637   1.833   4.728
35543SOL    HW1 8462  12.557   1.781   4.736
35543SOL    HW2 8463  12.687   1.810   4.807
35544SOL     OW 8464  10.636   5.648  11.276
35544SOL    HW1 8465  10.572   5.719  11.271
35544SOL    HW2 8466  10.592   5.572  11.239
35545SOL     OW 8467   7.536   0.385  11.371
35545SOL    HW1 8468   7.615   0.398  11.320
35545SOL    HW2 8469   7.562   0.326  11.442
35546SOL     OW 8470  10.866  13.308   1.495
35546SOL    HW1 8471  10.833  13.257   1.569
35546SOL    HW2 8472  10.935  13.363   1.532
35547SOL     OW 8473   1.399   6.631   7.481
35547SOL    HW1 8474   1.438   6.692   7.544
35547SOL    HW2 8475   1.432   6.659   7.396
35548SOL     OW 8476  10.825  14.345  12.378
35548SOL    HW1 8477  10.736  14.332  12.346
35548SOL    HW2 8478  10.827  14.301  12.463
35549SOL     OW 8479   5.020   0.460  13.568
35549SOL    HW1 8480   5.037   0.385  13.625
35549SOL    HW2 8481   4.936   0.495  13.597
35550SOL     OW 8482   6.100  12.987  10.886
35550SOL    HW1 8483   6.144  12.903  10.897
35550SOL    HW2 8484   6.012  12.965  10.854
35551SOL     OW 8485   0.729   2.707  12.962
35551SOL    HW1 8486   0.824   2.701  12.950
35551SOL    HW2 8487   0.718   2.782  13.022
35552SOL     OW 8488   7.167  10.416   5.827
35552SOL    HW1 8489   7.155  10.425   5.921
35552SOL    HW2 8490   7.249  10.367   5.818
35553SOL     OW 8491   4.822   5.815  14.584
35553SOL    HW1 8492   4.880   5.890  14.572
35553SOL    HW2 8493   4.740   5.852  14.615
35554SOL     OW 8494   5.979   9.882   0.430
35554SOL    HW1 8495   5.982   9.862   0.337
35554SOL    HW2 8496   6.040   9.820   0.469
35555SOL     OW 8497   3.008   4.636  10.038
35555SOL    HW1 8498   2.952   4.712  10.022
35555SOL    HW2 8499   2.952   4.561  10.023
35556SOL     OW 8500   3.807  12.114  11.483
35556SOL    HW1 8501   3.870  12.067  11.538
35556SOL    HW2 8502   3.727  12.063  11.490
35557SOL     OW 8503  12.865   0.753  10.697
35557SOL    HW1 8504  12.892   0.796  10.778
35557SOL    HW2 8505  12.946   0.746  10.646
35558SOL     OW 8506   4.985   2.870   1.313
35558SOL    HW1 8507   4.905   2.907   1.351
35558SOL    HW2 8508   4.994   2.784   1.355
35559SOL     OW 8509  12.111   6.936   0.997
35559SOL    HW1 8510  12.104   6.885   0.916
35559SOL    HW2 8511  12.197   6.977   0.993
35560SOL     OW 8512   6.915  11.959   3.644
35560SOL    HW1 8513   6.859  12.020   3.691
35560SOL    HW2 8514   6.986  12.013   3.609
35561SOL     OW 8515  13.493  14.363   7.980
35561SOL    HW1 8516  13.412  14.330   8.016
35561SOL    HW2 8517  13.473  14.383   7.888
35562SOL     OW 8518  10.134  13.058  10.540
35562SOL    HW1 8519  10.095  13.041  10.454
35562SOL    HW2 8520  10.070  13.023  10.602
35563SOL     OW 8521   3.501   9.448  12.687
35563SOL    HW1 8522   3.438   9.464  12.617
35563SOL    HW2 8523   3.471   9.503  12.760
35564SOL     OW 8524   1.804  11.909   5.804
35564SOL    HW1 8525   1.877  11.960   5.840
35564SOL    HW2 8526   1.792  11.944   5.715
35565SOL     OW 8527  12.206   5.821   4.656
35565SOL    HW1 8528  12.193   5.865   4.740
35565SOL    HW2 8529  12.130   5.846   4.604
35566SOL     OW 8530  12.313   9.400  11.789
35566SOL    HW1 8531  12.308   9.362  11.701
35566SOL    HW2 8532  12.237   9.459  11.794
35567SOL     OW 8533   2.031   2.659   6.764
35567SOL    HW1 8534   2.017   2.599   6.690
35567SOL    HW2 8535   1.965   2.727   6.753
35568SOL     OW 8536  11.183   9.999   9.635
35568SOL    HW1 8537  11.168   9.907   9.613
35568SOL    HW2 8538  11.266   9.999   9.683
35569SOL     OW 8539   1.742  13.986   9.887
35569SOL    HW1 8540   1.718  14.067   9.934
35569SOL    HW2 8541   1.829  13.965   9.920
35570SOL     OW 8542  10.471   8.237   7.791
35570SOL    HW1 8543  10.510   8.267   7.873
35570SOL    HW2 8544  10.405   8.173   7.819
35571SOL     OW 8545  14.568  13.984   3.127
35571SOL    HW1 8546  14.635  13.925   3.161
35571SOL    HW2 8547  14.499  13.983   3.193
35572SOL     OW 8548   0.385  13.416   4.421
35572SOL    HW1 8549   0.290  13.408   4.414
35572SOL    HW2 8550   0.415  13.329   4.448
35573SOL     OW 8551   6.762   7.216   3.645
35573SOL    HW1 8552   6.695   7.151   3.622
35573SOL    HW2 8553   6.842   7.165   3.657
35574SOL     OW 8554   2.000   9.866  12.550
35574SOL    HW1 8555   2.045   9.817  12.619
35574SOL    HW2 8556   2.016   9.817  12.470
35575SOL     OW 8557   4.252   4.611  12.085
35575SOL    HW1 8558   4.196   4.548  12.129
35575SOL    HW2 8559   4.306   4.557  12.026
35576SOL     OW 8560   0.451  12.977   7.505
35576SOL    HW1 8561   0.508  13.030   7.450
35576SOL    HW2 8562   0.378  13.036   7.528
35577SOL     OW 8563  13.783   7.988   0.206
35577SOL    HW1 8564  13.784   8.025   0.118
35577SOL    HW2 8565  13.759   7.896   0.193
35578SOL     OW 8566   7.943  12.866  12.653
35578SOL    HW1 8567   7.993  12.865  12.735
35578SOL    HW2 8568   7.914  12.776  12.642
35579SOL     OW 8569   9.869  13.888   5.633
35579SOL    HW1 8570   9.893  13.860   5.722
35579SOL    HW2 8571   9.780  13.854   5.621
35580SOL     OW 8572   6.772   9.172   4.218
35580SOL    HW1 8573   6.797   9.080   4.213
35580SOL    HW2 8574   6.808   9.202   4.301
35581SOL     OW 8575   7.478   1.974   3.351
35581SOL    HW1 8576   7.442   1.886   3.357
35581SOL    HW2 8577   7.573   1.962   3.359
35582SOL     OW 8578  14.594   4.668  13.606
35582SOL    HW1 8579  14.639   4.659  13.690
35582SOL    HW2 8580  14.580   4.578  13.576
35583SOL     OW 8581   3.399   2.846   3.581
35583SOL    HW1 8582   3.374   2.770   3.529
35583SOL    HW2 8583   3.317   2.895   3.593
35584SOL     OW 8584   4.591   3.080   0.837
35584SOL    HW1 8585   4.538   3.155   0.812
35584SOL    HW2 8586   4.587   3.078   0.933
35585SOL     OW 8587   4.508   7.832   5.710
35585SOL    HW1 8588   4.542   7.773   5.777
35585SOL    HW2 8589   4.496   7.777   5.632
35586SOL     OW 8590   9.739   4.481   1.563
35586SOL    HW1 8591   9.719   4.485   1.657
35586SOL    HW2 8592   9.833   4.495   1.558
35587SOL     OW 8593   4.616  10.839  10.017
35587SOL    HW1 8594   4.614  10.932   9.996
35587SOL    HW2 8595   4.526  10.808  10.002
35588SOL     OW 8596   0.360   4.335  11.636
35588SOL    HW1 8597   0.370   4.243  11.612
35588SOL    HW2 8598   0.432   4.352  11.696
35589SOL     OW 8599  14.707   3.693  10.453
35589SOL    HW1 8600  14.792   3.687  10.408
35589SOL    HW2 8601  14.670   3.775  10.422
35590SOL     OW 8602   9.214   5.572  14.506
35590SOL    HW1 8603   9.233   5.489  14.462
35590SOL    HW2 8604   9.207   5.549  14.599
35591SOL     OW 8605   1.118  14.537   3.858
35591SOL    HW1 8606   1.174  14.462   3.839
35591SOL    HW2 8607   1.153  14.608   3.805
35592SOL     OW 8608   5.399  11.381  14.713
35592SOL    HW1 8609   5.410  11.325  14.636
35592SOL    HW2 8610   5.314  11.358  14.748
35593SOL     OW 8611   9.902   9.953  14.080
35593SOL    HW1 8612   9.838   9.938  14.150
35593SOL    HW2 8613   9.959  10.022  14.113
35594SOL     OW 8614   2.709  13.272   9.253
35594SOL    HW1 8615   2.662  13.238   9.177
35594SOL    HW2 8616   2.758  13.197   9.286
35595SOL     OW 8617  10.727   2.509  14.185
35595SOL    HW1 8618  10.755   2.463  14.106
35595SOL    HW2 8619  10.771   2.594  14.180
35596SOL     OW 8620   8.195   2.623   8.011
35596SOL    HW1 8621   8.284   2.651   8.030
35596SOL    HW2 8622   8.206   2.538   7.967
35597SOL     OW 8623  10.259  10.481  11.232
35597SOL    HW1 8624  10.304  10.549  11.282
35597SOL    HW2 8625  10.304  10.480  11.148
35598SOL     OW 8626  11.312  12.804   1.482
35598SOL    HW1 8627  11.366  12.874   1.517
35598SOL    HW2 8628  11.284  12.837   1.396
35599SOL     OW 8629   1.345  12.346   8.086
35599SOL    HW1 8630   1.376  12.412   8.023
35599SOL    HW2 8631   1.336  12.394   8.168
35600SOL     OW 8632  12.867   4.761  11.084
35600SOL    HW1 8633  12.882   4.673  11.119
35600SOL    HW2 8634  12.851   4.815  11.161
35601SOL     OW 8635   3.363  10.595  10.722
35601SOL    HW1 8636   3.286  10.548  10.690
35601SOL    HW2 8637   3.413  10.528  10.770
35602SOL     OW 8638   2.880   1.941   2.708
35602SOL    HW1 8639   2.802   1.886   2.703
35602SOL    HW2 8640   2.846   2.030   2.707
35603SOL     OW 8641   0.343   6.388   4.045
35603SOL    HW1 8642   0.252   6.381   4.075
35603SOL    HW2 8643   0.340   6.358   3.954
35604SOL     OW 8644  11.189   3.402  11.249
35604SOL    HW1 8645  11.185   3.477  11.191
35604SOL    HW2 8646  11.247   3.340  11.205
35605SOL     OW 8647  11.287  12.109   5.216
35605SOL    HW1 8648  11.232  12.031   5.214
35605SOL    HW2 8649  11.304  12.123   5.310
35606SOL     OW 8650   5.585   7.869   0.174
35606SOL    HW1 8651   5.668   7.854   0.128
35606SOL    HW2 8652   5.517   7.853   0.108
35607SOL     OW 8653  12.682  12.168   1.104
35607SOL    HW1 8654  12.742  12.242   1.112
35607SOL    HW2 8655  12.703  12.129   1.019
35608SOL     OW 8656   3.143   5.737   0.219
35608SOL    HW1 8657   3.135   5.645   0.196
35608SOL    HW2 8658   3.157   5.782   0.136
35609SOL     OW 8659  11.408  11.930   3.441
35609SOL    HW1 8660  11.472  11.976   3.387
35609SOL    HW2 8661  11.374  11.860   3.384
35610SOL     OW 8662   9.263   8.157   0.899
35610SOL    HW1 8663   9.301   8.078   0.859
35610SOL    HW2 8664   9.331   8.189   0.958
35611SOL     OW 8665   9.346  14.416  11.405
35611SOL    HW1 8666   9.268  14.470  11.394
35611SOL    HW2 8667   9.360  14.413  11.500
35612SOL     OW 8668  10.341  12.121   6.927
35612SOL    HW1 8669  10.299  12.159   7.004
35612SOL    HW2 8670  10.378  12.038   6.959
35613SOL     OW 8671   0.500   4.259   1.967
35613SOL    HW1 8672   0.511   4.287   1.876
35613SOL    HW2 8673   0.478   4.339   2.014
35614SOL     OW 8674   0.879   7.189   7.430
35614SOL    HW1 8675   0.849   7.238   7.353
35614SOL    HW2 8676   0.845   7.100   7.417
35615SOL     OW 8677   2.000   5.866  10.697
35615SOL    HW1 8678   1.960   5.948  10.668
35615SOL    HW2 8679   2.092   5.875  10.675
35616SOL     OW 8680   6.894   1.826   7.821
35616SOL    HW1 8681   6.944   1.818   7.902
35616SOL    HW2 8682   6.902   1.741   7.779
35617SOL     OW 8683  13.273   9.910  10.122
35617SOL    HW1 8684  13.316   9.986  10.163
35617SOL    HW2 8685  13.226   9.947  10.047
35618SOL     OW 8686  10.297  12.793   2.775
35618SOL    HW1 8687  10.326  12.714   2.820
35618SOL    HW2 8688  10.296  12.769   2.683
35619SOL     OW 8689   9.047   1.200   7.722
35619SOL    HW1 8690   9.030   1.226   7.813
35619SOL    HW2 8691   9.036   1.281   7.671
35620SOL     OW 8692   2.403  13.198   2.292
35620SOL    HW1 8693   2.442  13.262   2.232
35620SOL    HW2 8694   2.457  13.120   2.283
35621SOL     OW 8695  12.727   9.010   8.769
35621SOL    HW1 8696  12.680   8.953   8.830
35621SOL    HW2 8697  12.700   9.099   8.794
35622SOL     OW 8698   3.832  11.839  14.393
35622SOL    HW1 8699   3.783  11.789  14.327
35622SOL    HW2 8700   3.915  11.793  14.401
35623SOL     OW 8701   1.763   6.904   5.251
35623SOL    HW1 8702   1.818   6.972   5.290
35623SOL    HW2 8703   1.761   6.925   5.157
35624SOL     OW 8704   2.220   7.582   2.908
35624SOL    HW1 8705   2.175   7.554   2.828
35624SOL    HW2 8706   2.300   7.530   2.909
35625SOL     OW 8707  10.674  10.294  14.516
35625SOL    HW1 8708  10.715  10.257  14.594
35625SOL    HW2 8709  10.582  10.306  14.540
35626SOL     OW 8710   6.436   6.250  13.354
35626SOL    HW1 8711   6.467   6.263  13.264
35626SOL    HW2 8712   6.516   6.242  13.406
35627SOL     OW 8713  13.171  14.803   0.489
35627SOL    HW1 8714  13.180  14.814   0.395
35627SOL    HW2 8715  13.078  14.780   0.502
35628SOL     OW 8716   1.526  14.268   0.712
35628SOL    HW1 8717   1.586  14.207   0.668
35628SOL    HW2 8718   1.549  14.354   0.677
35629SOL     OW 8719  10.558   8.248   5.852
35629SOL    HW1 8720  10.584   8.327   5.803
35629SOL    HW2 8721  10.611   8.251   5.932
35630SOL     OW 8722  13.498   2.848  12.302
35630SOL    HW1 8723  13.439   2.796  12.355
35630SOL    HW2 8724  13.530   2.916  12.361
35631SOL     OW 8725   1.079   8.553   9.168
35631SOL    HW1 8726   1.028   8.619   9.122
35631SOL    HW2 8727   1.163   8.595   9.186
35632SOL     OW 8728   5.135  11.149  13.714
35632SOL    HW1 8729   5.126  11.229  13.662
35632SOL    HW2 8730   5.168  11.083  13.653
35633SOL     OW 8731   2.456  11.867  14.517
35633SOL    HW1 8732   2.500  11.784  14.497
35633SOL    HW2 8733   2.437  11.862  14.611
35634SOL     OW 8734   0.139   7.625   8.996
35634SOL    HW1 8735   0.045   7.614   9.012
35634SOL    HW2 8736   0.150   7.602   8.904
35635SOL     OW 8737   5.900  14.434   8.835
35635SOL    HW1 8738   5.964  14.388   8.890
35635SOL    HW2 8739   5.847  14.365   8.797
35636SOL     OW 8740  11.910   6.241   2.116
35636SOL    HW1 8741  11.983   6.243   2.054
35636SOL    HW2 8742  11.950   6.257   2.201
35637SOL     OW 8743  13.597   9.651   4.643
35637SOL    HW1 8744  13.649   9.636   4.721
35637SOL    HW2 8745  13.514   9.606   4.660
35638SOL     OW 8746   3.736   4.955  14.190
35638SOL    HW1 8747   3.771   4.986  14.106
35638SOL    HW2 8748   3.666   4.894  14.166
35639SOL     OW 8749   9.309  13.463   0.111
35639SOL    HW1 8750   9.231  13.432   0.066
35639SOL    HW2 8751   9.282  13.474   0.202
35640SOL     OW 8752  13.218  11.365   1.483
35640SOL    HW1 8753  13.137  11.368   1.533
35640SOL    HW2 8754  13.259  11.282   1.509
35641SOL     OW 8755  14.165   0.011  11.196
35641SOL    HW1 8756  14.080  14.856  11.223
35641SOL    HW2 8757  14.167   0.100  11.231
35642SOL     OW 8758   2.774   4.131   9.022
35642SOL    HW1 8759   2.837   4.103   8.956
35642SOL    HW2 8760   2.801   4.220   9.045
35643SOL     OW 8761   6.628   5.026   2.737
35643SOL    HW1 8762   6.721   5.048   2.739
35643SOL    HW2 8763   6.590   5.087   2.674
35644SOL     OW 8764  14.436  11.338  11.833
35644SOL    HW1 8765  14.374  11.277  11.871
35644SOL    HW2 8766  14.500  11.283  11.787
35645SOL     OW 8767   9.747  10.268   4.613
35645SOL    HW1 8768   9.709  10.300   4.531
35645SOL    HW2 8769   9.674  10.231   4.661
35646SOL     OW 8770  14.173  13.225  11.802
35646SOL    HW1 8771  14.085  13.252  11.778
35646SOL    HW2 8772  14.167  13.129  11.811
35647SOL     OW 8773   9.009   2.320   9.208
35647SOL    HW1 8774   9.013   2.415   9.191
35647SOL    HW2 8775   8.934   2.311   9.268
35648SOL     OW 8776  12.413   7.513  14.280
35648SOL    HW1 8777  12.374   7.441  14.329
35648SOL    HW2 8778  12.338   7.563  14.247
35649SOL     OW 8779   9.573   8.499  13.916
35649SOL    HW1 8780   9.486   8.523  13.882
35649SOL    HW2 8781   9.594   8.569  13.978
35650SOL     OW 8782   1.665   6.076   4.678
35650SOL    HW1 8783   1.668   6.038   4.766
35650SOL    HW2 8784   1.640   6.003   4.622
35651SOL     OW 8785  12.074   3.252   3.309
35651SOL    HW1 8786  11.991   3.290   3.281
35651SOL    HW2 8787  12.052   3.161   3.331
35652SOL     OW 8788   0.287   7.414   2.926
35652SOL    HW1 8789   0.258   7.475   2.994
35652SOL    HW2 8790   0.216   7.412   2.862
35653SOL     OW 8791  14.319  12.438   6.521
35653SOL    HW1 8792  14.335  12.426   6.428
35653SOL    HW2 8793  14.263  12.365   6.546
35654SOL     OW 8794   8.660   9.292   7.747
35654SOL    HW1 8795   8.627   9.342   7.673
35654SOL    HW2 8796   8.655   9.201   7.718
35655SOL     OW 8797   9.258  14.417  14.505
35655SOL    HW1 8798   9.193  14.463  14.559
35655SOL    HW2 8799   9.274  14.335  14.551
35656SOL     OW 8800   7.658   4.846   4.916
35656SOL    HW1 8801   7.662   4.751   4.915
35656SOL    HW2 8802   7.694   4.871   5.001
35657SOL     OW 8803   9.622  10.497   1.052
35657SOL    HW1 8804   9.707  10.470   1.086
35657SOL    HW2 8805   9.561  10.429   1.083
35658SOL     OW 8806   9.138   7.181   1.089
35658SOL    HW1 8807   9.094   7.203   1.172
35658SOL    HW2 8808   9.215   7.132   1.116
35659SOL     OW 8809   0.021  10.754   6.180
35659SOL    HW1 8810   0.108  10.736   6.215
35659SOL    HW2 8811   0.005  10.846   6.200
35660SOL     OW 8812   9.007   1.025   9.948
35660SOL    HW1 8813   9.024   1.032  10.042
35660SOL    HW2 8814   8.921   0.982   9.942
35661SOL     OW 8815   5.944   4.499   7.254
35661SOL    HW1 8816   6.032   4.468   7.232
35661SOL    HW2 8817   5.890   4.419   7.255
35662SOL     OW 8818  13.654  14.241   4.711
35662SOL    HW1 8819  13.728  14.256   4.651
35662SOL    HW2 8820  13.694  14.206   4.790
35663SOL     OW 8821   7.262   9.155   3.002
35663SOL    HW1 8822   7.342   9.169   3.052
35663SOL    HW2 8823   7.239   9.242   2.969
35664SOL     OW 8824  11.485   1.128   0.725
35664SOL    HW1 8825  11.403   1.081   0.740
35664SOL    HW2 8826  11.522   1.086   0.647
35665SOL     OW 8827   8.364   6.944  13.391
35665SOL    HW1 8828   8.444   6.915  13.436
35665SOL    HW2 8829   8.340   7.025  13.435
35666SOL     OW 8830   3.649  10.129  10.158
35666SOL    HW1 8831   3.639  10.209  10.107
35666SOL    HW2 8832   3.679  10.063  10.094
35667SOL     OW 8833   5.706  13.728   7.038
35667SOL    HW1 8834   5.671  13.678   6.964
35667SOL    HW2 8835   5.639  13.720   7.106
35668SOL     OW 8836   7.417   0.280  14.505
35668SOL    HW1 8837   7.395   0.268  14.597
35668SOL    HW2 8838   7.384   0.368  14.484
35669SOL     OW 8839   4.043  10.347   3.562
35669SOL    HW1 8840   3.999  10.267   3.591
35669SOL    HW2 8841   4.024  10.411   3.631
35670SOL     OW 8842   9.431   5.818   3.749
35670SOL    HW1 8843   9.417   5.907   3.718
35670SOL    HW2 8844   9.353   5.798   3.801
35671SOL     OW 8845   6.903  10.925  11.509
35671SOL    HW1 8846   6.865  10.965  11.431
35671SOL    HW2 8847   6.828  10.890  11.558
35672SOL     OW 8848   2.122   5.046  11.140
35672SOL    HW1 8849   2.156   5.079  11.057
35672SOL    HW2 8850   2.120   5.123  11.198
35673SOL     OW 8851   9.798  10.312  12.384
35673SOL    HW1 8852   9.825  10.376  12.449
35673SOL    HW2 8853   9.703  10.305  12.395
35674SOL     OW 8854  13.866   1.542   7.186
35674SOL    HW1 8855  13.930   1.500   7.129
35674SOL    HW2 8856  13.889   1.513   7.274
35675SOL     OW 8857  10.346   6.901  11.521
35675SOL    HW1 8858  10.413   6.855  11.571
35675SOL    HW2 8859  10.362   6.876  11.430
35676SOL     OW 8860   2.645   5.974   9.206
35676SOL    HW1 8861   2.593   5.926   9.142
35676SOL    HW2 8862   2.652   5.915   9.281
35677SOL     OW 8863   3.881  12.613   3.054
35677SOL    HW1 8864   3.880  12.623   2.958
35677SOL    HW2 8865   3.822  12.539   3.070
35678SOL     OW 8866  11.317   3.764   0.215
35678SOL    HW1 8867  11.237   3.775   0.163
35678SOL    HW2 8868  11.301   3.684   0.266
35679SOL     OW 8869  12.469  10.460  11.164
35679SOL    HW1 8870  12.539  10.476  11.102
35679SOL    HW2 8871  12.493  10.511  11.242
35680SOL     OW 8872   0.210   0.144   8.498
35680SOL    HW1 8873   0.130   0.148   8.446
35680SOL    HW2 8874   0.252   0.063   8.471
35681SOL     OW 8875   7.882   4.835   3.701
35681SOL    HW1 8876   7.801   4.849   3.751
35681SOL    HW2 8877   7.853   4.834   3.610
35682SOL     OW 8878   6.264  14.872  13.465
35682SOL    HW1 8879   6.287   0.081  13.436
35682SOL    HW2 8880   6.171  14.877  13.487
35683SOL     OW 8881   3.524   7.781   1.822
35683SOL    HW1 8882   3.577   7.721   1.769
35683SOL    HW2 8883   3.585   7.851   1.847
35684SOL     OW 8884   2.450   7.953   2.010
35684SOL    HW1 8885   2.433   7.881   2.070
35684SOL    HW2 8886   2.402   8.027   2.048
35685SOL     OW 8887   7.935  12.097  12.697
35685SOL    HW1 8888   8.004  12.032  12.682
35685SOL    HW2 8889   7.868  12.049  12.746
35686SOL     OW 8890   1.222  11.322  12.270
35686SOL    HW1 8891   1.292  11.264  12.298
35686SOL    HW2 8892   1.266  11.390  12.218
35687SOL     OW 8893   8.342   8.897   1.348
35687SOL    HW1 8894   8.396   8.904   1.427
35687SOL    HW2 8895   8.389   8.948   1.282
35688SOL     OW 8896   9.669  14.484   1.828
35688SOL    HW1 8897   9.731  14.417   1.798
35688SOL    HW2 8898   9.621  14.508   1.749
35689SOL     OW 8899   0.203  14.636   0.966
35689SOL    HW1 8900   0.261  14.583   1.021
35689SOL    HW2 8901   0.137  14.574   0.934
35690SOL     OW 8902   2.247   3.260   0.600
35690SOL    HW1 8903   2.261   3.351   0.624
35690SOL    HW2 8904   2.244   3.213   0.684
35691SOL     OW 8905  11.203   0.872   0.169
35691SOL    HW1 8906  11.237   0.840   0.086
35691SOL    HW2 8907  11.222   0.802   0.231
35692SOL     OW 8908  14.411  13.490  14.369
35692SOL    HW1 8909  14.356  13.419  14.402
35692SOL    HW2 8910  14.436  13.461  14.281
35693SOL     OW 8911   3.387   9.774   9.984
35693SOL    HW1 8912   3.387   9.762  10.079
35693SOL    HW2 8913   3.319   9.840   9.968
35694SOL     OW 8914   4.748   3.262   7.674
35694SOL    HW1 8915   4.700   3.199   7.619
35694SOL    HW2 8916   4.694   3.340   7.674
35695SOL     OW 8917   9.699   2.758   6.697
35695SOL    HW1 8918   9.781   2.761   6.746
35695SOL    HW2 8919   9.708   2.682   6.639
35696SOL     OW 8920   8.046   1.782   5.106
35696SOL    HW1 8921   8.128   1.738   5.083
35696SOL    HW2 8922   8.017   1.739   5.187
35697SOL     OW 8923   5.311   0.073   8.920
35697SOL    HW1 8924   5.357   0.023   8.853
35697SOL    HW2 8925   5.233   0.021   8.940
35698SOL     OW 8926   1.949   0.754   4.583
35698SOL    HW1 8927   1.887   0.805   4.530
35698SOL    HW2 8928   2.004   0.820   4.626
35699SOL     OW 8929   2.735   7.854   4.932
35699SOL    HW1 8930   2.690   7.774   4.957
35699SOL    HW2 8931   2.762   7.893   5.016
35700SOL     OW 8932  10.861   0.908  10.530
35700SOL    HW1 8933  10.875   0.938  10.620
35700SOL    HW2 8934  10.918   0.831  10.520
35701SOL     OW 8935   5.908   2.439  10.974
35701SOL    HW1 8936   5.832   2.496  10.991
35701SOL    HW2 8937   5.951   2.431  11.059
35702SOL     OW 8938   5.211   0.965   6.321
35702SOL    HW1 8939   5.253   0.884   6.295
35702SOL    HW2 8940   5.164   0.994   6.242
35703SOL     OW 8941   8.344   5.814   2.379
35703SOL    HW1 8942   8.407   5.765   2.432
35703SOL    HW2 8943   8.270   5.828   2.437
35704SOL     OW 8944   5.354   3.416   9.538
35704SOL    HW1 8945   5.290   3.375   9.597
35704SOL    HW2 8946   5.409   3.470   9.594
35705SOL     OW 8947   0.243  12.589  13.903
35705SOL    HW1 8948   0.324  12.577  13.854
35705SOL    HW2 8949   0.224  12.682  13.894
35706SOL     OW 8950   1.389   0.099  11.816
35706SOL    HW1 8951   1.344   0.158  11.756
35706SOL    HW2 8952   1.369   0.011  11.784
35707SOL     OW 8953  13.415   0.515  11.680
35707SOL    HW1 8954  13.490   0.513  11.620
35707SOL    HW2 8955  13.364   0.590  11.652
35708SOL     OW 8956   0.226   2.673  11.406
35708SOL    HW1 8957   0.302   2.635  11.452
35708SOL    HW2 8958   0.249   2.668  11.313
35709SOL     OW 8959   5.734   3.666   9.877
35709SOL    HW1 8960   5.678   3.642   9.951
35709SOL    HW2 8961   5.775   3.749   9.904
35710SOL     OW 8962   4.168   6.218   3.396
35710SOL    HW1 8963   4.139   6.156   3.330
35710SOL    HW2 8964   4.113   6.295   3.381
35711SOL     OW 8965  14.090  14.240   9.714
35711SOL    HW1 8966  14.074  14.196   9.797
35711SOL    HW2 8967  14.119  14.328   9.739
35712SOL     OW 8968   5.178   6.332   5.134
35712SOL    HW1 8969   5.102   6.323   5.192
35712SOL    HW2 8970   5.220   6.413   5.162
35713SOL     OW 8971   3.766  12.543  11.506
35713SOL    HW1 8972   3.708  12.615  11.480
35713SOL    HW2 8973   3.754  12.537  11.601
35714SOL     OW 8974   1.242   1.147   8.222
35714SOL    HW1 8975   1.226   1.158   8.128
35714SOL    HW2 8976   1.279   1.231   8.250
35715SOL     OW 8977   5.516   1.919   3.132
35715SOL    HW1 8978   5.455   1.984   3.099
35715SOL    HW2 8979   5.492   1.838   3.087
35716SOL     OW 8980  10.120   5.118   3.020
35716SOL    HW1 8981  10.072   5.189   2.977
35716SOL    HW2 8982  10.061   5.087   3.088
35717SOL     OW 8983   2.997  12.283   5.530
35717SOL    HW1 8984   2.919  12.337   5.540
35717SOL    HW2 8985   3.026  12.266   5.620
35718SOL     OW 8986   0.268   0.672   9.599
35718SOL    HW1 8987   0.345   0.624   9.569
35718SOL    HW2 8988   0.296   0.714   9.680
35719SOL     OW 8989   6.373   8.838  12.753
35719SOL    HW1 8990   6.310   8.892  12.801
35719SOL    HW2 8991   6.423   8.899  12.700
35720SOL     OW 8992   2.589   1.969   8.581
35720SOL    HW1 8993   2.683   1.958   8.598
35720SOL    HW2 8994   2.580   1.949   8.488
35721SOL     OW 8995  10.425  12.873   3.408
35721SOL    HW1 8996  10.388  12.895   3.493
35721SOL    HW2 8997  10.435  12.778   3.410
35722SOL     OW 8998   5.782   6.455  10.963
35722SOL    HW1 8999   5.811   6.404  11.038
35722SOL    HW2 9000   5.755   6.539  11.000
35723SOL     OW 9001   8.056   1.548   9.420
35723SOL    HW1 9002   8.135   1.594   9.450
35723SOL    HW2 9003   8.053   1.469   9.474
35724SOL     OW 9004  14.229  12.077  13.544
35724SOL    HW1 9005  14.260  11.994  13.509
35724SOL    HW2 9006  14.144  12.056  13.583
35725SOL     OW 9007  14.829   7.747  14.549
35725SOL    HW1 9008  14.802   7.807  14.618
35725SOL    HW2 9009   0.044   7.732  14.564
35726SOL     OW 9010   1.885   1.125  13.412
35726SOL    HW1 9011   1.827   1.200  13.402
35726SOL    HW2 9012   1.910   1.127  13.505
35727SOL     OW 9013  13.448   9.701   9.275
35727SOL    HW1 9014  13.448   9.746   9.190
35727SOL    HW2 9015  13.482   9.614   9.256
35728SOL     OW 9016   4.349   8.756   9.558
35728SOL    HW1 9017   4.291   8.715   9.621
35728SOL    HW2 9018   4.308   8.741   9.473
35729SOL     OW 9019   6.202  13.259   6.165
35729SOL    HW1 9020   6.141  13.303   6.105
35729SOL    HW2 9021   6.179  13.166   6.160
35730SOL     OW 9022   6.039   8.245   0.703
35730SOL    HW1 9023   6.069   8.182   0.769
35730SOL    HW2 9024   6.047   8.330   0.746
35731SOL     OW 9025   7.657   8.648  10.417
35731SOL    HW1 9026   7.702   8.733  10.418
35731SOL    HW2 9027   7.718   8.588  10.460
35732SOL     OW 9028  13.097   4.370   3.100
35732SOL    HW1 9029  13.151   4.327   3.034
35732SOL    HW2 9030  13.008   4.363   3.067
35733SOL     OW 9031   3.483   1.497  13.542
35733SOL    HW1 9032   3.396   1.460  13.556
35733SOL    HW2 9033   3.468   1.591  13.531
35734SOL     OW 9034  11.630   2.557   4.520
35734SOL    HW1 9035  11.644   2.615   4.595
35734SOL    HW2 9036  11.703   2.575   4.461
35735SOL     OW 9037   0.284   3.898   6.558
35735SOL    HW1 9038   0.370   3.939   6.564
35735SOL    HW2 9039   0.269   3.859   6.644
35736SOL     OW 9040  10.042   2.248   7.757
35736SOL    HW1 9041   9.948   2.229   7.750
35736SOL    HW2 9042  10.052   2.333   7.713
35737SOL     OW 9043   1.221  12.888   3.331
35737SOL    HW1 9044   1.302  12.865   3.375
35737SOL    HW2 9045   1.248  12.936   3.253
35738SOL     OW 9046   1.200   3.014  13.963
35738SOL    HW1 9047   1.268   2.950  13.987
35738SOL    HW2 9048   1.238   3.098  13.988
35739SOL     OW 9049   9.786   8.620  11.003
35739SOL    HW1 9050   9.836   8.538  11.001
35739SOL    HW2 9051   9.839   8.682  10.953
35740SOL     OW 9052  12.309  12.965   5.944
35740SOL    HW1 9053  12.391  13.004   5.974
35740SOL    HW2 9054  12.325  12.871   5.945
35741SOL     OW 9055   6.839   3.611  12.038
35741SOL    HW1 9056   6.890   3.685  12.070
35741SOL    HW2 9057   6.836   3.550  12.113
35742SOL     OW 9058  12.116   6.059  10.198
35742SOL    HW1 9059  12.163   5.977  10.184
35742SOL    HW2 9060  12.055   6.040  10.269
35743SOL     OW 9061   7.582   7.729   2.356
35743SOL    HW1 9062   7.518   7.799   2.342
35743SOL    HW2 9063   7.547   7.654   2.307
35744SOL     OW 9064  12.228   2.473   1.505
35744SOL    HW1 9065  12.286   2.491   1.578
35744SOL    HW2 9066  12.163   2.543   1.508
35745SOL     OW 9067  10.978  14.340   7.217
35745SOL    HW1 9068  11.015  14.288   7.146
35745SOL    HW2 9069  10.885  14.350   7.193
35746SOL     OW 9070   3.341   2.406  12.051
35746SOL    HW1 9071   3.344   2.313  12.075
35746SOL    HW2 9072   3.328   2.406  11.956
35747SOL     OW 9073   6.996   7.810  14.759
35747SOL    HW1 9074   7.027   7.759  14.834
35747SOL    HW2 9075   7.028   7.763  14.683
35748SOL     OW 9076   6.149  12.828   6.604
35748SOL    HW1 9077   6.086  12.899   6.600
35748SOL    HW2 9078   6.149  12.801   6.696
35749SOL     OW 9079  13.697  10.209   0.652
35749SOL    HW1 9080  13.625  10.169   0.604
35749SOL    HW2 9081  13.707  10.154   0.730
35750SOL     OW 9082   8.496   6.062   4.211
35750SOL    HW1 9083   8.543   5.980   4.227
35750SOL    HW2 9084   8.564   6.129   4.212
35751SOL     OW 9085  14.317   2.876  13.463
35751SOL    HW1 9086  14.275   2.959  13.484
35751SOL    HW2 9087  14.247   2.811  13.467
35752SOL     OW 9088   3.898  14.542   8.732
35752SOL    HW1 9089   3.840  14.507   8.664
35752SOL    HW2 9090   3.978  14.567   8.686
35753SOL     OW 9091   0.665   9.166   6.692
35753SOL    HW1 9092   0.758   9.165   6.668
35753SOL    HW2 9093   0.640   9.258   6.688
35754SOL     OW 9094   0.244   3.137   6.499
35754SOL    HW1 9095   0.164   3.089   6.523
35754SOL    HW2 9096   0.314   3.073   6.509
35755SOL     OW 9097   4.748  14.078   4.483
35755SOL    HW1 9098   4.809  14.089   4.411
35755SOL    HW2 9099   4.667  14.049   4.441
35756SOL     OW 9100  10.851  13.242   4.152
35756SOL    HW1 9101  10.840  13.298   4.229
35756SOL    HW2 9102  10.840  13.302   4.078
35757SOL     OW 9103   3.785  12.814  13.812
35757SOL    HW1 9104   3.810  12.853  13.728
35757SOL    HW2 9105   3.841  12.857  13.876
35758SOL     OW 9106   1.740  13.389   9.474
35758SOL    HW1 9107   1.680  13.461   9.492
35758SOL    HW2 9108   1.805  13.394   9.544
35759SOL     OW 9109   7.041   3.224   3.074
35759SOL    HW1 9110   7.047   3.167   3.151
35759SOL    HW2 9111   7.019   3.165   3.002
35760SOL     OW 9112   8.737   1.389   6.378
35760SOL    HW1 9113   8.746   1.322   6.445
35760SOL    HW2 9114   8.826   1.404   6.346
35761SOL     OW 9115  11.763   3.333   3.306
35761SOL    HW1 9116  11.699   3.395   3.269
35761SOL    HW2 9117  11.759   3.258   3.247
35762SOL     OW 9118   5.837   4.764   7.297
35762SOL    HW1 9119   5.803   4.806   7.218
35762SOL    HW2 9120   5.866   4.677   7.267
35763SOL     OW 9121  13.357   4.347   5.645
35763SOL    HW1 9122  13.361   4.427   5.696
35763SOL    HW2 9123  13.275   4.305   5.671
35764SOL     OW 9124  14.091   7.440   4.554
35764SOL    HW1 9125  14.043   7.426   4.636
35764SOL    HW2 9126  14.057   7.522   4.520
35765SOL     OW 9127   7.129  14.184  12.752
35765SOL    HW1 9128   7.198  14.136  12.707
35765SOL    HW2 9129   7.101  14.125  12.822
35766SOL     OW 9130   4.481   8.328   6.769
35766SOL    HW1 9131   4.536   8.261   6.729
35766SOL    HW2 9132   4.543   8.394   6.800
35767SOL     OW 9133   0.329   2.880   4.218
35767SOL    HW1 9134   0.368   2.894   4.304
35767SOL    HW2 9135   0.307   2.787   4.216
35768SOL     OW 9136   4.087  14.364  13.995
35768SOL    HW1 9137   4.060  14.453  13.973
35768SOL    HW2 9138   4.176  14.374  14.030
35769SOL     OW 9139  13.875   4.800  13.611
35769SOL    HW1 9140  13.961   4.834  13.636
35769SOL    HW2 9141  13.844   4.754  13.688
35770SOL     OW 9142   1.868  12.675  12.725
35770SOL    HW1 9143   1.875  12.641  12.636
35770SOL    HW2 9144   1.805  12.617  12.768
35771SOL     OW 9145  14.008   7.250   7.244
35771SOL    HW1 9146  13.972   7.178   7.296
35771SOL    HW2 9147  13.936   7.313   7.238
35772SOL     OW 9148  13.269   2.725   5.973
35772SOL    HW1 9149  13.327   2.733   6.049
35772SOL    HW2 9150  13.214   2.649   5.993
35773SOL     OW 9151  13.119   9.563  14.794
35773SOL    HW1 9152  13.056   9.543  14.863
35773SOL    HW2 9153  13.070   9.615  14.731
35774SOL     OW 9154   8.033   8.964   3.518
35774SOL    HW1 9155   8.108   8.944   3.461
35774SOL    HW2 9156   7.995   8.878   3.538
35775SOL     OW 9157   7.115   5.000  11.468
35775SOL    HW1 9158   7.160   5.083  11.452
35775SOL    HW2 9159   7.185   4.935  11.474
35776SOL     OW 9160  13.698  12.273  14.853
35776SOL    HW1 9161  13.684  12.246  14.762
35776SOL    HW2 9162  13.743  12.357  14.846
35777SOL     OW 9163   9.366  13.017   9.324
35777SOL    HW1 9164   9.356  13.111   9.340
35777SOL    HW2 9165   9.340  13.005   9.233
35778SOL     OW 9166   8.985   0.480  11.986
35778SOL    HW1 9167   8.925   0.434  11.928
35778SOL    HW2 9168   8.930   0.541  12.034
35779SOL     OW 9169   4.399   9.405   2.283
35779SOL    HW1 9170   4.411   9.358   2.200
35779SOL    HW2 9171   4.427   9.495   2.264
35780SOL     OW 9172  10.633   3.464  14.139
35780SOL    HW1 9173  10.701   3.507  14.191
35780SOL    HW2 9174  10.681   3.413  14.074
35781SOL     OW 9175   9.492   0.881   6.922
35781SOL    HW1 9176   9.567   0.935   6.897
35781SOL    HW2 9177   9.527   0.821   6.988
35782SOL     OW 9178   4.148   7.421  11.095
35782SOL    HW1 9179   4.238   7.396  11.074
35782SOL    HW2 9180   4.114   7.460  11.014
35783SOL     OW 9181  13.468   9.763   3.136
35783SOL    HW1 9182  13.501   9.843   3.095
35783SOL    HW2 9183  13.384   9.747   3.093
35784SOL     OW 9184  14.160   4.946   2.630
35784SOL    HW1 9185  14.185   4.997   2.553
35784SOL    HW2 9186  14.200   4.860   2.615
35785SOL     OW 9187   2.288  11.531  11.545
35785SOL    HW1 9188   2.286  11.621  11.579
35785SOL    HW2 9189   2.366  11.528  11.490
35786SOL     OW 9190   0.347   2.401   2.530
35786SOL    HW1 9191   0.414   2.379   2.466
35786SOL    HW2 9192   0.319   2.316   2.565
35787SOL     OW 9193  14.248  12.007   4.154
35787SOL    HW1 9194  14.166  12.012   4.203
35787SOL    HW2 9195  14.316  12.012   4.221
35788SOL     OW 9196   5.354  12.216  13.136
35788SOL    HW1 9197   5.308  12.152  13.082
35788SOL    HW2 9198   5.446  12.194  13.126
35789SOL     OW 9199   1.769   6.739   6.950
35789SOL    HW1 9200   1.845   6.728   6.892
35789SOL    HW2 9201   1.804   6.779   7.029
35790SOL     OW 9202   0.468  10.572  13.214
35790SOL    HW1 9203   0.522  10.603  13.142
35790SOL    HW2 9204   0.387  10.543  13.172
35791SOL     OW 9205   0.715   7.212  11.098
35791SOL    HW1 9206   0.673   7.298  11.109
35791SOL    HW2 9207   0.750   7.214  11.009
35792SOL     OW 9208   5.218   7.531   2.417
35792SOL    HW1 9209   5.222   7.609   2.472
35792SOL    HW2 9210   5.308   7.497   2.417
35793SOL     OW 9211   6.600   5.048  14.780
35793SOL    HW1 9212   6.656   5.119  14.749
35793SOL    HW2 9213   6.536   5.036  14.710
35794SOL     OW 9214   3.756   0.880   4.296
35794SOL    HW1 9215   3.790   0.923   4.217
35794SOL    HW2 9216   3.777   0.940   4.367
35795SOL     OW 9217  13.368  11.962   2.898
35795SOL    HW1 9218  13.315  11.897   2.852
35795SOL    HW2 9219  13.317  11.985   2.976
35796SOL     OW 9220  14.022  13.902  12.236
35796SOL    HW1 9221  14.007  13.833  12.171
35796SOL    HW2 9222  13.965  13.973  12.210
35797SOL     OW 9223  11.029   4.041  11.259
35797SOL    HW1 9224  11.046   4.022  11.167
35797SOL    HW2 9225  10.935   4.060  11.262
35798SOL     OW 9226   7.339  10.019  12.046
35798SOL    HW1 9227   7.392  10.093  12.075
35798SOL    HW2 9228   7.352   9.952  12.113
35799SOL     OW 9229   0.486  10.968   9.205
35799SOL    HW1 9230   0.559  10.975   9.266
35799SOL    HW2 9231   0.408  10.969   9.260
35800SOL     OW 9232  12.511   3.210  11.199
35800SOL    HW1 9233  12.570   3.281  11.174
35800SOL    HW2 9234  12.511   3.211  11.295
35801SOL     OW 9235  13.612   7.044  12.239
35801SOL    HW1 9236  13.555   7.000  12.176
35801SOL    HW2 9237  13.673   6.975  12.267
35802SOL     OW 9238   9.434   4.807  11.885
35802SOL    HW1 9239   9.396   4.839  11.802
35802SOL    HW2 9240   9.521   4.775  11.861
35803SOL     OW 9241   7.809   1.212  10.711
35803SOL    HW1 9242   7.804   1.299  10.672
35803SOL    HW2 9243   7.850   1.158  10.644
35804SOL     OW 9244  12.417   3.122  10.962
35804SOL    HW1 9245  12.484   3.144  10.898
35804SOL    HW2 9246  12.454   3.146  11.046
35805SOL     OW 9247   7.259   6.023   0.863
35805SOL    HW1 9248   7.314   6.051   0.790
35805SOL    HW2 9249   7.179   6.074   0.855
35806SOL     OW 9250  10.869   8.607   9.247
35806SOL    HW1 9251  10.778   8.586   9.227
35806SOL    HW2 9252  10.894   8.671   9.181
35807SOL     OW 9253   8.547   0.850   3.645
35807SOL    HW1 9254   8.459   0.875   3.673
35807SOL    HW2 9255   8.535   0.814   3.558
35808SOL     OW 9256  11.859   7.935  11.674
35808SOL    HW1 9257  11.872   7.903  11.763
35808SOL    HW2 9258  11.928   7.999  11.661
35809SOL     OW 9259   3.264   1.057   1.313
35809SOL    HW1 9260   3.224   1.038   1.228
35809SOL    HW2 9261   3.226   0.992   1.372
35810SOL     OW 9262   8.643   4.349  14.445
35810SOL    HW1 9263   8.672   4.342  14.536
35810SOL    HW2 9264   8.580   4.278  14.435
35811SOL     OW 9265   1.556  14.012   9.604
35811SOL    HW1 9266   1.622  14.058   9.657
35811SOL    HW2 9267   1.564  13.921   9.630
35812SOL     OW 9268  11.836  14.456   2.739
35812SOL    HW1 9269  11.782  14.488   2.812
35812SOL    HW2 9270  11.837  14.528   2.676
35813SOL     OW 9271  13.268   4.988   2.983
35813SOL    HW1 9272  13.335   4.944   2.931
35813SOL    HW2 9273  13.272   5.079   2.954
35814SOL     OW 9274   6.577  12.292   7.108
35814SOL    HW1 9275   6.538  12.264   7.025
35814SOL    HW2 9276   6.593  12.386   7.096
35815SOL     OW 9277   1.000   2.204  13.896
35815SOL    HW1 9278   1.083   2.157  13.884
35815SOL    HW2 9279   0.949   2.182  13.817
35816SOL     OW 9280   7.205   5.453   6.322
35816SOL    HW1 9281   7.164   5.434   6.406
35816SOL    HW2 9282   7.151   5.522   6.284
35817SOL     OW 9283   5.362  10.410   8.662
35817SOL    HW1 9284   5.435  10.425   8.602
35817SOL    HW2 9285   5.284  10.417   8.607
35818SOL     OW 9286   0.667   1.650   7.526
35818SOL    HW1 9287   0.592   1.600   7.493
35818SOL    HW2 9288   0.740   1.624   7.471
35819SOL     OW 9289  13.046   9.323   3.566
35819SOL    HW1 9290  13.033   9.365   3.652
35819SOL    HW2 9291  13.138   9.341   3.545
35820SOL     OW 9292   4.842   1.546   2.910
35820SOL    HW1 9293   4.871   1.617   2.967
35820SOL    HW2 9294   4.907   1.477   2.922
35821SOL     OW 9295   7.779   8.072  13.718
35821SOL    HW1 9296   7.685   8.088  13.727
35821SOL    HW2 9297   7.791   8.047  13.627
35822SOL     OW 9298   5.676   4.366   2.722
35822SOL    HW1 9299   5.595   4.415   2.721
35822SOL    HW2 9300   5.728   4.402   2.650
35823SOL     OW 9301   7.769   0.091  14.397
35823SOL    HW1 9302   7.841   0.079  14.460
35823SOL    HW2 9303   7.690   0.077  14.449
35824SOL     OW 9304   0.221   7.769   4.330
35824SOL    HW1 9305   0.298   7.807   4.372
35824SOL    HW2 9306   0.149   7.826   4.357
35825SOL     OW 9307   2.429   0.936   2.362
35825SOL    HW1 9308   2.452   0.910   2.273
35825SOL    HW2 9309   2.335   0.954   2.359
35826SOL     OW 9310   5.083   9.907   4.371
35826SOL    HW1 9311   5.134   9.852   4.431
35826SOL    HW2 9312   5.149   9.945   4.312
35827SOL     OW 9313   1.837   1.945  11.837
35827SOL    HW1 9314   1.857   1.921  11.928
35827SOL    HW2 9315   1.757   1.997  11.843
35828SOL     OW 9316  13.102  10.194  12.747
35828SOL    HW1 9317  13.114  10.277  12.795
35828SOL    HW2 9318  13.008  10.190  12.729
35829SOL     OW 9319   7.184   1.845   4.891
35829SOL    HW1 9320   7.229   1.845   4.976
35829SOL    HW2 9321   7.155   1.936   4.880
35830SOL     OW 9322  13.955   9.829   5.616
35830SOL    HW1 9323  13.959   9.734   5.605
35830SOL    HW2 9324  14.045   9.859   5.606
35831SOL     OW 9325   7.457   5.803   9.356
35831SOL    HW1 9326   7.518   5.812   9.429
35831SOL    HW2 9327   7.496   5.855   9.286
35832SOL     OW 9328   5.739   7.444  12.462
35832SOL    HW1 9329   5.827   7.408  12.448
35832SOL    HW2 9330   5.685   7.404  12.394
35833SOL     OW 9331   5.662   6.168   6.324
35833SOL    HW1 9332   5.698   6.144   6.239
35833SOL    HW2 9333   5.738   6.184   6.380
35834SOL     OW 9334  12.555   9.434   7.924
35834SOL    HW1 9335  12.469   9.476   7.933
35834SOL    HW2 9336  12.583   9.455   7.836
35835SOL     OW 9337   0.863  10.962   1.910
35835SOL    HW1 9338   0.862  10.903   1.835
35835SOL    HW2 9339   0.771  10.972   1.934
35836SOL     OW 9340  11.736   1.114  12.094
35836SOL    HW1 9341  11.758   1.161  12.013
35836SOL    HW2 9342  11.742   1.021  12.071
35837SOL     OW 9343   7.229   7.276   9.473
35837SOL    HW1 9344   7.182   7.198   9.443
35837SOL    HW2 9345   7.241   7.329   9.394
35838SOL     OW 9346  10.366   2.195   5.676
35838SOL    HW1 9347  10.334   2.105   5.673
35838SOL    HW2 9348  10.446   2.191   5.729
35839SOL     OW 9349   6.539  12.496   8.331
35839SOL    HW1 9350   6.532  12.576   8.384
35839SOL    HW2 9351   6.522  12.526   8.241
35840SOL     OW 9352   0.233   8.156  11.010
35840SOL    HW1 9353   0.178   8.183  11.084
35840SOL    HW2 9354   0.313   8.123  11.052
35841SOL     OW 9355  14.391  11.090   6.429
35841SOL    HW1 9356  14.418  11.055   6.344
35841SOL    HW2 9357  14.439  11.038   6.492
35842SOL     OW 9358  11.799  14.563  10.019
35842SOL    HW1 9359  11.817  14.618  10.095
35842SOL    HW2 9360  11.763  14.622   9.953
35843SOL     OW 9361  14.394  13.539   8.478
35843SOL    HW1 9362  14.390  13.454   8.435
35843SOL    HW2 9363  14.309  13.579   8.460
35844SOL     OW 9364   3.958   9.441   1.079
35844SOL    HW1 9365   3.896   9.388   1.029
35844SOL    HW2 9366   4.042   9.396   1.067
35845SOL     OW 9367   9.190   2.739   2.724
35845SOL    HW1 9368   9.213   2.649   2.749
35845SOL    HW2 9369   9.199   2.789   2.804
35846SOL     OW 9370  11.524   8.359   4.048
35846SOL    HW1 9371  11.529   8.391   3.957
35846SOL    HW2 9372  11.441   8.310   4.051
35847SOL     OW 9373   2.204   4.608  11.959
35847SOL    HW1 9374   2.271   4.622  11.893
35847SOL    HW2 9375   2.178   4.517  11.948
35848SOL     OW 9376   1.047   3.019   6.151
35848SOL    HW1 9377   0.978   3.058   6.096
35848SOL    HW2 9378   1.129   3.051   6.112
35849SOL     OW 9379   3.664   3.463   8.992
35849SOL    HW1 9380   3.631   3.533   8.936
35849SOL    HW2 9381   3.619   3.477   9.076
35850SOL     OW 9382   8.719   2.794   6.308
35850SOL    HW1 9383   8.630   2.826   6.324
35850SOL    HW2 9384   8.774   2.872   6.316
35851SOL     OW 9385   4.403   3.193   0.543
35851SOL    HW1 9386   4.341   3.137   0.495
35851SOL    HW2 9387   4.359   3.212   0.625
35852SOL     OW 9388   7.425   3.246   1.581
35852SOL    HW1 9389   7.407   3.329   1.538
35852SOL    HW2 9390   7.351   3.190   1.556
35853SOL     OW 9391   3.051   9.957   0.617
35853SOL    HW1 9392   3.016  10.043   0.636
35853SOL    HW2 9393   2.988   9.919   0.555
35854SOL     OW 9394  12.007   1.516  10.712
35854SOL    HW1 9395  12.087   1.543  10.665
35854SOL    HW2 9396  11.949   1.592  10.704
35855SOL     OW 9397   4.575   0.124  14.490
35855SOL    HW1 9398   4.668   0.129  14.514
35855SOL    HW2 9399   4.533   0.192  14.543
35856SOL     OW 9400   8.177   1.938   9.135
35856SOL    HW1 9401   8.154   2.029   9.115
35856SOL    HW2 9402   8.250   1.918   9.077
35857SOL     OW 9403   8.904  12.582   2.427
35857SOL    HW1 9404   8.980  12.535   2.392
35857SOL    HW2 9405   8.938  12.628   2.503
35858SOL     OW 9406   9.224   8.661   6.066
35858SOL    HW1 9407   9.155   8.727   6.065
35858SOL    HW2 9408   9.259   8.664   6.155
35859SOL     OW 9409   0.541   7.411   5.465
35859SOL    HW1 9410   0.601   7.444   5.532
35859SOL    HW2 9411   0.598   7.364   5.403
35860SOL     OW 9412   9.394  10.171  10.699
35860SOL    HW1 9413   9.474  10.202  10.742
35860SOL    HW2 9414   9.332  10.159  10.770
35861SOL     OW 9415   0.487   3.299   0.682
35861SOL    HW1 9416   0.474   3.390   0.654
35861SOL    HW2 9417   0.400   3.269   0.709
35862SOL     OW 9418   0.251   2.151   8.948
35862SOL    HW1 9419   0.235   2.220   8.884
35862SOL    HW2 9420   0.339   2.119   8.928
35863SOL     OW 9421   7.850  12.474   7.069
35863SOL    HW1 9422   7.845  12.568   7.053
35863SOL    HW2 9423   7.794  12.436   7.001
35864SOL     OW 9424   9.602   2.393  13.020
35864SOL    HW1 9425   9.565   2.405  12.932
35864SOL    HW2 9426   9.697   2.389  13.005
35865SOL     OW 9427  10.186  14.656  11.885
35865SOL    HW1 9428  10.266  14.670  11.934
35865SOL    HW2 9429  10.148  14.743  11.874
35866SOL     OW 9430   7.838   6.249   1.609
35866SOL    HW1 9431   7.769   6.203   1.561
35866SOL    HW2 9432   7.888   6.295   1.541
35867SOL     OW 9433   7.797   3.577  14.378
35867SOL    HW1 9434   7.764   3.601  14.291
35867SOL    HW2 9435   7.719   3.548  14.426
35868SOL     OW 9436   0.623   5.326  13.782
35868SOL    HW1 9437   0.618   5.257  13.716
35868SOL    HW2 9438   0.616   5.280  13.865
35869SOL     OW 9439  12.500  12.145   9.647
35869SOL    HW1 9440  12.467  12.235   9.643
35869SOL    HW2 9441  12.499  12.123   9.740
35870SOL     OW 9442   5.766  12.100   6.728
35870SOL    HW1 9443   5.862  12.096   6.736
35870SOL    HW2 9444   5.744  12.189   6.756
35871SOL     OW 9445  10.118   7.902   7.658
35871SOL    HW1 9446  10.154   7.849   7.730
35871SOL    HW2 9447  10.029   7.870   7.647
35872SOL     OW 9448   7.382   9.662   8.893
35872SOL    HW1 9449   7.456   9.662   8.832
35872SOL    HW2 9450   7.379   9.572   8.927
35873SOL     OW 9451  11.469   3.470   9.720
35873SOL    HW1 9452  11.396   3.529   9.700
35873SOL    HW2 9453  11.428   3.398   9.769
35874SOL     OW 9454  11.885  14.531   5.862
35874SOL    HW1 9455  11.837  14.582   5.797
35874SOL    HW2 9456  11.889  14.588   5.939
35875SOL     OW 9457  12.400   3.651   6.566
35875SOL    HW1 9458  12.473   3.591   6.583
35875SOL    HW2 9459  12.436   3.738   6.582
35876SOL     OW 9460   5.527  12.619   1.605
35876SOL    HW1 9461   5.607  12.577   1.572
35876SOL    HW2 9462   5.553  12.656   1.690
35877SOL     OW 9463   9.954  14.070  12.939
35877SOL    HW1 9464   9.891  14.130  12.899
35877SOL    HW2 9465   9.970  14.107  13.026
35878SOL     OW 9466   6.276   4.683   9.779
35878SOL    HW1 9467   6.264   4.593   9.808
35878SOL    HW2 9468   6.191   4.710   9.746
35879SOL     OW 9469   0.402   3.417  12.915
35879SOL    HW1 9470   0.334   3.476  12.949
35879SOL    HW2 9471   0.393   3.338  12.969
35880SOL     OW 9472   7.884  11.956   7.932
35880SOL    HW1 9473   7.797  11.989   7.954
35880SOL    HW2 9474   7.935  12.035   7.914
35881SOL     OW 9475  14.787   9.099   2.074
35881SOL    HW1 9476  14.772   9.005   2.066
35881SOL    HW2 9477  14.730   9.138   2.008
35882SOL     OW 9478  14.289   3.802   7.393
35882SOL    HW1 9479  14.364   3.779   7.338
35882SOL    HW2 9480  14.312   3.771   7.480
35883SOL     OW 9481  10.565   3.754  14.323
35883SOL    HW1 9482  10.544   3.845  14.342
35883SOL    HW2 9483  10.628   3.759  14.251
35884SOL     OW 9484   9.335   2.321   8.493
35884SOL    HW1 9485   9.306   2.269   8.568
35884SOL    HW2 9486   9.426   2.344   8.515
35885SOL     OW 9487   3.712  14.733  12.467
35885SOL    HW1 9488   3.791  14.725  12.521
35885SOL    HW2 9489   3.712  14.825  12.439
35886SOL     OW 9490  14.176  12.248   9.989
35886SOL    HW1 9491  14.249  12.210  10.037
35886SOL    HW2 9492  14.146  12.320  10.045
35887SOL     OW 9493  12.087  11.053  11.769
35887SOL    HW1 9494  12.144  11.129  11.760
35887SOL    HW2 9495  12.000  11.086  11.746
35888SOL     OW 9496   3.990  11.251   4.699
35888SOL    HW1 9497   3.945  11.280   4.778
35888SOL    HW2 9498   4.069  11.208   4.731
35889SOL     OW 9499   3.261   7.111   9.388
35889SOL    HW1 9500   3.321   7.084   9.318
35889SOL    HW2 9501   3.178   7.129   9.343
35890SOL     OW 9502   7.389   5.998   7.873
35890SOL    HW1 9503   7.410   5.908   7.849
35890SOL    HW2 9504   7.474   6.042   7.882
35891SOL     OW 9505   7.419   0.281  12.810
35891SOL    HW1 9506   7.440   0.189  12.798
35891SOL    HW2 9507   7.412   0.316  12.721
35892SOL     OW 9508   8.322   5.891   8.792
35892SOL    HW1 9509   8.274   5.837   8.854
35892SOL    HW2 9510   8.412   5.858   8.796
35893SOL     OW 9511  13.036   8.803  14.682
35893SOL    HW1 9512  13.006   8.825  14.594
35893SOL    HW2 9513  13.070   8.885  14.717
35894SOL     OW 9514   9.067  10.189   1.255
35894SOL    HW1 9515   9.075  10.180   1.160
35894SOL    HW2 9516   8.974  10.203   1.270
35895SOL     OW 9517   9.640   5.719   3.594
35895SOL    HW1 9518   9.716   5.776   3.606
35895SOL    HW2 9519   9.566   5.772   3.625
35896SOL     OW 9520   7.348   8.913   7.218
35896SOL    HW1 9521   7.330   8.997   7.177
35896SOL    HW2 9522   7.424   8.879   7.170
35897SOL     OW 9523  13.053   4.988  10.572
35897SOL    HW1 9524  13.145   5.014  10.578
35897SOL    HW2 9525  13.055   4.895  10.551
35898SOL     OW 9526  13.765  11.640   0.312
35898SOL    HW1 9527  13.781  11.719   0.363
35898SOL    HW2 9528  13.852  11.605   0.294
35899SOL     OW 9529   7.865  14.060  10.803
35899SOL    HW1 9530   7.807  14.102  10.867
35899SOL    HW2 9531   7.855  13.967  10.820
35900SOL     OW 9532  12.064   8.964  12.543
35900SOL    HW1 9533  12.155   8.966  12.514
35900SOL    HW2 9534  12.036   8.874  12.530
35901SOL     OW 9535   7.929  12.526   0.259
35901SOL    HW1 9536   7.941  12.620   0.270
35901SOL    HW2 9537   8.010  12.488   0.292
35902SOL     OW 9538  10.083   3.575   2.410
35902SOL    HW1 9539  10.020   3.616   2.350
35902SOL    HW2 9540  10.032   3.507   2.454
35903SOL     OW 9541   5.618   0.419   8.280
35903SOL    HW1 9542   5.541   0.448   8.230
35903SOL    HW2 9543   5.663   0.360   8.220
35904SOL     OW 9544   9.485   4.323   7.044
35904SOL    HW1 9545   9.502   4.232   7.070
35904SOL    HW2 9546   9.390   4.332   7.048
35905SOL     OW 9547   4.447  11.931   1.925
35905SOL    HW1 9548   4.368  11.983   1.909
35905SOL    HW2 9549   4.439  11.904   2.016
35906SOL     OW 9550  12.886  14.631  12.491
35906SOL    HW1 9551  12.933  14.564  12.441
35906SOL    HW2 9552  12.794  14.609  12.480
35907SOL     OW 9553   2.470   4.759   6.937
35907SOL    HW1 9554   2.534   4.732   6.871
35907SOL    HW2 9555   2.508   4.836   6.978
35908SOL     OW 9556   3.077  12.388  12.255
35908SOL    HW1 9557   3.110  12.301  12.278
35908SOL    HW2 9558   3.124  12.411  12.174
35909SOL     OW 9559   1.033   5.324   0.979
35909SOL    HW1 9560   0.993   5.238   0.992
35909SOL    HW2 9561   1.126   5.305   0.966
35910SOL     OW 9562   8.755  10.871   0.634
35910SOL    HW1 9563   8.747  10.780   0.662
35910SOL    HW2 9564   8.849  10.886   0.628
35911SOL     OW 9565   6.631  10.772   6.303
35911SOL    HW1 9566   6.653  10.780   6.210
35911SOL    HW2 9567   6.706  10.728   6.342
35912SOL     OW 9568   4.475  13.672  12.589
35912SOL    HW1 9569   4.427  13.591  12.569
35912SOL    HW2 9570   4.533  13.684  12.514
35913SOL     OW 9571  14.144   7.428   9.117
35913SOL    HW1 9572  14.096   7.511   9.118
35913SOL    HW2 9573  14.196   7.432   9.037
35914SOL     OW 9574   4.061   1.732   6.112
35914SOL    HW1 9575   4.154   1.750   6.098
35914SOL    HW2 9576   4.054   1.637   6.106
35915SOL     OW 9577   7.945   1.404   2.097
35915SOL    HW1 9578   7.889   1.333   2.065
35915SOL    HW2 9579   7.970   1.378   2.185
35916SOL     OW 9580   4.530   7.015   3.158
35916SOL    HW1 9581   4.579   6.964   3.222
35916SOL    HW2 9582   4.449   7.039   3.204
35917SOL     OW 9583   2.430   9.774   4.376
35917SOL    HW1 9584   2.436   9.749   4.468
35917SOL    HW2 9585   2.425   9.691   4.328
35918SOL     OW 9586   1.147  10.024   9.042
35918SOL    HW1 9587   1.196   9.948   9.011
35918SOL    HW2 9588   1.198  10.100   9.013
35919SOL     OW 9589   9.155  10.022  11.307
35919SOL    HW1 9590   9.093  10.069  11.362
35919SOL    HW2 9591   9.102   9.962  11.255
35920SOL     OW 9592  14.046  14.037   2.996
35920SOL    HW1 9593  14.132  13.996   3.004
35920SOL    HW2 9594  13.998  14.008   3.074
35921SOL     OW 9595  14.814   5.464   7.045
35921SOL    HW1 9596  14.732   5.507   7.022
35921SOL    HW2 9597  14.848   5.512   7.120
35922SOL     OW 9598   1.605  13.421   0.369
35922SOL    HW1 9599   1.521  13.403   0.413
35922SOL    HW2 9600   1.638  13.334   0.344
35923SOL     OW 9601  13.785   7.216  13.846
35923SOL    HW1 9602  13.822   7.280  13.906
35923SOL    HW2 9603  13.829   7.134  13.868
35924SOL     OW 9604  11.500  11.744   2.332
35924SOL    HW1 9605  11.543  11.690   2.266
35924SOL    HW2 9606  11.436  11.686   2.374
35925SOL     OW 9607   7.639   4.921   7.592
35925SOL    HW1 9608   7.662   4.838   7.634
35925SOL    HW2 9609   7.714   4.978   7.607
35926SOL     OW 9610   0.368  12.829   3.785
35926SOL    HW1 9611   0.366  12.913   3.831
35926SOL    HW2 9612   0.280  12.818   3.750
35927SOL     OW 9613   6.608  14.422   4.730
35927SOL    HW1 9614   6.654  14.352   4.777
35927SOL    HW2 9615   6.639  14.416   4.640
35928SOL     OW 9616   4.113   8.587  14.762
35928SOL    HW1 9617   4.194   8.558  14.804
35928SOL    HW2 9618   4.106   8.679  14.784
35929SOL     OW 9619   0.631   7.700   0.395
35929SOL    HW1 9620   0.583   7.759   0.454
35929SOL    HW2 9621   0.573   7.689   0.320
35930SOL     OW 9622   6.020  12.943   1.658
35930SOL    HW1 9623   5.993  12.931   1.749
35930SOL    HW2 9624   6.101  12.995   1.665
35931SOL     OW 9625  11.330   4.360   4.035
35931SOL    HW1 9626  11.296   4.310   3.960
35931SOL    HW2 9627  11.425   4.354   4.026
35932SOL     OW 9628  11.047   6.746  13.036
35932SOL    HW1 9629  10.988   6.750  12.961
35932SOL    HW2 9630  11.089   6.661  13.029
35933SOL     OW 9631   2.822   7.574   6.677
35933SOL    HW1 9632   2.872   7.519   6.738
35933SOL    HW2 9633   2.860   7.661   6.687
35934SOL     OW 9634   3.638   9.708  10.150
35934SOL    HW1 9635   3.549   9.713  10.187
35934SOL    HW2 9636   3.643   9.782  10.090
35935SOL     OW 9637   5.141  13.497  13.044
35935SOL    HW1 9638   5.077  13.530  13.108
35935SOL    HW2 9639   5.101  13.517  12.959
35936SOL     OW 9640   6.115   2.827   0.196
35936SOL    HW1 9641   6.103   2.786   0.282
35936SOL    HW2 9642   6.130   2.753   0.136
35937SOL     OW 9643   9.495  14.269   5.447
35937SOL    HW1 9644   9.587  14.294   5.452
35937SOL    HW2 9645   9.456  14.330   5.384
35938SOL     OW 9646   4.675   1.083   3.906
35938SOL    HW1 9647   4.601   1.135   3.876
35938SOL    HW2 9648   4.714   1.136   3.975
35939SOL     OW 9649   0.412   7.437  12.089
35939SOL    HW1 9650   0.468   7.515  12.095
35939SOL    HW2 9651   0.473   7.364  12.083
35940SOL     OW 9652   0.359  14.552   5.445
35940SOL    HW1 9653   0.352  14.476   5.388
35940SOL    HW2 9654   0.273  14.560   5.486
35941SOL     OW 9655   6.399   3.401   7.071
35941SOL    HW1 9656   6.442   3.442   7.146
35941SOL    HW2 9657   6.305   3.407   7.091
35942SOL     OW 9658  10.748  13.645   9.306
35942SOL    HW1 9659  10.817  13.647   9.240
35942SOL    HW2 9660  10.673  13.687   9.264
35943SOL     OW 9661  12.843   7.397  11.693
35943SOL    HW1 9662  12.793   7.315  11.691
35943SOL    HW2 9663  12.832   7.429  11.782
35944SOL     OW 9664  11.130  11.698  11.014
35944SOL    HW1 9665  11.089  11.667  10.934
35944SOL    HW2 9666  11.141  11.792  11.001
35945SOL     OW 9667   9.267  10.836  14.033
35945SOL    HW1 9668   9.196  10.895  14.058
35945SOL    HW2 9669   9.256  10.759  14.090
35946SOL     OW 9670   8.055   2.365   8.898
35946SOL    HW1 9671   8.141   2.402   8.878
35946SOL    HW2 9672   8.007   2.370   8.815
35947SOL     OW 9673   1.826   1.342  11.732
35947SOL    HW1 9674   1.909   1.344  11.684
35947SOL    HW2 9675   1.765   1.391  11.677
35948SOL     OW 9676   8.203   7.424  13.454
35948SOL    HW1 9677   8.207   7.423  13.358
35948SOL    HW2 9678   8.109   7.427  13.473
35949SOL     OW 9679   5.176  11.274   7.064
35949SOL    HW1 9680   5.193  11.246   6.974
35949SOL    HW2 9681   5.112  11.345   7.055
35950SOL     OW 9682   9.453  10.988  14.837
35950SOL    HW1 9683   9.409  11.008   0.041
35950SOL    HW2 9684   9.382  10.960  14.779
35951SOL     OW 9685  13.828   8.570   7.725
35951SOL    HW1 9686  13.915   8.553   7.687
35951SOL    HW2 9687  13.768   8.516   7.672
35952SOL     OW 9688   6.750  10.907  14.414
35952SOL    HW1 9689   6.757  10.848  14.489
35952SOL    HW2 9690   6.806  10.869  14.347
35953SOL     OW 9691   3.500   8.515   7.198
35953SOL    HW1 9692   3.471   8.424   7.190
35953SOL    HW2 9693   3.566   8.525   7.129
35954SOL     OW 9694   8.757   6.766   3.938
35954SOL    HW1 9695   8.828   6.810   3.984
35954SOL    HW2 9696   8.781   6.673   3.940
35955SOL     OW 9697   0.987   5.256   9.256
35955SOL    HW1 9698   1.071   5.212   9.238
35955SOL    HW2 9699   1.011   5.331   9.309
35956SOL     OW 9700  13.058   4.841  14.601
35956SOL    HW1 9701  13.074   4.845  14.507
35956SOL    HW2 9702  12.988   4.776  14.611
35957SOL     OW 9703   1.405  10.831   3.997
35957SOL    HW1 9704   1.490  10.875   4.007
35957SOL    HW2 9705   1.346  10.898   3.963
35958SOL     OW 9706   2.836  10.962   1.780
35958SOL    HW1 9707   2.904  11.026   1.762
35958SOL    HW2 9708   2.787  10.955   1.698
35959SOL     OW 9709  11.831  11.580   7.235
35959SOL    HW1 9710  11.786  11.664   7.248
35959SOL    HW2 9711  11.905  11.583   7.295
35960SOL     OW 9712  12.555   6.664   3.379
35960SOL    HW1 9713  12.637   6.706   3.354
35960SOL    HW2 9714  12.531   6.612   3.302
35961SOL     OW 9715  11.138  13.126   3.218
35961SOL    HW1 9716  11.104  13.081   3.140
35961SOL    HW2 9717  11.060  13.153   3.266
35962SOL     OW 9718  11.873   2.565   4.740
35962SOL    HW1 9719  11.847   2.482   4.702
35962SOL    HW2 9720  11.968   2.556   4.754
35963SOL     OW 9721   7.588   7.619   3.999
35963SOL    HW1 9722   7.522   7.663   3.945
35963SOL    HW2 9723   7.572   7.650   4.088
35964SOL     OW 9724   9.309   0.696  13.309
35964SOL    HW1 9725   9.340   0.753  13.239
35964SOL    HW2 9726   9.374   0.707  13.379
35965SOL     OW 9727   1.085   9.031  13.727
35965SOL    HW1 9728   1.097   8.938  13.706
35965SOL    HW2 9729   1.012   9.058  13.671
35966SOL     OW 9730   2.069   8.829   1.765
35966SOL    HW1 9731   2.150   8.826   1.816
35966SOL    HW2 9732   1.999   8.820   1.830
35967SOL     OW 9733   8.369   2.059   0.144
35967SOL    HW1 9734   8.300   2.087   0.204
35967SOL    HW2 9735   8.405   1.980   0.185
35968SOL     OW 9736  13.145   8.861   4.448
35968SOL    HW1 9737  13.114   8.771   4.459
35968SOL    HW2 9738  13.152   8.895   4.537
35969SOL     OW 9739  13.133   3.154  14.860
35969SOL    HW1 9740  13.164   3.241   0.008
35969SOL    HW2 9741  13.208   3.114  14.815
35970SOL     OW 9742   3.634  11.314   2.448
35970SOL    HW1 9743   3.721  11.352   2.457
35970SOL    HW2 9744   3.595  11.322   2.535
35971SOL     OW 9745  10.276   2.363   8.401
35971SOL    HW1 9746  10.289   2.435   8.461
35971SOL    HW2 9747  10.210   2.308   8.443
35972SOL     OW 9748  10.800   2.108   9.359
35972SOL    HW1 9749  10.861   2.037   9.378
35972SOL    HW2 9750  10.714   2.072   9.381
35973SOL     OW 9751   8.870   3.670   3.265
35973SOL    HW1 9752   8.927   3.594   3.281
35973SOL    HW2 9753   8.888   3.694   3.175
35974SOL     OW 9754  13.128  10.990   2.923
35974SOL    HW1 9755  13.145  10.998   2.829
35974SOL    HW2 9756  13.078  10.909   2.932
35975SOL     OW 9757   4.734  11.505  10.847
35975SOL    HW1 9758   4.793  11.441  10.888
35975SOL    HW2 9759   4.722  11.472  10.758
35976SOL     OW 9760   2.681   9.631   3.158
35976SOL    HW1 9761   2.645   9.694   3.221
35976SOL    HW2 9762   2.759   9.675   3.123
35977SOL     OW 9763   5.899   9.659  11.244
35977SOL    HW1 9764   5.938   9.612  11.170
35977SOL    HW2 9765   5.949   9.630  11.320
35978SOL     OW 9766  13.249   7.231  10.360
35978SOL    HW1 9767  13.293   7.200  10.281
35978SOL    HW2 9768  13.204   7.154  10.395
35979SOL     OW 9769   0.795  10.083   5.068
35979SOL    HW1 9770   0.828  10.151   5.126
35979SOL    HW2 9771   0.853  10.085   4.993
35980SOL     OW 9772  14.264   3.965   6.406
35980SOL    HW1 9773  14.320   3.966   6.328
35980SOL    HW2 9774  14.200   3.896   6.390
35981SOL     OW 9775   1.656   8.977   1.798
35981SOL    HW1 9776   1.739   8.954   1.839
35981SOL    HW2 9777   1.653   9.073   1.800
35982SOL     OW 9778   9.739   9.511   7.641
35982SOL    HW1 9779   9.683   9.444   7.681
35982SOL    HW2 9780   9.728   9.498   7.546
35983SOL     OW 9781   5.478   9.916   7.470
35983SOL    HW1 9782   5.448   9.870   7.549
35983SOL    HW2 9783   5.431   9.874   7.398
35984SOL     OW 9784   3.287  10.678   0.754
35984SOL    HW1 9785   3.313  10.769   0.741
35984SOL    HW2 9786   3.221  10.681   0.823
35985SOL     OW 9787  13.020   5.520  14.710
35985SOL    HW1 9788  12.974   5.594  14.670
35985SOL    HW2 9789  12.987   5.443  14.663
35986SOL     OW 9790  11.587   4.900  13.756
35986SOL    HW1 9791  11.567   4.987  13.722
35986SOL    HW2 9792  11.565   4.905  13.849
35987SOL     OW 9793   2.846  11.884   9.836
35987SOL    HW1 9794   2.853  11.877   9.931
35987SOL    HW2 9795   2.898  11.961   9.814
35988SOL     OW 9796  13.611   8.031   9.638
35988SOL    HW1 9797  13.701   8.045   9.667
35988SOL    HW2 9798  13.577   8.119   9.622
35989SOL     OW 9799   0.093   9.067  14.081
35989SOL    HW1 9800   0.153   9.134  14.048
35989SOL    HW2 9801   0.086   9.004  14.009
35990SOL     OW 9802  11.602  12.772  11.903
35990SOL    HW1 9803  11.600  12.695  11.846
35990SOL    HW2 9804  11.510  12.794  11.916
35991SOL     OW 9805  13.314   6.633  10.929
35991SOL    HW1 9806  13.374   6.561  10.952
35991SOL    HW2 9807  13.246   6.629  10.996
35992SOL     OW 9808   3.798   5.185  14.351
35992SOL    HW1 9809   3.798   5.106  14.298
35992SOL    HW2 9810   3.818   5.155  14.440
35993SOL     OW 9811  12.356   0.427   0.881
35993SOL    HW1 9812  12.450   0.428   0.863
35993SOL    HW2 9813  12.339   0.341   0.919
35994SOL     OW 9814   7.366  10.889  13.815
35994SOL    HW1 9815   7.336  10.941  13.740
35994SOL    HW2 9816   7.313  10.810  13.813
35995SOL     OW 9817  14.085   1.757   3.682
35995SOL    HW1 9818  14.095   1.675   3.634
35995SOL    HW2 9819  14.090   1.733   3.774
35996SOL     OW 9820  13.641  10.714   1.559
35996SOL    HW1 9821  13.727  10.672   1.566
35996SOL    HW2 9822  13.657  10.795   1.510
35997SOL     OW 9823   8.236   6.833  13.147
35997SOL    HW1 9824   8.286   6.856  13.226
35997SOL    HW2 9825   8.280   6.755  13.113
35998SOL     OW 9826   3.905   3.738   9.125
35998SOL    HW1 9827   3.930   3.736   9.033
35998SOL    HW2 9828   3.970   3.682   9.169
35999SOL     OW 9829   2.484   8.999   2.055
35999SOL    HW1 9830   2.542   8.984   2.130
35999SOL    HW2 9831   2.542   9.025   1.984
36000SOL     OW 9832  13.720   8.702   1.446
36000SOL    HW1 9833  13.678   8.758   1.382
36000SOL    HW2 9834  13.687   8.614   1.427
36001SOL     OW 9835   8.350   3.452   8.085
36001SOL    HW1 9836   8.366   3.412   8.171
36001SOL    HW2 9837   8.437   3.475   8.053
36002SOL     OW 9838  14.145   4.534  11.078
36002SOL    HW1 9839  14.234   4.539  11.043
36002SOL    HW2 9840  14.089   4.535  11.001
36003SOL     OW 9841  10.456  10.115   2.003
36003SOL    HW1 9842  10.481  10.202   1.972
36003SOL    HW2 9843  10.539  10.076   2.032
36004SOL     OW 9844   1.927   7.716   5.709
36004SOL    HW1 9845   1.966   7.754   5.788
36004SOL    HW2 9846   1.998   7.718   5.644
36005SOL     OW 9847   5.323   8.457  10.022
36005SOL    HW1 9848   5.403   8.406  10.023
36005SOL    HW2 9849   5.331   8.513   9.945
36006SOL     OW 9850   4.200   0.708   8.123
36006SOL    HW1 9851   4.291   0.700   8.150
36006SOL    HW2 9852   4.199   0.782   8.063
36007SOL     OW 9853  11.548   1.434   1.396
36007SOL    HW1 9854  11.623   1.411   1.340
36007SOL    HW2 9855  11.578   1.510   1.446
36008SOL     OW 9856  12.042   2.746   3.018
36008SOL    HW1 9857  12.040   2.783   2.930
36008SOL    HW2 9858  12.080   2.815   3.072
36009SOL     OW 9859   6.135  14.556   4.611
36009SOL    HW1 9860   6.189  14.500   4.667
36009SOL    HW2 9861   6.120  14.635   4.662
36010SOL     OW 9862   8.877   7.496  13.672
36010SOL    HW1 9863   8.800   7.442  13.653
36010SOL    HW2 9864   8.881   7.559  13.600
36011SOL     OW 9865  10.422  14.052  11.268
36011SOL    HW1 9866  10.338  14.024  11.302
36011SOL    HW2 9867  10.428  14.145  11.291
36012SOL     OW 9868   8.806   0.089   7.769
36012SOL    HW1 9869   8.745   0.144   7.819
36012SOL    HW2 9870   8.764   0.078   7.683
36013SOL     OW 9871  11.506   9.334   9.461
36013SOL    HW1 9872  11.578   9.304   9.406
36013SOL    HW2 9873  11.543   9.405   9.513
36014SOL     OW 9874  13.171   2.193   6.476
36014SOL    HW1 9875  13.091   2.227   6.436
36014SOL    HW2 9876  13.211   2.269   6.519
36015SOL     OW 9877   6.547  11.039   5.027
36015SOL    HW1 9878   6.574  10.947   5.025
36015SOL    HW2 9879   6.452  11.036   5.016
36016SOL     OW 9880   8.410   8.105   8.622
36016SOL    HW1 9881   8.380   8.147   8.542
36016SOL    HW2 9882   8.330   8.090   8.673
36017SOL     OW 9883  12.128   1.079  10.316
36017SOL    HW1 9884  12.102   1.171  10.321
36017SOL    HW2 9885  12.057   1.032  10.358
36018SOL     OW 9886  12.052   2.618  10.001
36018SOL    HW1 9887  12.147   2.611  10.000
36018SOL    HW2 9888  12.032   2.686   9.936
36019SOL     OW 9889  13.811   6.112   6.725
36019SOL    HW1 9890  13.814   6.168   6.802
36019SOL    HW2 9891  13.784   6.169   6.654
36020SOL     OW 9892   8.776   5.923   2.519
36020SOL    HW1 9893   8.699   5.980   2.519
36020SOL    HW2 9894   8.835   5.962   2.584
36021SOL     OW 9895   8.780   9.345   7.025
36021SOL    HW1 9896   8.850   9.293   6.985
36021SOL    HW2 9897   8.814   9.435   7.025
36022SOL     OW 9898   1.173   5.682   0.922
36022SOL    HW1 9899   1.148   5.646   0.836
36022SOL    HW2 9900   1.106   5.648   0.982
36023SOL     OW 9901   2.535   3.342   4.372
36023SOL    HW1 9902   2.604   3.402   4.398
36023SOL    HW2 9903   2.513   3.294   4.452
36024SOL     OW 9904  10.267   8.798   5.221
36024SOL    HW1 9905  10.244   8.862   5.288
36024SOL    HW2 9906  10.195   8.803   5.158
36025SOL     OW 9907   2.330   8.475   0.110
36025SOL    HW1 9908   2.286   8.531   0.046
36025SOL    HW2 9909   2.259   8.421   0.146
36026SOL     OW 9910   4.868   8.199  12.308
36026SOL    HW1 9911   4.905   8.227  12.224
36026SOL    HW2 9912   4.795   8.260  12.324
36027SOL     OW 9913  12.327   5.073   5.071
36027SOL    HW1 9914  12.280   5.155   5.082
36027SOL    HW2 9915  12.275   5.024   5.007
36028SOL     OW 9916   7.552   6.744   1.353
36028SOL    HW1 9917   7.598   6.669   1.317
36028SOL    HW2 9918   7.460   6.717   1.357
36029SOL     OW 9919  10.182   1.421   5.599
36029SOL    HW1 9920  10.195   1.440   5.506
36029SOL    HW2 9921  10.087   1.405   5.607
36030SOL     OW 9922  14.724  13.402   6.504
36030SOL    HW1 9923  14.761  13.323   6.544
36030SOL    HW2 9924  14.800  13.454   6.479
36031SOL     OW 9925   6.804   2.180  10.308
36031SOL    HW1 9926   6.834   2.230  10.384
36031SOL    HW2 9927   6.878   2.181  10.248
36032SOL     OW 9928   4.253   6.666   9.656
36032SOL    HW1 9929   4.187   6.669   9.588
36032SOL    HW2 9930   4.285   6.576   9.656
36033SOL     OW 9931   7.779   0.667   9.494
36033SOL    HW1 9932   7.756   0.742   9.549
36033SOL    HW2 9933   7.695   0.624   9.476
36034SOL     OW 9934   6.786   5.247  14.544
36034SOL    HW1 9935   6.810   5.322  14.599
36034SOL    HW2 9936   6.850   5.250  14.472
36035SOL     OW 9937   4.884   7.438   4.213
36035SOL    HW1 9938   4.850   7.415   4.299
36035SOL    HW2 9939   4.925   7.357   4.182
36036SOL     OW 9940   1.206  12.161   1.064
36036SOL    HW1 9941   1.151  12.156   1.143
36036SOL    HW2 9942   1.196  12.251   1.034
36037SOL     OW 9943  11.998   8.593  12.799
36037SOL    HW1 9944  11.966   8.511  12.761
36037SOL    HW2 9945  11.962   8.595  12.887
36038SOL     OW 9946   6.213  13.731   6.583
36038SOL    HW1 9947   6.201  13.824   6.568
36038SOL    HW2 9948   6.125  13.696   6.593
36039SOL     OW 9949   4.570   8.130  12.131
36039SOL    HW1 9950   4.631   8.114  12.059
36039SOL    HW2 9951   4.625   8.156  12.204
36040SOL     OW 9952  13.184   6.720  10.335
36040SOL    HW1 9953  13.110   6.781  10.327
36040SOL    HW2 9954  13.203   6.693  10.246
36041SOL     OW 9955  12.150  10.917   3.351
36041SOL    HW1 9956  12.218  10.917   3.284
36041SOL    HW2 9957  12.111  11.005   3.347
36042SOL     OW 9958   2.656   2.330  13.754
36042SOL    HW1 9959   2.683   2.311  13.844
36042SOL    HW2 9960   2.622   2.247  13.721
36043SOL     OW 9961   2.071   4.451   9.240
36043SOL    HW1 9962   2.158   4.411   9.233
36043SOL    HW2 9963   2.066   4.511   9.165
36044SOL     OW 9964   7.739   7.783   3.086
36044SOL    HW1 9965   7.813   7.729   3.116
36044SOL    HW2 9966   7.662   7.738   3.120
36045SOL     OW 9967  14.100  10.202   8.417
36045SOL    HW1 9968  14.131  10.216   8.328
36045SOL    HW2 9969  14.122  10.111   8.437
36046SOL     OW 9970   2.907  10.635  11.932
36046SOL    HW1 9971   2.992  10.670  11.904
36046SOL    HW2 9972   2.858  10.623  11.850
36047SOL     OW 9973  11.375  11.903   6.254
36047SOL    HW1 9974  11.465  11.886   6.229
36047SOL    HW2 9975  11.322  11.847   6.198
36048SOL     OW 9976   9.615  14.176   3.713
36048SOL    HW1 9977   9.620  14.250   3.773
36048SOL    HW2 9978   9.596  14.101   3.770
36049SOL     OW 9979   5.896   5.221   2.630
36049SOL    HW1 9980   5.949   5.207   2.708
36049SOL    HW2 9981   5.917   5.146   2.573
36050SOL     OW 9982  12.380   2.540   0.704
36050SOL    HW1 9983  12.340   2.454   0.691
36050SOL    HW2 9984  12.310   2.593   0.741
36051SOL     OW 9985   2.774   1.419   3.834
36051SOL    HW1 9986   2.843   1.356   3.814
36051SOL    HW2 9987   2.692   1.373   3.816
36052SOL     OW 9988   0.315  12.218  11.599
36052SOL    HW1 9989   0.232  12.247  11.562
36052SOL    HW2 9990   0.365  12.186  11.525
36053SOL     OW 9991  11.786   3.543   7.156
36053SOL    HW1 9992  11.724   3.492   7.209
36053SOL    HW2 9993  11.733   3.614   7.119
36054SOL     OW 9994   0.333   6.528   2.118
36054SOL    HW1 9995   0.398   6.566   2.059
36054SOL    HW2 9996   0.250   6.568   2.092
36055SOL     OW 9997   8.168  13.556   5.156
36055SOL    HW1 9998   8.079  13.550   5.121
36055SOL    HW2 9999   8.156  13.551   5.251
36056SOL     OW10000  13.006  10.681  13.809
36056SOL    HW110001  13.078  10.620  13.823
36056SOL    HW210002  12.998  10.687  13.713
36057SOL     OW10003   0.639  14.368   0.886
36057SOL    HW110004   0.595  14.350   0.803
36057SOL    HW210005   0.610  14.299   0.945
36058SOL     OW10006  12.194  14.307  11.009
36058SOL    HW110007  12.275  14.275  11.050
36058SOL    HW210008  12.153  14.228  10.974
36059SOL     OW10009   2.434   5.053   9.406
36059SOL    HW110010   2.365   5.089   9.350
36059SOL    HW210011   2.505   5.116   9.400
36060SOL     OW10012  13.342  14.237   3.500
36060SOL    HW110013  13.277  14.276   3.558
36060SOL    HW210014  13.334  14.143   3.514
36061SOL     OW10015   7.587   6.071   3.768
36061SOL    HW110016   7.676   6.102   3.753
36061SOL    HW210017   7.548   6.066   3.680
36062SOL     OW10018   5.669  11.546  11.485
36062SOL    HW110019   5.630  11.473  11.437
36062SOL    HW210020   5.627  11.624  11.447
36063SOL     OW10021   6.135  12.691  10.798
36063SOL    HW110022   6.055  12.643  10.821
36063SOL    HW210023   6.184  12.695  10.879
36064SOL     OW10024   9.136   8.242   8.282
36064SOL    HW110025   9.101   8.199   8.204
36064SOL    HW210026   9.230   8.252   8.263
36065SOL     OW10027   9.065  11.266  13.984
36065SOL    HW110028   9.088  11.192  14.041
36065SOL    HW210029   9.027  11.225  13.906
36066SOL     OW10030   4.524   4.301  12.192
36066SOL    HW110031   4.595   4.246  12.160
36066SOL    HW210032   4.538   4.305  12.287
36067SOL     OW10033   6.907   3.719   7.984
36067SOL    HW110034   6.873   3.786   8.043
36067SOL    HW210035   6.837   3.705   7.921
36068SOL     OW10036   9.043   4.581  13.981
36068SOL    HW110037   9.047   4.638  14.058
36068SOL    HW210038   9.064   4.638  13.908
36069SOL     OW10039   5.263   4.119   9.883
36069SOL    HW110040   5.252   4.160   9.797
36069SOL    HW210041   5.354   4.090   9.885
36070SOL     OW10042   1.732   1.084   0.141
36070SOL    HW110043   1.705   1.000   0.105
36070SOL    HW210044   1.734   1.070   0.235
36071SOL     OW10045  11.355   6.091   8.209
36071SOL    HW110046  11.366   6.167   8.152
36071SOL    HW210047  11.405   6.112   8.288
36072SOL     OW10048   1.897   3.155   5.240
36072SOL    HW110049   1.898   3.240   5.196
36072SOL    HW210050   1.943   3.097   5.179
36073SOL     OW10051  11.544   1.554   2.552
36073SOL    HW110052  11.509   1.466   2.560
36073SOL    HW210053  11.600   1.551   2.474
36074SOL     OW10054   3.522   4.100   5.704
36074SOL    HW110055   3.535   4.014   5.663
36074SOL    HW210056   3.571   4.095   5.786
36075SOL     OW10057  13.254   1.257  10.045
36075SOL    HW110058  13.287   1.210   9.968
36075SOL    HW210059  13.163   1.228  10.054
36076SOL     OW10060   3.984   2.206   3.934
36076SOL    HW110061   4.075   2.188   3.957
36076SOL    HW210062   3.977   2.178   3.842
36077SOL     OW10063  14.541  11.170   0.739
36077SOL    HW110064  14.526  11.120   0.659
36077SOL    HW210065  14.522  11.109   0.810
36078SOL     OW10066   3.181   1.354   7.999
36078SOL    HW110067   3.164   1.273   8.048
36078SOL    HW210068   3.195   1.420   8.066
36079SOL     OW10069   4.140   8.291   9.583
36079SOL    HW110070   4.070   8.309   9.520
36079SOL    HW210071   4.094   8.256   9.660
36080SOL     OW10072   7.284  12.980   6.056
36080SOL    HW110073   7.274  12.998   6.150
36080SOL    HW210074   7.252  13.059   6.013
36081SOL     OW10075   6.670   9.160   5.217
36081SOL    HW110076   6.651   9.252   5.198
36081SOL    HW210077   6.663   9.115   5.133
36082SOL     OW10078   0.024   1.174   7.659
36082SOL    HW110079   0.005   1.135   7.574
36082SOL    HW210080   0.078   1.110   7.704
36083SOL     OW10081   3.417   6.495  11.619
36083SOL    HW110082   3.512   6.494  11.631
36083SOL    HW210083   3.404   6.518  11.527
36084SOL     OW10084  13.278  10.793   1.447
36084SOL    HW110085  13.324  10.709   1.451
36084SOL    HW210086  13.330  10.852   1.502
36085SOL     OW10087   0.221   7.686  14.606
36085SOL    HW110088   0.263   7.644  14.681
36085SOL    HW210089   0.248   7.634  14.531
36086SOL     OW10090   1.146   8.556  12.490
36086SOL    HW110091   1.198   8.481  12.462
36086SOL    HW210092   1.100   8.585  12.411
36087SOL     OW10093   9.650   0.836  12.438
36087SOL    HW110094   9.725   0.792  12.479
36087SOL    HW210095   9.579   0.772  12.444
36088SOL     OW10096   0.340   2.936  11.639
36088SOL    HW110097   0.272   2.962  11.577
36088SOL    HW210098   0.422   2.961  11.596
36089SOL     OW10099   4.943  10.936   9.868
36089SOL    HW110100   4.967  11.012   9.921
36089SOL    HW210101   4.940  10.970   9.778
36090SOL     OW10102   8.997   5.438  13.933
36090SOL    HW110103   8.978   5.345  13.923
36090SOL    HW210104   9.005   5.451  14.027
36091SOL     OW10105   0.427  14.518  11.542
36091SOL    HW110106   0.344  14.472  11.545
36091SOL    HW210107   0.456  14.510  11.452
36092SOL     OW10108   3.884  13.581  12.170
36092SOL    HW110109   3.875  13.643  12.243
36092SOL    HW210110   3.800  13.587  12.125
36093SOL     OW10111   8.040  12.930   2.337
36093SOL    HW110112   7.986  12.930   2.258
36093SOL    HW210113   8.040  13.021   2.366
36094SOL     OW10114  11.484  10.280   8.334
36094SOL    HW110115  11.516  10.319   8.253
36094SOL    HW210116  11.538  10.202   8.347
36095SOL     OW10117   7.633   3.715   6.461
36095SOL    HW110118   7.692   3.787   6.484
36095SOL    HW210119   7.648   3.649   6.529
36096SOL     OW10120  10.660   8.766   1.195
36096SOL    HW110121  10.606   8.766   1.274
36096SOL    HW210122  10.614   8.708   1.134
36097SOL     OW10123   2.659   4.515  12.429
36097SOL    HW110124   2.725   4.448  12.413
36097SOL    HW210125   2.614   4.524  12.345
36098SOL     OW10126   6.090  12.590   2.771
36098SOL    HW110127   6.007  12.615   2.811
36098SOL    HW210128   6.156  12.617   2.835
36099SOL     OW10129   6.591  11.577   9.003
36099SOL    HW110130   6.686  11.568   8.994
36099SOL    HW210131   6.563  11.614   8.920
36100SOL     OW10132  13.996  11.266  14.123
36100SOL    HW110133  13.927  11.275  14.190
36100SOL    HW210134  13.958  11.206  14.058
36101SOL     OW10135  11.840   8.853   6.687
36101SOL    HW110136  11.806   8.879   6.773
36101SOL    HW210137  11.806   8.764   6.674
36102SOL     OW10138   5.283   2.154   8.390
36102SOL    HW110139   5.190   2.157   8.414
36102SOL    HW210140   5.326   2.214   8.451
36103SOL     OW10141  12.034   8.337  11.535
36103SOL    HW110142  12.064   8.305  11.620
36103SOL    HW210143  11.973   8.271  11.504
36104SOL     OW10144   5.496   4.757   0.902
36104SOL    HW110145   5.419   4.798   0.861
36104SOL    HW210146   5.490   4.784   0.994
36105SOL     OW10147   7.465  11.325   6.108
36105SOL    HW110148   7.442  11.278   6.028
36105SOL    HW210149   7.528  11.268   6.152
36106SOL     OW10150   9.072   5.661  10.593
36106SOL    HW110151   8.982   5.658  10.561
36106SOL    HW210152   9.117   5.720  10.532
36107SOL     OW10153  10.769   7.826  12.032
36107SOL    HW110154  10.695   7.768  12.015
36107SOL    HW210155  10.780   7.825  12.127
36108SOL     OW10156   2.039  14.870   2.149
36108SOL    HW110157   1.976  14.820   2.200
36108SOL    HW210158   2.009  14.860   2.058
36109SOL     OW10159   7.495  13.270   8.182
36109SOL    HW110160   7.434  13.212   8.137
36109SOL    HW210161   7.472  13.358   8.151
36110SOL     OW10162   5.787   9.307   0.839
36110SOL    HW110163   5.842   9.314   0.761
36110SOL    HW210164   5.833   9.359   0.906
36111SOL     OW10165  13.766   2.832   3.713
36111SOL    HW110166  13.706   2.760   3.730
36111SOL    HW210167  13.710   2.910   3.715
36112SOL     OW10168   4.226  11.583   5.847
36112SOL    HW110169   4.206  11.663   5.896
36112SOL    HW210170   4.299  11.543   5.895
36113SOL     OW10171   5.869   9.547   3.507
36113SOL    HW110172   5.862   9.493   3.586
36113SOL    HW210173   5.868   9.484   3.435
36114SOL     OW10174   4.027   2.570   1.154
36114SOL    HW110175   4.060   2.633   1.218
36114SOL    HW210176   3.934   2.563   1.173
36115SOL     OW10177   7.624   4.913  11.590
36115SOL    HW110178   7.695   4.977  11.596
36115SOL    HW210179   7.636   4.871  11.505
36116SOL     OW10180   2.127   5.073   9.067
36116SOL    HW110181   2.158   5.008   9.003
36116SOL    HW210182   2.068   5.025   9.124
36117SOL     OW10183   5.863   2.874  10.363
36117SOL    HW110184   5.925   2.802  10.360
36117SOL    HW210185   5.811   2.859  10.442
36118SOL     OW10186  13.986   4.501   5.711
36118SOL    HW110187  13.900   4.507   5.754
36118SOL    HW210188  13.991   4.580   5.657
36119SOL     OW10189   7.320   5.400   5.533
36119SOL    HW110190   7.251   5.342   5.564
36119SOL    HW210191   7.379   5.410   5.608
36120SOL     OW10192   9.608  13.496   2.662
36120SOL    HW110193   9.571  13.551   2.593
36120SOL    HW210194   9.662  13.432   2.615
36121SOL     OW10195   0.060  13.438  10.505
36121SOL    HW110196  14.875  13.430  10.435
36121SOL    HW210197   0.144  13.449  10.460
36122SOL     OW10198   4.338  12.502   6.832
36122SOL    HW110199   4.323  12.538   6.745
36122SOL    HW210200   4.332  12.407   6.820
36123SOL     OW10201   9.373   2.569   2.484
36123SOL    HW110202   9.364   2.622   2.405
36123SOL    HW210203   9.424   2.624   2.544
36124SOL     OW10204  13.651  11.831   1.998
36124SOL    HW110205  13.670  11.867   2.085
36124SOL    HW210206  13.685  11.898   1.937
36125SOL     OW10207  14.207   5.502   0.985
36125SOL    HW110208  14.204   5.435   0.916
36125SOL    HW210209  14.182   5.455   1.065
36126SOL     OW10210   5.350   4.820   2.650
36126SOL    HW110211   5.328   4.767   2.573
36126SOL    HW210212   5.411   4.886   2.616
36127SOL     OW10213   3.359  12.780   2.857
36127SOL    HW110214   3.264  12.782   2.868
36127SOL    HW210215   3.379  12.858   2.805
36128SOL     OW10216   7.978   9.547  12.899
36128SOL    HW110217   7.917   9.505  12.961
36128SOL    HW210218   7.921   9.596  12.839
36129SOL     OW10219   0.926   3.292   8.953
36129SOL    HW110220   0.974   3.296   8.870
36129SOL    HW210221   0.992   3.311   9.019
36130SOL     OW10222  14.609  10.775  13.851
36130SOL    HW110223  14.563  10.782  13.934
36130SOL    HW210224  14.697  10.809  13.869
36131SOL     OW10225   7.494   1.774  14.761
36131SOL    HW110226   7.544   1.829  14.822
36131SOL    HW210227   7.534   1.791  14.676
36132SOL     OW10228  14.390  14.013   1.329
36132SOL    HW110229  14.425  14.087   1.280
36132SOL    HW210230  14.453  13.943   1.315
36133SOL     OW10231   2.395  10.331   9.941
36133SOL    HW110232   2.326  10.323   9.876
36133SOL    HW210233   2.360  10.286  10.019
36134SOL     OW10234   8.123   5.729   1.148
36134SOL    HW110235   8.095   5.683   1.227
36134SOL    HW210236   8.211   5.762   1.170
36135SOL     OW10237   9.361   5.301  12.081
36135SOL    HW110238   9.396   5.361  12.015
36135SOL    HW210239   9.389   5.340  12.165
36136SOL     OW10240  10.330  13.713  14.820
36136SOL    HW110241  10.292  13.791  14.782
36136SOL    HW210242  10.319  13.724   0.036
36137SOL     OW10243  10.362  12.923   0.406
36137SOL    HW110244  10.340  12.995   0.466
36137SOL    HW210245  10.309  12.850   0.436
36138SOL     OW10246  12.141  11.396   1.167
36138SOL    HW110247  12.142  11.473   1.225
36138SOL    HW210248  12.145  11.321   1.227
36139SOL     OW10249  10.221   6.461   5.124
36139SOL    HW110250  10.173   6.452   5.042
36139SOL    HW210251  10.292   6.522   5.103
36140SOL     OW10252   3.405   7.956  12.186
36140SOL    HW110253   3.384   8.041  12.146
36140SOL    HW210254   3.335   7.898  12.158
36141SOL     OW10255  12.432   1.338  12.759
36141SOL    HW110256  12.346   1.295  12.761
36141SOL    HW210257  12.436   1.379  12.673
36142SOL     OW10258  10.077  13.408   0.595
36142SOL    HW110259  10.032  13.429   0.514
36142SOL    HW210260  10.161  13.370   0.567
36143SOL     OW10261   6.214   6.547   5.314
36143SOL    HW110262   6.285   6.569   5.374
36143SOL    HW210263   6.190   6.630   5.273
36144SOL     OW10264  13.288  13.401   4.736
36144SOL    HW110265  13.365  13.403   4.679
36144SOL    HW210266  13.323  13.406   4.824
36145SOL     OW10267  13.265  13.299   4.399
36145SOL    HW110268  13.336  13.253   4.444
36145SOL    HW210269  13.186  13.250   4.422
36146SOL     OW10270  10.303  14.877   0.145
36146SOL    HW110271  10.217  14.836   0.140
36146SOL    HW210272  10.292   0.072   0.206
36147SOL     OW10273  14.814  13.181   6.664
36147SOL    HW110274   0.020  13.160   6.625
36147SOL    HW210275  14.753  13.121   6.623
36148SOL     OW10276  14.329   8.224   6.811
36148SOL    HW110277  14.404   8.214   6.869
36148SOL    HW210278  14.353   8.297   6.754
36149SOL     OW10279   9.148   9.659   3.731
36149SOL    HW110280   9.062   9.669   3.691
36149SOL    HW210281   9.138   9.587   3.793
36150SOL     OW10282   3.310  12.562   1.944
36150SOL    HW110283   3.339  12.549   2.034
36150SOL    HW210284   3.332  12.653   1.925
36151SOL     OW10285   1.467  13.761  13.740
36151SOL    HW110286   1.413  13.759  13.818
36151SOL    HW210287   1.412  13.725  13.670
36152SOL     OW10288  14.132   8.811   8.386
36152SOL    HW110289  14.169   8.891   8.349
36152SOL    HW210290  14.072   8.779   8.319
36153SOL     OW10291  13.161  14.494   3.592
36153SOL    HW110292  13.144  14.407   3.628
36153SOL    HW210293  13.202  14.542   3.664
36154SOL     OW10294   5.404  12.840   3.654
36154SOL    HW110295   5.321  12.861   3.697
36154SOL    HW210296   5.385  12.763   3.600
36155SOL     OW10297   2.723  12.609   4.515
36155SOL    HW110298   2.643  12.573   4.554
36155SOL    HW210299   2.699  12.698   4.487
36156SOL     OW10300   4.961   6.824  11.999
36156SOL    HW110301   4.995   6.754  11.943
36156SOL    HW210302   5.006   6.903  11.968
36157SOL     OW10303   8.321   3.583   2.171
36157SOL    HW110304   8.322   3.663   2.118
36157SOL    HW210305   8.399   3.591   2.227
36158SOL     OW10306  13.142  13.236   7.296
36158SOL    HW110307  13.117  13.202   7.210
36158SOL    HW210308  13.068  13.215   7.352
36159SOL     OW10309   3.168  13.148   2.606
36159SOL    HW110310   3.180  13.132   2.699
36159SOL    HW210311   3.077  13.121   2.589
36160SOL     OW10312  11.471   5.531   2.024
36160SOL    HW110313  11.534   5.470   2.064
36160SOL    HW210314  11.419   5.564   2.097
36161SOL     OW10315  14.693   0.113   2.139
36161SOL    HW110316  14.682   0.178   2.209
36161SOL    HW210317  14.609   0.113   2.093
36162SOL     OW10318  11.653   3.362  11.737
36162SOL    HW110319  11.593   3.436  11.748
36162SOL    HW210320  11.734   3.401  11.704
36163SOL     OW10321   9.716  14.625   2.086
36163SOL    HW110322   9.682  14.576   2.161
36163SOL    HW210323   9.717  14.561   2.015
36164SOL     OW10324  13.734   7.954   2.461
36164SOL    HW110325  13.641   7.932   2.453
36164SOL    HW210326  13.775   7.912   2.385
36165SOL     OW10327   4.839  14.255  11.624
36165SOL    HW110328   4.851  14.295  11.537
36165SOL    HW210329   4.757  14.207  11.616
36166SOL     OW10330  13.651   3.432   0.616
36166SOL    HW110331  13.668   3.495   0.546
36166SOL    HW210332  13.557   3.415   0.611
36167SOL     OW10333   6.621   5.003  12.846
36167SOL    HW110334   6.578   4.926  12.883
36167SOL    HW210335   6.550   5.054  12.808
36168SOL     OW10336  11.436   1.064   2.422
36168SOL    HW110337  11.423   1.156   2.442
36168SOL    HW210338  11.375   1.018   2.478
36169SOL     OW10339  10.856  12.699   3.151
36169SOL    HW110340  10.935  12.731   3.193
36169SOL    HW210341  10.811  12.649   3.219
36170SOL     OW10342   6.883   9.989  11.316
36170SOL    HW110343   6.925  10.058  11.367
36170SOL    HW210344   6.798  10.026  11.291
36171SOL     OW10345   4.322   2.130   4.806
36171SOL    HW110346   4.387   2.099   4.868
36171SOL    HW210347   4.310   2.223   4.827
36172SOL     OW10348   9.886  12.587   0.833
36172SOL    HW110349   9.892  12.680   0.810
36172SOL    HW210350   9.890  12.541   0.749
36173SOL     OW10351  14.156   2.584  11.566
36173SOL    HW110352  14.215   2.588  11.641
36173SOL    HW210353  14.071   2.558  11.603
36174SOL     OW10354   9.391   4.973   7.698
36174SOL    HW110355   9.397   5.064   7.672
36174SOL    HW210356   9.420   4.924   7.621
36175SOL     OW10357   2.860   5.299   7.379
36175SOL    HW110358   2.807   5.342   7.446
36175SOL    HW210359   2.950   5.314   7.408
36176SOL     OW10360   2.560  13.699  12.162
36176SOL    HW110361   2.511  13.620  12.141
36176SOL    HW210362   2.492  13.765  12.179
36177SOL     OW10363   5.761   0.409  14.805
36177SOL    HW110364   5.720   0.392   0.011
36177SOL    HW210365   5.775   0.504  14.804
36178SOL     OW10366  11.678   0.615  10.273
36178SOL    HW110367  11.594   0.573  10.288
36178SOL    HW210368  11.660   0.709  10.283
36179SOL     OW10369   0.366   7.469  12.450
36179SOL    HW110370   0.309   7.502  12.381
36179SOL    HW210371   0.453   7.503  12.428
36180SOL     OW10372   2.749  11.842   8.262
36180SOL    HW110373   2.693  11.767   8.242
36180SOL    HW210374   2.729  11.863   8.353
36181SOL     OW10375   2.919   6.013   9.812
36181SOL    HW110376   2.974   6.082   9.774
36181SOL    HW210377   2.969   5.933   9.800
36182SOL     OW10378   4.500  12.747   4.932
36182SOL    HW110379   4.480  12.830   4.889
36182SOL    HW210380   4.557  12.771   5.005
36183SOL     OW10381   0.177  11.154   1.268
36183SOL    HW110382   0.175  11.241   1.309
36183SOL    HW210383   0.091  11.117   1.289
36184SOL     OW10384   4.685   7.034  13.683
36184SOL    HW110385   4.667   7.074  13.769
36184SOL    HW210386   4.685   6.940  13.701
36185SOL     OW10387   4.568   5.462   6.137
36185SOL    HW110388   4.495   5.489   6.194
36185SOL    HW210389   4.617   5.543   6.122
36186SOL     OW10390   5.336   0.532   4.112
36186SOL    HW110391   5.362   0.585   4.037
36186SOL    HW210392   5.330   0.594   4.184
36187SOL     OW10393  12.466   0.840   2.045
36187SOL    HW110394  12.486   0.762   2.097
36187SOL    HW210395  12.548   0.888   2.041
36188SOL     OW10396   4.513   8.254  13.883
36188SOL    HW110397   4.448   8.307  13.929
36188SOL    HW210398   4.471   8.169  13.871
36189SOL     OW10399   1.507   3.885  14.792
36189SOL    HW110400   1.555   3.826  14.733
36189SOL    HW210401   1.574   3.945  14.825
36190SOL     OW10402  14.601  11.380   7.953
36190SOL    HW110403  14.625  11.390   8.045
36190SOL    HW210404  14.611  11.286   7.936
36191SOL     OW10405   9.440  10.531  12.203
36191SOL    HW110406   9.392  10.585  12.267
36191SOL    HW210407   9.375  10.469  12.171
36192SOL     OW10408  10.900  12.960   8.445
36192SOL    HW110409  10.986  12.922   8.462
36192SOL    HW210410  10.895  12.969   8.350
36193SOL     OW10411  11.665   2.028   9.003
36193SOL    HW110412  11.727   1.955   9.001
36193SOL    HW210413  11.658   2.051   9.095
36194SOL     OW10414   7.476   0.966   3.619
36194SOL    HW110415   7.555   0.914   3.604
36194SOL    HW210416   7.448   0.941   3.708
36195SOL     OW10417   1.596   5.643   4.098
36195SOL    HW110418   1.589   5.730   4.061
36195SOL    HW210419   1.585   5.656   4.193
36196SOL     OW10420   7.469  10.116   3.136
36196SOL    HW110421   7.554  10.075   3.118
36196SOL    HW210422   7.427  10.122   3.050
36197SOL     OW10423   9.222   6.386  13.475
36197SOL    HW110424   9.195   6.307  13.428
36197SOL    HW210425   9.153   6.450  13.456
36198SOL     OW10426   5.392  13.193   0.939
36198SOL    HW110427   5.429  13.190   0.851
36198SOL    HW210428   5.462  13.228   0.994
36199SOL     OW10429   4.137  13.777   9.983
36199SOL    HW110430   4.106  13.689  10.001
36199SOL    HW210431   4.088  13.804   9.905
36200SOL     OW10432   1.368   3.228   7.911
36200SOL    HW110433   1.385   3.251   8.002
36200SOL    HW210434   1.421   3.288   7.860
36201SOL     OW10435   6.140   1.588   0.024
36201SOL    HW110436   6.124   1.642  14.826
36201SOL    HW210437   6.097   1.505   0.005
36202SOL     OW10438   6.337   6.865   7.945
36202SOL    HW110439   6.315   6.858   7.852
36202SOL    HW210440   6.314   6.780   7.982
36203SOL     OW10441  13.010   6.384   9.869
36203SOL    HW110442  13.071   6.377   9.796
36203SOL    HW210443  13.039   6.461   9.918
36204SOL     OW10444   4.086   0.656  13.510
36204SOL    HW110445   4.160   0.664  13.449
36204SOL    HW210446   4.024   0.723  13.481
36205SOL     OW10447  11.708  13.264   6.660
36205SOL    HW110448  11.706  13.259   6.564
36205SOL    HW210449  11.801  13.271   6.682
36206SOL     OW10450   4.909  11.677  11.952
36206SOL    HW110451   4.947  11.662  11.865
36206SOL    HW210452   4.819  11.647  11.944
36207SOL     OW10453  10.295   1.213   9.832
36207SOL    HW110454  10.224   1.210   9.768
36207SOL    HW210455  10.360   1.271   9.793
36208SOL     OW10456   0.010  13.227  14.344
36208SOL    HW110457   0.099  13.201  14.368
36208SOL    HW210458  14.841  13.145  14.338
36209SOL     OW10459   4.654  12.739   0.248
36209SOL    HW110460   4.607  12.812   0.208
36209SOL    HW210461   4.745  12.751   0.222
36210SOL     OW10462  14.367   8.102   6.534
36210SOL    HW110463  14.331   8.070   6.617
36210SOL    HW210464  14.377   8.197   6.548
36211SOL     OW10465   3.988  10.965   4.040
36211SOL    HW110466   4.073  10.997   4.068
36211SOL    HW210467   3.936  10.961   4.120
36212SOL     OW10468  13.922   9.091  12.514
36212SOL    HW110469  13.886   9.061  12.431
36212SOL    HW210470  13.870   9.168  12.537
36213SOL     OW10471  14.147   7.287   5.699
36213SOL    HW110472  14.133   7.326   5.785
36213SOL    HW210473  14.172   7.197   5.717
36214SOL     OW10474   4.074   7.168   0.802
36214SOL    HW110475   4.068   7.240   0.865
36214SOL    HW210476   3.992   7.120   0.815
36215SOL     OW10477  11.378   6.192   4.500
36215SOL    HW110478  11.341   6.219   4.416
36215SOL    HW210479  11.471   6.209   4.492
36216SOL     OW10480  10.842  10.841   1.207
36216SOL    HW110481  10.899  10.794   1.147
36216SOL    HW210482  10.861  10.933   1.192
36217SOL     OW10483   6.098   2.638  10.739
36217SOL    HW110484   6.006   2.651  10.715
36217SOL    HW210485   6.104   2.670  10.829
36218SOL     OW10486   1.248   7.463   0.064
36218SOL    HW110487   1.271   7.424   0.149
36218SOL    HW210488   1.283   7.552   0.068
36219SOL     OW10489   0.661   0.537  12.568
36219SOL    HW110490   0.730   0.591  12.607
36219SOL    HW210491   0.708   0.472  12.516
36220SOL     OW10492  14.336   4.940   7.747
36220SOL    HW110493  14.411   4.880   7.742
36220SOL    HW210494  14.367   5.012   7.802
36221SOL     OW10495   2.486   7.949   2.768
36221SOL    HW110496   2.572   7.906   2.766
36221SOL    HW210497   2.458   7.944   2.859
36222SOL     OW10498  10.266   2.547   4.812
36222SOL    HW110499  10.287   2.587   4.896
36222SOL    HW210500  10.310   2.602   4.747
36223SOL     OW10501  14.089  10.647   7.171
36223SOL    HW110502  14.168  10.592   7.175
36223SOL    HW210503  14.063  10.643   7.079
36224SOL     OW10504  11.421  13.108  11.721
36224SOL    HW110505  11.345  13.049  11.719
36224SOL    HW210506  11.406  13.170  11.650
36225SOL     OW10507   7.489   0.281   3.354
36225SOL    HW110508   7.534   0.201   3.383
36225SOL    HW210509   7.398   0.268   3.380
36226SOL     OW10510   0.202   4.433   8.384
36226SOL    HW110511   0.176   4.488   8.458
36226SOL    HW210512   0.205   4.494   8.309
36227SOL     OW10513   3.419  10.024   6.858
36227SOL    HW110514   3.371  10.106   6.866
36227SOL    HW210515   3.509  10.050   6.840
36228SOL     OW10516   9.800  11.054  11.174
36228SOL    HW110517   9.857  10.992  11.128
36228SOL    HW210518   9.794  11.129  11.115
36229SOL     OW10519  12.077  11.047   9.079
36229SOL    HW110520  12.115  10.962   9.104
36229SOL    HW210521  12.022  11.071   9.153
36230SOL     OW10522   1.955   2.327  12.997
36230SOL    HW110523   2.039   2.304  12.957
36230SOL    HW210524   1.931   2.410  12.956
36231SOL     OW10525  12.449  12.465   5.869
36231SOL    HW110526  12.536  12.504   5.864
36231SOL    HW210527  12.412  12.497   5.951
36232SOL     OW10528   6.065   1.728   9.770
36232SOL    HW110529   6.007   1.682   9.831
36232SOL    HW210530   6.150   1.729   9.814
36233SOL     OW10531   7.918   3.246   8.593
36233SOL    HW110532   7.979   3.305   8.637
36233SOL    HW210533   7.910   3.280   8.504
36234SOL     OW10534  11.168   6.823  10.137
36234SOL    HW110535  11.089   6.797  10.183
36234SOL    HW210536  11.174   6.763  10.063
36235SOL     OW10537   0.564   4.217   9.816
36235SOL    HW110538   0.602   4.153   9.756
36235SOL    HW210539   0.477   4.236   9.780
36236SOL     OW10540   2.046   5.845  10.965
36236SOL    HW110541   2.016   5.839  10.874
36236SOL    HW210542   2.009   5.768  11.008
36237SOL     OW10543   3.067   2.023   3.820
36237SOL    HW110544   3.125   1.985   3.886
36237SOL    HW210545   3.119   2.024   3.740
36238SOL     OW10546  13.619   0.674  12.632
36238SOL    HW110547  13.624   0.659  12.537
36238SOL    HW210548  13.526   0.681  12.651
36239SOL     OW10549  12.554  11.626   3.457
36239SOL    HW110550  12.643  11.660   3.463
36239SOL    HW210551  12.499  11.694   3.494
36240SOL     OW10552   3.073   1.498  12.882
36240SOL    HW110553   3.065   1.413  12.839
36240SOL    HW210554   3.167   1.517  12.882
36241SOL     OW10555   7.411   9.013   4.275
36241SOL    HW110556   7.493   9.020   4.226
36241SOL    HW210557   7.391   9.103   4.301
36242SOL     OW10558  11.793   1.480  13.808
36242SOL    HW110559  11.783   1.416  13.879
36242SOL    HW210560  11.761   1.435  13.730
36243SOL     OW10561   8.913   9.928  13.232
36243SOL    HW110562   8.829   9.891  13.202
36243SOL    HW210563   8.938   9.871  13.306
36244SOL     OW10564   9.156   0.372  14.361
36244SOL    HW110565   9.185   0.463  14.356
36244SOL    HW210566   9.237   0.321  14.367
36245SOL     OW10567  12.000   3.754   3.278
36245SOL    HW110568  12.075   3.804   3.245
36245SOL    HW210569  12.039   3.686   3.332
36246SOL     OW10570   6.007   8.756  12.054
36246SOL    HW110571   5.973   8.753  11.965
36246SOL    HW210572   6.020   8.665  12.079
36247SOL     OW10573   5.438  10.124   1.998
36247SOL    HW110574   5.442  10.075   2.081
36247SOL    HW210575   5.515  10.181   2.001
36248SOL     OW10576  12.202  12.385   5.381
36248SOL    HW110577  12.146  12.365   5.306
36248SOL    HW210578  12.279  12.427   5.343
36249SOL     OW10579  14.718  10.695   4.234
36249SOL    HW110580  14.666  10.634   4.286
36249SOL    HW210581  14.751  10.758   4.298
36250SOL     OW10582   1.832   8.462   2.406
36250SOL    HW110583   1.897   8.399   2.438
36250SOL    HW210584   1.817   8.437   2.316
36251SOL     OW10585   0.136   2.139  11.806
36251SOL    HW110586   0.068   2.159  11.742
36251SOL    HW210587   0.143   2.044  11.805
36252SOL     OW10588  11.298   5.874   4.928
36252SOL    HW110589  11.270   5.965   4.914
36252SOL    HW210590  11.286   5.832   4.843
36253SOL     OW10591  14.352   1.980   9.340
36253SOL    HW110592  14.443   1.959   9.361
36253SOL    HW210593  14.337   2.065   9.381
36254SOL     OW10594   6.481  14.155   9.940
36254SOL    HW110595   6.570  14.153   9.974
36254SOL    HW210596   6.488  14.120   9.851
36255SOL     OW10597   7.605   7.388  14.866
36255SOL    HW110598   7.582   7.330   0.060
36255SOL    HW210599   7.634   7.469   0.029
36256SOL     OW10600  12.346   4.145  14.856
36256SOL    HW110601  12.262   4.102  14.840
36256SOL    HW210602  12.338   4.183   0.064
36257SOL     OW10603   4.911  11.318   8.496
36257SOL    HW110604   4.910  11.380   8.423
36257SOL    HW210605   4.982  11.257   8.475
36258SOL     OW10606  10.217  12.991   5.920
36258SOL    HW110607  10.132  12.979   5.963
36258SOL    HW210608  10.280  12.995   5.992
36259SOL     OW10609   5.224   2.570   6.366
36259SOL    HW110610   5.128   2.577   6.370
36259SOL    HW210611   5.241   2.510   6.294
36260SOL     OW10612  11.957   1.368   8.274
36260SOL    HW110613  11.968   1.290   8.221
36260SOL    HW210614  12.006   1.436   8.227
36261SOL     OW10615  11.395   3.968   8.864
36261SOL    HW110616  11.455   3.951   8.937
36261SOL    HW210617  11.452   3.973   8.787
36262SOL     OW10618  14.334   2.677   5.237
36262SOL    HW110619  14.406   2.665   5.175
36262SOL    HW210620  14.299   2.590   5.252
36263SOL     OW10621  12.265   9.068   9.023
36263SOL    HW110622  12.327   9.137   9.044
36263SOL    HW210623  12.258   9.072   8.927
36264SOL     OW10624  13.681   1.309  11.524
36264SOL    HW110625  13.589   1.323  11.548
36264SOL    HW210626  13.724   1.286  11.605
36265SOL     OW10627   0.358  13.734  13.016
36265SOL    HW110628   0.281  13.696  12.974
36265SOL    HW210629   0.325  13.774  13.096
36266SOL     OW10630   7.500   7.754  14.090
36266SOL    HW110631   7.579   7.793  14.054
36266SOL    HW210632   7.529   7.713  14.172
36267SOL     OW10633  13.723   2.112  13.865
36267SOL    HW110634  13.764   2.107  13.779
36267SOL    HW210635  13.722   2.021  13.896
36268SOL     OW10636   7.204   2.638  14.650
36268SOL    HW110637   7.158   2.721  14.667
36268SOL    HW210638   7.144   2.571  14.683
36269SOL     OW10639   6.535  14.618   1.299
36269SOL    HW110640   6.587  14.662   1.367
36269SOL    HW210641   6.596  14.608   1.226
36270SOL     OW10642  10.109   1.121  14.239
36270SOL    HW110643  10.203   1.102  14.237
36270SOL    HW210644  10.100   1.206  14.196
36271SOL     OW10645   8.599   3.522  11.724
36271SOL    HW110646   8.675   3.464  11.735
36271SOL    HW210647   8.634   3.610  11.740
36272SOL     OW10648  10.368  13.027   6.149
36272SOL    HW110649  10.360  13.122   6.148
36272SOL    HW210650  10.455  13.010   6.111
36273SOL     OW10651  13.401   4.020  13.857
36273SOL    HW110652  13.397   3.930  13.825
36273SOL    HW210653  13.327   4.029  13.917
36274SOL     OW10654   1.996   0.402   8.041
36274SOL    HW110655   2.013   0.330   8.101
36274SOL    HW210656   1.979   0.478   8.098
36275SOL     OW10657   8.332   9.092   3.904
36275SOL    HW110658   8.274   9.033   3.857
36275SOL    HW210659   8.409   9.101   3.848
36276SOL     OW10660   0.405   5.821   6.070
36276SOL    HW110661   0.394   5.806   5.976
36276SOL    HW210662   0.480   5.767   6.094
36277SOL     OW10663   0.822   2.310   1.609
36277SOL    HW110664   0.857   2.399   1.610
36277SOL    HW210665   0.729   2.321   1.590
36278SOL     OW10666  10.511  14.752   7.671
36278SOL    HW110667  10.586  14.788   7.624
36278SOL    HW210668  10.536  14.758   7.764
36279SOL     OW10669  13.223   3.609   7.787
36279SOL    HW110670  13.259   3.556   7.859
36279SOL    HW210671  13.276   3.690   7.789
36280SOL     OW10672   7.793   7.264   4.513
36280SOL    HW110673   7.803   7.201   4.442
36280SOL    HW210674   7.701   7.257   4.538
36281SOL     OW10675   4.475  13.864  13.962
36281SOL    HW110676   4.408  13.796  13.972
36281SOL    HW210677   4.444  13.937  14.014
36282SOL     OW10678   3.514   5.031   2.376
36282SOL    HW110679   3.421   5.051   2.382
36282SOL    HW210680   3.521   4.941   2.407
36283SOL     OW10681   5.452  13.500   3.884
36283SOL    HW110682   5.471  13.444   3.809
36283SOL    HW210683   5.417  13.580   3.846
36284SOL     OW10684  13.726   9.677   9.603
36284SOL    HW110685  13.634   9.688   9.579
36284SOL    HW210686  13.733   9.587   9.635
36285SOL     OW10687   1.060   9.506  14.008
36285SOL    HW110688   1.152   9.479  14.019
36285SOL    HW210689   1.041   9.485  13.916
36286SOL     OW10690  11.480   5.712   1.006
36286SOL    HW110691  11.466   5.680   1.095
36286SOL    HW210692  11.407   5.675   0.956
36287SOL     OW10693   1.268   5.141   2.066
36287SOL    HW110694   1.191   5.155   2.011
36287SOL    HW210695   1.339   5.185   2.019
36288SOL     OW10696   6.443   3.711   8.463
36288SOL    HW110697   6.419   3.715   8.555
36288SOL    HW210698   6.538   3.696   8.464
36289SOL     OW10699   0.828   1.761   8.089
36289SOL    HW110700   0.871   1.685   8.128
36289SOL    HW210701   0.735   1.748   8.108
36290SOL     OW10702  12.582  10.194  13.154
36290SOL    HW110703  12.555  10.286  13.153
36290SOL    HW210704  12.521  10.151  13.095
36291SOL     OW10705   7.047  10.041  10.364
36291SOL    HW110706   7.033  10.115  10.423
36291SOL    HW210707   6.962   9.996  10.361
36292SOL     OW10708   4.205   7.123  11.973
36292SOL    HW110709   4.205   7.041  12.024
36292SOL    HW210710   4.275   7.111  11.909
36293SOL     OW10711  13.623   0.642   7.116
36293SOL    HW110712  13.629   0.669   7.207
36293SOL    HW210713  13.609   0.723   7.067
36294SOL     OW10714  13.152  11.559   6.405
36294SOL    HW110715  13.105  11.509   6.472
36294SOL    HW210716  13.123  11.521   6.322
36295SOL     OW10717  12.898   7.543  12.201
36295SOL    HW110718  12.989   7.552  12.176
36295SOL    HW210719  12.860   7.630  12.187
36296SOL     OW10720  12.664   8.092   5.516
36296SOL    HW110721  12.655   8.098   5.611
36296SOL    HW210722  12.656   8.182   5.486
36297SOL     OW10723   1.459  11.868   3.246
36297SOL    HW110724   1.514  11.790   3.244
36297SOL    HW210725   1.486  11.919   3.170
36298SOL     OW10726   1.003  11.380   1.487
36298SOL    HW110727   1.057  11.454   1.458
36298SOL    HW210728   0.922  11.421   1.519
36299SOL     OW10729   9.511  11.814  13.338
36299SOL    HW110730   9.494  11.724  13.313
36299SOL    HW210731   9.584  11.842  13.282
36300SOL     OW10732   8.371  12.559   0.886
36300SOL    HW110733   8.349  12.528   0.799
36300SOL    HW210734   8.463  12.583   0.880
36301SOL     OW10735  12.449   3.172   4.158
36301SOL    HW110736  12.382   3.216   4.105
36301SOL    HW210737  12.433   3.079   4.146
36302SOL     OW10738  10.447   3.785   9.847
36302SOL    HW110739  10.543   3.788   9.855
36302SOL    HW210740  10.416   3.826   9.927
36303SOL     OW10741   3.760   7.121   2.445
36303SOL    HW110742   3.825   7.123   2.374
36303SOL    HW210743   3.708   7.043   2.427
36304SOL     OW10744  14.438   9.415  12.017
36304SOL    HW110745  14.345   9.411  12.041
36304SOL    HW210746  14.461   9.507  12.030
36305SOL     OW10747   6.866   8.103  11.080
36305SOL    HW110748   6.906   8.068  11.001
36305SOL    HW210749   6.936   8.102  11.146
36306SOL     OW10750   8.575   3.982   8.057
36306SOL    HW110751   8.580   4.070   8.019
36306SOL    HW210752   8.489   3.950   8.029
36307SOL     OW10753   6.964   4.559   2.755
36307SOL    HW110754   6.988   4.540   2.846
36307SOL    HW210755   6.992   4.649   2.741
36308SOL     OW10756   1.701   3.675   2.128
36308SOL    HW110757   1.748   3.698   2.047
36308SOL    HW210758   1.612   3.656   2.099
36309SOL     OW10759  11.064   2.817   4.669
36309SOL    HW110760  11.093   2.769   4.747
36309SOL    HW210761  11.135   2.879   4.652
36310SOL     OW10762   5.298   6.566   6.131
36310SOL    HW110763   5.236   6.610   6.189
36310SOL    HW210764   5.348   6.508   6.189
36311SOL     OW10765  14.436  10.958   8.072
36311SOL    HW110766  14.466  10.930   8.159
36311SOL    HW210767  14.372  11.027   8.091
36312SOL     OW10768   4.956   3.531  12.217
36312SOL    HW110769   4.885   3.469  12.236
36312SOL    HW210770   4.912   3.616  12.210
36313SOL     OW10771  12.863  13.520   3.731
36313SOL    HW110772  12.795  13.520   3.664
36313SOL    HW210773  12.906  13.605   3.721
36314SOL     OW10774   6.377   3.066   3.055
36314SOL    HW110775   6.378   3.156   3.087
36314SOL    HW210776   6.295   3.030   3.088
36315SOL     OW10777   3.420   5.325   7.052
36315SOL    HW110778   3.398   5.302   6.962
36315SOL    HW210779   3.515   5.322   7.055
36316SOL     OW10780  14.132   1.098   1.090
36316SOL    HW110781  14.163   1.176   1.045
36316SOL    HW210782  14.048   1.123   1.128
36317SOL     OW10783   3.141  14.876   0.438
36317SOL    HW110784   3.076  14.827   0.387
36317SOL    HW210785   3.093   0.031   0.513
36318SOL     OW10786  10.405  11.303   1.576
36318SOL    HW110787  10.481  11.252   1.604
36318SOL    HW210788  10.334  11.239   1.571
36319SOL     OW10789   0.938   0.797   2.719
36319SOL    HW110790   0.976   0.801   2.807
36319SOL    HW210791   0.892   0.881   2.709
36320SOL     OW10792   3.233   5.668   4.316
36320SOL    HW110793   3.169   5.736   4.338
36320SOL    HW210794   3.318   5.709   4.334
36321SOL     OW10795   1.897   8.222  12.795
36321SOL    HW110796   1.888   8.316  12.780
36321SOL    HW210797   1.965   8.196  12.732
36322SOL     OW10798   4.360  14.499   3.084
36322SOL    HW110799   4.316  14.581   3.107
36322SOL    HW210800   4.291  14.432   3.092
36323SOL     OW10801   4.162   7.365   3.657
36323SOL    HW110802   4.075   7.402   3.641
36323SOL    HW210803   4.153   7.272   3.639
36324SOL     OW10804   5.974  12.992   3.867
36324SOL    HW110805   5.925  13.013   3.787
36324SOL    HW210806   5.912  12.941   3.920
36325SOL     OW10807   1.594   1.204   9.294
36325SOL    HW110808   1.563   1.118   9.267
36325SOL    HW210809   1.685   1.191   9.319
36326SOL     OW10810   4.376   1.481   1.608
36326SOL    HW110811   4.439   1.492   1.536
36326SOL    HW210812   4.304   1.430   1.570
36327SOL     OW10813   7.102  11.784   4.552
36327SOL    HW110814   7.100  11.878   4.570
36327SOL    HW210815   7.083  11.743   4.637
36328SOL     OW10816   1.975  12.378  11.051
36328SOL    HW110817   2.001  12.307  11.109
36328SOL    HW210818   1.904  12.422  11.097
36329SOL     OW10819   8.257   7.525   0.961
36329SOL    HW110820   8.272   7.599   0.902
36329SOL    HW210821   8.179   7.483   0.927
36330SOL     OW10822  12.132   4.724   5.049
36330SOL    HW110823  12.161   4.633   5.054
36330SOL    HW210824  12.192   4.772   5.106
36331SOL     OW10825  10.031   3.420   6.680
36331SOL    HW110826  10.067   3.488   6.737
36331SOL    HW210827   9.936   3.429   6.691
36332SOL     OW10828   8.432   4.573  11.174
36332SOL    HW110829   8.516   4.590  11.130
36332SOL    HW210830   8.398   4.660  11.194
36333SOL     OW10831   3.564   6.783   6.830
36333SOL    HW110832   3.643   6.731   6.811
36333SOL    HW210833   3.556   6.841   6.754
36334SOL     OW10834   4.552   5.640  12.704
36334SOL    HW110835   4.611   5.688  12.762
36334SOL    HW210836   4.562   5.549  12.730
36335SOL     OW10837   7.795   8.387  12.456
36335SOL    HW110838   7.860   8.317  12.458
36335SOL    HW210839   7.838   8.458  12.407
36336SOL     OW10840   7.637   9.140   4.441
36336SOL    HW110841   7.551   9.117   4.477
36336SOL    HW210842   7.620   9.213   4.382
36337SOL     OW10843   0.447  10.433   4.804
36337SOL    HW110844   0.518  10.402   4.860
36337SOL    HW210845   0.465  10.395   4.719
36338SOL     OW10846  12.774   3.130   6.889
36338SOL    HW110847  12.725   3.099   6.966
36338SOL    HW210848  12.805   3.050   6.848
36339SOL     OW10849  10.402   9.321  14.866
36339SOL    HW110850  10.322   9.324  14.813
36339SOL    HW210851  10.374   9.352   0.074
36340SOL     OW10852   4.923   3.536  13.119
36340SOL    HW110853   4.958   3.605  13.175
36340SOL    HW210854   5.000   3.486  13.092
36341SOL     OW10855  12.795   8.018   4.640
36341SOL    HW110856  12.766   7.934   4.605
36341SOL    HW210857  12.715   8.061   4.670
36342SOL     OW10858   5.374   1.858   6.825
36342SOL    HW110859   5.342   1.933   6.875
36342SOL    HW210860   5.443   1.820   6.879
36343SOL     OW10861   4.280  10.105   6.802
36343SOL    HW110862   4.228  10.098   6.722
36343SOL    HW210863   4.370  10.110   6.771
36344SOL     OW10864   2.590   9.758   9.746
36344SOL    HW110865   2.630   9.754   9.659
36344SOL    HW210866   2.604   9.672   9.784
36345SOL     OW10867  12.249   6.809   1.863
36345SOL    HW110868  12.301   6.869   1.809
36345SOL    HW210869  12.210   6.864   1.931
36346SOL     OW10870   2.647   1.302  13.895
36346SOL    HW110871   2.633   1.281  13.802
36346SOL    HW210872   2.741   1.293  13.908
36347SOL     OW10873   4.456  14.875  10.755
36347SOL    HW110874   4.427  14.792  10.793
36347SOL    HW210875   4.531   0.022  10.809
36348SOL     OW10876  13.572   5.803  11.452
36348SOL    HW110877  13.654   5.775  11.494
36348SOL    HW210878  13.504   5.751  11.495
36349SOL     OW10879  11.603   7.683   2.216
36349SOL    HW110880  11.571   7.625   2.147
36349SOL    HW210881  11.693   7.654   2.231
36350SOL     OW10882   0.166   3.773   7.484
36350SOL    HW110883   0.229   3.715   7.528
36350SOL    HW210884   0.112   3.714   7.432
36351SOL     OW10885  12.332  10.023  12.071
36351SOL    HW110886  12.409   9.981  12.110
36351SOL    HW210887  12.334   9.995  11.979
36352SOL     OW10888   2.101   0.969   8.406
36352SOL    HW110889   2.042   1.025   8.458
36352SOL    HW210890   2.043   0.920   8.348
36353SOL     OW10891  11.292   5.086  14.018
36353SOL    HW110892  11.386   5.083  13.999
36353SOL    HW210893  11.287   5.079  14.114
36354SOL     OW10894  12.764  12.544  14.667
36354SOL    HW110895  12.742  12.630  14.703
36354SOL    HW210896  12.748  12.553  14.573
36355SOL     OW10897   3.746  10.435   8.132
36355SOL    HW110898   3.692  10.432   8.211
36355SOL    HW210899   3.684  10.424   8.060
36356SOL     OW10900   6.077   9.322   6.641
36356SOL    HW110901   6.106   9.276   6.562
36356SOL    HW210902   6.026   9.396   6.609
36357SOL     OW10903   5.097   7.699   3.785
36357SOL    HW110904   5.032   7.720   3.851
36357SOL    HW210905   5.181   7.707   3.830
36358SOL     OW10906  10.860   7.210   6.345
36358SOL    HW110907  10.894   7.287   6.300
36358SOL    HW210908  10.931   7.183   6.403
36359SOL     OW10909  14.875   5.891   4.143
36359SOL    HW110910  14.828   5.810   4.161
36359SOL    HW210911  14.812   5.946   4.096
36360SOL     OW10912   6.374   6.665  11.771
36360SOL    HW110913   6.341   6.750  11.741
36360SOL    HW210914   6.353   6.605  11.699
36361SOL     OW10915  12.203   2.180  12.547
36361SOL    HW110916  12.150   2.249  12.508
36361SOL    HW210917  12.245   2.222  12.622
36362SOL     OW10918   1.793   6.392   3.664
36362SOL    HW110919   1.872   6.343   3.687
36362SOL    HW210920   1.825   6.469   3.617
36363SOL     OW10921  12.914  13.387   6.282
36363SOL    HW110922  12.931  13.421   6.370
36363SOL    HW210923  12.981  13.429   6.228
36364SOL     OW10924   8.869  13.409   2.970
36364SOL    HW110925   8.964  13.415   2.958
36364SOL    HW210926   8.836  13.491   2.934
36365SOL     OW10927   0.394   6.896  13.219
36365SOL    HW110928   0.342   6.848  13.284
36365SOL    HW210929   0.422   6.975  13.265
36366SOL     OW10930   3.840   3.804   2.179
36366SOL    HW110931   3.845   3.725   2.126
36366SOL    HW210932   3.916   3.798   2.238
36367SOL     OW10933   9.256   9.803   0.603
36367SOL    HW110934   9.174   9.753   0.598
36367SOL    HW210935   9.309   9.769   0.531
36368SOL     OW10936   1.586  11.999   9.414
36368SOL    HW110937   1.515  12.039   9.463
36368SOL    HW210938   1.571  12.026   9.323
36369SOL     OW10939   6.163   6.284  10.170
36369SOL    HW110940   6.229   6.350  10.149
36369SOL    HW210941   6.181   6.261  10.262
36370SOL     OW10942  10.557  11.293   1.859
36370SOL    HW110943  10.572  11.255   1.946
36370SOL    HW210944  10.630  11.261   1.806
36371SOL     OW10945  12.671   4.222  12.803
36371SOL    HW110946  12.630   4.305  12.777
36371SOL    HW210947  12.732   4.247  12.873
36372SOL     OW10948  12.567   0.188   9.000
36372SOL    HW110949  12.496   0.187   9.064
36372SOL    HW210950  12.607   0.101   9.007
36373SOL     OW10951   1.489   0.593   7.841
36373SOL    HW110952   1.459   0.680   7.868
36373SOL    HW210953   1.574   0.583   7.884
36374SOL     OW10954   4.653   3.545   9.113
36374SOL    HW110955   4.730   3.602   9.104
36374SOL    HW210956   4.689   3.461   9.141
36375SOL     OW10957   3.158   6.353   7.816
36375SOL    HW110958   3.089   6.289   7.800
36375SOL    HW210959   3.140   6.385   7.905
36376SOL     OW10960  13.373   8.434   3.909
36376SOL    HW110961  13.298   8.377   3.925
36376SOL    HW210962  13.409   8.404   3.826
36377SOL     OW10963  10.766   4.744  12.108
36377SOL    HW110964  10.718   4.827  12.114
36377SOL    HW210965  10.830   4.759  12.039
36378SOL     OW10966   5.469   1.576  12.185
36378SOL    HW110967   5.419   1.642  12.138
36378SOL    HW210968   5.546   1.560  12.129
36379SOL     OW10969   0.649   5.068   5.427
36379SOL    HW110970   0.738   5.102   5.417
36379SOL    HW210971   0.602   5.102   5.351
36380SOL     OW10972  12.141  11.540   9.090
36380SOL    HW110973  12.179  11.533   9.177
36380SOL    HW210974  12.077  11.469   9.085
36381SOL     OW10975   2.362   5.416  14.510
36381SOL    HW110976   2.373   5.321  14.510
36381SOL    HW210977   2.301   5.433  14.582
36382SOL     OW10978   8.023   0.207   2.405
36382SOL    HW110979   8.110   0.171   2.425
36382SOL    HW210980   8.014   0.282   2.464
36383SOL     OW10981  11.233   6.691  14.321
36383SOL    HW110982  11.226   6.601  14.354
36383SOL    HW210983  11.170   6.741  14.373
36384SOL     OW10984   2.488   5.880  10.375
36384SOL    HW110985   2.575   5.841  10.361
36384SOL    HW210986   2.505   5.974  10.381
36385SOL     OW10987  14.153   6.044  14.856
36385SOL    HW110988  14.094   6.019   0.048
36385SOL    HW210989  14.145   5.974  14.791
36386SOL     OW10990   8.809   5.472  14.839
36386SOL    HW110991   8.809   5.410  14.766
36386SOL    HW210992   8.727   5.520  14.830
36387SOL     OW10993   7.654   1.578   5.864
36387SOL    HW110994   7.746   1.556   5.880
36387SOL    HW210995   7.655   1.672   5.846
36388SOL     OW10996  13.076   1.654  12.559
36388SOL    HW110997  12.999   1.654  12.616
36388SOL    HW210998  13.105   1.745  12.558
36389SOL     OW10999   7.176   0.082   7.740
36389SOL    HW111000   7.267   0.107   7.755
36389SOL    HW211001   7.141   0.149   7.681
36390SOL     OW11002   5.194   5.548   7.541
36390SOL    HW111003   5.173   5.492   7.466
36390SOL    HW211004   5.153   5.505   7.616
36391SOL     OW11005   1.591  11.818   6.438
36391SOL    HW111006   1.561  11.907   6.420
36391SOL    HW211007   1.533  11.787   6.507
36392SOL     OW11008   7.834   2.582   5.255
36392SOL    HW111009   7.796   2.598   5.169
36392SOL    HW211010   7.929   2.581   5.240
36393SOL     OW11011   2.948   5.688   2.178
36393SOL    HW111012   2.860   5.693   2.213
36393SOL    HW211013   2.964   5.775   2.140
36394SOL     OW11014  13.265   5.800   3.683
36394SOL    HW111015  13.334   5.866   3.694
36394SOL    HW211016  13.220   5.799   3.768
36395SOL     OW11017   6.872   9.095   5.882
36395SOL    HW111018   6.839   9.114   5.794
36395SOL    HW211019   6.828   9.158   5.939
36396SOL     OW11020   7.174  13.435   4.022
36396SOL    HW111021   7.263  13.469   4.010
36396SOL    HW211022   7.129  13.458   3.941
36397SOL     OW11023  14.871   8.434   9.048
36397SOL    HW111024   0.081   8.472   9.045
36397SOL    HW211025  14.837   8.460   9.133
36398SOL     OW11026   4.336   6.505  12.558
36398SOL    HW111027   4.247   6.492  12.527
36398SOL    HW211028   4.327   6.523  12.651
36399SOL     OW11029  13.722   6.128  12.024
36399SOL    HW111030  13.772   6.069  11.969
36399SOL    HW211031  13.728   6.090  12.112
36400SOL     OW11032   3.008   5.560  10.866
36400SOL    HW111033   2.940   5.495  10.887
36400SOL    HW211034   3.031   5.597  10.951
36401SOL     OW11035  13.961   4.927  13.369
36401SOL    HW111036  13.933   4.989  13.437
36401SOL    HW211037  13.929   4.842  13.400
36402SOL     OW11038   6.113  10.648   2.605
36402SOL    HW111039   6.050  10.692   2.662
36402SOL    HW211040   6.063  10.628   2.525
36403SOL     OW11041   1.843   4.753  12.686
36403SOL    HW111042   1.839   4.797  12.771
36403SOL    HW211043   1.935   4.728  12.677
36404SOL     OW11044   9.535   4.774   9.891
36404SOL    HW111045   9.630   4.778   9.905
36404SOL    HW211046   9.498   4.760   9.978
36405SOL     OW11047   1.257   6.638   0.853
36405SOL    HW111048   1.323   6.663   0.788
36405SOL    HW211049   1.299   6.570   0.905
36406SOL     OW11050   5.151   5.781   6.380
36406SOL    HW111051   5.201   5.722   6.437
36406SOL    HW211052   5.148   5.863   6.428
36407SOL     OW11053   4.345   1.071   6.894
36407SOL    HW111054   4.329   0.982   6.863
36407SOL    HW211055   4.422   1.100   6.845
36408SOL     OW11056   6.814   4.524   3.436
36408SOL    HW111057   6.845   4.584   3.368
36408SOL    HW211058   6.885   4.460   3.445
36409SOL     OW11059   9.679  12.842   9.000
36409SOL    HW111060   9.638  12.927   9.017
36409SOL    HW211061   9.678  12.834   8.904
36410SOL     OW11062  14.431  11.782   8.314
36410SOL    HW111063  14.521  11.767   8.343
36410SOL    HW211064  14.427  11.875   8.293
36411SOL     OW11065   8.554   7.815   8.325
36411SOL    HW111066   8.479   7.765   8.293
36411SOL    HW211067   8.601   7.840   8.246
36412SOL     OW11068   8.248   3.502  13.140
36412SOL    HW111069   8.232   3.408  13.131
36412SOL    HW211070   8.163   3.543  13.126
36413SOL     OW11071   8.030  10.037   8.742
36413SOL    HW111072   8.062  10.001   8.825
36413SOL    HW211073   7.940  10.063   8.760
36414SOL     OW11074   0.688  12.188  14.156
36414SOL    HW111075   0.733  12.258  14.110
36414SOL    HW211076   0.745  12.112  14.146
36415SOL     OW11077   6.068  10.691   4.374
36415SOL    HW111078   6.037  10.610   4.414
36415SOL    HW211079   5.998  10.754   4.390
36416SOL     OW11080   1.485  10.846   2.637
36416SOL    HW111081   1.452  10.927   2.675
36416SOL    HW211082   1.538  10.806   2.706
36417SOL     OW11083   9.724   8.873   7.575
36417SOL    HW111084   9.794   8.906   7.519
36417SOL    HW211085   9.747   8.781   7.591
36418SOL     OW11086   9.598   4.725   1.955
36418SOL    HW111087   9.590   4.816   1.983
36418SOL    HW211088   9.544   4.719   1.876
36419SOL     OW11089  13.275   6.802   6.633
36419SOL    HW111090  13.324   6.783   6.553
36419SOL    HW211091  13.269   6.897   6.635
36420SOL     OW11092  10.771  12.900   9.810
36420SOL    HW111093  10.716  12.914   9.887
36420SOL    HW211094  10.792  12.807   9.811
36421SOL     OW11095   9.980  14.426   7.429
36421SOL    HW111096   9.915  14.377   7.479
36421SOL    HW211097  10.033  14.471   7.494
36422SOL     OW11098   7.610   9.521  14.025
36422SOL    HW111099   7.563   9.572  14.091
36422SOL    HW211100   7.638   9.442  14.071
36423SOL     OW11101   1.666   3.811   1.693
36423SOL    HW111102   1.587   3.759   1.709
36423SOL    HW211103   1.637   3.902   1.695
36424SOL     OW11104   9.868   0.158  12.274
36424SOL    HW111105   9.908   0.074  12.249
36424SOL    HW211106   9.786   0.161  12.223
36425SOL     OW11107   6.554  14.003   4.849
36425SOL    HW111108   6.561  13.925   4.794
36425SOL    HW211109   6.643  14.017   4.881
36426SOL     OW11110   3.797   7.126  12.427
36426SOL    HW111111   3.801   7.048  12.482
36426SOL    HW211112   3.888   7.151  12.414
36427SOL     OW11113   6.052   0.075   8.494
36427SOL    HW111114   6.094   0.040   8.573
36427SOL    HW211115   6.040   0.168   8.514
36428SOL     OW11116  10.751   8.794  14.823
36428SOL    HW111117  10.693   8.861  14.788
36428SOL    HW211118  10.833   8.839  14.840
36429SOL     OW11119  13.067  10.506   0.501
36429SOL    HW111120  13.133  10.553   0.552
36429SOL    HW211121  12.984  10.546   0.526
36430SOL     OW11122   7.928   3.225   7.295
36430SOL    HW111123   8.007   3.262   7.334
36430SOL    HW211124   7.938   3.131   7.305
36431SOL     OW11125   6.590  14.668   7.437
36431SOL    HW111126   6.632  14.632   7.515
36431SOL    HW211127   6.648  14.642   7.365
36432SOL     OW11128   0.101   5.797   1.195
36432SOL    HW111129   0.167   5.730   1.214
36432SOL    HW211130   0.090   5.843   1.278
36433SOL     OW11131   6.381   0.851   2.844
36433SOL    HW111132   6.351   0.886   2.760
36433SOL    HW211133   6.422   0.767   2.822
36434SOL     OW11134   2.461   8.377   1.142
36434SOL    HW111135   2.475   8.348   1.052
36434SOL    HW211136   2.394   8.445   1.135
36435SOL     OW11137  11.405   9.806   8.514
36435SOL    HW111138  11.441   9.810   8.602
36435SOL    HW211139  11.341   9.735   8.518
36436SOL     OW11140   8.098  11.796   3.293
36436SOL    HW111141   8.134  11.720   3.248
36436SOL    HW211142   8.169  11.860   3.293
36437SOL     OW11143  10.299  13.660   8.252
36437SOL    HW111144  10.259  13.573   8.258
36437SOL    HW211145  10.226  13.721   8.261
36438SOL     OW11146   7.120   9.236   8.844
36438SOL    HW111147   7.037   9.194   8.820
36438SOL    HW211148   7.142   9.289   8.768
36439SOL     OW11149   5.102   2.433   6.620
36439SOL    HW111150   5.030   2.481   6.581
36439SOL    HW211151   5.067   2.400   6.703
36440SOL     OW11152   0.988  11.461   0.081
36440SOL    HW111153   0.990  11.555   0.067
36440SOL    HW211154   0.982  11.424  14.871
36441SOL     OW11155  13.238   1.814   4.548
36441SOL    HW111156  13.252   1.723   4.520
36441SOL    HW211157  13.293   1.866   4.489
36442SOL     OW11158   9.333   2.913   4.600
36442SOL    HW111159   9.275   2.838   4.616
36442SOL    HW211160   9.273   2.985   4.580
36443SOL     OW11161  12.271  10.278   9.407
36443SOL    HW111162  12.341  10.336   9.438
36443SOL    HW211163  12.314  10.219   9.345
36444SOL     OW11164   7.640   1.992  10.164
36444SOL    HW111165   7.629   1.989  10.259
36444SOL    HW211166   7.716   1.938  10.146
36445SOL     OW11167   4.624  11.277  12.654
36445SOL    HW111168   4.595  11.297  12.565
36445SOL    HW211169   4.690  11.208  12.643
36446SOL     OW11170   3.411  13.786   5.638
36446SOL    HW111171   3.326  13.828   5.622
36446SOL    HW211172   3.457  13.795   5.554
36447SOL     OW11173   5.958   2.530   2.875
36447SOL    HW111174   5.937   2.499   2.787
36447SOL    HW211175   5.982   2.622   2.863
36448SOL     OW11176   1.996   1.140   3.214
36448SOL    HW111177   1.960   1.122   3.300
36448SOL    HW211178   2.083   1.099   3.215
36449SOL     OW11179   0.239   6.931  10.792
36449SOL    HW111180   0.283   6.853  10.828
36449SOL    HW211181   0.288   7.005  10.829
36450SOL     OW11182   3.384   0.456  11.228
36450SOL    HW111183   3.337   0.419  11.153
36450SOL    HW211184   3.381   0.551  11.213
36451SOL     OW11185   5.338  12.448  10.055
36451SOL    HW111186   5.332  12.386  10.128
36451SOL    HW211187   5.347  12.534  10.097
36452SOL     OW11188   4.517  12.647   9.212
36452SOL    HW111189   4.509  12.640   9.117
36452SOL    HW211190   4.541  12.560   9.241
36453SOL     OW11191   6.654   7.680   2.228
36453SOL    HW111192   6.631   7.740   2.299
36453SOL    HW211193   6.592   7.701   2.158
36454SOL     OW11194  10.083  14.020   1.930
36454SOL    HW111195  10.082  13.926   1.952
36454SOL    HW211196  10.169  14.050   1.959
36455SOL     OW11197   4.045   5.500   6.373
36455SOL    HW111198   3.994   5.544   6.306
36455SOL    HW211199   4.043   5.407   6.349
36456SOL     OW11200   0.871   5.561   9.914
36456SOL    HW111201   0.919   5.623   9.861
36456SOL    HW211202   0.916   5.477   9.902
36457SOL     OW11203   0.453   6.082   7.805
36457SOL    HW111204   0.470   6.173   7.829
36457SOL    HW211205   0.430   6.039   7.887
36458SOL     OW11206  11.373   2.102   8.033
36458SOL    HW111207  11.458   2.063   8.053
36458SOL    HW211208  11.317   2.076   8.106
36459SOL     OW11209   8.576   3.155   7.405
36459SOL    HW111210   8.518   3.228   7.382
36459SOL    HW211211   8.591   3.165   7.499
36460SOL     OW11212   9.030  11.094   9.581
36460SOL    HW111213   8.962  11.027   9.592
36460SOL    HW211214   9.112  11.045   9.585
36461SOL     OW11215   6.338   1.453   8.097
36461SOL    HW111216   6.259   1.400   8.083
36461SOL    HW211217   6.387   1.446   8.015
36462SOL     OW11218  13.799   9.774   0.303
36462SOL    HW111219  13.868   9.776   0.237
36462SOL    HW211220  13.778   9.866   0.319
36463SOL     OW11221  13.156   5.445   1.482
36463SOL    HW111222  13.241   5.425   1.442
36463SOL    HW211223  13.160   5.405   1.569
36464SOL     OW11224  14.303  10.835   5.956
36464SOL    HW111225  14.298  10.747   5.918
36464SOL    HW211226  14.214  10.852   5.988
36465SOL     OW11227   3.820   9.715  14.307
36465SOL    HW111228   3.906   9.679  14.331
36465SOL    HW211229   3.833   9.752  14.220
36466SOL     OW11230   4.394   4.399  11.970
36466SOL    HW111231   4.434   4.360  11.893
36466SOL    HW211232   4.451   4.375  12.043
36467SOL     OW11233   0.953  14.188  10.571
36467SOL    HW111234   0.990  14.109  10.533
36467SOL    HW211235   1.014  14.213  10.640
36468SOL     OW11236   7.696   2.845   2.080
36468SOL    HW111237   7.746   2.897   2.017
36468SOL    HW211238   7.714   2.754   2.056
36469SOL     OW11239  14.623   5.543  10.229
36469SOL    HW111240  14.661   5.472  10.176
36469SOL    HW211241  14.671   5.539  10.312
36470SOL     OW11242  11.178   7.652   5.303
36470SOL    HW111243  11.218   7.647   5.216
36470SOL    HW211244  11.205   7.571   5.346
36471SOL     OW11245   8.625   8.490  13.602
36471SOL    HW111246   8.647   8.541  13.524
36471SOL    HW211247   8.609   8.556  13.669
36472SOL     OW11248   2.049   1.186   2.916
36472SOL    HW111249   2.090   1.129   2.980
36472SOL    HW211250   2.071   1.274   2.945
36473SOL     OW11251   5.911  12.891   1.928
36473SOL    HW111252   5.887  12.892   2.021
36473SOL    HW211253   5.890  12.802   1.899
36474SOL     OW11254  14.305   9.427  12.364
36474SOL    HW111255  14.369   9.497  12.356
36474SOL    HW211256  14.220   9.471  12.357
36475SOL     OW11257  13.431  10.184   7.988
36475SOL    HW111258  13.519  10.149   7.996
36475SOL    HW211259  13.440  10.277   8.007
36476SOL     OW11260   4.725  13.204   8.041
36476SOL    HW111261   4.754  13.134   7.982
36476SOL    HW211262   4.653  13.247   7.994
36477SOL     OW11263   5.413   8.962   8.723
36477SOL    HW111264   5.399   8.992   8.813
36477SOL    HW211265   5.508   8.966   8.711
36478SOL     OW11266   6.719  11.615  14.271
36478SOL    HW111267   6.806  11.642  14.242
36478SOL    HW211268   6.708  11.658  14.356
36479SOL     OW11269   1.579  12.617   2.305
36479SOL    HW111270   1.525  12.614   2.385
36479SOL    HW211271   1.669  12.614   2.337
36480SOL     OW11272  14.473   5.191  11.350
36480SOL    HW111273  14.489   5.226  11.263
36480SOL    HW211274  14.491   5.098  11.343
36481SOL     OW11275   3.222   2.704   6.785
36481SOL    HW111276   3.140   2.700   6.835
36481SOL    HW211277   3.268   2.780   6.821
36482SOL     OW11278  13.789  12.214   0.233
36482SOL    HW111279  13.777  12.124   0.265
36482SOL    HW211280  13.744  12.215   0.149
36483SOL     OW11281   4.094  10.450   7.604
36483SOL    HW111282   4.006  10.487   7.607
36483SOL    HW211283   4.091  10.387   7.531
36484SOL     OW11284  14.848   9.389  11.403
36484SOL    HW111285  14.828   9.298  11.427
36484SOL    HW211286  14.781   9.411  11.339
36485SOL     OW11287   8.198   8.119   0.178
36485SOL    HW111288   8.273   8.105   0.237
36485SOL    HW211289   8.232   8.177   0.110
36486SOL     OW11290   8.292   8.833   5.926
36486SOL    HW111291   8.347   8.904   5.894
36486SOL    HW211292   8.278   8.853   6.019
36487SOL     OW11293  10.682  11.923   1.409
36487SOL    HW111294  10.693  11.972   1.327
36487SOL    HW211295  10.635  11.844   1.384
36488SOL     OW11296   3.541  12.053   7.911
36488SOL    HW111297   3.624  12.047   7.862
36488SOL    HW211298   3.478  12.009   7.855
36489SOL     OW11299   4.186   5.353   0.875
36489SOL    HW111300   4.265   5.319   0.835
36489SOL    HW211301   4.139   5.398   0.804
36490SOL     OW11302   5.791  10.137  13.713
36490SOL    HW111303   5.846  10.078  13.660
36490SOL    HW211304   5.810  10.224  13.679
36491SOL     OW11305   8.572  12.236  14.699
36491SOL    HW111306   8.490  12.186  14.702
36491SOL    HW211307   8.545  12.326  14.715
36492SOL     OW11308   3.796   5.163  14.621
36492SOL    HW111309   3.708   5.177  14.657
36492SOL    HW211310   3.831   5.089  14.672
36493SOL     OW11311   9.304   3.157  12.652
36493SOL    HW111312   9.384   3.105  12.650
36493SOL    HW211313   9.332   3.242  12.687
36494SOL     OW11314   9.118   6.727   2.957
36494SOL    HW111315   9.164   6.690   3.033
36494SOL    HW211316   9.076   6.806   2.991
36495SOL     OW11317  11.188  12.533  12.557
36495SOL    HW111318  11.182  12.565  12.467
36495SOL    HW211319  11.277  12.498  12.564
36496SOL     OW11320   1.351  13.771   2.455
36496SOL    HW111321   1.294  13.842   2.425
36496SOL    HW211322   1.340  13.770   2.550
36497SOL     OW11323   9.808   5.374  13.779
36497SOL    HW111324   9.820   5.469  13.775
36497SOL    HW211325   9.801   5.354  13.872
36498SOL     OW11326   8.335   3.732  11.010
36498SOL    HW111327   8.311   3.696  11.095
36498SOL    HW211328   8.321   3.660  10.948
36499SOL     OW11329  11.197   4.269   9.674
36499SOL    HW111330  11.224   4.341   9.616
36499SOL    HW211331  11.178   4.312   9.757
36500SOL     OW11332   5.595  12.511   6.211
36500SOL    HW111333   5.605  12.417   6.228
36500SOL    HW211334   5.652  12.528   6.136
36501SOL     OW11335  13.616   0.235   0.146
36501SOL    HW111336  13.680   0.305   0.132
36501SOL    HW211337  13.661   0.155   0.121
36502SOL     OW11338  10.095   9.222   3.578
36502SOL    HW111339  10.060   9.293   3.524
36502SOL    HW211340  10.017   9.180   3.616
36503SOL     OW11341   8.489   7.835   2.420
36503SOL    HW111342   8.485   7.903   2.488
36503SOL    HW211343   8.406   7.844   2.373
36504SOL     OW11344   2.839   9.389   2.672
36504SOL    HW111345   2.748   9.414   2.655
36504SOL    HW211346   2.841   9.370   2.766
36505SOL     OW11347   9.341   0.223   8.211
36505SOL    HW111348   9.342   0.313   8.241
36505SOL    HW211349   9.406   0.219   8.141
36506SOL     OW11350   3.636   0.266   1.658
36506SOL    HW111351   3.645   0.301   1.570
36506SOL    HW211352   3.590   0.183   1.646
36507SOL     OW11353   9.868  10.612   7.577
36507SOL    HW111354   9.854  10.649   7.664
36507SOL    HW211355   9.890  10.687   7.523
36508SOL     OW11356  10.814   1.218  11.114
36508SOL    HW111357  10.782   1.135  11.079
36508SOL    HW211358  10.909   1.211  11.111
36509SOL     OW11359   8.271   1.071   1.375
36509SOL    HW111360   8.335   1.138   1.351
36509SOL    HW211361   8.324   0.993   1.394
36510SOL     OW11362   7.061  14.177   7.003
36510SOL    HW111363   7.119  14.219   7.067
36510SOL    HW211364   7.096  14.202   6.918
36511SOL     OW11365  11.012  13.062  13.646
36511SOL    HW111366  11.092  13.103  13.677
36511SOL    HW211367  10.991  13.109  13.565
36512SOL     OW11368  11.213  12.795   7.606
36512SOL    HW111369  11.246  12.874   7.649
36512SOL    HW211370  11.290  12.739   7.597
36513SOL     OW11371   2.390  13.131   4.480
36513SOL    HW111372   2.467  13.177   4.514
36513SOL    HW211373   2.365  13.180   4.402
36514SOL     OW11374   2.491   9.053  11.592
36514SOL    HW111375   2.521   9.081  11.678
36514SOL    HW211376   2.406   9.011  11.608
36515SOL     OW11377   5.004   3.958   4.308
36515SOL    HW111378   4.930   3.964   4.368
36515SOL    HW211379   4.980   3.888   4.247
36516SOL     OW11380   9.562   6.733  13.668
36516SOL    HW111381   9.482   6.786  13.672
36516SOL    HW211382   9.554   6.685  13.585
36517SOL     OW11383   3.811   0.855   0.346
36517SOL    HW111384   3.837   0.876   0.435
36517SOL    HW211385   3.762   0.773   0.354
36518SOL     OW11386   0.167   1.902   1.655
36518SOL    HW111387   0.125   1.988   1.663
36518SOL    HW211388   0.250   1.919   1.610
36519SOL     OW11389  13.937   8.541   4.107
36519SOL    HW111390  13.988   8.462   4.091
36519SOL    HW211391  13.846   8.511   4.104
36520SOL     OW11392   8.082   5.637  11.166
36520SOL    HW111393   8.124   5.707  11.115
36520SOL    HW211394   8.004   5.615  11.116
36521SOL     OW11395   0.969  11.220   2.332
36521SOL    HW111396   0.946  11.127   2.325
36521SOL    HW211397   0.984  11.247   2.242
36522SOL     OW11398  14.712  14.528   2.206
36522SOL    HW111399  14.646  14.532   2.137
36522SOL    HW211400  14.675  14.580   2.278
36523SOL     OW11401  11.535   4.916   3.072
36523SOL    HW111402  11.547   4.922   3.166
36523SOL    HW211403  11.613   4.870   3.040
36524SOL     OW11404   0.781  12.293   6.950
36524SOL    HW111405   0.698  12.337   6.963
36524SOL    HW211406   0.785  12.228   7.020
36525SOL     OW11407   8.956  14.723   4.579
36525SOL    HW111408   8.976  14.673   4.499
36525SOL    HW211409   9.023  14.696   4.641
36526SOL     OW11410   0.791   1.741   3.500
36526SOL    HW111411   0.834   1.682   3.561
36526SOL    HW211412   0.847   1.819   3.499
36527SOL     OW11413   7.313   9.733   3.969
36527SOL    HW111414   7.263   9.772   4.041
36527SOL    HW211415   7.403   9.728   4.001
36528SOL     OW11416   3.972   7.306   1.951
36528SOL    HW111417   3.929   7.383   1.987
36528SOL    HW211418   3.972   7.320   1.856
36529SOL     OW11419   7.285   0.832   4.132
36529SOL    HW111420   7.342   0.818   4.208
36529SOL    HW211421   7.250   0.920   4.144
36530SOL     OW11422  14.865   9.883   0.190
36530SOL    HW111423  14.788   9.941   0.187
36530SOL    HW211424  14.878   9.858   0.098
36531SOL     OW11425   9.230  12.942   9.836
36531SOL    HW111426   9.196  12.983   9.757
36531SOL    HW211427   9.226  12.848   9.818
36532SOL     OW11428   8.258   1.523  10.895
36532SOL    HW111429   8.351   1.501  10.895
36532SOL    HW211430   8.213   1.439  10.880
36533SOL     OW11431   4.486   8.750   7.548
36533SOL    HW111432   4.571   8.709   7.531
36533SOL    HW211433   4.498   8.797   7.631
36534SOL     OW11434   4.882  12.789  13.890
36534SOL    HW111435   4.968  12.793  13.847
36534SOL    HW211436   4.890  12.718  13.954
36535SOL     OW11437  13.065   7.521   8.266
36535SOL    HW111438  13.044   7.438   8.308
36535SOL    HW211439  13.113   7.495   8.187
36536SOL     OW11440  11.659   5.462   5.738
36536SOL    HW111441  11.728   5.510   5.693
36536SOL    HW211442  11.682   5.468   5.831
36537SOL     OW11443   2.475   6.018   7.982
36537SOL    HW111444   2.449   6.110   7.988
36537SOL    HW211445   2.567   6.018   8.009
36538SOL     OW11446   2.135   8.083   4.431
36538SOL    HW111447   2.077   8.007   4.435
36538SOL    HW211448   2.221   8.045   4.408
36539SOL     OW11449   0.480  13.064  12.338
36539SOL    HW111450   0.472  12.986  12.284
36539SOL    HW211451   0.575  13.078  12.345
36540SOL     OW11452  10.532   6.147  11.529
36540SOL    HW111453  10.478   6.225  11.542
36540SOL    HW211454  10.469   6.074  11.529
36541SOL     OW11455   5.113  12.035   8.205
36541SOL    HW111456   5.019  12.040   8.221
36541SOL    HW211457   5.145  12.123   8.224
36542SOL     OW11458   9.396   3.047  13.747
36542SOL    HW111459   9.370   3.016  13.660
36542SOL    HW211460   9.476   3.097  13.732
36543SOL     OW11461   3.985   7.874   0.806
36543SOL    HW111462   3.963   7.952   0.857
36543SOL    HW211463   3.949   7.801   0.857
36544SOL     OW11464   8.849   7.043  11.845
36544SOL    HW111465   8.913   7.034  11.774
36544SOL    HW211466   8.789   6.969  11.832
36545SOL     OW11467   0.986  14.250   2.530
36545SOL    HW111468   0.930  14.193   2.583
36545SOL    HW211469   1.041  14.295   2.593
36546SOL     OW11470  11.525   8.754  10.738
36546SOL    HW111471  11.580   8.765  10.816
36546SOL    HW211472  11.440   8.726  10.771
36547SOL     OW11473   9.975   7.180   1.307
36547SOL    HW111474  10.022   7.209   1.229
36547SOL    HW211475   9.909   7.247   1.323
36548SOL     OW11476  12.975   8.977   1.822
36548SOL    HW111477  13.028   9.045   1.864
36548SOL    HW211478  13.018   8.895   1.846
36549SOL     OW11479   2.087   9.708   3.251
36549SOL    HW111480   2.085   9.785   3.195
36549SOL    HW211481   2.166   9.661   3.224
36550SOL     OW11482   5.540   1.147  14.199
36550SOL    HW111483   5.469   1.211  14.193
36550SOL    HW211484   5.584   1.154  14.114
36551SOL     OW11485  14.453   8.802   3.080
36551SOL    HW111486  14.478   8.722   3.126
36551SOL    HW211487  14.425   8.772   2.994
36552SOL     OW11488  14.226   7.221   1.417
36552SOL    HW111489  14.147   7.179   1.451
36552SOL    HW211490  14.195   7.274   1.344
36553SOL     OW11491   7.968  14.248  11.828
36553SOL    HW111492   8.035  14.260  11.895
36553SOL    HW211493   7.982  14.320  11.767
36554SOL     OW11494   7.761   5.712  13.559
36554SOL    HW111495   7.711   5.752  13.630
36554SOL    HW211496   7.700   5.650  13.519
36555SOL     OW11497  10.649   6.550   6.215
36555SOL    HW111498  10.629   6.591   6.299
36555SOL    HW211499  10.626   6.458   6.227
36556SOL     OW11500  13.223  14.141   6.063
36556SOL    HW111501  13.158  14.080   6.097
36556SOL    HW211502  13.305  14.091   6.062
36557SOL     OW11503   1.145   0.075  10.431
36557SOL    HW111504   1.074   0.045  10.488
36557SOL    HW211505   1.171  14.877  10.380
36558SOL     OW11506  13.522   4.165   6.201
36558SOL    HW111507  13.552   4.250   6.169
36558SOL    HW211508  13.506   4.113   6.122
36559SOL     OW11509   5.304   1.128   0.278
36559SOL    HW111510   5.284   1.219   0.255
36559SOL    HW211511   5.220   1.092   0.306
36560SOL     OW11512   6.881   0.268  11.067
36560SOL    HW111513   6.944   0.336  11.042
36560SOL    HW211514   6.902   0.194  11.011
36561SOL     OW11515   1.263  13.605   1.863
36561SOL    HW111516   1.288  13.528   1.811
36561SOL    HW211517   1.168  13.611   1.853
36562SOL     OW11518   5.878   7.009   4.976
36562SOL    HW111519   5.961   7.057   4.980
36562SOL    HW211520   5.896   6.926   5.019
36563SOL     OW11521   4.078  13.156  13.504
36563SOL    HW111522   4.109  13.140  13.593
36563SOL    HW211523   4.112  13.244  13.483
36564SOL     OW11524   8.923  11.174   0.944
36564SOL    HW111525   8.923  11.222   1.027
36564SOL    HW211526   8.830  11.170   0.920
36565SOL     OW11527  14.668   7.728   8.527
36565SOL    HW111528  14.701   7.806   8.482
36565SOL    HW211529  14.667   7.752   8.620
36566SOL     OW11530  13.212  10.392  12.384
36566SOL    HW111531  13.154  10.449  12.435
36566SOL    HW211532  13.275  10.452  12.344
36567SOL     OW11533   5.670   0.831   4.719
36567SOL    HW111534   5.670   0.829   4.815
36567SOL    HW211535   5.619   0.754   4.694
36568SOL     OW11536   0.852   1.547   9.183
36568SOL    HW111537   0.794   1.473   9.202
36568SOL    HW211538   0.815   1.620   9.232
36569SOL     OW11539   4.904   2.743   7.056
36569SOL    HW111540   4.939   2.797   6.985
36569SOL    HW211541   4.876   2.805   7.123
36570SOL     OW11542   4.772   3.148  12.422
36570SOL    HW111543   4.836   3.193  12.478
36570SOL    HW211544   4.691   3.148  12.473
36571SOL     OW11545   8.286  13.223  11.773
36571SOL    HW111546   8.224  13.196  11.840
36571SOL    HW211547   8.314  13.142  11.732
36572SOL     OW11548   8.839   9.422  10.732
36572SOL    HW111549   8.828   9.515  10.751
36572SOL    HW211550   8.819   9.414  10.638
36573SOL     OW11551  11.729   5.763  12.311
36573SOL    HW111552  11.687   5.716  12.240
36573SOL    HW211553  11.761   5.844  12.271
36574SOL     OW11554   5.469  11.946  11.664
36574SOL    HW111555   5.490  11.896  11.743
36574SOL    HW211556   5.554  11.976  11.631
36575SOL     OW11557   7.800   3.170   2.988
36575SOL    HW111558   7.757   3.255   2.982
36575SOL    HW211559   7.819   3.158   3.081
36576SOL     OW11560   3.563   5.669  14.539
36576SOL    HW111561   3.472   5.640  14.528
36576SOL    HW211562   3.556   5.763  14.557
36577SOL     OW11563   8.694  11.097   7.722
36577SOL    HW111564   8.730  11.186   7.717
36577SOL    HW211565   8.754  11.044   7.669
36578SOL     OW11566   7.212  13.028   7.145
36578SOL    HW111567   7.189  13.117   7.118
36578SOL    HW211568   7.267  12.995   7.074
36579SOL     OW11569  14.138   2.639   0.801
36579SOL    HW111570  14.150   2.734   0.790
36579SOL    HW211571  14.214   2.612   0.853
36580SOL     OW11572   9.789  12.560   5.429
36580SOL    HW111573   9.836  12.476   5.425
36580SOL    HW211574   9.853  12.624   5.398
36581SOL     OW11575   8.606   7.384  14.574
36581SOL    HW111576   8.639   7.383  14.484
36581SOL    HW211577   8.637   7.467  14.610
36582SOL     OW11578   8.449   0.377   3.095
36582SOL    HW111579   8.517   0.444   3.083
36582SOL    HW211580   8.394   0.411   3.166
36583SOL     OW11581   8.974  10.807   6.082
36583SOL    HW111582   8.891  10.851   6.068
36583SOL    HW211583   8.953  10.729   6.133
36584SOL     OW11584   1.590   6.135   6.039
36584SOL    HW111585   1.596   6.040   6.047
36584SOL    HW211586   1.502   6.156   6.073
36585SOL     OW11587  14.108   0.146   1.580
36585SOL    HW111588  14.044   0.117   1.645
36585SOL    HW211589  14.064   0.216   1.532
36586SOL     OW11590  11.102   3.707  12.324
36586SOL    HW111591  11.028   3.731  12.268
36586SOL    HW211592  11.075   3.624  12.365
36587SOL     OW11593  14.069  11.190   0.389
36587SOL    HW111594  14.003  11.183   0.320
36587SOL    HW211595  14.023  11.162   0.468
36588SOL     OW11596   2.630   5.738  11.023
36588SOL    HW111597   2.652   5.788  10.944
36588SOL    HW211598   2.553   5.782  11.059
36589SOL     OW11599  12.843   0.698  12.775
36589SOL    HW111600  12.873   0.694  12.866
36589SOL    HW211601  12.789   0.777  12.771
36590SOL     OW11602   0.628   7.070  14.852
36590SOL    HW111603   0.547   7.034  14.816
36590SOL    HW211604   0.651   7.141  14.793
36591SOL     OW11605   1.798   3.436   8.263
36591SOL    HW111606   1.720   3.492   8.254
36591SOL    HW211607   1.775   3.355   8.217
36592SOL     OW11608   9.872  14.155  14.701
36592SOL    HW111609   9.838  14.237  14.665
36592SOL    HW211610   9.801  14.092  14.691
36593SOL     OW11611   0.194   7.094   2.369
36593SOL    HW111612   0.194   7.153   2.444
36593SOL    HW211613   0.250   7.021   2.395
36594SOL     OW11614   6.456  13.411   9.135
36594SOL    HW111615   6.400  13.334   9.141
36594SOL    HW211616   6.545  13.375   9.129
36595SOL     OW11617   1.385   9.566   3.001
36595SOL    HW111618   1.447   9.551   3.072
36595SOL    HW211619   1.299   9.553   3.041
36596SOL     OW11620   3.891   2.223   3.681
36596SOL    HW111621   3.798   2.237   3.667
36596SOL    HW211622   3.932   2.306   3.656
36597SOL     OW11623   6.737   2.246   3.516
36597SOL    HW111624   6.744   2.340   3.532
36597SOL    HW211625   6.763   2.234   3.425
36598SOL     OW11626  12.175  12.246   3.868
36598SOL    HW111627  12.149  12.338   3.867
36598SOL    HW211628  12.243  12.241   3.935
36599SOL     OW11629  11.773   2.499   1.190
36599SOL    HW111630  11.728   2.464   1.267
36599SOL    HW211631  11.702   2.526   1.131
36600SOL     OW11632   5.028  14.295  14.158
36600SOL    HW111633   5.007  14.259  14.072
36600SOL    HW211634   5.046  14.387  14.142
36601SOL     OW11635  10.305   3.966  11.564
36601SOL    HW111636  10.212   3.988  11.558
36601SOL    HW211637  10.312   3.880  11.524
36602SOL     OW11638   3.622   2.250   0.725
36602SOL    HW111639   3.678   2.240   0.648
36602SOL    HW211640   3.683   2.251   0.798
36603SOL     OW11641   3.078   8.095   2.439
36603SOL    HW111642   2.987   8.101   2.410
36603SOL    HW211643   3.075   8.113   2.533
36604SOL     OW11644   0.671   7.962   3.119
36604SOL    HW111645   0.684   8.047   3.160
36604SOL    HW211646   0.634   7.982   3.033
36605SOL     OW11647  13.981  14.076  14.346
36605SOL    HW111648  14.057  14.075  14.289
36605SOL    HW211649  13.911  14.035  14.294
36606SOL     OW11650   9.427  13.671   7.748
36606SOL    HW111651   9.464  13.604   7.690
36606SOL    HW211652   9.406  13.624   7.828
36607SOL     OW11653  13.785   2.347  13.539
36607SOL    HW111654  13.858   2.399  13.502
36607SOL    HW211655  13.754   2.399  13.613
36608SOL     OW11656   5.380   0.198   3.759
36608SOL    HW111657   5.366   0.218   3.666
36608SOL    HW211658   5.455   0.138   3.759
36609SOL     OW11659   6.787  12.477  11.793
36609SOL    HW111660   6.817  12.466  11.703
36609SOL    HW211661   6.840  12.415  11.844
36610SOL     OW11662  11.449  14.135   3.469
36610SOL    HW111663  11.376  14.120   3.409
36610SOL    HW211664  11.444  14.228   3.490
36611SOL     OW11665  14.756  13.224  11.227
36611SOL    HW111666  14.756  13.194  11.136
36611SOL    HW211667  14.805  13.306  11.226
36612SOL     OW11668  10.482  10.777   9.657
36612SOL    HW111669  10.493  10.779   9.752
36612SOL    HW211670  10.510  10.689   9.631
36613SOL     OW11671   9.405   3.438  11.917
36613SOL    HW111672   9.316   3.444  11.952
36613SOL    HW211673   9.438   3.528  11.921
36614SOL     OW11674  14.182  14.209   0.150
36614SOL    HW111675  14.097  14.188   0.188
36614SOL    HW211676  14.174  14.300   0.122
36615SOL     OW11677  12.467  10.342   1.435
36615SOL    HW111678  12.550  10.387   1.449
36615SOL    HW211679  12.433  10.326   1.523
36616SOL     OW11680   9.215   3.127  13.927
36616SOL    HW111681   9.282   3.106  13.861
36616SOL    HW211682   9.132   3.109  13.883
36617SOL     OW11683   2.188   7.284   7.933
36617SOL    HW111684   2.190   7.189   7.945
36617SOL    HW211685   2.261   7.317   7.986
36618SOL     OW11686  13.054   8.004  11.899
36618SOL    HW111687  13.076   7.914  11.921
36618SOL    HW211688  12.959   8.004  11.891
36619SOL     OW11689   6.092   7.550  12.889
36619SOL    HW111690   6.093   7.574  12.982
36619SOL    HW211691   6.001   7.561  12.863
36620SOL     OW11692   9.014  12.930   6.082
36620SOL    HW111693   9.039  12.867   6.150
36620SOL    HW211694   8.937  12.892   6.041
36621SOL     OW11695   8.216   3.134   2.990
36621SOL    HW111696   8.183   3.086   2.914
36621SOL    HW211697   8.207   3.073   3.063
36622SOL     OW11698   6.700  12.519   0.891
36622SOL    HW111699   6.685  12.611   0.868
36622SOL    HW211700   6.735  12.479   0.811
36623SOL     OW11701   4.171   0.415   9.344
36623SOL    HW111702   4.112   0.433   9.417
36623SOL    HW211703   4.189   0.321   9.351
36624SOL     OW11704  11.030   6.150   8.171
36624SOL    HW111705  11.026   6.246   8.168
36624SOL    HW211706  11.075   6.131   8.253
36625SOL     OW11707   1.515  11.221   5.457
36625SOL    HW111708   1.598  11.216   5.506
36625SOL    HW211709   1.533  11.284   5.388
36626SOL     OW11710   6.250  13.927  10.771
36626SOL    HW111711   6.272  13.860  10.706
36626SOL    HW211712   6.193  13.988  10.725
36627SOL     OW11713   3.392   3.201   3.764
36627SOL    HW111714   3.364   3.120   3.720
36627SOL    HW211715   3.423   3.257   3.693
36628SOL     OW11716   3.377   5.541  14.796
36628SOL    HW111717   3.373   5.615  14.857
36628SOL    HW211718   3.470   5.517  14.795
36629SOL     OW11719  12.635   9.249   7.070
36629SOL    HW111720  12.594   9.186   7.130
36629SOL    HW211721  12.729   9.231   7.077
36630SOL     OW11722   3.200   7.165   5.295
36630SOL    HW111723   3.238   7.224   5.360
36630SOL    HW211724   3.147   7.104   5.346
36631SOL     OW11725   1.101   4.270   9.569
36631SOL    HW111726   1.042   4.226   9.507
36631SOL    HW211727   1.188   4.264   9.528
36632SOL     OW11728   0.027   5.994  13.723
36632SOL    HW111729   0.013   6.019  13.815
36632SOL    HW211730  14.819   6.000  13.683
36633SOL     OW11731   4.694   1.199   5.625
36633SOL    HW111732   4.645   1.281   5.620
36633SOL    HW211733   4.771   1.214   5.570
36634SOL     OW11734  12.695  11.067   6.322
36634SOL    HW111735  12.727  11.055   6.411
36634SOL    HW211736  12.689  11.162   6.311
36635SOL     OW11737   1.017   3.586   8.354
36635SOL    HW111738   0.933   3.618   8.386
36635SOL    HW211739   1.078   3.601   8.426
36636SOL     OW11740   6.759  13.337   9.907
36636SOL    HW111741   6.853  13.351   9.922
36636SOL    HW211742   6.719  13.420   9.932
36637SOL     OW11743   0.013  11.753   5.744
36637SOL    HW111744   0.104  11.730   5.725
36637SOL    HW211745   0.019  11.823   5.809
36638SOL     OW11746   6.004   7.975  13.360
36638SOL    HW111747   5.964   7.979  13.273
36638SOL    HW211748   6.039   8.063  13.375
36639SOL     OW11749  10.405  13.108   7.211
36639SOL    HW111750  10.363  13.169   7.272
36639SOL    HW211751  10.498  13.125   7.220
36640SOL     OW11752  13.797   2.382   1.639
36640SOL    HW111753  13.837   2.295   1.641
36640SOL    HW211754  13.843   2.428   1.568
36641SOL     OW11755   8.656   1.042   5.524
36641SOL    HW111756   8.582   1.004   5.572
36641SOL    HW211757   8.678   1.121   5.573
36642SOL     OW11758  13.074   6.083   1.094
36642SOL    HW111759  13.033   5.997   1.092
36642SOL    HW211760  13.112   6.094   1.007
36643SOL     OW11761  12.160   3.863   4.758
36643SOL    HW111762  12.166   3.797   4.689
36643SOL    HW211763  12.145   3.813   4.838
36644SOL     OW11764   5.815   0.713  12.160
36644SOL    HW111765   5.847   0.642  12.104
36644SOL    HW211766   5.891   0.771  12.170
36645SOL     OW11767  10.634   1.702   8.234
36645SOL    HW111768  10.677   1.784   8.257
36645SOL    HW211769  10.568   1.688   8.302
36646SOL     OW11770  10.971   4.399  14.802
36646SOL    HW111771  10.944   4.444   0.003
36646SOL    HW211772  11.056   4.438  14.780
36647SOL     OW11773   5.954   5.940  10.822
36647SOL    HW111774   5.870   5.894  10.826
36647SOL    HW211775   5.975   5.960  10.913
36648SOL     OW11776   1.611  12.911   7.375
36648SOL    HW111777   1.540  12.868   7.327
36648SOL    HW211778   1.568  12.985   7.418
36649SOL     OW11779   5.283   2.931   1.891
36649SOL    HW111780   5.363   2.879   1.885
36649SOL    HW211781   5.305   3.001   1.952
36650SOL     OW11782   0.220   4.523  14.170
36650SOL    HW111783   0.301   4.570  14.153
36650SOL    HW211784   0.151   4.587  14.153
36651SOL     OW11785   2.656   1.145   9.481
36651SOL    HW111786   2.736   1.121   9.435
36651SOL    HW211787   2.590   1.086   9.446
36652SOL     OW11788   3.232   6.547   3.955
36652SOL    HW111789   3.194   6.460   3.941
36652SOL    HW211790   3.254   6.578   3.868
36653SOL     OW11791   6.570  11.517   1.149
36653SOL    HW111792   6.610  11.577   1.086
36653SOL    HW211793   6.483  11.498   1.114
36654SOL     OW11794   1.647  13.205  13.644
36654SOL    HW111795   1.552  13.194  13.648
36654SOL    HW211796   1.660  13.299  13.631
36655SOL     OW11797   1.967   9.443  13.555
36655SOL    HW111798   2.029   9.412  13.621
36655SOL    HW211799   1.986   9.390  13.478
36656SOL     OW11800   6.440   1.732   8.325
36656SOL    HW111801   6.535   1.733   8.315
36656SOL    HW211802   6.426   1.740   8.419
36657SOL     OW11803   8.457   4.366  14.724
36657SOL    HW111804   8.392   4.337  14.789
36657SOL    HW211805   8.413   4.353  14.640
36658SOL     OW11806   8.700  13.572  10.662
36658SOL    HW111807   8.725  13.503  10.601
36658SOL    HW211808   8.624  13.537  10.709
36659SOL     OW11809  13.514  12.024   6.370
36659SOL    HW111810  13.466  11.941   6.363
36659SOL    HW211811  13.602  12.003   6.337
36660SOL     OW11812   9.136   2.200   6.742
36660SOL    HW111813   9.147   2.140   6.669
36660SOL    HW211814   9.097   2.146   6.812
36661SOL     OW11815   2.188   1.698   3.888
36661SOL    HW111816   2.217   1.762   3.823
36661SOL    HW211817   2.147   1.629   3.836
36662SOL     OW11818   0.097   6.503   5.409
36662SOL    HW111819   0.158   6.552   5.353
36662SOL    HW211820   0.148   6.485   5.488
36663SOL     OW11821  10.133  12.945   9.890
36663SOL    HW111822  10.176  12.910   9.811
36663SOL    HW211823  10.110  12.867   9.941
36664SOL     OW11824   1.606  10.924  13.377
36664SOL    HW111825   1.663  10.930  13.453
36664SOL    HW211826   1.614  11.010  13.335
36665SOL     OW11827   8.677   0.822   8.700
36665SOL    HW111828   8.759   0.776   8.680
36665SOL    HW211829   8.623   0.755   8.744
36666SOL     OW11830   6.381   6.992   9.755
36666SOL    HW111831   6.351   6.909   9.719
36666SOL    HW211832   6.476   6.983   9.761
36667SOL     OW11833   3.720   7.322   7.033
36667SOL    HW111834   3.792   7.368   6.989
36667SOL    HW211835   3.712   7.240   6.985
36668SOL     OW11836  12.773   2.795  10.375
36668SOL    HW111837  12.810   2.714  10.340
36668SOL    HW211838  12.698   2.767  10.428
36669SOL     OW11839  11.923   3.608   2.136
36669SOL    HW111840  11.978   3.619   2.214
36669SOL    HW211841  11.895   3.697   2.114
36670SOL     OW11842  12.810   8.394   3.440
36670SOL    HW111843  12.815   8.419   3.347
36670SOL    HW211844  12.789   8.476   3.485
36671SOL     OW11845   2.863  11.696   4.045
36671SOL    HW111846   2.855  11.761   3.976
36671SOL    HW211847   2.892  11.745   4.122
36672SOL     OW11848   0.051  13.110   3.944
36672SOL    HW111849   0.016  13.104   3.855
36672SOL    HW211850   0.060  13.204   3.960
36673SOL     OW11851  11.108  10.123   1.616
36673SOL    HW111852  11.203  10.138   1.615
36673SOL    HW211853  11.070  10.211   1.622
36674SOL     OW11854   5.865   2.877   4.568
36674SOL    HW111855   5.930   2.946   4.579
36674SOL    HW211856   5.842   2.852   4.658
36675SOL     OW11857   4.619  12.395   0.827
36675SOL    HW111858   4.700  12.344   0.828
36675SOL    HW211859   4.549  12.331   0.840
36676SOL     OW11860   7.657  14.623  11.347
36676SOL    HW111861   7.678  14.578  11.265
36676SOL    HW211862   7.561  14.618  11.353
36677SOL     OW11863  14.231   5.871   0.342
36677SOL    HW111864  14.174   5.834   0.275
36677SOL    HW211865  14.258   5.956   0.307
36678SOL     OW11866   9.883   6.321   8.176
36678SOL    HW111867   9.818   6.257   8.145
36678SOL    HW211868   9.966   6.290   8.139
36679SOL     OW11869   1.412  10.510   9.911
36679SOL    HW111870   1.479  10.511   9.979
36679SOL    HW211871   1.445  10.569   9.844
36680SOL     OW11872   4.312   9.970   4.506
36680SOL    HW111873   4.353  10.032   4.566
36680SOL    HW211874   4.309   9.888   4.555
36681SOL     OW11875  13.267  10.089   3.544
36681SOL    HW111876  13.218  10.170   3.559
36681SOL    HW211877  13.214  10.021   3.586
36682SOL     OW11878   6.823   6.945  10.484
36682SOL    HW111879   6.906   6.942  10.533
36682SOL    HW211880   6.830   7.025  10.432
36683SOL     OW11881  10.977   4.930   1.044
36683SOL    HW111882  10.932   4.859   1.089
36683SOL    HW211883  10.959   5.008   1.096
36684SOL     OW11884   6.237   7.270  13.024
36684SOL    HW111885   6.313   7.321  13.051
36684SOL    HW211886   6.166   7.334  13.019
36685SOL     OW11887  13.239  10.434   9.262
36685SOL    HW111888  13.326  10.393   9.262
36685SOL    HW211889  13.225  10.459   9.354
36686SOL     OW11890   6.072   5.355   8.872
36686SOL    HW111891   6.078   5.425   8.937
36686SOL    HW211892   5.978   5.344   8.857
36687SOL     OW11893  13.887   0.321   4.897
36687SOL    HW111894  13.885   0.412   4.864
36687SOL    HW211895  13.927   0.271   4.826
36688SOL     OW11896   8.684   3.750   0.508
36688SOL    HW111897   8.769   3.745   0.463
36688SOL    HW211898   8.662   3.660   0.529
36689SOL     OW11899   7.427  14.720   2.603
36689SOL    HW111900   7.399  14.798   2.556
36689SOL    HW211901   7.496  14.751   2.662
36690SOL     OW11902   6.938   5.076  14.741
36690SOL    HW111903   6.874   5.028  14.687
36690SOL    HW211904   6.982   5.135  14.679
36691SOL     OW11905   7.350  10.801   1.328
36691SOL    HW111906   7.373  10.783   1.237
36691SOL    HW211907   7.343  10.715   1.368
36692SOL     OW11908   6.659  12.685   4.094
36692SOL    HW111909   6.694  12.764   4.136
36692SOL    HW211910   6.615  12.717   4.016
36693SOL     OW11911  10.175   6.139   7.464
36693SOL    HW111912  10.172   6.227   7.500
36693SOL    HW211913  10.233   6.145   7.388
36694SOL     OW11914  10.072   1.649   1.800
36694SOL    HW111915  10.118   1.646   1.717
36694SOL    HW211916  10.025   1.566   1.805
36695SOL     OW11917  12.110   6.730   1.410
36695SOL    HW111918  12.078   6.796   1.349
36695SOL    HW211919  12.126   6.779   1.491
36696SOL     OW11920   4.440   0.364  12.781
36696SOL    HW111921   4.387   0.421  12.724
36696SOL    HW211922   4.381   0.292  12.804
36697SOL     OW11923  14.663  14.412   9.198
36697SOL    HW111924  14.717  14.447   9.269
36697SOL    HW211925  14.659  14.483   9.133
36698SOL     OW11926   0.611   9.285   0.587
36698SOL    HW111927   0.598   9.368   0.634
36698SOL    HW211928   0.562   9.296   0.505
36699SOL     OW11929   5.184   7.466   9.045
36699SOL    HW111930   5.202   7.392   8.988
36699SOL    HW211931   5.265   7.518   9.042
36700SOL     OW11932   3.407   8.870   4.895
36700SOL    HW111933   3.332   8.812   4.883
36700SOL    HW211934   3.373   8.943   4.946
36701SOL     OW11935   7.641   1.552  11.726
36701SOL    HW111936   7.598   1.563  11.641
36701SOL    HW211937   7.571   1.565  11.790
36702SOL     OW11938  11.053  10.619   8.265
36702SOL    HW111939  11.143  10.595   8.285
36702SOL    HW211940  11.014  10.640   8.350
36703SOL     OW11941   9.436   5.402   8.498
36703SOL    HW111942   9.522   5.425   8.460
36703SOL    HW211943   9.389   5.485   8.502
36704SOL     OW11944   6.474   4.174   4.206
36704SOL    HW111945   6.401   4.136   4.156
36704SOL    HW211946   6.519   4.098   4.243
36705SOL     OW11947   3.642   4.220  12.610
36705SOL    HW111948   3.712   4.179  12.660
36705SOL    HW211949   3.686   4.287  12.557
36706SOL     OW11950   4.633   0.146   8.499
36706SOL    HW111951   4.631   0.224   8.444
36706SOL    HW211952   4.720   0.148   8.539
36707SOL     OW11953  10.982  10.654   2.114
36707SOL    HW111954  11.065  10.655   2.163
36707SOL    HW211955  10.947  10.742   2.125
36708SOL     OW11956  14.190   7.050  11.893
36708SOL    HW111957  14.213   7.075  11.982
36708SOL    HW211958  14.264   7.080  11.840
36709SOL     OW11959  11.554   3.689   8.676
36709SOL    HW111960  11.627   3.724   8.727
36709SOL    HW211961  11.515   3.622   8.732
36710SOL     OW11962   2.508  10.837   4.414
36710SOL    HW111963   2.509  10.746   4.386
36710SOL    HW211964   2.547  10.885   4.340
36711SOL     OW11965   6.744  14.719  13.591
36711SOL    HW111966   6.676  14.693  13.530
36711SOL    HW211967   6.703  14.784  13.647
36712SOL     OW11968  11.709  10.571   1.397
36712SOL    HW111969  11.799  10.579   1.367
36712SOL    HW211970  11.692  10.653   1.443
36713SOL     OW11971   3.488  11.572   1.545
36713SOL    HW111972   3.412  11.516   1.561
36713SOL    HW211973   3.540  11.567   1.625
36714SOL     OW11974   2.909   0.241   6.766
36714SOL    HW111975   2.867   0.266   6.848
36714SOL    HW211976   3.002   0.260   6.780
36715SOL     OW11977   7.015  12.408   3.727
36715SOL    HW111978   6.979  12.491   3.695
36715SOL    HW211979   7.109  12.425   3.740
36716SOL     OW11980  11.118   7.422   4.516
36716SOL    HW111981  11.055   7.355   4.488
36716SOL    HW211982  11.078   7.462   4.593
36717SOL     OW11983   9.054   8.191  10.906
36717SOL    HW111984   9.144   8.224  10.910
36717SOL    HW211985   9.038   8.177  10.813
36718SOL     OW11986  14.031   3.368  13.368
36718SOL    HW111987  13.994   3.448  13.330
36718SOL    HW211988  13.967   3.300  13.347
36719SOL     OW11989   0.917   0.841   7.521
36719SOL    HW111990   0.878   0.884   7.446
36719SOL    HW211991   0.923   0.749   7.496
36720SOL     OW11992  13.149  12.812   2.742
36720SOL    HW111993  13.239  12.794   2.771
36720SOL    HW211994  13.160  12.872   2.668
36721SOL     OW11995   9.127   9.415   0.905
36721SOL    HW111996   9.170   9.501   0.907
36721SOL    HW211997   9.159   9.374   0.824
36722SOL     OW11998   4.077   8.591   4.415
36722SOL    HW111999   4.171   8.611   4.420
36722SOL    HW212000   4.070   8.504   4.455
36723SOL     OW12001  13.496   4.593   3.278
36723SOL    HW112002  13.537   4.587   3.364
36723SOL    HW212003  13.469   4.503   3.257
36724SOL     OW12004   5.968   1.906   2.418
36724SOL    HW112005   6.014   1.948   2.490
36724SOL    HW212006   5.938   1.823   2.454
36725SOL     OW12007  10.944  12.553   9.663
36725SOL    HW112008  11.039  12.557   9.664
36725SOL    HW212009  10.923  12.461   9.677
36726SOL     OW12010   7.321  14.460   5.276
36726SOL    HW112011   7.280  14.524   5.218
36726SOL    HW212012   7.295  14.487   5.364
36727SOL     OW12013   7.012   7.262  12.770
36727SOL    HW112014   7.086   7.238  12.715
36727SOL    HW212015   7.009   7.195  12.838
36728SOL     OW12016   3.411  10.002   6.153
36728SOL    HW112017   3.444   9.956   6.230
36728SOL    HW212018   3.325  10.035   6.180
36729SOL     OW12019   7.813  12.988  13.306
36729SOL    HW112020   7.736  13.044  13.314
36729SOL    HW212021   7.835  12.992  13.213
36730SOL     OW12022   9.257   2.353   2.393
36730SOL    HW112023   9.282   2.436   2.432
36730SOL    HW212024   9.199   2.376   2.321
36731SOL     OW12025   7.097   9.367   1.370
36731SOL    HW112026   7.075   9.456   1.396
36731SOL    HW212027   7.053   9.355   1.286
36732SOL     OW12028  11.254  10.705   5.321
36732SOL    HW112029  11.224  10.791   5.351
36732SOL    HW212030  11.233  10.646   5.392
36733SOL     OW12031  12.483   4.384   3.214
36733SOL    HW112032  12.479   4.320   3.142
36733SOL    HW212033  12.516   4.464   3.173
36734SOL     OW12034   9.311   1.811   5.274
36734SOL    HW112035   9.340   1.742   5.214
36734SOL    HW212036   9.264   1.873   5.218
36735SOL     OW12037  11.691   6.646   3.521
36735SOL    HW112038  11.665   6.593   3.596
36735SOL    HW212039  11.639   6.727   3.530
36736SOL     OW12040  10.031   4.070   4.666
36736SOL    HW112041  10.067   4.158   4.674
36736SOL    HW212042   9.940   4.083   4.640
36737SOL     OW12043   7.825  12.457   4.315
36737SOL    HW112044   7.833  12.552   4.302
36737SOL    HW212045   7.761  12.429   4.250
36738SOL     OW12046  10.352  11.498   7.615
36738SOL    HW112047  10.385  11.504   7.705
36738SOL    HW212048  10.348  11.404   7.597
36739SOL     OW12049   9.122   3.991   5.478
36739SOL    HW112050   9.150   4.058   5.540
36739SOL    HW212051   9.057   3.940   5.525
36740SOL     OW12052   6.945   0.887   9.549
36740SOL    HW112053   6.908   0.799   9.555
36740SOL    HW212054   6.945   0.907   9.456
36741SOL     OW12055  10.380  10.651  11.429
36741SOL    HW112056  10.423  10.567  11.448
36741SOL    HW212057  10.335  10.674  11.510
36742SOL     OW12058  14.741  11.276   1.574
36742SOL    HW112059  14.685  11.354   1.574
36742SOL    HW212060  14.829  11.311   1.564
36743SOL     OW12061   4.051  13.530   8.525
36743SOL    HW112062   4.086  13.460   8.580
36743SOL    HW212063   4.125  13.589   8.512
36744SOL     OW12064   7.063  11.841   9.934
36744SOL    HW112065   7.074  11.748   9.953
36744SOL    HW212066   7.062  11.883  10.021
36745SOL     OW12067  10.249   2.839   0.119
36745SOL    HW112068  10.160   2.875   0.117
36745SOL    HW212069  10.274   2.845   0.211
36746SOL     OW12070  14.424   1.325   2.973
36746SOL    HW112071  14.407   1.418   2.991
36746SOL    HW212072  14.498   1.303   3.029
36747SOL     OW12073   4.060   0.752  13.129
36747SOL    HW112074   3.997   0.680  13.130
36747SOL    HW212075   4.011   0.828  13.159
36748SOL     OW12076  11.300   3.984   5.242
36748SOL    HW112077  11.368   3.981   5.175
36748SOL    HW212078  11.218   3.988   5.194
36749SOL     OW12079  10.669   6.668   7.913
36749SOL    HW112080  10.611   6.642   7.984
36749SOL    HW212081  10.738   6.602   7.914
36750SOL     OW12082   2.888   7.394   2.504
36750SOL    HW112083   2.946   7.415   2.430
36750SOL    HW212084   2.935   7.426   2.581
36751SOL     OW12085   3.062   6.364   3.289
36751SOL    HW112086   3.142   6.378   3.339
36751SOL    HW212087   2.996   6.341   3.354
36752SOL     OW12088   8.379  14.063  11.420
36752SOL    HW112089   8.349  14.085  11.332
36752SOL    HW212090   8.333  13.982  11.442
36753SOL     OW12091   8.736  13.079  13.977
36753SOL    HW112092   8.697  13.094  13.891
36753SOL    HW212093   8.662  13.086  14.038
36754SOL     OW12094   2.292  13.759  12.578
36754SOL    HW112095   2.223  13.699  12.552
36754SOL    HW212096   2.252  13.814  12.645
36755SOL     OW12097  14.025  14.819   8.751
36755SOL    HW112098  13.995  14.732   8.724
36755SOL    HW212099  14.064  14.856   8.672
36756SOL     OW12100  13.539  14.121   2.293
36756SOL    HW112101  13.531  14.026   2.303
36756SOL    HW212102  13.552  14.134   2.199
36757SOL     OW12103  12.097   5.775   8.324
36757SOL    HW112104  12.127   5.723   8.249
36757SOL    HW212105  12.032   5.834   8.287
36758SOL     OW12106   9.284  10.756   1.306
36758SOL    HW112107   9.305  10.792   1.220
36758SOL    HW212108   9.263  10.664   1.288
36759SOL     OW12109   2.721  13.716  11.697
36759SOL    HW112110   2.729  13.797  11.646
36759SOL    HW212111   2.649  13.669  11.655
36760SOL     OW12112   2.464  10.533   1.575
36760SOL    HW112113   2.418  10.518   1.492
36760SOL    HW212114   2.414  10.604   1.616
36761SOL     OW12115   3.266   9.129  12.165
36761SOL    HW112116   3.188   9.106  12.215
36761SOL    HW212117   3.325   9.169  12.228
36762SOL     OW12118   3.848   5.325  10.890
36762SOL    HW112119   3.834   5.268  10.814
36762SOL    HW212120   3.759   5.344  10.922
36763SOL     OW12121   5.363   5.862   9.322
36763SOL    HW112122   5.364   5.948   9.281
36763SOL    HW212123   5.453   5.831   9.317
36764SOL     OW12124   7.969   4.376   4.654
36764SOL    HW112125   7.951   4.395   4.563
36764SOL    HW212126   7.956   4.459   4.700
36765SOL     OW12127   5.115  12.948  14.025
36765SOL    HW112128   5.045  12.914  14.081
36765SOL    HW212129   5.069  12.984  13.949
36766SOL     OW12130   3.100  12.861  11.403
36766SOL    HW112131   3.189  12.869  11.439
36766SOL    HW212132   3.048  12.829  11.477
36767SOL     OW12133   9.402   0.537   5.747
36767SOL    HW112134   9.428   0.629   5.750
36767SOL    HW212135   9.328   0.531   5.807
36768SOL     OW12136  13.357  11.788  14.701
36768SOL    HW112137  13.339  11.878  14.730
36768SOL    HW212138  13.383  11.798  14.609
36769SOL     OW12139   1.552   3.094   9.665
36769SOL    HW112140   1.513   3.089   9.753
36769SOL    HW212141   1.481   3.126   9.609
36770SOL     OW12142  11.088   1.730  11.771
36770SOL    HW112143  11.098   1.821  11.744
36770SOL    HW212144  11.119   1.728  11.861
36771SOL     OW12145  14.489   4.751   2.286
36771SOL    HW112146  14.512   4.756   2.193
36771SOL    HW212147  14.491   4.841   2.316
36772SOL     OW12148   6.191   0.321   9.000
36772SOL    HW112149   6.266   0.317   9.059
36772SOL    HW212150   6.129   0.380   9.044
36773SOL     OW12151   1.692   6.275  10.644
36773SOL    HW112152   1.750   6.237  10.710
36773SOL    HW212153   1.750   6.325  10.587
36774SOL     OW12154   8.974   1.409   6.251
36774SOL    HW112155   9.053   1.379   6.296
36774SOL    HW212156   8.972   1.359   6.170
36775SOL     OW12157   9.284  11.719   6.973
36775SOL    HW112158   9.257  11.634   7.007
36775SOL    HW212159   9.257  11.717   6.881
36776SOL     OW12160   7.992  11.019  13.669
36776SOL    HW112161   7.931  11.068  13.724
36776SOL    HW212162   7.958  10.929  13.670
36777SOL     OW12163  10.170   3.958  14.502
36777SOL    HW112164  10.123   3.901  14.441
36777SOL    HW212165  10.101   4.008  14.546
36778SOL     OW12166   3.236   2.498   8.757
36778SOL    HW112167   3.145   2.520   8.737
36778SOL    HW212168   3.247   2.408   8.726
36779SOL     OW12169   0.898  12.659   2.339
36779SOL    HW112170   0.831  12.724   2.359
36779SOL    HW212171   0.892  12.594   2.409
36780SOL     OW12172   4.784   2.598  14.525
36780SOL    HW112173   4.804   2.680  14.571
36780SOL    HW212174   4.696   2.610  14.490
36781SOL     OW12175  13.650   3.840  14.005
36781SOL    HW112176  13.716   3.811  14.068
36781SOL    HW212177  13.701   3.873  13.931
36782SOL     OW12178   8.905  11.210   3.661
36782SOL    HW112179   8.878  11.278   3.599
36782SOL    HW212180   8.973  11.252   3.714
36783SOL     OW12181   7.825   2.478   7.800
36783SOL    HW112182   7.770   2.555   7.811
36783SOL    HW212183   7.816   2.455   7.708
36784SOL     OW12184  12.106  11.261   5.316
36784SOL    HW112185  12.069  11.336   5.269
36784SOL    HW212186  12.115  11.292   5.406
36785SOL     OW12187   9.503   8.902   3.429
36785SOL    HW112188   9.453   8.822   3.411
36785SOL    HW212189   9.547   8.921   3.346
36786SOL     OW12190   0.116   2.722   9.765
36786SOL    HW112191   0.140   2.717   9.673
36786SOL    HW212192   0.045   2.660   9.775
36787SOL     OW12193   0.664  10.466   1.074
36787SOL    HW112194   0.727  10.415   1.125
36787SOL    HW212195   0.619  10.401   1.020
36788SOL     OW12196   6.626   2.662   9.298
36788SOL    HW112197   6.707   2.706   9.274
36788SOL    HW212198   6.603   2.610   9.221
36789SOL     OW12199   2.812  12.684   0.403
36789SOL    HW112200   2.846  12.599   0.430
36789SOL    HW212201   2.793  12.729   0.485
36790SOL     OW12202   5.211   1.215   2.636
36790SOL    HW112203   5.220   1.189   2.728
36790SOL    HW212204   5.171   1.302   2.640
36791SOL     OW12205   1.822   9.444   1.873
36791SOL    HW112206   1.848   9.532   1.846
36791SOL    HW212207   1.891   9.415   1.933
36792SOL     OW12208   2.198   4.665   4.731
36792SOL    HW112209   2.232   4.648   4.644
36792SOL    HW212210   2.203   4.760   4.741
36793SOL     OW12211   0.842  10.764   1.723
36793SOL    HW112212   0.916  10.709   1.750
36793SOL    HW212213   0.815  10.727   1.639
36794SOL     OW12214   5.237  11.989   4.694
36794SOL    HW112215   5.205  12.072   4.659
36794SOL    HW212216   5.188  11.922   4.646
36795SOL     OW12217  12.211  11.704   1.868
36795SOL    HW112218  12.228  11.658   1.786
36795SOL    HW212219  12.136  11.760   1.849
36796SOL     OW12220   8.810  10.314   4.598
36796SOL    HW112221   8.756  10.392   4.586
36796SOL    HW212222   8.838  10.317   4.690
36797SOL     OW12223  14.510   8.907   6.815
36797SOL    HW112224  14.476   8.983   6.768
36797SOL    HW212225  14.467   8.832   6.774
36798SOL     OW12226  14.755   4.923   2.824
36798SOL    HW112227  14.730   4.860   2.891
36798SOL    HW212228  14.692   4.910   2.753
36799SOL     OW12229  10.598   3.244   0.169
36799SOL    HW112230  10.582   3.156   0.203
36799SOL    HW212231  10.664   3.281   0.228
36800SOL     OW12232  11.705   7.115  10.274
36800SOL    HW112233  11.687   7.021  10.265
36800SOL    HW212234  11.796   7.119  10.301
36801SOL     OW12235   0.920  13.778  12.365
36801SOL    HW112236   0.932  13.850  12.428
36801SOL    HW212237   1.003  13.772  12.320
36802SOL     OW12238   9.219   3.628  12.260
36802SOL    HW112239   9.176   3.560  12.312
36802SOL    HW212240   9.254   3.689  12.325
36803SOL     OW12241  13.700   8.991  12.044
36803SOL    HW112242  13.638   9.018  11.976
36803SOL    HW212243  13.742   8.913  12.008
36804SOL     OW12244   5.118  11.387   4.842
36804SOL    HW112245   5.180  11.358   4.909
36804SOL    HW212246   5.063  11.311   4.826
36805SOL     OW12247  13.133   5.470  12.833
36805SOL    HW112248  13.209   5.510  12.789
36805SOL    HW212249  13.066   5.539  12.832
36806SOL     OW12250  10.788   4.642  13.270
36806SOL    HW112251  10.740   4.689  13.339
36806SOL    HW212252  10.733   4.566  13.252
36807SOL     OW12253   6.561   3.230   6.139
36807SOL    HW112254   6.656   3.223   6.146
36807SOL    HW212255   6.533   3.144   6.107
36808SOL     OW12256   0.022   7.449   3.937
36808SOL    HW112257   0.087   7.499   3.986
36808SOL    HW212258  14.840   7.418   4.004
36809SOL     OW12259   6.784   0.450   9.152
36809SOL    HW112260   6.755   0.403   9.075
36809SOL    HW212261   6.713   0.510   9.173
36810SOL     OW12262   9.984   6.702  10.669
36810SOL    HW112263   9.896   6.728  10.638
36810SOL    HW212264  10.022   6.654  10.596
36811SOL     OW12265   7.821   9.544   6.454
36811SOL    HW112266   7.896   9.535   6.513
36811SOL    HW212267   7.860   9.548   6.366
36812SOL     OW12268   1.089   2.696   9.743
36812SOL    HW112269   1.143   2.740   9.809
36812SOL    HW212270   1.004   2.740   9.749
36813SOL     OW12271  14.829   2.859  14.874
36813SOL    HW112272  14.815   2.843  14.781
36813SOL    HW212273  14.862   2.949  14.877
36814SOL     OW12274   7.547  13.216  10.321
36814SOL    HW112275   7.532  13.172  10.237
36814SOL    HW212276   7.604  13.290  10.299
36815SOL     OW12277   9.890   9.816  11.704
36815SOL    HW112278   9.930   9.775  11.781
36815SOL    HW212279   9.906   9.755  11.633
36816SOL     OW12280   3.340   0.640   1.477
36816SOL    HW112281   3.398   0.642   1.401
36816SOL    HW212282   3.398   0.624   1.551
36817SOL     OW12283  13.731   0.614  13.255
36817SOL    HW112284  13.639   0.590  13.250
36817SOL    HW212285  13.774   0.535  13.289
36818SOL     OW12286   2.202   6.923  13.657
36818SOL    HW112287   2.278   6.952  13.606
36818SOL    HW212288   2.228   6.840  13.695
36819SOL     OW12289   7.975  10.897   5.346
36819SOL    HW112290   7.884  10.868   5.359
36819SOL    HW212291   8.015  10.827   5.296
36820SOL     OW12292  10.989   7.990   0.829
36820SOL    HW112293  11.053   8.013   0.896
36820SOL    HW212294  10.906   8.021   0.863
36821SOL     OW12295   0.478  12.841   5.954
36821SOL    HW112296   0.476  12.932   5.984
36821SOL    HW212297   0.506  12.790   6.030
36822SOL     OW12298   7.709  14.774   1.816
36822SOL    HW112299   7.709  14.857   1.864
36822SOL    HW212300   7.625  14.734   1.837
36823SOL     OW12301   1.011   4.697  12.459
36823SOL    HW112302   0.973   4.745  12.533
36823SOL    HW212303   1.104   4.692  12.478
36824SOL     OW12304   9.848   5.781   1.077
36824SOL    HW112305   9.935   5.818   1.092
36824SOL    HW212306   9.813   5.832   1.004
36825SOL     OW12307   7.440   5.227   1.383
36825SOL    HW112308   7.377   5.203   1.315
36825SOL    HW212309   7.390   5.222   1.465
36826SOL     OW12310   9.931   0.517   9.157
36826SOL    HW112311  10.001   0.525   9.092
36826SOL    HW212312   9.860   0.571   9.123
36827SOL     OW12313   9.207  12.621   0.835
36827SOL    HW112314   9.240  12.636   0.746
36827SOL    HW212315   9.263  12.676   0.890
36828SOL     OW12316   0.551   7.147  10.458
36828SOL    HW112317   0.461   7.120  10.477
36828SOL    HW212318   0.554   7.240  10.479
36829SOL     OW12319   2.894   0.210   4.022
36829SOL    HW112320   2.812   0.216   3.973
36829SOL    HW212321   2.870   0.236   4.111
36830SOL     OW12322   6.485   3.468   7.645
36830SOL    HW112323   6.555   3.513   7.597
36830SOL    HW212324   6.522   3.454   7.732
36831SOL     OW12325   9.029   3.916   2.486
36831SOL    HW112326   8.984   3.977   2.545
36831SOL    HW212327   8.981   3.834   2.495
36832SOL     OW12328   5.574   1.784   9.002
36832SOL    HW112329   5.670   1.792   9.007
36832SOL    HW212330   5.551   1.823   8.918
36833SOL     OW12331   2.169   3.383   8.710
36833SOL    HW112332   2.250   3.364   8.758
36833SOL    HW212333   2.126   3.451   8.762
36834SOL     OW12334  13.151   1.793  11.812
36834SOL    HW112335  13.196   1.809  11.895
36834SOL    HW212336  13.139   1.880  11.774
36835SOL     OW12337  10.226  11.266   2.742
36835SOL    HW112338  10.244  11.335   2.805
36835SOL    HW212339  10.137  11.237   2.761
36836SOL     OW12340  11.652  12.912   1.864
36836SOL    HW112341  11.650  12.824   1.903
36836SOL    HW212342  11.675  12.897   1.772
36837SOL     OW12343   4.545   2.819   2.899
36837SOL    HW112344   4.535   2.814   2.804
36837SOL    HW212345   4.530   2.729   2.929
36838SOL     OW12346   1.424  12.505   5.700
36838SOL    HW112347   1.383  12.579   5.654
36838SOL    HW212348   1.355  12.439   5.705
36839SOL     OW12349   8.499   5.387   5.705
36839SOL    HW112350   8.558   5.353   5.773
36839SOL    HW212351   8.419   5.337   5.715
36840SOL     OW12352  13.625  12.256   4.473
36840SOL    HW112353  13.694  12.305   4.519
36840SOL    HW212354  13.609  12.180   4.529
36841SOL     OW12355   9.495   7.513   3.631
36841SOL    HW112356   9.580   7.468   3.627
36841SOL    HW212357   9.461   7.507   3.542
36842SOL     OW12358  13.745  11.765   9.136
36842SOL    HW112359  13.703  11.679   9.138
36842SOL    HW212360  13.672  11.828   9.137
36843SOL     OW12361   9.876   2.914  14.085
36843SOL    HW112362   9.949   2.974  14.090
36843SOL    HW212363   9.816   2.942  14.155
36844SOL     OW12364   8.673  11.406   7.346
36844SOL    HW112365   8.608  11.451   7.292
36844SOL    HW212366   8.667  11.449   7.431
36845SOL     OW12367  10.406  10.557  10.040
36845SOL    HW112368  10.394  10.651  10.023
36845SOL    HW212369  10.480  10.532   9.984
36846SOL     OW12370   6.756  13.990   6.779
36846SOL    HW112371   6.842  14.024   6.755
36846SOL    HW212372   6.707  13.989   6.696
36847SOL     OW12373   1.747  10.249   8.752
36847SOL    HW112374   1.827  10.202   8.733
36847SOL    HW212375   1.683  10.181   8.776
36848SOL     OW12376   9.262  13.344   4.903
36848SOL    HW112377   9.201  13.309   4.837
36848SOL    HW212378   9.334  13.381   4.852
36849SOL     OW12379   5.143   7.059  12.597
36849SOL    HW112380   5.228   7.014  12.593
36849SOL    HW212381   5.128   7.072  12.690
36850SOL     OW12382  13.809   8.196  10.665
36850SOL    HW112383  13.844   8.176  10.578
36850SOL    HW212384  13.716   8.178  10.658
36851SOL     OW12385  11.597   3.004   8.504
36851SOL    HW112386  11.576   3.083   8.453
36851SOL    HW212387  11.541   2.936   8.467
36852SOL     OW12388   7.998   6.773  14.688
36852SOL    HW112389   8.062   6.826  14.641
36852SOL    HW212390   8.029   6.683  14.677
36853SOL     OW12391  11.452   5.538   9.549
36853SOL    HW112392  11.489   5.465   9.501
36853SOL    HW212393  11.398   5.498   9.617
36854SOL     OW12394   5.231   0.083   9.304
36854SOL    HW112395   5.221   0.163   9.253
36854SOL    HW212396   5.191   0.104   9.388
36855SOL     OW12397  12.393  11.155   6.375
36855SOL    HW112398  12.485  11.166   6.402
36855SOL    HW212399  12.370  11.238   6.334
36856SOL     OW12400   4.347   8.430  12.856
36856SOL    HW112401   4.365   8.446  12.763
36856SOL    HW212402   4.265   8.380  12.856
36857SOL     OW12403   1.063  10.417   1.563
36857SOL    HW112404   1.154  10.395   1.583
36857SOL    HW212405   1.053  10.507   1.594
36858SOL     OW12406  10.073   9.382   4.246
36858SOL    HW112407  10.049   9.473   4.258
36858SOL    HW212408  10.168   9.383   4.237
36859SOL     OW12409  10.011  13.525   3.538
36859SOL    HW112410   9.988  13.546   3.447
36859SOL    HW212411   9.949  13.457   3.563
36860SOL     OW12412  12.637   6.568   6.594
36860SOL    HW112413  12.713   6.616   6.626
36860SOL    HW212414  12.572   6.577   6.664
36861SOL     OW12415  11.523   6.755   5.153
36861SOL    HW112416  11.602   6.701   5.165
36861SOL    HW212417  11.504   6.788   5.241
36862SOL     OW12418   2.597  12.562  12.470
36862SOL    HW112419   2.642  12.571  12.386
36862SOL    HW212420   2.661  12.520  12.527
36863SOL     OW12421   8.977   0.808   8.942
36863SOL    HW112422   9.030   0.776   9.016
36863SOL    HW212423   8.966   0.901   8.959
36864SOL     OW12424   5.821   9.916   0.673
36864SOL    HW112425   5.886   9.901   0.743
36864SOL    HW212426   5.867   9.891   0.593
36865SOL     OW12427   6.556   9.937   2.025
36865SOL    HW112428   6.613   9.880   2.077
36865SOL    HW212429   6.615   9.980   1.964
36866SOL     OW12430  14.125   4.894  13.670
36866SOL    HW112431  14.211   4.887  13.712
36866SOL    HW212432  14.133   4.969  13.611
36867SOL     OW12433   0.815   2.154   8.755
36867SOL    HW112434   0.819   2.131   8.847
36867SOL    HW212435   0.777   2.078   8.712
36868SOL     OW12436  13.440   4.638   2.623
36868SOL    HW112437  13.535   4.633   2.615
36868SOL    HW212438  13.408   4.634   2.533
36869SOL     OW12439   4.133   4.161   2.562
36869SOL    HW112440   4.083   4.213   2.500
36869SOL    HW212441   4.067   4.109   2.609
36870SOL     OW12442   1.123   1.510  13.866
36870SOL    HW112443   1.088   1.597  13.887
36870SOL    HW212444   1.164   1.521  13.780
36871SOL     OW12445   4.674   6.884  13.094
36871SOL    HW112446   4.693   6.869  13.001
36871SOL    HW212447   4.729   6.820  13.140
36872SOL     OW12448  12.479  11.992   0.844
36872SOL    HW112449  12.453  11.941   0.767
36872SOL    HW212450  12.562  12.033   0.818
36873SOL     OW12451   4.626  13.269   1.848
36873SOL    HW112452   4.547  13.291   1.896
36873SOL    HW212453   4.672  13.206   1.903
36874SOL     OW12454  11.682   0.105   1.709
36874SOL    HW112455  11.668   0.184   1.760
36874SOL    HW212456  11.688   0.035   1.774
36875SOL     OW12457  10.630   3.182   7.529
36875SOL    HW112458  10.635   3.243   7.455
36875SOL    HW212459  10.694   3.215   7.592
36876SOL     OW12460  14.599   3.995  11.325
36876SOL    HW112461  14.668   3.965  11.265
36876SOL    HW212462  14.517   3.969  11.283
36877SOL     OW12463  13.590  11.372   4.173
36877SOL    HW112464  13.546  11.357   4.256
36877SOL    HW212465  13.548  11.451   4.137
36878SOL     OW12466   9.629   8.464   8.434
36878SOL    HW112467   9.653   8.394   8.494
36878SOL    HW212468   9.673   8.443   8.352
36879SOL     OW12469   4.436  12.227  13.155
36879SOL    HW112470   4.401  12.304  13.200
36879SOL    HW212471   4.358  12.181  13.123
36880SOL     OW12472   7.973  13.711   1.678
36880SOL    HW112473   7.889  13.727   1.636
36880SOL    HW212474   8.037  13.756   1.621
36881SOL     OW12475   4.372   6.240   1.527
36881SOL    HW112476   4.432   6.284   1.467
36881SOL    HW212477   4.412   6.155   1.543
36882SOL     OW12478   0.602   3.936   0.511
36882SOL    HW112479   0.590   4.004   0.444
36882SOL    HW212480   0.682   3.892   0.485
36883SOL     OW12481   9.587   8.006   5.462
36883SOL    HW112482   9.578   7.960   5.379
36883SOL    HW212483   9.604   8.097   5.438
36884SOL     OW12484  11.278   8.453   0.384
36884SOL    HW112485  11.356   8.414   0.424
36884SOL    HW212486  11.252   8.391   0.316
36885SOL     OW12487   3.859   7.972   7.757
36885SOL    HW112488   3.850   8.030   7.833
36885SOL    HW212489   3.802   8.009   7.690
36886SOL     OW12490   7.268   4.231   1.583
36886SOL    HW112491   7.250   4.261   1.494
36886SOL    HW212492   7.273   4.311   1.635
36887SOL     OW12493  11.732  10.403   2.799
36887SOL    HW112494  11.651  10.444   2.769
36887SOL    HW212495  11.708  10.362   2.882
36888SOL     OW12496   5.532   4.250   9.525
36888SOL    HW112497   5.600   4.249   9.592
36888SOL    HW212498   5.567   4.307   9.457
36889SOL     OW12499   0.435   7.289   3.389
36889SOL    HW112500   0.501   7.358   3.394
36889SOL    HW212501   0.356   7.328   3.426
36890SOL     OW12502   5.337  10.158  11.668
36890SOL    HW112503   5.260  10.181  11.616
36890SOL    HW212504   5.384  10.241  11.677
36891SOL     OW12505   8.602   2.696   5.039
36891SOL    HW112506   8.548   2.683   4.961
36891SOL    HW212507   8.636   2.785   5.030
36892SOL     OW12508   2.211   8.681   3.649
36892SOL    HW112509   2.249   8.601   3.686
36892SOL    HW212510   2.129   8.652   3.609
36893SOL     OW12511   9.171   6.139   1.678
36893SOL    HW112512   9.118   6.092   1.614
36893SOL    HW212513   9.154   6.094   1.761
36894SOL     OW12514   2.041   1.532   3.726
36894SOL    HW112515   2.037   1.564   3.636
36894SOL    HW212516   1.961   1.566   3.766
36895SOL     OW12517  10.982  13.455   9.525
36895SOL    HW112518  10.887  13.457   9.529
36895SOL    HW212519  11.009  13.418   9.609
36896SOL     OW12520   1.200   4.515   5.712
36896SOL    HW112521   1.289   4.550   5.720
36896SOL    HW212522   1.155   4.577   5.655
36897SOL     OW12523  11.327   2.722  10.814
36897SOL    HW112524  11.328   2.766  10.899
36897SOL    HW212525  11.240   2.740  10.778
36898SOL     OW12526   4.618   0.762  10.633
36898SOL    HW112527   4.692   0.755  10.693
36898SOL    HW212528   4.566   0.835  10.667
36899SOL     OW12529   6.446   5.487  12.870
36899SOL    HW112530   6.514   5.430  12.905
36899SOL    HW212531   6.451   5.566  12.923
36900SOL     OW12532  10.737   1.262   4.494
36900SOL    HW112533  10.717   1.190   4.435
36900SOL    HW212534  10.662   1.321   4.487
36901SOL     OW12535   6.086  13.527   3.373
36901SOL    HW112536   6.133  13.469   3.311
36901SOL    HW212537   6.091  13.613   3.333
36902SOL     OW12538  11.913   3.319  11.591
36902SOL    HW112539  11.893   3.319  11.497
36902SOL    HW212540  11.981   3.252  11.601
36903SOL     OW12541  12.367   8.192   0.797
36903SOL    HW112542  12.435   8.242   0.753
36903SOL    HW212543  12.407   8.107   0.814
36904SOL     OW12544   9.811   4.198  13.672
36904SOL    HW112545   9.868   4.130  13.638
36904SOL    HW212546   9.758   4.154  13.739
36905SOL     OW12547  12.038   3.518   1.478
36905SOL    HW112548  11.991   3.591   1.438
36905SOL    HW212549  11.969   3.467   1.522
36906SOL     OW12550  11.822   8.408  11.776
36906SOL    HW112551  11.801   8.346  11.706
36906SOL    HW212552  11.813   8.494  11.735
36907SOL     OW12553   3.421   7.129  14.438
36907SOL    HW112554   3.386   7.180  14.365
36907SOL    HW212555   3.422   7.189  14.512
36908SOL     OW12556   0.210   7.350  10.582
36908SOL    HW112557   0.188   7.269  10.628
36908SOL    HW212558   0.138   7.362  10.519
36909SOL     OW12559   5.005   0.920   5.106
36909SOL    HW112560   5.049   0.887   5.184
36909SOL    HW212561   5.070   0.975   5.062
36910SOL     OW12562   9.704  12.412  14.108
36910SOL    HW112563   9.703  12.439  14.200
36910SOL    HW212564   9.740  12.487  14.062
36911SOL     OW12565   8.885  14.363   5.187
36911SOL    HW112566   8.975  14.396   5.188
36911SOL    HW212567   8.887  14.290   5.125
36912SOL     OW12568  13.697   6.657   5.228
36912SOL    HW112569  13.633   6.665   5.157
36912SOL    HW212570  13.680   6.572   5.268
36913SOL     OW12571   5.588   7.520  12.673
36913SOL    HW112572   5.635   7.487  12.596
36913SOL    HW212573   5.603   7.614  12.672
36914SOL     OW12574  11.935   6.332   4.381
36914SOL    HW112575  12.008   6.340   4.441
36914SOL    HW212576  11.887   6.414   4.391
36915SOL     OW12577   2.060  12.316  14.150
36915SOL    HW112578   2.058  12.239  14.207
36915SOL    HW212579   2.148  12.315  14.113
36916SOL     OW12580  11.070   1.783   9.082
36916SOL    HW112581  11.041   1.710   9.028
36916SOL    HW212582  10.989   1.830   9.105
36917SOL     OW12583   8.660   4.166   0.982
36917SOL    HW112584   8.693   4.080   0.960
36917SOL    HW212585   8.645   4.163   1.077
36918SOL     OW12586   2.734   5.072   0.006
36918SOL    HW112587   2.716   5.003  14.821
36918SOL    HW212588   2.821   5.051   0.039
36919SOL     OW12589   6.780   1.560   2.253
36919SOL    HW112590   6.764   1.651   2.277
36919SOL    HW212591   6.694   1.526   2.228
36920SOL     OW12592  12.855  12.576  11.637
36920SOL    HW112593  12.797  12.591  11.712
36920SOL    HW212594  12.805  12.518  11.580
36921SOL     OW12595  13.338   1.652  11.262
36921SOL    HW112596  13.281   1.639  11.186
36921SOL    HW212597  13.414   1.597  11.244
36922SOL     OW12598   1.563  14.485   2.196
36922SOL    HW112599   1.553  14.522   2.108
36922SOL    HW212600   1.478  14.499   2.237
36923SOL     OW12601   1.737   5.740   1.032
36923SOL    HW112602   1.761   5.654   0.997
36923SOL    HW212603   1.716   5.792   0.955
36924SOL     OW12604   6.349   6.104   7.668
36924SOL    HW112605   6.412   6.167   7.632
36924SOL    HW212606   6.263   6.144   7.653
36925SOL     OW12607   4.573   0.456   0.038
36925SOL    HW112608   4.480   0.453   0.064
36925SOL    HW212609   4.575   0.412  14.832
36926SOL     OW12610   4.180   1.473   8.188
36926SOL    HW112611   4.180   1.437   8.277
36926SOL    HW212612   4.088   1.492   8.170
36927SOL     OW12613   9.336   9.119   9.067
36927SOL    HW112614   9.424   9.091   9.091
36927SOL    HW212615   9.293   9.039   9.037
36928SOL     OW12616   7.077  12.310  12.870
36928SOL    HW112617   7.150  12.362  12.838
36928SOL    HW212618   7.083  12.316  12.966
36929SOL     OW12619   9.965   6.039  12.616
36929SOL    HW112620   9.903   6.084  12.673
36929SOL    HW212621  10.050   6.050  12.659
36930SOL     OW12622   6.268   3.596   1.018
36930SOL    HW112623   6.322   3.671   1.043
36930SOL    HW212624   6.228   3.567   1.100
36931SOL     OW12625   0.403   3.480  14.412
36931SOL    HW112626   0.318   3.522  14.422
36931SOL    HW212627   0.422   3.485  14.318
36932SOL     OW12628   6.189  12.030   9.459
36932SOL    HW112629   6.248  11.988   9.397
36932SOL    HW212630   6.107  12.040   9.412
36933SOL     OW12631  13.317  12.153  10.993
36933SOL    HW112632  13.342  12.094  11.065
36933SOL    HW212633  13.395  12.157  10.938
36934SOL     OW12634   7.142   7.248   6.023
36934SOL    HW112635   7.196   7.323   6.051
36934SOL    HW212636   7.163   7.179   6.086
36935SOL     OW12637  13.390   5.758  12.376
36935SOL    HW112638  13.325   5.771  12.446
36935SOL    HW212639  13.353   5.804  12.300
36936SOL     OW12640  11.414  13.128   3.290
36936SOL    HW112641  11.318  13.122   3.287
36936SOL    HW212642  11.434  13.207   3.239
36937SOL     OW12643   5.871   0.880  12.725
36937SOL    HW112644   5.841   0.804  12.776
36937SOL    HW212645   5.899   0.842  12.641
36938SOL     OW12646   6.099   5.083  10.420
36938SOL    HW112647   6.105   5.052  10.510
36938SOL    HW212648   6.128   5.009  10.367
36939SOL     OW12649  13.106  14.146   1.935
36939SOL    HW112650  13.171  14.200   1.891
36939SOL    HW212651  13.124  14.157   2.028
36940SOL     OW12652   0.414  11.816   6.218
36940SOL    HW112653   0.481  11.824   6.286
36940SOL    HW212654   0.373  11.903   6.215
36941SOL     OW12655   1.664   6.769   6.343
36941SOL    HW112656   1.608   6.746   6.269
36941SOL    HW212657   1.645   6.862   6.360
36942SOL     OW12658   7.057   3.745   1.450
36942SOL    HW112659   7.133   3.756   1.507
36942SOL    HW212660   6.990   3.707   1.507
36943SOL     OW12661  13.287   5.059  13.571
36943SOL    HW112662  13.282   5.115  13.649
36943SOL    HW212663  13.198   5.060  13.536
36944SOL     OW12664  11.337  12.506   5.803
36944SOL    HW112665  11.382  12.490   5.720
36944SOL    HW212666  11.244  12.492   5.783
36945SOL     OW12667  13.544   1.756   0.977
36945SOL    HW112668  13.530   1.665   1.003
36945SOL    HW212669  13.479   1.771   0.908
36946SOL     OW12670   8.726  13.849  11.172
36946SOL    HW112671   8.748  13.941  11.161
36946SOL    HW212672   8.791  13.816  11.234
36947SOL     OW12673   6.749   7.759   4.788
36947SOL    HW112674   6.779   7.676   4.823
36947SOL    HW212675   6.685   7.735   4.720
36948SOL     OW12676   3.837   9.685   3.588
36948SOL    HW112677   3.900   9.616   3.610
36948SOL    HW212678   3.790   9.651   3.513
36949SOL     OW12679   1.974   5.020  12.095
36949SOL    HW112680   1.979   4.946  12.156
36949SOL    HW212681   1.975   4.980  12.008
36950SOL     OW12682  10.988   6.449   2.721
36950SOL    HW112683  10.957   6.523   2.669
36950SOL    HW212684  10.966   6.472   2.811
36951SOL     OW12685   8.814   0.312   4.585
36951SOL    HW112686   8.849   0.399   4.567
36951SOL    HW212687   8.884   0.268   4.634
36952SOL     OW12688  12.954  12.871   4.962
36952SOL    HW112689  13.023  12.904   4.905
36952SOL    HW212690  12.894  12.827   4.902
36953SOL     OW12691   0.762  14.252   2.955
36953SOL    HW112692   0.845  14.245   3.002
36953SOL    HW212693   0.745  14.347   2.952
36954SOL     OW12694  11.863   4.647   6.960
36954SOL    HW112695  11.811   4.625   6.882
36954SOL    HW212696  11.935   4.584   6.959
36955SOL     OW12697  10.842   9.808  10.076
36955SOL    HW112698  10.889   9.890  10.065
36955SOL    HW212699  10.874   9.773  10.159
36956SOL     OW12700  10.615  12.103   7.994
36956SOL    HW112701  10.590  12.046   8.067
36956SOL    HW212702  10.675  12.049   7.942
36957SOL     OW12703  10.577   4.170   6.317
36957SOL    HW112704  10.620   4.101   6.266
36957SOL    HW212705  10.543   4.126   6.394
36958SOL     OW12706   4.121   9.210   2.502
36958SOL    HW112707   4.077   9.134   2.541
36958SOL    HW212708   4.172   9.173   2.431
36959SOL     OW12709   9.036   0.055  12.134
36959SOL    HW112710   9.090   0.131  12.110
36959SOL    HW212711   9.085   0.013  12.205
36960SOL     OW12712  14.487   1.256   5.396
36960SOL    HW112713  14.487   1.232   5.303
36960SOL    HW212714  14.395   1.274   5.416
36961SOL     OW12715  12.926   5.234   7.395
36961SOL    HW112716  12.837   5.202   7.410
36961SOL    HW212717  12.923   5.270   7.306
36962SOL     OW12718   9.370   5.246   7.613
36962SOL    HW112719   9.376   5.276   7.703
36962SOL    HW212720   9.447   5.284   7.569
36963SOL     OW12721  11.543   2.359   6.123
36963SOL    HW112722  11.612   2.309   6.081
36963SOL    HW212723  11.571   2.367   6.214
36964SOL     OW12724   6.631  11.676   0.937
36964SOL    HW112725   6.615  11.682   0.843
36964SOL    HW212726   6.710  11.727   0.952
36965SOL     OW12727   4.137  10.912   2.575
36965SOL    HW112728   4.068  10.979   2.570
36965SOL    HW212729   4.107  10.842   2.517
36966SOL     OW12730   1.647   4.741  13.036
36966SOL    HW112731   1.566   4.737  12.986
36966SOL    HW212732   1.626   4.794  13.113
36967SOL     OW12733  10.272  14.421   0.915
36967SOL    HW112734  10.256  14.443   0.823
36967SOL    HW212735  10.243  14.499   0.963
36968SOL     OW12736   6.932   6.430  13.129
36968SOL    HW112737   6.991   6.355  13.120
36968SOL    HW212738   6.962   6.473  13.210
36969SOL     OW12739   1.837   8.047  14.734
36969SOL    HW112740   1.821   8.115  14.800
36969SOL    HW212741   1.810   7.966  14.777
36970SOL     OW12742   0.212   9.918   7.362
36970SOL    HW112743   0.242   9.974   7.434
36970SOL    HW212744   0.287   9.913   7.303
36971SOL     OW12745   2.818   4.210  11.215
36971SOL    HW112746   2.864   4.160  11.282
36971SOL    HW212747   2.882   4.219  11.144
36972SOL     OW12748   7.089   9.923   1.570
36972SOL    HW112749   7.059   9.851   1.625
36972SOL    HW212750   7.021   9.990   1.576
36973SOL     OW12751  14.050   9.023  11.962
36973SOL    HW112752  14.009   9.015  12.048
36973SOL    HW212753  14.143   9.008  11.978
36974SOL     OW12754  13.808  12.622   8.717
36974SOL    HW112755  13.813  12.613   8.622
36974SOL    HW212756  13.807  12.532   8.750
36975SOL     OW12757  14.626  11.449   8.205
36975SOL    HW112758  14.687  11.377   8.222
36975SOL    HW212759  14.570  11.452   8.282
36976SOL     OW12760   4.132   4.289   5.615
36976SOL    HW112761   4.108   4.370   5.659
36976SOL    HW212762   4.146   4.315   5.524
36977SOL     OW12763   2.841  14.625   6.502
36977SOL    HW112764   2.801  14.546   6.539
36977SOL    HW212765   2.912  14.593   6.448
36978SOL     OW12766  10.131  14.471  14.210
36978SOL    HW112767  10.152  14.409  14.141
36978SOL    HW212768  10.110  14.552  14.164
36979SOL     OW12769  10.366  10.410   5.220
36979SOL    HW112770  10.343  10.413   5.127
36979SOL    HW212771  10.413  10.492   5.235
36980SOL     OW12772  12.305   8.193  13.449
36980SOL    HW112773  12.379   8.151  13.493
36980SOL    HW212774  12.345   8.250  13.384
36981SOL     OW12775   4.196   5.756   0.059
36981SOL    HW112776   4.149   5.673   0.054
36981SOL    HW212777   4.136   5.815   0.105
36982SOL     OW12778   7.474  12.236   4.177
36982SOL    HW112779   7.523  12.176   4.233
36982SOL    HW212780   7.382  12.214   4.192
36983SOL     OW12781   1.367   3.294   3.906
36983SOL    HW112782   1.316   3.343   3.971
36983SOL    HW212783   1.351   3.202   3.927
36984SOL     OW12784   0.684   9.091  10.429
36984SOL    HW112785   0.651   9.137  10.506
36984SOL    HW212786   0.727   9.159  10.378
36985SOL     OW12787   8.772  11.803   4.611
36985SOL    HW112788   8.700  11.751   4.574
36985SOL    HW212789   8.806  11.852   4.536
36986SOL     OW12790   9.648  11.832  14.718
36986SOL    HW112791   9.681  11.858  14.632
36986SOL    HW212792   9.553  11.823  14.705
36987SOL     OW12793   2.894   0.040  11.097
36987SOL    HW112794   2.865   0.128  11.120
36987SOL    HW212795   2.863   0.026  11.008
36988SOL     OW12796   8.002   6.730   0.106
36988SOL    HW112797   8.025   6.732   0.013
36988SOL    HW212798   8.062   6.791   0.148
36989SOL     OW12799   9.694   7.589   4.219
36989SOL    HW112800   9.687   7.560   4.310
36989SOL    HW212801   9.640   7.667   4.214
36990SOL     OW12802   3.600   3.323  11.935
36990SOL    HW112803   3.575   3.349  11.847
36990SOL    HW212804   3.582   3.229  11.938
36991SOL     OW12805  10.921   0.408   9.487
36991SOL    HW112806  10.914   0.333   9.546
36991SOL    HW212807  10.917   0.484   9.544
36992SOL     OW12808   8.952   5.808  13.139
36992SOL    HW112809   8.888   5.824  13.208
36992SOL    HW212810   8.900   5.783  13.063
36993SOL     OW12811   6.935  14.457   9.975
36993SOL    HW112812   6.935  14.401   9.898
36993SOL    HW212813   6.938  14.397  10.049
36994SOL     OW12814  14.352   6.280   6.557
36994SOL    HW112815  14.387   6.332   6.484
36994SOL    HW212816  14.337   6.343   6.626
36995SOL     OW12817  10.560   9.187   8.010
36995SOL    HW112818  10.627   9.145   7.957
36995SOL    HW212819  10.536   9.120   8.075
36996SOL     OW12820  13.426   4.821  14.209
36996SOL    HW112821  13.419   4.733  14.170
36996SOL    HW212822  13.414   4.880  14.135
36997SOL     OW12823   3.176  14.850   8.706
36997SOL    HW112824   3.137  14.805   8.781
36997SOL    HW212825   3.271  14.846   8.722
36998SOL     OW12826   3.403  12.692   0.861
36998SOL    HW112827   3.349  12.692   0.940
36998SOL    HW212828   3.353  12.641   0.798
36999SOL     OW12829   9.509   1.194   5.314
36999SOL    HW112830   9.542   1.234   5.234
36999SOL    HW212831   9.417   1.220   5.319
37000SOL     OW12832   1.614   3.008   8.398
37000SOL    HW112833   1.689   2.976   8.447
37000SOL    HW212834   1.643   3.007   8.307
37001SOL     OW12835   3.868  11.312  11.062
37001SOL    HW112836   3.911  11.228  11.047
37001SOL    HW212837   3.894  11.366  10.988
37002SOL     OW12838  13.166  13.799   9.298
37002SOL    HW112839  13.217  13.754   9.365
37002SOL    HW212840  13.231  13.839   9.241
37003SOL     OW12841  10.833   1.380  12.338
37003SOL    HW112842  10.820   1.329  12.258
37003SOL    HW212843  10.890   1.452  12.311
37004SOL     OW12844  11.190   8.182  13.490
37004SOL    HW112845  11.121   8.155  13.551
37004SOL    HW212846  11.151   8.170  13.404
37005SOL     OW12847   2.747   1.343   8.870
37005SOL    HW112848   2.690   1.416   8.895
37005SOL    HW212849   2.777   1.307   8.953
37006SOL     OW12850  14.312   9.268  13.012
37006SOL    HW112851  14.339   9.201  12.949
37006SOL    HW212852  14.383   9.333  13.010
37007SOL     OW12853   9.186   2.974  11.086
37007SOL    HW112854   9.139   3.036  11.142
37007SOL    HW212855   9.275   2.972  11.121
37008SOL     OW12856   3.821  11.952  14.844
37008SOL    HW112857   3.780  11.954   0.051
37008SOL    HW212858   3.765  12.007  14.789
37009SOL     OW12859   4.273   0.541  12.610
37009SOL    HW112860   4.313   0.618  12.571
37009SOL    HW212861   4.183   0.568  12.629
37010SOL     OW12862  14.219  10.470  11.955
37010SOL    HW112863  14.287  10.535  11.972
37010SOL    HW212864  14.261  10.385  11.972
37011SOL     OW12865  11.490   9.758   5.465
37011SOL    HW112866  11.499   9.685   5.404
37011SOL    HW212867  11.571   9.756   5.516
37012SOL     OW12868  14.091   4.857   3.104
37012SOL    HW112869  14.054   4.897   3.184
37012SOL    HW212870  14.157   4.920   3.074
37013SOL     OW12871   7.772  11.517   3.126
37013SOL    HW112872   7.757  11.544   3.216
37013SOL    HW212873   7.818  11.591   3.086
37014SOL     OW12874  12.734   9.957  12.691
37014SOL    HW112875  12.800  10.012  12.733
37014SOL    HW212876  12.677   9.929  12.763
37015SOL     OW12877   3.758  12.379  12.815
37015SOL    HW112878   3.823  12.401  12.749
37015SOL    HW212879   3.689  12.443  12.803
37016SOL     OW12880   1.082   2.082  11.423
37016SOL    HW112881   1.086   2.081  11.327
37016SOL    HW212882   1.172   2.061  11.450
37017SOL     OW12883   5.143   5.152   9.234
37017SOL    HW112884   5.141   5.236   9.282
37017SOL    HW212885   5.072   5.159   9.171
37018SOL     OW12886   1.433  14.760   6.234
37018SOL    HW112887   1.421  14.756   6.139
37018SOL    HW212888   1.393  14.680   6.267
37019SOL     OW12889   9.440   1.551   2.139
37019SOL    HW112890   9.379   1.477   2.146
37019SOL    HW212891   9.393   1.616   2.088
37020SOL     OW12892  12.574   1.349   2.224
37020SOL    HW112893  12.567   1.325   2.316
37020SOL    HW212894  12.497   1.309   2.183
37021SOL     OW12895   4.800  10.623   5.241
37021SOL    HW112896   4.749  10.704   5.247
37021SOL    HW212897   4.891  10.653   5.242
37022SOL     OW12898   8.045   3.086   8.204
37022SOL    HW112899   8.139   3.102   8.202
37022SOL    HW212900   8.027   3.042   8.121
37023SOL     OW12901   7.905   9.149   9.058
37023SOL    HW112902   7.909   9.240   9.026
37023SOL    HW212903   7.825   9.114   9.019
37024SOL     OW12904   3.323   7.052   0.293
37024SOL    HW112905   3.315   7.140   0.329
37024SOL    HW212906   3.264   6.998   0.346
37025SOL     OW12907   8.945  10.608   9.231
37025SOL    HW112908   9.015  10.545   9.250
37025SOL    HW212909   8.902  10.622   9.315
37026SOL     OW12910  12.502   0.864   7.731
37026SOL    HW112911  12.495   0.954   7.699
37026SOL    HW212912  12.412   0.832   7.734
37027SOL     OW12913  13.984   0.691   9.521
37027SOL    HW112914  13.998   0.601   9.490
37027SOL    HW212915  13.903   0.686   9.572
37028SOL     OW12916  12.418   3.434   2.402
37028SOL    HW112917  12.497   3.472   2.441
37028SOL    HW212918  12.391   3.366   2.463
37029SOL     OW12919   8.167   9.948  14.757
37029SOL    HW112920   8.166  10.035  14.719
37029SOL    HW212921   8.168   9.888  14.683
37030SOL     OW12922  13.238  14.076   7.527
37030SOL    HW112923  13.255  14.029   7.608
37030SOL    HW212924  13.144  14.088   7.524
37031SOL     OW12925   8.701  14.673   3.868
37031SOL    HW112926   8.670  14.623   3.793
37031SOL    HW212927   8.739  14.608   3.927
37032SOL     OW12928  10.110   6.675   8.003
37032SOL    HW112929  10.077   6.675   7.913
37032SOL    HW212930  10.035   6.703   8.056
37033SOL     OW12931  14.522  13.129   8.804
37033SOL    HW112932  14.458  13.198   8.783
37033SOL    HW212933  14.561  13.157   8.887
37034SOL     OW12934   6.810   6.142   0.163
37034SOL    HW112935   6.719   6.118   0.142
37034SOL    HW212936   6.808   6.237   0.171
37035SOL     OW12937   0.662  12.813   2.919
37035SOL    HW112938   0.684  12.806   2.826
37035SOL    HW212939   0.594  12.881   2.921
37036SOL     OW12940   1.648   2.204  11.574
37036SOL    HW112941   1.729   2.155  11.561
37036SOL    HW212942   1.675   2.296  11.570
37037SOL     OW12943   5.277  10.173   3.816
37037SOL    HW112944   5.306  10.201   3.903
37037SOL    HW212945   5.182  10.180   3.819
37038SOL     OW12946   9.251  10.200   7.723
37038SOL    HW112947   9.202  10.124   7.694
37038SOL    HW212948   9.332  10.197   7.672
37039SOL     OW12949   0.182   7.933  13.394
37039SOL    HW112950   0.246   7.904  13.459
37039SOL    HW212951   0.235   7.965  13.321
37040SOL     OW12952   7.522   6.354   7.244
37040SOL    HW112953   7.468   6.390   7.174
37040SOL    HW212954   7.612   6.370   7.216
37041SOL     OW12955   5.945  14.343  10.426
37041SOL    HW112956   5.924  14.269  10.369
37041SOL    HW212957   6.022  14.383  10.385
37042SOL     OW12958   1.349   4.014   7.484
37042SOL    HW112959   1.290   4.041   7.554
37042SOL    HW212960   1.376   3.925   7.509
37043SOL     OW12961   3.732   5.125   4.654
37043SOL    HW112962   3.677   5.064   4.704
37043SOL    HW212963   3.670   5.172   4.598
37044SOL     OW12964   3.383   6.822   0.117
37044SOL    HW112965   3.389   6.823   0.022
37044SOL    HW212966   3.384   6.914   0.142
37045SOL     OW12967  14.498   4.980   3.269
37045SOL    HW112968  14.421   5.015   3.314
37045SOL    HW212969  14.485   4.886   3.269
37046SOL     OW12970   6.781   9.772   6.387
37046SOL    HW112971   6.761   9.680   6.367
37046SOL    HW212972   6.823   9.770   6.472
37047SOL     OW12973  10.023   2.646   6.219
37047SOL    HW112974   9.962   2.578   6.189
37047SOL    HW212975   9.982   2.728   6.191
37048SOL     OW12976  11.306   9.871   8.180
37048SOL    HW112977  11.288   9.922   8.260
37048SOL    HW212978  11.336   9.786   8.213
37049SOL     OW12979   4.946  10.031   8.985
37049SOL    HW112980   5.006   9.968   8.947
37049SOL    HW212981   4.990  10.115   8.976
37050SOL     OW12982   2.692  12.834   4.690
37050SOL    HW112983   2.745  12.905   4.653
37050SOL    HW212984   2.624  12.818   4.624
37051SOL     OW12985   8.460   1.524  11.150
37051SOL    HW112986   8.424   1.571  11.225
37051SOL    HW212987   8.521   1.587  11.110
37052SOL     OW12988   1.240   6.840   6.965
37052SOL    HW112989   1.232   6.921   7.015
37052SOL    HW212990   1.331   6.814   6.976
37053SOL     OW12991  10.287   4.762  13.370
37053SOL    HW112992  10.297   4.710  13.289
37053SOL    HW212993  10.206   4.811  13.356
37054SOL     OW12994   7.554   7.604  14.308
37054SOL    HW112995   7.500   7.604  14.387
37054SOL    HW212996   7.630   7.549  14.330
37055SOL     OW12997   1.541  10.058   8.800
37055SOL    HW112998   1.473  10.047   8.733
37055SOL    HW212999   1.493  10.085   8.878
37056SOL     OW13000   6.372   9.975  13.257
37056SOL    HW113001   6.397   9.890  13.220
37056SOL    HW213002   6.346   9.956  13.347
37057SOL     OW13003   3.816  11.435  13.711
37057SOL    HW113004   3.870  11.400  13.640
37057SOL    HW213005   3.756  11.495  13.668
37058SOL     OW13006   1.241   0.198   1.904
37058SOL    HW113007   1.146   0.196   1.914
37058SOL    HW213008   1.272   0.232   1.988
37059SOL     OW13009   1.582   0.182  10.444
37059SOL    HW113010   1.636   0.122  10.495
37059SOL    HW213011   1.530   0.126  10.387
37060SOL     OW13012   4.835   1.012   2.352
37060SOL    HW113013   4.806   1.062   2.276
37060SOL    HW213014   4.903   1.066   2.392
37061SOL     OW13015  11.464  13.229   0.287
37061SOL    HW113016  11.484  13.278   0.208
37061SOL    HW213017  11.434  13.295   0.349
37062SOL     OW13018  13.430   3.002  14.274
37062SOL    HW113019  13.498   2.987  14.209
37062SOL    HW213020  13.371   3.066  14.234
37063SOL     OW13021   2.763   1.937  14.786
37063SOL    HW113022   2.768   1.988  14.705
37063SOL    HW213023   2.791   1.849  14.760
37064SOL     OW13024   1.874   4.447   3.623
37064SOL    HW113025   1.785   4.480   3.634
37064SOL    HW213026   1.870   4.391   3.546
37065SOL     OW13027   2.195  14.744   2.500
37065SOL    HW113028   2.208  14.702   2.415
37065SOL    HW213029   2.266  14.808   2.506
37066SOL     OW13030   1.635   6.239   8.364
37066SOL    HW113031   1.574   6.245   8.290
37066SOL    HW213032   1.687   6.319   8.357
37067SOL     OW13033   7.570   9.607   7.189
37067SOL    HW113034   7.661   9.583   7.174
37067SOL    HW213035   7.539   9.640   7.105
37068SOL     OW13036  14.764   2.240   7.073
37068SOL    HW113037  14.776   2.211   6.982
37068SOL    HW213038  14.844   2.213   7.118
37069SOL     OW13039  10.793   9.118   5.101
37069SOL    HW113040  10.855   9.071   5.045
37069SOL    HW213041  10.806   9.080   5.189
37070SOL     OW13042   6.504   2.944   5.070
37070SOL    HW113043   6.411   2.929   5.084
37070SOL    HW213044   6.509   3.029   5.027
37071SOL     OW13045   2.546   3.504  11.614
37071SOL    HW113046   2.505   3.477  11.531
37071SOL    HW213047   2.632   3.462  11.613
37072SOL     OW13048   3.621   0.555  11.349
37072SOL    HW113049   3.663   0.632  11.312
37072SOL    HW213050   3.596   0.503  11.272
37073SOL     OW13051   4.728   7.754   6.072
37073SOL    HW113052   4.653   7.753   6.131
37073SOL    HW213053   4.749   7.846   6.059
37074SOL     OW13054   3.029   5.097  13.447
37074SOL    HW113055   2.993   5.013  13.475
37074SOL    HW213056   3.108   5.075  13.399
37075SOL     OW13057  12.295  10.739   5.681
37075SOL    HW113058  12.226  10.702   5.736
37075SOL    HW213059  12.249  10.770   5.603
37076SOL     OW13060  14.129   5.031   1.189
37076SOL    HW113061  14.119   5.125   1.179
37076SOL    HW213062  14.223   5.016   1.187
37077SOL     OW13063   5.337   3.870  10.984
37077SOL    HW113064   5.327   3.786  10.939
37077SOL    HW213065   5.422   3.863  11.029
37078SOL     OW13066   0.367  10.601  10.825
37078SOL    HW113067   0.333  10.611  10.736
37078SOL    HW213068   0.293  10.570  10.876
37079SOL     OW13069   2.446   2.397  14.696
37079SOL    HW113070   2.375   2.451  14.662
37079SOL    HW213071   2.505   2.458  14.738
37080SOL     OW13072  12.462  14.322   4.965
37080SOL    HW113073  12.388  14.371   4.928
37080SOL    HW213074  12.422  14.248   5.009
37081SOL     OW13075  14.563   3.642  11.052
37081SOL    HW113076  14.627   3.594  11.000
37081SOL    HW213077  14.524   3.576  11.109
37082SOL     OW13078  13.552  12.550  14.392
37082SOL    HW113079  13.505  12.618  14.344
37082SOL    HW213080  13.631  12.593  14.424
37083SOL     OW13081   1.573   5.554   6.949
37083SOL    HW113082   1.593   5.578   7.040
37083SOL    HW213083   1.602   5.463   6.941
37084SOL     OW13084   1.212  12.980   0.745
37084SOL    HW113085   1.137  12.923   0.760
37084SOL    HW213086   1.265  12.934   0.679
37085SOL     OW13087  14.301   8.988  12.057
37085SOL    HW113088  14.316   8.965  12.149
37085SOL    HW213089  14.368   9.054  12.037
37086SOL     OW13090   1.093   7.849   7.913
37086SOL    HW113091   1.055   7.776   7.864
37086SOL    HW213092   1.148   7.807   7.979
37087SOL     OW13093   4.217   3.167   2.867
37087SOL    HW113094   4.196   3.107   2.938
37087SOL    HW213095   4.247   3.247   2.911
37088SOL     OW13096   3.331   0.514  14.337
37088SOL    HW113097   3.318   0.604  14.365
37088SOL    HW213098   3.420   0.492  14.367
37089SOL     OW13099  11.222   8.100   1.307
37089SOL    HW113100  11.316   8.091   1.316
37089SOL    HW213101  11.191   8.117   1.396
37090SOL     OW13102   8.928   8.193   1.838
37090SOL    HW113103   8.964   8.107   1.816
37090SOL    HW213104   8.977   8.221   1.915
37091SOL     OW13105   4.557   6.045   7.393
37091SOL    HW113106   4.472   6.027   7.353
37091SOL    HW213107   4.615   5.978   7.357
37092SOL     OW13108   2.701   2.764  10.641
37092SOL    HW113109   2.752   2.833  10.598
37092SOL    HW213110   2.617   2.765  10.597
37093SOL     OW13111  11.948   1.939  10.130
37093SOL    HW113112  12.008   1.986  10.072
37093SOL    HW213113  11.963   1.847  10.110
37094SOL     OW13114   6.102  11.533   9.937
37094SOL    HW113115   6.110  11.481  10.018
37094SOL    HW213116   6.015  11.572   9.943
37095SOL     OW13117  10.120  10.205  13.597
37095SOL    HW113118  10.053  10.271  13.611
37095SOL    HW213119  10.175  10.241  13.528
37096SOL     OW13120  14.064  10.260   6.927
37096SOL    HW113121  14.061  10.199   7.001
37096SOL    HW213122  13.979  10.304   6.929
37097SOL     OW13123   7.842  13.171  11.501
37097SOL    HW113124   7.922  13.129  11.471
37097SOL    HW213125   7.778  13.152  11.432
37098SOL     OW13126   6.149   6.529   5.895
37098SOL    HW113127   6.173   6.452   5.843
37098SOL    HW213128   6.229   6.581   5.900
37099SOL     OW13129   4.192   6.320   5.813
37099SOL    HW113130   4.287   6.312   5.805
37099SOL    HW213131   4.157   6.248   5.761
37100SOL     OW13132   4.816   1.383  14.166
37100SOL    HW113133   4.748   1.317  14.152
37100SOL    HW213134   4.864   1.385  14.084
37101SOL     OW13135  11.019  12.180   0.489
37101SOL    HW113136  11.005  12.225   0.405
37101SOL    HW213137  11.011  12.249   0.555
37102SOL     OW13138   8.893   0.076   9.841
37102SOL    HW113139   8.889   0.006   9.907
37102SOL    HW213140   8.813   0.065   9.790
37103SOL     OW13141   1.935  13.907   4.553
37103SOL    HW113142   1.985  13.989   4.548
37103SOL    HW213143   1.965  13.857   4.477
37104SOL     OW13144  14.694   0.850  13.134
37104SOL    HW113145  14.781   0.815  13.155
37104SOL    HW213146  14.661   0.791  13.066
37105SOL     OW13147   4.894  14.631   3.868
37105SOL    HW113148   4.871  14.628   3.961
37105SOL    HW213149   4.946  14.552   3.853
37106SOL     OW13150  12.314   9.465  11.150
37106SOL    HW113151  12.238   9.408  11.139
37106SOL    HW213152  12.287   9.549  11.115
37107SOL     OW13153   8.618   8.622  14.432
37107SOL    HW113154   8.524   8.632  14.449
37107SOL    HW213155   8.642   8.701  14.384
37108SOL     OW13156   0.518  11.638  12.107
37108SOL    HW113157   0.567  11.559  12.133
37108SOL    HW213158   0.581  11.689  12.057
37109SOL     OW13159  12.777  10.487   2.663
37109SOL    HW113160  12.847  10.454   2.719
37109SOL    HW213161  12.775  10.581   2.679
37110SOL     OW13162   9.283  10.885   3.692
37110SOL    HW113163   9.223  10.834   3.637
37110SOL    HW213164   9.357  10.827   3.708
37111SOL     OW13165  10.566  12.911   0.596
37111SOL    HW113166  10.541  12.928   0.506
37111SOL    HW213167  10.631  12.979   0.616
37112SOL     OW13168  13.894   9.971   2.067
37112SOL    HW113169  13.990   9.978   2.064
37112SOL    HW213170  13.866  10.046   2.121
37113SOL     OW13171   6.067   5.217  12.460
37113SOL    HW113172   6.115   5.272  12.522
37113SOL    HW213173   6.108   5.235  12.375
37114SOL     OW13174   6.204   1.096   0.218
37114SOL    HW113175   6.140   1.068   0.285
37114SOL    HW213176   6.200   1.027   0.152
37115SOL     OW13177   7.189   6.283   9.554
37115SOL    HW113178   7.207   6.356   9.496
37115SOL    HW213179   7.222   6.206   9.507
37116SOL     OW13180   6.287   3.015   6.247
37116SOL    HW113181   6.284   3.054   6.160
37116SOL    HW213182   6.380   3.008   6.267
37117SOL     OW13183  10.154   6.322   2.326
37117SOL    HW113184  10.084   6.266   2.360
37117SOL    HW213185  10.235   6.274   2.344
37118SOL     OW13186   8.820   8.791   1.651
37118SOL    HW113187   8.797   8.768   1.561
37118SOL    HW213188   8.911   8.762   1.660
37119SOL     OW13189   7.244  12.897  13.814
37119SOL    HW113190   7.165  12.891  13.867
37119SOL    HW213191   7.216  12.869  13.727
37120SOL     OW13192  13.053   1.749   4.702
37120SOL    HW113193  12.986   1.815   4.685
37120SOL    HW213194  13.124   1.772   4.642
37121SOL     OW13195  11.632   7.667   1.558
37121SOL    HW113196  11.577   7.605   1.607
37121SOL    HW213197  11.616   7.751   1.600
37122SOL     OW13198  12.888   5.020  11.595
37122SOL    HW113199  12.839   5.091  11.552
37122SOL    HW213200  12.824   4.949  11.604
37123SOL     OW13201   6.874   7.264  11.627
37123SOL    HW113202   6.837   7.232  11.545
37123SOL    HW213203   6.906   7.352  11.607
37124SOL     OW13204   9.111   2.873   1.352
37124SOL    HW113205   9.094   2.885   1.259
37124SOL    HW213206   9.179   2.806   1.356
37125SOL     OW13207  12.756   5.193   9.133
37125SOL    HW113208  12.765   5.281   9.169
37125SOL    HW213209  12.703   5.205   9.054
37126SOL     OW13210   7.016  10.766  12.204
37126SOL    HW113211   7.039  10.741  12.293
37126SOL    HW213212   7.099  10.790  12.163
37127SOL     OW13213  14.320   6.775   9.108
37127SOL    HW113214  14.367   6.707   9.158
37127SOL    HW213215  14.272   6.726   9.041
37128SOL     OW13216  13.043   6.654   9.192
37128SOL    HW113217  13.133   6.671   9.220
37128SOL    HW213218  13.016   6.735   9.149
37129SOL     OW13219   6.574   3.896   1.736
37129SOL    HW113220   6.611   3.922   1.821
37129SOL    HW213221   6.635   3.931   1.672
37130SOL     OW13222  13.463  13.379  10.405
37130SOL    HW113223  13.521  13.450  10.432
37130SOL    HW213224  13.422  13.349  10.486
37131SOL     OW13225   0.950  14.688   3.123
37131SOL    HW113226   0.905  14.620   3.173
37131SOL    HW213227   0.963  14.759   3.185
37132SOL     OW13228  11.413  10.826   1.561
37132SOL    HW113229  11.423  10.808   1.654
37132SOL    HW213230  11.401  10.739   1.521
37133SOL     OW13231  13.763  13.671   7.637
37133SOL    HW113232  13.811  13.659   7.719
37133SOL    HW213233  13.735  13.762   7.638
37134SOL     OW13234   0.325   7.319   5.258
37134SOL    HW113235   0.368   7.372   5.325
37134SOL    HW213236   0.262   7.266   5.307
37135SOL     OW13237   6.907  12.928   6.190
37135SOL    HW113238   6.941  12.932   6.100
37135SOL    HW213239   6.969  12.871   6.236
37136SOL     OW13240  10.225   4.292   5.473
37136SOL    HW113241  10.280   4.219   5.502
37136SOL    HW213242  10.171   4.256   5.403
37137SOL     OW13243   6.051   0.401   9.404
37137SOL    HW113244   6.062   0.490   9.370
37137SOL    HW213245   5.969   0.403   9.453
37138SOL     OW13246   0.723   8.631   1.503
37138SOL    HW113247   0.649   8.596   1.455
37138SOL    HW213248   0.742   8.565   1.570
37139SOL     OW13249   4.601   6.542   2.408
37139SOL    HW113250   4.531   6.578   2.463
37139SOL    HW213251   4.554   6.505   2.333
37140SOL     OW13252  13.000   9.320   4.441
37140SOL    HW113253  12.906   9.305   4.436
37140SOL    HW213254  13.039   9.237   4.412
37141SOL     OW13255   9.150   7.230  14.285
37141SOL    HW113256   9.096   7.151  14.279
37141SOL    HW213257   9.200   7.231  14.204
37142SOL     OW13258  10.428   4.100  12.785
37142SOL    HW113259  10.445   4.194  12.789
37142SOL    HW213260  10.430   4.071  12.876
37143SOL     OW13261  13.736   3.329   7.230
37143SOL    HW113262  13.668   3.321   7.296
37143SOL    HW213263  13.696   3.295   7.150
37144SOL     OW13264  10.910   9.265   0.447
37144SOL    HW113265  10.871   9.329   0.507
37144SOL    HW213266  10.900   9.181   0.492
37145SOL     OW13267   6.345   9.188   3.945
37145SOL    HW113268   6.322   9.196   3.853
37145SOL    HW213269   6.401   9.110   3.948
37146SOL     OW13270   1.340   1.214   3.063
37146SOL    HW113271   1.395   1.201   3.141
37146SOL    HW213272   1.328   1.126   3.028
37147SOL     OW13273   2.219  14.218  13.029
37147SOL    HW113274   2.302  14.171  13.041
37147SOL    HW213275   2.199  14.207  12.936
37148SOL     OW13276  14.020  10.748   7.411
37148SOL    HW113277  14.012  10.719   7.320
37148SOL    HW213278  14.022  10.844   7.405
37149SOL     OW13279   9.039   8.492   8.400
37149SOL    HW113280   8.973   8.435   8.441
37149SOL    HW213281   9.088   8.434   8.342
37150SOL     OW13282   1.664  14.503   3.640
37150SOL    HW113283   1.613  14.438   3.591
37150SOL    HW213284   1.717  14.451   3.701
37151SOL     OW13285  13.940  12.675  14.146
37151SOL    HW113286  13.889  12.682  14.065
37151SOL    HW213287  13.958  12.581  14.154
37152SOL     OW13288  10.471   6.649   4.400
37152SOL    HW113289  10.540   6.622   4.461
37152SOL    HW213290  10.471   6.744   4.404
37153SOL     OW13291   4.780   9.923  10.670
37153SOL    HW113292   4.817   9.836  10.689
37153SOL    HW213293   4.810   9.943  10.582
37154SOL     OW13294   1.140   3.491   9.081
37154SOL    HW113295   1.164   3.523   9.168
37154SOL    HW213296   1.150   3.567   9.024
37155SOL     OW13297  11.185   2.130   0.125
37155SOL    HW113298  11.231   2.053   0.092
37155SOL    HW213299  11.251   2.198   0.128
37156SOL     OW13300   3.490  11.945   9.596
37156SOL    HW113301   3.430  11.927   9.524
37156SOL    HW213302   3.560  11.998   9.558
37157SOL     OW13303   0.370  13.736   5.380
37157SOL    HW113304   0.336  13.660   5.426
37157SOL    HW213305   0.381  13.803   5.447
37158SOL     OW13306   9.108   3.145   4.618
37158SOL    HW113307   9.114   3.230   4.576
37158SOL    HW213308   9.014   3.125   4.618
37159SOL     OW13309   1.048   4.369   0.814
37159SOL    HW113310   1.073   4.278   0.826
37159SOL    HW213311   0.956   4.364   0.787
37160SOL     OW13312  12.217   6.255   0.077
37160SOL    HW113313  12.187   6.312   0.007
37160SOL    HW213314  12.293   6.209   0.040
37161SOL     OW13315  14.858   8.118   9.587
37161SOL    HW113316   0.012   8.164   9.664
37161SOL    HW213317   0.043   8.048   9.572
37162SOL     OW13318  12.482   3.923   6.602
37162SOL    HW113319  12.534   3.992   6.643
37162SOL    HW213320  12.468   3.953   6.512
37163SOL     OW13321  12.405  10.317   6.001
37163SOL    HW113322  12.420  10.228   5.972
37163SOL    HW213323  12.493  10.352   6.018
37164SOL     OW13324   8.741   5.394   3.493
37164SOL    HW113325   8.669   5.417   3.552
37164SOL    HW213326   8.820   5.427   3.537
37165SOL     OW13327   8.155   9.911   4.737
37165SOL    HW113328   8.245   9.936   4.714
37165SOL    HW213329   8.111   9.901   4.653
37166SOL     OW13330  13.440  10.575   1.483
37166SOL    HW113331  13.505  10.635   1.521
37166SOL    HW213332  13.489  10.495   1.464
37167SOL     OW13333   4.257  12.413  13.911
37167SOL    HW113334   4.292  12.430  13.823
37167SOL    HW213335   4.331  12.429  13.969
37168SOL     OW13336   8.752   3.265  12.523
37168SOL    HW113337   8.774   3.337  12.582
37168SOL    HW213338   8.833   3.216  12.513
37169SOL     OW13339  14.793  11.667   0.244
37169SOL    HW113340  14.713  11.617   0.229
37169SOL    HW213341  14.795  11.680   0.339
37170SOL     OW13342   6.194   2.965  13.386
37170SOL    HW113343   6.198   3.025  13.460
37170SOL    HW213344   6.171   2.881  13.425
37171SOL     OW13345  12.477   3.882  12.855
37171SOL    HW113346  12.530   3.938  12.798
37171SOL    HW213347  12.397   3.866  12.805
37172SOL     OW13348  10.425   0.278   0.259
37172SOL    HW113349  10.500   0.302   0.313
37172SOL    HW213350  10.359   0.247   0.322
37173SOL     OW13351   6.529  13.933  11.367
37173SOL    HW113352   6.475  13.869  11.413
37173SOL    HW213353   6.523  13.908  11.275
37174SOL     OW13354   8.941   2.499   3.151
37174SOL    HW113355   9.030   2.534   3.156
37174SOL    HW213356   8.906   2.534   3.070
37175SOL     OW13357  13.173  12.211   6.053
37175SOL    HW113358  13.199  12.245   6.138
37175SOL    HW213359  13.192  12.117   6.057
37176SOL     OW13360  13.305  14.216   8.140
37176SOL    HW113361  13.361  14.139   8.136
37176SOL    HW213362  13.303  14.240   8.233
37177SOL     OW13363   3.344  13.583   7.410
37177SOL    HW113364   3.438  13.591   7.424
37177SOL    HW213365   3.311  13.673   7.419
37178SOL     OW13366   6.112   3.434   1.593
37178SOL    HW113367   6.062   3.365   1.550
37178SOL    HW213368   6.192   3.442   1.541
37179SOL     OW13369   8.070   1.010   8.781
37179SOL    HW113370   8.120   1.007   8.863
37179SOL    HW213371   8.108   0.940   8.728
37180SOL     OW13372   3.807   5.251   2.809
37180SOL    HW113373   3.881   5.224   2.863
37180SOL    HW213374   3.765   5.320   2.860
37181SOL     OW13375  14.700  12.748   8.380
37181SOL    HW113376  14.617  12.702   8.392
37181SOL    HW213377  14.725  12.730   8.289
37182SOL     OW13378   9.553   5.726   7.933
37182SOL    HW113379   9.466   5.693   7.914
37182SOL    HW213380   9.538   5.813   7.970
37183SOL     OW13381   8.511  12.853   8.431
37183SOL    HW113382   8.501  12.924   8.369
37183SOL    HW213383   8.431  12.856   8.484
37184SOL     OW13384   4.669   4.812   4.891
37184SOL    HW113385   4.582   4.811   4.851
37184SOL    HW213386   4.689   4.719   4.906
37185SOL     OW13387   6.886  11.998   4.692
37185SOL    HW113388   6.865  12.043   4.610
37185SOL    HW213389   6.815  12.021   4.751
37186SOL     OW13390   5.271   5.109   0.711
37186SOL    HW113391   5.341   5.138   0.770
37186SOL    HW213392   5.210   5.182   0.707
37187SOL     OW13393   4.491  10.597   3.490
37187SOL    HW113394   4.509  10.510   3.453
37187SOL    HW213395   4.571  10.618   3.539
37188SOL     OW13396   4.219   7.694   5.102
37188SOL    HW113397   4.151   7.637   5.066
37188SOL    HW213398   4.250   7.647   5.179
37189SOL     OW13399   2.903   0.872  12.135
37189SOL    HW113400   2.984   0.922  12.144
37189SOL    HW213401   2.908   0.807  12.206
37190SOL     OW13402  11.501   5.785   4.050
37190SOL    HW113403  11.520   5.879   4.057
37190SOL    HW213404  11.577   5.743   4.090
37191SOL     OW13405  12.711  10.229   8.536
37191SOL    HW113406  12.753  10.193   8.614
37191SOL    HW213407  12.649  10.162   8.509
37192SOL     OW13408  13.143   8.947  13.129
37192SOL    HW113409  13.052   8.931  13.155
37192SOL    HW213410  13.172   8.865  13.090
37193SOL     OW13411  14.238  13.613   8.879
37193SOL    HW113412  14.329  13.584   8.883
37193SOL    HW213413  14.201  13.588   8.964
37194SOL     OW13414   0.445   8.066   9.293
37194SOL    HW113415   0.465   8.051   9.201
37194SOL    HW213416   0.396   7.988   9.320
37195SOL     OW13417   8.364   2.533  11.696
37195SOL    HW113418   8.317   2.513  11.616
37195SOL    HW213419   8.456   2.518  11.675
37196SOL     OW13420   8.142  13.098   9.955
37196SOL    HW113421   8.093  13.020   9.980
37196SOL    HW213422   8.150  13.093   9.860
37197SOL     OW13423  13.893   3.155  10.349
37197SOL    HW113424  13.859   3.184  10.433
37197SOL    HW213425  13.837   3.081  10.325
37198SOL     OW13426   1.294  12.247  14.230
37198SOL    HW113427   1.381  12.277  14.258
37198SOL    HW213428   1.243  12.327  14.222
37199SOL     OW13429   3.364   8.619  13.275
37199SOL    HW113430   3.376   8.548  13.212
37199SOL    HW213431   3.290   8.669  13.241
37200SOL     OW13432   0.990   6.940   9.877
37200SOL    HW113433   1.013   6.964   9.967
37200SOL    HW213434   0.947   6.855   9.884
37201SOL     OW13435  13.635  11.854   2.260
37201SOL    HW113436  13.708  11.864   2.321
37201SOL    HW213437  13.567  11.809   2.311
37202SOL     OW13438   8.175   6.475   1.172
37202SOL    HW113439   8.138   6.430   1.248
37202SOL    HW213440   8.110   6.462   1.103
37203SOL     OW13441  10.034   0.746   8.606
37203SOL    HW113442   9.967   0.773   8.543
37203SOL    HW213443  10.040   0.820   8.667
37204SOL     OW13444   9.495   9.407  10.965
37204SOL    HW113445   9.522   9.318  10.940
37204SOL    HW213446   9.442   9.395  11.044
37205SOL     OW13447   1.221   3.361  10.486
37205SOL    HW113448   1.308   3.375  10.449
37205SOL    HW213449   1.161   3.390  10.417
37206SOL     OW13450  12.603   7.606   2.272
37206SOL    HW113451  12.695   7.585   2.255
37206SOL    HW213452  12.601   7.702   2.277
37207SOL     OW13453   2.575   8.203  10.547
37207SOL    HW113454   2.671   8.208  10.544
37207SOL    HW213455   2.558   8.123  10.597
37208SOL     OW13456   9.406   6.430   0.237
37208SOL    HW113457   9.362   6.441   0.153
37208SOL    HW213458   9.361   6.491   0.296
37209SOL     OW13459   5.254  11.478  10.212
37209SOL    HW113460   5.347  11.472  10.191
37209SOL    HW213461   5.210  11.475  10.127
37210SOL     OW13462  11.732   6.247   8.273
37210SOL    HW113463  11.655   6.245   8.330
37210SOL    HW213464  11.700   6.217   8.188
37211SOL     OW13465   0.297   7.338   7.901
37211SOL    HW113466   0.227   7.401   7.887
37211SOL    HW213467   0.288   7.313   7.993
37212SOL     OW13468   3.264  11.769   1.554
37212SOL    HW113469   3.357  11.758   1.574
37212SOL    HW213470   3.259  11.854   1.510
37213SOL     OW13471   7.598  13.991  14.783
37213SOL    HW113472   7.602  14.082  14.752
37213SOL    HW213473   7.550  13.996  14.865
37214SOL     OW13474  10.875   1.559   5.522
37214SOL    HW113475  10.883   1.560   5.618
37214SOL    HW213476  10.783   1.540   5.506
37215SOL     OW13477   8.337   5.125   7.458
37215SOL    HW113478   8.353   5.167   7.543
37215SOL    HW213479   8.330   5.198   7.396
37216SOL     OW13480   3.886   8.648   6.923
37216SOL    HW113481   3.943   8.717   6.888
37216SOL    HW213482   3.927   8.623   7.006
37217SOL     OW13483  10.873   3.914   2.249
37217SOL    HW113484  10.943   3.854   2.276
37217SOL    HW213485  10.849   3.959   2.330
37218SOL     OW13486  11.755  14.500  12.887
37218SOL    HW113487  11.757  14.411  12.923
37218SOL    HW213488  11.797  14.492  12.801
37219SOL     OW13489   1.607  10.756   0.021
37219SOL    HW113490   1.554  10.792   0.092
37219SOL    HW213491   1.639  10.672   0.054
37220SOL     OW13492   4.988   7.169   8.028
37220SOL    HW113493   4.909   7.129   8.065
37220SOL    HW213494   4.994   7.134   7.940
37221SOL     OW13495   5.138  14.690   0.611
37221SOL    HW113496   5.067  14.632   0.641
37221SOL    HW213497   5.199  14.631   0.566
37222SOL     OW13498   1.410   3.398  12.824
37222SOL    HW113499   1.433   3.425  12.735
37222SOL    HW213500   1.494   3.378  12.864
37223SOL     OW13501  13.528   6.042   4.217
37223SOL    HW113502  13.526   5.947   4.231
37223SOL    HW213503  13.440   6.062   4.182
37224SOL     OW13504   7.506   5.977   0.436
37224SOL    HW113505   7.445   6.016   0.373
37224SOL    HW213506   7.584   5.957   0.386
37225SOL     OW13507   0.258   6.721  13.686
37225SOL    HW113508   0.225   6.779  13.755
37225SOL    HW213509   0.230   6.633  13.714
37226SOL     OW13510  10.912   1.653   0.333
37226SOL    HW113511  10.937   1.741   0.359
37226SOL    HW213512  10.888   1.609   0.415
37227SOL     OW13513  14.820  13.047  13.989
37227SOL    HW113514  14.759  13.079  14.056
37227SOL    HW213515  14.780  12.967  13.956
37228SOL     OW13516   2.505   6.241  11.971
37228SOL    HW113517   2.584   6.206  12.013
37228SOL    HW213518   2.509   6.335  11.988
37229SOL     OW13519  12.791  12.406   1.709
37229SOL    HW113520  12.744  12.336   1.755
37229SOL    HW213521  12.761  12.399   1.618
37230SOL     OW13522  10.382   7.499   7.946
37230SOL    HW113523  10.402   7.475   8.036
37230SOL    HW213524  10.286   7.505   7.944
37231SOL     OW13525  12.375  11.998   7.206
37231SOL    HW113526  12.321  12.050   7.146
37231SOL    HW213527  12.324  11.918   7.220
37232SOL     OW13528   8.727   0.392   7.521
37232SOL    HW113529   8.664   0.323   7.498
37232SOL    HW213530   8.809   0.345   7.535
37233SOL     OW13531   0.122   6.505   7.198
37233SOL    HW113532   0.072   6.489   7.277
37233SOL    HW213533   0.072   6.461   7.129
37234SOL     OW13534   5.552   3.393   0.271
37234SOL    HW113535   5.589   3.366   0.355
37234SOL    HW213536   5.601   3.342   0.206
37235SOL     OW13537  10.420  12.186   5.360
37235SOL    HW113538  10.492  12.241   5.329
37235SOL    HW213539  10.392  12.137   5.283
37236SOL     OW13540   3.293  13.234   3.971
37236SOL    HW113541   3.298  13.167   3.902
37236SOL    HW213542   3.267  13.186   4.049
37237SOL     OW13543   5.950  13.806   4.612
37237SOL    HW113544   5.919  13.770   4.695
37237SOL    HW213545   6.046  13.799   4.617
37238SOL     OW13546   2.905  11.051   5.173
37238SOL    HW113547   2.827  10.998   5.187
37238SOL    HW213548   2.974  10.989   5.152
37239SOL     OW13549   5.617   5.757   2.391
37239SOL    HW113550   5.684   5.805   2.439
37239SOL    HW213551   5.628   5.784   2.300
37240SOL     OW13552   4.863   9.936   3.727
37240SOL    HW113553   4.808   9.864   3.696
37240SOL    HW213554   4.925   9.895   3.787
37241SOL     OW13555  10.870   8.835  10.022
37241SOL    HW113556  10.856   8.793  10.107
37241SOL    HW213557  10.922   8.772   9.972
37242SOL     OW13558   2.844   7.036  13.982
37242SOL    HW113559   2.845   7.116  14.034
37242SOL    HW213560   2.842   7.066  13.891
37243SOL     OW13561   5.801   1.202  12.511
37243SOL    HW113562   5.742   1.170  12.579
37243SOL    HW213563   5.850   1.125  12.483
37244SOL     OW13564   1.339   8.223   9.937
37244SOL    HW113565   1.401   8.257   9.873
37244SOL    HW213566   1.254   8.232   9.895
37245SOL     OW13567   5.850   0.267  13.646
37245SOL    HW113568   5.897   0.348  13.664
37245SOL    HW213569   5.760   0.294  13.631
37246SOL     OW13570   8.681   0.736  13.696
37246SOL    HW113571   8.648   0.759  13.609
37246SOL    HW213572   8.717   0.647  13.685
37247SOL     OW13573   4.312   4.878   6.561
37247SOL    HW113574   4.354   4.936   6.497
37247SOL    HW213575   4.268   4.938   6.621
37248SOL     OW13576  14.631  13.551   7.949
37248SOL    HW113577  14.543  13.538   7.986
37248SOL    HW213578  14.622  13.629   7.893
37249SOL     OW13579   0.928   8.335   7.935
37249SOL    HW113580   0.949   8.359   8.026
37249SOL    HW213581   0.835   8.316   7.935
37250SOL     OW13582   3.744  14.474   2.759
37250SOL    HW113583   3.759  14.385   2.727
37250SOL    HW213584   3.689  14.515   2.692
37251SOL     OW13585  13.225   2.958   9.113
37251SOL    HW113586  13.238   3.019   9.186
37251SOL    HW213587  13.239   2.872   9.152
37252SOL     OW13588   7.289  14.385  14.789
37252SOL    HW113589   7.196  14.407  14.792
37252SOL    HW213590   7.293  14.292  14.812
37253SOL     OW13591   6.781  14.567   2.993
37253SOL    HW113592   6.792  14.649   2.945
37253SOL    HW213593   6.870  14.539   3.014
37254SOL     OW13594   2.711   7.002   7.806
37254SOL    HW113595   2.618   6.986   7.823
37254SOL    HW213596   2.733   7.077   7.861
37255SOL     OW13597   1.560   8.801  13.219
37255SOL    HW113598   1.618   8.777  13.291
37255SOL    HW213599   1.616   8.850  13.159
37256SOL     OW13600   2.579   0.247   1.655
37256SOL    HW113601   2.493   0.219   1.623
37256SOL    HW213602   2.614   0.302   1.585
37257SOL     OW13603  13.229   0.277   9.743
37257SOL    HW113604  13.317   0.249   9.719
37257SOL    HW213605  13.184   0.196   9.769
37258SOL     OW13606   4.015   8.007   5.912
37258SOL    HW113607   3.929   7.965   5.923
37258SOL    HW213608   4.065   7.945   5.859
37259SOL     OW13609   4.803   7.572  14.305
37259SOL    HW113610   4.831   7.645  14.250
37259SOL    HW213611   4.809   7.605  14.394
37260SOL     OW13612   4.375   7.686  10.028
37260SOL    HW113613   4.341   7.603   9.997
37260SOL    HW213614   4.466   7.668  10.051
37261SOL     OW13615   9.703   5.706  11.127
37261SOL    HW113616   9.783   5.657  11.143
37261SOL    HW213617   9.725   5.797  11.149
37262SOL     OW13618   3.370  13.752   4.054
37262SOL    HW113619   3.330  13.772   3.969
37262SOL    HW213620   3.303  13.704   4.102
37263SOL     OW13621   5.614   5.972   7.669
37263SOL    HW113622   5.647   5.962   7.580
37263SOL    HW213623   5.568   5.891   7.688
37264SOL     OW13624   5.143  11.686   8.718
37264SOL    HW113625   5.180  11.686   8.630
37264SOL    HW213626   5.049  11.681   8.705
37265SOL     OW13627  11.330   3.946   2.467
37265SOL    HW113628  11.305   4.038   2.458
37265SOL    HW213629  11.261   3.898   2.421
37266SOL     OW13630   9.172  11.546  11.799
37266SOL    HW113631   9.105  11.477  11.799
37266SOL    HW213632   9.253  11.500  11.776
37267SOL     OW13633   9.597   6.069  13.803
37267SOL    HW113634   9.529   6.113  13.854
37267SOL    HW213635   9.571   5.977  13.801
37268SOL     OW13636   4.068  12.146  14.534
37268SOL    HW113637   4.076  12.068  14.589
37268SOL    HW213638   4.050  12.217  14.595
37269SOL     OW13639  10.312   0.016   0.864
37269SOL    HW113640  10.256   0.025   0.787
37269SOL    HW213641  10.264  14.835   0.922
37270SOL     OW13642  11.509   5.522   6.502
37270SOL    HW113643  11.556   5.597   6.465
37270SOL    HW213644  11.470   5.478   6.426
37271SOL     OW13645   7.877   2.438   0.146
37271SOL    HW113646   7.937   2.374   0.108
37271SOL    HW213647   7.820   2.464   0.074
37272SOL     OW13648   0.132   8.382   2.654
37272SOL    HW113649   0.068   8.434   2.703
37272SOL    HW213650   0.147   8.430   2.573
37273SOL     OW13651  13.535  10.580  12.684
37273SOL    HW113652  13.462  10.629  12.645
37273SOL    HW213653  13.613  10.628  12.655
37274SOL     OW13654   2.908   2.372   1.064
37274SOL    HW113655   2.849   2.437   1.102
37274SOL    HW213656   2.850   2.307   1.024
37275SOL     OW13657   4.214   7.761   8.086
37275SOL    HW113658   4.261   7.732   8.008
37275SOL    HW213659   4.211   7.683   8.142
37276SOL     OW13660   8.178  10.747   6.500
37276SOL    HW113661   8.208  10.712   6.417
37276SOL    HW213662   8.208  10.838   6.501
37277SOL     OW13663   1.909   6.915   6.486
37277SOL    HW113664   1.833   6.943   6.536
37277SOL    HW213665   1.891   6.943   6.396
37278SOL     OW13666   6.647  10.617  13.026
37278SOL    HW113667   6.633  10.708  12.998
37278SOL    HW213668   6.609  10.564  12.956
37279SOL     OW13669   4.510  14.328   3.737
37279SOL    HW113670   4.599  14.362   3.750
37279SOL    HW213671   4.464  14.351   3.818
37280SOL     OW13672   0.157   4.483   1.735
37280SOL    HW113673   0.124   4.398   1.765
37280SOL    HW213674   0.097   4.547   1.773
37281SOL     OW13675  13.486   3.973  14.175
37281SOL    HW113676  13.541   4.047  14.201
37281SOL    HW213677  13.541   3.923  14.114
37282SOL     OW13678   8.656   0.590  11.208
37282SOL    HW113679   8.658   0.604  11.113
37282SOL    HW213680   8.583   0.529  11.221
37283SOL     OW13681  13.830   2.706   9.393
37283SOL    HW113682  13.741   2.681   9.368
37283SOL    HW213683  13.844   2.790   9.350
37284SOL     OW13684  11.718   9.626  10.486
37284SOL    HW113685  11.782   9.622  10.415
37284SOL    HW213686  11.639   9.586  10.449
37285SOL     OW13687   0.727   6.746   2.977
37285SOL    HW113688   0.692   6.666   3.015
37285SOL    HW213689   0.736   6.806   3.052
37286SOL     OW13690   0.193   5.240   2.962
37286SOL    HW113691   0.229   5.186   2.892
37286SOL    HW213692   0.098   5.228   2.956
37287SOL     OW13693  10.630   0.342  13.523
37287SOL    HW113694  10.618   0.304  13.436
37287SOL    HW213695  10.542   0.349  13.558
37288SOL     OW13696  13.939   6.813   8.843
37288SOL    HW113697  13.887   6.858   8.909
37288SOL    HW213698  13.998   6.879   8.808
37289SOL     OW13699  10.117   8.933  10.065
37289SOL    HW113700  10.107   8.841  10.040
37289SOL    HW213701  10.030   8.971  10.054
37290SOL     OW13702   4.881  14.660   7.591
37290SOL    HW113703   4.790  14.677   7.566
37290SOL    HW213704   4.875  14.619   7.677
37291SOL     OW13705   9.864  13.600   1.948
37291SOL    HW113706   9.872  13.511   1.912
37291SOL    HW213707   9.914  13.655   1.889
37292SOL     OW13708   0.711   3.635   9.165
37292SOL    HW113709   0.777   3.654   9.231
37292SOL    HW213710   0.648   3.578   9.210
37293SOL     OW13711   9.719   1.652   1.703
37293SOL    HW113712   9.625   1.667   1.694
37293SOL    HW213713   9.752   1.731   1.746
37294SOL     OW13714   9.237  14.391  13.756
37294SOL    HW113715   9.161  14.344  13.721
37294SOL    HW213716   9.238  14.369  13.849
37295SOL     OW13717   2.610   2.733  12.317
37295SOL    HW113718   2.522   2.709  12.287
37295SOL    HW213719   2.652   2.649  12.334
37296SOL     OW13720   9.455   8.908   7.699
37296SOL    HW113721   9.458   8.814   7.680
37296SOL    HW213722   9.516   8.947   7.637
37297SOL     OW13723   6.720   7.204   7.279
37297SOL    HW113724   6.631   7.203   7.313
37297SOL    HW213725   6.713   7.165   7.192
37298SOL     OW13726   0.570   9.229   8.243
37298SOL    HW113727   0.497   9.288   8.261
37298SOL    HW213728   0.619   9.272   8.173
37299SOL     OW13729   4.930  12.939   8.633
37299SOL    HW113730   4.883  13.020   8.650
37299SOL    HW213731   4.965  12.913   8.719
37300SOL     OW13732   2.288   9.477   1.080
37300SOL    HW113733   2.368   9.527   1.061
37300SOL    HW213734   2.224   9.508   1.017
37301SOL     OW13735   3.857   2.649  11.447
37301SOL    HW113736   3.806   2.572  11.470
37301SOL    HW213737   3.936   2.614  11.405
37302SOL     OW13738   3.818   9.844   7.335
37302SOL    HW113739   3.776   9.904   7.274
37302SOL    HW213740   3.798   9.881   7.422
37303SOL     OW13741   9.389   7.532  12.042
37303SOL    HW113742   9.376   7.626  12.049
37303SOL    HW213743   9.322   7.503  11.979
37304SOL     OW13744  12.383   5.280   7.594
37304SOL    HW113745  12.366   5.192   7.559
37304SOL    HW213746  12.437   5.265   7.671
37305SOL     OW13747   1.617   7.042  10.043
37305SOL    HW113748   1.528   7.006  10.043
37305SOL    HW213749   1.663   6.990   9.977
37306SOL     OW13750   5.911   4.892   0.669
37306SOL    HW113751   5.998   4.881   0.630
37306SOL    HW213752   5.898   4.987   0.673
37307SOL     OW13753   7.763   7.930  11.863
37307SOL    HW113754   7.803   7.998  11.918
37307SOL    HW213755   7.775   7.961  11.774
37308SOL     OW13756   1.497   5.052   2.274
37308SOL    HW113757   1.429   4.998   2.314
37308SOL    HW213758   1.504   5.128   2.331
37309SOL     OW13759  12.234   5.956   9.767
37309SOL    HW113760  12.269   6.016   9.700
37309SOL    HW213761  12.160   5.913   9.724
37310SOL     OW13762  14.729   6.876   4.697
37310SOL    HW113763  14.679   6.956   4.687
37310SOL    HW213764  14.668   6.815   4.740
37311SOL     OW13765   4.269  13.591  14.522
37311SOL    HW113766   4.219  13.536  14.583
37311SOL    HW213767   4.294  13.531  14.451
37312SOL     OW13768   2.777   3.939   6.733
37312SOL    HW113769   2.833   3.966   6.660
37312SOL    HW213770   2.782   3.843   6.732
37313SOL     OW13771   1.046   5.975   3.844
37313SOL    HW113772   1.095   6.051   3.875
37313SOL    HW213773   1.024   5.997   3.753
37314SOL     OW13774  11.853  12.147   2.940
37314SOL    HW113775  11.781  12.196   2.980
37314SOL    HW213776  11.813  12.064   2.915
37315SOL     OW13777   8.817  11.878  10.227
37315SOL    HW113778   8.866  11.834  10.157
37315SOL    HW213779   8.864  11.960  10.241
37316SOL     OW13780   6.570   6.390   0.685
37316SOL    HW113781   6.498   6.383   0.623
37316SOL    HW213782   6.576   6.483   0.705
37317SOL     OW13783  10.703   5.705   8.173
37317SOL    HW113784  10.618   5.680   8.135
37317SOL    HW213785  10.693   5.797   8.194
37318SOL     OW13786   2.599   7.363  12.071
37318SOL    HW113787   2.598   7.434  12.135
37318SOL    HW213788   2.686   7.367  12.031
37319SOL     OW13789   1.599   2.329  11.060
37319SOL    HW113790   1.645   2.412  11.044
37319SOL    HW213791   1.575   2.332  11.152
37320SOL     OW13792   8.043   3.402   5.784
37320SOL    HW113793   8.005   3.485   5.813
37320SOL    HW213794   8.118   3.388   5.842
37321SOL     OW13795  13.068   2.482   5.020
37321SOL    HW113796  13.032   2.394   5.010
37321SOL    HW213797  13.053   2.503   5.112
37322SOL     OW13798   2.567  10.440  11.460
37322SOL    HW113799   2.539  10.433  11.551
37322SOL    HW213800   2.661  10.420  11.462
37323SOL     OW13801   6.598   8.321   8.026
37323SOL    HW113802   6.601   8.313   7.931
37323SOL    HW213803   6.604   8.231   8.059
37324SOL     OW13804   5.189  10.980   4.018
37324SOL    HW113805   5.133  10.912   4.054
37324SOL    HW213806   5.133  11.024   3.953
37325SOL     OW13807   6.450  10.588   8.045
37325SOL    HW113808   6.492  10.584   8.131
37325SOL    HW213809   6.403  10.671   8.044
37326SOL     OW13810   4.404   9.908   8.361
37326SOL    HW113811   4.350   9.949   8.429
37326SOL    HW213812   4.459   9.845   8.408
37327SOL     OW13813  12.797  14.462  14.755
37327SOL    HW113814  12.857  14.535  14.771
37327SOL    HW213815  12.829  14.422  14.674
37328SOL     OW13816   7.497  12.405  12.141
37328SOL    HW113817   7.575  12.349  12.136
37328SOL    HW213818   7.505  12.463  12.065
37329SOL     OW13819   0.477   4.654   0.621
37329SOL    HW113820   0.477   4.647   0.525
37329SOL    HW213821   0.417   4.586   0.650
37330SOL     OW13822  10.289   1.088  10.871
37330SOL    HW113823  10.333   1.164  10.908
37330SOL    HW213824  10.199   1.117  10.857
37331SOL     OW13825  12.163   0.272   1.348
37331SOL    HW113826  12.248   0.232   1.362
37331SOL    HW213827  12.176   0.365   1.364
37332SOL     OW13828  12.975  14.071   5.275
37332SOL    HW113829  12.941  13.985   5.298
37332SOL    HW213830  13.037  14.054   5.204
37333SOL     OW13831   4.277  12.064  12.969
37333SOL    HW113832   4.330  12.111  12.905
37333SOL    HW213833   4.186  12.086  12.947
37334SOL     OW13834  10.573  12.485  10.703
37334SOL    HW113835  10.552  12.395  10.727
37334SOL    HW213836  10.668  12.485  10.690
37335SOL     OW13837   6.063   7.115  11.806
37335SOL    HW113838   5.973   7.139  11.785
37335SOL    HW213839   6.113   7.196  11.798
37336SOL     OW13840  12.860   3.529  14.043
37336SOL    HW113841  12.911   3.503  13.966
37336SOL    HW213842  12.770   3.531  14.013
37337SOL     OW13843   9.431   4.849   2.365
37337SOL    HW113844   9.514   4.814   2.398
37337SOL    HW213845   9.455   4.894   2.284
37338SOL     OW13846   0.321   7.671   3.603
37338SOL    HW113847   0.352   7.671   3.694
37338SOL    HW213848   0.299   7.762   3.585
37339SOL     OW13849  12.062   3.290   5.579
37339SOL    HW113850  11.969   3.282   5.561
37339SOL    HW213851  12.078   3.385   5.582
37340SOL     OW13852  10.824  13.160   4.830
37340SOL    HW113853  10.752  13.174   4.893
37340SOL    HW213854  10.782  13.171   4.745
37341SOL     OW13855   8.435  10.932   1.688
37341SOL    HW113856   8.509  10.874   1.668
37341SOL    HW213857   8.380  10.928   1.610
37342SOL     OW13858   6.057   2.695  10.384
37342SOL    HW113859   6.152   2.702  10.397
37342SOL    HW213860   6.045   2.614  10.336
37343SOL     OW13861   6.994   6.315  10.828
37343SOL    HW113862   7.009   6.224  10.853
37343SOL    HW213863   7.049   6.328  10.751
37344SOL     OW13864   7.426  13.219   6.832
37344SOL    HW113865   7.508  13.250   6.871
37344SOL    HW213866   7.422  13.126   6.854
37345SOL     OW13867   8.035  11.220   1.890
37345SOL    HW113868   7.987  11.169   1.955
37345SOL    HW213869   8.126  11.194   1.900
37346SOL     OW13870   5.781  14.677   8.213
37346SOL    HW113871   5.870  14.643   8.202
37346SOL    HW213872   5.786  14.734   8.289
37347SOL     OW13873  10.399   9.580   8.862
37347SOL    HW113874  10.405   9.579   8.766
37347SOL    HW213875  10.308   9.601   8.880
37348SOL     OW13876  12.653  12.265   0.342
37348SOL    HW113877  12.729  12.246   0.397
37348SOL    HW213878  12.671  12.220   0.259
37349SOL     OW13879  12.545  14.239   3.656
37349SOL    HW113880  12.549  14.148   3.628
37349SOL    HW213881  12.474  14.242   3.720
37350SOL     OW13882   7.577  10.178   9.504
37350SOL    HW113883   7.673  10.179   9.512
37350SOL    HW213884   7.558  10.238   9.432
37351SOL     OW13885  10.839   9.498   7.097
37351SOL    HW113886  10.906   9.456   7.151
37351SOL    HW213887  10.847   9.591   7.118
37352SOL     OW13888  12.158  14.319   0.747
37352SOL    HW113889  12.194  14.234   0.723
37352SOL    HW213890  12.091  14.299   0.813
37353SOL     OW13891  11.093   7.912   3.212
37353SOL    HW113892  11.164   7.868   3.259
37353SOL    HW213893  11.109   7.891   3.120
37354SOL     OW13894  10.935   1.279  13.468
37354SOL    HW113895  10.886   1.357  13.492
37354SOL    HW213896  10.872   1.207  13.474
37355SOL     OW13897   3.902  11.137   9.533
37355SOL    HW113898   3.910  11.180   9.618
37355SOL    HW213899   3.895  11.209   9.471
37356SOL     OW13900   5.713   8.788   0.240
37356SOL    HW113901   5.766   8.776   0.161
37356SOL    HW213902   5.637   8.732   0.227
37357SOL     OW13903   5.422   1.523  13.555
37357SOL    HW113904   5.348   1.582  13.568
37357SOL    HW213905   5.497   1.582  13.542
37358SOL     OW13906   9.323   8.622   8.712
37358SOL    HW113907   9.288   8.691   8.768
37358SOL    HW213908   9.270   8.545   8.732
37359SOL     OW13909   2.243  13.563   9.216
37359SOL    HW113910   2.179  13.631   9.195
37359SOL    HW213911   2.322  13.590   9.169
37360SOL     OW13912   7.716   7.229  10.695
37360SOL    HW113913   7.646   7.197  10.639
37360SOL    HW213914   7.675   7.298  10.748
37361SOL     OW13915  14.135  12.105  11.268
37361SOL    HW113916  14.113  12.146  11.184
37361SOL    HW213917  14.133  12.177  11.331
37362SOL     OW13918   8.275   1.678   7.120
37362SOL    HW113919   8.368   1.702   7.128
37362SOL    HW213920   8.275   1.583   7.114
37363SOL     OW13921   7.094   6.561   1.980
37363SOL    HW113922   7.172   6.506   1.975
37363SOL    HW213923   7.022   6.503   1.954
37364SOL     OW13924  11.602   8.499  11.340
37364SOL    HW113925  11.535   8.441  11.302
37364SOL    HW213926  11.680   8.483  11.286
37365SOL     OW13927   6.625   2.365   4.511
37365SOL    HW113928   6.578   2.380   4.429
37365SOL    HW213929   6.627   2.451   4.554
37366SOL     OW13930   4.371   0.786  14.702
37366SOL    HW113931   4.423   0.813  14.778
37366SOL    HW213932   4.294   0.744  14.740
37367SOL     OW13933  10.521   0.254  10.783
37367SOL    HW113934  10.582   0.279  10.714
37367SOL    HW213935  10.558   0.173  10.819
37368SOL     OW13936  10.405   4.838  10.445
37368SOL    HW113937  10.374   4.880  10.365
37368SOL    HW213938  10.499   4.855  10.446
37369SOL     OW13939   5.141  12.547   5.778
37369SOL    HW113940   5.063  12.570   5.828
37369SOL    HW213941   5.138  12.452   5.770
37370SOL     OW13942   7.303   3.008   2.500
37370SOL    HW113943   7.383   2.967   2.467
37370SOL    HW213944   7.275   3.067   2.430
37371SOL     OW13945  11.008   1.217   6.121
37371SOL    HW113946  10.961   1.245   6.199
37371SOL    HW213947  11.099   1.238   6.139
37372SOL     OW13948  10.526   3.720   2.887
37372SOL    HW113949  10.594   3.785   2.904
37372SOL    HW213950  10.444   3.767   2.896
37373SOL     OW13951   8.799   0.807  10.990
37373SOL    HW113952   8.769   0.736  10.933
37373SOL    HW213953   8.860   0.765  11.050
37374SOL     OW13954   7.913   8.641   9.687
37374SOL    HW113955   7.906   8.574   9.620
37374SOL    HW213956   8.003   8.633   9.720
37375SOL     OW13957  12.393  13.855   9.460
37375SOL    HW113958  12.362  13.764   9.459
37375SOL    HW213959  12.487  13.848   9.473
37376SOL     OW13960  11.337   1.693   0.528
37376SOL    HW113961  11.299   1.627   0.470
37376SOL    HW213962  11.312   1.777   0.489
37377SOL     OW13963   9.879  14.722  14.784
37377SOL    HW113964   9.868  14.629  14.805
37377SOL    HW213965   9.968  14.728  14.750
37378SOL     OW13966   6.627   8.248   6.824
37378SOL    HW113967   6.561   8.180   6.841
37378SOL    HW213968   6.576   8.321   6.789
37379SOL     OW13969   9.904   3.473   0.981
37379SOL    HW113970   9.866   3.407   0.923
37379SOL    HW213971   9.845   3.478   1.056
37380SOL     OW13972   4.627   8.323   8.122
37380SOL    HW113973   4.570   8.299   8.196
37380SOL    HW213974   4.709   8.276   8.140
37381SOL     OW13975   7.043   7.929   3.797
37381SOL    HW113976   7.137   7.911   3.785
37381SOL    HW213977   7.000   7.876   3.729
37382SOL     OW13978   9.079  14.520  14.705
37382SOL    HW113979   9.115  14.590  14.758
37382SOL    HW213980   8.996  14.497  14.747
37383SOL     OW13981   1.571   2.194   7.231
37383SOL    HW113982   1.495   2.143   7.257
37383SOL    HW213983   1.620   2.209   7.312
37384SOL     OW13984   7.205  12.668   9.446
37384SOL    HW113985   7.297  12.665   9.471
37384SOL    HW213986   7.187  12.581   9.410
37385SOL     OW13987  11.057  11.536   1.912
37385SOL    HW113988  11.102  11.565   1.991
37385SOL    HW213989  11.071  11.607   1.849
37386SOL     OW13990   7.748   1.091  14.815
37386SOL    HW113991   7.655   1.068  14.825
37386SOL    HW213992   7.773   1.055  14.730
37387SOL     OW13993  14.271  13.095   4.198
37387SOL    HW113994  14.294  13.078   4.107
37387SOL    HW213995  14.182  13.061   4.206
37388SOL     OW13996   2.198  10.221  10.428
37388SOL    HW113997   2.285  10.252  10.456
37388SOL    HW213998   2.146  10.301  10.422
37389SOL     OW13999   0.795   0.499   6.607
37389SOL    HW114000   0.807   0.405   6.620
37389SOL    HW214001   0.752   0.506   6.521
37390SOL     OW14002  11.163   6.332   9.234
37390SOL    HW114003  11.109   6.365   9.306
37390SOL    HW214004  11.195   6.247   9.265
37391SOL     OW14005   8.989  10.068  13.522
37391SOL    HW114006   9.062  10.015  13.489
37391SOL    HW214007   9.026  10.117  13.595
37392SOL     OW14008   4.981  12.824   3.235
37392SOL    HW114009   4.954  12.752   3.178
37392SOL    HW214010   5.076  12.827   3.227
37393SOL     OW14011   7.444   3.360  11.613
37393SOL    HW114012   7.468   3.339  11.703
37393SOL    HW214013   7.518   3.410  11.579
37394SOL     OW14014   5.595   1.471  13.879
37394SOL    HW114015   5.504   1.471  13.850
37394SOL    HW214016   5.625   1.561  13.865
37395SOL     OW14017  12.896  11.247   1.908
37395SOL    HW114018  12.969  11.215   1.853
37395SOL    HW214019  12.836  11.172   1.913
37396SOL     OW14020   6.840  14.541   9.594
37396SOL    HW114021   6.807  14.549   9.504
37396SOL    HW214022   6.917  14.485   9.586
37397SOL     OW14023  11.510   9.783   7.321
37397SOL    HW114024  11.508   9.877   7.302
37397SOL    HW214025  11.558   9.744   7.248
37398SOL     OW14026   2.574   6.826   6.145
37398SOL    HW114027   2.558   6.748   6.197
37398SOL    HW214028   2.657   6.861   6.180
37399SOL     OW14029   6.402   1.322  12.897
37399SOL    HW114030   6.359   1.406  12.911
37399SOL    HW214031   6.348   1.259  12.946
37400SOL     OW14032  10.695   1.943   5.898
37400SOL    HW114033  10.612   1.960   5.943
37400SOL    HW214034  10.741   1.882   5.956
37401SOL     OW14035   4.075   6.536   1.887
37401SOL    HW114036   3.988   6.574   1.878
37401SOL    HW214037   4.134   6.612   1.887
37402SOL     OW14038   3.566  14.089   4.714
37402SOL    HW114039   3.605  14.148   4.650
37402SOL    HW214040   3.504  14.037   4.664
37403SOL     OW14041   0.399   3.384  11.780
37403SOL    HW114042   0.350   3.325  11.837
37403SOL    HW214043   0.360   3.370  11.693
37404SOL     OW14044   6.118   6.334   5.409
37404SOL    HW114045   6.176   6.322   5.485
37404SOL    HW214046   6.156   6.409   5.362
37405SOL     OW14047  12.539   1.364  13.681
37405SOL    HW114048  12.523   1.271  13.664
37405SOL    HW214049  12.453   1.404  13.679
37406SOL     OW14050  14.863  12.973  11.053
37406SOL    HW114051  14.856  12.944  11.144
37406SOL    HW214052   0.075  12.953  11.028
37407SOL     OW14053   9.158   9.361   8.261
37407SOL    HW114054   9.087   9.397   8.314
37407SOL    HW214055   9.203   9.300   8.319
37408SOL     OW14056   9.227   8.745   5.339
37408SOL    HW114057   9.276   8.665   5.360
37408SOL    HW214058   9.136   8.724   5.359
37409SOL     OW14059   4.887   4.843   1.761
37409SOL    HW114060   4.828   4.873   1.691
37409SOL    HW214061   4.971   4.883   1.741
37410SOL     OW14062   7.359   1.071  12.563
37410SOL    HW114063   7.282   1.038  12.516
37410SOL    HW214064   7.382   1.001  12.623
37411SOL     OW14065  13.394  12.697   9.989
37411SOL    HW114066  13.320  12.688  10.050
37411SOL    HW214067  13.388  12.787   9.958
37412SOL     OW14068  11.182   8.399   0.999
37412SOL    HW114069  11.254   8.461   0.990
37412SOL    HW214070  11.109   8.441   0.953
37413SOL     OW14071   8.511   6.408  11.364
37413SOL    HW114072   8.593   6.430  11.320
37413SOL    HW214073   8.445   6.413  11.295
37414SOL     OW14074  10.206   7.481   1.539
37414SOL    HW114075  10.177   7.502   1.451
37414SOL    HW214076  10.125   7.458   1.586
37415SOL     OW14077  10.196   7.579   9.640
37415SOL    HW114078  10.100   7.580   9.643
37415SOL    HW214079  10.217   7.535   9.557
37416SOL     OW14080  14.397  14.550   2.489
37416SOL    HW114081  14.329  14.487   2.465
37416SOL    HW214082  14.478  14.501   2.482
37417SOL     OW14083   6.546   6.854   9.159
37417SOL    HW114084   6.584   6.895   9.080
37417SOL    HW214085   6.522   6.928   9.215
37418SOL     OW14086   3.635   2.817   6.853
37418SOL    HW114087   3.571   2.773   6.910
37418SOL    HW214088   3.694   2.862   6.913
37419SOL     OW14089  10.794  13.906   8.864
37419SOL    HW114090  10.885  13.899   8.893
37419SOL    HW214091  10.759  13.817   8.873
37420SOL     OW14092   5.409   9.942   9.852
37420SOL    HW114093   5.487   9.997   9.846
37420SOL    HW214094   5.343   9.998   9.892
37421SOL     OW14095  13.487   4.876   9.631
37421SOL    HW114096  13.439   4.959   9.638
37421SOL    HW214097  13.458   4.825   9.707
37422SOL     OW14098   9.832   0.957  10.564
37422SOL    HW114099   9.917   0.914  10.558
37422SOL    HW214100   9.769   0.885  10.567
37423SOL     OW14101   2.172  14.168   8.327
37423SOL    HW114102   2.238  14.234   8.344
37423SOL    HW214103   2.126  14.157   8.410
37424SOL     OW14104   6.531  14.765  12.865
37424SOL    HW114105   6.586  14.757  12.944
37424SOL    HW214106   6.492  14.852  12.873
37425SOL     OW14107  10.524  12.968   2.657
37425SOL    HW114108  10.462  12.908   2.699
37425SOL    HW214109  10.470  13.031   2.611
37426SOL     OW14110   2.960   3.950  10.262
37426SOL    HW114111   2.963   3.917  10.172
37426SOL    HW214112   3.051   3.947  10.292
37427SOL     OW14113   5.253   5.759   1.959
37427SOL    HW114114   5.273   5.810   1.881
37427SOL    HW214115   5.242   5.824   2.029
37428SOL     OW14116  14.615  11.765   3.455
37428SOL    HW114117  14.603  11.837   3.392
37428SOL    HW214118  14.537  11.710   3.444
37429SOL     OW14119   4.139  11.161   6.733
37429SOL    HW114120   4.078  11.233   6.715
37429SOL    HW214121   4.184  11.147   6.650
37430SOL     OW14122  10.137   8.570   2.159
37430SOL    HW114123  10.118   8.626   2.084
37430SOL    HW214124  10.073   8.595   2.225
37431SOL     OW14125   9.942   9.120  12.248
37431SOL    HW114126  10.003   9.157  12.183
37431SOL    HW214127   9.918   9.035  12.212
37432SOL     OW14128   8.703   8.521   2.179
37432SOL    HW114129   8.642   8.592   2.157
37432SOL    HW214130   8.754   8.555   2.253
37433SOL     OW14131   0.440   4.693   9.105
37433SOL    HW114132   0.484   4.778   9.096
37433SOL    HW214133   0.347   4.713   9.092
37434SOL     OW14134   3.620   1.569  10.797
37434SOL    HW114135   3.631   1.581  10.702
37434SOL    HW214136   3.709   1.559  10.830
37435SOL     OW14137   4.225   8.967  12.594
37435SOL    HW114138   4.208   9.060  12.606
37435SOL    HW214139   4.315   8.955  12.624
37436SOL     OW14140   0.633   4.027  10.772
37436SOL    HW114141   0.597   4.010  10.685
37436SOL    HW214142   0.558   4.026  10.831
37437SOL     OW14143   7.954   3.016  10.898
37437SOL    HW114144   7.892   3.084  10.926
37437SOL    HW214145   7.898   2.947  10.862
37438SOL     OW14146   3.979   9.460   7.367
37438SOL    HW114147   3.952   9.379   7.409
37438SOL    HW214148   4.005   9.434   7.279
37439SOL     OW14149  11.709   6.475   6.856
37439SOL    HW114150  11.737   6.540   6.921
37439SOL    HW214151  11.703   6.393   6.904
37440SOL     OW14152  13.833   6.555  12.754
37440SOL    HW114153  13.818   6.524  12.843
37440SOL    HW214154  13.927   6.545  12.740
37441SOL     OW14155   3.453   7.655  11.964
37441SOL    HW114156   3.448   7.599  11.886
37441SOL    HW214157   3.445   7.594  12.038
37442SOL     OW14158   7.922  13.266  10.738
37442SOL    HW114159   7.845  13.276  10.793
37442SOL    HW214160   7.953  13.355  10.722
37443SOL     OW14161  10.686   0.572  14.187
37443SOL    HW114162  10.706   0.490  14.142
37443SOL    HW214163  10.698   0.640  14.122
37444SOL     OW14164   4.910   8.188   2.596
37444SOL    HW114165   4.821   8.219   2.614
37444SOL    HW214166   4.964   8.229   2.663
37445SOL     OW14167   9.335   2.837   8.531
37445SOL    HW114168   9.296   2.916   8.566
37445SOL    HW214169   9.392   2.804   8.601
37446SOL     OW14170  11.823  14.715   5.668
37446SOL    HW114171  11.770  14.760   5.603
37446SOL    HW214172  11.894  14.777   5.688
37447SOL     OW14173   5.083   8.577  11.034
37447SOL    HW114174   5.068   8.668  11.059
37447SOL    HW214175   5.175   8.574  11.007
37448SOL     OW14176   2.895   2.414  10.493
37448SOL    HW114177   2.856   2.332  10.464
37448SOL    HW214178   2.989   2.398  10.492
37449SOL     OW14179  11.107   4.735   5.556
37449SOL    HW114180  11.187   4.700   5.594
37449SOL    HW214181  11.132   4.820   5.521
37450SOL     OW14182   0.985   7.453   1.393
37450SOL    HW114183   0.939   7.417   1.470
37450SOL    HW214184   0.915   7.468   1.329
37451SOL     OW14185  11.447  11.796  10.973
37451SOL    HW114186  11.467  11.715  11.020
37451SOL    HW214187  11.530  11.844  10.974
37452SOL     OW14188   2.773  12.736  14.094
37452SOL    HW114189   2.761  12.672  14.024
37452SOL    HW214190   2.806  12.815  14.050
37453SOL     OW14191  10.039  13.686  14.066
37453SOL    HW114192   9.944  13.675  14.060
37453SOL    HW214193  10.066  13.626  14.135
37454SOL     OW14194   0.334   5.102   3.418
37454SOL    HW114195   0.384   5.028   3.452
37454SOL    HW214196   0.380   5.179   3.452
37455SOL     OW14197  11.615   2.688  11.044
37455SOL    HW114198  11.609   2.760  10.982
37455SOL    HW214199  11.535   2.695  11.097
37456SOL     OW14200   4.650   9.792   6.513
37456SOL    HW114201   4.703   9.775   6.591
37456SOL    HW214202   4.713   9.786   6.441
37457SOL     OW14203   4.223  12.103   4.287
37457SOL    HW114204   4.290  12.171   4.288
37457SOL    HW214205   4.236  12.059   4.203
37458SOL     OW14206  12.096   3.767   8.693
37458SOL    HW114207  12.109   3.773   8.788
37458SOL    HW214208  12.114   3.855   8.661
37459SOL     OW14209   0.180  10.967   9.246
37459SOL    HW114210   0.201  10.927   9.161
37459SOL    HW214211   0.177  11.061   9.228
37460SOL     OW14212   8.976   7.349   6.951
37460SOL    HW114213   8.897   7.403   6.938
37460SOL    HW214214   9.009   7.332   6.863
37461SOL     OW14215  10.482   6.556   2.272
37461SOL    HW114216  10.402   6.510   2.296
37461SOL    HW214217  10.519   6.585   2.355
37462SOL     OW14218  10.867   6.457  11.726
37462SOL    HW114219  10.831   6.531  11.776
37462SOL    HW214220  10.815   6.455  11.646
37463SOL     OW14221   2.244   7.110  10.061
37463SOL    HW114222   2.179   7.179  10.055
37463SOL    HW214223   2.240   7.065   9.976
37464SOL     OW14224  14.678   0.073   5.787
37464SOL    HW114225  14.622   0.090   5.863
37464SOL    HW214226  14.624   0.020   5.729
37465SOL     OW14227   0.893  11.177   0.435
37465SOL    HW114228   0.847  11.195   0.353
37465SOL    HW214229   0.979  11.146   0.408
37466SOL     OW14230  14.477   5.225  12.613
37466SOL    HW114231  14.422   5.167  12.560
37466SOL    HW214232  14.524   5.167  12.672
37467SOL     OW14233   5.541  14.744  13.656
37467SOL    HW114234   5.595  14.813  13.694
37467SOL    HW214235   5.473  14.791  13.607
37468SOL     OW14236   6.896  10.421  10.317
37468SOL    HW114237   6.824  10.359  10.305
37468SOL    HW214238   6.958  10.374  10.372
37469SOL     OW14239  11.301   8.205   4.342
37469SOL    HW114240  11.305   8.183   4.435
37469SOL    HW214241  11.362   8.278   4.332
37470SOL     OW14242  10.442   1.642   3.711
37470SOL    HW114243  10.430   1.685   3.795
37470SOL    HW214244  10.491   1.562   3.732
37471SOL     OW14245   3.806   1.092  11.147
37471SOL    HW114246   3.736   1.053  11.095
37471SOL    HW214247   3.802   1.185  11.126
37472SOL     OW14248   7.349  14.067   0.047
37472SOL    HW114249   7.304  14.071  14.842
37472SOL    HW214250   7.323  13.983   0.085
37473SOL     OW14251   2.142   0.457   8.943
37473SOL    HW114252   2.181   0.544   8.954
37473SOL    HW214253   2.052   0.466   8.974
37474SOL     OW14254   8.366  10.741   7.246
37474SOL    HW114255   8.307  10.702   7.181
37474SOL    HW214256   8.314  10.744   7.327
37475SOL     OW14257   9.094   8.739   0.767
37475SOL    HW114258   9.172   8.705   0.811
37475SOL    HW214259   9.026   8.673   0.782
37476SOL     OW14260   4.909  11.723   2.639
37476SOL    HW114261   4.822  11.736   2.601
37476SOL    HW214262   4.906  11.635   2.677
37477SOL     OW14263   1.321   3.489  11.818
37477SOL    HW114264   1.362   3.456  11.898
37477SOL    HW214265   1.253   3.550  11.848
37478SOL     OW14266   7.026   6.030   8.158
37478SOL    HW114267   7.024   5.954   8.215
37478SOL    HW214268   7.092   6.088   8.197
37479SOL     OW14269   1.737  14.730  13.897
37479SOL    HW114270   1.777  14.806  13.854
37479SOL    HW214271   1.811  14.676  13.924
37480SOL     OW14272  13.610   0.790   5.369
37480SOL    HW114273  13.590   0.862   5.428
37480SOL    HW214274  13.524   0.758   5.341
37481SOL     OW14275   2.175  13.835   9.152
37481SOL    HW114276   2.123  13.916   9.150
37481SOL    HW214277   2.154  13.791   9.070
37482SOL     OW14278  14.079   8.059  12.889
37482SOL    HW114279  14.077   8.071  12.984
37482SOL    HW214280  13.988   8.043  12.865
37483SOL     OW14281  14.636   3.309   9.806
37483SOL    HW114282  14.684   3.382   9.768
37483SOL    HW214283  14.679   3.293   9.890
37484SOL     OW14284   1.856   1.143   7.632
37484SOL    HW114285   1.945   1.160   7.663
37484SOL    HW214286   1.817   1.229   7.620
37485SOL     OW14287   1.342   5.019   3.664
37485SOL    HW114288   1.364   4.984   3.577
37485SOL    HW214289   1.247   5.025   3.664
37486SOL     OW14290   0.437   2.980  11.893
37486SOL    HW114291   0.525   3.018  11.883
37486SOL    HW214292   0.417   2.943  11.808
37487SOL     OW14293   6.773   3.025   9.481
37487SOL    HW114294   6.722   3.105   9.487
37487SOL    HW214295   6.709   2.955   9.493
37488SOL     OW14296  13.165  12.926   6.284
37488SOL    HW114297  13.228  12.987   6.321
37488SOL    HW214298  13.079  12.963   6.305
37489SOL     OW14299  11.167   5.890  11.377
37489SOL    HW114300  11.174   5.807  11.424
37489SOL    HW214301  11.092   5.934  11.416
37490SOL     OW14302  13.678   1.219   3.072
37490SOL    HW114303  13.609   1.191   3.012
37490SOL    HW214304  13.673   1.315   3.072
37491SOL     OW14305  14.170   3.039   1.195
37491SOL    HW114306  14.198   3.013   1.283
37491SOL    HW214307  14.098   2.980   1.174
37492SOL     OW14308   3.378  11.532  10.587
37492SOL    HW114309   3.366  11.461  10.523
37492SOL    HW214310   3.316  11.512  10.656
37493SOL     OW14311   5.905   4.098   9.740
37493SOL    HW114312   5.947   4.072   9.657
37493SOL    HW214313   5.977   4.106   9.802
37494SOL     OW14314   7.709   3.330  10.636
37494SOL    HW114315   7.800   3.300  10.631
37494SOL    HW214316   7.661   3.266  10.584
37495SOL     OW14317   5.799   2.185  14.771
37495SOL    HW114318   5.874   2.204  14.826
37495SOL    HW214319   5.737   2.142  14.830
37496SOL     OW14320   6.989   3.425   9.266
37496SOL    HW114321   6.930   3.350   9.259
37496SOL    HW214322   7.076   3.388   9.258
37497SOL     OW14323   3.100  14.835   4.264
37497SOL    HW114324   3.056  14.753   4.284
37497SOL    HW214325   3.178  14.835   4.320
37498SOL     OW14326   9.142   0.572   8.134
37498SOL    HW114327   9.116   0.482   8.151
37498SOL    HW214328   9.229   0.565   8.095
37499SOL     OW14329   5.400   2.271  12.115
37499SOL    HW114330   5.471   2.334  12.130
37499SOL    HW214331   5.416   2.238  12.027
37500SOL     OW14332   1.320   3.447  14.779
37500SOL    HW114333   1.262   3.439  14.854
37500SOL    HW214334   1.403   3.479  14.815
37501SOL     OW14335  12.291   3.519   0.176
37501SOL    HW114336  12.275   3.511   0.270
37501SOL    HW214337  12.256   3.438   0.139
37502SOL     OW14338   7.185  10.971   2.381
37502SOL    HW114339   7.236  10.914   2.438
37502SOL    HW214340   7.110  10.918   2.355
37503SOL     OW14341   1.987   6.291   5.873
37503SOL    HW114342   1.921   6.278   5.805
37503SOL    HW214343   1.980   6.383   5.896
37504SOL     OW14344   7.467   4.036  10.107
37504SOL    HW114345   7.415   4.067  10.033
37504SOL    HW214346   7.442   3.944  10.117
37505SOL     OW14347   7.131   0.431   4.031
37505SOL    HW114348   7.109   0.524   4.023
37505SOL    HW214349   7.065   0.396   4.091
37506SOL     OW14350  11.758  12.695   6.597
37506SOL    HW114351  11.772  12.636   6.671
37506SOL    HW214352  11.671  12.673   6.564
37507SOL     OW14353   4.006  12.995  11.103
37507SOL    HW114354   4.052  12.922  11.060
37507SOL    HW214355   4.026  12.984  11.196
37508SOL     OW14356   2.908   2.604  13.516
37508SOL    HW114357   2.915   2.670  13.447
37508SOL    HW214358   2.986   2.618  13.570
37509SOL     OW14359   7.631  13.656   5.130
37509SOL    HW114360   7.721  13.689   5.127
37509SOL    HW214361   7.577  13.734   5.116
37510SOL     OW14362  12.430   2.446   2.017
37510SOL    HW114363  12.351   2.404   1.982
37510SOL    HW214364  12.402   2.483   2.101
37511SOL     OW14365   8.169   6.554   5.982
37511SOL    HW114366   8.156   6.471   5.935
37511SOL    HW214367   8.234   6.534   6.049
37512SOL     OW14368  11.092   6.016   7.909
37512SOL    HW114369  11.083   6.068   7.989
37512SOL    HW214370  11.116   5.928   7.939
37513SOL     OW14371   9.457  13.155  13.715
37513SOL    HW114372   9.537  13.103  13.714
37513SOL    HW214373   9.416  13.134  13.799
37514SOL     OW14374   4.697   1.801  14.861
37514SOL    HW114375   4.619   1.821   0.035
37514SOL    HW214376   4.771   1.818   0.042
37515SOL     OW14377   7.176  11.917   1.358
37515SOL    HW114378   7.271  11.928   1.356
37515SOL    HW214379   7.149  11.952   1.443
37516SOL     OW14380  14.334   3.362   4.449
37516SOL    HW114381  14.291   3.400   4.525
37516SOL    HW214382  14.336   3.268   4.467
37517SOL     OW14383  10.804  12.278   6.246
37517SOL    HW114384  10.896  12.256   6.260
37517SOL    HW214385  10.773  12.307   6.332
37518SOL     OW14386  10.871   7.588   9.013
37518SOL    HW114387  10.925   7.552   9.084
37518SOL    HW214388  10.813   7.650   9.057
37519SOL     OW14389   5.893   5.056  13.329
37519SOL    HW114390   5.838   5.027  13.257
37519SOL    HW214391   5.924   4.976  13.371
37520SOL     OW14392   0.182  10.066   4.811
37520SOL    HW114393   0.164  10.000   4.878
37520SOL    HW214394   0.206  10.016   4.733
37521SOL     OW14395  13.228   2.415  12.339
37521SOL    HW114396  13.251   2.375  12.423
37521SOL    HW214397  13.306   2.464  12.314
37522SOL     OW14398   5.019   9.147   6.996
37522SOL    HW114399   4.988   9.065   7.035
37522SOL    HW214400   4.962   9.161   6.920
37523SOL     OW14401   4.699   8.432   3.859
37523SOL    HW114402   4.781   8.471   3.890
37523SOL    HW214403   4.703   8.342   3.889
37524SOL     OW14404  14.016   5.754   5.045
37524SOL    HW114405  13.951   5.716   5.105
37524SOL    HW214406  13.965   5.814   4.990
37525SOL     OW14407   1.260  11.576  11.298
37525SOL    HW114408   1.261  11.545  11.389
37525SOL    HW214409   1.249  11.497  11.246
37526SOL     OW14410   0.109   7.193   1.003
37526SOL    HW114411   0.122   7.271   0.950
37526SOL    HW214412   0.183   7.136   0.980
37527SOL     OW14413   6.305  12.793   0.670
37527SOL    HW114414   6.343  12.706   0.678
37527SOL    HW214415   6.317  12.833   0.756
37528SOL     OW14416  14.612   3.448   3.969
37528SOL    HW114417  14.533   3.431   4.020
37528SOL    HW214418  14.673   3.486   4.032
37529SOL     OW14419   9.291   3.487   9.997
37529SOL    HW114420   9.228   3.490  10.069
37529SOL    HW214421   9.363   3.433  10.031
37530SOL     OW14422   8.607   2.952  10.844
37530SOL    HW114423   8.551   3.027  10.860
37530SOL    HW214424   8.562   2.879  10.886
37531SOL     OW14425   5.767   4.166   2.148
37531SOL    HW114426   5.816   4.103   2.095
37531SOL    HW214427   5.834   4.218   2.192
37532SOL     OW14428  10.351  10.636  12.678
37532SOL    HW114429  10.391  10.588  12.606
37532SOL    HW214430  10.363  10.729  12.655
37533SOL     OW14431   2.957   8.002  12.477
37533SOL    HW114432   2.918   8.053  12.548
37533SOL    HW214433   2.942   7.911  12.502
37534SOL     OW14434   9.456   0.954   2.637
37534SOL    HW114435   9.391   1.009   2.593
37534SOL    HW214436   9.467   0.879   2.579
37535SOL     OW14437   7.825  12.647  10.292
37535SOL    HW114438   7.849  12.595  10.216
37535SOL    HW214439   7.880  12.615  10.363
37536SOL     OW14440   6.188   4.881   1.686
37536SOL    HW114441   6.248   4.891   1.760
37536SOL    HW214442   6.227   4.936   1.617
37537SOL     OW14443  10.740   7.062  10.910
37537SOL    HW114444  10.767   7.017  10.830
37537SOL    HW214445  10.652   7.094  10.890
37538SOL     OW14446   8.449   8.105   4.076
37538SOL    HW114447   8.491   8.019   4.087
37538SOL    HW214448   8.463   8.149   4.160
37539SOL     OW14449   5.894   9.365   8.626
37539SOL    HW114450   5.872   9.448   8.668
37539SOL    HW214451   5.828   9.356   8.557
37540SOL     OW14452  10.395   4.535  13.763
37540SOL    HW114453  10.410   4.502  13.851
37540SOL    HW214454  10.318   4.488  13.732
37541SOL     OW14455   1.640   3.834  10.907
37541SOL    HW114456   1.645   3.877  10.822
37541SOL    HW214457   1.569   3.878  10.952
37542SOL     OW14458  12.743   2.121  13.216
37542SOL    HW114459  12.678   2.130  13.285
37542SOL    HW214460  12.827   2.125  13.262
37543SOL     OW14461  12.537   5.591  12.390
37543SOL    HW114462  12.454   5.636  12.377
37543SOL    HW214463  12.601   5.645  12.343
37544SOL     OW14464   9.293   1.686  14.857
37544SOL    HW114465   9.315   1.595  14.836
37544SOL    HW214466   9.248   1.719  14.779
37545SOL     OW14467   3.861   3.873   0.762
37545SOL    HW114468   3.908   3.895   0.842
37545SOL    HW214469   3.925   3.889   0.692
37546SOL     OW14470  10.668   1.443   9.537
37546SOL    HW114471  10.657   1.353   9.570
37546SOL    HW214472  10.756   1.468   9.565
37547SOL     OW14473  12.621   4.697  11.270
37547SOL    HW114474  12.688   4.641  11.232
37547SOL    HW214475  12.652   4.786  11.253
37548SOL     OW14476  11.930  14.445  12.614
37548SOL    HW114477  11.989  14.514  12.645
37548SOL    HW214478  11.873  14.489  12.551
37549SOL     OW14479  11.464  13.094   9.003
37549SOL    HW114480  11.473  13.077   9.097
37549SOL    HW214481  11.410  13.022   8.970
37550SOL     OW14482   1.839  11.858   5.524
37550SOL    HW114483   1.915  11.917   5.529
37550SOL    HW214484   1.796  11.883   5.442
37551SOL     OW14485  12.776   2.369  10.880
37551SOL    HW114486  12.836   2.422  10.932
37551SOL    HW214487  12.701   2.427  10.865
37552SOL     OW14488   4.320  12.499   2.973
37552SOL    HW114489   4.404  12.517   2.930
37552SOL    HW214490   4.331  12.411   3.009
37553SOL     OW14491   0.662  12.125   8.424
37553SOL    HW114492   0.747  12.135   8.467
37553SOL    HW214493   0.671  12.171   8.341
37554SOL     OW14494   3.800   4.554   5.110
37554SOL    HW114495   3.766   4.640   5.136
37554SOL    HW214496   3.727   4.511   5.066
37555SOL     OW14497   5.172   9.073  13.626
37555SOL    HW114498   5.077   9.073  13.615
37555SOL    HW214499   5.206   9.048  13.540
37556SOL     OW14500  14.316   4.263   6.916
37556SOL    HW114501  14.299   4.186   6.863
37556SOL    HW214502  14.308   4.233   7.006
37557SOL     OW14503   2.899   9.179   7.494
37557SOL    HW114504   2.940   9.222   7.419
37557SOL    HW214505   2.889   9.087   7.466
37558SOL     OW14506   8.264   6.653  14.084
37558SOL    HW114507   8.234   6.665  14.174
37558SOL    HW214508   8.186   6.667  14.030
37559SOL     OW14509   8.137   1.606   6.259
37559SOL    HW114510   8.073   1.550   6.303
37559SOL    HW214511   8.222   1.568   6.283
37560SOL     OW14512   4.633   1.381   6.592
37560SOL    HW114513   4.539   1.393   6.594
37560SOL    HW214514   4.668   1.445   6.654
37561SOL     OW14515   9.360   9.520   9.302
37561SOL    HW114516   9.366   9.480   9.215
37561SOL    HW214517   9.450   9.521   9.334
37562SOL     OW14518   8.046  11.827  13.040
37562SOL    HW114519   8.047  11.734  13.065
37562SOL    HW214520   7.979  11.866  13.096
37563SOL     OW14521   9.043   8.556   1.660
37563SOL    HW114522   8.994   8.513   1.590
37563SOL    HW214523   9.135   8.539   1.638
37564SOL     OW14524   7.710   5.728   7.579
37564SOL    HW114525   7.623   5.710   7.543
37564SOL    HW214526   7.726   5.820   7.557
37565SOL     OW14527   2.837  12.383   0.132
37565SOL    HW114528   2.806  12.441   0.062
37565SOL    HW214529   2.932  12.394   0.132
37566SOL     OW14530   7.780  12.930   9.566
37566SOL    HW114531   7.859  12.951   9.515
37566SOL    HW214532   7.779  12.994   9.637
37567SOL     OW14533   6.188   1.708  12.028
37567SOL    HW114534   6.252   1.748  11.968
37567SOL    HW214535   6.241   1.675  12.100
37568SOL     OW14536  11.159   7.662  13.632
37568SOL    HW114537  11.172   7.740  13.578
37568SOL    HW214538  11.242   7.615  13.627
37569SOL     OW14539   6.225   1.044   4.636
37569SOL    HW114540   6.213   1.078   4.725
37569SOL    HW214541   6.142   1.061   4.593
37570SOL     OW14542   4.663  13.377  12.562
37570SOL    HW114543   4.649  13.283  12.564
37570SOL    HW214544   4.757  13.388  12.575
37571SOL     OW14545   0.822  11.404  10.642
37571SOL    HW114546   0.757  11.475  10.643
37571SOL    HW214547   0.852  11.399  10.733
37572SOL     OW14548   5.783  14.113   1.048
37572SOL    HW114549   5.733  14.173   1.104
37572SOL    HW214550   5.754  14.026   1.073
37573SOL     OW14551   9.788   3.126   0.577
37573SOL    HW114552   9.694   3.138   0.590
37573SOL    HW214553   9.815   3.202   0.526
37574SOL     OW14554   7.238   0.650   9.212
37574SOL    HW114555   7.150   0.644   9.175
37574SOL    HW214556   7.228   0.619   9.302
37575SOL     OW14557   0.059   0.861   6.084
37575SOL    HW114558   0.079   0.843   5.992
37575SOL    HW214559   0.094   0.786   6.131
37576SOL     OW14560   6.494   8.062   7.357
37576SOL    HW114561   6.443   8.143   7.357
37576SOL    HW214562   6.557   8.072   7.286
37577SOL     OW14563   0.289   9.830   5.236
37577SOL    HW114564   0.374   9.874   5.231
37577SOL    HW214565   0.305   9.754   5.291
37578SOL     OW14566  11.996   2.028   9.661
37578SOL    HW114567  12.090   2.028   9.683
37578SOL    HW214568  11.954   1.992   9.739
37579SOL     OW14569   5.263   9.275   8.205
37579SOL    HW114570   5.297   9.287   8.294
37579SOL    HW214571   5.202   9.202   8.213
37580SOL     OW14572   6.349   9.034   9.947
37580SOL    HW114573   6.365   8.951   9.991
37580SOL    HW214574   6.259   9.057   9.971
37581SOL     OW14575  12.122   1.606   7.866
37581SOL    HW114576  12.085   1.561   7.790
37581SOL    HW214577  12.091   1.696   7.858
37582SOL     OW14578   9.393   6.448   3.868
37582SOL    HW114579   9.403   6.441   3.963
37582SOL    HW214580   9.355   6.364   3.842
37583SOL     OW14581  12.906  11.289  13.177
37583SOL    HW114582  12.825  11.254  13.139
37583SOL    HW214583  12.975  11.232  13.143
37584SOL     OW14584   4.713   4.464   2.204
37584SOL    HW114585   4.771   4.426   2.270
37584SOL    HW214586   4.672   4.539   2.249
37585SOL     OW14587   2.604   3.997  13.344
37585SOL    HW114588   2.654   4.057  13.399
37585SOL    HW214589   2.571   3.930  13.405
37586SOL     OW14590  10.497  10.607  11.857
37586SOL    HW114591  10.558  10.637  11.924
37586SOL    HW214592  10.437  10.549  11.904
37587SOL     OW14593   5.100   5.349   0.982
37587SOL    HW114594   5.159   5.358   0.907
37587SOL    HW214595   5.057   5.434   0.990
37588SOL     OW14596   5.081   2.454   0.426
37588SOL    HW114597   5.176   2.448   0.441
37588SOL    HW214598   5.056   2.537   0.466
37589SOL     OW14599   5.387   4.494   7.758
37589SOL    HW114600   5.292   4.502   7.746
37589SOL    HW214601   5.423   4.495   7.669
37590SOL     OW14602  14.323   2.646  11.356
37590SOL    HW114603  14.242   2.641  11.407
37590SOL    HW214604  14.393   2.628  11.420
37591SOL     OW14605   1.305   8.307   6.658
37591SOL    HW114606   1.394   8.338   6.674
37591SOL    HW214607   1.249   8.374   6.696
37592SOL     OW14608   6.215   5.862   2.717
37592SOL    HW114609   6.256   5.947   2.737
37592SOL    HW214610   6.232   5.850   2.623
37593SOL     OW14611   0.370   5.531   8.886
37593SOL    HW114612   0.380   5.625   8.896
37593SOL    HW214613   0.291   5.520   8.833
37594SOL     OW14614   0.355  14.204  10.920
37594SOL    HW114615   0.362  14.108  10.914
37594SOL    HW214616   0.353  14.233  10.829
37595SOL     OW14617   2.944   7.772   8.890
37595SOL    HW114618   2.983   7.854   8.858
37595SOL    HW214619   2.997   7.703   8.851
37596SOL     OW14620   4.569  14.354   9.159
37596SOL    HW114621   4.625  14.386   9.229
37596SOL    HW214622   4.489  14.407   9.165
37597SOL     OW14623  13.716   8.385   8.333
37597SOL    HW114624  13.760   8.421   8.410
37597SOL    HW214625  13.726   8.452   8.265
37598SOL     OW14626  10.329   3.703  12.558
37598SOL    HW114627  10.358   3.616  12.583
37598SOL    HW214628  10.383   3.727  12.483
37599SOL     OW14629   7.251   4.218   6.796
37599SOL    HW114630   7.237   4.283   6.864
37599SOL    HW214631   7.335   4.178   6.818
37600SOL     OW14632   4.512  11.611   9.340
37600SOL    HW114633   4.560  11.669   9.399
37600SOL    HW214634   4.476  11.670   9.273
37601SOL     OW14635   6.212   3.521   5.575
37601SOL    HW114636   6.219   3.614   5.597
37601SOL    HW214637   6.176   3.520   5.486
37602SOL     OW14638  12.270   3.304   4.019
37602SOL    HW114639  12.295   3.387   4.059
37602SOL    HW214640  12.223   3.329   3.939
37603SOL     OW14641  13.384   7.155   0.743
37603SOL    HW114642  13.395   7.116   0.830
37603SOL    HW214643  13.403   7.083   0.683
37604SOL     OW14644   7.867   8.732   3.610
37604SOL    HW114645   7.857   8.772   3.697
37604SOL    HW214646   7.936   8.666   3.622
37605SOL     OW14647   2.464   6.170   6.875
37605SOL    HW114648   2.444   6.078   6.859
37605SOL    HW214649   2.556   6.171   6.901
37606SOL     OW14650  12.676   7.548   3.551
37606SOL    HW114651  12.596   7.583   3.511
37606SOL    HW214652  12.747   7.600   3.513
37607SOL     OW14653   4.290  13.662   6.423
37607SOL    HW114654   4.321  13.725   6.488
37607SOL    HW214655   4.332  13.579   6.447
37608SOL     OW14656   2.654   8.911   4.609
37608SOL    HW114657   2.572   8.938   4.568
37608SOL    HW214658   2.701   8.993   4.626
37609SOL     OW14659  13.536  12.982  10.355
37609SOL    HW114660  13.550  12.918  10.285
37609SOL    HW214661  13.591  13.056  10.331
37610SOL     OW14662  10.820  10.119   1.033
37610SOL    HW114663  10.859  10.036   1.062
37610SOL    HW214664  10.764  10.146   1.106
37611SOL     OW14665   3.800  14.333   2.295
37611SOL    HW114666   3.886  14.312   2.333
37611SOL    HW214667   3.808  14.424   2.268
37612SOL     OW14668   2.990   7.489   2.729
37612SOL    HW114669   2.977   7.482   2.824
37612SOL    HW214670   3.084   7.504   2.719
37613SOL     OW14671   4.259   9.644  10.633
37613SOL    HW114672   4.347   9.683  10.633
37613SOL    HW214673   4.202   9.714  10.663
37614SOL     OW14674   5.137   6.641  12.468
37614SOL    HW114675   5.147   6.641  12.564
37614SOL    HW214676   5.101   6.554  12.448
37615SOL     OW14677   1.445   4.041   3.407
37615SOL    HW114678   1.387   4.116   3.422
37615SOL    HW214679   1.432   4.019   3.315
37616SOL     OW14680   5.800   8.308  10.146
37616SOL    HW114681   5.785   8.221  10.183
37616SOL    HW214682   5.720   8.326  10.095
37617SOL     OW14683   5.641   7.978   4.264
37617SOL    HW114684   5.566   8.005   4.212
37617SOL    HW214685   5.607   7.968   4.353
37618SOL     OW14686   3.738   5.461   3.048
37618SOL    HW114687   3.727   5.508   2.966
37618SOL    HW214688   3.832   5.443   3.053
37619SOL     OW14689   6.631  11.561   0.101
37619SOL    HW114690   6.726  11.569   0.108
37619SOL    HW214691   6.617  11.519   0.016
37620SOL     OW14692  13.861  13.271   1.561
37620SOL    HW114693  13.840  13.209   1.630
37620SOL    HW214694  13.785  13.269   1.503
37621SOL     OW14695   3.262   3.622   1.556
37621SOL    HW114696   3.323   3.644   1.626
37621SOL    HW214697   3.240   3.530   1.572
37622SOL     OW14698  10.829   9.050   9.089
37622SOL    HW114699  10.856   8.973   9.138
37622SOL    HW214700  10.852   9.030   8.998
37623SOL     OW14701   1.305  10.474   4.924
37623SOL    HW114702   1.254  10.398   4.894
37623SOL    HW214703   1.322  10.525   4.845
37624SOL     OW14704   1.106   5.267   2.280
37624SOL    HW114705   1.172   5.211   2.240
37624SOL    HW214706   1.099   5.234   2.370
37625SOL     OW14707   7.511   5.172   9.488
37625SOL    HW114708   7.580   5.152   9.551
37625SOL    HW214709   7.554   5.227   9.423
37626SOL     OW14710   9.522   7.926   9.550
37626SOL    HW114711   9.526   7.857   9.616
37626SOL    HW214712   9.568   7.891   9.475
37627SOL     OW14713  13.150   4.496   2.004
37627SOL    HW114714  13.212   4.495   1.931
37627SOL    HW214715  13.077   4.443   1.974
37628SOL     OW14716   0.521   3.040   9.382
37628SOL    HW114717   0.581   2.982   9.335
37628SOL    HW214718   0.577   3.111   9.413
37629SOL     OW14719  12.415   9.058  10.714
37629SOL    HW114720  12.390   9.129  10.656
37629SOL    HW214721  12.374   9.080  10.798
37630SOL     OW14722   8.554   1.747  14.806
37630SOL    HW114723   8.543   1.684  14.736
37630SOL    HW214724   8.611   1.704  14.870
37631SOL     OW14725   0.427   8.589   9.585
37631SOL    HW114726   0.455   8.619   9.498
37631SOL    HW214727   0.506   8.551   9.623
37632SOL     OW14728   5.094  12.444   7.804
37632SOL    HW114729   5.185  12.416   7.794
37632SOL    HW214730   5.070  12.478   7.718
37633SOL     OW14731   4.606  12.166   1.883
37633SOL    HW114732   4.521  12.128   1.907
37633SOL    HW214733   4.670  12.112   1.930
37634SOL     OW14734  11.625  10.979  14.753
37634SOL    HW114735  11.535  10.993  14.784
37634SOL    HW214736  11.627  10.886  14.730
37635SOL     OW14737   0.221  14.716   0.604
37635SOL    HW114738   0.268  14.745   0.682
37635SOL    HW214739   0.231  14.788   0.542
37636SOL     OW14740   8.185   9.186   5.943
37636SOL    HW114741   8.109   9.131   5.925
37636SOL    HW214742   8.184   9.199   6.038
37637SOL     OW14743   5.636   3.372   9.886
37637SOL    HW114744   5.550   3.409   9.908
37637SOL    HW214745   5.675   3.435   9.826
37638SOL     OW14746   5.977   7.761   6.898
37638SOL    HW114747   6.025   7.810   6.965
37638SOL    HW214748   6.046   7.720   6.846
37639SOL     OW14749   0.244   7.653   0.608
37639SOL    HW114750   0.181   7.583   0.627
37639SOL    HW214751   0.329   7.609   0.607
37640SOL     OW14752   1.092  13.026   8.778
37640SOL    HW114753   1.175  12.981   8.792
37640SOL    HW214754   1.117  13.110   8.738
37641SOL     OW14755   0.577   3.602  12.047
37641SOL    HW114756   0.598   3.562  11.963
37641SOL    HW214757   0.658   3.643  12.076
37642SOL     OW14758  12.785   5.204  14.222
37642SOL    HW114759  12.735   5.236  14.297
37642SOL    HW214760  12.742   5.244  14.146
37643SOL     OW14761  14.731   7.084   7.616
37643SOL    HW114762  14.654   7.112   7.667
37643SOL    HW214763  14.795   7.155   7.630
37644SOL     OW14764   4.393  10.226   7.999
37644SOL    HW114765   4.446  10.306   8.004
37644SOL    HW214766   4.315  10.252   7.950
37645SOL     OW14767   0.210  10.406  14.571
37645SOL    HW114768   0.228  10.424  14.479
37645SOL    HW214769   0.120  10.434  14.585
37646SOL     OW14770   8.649  12.607  10.991
37646SOL    HW114771   8.585  12.678  11.001
37646SOL    HW214772   8.728  12.640  11.034
37647SOL     OW14773   2.038   6.016   9.649
37647SOL    HW114774   2.024   6.100   9.694
37647SOL    HW214775   2.079   6.040   9.566
37648SOL     OW14776   8.652   5.408  10.065
37648SOL    HW114777   8.589   5.423   9.995
37648SOL    HW214778   8.737   5.416  10.023
37649SOL     OW14779   4.054  12.206  13.341
37649SOL    HW114780   4.010  12.125  13.368
37649SOL    HW214781   3.986  12.255  13.296
37650SOL     OW14782   4.028   7.127   5.321
37650SOL    HW114783   3.975   7.180   5.261
37650SOL    HW214784   4.111   7.114   5.274
37651SOL     OW14785  12.887   1.634   7.327
37651SOL    HW114786  12.826   1.707   7.341
37651SOL    HW214787  12.936   1.628   7.408
37652SOL     OW14788  11.632   3.911   5.758
37652SOL    HW114789  11.727   3.908   5.757
37652SOL    HW214790  11.605   3.867   5.678
37653SOL     OW14791  12.068   2.102  10.997
37653SOL    HW114792  12.161   2.114  10.976
37653SOL    HW214793  12.064   2.016  11.040
37654SOL     OW14794  10.594  10.781   5.856
37654SOL    HW114795  10.534  10.855   5.868
37654SOL    HW214796  10.620  10.757   5.945
37655SOL     OW14797  12.602   4.346   0.278
37655SOL    HW114798  12.579   4.301   0.360
37655SOL    HW214799  12.616   4.275   0.215
37656SOL     OW14800   8.597  14.726  10.124
37656SOL    HW114801   8.579  14.685  10.208
37656SOL    HW214802   8.591  14.654  10.061
37657SOL     OW14803   3.081   7.431  12.627
37657SOL    HW114804   3.061   7.342  12.599
37657SOL    HW214805   3.176   7.434  12.630
37658SOL     OW14806   4.663   7.889   2.033
37658SOL    HW114807   4.658   7.907   1.939
37658SOL    HW214808   4.679   7.975   2.073
37659SOL     OW14809   0.457  11.903  10.300
37659SOL    HW114810   0.436  11.956  10.223
37659SOL    HW214811   0.532  11.850  10.272
37660SOL     OW14812  13.081   0.762  11.510
37660SOL    HW114813  13.121   0.718  11.436
37660SOL    HW214814  13.132   0.734  11.586
37661SOL     OW14815   3.466  12.143  10.651
37661SOL    HW114816   3.541  12.179  10.700
37661SOL    HW214817   3.418  12.219  10.619
37662SOL     OW14818   5.886  10.739  10.905
37662SOL    HW114819   5.838  10.766  10.826
37662SOL    HW214820   5.974  10.773  10.891
37663SOL     OW14821   6.117  14.845  12.229
37663SOL    HW114822   6.115  14.774  12.294
37663SOL    HW214823   6.209  14.870  12.225
37664SOL     OW14824   8.216   3.207  11.473
37664SOL    HW114825   8.162   3.286  11.462
37664SOL    HW214826   8.293   3.237  11.521
37665SOL     OW14827   0.283   4.789   8.829
37665SOL    HW114828   0.202   4.825   8.795
37665SOL    HW214829   0.263   4.764   8.919
37666SOL     OW14830   3.395  11.225  13.274
37666SOL    HW114831   3.475  11.203  13.226
37666SOL    HW214832   3.396  11.321  13.279
37667SOL     OW14833  13.234  10.843   7.860
37667SOL    HW114834  13.159  10.880   7.907
37667SOL    HW214835  13.281  10.793   7.927
37668SOL     OW14836  13.148  12.894   8.003
37668SOL    HW114837  13.227  12.924   8.048
37668SOL    HW214838  13.140  12.802   8.028
37669SOL     OW14839   1.450   0.808   5.745
37669SOL    HW114840   1.433   0.831   5.836
37669SOL    HW214841   1.444   0.713   5.743
37670SOL     OW14842   0.493  13.392  10.558
37670SOL    HW114843   0.424  13.341  10.600
37670SOL    HW214844   0.540  13.434  10.630
37671SOL     OW14845   0.200  11.297  12.864
37671SOL    HW114846   0.259  11.326  12.933
37671SOL    HW214847   0.200  11.202  12.870
37672SOL     OW14848   4.190   5.600  13.970
37672SOL    HW114849   4.175   5.521  13.920
37672SOL    HW214850   4.210   5.667  13.905
37673SOL     OW14851  11.057   2.248  10.352
37673SOL    HW114852  11.072   2.298  10.433
37673SOL    HW214853  10.967   2.217  10.359
37674SOL     OW14854   2.964   7.418   2.992
37674SOL    HW114855   2.925   7.331   2.980
37674SOL    HW214856   3.058   7.403   2.982
37675SOL     OW14857   9.504   1.177  10.411
37675SOL    HW114858   9.513   1.118  10.486
37675SOL    HW214859   9.459   1.254  10.446
37676SOL     OW14860   8.848   3.313   4.880
37676SOL    HW114861   8.845   3.379   4.811
37676SOL    HW214862   8.941   3.297   4.895
37677SOL     OW14863   2.745   1.595  13.528
37677SOL    HW114864   2.731   1.678  13.572
37677SOL    HW214865   2.697   1.531  13.580
37678SOL     OW14866  11.679  12.633   6.210
37678SOL    HW114867  11.661  12.596   6.123
37678SOL    HW214868  11.678  12.558   6.268
37679SOL     OW14869  10.831   3.807   6.057
37679SOL    HW114870  10.788   3.875   6.005
37679SOL    HW214871  10.874   3.752   5.991
37680SOL     OW14872   4.014   6.387  11.684
37680SOL    HW114873   3.981   6.298  11.670
37680SOL    HW214874   3.977   6.438  11.612
37681SOL     OW14875   0.509   8.034  13.485
37681SOL    HW114876   0.482   7.948  13.518
37681SOL    HW214877   0.600   8.043  13.514
37682SOL     OW14878   3.352   7.750  11.484
37682SOL    HW114879   3.446   7.761  11.472
37682SOL    HW214880   3.339   7.655  11.482
37683SOL     OW14881   4.428   5.453   7.248
37683SOL    HW114882   4.342   5.451   7.289
37683SOL    HW214883   4.420   5.516   7.177
37684SOL     OW14884  11.910  14.475   5.557
37684SOL    HW114885  11.913  14.534   5.633
37684SOL    HW214886  11.970  14.404   5.580
37685SOL     OW14887   9.276   3.952   0.443
37685SOL    HW114888   9.372   3.955   0.441
37685SOL    HW214889   9.256   3.859   0.456
37686SOL     OW14890  12.167   4.821  11.322
37686SOL    HW114891  12.192   4.731  11.301
37686SOL    HW214892  12.072   4.819  11.326
37687SOL     OW14893   9.004   8.009   5.410
37687SOL    HW114894   8.996   7.943   5.341
37687SOL    HW214895   9.090   7.992   5.449
37688SOL     OW14896   8.578   2.349  14.623
37688SOL    HW114897   8.528   2.393  14.554
37688SOL    HW214898   8.608   2.420  14.679
37689SOL     OW14899   6.849   0.995   3.924
37689SOL    HW114900   6.753   0.999   3.924
37689SOL    HW214901   6.877   1.076   3.966
37690SOL     OW14902  10.308  12.451   8.518
37690SOL    HW114903  10.333  12.496   8.599
37690SOL    HW214904  10.284  12.522   8.458
37691SOL     OW14905  10.759   5.263   9.895
37691SOL    HW114906  10.754   5.359   9.899
37691SOL    HW214907  10.706   5.239   9.819
37692SOL     OW14908   3.388  12.471  13.070
37692SOL    HW114909   3.470  12.504  13.035
37692SOL    HW214910   3.324  12.540  13.052
37693SOL     OW14911   2.108   5.506  11.964
37693SOL    HW114912   2.037   5.528  12.024
37693SOL    HW214913   2.065   5.498  11.879
37694SOL     OW14914   1.104  11.962   3.657
37694SOL    HW114915   1.095  12.046   3.703
37694SOL    HW214916   1.121  11.986   3.566
37695SOL     OW14917   1.097   2.668   7.464
37695SOL    HW114918   1.192   2.676   7.468
37695SOL    HW214919   1.081   2.579   7.432
37696SOL     OW14920  10.727   7.930   7.551
37696SOL    HW114921  10.758   7.856   7.603
37696SOL    HW214922  10.743   8.007   7.606
37697SOL     OW14923  13.711   9.677  12.394
37697SOL    HW114924  13.788   9.716  12.353
37697SOL    HW214925  13.708   9.588  12.359
37698SOL     OW14926  13.118   0.433   8.022
37698SOL    HW114927  13.057   0.407   7.952
37698SOL    HW214928  13.062   0.467   8.091
37699SOL     OW14929   0.063  12.634  13.232
37699SOL    HW114930   0.153  12.608  13.214
37699SOL    HW214931   0.039  12.691  13.159
37700SOL     OW14932   3.513   3.994   6.019
37700SOL    HW114933   3.553   3.993   6.105
37700SOL    HW214934   3.420   3.977   6.035
37701SOL     OW14935   5.579  13.611   2.604
37701SOL    HW114936   5.499  13.579   2.644
37701SOL    HW214937   5.558  13.700   2.575
37702SOL     OW14938   5.591   8.519   1.575
37702SOL    HW114939   5.540   8.540   1.653
37702SOL    HW214940   5.681   8.515   1.606
37703SOL     OW14941  11.788   6.134   4.220
37703SOL    HW114942  11.780   6.069   4.290
37703SOL    HW214943  11.859   6.191   4.249
37704SOL     OW14944   4.519  14.177   5.557
37704SOL    HW114945   4.445  14.122   5.532
37704SOL    HW214946   4.590  14.115   5.575
37705SOL     OW14947  10.056   6.122   5.020
37705SOL    HW114948   9.981   6.174   5.050
37705SOL    HW214949  10.023   6.072   4.945
37706SOL     OW14950   1.001   8.731   3.170
37706SOL    HW114951   0.923   8.682   3.193
37706SOL    HW214952   1.064   8.712   3.239
37707SOL     OW14953   7.501   1.023   2.654
37707SOL    HW114954   7.559   1.098   2.666
37707SOL    HW214955   7.474   1.028   2.562
37708SOL     OW14956   6.327   9.310  11.248
37708SOL    HW114957   6.362   9.378  11.305
37708SOL    HW214958   6.352   9.338  11.160
37709SOL     OW14959   8.138  14.660   4.025
37709SOL    HW114960   8.091  14.743   4.028
37709SOL    HW214961   8.188  14.658   4.107
37710SOL     OW14962   2.662   4.636  10.297
37710SOL    HW114963   2.600   4.624  10.225
37710SOL    HW214964   2.696   4.548  10.314
37711SOL     OW14965  13.348   9.764   1.275
37711SOL    HW114966  13.294   9.841   1.253
37711SOL    HW214967  13.355   9.766   1.370
37712SOL     OW14968   6.165   8.960   0.962
37712SOL    HW114969   6.244   9.009   0.942
37712SOL    HW214970   6.197   8.883   1.011
37713SOL     OW14971   9.544   4.690   1.168
37713SOL    HW114972   9.585   4.771   1.201
37713SOL    HW214973   9.473   4.720   1.113
37714SOL     OW14974   5.256   1.047  13.764
37714SOL    HW114975   5.313   1.035  13.840
37714SOL    HW214976   5.301   1.002  13.693
37715SOL     OW14977   2.387   9.017   6.572
37715SOL    HW114978   2.311   8.961   6.557
37715SOL    HW214979   2.462   8.958   6.564
37716SOL     OW14980   2.471  14.618  14.305
37716SOL    HW114981   2.461  14.712  14.323
37716SOL    HW214982   2.383  14.583  14.309
37717SOL     OW14983   3.446   8.816   0.133
37717SOL    HW114984   3.386   8.742   0.125
37717SOL    HW214985   3.416   8.863   0.211
37718SOL     OW14986   9.226  12.831  14.120
37718SOL    HW114987   9.136  12.841  14.152
37718SOL    HW214988   9.240  12.737  14.116
37719SOL     OW14989   1.353  12.329   2.248
37719SOL    HW114990   1.375  12.237   2.261
37719SOL    HW214991   1.431  12.368   2.209
37720SOL     OW14992   5.849   2.990   2.634
37720SOL    HW114993   5.861   3.055   2.565
37720SOL    HW214994   5.792   2.924   2.596
37721SOL     OW14995   7.903  12.989   4.990
37721SOL    HW114996   7.914  13.050   4.918
37721SOL    HW214997   7.888  12.904   4.948
37722SOL     OW14998   9.302   2.359   5.709
37722SOL    HW114999   9.274   2.304   5.783
37722SOL    HW215000   9.237   2.429   5.705
37723SOL     OW15001  12.811   1.111   3.151
37723SOL    HW115002  12.752   1.118   3.226
37723SOL    HW215003  12.790   1.186   3.096
37724SOL     OW15004   9.805   3.918   5.775
37724SOL    HW115005   9.748   3.861   5.722
37724SOL    HW215006   9.866   3.858   5.817
37725SOL     OW15007  13.982  12.434   5.448
37725SOL    HW115008  13.962  12.418   5.541
37725SOL    HW215009  13.900  12.413   5.403
37726SOL     OW15010   9.651   7.734  14.022
37726SOL    HW115011   9.719   7.786  13.979
37726SOL    HW215012   9.596   7.703  13.950
37727SOL     OW15013   0.867   2.703  12.314
37727SOL    HW115014   0.793   2.764  12.308
37727SOL    HW215015   0.831   2.618  12.289
37728SOL     OW15016   3.305  10.975   7.525
37728SOL    HW115017   3.376  11.038   7.516
37728SOL    HW215018   3.238  11.005   7.463
37729SOL     OW15019   3.282   6.019   2.133
37729SOL    HW115020   3.334   5.939   2.122
37729SOL    HW215021   3.248   6.014   2.222
37730SOL     OW15022   5.155   7.583   2.797
37730SOL    HW115023   5.064   7.580   2.768
37730SOL    HW215024   5.152   7.556   2.889
37731SOL     OW15025  13.002  10.739  14.491
37731SOL    HW115026  13.097  10.729  14.481
37731SOL    HW215027  12.990  10.830  14.518
37732SOL     OW15028  14.701  13.752   1.000
37732SOL    HW115029  14.690  13.783   0.911
37732SOL    HW215030  14.786  13.787   1.027
37733SOL     OW15031  11.709   5.475   6.014
37733SOL    HW115032  11.675   5.406   6.071
37733SOL    HW215033  11.695   5.556   6.064
37734SOL     OW15034   8.397   1.919   7.292
37734SOL    HW115035   8.493   1.910   7.290
37734SOL    HW215036   8.375   1.956   7.207
37735SOL     OW15037   1.880   3.323   8.938
37735SOL    HW115038   1.875   3.402   8.885
37735SOL    HW215039   1.899   3.354   9.027
37736SOL     OW15040  13.462  10.313  10.502
37736SOL    HW115041  13.495  10.255  10.433
37736SOL    HW215042  13.485  10.401  10.471
37737SOL     OW15043  13.778  12.813   2.689
37737SOL    HW115044  13.797  12.905   2.670
37737SOL    HW215045  13.766  12.809   2.784
37738SOL     OW15046   8.696   5.825   4.500
37738SOL    HW115047   8.654   5.838   4.415
37738SOL    HW215048   8.659   5.895   4.555
37739SOL     OW15049  14.301   8.342  10.208
37739SOL    HW115050  14.348   8.294  10.140
37739SOL    HW215051  14.338   8.430  10.206
37740SOL     OW15052  13.733  13.821  12.720
37740SOL    HW115053  13.762  13.907  12.751
37740SOL    HW215054  13.802  13.761  12.748
37741SOL     OW15055   8.070   0.283   6.401
37741SOL    HW115056   8.071   0.271   6.306
37741SOL    HW215057   7.988   0.328   6.419
37742SOL     OW15058   1.046   8.473   4.226
37742SOL    HW115059   1.128   8.522   4.225
37742SOL    HW215060   1.053   8.415   4.150
37743SOL     OW15061   6.880   5.911   4.883
37743SOL    HW115062   6.846   5.995   4.852
37743SOL    HW215063   6.958   5.896   4.830
37744SOL     OW15064  10.397   4.140   5.163
37744SOL    HW115065  10.450   4.063   5.140
37744SOL    HW215066  10.444   4.214   5.123
37745SOL     OW15067  14.570   3.866   9.318
37745SOL    HW115068  14.661   3.894   9.318
37745SOL    HW215069  14.524   3.932   9.369
37746SOL     OW15070   5.819  11.578   9.965
37746SOL    HW115071   5.809  11.487   9.995
37746SOL    HW215072   5.737  11.597   9.921
37747SOL     OW15073  10.854   2.496   3.802
37747SOL    HW115074  10.906   2.570   3.833
37747SOL    HW215075  10.782   2.490   3.865
37748SOL     OW15076   3.955   9.494  11.498
37748SOL    HW115077   3.901   9.569  11.525
37748SOL    HW215078   3.910   9.458  11.422
37749SOL     OW15079   6.076   8.416  10.680
37749SOL    HW115080   6.065   8.477  10.607
37749SOL    HW215081   6.170   8.399  10.682
37750SOL     OW15082   3.877  10.929   2.042
37750SOL    HW115083   3.893  10.937   2.136
37750SOL    HW215084   3.957  10.890   2.007
37751SOL     OW15085   5.746  11.119   2.206
37751SOL    HW115086   5.690  11.069   2.265
37751SOL    HW215087   5.810  11.055   2.175
37752SOL     OW15088  12.929   2.310   1.994
37752SOL    HW115089  12.938   2.399   2.028
37752SOL    HW215090  12.895   2.321   1.905
37753SOL     OW15091   4.926  12.845  10.095
37753SOL    HW115092   4.996  12.828  10.031
37753SOL    HW215093   4.882  12.923  10.062
37754SOL     OW15094  11.090   7.714   1.491
37754SOL    HW115095  11.044   7.689   1.571
37754SOL    HW215096  11.056   7.655   1.424
37755SOL     OW15097   5.422   8.214   9.357
37755SOL    HW115098   5.488   8.255   9.300
37755SOL    HW215099   5.422   8.122   9.332
37756SOL     OW15100   4.128   1.422   9.331
37756SOL    HW115101   4.178   1.341   9.322
37756SOL    HW215102   4.100   1.443   9.241
37757SOL     OW15103   5.251   3.374   7.861
37757SOL    HW115104   5.169   3.369   7.812
37757SOL    HW215105   5.294   3.452   7.825
37758SOL     OW15106   7.317   9.010   9.928
37758SOL    HW115107   7.244   8.987   9.871
37758SOL    HW215108   7.306   9.104   9.945
37759SOL     OW15109  14.292   1.589  11.428
37759SOL    HW115110  14.330   1.613  11.344
37759SOL    HW215111  14.251   1.670  11.460
37760SOL     OW15112   5.019  12.956   5.309
37760SOL    HW115113   5.031  12.953   5.214
37760SOL    HW215114   5.108  12.954   5.344
37761SOL     OW15115   0.881  14.204   7.325
37761SOL    HW115116   0.930  14.226   7.405
37761SOL    HW215117   0.804  14.156   7.357
37762SOL     OW15118   8.330   7.287   7.492
37762SOL    HW115119   8.300   7.272   7.581
37762SOL    HW215120   8.307   7.378   7.474
37763SOL     OW15121   3.478   2.102   5.871
37763SOL    HW115122   3.454   2.023   5.918
37763SOL    HW215123   3.395   2.147   5.854
37764SOL     OW15124   6.412  14.246  13.856
37764SOL    HW115125   6.322  14.278  13.860
37764SOL    HW215126   6.465  14.317  13.893
37765SOL     OW15127   2.722   1.261   3.410
37765SOL    HW115128   2.657   1.331   3.418
37765SOL    HW215129   2.685   1.202   3.344
37766SOL     OW15130  12.885   3.151   4.167
37766SOL    HW115131  12.865   3.229   4.115
37766SOL    HW215132  12.970   3.169   4.207
37767SOL     OW15133  11.755   4.818   3.407
37767SOL    HW115134  11.660   4.830   3.402
37767SOL    HW215135  11.772   4.742   3.352
37768SOL     OW15136  13.503   3.413   9.595
37768SOL    HW115137  13.474   3.463   9.519
37768SOL    HW215138  13.433   3.350   9.610
37769SOL     OW15139  12.234   8.114   7.320
37769SOL    HW115140  12.209   8.110   7.228
37769SOL    HW215141  12.153   8.102   7.368
37770SOL     OW15142   7.629   3.636   9.075
37770SOL    HW115143   7.582   3.695   9.016
37770SOL    HW215144   7.719   3.638   9.044
37771SOL     OW15145   2.730   7.297  14.145
37771SOL    HW115146   2.745   7.337  14.231
37771SOL    HW215147   2.767   7.359  14.082
37772SOL     OW15148   3.225   5.524   4.091
37772SOL    HW115149   3.218   5.564   4.177
37772SOL    HW215150   3.168   5.576   4.035
37773SOL     OW15151  11.458   9.558   3.995
37773SOL    HW115152  11.422   9.562   3.906
37773SOL    HW215153  11.382   9.543   4.051
37774SOL     OW15154   9.666   8.446   3.549
37774SOL    HW115155   9.644   8.358   3.518
37774SOL    HW215156   9.739   8.473   3.493
37775SOL     OW15157   9.825  11.582   0.241
37775SOL    HW115158   9.791  11.671   0.241
37775SOL    HW215159   9.903  11.586   0.296
37776SOL     OW15160   5.935   6.671   4.985
37776SOL    HW115161   5.952   6.718   4.903
37776SOL    HW215162   5.914   6.740   5.048
37777SOL     OW15163   2.685  13.294  12.828
37777SOL    HW115164   2.630  13.253  12.762
37777SOL    HW215165   2.771  13.254  12.815
37778SOL     OW15166  13.971   9.688   0.961
37778SOL    HW115167  14.010   9.774   0.947
37778SOL    HW215168  14.039   9.626   0.935
37779SOL     OW15169  11.574  13.371   7.841
37779SOL    HW115170  11.483  13.342   7.843
37779SOL    HW215171  11.586  13.420   7.922
37780SOL     OW15172   5.880  11.919   3.989
37780SOL    HW115173   5.892  11.824   3.981
37780SOL    HW215174   5.850  11.932   4.079
37781SOL     OW15175   9.437   2.604  13.240
37781SOL    HW115176   9.434   2.514  13.273
37781SOL    HW215177   9.356   2.614  13.192
37782SOL     OW15178   9.315  14.370   4.138
37782SOL    HW115179   9.338  14.462   4.155
37782SOL    HW215180   9.223  14.373   4.111
37783SOL     OW15181  12.588   6.453   2.399
37783SOL    HW115182  12.553   6.380   2.349
37783SOL    HW215183  12.668   6.479   2.353
37784SOL     OW15184   4.926   1.783  13.195
37784SOL    HW115185   4.877   1.842  13.137
37784SOL    HW215186   4.876   1.781  13.276
37785SOL     OW15187   2.230   1.776  13.926
37785SOL    HW115188   2.221   1.843  13.858
37785SOL    HW215189   2.174   1.704  13.896
37786SOL     OW15190   9.908  11.130   8.366
37786SOL    HW115191   9.951  11.048   8.390
37786SOL    HW215192   9.973  11.198   8.384
37787SOL     OW15193   9.740  13.545   3.716
37787SOL    HW115194   9.695  13.527   3.633
37787SOL    HW215195   9.722  13.638   3.733
37788SOL     OW15196  10.840  11.797  14.216
37788SOL    HW115197  10.861  11.874  14.163
37788SOL    HW215198  10.791  11.832  14.290
37789SOL     OW15199   8.149  13.012   0.266
37789SOL    HW115200   8.119  13.103   0.260
37789SOL    HW215201   8.204  13.011   0.344
37790SOL     OW15202   8.823   3.773   2.845
37790SOL    HW115203   8.798   3.682   2.861
37790SOL    HW215204   8.785   3.822   2.918
37791SOL     OW15205  11.100  11.086  11.084
37791SOL    HW115206  11.177  11.072  11.030
37791SOL    HW215207  11.029  11.041  11.037
37792SOL     OW15208   5.908   3.234   1.908
37792SOL    HW115209   5.889   3.224   1.815
37792SOL    HW215210   5.923   3.328   1.920
37793SOL     OW15211  10.846   1.571   4.583
37793SOL    HW115212  10.817   1.482   4.563
37793SOL    HW215213  10.881   1.604   4.500
37794SOL     OW15214   8.765   2.556  10.340
37794SOL    HW115215   8.702   2.541  10.410
37794SOL    HW215216   8.780   2.651  10.341
37795SOL     OW15217   1.718  14.408   7.706
37795SOL    HW115218   1.681  14.439   7.623
37795SOL    HW215219   1.812  14.420   7.697
37796SOL     OW15220   4.347   3.933   2.172
37796SOL    HW115221   4.338   4.026   2.150
37796SOL    HW215222   4.401   3.897   2.101
37797SOL     OW15223   6.528   2.602  11.812
37797SOL    HW115224   6.493   2.514  11.795
37797SOL    HW215225   6.622   2.593  11.796
37798SOL     OW15226   0.512   2.322  13.621
37798SOL    HW115227   0.464   2.274  13.553
37798SOL    HW215228   0.464   2.302  13.701
37799SOL     OW15229   7.206  12.539  13.486
37799SOL    HW115230   7.301  12.541  13.488
37799SOL    HW215231   7.180  12.543  13.578
37800SOL     OW15232   2.289   0.538  10.252
37800SOL    HW115233   2.254   0.507  10.169
37800SOL    HW215234   2.327   0.623  10.232
37801SOL     OW15235   3.099   0.557  13.054
37801SOL    HW115236   3.148   0.502  12.993
37801SOL    HW215237   3.135   0.645  13.042
37802SOL     OW15238   6.360   6.069   2.822
37802SOL    HW115239   6.419   5.996   2.802
37802SOL    HW215240   6.392   6.103   2.905
37803SOL     OW15241  12.083   1.755  13.541
37803SOL    HW115242  12.142   1.772  13.614
37803SOL    HW215243  12.102   1.824  13.478
37804SOL     OW15244   7.694  10.583   7.131
37804SOL    HW115245   7.722  10.673   7.148
37804SOL    HW215246   7.610  10.575   7.176
37805SOL     OW15247   6.029   5.175   7.427
37805SOL    HW115248   6.010   5.152   7.336
37805SOL    HW215249   6.014   5.269   7.432
37806SOL     OW15250   2.347   4.070   7.827
37806SOL    HW115251   2.354   4.076   7.732
37806SOL    HW215252   2.433   4.093   7.860
37807SOL     OW15253   5.384   2.438   0.902
37807SOL    HW115254   5.371   2.529   0.875
37807SOL    HW215255   5.468   2.439   0.948
37808SOL     OW15256   6.298   9.474   2.941
37808SOL    HW115257   6.384   9.433   2.932
37808SOL    HW215258   6.311   9.563   2.908
37809SOL     OW15259   7.098  10.944  12.759
37809SOL    HW115260   7.133  10.857  12.781
37809SOL    HW215261   7.158  10.978  12.693
37810SOL     OW15262   1.709   1.650   7.314
37810SOL    HW115263   1.679   1.562   7.294
37810SOL    HW215264   1.701   1.698   7.231
37811SOL     OW15265   0.538   2.943  13.498
37811SOL    HW115266   0.507   2.990  13.576
37811SOL    HW215267   0.461   2.934  13.443
37812SOL     OW15268  10.483   6.602   8.762
37812SOL    HW115269  10.504   6.514   8.794
37812SOL    HW215270  10.464   6.652   8.841
37813SOL     OW15271   1.483   3.338  10.414
37813SOL    HW115272   1.489   3.243  10.424
37813SOL    HW215273   1.569   3.371  10.437
37814SOL     OW15274   4.092   6.088  14.462
37814SOL    HW115275   4.119   6.035  14.538
37814SOL    HW215276   4.140   6.170  14.472
37815SOL     OW15277   1.124  12.118   5.414
37815SOL    HW115278   1.099  12.116   5.322
37815SOL    HW215279   1.215  12.090   5.415
37816SOL     OW15280   4.193   3.864  13.796
37816SOL    HW115281   4.188   3.786  13.741
37816SOL    HW215282   4.286   3.882  13.804
37817SOL     OW15283   2.258  11.559  12.139
37817SOL    HW115284   2.242  11.489  12.076
37817SOL    HW215285   2.185  11.552  12.202
37818SOL     OW15286  14.719   6.145   9.130
37818SOL    HW115287  14.682   6.068   9.087
37818SOL    HW215288  14.813   6.136   9.118
37819SOL     OW15289   7.040  13.886  12.571
37819SOL    HW115290   7.069  13.830  12.499
37819SOL    HW215291   7.118  13.935  12.595
37820SOL     OW15292   7.783   3.033  12.625
37820SOL    HW115293   7.867   3.007  12.587
37820SOL    HW215294   7.722   3.031  12.552
37821SOL     OW15295   3.221  12.753   1.658
37821SOL    HW115296   3.224  12.845   1.631
37821SOL    HW215297   3.312  12.727   1.668
37822SOL     OW15298   8.349  11.808   3.770
37822SOL    HW115299   8.289  11.735   3.753
37822SOL    HW215300   8.310  11.882   3.724
37823SOL     OW15301  10.207   3.520   3.964
37823SOL    HW115302  10.226   3.557   3.878
37823SOL    HW215303  10.292   3.497   4.000
37824SOL     OW15304   2.215   2.004  13.784
37824SOL    HW115305   2.270   2.022  13.861
37824SOL    HW215306   2.184   2.090  13.756
37825SOL     OW15307   5.511   2.092  10.000
37825SOL    HW115308   5.487   2.067  10.089
37825SOL    HW215309   5.537   2.009   9.958
37826SOL     OW15310   8.694  13.963   3.483
37826SOL    HW115311   8.790  13.969   3.490
37826SOL    HW215312   8.674  14.010   3.402
37827SOL     OW15313  11.693   5.307   3.178
37827SOL    HW115314  11.748   5.285   3.253
37827SOL    HW215315  11.735   5.384   3.138
37828SOL     OW15316  11.203   5.098  14.567
37828SOL    HW115317  11.127   5.059  14.524
37828SOL    HW215318  11.227   5.036  14.635
37829SOL     OW15319   7.379  13.630  11.092
37829SOL    HW115320   7.448  13.690  11.121
37829SOL    HW215321   7.419  13.543  11.096
37830SOL     OW15322   2.693   0.244   7.263
37830SOL    HW115323   2.717   0.334   7.284
37830SOL    HW215324   2.773   0.194   7.281
37831SOL     OW15325   9.470   4.327   6.250
37831SOL    HW115326   9.471   4.234   6.275
37831SOL    HW215327   9.549   4.363   6.289
37832SOL     OW15328   9.321  14.627  14.856
37832SOL    HW115329   9.347  14.707  14.809
37832SOL    HW215330   9.301  14.657   0.066
37833SOL     OW15331   7.120   3.087   5.227
37833SOL    HW115332   7.137   3.152   5.295
37833SOL    HW215333   7.188   3.022   5.239
37834SOL     OW15334  11.823   8.178   9.672
37834SOL    HW115335  11.810   8.235   9.748
37834SOL    HW215336  11.860   8.098   9.709
37835SOL     OW15337   0.919  11.563   1.823
37835SOL    HW115338   1.011  11.536   1.822
37835SOL    HW215339   0.915  11.627   1.894
37836SOL     OW15340   8.022  14.436  13.408
37836SOL    HW115341   7.938  14.479  13.391
37836SOL    HW215342   7.999  14.344  13.423
37837SOL     OW15343   8.525  11.637   3.287
37837SOL    HW115344   8.451  11.587   3.252
37837SOL    HW215345   8.485  11.714   3.327
37838SOL     OW15346  14.751   5.948  10.726
37838SOL    HW115347  14.657   5.933  10.727
37838SOL    HW215348  14.783   5.905  10.806
37839SOL     OW15349   7.795  10.081   4.866
37839SOL    HW115350   7.839  10.017   4.921
37839SOL    HW215351   7.702  10.060   4.873
37840SOL     OW15352   6.821  11.080   7.264
37840SOL    HW115353   6.775  10.997   7.254
37840SOL    HW215354   6.914  11.056   7.261
37841SOL     OW15355   5.725   8.311   1.802
37841SOL    HW115356   5.651   8.263   1.765
37841SOL    HW215357   5.735   8.388   1.747
37842SOL     OW15358   2.068  13.341  10.095
37842SOL    HW115359   1.983  13.376  10.071
37842SOL    HW215360   2.128  13.415  10.087
37843SOL     OW15361  11.891   5.798   1.791
37843SOL    HW115362  11.909   5.772   1.882
37843SOL    HW215363  11.885   5.893   1.795
37844SOL     OW15364  13.904   7.399   6.418
37844SOL    HW115365  13.918   7.445   6.501
37844SOL    HW215366  13.973   7.430   6.361
37845SOL     OW15367   5.466   0.691  12.489
37845SOL    HW115368   5.487   0.668  12.399
37845SOL    HW215369   5.375   0.719  12.487
37846SOL     OW15370   5.449  12.349  13.775
37846SOL    HW115371   5.510  12.407  13.820
37846SOL    HW215372   5.411  12.295  13.845
37847SOL     OW15373   4.062  11.983  10.666
37847SOL    HW115374   3.991  12.040  10.693
37847SOL    HW215375   4.095  12.021  10.585
37848SOL     OW15376  11.734  13.587   3.518
37848SOL    HW115377  11.679  13.580   3.440
37848SOL    HW215378  11.747  13.496   3.546
37849SOL     OW15379   3.420   0.140   9.366
37849SOL    HW115380   3.503   0.145   9.319
37849SOL    HW215381   3.384   0.054   9.343
37850SOL     OW15382   6.896   7.552  10.122
37850SOL    HW115383   6.903   7.638  10.083
37850SOL    HW215384   6.854   7.567  10.207
37851SOL     OW15385   9.926  14.554  13.987
37851SOL    HW115386   9.885  14.623  13.935
37851SOL    HW215387   9.882  14.558  14.071
37852SOL     OW15388  11.584  11.567  14.314
37852SOL    HW115389  11.655  11.591  14.373
37852SOL    HW215390  11.604  11.478  14.287
37853SOL     OW15391   5.217   4.152   1.861
37853SOL    HW115392   5.304   4.130   1.893
37853SOL    HW215393   5.190   4.226   1.915
37854SOL     OW15394  10.834   4.254   2.897
37854SOL    HW115395  10.878   4.293   2.822
37854SOL    HW215396  10.746   4.294   2.897
37855SOL     OW15397  13.582   3.463   5.295
37855SOL    HW115398  13.538   3.409   5.230
37855SOL    HW215399  13.547   3.433   5.379
37856SOL     OW15400  13.850   0.385   3.336
37856SOL    HW115401  13.893   0.303   3.310
37856SOL    HW215402  13.759   0.360   3.350
37857SOL     OW15403   8.804   0.438   5.704
37857SOL    HW115404   8.899   0.436   5.712
37857SOL    HW215405   8.787   0.480   5.620
37858SOL     OW15406   5.688   3.398  10.830
37858SOL    HW115407   5.721   3.466  10.771
37858SOL    HW215408   5.767   3.360  10.870
37859SOL     OW15409  10.700   2.967  13.609
37859SOL    HW115410  10.701   3.018  13.528
37859SOL    HW215411  10.701   2.876  13.581
37860SOL     OW15412   5.584  10.178   2.896
37860SOL    HW115413   5.575  10.270   2.921
37860SOL    HW215414   5.495  10.150   2.876
37861SOL     OW15415   7.148  13.502   6.475
37861SOL    HW115416   7.244  13.499   6.474
37861SOL    HW215417   7.125  13.545   6.392
37862SOL     OW15418   5.225   2.296   8.808
37862SOL    HW115419   5.178   2.285   8.891
37862SOL    HW215420   5.310   2.332   8.833
37863SOL     OW15421   5.343  14.335   5.649
37863SOL    HW115422   5.393  14.410   5.681
37863SOL    HW215423   5.405  14.263   5.647
37864SOL     OW15424  13.531   6.655  11.319
37864SOL    HW115425  13.487   6.739  11.307
37864SOL    HW215426  13.624   6.676  11.319
37865SOL     OW15427  10.478   1.398   1.250
37865SOL    HW115428  10.462   1.304   1.261
37865SOL    HW215429  10.492   1.430   1.339
37866SOL     OW15430   2.929   5.203   8.079
37866SOL    HW115431   2.959   5.125   8.125
37866SOL    HW215432   2.834   5.195   8.076
37867SOL     OW15433   0.751  13.438   3.690
37867SOL    HW115434   0.812  13.496   3.645
37867SOL    HW215435   0.780  13.350   3.666
37868SOL     OW15436   5.720   7.665  14.033
37868SOL    HW115437   5.798   7.715  14.057
37868SOL    HW215438   5.676   7.719  13.968
37869SOL     OW15439  12.934   2.671   2.836
37869SOL    HW115440  12.995   2.606   2.870
37869SOL    HW215441  12.974   2.701   2.753
37870SOL     OW15442   8.213   9.159   2.632
37870SOL    HW115443   8.216   9.255   2.634
37870SOL    HW215444   8.123   9.138   2.656
37871SOL     OW15445   9.616   6.817  12.740
37871SOL    HW115446   9.557   6.778  12.676
37871SOL    HW215447   9.629   6.907  12.710
37872SOL     OW15448  14.681   5.724   6.753
37872SOL    HW115449  14.601   5.757   6.713
37872SOL    HW215450  14.653   5.691   6.839
37873SOL     OW15451   8.013  14.801   5.038
37873SOL    HW115452   7.942  14.750   4.999
37873SOL    HW215453   7.970  14.858   5.101
37874SOL     OW15454   7.228   1.885   0.230
37874SOL    HW115455   7.230   1.922   0.142
37874SOL    HW215456   7.247   1.792   0.217
37875SOL     OW15457   8.990  12.233   1.164
37875SOL    HW115458   9.069  12.286   1.156
37875SOL    HW215459   8.976  12.196   1.077
37876SOL     OW15460   8.149   9.915   6.930
37876SOL    HW115461   8.071   9.942   6.978
37876SOL    HW215462   8.144   9.819   6.928
37877SOL     OW15463  10.791  10.089   9.343
37877SOL    HW115464  10.741  10.045   9.412
37877SOL    HW215465  10.834  10.163   9.388
37878SOL     OW15466   9.631   7.436  13.485
37878SOL    HW115467   9.659   7.391  13.406
37878SOL    HW215468   9.569   7.502  13.455
37879SOL     OW15469   3.587   3.168  10.509
37879SOL    HW115470   3.635   3.190  10.429
37879SOL    HW215471   3.520   3.106  10.480
37880SOL     OW15472   8.785   0.283  14.089
37880SOL    HW115473   8.849   0.348  14.062
37880SOL    HW215474   8.834   0.222  14.145
37881SOL     OW15475   6.113   9.163  13.168
37881SOL    HW115476   6.112   9.094  13.234
37881SOL    HW215477   6.034   9.148  13.116
37882SOL     OW15478  14.787   2.447  10.326
37882SOL    HW115479  14.691   2.440  10.333
37882SOL    HW215480  14.816   2.461  10.416
37883SOL     OW15481   8.768   9.726   5.484
37883SOL    HW115482   8.840   9.728   5.547
37883SOL    HW215483   8.761   9.635   5.457
37884SOL     OW15484   0.678   9.648   1.836
37884SOL    HW115485   0.622   9.616   1.906
37884SOL    HW215486   0.626   9.637   1.757
37885SOL     OW15487  10.909   5.578   7.548
37885SOL    HW115488  10.996   5.549   7.523
37885SOL    HW215489  10.877   5.509   7.607
37886SOL     OW15490   0.096  10.603   6.529
37886SOL    HW115491   0.041  10.623   6.454
37886SOL    HW215492   0.061  10.521   6.564
37887SOL     OW15493  11.493   8.260  13.269
37887SOL    HW115494  11.524   8.292  13.184
37887SOL    HW215495  11.568   8.213  13.306
37888SOL     OW15496  10.870  11.903   2.646
37888SOL    HW115497  10.935  11.948   2.701
37888SOL    HW215498  10.844  11.968   2.581
37889SOL     OW15499   8.653   4.703   5.207
37889SOL    HW115500   8.671   4.724   5.116
37889SOL    HW215501   8.702   4.769   5.257
37890SOL     OW15502   8.358   8.115   3.819
37890SOL    HW115503   8.380   8.132   3.911
37890SOL    HW215504   8.270   8.077   3.823
37891SOL     OW15505  11.597   6.350   5.258
37891SOL    HW115506  11.509   6.384   5.271
37891SOL    HW215507  11.585   6.265   5.216
37892SOL     OW15508  11.639   3.685  12.190
37892SOL    HW115509  11.682   3.636  12.120
37892SOL    HW215510  11.582   3.620  12.233
37893SOL     OW15511  14.708  11.521   5.855
37893SOL    HW115512  14.734  11.539   5.945
37893SOL    HW215513  14.781  11.553   5.802
37894SOL     OW15514   7.861  11.229   6.775
37894SOL    HW115515   7.808  11.248   6.697
37894SOL    HW215516   7.926  11.166   6.744
37895SOL     OW15517   3.337  13.878   4.327
37895SOL    HW115518   3.315  13.930   4.249
37895SOL    HW215519   3.343  13.788   4.294
37896SOL     OW15520   4.454   1.181  11.743
37896SOL    HW115521   4.500   1.219  11.818
37896SOL    HW215522   4.507   1.105  11.718
37897SOL     OW15523  14.434  11.334   6.031
37897SOL    HW115524  14.430  11.393   5.956
37897SOL    HW215525  14.344  11.308   6.047
37898SOL     OW15526  12.493  11.101   6.089
37898SOL    HW115527  12.531  11.128   6.005
37898SOL    HW215528  12.517  11.171   6.149
37899SOL     OW15529   7.921  13.247   2.262
37899SOL    HW115530   7.980  13.322   2.264
37899SOL    HW215531   7.881  13.247   2.350
37900SOL     OW15532   3.173   5.016   0.706
37900SOL    HW115533   3.181   4.944   0.643
37900SOL    HW215534   3.104   4.988   0.766
37901SOL     OW15535   6.290   9.119   3.372
37901SOL    HW115536   6.286   9.023   3.375
37901SOL    HW215537   6.237   9.142   3.295
37902SOL     OW15538   8.764   1.277  14.686
37902SOL    HW115539   8.858   1.274  14.705
37902SOL    HW215540   8.723   1.247  14.767
37903SOL     OW15541   0.830   7.448   2.059
37903SOL    HW115542   0.901   7.428   2.000
37903SOL    HW215543   0.765   7.493   2.005
37904SOL     OW15544   5.071   3.004   2.237
37904SOL    HW115545   5.111   2.952   2.168
37904SOL    HW215546   5.055   2.942   2.308
37905SOL     OW15547  11.285  10.868  11.191
37905SOL    HW115548  11.326  10.909  11.116
37905SOL    HW215549  11.201  10.836  11.158
37906SOL     OW15550  11.948  10.495  13.831
37906SOL    HW115551  12.027  10.537  13.864
37906SOL    HW215552  11.877  10.556  13.853
37907SOL     OW15553  10.063   4.556  13.965
37907SOL    HW115554  10.135   4.618  13.956
37907SOL    HW215555   9.990   4.609  13.998
37908SOL     OW15556   9.396   0.122   8.785
37908SOL    HW115557   9.363   0.196   8.734
37908SOL    HW215558   9.486   0.147   8.807
37909SOL     OW15559   2.924   2.914   3.760
37909SOL    HW115560   2.853   2.953   3.810
37909SOL    HW215561   2.967   2.988   3.718
37910SOL     OW15562  12.631   2.687  11.165
37910SOL    HW115563  12.624   2.782  11.171
37910SOL    HW215564  12.706   2.671  11.109
37911SOL     OW15565   7.139   0.093   0.638
37911SOL    HW115566   7.218   0.077   0.585
37911SOL    HW215567   7.160   0.172   0.688
37912SOL     OW15568   9.618  11.709   9.967
37912SOL    HW115569   9.667  11.785   9.999
37912SOL    HW215570   9.685  11.648   9.937
37913SOL     OW15571   1.117   4.567   6.591
37913SOL    HW115572   1.168   4.557   6.511
37913SOL    HW215573   1.039   4.617   6.564
37914SOL     OW15574   2.728   9.862   0.890
37914SOL    HW115575   2.791   9.800   0.927
37914SOL    HW215576   2.764   9.884   0.804
37915SOL     OW15577   6.352  11.904   6.128
37915SOL    HW115578   6.439  11.940   6.109
37915SOL    HW215579   6.338  11.839   6.059
37916SOL     OW15580   8.237  13.621  12.602
37916SOL    HW115581   8.315  13.656  12.559
37916SOL    HW215582   8.254  13.528  12.612
37917SOL     OW15583   0.328   1.472   0.325
37917SOL    HW115584   0.366   1.424   0.251
37917SOL    HW215585   0.386   1.547   0.337
37918SOL     OW15586   3.502   8.470  14.682
37918SOL    HW115587   3.499   8.436  14.771
37918SOL    HW215588   3.417   8.447  14.644
37919SOL     OW15589   6.555   1.980   0.434
37919SOL    HW115590   6.497   2.044   0.393
37919SOL    HW215591   6.624   2.031   0.474
37920SOL     OW15592  11.091   9.273   0.250
37920SOL    HW115593  11.031   9.274   0.324
37920SOL    HW215594  11.070   9.192   0.203
37921SOL     OW15595   4.435  14.666  11.389
37921SOL    HW115596   4.421  14.755  11.424
37921SOL    HW215597   4.446  14.679  11.295
37922SOL     OW15598   3.037   4.481  13.759
37922SOL    HW115599   3.053   4.574  13.777
37922SOL    HW215600   3.050   4.439  13.844
37923SOL     OW15601  13.138   5.028   7.437
37923SOL    HW115602  13.074   5.082   7.390
37923SOL    HW215603  13.091   4.948   7.459
37924SOL     OW15604   7.523   5.128   6.816
37924SOL    HW115605   7.618   5.131   6.832
37924SOL    HW215606   7.496   5.043   6.851
37925SOL     OW15607   2.299  11.549   5.491
37925SOL    HW115608   2.257  11.632   5.510
37925SOL    HW215609   2.372  11.544   5.553
37926SOL     OW15610  11.859   9.186   4.962
37926SOL    HW115611  11.918   9.260   4.978
37926SOL    HW215612  11.902   9.111   5.002
37927SOL     OW15613  14.117   7.754   5.829
37927SOL    HW115614  14.133   7.848   5.839
37927SOL    HW215615  14.031   7.749   5.787
37928SOL     OW15616  11.972   6.329   6.514
37928SOL    HW115617  11.894   6.277   6.497
37928SOL    HW215618  11.943   6.398   6.574
37929SOL     OW15619   6.989   3.727   7.340
37929SOL    HW115620   6.932   3.658   7.308
37929SOL    HW215621   6.941   3.768   7.411
37930SOL     OW15622   7.304   6.130   6.505
37930SOL    HW115623   7.300   6.191   6.431
37930SOL    HW215624   7.303   6.043   6.465
37931SOL     OW15625   2.845   0.955  11.756
37931SOL    HW115626   2.887   0.887  11.702
37931SOL    HW215627   2.796   0.905  11.821
37932SOL     OW15628   0.644  14.312   4.210
37932SOL    HW115629   0.706  14.327   4.281
37932SOL    HW215630   0.697  14.313   4.131
37933SOL     OW15631   7.262  10.643   5.601
37933SOL    HW115632   7.327  10.614   5.537
37933SOL    HW215633   7.200  10.571   5.607
37934SOL     OW15634  10.684   7.937   9.001
37934SOL    HW115635  10.774   7.921   9.030
37934SOL    HW215636  10.633   7.867   9.041
37935SOL     OW15637  10.141  11.574  12.810
37935SOL    HW115638  10.148  11.574  12.906
37935SOL    HW215639  10.231  11.565  12.780
37936SOL     OW15640   4.716   8.634   4.203
37936SOL    HW115641   4.774   8.621   4.129
37936SOL    HW215642   4.763   8.694   4.260
37937SOL     OW15643   6.872   2.111   2.934
37937SOL    HW115644   6.869   2.079   3.024
37937SOL    HW215645   6.964   2.132   2.919
37938SOL     OW15646  10.249   6.249  13.163
37938SOL    HW115647  10.156   6.240  13.182
37938SOL    HW215648  10.274   6.333  13.200
37939SOL     OW15649  12.692   5.617  10.205
37939SOL    HW115650  12.660   5.642  10.292
37939SOL    HW215651  12.757   5.549  10.222
37940SOL     OW15652   1.556   4.158  12.760
37940SOL    HW115653   1.574   4.143  12.853
37940SOL    HW215654   1.584   4.248  12.744
37941SOL     OW15655   5.755   1.458   5.118
37941SOL    HW115656   5.815   1.529   5.096
37941SOL    HW215657   5.681   1.469   5.058
37942SOL     OW15658   4.610   7.240   5.796
37942SOL    HW115659   4.678   7.295   5.836
37942SOL    HW215660   4.608   7.161   5.850
37943SOL     OW15661   5.767  10.383  11.164
37943SOL    HW115662   5.729  10.433  11.093
37943SOL    HW215663   5.731  10.295  11.153
37944SOL     OW15664   5.283  11.089  10.872
37944SOL    HW115665   5.241  11.094  10.786
37944SOL    HW215666   5.324  11.175  10.883
37945SOL     OW15667   6.096   4.067   6.151
37945SOL    HW115668   6.076   4.153   6.188
37945SOL    HW215669   6.123   4.015   6.227
37946SOL     OW15670   2.806   1.666  13.918
37946SOL    HW115671   2.739   1.684  13.984
37946SOL    HW215672   2.807   1.745  13.863
37947SOL     OW15673   9.054  14.408   0.860
37947SOL    HW115674   9.126  14.370   0.810
37947SOL    HW215675   9.012  14.332   0.902
37948SOL     OW15676   1.436   8.721   7.475
37948SOL    HW115677   1.484   8.653   7.523
37948SOL    HW215678   1.504   8.777   7.438
37949SOL     OW15679   8.084  12.180   3.891
37949SOL    HW115680   8.133  12.230   3.956
37949SOL    HW215681   8.118  12.090   3.898
37950SOL     OW15682   0.978  10.801   4.640
37950SOL    HW115683   0.887  10.828   4.627
37950SOL    HW215684   1.028  10.850   4.575
37951SOL     OW15685   6.283   8.949   2.601
37951SOL    HW115686   6.250   8.983   2.685
37951SOL    HW215687   6.302   9.028   2.550
37952SOL     OW15688  10.333  12.452   3.744
37952SOL    HW115689  10.401  12.518   3.727
37952SOL    HW215690  10.266  12.499   3.793
37953SOL     OW15691   1.949   8.963   3.473
37953SOL    HW115692   1.988   8.887   3.432
37953SOL    HW215693   1.957   8.946   3.567
37954SOL     OW15694   3.435   0.472   3.215
37954SOL    HW115695   3.462   0.483   3.124
37954SOL    HW215696   3.473   0.547   3.261
37955SOL     OW15697   0.444   1.896   1.287
37955SOL    HW115698   0.356   1.917   1.255
37955SOL    HW215699   0.503   1.934   1.221
37956SOL     OW15700   1.533   0.564   4.692
37956SOL    HW115701   1.621   0.571   4.730
37956SOL    HW215702   1.513   0.470   4.695
37957SOL     OW15703  14.372   2.559   4.276
37957SOL    HW115704  14.399   2.649   4.295
37957SOL    HW215705  14.302   2.569   4.212
37958SOL     OW15706   5.993   6.071   5.310
37958SOL    HW115707   5.959   6.160   5.299
37958SOL    HW215708   6.038   6.073   5.395
37959SOL     OW15709   9.379   6.743   1.564
37959SOL    HW115710   9.472   6.735   1.543
37959SOL    HW215711   9.378   6.775   1.654
37960SOL     OW15712   8.096   6.553   4.777
37960SOL    HW115713   8.166   6.490   4.789
37960SOL    HW215714   8.055   6.560   4.863
37961SOL     OW15715   3.912   0.977  13.150
37961SOL    HW115716   3.951   1.064  13.162
37961SOL    HW215717   3.820   0.995  13.133
37962SOL     OW15718   1.747   6.113   4.253
37962SOL    HW115719   1.808   6.172   4.298
37962SOL    HW215720   1.671   6.108   4.311
37963SOL     OW15721   2.489   9.777   8.255
37963SOL    HW115722   2.538   9.698   8.234
37963SOL    HW215723   2.405   9.745   8.289
37964SOL     OW15724   3.223   7.592   6.215
37964SOL    HW115725   3.215   7.682   6.247
37964SOL    HW215726   3.189   7.596   6.126
37965SOL     OW15727   4.764   8.682   7.492
37965SOL    HW115728   4.843   8.655   7.539
37965SOL    HW215729   4.782   8.771   7.463
37966SOL     OW15730  11.326   3.560   5.844
37966SOL    HW115731  11.351   3.506   5.918
37966SOL    HW215732  11.370   3.644   5.859
37967SOL     OW15733   6.478  10.141  11.044
37967SOL    HW115734   6.516  10.071  10.990
37967SOL    HW215735   6.391  10.107  11.068
37968SOL     OW15736   7.730   1.941   4.252
37968SOL    HW115737   7.822   1.960   4.238
37968SOL    HW215738   7.683   2.006   4.199
37969SOL     OW15739   6.321  14.019  13.964
37969SOL    HW115740   6.391  14.084  13.961
37969SOL    HW215741   6.300  14.003  13.872
37970SOL     OW15742   3.559   7.959   6.577
37970SOL    HW115743   3.601   8.014   6.643
37970SOL    HW215744   3.610   7.974   6.498
37971SOL     OW15745   7.372   6.161  13.261
37971SOL    HW115746   7.309   6.196  13.198
37971SOL    HW215747   7.407   6.083  13.218
37972SOL     OW15748   7.708   6.627   2.039
37972SOL    HW115749   7.735   6.558   1.979
37972SOL    HW215750   7.788   6.676   2.057
37973SOL     OW15751   6.068   7.909   8.193
37973SOL    HW115752   6.100   7.882   8.107
37973SOL    HW215753   6.061   8.005   8.187
37974SOL     OW15754   9.582  11.093   1.120
37974SOL    HW115755   9.659  11.066   1.071
37974SOL    HW215756   9.609  11.089   1.212
37975SOL     OW15757   1.220   8.114   8.936
37975SOL    HW115758   1.174   8.173   8.997
37975SOL    HW215759   1.165   8.113   8.858
37976SOL     OW15760   9.669   5.999  11.164
37976SOL    HW115761   9.742   6.061  11.162
37976SOL    HW215762   9.635   6.006  11.254
37977SOL     OW15763  13.784   2.967  12.669
37977SOL    HW115764  13.874   2.933  12.665
37977SOL    HW215765  13.785   3.029  12.742
37978SOL     OW15766   6.607   8.842   8.780
37978SOL    HW115767   6.533   8.797   8.821
37978SOL    HW215768   6.665   8.772   8.752
37979SOL     OW15769  13.226   7.634   1.170
37979SOL    HW115770  13.259   7.547   1.147
37979SOL    HW215771  13.301   7.677   1.213
37980SOL     OW15772  11.429  12.341  12.259
37980SOL    HW115773  11.498  12.368  12.321
37980SOL    HW215774  11.476  12.298  12.188
37981SOL     OW15775  13.517  10.236   4.041
37981SOL    HW115776  13.427  10.253   4.016
37981SOL    HW215777  13.563  10.222   3.958
37982SOL     OW15778  13.613   6.431   5.353
37982SOL    HW115779  13.521   6.406   5.341
37982SOL    HW215780  13.628   6.422   5.447
37983SOL     OW15781   6.835   8.913   4.167
37983SOL    HW115782   6.907   8.855   4.141
37983SOL    HW215783   6.757   8.858   4.159
37984SOL     OW15784   3.750   1.557   3.421
37984SOL    HW115785   3.688   1.517   3.482
37984SOL    HW215786   3.695   1.609   3.362
37985SOL     OW15787   9.809   0.099  11.999
37985SOL    HW115788   9.715   0.078  12.002
37985SOL    HW215789   9.811   0.194  11.988
37986SOL     OW15790   1.121   4.197   0.223
37986SOL    HW115791   1.148   4.268   0.166
37986SOL    HW215792   1.061   4.238   0.286
37987SOL     OW15793   7.473  10.775  12.425
37987SOL    HW115794   7.520  10.845  12.381
37987SOL    HW215795   7.542  10.717  12.457
37988SOL     OW15796   2.314   4.105   7.310
37988SOL    HW115797   2.245   4.085   7.247
37988SOL    HW215798   2.322   4.201   7.307
37989SOL     OW15799   0.757   7.569   4.130
37989SOL    HW115800   0.848   7.548   4.110
37989SOL    HW215801   0.730   7.503   4.194
37990SOL     OW15802  11.051  12.471  11.509
37990SOL    HW115803  11.001  12.515  11.440
37990SOL    HW215804  11.131  12.441  11.466
37991SOL     OW15805  13.956   0.456   6.718
37991SOL    HW115806  13.944   0.545   6.751
37991SOL    HW215807  13.934   0.400   6.793
37992SOL     OW15808   2.971   7.346  14.684
37992SOL    HW115809   2.882   7.372  14.710
37992SOL    HW215810   2.957   7.293  14.605
37993SOL     OW15811   3.399   5.281  13.394
37993SOL    HW115812   3.428   5.347  13.332
37993SOL    HW215813   3.357   5.214  13.340
37994SOL     OW15814   2.790   7.439   0.395
37994SOL    HW115815   2.805   7.441   0.300
37994SOL    HW215816   2.838   7.362   0.425
37995SOL     OW15817   6.537   9.996   3.122
37995SOL    HW115818   6.623   9.954   3.124
37995SOL    HW215819   6.514  10.010   3.214
37996SOL     OW15820   0.263   4.990   4.032
37996SOL    HW115821   0.334   5.003   3.970
37996SOL    HW215822   0.281   5.050   4.103
37997SOL     OW15823   4.900  14.104  14.679
37997SOL    HW115824   4.920  14.011  14.674
37997SOL    HW215825   4.923  14.138  14.592
37998SOL     OW15826  11.915   2.393   9.912
37998SOL    HW115827  11.936   2.462   9.974
37998SOL    HW215828  11.962   2.418   9.832
37999SOL     OW15829  14.567   6.968   2.444
37999SOL    HW115830  14.554   6.877   2.417
37999SOL    HW215831  14.654   6.991   2.412
38000SOL     OW15832   6.064   6.195   3.529
38000SOL    HW115833   6.026   6.203   3.617
38000SOL    HW215834   5.989   6.205   3.470
38001SOL     OW15835   8.514   0.873   7.403
38001SOL    HW115836   8.465   0.928   7.463
38001SOL    HW215837   8.450   0.812   7.368
38002SOL     OW15838  14.825   7.813   4.631
38002SOL    HW115839  14.844   7.846   4.543
38002SOL    HW215840  14.863   7.878   4.690
38003SOL     OW15841  10.449  11.574   6.388
38003SOL    HW115842  10.423  11.482   6.394
38003SOL    HW215843  10.543  11.570   6.370
38004SOL     OW15844   7.041   8.594  14.780
38004SOL    HW115845   7.056   8.571  14.872
38004SOL    HW215846   7.038   8.510  14.735
38005SOL     OW15847   7.264  14.125  14.627
38005SOL    HW115848   7.215  14.201  14.595
38005SOL    HW215849   7.251  14.058  14.560
38006SOL     OW15850   0.552   1.678   1.610
38006SOL    HW115851   0.601   1.668   1.692
38006SOL    HW215852   0.467   1.637   1.628
38007SOL     OW15853   3.167   0.026   1.563
38007SOL    HW115854   3.215   0.096   1.518
38007SOL    HW215855   3.122  14.858   1.493
38008SOL     OW15856   6.228   2.381   6.882
38008SOL    HW115857   6.172   2.409   6.955
38008SOL    HW215858   6.269   2.462   6.851
38009SOL     OW15859   5.876   4.707   8.116
38009SOL    HW115860   5.859   4.733   8.025
38009SOL    HW215861   5.796   4.731   8.163
38010SOL     OW15862   0.781   9.485  13.053
38010SOL    HW115863   0.860   9.536  13.039
38010SOL    HW215864   0.812   9.400  13.085
38011SOL     OW15865  10.895  12.000   9.742
38011SOL    HW115866  10.807  12.001   9.779
38011SOL    HW215867  10.887  11.949   9.662
38012SOL     OW15868   1.978   6.106   4.047
38012SOL    HW115869   1.890   6.070   4.063
38012SOL    HW215870   1.975   6.193   4.087
38013SOL     OW15871   5.624   9.537   1.372
38013SOL    HW115872   5.572   9.461   1.344
38013SOL    HW215873   5.712   9.518   1.338
38014SOL     OW15874   1.374   0.118  11.150
38014SOL    HW115875   1.467   0.095  11.144
38014SOL    HW215876   1.369   0.181  11.222
38015SOL     OW15877   8.819   5.780  11.331
38015SOL    HW115878   8.810   5.725  11.252
38015SOL    HW215879   8.905   5.757  11.366
38016SOL     OW15880   7.703  14.364   6.987
38016SOL    HW115881   7.720  14.407   7.071
38016SOL    HW215882   7.669  14.278   7.011
38017SOL     OW15883   1.978  12.659   8.939
38017SOL    HW115884   1.930  12.578   8.957
38017SOL    HW215885   2.048  12.632   8.880
38018SOL     OW15886   6.265  10.386   0.279
38018SOL    HW115887   6.249  10.480   0.279
38018SOL    HW215888   6.330  10.373   0.210
38019SOL     OW15889  11.887   6.462   1.602
38019SOL    HW115890  11.870   6.556   1.612
38019SOL    HW215891  11.836   6.421   1.672
38020SOL     OW15892   6.154   3.338  13.140
38020SOL    HW115893   6.217   3.268  13.158
38020SOL    HW215894   6.147   3.386  13.223
38021SOL     OW15895   6.907   9.690   5.317
38021SOL    HW115896   6.916   9.759   5.251
38021SOL    HW215897   6.975   9.708   5.381
38022SOL     OW15898  10.975  12.203   9.370
38022SOL    HW115899  11.031  12.275   9.342
38022SOL    HW215900  11.031  12.125   9.362
38023SOL     OW15901   1.241   1.739   4.387
38023SOL    HW115902   1.151   1.746   4.417
38023SOL    HW215903   1.281   1.674   4.445
38024SOL     OW15904   5.648  11.780   4.553
38024SOL    HW115905   5.557  11.755   4.538
38024SOL    HW215906   5.643  11.864   4.598
38025SOL     OW15907  14.652  11.630  14.095
38025SOL    HW115908  14.663  11.677  14.178
38025SOL    HW215909  14.571  11.580  14.107
38026SOL     OW15910   8.752   5.276   6.955
38026SOL    HW115911   8.764   5.363   6.993
38026SOL    HW215912   8.668   5.281   6.910
38027SOL     OW15913  13.443  10.535   4.439
38027SOL    HW115914  13.492  10.453   4.438
38027SOL    HW215915  13.510  10.604   4.436
38028SOL     OW15916   3.852  14.715   3.869
38028SOL    HW115917   3.780  14.731   3.929
38028SOL    HW215918   3.929  14.750   3.914
38029SOL     OW15919   6.030   7.452  12.452
38029SOL    HW115920   6.076   7.423  12.531
38029SOL    HW215921   6.070   7.400  12.381
38030SOL     OW15922   0.177   8.188   1.162
38030SOL    HW115923   0.214   8.111   1.118
38030SOL    HW215924   0.251   8.226   1.209
38031SOL     OW15925  10.245   8.024  14.646
38031SOL    HW115926  10.224   7.941  14.603
38031SOL    HW215927  10.289   8.076  14.579
38032SOL     OW15928   9.775   3.688   6.993
38032SOL    HW115929   9.785   3.680   6.898
38032SOL    HW215930   9.827   3.765   7.016
38033SOL     OW15931   9.497   8.656   7.618
38033SOL    HW115932   9.470   8.652   7.526
38033SOL    HW215933   9.491   8.565   7.648
38034SOL     OW15934   2.617  13.125  13.567
38034SOL    HW115935   2.597  13.147  13.658
38034SOL    HW215936   2.532  13.108  13.527
38035SOL     OW15937  11.337  11.944   9.543
38035SOL    HW115938  11.289  11.998   9.480
38035SOL    HW215939  11.409  11.907   9.492
38036SOL     OW15940   7.161   5.606   8.109
38036SOL    HW115941   7.208   5.541   8.056
38036SOL    HW215942   7.204   5.602   8.195
38037SOL     OW15943  14.296   8.643  10.466
38037SOL    HW115944  14.307   8.615  10.375
38037SOL    HW215945  14.285   8.738  10.461
38038SOL     OW15946   8.543   6.117   2.436
38038SOL    HW115947   8.583   6.144   2.354
38038SOL    HW215948   8.461   6.075   2.410
38039SOL     OW15949   6.053  11.513   0.933
38039SOL    HW115950   6.003  11.593   0.944
38039SOL    HW215951   5.991  11.443   0.955
38040SOL     OW15952   5.923   3.479  13.761
38040SOL    HW115953   5.873   3.485  13.842
38040SOL    HW215954   6.013   3.463  13.791
38041SOL     OW15955  12.362   6.167   6.992
38041SOL    HW115956  12.435   6.152   6.933
38041SOL    HW215957  12.315   6.241   6.955
38042SOL     OW15958  10.609   8.654   9.790
38042SOL    HW115959  10.528   8.675   9.744
38042SOL    HW215960  10.582   8.595   9.860
38043SOL     OW15961  11.906   0.351   1.606
38043SOL    HW115962  11.858   0.269   1.605
38043SOL    HW215963  11.970   0.343   1.536
38044SOL     OW15964   7.442   0.893   8.774
38044SOL    HW115965   7.482   0.883   8.860
38044SOL    HW215966   7.403   0.981   8.776
38045SOL     OW15967   1.323   5.395   1.155
38045SOL    HW115968   1.417   5.383   1.165
38045SOL    HW215969   1.301   5.348   1.074
38046SOL     OW15970   4.924   7.187   5.966
38046SOL    HW115971   4.853   7.139   6.008
38046SOL    HW215972   4.993   7.122   5.952
38047SOL     OW15973  13.013   3.847  13.050
38047SOL    HW115974  12.920   3.863  13.069
38047SOL    HW215975  13.056   3.930  13.068
38048SOL     OW15976  10.128   5.508   4.335
38048SOL    HW115977  10.151   5.416   4.318
38048SOL    HW215978  10.205   5.544   4.380
38049SOL     OW15979   9.073   9.627   6.437
38049SOL    HW115980   8.988   9.589   6.417
38049SOL    HW215981   9.069   9.648   6.531
38050SOL     OW15982  10.570   3.946  14.848
38050SOL    HW115983  10.512   3.917  14.777
38050SOL    HW215984  10.511   3.977   0.038
38051SOL     OW15985   1.676   0.946  12.462
38051SOL    HW115986   1.748   0.913  12.516
38051SOL    HW215987   1.605   0.962  12.525
38052SOL     OW15988  10.959   1.537   7.170
38052SOL    HW115989  10.972   1.589   7.091
38052SOL    HW215990  10.966   1.599   7.242
38053SOL     OW15991   5.110  10.674   3.345
38053SOL    HW115992   5.194  10.633   3.326
38053SOL    HW215993   5.119  10.763   3.311
38054SOL     OW15994   0.077   0.454   7.299
38054SOL    HW115995   0.086   0.466   7.204
38054SOL    HW215996   0.017   0.523   7.326
38055SOL     OW15997  14.829  12.318   1.688
38055SOL    HW115998  14.809  12.316   1.781
38055SOL    HW215999   0.021  12.254   1.677
38056SOL     OW16000  12.008  11.484   6.205
38056SOL    HW116001  12.070  11.429   6.157
38056SOL    HW216002  12.059  11.561   6.230
38057SOL     OW16003   2.318   0.562   2.211
38057SOL    HW116004   2.286   0.514   2.134
38057SOL    HW216005   2.253   0.631   2.225
38058SOL     OW16006  10.284   9.814  11.219
38058SOL    HW116007  10.260   9.866  11.143
38058SOL    HW216008  10.242   9.729  11.204
38059SOL     OW16009   3.313   3.155  12.992
38059SOL    HW116010   3.232   3.187  13.032
38059SOL    HW216011   3.376   3.226  13.004
38060SOL     OW16012   3.773   2.128  10.791
38060SOL    HW116013   3.729   2.052  10.751
38060SOL    HW216014   3.826   2.090  10.861
38061SOL     OW16015   8.925   9.656   5.692
38061SOL    HW116016   8.994   9.594   5.716
38061SOL    HW216017   8.862   9.649   5.764
38062SOL     OW16018   5.545   7.729   3.008
38062SOL    HW116019   5.519   7.718   3.099
38062SOL    HW216020   5.473   7.777   2.968
38063SOL     OW16021   9.135  11.213   2.482
38063SOL    HW116022   9.060  11.272   2.479
38063SOL    HW216023   9.100  11.131   2.518
38064SOL     OW16024   9.623  11.620   4.275
38064SOL    HW116025   9.691  11.553   4.276
38064SOL    HW216026   9.639  11.671   4.355
38065SOL     OW16027   7.892   5.352   3.274
38065SOL    HW116028   7.926   5.442   3.271
38065SOL    HW216029   7.965   5.300   3.308
38066SOL     OW16030  11.977  10.654   7.207
38066SOL    HW116031  11.941  10.588   7.147
38066SOL    HW216032  11.904  10.672   7.267
38067SOL     OW16033   8.268   1.462  12.970
38067SOL    HW116034   8.298   1.553  12.970
38067SOL    HW216035   8.187   1.463  12.919
38068SOL     OW16036  11.619   0.935   1.735
38068SOL    HW116037  11.528   0.916   1.710
38068SOL    HW216038  11.668   0.857   1.709
38069SOL     OW16039   5.200   1.927   7.711
38069SOL    HW116040   5.150   1.894   7.636
38069SOL    HW216041   5.237   1.848   7.751
38070SOL     OW16042  12.614   9.811  13.944
38070SOL    HW116043  12.666   9.788  13.867
38070SOL    HW216044  12.524   9.816  13.912
38071SOL     OW16045   0.616   1.561  14.243
38071SOL    HW116046   0.630   1.490  14.180
38071SOL    HW216047   0.698   1.611  14.241
38072SOL     OW16048   4.757   4.129  12.101
38072SOL    HW116049   4.838   4.161  12.060
38072SOL    HW216050   4.731   4.055  12.047
38073SOL     OW16051   6.050   0.357  11.517
38073SOL    HW116052   6.056   0.448  11.545
38073SOL    HW216053   6.115   0.349  11.447
38074SOL     OW16054  14.695   6.503   0.683
38074SOL    HW116055  14.716   6.588   0.644
38074SOL    HW216056  14.779   6.457   0.688
38075SOL     OW16057   2.188   2.709  12.133
38075SOL    HW116058   2.099   2.679  12.151
38075SOL    HW216059   2.187   2.736  12.042
38076SOL     OW16060   2.025   8.363   7.323
38076SOL    HW116061   2.063   8.425   7.261
38076SOL    HW216062   1.962   8.416   7.373
38077SOL     OW16063   0.935   0.947   6.015
38077SOL    HW116064   0.922   1.032   5.973
38077SOL    HW216065   0.873   0.889   5.971
38078SOL     OW16066   4.557  11.969   9.183
38078SOL    HW116067   4.632  11.935   9.135
38078SOL    HW216068   4.562  12.064   9.171
38079SOL     OW16069  14.670  13.924   6.064
38079SOL    HW116070  14.750  13.916   6.117
38079SOL    HW216071  14.693  13.885   5.980
38080SOL     OW16072   1.872  10.626   5.454
38080SOL    HW116073   1.907  10.662   5.536
38080SOL    HW216074   1.947  10.625   5.395
38081SOL     OW16075  12.507  11.000   8.490
38081SOL    HW116076  12.526  10.908   8.470
38081SOL    HW216077  12.488  11.000   8.584
38082SOL     OW16078  10.980   4.542  14.355
38082SOL    HW116079  10.934   4.624  14.369
38082SOL    HW216080  11.071   4.562  14.377
38083SOL     OW16081  14.432   7.433   9.514
38083SOL    HW116082  14.400   7.407   9.427
38083SOL    HW216083  14.526   7.443   9.503
38084SOL     OW16084  10.348  14.444   6.171
38084SOL    HW116085  10.331  14.417   6.081
38084SOL    HW216086  10.275  14.503   6.193
38085SOL     OW16087   0.334  14.767   7.347
38085SOL    HW116088   0.330  14.863   7.341
38085SOL    HW216089   0.360  14.739   7.260
38086SOL     OW16090   3.412   1.307   2.900
38086SOL    HW116091   3.356   1.383   2.883
38086SOL    HW216092   3.500   1.343   2.904
38087SOL     OW16093   5.258   8.297   4.691
38087SOL    HW116094   5.259   8.344   4.775
38087SOL    HW216095   5.219   8.359   4.630
38088SOL     OW16096  12.039   9.050   4.022
38088SOL    HW116097  12.040   9.135   3.978
38088SOL    HW216098  11.964   9.005   3.986
38089SOL     OW16099   2.092   1.521  11.912
38089SOL    HW116100   2.129   1.559  11.992
38089SOL    HW216101   2.021   1.580  11.888
38090SOL     OW16102   4.130   7.896   0.591
38090SOL    HW116103   4.077   7.906   0.670
38090SOL    HW216104   4.084   7.829   0.540
38091SOL     OW16105  12.539  14.810  12.298
38091SOL    HW116106  12.575  14.727  12.332
38091SOL    HW216107  12.447  14.791  12.281
38092SOL     OW16108   8.019   7.620   3.149
38092SOL    HW116109   8.092   7.570   3.113
38092SOL    HW216110   8.014   7.698   3.094
38093SOL     OW16111   5.938   7.831  14.011
38093SOL    HW116112   5.998   7.788  13.950
38093SOL    HW216113   5.962   7.923  14.007
38094SOL     OW16114  11.725  11.819  11.170
38094SOL    HW116115  11.649  11.761  11.160
38094SOL    HW216116  11.799  11.760  11.183
38095SOL     OW16117  12.501   0.596   7.603
38095SOL    HW116118  12.448   0.597   7.683
38095SOL    HW216119  12.466   0.669   7.552
38096SOL     OW16120   1.946  13.550  11.512
38096SOL    HW116121   1.920  13.476  11.457
38096SOL    HW216122   1.870  13.565  11.569
38097SOL     OW16123   5.679   5.378   7.806
38097SOL    HW116124   5.771   5.363   7.787
38097SOL    HW216125   5.666   5.346   7.895
38098SOL     OW16126   3.778   1.718  14.317
38098SOL    HW116127   3.822   1.780  14.258
38098SOL    HW216128   3.709   1.769  14.359
38099SOL     OW16129   0.831   3.629   8.900
38099SOL    HW116130   0.810   3.623   8.993
38099SOL    HW216131   0.746   3.621   8.856
38100SOL     OW16132  13.882   2.402  10.561
38100SOL    HW116133  13.820   2.358  10.503
38100SOL    HW216134  13.861   2.370  10.648
38101SOL     OW16135   4.865   3.935  14.313
38101SOL    HW116136   4.876   3.871  14.242
38101SOL    HW216137   4.779   3.974  14.297
38102SOL     OW16138  10.001   5.426   5.743
38102SOL    HW116139   9.937   5.358   5.763
38102SOL    HW216140   9.983   5.450   5.652
38103SOL     OW16141   6.291   1.576   8.798
38103SOL    HW116142   6.331   1.547   8.880
38103SOL    HW216143   6.204   1.536   8.799
38104SOL     OW16144   3.752  14.859   2.346
38104SOL    HW116145   3.798  14.815   2.417
38104SOL    HW216146   3.697   0.045   2.389
38105SOL     OW16147  11.772  14.011   4.327
38105SOL    HW116148  11.756  13.916   4.331
38105SOL    HW216149  11.684  14.049   4.318
38106SOL     OW16150   6.258   9.388   2.302
38106SOL    HW116151   6.263   9.484   2.301
38106SOL    HW216152   6.169   9.369   2.330
38107SOL     OW16153  14.145   9.281   6.416
38107SOL    HW116154  14.183   9.321   6.495
38107SOL    HW216155  14.216   9.283   6.352
38108SOL     OW16156  14.063  11.140  13.417
38108SOL    HW116157  14.049  11.137  13.322
38108SOL    HW216158  14.156  11.122  13.429
38109SOL     OW16159   8.999  12.437   3.747
38109SOL    HW116160   9.007  12.532   3.743
38109SOL    HW216161   9.068  12.409   3.806
38110SOL     OW16162  12.440  11.001  10.274
38110SOL    HW116163  12.458  11.093  10.294
38110SOL    HW216164  12.451  10.994  10.179
38111SOL     OW16165   5.348   6.183   8.328
38111SOL    HW116166   5.290   6.179   8.404
38111SOL    HW216167   5.338   6.273   8.295
38112SOL     OW16168  11.088   6.160  14.002
38112SOL    HW116169  11.096   6.215  14.080
38112SOL    HW216170  11.020   6.097  14.024
38113SOL     OW16171   7.145  11.648   1.515
38113SOL    HW116172   7.075  11.707   1.544
38113SOL    HW216173   7.119  11.622   1.426
38114SOL     OW16174   1.490   5.367   7.313
38114SOL    HW116175   1.490   5.415   7.396
38114SOL    HW216176   1.537   5.425   7.252
38115SOL     OW16177  10.003   0.460   4.516
38115SOL    HW116178   9.983   0.542   4.471
38115SOL    HW216179  10.091   0.437   4.485
38116SOL     OW16180   9.907   8.421   2.048
38116SOL    HW116181   9.994   8.451   2.073
38116SOL    HW216182   9.894   8.340   2.097
38117SOL     OW16183  13.535   8.192   0.115
38117SOL    HW116184  13.625   8.189   0.086
38117SOL    HW216185  13.521   8.108   0.160
38118SOL     OW16186  11.513   7.694   0.202
38118SOL    HW116187  11.464   7.633   0.147
38118SOL    HW216188  11.563   7.638   0.261
38119SOL     OW16189   5.450   8.637   3.125
38119SOL    HW116190   5.398   8.596   3.194
38119SOL    HW216191   5.537   8.647   3.164
38120SOL     OW16192   1.135   0.759  12.650
38120SOL    HW116193   1.165   0.832  12.703
38120SOL    HW216194   1.188   0.685  12.678
38121SOL     OW16195   5.327   9.730   7.303
38121SOL    HW116196   5.260   9.720   7.236
38121SOL    HW216197   5.286   9.700   7.383
38122SOL     OW16198   4.160   9.977   8.530
38122SOL    HW116199   4.067   9.992   8.547
38122SOL    HW216200   4.177   9.889   8.564
38123SOL     OW16201   6.979   0.481   0.316
38123SOL    HW116202   6.886   0.498   0.298
38123SOL    HW216203   6.980   0.389   0.345
38124SOL     OW16204   8.624   5.490   1.880
38124SOL    HW116205   8.605   5.421   1.943
38124SOL    HW216206   8.556   5.480   1.813
38125SOL     OW16207   5.356  12.190  13.993
38125SOL    HW116208   5.373  12.229  14.079
38125SOL    HW216209   5.440  12.152  13.967
38126SOL     OW16210   7.997   2.378   1.495
38126SOL    HW116211   8.068   2.353   1.435
38126SOL    HW216212   8.038   2.377   1.581
38127SOL     OW16213   3.012   9.526   9.177
38127SOL    HW116214   2.946   9.539   9.245
38127SOL    HW216215   3.079   9.591   9.196
38128SOL     OW16216   3.670  10.874  11.569
38128SOL    HW116217   3.719  10.945  11.528
38128SOL    HW216218   3.582  10.879  11.531
38129SOL     OW16219   3.828  14.859   4.659
38129SOL    HW116220   3.755   0.040   4.675
38129SOL    HW216221   3.787  14.774   4.642
38130SOL     OW16222  10.695   7.071  13.999
38130SOL    HW116223  10.624   7.078  13.935
38130SOL    HW216224  10.652   7.069  14.084
38131SOL     OW16225   3.743  11.143  12.827
38131SOL    HW116226   3.699  11.221  12.794
38131SOL    HW216227   3.726  11.075  12.762
38132SOL     OW16228   7.787  13.067   7.349
38132SOL    HW116229   7.836  13.134   7.396
38132SOL    HW216230   7.841  13.046   7.273
38133SOL     OW16231   2.615  10.191   1.272
38133SOL    HW116232   2.525  10.167   1.297
38133SOL    HW216233   2.661  10.107   1.268
38134SOL     OW16234   3.148   7.114   7.048
38134SOL    HW116235   3.124   7.107   7.140
38134SOL    HW216236   3.124   7.204   7.024
38135SOL     OW16237   9.508   6.475   2.497
38135SOL    HW116238   9.540   6.536   2.430
38135SOL    HW216239   9.560   6.396   2.483
38136SOL     OW16240  12.745  10.620  14.589
38136SOL    HW116241  12.840  10.620  14.579
38136SOL    HW216242  12.730  10.617  14.683
38137SOL     OW16243   5.043   2.278   3.602
38137SOL    HW116244   4.957   2.295   3.640
38137SOL    HW216245   5.082   2.364   3.591
38138SOL     OW16246   8.022   4.388  11.204
38138SOL    HW116247   8.087   4.433  11.149
38138SOL    HW216248   8.015   4.443  11.282
38139SOL     OW16249   3.975  13.986   7.605
38139SOL    HW116250   3.896  13.936   7.587
38139SOL    HW216251   3.947  14.078   7.601
38140SOL     OW16252   7.265  11.230   2.214
38140SOL    HW116253   7.236  11.158   2.158
38140SOL    HW216254   7.202  11.301   2.197
38141SOL     OW16255   8.901   1.826   4.088
38141SOL    HW116256   8.964   1.892   4.059
38141SOL    HW216257   8.861   1.794   4.008
38142SOL     OW16258   4.445   4.504  14.605
38142SOL    HW116259   4.388   4.538  14.537
38142SOL    HW216260   4.421   4.554  14.683
38143SOL     OW16261   5.393  10.394   3.120
38143SOL    HW116262   5.364  10.327   3.183
38143SOL    HW216263   5.313  10.423   3.077
38144SOL     OW16264  14.192   5.442   0.450
38144SOL    HW116265  14.208   5.526   0.492
38144SOL    HW216266  14.268   5.388   0.474
38145SOL     OW16267   8.096   1.758  11.898
38145SOL    HW116268   8.065   1.684  11.950
38145SOL    HW216269   8.021   1.818  11.895
38146SOL     OW16270  10.576   2.163   3.801
38146SOL    HW116271  10.664   2.192   3.828
38146SOL    HW216272  10.542   2.116   3.877
38147SOL     OW16273   8.218  12.999   2.728
38147SOL    HW116274   8.270  13.006   2.648
38147SOL    HW216275   8.129  12.982   2.698
38148SOL     OW16276  14.572   3.346  13.242
38148SOL    HW116277  14.539   3.379  13.159
38148SOL    HW216278  14.494   3.329  13.294
38149SOL     OW16279   8.835   3.821   8.497
38149SOL    HW116280   8.764   3.838   8.434
38149SOL    HW216281   8.914   3.823   8.444
38150SOL     OW16282  10.379   7.564  10.604
38150SOL    HW116283  10.458   7.569  10.658
38150SOL    HW216284  10.322   7.503  10.650
38151SOL     OW16285   4.088   9.333   3.894
38151SOL    HW116286   4.182   9.316   3.885
38151SOL    HW216287   4.058   9.265   3.956
38152SOL     OW16288   3.166   3.099  10.781
38152SOL    HW116289   3.184   3.188  10.750
38152SOL    HW216290   3.200   3.042  10.712
38153SOL     OW16291   4.033  14.129  13.857
38153SOL    HW116292   4.029  14.224  13.873
38153SOL    HW216293   4.127  14.111  13.848
38154SOL     OW16294   2.001  11.689  14.764
38154SOL    HW116295   2.069  11.649  14.710
38154SOL    HW216296   1.939  11.618  14.781
38155SOL     OW16297  12.991   2.538  11.728
38155SOL    HW116298  12.913   2.496  11.693
38155SOL    HW216299  13.064   2.500  11.679
38156SOL     OW16300  12.314   2.357   5.511
38156SOL    HW116301  12.277   2.269   5.517
38156SOL    HW216302  12.335   2.381   5.601
38157SOL     OW16303   4.514   4.829  11.733
38157SOL    HW116304   4.566   4.772  11.789
38157SOL    HW216305   4.426   4.827  11.772
38158SOL     OW16306  11.597  14.345  12.052
38158SOL    HW116307  11.542  14.300  12.116
38158SOL    HW216308  11.645  14.276  12.007
38159SOL     OW16309   6.428  10.414   4.352
38159SOL    HW116310   6.430  10.480   4.283
38159SOL    HW216311   6.479  10.341   4.316
38160SOL     OW16312  10.271   9.335   7.437
38160SOL    HW116313  10.274   9.316   7.531
38160SOL    HW216314  10.186   9.377   7.425
38161SOL     OW16315   0.121   8.644  12.629
38161SOL    HW116316   0.185   8.585  12.589
38161SOL    HW216317   0.134   8.633  12.724
38162SOL     OW16318   8.002   7.320  11.174
38162SOL    HW116319   7.980   7.316  11.267
38162SOL    HW216320   8.019   7.413  11.158
38163SOL     OW16321   8.804   3.537  12.750
38163SOL    HW116322   8.898   3.556  12.755
38163SOL    HW216323   8.771   3.599  12.685
38164SOL     OW16324   5.753   1.062   9.699
38164SOL    HW116325   5.813   1.131   9.669
38164SOL    HW216326   5.809   0.995   9.736
38165SOL     OW16327   6.056   4.411  13.824
38165SOL    HW116328   5.969   4.375  13.840
38165SOL    HW216329   6.116   4.350  13.868
38166SOL     OW16330   2.882   7.147   8.484
38166SOL    HW116331   2.939   7.183   8.553
38166SOL    HW216332   2.870   7.055   8.509
38167SOL     OW16333   9.057  10.157   0.563
38167SOL    HW116334   9.008  10.225   0.517
38167SOL    HW216335   8.993  10.114   0.619
38168SOL     OW16336  11.978   6.126  13.371
38168SOL    HW116337  11.887   6.147  13.391
38168SOL    HW216338  11.977   6.035  13.342
38169SOL     OW16339  10.711   5.700   5.353
38169SOL    HW116340  10.616   5.691   5.343
38169SOL    HW216341  10.722   5.787   5.393
38170SOL     OW16342   5.459   3.457   1.030
38170SOL    HW116343   5.467   3.403   1.108
38170SOL    HW216344   5.413   3.536   1.059
38171SOL     OW16345   2.161   7.308   9.576
38171SOL    HW116346   2.118   7.312   9.662
38171SOL    HW216347   2.093   7.278   9.516
38172SOL     OW16348  11.069   9.724  10.276
38172SOL    HW116349  11.153   9.708  10.319
38172SOL    HW216350  11.009   9.743  10.348
38173SOL     OW16351  12.057   4.115   2.049
38173SOL    HW116352  12.129   4.179   2.041
38173SOL    HW216353  12.100   4.034   2.078
38174SOL     OW16354   2.586   9.240   7.014
38174SOL    HW116355   2.597   9.207   7.103
38174SOL    HW216356   2.624   9.328   7.016
38175SOL     OW16357  13.293  14.304   4.653
38175SOL    HW116358  13.364  14.360   4.685
38175SOL    HW216359  13.282  14.330   4.561
38176SOL     OW16360  10.307   2.704  10.966
38176SOL    HW116361  10.379   2.768  10.961
38176SOL    HW216362  10.335   2.643  11.034
38177SOL     OW16363   1.573   8.485   1.447
38177SOL    HW116364   1.645   8.538   1.412
38177SOL    HW216365   1.533   8.446   1.369
38178SOL     OW16366   8.798   0.511  10.888
38178SOL    HW116367   8.768   0.501  10.797
38178SOL    HW216368   8.799   0.422  10.922
38179SOL     OW16369  14.597  12.822   4.371
38179SOL    HW116370  14.506  12.833   4.343
38179SOL    HW216371  14.646  12.812   4.290
38180SOL     OW16372  11.469   4.068   3.212
38180SOL    HW116373  11.402   4.120   3.167
38180SOL    HW216374  11.509   4.015   3.143
38181SOL     OW16375   9.076  10.718  11.143
38181SOL    HW116376   9.166  10.685  11.135
38181SOL    HW216377   9.037  10.702  11.057
38182SOL     OW16378  10.991  10.805   0.697
38182SOL    HW116379  10.964  10.816   0.606
38182SOL    HW216380  11.045  10.882   0.716
38183SOL     OW16381  14.819   6.876   3.717
38183SOL    HW116382  14.730   6.846   3.735
38183SOL    HW216383  14.808   6.957   3.669
38184SOL     OW16384   6.084   7.769   1.999
38184SOL    HW116385   6.128   7.684   1.999
38184SOL    HW216386   6.040   7.773   2.084
38185SOL     OW16387   6.843   1.619   1.158
38185SOL    HW116388   6.921   1.667   1.128
38185SOL    HW216389   6.828   1.554   1.090
38186SOL     OW16390   4.579   9.408   6.098
38186SOL    HW116391   4.521   9.393   6.023
38186SOL    HW216392   4.595   9.502   6.098
38187SOL     OW16393   1.966  10.159   0.740
38187SOL    HW116394   1.914  10.084   0.768
38187SOL    HW216395   1.934  10.178   0.652
38188SOL     OW16396   1.294   9.505  13.421
38188SOL    HW116397   1.338   9.534  13.500
38188SOL    HW216398   1.348   9.433  13.388
38189SOL     OW16399   3.654   2.138   2.061
38189SOL    HW116400   3.661   2.109   2.151
38189SOL    HW216401   3.699   2.071   2.010
38190SOL     OW16402  14.370   6.890   6.516
38190SOL    HW116403  14.295   6.922   6.567
38190SOL    HW216404  14.420   6.969   6.497
38191SOL     OW16405   0.749   1.833   2.326
38191SOL    HW116406   0.825   1.890   2.308
38191SOL    HW216407   0.768   1.796   2.412
38192SOL     OW16408   2.259   2.520   5.981
38192SOL    HW116409   2.322   2.593   5.984
38192SOL    HW216410   2.288   2.460   6.049
38193SOL     OW16411   0.722   7.203  14.472
38193SOL    HW116412   0.780   7.204  14.548
38193SOL    HW216413   0.707   7.110  14.454
38194SOL     OW16414  12.682  14.215   0.459
38194SOL    HW116415  12.689  14.134   0.510
38194SOL    HW216416  12.656  14.186   0.372
38195SOL     OW16417  13.865   3.530   4.076
38195SOL    HW116418  13.868   3.553   4.169
38195SOL    HW216419  13.907   3.444   4.071
38196SOL     OW16420  12.754   1.871  10.974
38196SOL    HW116421  12.754   1.950  10.920
38196SOL    HW216422  12.704   1.807  10.923
38197SOL     OW16423  13.223   2.658  13.281
38197SOL    HW116424  13.288   2.610  13.332
38197SOL    HW216425  13.275   2.716  13.224
38198SOL     OW16426   7.604  14.826   3.190
38198SOL    HW116427   7.666  14.754   3.184
38198SOL    HW216428   7.646   0.011   3.248
38199SOL     OW16429   3.091   3.705   8.041
38199SOL    HW116430   3.005   3.741   8.063
38199SOL    HW216431   3.073   3.635   7.978
38200SOL     OW16432   5.462  12.124   8.369
38200SOL    HW116433   5.513  12.204   8.362
38200SOL    HW216434   5.445  12.098   8.279
38201SOL     OW16435   2.484  14.573   6.237
38201SOL    HW116436   2.458  14.504   6.175
38201SOL    HW216437   2.579  14.571   6.237
38202SOL     OW16438   6.426   0.319  11.006
38202SOL    HW116439   6.384   0.346  10.924
38202SOL    HW216440   6.383   0.237  11.029
38203SOL     OW16441   6.714   1.963   8.124
38203SOL    HW116442   6.726   1.923   8.039
38203SOL    HW216443   6.637   2.019   8.113
38204SOL     OW16444   6.730   0.849  12.720
38204SOL    HW116445   6.825   0.845  12.710
38204SOL    HW216446   6.716   0.902  12.799
38205SOL     OW16447   1.502   3.038   0.938
38205SOL    HW116448   1.538   2.992   1.013
38205SOL    HW216449   1.458   3.114   0.975
38206SOL     OW16450   7.343   0.516   2.033
38206SOL    HW116451   7.345   0.583   1.964
38206SOL    HW216452   7.378   0.438   1.990
38207SOL     OW16453   1.515   5.432   2.888
38207SOL    HW116454   1.452   5.396   2.824
38207SOL    HW216455   1.529   5.360   2.950
38208SOL     OW16456  13.367  12.317   1.774
38208SOL    HW116457  13.398  12.337   1.862
38208SOL    HW216458  13.300  12.249   1.787
38209SOL     OW16459  13.218   3.052  13.233
38209SOL    HW116460  13.179   3.115  13.173
38209SOL    HW216461  13.143   3.013  13.279
38210SOL     OW16462   9.907   5.431   4.124
38210SOL    HW116463   9.827   5.442   4.174
38210SOL    HW216464   9.879   5.394   4.041
38211SOL     OW16465  13.338  13.555   4.419
38211SOL    HW116466  13.307  13.466   4.404
38211SOL    HW216467  13.260  13.604   4.446
38212SOL     OW16468  10.669  11.568   8.594
38212SOL    HW116469  10.658  11.638   8.529
38212SOL    HW216470  10.606  11.590   8.663
38213SOL     OW16471  11.137  10.977   1.540
38213SOL    HW116472  11.225  10.970   1.505
38213SOL    HW216473  11.130  10.904   1.601
38214SOL     OW16474   1.355   3.031   7.703
38214SOL    HW116475   1.398   3.073   7.629
38214SOL    HW216476   1.355   3.099   7.771
38215SOL     OW16477   2.802  13.320   6.436
38215SOL    HW116478   2.720  13.275   6.416
38215SOL    HW216479   2.774  13.405   6.470
38216SOL     OW16480   7.497   8.894   0.582
38216SOL    HW116481   7.547   8.853   0.511
38216SOL    HW216482   7.470   8.979   0.545
38217SOL     OW16483   6.795  12.768  11.409
38217SOL    HW116484   6.815  12.692  11.355
38217SOL    HW216485   6.738  12.735  11.478
38218SOL     OW16486   8.269   6.984   6.358
38218SOL    HW116487   8.336   7.051   6.343
38218SOL    HW216488   8.188   7.034   6.370
38219SOL     OW16489   6.950   6.912   8.378
38219SOL    HW116490   6.992   6.845   8.324
38219SOL    HW216491   6.863   6.879   8.396
38220SOL     OW16492  11.516  13.539   1.596
38220SOL    HW116493  11.453  13.530   1.524
38220SOL    HW216494  11.597  13.504   1.560
38221SOL     OW16495   3.810   3.560  11.102
38221SOL    HW116496   3.861   3.572  11.182
38221SOL    HW216497   3.864   3.502  11.048
38222SOL     OW16498   7.721   4.678  12.475
38222SOL    HW116499   7.663   4.755  12.472
38222SOL    HW216500   7.797   4.708  12.524
38223SOL     OW16501   7.250   0.028  12.596
38223SOL    HW116502   7.307  14.867  12.662
38223SOL    HW216503   7.235   0.117  12.627
38224SOL     OW16504   2.657   9.072   9.852
38224SOL    HW116505   2.602   9.008   9.808
38224SOL    HW216506   2.746   9.052   9.822
38225SOL     OW16507   2.122  12.259   4.336
38225SOL    HW116508   2.120  12.173   4.295
38225SOL    HW216509   2.044  12.260   4.393
38226SOL     OW16510   0.020   2.317   5.705
38226SOL    HW116511  14.820   2.360   5.671
38226SOL    HW216512  14.872   2.226   5.718
38227SOL     OW16513  10.610  12.392  12.619
38227SOL    HW116514  10.653  12.476  12.636
38227SOL    HW216515  10.575  12.400  12.531
38228SOL     OW16516   8.317   0.305   9.623
38228SOL    HW116517   8.248   0.238   9.629
38228SOL    HW216518   8.382   0.278   9.687
38229SOL     OW16519  14.096  10.999   8.481
38229SOL    HW116520  14.050  10.950   8.413
38229SOL    HW216521  14.069  10.956   8.563
38230SOL     OW16522   6.446   8.182   0.017
38230SOL    HW116523   6.513   8.238   0.056
38230SOL    HW216524   6.372   8.188   0.078
38231SOL     OW16525   3.216  12.105  10.173
38231SOL    HW116526   3.164  12.051  10.113
38231SOL    HW216527   3.289  12.049  10.198
38232SOL     OW16528  14.874   7.808   8.235
38232SOL    HW116529  14.834   7.874   8.291
38232SOL    HW216530   0.058   7.763   8.291
38233SOL     OW16531   2.269   4.306  12.199
38233SOL    HW116532   2.182   4.304  12.238
38233SOL    HW216533   2.254   4.305  12.105
38234SOL     OW16534   8.313  12.458   4.567
38234SOL    HW116535   8.407  12.472   4.551
38234SOL    HW216536   8.287  12.529   4.625
38235SOL     OW16537  13.368   7.346  12.293
38235SOL    HW116538  13.373   7.441  12.304
38235SOL    HW216539  13.280   7.330  12.260
38236SOL     OW16540   5.982   3.020  10.984
38236SOL    HW116541   6.070   3.037  11.017
38236SOL    HW216542   5.949   3.106  10.959
38237SOL     OW16543  11.797   5.393   1.469
38237SOL    HW116544  11.864   5.390   1.537
38237SOL    HW216545  11.842   5.432   1.394
38238SOL     OW16546   2.537   8.617   0.437
38238SOL    HW116547   2.607   8.662   0.485
38238SOL    HW216548   2.470   8.599   0.503
38239SOL     OW16549   8.807   8.047   5.594
38239SOL    HW116550   8.744   7.974   5.595
38239SOL    HW216551   8.848   8.041   5.508
38240SOL     OW16552   7.566  10.907   1.515
38240SOL    HW116553   7.621  10.982   1.495
38240SOL    HW216554   7.502  10.904   1.444
38241SOL     OW16555   8.642   6.197   9.307
38241SOL    HW116556   8.671   6.252   9.379
38241SOL    HW216557   8.547   6.211   9.301
38242SOL     OW16558   0.360  11.742   9.156
38242SOL    HW116559   0.378  11.658   9.113
38242SOL    HW216560   0.284  11.724   9.212
38243SOL     OW16561  10.958   2.035   5.442
38243SOL    HW116562  10.896   2.035   5.515
38243SOL    HW216563  11.019   1.965   5.462
38244SOL     OW16564   7.255   8.780   1.297
38244SOL    HW116565   7.312   8.715   1.338
38244SOL    HW216566   7.279   8.779   1.205
38245SOL     OW16567   5.165   3.972  12.658
38245SOL    HW116568   5.225   4.029  12.707
38245SOL    HW216569   5.209   3.887  12.656
38246SOL     OW16570  11.673   7.974  13.841
38246SOL    HW116571  11.594   8.000  13.795
38246SOL    HW216572  11.745   8.011  13.789
38247SOL     OW16573   5.734   2.776   2.524
38247SOL    HW116574   5.679   2.702   2.549
38247SOL    HW216575   5.789   2.743   2.453
38248SOL     OW16576   6.522   4.694   0.010
38248SOL    HW116577   6.491   4.745  14.813
38248SOL    HW216578   6.481   4.608  14.878
38249SOL     OW16579  11.822  10.125  12.627
38249SOL    HW116580  11.782  10.066  12.564
38249SOL    HW216581  11.913  10.096  12.634
38250SOL     OW16582   3.150   5.419   3.267
38250SOL    HW116583   3.068   5.447   3.309
38250SOL    HW216584   3.193   5.501   3.243
38251SOL     OW16585   5.397   2.373  13.045
38251SOL    HW116586   5.425   2.283  13.059
38251SOL    HW216587   5.364   2.374  12.956
38252SOL     OW16588   7.258   6.830  10.225
38252SOL    HW116589   7.172   6.863  10.251
38252SOL    HW216590   7.249   6.809  10.133
38253SOL     OW16591   6.334  12.977  11.172
38253SOL    HW116592   6.418  12.945  11.203
38253SOL    HW216593   6.349  13.070  11.155
38254SOL     OW16594   3.009   1.384   8.272
38254SOL    HW116595   3.048   1.418   8.352
38254SOL    HW216596   2.988   1.293   8.292
38255SOL     OW16597   4.472   6.904   9.296
38255SOL    HW116598   4.440   6.876   9.382
38255SOL    HW216599   4.457   6.999   9.296
38256SOL     OW16600  11.914   3.791   8.107
38256SOL    HW116601  11.872   3.734   8.172
38256SOL    HW216602  11.977   3.735   8.062
38257SOL     OW16603   5.252   2.192  14.084
38257SOL    HW116604   5.185   2.125  14.099
38257SOL    HW216605   5.316   2.179  14.154
38258SOL     OW16606  14.596   5.861   3.572
38258SOL    HW116607  14.557   5.807   3.641
38258SOL    HW216608  14.527   5.922   3.547
38259SOL     OW16609  13.006   4.165   2.462
38259SOL    HW116610  13.078   4.222   2.487
38259SOL    HW216611  12.930   4.223   2.458
38260SOL     OW16612   5.861  14.204   3.938
38260SOL    HW116613   5.840  14.297   3.943
38260SOL    HW216614   5.859  14.175   4.029
38261SOL     OW16615   1.865   6.265   2.819
38261SOL    HW116616   1.877   6.176   2.785
38261SOL    HW216617   1.782   6.294   2.780
38262SOL     OW16618   5.155  10.348   0.141
38262SOL    HW116619   5.235  10.389   0.173
38262SOL    HW216620   5.185  10.278   0.082
38263SOL     OW16621  11.785   4.265   7.449
38263SOL    HW116622  11.712   4.245   7.508
38263SOL    HW216623  11.811   4.354   7.472
38264SOL     OW16624   1.897   9.249   3.700
38264SOL    HW116625   1.853   9.250   3.615
38264SOL    HW216626   1.921   9.157   3.714
38265SOL     OW16627   8.360  11.455   4.052
38265SOL    HW116628   8.333  11.508   4.127
38265SOL    HW216629   8.278  11.436   4.006
38266SOL     OW16630   0.956   0.189   9.552
38266SOL    HW116631   1.016   0.244   9.503
38266SOL    HW216632   0.947   0.110   9.499
38267SOL     OW16633   6.006   7.876   2.254
38267SOL    HW116634   5.959   7.912   2.329
38267SOL    HW216635   6.042   7.952   2.209
38268SOL     OW16636  11.853   7.602   2.298
38268SOL    HW116637  11.947   7.622   2.292
38268SOL    HW216638  11.819   7.668   2.359
38269SOL     OW16639   8.766   1.761   0.140
38269SOL    HW116640   8.814   1.777   0.059
38269SOL    HW216641   8.833   1.733   0.202
38270SOL     OW16642  14.752   8.800   8.103
38270SOL    HW116643  14.752   8.896   8.105
38270SOL    HW216644  14.730   8.774   8.192
38271SOL     OW16645   0.369   2.250   8.407
38271SOL    HW116646   0.278   2.269   8.386
38271SOL    HW216647   0.417   2.327   8.375
38272SOL     OW16648  12.484   2.436   0.166
38272SOL    HW116649  12.391   2.414   0.160
38272SOL    HW216650  12.488   2.531   0.156
38273SOL     OW16651   6.503  14.260   9.182
38273SOL    HW116652   6.492  14.272   9.276
38273SOL    HW216653   6.565  14.328   9.156
38274SOL     OW16654  11.182   6.464   3.909
38274SOL    HW116655  11.163   6.376   3.942
38274SOL    HW216656  11.266   6.486   3.950
38275SOL     OW16657  11.635  10.297  13.737
38275SOL    HW116658  11.545  10.327  13.752
38275SOL    HW216659  11.644  10.221  13.794
38276SOL     OW16660  11.180  11.249   3.116
38276SOL    HW116661  11.239  11.180   3.086
38276SOL    HW216662  11.093  11.219   3.088
38277SOL     OW16663   9.252   1.867   0.464
38277SOL    HW116664   9.279   1.786   0.508
38277SOL    HW216665   9.239   1.841   0.373
38278SOL     OW16666   5.773  12.683  11.651
38278SOL    HW116667   5.715  12.752  11.621
38278SOL    HW216668   5.794  12.633  11.572
38279SOL     OW16669   9.790  13.021   2.603
38279SOL    HW116670   9.717  13.068   2.643
38279SOL    HW216671   9.864  13.036   2.663
38280SOL     OW16672   5.544  14.174   4.157
38280SOL    HW116673   5.636  14.200   4.155
38280SOL    HW216674   5.511  14.208   4.240
38281SOL     OW16675   0.750   0.701   8.795
38281SOL    HW116676   0.712   0.766   8.736
38281SOL    HW216677   0.817   0.657   8.743
38282SOL     OW16678  14.273  12.371   0.452
38282SOL    HW116679  14.190  12.332   0.478
38282SOL    HW216680  14.257  12.404   0.364
38283SOL     OW16681   3.158   9.046   0.510
38283SOL    HW116682   3.086   8.998   0.551
38283SOL    HW216683   3.190   9.104   0.579
38284SOL     OW16684   0.653  13.445  10.074
38284SOL    HW116685   0.682  13.457   9.983
38284SOL    HW216686   0.692  13.361  10.100
38285SOL     OW16687  14.173   5.805  14.674
38285SOL    HW116688  14.210   5.718  14.693
38285SOL    HW216689  14.205   5.826  14.586
38286SOL     OW16690  10.630   0.181   7.311
38286SOL    HW116691  10.574   0.240   7.362
38286SOL    HW216692  10.574   0.105   7.294
38287SOL     OW16693   2.067   3.612   4.621
38287SOL    HW116694   1.976   3.619   4.592
38287SOL    HW216695   2.061   3.570   4.707
38288SOL     OW16696   1.711   7.573   9.605
38288SOL    HW116697   1.656   7.497   9.623
38288SOL    HW216698   1.782   7.539   9.551
38289SOL     OW16699   0.893  10.068  10.056
38289SOL    HW116700   0.827  10.052  10.124
38289SOL    HW216701   0.847  10.049   9.974
38290SOL     OW16702   7.327   3.279   6.429
38290SOL    HW116703   7.404   3.317   6.386
38290SOL    HW216704   7.319   3.326   6.511
38291SOL     OW16705   8.221   4.632   8.206
38291SOL    HW116706   8.133   4.616   8.171
38291SOL    HW216707   8.276   4.638   8.128
38292SOL     OW16708  11.932  14.327   0.937
38292SOL    HW116709  11.963  14.412   0.968
38292SOL    HW216710  11.915  14.277   1.017
38293SOL     OW16711  13.630   0.934   7.069
38293SOL    HW116712  13.639   0.941   6.974
38293SOL    HW216713  13.536   0.934   7.084
38294SOL     OW16714   9.577  10.772   0.262
38294SOL    HW116715   9.590  10.867   0.266
38294SOL    HW216716   9.604  10.740   0.348
38295SOL     OW16717  12.175   4.232  13.985
38295SOL    HW116718  12.224   4.151  13.972
38295SOL    HW216719  12.091   4.217  13.943
38296SOL     OW16720   6.027   6.279   6.052
38296SOL    HW116721   6.041   6.301   5.960
38296SOL    HW216722   5.968   6.204   6.050
38297SOL     OW16723  14.355  14.644   3.941
38297SOL    HW116724  14.366  14.727   3.987
38297SOL    HW216725  14.348  14.668   3.849
38298SOL     OW16726  11.064  12.140  11.538
38298SOL    HW116727  11.114  12.214  11.505
38298SOL    HW216728  11.020  12.104  11.460
38299SOL     OW16729   3.684   5.803   7.485
38299SOL    HW116730   3.623   5.783   7.555
38299SOL    HW216731   3.745   5.866   7.524
38300SOL     OW16732  14.286  13.886   9.905
38300SOL    HW116733  14.358  13.924   9.855
38300SOL    HW216734  14.233  13.840   9.840
38301SOL     OW16735   7.959  11.895  11.406
38301SOL    HW116736   8.051  11.918  11.399
38301SOL    HW216737   7.930  11.937  11.488
38302SOL     OW16738   8.517   4.680   7.734
38302SOL    HW116739   8.547   4.590   7.740
38302SOL    HW216740   8.429   4.679   7.771
38303SOL     OW16741   8.969  13.180   2.739
38303SOL    HW116742   9.026  13.120   2.787
38303SOL    HW216743   8.970  13.261   2.789
38304SOL     OW16744   2.344  12.122  12.176
38304SOL    HW116745   2.309  12.033  12.187
38304SOL    HW216746   2.276  12.179  12.212
38305SOL     OW16747   9.179   8.090   9.244
38305SOL    HW116748   9.148   7.999   9.239
38305SOL    HW216749   9.120   8.139   9.186
38306SOL     OW16750   3.167  11.404   5.888
38306SOL    HW116751   3.106  11.338   5.921
38306SOL    HW216752   3.194  11.371   5.802
38307SOL     OW16753  11.595   0.182   5.231
38307SOL    HW116754  11.592   0.100   5.181
38307SOL    HW216755  11.663   0.167   5.297
38308SOL     OW16756   4.082   8.891   3.855
38308SOL    HW116757   4.094   8.846   3.771
38308SOL    HW216758   4.150   8.854   3.912
38309SOL     OW16759   5.088   2.637  12.019
38309SOL    HW116760   5.007   2.636  11.968
38309SOL    HW216761   5.059   2.623  12.110
38310SOL     OW16762   7.023  10.666   1.630
38310SOL    HW116763   7.018  10.760   1.644
38310SOL    HW216764   7.107  10.639   1.666
38311SOL     OW16765   9.291  14.608   3.593
38311SOL    HW116766   9.240  14.637   3.668
38311SOL    HW216767   9.226  14.578   3.530
38312SOL     OW16768   1.732  11.310  12.158
38312SOL    HW116769   1.822  11.293  12.184
38312SOL    HW216770   1.708  11.235  12.103
38313SOL     OW16771  11.960  12.853   2.878
38313SOL    HW116772  11.890  12.827   2.817
38313SOL    HW216773  11.929  12.823   2.963
38314SOL     OW16774  13.135   0.257   0.328
38314SOL    HW116775  13.090   0.313   0.265
38314SOL    HW216776  13.228   0.266   0.306
38315SOL     OW16777   6.347   4.373   1.220
38315SOL    HW116778   6.339   4.279   1.208
38315SOL    HW216779   6.402   4.384   1.297
38316SOL     OW16780   1.037   6.777   9.217
38316SOL    HW116781   1.121   6.820   9.200
38316SOL    HW216782   1.011   6.742   9.132
38317SOL     OW16783   4.022  13.366   3.986
38317SOL    HW116784   4.012  13.461   3.982
38317SOL    HW216785   4.116  13.351   3.983
38318SOL     OW16786  11.324   1.530   2.106
38318SOL    HW116787  11.305   1.459   2.168
38318SOL    HW216788  11.310   1.491   2.020
38319SOL     OW16789  13.670   1.726   5.789
38319SOL    HW116790  13.710   1.680   5.715
38319SOL    HW216791  13.699   1.676   5.866
38320SOL     OW16792   5.036  10.260   3.912
38320SOL    HW116793   4.971  10.194   3.937
38320SOL    HW216794   5.076  10.286   3.995
38321SOL     OW16795  12.332  14.818   1.767
38321SOL    HW116796  12.296   0.028   1.768
38321SOL    HW216797  12.395  14.819   1.694
38322SOL     OW16798  13.080   9.913   1.019
38322SOL    HW116799  13.098   9.822   0.996
38322SOL    HW216800  13.100   9.962   0.939
38323SOL     OW16801   7.609   4.774   2.496
38323SOL    HW116802   7.545   4.826   2.447
38323SOL    HW216803   7.603   4.686   2.458
38324SOL     OW16804  12.431   8.663   5.587
38324SOL    HW116805  12.480   8.718   5.527
38324SOL    HW216806  12.493   8.644   5.658
38325SOL     OW16807  10.975  12.477   9.297
38325SOL    HW116808  10.895  12.450   9.341
38325SOL    HW216809  10.947  12.545   9.235
38326SOL     OW16810  11.346   3.106  13.194
38326SOL    HW116811  11.403   3.180  13.214
38326SOL    HW216812  11.402   3.029  13.207
38327SOL     OW16813   7.397   8.970   5.604
38327SOL    HW116814   7.398   8.885   5.561
38327SOL    HW216815   7.488   8.999   5.601
38328SOL     OW16816  14.107   8.153   2.393
38328SOL    HW116817  14.193   8.117   2.412
38328SOL    HW216818  14.095   8.140   2.299
38329SOL     OW16819   8.343   1.032   7.575
38329SOL    HW116820   8.299   1.085   7.508
38329SOL    HW216821   8.410   1.091   7.612
38330SOL     OW16822  11.148  10.496   1.826
38330SOL    HW116823  11.109  10.571   1.781
38330SOL    HW216824  11.076  10.454   1.872
38331SOL     OW16825  13.735  12.818   8.314
38331SOL    HW116826  13.725  12.847   8.223
38331SOL    HW216827  13.745  12.899   8.364
38332SOL     OW16828   6.163   3.645   0.510
38332SOL    HW116829   6.127   3.720   0.557
38332SOL    HW216830   6.257   3.647   0.530
38333SOL     OW16831   9.612  12.952  14.275
38333SOL    HW116832   9.652  12.984  14.195
38333SOL    HW216833   9.572  13.029  14.315
38334SOL     OW16834  10.676   8.101  11.318
38334SOL    HW116835  10.653   8.146  11.399
38334SOL    HW216836  10.772   8.106  11.314
38335SOL     OW16837  12.316   9.608   1.709
38335SOL    HW116838  12.337   9.675   1.774
38335SOL    HW216839  12.330   9.651   1.625
38336SOL     OW16840   6.553  12.872   4.520
38336SOL    HW116841   6.528  12.896   4.431
38336SOL    HW216842   6.621  12.935   4.543
38337SOL     OW16843  11.337   1.147  14.684
38337SOL    HW116844  11.342   1.181  14.594
38337SOL    HW216845  11.255   1.098  14.687
38338SOL     OW16846   7.932   9.134  10.202
38338SOL    HW116847   7.927   9.039  10.207
38338SOL    HW216848   7.852   9.160  10.157
38339SOL     OW16849   0.444   4.744  13.574
38339SOL    HW116850   0.392   4.685  13.520
38339SOL    HW216851   0.527   4.753  13.527
38340SOL     OW16852   3.474  11.946  10.904
38340SOL    HW116853   3.388  11.972  10.937
38340SOL    HW216854   3.477  11.981  10.815
38341SOL     OW16855   3.715  11.914   0.226
38341SOL    HW116856   3.659  11.897   0.302
38341SOL    HW216857   3.804  11.899   0.259
38342SOL     OW16858   7.995   4.268   0.037
38342SOL    HW116859   7.955   4.198   0.089
38342SOL    HW216860   7.945   4.346   0.059
38343SOL     OW16861   5.896  14.608  12.385
38343SOL    HW116862   5.807  14.588  12.413
38343SOL    HW216863   5.902  14.569  12.298
38344SOL     OW16864  12.690   2.973  10.188
38344SOL    HW116865  12.739   2.931  10.259
38344SOL    HW216866  12.618   3.018  10.232
38345SOL     OW16867   6.354  10.173   3.015
38345SOL    HW116868   6.418  10.220   2.961
38345SOL    HW216869   6.407  10.115   3.070
38346SOL     OW16870  12.898   7.716  11.379
38346SOL    HW116871  12.922   7.798  11.422
38346SOL    HW216872  12.837   7.674  11.440
38347SOL     OW16873   8.083   6.216   0.770
38347SOL    HW116874   8.060   6.156   0.699
38347SOL    HW216875   8.169   6.187   0.799
38348SOL     OW16876   4.680   3.234  14.183
38348SOL    HW116877   4.670   3.209  14.274
38348SOL    HW216878   4.606   3.291  14.165
38349SOL     OW16879  13.259   9.765   3.336
38349SOL    HW116880  13.343   9.786   3.377
38349SOL    HW216881  13.239   9.841   3.282
38350SOL     OW16882   9.983  12.900   9.546
38350SOL    HW116883   9.901  12.924   9.590
38350SOL    HW216884   9.965  12.813   9.510
38351SOL     OW16885  12.685  13.379   0.369
38351SOL    HW116886  12.696  13.303   0.427
38351SOL    HW216887  12.739  13.447   0.408
38352SOL     OW16888  11.269   2.260   0.473
38352SOL    HW116889  11.309   2.336   0.432
38352SOL    HW216890  11.330   2.234   0.542
38353SOL     OW16891  10.606   3.508   4.523
38353SOL    HW116892  10.598   3.570   4.596
38353SOL    HW216893  10.678   3.450   4.549
38354SOL     OW16894   6.770   3.784   9.490
38354SOL    HW116895   6.847   3.839   9.475
38354SOL    HW216896   6.804   3.695   9.487
38355SOL     OW16897   2.199   2.471   4.648
38355SOL    HW116898   2.231   2.559   4.628
38355SOL    HW216899   2.232   2.452   4.736
38356SOL     OW16900   6.310  14.537  14.055
38356SOL    HW116901   6.322  14.533  14.150
38356SOL    HW216902   6.366  14.609  14.026
38357SOL     OW16903  10.310   5.051   0.320
38357SOL    HW116904  10.403   5.028   0.321
38357SOL    HW216905  10.275   4.999   0.247
38358SOL     OW16906   2.002   4.346  11.794
38358SOL    HW116907   2.044   4.349  11.708
38358SOL    HW216908   1.921   4.395  11.782
38359SOL     OW16909   5.723   5.871  12.230
38359SOL    HW116910   5.708   5.949  12.177
38359SOL    HW216911   5.723   5.903  12.321
38360SOL     OW16912   1.350   3.249   1.000
38360SOL    HW116913   1.357   3.338   0.965
38360SOL    HW216914   1.304   3.260   1.083
38361SOL     OW16915  10.987   8.170   9.025
38361SOL    HW116916  11.006   8.242   9.085
38361SOL    HW216917  10.897   8.185   8.997
38362SOL     OW16918   6.564  10.097  11.863
38362SOL    HW116919   6.599  10.009  11.878
38362SOL    HW216920   6.589  10.146  11.941
38363SOL     OW16921   1.963   3.023   6.047
38363SOL    HW116922   1.972   3.086   5.976
38363SOL    HW216923   1.869   3.017   6.062
38364SOL     OW16924  12.630  11.621  12.293
38364SOL    HW116925  12.536  11.616  12.307
38364SOL    HW216926  12.645  11.710  12.259
38365SOL     OW16927   0.825   5.712   1.101
38365SOL    HW116928   0.792   5.680   1.017
38365SOL    HW216929   0.900   5.655   1.120
38366SOL     OW16930  13.550   8.757   6.705
38366SOL    HW116931  13.491   8.682   6.705
38366SOL    HW216932  13.569   8.773   6.797
38367SOL     OW16933  10.490  11.584   2.489
38367SOL    HW116934  10.450  11.513   2.539
38367SOL    HW216935  10.564  11.611   2.543
38368SOL     OW16936  11.916  12.949  13.149
38368SOL    HW116937  11.939  12.857  13.164
38368SOL    HW216938  11.883  12.951  13.059
38369SOL     OW16939  12.018   9.102   8.496
38369SOL    HW116940  12.046   9.037   8.431
38369SOL    HW216941  12.059   9.184   8.468
38370SOL     OW16942   6.569   7.376   5.181
38370SOL    HW116943   6.497   7.381   5.243
38370SOL    HW216944   6.612   7.462   5.187
38371SOL     OW16945   7.906  13.681  13.577
38371SOL    HW116946   7.828  13.734  13.596
38371SOL    HW216947   7.876  13.591  13.584
38372SOL     OW16948   9.326   9.499   6.833
38372SOL    HW116949   9.371   9.444   6.769
38372SOL    HW216950   9.389   9.509   6.904
38373SOL     OW16951  13.724   7.717  10.924
38373SOL    HW116952  13.711   7.660  10.848
38373SOL    HW216953  13.637   7.726  10.962
38374SOL     OW16954   0.023   3.964  12.465
38374SOL    HW116955  14.847   3.975  12.542
38374SOL    HW216956   0.053   3.873  12.470
38375SOL     OW16957   2.370  10.045   1.510
38375SOL    HW116958   2.285  10.007   1.530
38375SOL    HW216959   2.409  10.063   1.595
38376SOL     OW16960   0.449  12.414  12.033
38376SOL    HW116961   0.469  12.385  11.944
38376SOL    HW216962   0.371  12.364  12.057
38377SOL     OW16963   9.654   7.289  10.733
38377SOL    HW116964   9.680   7.363  10.788
38377SOL    HW216965   9.558   7.295  10.730
38378SOL     OW16966  10.258   4.348   9.211
38378SOL    HW116967  10.169   4.312   9.211
38378SOL    HW216968  10.248   4.435   9.172
38379SOL     OW16969  10.358  14.357   6.420
38379SOL    HW116970  10.442  14.397   6.442
38379SOL    HW216971  10.348  14.373   6.326
38380SOL     OW16972   4.339   2.189   2.573
38380SOL    HW116973   4.416   2.132   2.568
38380SOL    HW216974   4.376   2.278   2.573
38381SOL     OW16975   6.251   8.346   7.851
38381SOL    HW116976   6.199   8.298   7.786
38381SOL    HW216977   6.278   8.426   7.806
38382SOL     OW16978  13.515   8.721   0.924
38382SOL    HW116979  13.572   8.657   0.882
38382SOL    HW216980  13.539   8.804   0.884
38383SOL     OW16981  14.118   9.446  12.033
38383SOL    HW116982  14.124   9.401  11.948
38383SOL    HW216983  14.043   9.505  12.023
38384SOL     OW16984  14.686   5.934  13.590
38384SOL    HW116985  14.688   6.014  13.537
38384SOL    HW216986  14.714   5.865  13.530
38385SOL     OW16987   9.344   7.555   4.241
38385SOL    HW116988   9.256   7.584   4.217
38385SOL    HW216989   9.368   7.491   4.174
38386SOL     OW16990   7.273   6.339   9.933
38386SOL    HW116991   7.339   6.344   9.864
38386SOL    HW216992   7.217   6.416   9.919
38387SOL     OW16993   9.090  10.579  11.889
38387SOL    HW116994   9.084  10.484  11.899
38387SOL    HW216995   9.064  10.596  11.799
38388SOL     OW16996   2.524   0.722   4.097
38388SOL    HW116997   2.509   0.810   4.133
38388SOL    HW216998   2.515   0.733   4.003
38389SOL     OW16999  11.106   4.359   7.659
38389SOL    HW117000  11.190   4.404   7.660
38389SOL    HW217001  11.064   4.387   7.578
38390SOL     OW17002   6.629   0.810   9.643
38390SOL    HW117003   6.607   0.752   9.570
38390SOL    HW217004   6.671   0.753   9.707
38391SOL     OW17005   7.040  12.892  10.141
38391SOL    HW117006   7.052  12.917  10.233
38391SOL    HW217007   7.108  12.827  10.125
38392SOL     OW17008   2.126   8.167   1.512
38392SOL    HW117009   2.109   8.223   1.437
38392SOL    HW217010   2.105   8.079   1.481
38393SOL     OW17011   0.168   1.643   9.424
38393SOL    HW117012   0.233   1.703   9.387
38393SOL    HW217013   0.206   1.616   9.508
38394SOL     OW17014   6.276   0.961  12.112
38394SOL    HW117015   6.327   0.901  12.168
38394SOL    HW217016   6.328   0.969  12.032
38395SOL     OW17017  14.363   2.999   3.332
38395SOL    HW117018  14.385   3.075   3.277
38395SOL    HW217019  14.321   3.038   3.409
38396SOL     OW17020   6.491   6.144   0.944
38396SOL    HW117021   6.488   6.085   0.869
38396SOL    HW217022   6.572   6.121   0.989
38397SOL     OW17023   9.604  12.353   2.332
38397SOL    HW117024   9.540  12.306   2.385
38397SOL    HW217025   9.608  12.441   2.370
38398SOL     OW17026   9.520  11.743   6.651
38398SOL    HW117027   9.450  11.680   6.672
38398SOL    HW217028   9.476  11.812   6.602
38399SOL     OW17029  14.333   3.705   5.905
38399SOL    HW117030  14.258   3.653   5.875
38399SOL    HW217031  14.317   3.793   5.869
38400SOL     OW17032  10.035  12.735  10.718
38400SOL    HW117033   9.944  12.717  10.741
38400SOL    HW217034  10.062  12.804  10.779
38401SOL     OW17035   7.358   3.490   1.427
38401SOL    HW117036   7.454   3.495   1.428
38401SOL    HW217037   7.329   3.581   1.435
38402SOL     OW17038   3.661   5.562  12.060
38402SOL    HW117039   3.605   5.518  12.124
38402SOL    HW217040   3.627   5.535  11.975
38403SOL     OW17041   4.161   8.167  10.373
38403SOL    HW117042   4.184   8.106  10.302
38403SOL    HW217043   4.172   8.115  10.453
38404SOL     OW17044   5.456   0.849   6.053
38404SOL    HW117045   5.375   0.839   6.104
38404SOL    HW217046   5.435   0.914   5.986
38405SOL     OW17047   1.793   3.009   4.596
38405SOL    HW117048   1.831   3.063   4.527
38405SOL    HW217049   1.856   2.939   4.610
38406SOL     OW17050  13.759   1.231   7.845
38406SOL    HW117051  13.691   1.295   7.866
38406SOL    HW217052  13.717   1.146   7.857
38407SOL     OW17053   4.127  11.435   3.497
38407SOL    HW117054   4.117  11.340   3.487
38407SOL    HW217055   4.135  11.449   3.591
38408SOL     OW17056   7.203   1.837  13.585
38408SOL    HW117057   7.132   1.875  13.534
38408SOL    HW217058   7.283   1.873  13.546
38409SOL     OW17059   4.065   7.189   0.217
38409SOL    HW117060   4.083   7.252   0.147
38409SOL    HW217061   4.141   7.197   0.276
38410SOL     OW17062  12.466  12.057   2.423
38410SOL    HW117063  12.493  12.069   2.332
38410SOL    HW217064  12.371  12.059   2.420
38411SOL     OW17065   6.843   2.927  14.720
38411SOL    HW117066   6.773   2.861  14.717
38411SOL    HW217067   6.814   2.990  14.785
38412SOL     OW17068  12.043   6.581   3.046
38412SOL    HW117069  12.095   6.644   3.096
38412SOL    HW217070  12.027   6.509   3.108
38413SOL     OW17071   5.220  10.894   0.253
38413SOL    HW117072   5.269  10.819   0.222
38413SOL    HW217073   5.137  10.890   0.205
38414SOL     OW17074   8.371   2.648   8.483
38414SOL    HW117075   8.343   2.557   8.490
38414SOL    HW217076   8.335   2.678   8.399
38415SOL     OW17077   3.260   0.164   2.343
38415SOL    HW117078   3.275   0.093   2.281
38415SOL    HW217079   3.273   0.244   2.291
38416SOL     OW17080  12.797   0.783  12.134
38416SOL    HW117081  12.758   0.696  12.134
38416SOL    HW217082  12.838   0.791  12.220
38417SOL     OW17083   2.295   7.539   3.918
38417SOL    HW117084   2.275   7.466   3.977
38417SOL    HW217085   2.213   7.586   3.908
38418SOL     OW17086   5.892   7.034   0.529
38418SOL    HW117087   5.980   7.051   0.564
38418SOL    HW217088   5.878   7.104   0.465
38419SOL     OW17089   8.256   5.504   7.951
38419SOL    HW117090   8.303   5.583   7.982
38419SOL    HW217091   8.182   5.538   7.901
38420SOL     OW17092  11.244   4.883  13.677
38420SOL    HW117093  11.310   4.827  13.718
38420SOL    HW217094  11.295   4.954  13.637
38421SOL     OW17095   1.038   2.894   3.883
38421SOL    HW117096   1.035   2.965   3.948
38421SOL    HW217097   1.123   2.905   3.840
38422SOL     OW17098   9.774  14.085   1.892
38422SOL    HW117099   9.717  14.021   1.934
38422SOL    HW217100   9.862  14.063   1.924
38423SOL     OW17101  13.793   3.898   9.988
38423SOL    HW117102  13.709   3.855  10.004
38423SOL    HW217103  13.809   3.884   9.894
38424SOL     OW17104  11.434  12.523   9.043
38424SOL    HW117105  11.378  12.543   9.119
38424SOL    HW217106  11.383  12.553   8.968
38425SOL     OW17107   9.339   1.361  12.574
38425SOL    HW117108   9.369   1.437  12.623
38425SOL    HW217109   9.400   1.355  12.500
38426SOL     OW17110  10.066   9.129  12.970
38426SOL    HW117111   9.994   9.067  12.980
38426SOL    HW217112  10.056   9.163  12.881
38427SOL     OW17113   5.949   3.353   1.175
38427SOL    HW117114   5.895   3.340   1.098
38427SOL    HW217115   6.028   3.302   1.159
38428SOL     OW17116  14.295   6.537   4.980
38428SOL    HW117117  14.298   6.443   5.000
38428SOL    HW217118  14.266   6.541   4.889
38429SOL     OW17119   0.821   1.756   0.293
38429SOL    HW117120   0.759   1.829   0.293
38429SOL    HW217121   0.841   1.742   0.201
38430SOL     OW17122  10.558   0.797  11.314
38430SOL    HW117123  10.463   0.809  11.304
38430SOL    HW217124  10.590   0.789  11.224
38431SOL     OW17125   4.534   0.217   3.117
38431SOL    HW117126   4.527   0.175   3.202
38431SOL    HW217127   4.560   0.147   3.057
38432SOL     OW17128   7.479   1.324  10.397
38432SOL    HW117129   7.422   1.395  10.426
38432SOL    HW217130   7.432   1.244  10.420
38433SOL     OW17131  13.951   2.081   8.900
38433SOL    HW117132  13.984   2.144   8.836
38433SOL    HW217133  13.924   2.134   8.975
38434SOL     OW17134   4.396   0.657   5.733
38434SOL    HW117135   4.319   0.709   5.757
38434SOL    HW217136   4.420   0.612   5.814
38435SOL     OW17137   5.657   7.850   0.759
38435SOL    HW117138   5.712   7.828   0.834
38435SOL    HW217139   5.708   7.825   0.682
38436SOL     OW17140  11.521   5.620  13.839
38436SOL    HW117141  11.438   5.603  13.882
38436SOL    HW217142  11.501   5.686  13.772
38437SOL     OW17143   2.545   5.988   0.990
38437SOL    HW117144   2.608   6.057   0.970
38437SOL    HW217145   2.464   6.035   1.010
38438SOL     OW17146   6.041   1.032   9.624
38438SOL    HW117147   6.037   1.080   9.542
38438SOL    HW217148   6.107   1.078   9.676
38439SOL     OW17149   4.627   2.632  12.110
38439SOL    HW117150   4.654   2.722  12.129
38439SOL    HW217151   4.671   2.611  12.028
38440SOL     OW17152   6.915  12.379   7.126
38440SOL    HW117153   6.894  12.289   7.152
38440SOL    HW217154   7.002  12.395   7.163
38441SOL     OW17155   0.687   4.192   5.116
38441SOL    HW117156   0.754   4.249   5.078
38441SOL    HW217157   0.703   4.195   5.210
38442SOL     OW17158   4.379   7.099   6.140
38442SOL    HW117159   4.434   7.023   6.120
38442SOL    HW217160   4.434   7.175   6.120
38443SOL     OW17161  14.414   8.973  12.316
38443SOL    HW117162  14.356   9.027  12.371
38443SOL    HW217163  14.381   8.884  12.328
38444SOL     OW17164  13.795   1.952  14.841
38444SOL    HW117165  13.777   2.044  14.859
38444SOL    HW217166  13.802   1.947  14.746
38445SOL     OW17167   0.111  14.422   9.190
38445SOL    HW117168   0.195  14.420   9.145
38445SOL    HW217169   0.050  14.458   9.126
38446SOL     OW17170   8.320   0.968   2.856
38446SOL    HW117171   8.368   0.933   2.781
38446SOL    HW217172   8.228   0.955   2.833
38447SOL     OW17173   5.836  11.270   2.650
38447SOL    HW117174   5.918  11.223   2.634
38447SOL    HW217175   5.803  11.234   2.732
38448SOL     OW17176   4.568  11.920   2.657
38448SOL    HW117177   4.488  11.970   2.669
38448SOL    HW217178   4.552  11.867   2.578
38449SOL     OW17179  12.079  11.473   3.805
38449SOL    HW117180  12.122  11.504   3.725
38449SOL    HW217181  12.092  11.544   3.868
38450SOL     OW17182   6.210   9.734  14.873
38450SOL    HW117183   6.271   9.710   0.063
38450SOL    HW217184   6.259   9.792  14.816
38451SOL     OW17185   0.860  12.682   5.755
38451SOL    HW117186   0.785  12.741   5.756
38451SOL    HW217187   0.930  12.734   5.715
38452SOL     OW17188   6.844   1.265   9.180
38452SOL    HW117189   6.836   1.190   9.239
38452SOL    HW217190   6.770   1.321   9.201
38453SOL     OW17191  14.171  12.147   9.224
38453SOL    HW117192  14.094  12.171   9.174
38453SOL    HW217193  14.244  12.191   9.180
38454SOL     OW17194  11.031   8.760   0.721
38454SOL    HW117195  11.098   8.808   0.769
38454SOL    HW217196  11.077   8.720   0.648
38455SOL     OW17197   7.080  13.394   8.815
38455SOL    HW117198   7.138  13.323   8.786
38455SOL    HW217199   7.000  13.351   8.843
38456SOL     OW17200   7.870   3.830   0.885
38456SOL    HW117201   7.965   3.823   0.890
38456SOL    HW217202   7.852   3.837   0.791
38457SOL     OW17203   6.846   3.345  14.240
38457SOL    HW117204   6.921   3.371  14.292
38457SOL    HW217205   6.772   3.392  14.278
38458SOL     OW17206   8.284  14.494   5.344
38458SOL    HW117207   8.254  14.581   5.318
38458SOL    HW217208   8.206  14.450   5.379
38459SOL     OW17209  12.493   9.919   4.169
38459SOL    HW117210  12.524   9.849   4.111
38459SOL    HW217211  12.564   9.930   4.233
38460SOL     OW17212   4.676   4.263  12.442
38460SOL    HW117213   4.671   4.352  12.476
38460SOL    HW217214   4.768   4.251  12.420
38461SOL     OW17215   2.281  11.989   6.712
38461SOL    HW117216   2.237  11.949   6.787
38461SOL    HW217217   2.371  12.001   6.741
38462SOL     OW17218   5.352  13.797   6.975
38462SOL    HW117219   5.302  13.875   6.950
38462SOL    HW217220   5.439  13.830   6.997
38463SOL     OW17221  12.866   8.081   8.768
38463SOL    HW117222  12.874   8.172   8.793
38463SOL    HW217223  12.771   8.065   8.766
38464SOL     OW17224   2.767  14.205   0.272
38464SOL    HW117225   2.840  14.189   0.331
38464SOL    HW217226   2.713  14.270   0.318
38465SOL     OW17227   6.004  13.499  13.637
38465SOL    HW117228   5.967  13.417  13.669
38465SOL    HW217229   6.029  13.480  13.546
38466SOL     OW17230   0.930  12.183  12.056
38466SOL    HW117231   1.001  12.179  11.991
38466SOL    HW217232   0.945  12.266  12.102
38467SOL     OW17233   0.126   6.765   6.253
38467SOL    HW117234   0.124   6.670   6.242
38467SOL    HW217235   0.123   6.778   6.347
38468SOL     OW17236  10.626   7.657   7.972
38468SOL    HW117237  10.610   7.660   8.067
38468SOL    HW217238  10.546   7.617   7.936
38469SOL     OW17239   8.613   5.535   4.340
38469SOL    HW117240   8.585   5.461   4.287
38469SOL    HW217241   8.682   5.577   4.289
38470SOL     OW17242   9.071   6.311  12.812
38470SOL    HW117243   9.089   6.218  12.803
38470SOL    HW217244   8.988   6.325  12.766
38471SOL     OW17245   7.888   7.199   1.462
38471SOL    HW117246   7.953   7.131   1.447
38471SOL    HW217247   7.904   7.228   1.552
38472SOL     OW17248   5.783   0.048  10.807
38472SOL    HW117249   5.807  14.852  10.752
38472SOL    HW217250   5.865   0.074  10.850
38473SOL     OW17251   4.993   4.263  10.401
38473SOL    HW117252   5.086   4.273  10.384
38473SOL    HW217253   4.978   4.307  10.485
38474SOL     OW17254   3.254  12.519  11.169
38474SOL    HW117255   3.167  12.494  11.199
38474SOL    HW217256   3.271  12.463  11.093
38475SOL     OW17257   9.339   6.427   2.018
38475SOL    HW117258   9.334   6.361   2.088
38475SOL    HW217259   9.362   6.508   2.064
38476SOL     OW17260   8.700  14.481  13.861
38476SOL    HW117261   8.673  14.527  13.782
38476SOL    HW217262   8.748  14.404  13.829
38477SOL     OW17263   0.076   9.506   5.065
38477SOL    HW117264   0.058   9.414   5.046
38477SOL    HW217265   0.077   9.512   5.160
38478SOL     OW17266   2.631   9.903  13.142
38478SOL    HW117267   2.653   9.977  13.086
38478SOL    HW217268   2.563   9.936  13.200
38479SOL     OW17269  12.875   3.111  10.974
38479SOL    HW117270  12.966   3.133  10.957
38479SOL    HW217271  12.869   3.108  11.070
38480SOL     OW17272  12.672  13.727   1.243
38480SOL    HW117273  12.732  13.664   1.283
38480SOL    HW217274  12.604  13.673   1.203
38481SOL     OW17275  10.035   7.764   6.674
38481SOL    HW117276   9.950   7.792   6.710
38481SOL    HW217277  10.072   7.844   6.637
38482SOL     OW17278  13.726   4.976   0.554
38482SOL    HW117279  13.650   4.985   0.612
38482SOL    HW217280  13.796   4.944   0.611
38483SOL     OW17281   1.977   0.331   2.276
38483SOL    HW117282   2.049   0.268   2.275
38483SOL    HW217283   1.902   0.281   2.310
38484SOL     OW17284   0.452  13.726   4.057
38484SOL    HW117285   0.463  13.801   4.116
38484SOL    HW217286   0.367  13.740   4.016
38485SOL     OW17287  10.481   4.660   7.997
38485SOL    HW117288  10.496   4.570   8.028
38485SOL    HW217289  10.549   4.712   8.040
38486SOL     OW17290   1.428  10.482   3.683
38486SOL    HW117291   1.504  10.540   3.675
38486SOL    HW217292   1.358  10.538   3.715
38487SOL     OW17293   5.758   9.456   4.835
38487SOL    HW117294   5.812   9.388   4.794
38487SOL    HW217295   5.756   9.432   4.928
38488SOL     OW17296   0.183   2.133   7.561
38488SOL    HW117297   0.096   2.126   7.600
38488SOL    HW217298   0.197   2.227   7.550
38489SOL     OW17299   9.556   0.888  13.891
38489SOL    HW117300   9.484   0.933  13.847
38489SOL    HW217301   9.561   0.927  13.978
38490SOL     OW17302   6.597   8.880   7.733
38490SOL    HW117303   6.668   8.853   7.791
38490SOL    HW217304   6.542   8.936   7.789
38491SOL     OW17305   3.645   8.667  11.165
38491SOL    HW117306   3.628   8.728  11.093
38491SOL    HW217307   3.618   8.582  11.131
38492SOL     OW17308  11.554   1.485  10.481
38492SOL    HW117309  11.568   1.570  10.523
38492SOL    HW217310  11.575   1.421  10.549
38493SOL     OW17311   6.903  13.937   5.474
38493SOL    HW117312   6.929  14.029   5.466
38493SOL    HW217313   6.814  13.935   5.438
38494SOL     OW17314  12.584   2.482  10.506
38494SOL    HW117315  12.522   2.431  10.558
38494SOL    HW217316  12.662   2.426  10.501
38495SOL     OW17317  14.675  11.088   9.379
38495SOL    HW117318  14.710  11.113   9.465
38495SOL    HW217319  14.674  10.992   9.381
38496SOL     OW17320   2.457   0.855  11.846
38496SOL    HW117321   2.494   0.831  11.931
38496SOL    HW217322   2.510   0.928  11.816
38497SOL     OW17323  11.274   8.525   1.443
38497SOL    HW117324  11.211   8.485   1.383
38497SOL    HW217325  11.240   8.506   1.530
38498SOL     OW17326  10.612  11.430   2.216
38498SOL    HW117327  10.551  11.499   2.239
38498SOL    HW217328  10.665  11.417   2.295
38499SOL     OW17329   4.460   8.090   4.052
38499SOL    HW117330   4.424   8.117   3.968
38499SOL    HW217331   4.429   8.157   4.114
38500SOL     OW17332  14.249   9.918  14.348
38500SOL    HW117333  14.221   9.985  14.410
38500SOL    HW217334  14.344   9.927  14.344
38501SOL     OW17335   6.170   4.284   9.522
38501SOL    HW117336   6.115   4.346   9.571
38501SOL    HW217337   6.114   4.206   9.513
38502SOL     OW17338   3.428   5.885   8.049
38502SOL    HW117339   3.509   5.848   8.016
38502SOL    HW217340   3.425   5.974   8.013
38503SOL     OW17341  11.298  11.805   2.744
38503SOL    HW117342  11.286  11.829   2.653
38503SOL    HW217343  11.379  11.848   2.771
38504SOL     OW17344   2.806   2.388   6.790
38504SOL    HW117345   2.868   2.319   6.813
38504SOL    HW217346   2.726   2.366   6.838
38505SOL     OW17347  12.681   9.097  11.770
38505SOL    HW117348  12.591   9.129  11.760
38505SOL    HW217349  12.673   9.002  11.770
38506SOL     OW17350   0.380  10.693   6.966
38506SOL    HW117351   0.345  10.728   6.884
38506SOL    HW217352   0.469  10.666   6.945
38507SOL     OW17353   7.717   8.157  14.830
38507SOL    HW117354   7.684   8.079  14.785
38507SOL    HW217355   7.672   8.157   0.036
38508SOL     OW17356  11.883   5.731  10.483
38508SOL    HW117357  11.799   5.766  10.513
38508SOL    HW217358  11.861   5.674  10.410
38509SOL     OW17359  10.997  11.375  13.324
38509SOL    HW117360  10.983  11.306  13.259
38509SOL    HW217361  10.932  11.442  13.302
38510SOL     OW17362   7.913   0.463  11.858
38510SOL    HW117363   8.002   0.471  11.824
38510SOL    HW217364   7.916   0.505  11.944
38511SOL     OW17365   4.438   9.931  13.725
38511SOL    HW117366   4.502   9.869  13.761
38511SOL    HW217367   4.485  10.014  13.721
38512SOL     OW17368   7.708   1.697   6.136
38512SOL    HW117369   7.745   1.684   6.049
38512SOL    HW217370   7.784   1.713   6.192
38513SOL     OW17371   1.000  11.562  11.952
38513SOL    HW117372   0.968  11.497  12.015
38513SOL    HW217373   0.921  11.607  11.921
38514SOL     OW17374  11.104   7.228  13.723
38514SOL    HW117375  11.054   7.183  13.791
38514SOL    HW217376  11.148   7.157  13.675
38515SOL     OW17377  12.846  11.188   8.111
38515SOL    HW117378  12.824  11.196   8.204
38515SOL    HW217379  12.769  11.146   8.072
38516SOL     OW17380   6.818   5.103   8.440
38516SOL    HW117381   6.724   5.105   8.419
38516SOL    HW217382   6.845   5.195   8.437
38517SOL     OW17383   8.353  13.575  10.074
38517SOL    HW117384   8.285  13.555  10.138
38517SOL    HW217385   8.367  13.669  10.084
38518SOL     OW17386   7.614   9.747   8.751
38518SOL    HW117387   7.674   9.684   8.712
38518SOL    HW217388   7.545   9.759   8.685
38519SOL     OW17389   4.157   3.963  13.144
38519SOL    HW117390   4.177   3.966  13.051
38519SOL    HW217391   4.061   3.960  13.148
38520SOL     OW17392  14.419   2.494  12.539
38520SOL    HW117393  14.386   2.470  12.626
38520SOL    HW217394  14.501   2.445  12.530
38521SOL     OW17395  13.293  11.895  13.717
38521SOL    HW117396  13.298  11.853  13.631
38521SOL    HW217397  13.245  11.976  13.702
38522SOL     OW17398   8.901   4.800   2.604
38522SOL    HW117399   8.865   4.733   2.662
38522SOL    HW217400   8.859   4.783   2.520
38523SOL     OW17401  13.853   6.423   6.257
38523SOL    HW117402  13.862   6.506   6.305
38523SOL    HW217403  13.927   6.422   6.197
38524SOL     OW17404   7.904   8.316  14.292
38524SOL    HW117405   7.926   8.401  14.331
38524SOL    HW217406   7.986   8.266  14.297
38525SOL     OW17407   7.218   1.720  11.874
38525SOL    HW117408   7.176   1.640  11.905
38525SOL    HW217409   7.200   1.723  11.780
38526SOL     OW17410   2.825  12.407   9.286
38526SOL    HW117411   2.845  12.318   9.257
38526SOL    HW217412   2.875  12.416   9.367
38527SOL     OW17413   3.911   6.742   3.041
38527SOL    HW117414   3.953   6.826   3.057
38527SOL    HW217415   3.882   6.747   2.950
38528SOL     OW17416   5.744   7.658  10.933
38528SOL    HW117417   5.675   7.667  10.867
38528SOL    HW217418   5.785   7.574  10.914
38529SOL     OW17419   1.890   8.842   4.657
38529SOL    HW117420   1.943   8.854   4.578
38529SOL    HW217421   1.885   8.929   4.696
38530SOL     OW17422  10.304   8.052   0.424
38530SOL    HW117423  10.336   8.038   0.335
38530SOL    HW217424  10.273   7.966   0.453
38531SOL     OW17425   5.259   1.698   4.067
38531SOL    HW117426   5.224   1.625   4.118
38531SOL    HW217427   5.312   1.748   4.129
38532SOL     OW17428  11.079  14.439  12.434
38532SOL    HW117429  10.985  14.423  12.427
38532SOL    HW217430  11.120  14.368  12.384
38533SOL     OW17431   9.998   9.236   4.785
38533SOL    HW117432   9.931   9.171   4.764
38533SOL    HW217433   9.959   9.320   4.760
38534SOL     OW17434  12.645   1.590   1.140
38534SOL    HW117435  12.638   1.512   1.086
38534SOL    HW217436  12.600   1.658   1.091
38535SOL     OW17437   0.240   9.931   9.502
38535SOL    HW117438   0.246   9.869   9.430
38535SOL    HW217439   0.182  10.000   9.469
38536SOL     OW17440   1.499  10.898   0.234
38536SOL    HW117441   1.504  10.983   0.191
38536SOL    HW217442   1.405  10.880   0.240
38537SOL     OW17443   0.432   8.090  14.549
38537SOL    HW117444   0.447   8.001  14.517
38537SOL    HW217445   0.340   8.106  14.532
38538SOL     OW17446  14.866   8.438   3.114
38538SOL    HW117447  14.830   8.493   3.184
38538SOL    HW217448  14.846   8.349   3.141
38539SOL     OW17449   1.506   9.521   9.282
38539SOL    HW117450   1.423   9.537   9.237
38539SOL    HW217451   1.491   9.551   9.372
38540SOL     OW17452   4.910   6.436  14.849
38540SOL    HW117453   4.913   6.475   0.058
38540SOL    HW217454   4.967   6.360  14.855
38541SOL     OW17455  11.492   7.744   8.365
38541SOL    HW117456  11.479   7.720   8.457
38541SOL    HW217457  11.515   7.837   8.369
38542SOL     OW17458   9.923   0.542   4.186
38542SOL    HW117459  10.015   0.557   4.168
38542SOL    HW217460   9.877   0.578   4.111
38543SOL     OW17461  13.573   0.419   9.251
38543SOL    HW117462  13.569   0.505   9.292
38543SOL    HW217463  13.513   0.365   9.302
38544SOL     OW17464   4.084  13.327   7.050
38544SOL    HW117465   3.996  13.301   7.024
38544SOL    HW217466   4.071  13.407   7.100
38545SOL     OW17467   6.753  13.497   1.766
38545SOL    HW117468   6.758  13.544   1.850
38545SOL    HW217469   6.714  13.560   1.705
38546SOL     OW17470   4.387   0.300  10.476
38546SOL    HW117471   4.352   0.348  10.401
38546SOL    HW217472   4.386   0.208  10.448
38547SOL     OW17473   6.527   7.200   8.730
38547SOL    HW117474   6.599   7.146   8.697
38547SOL    HW217475   6.570   7.276   8.769
38548SOL     OW17476   7.273  12.335   3.792
38548SOL    HW117477   7.360  12.356   3.827
38548SOL    HW217478   7.283  12.340   3.697
38549SOL     OW17479  12.155  11.109   5.732
38549SOL    HW117480  12.212  11.122   5.656
38549SOL    HW217481  12.202  11.046   5.786
38550SOL     OW17482  10.356   5.824   2.296
38550SOL    HW117483  10.341   5.852   2.205
38550SOL    HW217484  10.311   5.890   2.349
38551SOL     OW17485   7.999  10.674   2.067
38551SOL    HW117486   7.977  10.737   1.998
38551SOL    HW217487   8.069  10.621   2.030
38552SOL     OW17488   9.279   9.678   2.601
38552SOL    HW117489   9.361   9.668   2.552
38552SOL    HW217490   9.307   9.695   2.691
38553SOL     OW17491   4.236  13.029   5.538
38553SOL    HW117492   4.252  13.090   5.610
38553SOL    HW217493   4.323  13.002   5.509
38554SOL     OW17494  11.544   0.251  10.304
38554SOL    HW117495  11.631   0.221  10.333
38554SOL    HW217496  11.546   0.346  10.317
38555SOL     OW17497   6.665   8.096   4.018
38555SOL    HW117498   6.683   8.008   3.984
38555SOL    HW217499   6.586   8.085   4.071
38556SOL     OW17500   6.724   1.408   9.679
38556SOL    HW117501   6.722   1.503   9.680
38556SOL    HW217502   6.811   1.385   9.711
38557SOL     OW17503   4.577   2.797  13.305
38557SOL    HW117504   4.645   2.858  13.330
38557SOL    HW217505   4.552   2.823  13.216
38558SOL     OW17506   3.703  12.114   8.673
38558SOL    HW117507   3.798  12.110   8.680
38558SOL    HW217508   3.681  12.060   8.597
38559SOL     OW17509  11.451   8.590  12.417
38559SOL    HW117510  11.480   8.596  12.326
38559SOL    HW217511  11.405   8.673  12.433
38560SOL     OW17512   6.751  12.159   9.569
38560SOL    HW117513   6.690  12.159   9.642
38560SOL    HW217514   6.808  12.234   9.585
38561SOL     OW17515   7.734  10.908  11.309
38561SOL    HW117516   7.751  10.992  11.352
38561SOL    HW217517   7.807  10.852  11.336
38562SOL     OW17518   4.375   9.042   7.941
38562SOL    HW117519   4.369   9.007   8.030
38562SOL    HW217520   4.398   9.134   7.953
38563SOL     OW17521   3.975   4.716   3.033
38563SOL    HW117522   4.042   4.738   2.969
38563SOL    HW217523   4.013   4.739   3.118
38564SOL     OW17524   6.940  11.158  12.907
38564SOL    HW117525   6.983  11.090  12.854
38564SOL    HW217526   6.965  11.137  12.997
38565SOL     OW17527  13.889   7.651   4.890
38565SOL    HW117528  13.826   7.719   4.915
38565SOL    HW217529  13.873   7.637   4.797
38566SOL     OW17530   6.251   0.656   4.772
38566SOL    HW117531   6.233   0.694   4.858
38566SOL    HW217532   6.335   0.611   4.782
38567SOL     OW17533  14.870   6.559   2.389
38567SOL    HW117534   0.073   6.534   2.432
38567SOL    HW217535  14.854   6.488   2.327
38568SOL     OW17536   3.198  11.741   0.283
38568SOL    HW117537   3.147  11.814   0.248
38568SOL    HW217538   3.271  11.732   0.221
38569SOL     OW17539   1.876  14.700   1.709
38569SOL    HW117540   1.868  14.792   1.734
38569SOL    HW217541   1.907  14.657   1.789
38570SOL     OW17542   4.333  14.454   1.802
38570SOL    HW117543   4.248  14.486   1.834
38570SOL    HW217544   4.325  14.359   1.808
38571SOL     OW17545  11.206   2.075  12.546
38571SOL    HW117546  11.265   2.109  12.479
38571SOL    HW217547  11.228   2.126  12.624
38572SOL     OW17548  14.490   4.761  10.197
38572SOL    HW117549  14.554   4.831  10.186
38572SOL    HW217550  14.418   4.785  10.139
38573SOL     OW17551   7.986  14.259   3.432
38573SOL    HW117552   7.983  14.351   3.408
38573SOL    HW217553   8.067  14.251   3.483
38574SOL     OW17554   3.121   9.974   3.813
38574SOL    HW117555   3.138   9.891   3.858
38574SOL    HW217556   3.192   9.983   3.750
38575SOL     OW17557  12.235   9.477   2.259
38575SOL    HW117558  12.180   9.431   2.322
38575SOL    HW217559  12.319   9.431   2.263
38576SOL     OW17560  10.684   6.170  10.876
38576SOL    HW117561  10.740   6.131  10.810
38576SOL    HW217562  10.676   6.262  10.851
38577SOL     OW17563   4.245   2.732   4.520
38577SOL    HW117564   4.259   2.786   4.442
38577SOL    HW217565   4.231   2.796   4.591
38578SOL     OW17566   8.237  14.514   8.787
38578SOL    HW117567   8.160  14.525   8.730
38578SOL    HW217568   8.311  14.514   8.727
38579SOL     OW17569   1.782   4.782   2.847
38579SOL    HW117570   1.739   4.839   2.783
38579SOL    HW217571   1.735   4.699   2.841
38580SOL     OW17572  12.657  14.086   7.336
38580SOL    HW117573  12.687  14.062   7.424
38580SOL    HW217574  12.582  14.143   7.351
38581SOL     OW17575   9.595   0.455  14.463
38581SOL    HW117576   9.683   0.421  14.445
38581SOL    HW217577   9.606   0.550  14.465
38582SOL     OW17578   6.410  13.935   0.780
38582SOL    HW117579   6.403  14.000   0.710
38582SOL    HW217580   6.402  13.851   0.736
38583SOL     OW17581  11.697   7.213   6.718
38583SOL    HW117582  11.627   7.148   6.723
38583SOL    HW217583  11.735   7.201   6.631
38584SOL     OW17584   9.200  14.294  10.968
38584SOL    HW117585   9.263  14.360  10.997
38584SOL    HW217586   9.170  14.253  11.050
38585SOL     OW17587  13.194   1.261  12.481
38585SOL    HW117588  13.272   1.308  12.451
38585SOL    HW217589  13.207   1.251  12.576
38586SOL     OW17590  14.162  12.602  14.796
38586SOL    HW117591  14.250  12.575  14.820
38586SOL    HW217592  14.122  12.629   0.000
38587SOL     OW17593  10.393   0.615   9.727
38587SOL    HW117594  10.476   0.663   9.738
38587SOL    HW217595  10.350   0.622   9.812
38588SOL     OW17596   8.827   0.640   9.893
38588SOL    HW117597   8.806   0.573   9.958
38588SOL    HW217598   8.751   0.642   9.835
38589SOL     OW17599   3.853  10.734  14.401
38589SOL    HW117600   3.901  10.651  14.405
38589SOL    HW217601   3.786  10.726  14.469
38590SOL     OW17602  10.127   4.343  10.968
38590SOL    HW117603  10.207   4.332  11.019
38590SOL    HW217604  10.135   4.282  10.895
38591SOL     OW17605  14.847   3.084   9.010
38591SOL    HW117606   0.051   3.104   9.053
38591SOL    HW217607  14.855   2.993   8.982
38592SOL     OW17608   4.855  14.338   4.543
38592SOL    HW117609   4.811  14.253   4.538
38592SOL    HW217610   4.813  14.390   4.474
38593SOL     OW17611  11.675  13.926  13.579
38593SOL    HW117612  11.706  13.967  13.659
38593SOL    HW217613  11.636  13.844  13.607
38594SOL     OW17614  12.759  13.092   6.490
38594SOL    HW117615  12.717  13.153   6.429
38594SOL    HW217616  12.841  13.068   6.447
38595SOL     OW17617  13.575   7.621   2.412
38595SOL    HW117618  13.619   7.697   2.374
38595SOL    HW217619  13.612   7.613   2.499
38596SOL     OW17620  14.437   5.336  10.659
38596SOL    HW117621  14.417   5.425  10.630
38596SOL    HW217622  14.357   5.305  10.701
38597SOL     OW17623   9.690  11.998  11.908
38597SOL    HW117624   9.782  12.023  11.916
38597SOL    HW217625   9.692  11.919  11.853
38598SOL     OW17626   7.793  14.073  11.765
38598SOL    HW117627   7.864  14.135  11.781
38598SOL    HW217628   7.736  14.080  11.842
38599SOL     OW17629  11.553   7.422   6.640
38599SOL    HW117630  11.606   7.360   6.691
38599SOL    HW217631  11.567   7.506   6.683
38600SOL     OW17632   7.836   8.757   8.618
38600SOL    HW117633   7.799   8.807   8.691
38600SOL    HW217634   7.849   8.669   8.653
38601SOL     OW17635   1.443   9.356  12.037
38601SOL    HW117636   1.489   9.399  12.109
38601SOL    HW217637   1.484   9.390  11.958
38602SOL     OW17638   0.947   4.794   8.664
38602SOL    HW117639   0.860   4.761   8.645
38602SOL    HW217640   0.999   4.716   8.684
38603SOL     OW17641   1.715   4.916  14.688
38603SOL    HW117642   1.799   4.888  14.650
38603SOL    HW217643   1.736   4.995  14.738
38604SOL     OW17644  10.096   7.279   8.671
38604SOL    HW117645  10.109   7.282   8.576
38604SOL    HW217646  10.002   7.294   8.683
38605SOL     OW17647  13.120   1.292   8.087
38605SOL    HW117648  13.135   1.257   8.175
38605SOL    HW217649  13.194   1.351   8.072
38606SOL     OW17650   8.186  13.761  11.177
38606SOL    HW117651   8.281  13.767  11.175
38606SOL    HW217652   8.160  13.814  11.252
38607SOL     OW17653  12.345  11.958   3.295
38607SOL    HW117654  12.338  11.922   3.206
38607SOL    HW217655  12.255  11.961   3.326
38608SOL     OW17656   8.838  12.826   0.737
38608SOL    HW117657   8.784  12.747   0.740
38608SOL    HW217658   8.891  12.822   0.817
38609SOL     OW17659  13.588   2.837   9.671
38609SOL    HW117660  13.536   2.818   9.593
38609SOL    HW217661  13.595   2.933   9.672
38610SOL     OW17662   7.847   3.814   8.287
38610SOL    HW117663   7.884   3.894   8.249
38610SOL    HW217664   7.754   3.833   8.296
38611SOL     OW17665  10.130   9.251  14.042
38611SOL    HW117666  10.173   9.335  14.025
38611SOL    HW217667  10.050   9.254  13.991
38612SOL     OW17668   1.742   1.762   7.636
38612SOL    HW117669   1.830   1.746   7.670
38612SOL    HW217670   1.751   1.752   7.542
38613SOL     OW17671   8.131  10.523   2.390
38613SOL    HW117672   8.056  10.473   2.358
38613SOL    HW217673   8.172  10.558   2.311
38614SOL     OW17674  13.510   4.179  10.519
38614SOL    HW117675  13.562   4.139  10.588
38614SOL    HW217676  13.530   4.273  10.526
38615SOL     OW17677   6.105   4.734   6.750
38615SOL    HW117678   6.119   4.734   6.845
38615SOL    HW217679   6.113   4.826   6.725
38616SOL     OW17680   1.322  10.655   6.313
38616SOL    HW117681   1.392  10.608   6.269
38616SOL    HW217682   1.365  10.699   6.387
38617SOL     OW17683   7.245   9.891   8.537
38617SOL    HW117684   7.314   9.892   8.603
38617SOL    HW217685   7.191   9.816   8.560
38618SOL     OW17686  11.688  14.704   2.150
38618SOL    HW117687  11.694  14.792   2.112
38618SOL    HW217688  11.770  14.694   2.198
38619SOL     OW17689   7.936   9.642   3.425
38619SOL    HW117690   7.999   9.584   3.467
38619SOL    HW217691   7.974   9.664   3.340
38620SOL     OW17692   1.008   7.582   3.425
38620SOL    HW117693   1.016   7.629   3.508
38620SOL    HW217694   1.097   7.576   3.391
38621SOL     OW17695   7.867  11.854  12.818
38621SOL    HW117696   7.787  11.805  12.835
38621SOL    HW217697   7.912  11.856  12.902
38622SOL     OW17698  13.519   1.323   6.341
38622SOL    HW117699  13.478   1.402   6.307
38622SOL    HW217700  13.580   1.296   6.271
38623SOL     OW17701   3.809   9.237   0.407
38623SOL    HW117702   3.862   9.173   0.454
38623SOL    HW217703   3.725   9.193   0.395
38624SOL     OW17704   3.564  11.561   3.839
38624SOL    HW117705   3.601  11.631   3.893
38624SOL    HW217706   3.520  11.504   3.902
38625SOL     OW17707   4.189  11.537   6.393
38625SOL    HW117708   4.211  11.446   6.413
38625SOL    HW217709   4.126  11.532   6.321
38626SOL     OW17710   3.955   9.362  13.462
38626SOL    HW117711   4.050   9.373  13.458
38626SOL    HW217712   3.924   9.437  13.512
38627SOL     OW17713   5.438  13.018   3.131
38627SOL    HW117714   5.391  13.090   3.088
38627SOL    HW217715   5.492  13.061   3.198
38628SOL     OW17716  11.487   5.341   0.781
38628SOL    HW117717  11.546   5.365   0.710
38628SOL    HW217718  11.544   5.328   0.857
38629SOL     OW17719   4.534   1.122  12.296
38629SOL    HW117720   4.580   1.061  12.238
38629SOL    HW217721   4.549   1.208  12.257
38630SOL     OW17722  11.275   7.559   7.976
38630SOL    HW117723  11.327   7.632   7.942
38630SOL    HW217724  11.309   7.544   8.064
38631SOL     OW17725   8.293  10.326   5.294
38631SOL    HW117726   8.218  10.338   5.236
38631SOL    HW217727   8.338  10.249   5.260
38632SOL     OW17728  14.152   1.980  11.328
38632SOL    HW117729  14.171   1.896  11.285
38632SOL    HW217730  14.057   1.977  11.344
38633SOL     OW17731   3.120  14.650   0.150
38633SOL    HW117732   3.089  14.685   0.234
38633SOL    HW217733   3.101  14.556   0.156
38634SOL     OW17734  13.445   1.134  14.587
38634SOL    HW117735  13.372   1.192  14.565
38634SOL    HW217736  13.475   1.100  14.502
38635SOL     OW17737   9.355  12.956  11.279
38635SOL    HW117738   9.314  12.959  11.365
38635SOL    HW217739   9.311  13.025  11.229
38636SOL     OW17740   0.440   2.191  11.019
38636SOL    HW117741   0.397   2.235  11.092
38636SOL    HW217742   0.470   2.261  10.962
38637SOL     OW17743  12.361  13.425   7.174
38637SOL    HW117744  12.366  13.349   7.116
38637SOL    HW217745  12.309  13.395   7.249
38638SOL     OW17746   3.062   2.241   5.179
38638SOL    HW117747   3.135   2.181   5.193
38638SOL    HW217748   3.035   2.225   5.089
38639SOL     OW17749   6.036  11.673   7.937
38639SOL    HW117750   5.997  11.593   7.972
38639SOL    HW217751   6.066  11.648   7.849
38640SOL     OW17752   1.224   8.654   7.730
38640SOL    HW117753   1.234   8.658   7.635
38640SOL    HW217754   1.129   8.645   7.743
38641SOL     OW17755   1.505   0.189   9.982
38641SOL    HW117756   1.475   0.242   9.907
38641SOL    HW217757   1.577   0.239  10.019
38642SOL     OW17758  11.004   5.286   2.224
38642SOL    HW117759  11.027   5.240   2.305
38642SOL    HW217760  10.954   5.362   2.253
38643SOL     OW17761   4.180  12.086   0.366
38643SOL    HW117762   4.191  12.135   0.448
38643SOL    HW217763   4.090  12.055   0.369
38644SOL     OW17764   3.533   5.787  10.658
38644SOL    HW117765   3.616   5.823  10.688
38644SOL    HW217766   3.558   5.709  10.608
38645SOL     OW17767   7.464   7.823   1.428
38645SOL    HW117768   7.419   7.751   1.471
38645SOL    HW217769   7.498   7.877   1.499
38646SOL     OW17770   1.467  13.018   8.334
38646SOL    HW117771   1.520  13.097   8.350
38646SOL    HW217772   1.434  12.994   8.420
38647SOL     OW17773   8.422   0.523   8.038
38647SOL    HW117774   8.449   0.614   8.051
38647SOL    HW217775   8.470   0.473   8.103
38648SOL     OW17776   6.659  11.701   2.583
38648SOL    HW117777   6.614  11.774   2.542
38648SOL    HW217778   6.688  11.734   2.668
38649SOL     OW17779  13.182  12.397  12.819
38649SOL    HW117780  13.160  12.480  12.777
38649SOL    HW217781  13.186  12.334  12.746
38650SOL     OW17782   0.426  14.376  14.172
38650SOL    HW117783   0.339  14.406  14.146
38650SOL    HW217784   0.463  14.337  14.093
38651SOL     OW17785  11.674  14.226   2.643
38651SOL    HW117786  11.722  14.207   2.562
38651SOL    HW217787  11.721  14.300   2.681
38652SOL     OW17788   5.336  10.724  10.672
38652SOL    HW117789   5.242  10.738  10.670
38652SOL    HW217790   5.362  10.742  10.762
38653SOL     OW17791   8.122   7.696   9.969
38653SOL    HW117792   8.167   7.623   9.927
38653SOL    HW217793   8.180   7.724  10.040
38654SOL     OW17794   6.176  11.585   8.447
38654SOL    HW117795   6.267  11.585   8.415
38654SOL    HW217796   6.148  11.676   8.438
38655SOL     OW17797   3.985  12.109   1.886
38655SOL    HW117798   3.914  12.101   1.950
38655SOL    HW217799   3.941  12.111   1.801
38656SOL     OW17800  10.899   3.632   4.691
38656SOL    HW117801  10.822   3.590   4.652
38656SOL    HW217802  10.920   3.703   4.632
38657SOL     OW17803  11.336   6.397   8.406
38657SOL    HW117804  11.406   6.367   8.463
38657SOL    HW217805  11.259   6.404   8.463
38658SOL     OW17806   2.774  14.065  14.693
38658SOL    HW117807   2.788  14.122  14.618
38658SOL    HW217808   2.854  14.013  14.700
38659SOL     OW17809  14.637   3.794   3.022
38659SOL    HW117810  14.634   3.784   3.117
38659SOL    HW217811  14.580   3.725   2.988
38660SOL     OW17812  11.726   3.643   3.990
38660SOL    HW117813  11.647   3.639   4.045
38660SOL    HW217814  11.701   3.602   3.908
38661SOL     OW17815   2.078   4.954   0.653
38661SOL    HW117816   2.060   5.012   0.579
38661SOL    HW217817   2.173   4.945   0.654
38662SOL     OW17818  13.079   9.232   5.816
38662SOL    HW117819  13.077   9.183   5.733
38662SOL    HW217820  13.022   9.181   5.875
38663SOL     OW17821   2.067   4.568  12.202
38663SOL    HW117822   2.107   4.593  12.119
38663SOL    HW217823   1.981   4.532  12.178
38664SOL     OW17824   5.064   6.327   4.428
38664SOL    HW117825   5.144   6.355   4.384
38664SOL    HW217826   5.078   6.347   4.520
38665SOL     OW17827  12.331  14.668   1.981
38665SOL    HW117828  12.302  14.703   1.897
38665SOL    HW217829  12.385  14.737   2.018
38666SOL     OW17830  13.011   1.803  13.584
38666SOL    HW117831  13.064   1.782  13.508
38666SOL    HW217832  12.925   1.828  13.549
38667SOL     OW17833   4.985   8.569   0.057
38667SOL    HW117834   5.076   8.591   0.038
38667SOL    HW217835   4.990   8.496   0.119
38668SOL     OW17836  14.799   3.073   6.377
38668SOL    HW117837  14.845   3.146   6.337
38668SOL    HW217838  14.869   3.015   6.409
38669SOL     OW17839   1.890   2.922   9.061
38669SOL    HW117840   1.823   2.983   9.091
38669SOL    HW217841   1.855   2.835   9.082
38670SOL     OW17842  13.894  10.649   6.131
38670SOL    HW117843  13.848  10.574   6.094
38670SOL    HW217844  13.943  10.686   6.058
38671SOL     OW17845  11.051   9.307   5.936
38671SOL    HW117846  11.029   9.266   6.020
38671SOL    HW217847  11.142   9.281   5.919
38672SOL     OW17848   1.643   3.369  11.272
38672SOL    HW117849   1.579   3.363  11.343
38672SOL    HW217850   1.667   3.278  11.254
38673SOL     OW17851  14.344   9.108  12.762
38673SOL    HW117852  14.353   9.030  12.815
38673SOL    HW217853  14.255   9.103  12.726
38674SOL     OW17854   6.801   8.167  14.509
38674SOL    HW117855   6.805   8.095  14.573
38674SOL    HW217856   6.892   8.193  14.496
38675SOL     OW17857   4.408  13.302   8.246
38675SOL    HW117858   4.420  13.362   8.172
38675SOL    HW217859   4.439  13.351   8.322
38676SOL     OW17860  11.893  10.449   4.112
38676SOL    HW117861  11.912  10.432   4.204
38676SOL    HW217862  11.887  10.544   4.105
38677SOL     OW17863   3.107   5.483   8.398
38677SOL    HW117864   3.042   5.529   8.450
38677SOL    HW217865   3.128   5.404   8.449
38678SOL     OW17866   5.831  14.276   8.000
38678SOL    HW117867   5.872  14.283   8.087
38678SOL    HW217868   5.857  14.190   7.968
38679SOL     OW17869   5.035   5.055   4.978
38679SOL    HW117870   5.022   4.961   4.994
38679SOL    HW217871   4.982   5.074   4.901
38680SOL     OW17872  14.497   5.347   9.468
38680SOL    HW117873  14.542   5.272   9.506
38680SOL    HW217874  14.462   5.395   9.543
38681SOL     OW17875  14.645  14.866   7.326
38681SOL    HW117876  14.567   0.013   7.375
38681SOL    HW217877  14.703   0.063   7.331
38682SOL     OW17878   7.596  11.801   8.104
38682SOL    HW117879   7.571  11.799   8.197
38682SOL    HW217880   7.573  11.715   8.071
38683SOL     OW17881  14.604  10.617   0.821
38683SOL    HW117882  14.625  10.524   0.811
38683SOL    HW217883  14.687  10.662   0.803
38684SOL     OW17884  12.356   7.565   5.506
38684SOL    HW117885  12.439   7.557   5.554
38684SOL    HW217886  12.300   7.497   5.543
38685SOL     OW17887   8.632   4.184   1.820
38685SOL    HW117888   8.725   4.168   1.803
38685SOL    HW217889   8.629   4.210   1.912
38686SOL     OW17890  13.816  12.593   1.011
38686SOL    HW117891  13.778  12.569   1.095
38686SOL    HW217892  13.893  12.645   1.033
38687SOL     OW17893   7.373   4.434  10.166
38687SOL    HW117894   7.302   4.482  10.209
38687SOL    HW217895   7.447   4.443  10.226
38688SOL     OW17896  13.468   3.510   7.337
38688SOL    HW117897  13.464   3.416   7.355
38688SOL    HW217898  13.424   3.521   7.253
38689SOL     OW17899   8.407   3.781  10.034
38689SOL    HW117900   8.427   3.708  10.093
38689SOL    HW217901   8.332   3.825  10.074
38690SOL     OW17902   9.317  14.818  11.633
38690SOL    HW117903   9.331  14.732  11.592
38690SOL    HW217904   9.261  14.799  11.709
38691SOL     OW17905   0.569   5.374   4.141
38691SOL    HW117906   0.663   5.372   4.122
38691SOL    HW217907   0.561   5.434   4.214
38692SOL     OW17908   4.492   2.010  14.671
38692SOL    HW117909   4.493   1.925  14.715
38692SOL    HW217910   4.482   2.074  14.742
38693SOL     OW17911   6.135   1.541   1.221
38693SOL    HW117912   6.223   1.504   1.214
38693SOL    HW217913   6.086   1.502   1.149
38694SOL     OW17914   4.616   3.846   9.245
38694SOL    HW117915   4.639   3.781   9.179
38694SOL    HW217916   4.665   3.820   9.323
38695SOL     OW17917   4.291   6.532  14.708
38695SOL    HW117918   4.377   6.574  14.701
38695SOL    HW217919   4.258   6.560  14.794
38696SOL     OW17920  10.107  12.312   8.362
38696SOL    HW117921  10.082  12.226   8.397
38696SOL    HW217922  10.173  12.343   8.423
38697SOL     OW17923   7.512   4.676   0.180
38697SOL    HW117924   7.575   4.729   0.228
38697SOL    HW217925   7.434   4.731   0.173
38698SOL     OW17926   5.118   8.749  14.740
38698SOL    HW117927   5.175   8.745  14.664
38698SOL    HW217928   5.045   8.691  14.718
38699SOL     OW17929   0.306   0.456  10.803
38699SOL    HW117930   0.263   0.523  10.750
38699SOL    HW217931   0.387   0.497  10.832
38700SOL     OW17932   6.204   5.035   4.099
38700SOL    HW117933   6.134   5.019   4.036
38700SOL    HW217934   6.277   5.066   4.046
38701SOL     OW17935   8.023   8.112  11.042
38701SOL    HW117936   7.990   8.199  11.067
38701SOL    HW217937   7.985   8.053  11.106
38702SOL     OW17938  12.847   4.799  14.180
38702SOL    HW117939  12.762   4.759  14.195
38702SOL    HW217940  12.890   4.800  14.265
38703SOL     OW17941   0.722   1.641   1.853
38703SOL    HW117942   0.789   1.603   1.796
38703SOL    HW217943   0.667   1.567   1.877
38704SOL     OW17944  13.075   6.417   6.067
38704SOL    HW117945  13.070   6.361   5.989
38704SOL    HW217946  13.013   6.378   6.129
38705SOL     OW17947  12.488   6.671   8.470
38705SOL    HW117948  12.451   6.593   8.428
38705SOL    HW217949  12.578   6.647   8.491
38706SOL     OW17950  13.365   1.824   6.680
38706SOL    HW117951  13.381   1.836   6.773
38706SOL    HW217952  13.450   1.835   6.638
38707SOL     OW17953   9.947  14.421   2.921
38707SOL    HW117954  10.024  14.371   2.946
38707SOL    HW217955   9.980  14.510   2.908
38708SOL     OW17956  11.448   9.418   7.640
38708SOL    HW117957  11.353   9.419   7.642
38708SOL    HW217958  11.472   9.326   7.627
38709SOL     OW17959   1.005  13.600   0.079
38709SOL    HW117960   1.014  13.596   0.174
38709SOL    HW217961   0.951  13.524   0.057
38710SOL     OW17962  13.572   6.890  14.681
38710SOL    HW117963  13.568   6.939  14.763
38710SOL    HW217964  13.579   6.957  14.613
38711SOL     OW17965   8.738   9.462  14.273
38711SOL    HW117966   8.643   9.451  14.281
38711SOL    HW217967   8.749   9.555  14.252
38712SOL     OW17968   9.054  11.543   7.429
38712SOL    HW117969   8.999  11.558   7.352
38712SOL    HW217970   8.993  11.549   7.503
38713SOL     OW17971  12.863   0.549  13.344
38713SOL    HW117972  12.846   0.547  13.438
38713SOL    HW217973  12.884   0.641  13.326
38714SOL     OW17974   9.083   9.603  14.157
38714SOL    HW117975   9.028   9.662  14.210
38714SOL    HW217976   9.020   9.549  14.110
38715SOL     OW17977   7.666   6.849  13.263
38715SOL    HW117978   7.649   6.776  13.204
38715SOL    HW217979   7.761   6.849  13.274
38716SOL     OW17980   5.398   2.450   5.514
38716SOL    HW117981   5.354   2.486   5.591
38716SOL    HW217982   5.398   2.355   5.527
38717SOL     OW17983   3.820   4.925   1.069
38717SOL    HW117984   3.867   4.990   1.120
38717SOL    HW217985   3.881   4.852   1.060
38718SOL     OW17986   8.242   3.617   5.184
38718SOL    HW117987   8.232   3.688   5.247
38718SOL    HW217988   8.274   3.659   5.104
38719SOL     OW17989  10.324  10.663   1.454
38719SOL    HW117990  10.353  10.599   1.519
38719SOL    HW217991  10.313  10.744   1.504
38720SOL     OW17992   6.168  12.435   9.289
38720SOL    HW117993   6.121  12.438   9.206
38720SOL    HW217994   6.251  12.392   9.268
38721SOL     OW17995  11.338  10.815   6.827
38721SOL    HW117996  11.258  10.866   6.844
38721SOL    HW217997  11.386  10.818   6.910
38722SOL     OW17998   8.687   9.158  12.791
38722SOL    HW117999   8.646   9.177  12.707
38722SOL    HW218000   8.646   9.219  12.853
38723SOL     OW18001  13.795   5.377   4.120
38723SOL    HW118002  13.864   5.380   4.185
38723SOL    HW218003  13.723   5.331   4.163
38724SOL     OW18004  13.876   1.796  11.806
38724SOL    HW118005  13.906   1.741  11.734
38724SOL    HW218006  13.800   1.844  11.770
38725SOL     OW18007  10.538   5.059   7.367
38725SOL    HW118008  10.574   5.140   7.331
38725SOL    HW218009  10.570   5.057   7.457
38726SOL     OW18010   1.416   2.254   6.852
38726SOL    HW118011   1.368   2.330   6.884
38726SOL    HW218012   1.356   2.211   6.790
38727SOL     OW18013   9.153   3.515   2.703
38727SOL    HW118014   9.091   3.587   2.688
38727SOL    HW218015   9.101   3.436   2.688
38728SOL     OW18016   9.538   2.397   2.031
38728SOL    HW118017   9.486   2.450   1.970
38728SOL    HW218018   9.567   2.459   2.098
38729SOL     OW18019   2.880   4.281   0.255
38729SOL    HW118020   2.906   4.235   0.335
38729SOL    HW218021   2.962   4.316   0.220
38730SOL     OW18022   0.926   9.746   8.862
38730SOL    HW118023   0.850   9.777   8.911
38730SOL    HW218024   0.944   9.659   8.898
38731SOL     OW18025   8.198  13.970   3.456
38731SOL    HW118026   8.113  13.980   3.413
38731SOL    HW218027   8.254  13.930   3.390
38732SOL     OW18028   2.940  14.319   8.476
38732SOL    HW118029   2.945  14.262   8.400
38732SOL    HW218030   3.026  14.361   8.479
38733SOL     OW18031   2.490  12.818   9.095
38733SOL    HW118032   2.418  12.773   9.139
38733SOL    HW218033   2.555  12.830   9.164
38734SOL     OW18034  10.319   6.216   1.618
38734SOL    HW118035  10.396   6.269   1.635
38734SOL    HW218036  10.315   6.155   1.692
38735SOL     OW18037  13.725  12.905  12.701
38735SOL    HW118038  13.661  12.969  12.669
38735SOL    HW218039  13.743  12.932  12.791
38736SOL     OW18040  13.127   2.078   0.991
38736SOL    HW118041  13.108   1.984   0.985
38736SOL    HW218042  13.118   2.110   0.901
38737SOL     OW18043   9.953   3.415   2.594
38737SOL    HW118044   9.984   3.324   2.594
38737SOL    HW218045   9.859   3.408   2.578
38738SOL     OW18046   3.611   6.046   4.579
38738SOL    HW118047   3.549   6.002   4.637
38738SOL    HW218048   3.560   6.067   4.501
38739SOL     OW18049   9.030   7.493  14.145
38739SOL    HW118050   8.996   7.582  14.155
38739SOL    HW218051   9.042   7.461  14.235
38740SOL     OW18052   6.857  11.315  12.138
38740SOL    HW118053   6.925  11.331  12.204
38740SOL    HW218054   6.822  11.402  12.118
38741SOL     OW18055   3.991   5.736   0.468
38741SOL    HW118056   3.966   5.655   0.424
38741SOL    HW218057   4.086   5.737   0.466
38742SOL     OW18058  12.004   5.024  14.580
38742SOL    HW118059  12.050   5.078  14.644
38742SOL    HW218060  12.016   4.934  14.611
38743SOL     OW18061   4.157  13.883   8.044
38743SOL    HW118062   4.069  13.920   8.035
38743SOL    HW218063   4.157  13.806   7.986
38744SOL     OW18064   0.174   5.563   3.214
38744SOL    HW118065   0.190   5.472   3.236
38744SOL    HW218066   0.214   5.574   3.128
38745SOL     OW18067   5.178  10.174   7.074
38745SOL    HW118068   5.174  10.125   6.992
38745SOL    HW218069   5.092  10.162   7.114
38746SOL     OW18070  12.109   9.796   6.177
38746SOL    HW118071  12.145   9.707   6.189
38746SOL    HW218072  12.137   9.822   6.090
38747SOL     OW18073   8.129   7.055  13.083
38747SOL    HW118074   8.159   6.966  13.099
38747SOL    HW218075   8.088   7.081  13.166
38748SOL     OW18076   1.562  12.895   2.904
38748SOL    HW118077   1.477  12.885   2.860
38748SOL    HW218078   1.623  12.845   2.850
38749SOL     OW18079   9.950  12.688   1.180
38749SOL    HW118080   9.918  12.610   1.135
38749SOL    HW218081   9.879  12.752   1.168
38750SOL     OW18082   7.737  13.860  12.403
38750SOL    HW118083   7.823  13.823  12.419
38750SOL    HW218084   7.676  13.794  12.435
38751SOL     OW18085  12.708   6.206   4.669
38751SOL    HW118086  12.745   6.118   4.666
38751SOL    HW218087  12.771   6.257   4.721
38752SOL     OW18088  13.207   4.496  10.484
38752SOL    HW118089  13.164   4.456  10.559
38752SOL    HW218090  13.234   4.583  10.514
38753SOL     OW18091   0.789  14.029   1.769
38753SOL    HW118092   0.872  14.043   1.723
38753SOL    HW218093   0.724  14.019   1.699
38754SOL     OW18094   8.168  12.611   6.222
38754SOL    HW118095   8.090  12.655   6.257
38754SOL    HW218096   8.201  12.558   6.294
38755SOL     OW18097   9.530  10.328  12.386
38755SOL    HW118098   9.457  10.266  12.381
38755SOL    HW218099   9.501  10.403  12.334
38756SOL     OW18100   7.093   7.394   4.138
38756SOL    HW118101   7.090   7.481   4.178
38756SOL    HW218102   7.017   7.391   4.081
38757SOL     OW18103  12.363   1.831   5.462
38757SOL    HW118104  12.361   1.736   5.447
38757SOL    HW218105  12.369   1.840   5.557
38758SOL     OW18106   4.106   9.115   6.478
38758SOL    HW118107   4.159   9.037   6.496
38758SOL    HW218108   4.168   9.179   6.444
38759SOL     OW18109   1.533  13.137   8.594
38759SOL    HW118110   1.579  13.115   8.675
38759SOL    HW218111   1.455  13.184   8.622
38760SOL     OW18112  11.719   1.578   5.617
38760SOL    HW118113  11.689   1.614   5.533
38760SOL    HW218114  11.799   1.627   5.637
38761SOL     OW18115   3.237  14.736   6.506
38761SOL    HW118116   3.256  14.820   6.547
38761SOL    HW218117   3.287  14.737   6.425
38762SOL     OW18118  13.710   7.449  11.133
38762SOL    HW118119  13.716   7.413  11.045
38762SOL    HW218120  13.787   7.505  11.142
38763SOL     OW18121  10.215   9.665  10.050
38763SOL    HW118122  10.246   9.650  10.139
38763SOL    HW218123  10.222   9.580  10.007
38764SOL     OW18124   8.842   1.119  10.724
38764SOL    HW118125   8.900   1.081  10.790
38764SOL    HW218126   8.769   1.155  10.774
38765SOL     OW18127  14.779   7.976   5.363
38765SOL    HW118128  14.872   7.975   5.385
38765SOL    HW218129  14.744   7.896   5.400
38766SOL     OW18130   1.693   6.766   5.959
38766SOL    HW118131   1.747   6.830   5.914
38766SOL    HW218132   1.615   6.755   5.904
38767SOL     OW18133  14.592   3.922   8.383
38767SOL    HW118134  14.668   3.924   8.442
38767SOL    HW218135  14.628   3.896   8.298
38768SOL     OW18136  14.703  11.049   3.872
38768SOL    HW118137  14.690  11.024   3.964
38768SOL    HW218138  14.672  10.975   3.822
38769SOL     OW18139   3.295  10.414   3.807
38769SOL    HW118140   3.228  10.347   3.821
38769SOL    HW218141   3.308  10.454   3.893
38770SOL     OW18142   3.537   0.668   5.770
38770SOL    HW118143   3.599   0.631   5.833
38770SOL    HW218144   3.462   0.696   5.823
38771SOL     OW18145   7.210   6.922   7.516
38771SOL    HW118146   7.189   6.885   7.430
38771SOL    HW218147   7.219   7.016   7.500
38772SOL     OW18148   2.669  11.730  11.166
38772SOL    HW118149   2.582  11.762  11.190
38772SOL    HW218150   2.654  11.676  11.089
38773SOL     OW18151   3.310   6.284  14.296
38773SOL    HW118152   3.336   6.211  14.352
38773SOL    HW218153   3.309   6.247  14.207
38774SOL     OW18154   1.213   6.004   1.877
38774SOL    HW118155   1.295   6.003   1.828
38774SOL    HW218156   1.238   6.032   1.965
38775SOL     OW18157   8.979  13.970   3.539
38775SOL    HW118158   9.043  13.999   3.474
38775SOL    HW218159   9.000  14.019   3.618
38776SOL     OW18160   8.923   5.028   8.934
38776SOL    HW118161   8.986   5.042   9.005
38776SOL    HW218162   8.976   5.027   8.855
38777SOL     OW18163  12.298   6.027  12.732
38777SOL    HW118164  12.350   6.107  12.722
38777SOL    HW218165  12.324   5.991  12.817
38778SOL     OW18166   4.344  11.103   1.910
38778SOL    HW118167   4.257  11.105   1.870
38778SOL    HW218168   4.346  11.179   1.968
38779SOL     OW18169   9.818   6.968   7.596
38779SOL    HW118170   9.779   6.924   7.672
38779SOL    HW218171   9.912   6.954   7.606
38780SOL     OW18172   5.053   6.856  13.912
38780SOL    HW118173   4.968   6.813  13.919
38780SOL    HW218174   5.093   6.844  13.998
38781SOL     OW18175   5.667   0.021  11.679
38781SOL    HW118176   5.733  14.834  11.701
38781SOL    HW218177   5.616   0.033  11.759
38782SOL     OW18178  12.748   0.778   7.405
38782SOL    HW118179  12.661   0.805   7.432
38782SOL    HW218180  12.765   0.827   7.324
38783SOL     OW18181  12.336   6.381  13.455
38783SOL    HW118182  12.282   6.379  13.376
38783SOL    HW218183  12.395   6.455  13.441
38784SOL     OW18184   7.056   6.692   4.770
38784SOL    HW118185   7.137   6.640   4.774
38784SOL    HW218186   7.085   6.782   4.789
38785SOL     OW18187  13.000   1.776  14.876
38785SOL    HW118188  12.912   1.739  14.874
38785SOL    HW218189  13.058   1.700   0.002
38786SOL     OW18190   6.807   9.714  10.959
38786SOL    HW118191   6.727   9.690  10.912
38786SOL    HW218192   6.862   9.635  10.956
38787SOL     OW18193  11.176   6.096   9.354
38787SOL    HW118194  11.136   6.013   9.327
38787SOL    HW218195  11.113   6.135   9.414
38788SOL     OW18196   8.153   4.744   1.612
38788SOL    HW118197   8.199   4.827   1.622
38788SOL    HW218198   8.222   4.679   1.599
38789SOL     OW18199   6.249   1.750   3.818
38789SOL    HW118200   6.320   1.760   3.880
38789SOL    HW218201   6.288   1.703   3.744
38790SOL     OW18202  10.917   0.442   8.246
38790SOL    HW118203  10.949   0.365   8.199
38790SOL    HW218204  10.890   0.502   8.178
38791SOL     OW18205   4.940   1.183   8.560
38791SOL    HW118206   4.986   1.185   8.644
38791SOL    HW218207   5.001   1.222   8.498
38792SOL     OW18208   3.182   2.839   9.275
38792SOL    HW118209   3.177   2.819   9.181
38792SOL    HW218210   3.127   2.917   9.286
38793SOL     OW18211   7.276   5.176   2.175
38793SOL    HW118212   7.269   5.216   2.262
38793SOL    HW218213   7.369   5.180   2.154
38794SOL     OW18214  12.678   9.418  12.125
38794SOL    HW118215  12.762   9.395  12.084
38794SOL    HW218216  12.617   9.351  12.094
38795SOL     OW18217  14.040   2.240   0.006
38795SOL    HW118218  14.028   2.169   0.069
38795SOL    HW218219  13.977   2.220  14.815
38796SOL     OW18220   4.456   5.669  14.417
38796SOL    HW118221   4.544   5.632  14.425
38796SOL    HW218222   4.432   5.652  14.326
38797SOL     OW18223   1.446   7.683   8.382
38797SOL    HW118224   1.478   7.655   8.467
38797SOL    HW218225   1.424   7.601   8.337
38798SOL     OW18226   1.647  11.555  14.478
38798SOL    HW118227   1.563  11.510  14.477
38798SOL    HW218228   1.711  11.484  14.486
38799SOL     OW18229   1.565   2.138   8.091
38799SOL    HW118230   1.589   2.179   8.174
38799SOL    HW218231   1.490   2.188   8.060
38800SOL     OW18232   5.245   1.530  10.819
38800SOL    HW118233   5.178   1.470  10.789
38800SOL    HW218234   5.258   1.508  10.911
38801SOL     OW18235   9.275   6.379   5.818
38801SOL    HW118236   9.266   6.453   5.758
38801SOL    HW218237   9.301   6.419   5.902
38802SOL     OW18238   8.452   0.003   1.956
38802SOL    HW118239   8.392  14.814   1.988
38802SOL    HW218240   8.539  14.842   1.961
38803SOL     OW18241   7.811   3.867  13.913
38803SOL    HW118242   7.849   3.923  13.846
38803SOL    HW218243   7.835   3.778  13.887
38804SOL     OW18244  14.778   2.128   0.393
38804SOL    HW118245  14.736   2.115   0.308
38804SOL    HW218246  14.707   2.128   0.456
38805SOL     OW18247   4.710   4.438   3.306
38805SOL    HW118248   4.630   4.385   3.309
38805SOL    HW218249   4.686   4.517   3.258
38806SOL     OW18250   2.197  11.253   4.555
38806SOL    HW118251   2.140  11.328   4.573
38806SOL    HW218252   2.271  11.290   4.508
38807SOL     OW18253   4.018   9.499  12.941
38807SOL    HW118254   3.986   9.474  12.854
38807SOL    HW218255   4.094   9.555  12.924
38808SOL     OW18256   2.355  10.986  13.323
38808SOL    HW118257   2.267  11.021  13.308
38808SOL    HW218258   2.403  11.058  13.365
38809SOL     OW18259   8.229  13.358  12.533
38809SOL    HW118260   8.136  13.350  12.511
38809SOL    HW218261   8.248  13.279  12.584
38810SOL     OW18262   0.721   0.211   3.744
38810SOL    HW118263   0.736   0.117   3.751
38810SOL    HW218264   0.747   0.233   3.655
38811SOL     OW18265   7.627  11.076   9.847
38811SOL    HW118266   7.680  11.155   9.839
38811SOL    HW218267   7.538  11.104   9.826
38812SOL     OW18268   7.564   1.007   9.967
38812SOL    HW118269   7.514   0.940  10.013
38812SOL    HW218270   7.513   1.026   9.889
38813SOL     OW18271   8.971   3.732   5.648
38813SOL    HW118272   9.049   3.706   5.697
38813SOL    HW218273   8.958   3.662   5.585
38814SOL     OW18274   9.112   8.484  12.270
38814SOL    HW118275   9.106   8.406  12.216
38814SOL    HW218276   9.062   8.551  12.222
38815SOL     OW18277  11.892  12.195   1.245
38815SOL    HW118278  11.836  12.257   1.294
38815SOL    HW218279  11.936  12.144   1.313
38816SOL     OW18280   8.456  13.420   4.189
38816SOL    HW118281   8.405  13.341   4.204
38816SOL    HW218282   8.463  13.461   4.275
38817SOL     OW18283   2.074   6.567   5.978
38817SOL    HW118284   2.152   6.612   6.009
38817SOL    HW218285   2.010   6.577   6.049
38818SOL     OW18286  13.628   8.359   9.868
38818SOL    HW118287  13.648   8.301   9.942
38818SOL    HW218288  13.636   8.447   9.905
38819SOL     OW18289  11.434   1.087   4.287
38819SOL    HW118290  11.492   1.162   4.274
38819SOL    HW218291  11.487   1.022   4.332
38820SOL     OW18292  14.575  14.461  10.060
38820SOL    HW118293  14.627  14.405  10.118
38820SOL    HW218294  14.531  14.523  10.119
38821SOL     OW18295   9.399   2.357   1.278
38821SOL    HW118296   9.403   2.337   1.184
38821SOL    HW218297   9.453   2.435   1.288
38822SOL     OW18298  10.420   7.137   0.618
38822SOL    HW118299  10.465   7.052   0.620
38822SOL    HW218300  10.459   7.183   0.543
38823SOL     OW18301   0.401   7.663  10.897
38823SOL    HW118302   0.479   7.715  10.878
38823SOL    HW218303   0.357   7.653  10.813
38824SOL     OW18304   9.934  14.478   9.000
38824SOL    HW118305   9.849  14.439   8.978
38824SOL    HW218306   9.927  14.569   8.971
38825SOL     OW18307  10.446   1.655  14.439
38825SOL    HW118308  10.461   1.619  14.526
38825SOL    HW218309  10.532   1.686  14.411
38826SOL     OW18310   6.041  13.810   6.923
38826SOL    HW118311   6.053  13.720   6.954
38826SOL    HW218312   6.029  13.801   6.829
38827SOL     OW18313  14.682  10.087   9.821
38827SOL    HW118314  14.721  10.047   9.898
38827SOL    HW218315  14.607  10.136   9.854
38828SOL     OW18316   7.195  12.340   5.314
38828SOL    HW118317   7.177  12.246   5.309
38828SOL    HW218318   7.251  12.349   5.392
38829SOL     OW18319   1.825   9.201   9.961
38829SOL    HW118320   1.916   9.191   9.933
38829SOL    HW218321   1.817   9.144  10.037
38830SOL     OW18322   2.172   4.285   6.972
38830SOL    HW118323   2.263   4.256   6.969
38830SOL    HW218324   2.165   4.347   6.900
38831SOL     OW18325   8.592   8.440   8.554
38831SOL    HW118326   8.538   8.361   8.544
38831SOL    HW218327   8.546   8.507   8.505
38832SOL     OW18328  11.681   2.781   8.897
38832SOL    HW118329  11.677   2.767   8.991
38832SOL    HW218330  11.598   2.749   8.863
38833SOL     OW18331  14.329   7.834   0.008
38833SOL    HW118332  14.344   7.927  14.871
38833SOL    HW218333  14.323   7.795  14.800
38834SOL     OW18334  13.088   9.794   4.748
38834SOL    HW118335  12.997   9.822   4.736
38834SOL    HW218336  13.118   9.844   4.824
38835SOL     OW18337   5.432   7.988   0.987
38835SOL    HW118338   5.364   7.979   0.920
38835SOL    HW218339   5.500   7.927   0.960
38836SOL     OW18340   9.698   1.346   9.617
38836SOL    HW118341   9.773   1.398   9.644
38836SOL    HW218342   9.671   1.385   9.534
38837SOL     OW18343   4.127   9.549   2.330
38837SOL    HW118344   4.201   9.507   2.287
38837SOL    HW218345   4.153   9.556   2.422
38838SOL     OW18346   7.890  13.821   8.458
38838SOL    HW118347   7.966  13.828   8.401
38838SOL    HW218348   7.830  13.888   8.427
38839SOL     OW18349   8.312   2.396   4.882
38839SOL    HW118350   8.352   2.461   4.826
38839SOL    HW218351   8.220   2.422   4.888
38840SOL     OW18352   7.464  10.195   7.271
38840SOL    HW118353   7.552  10.220   7.245
38840SOL    HW218354   7.476  10.120   7.329
38841SOL     OW18355  13.387   3.373  12.504
38841SOL    HW118356  13.401   3.392  12.597
38841SOL    HW218357  13.401   3.457  12.460
38842SOL     OW18358  11.259  14.878   6.840
38842SOL    HW118359  11.280   0.042   6.756
38842SOL    HW218360  11.164   0.008   6.848
38843SOL     OW18361  14.849   6.378  11.531
38843SOL    HW118362   0.063   6.356  11.519
38843SOL    HW218363  14.809   6.359  11.447
38844SOL     OW18364   5.170   3.817   7.025
38844SOL    HW118365   5.251   3.765   7.023
38844SOL    HW218366   5.200   3.907   7.039
38845SOL     OW18367   0.129   6.390   9.163
38845SOL    HW118368   0.131   6.446   9.241
38845SOL    HW218369   0.149   6.302   9.195
38846SOL     OW18370   8.769   6.253   6.240
38846SOL    HW118371   8.771   6.347   6.255
38846SOL    HW218372   8.852   6.233   6.197
38847SOL     OW18373  10.495   8.068   5.277
38847SOL    HW118374  10.438   8.035   5.347
38847SOL    HW218375  10.526   7.990   5.232
38848SOL     OW18376  10.210  14.281   3.459
38848SOL    HW118377  10.297  14.277   3.499
38848SOL    HW218378  10.217  14.351   3.393
38849SOL     OW18379  10.502  13.555  14.656
38849SOL    HW118380  10.594  13.578  14.672
38849SOL    HW218381  10.453  13.613  14.714
38850SOL     OW18382   2.610   0.580   6.627
38850SOL    HW118383   2.557   0.546   6.699
38850SOL    HW218384   2.666   0.506   6.602
38851SOL     OW18385   8.970   4.321   7.345
38851SOL    HW118386   8.998   4.335   7.436
38851SOL    HW218387   8.960   4.409   7.310
38852SOL     OW18388   4.363  13.997   7.027
38852SOL    HW118389   4.369  13.977   6.933
38852SOL    HW218390   4.454  13.995   7.058
38853SOL     OW18391  11.702  10.401   5.889
38853SOL    HW118392  11.676  10.332   5.951
38853SOL    HW218393  11.771  10.449   5.934
38854SOL     OW18394   4.443   8.185  12.689
38854SOL    HW118395   4.352   8.160  12.679
38854SOL    HW218396   4.449   8.271  12.646
38855SOL     OW18397  12.491   0.302  12.111
38855SOL    HW118398  12.519   0.211  12.102
38855SOL    HW218399  12.536   0.348  12.040
38856SOL     OW18400  12.411   7.362   8.331
38856SOL    HW118401  12.326   7.406   8.328
38856SOL    HW218402  12.397   7.277   8.291
38857SOL     OW18403  12.157  11.186  12.820
38857SOL    HW118404  12.241  11.189  12.775
38857SOL    HW218405  12.094  11.161  12.752
38858SOL     OW18406   6.602   6.737   9.597
38858SOL    HW118407   6.624   6.691   9.515
38858SOL    HW218408   6.514   6.705   9.619
38859SOL     OW18409  11.970  11.616   0.916
38859SOL    HW118410  11.956  11.549   0.983
38859SOL    HW218411  11.882  11.647   0.894
38860SOL     OW18412  12.333  13.293   9.038
38860SOL    HW118413  12.403  13.351   9.009
38860SOL    HW218414  12.335  13.220   8.976
38861SOL     OW18415   0.967   5.326   0.533
38861SOL    HW118416   0.936   5.271   0.461
38861SOL    HW218417   1.045   5.369   0.498
38862SOL     OW18418  10.034   5.210  13.377
38862SOL    HW118419   9.989   5.293  13.363
38862SOL    HW218420   9.968   5.152  13.414
38863SOL     OW18421  13.963  14.726   0.278
38863SOL    HW118422  14.003  14.644   0.306
38863SOL    HW218423  13.869  14.709   0.280
38864SOL     OW18424   8.501  12.478  14.103
38864SOL    HW118425   8.588  12.450  14.134
38864SOL    HW218426   8.464  12.400  14.063
38865SOL     OW18427   6.103   9.135  10.458
38865SOL    HW118428   6.083   9.105  10.369
38865SOL    HW218429   6.192   9.105  10.474
38866SOL     OW18430   3.332  11.878   9.373
38866SOL    HW118431   3.322  11.788   9.406
38866SOL    HW218432   3.297  11.875   9.284
38867SOL     OW18433   4.213   5.679  14.595
38867SOL    HW118434   4.119   5.672  14.574
38867SOL    HW218435   4.257   5.659  14.513
38868SOL     OW18436  13.158  11.005   8.134
38868SOL    HW118437  13.193  10.949   8.204
38868SOL    HW218438  13.073  10.967   8.114
38869SOL     OW18439   5.583   5.433  11.809
38869SOL    HW118440   5.527   5.494  11.858
38869SOL    HW218441   5.522   5.385  11.753
38870SOL     OW18442  13.070   6.992   6.336
38870SOL    HW118443  13.163   6.969   6.343
38870SOL    HW218444  13.038   6.939   6.263
38871SOL     OW18445   9.594  14.751   2.643
38871SOL    HW118446   9.530  14.817   2.620
38871SOL    HW218447   9.662  14.758   2.576
38872SOL     OW18448   3.948   8.271   8.727
38872SOL    HW118449   4.009   8.329   8.772
38872SOL    HW218450   3.969   8.282   8.634
38873SOL     OW18451   9.014   8.930  13.788
38873SOL    HW118452   9.033   8.837  13.804
38873SOL    HW218453   8.976   8.961  13.869
38874SOL     OW18454   5.166   5.969  11.278
38874SOL    HW118455   5.201   5.920  11.203
38874SOL    HW218456   5.096   6.022  11.241
38875SOL     OW18457  11.346   4.896   3.546
38875SOL    HW118458  11.273   4.875   3.487
38875SOL    HW218459  11.303   4.922   3.627
38876SOL     OW18460   4.450   4.943   8.593
38876SOL    HW118461   4.367   4.899   8.615
38876SOL    HW218462   4.517   4.877   8.611
38877SOL     OW18463  11.908  10.557  14.477
38877SOL    HW118464  11.901  10.567  14.382
38877SOL    HW218465  11.817  10.547  14.506
38878SOL     OW18466   6.220   0.623   5.245
38878SOL    HW118467   6.308   0.646   5.216
38878SOL    HW218468   6.166   0.696   5.215
38879SOL     OW18469  12.648   2.276   4.428
38879SOL    HW118470  12.598   2.218   4.486
38879SOL    HW218471  12.647   2.361   4.473
38880SOL     OW18472   2.517  11.922   3.924
38880SOL    HW118473   2.509  11.828   3.940
38880SOL    HW218474   2.442  11.961   3.969
38881SOL     OW18475   4.759  13.885  10.463
38881SOL    HW118476   4.794  13.857  10.379
38881SOL    HW218477   4.666  13.902  10.446
38882SOL     OW18478   9.297  13.087   7.804
38882SOL    HW118479   9.262  13.176   7.809
38882SOL    HW218480   9.267  13.054   7.719
38883SOL     OW18481   2.386   7.365  11.557
38883SOL    HW118482   2.302   7.353  11.514
38883SOL    HW218483   2.369   7.428  11.627
38884SOL     OW18484  12.555  14.224  11.977
38884SOL    HW118485  12.520  14.291  12.034
38884SOL    HW218486  12.626  14.267  11.930
38885SOL     OW18487  12.844   4.712   0.324
38885SOL    HW118488  12.788   4.763   0.382
38885SOL    HW218489  12.932   4.746   0.339
38886SOL     OW18490   1.363  12.183   8.534
38886SOL    HW118491   1.438  12.197   8.476
38886SOL    HW218492   1.306  12.123   8.486
38887SOL     OW18493   8.169  11.188   8.338
38887SOL    HW118494   8.176  11.248   8.412
38887SOL    HW218495   8.075  11.182   8.321
38888SOL     OW18496   6.456   9.686   0.423
38888SOL    HW118497   6.535   9.731   0.453
38888SOL    HW218498   6.489   9.611   0.373
38889SOL     OW18499  11.027  10.502   3.782
38889SOL    HW118500  10.934  10.497   3.801
38889SOL    HW218501  11.034  10.572   3.716
38890SOL     OW18502   3.670  10.171   6.843
38890SOL    HW118503   3.691  10.255   6.803
38890SOL    HW218504   3.713  10.173   6.928
38891SOL     OW18505   5.758   4.719   9.557
38891SOL    HW118506   5.683   4.673   9.595
38891SOL    HW218507   5.748   4.707   9.462
38892SOL     OW18508   4.917  12.354  12.753
38892SOL    HW118509   4.982  12.344  12.823
38892SOL    HW218510   4.968  12.360  12.673
38893SOL     OW18511   9.051   8.966  11.943
38893SOL    HW118512   9.045   9.033  12.012
38893SOL    HW218513   9.144   8.946  11.937
38894SOL     OW18514   9.314  12.469   3.547
38894SOL    HW118515   9.362  12.541   3.508
38894SOL    HW218516   9.305  12.404   3.477
38895SOL     OW18517   0.004  10.500   2.710
38895SOL    HW118518  14.858  10.591   2.693
38895SOL    HW218519   0.005  10.492   2.805
38896SOL     OW18520  13.330   0.759   7.172
38896SOL    HW118521  13.333   0.782   7.079
38896SOL    HW218522  13.256   0.700   7.179
38897SOL     OW18523   9.941   3.789  13.976
38897SOL    HW118524   9.933   3.875  14.019
38897SOL    HW218525   9.967   3.810  13.886
38898SOL     OW18526   3.982   2.245  12.894
38898SOL    HW118527   4.068   2.246  12.854
38898SOL    HW218528   3.931   2.310  12.846
38899SOL     OW18529   7.444   6.004   2.204
38899SOL    HW118530   7.459   6.094   2.232
38899SOL    HW218531   7.474   5.950   2.277
38900SOL     OW18532   1.166   2.112  12.832
38900SOL    HW118533   1.215   2.061  12.898
38900SOL    HW218534   1.217   2.192  12.821
38901SOL     OW18535  13.721  13.530  14.261
38901SOL    HW118536  13.743  13.604  14.318
38901SOL    HW218537  13.629  13.511  14.279
38902SOL     OW18538  12.110   8.843   9.803
38902SOL    HW118539  12.022   8.805   9.800
38902SOL    HW218540  12.111   8.896   9.882
38903SOL     OW18541  10.681   4.232   1.075
38903SOL    HW118542  10.728   4.263   0.998
38903SOL    HW218543  10.606   4.184   1.040
38904SOL     OW18544   5.563   6.634   0.655
38904SOL    HW118545   5.550   6.635   0.750
38904SOL    HW218546   5.579   6.726   0.632
38905SOL     OW18547  11.539   3.379   4.015
38905SOL    HW118548  11.631   3.390   3.992
38905SOL    HW218549  11.494   3.373   3.931
38906SOL     OW18550   3.405   3.132   2.143
38906SOL    HW118551   3.409   3.048   2.189
38906SOL    HW218552   3.488   3.138   2.096
38907SOL     OW18553   9.454  13.825   3.243
38907SOL    HW118554   9.401  13.851   3.168
38907SOL    HW218555   9.461  13.730   3.237
38908SOL     OW18556  12.173   7.390   3.385
38908SOL    HW118557  12.110   7.355   3.448
38908SOL    HW218558  12.169   7.330   3.311
38909SOL     OW18559  11.101   2.151   8.223
38909SOL    HW118560  11.036   2.163   8.153
38909SOL    HW218561  11.065   2.200   8.297
38910SOL     OW18562  12.248  12.040  10.339
38910SOL    HW118563  12.171  12.097  10.341
38910SOL    HW218564  12.248  11.996  10.424
38911SOL     OW18565   0.558  12.803   1.268
38911SOL    HW118566   0.536  12.766   1.182
38911SOL    HW218567   0.626  12.745   1.302
38912SOL     OW18568   2.610   1.762   2.063
38912SOL    HW118569   2.672   1.806   2.005
38912SOL    HW218570   2.609   1.817   2.142
38913SOL     OW18571   7.441   9.157   1.898
38913SOL    HW118572   7.480   9.086   1.950
38913SOL    HW218573   7.350   9.161   1.927
38914SOL     OW18574   0.700   1.293   1.757
38914SOL    HW118575   0.606   1.275   1.762
38914SOL    HW218576   0.735   1.221   1.705
38915SOL     OW18577  12.020  12.308  11.905
38915SOL    HW118578  11.927  12.305  11.884
38915SOL    HW218579  12.025  12.353  11.989
38916SOL     OW18580   7.223   4.767   7.363
38916SOL    HW118581   7.167   4.799   7.293
38916SOL    HW218582   7.243   4.677   7.339
38917SOL     OW18583  14.736   9.179   9.649
38917SOL    HW118584  14.734   9.266   9.688
38917SOL    HW218585  14.794   9.187   9.573
38918SOL     OW18586  13.388   7.455  11.918
38918SOL    HW118587  13.355   7.495  11.837
38918SOL    HW218588  13.325   7.481  11.985
38919SOL     OW18589  11.373   7.523   7.237
38919SOL    HW118590  11.280   7.544   7.249
38919SOL    HW218591  11.419   7.591   7.285
38920SOL     OW18592  11.572   2.851   9.141
38920SOL    HW118593  11.593   2.944   9.128
38920SOL    HW218594  11.617   2.829   9.223
38921SOL     OW18595   6.719  14.097   2.129
38921SOL    HW118596   6.629  14.091   2.096
38921SOL    HW218597   6.769  14.035   2.075
38922SOL     OW18598   2.656  14.810   4.242
38922SOL    HW118599   2.607  14.728   4.242
38922SOL    HW218600   2.719  14.800   4.170
38923SOL     OW18601  13.673   0.520   6.722
38923SOL    HW118602  13.710   0.436   6.692
38923SOL    HW218603  13.688   0.519   6.816
38924SOL     OW18604   6.449  10.888  11.003
38924SOL    HW118605   6.533  10.852  11.028
38924SOL    HW218606   6.448  10.976  11.040
38925SOL     OW18607  10.786   9.409   1.595
38925SOL    HW118608  10.767   9.431   1.504
38925SOL    HW218609  10.874   9.443   1.611
38926SOL     OW18610   0.222   7.125  11.312
38926SOL    HW118611   0.194   7.046  11.266
38926SOL    HW218612   0.313   7.138  11.284
38927SOL     OW18613   7.996  13.742  10.605
38927SOL    HW118614   7.954  13.817  10.563
38927SOL    HW218615   8.081  13.775  10.634
38928SOL     OW18616   9.160   9.808  12.646
38928SOL    HW118617   9.225   9.796  12.715
38928SOL    HW218618   9.111   9.886  12.674
38929SOL     OW18619   6.901   3.641   4.226
38929SOL    HW118620   6.974   3.634   4.287
38929SOL    HW218621   6.908   3.730   4.190
38930SOL     OW18622   1.355  13.751  12.853
38930SOL    HW118623   1.437  13.702  12.844
38930SOL    HW218624   1.357  13.786  12.942
38931SOL     OW18625   0.415   7.825  13.033
38931SOL    HW118626   0.429   7.733  13.055
38931SOL    HW218627   0.491   7.850  12.981
38932SOL     OW18628  13.218   5.793   0.635
38932SOL    HW118629  13.295   5.752   0.595
38932SOL    HW218630  13.193   5.862   0.574
38933SOL     OW18631  13.902   4.971   2.902
38933SOL    HW118632  13.954   5.038   2.859
38933SOL    HW218633  13.949   4.951   2.983
38934SOL     OW18634   6.007   1.112  14.294
38934SOL    HW118635   6.047   1.025  14.299
38934SOL    HW218636   5.978   1.120  14.203
38935SOL     OW18637  10.638   3.227   9.157
38935SOL    HW118638  10.709   3.286   9.184
38935SOL    HW218639  10.612   3.182   9.238
38936SOL     OW18640   8.566  11.149   5.185
38936SOL    HW118641   8.481  11.192   5.175
38936SOL    HW218642   8.561  11.105   5.270
38937SOL     OW18643  10.084   3.654   8.891
38937SOL    HW118644  10.153   3.676   8.953
38937SOL    HW218645  10.104   3.707   8.813
38938SOL     OW18646   2.247   2.015   6.904
38938SOL    HW118647   2.260   2.044   6.813
38938SOL    HW218648   2.308   1.942   6.914
38939SOL     OW18649   0.103   6.746   9.257
38939SOL    HW118650   0.014   6.725   9.285
38939SOL    HW218651   0.092   6.794   9.175
38940SOL     OW18652   9.619   6.259  12.667
38940SOL    HW118653   9.570   6.227  12.743
38940SOL    HW218654   9.645   6.180  12.620
38941SOL     OW18655   8.130   9.966   3.380
38941SOL    HW118656   8.149   9.951   3.288
38941SOL    HW218657   8.123  10.061   3.389
38942SOL     OW18658   3.358   2.865   7.782
38942SOL    HW118659   3.325   2.843   7.695
38942SOL    HW218660   3.384   2.957   7.776
38943SOL     OW18661  11.424   1.634  13.240
38943SOL    HW118662  11.354   1.689  13.274
38943SOL    HW218663  11.394   1.605  13.154
38944SOL     OW18664   3.155  11.614  10.051
38944SOL    HW118665   3.156  11.709  10.041
38944SOL    HW218666   3.138  11.580   9.963
38945SOL     OW18667   6.345   4.987  13.446
38945SOL    HW118668   6.375   4.965  13.358
38945SOL    HW218669   6.407   4.943  13.505
38946SOL     OW18670   8.572   9.079  14.323
38946SOL    HW118671   8.534   9.104  14.238
38946SOL    HW218672   8.497   9.073  14.382
38947SOL     OW18673   1.562   1.416  10.577
38947SOL    HW118674   1.519   1.415  10.663
38947SOL    HW218675   1.530   1.338  10.533
38948SOL     OW18676   6.859   7.207  10.295
38948SOL    HW118677   6.890   7.291  10.328
38948SOL    HW218678   6.906   7.195  10.212
38949SOL     OW18679  10.345  12.596  14.043
38949SOL    HW118680  10.387  12.613  14.127
38949SOL    HW218681  10.307  12.680  14.017
38950SOL     OW18682   2.738   7.942  11.150
38950SOL    HW118683   2.712   7.850  11.150
38950SOL    HW218684   2.789   7.953  11.070
38951SOL     OW18685   8.763   0.915   9.949
38951SOL    HW118686   8.776   0.821   9.953
38951SOL    HW218687   8.719   0.936  10.032
38952SOL     OW18688   5.630   9.252   6.613
38952SOL    HW118689   5.697   9.283   6.674
38952SOL    HW218690   5.593   9.331   6.576
38953SOL     OW18691  13.507   8.188  10.660
38953SOL    HW118692  13.420   8.156  10.640
38953SOL    HW218693  13.506   8.280  10.636
38954SOL     OW18694  12.522   7.847  12.332
38954SOL    HW118695  12.526   7.752  12.318
38954SOL    HW218696  12.487   7.857  12.420
38955SOL     OW18697   8.479   3.610   0.969
38955SOL    HW118698   8.532   3.627   0.891
38955SOL    HW218699   8.416   3.543   0.941
38956SOL     OW18700   6.753   8.504   4.780
38956SOL    HW118701   6.741   8.413   4.804
38956SOL    HW218702   6.816   8.538   4.844
38957SOL     OW18703  12.364   1.839  11.182
38957SOL    HW118704  12.291   1.786  11.215
38957SOL    HW218705  12.356   1.922  11.230
38958SOL     OW18706   6.758   6.598   3.768
38958SOL    HW118707   6.853   6.598   3.760
38958SOL    HW218708   6.741   6.618   3.860
38959SOL     OW18709   2.376   0.830   8.304
38959SOL    HW118710   2.437   0.764   8.337
38959SOL    HW218711   2.363   0.889   8.379
38960SOL     OW18712  12.734   4.261  11.117
38960SOL    HW118713  12.787   4.193  11.158
38960SOL    HW218714  12.727   4.234  11.025
38961SOL     OW18715   2.097   7.642  11.563
38961SOL    HW118716   2.128   7.624  11.474
38961SOL    HW218717   2.101   7.558  11.608
38962SOL     OW18718  11.679   6.623  10.672
38962SOL    HW118719  11.620   6.620  10.748
38962SOL    HW218720  11.731   6.542  10.679
38963SOL     OW18721  13.807   3.054   5.781
38963SOL    HW118722  13.726   3.102   5.764
38963SOL    HW218723  13.849   3.102   5.853
38964SOL     OW18724   2.966  11.723   1.673
38964SOL    HW118725   3.018  11.769   1.607
38964SOL    HW218726   2.881  11.769   1.673
38965SOL     OW18727   3.141  10.198  10.927
38965SOL    HW118728   3.164  10.144  11.002
38965SOL    HW218729   3.127  10.285  10.963
38966SOL     OW18730   0.944   7.392   9.364
38966SOL    HW118731   0.937   7.302   9.395
38966SOL    HW218732   1.010   7.432   9.420
38967SOL     OW18733  14.406  14.472  11.859
38967SOL    HW118734  14.476  14.497  11.919
38967SOL    HW218735  14.326  14.501  11.902
38968SOL     OW18736  10.555   4.420   3.142
38968SOL    HW118737  10.559   4.516   3.135
38968SOL    HW218738  10.531   4.391   3.055
38969SOL     OW18739  10.428   1.918   8.820
38969SOL    HW118740  10.432   1.973   8.897
38969SOL    HW218741  10.364   1.850   8.842
38970SOL     OW18742   8.697   9.113   0.262
38970SOL    HW118743   8.645   9.177   0.213
38970SOL    HW218744   8.728   9.051   0.196
38971SOL     OW18745   1.171   3.501  13.526
38971SOL    HW118746   1.118   3.473  13.452
38971SOL    HW218747   1.247   3.544  13.485
38972SOL     OW18748   2.490   5.334  11.209
38972SOL    HW118749   2.570   5.315  11.259
38972SOL    HW218750   2.488   5.266  11.142
38973SOL     OW18751  12.337  13.420  11.756
38973SOL    HW118752  12.411  13.430  11.697
38973SOL    HW218753  12.295  13.506  11.758
38974SOL     OW18754   0.399  11.696   3.489
38974SOL    HW118755   0.407  11.764   3.423
38974SOL    HW218756   0.471  11.713   3.550
38975SOL     OW18757  10.963  14.484   1.980
38975SOL    HW118758  10.983  14.432   1.902
38975SOL    HW218759  10.905  14.553   1.949
38976SOL     OW18760  11.980  11.350   9.906
38976SOL    HW118761  12.018  11.339   9.993
38976SOL    HW218762  12.005  11.438   9.879
38977SOL     OW18763   5.811   4.500   2.540
38977SOL    HW118764   5.893   4.506   2.590
38977SOL    HW218765   5.822   4.562   2.468
38978SOL     OW18766  11.966   0.732  11.814
38978SOL    HW118767  11.976   0.669  11.885
38978SOL    HW218768  12.006   0.690  11.738
38979SOL     OW18769   9.991   5.363  13.061
38979SOL    HW118770  10.003   5.443  13.011
38979SOL    HW218771  10.022   5.293  13.003
38980SOL     OW18772  11.419   6.873  11.826
38980SOL    HW118773  11.470   6.817  11.884
38980SOL    HW218774  11.389   6.815  11.756
38981SOL     OW18775   4.854  14.140  12.695
38981SOL    HW118776   4.922  14.101  12.749
38981SOL    HW218777   4.816  14.209  12.750
38982SOL     OW18778  11.415   0.534   9.089
38982SOL    HW118779  11.410   0.563   9.181
38982SOL    HW218780  11.483   0.466   9.090
38983SOL     OW18781   0.876  11.784   2.016
38983SOL    HW118782   0.950  11.842   2.001
38983SOL    HW218783   0.812  11.838   2.062
38984SOL     OW18784  12.172   3.311   4.813
38984SOL    HW118785  12.104   3.309   4.880
38984SOL    HW218786  12.144   3.380   4.752
38985SOL     OW18787   2.334   7.056  10.942
38985SOL    HW118788   2.398   7.040  10.874
38985SOL    HW218789   2.330   6.974  10.992
38986SOL     OW18790   4.241   5.036   9.079
38986SOL    HW118791   4.314   4.974   9.076
38986SOL    HW218792   4.163   4.980   9.080
38987SOL     OW18793   1.490  11.700   6.718
38987SOL    HW118794   1.538  11.720   6.798
38987SOL    HW218795   1.511  11.609   6.700
38988SOL     OW18796   8.764   5.606  12.008
38988SOL    HW118797   8.832   5.610  11.940
38988SOL    HW218798   8.699   5.670  11.980
38989SOL     OW18799  11.257   6.976   9.263
38989SOL    HW118800  11.185   6.967   9.200
38989SOL    HW218801  11.247   6.901   9.321
38990SOL     OW18802   0.207   8.760   0.321
38990SOL    HW118803   0.267   8.736   0.391
38990SOL    HW218804   0.201   8.682   0.266
38991SOL     OW18805   3.933  11.536   3.033
38991SOL    HW118806   3.917  11.442   3.045
38991SOL    HW218807   3.980  11.562   3.112
38992SOL     OW18808   6.468   1.789   4.901
38992SOL    HW118809   6.412   1.718   4.933
38992SOL    HW218810   6.425   1.819   4.821
38993SOL     OW18811   8.129   5.340   6.967
38993SOL    HW118812   8.036   5.322   6.968
38993SOL    HW218813   8.148   5.360   6.875
38994SOL     OW18814   5.132   5.858   2.755
38994SOL    HW118815   5.091   5.775   2.731
38994SOL    HW218816   5.138   5.907   2.672
38995SOL     OW18817  11.511   6.108   1.957
38995SOL    HW118818  11.593   6.076   1.996
38995SOL    HW218819  11.445   6.044   1.983
38996SOL     OW18820   0.250   7.745   7.551
38996SOL    HW118821   0.239   7.658   7.590
38996SOL    HW218822   0.181   7.751   7.485
38997SOL     OW18823   8.040   0.493   7.634
38997SOL    HW118824   8.052   0.498   7.540
38997SOL    HW218825   8.127   0.510   7.670
38998SOL     OW18826   2.074   5.760  12.789
38998SOL    HW118827   2.060   5.726  12.701
38998SOL    HW218828   2.156   5.720  12.817
38999SOL     OW18829  10.387   7.732   3.899
38999SOL    HW118830  10.333   7.746   3.977
38999SOL    HW218831  10.324   7.716   3.829
39000SOL     OW18832   4.707   0.028   8.014
39000SOL    HW118833   4.657   0.103   7.981
39000SOL    HW218834   4.644  14.858   8.067
39001SOL     OW18835   1.391   3.063  11.409
39001SOL    HW118836   1.366   3.155  11.419
39001SOL    HW218837   1.308   3.016  11.405
39002SOL     OW18838  13.291   7.764   3.673
39002SOL    HW118839  13.227   7.704   3.633
39002SOL    HW218840  13.250   7.850   3.664
39003SOL     OW18841  10.052   1.039   3.593
39003SOL    HW118842   9.957   1.046   3.592
39003SOL    HW218843  10.074   0.995   3.510
39004SOL     OW18844   7.955   1.502   8.885
39004SOL    HW118845   7.929   1.477   8.974
39004SOL    HW218846   8.040   1.545   8.896
39005SOL     OW18847   5.637   9.319   1.582
39005SOL    HW118848   5.595   9.270   1.652
39005SOL    HW218849   5.570   9.325   1.513
39006SOL     OW18850   4.668  11.952   3.981
39006SOL    HW118851   4.641  11.983   3.894
39006SOL    HW218852   4.663  12.029   4.037
39007SOL     OW18853   1.189  10.291  13.273
39007SOL    HW118854   1.206  10.384  13.256
39007SOL    HW218855   1.161  10.288  13.364
39008SOL     OW18856   5.739   1.579   1.200
39008SOL    HW118857   5.757   1.487   1.221
39008SOL    HW218858   5.759   1.626   1.281
39009SOL     OW18859   5.829   5.135   0.759
39009SOL    HW118860   5.774   5.129   0.837
39009SOL    HW218861   5.780   5.189   0.697
39010SOL     OW18862   5.412   2.339   6.938
39010SOL    HW118863   5.495   2.368   6.975
39010SOL    HW218864   5.362   2.419   6.926
39011SOL     OW18865   5.751   6.956   7.813
39011SOL    HW118866   5.681   6.932   7.752
39011SOL    HW218867   5.783   7.041   7.781
39012SOL     OW18868  11.888   7.038   0.859
39012SOL    HW118869  11.954   7.039   0.928
39012SOL    HW218870  11.891   7.126   0.822
39013SOL     OW18871   4.187  10.390   0.678
39013SOL    HW118872   4.167  10.365   0.768
39013SOL    HW218873   4.179  10.485   0.678
39014SOL     OW18874   9.320  14.750   0.233
39014SOL    HW118875   9.288  14.840   0.239
39014SOL    HW218876   9.368  14.736   0.315
39015SOL     OW18877   3.996   8.430   7.546
39015SOL    HW118878   3.945   8.490   7.491
39015SOL    HW218879   4.071   8.482   7.575
39016SOL     OW18880   5.590   3.261  13.359
39016SOL    HW118881   5.573   3.349  13.395
39016SOL    HW218882   5.670   3.271  13.308
39017SOL     OW18883   8.942   0.743  10.308
39017SOL    HW118884   8.966   0.720  10.398
39017SOL    HW218885   8.848   0.759  10.311
39018SOL     OW18886  13.629   4.180   8.500
39018SOL    HW118887  13.611   4.126   8.423
39018SOL    HW218888  13.659   4.264   8.463
39019SOL     OW18889   1.694  11.140   7.925
39019SOL    HW118890   1.649  11.208   7.874
39019SOL    HW218891   1.734  11.188   7.997
39020SOL     OW18892   6.696   9.283   5.752
39020SOL    HW118893   6.614   9.257   5.794
39020SOL    HW218894   6.675   9.291   5.660
39021SOL     OW18895   8.975   5.873   0.170
39021SOL    HW118896   8.965   5.857   0.264
39021SOL    HW218897   8.948   5.964   0.158
39022SOL     OW18898   1.783   0.365   6.871
39022SOL    HW118899   1.837   0.347   6.949
39022SOL    HW218900   1.695   0.376   6.906
39023SOL     OW18901   6.897  10.871  13.098
39023SOL    HW118902   6.819  10.879  13.043
39023SOL    HW218903   6.933  10.785  13.076
39024SOL     OW18904   6.683  14.174   4.537
39024SOL    HW118905   6.729  14.185   4.454
39024SOL    HW218906   6.590  14.174   4.514
39025SOL     OW18907   0.135   0.483  13.835
39025SOL    HW118908   0.068   0.511  13.897
39025SOL    HW218909   0.107   0.521  13.751
39026SOL     OW18910   5.501   5.783   1.773
39026SOL    HW118911   5.523   5.759   1.684
39026SOL    HW218912   5.495   5.700   1.820
39027SOL     OW18913   1.482   9.071  10.086
39027SOL    HW118914   1.490   9.108  10.174
39027SOL    HW218915   1.502   9.144  10.027
39028SOL     OW18916   9.449   5.073   4.978
39028SOL    HW118917   9.356   5.052   4.987
39028SOL    HW218918   9.493   4.988   4.977
39029SOL     OW18919   6.617  11.569   8.164
39029SOL    HW118920   6.657  11.482   8.169
39029SOL    HW218921   6.653  11.617   8.238
39030SOL     OW18922   7.613   2.379  12.046
39030SOL    HW118923   7.524   2.383  12.011
39030SOL    HW218924   7.651   2.464  12.026
39031SOL     OW18925  10.293   0.352   4.748
39031SOL    HW118926  10.266   0.424   4.691
39031SOL    HW218927  10.267   0.273   4.700
39032SOL     OW18928   8.201   2.777   3.815
39032SOL    HW118929   8.248   2.756   3.734
39032SOL    HW218930   8.214   2.871   3.826
39033SOL     OW18931   6.536   3.910  12.277
39033SOL    HW118932   6.476   3.926  12.350
39033SOL    HW218933   6.566   3.820  12.289
39034SOL     OW18934   2.468   9.877   0.951
39034SOL    HW118935   2.468   9.781   0.950
39034SOL    HW218936   2.559   9.901   0.933
39035SOL     OW18937   1.756   2.786   1.535
39035SOL    HW118938   1.696   2.839   1.482
39035SOL    HW218939   1.710   2.703   1.548
39036SOL     OW18940   4.069   8.747   0.286
39036SOL    HW118941   4.060   8.821   0.225
39036SOL    HW218942   4.120   8.682   0.238
39037SOL     OW18943   9.951   6.006  14.367
39037SOL    HW118944   9.930   6.095  14.397
39037SOL    HW218945   9.866   5.968  14.344
39038SOL     OW18946   8.641   1.905  13.525
39038SOL    HW118947   8.562   1.853  13.512
39038SOL    HW218948   8.674   1.879  13.611
39039SOL     OW18949   8.171   9.584  12.186
39039SOL    HW118950   8.261   9.582  12.217
39039SOL    HW218951   8.177   9.619  12.097
39040SOL     OW18952   3.769   8.176  14.614
39040SOL    HW118953   3.700   8.152  14.676
39040SOL    HW218954   3.851   8.164  14.662
39041SOL     OW18955  11.835  14.130   4.972
39041SOL    HW118956  11.787  14.119   5.054
39041SOL    HW218957  11.792  14.070   4.911
39042SOL     OW18958  11.509   0.809  13.501
39042SOL    HW118959  11.478   0.726  13.538
39042SOL    HW218960  11.439   0.871  13.520
39043SOL     OW18961   5.135  14.242   9.184
39043SOL    HW118962   5.106  14.168   9.238
39043SOL    HW218963   5.112  14.216   9.095
39044SOL     OW18964   1.209  11.124   8.674
39044SOL    HW118965   1.300  11.138   8.649
39044SOL    HW218966   1.187  11.038   8.637
39045SOL     OW18967   5.527   4.691   4.109
39045SOL    HW118968   5.602   4.700   4.169
39045SOL    HW218969   5.464   4.638   4.158
39046SOL     OW18970   8.237   6.228   2.585
39046SOL    HW118971   8.195   6.313   2.572
39046SOL    HW218972   8.316   6.231   2.530
39047SOL     OW18973   2.546  11.144  10.844
39047SOL    HW118974   2.542  11.108  10.755
39047SOL    HW218975   2.597  11.225  10.835
39048SOL     OW18976  14.233   5.594   5.477
39048SOL    HW118977  14.251   5.500   5.476
39048SOL    HW218978  14.319   5.636   5.472
39049SOL     OW18979   0.668   7.493   1.741
39049SOL    HW118980   0.698   7.574   1.700
39049SOL    HW218981   0.617   7.521   1.817
39050SOL     OW18982   8.889   1.474  10.524
39050SOL    HW118983   8.937   1.515  10.451
39050SOL    HW218984   8.800   1.462  10.491
39051SOL     OW18985  13.685   8.627   5.578
39051SOL    HW118986  13.717   8.679   5.504
39051SOL    HW218987  13.753   8.561   5.592
39052SOL     OW18988  10.605   8.568   1.005
39052SOL    HW118989  10.646   8.616   0.933
39052SOL    HW218990  10.559   8.496   0.962
39053SOL     OW18991   1.515   9.428   6.240
39053SOL    HW118992   1.426   9.462   6.233
39053SOL    HW218993   1.549   9.428   6.150
39054SOL     OW18994   7.876   7.787  10.040
39054SOL    HW118995   7.808   7.785   9.973
39054SOL    HW218996   7.956   7.761   9.995
39055SOL     OW18997  10.895   9.123  10.906
39055SOL    HW118998  10.946   9.089  10.979
39055SOL    HW218999  10.821   9.169  10.948
39056SOL     OW19000   9.792   6.287  14.206
39056SOL    HW119001   9.853   6.358  14.224
39056SOL    HW219002   9.742   6.276  14.287
39057SOL     OW19003  11.265  12.864   0.843
39057SOL    HW119004  11.236  12.922   0.773
39057SOL    HW219005  11.192  12.862   0.904
39058SOL     OW19006   5.038   2.999   5.120
39058SOL    HW119007   5.012   3.090   5.135
39058SOL    HW219008   5.130   2.996   5.147
39059SOL     OW19009   9.773   7.331  12.203
39059SOL    HW119010   9.857   7.369  12.178
39059SOL    HW219011   9.714   7.354  12.132
39060SOL     OW19012  12.213  10.435   7.503
39060SOL    HW119013  12.259  10.353   7.487
39060SOL    HW219014  12.232  10.489   7.426
39061SOL     OW19015   6.091  14.311   3.293
39061SOL    HW119016   6.053  14.275   3.213
39061SOL    HW219017   6.128  14.235   3.338
39062SOL     OW19018   2.589   4.838  14.773
39062SOL    HW119019   2.542   4.772  14.721
39062SOL    HW219020   2.640   4.787  14.835
39063SOL     OW19021   6.463   0.486  14.530
39063SOL    HW119022   6.368   0.474  14.540
39063SOL    HW219023   6.473   0.576  14.500
39064SOL     OW19024   2.896  10.862  10.712
39064SOL    HW119025   2.960  10.917  10.758
39064SOL    HW219026   2.947  10.820  10.642
39065SOL     OW19027  10.817  12.982   1.639
39065SOL    HW119028  10.855  12.946   1.559
39065SOL    HW219029  10.878  13.048   1.669
39066SOL     OW19030   0.961   2.613  10.428
39066SOL    HW119031   0.989   2.674  10.361
39066SOL    HW219032   1.020   2.538  10.419
39067SOL     OW19033  11.809   9.908   3.377
39067SOL    HW119034  11.787  10.001   3.386
39067SOL    HW219035  11.903   9.905   3.392
39068SOL     OW19036  13.211   3.497   0.254
39068SOL    HW119037  13.239   3.454   0.173
39068SOL    HW219038  13.219   3.429   0.321
39069SOL     OW19039   5.140   7.145   9.618
39069SOL    HW119040   5.130   7.050   9.629
39069SOL    HW219041   5.234   7.160   9.628
39070SOL     OW19042  12.431   2.232   8.275
39070SOL    HW119043  12.463   2.322   8.285
39070SOL    HW219044  12.505   2.184   8.238
39071SOL     OW19045   3.866   2.319  13.974
39071SOL    HW119046   3.891   2.298  14.064
39071SOL    HW219047   3.862   2.415  13.972
39072SOL     OW19048   7.905  10.237   0.601
39072SOL    HW119049   7.830  10.290   0.630
39072SOL    HW219050   7.885  10.149   0.631
39073SOL     OW19051   2.129   0.273   9.972
39073SOL    HW119052   2.213   0.266   9.926
39073SOL    HW219053   2.125   0.195  10.027
39074SOL     OW19054  10.594   0.574  14.633
39074SOL    HW119055  10.665   0.589  14.571
39074SOL    HW219056  10.621   0.497  14.683
39075SOL     OW19057   9.650   0.745   1.249
39075SOL    HW119058   9.740   0.761   1.219
39075SOL    HW219059   9.639   0.802   1.324
39076SOL     OW19060   9.421   9.026  10.280
39076SOL    HW119061   9.345   9.000  10.332
39076SOL    HW219062   9.414   9.121  10.273
39077SOL     OW19063   1.211   7.277  13.203
39077SOL    HW119064   1.299   7.278  13.166
39077SOL    HW219065   1.222   7.243  13.292
39078SOL     OW19066   8.130   9.656   9.933
39078SOL    HW119067   8.064   9.637   9.867
39078SOL    HW219068   8.108   9.743   9.965
39079SOL     OW19069   8.829   5.329  14.293
39079SOL    HW119070   8.745   5.368  14.267
39079SOL    HW219071   8.805   5.244  14.330
39080SOL     OW19072  11.990  12.445  11.095
39080SOL    HW119073  12.055  12.376  11.081
39080SOL    HW219074  11.992  12.497  11.015
39081SOL     OW19075   2.524   1.443   8.318
39081SOL    HW119076   2.593   1.495   8.359
39081SOL    HW219077   2.450   1.449   8.378
39082SOL     OW19078   9.108   9.802  10.609
39082SOL    HW119079   9.114   9.751  10.690
39082SOL    HW219080   9.148   9.745  10.543
39083SOL     OW19081   6.519   4.838   4.182
39083SOL    HW119082   6.438   4.862   4.227
39083SOL    HW219083   6.540   4.913   4.127
39084SOL     OW19084   1.334   1.733  13.989
39084SOL    HW119085   1.428   1.739  13.973
39084SOL    HW219086   1.298   1.695  13.909
39085SOL     OW19087   8.072  13.164   9.250
39085SOL    HW119088   7.984  13.167   9.212
39085SOL    HW219089   8.114  13.245   9.219
39086SOL     OW19090   1.826  12.947   0.296
39086SOL    HW119091   1.822  12.908   0.383
39086SOL    HW219092   1.764  12.896   0.244
39087SOL     OW19093   2.797   2.169  11.885
39087SOL    HW119094   2.739   2.113  11.937
39087SOL    HW219095   2.885   2.139  11.907
39088SOL     OW19096  11.691   8.137   0.397
39088SOL    HW119097  11.653   8.223   0.417
39088SOL    HW219098  11.620   8.090   0.353
39089SOL     OW19099  13.665   7.801  10.572
39089SOL    HW119100  13.689   7.763  10.487
39089SOL    HW219101  13.659   7.726  10.630
39090SOL     OW19102  10.910  14.282   1.504
39090SOL    HW119103  10.837  14.343   1.495
39090SOL    HW219104  10.922  14.244   1.417
39091SOL     OW19105   1.621  14.011   5.637
39091SOL    HW119106   1.704  13.968   5.656
39091SOL    HW219107   1.555  13.942   5.650
39092SOL     OW19108   7.478   3.362   5.209
39092SOL    HW119109   7.436   3.443   5.181
39092SOL    HW219110   7.419   3.293   5.177
39093SOL     OW19111   4.855  13.702   1.377
39093SOL    HW119112   4.839  13.670   1.288
39093SOL    HW219113   4.949  13.686   1.391
39094SOL     OW19114  13.197   1.223   1.233
39094SOL    HW119115  13.139   1.186   1.166
39094SOL    HW219116  13.219   1.149   1.289
39095SOL     OW19117   6.394   1.911  14.128
39095SOL    HW119118   6.309   1.934  14.090
39095SOL    HW219119   6.379   1.827  14.171
39096SOL     OW19120   0.498  12.525   3.453
39096SOL    HW119121   0.481  12.481   3.536
39096SOL    HW219122   0.560  12.594   3.474
39097SOL     OW19123  12.884  10.497  10.514
39097SOL    HW119124  12.928  10.580  10.526
39097SOL    HW219125  12.818  10.514  10.446
39098SOL     OW19126   1.092  14.558  14.280
39098SOL    HW119127   1.040  14.495  14.229
39098SOL    HW219128   1.035  14.582  14.353
39099SOL     OW19129  10.319  10.894  11.055
39099SOL    HW119130  10.354  10.815  11.014
39099SOL    HW219131  10.381  10.963  11.031
39100SOL     OW19132   2.526  13.737   4.151
39100SOL    HW119133   2.472  13.689   4.214
39100SOL    HW219134   2.478  13.729   4.069
39101SOL     OW19135   7.693   4.939   7.073
39101SOL    HW119136   7.766   4.880   7.092
39101SOL    HW219137   7.631   4.926   7.145
39102SOL     OW19138  14.835  12.149   4.362
39102SOL    HW119139  14.798  12.089   4.297
39102SOL    HW219140  14.812  12.236   4.329
39103SOL     OW19141  10.554  11.368   5.915
39103SOL    HW119142  10.603  11.336   5.840
39103SOL    HW219143  10.566  11.300   5.982
39104SOL     OW19144   7.664  13.507  12.644
39104SOL    HW119145   7.586  13.452  12.640
39104SOL    HW219146   7.717  13.478  12.569
39105SOL     OW19147   2.191   1.766   1.573
39105SOL    HW119148   2.240   1.688   1.545
39105SOL    HW219149   2.178   1.816   1.492
39106SOL     OW19150   9.594  12.958   4.291
39106SOL    HW119151   9.526  12.905   4.334
39106SOL    HW219152   9.554  13.044   4.281
39107SOL     OW19153   2.747  10.852   7.859
39107SOL    HW119154   2.840  10.828   7.865
39107SOL    HW219155   2.744  10.942   7.891
39108SOL     OW19156   3.542   6.938  10.312
39108SOL    HW119157   3.612   6.873  10.314
39108SOL    HW219158   3.582   7.013  10.268
39109SOL     OW19159   6.947   1.258   4.900
39109SOL    HW119160   7.026   1.212   4.871
39109SOL    HW219161   6.965   1.350   4.881
39110SOL     OW19162   6.804   5.190   9.402
39110SOL    HW119163   6.886   5.226   9.435
39110SOL    HW219164   6.809   5.200   9.307
39111SOL     OW19165   2.086  12.523   8.096
39111SOL    HW119166   2.023  12.594   8.083
39111SOL    HW219167   2.166  12.567   8.122
39112SOL     OW19168   9.337   8.429   9.717
39112SOL    HW119169   9.377   8.367   9.778
39112SOL    HW219170   9.245   8.431   9.742
39113SOL     OW19171   2.487   4.646   1.346
39113SOL    HW119172   2.529   4.569   1.386
39113SOL    HW219173   2.414   4.667   1.404
39114SOL     OW19174   2.739  12.240   6.587
39114SOL    HW119175   2.654  12.285   6.586
39114SOL    HW219176   2.763  12.233   6.494
39115SOL     OW19177   7.928  11.122   2.346
39115SOL    HW119178   7.926  11.099   2.253
39115SOL    HW219179   7.860  11.066   2.385
39116SOL     OW19180   7.003  12.236  14.237
39116SOL    HW119181   7.060  12.312  14.252
39116SOL    HW219182   6.975  12.210  14.325
39117SOL     OW19183   7.726  10.661  12.497
39117SOL    HW119184   7.780  10.668  12.575
39117SOL    HW219185   7.768  10.719  12.433
39118SOL     OW19186  10.512   9.662   3.133
39118SOL    HW119187  10.499   9.692   3.223
39118SOL    HW219188  10.445   9.709   3.083
39119SOL     OW19189   7.875   5.231  11.866
39119SOL    HW119190   7.819   5.278  11.929
39119SOL    HW219191   7.905   5.154  11.914
39120SOL     OW19192  13.662  12.234  12.546
39120SOL    HW119193  13.589  12.246  12.607
39120SOL    HW219194  13.639  12.288  12.471
39121SOL     OW19195  10.784   0.488   1.448
39121SOL    HW119196  10.722   0.561   1.440
39121SOL    HW219197  10.765   0.433   1.372
39122SOL     OW19198   8.774  12.488  13.878
39122SOL    HW119199   8.780  12.460  13.787
39122SOL    HW219200   8.735  12.414  13.924
39123SOL     OW19201   9.967   0.720  14.425
39123SOL    HW119202   9.958   0.808  14.461
39123SOL    HW219203  10.060   0.701  14.429
39124SOL     OW19204   5.527   8.015   9.672
39124SOL    HW119205   5.540   7.975   9.586
39124SOL    HW219206   5.454   8.076   9.659
39125SOL     OW19207   2.232  14.275   4.081
39125SOL    HW119208   2.158  14.222   4.053
39125SOL    HW219209   2.251  14.331   4.005
39126SOL     OW19210   2.038   5.286   3.028
39126SOL    HW119211   2.083   5.335   2.959
39126SOL    HW219212   2.093   5.209   3.043
39127SOL     OW19213  11.151   3.416  12.332
39127SOL    HW119214  11.103   3.366  12.267
39127SOL    HW219215  11.123   3.380  12.416
39128SOL     OW19216   6.752   3.253  11.386
39128SOL    HW119217   6.805   3.316  11.435
39128SOL    HW219218   6.734   3.183  11.449
39129SOL     OW19219   4.704   1.456   9.810
39129SOL    HW119220   4.621   1.467   9.763
39129SOL    HW219221   4.721   1.542   9.848
39130SOL     OW19222   5.084  14.619  10.163
39130SOL    HW119223   5.172  14.581  10.161
39130SOL    HW219224   5.054  14.606  10.252
39131SOL     OW19225   1.368   0.989   6.021
39131SOL    HW119226   1.315   0.997   6.100
39131SOL    HW219227   1.313   0.940   5.960
39132SOL     OW19228  10.420   4.834   8.510
39132SOL    HW119229  10.420   4.856   8.416
39132SOL    HW219230  10.340   4.874   8.544
39133SOL     OW19231   6.109   0.613  14.819
39133SOL    HW119232   6.097   0.531  14.867
39133SOL    HW219233   6.131   0.585  14.730
39134SOL     OW19234  12.858   1.932   4.602
39134SOL    HW119235  12.833   1.985   4.526
39134SOL    HW219236  12.775   1.905   4.641
39135SOL     OW19237   4.083  14.825   5.135
39135SOL    HW119238   4.170  14.787   5.137
39135SOL    HW219239   4.060  14.829   5.041
39136SOL     OW19240  12.485   5.259   7.180
39136SOL    HW119241  12.393   5.280   7.198
39136SOL    HW219242  12.522   5.341   7.146
39137SOL     OW19243  12.443   2.113   5.093
39137SOL    HW119244  12.354   2.094   5.064
39137SOL    HW219245  12.434   2.188   5.151
39138SOL     OW19246   5.677  11.366  14.108
39138SOL    HW119247   5.744  11.298  14.098
39138SOL    HW219248   5.670  11.406  14.021
39139SOL     OW19249   9.642   3.985   2.423
39139SOL    HW119250   9.550   3.966   2.402
39139SOL    HW219251   9.670   4.046   2.356
39140SOL     OW19252   8.533   6.549  13.261
39140SOL    HW119253   8.494   6.511  13.340
39140SOL    HW219254   8.608   6.599  13.293
39141SOL     OW19255   6.509  13.663   9.232
39141SOL    HW119256   6.594  13.697   9.204
39141SOL    HW219257   6.482  13.603   9.162
39142SOL     OW19258   5.245   4.136   9.151
39142SOL    HW119259   5.304   4.070   9.116
39142SOL    HW219260   5.271   4.146   9.242
39143SOL     OW19261   1.025   2.323  12.087
39143SOL    HW119262   1.032   2.392  12.020
39143SOL    HW219263   0.981   2.366  12.161
39144SOL     OW19264   6.313  13.817   3.111
39144SOL    HW119265   6.367  13.750   3.068
39144SOL    HW219266   6.366  13.896   3.108
39145SOL     OW19267   0.022   9.464  14.807
39145SOL    HW119268   0.027   9.369  14.821
39145SOL    HW219269   0.087   9.500  14.867
39146SOL     OW19270   6.603   3.825  13.283
39146SOL    HW119271   6.637   3.740  13.312
39146SOL    HW219272   6.597   3.877  13.363
39147SOL     OW19273  12.958   2.782  11.402
39147SOL    HW119274  13.049   2.798  11.424
39147SOL    HW219275  12.922   2.740  11.480
39148SOL     OW19276   7.948  14.092  12.277
39148SOL    HW119277   7.870  14.055  12.317
39148SOL    HW219278   8.020  14.066  12.335
39149SOL     OW19279  14.601   5.620   1.819
39149SOL    HW119280  14.567   5.611   1.909
39149SOL    HW219281  14.695   5.605   1.828
39150SOL     OW19282   4.029  11.696   5.277
39150SOL    HW119283   4.067  11.760   5.216
39150SOL    HW219284   3.987  11.749   5.345
39151SOL     OW19285   6.059   1.593   4.649
39151SOL    HW119286   6.019   1.678   4.628
39151SOL    HW219287   6.026   1.571   4.735
39152SOL     OW19288   5.383   2.719   0.462
39152SOL    HW119289   5.303   2.768   0.443
39152SOL    HW219290   5.391   2.655   0.391
39153SOL     OW19291   9.499   2.433   3.015
39153SOL    HW119292   9.545   2.401   2.937
39153SOL    HW219293   9.539   2.385   3.088
39154SOL     OW19294   9.912   3.838  11.679
39154SOL    HW119295   9.856   3.866  11.751
39154SOL    HW219296   9.986   3.795  11.722
39155SOL     OW19297   8.657  12.605  13.445
39155SOL    HW119298   8.607  12.657  13.508
39155SOL    HW219299   8.652  12.654  13.364
39156SOL     OW19300   0.694   1.219   8.936
39156SOL    HW119301   0.709   1.135   8.979
39156SOL    HW219302   0.636   1.266   8.996
39157SOL     OW19303   8.987   0.174   8.877
39157SOL    HW119304   9.044   0.248   8.895
39157SOL    HW219305   8.992   0.119   8.955
39158SOL     OW19306   4.905   1.617  10.557
39158SOL    HW119307   4.990   1.579  10.577
39158SOL    HW219308   4.915   1.653  10.469
39159SOL     OW19309  10.379  12.471   9.127
39159SOL    HW119310  10.435  12.549   9.124
39159SOL    HW219311  10.439  12.398   9.139
39160SOL     OW19312   9.875   6.845   4.767
39160SOL    HW119313   9.952   6.883   4.807
39160SOL    HW219314   9.897   6.753   4.753
39161SOL     OW19315   1.482   4.119   8.318
39161SOL    HW119316   1.432   4.127   8.236
39161SOL    HW219317   1.571   4.098   8.289
39162SOL     OW19318   8.950   2.613  12.886
39162SOL    HW119319   8.988   2.688  12.841
39162SOL    HW219320   8.924   2.647  12.972
39163SOL     OW19321  12.693   4.187  12.418
39163SOL    HW119322  12.764   4.124  12.428
39163SOL    HW219323  12.648   4.186  12.502
39164SOL     OW19324   8.974   8.459  10.652
39164SOL    HW119325   8.932   8.460  10.738
39164SOL    HW219326   9.058   8.415  10.668
39165SOL     OW19327  11.105   7.582  14.199
39165SOL    HW119328  11.100   7.651  14.132
39165SOL    HW219329  11.060   7.507  14.159
39166SOL     OW19330   3.585   7.632   4.438
39166SOL    HW119331   3.666   7.680   4.419
39166SOL    HW219332   3.557   7.666   4.523
39167SOL     OW19333   7.931   6.018   5.492
39167SOL    HW119334   8.019   6.035   5.526
39167SOL    HW219335   7.932   6.056   5.404
39168SOL     OW19336   3.035   2.737  13.736
39168SOL    HW119337   2.978   2.669  13.772
39168SOL    HW219338   3.081   2.773  13.812
39169SOL     OW19339   9.258  10.282   0.214
39169SOL    HW119340   9.343  10.323   0.201
39169SOL    HW219341   9.249  10.221   0.141
39170SOL     OW19342   4.318  13.323   4.682
39170SOL    HW119343   4.359  13.385   4.742
39170SOL    HW219344   4.238  13.295   4.727
39171SOL     OW19345   5.013   0.514  12.156
39171SOL    HW119346   5.016   0.479  12.067
39171SOL    HW219347   5.073   0.458  12.205
39172SOL     OW19348   0.247   0.074  10.406
39172SOL    HW119349   0.315   0.090  10.471
39172SOL    HW219350   0.295   0.048  10.327
39173SOL     OW19351   3.389  11.322   1.281
39173SOL    HW119352   3.472  11.343   1.324
39173SOL    HW219353   3.391  11.227   1.271
39174SOL     OW19354   9.996   8.408  10.983
39174SOL    HW119355  10.087   8.390  10.959
39174SOL    HW219356   9.944   8.365  10.915
39175SOL     OW19357   1.009   3.103   6.435
39175SOL    HW119358   0.920   3.072   6.450
39175SOL    HW219359   1.034   3.064   6.351
39176SOL     OW19360   0.956  12.244   2.138
39176SOL    HW119361   0.891  12.215   2.202
39176SOL    HW219362   1.025  12.283   2.192
39177SOL     OW19363   1.926  10.702  11.404
39177SOL    HW119364   1.911  10.705  11.310
39177SOL    HW219365   2.020  10.716  11.414
39178SOL     OW19366   6.673  14.238   7.979
39178SOL    HW119367   6.690  14.217   8.071
39178SOL    HW219368   6.665  14.333   7.976
39179SOL     OW19369  10.049   1.324   0.571
39179SOL    HW119370  10.048   1.229   0.558
39179SOL    HW219371  10.102   1.336   0.650
39180SOL     OW19372  11.963   9.292  11.936
39180SOL    HW119373  12.006   9.329  12.013
39180SOL    HW219374  11.995   9.345  11.863
39181SOL     OW19375   5.312   5.382   5.458
39181SOL    HW119376   5.339   5.471   5.480
39181SOL    HW219377   5.380   5.326   5.495
39182SOL     OW19378  12.548   5.664   6.214
39182SOL    HW119379  12.634   5.636   6.246
39182SOL    HW219380  12.508   5.584   6.181
39183SOL     OW19381  12.687   1.286  13.229
39183SOL    HW119382  12.617   1.349  13.245
39183SOL    HW219383  12.668   1.253  13.141
39184SOL     OW19384  10.323  10.500   9.423
39184SOL    HW119385  10.414  10.529   9.418
39184SOL    HW219386  10.321  10.417   9.376
39185SOL     OW19387   6.863   2.556   4.919
39185SOL    HW119388   6.801   2.624   4.947
39185SOL    HW219389   6.892   2.514   5.000
39186SOL     OW19390   5.657   8.389   6.406
39186SOL    HW119391   5.710   8.436   6.470
39186SOL    HW219392   5.637   8.305   6.448
39187SOL     OW19393   4.616  10.034   7.480
39187SOL    HW119394   4.688   9.987   7.521
39187SOL    HW219395   4.593  10.103   7.543
39188SOL     OW19396   9.150   9.981   4.791
39188SOL    HW119397   9.136   9.891   4.821
39188SOL    HW219398   9.114  10.036   4.860
39189SOL     OW19399   0.285   5.097  10.426
39189SOL    HW119400   0.224   5.167  10.406
39189SOL    HW219401   0.237   5.016  10.406
39190SOL     OW19402  11.513  13.603  12.555
39190SOL    HW119403  11.544  13.636  12.639
39190SOL    HW219404  11.512  13.508  12.565
39191SOL     OW19405   2.572   4.478   7.447
39191SOL    HW119406   2.599   4.554   7.396
39191SOL    HW219407   2.641   4.413   7.434
39192SOL     OW19408  11.696   1.508  14.460
39192SOL    HW119409  11.682   1.422  14.500
39192SOL    HW219410  11.723   1.489  14.370
39193SOL     OW19411   1.711   3.894   5.774
39193SOL    HW119412   1.640   3.870   5.833
39193SOL    HW219413   1.782   3.921   5.832
39194SOL     OW19414  13.269   2.504   7.013
39194SOL    HW119415  13.321   2.443   6.960
39194SOL    HW219416  13.193   2.453   7.041
39195SOL     OW19417   5.415  13.915   5.494
39195SOL    HW119418   5.333  13.866   5.501
39195SOL    HW219419   5.425  13.956   5.579
39196SOL     OW19420   8.578   6.706  10.664
39196SOL    HW119421   8.489   6.736  10.685
39196SOL    HW219422   8.574   6.685  10.570
39197SOL     OW19423   7.048   7.073   3.061
39197SOL    HW119424   6.953   7.076   3.072
39197SOL    HW219425   7.070   6.980   3.070
39198SOL     OW19426   8.483  13.494  14.168
39198SOL    HW119427   8.523  13.490  14.255
39198SOL    HW219428   8.556  13.492  14.107
39199SOL     OW19429  10.588   9.072  10.793
39199SOL    HW119430  10.582   9.095  10.700
39199SOL    HW219431  10.652   9.000  10.795
39200SOL     OW19432  11.593   1.328   4.594
39200SOL    HW119433  11.580   1.235   4.582
39200SOL    HW219434  11.533   1.353   4.664
39201SOL     OW19435   6.551   2.983   2.105
39201SOL    HW119436   6.504   2.978   2.188
39201SOL    HW219437   6.545   2.894   2.069
39202SOL     OW19438  10.464   7.407  14.095
39202SOL    HW119439  10.554   7.414  14.061
39202SOL    HW219440  10.423   7.490  14.069
39203SOL     OW19441   5.750  12.400   0.822
39203SOL    HW119442   5.702  12.412   0.740
39203SOL    HW219443   5.813  12.472   0.823
39204SOL     OW19444   2.520   2.784   7.848
39204SOL    HW119445   2.485   2.700   7.819
39204SOL    HW219446   2.542   2.770   7.940
39205SOL     OW19447   0.773   0.658   9.483
39205SOL    HW119448   0.756   0.747   9.453
39205SOL    HW219449   0.852   0.632   9.436
39206SOL     OW19450   1.115   2.487  11.178
39206SOL    HW119451   1.049   2.456  11.115
39206SOL    HW219452   1.198   2.455  11.143
39207SOL     OW19453   5.926  10.288   1.518
39207SOL    HW119454   5.843  10.260   1.480
39207SOL    HW219455   5.923  10.384   1.514
39208SOL     OW19456   3.182   6.738   3.444
39208SOL    HW119457   3.229   6.659   3.417
39208SOL    HW219458   3.104   6.706   3.489
39209SOL     OW19459  12.738  12.152  13.243
39209SOL    HW119460  12.754  12.112  13.328
39209SOL    HW219461  12.790  12.232  13.244
39210SOL     OW19462   4.684  11.864   3.067
39210SOL    HW119463   4.685  11.815   3.149
39210SOL    HW219464   4.729  11.946   3.087
39211SOL     OW19465  11.878  11.902  12.645
39211SOL    HW119466  11.894  11.984  12.691
39211SOL    HW219467  11.920  11.835  12.699
39212SOL     OW19468  12.389   0.291   4.143
39212SOL    HW119469  12.461   0.305   4.204
39212SOL    HW219470  12.352   0.378   4.129
39213SOL     OW19471   7.814  11.159   5.901
39213SOL    HW119472   7.745  11.168   5.835
39213SOL    HW219473   7.771  11.112   5.973
39214SOL     OW19474  11.131   3.083   2.243
39214SOL    HW119475  11.215   3.038   2.254
39214SOL    HW219476  11.076   3.048   2.313
39215SOL     OW19477  10.269  12.034  11.359
39215SOL    HW119478  10.354  12.009  11.398
39215SOL    HW219479  10.246  12.116  11.402
39216SOL     OW19480   3.312   9.924   3.621
39216SOL    HW119481   3.292   9.832   3.611
39216SOL    HW219482   3.404   9.932   3.597
39217SOL     OW19483   4.881  10.433  13.378
39217SOL    HW119484   4.809  10.475  13.331
39217SOL    HW219485   4.870  10.340  13.360
39218SOL     OW19486   0.492   1.974  10.046
39218SOL    HW119487   0.414   1.947  10.094
39218SOL    HW219488   0.532   1.892  10.018
39219SOL     OW19489  10.558  12.331   8.206
39219SOL    HW119490  10.520  12.291   8.128
39219SOL    HW219491  10.561  12.260   8.270
39220SOL     OW19492  13.651   1.357  13.155
39220SOL    HW119493  13.637   1.411  13.077
39220SOL    HW219494  13.631   1.268  13.126
39221SOL     OW19495   9.312   2.600   4.274
39221SOL    HW119496   9.354   2.686   4.273
39221SOL    HW219497   9.226   2.614   4.235
39222SOL     OW19498   3.482   1.853   6.757
39222SOL    HW119499   3.448   1.874   6.671
39222SOL    HW219500   3.451   1.764   6.774
39223SOL     OW19501   0.020   0.489   5.826
39223SOL    HW119502   0.015   0.584   5.819
39223SOL    HW219503  14.822   0.465   5.877
39224SOL     OW19504   7.441  13.306   8.784
39224SOL    HW119505   7.461  13.255   8.863
39224SOL    HW219506   7.363  13.264   8.748
39225SOL     OW19507   5.459  13.095   3.940
39225SOL    HW119508   5.505  13.167   3.982
39225SOL    HW219509   5.386  13.136   3.894
39226SOL     OW19510  12.899   6.048   5.585
39226SOL    HW119511  12.987   6.036   5.619
39226SOL    HW219512  12.882   6.142   5.592
39227SOL     OW19513  12.883   9.850  12.100
39227SOL    HW119514  12.974   9.834  12.074
39227SOL    HW219515  12.868   9.942  12.079
39228SOL     OW19516   9.557   2.938   5.888
39228SOL    HW119517   9.472   2.967   5.919
39228SOL    HW219518   9.620   2.997   5.929
39229SOL     OW19519   9.246   9.634  10.438
39229SOL    HW119520   9.288   9.552  10.465
39229SOL    HW219521   9.305   9.672  10.374
39230SOL     OW19522  10.243  11.590   5.761
39230SOL    HW119523  10.166  11.611   5.708
39230SOL    HW219524  10.317  11.606   5.702
39231SOL     OW19525   6.208  11.088   9.011
39231SOL    HW119526   6.166  11.146   9.074
39231SOL    HW219527   6.300  11.084   9.038
39232SOL     OW19528  14.089   7.595  14.591
39232SOL    HW119529  14.007   7.546  14.595
39232SOL    HW219530  14.067   7.682  14.624
39233SOL     OW19531  10.424  10.602  13.845
39233SOL    HW119532  10.431  10.629  13.753
39233SOL    HW219533  10.432  10.506  13.842
39234SOL     OW19534   1.257  13.865  11.245
39234SOL    HW119535   1.343  13.870  11.202
39234SOL    HW219536   1.236  13.772  11.247
39235SOL     OW19537   1.311  11.645   7.351
39235SOL    HW119538   1.227  11.600   7.349
39235SOL    HW219539   1.368  11.587   7.402
39236SOL     OW19540   6.011   1.720  10.122
39236SOL    HW119541   5.953   1.762  10.186
39236SOL    HW219542   5.953   1.668  10.067
39237SOL     OW19543  11.111  10.559  14.303
39237SOL    HW119544  11.154  10.591  14.382
39237SOL    HW219545  11.034  10.616  14.293
39238SOL     OW19546   5.185   7.884  11.662
39238SOL    HW119547   5.149   7.857  11.746
39238SOL    HW219548   5.195   7.979  11.669
39239SOL     OW19549  12.677   6.997   6.587
39239SOL    HW119550  12.772   6.993   6.598
39239SOL    HW219551  12.659   7.089   6.568
39240SOL     OW19552  10.694   7.716   0.063
39240SOL    HW119553  10.660   7.754  14.861
39240SOL    HW219554  10.714   7.793   0.118
39241SOL     OW19555   1.607   7.666   0.520
39241SOL    HW119556   1.634   7.738   0.577
39241SOL    HW219557   1.578   7.708   0.440
39242SOL     OW19558   4.363   2.424   1.203
39242SOL    HW119559   4.305   2.431   1.278
39242SOL    HW219560   4.451   2.435   1.239
39243SOL     OW19561   6.025   1.628  13.878
39243SOL    HW119562   5.937   1.664  13.885
39243SOL    HW219563   6.063   1.640  13.965
39244SOL     OW19564  14.235   8.315   3.566
39244SOL    HW119565  14.145   8.303   3.597
39244SOL    HW219566  14.287   8.254   3.618
39245SOL     OW19567   9.261  14.196   4.339
39245SOL    HW119568   9.297  14.271   4.292
39245SOL    HW219569   9.196  14.233   4.398
39246SOL     OW19570   1.114  10.543   5.898
39246SOL    HW119571   1.094  10.493   5.819
39246SOL    HW219572   1.030  10.549   5.945
39247SOL     OW19573   7.892   3.608   9.010
39247SOL    HW119574   7.986   3.601   8.993
39247SOL    HW219575   7.852   3.602   8.923
39248SOL     OW19576   6.348   2.031  13.605
39248SOL    HW119577   6.268   2.082  13.592
39248SOL    HW219578   6.325   1.943  13.574
39249SOL     OW19579   5.613   9.486   2.125
39249SOL    HW119580   5.674   9.418   2.155
39249SOL    HW219581   5.623   9.556   2.190
39250SOL     OW19582   0.231   6.609   1.722
39250SOL    HW119583   0.262   6.557   1.649
39250SOL    HW219584   0.162   6.665   1.684
39251SOL     OW19585   5.485  13.385   2.897
39251SOL    HW119586   5.572  13.375   2.935
39251SOL    HW219587   5.498  13.366   2.804
39252SOL     OW19588   6.925   8.909  12.496
39252SOL    HW119589   6.851   8.857  12.528
39252SOL    HW219590   6.888   8.996  12.479
39253SOL     OW19591   5.075   4.791  13.089
39253SOL    HW119592   5.136   4.731  13.132
39253SOL    HW219593   4.996   4.787  13.143
39254SOL     OW19594   4.894   9.388  10.001
39254SOL    HW119595   4.813   9.341  10.023
39254SOL    HW219596   4.960   9.320   9.993
39255SOL     OW19597  14.825  12.792  13.010
39255SOL    HW119598  14.785  12.840  13.083
39255SOL    HW219599  14.766  12.808  12.936
39256SOL     OW19600  12.846   2.071   4.369
39256SOL    HW119601  12.761   2.113   4.356
39256SOL    HW219602  12.909   2.131   4.328
39257SOL     OW19603   5.758  13.573  13.177
39257SOL    HW119604   5.766  13.600  13.269
39257SOL    HW219605   5.773  13.478  13.178
39258SOL     OW19606   1.491   1.436   1.450
39258SOL    HW119607   1.484   1.353   1.497
39258SOL    HW219608   1.465   1.416   1.360
39259SOL     OW19609   9.944   6.845   5.194
39259SOL    HW119610   9.995   6.835   5.114
39259SOL    HW219611   9.953   6.761   5.239
39260SOL     OW19612   3.369   0.715  13.109
39260SOL    HW119613   3.300   0.781  13.097
39260SOL    HW219614   3.389   0.719  13.203
39261SOL     OW19615   6.265   1.815  10.120
39261SOL    HW119616   6.276   1.781  10.031
39261SOL    HW219617   6.176   1.790  10.144
39262SOL     OW19618   3.341   1.152   1.721
39262SOL    HW119619   3.282   1.210   1.769
39262SOL    HW219620   3.386   1.210   1.659
39263SOL     OW19621  11.234   3.141   8.586
39263SOL    HW119622  11.157   3.090   8.610
39263SOL    HW219623  11.304   3.106   8.641
39264SOL     OW19624  14.235   5.071   2.358
39264SOL    HW119625  14.209   5.104   2.272
39264SOL    HW219626  14.327   5.094   2.366
39265SOL     OW19627   6.020   7.802   5.077
39265SOL    HW119628   5.995   7.744   5.148
39265SOL    HW219629   5.940   7.812   5.025
39266SOL     OW19630  12.391  13.885  13.997
39266SOL    HW119631  12.476  13.858  14.033
39266SOL    HW219632  12.392  13.853  13.907
39267SOL     OW19633   4.422   4.666   4.808
39267SOL    HW119634   4.450   4.619   4.887
39267SOL    HW219635   4.329   4.682   4.822
39268SOL     OW19636   6.484  12.873  14.351
39268SOL    HW119637   6.521  12.790  14.383
39268SOL    HW219638   6.557  12.934  14.353
39269SOL     OW19639   9.953   2.719   8.032
39269SOL    HW119640   9.982   2.734   8.122
39269SOL    HW219641  10.025   2.671   7.992
39270SOL     OW19642   9.264  11.165   3.656
39270SOL    HW119643   9.262  11.069   3.664
39270SOL    HW219644   9.186  11.194   3.703
39271SOL     OW19645   7.373   5.829   0.620
39271SOL    HW119646   7.419   5.857   0.542
39271SOL    HW219647   7.385   5.901   0.682
39272SOL     OW19648   1.430   1.495   4.265
39272SOL    HW119649   1.518   1.458   4.268
39272SOL    HW219650   1.429   1.560   4.335
39273SOL     OW19651   6.229   7.871  13.495
39273SOL    HW119652   6.224   7.775  13.503
39273SOL    HW219653   6.160   7.893  13.432
39274SOL     OW19654   5.489  11.581   6.305
39274SOL    HW119655   5.506  11.675   6.308
39274SOL    HW219656   5.574  11.543   6.282
39275SOL     OW19657   9.972   5.855  11.808
39275SOL    HW119658   9.964   5.801  11.887
39275SOL    HW219659   9.969   5.792  11.735
39276SOL     OW19660   9.465   0.671   7.325
39276SOL    HW119661   9.471   0.731   7.250
39276SOL    HW219662   9.555   0.661   7.354
39277SOL     OW19663   6.789   2.467  12.058
39277SOL    HW119664   6.796   2.378  12.091
39277SOL    HW219665   6.700   2.495  12.081
39278SOL     OW19666   7.875   4.162   2.429
39278SOL    HW119667   7.890   4.089   2.369
39278SOL    HW219668   7.780   4.179   2.422
39279SOL     OW19669   4.980  10.911  12.562
39279SOL    HW119670   5.061  10.866  12.584
39279SOL    HW219671   4.935  10.851  12.503
39280SOL     OW19672   3.739   8.260   5.374
39280SOL    HW119673   3.792   8.316   5.317
39280SOL    HW219674   3.681   8.212   5.315
39281SOL     OW19675  14.714  13.818   5.810
39281SOL    HW119676  14.733  13.831   5.717
39281SOL    HW219677  14.723  13.723   5.824
39282SOL     OW19678  14.080   6.384  11.266
39282SOL    HW119679  14.064   6.381  11.171
39282SOL    HW219680  14.157   6.330  11.279
39283SOL     OW19681   8.974   2.090   0.265
39283SOL    HW119682   9.036   2.133   0.325
39283SOL    HW219683   8.950   2.009   0.310
39284SOL     OW19684  14.505   5.486   5.732
39284SOL    HW119685  14.599   5.496   5.717
39284SOL    HW219686  14.495   5.489   5.827
39285SOL     OW19687  11.333   3.876  11.109
39285SOL    HW119688  11.250   3.896  11.066
39285SOL    HW219689  11.395   3.864  11.037
39286SOL     OW19690   7.382   2.163   4.943
39286SOL    HW119691   7.449   2.097   4.959
39286SOL    HW219692   7.378   2.170   4.847
39287SOL     OW19693  12.493   1.315   8.547
39287SOL    HW119694  12.463   1.375   8.615
39287SOL    HW219695  12.474   1.361   8.465
39288SOL     OW19696   0.397   6.733   5.361
39288SOL    HW119697   0.447   6.659   5.327
39288SOL    HW219698   0.441   6.757   5.442
39289SOL     OW19699   2.430   4.424   2.893
39289SOL    HW119700   2.428   4.493   2.827
39289SOL    HW219701   2.517   4.432   2.932
39290SOL     OW19702   7.842   2.138  10.585
39290SOL    HW119703   7.864   2.136  10.492
39290SOL    HW219704   7.779   2.067  10.596
39291SOL     OW19705   8.710   3.239   2.265
39291SOL    HW119706   8.636   3.300   2.273
39291SOL    HW219707   8.673   3.162   2.222
39292SOL     OW19708   4.622  11.899   0.573
39292SOL    HW119709   4.663  11.869   0.654
39292SOL    HW219710   4.600  11.990   0.590
39293SOL     OW19711   8.144   9.015  13.878
39293SOL    HW119712   8.179   8.969  13.801
39293SOL    HW219713   8.101   9.092  13.842
39294SOL     OW19714  14.568  11.151  14.373
39294SOL    HW119715  14.555  11.062  14.339
39294SOL    HW219716  14.519  11.154  14.454
39295SOL     OW19717  11.263   0.515   2.886
39295SOL    HW119718  11.197   0.584   2.888
39295SOL    HW219719  11.342   0.558   2.918
39296SOL     OW19720   5.678   1.242  13.411
39296SOL    HW119721   5.600   1.259  13.464
39296SOL    HW219722   5.655   1.165  13.360
39297SOL     OW19723  14.180   2.632   9.615
39297SOL    HW119724  14.268   2.672   9.613
39297SOL    HW219725  14.177   2.586   9.698
39298SOL     OW19726   5.840   4.809  10.417
39298SOL    HW119727   5.897   4.800  10.494
39298SOL    HW219728   5.901   4.810  10.343
39299SOL     OW19729  11.261  10.595   4.209
39299SOL    HW119730  11.333  10.559   4.260
39299SOL    HW219731  11.183  10.577   4.262
39300SOL     OW19732   7.981  10.136  10.944
39300SOL    HW119733   7.960  10.089  11.025
39300SOL    HW219734   7.896  10.151  10.903
39301SOL     OW19735   8.761   5.969   9.321
39301SOL    HW119736   8.780   5.950   9.229
39301SOL    HW219737   8.746   6.064   9.323
39302SOL     OW19738   5.877   5.218  10.912
39302SOL    HW119739   5.894   5.275  10.838
39302SOL    HW219740   5.964   5.196  10.946
39303SOL     OW19741  12.457   3.648   9.321
39303SOL    HW119742  12.408   3.574   9.358
39303SOL    HW219743  12.546   3.637   9.354
39304SOL     OW19744   5.165   4.504   4.831
39304SOL    HW119745   5.225   4.432   4.852
39304SOL    HW219746   5.168   4.561   4.909
39305SOL     OW19747   2.966  10.016  11.607
39305SOL    HW119748   2.923  10.054  11.531
39305SOL    HW219749   2.906  10.033  11.680
39306SOL     OW19750   0.146   9.684   6.573
39306SOL    HW119751   0.179   9.771   6.551
39306SOL    HW219752   0.059   9.681   6.534
39307SOL     OW19753   0.778  12.718   8.479
39307SOL    HW119754   0.794  12.772   8.556
39307SOL    HW219755   0.824  12.636   8.497
39308SOL     OW19756   4.867   6.082   5.408
39308SOL    HW119757   4.862   6.169   5.368
39308SOL    HW219758   4.858   6.098   5.502
39309SOL     OW19759   8.252   4.995  14.495
39309SOL    HW119760   8.330   5.050  14.500
39309SOL    HW219761   8.279   4.917  14.447
39310SOL     OW19762   7.314   3.699   0.030
39310SOL    HW119763   7.242   3.637   0.044
39310SOL    HW219764   7.282   3.781   0.066
39311SOL     OW19765   3.666  14.305  13.008
39311SOL    HW119766   3.708  14.309  12.922
39311SOL    HW219767   3.633  14.215  13.014
39312SOL     OW19768  13.801   3.995   6.988
39312SOL    HW119769  13.710   3.995   7.018
39312SOL    HW219770  13.795   3.984   6.893
39313SOL     OW19771   1.689  11.518   2.349
39313SOL    HW119772   1.730  11.432   2.343
39313SOL    HW219773   1.749  11.570   2.403
39314SOL     OW19774   6.542   5.429  10.098
39314SOL    HW119775   6.592   5.400  10.174
39314SOL    HW219776   6.589   5.506  10.066
39315SOL     OW19777   9.078  11.304   6.526
39315SOL    HW119778   9.101  11.287   6.617
39315SOL    HW219779   9.003  11.362   6.530
39316SOL     OW19780   9.284   9.028   7.402
39316SOL    HW119781   9.235   9.015   7.483
39316SOL    HW219782   9.259   9.115   7.371
39317SOL     OW19783   1.510   5.264   3.942
39317SOL    HW119784   1.521   5.354   3.910
39317SOL    HW219785   1.436   5.270   4.003
39318SOL     OW19786   9.650   5.116   2.769
39318SOL    HW119787   9.655   5.027   2.804
39318SOL    HW219788   9.578   5.113   2.705
39319SOL     OW19789  12.745  13.319   3.983
39319SOL    HW119790  12.672  13.375   4.010
39319SOL    HW219791  12.786  13.368   3.911
39320SOL     OW19792   0.386  14.318   2.543
39320SOL    HW119793   0.297  14.300   2.572
39320SOL    HW219794   0.437  14.243   2.575
39321SOL     OW19795  10.919   5.929   8.637
39321SOL    HW119796  10.880   6.016   8.635
39321SOL    HW219797  10.861   5.878   8.693
39322SOL     OW19798  12.991   0.193  10.596
39322SOL    HW119799  13.003   0.180  10.690
39322SOL    HW219800  12.898   0.175  10.582
39323SOL     OW19801   0.005  11.990   5.877
39323SOL    HW119802   0.020  12.057   5.810
39323SOL    HW219803  14.817  12.029   5.934
39324SOL     OW19804  11.091  13.094   0.299
39324SOL    HW119805  11.152  13.078   0.228
39324SOL    HW219806  11.005  13.092   0.258
39325SOL     OW19807   4.014   8.380  10.410
39325SOL    HW119808   4.083   8.313  10.411
39325SOL    HW219809   3.950   8.349  10.475
39326SOL     OW19810  11.795   3.480   9.380
39326SOL    HW119811  11.767   3.449   9.466
39326SOL    HW219812  11.726   3.451   9.321
39327SOL     OW19813  12.451  10.301  14.547
39327SOL    HW119814  12.385  10.237  14.574
39327SOL    HW219815  12.470  10.350  14.627
39328SOL     OW19816   0.649   9.842   3.182
39328SOL    HW119817   0.698   9.889   3.250
39328SOL    HW219818   0.716   9.792   3.135
39329SOL     OW19819   1.342   8.945   2.496
39329SOL    HW119820   1.271   8.991   2.452
39329SOL    HW219821   1.385   8.895   2.426
39330SOL     OW19822   0.108   9.585  10.193
39330SOL    HW119823   0.185   9.618  10.148
39330SOL    HW219824   0.094   9.497  10.156
39331SOL     OW19825  13.316  10.976   4.678
39331SOL    HW119826  13.347  11.007   4.763
39331SOL    HW219827  13.235  10.929   4.697
39332SOL     OW19828   2.770   9.896   4.114
39332SOL    HW119829   2.830   9.966   4.141
39332SOL    HW219830   2.742   9.922   4.026
39333SOL     OW19831   8.207  13.167   1.630
39333SOL    HW119832   8.230  13.260   1.628
39333SOL    HW219833   8.167  13.154   1.716
39334SOL     OW19834   0.738  11.857   4.619
39334SOL    HW119835   0.799  11.912   4.669
39334SOL    HW219836   0.662  11.849   4.676
39335SOL     OW19837   6.061   0.375   6.087
39335SOL    HW119838   6.037   0.419   6.005
39335SOL    HW219839   6.155   0.359   6.078
39336SOL     OW19840   5.595   3.704  12.761
39336SOL    HW119841   5.609   3.617  12.798
39336SOL    HW219842   5.505   3.726  12.785
39337SOL     OW19843   3.001   7.663  13.677
39337SOL    HW119844   3.093   7.653  13.654
39337SOL    HW219845   2.955   7.660  13.593
39338SOL     OW19846   7.454  12.544   9.460
39338SOL    HW119847   7.547  12.547   9.482
39338SOL    HW219848   7.451  12.556   9.365
39339SOL     OW19849   9.779   9.163   6.844
39339SOL    HW119850   9.810   9.237   6.792
39339SOL    HW219851   9.684   9.163   6.831
39340SOL     OW19852   3.523   1.072   6.899
39340SOL    HW119853   3.581   1.147   6.914
39340SOL    HW219854   3.460   1.076   6.971
39341SOL     OW19855   0.176   9.917  13.864
39341SOL    HW119856   0.113   9.988  13.857
39341SOL    HW219857   0.259   9.960  13.886
39342SOL     OW19858   2.530  14.645   8.054
39342SOL    HW119859   2.466  14.674   8.119
39342SOL    HW219860   2.599  14.711   8.057
39343SOL     OW19861   0.949   4.348  13.272
39343SOL    HW119862   0.920   4.413  13.208
39343SOL    HW219863   0.878   4.284  13.276
39344SOL     OW19864   6.648   0.399   1.459
39344SOL    HW119865   6.610   0.399   1.547
39344SOL    HW219866   6.741   0.383   1.473
39345SOL     OW19867   3.224   8.233   0.021
39345SOL    HW119868   3.207   8.285  14.822
39345SOL    HW219869   3.244   8.298   0.089
39346SOL     OW19870  10.199  13.314  10.543
39346SOL    HW119871  10.170  13.223  10.546
39346SOL    HW219872  10.174  13.344  10.455
39347SOL     OW19873   9.445   8.271   4.854
39347SOL    HW119874   9.478   8.339   4.795
39347SOL    HW219875   9.355   8.256   4.825
39348SOL     OW19876  13.645   2.207   7.024
39348SOL    HW119877  13.608   2.259   6.953
39348SOL    HW219878  13.573   2.152   7.054
39349SOL     OW19879  10.976   4.647  10.641
39349SOL    HW119880  11.053   4.687  10.681
39349SOL    HW219881  10.961   4.698  10.561
39350SOL     OW19882  11.784  11.938  13.640
39350SOL    HW119883  11.795  11.858  13.588
39350SOL    HW219884  11.780  11.908  13.731
39351SOL     OW19885   1.969   2.426   9.520
39351SOL    HW119886   2.045   2.479   9.543
39351SOL    HW219887   1.897   2.463   9.571
39352SOL     OW19888   8.042  11.577   4.130
39352SOL    HW119889   8.028  11.665   4.096
39352SOL    HW219890   8.094  11.533   4.063
39353SOL     OW19891   2.332  14.736  11.233
39353SOL    HW119892   2.318  14.808  11.294
39353SOL    HW219893   2.312  14.657  11.284
39354SOL     OW19894   9.059   3.608   5.149
39354SOL    HW119895   9.072   3.627   5.056
39354SOL    HW219896   9.060   3.694   5.191
39355SOL     OW19897  14.071   5.303   3.665
39355SOL    HW119898  14.025   5.235   3.616
39355SOL    HW219899  14.050   5.285   3.757
39356SOL     OW19900  11.323   1.445  10.345
39356SOL    HW119901  11.264   1.510  10.384
39356SOL    HW219902  11.398   1.442  10.404
39357SOL     OW19903   9.877  13.869   9.393
39357SOL    HW119904   9.906  13.799   9.452
39357SOL    HW219905   9.929  13.945   9.420
39358SOL     OW19906   4.579   1.037   1.793
39358SOL    HW119907   4.555   1.066   1.706
39358SOL    HW219908   4.591   1.118   1.843
39359SOL     OW19909  13.338  13.928   8.345
39359SOL    HW119910  13.420  13.894   8.383
39359SOL    HW219911  13.341  14.022   8.361
39360SOL     OW19912   2.098   1.213   4.648
39360SOL    HW119913   2.129   1.183   4.562
39360SOL    HW219914   2.152   1.289   4.668
39361SOL     OW19915  13.289  10.882   6.864
39361SOL    HW119916  13.219  10.825   6.896
39361SOL    HW219917  13.280  10.881   6.769
39362SOL     OW19918   4.564   5.495   0.745
39362SOL    HW119919   4.528   5.576   0.781
39362SOL    HW219920   4.606   5.521   0.663
39363SOL     OW19921   3.060   4.912   6.601
39363SOL    HW119922   3.027   4.928   6.512
39363SOL    HW219923   3.143   4.960   6.605
39364SOL     OW19924   0.424   8.354   6.422
39364SOL    HW119925   0.446   8.321   6.509
39364SOL    HW219926   0.483   8.307   6.363
39365SOL     OW19927   7.003  10.595  13.334
39365SOL    HW119928   7.034  10.504  13.332
39365SOL    HW219929   6.913  10.590  13.303
39366SOL     OW19930  11.540   3.816   7.902
39366SOL    HW119931  11.478   3.846   7.969
39366SOL    HW219932  11.515   3.863   7.823
39367SOL     OW19933  11.849   7.325  11.652
39367SOL    HW119934  11.825   7.331  11.560
39367SOL    HW219935  11.899   7.405  11.669
39368SOL     OW19936   3.331   5.827  11.487
39368SOL    HW119937   3.267   5.893  11.513
39368SOL    HW219938   3.343   5.773  11.566
39369SOL     OW19939   2.531   8.752   5.876
39369SOL    HW119940   2.609   8.728   5.925
39369SOL    HW219941   2.459   8.711   5.924
39370SOL     OW19942   1.035   6.734   2.081
39370SOL    HW119943   1.103   6.693   2.134
39370SOL    HW219944   1.047   6.828   2.096
39371SOL     OW19945   7.386  13.544   3.352
39371SOL    HW119946   7.337  13.626   3.359
39371SOL    HW219947   7.378  13.520   3.260
39372SOL     OW19948   3.341  13.144  11.752
39372SOL    HW119949   3.433  13.167  11.740
39372SOL    HW219950   3.294  13.226  11.737
39373SOL     OW19951   0.749  14.151  13.611
39373SOL    HW119952   0.749  14.077  13.671
39373SOL    HW219953   0.799  14.120  13.535
39374SOL     OW19954   7.513   3.483   4.594
39374SOL    HW119955   7.489   3.430   4.518
39374SOL    HW219956   7.516   3.420   4.666
39375SOL     OW19957   9.284   6.238  12.563
39375SOL    HW119958   9.306   6.252  12.471
39375SOL    HW219959   9.322   6.313  12.609
39376SOL     OW19960   3.317  13.924  12.382
39376SOL    HW119961   3.329  14.014  12.352
39376SOL    HW219962   3.245  13.891  12.330
39377SOL     OW19963   2.663   2.479  13.527
39377SOL    HW119964   2.664   2.411  13.594
39377SOL    HW219965   2.745   2.527  13.541
39378SOL     OW19966  11.939   6.599  10.917
39378SOL    HW119967  11.891   6.518  10.901
39378SOL    HW219968  11.871   6.665  10.930
39379SOL     OW19969   1.655   2.323   2.281
39379SOL    HW119970   1.635   2.350   2.192
39379SOL    HW219971   1.608   2.386   2.336
39380SOL     OW19972  10.225   0.274   4.470
39380SOL    HW119973  10.317   0.250   4.461
39380SOL    HW219974  10.182   0.194   4.500
39381SOL     OW19975   5.136   4.253   0.940
39381SOL    HW119976   5.195   4.226   0.870
39381SOL    HW219977   5.192   4.299   1.002
39382SOL     OW19978   4.912   7.958  10.996
39382SOL    HW119979   4.909   7.893  10.925
39382SOL    HW219980   5.000   7.996  10.990
39383SOL     OW19981  10.384   8.573  12.964
39383SOL    HW119982  10.424   8.616  13.039
39383SOL    HW219983  10.451   8.513  12.931
39384SOL     OW19984   9.276  14.501  11.921
39384SOL    HW119985   9.362  14.498  11.963
39384SOL    HW219986   9.241  14.412  11.931
39385SOL     OW19987   3.912   9.875  14.729
39385SOL    HW119988   3.958   9.803  14.774
39385SOL    HW219989   3.980   9.940  14.713
39386SOL     OW19990  14.174   3.352   2.047
39386SOL    HW119991  14.209   3.313   2.127
39386SOL    HW219992  14.246   3.348   1.985
39387SOL     OW19993  12.666  13.715   8.475
39387SOL    HW119994  12.605  13.760   8.534
39387SOL    HW219995  12.619  13.636   8.448
39388SOL     OW19996  10.536   7.079   4.812
39388SOL    HW119997  10.481   7.005   4.788
39388SOL    HW219998  10.543   7.074   4.908
39389SOL     OW19999   3.879   4.809   2.304
39389SOL    HW120000   3.885   4.902   2.283
39389SOL    HW220001   3.811   4.775   2.246
39390SOL     OW20002  12.550   7.401   2.440
39390SOL    HW120003  12.594   7.418   2.523
39390SOL    HW220004  12.590   7.461   2.378
39391SOL     OW20005   8.094   8.505   3.895
39391SOL    HW120006   8.119   8.430   3.840
39391SOL    HW220007   8.176   8.553   3.907
39392SOL     OW20008   0.958   5.483   5.402
39392SOL    HW120009   0.907   5.481   5.320
39392SOL    HW220010   1.043   5.519   5.376
39393SOL     OW20011   7.232  12.331   0.293
39393SOL    HW120012   7.261  12.259   0.350
39393SOL    HW220013   7.202  12.287   0.214
39394SOL     OW20014  14.699   9.763  14.245
39394SOL    HW120015  14.757   9.805  14.308
39394SOL    HW220016  14.758   9.712  14.189
39395SOL     OW20017  12.176   3.892   3.087
39395SOL    HW120018  12.219   3.916   3.169
39395SOL    HW220019  12.166   3.975   3.040
39396SOL     OW20020   1.661   7.361   1.356
39396SOL    HW120021   1.655   7.269   1.384
39396SOL    HW220022   1.617   7.363   1.271
39397SOL     OW20023  12.944  11.369  14.630
39397SOL    HW120024  12.862  11.386  14.582
39397SOL    HW220025  12.985  11.455  14.639
39398SOL     OW20026  13.908   7.502   8.890
39398SOL    HW120027  13.901   7.470   8.980
39398SOL    HW220028  13.981   7.563   8.892
39399SOL     OW20029   1.942   1.540  12.852
39399SOL    HW120030   1.996   1.462  12.867
39399SOL    HW220031   1.958   1.563  12.761
39400SOL     OW20032  13.904  13.935   4.260
39400SOL    HW120033  13.808  13.927   4.267
39400SOL    HW220034  13.933  13.947   4.350
39401SOL     OW20035  10.855   7.017   0.216
39401SOL    HW120036  10.831   7.043   0.127
39401SOL    HW220037  10.936   6.966   0.206
39402SOL     OW20038   2.484   1.562  12.391
39402SOL    HW120039   2.461   1.514  12.311
39402SOL    HW220040   2.536   1.499  12.442
39403SOL     OW20041   5.468   0.477  11.448
39403SOL    HW120042   5.399   0.474  11.514
39403SOL    HW220043   5.456   0.561  11.403
39404SOL     OW20044   9.343  12.083   4.996
39404SOL    HW120045   9.365  12.061   5.087
39404SOL    HW220046   9.331  11.999   4.953
39405SOL     OW20047   3.449   4.935  12.967
39405SOL    HW120048   3.465   4.841  12.976
39405SOL    HW220049   3.364   4.941  12.924
39406SOL     OW20050  14.628   4.109   5.610
39406SOL    HW120051  14.723   4.100   5.620
39406SOL    HW220052  14.591   4.052   5.677
39407SOL     OW20053   4.227  11.208   1.566
39407SOL    HW120054   4.163  11.142   1.540
39407SOL    HW220055   4.184  11.257   1.637
39408SOL     OW20056   3.885   6.136  10.501
39408SOL    HW120057   3.880   6.047  10.466
39408SOL    HW220058   3.964   6.137  10.555
39409SOL     OW20059   9.351   3.440   6.535
39409SOL    HW120060   9.425   3.461   6.479
39409SOL    HW220061   9.390   3.414   6.619
39410SOL     OW20062   9.010   5.549   7.421
39410SOL    HW120063   8.967   5.626   7.457
39410SOL    HW220064   9.031   5.572   7.331
39411SOL     OW20065   5.104   2.363   3.315
39411SOL    HW120066   5.056   2.332   3.392
39411SOL    HW220067   5.109   2.458   3.326
39412SOL     OW20068  12.255   4.471   8.590
39412SOL    HW120069  12.281   4.461   8.682
39412SOL    HW220070  12.333   4.504   8.546
39413SOL     OW20071  13.458  13.784   9.913
39413SOL    HW120072  13.467  13.827   9.828
39413SOL    HW220073  13.404  13.707   9.896
39414SOL     OW20074   7.164  13.707   2.075
39414SOL    HW120075   7.177  13.643   2.005
39414SOL    HW220076   7.095  13.669   2.130
39415SOL     OW20077  11.291   1.847   5.055
39415SOL    HW120078  11.198   1.850   5.079
39415SOL    HW220079  11.300   1.912   4.986
39416SOL     OW20080  14.597   4.611   1.976
39416SOL    HW120081  14.550   4.530   1.994
39416SOL    HW220082  14.683   4.582   1.945
39417SOL     OW20083   6.255   2.783  12.062
39417SOL    HW120084   6.324   2.724  12.032
39417SOL    HW220085   6.281   2.869  12.030
39418SOL     OW20086  13.966  13.868   5.223
39418SOL    HW120087  14.038  13.928   5.203
39418SOL    HW220088  13.957  13.814   5.144
39419SOL     OW20089   5.308  10.096   6.695
39419SOL    HW120090   5.361  10.128   6.767
39419SOL    HW220091   5.262  10.020   6.731
39420SOL     OW20092  13.419  12.995   8.674
39420SOL    HW120093  13.492  12.940   8.644
39420SOL    HW220094  13.437  13.008   8.767
39421SOL     OW20095  13.741   6.553   0.638
39421SOL    HW120096  13.751   6.486   0.569
39421SOL    HW220097  13.823   6.548   0.687
39422SOL     OW20098   1.329   9.187  10.524
39422SOL    HW120099   1.322   9.282  10.534
39422SOL    HW220100   1.262   9.165  10.459
39423SOL     OW20101   0.824   5.109   4.068
39423SOL    HW120102   0.781   5.042   4.121
39423SOL    HW220103   0.916   5.081   4.064
39424SOL     OW20104   8.000   4.922   7.341
39424SOL    HW120105   8.048   4.918   7.424
39424SOL    HW220106   8.067   4.934   7.274
39425SOL     OW20107   1.938   7.697  14.006
39425SOL    HW120108   1.923   7.638  14.079
39425SOL    HW220109   1.957   7.639  13.932
39426SOL     OW20110   7.082   5.475  10.747
39426SOL    HW120111   7.073   5.563  10.709
39426SOL    HW220112   7.015   5.472  10.816
39427SOL     OW20113  10.853   6.325   3.921
39427SOL    HW120114  10.876   6.306   3.830
39427SOL    HW220115  10.826   6.417   3.919
39428SOL     OW20116   2.749   0.484  14.240
39428SOL    HW120117   2.803   0.444  14.172
39428SOL    HW220118   2.799   0.470  14.321
39429SOL     OW20119  12.826   3.162  14.027
39429SOL    HW120120  12.780   3.078  14.026
39429SOL    HW220121  12.760   3.226  14.056
39430SOL     OW20122   1.297   8.256   3.306
39430SOL    HW120123   1.293   8.328   3.243
39430SOL    HW220124   1.255   8.183   3.261
39431SOL     OW20125   9.935   0.732   9.371
39431SOL    HW120126   9.841   0.726   9.386
39431SOL    HW220127   9.955   0.659   9.312
39432SOL     OW20128   8.187   1.648   8.883
39432SOL    HW120129   8.240   1.699   8.944
39432SOL    HW220130   8.235   1.651   8.800
39433SOL     OW20131   1.864  11.279   4.598
39433SOL    HW120132   1.867  11.301   4.691
39433SOL    HW220133   1.852  11.363   4.554
39434SOL     OW20134  12.973   5.637  13.238
39434SOL    HW120135  12.971   5.638  13.334
39434SOL    HW220136  12.932   5.555  13.214
39435SOL     OW20137   5.751  11.982   0.674
39435SOL    HW120138   5.659  11.973   0.650
39435SOL    HW220139   5.795  12.001   0.591
39436SOL     OW20140   4.788   0.707   7.080
39436SOL    HW120141   4.730   0.775   7.045
39436SOL    HW220142   4.800   0.646   7.007
39437SOL     OW20143   2.609   2.093   4.778
39437SOL    HW120144   2.690   2.079   4.827
39437SOL    HW220145   2.549   2.027   4.811
39438SOL     OW20146   7.483   1.085  11.077
39438SOL    HW120147   7.573   1.064  11.051
39438SOL    HW220148   7.476   1.180  11.066
39439SOL     OW20149  10.474  12.335   8.833
39439SOL    HW120150  10.391  12.382   8.824
39439SOL    HW220151  10.540  12.404   8.836
39440SOL     OW20152   5.895   5.410  10.248
39440SOL    HW120153   5.889   5.476  10.178
39440SOL    HW220154   5.901   5.327  10.201
39441SOL     OW20155   0.674   1.923  11.052
39441SOL    HW120156   0.680   1.893  10.961
39441SOL    HW220157   0.682   2.018  11.046
39442SOL     OW20158  11.565   3.912  13.762
39442SOL    HW120159  11.654   3.879  13.766
39442SOL    HW220160  11.566   3.990  13.818
39443SOL     OW20161   9.130   2.880   7.353
39443SOL    HW120162   9.145   2.848   7.264
39443SOL    HW220163   9.048   2.838   7.380
39444SOL     OW20164   5.401  12.555   2.633
39444SOL    HW120165   5.426  12.541   2.724
39444SOL    HW220166   5.402  12.651   2.623
39445SOL     OW20167   1.375   9.871  14.338
39445SOL    HW120168   1.391   9.945  14.279
39445SOL    HW220169   1.398   9.904  14.425
39446SOL     OW20170  14.159   2.221   4.872
39446SOL    HW120171  14.112   2.138   4.871
39446SOL    HW220172  14.129   2.264   4.952
39447SOL     OW20173   5.369  10.928   1.450
39447SOL    HW120174   5.312  10.882   1.388
39447SOL    HW220175   5.378  11.016   1.413
39448SOL     OW20176   8.556   8.202   4.809
39448SOL    HW120177   8.596   8.221   4.894
39448SOL    HW220178   8.532   8.288   4.775
39449SOL     OW20179   8.573  10.405   8.114
39449SOL    HW120180   8.514  10.480   8.117
39449SOL    HW220181   8.596  10.396   8.022
39450SOL     OW20182  11.659   2.651  14.364
39450SOL    HW120183  11.589   2.716  14.360
39450SOL    HW220184  11.677   2.641  14.457
39451SOL     OW20185  13.582   7.563  10.734
39451SOL    HW120186  13.620   7.485  10.775
39451SOL    HW220187  13.487   7.549  10.740
39452SOL     OW20188   5.983   3.806   3.166
39452SOL    HW120189   5.991   3.846   3.080
39452SOL    HW220190   5.947   3.874   3.222
39453SOL     OW20191   0.765   9.471   9.891
39453SOL    HW120192   0.843   9.486   9.837
39453SOL    HW220193   0.756   9.376   9.895
39454SOL     OW20194  10.957   2.497  14.013
39454SOL    HW120195  11.014   2.569  14.040
39454SOL    HW220196  10.924   2.523  13.927
39455SOL     OW20197  12.795   4.204  13.499
39455SOL    HW120198  12.884   4.172  13.483
39455SOL    HW220199  12.802   4.253  13.581
39456SOL     OW20200  13.539  13.847   2.323
39456SOL    HW120201  13.594  13.885   2.392
39456SOL    HW220202  13.558  13.753   2.325
39457SOL     OW20203  10.965  12.264   8.965
39457SOL    HW120204  11.060  12.259   8.974
39457SOL    HW220205  10.935  12.173   8.976
39458SOL     OW20206   6.275  10.635   6.686
39458SOL    HW120207   6.284  10.590   6.770
39458SOL    HW220208   6.330  10.584   6.626
39459SOL     OW20209   0.465  12.557  12.315
39459SOL    HW120210   0.381  12.542  12.359
39459SOL    HW220211   0.458  12.510  12.232
39460SOL     OW20212   0.209   8.844   8.176
39460SOL    HW120213   0.233   8.756   8.147
39460SOL    HW220214   0.178   8.832   8.266
39461SOL     OW20215  14.393  13.389   8.718
39461SOL    HW120216  14.381  13.443   8.640
39461SOL    HW220217  14.306  13.383   8.757
39462SOL     OW20218   8.355   8.659   8.838
39462SOL    HW120219   8.306   8.607   8.774
39462SOL    HW220220   8.442   8.619   8.841
39463SOL     OW20221   5.553   6.281  10.461
39463SOL    HW120222   5.553   6.250  10.370
39463SOL    HW220223   5.605   6.362  10.458
39464SOL     OW20224  13.061   4.535   3.411
39464SOL    HW120225  13.099   4.582   3.337
39464SOL    HW220226  13.020   4.603   3.465
39465SOL     OW20227   3.624   1.649  13.309
39465SOL    HW120228   3.659   1.738  13.300
39465SOL    HW220229   3.536   1.653  13.271
39466SOL     OW20230   5.864  10.265  10.712
39466SOL    HW120231   5.885  10.212  10.634
39466SOL    HW220232   5.838  10.200  10.778
39467SOL     OW20233   4.852  12.857  11.895
39467SOL    HW120234   4.779  12.827  11.842
39467SOL    HW220235   4.843  12.810  11.978
39468SOL     OW20236   9.781   1.620   7.468
39468SOL    HW120237   9.854   1.572   7.506
39468SOL    HW220238   9.820   1.672   7.397
39469SOL     OW20239  10.197  12.128   5.665
39469SOL    HW120240  10.162  12.040   5.674
39469SOL    HW220241  10.190  12.165   5.753
39470SOL     OW20242  14.630   6.787  10.344
39470SOL    HW120243  14.705   6.846  10.341
39470SOL    HW220244  14.661   6.710  10.392
39471SOL     OW20245   4.418   2.642  11.291
39471SOL    HW120246   4.464   2.725  11.284
39471SOL    HW220247   4.483   2.576  11.267
39472SOL     OW20248  14.845   3.128  14.597
39472SOL    HW120249  14.843   3.191  14.670
39472SOL    HW220250   0.046   3.150  14.549
39473SOL     OW20251  12.406   5.746   6.951
39473SOL    HW120252  12.333   5.718   6.895
39473SOL    HW220253  12.371   5.821   6.999
39474SOL     OW20254  10.850   8.666   4.629
39474SOL    HW120255  10.799   8.617   4.694
39474SOL    HW220256  10.834   8.620   4.547
39475SOL     OW20257   2.896  10.595   1.043
39475SOL    HW120258   2.854  10.514   1.070
39475SOL    HW220259   2.840  10.664   1.078
39476SOL     OW20260   7.654   3.311  13.482
39476SOL    HW120261   7.709   3.323  13.405
39476SOL    HW220262   7.606   3.393  13.490
39477SOL     OW20263   2.962  11.364   1.706
39477SOL    HW120264   3.041  11.415   1.691
39477SOL    HW220265   2.979  11.280   1.662
39478SOL     OW20266   4.625   7.592   5.889
39478SOL    HW120267   4.692   7.525   5.876
39478SOL    HW220268   4.661   7.650   5.956
39479SOL     OW20269   7.152  11.019  12.063
39479SOL    HW120270   7.125  11.048  12.150
39479SOL    HW220271   7.072  10.983  12.024
39480SOL     OW20272   7.063   2.933  14.028
39480SOL    HW120273   7.037   2.853  14.073
39480SOL    HW220274   7.053   3.002  14.093
39481SOL     OW20275  12.218  14.863   3.096
39481SOL    HW120276  12.166   0.062   3.077
39481SOL    HW220277  12.184  14.797   3.036
39482SOL     OW20278   1.664  12.623  14.187
39482SOL    HW120279   1.599  12.657  14.126
39482SOL    HW220280   1.699  12.701  14.231
39483SOL     OW20281   2.721   2.896   8.131
39483SOL    HW120282   2.673   2.978   8.119
39483SOL    HW220283   2.678   2.853   8.204
39484SOL     OW20284   5.145   3.920  12.318
39484SOL    HW120285   5.136   3.912  12.413
39484SOL    HW220286   5.198   3.999  12.306
39485SOL     OW20287   4.135  13.529   4.550
39485SOL    HW120288   4.204  13.556   4.489
39485SOL    HW220289   4.162  13.442   4.580
39486SOL     OW20290   9.115   2.252   7.661
39486SOL    HW120291   9.092   2.172   7.709
39486SOL    HW220292   9.047   2.314   7.683
39487SOL     OW20293   6.678   9.017  14.351
39487SOL    HW120294   6.767   9.029  14.384
39487SOL    HW220295   6.631   8.975  14.423
39488SOL     OW20296  13.397   3.779   1.738
39488SOL    HW120297  13.403   3.862   1.691
39488SOL    HW220298  13.368   3.802   1.826
39489SOL     OW20299   3.527  11.497  11.761
39489SOL    HW120300   3.550  11.572  11.707
39489SOL    HW220301   3.607  11.475  11.808
39490SOL     OW20302  10.369   9.195   3.574
39490SOL    HW120303  10.366   9.113   3.524
39490SOL    HW220304  10.281   9.231   3.565
39491SOL     OW20305  10.761  14.122  12.104
39491SOL    HW120306  10.707  14.122  12.025
39491SOL    HW220307  10.724  14.191  12.159
39492SOL     OW20308   0.309   1.663  12.310
39492SOL    HW120309   0.233   1.698  12.356
39492SOL    HW220310   0.311   1.710  12.226
39493SOL     OW20311   5.375   6.439   1.004
39493SOL    HW120312   5.345   6.520   0.963
39493SOL    HW220313   5.396   6.382   0.930
39494SOL     OW20314   9.086   7.246   5.074
39494SOL    HW120315   9.067   7.288   5.158
39494SOL    HW220316   9.176   7.214   5.083
39495SOL     OW20317   3.623  12.622   3.669
39495SOL    HW120318   3.628  12.620   3.764
39495SOL    HW220319   3.708  12.591   3.639
39496SOL     OW20320   8.708   2.759   9.532
39496SOL    HW120321   8.660   2.823   9.479
39496SOL    HW220322   8.639   2.705   9.571
39497SOL     OW20323  13.399   9.779   6.574
39497SOL    HW120324  13.415   9.806   6.484
39497SOL    HW220325  13.441   9.693   6.581
39498SOL     OW20326  14.099   8.292  10.667
39498SOL    HW120327  14.050   8.356  10.615
39498SOL    HW220328  14.180   8.278  10.619
39499SOL     OW20329   8.197  14.380  10.368
39499SOL    HW120330   8.145  14.423  10.436
39499SOL    HW220331   8.262  14.445  10.343
39500SOL     OW20332   7.780  14.450   0.240
39500SOL    HW120333   7.872  14.471   0.225
39500SOL    HW220334   7.744  14.436   0.153
39501SOL     OW20335  10.730  14.420  12.826
39501SOL    HW120336  10.810  14.455  12.863
39501SOL    HW220337  10.660  14.463  12.875
39502SOL     OW20338   2.748  10.554   4.076
39502SOL    HW120339   2.701  10.487   4.028
39502SOL    HW220340   2.748  10.630   4.018
39503SOL     OW20341   0.835  10.621   9.486
39503SOL    HW120342   0.930  10.608   9.496
39503SOL    HW220343   0.803  10.537   9.453
39504SOL     OW20344   9.844  13.363  14.613
39504SOL    HW120345   9.753  13.382  14.592
39504SOL    HW220346   9.868  13.432  14.676
39505SOL     OW20347   3.726   7.675  12.679
39505SOL    HW120348   3.751   7.767  12.689
39505SOL    HW220349   3.635   7.671  12.709
39506SOL     OW20350   3.268   5.069   6.614
39506SOL    HW120351   3.273   5.121   6.695
39506SOL    HW220352   3.359   5.059   6.587
39507SOL     OW20353   7.107   7.299   2.896
39507SOL    HW120354   7.197   7.304   2.864
39507SOL    HW220355   7.098   7.210   2.929
39508SOL     OW20356   4.084   5.648   4.686
39508SOL    HW120357   4.152   5.715   4.675
39508SOL    HW220358   4.046   5.638   4.599
39509SOL     OW20359  13.981   5.817   8.986
39509SOL    HW120360  13.912   5.883   8.978
39509SOL    HW220361  14.011   5.803   8.896
39510SOL     OW20362   0.902   6.419   1.700
39510SOL    HW120363   0.978   6.465   1.665
39510SOL    HW220364   0.936   6.333   1.725
39511SOL     OW20365   2.347   8.182  13.997
39511SOL    HW120366   2.364   8.089  14.016
39511SOL    HW220367   2.390   8.196  13.912
39512SOL     OW20368  12.014   5.208   5.922
39512SOL    HW120369  11.986   5.208   6.013
39512SOL    HW220370  12.109   5.195   5.926
39513SOL     OW20371  12.978   3.898   6.491
39513SOL    HW120372  12.901   3.847   6.518
39513SOL    HW220373  12.966   3.983   6.533
39514SOL     OW20374   3.675   1.056   1.435
39514SOL    HW120375   3.663   1.133   1.380
39514SOL    HW220376   3.616   1.071   1.510
39515SOL     OW20377   1.023   8.377   2.480
39515SOL    HW120378   1.071   8.446   2.525
39515SOL    HW220379   0.971   8.423   2.414
39516SOL     OW20380   6.205  10.236   5.582
39516SOL    HW120381   6.293  10.230   5.544
39516SOL    HW220382   6.188  10.148   5.616
39517SOL     OW20383   6.384   6.196   1.183
39517SOL    HW120384   6.419   6.176   1.097
39517SOL    HW220385   6.407   6.287   1.198
39518SOL     OW20386   4.625   3.166  14.676
39518SOL    HW120387   4.641   3.217  14.755
39518SOL    HW220388   4.711   3.158  14.634
39519SOL     OW20389   9.205   1.238  12.287
39519SOL    HW120390   9.268   1.165  12.285
39519SOL    HW220391   9.121   1.196  12.304
39520SOL     OW20392   9.778   6.472   1.689
39520SOL    HW120393   9.731   6.391   1.705
39520SOL    HW220394   9.821   6.491   1.773
39521SOL     OW20395   0.382  13.898   5.608
39521SOL    HW120396   0.383  13.906   5.704
39521SOL    HW220397   0.463  13.940   5.580
39522SOL     OW20398   6.968   9.658   1.446
39522SOL    HW120399   6.924   9.675   1.529
39522SOL    HW220400   6.904   9.611   1.393
39523SOL     OW20401   7.834   0.393   6.015
39523SOL    HW120402   7.745   0.359   6.029
39523SOL    HW220403   7.891   0.319   6.032
39524SOL     OW20404   3.080  10.050   8.318
39524SOL    HW120405   3.135  10.106   8.262
39524SOL    HW220406   3.143  10.001   8.371
39525SOL     OW20407   5.475   3.660   8.979
39525SOL    HW120408   5.439   3.649   8.891
39525SOL    HW220409   5.565   3.629   8.973
39526SOL     OW20410  12.513   9.063   7.200
39526SOL    HW120411  12.549   8.982   7.237
39526SOL    HW220412  12.471   9.035   7.118
39527SOL     OW20413   3.483  13.793   8.767
39527SOL    HW120414   3.450  13.706   8.787
39527SOL    HW220415   3.420  13.830   8.705
39528SOL     OW20416   6.324   2.376   5.410
39528SOL    HW120417   6.243   2.344   5.370
39528SOL    HW220418   6.348   2.310   5.475
39529SOL     OW20419   7.589   3.017  11.858
39529SOL    HW120420   7.600   3.008  11.952
39529SOL    HW220421   7.519   3.081  11.847
39530SOL     OW20422   2.038  13.146   9.197
39530SOL    HW120423   2.030  13.051   9.202
39530SOL    HW220424   1.952  13.177   9.170
39531SOL     OW20425  11.358  12.146   3.059
39531SOL    HW120426  11.311  12.186   2.986
39531SOL    HW220427  11.293  12.089   3.101
39532SOL     OW20428   2.668  11.855  12.660
39532SOL    HW120429   2.735  11.788  12.649
39532SOL    HW220430   2.632  11.867  12.572
39533SOL     OW20431  10.425  10.520  12.939
39533SOL    HW120432  10.358  10.555  12.881
39533SOL    HW220433  10.488  10.478  12.881
39534SOL     OW20434   3.941   7.768   3.266
39534SOL    HW120435   3.869   7.825   3.294
39534SOL    HW220436   3.932   7.764   3.170
39535SOL     OW20437   1.890   2.996   7.489
39535SOL    HW120438   1.913   2.985   7.396
39535SOL    HW220439   1.956   3.056   7.523
39536SOL     OW20440   3.159   9.600  11.837
39536SOL    HW120441   3.235   9.656  11.819
39536SOL    HW220442   3.196   9.514  11.856
39537SOL     OW20443   1.956  14.097  12.090
39537SOL    HW120444   1.893  14.037  12.050
39537SOL    HW220445   1.905  14.175  12.111
39538SOL     OW20446   0.937   6.059   8.779
39538SOL    HW120447   1.003   6.046   8.847
39538SOL    HW220448   0.953   5.989   8.716
39539SOL     OW20449   7.631   6.055   1.940
39539SOL    HW120450   7.595   6.115   2.006
39539SOL    HW220451   7.716   6.092   1.918
39540SOL     OW20452   0.326   3.193   4.594
39540SOL    HW120453   0.233   3.205   4.573
39540SOL    HW220454   0.333   3.216   4.686
39541SOL     OW20455   9.039  13.552   9.108
39541SOL    HW120456   9.095  13.474   9.104
39541SOL    HW220457   9.053  13.595   9.024
39542SOL     OW20458   3.180   1.193   5.628
39542SOL    HW120459   3.235   1.271   5.618
39542SOL    HW220460   3.101   1.214   5.578
39543SOL     OW20461   9.443   5.079  13.429
39543SOL    HW120462   9.429   5.049  13.519
39543SOL    HW220463   9.396   5.161  13.423
39544SOL     OW20464  12.161  12.452   4.370
39544SOL    HW120465  12.190  12.387   4.434
39544SOL    HW220466  12.233  12.516   4.367
39545SOL     OW20467   7.938   9.485   1.419
39545SOL    HW120468   8.005   9.530   1.471
39545SOL    HW220469   7.855   9.513   1.458
39546SOL     OW20470   4.478  14.624  10.904
39546SOL    HW120471   4.537  14.609  10.830
39546SOL    HW220472   4.477  14.542  10.952
39547SOL     OW20473  10.405   0.040  12.922
39547SOL    HW120474  10.494   0.057  12.953
39547SOL    HW220475  10.366  14.863  12.990
39548SOL     OW20476   5.412  13.790  12.536
39548SOL    HW120477   5.481  13.854  12.556
39548SOL    HW220478   5.361  13.783  12.617
39549SOL     OW20479   9.088   5.859   8.348
39549SOL    HW120480   9.025   5.801   8.392
39549SOL    HW220481   9.156   5.874   8.414
39550SOL     OW20482   8.801   9.549  11.997
39550SOL    HW120483   8.830   9.605  11.925
39550SOL    HW220484   8.850   9.580  12.073
39551SOL     OW20485   9.335   2.691   5.430
39551SOL    HW120486   9.245   2.696   5.399
39551SOL    HW220487   9.346   2.769   5.485
39552SOL     OW20488   3.450   8.083  11.010
39552SOL    HW120489   3.360   8.081  10.980
39552SOL    HW220490   3.492   8.009  10.967
39553SOL     OW20491  11.831   1.286   3.924
39553SOL    HW120492  11.756   1.277   3.983
39553SOL    HW220493  11.854   1.378   3.930
39554SOL     OW20494   7.313   4.424   5.936
39554SOL    HW120495   7.385   4.424   5.999
39554SOL    HW220496   7.250   4.361   5.972
39555SOL     OW20497   6.531   9.362  13.069
39555SOL    HW120498   6.486   9.431  13.020
39555SOL    HW220499   6.620   9.395  13.080
39556SOL     OW20500  10.325   9.775  12.570
39556SOL    HW120501  10.234   9.805  12.569
39556SOL    HW220502  10.319   9.679  12.575
39557SOL     OW20503   4.370   1.778   8.270
39557SOL    HW120504   4.364   1.830   8.349
39557SOL    HW220505   4.295   1.719   8.273
39558SOL     OW20506   8.158   3.612   0.011
39558SOL    HW120507   8.193   3.700   0.029
39558SOL    HW220508   8.235   3.558  14.876
39559SOL     OW20509   9.881   9.852   2.197
39559SOL    HW120510   9.865   9.873   2.289
39559SOL    HW220511   9.812   9.900   2.150
39560SOL     OW20512  11.528   7.486  14.832
39560SOL    HW120513  11.447   7.440  14.856
39560SOL    HW220514  11.597   7.423  14.851
39561SOL     OW20515   3.987  11.987   9.231
39561SOL    HW120516   4.019  12.042   9.303
39561SOL    HW220517   4.011  12.035   9.152
39562SOL     OW20518   3.023   2.458  10.169
39562SOL    HW120519   2.972   2.526  10.214
39562SOL    HW220520   2.957   2.397  10.137
39563SOL     OW20521   2.184  10.494  13.773
39563SOL    HW120522   2.149  10.431  13.835
39563SOL    HW220523   2.136  10.575  13.792
39564SOL     OW20524   4.772   0.671  11.181
39564SOL    HW120525   4.680   0.698  11.183
39564SOL    HW220526   4.776   0.596  11.240
39565SOL     OW20527   5.254  14.866  10.933
39565SOL    HW120528   5.256  14.845  10.840
39565SOL    HW220529   5.174   0.038  10.945
39566SOL     OW20530  10.058  13.197  10.211
39566SOL    HW120531   9.985  13.206  10.273
39566SOL    HW220532  10.053  13.106  10.181
39567SOL     OW20533  11.623  12.067   8.024
39567SOL    HW120534  11.600  11.992   7.970
39567SOL    HW220535  11.694  12.111   7.976
39568SOL     OW20536  11.516   6.346   2.898
39568SOL    HW120537  11.472   6.359   2.814
39568SOL    HW220538  11.457   6.386   2.962
39569SOL     OW20539  12.726   9.282   4.487
39569SOL    HW120540  12.731   9.220   4.414
39569SOL    HW220541  12.708   9.367   4.445
39570SOL     OW20542   6.831   3.471   6.229
39570SOL    HW120543   6.866   3.510   6.309
39570SOL    HW220544   6.897   3.490   6.162
39571SOL     OW20545  14.372   9.363   3.804
39571SOL    HW120546  14.328   9.291   3.849
39571SOL    HW220547  14.364   9.342   3.711
39572SOL     OW20548   0.333   7.210   6.822
39572SOL    HW120549   0.425   7.229   6.843
39572SOL    HW220550   0.295   7.296   6.804
39573SOL     OW20551   6.986   0.377   5.316
39573SOL    HW120552   7.038   0.350   5.241
39573SOL    HW220553   6.969   0.296   5.364
39574SOL     OW20554   8.515   5.525  13.835
39574SOL    HW120555   8.498   5.552  13.745
39574SOL    HW220556   8.555   5.438  13.827
39575SOL     OW20557   6.846  13.040   9.265
39575SOL    HW120558   6.940  13.021   9.258
39575SOL    HW220559   6.829  13.046   9.359
39576SOL     OW20560   5.501   6.864   6.767
39576SOL    HW120561   5.567   6.890   6.703
39576SOL    HW220562   5.424   6.915   6.744
39577SOL     OW20563   9.738   7.779   7.339
39577SOL    HW120564   9.710   7.688   7.331
39577SOL    HW220565   9.657   7.829   7.337
39578SOL     OW20566  10.616  14.529   2.582
39578SOL    HW120567  10.586  14.592   2.648
39578SOL    HW220568  10.602  14.574   2.498
39579SOL     OW20569   3.413  13.328   7.344
39579SOL    HW120570   3.376  13.416   7.334
39579SOL    HW220571   3.355  13.272   7.293
39580SOL     OW20572   0.720   7.820   8.520
39580SOL    HW120573   0.624   7.819   8.515
39580SOL    HW220574   0.748   7.861   8.439
39581SOL     OW20575   6.425   2.205   1.057
39581SOL    HW120576   6.364   2.279   1.061
39581SOL    HW220577   6.410   2.166   0.971
39582SOL     OW20578  11.224   5.923   3.781
39582SOL    HW120579  11.226   5.879   3.866
39582SOL    HW220580  11.192   5.855   3.721
39583SOL     OW20581   7.144  13.543   9.444
39583SOL    HW120582   7.171  13.487   9.371
39583SOL    HW220583   7.226  13.572   9.484
39584SOL     OW20584  11.241  13.316   4.881
39584SOL    HW120585  11.228  13.267   4.963
39584SOL    HW220586  11.153  13.341   4.855
39585SOL     OW20587   3.169   2.447  10.873
39585SOL    HW120588   3.258   2.430  10.841
39585SOL    HW220589   3.168   2.541  10.890
39586SOL     OW20590  10.022  10.812   9.958
39586SOL    HW120591  10.051  10.846  10.043
39586SOL    HW220592   9.938  10.856   9.943
39587SOL     OW20593   9.787  10.133   8.875
39587SOL    HW120594   9.828  10.047   8.864
39587SOL    HW220595   9.734  10.125   8.954
39588SOL     OW20596   5.747   5.577  10.488
39588SOL    HW120597   5.711   5.528  10.414
39588SOL    HW220598   5.838   5.594  10.464
39589SOL     OW20599   4.434   6.016  11.653
39589SOL    HW120600   4.460   6.071  11.727
39589SOL    HW220601   4.366   6.067  11.609
39590SOL     OW20602  10.837  11.428   1.023
39590SOL    HW120603  10.899  11.408   1.093
39590SOL    HW220604  10.860  11.368   0.952
39591SOL     OW20605  11.504  12.093  10.275
39591SOL    HW120606  11.424  12.040  10.285
39591SOL    HW220607  11.511  12.108  10.181
39592SOL     OW20608   5.061  10.744   3.615
39592SOL    HW120609   4.968  10.743   3.638
39592SOL    HW220610   5.064  10.719   3.523
39593SOL     OW20611   9.457   8.701   9.816
39593SOL    HW120612   9.442   8.612   9.782
39593SOL    HW220613   9.402   8.757   9.761
39594SOL     OW20614   7.349   8.990   5.884
39594SOL    HW120615   7.276   9.050   5.873
39594SOL    HW220616   7.379   8.970   5.795
39595SOL     OW20617   6.302  13.698   9.443
39595SOL    HW120618   6.209  13.705   9.418
39595SOL    HW220619   6.349  13.743   9.373
39596SOL     OW20620   0.813   1.655  12.296
39596SOL    HW120621   0.836   1.746  12.279
39596SOL    HW220622   0.855   1.606  12.226
39597SOL     OW20623   0.189  12.822   7.586
39597SOL    HW120624   0.145  12.763   7.526
39597SOL    HW220625   0.240  12.880   7.530
39598SOL     OW20626  14.087  14.523   0.399
39598SOL    HW120627  14.107  14.476   0.479
39598SOL    HW220628  14.132  14.473   0.330
39599SOL     OW20629   4.773   6.151   4.679
39599SOL    HW120630   4.785   6.245   4.693
39599SOL    HW220631   4.852   6.123   4.633
39600SOL     OW20632  11.983   8.737   6.346
39600SOL    HW120633  11.996   8.821   6.390
39600SOL    HW220634  12.052   8.735   6.279
39601SOL     OW20635   9.255   3.827   6.736
39601SOL    HW120636   9.296   3.913   6.729
39601SOL    HW220637   9.310   3.780   6.798
39602SOL     OW20638   9.742   8.440   2.974
39602SOL    HW120639   9.731   8.346   2.988
39602SOL    HW220640   9.781   8.472   3.056
39603SOL     OW20641  14.402   6.073   3.568
39603SOL    HW120642  14.323   6.086   3.620
39603SOL    HW220643  14.432   6.161   3.547
39604SOL     OW20644   0.733  10.934   1.157
39604SOL    HW120645   0.745  10.848   1.199
39604SOL    HW220646   0.786  10.931   1.078
39605SOL     OW20647   9.912   9.675   0.526
39605SOL    HW120648   9.954   9.594   0.554
39605SOL    HW220649   9.960   9.701   0.447
39606SOL     OW20650   8.994   3.988   7.819
39606SOL    HW120651   8.939   3.956   7.890
39606SOL    HW220652   9.050   4.055   7.860
39607SOL     OW20653   1.668   9.849   1.260
39607SOL    HW120654   1.613   9.832   1.336
39607SOL    HW220655   1.649   9.940   1.236
39608SOL     OW20656   5.446   0.119   6.621
39608SOL    HW120657   5.370   0.089   6.671
39608SOL    HW220658   5.521   0.080   6.666
39609SOL     OW20659  10.366   6.354   2.998
39609SOL    HW120660  10.295   6.401   2.955
39609SOL    HW220661  10.429   6.422   3.021
39610SOL     OW20662   0.407  11.356   1.509
39610SOL    HW120663   0.460  11.363   1.430
39610SOL    HW220664   0.468  11.326   1.576
39611SOL     OW20665   7.796   2.962   3.813
39611SOL    HW120666   7.853   3.035   3.790
39611SOL    HW220667   7.841   2.885   3.778
39612SOL     OW20668  12.238  11.885  13.998
39612SOL    HW120669  12.229  11.915  13.908
39612SOL    HW220670  12.332  11.872  14.010
39613SOL     OW20671   6.850  14.814   8.590
39613SOL    HW120672   6.789  14.787   8.522
39613SOL    HW220673   6.936  14.789   8.557
39614SOL     OW20674  10.319   1.803   0.733
39614SOL    HW120675  10.233   1.782   0.697
39614SOL    HW220676  10.378   1.739   0.693
39615SOL     OW20677   9.495   2.062  10.745
39615SOL    HW120678   9.485   2.155  10.765
39615SOL    HW220679   9.588   2.052  10.724
39616SOL     OW20680   3.994   2.070   2.487
39616SOL    HW120681   4.012   1.977   2.496
39616SOL    HW220682   3.900   2.078   2.499
39617SOL     OW20683   8.321   4.110  11.968
39617SOL    HW120684   8.383   4.093  11.897
39617SOL    HW220685   8.247   4.052  11.950
39618SOL     OW20686   2.040   1.332  14.033
39618SOL    HW120687   1.995   1.314  14.115
39618SOL    HW220688   2.130   1.301  14.048
39619SOL     OW20689   4.025   6.928  14.765
39619SOL    HW120690   3.962   6.995  14.791
39619SOL    HW220691   4.011   6.917  14.671
39620SOL     OW20692  14.154   1.222   9.599
39620SOL    HW120693  14.122   1.233   9.688
39620SOL    HW220694  14.076   1.227   9.544
39621SOL     OW20695   5.019   7.284  10.897
39621SOL    HW120696   5.018   7.190  10.878
39621SOL    HW220697   5.107   7.300  10.932
39622SOL     OW20698   1.976   9.866   3.485
39622SOL    HW120699   2.000   9.818   3.405
39622SOL    HW220700   1.998   9.806   3.556
39623SOL     OW20701   3.786   3.739  10.713
39623SOL    HW120702   3.741   3.734  10.797
39623SOL    HW220703   3.865   3.686  10.725
39624SOL     OW20704   1.456  11.165   3.300
39624SOL    HW120705   1.398  11.092   3.279
39624SOL    HW220706   1.457  11.169   3.395
39625SOL     OW20707   0.283   1.301  10.130
39625SOL    HW120708   0.298   1.234  10.064
39625SOL    HW220709   0.312   1.262  10.212
39626SOL     OW20710   0.197  13.088  10.020
39626SOL    HW120711   0.192  13.182  10.036
39626SOL    HW220712   0.128  13.050  10.074
39627SOL     OW20713   3.488   1.091  14.040
39627SOL    HW120714   3.417   1.144  14.075
39627SOL    HW220715   3.554   1.088  14.109
39628SOL     OW20716   6.942  13.328  10.813
39628SOL    HW120717   6.876  13.283  10.761
39628SOL    HW220718   6.942  13.283  10.897
39629SOL     OW20719  13.993   1.365   5.830
39629SOL    HW120720  13.899   1.347   5.823
39629SOL    HW220721  14.003   1.414   5.911
39630SOL     OW20722   2.039   6.660   2.241
39630SOL    HW120723   1.957   6.625   2.277
39630SOL    HW220724   2.011   6.713   2.166
39631SOL     OW20725   9.240  12.646   3.759
39631SOL    HW120726   9.221  12.611   3.845
39631SOL    HW220727   9.281  12.573   3.712
39632SOL     OW20728   0.285   4.978  13.552
39632SOL    HW120729   0.358   4.919  13.533
39632SOL    HW220730   0.310   5.023  13.632
39633SOL     OW20731   0.464   8.149  13.865
39633SOL    HW120732   0.462   8.081  13.799
39633SOL    HW220733   0.372   8.175  13.875
39634SOL     OW20734  13.272  11.759   7.229
39634SOL    HW120735  13.199  11.795   7.178
39634SOL    HW220736  13.231  11.726   7.309
39635SOL     OW20737   2.814   7.743  14.812
39635SOL    HW120738   2.799   7.675  14.747
39635SOL    HW220739   2.727   7.773  14.836
39636SOL     OW20740   7.157  14.324   1.893
39636SOL    HW120741   7.200  14.240   1.912
39636SOL    HW220742   7.071  14.317   1.935
39637SOL     OW20743   3.662   9.080   3.670
39637SOL    HW120744   3.690   9.171   3.670
39637SOL    HW220745   3.730   9.034   3.720
39638SOL     OW20746   0.472   0.312  13.063
39638SOL    HW120747   0.500   0.363  12.987
39638SOL    HW220748   0.397   0.262  13.032
39639SOL     OW20749  13.866   5.904  11.490
39639SOL    HW120750  13.850   5.817  11.526
39639SOL    HW220751  13.890   5.957  11.565
39640SOL     OW20752   5.008   4.991   9.775
39640SOL    HW120753   5.044   4.908   9.807
39640SOL    HW220754   4.956   4.967   9.699
39641SOL     OW20755  10.771   2.373   8.651
39641SOL    HW120756  10.719   2.308   8.697
39641SOL    HW220757  10.721   2.391   8.571
39642SOL     OW20758   2.804   4.250   2.745
39642SOL    HW120759   2.746   4.315   2.785
39642SOL    HW220760   2.768   4.166   2.772
39643SOL     OW20761  14.675   5.060  13.620
39643SOL    HW120762  14.668   5.109  13.538
39643SOL    HW220763  14.624   5.112  13.683
39644SOL     OW20764  14.487  13.847   8.980
39644SOL    HW120765  14.439  13.793   9.043
39644SOL    HW220766  14.537  13.909   9.035
39645SOL     OW20767   0.811   2.502   5.531
39645SOL    HW120768   0.804   2.510   5.626
39645SOL    HW220769   0.729   2.539   5.497
39646SOL     OW20770   0.911   3.500  12.075
39646SOL    HW120771   0.978   3.452  12.123
39646SOL    HW220772   0.830   3.484  12.122
39647SOL     OW20773  11.231  12.184  12.425
39647SOL    HW120774  11.317  12.170  12.464
39647SOL    HW220775  11.247  12.182  12.330
39648SOL     OW20776   8.662   7.170   1.141
39648SOL    HW120777   8.657   7.137   1.231
39648SOL    HW220778   8.652   7.265   1.149
39649SOL     OW20779   7.637  13.199   1.081
39649SOL    HW120780   7.593  13.135   1.137
39649SOL    HW220781   7.727  13.201   1.113
39650SOL     OW20782   8.033   5.810   4.271
39650SOL    HW120783   8.047   5.787   4.363
39650SOL    HW220784   8.018   5.905   4.272
39651SOL     OW20785   2.374  12.958   0.457
39651SOL    HW120786   2.419  12.885   0.414
39651SOL    HW220787   2.294  12.919   0.491
39652SOL     OW20788   3.828   9.870   6.752
39652SOL    HW120789   3.849   9.898   6.841
39652SOL    HW220790   3.793   9.947   6.710
39653SOL     OW20791   4.580   1.850   7.930
39653SOL    HW120792   4.558   1.868   7.839
39653SOL    HW220793   4.584   1.754   7.934
39654SOL     OW20794   6.997  10.156  11.486
39654SOL    HW120795   6.996  10.244  11.525
39654SOL    HW220796   7.049  10.104  11.547
39655SOL     OW20797   1.503   9.290   9.916
39655SOL    HW120798   1.585   9.297   9.867
39655SOL    HW220799   1.473   9.380   9.927
39656SOL     OW20800  12.670   1.655   1.551
39656SOL    HW120801  12.613   1.616   1.485
39656SOL    HW220802  12.701   1.736   1.510
39657SOL     OW20803   6.977   5.164   3.742
39657SOL    HW120804   6.887   5.198   3.740
39657SOL    HW220805   7.029   5.237   3.776
39658SOL     OW20806   9.071   6.977  11.654
39658SOL    HW120807   9.107   6.925  11.581
39658SOL    HW220808   9.133   6.964  11.725
39659SOL     OW20809  12.333   7.755  11.525
39659SOL    HW120810  12.364   7.828  11.579
39659SOL    HW220811  12.333   7.680  11.584
39660SOL     OW20812   8.184  13.463  10.426
39660SOL    HW120813   8.139  13.379  10.419
39660SOL    HW220814   8.164  13.508  10.344
39661SOL     OW20815  14.114   3.579   8.492
39661SOL    HW120816  14.038   3.584   8.435
39661SOL    HW220817  14.184   3.622   8.443
39662SOL     OW20818   4.987   0.276   5.594
39662SOL    HW120819   5.039   0.282   5.514
39662SOL    HW220820   5.046   0.237   5.658
39663SOL     OW20821  11.618  14.457   7.195
39663SOL    HW120822  11.686  14.399   7.229
39663SOL    HW220823  11.560  14.399   7.144
39664SOL     OW20824  11.525  13.849  11.181
39664SOL    HW120825  11.554  13.919  11.122
39664SOL    HW220826  11.436  13.874  11.206
39665SOL     OW20827   2.793  14.347   7.747
39665SOL    HW120828   2.728  14.304   7.802
39665SOL    HW220829   2.769  14.440   7.750
39666SOL     OW20830   0.261  14.647   3.690
39666SOL    HW120831   0.189  14.700   3.723
39666SOL    HW220832   0.293  14.694   3.613
39667SOL     OW20833   3.115   7.466   5.351
39667SOL    HW120834   3.137   7.487   5.261
39667SOL    HW220835   3.199   7.455   5.395
39668SOL     OW20836   5.799   3.372   0.952
39668SOL    HW120837   5.759   3.457   0.931
39668SOL    HW220838   5.815   3.332   0.866
39669SOL     OW20839   9.585   5.286   6.843
39669SOL    HW120840   9.667   5.285   6.892
39669SOL    HW220841   9.573   5.195   6.815
39670SOL     OW20842   8.945   5.951   1.662
39670SOL    HW120843   8.975   5.931   1.750
39670SOL    HW220844   8.866   5.897   1.651
39671SOL     OW20845   6.849   6.032  10.312
39671SOL    HW120846   6.774   6.018  10.253
39671SOL    HW220847   6.923   6.044  10.253
39672SOL     OW20848  14.724  10.347   4.608
39672SOL    HW120849  14.766  10.328   4.692
39672SOL    HW220850  14.745  10.438   4.591
39673SOL     OW20851   4.725   5.191   2.074
39673SOL    HW120852   4.745   5.098   2.064
39673SOL    HW220853   4.769   5.233   2.000
39674SOL     OW20854   7.797   4.403   8.811
39674SOL    HW120855   7.820   4.473   8.750
39674SOL    HW220856   7.717   4.435   8.854
39675SOL     OW20857   7.312  11.797   7.678
39675SOL    HW120858   7.223  11.816   7.706
39675SOL    HW220859   7.330  11.861   7.609
39676SOL     OW20860   7.485   3.960   8.601
39676SOL    HW120861   7.509   4.038   8.651
39676SOL    HW220862   7.391   3.971   8.583
39677SOL     OW20863   9.639   3.231   7.156
39677SOL    HW120864   9.705   3.248   7.088
39677SOL    HW220865   9.629   3.314   7.202
39678SOL     OW20866   7.300   2.965   0.414
39678SOL    HW120867   7.390   2.931   0.415
39678SOL    HW220868   7.267   2.942   0.327
39679SOL     OW20869   7.008  14.024  12.957
39679SOL    HW120870   6.951  14.093  12.990
39679SOL    HW220871   7.025  13.968  13.032
39680SOL     OW20872  13.115  11.867  11.960
39680SOL    HW120873  13.192  11.876  11.904
39680SOL    HW220874  13.076  11.955  11.961
39681SOL     OW20875  14.223   4.686   1.169
39681SOL    HW120876  14.244   4.593   1.169
39681SOL    HW220877  14.208   4.708   1.261
39682SOL     OW20878   4.482  13.042   4.931
39682SOL    HW120879   4.519  13.117   4.976
39682SOL    HW220880   4.388  13.045   4.949
39683SOL     OW20881   0.214   0.585   0.390
39683SOL    HW120882   0.287   0.549   0.339
39683SOL    HW220883   0.144   0.521   0.378
39684SOL     OW20884   9.582  14.025  11.910
39684SOL    HW120885   9.593  13.930  11.908
39684SOL    HW220886   9.588  14.049  12.002
39685SOL     OW20887   9.418   4.284   9.150
39685SOL    HW120888   9.338   4.334   9.131
39685SOL    HW220889   9.394   4.229   9.224
39686SOL     OW20890   2.653   3.586  13.066
39686SOL    HW120891   2.661   3.573  13.160
39686SOL    HW220892   2.588   3.656  13.056
39687SOL     OW20893   6.612   4.286   7.775
39687SOL    HW120894   6.522   4.292   7.808
39687SOL    HW220895   6.664   4.272   7.854
39688SOL     OW20896  13.491   6.417  12.731
39688SOL    HW120897  13.512   6.374  12.814
39688SOL    HW220898  13.519   6.508  12.744
39689SOL     OW20899   6.470   4.211  10.479
39689SOL    HW120900   6.495   4.158  10.555
39689SOL    HW220901   6.521   4.291  10.488
39690SOL     OW20902   3.007   9.580   0.594
39690SOL    HW120903   2.991   9.627   0.512
39690SOL    HW220904   3.013   9.488   0.569
39691SOL     OW20905  13.998   1.776  13.168
39691SOL    HW120906  14.034   1.694  13.200
39691SOL    HW220907  13.940   1.751  13.096
39692SOL     OW20908  12.480   0.526  13.549
39692SOL    HW120909  12.388   0.500  13.556
39692SOL    HW220910  12.519   0.462  13.490
39693SOL     OW20911   1.269   1.898   0.195
39693SOL    HW120912   1.216   1.888   0.274
39693SOL    HW220913   1.317   1.980   0.209
39694SOL     OW20914   7.855  14.074   5.219
39694SOL    HW120915   7.868  14.039   5.307
39694SOL    HW220916   7.858  13.998   5.162
39695SOL     OW20917  12.316  11.160   7.728
39695SOL    HW120918  12.411  11.148   7.730
39695SOL    HW220919  12.303  11.254   7.715
39696SOL     OW20920  13.092   0.691   9.714
39696SOL    HW120921  13.172   0.663   9.758
39696SOL    HW220922  13.092   0.643   9.632
39697SOL     OW20923  10.832   5.356   7.674
39697SOL    HW120924  10.883   5.290   7.628
39697SOL    HW220925  10.741   5.326   7.667
39698SOL     OW20926   6.346   2.898   4.495
39698SOL    HW120927   6.326   2.955   4.570
39698SOL    HW220928   6.439   2.911   4.479
39699SOL     OW20929  14.306   5.428   3.580
39699SOL    HW120930  14.221   5.385   3.595
39699SOL    HW220931  14.362   5.359   3.546
39700SOL     OW20932   0.338  14.401   9.039
39700SOL    HW120933   0.400  14.364   9.102
39700SOL    HW220934   0.308  14.326   8.988
39701SOL     OW20935  13.585   2.159  12.274
39701SOL    HW120936  13.603   2.239  12.322
39701SOL    HW220937  13.526   2.186  12.204
39702SOL     OW20938  14.063   4.406   9.819
39702SOL    HW120939  14.047   4.479   9.759
39702SOL    HW220940  14.140   4.362   9.783
39703SOL     OW20941   5.829  10.722  12.091
39703SOL    HW120942   5.856  10.692  12.004
39703SOL    HW220943   5.802  10.813  12.077
39704SOL     OW20944   6.659   2.562   7.518
39704SOL    HW120945   6.633   2.526   7.433
39704SOL    HW220946   6.700   2.488   7.563
39705SOL     OW20947   7.536   8.618   5.977
39705SOL    HW120948   7.450   8.577   5.970
39705SOL    HW220949   7.597   8.551   5.948
39706SOL     OW20950   6.333  14.025   7.571
39706SOL    HW120951   6.256  13.977   7.543
39706SOL    HW220952   6.323  14.034   7.666
39707SOL     OW20953   6.177  14.412   7.986
39707SOL    HW120954   6.164  14.331   7.936
39707SOL    HW220955   6.225  14.384   8.064
39708SOL     OW20956   3.269  12.967   9.360
39708SOL    HW120957   3.346  13.007   9.401
39708SOL    HW220958   3.217  13.041   9.330
39709SOL     OW20959   1.752   3.320  13.857
39709SOL    HW120960   1.816   3.253  13.880
39709SOL    HW220961   1.667   3.277  13.869
39710SOL     OW20962   6.610   2.000  10.350
39710SOL    HW120963   6.681   2.058  10.322
39710SOL    HW220964   6.530   2.043  10.323
39711SOL     OW20965   7.839   5.606   9.167
39711SOL    HW120966   7.762   5.548   9.168
39711SOL    HW220967   7.807   5.690   9.200
39712SOL     OW20968  12.748  14.847   2.998
39712SOL    HW120969  12.818   0.004   2.943
39712SOL    HW220970  12.689  14.803   2.937
39713SOL     OW20971   8.874   1.588  13.443
39713SOL    HW120972   8.802   1.598  13.506
39713SOL    HW220973   8.831   1.571  13.359
39714SOL     OW20974   9.430   5.230   1.249
39714SOL    HW120975   9.464   5.187   1.170
39714SOL    HW220976   9.403   5.317   1.220
39715SOL     OW20977   9.021   5.561  11.712
39715SOL    HW120978   9.094   5.551  11.773
39715SOL    HW220979   8.987   5.649  11.729
39716SOL     OW20980  10.805   3.442   9.776
39716SOL    HW120981  10.787   3.394   9.695
39716SOL    HW220982  10.729   3.424   9.832
39717SOL     OW20983   6.209   7.866   1.063
39717SOL    HW120984   6.207   7.933   1.133
39717SOL    HW220985   6.302   7.852   1.047
39718SOL     OW20986  10.551   8.598  13.392
39718SOL    HW120987  10.582   8.582  13.481
39718SOL    HW220988  10.623   8.569  13.336
39719SOL     OW20989   2.056   4.058  12.440
39719SOL    HW120990   2.098   4.115  12.504
39719SOL    HW220991   2.129   4.012  12.398
39720SOL     OW20992   6.527   6.826  10.783
39720SOL    HW120993   6.614   6.801  10.816
39720SOL    HW220994   6.545   6.870  10.700
39721SOL     OW20995   8.983  11.861   2.316
39721SOL    HW120996   9.061  11.892   2.270
39721SOL    HW220997   9.001  11.769   2.335
39722SOL     OW20998   3.822   3.547   8.081
39722SOL    HW120999   3.914   3.570   8.095
39722SOL    HW221000   3.793   3.513   8.166
39723SOL     OW21001   9.345   3.308   9.122
39723SOL    HW121002   9.256   3.313   9.088
39723SOL    HW221003   9.338   3.337   9.213
39724SOL     OW21004   4.532  12.135   5.302
39724SOL    HW121005   4.615  12.109   5.261
39724SOL    HW221006   4.558  12.193   5.373
39725SOL     OW21007   8.982   9.524  11.009
39725SOL    HW121008   9.006   9.517  11.101
39725SOL    HW221009   9.001   9.437  10.973
39726SOL     OW21010  10.965  10.488   9.659
39726SOL    HW121011  10.895  10.532   9.610
39726SOL    HW221012  11.046  10.519   9.620
39727SOL     OW21013   0.085   5.848  12.122
39727SOL    HW121014   0.143   5.828  12.049
39727SOL    HW221015   0.004   5.877  12.080
39728SOL     OW21016   1.372   9.730   0.078
39728SOL    HW121017   1.420   9.651   0.054
39728SOL    HW221018   1.283   9.714   0.048
39729SOL     OW21019   0.081   3.094   1.218
39729SOL    HW121020   0.129   3.019   1.183
39729SOL    HW221021   0.000   3.056   1.253
39730SOL     OW21022   4.530   4.804   2.111
39730SOL    HW121023   4.451   4.758   2.082
39730SOL    HW221024   4.591   4.734   2.136
39731SOL     OW21025   8.376  12.452  14.692
39731SOL    HW121026   8.350  12.376  14.640
39731SOL    HW221027   8.449  12.491  14.643
39732SOL     OW21028   8.692   4.021   1.236
39732SOL    HW121029   8.621   3.959   1.221
39732SOL    HW221030   8.762   3.969   1.274
39733SOL     OW21031  10.716   5.085   9.488
39733SOL    HW121032  10.647   5.094   9.553
39733SOL    HW221033  10.703   5.159   9.428
39734SOL     OW21034  14.392   5.792  12.780
39734SOL    HW121035  14.428   5.804  12.692
39734SOL    HW221036  14.448   5.726  12.820
39735SOL     OW21037   0.795   6.418   8.501
39735SOL    HW121038   0.819   6.383   8.587
39735SOL    HW221039   0.704   6.391   8.488
39736SOL     OW21040   1.465  13.877  12.541
39736SOL    HW121041   1.499  13.912  12.624
39736SOL    HW221042   1.419  13.951  12.501
39737SOL     OW21043   7.437   4.365   9.879
39737SOL    HW121044   7.391   4.282   9.885
39737SOL    HW221045   7.431   4.402   9.967
39738SOL     OW21046  10.097  10.896   2.769
39738SOL    HW121047  10.124  10.815   2.811
39738SOL    HW221048  10.100  10.961   2.840
39739SOL     OW21049   2.080  11.551   6.110
39739SOL    HW121050   2.088  11.623   6.047
39739SOL    HW221051   2.012  11.495   6.073
39740SOL     OW21052   9.632  10.693   9.940
39740SOL    HW121053   9.646  10.672  10.032
39740SOL    HW221054   9.681  10.773   9.925
39741SOL     OW21055  11.655  12.766   4.025
39741SOL    HW121056  11.724  12.747   4.088
39741SOL    HW221057  11.597  12.827   4.071
39742SOL     OW21058   8.294  10.139   4.399
39742SOL    HW121059   8.267  10.097   4.317
39742SOL    HW221060   8.373  10.188   4.375
39743SOL     OW21061   0.302   6.310   0.368
39743SOL    HW121062   0.321   6.348   0.283
39743SOL    HW221063   0.207   6.308   0.373
39744SOL     OW21064  10.893   8.862   6.915
39744SOL    HW121065  10.900   8.935   6.977
39744SOL    HW221066  10.799   8.847   6.907
39745SOL     OW21067  14.359   1.515   3.174
39745SOL    HW121068  14.433   1.480   3.223
39745SOL    HW221069  14.397   1.581   3.117
39746SOL     OW21070   6.112   6.924   1.221
39746SOL    HW121071   6.184   6.907   1.161
39746SOL    HW221072   6.033   6.899   1.173
39747SOL     OW21073   9.095  12.221  10.092
39747SOL    HW121074   9.115  12.304  10.134
39747SOL    HW221075   9.164  12.210  10.026
39748SOL     OW21076  10.411  12.932   6.783
39748SOL    HW121077  10.378  13.021   6.798
39748SOL    HW221078  10.418  12.894   6.870
39749SOL     OW21079  10.606   2.841  14.000
39749SOL    HW121080  10.664   2.896  13.946
39749SOL    HW221081  10.520   2.881  13.989
39750SOL     OW21082   5.044  11.048  13.284
39750SOL    HW121083   5.112  11.023  13.221
39750SOL    HW221084   5.029  11.141  13.268
39751SOL     OW21085   0.080  10.924   6.886
39751SOL    HW121086   0.154  10.895   6.832
39751SOL    HW221087   0.018  10.852   6.881
39752SOL     OW21088   5.383   1.051  14.867
39752SOL    HW121089   5.402   1.123   0.048
39752SOL    HW221090   5.306   1.081  14.818
39753SOL     OW21091  11.376   7.986   1.544
39753SOL    HW121092  11.426   7.954   1.619
39753SOL    HW221093  11.443   8.011   1.480
39754SOL     OW21094   7.276   1.674   9.880
39754SOL    HW121095   7.313   1.700   9.796
39754SOL    HW221096   7.331   1.602   9.910
39755SOL     OW21097   2.127   5.992   6.327
39755SOL    HW121098   2.217   6.023   6.342
39755SOL    HW221099   2.134   5.935   6.251
39756SOL     OW21100  11.818  14.655   2.550
39756SOL    HW121101  11.747  14.596   2.522
39756SOL    HW221102  11.880  14.654   2.477
39757SOL     OW21103   9.673   7.682   3.309
39757SOL    HW121104   9.741   7.688   3.241
39757SOL    HW221105   9.630   7.767   3.307
39758SOL     OW21106   5.915  14.061  12.197
39758SOL    HW121107   5.842  14.057  12.135
39758SOL    HW221108   5.958  14.144  12.178
39759SOL     OW21109  12.477   1.093   8.063
39759SOL    HW121110  12.539   1.114   8.133
39759SOL    HW221111  12.477   0.997   8.059
39760SOL     OW21112   1.542   1.398   2.924
39760SOL    HW121113   1.588   1.314   2.917
39760SOL    HW221114   1.473   1.381   2.989
39761SOL     OW21115  14.869   6.119   2.644
39761SOL    HW121116   0.014   6.184   2.710
39761SOL    HW221117  14.818   6.054   2.691
39762SOL     OW21118   6.194  10.947  12.195
39762SOL    HW121119   6.164  10.967  12.106
39762SOL    HW221120   6.116  10.958  12.249
39763SOL     OW21121   1.197  14.590   0.639
39763SOL    HW121122   1.154  14.515   0.680
39763SOL    HW221123   1.239  14.554   0.561
39764SOL     OW21124   5.297   3.633  14.041
39764SOL    HW121125   5.289   3.545  14.004
39764SOL    HW221126   5.222   3.642  14.100
39765SOL     OW21127   4.449  11.689   6.804
39765SOL    HW121128   4.467  11.625   6.734
39765SOL    HW221129   4.379  11.649   6.856
39766SOL     OW21130   1.478   8.369  14.052
39766SOL    HW121131   1.453   8.281  14.081
39766SOL    HW221132   1.573   8.372  14.064
39767SOL     OW21133   3.357   9.723  10.689
39767SOL    HW121134   3.339   9.662  10.760
39767SOL    HW221135   3.447   9.751  10.704
39768SOL     OW21136   2.720  12.349   8.249
39768SOL    HW121137   2.672  12.289   8.305
39768SOL    HW221138   2.812  12.335   8.270
39769SOL     OW21139   7.019   5.731   0.135
39769SOL    HW121140   6.948   5.668   0.150
39769SOL    HW221141   7.061   5.703   0.054
39770SOL     OW21142   0.370   6.828  11.812
39770SOL    HW121143   0.460   6.801  11.829
39770SOL    HW221144   0.366   6.919  11.840
39771SOL     OW21145   2.602  11.556   4.316
39771SOL    HW121146   2.581  11.604   4.236
39771SOL    HW221147   2.646  11.620   4.372
39772SOL     OW21148   4.556  11.721   1.142
39772SOL    HW121149   4.494  11.649   1.136
39772SOL    HW221150   4.640  11.684   1.115
39773SOL     OW21151   4.117   5.283   8.530
39773SOL    HW121152   4.144   5.308   8.619
39773SOL    HW221153   4.193   5.239   8.493
39774SOL     OW21154   3.041   6.243  11.084
39774SOL    HW121155   3.039   6.211  11.174
39774SOL    HW221156   2.972   6.309  11.080
39775SOL     OW21157   4.449   9.468  13.876
39775SOL    HW121158   4.494   9.492  13.956
39775SOL    HW221159   4.513   9.485  13.806
39776SOL     OW21160  13.672  10.559  11.960
39776SOL    HW121161  13.621  10.479  11.960
39776SOL    HW221162  13.744  10.543  11.899
39777SOL     OW21163   2.251  11.265   4.186
39777SOL    HW121164   2.325  11.293   4.241
39777SOL    HW221165   2.180  11.250   4.248
39778SOL     OW21166  11.270   7.810  13.264
39778SOL    HW121167  11.353   7.834  13.221
39778SOL    HW221168  11.264   7.870  13.338
39779SOL     OW21169   9.194   0.104   5.494
39779SOL    HW121170   9.140   0.107   5.415
39779SOL    HW221171   9.147   0.044   5.552
39780SOL     OW21172   1.096  12.724   7.827
39780SOL    HW121173   1.003  12.745   7.833
39780SOL    HW221174   1.117  12.736   7.734
39781SOL     OW21175  14.085   9.600  11.242
39781SOL    HW121176  14.146   9.652  11.295
39781SOL    HW221177  14.010   9.658  11.229
39782SOL     OW21178  11.395   9.394   4.743
39782SOL    HW121179  11.402   9.430   4.832
39782SOL    HW221180  11.330   9.449   4.699
39783SOL     OW21181   3.987   1.433  10.692
39783SOL    HW121182   3.995   1.500  10.760
39783SOL    HW221183   4.076   1.400  10.679
39784SOL     OW21184   1.315   3.640  10.040
39784SOL    HW121185   1.351   3.686   9.964
39784SOL    HW221186   1.296   3.552  10.007
39785SOL     OW21187   5.172  12.271   0.565
39785SOL    HW121188   5.230  12.303   0.635
39785SOL    HW221189   5.104  12.222   0.612
39786SOL     OW21190   2.572   8.194   7.104
39786SOL    HW121191   2.655   8.236   7.128
39786SOL    HW221192   2.550   8.140   7.181
39787SOL     OW21193  10.887  12.124   6.002
39787SOL    HW121194  10.809  12.112   6.057
39787SOL    HW221195  10.855  12.167   5.923
39788SOL     OW21196   1.771  13.455   9.190
39788SOL    HW121197   1.841  13.521   9.188
39788SOL    HW221198   1.747  13.449   9.282
39789SOL     OW21199  12.074   0.532  14.455
39789SOL    HW121200  12.009   0.588  14.496
39789SOL    HW221201  12.061   0.445  14.494
39790SOL     OW21202   8.639   0.229   7.954
39790SOL    HW121203   8.683   0.313   7.962
39790SOL    HW221204   8.683   0.173   8.019
39791SOL     OW21205   7.337   4.769  10.178
39791SOL    HW121206   7.261   4.710  10.179
39791SOL    HW221207   7.392   4.736  10.106
39792SOL     OW21208   3.009   6.750  11.675
39792SOL    HW121209   3.020   6.816  11.744
39792SOL    HW221210   3.078   6.687  11.691
39793SOL     OW21211  13.237   6.634  12.662
39793SOL    HW121212  13.226   6.729  12.649
39793SOL    HW221213  13.148   6.600  12.666
39794SOL     OW21214   4.624   1.181   6.854
39794SOL    HW121215   4.565   1.256   6.859
39794SOL    HW221216   4.651   1.178   6.762
39795SOL     OW21217   5.875   0.473   1.173
39795SOL    HW121218   5.884   0.542   1.238
39795SOL    HW221219   5.883   0.392   1.223
39796SOL     OW21220   8.190   1.181   6.091
39796SOL    HW121221   8.237   1.186   6.007
39796SOL    HW221222   8.117   1.243   6.082
39797SOL     OW21223  12.114   0.227   6.251
39797SOL    HW121224  12.030   0.183   6.257
39797SOL    HW221225  12.092   0.319   6.241
39798SOL     OW21226   4.454   1.141   1.588
39798SOL    HW121227   4.468   1.074   1.522
39798SOL    HW221228   4.374   1.115   1.633
39799SOL     OW21229   1.683   3.990  14.549
39799SOL    HW121230   1.590   4.010  14.534
39799SOL    HW221231   1.693   3.899  14.521
39800SOL     OW21232  10.217  12.697  10.121
39800SOL    HW121233  10.179  12.616  10.154
39800SOL    HW221234  10.294  12.712  10.175
39801SOL     OW21235  10.609   9.822  14.336
39801SOL    HW121236  10.543   9.851  14.273
39801SOL    HW221237  10.561   9.808  14.417
39802SOL     OW21238  11.495   7.458  11.897
39802SOL    HW121239  11.587   7.476  11.919
39802SOL    HW221240  11.497   7.433  11.805
39803SOL     OW21241   7.956   2.694   3.985
39803SOL    HW121242   7.988   2.704   4.075
39803SOL    HW221243   8.027   2.728   3.930
39804SOL     OW21244   0.398   5.178  12.903
39804SOL    HW121245   0.477   5.226  12.926
39804SOL    HW221246   0.400   5.172  12.808
39805SOL     OW21247  12.792  14.541   8.607
39805SOL    HW121248  12.797  14.562   8.701
39805SOL    HW221249  12.853  14.602   8.565
39806SOL     OW21250   3.175  11.111   3.885
39806SOL    HW121251   3.197  11.027   3.926
39806SOL    HW221252   3.115  11.088   3.814
39807SOL     OW21253   8.392  13.493  13.497
39807SOL    HW121254   8.413  13.444  13.418
39807SOL    HW221255   8.331  13.437  13.545
39808SOL     OW21256   1.806   5.940   7.307
39808SOL    HW121257   1.853   5.915   7.227
39808SOL    HW221258   1.788   5.858   7.351
39809SOL     OW21259   0.779   2.958   6.469
39809SOL    HW121260   0.693   2.998   6.485
39809SOL    HW221261   0.771   2.870   6.504
39810SOL     OW21262  13.150   7.191  14.847
39810SOL    HW121263  13.083   7.209  14.781
39810SOL    HW221264  13.221   7.252  14.827
39811SOL     OW21265   8.412   3.903   8.439
39811SOL    HW121266   8.416   3.831   8.502
39811SOL    HW221267   8.344   3.961   8.473
39812SOL     OW21268   3.062   1.121  12.939
39812SOL    HW121269   3.004   1.182  12.985
39812SOL    HW221270   3.113   1.178  12.880
39813SOL     OW21271  10.832  11.022  14.870
39813SOL    HW121272  10.749  11.036   0.036
39813SOL    HW221273  10.864  10.938   0.025
39814SOL     OW21274   6.884   1.003   1.309
39814SOL    HW121275   6.814   0.948   1.342
39814SOL    HW221276   6.882   0.992   1.214
39815SOL     OW21277   9.654   9.741  12.829
39815SOL    HW121278   9.619   9.733  12.741
39815SOL    HW221279   9.680   9.652  12.853
39816SOL     OW21280   5.477  14.743   0.069
39816SOL    HW121281   5.439  14.755  14.861
39816SOL    HW221282   5.533  14.820   0.080
39817SOL     OW21283   8.557   0.856  12.963
39817SOL    HW121284   8.548   0.945  12.929
39817SOL    HW221285   8.470   0.833  12.996
39818SOL     OW21286  12.593   9.886   7.680
39818SOL    HW121287  12.536   9.895   7.604
39818SOL    HW221288  12.629   9.973   7.694
39819SOL     OW21289  12.306  11.942   8.444
39819SOL    HW121290  12.383  11.998   8.441
39819SOL    HW221291  12.236  11.998   8.479
39820SOL     OW21292   0.851   2.584   4.275
39820SOL    HW121293   0.873   2.505   4.227
39820SOL    HW221294   0.927   2.602   4.330
39821SOL     OW21295  13.121   5.918   4.604
39821SOL    HW121296  13.173   5.998   4.601
39821SOL    HW221297  13.166   5.862   4.668
39822SOL     OW21298  13.431  12.089  13.302
39822SOL    HW121299  13.400  12.068  13.214
39822SOL    HW221300  13.387  12.171  13.324
39823SOL     OW21301  12.710   1.448   7.808
39823SOL    HW121302  12.623   1.411   7.819
39823SOL    HW221303  12.724   1.448   7.713
39824SOL     OW21304   3.221   7.178   8.417
39824SOL    HW121305   3.255   7.109   8.360
39824SOL    HW221306   3.171   7.132   8.484
39825SOL     OW21307  14.694   2.732   2.513
39825SOL    HW121308  14.774   2.688   2.540
39825SOL    HW221309  14.624   2.684   2.556
39826SOL     OW21310  14.143   1.018  10.441
39826SOL    HW121311  14.215   1.001  10.502
39826SOL    HW221312  14.066   1.027  10.496
39827SOL     OW21313   8.025   7.979  13.179
39827SOL    HW121314   8.094   7.943  13.123
39827SOL    HW221315   7.948   7.986  13.121
39828SOL     OW21316  14.096  12.449   4.657
39828SOL    HW121317  14.060  12.376   4.708
39828SOL    HW221318  14.095  12.523   4.718
39829SOL     OW21319  14.168   7.210  13.042
39829SOL    HW121320  14.242   7.203  13.102
39829SOL    HW221321  14.208   7.233  12.958
39830SOL     OW21322  13.071   3.044   6.745
39830SOL    HW121323  13.113   3.095   6.675
39830SOL    HW221324  13.032   2.969   6.700
39831SOL     OW21325  13.623   4.737   1.494
39831SOL    HW121326  13.546   4.770   1.448
39831SOL    HW221327  13.625   4.785   1.577
39832SOL     OW21328   8.169   9.760  12.586
39832SOL    HW121329   8.194   9.673  12.554
39832SOL    HW221330   8.231   9.778  12.656
39833SOL     OW21331   6.241  12.977  12.002
39833SOL    HW121332   6.304  12.997  11.933
39833SOL    HW221333   6.295  12.958  12.079
39834SOL     OW21334   9.414   5.216  14.659
39834SOL    HW121335   9.430   5.238  14.751
39834SOL    HW221336   9.437   5.296  14.611
39835SOL     OW21337   9.063   3.451  10.195
39835SOL    HW121338   9.010   3.528  10.174
39835SOL    HW221339   9.019   3.379  10.150
39836SOL     OW21340  10.335  12.237   0.015
39836SOL    HW121341  10.337  12.156   0.066
39836SOL    HW221342  10.242  12.258   0.007
39837SOL     OW21343   3.099   4.979   5.090
39837SOL    HW121344   3.111   5.067   5.053
39837SOL    HW221345   3.013   4.982   5.131
39838SOL     OW21346   8.312   5.647  11.873
39838SOL    HW121347   8.403   5.670  11.892
39838SOL    HW221348   8.318   5.573  11.813
39839SOL     OW21349  13.085   2.024  12.216
39839SOL    HW121350  13.006   1.993  12.261
39839SOL    HW221351  13.146   2.045  12.287
39840SOL     OW21352   0.884   0.598   4.530
39840SOL    HW121353   0.882   0.668   4.595
39840SOL    HW221354   0.976   0.572   4.526
39841SOL     OW21355   0.523  14.296  11.112
39841SOL    HW121356   0.518  14.239  11.189
39841SOL    HW221357   0.467  14.253  11.047
39842SOL     OW21358  13.135   9.739   8.131
39842SOL    HW121359  13.088   9.732   8.048
39842SOL    HW221360  13.123   9.654   8.172
39843SOL     OW21361   9.104   2.080  12.737
39843SOL    HW121362   9.179   2.140  12.745
39843SOL    HW221363   9.038   2.132  12.691
39844SOL     OW21364  13.232   4.844   4.141
39844SOL    HW121365  13.243   4.938   4.125
39844SOL    HW221366  13.267   4.802   4.062
39845SOL     OW21367  11.997   2.922   9.460
39845SOL    HW121368  12.064   2.990   9.455
39845SOL    HW221369  11.917   2.964   9.431
39846SOL     OW21370  13.497   3.378  13.830
39846SOL    HW121371  13.419   3.343  13.872
39846SOL    HW221372  13.512   3.462  13.872
39847SOL     OW21373  10.058  10.809  12.504
39847SOL    HW121374  10.087  10.777  12.419
39847SOL    HW221375   9.972  10.848  12.486
39848SOL     OW21376   0.906  11.204  12.412
39848SOL    HW121377   0.849  11.250  12.474
39848SOL    HW221378   0.908  11.114  12.444
39849SOL     OW21379  13.726   5.977   8.154
39849SOL    HW121380  13.648   5.995   8.206
39849SOL    HW221381  13.708   5.893   8.112
39850SOL     OW21382  13.734   0.424   8.861
39850SOL    HW121383  13.804   0.414   8.798
39850SOL    HW221384  13.663   0.370   8.827
39851SOL     OW21385  10.117  12.590  11.537
39851SOL    HW121386  10.157  12.674  11.560
39851SOL    HW221387  10.177  12.552  11.472
39852SOL     OW21388   0.781   7.311   6.156
39852SOL    HW121389   0.768   7.374   6.228
39852SOL    HW221390   0.696   7.267   6.147
39853SOL     OW21391   0.639   8.781   5.959
39853SOL    HW121392   0.720   8.729   5.960
39853SOL    HW221393   0.653   8.844   5.888
39854SOL     OW21394  14.867   9.769   3.419
39854SOL    HW121395  14.821   9.742   3.498
39854SOL    HW221396   0.077   9.736   3.431
39855SOL     OW21397   2.332   7.866  11.132
39855SOL    HW121398   2.368   7.953  11.118
39855SOL    HW221399   2.238   7.875  11.116
39856SOL     OW21400  10.837   8.094   7.054
39856SOL    HW121401  10.789   8.111   7.134
39856SOL    HW221402  10.770   8.093   6.985
39857SOL     OW21403  12.627   0.773  14.870
39857SOL    HW121404  12.551   0.771   0.049
39857SOL    HW221405  12.702   0.768   0.051
39858SOL     OW21406   4.441   9.680  11.282
39858SOL    HW121407   4.480   9.767  11.289
39858SOL    HW221408   4.512   9.621  11.308
39859SOL     OW21409  10.474  13.662  10.879
39859SOL    HW121410  10.406  13.709  10.831
39859SOL    HW221411  10.453  13.569  10.867
39860SOL     OW21412   9.877   1.493   3.248
39860SOL    HW121413   9.862   1.535   3.164
39860SOL    HW221414   9.955   1.440   3.236
39861SOL     OW21415   4.831   4.679   2.487
39861SOL    HW121416   4.878   4.596   2.489
39861SOL    HW221417   4.744   4.657   2.454
39862SOL     OW21418   3.883   5.167   8.983
39862SOL    HW121419   3.869   5.082   8.942
39862SOL    HW221420   3.953   5.151   9.047
39863SOL     OW21421  11.453   5.424  10.009
39863SOL    HW121422  11.510   5.487  10.054
39863SOL    HW221423  11.400   5.386  10.079
39864SOL     OW21424   1.932   7.577   3.613
39864SOL    HW121425   1.982   7.525   3.676
39864SOL    HW221426   1.982   7.569   3.531
39865SOL     OW21427   3.846   7.793   4.113
39865SOL    HW121428   3.854   7.797   4.208
39865SOL    HW221429   3.919   7.738   4.084
39866SOL     OW21430   9.374   7.655   1.877
39866SOL    HW121431   9.331   7.572   1.856
39866SOL    HW221432   9.338   7.680   1.961
39867SOL     OW21433   0.466   7.787   2.631
39867SOL    HW121434   0.547   7.787   2.580
39867SOL    HW221435   0.439   7.695   2.634
39868SOL     OW21436  14.632   4.791   4.008
39868SOL    HW121437  14.611   4.794   3.915
39868SOL    HW221438  14.557   4.748   4.048
39869SOL     OW21439   7.961  14.512   3.859
39869SOL    HW121440   8.036  14.558   3.897
39869SOL    HW221441   7.884  14.552   3.901
39870SOL     OW21442   4.857   0.875   4.042
39870SOL    HW121443   4.803   0.921   3.977
39870SOL    HW221444   4.795   0.817   4.087
39871SOL     OW21445   3.621   8.917   2.127
39871SOL    HW121446   3.655   8.984   2.185
39871SOL    HW221447   3.698   8.884   2.081
39872SOL     OW21448   6.382  10.652   1.230
39872SOL    HW121449   6.423  10.660   1.144
39872SOL    HW221450   6.360  10.742   1.255
39873SOL     OW21451   4.150  14.761   7.267
39873SOL    HW121452   4.125  14.838   7.317
39873SOL    HW221453   4.176  14.795   7.181
39874SOL     OW21454  14.584   2.236   1.228
39874SOL    HW121455  14.523   2.198   1.164
39874SOL    HW221456  14.602   2.324   1.195
39875SOL     OW21457  14.147  10.048   0.099
39875SOL    HW121458  14.213  10.115   0.116
39875SOL    HW221459  14.123  10.015   0.185
39876SOL     OW21460   1.064  11.249   4.940
39876SOL    HW121461   1.026  11.213   5.020
39876SOL    HW221462   1.147  11.202   4.929
39877SOL     OW21463   2.006   0.818   7.324
39877SOL    HW121464   2.011   0.875   7.401
39877SOL    HW221465   2.049   0.737   7.352
39878SOL     OW21466  12.831   8.639  13.291
39878SOL    HW121467  12.907   8.580  13.289
39878SOL    HW221468  12.864   8.721  13.255
39879SOL     OW21469   0.933  11.872   9.049
39879SOL    HW121470   0.865  11.928   9.089
39879SOL    HW221471   0.933  11.793   9.102
39880SOL     OW21472  13.646  10.587   5.473
39880SOL    HW121473  13.561  10.582   5.429
39880SOL    HW221474  13.709  10.564   5.404
39881SOL     OW21475   3.536   6.381   6.781
39881SOL    HW121476   3.589   6.312   6.820
39881SOL    HW221477   3.457   6.385   6.836
39882SOL     OW21478   0.326  14.312   5.189
39882SOL    HW121479   0.297  14.255   5.260
39882SOL    HW221480   0.414  14.338   5.214
39883SOL     OW21481  11.324   5.874   4.455
39883SOL    HW121482  11.251   5.880   4.517
39883SOL    HW221483  11.384   5.944   4.482
39884SOL     OW21484  12.113  14.600   1.621
39884SOL    HW121485  12.201  14.571   1.596
39884SOL    HW221486  12.125  14.689   1.654
39885SOL     OW21487   6.472   0.055   2.675
39885SOL    HW121488   6.536   0.060   2.604
39885SOL    HW221489   6.502  14.860   2.729
39886SOL     OW21490   6.260  14.119   8.703
39886SOL    HW121491   6.351  14.089   8.708
39886SOL    HW221492   6.212  14.044   8.667
39887SOL     OW21493  10.741   9.886   3.811
39887SOL    HW121494  10.831   9.918   3.811
39887SOL    HW221495  10.735   9.833   3.889
39888SOL     OW21496  12.560   2.175   2.701
39888SOL    HW121497  12.484   2.225   2.732
39888SOL    HW221498  12.623   2.242   2.673
39889SOL     OW21499   0.854   9.224  10.918
39889SOL    HW121500   0.887   9.180  10.996
39889SOL    HW221501   0.930   9.232  10.861
39890SOL     OW21502   8.095   3.140   2.001
39890SOL    HW121503   8.149   3.063   1.982
39890SOL    HW221504   8.152   3.215   1.985
39891SOL     OW21505   9.437  13.148   1.563
39891SOL    HW121506   9.358  13.189   1.528
39891SOL    HW221507   9.437  13.059   1.527
39892SOL     OW21508  13.298   6.731  10.085
39892SOL    HW121509  13.320   6.638  10.082
39892SOL    HW221510  13.304   6.760   9.994
39893SOL     OW21511   4.677  13.059   7.005
39893SOL    HW121512   4.649  12.981   7.052
39893SOL    HW221513   4.750  13.029   6.950
39894SOL     OW21514   3.360  10.770  13.633
39894SOL    HW121515   3.406  10.725  13.704
39894SOL    HW221516   3.287  10.713  13.612
39895SOL     OW21517   4.139  11.662   9.270
39895SOL    HW121518   4.193  11.741   9.274
39895SOL    HW221519   4.060  11.689   9.223
39896SOL     OW21520   2.794   7.032  10.744
39896SOL    HW121521   2.817   6.978  10.819
39896SOL    HW221522   2.857   7.008  10.677
39897SOL     OW21523   4.372   1.067   4.753
39897SOL    HW121524   4.456   1.110   4.742
39897SOL    HW221525   4.313   1.135   4.785
39898SOL     OW21526  12.030   8.327  13.794
39898SOL    HW121527  11.983   8.364  13.870
39898SOL    HW221528  12.080   8.254  13.830
39899SOL     OW21529   1.479  13.618   0.231
39899SOL    HW121530   1.520  13.693   0.273
39899SOL    HW221531   1.529  13.543   0.263
39900SOL     OW21532   4.869   0.929   6.773
39900SOL    HW121533   4.945   0.887   6.815
39900SOL    HW221534   4.873   0.899   6.682
39901SOL     OW21535   0.382   3.515   6.120
39901SOL    HW121536   0.362   3.486   6.031
39901SOL    HW221537   0.440   3.589   6.109
39902SOL     OW21538   5.531   1.187  12.192
39902SOL    HW121539   5.565   1.116  12.138
39902SOL    HW221540   5.600   1.253  12.190
39903SOL     OW21541   8.364   7.169   6.683
39903SOL    HW121542   8.287   7.123   6.715
39903SOL    HW221543   8.369   7.248   6.736
39904SOL     OW21544   4.212  11.779  13.819
39904SOL    HW121545   4.212  11.707  13.756
39904SOL    HW221546   4.136  11.761  13.875
39905SOL     OW21547   8.590   5.673   3.413
39905SOL    HW121548   8.651   5.621   3.362
39905SOL    HW221549   8.640   5.702   3.489
39906SOL     OW21550  10.660   1.383   6.099
39906SOL    HW121551  10.733   1.394   6.160
39906SOL    HW221552  10.596   1.449   6.126
39907SOL     OW21553  12.380   9.818  13.800
39907SOL    HW121554  12.386   9.887  13.733
39907SOL    HW221555  12.287   9.815  13.821
39908SOL     OW21556  10.878  14.857  11.778
39908SOL    HW121557  10.949   0.033  11.812
39908SOL    HW221558  10.890  14.773  11.821
39909SOL     OW21559  13.351   4.222  11.989
39909SOL    HW121560  13.333   4.128  11.983
39909SOL    HW221561  13.266   4.264  11.976
39910SOL     OW21562  10.505   2.007   4.022
39910SOL    HW121563  10.450   1.929   4.017
39910SOL    HW221564  10.579   1.981   4.077
39911SOL     OW21565  10.277   9.764   4.520
39911SOL    HW121566  10.372   9.777   4.522
39911SOL    HW221567  10.259   9.704   4.592
39912SOL     OW21568  10.852  14.394  13.178
39912SOL    HW121569  10.791  14.345  13.122
39912SOL    HW221570  10.913  14.327  13.210
39913SOL     OW21571   2.747   9.154   9.447
39913SOL    HW121572   2.713   9.243   9.437
39913SOL    HW221573   2.679   9.099   9.409
39914SOL     OW21574   3.092   1.988   8.008
39914SOL    HW121575   3.029   2.046   7.967
39914SOL    HW221576   3.073   1.902   7.971
39915SOL     OW21577   0.766   6.236   7.208
39915SOL    HW121578   0.731   6.322   7.230
39915SOL    HW221579   0.701   6.199   7.148
39916SOL     OW21580  12.428  10.684   4.237
39916SOL    HW121581  12.487  10.747   4.280
39916SOL    HW221582  12.416  10.615   4.302
39917SOL     OW21583   8.246  11.517   9.454
39917SOL    HW121584   8.325  11.549   9.410
39917SOL    HW221585   8.213  11.447   9.397
39918SOL     OW21586   1.709  13.927  14.777
39918SOL    HW121587   1.734  13.846  14.732
39918SOL    HW221588   1.764  13.995  14.736
39919SOL     OW21589   8.498   3.980   9.821
39919SOL    HW121590   8.470   3.978   9.912
39919SOL    HW221591   8.524   3.889   9.802
39920SOL     OW21592  13.905   3.115   6.244
39920SOL    HW121593  13.954   3.074   6.315
39920SOL    HW221594  13.839   3.050   6.219
39921SOL     OW21595  14.835   8.899   3.557
39921SOL    HW121596  14.752   8.856   3.532
39921SOL    HW221597  14.808   8.980   3.599
39922SOL     OW21598  13.853   4.749   6.968
39922SOL    HW121599  13.758   4.745   6.978
39922SOL    HW221600  13.884   4.793   7.047
39923SOL     OW21601   4.876   1.245  14.652
39923SOL    HW121602   4.846   1.180  14.588
39923SOL    HW221603   4.969   1.256  14.632
39924SOL     OW21604   3.365   0.531  11.988
39924SOL    HW121605   3.292   0.523  12.049
39924SOL    HW221606   3.387   0.441  11.965
39925SOL     OW21607   0.675  13.074   6.768
39925SOL    HW121608   0.723  13.002   6.727
39925SOL    HW221609   0.605  13.094   6.705
39926SOL     OW21610   8.323   0.174  10.418
39926SOL    HW121611   8.395   0.161  10.357
39926SOL    HW221612   8.310   0.269  10.420
39927SOL     OW21613  11.942   5.451   5.418
39927SOL    HW121614  11.853   5.477   5.398
39927SOL    HW221615  11.943   5.356   5.405
39928SOL     OW21616  12.783  10.989   6.035
39928SOL    HW121617  12.713  11.027   6.088
39928SOL    HW221618  12.849  10.962   6.098
39929SOL     OW21619   3.520   0.598  12.815
39929SOL    HW121620   3.510   0.525  12.876
39929SOL    HW221621   3.553   0.558  12.735
39930SOL     OW21622  14.167  10.820  10.636
39930SOL    HW121623  14.108  10.751  10.666
39930SOL    HW221624  14.115  10.900  10.643
39931SOL     OW21625  11.669   5.918   9.656
39931SOL    HW121626  11.695   5.834   9.695
39931SOL    HW221627  11.724   5.982   9.702
39932SOL     OW21628   7.289  12.219   6.736
39932SOL    HW121629   7.247  12.179   6.660
39932SOL    HW221630   7.217  12.260   6.784
39933SOL     OW21631   5.660  10.965   0.663
39933SOL    HW121632   5.622  11.028   0.601
39933SOL    HW221633   5.592  10.898   0.672
39934SOL     OW21634   2.807   7.280   5.017
39934SOL    HW121635   2.742   7.263   5.085
39934SOL    HW221636   2.803   7.375   5.002
39935SOL     OW21637   7.670   4.664   3.340
39935SOL    HW121638   7.611   4.661   3.415
39935SOL    HW221639   7.755   4.634   3.374
39936SOL     OW21640   2.858   9.252  14.105
39936SOL    HW121641   2.949   9.267  14.132
39936SOL    HW221642   2.807   9.272  14.184
39937SOL     OW21643   2.052   4.230   4.039
39937SOL    HW121644   1.981   4.173   4.068
39937SOL    HW221645   2.062   4.211   3.946
39938SOL     OW21646  10.551   5.811   6.482
39938SOL    HW121647  10.637   5.777   6.508
39938SOL    HW221648  10.518   5.747   6.419
39939SOL     OW21649  12.820  10.072   1.035
39939SOL    HW121650  12.746  10.063   1.096
39939SOL    HW221651  12.891  10.022   1.076
39940SOL     OW21652   4.691   6.385   2.150
39940SOL    HW121653   4.730   6.313   2.101
39940SOL    HW221654   4.597   6.369   2.145
39941SOL     OW21655   8.327   5.422  11.690
39941SOL    HW121656   8.237   5.421  11.658
39941SOL    HW221657   8.380   5.399  11.614
39942SOL     OW21658   1.788   9.635   1.434
39942SOL    HW121659   1.848   9.579   1.384
39942SOL    HW221660   1.746   9.690   1.368
39943SOL     OW21661  11.085   7.571   0.870
39943SOL    HW121662  11.068   7.658   0.906
39943SOL    HW221663  11.133   7.588   0.789
39944SOL     OW21664   0.662   6.611   4.803
39944SOL    HW121665   0.698   6.609   4.714
39944SOL    HW221666   0.738   6.602   4.859
39945SOL     OW21667  12.520   1.306   4.331
39945SOL    HW121668  12.535   1.340   4.243
39945SOL    HW221669  12.606   1.310   4.373
39946SOL     OW21670  11.151  12.526   1.925
39946SOL    HW121671  11.153  12.619   1.900
39946SOL    HW221672  11.239  12.509   1.957
39947SOL     OW21673   3.640   2.941   7.950
39947SOL    HW121674   3.725   2.919   7.988
39947SOL    HW221675   3.660   3.004   7.880
39948SOL     OW21676  14.747  11.165   0.034
39948SOL    HW121677  14.737  11.212   0.117
39948SOL    HW221678  14.722  11.228  14.846
39949SOL     OW21679  13.836  14.360  10.017
39949SOL    HW121680  13.781  14.282  10.024
39949SOL    HW221681  13.780  14.431  10.047
39950SOL     OW21682   8.926  10.352  11.616
39950SOL    HW121683   8.916  10.416  11.545
39950SOL    HW221684   8.840  10.349  11.658
39951SOL     OW21685   5.403   0.594   9.804
39951SOL    HW121686   5.385   0.548   9.721
39951SOL    HW221687   5.317   0.625   9.832
39952SOL     OW21688  10.366   6.613   3.181
39952SOL    HW121689  10.339   6.681   3.119
39952SOL    HW221690  10.293   6.551   3.182
39953SOL     OW21691   9.680   8.821   8.112
39953SOL    HW121692   9.685   8.894   8.050
39953SOL    HW221693   9.618   8.760   8.072
39954SOL     OW21694   8.160   5.675   2.604
39954SOL    HW121695   8.111   5.593   2.606
39954SOL    HW221696   8.153   5.710   2.693
39955SOL     OW21697   3.663   9.768   7.910
39955SOL    HW121698   3.665   9.863   7.899
39955SOL    HW221699   3.733   9.750   7.972
39956SOL     OW21700   9.952   8.085  12.154
39956SOL    HW121701   9.905   8.006  12.130
39956SOL    HW221702   9.915   8.112  12.238
39957SOL     OW21703   9.536   6.682   3.458
39957SOL    HW121704   9.583   6.765   3.463
39957SOL    HW221705   9.531   6.652   3.549
39958SOL     OW21706   3.098   6.062   9.278
39958SOL    HW121707   3.087   5.968   9.270
39958SOL    HW221708   3.072   6.083   9.368
39959SOL     OW21709  10.435  11.190   6.472
39959SOL    HW121710  10.485  11.193   6.391
39959SOL    HW221711  10.411  11.098   6.483
39960SOL     OW21712   3.972   1.755   5.495
39960SOL    HW121713   4.013   1.830   5.453
39960SOL    HW221714   4.039   1.687   5.495
39961SOL     OW21715   9.765  11.548   3.138
39961SOL    HW121716   9.751  11.485   3.067
39961SOL    HW221717   9.779  11.631   3.094
39962SOL     OW21718   0.514  11.248  13.523
39962SOL    HW121719   0.488  11.262  13.614
39962SOL    HW221720   0.495  11.155  13.507
39963SOL     OW21721   4.625  12.569  14.811
39963SOL    HW121722   4.576  12.508  14.755
39963SOL    HW221723   4.570  12.647  14.815
39964SOL     OW21724   5.746   9.754   7.135
39964SOL    HW121725   5.674   9.778   7.077
39964SOL    HW221726   5.795   9.836   7.148
39965SOL     OW21727  14.742   9.282  10.869
39965SOL    HW121728  14.766   9.359  10.817
39965SOL    HW221729  14.784   9.295  10.953
39966SOL     OW21730   7.326   8.701   4.889
39966SOL    HW121731   7.366   8.657   4.964
39966SOL    HW221732   7.232   8.695   4.904
39967SOL     OW21733  11.593  12.369  10.527
39967SOL    HW121734  11.527  12.306  10.555
39967SOL    HW221735  11.598  12.431  10.599
39968SOL     OW21736  11.159   6.326   2.547
39968SOL    HW121737  11.085   6.337   2.606
39968SOL    HW221738  11.231   6.298   2.603
39969SOL     OW21739  13.192   2.134   4.461
39969SOL    HW121740  13.180   2.225   4.432
39969SOL    HW221741  13.273   2.136   4.512
39970SOL     OW21742  12.455   7.024  12.861
39970SOL    HW121743  12.508   6.974  12.799
39970SOL    HW221744  12.481   6.990  12.947
39971SOL     OW21745   0.099   8.355   8.289
39971SOL    HW121746   0.074   8.433   8.239
39971SOL    HW221747   0.169   8.385   8.347
39972SOL     OW21748  12.129  13.962   6.039
39972SOL    HW121749  12.135  13.983   6.132
39972SOL    HW221750  12.088  13.876   6.037
39973SOL     OW21751   2.118   5.709   0.948
39973SOL    HW121752   2.085   5.769   0.882
39973SOL    HW221753   2.108   5.756   1.030
39974SOL     OW21754  11.525  10.830   7.841
39974SOL    HW121755  11.442  10.872   7.821
39974SOL    HW221756  11.525  10.750   7.790
39975SOL     OW21757   9.291   2.169  13.329
39975SOL    HW121758   9.361   2.234  13.333
39975SOL    HW221759   9.299   2.129  13.242
39976SOL     OW21760   9.538   1.513   4.495
39976SOL    HW121761   9.476   1.441   4.504
39976SOL    HW221762   9.538   1.556   4.581
39977SOL     OW21763   2.178  13.392  11.296
39977SOL    HW121764   2.234  13.314  11.294
39977SOL    HW221765   2.098  13.365  11.252
39978SOL     OW21766   8.534   5.040   0.276
39978SOL    HW121767   8.443   5.058   0.255
39978SOL    HW221768   8.581   5.054   0.193
39979SOL     OW21769   6.697   0.126  14.310
39979SOL    HW121770   6.655   0.212  14.312
39979SOL    HW221771   6.788   0.142  14.334
39980SOL     OW21772  14.090   2.766  13.677
39980SOL    HW121773  14.017   2.766  13.739
39980SOL    HW221774  14.150   2.833  13.712
39981SOL     OW21775  11.347  14.222  11.659
39981SOL    HW121776  11.325  14.242  11.568
39981SOL    HW221777  11.294  14.144  11.679
39982SOL     OW21778   0.998   6.876   1.721
39982SOL    HW121779   0.941   6.860   1.646
39982SOL    HW221780   1.049   6.953   1.696
39983SOL     OW21781   8.984   5.102   3.527
39983SOL    HW121782   9.038   5.023   3.534
39983SOL    HW221783   8.907   5.083   3.581
39984SOL     OW21784   8.921   7.404  14.817
39984SOL    HW121785   8.913   7.316  14.779
39984SOL    HW221786   8.865   7.402   0.015
39985SOL     OW21787   8.882   5.640   5.942
39985SOL    HW121788   8.897   5.646   6.036
39985SOL    HW221789   8.970   5.641   5.904
39986SOL     OW21790   3.943   6.601   2.380
39986SOL    HW121791   3.969   6.545   2.307
39986SOL    HW221792   3.884   6.546   2.432
39987SOL     OW21793   4.164   5.895   8.918
39987SOL    HW121794   4.114   5.851   8.849
39987SOL    HW221795   4.255   5.886   8.891
39988SOL     OW21796   7.625   9.340  11.242
39988SOL    HW121797   7.604   9.363  11.333
39988SOL    HW221798   7.576   9.259  11.226
39989SOL     OW21799   6.807   1.630   5.524
39989SOL    HW121800   6.858   1.601   5.599
39989SOL    HW221801   6.798   1.725   5.536
39990SOL     OW21802   2.931   0.574  10.445
39990SOL    HW121803   2.866   0.629  10.402
39990SOL    HW221804   3.004   0.569  10.383
39991SOL     OW21805   9.695   8.481  12.931
39991SOL    HW121806   9.717   8.425  13.006
39991SOL    HW221807   9.646   8.554  12.968
39992SOL     OW21808  12.552   6.081   2.955
39992SOL    HW121809  12.562   6.084   2.860
39992SOL    HW221810  12.505   6.162   2.976
39993SOL     OW21811   7.383  10.875   6.449
39993SOL    HW121812   7.464  10.826   6.465
39993SOL    HW221813   7.321  10.841   6.513
39994SOL     OW21814   0.460   8.762   9.104
39994SOL    HW121815   0.458   8.772   9.009
39994SOL    HW221816   0.402   8.831   9.137
39995SOL     OW21817   1.617  13.619   5.328
39995SOL    HW121818   1.566  13.684   5.378
39995SOL    HW221819   1.611  13.539   5.380
39996SOL     OW21820   7.023   2.312   1.243
39996SOL    HW121821   7.062   2.391   1.206
39996SOL    HW221822   6.987   2.340   1.327
39997SOL     OW21823   4.716   7.874  13.434
39997SOL    HW121824   4.749   7.876  13.524
39997SOL    HW221825   4.641   7.933  13.435
39998SOL     OW21826   2.775  12.532   6.120
39998SOL    HW121827   2.772  12.626   6.138
39998SOL    HW221828   2.701  12.517   6.060
39999SOL     OW21829   5.095  13.242   9.074
39999SOL    HW121830   5.154  13.316   9.059
39999SOL    HW221831   5.007  13.280   9.072
40000SOL     OW21832   1.816   1.477  11.988
40000SOL    HW121833   1.906   1.457  11.962
40000SOL    HW221834   1.766   1.474  11.907
40001SOL     OW21835   2.782   7.716   0.417
40001SOL    HW121836   2.787   7.621   0.407
40001SOL    HW221837   2.847   7.750   0.356
40002SOL     OW21838   6.769  11.807  11.965
40002SOL    HW121839   6.851  11.809  12.015
40002SOL    HW221840   6.777  11.731  11.908
40003SOL     OW21841  10.005   2.541   7.000
40003SOL    HW121842   9.917   2.527   6.963
40003SOL    HW221843   9.996   2.519   7.093
40004SOL     OW21844   3.880   9.220  11.574
40004SOL    HW121845   3.900   9.308  11.605
40004SOL    HW221846   3.832   9.234  11.492
40005SOL     OW21847  12.590  14.220  13.160
40005SOL    HW121848  12.578  14.127  13.178
40005SOL    HW221849  12.566  14.230  13.068
40006SOL     OW21850  11.336  12.406   2.297
40006SOL    HW121851  11.341  12.447   2.211
40006SOL    HW221852  11.242  12.390   2.311
40007SOL     OW21853   3.625   5.860  12.038
40007SOL    HW121854   3.627   5.804  12.115
40007SOL    HW221855   3.631   5.800  11.964
40008SOL     OW21856  11.465   3.930   2.116
40008SOL    HW121857  11.382   3.901   2.153
40008SOL    HW221858  11.498   3.995   2.178
40009SOL     OW21859  14.163  13.578   1.477
40009SOL    HW121860  14.211  13.573   1.560
40009SOL    HW221861  14.140  13.488   1.457
40010SOL     OW21862   6.222  14.231   2.269
40010SOL    HW121863   6.187  14.312   2.305
40010SOL    HW221864   6.280  14.260   2.198
40011SOL     OW21865   2.493   1.563   0.260
40011SOL    HW121866   2.435   1.638   0.275
40011SOL    HW221867   2.523   1.538   0.347
40012SOL     OW21868   9.162  12.791   5.548
40012SOL    HW121869   9.186  12.872   5.593
40012SOL    HW221870   9.070  12.802   5.526
40013SOL     OW21871  11.665   2.039   8.387
40013SOL    HW121872  11.719   1.990   8.448
40013SOL    HW221873  11.593   2.072   8.440
40014SOL     OW21874   6.197   9.272   1.963
40014SOL    HW121875   6.279   9.289   1.916
40014SOL    HW221876   6.164   9.358   1.986
40015SOL     OW21877   9.995  13.818   4.489
40015SOL    HW121878   9.946  13.824   4.571
40015SOL    HW221879  10.006  13.909   4.461
40016SOL     OW21880   8.678   7.027   6.510
40016SOL    HW121881   8.660   7.080   6.587
40016SOL    HW221882   8.745   6.964   6.538
40017SOL     OW21883   9.889  12.744   2.466
40017SOL    HW121884   9.922  12.788   2.544
40017SOL    HW221885   9.964  12.742   2.406
40018SOL     OW21886  14.596   9.154   4.706
40018SOL    HW121887  14.673   9.203   4.734
40018SOL    HW221888  14.528   9.178   4.768
40019SOL     OW21889   9.214   6.698  10.981
40019SOL    HW121890   9.251   6.656  10.904
40019SOL    HW221891   9.257   6.655  11.055
40020SOL     OW21892   7.838   9.419   8.265
40020SOL    HW121893   7.859   9.406   8.173
40020SOL    HW221894   7.922   9.440   8.306
40021SOL     OW21895   5.377  13.310  14.308
40021SOL    HW121896   5.399  13.311  14.215
40021SOL    HW221897   5.351  13.400  14.327
40022SOL     OW21898   6.882  11.496   5.103
40022SOL    HW121899   6.919  11.487   5.191
40022SOL    HW221900   6.830  11.416   5.091
40023SOL     OW21901   3.279   8.600  13.793
40023SOL    HW121902   3.240   8.512  13.790
40023SOL    HW221903   3.278   8.623  13.885
40024SOL     OW21904  11.163   6.198   7.213
40024SOL    HW121905  11.236   6.249   7.178
40024SOL    HW221906  11.193   6.167   7.298
40025SOL     OW21907   9.056  10.698  13.037
40025SOL    HW121908   8.966  10.699  13.069
40025SOL    HW221909   9.069  10.608  13.006
40026SOL     OW21910  13.389   3.676   4.816
40026SOL    HW121911  13.299   3.705   4.834
40026SOL    HW221912  13.442   3.721   4.881
40027SOL     OW21913   3.859   9.358  13.785
40027SOL    HW121914   3.953   9.348  13.802
40027SOL    HW221915   3.854   9.419  13.712
40028SOL     OW21916  11.172   9.238   3.973
40028SOL    HW121917  11.196   9.307   3.910
40028SOL    HW221918  11.078   9.225   3.960
40029SOL     OW21919   3.039   5.771   4.567
40029SOL    HW121920   3.067   5.813   4.486
40029SOL    HW221921   2.948   5.745   4.552
40030SOL     OW21922   3.857   0.149   3.496
40030SOL    HW121923   3.900   0.065   3.478
40030SOL    HW221924   3.813   0.171   3.415
40031SOL     OW21925   8.878  10.297  14.421
40031SOL    HW121926   8.902  10.363  14.357
40031SOL    HW221927   8.936  10.313  14.495
40032SOL     OW21928  10.960  14.747  11.466
40032SOL    HW121929  10.868  14.759  11.488
40032SOL    HW221930  10.997  14.703  11.543
40033SOL     OW21931  14.019  10.494   1.423
40033SOL    HW121932  14.079  10.438   1.374
40033SOL    HW221933  13.995  10.563   1.361
40034SOL     OW21934   8.651   4.188   4.961
40034SOL    HW121935   8.684   4.188   4.871
40034SOL    HW221936   8.556   4.199   4.951
40035SOL     OW21937   5.771  13.450   1.197
40035SOL    HW121938   5.817  13.517   1.248
40035SOL    HW221939   5.775  13.371   1.252
40036SOL     OW21940  13.539  11.176   3.951
40036SOL    HW121941  13.563  11.245   3.890
40036SOL    HW221942  13.502  11.222   4.026
40037SOL     OW21943   2.698  11.461   1.183
40037SOL    HW121944   2.762  11.437   1.116
40037SOL    HW221945   2.749  11.511   1.248
40038SOL     OW21946  14.527   9.381   2.896
40038SOL    HW121947  14.518   9.450   2.830
40038SOL    HW221948  14.451   9.393   2.953
40039SOL     OW21949  10.782  14.427   8.280
40039SOL    HW121950  10.742  14.427   8.193
40039SOL    HW221951  10.833  14.347   8.283
40040SOL     OW21952   4.453  12.640   8.934
40040SOL    HW121953   4.365  12.677   8.926
40040SOL    HW221954   4.511  12.709   8.902
40041SOL     OW21955  13.783   3.051  13.611
40041SOL    HW121956  13.820   3.077  13.526
40041SOL    HW221957  13.718   3.119  13.631
40042SOL     OW21958  10.284  10.841   3.210
40042SOL    HW121959  10.306  10.898   3.283
40042SOL    HW221960  10.333  10.760   3.226
40043SOL     OW21961  11.529  11.221   4.534
40043SOL    HW121962  11.524  11.161   4.460
40043SOL    HW221963  11.599  11.282   4.511
40044SOL     OW21964  13.001   3.985  10.414
40044SOL    HW121965  13.078   4.005  10.468
40044SOL    HW221966  13.037   3.968  10.327
40045SOL     OW21967   0.880   2.502   4.568
40045SOL    HW121968   0.896   2.593   4.592
40045SOL    HW221969   0.939   2.485   4.494
40046SOL     OW21970   4.723   7.460  14.054
40046SOL    HW121971   4.782   7.501  14.118
40046SOL    HW221972   4.769   7.470  13.970
40047SOL     OW21973   8.555  12.996  10.252
40047SOL    HW121974   8.646  13.026  10.253
40047SOL    HW221975   8.511  13.055  10.191
40048SOL     OW21976   3.657   8.389   7.663
40048SOL    HW121977   3.564   8.375   7.644
40048SOL    HW221978   3.690   8.435   7.586
40049SOL     OW21979   9.279  12.220   3.408
40049SOL    HW121980   9.249  12.200   3.497
40049SOL    HW221981   9.214  12.181   3.351
40050SOL     OW21982   9.927   7.986   4.074
40050SOL    HW121983   9.957   7.904   4.114
40050SOL    HW221984   9.920   8.046   4.148
40051SOL     OW21985   0.102  12.662   7.390
40051SOL    HW121986   0.064  12.615   7.316
40051SOL    HW221987   0.113  12.596   7.458
40052SOL     OW21988  13.491  11.604   7.249
40052SOL    HW121989  13.442  11.686   7.254
40052SOL    HW221990  13.542  11.611   7.169
40053SOL     OW21991   2.970  10.248   9.081
40053SOL    HW121992   2.903  10.307   9.115
40053SOL    HW221993   3.003  10.292   9.003
40054SOL     OW21994   6.920   6.073  12.143
40054SOL    HW121995   6.911   6.037  12.231
40054SOL    HW221996   6.919   5.996  12.086
40055SOL     OW21997   4.190   9.744   8.674
40055SOL    HW121998   4.121   9.697   8.722
40055SOL    HW221999   4.266   9.686   8.677
40056SOL     OW22000   3.477   1.009  13.433
40056SOL    HW122001   3.535   1.005  13.509
40056SOL    HW222002   3.470   1.103  13.413
40057SOL     OW22003  11.729  13.290  12.263
40057SOL    HW122004  11.726  13.255  12.173
40057SOL    HW222005  11.819  13.322  12.272
40058SOL     OW22006  14.654   2.442   5.183
40058SOL    HW122007  14.564   2.411   5.169
40058SOL    HW222008  14.708   2.366   5.163
40059SOL     OW22009   1.444  11.570   2.225
40059SOL    HW122010   1.480  11.641   2.172
40059SOL    HW222011   1.522  11.525   2.260
40060SOL     OW22012   3.235   2.660   1.540
40060SOL    HW122013   3.288   2.607   1.600
40060SOL    HW222014   3.173   2.706   1.596
40061SOL     OW22015  10.670   7.658   4.322
40061SOL    HW122016  10.600   7.630   4.263
40061SOL    HW222017  10.744   7.677   4.264
40062SOL     OW22018   9.476  10.219   2.213
40062SOL    HW122019   9.528  10.252   2.286
40062SOL    HW222020   9.413  10.159   2.254
40063SOL     OW22021  14.285   0.334   8.806
40063SOL    HW122022  14.316   0.422   8.782
40063SOL    HW222023  14.192   0.345   8.824
40064SOL     OW22024   4.843   1.844   6.492
40064SOL    HW122025   4.918   1.804   6.536
40064SOL    HW222026   4.775   1.849   6.558
40065SOL     OW22027  13.356  12.453   3.424
40065SOL    HW122028  13.372  12.440   3.517
40065SOL    HW222029  13.265  12.482   3.419
40066SOL     OW22030  10.569  12.025  13.723
40066SOL    HW122031  10.572  11.971  13.801
40066SOL    HW222032  10.593  12.113  13.753
40067SOL     OW22033  10.809   4.630   6.589
40067SOL    HW122034  10.775   4.643   6.501
40067SOL    HW222035  10.735   4.591   6.637
40068SOL     OW22036   3.415   1.359  10.264
40068SOL    HW122037   3.435   1.426  10.198
40068SOL    HW222038   3.401   1.279  10.214
40069SOL     OW22039   0.830   4.505  12.503
40069SOL    HW122040   0.768   4.467  12.440
40069SOL    HW222041   0.863   4.583  12.459
40070SOL     OW22042   9.962  13.452   4.065
40070SOL    HW122043   9.989  13.368   4.103
40070SOL    HW222044  10.012  13.518   4.112
40071SOL     OW22045   2.423   9.117   8.657
40071SOL    HW122046   2.338   9.081   8.630
40071SOL    HW222047   2.434   9.085   8.747
40072SOL     OW22048   6.870   2.299  14.590
40072SOL    HW122049   6.917   2.336  14.666
40072SOL    HW222050   6.801   2.245  14.628
40073SOL     OW22051  14.294   9.826   0.291
40073SOL    HW122052  14.347   9.884   0.237
40073SOL    HW222053  14.356   9.785   0.352
40074SOL     OW22054   1.356   1.518   6.914
40074SOL    HW122055   1.351   1.459   6.989
40074SOL    HW222056   1.264   1.539   6.894
40075SOL     OW22057   9.449   9.182   5.559
40075SOL    HW122058   9.365   9.141   5.577
40075SOL    HW222059   9.498   9.175   5.641
40076SOL     OW22060   2.055   1.449   8.741
40076SOL    HW122061   2.137   1.493   8.765
40076SOL    HW222062   2.081   1.358   8.725
40077SOL     OW22063   4.296   5.475   7.971
40077SOL    HW122064   4.351   5.537   8.018
40077SOL    HW222065   4.291   5.508   7.882
40078SOL     OW22066   5.443  13.484  12.997
40078SOL    HW122067   5.361  13.526  12.973
40078SOL    HW222068   5.419  13.392  13.013
40079SOL     OW22069   9.604  10.799   0.975
40079SOL    HW122070   9.515  10.832   0.981
40079SOL    HW222071   9.606  10.722   1.031
40080SOL     OW22072   6.771   7.525   7.121
40080SOL    HW122073   6.831   7.595   7.095
40080SOL    HW222074   6.697   7.534   7.061
40081SOL     OW22075   7.184   9.346   9.697
40081SOL    HW122076   7.165   9.440   9.689
40081SOL    HW222077   7.230   9.325   9.616
40082SOL     OW22078   8.854  10.943   3.562
40082SOL    HW122079   8.880  11.027   3.599
40082SOL    HW222080   8.888  10.878   3.623
40083SOL     OW22081  13.198  13.993   3.592
40083SOL    HW122082  13.147  13.977   3.513
40083SOL    HW222083  13.149  14.059   3.641
40084SOL     OW22084  11.205   9.361   6.313
40084SOL    HW122085  11.193   9.277   6.270
40084SOL    HW222086  11.176   9.426   6.249
40085SOL     OW22087   1.319   1.782   4.136
40085SOL    HW122088   1.409   1.803   4.163
40085SOL    HW222089   1.272   1.767   4.217
40086SOL     OW22090   7.529   7.981  12.185
40086SOL    HW122091   7.492   8.028  12.110
40086SOL    HW222092   7.576   7.907  12.145
40087SOL     OW22093   5.760   5.158   6.268
40087SOL    HW122094   5.713   5.222   6.321
40087SOL    HW222095   5.828   5.209   6.223
40088SOL     OW22096   1.826   3.325   9.825
40088SOL    HW122097   1.743   3.372   9.831
40088SOL    HW222098   1.859   3.322   9.915
40089SOL     OW22099   4.496  11.948   3.274
40089SOL    HW122100   4.401  11.960   3.265
40089SOL    HW222101   4.525  11.914   3.190
40090SOL     OW22102   7.749  12.573  11.482
40090SOL    HW122103   7.844  12.579  11.491
40090SOL    HW222104   7.721  12.514  11.552
40091SOL     OW22105   5.621  11.205   2.471
40091SOL    HW122106   5.626  11.110   2.487
40091SOL    HW222107   5.670  11.244   2.544
40092SOL     OW22108  10.366   6.376   1.102
40092SOL    HW122109  10.375   6.433   1.178
40092SOL    HW222110  10.273   6.355   1.099
40093SOL     OW22111   1.308   1.780  13.202
40093SOL    HW122112   1.364   1.841  13.250
40093SOL    HW222113   1.367   1.739  13.138
40094SOL     OW22114   3.671  11.884   2.257
40094SOL    HW122115   3.575  11.888   2.253
40094SOL    HW222116   3.691  11.872   2.350
40095SOL     OW22117   3.996  14.032   6.378
40095SOL    HW122118   4.005  13.938   6.390
40095SOL    HW222119   4.041  14.070   6.453
40096SOL     OW22120  10.560   4.848   4.563
40096SOL    HW122121  10.493   4.781   4.574
40096SOL    HW222122  10.518   4.916   4.510
40097SOL     OW22123   9.228  14.780   1.059
40097SOL    HW122124   9.179  14.856   1.029
40097SOL    HW222125   9.256  14.736   0.978
40098SOL     OW22126   2.177   9.406   3.661
40098SOL    HW122127   2.164   9.403   3.566
40098SOL    HW222128   2.088   9.409   3.697
40099SOL     OW22129  12.124   3.533  13.969
40099SOL    HW122130  12.151   3.528  13.878
40099SOL    HW222131  12.054   3.469  13.977
40100SOL     OW22132   3.316   2.753   2.960
40100SOL    HW122133   3.230   2.711   2.963
40100SOL    HW222134   3.331   2.770   2.868
40101SOL     OW22135  10.475  11.285   8.041
40101SOL    HW122136  10.528  11.261   8.117
40101SOL    HW222137  10.426  11.205   8.020
40102SOL     OW22138   5.940  11.442  14.225
40102SOL    HW122139   6.002  11.415  14.292
40102SOL    HW222140   5.957  11.384  14.151
40103SOL     OW22141   1.477   1.095   1.472
40103SOL    HW122142   1.561   1.110   1.517
40103SOL    HW222143   1.445   1.013   1.509
40104SOL     OW22144   0.181   7.336   7.304
40104SOL    HW122145   0.225   7.251   7.307
40104SOL    HW222146   0.240   7.392   7.254
40105SOL     OW22147   5.384   1.670   3.037
40105SOL    HW122148   5.405   1.652   2.945
40105SOL    HW222149   5.425   1.599   3.086
40106SOL     OW22150  11.715  11.015   6.146
40106SOL    HW122151  11.690  10.989   6.235
40106SOL    HW222152  11.655  11.086   6.124
40107SOL     OW22153   2.799   0.404   6.574
40107SOL    HW122154   2.846   0.362   6.645
40107SOL    HW222155   2.793   0.336   6.506
40108SOL     OW22156   0.225  14.147   5.001
40108SOL    HW122157   0.206  14.058   5.030
40108SOL    HW222158   0.268  14.189   5.076
40109SOL     OW22159   7.285  13.297  13.033
40109SOL    HW122160   7.207  13.325  12.985
40109SOL    HW222161   7.270  13.204  13.052
40110SOL     OW22162  11.854   4.345   5.560
40110SOL    HW122163  11.929   4.318   5.507
40110SOL    HW222164  11.814   4.416   5.511
40111SOL     OW22165   0.454  11.402   7.671
40111SOL    HW122166   0.396  11.361   7.607
40111SOL    HW222167   0.520  11.446   7.618
40112SOL     OW22168  13.392  13.087   7.274
40112SOL    HW122169  13.361  13.176   7.254
40112SOL    HW222170  13.453  13.099   7.347
40113SOL     OW22171   6.914   2.195  11.358
40113SOL    HW122172   6.885   2.111  11.323
40113SOL    HW222173   7.007   2.182  11.379
40114SOL     OW22174   3.969   0.380   9.127
40114SOL    HW122175   3.957   0.467   9.089
40114SOL    HW222176   4.012   0.396   9.211
40115SOL     OW22177   2.292   4.410  11.355
40115SOL    HW122178   2.337   4.366  11.426
40115SOL    HW222179   2.361   4.431  11.292
40116SOL     OW22180   9.817  10.304   2.257
40116SOL    HW122181   9.770  10.263   2.330
40116SOL    HW222182   9.802  10.398   2.269
40117SOL     OW22183   9.891   7.267   4.716
40117SOL    HW122184   9.838   7.329   4.666
40117SOL    HW222185   9.844   7.254   4.798
40118SOL     OW22186   2.582   8.246   5.320
40118SOL    HW122187   2.662   8.236   5.371
40118SOL    HW222188   2.609   8.236   5.229
40119SOL     OW22189   5.884   0.618   0.442
40119SOL    HW122190   5.833   0.673   0.383
40119SOL    HW222191   5.975   0.633   0.417
40120SOL     OW22192   7.769   5.973   5.143
40120SOL    HW122193   7.749   5.995   5.052
40120SOL    HW222194   7.720   6.037   5.195
40121SOL     OW22195  13.213  12.205   4.337
40121SOL    HW122196  13.272  12.280   4.348
40121SOL    HW222197  13.251  12.137   4.393
40122SOL     OW22198  11.869   1.028  10.875
40122SOL    HW122199  11.797   0.966  10.863
40122SOL    HW222200  11.865   1.085  10.798
40123SOL     OW22201   2.325  13.594   4.294
40123SOL    HW122202   2.254  13.603   4.230
40123SOL    HW222203   2.314  13.668   4.354
40124SOL     OW22204   9.958   2.266   1.299
40124SOL    HW122205   9.933   2.187   1.348
40124SOL    HW222206  10.052   2.255   1.283
40125SOL     OW22207  11.358  10.527   7.377
40125SOL    HW122208  11.328  10.507   7.466
40125SOL    HW222209  11.355  10.442   7.332
40126SOL     OW22210   3.338   9.151   6.964
40126SOL    HW122211   3.363   9.159   6.872
40126SOL    HW222212   3.384   9.072   6.994
40127SOL     OW22213  14.430   7.872   3.710
40127SOL    HW122214  14.524   7.852   3.709
40127SOL    HW222215  14.392   7.815   3.644
40128SOL     OW22216   1.626   6.772   2.608
40128SOL    HW122217   1.647   6.684   2.642
40128SOL    HW222218   1.612   6.825   2.686
40129SOL     OW22219   1.044  10.062   6.902
40129SOL    HW122220   1.044  10.023   6.815
40129SOL    HW222221   1.058   9.988   6.962
40130SOL     OW22222   3.022  10.742   7.249
40130SOL    HW122223   2.957  10.812   7.236
40130SOL    HW222224   3.035  10.705   7.162
40131SOL     OW22225  13.042   9.340   8.841
40131SOL    HW122226  13.009   9.267   8.789
40131SOL    HW222227  13.113   9.302   8.893
40132SOL     OW22228  13.656   9.842   9.405
40132SOL    HW122229  13.722   9.808   9.464
40132SOL    HW222230  13.628   9.766   9.354
40133SOL     OW22231   1.701  11.998  14.497
40133SOL    HW122232   1.629  11.974  14.439
40133SOL    HW222233   1.740  11.914  14.523
40134SOL     OW22234   3.833   3.545   2.852
40134SOL    HW122235   3.869   3.473   2.905
40134SOL    HW222236   3.774   3.591   2.911
40135SOL     OW22237   0.188  14.625   8.119
40135SOL    HW122238   0.154  14.539   8.095
40135SOL    HW222239   0.123  14.686   8.084
40136SOL     OW22240   3.453   1.345   8.325
40136SOL    HW122241   3.383   1.301   8.374
40136SOL    HW222242   3.482   1.279   8.262
40137SOL     OW22243   8.336  13.007  11.624
40137SOL    HW122244   8.274  12.938  11.600
40137SOL    HW222245   8.414  12.987  11.571
40138SOL     OW22246   9.886  10.056  10.872
40138SOL    HW122247   9.849  10.132  10.918
40138SOL    HW222248   9.814  10.023  10.819
40139SOL     OW22249  10.282   7.820   6.027
40139SOL    HW122250  10.224   7.884   5.987
40139SOL    HW222251  10.273   7.741   5.972
40140SOL     OW22252   3.276  12.160   8.752
40140SOL    HW122253   3.311  12.215   8.681
40140SOL    HW222254   3.283  12.071   8.717
40141SOL     OW22255  14.702  14.773   6.233
40141SOL    HW122256  14.739  14.687   6.212
40141SOL    HW222257  14.630  14.754   6.293
40142SOL     OW22258   9.022   4.643   6.039
40142SOL    HW122259   9.104   4.598   6.017
40142SOL    HW222260   9.049   4.728   6.073
40143SOL     OW22261  12.250   9.061   4.364
40143SOL    HW122262  12.288   9.069   4.451
40143SOL    HW222263  12.287   9.134   4.314
40144SOL     OW22264   6.048  12.267  14.635
40144SOL    HW122265   5.954  12.250  14.623
40144SOL    HW222266   6.064  12.247  14.727
40145SOL     OW22267   3.914   2.016   9.359
40145SOL    HW122268   3.971   1.958   9.307
40145SOL    HW222269   3.854   2.054   9.295
40146SOL     OW22270   0.005   5.226   7.331
40146SOL    HW122271   0.043   5.214   7.418
40146SOL    HW222272  14.801   5.272   7.347
40147SOL     OW22273   5.278  11.409   8.553
40147SOL    HW122274   5.268  11.471   8.480
40147SOL    HW222275   5.293  11.325   8.511
40148SOL     OW22276   2.490  12.723   5.079
40148SOL    HW122277   2.411  12.674   5.105
40148SOL    HW222278   2.561  12.660   5.087
40149SOL     OW22279  13.124   9.335   2.921
40149SOL    HW122280  13.070   9.267   2.962
40149SOL    HW222281  13.103   9.329   2.828
40150SOL     OW22282  13.350   8.208   8.921
40150SOL    HW122283  13.425   8.265   8.906
40150SOL    HW222284  13.297   8.217   8.842
40151SOL     OW22285   0.248  11.012   8.205
40151SOL    HW122286   0.159  10.998   8.172
40151SOL    HW222287   0.273  10.927   8.240
40152SOL     OW22288   5.591   8.550  10.159
40152SOL    HW122289   5.680   8.579  10.139
40152SOL    HW222290   5.602   8.470  10.209
40153SOL     OW22291   0.599  13.100   0.667
40153SOL    HW122292   0.541  13.164   0.627
40153SOL    HW222293   0.609  13.129   0.757
40154SOL     OW22294  11.026  10.756   8.853
40154SOL    HW122295  11.057  10.741   8.764
40154SOL    HW222296  11.019  10.668   8.891
40155SOL     OW22297  14.580   4.121   6.191
40155SOL    HW122298  14.556   4.049   6.249
40155SOL    HW222299  14.649   4.086   6.136
40156SOL     OW22300  12.960  14.625   2.142
40156SOL    HW122301  13.006  14.542   2.152
40156SOL    HW222302  13.016  14.690   2.183
40157SOL     OW22303   1.986   6.478   5.520
40157SOL    HW122304   1.902   6.480   5.475
40157SOL    HW222305   1.974   6.532   5.598
40158SOL     OW22306   2.751  10.575   6.053
40158SOL    HW122307   2.714  10.648   6.003
40158SOL    HW222308   2.746  10.604   6.145
40159SOL     OW22309  13.365   6.408   4.923
40159SOL    HW122310  13.305   6.432   4.994
40159SOL    HW222311  13.321   6.335   4.879
40160SOL     OW22312   3.000   2.061  13.710
40160SOL    HW122313   3.005   2.144  13.663
40160SOL    HW222314   3.026   2.082  13.799
40161SOL     OW22315   5.003  13.581   8.871
40161SOL    HW122316   4.912  13.604   8.852
40161SOL    HW222317   5.033  13.534   8.793
40162SOL     OW22318  12.334   6.639  14.174
40162SOL    HW122319  12.378   6.582  14.112
40162SOL    HW222320  12.386   6.719  14.175
40163SOL     OW22321  13.562   6.591   3.500
40163SOL    HW122322  13.541   6.532   3.428
40163SOL    HW222323  13.539   6.540   3.579
40164SOL     OW22324  12.026  14.337  14.028
40164SOL    HW122325  12.083  14.308  13.957
40164SOL    HW222326  12.045  14.277  14.100
40165SOL     OW22327   8.567   2.612  13.984
40165SOL    HW122328   8.635   2.593  13.919
40165SOL    HW222329   8.490   2.634  13.932
40166SOL     OW22330   8.718   0.922   7.158
40166SOL    HW122331   8.789   0.983   7.179
40166SOL    HW222332   8.668   0.914   7.239
40167SOL     OW22333   1.506   5.211   4.524
40167SOL    HW122334   1.487   5.200   4.617
40167SOL    HW222335   1.587   5.162   4.510
40168SOL     OW22336  13.752   8.669   7.081
40168SOL    HW122337  13.831   8.653   7.029
40168SOL    HW222338  13.723   8.581   7.108
40169SOL     OW22339   4.124   9.833  10.760
40169SOL    HW122340   4.094   9.896  10.694
40169SOL    HW222341   4.045   9.784  10.783
40170SOL     OW22342   9.154   1.774   2.805
40170SOL    HW122343   9.124   1.765   2.895
40170SOL    HW222344   9.077   1.753   2.752
40171SOL     OW22345  14.710   0.558   9.176
40171SOL    HW122346  14.661   0.491   9.224
40171SOL    HW222347  14.785   0.578   9.233
40172SOL     OW22348   7.372   4.509   8.442
40172SOL    HW122349   7.467   4.520   8.431
40172SOL    HW222350   7.349   4.569   8.514
40173SOL     OW22351  12.312  10.878  11.745
40173SOL    HW122352  12.321  10.848  11.655
40173SOL    HW222353  12.230  10.927  11.746
40174SOL     OW22354   4.673  10.524  13.218
40174SOL    HW122355   4.720  10.601  13.186
40174SOL    HW222356   4.590  10.526  13.170
40175SOL     OW22357  12.569   8.311  13.758
40175SOL    HW122358  12.647   8.363  13.777
40175SOL    HW222359  12.503   8.375  13.735
40176SOL     OW22360   3.329   7.198   2.431
40176SOL    HW122361   3.389   7.273   2.426
40176SOL    HW222362   3.264   7.223   2.496
40177SOL     OW22363   8.261   6.797   4.460
40177SOL    HW122364   8.337   6.763   4.507
40177SOL    HW222365   8.283   6.888   4.443
40178SOL     OW22366   8.936  11.778   1.980
40178SOL    HW122367   8.919  11.758   1.888
40178SOL    HW222368   8.881  11.716   2.029
40179SOL     OW22369   2.807  11.984   3.856
40179SOL    HW122370   2.817  12.077   3.834
40179SOL    HW222371   2.726  11.980   3.908
40180SOL     OW22372   0.230  10.141  14.087
40180SOL    HW122373   0.198  10.188  14.010
40180SOL    HW222374   0.289  10.074  14.052
40181SOL     OW22375   8.864   8.378   8.552
40181SOL    HW122376   8.776   8.405   8.579
40181SOL    HW222377   8.849   8.303   8.493
40182SOL     OW22378   9.071   2.052   7.229
40182SOL    HW122379   9.102   2.136   7.194
40182SOL    HW222380   9.000   2.076   7.289
40183SOL     OW22381   6.378  10.472   6.879
40183SOL    HW122382   6.368  10.430   6.964
40183SOL    HW222383   6.413  10.404   6.822
40184SOL     OW22384  10.521   7.086   4.203
40184SOL    HW122385  10.578   7.098   4.127
40184SOL    HW222386  10.464   7.013   4.178
40185SOL     OW22387  12.170   6.543   0.912
40185SOL    HW122388  12.199   6.633   0.894
40185SOL    HW222389  12.226   6.514   0.984
40186SOL     OW22390  13.638   4.915   7.884
40186SOL    HW122391  13.693   4.914   7.805
40186SOL    HW222392  13.651   4.829   7.923
40187SOL     OW22393   5.417   1.498   9.772
40187SOL    HW122394   5.373   1.544   9.843
40187SOL    HW222395   5.510   1.514   9.787
40188SOL     OW22396   6.273   3.045   3.410
40188SOL    HW122397   6.317   3.127   3.391
40188SOL    HW222398   6.239   3.015   3.326
40189SOL     OW22399  12.082   7.670   9.418
40189SOL    HW122400  12.076   7.594   9.360
40189SOL    HW222401  12.175   7.677   9.439
40190SOL     OW22402   6.887   7.428   3.008
40190SOL    HW122403   6.968   7.413   2.960
40190SOL    HW222404   6.899   7.380   3.091
40191SOL     OW22405   0.993  11.487   3.555
40191SOL    HW122406   0.971  11.499   3.647
40191SOL    HW222407   0.977  11.572   3.515
40192SOL     OW22408  10.048   2.021   4.226
40192SOL    HW122409  10.094   1.937   4.224
40192SOL    HW222410  10.008   2.024   4.313
40193SOL     OW22411   6.254   5.569  13.258
40193SOL    HW122412   6.196   5.589  13.185
40193SOL    HW222413   6.294   5.485  13.234
40194SOL     OW22414   7.406   8.726   5.437
40194SOL    HW122415   7.490   8.681   5.432
40194SOL    HW222416   7.392   8.761   5.350
40195SOL     OW22417  11.168  12.004  10.027
40195SOL    HW122418  11.122  11.921  10.015
40195SOL    HW222419  11.230  12.008   9.955
40196SOL     OW22420   7.339   3.349   8.293
40196SOL    HW122421   7.423   3.359   8.249
40196SOL    HW222422   7.300   3.271   8.254
40197SOL     OW22423   7.783  14.755   8.375
40197SOL    HW122424   7.868  14.732   8.414
40197SOL    HW222425   7.785  14.850   8.367
40198SOL     OW22426   3.639   9.944   9.958
40198SOL    HW122427   3.676   9.927   9.871
40198SOL    HW222428   3.552   9.979   9.941
40199SOL     OW22429   0.331   5.546   5.911
40199SOL    HW122430   0.352   5.636   5.884
40199SOL    HW222431   0.304   5.502   5.830
40200SOL     OW22432  13.275   8.537   1.264
40200SOL    HW122433  13.219   8.607   1.232
40200SOL    HW222434  13.340   8.525   1.195
40201SOL     OW22435   8.781   0.992  11.686
40201SOL    HW122436   8.777   0.940  11.766
40201SOL    HW222437   8.875   1.004  11.670
40202SOL     OW22438   6.522   3.700   8.742
40202SOL    HW122439   6.437   3.699   8.787
40202SOL    HW222440   6.585   3.677   8.810
40203SOL     OW22441  11.744   1.159   6.869
40203SOL    HW122442  11.741   1.082   6.926
40203SOL    HW222443  11.831   1.197   6.885
40204SOL     OW22444   4.870   6.842  10.016
40204SOL    HW122445   4.809   6.826   9.944
40204SOL    HW222446   4.848   6.929  10.047
40205SOL     OW22447  12.485   9.680   8.186
40205SOL    HW122448  12.407   9.629   8.210
40205SOL    HW222449  12.484   9.682   8.091
40206SOL     OW22450   7.028   4.811   2.710
40206SOL    HW122451   7.108   4.797   2.760
40206SOL    HW222452   6.983   4.882   2.755
40207SOL     OW22453   7.701   7.832   6.102
40207SOL    HW122454   7.658   7.884   6.171
40207SOL    HW222455   7.670   7.872   6.020
40208SOL     OW22456   2.558   3.995   2.845
40208SOL    HW122457   2.611   3.931   2.796
40208SOL    HW222458   2.620   4.035   2.906
40209SOL     OW22459   3.280   4.601   0.666
40209SOL    HW122460   3.309   4.544   0.595
40209SOL    HW222461   3.333   4.574   0.741
40210SOL     OW22462   5.694   7.023   6.634
40210SOL    HW122463   5.756   7.051   6.701
40210SOL    HW222464   5.739   7.038   6.551
40211SOL     OW22465   7.482   3.781   1.401
40211SOL    HW122466   7.410   3.844   1.407
40211SOL    HW222467   7.541   3.806   1.473
40212SOL     OW22468   8.742  10.778   6.719
40212SOL    HW122469   8.797  10.842   6.673
40212SOL    HW222470   8.787  10.694   6.706
40213SOL     OW22471   2.478   2.824  11.517
40213SOL    HW122472   2.554   2.810  11.461
40213SOL    HW222473   2.403   2.801  11.463
40214SOL     OW22474   3.830   9.460   8.249
40214SOL    HW122475   3.826   9.494   8.338
40214SOL    HW222476   3.741   9.471   8.215
40215SOL     OW22477  13.416   1.038   6.724
40215SOL    HW122478  13.411   1.034   6.629
40215SOL    HW222479  13.508   1.021   6.744
40216SOL     OW22480  12.414   2.620   4.891
40216SOL    HW122481  12.471   2.632   4.967
40216SOL    HW222482  12.403   2.708   4.855
40217SOL     OW22483   7.768   9.694   4.359
40217SOL    HW122484   7.831   9.625   4.338
40217SOL    HW222485   7.785   9.715   4.451
40218SOL     OW22486   9.439  11.352   8.288
40218SOL    HW122487   9.438  11.405   8.208
40218SOL    HW222488   9.496  11.278   8.266
40219SOL     OW22489   7.163   8.148   2.288
40219SOL    HW122490   7.151   8.154   2.383
40219SOL    HW222491   7.085   8.104   2.257
40220SOL     OW22492  13.583  10.187   1.670
40220SOL    HW122493  13.499  10.158   1.705
40220SOL    HW222494  13.634  10.106   1.660
40221SOL     OW22495   3.906   3.084   6.093
40221SOL    HW122496   3.847   3.050   6.026
40221SOL    HW222497   3.929   3.008   6.147
40222SOL     OW22498   3.712  14.253  10.413
40222SOL    HW122499   3.738  14.345  10.407
40222SOL    HW222500   3.621  14.251  10.384
40223SOL     OW22501  11.166  12.716   7.293
40223SOL    HW122502  11.243  12.671   7.257
40223SOL    HW222503  11.129  12.654   7.356
40224SOL     OW22504   1.150   8.233   4.088
40224SOL    HW122505   1.082   8.172   4.114
40224SOL    HW222506   1.161   8.219   3.994
40225SOL     OW22507   8.560  10.833   7.842
40225SOL    HW122508   8.636  10.808   7.790
40225SOL    HW222509   8.560  10.928   7.841
40226SOL     OW22510   2.988   1.634   6.017
40226SOL    HW122511   2.892   1.629   6.016
40226SOL    HW222512   3.010   1.691   5.943
40227SOL     OW22513  14.774   5.582   5.683
40227SOL    HW122514  14.861   5.622   5.681
40227SOL    HW222515  14.789   5.493   5.713
40228SOL     OW22516   4.409  12.449   0.581
40228SOL    HW122517   4.504  12.444   0.572
40228SOL    HW222518   4.379  12.362   0.556
40229SOL     OW22519   5.778  10.806  13.767
40229SOL    HW122520   5.845  10.863  13.804
40229SOL    HW222521   5.818  10.719  13.769
40230SOL     OW22522  10.957   9.501   5.144
40230SOL    HW122523  10.949   9.584   5.095
40230SOL    HW222524  10.931   9.524   5.233
40231SOL     OW22525  11.779   9.785   3.646
40231SOL    HW122526  11.740   9.806   3.731
40231SOL    HW222527  11.750   9.855   3.588
40232SOL     OW22528   7.653  12.136  13.409
40232SOL    HW122529   7.739  12.174  13.395
40232SOL    HW222530   7.643  12.072  13.338
40233SOL     OW22531   3.917  14.016  11.174
40233SOL    HW122532   3.886  13.927  11.156
40233SOL    HW222533   4.012  14.010  11.170
40234SOL     OW22534   1.211   9.032   1.901
40234SOL    HW122535   1.290   9.015   1.850
40234SOL    HW222536   1.182   9.118   1.873
40235SOL     OW22537   3.093  13.909   5.189
40235SOL    HW122538   3.050  13.934   5.271
40235SOL    HW222539   3.073  13.981   5.129
40236SOL     OW22540  10.185  12.286  12.066
40236SOL    HW122541  10.102  12.303  12.021
40236SOL    HW222542  10.170  12.316  12.155
40237SOL     OW22543   6.513   9.342   7.169
40237SOL    HW122544   6.606   9.322   7.157
40237SOL    HW222545   6.468   9.259   7.152
40238SOL     OW22546  10.524   9.405   6.086
40238SOL    HW122547  10.608   9.370   6.117
40238SOL    HW222548  10.468   9.327   6.075
40239SOL     OW22549   7.156   2.270   0.156
40239SOL    HW122550   7.091   2.226   0.212
40239SOL    HW222551   7.168   2.355   0.197
40240SOL     OW22552   1.049   8.702  10.469
40240SOL    HW122553   1.060   8.647  10.391
40240SOL    HW222554   0.983   8.766  10.443
40241SOL     OW22555  10.551   3.626   8.021
40241SOL    HW122556  10.564   3.654   8.112
40241SOL    HW222557  10.512   3.702   7.978
40242SOL     OW22558   8.558   3.021   0.772
40242SOL    HW122559   8.481   3.064   0.809
40242SOL    HW222560   8.536   2.928   0.772
40243SOL     OW22561   3.588   4.748   0.616
40243SOL    HW122562   3.512   4.763   0.672
40243SOL    HW222563   3.576   4.807   0.542
40244SOL     OW22564  14.230  10.216  13.101
40244SOL    HW122565  14.158  10.264  13.060
40244SOL    HW222566  14.213  10.124  13.079
40245SOL     OW22567  14.000   3.310   8.250
40245SOL    HW122568  13.954   3.278   8.173
40245SOL    HW222569  14.028   3.398   8.226
40246SOL     OW22570   2.591   1.658   6.253
40246SOL    HW122571   2.647   1.608   6.312
40246SOL    HW222572   2.650   1.685   6.181
40247SOL     OW22573   4.120   8.647   2.703
40247SOL    HW122574   4.065   8.726   2.712
40247SOL    HW222575   4.209   8.681   2.700
40248SOL     OW22576   8.549   1.260   2.272
40248SOL    HW122577   8.599   1.239   2.350
40248SOL    HW222578   8.605   1.232   2.199
40249SOL     OW22579   1.075   7.120  13.622
40249SOL    HW122580   1.085   7.171  13.701
40249SOL    HW222581   1.062   7.030  13.653
40250SOL     OW22582  13.001   3.121   4.829
40250SOL    HW122583  12.973   3.031   4.843
40250SOL    HW222584  13.074   3.114   4.767
40251SOL     OW22585  13.518   7.156   6.436
40251SOL    HW122586  13.609   7.162   6.408
40251SOL    HW222587  13.505   7.229   6.495
40252SOL     OW22588  10.354   2.914  14.226
40252SOL    HW122589  10.333   2.912  14.133
40252SOL    HW222590  10.406   2.836  14.241
40253SOL     OW22591  10.105   7.435   7.121
40253SOL    HW122592  10.056   7.508   7.084
40253SOL    HW222593  10.101   7.450   7.216
40254SOL     OW22594   9.399   2.883   1.541
40254SOL    HW122595   9.353   2.803   1.516
40254SOL    HW222596   9.491   2.857   1.546
40255SOL     OW22597   9.994   8.343   4.506
40255SOL    HW122598   9.906   8.348   4.543
40255SOL    HW222599  10.044   8.407   4.556
40256SOL     OW22600   0.346   0.285   5.648
40256SOL    HW122601   0.284   0.325   5.588
40256SOL    HW222602   0.292   0.237   5.711
40257SOL     OW22603   3.652   6.495   1.764
40257SOL    HW122604   3.678   6.435   1.695
40257SOL    HW222605   3.557   6.505   1.753
40258SOL     OW22606  11.015  11.061   2.738
40258SOL    HW122607  11.108  11.076   2.754
40258SOL    HW222608  10.977  11.149   2.731
40259SOL     OW22609   8.219  14.821  10.755
40259SOL    HW122610   8.227  14.877  10.832
40259SOL    HW222611   8.267  14.742  10.778
40260SOL     OW22612   1.879   6.942   7.676
40260SOL    HW122613   1.962   6.949   7.630
40260SOL    HW222614   1.848   6.853   7.656
40261SOL     OW22615  13.700   1.083   2.347
40261SOL    HW122616  13.619   1.078   2.297
40261SOL    HW222617  13.711   1.176   2.366
40262SOL     OW22618  12.461   4.033   7.534
40262SOL    HW122619  12.390   4.069   7.587
40262SOL    HW222620  12.477   3.946   7.570
40263SOL     OW22621   8.186   8.651   2.247
40263SOL    HW122622   8.202   8.710   2.173
40263SOL    HW222623   8.267   8.654   2.298
40264SOL     OW22624  13.064  11.543  13.149
40264SOL    HW122625  12.994  11.582  13.202
40264SOL    HW222626  13.030  11.456  13.127
40265SOL     OW22627   5.083   8.654  12.939
40265SOL    HW122628   5.138   8.602  12.879
40265SOL    HW222629   5.129   8.651  13.023
40266SOL     OW22630   8.472  12.976   0.904
40266SOL    HW122631   8.466  13.061   0.859
40266SOL    HW222632   8.381  12.957   0.929
40267SOL     OW22633   2.794  13.714  13.267
40267SOL    HW122634   2.760  13.676  13.186
40267SOL    HW222635   2.812  13.638  13.324
40268SOL     OW22636   1.070   9.042  14.590
40268SOL    HW122637   1.149   9.082  14.627
40268SOL    HW222638   1.104   8.966  14.542
40269SOL     OW22639   7.553   9.720   4.104
40269SOL    HW122640   7.631   9.699   4.156
40269SOL    HW222641   7.584   9.721   4.014
40270SOL     OW22642   9.819  10.297   6.672
40270SOL    HW122643   9.889  10.361   6.681
40270SOL    HW222644   9.739  10.345   6.694
40271SOL     OW22645  11.524  12.836  11.316
40271SOL    HW122646  11.595  12.899  11.319
40271SOL    HW222647  11.567  12.751  11.327
40272SOL     OW22648   2.716   2.204   2.168
40272SOL    HW122649   2.742   2.186   2.258
40272SOL    HW222650   2.703   2.299   2.166
40273SOL     OW22651   5.352   4.259   0.195
40273SOL    HW122652   5.413   4.295   0.131
40273SOL    HW222653   5.317   4.336   0.241
40274SOL     OW22654   1.687   4.804   0.945
40274SOL    HW122655   1.673   4.719   0.986
40274SOL    HW222656   1.773   4.797   0.903
40275SOL     OW22657   7.594   5.322  12.551
40275SOL    HW122658   7.596   5.242  12.603
40275SOL    HW222659   7.552   5.387  12.607
40276SOL     OW22660  12.898  13.909  13.830
40276SOL    HW122661  12.888  13.879  13.740
40276SOL    HW222662  12.833  13.859  13.879
40277SOL     OW22663   1.682   8.170   8.023
40277SOL    HW122664   1.722   8.083   8.025
40277SOL    HW222665   1.619   8.169   8.096
40278SOL     OW22666   5.987   0.817   6.424
40278SOL    HW122667   5.968   0.726   6.402
40278SOL    HW222668   5.917   0.867   6.383
40279SOL     OW22669  11.522   9.576   0.505
40279SOL    HW122670  11.520   9.668   0.480
40279SOL    HW222671  11.541   9.530   0.424
40280SOL     OW22672   4.907   2.669   2.108
40280SOL    HW122673   4.882   2.706   2.194
40280SOL    HW222674   4.826   2.631   2.074
40281SOL     OW22675   6.593  14.524  11.864
40281SOL    HW122676   6.664  14.537  11.926
40281SOL    HW222677   6.605  14.593  11.799
40282SOL     OW22678   1.207   2.543   3.439
40282SOL    HW122679   1.150   2.569   3.511
40282SOL    HW222680   1.295   2.563   3.469
40283SOL     OW22681   9.962   1.001  12.925
40283SOL    HW122682   9.922   1.050  12.997
40283SOL    HW222683  10.021   1.064  12.882
40284SOL     OW22684   0.936  14.833   0.628
40284SOL    HW122685   0.902  14.878   0.551
40284SOL    HW222686   0.963  14.747   0.596
40285SOL     OW22687   1.271   1.692   0.507
40285SOL    HW122688   1.357   1.724   0.482
40285SOL    HW222689   1.215   1.770   0.507
40286SOL     OW22690   5.424  14.382   4.036
40286SOL    HW122691   5.468  14.301   4.062
40286SOL    HW222692   5.412  14.430   4.118
40287SOL     OW22693   0.483  11.629  13.515
40287SOL    HW122694   0.514  11.593  13.598
40287SOL    HW222695   0.558  11.620  13.455
40288SOL     OW22696   9.772  14.639  11.377
40288SOL    HW122697   9.776  14.674  11.467
40288SOL    HW222698   9.832  14.565  11.378
40289SOL     OW22699   6.659  12.231  11.393
40289SOL    HW122700   6.660  12.141  11.361
40289SOL    HW222701   6.567  12.248  11.414
40290SOL     OW22702  12.375   4.051  13.793
40290SOL    HW122703  12.413   4.013  13.872
40290SOL    HW222704  12.450   4.068  13.736
40291SOL     OW22705   6.292   3.045  12.292
40291SOL    HW122706   6.292   3.127  12.341
40291SOL    HW222707   6.218   2.996  12.328
40292SOL     OW22708  12.849   9.736   4.115
40292SOL    HW122709  12.919   9.788   4.077
40292SOL    HW222710  12.892   9.679   4.179
40293SOL     OW22711   7.146   4.980  10.509
40293SOL    HW122712   7.201   5.012  10.580
40293SOL    HW222713   7.056   4.997  10.539
40294SOL     OW22714   7.661  13.063   2.199
40294SOL    HW122715   7.749  13.099   2.206
40294SOL    HW222716   7.620  13.113   2.129
40295SOL     OW22717  12.162   2.478   1.926
40295SOL    HW122718  12.085   2.434   1.960
40295SOL    HW222719  12.163   2.563   1.969
40296SOL     OW22720   5.780   4.981   2.876
40296SOL    HW122721   5.721   4.934   2.817
40296SOL    HW222722   5.865   4.977   2.833
40297SOL     OW22723   0.945   2.341  11.352
40297SOL    HW122724   1.010   2.411  11.350
40297SOL    HW222725   0.963   2.289  11.274
40298SOL     OW22726   1.854  11.893   6.093
40298SOL    HW122727   1.827  11.817   6.145
40298SOL    HW222728   1.772  11.926   6.055
40299SOL     OW22729  13.370   9.077   8.030
40299SOL    HW122730  13.315   9.064   7.953
40299SOL    HW222731  13.388   9.171   8.031
40300SOL     OW22732  12.363   7.577   3.697
40300SOL    HW122733  12.314   7.506   3.739
40300SOL    HW222734  12.451   7.542   3.687
40301SOL     OW22735   4.954  13.717   6.691
40301SOL    HW122736   4.885  13.782   6.679
40301SOL    HW222737   4.918  13.637   6.654
40302SOL     OW22738  11.227   6.064   3.395
40302SOL    HW122739  11.132   6.078   3.400
40302SOL    HW222740  11.238   5.969   3.400
40303SOL     OW22741  10.976   0.486  12.090
40303SOL    HW122742  10.903   0.527  12.136
40303SOL    HW222743  11.053   0.537  12.117
40304SOL     OW22744  10.723   7.023   7.745
40304SOL    HW122745  10.815   6.995   7.747
40304SOL    HW222746  10.701   7.037   7.837
40305SOL     OW22747   8.007  13.935   2.837
40305SOL    HW122748   8.043  13.889   2.761
40305SOL    HW222749   7.974  14.018   2.803
40306SOL     OW22750   5.601   0.226   6.432
40306SOL    HW122751   5.661   0.279   6.485
40306SOL    HW222752   5.523   0.218   6.487
40307SOL     OW22753   9.050   4.859   5.655
40307SOL    HW122754   9.072   4.858   5.748
40307SOL    HW222755   8.990   4.786   5.643
40308SOL     OW22756   5.031   9.096   4.008
40308SOL    HW122757   4.977   9.141   3.943
40308SOL    HW222758   5.121   9.106   3.977
40309SOL     OW22759  10.479   4.980   1.670
40309SOL    HW122760  10.469   5.040   1.597
40309SOL    HW222761  10.557   5.010   1.716
40310SOL     OW22762   1.801  10.945   5.429
40310SOL    HW122763   1.772  11.007   5.496
40310SOL    HW222764   1.886  10.978   5.400
40311SOL     OW22765   9.643  13.993   9.720
40311SOL    HW122766   9.558  14.003   9.678
40311SOL    HW222767   9.641  13.906   9.759
40312SOL     OW22768   1.917   6.094   9.347
40312SOL    HW122769   1.890   6.053   9.428
40312SOL    HW222770   2.007   6.123   9.364
40313SOL     OW22771   5.699  12.063  14.355
40313SOL    HW122772   5.682  12.030  14.267
40313SOL    HW222773   5.792  12.044  14.370
40314SOL     OW22774  13.444   3.979   3.502
40314SOL    HW122775  13.466   3.955   3.412
40314SOL    HW222776  13.426   3.896   3.546
40315SOL     OW22777   7.622  11.565   7.630
40315SOL    HW122778   7.544  11.548   7.684
40315SOL    HW222779   7.637  11.659   7.640
40316SOL     OW22780   8.041   5.086   2.844
40316SOL    HW122781   8.137   5.093   2.847
40316SOL    HW222782   8.010   5.171   2.875
40317SOL     OW22783   8.807   4.417   1.436
40317SOL    HW122784   8.859   4.441   1.359
40317SOL    HW222785   8.736   4.363   1.401
40318SOL     OW22786  11.104   4.288   3.521
40318SOL    HW122787  11.082   4.296   3.614
40318SOL    HW222788  11.194   4.320   3.516
40319SOL     OW22789   4.183  14.333  12.374
40319SOL    HW122790   4.165  14.363  12.284
40319SOL    HW222791   4.273  14.300  12.370
40320SOL     OW22792  10.309   1.911  13.069
40320SOL    HW122793  10.350   1.883  12.988
40320SOL    HW222794  10.325   1.839  13.130
40321SOL     OW22795  11.972   3.241  10.107
40321SOL    HW122796  11.886   3.270  10.076
40321SOL    HW222797  12.031   3.264  10.036
40322SOL     OW22798  12.469  14.278  12.920
40322SOL    HW122799  12.432  14.231  12.846
40322SOL    HW222800  12.398  14.334  12.952
40323SOL     OW22801   3.698   1.077   8.413
40323SOL    HW122802   3.618   1.035   8.444
40323SOL    HW222803   3.731   1.018   8.346
40324SOL     OW22804  12.418   8.159  14.328
40324SOL    HW122805  12.434   8.247  14.293
40324SOL    HW222806  12.458   8.160  14.415
40325SOL     OW22807   4.461  13.674  14.707
40325SOL    HW122808   4.396  13.667  14.637
40325SOL    HW222809   4.488  13.583  14.722
40326SOL     OW22810  13.586   5.453  11.159
40326SOL    HW122811  13.638   5.528  11.130
40326SOL    HW222812  13.567   5.471  11.251
40327SOL     OW22813   1.961  12.734  12.343
40327SOL    HW122814   1.883  12.784  12.365
40327SOL    HW222815   2.005  12.719  12.427
40328SOL     OW22816   2.772   3.275  13.866
40328SOL    HW122817   2.800   3.185  13.852
40328SOL    HW222818   2.792   3.319  13.783
40329SOL     OW22819  10.837  11.685  12.139
40329SOL    HW122820  10.904  11.719  12.079
40329SOL    HW222821  10.789  11.620  12.088
40330SOL     OW22822  14.061  13.199   8.542
40330SOL    HW122823  14.061  13.201   8.446
40330SOL    HW222824  14.007  13.274   8.568
40331SOL     OW22825   4.907  12.446  13.850
40331SOL    HW122826   4.900  12.359  13.891
40331SOL    HW222827   4.902  12.507  13.924
40332SOL     OW22828  11.265   1.321   6.299
40332SOL    HW122829  11.224   1.403   6.271
40332SOL    HW222830  11.341   1.311   6.241
40333SOL     OW22831  11.077   3.072   7.654
40333SOL    HW122832  11.105   3.012   7.724
40333SOL    HW222833  11.156   3.121   7.632
40334SOL     OW22834  14.878   0.883   9.195
40334SOL    HW122835   0.028   0.813   9.254
40334SOL    HW222836  14.875   0.843   9.108
40335SOL     OW22837  12.874  13.765  12.710
40335SOL    HW122838  12.958  13.742  12.750
40335SOL    HW222839  12.810  13.745  12.778
40336SOL     OW22840   0.963   2.091   1.498
40336SOL    HW122841   0.919   2.153   1.557
40336SOL    HW222842   1.041   2.137   1.468
40337SOL     OW22843   3.220   4.998  12.831
40337SOL    HW122844   3.132   4.961  12.837
40337SOL    HW222845   3.246   4.982  12.741
40338SOL     OW22846   1.914   7.847  10.143
40338SOL    HW122847   1.997   7.852  10.096
40338SOL    HW222848   1.849   7.884  10.083
40339SOL     OW22849  13.657  14.871   6.532
40339SOL    HW122850  13.576  14.845   6.576
40339SOL    HW222851  13.661  14.814   6.455
40340SOL     OW22852  11.832   1.029  10.084
40340SOL    HW122853  11.774   1.098  10.051
40340SOL    HW222854  11.903   1.076  10.128
40341SOL     OW22855   0.516   4.003   3.279
40341SOL    HW122856   0.576   4.045   3.341
40341SOL    HW222857   0.436   3.989   3.329
40342SOL     OW22858   6.327   6.791   6.454
40342SOL    HW122859   6.348   6.753   6.368
40342SOL    HW222860   6.355   6.725   6.517
40343SOL     OW22861  12.171  13.943  11.787
40343SOL    HW122862  12.138  13.894  11.711
40343SOL    HW222863  12.264  13.953  11.770
40344SOL     OW22864   0.432   5.375   6.117
40344SOL    HW122865   0.423   5.434   6.042
40344SOL    HW222866   0.506   5.319   6.094
40345SOL     OW22867  10.164  10.681   8.941
40345SOL    HW122868  10.155  10.736   8.863
40345SOL    HW222869  10.082  10.631   8.943
40346SOL     OW22870   4.738  12.317   2.201
40346SOL    HW122871   4.827  12.337   2.173
40346SOL    HW222872   4.714  12.239   2.151
40347SOL     OW22873   4.819  13.269   9.070
40347SOL    HW122874   4.821  13.365   9.064
40347SOL    HW222875   4.737  13.249   9.114
40348SOL     OW22876  10.999  12.111  10.226
40348SOL    HW122877  11.066  12.102  10.159
40348SOL    HW222878  10.973  12.021  10.246
40349SOL     OW22879  14.120   9.371   0.417
40349SOL    HW122880  14.189   9.424   0.377
40349SOL    HW222881  14.039   9.419   0.399
40350SOL     OW22882   7.047   8.675   5.513
40350SOL    HW122883   6.983   8.715   5.454
40350SOL    HW222884   7.093   8.611   5.459
40351SOL     OW22885   0.212   5.688   6.257
40351SOL    HW122886   0.170   5.774   6.267
40351SOL    HW222887   0.238   5.685   6.164
40352SOL     OW22888   5.924  10.894   0.536
40352SOL    HW122889   5.907  10.805   0.504
40352SOL    HW222890   5.849  10.914   0.592
40353SOL     OW22891   3.604   8.990   2.539
40353SOL    HW122892   3.677   8.934   2.509
40353SOL    HW222893   3.638   9.034   2.616
40354SOL     OW22894   6.639  11.764  11.615
40354SOL    HW122895   6.660  11.672  11.595
40354SOL    HW222896   6.696  11.815  11.559
40355SOL     OW22897  11.468  13.943   9.817
40355SOL    HW122898  11.459  13.849   9.800
40355SOL    HW222899  11.379  13.973   9.833
40356SOL     OW22900   2.742   8.301  13.948
40356SOL    HW122901   2.754   8.236  13.879
40356SOL    HW222902   2.756   8.385  13.905
40357SOL     OW22903   9.772   9.497  12.842
40357SOL    HW122904   9.794   9.481  12.750
40357SOL    HW222905   9.857   9.511  12.884
40358SOL     OW22906  13.615   0.150  14.592
40358SOL    HW122907  13.630   0.239  14.562
40358SOL    HW222908  13.625   0.096  14.514
40359SOL     OW22909   9.595   1.140   4.698
40359SOL    HW122910   9.644   1.075   4.748
40359SOL    HW222911   9.655   1.214   4.688
40360SOL     OW22912   7.288   7.097  14.510
40360SOL    HW122913   7.202   7.090  14.469
40360SOL    HW222914   7.329   7.011  14.496
40361SOL     OW22915  14.822   8.080  12.891
40361SOL    HW122916  14.857   8.157  12.846
40361SOL    HW222917  14.730   8.076  12.862
40362SOL     OW22918  13.242  10.646   8.056
40362SOL    HW122919  13.303  10.649   8.130
40362SOL    HW222920  13.155  10.653   8.097
40363SOL     OW22921   9.239   4.280  11.367
40363SOL    HW122922   9.191   4.216  11.419
40363SOL    HW222923   9.322   4.291  11.413
40364SOL     OW22924  12.721   6.768   5.744
40364SOL    HW122925  12.749   6.773   5.653
40364SOL    HW222926  12.802   6.768   5.795
40365SOL     OW22927   1.777   6.930   0.755
40365SOL    HW122928   1.847   6.935   0.820
40365SOL    HW222929   1.731   6.849   0.776
40366SOL     OW22930   7.611   8.310   4.429
40366SOL    HW122931   7.640   8.238   4.484
40366SOL    HW222932   7.546   8.271   4.370
40367SOL     OW22933   9.067  13.971   7.667
40367SOL    HW122934   9.112  13.945   7.747
40367SOL    HW222935   9.132  13.956   7.598
40368SOL     OW22936   7.131   2.332   4.947
40368SOL    HW122937   7.188   2.410   4.940
40368SOL    HW222938   7.092   2.340   5.034
40369SOL     OW22939   7.108  10.690  12.458
40369SOL    HW122940   7.135  10.702  12.550
40369SOL    HW222941   7.056  10.610  12.459
40370SOL     OW22942  13.719   0.327   1.227
40370SOL    HW122943  13.675   0.340   1.311
40370SOL    HW222944  13.683   0.245   1.193
40371SOL     OW22945   5.238   0.678  11.778
40371SOL    HW122946   5.201   0.755  11.737
40371SOL    HW222947   5.268   0.624  11.705
40372SOL     OW22948   6.715   6.014  11.520
40372SOL    HW122949   6.786   6.078  11.522
40372SOL    HW222950   6.675   6.019  11.606
40373SOL     OW22951   6.784   4.200   3.273
40373SOL    HW122952   6.783   4.232   3.364
40373SOL    HW222953   6.774   4.105   3.281
40374SOL     OW22954  10.226   8.219  10.313
40374SOL    HW122955  10.229   8.150  10.247
40374SOL    HW222956  10.316   8.226  10.345
40375SOL     OW22957  10.546   6.239   0.288
40375SOL    HW122958  10.508   6.162   0.248
40375SOL    HW222959  10.491   6.312   0.259
40376SOL     OW22960   1.363   7.814   2.918
40376SOL    HW122961   1.417   7.802   2.996
40376SOL    HW222962   1.320   7.730   2.906
40377SOL     OW22963   4.255  12.031  12.458
40377SOL    HW122964   4.281  12.062  12.371
40377SOL    HW222965   4.174  12.079  12.477
40378SOL     OW22966   3.947   3.201  10.034
40378SOL    HW122967   4.007   3.128  10.049
40378SOL    HW222968   3.983   3.272  10.086
40379SOL     OW22969   9.814  12.144  14.147
40379SOL    HW122970   9.771  12.228  14.131
40379SOL    HW222971   9.907  12.162  14.132
40380SOL     OW22972   6.892  13.722   7.128
40380SOL    HW122973   6.822  13.755   7.071
40380SOL    HW222974   6.869  13.631   7.145
40381SOL     OW22975  10.433  13.242  14.813
40381SOL    HW122976  10.459  13.151  14.797
40381SOL    HW222977  10.390  13.269  14.732
40382SOL     OW22978   8.819   3.500   5.207
40382SOL    HW122979   8.897   3.539   5.168
40382SOL    HW222980   8.756   3.571   5.212
40383SOL     OW22981   2.130   7.998   9.022
40383SOL    HW122982   2.083   7.944   8.958
40383SOL    HW222983   2.094   8.086   9.009
40384SOL     OW22984   9.193  14.132   5.128
40384SOL    HW122985   9.169  14.147   5.036
40384SOL    HW222986   9.126  14.073   5.162
40385SOL     OW22987   9.710  14.319  11.294
40385SOL    HW122988   9.684  14.373  11.220
40385SOL    HW222989   9.797  14.351  11.318
40386SOL     OW22990  14.444  13.110   5.741
40386SOL    HW122991  14.484  13.049   5.679
40386SOL    HW222992  14.376  13.155   5.691
40387SOL     OW22993  13.148   2.185  13.623
40387SOL    HW122994  13.211   2.200  13.553
40387SOL    HW222995  13.065   2.169  13.577
40388SOL     OW22996   3.227   0.825  13.987
40388SOL    HW122997   3.232   0.744  14.038
40388SOL    HW222998   3.232   0.894  14.053
40389SOL     OW22999   9.170  14.043   6.864
40389SOL    HW123000   9.249  14.001   6.897
40389SOL    HW223001   9.123  13.974   6.818
40390SOL     OW23002   2.302   2.445   8.142
40390SOL    HW123003   2.335   2.369   8.190
40390SOL    HW223004   2.273   2.410   8.058
40391SOL     OW23005   2.299   2.069   7.659
40391SOL    HW123006   2.265   2.086   7.747
40391SOL    HW223007   2.395   2.070   7.670
40392SOL     OW23008  12.133   6.754   4.597
40392SOL    HW123009  12.102   6.825   4.654
40392SOL    HW223010  12.146   6.680   4.657
40393SOL     OW23011   7.595   5.677   0.661
40393SOL    HW123012   7.673   5.725   0.689
40393SOL    HW223013   7.523   5.738   0.674
40394SOL     OW23014   6.069  13.283   9.271
40394SOL    HW123015   6.156  13.285   9.309
40394SOL    HW223016   6.064  13.362   9.217
40395SOL     OW23017   9.204   6.241   3.835
40395SOL    HW123018   9.114   6.224   3.807
40395SOL    HW223019   9.258   6.206   3.763
40396SOL     OW23020   4.850   5.615   8.661
40396SOL    HW123021   4.903   5.688   8.690
40396SOL    HW223022   4.766   5.627   8.706
40397SOL     OW23023   9.121   3.019   1.636
40397SOL    HW123024   9.101   3.102   1.594
40397SOL    HW223025   9.165   2.968   1.568
40398SOL     OW23026   2.023   6.028   4.519
40398SOL    HW123027   2.007   5.947   4.471
40398SOL    HW223028   2.118   6.031   4.529
40399SOL     OW23029  13.525  14.777   3.674
40399SOL    HW123030  13.580  14.776   3.752
40399SOL    HW223031  13.549  14.698   3.627
40400SOL     OW23032   0.745   9.580   1.518
40400SOL    HW123033   0.726   9.497   1.561
40400SOL    HW223034   0.667   9.633   1.534
40401SOL     OW23035   4.711   1.343   8.652
40401SOL    HW123036   4.668   1.258   8.657
40401SOL    HW223037   4.758   1.342   8.568
40402SOL     OW23038   2.623   2.418   6.598
40402SOL    HW123039   2.696   2.431   6.659
40402SOL    HW223040   2.652   2.462   6.517
40403SOL     OW23041  12.079   9.660  14.583
40403SOL    HW123042  12.140   9.729  14.556
40403SOL    HW223043  12.064   9.609  14.504
40404SOL     OW23044  13.254   9.966   7.376
40404SOL    HW123045  13.300   9.884   7.358
40404SOL    HW223046  13.175   9.961   7.323
40405SOL     OW23047   8.451   1.601   9.057
40405SOL    HW123048   8.504   1.529   9.090
40405SOL    HW223049   8.435   1.656   9.134
40406SOL     OW23050  12.551  13.176  14.808
40406SOL    HW123051  12.610  13.194   0.002
40406SOL    HW223052  12.606  13.135  14.742
40407SOL     OW23053   5.584  11.172  10.401
40407SOL    HW123054   5.521  11.192  10.332
40407SOL    HW223055   5.659  11.133  10.356
40408SOL     OW23056  11.505   4.928   3.340
40408SOL    HW123057  11.454   4.915   3.421
40408SOL    HW223058  11.506   5.023   3.328
40409SOL     OW23059  13.857   2.123   2.397
40409SOL    HW123060  13.922   2.088   2.458
40409SOL    HW223061  13.800   2.050   2.376
40410SOL     OW23062   5.712   8.464  14.672
40410SOL    HW123063   5.750   8.486  14.587
40410SOL    HW223064   5.731   8.540  14.728
40411SOL     OW23065   0.159   0.753  11.788
40411SOL    HW123066   0.135   0.737  11.697
40411SOL    HW223067   0.076   0.758  11.834
40412SOL     OW23068  10.474   9.678  13.776
40412SOL    HW123069  10.462   9.584  13.793
40412SOL    HW223070  10.424   9.693  13.695
40413SOL     OW23071  12.464   4.653   3.066
40413SOL    HW123072  12.385   4.692   3.104
40413SOL    HW223073  12.536   4.689   3.118
40414SOL     OW23074   8.801   8.900   8.438
40414SOL    HW123075   8.854   8.851   8.501
40414SOL    HW223076   8.783   8.837   8.368
40415SOL     OW23077   6.044   5.354  10.449
40415SOL    HW123078   6.068   5.269  10.413
40415SOL    HW223079   5.972   5.385  10.394
40416SOL     OW23080   1.379  11.276   4.002
40416SOL    HW123081   1.411  11.323   3.925
40416SOL    HW223082   1.337  11.198   3.966
40417SOL     OW23083   7.964   5.404   9.907
40417SOL    HW123084   8.032   5.341   9.883
40417SOL    HW223085   7.974   5.475   9.844
40418SOL     OW23086  10.742   2.281  14.343
40418SOL    HW123087  10.696   2.348  14.392
40418SOL    HW223088  10.821   2.325  14.311
40419SOL     OW23089  10.728   7.709   7.024
40419SOL    HW123090  10.735   7.675   6.935
40419SOL    HW223091  10.684   7.639   7.072
40420SOL     OW23092   9.092   5.060  13.750
40420SOL    HW123093   9.176   5.086  13.712
40420SOL    HW223094   9.032   5.055  13.675
40421SOL     OW23095  12.638   2.679   0.804
40421SOL    HW123096  12.569   2.718   0.858
40421SOL    HW223097  12.662   2.598   0.849
40422SOL     OW23098   8.754   8.982   0.015
40422SOL    HW123099   8.846   8.997  14.874
40422SOL    HW223100   8.720   8.937  14.816
40423SOL     OW23101   5.247   5.477   2.633
40423SOL    HW123102   5.226   5.385   2.652
40423SOL    HW223103   5.162   5.521   2.628
40424SOL     OW23104   9.898   9.393   5.936
40424SOL    HW123105   9.827   9.448   5.902
40424SOL    HW223106   9.854   9.315   5.969
40425SOL     OW23107   2.006   5.013   5.155
40425SOL    HW123108   2.046   5.086   5.203
40425SOL    HW223109   1.980   4.952   5.224
40426SOL     OW23110   7.398   0.826   6.884
40426SOL    HW123111   7.380   0.890   6.953
40426SOL    HW223112   7.461   0.765   6.923
40427SOL     OW23113   8.123   9.179   6.239
40427SOL    HW123114   8.048   9.120   6.235
40427SOL    HW223115   8.184   9.136   6.300
40428SOL     OW23116  11.282   2.843  14.822
40428SOL    HW123117  11.337   2.920  14.832
40428SOL    HW223118  11.199   2.877  14.789
40429SOL     OW23119  12.687   5.078   8.714
40429SOL    HW123120  12.676   5.141   8.785
40429SOL    HW223121  12.690   4.993   8.757
40430SOL     OW23122   6.597   8.577   9.196
40430SOL    HW123123   6.605   8.489   9.159
40430SOL    HW223124   6.685   8.614   9.190
40431SOL     OW23125   3.817  12.997  14.102
40431SOL    HW123126   3.805  13.050  14.181
40431SOL    HW223127   3.746  12.934  14.104
40432SOL     OW23128  12.932  14.138   1.187
40432SOL    HW123129  12.999  14.096   1.241
40432SOL    HW223130  12.900  14.068   1.130
40433SOL     OW23131   6.940   0.023   3.851
40433SOL    HW123132   6.875  14.845   3.892
40433SOL    HW223133   6.947  14.870   3.761
40434SOL     OW23134   6.148   5.169  14.328
40434SOL    HW123135   6.229   5.212  14.356
40434SOL    HW223136   6.091   5.174  14.405
40435SOL     OW23137   7.908   8.790  13.834
40435SOL    HW123138   7.940   8.820  13.919
40435SOL    HW223139   7.815   8.813  13.833
40436SOL     OW23140   9.676   2.792   0.056
40436SOL    HW123141   9.696   2.773  14.843
40436SOL    HW223142   9.600   2.850   0.052
40437SOL     OW23143  14.106   4.368   2.284
40437SOL    HW123144  14.063   4.379   2.369
40437SOL    HW223145  14.136   4.278   2.284
40438SOL     OW23146  12.319   5.917   7.876
40438SOL    HW123147  12.346   5.849   7.815
40438SOL    HW223148  12.362   5.893   7.959
40439SOL     OW23149  13.752   3.646   8.779
40439SOL    HW123150  13.690   3.677   8.714
40439SOL    HW223151  13.700   3.633   8.858
40440SOL     OW23152   3.310   3.174   4.202
40440SOL    HW123153   3.284   3.088   4.237
40440SOL    HW223154   3.286   3.170   4.110
40441SOL     OW23155  11.865   1.538   2.409
40441SOL    HW123156  11.923   1.516   2.482
40441SOL    HW223157  11.790   1.481   2.420
40442SOL     OW23158   9.678   0.435   6.691
40442SOL    HW123159   9.653   0.351   6.652
40442SOL    HW223160   9.642   0.500   6.630
40443SOL     OW23161   6.634   8.486   2.308
40443SOL    HW123162   6.558   8.431   2.291
40443SOL    HW223163   6.632   8.552   2.239
40444SOL     OW23164  13.843  11.541   6.479
40444SOL    HW123165  13.874  11.536   6.388
40444SOL    HW223166  13.890  11.616   6.516
40445SOL     OW23167   0.987   0.180  14.347
40445SOL    HW123168   1.008   0.106  14.289
40445SOL    HW223169   0.960   0.250  14.288
40446SOL     OW23170  14.597  14.407   0.651
40446SOL    HW123171  14.598  14.427   0.557
40446SOL    HW223172  14.637  14.484   0.692
40447SOL     OW23173   3.993   4.997   4.140
40447SOL    HW123174   4.011   5.062   4.208
40447SOL    HW223175   4.021   4.914   4.179
40448SOL     OW23176   1.036  12.043   5.678
40448SOL    HW123177   1.038  12.090   5.595
40448SOL    HW223178   1.086  11.963   5.662
40449SOL     OW23179   9.960  14.802   5.956
40449SOL    HW123180   9.877  14.841   5.983
40449SOL    HW223181   9.943  14.708   5.954
40450SOL     OW23182  12.792   5.692  14.180
40450SOL    HW123183  12.734   5.628  14.138
40450SOL    HW223184  12.868   5.641  14.207
40451SOL     OW23185   3.824   7.351   8.789
40451SOL    HW123186   3.794   7.334   8.700
40451SOL    HW223187   3.917   7.328   8.788
40452SOL     OW23188   2.559   6.386   5.510
40452SOL    HW123189   2.527   6.381   5.421
40452SOL    HW223190   2.483   6.370   5.565
40453SOL     OW23191   5.987   7.523  14.542
40453SOL    HW123192   6.046   7.481  14.604
40453SOL    HW223193   6.038   7.596  14.505
40454SOL     OW23194  12.475   2.231  10.572
40454SOL    HW123195  12.568   2.213  10.565
40454SOL    HW223196  12.438   2.152  10.613
40455SOL     OW23197   1.256   1.407   7.752
40455SOL    HW123198   1.287   1.497   7.760
40455SOL    HW223199   1.324   1.363   7.700
40456SOL     OW23200  14.824   9.691   3.915
40456SOL    HW123201   0.030   9.668   3.878
40456SOL    HW223202  14.842   9.766   3.972
40457SOL     OW23203  14.805  12.040   0.884
40457SOL    HW123204  14.766  12.119   0.848
40457SOL    HW223205  14.756  11.968   0.843
40458SOL     OW23206  14.325  12.509   9.513
40458SOL    HW123207  14.254  12.462   9.558
40458SOL    HW223208  14.399  12.448   9.517
40459SOL     OW23209   4.782   6.926  14.450
40459SOL    HW123210   4.834   6.883  14.518
40459SOL    HW223211   4.769   7.016  14.483
40460SOL     OW23212   4.453   9.452   4.851
40460SOL    HW123213   4.390   9.388   4.818
40460SOL    HW223214   4.525   9.400   4.886
40461SOL     OW23215   9.484  11.039   3.300
40461SOL    HW123216   9.401  11.075   3.333
40461SOL    HW223217   9.478  11.047   3.205
40462SOL     OW23218   7.623  11.212   5.699
40462SOL    HW123219   7.575  11.194   5.618
40462SOL    HW223220   7.662  11.299   5.686
40463SOL     OW23221   5.894   1.399  13.331
40463SOL    HW123222   5.864   1.473  13.279
40463SOL    HW223223   5.815   1.346  13.344
40464SOL     OW23224   0.576   5.663   1.665
40464SOL    HW123225   0.488   5.698   1.654
40464SOL    HW223226   0.631   5.719   1.611
40465SOL     OW23227   6.272   0.704   9.641
40465SOL    HW123228   6.243   0.762   9.571
40465SOL    HW223229   6.240   0.618   9.616
40466SOL     OW23230  11.205   5.074   1.779
40466SOL    HW123231  11.264   5.130   1.729
40466SOL    HW223232  11.227   5.092   1.871
40467SOL     OW23233   4.701   3.680  12.498
40467SOL    HW123234   4.722   3.773  12.494
40467SOL    HW223235   4.744   3.649  12.578
40468SOL     OW23236   7.304   5.740  12.490
40468SOL    HW123237   7.335   5.659  12.452
40468SOL    HW223238   7.289   5.798  12.414
40469SOL     OW23239   9.391  11.369   9.069
40469SOL    HW123240   9.451  11.345   9.139
40469SOL    HW223241   9.334  11.293   9.059
40470SOL     OW23242   4.493  10.489  13.021
40470SOL    HW123243   4.527  10.435  12.949
40470SOL    HW223244   4.398  10.481  13.013
40471SOL     OW23245  13.094   1.702   2.484
40471SOL    HW123246  13.170   1.752   2.453
40471SOL    HW223247  13.023   1.728   2.425
40472SOL     OW23248   9.703  13.043   7.331
40472SOL    HW123249   9.742  12.964   7.369
40472SOL    HW223250   9.748  13.053   7.247
40473SOL     OW23251   0.139   5.819  14.033
40473SOL    HW123252   0.151   5.841  14.125
40473SOL    HW223253   0.049   5.847  14.013
40474SOL     OW23254  10.581   4.745   7.640
40474SOL    HW123255  10.644   4.816   7.645
40474SOL    HW223256  10.536   4.758   7.556
40475SOL     OW23257   2.930   0.734  10.769
40475SOL    HW123258   2.870   0.768  10.701
40475SOL    HW223259   3.007   0.790  10.762
40476SOL     OW23260   0.731   6.816   7.943
40476SOL    HW123261   0.765   6.767   8.017
40476SOL    HW223262   0.658   6.867   7.978
40477SOL     OW23263  10.668   4.225   8.828
40477SOL    HW123264  10.657   4.134   8.856
40477SOL    HW223265  10.705   4.270   8.904
40478SOL     OW23266   8.517   2.997   7.697
40478SOL    HW123267   8.440   2.948   7.670
40478SOL    HW223268   8.590   2.935   7.690
40479SOL     OW23269   5.348   5.115  11.090
40479SOL    HW123270   5.332   5.026  11.058
40479SOL    HW223271   5.370   5.165  11.012
40480SOL     OW23272   6.420  14.285  12.259
40480SOL    HW123273   6.502  14.246  12.291
40480SOL    HW223274   6.351  14.239  12.308
40481SOL     OW23275  10.232  14.854   8.098
40481SOL    HW123276  10.202   0.046   8.155
40481SOL    HW223277  10.326  14.870   8.088
40482SOL     OW23278  10.046   7.408  14.033
40482SOL    HW123279  10.111   7.467  13.995
40482SOL    HW223280  10.081   7.385  14.119
40483SOL     OW23281   4.881  10.044  10.381
40483SOL    HW123282   4.809  10.022  10.321
40483SOL    HW223283   4.906  10.133  10.357
40484SOL     OW23284  14.535   3.268  10.480
40484SOL    HW123285  14.513   3.314  10.399
40484SOL    HW223286  14.544   3.338  10.545
40485SOL     OW23287   4.866   2.846   6.740
40485SOL    HW123288   4.863   2.940   6.760
40485SOL    HW223289   4.781   2.813   6.768
40486SOL     OW23290  12.533  13.106   9.361
40486SOL    HW123291  12.579  13.167   9.303
40486SOL    HW223292  12.440  13.121   9.343
40487SOL     OW23293   0.725   5.790   8.141
40487SOL    HW123294   0.794   5.853   8.120
40487SOL    HW223295   0.767   5.725   8.197
40488SOL     OW23296   3.515   9.564   4.074
40488SOL    HW123297   3.468   9.637   4.115
40488SOL    HW223298   3.607   9.578   4.099
40489SOL     OW23299  14.515  14.101   3.839
40489SOL    HW123300  14.536  14.121   3.931
40489SOL    HW223301  14.580  14.034   3.814
40490SOL     OW23302  12.361   3.744  11.533
40490SOL    HW123303  12.439   3.707  11.574
40490SOL    HW223304  12.294   3.740  11.601
40491SOL     OW23305  11.252  13.216  12.390
40491SOL    HW123306  11.312  13.265  12.333
40491SOL    HW223307  11.309  13.167  12.449
40492SOL     OW23308   7.532   5.954  11.090
40492SOL    HW123309   7.545   5.923  11.179
40492SOL    HW223310   7.455   5.905  11.059
40493SOL     OW23311   4.704   5.518  14.373
40493SOL    HW123312   4.772   5.489  14.434
40493SOL    HW223313   4.655   5.439  14.353
40494SOL     OW23314   8.046   2.035   0.565
40494SOL    HW123315   8.039   1.981   0.486
40494SOL    HW223316   7.967   2.013   0.615
40495SOL     OW23317   2.642  13.023   9.370
40495SOL    HW123318   2.635  12.937   9.330
40495SOL    HW223319   2.559  13.035   9.416
40496SOL     OW23320  11.536   6.088   0.092
40496SOL    HW123321  11.593   6.115   0.021
40496SOL    HW223322  11.596   6.064   0.163
40497SOL     OW23323  12.610  13.949   7.959
40497SOL    HW123324  12.629  13.867   7.914
40497SOL    HW223325  12.583  13.924   8.047
40498SOL     OW23326  11.233   3.600   9.901
40498SOL    HW123327  11.252   3.669   9.837
40498SOL    HW223328  11.169   3.543   9.857
40499SOL     OW23329   8.780   7.795   7.879
40499SOL    HW123330   8.757   7.883   7.849
40499SOL    HW223331   8.874   7.799   7.895
40500SOL     OW23332   1.907  12.952  11.331
40500SOL    HW123333   1.929  12.985  11.244
40500SOL    HW223334   1.990  12.950  11.377
40501SOL     OW23335   2.474   5.105   0.738
40501SOL    HW123336   2.541   5.163   0.704
40501SOL    HW223337   2.427   5.157   0.802
40502SOL     OW23338   4.556  11.233   7.387
40502SOL    HW123339   4.644  11.234   7.347
40502SOL    HW223340   4.508  11.168   7.337
40503SOL     OW23341   3.269  13.674  12.558
40503SOL    HW123342   3.184  13.716  12.560
40503SOL    HW223343   3.321  13.727  12.498
40504SOL     OW23344   0.220   9.749   5.614
40504SOL    HW123345   0.126   9.730   5.619
40504SOL    HW223346   0.226   9.844   5.614
40505SOL     OW23347   8.793   9.765   1.872
40505SOL    HW123348   8.865   9.702   1.862
40505SOL    HW223349   8.740   9.755   1.793
40506SOL     OW23350   1.574   6.137   0.337
40506SOL    HW123351   1.624   6.111   0.260
40506SOL    HW223352   1.634   6.126   0.410
40507SOL     OW23353   4.273   3.207   8.747
40507SOL    HW123354   4.249   3.134   8.690
40507SOL    HW223355   4.311   3.272   8.689
40508SOL     OW23356   8.325  13.726   2.784
40508SOL    HW123357   8.416  13.746   2.807
40508SOL    HW223358   8.292  13.674   2.858
40509SOL     OW23359  11.372   0.809   5.688
40509SOL    HW123360  11.316   0.817   5.611
40509SOL    HW223361  11.457   0.782   5.653
40510SOL     OW23362   7.173   3.926   7.307
40510SOL    HW123363   7.096   3.870   7.309
40510SOL    HW223364   7.210   3.920   7.395
40511SOL     OW23365   5.120  13.014   6.892
40511SOL    HW123366   5.129  13.102   6.929
40511SOL    HW223367   5.184  12.961   6.941
40512SOL     OW23368   7.765  11.901  14.546
40512SOL    HW123369   7.803  11.977  14.501
40512SOL    HW223370   7.733  11.845  14.475
40513SOL     OW23371  10.315   6.189  12.198
40513SOL    HW123372  10.284   6.205  12.109
40513SOL    HW223373  10.394   6.243  12.207
40514SOL     OW23374  12.611   1.498   5.683
40514SOL    HW123375  12.611   1.500   5.779
40514SOL    HW223376  12.643   1.585   5.658
40515SOL     OW23377   8.976   6.748   7.294
40515SOL    HW123378   9.039   6.754   7.222
40515SOL    HW223379   8.940   6.836   7.302
40516SOL     OW23380  11.817   5.914   4.402
40516SOL    HW123381  11.771   5.833   4.380
40516SOL    HW223382  11.779   5.941   4.486
40517SOL     OW23383   2.714  10.787   1.090
40517SOL    HW123384   2.736  10.813   1.001
40517SOL    HW223385   2.662  10.859   1.124
40518SOL     OW23386  10.080   4.995   4.349
40518SOL    HW123387  10.020   4.921   4.343
40518SOL    HW223388  10.077   5.021   4.441
40519SOL     OW23389   1.633   7.176  14.760
40519SOL    HW123390   1.700   7.184  14.693
40519SOL    HW223391   1.640   7.256  14.812
40520SOL     OW23392   0.757   1.946   8.581
40520SOL    HW123393   0.682   1.947   8.522
40520SOL    HW223394   0.754   1.860   8.622
40521SOL     OW23395   2.126   6.258  12.058
40521SOL    HW123396   2.131   6.231  11.966
40521SOL    HW223397   2.052   6.209  12.094
40522SOL     OW23398   8.391   3.558  10.215
40522SOL    HW123399   8.358   3.471  10.237
40522SOL    HW223400   8.465   3.572  10.274
40523SOL     OW23401   4.999   6.621   4.404
40523SOL    HW123402   5.026   6.626   4.313
40523SOL    HW223403   4.987   6.528   4.421
40524SOL     OW23404  14.336   0.573  13.237
40524SOL    HW123405  14.411   0.619  13.276
40524SOL    HW223406  14.364   0.482  13.232
40525SOL     OW23407   8.195   1.816  12.183
40525SOL    HW123408   8.114   1.867  12.175
40525SOL    HW223409   8.216   1.791  12.093
40526SOL     OW23410   4.345  12.705   1.236
40526SOL    HW123411   4.251  12.710   1.215
40526SOL    HW223412   4.388  12.737   1.157
40527SOL     OW23413  14.214  13.387  13.906
40527SOL    HW123414  14.253  13.390  13.994
40527SOL    HW223415  14.196  13.294  13.892
40528SOL     OW23416   9.099   6.292  14.347
40528SOL    HW123417   9.182   6.286  14.395
40528SOL    HW223418   9.080   6.202  14.320
40529SOL     OW23419  11.702   8.046   6.585
40529SOL    HW123420  11.616   8.005   6.576
40529SOL    HW223421  11.738   8.009   6.665
40530SOL     OW23422   3.202   3.033   2.999
40530SOL    HW123423   3.251   2.956   3.027
40530SOL    HW223424   3.243   3.060   2.916
40531SOL     OW23425   5.103   2.042   6.744
40531SOL    HW123426   5.161   2.085   6.681
40531SOL    HW223427   5.155   2.037   6.825
40532SOL     OW23428   7.102  12.442   7.599
40532SOL    HW123429   7.044  12.446   7.523
40532SOL    HW223430   7.186  12.412   7.564
40533SOL     OW23431   5.225  11.013   9.416
40533SOL    HW123432   5.239  10.943   9.353
40533SOL    HW223433   5.132  11.035   9.407
40534SOL     OW23434   8.076   4.547   1.803
40534SOL    HW123435   8.168   4.519   1.804
40534SOL    HW223436   8.076   4.624   1.746
40535SOL     OW23437   0.231   9.989   6.598
40535SOL    HW123438   0.219  10.062   6.659
40535SOL    HW223439   0.235  10.031   6.512
40536SOL     OW23440   4.384  14.259   2.526
40536SOL    HW123441   4.295  14.293   2.513
40536SOL    HW223442   4.410  14.227   2.440
40537SOL     OW23443  11.717   6.711  10.407
40537SOL    HW123444  11.710   6.629  10.455
40537SOL    HW223445  11.715   6.779  10.474
40538SOL     OW23446   2.641   0.369  13.020
40538SOL    HW123447   2.662   0.302  13.085
40538SOL    HW223448   2.678   0.450  13.057
40539SOL     OW23449   8.340  12.995   6.038
40539SOL    HW123450   8.386  13.079   6.038
40539SOL    HW223451   8.281  13.000   6.112
40540SOL     OW23452   7.257  14.583   7.970
40540SOL    HW123453   7.248  14.643   8.044
40540SOL    HW223454   7.346  14.597   7.938
40541SOL     OW23455   2.354   7.665   7.934
40541SOL    HW123456   2.357   7.736   7.870
40541SOL    HW223457   2.348   7.586   7.881
40542SOL     OW23458   0.661   1.094   7.384
40542SOL    HW123459   0.663   1.128   7.474
40542SOL    HW223460   0.576   1.051   7.376
40543SOL     OW23461  13.104  11.503   2.969
40543SOL    HW123462  13.133  11.492   2.879
40543SOL    HW223463  13.129  11.422   3.013
40544SOL     OW23464  11.346   2.508   9.782
40544SOL    HW123465  11.418   2.552   9.739
40544SOL    HW223466  11.286   2.578   9.808
40545SOL     OW23467   4.345   7.038  14.229
40545SOL    HW123468   4.353   7.007  14.139
40545SOL    HW223469   4.387   7.124  14.229
40546SOL     OW23470   5.430   9.824  10.927
40546SOL    HW123471   5.381   9.831  11.009
40546SOL    HW223472   5.520   9.811  10.955
40547SOL     OW23473   9.955   2.659   8.376
40547SOL    HW123474  10.001   2.670   8.459
40547SOL    HW223475   9.954   2.564   8.362
40548SOL     OW23476   7.162  10.346  10.131
40548SOL    HW123477   7.077  10.323  10.169
40548SOL    HW223478   7.141  10.405  10.058
40549SOL     OW23479   5.824   5.960   6.152
40549SOL    HW123480   5.742   5.927   6.189
40549SOL    HW223481   5.893   5.915   6.201
40550SOL     OW23482   0.959  10.101   4.401
40550SOL    HW123483   0.900  10.070   4.332
40550SOL    HW223484   1.019  10.028   4.415
40551SOL     OW23485  11.504  11.660  11.951
40551SOL    HW123486  11.508  11.748  11.914
40551SOL    HW223487  11.596  11.636  11.964
40552SOL     OW23488   2.336   2.084  10.140
40552SOL    HW123489   2.356   2.049  10.053
40552SOL    HW223490   2.241   2.087  10.144
40553SOL     OW23491   8.526   0.430   4.579
40553SOL    HW123492   8.505   0.457   4.669
40553SOL    HW223493   8.612   0.389   4.586
40554SOL     OW23494   1.121   1.084   8.740
40554SOL    HW123495   1.190   1.146   8.718
40554SOL    HW223496   1.081   1.062   8.656
40555SOL     OW23497  12.906  13.142   8.838
40555SOL    HW123498  12.996  13.136   8.869
40555SOL    HW223499  12.858  13.185   8.909
40556SOL     OW23500   5.919  11.471  10.463
40556SOL    HW123501   5.999  11.475  10.515
40556SOL    HW223502   5.889  11.562  10.459
40557SOL     OW23503   8.770   2.254   8.976
40557SOL    HW123504   8.810   2.339   8.994
40557SOL    HW223505   8.820   2.219   8.902
40558SOL     OW23506  14.699   2.373   9.905
40558SOL    HW123507  14.739   2.443   9.853
40558SOL    HW223508  14.616   2.410   9.934
40559SOL     OW23509   8.100   9.112   0.014
40559SOL    HW123510   8.070   9.023   0.030
40559SOL    HW223511   8.104   9.152   0.101
40560SOL     OW23512   4.063   5.277  10.484
40560SOL    HW123513   4.125   5.309  10.419
40560SOL    HW223514   4.073   5.182  10.483
40561SOL     OW23515  14.524  13.257   3.728
40561SOL    HW123516  14.493  13.167   3.729
40561SOL    HW223517  14.506  13.289   3.817
40562SOL     OW23518   6.776  12.572   6.245
40562SOL    HW123519   6.779  12.640   6.177
40562SOL    HW223520   6.846  12.597   6.306
40563SOL     OW23521  11.758   8.833   9.052
40563SOL    HW123522  11.677   8.850   9.100
40563SOL    HW223523  11.758   8.899   8.982
40564SOL     OW23524   7.024   1.378   2.781
40564SOL    HW123525   7.001   1.458   2.733
40564SOL    HW223526   6.968   1.311   2.743
40565SOL     OW23527   1.374  14.162   4.905
40565SOL    HW123528   1.429  14.084   4.893
40565SOL    HW223529   1.416  14.211   4.975
40566SOL     OW23530   0.025  10.312  10.810
40566SOL    HW123531   0.069  10.367  10.875
40566SOL    HW223532   0.063  10.338  10.726
40567SOL     OW23533   9.250  13.804   0.573
40567SOL    HW123534   9.177  13.767   0.622
40567SOL    HW223535   9.328  13.774   0.620
40568SOL     OW23536   3.828   7.347  10.048
40568SOL    HW123537   3.866   7.302   9.973
40568SOL    HW223538   3.862   7.299  10.124
40569SOL     OW23539  12.032   0.294   5.887
40569SOL    HW123540  11.963   0.230   5.872
40569SOL    HW223541  11.986   0.375   5.909
40570SOL     OW23542   8.503  11.557   7.090
40570SOL    HW123543   8.437  11.566   7.022
40570SOL    HW223544   8.469  11.489   7.148
40571SOL     OW23545   4.635  10.924   7.094
40571SOL    HW123546   4.602  10.936   7.004
40571SOL    HW223547   4.729  10.943   7.088
40572SOL     OW23548   6.700   5.238   1.121
40572SOL    HW123549   6.704   5.171   1.188
40572SOL    HW223550   6.722   5.193   1.039
40573SOL     OW23551   6.591   1.298   5.969
40573SOL    HW123552   6.541   1.351   5.906
40573SOL    HW223553   6.671   1.349   5.983
40574SOL     OW23554   2.631   4.205  12.820
40574SOL    HW123555   2.544   4.238  12.794
40574SOL    HW223556   2.635   4.116  12.785
40575SOL     OW23557   0.983   2.197   7.160
40575SOL    HW123558   0.895   2.159   7.164
40575SOL    HW223559   1.041   2.124   7.181
40576SOL     OW23560   3.632   8.865  14.325
40576SOL    HW123561   3.655   8.910  14.244
40576SOL    HW223562   3.670   8.777  14.315
40577SOL     OW23563  13.416  14.197   6.279
40577SOL    HW123564  13.383  14.178   6.191
40577SOL    HW223565  13.374  14.132   6.335
40578SOL     OW23566  14.809  14.818   2.801
40578SOL    HW123567  14.803   0.029   2.768
40578SOL    HW223568  14.877  14.778   2.749
40579SOL     OW23569  14.612   1.476  12.799
40579SOL    HW123570  14.613   1.511  12.889
40579SOL    HW223571  14.582   1.549  12.745
40580SOL     OW23572  13.959   0.665   1.892
40580SOL    HW123573  13.962   0.759   1.876
40580SOL    HW223574  13.958   0.626   1.805
40581SOL     OW23575   2.283   7.893   1.064
40581SOL    HW123576   2.354   7.957   1.054
40581SOL    HW223577   2.263   7.864   0.975
40582SOL     OW23578  12.512   4.720   6.382
40582SOL    HW123579  12.528   4.746   6.472
40582SOL    HW223580  12.568   4.644   6.368
40583SOL     OW23581   7.871   7.679  14.204
40583SOL    HW123582   7.898   7.601  14.156
40583SOL    HW223583   7.817   7.645  14.276
40584SOL     OW23584  13.410   4.974   8.081
40584SOL    HW123585  13.502   4.986   8.103
40584SOL    HW223586  13.365   4.974   8.166
40585SOL     OW23587   3.181  14.392   7.099
40585SOL    HW123588   3.142  14.384   7.012
40585SOL    HW223589   3.167  14.306   7.140
40586SOL     OW23590  13.293  12.920   7.727
40586SOL    HW123591  13.288  13.003   7.679
40586SOL    HW223592  13.235  12.933   7.802
40587SOL     OW23593   8.154   4.314   8.107
40587SOL    HW123594   8.246   4.334   8.090
40587SOL    HW223595   8.114   4.307   8.021
40588SOL     OW23596   1.423   2.482   8.928
40588SOL    HW123597   1.507   2.527   8.919
40588SOL    HW223598   1.360   2.540   8.884
40589SOL     OW23599  13.930   6.977   9.416
40589SOL    HW123600  13.949   7.061   9.374
40589SOL    HW223601  13.975   6.913   9.361
40590SOL     OW23602  10.835  11.082   5.160
40590SOL    HW123603  10.795  11.060   5.076
40590SOL    HW223604  10.920  11.038   5.159
40591SOL     OW23605   1.589  14.473  13.099
40591SOL    HW123606   1.616  14.383  13.116
40591SOL    HW223607   1.537  14.497  13.176
40592SOL     OW23608  11.513   7.466   9.352
40592SOL    HW123609  11.434   7.481   9.299
40592SOL    HW223610  11.582   7.513   9.306
40593SOL     OW23611  14.611   6.586   3.897
40593SOL    HW123612  14.605   6.671   3.855
40593SOL    HW223613  14.643   6.605   3.986
40594SOL     OW23614   5.015   7.303  11.595
40594SOL    HW123615   4.970   7.377  11.637
40594SOL    HW223616   5.100   7.339  11.568
40595SOL     OW23617   7.986  12.634   8.030
40595SOL    HW123618   7.951  12.704   8.085
40595SOL    HW223619   8.068  12.609   8.073
40596SOL     OW23620   6.688   0.413   6.949
40596SOL    HW123621   6.700   0.500   6.910
40596SOL    HW223622   6.614   0.423   7.008
40597SOL     OW23623   7.038   3.565   6.052
40597SOL    HW123624   7.090   3.645   6.051
40597SOL    HW223625   7.010   3.554   5.961
40598SOL     OW23626   1.364  11.938  10.770
40598SOL    HW123627   1.391  11.867  10.828
40598SOL    HW223628   1.269  11.925  10.758
40599SOL     OW23629  11.674  11.787   0.572
40599SOL    HW123630  11.626  11.714   0.535
40599SOL    HW223631  11.606  11.852   0.594
40600SOL     OW23632   8.070  11.974   2.389
40600SOL    HW123633   8.020  11.904   2.347
40600SOL    HW223634   8.005  12.038   2.417
40601SOL     OW23635   1.595  10.992   8.221
40601SOL    HW123636   1.687  11.015   8.235
40601SOL    HW223637   1.596  10.898   8.202
40602SOL     OW23638  11.603  14.562  13.126
40602SOL    HW123639  11.653  14.571  13.045
40602SOL    HW223640  11.538  14.632  13.122
40603SOL     OW23641   4.747   2.997   6.401
40603SOL    HW123642   4.747   3.075   6.345
40603SOL    HW223643   4.821   3.011   6.461
40604SOL     OW23644  13.218  10.097  13.523
40604SOL    HW123645  13.291  10.120  13.465
40604SOL    HW223646  13.176  10.181  13.541
40605SOL     OW23647  12.328   8.830   3.480
40605SOL    HW123648  12.367   8.777   3.550
40605SOL    HW223649  12.238   8.798   3.473
40606SOL     OW23650   8.677   8.412  13.083
40606SOL    HW123651   8.689   8.439  12.992
40606SOL    HW223652   8.593   8.450  13.108
40607SOL     OW23653   7.139  10.298   2.110
40607SOL    HW123654   7.072  10.229   2.102
40607SOL    HW223655   7.152  10.307   2.205
40608SOL     OW23656  11.446   5.916  10.866
40608SOL    HW123657  11.371   5.938  10.810
40608SOL    HW223658  11.461   5.994  10.918
40609SOL     OW23659  12.719   4.253  14.388
40609SOL    HW123660  12.662   4.230  14.315
40609SOL    HW223661  12.730   4.170  14.436
40610SOL     OW23662   0.365   6.030   6.440
40610SOL    HW123663   0.455   6.038   6.472
40610SOL    HW223664   0.332   5.950   6.481
40611SOL     OW23665   2.536   7.955  11.691
40611SOL    HW123666   2.592   7.891  11.647
40611SOL    HW223667   2.447   7.922  11.678
40612SOL     OW23668   6.299   9.821  12.754
40612SOL    HW123669   6.296   9.911  12.720
40612SOL    HW223670   6.354   9.827  12.832
40613SOL     OW23671  13.980   8.763  13.742
40613SOL    HW123672  13.962   8.719  13.659
40613SOL    HW223673  13.893   8.784  13.777
40614SOL     OW23674   4.291  13.658   2.309
40614SOL    HW123675   4.227  13.702   2.254
40614SOL    HW223676   4.346  13.609   2.248
40615SOL     OW23677  10.391   2.545  11.188
40615SOL    HW123678  10.429   2.618  11.237
40615SOL    HW223679  10.462   2.481  11.180
40616SOL     OW23680   6.132  11.268   3.094
40616SOL    HW123681   6.044  11.307   3.090
40616SOL    HW223682   6.160  11.285   3.184
40617SOL     OW23683   3.447  11.798   4.126
40617SOL    HW123684   3.429  11.841   4.042
40617SOL    HW223685   3.384  11.726   4.130
40618SOL     OW23686   2.132   1.040   2.698
40618SOL    HW123687   2.120   1.122   2.746
40618SOL    HW223688   2.044   1.002   2.693
40619SOL     OW23689  14.209   2.424  14.748
40619SOL    HW123690  14.299   2.432  14.780
40619SOL    HW223691  14.169   2.360  14.806
40620SOL     OW23692  14.464   2.792   0.680
40620SOL    HW123693  14.431   2.848   0.751
40620SOL    HW223694  14.530   2.846   0.636
40621SOL     OW23695   9.424  11.793  11.502
40621SOL    HW123696   9.359  11.849  11.545
40621SOL    HW223697   9.414  11.708  11.543
40622SOL     OW23698   4.069  14.167   4.335
40622SOL    HW123699   4.005  14.119   4.388
40622SOL    HW223700   4.017  14.233   4.289
40623SOL     OW23701   5.923   5.235   1.577
40623SOL    HW123702   5.978   5.271   1.647
40623SOL    HW223703   5.986   5.204   1.511
40624SOL     OW23704   5.586  11.910   1.242
40624SOL    HW123705   5.601  11.995   1.200
40624SOL    HW223706   5.669  11.891   1.286
40625SOL     OW23707   5.290   3.829   4.981
40625SOL    HW123708   5.205   3.871   4.967
40625SOL    HW223709   5.285   3.796   5.071
40626SOL     OW23710   5.092   8.554  11.321
40626SOL    HW123711   5.016   8.512  11.281
40626SOL    HW223712   5.156   8.559  11.250
40627SOL     OW23713   7.304  12.349   9.189
40627SOL    HW123714   7.265  12.335   9.103
40627SOL    HW223715   7.230  12.373   9.245
40628SOL     OW23716   7.113  10.010   5.801
40628SOL    HW123717   7.034   9.974   5.841
40628SOL    HW223718   7.181   9.999   5.867
40629SOL     OW23719  14.866   1.567   4.342
40629SOL    HW123720  14.874   1.485   4.391
40629SOL    HW223721   0.076   1.588   4.315
40630SOL     OW23722  10.923  10.168  11.367
40630SOL    HW123723  10.916  10.126  11.453
40630SOL    HW223724  11.007  10.138  11.332
40631SOL     OW23725   3.467   2.778   5.799
40631SOL    HW123726   3.458   2.844   5.730
40631SOL    HW223727   3.526   2.818   5.863
40632SOL     OW23728   4.601  14.146  11.700
40632SOL    HW123729   4.541  14.154  11.626
40632SOL    HW223730   4.544  14.151  11.778
40633SOL     OW23731   2.373  14.841   3.042
40633SOL    HW123732   2.345  14.785   2.970
40633SOL    HW223733   2.291  14.871   3.082
40634SOL     OW23734   3.835   6.939   1.086
40634SOL    HW123735   3.824   6.844   1.093
40634SOL    HW223736   3.805   6.973   1.171
40635SOL     OW23737   2.132  10.259   8.347
40635SOL    HW123738   2.148  10.253   8.441
40635SOL    HW223739   2.220  10.261   8.308
40636SOL     OW23740   5.851  13.808   4.909
40636SOL    HW123741   5.827  13.886   4.859
40636SOL    HW223742   5.774  13.790   4.963
40637SOL     OW23743   3.010   3.422  12.528
40637SOL    HW123744   3.035   3.484  12.597
40637SOL    HW223745   2.999   3.476  12.450
40638SOL     OW23746   8.952  11.823   7.811
40638SOL    HW123747   8.904  11.748   7.775
40638SOL    HW223748   9.041  11.811   7.778
40639SOL     OW23749  11.674  12.454  13.457
40639SOL    HW123750  11.679  12.374  13.406
40639SOL    HW223751  11.672  12.524  13.392
40640SOL     OW23752   7.536   8.185   2.422
40640SOL    HW123753   7.486   8.117   2.376
40640SOL    HW223754   7.560   8.145   2.506
40641SOL     OW23755   5.289   4.415  13.617
40641SOL    HW123756   5.344   4.438  13.542
40641SOL    HW223757   5.206   4.460  13.601
40642SOL     OW23758   4.479   3.529  13.622
40642SOL    HW123759   4.459   3.617  13.591
40642SOL    HW223760   4.573   3.520  13.608
40643SOL     OW23761  10.055   5.477   0.979
40643SOL    HW123762  10.019   5.526   0.905
40643SOL    HW223763  10.147   5.463   0.956
40644SOL     OW23764  13.182  14.448   6.633
40644SOL    HW123765  13.221  14.380   6.577
40644SOL    HW223766  13.255  14.481   6.685
40645SOL     OW23767   4.832   4.041   3.521
40645SOL    HW123768   4.819   3.949   3.545
40645SOL    HW223769   4.810   4.045   3.429
40646SOL     OW23770   8.812   1.809   1.182
40646SOL    HW123771   8.905   1.818   1.205
40646SOL    HW223772   8.786   1.895   1.151
40647SOL     OW23773   6.613   1.332   4.794
40647SOL    HW123774   6.598   1.391   4.720
40647SOL    HW223775   6.619   1.390   4.870
40648SOL     OW23776   4.564   5.712   4.623
40648SOL    HW123777   4.611   5.724   4.705
40648SOL    HW223778   4.627   5.735   4.555
40649SOL     OW23779  13.959  11.025  10.348
40649SOL    HW123780  14.020  11.066  10.287
40649SOL    HW223781  13.899  11.095  10.374
40650SOL     OW23782   6.493   1.059   6.397
40650SOL    HW123783   6.419   1.110   6.431
40650SOL    HW223784   6.530   1.115   6.329
40651SOL     OW23785   0.636   1.837  10.605
40651SOL    HW123786   0.683   1.921  10.613
40651SOL    HW223787   0.618   1.829  10.511
40652SOL     OW23788   0.017   7.458   2.266
40652SOL    HW123789   0.105   7.447   2.231
40652SOL    HW223790   0.026   7.523   2.335
40653SOL     OW23791  12.689   8.736  14.255
40653SOL    HW123792  12.735   8.667  14.208
40653SOL    HW223793  12.713   8.723  14.347
40654SOL     OW23794   9.040  13.752  14.437
40654SOL    HW123795   8.967  13.784  14.385
40654SOL    HW223796   9.104  13.720  14.372
40655SOL     OW23797   1.097   1.973   4.887
40655SOL    HW123798   1.155   2.018   4.826
40655SOL    HW223799   1.137   1.986   4.973
40656SOL     OW23800  10.248  14.682   5.781
40656SOL    HW123801  10.206  14.638   5.707
40656SOL    HW223802  10.210  14.770   5.780
40657SOL     OW23803   8.620   4.476   1.821
40657SOL    HW123804   8.701   4.503   1.776
40657SOL    HW223805   8.611   4.383   1.802
40658SOL     OW23806   6.710   7.962   1.243
40658SOL    HW123807   6.710   7.869   1.221
40658SOL    HW223808   6.768   7.968   1.319
40659SOL     OW23809   0.631  10.054   3.956
40659SOL    HW123810   0.626  10.083   3.865
40659SOL    HW223811   0.555  10.096   3.998
40660SOL     OW23812  10.703   5.128   3.102
40660SOL    HW123813  10.672   5.192   3.167
40660SOL    HW223814  10.793   5.109   3.127
40661SOL     OW23815   1.680   0.698   0.502
40661SOL    HW123816   1.761   0.741   0.530
40661SOL    HW223817   1.610   0.754   0.537
40662SOL     OW23818   0.086  13.908  11.577
40662SOL    HW123819   0.083  13.813  11.587
40662SOL    HW223820   0.095  13.942  11.666
40663SOL     OW23821   1.594  13.907  11.545
40663SOL    HW123822   1.676  13.919  11.497
40663SOL    HW223823   1.618  13.916  11.637
40664SOL     OW23824  13.393   1.138   8.517
40664SOL    HW123825  13.478   1.178   8.537
40664SOL    HW223826  13.391   1.059   8.572
40665SOL     OW23827  14.105   4.134  12.665
40665SOL    HW123828  14.139   4.174  12.584
40665SOL    HW223829  14.014   4.162  12.670
40666SOL     OW23830  10.881   8.552   6.294
40666SOL    HW123831  10.903   8.577   6.205
40666SOL    HW223832  10.915   8.463   6.303
40667SOL     OW23833   2.687   2.327   7.111
40667SOL    HW123834   2.626   2.346   7.182
40667SOL    HW223835   2.631   2.319   7.033
40668SOL     OW23836  11.778   2.077   4.464
40668SOL    HW123837  11.725   2.065   4.385
40668SOL    HW223838  11.800   1.988   4.491
40669SOL     OW23839   7.245   6.483  12.539
40669SOL    HW123840   7.338   6.476  12.518
40669SOL    HW223841   7.230   6.577  12.550
40670SOL     OW23842  14.207  11.444  12.666
40670SOL    HW123843  14.263  11.452  12.743
40670SOL    HW223844  14.238  11.364  12.623
40671SOL     OW23845   6.904  10.404   1.660
40671SOL    HW123846   6.932  10.403   1.752
40671SOL    HW223847   6.952  10.477   1.621
40672SOL     OW23848   6.684  12.609   4.670
40672SOL    HW123849   6.686  12.568   4.584
40672SOL    HW223850   6.692  12.703   4.653
40673SOL     OW23851   3.532   0.064   5.185
40673SOL    HW123852   3.566   0.040   5.099
40673SOL    HW223853   3.446   0.101   5.167
40674SOL     OW23854   9.353   1.421  14.438
40674SOL    HW123855   9.372   1.514  14.425
40674SOL    HW223856   9.438   1.380  14.450
40675SOL     OW23857  12.486   4.158  14.245
40675SOL    HW123858  12.429   4.231  14.220
40675SOL    HW223859  12.457   4.134  14.333
40676SOL     OW23860   5.245  12.789   6.427
40676SOL    HW123861   5.258  12.717   6.366
40676SOL    HW223862   5.212  12.747   6.507
40677SOL     OW23863  11.302   3.781   8.582
40677SOL    HW123864  11.265   3.725   8.650
40677SOL    HW223865  11.393   3.793   8.606
40678SOL     OW23866   7.833   5.469  11.500
40678SOL    HW123867   7.896   5.518  11.448
40678SOL    HW223868   7.832   5.513  11.585
40679SOL     OW23869  12.894   7.891   9.211
40679SOL    HW123870  12.914   7.906   9.118
40679SOL    HW223871  12.978   7.868   9.250
40680SOL     OW23872   4.920  11.374  14.328
40680SOL    HW123873   4.972  11.352  14.405
40680SOL    HW223874   4.860  11.301  14.318
40681SOL     OW23875   0.102   8.678  13.699
40681SOL    HW123876   0.178   8.623  13.720
40681SOL    HW223877   0.027   8.626  13.726
40682SOL     OW23878   9.712  14.868   4.692
40682SOL    HW123879   9.802   0.005   4.721
40682SOL    HW223880   9.658   0.039   4.754
40683SOL     OW23881  11.736   2.167   2.242
40683SOL    HW123882  11.753   2.112   2.318
40683SOL    HW223883  11.716   2.105   2.171
40684SOL     OW23884   3.814   2.936   2.045
40684SOL    HW123885   3.795   2.867   1.982
40684SOL    HW223886   3.905   2.920   2.072
40685SOL     OW23887  14.049  12.013   9.891
40685SOL    HW123888  13.955  12.006   9.905
40685SOL    HW223889  14.074  12.093   9.937
40686SOL     OW23890   3.556   7.925   5.846
40686SOL    HW123891   3.645   7.898   5.822
40686SOL    HW223892   3.500   7.883   5.781
40687SOL     OW23893   4.865  12.559   0.860
40687SOL    HW123894   4.817  12.476   0.860
40687SOL    HW223895   4.933  12.547   0.927
40688SOL     OW23896  11.054   6.923  10.874
40688SOL    HW123897  11.034   6.886  10.788
40688SOL    HW223898  11.003   6.869  10.935
40689SOL     OW23899   5.720  10.350  12.410
40689SOL    HW123900   5.626  10.334  12.398
40689SOL    HW223901   5.762  10.267  12.389
40690SOL     OW23902  12.095   1.388  10.965
40690SOL    HW123903  12.033   1.422  10.899
40690SOL    HW223904  12.180   1.421  10.937
40691SOL     OW23905   3.623   4.695   1.022
40691SOL    HW123906   3.696   4.756   1.012
40691SOL    HW223907   3.647   4.640   1.096
40692SOL     OW23908   3.227   1.888  10.628
40692SOL    HW123909   3.227   1.973  10.584
40692SOL    HW223910   3.141   1.884  10.672
40693SOL     OW23911   4.866   1.166   1.140
40693SOL    HW123912   4.834   1.218   1.213
40693SOL    HW223913   4.787   1.131   1.099
40694SOL     OW23914   5.640   6.837   3.816
40694SOL    HW123915   5.680   6.756   3.785
40694SOL    HW223916   5.621   6.887   3.737
40695SOL     OW23917   3.007   4.232   8.200
40695SOL    HW123918   3.047   4.215   8.285
40695SOL    HW223919   3.046   4.168   8.141
40696SOL     OW23920   2.920  13.549   3.346
40696SOL    HW123921   2.985  13.480   3.337
40696SOL    HW223922   2.847  13.521   3.291
40697SOL     OW23923   0.970   2.320  13.376
40697SOL    HW123924   0.976   2.244  13.318
40697SOL    HW223925   1.054   2.364  13.366
40698SOL     OW23926  12.277   1.603   4.092
40698SOL    HW123927  12.229   1.546   4.032
40698SOL    HW223928  12.277   1.689   4.049
40699SOL     OW23929  14.543   7.247  10.784
40699SOL    HW123930  14.546   7.306  10.859
40699SOL    HW223931  14.568   7.301  10.709
40700SOL     OW23932  10.028   1.503   3.959
40700SOL    HW123933   9.960   1.437   3.949
40700SOL    HW223934  10.087   1.489   3.885
40701SOL     OW23935   4.639   4.535  10.512
40701SOL    HW123936   4.641   4.616  10.461
40701SOL    HW223937   4.681   4.557  10.595
40702SOL     OW23938   8.706   4.231  10.533
40702SOL    HW123939   8.618   4.243  10.568
40702SOL    HW223940   8.739   4.152  10.576
40703SOL     OW23941   5.402   8.631   3.559
40703SOL    HW123942   5.397   8.698   3.627
40703SOL    HW223943   5.419   8.549   3.606
40704SOL     OW23944  10.910   5.644   8.012
40704SOL    HW123945  10.837   5.665   8.070
40704SOL    HW223946  10.987   5.679   8.056
40705SOL     OW23947  12.344  11.167   9.454
40705SOL    HW123948  12.426  11.126   9.424
40705SOL    HW223949  12.312  11.214   9.378
40706SOL     OW23950   8.539   1.087   5.006
40706SOL    HW123951   8.455   1.118   5.040
40706SOL    HW223952   8.516   1.033   4.930
40707SOL     OW23953  10.468  12.483  13.838
40707SOL    HW123954  10.403  12.417  13.813
40707SOL    HW223955  10.441  12.511  13.925
40708SOL     OW23956   2.085  10.742   1.789
40708SOL    HW123957   2.075  10.825   1.836
40708SOL    HW223958   2.156  10.757   1.728
40709SOL     OW23959   0.450   3.968  11.223
40709SOL    HW123960   0.457   4.063  11.226
40709SOL    HW223961   0.371   3.948  11.274
40710SOL     OW23962   3.259   1.798  14.871
40710SOL    HW123963   3.195   1.811  14.801
40710SOL    HW223964   3.240   1.868   0.055
40711SOL     OW23965   3.626  10.160   4.803
40711SOL    HW123966   3.588  10.113   4.877
40711SOL    HW223967   3.706  10.112   4.781
40712SOL     OW23968  10.717   3.356  11.605
40712SOL    HW123969  10.677   3.304  11.536
40712SOL    HW223970  10.755   3.291  11.665
40713SOL     OW23971  11.634  14.510  10.252
40713SOL    HW123972  11.680  14.505  10.168
40713SOL    HW223973  11.543  14.489  10.231
40714SOL     OW23974  12.250  11.143   2.884
40714SOL    HW123975  12.158  11.134   2.910
40714SOL    HW223976  12.254  11.105   2.797
40715SOL     OW23977  14.561   3.181   0.141
40715SOL    HW123978  14.643   3.187   0.190
40715SOL    HW223979  14.576   3.108   0.080
40716SOL     OW23980  13.137   3.132   4.272
40716SOL    HW123981  13.194   3.189   4.324
40716SOL    HW223982  13.175   3.045   4.282
40717SOL     OW23983  13.343   3.235   4.472
40717SOL    HW123984  13.309   3.171   4.534
40717SOL    HW223985  13.438   3.224   4.477
40718SOL     OW23986   9.219  10.165   2.343
40718SOL    HW123987   9.182  10.144   2.257
40718SOL    HW223988   9.194  10.256   2.358
40719SOL     OW23989  12.463   6.731  14.854
40719SOL    HW123990  12.451   6.825  14.840
40719SOL    HW223991  12.431   6.716   0.064
40720SOL     OW23992  12.951  14.686   4.147
40720SOL    HW123993  12.856  14.682   4.161
40720SOL    HW223994  12.967  14.624   4.076
40721SOL     OW23995   5.778   2.690   7.224
40721SOL    HW123996   5.688   2.694   7.192
40721SOL    HW223997   5.821   2.626   7.168
40722SOL     OW23998  11.546   7.931   2.319
40722SOL    HW123999  11.565   7.850   2.272
40722SOL    HW224000  11.478   7.973   2.267
40723SOL     OW24001   8.554   6.787  12.959
40723SOL    HW124002   8.502   6.804  12.881
40723SOL    HW224003   8.615   6.861  12.964
40724SOL     OW24004   7.166  10.569  11.445
40724SOL    HW124005   7.090  10.614  11.409
40724SOL    HW224006   7.134  10.531  11.527
40725SOL     OW24007   8.749   9.829   0.171
40725SOL    HW124008   8.774   9.882   0.247
40725SOL    HW224009   8.814   9.851   0.104
40726SOL     OW24010  14.634   1.174   4.011
40726SOL    HW124011  14.634   1.264   4.043
40726SOL    HW224012  14.559   1.133   4.054
40727SOL     OW24013   6.571   3.244   9.523
40727SOL    HW124014   6.576   3.333   9.558
40727SOL    HW224015   6.550   3.256   9.430
40728SOL     OW24016  10.787   2.091   0.851
40728SOL    HW124017  10.854   2.037   0.809
40728SOL    HW224018  10.707   2.073   0.802
40729SOL     OW24019  12.300   8.175  14.676
40729SOL    HW124020  12.345   8.103  14.721
40729SOL    HW224021  12.211   8.174  14.712
40730SOL     OW24022   4.645   1.543   9.353
40730SOL    HW124023   4.566   1.589   9.383
40730SOL    HW224024   4.715   1.578   9.408
40731SOL     OW24025   6.888   5.108   7.998
40731SOL    HW124026   6.822   5.161   8.043
40731SOL    HW224027   6.838   5.052   7.939
40732SOL     OW24028  14.213   7.571   8.614
40732SOL    HW124029  14.304   7.554   8.589
40732SOL    HW224030  14.180   7.629   8.545
40733SOL     OW24031   4.236   1.616   7.249
40733SOL    HW124032   4.269   1.529   7.226
40733SOL    HW224033   4.141   1.605   7.252
40734SOL     OW24034   3.566   7.067   7.205
40734SOL    HW124035   3.524   7.052   7.121
40734SOL    HW224036   3.632   6.997   7.211
40735SOL     OW24037   1.373  12.452   4.280
40735SOL    HW124038   1.430  12.452   4.203
40735SOL    HW224039   1.358  12.545   4.298
40736SOL     OW24040   7.690  14.816   5.490
40736SOL    HW124041   7.647  14.748   5.439
40736SOL    HW224042   7.631   0.012   5.484
40737SOL     OW24043   0.367   5.291  11.525
40737SOL    HW124044   0.365   5.367  11.584
40737SOL    HW224045   0.454   5.294  11.485
40738SOL     OW24046   3.348   8.091  14.540
40738SOL    HW124047   3.272   8.040  14.565
40738SOL    HW224048   3.314   8.179  14.524
40739SOL     OW24049   5.005   8.047   0.131
40739SOL    HW124050   5.094   8.080   0.145
40739SOL    HW224051   5.011   7.954   0.154
40740SOL     OW24052   6.551   2.532   0.904
40740SOL    HW124053   6.628   2.566   0.950
40740SOL    HW224054   6.545   2.586   0.825
40741SOL     OW24055   7.589   5.458   2.944
40741SOL    HW124056   7.615   5.400   2.873
40741SOL    HW224057   7.672   5.487   2.983
40742SOL     OW24058   1.072  12.849   2.433
40742SOL    HW124059   1.010  12.810   2.371
40742SOL    HW224060   1.049  12.809   2.517
40743SOL     OW24061   8.415   5.224   7.996
40743SOL    HW124062   8.432   5.276   8.074
40743SOL    HW224063   8.320   5.221   7.989
40744SOL     OW24064   0.991   3.574  14.008
40744SOL    HW124065   0.906   3.603  14.040
40744SOL    HW224066   0.970   3.517  13.934
40745SOL     OW24067  11.170   0.454   0.574
40745SOL    HW124068  11.187   0.531   0.519
40745SOL    HW224069  11.107   0.485   0.639
40746SOL     OW24070   0.901  13.345   0.244
40746SOL    HW124071   0.976  13.299   0.206
40746SOL    HW224072   0.837  13.350   0.173
40747SOL     OW24073   7.867   6.496   3.786
40747SOL    HW124074   7.899   6.586   3.777
40747SOL    HW224075   7.934   6.443   3.742
40748SOL     OW24076   8.711  14.694  11.163
40748SOL    HW124077   8.758  14.758  11.217
40748SOL    HW224078   8.725  14.724  11.073
40749SOL     OW24079   1.316  10.227  11.119
40749SOL    HW124080   1.288  10.221  11.210
40749SOL    HW224081   1.411  10.214  11.121
40750SOL     OW24082   2.074   6.823  13.916
40750SOL    HW124083   1.987   6.811  13.879
40750SOL    HW224084   2.132   6.774  13.858
40751SOL     OW24085  13.470   7.859  14.480
40751SOL    HW124086  13.452   7.770  14.450
40751SOL    HW224087  13.384   7.895  14.501
40752SOL     OW24088   5.466   1.778   6.150
40752SOL    HW124089   5.506   1.760   6.235
40752SOL    HW224090   5.534   1.759   6.086
40753SOL     OW24091  11.994  10.135  11.264
40753SOL    HW124092  11.915  10.189  11.274
40753SOL    HW224093  11.975  10.079  11.189
40754SOL     OW24094   8.206   1.422   0.410
40754SOL    HW124095   8.191   1.475   0.488
40754SOL    HW224096   8.286   1.457   0.372
40755SOL     OW24097  14.426  12.777   4.641
40755SOL    HW124098  14.500  12.770   4.581
40755SOL    HW224099  14.349  12.760   4.586
40756SOL     OW24100  11.235   7.274  10.673
40756SOL    HW124101  11.318   7.322  10.678
40756SOL    HW224102  11.259   7.183  10.689
40757SOL     OW24103  14.762   7.356   4.164
40757SOL    HW124104  14.794   7.431   4.213
40757SOL    HW224105  14.707   7.308   4.225
40758SOL     OW24106   8.580   0.124   8.998
40758SOL    HW124107   8.648   0.145   9.062
40758SOL    HW224108   8.614   0.156   8.915
40759SOL     OW24109  12.240  14.459   4.899
40759SOL    HW124110  12.234  14.533   4.840
40759SOL    HW224111  12.181  14.393   4.862
40760SOL     OW24112   4.806   2.587  11.888
40760SOL    HW124113   4.781   2.612  11.799
40760SOL    HW224114   4.814   2.492  11.885
40761SOL     OW24115   8.653   3.640   9.900
40761SOL    HW124116   8.655   3.629   9.995
40761SOL    HW224117   8.711   3.573   9.866
40762SOL     OW24118  11.975   7.655   3.933
40762SOL    HW124119  12.058   7.697   3.958
40762SOL    HW224120  12.000   7.585   3.873
40763SOL     OW24121   4.466   0.676   8.155
40763SOL    HW124122   4.500   0.725   8.081
40763SOL    HW224123   4.541   0.628   8.189
40764SOL     OW24124   6.979   3.015  10.773
40764SOL    HW124125   7.029   2.959  10.832
40764SOL    HW224126   7.021   3.002  10.687
40765SOL     OW24127  11.353   8.450   1.757
40765SOL    HW124128  11.290   8.521   1.757
40765SOL    HW224129  11.411   8.469   1.831
40766SOL     OW24130  13.668   6.356   7.469
40766SOL    HW124131  13.594   6.344   7.409
40766SOL    HW224132  13.637   6.322   7.552
40767SOL     OW24133  10.203   4.204  12.419
40767SOL    HW124134  10.262   4.255  12.474
40767SOL    HW224135  10.202   4.250  12.335
40768SOL     OW24136   5.644   8.627   2.430
40768SOL    HW124137   5.703   8.592   2.363
40768SOL    HW224138   5.653   8.568   2.504
40769SOL     OW24139  10.781   6.899  10.671
40769SOL    HW124140  10.874   6.892  10.650
40769SOL    HW224141  10.737   6.845  10.606
40770SOL     OW24142   7.752  13.089   6.708
40770SOL    HW124143   7.698  13.010   6.707
40770SOL    HW224144   7.739  13.125   6.796
40771SOL     OW24145  10.471   0.658   5.270
40771SOL    HW124146  10.555   0.625   5.301
40771SOL    HW224147  10.424   0.685   5.349
40772SOL     OW24148   0.254   2.334  14.212
40772SOL    HW124149   0.339   2.375  14.197
40772SOL    HW224150   0.197   2.406  14.239
40773SOL     OW24151   3.210  12.125   1.765
40773SOL    HW124152   3.301  12.096   1.774
40773SOL    HW224153   3.204  12.205   1.817
40774SOL     OW24154  12.133  14.275   9.548
40774SOL    HW124155  12.183  14.195   9.534
40774SOL    HW224156  12.070  14.253   9.617
40775SOL     OW24157   1.606   8.003  13.340
40775SOL    HW124158   1.659   7.927  13.318
40775SOL    HW224159   1.560   8.025  13.259
40776SOL     OW24160  11.220   9.615   8.483
40776SOL    HW124161  11.187   9.564   8.557
40776SOL    HW224162  11.153   9.683   8.469
40777SOL     OW24163   0.782   9.242  13.855
40777SOL    HW124164   0.701   9.217  13.899
40777SOL    HW224165   0.850   9.192  13.901
40778SOL     OW24166  10.021   2.791  11.366
40778SOL    HW124167   9.935   2.795  11.408
40778SOL    HW224168  10.077   2.749  11.431
40779SOL     OW24169   6.023  11.257  12.355
40779SOL    HW124170   5.965  11.333  12.366
40779SOL    HW224171   6.111  11.294  12.361
40780SOL     OW24172   5.103   7.862   2.221
40780SOL    HW124173   5.173   7.832   2.163
40780SOL    HW224174   5.147   7.917   2.285
40781SOL     OW24175  12.360   6.909   4.176
40781SOL    HW124176  12.339   6.887   4.085
40781SOL    HW224177  12.448   6.872   4.190
40782SOL     OW24178  14.409   7.885   5.154
40782SOL    HW124179  14.432   7.800   5.117
40782SOL    HW224180  14.313   7.888   5.150
40783SOL     OW24181  14.310   8.853   8.017
40783SOL    HW124182  14.245   8.924   8.015
40783SOL    HW224183  14.390   8.895   8.051
40784SOL     OW24184  11.258   5.405   5.079
40784SOL    HW124185  11.325   5.402   5.010
40784SOL    HW224186  11.214   5.490   5.065
40785SOL     OW24187  11.079   5.668   2.446
40785SOL    HW124188  11.097   5.756   2.478
40785SOL    HW224189  11.067   5.615   2.525
40786SOL     OW24190  14.782   1.634   5.710
40786SOL    HW124191  14.859   1.594   5.670
40786SOL    HW224192  14.721   1.648   5.637
40787SOL     OW24193   2.835  13.033  14.273
40787SOL    HW124194   2.881  13.113  14.299
40787SOL    HW224195   2.851  13.027  14.179
40788SOL     OW24196   4.192   6.565  10.093
40788SOL    HW124197   4.260   6.525  10.038
40788SOL    HW224198   4.189   6.511  10.172
40789SOL     OW24199   9.068  10.050  12.793
40789SOL    HW124200   9.030  10.119  12.739
40789SOL    HW224201   9.126  10.096  12.853
40790SOL     OW24202   9.503   5.481  11.908
40790SOL    HW124203   9.512   5.404  11.851
40790SOL    HW224204   9.588   5.525  11.901
40791SOL     OW24205   6.854   0.105  14.691
40791SOL    HW124206   6.856   0.200  14.683
40791SOL    HW224207   6.794   0.076  14.622
40792SOL     OW24208   3.506   0.307   5.886
40792SOL    HW124209   3.554   0.379   5.928
40792SOL    HW224210   3.533   0.229   5.933
40793SOL     OW24211   8.635   7.906   5.889
40793SOL    HW124212   8.638   7.866   5.802
40793SOL    HW224213   8.727   7.920   5.912
40794SOL     OW24214  14.093   6.282   9.467
40794SOL    HW124215  14.080   6.246   9.379
40794SOL    HW224216  14.011   6.329   9.485
40795SOL     OW24217   9.252   1.935   8.675
40795SOL    HW124218   9.278   2.027   8.683
40795SOL    HW224219   9.283   1.894   8.757
40796SOL     OW24220   5.454  12.945   6.506
40796SOL    HW124221   5.368  12.914   6.477
40796SOL    HW224222   5.515  12.877   6.476
40797SOL     OW24223  11.703  11.619   0.785
40797SOL    HW124224  11.629  11.645   0.840
40797SOL    HW224225  11.716  11.692   0.725
40798SOL     OW24226   0.173   1.675  13.448
40798SOL    HW124227   0.077   1.676  13.453
40798SOL    HW224228   0.200   1.748  13.503
40799SOL     OW24229  12.291   4.098  12.365
40799SOL    HW124230  12.284   4.193  12.374
40799SOL    HW224231  12.324   4.085  12.276
40800SOL     OW24232   4.781   4.471   0.887
40800SOL    HW124233   4.732   4.413   0.829
40800SOL    HW224234   4.827   4.412   0.947
40801SOL     OW24235   8.291  14.877   3.292
40801SOL    HW124236   8.197   0.010   3.307
40801SOL    HW224237   8.323  14.833   3.371
40802SOL     OW24238  10.637  12.371   0.361
40802SOL    HW124239  10.684  12.353   0.442
40802SOL    HW224240  10.556  12.321   0.368
40803SOL     OW24241  12.405   2.866   9.335
40803SOL    HW124242  12.465   2.792   9.321
40803SOL    HW224243  12.415   2.919   9.256
40804SOL     OW24244  11.549  12.134   8.276
40804SOL    HW124245  11.601  12.144   8.197
40804SOL    HW224246  11.477  12.076   8.250
40805SOL     OW24247   1.924   0.317   1.351
40805SOL    HW124248   1.948   0.409   1.363
40805SOL    HW224249   2.007   0.271   1.343
40806SOL     OW24250   5.561   8.725   7.034
40806SOL    HW124251   5.575   8.734   6.940
40806SOL    HW224252   5.546   8.632   7.048
40807SOL     OW24253   2.367   4.584  10.202
40807SOL    HW124254   2.334   4.603  10.290
40807SOL    HW224255   2.337   4.494  10.184
40808SOL     OW24256   0.817   6.207   3.632
40808SOL    HW124257   0.907   6.179   3.616
40808SOL    HW224258   0.820   6.247   3.720
40809SOL     OW24259  12.709   7.086   7.420
40809SOL    HW124260  12.641   7.152   7.410
40809SOL    HW224261  12.776   7.111   7.356
40810SOL     OW24262  12.089   4.083   6.469
40810SOL    HW124263  12.007   4.074   6.420
40810SOL    HW224264  12.119   3.993   6.482
40811SOL     OW24265   6.172   0.420   2.893
40811SOL    HW124266   6.091   0.376   2.868
40811SOL    HW224267   6.218   0.357   2.948
40812SOL     OW24268   1.320   3.136   9.538
40812SOL    HW124269   1.275   3.051   9.544
40812SOL    HW224270   1.250   3.200   9.534
40813SOL     OW24271   7.633   0.313   1.678
40813SOL    HW124272   7.602   0.236   1.631
40813SOL    HW224273   7.727   0.298   1.689
40814SOL     OW24274   8.957  14.475   2.153
40814SOL    HW124275   9.046  14.503   2.132
40814SOL    HW224276   8.959  14.458   2.247
40815SOL     OW24277  14.610   4.927   1.650
40815SOL    HW124278  14.664   4.981   1.593
40815SOL    HW224279  14.655   4.843   1.653
40816SOL     OW24280   1.220   8.532  14.870
40816SOL    HW124281   1.262   8.612  14.837
40816SOL    HW224282   1.285   8.494   0.050
40817SOL     OW24283   4.655   7.463  10.475
40817SOL    HW124284   4.735   7.497  10.435
40817SOL    HW224285   4.584   7.505  10.427
40818SOL     OW24286   7.653   9.105   7.472
40818SOL    HW124287   7.704   9.163   7.528
40818SOL    HW224288   7.609   9.045   7.533
40819SOL     OW24289   3.103   7.226  11.613
40819SOL    HW124290   3.105   7.251  11.705
40819SOL    HW224291   3.024   7.171  11.605
40820SOL     OW24292   3.219  11.866   8.714
40820SOL    HW124293   3.240  11.825   8.798
40820SOL    HW224294   3.284  11.831   8.653
40821SOL     OW24295   9.937  13.480  12.619
40821SOL    HW124296   9.986  13.404  12.590
40821SOL    HW224297   9.853  13.445  12.648
40822SOL     OW24298  11.983  13.214   9.682
40822SOL    HW124299  12.065  13.207   9.730
40822SOL    HW224300  11.940  13.129   9.693
40823SOL     OW24301   4.918   9.868   4.654
40823SOL    HW124302   4.867   9.941   4.619
40823SOL    HW224303   4.952   9.900   4.737
40824SOL     OW24304  12.457   8.149   4.136
40824SOL    HW124305  12.364   8.141   4.116
40824SOL    HW224306  12.483   8.061   4.165
40825SOL     OW24307  14.654   4.359   1.423
40825SOL    HW124308  14.694   4.355   1.510
40825SOL    HW224309  14.608   4.443   1.421
40826SOL     OW24310   0.599  13.394   2.254
40826SOL    HW124311   0.520  13.371   2.302
40826SOL    HW224312   0.608  13.488   2.265
40827SOL     OW24313   3.486   9.534   5.270
40827SOL    HW124314   3.500   9.627   5.251
40827SOL    HW224315   3.544   9.517   5.345
40828SOL     OW24316  13.643   4.576   8.998
40828SOL    HW124317  13.561   4.540   8.963
40828SOL    HW224318  13.666   4.646   8.937
40829SOL     OW24319   0.484  10.583  12.232
40829SOL    HW124320   0.551  10.515  12.236
40829SOL    HW224321   0.512  10.638  12.159
40830SOL     OW24322  13.818   4.185   9.258
40830SOL    HW124323  13.777   4.161   9.175
40830SOL    HW224324  13.795   4.277   9.270
40831SOL     OW24325   6.814  10.326   3.954
40831SOL    HW124326   6.735  10.273   3.966
40831SOL    HW224327   6.832  10.361   4.041
40832SOL     OW24328   0.457   9.070  12.993
40832SOL    HW124329   0.524   9.122  12.950
40832SOL    HW224330   0.400   9.041  12.922
40833SOL     OW24331  13.019   7.738   4.723
40833SOL    HW124332  13.073   7.672   4.768
40833SOL    HW224333  12.939   7.691   4.699
40834SOL     OW24334  14.642   1.188   6.789
40834SOL    HW124335  14.686   1.197   6.704
40834SOL    HW224336  14.641   1.094   6.806
40835SOL     OW24337  13.606   7.104   6.718
40835SOL    HW124338  13.512   7.112   6.698
40835SOL    HW224339  13.638   7.194   6.713
40836SOL     OW24340   0.160  11.425   4.980
40836SOL    HW124341   0.206  11.378   4.911
40836SOL    HW224342   0.108  11.358   5.024
40837SOL     OW24343   2.145  13.754   5.874
40837SOL    HW124344   2.201  13.755   5.951
40837SOL    HW224345   2.193  13.806   5.809
40838SOL     OW24346   0.464  12.090   0.239
40838SOL    HW124347   0.480  12.178   0.273
40838SOL    HW224348   0.470  12.033   0.315
40839SOL     OW24349   0.421  14.861  14.683
40839SOL    HW124350   0.411   0.076  14.668
40839SOL    HW224351   0.427  14.823  14.596
40840SOL     OW24352  10.714  12.641   2.107
40840SOL    HW124353  10.735  12.710   2.044
40840SOL    HW224354  10.784  12.645   2.172
40841SOL     OW24355   0.650   7.809   5.061
40841SOL    HW124356   0.604   7.817   5.145
40841SOL    HW224357   0.617   7.727   5.024
40842SOL     OW24358   1.814   7.797  10.685
40842SOL    HW124359   1.900   7.768  10.654
40842SOL    HW224360   1.824   7.892  10.698
40843SOL     OW24361   3.035   6.349   5.984
40843SOL    HW124362   3.038   6.261   5.947
40843SOL    HW224363   2.960   6.390   5.941
40844SOL     OW24364   5.888   9.827   1.291
40844SOL    HW124365   5.902   9.736   1.318
40844SOL    HW224366   5.976   9.859   1.269
40845SOL     OW24367   5.019   6.460   5.650
40845SOL    HW124368   4.999   6.526   5.583
40845SOL    HW224369   5.096   6.495   5.695
40846SOL     OW24370   6.397   5.298   9.708
40846SOL    HW124371   6.400   5.386   9.669
40846SOL    HW224372   6.424   5.239   9.638
40847SOL     OW24373  13.349   2.765   5.265
40847SOL    HW124374  13.293   2.842   5.277
40847SOL    HW224375  13.398   2.758   5.348
40848SOL     OW24376   4.685  10.955   1.503
40848SOL    HW124377   4.766  10.921   1.464
40848SOL    HW224378   4.648  10.880   1.550
40849SOL     OW24379   8.690   0.147   6.316
40849SOL    HW124380   8.657   0.213   6.256
40849SOL    HW224381   8.719   0.197   6.393
40850SOL     OW24382  13.110   1.581  11.455
40850SOL    HW124383  13.194   1.575  11.409
40850SOL    HW224384  13.116   1.515  11.524
40851SOL     OW24385   0.746   1.256   1.473
40851SOL    HW124386   0.750   1.218   1.385
40851SOL    HW224387   0.654   1.275   1.487
40852SOL     OW24388   3.646  13.031  10.405
40852SOL    HW124389   3.592  12.952  10.396
40852SOL    HW224390   3.735  12.998  10.416
40853SOL     OW24391  13.713   8.339   6.578
40853SOL    HW124392  13.803   8.307   6.572
40853SOL    HW224393  13.677   8.297   6.655
40854SOL     OW24394   9.662   9.436   7.969
40854SOL    HW124395   9.575   9.468   7.946
40854SOL    HW224396   9.657   9.341   7.958
40855SOL     OW24397   6.527   5.896   8.935
40855SOL    HW124398   6.440   5.925   8.961
40855SOL    HW224399   6.581   5.975   8.941
40856SOL     OW24400   7.951  13.431   3.668
40856SOL    HW124401   8.005  13.510   3.659
40856SOL    HW224402   8.013  13.359   3.659
40857SOL     OW24403   7.148   3.578  10.493
40857SOL    HW124404   7.084   3.560  10.424
40857SOL    HW224405   7.169   3.492  10.530
40858SOL     OW24406  13.999   7.448   7.865
40858SOL    HW124407  13.944   7.525   7.851
40858SOL    HW224408  13.984   7.394   7.787
40859SOL     OW24409   8.930   2.206  10.779
40859SOL    HW124410   8.906   2.279  10.836
40859SOL    HW224411   9.012   2.233  10.739
40860SOL     OW24412   0.190  12.549  14.525
40860SOL    HW124413   0.223  12.522  14.439
40860SOL    HW224414   0.206  12.473  14.581
40861SOL     OW24415   6.227   3.446   2.935
40861SOL    HW124416   6.313   3.449   2.977
40861SOL    HW224417   6.172   3.396   2.995
40862SOL     OW24418   5.381   8.167  12.383
40862SOL    HW124419   5.323   8.202  12.450
40862SOL    HW224420   5.456   8.132  12.432
40863SOL     OW24421   4.764  13.134   8.684
40863SOL    HW124422   4.671  13.135   8.707
40863SOL    HW224423   4.807  13.098   8.761
40864SOL     OW24424  11.246   0.552  10.761
40864SOL    HW124425  11.208   0.612  10.696
40864SOL    HW224426  11.339   0.572  10.760
40865SOL     OW24427  11.161   9.050  11.093
40865SOL    HW124428  11.110   9.091  11.163
40865SOL    HW224429  11.151   8.956  11.107
40866SOL     OW24430   7.906   5.468   5.405
40866SOL    HW124431   7.824   5.423   5.389
40866SOL    HW224432   7.892   5.557   5.374
40867SOL     OW24433  13.874  12.731   9.952
40867SOL    HW124434  13.868  12.816   9.908
40867SOL    HW224435  13.918  12.675   9.888
40868SOL     OW24436   8.609   9.395   7.507
40868SOL    HW124437   8.548   9.454   7.463
40868SOL    HW224438   8.689   9.402   7.455
40869SOL     OW24439   8.442   3.117   4.390
40869SOL    HW124440   8.518   3.082   4.437
40869SOL    HW224441   8.416   3.046   4.331
40870SOL     OW24442  12.307   0.914   3.394
40870SOL    HW124443  12.288   1.003   3.363
40870SOL    HW224444  12.343   0.927   3.482
40871SOL     OW24445   6.718  12.272   5.543
40871SOL    HW124446   6.674  12.270   5.458
40871SOL    HW224447   6.706  12.184   5.579
40872SOL     OW24448   2.552  10.917  10.311
40872SOL    HW124449   2.481  10.867  10.352
40872SOL    HW224450   2.533  11.008  10.334
40873SOL     OW24451   5.397  14.207   0.349
40873SOL    HW124452   5.332  14.192   0.280
40873SOL    HW224453   5.349  14.194   0.430
40874SOL     OW24454   0.349   9.287   8.583
40874SOL    HW124455   0.289   9.303   8.510
40874SOL    HW224456   0.384   9.199   8.567
40875SOL     OW24457  14.759  12.229   9.873
40875SOL    HW124458  14.794  12.158   9.819
40875SOL    HW224459  14.833  12.289   9.884
40876SOL     OW24460   1.090   8.199   7.211
40876SOL    HW124461   1.042   8.234   7.286
40876SOL    HW224462   1.075   8.263   7.141
40877SOL     OW24463   2.878   0.958  12.835
40877SOL    HW124464   2.895   0.918  12.750
40877SOL    HW224465   2.964   0.970  12.874
40878SOL     OW24466   2.813   5.222   6.909
40878SOL    HW124467   2.769   5.267   6.981
40878SOL    HW224468   2.827   5.133   6.941
40879SOL     OW24469   1.843  13.420   2.594
40879SOL    HW124470   1.916  13.397   2.651
40879SOL    HW224471   1.871  13.500   2.550
40880SOL     OW24472   1.766  10.572   1.295
40880SOL    HW124473   1.841  10.543   1.243
40880SOL    HW224474   1.694  10.517   1.265
40881SOL     OW24475  13.234   0.565   1.487
40881SOL    HW124476  13.300   0.589   1.551
40881SOL    HW224477  13.205   0.478   1.513
40882SOL     OW24478  10.646   7.326   7.170
40882SOL    HW124479  10.623   7.393   7.105
40882SOL    HW224480  10.625   7.243   7.127
40883SOL     OW24481   2.308   2.674   0.048
40883SOL    HW124482   2.274   2.742  14.869
40883SOL    HW224483   2.339   2.606  14.868
40884SOL     OW24484   9.402  13.429  10.536
40884SOL    HW124485   9.345  13.503  10.558
40884SOL    HW224486   9.342  13.357  10.516
40885SOL     OW24487   9.117   7.359  13.762
40885SOL    HW124488   9.035   7.403  13.738
40885SOL    HW224489   9.104   7.268  13.737
40886SOL     OW24490  12.521  14.436   3.486
40886SOL    HW124491  12.483  14.499   3.546
40886SOL    HW224492  12.517  14.352   3.533
40887SOL     OW24493   6.620   8.258  12.233
40887SOL    HW124494   6.585   8.279  12.147
40887SOL    HW224495   6.714   8.248  12.220
40888SOL     OW24496  10.348   4.048   7.070
40888SOL    HW124497  10.398   4.124   7.042
40888SOL    HW224498  10.257   4.079   7.077
40889SOL     OW24499  14.589   4.762  10.821
40889SOL    HW124500  14.611   4.719  10.738
40889SOL    HW224501  14.659   4.825  10.835
40890SOL     OW24502   8.330   2.146  14.772
40890SOL    HW124503   8.331   2.095  14.853
40890SOL    HW224504   8.418   2.136  14.737
40891SOL     OW24505  12.140  13.797  11.568
40891SOL    HW124506  12.127  13.780  11.475
40891SOL    HW224507  12.089  13.729  11.612
40892SOL     OW24508  13.384  13.961   9.201
40892SOL    HW124509  13.402  13.886   9.144
40892SOL    HW224510  13.369  14.034   9.140
40893SOL     OW24511  14.847  14.793   3.468
40893SOL    HW124512  14.815  14.709   3.500
40893SOL    HW224513   0.025  14.770   3.395
40894SOL     OW24514  11.186  11.451   7.276
40894SOL    HW124515  11.271  11.472   7.237
40894SOL    HW224516  11.206  11.407   7.358
40895SOL     OW24517   7.310   5.854   4.898
40895SOL    HW124518   7.219   5.828   4.916
40895SOL    HW224519   7.328   5.924   4.961
40896SOL     OW24520  11.051   4.441   5.525
40896SOL    HW124521  11.116   4.421   5.591
40896SOL    HW224522  11.066   4.533   5.503
40897SOL     OW24523   2.488   4.612  14.318
40897SOL    HW124524   2.479   4.585  14.227
40897SOL    HW224525   2.568   4.665  14.320
40898SOL     OW24526  13.413  14.593   9.230
40898SOL    HW124527  13.344  14.658   9.223
40898SOL    HW224528  13.484  14.627   9.174
40899SOL     OW24529   8.809   7.758   1.575
40899SOL    HW124530   8.737   7.800   1.529
40899SOL    HW224531   8.776   7.670   1.596
40900SOL     OW24532   9.749  13.311   7.082
40900SOL    HW124533   9.801  13.309   7.002
40900SOL    HW224534   9.803  13.264   7.146
40901SOL     OW24535  11.830  11.523  10.545
40901SOL    HW124536  11.802  11.565  10.627
40901SOL    HW224537  11.810  11.588  10.478
40902SOL     OW24538   6.068   5.639  11.147
40902SOL    HW124539   5.975   5.643  11.169
40902SOL    HW224540   6.107   5.712  11.197
40903SOL     OW24541   3.471   8.180   5.974
40903SOL    HW124542   3.499   8.095   5.940
40903SOL    HW224543   3.464   8.236   5.897
40904SOL     OW24544  14.234   2.273   6.121
40904SOL    HW124545  14.245   2.276   6.026
40904SOL    HW224546  14.144   2.304   6.135
40905SOL     OW24547   2.167  12.336   8.659
40905SOL    HW124548   2.239  12.276   8.680
40905SOL    HW224549   2.169  12.345   8.564
40906SOL     OW24550   3.468  10.129   0.165
40906SOL    HW124551   3.506  10.181   0.236
40906SOL    HW224552   3.461  10.190   0.092
40907SOL     OW24553  14.051   7.908   1.725
40907SOL    HW124554  14.129   7.954   1.754
40907SOL    HW224555  14.057   7.822   1.768
40908SOL     OW24556   8.454   3.212   3.053
40908SOL    HW124557   8.418   3.298   3.076
40908SOL    HW224558   8.378   3.159   3.031
40909SOL     OW24559  12.608   3.357   4.297
40909SOL    HW124560  12.658   3.323   4.372
40909SOL    HW224561  12.580   3.279   4.250
40910SOL     OW24562   8.368   2.058  12.558
40910SOL    HW124563   8.274   2.062  12.579
40910SOL    HW224564   8.371   2.062  12.462
40911SOL     OW24565  11.254   0.523   6.098
40911SOL    HW124566  11.248   0.566   6.013
40911SOL    HW224567  11.211   0.583   6.158
40912SOL     OW24568   4.090   3.181   9.145
40912SOL    HW124569   4.075   3.275   9.154
40912SOL    HW224570   4.003   3.142   9.160
40913SOL     OW24571  14.145   8.592  10.714
40913SOL    HW124572  14.179   8.647  10.643
40913SOL    HW224573  14.057   8.625  10.729
40914SOL     OW24574   3.431  12.113   2.077
40914SOL    HW124575   3.434  12.022   2.107
40914SOL    HW224576   3.341  12.141   2.094
40915SOL     OW24577  11.556  14.572   0.618
40915SOL    HW124578  11.569  14.558   0.712
40915SOL    HW224579  11.549  14.483   0.582
40916SOL     OW24580   2.240   9.159  14.786
40916SOL    HW124581   2.173   9.091  14.784
40916SOL    HW224582   2.256   9.180  14.694
40917SOL     OW24583   0.064  12.199   4.632
40917SOL    HW124584   0.083  12.169   4.543
40917SOL    HW224585  14.848  12.212   4.634
40918SOL     OW24586  10.434   3.744  13.399
40918SOL    HW124587  10.463   3.723  13.310
40918SOL    HW224588  10.344   3.775  13.388
40919SOL     OW24589   7.230  12.981  12.543
40919SOL    HW124590   7.216  12.935  12.460
40919SOL    HW224591   7.322  13.007  12.541
40920SOL     OW24592   0.066   0.102   3.093
40920SOL    HW124593   0.119   0.182   3.093
40920SOL    HW224594   0.128   0.032   3.074
40921SOL     OW24595   7.109   2.235   6.655
40921SOL    HW124596   7.099   2.145   6.686
40921SOL    HW224597   7.039   2.284   6.699
40922SOL     OW24598   3.816   2.463  11.032
40922SOL    HW124599   3.780   2.549  11.053
40922SOL    HW224600   3.786   2.446  10.942
40923SOL     OW24601   0.615   5.661  11.523
40923SOL    HW124602   0.642   5.692  11.610
40923SOL    HW224603   0.653   5.574  11.516
40924SOL     OW24604   2.734   1.656   0.116
40924SOL    HW124605   2.792   1.609   0.176
40924SOL    HW224606   2.648   1.618   0.130
40925SOL     OW24607  10.610  10.697   6.887
40925SOL    HW124608  10.657  10.618   6.860
40925SOL    HW224609  10.676  10.766   6.886
40926SOL     OW24610  10.242   0.984   3.147
40926SOL    HW124611  10.194   1.060   3.112
40926SOL    HW224612  10.293   0.952   3.072
40927SOL     OW24613   9.562  10.999  13.646
40927SOL    HW124614   9.504  10.937  13.602
40927SOL    HW224615   9.522  11.011  13.732
40928SOL     OW24616   9.731   2.688   1.740
40928SOL    HW124617   9.818   2.657   1.714
40928SOL    HW224618   9.686   2.611   1.774
40929SOL     OW24619   6.910  14.348   4.047
40929SOL    HW124620   6.958  14.266   4.062
40929SOL    HW224621   6.976  14.417   4.063
40930SOL     OW24622   8.888   7.914   4.871
40930SOL    HW124623   8.900   7.980   4.803
40930SOL    HW224624   8.976   7.894   4.901
40931SOL     OW24625  14.303  14.621  13.228
40931SOL    HW124626  14.377  14.658  13.275
40931SOL    HW224627  14.242  14.592  13.296
40932SOL     OW24628   6.468   7.743   7.239
40932SOL    HW124629   6.434   7.688   7.310
40932SOL    HW224630   6.503   7.820   7.284
40933SOL     OW24631   1.745   8.791   6.430
40933SOL    HW124632   1.778   8.826   6.348
40933SOL    HW224633   1.812   8.814   6.495
40934SOL     OW24634   0.339   0.537   1.262
40934SOL    HW124635   0.433   0.549   1.271
40934SOL    HW224636   0.327   0.443   1.253
40935SOL     OW24637   0.144   0.845  11.460
40935SOL    HW124638   0.104   0.759  11.472
40935SOL    HW224639   0.081   0.893  11.406
40936SOL     OW24640   5.820   8.038  12.374
40936SOL    HW124641   5.822   7.950  12.335
40936SOL    HW224642   5.900   8.080  12.344
40937SOL     OW24643   9.863   7.784   8.684
40937SOL    HW124644   9.786   7.770   8.738
40937SOL    HW224645   9.866   7.707   8.626
40938SOL     OW24646   5.595   0.071   3.553
40938SOL    HW124647   5.559   0.024   3.628
40938SOL    HW224648   5.684   0.037   3.545
40939SOL     OW24649  13.040   2.130   7.587
40939SOL    HW124650  13.097   2.110   7.662
40939SOL    HW224651  12.965   2.175   7.625
40940SOL     OW24652   0.413   9.058  12.438
40940SOL    HW124653   0.329   9.087  12.404
40940SOL    HW224654   0.441   8.989  12.377
40941SOL     OW24655   5.673  10.803   1.812
40941SOL    HW124656   5.630  10.857   1.746
40941SOL    HW224657   5.610  10.798   1.884
40942SOL     OW24658  11.260   5.589   2.889
40942SOL    HW124659  11.196   5.580   2.960
40942SOL    HW224660  11.319   5.514   2.900
40943SOL     OW24661  12.307   4.740   5.865
40943SOL    HW124662  12.339   4.778   5.947
40943SOL    HW224663  12.212   4.740   5.873
40944SOL     OW24664   7.378   1.481  10.161
40944SOL    HW124665   7.422   1.405  10.198
40944SOL    HW224666   7.285   1.462  10.168
40945SOL     OW24667  10.078  14.046  14.112
40945SOL    HW124668  10.067  13.987  14.187
40945SOL    HW224669  10.054  13.992  14.036
40946SOL     OW24670   7.479   3.336   4.357
40946SOL    HW124671   7.514   3.247   4.355
40946SOL    HW224672   7.537   3.386   4.300
40947SOL     OW24673   8.534  13.874   2.386
40947SOL    HW124674   8.622  13.848   2.362
40947SOL    HW224675   8.545  13.931   2.463
40948SOL     OW24676   3.885   3.372  13.296
40948SOL    HW124677   3.980   3.377  13.286
40948SOL    HW224678   3.860   3.294  13.246
40949SOL     OW24679   9.407   3.738  10.149
40949SOL    HW124680   9.419   3.687  10.069
40949SOL    HW224681   9.430   3.678  10.219
40950SOL     OW24682  13.865   5.014  12.072
40950SOL    HW124683  13.810   4.936  12.063
40950SOL    HW224684  13.824   5.080  12.016
40951SOL     OW24685   0.207   3.930  11.016
40951SOL    HW124686   0.268   3.997  10.986
40951SOL    HW224687   0.200   3.943  11.110
40952SOL     OW24688  10.364   5.067   2.877
40952SOL    HW124689  10.290   5.073   2.938
40952SOL    HW224690  10.377   5.157   2.847
40953SOL     OW24691   2.665   2.775  10.955
40953SOL    HW124692   2.587   2.807  11.002
40953SOL    HW224693   2.639   2.774  10.863
40954SOL     OW24694   7.362  10.946   5.973
40954SOL    HW124695   7.377  10.863   5.927
40954SOL    HW224696   7.307  10.922   6.048
40955SOL     OW24697  10.209   7.756   6.956
40955SOL    HW124698  10.244   7.781   6.871
40955SOL    HW224699  10.133   7.701   6.935
40956SOL     OW24700   0.325  11.161   5.747
40956SOL    HW124701   0.249  11.174   5.690
40956SOL    HW224702   0.353  11.250   5.771
40957SOL     OW24703   0.680  14.355   6.344
40957SOL    HW124704   0.676  14.260   6.333
40957SOL    HW224705   0.613  14.375   6.409
40958SOL     OW24706  10.442   6.685  13.740
40958SOL    HW124707  10.417   6.640  13.659
40958SOL    HW224708  10.382   6.758  13.746
40959SOL     OW24709   4.818  11.915   9.033
40959SOL    HW124710   4.781  11.830   9.009
40959SOL    HW224711   4.892  11.926   8.974
40960SOL     OW24712   1.582   5.340   0.805
40960SOL    HW124713   1.542   5.327   0.719
40960SOL    HW224714   1.631   5.260   0.822
40961SOL     OW24715  13.649   6.822   0.867
40961SOL    HW124716  13.600   6.740   0.857
40961SOL    HW224717  13.727   6.797   0.916
40962SOL     OW24718  12.226   5.478   6.852
40962SOL    HW124719  12.238   5.394   6.898
40962SOL    HW224720  12.186   5.454   6.769
40963SOL     OW24721   0.122  13.414   0.444
40963SOL    HW124722   0.216  13.432   0.446
40963SOL    HW224723   0.082  13.499   0.426
40964SOL     OW24724   2.037   0.980   8.908
40964SOL    HW124725   2.080   0.934   8.981
40964SOL    HW224726   1.972   0.917   8.875
40965SOL     OW24727  14.481   8.824   7.539
40965SOL    HW124728  14.499   8.913   7.507
40965SOL    HW224729  14.444   8.838   7.626
40966SOL     OW24730   3.212  10.378   0.982
40966SOL    HW124731   3.142  10.433   0.948
40966SOL    HW224732   3.234  10.319   0.909
40967SOL     OW24733   0.897   5.043  11.795
40967SOL    HW124734   0.905   4.950  11.772
40967SOL    HW224735   0.876   5.043  11.888
40968SOL     OW24736   7.931   4.693   1.412
40968SOL    HW124737   7.989   4.730   1.478
40968SOL    HW224738   7.872   4.764   1.388
40969SOL     OW24739  11.192   2.872   3.692
40969SOL    HW124740  11.159   2.946   3.742
40969SOL    HW224741  11.205   2.907   3.603
40970SOL     OW24742   2.784   7.220   7.979
40970SOL    HW124743   2.729   7.285   7.936
40970SOL    HW224744   2.774   7.238   8.073
40971SOL     OW24745  14.097  10.157  12.734
40971SOL    HW124746  14.027  10.107  12.692
40971SOL    HW224747  14.149  10.092  12.781
40972SOL     OW24748  11.114   3.237   1.362
40972SOL    HW124749  11.208   3.219   1.364
40972SOL    HW224750  11.095   3.278   1.446
40973SOL     OW24751   2.027   6.253   7.141
40973SOL    HW124752   2.038   6.163   7.113
40973SOL    HW224753   2.103   6.299   7.106
40974SOL     OW24754   1.368  10.580  11.898
40974SOL    HW124755   1.351  10.642  11.827
40974SOL    HW224756   1.392  10.499  11.853
40975SOL     OW24757   4.533  12.797   6.651
40975SOL    HW124758   4.535  12.730   6.583
40975SOL    HW224759   4.450  12.782   6.697
40976SOL     OW24760   3.373  11.750  11.927
40976SOL    HW124761   3.366  11.837  11.966
40976SOL    HW224762   3.349  11.690  11.998
40977SOL     OW24763  12.202  12.421   3.053
40977SOL    HW124764  12.287  12.458   3.073
40977SOL    HW224765  12.172  12.469   2.975
40978SOL     OW24766  14.858  13.143   7.477
40978SOL    HW124767  14.784  13.092   7.445
40978SOL    HW224768  14.819  13.227   7.502
40979SOL     OW24769   0.243   0.319   7.863
40979SOL    HW124770   0.272   0.282   7.946
40979SOL    HW224771   0.300   0.394   7.848
40980SOL     OW24772   6.570   8.578   0.261
40980SOL    HW124773   6.606   8.559   0.348
40980SOL    HW224774   6.603   8.666   0.240
40981SOL     OW24775   7.110   7.085   7.968
40981SOL    HW124776   7.099   6.999   7.927
40981SOL    HW224777   7.195   7.079   8.013
40982SOL     OW24778   0.369   9.370   2.333
40982SOL    HW124779   0.395   9.406   2.249
40982SOL    HW224780   0.339   9.281   2.313
40983SOL     OW24781  14.386   0.971   9.868
40983SOL    HW124782  14.308   0.923   9.896
40983SOL    HW224783  14.354   1.059   9.847
40984SOL     OW24784   5.119   9.892  11.059
40984SOL    HW124785   5.102   9.974  11.013
40984SOL    HW224786   5.127   9.827  10.989
40985SOL     OW24787   0.068   0.582  12.726
40985SOL    HW124788   0.162   0.601  12.729
40985SOL    HW224789   0.028   0.664  12.697
40986SOL     OW24790   6.199   2.730  12.338
40986SOL    HW124791   6.257   2.747  12.264
40986SOL    HW224792   6.111   2.726  12.300
40987SOL     OW24793   5.243   4.518  14.430
40987SOL    HW124794   5.253   4.469  14.511
40987SOL    HW224795   5.297   4.596  14.442
40988SOL     OW24796   1.039  12.262  14.700
40988SOL    HW124797   0.991  12.331  14.747
40988SOL    HW224798   1.101  12.311  14.644
40989SOL     OW24799   0.420  10.869   7.298
40989SOL    HW124800   0.417  10.829   7.385
40989SOL    HW224801   0.328  10.886   7.276
40990SOL     OW24802   6.689   7.179  11.405
40990SOL    HW124803   6.612   7.165  11.460
40990SOL    HW224804   6.653   7.201  11.319
40991SOL     OW24805  14.427   2.983   4.792
40991SOL    HW124806  14.521   2.966   4.788
40991SOL    HW224807  14.418   3.048   4.862
40992SOL     OW24808  12.735   7.305  14.827
40992SOL    HW124809  12.674   7.236  14.854
40992SOL    HW224810  12.819   7.280  14.866
40993SOL     OW24811   6.113  11.551  10.941
40993SOL    HW124812   6.083  11.473  10.989
40993SOL    HW224813   6.079  11.625  10.992
40994SOL     OW24814   0.612  12.376   7.419
40994SOL    HW124815   0.602  12.296   7.471
40994SOL    HW224816   0.527  12.389   7.378
40995SOL     OW24817   9.223   2.237   4.139
40995SOL    HW124818   9.230   2.267   4.229
40995SOL    HW224819   9.223   2.317   4.087
40996SOL     OW24820   1.933   6.419   0.278
40996SOL    HW124821   1.919   6.507   0.312
40996SOL    HW224822   1.980   6.373   0.347
40997SOL     OW24823  12.178   4.761   4.531
40997SOL    HW124824  12.126   4.827   4.576
40997SOL    HW224825  12.238   4.811   4.474
40998SOL     OW24826   6.801  14.060  13.323
40998SOL    HW124827   6.777  14.153  13.320
40998SOL    HW224828   6.763  14.023  13.244
40999SOL     OW24829  10.985  13.714   5.819
40999SOL    HW124830  10.900  13.675   5.840
40999SOL    HW224831  10.997  13.695   5.726
41000SOL     OW24832  13.091   7.886   9.506
41000SOL    HW124833  13.002   7.860   9.529
41000SOL    HW224834  13.110   7.961   9.563
41001SOL     OW24835   1.328   8.545   9.743
41001SOL    HW124836   1.380   8.569   9.819
41001SOL    HW224837   1.245   8.514   9.779
41002SOL     OW24838   7.187  11.276   7.355
41002SOL    HW124839   7.125  11.350   7.356
41002SOL    HW224840   7.152  11.216   7.289
41003SOL     OW24841   8.555  11.936   7.118
41003SOL    HW124842   8.563  11.970   7.207
41003SOL    HW224843   8.512  12.007   7.069
41004SOL     OW24844   0.743  12.147  13.777
41004SOL    HW124845   0.721  12.231  13.816
41004SOL    HW224846   0.660  12.099  13.774
41005SOL     OW24847   9.309   1.939   1.353
41005SOL    HW124848   9.258   1.873   1.400
41005SOL    HW224849   9.268   2.022   1.378
41006SOL     OW24850  12.983   5.247   1.433
41006SOL    HW124851  12.904   5.301   1.425
41006SOL    HW224852  13.055   5.311   1.433
41007SOL     OW24853   4.713   5.779   0.988
41007SOL    HW124854   4.787   5.829   0.954
41007SOL    HW224855   4.721   5.787   1.083
41008SOL     OW24856   1.246  12.391   1.924
41008SOL    HW124857   1.278  12.301   1.939
41008SOL    HW224858   1.321  12.437   1.887
41009SOL     OW24859   7.107   0.541   5.494
41009SOL    HW124860   7.186   0.488   5.509
41009SOL    HW224861   7.066   0.501   5.418
41010SOL     OW24862   4.809  14.476  14.859
41010SOL    HW124863   4.740  14.430  14.811
41010SOL    HW224864   4.889  14.430  14.835
41011SOL     OW24865   8.275   6.459   7.758
41011SOL    HW124866   8.353   6.434   7.808
41011SOL    HW224867   8.211   6.391   7.777
41012SOL     OW24868  13.160   2.683  11.906
41012SOL    HW124869  13.078   2.676  11.858
41012SOL    HW224870  13.188   2.592  11.920
41013SOL     OW24871  14.359  10.581   0.083
41013SOL    HW124872  14.416  10.531   0.142
41013SOL    HW224873  14.270  10.550   0.104
41014SOL     OW24874  10.671   8.904  11.440
41014SOL    HW124875  10.620   8.963  11.384
41014SOL    HW224876  10.712   8.842  11.379
41015SOL     OW24877   7.055   3.152   4.311
41015SOL    HW124878   7.127   3.110   4.263
41015SOL    HW224879   6.986   3.164   4.245
41016SOL     OW24880   2.975  12.978   0.871
41016SOL    HW124881   3.056  12.955   0.916
41016SOL    HW224882   2.996  12.969   0.778
41017SOL     OW24883   2.641  13.399   2.495
41017SOL    HW124884   2.546  13.384   2.499
41017SOL    HW224885   2.656  13.472   2.555
41018SOL     OW24886   9.542   0.338  10.570
41018SOL    HW124887   9.507   0.257  10.534
41018SOL    HW224888   9.634   0.339  10.544
41019SOL     OW24889   3.058  13.780   4.561
41019SOL    HW124890   3.122  13.849   4.546
41019SOL    HW224891   2.998  13.787   4.486
41020SOL     OW24892  10.984  10.067  10.058
41020SOL    HW124893  11.040  10.040  10.131
41020SOL    HW224894  10.980  10.163  10.066
41021SOL     OW24895   4.584  12.465   3.148
41021SOL    HW124896   4.518  12.395   3.142
41021SOL    HW224897   4.598  12.476   3.242
41022SOL     OW24898  13.965   9.983   7.359
41022SOL    HW124899  13.950   9.889   7.366
41022SOL    HW224900  13.975  10.013   7.449
41023SOL     OW24901   0.133  14.411  12.716
41023SOL    HW124902   0.160  14.488  12.667
41023SOL    HW224903   0.095  14.352  12.651
41024SOL     OW24904   8.288   3.950   2.959
41024SOL    HW124905   8.218   3.910   2.907
41024SOL    HW224906   8.244   4.016   3.013
41025SOL     OW24907   3.293   4.110   5.274
41025SOL    HW124908   3.282   4.024   5.314
41025SOL    HW224909   3.336   4.163   5.341
41026SOL     OW24910   0.513   9.660   1.625
41026SOL    HW124911   0.463   9.739   1.644
41026SOL    HW224912   0.448   9.597   1.595
41027SOL     OW24913   0.333   2.480   9.887
41027SOL    HW124914   0.414   2.531   9.881
41027SOL    HW224915   0.289   2.494   9.804
41028SOL     OW24916  14.731   2.934   4.063
41028SOL    HW124917  14.741   2.948   3.968
41028SOL    HW224918  14.820   2.921   4.094
41029SOL     OW24919   7.410   8.800   1.013
41029SOL    HW124920   7.448   8.713   1.024
41029SOL    HW224921   7.478   8.860   1.044
41030SOL     OW24922   8.827  13.241   2.470
41030SOL    HW124923   8.774  13.311   2.508
41030SOL    HW224924   8.845  13.183   2.544
41031SOL     OW24925   4.570  10.964   2.558
41031SOL    HW124926   4.481  10.999   2.548
41031SOL    HW224927   4.597  10.939   2.470
41032SOL     OW24928   2.934   1.725   8.212
41032SOL    HW124929   2.880   1.649   8.235
41032SOL    HW224930   2.917   1.739   8.118
41033SOL     OW24931  10.295   5.635  12.241
41033SOL    HW124932  10.327   5.614  12.153
41033SOL    HW224933  10.279   5.550  12.282
41034SOL     OW24934   1.356   0.455   5.491
41034SOL    HW124935   1.371   0.511   5.567
41034SOL    HW224936   1.265   0.472   5.468
41035SOL     OW24937   7.733   2.480  14.262
41035SOL    HW124938   7.717   2.557  14.318
41035SOL    HW224939   7.804   2.508  14.204
41036SOL     OW24940  10.515  13.824   5.916
41036SOL    HW124941  10.447  13.767   5.950
41036SOL    HW224942  10.469  13.902   5.887
41037SOL     OW24943   7.351   7.873   3.068
41037SOL    HW124944   7.429   7.917   3.034
41037SOL    HW224945   7.288   7.944   3.083
41038SOL     OW24946  11.171  13.210  14.560
41038SOL    HW124947  11.156  13.165  14.476
41038SOL    HW224948  11.261  13.188  14.583
41039SOL     OW24949   4.240   4.321  12.307
41039SOL    HW124950   4.221   4.249  12.247
41039SOL    HW224951   4.330   4.346  12.287
41040SOL     OW24952   8.458  13.828   5.734
41040SOL    HW124953   8.457  13.849   5.827
41040SOL    HW224954   8.532  13.769   5.723
41041SOL     OW24955   5.545   7.303   6.280
41041SOL    HW124956   5.539   7.394   6.252
41041SOL    HW224957   5.638   7.289   6.298
41042SOL     OW24958   1.440  12.925   0.399
41042SOL    HW124959   1.444  12.836   0.365
41042SOL    HW224960   1.349  12.936   0.427
41043SOL     OW24961  14.602   8.502   6.598
41043SOL    HW124962  14.664   8.569   6.569
41043SOL    HW224963  14.637   8.470   6.681
41044SOL     OW24964   4.929   9.648   8.894
41044SOL    HW124965   4.951   9.578   8.832
41044SOL    HW224966   4.960   9.728   8.852
41045SOL     OW24967  13.983  13.161   9.517
41045SOL    HW124968  14.048  13.201   9.575
41045SOL    HW224969  13.914  13.131   9.576
41046SOL     OW24970   7.957   7.106  12.810
41046SOL    HW124971   7.961   7.011  12.800
41046SOL    HW224972   7.998   7.124  12.894
41047SOL     OW24973  12.235   0.741   7.733
41047SOL    HW124974  12.140   0.748   7.737
41047SOL    HW224975  12.254   0.655   7.771
41048SOL     OW24976   3.202  12.942   3.393
41048SOL    HW124977   3.247  12.871   3.347
41048SOL    HW224978   3.152  12.898   3.462
41049SOL     OW24979   9.682   7.817  11.033
41049SOL    HW124980   9.744   7.889  11.016
41049SOL    HW224981   9.665   7.823  11.127
41050SOL     OW24982  10.632   3.822   4.233
41050SOL    HW124983  10.576   3.759   4.277
41050SOL    HW224984  10.572   3.884   4.191
41051SOL     OW24985  13.938  12.289   9.271
41051SOL    HW124986  13.869  12.275   9.206
41051SOL    HW224987  13.963  12.381   9.259
41052SOL     OW24988   6.405   2.906   6.543
41052SOL    HW124989   6.412   2.999   6.519
41052SOL    HW224990   6.485   2.866   6.509
41053SOL     OW24991   7.130   4.289   3.130
41053SOL    HW124992   7.224   4.275   3.136
41053SOL    HW224993   7.121   4.382   3.108
41054SOL     OW24994  10.829   2.958  13.856
41054SOL    HW124995  10.873   3.037  13.888
41054SOL    HW224996  10.816   2.974  13.763
41055SOL     OW24997  12.245   2.699   7.733
41055SOL    HW124998  12.248   2.752   7.653
41055SOL    HW224999  12.334   2.664   7.742
41056SOL     OW25000   4.653   5.927   2.281
41056SOL    HW125001   4.598   5.961   2.352
41056SOL    HW225002   4.689   5.846   2.315
41057SOL     OW25003   3.660   7.097   5.084
41057SOL    HW125004   3.641   7.161   5.152
41057SOL    HW225005   3.664   7.148   5.003
41058SOL     OW25006   4.302  11.433   1.399
41058SOL    HW125007   4.307  11.337   1.402
41058SOL    HW225008   4.363  11.463   1.465
41059SOL     OW25009  12.727   6.210  13.649
41059SOL    HW125010  12.799   6.150  13.668
41059SOL    HW225011  12.651   6.153  13.635
41060SOL     OW25012   1.637   0.249   6.663
41060SOL    HW125013   1.688   0.218   6.588
41060SOL    HW225014   1.701   0.259   6.733
41061SOL     OW25015   1.449   5.032  10.939
41061SOL    HW125016   1.506   4.982  10.881
41061SOL    HW225017   1.380   5.066  10.882
41062SOL     OW25018  13.013  14.163   8.107
41062SOL    HW125019  13.107  14.174   8.096
41062SOL    HW225020  12.991  14.088   8.052
41063SOL     OW25021  10.930   4.345  10.584
41063SOL    HW125022  10.923   4.440  10.589
41063SOL    HW225023  10.971   4.319  10.666
41064SOL     OW25024   2.878   8.458  10.308
41064SOL    HW125025   2.857   8.450  10.401
41064SOL    HW225026   2.864   8.550  10.288
41065SOL     OW25027  13.830   1.428  12.931
41065SOL    HW125028  13.833   1.334  12.949
41065SOL    HW225029  13.922   1.455  12.929
41066SOL     OW25030   3.182   5.573   2.219
41066SOL    HW125031   3.097   5.614   2.238
41066SOL    HW225032   3.159   5.487   2.184
41067SOL     OW25033   6.653   4.619   8.070
41067SOL    HW125034   6.564   4.644   8.045
41067SOL    HW225035   6.672   4.541   8.019
41068SOL     OW25036   9.576   7.651   9.074
41068SOL    HW125037   9.588   7.577   9.133
41068SOL    HW225038   9.500   7.698   9.108
41069SOL     OW25039   5.734   0.184   9.350
41069SOL    HW125040   5.682   0.145   9.421
41069SOL    HW225041   5.670   0.226   9.293
41070SOL     OW25042  10.197   0.472  10.283
41070SOL    HW125043  10.237   0.549  10.324
41070SOL    HW225044  10.136   0.439  10.349
41071SOL     OW25045  13.732   3.373   7.568
41071SOL    HW125046  13.799   3.369   7.636
41071SOL    HW225047  13.743   3.291   7.519
41072SOL     OW25048   8.411   6.386   9.515
41072SOL    HW125049   8.406   6.328   9.439
41072SOL    HW225050   8.465   6.338   9.579
41073SOL     OW25051   5.232  13.467   8.149
41073SOL    HW125052   5.193  13.429   8.070
41073SOL    HW225053   5.159  13.472   8.211
41074SOL     OW25054   7.282   5.888  10.833
41074SOL    HW125055   7.208   5.934  10.795
41074SOL    HW225056   7.249   5.854  10.916
41075SOL     OW25057   5.937   0.522   8.182
41075SOL    HW125058   5.881   0.560   8.115
41075SOL    HW225059   5.887   0.447   8.216
41076SOL     OW25060   1.439   2.939  11.681
41076SOL    HW125061   1.456   2.976  11.767
41076SOL    HW225062   1.428   3.015  11.623
41077SOL     OW25063  14.665   1.469  11.046
41077SOL    HW125064  14.707   1.552  11.024
41077SOL    HW225065  14.572   1.484  11.031
41078SOL     OW25066   2.824   1.029  13.490
41078SOL    HW125067   2.871   1.034  13.574
41078SOL    HW225068   2.854   0.947  13.451
41079SOL     OW25069  14.506   2.746   8.657
41079SOL    HW125070  14.586   2.755   8.607
41079SOL    HW225071  14.446   2.809   8.619
41080SOL     OW25072   2.532   0.253  14.098
41080SOL    HW125073   2.453   0.289  14.059
41080SOL    HW225074   2.559   0.184  14.038
41081SOL     OW25075   9.258  13.111  11.064
41081SOL    HW125076   9.212  13.169  11.004
41081SOL    HW225077   9.335  13.080  11.015
41082SOL     OW25078   5.536   5.518   8.413
41082SOL    HW125079   5.618   5.529   8.363
41082SOL    HW225080   5.564   5.520   8.505
41083SOL     OW25081  12.536  12.067   8.926
41083SOL    HW125082  12.444  12.071   8.952
41083SOL    HW225083  12.567  11.982   8.959
41084SOL     OW25084  13.097   1.525   4.262
41084SOL    HW125085  13.067   1.521   4.353
41084SOL    HW225086  13.192   1.536   4.269
41085SOL     OW25087   2.953  12.549  14.421
41085SOL    HW125088   2.988  12.543  14.332
41085SOL    HW225089   3.030  12.565  14.476
41086SOL     OW25090   1.035   0.857  12.402
41086SOL    HW125091   1.005   0.779  12.354
41086SOL    HW225092   1.078   0.822  12.480
41087SOL     OW25093   5.979  10.461  10.886
41087SOL    HW125094   5.932  10.529  10.838
41087SOL    HW225095   5.927  10.381  10.871
41088SOL     OW25096   1.021  12.672   3.363
41088SOL    HW125097   1.035  12.621   3.442
41088SOL    HW225098   1.070  12.753   3.377
41089SOL     OW25099   2.540   3.709   8.369
41089SOL    HW125100   2.630   3.675   8.365
41089SOL    HW225101   2.550   3.800   8.398
41090SOL     OW25102  14.329   5.186   4.379
41090SOL    HW125103  14.346   5.119   4.312
41090SOL    HW225104  14.241   5.166   4.411
41091SOL     OW25105   2.639  12.196   3.093
41091SOL    HW125106   2.684  12.221   3.012
41091SOL    HW225107   2.677  12.254   3.160
41092SOL     OW25108   0.485   7.405  10.523
41092SOL    HW125109   0.545   7.437  10.590
41092SOL    HW225110   0.399   7.439  10.550
41093SOL     OW25111   3.705   8.243   1.173
41093SOL    HW125112   3.673   8.255   1.084
41093SOL    HW225113   3.763   8.318   1.189
41094SOL     OW25114   5.770   5.202  14.297
41094SOL    HW125115   5.809   5.247  14.221
41094SOL    HW225116   5.685   5.171  14.265
41095SOL     OW25117   3.141   8.785  11.533
41095SOL    HW125118   3.174   8.753  11.449
41095SOL    HW225119   3.172   8.720  11.597
41096SOL     OW25120   3.165   8.804  13.678
41096SOL    HW125121   3.219   8.801  13.599
41096SOL    HW225122   3.202   8.736  13.735
41097SOL     OW25123  11.445   4.621  13.062
41097SOL    HW125124  11.529   4.643  13.102
41097SOL    HW225125  11.381   4.639  13.131
41098SOL     OW25126   6.708   0.553   5.336
41098SOL    HW125127   6.791   0.507   5.344
41098SOL    HW225128   6.730   0.636   5.292
41099SOL     OW25129   7.743   8.735  11.835
41099SOL    HW125130   7.801   8.664  11.863
41099SOL    HW225131   7.796   8.815  11.846
41100SOL     OW25132  14.761   7.604   1.269
41100SOL    HW125133  14.798   7.518   1.290
41100SOL    HW225134  14.835   7.664   1.277
41101SOL     OW25135   5.936   0.770   9.608
41101SOL    HW125136   5.973   0.858   9.601
41101SOL    HW225137   5.879   0.762   9.531
41102SOL     OW25138  14.569  10.775  13.344
41102SOL    HW125139  14.602  10.740  13.261
41102SOL    HW225140  14.496  10.832  13.318
41103SOL     OW25141   7.640   3.929   9.753
41103SOL    HW125142   7.686   3.917   9.836
41103SOL    HW225143   7.642   4.024   9.739
41104SOL     OW25144  14.805  13.455   7.755
41104SOL    HW125145  14.828  13.367   7.783
41104SOL    HW225146  14.759  13.493   7.830
41105SOL     OW25147  13.469   8.301  12.953
41105SOL    HW125148  13.523   8.299  12.874
41105SOL    HW225149  13.513   8.361  13.012
41106SOL     OW25150   4.898   0.464  12.918
41106SOL    HW125151   4.812   0.461  12.876
41106SOL    HW225152   4.940   0.381  12.893
41107SOL     OW25153   6.377   8.164  10.905
41107SOL    HW125154   6.317   8.147  10.977
41107SOL    HW225155   6.387   8.080  10.861
41108SOL     OW25156   7.212   0.621   0.610
41108SOL    HW125157   7.261   0.548   0.574
41108SOL    HW225158   7.173   0.588   0.691
41109SOL     OW25159   2.672   9.222   6.467
41109SOL    HW125160   2.674   9.247   6.559
41109SOL    HW225161   2.737   9.152   6.460
41110SOL     OW25162  13.492   6.132   8.985
41110SOL    HW125163  13.430   6.068   8.952
41110SOL    HW225164  13.455   6.217   8.961
41111SOL     OW25165   9.267   9.974   6.472
41111SOL    HW125166   9.272   9.957   6.566
41111SOL    HW225167   9.275   9.888   6.432
41112SOL     OW25168   2.039   9.272   4.247
41112SOL    HW125169   2.069   9.341   4.188
41112SOL    HW225170   2.017   9.199   4.189
41113SOL     OW25171  10.123  10.473   8.663
41113SOL    HW125172  10.125  10.486   8.568
41113SOL    HW225173  10.044  10.520   8.691
41114SOL     OW25174   7.244   5.523   1.557
41114SOL    HW125175   7.217   5.532   1.465
41114SOL    HW225176   7.302   5.597   1.573
41115SOL     OW25177   9.638   5.617   6.997
41115SOL    HW125178   9.574   5.664   6.943
41115SOL    HW225179   9.697   5.577   6.933
41116SOL     OW25180   7.072   7.775   0.489
41116SOL    HW125181   7.104   7.700   0.541
41116SOL    HW225182   7.098   7.852   0.540
41117SOL     OW25183   6.773   4.998   5.200
41117SOL    HW125184   6.823   5.070   5.163
41117SOL    HW225185   6.782   4.927   5.136
41118SOL     OW25186   0.864  14.061  11.221
41118SOL    HW125187   0.888  13.969  11.210
41118SOL    HW225188   0.776  14.059  11.258
41119SOL     OW25189  12.882   3.374   8.648
41119SOL    HW125190  12.794   3.409   8.662
41119SOL    HW225191  12.940   3.449   8.663
41120SOL     OW25192   5.811  12.804   7.412
41120SOL    HW125193   5.735  12.782   7.465
41120SOL    HW225194   5.778  12.807   7.323
41121SOL     OW25195  11.280   9.905  13.340
41121SOL    HW125196  11.222   9.871  13.272
41121SOL    HW225197  11.332   9.830  13.367
41122SOL     OW25198   1.865   3.734   9.548
41122SOL    HW125199   1.806   3.697   9.482
41122SOL    HW225200   1.900   3.657   9.593
41123SOL     OW25201   2.218   6.120  14.802
41123SOL    HW125202   2.256   6.033  14.791
41123SOL    HW225203   2.255   6.171  14.730
41124SOL     OW25204  13.074   9.647   5.163
41124SOL    HW125205  13.064   9.557   5.133
41124SOL    HW225206  13.128   9.641   5.242
41125SOL     OW25207   6.569   2.405   8.630
41125SOL    HW125208   6.550   2.472   8.695
41125SOL    HW225209   6.483   2.370   8.606
41126SOL     OW25210   1.021  11.386   9.611
41126SOL    HW125211   0.935  11.390   9.654
41126SOL    HW225212   1.029  11.296   9.581
41127SOL     OW25213   7.841   0.646   8.661
41127SOL    HW125214   7.860   0.564   8.617
41127SOL    HW225215   7.838   0.711   8.591
41128SOL     OW25216  10.399  11.183   6.898
41128SOL    HW125217  10.371  11.233   6.975
41128SOL    HW225218  10.427  11.098   6.933
41129SOL     OW25219  10.110   5.375  14.676
41129SOL    HW125220  10.181   5.344  14.620
41129SOL    HW225221  10.116   5.471  14.672
41130SOL     OW25222   3.239  12.964  10.200
41130SOL    HW125223   3.160  12.976  10.253
41130SOL    HW225224   3.258  12.870  10.208
41131SOL     OW25225   7.941  12.371   7.703
41131SOL    HW125226   7.964  12.297   7.759
41131SOL    HW225227   7.914  12.330   7.620
41132SOL     OW25228   1.280  13.113   8.151
41132SOL    HW125229   1.272  13.040   8.090
41132SOL    HW225230   1.335  13.079   8.222
41133SOL     OW25231  14.643   3.026   6.852
41133SOL    HW125232  14.574   2.969   6.887
41133SOL    HW225233  14.616   3.043   6.762
41134SOL     OW25234  12.174   5.044   7.935
41134SOL    HW125235  12.111   4.985   7.976
41134SOL    HW225236  12.213   4.993   7.864
41135SOL     OW25237   0.402   8.683   4.420
41135SOL    HW125238   0.439   8.605   4.378
41135SOL    HW225239   0.479   8.730   4.453
41136SOL     OW25240  14.835   6.669   8.844
41136SOL    HW125241  14.782   6.729   8.792
41136SOL    HW225242   0.020   6.725   8.888
41137SOL     OW25243   5.649   4.998   4.340
41137SOL    HW125244   5.660   4.903   4.336
41137SOL    HW225245   5.596   5.020   4.264
41138SOL     OW25246   3.306   5.173  11.199
41138SOL    HW125247   3.283   5.264  11.181
41138SOL    HW225248   3.289   5.127  11.117
41139SOL     OW25249   8.523   9.893   2.510
41139SOL    HW125250   8.474   9.975   2.509
41139SOL    HW225251   8.551   9.881   2.419
41140SOL     OW25252   0.485   2.475   0.368
41140SOL    HW125253   0.458   2.454   0.457
41140SOL    HW225254   0.474   2.570   0.362
41141SOL     OW25255  13.315  13.512  14.130
41141SOL    HW125256  13.406  13.486  14.114
41141SOL    HW225257  13.302  13.589  14.075
41142SOL     OW25258   8.858   4.255   3.672
41142SOL    HW125259   8.880   4.163   3.691
41142SOL    HW225260   8.940   4.292   3.640
41143SOL     OW25261  13.527   1.805  12.584
41143SOL    HW125262  13.510   1.894  12.615
41143SOL    HW225263  13.477   1.749  12.644
41144SOL     OW25264   1.053   7.880   4.961
41144SOL    HW125265   1.101   7.804   4.928
41144SOL    HW225266   1.120   7.939   4.994
41145SOL     OW25267   1.068  12.549   6.450
41145SOL    HW125268   1.135  12.582   6.510
41145SOL    HW225269   1.115  12.535   6.368
41146SOL     OW25270  10.155   9.507   7.177
41146SOL    HW125271  10.214   9.548   7.241
41146SOL    HW225272  10.189   9.419   7.166
41147SOL     OW25273   2.589   9.821  13.942
41147SOL    HW125274   2.629   9.778  13.866
41147SOL    HW225275   2.554   9.750  13.995
41148SOL     OW25276   0.643   7.882  14.805
41148SOL    HW125277   0.719   7.932  14.774
41148SOL    HW225278   0.578   7.950  14.824
41149SOL     OW25279  10.925   9.334  14.405
41149SOL    HW125280  10.875   9.414  14.393
41149SOL    HW225281  10.860   9.269  14.432
41150SOL     OW25282   8.664   5.065   3.503
41150SOL    HW125283   8.619   5.003   3.445
41150SOL    HW225284   8.724   5.112   3.445
41151SOL     OW25285   6.695   1.175   6.808
41151SOL    HW125286   6.657   1.223   6.882
41151SOL    HW225287   6.777   1.140   6.842
41152SOL     OW25288  10.893  10.366   0.455
41152SOL    HW125289  10.858  10.394   0.539
41152SOL    HW225290  10.912  10.273   0.466
41153SOL     OW25291  14.599   7.972   0.975
41153SOL    HW125292  14.658   8.043   1.001
41153SOL    HW225293  14.514   7.996   1.012
41154SOL     OW25294   6.707   1.660   9.926
41154SOL    HW125295   6.794   1.692   9.952
41154SOL    HW225296   6.665   1.637  10.009
41155SOL     OW25297  14.265   6.134   5.305
41155SOL    HW125298  14.269   6.110   5.398
41155SOL    HW225299  14.260   6.050   5.259
41156SOL     OW25300   5.869   2.385   9.496
41156SOL    HW125301   5.926   2.325   9.448
41156SOL    HW225302   5.922   2.413   9.571
41157SOL     OW25303   8.358   1.897   6.066
41157SOL    HW125304   8.272   1.882   6.105
41157SOL    HW225305   8.340   1.950   5.988
41158SOL     OW25306  11.095   2.335  12.192
41158SOL    HW125307  11.050   2.251  12.199
41158SOL    HW225308  11.144   2.328  12.110
41159SOL     OW25309  13.515   8.314  12.157
41159SOL    HW125310  13.519   8.394  12.104
41159SOL    HW225311  13.532   8.343  12.246
41160SOL     OW25312  14.697  14.059  11.874
41160SOL    HW125313  14.676  14.102  11.957
41160SOL    HW225314  14.789  14.036  11.881
41161SOL     OW25315   8.747   9.908   1.201
41161SOL    HW125316   8.657   9.924   1.230
41161SOL    HW225317   8.740   9.837   1.137
41162SOL     OW25318   3.285  11.354   6.942
41162SOL    HW125319   3.289  11.435   6.891
41162SOL    HW225320   3.192  11.331   6.944
41163SOL     OW25321   7.307   0.018   0.885
41163SOL    HW125322   7.296   0.111   0.869
41163SOL    HW225323   7.222  14.858   0.864
41164SOL     OW25324   7.811  14.489   0.813
41164SOL    HW125325   7.887  14.436   0.837
41164SOL    HW225326   7.837  14.579   0.833
41165SOL     OW25327   4.429   7.705  10.632
41165SOL    HW125328   4.512   7.706  10.680
41165SOL    HW225329   4.378   7.776  10.671
41166SOL     OW25330  13.223   3.798  10.409
41166SOL    HW125331  13.286   3.790  10.337
41166SOL    HW225332  13.242   3.883  10.448
41167SOL     OW25333  10.175   2.282   4.006
41167SOL    HW125334  10.094   2.230   4.006
41167SOL    HW225335  10.150   2.365   4.046
41168SOL     OW25336   3.974   3.677  11.320
41168SOL    HW125337   3.948   3.767  11.301
41168SOL    HW225338   4.067   3.673  11.297
41169SOL     OW25339  10.563   9.844   8.467
41169SOL    HW125340  10.564   9.936   8.441
41169SOL    HW225341  10.550   9.796   8.385
41170SOL     OW25342   1.000   6.190  14.404
41170SOL    HW125343   1.076   6.139  14.375
41170SOL    HW225344   0.974   6.150  14.487
41171SOL     OW25345   8.460   9.755   3.738
41171SOL    HW125346   8.411   9.777   3.658
41171SOL    HW225347   8.425   9.671   3.765
41172SOL     OW25348   2.528   2.777  14.678
41172SOL    HW125349   2.561   2.703  14.729
41172SOL    HW225350   2.606   2.827  14.655
41173SOL     OW25351   2.426   5.972  13.983
41173SOL    HW125352   2.449   5.880  13.970
41173SOL    HW225353   2.440   6.012  13.897
41174SOL     OW25354   3.124   8.724   4.856
41174SOL    HW125355   3.102   8.775   4.933
41174SOL    HW225356   3.043   8.721   4.805
41175SOL     OW25357  14.115   6.486  12.642
41175SOL    HW125358  14.175   6.560  12.655
41175SOL    HW225359  14.172   6.409  12.646
41176SOL     OW25360   4.062   1.822   8.193
41176SOL    HW125361   4.099   1.786   8.273
41176SOL    HW225362   3.968   1.807   8.201
41177SOL     OW25363   6.950  14.040  12.082
41177SOL    HW125364   6.940  14.038  12.177
41177SOL    HW225365   7.027  13.986  12.064
41178SOL     OW25366   0.190  14.561  12.079
41178SOL    HW125367   0.119  14.598  12.027
41178SOL    HW225368   0.148  14.497  12.136
41179SOL     OW25369   0.571   1.906   2.881
41179SOL    HW125370   0.529   1.908   2.967
41179SOL    HW225371   0.599   1.997   2.866
41180SOL     OW25372   2.431   5.090  12.325
41180SOL    HW125373   2.478   5.156  12.274
41180SOL    HW225374   2.341   5.123  12.330
41181SOL     OW25375   7.427  10.668  12.899
41181SOL    HW125376   7.508  10.672  12.848
41181SOL    HW225377   7.450  10.706  12.984
41182SOL     OW25378   4.869   8.089   3.534
41182SOL    HW125379   4.783   8.099   3.574
41182SOL    HW225380   4.861   8.010   3.480
41183SOL     OW25381  13.290   1.187   4.607
41183SOL    HW125382  13.375   1.217   4.574
41183SOL    HW225383  13.311   1.114   4.665
41184SOL     OW25384   8.374  12.039  10.349
41184SOL    HW125385   8.381  11.944  10.355
41184SOL    HW225386   8.425  12.061  10.270
41185SOL     OW25387   7.002   2.721  13.654
41185SOL    HW125388   6.941   2.790  13.680
41185SOL    HW225389   7.054   2.761  13.584
41186SOL     OW25390   3.247   1.677  11.698
41186SOL    HW125391   3.270   1.768  11.720
41186SOL    HW225392   3.165   1.662  11.744
41187SOL     OW25393  13.005   3.106   1.659
41187SOL    HW125394  13.063   3.033   1.681
41187SOL    HW225395  12.921   3.081   1.698
41188SOL     OW25396   4.739   8.554  10.419
41188SOL    HW125397   4.688   8.596  10.350
41188SOL    HW225398   4.741   8.462  10.396
41189SOL     OW25399   2.916   8.217   8.956
41189SOL    HW125400   2.941   8.133   8.918
41189SOL    HW225401   2.951   8.282   8.895
41190SOL     OW25402   5.182   1.846   1.729
41190SOL    HW125403   5.228   1.918   1.685
41190SOL    HW225404   5.108   1.827   1.672
41191SOL     OW25405   9.484   2.627   8.696
41191SOL    HW125406   9.534   2.546   8.681
41191SOL    HW225407   9.394   2.603   8.674
41192SOL     OW25408   7.347  13.827   1.476
41192SOL    HW125409   7.350  13.868   1.563
41192SOL    HW225410   7.427  13.857   1.433
41193SOL     OW25411   3.541   1.187   2.059
41193SOL    HW125412   3.598   1.197   2.135
41193SOL    HW225413   3.600   1.195   1.984
41194SOL     OW25414  10.166  14.440  11.135
41194SOL    HW125415  10.117  14.521  11.150
41194SOL    HW225416  10.129  14.405  11.054
41195SOL     OW25417  11.681   4.688   3.779
41195SOL    HW125418  11.762   4.676   3.729
41195SOL    HW225419  11.672   4.783   3.787
41196SOL     OW25420  11.863  13.207   1.834
41196SOL    HW125421  11.957  13.193   1.817
41196SOL    HW225422  11.860  13.289   1.882
41197SOL     OW25423   4.112   0.028  13.296
41197SOL    HW125424   4.042  14.851  13.260
41197SOL    HW225425   4.121  14.877  13.386
41198SOL     OW25426   0.399   4.286  10.501
41198SOL    HW125427   0.421   4.331  10.582
41198SOL    HW225428   0.436   4.341  10.432
41199SOL     OW25429   1.319  12.727   9.309
41199SOL    HW125430   1.305  12.796   9.244
41199SOL    HW225431   1.410  12.739   9.337
41200SOL     OW25432  14.413  13.381   3.217
41200SOL    HW125433  14.468  13.454   3.245
41200SOL    HW225434  14.420  13.382   3.122
41201SOL     OW25435   4.161  10.300   6.186
41201SOL    HW125436   4.101  10.319   6.113
41201SOL    HW225437   4.204  10.218   6.160
41202SOL     OW25438   0.188  11.493   7.764
41202SOL    HW125439   0.282  11.485   7.781
41202SOL    HW225440   0.147  11.483   7.850
41203SOL     OW25441  13.594  11.949   0.528
41203SOL    HW125442  13.570  12.042   0.533
41203SOL    HW225443  13.687  11.947   0.550
41204SOL     OW25444  14.692  10.055  14.554
41204SOL    HW125445  14.776  10.082  14.519
41204SOL    HW225446  14.631  10.066  14.481
41205SOL     OW25447   7.510   8.049   1.272
41205SOL    HW125448   7.519   8.121   1.334
41205SOL    HW225449   7.504   7.970   1.326
41206SOL     OW25450   6.863   9.734  12.288
41206SOL    HW125451   6.919   9.783  12.348
41206SOL    HW225452   6.903   9.747  12.202
41207SOL     OW25453   6.166   2.104   1.773
41207SOL    HW125454   6.226   2.076   1.704
41207SOL    HW225455   6.220   2.157   1.832
41208SOL     OW25456  10.093   2.875  13.761
41208SOL    HW125457  10.044   2.821  13.823
41208SOL    HW225458  10.031   2.890  13.689
41209SOL     OW25459   1.369   2.182  14.795
41209SOL    HW125460   1.419   2.167  14.875
41209SOL    HW225461   1.283   2.211  14.825
41210SOL     OW25462   4.301  11.463   7.621
41210SOL    HW125463   4.361  11.388   7.612
41210SOL    HW225464   4.253  11.465   7.538
41211SOL     OW25465   3.099   8.938  10.081
41211SOL    HW125466   3.156   8.885  10.136
41211SOL    HW225467   3.087   8.886  10.002
41212SOL     OW25468  12.905  14.190  10.063
41212SOL    HW125469  12.855  14.253  10.116
41212SOL    HW225470  12.848  14.172   9.988
41213SOL     OW25471   8.196   5.040   2.132
41213SOL    HW125472   8.239   5.013   2.050
41213SOL    HW225473   8.267   5.040   2.196
41214SOL     OW25474   9.968   1.515  12.414
41214SOL    HW125475   9.884   1.523  12.369
41214SOL    HW225476   9.989   1.604  12.441
41215SOL     OW25477   7.606  12.089   1.571
41215SOL    HW125478   7.609  12.180   1.603
41215SOL    HW225479   7.512  12.071   1.560
41216SOL     OW25480   2.900   8.751   9.046
41216SOL    HW125481   2.879   8.663   9.077
41216SOL    HW225482   2.973   8.778   9.100
41217SOL     OW25483   2.011  12.204  12.105
41217SOL    HW125484   2.017  12.245  12.018
41217SOL    HW225485   2.004  12.278  12.165
41218SOL     OW25486   7.311   5.285   4.724
41218SOL    HW125487   7.355   5.293   4.639
41218SOL    HW225488   7.382   5.290   4.788
41219SOL     OW25489   6.827   4.048  14.271
41219SOL    HW125490   6.797   3.982  14.334
41219SOL    HW225491   6.918   4.024  14.253
41220SOL     OW25492  14.815   9.905  13.431
41220SOL    HW125493   0.026   9.937  13.431
41220SOL    HW225494  14.814   9.837  13.498
41221SOL     OW25495  11.371  14.824   0.174
41221SOL    HW125496  11.338   0.012   0.234
41221SOL    HW225497  11.358  14.741   0.220
41222SOL     OW25498   2.489  11.890   2.636
41222SOL    HW125499   2.485  11.804   2.593
41222SOL    HW225500   2.565  11.933   2.596
41223SOL     OW25501   6.822  13.887   8.105
41223SOL    HW125502   6.915  13.909   8.105
41223SOL    HW225503   6.783  13.952   8.164
41224SOL     OW25504   0.590   6.868  10.503
41224SOL    HW125505   0.578   6.962  10.492
41224SOL    HW225506   0.636   6.859  10.586
41225SOL     OW25507  10.947   4.385   6.725
41225SOL    HW125508  10.902   4.420   6.648
41225SOL    HW225509  10.914   4.296   6.734
41226SOL     OW25510   5.734   1.856  10.040
41226SOL    HW125511   5.757   1.924   9.976
41226SOL    HW225512   5.765   1.775  10.000
41227SOL     OW25513   5.552  13.060   2.290
41227SOL    HW125514   5.640  13.095   2.279
41227SOL    HW225515   5.555  12.974   2.248
41228SOL     OW25516   5.769   4.405  13.843
41228SOL    HW125517   5.710   4.330  13.848
41228SOL    HW225518   5.791   4.426  13.934
41229SOL     OW25519   9.988   4.255  11.896
41229SOL    HW125520  10.003   4.179  11.953
41229SOL    HW225521  10.075   4.275  11.860
41230SOL     OW25522   0.420   2.815   0.380
41230SOL    HW125523   0.502   2.836   0.335
41230SOL    HW225524   0.351   2.839   0.319
41231SOL     OW25525   1.153   5.123   2.517
41231SOL    HW125526   1.059   5.144   2.518
41231SOL    HW225527   1.161   5.049   2.577
41232SOL     OW25528   4.491   9.167  13.258
41232SOL    HW125529   4.497   9.072  13.251
41232SOL    HW225530   4.566   9.199  13.208
41233SOL     OW25531   9.910   4.360  12.157
41233SOL    HW125532  10.003   4.364  12.179
41233SOL    HW225533   9.909   4.356  12.061
41234SOL     OW25534  13.752   1.451  11.877
41234SOL    HW125535  13.733   1.358  11.863
41234SOL    HW225536  13.804   1.477  11.801
41235SOL     OW25537   8.085   0.490   7.374
41235SOL    HW125538   8.070   0.505   7.281
41235SOL    HW225539   8.116   0.399   7.380
41236SOL     OW25540  10.354   1.492   8.774
41236SOL    HW125541  10.357   1.451   8.688
41236SOL    HW225542  10.294   1.566   8.764
41237SOL     OW25543   9.940  11.206   3.238
41237SOL    HW125544   9.883  11.264   3.188
41237SOL    HW225545   9.882  11.166   3.303
41238SOL     OW25546   8.861   0.574   4.826
41238SOL    HW125547   8.920   0.538   4.892
41238SOL    HW225548   8.918   0.595   4.752
41239SOL     OW25549   4.956  13.344   7.654
41239SOL    HW125550   4.880  13.289   7.638
41239SOL    HW225551   5.012  13.330   7.577
41240SOL     OW25552  11.260   6.827   8.192
41240SOL    HW125553  11.333   6.885   8.211
41240SOL    HW225554  11.230   6.798   8.278
41241SOL     OW25555  10.701  14.132   2.026
41241SOL    HW125556  10.648  14.212   2.016
41241SOL    HW225557  10.663  14.087   2.101
41242SOL     OW25558  10.894   3.900  10.276
41242SOL    HW125559  10.919   3.969  10.338
41242SOL    HW225560  10.931   3.820  10.313
41243SOL     OW25561   0.283   0.728   2.105
41243SOL    HW125562   0.235   0.752   2.183
41243SOL    HW225563   0.310   0.637   2.120
41244SOL     OW25564   7.071   3.939   7.942
41244SOL    HW125565   6.990   3.931   7.992
41244SOL    HW225566   7.087   3.851   7.907
41245SOL     OW25567  12.683   4.865  14.656
41245SOL    HW125568  12.593   4.898  14.656
41245SOL    HW225569  12.736   4.943  14.671
41246SOL     OW25570  14.041   5.731   6.990
41246SOL    HW125571  13.966   5.676   7.012
41246SOL    HW225572  14.016   5.774   6.909
41247SOL     OW25573   1.272   1.186   9.832
41247SOL    HW125574   1.193   1.163   9.782
41247SOL    HW225575   1.333   1.114   9.814
41248SOL     OW25576   9.151   4.228  12.373
41248SOL    HW125577   9.080   4.189  12.322
41248SOL    HW225578   9.222   4.164  12.369
41249SOL     OW25579   9.127   0.987  14.847
41249SOL    HW125580   9.049   1.016   0.017
41249SOL    HW225581   9.133   0.894  14.866
41250SOL     OW25582   7.912  12.379  12.524
41250SOL    HW125583   7.940  12.462  12.486
41250SOL    HW225584   7.923  12.390  12.618
41251SOL     OW25585   3.833  11.862   3.765
41251SOL    HW125586   3.806  11.822   3.848
41251SOL    HW225587   3.907  11.808   3.736
41252SOL     OW25588   7.705  13.506   8.778
41252SOL    HW125589   7.796  13.482   8.798
41252SOL    HW225590   7.696  13.595   8.811
41253SOL     OW25591   0.073   5.155   7.609
41253SOL    HW125592  14.859   5.154   7.634
41253SOL    HW225593   0.116   5.203   7.679
41254SOL     OW25594  11.868   6.689   1.156
41254SOL    HW125595  11.825   6.770   1.183
41254SOL    HW225596  11.951   6.688   1.203
41255SOL     OW25597   2.151   9.483   8.520
41255SOL    HW125598   2.080   9.434   8.480
41255SOL    HW225599   2.174   9.433   8.598
41256SOL     OW25600   7.565   9.116  12.032
41256SOL    HW125601   7.561   9.034  11.984
41256SOL    HW225602   7.480   9.123  12.076
41257SOL     OW25603  10.252   1.666   2.469
41257SOL    HW125604  10.213   1.751   2.449
41257SOL    HW225605  10.299   1.679   2.551
41258SOL     OW25606   8.075  12.243   2.214
41258SOL    HW125607   8.028  12.181   2.157
41258SOL    HW225608   8.164  12.244   2.180
41259SOL     OW25609  12.748  13.604  11.140
41259SOL    HW125610  12.662  13.609  11.181
41259SOL    HW225611  12.760  13.689  11.098
41260SOL     OW25612  13.134   4.930  14.322
41260SOL    HW125613  13.222   4.924  14.285
41260SOL    HW225614  13.127   5.020  14.355
41261SOL     OW25615   3.210   4.950  12.037
41261SOL    HW125616   3.181   4.923  11.950
41261SOL    HW225617   3.197   5.045  12.038
41262SOL     OW25618   3.689  14.168   3.284
41262SOL    HW125619   3.769  14.127   3.251
41262SOL    HW225620   3.676  14.244   3.228
41263SOL     OW25621  10.912  13.166   1.117
41263SOL    HW125622  10.839  13.147   1.176
41263SOL    HW225623  10.958  13.240   1.158
41264SOL     OW25624   4.004   9.515   2.932
41264SOL    HW125625   4.041   9.434   2.899
41264SOL    HW225626   3.920   9.489   2.971
41265SOL     OW25627  13.232  11.309   7.650
41265SOL    HW125628  13.169  11.309   7.722
41265SOL    HW225629  13.267  11.398   7.648
41266SOL     OW25630   0.097   6.982  11.082
41266SOL    HW125631   0.033   6.914  11.104
41266SOL    HW225632   0.128   6.958  10.995
41267SOL     OW25633  14.125   8.166   8.261
41267SOL    HW125634  14.092   8.076   8.252
41267SOL    HW225635  14.220   8.157   8.268
41268SOL     OW25636   8.680   6.561   6.779
41268SOL    HW125637   8.748   6.625   6.757
41268SOL    HW225638   8.683   6.498   6.707
41269SOL     OW25639  11.502   7.372  10.658
41269SOL    HW125640  11.509   7.428  10.735
41269SOL    HW225641  11.497   7.432  10.584
41270SOL     OW25642  13.770  10.968   1.124
41270SOL    HW125643  13.765  11.009   1.037
41270SOL    HW225644  13.698  10.905   1.125
41271SOL     OW25645  14.647  10.994  10.329
41271SOL    HW125646  14.689  11.045  10.259
41271SOL    HW225647  14.556  10.986  10.301
41272SOL     OW25648   5.267  11.508  13.700
41272SOL    HW125649   5.253  11.598  13.669
41272SOL    HW225650   5.285  11.518  13.794
41273SOL     OW25651  14.868  14.360   8.767
41273SOL    HW125652   0.030  14.400   8.691
41273SOL    HW225653  14.800  14.303   8.731
41274SOL     OW25654  10.094  11.414  11.999
41274SOL    HW125655  10.157  11.354  12.037
41274SOL    HW225656  10.146  11.489  11.970
41275SOL     OW25657   7.325   0.734  11.962
41275SOL    HW125658   7.344   0.663  11.901
41275SOL    HW225659   7.326   0.813  11.908
41276SOL     OW25660   7.027   0.120  11.287
41276SOL    HW125661   7.060   0.200  11.328
41276SOL    HW225662   6.971   0.151  11.216
41277SOL     OW25663   5.042   3.066   6.563
41277SOL    HW125664   5.128   3.108   6.560
41277SOL    HW225665   5.061   2.973   6.558
41278SOL     OW25666  13.590  11.530   5.949
41278SOL    HW125667  13.613  11.486   5.868
41278SOL    HW225668  13.625  11.474   6.018
41279SOL     OW25669  11.604   7.377  14.326
41279SOL    HW125670  11.546   7.451  14.341
41279SOL    HW225671  11.578   7.343  14.240
41280SOL     OW25672  13.081   7.856  10.037
41280SOL    HW125673  13.049   7.897  10.117
41280SOL    HW225674  13.038   7.770  10.036
41281SOL     OW25675   3.814   1.676   4.785
41281SOL    HW125676   3.823   1.663   4.880
41281SOL    HW225677   3.720   1.691   4.772
41282SOL     OW25678  13.543   4.075  10.781
41282SOL    HW125679  13.574   3.985  10.768
41282SOL    HW225680  13.452   4.064  10.808
41283SOL     OW25681  13.122   0.488  13.281
41283SOL    HW125682  13.112   0.406  13.233
41283SOL    HW225683  13.037   0.532  13.270
41284SOL     OW25684   6.050  12.032  12.314
41284SOL    HW125685   6.136  12.010  12.348
41284SOL    HW225686   6.019  11.952  12.272
41285SOL     OW25687   9.091   5.960   5.771
41285SOL    HW125688   9.101   5.866   5.785
41285SOL    HW225689   9.178   5.996   5.786
41286SOL     OW25690   2.484  10.156  12.236
41286SOL    HW125691   2.451  10.238  12.199
41286SOL    HW225692   2.497  10.099  12.160
41287SOL     OW25693   1.143   3.873   3.647
41287SOL    HW125694   1.126   3.965   3.624
41287SOL    HW225695   1.063   3.827   3.621
41288SOL     OW25696   2.812  10.182  12.383
41288SOL    HW125697   2.726  10.146  12.362
41288SOL    HW225698   2.802  10.277  12.372
41289SOL     OW25699  14.181   2.553   4.082
41289SOL    HW125700  14.106   2.613   4.087
41289SOL    HW225701  14.142   2.468   4.059
41290SOL     OW25702  11.058  13.539  14.506
41290SOL    HW125703  11.024  13.529  14.417
41290SOL    HW225704  11.085  13.450  14.531
41291SOL     OW25705   8.313   3.115   8.155
41291SOL    HW125706   8.375   3.107   8.227
41291SOL    HW225707   8.324   3.035   8.103
41292SOL     OW25708  12.698   7.195  11.387
41292SOL    HW125709  12.605   7.193  11.366
41292SOL    HW225710  12.711   7.124  11.449
41293SOL     OW25711   6.198   1.757   7.593
41293SOL    HW125712   6.125   1.742   7.653
41293SOL    HW225713   6.269   1.789   7.649
41294SOL     OW25714   6.728   8.914   5.663
41294SOL    HW125715   6.697   8.977   5.598
41294SOL    HW225716   6.722   8.829   5.619
41295SOL     OW25717   4.476   7.356   1.592
41295SOL    HW125718   4.417   7.405   1.534
41295SOL    HW225719   4.561   7.361   1.549
41296SOL     OW25720  11.097  14.523   4.384
41296SOL    HW125721  11.023  14.477   4.344
41296SOL    HW225722  11.058  14.574   4.455
41297SOL     OW25723  12.524   7.426  12.075
41297SOL    HW125724  12.598   7.442  12.016
41297SOL    HW225725  12.482   7.348  12.039
41298SOL     OW25726   1.724  12.534   1.763
41298SOL    HW125727   1.757  12.505   1.678
41298SOL    HW225728   1.645  12.481   1.777
41299SOL     OW25729  14.795   3.209  11.100
41299SOL    HW125730  14.737   3.259  11.043
41299SOL    HW225731  14.784   3.118  11.072
41300SOL     OW25732   4.122   7.901   7.806
41300SOL    HW125733   4.028   7.894   7.785
41300SOL    HW225734   4.132   7.991   7.839
41301SOL     OW25735  10.618   5.298   8.058
41301SOL    HW125736  10.690   5.315   8.119
41301SOL    HW225737  10.540   5.331   8.103
41302SOL     OW25738   3.072   9.865  10.940
41302SOL    HW125739   3.117   9.941  10.904
41302SOL    HW225740   3.106   9.857  11.029
41303SOL     OW25741  12.114   7.573   2.419
41303SOL    HW125742  12.100   7.563   2.514
41303SOL    HW225743  12.128   7.484   2.388
41304SOL     OW25744   5.187   0.092   5.244
41304SOL    HW125745   5.151   0.005   5.257
41304SOL    HW225746   5.257   0.099   5.309
41305SOL     OW25747   6.348   4.481  14.660
41305SOL    HW125748   6.318   4.471  14.750
41305SOL    HW225749   6.377   4.572  14.654
41306SOL     OW25750   5.434   2.684   1.158
41306SOL    HW125751   5.475   2.768   1.141
41306SOL    HW225752   5.462   2.628   1.085
41307SOL     OW25753  14.102   1.776  13.450
41307SOL    HW125754  14.037   1.735  13.507
41307SOL    HW225755  14.137   1.848  13.502
41308SOL     OW25756  11.586   6.409  11.916
41308SOL    HW125757  11.671   6.385  11.880
41308SOL    HW225758  11.547   6.326  11.943
41309SOL     OW25759  10.026  12.073   8.558
41309SOL    HW125760  10.089  12.015   8.515
41309SOL    HW225761  10.080  12.142   8.596
41310SOL     OW25762   3.849   1.475   2.639
41310SOL    HW125763   3.787   1.543   2.665
41310SOL    HW225764   3.921   1.523   2.598
41311SOL     OW25765   2.368   5.473  14.820
41311SOL    HW125766   2.283   5.465  14.778
41311SOL    HW225767   2.410   5.547  14.776
41312SOL     OW25768   6.518  12.189  10.119
41312SOL    HW125769   6.470  12.118  10.075
41312SOL    HW225770   6.531  12.157  10.208
41313SOL     OW25771   3.410   0.167   1.901
41313SOL    HW125772   3.369   0.089   1.863
41313SOL    HW225773   3.340   0.233   1.900
41314SOL     OW25774   1.841   4.911   1.249
41314SOL    HW125775   1.875   4.995   1.218
41314SOL    HW225776   1.908   4.879   1.309
41315SOL     OW25777   2.196   3.775  14.052
41315SOL    HW125778   2.265   3.787  14.117
41315SOL    HW225779   2.121   3.823  14.088
41316SOL     OW25780  13.107   8.550  13.238
41316SOL    HW125781  13.110   8.455  13.226
41316SOL    HW225782  13.195   8.573  13.270
41317SOL     OW25783   9.841   5.644  13.786
41317SOL    HW125784   9.871   5.645  13.877
41317SOL    HW225785   9.918   5.664  13.734
41318SOL     OW25786   4.482   2.549  13.295
41318SOL    HW125787   4.543   2.622  13.290
41318SOL    HW225788   4.396   2.590  13.284
41319SOL     OW25789  10.082   4.936   3.633
41319SOL    HW125790  10.106   4.941   3.541
41319SOL    HW225791  10.062   4.844   3.649
41320SOL     OW25792   9.836  10.159   7.358
41320SOL    HW125793   9.895  10.219   7.311
41320SOL    HW225794   9.756  10.210   7.371
41321SOL     OW25795   5.180  10.450   4.532
41321SOL    HW125796   5.162  10.459   4.438
41321SOL    HW225797   5.101  10.411   4.568
41322SOL     OW25798   1.561  11.596  12.676
41322SOL    HW125799   1.572  11.668  12.738
41322SOL    HW225800   1.504  11.631  12.608
41323SOL     OW25801   4.068   0.618   0.249
41323SOL    HW125802   4.015   0.635   0.171
41323SOL    HW225803   4.142   0.678   0.241
41324SOL     OW25804   0.059  14.333  12.244
41324SOL    HW125805   0.133  14.339  12.304
41324SOL    HW225806  14.862  14.317  12.300
41325SOL     OW25807  10.265  14.420   0.215
41325SOL    HW125808  10.291  14.461   0.297
41325SOL    HW225809  10.326  14.456   0.150
41326SOL     OW25810  13.035  14.504   7.833
41326SOL    HW125811  12.944  14.477   7.838
41326SOL    HW225812  13.037  14.567   7.761
41327SOL     OW25813  10.026   7.173   7.413
41327SOL    HW125814  10.102   7.222   7.443
41327SOL    HW225815   9.968   7.238   7.375
41328SOL     OW25816  10.947  10.114   9.782
41328SOL    HW125817  11.001  10.050   9.736
41328SOL    HW225818  10.965  10.098   9.875
41329SOL     OW25819   8.024  13.747   7.500
41329SOL    HW125820   8.115  13.719   7.489
41329SOL    HW225821   7.972  13.672   7.471
41330SOL     OW25822   3.183  14.087  11.870
41330SOL    HW125823   3.249  14.111  11.935
41330SOL    HW225824   3.229  14.094  11.786
41331SOL     OW25825   8.945   9.641  10.352
41331SOL    HW125826   9.040   9.645  10.358
41331SOL    HW225827   8.919   9.570  10.410
41332SOL     OW25828  14.523   9.585   5.649
41332SOL    HW125829  14.571   9.667   5.634
41332SOL    HW225830  14.432   9.607   5.631
41333SOL     OW25831   7.398   7.839   4.505
41333SOL    HW125832   7.362   7.859   4.419
41333SOL    HW225833   7.490   7.864   4.499
41334SOL     OW25834   5.527   4.241   4.360
41334SOL    HW125835   5.469   4.267   4.432
41334SOL    HW225836   5.610   4.283   4.381
41335SOL     OW25837   9.272   4.464   2.683
41335SOL    HW125838   9.250   4.557   2.687
41335SOL    HW225839   9.355   4.462   2.635
41336SOL     OW25840   6.660  11.884   4.164
41336SOL    HW125841   6.584  11.942   4.171
41336SOL    HW225842   6.628  11.809   4.115
41337SOL     OW25843   8.848   3.719  14.349
41337SOL    HW125844   8.855   3.655  14.420
41337SOL    HW225845   8.937   3.752  14.339
41338SOL     OW25846   8.064   3.320   0.857
41338SOL    HW125847   7.998   3.266   0.900
41338SOL    HW225848   8.022   3.350   0.776
41339SOL     OW25849   1.887  13.284  13.345
41339SOL    HW125850   1.890  13.356  13.407
41339SOL    HW225851   1.807  13.236  13.368
41340SOL     OW25852   0.927  12.170   8.560
41340SOL    HW125853   0.920  12.113   8.637
41340SOL    HW225854   1.003  12.224   8.577
41341SOL     OW25855   3.750   2.834   7.238
41341SOL    HW125856   3.663   2.795   7.249
41341SOL    HW225857   3.734   2.928   7.230
41342SOL     OW25858   6.419   2.816  11.614
41342SOL    HW125859   6.408   2.750  11.682
41342SOL    HW225860   6.331   2.849  11.597
41343SOL     OW25861  10.504   9.884  13.501
41343SOL    HW125862  10.456   9.962  13.476
41343SOL    HW225863  10.544   9.905  13.586
41344SOL     OW25864   7.377   3.281   0.423
41344SOL    HW125865   7.449   3.258   0.364
41344SOL    HW225866   7.308   3.217   0.402
41345SOL     OW25867  11.983   6.315  10.310
41345SOL    HW125868  12.006   6.229  10.344
41345SOL    HW225869  11.888   6.319  10.317
41346SOL     OW25870   8.325   0.419  13.063
41346SOL    HW125871   8.380   0.345  13.039
41346SOL    HW225872   8.375   0.467  13.129
41347SOL     OW25873   4.050   4.515   7.061
41347SOL    HW125874   4.030   4.538   7.152
41347SOL    HW225875   4.145   4.503   7.061
41348SOL     OW25876   6.380   9.087   2.847
41348SOL    HW125877   6.458   9.033   2.832
41348SOL    HW225878   6.412   9.177   2.837
41349SOL     OW25879   2.436   2.985   4.889
41349SOL    HW125880   2.405   2.964   4.801
41349SOL    HW225881   2.372   2.945   4.947
41350SOL     OW25882  12.640   6.648  14.148
41350SOL    HW125883  12.732   6.650  14.122
41350SOL    HW225884  12.593   6.622  14.069
41351SOL     OW25885  11.642   4.763   0.113
41351SOL    HW125886  11.690   4.773   0.196
41351SOL    HW225887  11.699   4.800   0.047
41352SOL     OW25888  14.297   8.725   1.684
41352SOL    HW125889  14.253   8.739   1.768
41352SOL    HW225890  14.250   8.780   1.622
41353SOL     OW25891   6.510  12.309  13.916
41353SOL    HW125892   6.504  12.233  13.858
41353SOL    HW225893   6.482  12.276  14.001
41354SOL     OW25894   4.052   9.590   0.187
41354SOL    HW125895   4.148   9.598   0.188
41354SOL    HW225896   4.031   9.533   0.261
41355SOL     OW25897  10.109   4.894  10.664
41355SOL    HW125898  10.047   4.889  10.590
41355SOL    HW225899  10.055   4.917  10.739
41356SOL     OW25900  13.344   6.139   4.624
41356SOL    HW125901  13.312   6.157   4.713
41356SOL    HW225902  13.369   6.225   4.591
41357SOL     OW25903   9.532  14.558   8.305
41357SOL    HW125904   9.540  14.654   8.304
41357SOL    HW225905   9.606  14.528   8.358
41358SOL     OW25906   2.547   6.028   8.904
41358SOL    HW125907   2.583   6.040   8.817
41358SOL    HW225908   2.582   6.101   8.955
41359SOL     OW25909   2.101  14.310   1.204
41359SOL    HW125910   2.129  14.259   1.128
41359SOL    HW225911   2.052  14.248   1.258
41360SOL     OW25912   5.824   8.553   1.255
41360SOL    HW125913   5.746   8.598   1.288
41360SOL    HW225914   5.800   8.460   1.257
41361SOL     OW25915   6.265   2.894   1.325
41361SOL    HW125916   6.323   2.964   1.296
41361SOL    HW225917   6.208   2.935   1.390
41362SOL     OW25918   1.230  13.783  10.397
41362SOL    HW125919   1.171  13.856  10.377
41362SOL    HW225920   1.248  13.743  10.312
41363SOL     OW25921  14.444  12.203   8.892
41363SOL    HW125922  14.521  12.177   8.842
41363SOL    HW225923  14.403  12.121   8.918
41364SOL     OW25924   9.440   4.317   4.623
41364SOL    HW125925   9.387   4.341   4.699
41364SOL    HW225926   9.415   4.226   4.606
41365SOL     OW25927  12.761  14.360   8.954
41365SOL    HW125928  12.792  14.306   8.881
41365SOL    HW225929  12.737  14.297   9.022
41366SOL     OW25930   4.295   5.239   4.299
41366SOL    HW125931   4.210   5.196   4.307
41366SOL    HW225932   4.283   5.323   4.343
41367SOL     OW25933  11.563  14.467  12.689
41367SOL    HW125934  11.485  14.431  12.647
41367SOL    HW225935  11.635  14.444  12.630
41368SOL     OW25936   9.680   7.082   5.443
41368SOL    HW125937   9.615   7.021   5.479
41368SOL    HW225938   9.733   7.107   5.519
41369SOL     OW25939  13.289   1.527   4.495
41369SOL    HW125940  13.339   1.541   4.575
41369SOL    HW225941  13.241   1.445   4.511
41370SOL     OW25942   6.875  14.742   6.632
41370SOL    HW125943   6.883  14.697   6.716
41370SOL    HW225944   6.788  14.783   6.634
41371SOL     OW25945   3.002   9.948  10.098
41371SOL    HW125946   2.909   9.923  10.103
41371SOL    HW225947   3.047   9.883  10.153
41372SOL     OW25948   8.301   0.722   5.748
41372SOL    HW125949   8.269   0.702   5.836
41372SOL    HW225950   8.234   0.687   5.690
41373SOL     OW25951  11.112   3.883  11.933
41373SOL    HW125952  11.066   3.834  11.865
41373SOL    HW225953  11.184   3.926  11.886
41374SOL     OW25954  10.340  14.563   9.687
41374SOL    HW125955  10.344  14.474   9.652
41374SOL    HW225956  10.268  14.561   9.750
41375SOL     OW25957  11.458   9.269   1.156
41375SOL    HW125958  11.406   9.286   1.235
41375SOL    HW225959  11.409   9.201   1.109
41376SOL     OW25960  10.912   4.727   2.093
41376SOL    HW125961  11.006   4.719   2.077
41376SOL    HW225962  10.875   4.753   2.008
41377SOL     OW25963   7.086   6.380  12.342
41377SOL    HW125964   7.139   6.419  12.412
41377SOL    HW225965   7.141   6.386  12.264
41378SOL     OW25966   2.069  12.666   4.633
41378SOL    HW125967   2.143  12.715   4.669
41378SOL    HW225968   1.994  12.695   4.685
41379SOL     OW25969   3.702  11.746  11.222
41379SOL    HW125970   3.716  11.675  11.286
41379SOL    HW225971   3.766  11.813  11.246
41380SOL     OW25972   3.302   1.577   4.068
41380SOL    HW125973   3.224   1.528   4.093
41380SOL    HW225974   3.275   1.628   3.991
41381SOL     OW25975   2.761  10.687  10.885
41381SOL    HW125976   2.780  10.775  10.851
41381SOL    HW225977   2.766  10.630  10.808
41382SOL     OW25978  13.509  13.314   9.770
41382SOL    HW125979  13.422  13.277   9.752
41382SOL    HW225980  13.510  13.328   9.864
41383SOL     OW25981   0.050   4.554  12.814
41383SOL    HW125982   0.053   4.470  12.767
41383SOL    HW225983   0.104   4.612  12.761
41384SOL     OW25984  11.183  14.178   8.084
41384SOL    HW125985  11.107  14.195   8.029
41384SOL    HW225986  11.203  14.085   8.070
41385SOL     OW25987  11.537   8.564   2.225
41385SOL    HW125988  11.471   8.540   2.289
41385SOL    HW225989  11.612   8.507   2.244
41386SOL     OW25990   4.478  14.676   0.644
41386SOL    HW125991   4.395  14.630   0.633
41386SOL    HW225992   4.486  14.689   0.738
41387SOL     OW25993   2.732   8.005   6.381
41387SOL    HW125994   2.649   7.995   6.334
41387SOL    HW225995   2.798   7.978   6.317
41388SOL     OW25996   6.691   3.124   0.051
41388SOL    HW125997   6.744   3.175   0.112
41388SOL    HW225998   6.713   3.160  14.843
41389SOL     OW25999  11.921   2.870  11.697
41389SOL    HW126000  11.827   2.883  11.680
41389SOL    HW226001  11.956   2.840  11.614
41390SOL     OW26002   0.906  11.268   7.862
41390SOL    HW126003   0.894  11.173   7.867
41390SOL    HW226004   0.836  11.304   7.915
41391SOL     OW26005   5.761   8.689  11.018
41391SOL    HW126006   5.697   8.640  10.966
41391SOL    HW226007   5.845   8.670  10.976
41392SOL     OW26008   4.568   7.848  12.145
41392SOL    HW126009   4.526   7.804  12.219
41392SOL    HW226010   4.555   7.942  12.164
41393SOL     OW26011  13.808   5.609   5.125
41393SOL    HW126012  13.768   5.663   5.056
41393SOL    HW226013  13.734   5.561   5.163
41394SOL     OW26014   9.257   9.565  11.599
41394SOL    HW126015   9.250   9.501  11.670
41394SOL    HW226016   9.346   9.554  11.565
41395SOL     OW26017   8.062  10.682  11.691
41395SOL    HW126018   8.103  10.676  11.777
41395SOL    HW226019   8.098  10.763  11.654
41396SOL     OW26020   4.463  13.089   1.572
41396SOL    HW126021   4.408  13.029   1.521
41396SOL    HW226022   4.407  13.119   1.643
41397SOL     OW26023  13.805   6.369   6.900
41397SOL    HW126024  13.750   6.437   6.861
41397SOL    HW226025  13.744   6.305   6.936
41398SOL     OW26026   0.885  12.594   6.958
41398SOL    HW126027   0.943  12.553   7.023
41398SOL    HW226028   0.841  12.520   6.915
41399SOL     OW26029   8.877   3.285  13.296
41399SOL    HW126030   8.793   3.244  13.275
41399SOL    HW226031   8.927   3.279  13.215
41400SOL     OW26032  13.803   8.289   2.828
41400SOL    HW126033  13.841   8.274   2.915
41400SOL    HW226034  13.847   8.225   2.772
41401SOL     OW26035   9.706   3.651  14.054
41401SOL    HW126036   9.643   3.685  13.991
41401SOL    HW226037   9.788   3.697  14.035
41402SOL     OW26038   8.920  11.600   6.064
41402SOL    HW126039   8.841  11.549   6.082
41402SOL    HW226040   8.887  11.688   6.041
41403SOL     OW26041   8.808   7.247   2.933
41403SOL    HW126042   8.862   7.257   2.854
41403SOL    HW226043   8.729   7.203   2.902
41404SOL     OW26044   3.697   6.914   9.043
41404SOL    HW126045   3.781   6.943   9.007
41404SOL    HW226046   3.719   6.839   9.099
41405SOL     OW26047   1.733  12.085   7.006
41405SOL    HW126048   1.702  12.032   7.080
41405SOL    HW226049   1.698  12.173   7.023
41406SOL     OW26050   7.232   6.046   5.508
41406SOL    HW126051   7.300   5.979   5.503
41406SOL    HW226052   7.266   6.111   5.569
41407SOL     OW26053  14.817  13.061   8.152
41407SOL    HW126054  14.801  12.987   8.093
41407SOL    HW226055  14.759  13.130   8.120
41408SOL     OW26056   9.271   0.141  11.901
41408SOL    HW126057   9.291   0.050  11.921
41408SOL    HW226058   9.244   0.178  11.986
41409SOL     OW26059  13.061   6.426   1.859
41409SOL    HW126060  13.009   6.365   1.912
41409SOL    HW226061  13.091   6.372   1.785
41410SOL     OW26062  12.294  14.648   8.102
41410SOL    HW126063  12.229  14.578   8.106
41410SOL    HW226064  12.377  14.602   8.086
41411SOL     OW26065   7.986  13.539  14.625
41411SOL    HW126066   8.043  13.464  14.642
41411SOL    HW226067   7.997  13.557  14.532
41412SOL     OW26068   0.490  14.670  10.568
41412SOL    HW126069   0.408  14.621  10.558
41412SOL    HW226070   0.472  14.730  10.641
41413SOL     OW26071   0.358   5.031  14.070
41413SOL    HW126072   0.411   5.031  13.991
41413SOL    HW226073   0.421   5.037  14.141
41414SOL     OW26074   5.564   7.228   7.934
41414SOL    HW126075   5.516   7.230   7.851
41414SOL    HW226076   5.656   7.240   7.909
41415SOL     OW26077   6.039   3.706  11.601
41415SOL    HW126078   6.108   3.655  11.559
41415SOL    HW226079   5.995   3.751  11.530
41416SOL     OW26080  13.922   6.131   0.965
41416SOL    HW126081  13.902   6.039   0.983
41416SOL    HW226082  13.872   6.152   0.887
41417SOL     OW26083  12.099  13.050   3.237
41417SOL    HW126084  12.036  12.981   3.254
41417SOL    HW226085  12.156  13.015   3.169
41418SOL     OW26086  13.948  13.464   1.197
41418SOL    HW126087  13.911  13.535   1.249
41418SOL    HW226088  14.002  13.416   1.259
41419SOL     OW26089  12.114   7.882   1.492
41419SOL    HW126090  12.061   7.946   1.444
41419SOL    HW226091  12.058   7.805   1.499
41420SOL     OW26092   1.961   9.646   3.698
41420SOL    HW126093   1.930   9.595   3.773
41420SOL    HW226094   1.942   9.592   3.622
41421SOL     OW26095   0.131  13.558   2.270
41421SOL    HW126096   0.148  13.652   2.270
41421SOL    HW226097   0.051  13.548   2.322
41422SOL     OW26098  10.395   1.044   4.624
41422SOL    HW126099  10.363   1.049   4.534
41422SOL    HW226100  10.441   0.960   4.629
41423SOL     OW26101   0.953   9.526   4.488
41423SOL    HW126102   0.971   9.433   4.473
41423SOL    HW226103   0.859   9.529   4.508
41424SOL     OW26104   4.437   5.993   1.817
41424SOL    HW126105   4.448   6.034   1.903
41424SOL    HW226106   4.359   6.034   1.780
41425SOL     OW26107  10.796   4.379   3.813
41425SOL    HW126108  10.756   4.461   3.840
41425SOL    HW226109  10.726   4.331   3.769
41426SOL     OW26110   0.452   7.470  13.387
41426SOL    HW126111   0.547   7.478  13.392
41426SOL    HW226112   0.425   7.453  13.477
41427SOL     OW26113  13.121  13.122   2.779
41427SOL    HW126114  13.059  13.156   2.844
41427SOL    HW226115  13.203  13.114   2.828
41428SOL     OW26116   6.946  13.846   1.413
41428SOL    HW126117   6.893  13.842   1.493
41428SOL    HW226118   7.010  13.915   1.430
41429SOL     OW26119   3.352  14.803   7.093
41429SOL    HW126120   3.432  14.779   7.045
41429SOL    HW226121   3.320  14.721   7.130
41430SOL     OW26122  14.787   0.506  12.949
41430SOL    HW126123  14.819   0.491  12.860
41430SOL    HW226124  14.863   0.489  13.004
41431SOL     OW26125   2.100   7.014   9.571
41431SOL    HW126126   2.013   6.989   9.539
41431SOL    HW226127   2.143   7.053   9.495
41432SOL     OW26128   5.455   0.223   0.729
41432SOL    HW126129   5.442   0.148   0.787
41432SOL    HW226130   5.469   0.297   0.787
41433SOL     OW26131  12.486  12.153   3.927
41433SOL    HW126132  12.567  12.139   3.976
41433SOL    HW226133  12.479  12.249   3.921
41434SOL     OW26134   0.902   4.171  10.833
41434SOL    HW126135   0.823   4.131  10.796
41434SOL    HW226136   0.966   4.169  10.762
41435SOL     OW26137  12.433  14.011  12.135
41435SOL    HW126138  12.501  14.059  12.088
41435SOL    HW226139  12.351  14.036  12.091
41436SOL     OW26140   1.148  10.658   1.680
41436SOL    HW126141   1.240  10.634   1.695
41436SOL    HW226142   1.147  10.754   1.685
41437SOL     OW26143  12.751   0.825   7.049
41437SOL    HW126144  12.759   0.894   7.115
41437SOL    HW226145  12.687   0.764   7.086
41438SOL     OW26146   6.784  12.772   5.689
41438SOL    HW126147   6.779  12.814   5.604
41438SOL    HW226148   6.693  12.749   5.710
41439SOL     OW26149  11.909   7.849   7.520
41439SOL    HW126150  11.870   7.890   7.597
41439SOL    HW226151  11.836   7.834   7.461
41440SOL     OW26152   5.903   0.935   3.276
41440SOL    HW126153   5.861   0.972   3.353
41440SOL    HW226154   5.991   0.974   3.276
41441SOL     OW26155   0.269   0.969  12.130
41441SOL    HW126156   0.358   0.951  12.097
41441SOL    HW226157   0.283   1.025  12.207
41442SOL     OW26158   1.701  12.157   5.910
41442SOL    HW126159   1.631  12.147   5.845
41442SOL    HW226160   1.659  12.139   5.993
41443SOL     OW26161   4.310   7.647  13.728
41443SOL    HW126162   4.401   7.670  13.709
41443SOL    HW226163   4.273   7.727  13.765
41444SOL     OW26164  10.036  13.165  11.793
41444SOL    HW126165  10.049  13.255  11.825
41444SOL    HW226166  10.012  13.176  11.701
41445SOL     OW26167   2.652  12.582   3.406
41445SOL    HW126168   2.705  12.538   3.340
41445SOL    HW226169   2.587  12.517   3.431
41446SOL     OW26170   1.965  12.927   8.956
41446SOL    HW126171   1.986  12.834   8.970
41446SOL    HW226172   1.873  12.934   8.979
41447SOL     OW26173  14.081  11.284   7.132
41447SOL    HW126174  14.048  11.197   7.111
41447SOL    HW226175  14.003  11.334   7.157
41448SOL     OW26176   8.735  14.434   0.601
41448SOL    HW126177   8.798  14.362   0.603
41448SOL    HW226178   8.722  14.457   0.693
41449SOL     OW26179   2.804   1.201  10.305
41449SOL    HW126180   2.867   1.220  10.236
41449SOL    HW226181   2.771   1.114  10.284
41450SOL     OW26182  11.725  11.488  13.977
41450SOL    HW126183  11.732  11.437  14.057
41450SOL    HW226184  11.641  11.461  13.938
41451SOL     OW26185   7.200   2.943   7.404
41451SOL    HW126186   7.138   2.929   7.475
41451SOL    HW226187   7.226   2.855   7.377
41452SOL     OW26188  10.400   0.920   1.487
41452SOL    HW126189  10.403   0.986   1.417
41452SOL    HW226190  10.365   0.842   1.445
41453SOL     OW26191   4.698  10.075  11.827
41453SOL    HW126192   4.638  10.087  11.902
41453SOL    HW226193   4.654  10.010  11.772
41454SOL     OW26194   0.668  14.183   0.421
41454SOL    HW126195   0.710  14.199   0.506
41454SOL    HW226196   0.721  14.233   0.359
41455SOL     OW26197   4.994   1.533   7.231
41455SOL    HW126198   4.980   1.512   7.139
41455SOL    HW226199   4.989   1.448   7.276
41456SOL     OW26200   4.261   5.762   7.501
41456SOL    HW126201   4.280   5.814   7.422
41456SOL    HW226202   4.347   5.744   7.539
41457SOL     OW26203  13.923   3.494   4.692
41457SOL    HW126204  13.836   3.533   4.703
41457SOL    HW226205  13.921   3.416   4.748
41458SOL     OW26206   8.161  12.608   5.659
41458SOL    HW126207   8.084  12.648   5.620
41458SOL    HW226208   8.131  12.522   5.691
41459SOL     OW26209   7.065   8.105   8.538
41459SOL    HW126210   6.988   8.162   8.540
41459SOL    HW226211   7.041   8.034   8.480
41460SOL     OW26212   9.516  13.965   1.089
41460SOL    HW126213   9.566  13.982   1.168
41460SOL    HW226214   9.483  14.051   1.062
41461SOL     OW26215   0.333   3.313   8.996
41461SOL    HW126216   0.412   3.266   8.967
41461SOL    HW226217   0.364   3.403   9.012
41462SOL     OW26218   4.777   5.102  12.409
41462SOL    HW126219   4.811   5.106  12.320
41462SOL    HW226220   4.708   5.036  12.406
41463SOL     OW26221  12.618  11.291  10.869
41463SOL    HW126222  12.700  11.257  10.904
41463SOL    HW226223  12.550  11.256  10.926
41464SOL     OW26224   0.003  14.476   3.188
41464SOL    HW126225  14.838  14.511   3.110
41464SOL    HW226226  14.833  14.397   3.210
41465SOL     OW26227   4.122   1.666  11.697
41465SOL    HW126228   4.034   1.675  11.661
41465SOL    HW226229   4.170   1.741  11.661
41466SOL     OW26230  14.439  12.875   0.135
41466SOL    HW126231  14.411  12.966   0.124
41466SOL    HW226232  14.459  12.846   0.046
41467SOL     OW26233   5.389   5.072   3.371
41467SOL    HW126234   5.358   5.115   3.451
41467SOL    HW226235   5.330   5.103   3.302
41468SOL     OW26236   9.599   1.789  11.856
41468SOL    HW126237   9.585   1.883  11.845
41468SOL    HW226238   9.645   1.781  11.940
41469SOL     OW26239   8.423   9.561  11.978
41469SOL    HW126240   8.460   9.649  11.987
41469SOL    HW226241   8.354   9.571  11.913
41470SOL     OW26242   7.772   9.045  14.081
41470SOL    HW126243   7.863   9.017  14.071
41470SOL    HW226244   7.733   9.033  13.994
41471SOL     OW26245   9.555   1.072   3.984
41471SOL    HW126246   9.519   1.154   4.017
41471SOL    HW226247   9.637   1.097   3.941
41472SOL     OW26248  12.591   9.049   9.279
41472SOL    HW126249  12.638   9.007   9.351
41472SOL    HW226250  12.640   9.129   9.262
41473SOL     OW26251  12.158   1.290  12.666
41473SOL    HW126252  12.158   1.235  12.588
41473SOL    HW226253  12.070   1.327  12.670
41474SOL     OW26254   8.760   4.862   7.997
41474SOL    HW126255   8.737   4.921   7.924
41474SOL    HW226256   8.856   4.855   7.992
41475SOL     OW26257  11.806   9.332  11.117
41475SOL    HW126258  11.711   9.327  11.118
41475SOL    HW226259  11.829   9.368  11.031
41476SOL     OW26260  11.514   2.641  12.353
41476SOL    HW126261  11.593   2.619  12.304
41476SOL    HW226262  11.463   2.560  12.353
41477SOL     OW26263  12.223   7.349   5.619
41477SOL    HW126264  12.152   7.291   5.591
41477SOL    HW226265  12.270   7.298   5.685
41478SOL     OW26266  12.768   8.312   9.656
41478SOL    HW126267  12.674   8.308   9.639
41478SOL    HW226268  12.775   8.332   9.749
41479SOL     OW26269   9.965   2.750  12.240
41479SOL    HW126270   9.969   2.816  12.310
41479SOL    HW226271   9.935   2.799  12.163
41480SOL     OW26272   2.428   4.827   9.533
41480SOL    HW126273   2.362   4.764   9.503
41480SOL    HW226274   2.419   4.901   9.473
41481SOL     OW26275   6.308   1.759   0.999
41481SOL    HW126276   6.370   1.686   0.993
41481SOL    HW226277   6.306   1.780   1.092
41482SOL     OW26278   2.860   9.129   6.109
41482SOL    HW126279   2.854   9.099   6.200
41482SOL    HW226280   2.902   9.215   6.114
41483SOL     OW26281   9.028   1.532   1.196
41483SOL    HW126282   9.118   1.511   1.220
41483SOL    HW226283   9.020   1.508   1.104
41484SOL     OW26284   5.443   6.928   1.619
41484SOL    HW126285   5.474   6.955   1.706
41484SOL    HW226286   5.523   6.912   1.569
41485SOL     OW26287   5.774  11.515  13.018
41485SOL    HW126288   5.695  11.558  12.986
41485SOL    HW226289   5.846  11.568  12.986
41486SOL     OW26290   9.874   6.788   1.395
41486SOL    HW126291   9.882   6.705   1.348
41486SOL    HW226292   9.961   6.805   1.430
41487SOL     OW26293  11.233   8.379   9.219
41487SOL    HW126294  11.285   8.324   9.277
41487SOL    HW226295  11.143   8.349   9.232
41488SOL     OW26296   9.899   3.443   8.800
41488SOL    HW126297   9.861   3.493   8.729
41488SOL    HW226298   9.965   3.501   8.838
41489SOL     OW26299   7.532   5.523   3.816
41489SOL    HW126300   7.580   5.442   3.837
41489SOL    HW226301   7.510   5.561   3.901
41490SOL     OW26302  13.144  14.300   5.850
41490SOL    HW126303  13.152  14.270   5.940
41490SOL    HW226304  13.222  14.352   5.835
41491SOL     OW26305   9.574   0.253   9.192
41491SOL    HW126306   9.540   0.269   9.104
41491SOL    HW226307   9.588   0.159   9.195
41492SOL     OW26308   2.144   5.984   3.185
41492SOL    HW126309   2.049   5.993   3.191
41492SOL    HW226310   2.161   5.895   3.215
41493SOL     OW26311   2.529   7.184   5.805
41493SOL    HW126312   2.536   7.169   5.711
41493SOL    HW226313   2.541   7.097   5.844
41494SOL     OW26314   3.295   9.881   3.131
41494SOL    HW126315   3.270   9.890   3.039
41494SOL    HW226316   3.380   9.837   3.128
41495SOL     OW26317  12.184   4.609   5.563
41495SOL    HW126318  12.112   4.670   5.578
41495SOL    HW226319  12.159   4.531   5.613
41496SOL     OW26320  14.345   4.930  14.337
41496SOL    HW126321  14.346   5.026  14.348
41496SOL    HW226322  14.398   4.897  14.409
41497SOL     OW26323   9.948   5.838   5.404
41497SOL    HW126324   9.891   5.809   5.332
41497SOL    HW226325   9.929   5.931   5.413
41498SOL     OW26326  12.907  10.802   5.006
41498SOL    HW126327  12.895  10.707   5.008
41498SOL    HW226328  12.986  10.817   5.058
41499SOL     OW26329   7.355   1.323   3.186
41499SOL    HW126330   7.438   1.276   3.189
41499SOL    HW226331   7.311   1.290   3.108
41500SOL     OW26332   9.633   6.648   0.290
41500SOL    HW126333   9.616   6.680   0.201
41500SOL    HW226334   9.614   6.555   0.286
41501SOL     OW26335   7.198   3.613   9.740
41501SOL    HW126336   7.129   3.561   9.782
41501SOL    HW226337   7.212   3.686   9.801
41502SOL     OW26338   1.087   1.076   1.083
41502SOL    HW126339   1.053   1.165   1.094
41502SOL    HW226340   1.067   1.033   1.166
41503SOL     OW26341   6.142   2.101  13.299
41503SOL    HW126342   6.212   2.163  13.321
41503SOL    HW226343   6.097   2.086  13.381
41504SOL     OW26344  11.216   6.475   4.826
41504SOL    HW126345  11.182   6.434   4.906
41504SOL    HW226346  11.275   6.544   4.858
41505SOL     OW26347   8.344   6.987  14.766
41505SOL    HW126348   8.411   6.932  14.805
41505SOL    HW226349   8.391   7.066  14.737
41506SOL     OW26350   3.942   8.337   9.393
41506SOL    HW126351   3.885   8.381   9.456
41506SOL    HW226352   3.913   8.369   9.308
41507SOL     OW26353   2.469   4.685  11.159
41507SOL    HW126354   2.540   4.738  11.123
41507SOL    HW226355   2.513   4.617  11.210
41508SOL     OW26356   9.305  13.412   2.369
41508SOL    HW126357   9.229  13.423   2.425
41508SOL    HW226358   9.357  13.344   2.411
41509SOL     OW26359   2.570   0.343  13.352
41509SOL    HW126360   2.615   0.273  13.398
41509SOL    HW226361   2.634   0.413  13.345
41510SOL     OW26362   1.216  11.846   5.586
41510SOL    HW126363   1.256  11.824   5.670
41510SOL    HW226364   1.219  11.764   5.536
41511SOL     OW26365  13.928   7.048  11.190
41511SOL    HW126366  13.952   6.969  11.237
41511SOL    HW226367  13.883   7.103  11.254
41512SOL     OW26368   8.589   0.089   1.548
41512SOL    HW126369   8.664   0.043   1.510
41512SOL    HW226370   8.628   0.153   1.607
41513SOL     OW26371   3.533   3.876   5.537
41513SOL    HW126372   3.617   3.833   5.520
41513SOL    HW226373   3.479   3.855   5.461
41514SOL     OW26374   5.090  14.602   3.469
41514SOL    HW126375   5.036  14.528   3.499
41514SOL    HW226376   5.180  14.575   3.486
41515SOL     OW26377   9.582   8.962   6.648
41515SOL    HW126378   9.509   9.013   6.612
41515SOL    HW226379   9.647   8.961   6.578
41516SOL     OW26380   3.880   2.759   2.687
41516SOL    HW126381   3.944   2.688   2.693
41516SOL    HW226382   3.830   2.739   2.608
41517SOL     OW26383   6.085   5.495   6.140
41517SOL    HW126384   6.179   5.481   6.135
41517SOL    HW226385   6.076   5.590   6.150
41518SOL     OW26386   7.901   8.414   1.561
41518SOL    HW126387   7.908   8.319   1.555
41518SOL    HW226388   7.900   8.433   1.655
41519SOL     OW26389   7.841   3.561   5.999
41519SOL    HW126390   7.790   3.591   6.074
41519SOL    HW226391   7.802   3.607   5.924
41520SOL     OW26392  10.122  14.580   6.224
41520SOL    HW126393  10.154  14.668   6.204
41520SOL    HW226394  10.063  14.593   6.299
41521SOL     OW26395   7.384   2.706   0.091
41521SOL    HW126396   7.422   2.740   0.010
41521SOL    HW226397   7.458   2.668   0.139
41522SOL     OW26398  11.026   2.816  11.083
41522SOL    HW126399  11.054   2.728  11.059
41522SOL    HW226400  11.107   2.864  11.101
41523SOL     OW26401   0.936   1.152   1.650
41523SOL    HW126402   0.922   1.067   1.608
41523SOL    HW226403   0.912   1.216   1.583
41524SOL     OW26404   7.517   1.072  12.003
41524SOL    HW126405   7.555   1.095  12.088
41524SOL    HW226406   7.482   1.155  11.969
41525SOL     OW26407   5.181   2.956   8.137
41525SOL    HW126408   5.177   2.972   8.231
41525SOL    HW226409   5.091   2.937   8.112
41526SOL     OW26410  12.137   2.200   2.793
41526SOL    HW126411  12.195   2.252   2.738
41526SOL    HW226412  12.173   2.208   2.881
41527SOL     OW26413   3.609   8.632   4.815
41527SOL    HW126414   3.578   8.707   4.866
41527SOL    HW226415   3.700   8.653   4.795
41528SOL     OW26416   0.312   3.652  13.243
41528SOL    HW126417   0.398   3.646  13.284
41528SOL    HW226418   0.255   3.684  13.313
41529SOL     OW26419  10.862  13.102  14.524
41529SOL    HW126420  10.940  13.124  14.472
41529SOL    HW226421  10.864  13.006  14.530
41530SOL     OW26422   3.454  14.334  14.727
41530SOL    HW126423   3.444  14.423  14.762
41530SOL    HW226424   3.537  14.336  14.680
41531SOL     OW26425  12.196   2.212   8.805
41531SOL    HW126426  12.187   2.261   8.724
41531SOL    HW226427  12.156   2.268   8.872
41532SOL     OW26428   4.398   0.810   5.361
41532SOL    HW126429   4.379   0.716   5.362
41532SOL    HW226430   4.327   0.849   5.412
41533SOL     OW26431  12.220  11.292   2.537
41533SOL    HW126432  12.249  11.330   2.620
41533SOL    HW226433  12.263  11.344   2.470
41534SOL     OW26434  11.454   3.721   8.302
41534SOL    HW126435  11.392   3.655   8.270
41534SOL    HW226436  11.403   3.802   8.306
41535SOL     OW26437  13.620   3.886  12.669
41535SOL    HW126438  13.705   3.931  12.670
41535SOL    HW226439  13.586   3.898  12.758
41536SOL     OW26440   0.121  12.585   5.396
41536SOL    HW126441   0.080  12.653   5.448
41536SOL    HW226442   0.048  12.532   5.363
41537SOL     OW26443   0.565  13.008   4.322
41537SOL    HW126444   0.600  13.066   4.390
41537SOL    HW226445   0.605  12.923   4.341
41538SOL     OW26446  14.608   1.774   2.052
41538SOL    HW126447  14.683   1.810   2.099
41538SOL    HW226448  14.628   1.681   2.042
41539SOL     OW26449  13.184  10.820   8.333
41539SOL    HW126450  13.273  10.798   8.361
41539SOL    HW226451  13.138  10.840   8.415
41540SOL     OW26452   4.548  10.606   4.159
41540SOL    HW126453   4.486  10.535   4.177
41540SOL    HW226454   4.495  10.674   4.118
41541SOL     OW26455   2.440   5.081  13.553
41541SOL    HW126456   2.442   5.007  13.493
41541SOL    HW226457   2.382   5.144  13.510
41542SOL     OW26458   4.847  10.068   9.885
41542SOL    HW126459   4.855  10.006   9.813
41542SOL    HW226460   4.823  10.015   9.961
41543SOL     OW26461   6.430  13.548  14.516
41543SOL    HW126462   6.369  13.588  14.453
41543SOL    HW226463   6.464  13.471  14.471
41544SOL     OW26464   7.004   8.230   7.747
41544SOL    HW126465   7.028   8.322   7.755
41544SOL    HW226466   7.048   8.187   7.820
41545SOL     OW26467   1.484  13.715   7.606
41545SOL    HW126468   1.570  13.727   7.566
41545SOL    HW226469   1.497  13.650   7.674
41546SOL     OW26470   2.947   1.703   9.219
41546SOL    HW126471   2.983   1.789   9.242
41546SOL    HW226472   3.001   1.641   9.268
41547SOL     OW26473   8.983  14.236   0.040
41547SOL    HW126474   9.030  14.205  14.841
41547SOL    HW226475   8.948  14.157   0.080
41548SOL     OW26476   4.409  12.928   3.856
41548SOL    HW126477   4.426  12.860   3.791
41548SOL    HW226478   4.320  12.910   3.887
41549SOL     OW26479   0.835   3.183   0.593
41549SOL    HW126480   0.832   3.239   0.670
41549SOL    HW226481   0.757   3.129   0.600
41550SOL     OW26482  10.362   5.707   7.787
41550SOL    HW126483  10.267   5.707   7.774
41550SOL    HW226484  10.392   5.786   7.742
41551SOL     OW26485  10.375   9.547  11.306
41551SOL    HW126486  10.369   9.573  11.214
41551SOL    HW226487  10.288   9.512  11.326
41552SOL     OW26488   9.800   7.518   9.959
41552SOL    HW126489   9.813   7.435  10.005
41552SOL    HW226490   9.705   7.532   9.963
41553SOL     OW26491   3.942   7.667  14.277
41553SOL    HW126492   4.022   7.621  14.302
41553SOL    HW226493   3.945   7.750  14.325
41554SOL     OW26494  14.811  13.260  10.889
41554SOL    HW126495  14.875  13.198  10.923
41554SOL    HW226496  14.772  13.214  10.814
41555SOL     OW26497   3.435   6.115  10.994
41555SOL    HW126498   3.464   6.028  11.022
41555SOL    HW226499   3.516   6.161  10.970
41556SOL     OW26500   0.108   7.484  10.834
41556SOL    HW126501   0.198   7.518  10.835
41556SOL    HW226502   0.111   7.406  10.889
41557SOL     OW26503   4.562  11.841   6.504
41557SOL    HW126504   4.544  11.751   6.531
41557SOL    HW226505   4.601  11.832   6.417
41558SOL     OW26506   6.511  10.475   5.757
41558SOL    HW126507   6.531  10.402   5.816
41558SOL    HW226508   6.495  10.549   5.816
41559SOL     OW26509  10.785   9.223   2.758
41559SOL    HW126510  10.877   9.200   2.744
41559SOL    HW226511  10.752   9.245   2.671
41560SOL     OW26512  13.111   2.517   2.959
41560SOL    HW126513  13.101   2.530   3.053
41560SOL    HW226514  13.205   2.508   2.945
41561SOL     OW26515   6.022   3.400   4.963
41561SOL    HW126516   6.024   3.351   5.045
41561SOL    HW226517   6.006   3.490   4.989
41562SOL     OW26518   2.769   7.966   1.064
41562SOL    HW126519   2.727   7.881   1.048
41562SOL    HW226520   2.863   7.948   1.063
41563SOL     OW26521  14.172   6.448   3.846
41563SOL    HW126522  14.260   6.437   3.811
41563SOL    HW226523  14.147   6.360   3.874
41564SOL     OW26524   8.554  10.898   2.442
41564SOL    HW126525   8.534  10.834   2.373
41564SOL    HW226526   8.561  10.982   2.395
41565SOL     OW26527  11.790   5.957   7.317
41565SOL    HW126528  11.798   6.049   7.341
41565SOL    HW226529  11.880   5.930   7.294
41566SOL     OW26530   9.768  12.376   4.518
41566SOL    HW126531   9.799  12.461   4.551
41566SOL    HW226532   9.726  12.335   4.594
41567SOL     OW26533   0.250   9.445   6.201
41567SOL    HW126534   0.204   9.393   6.267
41567SOL    HW226535   0.295   9.513   6.252
41568SOL     OW26536   0.936   7.489  14.389
41568SOL    HW126537   0.920   7.495  14.483
41568SOL    HW226538   0.934   7.395  14.371
41569SOL     OW26539   2.435   0.025   7.140
41569SOL    HW126540   2.422   0.041   7.047
41569SOL    HW226541   2.420  14.810   7.151
41570SOL     OW26542   2.472  13.416  14.390
41570SOL    HW126543   2.460  13.438  14.483
41570SOL    HW226544   2.414  13.341  14.375
41571SOL     OW26545  12.005   4.112   3.300
41571SOL    HW126546  12.012   4.040   3.363
41571SOL    HW226547  12.091   4.117   3.259
41572SOL     OW26548   4.122   0.185   8.490
41572SOL    HW126549   4.210   0.173   8.525
41572SOL    HW226550   4.105   0.106   8.439
41573SOL     OW26551   9.024   3.553   9.349
41573SOL    HW126552   8.954   3.536   9.412
41573SOL    HW226553   9.084   3.613   9.395
41574SOL     OW26554   6.246   2.459   3.143
41574SOL    HW126555   6.295   2.429   3.066
41574SOL    HW226556   6.298   2.429   3.218
41575SOL     OW26557   7.086   6.862   5.804
41575SOL    HW126558   7.048   6.950   5.808
41575SOL    HW226559   7.174   6.872   5.839
41576SOL     OW26560   1.975   6.291  13.511
41576SOL    HW126561   2.010   6.270  13.598
41576SOL    HW226562   1.882   6.270  13.517
41577SOL     OW26563  12.054   8.174  12.047
41577SOL    HW126564  12.110   8.196  11.972
41577SOL    HW226565  11.969   8.153  12.008
41578SOL     OW26566  10.447   4.194   6.012
41578SOL    HW126567  10.467   4.281   5.976
41578SOL    HW226568  10.376   4.161   5.957
41579SOL     OW26569  12.711   7.522  12.570
41579SOL    HW126570  12.749   7.600  12.611
41579SOL    HW226571  12.655   7.484  12.639
41580SOL     OW26572   7.179   4.857   8.385
41580SOL    HW126573   7.203   4.847   8.477
41580SOL    HW226574   7.196   4.950   8.366
41581SOL     OW26575   2.675  13.262   4.469
41581SOL    HW126576   2.653  13.229   4.556
41581SOL    HW226577   2.638  13.351   4.468
41582SOL     OW26578   9.509   9.728   0.092
41582SOL    HW126579   9.563   9.779   0.153
41582SOL    HW226580   9.536   9.638   0.105
41583SOL     OW26581   0.580   5.961  11.949
41583SOL    HW126582   0.576   5.933  12.040
41583SOL    HW226583   0.632   6.042  11.951
41584SOL     OW26584  11.722  14.081   9.413
41584SOL    HW126585  11.751  14.123   9.331
41584SOL    HW226586  11.721  13.987   9.392
41585SOL     OW26587  13.556   7.553   7.492
41585SOL    HW126588  13.498   7.628   7.503
41585SOL    HW226589  13.513   7.482   7.540
41586SOL     OW26590  11.448   1.308   2.879
41586SOL    HW126591  11.474   1.221   2.907
41586SOL    HW226592  11.355   1.314   2.903
41587SOL     OW26593   0.892   8.363  12.069
41587SOL    HW126594   0.977   8.378  12.111
41587SOL    HW226595   0.847   8.447  12.076
41588SOL     OW26596   3.467   2.531   0.362
41588SOL    HW126597   3.483   2.527   0.456
41588SOL    HW226598   3.472   2.624   0.341
41589SOL     OW26599   2.969   2.819   0.228
41589SOL    HW126600   3.054   2.851   0.257
41589SOL    HW226601   2.914   2.823   0.305
41590SOL     OW26602   5.671   6.801   3.140
41590SOL    HW126603   5.643   6.766   3.056
41590SOL    HW226604   5.758   6.838   3.123
41591SOL     OW26605  14.268  10.422   8.858
41591SOL    HW126606  14.185  10.428   8.810
41591SOL    HW226607  14.242  10.402   8.948
41592SOL     OW26608  12.773   9.742   0.809
41592SOL    HW126609  12.727   9.810   0.761
41592SOL    HW226610  12.704   9.695   0.856
41593SOL     OW26611  11.002   9.206  11.282
41593SOL    HW126612  10.985   9.301  11.280
41593SOL    HW226613  10.916   9.166  11.269
41594SOL     OW26614   7.625   5.724  14.728
41594SOL    HW126615   7.652   5.642  14.686
41594SOL    HW226616   7.672   5.725  14.811
41595SOL     OW26617   1.090   6.425   0.640
41595SOL    HW126618   1.082   6.351   0.580
41595SOL    HW226619   1.129   6.495   0.587
41596SOL     OW26620   8.508  12.391   7.041
41596SOL    HW126621   8.572  12.407   7.111
41596SOL    HW226622   8.555  12.414   6.961
41597SOL     OW26623   3.121   1.748   6.816
41597SOL    HW126624   3.057   1.698   6.865
41597SOL    HW226625   3.175   1.791   6.883
41598SOL     OW26626  13.534   1.458  11.155
41598SOL    HW126627  13.596   1.415  11.213
41598SOL    HW226628  13.580   1.467  11.072
41599SOL     OW26629   1.715   4.573   0.348
41599SOL    HW126630   1.667   4.612   0.275
41599SOL    HW226631   1.720   4.642   0.414
41600SOL     OW26632  10.121  11.712   8.738
41600SOL    HW126633  10.074  11.657   8.676
41600SOL    HW226634  10.074  11.701   8.821
41601SOL     OW26635   6.272  12.421   4.089
41601SOL    HW126636   6.295  12.449   4.001
41601SOL    HW226637   6.220  12.341   4.076
41602SOL     OW26638   7.484  12.820  10.732
41602SOL    HW126639   7.540  12.758  10.686
41602SOL    HW226640   7.403  12.821  10.681
41603SOL     OW26641  14.082   6.373  11.002
41603SOL    HW126642  14.054   6.403  10.916
41603SOL    HW226643  14.092   6.279  10.993
41604SOL     OW26644   5.149  13.487   2.615
41604SOL    HW126645   5.222  13.499   2.675
41604SOL    HW226646   5.101  13.570   2.619
41605SOL     OW26647   9.319  13.352   3.699
41605SOL    HW126648   9.233  13.333   3.736
41605SOL    HW226649   9.308  13.438   3.657
41606SOL     OW26650   3.651  14.435  10.894
41606SOL    HW126651   3.717  14.447  10.826
41606SOL    HW226652   3.572  14.478  10.860
41607SOL     OW26653  11.772   1.302   2.719
41607SOL    HW126654  11.697   1.301   2.778
41607SOL    HW226655  11.737   1.274   2.635
41608SOL     OW26656   3.030   8.217   3.333
41608SOL    HW126657   2.944   8.211   3.376
41608SOL    HW226658   3.086   8.260   3.397
41609SOL     OW26659  12.833   3.702  14.762
41609SOL    HW126660  12.902   3.722  14.698
41609SOL    HW226661  12.842   3.608  14.778
41610SOL     OW26662   6.393  11.566   6.567
41610SOL    HW126663   6.466  11.582   6.627
41610SOL    HW226664   6.409  11.627   6.494
41611SOL     OW26665   2.184   3.806   9.907
41611SOL    HW126666   2.197   3.799  10.002
41611SOL    HW226667   2.114   3.870   9.897
41612SOL     OW26668   1.629   1.536  13.243
41612SOL    HW126669   1.616   1.574  13.157
41612SOL    HW226670   1.703   1.476  13.232
41613SOL     OW26671  12.143  11.881   1.630
41613SOL    HW126672  12.177  11.820   1.565
41613SOL    HW226673  12.055  11.850   1.649
41614SOL     OW26674   4.019  12.251   5.128
41614SOL    HW126675   3.936  12.270   5.171
41614SOL    HW226676   4.074  12.328   5.147
41615SOL     OW26677  14.643   6.915  12.120
41615SOL    HW126678  14.547   6.923  12.121
41615SOL    HW226679  14.664   6.901  12.028
41616SOL     OW26680  10.557   1.940  12.058
41616SOL    HW126681  10.488   1.998  12.026
41616SOL    HW226682  10.590   1.897  11.979
41617SOL     OW26683   8.304   4.871   3.968
41617SOL    HW126684   8.262   4.930   4.030
41617SOL    HW226685   8.328   4.927   3.894
41618SOL     OW26686   2.211   4.829   0.195
41618SOL    HW126687   2.284   4.890   0.207
41618SOL    HW226688   2.253   4.746   0.172
41619SOL     OW26689  13.740   3.073   8.550
41619SOL    HW126690  13.674   3.114   8.605
41619SOL    HW226691  13.809   3.140   8.542
41620SOL     OW26692   0.132  12.893  11.577
41620SOL    HW126693   0.051  12.943  11.572
41620SOL    HW226694   0.105  12.805  11.602
41621SOL     OW26695   1.459   3.077  12.654
41621SOL    HW126696   1.547   3.060  12.687
41621SOL    HW226697   1.412   3.115  12.728
41622SOL     OW26698  13.701   4.974   9.459
41622SOL    HW126699  13.636   4.990   9.528
41622SOL    HW226700  13.764   5.045   9.469
41623SOL     OW26701   0.737   8.342   7.375
41623SOL    HW126702   0.833   8.339   7.374
41623SOL    HW226703   0.717   8.414   7.434
41624SOL     OW26704   1.311   1.582  14.212
41624SOL    HW126705   1.325   1.644  14.140
41624SOL    HW226706   1.380   1.603  14.275
41625SOL     OW26707   2.819  14.019   3.869
41625SOL    HW126708   2.783  13.961   3.802
41625SOL    HW226709   2.914  14.009   3.861
41626SOL     OW26710   0.901  10.606   3.688
41626SOL    HW126711   0.944  10.648   3.763
41626SOL    HW226712   0.874  10.679   3.632
41627SOL     OW26713   7.009   4.268   9.355
41627SOL    HW126714   7.097   4.294   9.329
41627SOL    HW226715   7.007   4.173   9.343
41628SOL     OW26716  10.914   6.935   1.136
41628SOL    HW126717  10.834   6.944   1.084
41628SOL    HW226718  10.929   6.841   1.141
41629SOL     OW26719  11.078   7.882  13.463
41629SOL    HW126720  10.985   7.871  13.446
41629SOL    HW226721  11.106   7.949  13.400
41630SOL     OW26722   0.953   5.664  11.869
41630SOL    HW126723   1.043   5.676  11.899
41630SOL    HW226724   0.950   5.574  11.836
41631SOL     OW26725   3.122  13.016   5.046
41631SOL    HW126726   3.111  12.950   5.114
41631SOL    HW226727   3.180  13.082   5.085
41632SOL     OW26728  13.240   4.908   6.617
41632SOL    HW126729  13.322   4.881   6.658
41632SOL    HW226730  13.260   4.994   6.579
41633SOL     OW26731  14.285   7.570   5.719
41633SOL    HW126732  14.205   7.621   5.737
41633SOL    HW226733  14.260   7.480   5.739
41634SOL     OW26734   5.018   6.529   8.247
41634SOL    HW126735   4.987   6.506   8.334
41634SOL    HW226736   4.940   6.529   8.192
41635SOL     OW26737   6.544   1.219   9.834
41635SOL    HW126738   6.543   1.310   9.864
41635SOL    HW226739   6.595   1.221   9.753
41636SOL     OW26740  10.328   0.878   1.841
41636SOL    HW126741  10.279   0.943   1.791
41636SOL    HW226742  10.351   0.922   1.923
41637SOL     OW26743   7.369  12.970  14.606
41637SOL    HW126744   7.352  12.885  14.647
41637SOL    HW226745   7.400  12.949  14.518
41638SOL     OW26746  12.737  12.838   0.735
41638SOL    HW126747  12.668  12.872   0.679
41638SOL    HW226748  12.814  12.834   0.678
41639SOL     OW26749   1.415  10.894  11.153
41639SOL    HW126750   1.386  10.824  11.095
41639SOL    HW226751   1.398  10.974  11.104
41640SOL     OW26752  10.160  12.608   7.943
41640SOL    HW126753  10.185  12.541   8.006
41640SOL    HW226754  10.074  12.638   7.973
41641SOL     OW26755  10.994   3.089   1.097
41641SOL    HW126756  10.984   3.165   1.039
41641SOL    HW226757  11.019   3.126   1.181
41642SOL     OW26758   1.183   3.285   3.127
41642SOL    HW126759   1.112   3.326   3.175
41642SOL    HW226760   1.149   3.271   3.038
41643SOL     OW26761  11.441   3.329   8.064
41643SOL    HW126762  11.400   3.390   8.125
41643SOL    HW226763  11.384   3.331   7.987
41644SOL     OW26764  11.650   6.100   9.263
41644SOL    HW126765  11.583   6.085   9.331
41644SOL    HW226766  11.602   6.094   9.181
41645SOL     OW26767   7.897   5.966   2.764
41645SOL    HW126768   7.821   6.020   2.785
41645SOL    HW226769   7.908   5.975   2.669
41646SOL     OW26770  12.899   2.583   8.857
41646SOL    HW126771  12.954   2.564   8.933
41646SOL    HW226772  12.961   2.609   8.789
41647SOL     OW26773   9.440  10.785  10.668
41647SOL    HW126774   9.511  10.770  10.605
41647SOL    HW226775   9.395  10.863  10.636
41648SOL     OW26776  12.580   3.624   2.091
41648SOL    HW126777  12.619   3.588   2.012
41648SOL    HW226778  12.494   3.656   2.063
41649SOL     OW26779  11.610   4.154  13.078
41649SOL    HW126780  11.577   4.228  13.027
41649SOL    HW226781  11.534   4.097  13.090
41650SOL     OW26782   1.600   5.843   1.393
41650SOL    HW126783   1.591   5.777   1.462
41650SOL    HW226784   1.533   5.820   1.328
41651SOL     OW26785   9.082   4.206   1.478
41651SOL    HW126786   9.052   4.277   1.422
41651SOL    HW226787   9.157   4.169   1.433
41652SOL     OW26788  10.214  13.941  11.829
41652SOL    HW126789  10.278  14.009  11.808
41652SOL    HW226790  10.220  13.879  11.756
41653SOL     OW26791   6.807  13.917  10.696
41653SOL    HW126792   6.803  13.853  10.767
41653SOL    HW226793   6.813  14.002  10.741
41654SOL     OW26794  10.736  10.054   4.587
41654SOL    HW126795  10.674  10.031   4.656
41654SOL    HW226796  10.715  10.145   4.565
41655SOL     OW26797  12.355   1.910   0.049
41655SOL    HW126798  12.298   1.836   0.026
41655SOL    HW226799  12.444   1.872   0.050
41656SOL     OW26800   3.918   4.057   7.096
41656SOL    HW126801   4.002   4.086   7.060
41656SOL    HW226802   3.884   4.133   7.142
41657SOL     OW26803   3.360  11.694  12.218
41657SOL    HW126804   3.372  11.764  12.281
41657SOL    HW226805   3.394  11.616  12.262
41658SOL     OW26806  13.646   0.200   1.901
41658SOL    HW126807  13.644   0.105   1.912
41658SOL    HW226808  13.692   0.232   1.978
41659SOL     OW26809   4.326   3.883   0.838
41659SOL    HW126810   4.416   3.858   0.857
41659SOL    HW226811   4.286   3.803   0.804
41660SOL     OW26812   6.930  12.196   4.121
41660SOL    HW126813   6.975  12.183   4.038
41660SOL    HW226814   6.932  12.110   4.163
41661SOL     OW26815  11.713   2.011  11.626
41661SOL    HW126816  11.732   2.014  11.719
41661SOL    HW226817  11.756   1.931  11.595
41662SOL     OW26818   5.458  13.231   0.667
41662SOL    HW126819   5.446  13.326   0.663
41662SOL    HW226820   5.381  13.195   0.624
41663SOL     OW26821  14.502   9.263   8.187
41663SOL    HW126822  14.524   9.332   8.124
41663SOL    HW226823  14.508   9.306   8.273
41664SOL     OW26824   8.763   4.961   2.355
41664SOL    HW126825   8.831   4.998   2.299
41664SOL    HW226826   8.716   4.900   2.298
41665SOL     OW26827  10.934  11.984   8.929
41665SOL    HW126828  10.994  11.959   8.858
41665SOL    HW226829  10.848  11.986   8.888
41666SOL     OW26830   9.976  12.144   8.986
41666SOL    HW126831   9.954  12.074   8.925
41666SOL    HW226832   9.907  12.210   8.974
41667SOL     OW26833  11.268   3.375  14.481
41667SOL    HW126834  11.361   3.352  14.481
41667SOL    HW226835  11.223   3.292  14.494
41668SOL     OW26836  13.167  10.354  13.608
41668SOL    HW126837  13.096  10.343  13.671
41668SOL    HW226838  13.205  10.440  13.630
41669SOL     OW26839   1.639   3.735  14.483
41669SOL    HW126840   1.550   3.718  14.514
41669SOL    HW226841   1.688   3.656  14.504
41670SOL     OW26842   2.833  13.932   8.740
41670SOL    HW126843   2.832  13.838   8.722
41670SOL    HW226844   2.846  13.973   8.655
41671SOL     OW26845   1.227  13.925   7.114
41671SOL    HW126846   1.233  13.877   7.197
41671SOL    HW226847   1.302  13.894   7.063
41672SOL     OW26848  11.934   7.973   7.075
41672SOL    HW126849  11.965   7.939   7.159
41672SOL    HW226850  11.860   7.916   7.052
41673SOL     OW26851   0.482  12.491  14.803
41673SOL    HW126852   0.469  12.562  14.866
41673SOL    HW226853   0.393  12.463  14.780
41674SOL     OW26854   9.077   2.800   8.002
41674SOL    HW126855   9.023   2.781   8.079
41674SOL    HW226856   9.135   2.725   7.994
41675SOL     OW26857   5.873   2.938   3.103
41675SOL    HW126858   5.815   2.902   3.036
41675SOL    HW226859   5.815   2.966   3.173
41676SOL     OW26860   3.066   9.686   1.229
41676SOL    HW126861   3.018   9.668   1.148
41676SOL    HW226862   3.080   9.601   1.269
41677SOL     OW26863   7.289   9.725   3.113
41677SOL    HW126864   7.223   9.718   3.045
41677SOL    HW226865   7.287   9.817   3.139
41678SOL     OW26866   6.322   1.537   3.645
41678SOL    HW126867   6.378   1.502   3.576
41678SOL    HW226868   6.244   1.569   3.599
41679SOL     OW26869  11.858  13.989  14.071
41679SOL    HW126870  11.909  14.058  14.112
41679SOL    HW226871  11.920  13.918  14.058
41680SOL     OW26872   0.266   9.292   7.580
41680SOL    HW126873   0.270   9.308   7.486
41680SOL    HW226874   0.283   9.198   7.590
41681SOL     OW26875  10.931  12.319  13.421
41681SOL    HW126876  10.872  12.389  13.449
41681SOL    HW226877  11.011  12.364  13.396
41682SOL     OW26878  12.004   8.943   1.607
41682SOL    HW126879  12.024   8.862   1.654
41682SOL    HW226880  11.970   8.915   1.523
41683SOL     OW26881   2.147   8.065   8.405
41683SOL    HW126882   2.233   8.105   8.391
41683SOL    HW226883   2.166   7.974   8.427
41684SOL     OW26884   0.735   3.265   6.941
41684SOL    HW126885   0.690   3.273   7.025
41684SOL    HW226886   0.761   3.173   6.936
41685SOL     OW26887   9.215  13.683   9.308
41685SOL    HW126888   9.171  13.612   9.263
41685SOL    HW226889   9.301  13.688   9.266
41686SOL     OW26890  14.038   2.637   7.053
41686SOL    HW126891  13.994   2.690   7.119
41686SOL    HW226892  13.981   2.561   7.041
41687SOL     OW26893  13.913   9.468   4.571
41687SOL    HW126894  13.953   9.402   4.628
41687SOL    HW226895  13.876   9.418   4.499
41688SOL     OW26896  14.075   2.847   4.639
41688SOL    HW126897  14.121   2.833   4.722
41688SOL    HW226898  14.019   2.923   4.655
41689SOL     OW26899   6.043   5.923  14.817
41689SOL    HW126900   5.991   5.975  14.755
41689SOL    HW226901   5.987   5.916   0.016
41690SOL     OW26902  12.591   4.429  12.338
41690SOL    HW126903  12.629   4.354  12.383
41690SOL    HW226904  12.650   4.444  12.264
41691SOL     OW26905   3.247   5.030  10.974
41691SOL    HW126906   3.169   4.978  10.991
41691SOL    HW226907   3.230   5.071  10.889
41692SOL     OW26908  10.314  11.500   4.207
41692SOL    HW126909  10.355  11.414   4.196
41692SOL    HW226910  10.223  11.487   4.179
41693SOL     OW26911  12.495   7.024   5.218
41693SOL    HW126912  12.440   6.974   5.157
41693SOL    HW226913  12.531   6.958   5.277
41694SOL     OW26914   8.268  11.995   3.259
41694SOL    HW126915   8.234  12.013   3.171
41694SOL    HW226916   8.361  12.013   3.253
41695SOL     OW26917   2.275   2.008   2.657
41695SOL    HW126918   2.223   2.077   2.615
41695SOL    HW226919   2.301   2.047   2.741
41696SOL     OW26920   2.598   3.380  10.982
41696SOL    HW126921   2.670   3.407  10.925
41696SOL    HW226922   2.641   3.345  11.060
41697SOL     OW26923   3.676  10.432   1.798
41697SOL    HW126924   3.721  10.444   1.881
41697SOL    HW226925   3.583  10.442   1.819
41698SOL     OW26926  13.467   3.307  14.681
41698SOL    HW126927  13.376   3.296  14.653
41698SOL    HW226928  13.481   3.238  14.746
41699SOL     OW26929  14.391  12.694   3.563
41699SOL    HW126930  14.341  12.625   3.606
41699SOL    HW226931  14.480  12.660   3.560
41700SOL     OW26932  13.459   2.262  10.243
41700SOL    HW126933  13.368   2.245  10.222
41700SOL    HW226934  13.476   2.206  10.319
41701SOL     OW26935  12.069  12.883   1.129
41701SOL    HW126936  12.060  12.799   1.084
41701SOL    HW226937  12.161  12.905   1.120
41702SOL     OW26938  13.160   8.316   4.416
41702SOL    HW126939  13.089   8.294   4.477
41702SOL    HW226940  13.182   8.232   4.375
41703SOL     OW26941   1.133   1.501   1.781
41703SOL    HW126942   1.142   1.434   1.713
41703SOL    HW226943   1.041   1.528   1.775
41704SOL     OW26944   8.990   7.404  10.125
41704SOL    HW126945   8.972   7.312  10.147
41704SOL    HW226946   8.926   7.425  10.057
41705SOL     OW26947  11.369   4.637   7.661
41705SOL    HW126948  11.336   4.717   7.702
41705SOL    HW226949  11.331   4.566   7.713
41706SOL     OW26950   1.467   8.716   2.813
41706SOL    HW126951   1.544   8.741   2.761
41706SOL    HW226952   1.439   8.632   2.775
41707SOL     OW26953   8.455  12.645  14.406
41707SOL    HW126954   8.363  12.645  14.382
41707SOL    HW226955   8.463  12.714  14.471
41708SOL     OW26956   8.989   4.029   6.967
41708SOL    HW126957   9.021   4.081   6.894
41708SOL    HW226958   8.900   4.061   6.982
41709SOL     OW26959   0.247   7.788  11.108
41709SOL    HW126960   0.330   7.776  11.061
41709SOL    HW226961   0.273   7.810  11.197
41710SOL     OW26962   4.668   9.384   8.096
41710SOL    HW126963   4.759   9.394   8.124
41710SOL    HW226964   4.634   9.313   8.151
41711SOL     OW26965   1.634   4.064   7.061
41711SOL    HW126966   1.666   4.007   7.130
41711SOL    HW226967   1.570   4.011   7.014
41712SOL     OW26968  13.118   4.882   4.755
41712SOL    HW126969  13.040   4.918   4.796
41712SOL    HW226970  13.177   4.957   4.745
41713SOL     OW26971   8.511  10.417   2.668
41713SOL    HW126972   8.573  10.452   2.604
41713SOL    HW226973   8.431  10.401   2.618
41714SOL     OW26974   9.363   6.441   4.144
41714SOL    HW126975   9.338   6.380   4.214
41714SOL    HW226976   9.428   6.499   4.184
41715SOL     OW26977   5.198  13.131  13.403
41715SOL    HW126978   5.205  13.184  13.323
41715SOL    HW226979   5.229  13.045  13.377
41716SOL     OW26980   9.572   8.128  12.821
41716SOL    HW126981   9.577   8.223  12.827
41716SOL    HW226982   9.659   8.098  12.849
41717SOL     OW26983   0.812   2.937   3.740
41717SOL    HW126984   0.818   2.849   3.701
41717SOL    HW226985   0.891   2.945   3.793
41718SOL     OW26986   7.128   7.866  13.178
41718SOL    HW126987   7.105   7.948  13.221
41718SOL    HW226988   7.224   7.862  13.185
41719SOL     OW26989  10.322   0.319   4.161
41719SOL    HW126990  10.349   0.362   4.242
41719SOL    HW226991  10.399   0.269   4.133
41720SOL     OW26992   3.184  12.352  14.831
41720SOL    HW126993   3.173  12.379   0.044
41720SOL    HW226994   3.099  12.319  14.805
41721SOL     OW26995   2.966  10.163   7.911
41721SOL    HW126996   3.057  10.185   7.892
41721SOL    HW226997   2.971  10.108   7.989
41722SOL     OW26998  12.583  10.852   3.903
41722SOL    HW126999  12.537  10.769   3.918
41722SOL    HW227000  12.631  10.838   3.821
41723SOL     OW27001   4.260  14.232   2.221
41723SOL    HW127002   4.265  14.149   2.269
41723SOL    HW227003   4.208  14.212   2.144
41724SOL     OW27004  12.266   6.364   3.711
41724SOL    HW127005  12.300   6.276   3.694
41724SOL    HW227006  12.173   6.351   3.732
41725SOL     OW27007   9.073   9.980  14.524
41725SOL    HW127008   9.039  10.036  14.454
41725SOL    HW227009   9.165  10.005  14.532
41726SOL     OW27010   6.518   2.315  11.708
41726SOL    HW127011   6.574   2.329  11.632
41726SOL    HW227012   6.571   2.260  11.766
41727SOL     OW27013  14.796   7.057   2.329
41727SOL    HW127014   0.012   7.065   2.336
41727SOL    HW227015  14.764   7.147   2.327
41728SOL     OW27016   6.458   7.483   9.062
41728SOL    HW127017   6.444   7.392   9.088
41728SOL    HW227018   6.478   7.479   8.968
41729SOL     OW27019   6.621   7.066   3.304
41729SOL    HW127020   6.539   7.114   3.318
41729SOL    HW227021   6.640   7.026   3.389
41730SOL     OW27022  14.520   4.372  14.535
41730SOL    HW127023  14.556   4.459  14.514
41730SOL    HW227024  14.574   4.341  14.608
41731SOL     OW27025   7.284   4.082   4.402
41731SOL    HW127026   7.217   4.134   4.448
41731SOL    HW227027   7.365   4.098   4.452
41732SOL     OW27028   4.726   3.070   0.499
41732SOL    HW127029   4.742   3.023   0.581
41732SOL    HW227030   4.634   3.097   0.505
41733SOL     OW27031   2.232  10.733   2.631
41733SOL    HW127032   2.140  10.719   2.608
41733SOL    HW227033   2.270  10.645   2.633
41734SOL     OW27034   2.952   1.697   4.804
41734SOL    HW127035   3.023   1.635   4.787
41734SOL    HW227036   2.891   1.649   4.860
41735SOL     OW27037   4.237  13.370  10.077
41735SOL    HW127038   4.179  13.294  10.069
41735SOL    HW227039   4.271  13.384   9.989
41736SOL     OW27040  11.158  14.796  12.031
41736SOL    HW127041  11.092  14.740  12.073
41736SOL    HW227042  11.181  14.748  11.951
41737SOL     OW27043  13.452   1.394   2.141
41737SOL    HW127044  13.389   1.461   2.168
41737SOL    HW227045  13.417   1.312   2.175
41738SOL     OW27046   0.607  11.199   8.571
41738SOL    HW127047   0.596  11.130   8.636
41738SOL    HW227048   0.680  11.252   8.604
41739SOL     OW27049   1.695   2.756  11.295
41739SOL    HW127050   1.604   2.783  11.282
41739SOL    HW227051   1.739   2.835  11.325
41740SOL     OW27052  14.765  10.860   4.977
41740SOL    HW127053  14.682  10.908   4.971
41740SOL    HW227054  14.798  10.878   5.065
41741SOL     OW27055   4.749  14.394   9.364
41741SOL    HW127056   4.722  14.331   9.430
41741SOL    HW227057   4.710  14.477   9.393
41742SOL     OW27058   9.154  12.074   1.863
41742SOL    HW127059   9.190  12.063   1.775
41742SOL    HW227060   9.208  12.017   1.918
41743SOL     OW27061  13.565  14.819   8.894
41743SOL    HW127062  13.619  14.845   8.819
41743SOL    HW227063  13.496   0.007   8.898
41744SOL     OW27064   1.932  11.573  10.558
41744SOL    HW127065   2.010  11.518  10.547
41744SOL    HW227066   1.890  11.572  10.472
41745SOL     OW27067  11.242   2.600   7.778
41745SOL    HW127068  11.249   2.519   7.828
41745SOL    HW227069  11.160   2.640   7.806
41746SOL     OW27070  13.236   6.360   9.708
41746SOL    HW127071  13.306   6.378   9.771
41746SOL    HW227072  13.231   6.439   9.654
41747SOL     OW27073   6.347  13.188   1.317
41747SOL    HW127074   6.389  13.226   1.240
41747SOL    HW227075   6.254  13.212   1.308
41748SOL     OW27076   7.176   9.497   5.334
41748SOL    HW127077   7.202   9.572   5.387
41748SOL    HW227078   7.242   9.430   5.351
41749SOL     OW27079   4.900   5.983   2.137
41749SOL    HW127080   4.898   6.056   2.075
41749SOL    HW227081   4.815   5.984   2.180
41750SOL     OW27082   0.728  11.553   2.091
41750SOL    HW127083   0.651  11.565   2.037
41750SOL    HW227084   0.787  11.623   2.065
41751SOL     OW27085  12.678  11.222  10.136
41751SOL    HW127086  12.635  11.187  10.058
41751SOL    HW227087  12.771  11.220  10.116
41752SOL     OW27088  13.987   3.265   9.434
41752SOL    HW127089  13.897   3.295   9.417
41752SOL    HW227090  13.976   3.185   9.486
41753SOL     OW27091   9.582   8.807  11.883
41753SOL    HW127092   9.567   8.792  11.789
41753SOL    HW227093   9.594   8.719  11.919
41754SOL     OW27094   9.662   7.186  14.614
41754SOL    HW127095   9.600   7.175  14.542
41754SOL    HW227096   9.700   7.273  14.601
41755SOL     OW27097  10.137   1.020   5.029
41755SOL    HW127098  10.103   0.932   5.046
41755SOL    HW227099  10.125   1.066   5.112
41756SOL     OW27100  12.569   5.084  13.698
41756SOL    HW127101  12.514   5.113  13.771
41756SOL    HW227102  12.511   5.088  13.622
41757SOL     OW27103   0.137  10.424   7.465
41757SOL    HW127104   0.132  10.346   7.522
41757SOL    HW227105   0.047  10.457   7.463
41758SOL     OW27106  12.456   4.824  13.167
41758SOL    HW127107  12.363   4.809  13.149
41758SOL    HW227108  12.464   4.821  13.262
41759SOL     OW27109  13.502  14.306  13.829
41759SOL    HW127110  13.413  14.319  13.797
41759SOL    HW227111  13.502  14.342  13.917
41760SOL     OW27112   3.904  12.962  10.458
41760SOL    HW127113   3.931  13.045  10.417
41760SOL    HW227114   3.952  12.960  10.541
41761SOL     OW27115  12.244   3.781   3.612
41761SOL    HW127116  12.302   3.848   3.647
41761SOL    HW227117  12.299   3.703   3.605
41762SOL     OW27118  10.535  10.183   0.855
41762SOL    HW127119  10.506  10.231   0.777
41762SOL    HW227120  10.630  10.178   0.845
41763SOL     OW27121   7.331   9.998   5.965
41763SOL    HW127122   7.390  10.063   6.003
41763SOL    HW227123   7.297   9.949   6.041
41764SOL     OW27124  13.350   2.167   2.964
41764SOL    HW127125  13.432   2.119   2.977
41764SOL    HW227126  13.290   2.130   3.029
41765SOL     OW27127   9.378  11.344   5.166
41765SOL    HW127128   9.439  11.414   5.189
41765SOL    HW227129   9.306  11.353   5.229
41766SOL     OW27130  14.649   4.270  13.947
41766SOL    HW127131  14.621   4.342  13.891
41766SOL    HW227132  14.607   4.192  13.909
41767SOL     OW27133  14.779   1.778   7.040
41767SOL    HW127134  14.865   1.747   7.010
41767SOL    HW227135  14.790   1.791   7.134
41768SOL     OW27136  12.772   2.195   3.417
41768SOL    HW127137  12.720   2.115   3.411
41768SOL    HW227138  12.709   2.263   3.442
41769SOL     OW27139   5.659   5.054   6.952
41769SOL    HW127140   5.651   5.031   6.859
41769SOL    HW227141   5.717   5.131   6.952
41770SOL     OW27142   6.906   7.980   4.213
41770SOL    HW127143   6.813   7.993   4.232
41770SOL    HW227144   6.910   7.894   4.171
41771SOL     OW27145   1.136  11.083   4.362
41771SOL    HW127146   1.105  10.993   4.362
41771SOL    HW227147   1.201  11.087   4.433
41772SOL     OW27148  10.169   5.365  12.146
41772SOL    HW127149  10.228   5.427  12.103
41772SOL    HW227150  10.086   5.377  12.100
41773SOL     OW27151   3.318  12.360   2.841
41773SOL    HW127152   3.261  12.319   2.906
41773SOL    HW227153   3.364  12.429   2.890
41774SOL     OW27154   0.968   3.059   4.923
41774SOL    HW127155   0.957   2.966   4.904
41774SOL    HW227156   1.018   3.061   5.005
41775SOL     OW27157   6.206   2.929   7.539
41775SOL    HW127158   6.187   2.889   7.454
41775SOL    HW227159   6.296   2.902   7.558
41776SOL     OW27160   1.333   9.691  12.154
41776SOL    HW127161   1.344   9.684  12.249
41776SOL    HW227162   1.239   9.693  12.141
41777SOL     OW27163   7.686   6.660   3.056
41777SOL    HW127164   7.691   6.700   3.143
41777SOL    HW227165   7.599   6.620   3.054
41778SOL     OW27166   6.962  13.015   8.047
41778SOL    HW127167   6.992  13.102   8.019
41778SOL    HW227168   6.867  13.020   8.041
41779SOL     OW27169   6.766  11.290   4.089
41779SOL    HW127170   6.837  11.330   4.139
41779SOL    HW227171   6.759  11.344   4.010
41780SOL     OW27172   1.930   1.718  13.293
41780SOL    HW127173   1.992   1.675  13.353
41780SOL    HW227174   1.856   1.657  13.289
41781SOL     OW27175  14.036   2.465   8.116
41781SOL    HW127176  13.969   2.397   8.118
41781SOL    HW227177  14.012   2.526   8.186
41782SOL     OW27178   1.696  11.021   0.764
41782SOL    HW127179   1.691  11.057   0.675
41782SOL    HW227180   1.664  10.931   0.754
41783SOL     OW27181  12.826  11.438  13.838
41783SOL    HW127182  12.790  11.439  13.749
41783SOL    HW227183  12.818  11.347  13.866
41784SOL     OW27184   2.622  13.955   7.743
41784SOL    HW127185   2.563  13.880   7.753
41784SOL    HW227186   2.633  13.989   7.831
41785SOL     OW27187  12.555  10.021   8.500
41785SOL    HW127188  12.594   9.937   8.475
41785SOL    HW227189  12.474  10.026   8.449
41786SOL     OW27190   2.115  11.965  11.813
41786SOL    HW127191   2.200  11.972  11.856
41786SOL    HW227192   2.127  12.009  11.729
41787SOL     OW27193   1.399   7.163   2.381
41787SOL    HW127194   1.446   7.168   2.464
41787SOL    HW227195   1.377   7.254   2.360
41788SOL     OW27196   6.071  11.462   3.722
41788SOL    HW127197   6.071  11.536   3.782
41788SOL    HW227198   6.159  11.425   3.728
41789SOL     OW27199   6.445  11.452  11.957
41789SOL    HW127200   6.462  11.528  11.902
41789SOL    HW227201   6.520  11.449  12.017
41790SOL     OW27202   0.259   1.504   9.865
41790SOL    HW127203   0.237   1.411   9.858
41790SOL    HW227204   0.179   1.546   9.895
41791SOL     OW27205  14.063   2.640  12.715
41791SOL    HW127206  14.138   2.584  12.699
41791SOL    HW227207  13.988   2.589  12.684
41792SOL     OW27208   0.804   6.570  13.264
41792SOL    HW127209   0.775   6.480  13.250
41792SOL    HW227210   0.800   6.611  13.177
41793SOL     OW27211   6.756   4.409   7.287
41793SOL    HW127212   6.828   4.347   7.289
41793SOL    HW227213   6.789   4.487   7.332
41794SOL     OW27214  14.672   7.898  13.371
41794SOL    HW127215  14.596   7.922  13.318
41794SOL    HW227216  14.713   7.981  13.394
41795SOL     OW27217  12.914   6.911  10.809
41795SOL    HW127218  13.009   6.905  10.815
41795SOL    HW227219  12.882   6.882  10.895
41796SOL     OW27220  14.746  11.913   5.103
41796SOL    HW127221  14.722  11.832   5.147
41796SOL    HW227222  14.800  11.885   5.028
41797SOL     OW27223   4.573   7.248   6.512
41797SOL    HW127224   4.620   7.210   6.437
41797SOL    HW227225   4.597   7.192   6.586
41798SOL     OW27226  10.348  11.396   9.590
41798SOL    HW127227  10.287  11.338   9.544
41798SOL    HW227228  10.415  11.417   9.526
41799SOL     OW27229  12.273   3.994   2.458
41799SOL    HW127230  12.263   3.900   2.439
41799SOL    HW227231  12.189   4.020   2.494
41800SOL     OW27232   0.025   1.244   4.363
41800SOL    HW127233  14.873   1.242   4.272
41800SOL    HW227234  14.830   1.213   4.414
41801SOL     OW27235   3.911   2.278   9.731
41801SOL    HW127236   3.847   2.306   9.796
41801SOL    HW227237   3.954   2.359   9.704
41802SOL     OW27238  12.147   1.954   8.920
41802SOL    HW127239  12.187   1.979   9.003
41802SOL    HW227240  12.169   2.025   8.860
41803SOL     OW27241   5.610  10.823   5.962
41803SOL    HW127242   5.563  10.751   6.004
41803SOL    HW227243   5.591  10.812   5.868
41804SOL     OW27244  10.862  10.405   9.242
41804SOL    HW127245  10.830  10.373   9.327
41804SOL    HW227246  10.809  10.482   9.224
41805SOL     OW27247   5.144   0.912   8.214
41805SOL    HW127248   5.096   0.984   8.173
41805SOL    HW227249   5.081   0.841   8.220
41806SOL     OW27250   1.978   3.257  11.278
41806SOL    HW127251   1.899   3.216  11.313
41806SOL    HW227252   1.948   3.340  11.241
41807SOL     OW27253   6.536  14.161  12.838
41807SOL    HW127254   6.464  14.207  12.881
41807SOL    HW227255   6.560  14.217  12.764
41808SOL     OW27256  14.564   3.734  14.000
41808SOL    HW127257  14.531   3.721  13.911
41808SOL    HW227258  14.551   3.650  14.043
41809SOL     OW27259   0.241  13.074   8.182
41809SOL    HW127260   0.168  13.023   8.216
41809SOL    HW227261   0.254  13.041   8.093
41810SOL     OW27262   0.274   4.655   7.051
41810SOL    HW127263   0.344   4.598   7.018
41810SOL    HW227264   0.296   4.742   7.017
41811SOL     OW27265   6.529   6.371   2.253
41811SOL    HW127266   6.520   6.466   2.246
41811SOL    HW227267   6.490   6.349   2.337
41812SOL     OW27268   5.811  13.211   2.282
41812SOL    HW127269   5.754  13.288   2.289
41812SOL    HW227270   5.858  13.224   2.199
41813SOL     OW27271  13.218   2.432   4.064
41813SOL    HW127272  13.302   2.392   4.043
41813SOL    HW227273  13.158   2.398   3.997
41814SOL     OW27274   4.337   6.337   5.031
41814SOL    HW127275   4.355   6.427   5.060
41814SOL    HW227276   4.245   6.323   5.054
41815SOL     OW27277   8.330  13.904  14.835
41815SOL    HW127278   8.324  13.995  14.866
41815SOL    HW227279   8.240  13.881  14.811
41816SOL     OW27280  11.831   1.818   8.467
41816SOL    HW127281  11.909   1.856   8.426
41816SOL    HW227282  11.863   1.740   8.512
41817SOL     OW27283   7.230   4.564  11.033
41817SOL    HW127284   7.145   4.525  11.013
41817SOL    HW227285   7.262   4.597  10.949
41818SOL     OW27286   3.994   7.733   9.828
41818SOL    HW127287   4.078   7.704   9.794
41818SOL    HW227288   3.973   7.811   9.776
41819SOL     OW27289   2.503   6.506   1.733
41819SOL    HW127290   2.546   6.592   1.731
41819SOL    HW227291   2.557   6.455   1.794
41820SOL     OW27292   3.398   8.562   2.169
41820SOL    HW127293   3.393   8.620   2.094
41820SOL    HW227294   3.313   8.570   2.212
41821SOL     OW27295   7.883   0.679   6.035
41821SOL    HW127296   7.970   0.717   6.019
41821SOL    HW227297   7.889   0.590   5.999
41822SOL     OW27298  12.212  14.129   7.747
41822SOL    HW127299  12.225  14.049   7.797
41822SOL    HW227300  12.121  14.153   7.762
41823SOL     OW27301   3.570  13.296   4.609
41823SOL    HW127302   3.506  13.226   4.595
41823SOL    HW227303   3.578  13.303   4.704
41824SOL     OW27304   2.650   3.144   5.844
41824SOL    HW127305   2.711   3.116   5.912
41824SOL    HW227306   2.684   3.228   5.814
41825SOL     OW27307   7.799   5.726  12.213
41825SOL    HW127308   7.882   5.683  12.194
41825SOL    HW227309   7.733   5.661  12.190
41826SOL     OW27310   8.803  13.164   7.066
41826SOL    HW127311   8.791  13.073   7.091
41826SOL    HW227312   8.714  13.197   7.050
41827SOL     OW27313   6.446  10.308   2.475
41827SOL    HW127314   6.355  10.327   2.497
41827SOL    HW227315   6.495  10.383   2.508
41828SOL     OW27316  10.970   1.167   6.496
41828SOL    HW127317  10.898   1.177   6.558
41828SOL    HW227318  11.019   1.249   6.501
41829SOL     OW27319  12.254   2.104  13.740
41829SOL    HW127320  12.343   2.132  13.720
41829SOL    HW227321  12.245   2.117  13.835
41830SOL     OW27322   2.649   6.418   3.735
41830SOL    HW127323   2.712   6.488   3.749
41830SOL    HW227324   2.576   6.459   3.689
41831SOL     OW27325  11.403   1.252   2.133
41831SOL    HW127326  11.425   1.200   2.055
41831SOL    HW227327  11.475   1.315   2.141
41832SOL     OW27328   2.046  14.303   9.768
41832SOL    HW127329   2.104  14.274   9.698
41832SOL    HW227330   2.064  14.396   9.778
41833SOL     OW27331   8.106   4.642   6.235
41833SOL    HW127332   8.072   4.713   6.182
41833SOL    HW227333   8.187   4.616   6.190
41834SOL     OW27334   7.996   6.057  13.907
41834SOL    HW127335   7.939   6.106  13.847
41834SOL    HW227336   8.081   6.056  13.864
41835SOL     OW27337   7.492   5.296   3.559
41835SOL    HW127338   7.579   5.317   3.592
41835SOL    HW227339   7.494   5.325   3.467
41836SOL     OW27340  10.139  11.527  13.087
41836SOL    HW127341  10.233  11.513  13.079
41836SOL    HW227342  10.101  11.439  13.080
41837SOL     OW27343   0.036   6.468  13.485
41837SOL    HW127344   0.096   6.479  13.559
41837SOL    HW227345   0.080   6.407  13.426
41838SOL     OW27346   6.860   6.224   2.162
41838SOL    HW127347   6.827   6.273   2.087
41838SOL    HW227348   6.952   6.209   2.143
41839SOL     OW27349  13.670   9.775  14.496
41839SOL    HW127350  13.594   9.826  14.466
41839SOL    HW227351  13.714   9.833  14.558
41840SOL     OW27352  10.463   5.605   9.065
41840SOL    HW127353  10.404   5.632   9.135
41840SOL    HW227354  10.408   5.603   8.987
41841SOL     OW27355  14.814   2.449   3.803
41841SOL    HW127356  14.815   2.523   3.864
41841SOL    HW227357   0.009   2.395   3.831
41842SOL     OW27358   4.396   7.596   6.108
41842SOL    HW127359   4.420   7.521   6.163
41842SOL    HW227360   4.402   7.671   6.167
41843SOL     OW27361   0.665   4.354  13.404
41843SOL    HW127362   0.573   4.380  13.413
41843SOL    HW227363   0.673   4.323  13.313
41844SOL     OW27364   3.023  13.809  12.577
41844SOL    HW127365   3.025  13.904  12.586
41844SOL    HW227366   2.980  13.794  12.493
41845SOL     OW27367   1.345   5.018   0.630
41845SOL    HW127368   1.250   5.031   0.625
41845SOL    HW227369   1.361   4.990   0.720
41846SOL     OW27370   8.423   7.101  11.151
41846SOL    HW127371   8.497   7.073  11.098
41846SOL    HW227372   8.346   7.074  11.101
41847SOL     OW27373   5.701  14.592   5.622
41847SOL    HW127374   5.645  14.576   5.697
41847SOL    HW227375   5.787  14.558   5.649
41848SOL     OW27376  10.767  13.116   1.335
41848SOL    HW127377  10.680  13.115   1.374
41848SOL    HW227378  10.807  13.197   1.366
41849SOL     OW27379   4.085   1.356  10.004
41849SOL    HW127380   4.007   1.351   9.949
41849SOL    HW227381   4.154   1.388   9.946
41850SOL     OW27382   2.951  12.122  14.176
41850SOL    HW127383   2.984  12.134  14.265
41850SOL    HW227384   2.915  12.208  14.153
41851SOL     OW27385   8.912   7.264  10.571
41851SOL    HW127386   8.915   7.269  10.667
41851SOL    HW227387   8.977   7.197  10.549
41852SOL     OW27388   0.541   0.903   0.616
41852SOL    HW127389   0.530   0.980   0.559
41852SOL    HW227390   0.523   0.828   0.559
41853SOL     OW27391   0.135   4.398   2.172
41853SOL    HW127392   0.142   4.392   2.268
41853SOL    HW227393   0.164   4.313   2.140
41854SOL     OW27394  10.120   8.587   7.428
41854SOL    HW127395  10.185   8.517   7.441
41854SOL    HW227396  10.163   8.666   7.462
41855SOL     OW27397   1.667  13.769   7.882
41855SOL    HW127398   1.631  13.698   7.829
41855SOL    HW227399   1.743  13.800   7.833
41856SOL     OW27400   9.041   4.601  13.298
41856SOL    HW127401   9.054   4.645  13.214
41856SOL    HW227402   9.053   4.670  13.363
41857SOL     OW27403  14.858   6.799  10.131
41857SOL    HW127404  14.874   6.729  10.194
41857SOL    HW227405  14.847   6.877  10.185
41858SOL     OW27406   7.152  11.402  10.695
41858SOL    HW127407   7.229  11.452  10.720
41858SOL    HW227408   7.092  11.467  10.659
41859SOL     OW27409  13.785   9.750   2.293
41859SOL    HW127410  13.827   9.793   2.219
41859SOL    HW227411  13.845   9.680   2.318
41860SOL     OW27412  12.853   7.694   8.290
41860SOL    HW127413  12.852   7.733   8.202
41860SOL    HW227414  12.918   7.624   8.283
41861SOL     OW27415   2.856   8.516   2.937
41861SOL    HW127416   2.836   8.496   3.028
41861SOL    HW227417   2.914   8.444   2.909
41862SOL     OW27418  12.325   5.359   0.456
41862SOL    HW127419  12.233   5.335   0.463
41862SOL    HW227420  12.370   5.298   0.514
41863SOL     OW27421  10.863   0.583  10.026
41863SOL    HW127422  10.811   0.648  10.074
41863SOL    HW227423  10.933   0.633   9.986
41864SOL     OW27424   8.029   3.877   4.604
41864SOL    HW127425   7.991   3.880   4.692
41864SOL    HW227426   7.980   3.942   4.554
41865SOL     OW27427   7.094  13.340   8.223
41865SOL    HW127428   7.068  13.322   8.132
41865SOL    HW227429   7.105  13.435   8.226
41866SOL     OW27430   1.635   3.798   1.369
41866SOL    HW127431   1.633   3.890   1.395
41866SOL    HW227432   1.561   3.758   1.415
41867SOL     OW27433   1.986   7.081  11.946
41867SOL    HW127434   2.046   7.101  11.874
41867SOL    HW227435   1.900   7.106  11.914
41868SOL     OW27436  14.856  13.123   3.397
41868SOL    HW127437  14.877  13.081   3.314
41868SOL    HW227438   0.057  13.116   3.449
41869SOL     OW27439   7.221   3.051   8.622
41869SOL    HW127440   7.142   3.093   8.589
41869SOL    HW227441   7.262   3.117   8.678
41870SOL     OW27442  14.549  11.909   0.801
41870SOL    HW127443  14.468  11.899   0.851
41870SOL    HW227444  14.586  11.820   0.797
41871SOL     OW27445   3.746   8.426  14.491
41871SOL    HW127446   3.681   8.488  14.522
41871SOL    HW227447   3.741   8.353  14.553
41872SOL     OW27448   1.584  14.661   9.048
41872SOL    HW127449   1.511  14.626   9.098
41872SOL    HW227450   1.580  14.756   9.063
41873SOL     OW27451   8.393   3.478   5.341
41873SOL    HW127452   8.346   3.524   5.272
41873SOL    HW227453   8.331   3.475   5.414
41874SOL     OW27454   1.035   9.820   5.490
41874SOL    HW127455   1.083   9.901   5.472
41874SOL    HW227456   1.017   9.783   5.404
41875SOL     OW27457  11.610   6.388   1.504
41875SOL    HW127458  11.699   6.423   1.503
41875SOL    HW227459  11.602   6.345   1.589
41876SOL     OW27460   2.028   7.379   8.813
41876SOL    HW127461   1.996   7.433   8.885
41876SOL    HW227462   2.122   7.373   8.826
41877SOL     OW27463  14.349   7.928   8.265
41877SOL    HW127464  14.285   7.887   8.206
41877SOL    HW227465  14.413   7.969   8.206
41878SOL     OW27466   4.651  11.764  10.188
41878SOL    HW127467   4.635  11.858  10.178
41878SOL    HW227468   4.573  11.731  10.231
41879SOL     OW27469  13.468   0.050   1.335
41879SOL    HW127470  13.484   0.097   1.416
41879SOL    HW227471  13.399   0.100   1.291
41880SOL     OW27472   5.521  13.744   7.228
41880SOL    HW127473   5.518  13.745   7.323
41880SOL    HW227474   5.524  13.837   7.203
41881SOL     OW27475   6.525  13.195   2.334
41881SOL    HW127476   6.596  13.215   2.395
41881SOL    HW227477   6.498  13.281   2.300
41882SOL     OW27478   8.005   5.941   1.018
41882SOL    HW127479   8.074   5.978   0.963
41882SOL    HW227480   8.043   5.862   1.055
41883SOL     OW27481  11.044   7.785  13.119
41883SOL    HW127482  11.062   7.724  13.048
41883SOL    HW227483  11.121   7.777  13.176
41884SOL     OW27484  13.536  13.412   4.030
41884SOL    HW127485  13.514  13.498   4.064
41884SOL    HW227486  13.512  13.351   4.100
41885SOL     OW27487   4.683   9.915   5.969
41885SOL    HW127488   4.658  10.004   5.945
41885SOL    HW227489   4.767   9.925   6.013
41886SOL     OW27490  14.829   6.233   6.223
41886SOL    HW127491  14.854   6.210   6.312
41886SOL    HW227492  14.745   6.188   6.209
41887SOL     OW27493   2.574   3.519   1.077
41887SOL    HW127494   2.572   3.426   1.055
41887SOL    HW227495   2.665   3.536   1.099
41888SOL     OW27496  10.317  10.061   5.974
41888SOL    HW127497  10.379  10.011   5.921
41888SOL    HW227498  10.291  10.135   5.919
41889SOL     OW27499   3.451  13.527   0.146
41889SOL    HW127500   3.415  13.511   0.058
41889SOL    HW227501   3.472  13.439   0.178
41890SOL     OW27502   3.966  10.225   9.449
41890SOL    HW127503   3.913  10.166   9.395
41890SOL    HW227504   3.923  10.226   9.534
41891SOL     OW27505   8.720   4.147   6.982
41891SOL    HW127506   8.644   4.140   6.924
41891SOL    HW227507   8.761   4.230   6.958
41892SOL     OW27508   1.921   4.170  11.032
41892SOL    HW127509   1.850   4.122  11.074
41892SOL    HW227510   1.906   4.261  11.056
41893SOL     OW27511   8.253   2.814  10.314
41893SOL    HW127512   8.332   2.838  10.265
41893SOL    HW227513   8.223   2.733  10.272
41894SOL     OW27514   9.273   1.270   7.522
41894SOL    HW127515   9.277   1.292   7.429
41894SOL    HW227516   9.189   1.304   7.551
41895SOL     OW27517   3.293   7.098  10.883
41895SOL    HW127518   3.332   7.118  10.798
41895SOL    HW227519   3.292   7.182  10.929
41896SOL     OW27520   7.733   2.107   1.237
41896SOL    HW127521   7.820   2.121   1.275
41896SOL    HW227522   7.717   2.184   1.184
41897SOL     OW27523   8.675   3.966  14.680
41897SOL    HW127524   8.638   3.879  14.697
41897SOL    HW227525   8.638   4.022  14.748
41898SOL     OW27526  12.137  14.858  11.074
41898SOL    HW127527  12.207  14.800  11.105
41898SOL    HW227528  12.170   0.067  11.092
41899SOL     OW27529   6.749  11.341   8.184
41899SOL    HW127530   6.822  11.313   8.240
41899SOL    HW227531   6.779  11.325   8.095
41900SOL     OW27532   1.697   5.442   7.560
41900SOL    HW127533   1.788   5.432   7.534
41900SOL    HW227534   1.668   5.353   7.579
41901SOL     OW27535   2.953   8.812   6.846
41901SOL    HW127536   2.948   8.883   6.782
41901SOL    HW227537   2.909   8.738   6.803
41902SOL     OW27538   8.150   7.338  13.861
41902SOL    HW127539   8.089   7.378  13.799
41902SOL    HW227540   8.235   7.342  13.817
41903SOL     OW27541   0.753   5.637   3.798
41903SOL    HW127542   0.662   5.625   3.768
41903SOL    HW227543   0.806   5.596   3.729
41904SOL     OW27544   0.174   1.387   7.458
41904SOL    HW127545   0.259   1.351   7.481
41904SOL    HW227546   0.131   1.403   7.542
41905SOL     OW27547   9.471   9.817  14.300
41905SOL    HW127548   9.507   9.874  14.367
41905SOL    HW227549   9.390   9.782  14.339
41906SOL     OW27550  14.291   2.564  10.192
41906SOL    HW127551  14.206   2.539  10.155
41906SOL    HW227552  14.339   2.481  10.200
41907SOL     OW27553  10.652   5.783  13.239
41907SOL    HW127554  10.649   5.782  13.335
41907SOL    HW227555  10.700   5.704  13.216
41908SOL     OW27556   9.481   4.960  14.103
41908SOL    HW127557   9.389   4.984  14.090
41908SOL    HW227558   9.502   4.905  14.028
41909SOL     OW27559   6.424  10.842   4.317
41909SOL    HW127560   6.414  10.803   4.230
41909SOL    HW227561   6.457  10.930   4.299
41910SOL     OW27562  10.548  11.131  12.761
41910SOL    HW127563  10.453  11.119  12.765
41910SOL    HW227564  10.560  11.209  12.707
41911SOL     OW27565   5.276   8.921   9.223
41911SOL    HW127566   5.339   8.880   9.164
41911SOL    HW227567   5.289   8.876   9.307
41912SOL     OW27568  14.332   0.019   0.756
41912SOL    HW127569  14.414  14.851   0.743
41912SOL    HW227570  14.343   0.066   0.838
41913SOL     OW27571   1.061   7.610   4.508
41913SOL    HW127572   1.046   7.700   4.478
41913SOL    HW227573   1.137   7.616   4.565
41914SOL     OW27574   1.399  10.374  10.479
41914SOL    HW127575   1.429  10.419  10.558
41914SOL    HW227576   1.305  10.389  10.477
41915SOL     OW27577  14.623   3.024   9.365
41915SOL    HW127578  14.572   3.007   9.445
41915SOL    HW227579  14.568   2.990   9.294
41916SOL     OW27580   2.658  13.900   4.461
41916SOL    HW127581   2.733  13.876   4.406
41916SOL    HW227582   2.615  13.970   4.414
41917SOL     OW27583  13.241  12.164   2.681
41917SOL    HW127584  13.218  12.257   2.683
41917SOL    HW227585  13.169  12.120   2.726
41918SOL     OW27586  12.048  14.526  10.464
41918SOL    HW127587  12.082  14.494  10.547
41918SOL    HW227588  12.069  14.457  10.401
41919SOL     OW27589  11.412  13.295   9.513
41919SOL    HW127590  11.409  13.255   9.599
41919SOL    HW227591  11.321  13.297   9.483
41920SOL     OW27592   2.101   1.720   6.317
41920SOL    HW127593   2.114   1.759   6.404
41920SOL    HW227594   2.007   1.723   6.303
41921SOL     OW27595   4.316   2.851  14.418
41921SOL    HW127596   4.375   2.875  14.346
41921SOL    HW227597   4.375   2.829  14.490
41922SOL     OW27598   0.931   6.879   0.410
41922SOL    HW127599   0.882   6.961   0.412
41922SOL    HW227600   0.972   6.873   0.495
41923SOL     OW27601   5.620   6.560  12.653
41923SOL    HW127602   5.559   6.581  12.582
41923SOL    HW227603   5.691   6.624  12.644
41924SOL     OW27604   6.312   4.874   5.806
41924SOL    HW127605   6.239   4.931   5.784
41924SOL    HW227606   6.387   4.933   5.813
41925SOL     OW27607  13.785   5.775   0.188
41925SOL    HW127608  13.835   5.730   0.119
41925SOL    HW227609  13.701   5.796   0.147
41926SOL     OW27610   1.302   3.099   6.068
41926SOL    HW127611   1.364   3.077   6.138
41926SOL    HW227612   1.352   3.088   5.988
41927SOL     OW27613  13.157  13.203   2.340
41927SOL    HW127614  13.070  13.241   2.351
41927SOL    HW227615  13.214  13.259   2.394
41928SOL     OW27616  13.010   7.975   2.296
41928SOL    HW127617  12.952   8.026   2.352
41928SOL    HW227618  12.955   7.906   2.260
41929SOL     OW27619  14.694   2.615  14.254
41929SOL    HW127620  14.670   2.565  14.332
41929SOL    HW227621  14.719   2.549  14.190
41930SOL     OW27622   6.506   1.574  12.408
41930SOL    HW127623   6.582   1.625  12.435
41930SOL    HW227624   6.491   1.513  12.481
41931SOL     OW27625  11.560   7.377   6.145
41931SOL    HW127626  11.656   7.375   6.138
41931SOL    HW227627  11.536   7.288   6.171
41932SOL     OW27628   3.465   2.905   1.722
41932SOL    HW127629   3.379   2.872   1.746
41932SOL    HW227630   3.523   2.877   1.794
41933SOL     OW27631   6.155  10.144   1.350
41933SOL    HW127632   6.082  10.143   1.412
41933SOL    HW227633   6.211  10.216   1.380
41934SOL     OW27634   3.288   6.367   8.938
41934SOL    HW127635   3.198   6.393   8.922
41934SOL    HW227636   3.340   6.419   8.878
41935SOL     OW27637  13.421   6.829  12.363
41935SOL    HW127638  13.399   6.809  12.272
41935SOL    HW227639  13.441   6.744  12.402
41936SOL     OW27640   2.918   3.264  12.770
41936SOL    HW127641   2.867   3.304  12.700
41936SOL    HW227642   3.009   3.288  12.750
41937SOL     OW27643   2.265   1.925   4.992
41937SOL    HW127644   2.286   1.832   4.983
41937SOL    HW227645   2.215   1.946   4.914
41938SOL     OW27646   5.297  10.439  11.116
41938SOL    HW127647   5.321  10.383  11.042
41938SOL    HW227648   5.257  10.379  11.179
41939SOL     OW27649   6.487  10.679   4.074
41939SOL    HW127650   6.393  10.684   4.055
41939SOL    HW227651   6.523  10.629   4.001
41940SOL     OW27652   7.386   9.067  14.377
41940SOL    HW127653   7.477   9.071  14.404
41940SOL    HW227654   7.384   9.001  14.308
41941SOL     OW27655  13.254   6.868   2.415
41941SOL    HW127656  13.311   6.943   2.397
41941SOL    HW227657  13.195   6.864   2.340
41942SOL     OW27658  13.405  13.264   0.245
41942SOL    HW127659  13.338  13.251   0.313
41942SOL    HW227660  13.464  13.330   0.282
41943SOL     OW27661  12.355   3.737   2.372
41943SOL    HW127662  12.405   3.656   2.367
41943SOL    HW227663  12.394   3.793   2.304
41944SOL     OW27664   4.837   3.860   0.218
41944SOL    HW127665   4.912   3.919   0.209
41944SOL    HW227666   4.876   3.774   0.237
41945SOL     OW27667   5.493   0.088   9.479
41945SOL    HW127668   5.415   0.094   9.423
41945SOL    HW227669   5.459   0.069   9.566
41946SOL     OW27670  12.092   6.942   2.076
41946SOL    HW127671  12.039   6.880   2.127
41946SOL    HW227672  12.160   6.971   2.137
41947SOL     OW27673   9.021  14.505   0.434
41947SOL    HW127674   9.081  14.501   0.508
41947SOL    HW227675   9.070  14.465   0.361
41948SOL     OW27676   0.195   5.452  12.496
41948SOL    HW127677   0.251   5.529  12.500
41948SOL    HW227678   0.130   5.466  12.564
41949SOL     OW27679   7.241  11.310   9.334
41949SOL    HW127680   7.305  11.379   9.320
41949SOL    HW227681   7.190  11.338   9.409
41950SOL     OW27682   3.267   5.079   8.308
41950SOL    HW127683   3.304   5.113   8.226
41950SOL    HW227684   3.342   5.043   8.355
41951SOL     OW27685   7.410  13.274   9.491
41951SOL    HW127686   7.487  13.278   9.548
41951SOL    HW227687   7.431  13.331   9.417
41952SOL     OW27688   1.492   7.853   5.084
41952SOL    HW127689   1.546   7.780   5.053
41952SOL    HW227690   1.423   7.812   5.135
41953SOL     OW27691  13.425   1.422   5.158
41953SOL    HW127692  13.411   1.356   5.226
41953SOL    HW227693  13.341   1.428   5.113
41954SOL     OW27694  14.753   9.847  12.748
41954SOL    HW127695  14.749   9.850  12.652
41954SOL    HW227696  14.819   9.780  12.767
41955SOL     OW27697   4.088  11.228   9.750
41955SOL    HW127698   4.143  11.190   9.818
41955SOL    HW227699   4.138  11.216   9.669
41956SOL     OW27700   6.004  10.708   5.318
41956SOL    HW127701   5.960  10.652   5.382
41956SOL    HW227702   6.081  10.659   5.291
41957SOL     OW27703  12.205  12.877   9.839
41957SOL    HW127704  12.233  12.790   9.866
41957SOL    HW227705  12.218  12.878   9.744
41958SOL     OW27706   3.804  12.017   6.564
41958SOL    HW127707   3.771  12.081   6.501
41958SOL    HW227708   3.724  11.979   6.602
41959SOL     OW27709  10.084  11.945   4.840
41959SOL    HW127710  10.134  12.025   4.823
41959SOL    HW227711  10.146  11.874   4.824
41960SOL     OW27712   8.245  11.579   6.563
41960SOL    HW127713   8.168  11.551   6.613
41960SOL    HW227714   8.254  11.672   6.582
41961SOL     OW27715   4.948  13.146   0.518
41961SOL    HW127716   4.892  13.071   0.539
41961SOL    HW227717   4.977  13.130   0.428
41962SOL     OW27718  12.979   2.547   6.951
41962SOL    HW127719  13.044   2.568   6.884
41962SOL    HW227720  12.937   2.467   6.920
41963SOL     OW27721   3.862  10.068   0.700
41963SOL    HW127722   3.877  10.161   0.682
41963SOL    HW227723   3.775  10.066   0.740
41964SOL     OW27724   9.132  10.581   4.325
41964SOL    HW127725   9.140  10.642   4.398
41964SOL    HW227726   9.107  10.498   4.365
41965SOL     OW27727   2.449   3.866  10.629
41965SOL    HW127728   2.540   3.837  10.628
41965SOL    HW227729   2.454   3.960  10.644
41966SOL     OW27730   4.770  11.560  10.070
41966SOL    HW127731   4.751  11.645  10.109
41966SOL    HW227732   4.700  11.547  10.006
41967SOL     OW27733   4.965   4.355  13.188
41967SOL    HW127734   4.951   4.264  13.214
41967SOL    HW227735   5.060   4.367  13.194
41968SOL     OW27736   5.952   1.856   4.602
41968SOL    HW127737   5.860   1.833   4.617
41968SOL    HW227738   5.959   1.871   4.508
41969SOL     OW27739   6.784  14.205  14.019
41969SOL    HW127740   6.859  14.262  14.035
41969SOL    HW227741   6.712  14.244  14.069
41970SOL     OW27742  11.437   6.416  11.610
41970SOL    HW127743  11.464   6.341  11.663
41970SOL    HW227744  11.348   6.394  11.581
41971SOL     OW27745   8.322  11.362  11.359
41971SOL    HW127746   8.381  11.387  11.430
41971SOL    HW227747   8.322  11.438  11.300
41972SOL     OW27748   0.540   3.195   4.441
41972SOL    HW127749   0.464   3.215   4.497
41972SOL    HW227750   0.604   3.263   4.464
41973SOL     OW27751  13.672  12.188   4.037
41973SOL    HW127752  13.644  12.098   4.018
41973SOL    HW227753  13.594  12.232   4.068
41974SOL     OW27754   8.751  14.871   8.397
41974SOL    HW127755   8.846   0.006   8.395
41974SOL    HW227756   8.735  14.833   8.483
41975SOL     OW27757   7.308   6.831   1.192
41975SOL    HW127758   7.284   6.758   1.135
41975SOL    HW227759   7.389   6.865   1.155
41976SOL     OW27760   1.095  10.091   5.425
41976SOL    HW127761   1.136  10.153   5.365
41976SOL    HW227762   1.013  10.134   5.451
41977SOL     OW27763   5.360   9.923   8.496
41977SOL    HW127764   5.344   9.979   8.420
41977SOL    HW227765   5.335   9.977   8.571
41978SOL     OW27766   2.274   2.997   5.310
41978SOL    HW127767   2.305   3.079   5.272
41978SOL    HW227768   2.302   2.930   5.248
41979SOL     OW27769   0.469   8.127  11.591
41979SOL    HW127770   0.499   8.142  11.680
41979SOL    HW227771   0.403   8.195  11.576
41980SOL     OW27772  11.148  13.970  10.955
41980SOL    HW127773  11.066  14.018  10.965
41980SOL    HW227774  11.140  13.926  10.871
41981SOL     OW27775  11.755  13.387   9.601
41981SOL    HW127776  11.836  13.353   9.639
41981SOL    HW227777  11.719  13.444   9.668
41982SOL     OW27778   3.864   4.784   6.723
41982SOL    HW127779   3.898   4.750   6.640
41982SOL    HW227780   3.882   4.878   6.719
41983SOL     OW27781  11.841   2.430   3.808
41983SOL    HW127782  11.908   2.464   3.748
41983SOL    HW227783  11.864   2.468   3.893
41984SOL     OW27784   0.191  12.359   4.184
41984SOL    HW127785   0.098  12.343   4.168
41984SOL    HW227786   0.231  12.350   4.097
41985SOL     OW27787  11.297   2.608   9.190
41985SOL    HW127788  11.221   2.578   9.140
41985SOL    HW227789  11.286   2.702   9.197
41986SOL     OW27790   7.131   8.890   0.078
41986SOL    HW127791   7.044   8.891   0.117
41986SOL    HW227792   7.121   8.844  14.874
41987SOL     OW27793   0.280  11.478  12.678
41987SOL    HW127794   0.203  11.480  12.622
41987SOL    HW227795   0.250  11.434  12.758
41988SOL     OW27796   2.181  12.134   0.212
41988SOL    HW127797   2.140  12.216   0.184
41988SOL    HW227798   2.248  12.117   0.145
41989SOL     OW27799   4.972  11.866   0.676
41989SOL    HW127800   4.963  11.780   0.717
41989SOL    HW227801   4.920  11.860   0.596
41990SOL     OW27802   8.505   1.416  10.550
41990SOL    HW127803   8.560   1.487  10.581
41990SOL    HW227804   8.512   1.349  10.618
41991SOL     OW27805   3.021   1.677  11.272
41991SOL    HW127806   3.094   1.683  11.210
41991SOL    HW227807   2.951   1.636  11.222
41992SOL     OW27808  13.023   5.716   3.545
41992SOL    HW127809  12.950   5.712   3.607
41992SOL    HW227810  13.093   5.760   3.593
41993SOL     OW27811   3.910   3.416  13.852
41993SOL    HW127812   3.926   3.321  13.855
41993SOL    HW227813   3.851   3.428  13.778
41994SOL     OW27814   2.076   4.593   5.108
41994SOL    HW127815   1.997   4.545   5.137
41994SOL    HW227816   2.049   4.637   5.028
41995SOL     OW27817  12.856   0.059  14.650
41995SOL    HW127818  12.855   0.118  14.725
41995SOL    HW227819  12.767   0.061  14.616
41996SOL     OW27820  12.662  12.432  11.498
41996SOL    HW127821  12.707  12.395  11.423
41996SOL    HW227822  12.603  12.363  11.528
41997SOL     OW27823   7.335  11.621   2.975
41997SOL    HW127824   7.324  11.581   2.889
41997SOL    HW227825   7.425  11.656   2.974
41998SOL     OW27826   1.453   0.567  10.018
41998SOL    HW127827   1.429   0.556   9.926
41998SOL    HW227828   1.424   0.656  10.040
41999SOL     OW27829   0.101  12.762   6.526
41999SOL    HW127830   0.195  12.758   6.506
41999SOL    HW227831   0.072  12.671   6.520
42000SOL     OW27832   9.635  14.575   5.295
42000SOL    HW127833   9.557  14.620   5.262
42000SOL    HW227834   9.659  14.515   5.225
42001SOL     OW27835   8.557  14.529  14.513
42001SOL    HW127836   8.467  14.558  14.503
42001SOL    HW227837   8.579  14.488  14.429
42002SOL     OW27838  10.199   2.229  12.873
42002SOL    HW127839  10.228   2.293  12.938
42002SOL    HW227840  10.150   2.164  12.923
42003SOL     OW27841   6.523  11.440   7.179
42003SOL    HW127842   6.553  11.488   7.256
42003SOL    HW227843   6.599  11.437   7.122
42004SOL     OW27844   4.981  11.042  10.366
42004SOL    HW127845   4.966  11.064  10.274
42004SOL    HW227846   5.071  11.070  10.383
42005SOL     OW27847   1.081  11.248  13.590
42005SOL    HW127848   1.089  11.153  13.592
42005SOL    HW227849   1.161  11.279  13.632
42006SOL     OW27850   2.560   6.577  12.852
42006SOL    HW127851   2.649   6.609  12.864
42006SOL    HW227852   2.567   6.512  12.781
42007SOL     OW27853   9.706  12.180   8.119
42007SOL    HW127854   9.722  12.155   8.028
42007SOL    HW227855   9.632  12.127   8.147
42008SOL     OW27856   9.638   1.667   9.166
42008SOL    HW127857   9.612   1.750   9.205
42008SOL    HW227858   9.560   1.637   9.120
42009SOL     OW27859   3.637   2.997   6.631
42009SOL    HW127860   3.711   3.047   6.665
42009SOL    HW227861   3.630   2.922   6.690
42010SOL     OW27862   6.270   7.883  10.510
42010SOL    HW127863   6.218   7.825  10.455
42010SOL    HW227864   6.207   7.943  10.549
42011SOL     OW27865   7.201   6.166  12.514
42011SOL    HW127866   7.260   6.189  12.586
42011SOL    HW227867   7.222   6.230  12.446
42012SOL     OW27868   4.032   2.505  12.461
42012SOL    HW127869   3.982   2.562  12.402
42012SOL    HW227870   4.114   2.553  12.475
42013SOL     OW27871   2.087   9.041  13.093
42013SOL    HW127872   2.179   9.059  13.112
42013SOL    HW227873   2.061   9.111  13.033
42014SOL     OW27874   1.491  11.829   7.335
42014SOL    HW127875   1.411  11.777   7.339
42014SOL    HW227876   1.461  11.919   7.324
42015SOL     OW27877  13.254   8.919   7.253
42015SOL    HW127878  13.317   8.914   7.180
42015SOL    HW227879  13.275   9.001   7.296
42016SOL     OW27880   2.889   9.700   6.084
42016SOL    HW127881   2.827   9.645   6.036
42016SOL    HW227882   2.960   9.716   6.021
42017SOL     OW27883   0.991   1.291   4.870
42017SOL    HW127884   1.083   1.304   4.891
42017SOL    HW227885   0.991   1.238   4.790
42018SOL     OW27886   3.257  14.627   2.273
42018SOL    HW127887   3.255  14.649   2.366
42018SOL    HW227888   3.290  14.706   2.230
42019SOL     OW27889   0.776   3.933   2.763
42019SOL    HW127890   0.743   3.910   2.850
42019SOL    HW227891   0.869   3.953   2.778
42020SOL     OW27892   5.806  14.140   1.383
42020SOL    HW127893   5.769  14.135   1.471
42020SOL    HW227894   5.734  14.175   1.329
42021SOL     OW27895  10.262  12.656   8.360
42021SOL    HW127896  10.282  12.689   8.273
42021SOL    HW227897  10.276  12.731   8.418
42022SOL     OW27898   8.273   6.354  14.056
42022SOL    HW127899   8.230   6.366  14.141
42022SOL    HW227900   8.309   6.440  14.035
42023SOL     OW27901   2.799   6.780   0.204
42023SOL    HW127902   2.715   6.767   0.249
42023SOL    HW227903   2.831   6.864   0.236
42024SOL     OW27904  10.076   7.389  11.574
42024SOL    HW127905  10.160   7.433  11.563
42024SOL    HW227906  10.091   7.300  11.543
42025SOL     OW27907  14.687   0.713  10.266
42025SOL    HW127908  14.737   0.700  10.185
42025SOL    HW227909  14.702   0.633  10.316
42026SOL     OW27910  13.923   0.333   1.433
42026SOL    HW127911  14.009   0.356   1.399
42026SOL    HW227912  13.868   0.322   1.356
42027SOL     OW27913  12.511   0.070   6.503
42027SOL    HW127914  12.474   0.119   6.577
42027SOL    HW227915  12.465  14.864   6.506
42028SOL     OW27916   0.144  13.936   1.628
42028SOL    HW127917   0.164  13.869   1.694
42028SOL    HW227918   0.054  13.919   1.603
42029SOL     OW27919  10.152   3.818   3.540
42029SOL    HW127920  10.221   3.760   3.508
42029SOL    HW227921  10.111   3.852   3.460
42030SOL     OW27922  10.156   9.121  14.395
42030SOL    HW127923  10.095   9.175  14.345
42030SOL    HW227924  10.219   9.090  14.329
42031SOL     OW27925  11.020   2.247   8.530
42031SOL    HW127926  10.925   2.251   8.519
42031SOL    HW227927  11.033   2.212   8.618
42032SOL     OW27928  13.841   0.335  10.882
42032SOL    HW127929  13.817   0.367  10.969
42032SOL    HW227930  13.759   0.337  10.832
42033SOL     OW27931   9.006   9.075   8.089
42033SOL    HW127932   9.056   9.078   8.171
42033SOL    HW227933   8.919   9.108   8.113
42034SOL     OW27934   9.304   6.559  10.530
42034SOL    HW127935   9.393   6.595  10.528
42034SOL    HW227936   9.249   6.634  10.508
42035SOL     OW27937   2.147   3.866   6.634
42035SOL    HW127938   2.203   3.897   6.705
42035SOL    HW227939   2.207   3.822   6.574
42036SOL     OW27940  13.220  13.708   3.435
42036SOL    HW127941  13.147  13.765   3.460
42036SOL    HW227942  13.299  13.759   3.454
42037SOL     OW27943   7.927   4.657  12.013
42037SOL    HW127944   8.014   4.645  12.052
42037SOL    HW227945   7.868   4.659  12.089
42038SOL     OW27946   6.767  14.411   3.554
42038SOL    HW127947   6.752  14.410   3.459
42038SOL    HW227948   6.683  14.386   3.592
42039SOL     OW27949  11.901   5.602   5.653
42039SOL    HW127950  11.911   5.561   5.567
42039SOL    HW227951  11.940   5.689   5.642
42040SOL     OW27952   2.596   3.136  11.758
42040SOL    HW127953   2.561   3.158  11.671
42040SOL    HW227954   2.658   3.065  11.742
42041SOL     OW27955  11.931   1.864   4.588
42041SOL    HW127956  11.916   1.822   4.672
42041SOL    HW227957  11.974   1.796   4.535
42042SOL     OW27958  13.646  12.201   8.508
42042SOL    HW127959  13.569  12.256   8.499
42042SOL    HW227960  13.612  12.115   8.533
42043SOL     OW27961   1.283  11.503   9.380
42043SOL    HW127962   1.304  11.461   9.297
42043SOL    HW227963   1.192  11.530   9.371
42044SOL     OW27964   7.993  12.546   6.521
42044SOL    HW127965   7.935  12.487   6.473
42044SOL    HW227966   8.075  12.497   6.530
42045SOL     OW27967   6.868   3.182   9.274
42045SOL    HW127968   6.810   3.134   9.216
42045SOL    HW227969   6.889   3.120   9.344
42046SOL     OW27970  11.638   9.600   7.712
42046SOL    HW127971  11.584   9.526   7.683
42046SOL    HW227972  11.691   9.622   7.635
42047SOL     OW27973   2.923   8.757  10.561
42047SOL    HW127974   2.942   8.702  10.638
42047SOL    HW227975   2.828   8.758  10.555
42048SOL     OW27976   4.069   7.379   4.733
42048SOL    HW127977   4.147   7.325   4.723
42048SOL    HW227978   3.997   7.322   4.707
42049SOL     OW27979   7.195  13.829   4.869
42049SOL    HW127980   7.196  13.912   4.822
42049SOL    HW227981   7.234  13.766   4.809
42050SOL     OW27982   5.556   4.427   0.072
42050SOL    HW127983   5.622   4.460   0.133
42050SOL    HW227984   5.606   4.378   0.007
42051SOL     OW27985   5.642  14.110   7.514
42051SOL    HW127986   5.634  14.160   7.433
42051SOL    HW227987   5.695  14.034   7.490
42052SOL     OW27988   9.820  10.918   8.872
42052SOL    HW127989   9.842  10.964   8.953
42052SOL    HW227990   9.778  10.984   8.818
42053SOL     OW27991  14.022   7.491  12.459
42053SOL    HW127992  14.096   7.492  12.520
42053SOL    HW227993  14.000   7.584  12.448
42054SOL     OW27994   2.165   0.935  14.166
42054SOL    HW127995   2.229   0.928  14.095
42054SOL    HW227996   2.210   0.987  14.233
42055SOL     OW27997   2.872   5.784   3.953
42055SOL    HW127998   2.846   5.703   3.999
42055SOL    HW227999   2.967   5.779   3.948
42056SOL     OW28000   5.312   7.836   3.506
42056SOL    HW128001   5.218   7.820   3.505
42056SOL    HW228002   5.320   7.929   3.528
42057SOL     OW28003   4.608   1.110   0.961
42057SOL    HW128004   4.639   1.026   0.928
42057SOL    HW228005   4.585   1.160   0.882
42058SOL     OW28006  13.527   3.996   2.248
42058SOL    HW128007  13.510   3.902   2.261
42058SOL    HW228008  13.450   4.039   2.286
42059SOL     OW28009   5.902  14.655  10.231
42059SOL    HW128010   5.956  14.711  10.175
42059SOL    HW228011   5.933  14.566  10.213
42060SOL     OW28012  12.936   3.419   7.645
42060SOL    HW128013  12.902   3.424   7.555
42060SOL    HW228014  12.959   3.510   7.667
42061SOL     OW28015   6.819   6.335  14.424
42061SOL    HW128016   6.877   6.383  14.364
42061SOL    HW228017   6.854   6.245  14.423
42062SOL     OW28018  10.868   1.889  12.443
42062SOL    HW128019  10.880   1.874  12.537
42062SOL    HW228020  10.784   1.933  12.436
42063SOL     OW28021   8.893   0.414   9.294
42063SOL    HW128022   8.931   0.375   9.372
42063SOL    HW228023   8.810   0.451   9.322
42064SOL     OW28024   6.715   3.141   3.964
42064SOL    HW128025   6.663   3.177   3.892
42064SOL    HW228026   6.782   3.088   3.921
42065SOL     OW28027  13.926  13.019   9.155
42065SOL    HW128028  13.951  12.965   9.079
42065SOL    HW228029  14.006  13.067   9.177
42066SOL     OW28030   0.269   6.080   6.815
42066SOL    HW128031   0.344   6.095   6.757
42066SOL    HW228032   0.235   5.995   6.790
42067SOL     OW28033   4.597   2.065  12.956
42067SOL    HW128034   4.597   2.135  12.891
42067SOL    HW228035   4.688   2.061  12.987
42068SOL     OW28036   0.157  10.212   6.758
42068SOL    HW128037   0.216  10.241   6.827
42068SOL    HW228038   0.090  10.160   6.804
42069SOL     OW28039  10.749   7.056   7.359
42069SOL    HW128040  10.839   7.033   7.381
42069SOL    HW228041  10.722   7.117   7.428
42070SOL     OW28042   5.079   4.781   3.407
42070SOL    HW128043   5.174   4.780   3.401
42070SOL    HW228044   5.061   4.771   3.501
42071SOL     OW28045   3.536   5.664  13.500
42071SOL    HW128046   3.611   5.604  13.498
42071SOL    HW228047   3.477   5.631  13.433
42072SOL     OW28048   6.120  12.508   3.144
42072SOL    HW128049   6.172  12.428   3.139
42072SOL    HW228050   6.029  12.478   3.151
42073SOL     OW28051   9.150   2.970  11.456
42073SOL    HW128052   9.165   3.064  11.457
42073SOL    HW228053   9.237   2.931  11.447
42074SOL     OW28054  11.807   6.421   4.042
42074SOL    HW128055  11.821   6.431   3.948
42074SOL    HW228056  11.832   6.506   4.079
42075SOL     OW28057  13.399   4.572  14.008
42075SOL    HW128058  13.347   4.623  13.946
42075SOL    HW228059  13.478   4.548  13.960
42076SOL     OW28060   9.560  12.750   5.770
42076SOL    HW128061   9.644  12.769   5.811
42076SOL    HW228062   9.535  12.663   5.804
42077SOL     OW28063   2.130   1.371   5.649
42077SOL    HW128064   2.217   1.331   5.645
42077SOL    HW228065   2.073   1.302   5.682
42078SOL     OW28066   5.422  12.238   7.515
42078SOL    HW128067   5.475  12.315   7.492
42078SOL    HW228068   5.469  12.197   7.588
42079SOL     OW28069  14.794   4.116   3.906
42079SOL    HW128070  14.864   4.104   3.969
42079SOL    HW228071  14.724   4.158   3.956
42080SOL     OW28072  14.551   3.298   6.237
42080SOL    HW128073  14.589   3.280   6.151
42080SOL    HW228074  14.457   3.286   6.224
42081SOL     OW28075   1.803   3.127  12.479
42081SOL    HW128076   1.718   3.168  12.464
42081SOL    HW228077   1.845   3.128  12.392
42082SOL     OW28078   1.279   3.195  10.901
42082SOL    HW128079   1.374   3.203  10.896
42082SOL    HW228080   1.252   3.180  10.810
42083SOL     OW28081  10.627   3.900   2.092
42083SOL    HW128082  10.636   3.837   2.021
42083SOL    HW228083  10.715   3.904   2.131
42084SOL     OW28084   5.201   5.382  12.381
42084SOL    HW128085   5.259   5.456  12.359
42084SOL    HW228086   5.129   5.422  12.430
42085SOL     OW28087   4.201   1.016   1.691
42085SOL    HW128088   4.185   0.923   1.678
42085SOL    HW228089   4.250   1.021   1.773
42086SOL     OW28090  13.001  10.015  12.371
42086SOL    HW128091  12.931   9.959  12.337
42086SOL    HW228092  13.009  10.084  12.305
42087SOL     OW28093   3.521   7.516  14.664
42087SOL    HW128094   3.574   7.466  14.726
42087SOL    HW228095   3.456   7.453  14.632
42088SOL     OW28096   8.372   0.147   6.255
42088SOL    HW128097   8.408   0.182   6.337
42088SOL    HW228098   8.424   0.187   6.186
42089SOL     OW28099   0.917   1.094   5.586
42089SOL    HW128100   0.880   1.055   5.507
42089SOL    HW228101   0.840   1.121   5.638
42090SOL     OW28102   8.478   5.309  12.241
42090SOL    HW128103   8.556   5.352  12.276
42090SOL    HW228104   8.473   5.339  12.150
42091SOL     OW28105  13.057  12.719   9.538
42091SOL    HW128106  13.014  12.696   9.456
42091SOL    HW228107  13.127  12.655   9.548
42092SOL     OW28108   1.723  12.995   6.275
42092SOL    HW128109   1.708  12.902   6.293
42092SOL    HW228110   1.662  13.041   6.332
42093SOL     OW28111   4.469   1.655  13.965
42093SOL    HW128112   4.510   1.727  13.917
42093SOL    HW228113   4.494   1.670  14.056
42094SOL     OW28114  14.094   8.042   0.312
42094SOL    HW128115  14.178   8.084   0.297
42094SOL    HW228116  14.039   8.111   0.350
42095SOL     OW28117   4.201  14.739   2.648
42095SOL    HW128118   4.155  14.814   2.684
42095SOL    HW228119   4.237  14.694   2.724
42096SOL     OW28120   7.300   1.458  10.590
42096SOL    HW128121   7.205   1.459  10.594
42096SOL    HW228122   7.326   1.383  10.643
42097SOL     OW28123  10.700  12.667   1.380
42097SOL    HW128124  10.750  12.714   1.313
42097SOL    HW228125  10.763  12.648   1.448
42098SOL     OW28126  14.731   7.585   1.981
42098SOL    HW128127  14.708   7.498   2.013
42098SOL    HW228128  14.825   7.579   1.961
42099SOL     OW28129   7.835   1.061   5.570
42099SOL    HW128130   7.745   1.084   5.591
42099SOL    HW228131   7.838   0.966   5.576
42100SOL     OW28132   7.690   1.230   8.690
42100SOL    HW128133   7.608   1.276   8.672
42100SOL    HW228134   7.759   1.293   8.666
42101SOL     OW28135   1.017   6.155   8.243
42101SOL    HW128136   0.985   6.240   8.212
42101SOL    HW228137   0.968   6.138   8.323
42102SOL     OW28138   8.512   7.697  10.539
42102SOL    HW128139   8.436   7.732  10.586
42102SOL    HW228140   8.508   7.602  10.557
42103SOL     OW28141   5.762   3.196   5.571
42103SOL    HW128142   5.674   3.220   5.541
42103SOL    HW228143   5.794   3.275   5.614
42104SOL     OW28144  11.640  13.288   2.192
42104SOL    HW128145  11.665  13.274   2.101
42104SOL    HW228146  11.624  13.200   2.226
42105SOL     OW28147   8.438   3.715   6.502
42105SOL    HW128148   8.359   3.661   6.510
42105SOL    HW228149   8.407   3.805   6.515
42106SOL     OW28150  12.711   0.779  11.636
42106SOL    HW128151  12.742   0.697  11.673
42106SOL    HW228152  12.657   0.753  11.561
42107SOL     OW28153  12.717   4.019   4.966
42107SOL    HW128154  12.649   4.077   4.932
42107SOL    HW228155  12.713   4.029   5.061
42108SOL     OW28156  11.535   2.187   0.290
42108SOL    HW128157  11.521   2.130   0.365
42108SOL    HW228158  11.447   2.208   0.259
42109SOL     OW28159   4.408  12.376   5.851
42109SOL    HW128160   4.431  12.464   5.821
42109SOL    HW228161   4.316  12.382   5.876
42110SOL     OW28162   7.830  10.979   4.562
42110SOL    HW128163   7.736  10.994   4.554
42110SOL    HW228164   7.869  11.034   4.494
42111SOL     OW28165   8.303  12.018   1.908
42111SOL    HW128166   8.255  11.943   1.942
42111SOL    HW228167   8.393  12.003   1.934
42112SOL     OW28168   8.769  11.920   1.236
42112SOL    HW128169   8.788  11.963   1.152
42112SOL    HW228170   8.676  11.899   1.231
42113SOL     OW28171   0.153  12.086   7.400
42113SOL    HW128172   0.063  12.088   7.367
42113SOL    HW228173   0.144  12.101   7.494
42114SOL     OW28174   4.412   4.376   7.324
42114SOL    HW128175   4.438   4.457   7.280
42114SOL    HW228176   4.444   4.306   7.268
42115SOL     OW28177  13.631  13.156  13.607
42115SOL    HW128178  13.707  13.210  13.582
42115SOL    HW228179  13.565  13.177  13.541
42116SOL     OW28180   9.810   4.620  14.080
42116SOL    HW128181   9.723   4.580  14.078
42116SOL    HW228182   9.798   4.706  14.039
42117SOL     OW28183  11.559  13.312  12.564
42117SOL    HW128184  11.652  13.330  12.579
42117SOL    HW228185  11.557  13.226  12.522
42118SOL     OW28186   8.984   2.888   7.731
42118SOL    HW128187   9.015   2.956   7.671
42118SOL    HW228188   9.037   2.900   7.810
42119SOL     OW28189   4.670   4.294   1.065
42119SOL    HW128190   4.620   4.364   1.022
42119SOL    HW228191   4.615   4.216   1.056
42120SOL     OW28192   5.500   2.990   0.566
42120SOL    HW128193   5.575   3.010   0.510
42120SOL    HW228194   5.499   2.894   0.572
42121SOL     OW28195  13.393  12.761  14.510
42121SOL    HW128196  13.298  12.772  14.511
42121SOL    HW228197  13.422  12.802  14.428
42122SOL     OW28198   2.973   9.722  14.610
42122SOL    HW128199   2.896   9.771  14.638
42122SOL    HW228200   3.038   9.739  14.678
42123SOL     OW28201  12.872   9.216   7.777
42123SOL    HW128202  12.886   9.310   7.791
42123SOL    HW228203  12.782   9.200   7.804
42124SOL     OW28204  11.845   9.752  11.960
42124SOL    HW128205  11.913   9.819  11.956
42124SOL    HW228206  11.875   9.692  12.028
42125SOL     OW28207  10.066  11.513  14.006
42125SOL    HW128208  10.116  11.443  13.965
42125SOL    HW228209   9.993  11.528  13.947
42126SOL     OW28210  10.910  14.416   5.004
42126SOL    HW128211  10.871  14.332   4.980
42126SOL    HW228212  10.960  14.441   4.926
42127SOL     OW28213   5.767   8.622  14.424
42127SOL    HW128214   5.759   8.713  14.395
42127SOL    HW228215   5.752   8.570  14.345
42128SOL     OW28216   1.435  11.856   5.841
42128SOL    HW128217   1.341  11.849   5.862
42128SOL    HW228218   1.479  11.840   5.925
42129SOL     OW28219   5.778   7.615   1.658
42129SOL    HW128220   5.786   7.543   1.721
42129SOL    HW228221   5.706   7.589   1.601
42130SOL     OW28222   9.278   7.678  10.330
42130SOL    HW128223   9.197   7.643  10.367
42130SOL    HW228224   9.342   7.609  10.344
42131SOL     OW28225  13.345   3.474  13.046
42131SOL    HW128226  13.267   3.423  13.068
42131SOL    HW228227  13.327   3.562  13.078
42132SOL     OW28228   8.487  14.528   9.959
42132SOL    HW128229   8.399  14.529   9.998
42132SOL    HW228230   8.475  14.491   9.872
42133SOL     OW28231   1.406   6.141  14.238
42133SOL    HW128232   1.458   6.091  14.174
42133SOL    HW228233   1.419   6.094  14.320
42134SOL     OW28234  14.300   0.866  13.237
42134SOL    HW128235  14.324   0.887  13.328
42134SOL    HW228236  14.273   0.774  13.240
42135SOL     OW28237  13.790  11.206   1.733
42135SOL    HW128238  13.854  11.138   1.711
42135SOL    HW228239  13.746  11.173   1.811
42136SOL     OW28240   9.637   5.068  11.104
42136SOL    HW128241   9.604   5.158  11.095
42136SOL    HW228242   9.693   5.055  11.028
42137SOL     OW28243   4.157   1.581   2.046
42137SOL    HW128244   4.225   1.542   1.992
42137SOL    HW228245   4.111   1.506   2.085
42138SOL     OW28246   3.921   1.536   8.247
42138SOL    HW128247   3.862   1.467   8.275
42138SOL    HW228248   3.883   1.616   8.283
42139SOL     OW28249   8.728   8.643  10.034
42139SOL    HW128250   8.758   8.556  10.060
42139SOL    HW228251   8.672   8.627   9.957
42140SOL     OW28252  10.807   6.624   3.961
42140SOL    HW128253  10.743   6.649   4.027
42140SOL    HW228254  10.888   6.666   3.990
42141SOL     OW28255   1.002   0.540   8.539
42141SOL    HW128256   0.981   0.446   8.536
42141SOL    HW228257   0.990   0.570   8.449
42142SOL     OW28258  10.659   8.557   3.234
42142SOL    HW128259  10.638   8.468   3.263
42142SOL    HW228260  10.603   8.571   3.157
42143SOL     OW28261   9.922  14.778   7.774
42143SOL    HW128262   9.951  14.829   7.699
42143SOL    HW228263   9.880  14.701   7.736
42144SOL     OW28264   1.129  11.258   3.435
42144SOL    HW128265   1.095  11.325   3.495
42144SOL    HW228266   1.055  11.237   3.379
42145SOL     OW28267  13.174   6.031  14.015
42145SOL    HW128268  13.252   5.996  13.972
42145SOL    HW228269  13.130   6.081  13.947
42146SOL     OW28270  11.618   0.910   1.194
42146SOL    HW128271  11.700   0.915   1.145
42146SOL    HW228272  11.612   0.993   1.240
42147SOL     OW28273  12.077  10.584  12.290
42147SOL    HW128274  12.136  10.552  12.358
42147SOL    HW228275  11.990  10.554  12.317
42148SOL     OW28276  14.196   7.829  10.285
42148SOL    HW128277  14.232   7.763  10.344
42148SOL    HW228278  14.202   7.789  10.198
42149SOL     OW28279   4.886   7.583  10.356
42149SOL    HW128280   4.949   7.577  10.429
42149SOL    HW228281   4.925   7.646  10.296
42150SOL     OW28282   6.650   0.729   9.943
42150SOL    HW128283   6.656   0.704  10.035
42150SOL    HW228284   6.573   0.682   9.910
42151SOL     OW28285  12.680   7.314   9.058
42151SOL    HW128286  12.692   7.390   9.001
42151SOL    HW228287  12.720   7.339   9.141
42152SOL     OW28288  13.876   0.703   5.352
42152SOL    HW128289  13.784   0.714   5.372
42152SOL    HW228290  13.886   0.739   5.264
42153SOL     OW28291  13.160   1.593   7.831
42153SOL    HW128292  13.077   1.548   7.816
42153SOL    HW228293  13.196   1.551   7.909
42154SOL     OW28294  12.206   2.884   6.990
42154SOL    HW128295  12.235   2.799   6.959
42154SOL    HW228296  12.268   2.907   7.059
42155SOL     OW28297   7.750   4.156   7.064
42155SOL    HW128298   7.823   4.145   7.125
42155SOL    HW228299   7.701   4.230   7.098
42156SOL     OW28300   4.167  12.717   4.396
42156SOL    HW128301   4.239  12.781   4.392
42156SOL    HW228302   4.210  12.634   4.415
42157SOL     OW28303  14.017  10.131   7.890
42157SOL    HW128304  13.952  10.091   7.832
42157SOL    HW228305  13.973  10.206   7.929
42158SOL     OW28306  12.870   6.491  10.440
42158SOL    HW128307  12.919   6.439  10.504
42158SOL    HW228308  12.836   6.565  10.490
42159SOL     OW28309   1.402   5.521   2.616
42159SOL    HW128310   1.409   5.617   2.617
42159SOL    HW228311   1.354   5.501   2.536
42160SOL     OW28312   4.268   0.951   8.628
42160SOL    HW128313   4.242   0.978   8.716
42160SOL    HW228314   4.333   1.016   8.601
42161SOL     OW28315  10.143  14.728  14.692
42161SOL    HW128316  10.176  14.818  14.685
42161SOL    HW228317  10.220  14.674  14.674
42162SOL     OW28318   9.308  10.871  13.319
42162SOL    HW128319   9.250  10.809  13.364
42162SOL    HW228320   9.256  10.905  13.246
42163SOL     OW28321   3.642  13.619   1.276
42163SOL    HW128322   3.596  13.654   1.352
42163SOL    HW228323   3.578  13.563   1.232
42164SOL     OW28324  10.984   1.699  13.633
42164SOL    HW128325  11.079   1.696  13.620
42164SOL    HW228326  10.968   1.786  13.671
42165SOL     OW28327   3.308  11.635   5.324
42165SOL    HW128328   3.380  11.593   5.277
42165SOL    HW228329   3.341  11.721   5.348
42166SOL     OW28330   7.579   8.084   5.101
42166SOL    HW128331   7.506   8.139   5.075
42166SOL    HW228332   7.571   8.074   5.195
42167SOL     OW28333   1.335   6.346   9.577
42167SOL    HW128334   1.375   6.290   9.509
42167SOL    HW228335   1.298   6.420   9.528
42168SOL     OW28336   5.866   6.266   3.348
42168SOL    HW128337   5.880   6.276   3.254
42168SOL    HW228338   5.829   6.178   3.357
42169SOL     OW28339   6.153   8.927  12.462
42169SOL    HW128340   6.061   8.943  12.440
42169SOL    HW228341   6.167   8.835  12.441
42170SOL     OW28342  13.734  10.268   6.211
42170SOL    HW128343  13.744  10.318   6.129
42170SOL    HW228344  13.815  10.217   6.218
42171SOL     OW28345   6.882   0.859   6.809
42171SOL    HW128346   6.970   0.834   6.779
42171SOL    HW228347   6.899   0.925   6.876
42172SOL     OW28348   4.122   3.782  10.143
42172SOL    HW128349   4.057   3.805  10.209
42172SOL    HW228350   4.074   3.725  10.082
42173SOL     OW28351   8.301   8.915  10.194
42173SOL    HW128352   8.337   8.992  10.151
42173SOL    HW228353   8.356   8.903  10.271
42174SOL     OW28354  14.325   0.127   1.744
42174SOL    HW128355  14.380   0.131   1.666
42174SOL    HW228356  14.242   0.165   1.716
42175SOL     OW28357   5.859   6.595   5.944
42175SOL    HW128358   5.831   6.636   5.862
42175SOL    HW228359   5.935   6.543   5.920
42176SOL     OW28360   9.084   8.713   8.240
42176SOL    HW128361   9.066   8.646   8.306
42176SOL    HW228362   8.999   8.729   8.198
42177SOL     OW28363   1.396   1.023   3.516
42177SOL    HW128364   1.452   0.989   3.445
42177SOL    HW228365   1.401   1.118   3.507
42178SOL     OW28366   2.606   2.760   4.133
42178SOL    HW128367   2.645   2.763   4.220
42178SOL    HW228368   2.670   2.803   4.076
42179SOL     OW28369   7.049   6.569   2.243
42179SOL    HW128370   7.047   6.548   2.150
42179SOL    HW228371   7.074   6.661   2.247
42180SOL     OW28372  10.999   5.025   2.459
42180SOL    HW128373  11.036   4.955   2.513
42180SOL    HW228374  11.061   5.036   2.387
42181SOL     OW28375  11.869  13.540  13.164
42181SOL    HW128376  11.940  13.540  13.229
42181SOL    HW228377  11.914  13.537  13.080
42182SOL     OW28378   3.893   8.708   4.734
42182SOL    HW128379   3.933   8.794   4.745
42182SOL    HW228380   3.965   8.647   4.748
42183SOL     OW28381   0.030   4.578   7.794
42183SOL    HW128382   0.007   4.663   7.756
42183SOL    HW228383   0.064   4.527   7.721
42184SOL     OW28384   2.156  12.052   3.709
42184SOL    HW128385   2.065  12.026   3.724
42184SOL    HW228386   2.162  12.066   3.614
42185SOL     OW28387   2.441   3.779  13.156
42185SOL    HW128388   2.458   3.863  13.197
42185SOL    HW228389   2.364   3.745  13.201
42186SOL     OW28390  11.132  11.135   7.743
42186SOL    HW128391  11.045  11.154   7.707
42186SOL    HW228392  11.120  11.137   7.838
42187SOL     OW28393   0.417  14.627   8.256
42187SOL    HW128394   0.343  14.644   8.198
42187SOL    HW228395   0.419  14.532   8.264
42188SOL     OW28396  13.426   4.826  13.615
42188SOL    HW128397  13.359   4.767  13.650
42188SOL    HW228398  13.376   4.900  13.580
42189SOL     OW28399  12.012   6.153   6.961
42189SOL    HW128400  11.929   6.200   6.969
42189SOL    HW228401  11.988   6.064   6.937
42190SOL     OW28402  13.321   9.150  13.147
42190SOL    HW128403  13.362   9.163  13.062
42190SOL    HW228404  13.268   9.072  13.135
42191SOL     OW28405   8.509   5.878  13.136
42191SOL    HW128406   8.518   5.837  13.223
42191SOL    HW228407   8.429   5.930  13.142
42192SOL     OW28408   1.577  10.543   2.714
42192SOL    HW128409   1.515  10.525   2.644
42192SOL    HW228410   1.657  10.497   2.688
42193SOL     OW28411   8.216   6.073  13.738
42193SOL    HW128412   8.231   6.152  13.685
42193SOL    HW228413   8.208   6.002  13.674
42194SOL     OW28414   5.422   6.269  13.140
42194SOL    HW128415   5.483   6.329  13.096
42194SOL    HW228416   5.477   6.200  13.177
42195SOL     OW28417   4.266   8.380  13.244
42195SOL    HW128418   4.185   8.419  13.212
42195SOL    HW228419   4.286   8.311  13.180
42196SOL     OW28420  10.336  11.855  12.813
42196SOL    HW128421  10.300  11.937  12.847
42196SOL    HW228422  10.259  11.804  12.788
42197SOL     OW28423  14.846   3.235   0.097
42197SOL    HW128424  14.865   3.324   0.128
42197SOL    HW228425   0.044   3.184   0.120
42198SOL     OW28426  11.685   1.890   7.672
42198SOL    HW128427  11.622   1.883   7.744
42198SOL    HW228428  11.673   1.980   7.639
42199SOL     OW28429  12.196  13.772  12.651
42199SOL    HW128430  12.247  13.722  12.587
42199SOL    HW228431  12.214  13.728  12.734
42200SOL     OW28432  13.775   2.650  12.919
42200SOL    HW128433  13.724   2.570  12.906
42200SOL    HW228434  13.840   2.626  12.985
42201SOL     OW28435   2.041   1.130   5.362
42201SOL    HW128436   2.014   1.085   5.281
42201SOL    HW228437   2.001   1.079   5.432
42202SOL     OW28438   8.311   6.108   1.674
42202SOL    HW128439   8.380   6.172   1.692
42202SOL    HW228440   8.347   6.024   1.704
42203SOL     OW28441  11.328  14.708  13.278
42203SOL    HW128442  11.349  14.716  13.185
42203SOL    HW228443  11.286  14.622  13.286
42204SOL     OW28444  13.844   7.290   2.256
42204SOL    HW128445  13.915   7.314   2.196
42204SOL    HW228446  13.872   7.324   2.341
42205SOL     OW28447   9.871   1.805   5.162
42205SOL    HW128448   9.916   1.781   5.243
42205SOL    HW228449   9.926   1.768   5.092
42206SOL     OW28450   0.213   3.375   2.353
42206SOL    HW128451   0.174   3.462   2.367
42206SOL    HW228452   0.246   3.379   2.263
42207SOL     OW28453   8.556  13.791   9.731
42207SOL    HW128454   8.642  13.764   9.699
42207SOL    HW228455   8.564  13.788   9.827
42208SOL     OW28456   3.503  12.160   6.891
42208SOL    HW128457   3.441  12.214   6.843
42208SOL    HW228458   3.453  12.127   6.966
42209SOL     OW28459  14.487   6.989  14.272
42209SOL    HW128460  14.409   6.954  14.314
42209SOL    HW228461  14.543   7.017  14.345
42210SOL     OW28462   9.751  12.322   3.099
42210SOL    HW128463   9.741  12.279   3.184
42210SOL    HW228464   9.773  12.413   3.121
42211SOL     OW28465   8.141   8.265  13.234
42211SOL    HW128466   8.212   8.202  13.247
42211SOL    HW228467   8.061   8.211  13.232
42212SOL     OW28468   7.561   1.458   4.827
42212SOL    HW128469   7.643   1.468   4.875
42212SOL    HW228470   7.496   1.440   4.895
42213SOL     OW28471  11.190  13.969  13.614
42213SOL    HW128472  11.268  14.007  13.573
42213SOL    HW228473  11.223  13.929  13.695
42214SOL     OW28474   2.252   0.082   1.520
42214SOL    HW128475   2.342   0.109   1.501
42214SOL    HW228476   2.259  14.867   1.536
42215SOL     OW28477  12.636  11.515   9.407
42215SOL    HW128478  12.588  11.555   9.334
42215SOL    HW228479  12.585  11.537   9.485
42216SOL     OW28480   3.711  14.324  12.053
42216SOL    HW128481   3.642  14.390  12.053
42216SOL    HW228482   3.723  14.302  12.146
42217SOL     OW28483  12.803   1.001   7.272
42217SOL    HW128484  12.740   1.071   7.255
42217SOL    HW228485  12.856   1.033   7.345
42218SOL     OW28486   5.094   9.772   9.663
42218SOL    HW128487   5.009   9.804   9.692
42218SOL    HW228488   5.112   9.821   9.582
42219SOL     OW28489   7.010   3.212   8.550
42219SOL    HW128490   6.938   3.268   8.579
42219SOL    HW228491   7.015   3.228   8.456
42220SOL     OW28492  10.898   5.485   5.239
42220SOL    HW128493  10.812   5.524   5.224
42220SOL    HW228494  10.881   5.392   5.250
42221SOL     OW28495   6.681   8.170  10.484
42221SOL    HW128496   6.766   8.182  10.442
42221SOL    HW228497   6.701   8.164  10.578
42222SOL     OW28498  14.174   3.690   7.754
42222SOL    HW128499  14.252   3.656   7.712
42222SOL    HW228500  14.102   3.667   7.695
42223SOL     OW28501   7.822   4.582  13.200
42223SOL    HW128502   7.798   4.524  13.128
42223SOL    HW228503   7.905   4.548  13.232
42224SOL     OW28504   3.108   8.177  11.928
42224SOL    HW128505   3.138   8.143  12.013
42224SOL    HW228506   3.152   8.122  11.864
42225SOL     OW28507   6.454   4.776   7.154
42225SOL    HW128508   6.401   4.786   7.074
42225SOL    HW228509   6.461   4.865   7.188
42226SOL     OW28510   2.280  12.683   3.511
42226SOL    HW128511   2.272  12.731   3.594
42226SOL    HW228512   2.296  12.752   3.446
42227SOL     OW28513   9.938   3.364   4.402
42227SOL    HW128514   9.998   3.312   4.348
42227SOL    HW228515   9.859   3.371   4.349
42228SOL     OW28516  14.375   1.119   6.336
42228SOL    HW128517  14.430   1.197   6.331
42228SOL    HW228518  14.402   1.076   6.417
42229SOL     OW28519   6.449   6.405   7.834
42229SOL    HW128520   6.364   6.437   7.865
42229SOL    HW228521   6.468   6.458   7.756
42230SOL     OW28522   4.707   0.216  13.069
42230SOL    HW128523   4.741   0.187  12.985
42230SOL    HW228524   4.720   0.141  13.128
42231SOL     OW28525   8.298  14.328   1.057
42231SOL    HW128526   8.390  14.324   1.085
42231SOL    HW228527   8.280  14.422   1.049
42232SOL     OW28528   5.216   8.714   4.061
42232SOL    HW128529   5.263   8.781   4.110
42232SOL    HW228530   5.245   8.631   4.099
42233SOL     OW28531   2.471   3.299  10.366
42233SOL    HW128532   2.512   3.386  10.361
42233SOL    HW228533   2.442   3.281  10.276
42234SOL     OW28534   0.424  11.535   1.805
42234SOL    HW128535   0.379  11.601   1.752
42234SOL    HW228536   0.465  11.477   1.740
42235SOL     OW28537   1.819   8.496   0.021
42235SOL    HW128538   1.843   8.478   0.112
42235SOL    HW228539   1.900   8.527  14.860
42236SOL     OW28540  14.554   2.005   8.152
42236SOL    HW128541  14.633   1.970   8.111
42236SOL    HW228542  14.578   2.020   8.243
42237SOL     OW28543   0.843  13.965   4.858
42237SOL    HW128544   0.843  14.054   4.823
42237SOL    HW228545   0.910  13.919   4.807
42238SOL     OW28546  11.555  14.594   7.657
42238SOL    HW128547  11.544  14.532   7.585
42238SOL    HW228548  11.573  14.539   7.733
42239SOL     OW28549   1.077   9.584   3.124
42239SOL    HW128550   1.128   9.579   3.205
42239SOL    HW228551   1.083   9.496   3.087
42240SOL     OW28552   8.594   8.394   9.786
42240SOL    HW128553   8.559   8.466   9.839
42240SOL    HW228554   8.534   8.321   9.803
42241SOL     OW28555   3.641   5.736   6.879
42241SOL    HW128556   3.575   5.668   6.886
42241SOL    HW228557   3.717   5.701   6.924
42242SOL     OW28558  14.250  12.002  10.784
42242SOL    HW128559  14.296  12.085  10.796
42242SOL    HW228560  14.158  12.024  10.795
42243SOL     OW28561   3.183   6.455  13.687
42243SOL    HW128562   3.252   6.388  13.689
42243SOL    HW228563   3.153   6.455  13.596
42244SOL     OW28564  11.567   8.784   0.432
42244SOL    HW128565  11.571   8.732   0.352
42244SOL    HW228566  11.528   8.726   0.496
42245SOL     OW28567   6.032  11.688   3.061
42245SOL    HW128568   5.996  11.715   3.145
42245SOL    HW228569   6.126  11.684   3.076
42246SOL     OW28570   3.126   7.341  11.364
42246SOL    HW128571   3.123   7.270  11.300
42246SOL    HW228572   3.143   7.297  11.448
42247SOL     OW28573   3.697   5.485   0.458
42247SOL    HW128574   3.776   5.532   0.432
42247SOL    HW228575   3.632   5.553   0.473
42248SOL     OW28576  11.037   2.426   5.801
42248SOL    HW128577  11.022   2.509   5.758
42248SOL    HW228578  11.031   2.445   5.894
42249SOL     OW28579   6.489  12.044   8.477
42249SOL    HW128580   6.501  12.132   8.442
42249SOL    HW228581   6.468  11.990   8.401
42250SOL     OW28582  12.659   6.337   5.542
42250SOL    HW128583  12.616   6.254   5.522
42250SOL    HW228584  12.627   6.397   5.475
42251SOL     OW28585   6.686  11.990   7.362
42251SOL    HW128586   6.729  12.002   7.277
42251SOL    HW228587   6.690  11.896   7.377
42252SOL     OW28588  14.331   9.390   4.310
42252SOL    HW128589  14.405   9.355   4.259
42252SOL    HW228590  14.334   9.340   4.392
42253SOL     OW28591   7.906   7.074   3.029
42253SOL    HW128592   7.915   7.166   3.054
42253SOL    HW228593   7.811   7.060   3.023
42254SOL     OW28594   8.874   3.106  11.569
42254SOL    HW128595   8.944   3.110  11.635
42254SOL    HW228596   8.889   3.024  11.523
42255SOL     OW28597   5.882   9.213   1.517
42255SOL    HW128598   5.936   9.256   1.583
42255SOL    HW228599   5.792   9.230   1.545
42256SOL     OW28600  13.537  10.036   9.133
42256SOL    HW128601  13.609   9.975   9.144
42256SOL    HW228602  13.539  10.091   9.211
42257SOL     OW28603   5.403  12.630   2.889
42257SOL    HW128604   5.367  12.606   2.974
42257SOL    HW228605   5.441  12.717   2.903
42258SOL     OW28606   0.773  13.224  10.205
42258SOL    HW128607   0.716  13.147  10.209
42258SOL    HW228608   0.859  13.189  10.183
42259SOL     OW28609   2.115  14.093   1.844
42259SOL    HW128610   2.097  14.011   1.798
42259SOL    HW228611   2.183  14.070   1.907
42260SOL     OW28612   2.147   3.435  12.927
42260SOL    HW128613   2.086   3.502  12.897
42260SOL    HW228614   2.127   3.359  12.874
42261SOL     OW28615  10.378   5.166   2.249
42261SOL    HW128616  10.308   5.103   2.232
42261SOL    HW228617  10.354   5.206   2.333
42262SOL     OW28618   4.207   3.317   8.289
42262SOL    HW128619   4.273   3.344   8.226
42262SOL    HW228620   4.235   3.229   8.316
42263SOL     OW28621   2.142   6.877   8.228
42263SOL    HW128622   2.195   6.839   8.297
42263SOL    HW228623   2.071   6.922   8.273
42264SOL     OW28624  13.235   1.800   8.812
42264SOL    HW128625  13.198   1.824   8.727
42264SOL    HW228626  13.239   1.883   8.860
42265SOL     OW28627   8.251  10.129  10.969
42265SOL    HW128628   8.271  10.067  11.039
42265SOL    HW228629   8.160  10.112  10.947
42266SOL     OW28630   4.376  11.454   7.035
42266SOL    HW128631   4.361  11.440   6.942
42266SOL    HW228632   4.471  11.463   7.043
42267SOL     OW28633   7.776  12.938  13.579
42267SOL    HW128634   7.699  12.897  13.617
42267SOL    HW228635   7.760  12.938  13.484
42268SOL     OW28636   6.691   6.069   1.122
42268SOL    HW128637   6.628   6.056   1.192
42268SOL    HW228638   6.766   6.015   1.146
42269SOL     OW28639   2.400   1.816   6.577
42269SOL    HW128640   2.418   1.851   6.489
42269SOL    HW228641   2.481   1.773   6.603
42270SOL     OW28642   8.547  14.122   0.292
42270SOL    HW128643   8.630  14.124   0.244
42270SOL    HW228644   8.529  14.029   0.305
42271SOL     OW28645   4.648   7.914   8.878
42271SOL    HW128646   4.634   7.821   8.862
42271SOL    HW228647   4.594   7.933   8.955
42272SOL     OW28648  10.313   0.721   3.953
42272SOL    HW128649  10.267   0.637   3.951
42272SOL    HW228650  10.406   0.698   3.955
42273SOL     OW28651   6.406   9.056   7.877
42273SOL    HW128652   6.399   9.151   7.883
42273SOL    HW228653   6.327   9.029   7.830
42274SOL     OW28654   8.498  10.357   5.790
42274SOL    HW128655   8.591  10.367   5.810
42274SOL    HW228656   8.484  10.262   5.788
42275SOL     OW28657   3.877   7.799  10.120
42275SOL    HW128658   3.893   7.812  10.026
42275SOL    HW228659   3.803   7.739  10.123
42276SOL     OW28660  11.150   9.929   1.862
42276SOL    HW128661  11.166   9.919   1.956
42276SOL    HW228662  11.056   9.943   1.855
42277SOL     OW28663  14.592   8.512   9.246
42277SOL    HW128664  14.572   8.523   9.339
42277SOL    HW228665  14.678   8.553   9.234
42278SOL     OW28666  13.268  11.555  10.055
42278SOL    HW128667  13.301  11.545  10.144
42278SOL    HW228668  13.191  11.498  10.051
42279SOL     OW28669   5.385   8.920   4.410
42279SOL    HW128670   5.474   8.953   4.418
42279SOL    HW228671   5.331   8.987   4.452
42280SOL     OW28672   9.363   7.417   2.422
42280SOL    HW128673   9.453   7.393   2.446
42280SOL    HW228674   9.348   7.377   2.337
42281SOL     OW28675  10.066   2.375  10.327
42281SOL    HW128676  10.030   2.407  10.244
42281SOL    HW228677  10.160   2.390  10.321
42282SOL     OW28678   5.949   6.590   0.840
42282SOL    HW128679   5.913   6.650   0.774
42282SOL    HW228680   6.023   6.549   0.796
42283SOL     OW28681  11.902   6.109  13.750
42283SOL    HW128682  11.969   6.121  13.682
42283SOL    HW228683  11.932   6.033  13.800
42284SOL     OW28684   0.189  14.407   7.360
42284SOL    HW128685   0.223  14.335   7.413
42284SOL    HW228686   0.232  14.485   7.395
42285SOL     OW28687   5.074   1.892  10.086
42285SOL    HW128688   4.980   1.886  10.068
42285SOL    HW228689   5.082   1.871  10.179
42286SOL     OW28690  14.462   8.843  14.088
42286SOL    HW128691  14.425   8.882  14.168
42286SOL    HW228692  14.458   8.749  14.104
42287SOL     OW28693   9.926   9.828  12.838
42287SOL    HW128694   9.831   9.823  12.851
42287SOL    HW228695   9.954   9.736  12.831
42288SOL     OW28696   4.900   6.710   7.927
42288SOL    HW128697   4.892   6.796   7.886
42288SOL    HW228698   4.989   6.707   7.961
42289SOL     OW28699  11.926   0.940   3.557
42289SOL    HW128700  11.889   0.995   3.627
42289SOL    HW228701  11.852   0.888   3.527
42290SOL     OW28702   1.130   7.054   0.285
42290SOL    HW128703   1.039   7.040   0.259
42290SOL    HW228704   1.127   7.127   0.347
42291SOL     OW28705   7.557   6.869   4.227
42291SOL    HW128706   7.508   6.828   4.298
42291SOL    HW228707   7.505   6.945   4.202
42292SOL     OW28708  13.864   8.729  12.511
42292SOL    HW128709  13.892   8.757  12.424
42292SOL    HW228710  13.773   8.759  12.518
42293SOL     OW28711   5.151  14.270   5.981
42293SOL    HW128712   5.098  14.243   6.056
42293SOL    HW228713   5.231  14.305   6.020
42294SOL     OW28714   2.698   5.430  13.676
42294SOL    HW128715   2.790   5.454  13.678
42294SOL    HW228716   2.698   5.334  13.673
42295SOL     OW28717  13.819   1.497   3.470
42295SOL    HW128718  13.834   1.403   3.459
42295SOL    HW228719  13.829   1.513   3.564
42296SOL     OW28720   8.834  13.849   6.013
42296SOL    HW128721   8.916  13.833   5.965
42296SOL    HW228722   8.771  13.874   5.945
42297SOL     OW28723   3.659   6.138   7.945
42297SOL    HW128724   3.594   6.102   7.884
42297SOL    HW228725   3.632   6.229   7.957
42298SOL     OW28726   3.941   2.945   8.089
42298SOL    HW128727   3.953   2.907   8.176
42298SOL    HW228728   4.028   2.975   8.064
42299SOL     OW28729   3.327   9.510   9.102
42299SOL    HW128730   3.262   9.561   9.151
42299SOL    HW228731   3.374   9.461   9.169
42300SOL     OW28732   5.903  12.511   2.319
42300SOL    HW128733   5.958  12.534   2.394
42300SOL    HW228734   5.966  12.480   2.253
42301SOL     OW28735  13.249   4.150   7.510
42301SOL    HW128736  13.323   4.090   7.518
42301SOL    HW228737  13.175   4.100   7.544
42302SOL     OW28738   8.769   1.403   0.845
42302SOL    HW128739   8.860   1.376   0.857
42302SOL    HW228740   8.761   1.484   0.895
42303SOL     OW28741   6.737   6.137   1.837
42303SOL    HW128742   6.646   6.163   1.852
42303SOL    HW228743   6.749   6.060   1.891
42304SOL     OW28744  13.385   7.781   7.534
42304SOL    HW128745  13.360   7.802   7.624
42304SOL    HW228746  13.468   7.827   7.521
42305SOL     OW28747   3.669   5.455   0.883
42305SOL    HW128748   3.611   5.526   0.856
42305SOL    HW228749   3.610   5.383   0.903
42306SOL     OW28750   0.392   6.810   3.419
42306SOL    HW128751   0.430   6.745   3.360
42306SOL    HW228752   0.359   6.760   3.493
42307SOL     OW28753   3.294   2.064   6.580
42307SOL    HW128754   3.306   2.144   6.630
42307SOL    HW228755   3.203   2.039   6.595
42308SOL     OW28756  12.766   4.667  13.303
42308SOL    HW128757  12.735   4.756  13.288
42308SOL    HW228758  12.686   4.614  13.308
42309SOL     OW28759   8.148  13.192   3.140
42309SOL    HW128760   8.237  13.157   3.143
42309SOL    HW228761   8.098  13.128   3.088
42310SOL     OW28762   6.392   1.063  10.663
42310SOL    HW128763   6.374   1.157  10.658
42310SOL    HW228764   6.488   1.058  10.667
42311SOL     OW28765   5.038   6.420  10.277
42311SOL    HW128766   4.979   6.350  10.303
42311SOL    HW228767   5.123   6.377  10.265
42312SOL     OW28768  14.517  10.358  14.667
42312SOL    HW128769  14.563  10.285  14.707
42312SOL    HW228770  14.554  10.436  14.709
42313SOL     OW28771   0.113   9.984   8.067
42313SOL    HW128772   0.054   9.955   7.998
42313SOL    HW228773   0.190  10.017   8.020
42314SOL     OW28774  13.522   7.407   5.590
42314SOL    HW128775  13.592   7.448   5.539
42314SOL    HW228776  13.503   7.470   5.660
42315SOL     OW28777   5.054   1.350   0.626
42315SOL    HW128778   5.089   1.295   0.696
42315SOL    HW228779   5.040   1.290   0.553
42316SOL     OW28780   6.266   8.990   8.327
42316SOL    HW128781   6.237   9.081   8.341
42316SOL    HW228782   6.355   8.998   8.293
42317SOL     OW28783  11.111   0.689   6.258
42317SOL    HW128784  11.139   0.767   6.305
42317SOL    HW228785  11.097   0.623   6.326
42318SOL     OW28786   2.385  14.381  10.392
42318SOL    HW128787   2.315  14.346  10.338
42318SOL    HW228788   2.387  14.475  10.372
42319SOL     OW28789   1.117   7.599   7.063
42319SOL    HW128790   1.192   7.646   7.100
42319SOL    HW228791   1.067   7.666   7.017
42320SOL     OW28792   2.368  11.170   8.346
42320SOL    HW128793   2.401  11.094   8.299
42320SOL    HW228794   2.405  11.245   8.300
42321SOL     OW28795   4.400   0.513   2.218
42321SOL    HW128796   4.481   0.543   2.259
42321SOL    HW228797   4.427   0.437   2.166
42322SOL     OW28798  12.497   0.644   6.794
42322SOL    HW128799  12.507   0.566   6.849
42322SOL    HW228800  12.572   0.641   6.735
42323SOL     OW28801  12.334   3.889   1.539
42323SOL    HW128802  12.400   3.958   1.535
42323SOL    HW228803  12.276   3.915   1.612
42324SOL     OW28804   7.582  13.266   0.157
42324SOL    HW128805   7.589  13.258   0.252
42324SOL    HW228806   7.667  13.300   0.129
42325SOL     OW28807   7.710  10.484   1.897
42325SOL    HW128808   7.668  10.564   1.928
42325SOL    HW228809   7.788  10.514   1.851
42326SOL     OW28810  11.105   4.918   2.952
42326SOL    HW128811  11.073   4.978   2.885
42326SOL    HW228812  11.041   4.847   2.953
42327SOL     OW28813   8.491   8.744   2.161
42327SOL    HW128814   8.455   8.803   2.095
42327SOL    HW228815   8.575   8.783   2.185
42328SOL     OW28816   0.400   1.528   4.710
42328SOL    HW128817   0.433   1.581   4.783
42328SOL    HW228818   0.391   1.590   4.638
42329SOL     OW28819   8.238   7.096  13.976
42329SOL    HW128820   8.279   7.139  14.051
42329SOL    HW228821   8.192   7.166  13.930
42330SOL     OW28822  11.500   0.660   1.155
42330SOL    HW128823  11.542   0.744   1.171
42330SOL    HW228824  11.407   0.682   1.142
42331SOL     OW28825   0.445   1.717  11.924
42331SOL    HW128826   0.358   1.688  11.896
42331SOL    HW228827   0.461   1.667  12.005
42332SOL     OW28828   0.401  10.013   2.473
42332SOL    HW128829   0.373   9.995   2.383
42332SOL    HW228830   0.325  10.057   2.513
42333SOL     OW28831  10.105  13.850   6.389
42333SOL    HW128832  10.115  13.921   6.326
42333SOL    HW228833  10.175  13.865   6.454
42334SOL     OW28834  11.210  14.201  12.340
42334SOL    HW128835  11.278  14.135  12.323
42334SOL    HW228836  11.128  14.155  12.323
42335SOL     OW28837   3.536   4.027  13.478
42335SOL    HW128838   3.448   4.047  13.507
42335SOL    HW228839   3.591   4.096  13.517
42336SOL     OW28840  12.685   8.936  13.302
42336SOL    HW128841  12.650   8.893  13.380
42336SOL    HW228842  12.614   8.932  13.238
42337SOL     OW28843   5.015   3.564   8.189
42337SOL    HW128844   5.080   3.497   8.169
42337SOL    HW228845   4.941   3.544   8.132
42338SOL     OW28846  11.061  13.737  13.441
42338SOL    HW128847  11.058  13.812  13.382
42338SOL    HW228848  11.118  13.765  13.512
42339SOL     OW28849   4.550  14.838   8.762
42339SOL    HW128850   4.578   0.049   8.744
42339SOL    HW228851   4.630  14.786   8.757
42340SOL     OW28852  12.011   3.423  13.126
42340SOL    HW128853  12.081   3.458  13.181
42340SOL    HW228854  12.050   3.414  13.039
42341SOL     OW28855   6.091   0.407   7.787
42341SOL    HW128856   6.178   0.392   7.749
42341SOL    HW228857   6.109   0.448   7.871
42342SOL     OW28858   7.808   3.756   0.083
42342SOL    HW128859   7.725   3.777   0.039
42342SOL    HW228860   7.853   3.697   0.022
42343SOL     OW28861   3.898   6.538   7.935
42343SOL    HW128862   3.851   6.456   7.948
42343SOL    HW228863   3.878   6.562   7.844
42344SOL     OW28864  11.282   5.662  10.254
42344SOL    HW128865  11.355   5.654  10.193
42344SOL    HW228866  11.306   5.606  10.328
42345SOL     OW28867   6.738   1.124   4.931
42345SOL    HW128868   6.668   1.157   4.875
42345SOL    HW228869   6.808   1.189   4.922
42346SOL     OW28870   7.139  13.084   7.407
42346SOL    HW128871   7.201  13.147   7.442
42346SOL    HW228872   7.170  13.067   7.318
42347SOL     OW28873   8.707   4.476  12.546
42347SOL    HW128874   8.769   4.493  12.616
42347SOL    HW228875   8.661   4.396  12.572
42348SOL     OW28876   4.272   2.044   0.900
42348SOL    HW128877   4.221   2.038   0.981
42348SOL    HW228878   4.357   2.080   0.928
42349SOL     OW28879   1.280  13.336   6.733
42349SOL    HW128880   1.284  13.349   6.827
42349SOL    HW228881   1.203  13.385   6.704
42350SOL     OW28882  11.078   3.610   5.366
42350SOL    HW128883  11.159   3.590   5.319
42350SOL    HW228884  11.106   3.627   5.456
42351SOL     OW28885   2.173  11.793   1.306
42351SOL    HW128886   2.105  11.861   1.312
42351SOL    HW228887   2.256  11.842   1.311
42352SOL     OW28888  10.854   1.209   2.104
42352SOL    HW128889  10.839   1.268   2.030
42352SOL    HW228890  10.944   1.229   2.132
42353SOL     OW28891  13.186  11.550   2.476
42353SOL    HW128892  13.103  11.554   2.523
42353SOL    HW228893  13.173  11.482   2.410
42354SOL     OW28894   7.934   7.390  14.596
42354SOL    HW128895   7.888   7.357  14.674
42354SOL    HW228896   7.961   7.310  14.550
42355SOL     OW28897  12.381  14.289   2.544
42355SOL    HW128898  12.378  14.255   2.633
42355SOL    HW228899  12.289  14.293   2.517
42356SOL     OW28900   7.952   4.728   1.984
42356SOL    HW128901   7.929   4.800   1.926
42356SOL    HW228902   7.982   4.658   1.926
42357SOL     OW28903  13.665   6.236   8.713
42357SOL    HW128904  13.593   6.203   8.767
42357SOL    HW228905  13.682   6.166   8.650
42358SOL     OW28906   0.646   5.659   6.112
42358SOL    HW128907   0.703   5.724   6.071
42358SOL    HW228908   0.628   5.595   6.043
42359SOL     OW28909  12.554   2.344   7.180
42359SOL    HW128910  12.549   2.436   7.157
42359SOL    HW228911  12.606   2.304   7.110
42360SOL     OW28912  10.357   6.705   0.977
42360SOL    HW128913  10.330   6.652   0.902
42360SOL    HW228914  10.286   6.693   1.041
42361SOL     OW28915   9.585   7.982   4.348
42361SOL    HW128916   9.574   7.927   4.271
42361SOL    HW228917   9.602   8.069   4.312
42362SOL     OW28918  11.855  10.556  10.321
42362SOL    HW128919  11.847  10.533  10.229
42362SOL    HW228920  11.938  10.518  10.348
42363SOL     OW28921  12.705   1.304   6.805
42363SOL    HW128922  12.711   1.258   6.889
42363SOL    HW228923  12.794   1.301   6.770
42364SOL     OW28924   5.603   0.818   2.807
42364SOL    HW128925   5.692   0.805   2.841
42364SOL    HW228926   5.554   0.850   2.883
42365SOL     OW28927  10.349  13.851   1.091
42365SOL    HW128928  10.365  13.896   1.008
42365SOL    HW228929  10.362  13.918   1.157
42366SOL     OW28930   6.056   5.643  14.713
42366SOL    HW128931   6.072   5.713  14.776
42366SOL    HW228932   5.964   5.621  14.724
42367SOL     OW28933  10.553   5.443   7.061
42367SOL    HW128934  10.601   5.452   6.978
42367SOL    HW228935  10.524   5.531   7.082
42368SOL     OW28936  13.385   4.156   5.296
42368SOL    HW128937  13.477   4.176   5.280
42368SOL    HW228938  13.364   4.087   5.234
42369SOL     OW28939  10.476   7.467   1.440
42369SOL    HW128940  10.384   7.467   1.466
42369SOL    HW228941  10.522   7.501   1.516
42370SOL     OW28942  14.520   3.009  14.453
42370SOL    HW128943  14.554   3.015  14.363
42370SOL    HW228944  14.513   3.100  14.482
42371SOL     OW28945   7.499   4.261   3.818
42371SOL    HW128946   7.473   4.200   3.750
42371SOL    HW228947   7.483   4.214   3.900
42372SOL     OW28948   9.011  13.913   5.541
42372SOL    HW128949   9.018  14.008   5.542
42372SOL    HW228950   9.093  13.882   5.579
42373SOL     OW28951   3.564   0.361  10.149
42373SOL    HW128952   3.654   0.390  10.140
42373SOL    HW228953   3.568   0.288  10.211
42374SOL     OW28954   1.213   8.489   4.891
42374SOL    HW128955   1.302   8.512   4.863
42374SOL    HW228956   1.157   8.554   4.848
42375SOL     OW28957  12.006   4.712   1.420
42375SOL    HW128958  12.086   4.763   1.438
42375SOL    HW228959  11.952   4.770   1.367
42376SOL     OW28960   5.295   1.365  12.193
42376SOL    HW128961   5.354   1.440  12.200
42376SOL    HW228962   5.352   1.289  12.187
42377SOL     OW28963   5.753   2.498   5.722
42377SOL    HW128964   5.775   2.414   5.680
42377SOL    HW228965   5.694   2.473   5.793
42378SOL     OW28966   1.783  14.604   4.189
42378SOL    HW128967   1.775  14.696   4.165
42378SOL    HW228968   1.721  14.592   4.261
42379SOL     OW28969  10.860  13.941   5.947
42379SOL    HW128970  10.908  13.877   5.895
42379SOL    HW228971  10.852  13.901   6.034
42380SOL     OW28972   2.584  14.127  14.347
42380SOL    HW128973   2.581  14.057  14.412
42380SOL    HW228974   2.593  14.207  14.399
42381SOL     OW28975   1.083   0.782   5.335
42381SOL    HW128976   1.066   0.712   5.272
42381SOL    HW228977   1.172   0.810   5.317
42382SOL     OW28978   7.315  10.844  10.172
42382SOL    HW128979   7.383  10.904  10.143
42382SOL    HW228980   7.233  10.887  10.148
42383SOL     OW28981   3.998  14.566  11.398
42383SOL    HW128982   4.046  14.512  11.335
42383SOL    HW228983   3.937  14.616  11.345
42384SOL     OW28984   9.391   9.387   9.074
42384SOL    HW128985   9.336   9.425   9.005
42384SOL    HW228986   9.368   9.294   9.075
42385SOL     OW28987   8.568   6.616  11.098
42385SOL    HW128988   8.614   6.697  11.080
42385SOL    HW228989   8.480   6.630  11.061
42386SOL     OW28990   6.953  11.673   3.593
42386SOL    HW128991   6.886  11.633   3.648
42386SOL    HW228992   6.935  11.766   3.596
42387SOL     OW28993  10.996  10.705   0.407
42387SOL    HW128994  11.045  10.640   0.456
42387SOL    HW228995  10.971  10.661   0.326
42388SOL     OW28996   4.807   9.734   7.078
42388SOL    HW128997   4.814   9.696   7.166
42388SOL    HW228998   4.775   9.823   7.092
42389SOL     OW28999  10.516   4.137   9.918
42389SOL    HW129000  10.470   4.218   9.941
42389SOL    HW229001  10.603   4.147   9.957
42390SOL     OW29002   1.620   9.944   0.273
42390SOL    HW129003   1.540   9.971   0.319
42390SOL    HW229004   1.609   9.978   0.184
42391SOL     OW29005   1.934   5.431  13.215
42391SOL    HW129006   1.918   5.346  13.175
42391SOL    HW229007   1.953   5.490  13.142
42392SOL     OW29008  11.011   1.648   8.096
42392SOL    HW129009  10.972   1.736   8.092
42392SOL    HW229010  11.052   1.637   8.010
42393SOL     OW29011  12.510  11.643   1.845
42393SOL    HW129012  12.582  11.588   1.877
42393SOL    HW229013  12.432  11.607   1.888
42394SOL     OW29014  13.774   4.786   2.317
42394SOL    HW129015  13.829   4.850   2.364
42394SOL    HW229016  13.688   4.826   2.314
42395SOL     OW29017   3.179   3.794   2.664
42395SOL    HW129018   3.210   3.876   2.625
42395SOL    HW229019   3.084   3.796   2.651
42396SOL     OW29020   6.565  12.732  10.588
42396SOL    HW129021   6.592  12.694  10.671
42396SOL    HW229022   6.470  12.724  10.588
42397SOL     OW29023   4.500   4.301  11.373
42397SOL    HW129024   4.425   4.278  11.428
42397SOL    HW229025   4.468   4.292  11.284
42398SOL     OW29026   2.481  10.433   4.290
42398SOL    HW129027   2.387  10.418   4.300
42398SOL    HW229028   2.514  10.352   4.249
42399SOL     OW29029   3.085  14.108   3.162
42399SOL    HW129030   3.141  14.095   3.238
42399SOL    HW229031   3.012  14.161   3.194
42400SOL     OW29032   8.053   0.418   2.572
42400SOL    HW129033   7.996   0.491   2.596
42400SOL    HW229034   8.082   0.382   2.655
42401SOL     OW29035   9.117   8.195   7.098
42401SOL    HW129036   9.087   8.114   7.057
42401SOL    HW229037   9.036   8.239   7.126
42402SOL     OW29038   2.376   5.812  13.095
42402SOL    HW129039   2.343   5.738  13.146
42402SOL    HW229040   2.388   5.777  13.007
42403SOL     OW29041   9.771  13.858   7.953
42403SOL    HW129042   9.737  13.904   8.030
42403SOL    HW229043   9.804  13.774   7.988
42404SOL     OW29044  14.223  10.988   7.747
42404SOL    HW129045  14.188  11.062   7.796
42404SOL    HW229046  14.149  10.928   7.737
42405SOL     OW29047  10.735   6.334  13.994
42405SOL    HW129048  10.741   6.423  14.028
42405SOL    HW229049  10.821   6.315  13.957
42406SOL     OW29050  11.618  13.392  13.687
42406SOL    HW129051  11.668  13.326  13.639
42406SOL    HW229052  11.619  13.362  13.778
42407SOL     OW29053  14.588   5.499  14.691
42407SOL    HW129054  14.623   5.439  14.756
42407SOL    HW229055  14.566   5.578  14.741
42408SOL     OW29056   8.967   1.829  11.934
42408SOL    HW129057   8.935   1.845  12.022
42408SOL    HW229058   8.998   1.914  11.903
42409SOL     OW29059   4.426   5.229   3.826
42409SOL    HW129060   4.357   5.293   3.809
42409SOL    HW229061   4.448   5.243   3.918
42410SOL     OW29062   1.734   7.412  12.047
42410SOL    HW129063   1.780   7.358  11.983
42410SOL    HW229064   1.644   7.380  12.044
42411SOL     OW29065  14.302   4.322   5.177
42411SOL    HW129066  14.321   4.239   5.222
42411SOL    HW229067  14.325   4.305   5.085
42412SOL     OW29068  14.473   3.419  12.237
42412SOL    HW129069  14.566   3.443  12.241
42412SOL    HW229070  14.439   3.467  12.162
42413SOL     OW29071   2.363   2.853   6.985
42413SOL    HW129072   2.330   2.821   6.900
42413SOL    HW229073   2.419   2.783   7.017
42414SOL     OW29074   0.190   8.662   1.332
42414SOL    HW129075   0.238   8.676   1.251
42414SOL    HW229076   0.102   8.695   1.314
42415SOL     OW29077   4.505   1.886  10.973
42415SOL    HW129078   4.519   1.792  10.985
42415SOL    HW229079   4.411   1.896  10.957
42416SOL     OW29080  14.566   0.505  13.947
42416SOL    HW129081  14.529   0.561  13.878
42416SOL    HW229082  14.581   0.421  13.904
42417SOL     OW29083  14.837   7.473   7.427
42417SOL    HW129084  14.778   7.402   7.404
42417SOL    HW229085   0.044   7.443   7.397
42418SOL     OW29086  13.807   8.164  12.842
42418SOL    HW129087  13.767   8.234  12.790
42418SOL    HW229088  13.737   8.101  12.855
42419SOL     OW29089  12.932   7.731  11.099
42419SOL    HW129090  12.923   7.699  11.189
42419SOL    HW229091  13.017   7.776  11.098
42420SOL     OW29092   9.203   1.977   7.682
42420SOL    HW129093   9.241   1.973   7.594
42420SOL    HW229094   9.249   1.908   7.730
42421SOL     OW29095  11.348   5.781  13.688
42421SOL    HW129096  11.314   5.836  13.758
42421SOL    HW229097  11.270   5.748  13.643
42422SOL     OW29098   9.119   3.362   5.270
42422SOL    HW129099   9.107   3.305   5.194
42422SOL    HW229100   9.085   3.447   5.242
42423SOL     OW29101   7.710   2.825   4.760
42423SOL    HW129102   7.669   2.893   4.708
42423SOL    HW229103   7.773   2.784   4.700
42424SOL     OW29104  11.951  13.437  10.647
42424SOL    HW129105  11.992  13.524  10.644
42424SOL    HW229106  12.024  13.376  10.656
42425SOL     OW29107  14.361   9.965  12.268
42425SOL    HW129108  14.306   9.985  12.344
42425SOL    HW229109  14.401  10.049  12.245
42426SOL     OW29110   8.833   8.367  13.839
42426SOL    HW129111   8.874   8.287  13.805
42426SOL    HW229112   8.745   8.339  13.864
42427SOL     OW29113   4.571   3.174   7.024
42427SOL    HW129114   4.617   3.142   7.100
42427SOL    HW229115   4.495   3.220   7.060
42428SOL     OW29116   3.859   9.164  12.529
42428SOL    HW129117   3.925   9.224  12.494
42428SOL    HW229118   3.836   9.200  12.615
42429SOL     OW29119   9.041   5.485   4.452
42429SOL    HW129120   8.959   5.530   4.475
42429SOL    HW229121   9.017   5.428   4.378
42430SOL     OW29122   6.673   3.901   0.556
42430SOL    HW129123   6.660   3.904   0.462
42430SOL    HW229124   6.687   3.808   0.575
42431SOL     OW29125   6.811  14.535   2.035
42431SOL    HW129126   6.839  14.445   2.051
42431SOL    HW229127   6.795  14.571   2.122
42432SOL     OW29128   5.406   9.208  13.139
42432SOL    HW129129   5.415   9.261  13.060
42432SOL    HW229130   5.360   9.129  13.110
42433SOL     OW29131   6.736  10.596  11.775
42433SOL    HW129132   6.669  10.562  11.835
42433SOL    HW229133   6.805  10.630  11.833
42434SOL     OW29134  12.352  11.537   4.045
42434SOL    HW129135  12.404  11.618   4.048
42434SOL    HW229136  12.278  11.555   4.103
42435SOL     OW29137  13.787   7.818   4.171
42435SOL    HW129138  13.812   7.892   4.226
42435SOL    HW229139  13.843   7.746   4.200
42436SOL     OW29140   1.079  10.898   2.892
42436SOL    HW129141   1.090  10.983   2.935
42436SOL    HW229142   1.156  10.889   2.836
42437SOL     OW29143  13.844  12.194  13.748
42437SOL    HW129144  13.831  12.191  13.843
42437SOL    HW229145  13.778  12.255  13.717
42438SOL     OW29146   3.719  12.848   3.518
42438SOL    HW129147   3.658  12.922   3.516
42438SOL    HW229148   3.675  12.781   3.570
42439SOL     OW29149   5.630  14.586   4.937
42439SOL    HW129150   5.537  14.594   4.960
42439SOL    HW229151   5.635  14.509   4.881
42440SOL     OW29152   4.750   8.960   7.117
42440SOL    HW129153   4.720   9.020   7.185
42440SOL    HW229154   4.830   8.922   7.153
42441SOL     OW29155   5.028  13.984  10.278
42441SOL    HW129156   4.981  14.017  10.202
42441SOL    HW229157   5.022  13.889  10.271
42442SOL     OW29158   4.921   5.544  13.187
42442SOL    HW129159   4.870   5.505  13.117
42442SOL    HW229160   4.953   5.470  13.238
42443SOL     OW29161   1.085  12.464   4.748
42443SOL    HW129162   1.113  12.435   4.661
42443SOL    HW229163   1.014  12.525   4.731
42444SOL     OW29164   5.602   2.657   7.007
42444SOL    HW129165   5.589   2.746   6.972
42444SOL    HW229166   5.645   2.610   6.936
42445SOL     OW29167   7.362   6.481  11.479
42445SOL    HW129168   7.378   6.479  11.384
42445SOL    HW229169   7.428   6.422  11.515
42446SOL     OW29170   4.717   1.096   9.132
42446SOL    HW129171   4.675   1.182   9.134
42446SOL    HW229172   4.702   1.064   9.044
42447SOL     OW29173   3.127   3.558   4.609
42447SOL    HW129174   3.219   3.531   4.610
42447SOL    HW229175   3.085   3.505   4.678
42448SOL     OW29176   6.143   9.327  11.560
42448SOL    HW129177   6.081   9.260  11.589
42448SOL    HW229178   6.176   9.294  11.476
42449SOL     OW29179   2.306   8.440   3.706
42449SOL    HW129180   2.271   8.351   3.714
42449SOL    HW229181   2.400   8.428   3.698
42450SOL     OW29182   9.265   7.183  14.060
42450SOL    HW129183   9.313   7.103  14.083
42450SOL    HW229184   9.302   7.210  13.976
42451SOL     OW29185  14.540   2.338   8.787
42451SOL    HW129186  14.617   2.389   8.814
42451SOL    HW229187  14.550   2.255   8.834
42452SOL     OW29188   7.938   9.639   1.904
42452SOL    HW129189   7.873   9.587   1.950
42452SOL    HW229190   7.928   9.615   1.812
42453SOL     OW29191   3.300  13.706   6.225
42453SOL    HW129192   3.272  13.771   6.290
42453SOL    HW229193   3.319  13.757   6.147
42454SOL     OW29194   3.277   2.037  13.077
42454SOL    HW129195   3.267   1.969  13.010
42454SOL    HW229196   3.347   2.004  13.134
42455SOL     OW29197   3.936   7.207   2.226
42455SOL    HW129198   3.964   7.212   2.134
42455SOL    HW229199   4.018   7.195   2.275
42456SOL     OW29200  14.068   1.758  12.012
42456SOL    HW129201  14.145   1.721  11.969
42456SOL    HW229202  13.999   1.755  11.946
42457SOL     OW29203   1.562   9.188  10.371
42457SOL    HW129204   1.512   9.259  10.330
42457SOL    HW229205   1.503   9.154  10.438
42458SOL     OW29206   7.337   3.828  12.751
42458SOL    HW129207   7.291   3.910  12.770
42458SOL    HW229208   7.270   3.760  12.758
42459SOL     OW29209   3.571   2.301   2.755
42459SOL    HW129210   3.566   2.362   2.682
42459SOL    HW229211   3.487   2.311   2.800
42460SOL     OW29212   0.482  10.078  12.624
42460SOL    HW129213   0.569  10.067  12.662
42460SOL    HW229214   0.492  10.150  12.562
42461SOL     OW29215  14.366   2.689  10.422
42461SOL    HW129216  14.305   2.664  10.353
42461SOL    HW229217  14.328   2.769  10.459
42462SOL     OW29218   9.752   4.870  14.707
42462SOL    HW129219   9.772   4.811  14.634
42462SOL    HW229220   9.658   4.888  14.697
42463SOL     OW29221   9.811   8.019  10.661
42463SOL    HW129222   9.800   8.027  10.756
42463SOL    HW229223   9.890   7.966  10.651
42464SOL     OW29224  10.357   0.703   9.140
42464SOL    HW129225  10.352   0.628   9.081
42464SOL    HW229226  10.270   0.708   9.180
42465SOL     OW29227   3.895   9.136   6.115
42465SOL    HW129228   3.987   9.145   6.089
42465SOL    HW229229   3.889   9.047   6.151
42466SOL     OW29230  13.506   4.327   8.036
42466SOL    HW129231  13.573   4.395   8.040
42466SOL    HW229232  13.553   4.249   8.008
42467SOL     OW29233   3.304   4.957   9.350
42467SOL    HW129234   3.372   4.986   9.411
42467SOL    HW229235   3.351   4.910   9.281
42468SOL     OW29236   3.783  10.934  12.286
42468SOL    HW129237   3.823  10.948  12.201
42468SOL    HW229238   3.699  10.892  12.268
42469SOL     OW29239   5.187   9.284  12.250
42469SOL    HW129240   5.168   9.190  12.249
42469SOL    HW229241   5.281   9.289  12.263
42470SOL     OW29242   5.230   2.190   6.162
42470SOL    HW129243   5.145   2.225   6.190
42470SOL    HW229244   5.247   2.118   6.222
42471SOL     OW29245   2.382   6.867   8.810
42471SOL    HW129246   2.413   6.909   8.890
42471SOL    HW229247   2.292   6.898   8.800
42472SOL     OW29248  13.207  14.260   5.402
42472SOL    HW129249  13.218  14.210   5.483
42472SOL    HW229250  13.248  14.206   5.335
42473SOL     OW29251   9.969   2.292   3.556
42473SOL    HW129252   9.924   2.222   3.605
42473SOL    HW229253  10.043   2.315   3.611
42474SOL     OW29254   7.538   0.576  12.756
42474SOL    HW129255   7.603   0.520  12.799
42474SOL    HW229256   7.505   0.523  12.683
42475SOL     OW29257   1.142  13.371  14.563
42475SOL    HW129258   1.136  13.408  14.475
42475SOL    HW229259   1.164  13.446  14.619
42476SOL     OW29260  11.008  14.834   0.117
42476SOL    HW129261  11.077  14.818   0.053
42476SOL    HW229262  10.995  14.749   0.161
42477SOL     OW29263   0.258  10.555   8.156
42477SOL    HW129264   0.305  10.615   8.214
42477SOL    HW229265   0.229  10.484   8.214
42478SOL     OW29266   9.951   7.145  13.010
42478SOL    HW129267   9.917   7.227  12.976
42478SOL    HW229268  10.016   7.117  12.946
42479SOL     OW29269   1.013  12.892  13.532
42479SOL    HW129270   0.929  12.861  13.499
42479SOL    HW229271   0.999  12.906  13.625
42480SOL     OW29272   3.508  10.380   0.983
42480SOL    HW129273   3.544  10.355   1.068
42480SOL    HW229274   3.413  10.374   0.994
42481SOL     OW29275  10.062  14.756   2.623
42481SOL    HW129276  10.034  14.703   2.697
42481SOL    HW229277  10.156  14.739   2.615
42482SOL     OW29278  14.349  14.712  13.988
42482SOL    HW129279  14.290  14.785  13.967
42482SOL    HW229280  14.298  14.656  14.047
42483SOL     OW29281   5.415   3.022  13.361
42483SOL    HW129282   5.467   3.102  13.368
42483SOL    HW229283   5.466   2.965  13.303
42484SOL     OW29284  11.695   6.419   0.175
42484SOL    HW129285  11.702   6.504   0.219
42484SOL    HW229286  11.601   6.404   0.168
42485SOL     OW29287  12.032  10.205  10.954
42485SOL    HW129288  11.999  10.126  10.997
42485SOL    HW229289  12.111  10.228  11.004
42486SOL     OW29290  13.299  13.257   1.945
42486SOL    HW129291  13.337  13.311   2.014
42486SOL    HW229292  13.301  13.168   1.980
42487SOL     OW29293  10.646   2.943   1.676
42487SOL    HW129294  10.658   2.921   1.584
42487SOL    HW229295  10.581   3.014   1.676
42488SOL     OW29296   2.482   0.875  14.543
42488SOL    HW129297   2.564   0.919  14.565
42488SOL    HW229298   2.500   0.833  14.458
42489SOL     OW29299  11.790   4.475   5.330
42489SOL    HW129300  11.694   4.474   5.321
42489SOL    HW229301  11.822   4.480   5.241
42490SOL     OW29302  12.457   7.099  13.408
42490SOL    HW129303  12.371   7.116  13.445
42490SOL    HW229304  12.461   7.157  13.331
42491SOL     OW29305  11.521   4.125   5.324
42491SOL    HW129306  11.448   4.063   5.318
42491SOL    HW229307  11.562   4.105   5.408
42492SOL     OW29308   9.578   5.135   1.452
42492SOL    HW129309   9.663   5.133   1.408
42492SOL    HW229310   9.526   5.197   1.402
42493SOL     OW29311   6.401   7.032   2.869
42493SOL    HW129312   6.451   6.962   2.912
42493SOL    HW229313   6.415   7.109   2.925
42494SOL     OW29314  12.455  10.690  12.902
42494SOL    HW129315  12.497  10.653  12.979
42494SOL    HW229316  12.407  10.767  12.935
42495SOL     OW29317   3.103   2.033   0.070
42495SOL    HW129318   3.039   2.037  14.878
42495SOL    HW229319   3.177   2.085   0.039
42496SOL     OW29320  12.105   2.400   6.374
42496SOL    HW129321  12.078   2.492   6.375
42496SOL    HW229322  12.047   2.359   6.309
42497SOL     OW29323   6.228   2.617  11.691
42497SOL    HW129324   6.146   2.640  11.736
42497SOL    HW229325   6.204   2.617  11.598
42498SOL     OW29326  10.496  11.644   3.580
42498SOL    HW129327  10.485  11.685   3.666
42498SOL    HW229328  10.560  11.699   3.536
42499SOL     OW29329  13.286  14.017  13.412
42499SOL    HW129330  13.294  14.096  13.466
42499SOL    HW229331  13.268  13.947  13.474
42500SOL     OW29332   5.623   1.582   7.777
42500SOL    HW129333   5.664   1.558   7.694
42500SOL    HW229334   5.650   1.673   7.790
42501SOL     OW29335   3.323   3.636  12.933
42501SOL    HW129336   3.340   3.715  12.983
42501SOL    HW229337   3.238   3.605  12.966
42502SOL     OW29338   9.801   1.316  13.967
42502SOL    HW129339   9.784   1.383  13.901
42502SOL    HW229340   9.858   1.252  13.922
42503SOL     OW29341   0.438  11.274   3.251
42503SOL    HW129342   0.359  11.326   3.234
42503SOL    HW229343   0.440  11.211   3.178
42504SOL     OW29344  12.512   9.027   1.843
42504SOL    HW129345  12.582   9.002   1.903
42504SOL    HW229346  12.464   9.095   1.889
42505SOL     OW29347  13.365  10.697   4.870
42505SOL    HW129348  13.389  10.787   4.850
42505SOL    HW229349  13.360  10.653   4.785
42506SOL     OW29350   4.749   4.248   3.894
42506SOL    HW129351   4.815   4.318   3.891
42506SOL    HW229352   4.758   4.211   3.981
42507SOL     OW29353   6.864   5.889   9.034
42507SOL    HW129354   6.935   5.954   9.033
42507SOL    HW229355   6.784   5.940   9.044
42508SOL     OW29356   4.629   2.104  10.845
42508SOL    HW129357   4.704   2.065  10.800
42508SOL    HW229358   4.577   2.029  10.876
42509SOL     OW29359   4.404   9.176   5.010
42509SOL    HW129360   4.384   9.124   4.932
42509SOL    HW229361   4.456   9.116   5.065
42510SOL     OW29362   0.334  10.268   5.984
42510SOL    HW129363   0.324  10.323   6.061
42510SOL    HW229364   0.378  10.324   5.920
42511SOL     OW29365  14.541  14.320   5.070
42511SOL    HW129366  14.562  14.294   5.159
42511SOL    HW229367  14.448  14.342   5.073
42512SOL     OW29368   6.205   8.704  13.419
42512SOL    HW129369   6.139   8.742  13.361
42512SOL    HW229370   6.284   8.699  13.365
42513SOL     OW29371   3.953  14.601  13.631
42513SOL    HW129372   3.875  14.569  13.676
42513SOL    HW229373   3.947  14.562  13.543
42514SOL     OW29374   0.396  12.307  13.848
42514SOL    HW129375   0.333  12.235  13.853
42514SOL    HW229376   0.441  12.294  13.765
42515SOL     OW29377  10.716   6.658  10.830
42515SOL    HW129378  10.715   6.562  10.828
42515SOL    HW229379  10.730   6.684  10.738
42516SOL     OW29380   2.168   3.430  14.792
42516SOL    HW129381   2.169   3.509  14.847
42516SOL    HW229382   2.255   3.393  14.803
42517SOL     OW29383   5.327  12.613   0.424
42517SOL    HW129384   5.411  12.623   0.379
42517SOL    HW229385   5.350  12.611   0.517
42518SOL     OW29386  12.659   5.620   7.664
42518SOL    HW129387  12.608   5.575   7.597
42518SOL    HW229388  12.612   5.605   7.745
42519SOL     OW29389   9.101   6.850  13.802
42519SOL    HW129390   9.168   6.783  13.792
42519SOL    HW229391   9.021   6.801  13.820
42520SOL     OW29392   2.883   8.796  11.250
42520SOL    HW129393   2.905   8.867  11.310
42520SOL    HW229394   2.792   8.774  11.270
42521SOL     OW29395   5.955   0.152  12.348
42521SOL    HW129396   5.981   0.155  12.440
42521SOL    HW229397   6.021   0.097  12.306
42522SOL     OW29398   8.904   9.141  13.006
42522SOL    HW129399   8.832   9.152  12.944
42522SOL    HW229400   8.918   9.046  13.010
42523SOL     OW29401   7.950   4.228   0.689
42523SOL    HW129402   7.896   4.230   0.609
42523SOL    HW229403   7.922   4.306   0.738
42524SOL     OW29404  10.396   5.991   6.626
42524SOL    HW129405  10.455   6.065   6.641
42524SOL    HW229406  10.451   5.924   6.585
42525SOL     OW29407  10.436   5.449   0.485
42525SOL    HW129408  10.492   5.377   0.455
42525SOL    HW229409  10.481   5.528   0.455
42526SOL     OW29410   8.482   2.356   2.804
42526SOL    HW129411   8.492   2.330   2.896
42526SOL    HW229412   8.552   2.309   2.759
42527SOL     OW29413  10.186   8.713   0.598
42527SOL    HW129414  10.108   8.760   0.568
42527SOL    HW229415  10.240   8.703   0.520
42528SOL     OW29416  12.966   3.679  10.492
42528SOL    HW129417  12.903   3.694  10.563
42528SOL    HW229418  13.014   3.761  10.484
42529SOL     OW29419  10.125   8.884  10.348
42529SOL    HW129420  10.133   8.880  10.253
42529SOL    HW229421  10.213   8.865  10.381
42530SOL     OW29422  10.363   1.312   3.394
42530SOL    HW129423  10.374   1.261   3.474
42530SOL    HW229424  10.309   1.386   3.420
42531SOL     OW29425   8.426   3.887   0.251
42531SOL    HW129426   8.340   3.856   0.278
42531SOL    HW229427   8.455   3.944   0.322
42532SOL     OW29428  11.045   5.100   6.912
42532SOL    HW129429  10.954   5.119   6.932
42532SOL    HW229430  11.080   5.062   6.992
42533SOL     OW29431  14.139   4.514   1.628
42533SOL    HW129432  14.045   4.503   1.642
42533SOL    HW229433  14.175   4.524   1.716
42534SOL     OW29434   4.572   0.917   2.987
42534SOL    HW129435   4.520   0.997   2.988
42534SOL    HW229436   4.591   0.902   2.894
42535SOL     OW29437   3.469   3.582   9.858
42535SOL    HW129438   3.456   3.646   9.788
42535SOL    HW229439   3.561   3.594   9.884
42536SOL     OW29440   9.574   7.820   5.270
42536SOL    HW129441   9.531   7.831   5.185
42536SOL    HW229442   9.661   7.788   5.249
42537SOL     OW29443   5.848  11.469   1.891
42537SOL    HW129444   5.794  11.434   1.962
42537SOL    HW229445   5.822  11.419   1.814
42538SOL     OW29446   4.549   6.371  13.229
42538SOL    HW129447   4.584   6.309  13.293
42538SOL    HW229448   4.480   6.322  13.183
42539SOL     OW29449   1.937   2.724  10.430
42539SOL    HW129450   1.920   2.684  10.515
42539SOL    HW229451   1.955   2.650  10.372
42540SOL     OW29452   7.411  10.732   7.894
42540SOL    HW129453   7.419  10.636   7.889
42540SOL    HW229454   7.329  10.751   7.849
42541SOL     OW29455   3.558  11.079   0.788
42541SOL    HW129456   3.569  11.129   0.869
42541SOL    HW229457   3.574  11.142   0.718
42542SOL     OW29458   0.627   5.379  12.942
42542SOL    HW129459   0.584   5.460  12.917
42542SOL    HW229460   0.657   5.394  13.031
42543SOL     OW29461  10.704  12.435  12.331
42543SOL    HW129462  10.702  12.425  12.236
42543SOL    HW229463  10.740  12.523  12.344
42544SOL     OW29464  14.645   4.293   3.292
42544SOL    HW129465  14.739   4.290   3.275
42544SOL    HW229466  14.618   4.201   3.291
42545SOL     OW29467   4.068   2.353   2.490
42545SOL    HW129468   4.039   2.264   2.510
42545SOL    HW229469   4.026   2.408   2.556
42546SOL     OW29470  10.022  10.023  13.017
42546SOL    HW129471  10.032   9.971  13.096
42546SOL    HW229472  10.005   9.959  12.948
42547SOL     OW29473   1.212  10.006   8.325
42547SOL    HW129474   1.130  10.056   8.326
42547SOL    HW229475   1.277  10.069   8.294
42548SOL     OW29476   0.040   3.555   5.648
42548SOL    HW129477   0.117   3.603   5.678
42548SOL    HW229478  14.855   3.566   5.719
42549SOL     OW29479   6.856   0.005  10.947
42549SOL    HW129480   6.855  14.802  10.997
42549SOL    HW229481   6.776   0.002  10.894
42550SOL     OW29482   6.113   0.024   0.723
42550SOL    HW129483   6.205   0.014   0.747
42550SOL    HW229484   6.077   0.082   0.790
42551SOL     OW29485  11.989   2.647   8.194
42551SOL    HW129486  11.916   2.596   8.230
42551SOL    HW229487  12.003   2.609   8.107
42552SOL     OW29488   1.595   4.336  10.413
42552SOL    HW129489   1.509   4.295  10.421
42552SOL    HW229490   1.635   4.323  10.500
42553SOL     OW29491  13.039   8.759   7.152
42553SOL    HW129492  13.099   8.830   7.174
42553SOL    HW229493  13.089   8.703   7.093
42554SOL     OW29494   3.610   0.974  10.154
42554SOL    HW129495   3.675   0.926  10.205
42554SOL    HW229496   3.543   0.910  10.133
42555SOL     OW29497   5.987   9.680   2.283
42555SOL    HW129498   5.953   9.708   2.368
42555SOL    HW229499   6.024   9.760   2.245
42556SOL     OW29500   9.676   0.378   1.435
42556SOL    HW129501   9.722   0.393   1.353
42556SOL    HW229502   9.647   0.465   1.462
42557SOL     OW29503   8.899   2.565  13.184
42557SOL    HW129504   8.832   2.633  13.177
42557SOL    HW229505   8.851   2.483  13.176
42558SOL     OW29506   8.980   3.418   8.375
42558SOL    HW129507   8.981   3.361   8.452
42558SOL    HW229508   8.890   3.451   8.371
42559SOL     OW29509   1.255   9.746  12.707
42559SOL    HW129510   1.261   9.773  12.798
42559SOL    HW229511   1.339   9.704  12.689
42560SOL     OW29512   3.167   1.008   0.597
42560SOL    HW129513   3.121   1.088   0.624
42560SOL    HW229514   3.193   0.967   0.679
42561SOL     OW29515  12.354   5.970  12.991
42561SOL    HW129516  12.443   5.951  12.962
42561SOL    HW229517  12.342   5.917  13.069
42562SOL     OW29518  11.060   6.176   0.861
42562SOL    HW129519  11.111   6.255   0.842
42562SOL    HW229520  10.972   6.209   0.881
42563SOL     OW29521  14.442   9.094   3.449
42563SOL    HW129522  14.462   9.095   3.355
42563SOL    HW229523  14.352   9.126   3.455
42564SOL     OW29524  14.462  13.409   7.646
42564SOL    HW129525  14.539  13.428   7.591
42564SOL    HW229526  14.401  13.480   7.626
42565SOL     OW29527   7.416  14.702   3.343
42565SOL    HW129528   7.462  14.740   3.268
42565SOL    HW229529   7.475  14.635   3.377
42566SOL     OW29530  12.648  12.375   7.240
42566SOL    HW129531  12.666  12.320   7.316
42566SOL    HW229532  12.605  12.452   7.277
42567SOL     OW29533  11.611   1.430   2.183
42567SOL    HW129534  11.580   1.518   2.163
42567SOL    HW229535  11.697   1.424   2.141
42568SOL     OW29536  14.683   1.073   1.322
42568SOL    HW129537  14.727   0.993   1.293
42568SOL    HW229538  14.623   1.095   1.251
42569SOL     OW29539  11.427  13.662   4.297
42569SOL    HW129540  11.498  13.700   4.350
42569SOL    HW229541  11.353  13.654   4.358
42570SOL     OW29542  14.491   3.342   5.152
42570SOL    HW129543  14.433   3.416   5.136
42570SOL    HW229544  14.529   3.360   5.238
42571SOL     OW29545  12.327  12.609   1.134
42571SOL    HW129546  12.275  12.555   1.074
42571SOL    HW229547  12.411  12.621   1.089
42572SOL     OW29548   9.689   0.162   1.600
42572SOL    HW129549   9.680   0.242   1.549
42572SOL    HW229550   9.726   0.190   1.683
42573SOL     OW29551  12.107   3.554   8.316
42573SOL    HW129552  12.200   3.545   8.339
42573SOL    HW229553  12.082   3.469   8.281
42574SOL     OW29554   3.517   0.093   6.777
42574SOL    HW129555   3.508   0.188   6.786
42574SOL    HW229556   3.440   0.065   6.729
42575SOL     OW29557  13.073   6.896   9.064
42575SOL    HW129558  13.137   6.942   9.010
42575SOL    HW229559  13.103   6.911   9.154
42576SOL     OW29560  14.451   0.148   8.557
42576SOL    HW129561  14.397   0.173   8.632
42576SOL    HW229562  14.458   0.227   8.504
42577SOL     OW29563  14.298   2.244  13.583
42577SOL    HW129564  14.354   2.225  13.658
42577SOL    HW229565  14.342   2.317  13.539
42578SOL     OW29566   0.464  14.431  13.784
42578SOL    HW129567   0.456  14.451  13.691
42578SOL    HW229568   0.428  14.507  13.828
42579SOL     OW29569   5.167   4.608   9.781
42579SOL    HW129570   5.143   4.651   9.699
42579SOL    HW229571   5.084   4.581   9.819
42580SOL     OW29572  11.088   9.759   9.118
42580SOL    HW129573  11.038   9.722   9.191
42580SOL    HW229574  11.041   9.839   9.095
42581SOL     OW29575   9.578  12.140   7.347
42581SOL    HW129576   9.603  12.209   7.287
42581SOL    HW229577   9.487  12.119   7.324
42582SOL     OW29578  10.020  10.846   2.309
42582SOL    HW129579   9.938  10.895   2.301
42582SOL    HW229580  10.076  10.884   2.241
42583SOL     OW29581   6.963   5.884  12.923
42583SOL    HW129582   6.902   5.811  12.913
42583SOL    HW229583   6.990   5.906  12.834
42584SOL     OW29584   1.224  10.560   5.538
42584SOL    HW129585   1.279  10.638   5.539
42584SOL    HW229586   1.158  10.578   5.471
42585SOL     OW29587  12.189  13.075  10.057
42585SOL    HW129588  12.180  13.021   9.979
42585SOL    HW229589  12.283  13.080  10.072
42586SOL     OW29590   1.504  14.664   9.681
42586SOL    HW129591   1.488  14.687   9.773
42586SOL    HW229592   1.417  14.646   9.645
42587SOL     OW29593   7.750   0.182  13.490
42587SOL    HW129594   7.724   0.236  13.565
42587SOL    HW229595   7.835   0.217  13.464
42588SOL     OW29596   2.329   2.364   3.952
42588SOL    HW129597   2.407   2.417   3.937
42588SOL    HW229598   2.301   2.388   4.040
42589SOL     OW29599   8.263   4.710  14.814
42589SOL    HW129600   8.269   4.693  14.720
42589SOL    HW229601   8.243   4.804  14.820
42590SOL     OW29602   7.858   1.591   4.615
42590SOL    HW129603   7.903   1.554   4.539
42590SOL    HW229604   7.928   1.608   4.678
42591SOL     OW29605   1.941   1.726  10.958
42591SOL    HW129606   1.848   1.746  10.948
42591SOL    HW229607   1.985   1.780  10.892
42592SOL     OW29608  13.465   1.861  12.964
42592SOL    HW129609  13.533   1.848  12.898
42592SOL    HW229610  13.489   1.803  13.036
42593SOL     OW29611  12.404   4.354   6.472
42593SOL    HW129612  12.326   4.357   6.527
42593SOL    HW229613  12.380   4.297   6.399
42594SOL     OW29614   4.029   5.731   1.127
42594SOL    HW129615   3.988   5.649   1.153
42594SOL    HW229616   4.046   5.721   1.033
42595SOL     OW29617   5.165   8.044  11.098
42595SOL    HW129618   5.215   8.027  11.177
42595SOL    HW229619   5.202   8.125  11.062
42596SOL     OW29620   7.711   7.553   5.375
42596SOL    HW129621   7.660   7.506   5.309
42596SOL    HW229622   7.692   7.646   5.358
42597SOL     OW29623   9.807   5.544  14.266
42597SOL    HW129624   9.866   5.584  14.330
42597SOL    HW229625   9.767   5.619  14.221
42598SOL     OW29626  10.742  13.139  13.880
42598SOL    HW129627  10.751  13.043  13.876
42598SOL    HW229628  10.653  13.156  13.847
42599SOL     OW29629  12.974  11.663  13.894
42599SOL    HW129630  12.909  11.728  13.870
42599SOL    HW229631  12.940  11.580  13.859
42600SOL     OW29632   6.239   2.993   8.217
42600SOL    HW129633   6.144   3.002   8.209
42600SOL    HW229634   6.266   3.067   8.272
42601SOL     OW29635  14.455   4.839   4.929
42601SOL    HW129636  14.447   4.779   5.003
42601SOL    HW229637  14.487   4.920   4.967
42602SOL     OW29638   0.790  10.885   0.292
42602SOL    HW129639   0.726  10.815   0.278
42602SOL    HW229640   0.761  10.927   0.373
42603SOL     OW29641   8.076   1.360  14.856
42603SOL    HW129642   8.032   1.327  14.778
42603SOL    HW229643   8.023   1.435   0.005
42604SOL     OW29644   9.017   9.224  12.579
42604SOL    HW129645   9.014   9.129  12.594
42604SOL    HW229646   8.979   9.235  12.492
42605SOL     OW29647   9.157  10.771  12.770
42605SOL    HW129648   9.103  10.773  12.849
42605SOL    HW229649   9.116  10.835  12.712
42606SOL     OW29650   5.809  12.386  14.206
42606SOL    HW129651   5.810  12.464  14.261
42606SOL    HW229652   5.883  12.334  14.237
42607SOL     OW29653  10.808   2.920   7.922
42607SOL    HW129654  10.781   2.948   7.835
42607SOL    HW229655  10.770   2.985   7.981
42608SOL     OW29656   2.656   5.297  13.025
42608SOL    HW129657   2.645   5.391  13.035
42608SOL    HW229658   2.584   5.269  12.969
42609SOL     OW29659   9.007  14.256  10.053
42609SOL    HW129660   9.095  14.278  10.084
42609SOL    HW229661   8.949  14.315  10.099
42610SOL     OW29662   8.546   4.685  13.078
42610SOL    HW129663   8.609   4.710  13.011
42610SOL    HW229664   8.552   4.754  13.144
42611SOL     OW29665   7.149   4.236   6.073
42611SOL    HW129666   7.176   4.149   6.042
42611SOL    HW229667   7.168   4.235   6.166
42612SOL     OW29668  10.882  10.124  12.798
42612SOL    HW129669  10.963  10.076  12.813
42612SOL    HW229670  10.843  10.081  12.722
42613SOL     OW29671   2.539   6.441   5.231
42613SOL    HW129672   2.504   6.522   5.194
42613SOL    HW229673   2.633   6.444   5.212
42614SOL     OW29674   9.752   3.355  13.389
42614SOL    HW129675   9.710   3.287  13.336
42614SOL    HW229676   9.739   3.435  13.339
42615SOL     OW29677   8.873   9.135  13.343
42615SOL    HW129678   8.845   9.044  13.335
42615SOL    HW229679   8.898   9.161  13.255
42616SOL     OW29680   7.489   2.308   6.967
42616SOL    HW129681   7.553   2.303   7.037
42616SOL    HW229682   7.404   2.296   7.010
42617SOL     OW29683  13.126   3.823   5.972
42617SOL    HW129684  13.148   3.837   6.064
42617SOL    HW229685  13.174   3.890   5.924
42618SOL     OW29686   0.181   9.618   4.455
42618SOL    HW129687   0.139   9.538   4.487
42618SOL    HW229688   0.138   9.636   4.371
42619SOL     OW29689   8.670   0.774  10.346
42619SOL    HW129690   8.643   0.837  10.279
42619SOL    HW229691   8.655   0.820  10.429
42620SOL     OW29692   5.478   7.749   5.368
42620SOL    HW129693   5.386   7.740   5.344
42620SOL    HW229694   5.477   7.773   5.460
42621SOL     OW29695  12.561   3.726  11.716
42621SOL    HW129696  12.503   3.720  11.791
42621SOL    HW229697  12.644   3.758  11.752
42622SOL     OW29698   2.890  14.128  14.006
42622SOL    HW129699   2.809  14.162  13.968
42622SOL    HW229700   2.959  14.183  13.968
42623SOL     OW29701  10.153   9.624   9.000
42623SOL    HW129702  10.155   9.701   9.058
42623SOL    HW229703  10.059   9.606   8.987
42624SOL     OW29704  13.677   7.402  14.197
42624SOL    HW129705  13.615   7.412  14.125
42624SOL    HW229706  13.759   7.377  14.155
42625SOL     OW29707   4.191   0.761  11.255
42625SOL    HW129708   4.134   0.826  11.215
42625SOL    HW229709   4.195   0.785  11.347
42626SOL     OW29710   9.719  12.640  13.449
42626SOL    HW129711   9.681  12.645  13.537
42626SOL    HW229712   9.763  12.556  13.446
42627SOL     OW29713   3.118   1.212   1.016
42627SOL    HW129714   3.080   1.295   1.043
42627SOL    HW229715   3.042   1.153   1.009
42628SOL     OW29716  13.786   1.573  10.795
42628SOL    HW129717  13.758   1.660  10.765
42628SOL    HW229718  13.879   1.583  10.816
42629SOL     OW29719  11.726   8.668   1.079
42629SOL    HW129720  11.730   8.760   1.105
42629SOL    HW229721  11.781   8.623   1.143
42630SOL     OW29722  12.628   9.271  14.844
42630SOL    HW129723  12.639   9.318   0.048
42630SOL    HW229724  12.541   9.231  14.850
42631SOL     OW29725  11.781   3.166   3.720
42631SOL    HW129726  11.782   3.255   3.685
42631SOL    HW229727  11.730   3.116   3.656
42632SOL     OW29728   9.559   9.727   5.268
42632SOL    HW129729   9.611   9.755   5.343
42632SOL    HW229730   9.622   9.681   5.212
42633SOL     OW29731   7.868  12.070   4.205
42633SOL    HW129732   7.853  12.133   4.135
42633SOL    HW229733   7.784  12.065   4.250
42634SOL     OW29734  10.753   9.273   4.453
42634SOL    HW129735  10.673   9.222   4.466
42634SOL    HW229736  10.783   9.250   4.365
42635SOL     OW29737   7.621  11.196  14.712
42635SOL    HW129738   7.564  11.176  14.786
42635SOL    HW229739   7.588  11.142  14.641
42636SOL     OW29740   1.850  14.583   8.696
42636SOL    HW129741   1.896  14.631   8.765
42636SOL    HW229742   1.760  14.575   8.728
42637SOL     OW29743  13.068   5.886   1.736
42637SOL    HW129744  13.098   5.810   1.685
42637SOL    HW229745  12.993   5.920   1.687
42638SOL     OW29746  12.686   1.779   5.718
42638SOL    HW129747  12.704   1.822   5.634
42638SOL    HW229748  12.765   1.796   5.770
42639SOL     OW29749  12.046   1.224   2.499
42639SOL    HW129750  12.049   1.315   2.529
42639SOL    HW229751  11.959   1.214   2.461
42640SOL     OW29752  13.951  10.592  13.080
42640SOL    HW129753  13.969  10.498  13.082
42640SOL    HW229754  13.876  10.600  13.020
42641SOL     OW29755  11.424   7.171   7.946
42641SOL    HW129756  11.335   7.157   7.977
42641SOL    HW229757  11.468   7.215   8.019
42642SOL     OW29758   8.176   8.669   9.521
42642SOL    HW129759   8.083   8.689   9.516
42642SOL    HW229760   8.179   8.575   9.540
42643SOL     OW29761   8.658   7.993  14.004
42643SOL    HW129762   8.592   7.972  13.937
42643SOL    HW229763   8.657   7.919  14.064
42644SOL     OW29764   0.717   4.313   9.435
42644SOL    HW129765   0.644   4.279   9.485
42644SOL    HW229766   0.746   4.391   9.483
42645SOL     OW29767   7.365  12.974   9.095
42645SOL    HW129768   7.453  12.940   9.077
42645SOL    HW229769   7.312  12.895   9.106
42646SOL     OW29770  14.103   1.064  14.059
42646SOL    HW129771  14.177   1.097  14.007
42646SOL    HW229772  14.118   1.101  14.147
42647SOL     OW29773  10.621   3.940   8.871
42647SOL    HW129774  10.709   3.935   8.907
42647SOL    HW229775  10.626   3.894   8.787
42648SOL     OW29776  12.102   9.952   0.443
42648SOL    HW129777  12.095   9.921   0.353
42648SOL    HW229778  12.029   9.911   0.489
42649SOL     OW29779   5.266   5.918   0.356
42649SOL    HW129780   5.218   5.837   0.336
42649SOL    HW229781   5.260   5.970   0.276
42650SOL     OW29782  13.551   1.970   8.217
42650SOL    HW129783  13.562   1.905   8.148
42650SOL    HW229784  13.592   1.931   8.294
42651SOL     OW29785   9.607   2.522   2.746
42651SOL    HW129786   9.680   2.521   2.808
42651SOL    HW229787   9.586   2.429   2.732
42652SOL     OW29788   4.986   1.477   5.979
42652SOL    HW129789   4.960   1.435   6.061
42652SOL    HW229790   5.076   1.506   5.994
42653SOL     OW29791   2.210   4.504   3.414
42653SOL    HW129792   2.164   4.588   3.418
42653SOL    HW229793   2.274   4.515   3.344
42654SOL     OW29794   1.564   1.334   8.459
42654SOL    HW129795   1.585   1.352   8.551
42654SOL    HW229796   1.551   1.421   8.420
42655SOL     OW29797  10.598  12.025  10.651
42655SOL    HW129798  10.665  12.049  10.587
42655SOL    HW229799  10.571  11.937  10.626
42656SOL     OW29800   1.980   9.211   8.940
42656SOL    HW129801   2.009   9.209   8.849
42656SOL    HW229802   2.009   9.297   8.972
42657SOL     OW29803   3.864  12.991   0.890
42657SOL    HW129804   3.801  12.953   0.829
42657SOL    HW229805   3.836  12.961   0.976
42658SOL     OW29806   1.202   4.139   1.645
42658SOL    HW129807   1.152   4.133   1.564
42658SOL    HW229808   1.142   4.108   1.713
42659SOL     OW29809  11.786   5.520   4.964
42659SOL    HW129810  11.832   5.454   5.016
42659SOL    HW229811  11.740   5.573   5.029
42660SOL     OW29812  12.409   0.445  14.162
42660SOL    HW129813  12.393   0.364  14.114
42660SOL    HW229814  12.500   0.438  14.192
42661SOL     OW29815  10.964   0.139   6.881
42661SOL    HW129816  10.883   0.189   6.885
42661SOL    HW229817  10.962   0.083   6.959
42662SOL     OW29818   8.466  13.525  11.061
42662SOL    HW129819   8.371  13.523  11.063
42662SOL    HW229820   8.491  13.457  10.998
42663SOL     OW29821   1.538   8.900   0.495
42663SOL    HW129822   1.532   8.976   0.437
42663SOL    HW229823   1.632   8.886   0.506
42664SOL     OW29824   4.851   2.639  10.580
42664SOL    HW129825   4.899   2.570  10.625
42664SOL    HW229826   4.764   2.639  10.620
42665SOL     OW29827   0.834  12.530   0.764
42665SOL    HW129828   0.782  12.524   0.844
42665SOL    HW229829   0.774  12.564   0.698
42666SOL     OW29830   3.287   2.139  10.913
42666SOL    HW129831   3.214   2.077  10.913
42666SOL    HW229832   3.332   2.123  10.996
42667SOL     OW29833   9.988   3.422   2.867
42667SOL    HW129834   9.972   3.459   2.780
42667SOL    HW229835  10.079   3.394   2.865
42668SOL     OW29836   9.668   9.253   0.439
42668SOL    HW129837   9.574   9.258   0.457
42668SOL    HW229838   9.673   9.236   0.345
42669SOL     OW29839  13.473   8.627   5.223
42669SOL    HW129840  13.439   8.633   5.134
42669SOL    HW229841  13.568   8.623   5.213
42670SOL     OW29842   2.828   4.848  13.742
42670SOL    HW129843   2.800   4.789  13.671
42670SOL    HW229844   2.792   4.933  13.717
42671SOL     OW29845   8.392  10.326   6.818
42671SOL    HW129846   8.352  10.309   6.733
42671SOL    HW229847   8.325  10.304   6.882
42672SOL     OW29848  10.585   3.296   0.939
42672SOL    HW129849  10.547   3.250   1.014
42672SOL    HW229850  10.577   3.389   0.961
42673SOL     OW29851   5.393   5.651   0.173
42673SOL    HW129852   5.484   5.635   0.146
42673SOL    HW229853   5.356   5.704   0.102
42674SOL     OW29854   4.752   8.623   8.597
42674SOL    HW129855   4.722   8.549   8.545
42674SOL    HW229856   4.679   8.643   8.655
42675SOL     OW29857  11.058  11.601   5.922
42675SOL    HW129858  11.063  11.516   5.966
42675SOL    HW229859  10.978  11.641   5.956
42676SOL     OW29860  10.974  13.282   5.816
42676SOL    HW129861  10.942  13.197   5.784
42676SOL    HW229862  10.918  13.346   5.773
42677SOL     OW29863   6.158  10.680  10.631
42677SOL    HW129864   6.187  10.634  10.710
42677SOL    HW229865   6.127  10.765  10.662
42678SOL     OW29866   0.492  13.449  11.320
42678SOL    HW129867   0.466  13.540  11.305
42678SOL    HW229868   0.417  13.409  11.364
42679SOL     OW29869   0.012  12.825   1.802
42679SOL    HW129870   0.007  12.915   1.832
42679SOL    HW229871   0.105  12.804   1.804
42680SOL     OW29872   6.550   1.330   7.658
42680SOL    HW129873   6.458   1.306   7.659
42680SOL    HW229874   6.552   1.420   7.692
42681SOL     OW29875   7.413  10.171   7.630
42681SOL    HW129876   7.321  10.190   7.612
42681SOL    HW229877   7.451  10.257   7.647
42682SOL     OW29878  11.233  13.443   2.613
42682SOL    HW129879  11.203  13.534   2.619
42682SOL    HW229880  11.223  13.421   2.520
42683SOL     OW29881   7.727   7.563  10.157
42683SOL    HW129882   7.793   7.613  10.109
42683SOL    HW229883   7.649   7.619  10.155
42684SOL     OW29884   4.599   3.278   8.761
42684SOL    HW129885   4.566   3.189   8.747
42684SOL    HW229886   4.534   3.334   8.717
42685SOL     OW29887   7.913  10.516   6.946
42685SOL    HW129888   7.893  10.423   6.939
42685SOL    HW229889   7.842  10.552   7.000
42686SOL     OW29890   4.411   5.290   0.769
42686SOL    HW129891   4.393   5.301   0.675
42686SOL    HW229892   4.466   5.365   0.791
42687SOL     OW29893   2.133   2.817  13.463
42687SOL    HW129894   2.175   2.731  13.460
42687SOL    HW229895   2.070   2.811  13.534
42688SOL     OW29896   3.684   6.861  10.647
42688SOL    HW129897   3.729   6.943  10.665
42688SOL    HW229898   3.696   6.809  10.726
42689SOL     OW29899   9.857   6.508   2.578
42689SOL    HW129900   9.796   6.470   2.515
42689SOL    HW229901   9.813   6.499   2.662
42690SOL     OW29902   5.862   4.247   3.465
42690SOL    HW129903   5.836   4.336   3.442
42690SOL    HW229904   5.950   4.256   3.503
42691SOL     OW29905   4.204   0.743  11.793
42691SOL    HW129906   4.176   0.834  11.781
42691SOL    HW229907   4.286   0.750  11.841
42692SOL     OW29908  14.725   7.371   9.032
42692SOL    HW129909  14.742   7.361   8.938
42692SOL    HW229910  14.766   7.294   9.072
42693SOL     OW29911  11.699  12.121   6.698
42693SOL    HW129912  11.631  12.061   6.666
42693SOL    HW229913  11.685  12.126   6.792
42694SOL     OW29914  11.123  13.000  14.376
42694SOL    HW129915  11.097  12.920  14.421
42694SOL    HW229916  11.101  12.985  14.284
42695SOL     OW29917   7.775  11.377  14.847
42695SOL    HW129918   7.722  11.339  14.777
42695SOL    HW229919   7.730  11.459  14.870
42696SOL     OW29920   5.053   4.887   1.441
42696SOL    HW129921   4.971   4.901   1.489
42696SOL    HW229922   5.048   4.947   1.367
42697SOL     OW29923  11.369  10.900  14.592
42697SOL    HW129924  11.284  10.938  14.614
42697SOL    HW229925  11.404  10.955  14.522
42698SOL     OW29926   1.016   9.868   6.708
42698SOL    HW129927   0.995   9.781   6.742
42698SOL    HW229928   1.094   9.855   6.654
42699SOL     OW29929   2.251  11.754  10.706
42699SOL    HW129930   2.190  11.828  10.715
42699SOL    HW229931   2.205  11.680  10.746
42700SOL     OW29932   7.526   8.143  14.326
42700SOL    HW129933   7.454   8.094  14.364
42700SOL    HW229934   7.553   8.204  14.395
42701SOL     OW29935   7.829  12.396   6.799
42701SOL    HW129936   7.872  12.461   6.744
42701SOL    HW229937   7.825  12.318   6.745
42702SOL     OW29938   5.311   0.624   2.819
42702SOL    HW129939   5.243   0.691   2.826
42702SOL    HW229940   5.389   0.665   2.856
42703SOL     OW29941  13.882   4.457   8.967
42703SOL    HW129942  13.797   4.496   8.984
42703SOL    HW229943  13.862   4.370   8.931
42704SOL     OW29944   5.445   5.448  11.117
42704SOL    HW129945   5.403   5.440  11.202
42704SOL    HW229946   5.486   5.363  11.102
42705SOL     OW29947   0.891  12.825   1.138
42705SOL    HW129948   0.831  12.776   1.083
42705SOL    HW229949   0.889  12.781   1.222
42706SOL     OW29950  10.611   6.667   4.994
42706SOL    HW129951  10.607   6.613   4.916
42706SOL    HW229952  10.642   6.752   4.963
42707SOL     OW29953  11.666  11.593   7.669
42707SOL    HW129954  11.689  11.506   7.701
42707SOL    HW229955  11.597  11.624   7.727
42708SOL     OW29956  11.034   0.268   0.908
42708SOL    HW129957  11.044   0.176   0.881
42708SOL    HW229958  11.052   0.268   1.002
42709SOL     OW29959   1.651   6.927   5.559
42709SOL    HW129960   1.654   6.831   5.564
42709SOL    HW229961   1.665   6.946   5.466
42710SOL     OW29962   3.393  14.701  10.975
42710SOL    HW129963   3.417  14.645  10.900
42710SOL    HW229964   3.386  14.789  10.938
42711SOL     OW29965   3.967   7.678   7.367
42711SOL    HW129966   3.975   7.616   7.295
42711SOL    HW229967   3.931   7.757   7.327
42712SOL     OW29968   4.402   4.228  13.248
42712SOL    HW129969   4.496   4.245  13.244
42712SOL    HW229970   4.396   4.136  13.273
42713SOL     OW29971   3.398   6.710   2.543
42713SOL    HW129972   3.374   6.654   2.616
42713SOL    HW229973   3.411   6.797   2.582
42714SOL     OW29974   9.977   2.460   2.415
42714SOL    HW129975   9.955   2.431   2.504
42714SOL    HW229976  10.068   2.432   2.404
42715SOL     OW29977  10.868   4.236  12.476
42715SOL    HW129978  10.897   4.278  12.395
42715SOL    HW229979  10.905   4.148  12.473
42716SOL     OW29980  14.472  10.946   9.202
42716SOL    HW129981  14.486  11.031   9.245
42716SOL    HW229982  14.555  10.900   9.213
42717SOL     OW29983   3.451   0.995   0.565
42717SOL    HW129984   3.371   1.047   0.569
42717SOL    HW229985   3.421   0.905   0.556
42718SOL     OW29986   9.678   5.573   6.511
42718SOL    HW129987   9.618   5.648   6.512
42718SOL    HW229988   9.753   5.605   6.460
42719SOL     OW29989  12.103  12.166   8.516
42719SOL    HW129990  12.018  12.150   8.474
42719SOL    HW229991  12.098  12.256   8.546
42720SOL     OW29992   9.590  14.850  10.018
42720SOL    HW129993   9.669   0.025  10.026
42720SOL    HW229994   9.621  14.765   9.987
42721SOL     OW29995   3.158   3.021  13.877
42721SOL    HW129996   3.187   2.944  13.925
42721SOL    HW229997   3.133   3.084  13.945
42722SOL     OW29998   2.117   8.753   2.163
42722SOL    HW129999   2.038   8.742   2.109
42722SOL    HW230000   2.084   8.784   2.247
42723SOL     OW30001   9.868   1.307   5.352
42723SOL    HW130002   9.923   1.246   5.303
42723SOL    HW230003   9.826   1.361   5.286
42724SOL     OW30004   5.363  10.613   7.997
42724SOL    HW130005   5.389  10.605   7.905
42724SOL    HW230006   5.384  10.703   8.020
42725SOL     OW30007   5.133   8.540   3.690
42725SOL    HW130008   5.148   8.631   3.715
42725SOL    HW230009   5.212   8.494   3.720
42726SOL     OW30010   2.732   9.681  14.255
42726SOL    HW130011   2.789   9.635  14.316
42726SOL    HW230012   2.715   9.766  14.296
42727SOL     OW30013  10.946   4.188   5.456
42727SOL    HW130014  11.001   4.266   5.464
42727SOL    HW230015  10.981   4.128   5.521
42728SOL     OW30016   6.725   3.666   8.361
42728SOL    HW130017   6.728   3.745   8.416
42728SOL    HW230018   6.690   3.697   8.278
42729SOL     OW30019  10.817   0.407  12.945
42729SOL    HW130020  10.740   0.361  12.914
42729SOL    HW230021  10.877   0.338  12.974
42730SOL     OW30022  14.073   5.067   5.026
42730SOL    HW130023  14.148   5.085   5.082
42730SOL    HW230024  14.072   5.139   4.964
42731SOL     OW30025   0.786   4.724   0.684
42731SOL    HW130026   0.735   4.778   0.623
42731SOL    HW230027   0.831   4.788   0.740
42732SOL     OW30028   8.440   4.306   5.160
42732SOL    HW130029   8.525   4.319   5.203
42732SOL    HW230030   8.421   4.389   5.117
42733SOL     OW30031   9.612  11.520   0.517
42733SOL    HW130032   9.560  11.485   0.444
42733SOL    HW230033   9.551  11.576   0.565
42734SOL     OW30034   4.282   4.867   5.109
42734SOL    HW130035   4.363   4.911   5.132
42734SOL    HW230036   4.213   4.918   5.150
42735SOL     OW30037   5.384  12.683   5.746
42735SOL    HW130038   5.413  12.708   5.658
42735SOL    HW230039   5.295  12.652   5.733
42736SOL     OW30040  11.598   9.145   5.593
42736SOL    HW130041  11.515   9.097   5.592
42736SOL    HW230042  11.583   9.218   5.654
42737SOL     OW30043  12.787   4.914   5.490
42737SOL    HW130044  12.771   4.996   5.536
42737SOL    HW230045  12.855   4.870   5.541
42738SOL     OW30046   4.084   6.016   3.244
42738SOL    HW130047   4.093   6.009   3.149
42738SOL    HW230048   4.137   5.944   3.279
42739SOL     OW30049   1.472   3.834  12.434
42739SOL    HW130050   1.554   3.845  12.481
42739SOL    HW230051   1.431   3.920  12.436
42740SOL     OW30052  13.517   0.218   5.097
42740SOL    HW130053  13.472   0.148   5.144
42740SOL    HW230054  13.529   0.287   5.162
42741SOL     OW30055  13.860   3.930  14.781
42741SOL    HW130056  13.901   3.942  14.696
42741SOL    HW230057  13.780   3.983  14.777
42742SOL     OW30058  10.496   5.343   1.763
42742SOL    HW130059  10.449   5.419   1.799
42742SOL    HW230060  10.505   5.283   1.837
42743SOL     OW30061   9.447   2.345  11.931
42743SOL    HW130062   9.353   2.332  11.946
42743SOL    HW230063   9.489   2.305  12.007
42744SOL     OW30064   9.504  11.836  12.081
42744SOL    HW130065   9.422  11.884  12.071
42744SOL    HW230066   9.539  11.829  11.992
42745SOL     OW30067   8.366   2.386   0.454
42745SOL    HW130068   8.428   2.316   0.474
42745SOL    HW230069   8.421   2.457   0.420
42746SOL     OW30070   0.686  10.496   3.245
42746SOL    HW130071   0.748  10.501   3.318
42746SOL    HW230072   0.600  10.498   3.287
42747SOL     OW30073   4.321  13.659   4.402
42747SOL    HW130074   4.365  13.633   4.322
42747SOL    HW230075   4.369  13.736   4.432
42748SOL     OW30076  12.901   9.071  12.625
42748SOL    HW130077  12.979   9.062  12.680
42748SOL    HW230078  12.842   9.002  12.656
42749SOL     OW30079   5.265   0.369  14.386
42749SOL    HW130080   5.319   0.420  14.447
42749SOL    HW230081   5.182   0.417  14.382
42750SOL     OW30082   3.800   1.790   8.291
42750SOL    HW130083   3.727   1.775   8.231
42750SOL    HW230084   3.763   1.778   8.378
42751SOL     OW30085   4.259   3.258   6.471
42751SOL    HW130086   4.344   3.212   6.474
42751SOL    HW230087   4.211   3.213   6.402
42752SOL     OW30088   9.041  14.674  10.589
42752SOL    HW130089   8.976  14.684  10.659
42752SOL    HW230090   9.125  14.675  10.635
42753SOL     OW30091   9.404   6.897  10.315
42753SOL    HW130092   9.466   6.840  10.360
42753SOL    HW230093   9.443   6.984  10.321
42754SOL     OW30094   3.401  11.855   2.210
42754SOL    HW130095   3.313  11.847   2.173
42754SOL    HW230096   3.392  11.829   2.301
42755SOL     OW30097   2.965   5.788  11.989
42755SOL    HW130098   2.980   5.870  12.036
42755SOL    HW230099   2.882   5.801  11.944
42756SOL     OW30100   3.828  13.279   8.754
42756SOL    HW130101   3.841  13.184   8.756
42756SOL    HW230102   3.796  13.297   8.665
42757SOL     OW30103  11.821  13.389   7.013
42757SOL    HW130104  11.880  13.318   7.038
42757SOL    HW230105  11.793  13.367   6.924
42758SOL     OW30106  12.662  13.815  14.041
42758SOL    HW130107  12.653  13.898  14.089
42758SOL    HW230108  12.733  13.769  14.085
42759SOL     OW30109   3.667   8.489   6.992
42759SOL    HW130110   3.696   8.404   6.960
42759SOL    HW230111   3.705   8.552   6.929
42760SOL     OW30112  10.860   5.670   8.829
42760SOL    HW130113  10.924   5.634   8.768
42760SOL    HW230114  10.775   5.648   8.791
42761SOL     OW30115   3.906   3.567   5.041
42761SOL    HW130116   3.936   3.645   5.087
42761SOL    HW230117   3.833   3.534   5.094
42762SOL     OW30118   3.236   4.483   8.038
42762SOL    HW130119   3.197   4.453   8.120
42762SOL    HW230120   3.177   4.450   7.970
42763SOL     OW30121  13.046   4.445  11.337
42763SOL    HW130122  13.138   4.436  11.313
42763SOL    HW230123  13.024   4.362  11.379
42764SOL     OW30124  10.863  13.311   3.710
42764SOL    HW130125  10.791  13.269   3.663
42764SOL    HW230126  10.823  13.343   3.791
42765SOL     OW30127   1.473  11.916  13.675
42765SOL    HW130128   1.382  11.936  13.697
42765SOL    HW230129   1.476  11.821  13.665
42766SOL     OW30130   1.935   5.872   2.126
42766SOL    HW130131   1.940   5.830   2.212
42766SOL    HW230132   1.855   5.837   2.087
42767SOL     OW30133   5.116   1.013   3.650
42767SOL    HW130134   5.029   0.987   3.621
42767SOL    HW230135   5.103   1.052   3.736
42768SOL     OW30136  12.116   0.996  10.059
42768SOL    HW130137  12.128   1.047  10.139
42768SOL    HW230138  12.196   0.942  10.053
42769SOL     OW30139   7.936  12.850   6.391
42769SOL    HW130140   7.845  12.875   6.401
42769SOL    HW230141   7.947  12.835   6.297
42770SOL     OW30142   6.398   0.483   3.498
42770SOL    HW130143   6.326   0.546   3.499
42770SOL    HW230144   6.379   0.423   3.571
42771SOL     OW30145   6.363   9.667   2.381
42771SOL    HW130146   6.310   9.744   2.360
42771SOL    HW230147   6.431   9.665   2.313
42772SOL     OW30148   4.448  13.099   0.145
42772SOL    HW130149   4.499  13.152   0.083
42772SOL    HW230150   4.388  13.050   0.089
42773SOL     OW30151   5.578   1.240   1.398
42773SOL    HW130152   5.610   1.318   1.445
42773SOL    HW230153   5.636   1.233   1.322
42774SOL     OW30154   3.185   3.869   3.879
42774SOL    HW130155   3.256   3.920   3.838
42774SOL    HW230156   3.105   3.908   3.844
42775SOL     OW30157   2.909  10.176   7.582
42775SOL    HW130158   2.877  10.132   7.503
42775SOL    HW230159   3.001  10.151   7.588
42776SOL     OW30160   4.660   3.943  12.609
42776SOL    HW130161   4.737   3.991  12.640
42776SOL    HW230162   4.627   3.897  12.686
42777SOL     OW30163   6.233  12.943   4.650
42777SOL    HW130164   6.210  12.908   4.736
42777SOL    HW230165   6.263  12.868   4.600
42778SOL     OW30166  11.645   2.692   0.126
42778SOL    HW130167  11.709   2.621   0.125
42778SOL    HW230168  11.635   2.714   0.219
42779SOL     OW30169   3.290   8.181   2.286
42779SOL    HW130170   3.223   8.116   2.304
42779SOL    HW230171   3.249   8.241   2.223
42780SOL     OW30172  10.679   1.133  14.043
42780SOL    HW130173  10.632   1.056  14.013
42780SOL    HW230174  10.614   1.203  14.045
42781SOL     OW30175   8.419  14.178   7.965
42781SOL    HW130176   8.328  14.195   7.990
42781SOL    HW230177   8.413  14.149   7.874
42782SOL     OW30178   5.039  12.162   7.799
42782SOL    HW130179   5.021  12.130   7.711
42782SOL    HW230180   5.036  12.257   7.791
42783SOL     OW30181   7.153   7.397   7.692
42783SOL    HW130182   7.114   7.404   7.779
42783SOL    HW230183   7.183   7.486   7.673
42784SOL     OW30184   0.296   0.223   2.085
42784SOL    HW130185   0.210   0.207   2.046
42784SOL    HW230186   0.295   0.171   2.166
42785SOL     OW30187   3.735   9.536   9.466
42785SOL    HW130188   3.696   9.518   9.552
42785SOL    HW230189   3.739   9.451   9.423
42786SOL     OW30190   3.923   6.070   7.102
42786SOL    HW130191   3.990   6.004   7.084
42786SOL    HW230192   3.840   6.025   7.084
42787SOL     OW30193   4.905   3.821  12.210
42787SOL    HW130194   4.831   3.862  12.254
42787SOL    HW230195   4.982   3.869  12.242
42788SOL     OW30196  10.366   6.832  11.171
42788SOL    HW130197  10.296   6.866  11.226
42788SOL    HW230198  10.325   6.818  11.086
42789SOL     OW30199   4.628   4.736   8.674
42789SOL    HW130200   4.722   4.755   8.672
42789SOL    HW230201   4.618   4.659   8.618
42790SOL     OW30202   1.148  10.522   9.106
42790SOL    HW130203   1.083  10.489   9.168
42790SOL    HW230204   1.232  10.497   9.144
42791SOL     OW30205  10.384   2.701   7.756
42791SOL    HW130206  10.343   2.766   7.700
42791SOL    HW230207  10.470   2.737   7.776
42792SOL     OW30208  12.841  10.972  13.850
42792SOL    HW130209  12.848  10.884  13.812
42792SOL    HW230210  12.932  10.998  13.865
42793SOL     OW30211   2.921  12.015   0.924
42793SOL    HW130212   2.885  12.000   0.837
42793SOL    HW230213   2.980  11.940   0.938
42794SOL     OW30214  12.523   4.932   6.863
42794SOL    HW130215  12.433   4.954   6.884
42794SOL    HW230216  12.576   4.982   6.926
42795SOL     OW30217   1.926  13.984   3.046
42795SOL    HW130218   1.938  13.889   3.054
42795SOL    HW230219   1.831  13.995   3.036
42796SOL     OW30220  13.690  11.006   2.858
42796SOL    HW130221  13.614  10.996   2.915
42796SOL    HW230222  13.713  10.917   2.832
42797SOL     OW30223   6.566   9.482   0.262
42797SOL    HW130224   6.517   9.403   0.238
42797SOL    HW230225   6.637   9.450   0.317
42798SOL     OW30226  12.921   1.031   2.376
42798SOL    HW130227  13.014   1.020   2.354
42798SOL    HW230228  12.922   1.078   2.459
42799SOL     OW30229  14.678  14.089  14.662
42799SOL    HW130230  14.760  14.108  14.707
42799SOL    HW230231  14.612  14.085  14.732
42800SOL     OW30232   0.103   0.540  12.319
42800SOL    HW130233   0.016   0.538  12.359
42800SOL    HW230234   0.139   0.625  12.344
42801SOL     OW30235   5.251   7.548  14.019
42801SOL    HW130236   5.276   7.640  14.014
42801SOL    HW230237   5.334   7.500  14.017
42802SOL     OW30238   9.666  12.183   0.443
42802SOL    HW130239   9.702  12.250   0.501
42802SOL    HW230240   9.712  12.103   0.468
42803SOL     OW30241   7.407  12.279   2.937
42803SOL    HW130242   7.403  12.199   2.988
42803SOL    HW230243   7.494  12.277   2.897
42804SOL     OW30244  13.651   6.983  12.705
42804SOL    HW130245  13.583   6.972  12.639
42804SOL    HW230246  13.682   7.073  12.694
42805SOL     OW30247  11.865   1.310   9.071
42805SOL    HW130248  11.881   1.239   9.007
42805SOL    HW230249  11.781   1.287   9.111
42806SOL     OW30250   8.246  10.821   0.266
42806SOL    HW130251   8.172  10.878   0.246
42806SOL    HW230252   8.215  10.765   0.338
42807SOL     OW30253  11.160   4.344   9.349
42807SOL    HW130254  11.078   4.337   9.399
42807SOL    HW230255  11.216   4.400   9.403
42808SOL     OW30256  10.872  11.299   8.313
42808SOL    HW130257  10.928  11.257   8.379
42808SOL    HW230258  10.926  11.370   8.278
42809SOL     OW30259   9.945   7.616   7.027
42809SOL    HW130260   9.911   7.687   7.082
42809SOL    HW230261   9.882   7.610   6.955
42810SOL     OW30262   8.049  11.418   4.389
42810SOL    HW130263   8.076  11.468   4.312
42810SOL    HW230264   8.041  11.483   4.459
42811SOL     OW30265  12.204   6.637  13.860
42811SOL    HW130266  12.126   6.585  13.878
42811SOL    HW230267  12.257   6.581  13.803
42812SOL     OW30268   8.526   3.651   7.040
42812SOL    HW130269   8.491   3.708   6.971
42812SOL    HW230270   8.621   3.652   7.026
42813SOL     OW30271   1.796   6.535   4.466
42813SOL    HW130272   1.725   6.511   4.406
42813SOL    HW230273   1.840   6.452   4.485
42814SOL     OW30274  13.276   2.352  10.634
42814SOL    HW130275  13.248   2.425  10.579
42814SOL    HW230276  13.318   2.393  10.709
42815SOL     OW30277   1.171   6.814   6.590
42815SOL    HW130278   1.147   6.899   6.627
42815SOL    HW230279   1.133   6.815   6.502
42816SOL     OW30280   4.749   0.692   4.307
42816SOL    HW130281   4.674   0.750   4.293
42816SOL    HW230282   4.789   0.723   4.388
42817SOL     OW30283   5.406   2.629   8.272
42817SOL    HW130284   5.365   2.639   8.359
42817SOL    HW230285   5.363   2.552   8.235
42818SOL     OW30286   9.592   1.933   7.062
42818SOL    HW130287   9.512   1.947   7.012
42818SOL    HW230288   9.570   1.958   7.151
42819SOL     OW30289  14.055   8.254   3.276
42819SOL    HW130290  14.014   8.341   3.272
42819SOL    HW230291  14.145   8.271   3.303
42820SOL     OW30292   1.188   7.135  12.046
42820SOL    HW130293   1.213   7.225  12.024
42820SOL    HW230294   1.093   7.138  12.054
42821SOL     OW30295  11.088  11.983   4.657
42821SOL    HW130296  11.151  11.930   4.706
42821SOL    HW230297  11.097  12.071   4.694
42822SOL     OW30298   9.425  12.740  12.416
42822SOL    HW130299   9.445  12.669  12.478
42822SOL    HW230300   9.441  12.701  12.330
42823SOL     OW30301   4.746  10.557   2.838
42823SOL    HW130302   4.709  10.611   2.768
42823SOL    HW230303   4.688  10.480   2.842
42824SOL     OW30304   7.263   7.962   1.118
42824SOL    HW130305   7.321   8.006   1.180
42824SOL    HW230306   7.320   7.936   1.046
42825SOL     OW30307   7.373   9.394   8.939
42825SOL    HW130308   7.351   9.304   8.961
42825SOL    HW230309   7.361   9.399   8.844
42826SOL     OW30310  12.022   6.526   2.572
42826SOL    HW130311  12.087   6.559   2.510
42826SOL    HW230312  12.058   6.550   2.658
42827SOL     OW30313   6.828   5.383  13.894
42827SOL    HW130314   6.887   5.441  13.846
42827SOL    HW230315   6.886   5.316  13.931
42828SOL     OW30316   0.703   3.941  13.519
42828SOL    HW130317   0.756   4.016  13.493
42828SOL    HW230318   0.720   3.931  13.613
42829SOL     OW30319   5.525   8.507  13.791
42829SOL    HW130320   5.537   8.566  13.866
42829SOL    HW230321   5.465   8.554  13.733
42830SOL     OW30322   7.303  10.250   6.255
42830SOL    HW130323   7.397  10.240   6.238
42830SOL    HW230324   7.261  10.191   6.192
42831SOL     OW30325  10.653  11.897   7.824
42831SOL    HW130326  10.621  11.813   7.858
42831SOL    HW230327  10.593  11.918   7.752
42832SOL     OW30328  11.342   0.729   3.943
42832SOL    HW130329  11.306   0.658   3.996
42832SOL    HW230330  11.428   0.697   3.915
42833SOL     OW30331   5.972   5.290   3.088
42833SOL    HW130332   5.922   5.368   3.065
42833SOL    HW230333   5.913   5.217   3.067
42834SOL     OW30334   3.904  14.123  12.058
42834SOL    HW130335   3.894  14.131  11.963
42834SOL    HW230336   3.834  14.178  12.094
42835SOL     OW30337   8.864   6.207   1.653
42835SOL    HW130338   8.912   6.125   1.660
42835SOL    HW230339   8.901   6.263   1.720
42836SOL     OW30340   4.866  10.507   0.597
42836SOL    HW130341   4.949  10.459   0.598
42836SOL    HW230342   4.827  10.487   0.512
42837SOL     OW30343   7.350   5.204   5.297
42837SOL    HW130344   7.327   5.259   5.371
42837SOL    HW230345   7.395   5.129   5.335
42838SOL     OW30346  11.371   3.989   8.330
42838SOL    HW130347  11.378   3.980   8.425
42838SOL    HW230348  11.333   4.076   8.317
42839SOL     OW30349   6.664  11.999  14.231
42839SOL    HW130350   6.663  12.017  14.137
42839SOL    HW230351   6.757  11.994  14.254
42840SOL     OW30352   0.170  10.787   1.238
42840SOL    HW130353   0.206  10.840   1.309
42840SOL    HW230354   0.138  10.851   1.174
42841SOL     OW30355   1.884   1.691  11.777
42841SOL    HW130356   1.854   1.777  11.807
42841SOL    HW230357   1.859   1.688  11.685
42842SOL     OW30358   1.121  13.473  14.318
42842SOL    HW130359   1.105  13.462  14.224
42842SOL    HW230360   1.148  13.565  14.327
42843SOL     OW30361   8.978   1.823  13.153
42843SOL    HW130362   8.937   1.852  13.234
42843SOL    HW230363   9.022   1.742  13.176
42844SOL     OW30364   0.795   5.998  12.273
42844SOL    HW130365   0.711   5.957  12.291
42844SOL    HW230366   0.849   5.927  12.236
42845SOL     OW30367   1.037  12.805   5.605
42845SOL    HW130368   1.090  12.875   5.567
42845SOL    HW230369   1.005  12.756   5.529
42846SOL     OW30370   5.132   7.301  13.272
42846SOL    HW130371   5.129   7.383  13.322
42846SOL    HW230372   5.058   7.307  13.212
42847SOL     OW30373  13.128  10.494   1.851
42847SOL    HW130374  13.087  10.566   1.900
42847SOL    HW230375  13.123  10.419   1.910
42848SOL     OW30376  10.764   7.523   0.561
42848SOL    HW130377  10.796   7.609   0.588
42848SOL    HW230378  10.787   7.464   0.633
42849SOL     OW30379   7.442   6.076  11.791
42849SOL    HW130380   7.425   6.030  11.708
42849SOL    HW230381   7.366   6.134  11.801
42850SOL     OW30382   1.902   1.127   4.847
42850SOL    HW130383   1.965   1.161   4.783
42850SOL    HW230384   1.845   1.070   4.797
42851SOL     OW30385   0.300   8.762   5.219
42851SOL    HW130386   0.349   8.682   5.199
42851SOL    HW230387   0.210   8.732   5.231
42852SOL     OW30388   2.648  10.806  13.405
42852SOL    HW130389   2.701  10.738  13.362
42852SOL    HW230390   2.571  10.815  13.348
42853SOL     OW30391   0.171   9.081  10.326
42853SOL    HW130392   0.178   9.165  10.281
42853SOL    HW230393   0.228   9.090  10.402
42854SOL     OW30394   2.086   5.224  10.908
42854SOL    HW130395   2.112   5.136  10.881
42854SOL    HW230396   2.001   5.212  10.951
42855SOL     OW30397  12.742   8.078  12.601
42855SOL    HW130398  12.810   8.140  12.576
42855SOL    HW230399  12.668   8.098  12.544
42856SOL     OW30400   3.055  10.006  11.933
42856SOL    HW130401   3.139   9.960  11.930
42856SOL    HW230402   3.007   9.964  12.005
42857SOL     OW30403  11.030   7.701  12.023
42857SOL    HW130404  11.083   7.757  12.079
42857SOL    HW230405  10.946   7.747  12.017
42858SOL     OW30406   4.796   7.309  13.069
42858SOL    HW130407   4.785   7.360  12.989
42858SOL    HW230408   4.880   7.264  13.057
42859SOL     OW30409   3.435   2.786   6.327
42859SOL    HW130410   3.354   2.785   6.379
42859SOL    HW230411   3.464   2.695   6.326
42860SOL     OW30412  11.367   6.407   0.092
42860SOL    HW130413  11.380   6.394  14.877
42860SOL    HW230414  11.278   6.443   0.099
42861SOL     OW30415   2.651   4.663   3.434
42861SOL    HW130416   2.715   4.733   3.449
42861SOL    HW230417   2.630   4.630   3.522
42862SOL     OW30418   6.920   8.645   0.259
42862SOL    HW130419   6.850   8.606   0.312
42862SOL    HW230420   7.000   8.627   0.307
42863SOL     OW30421   7.065  14.825  12.231
42863SOL    HW130422   7.020  14.793  12.153
42863SOL    HW230423   7.002   0.006  12.272
42864SOL     OW30424   8.903  11.445  11.223
42864SOL    HW130425   8.845  11.521  11.217
42864SOL    HW230426   8.845  11.370  11.206
42865SOL     OW30427   8.298   0.704  13.001
42865SOL    HW130428   8.325   0.614  13.019
42865SOL    HW230429   8.205   0.706  13.025
42866SOL     OW30430   9.075  13.280   0.012
42866SOL    HW130431   9.055  13.212  14.826
42866SOL    HW230432   9.050  13.241   0.096
42867SOL     OW30433   6.638   4.830   4.847
42867SOL    HW130434   6.592   4.856   4.927
42867SOL    HW230435   6.576   4.849   4.776
42868SOL     OW30436   7.678   5.776   2.259
42868SOL    HW130437   7.607   5.714   2.276
42868SOL    HW230438   7.678   5.786   2.163
42869SOL     OW30439   4.791  10.920   3.257
42869SOL    HW130440   4.706  10.904   3.297
42869SOL    HW230441   4.806  10.844   3.202
42870SOL     OW30442   6.675   8.005   1.788
42870SOL    HW130443   6.609   7.997   1.719
42870SOL    HW230444   6.708   8.094   1.780
42871SOL     OW30445   6.346  11.640   0.436
42871SOL    HW130446   6.331  11.558   0.484
42871SOL    HW230447   6.441  11.653   0.440
42872SOL     OW30448  14.650   8.231   5.462
42872SOL    HW130449  14.665   8.148   5.417
42872SOL    HW230450  14.569   8.265   5.424
42873SOL     OW30451   5.290   3.203   4.079
42873SOL    HW130452   5.366   3.173   4.029
42873SOL    HW230453   5.265   3.285   4.037
42874SOL     OW30454   9.593   8.723   6.414
42874SOL    HW130455   9.530   8.695   6.479
42874SOL    HW230456   9.676   8.731   6.462
42875SOL     OW30457  13.850   3.234   8.044
42875SOL    HW130458  13.820   3.161   8.099
42875SOL    HW230459  13.771   3.264   8.000
42876SOL     OW30460  14.553   2.285   9.237
42876SOL    HW130461  14.630   2.247   9.279
42876SOL    HW230462  14.527   2.358   9.294
42877SOL     OW30463  14.680  14.185   8.636
42877SOL    HW130464  14.681  14.226   8.549
42877SOL    HW230465  14.737  14.109   8.627
42878SOL     OW30466   8.244  13.288  14.821
42878SOL    HW130467   8.244  13.339  14.739
42878SOL    HW230468   8.211  13.202  14.795
42879SOL     OW30469   6.627   9.450  14.531
42879SOL    HW130470   6.639   9.478  14.441
42879SOL    HW230471   6.627   9.531  14.582
42880SOL     OW30472   4.341   2.224  13.004
42880SOL    HW130473   4.319   2.140  13.043
42880SOL    HW230474   4.293   2.225  12.921
42881SOL     OW30475   7.697  14.394  10.108
42881SOL    HW130476   7.741  14.310  10.113
42881SOL    HW230477   7.722  14.439  10.189
42882SOL     OW30478   3.655   2.602   3.402
42882SOL    HW130479   3.561   2.589   3.388
42882SOL    HW230480   3.663   2.695   3.424
42883SOL     OW30481   4.606  13.047   2.278
42883SOL    HW130482   4.701  13.037   2.284
42883SOL    HW230483   4.593  13.107   2.204
42884SOL     OW30484   2.566   5.519   0.407
42884SOL    HW130485   2.486   5.533   0.356
42884SOL    HW230486   2.632   5.572   0.364
42885SOL     OW30487   6.549  13.387   4.329
42885SOL    HW130488   6.605  13.445   4.381
42885SOL    HW230489   6.478  13.363   4.388
42886SOL     OW30490   2.428   2.730   6.029
42886SOL    HW130491   2.489   2.726   6.102
42886SOL    HW230492   2.474   2.780   5.961
42887SOL     OW30493  14.275   6.523   4.717
42887SOL    HW130494  14.369   6.509   4.731
42887SOL    HW230495  14.262   6.500   4.625
42888SOL     OW30496   1.593   9.847  11.373
42888SOL    HW130497   1.598   9.894  11.290
42888SOL    HW230498   1.515   9.791  11.364
42889SOL     OW30499  11.324   4.609  12.370
42889SOL    HW130500  11.363   4.546  12.308
42889SOL    HW230501  11.352   4.695  12.338
42890SOL     OW30502   1.414   1.120   4.374
42890SOL    HW130503   1.355   1.174   4.426
42890SOL    HW230504   1.427   1.040   4.426
42891SOL     OW30505  12.903   7.075  11.846
42891SOL    HW130506  12.969   7.139  11.871
42891SOL    HW230507  12.834   7.085  11.912
42892SOL     OW30508  14.653   4.323   0.248
42892SOL    HW130509  14.610   4.241   0.273
42892SOL    HW230510  14.582   4.378   0.215
42893SOL     OW30511   6.696   9.566   0.734
42893SOL    HW130512   6.701   9.643   0.678
42893SOL    HW230513   6.745   9.499   0.688
42894SOL     OW30514   8.376  14.831  13.822
42894SOL    HW130515   8.281  14.827  13.809
42894SOL    HW230516   8.412  14.776  13.753
42895SOL     OW30517   8.758  13.896  13.780
42895SOL    HW130518   8.749  13.985  13.816
42895SOL    HW230519   8.822  13.905  13.710
42896SOL     OW30520   6.577   1.790   3.539
42896SOL    HW130521   6.577   1.884   3.524
42896SOL    HW230522   6.652   1.774   3.596
42897SOL     OW30523  10.985  13.857   4.103
42897SOL    HW130524  10.895  13.884   4.085
42897SOL    HW230525  11.006  13.793   4.034
42898SOL     OW30526   2.117  10.263  12.993
42898SOL    HW130527   2.051  10.332  12.986
42898SOL    HW230528   2.089  10.211  13.068
42899SOL     OW30529  12.996   4.566   4.269
42899SOL    HW130530  12.974   4.644   4.218
42899SOL    HW230531  12.976   4.493   4.211
42900SOL     OW30532   7.013  10.783  11.082
42900SOL    HW130533   6.978  10.810  10.997
42900SOL    HW230534   7.100  10.822  11.085
42901SOL     OW30535   3.315   4.615  14.034
42901SOL    HW130536   3.249   4.685  14.037
42901SOL    HW230537   3.396   4.661  14.011
42902SOL     OW30538  13.222  10.287   0.647
42902SOL    HW130539  13.150  10.344   0.676
42902SOL    HW230540  13.292  10.302   0.711
42903SOL     OW30541   8.082   0.363   7.076
42903SOL    HW130542   8.104   0.305   7.003
42903SOL    HW230543   8.100   0.311   7.154
42904SOL     OW30544   0.277   6.512   5.625
42904SOL    HW130545   0.246   6.586   5.678
42904SOL    HW230546   0.368   6.532   5.606
42905SOL     OW30547   4.803  14.662   9.815
42905SOL    HW130548   4.709  14.646   9.827
42905SOL    HW230549   4.843  14.632   9.896
42906SOL     OW30550   6.218  12.685   8.611
42906SOL    HW130551   6.189  12.776   8.611
42906SOL    HW230552   6.139  12.635   8.629
42907SOL     OW30553  14.329  10.271   3.243
42907SOL    HW130554  14.382  10.238   3.315
42907SOL    HW230555  14.333  10.366   3.251
42908SOL     OW30556   5.706   6.264   7.522
42908SOL    HW130557   5.753   6.186   7.552
42908SOL    HW230558   5.769   6.311   7.467
42909SOL     OW30559  13.703   3.453  14.242
42909SOL    HW130560  13.710   3.386  14.174
42909SOL    HW230561  13.745   3.413  14.318
42910SOL     OW30562  11.893   8.090  13.728
42910SOL    HW130563  11.950   8.049  13.663
42910SOL    HW230564  11.936   8.172  13.751
42911SOL     OW30565  11.288   5.217   7.368
42911SOL    HW130566  11.283   5.292   7.308
42911SOL    HW230567  11.201   5.212   7.407
42912SOL     OW30568  13.196   5.300   3.594
42912SOL    HW130569  13.153   5.362   3.535
42912SOL    HW230570  13.148   5.309   3.677
42913SOL     OW30571   1.677  10.403  12.063
42913SOL    HW130572   1.701  10.317  12.028
42913SOL    HW230573   1.742  10.463  12.027
42914SOL     OW30574  13.665   9.741  13.666
42914SOL    HW130575  13.650   9.757  13.573
42914SOL    HW230576  13.585   9.770  13.709
42915SOL     OW30577   2.928   3.752   2.538
42915SOL    HW130578   2.935   3.844   2.513
42915SOL    HW230579   2.878   3.711   2.468
42916SOL     OW30580  12.903   7.839   8.886
42916SOL    HW130581  12.938   7.923   8.857
42916SOL    HW230582  12.911   7.782   8.810
42917SOL     OW30583   7.028   4.898  10.844
42917SOL    HW130584   7.063   4.980  10.811
42917SOL    HW230585   7.073   4.830  10.794
42918SOL     OW30586   0.091  10.253   1.803
42918SOL    HW130587  14.878  10.241   1.827
42918SOL    HW230588   0.103  10.348   1.800
42919SOL     OW30589  14.435   5.845   9.613
42919SOL    HW130590  14.504   5.780   9.624
42919SOL    HW230591  14.353   5.795   9.617
42920SOL     OW30592   1.194   8.747  13.528
42920SOL    HW130593   1.164   8.657  13.540
42920SOL    HW230594   1.242   8.745  13.445
42921SOL     OW30595   0.429  13.577   5.794
42921SOL    HW130596   0.386  13.566   5.879
42921SOL    HW230597   0.519  13.548   5.809
42922SOL     OW30598   1.271  11.646   1.838
42922SOL    HW130599   1.272  11.586   1.763
42922SOL    HW230600   1.239  11.593   1.911
42923SOL     OW30601  10.850  10.285   6.189
42923SOL    HW130602  10.789  10.276   6.262
42923SOL    HW230603  10.885  10.374   6.199
42924SOL     OW30604  12.619  10.563  10.383
42924SOL    HW130605  12.547  10.512  10.421
42924SOL    HW230606  12.604  10.652  10.414
42925SOL     OW30607   0.252  10.257  13.663
42925SOL    HW130608   0.320  10.191  13.645
42925SOL    HW230609   0.200  10.260  13.583
42926SOL     OW30610   2.356  11.157   9.934
42926SOL    HW130611   2.436  11.199   9.902
42926SOL    HW230612   2.386  11.090   9.994
42927SOL     OW30613  13.239   4.562  11.036
42927SOL    HW130614  13.280   4.498  10.977
42927SOL    HW230615  13.203   4.629  10.977
42928SOL     OW30616   5.410  12.051   9.649
42928SOL    HW130617   5.405  12.085   9.738
42928SOL    HW230618   5.416  11.956   9.659
42929SOL     OW30619   7.499  11.729   2.481
42929SOL    HW130620   7.489  11.634   2.480
42929SOL    HW230621   7.574  11.746   2.424
42930SOL     OW30622   3.622   2.325   1.063
42930SOL    HW130623   3.560   2.384   1.105
42930SOL    HW230624   3.571   2.246   1.044
42931SOL     OW30625  10.860  10.825  13.281
42931SOL    HW130626  10.935  10.770  13.301
42931SOL    HW230627  10.818  10.783  13.205
42932SOL     OW30628  11.531   6.839   3.645
42932SOL    HW130629  11.517   6.903   3.714
42932SOL    HW230630  11.449   6.790   3.641
42933SOL     OW30631  12.360  11.965   6.829
42933SOL    HW130632  12.332  11.897   6.889
42933SOL    HW230633  12.290  11.971   6.764
42934SOL     OW30634   7.987  12.400  11.848
42934SOL    HW130635   8.043  12.389  11.925
42934SOL    HW230636   8.042  12.374  11.774
42935SOL     OW30637  10.916  14.792   8.400
42935SOL    HW130638  11.000  14.808   8.442
42935SOL    HW230639  10.933  14.801   8.307
42936SOL     OW30640  13.335   2.743   7.197
42936SOL    HW130641  13.277   2.803   7.243
42936SOL    HW230642  13.280   2.701   7.131
42937SOL     OW30643   7.376   6.422   5.656
42937SOL    HW130644   7.378   6.513   5.687
42937SOL    HW230645   7.349   6.430   5.564
42938SOL     OW30646   4.243  11.685  11.074
42938SOL    HW130647   4.273  11.775  11.084
42938SOL    HW230648   4.265  11.663  10.983
42939SOL     OW30649   3.545  11.673   5.570
42939SOL    HW130650   3.464  11.623   5.570
42939SOL    HW230651   3.614  11.607   5.577
42940SOL     OW30652  14.145   7.833  14.391
42940SOL    HW130653  14.137   7.924  14.361
42940SOL    HW230654  14.094   7.831  14.473
42941SOL     OW30655   4.564  11.326  11.517
42941SOL    HW130656   4.597  11.415  11.526
42941SOL    HW230657   4.614  11.275  11.582
42942SOL     OW30658   3.377   7.401   9.743
42942SOL    HW130659   3.330   7.402   9.660
42942SOL    HW230660   3.467   7.423   9.720
42943SOL     OW30661   9.139   2.588  12.239
42943SOL    HW130662   9.210   2.642  12.273
42943SOL    HW230663   9.120   2.525  12.309
42944SOL     OW30664   5.502   0.350   7.301
42944SOL    HW130665   5.456   0.279   7.344
42944SOL    HW230666   5.441   0.424   7.303
42945SOL     OW30667   2.092  13.354   5.127
42945SOL    HW130668   2.186  13.358   5.107
42945SOL    HW230669   2.050  13.395   5.051
42946SOL     OW30670  11.470  14.124  10.387
42946SOL    HW130671  11.508  14.060  10.327
42946SOL    HW230672  11.545  14.161  10.433
42947SOL     OW30673   4.846  14.167  13.478
42947SOL    HW130674   4.895  14.240  13.516
42947SOL    HW230675   4.780  14.209  13.423
42948SOL     OW30676   6.277   5.600   3.315
42948SOL    HW130677   6.300   5.616   3.406
42948SOL    HW230678   6.198   5.547   3.319
42949SOL     OW30679   2.567   5.935  11.327
42949SOL    HW130680   2.550   6.029  11.320
42949SOL    HW230681   2.641   5.920  11.269
42950SOL     OW30682   4.657   1.849   2.142
42950SOL    HW130683   4.585   1.884   2.194
42950SOL    HW230684   4.716   1.810   2.206
42951SOL     OW30685   8.222  14.110   7.302
42951SOL    HW130686   8.130  14.085   7.295
42951SOL    HW230687   8.222  14.185   7.362
42952SOL     OW30688  13.191   1.317  12.927
42952SOL    HW130689  13.117   1.264  12.898
42952SOL    HW230690  13.152   1.384  12.983
42953SOL     OW30691   5.766   8.906  10.651
42953SOL    HW130692   5.777   8.992  10.610
42953SOL    HW230693   5.779   8.921  10.744
42954SOL     OW30694  12.603  14.744   6.101
42954SOL    HW130695  12.537  14.708   6.042
42954SOL    HW230696  12.623  14.673   6.162
42955SOL     OW30697  13.891   6.810  14.829
42955SOL    HW130698  13.872   6.895  14.790
42955SOL    HW230699  13.865   6.746  14.763
42956SOL     OW30700   4.359   5.003   0.427
42956SOL    HW130701   4.355   4.923   0.375
42956SOL    HW230702   4.452   5.017   0.445
42957SOL     OW30703   1.050   8.653  12.247
42957SOL    HW130704   1.027   8.746  12.252
42957SOL    HW230705   1.116   8.648  12.178
42958SOL     OW30706  13.410  11.873  14.439
42958SOL    HW130707  13.376  11.957  14.471
42958SOL    HW230708  13.442  11.893  14.351
42959SOL     OW30709   3.742   2.537   5.897
42959SOL    HW130710   3.772   2.522   5.987
42959SOL    HW230711   3.702   2.454   5.871
42960SOL     OW30712   7.050   2.506   9.463
42960SOL    HW130713   7.124   2.518   9.404
42960SOL    HW230714   7.083   2.447   9.531
42961SOL     OW30715   8.334   1.864   9.564
42961SOL    HW130716   8.299   1.870   9.652
42961SOL    HW230717   8.318   1.951   9.526
42962SOL     OW30718   4.580   0.645   1.357
42962SOL    HW130719   4.532   0.656   1.275
42962SOL    HW230720   4.558   0.557   1.386
42963SOL     OW30721   5.553   9.504   3.263
42963SOL    HW130722   5.518   9.590   3.239
42963SOL    HW230723   5.646   9.518   3.276
42964SOL     OW30724  13.342  12.879  12.717
42964SOL    HW130725  13.409  12.939  12.750
42964SOL    HW230726  13.268  12.934  12.695
42965SOL     OW30727  14.119   3.136   3.225
42965SOL    HW130728  14.133   3.055   3.274
42965SOL    HW230729  14.202   3.152   3.181
42966SOL     OW30730   9.436   5.985  12.304
42966SOL    HW130731   9.483   6.068  12.304
42966SOL    HW230732   9.480   5.932  12.238
42967SOL     OW30733   5.694  10.554   7.413
42967SOL    HW130734   5.732  10.614   7.478
42967SOL    HW230735   5.753  10.560   7.338
42968SOL     OW30736  13.451  13.644   2.876
42968SOL    HW130737  13.427  13.723   2.826
42968SOL    HW230738  13.385  13.639   2.945
42969SOL     OW30739  14.035   1.468   7.887
42969SOL    HW130740  14.000   1.495   7.802
42969SOL    HW230741  13.961   1.426   7.931
42970SOL     OW30742   4.398   9.624   2.117
42970SOL    HW130743   4.338   9.687   2.156
42970SOL    HW230744   4.485   9.657   2.138
42971SOL     OW30745  11.416  11.492   5.999
42971SOL    HW130746  11.417  11.404   6.036
42971SOL    HW230747  11.502  11.502   5.959
42972SOL     OW30748  14.035   0.049  12.565
42972SOL    HW130749  14.024  14.841  12.527
42972SOL    HW230750  13.962   0.101  12.531
42973SOL     OW30751   5.899   6.814  10.907
42973SOL    HW130752   5.836   6.745  10.928
42973SOL    HW230753   5.902   6.868  10.987
42974SOL     OW30754  10.086  10.433  13.957
42974SOL    HW130755  10.145  10.484  13.902
42974SOL    HW230756   9.998  10.458  13.927
42975SOL     OW30757   4.324   3.631   8.198
42975SOL    HW130758   4.339   3.567   8.128
42975SOL    HW230759   4.277   3.582   8.265
42976SOL     OW30760   2.167   2.043  14.548
42976SOL    HW130761   2.173   2.121  14.604
42976SOL    HW230762   2.209   2.069  14.466
42977SOL     OW30763  10.682  14.106   2.439
42977SOL    HW130764  10.728  14.190   2.433
42977SOL    HW230765  10.680  14.074   2.349
42978SOL     OW30766   7.866   1.295   3.239
42978SOL    HW130767   7.847   1.247   3.159
42978SOL    HW230768   7.913   1.373   3.209
42979SOL     OW30769   7.947  12.846   8.209
42979SOL    HW130770   7.978  12.901   8.136
42979SOL    HW230771   8.024  12.832   8.263
42980SOL     OW30772   5.406   7.409   4.731
42980SOL    HW130773   5.499   7.430   4.728
42980SOL    HW230774   5.386   7.376   4.643
42981SOL     OW30775  13.083   6.387  12.181
42981SOL    HW130776  13.035   6.462  12.144
42981SOL    HW230777  13.157   6.426  12.227
42982SOL     OW30778   8.069   4.963   5.756
42982SOL    HW130779   8.062   4.870   5.736
42982SOL    HW230780   8.151   4.972   5.805
42983SOL     OW30781   2.710  11.878   5.827
42983SOL    HW130782   2.735  11.842   5.742
42983SOL    HW230783   2.779  11.941   5.847
42984SOL     OW30784   8.033   8.870  10.234
42984SOL    HW130785   8.126   8.893  10.234
42984SOL    HW230786   8.023   8.808  10.306
42985SOL     OW30787   9.466  13.222   2.500
42985SOL    HW130788   9.418  13.141   2.484
42985SOL    HW230789   9.490  13.219   2.592
42986SOL     OW30790   1.455   6.993  14.614
42986SOL    HW130791   1.480   7.063  14.675
42986SOL    HW230792   1.529   6.986  14.554
42987SOL     OW30793  12.522  11.571  12.731
42987SOL    HW130794  12.579  11.535  12.663
42987SOL    HW230795  12.570  11.557  12.812
42988SOL     OW30796   1.026   7.796   0.158
42988SOL    HW130797   1.027   7.864   0.226
42988SOL    HW230798   0.948   7.745   0.177
42989SOL     OW30799   6.676  12.722   3.324
42989SOL    HW130800   6.727  12.645   3.350
42989SOL    HW230801   6.654  12.765   3.407
42990SOL     OW30802   1.977   3.942   3.245
42990SOL    HW130803   2.012   3.895   3.170
42990SOL    HW230804   2.030   3.913   3.319
42991SOL     OW30805  10.798   6.885  12.871
42991SOL    HW130806  10.834   6.924  12.791
42991SOL    HW230807  10.806   6.791  12.857
42992SOL     OW30808   3.571  10.165   2.017
42992SOL    HW130809   3.632  10.158   1.944
42992SOL    HW230810   3.611  10.228   2.077
42993SOL     OW30811   4.281  10.476   9.713
42993SOL    HW130812   4.362  10.524   9.731
42993SOL    HW230813   4.296  10.434   9.628
42994SOL     OW30814   7.689   8.531   0.345
42994SOL    HW130815   7.767   8.476   0.354
42994SOL    HW230816   7.618   8.478   0.381
42995SOL     OW30817   5.015   1.193   8.834
42995SOL    HW130818   5.077   1.120   8.833
42995SOL    HW230819   5.012   1.221   8.926
42996SOL     OW30820   8.050   7.416  12.242
42996SOL    HW130821   7.996   7.464  12.305
42996SOL    HW230822   7.988   7.386  12.176
42997SOL     OW30823   3.498  14.520   3.503
42997SOL    HW130824   3.528  14.470   3.579
42997SOL    HW230825   3.560  14.593   3.497
42998SOL     OW30826   6.872   3.770   5.855
42998SOL    HW130827   6.942   3.706   5.860
42998SOL    HW230828   6.827   3.751   5.772
42999SOL     OW30829   1.387   9.008  12.610
42999SOL    HW130830   1.371   8.913  12.607
42999SOL    HW230831   1.315   9.042  12.665
43000SOL     OW30832  12.893   2.466  13.731
43000SOL    HW130833  12.957   2.412  13.777
43000SOL    HW230834  12.919   2.461  13.639
43001SOL     OW30835  13.024   4.483  10.744
43001SOL    HW130836  12.953   4.529  10.788
43001SOL    HW230837  13.096   4.483  10.807
43002SOL     OW30838   1.800  12.510   7.872
43002SOL    HW130839   1.871  12.575   7.876
43002SOL    HW230840   1.728  12.551   7.919
43003SOL     OW30841   2.524  13.441  13.479
43003SOL    HW130842   2.449  13.402  13.434
43003SOL    HW230843   2.485  13.504  13.540
43004SOL     OW30844  14.743  10.237  13.705
43004SOL    HW130845  14.692  10.226  13.625
43004SOL    HW230846  14.801  10.311  13.686
43005SOL     OW30847   1.632   4.051   7.526
43005SOL    HW130848   1.551   4.099   7.543
43005SOL    HW230849   1.638   3.988   7.597
43006SOL     OW30850   9.391  14.534  12.448
43006SOL    HW130851   9.389  14.621  12.487
43006SOL    HW230852   9.447  14.482  12.506
43007SOL     OW30853   0.066  13.945   7.393
43007SOL    HW130854   0.005  13.872   7.385
43007SOL    HW230855   0.012  14.021   7.414
43008SOL     OW30856   8.435   9.344   8.732
43008SOL    HW130857   8.433   9.439   8.727
43008SOL    HW230858   8.346   9.318   8.754
43009SOL     OW30859   8.024   3.708  11.424
43009SOL    HW130860   8.095   3.772  11.431
43009SOL    HW230861   7.982   3.709  11.510
43010SOL     OW30862  13.665  12.842   6.864
43010SOL    HW130863  13.622  12.842   6.779
43010SOL    HW230864  13.607  12.891   6.922
43011SOL     OW30865  13.466   5.496   0.205
43011SOL    HW130866  13.473   5.592   0.207
43011SOL    HW230867  13.374   5.480   0.181
43012SOL     OW30868   4.911  11.758  12.383
43012SOL    HW130869   4.970  11.817  12.428
43012SOL    HW230870   4.875  11.809  12.311
43013SOL     OW30871   7.014  14.832   7.234
43013SOL    HW130872   6.998  14.864   7.145
43013SOL    HW230873   7.013  14.737   7.225
43014SOL     OW30874   7.500   4.828   6.794
43014SOL    HW130875   7.570   4.813   6.730
43014SOL    HW230876   7.540   4.808   6.879
43015SOL     OW30877   1.807  13.542   7.004
43015SOL    HW130878   1.718  13.569   7.028
43015SOL    HW230879   1.859  13.557   7.083
43016SOL     OW30880  13.583   9.660   3.338
43016SOL    HW130881  13.670   9.680   3.304
43016SOL    HW230882  13.523   9.687   3.269
43017SOL     OW30883  13.877   0.697   6.526
43017SOL    HW130884  13.791   0.737   6.513
43017SOL    HW230885  13.873   0.614   6.478
43018SOL     OW30886   5.550   7.040   1.841
43018SOL    HW130887   5.600   7.095   1.780
43018SOL    HW230888   5.613   7.019   1.911
43019SOL     OW30889   9.886  10.716   2.507
43019SOL    HW130890   9.938  10.663   2.568
43019SOL    HW230891   9.951  10.762   2.454
43020SOL     OW30892  10.855   5.359  14.103
43020SOL    HW130893  10.799   5.306  14.160
43020SOL    HW230894  10.832   5.449  14.125
43021SOL     OW30895  11.108   5.932   2.521
43021SOL    HW130896  11.175   5.944   2.589
43021SOL    HW230897  11.151   5.958   2.440
43022SOL     OW30898   1.025   6.670   3.148
43022SOL    HW130899   0.945   6.665   3.200
43022SOL    HW230900   1.063   6.582   3.153
43023SOL     OW30901   9.663   0.760  11.163
43023SOL    HW130902   9.721   0.814  11.217
43023SOL    HW230903   9.701   0.764  11.075
43024SOL     OW30904   6.965  14.099   6.605
43024SOL    HW130905   7.058  14.100   6.583
43024SOL    HW230906   6.921  14.068   6.526
43025SOL     OW30907   6.225   8.704   8.762
43025SOL    HW130908   6.305   8.692   8.814
43025SOL    HW230909   6.255   8.749   8.683
43026SOL     OW30910  13.481   8.026   8.534
43026SOL    HW130911  13.555   7.979   8.571
43026SOL    HW230912  13.516   8.070   8.457
43027SOL     OW30913   7.574  13.857   2.050
43027SOL    HW130914   7.668  13.874   2.057
43027SOL    HW230915   7.545  13.840   2.139
43028SOL     OW30916   6.203   6.835   4.353
43028SOL    HW130917   6.286   6.787   4.364
43028SOL    HW230918   6.209   6.873   4.266
43029SOL     OW30919  12.920   5.271   5.026
43029SOL    HW130920  12.879   5.207   5.084
43029SOL    HW230921  12.851   5.298   4.967
43030SOL     OW30922   5.170   1.952  14.780
43030SOL    HW130923   5.142   1.874  14.733
43030SOL    HW230924   5.231   1.920  14.847
43031SOL     OW30925  12.161   6.859   0.532
43031SOL    HW130926  12.087   6.904   0.493
43031SOL    HW230927  12.177   6.784   0.475
43032SOL     OW30928   4.024  11.177  11.608
43032SOL    HW130929   4.006  11.111  11.541
43032SOL    HW230930   4.103  11.222  11.577
43033SOL     OW30931  14.228   2.141   3.901
43033SOL    HW130932  14.279   2.150   3.982
43033SOL    HW230933  14.192   2.053   3.905
43034SOL     OW30934   9.536   3.155  10.261
43034SOL    HW130935   9.466   3.219  10.252
43034SOL    HW230936   9.516   3.109  10.342
43035SOL     OW30937  13.444   3.864   2.567
43035SOL    HW130938  13.487   3.783   2.537
43035SOL    HW230939  13.351   3.851   2.546
43036SOL     OW30940  11.766   2.527   7.426
43036SOL    HW130941  11.744   2.578   7.504
43036SOL    HW230942  11.854   2.495   7.443
43037SOL     OW30943  10.184  10.756  11.932
43037SOL    HW130944  10.091  10.742  11.913
43037SOL    HW230945  10.196  10.721  12.020
43038SOL     OW30946   5.681  12.883   9.234
43038SOL    HW130947   5.726  12.951   9.284
43038SOL    HW230948   5.642  12.931   9.160
43039SOL     OW30949   7.346  11.454   1.454
43039SOL    HW130950   7.285  11.502   1.398
43039SOL    HW230951   7.386  11.521   1.509
43040SOL     OW30952   6.117  11.921  10.505
43040SOL    HW130953   6.189  11.941  10.445
43040SOL    HW230954   6.038  11.936  10.454
43041SOL     OW30955  11.396   0.116  10.120
43041SOL    HW130956  11.383   0.028  10.155
43041SOL    HW230957  11.446   0.161  10.187
43042SOL     OW30958   4.445   5.281  11.326
43042SOL    HW130959   4.511   5.345  11.303
43042SOL    HW230960   4.363   5.331  11.329
43043SOL     OW30961  12.894  11.719  13.533
43043SOL    HW130962  12.834  11.644  13.539
43043SOL    HW230963  12.958  11.704  13.602
43044SOL     OW30964  13.734  11.101   6.353
43044SOL    HW130965  13.708  11.103   6.445
43044SOL    HW230966  13.823  11.134   6.352
43045SOL     OW30967  14.082  14.569   3.730
43045SOL    HW130968  14.087  14.630   3.804
43045SOL    HW230969  14.143  14.605   3.665
43046SOL     OW30970  11.106  13.998   5.551
43046SOL    HW130971  11.055  14.041   5.620
43046SOL    HW230972  11.097  14.056   5.476
43047SOL     OW30973  10.819   4.885   6.959
43047SOL    HW130974  10.761   4.865   7.032
43047SOL    HW230975  10.794   4.973   6.931
43048SOL     OW30976  13.044   1.407  10.432
43048SOL    HW130977  12.981   1.473  10.462
43048SOL    HW230978  12.994   1.326  10.429
43049SOL     OW30979   3.003   2.129  14.622
43049SOL    HW130980   2.928   2.112  14.566
43049SOL    HW230981   2.979   2.208  14.671
43050SOL     OW30982   7.315   1.075   5.382
43050SOL    HW130983   7.278   0.993   5.349
43050SOL    HW230984   7.243   1.138   5.376
43051SOL     OW30985   5.458   2.841   2.594
43051SOL    HW130986   5.542   2.841   2.548
43051SOL    HW230987   5.474   2.788   2.672
43052SOL     OW30988   8.753  13.399   2.043
43052SOL    HW130989   8.812  13.328   2.071
43052SOL    HW230990   8.787  13.427   1.959
43053SOL     OW30991  11.987   4.030   0.338
43053SOL    HW130992  11.918   4.070   0.392
43053SOL    HW230993  11.946   4.017   0.253
43054SOL     OW30994   5.396  13.418   9.713
43054SOL    HW130995   5.411  13.486   9.780
43054SOL    HW230996   5.301  13.406   9.713
43055SOL     OW30997  10.101   0.574  13.951
43055SOL    HW130998  10.153   0.497  13.975
43055SOL    HW230999  10.046   0.591  14.028
43056SOL     OW31000   3.830   7.166   5.944
43056SOL    HW131001   3.828   7.201   5.855
43056SOL    HW231002   3.870   7.235   5.997
43057SOL     OW31003   7.508  14.350   9.145
43057SOL    HW131004   7.484  14.273   9.197
43057SOL    HW231005   7.582  14.389   9.192
43058SOL     OW31006   8.745   6.275  10.633
43058SOL    HW131007   8.799   6.229  10.698
43058SOL    HW231008   8.803   6.342  10.597
43059SOL     OW31009  11.340   3.623   6.599
43059SOL    HW131010  11.353   3.571   6.520
43059SOL    HW231011  11.246   3.613   6.618
43060SOL     OW31012  13.353  14.175   0.239
43060SOL    HW131013  13.354  14.257   0.190
43060SOL    HW231014  13.274  14.129   0.209
43061SOL     OW31015  11.941  13.446   7.732
43061SOL    HW131016  11.913  13.366   7.776
43061SOL    HW231017  12.030  13.427   7.702
43062SOL     OW31018   8.110   4.582  12.567
43062SOL    HW131019   8.184   4.522  12.576
43062SOL    HW231020   8.118   4.616  12.478
43063SOL     OW31021   3.703   8.068   0.802
43063SOL    HW131022   3.734   8.046   0.714
43063SOL    HW231023   3.698   8.163   0.803
43064SOL     OW31024  13.530  13.949   4.955
43064SOL    HW131025  13.455  13.943   4.897
43064SOL    HW231026  13.573  14.031   4.930
43065SOL     OW31027   0.628   9.571   4.273
43065SOL    HW131028   0.704   9.563   4.214
43065SOL    HW231029   0.591   9.483   4.275
43066SOL     OW31030   3.857   8.116   9.991
43066SOL    HW131031   3.945   8.084   9.969
43066SOL    HW231032   3.848   8.196   9.939
43067SOL     OW31033   4.738   5.203   4.046
43067SOL    HW131034   4.750   5.262   3.972
43067SOL    HW231035   4.797   5.236   4.113
43068SOL     OW31036   0.944  10.548  13.749
43068SOL    HW131037   0.897  10.631  13.741
43068SOL    HW231038   0.947  10.514  13.659
43069SOL     OW31039   7.815   2.028   7.195
43069SOL    HW131040   7.882   1.960   7.197
43069SOL    HW231041   7.764   2.014   7.274
43070SOL     OW31042  12.175  10.999   7.969
43070SOL    HW131043  12.242  11.043   7.916
43070SOL    HW231044  12.096  11.004   7.915
43071SOL     OW31045  12.037  13.846   1.926
43071SOL    HW131046  11.947  13.830   1.897
43071SOL    HW231047  12.061  13.767   1.973
43072SOL     OW31048  12.496  12.281   7.919
43072SOL    HW131049  12.525  12.191   7.935
43072SOL    HW231050  12.459  12.279   7.831
43073SOL     OW31051  13.172  11.931   2.256
43073SOL    HW131052  13.173  12.020   2.291
43073SOL    HW231053  13.222  11.880   2.319
43074SOL     OW31054   3.849  11.410  14.225
43074SOL    HW131055   3.869  11.415  14.131
43074SOL    HW231056   3.922  11.360  14.262
43075SOL     OW31057   0.800   7.394  13.141
43075SOL    HW131058   0.764   7.307  13.126
43075SOL    HW231059   0.837   7.391  13.229
43076SOL     OW31060   9.663   7.985   1.901
43076SOL    HW131061   9.742   7.980   1.955
43076SOL    HW231062   9.592   7.963   1.961
43077SOL     OW31063   6.264   2.501   1.588
43077SOL    HW131064   6.240   2.425   1.535
43077SOL    HW231065   6.181   2.545   1.604
43078SOL     OW31066   4.696  11.749  10.503
43078SOL    HW131067   4.718  11.836  10.536
43078SOL    HW231068   4.770  11.725  10.448
43079SOL     OW31069   6.925   4.657  13.661
43079SOL    HW131070   7.002   4.692  13.706
43079SOL    HW231071   6.926   4.563  13.680
43080SOL     OW31072   5.382  12.704   5.456
43080SOL    HW131073   5.447  12.633   5.459
43080SOL    HW231074   5.298  12.659   5.447
43081SOL     OW31075   4.448   4.542   6.248
43081SOL    HW131076   4.496   4.495   6.180
43081SOL    HW231077   4.368   4.491   6.260
43082SOL     OW31078   0.925  12.082  14.522
43082SOL    HW131079   0.961  12.141  14.588
43082SOL    HW231080   0.992  12.080  14.454
43083SOL     OW31081   4.606  11.177   1.349
43083SOL    HW131082   4.672  11.115   1.379
43083SOL    HW231083   4.536  11.172   1.414
43084SOL     OW31084   9.150   7.161  13.501
43084SOL    HW131085   9.205   7.111  13.440
43084SOL    HW231086   9.147   7.249  13.464
43085SOL     OW31087  13.905   1.140   2.828
43085SOL    HW131088  13.883   1.150   2.920
43085SOL    HW231089  13.858   1.062   2.799
43086SOL     OW31090  13.060   0.137   1.701
43086SOL    HW131091  13.087   0.076   1.769
43086SOL    HW231092  12.971   0.162   1.724
43087SOL     OW31093  11.730  12.665  12.721
43087SOL    HW131094  11.684  12.611  12.657
43087SOL    HW231095  11.806  12.612  12.748
43088SOL     OW31096   2.574   5.852  10.779
43088SOL    HW131097   2.498   5.794  10.775
43088SOL    HW231098   2.551   5.926  10.722
43089SOL     OW31099   3.647  13.459  14.493
43089SOL    HW131100   3.729  13.411  14.481
43089SOL    HW231101   3.668  13.549  14.468
43090SOL     OW31102  11.847   6.135   4.641
43090SOL    HW131103  11.791   6.067   4.678
43090SOL    HW231104  11.929   6.090   4.619
43091SOL     OW31105  13.618   3.571  13.178
43091SOL    HW131106  13.537   3.526  13.154
43091SOL    HW231107  13.655   3.599  13.094
43092SOL     OW31108   5.755   9.198   5.872
43092SOL    HW131109   5.753   9.200   5.968
43092SOL    HW231110   5.684   9.138   5.848
43093SOL     OW31111   7.468   6.926   6.877
43093SOL    HW131112   7.556   6.956   6.856
43093SOL    HW231113   7.441   6.873   6.802
43094SOL     OW31114   1.186   9.272   5.788
43094SOL    HW131115   1.281   9.281   5.795
43094SOL    HW231116   1.161   9.330   5.715
43095SOL     OW31117   0.823   2.214   2.288
43095SOL    HW131118   0.864   2.128   2.304
43095SOL    HW231119   0.896   2.271   2.265
43096SOL     OW31120   0.645   6.875   3.798
43096SOL    HW131121   0.696   6.796   3.815
43096SOL    HW231122   0.610   6.900   3.883
43097SOL     OW31123   6.398   1.711   1.466
43097SOL    HW131124   6.476   1.766   1.478
43097SOL    HW231125   6.406   1.644   1.534
43098SOL     OW31126   8.675  10.723  13.862
43098SOL    HW131127   8.713  10.774  13.791
43098SOL    HW231128   8.585  10.705  13.833
43099SOL     OW31129   0.111  11.327  14.223
43099SOL    HW131130   0.122  11.236  14.251
43099SOL    HW231131   0.021  11.349  14.247
43100SOL     OW31132  12.464   6.718  11.440
43100SOL    HW131133  12.481   6.655  11.370
43100SOL    HW231134  12.511   6.797  11.414
43101SOL     OW31135  12.116   9.353  12.144
43101SOL    HW131136  12.201   9.391  12.167
43101SOL    HW231137  12.120   9.263  12.177
43102SOL     OW31138   7.572   9.357   0.271
43102SOL    HW131139   7.636   9.321   0.332
43102SOL    HW231140   7.582   9.304   0.192
43103SOL     OW31141  14.799   5.619   2.118
43103SOL    HW131142  14.814   5.585   2.207
43103SOL    HW231143  14.721   5.572   2.088
43104SOL     OW31144   2.668   1.477   7.173
43104SOL    HW131145   2.723   1.517   7.240
43104SOL    HW231146   2.718   1.487   7.092
43105SOL     OW31147  12.643   8.932  10.381
43105SOL    HW131148  12.671   8.907  10.293
43105SOL    HW231149  12.548   8.938  10.375
43106SOL     OW31150  12.647  14.089  10.746
43106SOL    HW131151  12.681  14.178  10.735
43106SOL    HW231152  12.607  14.089  10.833
43107SOL     OW31153   9.545   1.397  12.000
43107SOL    HW131154   9.495   1.471  11.967
43107SOL    HW231155   9.633   1.410  11.965
43108SOL     OW31156   3.015   4.753   9.174
43108SOL    HW131157   2.989   4.813   9.104
43108SOL    HW231158   3.100   4.785   9.202
43109SOL     OW31159   0.452   2.109  12.079
43109SOL    HW131160   0.514   2.038  12.094
43109SOL    HW231161   0.495   2.166  12.016
43110SOL     OW31162  14.280   9.368   9.477
43110SOL    HW131163  14.199   9.373   9.426
43110SOL    HW231164  14.339   9.317   9.422
43111SOL     OW31165   9.980   3.168   7.478
43111SOL    HW131166   9.903   3.114   7.459
43111SOL    HW231167  10.046   3.137   7.416
43112SOL     OW31168   6.104   6.935   9.505
43112SOL    HW131169   6.041   6.869   9.475
43112SOL    HW231170   6.051   6.998   9.554
43113SOL     OW31171   5.158  13.727   1.027
43113SOL    HW131172   5.173  13.760   0.939
43113SOL    HW231173   5.181  13.635   1.024
43114SOL     OW31174   0.009   3.604   7.374
43114SOL    HW131175  14.873   3.549   7.297
43114SOL    HW231176  14.825   3.571   7.439
43115SOL     OW31177   9.042   6.930  11.001
43115SOL    HW131178   9.055   6.943  10.907
43115SOL    HW231179   9.106   6.864  11.025
43116SOL     OW31180  10.388  10.153   1.072
43116SOL    HW131181  10.338  10.233   1.089
43116SOL    HW231182  10.438  10.173   0.993
43117SOL     OW31183   0.778   0.316   2.011
43117SOL    HW131184   0.708   0.252   2.020
43117SOL    HW231185   0.733   0.400   2.006
43118SOL     OW31186  11.797   4.099  13.543
43118SOL    HW131187  11.762   4.117  13.630
43118SOL    HW231188  11.726   4.123  13.483
43119SOL     OW31189   2.128   8.922  12.427
43119SOL    HW131190   2.153   8.867  12.353
43119SOL    HW231191   2.077   8.993  12.389
43120SOL     OW31192  12.349  10.690  14.586
43120SOL    HW131193  12.406  10.760  14.555
43120SOL    HW231194  12.308  10.656  14.506
43121SOL     OW31195  14.068  14.003   7.820
43121SOL    HW131196  14.038  14.078   7.871
43121SOL    HW231197  14.100  14.040   7.738
43122SOL     OW31198   4.179   5.788   2.616
43122SOL    HW131199   4.169   5.790   2.711
43122SOL    HW231200   4.174   5.695   2.594
43123SOL     OW31201   5.685  11.973   3.625
43123SOL    HW131202   5.714  12.038   3.689
43123SOL    HW231203   5.751  11.977   3.555
43124SOL     OW31204   8.421  13.388   2.105
43124SOL    HW131205   8.417  13.430   2.191
43124SOL    HW231206   8.514  13.387   2.083
43125SOL     OW31207   4.049   0.749   2.891
43125SOL    HW131208   4.109   0.700   2.949
43125SOL    HW231209   3.979   0.778   2.949
43126SOL     OW31210  10.688   3.867   9.789
43126SOL    HW131211  10.772   3.905   9.813
43126SOL    HW231212  10.668   3.905   9.703
43127SOL     OW31213   3.734   9.442   1.894
43127SOL    HW131214   3.820   9.471   1.862
43127SOL    HW231215   3.749   9.353   1.927
43128SOL     OW31216  14.870   3.874  13.124
43128SOL    HW131217   0.079   3.910  13.137
43128SOL    HW231218  14.847   3.835  13.209
43129SOL     OW31219  12.137   0.154   0.068
43129SOL    HW131220  12.228   0.148   0.098
43129SOL    HW231221  12.129   0.088  14.878
43130SOL     OW31222   0.032   2.638   0.315
43130SOL    HW131223   0.051   2.687   0.234
43130SOL    HW231224   0.044   2.546   0.291
43131SOL     OW31225   5.271   1.287  13.161
43131SOL    HW131226   5.269   1.312  13.069
43131SOL    HW231227   5.324   1.354  13.203
43132SOL     OW31228   0.420  13.179   4.574
43132SOL    HW131229   0.508  13.148   4.597
43132SOL    HW231230   0.366  13.155   4.649
43133SOL     OW31231   8.443   4.661   0.170
43133SOL    HW131232   8.386   4.660   0.093
43133SOL    HW231233   8.529   4.686   0.135
43134SOL     OW31234   0.763   9.327  11.215
43134SOL    HW131235   0.751   9.237  11.184
43134SOL    HW231236   0.742   9.323  11.308
43135SOL     OW31237  12.648  13.375  11.932
43135SOL    HW131238  12.633  13.459  11.888
43135SOL    HW231239  12.705  13.327  11.872
43136SOL     OW31240  14.726   2.169   7.634
43136SOL    HW131241  14.713   2.125   7.718
43136SOL    HW231242  14.712   2.262   7.654
43137SOL     OW31243   3.322  13.993  13.788
43137SOL    HW131244   3.328  13.899  13.806
43137SOL    HW231245   3.397  14.012  13.732
43138SOL     OW31246   7.896  10.188   4.340
43138SOL    HW131247   7.900  10.176   4.435
43138SOL    HW231248   7.911  10.101   4.304
43139SOL     OW31249   0.661  13.040   4.018
43139SOL    HW131250   0.678  13.118   3.965
43139SOL    HW231251   0.639  13.074   4.105
43140SOL     OW31252   9.318   4.416   1.232
43140SOL    HW131253   9.332   4.437   1.324
43140SOL    HW231254   9.338   4.323   1.225
43141SOL     OW31255   2.116   5.441  14.679
43141SOL    HW131256   2.079   5.354  14.662
43141SOL    HW231257   2.058   5.479  14.744
43142SOL     OW31258   5.703   0.385   4.704
43142SOL    HW131259   5.655   0.466   4.686
43142SOL    HW231260   5.702   0.377   4.800
43143SOL     OW31261  14.152   5.979   6.010
43143SOL    HW131262  14.073   6.033   6.018
43143SOL    HW231263  14.125   5.907   5.953
43144SOL     OW31264   1.100  11.930   0.662
43144SOL    HW131265   1.057  11.949   0.745
43144SOL    HW231266   1.194  11.933   0.683
43145SOL     OW31267   4.641   5.702  13.170
43145SOL    HW131268   4.732   5.729  13.181
43145SOL    HW231269   4.597   5.778  13.133
43146SOL     OW31270   3.928   8.957   7.307
43146SOL    HW131271   3.929   8.975   7.213
43146SOL    HW231272   3.877   9.030   7.345
43147SOL     OW31273  13.374   9.447   4.444
43147SOL    HW131274  13.301   9.415   4.391
43147SOL    HW231275  13.335   9.517   4.497
43148SOL     OW31276   0.826  12.013   0.373
43148SOL    HW131277   0.818  12.033   0.280
43148SOL    HW231278   0.900  12.065   0.403
43149SOL     OW31279  10.447  14.812   9.675
43149SOL    HW131280  10.410  14.725   9.658
43149SOL    HW231281  10.376  14.873   9.657
43150SOL     OW31282  10.570   2.020   5.526
43150SOL    HW131283  10.597   2.093   5.470
43150SOL    HW231284  10.557   2.059   5.612
43151SOL     OW31285  12.540  14.783  10.756
43151SOL    HW131286  12.522  14.747  10.669
43151SOL    HW231287  12.621  14.739  10.783
43152SOL     OW31288   9.395  13.250   5.183
43152SOL    HW131289   9.325  13.291   5.233
43152SOL    HW231290   9.368  13.259   5.092
43153SOL     OW31291   0.654   5.127   8.936
43153SOL    HW131292   0.620   5.160   8.854
43153SOL    HW231293   0.682   5.205   8.984
43154SOL     OW31294   9.996   0.566   2.590
43154SOL    HW131295  10.090   0.556   2.604
43154SOL    HW231296   9.977   0.513   2.512
43155SOL     OW31297   7.106  14.494   8.325
43155SOL    HW131298   7.094  14.519   8.416
43155SOL    HW231299   7.117  14.576   8.278
43156SOL     OW31300  11.193   4.376   0.665
43156SOL    HW131301  11.168   4.447   0.724
43156SOL    HW231302  11.140   4.302   0.694
43157SOL     OW31303   4.395  14.682   4.846
43157SOL    HW131304   4.409  14.775   4.866
43157SOL    HW231305   4.339  14.683   4.768
43158SOL     OW31306  13.048  13.033   3.192
43158SOL    HW131307  12.990  13.021   3.268
43158SOL    HW231308  13.102  12.955   3.191
43159SOL     OW31309   9.076   9.750   4.915
43159SOL    HW131310   9.111   9.665   4.942
43159SOL    HW231311   8.994   9.759   4.964
43160SOL     OW31312  11.639   3.150   9.816
43160SOL    HW131313  11.688   3.103   9.884
43160SOL    HW231314  11.548   3.124   9.829
43161SOL     OW31315   0.554   5.794   9.891
43161SOL    HW131316   0.557   5.854   9.817
43161SOL    HW231317   0.625   5.821   9.948
43162SOL     OW31318  13.191   1.402   5.932
43162SOL    HW131319  13.254   1.417   5.862
43162SOL    HW231320  13.125   1.470   5.919
43163SOL     OW31321   9.545   3.875   4.264
43163SOL    HW131322   9.605   3.810   4.299
43163SOL    HW231323   9.599   3.929   4.206
43164SOL     OW31324  10.687   9.693   9.236
43164SOL    HW131325  10.661   9.697   9.144
43164SOL    HW231326  10.671   9.782   9.269
43165SOL     OW31327   4.265  11.921   0.161
43165SOL    HW131328   4.242  11.975   0.086
43165SOL    HW231329   4.256  11.979   0.236
43166SOL     OW31330  13.728   3.706   2.787
43166SOL    HW131331  13.713   3.648   2.861
43166SOL    HW231332  13.707   3.652   2.710
43167SOL     OW31333   7.850   5.421  10.590
43167SOL    HW131334   7.819   5.511  10.599
43167SOL    HW231335   7.785   5.368  10.638
43168SOL     OW31336   7.020   1.957  14.783
43168SOL    HW131337   7.037   1.915  14.699
43168SOL    HW231338   7.107   1.964  14.824
43169SOL     OW31339   4.799  10.000  14.034
43169SOL    HW131340   4.706   9.979  14.023
43169SOL    HW231341   4.827   9.947  14.108
43170SOL     OW31342  10.075  11.309  12.503
43170SOL    HW131343  10.046  11.261  12.581
43170SOL    HW231344  10.051  11.400  12.521
43171SOL     OW31345   8.801  14.056   4.489
43171SOL    HW131346   8.890  14.090   4.477
43171SOL    HW231347   8.801  13.971   4.444
43172SOL     OW31348  13.337   4.553   4.651
43172SOL    HW131349  13.251   4.538   4.611
43172SOL    HW231350  13.394   4.490   4.606
43173SOL     OW31351   5.871   0.302   7.150
43173SOL    HW131352   5.908   0.328   7.065
43173SOL    HW231353   5.891   0.209   7.156
43174SOL     OW31354  13.122   6.911  11.031
43174SOL    HW131355  13.099   6.983  11.089
43174SOL    HW231356  13.217   6.919  11.019
43175SOL     OW31357  12.397   7.843   8.107
43175SOL    HW131358  12.463   7.876   8.168
43175SOL    HW231359  12.431   7.866   8.021
43176SOL     OW31360   5.808   2.363  10.423
43176SOL    HW131361   5.789   2.297  10.490
43176SOL    HW231362   5.727   2.413  10.415
43177SOL     OW31363   3.825   7.203   0.614
43177SOL    HW131364   3.829   7.131   0.550
43177SOL    HW231365   3.731   7.221   0.622
43178SOL     OW31366   5.575  13.736  12.324
43178SOL    HW131367   5.516  13.757  12.396
43178SOL    HW231368   5.565  13.807  12.261
43179SOL     OW31369   9.312  10.022  13.481
43179SOL    HW131370   9.334   9.959  13.549
43179SOL    HW231371   9.389  10.078  13.473
43180SOL     OW31372   0.028   2.568   1.903
43180SOL    HW131373  14.875   2.515   1.977
43180SOL    HW231374  14.834   2.627   1.884
43181SOL     OW31375  14.531   2.502   8.145
43181SOL    HW131376  14.450   2.453   8.132
43181SOL    HW231377  14.509   2.593   8.124
43182SOL     OW31378   3.651   7.193  13.950
43182SOL    HW131379   3.636   7.264  13.888
43182SOL    HW231380   3.741   7.205  13.979
43183SOL     OW31381   1.233   6.370   5.365
43183SOL    HW131382   1.207   6.447   5.414
43183SOL    HW231383   1.175   6.370   5.288
43184SOL     OW31384   9.290   0.454  13.996
43184SOL    HW131385   9.283   0.549  14.003
43184SOL    HW231386   9.384   0.437  13.996
43185SOL     OW31387   9.587   9.178  10.825
43185SOL    HW131388   9.523   9.112  10.852
43185SOL    HW231389   9.568   9.192  10.732
43186SOL     OW31390   8.670  11.858   3.993
43186SOL    HW131391   8.610  11.889   4.061
43186SOL    HW231392   8.731  11.930   3.980
43187SOL     OW31393   2.466  10.441   6.104
43187SOL    HW131394   2.419  10.405   6.029
43187SOL    HW231395   2.423  10.525   6.121
43188SOL     OW31396   8.118   9.741   7.283
43188SOL    HW131397   8.188   9.689   7.243
43188SOL    HW231398   8.059   9.677   7.321
43189SOL     OW31399   0.014   5.800  11.305
43189SOL    HW131400  14.808   5.806  11.261
43189SOL    HW231401   0.030   5.706  11.315
43190SOL     OW31402  14.524   9.533   9.577
43190SOL    HW131403  14.491   9.466   9.517
43190SOL    HW231404  14.452   9.596   9.584
43191SOL     OW31405   3.801  12.297   3.847
43191SOL    HW131406   3.824  12.236   3.917
43191SOL    HW231407   3.817  12.249   3.766
43192SOL     OW31408  13.336   8.210  10.012
43192SOL    HW131409  13.409   8.272  10.012
43192SOL    HW231410  13.372   8.131   9.971
43193SOL     OW31411   6.526   6.282   9.374
43193SOL    HW131412   6.612   6.314   9.347
43193SOL    HW231413   6.541   6.240   9.458
43194SOL     OW31414  13.566   5.873   2.390
43194SOL    HW131415  13.533   5.950   2.344
43194SOL    HW231416  13.604   5.908   2.470
43195SOL     OW31417   2.269  14.509   4.429
43195SOL    HW131418   2.321  14.532   4.506
43195SOL    HW231419   2.290  14.578   4.365
43196SOL     OW31420  12.756   4.645   5.015
43196SOL    HW131421  12.804   4.686   5.087
43196SOL    HW231422  12.703   4.577   5.058
43197SOL     OW31423   8.248  10.093   5.694
43197SOL    HW131424   8.192  10.136   5.630
43197SOL    HW231425   8.241  10.000   5.675
43198SOL     OW31426   3.186  10.561  13.667
43198SOL    HW131427   3.143  10.586  13.749
43198SOL    HW231428   3.206  10.468  13.678
43199SOL     OW31429   3.610   0.503   9.435
43199SOL    HW131430   3.574   0.514   9.523
43199SOL    HW231431   3.643   0.413   9.433
43200SOL     OW31432   4.080   3.508   3.242
43200SOL    HW131433   4.066   3.444   3.312
43200SOL    HW231434   4.147   3.567   3.277
43201SOL     OW31435  10.048  11.458   4.252
43201SOL    HW131436  10.028  11.399   4.180
43201SOL    HW231437   9.964  11.498   4.275
43202SOL     OW31438   7.188   6.030  14.562
43202SOL    HW131439   7.223   5.945  14.588
43202SOL    HW231440   7.211   6.088  14.635
43203SOL     OW31441   8.463   2.595   8.127
43203SOL    HW131442   8.504   2.547   8.200
43203SOL    HW231443   8.451   2.528   8.059
43204SOL     OW31444   5.191   6.018   1.813
43204SOL    HW131445   5.252   6.089   1.836
43204SOL    HW231446   5.109   6.043   1.855
43205SOL     OW31447   6.271  12.989  10.532
43205SOL    HW131448   6.291  12.897  10.549
43205SOL    HW231449   6.273  13.031  10.618
43206SOL     OW31450   3.034   2.531   5.271
43206SOL    HW131451   3.124   2.521   5.300
43206SOL    HW231452   3.019   2.458   5.211
43207SOL     OW31453   5.822  13.594   7.377
43207SOL    HW131454   5.875  13.590   7.297
43207SOL    HW231455   5.830  13.507   7.416
43208SOL     OW31456   2.379  13.124  12.195
43208SOL    HW131457   2.335  13.068  12.260
43208SOL    HW231458   2.335  13.209  12.203
43209SOL     OW31459  11.454   5.506  12.848
43209SOL    HW131460  11.519   5.574  12.866
43209SOL    HW231461  11.460   5.447  12.924
43210SOL     OW31462  13.576   6.378  13.539
43210SOL    HW131463  13.508   6.313  13.558
43210SOL    HW231464  13.532   6.441  13.482
43211SOL     OW31465   9.900  12.172  12.409
43211SOL    HW131466   9.884  12.126  12.492
43211SOL    HW231467   9.842  12.248  12.413
43212SOL     OW31468  10.701   4.409   1.577
43212SOL    HW131469  10.648   4.479   1.613
43212SOL    HW231470  10.687   4.414   1.482
43213SOL     OW31471   4.230   4.404   8.509
43213SOL    HW131472   4.193   4.492   8.507
43213SOL    HW231473   4.199   4.363   8.429
43214SOL     OW31474  14.584  10.280   5.220
43214SOL    HW131475  14.525  10.314   5.287
43214SOL    HW231476  14.606  10.191   5.250
43215SOL     OW31477   8.837   2.592   1.130
43215SOL    HW131478   8.863   2.674   1.171
43215SOL    HW231479   8.908   2.573   1.067
43216SOL     OW31480  12.302  11.472   9.299
43216SOL    HW131481  12.315  11.402   9.234
43216SOL    HW231482  12.360  11.542   9.270
43217SOL     OW31483   8.598   0.773   0.929
43217SOL    HW131484   8.652   0.851   0.915
43217SOL    HW231485   8.626   0.712   0.862
43218SOL     OW31486   3.565  13.714   7.775
43218SOL    HW131487   3.483  13.683   7.736
43218SOL    HW231488   3.566  13.675   7.862
43219SOL     OW31489  13.689   5.697   5.767
43219SOL    HW131490  13.772   5.731   5.733
43219SOL    HW231491  13.699   5.602   5.764
43220SOL     OW31492  12.953   7.224   6.954
43220SOL    HW131493  13.007   7.286   6.904
43220SOL    HW231494  12.863   7.247   6.930
43221SOL     OW31495  12.083  13.778   3.625
43221SOL    HW131496  12.075  13.814   3.536
43221SOL    HW231497  12.012  13.821   3.674
43222SOL     OW31498  10.083  14.561  13.436
43222SOL    HW131499  10.165  14.514  13.425
43222SOL    HW231500  10.106  14.640  13.485
43223SOL     OW31501  13.563  10.329   1.415
43223SOL    HW131502  13.583  10.282   1.496
43223SOL    HW231503  13.514  10.266   1.362
43224SOL     OW31504  14.439  10.529   3.145
43224SOL    HW131505  14.525  10.493   3.123
43224SOL    HW231506  14.458  10.601   3.205
43225SOL     OW31507  11.839  14.049   7.003
43225SOL    HW131508  11.832  14.085   6.915
43225SOL    HW231509  11.933  14.051   7.023
43226SOL     OW31510   5.110   2.850   8.870
43226SOL    HW131511   5.078   2.863   8.780
43226SOL    HW231512   5.092   2.757   8.888
43227SOL     OW31513   7.993   8.035   6.669
43227SOL    HW131514   8.018   7.965   6.730
43227SOL    HW231515   7.905   8.061   6.697
43228SOL     OW31516  14.157   7.486   6.363
43228SOL    HW131517  14.222   7.483   6.292
43228SOL    HW231518  14.189   7.422   6.427
43229SOL     OW31519   0.460  10.435   3.789
43229SOL    HW131520   0.373  10.474   3.794
43229SOL    HW231521   0.518  10.502   3.825
43230SOL     OW31522   0.618   9.624   9.195
43230SOL    HW131523   0.539   9.599   9.147
43230SOL    HW231524   0.679   9.552   9.178
43231SOL     OW31525   6.029   4.231   0.011
43231SOL    HW131526   5.958   4.167   0.013
43231SOL    HW231527   6.046   4.245  14.797
43232SOL     OW31528   0.768  10.796  12.878
43232SOL    HW131529   0.765  10.797  12.973
43232SOL    HW231530   0.744  10.706  12.854
43233SOL     OW31531   7.701   6.967   5.624
43233SOL    HW131532   7.616   7.010   5.610
43233SOL    HW231533   7.762   7.039   5.637
43234SOL     OW31534  11.287  12.173   6.830
43234SOL    HW131535  11.240  12.255   6.850
43234SOL    HW231536  11.221  12.105   6.840
43235SOL     OW31537   7.358  14.537   6.009
43235SOL    HW131538   7.308  14.506   6.084
43235SOL    HW231539   7.292  14.556   5.943
43236SOL     OW31540  10.373   2.803  11.879
43236SOL    HW131541  10.449   2.855  11.903
43236SOL    HW231542  10.408   2.716  11.860
43237SOL     OW31543  11.243   1.989   6.567
43237SOL    HW131544  11.283   1.927   6.506
43237SOL    HW231545  11.170   2.028   6.518
43238SOL     OW31546   6.076   3.019   4.347
43238SOL    HW131547   6.108   3.009   4.257
43238SOL    HW231548   6.118   3.099   4.379
43239SOL     OW31549   5.764   6.348  10.020
43239SOL    HW131550   5.827   6.387   9.959
43239SOL    HW231551   5.806   6.358  10.106
43240SOL     OW31552   4.147   8.847  14.865
43240SOL    HW131553   4.073   8.892  14.826
43240SOL    HW231554   4.151   8.880   0.076
43241SOL     OW31555   5.810   5.510  13.759
43241SOL    HW131556   5.747   5.507  13.686
43241SOL    HW231557   5.836   5.419  13.772
43242SOL     OW31558   4.418   1.971   3.733
43242SOL    HW131559   4.345   1.950   3.675
43242SOL    HW231560   4.486   1.908   3.710
43243SOL     OW31561   5.379  11.042   7.128
43243SOL    HW131562   5.330  11.122   7.110
43243SOL    HW231563   5.397  11.046   7.222
43244SOL     OW31564  10.209   5.168   3.333
43244SOL    HW131565  10.282   5.159   3.271
43244SOL    HW231566  10.144   5.106   3.302
43245SOL     OW31567   2.385  14.757   3.839
43245SOL    HW131568   2.397  14.736   3.931
43245SOL    HW231569   2.462  14.809   3.816
43246SOL     OW31570   1.919  12.208   4.516
43246SOL    HW131571   1.905  12.114   4.508
43246SOL    HW231572   1.926  12.223   4.611
43247SOL     OW31573   7.165   0.747   8.141
43247SOL    HW131574   7.108   0.670   8.135
43247SOL    HW231575   7.232   0.722   8.204
43248SOL     OW31576   4.149  11.191   9.085
43248SOL    HW131577   4.209  11.264   9.098
43248SOL    HW231578   4.123  11.165   9.174
43249SOL     OW31579   7.735   5.100   4.158
43249SOL    HW131580   7.664   5.116   4.221
43249SOL    HW231581   7.780   5.023   4.192
43250SOL     OW31582   0.615   1.153   7.060
43250SOL    HW131583   0.585   1.084   7.119
43250SOL    HW231584   0.710   1.148   7.063
43251SOL     OW31585   1.147   5.372  12.542
43251SOL    HW131586   1.141   5.467  12.530
43251SOL    HW231587   1.136   5.336  12.455
43252SOL     OW31588   3.479   7.034  12.051
43252SOL    HW131589   3.486   6.955  11.997
43252SOL    HW231590   3.501   7.106  11.992
43253SOL     OW31591   2.431  13.542  14.661
43253SOL    HW131592   2.435  13.530  14.756
43253SOL    HW231593   2.354  13.597  14.647
43254SOL     OW31594  14.665   6.048   2.467
43254SOL    HW131595  14.716   6.101   2.528
43254SOL    HW231596  14.606   6.110   2.425
43255SOL     OW31597   5.913  14.669   4.169
43255SOL    HW131598   6.003  14.694   4.150
43255SOL    HW231599   5.919  14.610   4.244
43256SOL     OW31600  13.833   0.289   3.864
43256SOL    HW131601  13.923   0.259   3.876
43256SOL    HW231602  13.836   0.343   3.785
43257SOL     OW31603   8.962  12.064  13.691
43257SOL    HW131604   8.986  11.988  13.639
43257SOL    HW231605   9.020  12.062  13.767
43258SOL     OW31606  12.185   8.773  14.514
43258SOL    HW131607  12.145   8.688  14.502
43258SOL    HW231608  12.112   8.835  14.516
43259SOL     OW31609   9.743  11.823  12.515
43259SOL    HW131610   9.796  11.871  12.579
43259SOL    HW231611   9.792  11.829  12.433
43260SOL     OW31612   5.846   3.360  13.254
43260SOL    HW131613   5.852   3.277  13.301
43260SOL    HW231614   5.909   3.352  13.182
43261SOL     OW31615   6.746   0.089   5.682
43261SOL    HW131616   6.736   0.034   5.759
43261SOL    HW231617   6.688   0.163   5.698
43262SOL     OW31618  10.005  12.970  13.096
43262SOL    HW131619  10.077  12.950  13.036
43262SOL    HW231620   9.967  12.885  13.117
43263SOL     OW31621  11.539  11.141  10.432
43263SOL    HW131622  11.518  11.048  10.438
43263SOL    HW231623  11.464  11.186  10.471
43264SOL     OW31624  12.831   9.245   1.230
43264SOL    HW131625  12.898   9.269   1.294
43264SOL    HW231626  12.844   9.307   1.158
43265SOL     OW31627   7.794   2.299   9.214
43265SOL    HW131628   7.839   2.378   9.183
43265SOL    HW231629   7.792   2.308   9.310
43266SOL     OW31630  13.124   4.494   5.179
43266SOL    HW131631  13.202   4.463   5.225
43266SOL    HW231632  13.055   4.492   5.245
43267SOL     OW31633   4.870  12.552  13.542
43267SOL    HW131634   4.873  12.501  13.623
43267SOL    HW231635   4.917  12.497  13.479
43268SOL     OW31636  13.929  12.078   5.666
43268SOL    HW131637  13.894  11.990   5.679
43268SOL    HW231638  13.888  12.107   5.584
43269SOL     OW31639   8.168   4.334  14.258
43269SOL    HW131640   8.087   4.304  14.301
43269SOL    HW231641   8.202   4.255  14.214
43270SOL     OW31642   2.605   0.035   3.731
43270SOL    HW131643   2.656   0.074   3.660
43270SOL    HW231644   2.621   0.092   3.806
43271SOL     OW31645  12.757  11.895   7.846
43271SOL    HW131646  12.693  11.851   7.902
43271SOL    HW231647  12.818  11.935   7.908
43272SOL     OW31648   9.204   1.834   5.542
43272SOL    HW131649   9.226   1.820   5.450
43272SOL    HW231650   9.146   1.761   5.565
43273SOL     OW31651   8.953  11.121   8.415
43273SOL    HW131652   8.949  11.080   8.328
43273SOL    HW231653   9.008  11.198   8.403
43274SOL     OW31654  13.791   7.048   3.136
43274SOL    HW131655  13.759   6.980   3.077
43274SOL    HW231656  13.823   7.117   3.079
43275SOL     OW31657   1.533   0.951  13.230
43275SOL    HW131658   1.493   0.981  13.148
43275SOL    HW231659   1.482   0.994  13.298
43276SOL     OW31660   1.074  10.935   6.460
43276SOL    HW131661   1.077  10.970   6.549
43276SOL    HW231662   0.999  10.875   6.461
43277SOL     OW31663  14.091   4.579   0.920
43277SOL    HW131664  14.034   4.510   0.954
43277SOL    HW231665  14.132   4.616   0.999
43278SOL     OW31666   0.032   0.518   7.856
43278SOL    HW131667  14.815   0.518   7.848
43278SOL    HW231668   0.061   0.447   7.798
43279SOL     OW31669   3.824  13.178   1.225
43279SOL    HW131670   3.740  13.156   1.184
43279SOL    HW231671   3.800  13.238   1.296
43280SOL     OW31672   0.358  12.293   5.138
43280SOL    HW131673   0.328  12.374   5.180
43280SOL    HW231674   0.303  12.224   5.175
43281SOL     OW31675   9.643   2.074   9.744
43281SOL    HW131676   9.668   2.147   9.801
43281SOL    HW231677   9.548   2.065   9.756
43282SOL     OW31678   2.910  12.272   7.110
43282SOL    HW131679   2.830  12.243   7.065
43282SOL    HW231680   2.888  12.359   7.144
43283SOL     OW31681  10.269   7.106   3.807
43283SOL    HW131682  10.270   7.189   3.760
43283SOL    HW231683  10.235   7.043   3.744
43284SOL     OW31684   4.522   1.822   8.653
43284SOL    HW131685   4.609   1.785   8.637
43284SOL    HW231686   4.490   1.846   8.566
43285SOL     OW31687  11.785  13.418  14.845
43285SOL    HW131688  11.781  13.455   0.054
43285SOL    HW231689  11.869  13.448  14.810
43286SOL     OW31690   3.074   3.778   6.493
43286SOL    HW131691   3.148   3.775   6.433
43286SOL    HW231692   3.111   3.751   6.577
43287SOL     OW31693   9.112  14.564  11.387
43287SOL    HW131694   9.036  14.509  11.404
43287SOL    HW231695   9.112  14.577  11.292
43288SOL     OW31696   5.032  13.044  13.797
43288SOL    HW131697   4.960  13.091  13.755
43288SOL    HW231698   5.046  12.967  13.742
43289SOL     OW31699   5.339   4.747  10.454
43289SOL    HW131700   5.429   4.744  10.422
43289SOL    HW231701   5.291   4.794  10.387
43290SOL     OW31702   3.950   2.016   2.152
43290SOL    HW131703   3.884   2.027   2.221
43290SOL    HW231704   4.006   1.945   2.184
43291SOL     OW31705  14.183   9.911   9.792
43291SOL    HW131706  14.188   9.866   9.876
43291SOL    HW231707  14.099   9.883   9.754
43292SOL     OW31708   3.531   5.327   1.805
43292SOL    HW131709   3.541   5.420   1.787
43292SOL    HW231710   3.501   5.289   1.723
43293SOL     OW31711   8.490   2.140  11.419
43293SOL    HW131712   8.554   2.070  11.434
43293SOL    HW231713   8.511   2.207  11.484
43294SOL     OW31714  11.688   6.698   1.946
43294SOL    HW131715  11.647   6.641   1.881
43294SOL    HW231716  11.647   6.783   1.933
43295SOL     OW31717   4.010   4.088   8.516
43295SOL    HW131718   3.986   4.016   8.458
43295SOL    HW231719   4.090   4.059   8.559
43296SOL     OW31720   0.476  13.208   2.808
43296SOL    HW131721   0.422  13.263   2.751
43296SOL    HW231722   0.499  13.266   2.881
43297SOL     OW31723   2.254  14.304  10.656
43297SOL    HW131724   2.183  14.368  10.662
43297SOL    HW231725   2.299  14.327  10.574
43298SOL     OW31726  13.977   9.188   0.738
43298SOL    HW131727  13.986   9.283   0.731
43298SOL    HW231728  13.896   9.175   0.787
43299SOL     OW31729  14.681   1.339   3.736
43299SOL    HW131730  14.671   1.327   3.830
43299SOL    HW231731  14.716   1.256   3.704
43300SOL     OW31732  14.173   2.119   9.726
43300SOL    HW131733  14.134   2.034   9.705
43300SOL    HW231734  14.097   2.176   9.742
43301SOL     OW31735   0.374   5.417   3.952
43301SOL    HW131736   0.459   5.410   3.996
43301SOL    HW231737   0.328   5.486   4.000
43302SOL     OW31738   4.268  12.541  13.509
43302SOL    HW131739   4.223  12.460  13.532
43302SOL    HW231740   4.345  12.513  13.460
43303SOL     OW31741   2.614   5.401  12.452
43303SOL    HW131742   2.661   5.338  12.398
43303SOL    HW231743   2.616   5.365  12.540
43304SOL     OW31744  12.676   9.493   4.323
43304SOL    HW131745  12.589   9.512   4.288
43304SOL    HW231746  12.712   9.578   4.345
43305SOL     OW31747   3.493   0.530   0.023
43305SOL    HW131748   3.514   0.437   0.036
43305SOL    HW231749   3.411   0.528  14.851
43306SOL     OW31750   9.978  13.476  13.249
43306SOL    HW131751   9.998  13.526  13.328
43306SOL    HW231752   9.917  13.408  13.278
43307SOL     OW31753   2.085   3.470  13.767
43307SOL    HW131754   2.031   3.507  13.837
43307SOL    HW231755   2.069   3.376  13.772
43308SOL     OW31756  14.817   7.530   0.581
43308SOL    HW131757  14.753   7.556   0.514
43308SOL    HW231758  14.779   7.452   0.622
43309SOL     OW31759   4.143  13.896  14.418
43309SOL    HW131760   4.133  13.841  14.496
43309SOL    HW231761   4.219  13.859  14.372
43310SOL     OW31762   0.055  12.250   7.672
43310SOL    HW131763   0.098  12.182   7.724
43310SOL    HW231764  14.844  12.253   7.706
43311SOL     OW31765   1.963  12.258   8.828
43311SOL    HW131766   2.008  12.181   8.862
43311SOL    HW231767   2.032  12.308   8.784
43312SOL     OW31768   6.496   2.672   0.036
43312SOL    HW131769   6.569   2.730   0.012
43312SOL    HW231770   6.532   2.612   0.100
43313SOL     OW31771   1.768   3.209   0.165
43313SOL    HW131772   1.830   3.168   0.225
43313SOL    HW231773   1.820   3.230   0.088
43314SOL     OW31774   4.858   7.529  11.682
43314SOL    HW131775   4.840   7.564  11.594
43314SOL    HW231776   4.865   7.607  11.737
43315SOL     OW31777   9.856   6.408   0.983
43315SOL    HW131778   9.861   6.436   0.891
43315SOL    HW231779   9.770   6.438   1.012
43316SOL     OW31780   1.354  14.643  14.322
43316SOL    HW131781   1.373  14.688  14.239
43316SOL    HW231782   1.259  14.643  14.328
43317SOL     OW31783  12.905  13.382  10.894
43317SOL    HW131784  12.985  13.431  10.911
43317SOL    HW231785  12.925  13.293  10.923
43318SOL     OW31786   5.896  11.253   0.641
43318SOL    HW131787   5.914  11.244   0.735
43318SOL    HW231788   5.978  11.285   0.604
43319SOL     OW31789  14.660   2.120   4.794
43319SOL    HW131790  14.638   2.081   4.710
43319SOL    HW231791  14.719   2.057   4.835
43320SOL     OW31792   0.322  12.448   7.861
43320SOL    HW131793   0.414  12.471   7.849
43320SOL    HW231794   0.284  12.457   7.773
43321SOL     OW31795  10.064  13.220   6.459
43321SOL    HW131796  10.000  13.291   6.466
43321SOL    HW231797  10.146  13.259   6.489
43322SOL     OW31798   6.180   1.601  13.671
43322SOL    HW131799   6.121   1.605  13.747
43322SOL    HW231800   6.244   1.533  13.694
43323SOL     OW31801   9.906   5.254   1.619
43323SOL    HW131802   9.821   5.276   1.657
43323SOL    HW231803   9.948   5.198   1.684
43324SOL     OW31804  11.669   0.526   2.275
43324SOL    HW131805  11.672   0.594   2.208
43324SOL    HW231806  11.747   0.542   2.329
43325SOL     OW31807   3.820   5.619   1.774
43325SOL    HW131808   3.912   5.645   1.775
43325SOL    HW231809   3.821   5.528   1.744
43326SOL     OW31810  11.368   8.764  13.878
43326SOL    HW131811  11.437   8.809  13.829
43326SOL    HW231812  11.313   8.834  13.912
43327SOL     OW31813   7.322   9.328   6.165
43327SOL    HW131814   7.293   9.413   6.198
43327SOL    HW231815   7.253   9.267   6.189
43328SOL     OW31816  12.036   9.111   6.351
43328SOL    HW131817  11.943   9.103   6.376
43328SOL    HW231818  12.081   9.046   6.406
43329SOL     OW31819   1.256  14.473   8.737
43329SOL    HW131820   1.254  14.398   8.797
43329SOL    HW231821   1.183  14.458   8.677
43330SOL     OW31822   9.655   2.355   7.916
43330SOL    HW131823   9.623   2.414   7.984
43330SOL    HW231824   9.640   2.402   7.834
43331SOL     OW31825   5.709   4.872  12.008
43331SOL    HW131826   5.622   4.857  11.970
43331SOL    HW231827   5.695   4.939  12.075
43332SOL     OW31828   7.934  13.370   8.856
43332SOL    HW131829   7.983  13.405   8.931
43332SOL    HW231830   7.884  13.297   8.893
43333SOL     OW31831  10.765  14.638   1.124
43333SOL    HW131832  10.684  14.633   1.176
43333SOL    HW231833  10.834  14.608   1.183
43334SOL     OW31834   6.141   8.005   3.861
43334SOL    HW131835   6.091   7.928   3.837
43334SOL    HW231836   6.087   8.079   3.834
43335SOL     OW31837   7.594   3.002  10.790
43335SOL    HW131838   7.613   3.075  10.848
43335SOL    HW231839   7.537   3.038  10.723
43336SOL     OW31840  13.864   8.813   4.570
43336SOL    HW131841  13.893   8.870   4.499
43336SOL    HW231842  13.906   8.729   4.553
43337SOL     OW31843   5.414   2.289   2.729
43337SOL    HW131844   5.441   2.316   2.641
43337SOL    HW231845   5.331   2.333   2.744
43338SOL     OW31846   9.740  11.087  11.917
43338SOL    HW131847   9.705  11.057  12.001
43338SOL    HW231848   9.677  11.056  11.852
43339SOL     OW31849   4.833  10.627  13.747
43339SOL    HW131850   4.778  10.669  13.681
43339SOL    HW231851   4.865  10.547  13.704
43340SOL     OW31852  12.644   5.173   4.210
43340SOL    HW131853  12.596   5.253   4.191
43340SOL    HW231854  12.660   5.133   4.125
43341SOL     OW31855   1.686   0.365  12.054
43341SOL    HW131856   1.746   0.300  12.091
43341SOL    HW231857   1.727   0.449  12.072
43342SOL     OW31858  12.171   2.510   4.046
43342SOL    HW131859  12.187   2.579   4.110
43342SOL    HW231860  12.076   2.503   4.041
43343SOL     OW31861   2.143  11.621   2.794
43343SOL    HW131862   2.119  11.564   2.721
43343SOL    HW231863   2.165  11.705   2.753
43344SOL     OW31864   6.042  13.252   6.882
43344SOL    HW131865   6.073  13.183   6.941
43344SOL    HW231866   6.048  13.213   6.794
43345SOL     OW31867   5.900   3.412   5.649
43345SOL    HW131868   5.862   3.456   5.725
43345SOL    HW231869   5.994   3.412   5.667
43346SOL     OW31870   1.998   3.974   7.328
43346SOL    HW131871   2.021   4.043   7.389
43346SOL    HW231872   2.038   4.001   7.245
43347SOL     OW31873  10.798  10.741   3.473
43347SOL    HW131874  10.756  10.655   3.481
43347SOL    HW231875  10.890  10.725   3.494
43348SOL     OW31876   4.313   0.515   1.867
43348SOL    HW131877   4.246   0.583   1.857
43348SOL    HW231878   4.266   0.439   1.900
43349SOL     OW31879   7.025   4.811   1.522
43349SOL    HW131880   6.977   4.857   1.453
43349SOL    HW231881   7.072   4.742   1.476
43350SOL     OW31882   6.258   0.625   3.051
43350SOL    HW131883   6.241   0.561   2.981
43350SOL    HW231884   6.186   0.688   3.044
43351SOL     OW31885   5.741   7.239  14.303
43351SOL    HW131886   5.660   7.290  14.307
43351SOL    HW231887   5.716   7.158  14.259
43352SOL     OW31888   4.020   7.831  11.572
43352SOL    HW131889   4.109   7.834  11.536
43352SOL    HW231890   4.021   7.759  11.634
43353SOL     OW31891   8.796   9.757  14.489
43353SOL    HW131892   8.777   9.671  14.524
43353SOL    HW231893   8.764   9.818  14.555
43354SOL     OW31894  11.515  14.173  10.795
43354SOL    HW131895  11.441  14.125  10.758
43354SOL    HW231896  11.492  14.265  10.782
43355SOL     OW31897  11.486   8.274  11.820
43355SOL    HW131898  11.495   8.271  11.915
43355SOL    HW231899  11.411   8.333  11.806
43356SOL     OW31900   3.020   9.304   0.515
43356SOL    HW131901   2.955   9.268   0.455
43356SOL    HW231902   3.099   9.252   0.499
43357SOL     OW31903   3.811   7.029   3.353
43357SOL    HW131904   3.770   6.969   3.291
43357SOL    HW231905   3.741   7.090   3.377
43358SOL     OW31906   4.537   4.176   1.365
43358SOL    HW131907   4.620   4.225   1.359
43358SOL    HW231908   4.518   4.172   1.459
43359SOL     OW31909   6.818  11.717   8.662
43359SOL    HW131910   6.736  11.731   8.708
43359SOL    HW231911   6.874  11.671   8.725
43360SOL     OW31912  12.342  10.370   9.058
43360SOL    HW131913  12.421  10.326   9.028
43360SOL    HW231914  12.279  10.299   9.073
43361SOL     OW31915   9.184  13.574  14.575
43361SOL    HW131916   9.128  13.497  14.580
43361SOL    HW231917   9.127  13.643  14.539
43362SOL     OW31918  11.909  12.587   1.221
43362SOL    HW131919  11.827  12.628   1.251
43362SOL    HW231920  11.951  12.557   1.302
43363SOL     OW31921  11.242  10.959   2.486
43363SOL    HW131922  11.257  11.020   2.414
43363SOL    HW231923  11.245  10.873   2.445
43364SOL     OW31924  10.675   9.190  14.834
43364SOL    HW131925  10.600   9.250  14.839
43364SOL    HW231926  10.747   9.245  14.804
43365SOL     OW31927  13.281   9.312   5.971
43365SOL    HW131928  13.247   9.349   6.052
43365SOL    HW231929  13.203   9.287   5.921
43366SOL     OW31930  10.759   0.970   6.612
43366SOL    HW131931  10.794   0.998   6.527
43366SOL    HW231932  10.833   0.927   6.655
43367SOL     OW31933  14.867  13.836  10.258
43367SOL    HW131934  14.872  13.895  10.333
43367SOL    HW231935  14.774  13.817  10.248
43368SOL     OW31936   4.280   0.305   2.378
43368SOL    HW131937   4.345   0.318   2.447
43368SOL    HW231938   4.277   0.388   2.331
43369SOL     OW31939   0.241   9.812  13.208
43369SOL    HW131940   0.169   9.851  13.158
43369SOL    HW231941   0.315   9.812  13.148
43370SOL     OW31942   3.485   0.788  14.118
43370SOL    HW131943   3.571   0.823  14.140
43370SOL    HW231944   3.448   0.852  14.058
43371SOL     OW31945  12.746  12.291   5.693
43371SOL    HW131946  12.800  12.263   5.767
43371SOL    HW231947  12.657  12.270   5.719
43372SOL     OW31948  11.272   4.242   8.305
43372SOL    HW131949  11.231   4.274   8.385
43372SOL    HW231950  11.213   4.270   8.235
43373SOL     OW31951  13.357  11.545  10.304
43373SOL    HW131952  13.281  11.574  10.355
43373SOL    HW231953  13.382  11.462  10.344
43374SOL     OW31954  10.635   9.628  11.320
43374SOL    HW131955  10.623   9.702  11.260
43374SOL    HW231956  10.554   9.578  11.313
43375SOL     OW31957  13.281   4.958   0.709
43375SOL    HW131958  13.231   5.040   0.713
43375SOL    HW231959  13.301   4.947   0.616
43376SOL     OW31960   3.068   2.245   5.491
43376SOL    HW131961   3.033   2.170   5.442
43376SOL    HW231962   3.048   2.321   5.436
43377SOL     OW31963   0.739  12.977   1.457
43377SOL    HW131964   0.682  12.927   1.398
43377SOL    HW231965   0.820  12.990   1.408
43378SOL     OW31966   8.604   3.200   5.677
43378SOL    HW131967   8.577   3.210   5.586
43378SOL    HW231968   8.629   3.288   5.705
43379SOL     OW31969  11.720   2.212   9.863
43379SOL    HW131970  11.719   2.160   9.943
43379SOL    HW231971  11.805   2.255   9.863
43380SOL     OW31972  10.067   3.046   5.526
43380SOL    HW131973  10.006   2.974   5.511
43380SOL    HW231974  10.021   3.103   5.588
43381SOL     OW31975   9.433   3.320   1.292
43381SOL    HW131976   9.405   3.287   1.207
43381SOL    HW231977   9.409   3.251   1.354
43382SOL     OW31978   6.290   3.723   8.892
43382SOL    HW131979   6.278   3.816   8.911
43382SOL    HW231980   6.297   3.683   8.979
43383SOL     OW31981  12.583  10.848   0.059
43383SOL    HW131982  12.495  10.882   0.075
43383SOL    HW231983  12.638  10.926   0.049
43384SOL     OW31984  10.516  11.124   4.178
43384SOL    HW131985  10.611  11.133   4.170
43384SOL    HW231986  10.498  11.140   4.270
43385SOL     OW31987   3.699  12.447   4.953
43385SOL    HW131988   3.684  12.513   5.021
43385SOL    HW231989   3.715  12.498   4.874
43386SOL     OW31990  14.045   4.257   4.649
43386SOL    HW131991  13.992   4.213   4.583
43386SOL    HW231992  14.134   4.225   4.634
43387SOL     OW31993   4.720   2.377   7.118
43387SOL    HW131994   4.790   2.365   7.183
43387SOL    HW231995   4.655   2.430   7.164
43388SOL     OW31996   8.647   8.445  10.683
43388SOL    HW131997   8.684   8.521  10.730
43388SOL    HW231998   8.668   8.462  10.591
43389SOL     OW31999   9.211   2.101   6.308
43389SOL    HW132000   9.168   2.026   6.268
43389SOL    HW232001   9.261   2.140   6.237
43390SOL     OW32002  13.844   9.222  14.362
43390SOL    HW132003  13.805   9.172  14.433
43390SOL    HW232004  13.938   9.205  14.369
43391SOL     OW32005   3.656  11.155  12.380
43391SOL    HW132006   3.737  11.107  12.365
43391SOL    HW232007   3.618  11.167  12.293
43392SOL     OW32008  13.140   9.605   5.642
43392SOL    HW132009  13.090   9.573   5.566
43392SOL    HW232010  13.226   9.563   5.633
43393SOL     OW32011   0.767   7.537   1.246
43393SOL    HW132012   0.756   7.453   1.290
43393SOL    HW232013   0.706   7.534   1.173
43394SOL     OW32014   8.611   1.079   9.388
43394SOL    HW132015   8.535   1.113   9.341
43394SOL    HW232016   8.577   1.008   9.442
43395SOL     OW32017   4.204  13.336  11.796
43395SOL    HW132018   4.148  13.357  11.870
43395SOL    HW232019   4.292  13.361  11.824
43396SOL     OW32020   6.934  12.152  14.485
43396SOL    HW132021   6.896  12.066  14.502
43396SOL    HW232022   7.024  12.146  14.518
43397SOL     OW32023   6.335   5.415   6.478
43397SOL    HW132024   6.333   5.434   6.384
43397SOL    HW232025   6.399   5.344   6.487
43398SOL     OW32026   1.614  14.543  11.859
43398SOL    HW132027   1.636  14.529  11.951
43398SOL    HW232028   1.694  14.518  11.812
43399SOL     OW32029  14.084  13.670  11.920
43399SOL    HW132030  14.145  13.627  11.860
43399SOL    HW232031  14.002  13.676  11.871
43400SOL     OW32032   0.795   6.399   9.484
43400SOL    HW132033   0.777   6.316   9.440
43400SOL    HW232034   0.847   6.449   9.421
43401SOL     OW32035  10.494   7.526   5.261
43401SOL    HW132036  10.539   7.451   5.223
43401SOL    HW232037  10.527   7.531   5.351
43402SOL     OW32038   7.829  10.191   9.826
43402SOL    HW132039   7.740  10.225   9.837
43402SOL    HW232040   7.886  10.264   9.851
43403SOL     OW32041   2.450   5.485   2.009
43403SOL    HW132042   2.434   5.416   2.073
43403SOL    HW232043   2.369   5.536   2.008
43404SOL     OW32044  13.058   8.160   4.778
43404SOL    HW132045  13.026   8.206   4.700
43404SOL    HW232046  13.001   8.191   4.848
43405SOL     OW32047   9.384  13.051  11.779
43405SOL    HW132048   9.409  12.959  11.788
43405SOL    HW232049   9.463  13.100  11.802
43406SOL     OW32050  10.243   8.985   8.798
43406SOL    HW132051  10.225   8.892   8.800
43406SOL    HW232052  10.297   8.998   8.719
43407SOL     OW32053  13.911   2.929  14.788
43407SOL    HW132054  13.863   2.987  14.729
43407SOL    HW232055  13.855   2.921  14.865
43408SOL     OW32056   0.125   0.814  14.135
43408SOL    HW132057   0.049   0.760  14.156
43408SOL    HW232058   0.088   0.890  14.089
43409SOL     OW32059  11.865   1.923   7.342
43409SOL    HW132060  11.896   1.953   7.257
43409SOL    HW232061  11.910   1.979   7.405
43410SOL     OW32062   0.500  11.550  11.797
43410SOL    HW132063   0.433  11.516  11.857
43410SOL    HW232064   0.457  11.553  11.712
43411SOL     OW32065  12.639   1.070   0.944
43411SOL    HW132066  12.709   1.094   0.883
43411SOL    HW232067  12.662   0.982   0.974
43412SOL     OW32068   5.405  10.080   4.245
43412SOL    HW132069   5.357  10.131   4.180
43412SOL    HW232070   5.489  10.059   4.204
43413SOL     OW32071  11.939   2.965   3.436
43413SOL    HW132072  11.992   2.886   3.450
43413SOL    HW232073  11.853   2.932   3.409
43414SOL     OW32074   8.793   0.163   9.181
43414SOL    HW132075   8.828   0.244   9.217
43414SOL    HW232076   8.848   0.094   9.218
43415SOL     OW32077   4.686   6.600   4.514
43415SOL    HW132078   4.716   6.593   4.424
43415SOL    HW232079   4.654   6.689   4.523
43416SOL     OW32080   6.692   3.775   5.185
43416SOL    HW132081   6.783   3.806   5.177
43416SOL    HW232082   6.639   3.855   5.182
43417SOL     OW32083   6.925  11.457  14.666
43417SOL    HW132084   6.850  11.451  14.606
43417SOL    HW232085   6.900  11.404  14.741
43418SOL     OW32086  14.682   7.112   9.469
43418SOL    HW132087  14.698   7.141   9.558
43418SOL    HW232088  14.617   7.043   9.478
43419SOL     OW32089   5.127   5.619  12.057
43419SOL    HW132090   5.062   5.570  12.107
43419SOL    HW232091   5.078   5.691  12.018
43420SOL     OW32092   7.445  10.086   9.719
43420SOL    HW132093   7.500  10.118   9.791
43420SOL    HW232094   7.490  10.116   9.640
43421SOL     OW32095   2.393  11.170  11.710
43421SOL    HW132096   2.457  11.238  11.691
43421SOL    HW232097   2.309  11.216  11.710
43422SOL     OW32098   4.004  14.357   9.196
43422SOL    HW132099   3.947  14.371   9.121
43422SOL    HW232100   3.957  14.395   9.270
43423SOL     OW32101  10.878   7.346   4.884
43423SOL    HW132102  10.871   7.413   4.816
43423SOL    HW232103  10.951   7.375   4.939
43424SOL     OW32104   4.774  10.892   1.797
43424SOL    HW132105   4.858  10.919   1.833
43424SOL    HW232106   4.793  10.813   1.748
43425SOL     OW32107   9.641  10.823   1.795
43425SOL    HW132108   9.556  10.860   1.822
43425SOL    HW232109   9.676  10.783   1.875
43426SOL     OW32110  13.177  12.744   0.671
43426SOL    HW132111  13.269  12.757   0.648
43426SOL    HW232112  13.129  12.771   0.593
43427SOL     OW32113   3.328   5.311  13.824
43427SOL    HW132114   3.404   5.359  13.856
43427SOL    HW232115   3.263   5.379  13.804
43428SOL     OW32116   4.434  11.396  13.254
43428SOL    HW132117   4.377  11.473  13.249
43428SOL    HW232118   4.428  11.368  13.346
43429SOL     OW32119  12.541   2.813   9.981
43429SOL    HW132120  12.457   2.859   9.981
43429SOL    HW232121  12.581   2.836  10.065
43430SOL     OW32122  13.911   7.566   0.059
43430SOL    HW132123  13.959   7.484   0.050
43430SOL    HW232124  13.978   7.630   0.081
43431SOL     OW32125   1.584  10.836   5.795
43431SOL    HW132126   1.546  10.830   5.883
43431SOL    HW232127   1.654  10.900   5.803
43432SOL     OW32128  11.010   1.774   7.346
43432SOL    HW132129  10.954   1.808   7.416
43432SOL    HW232130  11.043   1.852   7.302
43433SOL     OW32131   9.262  14.399  10.692
43433SOL    HW132132   9.254  14.384  10.787
43433SOL    HW232133   9.241  14.492  10.681
43434SOL     OW32134   0.727   5.847  10.244
43434SOL    HW132135   0.725   5.876  10.152
43434SOL    HW232136   0.735   5.752  10.238
43435SOL     OW32137  12.640   4.964   9.826
43435SOL    HW132138  12.724   4.945   9.784
43435SOL    HW232139  12.586   5.001   9.756
43436SOL     OW32140   0.485   5.974  12.761
43436SOL    HW132141   0.546   5.934  12.824
43436SOL    HW232142   0.466   6.060  12.798
43437SOL     OW32143   2.993   3.576  12.294
43437SOL    HW132144   3.085   3.565  12.318
43437SOL    HW232145   2.974   3.504  12.235
43438SOL     OW32146  11.372   3.149   8.951
43438SOL    HW132147  11.342   3.238   8.932
43438SOL    HW232148  11.432   3.128   8.880
43439SOL     OW32149   1.028  13.231   8.465
43439SOL    HW132150   1.003  13.139   8.456
43439SOL    HW232151   1.079  13.234   8.546
43440SOL     OW32152   8.104   8.385   7.591
43440SOL    HW132153   8.023   8.358   7.548
43440SOL    HW232154   8.151   8.303   7.608
43441SOL     OW32155   7.394   0.019   3.005
43441SOL    HW132156   7.458  14.875   3.074
43441SOL    HW232157   7.379  14.816   2.959
43442SOL     OW32158  12.025   2.973  10.064
43442SOL    HW132159  12.019   3.069  10.057
43442SOL    HW232160  11.973   2.951  10.141
43443SOL     OW32161   1.822   6.392   2.137
43443SOL    HW132162   1.837   6.432   2.051
43443SOL    HW232163   1.767   6.455   2.183
43444SOL     OW32164  11.322   0.084  10.884
43444SOL    HW132165  11.367   0.018  10.831
43444SOL    HW232166  11.291   0.149  10.821
43445SOL     OW32167  13.365  13.980   6.440
43445SOL    HW132168  13.310  13.909   6.406
43445SOL    HW232169  13.455  13.953   6.419
43446SOL     OW32170   0.097   6.401  14.614
43446SOL    HW132171   0.142   6.484  14.600
43446SOL    HW232172   0.162   6.334  14.592
43447SOL     OW32173  12.362   2.149   9.109
43447SOL    HW132174  12.270   2.134   9.127
43447SOL    HW232175  12.398   2.180   9.192
43448SOL     OW32176   6.740   9.295   7.547
43448SOL    HW132177   6.782   9.276   7.631
43448SOL    HW232178   6.704   9.211   7.518
43449SOL     OW32179   2.501   3.248   7.880
43449SOL    HW132180   2.527   3.317   7.941
43449SOL    HW232181   2.406   3.252   7.877
43450SOL     OW32182   0.830   8.336   2.740
43450SOL    HW132183   0.752   8.319   2.793
43450SOL    HW232184   0.795   8.367   2.656
43451SOL     OW32185   5.782   7.454  13.836
43451SOL    HW132186   5.815   7.397  13.905
43451SOL    HW232187   5.690   7.467  13.858
43452SOL     OW32188  11.046   1.335  12.528
43452SOL    HW132189  11.105   1.405  12.501
43452SOL    HW232190  10.967   1.348  12.476
43453SOL     OW32191  14.749  11.079  14.580
43453SOL    HW132192  14.843  11.063  14.588
43453SOL    HW232193  14.734  11.082  14.485
43454SOL     OW32194  13.336  13.113   6.361
43454SOL    HW132195  13.335  13.148   6.450
43454SOL    HW232196  13.378  13.182   6.309
43455SOL     OW32197  13.998  11.546  10.965
43455SOL    HW132198  14.084  11.503  10.955
43455SOL    HW232199  13.937  11.473  10.974
43456SOL     OW32200   4.169  11.396   1.895
43456SOL    HW132201   4.140  11.456   1.963
43456SOL    HW232202   4.203  11.453   1.826
43457SOL     OW32203   0.537  13.278   5.976
43457SOL    HW132204   0.587  13.270   6.058
43457SOL    HW232205   0.449  13.249   5.999
43458SOL     OW32206   8.870   7.081   1.916
43458SOL    HW132207   8.844   6.989   1.923
43458SOL    HW232208   8.918   7.087   1.834
43459SOL     OW32209   3.205  14.672   5.651
43459SOL    HW132210   3.196  14.621   5.732
43459SOL    HW232211   3.142  14.744   5.661
43460SOL     OW32212   8.878  13.064  10.264
43460SOL    HW132213   8.945  13.021  10.211
43460SOL    HW232214   8.902  13.157  10.262
43461SOL     OW32215  12.194   3.474   0.421
43461SOL    HW132216  12.106   3.510   0.433
43461SOL    HW232217  12.181   3.381   0.407
43462SOL     OW32218   5.666   8.142   0.216
43462SOL    HW132219   5.615   8.061   0.217
43462SOL    HW232220   5.739   8.125   0.276
43463SOL     OW32221   9.641  14.026  14.328
43463SOL    HW132222   9.629  14.011  14.234
43463SOL    HW232223   9.554  14.050  14.359
43464SOL     OW32224  12.896   6.885  14.314
43464SOL    HW132225  12.895   6.885  14.410
43464SOL    HW232226  12.878   6.794  14.291
43465SOL     OW32227   7.318   2.822   1.604
43465SOL    HW132228   7.280   2.735   1.592
43465SOL    HW232229   7.310   2.839   1.698
43466SOL     OW32230  12.141   8.184   6.018
43466SOL    HW132231  12.104   8.172   6.106
43466SOL    HW232232  12.142   8.279   6.005
43467SOL     OW32233   7.921   2.289   7.369
43467SOL    HW132234   8.003   2.261   7.329
43467SOL    HW232235   7.915   2.239   7.450
43468SOL     OW32236   6.692   4.633  10.109
43468SOL    HW132237   6.731   4.550  10.133
43468SOL    HW232238   6.665   4.622  10.018
43469SOL     OW32239   5.861   9.795   0.181
43469SOL    HW132240   5.887   9.703   0.182
43469SOL    HW232241   5.915   9.834   0.112
43470SOL     OW32242   6.655   4.966  11.758
43470SOL    HW132243   6.578   5.016  11.730
43470SOL    HW232244   6.661   4.895  11.694
43471SOL     OW32245   1.117  11.509   5.102
43471SOL    HW132246   1.069  11.592   5.106
43471SOL    HW232247   1.117  11.485   5.009
43472SOL     OW32248  11.672   1.622  12.139
43472SOL    HW132249  11.754   1.587  12.174
43472SOL    HW232250  11.670   1.593  12.048
43473SOL     OW32251   0.626  13.150  11.699
43473SOL    HW132252   0.662  13.085  11.760
43473SOL    HW232253   0.681  13.142  11.621
43474SOL     OW32254  11.426  12.436  12.659
43474SOL    HW132255  11.399  12.501  12.723
43474SOL    HW232256  11.390  12.353  12.692
43475SOL     OW32257  14.590   0.251   8.917
43475SOL    HW132258  14.665   0.197   8.944
43475SOL    HW232259  14.622   0.300   8.842
43476SOL     OW32260  10.921  10.687   2.935
43476SOL    HW132261  10.982  10.613   2.945
43476SOL    HW232262  10.882  10.698   3.022
43477SOL     OW32263  13.743   4.983  10.949
43477SOL    HW132264  13.828   4.939  10.949
43477SOL    HW232265  13.710   4.974  11.038
43478SOL     OW32266   8.680   0.761   6.484
43478SOL    HW132267   8.660   0.818   6.410
43478SOL    HW232268   8.641   0.677   6.461
43479SOL     OW32269   1.206  11.330  11.169
43479SOL    HW132270   1.166  11.325  11.083
43479SOL    HW232271   1.170  11.256  11.217
43480SOL     OW32272   7.627  10.081  14.302
43480SOL    HW132273   7.629  10.112  14.211
43480SOL    HW232274   7.539  10.047  14.314
43481SOL     OW32275  12.474   4.335  11.149
43481SOL    HW132276  12.563   4.310  11.173
43481SOL    HW232277  12.421   4.308  11.223
43482SOL     OW32278   5.047   2.714   9.527
43482SOL    HW132279   5.136   2.748   9.519
43482SOL    HW232280   5.055   2.621   9.508
43483SOL     OW32281   7.527  14.174  14.019
43483SOL    HW132282   7.596  14.217  14.070
43483SOL    HW232283   7.445  14.204  14.058
43484SOL     OW32284   6.616  11.543   4.257
43484SOL    HW132285   6.604  11.471   4.319
43484SOL    HW232286   6.711  11.550   4.246
43485SOL     OW32287   6.372   1.806  14.689
43485SOL    HW132288   6.417   1.723  14.704
43485SOL    HW232289   6.438   1.872  14.707
43486SOL     OW32290  10.250  13.872   9.919
43486SOL    HW132291  10.299  13.806   9.969
43486SOL    HW232292  10.219  13.934   9.985
43487SOL     OW32293   1.058   7.389   5.349
43487SOL    HW132294   0.981   7.419   5.301
43487SOL    HW232295   1.027   7.380   5.440
43488SOL     OW32296   7.967  14.734   0.875
43488SOL    HW132297   7.903  14.803   0.859
43488SOL    HW232298   8.048  14.781   0.894
43489SOL     OW32299   4.883   6.293  10.563
43489SOL    HW132300   4.946   6.226  10.535
43489SOL    HW232301   4.864   6.270  10.654
43490SOL     OW32302  10.021   9.433   1.425
43490SOL    HW132303   9.938   9.423   1.472
43490SOL    HW232304  10.036   9.528   1.424
43491SOL     OW32305   3.581  14.785   0.240
43491SOL    HW132306   3.669  14.809   0.211
43491SOL    HW232307   3.580  14.690   0.235
43492SOL     OW32308   4.877  12.727   7.287
43492SOL    HW132309   4.798  12.674   7.283
43492SOL    HW232310   4.867  12.780   7.366
43493SOL     OW32311   0.482   8.181   6.213
43493SOL    HW132312   0.401   8.130   6.211
43493SOL    HW232313   0.549   8.122   6.178
43494SOL     OW32314   3.771  12.607   4.759
43494SOL    HW132315   3.705  12.661   4.801
43494SOL    HW232316   3.825  12.668   4.710
43495SOL     OW32317   9.127   5.927   7.208
43495SOL    HW132318   9.101   6.008   7.251
43495SOL    HW232319   9.157   5.954   7.121
43496SOL     OW32320   6.981   1.027   7.417
43496SOL    HW132321   7.068   1.049   7.448
43496SOL    HW232322   6.975   0.932   7.428
43497SOL     OW32323   6.549   7.696   1.287
43497SOL    HW132324   6.493   7.651   1.224
43497SOL    HW232325   6.493   7.762   1.327
43498SOL     OW32326   9.861  12.979   1.859
43498SOL    HW132327   9.774  12.951   1.831
43498SOL    HW232328   9.879  13.058   1.808
43499SOL     OW32329   1.877   0.965   8.235
43499SOL    HW132330   1.835   1.031   8.290
43499SOL    HW232331   1.905   1.013   8.157
43500SOL     OW32332   2.031  11.587  10.818
43500SOL    HW132333   2.027  11.504  10.865
43500SOL    HW232334   1.980  11.572  10.739
43501SOL     OW32335   5.476  13.599   9.201
43501SOL    HW132336   5.448  13.689   9.219
43501SOL    HW232337   5.490  13.561   9.288
43502SOL     OW32338  11.183   0.739   4.603
43502SOL    HW132339  11.093   0.759   4.578
43502SOL    HW232340  11.186   0.644   4.610
43503SOL     OW32341  13.068  12.674  12.785
43503SOL    HW132342  12.990  12.668  12.729
43503SOL    HW232343  13.136  12.708  12.726
43504SOL     OW32344   1.532  10.111   6.682
43504SOL    HW132345   1.593  10.082   6.614
43504SOL    HW232346   1.448  10.074   6.656
43505SOL     OW32347  10.549  10.498   7.717
43505SOL    HW132348  10.478  10.492   7.653
43505SOL    HW232349  10.612  10.559   7.678
43506SOL     OW32350   1.073  14.173  14.247
43506SOL    HW132351   1.040  14.143  14.162
43506SOL    HW232352   1.003  14.153  14.309
43507SOL     OW32353   8.347   8.345  13.024
43507SOL    HW132354   8.311   8.313  13.107
43507SOL    HW232355   8.375   8.434  13.042
43508SOL     OW32356   7.674   6.360   3.925
43508SOL    HW132357   7.745   6.418   3.897
43508SOL    HW232358   7.706   6.272   3.907
43509SOL     OW32359  14.246   1.271   7.384
43509SOL    HW132360  14.289   1.227   7.310
43509SOL    HW232361  14.233   1.201   7.449
43510SOL     OW32362  12.602  13.995   3.523
43510SOL    HW132363  12.563  13.917   3.484
43510SOL    HW232364  12.694  13.993   3.494
43511SOL     OW32365   8.105   8.236   5.659
43511SOL    HW132366   8.175   8.292   5.691
43511SOL    HW232367   8.030   8.256   5.714
43512SOL     OW32368  10.286   7.626   2.422
43512SOL    HW132369  10.193   7.604   2.418
43512SOL    HW232370  10.288   7.718   2.446
43513SOL     OW32371   0.514   3.386   2.339
43513SOL    HW132372   0.438   3.339   2.373
43513SOL    HW232373   0.543   3.334   2.264
43514SOL     OW32374  11.961   3.349   5.018
43514SOL    HW132375  11.976   3.339   5.112
43514SOL    HW232376  11.867   3.368   5.011
43515SOL     OW32377  14.673   9.211  13.236
43515SOL    HW132378  14.677   9.196  13.331
43515SOL    HW232379  14.720   9.294  13.224
43516SOL     OW32380   3.703  14.227   9.802
43516SOL    HW132381   3.753  14.231   9.884
43516SOL    HW232382   3.709  14.316   9.767
43517SOL     OW32383   4.486   0.090   1.938
43517SOL    HW132384   4.414   0.048   1.891
43517SOL    HW232385   4.543   0.018   1.964
43518SOL     OW32386  14.588  12.759   7.502
43518SOL    HW132387  14.504  12.759   7.547
43518SOL    HW232388  14.575  12.817   7.427
43519SOL     OW32389   5.770  11.922   1.546
43519SOL    HW132390   5.768  11.960   1.458
43519SOL    HW232391   5.681  11.936   1.580
43520SOL     OW32392   1.744   3.533   5.822
43520SOL    HW132393   1.793   3.494   5.894
43520SOL    HW232394   1.666   3.570   5.864
43521SOL     OW32395   1.949  14.694   9.100
43521SOL    HW132396   2.031  14.731   9.132
43521SOL    HW232397   1.937  14.733   9.013
43522SOL     OW32398  14.746  14.445   3.828
43522SOL    HW132399  14.789  14.484   3.752
43522SOL    HW232400  14.749  14.512   3.895
43523SOL     OW32401   9.381   0.616  14.649
43523SOL    HW132402   9.427   0.699  14.657
43523SOL    HW232403   9.359   0.609  14.556
43524SOL     OW32404   0.422   2.032  14.687
43524SOL    HW132405   0.389   2.089  14.618
43524SOL    HW232406   0.517   2.042  14.684
43525SOL     OW32407  10.630   1.427   9.078
43525SOL    HW132408  10.582   1.406   9.158
43525SOL    HW232409  10.595   1.512   9.051
43526SOL     OW32410  14.145   6.892  13.077
43526SOL    HW132411  14.144   6.944  13.158
43526SOL    HW232412  14.218   6.928  13.026
43527SOL     OW32413  10.495  10.098  11.653
43527SOL    HW132414  10.402  10.076  11.659
43527SOL    HW232415  10.533  10.062  11.734
43528SOL     OW32416  13.827   1.089   8.299
43528SOL    HW132417  13.804   1.005   8.259
43528SOL    HW232418  13.829   1.151   8.226
43529SOL     OW32419  13.447  11.405   0.069
43529SOL    HW132420  13.424  11.356   0.149
43529SOL    HW232421  13.377  11.384   0.007
43530SOL     OW32422   9.343   8.569   8.189
43530SOL    HW132423   9.264   8.622   8.192
43530SOL    HW232424   9.383   8.580   8.275
43531SOL     OW32425   6.122   3.302   4.417
43531SOL    HW132426   6.217   3.298   4.401
43531SOL    HW232427   6.114   3.346   4.502
43532SOL     OW32428  12.013  12.328   4.189
43532SOL    HW132429  12.048  12.381   4.260
43532SOL    HW232430  12.031  12.238   4.215
43533SOL     OW32431  13.771   5.661   4.472
43533SOL    HW132432  13.705   5.675   4.540
43533SOL    HW232433  13.760   5.735   4.412
43534SOL     OW32434  12.542   5.518  14.132
43534SOL    HW132435  12.516   5.439  14.180
43534SOL    HW232436  12.502   5.589  14.182
43535SOL     OW32437   1.264   9.475   4.690
43535SOL    HW132438   1.173   9.502   4.686
43535SOL    HW232439   1.312   9.554   4.713
43536SOL     OW32440   2.615  10.049  14.075
43536SOL    HW132441   2.606   9.957  14.050
43536SOL    HW232442   2.558  10.096  14.015
43537SOL     OW32443  11.888   7.930   9.786
43537SOL    HW132444  11.886   7.943   9.881
43537SOL    HW232445  11.869   7.837   9.775
43538SOL     OW32446   2.981   2.038   1.025
43538SOL    HW132447   3.021   1.980   0.961
43538SOL    HW232448   2.896   1.998   1.044
43539SOL     OW32449   6.193  14.699  13.185
43539SOL    HW132450   6.251  14.643  13.237
43539SOL    HW232451   6.118  14.715  13.242
43540SOL     OW32452  14.718   2.642  13.941
43540SOL    HW132453  14.799   2.591  13.952
43540SOL    HW232454  14.748   2.731  13.921
43541SOL     OW32455   3.886  10.104   3.956
43541SOL    HW132456   3.864  10.049   3.880
43541SOL    HW232457   3.981  10.092   3.966
43542SOL     OW32458  12.589   5.848  11.606
43542SOL    HW132459  12.504   5.855  11.562
43542SOL    HW232460  12.616   5.939  11.619
43543SOL     OW32461   2.447  11.641   0.330
43543SOL    HW132462   2.514  11.619   0.265
43543SOL    HW232463   2.365  11.614   0.288
43544SOL     OW32464   2.632   9.178   5.989
43544SOL    HW132465   2.680   9.107   6.031
43544SOL    HW232466   2.687   9.204   5.915
43545SOL     OW32467   5.065   9.618   6.074
43545SOL    HW132468   5.083   9.703   6.035
43545SOL    HW232469   5.101   9.555   6.012
43546SOL     OW32470   3.352  11.451  11.091
43546SOL    HW132471   3.438  11.493  11.085
43546SOL    HW232472   3.364  11.380  11.154
43547SOL     OW32473   6.622  11.377   0.385
43547SOL    HW132474   6.700  11.334   0.349
43547SOL    HW232475   6.598  11.324   0.461
43548SOL     OW32476  13.946   4.991  13.089
43548SOL    HW132477  13.984   4.908  13.062
43548SOL    HW232478  13.947   4.989  13.185
43549SOL     OW32479   0.112   4.992   4.325
43549SOL    HW132480   0.180   5.041   4.280
43549SOL    HW232481   0.061   4.952   4.255
43550SOL     OW32482  14.282   3.310   5.915
43550SOL    HW132483  14.218   3.274   5.855
43550SOL    HW232484  14.248   3.289   6.002
43551SOL     OW32485   3.141   8.563   8.984
43551SOL    HW132486   3.056   8.593   8.949
43551SOL    HW232487   3.139   8.468   8.973
43552SOL     OW32488   9.781   5.415   5.248
43552SOL    HW132489   9.836   5.387   5.175
43552SOL    HW232490   9.724   5.340   5.265
43553SOL     OW32491  13.088   9.998   8.272
43553SOL    HW132492  13.125   9.910   8.265
43553SOL    HW232493  12.996   9.983   8.291
43554SOL     OW32494   2.704   5.009   3.714
43554SOL    HW132495   2.619   4.967   3.700
43554SOL    HW232496   2.687   5.102   3.698
43555SOL     OW32497   5.646  13.007   8.750
43555SOL    HW132498   5.625  12.913   8.748
43555SOL    HW232499   5.689  13.020   8.834
43556SOL     OW32500   5.486   4.803  13.044
43556SOL    HW132501   5.489   4.723  12.992
43556SOL    HW232502   5.496   4.874  12.980
43557SOL     OW32503  14.491  10.914   8.364
43557SOL    HW132504  14.461  10.988   8.417
43557SOL    HW232505  14.411  10.865   8.344
43558SOL     OW32506  12.832  14.354   0.176
43558SOL    HW132507  12.881  14.334   0.256
43558SOL    HW232508  12.892  14.406   0.122
43559SOL     OW32509   2.081   7.841   0.283
43559SOL    HW132510   2.086   7.829   0.188
43559SOL    HW232511   2.134   7.770   0.319
43560SOL     OW32512   4.167  10.027   9.431
43560SOL    HW132513   4.189  10.076   9.510
43560SOL    HW232514   4.091  10.073   9.395
43561SOL     OW32515  14.181   4.656   8.570
43561SOL    HW132516  14.137   4.735   8.601
43561SOL    HW232517  14.136   4.634   8.488
43562SOL     OW32518   6.693  13.836   7.860
43562SOL    HW132519   6.727  13.839   7.949
43562SOL    HW232520   6.749  13.896   7.811
43563SOL     OW32521   9.408  10.491  10.098
43563SOL    HW132522   9.489  10.468  10.144
43563SOL    HW232523   9.428  10.476  10.005
43564SOL     OW32524  10.878  12.893   5.350
43564SOL    HW132525  10.837  12.954   5.411
43564SOL    HW232526  10.866  12.934   5.264
43565SOL     OW32527   3.127   7.962   6.589
43565SOL    HW132528   3.193   7.936   6.654
43565SOL    HW232529   3.167   8.034   6.541
43566SOL     OW32530   8.169   0.583   1.045
43566SOL    HW132531   8.264   0.589   1.059
43566SOL    HW232532   8.148   0.657   0.988
43567SOL     OW32533   8.399   7.490   7.118
43567SOL    HW132534   8.407   7.502   7.024
43567SOL    HW232535   8.368   7.400   7.128
43568SOL     OW32536  14.185   8.429   6.956
43568SOL    HW132537  14.274   8.395   6.947
43568SOL    HW232538  14.157   8.447   6.866
43569SOL     OW32539   7.412   2.649   4.376
43569SOL    HW132540   7.384   2.602   4.454
43569SOL    HW232541   7.331   2.670   4.330
43570SOL     OW32542   2.451   8.889   5.369
43570SOL    HW132543   2.476   8.875   5.461
43570SOL    HW232544   2.474   8.806   5.326
43571SOL     OW32545   3.774  14.627   1.049
43571SOL    HW132546   3.856  14.639   1.099
43571SOL    HW232547   3.705  14.651   1.111
43572SOL     OW32548  14.309   2.540   4.929
43572SOL    HW132549  14.384   2.487   4.957
43572SOL    HW232550  14.236   2.505   4.980
43573SOL     OW32551   6.400   4.156  11.541
43573SOL    HW132552   6.399   4.249  11.518
43573SOL    HW232553   6.488   4.127  11.518
43574SOL     OW32554   3.815   7.575   8.979
43574SOL    HW132555   3.823   7.525   8.897
43574SOL    HW232556   3.905   7.592   9.006
43575SOL     OW32557   0.629  11.361   4.985
43575SOL    HW132558   0.716  11.387   5.018
43575SOL    HW232559   0.643  11.342   4.892
43576SOL     OW32560  14.110   7.029  14.169
43576SOL    HW132561  14.124   7.123  14.178
43576SOL    HW232562  14.014   7.019  14.167
43577SOL     OW32563   4.838   7.819   2.392
43577SOL    HW132564   4.922   7.801   2.350
43577SOL    HW232565   4.853   7.800   2.484
43578SOL     OW32566  13.818  11.503   9.155
43578SOL    HW132567  13.868  11.572   9.112
43578SOL    HW232568  13.748  11.483   9.093
43579SOL     OW32569   8.458   7.899  12.218
43579SOL    HW132570   8.377   7.850  12.233
43579SOL    HW232571   8.505   7.848  12.152
43580SOL     OW32572   5.837   5.600  14.453
43580SOL    HW132573   5.774   5.663  14.486
43580SOL    HW232574   5.789   5.517  14.446
43581SOL     OW32575   1.794   1.623   3.814
43581SOL    HW132576   1.756   1.583   3.736
43581SOL    HW232577   1.785   1.717   3.800
43582SOL     OW32578   5.519   2.975  11.870
43582SOL    HW132579   5.459   3.049  11.879
43582SOL    HW232580   5.592   2.996  11.928
43583SOL     OW32581  12.680   4.886   8.300
43583SOL    HW132582  12.713   4.959   8.248
43583SOL    HW232583  12.747   4.818   8.291
43584SOL     OW32584   2.225   0.843   3.843
43584SOL    HW132585   2.142   0.882   3.816
43584SOL    HW232586   2.225   0.850   3.939
43585SOL     OW32587   5.386   0.864   1.677
43585SOL    HW132588   5.344   0.872   1.763
43585SOL    HW232589   5.313   0.864   1.615
43586SOL     OW32590   2.016   2.640   1.681
43586SOL    HW132591   1.952   2.658   1.613
43586SOL    HW232592   2.097   2.680   1.649
43587SOL     OW32593   4.562  14.712  14.523
43587SOL    HW132594   4.554  14.789  14.467
43587SOL    HW232595   4.654  14.712  14.550
43588SOL     OW32596   4.920   3.389  10.981
43588SOL    HW132597   5.010   3.366  10.959
43588SOL    HW232598   4.893   3.322  11.042
43589SOL     OW32599   3.222  10.036   0.270
43589SOL    HW132600   3.248   9.961   0.323
43589SOL    HW232601   3.298  10.055   0.216
43590SOL     OW32602   1.059   4.448   3.486
43590SOL    HW132603   0.997   4.491   3.545
43590SOL    HW232604   1.005   4.417   3.414
43591SOL     OW32605   6.435   8.463  10.112
43591SOL    HW132606   6.503   8.395  10.107
43591SOL    HW232607   6.416   8.471  10.206
43592SOL     OW32608   9.975   3.113  14.295
43592SOL    HW132609  10.048   3.100  14.355
43592SOL    HW232610  10.016   3.128  14.210
43593SOL     OW32611   7.960  10.854   6.215
43593SOL    HW132612   8.026  10.895   6.160
43593SOL    HW232613   7.929  10.924   6.272
43594SOL     OW32614   8.361  11.076   0.805
43594SOL    HW132615   8.288  11.014   0.803
43594SOL    HW232616   8.330  11.151   0.755
43595SOL     OW32617  14.005   0.081   0.129
43595SOL    HW132618  13.978   0.007   0.183
43595SOL    HW232619  14.084   0.115   0.173
43596SOL     OW32620   0.907  14.853   5.458
43596SOL    HW132621   0.947  14.877   5.541
43596SOL    HW232622   0.816   0.004   5.466
43597SOL     OW32623  10.020   0.047   3.156
43597SOL    HW132624   9.954  14.857   3.170
43597SOL    HW232625  10.101   0.010   3.192
43598SOL     OW32626   1.112   5.347   1.517
43598SOL    HW132627   1.203   5.376   1.529
43598SOL    HW232628   1.116   5.252   1.521
43599SOL     OW32629  14.000   8.545   9.714
43599SOL    HW132630  14.059   8.619   9.727
43599SOL    HW232631  13.969   8.553   9.624
43600SOL     OW32632   5.863  11.476  12.635
43600SOL    HW132633   5.768  11.484  12.630
43600SOL    HW232634   5.896  11.534  12.566
43601SOL     OW32635   9.441   6.080   6.656
43601SOL    HW132636   9.386   6.152   6.626
43601SOL    HW232637   9.530   6.114   6.652
43602SOL     OW32638   9.779  10.412   1.859
43602SOL    HW132639   9.688  10.399   1.887
43602SOL    HW232640   9.829  10.348   1.910
43603SOL     OW32641   2.191  12.172   9.632
43603SOL    HW132642   2.214  12.199   9.720
43603SOL    HW232643   2.269  12.126   9.600
43604SOL     OW32644   7.861   9.481   0.720
43604SOL    HW132645   7.874   9.438   0.804
43604SOL    HW232646   7.778   9.527   0.728
43605SOL     OW32647   7.004   2.625   5.650
43605SOL    HW132648   7.000   2.718   5.673
43605SOL    HW232649   6.913   2.599   5.641
43606SOL     OW32650   8.330   1.091  14.864
43606SOL    HW132651   8.360   1.110   0.074
43606SOL    HW232652   8.261   1.025  14.876
43607SOL     OW32653  10.489  13.842   0.537
43607SOL    HW132654  10.522  13.776   0.598
43607SOL    HW232655  10.480  13.796   0.454
43608SOL     OW32656  14.866   4.253   0.046
43608SOL    HW132657  14.793   4.276   0.103
43608SOL    HW232658   0.062   4.245   0.105
43609SOL     OW32659   1.621   5.098   4.800
43609SOL    HW132660   1.664   5.066   4.879
43609SOL    HW232661   1.640   5.192   4.799
43610SOL     OW32662   9.803   2.576   5.493
43610SOL    HW132663   9.759   2.507   5.444
43610SOL    HW232664   9.764   2.572   5.580
43611SOL     OW32665  11.824  11.351  10.213
43611SOL    HW132666  11.774  11.271  10.197
43611SOL    HW232667  11.759  11.421  10.215
43612SOL     OW32668   8.544   6.158   7.742
43612SOL    HW132669   8.511   6.239   7.779
43612SOL    HW232670   8.636   6.176   7.724
43613SOL     OW32671  11.890   3.880   0.725
43613SOL    HW132672  11.835   3.915   0.795
43613SOL    HW232673  11.828   3.841   0.664
43614SOL     OW32674   1.780   2.385  12.343
43614SOL    HW132675   1.688   2.384  12.370
43614SOL    HW232676   1.804   2.292  12.339
43615SOL     OW32677   7.986  10.232   6.646
43615SOL    HW132678   7.941  10.159   6.691
43615SOL    HW232679   7.943  10.310   6.681
43616SOL     OW32680   7.925   1.262   6.170
43616SOL    HW132681   7.875   1.332   6.211
43616SOL    HW232682   7.865   1.187   6.169
43617SOL     OW32683   1.370   7.299   6.317
43617SOL    HW132684   1.324   7.269   6.395
43617SOL    HW232685   1.323   7.258   6.244
43618SOL     OW32686   7.682  14.817  13.204
43618SOL    HW132687   7.653  14.821  13.295
43618SOL    HW232688   7.628  14.749  13.164
43619SOL     OW32689   8.865   8.970  11.415
43619SOL    HW132690   8.812   8.893  11.394
43619SOL    HW232691   8.948   8.954  11.370
43620SOL     OW32692  10.660  10.501   3.486
43620SOL    HW132693  10.585  10.473   3.540
43620SOL    HW232694  10.650  10.452   3.404
43621SOL     OW32695   1.698   4.065   3.501
43621SOL    HW132696   1.742   3.989   3.463
43621SOL    HW232697   1.616   4.072   3.452
43622SOL     OW32698   4.289  11.950   0.809
43622SOL    HW132699   4.324  11.886   0.748
43622SOL    HW232700   4.247  11.898   0.877
43623SOL     OW32701   9.002   5.002   3.004
43623SOL    HW132702   8.997   4.912   2.972
43623SOL    HW232703   8.911   5.028   3.015
43624SOL     OW32704   0.363   2.451   4.524
43624SOL    HW132705   0.458   2.467   4.521
43624SOL    HW232706   0.326   2.534   4.553
43625SOL     OW32707  10.964   4.547   0.914
43625SOL    HW132708  11.057   4.570   0.916
43625SOL    HW232709  10.958   4.470   0.970
43626SOL     OW32710   2.743   0.083  10.365
43626SOL    HW132711   2.793   0.164  10.378
43626SOL    HW232712   2.652   0.112  10.357
43627SOL     OW32713  11.389  13.814   8.539
43627SOL    HW132714  11.367  13.906   8.525
43627SOL    HW232715  11.316  13.766   8.501
43628SOL     OW32716   7.875   3.965   5.878
43628SOL    HW132717   7.938   3.898   5.904
43628SOL    HW232718   7.795   3.916   5.857
43629SOL     OW32719   6.429   9.431   1.221
43629SOL    HW132720   6.364   9.441   1.291
43629SOL    HW232721   6.485   9.360   1.250
43630SOL     OW32722  10.876   1.916   0.461
43630SOL    HW132723  10.783   1.938   0.458
43630SOL    HW232724  10.921   1.996   0.437
43631SOL     OW32725   7.350  10.794   2.489
43631SOL    HW132726   7.279  10.735   2.512
43631SOL    HW232727   7.391  10.754   2.413
43632SOL     OW32728  10.480   1.294   1.593
43632SOL    HW132729  10.489   1.390   1.588
43632SOL    HW232730  10.390   1.277   1.564
43633SOL     OW32731   6.577  13.172   6.832
43633SOL    HW132732   6.529  13.119   6.769
43633SOL    HW232733   6.668  13.170   6.802
43634SOL     OW32734   3.920   7.588  14.616
43634SOL    HW132735   3.916   7.615  14.707
43634SOL    HW232736   3.882   7.500  14.615
43635SOL     OW32737  11.704   2.605   5.785
43635SOL    HW132738  11.795   2.605   5.756
43635SOL    HW232739  11.682   2.513   5.797
43636SOL     OW32740  13.138   9.736   5.909
43636SOL    HW132741  13.210   9.685   5.948
43636SOL    HW232742  13.129   9.701   5.821
43637SOL     OW32743   4.701   5.467   3.583
43637SOL    HW132744   4.617   5.513   3.582
43637SOL    HW232745   4.732   5.472   3.493
43638SOL     OW32746   2.252   2.824  11.379
43638SOL    HW132747   2.202   2.819  11.460
43638SOL    HW232748   2.186   2.825  11.310
43639SOL     OW32749   1.882   4.626   8.287
43639SOL    HW132750   1.902   4.669   8.370
43639SOL    HW232751   1.904   4.691   8.221
43640SOL     OW32752   4.723   4.084   1.746
43640SOL    HW132753   4.759   4.163   1.707
43640SOL    HW232754   4.628   4.098   1.747
43641SOL     OW32755  11.179   1.173  11.340
43641SOL    HW132756  11.238   1.242  11.372
43641SOL    HW232757  11.165   1.116  11.416
43642SOL     OW32758   4.350  13.888  12.771
43642SOL    HW132759   4.389  13.802  12.758
43642SOL    HW232760   4.294  13.902  12.694
43643SOL     OW32761  11.962  14.577   1.083
43643SOL    HW132762  11.932  14.646   1.023
43643SOL    HW232763  11.959  14.618   1.170
43644SOL     OW32764   5.408   2.702   3.620
43644SOL    HW132765   5.368   2.785   3.594
43644SOL    HW232766   5.482   2.728   3.676
43645SOL     OW32767   0.728   8.563   6.204
43645SOL    HW132768   0.810   8.550   6.156
43645SOL    HW232769   0.660   8.534   6.143
43646SOL     OW32770   2.058  10.123  12.447
43646SOL    HW132771   2.030  10.167  12.527
43646SOL    HW232772   2.050  10.030  12.468
43647SOL     OW32773   0.882   3.759   4.711
43647SOL    HW132774   0.905   3.821   4.642
43647SOL    HW232775   0.792   3.780   4.733
43648SOL     OW32776  11.346  10.118   0.013
43648SOL    HW132777  11.338  10.024   0.031
43648SOL    HW232778  11.344  10.123  14.796
43649SOL     OW32779  12.075   2.547   7.523
43649SOL    HW132780  12.045   2.637   7.513
43649SOL    HW232781  12.090   2.538   7.617
43650SOL     OW32782  13.532   1.064   1.728
43650SOL    HW132783  13.483   1.135   1.770
43650SOL    HW232784  13.623   1.079   1.755
43651SOL     OW32785   3.933  14.579  12.852
43651SOL    HW132786   3.871  14.508  12.839
43651SOL    HW232787   3.990  14.549  12.923
43652SOL     OW32788   6.184   7.492   2.061
43652SOL    HW132789   6.245   7.449   2.121
43652SOL    HW232790   6.169   7.427   1.992
43653SOL     OW32791   1.470  14.583  12.801
43653SOL    HW132792   1.493  14.643  12.871
43653SOL    HW232793   1.476  14.496  12.840
43654SOL     OW32794  10.256  10.677   2.808
43654SOL    HW132795  10.330  10.617   2.798
43654SOL    HW232796  10.234  10.673   2.901
43655SOL     OW32797  13.338  11.366   9.338
43655SOL    HW132798  13.315  11.453   9.371
43655SOL    HW232799  13.267  11.344   9.278
43656SOL     OW32800   1.653  11.265   0.001
43656SOL    HW132801   1.557  11.264   0.005
43656SOL    HW232802   1.678  11.173   0.008
43657SOL     OW32803  11.625  13.824  10.735
43657SOL    HW132804  11.666  13.743  10.706
43657SOL    HW232805  11.534  13.817  10.704
43658SOL     OW32806  13.147   4.241   7.104
43658SOL    HW132807  13.125   4.211   7.016
43658SOL    HW232808  13.066   4.230   7.154
43659SOL     OW32809   0.845   7.692   2.814
43659SOL    HW132810   0.855   7.723   2.904
43659SOL    HW232811   0.823   7.771   2.764
43660SOL     OW32812   4.882   4.315   5.060
43660SOL    HW132813   4.879   4.383   4.993
43660SOL    HW232814   4.975   4.303   5.078
43661SOL     OW32815   9.609  13.208   5.014
43661SOL    HW132816   9.559  13.222   5.095
43661SOL    HW232817   9.659  13.129   5.030
43662SOL     OW32818   2.232  11.828   0.556
43662SOL    HW132819   2.309  11.883   0.571
43662SOL    HW232820   2.221  11.827   0.461
43663SOL     OW32821   7.955   3.001  13.104
43663SOL    HW132822   7.868   2.962  13.110
43663SOL    HW232823   7.992   2.992  13.192
43664SOL     OW32824   5.468  11.873  13.191
43664SOL    HW132825   5.516  11.914  13.263
43664SOL    HW232826   5.378  11.869  13.223
43665SOL     OW32827   3.601  14.105  14.049
43665SOL    HW132828   3.600  14.188  14.096
43665SOL    HW232829   3.548  14.046  14.102
43666SOL     OW32830   0.219   9.721   0.307
43666SOL    HW132831   0.185   9.809   0.290
43666SOL    HW232832   0.221   9.714   0.403
43667SOL     OW32833   3.656   6.008  11.282
43667SOL    HW132834   3.740   5.973  11.250
43667SOL    HW232835   3.601   5.930  11.293
43668SOL     OW32836   5.328   2.885   9.045
43668SOL    HW132837   5.250   2.878   8.990
43668SOL    HW232838   5.303   2.843   9.127
43669SOL     OW32839   6.171   4.672   4.219
43669SOL    HW132840   6.096   4.661   4.279
43669SOL    HW232841   6.220   4.746   4.255
43670SOL     OW32842   9.657   0.769   5.486
43670SOL    HW132843   9.671   0.729   5.572
43670SOL    HW232844   9.743   0.767   5.445
43671SOL     OW32845   9.506  10.302  14.595
43671SOL    HW132846   9.540  10.347  14.672
43671SOL    HW232847   9.500  10.370  14.528
43672SOL     OW32848   3.841  11.752  12.150
43672SOL    HW132849   3.870  11.680  12.207
43672SOL    HW232850   3.781  11.803  12.204
43673SOL     OW32851  13.645  10.512  10.039
43673SOL    HW132852  13.579  10.510  10.108
43673SOL    HW232853  13.649  10.603  10.011
43674SOL     OW32854   7.942  12.038   6.513
43674SOL    HW132855   7.891  11.967   6.473
43674SOL    HW232856   7.998  12.070   6.443
43675SOL     OW32857   6.630   7.849   9.973
43675SOL    HW132858   6.614   7.904  10.049
43675SOL    HW232859   6.725   7.837   9.971
43676SOL     OW32860  10.011   4.249   5.945
43676SOL    HW132861  10.053   4.164   5.959
43676SOL    HW232862   9.921   4.236   5.974
43677SOL     OW32863   1.191   1.952   2.548
43677SOL    HW132864   1.280   1.917   2.551
43677SOL    HW232865   1.203   2.046   2.534
43678SOL     OW32866   6.248   3.381  12.089
43678SOL    HW132867   6.254   3.432  12.170
43678SOL    HW232868   6.303   3.428  12.027
43679SOL     OW32869  13.745  10.989   3.889
43679SOL    HW132870  13.706  10.912   3.849
43679SOL    HW232871  13.670  11.039   3.922
43680SOL     OW32872   7.804   0.472   0.327
43680SOL    HW132873   7.783   0.560   0.295
43680SOL    HW232874   7.803   0.418   0.248
43681SOL     OW32875  12.400  14.166   2.783
43681SOL    HW132876  12.458  14.136   2.853
43681SOL    HW232877  12.320  14.113   2.795
43682SOL     OW32878   8.750   8.892   4.540
43682SOL    HW132879   8.738   8.888   4.445
43682SOL    HW232880   8.734   8.983   4.563
43683SOL     OW32881   9.411  13.386   9.195
43683SOL    HW132882   9.329  13.338   9.185
43683SOL    HW232883   9.407  13.455   9.129
43684SOL     OW32884   7.638   6.346  12.030
43684SOL    HW132885   7.663   6.318  11.942
43684SOL    HW232886   7.586   6.274  12.064
43685SOL     OW32887   0.208   1.056   8.239
43685SOL    HW132888   0.157   1.129   8.203
43685SOL    HW232889   0.143   0.988   8.255
43686SOL     OW32890  12.482  13.521   1.157
43686SOL    HW132891  12.567  13.479   1.148
43686SOL    HW232892  12.435  13.467   1.221
43687SOL     OW32893   9.523   8.278  12.374
43687SOL    HW132894   9.494   8.250  12.461
43687SOL    HW232895   9.557   8.367  12.388
43688SOL     OW32896  11.523  14.364  13.492
43688SOL    HW132897  11.476  14.353  13.574
43688SOL    HW232898  11.585  14.435  13.509
43689SOL     OW32899   6.416   3.490   4.958
43689SOL    HW132900   6.379   3.545   5.027
43689SOL    HW232901   6.509   3.482   4.981
43690SOL     OW32902  12.311  13.709  12.917
43690SOL    HW132903  12.331  13.802  12.908
43690SOL    HW232904  12.245  13.705  12.986
43691SOL     OW32905  14.563  11.958  11.175
43691SOL    HW132906  14.602  11.894  11.115
43691SOL    HW232907  14.469  11.941  11.169
43692SOL     OW32908   9.408   2.282   0.516
43692SOL    HW132909   9.423   2.372   0.487
43692SOL    HW232910   9.495   2.247   0.531
43693SOL     OW32911  11.910  13.378  14.507
43693SOL    HW132912  11.839  13.373  14.444
43693SOL    HW232913  11.943  13.467  14.501
43694SOL     OW32914   2.698   5.789  12.174
43694SOL    HW132915   2.775   5.792  12.231
43694SOL    HW232916   2.627   5.760  12.230
43695SOL     OW32917   8.461   6.268  10.969
43695SOL    HW132918   8.546   6.309  10.955
43695SOL    HW232919   8.432   6.243  10.882
43696SOL     OW32920   2.764   2.602   7.332
43696SOL    HW132921   2.741   2.548   7.407
43696SOL    HW232922   2.832   2.662   7.364
43697SOL     OW32923   1.567  12.650   6.991
43697SOL    HW132924   1.478  12.656   7.026
43697SOL    HW232925   1.591  12.557   7.000
43698SOL     OW32926   4.480  10.083   0.527
43698SOL    HW132927   4.443  10.153   0.473
43698SOL    HW232928   4.404  10.030   0.552
43699SOL     OW32929   3.010   1.236   6.671
43699SOL    HW132930   3.044   1.152   6.640
43699SOL    HW232931   2.930   1.249   6.621
43700SOL     OW32932   8.655  14.712   6.813
43700SOL    HW132933   8.707  14.768   6.755
43700SOL    HW232934   8.667  14.624   6.777
43701SOL     OW32935  11.301  13.370   0.049
43701SOL    HW132936  11.294  13.288   0.097
43701SOL    HW232937  11.215  13.381   0.007
43702SOL     OW32938  12.811   6.270   9.080
43702SOL    HW132939  12.877   6.334   9.054
43702SOL    HW232940  12.856   6.214   9.143
43703SOL     OW32941  13.152   0.692  10.594
43703SOL    HW132942  13.142   0.609  10.547
43703SOL    HW232943  13.239   0.686  10.634
43704SOL     OW32944  11.595   1.642   4.469
43704SOL    HW132945  11.681   1.600   4.479
43704SOL    HW232946  11.612   1.735   4.482
43705SOL     OW32947   2.104  13.114  13.380
43705SOL    HW132948   2.076  13.024  13.365
43705SOL    HW232949   2.027  13.167  13.359
43706SOL     OW32950   4.553  11.486  13.507
43706SOL    HW132951   4.644  11.500  13.533
43706SOL    HW232952   4.530  11.401  13.545
43707SOL     OW32953  11.382   9.833   9.220
43707SOL    HW132954  11.361   9.814   9.312
43707SOL    HW232955  11.328   9.772   9.170
43708SOL     OW32956   5.867   5.708  12.035
43708SOL    HW132957   5.854   5.761  11.956
43708SOL    HW232958   5.807   5.746  12.099
43709SOL     OW32959   2.930   6.007   7.087
43709SOL    HW132960   2.992   6.035   7.154
43709SOL    HW232961   2.983   5.956   7.026
43710SOL     OW32962   9.458  12.690   9.998
43710SOL    HW132963   9.394  12.674   9.928
43710SOL    HW232964   9.534  12.727   9.953
43711SOL     OW32965  13.605  14.082  11.786
43711SOL    HW132966  13.594  14.004  11.731
43711SOL    HW232967  13.516  14.112  11.802
43712SOL     OW32968  12.318   1.309  10.422
43712SOL    HW132969  12.375   1.239  10.454
43712SOL    HW232970  12.246   1.312  10.484
43713SOL     OW32971   7.836  13.781  11.897
43713SOL    HW132972   7.919  13.777  11.944
43713SOL    HW232973   7.802  13.869  11.913
43714SOL     OW32974  14.514   9.037  10.332
43714SOL    HW132975  14.486   8.998  10.415
43714SOL    HW232976  14.604   9.064  10.348
43715SOL     OW32977  13.188  11.309   1.818
43715SOL    HW132978  13.267  11.347   1.780
43715SOL    HW232979  13.151  11.379   1.872
43716SOL     OW32980   9.766  14.786   2.431
43716SOL    HW132981   9.848  14.744   2.458
43716SOL    HW232982   9.782  14.814   2.341
43717SOL     OW32983   9.982  14.531   6.474
43717SOL    HW132984   9.908  14.568   6.523
43717SOL    HW232985   9.972  14.436   6.483
43718SOL     OW32986   6.331   5.854   6.027
43718SOL    HW132987   6.268   5.902   6.081
43718SOL    HW232988   6.297   5.765   6.022
43719SOL     OW32989   7.198  10.713   5.069
43719SOL    HW132990   7.150  10.658   5.131
43719SOL    HW232991   7.165  10.685   4.983
43720SOL     OW32992   8.189  12.738  11.644
43720SOL    HW132993   8.136  12.748  11.723
43720SOL    HW232994   8.221  12.648  11.648
43721SOL     OW32995  13.206  13.188   8.831
43721SOL    HW132996  13.231  13.238   8.753
43721SOL    HW232997  13.286  13.181   8.883
43722SOL     OW32998   5.181  11.494   3.201
43722SOL    HW132999   5.274  11.518   3.209
43722SOL    HW233000   5.155  11.525   3.115
43723SOL     OW33001   3.810   7.533   9.834
43723SOL    HW133002   3.887   7.588   9.817
43723SOL    HW233003   3.827   7.493   9.919
43724SOL     OW33004   2.567  13.570  13.898
43724SOL    HW133005   2.602  13.549  13.985
43724SOL    HW233006   2.633  13.538  13.837
43725SOL     OW33007   7.118   9.060   5.562
43725SOL    HW133008   7.185   8.991   5.558
43725SOL    HW233009   7.138   9.108   5.643
43726SOL     OW33010   6.760   4.393  12.915
43726SOL    HW133011   6.756   4.439  12.999
43726SOL    HW233012   6.822   4.322  12.930
43727SOL     OW33013  11.529   2.162   2.996
43727SOL    HW133014  11.616   2.156   2.955
43727SOL    HW233015  11.468   2.143   2.924
43728SOL     OW33016   1.629   9.181   1.082
43728SOL    HW133017   1.653   9.249   1.144
43728SOL    HW233018   1.698   9.182   1.015
43729SOL     OW33019   1.545  13.190   5.555
43729SOL    HW133020   1.605  13.261   5.531
43729SOL    HW233021   1.548  13.129   5.481
43730SOL     OW33022  12.549  11.784  10.351
43730SOL    HW133023  12.643  11.784  10.332
43730SOL    HW233024  12.544  11.778  10.447
43731SOL     OW33025  14.516  12.888   8.640
43731SOL    HW133026  14.464  12.885   8.560
43731SOL    HW233027  14.499  12.975   8.677
43732SOL     OW33028  12.831   7.739   5.249
43732SOL    HW133029  12.887   7.667   5.278
43732SOL    HW233030  12.769   7.698   5.188
43733SOL     OW33031  12.704   3.014   0.659
43733SOL    HW133032  12.763   3.051   0.593
43733SOL    HW233033  12.734   3.052   0.741
43734SOL     OW33034   1.670  10.856   7.879
43734SOL    HW133035   1.687  10.946   7.905
43734SOL    HW233036   1.649  10.861   7.786
43735SOL     OW33037   6.357   2.869  14.785
43735SOL    HW133038   6.377   2.789  14.834
43735SOL    HW233039   6.269   2.893  14.814
43736SOL     OW33040   9.422   1.264   4.857
43736SOL    HW133041   9.478   1.236   4.784
43736SOL    HW233042   9.359   1.324   4.816
43737SOL     OW33043   1.224   0.745   3.478
43737SOL    HW133044   1.148   0.729   3.534
43737SOL    HW233045   1.230   0.840   3.470
43738SOL     OW33046  14.687  14.329  13.129
43738SOL    HW133047  14.626  14.399  13.154
43738SOL    HW233048  14.749  14.372  13.069
43739SOL     OW33049  10.378   0.237  10.422
43739SOL    HW133050  10.325   0.267  10.496
43739SOL    HW233051  10.313   0.207  10.357
43740SOL     OW33052   2.960  10.508  13.909
43740SOL    HW133053   2.927  10.427  13.949
43740SOL    HW233054   2.885  10.545  13.864
43741SOL     OW33055   9.887   1.762   7.265
43741SOL    HW133056   9.943   1.686   7.249
43741SOL    HW233057   9.920   1.830   7.206
43742SOL     OW33058   2.860  12.047   5.444
43742SOL    HW133059   2.917  12.110   5.489
43742SOL    HW233060   2.840  12.090   5.361
43743SOL     OW33061   1.746   7.006   4.729
43743SOL    HW133062   1.836   6.984   4.704
43743SOL    HW233063   1.709   7.047   4.652
43744SOL     OW33064   0.283  10.443   1.721
43744SOL    HW133065   0.330  10.525   1.705
43744SOL    HW233066   0.351  10.375   1.715
43745SOL     OW33067   0.369   3.141   7.925
43745SOL    HW133068   0.386   3.235   7.930
43745SOL    HW233069   0.447   3.101   7.964
43746SOL     OW33070   1.234   0.241  13.694
43746SOL    HW133071   1.149   0.199  13.704
43746SOL    HW233072   1.237   0.307  13.763
43747SOL     OW33073   5.455   9.156  14.722
43747SOL    HW133074   5.525   9.103  14.685
43747SOL    HW233075   5.497   9.240  14.743
43748SOL     OW33076   7.784   1.601  14.790
43748SOL    HW133077   7.857   1.660  14.809
43748SOL    HW233078   7.739   1.642  14.717
43749SOL     OW33079  10.848   6.648  13.204
43749SOL    HW133080  10.888   6.704  13.137
43749SOL    HW233081  10.917   6.586  13.227
43750SOL     OW33082  14.214  10.770   6.274
43750SOL    HW133083  14.302  10.807   6.286
43750SOL    HW233084  14.228  10.687   6.229
43751SOL     OW33085   4.644   1.832   3.667
43751SOL    HW133086   4.694   1.797   3.741
43751SOL    HW233087   4.587   1.760   3.641
43752SOL     OW33088  14.357  12.526  10.514
43752SOL    HW133089  14.428  12.483  10.467
43752SOL    HW233090  14.311  12.577  10.447
43753SOL     OW33091   4.364   0.044   6.375
43753SOL    HW133092   4.283   0.083   6.408
43753SOL    HW233093   4.433   0.103   6.407
43754SOL     OW33094  14.803   7.639   4.835
43754SOL    HW133095  14.799   7.675   4.746
43754SOL    HW233096  14.806   7.715   4.892
43755SOL     OW33097   0.010   8.281  13.596
43755SOL    HW133098   0.095   8.254  13.630
43755SOL    HW233099  14.870   8.220  13.525
43756SOL     OW33100   1.626   1.886  12.708
43756SOL    HW133101   1.546   1.838  12.729
43756SOL    HW233102   1.675   1.889  12.791
43757SOL     OW33103  13.716   9.668   2.616
43757SOL    HW133104  13.628   9.665   2.580
43757SOL    HW233105  13.773   9.655   2.540
43758SOL     OW33106   0.736   6.197   4.612
43758SOL    HW133107   0.662   6.174   4.556
43758SOL    HW233108   0.697   6.215   4.697
43759SOL     OW33109  11.234   5.480   0.480
43759SOL    HW133110  11.206   5.393   0.508
43759SOL    HW233111  11.161   5.514   0.429
43760SOL     OW33112  10.618   0.571   4.567
43760SOL    HW133113  10.706   0.600   4.592
43760SOL    HW233114  10.602   0.494   4.622
43761SOL     OW33115  13.963   5.313   7.265
43761SOL    HW133116  13.911   5.312   7.185
43761SOL    HW233117  14.036   5.372   7.245
43762SOL     OW33118   1.806   5.853  13.451
43762SOL    HW133119   1.757   5.911  13.509
43762SOL    HW233120   1.740   5.793  13.416
43763SOL     OW33121  11.837  10.970   0.962
43763SOL    HW133122  11.808  10.935   0.878
43763SOL    HW233123  11.841  11.065   0.949
43764SOL     OW33124   6.963  13.237  13.602
43764SOL    HW133125   6.954  13.317  13.549
43764SOL    HW233126   6.996  13.171  13.541
43765SOL     OW33127   7.428   9.242   7.000
43765SOL    HW133128   7.427   9.164   6.944
43765SOL    HW233129   7.486   9.218   7.073
43766SOL     OW33130  13.284   7.514  10.746
43766SOL    HW133131  13.240   7.579  10.691
43766SOL    HW233132  13.270   7.431  10.700
43767SOL     OW33133   3.668   0.167  14.449
43767SOL    HW133134   3.615   0.216  14.511
43767SOL    HW233135   3.626   0.182  14.364
43768SOL     OW33136   9.966  10.702   3.551
43768SOL    HW133137   9.967  10.790   3.514
43768SOL    HW233138   9.880  10.695   3.593
43769SOL     OW33139   4.607  10.295   9.318
43769SOL    HW133140   4.563  10.378   9.336
43769SOL    HW233141   4.579  10.272   9.229
43770SOL     OW33142   0.062  14.124   4.644
43770SOL    HW133143   0.041  14.096   4.555
43770SOL    HW233144  14.871  14.186   4.666
43771SOL     OW33145   9.037   4.035   4.272
43771SOL    HW133146   9.124   4.017   4.236
43771SOL    HW233147   8.998   4.098   4.212
43772SOL     OW33148   4.966   7.363   2.454
43772SOL    HW133149   4.919   7.374   2.372
43772SOL    HW233150   5.051   7.406   2.440
43773SOL     OW33151  13.850   1.410   8.534
43773SOL    HW133152  13.873   1.503   8.540
43773SOL    HW233153  13.931   1.364   8.557
43774SOL     OW33154   2.760   1.066   2.732
43774SOL    HW133155   2.778   0.973   2.742
43774SOL    HW233156   2.679   1.071   2.681
43775SOL     OW33157  12.790   7.427  14.012
43775SOL    HW133158  12.835   7.433  13.928
43775SOL    HW233159  12.805   7.337  14.042
43776SOL     OW33160   4.670  10.633   6.697
43776SOL    HW133161   4.665  10.663   6.606
43776SOL    HW233162   4.609  10.560   6.702
43777SOL     OW33163  13.764   8.661   3.414
43777SOL    HW133164  13.685   8.650   3.362
43777SOL    HW233165  13.735   8.648   3.505
43778SOL     OW33166   6.490   4.672  10.481
43778SOL    HW133167   6.554   4.737  10.509
43778SOL    HW233168   6.416   4.723  10.449
43779SOL     OW33169   6.830   0.081   3.529
43779SOL    HW133170   6.894   0.022   3.488
43779SOL    HW233171   6.877   0.163   3.541
43780SOL     OW33172   2.398   1.727  10.168
43780SOL    HW133173   2.459   1.778  10.221
43780SOL    HW233174   2.454   1.683  10.104
43781SOL     OW33175   1.899   9.934   2.745
43781SOL    HW133176   1.989   9.966   2.739
43781SOL    HW233177   1.908   9.844   2.776
43782SOL     OW33178  10.617  11.235   6.727
43782SOL    HW133179  10.580  11.172   6.665
43782SOL    HW233180  10.545  11.255   6.786
43783SOL     OW33181   8.842   8.999   1.317
43783SOL    HW133182   8.831   9.014   1.223
43783SOL    HW233183   8.824   8.906   1.329
43784SOL     OW33184  10.711   2.467   5.808
43784SOL    HW133185  10.626   2.510   5.818
43784SOL    HW233186  10.719   2.412   5.886
43785SOL     OW33187   0.611   2.807   7.733
43785SOL    HW133188   0.644   2.738   7.791
43785SOL    HW233189   0.516   2.805   7.746
43786SOL     OW33190  11.584   0.787   5.506
43786SOL    HW133191  11.657   0.743   5.462
43786SOL    HW233192  11.550   0.848   5.441
43787SOL     OW33193  10.553   5.669   1.972
43787SOL    HW133194  10.562   5.656   2.067
43787SOL    HW233195  10.461   5.649   1.954
43788SOL     OW33196  13.236  14.291  13.059
43788SOL    HW133197  13.162  14.348  13.083
43788SOL    HW233198  13.302  14.308  13.127
43789SOL     OW33199  13.481   5.612   5.390
43789SOL    HW133200  13.453   5.702   5.405
43789SOL    HW233201  13.404   5.569   5.352
43790SOL     OW33202   8.509   2.236  11.686
43790SOL    HW133203   8.421   2.259  11.716
43790SOL    HW233204   8.542   2.174  11.752
43791SOL     OW33205   0.424   6.932   8.930
43791SOL    HW133206   0.398   6.944   9.021
43791SOL    HW233207   0.517   6.912   8.933
43792SOL     OW33208  14.476   5.111   5.836
43792SOL    HW133209  14.429   5.052   5.895
43792SOL    HW233210  14.516   5.176   5.895
43793SOL     OW33211   9.858  10.689   4.641
43793SOL    HW133212   9.902  10.604   4.640
43793SOL    HW233213   9.784  10.676   4.700
43794SOL     OW33214   0.417  13.919   4.732
43794SOL    HW133215   0.418  13.933   4.637
43794SOL    HW233216   0.325  13.908   4.753
43795SOL     OW33217   5.114  13.685   6.971
43795SOL    HW133218   5.200  13.699   7.010
43795SOL    HW233219   5.132  13.669   6.878
43796SOL     OW33220  11.145   7.068   2.897
43796SOL    HW133221  11.192   7.122   2.833
43796SOL    HW233222  11.211   7.050   2.964
43797SOL     OW33223   0.136  11.872   1.887
43797SOL    HW133224   0.207  11.919   1.933
43797SOL    HW233225   0.068  11.861   1.953
43798SOL     OW33226   2.765  12.547   7.553
43798SOL    HW133227   2.760  12.640   7.575
43798SOL    HW233228   2.674  12.518   7.555
43799SOL     OW33229   9.672   4.020   3.641
43799SOL    HW133230   9.711   4.106   3.626
43799SOL    HW233231   9.621   4.031   3.722
43800SOL     OW33232   0.517  13.042   2.267
43800SOL    HW133233   0.425  13.036   2.238
43800SOL    HW233234   0.564  13.073   2.189
43801SOL     OW33235   6.054  11.846   3.714
43801SOL    HW133236   6.030  11.939   3.714
43801SOL    HW233237   6.022  11.812   3.798
43802SOL     OW33238   8.502   7.252   3.073
43802SOL    HW133239   8.427   7.297   3.033
43802SOL    HW233240   8.490   7.160   3.050
43803SOL     OW33241   6.267  11.324  12.256
43803SOL    HW133242   6.297  11.296  12.170
43803SOL    HW233243   6.348  11.345  12.303
43804SOL     OW33244   9.971   6.955  11.512
43804SOL    HW133245   9.940   6.913  11.592
43804SOL    HW233246   9.932   7.042  11.514
43805SOL     OW33247   6.218   0.311   5.769
43805SOL    HW133248   6.190   0.391   5.812
43805SOL    HW233249   6.158   0.301   5.696
43806SOL     OW33250   4.015   0.161   5.271
43806SOL    HW133251   4.036   0.085   5.216
43806SOL    HW233252   4.092   0.173   5.327
43807SOL     OW33253   3.246   4.405   3.265
43807SOL    HW133254   3.316   4.424   3.327
43807SOL    HW233255   3.171   4.453   3.299
43808SOL     OW33256  10.114   1.884   2.837
43808SOL    HW133257  10.191   1.930   2.871
43808SOL    HW233258  10.041   1.919   2.889
43809SOL     OW33259   9.750  13.820   1.659
43809SOL    HW133260   9.800  13.873   1.596
43809SOL    HW233261   9.745  13.875   1.737
43810SOL     OW33262   8.140  12.348   8.960
43810SOL    HW133263   8.219  12.309   8.997
43810SOL    HW233264   8.089  12.273   8.928
43811SOL     OW33265  11.970   3.019   6.913
43811SOL    HW133266  12.040   2.997   6.974
43811SOL    HW233267  12.015   3.043   6.832
43812SOL     OW33268   5.603   8.739   9.331
43812SOL    HW133269   5.611   8.779   9.245
43812SOL    HW233270   5.542   8.795   9.379
43813SOL     OW33271  12.164  12.387   3.568
43813SOL    HW133272  12.097  12.324   3.596
43813SOL    HW233273  12.151  12.395   3.474
43814SOL     OW33274  12.528   0.881  14.236
43814SOL    HW133275  12.590   0.947  14.205
43814SOL    HW233276  12.551   0.868  14.327
43815SOL     OW33277   8.401  14.587   0.444
43815SOL    HW133278   8.345  14.523   0.399
43815SOL    HW233279   8.485  14.543   0.456
43816SOL     OW33280   5.868   2.754   4.015
43816SOL    HW133281   5.913   2.671   4.032
43816SOL    HW233282   5.848   2.752   3.922
43817SOL     OW33283   5.212   9.225  12.741
43817SOL    HW133284   5.123   9.192  12.737
43817SOL    HW233285   5.244   9.221  12.651
43818SOL     OW33286  10.327   4.010   9.760
43818SOL    HW133287  10.413   4.039   9.790
43818SOL    HW233288  10.331   3.915   9.764
43819SOL     OW33289   3.202   4.392  10.207
43819SOL    HW133290   3.136   4.351  10.152
43819SOL    HW233291   3.161   4.473  10.238
43820SOL     OW33292   8.729  10.686  12.556
43820SOL    HW133293   8.788  10.611  12.562
43820SOL    HW233294   8.708  10.693  12.463
43821SOL     OW33295   7.885  13.057  13.047
43821SOL    HW133296   7.860  13.140  13.006
43821SOL    HW233297   7.979  13.050  13.031
43822SOL     OW33298   1.660   6.436   9.111
43822SOL    HW133299   1.722   6.398   9.174
43822SOL    HW233300   1.683   6.396   9.027
43823SOL     OW33301  13.303   5.903   1.483
43823SOL    HW133302  13.230   5.843   1.466
43823SOL    HW233303  13.271   5.988   1.454
43824SOL     OW33304   3.642   2.984   3.490
43824SOL    HW133305   3.576   2.939   3.542
43824SOL    HW233306   3.676   3.053   3.548
43825SOL     OW33307   7.843   4.717   2.619
43825SOL    HW133308   7.768   4.713   2.559
43825SOL    HW233309   7.803   4.725   2.706
43826SOL     OW33310   2.797   6.485   0.237
43826SOL    HW133311   2.712   6.444   0.221
43826SOL    HW233312   2.791   6.570   0.194
43827SOL     OW33313   2.774  14.478   6.207
43827SOL    HW133314   2.825  14.407   6.245
43827SOL    HW233315   2.829  14.512   6.136
43828SOL     OW33316   4.412   4.760  13.537
43828SOL    HW133317   4.320   4.757  13.508
43828SOL    HW233318   4.456   4.814  13.471
43829SOL     OW33319   5.049   2.730   1.662
43829SOL    HW133320   5.027   2.817   1.696
43829SOL    HW233321   5.045   2.673   1.739
43830SOL     OW33322   7.492   1.120   1.666
43830SOL    HW133323   7.506   1.140   1.574
43830SOL    HW233324   7.550   1.046   1.684
43831SOL     OW33325  13.030  10.865   4.516
43831SOL    HW133326  13.047  10.878   4.609
43831SOL    HW233327  12.989  10.946   4.487
43832SOL     OW33328   7.910   6.111  11.876
43832SOL    HW133329   7.929   6.113  11.969
43832SOL    HW233330   7.995   6.094  11.834
43833SOL     OW33331   0.123  13.496   4.368
43833SOL    HW133332   0.064  13.422   4.358
43833SOL    HW233333   0.133  13.530   4.279
43834SOL     OW33334   9.249   2.677  11.730
43834SOL    HW133335   9.249   2.661  11.824
43834SOL    HW233336   9.159   2.704  11.710
43835SOL     OW33337   5.501   6.242  14.528
43835SOL    HW133338   5.561   6.304  14.486
43835SOL    HW233339   5.420   6.248  14.478
43836SOL     OW33340   3.725  11.575  12.852
43836SOL    HW133341   3.687  11.519  12.784
43836SOL    HW233342   3.744  11.516  12.924
43837SOL     OW33343   5.996   1.811   1.588
43837SOL    HW133344   6.061   1.841   1.525
43837SOL    HW233345   5.942   1.888   1.607
43838SOL     OW33346  12.858   2.377   9.734
43838SOL    HW133347  12.909   2.449   9.769
43838SOL    HW233348  12.921   2.306   9.722
43839SOL     OW33349   2.893   4.310   3.847
43839SOL    HW133350   2.822   4.328   3.909
43839SOL    HW233351   2.972   4.341   3.892
43840SOL     OW33352   4.501   0.924  14.136
43840SOL    HW133353   4.516   0.983  14.210
43840SOL    HW233354   4.587   0.887  14.116
43841SOL     OW33355  14.436   5.361   2.583
43841SOL    HW133356  14.531   5.372   2.593
43841SOL    HW233357  14.407   5.439   2.536
43842SOL     OW33358   4.658   2.603   1.486
43842SOL    HW133359   4.618   2.690   1.483
43842SOL    HW233360   4.614   2.554   1.417
43843SOL     OW33361  13.467   9.316  14.158
43843SOL    HW133362  13.478   9.266  14.239
43843SOL    HW233363  13.376   9.347  14.162
43844SOL     OW33364   2.478   1.634   0.587
43844SOL    HW133365   2.399   1.623   0.534
43844SOL    HW233366   2.497   1.728   0.583
43845SOL     OW33367   9.656   0.506  14.091
43845SOL    HW133368   9.697   0.432  14.135
43845SOL    HW233369   9.653   0.480  13.999
43846SOL     OW33370   8.672   6.437  10.920
43846SOL    HW133371   8.765   6.447  10.898
43846SOL    HW233372   8.660   6.491  10.999
43847SOL     OW33373   4.743   6.465  10.154
43847SOL    HW133374   4.770   6.406  10.224
43847SOL    HW233375   4.774   6.422  10.074
43848SOL     OW33376   4.058   4.642   2.428
43848SOL    HW133377   4.070   4.685   2.513
43848SOL    HW233378   3.987   4.692   2.386
43849SOL     OW33379   5.894   0.749   7.205
43849SOL    HW133380   5.906   0.817   7.271
43849SOL    HW233381   5.800   0.743   7.193
43850SOL     OW33382   3.206   2.669   0.368
43850SOL    HW133383   3.230   2.706   0.283
43850SOL    HW233384   3.236   2.734   0.431
43851SOL     OW33385  14.382  14.300  12.871
43851SOL    HW133386  14.325  14.314  12.946
43851SOL    HW233387  14.453  14.362  12.883
43852SOL     OW33388   1.244   2.533  10.612
43852SOL    HW133389   1.209   2.444  10.611
43852SOL    HW233390   1.321   2.528  10.669
43853SOL     OW33391   0.024   6.634  10.345
43853SOL    HW133392  14.842   6.561  10.360
43853SOL    HW233393   0.111   6.595  10.352
43854SOL     OW33394  10.966   7.917   1.292
43854SOL    HW133395  11.036   7.980   1.273
43854SOL    HW233396  10.953   7.923   1.386
43855SOL     OW33397  14.301  12.267   0.105
43855SOL    HW133398  14.225  12.296   0.156
43855SOL    HW233399  14.263  12.238   0.021
43856SOL     OW33400   2.248  13.378   7.896
43856SOL    HW133401   2.185  13.307   7.898
43856SOL    HW233402   2.196  13.456   7.875
43857SOL     OW33403   0.357   1.287   7.906
43857SOL    HW133404   0.269   1.307   7.939
43857SOL    HW233405   0.413   1.354   7.945
43858SOL     OW33406  12.180   1.008   2.523
43858SOL    HW133407  12.137   1.093   2.517
43858SOL    HW233408  12.197   0.996   2.617
43859SOL     OW33409   6.812  13.785  11.345
43859SOL    HW133410   6.848  13.709  11.391
43859SOL    HW233411   6.752  13.748  11.281
43860SOL     OW33412   7.594  10.590  11.101
43860SOL    HW133413   7.680  10.627  11.079
43860SOL    HW233414   7.610  10.542  11.183
43861SOL     OW33415   2.992  12.846  14.412
43861SOL    HW133416   2.943  12.768  14.440
43861SOL    HW233417   2.926  12.900  14.368
43862SOL     OW33418  11.041   3.365  14.864
43862SOL    HW133419  11.105   3.424  14.823
43862SOL    HW233420  10.997   3.323  14.790
43863SOL     OW33421   7.110  12.142   6.289
43863SOL    HW133422   7.019  12.167   6.273
43863SOL    HW233423   7.122  12.063   6.236
43864SOL     OW33424   6.969   3.419   5.078
43864SOL    HW133425   6.998   3.477   5.008
43864SOL    HW233426   6.953   3.335   5.035
43865SOL     OW33427   2.423  14.859   2.442
43865SOL    HW133428   2.424   0.066   2.400
43865SOL    HW233429   2.512  14.848   2.477
43866SOL     OW33430   3.663  13.715  11.648
43866SOL    HW133431   3.669  13.800  11.692
43866SOL    HW233432   3.579  13.717  11.602
43867SOL     OW33433   5.067  10.909   1.902
43867SOL    HW133434   5.115  10.983   1.864
43867SOL    HW233435   5.134  10.844   1.921
43868SOL     OW33436   2.422  11.704   6.919
43868SOL    HW133437   2.489  11.736   6.858
43868SOL    HW233438   2.420  11.609   6.905
43869SOL     OW33439   3.401   6.064   5.854
43869SOL    HW133440   3.389   6.158   5.868
43869SOL    HW233441   3.483   6.043   5.899
43870SOL     OW33442   8.663  13.374   6.189
43870SOL    HW133443   8.732  13.380   6.255
43870SOL    HW233444   8.583  13.402   6.235
43871SOL     OW33445   3.902   6.411  12.885
43871SOL    HW133446   3.859   6.496  12.871
43871SOL    HW233447   3.912   6.375  12.797
43872SOL     OW33448   5.918  14.548   9.513
43872SOL    HW133449   6.004  14.546   9.555
43872SOL    HW233450   5.860  14.585   9.580
43873SOL     OW33451  11.679  12.802   4.780
43873SOL    HW133452  11.617  12.818   4.708
43873SOL    HW233453  11.764  12.826   4.744
43874SOL     OW33454   3.245   4.049   1.489
43874SOL    HW133455   3.288   3.981   1.437
43874SOL    HW233456   3.244   4.126   1.432
43875SOL     OW33457   2.978  14.208  12.221
43875SOL    HW133458   2.911  14.274  12.208
43875SOL    HW233459   2.963  14.175  12.309
43876SOL     OW33460   2.897   8.950   9.779
43876SOL    HW133461   2.901   9.015   9.709
43876SOL    HW233462   2.951   8.878   9.747
43877SOL     OW33463  14.273   1.010   9.434
43877SOL    HW133464  14.285   1.094   9.480
43877SOL    HW233465  14.341   1.009   9.367
43878SOL     OW33466  12.809   7.682   2.699
43878SOL    HW133467  12.898   7.700   2.731
43878SOL    HW233468  12.822   7.638   2.615
43879SOL     OW33469   2.453   4.792  12.379
43879SOL    HW133470   2.465   4.886  12.369
43879SOL    HW233471   2.394   4.767  12.307
43880SOL     OW33472   4.361   9.256   6.993
43880SOL    HW133473   4.403   9.221   6.915
43880SOL    HW233474   4.323   9.339   6.966
43881SOL     OW33475   7.299   1.550  14.223
43881SOL    HW133476   7.381   1.502  14.209
43881SOL    HW233477   7.242   1.486  14.266
43882SOL     OW33478   0.080   3.817   7.216
43882SOL    HW133479   0.074   3.803   7.121
43882SOL    HW233480   0.030   3.745   7.254
43883SOL     OW33481  10.216   5.193   2.625
43883SOL    HW133482  10.223   5.154   2.712
43883SOL    HW233483  10.295   5.247   2.617
43884SOL     OW33484   6.725   6.676  10.492
43884SOL    HW133485   6.755   6.762  10.522
43884SOL    HW233486   6.796   6.645  10.436
43885SOL     OW33487   7.735   8.642   9.121
43885SOL    HW133488   7.822   8.661   9.156
43885SOL    HW233489   7.676   8.693   9.175
43886SOL     OW33490   8.874   1.845   5.276
43886SOL    HW133491   8.779   1.840   5.285
43886SOL    HW233492   8.896   1.935   5.298
43887SOL     OW33493   1.628  10.777   6.939
43887SOL    HW133494   1.582  10.740   7.015
43887SOL    HW233495   1.582  10.859   6.921
43888SOL     OW33496  13.038   2.060  12.963
43888SOL    HW133497  12.948   2.091  12.965
43888SOL    HW233498  13.038   1.983  13.019
43889SOL     OW33499   1.201  12.530   6.211
43889SOL    HW133500   1.272  12.594   6.203
43889SOL    HW233501   1.142  12.550   6.139
43890SOL     OW33502   4.091   8.806   2.403
43890SOL    HW133503   4.116   8.762   2.484
43890SOL    HW233504   4.153   8.773   2.338
43891SOL     OW33505   0.825  11.351   3.984
43891SOL    HW133506   0.822  11.260   3.954
43891SOL    HW233507   0.894  11.352   4.051
43892SOL     OW33508  13.389   8.567   9.450
43892SOL    HW133509  13.352   8.512   9.519
43892SOL    HW233510  13.322   8.632   9.433
43893SOL     OW33511  11.568   9.750   8.780
43893SOL    HW133512  11.473   9.765   8.777
43893SOL    HW233513  11.585   9.691   8.707
43894SOL     OW33514  10.815   8.149   2.652
43894SOL    HW133515  10.845   8.062   2.623
43894SOL    HW233516  10.775   8.134   2.737
43895SOL     OW33517   4.350   3.467   5.419
43895SOL    HW133518   4.418   3.468   5.352
43895SOL    HW233519   4.394   3.500   5.497
43896SOL     OW33520  10.330  13.362  11.816
43896SOL    HW133521  10.393  13.321  11.876
43896SOL    HW233522  10.384  13.411  11.754
43897SOL     OW33523  11.702   8.993  11.446
43897SOL    HW133524  11.777   9.051  11.431
43897SOL    HW233525  11.628   9.038  11.406
43898SOL     OW33526   9.923   8.243   0.519
43898SOL    HW133527   9.956   8.161   0.554
43898SOL    HW233528   9.999   8.284   0.478
43899SOL     OW33529  12.320  12.156   7.010
43899SOL    HW133530  12.334  12.098   6.935
43899SOL    HW233531  12.400  12.208   7.015
43900SOL     OW33532  13.901   8.107   1.716
43900SOL    HW133533  13.949   8.026   1.727
43900SOL    HW233534  13.869   8.105   1.626
43901SOL     OW33535   5.442  14.348  14.478
43901SOL    HW133536   5.451  14.288  14.552
43901SOL    HW233537   5.428  14.291  14.403
43902SOL     OW33538   2.363  10.659  14.335
43902SOL    HW133539   2.299  10.594  14.305
43902SOL    HW233540   2.441  10.607  14.356
43903SOL     OW33541  12.655  14.134   4.893
43903SOL    HW133542  12.645  14.195   4.966
43903SOL    HW233543  12.580  14.153   4.836
43904SOL     OW33544   6.452   4.445   5.779
43904SOL    HW133545   6.533   4.482   5.745
43904SOL    HW233546   6.480   4.380   5.843
43905SOL     OW33547   7.913  13.316   6.105
43905SOL    HW133548   7.962  13.397   6.124
43905SOL    HW233549   7.869  13.333   6.022
43906SOL     OW33550   8.265   1.812  14.565
43906SOL    HW133551   8.325   1.766  14.506
43906SOL    HW233552   8.247   1.895  14.521
43907SOL     OW33553  11.030   8.542  14.718
43907SOL    HW133554  11.030   8.507  14.808
43907SOL    HW233555  11.080   8.624  14.725
43908SOL     OW33556  11.510  11.127  14.074
43908SOL    HW133557  11.548  11.147  13.988
43908SOL    HW233558  11.465  11.207  14.100
43909SOL     OW33559   0.497   4.575  13.153
43909SOL    HW133560   0.428   4.622  13.200
43909SOL    HW233561   0.578   4.611  13.188
43910SOL     OW33562   6.277   7.440   7.624
43910SOL    HW133563   6.226   7.512   7.662
43910SOL    HW233564   6.211   7.377   7.596
43911SOL     OW33565   4.896   4.019  10.121
43911SOL    HW133566   4.961   4.005  10.190
43911SOL    HW233567   4.819   4.050  10.167
43912SOL     OW33568   4.740  11.274  11.718
43912SOL    HW133569   4.802  11.203  11.737
43912SOL    HW233570   4.719  11.310  11.804
43913SOL     OW33571   3.445  10.568   1.858
43913SOL    HW133572   3.385  10.530   1.923
43913SOL    HW233573   3.462  10.656   1.891
43914SOL     OW33574  11.460  11.319  13.267
43914SOL    HW133575  11.383  11.339  13.321
43914SOL    HW233576  11.476  11.401  13.219
43915SOL     OW33577  14.552   8.162   4.690
43915SOL    HW133578  14.570   8.238   4.745
43915SOL    HW233579  14.621   8.164   4.624
43916SOL     OW33580   9.683  14.373   1.449
43916SOL    HW133581   9.695  14.300   1.511
43916SOL    HW233582   9.750  14.437   1.475
43917SOL     OW33583  11.947   5.066   1.436
43917SOL    HW133584  12.025   5.064   1.492
43917SOL    HW233585  11.972   5.124   1.364
43918SOL     OW33586   3.545   9.766   3.106
43918SOL    HW133587   3.626   9.798   3.068
43918SOL    HW233588   3.512   9.702   3.043
43919SOL     OW33589   1.295   4.406   6.726
43919SOL    HW133590   1.216   4.438   6.682
43919SOL    HW233591   1.265   4.334   6.781
43920SOL     OW33592  14.734   0.773  14.276
43920SOL    HW133593  14.716   0.866  14.264
43920SOL    HW233594  14.649   0.734  14.297
43921SOL     OW33595  10.213   0.488  11.485
43921SOL    HW133596  10.283   0.474  11.548
43921SOL    HW233597  10.257   0.486  11.399
43922SOL     OW33598   0.863  12.174   2.420
43922SOL    HW133599   0.930  12.106   2.413
43922SOL    HW233600   0.909  12.249   2.457
43923SOL     OW33601   6.447   9.363   1.605
43923SOL    HW133602   6.515   9.431   1.605
43923SOL    HW233603   6.381   9.395   1.544
43924SOL     OW33604   2.802   7.872   2.821
43924SOL    HW133605   2.884   7.823   2.826
43924SOL    HW233606   2.733   7.807   2.835
43925SOL     OW33607   7.919   9.875   7.162
43925SOL    HW133608   7.867   9.916   7.231
43925SOL    HW233609   7.983   9.822   7.209
43926SOL     OW33610  11.161   9.521  10.134
43926SOL    HW133611  11.136   9.514  10.042
43926SOL    HW233612  11.101   9.587  10.170
43927SOL     OW33613   7.229   4.343  13.758
43927SOL    HW133614   7.157   4.369  13.700
43927SOL    HW233615   7.185   4.306  13.835
43928SOL     OW33616  12.841   4.751   6.923
43928SOL    HW133617  12.820   4.799   7.003
43928SOL    HW233618  12.871   4.819   6.862
43929SOL     OW33619  11.129   8.167  12.034
43929SOL    HW133620  11.059   8.126  11.984
43929SOL    HW233621  11.209   8.143  11.987
43930SOL     OW33622  12.476   1.567   1.353
43930SOL    HW133623  12.534   1.535   1.285
43930SOL    HW233624  12.397   1.594   1.307
43931SOL     OW33625   0.394   5.815   4.972
43931SOL    HW133626   0.324   5.792   4.912
43931SOL    HW233627   0.377   5.907   4.994
43932SOL     OW33628   0.096   7.951   5.967
43932SOL    HW133629   0.145   7.997   6.035
43932SOL    HW233630   0.140   7.866   5.959
43933SOL     OW33631   0.531  12.411  13.153
43933SOL    HW133632   0.513  12.421  13.060
43933SOL    HW233633   0.594  12.339  13.158
43934SOL     OW33634  12.727   8.017  12.152
43934SOL    HW133635  12.663   8.006  12.222
43934SOL    HW233636  12.797   8.069  12.192
43935SOL     OW33637   7.938  11.061   1.156
43935SOL    HW133638   7.864  11.081   1.098
43935SOL    HW233639   7.962  10.971   1.134
43936SOL     OW33640   9.080  10.898   8.147
43936SOL    HW133641   9.123  10.981   8.170
43936SOL    HW233642   9.076  10.849   8.229
43937SOL     OW33643   5.758   0.758   0.257
43937SOL    HW133644   5.686   0.805   0.214
43937SOL    HW233645   5.835   0.779   0.205
43938SOL     OW33646   1.058  10.485   1.227
43938SOL    HW133647   1.031  10.429   1.300
43938SOL    HW233648   1.069  10.572   1.266
43939SOL     OW33649   2.771   6.977   5.193
43939SOL    HW133650   2.857   6.967   5.152
43939SOL    HW233651   2.710   6.975   5.120
43940SOL     OW33652   2.346   2.496   6.690
43940SOL    HW133653   2.323   2.588   6.706
43940SOL    HW233654   2.411   2.500   6.619
43941SOL     OW33655   7.464  13.216   6.562
43941SOL    HW133656   7.522  13.292   6.566
43941SOL    HW233657   7.449  13.192   6.653
43942SOL     OW33658   7.771   2.452   7.528
43942SOL    HW133659   7.821   2.379   7.492
43942SOL    HW233660   7.680   2.423   7.525
43943SOL     OW33661  13.993   4.282   2.611
43943SOL    HW133662  13.960   4.298   2.699
43943SOL    HW233663  14.018   4.189   2.611
43944SOL     OW33664  14.341   8.312  10.861
43944SOL    HW133665  14.255   8.275  10.878
43944SOL    HW233666  14.401   8.258  10.912
43945SOL     OW33667  12.525  11.257  12.247
43945SOL    HW133668  12.586  11.268  12.175
43945SOL    HW233669  12.490  11.345  12.263
43946SOL     OW33670   0.187   1.151   3.552
43946SOL    HW133671   0.094   1.154   3.572
43946SOL    HW233672   0.214   1.243   3.549
43947SOL     OW33673   8.435   6.742  12.659
43947SOL    HW133674   8.383   6.744  12.579
43947SOL    HW233675   8.524   6.725  12.630
43948SOL     OW33676  10.997   2.382   3.593
43948SOL    HW133677  10.940   2.429   3.653
43948SOL    HW233678  11.026   2.305   3.642
43949SOL     OW33679   3.606   7.907  10.454
43949SOL    HW133680   3.634   7.816  10.460
43949SOL    HW233681   3.650   7.942  10.376
43950SOL     OW33682  14.267  13.328   6.283
43950SOL    HW133683  14.206  13.376   6.227
43950SOL    HW233684  14.307  13.263   6.225
43951SOL     OW33685   2.045  13.042   5.124
43951SOL    HW133686   2.108  13.070   5.058
43951SOL    HW233687   2.099  13.018   5.199
43952SOL     OW33688  10.121  12.847   2.326
43952SOL    HW133689  10.063  12.915   2.293
43952SOL    HW233690  10.207  12.889   2.332
43953SOL     OW33691  10.637  11.545   1.732
43953SOL    HW133692  10.619  11.466   1.782
43953SOL    HW233693  10.562  11.556   1.675
43954SOL     OW33694   5.443  10.973   7.938
43954SOL    HW133695   5.468  10.969   7.846
43954SOL    HW233696   5.500  11.040   7.975
43955SOL     OW33697   1.090  13.242  10.418
43955SOL    HW133698   1.007  13.276  10.450
43955SOL    HW233699   1.116  13.302  10.348
43956SOL     OW33700   8.281  11.044  14.785
43956SOL    HW133701   8.349  11.010  14.844
43956SOL    HW233702   8.253  11.126  14.824
43957SOL     OW33703  11.942   3.318   7.089
43957SOL    HW133704  11.960   3.389   7.152
43957SOL    HW233705  11.861   3.345   7.046
43958SOL     OW33706   5.511   1.411   0.276
43958SOL    HW133707   5.543   1.438   0.190
43958SOL    HW233708   5.518   1.316   0.276
43959SOL     OW33709  12.962   5.617   0.220
43959SOL    HW133710  12.960   5.630   0.315
43959SOL    HW233711  12.872   5.629   0.192
43960SOL     OW33712   4.057   1.422   3.700
43960SOL    HW133713   3.999   1.401   3.774
43960SOL    HW233714   4.013   1.495   3.656
43961SOL     OW33715   4.283   9.396   4.284
43961SOL    HW133716   4.284   9.486   4.250
43961SOL    HW233717   4.375   9.368   4.280
43962SOL     OW33718  11.405   0.963   9.287
43962SOL    HW133719  11.339   1.027   9.311
43962SOL    HW233720  11.372   0.922   9.207
43963SOL     OW33721  13.063  14.307   2.538
43963SOL    HW133722  13.142  14.340   2.496
43963SOL    HW233723  12.993  14.322   2.474
43964SOL     OW33724  10.918  10.990   3.221
43964SOL    HW133725  10.994  10.945   3.257
43964SOL    HW233726  10.903  10.948   3.136
43965SOL     OW33727  11.234  13.497   7.109
43965SOL    HW133728  11.262  13.443   7.035
43965SOL    HW233729  11.221  13.435   7.181
43966SOL     OW33730   8.172  14.568   9.833
43966SOL    HW133731   8.200  14.630   9.765
43966SOL    HW233732   8.206  14.604   9.914
43967SOL     OW33733   0.939   5.956   5.150
43967SOL    HW133734   0.863   5.898   5.148
43967SOL    HW233735   0.930   6.010   5.072
43968SOL     OW33736   9.470  14.843   3.568
43968SOL    HW133737   9.396  14.783   3.561
43968SOL    HW233738   9.430   0.051   3.574
43969SOL     OW33739   5.803   8.133   8.238
43969SOL    HW133740   5.767   8.044   8.243
43969SOL    HW233741   5.775   8.165   8.153
43970SOL     OW33742   0.659  13.619  10.474
43970SOL    HW133743   0.581  13.581  10.516
43970SOL    HW233744   0.634  13.629  10.382
43971SOL     OW33745  13.030   0.215  12.262
43971SOL    HW133746  13.068   0.193  12.177
43971SOL    HW233747  13.074   0.296  12.289
43972SOL     OW33748   9.494   6.759   2.985
43972SOL    HW133749   9.434   6.702   2.936
43972SOL    HW233750   9.501   6.838   2.932
43973SOL     OW33751   0.663  12.135  11.971
43973SOL    HW133752   0.758  12.147  11.970
43973SOL    HW233753   0.634  12.179  12.051
43974SOL     OW33754   2.285   9.131   3.530
43974SOL    HW133755   2.229   9.152   3.605
43974SOL    HW233756   2.324   9.046   3.553
43975SOL     OW33757   5.411  14.817  13.244
43975SOL    HW133758   5.412  14.789  13.153
43975SOL    HW233759   5.376  14.742  13.292
43976SOL     OW33760  10.781  12.828   9.070
43976SOL    HW133761  10.792  12.823   8.975
43976SOL    HW233762  10.748  12.917   9.086
43977SOL     OW33763   0.550   5.055  10.533
43977SOL    HW133764   0.592   5.140  10.540
43977SOL    HW233765   0.463   5.074  10.498
43978SOL     OW33766   6.238  14.531   3.246
43978SOL    HW133767   6.307  14.545   3.311
43978SOL    HW233768   6.179  14.467   3.286
43979SOL     OW33769  10.147   4.986   4.067
43979SOL    HW133770  10.124   4.987   4.160
43979SOL    HW233771  10.067   5.013   4.022
43980SOL     OW33772   1.077   2.597   6.340
43980SOL    HW133773   1.145   2.530   6.351
43980SOL    HW233774   1.125   2.678   6.324
43981SOL     OW33775  13.825   4.056  11.524
43981SOL    HW133776  13.818   3.974  11.476
43981SOL    HW233777  13.814   4.124  11.457
43982SOL     OW33778  10.239   8.921   0.206
43982SOL    HW133779  10.159   8.973   0.200
43982SOL    HW233780  10.307   8.984   0.228
43983SOL     OW33781   7.485   5.621   4.854
43983SOL    HW133782   7.428   5.561   4.806
43983SOL    HW233783   7.435   5.703   4.858
43984SOL     OW33784  14.063   6.532   5.573
43984SOL    HW133785  14.078   6.529   5.479
43984SOL    HW233786  13.995   6.598   5.585
43985SOL     OW33787   9.225   3.034   9.400
43985SOL    HW133788   9.293   3.026   9.333
43985SOL    HW233789   9.174   3.110   9.373
43986SOL     OW33790   7.991   0.230   5.398
43986SOL    HW133791   7.907   0.272   5.415
43986SOL    HW233792   8.032   0.224   5.484
43987SOL     OW33793   6.963   7.103   1.216
43987SOL    HW133794   7.056   7.110   1.192
43987SOL    HW233795   6.933   7.193   1.222
43988SOL     OW33796   6.067   6.698   6.638
43988SOL    HW133797   6.072   6.761   6.710
43988SOL    HW233798   6.156   6.665   6.629
43989SOL     OW33799   0.602   2.220   6.758
43989SOL    HW133800   0.676   2.182   6.711
43989SOL    HW233801   0.554   2.271   6.692
43990SOL     OW33802   8.919   3.681   2.615
43990SOL    HW133803   8.878   3.716   2.694
43990SOL    HW233804   8.849   3.630   2.573
43991SOL     OW33805  13.259  12.995  13.606
43991SOL    HW133806  13.201  12.922  13.629
43991SOL    HW233807  13.294  13.024  13.690
43992SOL     OW33808   4.415   3.459  14.469
43992SOL    HW133809   4.418   3.554  14.481
43992SOL    HW233810   4.419   3.446  14.375
43993SOL     OW33811   8.861   1.991   7.877
43993SOL    HW133812   8.931   1.934   7.910
43993SOL    HW233813   8.832   2.041   7.953
43994SOL     OW33814  13.746  10.863   9.170
43994SOL    HW133815  13.670  10.877   9.113
43994SOL    HW233816  13.768  10.771   9.158
43995SOL     OW33817   5.735  12.297  12.225
43995SOL    HW133818   5.797  12.324  12.158
43995SOL    HW233819   5.675  12.371  12.234
43996SOL     OW33820   1.257   9.645   5.028
43996SOL    HW133821   1.310   9.724   5.017
43996SOL    HW233822   1.320   9.578   5.056
43997SOL     OW33823   0.459   5.533  13.217
43997SOL    HW133824   0.378   5.490  13.242
43997SOL    HW233825   0.528   5.471  13.240
43998SOL     OW33826   1.081   2.011  13.440
43998SOL    HW133827   1.065   2.069  13.366
43998SOL    HW233828   1.151   2.053  13.490
43999SOL     OW33829   6.224   2.413   3.995
43999SOL    HW133830   6.167   2.342   3.967
43999SOL    HW233831   6.312   2.374   3.994
44000SOL     OW33832   0.667   5.805   9.196
44000SOL    HW133833   0.724   5.778   9.124
44000SOL    HW233834   0.668   5.730   9.256
44001SOL     OW33835  12.284   3.555   4.110
44001SOL    HW133836  12.280   3.632   4.054
44001SOL    HW233837  12.367   3.562   4.157
44002SOL     OW33838   1.500  10.006   4.988
44002SOL    HW133839   1.413  10.043   5.002
44002SOL    HW233840   1.538  10.000   5.076
44003SOL     OW33841   5.987   3.649  14.493
44003SOL    HW133842   5.935   3.578  14.455
44003SOL    HW233843   5.927   3.696  14.550
44004SOL     OW33844  11.838   2.028   5.220
44004SOL    HW133845  11.754   1.982   5.229
44004SOL    HW233846  11.839   2.057   5.129
44005SOL     OW33847   6.407   7.891   4.836
44005SOL    HW133848   6.320   7.851   4.834
44005SOL    HW233849   6.447   7.858   4.917
44006SOL     OW33850   4.667  12.807   2.023
44006SOL    HW133851   4.597  12.765   1.973
44006SOL    HW233852   4.691  12.742   2.089
44007SOL     OW33853   3.737   7.632  10.761
44007SOL    HW133854   3.660   7.581  10.734
44007SOL    HW233855   3.802   7.612  10.694
44008SOL     OW33856  13.857   1.979   1.876
44008SOL    HW133857  13.795   1.907   1.871
44008SOL    HW233858  13.937   1.940   1.911
44009SOL     OW33859  13.507  13.767   5.154
44009SOL    HW133860  13.531  13.835   5.091
44009SOL    HW233861  13.411  13.768   5.154
44010SOL     OW33862   2.025   3.371  12.207
44010SOL    HW133863   2.089   3.379  12.278
44010SOL    HW233864   1.978   3.290  12.225
44011SOL     OW33865  14.675   0.141   2.989
44011SOL    HW133866  14.754   0.153   3.042
44011SOL    HW233867  14.701   0.081   2.920
44012SOL     OW33868  11.095   3.981   2.021
44012SOL    HW133869  11.131   3.902   2.063
44012SOL    HW233870  11.058   4.031   2.094
44013SOL     OW33871  11.412  10.168  13.523
44013SOL    HW133872  11.438  10.121  13.444
44013SOL    HW233873  11.460  10.124  13.594
44014SOL     OW33874   9.974   0.987  12.488
44014SOL    HW133875   9.907   1.028  12.543
44014SOL    HW233876  10.002   1.056  12.429
44015SOL     OW33877  13.572   4.704   8.318
44015SOL    HW133878  13.548   4.669   8.232
44015SOL    HW233879  13.593   4.796   8.302
44016SOL     OW33880   6.943  13.870   4.988
44016SOL    HW133881   7.032  13.846   4.963
44016SOL    HW233882   6.900  13.787   5.010
44017SOL     OW33883   8.810   8.856  13.332
44017SOL    HW133884   8.850   8.770  13.320
44017SOL    HW233885   8.730   8.852  13.281
44018SOL     OW33886   0.180  14.237   5.414
44018SOL    HW133887   0.200  14.270   5.502
44018SOL    HW233888   0.194  14.142   5.421
44019SOL     OW33889   3.760  13.098   7.198
44019SOL    HW133890   3.705  13.022   7.221
44019SOL    HW233891   3.764  13.149   7.279
44020SOL     OW33892   8.391   4.065  12.689
44020SOL    HW133893   8.298   4.073  12.667
44020SOL    HW233894   8.393   4.064  12.785
44021SOL     OW33895   6.619  10.874   4.656
44021SOL    HW133896   6.627  10.785   4.623
44021SOL    HW233897   6.625  10.930   4.579
44022SOL     OW33898  11.096   7.969   7.447
44022SOL    HW133899  11.155   7.957   7.373
44022SOL    HW233900  11.026   7.905   7.434
44023SOL     OW33901   4.759  13.309   8.453
44023SOL    HW133902   4.748  13.236   8.391
44023SOL    HW233903   4.761  13.267   8.539
44024SOL     OW33904   2.990   4.761   1.985
44024SOL    HW133905   2.917   4.700   1.988
44024SOL    HW233906   3.014   4.765   1.892
44025SOL     OW33907  11.407   1.358  11.775
44025SOL    HW133908  11.382   1.366  11.867
44025SOL    HW233909  11.382   1.442  11.736
44026SOL     OW33910   4.043   4.798   1.217
44026SOL    HW133911   4.106   4.758   1.277
44026SOL    HW233912   4.037   4.736   1.144
44027SOL     OW33913   3.576   1.204   3.328
44027SOL    HW133914   3.621   1.283   3.299
44027SOL    HW233915   3.511   1.187   3.260
44028SOL     OW33916   5.588   2.966   5.139
44028SOL    HW133917   5.605   3.057   5.116
44028SOL    HW233918   5.646   2.948   5.214
44029SOL     OW33919  12.764   1.655   3.825
44029SOL    HW133920  12.682   1.628   3.868
44029SOL    HW233921  12.741   1.665   3.733
44030SOL     OW33922  10.921  13.416  10.731
44030SOL    HW133923  11.000  13.409  10.677
44030SOL    HW233924  10.909  13.329  10.768
44031SOL     OW33925  10.148   8.809  11.024
44031SOL    HW133926  10.073   8.817  10.964
44031SOL    HW233927  10.129   8.731  11.076
44032SOL     OW33928  13.071   2.221  10.999
44032SOL    HW133929  13.019   2.150  11.037
44032SOL    HW233930  13.080   2.198  10.907
44033SOL     OW33931  12.317   5.214   1.384
44033SOL    HW133932  12.280   5.162   1.456
44033SOL    HW233933  12.275   5.300   1.394
44034SOL     OW33934   2.174  13.741  14.602
44034SOL    HW133935   2.097  13.688  14.582
44034SOL    HW233936   2.174  13.810  14.536
44035SOL     OW33937   4.677  14.126  11.102
44035SOL    HW133938   4.770  14.106  11.109
44035SOL    HW233939   4.662  14.138  11.009
44036SOL     OW33940   8.223   5.222   4.882
44036SOL    HW133941   8.236   5.160   4.953
44036SOL    HW233942   8.223   5.308   4.924
44037SOL     OW33943  13.270  11.621  12.088
44037SOL    HW133944  13.241  11.664  12.008
44037SOL    HW233945  13.190  11.586  12.127
44038SOL     OW33946   6.329   9.760   7.739
44038SOL    HW133947   6.404   9.702   7.727
44038SOL    HW233948   6.369   9.847   7.754
44039SOL     OW33949  11.984   0.042   3.350
44039SOL    HW133950  11.997   0.067   3.442
44039SOL    HW233951  12.036   0.105   3.301
44040SOL     OW33952   6.675  14.675   6.306
44040SOL    HW133953   6.606  14.661   6.241
44040SOL    HW233954   6.630  14.665   6.391
44041SOL     OW33955   4.859   1.216   9.335
44041SOL    HW133956   4.787   1.269   9.368
44041SOL    HW233957   4.818   1.156   9.272
44042SOL     OW33958  13.197  10.276   6.223
44042SOL    HW133959  13.266  10.229   6.176
44042SOL    HW233960  13.121  10.217   6.218
44043SOL     OW33961  12.577   9.406  11.183
44043SOL    HW133962  12.483   9.398  11.194
44043SOL    HW233963  12.588   9.460  11.104
44044SOL     OW33964   1.956   6.688   1.067
44044SOL    HW133965   2.020   6.740   1.019
44044SOL    HW233966   1.942   6.610   1.014
44045SOL     OW33967   7.060   1.969   6.705
44045SOL    HW133968   6.965   1.962   6.703
44045SOL    HW233969   7.091   1.880   6.691
44046SOL     OW33970  10.716  10.681   7.563
44046SOL    HW133971  10.677  10.711   7.481
44046SOL    HW233972  10.708  10.755   7.622
44047SOL     OW33973   4.296  13.042   1.178
44047SOL    HW133974   4.352  13.051   1.101
44047SOL    HW233975   4.283  13.131   1.209
44048SOL     OW33976   9.199   2.300  12.034
44048SOL    HW133977   9.193   2.336  12.122
44048SOL    HW233978   9.189   2.205  12.045
44049SOL     OW33979   4.537   4.705   6.959
44049SOL    HW133980   4.560   4.762   7.032
44049SOL    HW233981   4.442   4.702   6.960
44050SOL     OW33982   2.884   8.791   8.228
44050SOL    HW133983   2.911   8.748   8.309
44050SOL    HW233984   2.812   8.737   8.196
44051SOL     OW33985   1.836  12.250   5.140
44051SOL    HW133986   1.873  12.320   5.086
44051SOL    HW233987   1.834  12.287   5.229
44052SOL     OW33988   9.072  12.772  11.617
44052SOL    HW133989   9.039  12.775  11.707
44052SOL    HW233990   8.998  12.737  11.566
44053SOL     OW33991   4.449   5.207   4.087
44053SOL    HW133992   4.412   5.203   4.176
44053SOL    HW233993   4.542   5.192   4.100
44054SOL     OW33994   3.863  11.310   6.012
44054SOL    HW133995   3.801  11.334   6.080
44054SOL    HW233996   3.840  11.220   5.989
44055SOL     OW33997   8.981  14.434   1.145
44055SOL    HW133998   8.924  14.438   1.067
44055SOL    HW233999   8.920  14.426   1.218
44056SOL     OW34000  11.052   2.594   3.999
44056SOL    HW134001  11.075   2.575   4.090
44056SOL    HW234002  11.096   2.677   3.980
44057SOL     OW34003  11.378   7.419   2.436
44057SOL    HW134004  11.347   7.341   2.391
44057SOL    HW234005  11.468   7.399   2.462
44058SOL     OW34006   1.190   2.620  13.936
44058SOL    HW134007   1.261   2.561  13.963
44058SOL    HW234008   1.180   2.680  14.010
44059SOL     OW34009   1.651   7.235  10.837
44059SOL    HW134010   1.598   7.271  10.767
44059SOL    HW234011   1.683   7.151  10.803
44060SOL     OW34012   6.414  14.185   7.851
44060SOL    HW134013   6.500  14.204   7.889
44060SOL    HW234014   6.396  14.259   7.793
44061SOL     OW34015  12.507   7.653   3.324
44061SOL    HW134016  12.453   7.732   3.322
44061SOL    HW234017  12.559   7.657   3.244
44062SOL     OW34018   2.781   2.073  11.615
44062SOL    HW134019   2.803   2.125  11.692
44062SOL    HW234020   2.739   1.994  11.650
44063SOL     OW34021   6.514   6.214   9.652
44063SOL    HW134022   6.487   6.162   9.728
44063SOL    HW234023   6.509   6.305   9.683
44064SOL     OW34024  13.864   8.261  12.128
44064SOL    HW134025  13.795   8.308  12.081
44064SOL    HW234026  13.933   8.249  12.063
44065SOL     OW34027   2.178   1.441   2.712
44065SOL    HW134028   2.222   1.399   2.638
44065SOL    HW234029   2.225   1.410   2.789
44066SOL     OW34030  14.064   1.858  14.723
44066SOL    HW134031  14.049   1.768  14.695
44066SOL    HW234032  13.997   1.875  14.789
44067SOL     OW34033   5.441   1.513   1.254
44067SOL    HW134034   5.468   1.441   1.197
44067SOL    HW234035   5.459   1.592   1.203
44068SOL     OW34036  10.849   4.120   1.442
44068SOL    HW134037  10.817   4.110   1.532
44068SOL    HW234038  10.783   4.074   1.389
44069SOL     OW34039   4.951   1.548   4.412
44069SOL    HW134040   4.863   1.520   4.385
44069SOL    HW234041   4.969   1.498   4.491
44070SOL     OW34042  13.746  14.220   3.347
44070SOL    HW134043  13.810  14.286   3.321
44070SOL    HW234044  13.795  14.138   3.346
44071SOL     OW34045   1.041  10.209   7.254
44071SOL    HW134046   1.073  10.124   7.284
44071SOL    HW234047   0.972  10.189   7.191
44072SOL     OW34048  12.214  11.084   3.639
44072SOL    HW134049  12.193  11.091   3.546
44072SOL    HW234050  12.246  10.994   3.650
44073SOL     OW34051  12.784   4.346   9.217
44073SOL    HW134052  12.820   4.310   9.136
44073SOL    HW234053  12.721   4.412   9.187
44074SOL     OW34054   5.152   2.669   4.078
44074SOL    HW134055   5.132   2.739   4.016
44074SOL    HW234056   5.203   2.712   4.147
44075SOL     OW34057  11.029   3.443   6.175
44075SOL    HW134058  11.116   3.481   6.183
44075SOL    HW234059  11.034   3.388   6.097
44076SOL     OW34060  13.712   5.749   3.515
44076SOL    HW134061  13.639   5.700   3.552
44076SOL    HW234062  13.768   5.683   3.475
44077SOL     OW34063  10.343  11.064   3.016
44077SOL    HW134064  10.248  11.067   3.020
44077SOL    HW234065  10.367  10.995   3.078
44078SOL     OW34066   5.792  14.765   8.661
44078SOL    HW134067   5.793  14.779   8.566
44078SOL    HW234068   5.854  14.694   8.676
44079SOL     OW34069   4.185  10.770   4.856
44079SOL    HW134070   4.155  10.741   4.770
44079SOL    HW234071   4.105  10.780   4.907
44080SOL     OW34072  12.736   9.039   1.644
44080SOL    HW134073  12.806   9.006   1.700
44080SOL    HW234074  12.657   8.996   1.675
44081SOL     OW34075   2.761  12.522   2.265
44081SOL    HW134076   2.682  12.570   2.290
44081SOL    HW234077   2.744  12.432   2.294
44082SOL     OW34078  11.031   6.823   2.421
44082SOL    HW134079  11.018   6.918   2.419
44082SOL    HW234080  11.119   6.812   2.455
44083SOL     OW34081  11.528   9.133   2.180
44083SOL    HW134082  11.523   9.142   2.085
44083SOL    HW234083  11.479   9.054   2.200
44084SOL     OW34084   5.259   6.909   4.438
44084SOL    HW134085   5.240   6.859   4.358
44084SOL    HW234086   5.355   6.915   4.440
44085SOL     OW34087   8.750  11.605   1.216
44085SOL    HW134088   8.765  11.579   1.307
44085SOL    HW234089   8.752  11.701   1.218
44086SOL     OW34090   6.037   4.747  11.487
44086SOL    HW134091   6.026   4.750  11.392
44086SOL    HW234092   5.988   4.670  11.515
44087SOL     OW34093   8.967   0.649   2.853
44087SOL    HW134094   8.927   0.662   2.939
44087SOL    HW234095   8.950   0.558   2.832
44088SOL     OW34096   9.122   9.578  10.016
44088SOL    HW134097   9.054   9.511  10.022
44088SOL    HW234098   9.204   9.528  10.020
44089SOL     OW34099  10.110   9.833   4.145
44089SOL    HW134100  10.075   9.766   4.088
44089SOL    HW234101  10.195   9.799   4.175
44090SOL     OW34102   4.398  10.094   2.776
44090SOL    HW134103   4.357  10.022   2.823
44090SOL    HW234104   4.455  10.051   2.712
44091SOL     OW34105  13.511   0.483  11.440
44091SOL    HW134106  13.442   0.537  11.401
44091SOL    HW234107  13.482   0.393  11.425
44092SOL     OW34108   9.373   5.683   4.273
44092SOL    HW134109   9.357   5.609   4.331
44092SOL    HW234110   9.339   5.654   4.188
44093SOL     OW34111   3.796  12.840  11.902
44093SOL    HW134112   3.705  12.826  11.876
44093SOL    HW234113   3.791  12.862  11.995
44094SOL     OW34114   1.252   0.400  10.096
44094SOL    HW134115   1.321   0.458  10.066
44094SOL    HW234116   1.232   0.346  10.020
44095SOL     OW34117   3.629   3.727   9.031
44095SOL    HW134118   3.716   3.734   9.072
44095SOL    HW234119   3.571   3.774   9.091
44096SOL     OW34120   7.822   7.083   0.988
44096SOL    HW134121   7.889   7.126   1.042
44096SOL    HW234122   7.820   6.993   1.020
44097SOL     OW34123   4.961   3.240   0.804
44097SOL    HW134124   4.899   3.278   0.742
44097SOL    HW234125   5.030   3.305   0.813
44098SOL     OW34126  10.928   2.665   9.758
44098SOL    HW134127  10.929   2.647   9.664
44098SOL    HW234128  11.020   2.666   9.784
44099SOL     OW34129   8.939   8.841   2.879
44099SOL    HW134130   8.857   8.836   2.830
44099SOL    HW234131   8.921   8.905   2.949
44100SOL     OW34132  11.400   1.308   1.016
44100SOL    HW134133  11.378   1.249   0.944
44100SOL    HW234134  11.381   1.395   0.983
44101SOL     OW34135   4.710   5.776   4.843
44101SOL    HW134136   4.730   5.685   4.862
44101SOL    HW234137   4.743   5.824   4.919
44102SOL     OW34138   2.089   1.685   4.630
44102SOL    HW134139   2.158   1.743   4.597
44102SOL    HW234140   2.016   1.744   4.651
44103SOL     OW34141   6.126   2.371  14.143
44103SOL    HW134142   6.037   2.395  14.165
44103SOL    HW234143   6.129   2.276  14.154
44104SOL     OW34144   5.783  13.490   9.394
44104SOL    HW134145   5.693  13.456   9.386
44104SOL    HW234146   5.838  13.418   9.364
44105SOL     OW34147   0.536   8.931   4.463
44105SOL    HW134148   0.626   8.900   4.471
44105SOL    HW234149   0.531   8.968   4.375
44106SOL     OW34150   4.585  14.439   6.272
44106SOL    HW134151   4.588  14.520   6.322
44106SOL    HW234152   4.529  14.459   6.196
44107SOL     OW34153  10.536   3.612  10.750
44107SOL    HW134154  10.610   3.561  10.784
44107SOL    HW234155  10.543   3.604  10.655
44108SOL     OW34156   5.354   8.940  14.010
44108SOL    HW134157   5.428   8.986  14.050
44108SOL    HW234158   5.386   8.913  13.924
44109SOL     OW34159   5.374   0.850   7.087
44109SOL    HW134160   5.366   0.783   7.019
44109SOL    HW234161   5.438   0.912   7.053
44110SOL     OW34162   7.465   1.225  10.087
44110SOL    HW134163   7.543   1.185  10.049
44110SOL    HW234164   7.402   1.154  10.094
44111SOL     OW34165   0.910   8.771  10.041
44111SOL    HW134166   0.895   8.716   9.964
44111SOL    HW234167   0.910   8.710  10.115
44112SOL     OW34168   9.132   6.916   7.495
44112SOL    HW134169   9.085   6.834   7.478
44112SOL    HW234170   9.205   6.914   7.433
44113SOL     OW34171  13.280   1.613   6.540
44113SOL    HW134172  13.310   1.689   6.590
44113SOL    HW234173  13.245   1.649   6.459
44114SOL     OW34174   9.235   4.907   0.777
44114SOL    HW134175   9.308   4.851   0.750
44114SOL    HW234176   9.252   4.991   0.734
44115SOL     OW34177   8.815  12.227  12.069
44115SOL    HW134178   8.814  12.319  12.042
44115SOL    HW234179   8.723  12.200  12.065
44116SOL     OW34180   6.562   3.986   3.656
44116SOL    HW134181   6.521   3.931   3.722
44116SOL    HW234182   6.630   4.034   3.704
44117SOL     OW34183   5.632   9.762  10.133
44117SOL    HW134184   5.688   9.692  10.167
44117SOL    HW234185   5.672   9.843  10.166
44118SOL     OW34186   3.594   5.888   2.563
44118SOL    HW134187   3.640   5.944   2.501
44118SOL    HW234188   3.596   5.801   2.524
44119SOL     OW34189   1.294   2.819  12.308
44119SOL    HW134190   1.223   2.870  12.346
44119SOL    HW234191   1.340   2.880  12.250
44120SOL     OW34192   8.456   4.817   6.874
44120SOL    HW134193   8.483   4.736   6.832
44120SOL    HW234194   8.500   4.815   6.960
44121SOL     OW34195   4.749   7.655   4.349
44121SOL    HW134196   4.840   7.670   4.327
44121SOL    HW234197   4.711   7.742   4.359
44122SOL     OW34198   8.684   4.463   7.472
44122SOL    HW134199   8.752   4.467   7.540
44122SOL    HW234200   8.608   4.425   7.516
44123SOL     OW34201   9.665   8.539  13.342
44123SOL    HW134202   9.636   8.501  13.259
44123SOL    HW234203   9.761   8.537  13.337
44124SOL     OW34204   2.777   4.519   6.429
44124SOL    HW134205   2.701   4.477   6.388
44124SOL    HW234206   2.752   4.612   6.435
44125SOL     OW34207   6.901  12.606  13.061
44125SOL    HW134208   6.960  12.572  13.128
44125SOL    HW234209   6.862  12.527  13.022
44126SOL     OW34210   9.929  14.400   0.878
44126SOL    HW134211   9.921  14.493   0.898
44126SOL    HW234212  10.022  14.381   0.888
44127SOL     OW34213   9.728   2.534   0.376
44127SOL    HW134214   9.802   2.580   0.337
44127SOL    HW234215   9.653   2.560   0.323
44128SOL     OW34216   4.786   0.174   2.652
44128SOL    HW134217   4.861   0.115   2.644
44128SOL    HW234218   4.808   0.248   2.595
44129SOL     OW34219   2.476   6.331  10.623
44129SOL    HW134220   2.449   6.343  10.714
44129SOL    HW234221   2.488   6.419  10.589
44130SOL     OW34222   0.437   1.131  12.588
44130SOL    HW134223   0.428   1.106  12.496
44130SOL    HW234224   0.409   1.222  12.591
44131SOL     OW34225   7.925   5.887   1.426
44131SOL    HW134226   7.962   5.931   1.502
44131SOL    HW234227   7.979   5.808   1.416
44132SOL     OW34228  11.478   7.329   5.596
44132SOL    HW134229  11.417   7.366   5.660
44132SOL    HW234230  11.464   7.381   5.517
44133SOL     OW34231   6.602   1.804   7.900
44133SOL    HW134232   6.615   1.720   7.946
44133SOL    HW234233   6.677   1.811   7.841
44134SOL     OW34234   4.891   4.572  13.014
44134SOL    HW134235   4.970   4.593  12.965
44134SOL    HW234236   4.914   4.493  13.064
44135SOL     OW34237  14.200   3.560   5.439
44135SOL    HW134238  14.183   3.467   5.458
44135SOL    HW234239  14.124   3.606   5.474
44136SOL     OW34240   6.183   6.238  10.450
44136SOL    HW134241   6.160   6.331  10.450
44136SOL    HW234242   6.108   6.195  10.490
44137SOL     OW34243  12.307   1.508  13.677
44137SOL    HW134244  12.232   1.466  13.634
44137SOL    HW234245  12.278   1.598  13.694
44138SOL     OW34246   2.298   9.325  14.549
44138SOL    HW134247   2.348   9.363  14.477
44138SOL    HW234248   2.228   9.275  14.506
44139SOL     OW34249   3.394  12.641   2.562
44139SOL    HW134250   3.435  12.696   2.629
44139SOL    HW234251   3.450  12.652   2.485
44140SOL     OW34252   1.338   8.755  10.970
44140SOL    HW134253   1.359   8.768  10.878
44140SOL    HW234254   1.288   8.833  10.995
44141SOL     OW34255   0.301   3.770   0.833
44141SOL    HW134256   0.231   3.726   0.882
44141SOL    HW234257   0.295   3.862   0.859
44142SOL     OW34258   3.018   0.779  13.400
44142SOL    HW134259   3.071   0.843  13.447
44142SOL    HW234260   3.045   0.694  13.434
44143SOL     OW34261   9.412  13.109   9.993
44143SOL    HW134262   9.406  13.203   9.973
44143SOL    HW234263   9.371  13.066   9.918
44144SOL     OW34264   6.645  12.135   0.797
44144SOL    HW134265   6.619  12.121   0.888
44144SOL    HW234266   6.733  12.098   0.791
44145SOL     OW34267   8.350   7.319   5.964
44145SOL    HW134268   8.341   7.392   5.902
44145SOL    HW234269   8.361   7.361   6.049
44146SOL     OW34270   3.860  13.157  14.317
44146SOL    HW134271   3.904  13.242  14.327
44146SOL    HW234272   3.799  13.153  14.391
44147SOL     OW34273  13.389   2.069   5.124
44147SOL    HW134274  13.312   2.112   5.161
44147SOL    HW234275  13.356   2.026   5.045
44148SOL     OW34276   4.563  11.717   1.842
44148SOL    HW134277   4.534  11.795   1.890
44148SOL    HW234278   4.551  11.740   1.750
44149SOL     OW34279   4.109   3.989  14.871
44149SOL    HW134280   4.016   3.984  14.847
44149SOL    HW234281   4.138   3.898  14.874
44150SOL     OW34282   9.926   8.769  10.818
44150SOL    HW134283   9.985   8.744  10.747
44150SOL    HW234284   9.878   8.844  10.783
44151SOL     OW34285  12.506   3.256   4.602
44151SOL    HW134286  12.580   3.200   4.625
44151SOL    HW234287  12.495   3.312   4.679
44152SOL     OW34288  10.339   3.767   1.041
44152SOL    HW134289  10.269   3.730   1.095
44152SOL    HW234290  10.358   3.851   1.082
44153SOL     OW34291   9.710   3.923  12.317
44153SOL    HW134292   9.739   3.835  12.339
44153SOL    HW234293   9.763   3.980  12.373
44154SOL     OW34294   4.819   2.984   0.747
44154SOL    HW134295   4.860   3.071   0.747
44154SOL    HW234296   4.744   2.993   0.804
44155SOL     OW34297  13.875  14.079  11.816
44155SOL    HW134298  13.909  14.098  11.729
44155SOL    HW234299  13.780  14.076  11.804
44156SOL     OW34300   5.412   2.974   7.178
44156SOL    HW134301   5.320   2.986   7.156
44156SOL    HW234302   5.460   2.999   7.099
44157SOL     OW34303   0.898  10.423  14.606
44157SOL    HW134304   0.885  10.345  14.552
44157SOL    HW234305   0.880  10.496  14.546
44158SOL     OW34306   9.973   2.114  10.535
44158SOL    HW134307  10.021   2.196  10.552
44158SOL    HW234308   9.985   2.099  10.441
44159SOL     OW34309   2.009  12.271   0.476
44159SOL    HW134310   1.938  12.291   0.415
44159SOL    HW234311   2.014  12.175   0.476
44160SOL     OW34312   0.728   4.264   5.373
44160SOL    HW134313   0.636   4.284   5.384
44160SOL    HW234314   0.771   4.301   5.450
44161SOL     OW34315   2.749   4.018   8.316
44161SOL    HW134316   2.660   4.038   8.289
44161SOL    HW234317   2.784   4.101   8.349
44162SOL     OW34318  12.131   3.055   3.999
44162SOL    HW134319  12.173   3.139   4.019
44162SOL    HW234320  12.093   3.027   4.082
44163SOL     OW34321   1.215   4.586  11.044
44163SOL    HW134322   1.200   4.558  10.954
44163SOL    HW234323   1.145   4.543  11.094
44164SOL     OW34324  12.328   9.505  10.176
44164SOL    HW134325  12.332   9.600  10.163
44164SOL    HW234326  12.391   9.489  10.247
44165SOL     OW34327  13.649   9.283  13.752
44165SOL    HW134328  13.608   9.197  13.747
44165SOL    HW234329  13.684   9.289  13.841
44166SOL     OW34330   0.839  10.632   6.684
44166SOL    HW134331   0.815  10.705   6.627
44166SOL    HW234332   0.934  10.633   6.686
44167SOL     OW34333  11.600  13.468   5.374
44167SOL    HW134334  11.569  13.548   5.416
44167SOL    HW234335  11.643  13.419   5.444
44168SOL     OW34336  13.016  13.394  10.468
44168SOL    HW134337  12.989  13.449  10.394
44168SOL    HW234338  13.104  13.424  10.489
44169SOL     OW34339   4.040   7.060   2.574
44169SOL    HW134340   3.949   7.043   2.550
44169SOL    HW234341   4.070   6.978   2.613
44170SOL     OW34342   3.695   6.919   4.715
44170SOL    HW134343   3.762   6.890   4.777
44170SOL    HW234344   3.722   6.882   4.631
44171SOL     OW34345   4.696  13.951   5.141
44171SOL    HW134346   4.715  13.905   5.224
44171SOL    HW234347   4.734  13.894   5.074
44172SOL     OW34348   0.200   8.971  12.932
44172SOL    HW134349   0.108   8.991  12.916
44172SOL    HW234350   0.242   8.979  12.847
44173SOL     OW34351  11.896   9.600   1.951
44173SOL    HW134352  11.816   9.600   1.897
44173SOL    HW234353  11.964   9.568   1.892
44174SOL     OW34354   6.417  13.231  14.015
44174SOL    HW134355   6.403  13.137  14.020
44174SOL    HW234356   6.353  13.269  14.075
44175SOL     OW34357   8.844  13.125   1.666
44175SOL    HW134358   8.765  13.120   1.720
44175SOL    HW234359   8.830  13.201   1.610
44176SOL     OW34360   3.028   5.931   0.383
44176SOL    HW134361   3.104   5.948   0.439
44176SOL    HW234362   3.060   5.867   0.319
44177SOL     OW34363  10.347   3.137   7.565
44177SOL    HW134364  10.327   3.227   7.590
44177SOL    HW234365  10.441   3.129   7.576
44178SOL     OW34366  13.794  10.336   9.005
44178SOL    HW134367  13.841  10.420   9.004
44178SOL    HW234368  13.719  10.351   8.948
44179SOL     OW34369  14.780  14.754  12.913
44179SOL    HW134370  14.731  14.755  12.831
44179SOL    HW234371  14.856  14.811  12.896
44180SOL     OW34372   6.156  11.267  13.225
44180SOL    HW134373   6.115  11.288  13.308
44180SOL    HW234374   6.141  11.345  13.171
44181SOL     OW34375   4.132  10.575   7.094
44181SOL    HW134376   4.206  10.583   7.034
44181SOL    HW234377   4.141  10.487   7.132
44182SOL     OW34378  13.547   4.669   4.786
44182SOL    HW134379  13.463   4.628   4.769
44182SOL    HW234380  13.609   4.597   4.788
44183SOL     OW34381   3.538   4.554   4.482
44183SOL    HW134382   3.610   4.602   4.523
44183SOL    HW234383   3.579   4.505   4.410
44184SOL     OW34384   9.954  12.307   0.684
44184SOL    HW134385   9.990  12.269   0.764
44184SOL    HW234386   9.988  12.252   0.613
44185SOL     OW34387  10.044   7.400  10.136
44185SOL    HW134388  10.012   7.489  10.120
44185SOL    HW234389   9.968   7.344  10.123
44186SOL     OW34390   9.305   1.997   3.172
44186SOL    HW134391   9.334   2.055   3.243
44186SOL    HW234392   9.305   1.910   3.212
44187SOL     OW34393   5.168   5.363  10.260
44187SOL    HW134394   5.219   5.437  10.227
44187SOL    HW234395   5.229   5.314  10.316
44188SOL     OW34396   5.962   4.984   2.459
44188SOL    HW134397   5.964   4.905   2.513
44188SOL    HW234398   6.054   5.006   2.446
44189SOL     OW34399   5.580   6.011  13.179
44189SOL    HW134400   5.632   6.072  13.127
44189SOL    HW234401   5.597   6.037  13.270
44190SOL     OW34402   1.279   8.542  11.636
44190SOL    HW134403   1.346   8.481  11.668
44190SOL    HW234404   1.316   8.578  11.555
44191SOL     OW34405  12.484  14.850   7.401
44191SOL    HW134406  12.459   0.054   7.359
44191SOL    HW234407  12.495  14.873   7.493
44192SOL     OW34408   4.509   6.941   8.760
44192SOL    HW134409   4.492   6.853   8.724
44192SOL    HW234410   4.439   6.954   8.824
44193SOL     OW34411   8.005  14.192   2.208
44193SOL    HW134412   8.070  14.236   2.153
44193SOL    HW234413   7.921  14.229   2.179
44194SOL     OW34414  13.501   3.601   2.478
44194SOL    HW134415  13.435   3.548   2.522
44194SOL    HW234416  13.584   3.574   2.519
44195SOL     OW34417  11.626  13.237   4.655
44195SOL    HW134418  11.590  13.244   4.744
44195SOL    HW234419  11.562  13.282   4.600
44196SOL     OW34420   3.180  10.339   5.620
44196SOL    HW134421   3.270  10.305   5.617
44196SOL    HW234422   3.169  10.385   5.536
44197SOL     OW34423   0.687   0.502  12.202
44197SOL    HW134424   0.623   0.556  12.249
44197SOL    HW234425   0.635   0.453  12.139
44198SOL     OW34426   1.234  12.395  12.006
44198SOL    HW134427   1.229  12.426  12.096
44198SOL    HW234428   1.281  12.312  12.011
44199SOL     OW34429  10.442  10.319  14.660
44199SOL    HW134430  10.411  10.228  14.666
44199SOL    HW234431  10.443  10.350  14.751
44200SOL     OW34432  13.037   3.129  12.504
44200SOL    HW134433  12.953   3.100  12.541
44200SOL    HW234434  13.033   3.224  12.508
44201SOL     OW34435   0.505   6.491   0.560
44201SOL    HW134436   0.591   6.489   0.519
44201SOL    HW234437   0.445   6.459   0.493
44202SOL     OW34438   8.405   7.236   1.829
44202SOL    HW134439   8.403   7.165   1.764
44202SOL    HW234440   8.496   7.263   1.832
44203SOL     OW34441   9.721   2.066   0.619
44203SOL    HW134442   9.662   1.998   0.651
44203SOL    HW234443   9.676   2.104   0.544
44204SOL     OW34444  11.469  14.461  14.198
44204SOL    HW134445  11.378  14.458  14.227
44204SOL    HW234446  11.502  14.372  14.209
44205SOL     OW34447   1.008   6.577   6.598
44205SOL    HW134448   1.071   6.590   6.668
44205SOL    HW234449   0.940   6.643   6.613
44206SOL     OW34450   5.401   7.110  11.157
44206SOL    HW134451   5.389   7.016  11.146
44206SOL    HW234452   5.456   7.118  11.235
44207SOL     OW34453  14.014   5.320   0.653
44207SOL    HW134454  14.068   5.364   0.588
44207SOL    HW234455  13.971   5.250   0.605
44208SOL     OW34456   1.669   8.315   8.956
44208SOL    HW134457   1.667   8.250   9.026
44208SOL    HW234458   1.609   8.281   8.890
44209SOL     OW34459   8.840  13.463   1.774
44209SOL    HW134460   8.931  13.441   1.755
44209SOL    HW234461   8.838  13.559   1.778
44210SOL     OW34462   1.668   7.563  11.746
44210SOL    HW134463   1.668   7.473  11.712
44210SOL    HW234464   1.728   7.610  11.688
44211SOL     OW34465   0.442   1.576  13.724
44211SOL    HW134466   0.480   1.645  13.671
44211SOL    HW234467   0.419   1.619  13.806
44212SOL     OW34468   2.240   4.859  11.559
44212SOL    HW134469   2.296   4.785  11.534
44212SOL    HW234470   2.237   4.915  11.482
44213SOL     OW34471   0.684   1.142   5.734
44213SOL    HW134472   0.654   1.233   5.734
44213SOL    HW234473   0.745   1.137   5.808
44214SOL     OW34474   5.077  10.132   7.444
44214SOL    HW134475   5.003  10.150   7.502
44214SOL    HW234476   5.152  10.125   7.502
44215SOL     OW34477   1.217   3.875   5.529
44215SOL    HW134478   1.158   3.822   5.582
44215SOL    HW234479   1.261   3.932   5.593
44216SOL     OW34480   1.848  12.657   8.573
44216SOL    HW134481   1.814  12.742   8.545
44216SOL    HW234482   1.809  12.643   8.660
44217SOL     OW34483  11.907   2.528   4.066
44217SOL    HW134484  11.880   2.488   4.149
44217SOL    HW234485  11.836   2.588   4.044
44218SOL     OW34486   7.371   6.820   2.834
44218SOL    HW134487   7.377   6.881   2.761
44218SOL    HW234488   7.462   6.801   2.857
44219SOL     OW34489   0.801  13.759   8.723
44219SOL    HW134490   0.727  13.797   8.771
44219SOL    HW234491   0.818  13.676   8.768
44220SOL     OW34492   2.141  13.793  10.434
44220SOL    HW134493   2.228  13.832  10.433
44220SOL    HW234494   2.132  13.757  10.522
44221SOL     OW34495   8.563   2.358   5.638
44221SOL    HW134496   8.570   2.337   5.545
44221SOL    HW234497   8.628   2.302   5.680
44222SOL     OW34498   6.459  10.258  12.587
44222SOL    HW134499   6.411  10.265  12.504
44222SOL    HW234500   6.499  10.344  12.599
44223SOL     OW34501   6.289  10.898   3.193
44223SOL    HW134502   6.265  10.813   3.155
44223SOL    HW234503   6.309  10.953   3.117
44224SOL     OW34504   6.454   7.824   7.593
44224SOL    HW134505   6.394   7.827   7.668
44224SOL    HW234506   6.445   7.735   7.558
44225SOL     OW34507   2.275  11.885   7.375
44225SOL    HW134508   2.275  11.792   7.353
44225SOL    HW234509   2.199  11.921   7.329
44226SOL     OW34510   7.552   8.994   4.944
44226SOL    HW134511   7.598   9.048   4.880
44226SOL    HW234512   7.561   8.905   4.912
44227SOL     OW34513  10.874   3.069   5.336
44227SOL    HW134514  10.898   3.160   5.354
44227SOL    HW234515  10.785   3.074   5.303
44228SOL     OW34516   3.632  10.312   3.011
44228SOL    HW134517   3.711  10.352   2.974
44228SOL    HW234518   3.606  10.372   3.081
44229SOL     OW34519  12.307   9.800   8.582
44229SOL    HW134520  12.317   9.860   8.508
44229SOL    HW234521  12.395   9.793   8.618
44230SOL     OW34522  13.284   6.894   9.336
44230SOL    HW134523  13.291   6.969   9.277
44230SOL    HW234524  13.373   6.877   9.365
44231SOL     OW34525  14.290   1.878   2.506
44231SOL    HW134526  14.362   1.941   2.499
44231SOL    HW234527  14.308   1.814   2.437
44232SOL     OW34528  14.332  10.212  14.234
44232SOL    HW134529  14.331  10.229  14.328
44232SOL    HW234530  14.373  10.126  14.225
44233SOL     OW34531   0.378  14.106   0.801
44233SOL    HW134532   0.446  14.045   0.775
44233SOL    HW234533   0.373  14.169   0.728
44234SOL     OW34534   6.397   5.898  13.811
44234SOL    HW134535   6.331   5.848  13.761
44234SOL    HW234536   6.402   5.982  13.766
44235SOL     OW34537  14.800   7.112   7.185
44235SOL    HW134538   0.013   7.120   7.210
44235SOL    HW234539  14.800   7.114   7.089
44236SOL     OW34540  10.378   0.645   3.546
44236SOL    HW134541  10.284   0.629   3.544
44236SOL    HW234542  10.386   0.735   3.578
44237SOL     OW34543   1.467   0.299   4.029
44237SOL    HW134544   1.436   0.225   4.081
44237SOL    HW234545   1.560   0.281   4.015
44238SOL     OW34546  14.602   1.548   4.570
44238SOL    HW134547  14.656   1.624   4.545
44238SOL    HW234548  14.666   1.483   4.600
44239SOL     OW34549   0.385   3.690   5.102
44239SOL    HW134550   0.391   3.785   5.089
44239SOL    HW234551   0.305   3.665   5.056
44240SOL     OW34552  14.415  12.291   3.696
44240SOL    HW134553  14.376  12.234   3.762
44240SOL    HW234554  14.356  12.366   3.692
44241SOL     OW34555   7.298  10.223   0.203
44241SOL    HW134556   7.266  10.262   0.122
44241SOL    HW234557   7.219  10.196   0.250
44242SOL     OW34558   7.454   9.800  10.173
44242SOL    HW134559   7.492   9.814  10.260
44242SOL    HW234560   7.364   9.832  10.181
44243SOL     OW34561   9.901   6.538   1.910
44243SOL    HW134562   9.977   6.513   1.962
44243SOL    HW234563   9.863   6.612   1.957
44244SOL     OW34564   3.260   2.118   7.021
44244SOL    HW134565   3.317   2.044   6.997
44244SOL    HW234566   3.309   2.164   7.089
44245SOL     OW34567   2.099   5.467   8.490
44245SOL    HW134568   2.159   5.539   8.513
44245SOL    HW234569   2.072   5.431   8.575
44246SOL     OW34570   1.342   2.272   6.463
44246SOL    HW134571   1.302   2.222   6.534
44246SOL    HW234572   1.416   2.316   6.504
44247SOL     OW34573   7.780  12.393  14.473
44247SOL    HW134574   7.832  12.314  14.462
44247SOL    HW234575   7.728  12.377  14.553
44248SOL     OW34576  11.900   1.929   7.039
44248SOL    HW134577  11.947   1.854   7.075
44248SOL    HW234578  11.807   1.907   7.052
44249SOL     OW34579  13.616   4.885   6.197
44249SOL    HW134580  13.645   4.944   6.127
44249SOL    HW234581  13.690   4.882   6.257
44250SOL     OW34582   8.198  14.094   4.970
44250SOL    HW134583   8.132  14.042   4.924
44250SOL    HW234584   8.240  14.146   4.901
44251SOL     OW34585  12.039  10.933  10.750
44251SOL    HW134586  11.956  10.952  10.794
44251SOL    HW234587  12.080  11.019  10.740
44252SOL     OW34588   6.537   2.943   6.085
44252SOL    HW134589   6.540   2.903   5.998
44252SOL    HW234590   6.534   2.868   6.145
44253SOL     OW34591   3.173  11.786   7.202
44253SOL    HW134592   3.127  11.714   7.244
44253SOL    HW234593   3.119  11.863   7.219
44254SOL     OW34594   6.021   9.427   5.130
44254SOL    HW134595   5.989   9.336   5.133
44254SOL    HW234596   6.031   9.451   5.222
44255SOL     OW34597   7.852   2.938  14.481
44255SOL    HW134598   7.901   3.015  14.449
44255SOL    HW234599   7.895   2.864  14.438
44256SOL     OW34600   1.899  13.889   1.435
44256SOL    HW134601   1.906  13.949   1.508
44256SOL    HW234602   1.969  13.826   1.447
44257SOL     OW34603  11.478  11.169   7.370
44257SOL    HW134604  11.529  11.248   7.356
44257SOL    HW234605  11.481  11.122   7.286
44258SOL     OW34606   0.399   9.355   8.830
44258SOL    HW134607   0.494   9.344   8.819
44258SOL    HW234608   0.366   9.363   8.741
44259SOL     OW34609   1.933   3.186   9.407
44259SOL    HW134610   1.974   3.234   9.335
44259SOL    HW234611   1.965   3.229   9.486
44260SOL     OW34612   7.693   2.987   1.455
44260SOL    HW134613   7.667   3.079   1.468
44260SOL    HW234614   7.622   2.949   1.404
44261SOL     OW34615   3.732  13.690   4.157
44261SOL    HW134616   3.735  13.785   4.163
44261SOL    HW234617   3.651  13.672   4.108
44262SOL     OW34618  14.042   1.957  13.780
44262SOL    HW134619  13.983   2.020  13.739
44262SOL    HW234620  14.125   1.966  13.732
44263SOL     OW34621   2.257  10.412   7.803
44263SOL    HW134622   2.240  10.493   7.754
44263SOL    HW234623   2.187  10.408   7.868
44264SOL     OW34624  10.904   5.906   7.445
44264SOL    HW134625  10.852   5.950   7.377
44264SOL    HW234626  10.958   5.844   7.396
44265SOL     OW34627   9.648   5.956   3.246
44265SOL    HW134628   9.577   6.018   3.264
44265SOL    HW234629   9.614   5.901   3.175
44266SOL     OW34630   1.983  12.712   7.806
44266SOL    HW134631   1.988  12.705   7.710
44266SOL    HW234632   2.057  12.660   7.837
44267SOL     OW34633   4.324  12.980  14.110
44267SOL    HW134634   4.350  12.918  14.178
44267SOL    HW234635   4.258  12.934  14.059
44268SOL     OW34636  14.427  14.225   7.670
44268SOL    HW134637  14.422  14.163   7.596
44268SOL    HW234638  14.476  14.299   7.636
44269SOL     OW34639  10.984  14.386   3.303
44269SOL    HW134640  11.071  14.348   3.311
44269SOL    HW234641  10.970  14.397   3.209
44270SOL     OW34642   5.455   4.043   8.218
44270SOL    HW134643   5.429   4.034   8.127
44270SOL    HW234644   5.550   4.055   8.215
44271SOL     OW34645   5.687   0.700   8.548
44271SOL    HW134646   5.678   0.606   8.532
44271SOL    HW234647   5.597   0.733   8.548
44272SOL     OW34648  13.301  12.471  14.360
44272SOL    HW134649  13.266  12.504  14.443
44272SOL    HW234650  13.393  12.495  14.361
44273SOL     OW34651   3.867   3.449   9.701
44273SOL    HW134652   3.784   3.431   9.746
44273SOL    HW234653   3.920   3.370   9.717
44274SOL     OW34654  14.527  13.263   7.276
44274SOL    HW134655  14.543  13.274   7.183
44274SOL    HW234656  14.459  13.327   7.297
44275SOL     OW34657   5.098  13.540  14.713
44275SOL    HW134658   5.126  13.556  14.623
44275SOL    HW234659   5.056  13.454  14.710
44276SOL     OW34660  10.136   9.825   4.970
44276SOL    HW134661  10.111   9.901   4.917
44276SOL    HW234662  10.211   9.787   4.924
44277SOL     OW34663   2.857   5.523   6.257
44277SOL    HW134664   2.860   5.527   6.161
44277SOL    HW234665   2.813   5.440   6.276
44278SOL     OW34666   6.926   5.396  14.303
44278SOL    HW134667   6.910   5.321  14.245
44278SOL    HW234668   6.848   5.450  14.294
44279SOL     OW34669  13.752   8.893  13.563
44279SOL    HW134670  13.715   8.878  13.650
44279SOL    HW234671  13.804   8.972  13.572
44280SOL     OW34672   5.469   8.453   1.124
44280SOL    HW134673   5.504   8.364   1.134
44280SOL    HW234674   5.425   8.452   1.039
44281SOL     OW34675   9.692  10.402   2.937
44281SOL    HW134676   9.727  10.327   2.889
44281SOL    HW234677   9.620  10.366   2.988
44282SOL     OW34678  12.731   1.767   7.601
44282SOL    HW134679  12.649   1.723   7.623
44282SOL    HW234680  12.714   1.809   7.517
44283SOL     OW34681   1.026  12.421   3.290
44283SOL    HW134682   0.932  12.400   3.287
44283SOL    HW234683   1.030  12.512   3.318
44284SOL     OW34684  12.932   0.184   3.317
44284SOL    HW134685  12.841   0.175   3.288
44284SOL    HW234686  12.983   0.133   3.254
44285SOL     OW34687   8.064  14.322   2.866
44285SOL    HW134688   8.141  14.288   2.821
44285SOL    HW234689   8.019  14.374   2.800
44286SOL     OW34690   7.904  12.377   2.921
44286SOL    HW134691   7.991  12.388   2.883
44286SOL    HW234692   7.899  12.284   2.944
44287SOL     OW34693   2.423   5.088   5.684
44287SOL    HW134694   2.408   5.177   5.716
44287SOL    HW234695   2.440   5.037   5.763
44288SOL     OW34696   0.103   3.379  11.179
44288SOL    HW134697   0.179   3.348  11.129
44288SOL    HW234698   0.036   3.313  11.163
44289SOL     OW34699  13.009  13.305  11.185
44289SOL    HW134700  12.996  13.399  11.181
44289SOL    HW234701  13.002  13.283  11.278
44290SOL     OW34702   0.572  12.606  10.507
44290SOL    HW134703   0.526  12.523  10.496
44290SOL    HW234704   0.504  12.669  10.528
44291SOL     OW34705  10.001   1.097   7.158
44291SOL    HW134706   9.951   1.024   7.194
44291SOL    HW234707  10.047   1.061   7.083
44292SOL     OW34708   7.550  13.970   7.383
44292SOL    HW134709   7.622  13.975   7.319
44292SOL    HW234710   7.481  13.922   7.337
44293SOL     OW34711   2.396   9.402   1.521
44293SOL    HW134712   2.374   9.382   1.430
44293SOL    HW234713   2.312   9.423   1.562
44294SOL     OW34714   9.033   2.335  10.006
44294SOL    HW134715   8.949   2.377  10.026
44294SOL    HW234716   9.025   2.248  10.045
44295SOL     OW34717  12.008   7.271   4.094
44295SOL    HW134718  11.988   7.178   4.097
44295SOL    HW234719  11.922   7.314   4.101
44296SOL     OW34720   6.374   2.162  11.183
44296SOL    HW134721   6.333   2.203  11.259
44296SOL    HW234722   6.346   2.070  11.188
44297SOL     OW34723   7.676  11.323   2.947
44297SOL    HW134724   7.688  11.241   2.994
44297SOL    HW234725   7.699  11.391   3.011
44298SOL     OW34726  14.658   5.329   7.796
44298SOL    HW134727  14.728   5.355   7.737
44298SOL    HW234728  14.583   5.382   7.769
44299SOL     OW34729   5.020  10.800   4.111
44299SOL    HW134730   4.942  10.765   4.069
44299SOL    HW234731   5.012  10.775   4.203
44300SOL     OW34732  13.013   1.942  10.166
44300SOL    HW134733  13.102   1.963  10.137
44300SOL    HW234734  13.016   1.849  10.188
44301SOL     OW34735  14.161   9.643   8.449
44301SOL    HW134736  14.179   9.559   8.492
44301SOL    HW234737  14.246   9.687   8.445
44302SOL     OW34738   5.194   5.958   2.189
44302SOL    HW134739   5.186   5.899   2.265
44302SOL    HW234740   5.103   5.982   2.169
44303SOL     OW34741   4.396  13.118   4.048
44303SOL    HW134742   4.402  13.069   3.966
44303SOL    HW234743   4.447  13.197   4.033
44304SOL     OW34744  14.811   5.526  14.115
44304SOL    HW134745  14.763   5.585  14.173
44304SOL    HW234746   0.021   5.525  14.151
44305SOL     OW34747  13.727   7.902   9.414
44305SOL    HW134748  13.817   7.934   9.407
44305SOL    HW234749  13.696   7.936   9.498
44306SOL     OW34750  11.219   4.700  12.608
44306SOL    HW134751  11.261   4.664  12.530
44306SOL    HW234752  11.290   4.718  12.669
44307SOL     OW34753   7.876  10.766  10.589
44307SOL    HW134754   7.853  10.676  10.612
44307SOL    HW234755   7.852  10.818  10.665
44308SOL     OW34756   0.317  14.548   7.608
44308SOL    HW134757   0.357  14.602   7.676
44308SOL    HW234758   0.297  14.465   7.651
44309SOL     OW34759  11.280  11.314   6.984
44309SOL    HW134760  11.371  11.284   6.974
44309SOL    HW234761  11.246  11.263   7.057
44310SOL     OW34762   5.250  12.883  11.335
44310SOL    HW134763   5.197  12.952  11.296
44310SOL    HW234764   5.322  12.928  11.378
44311SOL     OW34765   9.191   2.857   6.787
44311SOL    HW134766   9.198   2.850   6.882
44311SOL    HW234767   9.104   2.822   6.767
44312SOL     OW34768   6.067  12.466   4.473
44312SOL    HW134769   6.125  12.507   4.537
44312SOL    HW234770   6.116  12.392   4.439
44313SOL     OW34771   1.551   5.245   6.322
44313SOL    HW134772   1.561   5.218   6.231
44313SOL    HW234773   1.498   5.324   6.318
44314SOL     OW34774   7.779   1.972  11.031
44314SOL    HW134775   7.833   1.948  11.106
44314SOL    HW234776   7.799   2.064  11.015
44315SOL     OW34777   3.383  10.264  10.475
44315SOL    HW134778   3.324  10.313  10.418
44315SOL    HW234779   3.324  10.215  10.533
44316SOL     OW34780   2.867   6.344   7.521
44316SOL    HW134781   2.884   6.437   7.512
44316SOL    HW234782   2.775   6.334   7.493
44317SOL     OW34783   3.116   2.711  10.932
44317SOL    HW134784   3.055   2.783  10.946
44317SOL    HW234785   3.202   2.753  10.931
44318SOL     OW34786  12.043   4.302   7.053
44318SOL    HW134787  12.060   4.395   7.036
44318SOL    HW234788  11.957   4.302   7.095
44319SOL     OW34789   8.137   8.509   0.783
44319SOL    HW134790   8.181   8.465   0.711
44319SOL    HW234791   8.185   8.480   0.861
44320SOL     OW34792   3.879   7.186  10.382
44320SOL    HW134793   3.951   7.230  10.337
44320SOL    HW234794   3.856   7.246  10.454
44321SOL     OW34795   5.026  10.563   1.830
44321SOL    HW134796   5.042  10.476   1.793
44321SOL    HW234797   5.114  10.596   1.851
44322SOL     OW34798   8.532  11.035   2.030
44322SOL    HW134799   8.550  11.104   1.965
44322SOL    HW234800   8.437  11.036   2.039
44323SOL     OW34801   9.438   1.198  11.848
44323SOL    HW134802   9.477   1.276  11.886
44323SOL    HW234803   9.420   1.222  11.757
44324SOL     OW34804   4.474   5.106  13.748
44324SOL    HW134805   4.569   5.093  13.749
44324SOL    HW234806   4.449   5.113  13.840
44325SOL     OW34807  10.177  10.342   0.367
44325SOL    HW134808  10.270  10.359   0.384
44325SOL    HW234809  10.177  10.273   0.301
44326SOL     OW34810  12.428   5.819   8.413
44326SOL    HW134811  12.344   5.772   8.414
44326SOL    HW234812  12.455   5.818   8.321
44327SOL     OW34813   5.459   9.926  11.599
44327SOL    HW134814   5.402  10.003  11.600
44327SOL    HW234815   5.398   9.852  11.605
44328SOL     OW34816  10.858   0.868  13.982
44328SOL    HW134817  10.910   0.943  13.954
44328SOL    HW234818  10.896   0.794  13.935
44329SOL     OW34819  10.586   2.703   1.044
44329SOL    HW134820  10.538   2.648   0.982
44329SOL    HW234821  10.670   2.720   1.002
44330SOL     OW34822  13.549   5.582   3.631
44330SOL    HW134823  13.513   5.572   3.720
44330SOL    HW234824  13.491   5.530   3.576
44331SOL     OW34825   1.280   6.454   9.043
44331SOL    HW134826   1.334   6.413   8.976
44331SOL    HW234827   1.231   6.522   8.997
44332SOL     OW34828   5.849  13.291   1.990
44332SOL    HW134829   5.921  13.354   1.989
44332SOL    HW234830   5.877  13.221   1.931
44333SOL     OW34831   7.094   1.540   5.726
44333SOL    HW134832   7.091   1.465   5.786
44333SOL    HW234833   7.123   1.613   5.779
44334SOL     OW34834   5.189   4.577  12.819
44334SOL    HW134835   5.238   4.611  12.893
44334SOL    HW234836   5.236   4.609  12.742
44335SOL     OW34837  12.880   2.718  13.819
44335SOL    HW134838  12.906   2.783  13.754
44335SOL    HW234839  12.881   2.635  13.772
44336SOL     OW34840   1.145   1.818   5.312
44336SOL    HW134841   1.201   1.845   5.238
44336SOL    HW234842   1.090   1.894   5.330
44337SOL     OW34843   2.424  13.118   2.912
44337SOL    HW134844   2.420  13.118   2.816
44337SOL    HW234845   2.381  13.036   2.937
44338SOL     OW34846   4.974  14.544   1.640
44338SOL    HW134847   5.035  14.549   1.713
44338SOL    HW234848   4.933  14.458   1.649
44339SOL     OW34849   2.405  11.130   1.893
44339SOL    HW134850   2.361  11.125   1.809
44339SOL    HW234851   2.364  11.061   1.946
44340SOL     OW34852   2.844   5.464   7.592
44340SOL    HW134853   2.897   5.447   7.670
44340SOL    HW234854   2.876   5.549   7.560
44341SOL     OW34855  12.520  13.746   7.755
44341SOL    HW134856  12.457  13.691   7.709
44341SOL    HW234857  12.600  13.694   7.758
44342SOL     OW34858   6.897   9.371   8.645
44342SOL    HW134859   6.945   9.447   8.679
44342SOL    HW234860   6.895   9.309   8.718
44343SOL     OW34861   8.721  11.596   2.616
44343SOL    HW134862   8.751  11.672   2.666
44343SOL    HW234863   8.664  11.549   2.676
44344SOL     OW34864  12.374   1.542   5.396
44344SOL    HW134865  12.294   1.566   5.349
44344SOL    HW234866  12.349   1.465   5.447
44345SOL     OW34867   6.505   3.874   7.184
44345SOL    HW134868   6.410   3.865   7.182
44345SOL    HW234869   6.526   3.926   7.107
44346SOL     OW34870   4.948  11.816  10.825
44346SOL    HW134871   4.877  11.764  10.863
44346SOL    HW234872   4.963  11.886  10.887
44347SOL     OW34873   7.358   9.084   3.755
44347SOL    HW134874   7.324   9.026   3.687
44347SOL    HW234875   7.281   9.115   3.801
44348SOL     OW34876  10.301   2.184   3.768
44348SOL    HW134877  10.255   2.207   3.849
44348SOL    HW234878  10.394   2.187   3.791
44349SOL     OW34879   1.934  10.686   7.414
44349SOL    HW134880   1.939  10.597   7.381
44349SOL    HW234881   2.025  10.714   7.425
44350SOL     OW34882   5.166   2.833   6.469
44350SOL    HW134883   5.108   2.851   6.395
44350SOL    HW234884   5.210   2.752   6.446
44351SOL     OW34885   0.407   6.957   9.186
44351SOL    HW134886   0.497   6.935   9.212
44351SOL    HW234887   0.378   7.021   9.251
44352SOL     OW34888   5.339   0.752   1.068
44352SOL    HW134889   5.361   0.714   1.153
44352SOL    HW234890   5.329   0.677   1.010
44353SOL     OW34891   7.710   3.992   9.156
44353SOL    HW134892   7.650   4.065   9.169
44353SOL    HW234893   7.749   4.007   9.070
44354SOL     OW34894   6.229   2.846   8.552
44354SOL    HW134895   6.225   2.934   8.589
44354SOL    HW234896   6.313   2.844   8.506
44355SOL     OW34897   5.606   0.474   7.572
44355SOL    HW134898   5.519   0.497   7.604
44355SOL    HW234899   5.647   0.558   7.550
44356SOL     OW34900  11.586   6.991   2.994
44356SOL    HW134901  11.618   7.066   3.045
44356SOL    HW234902  11.660   6.968   2.937
44357SOL     OW34903   6.663   4.415   0.179
44357SOL    HW134904   6.713   4.496   0.179
44357SOL    HW234905   6.590   4.431   0.239
44358SOL     OW34906   7.909   1.867   6.515
44358SOL    HW134907   7.982   1.822   6.474
44358SOL    HW234908   7.864   1.911   6.443
44359SOL     OW34909   1.989  13.994   0.900
44359SOL    HW134910   1.955  13.905   0.908
44359SOL    HW234911   1.927  14.048   0.947
44360SOL     OW34912  10.611  14.367   6.774
44360SOL    HW134913  10.620  14.446   6.722
44360SOL    HW234914  10.518  14.363   6.797
44361SOL     OW34915   5.157  12.007   3.961
44361SOL    HW134916   5.235  11.958   3.933
44361SOL    HW234917   5.140  12.068   3.889
44362SOL     OW34918   0.144  11.746   8.626
44362SOL    HW134919   0.156  11.655   8.601
44362SOL    HW234920   0.057  11.769   8.595
44363SOL     OW34921   2.505   9.247   0.129
44363SOL    HW134922   2.464   9.325   0.167
44363SOL    HW234923   2.490   9.255   0.035
44364SOL     OW34924   1.717  13.365  11.289
44364SOL    HW134925   1.775  13.324  11.352
44364SOL    HW234926   1.637  13.383  11.337
44365SOL     OW34927   6.893   7.704  10.863
44365SOL    HW134928   6.936   7.625  10.896
44365SOL    HW234929   6.839   7.673  10.791
44366SOL     OW34930  13.997   5.741   5.550
44366SOL    HW134931  14.085   5.719   5.519
44366SOL    HW234932  13.941   5.673   5.514
44367SOL     OW34933  11.630  10.252  14.776
44367SOL    HW134934  11.592  10.165  14.786
44367SOL    HW234935  11.724  10.239  14.782
44368SOL     OW34936   6.010   5.963  14.334
44368SOL    HW134937   5.935   5.958  14.274
44368SOL    HW234938   5.984   5.907  14.408
44369SOL     OW34939  13.857  13.904   2.843
44369SOL    HW134940  13.919  13.955   2.895
44369SOL    HW234941  13.842  13.825   2.896
44370SOL     OW34942  12.842   5.825   7.395
44370SOL    HW134943  12.937   5.827   7.409
44370SOL    HW234944  12.805   5.863   7.475
44371SOL     OW34945   9.648   3.263  12.318
44371SOL    HW134946   9.701   3.323  12.266
44371SOL    HW234947   9.642   3.303  12.404
44372SOL     OW34948  14.296  14.404   2.780
44372SOL    HW134949  14.274  14.431   2.869
44372SOL    HW234950  14.391  14.397   2.779
44373SOL     OW34951  12.082  10.566   5.141
44373SOL    HW134952  12.038  10.486   5.170
44373SOL    HW234953  12.173  10.555   5.167
44374SOL     OW34954  12.218  13.883  14.491
44374SOL    HW134955  12.203  13.934  14.412
44374SOL    HW234956  12.299  13.917  14.527
44375SOL     OW34957   4.403   9.616   3.953
44375SOL    HW134958   4.324   9.628   3.900
44375SOL    HW234959   4.420   9.521   3.950
44376SOL     OW34960  14.215  14.170   7.255
44376SOL    HW134961  14.186  14.221   7.180
44376SOL    HW234962  14.134  14.147   7.301
44377SOL     OW34963   0.141   6.466  13.755
44377SOL    HW134964   0.190   6.462  13.837
44377SOL    HW234965   0.059   6.422  13.774
44378SOL     OW34966   7.797   2.144  14.086
44378SOL    HW134967   7.757   2.096  14.013
44378SOL    HW234968   7.723   2.184  14.131
44379SOL     OW34969   4.276   8.717   4.725
44379SOL    HW134970   4.355   8.675   4.761
44379SOL    HW234971   4.204   8.665   4.760
44380SOL     OW34972   6.739   3.393   1.840
44380SOL    HW134973   6.694   3.356   1.916
44380SOL    HW234974   6.689   3.472   1.819
44381SOL     OW34975   1.375  13.027   9.895
44381SOL    HW134976   1.292  13.031   9.942
44381SOL    HW234977   1.367  12.951   9.838
44382SOL     OW34978   7.746  14.454   3.314
44382SOL    HW134979   7.816  14.397   3.283
44382SOL    HW234980   7.739  14.522   3.247
44383SOL     OW34981  13.824  13.194   6.195
44383SOL    HW134982  13.764  13.171   6.266
44383SOL    HW234983  13.872  13.270   6.227
44384SOL     OW34984   4.287   0.019   5.474
44384SOL    HW134985   4.300  14.820   5.420
44384SOL    HW234986   4.213  14.876   5.530
44385SOL     OW34987  12.045   4.990   4.599
44385SOL    HW134988  12.105   5.064   4.603
44385SOL    HW234989  11.971   5.021   4.547
44386SOL     OW34990  14.511   9.683  12.049
44386SOL    HW134991  14.582   9.746  12.039
44386SOL    HW234992  14.450   9.703  11.978
44387SOL     OW34993   8.402   3.319   5.094
44387SOL    HW134994   8.423   3.349   5.182
44387SOL    HW234995   8.442   3.384   5.036
44388SOL     OW34996   2.984  14.865  13.413
44388SOL    HW134997   3.057  14.862  13.475
44388SOL    HW234998   3.025   0.006  13.329
44389SOL     OW34999   0.872  13.220   1.830
44389SOL    HW135000   0.945  13.186   1.778
44389SOL    HW235001   0.913  13.250   1.911
44390SOL     OW35002   6.027   2.052   8.120
44390SOL    HW135003   6.066   2.029   8.036
44390SOL    HW235004   6.080   2.007   8.185
44391SOL     OW35005  11.388  12.409   5.500
44391SOL    HW135006  11.457  12.359   5.457
44391SOL    HW235007  11.328  12.433   5.429
44392SOL     OW35008   8.776  11.865  10.936
44392SOL    HW135009   8.823  11.942  10.904
44392SOL    HW235010   8.728  11.833  10.859
44393SOL     OW35011  11.836  10.948   4.249
44393SOL    HW135012  11.909  10.886   4.240
44393SOL    HW235013  11.866  11.027   4.203
44394SOL     OW35014   2.517   2.946   2.372
44394SOL    HW135015   2.435   2.916   2.411
44394SOL    HW235016   2.502   2.941   2.278
44395SOL     OW35017   3.277  10.080   4.203
44395SOL    HW135018   3.331  10.001   4.208
44395SOL    HW235019   3.340  10.152   4.204
44396SOL     OW35020  12.283   7.822  10.847
44396SOL    HW135021  12.266   7.758  10.915
44396SOL    HW235022  12.345   7.778  10.788
44397SOL     OW35023  13.140   5.634   0.849
44397SOL    HW135024  13.232   5.621   0.874
44397SOL    HW235025  13.145   5.689   0.771
44398SOL     OW35026  13.416  10.937  11.354
44398SOL    HW135027  13.462  10.884  11.419
44398SOL    HW235028  13.414  11.025  11.391
44399SOL     OW35029   4.910  11.064   7.680
44399SOL    HW135030   4.974  11.079   7.610
44399SOL    HW235031   4.909  10.969   7.692
44400SOL     OW35032   3.445   4.341  14.628
44400SOL    HW135033   3.440   4.245  14.630
44400SOL    HW235034   3.361   4.368  14.592
44401SOL     OW35035   8.522   6.892  14.500
44401SOL    HW135036   8.618   6.892  14.499
44401SOL    HW235037   8.497   6.900  14.408
44402SOL     OW35038  12.289  10.544   6.084
44402SOL    HW135039  12.333  10.479   6.030
44402SOL    HW235040  12.312  10.628   6.044
44403SOL     OW35041   4.128   0.671   5.896
44403SOL    HW135042   4.150   0.596   5.841
44403SOL    HW235043   4.136   0.639   5.985
44404SOL     OW35044   6.041   4.332   1.898
44404SOL    HW135045   6.029   4.421   1.931
44404SOL    HW235046   6.072   4.282   1.974
44405SOL     OW35047  12.035   8.746   4.058
44405SOL    HW135048  11.981   8.810   4.012
44405SOL    HW235049  12.082   8.797   4.124
44406SOL     OW35050   6.626   6.231   8.363
44406SOL    HW135051   6.639   6.227   8.268
44406SOL    HW235052   6.681   6.304   8.392
44407SOL     OW35053   2.001  12.928   3.564
44407SOL    HW135054   2.017  12.839   3.595
44407SOL    HW235055   2.035  12.984   3.633
44408SOL     OW35056   9.810  11.520   7.282
44408SOL    HW135057   9.782  11.602   7.242
44408SOL    HW235058   9.861  11.476   7.214
44409SOL     OW35059  12.114   3.182  13.793
44409SOL    HW135060  12.086   3.091  13.781
44409SOL    HW235061  12.034   3.227  13.822
44410SOL     OW35062   8.560   1.127  12.880
44410SOL    HW135063   8.607   1.199  12.838
44410SOL    HW235064   8.509   1.168  12.949
44411SOL     OW35065   6.270  12.747   5.135
44411SOL    HW135066   6.254  12.818   5.197
44411SOL    HW235067   6.242  12.668   5.181
44412SOL     OW35068  14.213  12.364  12.406
44412SOL    HW135069  14.293  12.384  12.359
44412SOL    HW235070  14.232  12.387  12.497
44413SOL     OW35071   4.864   6.541  13.764
44413SOL    HW135072   4.828   6.453  13.767
44413SOL    HW235073   4.859   6.566  13.672
44414SOL     OW35074   3.338   6.632  10.496
44414SOL    HW135075   3.394   6.603  10.568
44414SOL    HW235076   3.343   6.728  10.499
44415SOL     OW35077   6.843   0.870   8.360
44415SOL    HW135078   6.886   0.797   8.404
44415SOL    HW235079   6.888   0.879   8.276
44416SOL     OW35080  12.429  12.365   2.747
44416SOL    HW135081  12.402  12.451   2.779
44416SOL    HW235082  12.491  12.384   2.676
44417SOL     OW35083  11.481   7.648   2.718
44417SOL    HW135084  11.431   7.680   2.643
44417SOL    HW235085  11.541   7.720   2.738
44418SOL     OW35086   4.767   3.133   2.733
44418SOL    HW135087   4.777   3.055   2.679
44418SOL    HW235088   4.797   3.205   2.677
44419SOL     OW35089   8.352   7.866  10.889
44419SOL    HW135090   8.387   7.899  10.972
44419SOL    HW235091   8.272   7.818  10.913
44420SOL     OW35092  14.058   3.552   0.141
44420SOL    HW135093  14.039   3.487   0.074
44420SOL    HW235094  14.093   3.627   0.092
44421SOL     OW35095   9.868   9.627  13.300
44421SOL    HW135096   9.906   9.713  13.281
44421SOL    HW235097   9.774   9.640  13.288
44422SOL     OW35098   1.494  12.215  12.000
44422SOL    HW135099   1.524  12.288  11.946
44422SOL    HW235100   1.575  12.172  12.030
44423SOL     OW35101  13.890   3.907   8.041
44423SOL    HW135102  13.819   3.844   8.053
44423SOL    HW235103  13.904   3.908   7.946
44424SOL     OW35104   8.963  12.842   6.731
44424SOL    HW135105   8.933  12.811   6.817
44424SOL    HW235106   8.941  12.935   6.731
44425SOL     OW35107   7.108   5.489   7.151
44425SOL    HW135108   7.120   5.486   7.246
44425SOL    HW235109   7.181   5.437   7.117
44426SOL     OW35110   8.501   1.246  10.772
44426SOL    HW135111   8.496   1.150  10.773
44426SOL    HW235112   8.579   1.266  10.824
44427SOL     OW35113   3.059   9.264  10.991
44427SOL    HW135114   3.039   9.196  11.055
44427SOL    HW235115   3.063   9.345  11.041
44428SOL     OW35116  11.591   4.254   6.007
44428SOL    HW135117  11.516   4.240   5.949
44428SOL    HW235118  11.632   4.168   6.016
44429SOL     OW35119   5.824   2.244   0.883
44429SOL    HW135120   5.902   2.299   0.896
44429SOL    HW235121   5.850   2.157   0.913
44430SOL     OW35122  11.485   3.335  13.291
44430SOL    HW135123  11.549   3.340  13.362
44430SOL    HW235124  11.495   3.418  13.244
44431SOL     OW35125  12.192   7.851   0.256
44431SOL    HW135126  12.101   7.832   0.278
44431SOL    HW235127  12.236   7.766   0.258
44432SOL     OW35128   3.256   7.755   1.795
44432SOL    HW135129   3.350   7.742   1.805
44432SOL    HW235130   3.247   7.849   1.779
44433SOL     OW35131   3.730   6.843   2.065
44433SOL    HW135132   3.717   6.837   2.160
44433SOL    HW235133   3.758   6.933   2.050
44434SOL     OW35134   8.446   5.578   6.232
44434SOL    HW135135   8.441   5.652   6.292
44434SOL    HW235136   8.413   5.503   6.282
44435SOL     OW35137   4.742  10.582   3.599
44435SOL    HW135138   4.764  10.556   3.510
44435SOL    HW235139   4.818  10.557   3.651
44436SOL     OW35140  12.619   4.724   7.974
44436SOL    HW135141  12.612   4.720   7.878
44436SOL    HW235142  12.712   4.740   7.991
44437SOL     OW35143   2.387  11.201   9.077
44437SOL    HW135144   2.428  11.174   8.995
44437SOL    HW235145   2.460  11.233   9.130
44438SOL     OW35146  12.866  10.369   4.671
44438SOL    HW135147  12.795  10.320   4.713
44438SOL    HW235148  12.870  10.452   4.718
44439SOL     OW35149   0.136   7.769  11.949
44439SOL    HW135150   0.108   7.728  12.031
44439SOL    HW235151   0.117   7.703  11.882
44440SOL     OW35152   5.761   9.488   7.292
44440SOL    HW135153   5.696   9.555   7.269
44440SOL    HW235154   5.835   9.505   7.234
44441SOL     OW35155   4.943   0.569  13.184
44441SOL    HW135156   4.925   0.532  13.098
44441SOL    HW235157   4.863   0.555  13.234
44442SOL     OW35158  14.287   7.649  11.220
44442SOL    HW135159  14.368   7.663  11.268
44442SOL    HW235160  14.247   7.572  11.260
44443SOL     OW35161  12.346   3.745   5.182
44443SOL    HW135162  12.397   3.745   5.101
44443SOL    HW235163  12.304   3.659   5.183
44444SOL     OW35164   1.425   6.120   6.659
44444SOL    HW135165   1.494   6.181   6.683
44444SOL    HW235166   1.366   6.171   6.604
44445SOL     OW35167  13.297   6.956   5.995
44445SOL    HW135168  13.212   6.998   6.010
44445SOL    HW235169  13.279   6.887   5.931
44446SOL     OW35170  13.505   3.231   7.334
44446SOL    HW135171  13.542   3.194   7.253
44446SOL    HW235172  13.517   3.163   7.399
44447SOL     OW35173   8.184   4.961   6.182
44447SOL    HW135174   8.089   4.973   6.178
44447SOL    HW235175   8.219   5.048   6.200
44448SOL     OW35176  10.262   5.227   8.576
44448SOL    HW135177  10.167   5.235   8.566
44448SOL    HW235178  10.292   5.316   8.591
44449SOL     OW35179   1.260   0.680   5.103
44449SOL    HW135180   1.349   0.679   5.139
44449SOL    HW235181   1.268   0.727   5.020
44450SOL     OW35182   9.989   1.514   7.642
44450SOL    HW135183  10.042   1.593   7.643
44450SOL    HW235184  10.044   1.448   7.685
44451SOL     OW35185   2.065   7.821   8.062
44451SOL    HW135186   2.158   7.839   8.047
44451SOL    HW235187   2.055   7.728   8.042
44452SOL     OW35188   9.435  10.084   5.136
44452SOL    HW135189   9.525  10.054   5.152
44452SOL    HW235190   9.381  10.008   5.156
44453SOL     OW35191   4.896   3.351   7.166
44453SOL    HW135192   4.801   3.360   7.172
44453SOL    HW235193   4.912   3.325   7.075
44454SOL     OW35194   2.527  14.772   6.626
44454SOL    HW135195   2.622  14.778   6.627
44454SOL    HW235196   2.509  14.680   6.606
44455SOL     OW35197  14.610  13.045  13.389
44455SOL    HW135198  14.695  13.032  13.432
44455SOL    HW235199  14.546  13.015  13.454
44456SOL     OW35200   3.143   0.653   8.067
44456SOL    HW135201   3.051   0.627   8.070
44456SOL    HW235202   3.179   0.623   8.150
44457SOL     OW35203  11.473   2.494   0.544
44457SOL    HW135204  11.524   2.515   0.465
44457SOL    HW235205  11.537   2.498   0.615
44458SOL     OW35206   0.410   8.229  12.589
44458SOL    HW135207   0.494   8.275  12.599
44458SOL    HW235208   0.404   8.173  12.666
44459SOL     OW35209  12.025  12.823   3.710
44459SOL    HW135210  12.084  12.793   3.640
44459SOL    HW235211  11.983  12.743   3.741
44460SOL     OW35212   4.257   8.935   2.817
44460SOL    HW135213   4.308   8.861   2.784
44460SOL    HW235214   4.293   9.012   2.773
44461SOL     OW35215   6.639   9.836  14.008
44461SOL    HW135216   6.597   9.828  13.923
44461SOL    HW235217   6.567   9.847  14.070
44462SOL     OW35218  14.304   7.530   3.240
44462SOL    HW135219  14.223   7.512   3.288
44462SOL    HW235220  14.373   7.493   3.294
44463SOL     OW35221   3.768   7.941  13.285
44463SOL    HW135222   3.816   7.992  13.220
44463SOL    HW235223   3.686   7.990  13.298
44464SOL     OW35224   4.950  12.159   9.753
44464SOL    HW135225   5.004  12.181   9.677
44464SOL    HW235226   4.974  12.069   9.774
44465SOL     OW35227   0.249   8.419  12.500
44465SOL    HW135228   0.165   8.375  12.502
44465SOL    HW235229   0.309   8.359  12.544
44466SOL     OW35230  11.360   3.072  12.595
44466SOL    HW135231  11.378   3.095  12.504
44466SOL    HW235232  11.388   3.149  12.645
44467SOL     OW35233   2.594  13.687   7.362
44467SOL    HW135234   2.670  13.713   7.414
44467SOL    HW235235   2.520  13.694   7.423
44468SOL     OW35236   6.708  12.553   7.064
44468SOL    HW135237   6.769  12.480   7.075
44468SOL    HW235238   6.676  12.545   6.974
44469SOL     OW35239   1.128   6.125   7.445
44469SOL    HW135240   1.119   6.042   7.491
44469SOL    HW235241   1.040   6.163   7.445
44470SOL     OW35242   0.949   1.260   7.700
44470SOL    HW135243   0.972   1.172   7.730
44470SOL    HW235244   0.970   1.317   7.775
44471SOL     OW35245   5.111  10.897  11.649
44471SOL    HW135246   5.169  10.835  11.694
44471SOL    HW235247   5.044  10.841  11.610
44472SOL     OW35248   1.178   8.814   9.855
44472SOL    HW135249   1.139   8.730   9.880
44472SOL    HW235250   1.268   8.809   9.889
44473SOL     OW35251   9.591  11.469   1.853
44473SOL    HW135252   9.662  11.404   1.852
44473SOL    HW235253   9.635  11.553   1.867
44474SOL     OW35254   8.927  11.802   9.368
44474SOL    HW135255   8.910  11.725   9.421
44474SOL    HW235256   8.842  11.846   9.362
44475SOL     OW35257   7.333   5.579  11.650
44475SOL    HW135258   7.386   5.596  11.728
44475SOL    HW235259   7.247   5.555  11.684
44476SOL     OW35260   0.938  12.004   7.764
44476SOL    HW135261   0.970  12.054   7.839
44476SOL    HW235262   1.012  11.949   7.738
44477SOL     OW35263   2.434   9.495   6.830
44477SOL    HW135264   2.412   9.403   6.814
44477SOL    HW235265   2.492   9.519   6.757
44478SOL     OW35266   1.398   3.896  11.051
44478SOL    HW135267   1.336   3.950  11.001
44478SOL    HW235268   1.386   3.925  11.142
44479SOL     OW35269  13.133   4.179   4.227
44479SOL    HW135270  13.136   4.198   4.321
44479SOL    HW235271  13.077   4.102   4.220
44480SOL     OW35272   6.560  13.387  12.313
44480SOL    HW135273   6.542  13.476  12.283
44480SOL    HW235274   6.473  13.349  12.329
44481SOL     OW35275  13.783   4.050   1.846
44481SOL    HW135276  13.724   3.977   1.863
44481SOL    HW235277  13.773   4.107   1.923
44482SOL     OW35278  14.722   8.347  14.546
44482SOL    HW135279  14.748   8.258  14.523
44482SOL    HW235280  14.771   8.403  14.485
44483SOL     OW35281   0.500   3.972  13.863
44483SOL    HW135282   0.550   4.033  13.917
44483SOL    HW235283   0.412   3.972  13.901
44484SOL     OW35284  12.239   6.357   6.786
44484SOL    HW135285  12.166   6.360   6.725
44484SOL    HW235286  12.214   6.416   6.857
44485SOL     OW35287   8.952   7.620   8.909
44485SOL    HW135288   8.991   7.562   8.975
44485SOL    HW235289   8.866   7.582   8.892
44486SOL     OW35290   1.734   0.474   1.815
44486SOL    HW135291   1.761   0.519   1.734
44486SOL    HW235292   1.744   0.381   1.795
44487SOL     OW35293   3.364   1.044  11.548
44487SOL    HW135294   3.286   1.000  11.582
44487SOL    HW235295   3.420   0.973  11.517
44488SOL     OW35296  10.391   9.235   2.375
44488SOL    HW135297  10.398   9.326   2.345
44488SOL    HW235298  10.443   9.233   2.456
44489SOL     OW35299  14.675   6.853  13.665
44489SOL    HW135300  14.684   6.759  13.647
44489SOL    HW235301  14.751   6.893  13.624
44490SOL     OW35302   1.832   5.000  13.353
44490SOL    HW135303   1.884   4.956  13.420
44490SOL    HW235304   1.782   4.931  13.310
44491SOL     OW35305   8.288   0.208   3.691
44491SOL    HW135306   8.289   0.119   3.653
44491SOL    HW235307   8.372   0.216   3.735
44492SOL     OW35308   5.356   4.039   6.722
44492SOL    HW135309   5.444   4.067   6.697
44492SOL    HW235310   5.299   4.072   6.653
44493SOL     OW35311  13.949  12.031  13.558
44493SOL    HW135312  13.926  12.084  13.482
44493SOL    HW235313  13.913  12.079  13.633
44494SOL     OW35314   9.518  10.449   3.534
44494SOL    HW135315   9.502  10.357   3.557
44494SOL    HW235316   9.452  10.469   3.468
44495SOL     OW35317  13.647   7.961   0.936
44495SOL    HW135318  13.630   7.867   0.947
44495SOL    HW235319  13.561   8.002   0.948
44496SOL     OW35320   3.024  13.712  12.832
44496SOL    HW135321   2.941  13.667  12.851
44496SOL    HW235322   3.030  13.712  12.737
44497SOL     OW35323   5.615   3.660   0.251
44497SOL    HW135324   5.671   3.680   0.327
44497SOL    HW235325   5.590   3.569   0.263
44498SOL     OW35326   8.951   9.817   0.962
44498SOL    HW135327   8.983   9.747   0.906
44498SOL    HW235328   8.872   9.780   1.003
44499SOL     OW35329   6.992  14.108   8.542
44499SOL    HW135330   6.929  14.117   8.614
44499SOL    HW235331   7.035  14.193   8.537
44500SOL     OW35332   3.882   4.776   1.714
44500SOL    HW135333   3.814   4.817   1.768
44500SOL    HW235334   3.930   4.850   1.677
44501SOL     OW35335  14.709   0.183   1.316
44501SOL    HW135336  14.731   0.133   1.237
44501SOL    HW235337  14.771   0.256   1.315
44502SOL     OW35338  11.048  11.534   5.145
44502SOL    HW135339  11.038  11.582   5.227
44502SOL    HW235340  10.961  11.502   5.124
44503SOL     OW35341   9.595  13.603  10.844
44503SOL    HW135342   9.560  13.660  10.913
44503SOL    HW235343   9.591  13.657  10.765
44504SOL     OW35344   0.070  12.201   1.987
44504SOL    HW135345   0.156  12.162   1.969
44504SOL    HW235346   0.086  12.262   2.059
44505SOL     OW35347   5.747   2.229   3.000
44505SOL    HW135348   5.699   2.187   3.071
44505SOL    HW235349   5.825   2.266   3.042
44506SOL     OW35350   2.872   5.859  10.451
44506SOL    HW135351   2.894   5.946  10.418
44506SOL    HW235352   2.900   5.861  10.543
44507SOL     OW35353   0.987   9.763   9.729
44507SOL    HW135354   0.951   9.769   9.817
44507SOL    HW235355   0.991   9.669   9.710
44508SOL     OW35356   7.421   0.594  13.577
44508SOL    HW135357   7.329   0.620  13.574
44508SOL    HW235358   7.432   0.538  13.501
44509SOL     OW35359  10.167  12.247   8.694
44509SOL    HW135360  10.201  12.327   8.653
44509SOL    HW235361  10.239  12.215   8.748
44510SOL     OW35362   1.133   2.575  14.655
44510SOL    HW135363   1.165   2.630  14.584
44510SOL    HW235364   1.038   2.582  14.649
44511SOL     OW35365  12.515   6.129   0.690
44511SOL    HW135366  12.492   6.154   0.780
44511SOL    HW235367  12.445   6.166   0.636
44512SOL     OW35368  13.326   1.958   3.628
44512SOL    HW135369  13.362   2.014   3.559
44512SOL    HW235370  13.256   2.009   3.666
44513SOL     OW35371  13.646   5.336   0.314
44513SOL    HW135372  13.731   5.379   0.321
44513SOL    HW235373  13.593   5.395   0.261
44514SOL     OW35374   4.325   2.368   3.209
44514SOL    HW135375   4.297   2.356   3.118
44514SOL    HW235376   4.289   2.292   3.255
44515SOL     OW35377   8.604   6.989   5.710
44515SOL    HW135378   8.634   7.022   5.795
44515SOL    HW235379   8.510   7.008   5.708
44516SOL     OW35380   7.609   9.831  10.414
44516SOL    HW135381   7.660   9.847  10.335
44516SOL    HW235382   7.662   9.771  10.466
44517SOL     OW35383  12.935   0.039   2.805
44517SOL    HW135384  12.983  14.838   2.783
44517SOL    HW235385  12.866   0.044   2.740
44518SOL     OW35386  12.612   4.248   1.368
44518SOL    HW135387  12.596   4.318   1.432
44518SOL    HW235388  12.641   4.293   1.289
44519SOL     OW35389   2.644   2.048   7.354
44519SOL    HW135390   2.599   1.987   7.412
44519SOL    HW235391   2.607   2.031   7.268
44520SOL     OW35392  13.491   5.759   9.564
44520SOL    HW135393  13.454   5.845   9.585
44520SOL    HW235394  13.555   5.743   9.633
44521SOL     OW35395   3.407   0.674   0.829
44521SOL    HW135396   3.333   0.636   0.783
44521SOL    HW235397   3.473   0.687   0.762
44522SOL     OW35398   0.022   4.230   1.685
44522SOL    HW135399   0.077   4.181   1.747
44522SOL    HW235400  14.830   4.169   1.663
44523SOL     OW35401  12.606   7.129  11.956
44523SOL    HW135402  12.664   7.153  12.029
44523SOL    HW235403  12.518   7.153  11.988
44524SOL     OW35404   6.547  11.256   0.076
44524SOL    HW135405   6.570  11.197   0.147
44524SOL    HW235406   6.559  11.344   0.113
44525SOL     OW35407  13.600   8.925   4.821
44525SOL    HW135408  13.510   8.920   4.853
44525SOL    HW235409  13.600   8.875   4.739
44526SOL     OW35410   2.101   5.667   9.154
44526SOL    HW135411   2.179   5.698   9.199
44526SOL    HW235412   2.028   5.708   9.201
44527SOL     OW35413  11.256   5.718   1.938
44527SOL    HW135414  11.315   5.713   1.863
44527SOL    HW235415  11.242   5.627   1.963
44528SOL     OW35416  12.889  14.747  13.333
44528SOL    HW135417  12.946  14.815  13.368
44528SOL    HW235418  12.871  14.690  13.408
44529SOL     OW35419   3.126  11.542   0.460
44529SOL    HW135420   3.138  11.598   0.384
44529SOL    HW235421   3.033  11.545   0.479
44530SOL     OW35422   1.355   4.873   3.395
44530SOL    HW135423   1.416   4.916   3.335
44530SOL    HW235424   1.347   4.784   3.361
44531SOL     OW35425   0.021   8.398   0.465
44531SOL    HW135426  14.869   8.423   0.377
44531SOL    HW235427   0.036   8.481   0.509
44532SOL     OW35428  14.513  11.890   1.423
44532SOL    HW135429  14.437  11.840   1.453
44532SOL    HW235430  14.585  11.828   1.426
44533SOL     OW35431   7.595  10.131   8.534
44533SOL    HW135432   7.624  10.057   8.482
44533SOL    HW235433   7.664  10.197   8.523
44534SOL     OW35434  11.464  12.394  13.181
44534SOL    HW135435  11.380  12.354  13.162
44534SOL    HW235436  11.444  12.487  13.193
44535SOL     OW35437  10.564  10.774   0.234
44535SOL    HW135438  10.565  10.679   0.246
44535SOL    HW235439  10.571  10.787   0.140
44536SOL     OW35440  11.698  13.709   5.077
44536SOL    HW135441  11.711  13.748   4.990
44536SOL    HW235442  11.726  13.618   5.066
44537SOL     OW35443  10.528  10.029  10.386
44537SOL    HW135444  10.463  10.049  10.319
44537SOL    HW235445  10.610  10.067  10.353
44538SOL     OW35446   2.289   1.211   2.558
44538SOL    HW135447   2.200   1.175   2.554
44538SOL    HW235448   2.316   1.216   2.467
44539SOL     OW35449  10.707  10.679   0.651
44539SOL    HW135450  10.671  10.766   0.634
44539SOL    HW235451  10.802  10.693   0.658
44540SOL     OW35452   5.070  12.792  10.774
44540SOL    HW135453   5.103  12.786  10.684
44540SOL    HW235454   5.148  12.810  10.826
44541SOL     OW35455   4.018   8.063   6.519
44541SOL    HW135456   4.102   8.022   6.539
44541SOL    HW235457   3.954   7.994   6.536
44542SOL     OW35458   5.639  14.262   1.969
44542SOL    HW135459   5.643  14.304   2.054
44542SOL    HW235460   5.550  14.278   1.938
44543SOL     OW35461  13.411   7.898  11.003
44543SOL    HW135462  13.477   7.914  11.072
44543SOL    HW235463  13.460   7.908  10.921
44544SOL     OW35464   6.149   1.168   9.407
44544SOL    HW135465   6.168   1.259   9.384
44544SOL    HW235466   6.229   1.138   9.451
44545SOL     OW35467  11.010   9.429   2.900
44545SOL    HW135468  11.016   9.369   2.826
44545SOL    HW235469  11.093   9.420   2.946
44546SOL     OW35470   8.061  11.551  13.090
44546SOL    HW135471   8.111  11.492  13.147
44546SOL    HW235472   8.095  11.532  13.002
44547SOL     OW35473   0.729   8.968   2.451
44547SOL    HW135474   0.815   9.011   2.458
44547SOL    HW235475   0.673   9.035   2.411
44548SOL     OW35476   7.488   3.759   0.636
44548SOL    HW135477   7.501   3.665   0.623
44548SOL    HW235478   7.402   3.777   0.598
44549SOL     OW35479   0.270   4.043   0.876
44549SOL    HW135480   0.203   4.076   0.817
44549SOL    HW235481   0.238   4.064   0.964
44550SOL     OW35482  14.791   1.803   2.938
44550SOL    HW135483  14.828   1.853   3.011
44550SOL    HW235484  14.858   1.807   2.870
44551SOL     OW35485  14.083  11.495  12.131
44551SOL    HW135486  14.044  11.498  12.044
44551SOL    HW235487  14.168  11.538  12.120
44552SOL     OW35488   7.580  10.590   9.456
44552SOL    HW135489   7.658  10.606   9.509
44552SOL    HW235490   7.507  10.595   9.518
44553SOL     OW35491   1.033   9.552  12.521
44553SOL    HW135492   1.091   9.510  12.458
44553SOL    HW235493   1.070   9.639  12.534
44554SOL     OW35494   3.133   6.058  11.479
44554SOL    HW135495   3.175   6.119  11.538
44554SOL    HW235496   3.074   6.112  11.426
44555SOL     OW35497   1.816   1.137   9.466
44555SOL    HW135498   1.772   1.063   9.507
44555SOL    HW235499   1.868   1.175   9.536
44556SOL     OW35500   0.767   1.335  14.650
44556SOL    HW135501   0.797   1.397  14.583
44556SOL    HW235502   0.679   1.312  14.623
44557SOL     OW35503   8.030   8.425   2.247
44557SOL    HW135504   8.056   8.394   2.160
44557SOL    HW235505   8.082   8.504   2.260
44558SOL     OW35506   3.460   2.637  11.443
44558SOL    HW135507   3.426   2.573  11.381
44558SOL    HW235508   3.487   2.585  11.518
44559SOL     OW35509  10.066  11.002  13.889
44559SOL    HW135510  10.001  11.046  13.943
44559SOL    HW235511  10.072  10.914  13.926
44560SOL     OW35512  12.050  14.330   8.998
44560SOL    HW135513  12.112  14.330   8.925
44560SOL    HW235514  11.990  14.401   8.978
44561SOL     OW35515  10.741   4.815   5.162
44561SOL    HW135516  10.729   4.852   5.249
44561SOL    HW235517  10.700   4.879   5.103
44562SOL     OW35518   8.435  10.657  13.535
44562SOL    HW135519   8.363  10.681  13.476
44562SOL    HW235520   8.402  10.581  13.583
44563SOL     OW35521   1.677   4.320  10.156
44563SOL    HW135522   1.683   4.415  10.152
44563SOL    HW235523   1.648   4.302  10.245
44564SOL     OW35524  12.461   6.637   7.063
44564SOL    HW135525  12.517   6.684   7.125
44564SOL    HW235526  12.419   6.569   7.116
44565SOL     OW35527   5.121   7.334  13.575
44565SOL    HW135528   5.185   7.369  13.514
44565SOL    HW235529   5.037   7.346  13.530
44566SOL     OW35530   2.599   7.227  12.321
44566SOL    HW135531   2.661   7.154  12.319
44566SOL    HW235532   2.608   7.268  12.235
44567SOL     OW35533   4.469  12.040  14.000
44567SOL    HW135534   4.376  12.019  14.003
44567SOL    HW235535   4.491  12.039  13.906
44568SOL     OW35536  14.494  11.765  12.475
44568SOL    HW135537  14.553  11.840  12.473
44568SOL    HW235538  14.459  11.765  12.564
44569SOL     OW35539   0.297  13.238  12.775
44569SOL    HW135540   0.331  13.327  12.784
44569SOL    HW235541   0.213  13.240  12.822
44570SOL     OW35542   6.527   1.787  13.393
44570SOL    HW135543   6.573   1.815  13.472
44570SOL    HW235544   6.435   1.783  13.420
44571SOL     OW35545   8.813   4.923   0.238
44571SOL    HW135546   8.781   5.007   0.205
44571SOL    HW235547   8.839   4.941   0.328
44572SOL     OW35548   8.353  10.006   2.058
44572SOL    HW135549   8.443   9.974   2.050
44572SOL    HW235550   8.305   9.933   2.097
44573SOL     OW35551   5.444   4.009   7.913
44573SOL    HW135552   5.375   4.019   7.849
44573SOL    HW235553   5.503   4.082   7.897
44574SOL     OW35554  10.862   9.854   0.797
44574SOL    HW135555  10.768   9.852   0.817
44574SOL    HW235556  10.871   9.797   0.721
44575SOL     OW35557   2.618   8.902   6.120
44575SOL    HW135558   2.563   8.827   6.142
44575SOL    HW235559   2.692   8.865   6.072
44576SOL     OW35560   9.879   9.103   1.807
44576SOL    HW135561   9.889   9.139   1.895
44576SOL    HW235562   9.966   9.069   1.785
44577SOL     OW35563   7.709   6.867   7.561
44577SOL    HW135564   7.694   6.830   7.474
44577SOL    HW235565   7.631   6.843   7.611
44578SOL     OW35566  14.582   3.523  14.636
44578SOL    HW135567  14.634   3.550  14.560
44578SOL    HW235568  14.647   3.506  14.704
44579SOL     OW35569   1.966   4.695   9.386
44579SOL    HW135570   1.874   4.716   9.406
44579SOL    HW235571   1.968   4.599   9.381
44580SOL     OW35572   1.700   0.326   4.496
44580SOL    HW135573   1.647   0.254   4.530
44580SOL    HW235574   1.731   0.372   4.574
44581SOL     OW35575   0.637  10.279  13.148
44581SOL    HW135576   0.668  10.367  13.128
44581SOL    HW235577   0.545  10.279  13.125
44582SOL     OW35578   0.454   5.036  12.676
44582SOL    HW135579   0.428   4.971  12.741
44582SOL    HW235580   0.406   5.013  12.597
44583SOL     OW35581   4.693  12.535  10.994
44583SOL    HW135582   4.701  12.630  10.985
44583SOL    HW235583   4.736  12.500  10.916
44584SOL     OW35584   9.206   3.433  13.561
44584SOL    HW135585   9.284   3.486  13.578
44584SOL    HW235586   9.164   3.476  13.486
44585SOL     OW35587  14.049   3.766   9.311
44585SOL    HW135588  14.048   3.712   9.390
44585SOL    HW235589  13.976   3.733   9.259
44586SOL     OW35590   1.133   3.816  13.537
44586SOL    HW135591   1.218   3.792  13.574
44586SOL    HW235592   1.109   3.896  13.583
44587SOL     OW35593   5.780   3.733   6.682
44587SOL    HW135594   5.736   3.730   6.597
44587SOL    HW235595   5.735   3.804   6.729
44588SOL     OW35596   3.967   2.707  13.423
44588SOL    HW135597   3.980   2.767  13.496
44588SOL    HW235598   3.907   2.641  13.456
44589SOL     OW35599   3.817   8.193   9.644
44589SOL    HW135600   3.829   8.260   9.711
44589SOL    HW235601   3.753   8.232   9.583
44590SOL     OW35602   6.466   7.660   2.506
44590SOL    HW135603   6.382   7.690   2.472
44590SOL    HW235604   6.525   7.734   2.494
44591SOL     OW35605  12.311  10.280  11.937
44591SOL    HW135606  12.226  10.259  11.899
44591SOL    HW235607  12.325  10.213  12.004
44592SOL     OW35608   6.957   4.109   2.037
44592SOL    HW135609   6.893   4.039   2.053
44592SOL    HW235610   6.918   4.162   1.968
44593SOL     OW35611   9.728   5.811   1.971
44593SOL    HW135612   9.767   5.730   2.003
44593SOL    HW235613   9.639   5.787   1.947
44594SOL     OW35614  11.008   1.569   4.971
44594SOL    HW135615  11.059   1.488   4.970
44594SOL    HW235616  11.054   1.627   4.909
44595SOL     OW35617  10.956   0.623   9.632
44595SOL    HW135618  11.016   0.657   9.698
44595SOL    HW235619  10.945   0.696   9.570
44596SOL     OW35620   4.558   1.712   9.811
44596SOL    HW135621   4.562   1.717   9.716
44596SOL    HW235622   4.513   1.792   9.838
44597SOL     OW35623   7.805   2.686  11.401
44597SOL    HW135624   7.821   2.771  11.360
44597SOL    HW235625   7.892   2.649  11.415
44598SOL     OW35626   1.597   5.972  10.702
44598SOL    HW135627   1.545   5.903  10.662
44598SOL    HW235628   1.668   5.987  10.639
44599SOL     OW35629   7.841   2.422   2.444
44599SOL    HW135630   7.781   2.353   2.417
44599SOL    HW235631   7.862   2.401   2.535
44600SOL     OW35632  11.564   3.145   5.386
44600SOL    HW135633  11.605   3.132   5.301
44600SOL    HW235634  11.525   3.061   5.407
44601SOL     OW35635   8.857   0.831   5.489
44601SOL    HW135636   8.799   0.907   5.486
44601SOL    HW235637   8.921   0.848   5.419
44602SOL     OW35638  14.558   9.051   1.383
44602SOL    HW135639  14.511   9.120   1.335
44602SOL    HW235640  14.506   8.972   1.368
44603SOL     OW35641  10.459  13.599  12.329
44603SOL    HW135642  10.439  13.533  12.396
44603SOL    HW235643  10.373  13.635  12.305
44604SOL     OW35644   0.739  10.577   2.995
44604SOL    HW135645   0.654  10.584   2.951
44604SOL    HW235646   0.717  10.562   3.087
44605SOL     OW35647   1.870  13.996  11.437
44605SOL    HW135648   1.931  13.929  11.408
44605SOL    HW235649   1.925  14.062  11.480
44606SOL     OW35650   3.397  12.799  10.856
44606SOL    HW135651   3.341  12.813  10.932
44606SOL    HW235652   3.463  12.736  10.885
44607SOL     OW35653   9.146   7.407  12.319
44607SOL    HW135654   9.129   7.498  12.293
44607SOL    HW235655   9.073   7.384  12.376
44608SOL     OW35656   7.662   7.081   4.348
44608SOL    HW135657   7.626   7.015   4.290
44608SOL    HW235658   7.587   7.113   4.398
44609SOL     OW35659  12.132   5.425  10.701
44609SOL    HW135660  12.174   5.371  10.768
44609SOL    HW235661  12.038   5.414  10.716
44610SOL     OW35662   7.280   8.224  13.579
44610SOL    HW135663   7.206   8.251  13.633
44610SOL    HW235664   7.320   8.152  13.627
44611SOL     OW35665   9.005   4.740   4.271
44611SOL    HW135666   8.940   4.676   4.301
44611SOL    HW235667   9.029   4.789   4.349
44612SOL     OW35668   9.921   5.636   3.868
44612SOL    HW135669   9.954   5.606   3.953
44612SOL    HW235670   9.921   5.557   3.813
44613SOL     OW35671   5.892   6.822  12.973
44613SOL    HW135672   5.962   6.760  12.993
44613SOL    HW235673   5.879   6.871  13.054
44614SOL     OW35674  11.429   3.958   9.888
44614SOL    HW135675  11.508   4.009   9.868
44614SOL    HW235676  11.451   3.910   9.968
44615SOL     OW35677   8.538   5.820   6.086
44615SOL    HW135678   8.524   5.803   6.179
44615SOL    HW235679   8.537   5.734   6.045
44616SOL     OW35680   6.060   3.262  13.982
44616SOL    HW135681   6.093   3.338  13.935
44616SOL    HW235682   6.133   3.233  14.036
44617SOL     OW35683  10.426   4.759   3.742
44617SOL    HW135684  10.420   4.684   3.801
44617SOL    HW235685  10.498   4.737   3.683
44618SOL     OW35686   3.733  11.964  10.601
44618SOL    HW135687   3.781  11.936  10.523
44618SOL    HW235688   3.650  11.917  10.597
44619SOL     OW35689   5.427   6.259   9.925
44619SOL    HW135690   5.372   6.334   9.947
44619SOL    HW235691   5.366   6.186   9.914
44620SOL     OW35692   9.402   4.157   1.194
44620SOL    HW135693   9.495   4.133   1.193
44620SOL    HW235694   9.372   4.138   1.105
44621SOL     OW35695  12.650   0.795   3.749
44621SOL    HW135696  12.645   0.714   3.699
44621SOL    HW235697  12.736   0.794   3.790
44622SOL     OW35698   8.161   8.165   0.821
44622SOL    HW135699   8.078   8.212   0.829
44622SOL    HW235700   8.202   8.202   0.742
44623SOL     OW35701   7.271   8.951   3.515
44623SOL    HW135702   7.189   8.903   3.508
44623SOL    HW235703   7.284   8.990   3.429
44624SOL     OW35704  10.189   8.176   5.450
44624SOL    HW135705  10.185   8.126   5.369
44624SOL    HW235706  10.100   8.206   5.464
44625SOL     OW35707   3.629   3.274   4.490
44625SOL    HW135708   3.535   3.257   4.488
44625SOL    HW235709   3.647   3.297   4.582
44626SOL     OW35710  11.619  13.740   7.832
44626SOL    HW135711  11.596  13.829   7.806
44626SOL    HW235712  11.694  13.718   7.777
44627SOL     OW35713   6.190   3.779   6.032
44627SOL    HW135714   6.200   3.848   6.096
44627SOL    HW235715   6.269   3.783   5.978
44628SOL     OW35716   3.256  12.041  12.104
44628SOL    HW135717   3.194  12.068  12.035
44628SOL    HW235718   3.209  12.057  12.186
44629SOL     OW35719   7.848   3.320   6.463
44629SOL    HW135720   7.919   3.274   6.418
44629SOL    HW235721   7.886   3.405   6.486
44630SOL     OW35722   9.886   0.348  12.504
44630SOL    HW135723   9.808   0.389  12.542
44630SOL    HW235724   9.852   0.278  12.449
44631SOL     OW35725   9.898  12.560   9.842
44631SOL    HW135726   9.993  12.557   9.855
44631SOL    HW235727   9.883  12.504   9.766
44632SOL     OW35728   3.405   8.837   4.552
44632SOL    HW135729   3.419   8.742   4.548
44632SOL    HW235730   3.491   8.874   4.532
44633SOL     OW35731   6.061  11.647   9.528
44633SOL    HW135732   6.143  11.598   9.537
44633SOL    HW235733   6.025  11.649   9.617
44634SOL     OW35734  10.441   8.043   2.765
44634SOL    HW135735  10.386   7.975   2.804
44634SOL    HW235736  10.509   8.059   2.830
44635SOL     OW35737   9.165   0.790  10.170
44635SOL    HW135738   9.087   0.769  10.221
44635SOL    HW235739   9.146   0.758  10.082
44636SOL     OW35740   8.375   7.167   9.883
44636SOL    HW135741   8.428   7.091   9.906
44636SOL    HW235742   8.438   7.239   9.876
44637SOL     OW35743   0.563   1.768  13.581
44637SOL    HW135744   0.576   1.856  13.615
44637SOL    HW235745   0.651   1.733  13.570
44638SOL     OW35746  14.649  10.763   7.490
44638SOL    HW135747  14.653  10.682   7.541
44638SOL    HW235748  14.565  10.758   7.444
44639SOL     OW35749   4.180  10.102   8.247
44639SOL    HW135750   4.257  10.159   8.252
44639SOL    HW235751   4.182  10.053   8.329
44640SOL     OW35752   3.986   2.401  11.449
44640SOL    HW135753   3.909   2.346  11.435
44640SOL    HW235754   4.003   2.440  11.363
44641SOL     OW35755   4.799  13.506   7.261
44641SOL    HW135756   4.724  13.555   7.296
44641SOL    HW235757   4.764  13.460   7.185
44642SOL     OW35758   5.349  13.951   6.017
44642SOL    HW135759   5.345  13.877   6.077
44642SOL    HW235760   5.294  14.018   6.059
44643SOL     OW35761   0.556   3.787   8.326
44643SOL    HW135762   0.541   3.865   8.273
44643SOL    HW235763   0.508   3.802   8.407
44644SOL     OW35764   0.907   3.610  13.602
44644SOL    HW135765   0.956   3.535  13.569
44644SOL    HW235766   0.968   3.684  13.595
44645SOL     OW35767  14.476  14.723   9.843
44645SOL    HW135768  14.381  14.718   9.842
44645SOL    HW235769  14.505  14.644   9.799
44646SOL     OW35770  13.738  14.190   5.430
44646SOL    HW135771  13.832  14.181   5.414
44646SOL    HW235772  13.697  14.124   5.374
44647SOL     OW35773  11.332  11.464   5.410
44647SOL    HW135774  11.320  11.484   5.317
44647SOL    HW235775  11.274  11.390   5.427
44648SOL     OW35776  10.862  14.220   6.845
44648SOL    HW135777  10.873  14.314   6.860
44648SOL    HW235778  10.939  14.180   6.886
44649SOL     OW35779   6.031   9.139   0.664
44649SOL    HW135780   5.964   9.116   0.729
44649SOL    HW235781   6.033   9.234   0.664
44650SOL     OW35782   8.873   7.811   5.221
44650SOL    HW135783   8.879   7.868   5.144
44650SOL    HW235784   8.779   7.801   5.236
44651SOL     OW35785   4.198   3.595   5.206
44651SOL    HW135786   4.267   3.589   5.273
44651SOL    HW235787   4.118   3.572   5.251
44652SOL     OW35788   3.590  12.318   7.995
44652SOL    HW135789   3.574  12.225   7.977
44652SOL    HW235790   3.581  12.361   7.910
44653SOL     OW35791   0.875   4.821  12.634
44653SOL    HW135792   0.838   4.898  12.591
44653SOL    HW235793   0.799   4.768  12.658
44654SOL     OW35794  10.300  14.311   2.758
44654SOL    HW135795  10.335  14.342   2.675
44654SOL    HW235796  10.226  14.255   2.734
44655SOL     OW35797   4.776   1.591   7.396
44655SOL    HW135798   4.700   1.597   7.338
44655SOL    HW235799   4.852   1.602   7.338
44656SOL     OW35800  13.298   3.883   8.663
44656SOL    HW135801  13.296   3.916   8.573
44656SOL    HW235802  13.368   3.932   8.706
44657SOL     OW35803  12.434  12.713   3.405
44657SOL    HW135804  12.427  12.669   3.321
44657SOL    HW235805  12.468  12.800   3.384
44658SOL     OW35806   6.590   1.354  13.970
44658SOL    HW135807   6.548   1.269  13.977
44658SOL    HW235808   6.684   1.335  13.963
44659SOL     OW35809   9.189   6.068   9.331
44659SOL    HW135810   9.148   6.117   9.402
44659SOL    HW235811   9.124   6.068   9.261
44660SOL     OW35812   4.389   8.382  10.536
44660SOL    HW135813   4.332   8.305  10.533
44660SOL    HW235814   4.419   8.393  10.445
44661SOL     OW35815   9.423  13.601  10.222
44661SOL    HW135816   9.395  13.688  10.253
44661SOL    HW235817   9.346  13.546  10.234
44662SOL     OW35818   1.038   7.969  13.593
44662SOL    HW135819   1.017   8.018  13.672
44662SOL    HW235820   1.126   7.999  13.569
44663SOL     OW35821   8.352   0.638  13.425
44663SOL    HW135822   8.259   0.637  13.402
44663SOL    HW235823   8.392   0.576  13.365
44664SOL     OW35824   8.631   7.264  13.377
44664SOL    HW135825   8.652   7.338  13.320
44664SOL    HW235826   8.603   7.195  13.318
44665SOL     OW35827   0.528   7.209   9.695
44665SOL    HW135828   0.462   7.275   9.672
44665SOL    HW235829   0.478   7.128   9.705
44666SOL     OW35830   5.076  13.701   2.070
44666SOL    HW135831   5.135  13.708   1.994
44666SOL    HW235832   5.017  13.629   2.047
44667SOL     OW35833   7.121   6.776   6.099
44667SOL    HW135834   7.198   6.832   6.105
44667SOL    HW235835   7.148   6.702   6.045
44668SOL     OW35836   7.967   8.945  11.586
44668SOL    HW135837   8.004   9.029  11.559
44668SOL    HW235838   7.874   8.962  11.597
44669SOL     OW35839   4.851  10.724  10.035
44669SOL    HW135840   4.890  10.774   9.963
44669SOL    HW235841   4.762  10.757  10.043
44670SOL     OW35842   2.308   4.914   7.876
44670SOL    HW135843   2.224   4.875   7.851
44670SOL    HW235844   2.368   4.839   7.882
44671SOL     OW35845   3.875   4.166  10.821
44671SOL    HW135846   3.837   4.116  10.749
44671SOL    HW235847   3.867   4.110  10.897
44672SOL     OW35848   1.775   0.569   7.431
44672SOL    HW135849   1.856   0.535   7.468
44672SOL    HW235850   1.727   0.604   7.506
44673SOL     OW35851   9.456  14.065   5.618
44673SOL    HW135852   9.470  14.137   5.556
44673SOL    HW235853   9.402  14.002   5.570
44674SOL     OW35854   3.509   8.740  13.703
44674SOL    HW135855   3.461   8.749  13.620
44674SOL    HW235856   3.450   8.689  13.759
44675SOL     OW35857  11.243  10.961   8.890
44675SOL    HW135858  11.216  11.046   8.925
44675SOL    HW235859  11.173  10.901   8.916
44676SOL     OW35860  10.731  10.104   2.084
44676SOL    HW135861  10.716  10.181   2.139
44676SOL    HW235862  10.810  10.064   2.120
44677SOL     OW35863   3.187  14.290  10.566
44677SOL    HW135864   3.227  14.262  10.649
44677SOL    HW235865   3.109  14.339  10.593
44678SOL     OW35866   2.194  14.467   3.255
44678SOL    HW135867   2.183  14.378   3.287
44678SOL    HW235868   2.167  14.523   3.327
44679SOL     OW35869   8.037  13.886  10.297
44679SOL    HW135870   7.977  13.952  10.332
44679SOL    HW235871   8.124  13.917  10.323
44680SOL     OW35872   1.236  11.956  13.863
44680SOL    HW135873   1.150  11.996  13.853
44680SOL    HW235874   1.284  12.016  13.920
44681SOL     OW35875   2.724  10.874   6.446
44681SOL    HW135876   2.691  10.902   6.361
44681SOL    HW235877   2.808  10.920   6.455
44682SOL     OW35878  10.542   7.633   5.841
44682SOL    HW135879  10.454   7.618   5.807
44682SOL    HW235880  10.545   7.728   5.857
44683SOL     OW35881  11.889   4.250   3.082
44683SOL    HW135882  11.928   4.203   3.156
44683SOL    HW235883  11.809   4.289   3.118
44684SOL     OW35884  11.063   0.346   2.646
44684SOL    HW135885  11.136   0.293   2.615
44684SOL    HW235886  11.091   0.437   2.632
44685SOL     OW35887  14.042   2.519   4.443
44685SOL    HW135888  14.068   2.469   4.520
44685SOL    HW235889  14.029   2.454   4.375
44686SOL     OW35890   7.136   7.123   4.224
44686SOL    HW135891   7.055   7.076   4.207
44686SOL    HW235892   7.111   7.215   4.226
44687SOL     OW35893   2.051   6.007  12.923
44687SOL    HW135894   2.134   6.039  12.960
44687SOL    HW235895   2.076   5.935  12.865
44688SOL     OW35896   6.038   1.461   6.739
44688SOL    HW135897   6.010   1.548   6.767
44688SOL    HW235898   6.064   1.418   6.820
44689SOL     OW35899  12.711   2.923   4.064
44689SOL    HW135900  12.630   2.928   4.114
44689SOL    HW235901  12.765   2.994   4.099
44690SOL     OW35902   8.734   4.729   4.404
44690SOL    HW135903   8.734   4.825   4.400
44690SOL    HW235904   8.669   4.708   4.471
44691SOL     OW35905  12.163   4.232   2.839
44691SOL    HW135906  12.078   4.208   2.802
44691SOL    HW235907  12.183   4.317   2.798
44692SOL     OW35908   4.521  14.805  12.996
44692SOL    HW135909   4.581  14.826  13.067
44692SOL    HW235910   4.437  14.843  13.024
44693SOL     OW35911   9.881   9.158   7.554
44693SOL    HW135912   9.816   9.187   7.490
44693SOL    HW235913   9.947   9.113   7.501
44694SOL     OW35914  13.947  13.402   6.336
44694SOL    HW135915  14.013  13.422   6.269
44694SOL    HW235916  13.986  13.433   6.417
44695SOL     OW35917   1.584   6.125   5.130
44695SOL    HW135918   1.563   6.216   5.152
44695SOL    HW235919   1.667   6.108   5.175
44696SOL     OW35920   8.797   5.089   4.927
44696SOL    HW135921   8.810   5.173   4.883
44696SOL    HW235922   8.859   5.090   4.999
44697SOL     OW35923  12.316   4.163  13.545
44697SOL    HW135924  12.263   4.167  13.624
44697SOL    HW235925  12.373   4.087  13.559
44698SOL     OW35926   4.774  11.427   9.651
44698SOL    HW135927   4.834  11.456   9.583
44698SOL    HW235928   4.697  11.394   9.604
44699SOL     OW35929   1.349  14.155   7.970
44699SOL    HW135930   1.282  14.186   8.030
44699SOL    HW235931   1.393  14.085   8.017
44700SOL     OW35932   7.846   1.344  13.855
44700SOL    HW135933   7.829   1.290  13.932
44700SOL    HW235934   7.809   1.293  13.782
44701SOL     OW35935   3.503  10.121   3.880
44701SOL    HW135936   3.486  10.208   3.917
44701SOL    HW235937   3.582  10.090   3.924
44702SOL     OW35938  14.275   8.957  13.240
44702SOL    HW135939  14.338   8.887  13.225
44702SOL    HW235940  14.234   8.971  13.154
44703SOL     OW35941   4.153   3.129  14.721
44703SOL    HW135942   4.081   3.173  14.676
44703SOL    HW235943   4.228   3.140  14.663
44704SOL     OW35944   0.458   6.614   3.246
44704SOL    HW135945   0.463   6.548   3.315
44704SOL    HW235946   0.517   6.582   3.178
44705SOL     OW35947   8.786  11.120   9.711
44705SOL    HW135948   8.854  11.152   9.652
44705SOL    HW235949   8.704  11.148   9.670
44706SOL     OW35950  10.388   6.053   8.458
44706SOL    HW135951  10.293   6.049   8.453
44706SOL    HW235952  10.408   6.036   8.550
44707SOL     OW35953   6.873  14.104  14.511
44707SOL    HW135954   6.862  14.081  14.604
44707SOL    HW235955   6.835  14.030  14.463
44708SOL     OW35956   6.930   7.958   2.245
44708SOL    HW135957   6.889   7.915   2.170
44708SOL    HW235958   6.990   7.893   2.280
44709SOL     OW35959   5.261   4.272   5.586
44709SOL    HW135960   5.354   4.267   5.568
44709SOL    HW235961   5.242   4.195   5.639
44710SOL     OW35962  11.838   2.873   8.450
44710SOL    HW135963  11.807   2.786   8.426
44710SOL    HW235964  11.758   2.927   8.453
44711SOL     OW35965   2.803   8.444  11.080
44711SOL    HW135966   2.731   8.506  11.093
44711SOL    HW235967   2.770   8.361  11.114
44712SOL     OW35968   8.244  11.976   5.922
44712SOL    HW135969   8.160  11.950   5.960
44712SOL    HW235970   8.235  12.070   5.907
44713SOL     OW35971   9.250   4.181   3.201
44713SOL    HW135972   9.278   4.107   3.146
44713SOL    HW235973   9.239   4.253   3.139
44714SOL     OW35974   0.405  12.971  10.850
44714SOL    HW135975   0.429  12.878  10.853
44714SOL    HW235976   0.370  12.989  10.937
44715SOL     OW35977   3.362   9.574   6.690
44715SOL    HW135978   3.300   9.613   6.752
44715SOL    HW235979   3.321   9.493   6.661
44716SOL     OW35980   7.665  13.460  14.029
44716SOL    HW135981   7.741  13.492  13.980
44716SOL    HW235982   7.683  13.485  14.120
44717SOL     OW35983  11.922   8.029   4.092
44717SOL    HW135984  11.871   7.958   4.053
44717SOL    HW235985  12.000   7.986   4.127
44718SOL     OW35986  10.949  10.718  11.801
44718SOL    HW135987  10.935  10.730  11.895
44718SOL    HW235988  10.865  10.741  11.761
44719SOL     OW35989  13.433   6.595  10.510
44719SOL    HW135990  13.424   6.529  10.441
44719SOL    HW235991  13.344   6.627  10.524
44720SOL     OW35992  10.901   2.188   5.783
44720SOL    HW135993  10.952   2.269   5.774
44720SOL    HW235994  10.869   2.191   5.873
44721SOL     OW35995   2.220  11.788   3.308
44721SOL    HW135996   2.130  11.755   3.306
44721SOL    HW235997   2.274  11.709   3.306
44722SOL     OW35998  12.855   2.538   9.200
44722SOL    HW135999  12.850   2.458   9.147
44722SOL    HW236000  12.842   2.509   9.290
44723SOL     OW36001  14.120   4.583  13.328
44723SOL    HW136002  14.152   4.533  13.253
44723SOL    HW236003  14.185   4.653  13.339
44724SOL     OW36004   8.118   9.715  13.185
44724SOL    HW136005   8.067   9.649  13.233
44724SOL    HW236006   8.137   9.673  13.101
44725SOL     OW36007   2.601  14.125   1.373
44725SOL    HW136008   2.575  14.039   1.340
44725SOL    HW236009   2.519  14.175   1.374
44726SOL     OW36010   0.754   0.909   0.187
44726SOL    HW136011   0.712   0.830   0.220
44726SOL    HW236012   0.783   0.955   0.266
44727SOL     OW36013  11.614   1.882  10.288
44727SOL    HW136014  11.697   1.842  10.263
44727SOL    HW236015  11.591   1.939  10.214
44728SOL     OW36016   9.378   8.583  11.180
44728SOL    HW136017   9.355   8.619  11.094
44728SOL    HW236018   9.294   8.561  11.220
44729SOL     OW36019   0.492   2.098   9.378
44729SOL    HW136020   0.552   2.137   9.314
44729SOL    HW236021   0.478   2.168   9.443
44730SOL     OW36022  12.680   9.188  13.185
44730SOL    HW136023  12.675   9.117  13.250
44730SOL    HW236024  12.734   9.152  13.115
44731SOL     OW36025   6.413   5.148   0.946
44731SOL    HW136026   6.420   5.067   0.996
44731SOL    HW236027   6.320   5.154   0.924
44732SOL     OW36028   6.285  11.227  14.755
44732SOL    HW136029   6.296  11.204  14.848
44732SOL    HW236030   6.361  11.189  14.712
44733SOL     OW36031  11.103  12.889   5.938
44733SOL    HW136032  11.188  12.930   5.919
44733SOL    HW236033  11.081  12.920   6.026
44734SOL     OW36034   7.231  12.603  11.540
44734SOL    HW136035   7.320  12.617  11.571
44734SOL    HW236036   7.231  12.515  11.503
44735SOL     OW36037   1.345   4.449  12.862
44735SOL    HW136038   1.385   4.515  12.804
44735SOL    HW236039   1.415   4.425  12.922
44736SOL     OW36040  10.773  14.723   6.163
44736SOL    HW136041  10.730  14.796   6.207
44736SOL    HW236042  10.714  14.649   6.176
44737SOL     OW36043   5.378   8.533   7.761
44737SOL    HW136044   5.308   8.569   7.707
44737SOL    HW236045   5.376   8.585   7.841
44738SOL     OW36046  14.326   7.908  12.153
44738SOL    HW136047  14.303   7.907  12.060
44738SOL    HW236048  14.399   7.969  12.160
44739SOL     OW36049   1.523   0.272   0.139
44739SOL    HW136050   1.465   0.255   0.065
44739SOL    HW236051   1.537   0.186   0.179
44740SOL     OW36052  10.694  14.865   4.219
44740SOL    HW136053  10.712  14.819   4.137
44740SOL    HW236054  10.601   0.007   4.215
44741SOL     OW36055   7.007   5.606   6.124
44741SOL    HW136056   7.087   5.641   6.083
44741SOL    HW236057   6.991   5.524   6.078
44742SOL     OW36058  11.699   3.369  10.361
44742SOL    HW136059  11.771   3.372  10.298
44742SOL    HW236060  11.620   3.364  10.306
44743SOL     OW36061  11.582   5.445   7.986
44743SOL    HW136062  11.614   5.534   7.969
44743SOL    HW236063  11.490   5.447   7.959
44744SOL     OW36064   6.293  14.066  12.038
44744SOL    HW136065   6.207  14.095  12.006
44744SOL    HW236066   6.351  14.140  12.019
44745SOL     OW36067   3.960  13.120   3.905
44745SOL    HW136068   4.034  13.091   3.853
44745SOL    HW236069   3.986  13.206   3.939
44746SOL     OW36070  12.657  14.529   4.857
44746SOL    HW136071  12.591  14.473   4.898
44746SOL    HW236072  12.699  14.574   4.931
44747SOL     OW36073   9.314  11.388   8.736
44747SOL    HW136074   9.328  11.423   8.824
44747SOL    HW236075   9.282  11.299   8.750
44748SOL     OW36076   3.811   0.137  10.068
44748SOL    HW136077   3.902   0.128  10.040
44748SOL    HW236078   3.800   0.231  10.084
44749SOL     OW36079   5.732   1.568   2.144
44749SOL    HW136080   5.639   1.591   2.149
44749SOL    HW236081   5.774   1.648   2.113
44750SOL     OW36082   9.540   4.038   7.137
44750SOL    HW136083   9.477   3.969   7.155
44750SOL    HW236084   9.563   4.073   7.223
44751SOL     OW36085   1.100   1.693   4.864
44751SOL    HW136086   1.016   1.650   4.878
44751SOL    HW236087   1.083   1.786   4.878
44752SOL     OW36088  10.723   0.926   7.542
44752SOL    HW136089  10.729   0.992   7.611
44752SOL    HW236090  10.814   0.900   7.525
44753SOL     OW36091  10.873   3.330   3.800
44753SOL    HW136092  10.894   3.345   3.708
44753SOL    HW236093  10.951   3.358   3.847
44754SOL     OW36094  12.730  12.237  10.534
44754SOL    HW136095  12.668  12.173  10.497
44754SOL    HW236096  12.766  12.192  10.611
44755SOL     OW36097  12.700   3.488   5.604
44755SOL    HW136098  12.653   3.563   5.568
44755SOL    HW236099  12.631   3.424   5.622
44756SOL     OW36100  11.499   9.228   1.932
44756SOL    HW136101  11.546   9.312   1.926
44756SOL    HW236102  11.435   9.232   1.861
44757SOL     OW36103   9.806  14.377  11.818
44757SOL    HW136104   9.879  14.327  11.783
44757SOL    HW236105   9.843  14.426  11.892
44758SOL     OW36106   5.186  10.620   0.160
44758SOL    HW136107   5.127  10.568   0.105
44758SOL    HW236108   5.148  10.616   0.247
44759SOL     OW36109   4.546   3.689   3.212
44759SOL    HW136110   4.550   3.595   3.230
44759SOL    HW236111   4.638   3.715   3.199
44760SOL     OW36112   8.303   7.394   2.208
44760SOL    HW136113   8.352   7.428   2.283
44760SOL    HW236114   8.306   7.464   2.143
44761SOL     OW36115   6.736  14.706  12.617
44761SOL    HW136116   6.716  14.799  12.613
44761SOL    HW236117   6.650  14.664  12.625
44762SOL     OW36118  14.809   0.467  14.685
44762SOL    HW136119  14.873   0.463  14.755
44762SOL    HW236120  14.792   0.561  14.674
44763SOL     OW36121   7.740   5.351   5.825
44763SOL    HW136122   7.812   5.404   5.860
44763SOL    HW236123   7.715   5.396   5.744
44764SOL     OW36124   6.414   2.835   1.810
44764SOL    HW136125   6.490   2.892   1.800
44764SOL    HW236126   6.430   2.789   1.893
44765SOL     OW36127   8.112  13.054  14.312
44765SOL    HW136128   8.054  13.105  14.368
44765SOL    HW236129   8.095  12.963  14.334
44766SOL     OW36130   5.106   0.088  11.457
44766SOL    HW136131   5.160   0.145  11.512
44766SOL    HW236132   5.166   0.060  11.387
44767SOL     OW36133   1.794  12.397  14.193
44767SOL    HW136134   1.881  12.434  14.176
44767SOL    HW236135   1.737  12.473  14.196
44768SOL     OW36136   0.109  12.415  12.890
44768SOL    HW136137   0.123  12.505  12.861
44768SOL    HW236138   0.158  12.408  12.972
44769SOL     OW36139   6.095  12.243  10.519
44769SOL    HW136140   6.107  12.150  10.501
44769SOL    HW236141   6.170  12.267  10.573
44770SOL     OW36142  12.197  12.650  14.569
44770SOL    HW136143  12.105  12.677  14.575
44770SOL    HW236144  12.205  12.578  14.631
44771SOL     OW36145   2.321   8.563   0.609
44771SOL    HW136146   2.279   8.507   0.674
44771SOL    HW236147   2.357   8.636   0.659
44772SOL     OW36148   1.794   7.391  12.943
44772SOL    HW136149   1.847   7.398  12.863
44772SOL    HW236150   1.721   7.452  12.928
44773SOL     OW36151   4.714  13.523  10.321
44773SOL    HW136152   4.628  13.544  10.285
44773SOL    HW236153   4.697  13.503  10.413
44774SOL     OW36154  11.964  14.513   5.280
44774SOL    HW136155  11.925  14.601   5.278
44774SOL    HW236156  11.954  14.485   5.371
44775SOL     OW36157  12.595  11.315   8.832
44775SOL    HW136158  12.507  11.351   8.818
44775SOL    HW236159  12.582  11.220   8.827
44776SOL     OW36160   9.783   1.005   3.583
44776SOL    HW136161   9.783   0.979   3.491
44776SOL    HW236162   9.722   1.079   3.587
44777SOL     OW36163   2.824   4.606  14.828
44777SOL    HW136164   2.900   4.554  14.854
44777SOL    HW236165   2.807   4.664   0.024
44778SOL     OW36166  12.149  14.495  14.295
44778SOL    HW136167  12.215  14.427  14.306
44778SOL    HW236168  12.084  14.476  14.362
44779SOL     OW36169   0.021   9.509   0.223
44779SOL    HW136170   0.060   9.443   0.281
44779SOL    HW236171   0.075   9.588   0.237
44780SOL     OW36172   9.371  14.369   0.752
44780SOL    HW136173   9.439  14.398   0.813
44780SOL    HW236174   9.414  14.364   0.667
44781SOL     OW36175   5.522  12.172   9.408
44781SOL    HW136176   5.578  12.218   9.471
44781SOL    HW236177   5.457  12.127   9.461
44782SOL     OW36178   8.264   3.926   3.830
44782SOL    HW136179   8.261   3.956   3.740
44782SOL    HW236180   8.296   3.836   3.825
44783SOL     OW36181   2.169  12.799   0.568
44783SOL    HW136182   2.112  12.741   0.518
44783SOL    HW236183   2.151  12.779   0.659
44784SOL     OW36184   4.875   2.770   4.760
44784SOL    HW136185   4.873   2.787   4.666
44784SOL    HW236186   4.783   2.762   4.785
44785SOL     OW36187   9.171  13.806   2.360
44785SOL    HW136188   9.146  13.892   2.325
44785SOL    HW236189   9.092  13.774   2.403
44786SOL     OW36190  13.093   0.729  12.118
44786SOL    HW136191  13.067   0.692  12.203
44786SOL    HW236192  13.137   0.811  12.141
44787SOL     OW36193  12.280   5.197  10.871
44787SOL    HW136194  12.214   5.194  10.940
44787SOL    HW236195  12.345   5.132  10.896
44788SOL     OW36196  13.737   1.390   4.370
44788SOL    HW136197  13.827   1.387   4.340
44788SOL    HW236198  13.698   1.464   4.323
44789SOL     OW36199   9.538  13.880  13.697
44789SOL    HW136200   9.552  13.974  13.708
44789SOL    HW236201   9.608  13.839  13.747
44790SOL     OW36202  11.961   7.837  10.215
44790SOL    HW136203  12.008   7.787  10.149
44790SOL    HW236204  12.016   7.913  10.231
44791SOL     OW36205   2.544   4.115  11.185
44791SOL    HW136206   2.559   4.025  11.212
44791SOL    HW236207   2.625   4.161  11.208
44792SOL     OW36208   6.625   2.439   9.463
44792SOL    HW136209   6.615   2.514   9.404
44792SOL    HW236210   6.678   2.376   9.414
44793SOL     OW36211   2.645  13.289  14.028
44793SOL    HW136212   2.734  13.322  14.012
44793SOL    HW236213   2.598  13.363  14.065
44794SOL     OW36214  14.055  14.034   4.500
44794SOL    HW136215  14.070  14.095   4.428
44794SOL    HW236216  14.021  14.089   4.571
44795SOL     OW36217   7.398   1.106   2.405
44795SOL    HW136218   7.403   1.201   2.395
44795SOL    HW236219   7.381   1.074   2.317
44796SOL     OW36220   8.050   3.408  11.470
44796SOL    HW136221   8.085   3.456  11.544
44796SOL    HW236222   8.002   3.473  11.419
44797SOL     OW36223   3.769   0.978   3.395
44797SOL    HW136224   3.706   1.026   3.340
44797SOL    HW236225   3.783   0.895   3.348
44798SOL     OW36226   1.990  13.957  10.036
44798SOL    HW136227   1.996  13.875  10.085
44798SOL    HW236228   2.081  13.987  10.030
44799SOL     OW36229   9.281  12.432  10.085
44799SOL    HW136230   9.253  12.473  10.003
44799SOL    HW236231   9.376  12.440  10.085
44800SOL     OW36232   9.364  13.217   3.089
44800SOL    HW136233   9.331  13.301   3.120
44800SOL    HW236234   9.428  13.190   3.155
44801SOL     OW36235   9.803  11.948   3.421
44801SOL    HW136236   9.821  11.925   3.512
44801SOL    HW236237   9.884  11.926   3.374
44802SOL     OW36238  13.051   9.247   7.986
44802SOL    HW136239  12.966   9.226   7.948
44802SOL    HW236240  13.109   9.257   7.911
44803SOL     OW36241   0.382  10.109   7.479
44803SOL    HW136242   0.372  10.158   7.561
44803SOL    HW236243   0.470  10.071   7.484
44804SOL     OW36244  14.119  11.452   0.539
44804SOL    HW136245  14.034  11.408   0.531
44804SOL    HW236246  14.172  11.392   0.592
44805SOL     OW36247  10.797  11.581   7.756
44805SOL    HW136248  10.713  11.624   7.774
44805SOL    HW236249  10.786  11.544   7.668
44806SOL     OW36250   3.398  13.592   9.338
44806SOL    HW136251   3.442  13.604   9.253
44806SOL    HW236252   3.381  13.681   9.369
44807SOL     OW36253   6.330   2.115   9.900
44807SOL    HW136254   6.272   2.149   9.968
44807SOL    HW236255   6.292   2.030   9.877
44808SOL     OW36256  13.787   4.043  13.760
44808SOL    HW136257  13.802   4.097  13.682
44808SOL    HW236258  13.732   3.970  13.728
44809SOL     OW36259   5.219  10.639   0.807
44809SOL    HW136260   5.128  10.610   0.809
44809SOL    HW236261   5.269  10.560   0.788
44810SOL     OW36262   0.895   3.934   1.183
44810SOL    HW136263   0.949   3.973   1.114
44810SOL    HW236264   0.913   3.986   1.261
44811SOL     OW36265  10.809   5.168   5.658
44811SOL    HW136266  10.714   5.160   5.666
44811SOL    HW236267  10.826   5.262   5.671
44812SOL     OW36268   5.546   1.553   8.769
44812SOL    HW136269   5.463   1.588   8.801
44812SOL    HW236270   5.599   1.630   8.749
44813SOL     OW36271   2.824   2.355  14.234
44813SOL    HW136272   2.908   2.399  14.252
44813SOL    HW236273   2.775   2.364  14.316
44814SOL     OW36274  14.511   2.411   4.452
44814SOL    HW136275  14.491   2.461   4.531
44814SOL    HW236276  14.458   2.452   4.384
44815SOL     OW36277  10.823  14.877   1.029
44815SOL    HW136278  10.807  14.793   1.072
44815SOL    HW236279  10.826  14.856   0.935
44816SOL     OW36280  10.604  10.176   7.764
44816SOL    HW136281  10.523  10.148   7.805
44816SOL    HW236282  10.672  10.160   7.830
44817SOL     OW36283   3.639   4.714  13.987
44817SOL    HW136284   3.592   4.637  13.954
44817SOL    HW236285   3.690   4.681  14.061
44818SOL     OW36286   5.962  10.424   3.800
44818SOL    HW136287   6.013  10.419   3.880
44818SOL    HW236288   5.901  10.496   3.815
44819SOL     OW36289  10.902   8.889  14.370
44819SOL    HW136290  10.820   8.906  14.417
44819SOL    HW236291  10.921   8.797  14.387
44820SOL     OW36292   0.187  12.594  11.909
44820SOL    HW136293   0.237  12.589  11.827
44820SOL    HW236294   0.194  12.686  11.936
44821SOL     OW36295   7.110   5.832   1.083
44821SOL    HW136296   7.180   5.795   1.136
44821SOL    HW236297   7.125   5.798   0.995
44822SOL     OW36298   3.394   3.745   7.856
44822SOL    HW136299   3.485   3.721   7.839
44822SOL    HW236300   3.381   3.826   7.807
44823SOL     OW36301  11.794   9.218   2.576
44823SOL    HW136302  11.709   9.251   2.549
44823SOL    HW236303  11.817   9.271   2.653
44824SOL     OW36304   5.990  12.071  13.229
44824SOL    HW136305   5.978  12.132  13.302
44824SOL    HW236306   5.950  11.990  13.259
44825SOL     OW36307  13.650  13.264   5.195
44825SOL    HW136308  13.591  13.236   5.265
44825SOL    HW236309  13.622  13.353   5.174
44826SOL     OW36310   1.267   9.764  13.032
44826SOL    HW136311   1.322   9.842  13.024
44826SOL    HW236312   1.325   9.698  13.068
44827SOL     OW36313  11.974   9.071  10.653
44827SOL    HW136314  11.958   9.094  10.562
44827SOL    HW236315  11.893   9.031  10.683
44828SOL     OW36316  12.337   5.346   4.685
44828SOL    HW136317  12.293   5.330   4.602
44828SOL    HW236318  12.399   5.417   4.665
44829SOL     OW36319  12.982   9.780  14.057
44829SOL    HW136320  12.933   9.698  14.044
44829SOL    HW236321  12.915   9.848  14.054
44830SOL     OW36322   0.390  14.537  13.545
44830SOL    HW136323   0.436  14.620  13.542
44830SOL    HW236324   0.358  14.523  13.456
44831SOL     OW36325   2.632  10.964  10.628
44831SOL    HW136326   2.579  10.887  10.649
44831SOL    HW236327   2.709  10.956  10.684
44832SOL     OW36328   7.571  10.674  13.999
44832SOL    HW136329   7.492  10.690  13.947
44832SOL    HW236330   7.623  10.754  13.990
44833SOL     OW36331  10.180   3.591   4.257
44833SOL    HW136332  10.184   3.671   4.206
44833SOL    HW236333  10.142   3.526   4.197
44834SOL     OW36334  11.724   5.344   8.213
44834SOL    HW136335  11.713   5.253   8.185
44834SOL    HW236336  11.672   5.394   8.150
44835SOL     OW36337  11.631  10.263  13.283
44835SOL    HW136338  11.586  10.342  13.254
44835SOL    HW236339  11.564  10.194  13.279
44836SOL     OW36340   4.315   9.410  11.186
44836SOL    HW136341   4.228   9.432  11.153
44836SOL    HW236342   4.375   9.457  11.129
44837SOL     OW36343   6.233   0.060   6.339
44837SOL    HW136344   6.232   0.052   6.243
44837SOL    HW236345   6.228   0.154   6.355
44838SOL     OW36346   9.706   6.286   2.419
44838SOL    HW136347   9.793   6.255   2.444
44838SOL    HW236348   9.647   6.216   2.448
44839SOL     OW36349   7.009   8.244   9.428
44839SOL    HW136350   7.089   8.242   9.480
44839SOL    HW236351   7.039   8.251   9.337
44840SOL     OW36352   2.717   1.673   9.425
44840SOL    HW136353   2.808   1.680   9.396
44840SOL    HW236354   2.680   1.759   9.409
44841SOL     OW36355   3.719   1.729   1.544
44841SOL    HW136356   3.666   1.711   1.466
44841SOL    HW236357   3.796   1.673   1.534
44842SOL     OW36358  12.931  12.917   1.667
44842SOL    HW136359  12.990  12.861   1.717
44842SOL    HW236360  12.941  13.004   1.707
44843SOL     OW36361  11.072  11.231   9.578
44843SOL    HW136362  11.085  11.263   9.667
44843SOL    HW236363  11.150  11.260   9.530
44844SOL     OW36364   2.606  11.223   4.466
44844SOL    HW136365   2.647  11.208   4.552
44844SOL    HW236366   2.513  11.232   4.486
44845SOL     OW36367  10.173   9.607   3.078
44845SOL    HW136368  10.229   9.550   3.130
44845SOL    HW236369  10.228   9.680   3.052
44846SOL     OW36370   4.213   7.942   1.622
44846SOL    HW136371   4.177   7.858   1.650
44846SOL    HW236372   4.248   7.925   1.534
44847SOL     OW36373   4.163   6.022   1.757
44847SOL    HW136374   4.192   6.109   1.784
44847SOL    HW236375   4.130   6.035   1.668
44848SOL     OW36376   2.591   9.936  12.741
44848SOL    HW136377   2.655   9.953  12.672
44848SOL    HW236378   2.577   9.841  12.738
44849SOL     OW36379  11.911   3.121   5.924
44849SOL    HW136380  11.914   3.126   5.828
44849SOL    HW236381  11.863   3.199   5.951
44850SOL     OW36382  14.502   2.753   8.098
44850SOL    HW136383  14.430   2.801   8.140
44850SOL    HW236384  14.515   2.799   8.015
44851SOL     OW36385   5.411   5.598  13.276
44851SOL    HW136386   5.497   5.641  13.278
44851SOL    HW236387   5.406   5.559  13.189
44852SOL     OW36388  11.224   0.225  11.374
44852SOL    HW136389  11.240   0.156  11.310
44852SOL    HW236390  11.167   0.184  11.439
44853SOL     OW36391   7.320   4.987   1.146
44853SOL    HW136392   7.256   5.034   1.199
44853SOL    HW236393   7.319   4.897   1.181
44854SOL     OW36394   4.373  13.944   5.583
44854SOL    HW136395   4.286  13.910   5.604
44854SOL    HW236396   4.425  13.927   5.661
44855SOL     OW36397  11.928   9.463  10.892
44855SOL    HW136398  11.998   9.409  10.855
44855SOL    HW236399  11.858   9.459  10.827
44856SOL     OW36400   0.557   7.529   6.844
44856SOL    HW136401   0.615   7.593   6.885
44856SOL    HW236402   0.499   7.581   6.788
44857SOL     OW36403   6.933   1.226   5.614
44857SOL    HW136404   7.016   1.262   5.583
44857SOL    HW236405   6.940   1.229   5.709
44858SOL     OW36406   8.033  12.590  10.438
44858SOL    HW136407   8.059  12.499  10.455
44858SOL    HW236408   8.114  12.632  10.407
44859SOL     OW36409   4.380   2.002  14.149
44859SOL    HW136410   4.313   1.936  14.168
44859SOL    HW236411   4.414   2.027  14.236
44860SOL     OW36412   3.907  13.261   3.029
44860SOL    HW136413   3.851  13.223   2.961
44860SOL    HW236414   3.968  13.191   3.052
44861SOL     OW36415   9.192   4.573  10.435
44861SOL    HW136416   9.258   4.572  10.365
44861SOL    HW236417   9.167   4.665  10.443
44862SOL     OW36418   2.630   9.675   4.086
44862SOL    HW136419   2.675   9.758   4.100
44862SOL    HW236420   2.562   9.673   4.153
44863SOL     OW36421  10.245   9.260  10.585
44863SOL    HW136422  10.189   9.210  10.524
44863SOL    HW236423  10.187   9.284  10.657
44864SOL     OW36424  14.384   9.687  12.283
44864SOL    HW136425  14.396   9.781  12.300
44864SOL    HW236426  14.447   9.667  12.215
44865SOL     OW36427   0.292   9.432   4.186
44865SOL    HW136428   0.286   9.430   4.090
44865SOL    HW236429   0.370   9.380   4.206
44866SOL     OW36430   2.919  13.868  10.368
44866SOL    HW136431   2.901  13.777  10.343
44866SOL    HW236432   2.839  13.915  10.342
44867SOL     OW36433   1.451   9.942   2.963
44867SOL    HW136434   1.438   9.989   3.046
44867SOL    HW236435   1.374   9.887   2.953
44868SOL     OW36436  14.458   2.880   6.978
44868SOL    HW136437  14.530   2.836   7.023
44868SOL    HW236438  14.384   2.875   7.038
44869SOL     OW36439   0.508   1.756   2.195
44869SOL    HW136440   0.587   1.790   2.237
44869SOL    HW236441   0.513   1.661   2.207
44870SOL     OW36442  11.588   8.007   3.065
44870SOL    HW136443  11.655   8.070   3.037
44870SOL    HW236444  11.562   8.037   3.152
44871SOL     OW36445   7.522   0.903   9.218
44871SOL    HW136446   7.437   0.946   9.225
44871SOL    HW236447   7.566   0.949   9.147
44872SOL     OW36448   5.565  11.429  12.591
44872SOL    HW136449   5.480  11.400  12.560
44872SOL    HW236450   5.574  11.390  12.678
44873SOL     OW36451  11.491  12.499  14.615
44873SOL    HW136452  11.555  12.427  14.614
44873SOL    HW236453  11.523  12.558  14.683
44874SOL     OW36454  14.658   1.870   6.372
44874SOL    HW136455  14.704   1.936   6.423
44874SOL    HW236456  14.566   1.878   6.398
44875SOL     OW36457  12.906   1.106  12.717
44875SOL    HW136458  12.848   1.036  12.689
44875SOL    HW236459  12.882   1.181  12.662
44876SOL     OW36460   4.193   7.094   8.697
44876SOL    HW136461   4.152   7.180   8.702
44876SOL    HW236462   4.247   7.089   8.776
44877SOL     OW36463  13.519  14.401   8.998
44877SOL    HW136464  13.480  14.406   9.086
44877SOL    HW236465  13.600  14.352   9.011
44878SOL     OW36466   5.650   8.903  13.552
44878SOL    HW136467   5.623   8.982  13.506
44878SOL    HW236468   5.666   8.839  13.482
44879SOL     OW36469  14.566   0.689   7.185
44879SOL    HW136470  14.525   0.774   7.200
44879SOL    HW236471  14.492   0.627   7.185
44880SOL     OW36472  13.402   8.032   1.035
44880SOL    HW136473  13.393   8.111   1.089
44880SOL    HW236474  13.326   8.033   0.978
44881SOL     OW36475   1.347   8.798   5.035
44881SOL    HW136476   1.442   8.790   5.024
44881SOL    HW236477   1.314   8.821   4.948
44882SOL     OW36478   7.266  10.431  10.353
44882SOL    HW136479   7.225  10.406  10.270
44882SOL    HW236480   7.222  10.512  10.378
44883SOL     OW36481   7.530   1.091  11.650
44883SOL    HW136482   7.563   1.087  11.560
44883SOL    HW236483   7.589   1.151  11.694
44884SOL     OW36484   2.414  11.023   0.245
44884SOL    HW136485   2.325  10.989   0.253
44884SOL    HW236486   2.459  10.990   0.323
44885SOL     OW36487  14.144  12.243   5.738
44885SOL    HW136488  14.189  12.215   5.818
44885SOL    HW236489  14.074  12.179   5.726
44886SOL     OW36490   5.845   0.792   5.335
44886SOL    HW136491   5.813   0.856   5.399
44886SOL    HW236492   5.895   0.729   5.387
44887SOL     OW36493   3.674   4.814   3.843
44887SOL    HW136494   3.621   4.737   3.827
44887SOL    HW236495   3.660   4.834   3.936
44888SOL     OW36496   2.554   9.156  11.826
44888SOL    HW136497   2.618   9.191  11.888
44888SOL    HW236498   2.474   9.205  11.844
44889SOL     OW36499  11.622   7.892   3.752
44889SOL    HW136500  11.692   7.879   3.816
44889SOL    HW236501  11.544   7.859   3.796
44890SOL     OW36502  10.978   9.707   2.066
44890SOL    HW136503  10.987   9.647   2.140
44890SOL    HW236504  10.973   9.794   2.105
44891SOL     OW36505   9.360  13.196   8.359
44891SOL    HW136506   9.279  13.218   8.405
44891SOL    HW236507   9.359  13.100   8.352
44892SOL     OW36508   5.712  13.720   3.048
44892SOL    HW136509   5.781  13.677   2.999
44892SOL    HW236510   5.733  13.703   3.140
44893SOL     OW36511   0.627  11.687   7.229
44893SOL    HW136512   0.639  11.654   7.140
44893SOL    HW236513   0.656  11.778   7.225
44894SOL     OW36514   2.155   0.977   9.705
44894SOL    HW136515   2.213   1.049   9.726
44894SOL    HW236516   2.156   0.921   9.783
44895SOL     OW36517   3.159  10.411   3.298
44895SOL    HW136518   3.250  10.406   3.326
44895SOL    HW236519   3.123  10.488   3.344
44896SOL     OW36520   6.088   6.562   0.577
44896SOL    HW136521   6.162   6.580   0.634
44896SOL    HW236522   6.117   6.587   0.489
44897SOL     OW36523   4.416   2.595   4.697
44897SOL    HW136524   4.456   2.537   4.632
44897SOL    HW236525   4.359   2.652   4.645
44898SOL     OW36526   1.624  11.441   3.216
44898SOL    HW136527   1.548  11.418   3.270
44898SOL    HW236528   1.596  11.518   3.167
44899SOL     OW36529   5.446   8.280  14.417
44899SOL    HW136530   5.509   8.214  14.387
44899SOL    HW236531   5.431   8.335  14.340
44900SOL     OW36532  13.762   7.706   2.048
44900SOL    HW136533  13.697   7.746   1.991
44900SOL    HW236534  13.799   7.635   1.997
44901SOL     OW36535   9.416   9.354   6.371
44901SOL    HW136536   9.378   9.442   6.370
44901SOL    HW236537   9.510   9.369   6.359
44902SOL     OW36538  12.598   5.470   1.781
44902SOL    HW136539  12.522   5.414   1.796
44902SOL    HW236540  12.669   5.409   1.761
44903SOL     OW36541   2.874   5.921   6.104
44903SOL    HW136542   2.876   5.892   6.013
44903SOL    HW236543   2.944   5.985   6.111
44904SOL     OW36544   2.131  10.508  14.224
44904SOL    HW136545   2.120  10.447  14.151
44904SOL    HW236546   2.100  10.459  14.301
44905SOL     OW36547  14.031  14.103   5.449
44905SOL    HW136548  14.065  14.191   5.464
44905SOL    HW236549  14.072  14.075   5.367
44906SOL     OW36550   8.482   5.968   9.249
44906SOL    HW136551   8.561   5.973   9.302
44906SOL    HW236552   8.440   6.053   9.259
44907SOL     OW36553   8.103   8.551   9.040
44907SOL    HW136554   8.123   8.599   8.959
44907SOL    HW236555   8.175   8.489   9.049
44908SOL     OW36556   2.583  11.648   4.075
44908SOL    HW136557   2.646  11.666   4.006
44908SOL    HW236558   2.502  11.626   4.028
44909SOL     OW36559   0.659   2.701  14.229
44909SOL    HW136560   0.704   2.736  14.152
44909SOL    HW236561   0.702   2.617  14.245
44910SOL     OW36562   8.437   5.786   7.061
44910SOL    HW136563   8.377   5.856   7.036
44910SOL    HW236564   8.381   5.714   7.090
44911SOL     OW36565   0.175   9.668   3.782
44911SOL    HW136566   0.241   9.708   3.838
44911SOL    HW236567   0.219   9.654   3.698
44912SOL     OW36568  13.141   7.538   5.685
44912SOL    HW136569  13.201   7.575   5.621
44912SOL    HW236570  13.065   7.597   5.683
44913SOL     OW36571   6.010   4.788   5.334
44913SOL    HW136572   5.952   4.712   5.335
44913SOL    HW236573   6.098   4.751   5.322
44914SOL     OW36574  13.423   8.079   3.557
44914SOL    HW136575  13.379   8.147   3.609
44914SOL    HW236576  13.416   8.109   3.467
44915SOL     OW36577   5.518   0.104   2.424
44915SOL    HW136578   5.603   0.076   2.392
44915SOL    HW236579   5.507   0.192   2.388
44916SOL     OW36580  12.823   5.445   9.551
44916SOL    HW136581  12.808   5.364   9.601
44916SOL    HW236582  12.909   5.433   9.512
44917SOL     OW36583   2.824  14.142   9.489
44917SOL    HW136584   2.884  14.116   9.419
44917SOL    HW236585   2.769  14.210   9.449
44918SOL     OW36586   7.294  11.458   4.824
44918SOL    HW136587   7.207  11.417   4.829
44918SOL    HW236588   7.326  11.436   4.736
44919SOL     OW36589   7.019   7.015  13.983
44919SOL    HW136590   7.097   6.963  14.002
44919SOL    HW236591   6.951   6.979  14.041
44920SOL     OW36592   8.485   5.882   3.337
44920SOL    HW136593   8.547   5.930   3.392
44920SOL    HW236594   8.504   5.790   3.356
44921SOL     OW36595   5.418   9.631   5.306
44921SOL    HW136596   5.367   9.624   5.225
44921SOL    HW236597   5.390   9.555   5.357
44922SOL     OW36598   9.019   0.922   7.721
44922SOL    HW136599   9.089   0.893   7.779
44922SOL    HW236600   9.037   1.014   7.705
44923SOL     OW36601   1.416   7.540  11.063
44923SOL    HW136602   1.320   7.540  11.056
44923SOL    HW236603   1.437   7.623  11.106
44924SOL     OW36604  14.845   0.414   0.472
44924SOL    HW136605  14.796   0.389   0.550
44924SOL    HW236606  14.798   0.373   0.400
44925SOL     OW36607   0.196   0.986   5.448
44925SOL    HW136608   0.109   0.982   5.487
44925SOL    HW236609   0.184   0.950   5.360
44926SOL     OW36610   1.620   3.157   6.672
44926SOL    HW136611   1.643   3.225   6.608
44926SOL    HW236612   1.578   3.205   6.743
44927SOL     OW36613   9.512   7.218  13.234
44927SOL    HW136614   9.590   7.242  13.184
44927SOL    HW236615   9.463   7.300  13.244
44928SOL     OW36616   5.794   1.536  14.144
44928SOL    HW136617   5.811   1.619  14.100
44928SOL    HW236618   5.797   1.471  14.074
44929SOL     OW36619  12.058   7.012  14.560
44929SOL    HW136620  11.987   6.982  14.503
44929SOL    HW236621  12.137   6.998  14.508
44930SOL     OW36622  11.253   8.993   2.979
44930SOL    HW136623  11.279   8.934   3.050
44930SOL    HW236624  11.198   9.059   3.021
44931SOL     OW36625  14.254   0.128  13.411
44931SOL    HW136626  14.203   0.053  13.442
44931SOL    HW236627  14.328   0.134  13.471
44932SOL     OW36628   0.119   1.827   4.847
44932SOL    HW136629   0.211   1.831   4.873
44932SOL    HW236630   0.095   1.918   4.830
44933SOL     OW36631   7.292   4.398   3.626
44933SOL    HW136632   7.251   4.479   3.595
44933SOL    HW236633   7.240   4.328   3.586
44934SOL     OW36634   1.719   0.272   5.928
44934SOL    HW136635   1.682   0.233   6.006
44934SOL    HW236636   1.645   0.280   5.867
44935SOL     OW36637   7.555   2.942   7.485
44935SOL    HW136638   7.523   2.918   7.573
44935SOL    HW236639   7.632   2.886   7.472
44936SOL     OW36640   3.533   3.672  12.049
44936SOL    HW136641   3.544   3.738  12.117
44936SOL    HW236642   3.565   3.591  12.089
44937SOL     OW36643   5.662  12.808   5.960
44937SOL    HW136644   5.572  12.784   5.982
44937SOL    HW236645   5.691  12.740   5.899
44938SOL     OW36646   7.349   9.148   1.405
44938SOL    HW136647   7.407   9.198   1.463
44938SOL    HW236648   7.287   9.105   1.463
44939SOL     OW36649  11.866   9.706   7.203
44939SOL    HW136650  11.782   9.664   7.185
44939SOL    HW236651  11.854   9.798   7.179
44940SOL     OW36652  11.975   2.438   2.795
44940SOL    HW136653  12.057   2.388   2.791
44940SOL    HW236654  11.914   2.389   2.739
44941SOL     OW36655   9.095  14.468  12.604
44941SOL    HW136656   9.164  14.510  12.656
44941SOL    HW236657   9.143  14.414  12.541
44942SOL     OW36658  14.233  14.154   1.090
44942SOL    HW136659  14.270  14.066   1.079
44942SOL    HW236660  14.139  14.141   1.085
44943SOL     OW36661  14.480  12.918   1.704
44943SOL    HW136662  14.496  12.825   1.714
44943SOL    HW236663  14.567  12.957   1.691
44944SOL     OW36664   5.140   4.792   6.274
44944SOL    HW136665   5.196   4.843   6.216
44944SOL    HW236666   5.058   4.780   6.225
44945SOL     OW36667   0.010   0.232  14.298
44945SOL    HW136668  14.804   0.246  14.255
44945SOL    HW236669   0.013   0.138  14.314
44946SOL     OW36670  10.532  11.117   3.637
44946SOL    HW136671  10.608  11.064   3.613
44946SOL    HW236672  10.549  11.146   3.727
44947SOL     OW36673  14.377  13.201  13.291
44947SOL    HW136674  14.446  13.146  13.327
44947SOL    HW236675  14.375  13.278  13.348
44948SOL     OW36676   5.220  11.557  12.045
44948SOL    HW136677   5.224  11.652  12.033
44948SOL    HW236678   5.135  11.542  12.086
44949SOL     OW36679   9.962   2.209   0.106
44949SOL    HW136680   9.934   2.300   0.097
44949SOL    HW236681   9.881   2.158   0.098
44950SOL     OW36682  10.677   8.898   9.649
44950SOL    HW136683  10.756   8.892   9.595
44950SOL    HW236684  10.664   8.809   9.682
44951SOL     OW36685   6.270  13.300  11.422
44951SOL    HW136686   6.259  13.388  11.458
44951SOL    HW236687   6.245  13.242  11.493
44952SOL     OW36688   1.602  13.345   9.810
44952SOL    HW136689   1.511  13.338   9.782
44952SOL    HW236690   1.636  13.256   9.801
44953SOL     OW36691   6.313   2.987   9.215
44953SOL    HW136692   6.378   2.966   9.282
44953SOL    HW236693   6.249   3.043   9.260
44954SOL     OW36694   7.872   1.816   7.600
44954SOL    HW136695   7.811   1.832   7.528
44954SOL    HW236696   7.958   1.811   7.558
44955SOL     OW36697   9.538   3.818  14.537
44955SOL    HW136698   9.483   3.892  14.511
44955SOL    HW236699   9.556   3.772  14.456
44956SOL     OW36700   7.074  13.181   5.372
44956SOL    HW136701   7.151  13.177   5.429
44956SOL    HW236702   7.105  13.227   5.294
44957SOL     OW36703   0.390   5.863   0.673
44957SOL    HW136704   0.399   5.824   0.760
44957SOL    HW236705   0.304   5.835   0.643
44958SOL     OW36706  13.571  10.125   9.403
44958SOL    HW136707  13.651  10.177   9.416
44958SOL    HW236708  13.597  10.037   9.429
44959SOL     OW36709   6.087  12.409  10.064
44959SOL    HW136710   6.135  12.475  10.114
44959SOL    HW236711   6.130  12.408   9.979
44960SOL     OW36712   0.906   4.767  14.870
44960SOL    HW136713   0.890   4.861  14.859
44960SOL    HW236714   0.969   4.761   0.062
44961SOL     OW36715   6.971   6.556   0.321
44961SOL    HW136716   6.979   6.551   0.416
44961SOL    HW236717   7.043   6.612   0.293
44962SOL     OW36718  13.125   1.379   6.408
44962SOL    HW136719  13.218   1.381   6.433
44962SOL    HW236720  13.078   1.399   6.489
44963SOL     OW36721  10.979   6.263   7.780
44963SOL    HW136722  11.006   6.182   7.825
44963SOL    HW236723  11.062   6.304   7.754
44964SOL     OW36724   9.666  10.606   8.664
44964SOL    HW136725   9.629  10.538   8.608
44964SOL    HW236726   9.759  10.606   8.644
44965SOL     OW36727  12.004   9.305  11.506
44965SOL    HW136728  11.969   9.394  11.517
44965SOL    HW236729  12.092   9.318  11.471
44966SOL     OW36730   3.158   3.044  12.623
44966SOL    HW136731   3.074   3.009  12.592
44966SOL    HW236732   3.165   3.013  12.713
44967SOL     OW36733  12.571   0.412   8.620
44967SOL    HW136734  12.598   0.358   8.694
44967SOL    HW236735  12.491   0.370   8.587
44968SOL     OW36736   4.139   6.874  14.267
44968SOL    HW136737   4.185   6.798  14.231
44968SOL    HW236738   4.205   6.942  14.272
44969SOL     OW36739   2.350  14.442   9.252
44969SOL    HW136740   2.363  14.528   9.291
44969SOL    HW236741   2.266  14.448   9.206
44970SOL     OW36742   8.588   2.912   1.663
44970SOL    HW136743   8.610   3.005   1.654
44970SOL    HW236744   8.525   2.895   1.593
44971SOL     OW36745   0.673   6.928   6.082
44971SOL    HW136746   0.586   6.889   6.068
44971SOL    HW236747   0.734   6.862   6.048
44972SOL     OW36748  10.007  10.998   6.187
44972SOL    HW136749   9.944  10.945   6.139
44972SOL    HW236750  10.056  10.936   6.240
44973SOL     OW36751   0.490   4.236   9.182
44973SOL    HW136752   0.529   4.315   9.145
44973SOL    HW236753   0.485   4.253   9.276
44974SOL     OW36754  13.438  14.491   7.596
44974SOL    HW136755  13.423  14.584   7.608
44974SOL    HW236756  13.370  14.462   7.535
44975SOL     OW36757   3.416  14.443   4.675
44975SOL    HW136758   3.334  14.413   4.636
44975SOL    HW236759   3.430  14.384   4.749
44976SOL     OW36760  11.312   0.111  13.422
44976SOL    HW136761  11.301   0.029  13.374
44976SOL    HW236762  11.262   0.176  13.371
44977SOL     OW36763   8.867  11.435   8.455
44977SOL    HW136764   8.910  11.518   8.475
44977SOL    HW236765   8.834  11.404   8.540
44978SOL     OW36766   3.853  14.095   7.048
44978SOL    HW136767   3.909  14.103   7.125
44978SOL    HW236768   3.776  14.048   7.079
44979SOL     OW36769  14.543   7.910  11.314
44979SOL    HW136770  14.629   7.923  11.276
44979SOL    HW236771  14.554   7.835  11.373
44980SOL     OW36772   6.417  10.724   1.728
44980SOL    HW136773   6.470  10.767   1.662
44980SOL    HW236774   6.366  10.794   1.768
44981SOL     OW36775   8.412   8.316  12.659
44981SOL    HW136776   8.456   8.400  12.676
44981SOL    HW236777   8.477   8.250  12.683
44982SOL     OW36778   0.660   9.431  13.520
44982SOL    HW136779   0.655   9.507  13.463
44982SOL    HW236780   0.570   9.419  13.552
44983SOL     OW36781   5.068   8.270   2.801
44983SOL    HW136782   5.153   8.231   2.780
44983SOL    HW236783   5.089   8.342   2.861
44984SOL     OW36784   8.253   4.864  11.575
44984SOL    HW136785   8.324   4.801  11.591
44984SOL    HW236786   8.174   4.817  11.600
44985SOL     OW36787   4.195   4.381  13.376
44985SOL    HW136788   4.254   4.334  13.317
44985SOL    HW236789   4.253   4.416  13.444
44986SOL     OW36790   1.778  11.772  14.634
44986SOL    HW136791   1.748  11.684  14.611
44986SOL    HW236792   1.852  11.758  14.693
44987SOL     OW36793  10.515   8.400   8.259
44987SOL    HW136794  10.502   8.340   8.333
44987SOL    HW236795  10.575   8.353   8.201
44988SOL     OW36796   5.937  14.196   2.253
44988SOL    HW136797   5.870  14.172   2.317
44988SOL    HW236798   6.012  14.225   2.306
44989SOL     OW36799   6.613   5.722   8.197
44989SOL    HW136800   6.587   5.630   8.191
44989SOL    HW236801   6.707   5.722   8.183
44990SOL     OW36802   3.044   5.823   9.558
44990SOL    HW136803   2.975   5.765   9.591
44990SOL    HW236804   3.106   5.830   9.631
44991SOL     OW36805  12.765   5.456  12.381
44991SOL    HW136806  12.797   5.469  12.292
44991SOL    HW236807  12.671   5.474  12.375
44992SOL     OW36808   2.248   5.906  10.617
44992SOL    HW136809   2.257   5.897  10.522
44992SOL    HW236810   2.297   5.985  10.638
44993SOL     OW36811   3.741   9.260  11.070
44993SOL    HW136812   3.836   9.252  11.057
44993SOL    HW236813   3.704   9.188  11.019
44994SOL     OW36814  14.086  12.775   5.530
44994SOL    HW136815  14.126  12.768   5.443
44994SOL    HW236816  14.089  12.686   5.565
44995SOL     OW36817   0.444   0.854   5.802
44995SOL    HW136818   0.463   0.910   5.727
44995SOL    HW236819   0.366   0.805   5.775
44996SOL     OW36820   3.459   6.304   8.457
44996SOL    HW136821   3.511   6.239   8.409
44996SOL    HW236822   3.482   6.388   8.417
44997SOL     OW36823  13.756   0.831   2.415
44997SOL    HW136824  13.675   0.791   2.445
44997SOL    HW236825  13.730   0.919   2.386
44998SOL     OW36826   7.492   1.652   8.045
44998SOL    HW136827   7.489   1.633   7.951
44998SOL    HW236828   7.485   1.747   8.051
44999SOL     OW36829   8.355   0.763  12.265
44999SOL    HW136830   8.317   0.849  12.281
44999SOL    HW236831   8.414   0.749  12.339
45000SOL     OW36832   5.579  14.466   1.413
45000SOL    HW136833   5.656  14.521   1.406
45000SOL    HW236834   5.565  14.455   1.507
45001SOL     OW36835   1.483   9.216  14.311
45001SOL    HW136836   1.521   9.238  14.226
45001SOL    HW236837   1.390   9.240  14.302
45002SOL     OW36838   1.466   8.959   3.784
45002SOL    HW136839   1.468   9.053   3.768
45002SOL    HW236840   1.377   8.932   3.762
45003SOL     OW36841   7.031  11.359   0.908
45003SOL    HW136842   7.024  11.364   1.004
45003SOL    HW236843   7.045  11.449   0.881
45004SOL     OW36844   4.746  12.245   5.758
45004SOL    HW136845   4.687  12.200   5.819
45004SOL    HW236846   4.770  12.326   5.803
45005SOL     OW36847   3.893  10.864   6.721
45005SOL    HW136848   3.853  10.856   6.634
45005SOL    HW236849   3.944  10.945   6.716
45006SOL     OW36850  10.239   8.991   4.840
45006SOL    HW136851  10.165   8.945   4.879
45006SOL    HW236852  10.238   9.077   4.883
45007SOL     OW36853  11.946   8.954  13.192
45007SOL    HW136854  11.923   8.936  13.101
45007SOL    HW236855  11.867   8.995  13.228
45008SOL     OW36856  11.187   3.162   4.128
45008SOL    HW136857  11.142   3.124   4.052
45008SOL    HW236858  11.161   3.254   4.128
45009SOL     OW36859  12.971   0.710  13.021
45009SOL    HW136860  12.929   0.744  13.099
45009SOL    HW236861  13.064   0.731  13.032
45010SOL     OW36862   0.350  14.102   3.011
45010SOL    HW136863   0.302  14.035   3.059
45010SOL    HW236864   0.310  14.185   3.038
45011SOL     OW36865   9.021  10.370  11.123
45011SOL    HW136866   8.946  10.374  11.064
45011SOL    HW236867   8.993  10.311  11.193
45012SOL     OW36868  13.608  12.978   2.139
45012SOL    HW136869  13.702  12.974   2.158
45012SOL    HW236870  13.567  12.939   2.216
45013SOL     OW36871   7.150  12.745   0.483
45013SOL    HW136872   7.128  12.685   0.412
45013SOL    HW236873   7.224  12.795   0.451
45014SOL     OW36874   4.596   8.790   5.225
45014SOL    HW136875   4.652   8.865   5.209
45014SOL    HW236876   4.518   8.827   5.268
45015SOL     OW36877   8.716   2.220  11.220
45015SOL    HW136878   8.642   2.173  11.259
45015SOL    HW236879   8.781   2.152  11.203
45016SOL     OW36880   2.048   0.513  12.062
45016SOL    HW136881   1.964   0.559  12.076
45016SOL    HW236882   2.067   0.527  11.969
45017SOL     OW36883  10.928   6.835   6.055
45017SOL    HW136884  10.993   6.797   5.996
45017SOL    HW236885  10.892   6.910   6.007
45018SOL     OW36886   5.971   9.139   5.249
45018SOL    HW136887   6.006   9.062   5.204
45018SOL    HW236888   5.953   9.109   5.338
45019SOL     OW36889   0.454  13.457  13.186
45019SOL    HW136890   0.510  13.395  13.231
45019SOL    HW236891   0.374  13.459  13.238
45020SOL     OW36892   9.732   9.083   1.195
45020SOL    HW136893   9.749   9.030   1.273
45020SOL    HW236894   9.816   9.123   1.174
45021SOL     OW36895   2.055   4.678  11.364
45021SOL    HW136896   2.025   4.757  11.319
45021SOL    HW236897   2.150   4.681  11.355
45022SOL     OW36898   1.460   6.590  14.531
45022SOL    HW136899   1.473   6.509  14.581
45022SOL    HW236900   1.400   6.642  14.584
45023SOL     OW36901   1.050  13.478   2.967
45023SOL    HW136902   1.081  13.473   3.058
45023SOL    HW236903   0.985  13.409   2.959
45024SOL     OW36904  14.749  10.181   6.443
45024SOL    HW136905  14.782  10.264   6.477
45024SOL    HW236906  14.807  10.160   6.370
45025SOL     OW36907  12.110  14.170   4.879
45025SOL    HW136908  12.015  14.180   4.867
45025SOL    HW236909  12.144  14.159   4.791
45026SOL     OW36910   2.594   7.035   5.533
45026SOL    HW136911   2.598   6.956   5.479
45026SOL    HW236912   2.662   7.024   5.599
45027SOL     OW36913   4.958  11.864   7.705
45027SOL    HW136914   4.954  11.772   7.730
45027SOL    HW236915   4.973  11.862   7.610
45028SOL     OW36916   8.052  14.475   1.370
45028SOL    HW136917   8.010  14.487   1.284
45028SOL    HW236918   8.013  14.542   1.425
45029SOL     OW36919  11.954   0.756   7.740
45029SOL    HW136920  11.882   0.752   7.803
45029SOL    HW236921  11.912   0.747   7.655
45030SOL     OW36922  14.657   1.863   9.359
45030SOL    HW136923  14.678   1.769   9.359
45030SOL    HW236924  14.725   1.902   9.414
45031SOL     OW36925  11.466   7.484   4.248
45031SOL    HW136926  11.434   7.536   4.321
45031SOL    HW236927  11.391   7.478   4.188
45032SOL     OW36928   5.534   1.619   8.319
45032SOL    HW136929   5.606   1.624   8.256
45032SOL    HW236930   5.475   1.552   8.284
45033SOL     OW36931   0.535   8.095   2.333
45033SOL    HW136932   0.484   8.139   2.401
45033SOL    HW236933   0.581   8.024   2.379
45034SOL     OW36934   7.957  14.543   1.138
45034SOL    HW136935   8.043  14.561   1.098
45034SOL    HW236936   7.901  14.517   1.064
45035SOL     OW36937  11.222   3.373   8.934
45035SOL    HW136938  11.206   3.411   9.021
45035SOL    HW236939  11.139   3.336   8.907
45036SOL     OW36940   7.391   9.799  10.798
45036SOL    HW136941   7.305   9.834  10.824
45036SOL    HW236942   7.408   9.730  10.861
45037SOL     OW36943   2.941   4.109  11.897
45037SOL    HW136944   2.895   4.184  11.935
45037SOL    HW236945   2.924   4.037  11.957
45038SOL     OW36946   6.647  14.638  13.216
45038SOL    HW136947   6.619  14.547  13.223
45038SOL    HW236948   6.731  14.634  13.169
45039SOL     OW36949  13.469   7.626   5.959
45039SOL    HW136950  13.498   7.610   6.049
45039SOL    HW236951  13.376   7.649   5.968
45040SOL     OW36952   0.538  10.886  13.159
45040SOL    HW136953   0.486  10.835  13.097
45040SOL    HW236954   0.529  10.977  13.129
45041SOL     OW36955   8.520   9.624  14.584
45041SOL    HW136956   8.477   9.696  14.630
45041SOL    HW236957   8.521   9.553  14.647
45042SOL     OW36958   6.145   0.716   0.355
45042SOL    HW136959   6.223   0.767   0.331
45042SOL    HW236960   6.178   0.627   0.366
45043SOL     OW36961   2.934  14.223   8.202
45043SOL    HW136962   2.922  14.314   8.174
45043SOL    HW236963   2.925  14.172   8.122
45044SOL     OW36964   6.759  13.068   1.507
45044SOL    HW136965   6.748  13.163   1.496
45044SOL    HW236966   6.803  13.040   1.426
45045SOL     OW36967   2.469   4.392  14.661
45045SOL    HW136968   2.494   4.366  14.750
45045SOL    HW236969   2.377   4.368  14.653
45046SOL     OW36970   6.148  12.844   4.903
45046SOL    HW136971   6.104  12.876   4.982
45046SOL    HW236972   6.225  12.798   4.935
45047SOL     OW36973  12.117   1.689   4.298
45047SOL    HW136974  12.141   1.778   4.273
45047SOL    HW236975  12.172   1.632   4.244
45048SOL     OW36976   7.548   8.416   5.674
45048SOL    HW136977   7.572   8.504   5.646
45048SOL    HW236978   7.609   8.397   5.746
45049SOL     OW36979   4.750   9.759   2.028
45049SOL    HW136980   4.807   9.743   1.952
45049SOL    HW236981   4.745   9.855   2.033
45050SOL     OW36982   4.225   2.266   6.720
45050SOL    HW136983   4.148   2.268   6.663
45050SOL    HW236984   4.289   2.323   6.677
45051SOL     OW36985   3.168  10.197  10.652
45051SOL    HW136986   3.188  10.104  10.650
45051SOL    HW236987   3.121  10.210  10.734
45052SOL     OW36988   6.531   2.899  12.281
45052SOL    HW136989   6.535   2.872  12.190
45052SOL    HW236990   6.454   2.956  12.286
45053SOL     OW36991   4.206  13.734  11.686
45053SOL    HW136992   4.284  13.715  11.738
45053SOL    HW236993   4.171  13.648  11.662
45054SOL     OW36994   7.648   6.037   5.559
45054SOL    HW136995   7.654   6.132   5.574
45054SOL    HW236996   7.736   6.004   5.575
45055SOL     OW36997   9.001  10.668   4.114
45055SOL    HW136998   9.023  10.615   4.190
45055SOL    HW236999   8.916  10.707   4.136
45056SOL     OW37000   6.529  13.818   4.655
45056SOL    HW137001   6.487  13.732   4.651
45056SOL    HW237002   6.548  13.840   4.564
45057SOL     OW37003   8.320   0.438   7.791
45057SOL    HW137004   8.288   0.421   7.879
45057SOL    HW237005   8.377   0.514   7.799
45058SOL     OW37006   2.220   4.943   1.608
45058SOL    HW137007   2.234   5.033   1.637
45058SOL    HW237008   2.230   4.891   1.688
45059SOL     OW37009   0.986  13.734   6.417
45059SOL    HW137010   0.934  13.705   6.343
45059SOL    HW237011   0.923  13.755   6.485
45060SOL     OW37012   2.653   7.495  11.454
45060SOL    HW137013   2.735   7.485  11.502
45060SOL    HW237014   2.589   7.448  11.507
45061SOL     OW37015  11.275  11.063   2.738
45061SOL    HW137016  11.315  11.129   2.682
45061SOL    HW237017  11.266  10.985   2.682
45062SOL     OW37018   9.125   9.618   8.152
45062SOL    HW137019   9.167   9.532   8.150
45062SOL    HW237020   9.033   9.600   8.171
45063SOL     OW37021  10.531  10.048   3.168
45063SOL    HW137022  10.444  10.022   3.197
45063SOL    HW237023  10.527  10.048   3.073
45064SOL     OW37024   3.165   9.037   1.273
45064SOL    HW137025   3.141   8.945   1.277
45064SOL    HW237026   3.246   9.044   1.325
45065SOL     OW37027  12.612   8.745   8.457
45065SOL    HW137028  12.704   8.744   8.484
45065SOL    HW237029  12.610   8.690   8.378
45066SOL     OW37030   3.852   2.021   9.625
45066SOL    HW137031   3.866   2.115   9.641
45066SOL    HW237032   3.863   2.011   9.530
45067SOL     OW37033   0.845   8.856  10.350
45067SOL    HW137034   0.786   8.787  10.319
45067SOL    HW237035   0.787   8.930  10.369
45068SOL     OW37036   3.124  14.631  10.673
45068SOL    HW137037   3.066  14.556  10.688
45068SOL    HW237038   3.134  14.635  10.578
45069SOL     OW37039   0.854  13.431   7.356
45069SOL    HW137040   0.836  13.338   7.343
45069SOL    HW237041   0.768  13.469   7.374
45070SOL     OW37042   0.680   0.083   1.246
45070SOL    HW137043   0.639   0.125   1.321
45070SOL    HW237044   0.766   0.125   1.239
45071SOL     OW37045   3.300   5.112  13.642
45071SOL    HW137046   3.341   5.179  13.696
45071SOL    HW237047   3.233   5.158  13.592
45072SOL     OW37048   8.389   0.645  12.011
45072SOL    HW137049   8.389   0.689  12.097
45072SOL    HW237050   8.428   0.559  12.028
45073SOL     OW37051   8.997   2.393   0.494
45073SOL    HW137052   9.044   2.311   0.486
45073SOL    HW237053   8.968   2.413   0.405
45074SOL     OW37054   6.555   8.333  11.949
45074SOL    HW137055   6.643   8.302  11.926
45074SOL    HW237056   6.540   8.408  11.891
45075SOL     OW37057   8.703   5.455   9.240
45075SOL    HW137058   8.696   5.362   9.264
45075SOL    HW237059   8.616   5.476   9.205
45076SOL     OW37060  13.583   2.548   6.044
45076SOL    HW137061  13.537   2.632   6.043
45076SOL    HW237062  13.564   2.509   5.958
45077SOL     OW37063  12.552   5.453   3.436
45077SOL    HW137064  12.555   5.360   3.414
45077SOL    HW237065  12.643   5.482   3.428
45078SOL     OW37066  12.020  11.650  14.653
45078SOL    HW137067  12.088  11.620  14.593
45078SOL    HW237068  11.992  11.734  14.617
45079SOL     OW37069  12.964   6.932   9.793
45079SOL    HW137070  12.917   6.966   9.717
45079SOL    HW237071  12.920   6.850   9.815
45080SOL     OW37072   6.752  11.473  12.384
45080SOL    HW137073   6.846  11.455  12.375
45080SOL    HW237074   6.736  11.469  12.478
45081SOL     OW37075  10.014   2.445   2.143
45081SOL    HW137076   9.949   2.375   2.129
45081SOL    HW237077   9.988   2.485   2.226
45082SOL     OW37078   8.036  12.966   9.436
45082SOL    HW137079   8.045  13.025   9.361
45082SOL    HW237080   8.049  12.878   9.399
45083SOL     OW37081   7.789   6.601   8.742
45083SOL    HW137082   7.841   6.662   8.689
45083SOL    HW237083   7.831   6.516   8.730
45084SOL     OW37084  13.470   8.542  12.006
45084SOL    HW137085  13.400   8.556  12.069
45084SOL    HW237086  13.456   8.609  11.939
45085SOL     OW37087   3.568  12.182   2.370
45085SOL    HW137088   3.518  12.186   2.289
45085SOL    HW237089   3.503  12.195   2.439
45086SOL     OW37090   6.204   7.237   9.788
45086SOL    HW137091   6.261   7.287   9.730
45086SOL    HW237092   6.254   7.159   9.811
45087SOL     OW37093  10.257   0.619   1.906
45087SOL    HW137094  10.187   0.574   1.858
45087SOL    HW237095  10.259   0.707   1.869
45088SOL     OW37096   5.066   4.652   8.943
45088SOL    HW137097   5.059   4.646   9.038
45088SOL    HW237098   5.011   4.580   8.911
45089SOL     OW37099  13.396   9.537  10.463
45089SOL    HW137100  13.356   9.612  10.419
45089SOL    HW237101  13.346   9.462  10.430
45090SOL     OW37102   4.994  12.758   5.924
45090SOL    HW137103   5.039  12.690   5.976
45090SOL    HW237104   5.053  12.833   5.926
45091SOL     OW37105   8.932   3.761   6.308
45091SOL    HW137106   8.855   3.731   6.355
45091SOL    HW237107   8.933   3.856   6.320
45092SOL     OW37108   0.468   4.817   5.810
45092SOL    HW137109   0.409   4.779   5.745
45092SOL    HW237110   0.465   4.757   5.884
45093SOL     OW37111   6.255  13.644  13.721
45093SOL    HW137112   6.167  13.652  13.685
45093SOL    HW237113   6.270  13.550  13.727
45094SOL     OW37114   1.104   8.236   4.897
45094SOL    HW137115   1.153   8.318   4.896
45094SOL    HW237116   1.149   8.181   4.960
45095SOL     OW37117  13.740  12.772   9.082
45095SOL    HW137118  13.771  12.725   9.005
45095SOL    HW237119  13.763  12.863   9.065
45096SOL     OW37120   6.256  12.913  13.063
45096SOL    HW137121   6.340  12.956  13.042
45096SOL    HW237122   6.280  12.823  13.084
45097SOL     OW37123   6.850   2.287  11.607
45097SOL    HW137124   6.792   2.213  11.623
45097SOL    HW237125   6.879   2.276  11.517
45098SOL     OW37126  11.764   7.314   9.600
45098SOL    HW137127  11.799   7.402   9.587
45098SOL    HW237128  11.763   7.275   9.513
45099SOL     OW37129   0.518  13.695   6.299
45099SOL    HW137130   0.544  13.771   6.249
45099SOL    HW237131   0.594  13.674   6.353
45100SOL     OW37132   6.949   3.403   1.491
45100SOL    HW137133   6.988   3.463   1.555
45100SOL    HW237134   6.855   3.411   1.505
45101SOL     OW37135   8.446   6.275  11.841
45101SOL    HW137136   8.481   6.332  11.909
45101SOL    HW237137   8.520   6.256  11.784
45102SOL     OW37138  14.840  13.451  14.084
45102SOL    HW137139  14.802  13.538  14.072
45102SOL    HW237140   0.050  13.468  14.115
45103SOL     OW37141   2.231  12.817   7.439
45103SOL    HW137142   2.153  12.779   7.480
45103SOL    HW237143   2.254  12.891   7.496
45104SOL     OW37144   1.075   7.850  10.099
45104SOL    HW137145   1.087   7.795  10.021
45104SOL    HW237146   1.077   7.788  10.172
45105SOL     OW37147   0.619   5.902   9.593
45105SOL    HW137148   0.709   5.930   9.608
45105SOL    HW237149   0.623   5.806   9.597
45106SOL     OW37150  10.963   7.093  12.026
45106SOL    HW137151  11.033   7.035  11.997
45106SOL    HW237152  11.008   7.172  12.056
45107SOL     OW37153   9.368   2.545   3.832
45107SOL    HW137154   9.403   2.538   3.921
45107SOL    HW237155   9.283   2.503   3.837
45108SOL     OW37156   9.541   0.993  10.655
45108SOL    HW137157   9.462   0.946  10.684
45108SOL    HW237158   9.603   0.925  10.632
45109SOL     OW37159   8.932  13.489   9.452
45109SOL    HW137160   8.881  13.537   9.386
45109SOL    HW237161   9.023  13.508   9.430
45110SOL     OW37162   4.385   4.473   6.755
45110SOL    HW137163   4.446   4.516   6.695
45110SOL    HW237164   4.421   4.386   6.768
45111SOL     OW37165   9.233   8.571   7.915
45111SOL    HW137166   9.245   8.507   7.984
45111SOL    HW237167   9.240   8.656   7.959
45112SOL     OW37168  10.687   8.189  11.926
45112SOL    HW137169  10.719   8.251  11.992
45112SOL    HW237170  10.625   8.240  11.875
45113SOL     OW37171   4.197   2.309   7.763
45113SOL    HW137172   4.211   2.261   7.681
45113SOL    HW237173   4.115   2.357   7.748
45114SOL     OW37174   9.630   8.953  13.677
45114SOL    HW137175   9.636   8.871  13.628
45114SOL    HW237176   9.683   9.015  13.627
45115SOL     OW37177   5.258   3.745   5.240
45115SOL    HW137178   5.204   3.769   5.316
45115SOL    HW237179   5.348   3.745   5.273
45116SOL     OW37180   4.116   5.312  13.869
45116SOL    HW137181   4.150   5.225  13.888
45116SOL    HW237182   4.153   5.334  13.783
45117SOL     OW37183  12.232   7.192   3.192
45117SOL    HW137184  12.250   7.135   3.118
45117SOL    HW237185  12.138   7.209   3.187
45118SOL     OW37186  10.121  11.004   7.728
45118SOL    HW137187  10.136  11.096   7.750
45118SOL    HW237188  10.122  11.001   7.633
45119SOL     OW37189   7.208   7.986  14.728
45119SOL    HW137190   7.120   7.947  14.722
45119SOL    HW237191   7.240   7.960  14.814
45120SOL     OW37192   6.731   8.914  10.288
45120SOL    HW137193   6.810   8.889  10.336
45120SOL    HW237194   6.756   8.908  10.196
45121SOL     OW37195  14.291  14.267  10.004
45121SOL    HW137196  14.364  14.326  10.023
45121SOL    HW237197  14.324  14.208   9.936
45122SOL     OW37198   7.232  14.537   7.699
45122SOL    HW137199   7.236  14.563   7.791
45122SOL    HW237200   7.320  14.506   7.679
45123SOL     OW37201   2.423  13.141   2.602
45123SOL    HW137202   2.477  13.111   2.529
45123SOL    HW237203   2.345  13.179   2.560
45124SOL     OW37204   2.418   9.378   1.845
45124SOL    HW137205   2.410   9.319   1.770
45124SOL    HW237206   2.410   9.466   1.807
45125SOL     OW37207  14.615   9.387  14.618
45125SOL    HW137208  14.668   9.348  14.549
45125SOL    HW237209  14.649   9.350  14.699
45126SOL     OW37210  13.742   2.208   5.462
45126SOL    HW137211  13.752   2.303   5.472
45126SOL    HW237212  13.716   2.197   5.371
45127SOL     OW37213   6.544   8.286   0.400
45127SOL    HW137214   6.615   8.248   0.452
45127SOL    HW237215   6.482   8.321   0.465
45128SOL     OW37216   9.500   2.603  11.473
45128SOL    HW137217   9.482   2.537  11.407
45128SOL    HW237218   9.469   2.565  11.555
45129SOL     OW37219  10.278   7.931  11.031
45129SOL    HW137220  10.278   7.911  10.937
45129SOL    HW237221  10.370   7.931  11.056
45130SOL     OW37222  12.387   2.695  11.044
45130SOL    HW137223  12.390   2.704  10.949
45130SOL    HW237224  12.476   2.672  11.069
45131SOL     OW37225   8.427  14.671   3.935
45131SOL    HW137226   8.515  14.707   3.932
45131SOL    HW237227   8.373  14.744   3.967
45132SOL     OW37228   1.522  10.553  12.391
45132SOL    HW137229   1.550  10.574  12.302
45132SOL    HW237230   1.542  10.460  12.401
45133SOL     OW37231   1.741   3.963   5.352
45133SOL    HW137232   1.679   3.927   5.414
45133SOL    HW237233   1.692   4.032   5.306
45134SOL     OW37234   8.539   8.719  13.738
45134SOL    HW137235   8.548   8.688  13.828
45134SOL    HW237236   8.519   8.812  13.746
45135SOL     OW37237   6.654   0.440  11.147
45135SOL    HW137238   6.724   0.468  11.088
45135SOL    HW237239   6.595   0.389  11.092
45136SOL     OW37240  12.635   4.145   3.981
45136SOL    HW137241  12.722   4.107   3.995
45136SOL    HW237242  12.640   4.184   3.894
45137SOL     OW37243  10.304  12.512  12.206
45137SOL    HW137244  10.300  12.481  12.116
45137SOL    HW237245  10.286  12.606  12.201
45138SOL     OW37246   4.584   5.907   9.118
45138SOL    HW137247   4.542   5.908   9.032
45138SOL    HW237248   4.660   5.964   9.108
45139SOL     OW37249  14.526  14.366   6.696
45139SOL    HW137250  14.457  14.303   6.678
45139SOL    HW237251  14.607  14.322   6.670
45140SOL     OW37252   1.705   1.507   4.811
45140SOL    HW137253   1.769   1.511   4.883
45140SOL    HW237254   1.714   1.418   4.777
45141SOL     OW37255   6.253   1.436   5.533
45141SOL    HW137256   6.163   1.425   5.502
45141SOL    HW237257   6.263   1.531   5.541
45142SOL     OW37258   2.133   1.793   6.582
45142SOL    HW137259   2.103   1.847   6.655
45142SOL    HW237260   2.225   1.777   6.600
45143SOL     OW37261   9.351   3.801  12.516
45143SOL    HW137262   9.269   3.788  12.563
45143SOL    HW237263   9.413   3.742  12.560
45144SOL     OW37264   4.039   2.466   3.634
45144SOL    HW137265   4.078   2.531   3.575
45144SOL    HW237266   4.076   2.487   3.720
45145SOL     OW37267   8.647   6.740   6.078
45145SOL    HW137268   8.654   6.796   6.156
45145SOL    HW237269   8.674   6.797   6.006
45146SOL     OW37270   7.881  14.732   8.009
45146SOL    HW137271   7.827  14.812   8.011
45146SOL    HW237272   7.966  14.761   8.042
45147SOL     OW37273   0.163   0.400  13.499
45147SOL    HW137274   0.157   0.307  13.478
45147SOL    HW237275   0.253   0.424  13.478
45148SOL     OW37276   5.151   9.765   4.593
45148SOL    HW137277   5.193   9.784   4.677
45148SOL    HW237278   5.058   9.786   4.607
45149SOL     OW37279   1.719  14.223   6.580
45149SOL    HW137280   1.778  14.277   6.633
45149SOL    HW237281   1.759  14.136   6.582
45150SOL     OW37282  10.426   1.765  12.451
45150SOL    HW137283  10.483   1.738  12.379
45150SOL    HW237284  10.439   1.860  12.457
45151SOL     OW37285  13.949  13.824  13.303
45151SOL    HW137286  13.938  13.904  13.354
45151SOL    HW237287  14.030  13.785  13.338
45152SOL     OW37288  10.025  10.660   0.837
45152SOL    HW137289  10.085  10.674   0.764
45152SOL    HW237290   9.965  10.592   0.806
45153SOL     OW37291  14.087  13.534   2.984
45153SOL    HW137292  14.045  13.531   3.070
45153SOL    HW237293  14.098  13.442   2.960
45154SOL     OW37294   9.820   4.455   5.093
45154SOL    HW137295   9.884   4.508   5.140
45154SOL    HW237296   9.860   4.368   5.089
45155SOL     OW37297  13.324   5.788   9.041
45155SOL    HW137298  13.357   5.778   9.130
45155SOL    HW237299  13.234   5.755   9.045
45156SOL     OW37300   8.757  12.765   7.455
45156SOL    HW137301   8.830  12.725   7.501
45156SOL    HW237302   8.694  12.787   7.524
45157SOL     OW37303   8.276   3.740   9.179
45157SOL    HW137304   8.248   3.831   9.191
45157SOL    HW237305   8.195   3.689   9.183
45158SOL     OW37306  12.614   4.663  12.979
45158SOL    HW137307  12.572   4.722  13.041
45158SOL    HW237308  12.568   4.679  12.896
45159SOL     OW37309   4.904   7.908  13.239
45159SOL    HW137310   4.829   7.898  13.298
45159SOL    HW237311   4.949   7.987  13.270
45160SOL     OW37312   7.563   9.047   9.491
45160SOL    HW137313   7.568   9.139   9.516
45160SOL    HW237314   7.532   9.002   9.570
45161SOL     OW37315   6.204   5.893  14.012
45161SOL    HW137316   6.279   5.902  14.071
45161SOL    HW237317   6.244   5.884  13.925
45162SOL     OW37318   8.705  10.618   3.322
45162SOL    HW137319   8.726  10.566   3.245
45162SOL    HW237320   8.760  10.581   3.392
45163SOL     OW37321   0.752   1.943  14.319
45163SOL    HW137322   0.801   2.002  14.261
45163SOL    HW237323   0.793   1.956  14.405
45164SOL     OW37324  13.937   0.237   6.888
45164SOL    HW137325  13.864   0.189   6.848
45164SOL    HW237326  14.013   0.180   6.877
45165SOL     OW37327  14.299   1.970   4.652
45165SOL    HW137328  14.317   2.036   4.585
45165SOL    HW237329  14.374   1.912   4.650
45166SOL     OW37330  12.955   8.275   9.265
45166SOL    HW137331  12.909   8.191   9.269
45166SOL    HW237332  13.030   8.265   9.323
45167SOL     OW37333   6.079   4.693   0.416
45167SOL    HW137334   6.153   4.754   0.413
45167SOL    HW237335   6.114   4.614   0.457
45168SOL     OW37336   5.828   6.416   8.273
45168SOL    HW137337   5.916   6.452   8.266
45168SOL    HW237338   5.841   6.321   8.279
45169SOL     OW37339   8.830   7.032   9.218
45169SOL    HW137340   8.746   7.014   9.261
45169SOL    HW237341   8.840   6.963   9.153
45170SOL     OW37342   5.869  14.771   0.642
45170SOL    HW137343   5.964  14.763   0.653
45170SOL    HW237344   5.847  14.704   0.577
45171SOL     OW37345   1.205   2.230   7.665
45171SOL    HW137346   1.297   2.247   7.687
45171SOL    HW237347   1.161   2.222   7.750
45172SOL     OW37348  12.724   2.838   2.977
45172SOL    HW137349  12.641   2.811   2.938
45172SOL    HW237350  12.787   2.773   2.946
45173SOL     OW37351   6.470  12.607  10.052
45173SOL    HW137352   6.375  12.600  10.058
45173SOL    HW237353   6.493  12.564   9.970
45174SOL     OW37354  12.735  13.090  13.421
45174SOL    HW137355  12.773  13.025  13.480
45174SOL    HW237356  12.691  13.039  13.354
45175SOL     OW37357  11.447   1.535   9.338
45175SOL    HW137358  11.515   1.473   9.363
45175SOL    HW237359  11.477   1.619   9.373
45176SOL     OW37360   9.290   2.338  12.477
45176SOL    HW137361   9.359   2.341  12.410
45176SOL    HW237362   9.226   2.275  12.442
45177SOL     OW37363   0.717   6.865   9.804
45177SOL    HW137364   0.773   6.911   9.742
45177SOL    HW237365   0.701   6.780   9.763
45178SOL     OW37366  13.587   6.406   7.122
45178SOL    HW137367  13.679   6.386   7.138
45178SOL    HW237368  13.543   6.385   7.205
45179SOL     OW37369   9.110   6.109   1.128
45179SOL    HW137370   9.022   6.073   1.134
45179SOL    HW237371   9.100   6.188   1.075
45180SOL     OW37372   3.304  11.699   7.556
45180SOL    HW137373   3.342  11.764   7.498
45180SOL    HW237374   3.369  11.629   7.560
45181SOL     OW37375   6.865  10.467   0.544
45181SOL    HW137376   6.789  10.501   0.496
45181SOL    HW237377   6.857  10.505   0.632
45182SOL     OW37378  11.696   8.843  14.083
45182SOL    HW137379  11.616   8.861  14.131
45182SOL    HW237380  11.762   8.829  14.152
45183SOL     OW37381   6.390   9.586  13.499
45183SOL    HW137382   6.440   9.516  13.540
45183SOL    HW237383   6.321   9.541  13.451
45184SOL     OW37384   4.284   7.543   4.192
45184SOL    HW137385   4.275   7.502   4.106
45184SOL    HW237386   4.378   7.544   4.209
45185SOL     OW37387   3.188   5.213  12.048
45185SOL    HW137388   3.169   5.288  11.991
45185SOL    HW237389   3.280   5.223  12.070
45186SOL     OW37390   5.531   8.825   3.402
45186SOL    HW137391   5.486   8.763   3.460
45186SOL    HW237392   5.464   8.854   3.341
45187SOL     OW37393   3.838   6.665   1.897
45187SOL    HW137394   3.765   6.608   1.872
45187SOL    HW237395   3.805   6.714   1.972
45188SOL     OW37396   6.305   2.669  13.616
45188SOL    HW137397   6.217   2.660  13.581
45188SOL    HW237398   6.354   2.598  13.576
45189SOL     OW37399   8.267  10.207  13.773
45189SOL    HW137400   8.322  10.218  13.850
45189SOL    HW237401   8.299  10.127  13.732
45190SOL     OW37402  11.739  10.489   6.535
45190SOL    HW137403  11.718  10.396   6.531
45190SOL    HW237404  11.671  10.527   6.592
45191SOL     OW37405  14.226   4.234   0.152
45191SOL    HW137406  14.133   4.217   0.168
45191SOL    HW237407  14.241   4.323   0.183
45192SOL     OW37408   7.800   5.560   1.540
45192SOL    HW137409   7.853   5.578   1.463
45192SOL    HW237410   7.717   5.527   1.505
45193SOL     OW37411   0.928   1.851   7.199
45193SOL    HW137412   0.857   1.875   7.139
45193SOL    HW237413   0.913   1.759   7.218
45194SOL     OW37414   7.467   8.703   6.499
45194SOL    HW137415   7.562   8.707   6.489
45194SOL    HW237416   7.433   8.731   6.414
45195SOL     OW37417   5.674  10.220   7.713
45195SOL    HW137418   5.642  10.262   7.793
45195SOL    HW237419   5.629  10.266   7.642
45196SOL     OW37420   8.410  12.786  11.008
45196SOL    HW137421   8.405  12.881  11.021
45196SOL    HW237422   8.332  12.765  10.957
45197SOL     OW37423   3.984  14.817   8.467
45197SOL    HW137424   3.894  14.787   8.462
45197SOL    HW237425   4.015  14.816   8.376
45198SOL     OW37426   4.035   0.869   6.760
45198SOL    HW137427   4.085   0.838   6.684
45198SOL    HW237428   3.981   0.940   6.726
45199SOL     OW37429  12.429   2.270   1.404
45199SOL    HW137430  12.458   2.236   1.488
45199SOL    HW237431  12.366   2.338   1.426
45200SOL     OW37432  13.556   4.932  11.454
45200SOL    HW137433  13.592   4.933  11.542
45200SOL    HW237434  13.519   4.844  11.444
45201SOL     OW37435   8.026  14.268  13.789
45201SOL    HW137436   8.069  14.205  13.731
45201SOL    HW237437   8.020  14.348  13.737
45202SOL     OW37438  10.599   3.668  13.931
45202SOL    HW137439  10.608   3.579  13.963
45202SOL    HW237440  10.663   3.718  13.981
45203SOL     OW37441   7.573   6.048   2.570
45203SOL    HW137442   7.622   6.102   2.632
45203SOL    HW237443   7.503   6.104   2.538
45204SOL     OW37444   1.563  13.068   9.155
45204SOL    HW137445   1.592  13.025   9.236
45204SOL    HW237446   1.630  13.135   9.139
45205SOL     OW37447   9.001   5.864   4.482
45205SOL    HW137448   8.911   5.848   4.510
45205SOL    HW237449   9.047   5.888   4.562
45206SOL     OW37450   1.739   6.514   6.034
45206SOL    HW137451   1.703   6.445   5.978
45206SOL    HW237452   1.713   6.595   5.991
45207SOL     OW37453   5.145   0.179  13.987
45207SOL    HW137454   5.150   0.263  14.031
45207SOL    HW237455   5.212   0.125  14.030
45208SOL     OW37456  11.292   2.754   1.195
45208SOL    HW137457  11.288   2.701   1.116
45208SOL    HW237458  11.201   2.763   1.224
45209SOL     OW37459   0.228  13.985  12.476
45209SOL    HW137460   0.260  14.012  12.390
45209SOL    HW237461   0.249  13.892  12.482
45210SOL     OW37462  13.171  11.788   4.795
45210SOL    HW137463  13.238  11.856   4.803
45210SOL    HW237464  13.150  11.785   4.702
45211SOL     OW37465   4.543   9.052  11.766
45211SOL    HW137466   4.513   9.012  11.848
45211SOL    HW237467   4.496   9.003  11.698
45212SOL     OW37468   8.332   4.715  10.894
45212SOL    HW137469   8.290   4.795  10.926
45212SOL    HW237470   8.403   4.747  10.838
45213SOL     OW37471  14.543   3.108   4.192
45213SOL    HW137472  14.619   3.078   4.142
45213SOL    HW237473  14.555   3.203   4.198
45214SOL     OW37474   8.535   5.496   0.334
45214SOL    HW137475   8.516   5.439   0.259
45214SOL    HW237476   8.617   5.540   0.309
45215SOL     OW37477   8.899  13.747  10.612
45215SOL    HW137478   8.830  13.681  10.620
45215SOL    HW237479   8.906  13.785  10.700
45216SOL     OW37480   0.866   9.992   1.489
45216SOL    HW137481   0.788   9.983   1.435
45216SOL    HW237482   0.840   9.959   1.575
45217SOL     OW37483   7.697  14.511  12.566
45217SOL    HW137484   7.767  14.473  12.619
45217SOL    HW237485   7.617  14.470  12.600
45218SOL     OW37486   4.348  11.077  11.646
45218SOL    HW137487   4.346  11.165  11.609
45218SOL    HW237488   4.269  11.072  11.700
45219SOL     OW37489   2.685  12.139  12.430
45219SOL    HW137490   2.616  12.073  12.437
45219SOL    HW237491   2.758  12.102  12.480
45220SOL     OW37492   5.053   7.560   7.257
45220SOL    HW137493   5.052   7.501   7.182
45220SOL    HW237494   5.143   7.593   7.260
45221SOL     OW37495  14.862  14.391   7.774
45221SOL    HW137496  14.804  14.315   7.771
45221SOL    HW237497   0.067  14.360   7.741
45222SOL     OW37498  13.366  14.471   2.947
45222SOL    HW137499  13.372  14.394   3.004
45222SOL    HW237500  13.395  14.440   2.862
45223SOL     OW37501   4.752   2.038   4.051
45223SOL    HW137502   4.846   2.041   4.069
45223SOL    HW237503   4.728   1.947   4.064
45224SOL     OW37504   5.752  11.841  12.207
45224SOL    HW137505   5.706  11.922  12.189
45224SOL    HW237506   5.840  11.854  12.173
45225SOL     OW37507   6.450   3.278   9.270
45225SOL    HW137508   6.479   3.191   9.243
45225SOL    HW237509   6.365   3.262   9.311
45226SOL     OW37510   4.635   8.132   3.667
45226SOL    HW137511   4.620   8.226   3.681
45226SOL    HW237512   4.559   8.103   3.616
45227SOL     OW37513   6.137   2.341   3.470
45227SOL    HW137514   6.226   2.376   3.472
45227SOL    HW237515   6.145   2.253   3.506
45228SOL     OW37516  13.415   9.002  14.021
45228SOL    HW137517  13.407   9.066  14.091
45228SOL    HW237518  13.406   9.053  13.940
45229SOL     OW37519   0.082   8.893   1.529
45229SOL    HW137520   0.082   8.915   1.623
45229SOL    HW237521   0.173   8.899   1.503
45230SOL     OW37522   8.413   7.221   4.387
45230SOL    HW137523   8.467   7.187   4.458
45230SOL    HW237524   8.330   7.175   4.397
45231SOL     OW37525   6.210   3.964   8.017
45231SOL    HW137526   6.185   3.933   8.104
45231SOL    HW237527   6.180   3.896   7.957
45232SOL     OW37528  13.842   5.065   4.771
45232SOL    HW137529  13.894   5.131   4.727
45232SOL    HW237530  13.803   5.014   4.701
45233SOL     OW37531   0.853   7.047   2.427
45233SOL    HW137532   0.881   7.094   2.506
45233SOL    HW237533   0.799   6.975   2.459
45234SOL     OW37534  13.678   7.511  11.744
45234SOL    HW137535  13.761   7.559  11.739
45234SOL    HW237536  13.611   7.576  11.727
45235SOL     OW37537   6.646   4.348   7.041
45235SOL    HW137538   6.729   4.317   7.006
45235SOL    HW237539   6.667   4.386   7.126
45236SOL     OW37540   0.245   6.360  11.479
45236SOL    HW137541   0.282   6.273  11.490
45236SOL    HW237542   0.305   6.418  11.527
45237SOL     OW37543   6.614  12.730  13.302
45237SOL    HW137544   6.687  12.763  13.251
45237SOL    HW237545   6.634  12.637  13.315
45238SOL     OW37546   7.730  10.209  10.284
45238SOL    HW137547   7.635  10.205  10.269
45238SOL    HW237548   7.742  10.286  10.339
45239SOL     OW37549  13.379   8.555   6.621
45239SOL    HW137550  13.404   8.510   6.702
45239SOL    HW237551  13.328   8.490   6.573
45240SOL     OW37552  13.510   5.140   6.276
45240SOL    HW137553  13.570   5.158   6.348
45240SOL    HW237554  13.555   5.173   6.198
45241SOL     OW37555  13.955   2.833  11.808
45241SOL    HW137556  13.995   2.782  11.879
45241SOL    HW237557  13.869   2.794  11.797
45242SOL     OW37558   8.180   4.844   9.670
45242SOL    HW137559   8.210   4.902   9.600
45242SOL    HW237560   8.099   4.883   9.701
45243SOL     OW37561  12.439   1.749  14.048
45243SOL    HW137562  12.415   1.666  14.008
45243SOL    HW237563  12.500   1.725  14.118
45244SOL     OW37564   9.182   5.003   3.302
45244SOL    HW137565   9.147   5.067   3.363
45244SOL    HW237566   9.186   5.049   3.218
45245SOL     OW37567   3.010  10.077   6.852
45245SOL    HW137568   2.996   9.983   6.864
45245SOL    HW237569   2.922  10.111   6.834
45246SOL     OW37570  10.017   9.463   1.032
45246SOL    HW137571   9.964   9.529   1.077
45246SOL    HW237572   9.960   9.433   0.960
45247SOL     OW37573   7.697  10.596   4.434
45247SOL    HW137574   7.722  10.656   4.364
45247SOL    HW237575   7.746  10.516   4.416
45248SOL     OW37576   8.386  11.576  11.173
45248SOL    HW137577   8.395  11.671  11.163
45248SOL    HW237578   8.446  11.540  11.107
45249SOL     OW37579  10.646  11.493  12.387
45249SOL    HW137580  10.722  11.528  12.433
45249SOL    HW237581  10.575  11.496  12.452
45250SOL     OW37582   9.197  11.546   9.353
45250SOL    HW137583   9.165  11.561   9.441
45250SOL    HW237584   9.275  11.492   9.364
45251SOL     OW37585   5.174  13.555   4.020
45251SOL    HW137586   5.117  13.527   3.949
45251SOL    HW237587   5.123  13.620   4.067
45252SOL     OW37588  12.451  13.109  13.203
45252SOL    HW137589  12.405  13.190  13.229
45252SOL    HW237590  12.484  13.128  13.115
45253SOL     OW37591  10.074   5.321   9.325
45253SOL    HW137592  10.020   5.386   9.280
45253SOL    HW237593  10.130   5.285   9.257
45254SOL     OW37594  11.726   2.817   4.825
45254SOL    HW137595  11.768   2.884   4.880
45254SOL    HW237596  11.770   2.736   4.848
45255SOL     OW37597   1.098   2.512   3.793
45255SOL    HW137598   1.177   2.460   3.804
45255SOL    HW237599   1.077   2.544   3.881
45256SOL     OW37600   6.263   4.220  13.527
45256SOL    HW137601   6.248   4.223  13.621
45256SOL    HW237602   6.263   4.127  13.505
45257SOL     OW37603   8.219   1.428  11.736
45257SOL    HW137604   8.281   1.416  11.664
45257SOL    HW237605   8.272   1.459  11.809
45258SOL     OW37606   0.219   6.921   9.472
45258SOL    HW137607   0.186   6.872   9.548
45258SOL    HW237608   0.196   6.867   9.397
45259SOL     OW37609   1.859   7.030   8.303
45259SOL    HW137610   1.900   7.087   8.237
45259SOL    HW237611   1.816   7.091   8.364
45260SOL     OW37612  11.334   4.947  14.826
45260SOL    HW137613  11.428   4.929  14.821
45260SOL    HW237614  11.327   5.021   0.008
45261SOL     OW37615  14.622  11.452   0.739
45261SOL    HW137616  14.612  11.357   0.730
45261SOL    HW237617  14.534  11.483   0.757
45262SOL     OW37618   6.477   2.000  14.363
45262SOL    HW137619   6.457   1.987  14.271
45262SOL    HW237620   6.392   2.002  14.406
45263SOL     OW37621   8.713   7.008   6.013
45263SOL    HW137622   8.787   6.998   5.953
45263SOL    HW237623   8.745   6.972   6.096
45264SOL     OW37624   7.182  11.241  10.454
45264SOL    HW137625   7.216  11.329  10.473
45264SOL    HW237626   7.093  11.242  10.487
45265SOL     OW37627  14.416   5.265   9.196
45265SOL    HW137628  14.356   5.195   9.220
45265SOL    HW237629  14.448   5.300   9.279
45266SOL     OW37630  12.846  10.783   2.482
45266SOL    HW137631  12.833  10.758   2.573
45266SOL    HW237632  12.817  10.707   2.431
45267SOL     OW37633  11.606   2.250  12.128
45267SOL    HW137634  11.678   2.289  12.178
45267SOL    HW237635  11.553   2.325  12.099
45268SOL     OW37636   6.112  13.015   3.411
45268SOL    HW137637   6.103  13.110   3.407
45268SOL    HW237638   6.139  12.998   3.501
45269SOL     OW37639  14.293   4.217   7.190
45269SOL    HW137640  14.235   4.141   7.192
45269SOL    HW237641  14.370   4.189   7.240
45270SOL     OW37642   0.744   9.594   3.407
45270SOL    HW137643   0.839   9.604   3.414
45270SOL    HW237644   0.709   9.675   3.446
45271SOL     OW37645  13.662   5.000   7.309
45271SOL    HW137646  13.669   5.083   7.356
45271SOL    HW237647  13.685   4.934   7.375
45272SOL     OW37648  11.321  11.113  14.408
45272SOL    HW137649  11.275  11.197  14.414
45272SOL    HW237650  11.318  11.090  14.315
45273SOL     OW37651   2.114   4.109  14.508
45273SOL    HW137652   2.079   4.056  14.580
45273SOL    HW237653   2.143   4.190  14.550
45274SOL     OW37654   2.372  14.330   3.810
45274SOL    HW137655   2.391  14.286   3.727
45274SOL    HW237656   2.456  14.332   3.855
45275SOL     OW37657   0.699   8.899   8.428
45275SOL    HW137658   0.634   8.900   8.358
45275SOL    HW237659   0.691   8.986   8.468
45276SOL     OW37660   8.266  13.279   9.598
45276SOL    HW137661   8.304  13.366   9.605
45276SOL    HW237662   8.338  13.224   9.567
45277SOL     OW37663   1.017  12.704   4.033
45277SOL    HW137664   0.993  12.721   4.125
45277SOL    HW237665   0.958  12.760   3.982
45278SOL     OW37666  14.623   8.920  11.084
45278SOL    HW137667  14.714   8.897  11.065
45278SOL    HW237668  14.578   8.912  11.000
45279SOL     OW37669  11.680  13.036  11.772
45279SOL    HW137670  11.592  13.057  11.742
45279SOL    HW237671  11.671  12.951  11.816
45280SOL     OW37672   1.995  13.246   0.797
45280SOL    HW137673   1.909  13.257   0.756
45280SOL    HW237674   1.989  13.161   0.841
45281SOL     OW37675   6.565  14.732  14.626
45281SOL    HW137676   6.484  14.681  14.626
45281SOL    HW237677   6.634  14.666  14.632
45282SOL     OW37678   0.401  13.263   4.084
45282SOL    HW137679   0.460  13.317   4.136
45282SOL    HW237680   0.401  13.304   3.997
45283SOL     OW37681   3.601   1.361   6.077
45283SOL    HW137682   3.525   1.409   6.110
45283SOL    HW237683   3.582   1.346   5.985
45284SOL     OW37684   1.341  10.636   3.106
45284SOL    HW137685   1.363  10.723   3.075
45284SOL    HW237686   1.256  10.617   3.067
45285SOL     OW37687  12.778   4.589   1.770
45285SOL    HW137688  12.736   4.659   1.820
45285SOL    HW237689  12.867   4.621   1.755
45286SOL     OW37690  11.154  13.381  11.960
45286SOL    HW137691  11.128  13.444  12.027
45286SOL    HW237692  11.249  13.395  11.950
45287SOL     OW37693   1.317  13.546   5.484
45287SOL    HW137694   1.222  13.540   5.493
45287SOL    HW237695   1.333  13.637   5.459
45288SOL     OW37696   0.509  10.055  14.698
45288SOL    HW137697   0.448  10.118  14.735
45288SOL    HW237698   0.468   9.970  14.712
45289SOL     OW37699   5.310   7.754   8.355
45289SOL    HW137700   5.226   7.734   8.397
45289SOL    HW237701   5.344   7.669   8.328
45290SOL     OW37702  10.884   9.907  10.408
45290SOL    HW137703  10.835   9.982  10.372
45290SOL    HW237704  10.883   9.923  10.503
45291SOL     OW37705   1.946  10.729   0.116
45291SOL    HW137706   1.992  10.650   0.143
45291SOL    HW237707   1.921  10.713   0.025
45292SOL     OW37708   8.923  11.568   5.513
45292SOL    HW137709   8.908  11.615   5.595
45292SOL    HW237710   8.848  11.592   5.458
45293SOL     OW37711  10.448   0.780   4.626
45293SOL    HW137712  10.387   0.730   4.571
45293SOL    HW237713  10.528   0.728   4.625
45294SOL     OW37714   6.676   8.625  11.202
45294SOL    HW137715   6.613   8.693  11.178
45294SOL    HW237716   6.648   8.547  11.153
45295SOL     OW37717  13.682   1.663   6.312
45295SOL    HW137718  13.726   1.742   6.280
45295SOL    HW237719  13.739   1.591   6.284
45296SOL     OW37720   1.492   5.874   6.465
45296SOL    HW137721   1.561   5.937   6.483
45296SOL    HW237722   1.499   5.809   6.535
45297SOL     OW37723   4.911   8.854  14.304
45297SOL    HW137724   4.944   8.823  14.220
45297SOL    HW237725   4.962   8.932  14.323
45298SOL     OW37726   4.157  12.083  10.448
45298SOL    HW137727   4.156  12.143  10.374
45298SOL    HW237728   4.250  12.069  10.467
45299SOL     OW37729   8.636   3.458   1.932
45299SOL    HW137730   8.579   3.505   1.871
45299SOL    HW237731   8.716   3.510   1.936
45300SOL     OW37732   2.101   9.620   9.583
45300SOL    HW137733   2.183   9.642   9.626
45300SOL    HW237734   2.035   9.670   9.629
45301SOL     OW37735  12.221   2.745   1.934
45301SOL    HW137736  12.167   2.752   2.013
45301SOL    HW237737  12.284   2.817   1.942
45302SOL     OW37738   3.966   9.242   3.418
45302SOL    HW137739   3.964   9.320   3.362
45302SOL    HW237740   3.909   9.264   3.492
45303SOL     OW37741   2.048   8.936   5.993
45303SOL    HW137742   2.111   8.984   5.939
45303SOL    HW237743   2.035   8.853   5.948
45304SOL     OW37744  10.669   7.717  10.193
45304SOL    HW137745  10.609   7.704  10.119
45304SOL    HW237746  10.698   7.629  10.216
45305SOL     OW37747   3.664   4.622   6.787
45305SOL    HW137748   3.725   4.680   6.743
45305SOL    HW237749   3.706   4.536   6.786
45306SOL     OW37750  11.714   9.854   5.787
45306SOL    HW137751  11.775   9.861   5.713
45306SOL    HW237752  11.747   9.918   5.850
45307SOL     OW37753   6.768  12.793   6.487
45307SOL    HW137754   6.775  12.813   6.394
45307SOL    HW237755   6.744  12.877   6.528
45308SOL     OW37756   1.387   5.830   0.923
45308SOL    HW137757   1.321   5.763   0.935
45308SOL    HW237758   1.411   5.856   1.012
45309SOL     OW37759   6.123   9.388  12.219
45309SOL    HW137760   6.126   9.435  12.303
45309SOL    HW237761   6.178   9.439  12.161
45310SOL     OW37762   1.032  12.502  13.371
45310SOL    HW137763   1.025  12.509  13.466
45310SOL    HW237764   0.942  12.502  13.340
45311SOL     OW37765   4.012   4.818   9.730
45311SOL    HW137766   3.982   4.840   9.818
45311SOL    HW237767   3.945   4.758   9.695
45312SOL     OW37768  10.320   7.955   9.803
45312SOL    HW137769  10.230   7.922   9.799
45312SOL    HW237770  10.339   7.963   9.896
45313SOL     OW37771   8.198   2.318   1.312
45313SOL    HW137772   8.243   2.273   1.241
45313SOL    HW237773   8.193   2.410   1.283
45314SOL     OW37774   9.029   7.940  12.181
45314SOL    HW137775   9.091   7.959  12.110
45314SOL    HW237776   8.944   7.936  12.138
45315SOL     OW37777   5.010   5.387   7.675
45315SOL    HW137778   5.014   5.291   7.683
45315SOL    HW237779   4.919   5.405   7.651
45316SOL     OW37780   9.196   7.012   3.415
45316SOL    HW137781   9.231   6.982   3.499
45316SOL    HW237782   9.131   6.946   3.391
45317SOL     OW37783   4.780   3.411  14.425
45317SOL    HW137784   4.734   3.374  14.501
45317SOL    HW237785   4.729   3.489  14.402
45318SOL     OW37786  12.542   0.202  11.043
45318SOL    HW137787  12.632   0.185  11.017
45318SOL    HW237788  12.507   0.257  10.973
45319SOL     OW37789  10.714   0.297  12.318
45319SOL    HW137790  10.773   0.315  12.244
45319SOL    HW237791  10.626   0.303  12.281
45320SOL     OW37792   5.312   5.721  13.664
45320SOL    HW137793   5.312   5.763  13.578
45320SOL    HW237794   5.358   5.639  13.650
45321SOL     OW37795  11.566   9.292   3.949
45321SOL    HW137796  11.478   9.258   3.930
45321SOL    HW237797  11.552   9.385   3.970
45322SOL     OW37798  10.031   3.264   8.657
45322SOL    HW137799  10.116   3.262   8.702
45322SOL    HW237800   9.973   3.308   8.719
45323SOL     OW37801  12.988   9.567  14.397
45323SOL    HW137802  12.969   9.645  14.346
45323SOL    HW237803  12.940   9.579  14.479
45324SOL     OW37804   2.108   5.788  11.451
45324SOL    HW137805   2.127   5.848  11.380
45324SOL    HW237806   2.193   5.760  11.483
45325SOL     OW37807   0.607   2.777   5.701
45325SOL    HW137808   0.698   2.771   5.732
45325SOL    HW237809   0.603   2.860   5.652
45326SOL     OW37810   0.197   9.035   9.405
45326SOL    HW137811   0.266   8.988   9.453
45326SOL    HW237812   0.223   9.127   9.409
45327SOL     OW37813   6.300   5.469  11.407
45327SOL    HW137814   6.254   5.481  11.490
45327SOL    HW237815   6.355   5.548  11.398
45328SOL     OW37816  14.299   7.251  13.462
45328SOL    HW137817  14.328   7.177  13.409
45328SOL    HW237818  14.361   7.321  13.441
45329SOL     OW37819   3.830  13.954   8.010
45329SOL    HW137820   3.778  13.874   8.022
45329SOL    HW237821   3.808  13.983   7.921
45330SOL     OW37822   8.095   1.193   8.319
45330SOL    HW137823   8.024   1.192   8.255
45330SOL    HW237824   8.171   1.159   8.271
45331SOL     OW37825  14.353  13.586  11.142
45331SOL    HW137826  14.411  13.656  11.172
45331SOL    HW237827  14.308  13.557  11.221
45332SOL     OW37828   5.266  12.153   0.315
45332SOL    HW137829   5.182  12.107   0.313
45332SOL    HW237830   5.264  12.201   0.398
45333SOL     OW37831   6.590   8.334   9.663
45333SOL    HW137832   6.637   8.372   9.738
45333SOL    HW237833   6.656   8.282   9.618
45334SOL     OW37834   3.695   9.252  12.715
45334SOL    HW137835   3.618   9.308  12.726
45334SOL    HW237836   3.672   9.171  12.760
45335SOL     OW37837  12.557  11.946   1.265
45335SOL    HW137838  12.609  11.993   1.200
45335SOL    HW237839  12.562  11.854   1.237
45336SOL     OW37840   5.430   1.779   4.277
45336SOL    HW137841   5.505   1.827   4.311
45336SOL    HW237842   5.457   1.687   4.282
45337SOL     OW37843  10.535  13.689   3.684
45337SOL    HW137844  10.449  13.727   3.702
45337SOL    HW237845  10.531  13.601   3.721
45338SOL     OW37846  13.072  13.841  14.723
45338SOL    HW137847  13.014  13.818  14.796
45338SOL    HW237848  13.068  13.765  14.665
45339SOL     OW37849   2.826   8.936   7.398
45339SOL    HW137850   2.745   8.887   7.383
45339SOL    HW237851   2.894   8.869   7.404
45340SOL     OW37852   4.547   9.916  11.347
45340SOL    HW137853   4.549  10.011  11.360
45340SOL    HW237854   4.588   9.902  11.262
45341SOL     OW37855   2.861  14.434  14.030
45341SOL    HW137856   2.892  14.453  14.118
45341SOL    HW237857   2.771  14.406  14.041
45342SOL     OW37858   5.051  12.306   1.257
45342SOL    HW137859   5.128  12.266   1.298
45342SOL    HW237860   5.088  12.360   1.187
45343SOL     OW37861   0.865   2.860  11.853
45343SOL    HW137862   0.813   2.795  11.900
45343SOL    HW237863   0.955   2.844  11.880
45344SOL     OW37864   8.168   2.073   6.956
45344SOL    HW137865   8.261   2.063   6.978
45344SOL    HW237866   8.162   2.159   6.914
45345SOL     OW37867  12.531   7.553  11.002
45345SOL    HW137868  12.596   7.566  10.933
45345SOL    HW237869  12.567   7.600  11.078
45346SOL     OW37870   2.909  10.951  11.203
45346SOL    HW137871   2.921  10.989  11.290
45346SOL    HW237872   2.816  10.964  11.184
45347SOL     OW37873  13.160  10.410   4.263
45347SOL    HW137874  13.184  10.331   4.311
45347SOL    HW237875  13.105  10.459   4.323
45348SOL     OW37876   8.630   9.140   9.948
45348SOL    HW137877   8.663   9.054   9.974
45348SOL    HW237878   8.543   9.146   9.989
45349SOL     OW37879   2.996  14.832  13.845
45349SOL    HW137880   3.089  14.823  13.824
45349SOL    HW237881   2.985   0.046  13.866
45350SOL     OW37882   2.347   6.813   4.499
45350SOL    HW137883   2.305   6.743   4.548
45350SOL    HW237884   2.389   6.868   4.565
45351SOL     OW37885   0.770   8.434   1.697
45351SOL    HW137886   0.771   8.347   1.737
45351SOL    HW237887   0.841   8.481   1.741
45352SOL     OW37888   6.474  11.732   6.359
45352SOL    HW137889   6.526  11.681   6.296
45352SOL    HW237890   6.416  11.785   6.304
45353SOL     OW37891   2.740   4.812  12.532
45353SOL    HW137892   2.732   4.802  12.437
45353SOL    HW237893   2.650   4.818  12.563
45354SOL     OW37894  14.521  10.643   4.649
45354SOL    HW137895  14.613  10.646   4.622
45354SOL    HW237896  14.500  10.734   4.671
45355SOL     OW37897   7.237  12.796  12.353
45355SOL    HW137898   7.321  12.750  12.361
45355SOL    HW237899   7.177  12.731  12.316
45356SOL     OW37900   2.442   4.115   9.910
45356SOL    HW137901   2.437   4.088  10.002
45356SOL    HW237902   2.533   4.101   9.885
45357SOL     OW37903  12.087   3.130  12.541
45357SOL    HW137904  12.076   3.056  12.600
45357SOL    HW237905  12.047   3.101  12.459
45358SOL     OW37906   3.464   5.087   4.112
45358SOL    HW137907   3.422   5.167   4.080
45358SOL    HW237908   3.416   5.065   4.191
45359SOL     OW37909  10.184  10.158  13.198
45359SOL    HW137910  10.105  10.193  13.238
45359SOL    HW237911  10.155  10.125  13.112
45360SOL     OW37912  12.538  14.511   1.377
45360SOL    HW137913  12.584  14.525   1.295
45360SOL    HW237914  12.581  14.435   1.417
45361SOL     OW37915  12.287   0.840  10.481
45361SOL    HW137916  12.193   0.850  10.462
45361SOL    HW237917  12.293   0.849  10.576
45362SOL     OW37918   8.494   9.167   6.619
45362SOL    HW137919   8.453   9.093   6.664
45362SOL    HW237920   8.585   9.141   6.608
45363SOL     OW37921   3.101   9.651   8.341
45363SOL    HW137922   3.195   9.666   8.342
45363SOL    HW237923   3.075   9.657   8.432
45364SOL     OW37924   0.112  14.468   4.595
45364SOL    HW137925   0.143  14.397   4.652
45364SOL    HW237926   0.019  14.448   4.580
45365SOL     OW37927   4.124   2.563   6.915
45365SOL    HW137928   4.106   2.545   6.823
45365SOL    HW237929   4.041   2.592   6.951
45366SOL     OW37930   8.948   2.664   5.582
45366SOL    HW137931   8.960   2.744   5.632
45366SOL    HW237932   8.854   2.645   5.589
45367SOL     OW37933   8.939  13.812  10.896
45367SOL    HW137934   8.862  13.869  10.891
45367SOL    HW237935   8.986  13.842  10.974
45368SOL     OW37936  10.586   4.637  14.037
45368SOL    HW137937  10.580   4.634  14.132
45368SOL    HW237938  10.621   4.724  14.017
45369SOL     OW37939  12.480   4.590   8.462
45369SOL    HW137940  12.489   4.682   8.487
45369SOL    HW237941  12.454   4.592   8.370
45370SOL     OW37942   3.759  14.599   3.637
45370SOL    HW137943   3.701  14.671   3.612
45370SOL    HW237944   3.800  14.629   3.718
45371SOL     OW37945   2.960   9.515   4.190
45371SOL    HW137946   2.946   9.568   4.111
45371SOL    HW237947   2.871   9.493   4.219
45372SOL     OW37948  11.131   6.700  12.128
45372SOL    HW137949  11.143   6.786  12.087
45372SOL    HW237950  11.149   6.637  12.058
45373SOL     OW37951  13.325   0.890  14.786
45373SOL    HW137952  13.348   0.917  14.697
45373SOL    HW237953  13.289   0.969  14.826
45374SOL     OW37954  11.306   1.790   2.172
45374SOL    HW137955  11.327   1.702   2.143
45374SOL    HW237956  11.213   1.801   2.151
45375SOL     OW37957  10.955  13.069  10.043
45375SOL    HW137958  11.010  13.116  10.105
45375SOL    HW237959  11.016  13.013   9.995
45376SOL     OW37960   6.966   0.391   4.698
45376SOL    HW137961   6.929   0.400   4.785
45376SOL    HW237962   6.933   0.467   4.650
45377SOL     OW37963  10.144  14.407   1.595
45377SOL    HW137964  10.203  14.407   1.670
45377SOL    HW237965  10.092  14.327   1.605
45378SOL     OW37966   8.254   1.332   4.517
45378SOL    HW137967   8.175   1.329   4.464
45378SOL    HW237968   8.296   1.415   4.493
45379SOL     OW37969   3.113   1.717   6.237
45379SOL    HW137970   3.167   1.793   6.217
45379SOL    HW237971   3.071   1.694   6.155
45380SOL     OW37972   8.025   9.540  13.394
45380SOL    HW137973   8.118   9.518  13.385
45380SOL    HW237974   7.980   9.456  13.388
45381SOL     OW37975   7.357   2.639  10.540
45381SOL    HW137976   7.354   2.621  10.634
45381SOL    HW237977   7.417   2.574  10.504
45382SOL     OW37978   5.311  12.804   6.014
45382SOL    HW137979   5.248  12.875   6.023
45382SOL    HW237980   5.325  12.795   5.920
45383SOL     OW37981  11.864   5.240   7.377
45383SOL    HW137982  11.893   5.265   7.465
45383SOL    HW237983  11.885   5.147   7.371
45384SOL     OW37984  13.349  10.787  14.589
45384SOL    HW137985  13.319  10.801  14.679
45384SOL    HW237986  13.394  10.868  14.566
45385SOL     OW37987  14.713   8.755   8.389
45385SOL    HW137988  14.657   8.783   8.461
45385SOL    HW237989  14.703   8.660   8.386
45386SOL     OW37990  10.348  11.523   2.906
45386SOL    HW137991  10.351  11.609   2.865
45386SOL    HW237992  10.440  11.497   2.913
45387SOL     OW37993   2.728   5.563  13.298
45387SOL    HW137994   2.738   5.642  13.244
45387SOL    HW237995   2.788   5.500  13.259
45388SOL     OW37996  11.090  13.286  11.718
45388SOL    HW137997  11.132  13.303  11.802
45388SOL    HW237998  11.161  13.264  11.658
45389SOL     OW37999   4.644  11.456   4.439
45389SOL    HW138000   4.701  11.451   4.362
45389SOL    HW238001   4.703  11.480   4.511
45390SOL     OW38002   0.459   5.526  14.526
45390SOL    HW138003   0.508   5.452  14.489
45390SOL    HW238004   0.526   5.593  14.539
45391SOL     OW38005   2.275   2.113   7.980
45391SOL    HW138006   2.278   2.066   8.063
45391SOL    HW238007   2.189   2.090   7.943
45392SOL     OW38008   4.035   1.915   1.119
45392SOL    HW138009   4.124   1.880   1.115
45392SOL    HW238010   4.000   1.884   1.202
45393SOL     OW38011   2.263  14.671  11.877
45393SOL    HW138012   2.209  14.607  11.923
45393SOL    HW238013   2.252  14.752  11.926
45394SOL     OW38014  11.943  10.835   5.236
45394SOL    HW138015  11.972  10.917   5.198
45394SOL    HW238016  11.979  10.767   5.179
45395SOL     OW38017  14.814  11.394   7.027
45395SOL    HW138018   0.024  11.414   7.057
45395SOL    HW238019  14.784  11.325   7.087
45396SOL     OW38020  14.688   8.656   4.812
45396SOL    HW138021  14.709   8.748   4.799
45396SOL    HW238022  14.615   8.639   4.752
45397SOL     OW38023  14.158   8.099   4.207
45397SOL    HW138024  14.128   8.018   4.247
45397SOL    HW238025  14.132   8.091   4.115
45398SOL     OW38026  10.159   0.494   4.006
45398SOL    HW138027  10.115   0.422   3.960
45398SOL    HW238028  10.230   0.451   4.055
45399SOL     OW38029   0.318   3.351   3.492
45399SOL    HW138030   0.296   3.380   3.580
45399SOL    HW238031   0.236   3.316   3.456
45400SOL     OW38032   0.744   7.528   0.630
45400SOL    HW138033   0.650   7.525   0.610
45400SOL    HW238034   0.756   7.468   0.703
45401SOL     OW38035   9.144   7.268   9.793
45401SOL    HW138036   9.074   7.213   9.830
45401SOL    HW238037   9.097   7.339   9.749
45402SOL     OW38038   7.094  12.634   1.984
45402SOL    HW138039   7.183  12.657   1.959
45402SOL    HW238040   7.080  12.676   2.069
45403SOL     OW38041  13.561   4.990   5.188
45403SOL    HW138042  13.466   4.975   5.196
45403SOL    HW238043  13.579   4.976   5.096
45404SOL     OW38044   6.169   9.503   9.908
45404SOL    HW138045   6.148   9.451   9.830
45404SOL    HW238046   6.084   9.538   9.937
45405SOL     OW38047   1.572   8.090   9.378
45405SOL    HW138048   1.519   8.012   9.389
45405SOL    HW238049   1.546   8.125   9.293
45406SOL     OW38050   1.188  12.014  10.060
45406SOL    HW138051   1.219  12.084  10.117
45406SOL    HW238052   1.252  11.943  10.072
45407SOL     OW38053   5.183   8.738   0.627
45407SOL    HW138054   5.111   8.677   0.627
45407SOL    HW238055   5.249   8.698   0.571
45408SOL     OW38056   5.393   6.677   9.360
45408SOL    HW138057   5.445   6.612   9.312
45408SOL    HW238058   5.303   6.656   9.337
45409SOL     OW38059   4.494   9.926   2.142
45409SOL    HW138060   4.525  10.016   2.156
45409SOL    HW238061   4.479   9.920   2.048
45410SOL     OW38062   1.795   5.383  13.417
45410SOL    HW138063   1.830   5.435  13.345
45410SOL    HW238064   1.778   5.446  13.487
45411SOL     OW38065   7.168   6.550   0.908
45411SOL    HW138066   7.100   6.602   0.951
45411SOL    HW238067   7.228   6.526   0.979
45412SOL     OW38068   3.620   1.801   7.134
45412SOL    HW138069   3.673   1.827   7.209
45412SOL    HW238070   3.564   1.731   7.167
45413SOL     OW38071   5.559   3.600   9.688
45413SOL    HW138072   5.582   3.626   9.599
45413SOL    HW238073   5.636   3.623   9.740
45414SOL     OW38074  11.195  10.774   4.884
45414SOL    HW138075  11.141  10.717   4.830
45414SOL    HW238076  11.157  10.861   4.874
45415SOL     OW38077  13.768  11.477  10.369
45415SOL    HW138078  13.699  11.540  10.351
45415SOL    HW238079  13.795  11.445  10.283
45416SOL     OW38080  13.925   9.446   3.277
45416SOL    HW138081  13.941   9.507   3.349
45416SOL    HW238082  14.012   9.412   3.257
45417SOL     OW38083   5.146   1.898   6.062
45417SOL    HW138084   5.142   1.926   6.153
45417SOL    HW238085   5.105   1.969   6.013
45418SOL     OW38086  11.756   2.905   6.180
45418SOL    HW138087  11.709   2.841   6.126
45418SOL    HW238088  11.837   2.921   6.132
45419SOL     OW38089   7.138   3.611   4.866
45419SOL    HW138090   7.220   3.660   4.862
45419SOL    HW238091   7.155   3.531   4.816
45420SOL     OW38092   6.424  11.757   4.696
45420SOL    HW138093   6.354  11.790   4.752
45420SOL    HW238094   6.503  11.764   4.750
45421SOL     OW38095  10.072   7.889  13.967
45421SOL    HW138096  10.073   7.936  13.884
45421SOL    HW238097  10.163   7.888  13.996
45422SOL     OW38098   6.992   9.357   2.533
45422SOL    HW138099   7.086   9.359   2.513
45422SOL    HW238100   6.949   9.363   2.448
45423SOL     OW38101  13.758   2.147   6.612
45423SOL    HW138102  13.766   2.131   6.706
45423SOL    HW238103  13.847   2.143   6.579
45424SOL     OW38104   7.397  13.529   8.117
45424SOL    HW138105   7.307  13.559   8.108
45424SOL    HW238106   7.440  13.597   8.170
45425SOL     OW38107   1.310  14.749   8.633
45425SOL    HW138108   1.286  14.694   8.708
45425SOL    HW238109   1.275  14.835   8.654
45426SOL     OW38110  14.468  12.717  10.216
45426SOL    HW138111  14.473  12.744  10.124
45426SOL    HW238112  14.517  12.784  10.263
45427SOL     OW38113   4.517  13.790  10.996
45427SOL    HW138114   4.606  13.774  10.964
45427SOL    HW238115   4.522  13.776  11.091
45428SOL     OW38116  12.293  11.735   9.962
45428SOL    HW138117  12.367  11.676   9.946
45428SOL    HW238118  12.328  11.803  10.018
45429SOL     OW38119   7.920  11.860  14.246
45429SOL    HW138120   7.874  11.837  14.165
45429SOL    HW238121   7.971  11.781  14.267
45430SOL     OW38122  14.794   9.840   8.867
45430SOL    HW138123  14.860   9.826   8.935
45430SOL    HW238124  14.721   9.883   8.913
45431SOL     OW38125  10.539   7.307   8.933
45431SOL    HW138126  10.453   7.294   8.892
45431SOL    HW238127  10.552   7.228   8.986
45432SOL     OW38128   7.008   5.736  11.466
45432SOL    HW138129   7.089   5.702  11.428
45432SOL    HW238130   6.944   5.729  11.396
45433SOL     OW38131   5.191   4.201   7.889
45433SOL    HW138132   5.137   4.129   7.921
45433SOL    HW238133   5.229   4.168   7.807
45434SOL     OW38134   0.788   1.580  13.516
45434SOL    HW138135   0.774   1.531  13.435
45434SOL    HW238136   0.816   1.515  13.580
45435SOL     OW38137  12.489   2.503   8.152
45435SOL    HW138138  12.465   2.469   8.066
45435SOL    HW238139  12.411   2.550   8.182
45436SOL     OW38140  10.447   4.057   3.900
45436SOL    HW138141  10.391   3.981   3.889
45436SOL    HW238142  10.471   4.057   3.993
45437SOL     OW38143   9.270   8.231  13.057
45437SOL    HW138144   9.346   8.234  13.116
45437SOL    HW238145   9.307   8.217  12.970
45438SOL     OW38146  10.874   8.147   6.771
45438SOL    HW138147  10.830   8.190   6.697
45438SOL    HW238148  10.850   8.200   6.847
45439SOL     OW38149  11.544  10.770  10.989
45439SOL    HW138150  11.554  10.684  11.030
45439SOL    HW238151  11.488  10.753  10.912
45440SOL     OW38152  12.770  10.648  12.270
45440SOL    HW138153  12.842  10.702  12.305
45440SOL    HW238154  12.703  10.712  12.246
45441SOL     OW38155   1.088   5.862  14.147
45441SOL    HW138156   1.132   5.893  14.226
45441SOL    HW238157   0.995   5.868  14.167
45442SOL     OW38158  12.402   7.606   7.810
45442SOL    HW138159  12.427   7.514   7.818
45442SOL    HW238160  12.392   7.636   7.900
45443SOL     OW38161   6.680   1.137   5.202
45443SOL    HW138162   6.714   1.126   5.113
45443SOL    HW238163   6.642   1.225   5.203
45444SOL     OW38164  11.519   0.658  11.443
45444SOL    HW138165  11.532   0.584  11.503
45444SOL    HW238166  11.466   0.720  11.492
45445SOL     OW38167  11.309   2.309  14.404
45445SOL    HW138168  11.284   2.393  14.443
45445SOL    HW238169  11.376   2.331  14.339
45446SOL     OW38170   2.119   9.209   5.544
45446SOL    HW138171   2.161   9.295   5.540
45446SOL    HW238172   2.148   9.164   5.465
45447SOL     OW38173   6.706  11.017   4.151
45447SOL    HW138174   6.614  11.015   4.176
45447SOL    HW238175   6.723  11.108   4.126
45448SOL     OW38176   7.159   7.505  13.806
45448SOL    HW138177   7.084   7.562  13.823
45448SOL    HW238178   7.208   7.505  13.889
45449SOL     OW38179   9.313  13.456  11.573
45449SOL    HW138180   9.333  13.547  11.596
45449SOL    HW238181   9.390  13.406  11.601
45450SOL     OW38182   6.632   5.412   8.580
45450SOL    HW138183   6.612   5.471   8.653
45450SOL    HW238184   6.548   5.398   8.537
45451SOL     OW38185   9.768   9.909   1.262
45451SOL    HW138186   9.777   9.871   1.349
45451SOL    HW238187   9.684   9.956   1.265
45452SOL     OW38188   6.891  13.172   0.621
45452SOL    HW138189   6.946  13.219   0.558
45452SOL    HW238190   6.934  13.088   0.633
45453SOL     OW38191  14.427  11.343   7.215
45453SOL    HW138192  14.479  11.422   7.203
45453SOL    HW238193  14.337  11.372   7.198
45454SOL     OW38194   5.656   9.007  11.505
45454SOL    HW138195   5.589   9.058  11.459
45454SOL    HW238196   5.612   8.973  11.583
45455SOL     OW38197   9.872   1.463   6.545
45455SOL    HW138198   9.938   1.464   6.615
45455SOL    HW238199   9.789   1.473   6.590
45456SOL     OW38200   0.073   6.389   1.175
45456SOL    HW138201   0.166   6.411   1.183
45456SOL    HW238202   0.052   6.344   1.258
45457SOL     OW38203  13.990   1.503   0.893
45457SOL    HW138204  14.010   1.531   0.804
45457SOL    HW238205  13.972   1.585   0.940
45458SOL     OW38206   4.821  13.372   0.075
45458SOL    HW138207   4.785  13.461   0.079
45458SOL    HW238208   4.880  13.374  14.878
45459SOL     OW38209  12.536   8.106  13.569
45459SOL    HW138210  12.552   8.160  13.646
45459SOL    HW238211  12.616   8.055  13.558
45460SOL     OW38212   0.382   4.970  10.087
45460SOL    HW138213   0.312   5.034  10.101
45460SOL    HW238214   0.378   4.949   9.994
45461SOL     OW38215   7.044   8.733   7.815
45461SOL    HW138216   6.978   8.668   7.790
45461SOL    HW238217   7.123   8.707   7.767
45462SOL     OW38218   6.298   3.181   8.407
45462SOL    HW138219   6.377   3.141   8.443
45462SOL    HW238220   6.258   3.226   8.482
45463SOL     OW38221  13.929   9.831  12.904
45463SOL    HW138222  13.883   9.863  12.826
45463SOL    HW238223  13.914   9.899  12.970
45464SOL     OW38224  11.723   5.719   3.299
45464SOL    HW138225  11.792   5.660   3.328
45464SOL    HW238226  11.765   5.805   3.295
45465SOL     OW38227   7.311   9.800   2.729
45465SOL    HW138228   7.248   9.756   2.786
45465SOL    HW238229   7.380   9.735   2.715
45466SOL     OW38230  13.139   7.626   3.377
45466SOL    HW138231  13.191   7.706   3.368
45466SOL    HW238232  13.070   7.649   3.439
45467SOL     OW38233  13.129   0.040   0.895
45467SOL    HW138234  13.170   0.108   0.843
45467SOL    HW238235  13.083  14.864   0.831
45468SOL     OW38236   9.400  12.388   4.700
45468SOL    HW138237   9.416  12.365   4.791
45468SOL    HW238238   9.336  12.324   4.670
45469SOL     OW38239   3.336  14.092  11.230
45469SOL    HW138240   3.340  14.044  11.313
45469SOL    HW238241   3.252  14.065  11.192
45470SOL     OW38242   2.928   3.913   0.612
45470SOL    HW138243   2.964   3.829   0.584
45470SOL    HW238244   2.836   3.909   0.588
45471SOL     OW38245   3.355   7.966   7.552
45471SOL    HW138246   3.425   7.901   7.549
45471SOL    HW238247   3.274   7.915   7.544
45472SOL     OW38248  10.310   5.899   7.272
45472SOL    HW138249  10.276   5.894   7.361
45472SOL    HW238250  10.299   5.991   7.247
45473SOL     OW38251   1.169   0.274   3.328
45473SOL    HW138252   1.163   0.365   3.357
45473SOL    HW238253   1.244   0.273   3.269
45474SOL     OW38254   9.525   5.123   8.808
45474SOL    HW138255   9.510   5.073   8.728
45474SOL    HW238256   9.453   5.099   8.866
45475SOL     OW38257  13.497  13.950   7.231
45475SOL    HW138258  13.558  13.975   7.162
45475SOL    HW238259  13.473  14.033   7.272
45476SOL     OW38260  13.747   1.913   5.537
45476SOL    HW138261  13.778   1.991   5.582
45476SOL    HW238262  13.662   1.938   5.500
45477SOL     OW38263  12.953  11.958   0.168
45477SOL    HW138264  13.044  11.981   0.184
45477SOL    HW238265  12.956  11.886   0.105
45478SOL     OW38266   3.496   6.462   6.033
45478SOL    HW138267   3.528   6.550   6.053
45478SOL    HW238268   3.543   6.405   6.094
45479SOL     OW38269  14.048   6.990   8.687
45479SOL    HW138270  13.998   7.068   8.713
45479SOL    HW238271  14.112   7.023   8.624
45480SOL     OW38272   4.658   5.407  14.786
45480SOL    HW138273   4.752   5.426  14.791
45480SOL    HW238274   4.617   5.493  14.776
45481SOL     OW38275   2.089   2.153   0.130
45481SOL    HW138276   2.180   2.128   0.144
45481SOL    HW238277   2.089   2.194   0.043
45482SOL     OW38278   4.331  10.420  11.026
45482SOL    HW138279   4.325  10.325  11.036
45482SOL    HW238280   4.351  10.433  10.933
45483SOL     OW38281   5.015  11.445   3.413
45483SOL    HW138282   5.031  11.351   3.427
45483SOL    HW238283   5.060  11.465   3.331
45484SOL     OW38284   4.531   5.020   5.000
45484SOL    HW138285   4.621   4.997   4.975
45484SOL    HW238286   4.541   5.092   5.062
45485SOL     OW38287  12.503   5.735   2.573
45485SOL    HW138288  12.487   5.804   2.638
45485SOL    HW238289  12.597   5.719   2.579
45486SOL     OW38290   6.438  10.092  14.424
45486SOL    HW138291   6.421  10.001  14.448
45486SOL    HW238292   6.523  10.112  14.465
45487SOL     OW38293   2.355   1.246  14.044
45487SOL    HW138294   2.449   1.259  14.031
45487SOL    HW238295   2.349   1.201  14.128
45488SOL     OW38296   5.309  12.357  11.380
45488SOL    HW138297   5.344  12.369  11.469
45488SOL    HW238298   5.221  12.394  11.384
45489SOL     OW38299  12.597   6.437  10.604
45489SOL    HW138300  12.520   6.398  10.646
45489SOL    HW238301  12.572   6.450  10.513
45490SOL     OW38302   3.904   8.015   0.044
45490SOL    HW138303   3.839   7.973  14.866
45490SOL    HW238304   3.985   8.012  14.872
45491SOL     OW38305   5.184   2.725   0.996
45491SOL    HW138306   5.092   2.709   1.016
45491SOL    HW238307   5.223   2.752   1.079
45492SOL     OW38308  12.868   2.779   7.070
45492SOL    HW138309  12.908   2.692   7.066
45492SOL    HW238310  12.851   2.802   6.978
45493SOL     OW38311   8.049   6.301   3.426
45493SOL    HW138312   8.115   6.366   3.403
45493SOL    HW238313   7.978   6.316   3.364
45494SOL     OW38314   3.391   3.676   8.113
45494SOL    HW138315   3.461   3.741   8.119
45494SOL    HW238316   3.366   3.677   8.020
45495SOL     OW38317   9.723   5.462   4.644
45495SOL    HW138318   9.694   5.374   4.621
45495SOL    HW238319   9.761   5.453   4.732
45496SOL     OW38320  12.411   2.708   6.306
45496SOL    HW138321  12.362   2.745   6.380
45496SOL    HW238322  12.502   2.732   6.322
45497SOL     OW38323   9.339   8.547   6.343
45497SOL    HW138324   9.273   8.500   6.394
45497SOL    HW238325   9.397   8.586   6.409
45498SOL     OW38326   8.207   5.435   3.164
45498SOL    HW138327   8.273   5.366   3.162
45498SOL    HW238328   8.233   5.490   3.238
45499SOL     OW38329  10.104  13.614   9.292
45499SOL    HW138330  10.178  13.554   9.279
45499SOL    HW238331  10.144  13.696   9.321
45500SOL     OW38332   2.523   4.180   8.116
45500SOL    HW138333   2.552   4.198   8.027
45500SOL    HW238334   2.591   4.217   8.172
45501SOL     OW38335  12.535  13.844   8.721
45501SOL    HW138336  12.492  13.838   8.806
45501SOL    HW238337  12.512  13.932   8.689
45502SOL     OW38338   4.551   9.691   5.194
45502SOL    HW138339   4.550   9.773   5.243
45502SOL    HW238340   4.579   9.626   5.258
45503SOL     OW38341  14.112   0.750  12.668
45503SOL    HW138342  14.047   0.684  12.690
45503SOL    HW238343  14.165   0.759  12.748
45504SOL     OW38344   8.430   0.816  11.147
45504SOL    HW138345   8.502   0.877  11.133
45504SOL    HW238346   8.471   0.738  11.184
45505SOL     OW38347   3.812   1.648  13.005
45505SOL    HW138348   3.867   1.650  12.927
45505SOL    HW238349   3.868   1.682  13.075
45506SOL     OW38350  11.825  12.161   1.792
45506SOL    HW138351  11.787  12.232   1.844
45506SOL    HW238352  11.755  12.097   1.784
45507SOL     OW38353   5.243  11.427   0.417
45507SOL    HW138354   5.243  11.397   0.326
45507SOL    HW238355   5.245  11.523   0.411
45508SOL     OW38356   5.397  12.854   8.534
45508SOL    HW138357   5.395  12.813   8.620
45508SOL    HW238358   5.310  12.894   8.524
45509SOL     OW38359   6.541  11.467  11.670
45509SOL    HW138360   6.483  11.533  11.707
45509SOL    HW238361   6.595  11.439  11.744
45510SOL     OW38362   7.459   2.510   2.562
45510SOL    HW138363   7.491   2.521   2.652
45510SOL    HW238364   7.387   2.573   2.554
45511SOL     OW38365   6.756  11.029  11.318
45511SOL    HW138366   6.773  11.051  11.227
45511SOL    HW238367   6.686  11.088  11.345
45512SOL     OW38368  11.373   6.118   5.306
45512SOL    HW138369  11.437   6.111   5.235
45512SOL    HW238370  11.326   6.035   5.305
45513SOL     OW38371   6.707   0.430   8.161
45513SOL    HW138372   6.672   0.448   8.073
45513SOL    HW238373   6.714   0.334   8.165
45514SOL     OW38374   6.652   8.351   3.546
45514SOL    HW138375   6.629   8.265   3.510
45514SOL    HW238376   6.690   8.333   3.632
45515SOL     OW38377   3.777   6.383  11.104
45515SOL    HW138378   3.702   6.415  11.154
45515SOL    HW238379   3.752   6.392  11.012
45516SOL     OW38380  10.089  13.026   8.427
45516SOL    HW138381  10.054  13.079   8.499
45516SOL    HW238382  10.184  13.029   8.439
45517SOL     OW38383   4.671   2.980  14.429
45517SOL    HW138384   4.685   3.032  14.508
45517SOL    HW238385   4.727   2.904  14.440
45518SOL     OW38386   0.211   2.206   2.279
45518SOL    HW138387   0.168   2.194   2.194
45518SOL    HW238388   0.266   2.129   2.289
45519SOL     OW38389  12.610   7.723   7.037
45519SOL    HW138390  12.516   7.702   7.033
45519SOL    HW238391  12.614   7.806   7.084
45520SOL     OW38392   5.242   4.472   2.970
45520SOL    HW138393   5.278   4.555   3.004
45520SOL    HW238394   5.168   4.499   2.915
45521SOL     OW38395  13.454   2.725   5.646
45521SOL    HW138396  13.541   2.743   5.681
45521SOL    HW238397  13.396   2.788   5.688
45522SOL     OW38398  14.337   2.171  12.667
45522SOL    HW138399  14.424   2.151  12.631
45522SOL    HW238400  14.355   2.225  12.744
45523SOL     OW38401   5.295   0.533   3.812
45523SOL    HW138402   5.261   0.615   3.776
45523SOL    HW238403   5.217   0.487   3.843
45524SOL     OW38404   2.776  13.990   3.394
45524SOL    HW138405   2.724  14.030   3.325
45524SOL    HW238406   2.733  14.015   3.475
45525SOL     OW38407   6.665   6.572  13.441
45525SOL    HW138408   6.751   6.610  13.460
45525SOL    HW238409   6.659   6.496  13.499
45526SOL     OW38410   3.659  11.916   5.571
45526SOL    HW138411   3.612  11.835   5.591
45526SOL    HW238412   3.698  11.942   5.655
45527SOL     OW38413   3.271   7.794  14.237
45527SOL    HW138414   3.272   7.838  14.152
45527SOL    HW238415   3.363   7.773  14.255
45528SOL     OW38416  13.126  13.925   4.651
45528SOL    HW138417  13.117  13.899   4.743
45528SOL    HW238418  13.101  14.017   4.650
45529SOL     OW38419   8.023  10.218  13.913
45529SOL    HW138420   7.947  10.240  13.860
45529SOL    HW238421   8.098  10.240  13.858
45530SOL     OW38422   5.552   4.118   3.240
45530SOL    HW138423   5.533   4.094   3.330
45530SOL    HW238424   5.480   4.177   3.215
45531SOL     OW38425   3.329  11.758  14.877
45531SOL    HW138426   3.386  11.693   0.040
45531SOL    HW238427   3.381  11.839  14.877
45532SOL     OW38428  12.528   7.072   1.365
45532SOL    HW138429  12.452   7.032   1.323
45532SOL    HW238430  12.592   7.081   1.295
45533SOL     OW38431   6.978   6.438   8.143
45533SOL    HW138432   7.055   6.381   8.133
45533SOL    HW238433   7.009   6.525   8.117
45534SOL     OW38434   0.158   1.638   1.286
45534SOL    HW138435   0.085   1.692   1.255
45534SOL    HW238436   0.121   1.588   1.359
45535SOL     OW38437   7.209   0.259   1.812
45535SOL    HW138438   7.230   0.346   1.779
45535SOL    HW238439   7.288   0.233   1.861
45536SOL     OW38440   2.607  11.410   2.164
45536SOL    HW138441   2.529  11.383   2.212
45536SOL    HW238442   2.592  11.379   2.075
45537SOL     OW38443   1.858  10.505   3.353
45537SOL    HW138444   1.937  10.497   3.299
45537SOL    HW238445   1.807  10.574   3.311
45538SOL     OW38446   0.971   9.488   8.924
45538SOL    HW138447   0.955   9.446   8.839
45538SOL    HW238448   1.066   9.488   8.933
45539SOL     OW38449   7.139  14.281   5.841
45539SOL    HW138450   7.131  14.376   5.848
45539SOL    HW238451   7.227  14.261   5.873
45540SOL     OW38452   2.392   1.186   1.070
45540SOL    HW138453   2.434   1.100   1.075
45540SOL    HW238454   2.330   1.178   0.998
45541SOL     OW38455   4.127  10.623  11.116
45541SOL    HW138456   4.113  10.698  11.058
45541SOL    HW238457   4.196  10.572  11.073
45542SOL     OW38458   5.819   3.173  11.402
45542SOL    HW138459   5.906   3.192  11.367
45542SOL    HW238460   5.760   3.230  11.352
45543SOL     OW38461  11.552   7.784  11.858
45543SOL    HW138462  11.625   7.724  11.867
45543SOL    HW238463  11.479   7.742  11.903
45544SOL     OW38464   2.561  10.082   6.342
45544SOL    HW138465   2.622  10.061   6.412
45544SOL    HW238466   2.533   9.997   6.308
45545SOL     OW38467  11.734  11.128   2.562
45545SOL    HW138468  11.826  11.154   2.569
45545SOL    HW238469  11.690  11.177   2.632
45546SOL     OW38470   3.806   8.436   0.347
45546SOL    HW138471   3.825   8.421   0.439
45546SOL    HW238472   3.882   8.401   0.300
45547SOL     OW38473  10.229   1.681  11.232
45547SOL    HW138474  10.266   1.741  11.297
45547SOL    HW238475  10.135   1.684  11.248
45548SOL     OW38476  10.049  12.299  13.926
45548SOL    HW138477  10.035  12.245  13.849
45548SOL    HW238478  10.127  12.263  13.967
45549SOL     OW38479  12.665   3.995  10.532
45549SOL    HW138480  12.692   4.058  10.466
45549SOL    HW238481  12.635   4.048  10.606
45550SOL     OW38482   0.071  10.111   0.614
45550SOL    HW138483  14.875  10.167   0.634
45550SOL    HW238484   0.039  10.050   0.548
45551SOL     OW38485  14.588  10.648   7.777
45551SOL    HW138486  14.649  10.614   7.843
45551SOL    HW238487  14.521  10.694   7.828
45552SOL     OW38488  12.866  14.186   2.986
45552SOL    HW138489  12.848  14.270   3.029
45552SOL    HW238490  12.796  14.177   2.921
45553SOL     OW38491  13.526  11.888  13.027
45553SOL    HW138492  13.551  11.895  12.935
45553SOL    HW238493  13.478  11.968  13.045
45554SOL     OW38494   9.701   3.520   9.295
45554SOL    HW138495   9.640   3.495   9.225
45554SOL    HW238496   9.722   3.611   9.276
45555SOL     OW38497   7.529   1.210   7.069
45555SOL    HW138498   7.526   1.229   7.163
45555SOL    HW238499   7.548   1.294   7.028
45556SOL     OW38500  12.834  10.508  13.094
45556SOL    HW138501  12.866  10.427  13.053
45556SOL    HW238502  12.739  10.503  13.087
45557SOL     OW38503   4.336   7.205   7.760
45557SOL    HW138504   4.368   7.118   7.786
45557SOL    HW238505   4.248   7.210   7.796
45558SOL     OW38506  12.783   2.250   3.803
45558SOL    HW138507  12.740   2.201   3.733
45558SOL    HW238508  12.721   2.247   3.876
45559SOL     OW38509  14.064   0.616   2.764
45559SOL    HW138510  14.093   0.690   2.711
45559SOL    HW238511  14.102   0.633   2.850
45560SOL     OW38512   3.890  12.455  13.578
45560SOL    HW138513   3.923  12.540  13.609
45560SOL    HW238514   3.876  12.468  13.484
45561SOL     OW38515   8.844  11.037   1.258
45561SOL    HW138516   8.870  11.109   1.201
45561SOL    HW238517   8.925  10.987   1.271
45562SOL     OW38518   6.065   4.830   7.446
45562SOL    HW138519   5.993   4.833   7.383
45562SOL    HW238520   6.026   4.863   7.528
45563SOL     OW38521  14.250  13.096   2.132
45563SOL    HW138522  14.334  13.054   2.114
45563SOL    HW238523  14.265  13.189   2.116
45564SOL     OW38524   8.908   2.742   8.223
45564SOL    HW138525   8.997   2.744   8.260
45564SOL    HW238526   8.851   2.724   8.298
45565SOL     OW38527   8.352   2.335   7.215
45565SOL    HW138528   8.310   2.371   7.137
45565SOL    HW238529   8.439   2.308   7.185
45566SOL     OW38530   0.524   5.029   7.109
45566SOL    HW138531   0.593   5.090   7.081
45566SOL    HW238532   0.567   4.944   7.112
45567SOL     OW38533  14.104   2.696  13.409
45567SOL    HW138534  14.027   2.656  13.369
45567SOL    HW238535  14.093   2.683  13.503
45568SOL     OW38536   8.871  11.748  12.871
45568SOL    HW138537   8.953  11.788  12.842
45568SOL    HW238538   8.897  11.683  12.936
45569SOL     OW38539  13.739   1.229  14.723
45569SOL    HW138540  13.682   1.157  14.696
45569SOL    HW238541  13.683   1.306  14.721
45570SOL     OW38542   8.652   7.260   6.016
45570SOL    HW138543   8.562   7.274   6.045
45570SOL    HW238544   8.661   7.165   6.010
45571SOL     OW38545   8.327   5.846   1.440
45571SOL    HW138546   8.422   5.848   1.429
45571SOL    HW238547   8.297   5.929   1.402
45572SOL     OW38548  11.794  10.276   4.490
45572SOL    HW138549  11.780  10.344   4.423
45572SOL    HW238550  11.826  10.324   4.566
45573SOL     OW38551   7.769   1.129  14.295
45573SOL    HW138552   7.693   1.151  14.348
45573SOL    HW238553   7.833   1.196  14.317
45574SOL     OW38554   7.426   5.673   9.833
45574SOL    HW138555   7.428   5.723   9.915
45574SOL    HW238556   7.376   5.728   9.773
45575SOL     OW38557   0.219  14.644   2.012
45575SOL    HW138558   0.173  14.630   2.095
45575SOL    HW238559   0.155  14.623   1.945
45576SOL     OW38560   9.724   6.949  14.081
45576SOL    HW138561   9.638   6.954  14.122
45576SOL    HW238562   9.779   7.007  14.133
45577SOL     OW38563   9.883   5.440  13.301
45577SOL    HW138564   9.933   5.427  13.220
45577SOL    HW238565   9.869   5.535  13.305
45578SOL     OW38566   1.473  13.462   3.628
45578SOL    HW138567   1.497  13.456   3.535
45578SOL    HW238568   1.402  13.526   3.630
45579SOL     OW38569   7.478   4.057   6.814
45579SOL    HW138570   7.542   3.986   6.816
45579SOL    HW238571   7.528   4.135   6.842
45580SOL     OW38572  10.134   3.453   7.988
45580SOL    HW138573  10.165   3.367   7.963
45580SOL    HW238574  10.170   3.513   7.922
45581SOL     OW38575   2.297  12.365  13.960
45581SOL    HW138576   2.281  12.282  13.916
45581SOL    HW238577   2.272  12.432  13.896
45582SOL     OW38578   4.003   1.088   2.307
45582SOL    HW138579   4.064   1.134   2.364
45582SOL    HW238580   3.974   1.013   2.360
45583SOL     OW38581   5.292  10.121   2.847
45583SOL    HW138582   5.239  10.113   2.926
45583SOL    HW238583   5.247  10.188   2.795
45584SOL     OW38584   6.624   8.375   1.008
45584SOL    HW138585   6.531   8.388   1.023
45584SOL    HW238586   6.663   8.378   1.096
45585SOL     OW38587   0.848  12.074   7.463
45585SOL    HW138588   0.883  12.004   7.518
45585SOL    HW238589   0.774  12.108   7.513
45586SOL     OW38590   7.948   1.790   6.760
45586SOL    HW138591   7.987   1.870   6.796
45586SOL    HW238592   7.942   1.806   6.666
45587SOL     OW38593   3.970  13.992   2.313
45587SOL    HW138594   3.947  14.038   2.394
45587SOL    HW238595   3.922  14.038   2.244
45588SOL     OW38596  10.424  12.242   1.483
45588SOL    HW138597  10.398  12.179   1.549
45588SOL    HW238598  10.366  12.317   1.498
45589SOL     OW38599  12.167   4.699   1.113
45589SOL    HW138600  12.173   4.707   1.208
45589SOL    HW238601  12.120   4.617   1.098
45590SOL     OW38602   3.459   3.288   0.644
45590SOL    HW138603   3.408   3.342   0.704
45590SOL    HW238604   3.420   3.201   0.651
45591SOL     OW38605   9.787   6.216   7.016
45591SOL    HW138606   9.855   6.158   7.050
45591SOL    HW238607   9.787   6.199   6.921
45592SOL     OW38608   7.529   6.164   7.426
45592SOL    HW138609   7.478   6.202   7.498
45592SOL    HW238610   7.533   6.234   7.361
45593SOL     OW38611  11.100  11.013   6.878
45593SOL    HW138612  11.025  11.071   6.891
45593SOL    HW238613  11.107  10.964   6.959
45594SOL     OW38614  13.684   3.210   3.530
45594SOL    HW138615  13.755   3.256   3.574
45594SOL    HW238616  13.653   3.146   3.595
45595SOL     OW38617   1.446   4.584   3.981
45595SOL    HW138618   1.439   4.673   3.948
45595SOL    HW238619   1.367   4.540   3.950
45596SOL     OW38620   7.207   3.730   2.734
45596SOL    HW138621   7.202   3.657   2.672
45596SOL    HW238622   7.276   3.786   2.699
45597SOL     OW38623  13.795   5.820  12.027
45597SOL    HW138624  13.700   5.808  12.017
45597SOL    HW238625  13.820   5.759  12.096
45598SOL     OW38626   7.533  10.343   2.844
45598SOL    HW138627   7.603  10.278   2.836
45598SOL    HW238628   7.524  10.380   2.756
45599SOL     OW38629  12.417  13.164   8.173
45599SOL    HW138630  12.451  13.248   8.140
45599SOL    HW238631  12.486  13.101   8.152
45600SOL     OW38632   4.842  12.879  13.288
45600SOL    HW138633   4.870  12.877  13.197
45600SOL    HW238634   4.886  12.955  13.325
45601SOL     OW38635   4.766   1.369  10.157
45601SOL    HW138636   4.857   1.337  10.157
45601SOL    HW238637   4.716   1.299  10.115
45602SOL     OW38638   2.095  10.269   9.166
45602SOL    HW138639   2.107  10.346   9.111
45602SOL    HW238640   2.089  10.196   9.105
45603SOL     OW38641   5.670   4.158  12.141
45603SOL    HW138642   5.622   4.226  12.094
45603SOL    HW238643   5.741   4.133  12.081
45604SOL     OW38644   4.768   9.700  14.436
45604SOL    HW138645   4.746   9.609  14.417
45604SOL    HW238646   4.691   9.734  14.482
45605SOL     OW38647  11.220   9.494   3.076
45605SOL    HW138648  11.224   9.585   3.106
45605SOL    HW238649  11.233   9.443   3.156
45606SOL     OW38650  13.402   9.830  14.344
45606SOL    HW138651  13.360   9.844  14.259
45606SOL    HW238652  13.438   9.741  14.338
45607SOL     OW38653  10.734  11.554   9.884
45607SOL    HW138654  10.758  11.475   9.835
45607SOL    HW238655  10.659  11.589   9.836
45608SOL     OW38656   6.846   2.889   9.943
45608SOL    HW138657   6.818   2.797   9.945
45608SOL    HW238658   6.904   2.894   9.867
45609SOL     OW38659   6.039   1.641   7.991
45609SOL    HW138660   6.066   1.557   7.956
45609SOL    HW238661   6.121   1.684   8.017
45610SOL     OW38662   5.198  12.797   4.033
45610SOL    HW138663   5.136  12.870   4.023
45610SOL    HW238664   5.233  12.807   4.121
45611SOL     OW38665   6.187   6.931  12.361
45611SOL    HW138666   6.221   6.949  12.273
45611SOL    HW238667   6.245   6.980  12.419
45612SOL     OW38668   2.186  11.993   5.296
45612SOL    HW138669   2.279  11.985   5.316
45612SOL    HW238670   2.173  11.942   5.216
45613SOL     OW38671  14.401  12.705   6.279
45613SOL    HW138672  14.373  12.620   6.245
45613SOL    HW238673  14.496  12.697   6.290
45614SOL     OW38674   9.049   1.946   0.695
45614SOL    HW138675   9.045   1.883   0.767
45614SOL    HW238676   9.122   1.915   0.641
45615SOL     OW38677   8.664   3.543  13.947
45615SOL    HW138678   8.739   3.512  13.897
45615SOL    HW238679   8.589   3.499  13.908
45616SOL     OW38680   8.209   5.516   2.056
45616SOL    HW138681   8.295   5.556   2.069
45616SOL    HW238682   8.206   5.446   2.121
45617SOL     OW38683   5.879  11.683   4.639
45617SOL    HW138684   5.801  11.739   4.637
45617SOL    HW238685   5.886  11.648   4.550
45618SOL     OW38686   0.527   0.552   9.552
45618SOL    HW138687   0.608   0.599   9.530
45618SOL    HW238688   0.494   0.521   9.467
45619SOL     OW38689  13.730  13.913   9.004
45619SOL    HW138690  13.746  13.873   9.089
45619SOL    HW238691  13.804  13.886   8.950
45620SOL     OW38692   7.974  11.381   2.349
45620SOL    HW138693   8.028  11.405   2.424
45620SOL    HW238694   7.962  11.287   2.358
45621SOL     OW38695   4.645   5.589   0.494
45621SOL    HW138696   4.718   5.528   0.484
45621SOL    HW238697   4.612   5.602   0.405
45622SOL     OW38698   1.708  12.364   2.531
45622SOL    HW138699   1.745  12.446   2.499
45622SOL    HW238700   1.783  12.315   2.565
45623SOL     OW38701   2.834  14.554  10.253
45623SOL    HW138702   2.847  14.460  10.267
45623SOL    HW238703   2.821  14.590  10.340
45624SOL     OW38704  10.581   8.208   8.069
45624SOL    HW138705  10.544   8.131   8.027
45624SOL    HW238706  10.675   8.195   8.064
45625SOL     OW38707  14.531   3.461   5.921
45625SOL    HW138708  14.443   3.425   5.910
45625SOL    HW238709  14.517   3.546   5.963
45626SOL     OW38710  10.208  10.467   9.158
45626SOL    HW138711  10.220  10.381   9.118
45626SOL    HW238712  10.124  10.498   9.124
45627SOL     OW38713   9.882   0.056   0.092
45627SOL    HW138714   9.845  14.877   0.025
45627SOL    HW238715   9.963   0.090   0.053
45628SOL     OW38716  14.110   8.730   2.309
45628SOL    HW138717  14.130   8.663   2.244
45628SOL    HW238718  14.104   8.683   2.392
45629SOL     OW38719   6.901  14.623   5.160
45629SOL    HW138720   6.846  14.545   5.152
45629SOL    HW238721   6.908  14.657   5.071
45630SOL     OW38722   3.244   5.050   0.022
45630SOL    HW138723   3.303   5.048  14.826
45630SOL    HW238724   3.245   5.142   0.050
45631SOL     OW38725   0.515   6.853  10.901
45631SOL    HW138726   0.610   6.849  10.901
45631SOL    HW238727   0.495   6.943  10.925
45632SOL     OW38728   0.085   2.160   6.786
45632SOL    HW138729  14.868   2.165   6.789
45632SOL    HW238730   0.108   2.202   6.703
45633SOL     OW38731  14.386   0.181   0.072
45633SOL    HW138732  14.446   0.140   0.011
45633SOL    HW238733  14.393   0.129   0.152
45634SOL     OW38734  14.309   4.507   4.491
45634SOL    HW138735  14.349   4.546   4.569
45634SOL    HW238736  14.326   4.413   4.500
45635SOL     OW38737   1.712   8.113   6.989
45635SOL    HW138738   1.768   8.077   7.057
45635SOL    HW238739   1.726   8.056   6.913
45636SOL     OW38740  11.089  12.686   3.879
45636SOL    HW138741  11.030  12.616   3.910
45636SOL    HW238742  11.040  12.729   3.809
45637SOL     OW38743  11.822  10.770  11.287
45637SOL    HW138744  11.815  10.809  11.374
45637SOL    HW238745  11.735  10.779  11.250
45638SOL     OW38746   0.840   5.326   8.194
45638SOL    HW138747   0.875   5.249   8.150
45638SOL    HW238748   0.778   5.291   8.258
45639SOL     OW38749   2.537   4.293  13.439
45639SOL    HW138750   2.488   4.251  13.368
45639SOL    HW238751   2.539   4.386  13.414
45640SOL     OW38752  14.100   1.399  12.629
45640SOL    HW138753  14.151   1.349  12.693
45640SOL    HW238754  14.114   1.490  12.654
45641SOL     OW38755  14.800  13.095   3.678
45641SOL    HW138756  14.706  13.111   3.671
45641SOL    HW238757  14.829  13.079   3.589
45642SOL     OW38758  12.334   8.109   3.857
45642SOL    HW138759  12.263   8.140   3.912
45642SOL    HW238760  12.292   8.055   3.790
45643SOL     OW38761  13.149   5.796  12.186
45643SOL    HW138762  13.091   5.816  12.259
45643SOL    HW238763  13.109   5.839  12.110
45644SOL     OW38764   8.985  14.276   7.752
45644SOL    HW138765   9.028  14.357   7.725
45644SOL    HW238766   9.027  14.208   7.700
45645SOL     OW38767  12.353   6.046  14.039
45645SOL    HW138768  12.428   6.021  14.093
45645SOL    HW238769  12.314   6.121  14.086
45646SOL     OW38770  10.515  12.084  11.085
45646SOL    HW138771  10.453  12.138  11.133
45646SOL    HW238772  10.601  12.120  11.107
45647SOL     OW38773   6.645  10.893  13.005
45647SOL    HW138774   6.594  10.908  13.084
45647SOL    HW238775   6.628  10.969  12.950
45648SOL     OW38776  12.802  12.858  10.445
45648SOL    HW138777  12.761  12.918  10.507
45648SOL    HW238778  12.858  12.915  10.391
45649SOL     OW38779  13.633   4.088  14.764
45649SOL    HW138780  13.589   4.102  14.848
45649SOL    HW238781  13.564   4.092  14.699
45650SOL     OW38782  14.148   9.616   7.685
45650SOL    HW138783  14.136   9.521   7.684
45650SOL    HW238784  14.225   9.631   7.631
45651SOL     OW38785  13.367  11.600  13.730
45651SOL    HW138786  13.294  11.584  13.670
45651SOL    HW238787  13.440  11.622  13.673
45652SOL     OW38788  14.826   0.010   5.251
45652SOL    HW138789  14.879   0.059   5.314
45652SOL    HW238790   0.008  14.824   5.215
45653SOL     OW38791   7.365   9.086   9.063
45653SOL    HW138792   7.324   9.016   9.013
45653SOL    HW238793   7.297   9.115   9.124
45654SOL     OW38794   3.552   8.404  11.132
45654SOL    HW138795   3.487   8.427  11.066
45654SOL    HW238796   3.502   8.391  11.212
45655SOL     OW38797   7.348   0.413   5.716
45655SOL    HW138798   7.321   0.326   5.685
45655SOL    HW238799   7.392   0.453   5.642
45656SOL     OW38800   7.506   8.479   8.253
45656SOL    HW138801   7.508   8.401   8.308
45656SOL    HW238802   7.588   8.525   8.274
45657SOL     OW38803   1.726  12.721   9.728
45657SOL    HW138804   1.685  12.797   9.687
45657SOL    HW238805   1.741  12.749   9.819
45658SOL     OW38806   8.285   2.217  12.052
45658SOL    HW138807   8.258   2.146  11.993
45658SOL    HW238808   8.351   2.266  12.002
45659SOL     OW38809   3.822   7.147  12.776
45659SOL    HW138810   3.854   7.066  12.734
45659SOL    HW238811   3.850   7.139  12.867
45660SOL     OW38812   5.701  12.274  11.227
45660SOL    HW138813   5.783  12.224  11.227
45660SOL    HW238814   5.721  12.352  11.175
45661SOL     OW38815   7.051   7.475   3.638
45661SOL    HW138816   6.980   7.420   3.671
45661SOL    HW238817   7.122   7.461   3.701
45662SOL     OW38818   1.717   7.880   0.661
45662SOL    HW138819   1.683   7.868   0.750
45662SOL    HW238820   1.812   7.886   0.673
45663SOL     OW38821  10.112  11.487   0.660
45663SOL    HW138822  10.206  11.503   0.654
45663SOL    HW238823  10.104  11.409   0.716
45664SOL     OW38824  10.325   5.976  11.511
45664SOL    HW138825  10.257   5.912  11.490
45664SOL    HW238826  10.348   6.015  11.426
45665SOL     OW38827   1.676  10.494   9.341
45665SOL    HW138828   1.589  10.523   9.368
45665SOL    HW238829   1.663  10.450   9.257
45666SOL     OW38830   3.856   6.406  10.066
45666SOL    HW138831   3.918   6.345  10.026
45666SOL    HW238832   3.890   6.421  10.154
45667SOL     OW38833   2.630   4.836   2.129
45667SOL    HW138834   2.541   4.867   2.143
45667SOL    HW238835   2.678   4.913   2.098
45668SOL     OW38836   5.035   1.771   3.921
45668SOL    HW138837   5.128   1.759   3.941
45668SOL    HW238838   5.033   1.840   3.855
45669SOL     OW38839   3.447   2.091   8.621
45669SOL    HW138840   3.466   2.075   8.528
45669SOL    HW238841   3.404   2.011   8.651
45670SOL     OW38842   9.660   4.368   3.369
45670SOL    HW138843   9.593   4.303   3.347
45670SOL    HW238844   9.665   4.365   3.465
45671SOL     OW38845   3.991  12.159  12.937
45671SOL    HW138846   3.937  12.222  12.984
45671SOL    HW238847   3.999  12.196  12.849
45672SOL     OW38848   0.825  12.194   0.882
45672SOL    HW138849   0.744  12.143   0.880
45672SOL    HW238850   0.821  12.250   0.805
45673SOL     OW38851   0.356   7.134  13.722
45673SOL    HW138852   0.265   7.108  13.705
45673SOL    HW238853   0.407   7.086  13.656
45674SOL     OW38854  13.408  14.769   7.545
45674SOL    HW138855  13.422  14.861   7.563
45674SOL    HW238856  13.454  14.754   7.462
45675SOL     OW38857   0.685   6.941  14.078
45675SOL    HW138858   0.650   7.030  14.068
45675SOL    HW238859   0.619   6.886  14.036
45676SOL     OW38860   6.090  14.069  10.273
45676SOL    HW138861   5.994  14.064  10.277
45676SOL    HW238862   6.109  14.085  10.181
45677SOL     OW38863   0.185   7.343   0.614
45677SOL    HW138864   0.091   7.328   0.603
45677SOL    HW238865   0.216   7.267   0.662
45678SOL     OW38866  11.012   7.525   4.067
45678SOL    HW138867  11.048   7.553   4.152
45678SOL    HW238868  11.017   7.430   4.069
45679SOL     OW38869  13.149  10.416  11.969
45679SOL    HW138870  13.134  10.349  12.036
45679SOL    HW238871  13.168  10.495  12.019
45680SOL     OW38872   0.206   4.256  10.062
45680SOL    HW138873   0.199   4.332  10.004
45680SOL    HW238874   0.195   4.292  10.150
45681SOL     OW38875   7.169  12.361  13.958
45681SOL    HW138876   7.171  12.381  14.052
45681SOL    HW238877   7.175  12.265  13.954
45682SOL     OW38878   3.374   3.523   3.072
45682SOL    HW138879   3.338   3.515   2.984
45682SOL    HW238880   3.326   3.459   3.124
45683SOL     OW38881   8.322  12.735   9.643
45683SOL    HW138882   8.399  12.679   9.650
45683SOL    HW238883   8.299  12.755   9.734
45684SOL     OW38884   5.559  12.429   0.641
45684SOL    HW138885   5.520  12.516   0.646
45684SOL    HW238886   5.486  12.368   0.654
45685SOL     OW38887   6.618   4.357   6.653
45685SOL    HW138888   6.570   4.345   6.572
45685SOL    HW238889   6.607   4.275   6.701
45686SOL     OW38890  12.353   9.839   2.746
45686SOL    HW138891  12.400   9.759   2.769
45686SOL    HW238892  12.389   9.865   2.662
45687SOL     OW38893   3.632  13.722  14.388
45687SOL    HW138894   3.705  13.750  14.332
45687SOL    HW238895   3.627  13.791  14.454
45688SOL     OW38896   6.679   6.884   6.811
45688SOL    HW138897   6.647   6.939   6.740
45688SOL    HW238898   6.741   6.824   6.769
45689SOL     OW38899  14.285   0.963   1.986
45689SOL    HW138900  14.269   0.924   1.900
45689SOL    HW238901  14.198   0.979   2.022
45690SOL     OW38902   1.830   2.271   9.801
45690SOL    HW138903   1.738   2.247   9.806
45690SOL    HW238904   1.830   2.355   9.754
45691SOL     OW38905   0.723  13.868  13.709
45691SOL    HW138906   0.636  13.850  13.744
45691SOL    HW238907   0.715  13.852  13.615
45692SOL     OW38908  11.722  12.997  10.527
45692SOL    HW138909  11.766  13.043  10.454
45692SOL    HW238910  11.641  12.964  10.489
45693SOL     OW38911   2.598   8.193   1.862
45693SOL    HW138912   2.542   8.125   1.898
45693SOL    HW238913   2.591   8.183   1.767
45694SOL     OW38914   1.174   4.368   9.123
45694SOL    HW138915   1.230   4.304   9.078
45694SOL    HW238916   1.100   4.381   9.064
45695SOL     OW38917   1.000   2.139  13.211
45695SOL    HW138918   1.016   2.049  13.181
45695SOL    HW238919   1.049   2.193  13.148
45696SOL     OW38920   9.072  10.513   2.009
45696SOL    HW138921   8.990  10.563   2.005
45696SOL    HW238922   9.087  10.485   1.918
45697SOL     OW38923   1.528  10.896   1.141
45697SOL    HW138924   1.436  10.868   1.141
45697SOL    HW238925   1.530  10.970   1.080
45698SOL     OW38926  14.419   1.901   1.577
45698SOL    HW138927  14.336   1.930   1.616
45698SOL    HW238928  14.400   1.814   1.541
45699SOL     OW38929  10.215   1.354   2.615
45699SOL    HW138930  10.230   1.260   2.607
45699SOL    HW238931  10.171   1.379   2.534
45700SOL     OW38932   5.659  14.534   7.379
45700SOL    HW138933   5.603  14.581   7.441
45700SOL    HW238934   5.724  14.489   7.433
45701SOL     OW38935  12.913  12.102   7.187
45701SOL    HW138936  12.905  12.162   7.114
45701SOL    HW238937  12.824  12.069   7.201
45702SOL     OW38938   3.474   4.825   1.940
45702SOL    HW138939   3.534   4.857   1.872
45702SOL    HW238940   3.430   4.750   1.900
45703SOL     OW38941   8.565   9.886   5.084
45703SOL    HW138942   8.482   9.891   5.036
45703SOL    HW238943   8.571   9.794   5.110
45704SOL     OW38944  14.242  13.810   2.168
45704SOL    HW138945  14.170  13.807   2.104
45704SOL    HW238946  14.318  13.778   2.119
45705SOL     OW38947  14.683   9.418  10.627
45705SOL    HW138948  14.754   9.384  10.572
45705SOL    HW238949  14.604   9.406  10.574
45706SOL     OW38950   9.596   2.726   7.576
45706SOL    HW138951   9.678   2.722   7.626
45706SOL    HW238952   9.582   2.820   7.561
45707SOL     OW38953  11.256   6.515  11.936
45707SOL    HW138954  11.351   6.499  11.930
45707SOL    HW238955  11.221   6.436  11.977
45708SOL     OW38956  12.525  11.614   1.228
45708SOL    HW138957  12.506  11.524   1.199
45708SOL    HW238958  12.515  11.667   1.149
45709SOL     OW38959  14.321   2.261   4.253
45709SOL    HW138960  14.323   2.355   4.233
45709SOL    HW238961  14.389   2.249   4.320
45710SOL     OW38962   5.702  12.331   0.427
45710SOL    HW138963   5.721  12.238   0.433
45710SOL    HW238964   5.678  12.356   0.517
45711SOL     OW38965  13.786  13.557   2.777
45711SOL    HW138966  13.840  13.633   2.797
45711SOL    HW238967  13.829  13.515   2.702
45712SOL     OW38968   9.338   8.851   3.007
45712SOL    HW138969   9.396   8.867   2.932
45712SOL    HW238970   9.310   8.938   3.034
45713SOL     OW38971   6.334   3.031  11.981
45713SOL    HW138972   6.286   3.071  12.053
45713SOL    HW238973   6.293   3.067  11.902
45714SOL     OW38974   5.082   3.599  12.864
45714SOL    HW138975   5.064   3.566  12.952
45714SOL    HW238976   5.108   3.522  12.814
45715SOL     OW38977   6.691   1.501   0.719
45715SOL    HW138978   6.778   1.535   0.739
45715SOL    HW238979   6.646   1.573   0.675
45716SOL     OW38980   6.036   7.479   9.737
45716SOL    HW138981   6.078   7.421   9.800
45716SOL    HW238982   5.942   7.471   9.755
45717SOL     OW38983   2.403   3.577   2.740
45717SOL    HW138984   2.477   3.554   2.685
45717SOL    HW238985   2.408   3.672   2.751
45718SOL     OW38986   8.452  11.058   5.769
45718SOL    HW138987   8.434  10.993   5.700
45718SOL    HW238988   8.376  11.052   5.827
45719SOL     OW38989   2.999   1.713   4.124
45719SOL    HW138990   3.019   1.623   4.099
45719SOL    HW238991   2.920   1.706   4.177
45720SOL     OW38992   0.467   7.871   8.582
45720SOL    HW138993   0.399   7.872   8.650
45720SOL    HW238994   0.513   7.954   8.593
45721SOL     OW38995   4.837  14.224   5.198
45721SOL    HW138996   4.791  14.301   5.166
45721SOL    HW238997   4.774  14.152   5.186
45722SOL     OW38998  14.569   1.257  14.797
45722SOL    HW138999  14.500   1.199  14.827
45722SOL    HW239000  14.576   1.324  14.865
45723SOL     OW39001  12.470   5.417  10.036
45723SOL    HW139002  12.538   5.354  10.060
45723SOL    HW239003  12.514   5.482   9.983
45724SOL     OW39004   1.916  13.847   6.879
45724SOL    HW139005   1.958  13.764   6.855
45724SOL    HW239006   1.988  13.902   6.911
45725SOL     OW39007   3.232   9.947   6.622
45725SOL    HW139008   3.296   9.976   6.687
45725SOL    HW239009   3.147   9.968   6.661
45726SOL     OW39010   4.585  13.497   8.763
45726SOL    HW139011   4.556  13.451   8.842
45726SOL    HW239012   4.503  13.526   8.721
45727SOL     OW39013   6.446   7.225   3.042
45727SOL    HW139014   6.380   7.199   3.107
45727SOL    HW239015   6.509   7.276   3.092
45728SOL     OW39016   3.227  10.641   6.798
45728SOL    HW139017   3.304  10.602   6.839
45728SOL    HW239018   3.262  10.711   6.743
45729SOL     OW39019   3.708  10.066  11.310
45729SOL    HW139020   3.643  10.019  11.362
45729SOL    HW239021   3.778  10.087  11.372
45730SOL     OW39022   4.630   8.775  12.548
45730SOL    HW139023   4.636   8.739  12.459
45730SOL    HW239024   4.703   8.737  12.595
45731SOL     OW39025  12.628  13.591   4.268
45731SOL    HW139026  12.643  13.685   4.274
45731SOL    HW239027  12.581  13.579   4.185
45732SOL     OW39028  12.269   8.624  13.324
45732SOL    HW139029  12.326   8.581  13.261
45732SOL    HW239030  12.187   8.574  13.321
45733SOL     OW39031  13.797   5.919   4.344
45733SOL    HW139032  13.788   6.010   4.317
45733SOL    HW239033  13.716   5.877   4.314
45734SOL     OW39034   8.334   2.993   6.954
45734SOL    HW139035   8.279   3.039   6.891
45734SOL    HW239036   8.420   3.035   6.947
45735SOL     OW39037  12.114  14.570  10.900
45735SOL    HW139038  12.105  14.480  10.933
45735SOL    HW239039  12.185  14.564  10.836
45736SOL     OW39040   5.029   4.133  11.996
45736SOL    HW139041   5.072   4.161  11.916
45736SOL    HW239042   5.044   4.038  11.999
45737SOL     OW39043  14.264   2.433   3.366
45737SOL    HW139044  14.346   2.438   3.316
45737SOL    HW239045  14.244   2.525   3.387
45738SOL     OW39046  13.421  12.612   8.525
45738SOL    HW139047  13.424  12.680   8.457
45738SOL    HW239048  13.434  12.530   8.478
45739SOL     OW39049   1.418  10.868   3.342
45739SOL    HW139050   1.328  10.881   3.311
45739SOL    HW239051   1.430  10.773   3.339
45740SOL     OW39052   1.539   5.565   5.756
45740SOL    HW139053   1.558   5.544   5.665
45740SOL    HW239054   1.554   5.659   5.762
45741SOL     OW39055   0.873   5.305  11.286
45741SOL    HW139056   0.952   5.358  11.293
45741SOL    HW239057   0.833   5.333  11.204
45742SOL     OW39058  14.775   7.023   1.003
45742SOL    HW139059  14.849   7.083   1.007
45742SOL    HW239060  14.698   7.080   1.004
45743SOL     OW39061   4.379   0.627   7.024
45743SOL    HW139062   4.371   0.574   7.104
45743SOL    HW239063   4.355   0.715   7.051
45744SOL     OW39064   7.764  13.380   3.484
45744SOL    HW139065   7.789  13.294   3.453
45744SOL    HW239066   7.822  13.397   3.559
45745SOL     OW39067  12.924   1.048  14.712
45745SOL    HW139068  12.905   0.958  14.684
45745SOL    HW239069  12.851   1.071  14.770
45746SOL     OW39070  11.905   5.468   0.796
45746SOL    HW139071  11.840   5.531   0.826
45746SOL    HW239072  11.931   5.499   0.710
45747SOL     OW39073   7.987   2.866   9.357
45747SOL    HW139074   7.957   2.782   9.394
45747SOL    HW239075   8.047   2.841   9.287
45748SOL     OW39076   2.324   1.516   9.026
45748SOL    HW139077   2.361   1.457   9.092
45748SOL    HW239078   2.281   1.584   9.077
45749SOL     OW39079   0.805   0.599   7.275
45749SOL    HW139080   0.740   0.641   7.331
45749SOL    HW239081   0.886   0.603   7.326
45750SOL     OW39082  12.188   3.256   0.959
45750SOL    HW139083  12.120   3.291   1.016
45750SOL    HW239084  12.259   3.319   0.964
45751SOL     OW39085   6.689  13.128   4.538
45751SOL    HW139086   6.738  13.111   4.458
45751SOL    HW239087   6.755  13.133   4.607
45752SOL     OW39088   9.167   1.043   5.192
45752SOL    HW139089   9.202   1.005   5.112
45752SOL    HW239090   9.230   1.112   5.215
45753SOL     OW39091   3.008  14.870   2.921
45753SOL    HW139092   3.028   0.049   2.995
45753SOL    HW239093   2.925  14.828   2.945
45754SOL     OW39094   9.303   1.991   0.858
45754SOL    HW139095   9.376   2.053   0.860
45754SOL    HW239096   9.225   2.045   0.850
45755SOL     OW39097  12.061   4.532  13.776
45755SOL    HW139098  11.981   4.513  13.823
45755SOL    HW239099  12.120   4.570  13.841
45756SOL     OW39100  12.944   3.115  10.080
45756SOL    HW139101  12.859   3.100  10.121
45756SOL    HW239102  12.954   3.210  10.078
45757SOL     OW39103   5.082  11.348  10.685
45757SOL    HW139104   5.011  11.316  10.740
45757SOL    HW239105   5.073  11.443  10.687
45758SOL     OW39106   2.410   5.020   4.509
45758SOL    HW139107   2.332   5.070   4.485
45758SOL    HW239108   2.377   4.951   4.567
45759SOL     OW39109   1.009   7.408   9.961
45759SOL    HW139110   0.965   7.493   9.970
45759SOL    HW239111   0.942   7.351   9.923
45760SOL     OW39112   7.997   0.488  13.693
45760SOL    HW139113   8.000   0.395  13.714
45760SOL    HW239114   7.964   0.492  13.603
45761SOL     OW39115   0.671   1.695   1.067
45761SOL    HW139116   0.629   1.779   1.047
45761SOL    HW239117   0.644   1.676   1.157
45762SOL     OW39118   9.143   8.997   7.633
45762SOL    HW139119   9.133   8.964   7.723
45762SOL    HW239120   9.171   9.088   7.644
45763SOL     OW39121   3.442   5.280   0.931
45763SOL    HW139122   3.380   5.278   1.004
45763SOL    HW239123   3.410   5.351   0.875
45764SOL     OW39124  11.763   7.716   4.788
45764SOL    HW139125  11.787   7.791   4.733
45764SOL    HW239126  11.844   7.692   4.833
45765SOL     OW39127   6.449   5.351   5.473
45765SOL    HW139128   6.403   5.302   5.541
45765SOL    HW239129   6.501   5.415   5.521
45766SOL     OW39130   6.646   9.186   3.989
45766SOL    HW139131   6.679   9.198   4.078
45766SOL    HW239132   6.598   9.104   3.992
45767SOL     OW39133   2.521   6.921   5.854
45767SOL    HW139134   2.607   6.903   5.817
45767SOL    HW239135   2.530   6.900   5.947
45768SOL     OW39136   5.991   7.030   0.829
45768SOL    HW139137   6.052   6.968   0.870
45768SOL    HW239138   6.042   7.072   0.760
45769SOL     OW39139   6.945  14.225  11.877
45769SOL    HW139140   6.940  14.149  11.819
45769SOL    HW239141   6.933  14.190  11.965
45770SOL     OW39142  13.858  10.005   4.424
45770SOL    HW139143  13.895  10.080   4.470
45770SOL    HW239144  13.784   9.978   4.478
45771SOL     OW39145   1.386   5.904   2.957
45771SOL    HW139146   1.316   5.954   2.999
45771SOL    HW239147   1.359   5.813   2.964
45772SOL     OW39148   7.911   5.489  10.183
45772SOL    HW139149   7.868   5.573  10.194
45772SOL    HW239150   7.905   5.471  10.089
45773SOL     OW39151  14.410   8.810   5.795
45773SOL    HW139152  14.324   8.846   5.777
45773SOL    HW239153  14.396   8.716   5.805
45774SOL     OW39154   3.397  14.869  12.538
45774SOL    HW139155   3.333  14.826  12.482
45774SOL    HW239156   3.388  14.825  12.623
45775SOL     OW39157   9.465  12.047  13.706
45775SOL    HW139158   9.395  12.024  13.644
45775SOL    HW239159   9.546  12.031  13.658
45776SOL     OW39160  12.870   3.116  12.799
45776SOL    HW139161  12.795   3.160  12.838
45776SOL    HW239162  12.941   3.180  12.807
45777SOL     OW39163  11.833   4.907   8.677
45777SOL    HW139164  11.823   5.002   8.674
45777SOL    HW239165  11.750   4.873   8.645
45778SOL     OW39166   1.543  14.709  13.291
45778SOL    HW139167   1.584  14.781  13.244
45778SOL    HW239168   1.513  14.747  13.374
45779SOL     OW39169   5.377  10.307   4.039
45779SOL    HW139170   5.462  10.339   4.071
45779SOL    HW239171   5.313  10.366   4.077
45780SOL     OW39172  10.909   3.199  10.382
45780SOL    HW139173  10.937   3.122  10.334
45780SOL    HW239174  10.893   3.167  10.471
45781SOL     OW39175   3.902  13.894   5.356
45781SOL    HW139176   3.911  13.967   5.417
45781SOL    HW239177   3.869  13.822   5.410
45782SOL     OW39178   3.573   5.202  14.769
45782SOL    HW139179   3.562   5.190  14.864
45782SOL    HW239180   3.573   5.296  14.756
45783SOL     OW39181   3.845  11.825   2.728
45783SOL    HW139182   3.827  11.866   2.812
45783SOL    HW239183   3.940  11.829   2.719
45784SOL     OW39184   7.543   5.568  12.157
45784SOL    HW139185   7.507   5.540  12.241
45784SOL    HW239186   7.466   5.596  12.106
45785SOL     OW39187   5.216   0.518   1.571
45785SOL    HW139188   5.150   0.453   1.596
45785SOL    HW239189   5.212   0.522   1.476
45786SOL     OW39190   5.796   5.339   9.606
45786SOL    HW139191   5.705   5.368   9.616
45786SOL    HW239192   5.793   5.245   9.626
45787SOL     OW39193   8.901   9.566  13.389
45787SOL    HW139194   8.953   9.511  13.448
45787SOL    HW239195   8.925   9.537  13.301
45788SOL     OW39196  12.741   5.828   3.325
45788SOL    HW139197  12.759   5.841   3.418
45788SOL    HW239198  12.798   5.891   3.281
45789SOL     OW39199  11.271   7.081   6.257
45789SOL    HW139200  11.262   7.151   6.321
45789SOL    HW239201  11.195   7.024   6.272
45790SOL     OW39202   2.285   8.628   6.686
45790SOL    HW139203   2.349   8.685   6.729
45790SOL    HW239204   2.250   8.574   6.757
45791SOL     OW39205   1.376   0.352   7.834
45791SOL    HW139206   1.297   0.361   7.887
45791SOL    HW239207   1.407   0.442   7.822
45792SOL     OW39208  12.807   8.197   2.179
45792SOL    HW139209  12.834   8.266   2.240
45792SOL    HW239210  12.865   8.209   2.104
45793SOL     OW39211   6.387   5.671  10.807
45793SOL    HW139212   6.390   5.585  10.849
45793SOL    HW239213   6.294   5.685  10.789
45794SOL     OW39214   4.699  12.760   9.966
45794SOL    HW139215   4.633  12.802  10.021
45794SOL    HW239216   4.781  12.774  10.012
45795SOL     OW39217  14.499   8.638   5.543
45795SOL    HW139218  14.409   8.668   5.530
45795SOL    HW239219  14.516   8.653   5.636
45796SOL     OW39220  12.720   7.978  11.550
45796SOL    HW139221  12.705   8.013  11.462
45796SOL    HW239222  12.815   7.977  11.559
45797SOL     OW39223  12.461  14.563  14.068
45797SOL    HW139224  12.521  14.583  13.996
45797SOL    HW239225  12.453  14.646  14.116
45798SOL     OW39226   0.247   8.484  11.384
45798SOL    HW139227   0.256   8.430  11.462
45798SOL    HW239228   0.152   8.489  11.369
45799SOL     OW39229   9.169   4.716   4.035
45799SOL    HW139230   9.093   4.734   4.090
45799SOL    HW239231   9.244   4.726   4.093
45800SOL     OW39232  12.216   0.312   9.944
45800SOL    HW139233  12.277   0.267  10.002
45800SOL    HW239234  12.231   0.405   9.960
45801SOL     OW39235   7.020   0.164   6.862
45801SOL    HW139236   6.963   0.192   6.791
45801SOL    HW239237   7.042   0.245   6.908
45802SOL     OW39238  12.655   1.099   5.838
45802SOL    HW139239  12.702   1.179   5.815
45802SOL    HW239240  12.636   1.108   5.932
45803SOL     OW39241   3.816   6.591   7.683
45803SOL    HW139242   3.746   6.552   7.631
45803SOL    HW239243   3.811   6.685   7.663
45804SOL     OW39244   6.314   4.493  10.813
45804SOL    HW139245   6.295   4.538  10.895
45804SOL    HW239246   6.359   4.412  10.841
45805SOL     OW39247   2.883  12.692  10.722
45805SOL    HW139248   2.976  12.679  10.742
45805SOL    HW239249   2.853  12.606  10.693
45806SOL     OW39250  13.535   8.740   6.322
45806SOL    HW139251  13.578   8.825   6.328
45806SOL    HW239252  13.597   8.679   6.362
45807SOL     OW39253   4.217  11.628  12.735
45807SOL    HW139254   4.133  11.589  12.759
45807SOL    HW239255   4.200  11.668  12.649
45808SOL     OW39256   8.035  10.771   5.628
45808SOL    HW139257   8.007  10.853   5.586
45808SOL    HW239258   8.003  10.778   5.718
45809SOL     OW39259  12.457   3.377   5.191
45809SOL    HW139260  12.550   3.381   5.169
45809SOL    HW239261  12.421   3.310   5.132
45810SOL     OW39262   7.414   5.661  11.925
45810SOL    HW139263   7.320   5.667  11.942
45810SOL    HW239264   7.452   5.732  11.977
45811SOL     OW39265   1.580   2.748  10.577
45811SOL    HW139266   1.491   2.777  10.599
45811SOL    HW239267   1.568   2.677  10.514
45812SOL     OW39268   8.741   2.286   1.669
45812SOL    HW139269   8.803   2.348   1.630
45812SOL    HW239270   8.655   2.316   1.641
45813SOL     OW39271   3.717   7.646  10.386
45813SOL    HW139272   3.647   7.585  10.409
45813SOL    HW239273   3.712   7.652  10.290
45814SOL     OW39274   4.036   6.660  10.449
45814SOL    HW139275   4.117   6.700  10.417
45814SOL    HW239276   4.032   6.575  10.405
45815SOL     OW39277  11.605  11.808   1.039
45815SOL    HW139278  11.554  11.889   1.035
45815SOL    HW239279  11.686  11.833   1.084
45816SOL     OW39280   6.099  13.707   2.042
45816SOL    HW139281   6.045  13.784   2.057
45816SOL    HW239282   6.188  13.736   2.062
45817SOL     OW39283  13.247   8.325  13.185
45817SOL    HW139284  13.190   8.249  13.172
45817SOL    HW239285  13.308   8.297  13.253
45818SOL     OW39286   5.567  11.304  12.831
45818SOL    HW139287   5.529  11.392  12.833
45818SOL    HW239288   5.638  11.306  12.895
45819SOL     OW39289   0.238   9.446  13.198
45819SOL    HW139290   0.237   9.357  13.233
45819SOL    HW239291   0.249   9.503  13.274
45820SOL     OW39292  13.629  11.085   5.860
45820SOL    HW139293  13.538  11.056   5.851
45820SOL    HW239294  13.643  11.143   5.785
45821SOL     OW39295   4.340   8.154  13.067
45821SOL    HW139296   4.299   8.073  13.097
45821SOL    HW239297   4.423   8.127  13.030
45822SOL     OW39298   7.541   2.856   2.426
45822SOL    HW139299   7.578   2.820   2.507
45822SOL    HW239300   7.546   2.784   2.363
45823SOL     OW39301  11.156   1.996   3.095
45823SOL    HW139302  11.251   1.987   3.093
45823SOL    HW239303  11.130   1.960   3.180
45824SOL     OW39304   8.260   0.782  10.917
45824SOL    HW139305   8.324   0.803  10.984
45824SOL    HW239306   8.268   0.854  10.853
45825SOL     OW39307   6.576   4.030   5.222
45825SOL    HW139308   6.651   4.088   5.212
45825SOL    HW239309   6.509   4.068   5.165
45826SOL     OW39310   0.166   2.972  14.294
45826SOL    HW139311   0.222   2.911  14.247
45826SOL    HW239312   0.077   2.949  14.267
45827SOL     OW39313   1.911   7.107   5.312
45827SOL    HW139314   1.890   7.171   5.380
45827SOL    HW239315   2.007   7.109   5.307
45828SOL     OW39316  13.031   3.575   8.753
45828SOL    HW139317  12.980   3.602   8.828
45828SOL    HW239318  13.122   3.582   8.782
45829SOL     OW39319   1.231  13.718  14.314
45829SOL    HW139320   1.323  13.717  14.288
45829SOL    HW239321   1.194  13.792  14.266
45830SOL     OW39322   3.238   3.928   8.191
45830SOL    HW139323   3.217   3.981   8.114
45830SOL    HW239324   3.251   3.840   8.157
45831SOL     OW39325   4.596   6.265   3.500
45831SOL    HW139326   4.568   6.321   3.427
45831SOL    HW239327   4.654   6.200   3.460
45832SOL     OW39328  10.759   3.737  10.532
45832SOL    HW139329  10.790   3.779  10.612
45832SOL    HW239330  10.696   3.798  10.495
45833SOL     OW39331   2.266   3.529   6.681
45833SOL    HW139332   2.272   3.530   6.585
45833SOL    HW239333   2.276   3.437   6.705
45834SOL     OW39334   5.392   3.377  10.957
45834SOL    HW139335   5.383   3.425  10.874
45834SOL    HW239336   5.453   3.430  11.009
45835SOL     OW39337   1.172   3.754   8.988
45835SOL    HW139338   1.130   3.823   9.039
45835SOL    HW239339   1.260   3.788   8.969
45836SOL     OW39340   5.076   4.304  12.796
45836SOL    HW139341   5.096   4.396  12.814
45836SOL    HW239342   5.117   4.286  12.712
45837SOL     OW39343   8.137  12.169   9.257
45837SOL    HW139344   8.169  12.230   9.323
45837SOL    HW239345   8.187  12.192   9.178
45838SOL     OW39346  13.040  10.464   0.810
45838SOL    HW139347  12.966  10.409   0.786
45838SOL    HW239348  13.042  10.463   0.906
45839SOL     OW39349   3.326  10.219  13.862
45839SOL    HW139350   3.370  10.158  13.921
45839SOL    HW239351   3.340  10.305  13.901
45840SOL     OW39352   9.980  10.448  13.590
45840SOL    HW139353   9.925  10.505  13.535
45840SOL    HW239354  10.034  10.508  13.641
45841SOL     OW39355  10.271   4.562   4.365
45841SOL    HW139356  10.177   4.573   4.356
45841SOL    HW239357  10.307   4.650   4.352
45842SOL     OW39358  10.536   7.468   6.949
45842SOL    HW139359  10.468   7.414   6.990
45842SOL    HW239360  10.540   7.437   6.859
45843SOL     OW39361  11.358   3.791   4.105
45843SOL    HW139362  11.345   3.883   4.082
45843SOL    HW239363  11.336   3.743   4.025
45844SOL     OW39364   0.705  11.577  13.391
45844SOL    HW139365   0.787  11.614  13.424
45844SOL    HW239366   0.702  11.489  13.428
45845SOL     OW39367   6.452   8.483   3.398
45845SOL    HW139368   6.478   8.442   3.315
45845SOL    HW239369   6.508   8.442   3.464
45846SOL     OW39370   0.906   3.964   6.931
45846SOL    HW139371   0.841   3.997   6.992
45846SOL    HW239372   0.858   3.904   6.874
45847SOL     OW39373   1.880   8.469   5.036
45847SOL    HW139374   1.901   8.553   4.995
45847SOL    HW239375   1.855   8.413   4.963
45848SOL     OW39376   3.777   1.379   4.121
45848SOL    HW139377   3.773   1.399   4.028
45848SOL    HW239378   3.731   1.296   4.130
45849SOL     OW39379   4.459   4.635   7.278
45849SOL    HW139380   4.384   4.691   7.299
45849SOL    HW239381   4.531   4.696   7.264
45850SOL     OW39382  10.080  14.449  14.768
45850SOL    HW139383  10.158  14.487  14.728
45850SOL    HW239384  10.023  14.427  14.694
45851SOL     OW39385   0.126   5.090   8.096
45851SOL    HW139386   0.040   5.079   8.137
45851SOL    HW239387   0.145   5.004   8.058
45852SOL     OW39388   4.061   4.837   3.644
45852SOL    HW139389   4.104   4.918   3.616
45852SOL    HW239390   3.968   4.854   3.629
45853SOL     OW39391   5.238   2.434  12.767
45853SOL    HW139392   5.191   2.353  12.749
45853SOL    HW239393   5.294   2.447  12.691
45854SOL     OW39394   5.262   4.318  11.304
45854SOL    HW139395   5.167   4.314  11.295
45854SOL    HW239396   5.295   4.244  11.254
45855SOL     OW39397   7.721   9.367  12.676
45855SOL    HW139398   7.655   9.388  12.609
45855SOL    HW239399   7.743   9.275  12.659
45856SOL     OW39400   5.464   7.117   3.400
45856SOL    HW139401   5.413   7.182   3.449
45856SOL    HW239402   5.516   7.072   3.467
45857SOL     OW39403   2.041   9.316   1.647
45857SOL    HW139404   2.124   9.268   1.656
45857SOL    HW239405   1.973   9.250   1.656
45858SOL     OW39406   4.908   8.981   9.334
45858SOL    HW139407   4.938   8.939   9.415
45858SOL    HW239408   4.943   9.070   9.339
45859SOL     OW39409   4.997   9.116  11.908
45859SOL    HW139410   4.915   9.163  11.896
45859SOL    HW239411   5.046   9.131  11.827
45860SOL     OW39412  10.061   9.536   4.894
45860SOL    HW139413  10.073   9.593   4.971
45860SOL    HW239414  10.076   9.594   4.819
45861SOL     OW39415  14.381  13.637   7.088
45861SOL    HW139416  14.329  13.641   7.168
45861SOL    HW239417  14.359  13.551   7.050
45862SOL     OW39418  12.983  10.980   0.987
45862SOL    HW139419  12.962  10.890   0.960
45862SOL    HW239420  12.991  11.028   0.905
45863SOL     OW39421  11.060   4.263   1.035
45863SOL    HW139422  11.038   4.209   1.111
45863SOL    HW239423  11.155   4.261   1.030
45864SOL     OW39424  11.981   4.514   0.788
45864SOL    HW139425  11.951   4.426   0.766
45864SOL    HW239426  11.976   4.518   0.884
45865SOL     OW39427   2.479  14.649   1.790
45865SOL    HW139428   2.541  14.717   1.762
45865SOL    HW239429   2.530  14.592   1.848
45866SOL     OW39430   2.676   1.332  14.749
45866SOL    HW139431   2.750   1.362  14.802
45866SOL    HW239432   2.636   1.412  14.715
45867SOL     OW39433   2.826   2.688   3.621
45867SOL    HW139434   2.738   2.691   3.657
45867SOL    HW239435   2.879   2.738   3.683
45868SOL     OW39436   8.780   3.602   6.021
45868SOL    HW139437   8.747   3.664   6.086
45868SOL    HW239438   8.746   3.635   5.938
45869SOL     OW39439   7.917   9.645   9.752
45869SOL    HW139440   7.839   9.606   9.791
45869SOL    HW239441   7.897   9.738   9.743
45870SOL     OW39442   8.171   3.129   0.613
45870SOL    HW139443   8.175   3.106   0.520
45870SOL    HW239444   8.130   3.054   0.655
45871SOL     OW39445   3.405   4.401   3.945
45871SOL    HW139446   3.473   4.431   3.886
45871SOL    HW239447   3.326   4.396   3.891
45872SOL     OW39448   9.339  12.309   5.991
45872SOL    HW139449   9.398  12.237   6.011
45872SOL    HW239450   9.252  12.270   5.993
45873SOL     OW39451   2.208   2.324   3.341
45873SOL    HW139452   2.300   2.327   3.365
45873SOL    HW239453   2.161   2.346   3.421
45874SOL     OW39454   3.268   0.291  14.606
45874SOL    HW139455   3.197   0.314  14.545
45874SOL    HW239456   3.251   0.345  14.683
45875SOL     OW39457  12.491  11.706   2.322
45875SOL    HW139458  12.419  11.646   2.343
45875SOL    HW239459  12.453  11.767   2.259
45876SOL     OW39460  13.606   4.635   0.711
45876SOL    HW139461  13.546   4.589   0.652
45876SOL    HW239462  13.637   4.710   0.660
45877SOL     OW39463   5.306  11.221  11.772
45877SOL    HW139464   5.263  11.156  11.827
45877SOL    HW239465   5.371  11.262  11.830
45878SOL     OW39466   7.177   1.798   0.812
45878SOL    HW139467   7.157   1.705   0.802
45878SOL    HW239468   7.247   1.815   0.749
45879SOL     OW39469   1.293   4.197   0.499
45879SOL    HW139470   1.219   4.141   0.474
45879SOL    HW239471   1.370   4.146   0.477
45880SOL     OW39472  13.580   5.280   4.269
45880SOL    HW139473  13.580   5.206   4.331
45880SOL    HW239474  13.488   5.305   4.263
45881SOL     OW39475  12.058   8.438  11.066
45881SOL    HW139476  12.130   8.468  11.011
45881SOL    HW239477  12.092   8.360  11.110
45882SOL     OW39478  14.740   0.989  10.398
45882SOL    HW139479  14.801   1.030  10.337
45882SOL    HW239480  14.711   0.909  10.353
45883SOL     OW39481  12.147   6.877   8.796
45883SOL    HW139482  12.190   6.797   8.765
45883SOL    HW239483  12.057   6.850   8.812
45884SOL     OW39484   7.728   9.077  10.913
45884SOL    HW139485   7.725   9.172  10.913
45884SOL    HW239486   7.799   9.055  10.974
45885SOL     OW39487  13.787   8.826   7.815
45885SOL    HW139488  13.812   8.734   7.803
45885SOL    HW239489  13.691   8.825   7.807
45886SOL     OW39490   6.934   1.629   7.640
45886SOL    HW139491   7.028   1.615   7.634
45886SOL    HW239492   6.896   1.541   7.641
45887SOL     OW39493  10.114   5.465   1.496
45887SOL    HW139494  10.105   5.379   1.536
45887SOL    HW239495  10.087   5.453   1.405
45888SOL     OW39496  11.896  12.353   4.726
45888SOL    HW139497  11.921  12.286   4.789
45888SOL    HW239498  11.817  12.393   4.764
45889SOL     OW39499   6.344  13.276   2.035
45889SOL    HW139500   6.438  13.284   2.022
45889SOL    HW239501   6.327  13.182   2.026
45890SOL     OW39502  13.577   4.068   4.427
45890SOL    HW139503  13.574   4.162   4.443
45890SOL    HW239504  13.518   4.031   4.492
45891SOL     OW39505  14.158   3.427  11.364
45891SOL    HW139506  14.164   3.476  11.446
45891SOL    HW239507  14.207   3.480  11.301
45892SOL     OW39508   6.467   4.884   4.615
45892SOL    HW139509   6.385   4.910   4.573
45892SOL    HW239510   6.534   4.897   4.548
45893SOL     OW39511   7.827   0.995   5.259
45893SOL    HW139512   7.900   0.934   5.269
45893SOL    HW239513   7.768   0.973   5.331
45894SOL     OW39514   8.152   7.087  10.652
45894SOL    HW139515   8.093   7.037  10.595
45894SOL    HW239516   8.106   7.170  10.668
45895SOL     OW39517   2.191   1.711   0.237
45895SOL    HW139518   2.106   1.668   0.233
45895SOL    HW239519   2.178   1.785   0.297
45896SOL     OW39520  12.596   7.525   0.954
45896SOL    HW139521  12.623   7.608   0.991
45896SOL    HW239522  12.515   7.545   0.906
45897SOL     OW39523   2.026  12.968   1.493
45897SOL    HW139524   2.010  13.062   1.500
45897SOL    HW239525   2.118  12.961   1.469
45898SOL     OW39526   6.779   1.610  11.652
45898SOL    HW139527   6.687   1.592  11.631
45898SOL    HW239528   6.810   1.663  11.579
45899SOL     OW39529  10.459   2.684  10.034
45899SOL    HW139530  10.503   2.724  10.109
45899SOL    HW239531  10.529   2.660   9.975
45900SOL     OW39532  14.784   7.738  13.560
45900SOL    HW139533  14.750   7.790  13.632
45900SOL    HW239534  14.756   7.783  13.481
45901SOL     OW39535  10.098  14.271  11.579
45901SOL    HW139536  10.138  14.226  11.504
45901SOL    HW239537  10.067  14.201  11.635
45902SOL     OW39538  10.274  12.775   1.133
45902SOL    HW139539  10.181  12.795   1.126
45902SOL    HW239540  10.287  12.700   1.074
45903SOL     OW39541  10.381   7.933  13.953
45903SOL    HW139542  10.382   7.995  14.027
45903SOL    HW239543  10.420   7.982  13.881
45904SOL     OW39544   6.156  12.598   9.000
45904SOL    HW139545   6.110  12.554   9.072
45904SOL    HW239546   6.107  12.575   8.922
45905SOL     OW39547   3.164   0.186   4.163
45905SOL    HW139548   3.076   0.193   4.124
45905SOL    HW239549   3.168   0.096   4.197
45906SOL     OW39550  14.036   3.540   8.009
45906SOL    HW139551  13.962   3.573   8.060
45906SOL    HW239552  14.104   3.606   8.022
45907SOL     OW39553  11.970   5.449   4.562
45907SOL    HW139554  11.917   5.444   4.482
45907SOL    HW239555  11.918   5.403   4.628
45908SOL     OW39556   8.300   0.181  11.561
45908SOL    HW139557   8.278   0.236  11.485
45908SOL    HW239558   8.394   0.165  11.552
45909SOL     OW39559   1.087  10.997  14.293
45909SOL    HW139560   1.011  11.028  14.343
45909SOL    HW239561   1.128  11.078  14.261
45910SOL     OW39562  11.460  10.237  11.586
45910SOL    HW139563  11.426  10.149  11.602
45910SOL    HW239564  11.555  10.229  11.595
45911SOL     OW39565   3.825  12.256   8.434
45911SOL    HW139566   3.833  12.183   8.373
45911SOL    HW239567   3.833  12.216   8.520
45912SOL     OW39568   3.501   2.593  14.191
45912SOL    HW139569   3.447   2.588  14.270
45912SOL    HW239570   3.589   2.569  14.221
45913SOL     OW39571   3.699  10.659   0.194
45913SOL    HW139572   3.607  10.687   0.191
45913SOL    HW239573   3.732  10.693   0.277
45914SOL     OW39574   9.837   7.735   9.086
45914SOL    HW139575   9.748   7.700   9.087
45914SOL    HW239576   9.884   7.678   9.025
45915SOL     OW39577   7.246  10.357   5.190
45915SOL    HW139578   7.222  10.445   5.220
45915SOL    HW239579   7.302  10.372   5.114
45916SOL     OW39580  14.499   9.744   0.071
45916SOL    HW139581  14.539   9.814   0.121
45916SOL    HW239582  14.570   9.709   0.017
45917SOL     OW39583   3.551  13.891  12.090
45917SOL    HW139584   3.486  13.821  12.095
45917SOL    HW239585   3.629  13.856  12.133
45918SOL     OW39586   1.678   6.275   9.599
45918SOL    HW139587   1.676   6.359   9.553
45918SOL    HW239588   1.650   6.211   9.534
45919SOL     OW39589   3.753   5.987  12.778
45919SOL    HW139590   3.694   6.058  12.802
45919SOL    HW239591   3.708   5.907  12.805
45920SOL     OW39592  13.039   6.923   4.975
45920SOL    HW139593  13.128   6.922   5.012
45920SOL    HW239594  12.984   6.951   5.048
45921SOL     OW39595   7.894  13.209   8.429
45921SOL    HW139596   7.867  13.217   8.338
45921SOL    HW239597   7.932  13.122   8.436
45922SOL     OW39598   7.357  13.077  11.378
45922SOL    HW139599   7.404  13.142  11.326
45922SOL    HW239600   7.348  13.002  11.320
45923SOL     OW39601  13.724  10.742   8.018
45923SOL    HW139602  13.704  10.833   8.040
45923SOL    HW239603  13.685  10.728   7.932
45924SOL     OW39604   7.082   1.059   6.130
45924SOL    HW139605   7.160   1.073   6.076
45924SOL    HW239606   7.098   1.114   6.208
45925SOL     OW39607   9.312   3.480   7.090
45925SOL    HW139608   9.250   3.545   7.122
45925SOL    HW239609   9.375   3.470   7.162
45926SOL     OW39610   4.522  11.677   4.386
45926SOL    HW139611   4.564  11.591   4.388
45926SOL    HW239612   4.431  11.660   4.409
45927SOL     OW39613  11.046  13.783   3.078
45927SOL    HW139614  11.020  13.701   3.036
45927SOL    HW239615  11.138  13.771   3.100
45928SOL     OW39616  14.352   9.084   0.413
45928SOL    HW139617  14.285   9.084   0.344
45928SOL    HW239618  14.302   9.094   0.494
45929SOL     OW39619   2.481   0.068   5.099
45929SOL    HW139620   2.428   0.105   5.028
45929SOL    HW239621   2.418   0.048   5.168
45930SOL     OW39622   4.310   8.340  11.850
45930SOL    HW139623   4.403   8.322  11.831
45930SOL    HW239624   4.274   8.370  11.766
45931SOL     OW39625   8.615   2.638   1.748
45931SOL    HW139626   8.580   2.724   1.727
45931SOL    HW239627   8.668   2.614   1.672
45932SOL     OW39628   6.145   3.326  11.558
45932SOL    HW139629   6.056   3.349  11.534
45932SOL    HW239630   6.198   3.401  11.532
45933SOL     OW39631   9.046   5.049   8.683
45933SOL    HW139632   9.130   5.093   8.695
45933SOL    HW239633   8.993   5.112   8.634
45934SOL     OW39634   0.711   5.405   2.424
45934SOL    HW139635   0.718   5.371   2.335
45934SOL    HW239636   0.753   5.491   2.420
45935SOL     OW39637   4.767  13.210   1.176
45935SOL    HW139638   4.817  13.136   1.211
45935SOL    HW239639   4.694  13.219   1.237
45936SOL     OW39640   6.259   6.055   5.830
45936SOL    HW139641   6.342   6.103   5.829
45936SOL    HW239642   6.265   5.998   5.906
45937SOL     OW39643   1.805   8.163  13.858
45937SOL    HW139644   1.896   8.193  13.855
45937SOL    HW239645   1.804   8.082  13.806
45938SOL     OW39646  10.043  11.841   0.572
45938SOL    HW139647  10.072  11.842   0.664
45938SOL    HW239648   9.951  11.865   0.575
45939SOL     OW39649  13.476  12.774  14.232
45939SOL    HW139650  13.438  12.785  14.145
45939SOL    HW239651  13.497  12.863  14.261
45940SOL     OW39652   6.916   5.860   0.581
45940SOL    HW139653   6.885   5.936   0.533
45940SOL    HW239654   6.914   5.886   0.673
45941SOL     OW39655  11.988   9.117   9.577
45941SOL    HW139656  11.938   9.084   9.652
45941SOL    HW239657  12.034   9.193   9.611
45942SOL     OW39658   4.395   0.096   3.591
45942SOL    HW139659   4.386   0.183   3.630
45942SOL    HW239660   4.425   0.040   3.662
45943SOL     OW39661   1.733   1.647  12.180
45943SOL    HW139662   1.773   1.597  12.110
45943SOL    HW239663   1.750   1.739  12.157
45944SOL     OW39664  10.265   6.070   2.166
45944SOL    HW139665  10.318   6.097   2.241
45944SOL    HW239666  10.273   6.142   2.103
45945SOL     OW39667  14.146   1.528   2.258
45945SOL    HW139668  14.175   1.461   2.195
45945SOL    HW239669  14.207   1.520   2.331
45946SOL     OW39670  10.154   4.012  12.749
45946SOL    HW139671  10.151   3.997  12.843
45946SOL    HW239672  10.216   4.084  12.737
45947SOL     OW39673  14.799   5.384  10.101
45947SOL    HW139674  14.858   5.460  10.098
45947SOL    HW239675  14.832   5.326  10.032
45948SOL     OW39676   8.123   7.035   6.751
45948SOL    HW139677   8.052   7.024   6.688
45948SOL    HW239678   8.081   7.065   6.831
45949SOL     OW39679   2.206   9.054  12.092
45949SOL    HW139680   2.214   8.959  12.105
45949SOL    HW239681   2.289   9.090  12.123
45950SOL     OW39682  11.969   9.687  11.034
45950SOL    HW139683  12.062   9.692  11.013
45950SOL    HW239684  11.935   9.619  10.976
45951SOL     OW39685   6.244  10.401   7.943
45951SOL    HW139686   6.302  10.473   7.965
45951SOL    HW239687   6.302  10.329   7.918
45952SOL     OW39688   0.811   0.332   9.772
45952SOL    HW139689   0.873   0.280   9.720
45952SOL    HW239690   0.738   0.273   9.789
45953SOL     OW39691   4.051   8.876  10.129
45953SOL    HW139692   3.991   8.941  10.094
45953SOL    HW239693   4.027   8.869  10.222
45954SOL     OW39694   6.379   9.143   7.067
45954SOL    HW139695   6.402   9.051   7.084
45954SOL    HW239696   6.377   9.150   6.972
45955SOL     OW39697   2.473   7.856   1.398
45955SOL    HW139698   2.430   7.929   1.353
45955SOL    HW239699   2.565   7.866   1.377
45956SOL     OW39700   1.374  11.155  11.994
45956SOL    HW139701   1.384  11.224  11.929
45956SOL    HW239702   1.365  11.074  11.943
45957SOL     OW39703  10.286   6.594   9.709
45957SOL    HW139704  10.330   6.668   9.666
45957SOL    HW239705  10.290   6.523   9.644
45958SOL     OW39706  12.608  12.878   3.219
45958SOL    HW139707  12.537  12.926   3.263
45958SOL    HW239708  12.622  12.927   3.138
45959SOL     OW39709   8.037   8.429  10.040
45959SOL    HW139710   7.958   8.376  10.030
45959SOL    HW239711   8.089   8.383  10.106
45960SOL     OW39712  11.495   8.246   7.465
45960SOL    HW139713  11.525   8.255   7.555
45960SOL    HW239714  11.400   8.238   7.471
45961SOL     OW39715  11.983   0.301  13.247
45961SOL    HW139716  11.929   0.222  13.244
45961SOL    HW239717  12.013   0.305  13.338
45962SOL     OW39718   6.857   1.265  13.969
45962SOL    HW139719   6.894   1.353  13.957
45962SOL    HW239720   6.867   1.223  13.883
45963SOL     OW39721   0.377   6.249   4.970
45963SOL    HW139722   0.313   6.202   4.917
45963SOL    HW239723   0.327   6.318   5.012
45964SOL     OW39724   6.969  11.847   0.586
45964SOL    HW139725   6.940  11.859   0.496
45964SOL    HW239726   6.942  11.758   0.609
45965SOL     OW39727   8.980  13.653  11.572
45965SOL    HW139728   9.026  13.601  11.639
45965SOL    HW239729   8.921  13.709  11.621
45966SOL     OW39730   3.177  12.748   8.004
45966SOL    HW139731   3.164  12.681   8.071
45966SOL    HW239732   3.253  12.798   8.035
45967SOL     OW39733   2.107   8.327   6.001
45967SOL    HW139734   2.154   8.360   6.078
45967SOL    HW239735   2.015   8.339   6.021
45968SOL     OW39736   7.885   7.282  14.842
45968SOL    HW139737   7.856   7.195  14.814
45968SOL    HW239738   7.944   7.265   0.037
45969SOL     OW39739   8.492  13.002   7.288
45969SOL    HW139740   8.497  13.030   7.380
45969SOL    HW239741   8.401  12.972   7.278
45970SOL     OW39742   1.650   3.881   8.084
45970SOL    HW139743   1.641   3.974   8.104
45970SOL    HW239744   1.744   3.866   8.082
45971SOL     OW39745   9.063  10.731   6.989
45971SOL    HW139746   9.116  10.776   7.056
45971SOL    HW239747   9.005  10.673   7.040
45972SOL     OW39748   1.079   0.825   6.732
45972SOL    HW139749   1.111   0.868   6.811
45972SOL    HW239750   1.086   0.891   6.664
45973SOL     OW39751   7.741   2.468  13.740
45973SOL    HW139752   7.770   2.558  13.732
45973SOL    HW239753   7.799   2.431  13.808
45974SOL     OW39754  11.249   1.860   4.555
45974SOL    HW139755  11.161   1.825   4.549
45974SOL    HW239756  11.281   1.860   4.464
45975SOL     OW39757  13.858   4.629  13.066
45975SOL    HW139758  13.869   4.629  13.161
45975SOL    HW239759  13.809   4.549  13.047
45976SOL     OW39760   4.747   0.427   6.556
45976SOL    HW139761   4.833   0.385   6.558
45976SOL    HW239762   4.758   0.502   6.498
45977SOL     OW39763   6.056   0.135   3.291
45977SOL    HW139764   6.050   0.110   3.383
45977SOL    HW239765   5.974   0.180   3.273
45978SOL     OW39766   1.945   4.119   8.741
45978SOL    HW139767   1.978   4.142   8.828
45978SOL    HW239768   1.975   4.190   8.684
45979SOL     OW39769   6.591   9.641   9.923
45979SOL    HW139770   6.576   9.598  10.007
45979SOL    HW239771   6.685   9.630   9.906
45980SOL     OW39772  10.038   3.249   2.335
45980SOL    HW139773  10.080   3.307   2.272
45980SOL    HW239774   9.950   3.285   2.347
45981SOL     OW39775   5.714   2.230   6.381
45981SOL    HW139776   5.663   2.246   6.302
45981SOL    HW239777   5.804   2.250   6.356
45982SOL     OW39778  13.305  13.157   9.667
45982SOL    HW139779  13.259  13.085   9.710
45982SOL    HW239780  13.281  13.150   9.575
45983SOL     OW39781  12.816   1.512  13.845
45983SOL    HW139782  12.800   1.604  13.865
45983SOL    HW239783  12.763   1.495  13.766
45984SOL     OW39784   2.106   7.029   6.624
45984SOL    HW139785   2.061   7.033   6.709
45984SOL    HW239786   2.038   7.001   6.563
45985SOL     OW39787   3.896   1.579   2.911
45985SOL    HW139788   3.942   1.526   2.845
45985SOL    HW239789   3.964   1.606   2.972
45986SOL     OW39790   7.167  11.360   6.835
45986SOL    HW139791   7.125  11.280   6.866
45986SOL    HW239792   7.246  11.369   6.888
45987SOL     OW39793  10.812   5.616  10.285
45987SOL    HW139794  10.809   5.522  10.302
45987SOL    HW239795  10.723   5.646  10.301
45988SOL     OW39796   7.416  10.470   7.936
45988SOL    HW139797   7.460  10.444   7.855
45988SOL    HW239798   7.459  10.418   8.004
45989SOL     OW39799   4.538  11.288   3.318
45989SOL    HW139800   4.465  11.292   3.380
45989SOL    HW239801   4.610  11.334   3.362
45990SOL     OW39802   9.884   3.629   1.682
45990SOL    HW139803   9.890   3.560   1.617
45990SOL    HW239804   9.938   3.599   1.755
45991SOL     OW39805   8.210   8.584   1.240
45991SOL    HW139806   8.288   8.592   1.185
45991SOL    HW239807   8.242   8.599   1.329
45992SOL     OW39808   9.952   9.919   8.323
45992SOL    HW139809  10.007   9.994   8.346
45992SOL    HW239810  10.005   9.868   8.262
45993SOL     OW39811   2.679   9.459   1.529
45993SOL    HW139812   2.723   9.543   1.512
45993SOL    HW239813   2.587   9.483   1.541
45994SOL     OW39814  11.316   3.131  11.970
45994SOL    HW139815  11.324   3.225  11.982
45994SOL    HW239816  11.225   3.118  11.943
45995SOL     OW39817  13.927  12.684  12.835
45995SOL    HW139818  13.860  12.666  12.769
45995SOL    HW239819  13.939  12.601  12.881
45996SOL     OW39820   8.349   4.258   1.539
45996SOL    HW139821   8.427   4.203   1.548
45996SOL    HW239822   8.345   4.279   1.445
45997SOL     OW39823   9.497   4.989  12.406
45997SOL    HW139824   9.407   5.023  12.410
45997SOL    HW239825   9.506   4.955  12.317
45998SOL     OW39826   3.762  14.094   2.168
45998SOL    HW139827   3.755  14.171   2.225
45998SOL    HW239828   3.716  14.119   2.088
45999SOL     OW39829   4.598   2.148   0.010
45999SOL    HW139830   4.586   2.243   0.013
45999SOL    HW239831   4.689   2.135   0.037
46000SOL     OW39832  14.063  12.280   6.593
46000SOL    HW139833  14.014  12.221   6.536
46000SOL    HW239834  14.023  12.269   6.679
46001SOL     OW39835   5.234  13.304  12.832
46001SOL    HW139836   5.154  13.309  12.779
46001SOL    HW239837   5.204  13.270  12.917
46002SOL     OW39838   0.452  10.462   3.404
46002SOL    HW139839   0.466  10.532   3.467
46002SOL    HW239840   0.382  10.409   3.442
46003SOL     OW39841  10.740  11.644   1.181
46003SOL    HW139842  10.769  11.555   1.198
46003SOL    HW239843  10.676  11.662   1.249
46004SOL     OW39844   5.111   7.900   0.484
46004SOL    HW139845   5.082   7.897   0.394
46004SOL    HW239846   5.188   7.957   0.483
46005SOL     OW39847   4.400   6.127   4.294
46005SOL    HW139848   4.373   6.062   4.229
46005SOL    HW239849   4.477   6.089   4.336
46006SOL     OW39850   6.646   0.763   8.533
46006SOL    HW139851   6.696   0.802   8.461
46006SOL    HW239852   6.619   0.678   8.499
46007SOL     OW39853   3.103  12.432   5.291
46007SOL    HW139854   3.167  12.390   5.233
46007SOL    HW239855   3.075  12.362   5.350
46008SOL     OW39856   8.551  14.190   1.121
46008SOL    HW139857   8.645  14.195   1.105
46008SOL    HW239858   8.541  14.224   1.210
46009SOL     OW39859   4.019   4.351  10.696
46009SOL    HW139860   4.083   4.383  10.760
46009SOL    HW239861   3.966   4.287  10.745
46010SOL     OW39862   5.278   7.704   7.031
46010SOL    HW139863   5.210   7.643   7.004
46010SOL    HW239864   5.231   7.786   7.047
46011SOL     OW39865  14.144  11.748  10.780
46011SOL    HW139866  14.187  11.833  10.771
46011SOL    HW239867  14.098  11.754  10.864
46012SOL     OW39868   0.183  12.914   4.484
46012SOL    HW139869   0.207  12.941   4.572
46012SOL    HW239870   0.235  12.970   4.426
46013SOL     OW39871   3.969   2.116  11.101
46013SOL    HW139872   4.047   2.157  11.064
46013SOL    HW239873   3.970   2.140  11.193
46014SOL     OW39874   5.028  13.373   1.472
46014SOL    HW139875   5.019  13.309   1.543
46014SOL    HW239876   4.941  13.413   1.464
46015SOL     OW39877   1.598  12.740  13.341
46015SOL    HW139878   1.673  12.788  13.375
46015SOL    HW239879   1.530  12.750  13.408
46016SOL     OW39880   6.795  14.637   1.770
46016SOL    HW139881   6.799  14.621   1.864
46016SOL    HW239882   6.720  14.585   1.740
46017SOL     OW39883   1.734  14.868  10.595
46017SOL    HW139884   1.799  14.845  10.528
46017SOL    HW239885   1.778  14.848  10.678
46018SOL     OW39886   9.593   4.231   0.627
46018SOL    HW139887   9.549   4.157   0.584
46018SOL    HW239888   9.523   4.285   0.660
46019SOL     OW39889   1.374   1.691   7.194
46019SOL    HW139890   1.369   1.683   7.289
46019SOL    HW239891   1.332   1.612   7.160
46020SOL     OW39892   7.515  12.233  10.881
46020SOL    HW139893   7.465  12.313  10.899
46020SOL    HW239894   7.551  12.208  10.966
46021SOL     OW39895  14.322  14.077   2.663
46021SOL    HW139896  14.398  14.114   2.709
46021SOL    HW239897  14.351  14.068   2.573
46022SOL     OW39898   1.584   7.142  13.743
46022SOL    HW139899   1.602   7.140  13.837
46022SOL    HW239900   1.658   7.188  13.704
46023SOL     OW39901   5.968  11.175   0.367
46023SOL    HW139902   5.894  11.185   0.307
46023SOL    HW239903   5.934  11.121   0.438
46024SOL     OW39904  11.665  12.527   4.769
46024SOL    HW139905  11.711  12.606   4.740
46024SOL    HW239906  11.574  12.541   4.743
46025SOL     OW39907   8.121  10.610  13.832
46025SOL    HW139908   8.125  10.699  13.797
46025SOL    HW239909   8.047  10.612  13.892
46026SOL     OW39910  12.090   2.355   3.618
46026SOL    HW139911  12.114   2.368   3.526
46026SOL    HW239912  12.080   2.443   3.653
46027SOL     OW39913   7.966   0.181   6.126
46027SOL    HW139914   7.887   0.130   6.146
46027SOL    HW239915   8.021   0.121   6.075
46028SOL     OW39916  13.749   1.601   4.608
46028SOL    HW139917  13.728   1.511   4.636
46028SOL    HW239918  13.759   1.595   4.513
46029SOL     OW39919  13.494   4.997   5.817
46029SOL    HW139920  13.455   5.023   5.901
46029SOL    HW239921  13.470   5.067   5.757
46030SOL     OW39922   3.502   1.833   2.242
46030SOL    HW139923   3.422   1.842   2.292
46030SOL    HW239924   3.517   1.739   2.237
46031SOL     OW39925   8.801   8.426  14.147
46031SOL    HW139926   8.790   8.446  14.054
46031SOL    HW239927   8.862   8.493  14.178
46032SOL     OW39928   2.942   3.981   3.476
46032SOL    HW139929   2.917   3.890   3.494
46032SOL    HW239930   2.973   3.980   3.386
46033SOL     OW39931  13.126   1.624   9.872
46033SOL    HW139932  13.147   1.600   9.962
46033SOL    HW239933  13.076   1.550   9.838
46034SOL     OW39934  12.276  11.242   9.153
46034SOL    HW139935  12.340  11.181   9.117
46034SOL    HW239936  12.191  11.204   9.130
46035SOL     OW39937   0.820   5.458   6.742
46035SOL    HW139938   0.855   5.521   6.805
46035SOL    HW239939   0.751   5.412   6.790
46036SOL     OW39940  14.151  11.608   7.992
46036SOL    HW139941  14.227  11.584   8.044
46036SOL    HW239942  14.108  11.677   8.042
46037SOL     OW39943   3.797   5.801   3.553
46037SOL    HW139944   3.863   5.862   3.584
46037SOL    HW239945   3.787   5.738   3.625
46038SOL     OW39946   5.818  11.801  14.838
46038SOL    HW139947   5.799  11.711  14.865
46038SOL    HW239948   5.745  11.852  14.873
46039SOL     OW39949   4.920   4.832  12.166
46039SOL    HW139950   5.002   4.845  12.118
46039SOL    HW239951   4.877   4.918  12.164
46040SOL     OW39952   5.594  12.918  11.200
46040SOL    HW139953   5.593  12.941  11.293
46040SOL    HW239954   5.521  12.967  11.162
46041SOL     OW39955   5.760   5.485   8.227
46041SOL    HW139956   5.787   5.561   8.176
46041SOL    HW239957   5.832   5.422   8.216
46042SOL     OW39958   3.748   6.763  10.380
46042SOL    HW139959   3.736   6.804  10.465
46042SOL    HW239960   3.831   6.715  10.388
46043SOL     OW39961   4.345   7.327  12.622
46043SOL    HW139962   4.418   7.371  12.578
46043SOL    HW239963   4.273   7.390  12.619
46044SOL     OW39964   6.804  13.870   5.994
46044SOL    HW139965   6.868  13.813   5.950
46044SOL    HW239966   6.801  13.948   5.939
46045SOL     OW39967   3.046   2.311   5.760
46045SOL    HW139968   3.063   2.282   5.670
46045SOL    HW239969   3.107   2.383   5.774
46046SOL     OW39970   8.858   6.311  13.274
46046SOL    HW139971   8.791   6.254  13.236
46046SOL    HW239972   8.931   6.307  13.213
46047SOL     OW39973   5.023  10.913  10.659
46047SOL    HW139974   4.958  10.860  10.614
46047SOL    HW239975   5.028  10.877  10.747
46048SOL     OW39976  12.210   4.043   1.255
46048SOL    HW139977  12.177   3.957   1.228
46048SOL    HW239978  12.291   4.024   1.302
46049SOL     OW39979   1.223   6.902  12.924
46049SOL    HW139980   1.147   6.912  12.981
46049SOL    HW239981   1.228   6.807  12.908
46050SOL     OW39982   4.064   2.150  14.681
46050SOL    HW139983   3.990   2.094  14.706
46050SOL    HW239984   4.081   2.203  14.759
46051SOL     OW39985  13.202   8.722   2.185
46051SOL    HW139986  13.265   8.699   2.253
46051SOL    HW239987  13.127   8.757   2.233
46052SOL     OW39988   8.786   2.461  10.047
46052SOL    HW139989   8.767   2.544  10.002
46052SOL    HW239990   8.786   2.484  10.140
46053SOL     OW39991  11.697   3.739   2.986
46053SOL    HW139992  11.735   3.795   3.054
46053SOL    HW239993  11.706   3.790   2.905
46054SOL     OW39994   7.951  11.015   0.401
46054SOL    HW139995   7.887  11.076   0.366
46054SOL    HW239996   8.026  11.023   0.343
46055SOL     OW39997   7.057   9.702   3.502
46055SOL    HW139998   6.982   9.646   3.485
46055SOL    HW239999   7.078   9.688   3.595
46056SOL     OW40000   2.252   7.458  11.126
46056SOL    HW140001   2.193   7.384  11.139
46056SOL    HW240002   2.340   7.421  11.132
46057SOL     OW40003   4.045   4.919  11.222
46057SOL    HW140004   4.054   4.879  11.309
46057SOL    HW240005   4.117   4.982  11.217
46058SOL     OW40006  12.643  12.607  10.982
46058SOL    HW140007  12.625  12.639  10.894
46058SOL    HW240008  12.559  12.576  11.015
46059SOL     OW40009   0.142   0.386  11.857
46059SOL    HW140010   0.064   0.331  11.851
46059SOL    HW240011   0.157   0.417  11.768
46060SOL     OW40012   4.904   5.451  14.091
46060SOL    HW140013   4.886   5.525  14.149
46060SOL    HW240014   4.835   5.454  14.025
46061SOL     OW40015   2.632   8.997   2.278
46061SOL    HW140016   2.581   8.928   2.320
46061SOL    HW240017   2.638   9.066   2.345
46062SOL     OW40018   6.743   8.996   8.966
46062SOL    HW140019   6.681   9.043   9.022
46062SOL    HW240020   6.688   8.934   8.917
46063SOL     OW40021   1.085  11.459   7.144
46063SOL    HW140022   1.053  11.438   7.232
46063SOL    HW240023   1.057  11.385   7.090
46064SOL     OW40024  13.435   2.488   5.802
46064SOL    HW140025  13.472   2.424   5.741
46064SOL    HW240026  13.455   2.573   5.763
46065SOL     OW40027   6.533   9.313   0.780
46065SOL    HW140028   6.582   9.395   0.789
46065SOL    HW240029   6.456   9.336   0.729
46066SOL     OW40030  10.993  10.180   4.030
46066SOL    HW140031  11.076  10.228   4.026
46066SOL    HW240032  10.996  10.135   4.115
46067SOL     OW40033   3.581   6.253  10.608
46067SOL    HW140034   3.666   6.218  10.583
46067SOL    HW240035   3.518   6.187  10.579
46068SOL     OW40036   6.668   9.368   2.280
46068SOL    HW140037   6.608   9.342   2.210
46068SOL    HW240038   6.687   9.288   2.327
46069SOL     OW40039  11.109   5.808   8.125
46069SOL    HW140040  11.204   5.815   8.138
46069SOL    HW240041  11.072   5.822   8.211
46070SOL     OW40042  14.372  11.762   1.171
46070SOL    HW140043  14.335  11.834   1.222
46070SOL    HW240044  14.453  11.797   1.134
46071SOL     OW40045   8.562   4.100   1.556
46071SOL    HW140046   8.614   4.020   1.557
46071SOL    HW240047   8.591   4.149   1.634
46072SOL     OW40048  13.406  11.681   2.357
46072SOL    HW140049  13.368  11.759   2.396
46072SOL    HW240050  13.354  11.609   2.393
46073SOL     OW40051  11.973   8.388   1.601
46073SOL    HW140052  11.961   8.302   1.641
46073SOL    HW240053  12.065   8.389   1.574
46074SOL     OW40054  13.082   7.187   6.575
46074SOL    HW140055  13.047   7.149   6.494
46074SOL    HW240056  13.036   7.270   6.584
46075SOL     OW40057  10.710  12.699  11.711
46075SOL    HW140058  10.650  12.627  11.728
46075SOL    HW240059  10.752  12.716  11.795
46076SOL     OW40060   4.157  12.314  10.935
46076SOL    HW140061   4.250  12.294  10.940
46076SOL    HW240062   4.113  12.230  10.952
46077SOL     OW40063   0.866   0.833  10.970
46077SOL    HW140064   0.877   0.828  10.875
46077SOL    HW240065   0.774   0.855  10.982
46078SOL     OW40066   2.034   3.063   7.799
46078SOL    HW140067   2.117   3.019   7.818
46078SOL    HW240068   2.027   3.061   7.704
46079SOL     OW40069  12.792  13.240   1.397
46079SOL    HW140070  12.811  13.152   1.365
46079SOL    HW240071  12.718  13.270   1.343
46080SOL     OW40072   4.847   3.210   5.846
46080SOL    HW140073   4.771   3.172   5.892
46080SOL    HW240074   4.922   3.166   5.885
46081SOL     OW40075   8.588  14.252   2.595
46081SOL    HW140076   8.560  14.322   2.536
46081SOL    HW240077   8.643  14.296   2.660
46082SOL     OW40078   8.973  12.060   2.920
46082SOL    HW140079   9.023  11.986   2.884
46082SOL    HW240080   8.994  12.133   2.862
46083SOL     OW40081   5.029   1.279   9.117
46083SOL    HW140082   5.118   1.279   9.153
46083SOL    HW240083   4.973   1.261   9.193
46084SOL     OW40084   4.410   9.343   2.963
46084SOL    HW140085   4.484   9.282   2.959
46084SOL    HW240086   4.350   9.312   2.895
46085SOL     OW40087   0.968   4.869  11.306
46085SOL    HW140088   1.013   4.870  11.221
46085SOL    HW240089   0.949   4.961  11.324
46086SOL     OW40090   0.571   1.260  14.116
46086SOL    HW140091   0.629   1.318  14.067
46086SOL    HW240092   0.630   1.205  14.167
46087SOL     OW40093  11.944  13.142   4.249
46087SOL    HW140094  11.932  13.131   4.154
46087SOL    HW240095  11.929  13.235   4.265
46088SOL     OW40096   0.791   3.724   0.934
46088SOL    HW140097   0.745   3.786   0.879
46088SOL    HW240098   0.801   3.768   1.018
46089SOL     OW40099  12.160   2.801   5.672
46089SOL    HW140100  12.130   2.769   5.587
46089SOL    HW240101  12.218   2.874   5.652
46090SOL     OW40102   3.404  11.783  14.072
46090SOL    HW140103   3.336  11.820  14.129
46090SOL    HW240104   3.401  11.689  14.089
46091SOL     OW40105  10.927   6.272  11.075
46091SOL    HW140106  10.954   6.181  11.063
46091SOL    HW240107  10.846   6.280  11.026
46092SOL     OW40108   6.599   4.041  10.692
46092SOL    HW140109   6.609   3.949  10.716
46092SOL    HW240110   6.686   4.067  10.661
46093SOL     OW40111  10.024   3.514   3.510
46093SOL    HW140112  10.115   3.542   3.494
46093SOL    HW240113   9.992   3.574   3.577
46094SOL     OW40114  12.988  13.917   1.811
46094SOL    HW140115  12.985  13.832   1.855
46094SOL    HW240116  13.022  13.977   1.877
46095SOL     OW40117   4.895  12.549   4.926
46095SOL    HW140118   4.800  12.545   4.913
46095SOL    HW240119   4.915  12.471   4.977
46096SOL     OW40120   6.274  10.680  11.114
46096SOL    HW140121   6.310  10.766  11.091
46096SOL    HW240122   6.192  10.700  11.159
46097SOL     OW40123  11.636  13.824   2.640
46097SOL    HW140124  11.725  13.840   2.671
46097SOL    HW240125  11.581  13.874   2.699
46098SOL     OW40126   7.725  11.070   7.264
46098SOL    HW140127   7.752  11.115   7.344
46098SOL    HW240128   7.711  11.139   7.200
46099SOL     OW40129  13.079  13.411  14.784
46099SOL    HW140130  13.037  13.477  14.729
46099SOL    HW240131  13.154  13.457  14.822
46100SOL     OW40132   7.467  13.874   6.501
46100SOL    HW140133   7.563  13.876   6.497
46100SOL    HW240134   7.439  13.936   6.434
46101SOL     OW40135  14.169  10.308   6.172
46101SOL    HW140136  14.183  10.221   6.211
46101SOL    HW240137  14.211  10.302   6.086
46102SOL     OW40138  11.014   3.114   9.743
46102SOL    HW140139  11.094   3.086   9.699
46102SOL    HW240140  10.945   3.062   9.701
46103SOL     OW40141  10.826   6.017   6.681
46103SOL    HW140142  10.906   6.010   6.734
46103SOL    HW240143  10.819   5.932   6.637
46104SOL     OW40144   3.733  13.327  14.799
46104SOL    HW140145   3.773  13.252  14.844
46104SOL    HW240146   3.793  13.400  14.818
46105SOL     OW40147  12.468   6.762  13.722
46105SOL    HW140148  12.445   6.715  13.641
46105SOL    HW240149  12.396   6.824  13.735
46106SOL     OW40150   8.435   9.419  10.810
46106SOL    HW140151   8.362   9.397  10.753
46106SOL    HW240152   8.469   9.502  10.776
46107SOL     OW40153  13.897   1.595   5.028
46107SOL    HW140154  13.931   1.530   5.089
46107SOL    HW240155  13.967   1.608   4.965
46108SOL     OW40156  12.325   0.888   1.634
46108SOL    HW140157  12.412   0.848   1.645
46108SOL    HW240158  12.325   0.917   1.543
46109SOL     OW40159   3.748   1.639  13.742
46109SOL    HW140160   3.795   1.721  13.750
46109SOL    HW240161   3.815   1.571  13.748
46110SOL     OW40162   4.791   5.987   6.995
46110SOL    HW140163   4.876   6.003   6.953
46110SOL    HW240164   4.764   6.073   7.026
46111SOL     OW40165   8.348  10.865   8.722
46111SOL    HW140166   8.331  10.908   8.638
46111SOL    HW240167   8.285  10.905   8.782
46112SOL     OW40168   0.292   8.444  13.445
46112SOL    HW140169   0.214   8.496  13.423
46112SOL    HW240170   0.341   8.437  13.363
46113SOL     OW40171   3.702   3.272  14.151
46113SOL    HW140172   3.620   3.311  14.120
46113SOL    HW240173   3.771   3.328  14.116
46114SOL     OW40174   0.135  12.040   7.827
46114SOL    HW140175   0.207  12.025   7.888
46114SOL    HW240176   0.118  11.954   7.789
46115SOL     OW40177   7.539  12.965   8.621
46115SOL    HW140178   7.563  13.057   8.633
46115SOL    HW240179   7.475  12.967   8.550
46116SOL     OW40180   0.973   1.241   5.365
46116SOL    HW140181   1.045   1.203   5.314
46116SOL    HW240182   1.013   1.265   5.449
46117SOL     OW40183   5.615   7.751  11.381
46117SOL    HW140184   5.559   7.762  11.458
46117SOL    HW240185   5.702   7.778  11.411
46118SOL     OW40186   9.471   0.714   4.419
46118SOL    HW140187   9.517   0.676   4.494
46118SOL    HW240188   9.528   0.785   4.389
46119SOL     OW40189   7.495  14.438  14.402
46119SOL    HW140190   7.521  14.497  14.332
46119SOL    HW240191   7.431  14.488  14.453
46120SOL     OW40192  12.201   2.612   1.265
46120SOL    HW140193  12.239   2.563   1.338
46120SOL    HW240194  12.210   2.555   1.190
46121SOL     OW40195   8.957   6.492   6.850
46121SOL    HW140196   8.892   6.424   6.834
46121SOL    HW240197   8.916   6.550   6.914
46122SOL     OW40198   5.710   8.118   0.888
46122SOL    HW140199   5.640   8.132   0.951
46122SOL    HW240200   5.780   8.076   0.938
46123SOL     OW40201   9.281  12.450  14.603
46123SOL    HW140202   9.320  12.475  14.519
46123SOL    HW240203   9.344  12.391  14.643
46124SOL     OW40204  11.575  14.318  13.226
46124SOL    HW140205  11.583  14.404  13.185
46124SOL    HW240206  11.545  14.337  13.315
46125SOL     OW40207   9.955  12.144   7.110
46125SOL    HW140208   9.944  12.145   7.015
46125SOL    HW240209   9.943  12.235   7.137
46126SOL     OW40210   6.427   2.759   5.889
46126SOL    HW140211   6.370   2.824   5.847
46126SOL    HW240212   6.373   2.723   5.960
46127SOL     OW40213   3.323   0.605  13.566
46127SOL    HW140214   3.397   0.633  13.619
46127SOL    HW240215   3.247   0.647  13.606
46128SOL     OW40216  13.239   8.583  12.174
46128SOL    HW140217  13.204   8.672  12.180
46128SOL    HW240218  13.229   8.548  12.263
46129SOL     OW40219  14.507   6.416   2.601
46129SOL    HW140220  14.599   6.427   2.627
46129SOL    HW240221  14.477   6.340   2.651
46130SOL     OW40222   9.672   2.049   8.146
46130SOL    HW140223   9.718   2.037   8.063
46130SOL    HW240224   9.629   1.965   8.162
46131SOL     OW40225   3.850  13.037   6.188
46131SOL    HW140226   3.770  13.088   6.182
46131SOL    HW240227   3.855  13.009   6.280
46132SOL     OW40228   7.110   7.700   4.159
46132SOL    HW140229   7.016   7.700   4.146
46132SOL    HW240230   7.121   7.700   4.254
46133SOL     OW40231   8.196   1.730   3.058
46133SOL    HW140232   8.260   1.790   3.019
46133SOL    HW240233   8.112   1.771   3.040
46134SOL     OW40234  13.415   9.075   6.257
46134SOL    HW140235  13.336   9.033   6.222
46134SOL    HW240236  13.469   9.091   6.180
46135SOL     OW40237   9.595  13.690   1.483
46135SOL    HW140238   9.647  13.718   1.558
46135SOL    HW240239   9.561  13.771   1.445
46136SOL     OW40240  10.101   5.673   7.779
46136SOL    HW140241  10.111   5.760   7.819
46136SOL    HW240242  10.022   5.680   7.727
46137SOL     OW40243   8.042   9.234  11.523
46137SOL    HW140244   7.971   9.274  11.574
46137SOL    HW240245   8.091   9.308  11.488
46138SOL     OW40246   4.206   7.902   6.645
46138SOL    HW140247   4.205   7.813   6.682
46138SOL    HW240248   4.257   7.953   6.707
46139SOL     OW40249  13.322   2.619   1.197
46139SOL    HW140250  13.283   2.534   1.176
46139SOL    HW240251  13.407   2.618   1.153
46140SOL     OW40252   7.437  11.674   4.890
46140SOL    HW140253   7.365  11.717   4.935
46140SOL    HW240254   7.414  11.581   4.891
46141SOL     OW40255   2.465  11.855   5.913
46141SOL    HW140256   2.556  11.880   5.902
46141SOL    HW240257   2.429  11.855   5.824
46142SOL     OW40258   9.183   4.732   2.709
46142SOL    HW140259   9.258   4.791   2.701
46142SOL    HW240260   9.124   4.758   2.638
46143SOL     OW40261   0.216  12.703   1.311
46143SOL    HW140262   0.202  12.614   1.343
46143SOL    HW240263   0.286  12.694   1.246
46144SOL     OW40264   2.051  10.819   6.175
46144SOL    HW140265   2.047  10.897   6.232
46144SOL    HW240266   1.995  10.755   6.219
46145SOL     OW40267  14.063   6.415   3.034
46145SOL    HW140268  14.126   6.346   3.017
46145SOL    HW240269  14.023   6.433   2.948
46146SOL     OW40270  10.916   7.152  10.429
46146SOL    HW140271  10.932   7.224  10.368
46146SOL    HW240272  10.933   7.073  10.378
46147SOL     OW40273   4.216  12.378   7.428
46147SOL    HW140274   4.174  12.457   7.394
46147SOL    HW240275   4.310  12.396   7.422
46148SOL     OW40276   4.199   0.823   4.477
46148SOL    HW140277   4.189   0.799   4.569
46148SOL    HW240278   4.145   0.761   4.429
46149SOL     OW40279   9.881   2.188   9.494
46149SOL    HW140280   9.897   2.200   9.587
46149SOL    HW240281   9.882   2.277   9.458
46150SOL     OW40282  10.760  12.678  12.267
46150SOL    HW140283  10.809  12.756  12.293
46150SOL    HW240284  10.668  12.704  12.274
46151SOL     OW40285   4.245   5.213   5.004
46151SOL    HW140286   4.221   5.304   4.986
46151SOL    HW240287   4.168   5.177   5.048
46152SOL     OW40288   0.915   9.308   4.928
46152SOL    HW140289   0.971   9.284   5.002
46152SOL    HW240290   0.959   9.382   4.886
46153SOL     OW40291   4.996   8.702  12.559
46153SOL    HW140292   5.083   8.662  12.559
46153SOL    HW240293   4.936   8.627  12.556
46154SOL     OW40294  12.193   2.869  10.616
46154SOL    HW140295  12.176   2.811  10.542
46154SOL    HW240296  12.108   2.911  10.633
46155SOL     OW40297   3.614  13.361  10.108
46155SOL    HW140298   3.670  13.388  10.180
46155SOL    HW240299   3.652  13.279  10.077
46156SOL     OW40300   7.966   1.218   2.637
46156SOL    HW140301   7.927   1.136   2.607
46156SOL    HW240302   8.050   1.192   2.675
46157SOL     OW40303   4.714   1.212   4.245
46157SOL    HW140304   4.652   1.145   4.274
46157SOL    HW240305   4.660   1.275   4.197
46158SOL     OW40306   3.054   1.843   5.851
46158SOL    HW140307   3.019   1.870   5.766
46158SOL    HW240308   3.144   1.876   5.851
46159SOL     OW40309  14.863   8.211   8.075
46159SOL    HW140310   0.045   8.232   8.146
46159SOL    HW240311   0.012   8.267   8.003
46160SOL     OW40312   5.596   6.822   8.403
46160SOL    HW140313   5.615   6.736   8.368
46160SOL    HW240314   5.681   6.866   8.408
46161SOL     OW40315  14.104   2.006  10.844
46161SOL    HW140316  14.021   1.999  10.891
46161SOL    HW240317  14.121   1.918  10.810
46162SOL     OW40318   7.647   5.458  14.878
46162SOL    HW140319   7.626   5.501   0.082
46162SOL    HW240320   7.562   5.444  14.837
46163SOL     OW40321   5.403   8.410   3.753
46163SOL    HW140322   5.431   8.319   3.762
46163SOL    HW240323   5.454   8.457   3.819
46164SOL     OW40324   4.596   7.451   3.769
46164SOL    HW140325   4.563   7.398   3.696
46164SOL    HW240326   4.645   7.522   3.728
46165SOL     OW40327  12.474  10.697   3.305
46165SOL    HW140328  12.566  10.709   3.281
46165SOL    HW240329  12.445  10.785   3.333
46166SOL     OW40330   1.249   4.988   4.246
46166SOL    HW140331   1.193   4.996   4.323
46166SOL    HW240332   1.336   4.969   4.281
46167SOL     OW40333   7.845   4.389  10.846
46167SOL    HW140334   7.907   4.317  10.854
46167SOL    HW240335   7.898   4.468  10.852
46168SOL     OW40336   5.900   5.988   2.929
46168SOL    HW140337   5.831   6.040   2.888
46168SOL    HW240338   5.981   6.035   2.909
46169SOL     OW40339  12.179   3.527   5.206
46169SOL    HW140340  12.142   3.443   5.234
46169SOL    HW240341  12.156   3.588   5.276
46170SOL     OW40342   5.488   4.598  12.860
46170SOL    HW140343   5.534   4.514  12.852
46170SOL    HW240344   5.526   4.653  12.791
46171SOL     OW40345  13.917   7.081   5.868
46171SOL    HW140346  13.956   7.126   5.944
46171SOL    HW240347  13.981   7.014   5.845
46172SOL     OW40348   9.480  13.638   0.283
46172SOL    HW140349   9.489  13.622   0.189
46172SOL    HW240350   9.413  13.576   0.311
46173SOL     OW40351   9.964   9.873   4.456
46173SOL    HW140352   9.892   9.888   4.395
46173SOL    HW240353   9.975   9.957   4.501
46174SOL     OW40354   7.922  13.560   4.993
46174SOL    HW140355   7.847  13.501   4.995
46174SOL    HW240356   7.982  13.520   4.930
46175SOL     OW40357   4.229   8.630   2.229
46175SOL    HW140358   4.270   8.544   2.229
46175SOL    HW240359   4.146   8.618   2.182
46176SOL     OW40360  13.251   2.883   7.575
46176SOL    HW140361  13.177   2.867   7.634
46176SOL    HW240362  13.218   2.946   7.511
46177SOL     OW40363  11.016  12.376  14.055
46177SOL    HW140364  11.025  12.364  13.960
46177SOL    HW240365  10.960  12.453  14.064
46178SOL     OW40366  14.054  14.438  12.322
46178SOL    HW140367  14.127  14.447  12.262
46178SOL    HW240368  13.981  14.408  12.267
46179SOL     OW40369   8.968   8.113  10.091
46179SOL    HW140370   9.018   8.085  10.015
46179SOL    HW240371   8.979   8.043  10.155
46180SOL     OW40372   9.684  13.228   1.432
46180SOL    HW140373   9.594  13.237   1.464
46180SOL    HW240374   9.678  13.243   1.338
46181SOL     OW40375  10.860   0.240   8.714
46181SOL    HW140376  10.897   0.176   8.774
46181SOL    HW240377  10.928   0.306   8.703
46182SOL     OW40378  10.441  13.403  10.132
46182SOL    HW140379  10.479  13.480  10.175
46182SOL    HW240380  10.349  13.405  10.155
46183SOL     OW40381   9.787   4.254   6.386
46183SOL    HW140382   9.733   4.217   6.456
46183SOL    HW240383   9.798   4.182   6.324
46184SOL     OW40384   8.347   2.836   0.679
46184SOL    HW140385   8.286   2.881   0.737
46184SOL    HW240386   8.306   2.751   0.663
46185SOL     OW40387  12.744  12.712   4.845
46185SOL    HW140388  12.740  12.636   4.787
46185SOL    HW240389  12.715  12.678   4.930
46186SOL     OW40390   4.288   3.012   0.929
46186SOL    HW140391   4.342   3.084   0.899
46186SOL    HW240392   4.294   3.014   1.024
46187SOL     OW40393   9.790   5.006  12.185
46187SOL    HW140394   9.776   4.964  12.270
46187SOL    HW240395   9.707   4.993  12.138
46188SOL     OW40396  13.780   9.424   8.042
46188SOL    HW140397  13.767   9.411   8.136
46188SOL    HW240398  13.811   9.339   8.010
46189SOL     OW40399  13.162  14.655   3.007
46189SOL    HW140400  13.232  14.602   3.044
46189SOL    HW240401  13.205  14.710   2.941
46190SOL     OW40402   5.032   7.787   9.386
46190SOL    HW140403   5.063   7.874   9.408
46190SOL    HW240404   5.111   7.739   9.360
46191SOL     OW40405  12.061   7.477  11.188
46191SOL    HW140406  12.078   7.389  11.220
46191SOL    HW240407  11.965   7.484  11.189
46192SOL     OW40408   4.593   6.710  10.680
46192SOL    HW140409   4.642   6.790  10.658
46192SOL    HW240410   4.522   6.741  10.737
46193SOL     OW40411  12.723   0.229   6.384
46193SOL    HW140412  12.679   0.283   6.318
46193SOL    HW240413  12.651   0.181   6.427
46194SOL     OW40414   9.086   6.479   4.212
46194SOL    HW140415   9.128   6.554   4.256
46194SOL    HW240416   9.158   6.420   4.192
46195SOL     OW40417  12.725  10.159   3.388
46195SOL    HW140418  12.753  10.217   3.459
46195SOL    HW240419  12.725  10.215   3.310
46196SOL     OW40420   9.184   7.055   9.622
46196SOL    HW140421   9.166   7.006   9.702
46196SOL    HW240422   9.174   7.147   9.648
46197SOL     OW40423   9.989  14.098   2.913
46197SOL    HW140424  10.017  14.013   2.879
46197SOL    HW240425  10.051  14.116   2.984
46198SOL     OW40426  12.220  13.294   3.096
46198SOL    HW140427  12.306  13.272   3.060
46198SOL    HW240428  12.183  13.210   3.124
46199SOL     OW40429   9.754   5.600   3.187
46199SOL    HW140430   9.680   5.556   3.230
46199SOL    HW240431   9.713   5.659   3.124
46200SOL     OW40432  12.787   7.112   0.473
46200SOL    HW140433  12.850   7.135   0.542
46200SOL    HW240434  12.717   7.176   0.483
46201SOL     OW40435   0.790   4.513   6.279
46201SOL    HW140436   0.830   4.429   6.301
46201SOL    HW240437   0.862   4.576   6.286
46202SOL     OW40438  14.211   3.633  10.679
46202SOL    HW140439  14.240   3.595  10.597
46202SOL    HW240440  14.288   3.677  10.714
46203SOL     OW40441   3.551   2.295   4.047
46203SOL    HW140442   3.467   2.274   4.005
46203SOL    HW240443   3.583   2.371   3.999
46204SOL     OW40444   5.061  13.921  13.626
46204SOL    HW140445   4.970  13.946  13.644
46204SOL    HW240446   5.054  13.847  13.566
46205SOL     OW40447   2.050  13.201   5.383
46205SOL    HW140448   2.068  13.118   5.427
46205SOL    HW240449   2.116  13.206   5.314
46206SOL     OW40450   6.361   8.445   9.286
46206SOL    HW140451   6.397   8.361   9.317
46206SOL    HW240452   6.438   8.495   9.259
46207SOL     OW40453   1.620   6.039   3.655
46207SOL    HW140454   1.591   6.125   3.687
46207SOL    HW240455   1.587   6.035   3.565
46208SOL     OW40456  11.900   0.966  12.993
46208SOL    HW140457  11.822   0.913  13.011
46208SOL    HW240458  11.922   0.945  12.902
46209SOL     OW40459  12.174   4.301   4.592
46209SOL    HW140460  12.162   4.213   4.556
46209SOL    HW240461  12.160   4.290   4.686
46210SOL     OW40462   2.075  10.390  11.152
46210SOL    HW140463   2.160  10.374  11.112
46210SOL    HW240464   2.059  10.483  11.139
46211SOL     OW40465   1.634   1.809  13.070
46211SOL    HW140466   1.714   1.819  13.018
46211SOL    HW240467   1.585   1.891  13.055
46212SOL     OW40468   7.573   6.603   9.688
46212SOL    HW140469   7.589   6.603   9.593
46212SOL    HW240470   7.651   6.644   9.725
46213SOL     OW40471   1.778   1.366   0.382
46213SOL    HW140472   1.763   1.281   0.424
46213SOL    HW240473   1.794   1.344   0.290
46214SOL     OW40474   3.571   6.455  11.247
46214SOL    HW140475   3.531   6.493  11.169
46214SOL    HW240476   3.504   6.396  11.281
46215SOL     OW40477   5.958  12.840   9.778
46215SOL    HW140478   5.898  12.767   9.790
46215SOL    HW240479   5.974  12.843   9.684
46216SOL     OW40480   3.826   9.810  13.326
46216SOL    HW140481   3.845   9.895  13.366
46216SOL    HW240482   3.903   9.757  13.346
46217SOL     OW40483  12.960  10.082   3.635
46217SOL    HW140484  12.942  10.075   3.729
46217SOL    HW240485  12.926  10.168   3.611
46218SOL     OW40486  12.904   1.940   5.886
46218SOL    HW140487  12.961   1.883   5.833
46218SOL    HW240488  12.964   1.982   5.948
46219SOL     OW40489   2.203   4.700   6.768
46219SOL    HW140490   2.272   4.684   6.833
46219SOL    HW240491   2.200   4.619   6.716
46220SOL     OW40492   4.373   9.657   8.229
46220SOL    HW140493   4.405   9.649   8.139
46220SOL    HW240494   4.346   9.748   8.237
46221SOL     OW40495  12.102  12.046   4.265
46221SOL    HW140496  12.188  12.071   4.232
46221SOL    HW240497  12.103  11.951   4.266
46222SOL     OW40498   9.698   3.294   9.806
46222SOL    HW140499   9.784   3.328   9.785
46222SOL    HW240500   9.650   3.294   9.723
46223SOL     OW40501   5.641   5.672   6.071
46223SOL    HW140502   5.721   5.669   6.124
46223SOL    HW240503   5.664   5.727   5.996
46224SOL     OW40504   0.303   6.583   1.362
46224SOL    HW140505   0.382   6.576   1.417
46224SOL    HW240506   0.329   6.546   1.278
46225SOL     OW40507   5.514  11.918  13.807
46225SOL    HW140508   5.559  11.981  13.863
46225SOL    HW240509   5.455  11.871  13.866
46226SOL     OW40510   2.609   3.412  11.302
46226SOL    HW140511   2.623   3.478  11.234
46226SOL    HW240512   2.519   3.425  11.330
46227SOL     OW40513  13.322   1.985   1.897
46227SOL    HW140514  13.408   2.026   1.894
46227SOL    HW240515  13.335   1.898   1.859
46228SOL     OW40516  11.781   2.390   8.966
46228SOL    HW140517  11.746   2.448   8.898
46228SOL    HW240518  11.876   2.398   8.957
46229SOL     OW40519   7.492  10.188   2.454
46229SOL    HW140520   7.529  10.110   2.495
46229SOL    HW240521   7.399  10.187   2.479
46230SOL     OW40522  11.046   5.475   1.439
46230SOL    HW140523  11.023   5.448   1.350
46230SOL    HW240524  11.141   5.484   1.438
46231SOL     OW40525  12.270   9.196  14.532
46231SOL    HW140526  12.302   9.120  14.485
46231SOL    HW240527  12.180   9.174  14.556
46232SOL     OW40528   7.561  10.807   5.264
46232SOL    HW140529   7.634  10.803   5.325
46232SOL    HW240530   7.572  10.731   5.208
46233SOL     OW40531  11.270   2.136   1.283
46233SOL    HW140532  11.213   2.103   1.214
46233SOL    HW240533  11.240   2.093   1.363
46234SOL     OW40534   1.932   4.528  13.332
46234SOL    HW140535   1.870   4.514  13.404
46234SOL    HW240536   1.883   4.502  13.254
46235SOL     OW40537   0.347   2.868   6.000
46235SOL    HW140538   0.339   2.789   5.947
46235SOL    HW240539   0.389   2.932   5.942
46236SOL     OW40540   4.792   7.765   4.693
46236SOL    HW140541   4.822   7.854   4.713
46236SOL    HW240542   4.859   7.730   4.634
46237SOL     OW40543  13.497  13.524  12.790
46237SOL    HW140544  13.425  13.529  12.853
46237SOL    HW240545  13.544  13.607  12.802
46238SOL     OW40546  12.072   6.496  10.068
46238SOL    HW140547  12.043   6.542   9.989
46238SOL    HW240548  12.092   6.565  10.131
46239SOL     OW40549   1.278   9.015   0.603
46239SOL    HW140550   1.355   9.002   0.547
46239SOL    HW240551   1.206   8.974   0.555
46240SOL     OW40552   1.636   5.807   9.089
46240SOL    HW140553   1.570   5.738   9.096
46240SOL    HW240554   1.674   5.796   9.002
46241SOL     OW40555  13.227   0.393   5.206
46241SOL    HW140556  13.318   0.419   5.221
46241SOL    HW240557  13.229   0.351   5.120
46242SOL     OW40558   4.690   0.164   9.638
46242SOL    HW140559   4.768   0.120   9.672
46242SOL    HW240560   4.621   0.098   9.642
46243SOL     OW40561  10.547  13.221   2.344
46243SOL    HW140562  10.469  13.176   2.376
46243SOL    HW240563  10.513  13.287   2.283
46244SOL     OW40564  12.500   4.814   3.799
46244SOL    HW140565  12.460   4.868   3.731
46244SOL    HW240566  12.542   4.743   3.752
46245SOL     OW40567   1.581   6.011  10.990
46245SOL    HW140568   1.504   6.067  10.985
46245SOL    HW240569   1.614   6.008  10.900
46246SOL     OW40570   3.514  11.116   9.612
46246SOL    HW140571   3.426  11.133   9.579
46246SOL    HW240572   3.570  11.119   9.535
46247SOL     OW40573  12.306   5.280   4.184
46247SOL    HW140574  12.385   5.230   4.202
46247SOL    HW240575  12.301   5.284   4.088
46248SOL     OW40576  13.032   1.031   5.821
46248SOL    HW140577  13.012   0.950   5.869
46248SOL    HW240578  13.087   1.002   5.748
46249SOL     OW40579  14.414   7.004   7.805
46249SOL    HW140580  14.457   7.089   7.798
46249SOL    HW240581  14.468   6.946   7.750
46250SOL     OW40582  14.661   1.779   3.793
46250SOL    HW140583  14.611   1.852   3.758
46250SOL    HW240584  14.686   1.728   3.716
46251SOL     OW40585   8.293   7.350  10.899
46251SOL    HW140586   8.361   7.287  10.879
46251SOL    HW240587   8.212   7.299  10.898
46252SOL     OW40588   8.885   3.728  11.581
46252SOL    HW140589   8.870   3.636  11.558
46252SOL    HW240590   8.975   3.745  11.555
46253SOL     OW40591  13.691  14.191  13.280
46253SOL    HW140592  13.765  14.247  13.305
46253SOL    HW240593  13.688  14.125  13.349
46254SOL     OW40594  12.687   8.567   1.572
46254SOL    HW140595  12.704   8.646   1.521
46254SOL    HW240596  12.659   8.502   1.507
46255SOL     OW40597   8.993   4.216  11.173
46255SOL    HW140598   8.983   4.229  11.267
46255SOL    HW240599   8.904   4.222  11.139
46256SOL     OW40600  12.496   1.648   4.263
46256SOL    HW140601  12.551   1.579   4.225
46256SOL    HW240602  12.410   1.636   4.221
46257SOL     OW40603   1.546   8.090  11.291
46257SOL    HW140604   1.640   8.074  11.276
46257SOL    HW240605   1.520   8.144  11.216
46258SOL     OW40606   6.806   7.088   5.708
46258SOL    HW140607   6.835   7.065   5.797
46258SOL    HW240608   6.714   7.062   5.705
46259SOL     OW40609   4.542   0.598   1.926
46259SOL    HW140610   4.570   0.648   1.849
46259SOL    HW240611   4.450   0.577   1.910
46260SOL     OW40612   1.987  10.650  14.734
46260SOL    HW140613   2.081  10.643  14.749
46260SOL    HW240614   1.977  10.649  14.639
46261SOL     OW40615   3.716   9.916   4.297
46261SOL    HW140616   3.682   9.854   4.361
46261SOL    HW240617   3.801   9.944   4.334
46262SOL     OW40618   3.619   9.761  10.745
46262SOL    HW140619   3.707   9.727  10.731
46262SOL    HW240620   3.626   9.816  10.823
46263SOL     OW40621  10.189  10.378   1.031
46263SOL    HW140622  10.180  10.393   0.937
46263SOL    HW240623  10.240  10.453   1.063
46264SOL     OW40624   5.121   1.614   2.850
46264SOL    HW140625   5.070   1.687   2.815
46264SOL    HW240626   5.146   1.643   2.938
46265SOL     OW40627   0.913  12.158  12.814
46265SOL    HW140628   0.941  12.187  12.901
46265SOL    HW240629   0.927  12.063  12.815
46266SOL     OW40630   7.826   4.342   1.622
46266SOL    HW140631   7.920   4.340   1.602
46266SOL    HW240632   7.815   4.272   1.687
46267SOL     OW40633  13.776   0.439   4.150
46267SOL    HW140634  13.765   0.520   4.100
46267SOL    HW240635  13.803   0.374   4.085
46268SOL     OW40636  13.376  10.143   1.320
46268SOL    HW140637  13.328  10.163   1.400
46268SOL    HW240638  13.307  10.126   1.255
46269SOL     OW40639  11.260  12.522   5.054
46269SOL    HW140640  11.283  12.615   5.058
46269SOL    HW240641  11.194  12.516   4.985
46270SOL     OW40642   4.113   9.649   8.359
46270SOL    HW140643   4.084   9.663   8.449
46270SOL    HW240644   4.203   9.618   8.368
46271SOL     OW40645   0.633   4.646  10.467
46271SOL    HW140646   0.623   4.551  10.459
46271SOL    HW240647   0.591   4.681  10.389
46272SOL     OW40648   5.780  14.267   3.279
46272SOL    HW140649   5.826  14.185   3.297
46272SOL    HW240650   5.713  14.272   3.347
46273SOL     OW40651   5.732   6.063   4.537
46273SOL    HW140652   5.758   6.091   4.625
46273SOL    HW240653   5.744   6.142   4.483
46274SOL     OW40654   2.690   3.102   6.176
46274SOL    HW140655   2.718   3.065   6.259
46274SOL    HW240656   2.735   3.049   6.110
46275SOL     OW40657   0.267  11.490  14.021
46275SOL    HW140658   0.175  11.514  14.005
46275SOL    HW240659   0.263  11.431  14.096
46276SOL     OW40660   3.390  14.168   3.113
46276SOL    HW140661   3.362  14.104   3.179
46276SOL    HW240662   3.485  14.163   3.113
46277SOL     OW40663   9.489   2.740  14.590
46277SOL    HW140664   9.455   2.686  14.519
46277SOL    HW240665   9.482   2.830  14.558
46278SOL     OW40666  10.559  12.158   3.446
46278SOL    HW140667  10.516  12.149   3.531
46278SOL    HW240668  10.502  12.111   3.385
46279SOL     OW40669   9.994   6.048   1.287
46279SOL    HW140670  10.032   6.132   1.313
46279SOL    HW240671  10.005   5.992   1.364
46280SOL     OW40672   3.032   0.171   6.425
46280SOL    HW140673   3.046   0.251   6.475
46280SOL    HW240674   2.937   0.166   6.414
46281SOL     OW40675  13.469   6.584  12.471
46281SOL    HW140676  13.437   6.558  12.557
46281SOL    HW240677  13.564   6.593  12.483
46282SOL     OW40678   6.184   7.158  13.726
46282SOL    HW140679   6.098   7.145  13.767
46282SOL    HW240680   6.188   7.093  13.657
46283SOL     OW40681  13.344  12.693   4.591
46283SOL    HW140682  13.272  12.634   4.570
46283SOL    HW240683  13.322  12.775   4.546
46284SOL     OW40684   8.154   8.288   6.692
46284SOL    HW140685   8.094   8.214   6.682
46284SOL    HW240686   8.227   8.252   6.743
46285SOL     OW40687   5.630  13.318   1.816
46285SOL    HW140688   5.690  13.305   1.890
46285SOL    HW240689   5.621  13.413   1.809
46286SOL     OW40690  14.193   5.610   1.959
46286SOL    HW140691  14.195   5.684   1.898
46286SOL    HW240692  14.186   5.533   1.904
46287SOL     OW40693   6.323   8.368  12.245
46287SOL    HW140694   6.361   8.293  12.291
46287SOL    HW240695   6.321   8.340  12.153
46288SOL     OW40696   5.545   4.473   7.982
46288SOL    HW140697   5.500   4.527   7.916
46288SOL    HW240698   5.475   4.423   8.024
46289SOL     OW40699   2.570   0.905   5.741
46289SOL    HW140700   2.492   0.862   5.776
46289SOL    HW240701   2.626   0.833   5.712
46290SOL     OW40702  12.305  10.419   0.600
46290SOL    HW140703  12.286  10.457   0.686
46290SOL    HW240704  12.234  10.356   0.585
46291SOL     OW40705  12.840  12.139   9.771
46291SOL    HW140706  12.867  12.090   9.694
46291SOL    HW240707  12.854  12.079   9.844
46292SOL     OW40708   7.982  11.700   3.024
46292SOL    HW140709   8.001  11.717   2.932
46292SOL    HW240710   7.949  11.784   3.058
46293SOL     OW40711   8.795   2.036   4.240
46293SOL    HW140712   8.710   2.062   4.203
46293SOL    HW240713   8.828   1.969   4.181
46294SOL     OW40714   6.180   4.920   0.624
46294SOL    HW140715   6.214   4.907   0.536
46294SOL    HW240716   6.259   4.924   0.680
46295SOL     OW40717  10.139   0.850   0.167
46295SOL    HW140718  10.130   0.794   0.244
46295SOL    HW240719  10.052   0.849   0.126
46296SOL     OW40720   1.435   5.510  12.054
46296SOL    HW140721   1.467   5.509  11.963
46296SOL    HW240722   1.510   5.482  12.106
46297SOL     OW40723  12.144  12.800  10.231
46297SOL    HW140724  12.093  12.726  10.199
46297SOL    HW240725  12.232  12.785  10.197
46298SOL     OW40726   2.258   0.704   0.502
46298SOL    HW140727   2.240   0.696   0.408
46298SOL    HW240728   2.232   0.619   0.539
46299SOL     OW40729  11.932   7.284   0.726
46299SOL    HW140730  12.019   7.267   0.689
46299SOL    HW240731  11.922   7.379   0.718
46300SOL     OW40732   9.612   8.805  12.541
46300SOL    HW140733   9.606   8.711  12.521
46300SOL    HW240734   9.706   8.823  12.542
46301SOL     OW40735   7.973  11.413   2.818
46301SOL    HW140736   7.918  11.370   2.883
46301SOL    HW240737   8.057  11.425   2.862
46302SOL     OW40738   2.582  13.772   6.145
46302SOL    HW140739   2.545  13.843   6.093
46302SOL    HW240740   2.570  13.694   6.092
46303SOL     OW40741  14.301  10.257   2.282
46303SOL    HW140742  14.261  10.210   2.356
46303SOL    HW240743  14.389  10.218   2.275
46304SOL     OW40744   2.587   3.168   7.633
46304SOL    HW140745   2.540   3.210   7.705
46304SOL    HW240746   2.591   3.075   7.658
46305SOL     OW40747   8.509  13.228  10.909
46305SOL    HW140748   8.589  13.276  10.887
46305SOL    HW240749   8.484  13.183  10.829
46306SOL     OW40750   7.513   0.939   7.609
46306SOL    HW140751   7.601   0.945   7.647
46306SOL    HW240752   7.455   0.964   7.681
46307SOL     OW40753  14.044   9.464   1.214
46307SOL    HW140754  13.964   9.489   1.261
46307SOL    HW240755  14.057   9.372   1.235
46308SOL     OW40756   7.806  11.106   7.804
46308SOL    HW140757   7.838  11.195   7.788
46308SOL    HW240758   7.714  11.119   7.830
46309SOL     OW40759  14.394  12.544  10.779
46309SOL    HW140760  14.463  12.608  10.798
46309SOL    HW240761  14.382  12.548  10.684
46310SOL     OW40762   8.419  12.436   3.073
46310SOL    HW140763   8.488  12.496   3.102
46310SOL    HW240764   8.350  12.445   3.139
46311SOL     OW40765   7.157   5.343  10.347
46311SOL    HW140766   7.164   5.398  10.269
46311SOL    HW240767   7.161   5.253  10.313
46312SOL     OW40768   8.673   6.719   4.812
46312SOL    HW140769   8.684   6.625   4.800
46312SOL    HW240770   8.684   6.733   4.906
46313SOL     OW40771  13.043   9.681  10.645
46313SOL    HW140772  12.952   9.705  10.629
46313SOL    HW240773  13.062   9.614  10.580
46314SOL     OW40774   5.368   0.509   8.209
46314SOL    HW140775   5.353   0.576   8.143
46314SOL    HW240776   5.281   0.474   8.228
46315SOL     OW40777   2.193   3.288  13.265
46315SOL    HW140778   2.206   3.196  13.287
46315SOL    HW240779   2.280   3.320  13.241
46316SOL     OW40780   0.691   6.155   9.865
46316SOL    HW140781   0.610   6.173   9.913
46316SOL    HW240782   0.719   6.240   9.832
46317SOL     OW40783  11.613  10.250  11.072
46317SOL    HW140784  11.604  10.185  11.002
46317SOL    HW240785  11.656  10.203  11.143
46318SOL     OW40786   8.853   5.929   9.080
46318SOL    HW140787   8.830   5.892   8.995
46318SOL    HW240788   8.932   5.881   9.106
46319SOL     OW40789   5.371   1.543   2.490
46319SOL    HW140790   5.369   1.502   2.403
46319SOL    HW240791   5.289   1.592   2.495
46320SOL     OW40792  10.122   6.429   7.389
46320SOL    HW140793  10.078   6.390   7.313
46320SOL    HW240794  10.171   6.503   7.353
46321SOL     OW40795  14.647   8.089   2.900
46321SOL    HW140796  14.705   8.126   2.834
46321SOL    HW240797  14.560   8.095   2.862
46322SOL     OW40798   5.176   0.884   2.823
46322SOL    HW140799   5.102   0.915   2.771
46322SOL    HW240800   5.249   0.939   2.795
46323SOL     OW40801  12.526  10.040   6.420
46323SOL    HW140802  12.452  10.070   6.472
46323SOL    HW240803  12.489   9.973   6.363
46324SOL     OW40804  11.559  11.174   1.748
46324SOL    HW140805  11.551  11.266   1.723
46324SOL    HW240806  11.478  11.156   1.796
46325SOL     OW40807   2.928   2.961   0.783
46325SOL    HW140808   2.850   2.972   0.730
46325SOL    HW240809   2.921   2.873   0.820
46326SOL     OW40810   4.928  13.721  14.865
46326SOL    HW140811   4.958  13.654  14.803
46326SOL    HW240812   4.843  13.690   0.017
46327SOL     OW40813   7.536   2.568   0.298
46327SOL    HW140814   7.543   2.473   0.312
46327SOL    HW240815   7.549   2.606   0.385
46328SOL     OW40816   2.547  12.562  10.801
46328SOL    HW140817   2.569  12.653  10.782
46328SOL    HW240818   2.587  12.546  10.886
46329SOL     OW40819   3.858  12.413   0.934
46329SOL    HW140820   3.849  12.509   0.939
46329SOL    HW240821   3.778  12.380   0.976
46330SOL     OW40822  11.221   5.821   9.254
46330SOL    HW140823  11.306   5.777   9.256
46330SOL    HW240824  11.202   5.840   9.346
46331SOL     OW40825   5.572   7.957  14.708
46331SOL    HW140826   5.613   7.895  14.647
46331SOL    HW240827   5.582   8.042  14.666
46332SOL     OW40828   8.690   1.933  11.500
46332SOL    HW140829   8.695   1.940  11.596
46332SOL    HW240830   8.750   1.863  11.477
46333SOL     OW40831   5.478   3.344  13.945
46333SOL    HW140832   5.507   3.262  13.985
46333SOL    HW240833   5.383   3.345  13.959
46334SOL     OW40834  12.384   4.456   9.425
46334SOL    HW140835  12.413   4.539   9.387
46334SOL    HW240836  12.406   4.464   9.518
46335SOL     OW40837   3.211  14.013  13.144
46335SOL    HW140838   3.253  13.930  13.165
46335SOL    HW240839   3.261  14.078  13.193
46336SOL     OW40840  14.605   4.703  12.723
46336SOL    HW140841  14.574   4.615  12.706
46336SOL    HW240842  14.685   4.691  12.774
46337SOL     OW40843  13.822   3.690   6.075
46337SOL    HW140844  13.761   3.623   6.043
46337SOL    HW240845  13.856   3.731   5.996
46338SOL     OW40846  12.595   5.310  13.035
46338SOL    HW140847  12.627   5.221  13.021
46338SOL    HW240848  12.504   5.299  13.062
46339SOL     OW40849   0.569  10.714   5.789
46339SOL    HW140850   0.505  10.678   5.849
46339SOL    HW240851   0.586  10.803   5.823
46340SOL     OW40852  11.817   3.038  14.116
46340SOL    HW140853  11.739   3.059  14.167
46340SOL    HW240854  11.868   2.982  14.174
46341SOL     OW40855   6.554   2.776   3.629
46341SOL    HW140856   6.562   2.869   3.606
46341SOL    HW240857   6.460   2.764   3.646
46342SOL     OW40858  11.569   7.304  11.668
46342SOL    HW140859  11.664   7.302  11.681
46342SOL    HW240860  11.535   7.237  11.728
46343SOL     OW40861   8.655   6.567   8.566
46343SOL    HW140862   8.593   6.509   8.610
46343SOL    HW240863   8.606   6.648   8.551
46344SOL     OW40864   2.727   3.274   8.797
46344SOL    HW140865   2.658   3.300   8.736
46344SOL    HW240866   2.771   3.201   8.753
46345SOL     OW40867   7.356  10.036   2.869
46345SOL    HW140868   7.317   9.962   2.822
46345SOL    HW240869   7.309  10.113   2.835
46346SOL     OW40870  13.128   9.065   2.443
46346SOL    HW140871  13.068   8.993   2.423
46346SOL    HW240872  13.210   9.023   2.468
46347SOL     OW40873   2.351  13.487  13.771
46347SOL    HW140874   2.350  13.541  13.692
46347SOL    HW240875   2.422  13.524  13.824
46348SOL     OW40876   2.682   9.914  14.354
46348SOL    HW140877   2.679   9.953  14.267
46348SOL    HW240878   2.741   9.971  14.404
46349SOL     OW40879  12.030  12.873   5.524
46349SOL    HW140880  12.109  12.888   5.575
46349SOL    HW240881  12.058  12.816   5.452
46350SOL     OW40882   4.161   5.950  14.731
46350SOL    HW140883   4.190   5.867  14.770
46350SOL    HW240884   4.065   5.945  14.734
46351SOL     OW40885   5.144  12.718  12.730
46351SOL    HW140886   5.223  12.742  12.682
46351SOL    HW240887   5.121  12.631  12.698
46352SOL     OW40888  13.748   2.586  13.683
46352SOL    HW140889  13.792   2.627  13.757
46352SOL    HW240890  13.750   2.653  13.614
46353SOL     OW40891  10.575   1.230  10.711
46353SOL    HW140892  10.500   1.218  10.769
46353SOL    HW240893  10.638   1.281  10.762
46354SOL     OW40894  10.431   2.077   1.522
46354SOL    HW140895  10.338   2.081   1.497
46354SOL    HW240896  10.466   2.162   1.497
46355SOL     OW40897   3.751  13.400   3.678
46355SOL    HW140898   3.839  13.439   3.673
46355SOL    HW240899   3.766  13.313   3.714
46356SOL     OW40900   1.377  13.402   1.266
46356SOL    HW140901   1.403  13.441   1.349
46356SOL    HW240902   1.458  13.366   1.230
46357SOL     OW40903   3.385   8.827   6.807
46357SOL    HW140904   3.440   8.904   6.793
46357SOL    HW240905   3.335   8.818   6.726
46358SOL     OW40906   1.932  14.267  14.506
46358SOL    HW140907   1.952  14.360  14.511
46358SOL    HW240908   1.915  14.241  14.596
46359SOL     OW40909   4.789   4.353   1.647
46359SOL    HW140910   4.776   4.426   1.708
46359SOL    HW240911   4.811   4.396   1.564
46360SOL     OW40912   4.210   5.116   2.259
46360SOL    HW140913   4.241   5.194   2.212
46360SOL    HW240914   4.255   5.043   2.216
46361SOL     OW40915   1.784   9.638   2.265
46361SOL    HW140916   1.827   9.555   2.285
46361SOL    HW240917   1.723   9.652   2.338
46362SOL     OW40918   9.925   8.218   8.460
46362SOL    HW140919   9.833   8.222   8.485
46362SOL    HW240920   9.948   8.125   8.468
46363SOL     OW40921   6.727  14.575   7.217
46363SOL    HW140922   6.701  14.527   7.138
46363SOL    HW240923   6.812  14.537   7.242
46364SOL     OW40924  11.548   6.601   8.736
46364SOL    HW140925  11.469   6.551   8.716
46364SOL    HW240926  11.550   6.606   8.832
46365SOL     OW40927  12.453   4.647   1.286
46365SOL    HW140928  12.546   4.630   1.271
46365SOL    HW240929  12.418   4.663   1.198
46366SOL     OW40930   8.661   8.727   1.899
46366SOL    HW140931   8.720   8.736   1.825
46366SOL    HW240932   8.699   8.656   1.951
46367SOL     OW40933   4.045  12.756   0.794
46367SOL    HW140934   3.993  12.803   0.728
46367SOL    HW240935   3.982  12.735   0.863
46368SOL     OW40936   9.145   6.738   1.042
46368SOL    HW140937   9.107   6.815   0.999
46368SOL    HW240938   9.180   6.772   1.124
46369SOL     OW40939   3.001  14.087   5.666
46369SOL    HW140940   3.067  14.152   5.643
46369SOL    HW240941   2.975  14.109   5.756
46370SOL     OW40942   3.005  12.071  11.741
46370SOL    HW140943   3.042  12.143  11.690
46370SOL    HW240944   3.067  11.999  11.729
46371SOL     OW40945   2.788   5.707   5.024
46371SOL    HW140946   2.768   5.683   5.115
46371SOL    HW240947   2.762   5.799   5.018
46372SOL     OW40948   5.329   4.254   4.861
46372SOL    HW140949   5.282   4.234   4.780
46372SOL    HW240950   5.422   4.257   4.835
46373SOL     OW40951  10.746   2.198   8.395
46373SOL    HW140952  10.667   2.248   8.410
46373SOL    HW240953  10.789   2.242   8.322
46374SOL     OW40954  12.015   5.925   3.590
46374SOL    HW140955  11.920   5.910   3.596
46374SOL    HW240956  12.054   5.844   3.624
46375SOL     OW40957  11.136  14.438  11.492
46375SOL    HW140958  11.045  14.409  11.498
46375SOL    HW240959  11.163  14.451  11.583
46376SOL     OW40960   7.961   3.742   6.427
46376SOL    HW140961   7.916   3.748   6.512
46376SOL    HW240962   8.020   3.668   6.437
46377SOL     OW40963  11.043   7.661   8.775
46377SOL    HW140964  10.977   7.610   8.822
46377SOL    HW240965  11.124   7.613   8.788
46378SOL     OW40966   2.263  13.908   5.675
46378SOL    HW140967   2.227  13.989   5.711
46378SOL    HW240968   2.230  13.905   5.585
46379SOL     OW40969   7.213   7.730  14.382
46379SOL    HW140970   7.230   7.803  14.441
46379SOL    HW240971   7.173   7.770  14.305
46380SOL     OW40972  14.395   2.310  10.240
46380SOL    HW140973  14.469   2.254  10.213
46380SOL    HW240974  14.318   2.266  10.205
46381SOL     OW40975  10.090  12.829  11.930
46381SOL    HW140976  10.005  12.856  11.896
46381SOL    HW240977  10.088  12.734  11.929
46382SOL     OW40978   7.193  13.549  14.256
46382SOL    HW140979   7.262  13.501  14.301
46382SOL    HW240980   7.239  13.610  14.199
46383SOL     OW40981  14.162   5.077   6.404
46383SOL    HW140982  14.112   5.151   6.368
46383SOL    HW240983  14.197   5.110   6.487
46384SOL     OW40984  11.703   8.779   2.132
46384SOL    HW140985  11.716   8.851   2.194
46384SOL    HW240986  11.664   8.709   2.185
46385SOL     OW40987  12.342   9.010   1.625
46385SOL    HW140988  12.412   9.038   1.683
46385SOL    HW240989  12.265   9.058   1.655
46386SOL     OW40990   9.639  12.864  10.808
46386SOL    HW140991   9.544  12.851  10.820
46386SOL    HW240992   9.671  12.888  10.895
46387SOL     OW40993   4.105   9.740   7.689
46387SOL    HW140994   4.111   9.748   7.594
46387SOL    HW240995   4.023   9.694   7.705
46388SOL     OW40996  13.487   5.146   1.468
46388SOL    HW140997  13.569   5.146   1.419
46388SOL    HW240998  13.513   5.164   1.559
46389SOL     OW40999  12.799  11.104   1.146
46389SOL    HW141000  12.735  11.141   1.085
46389SOL    HW241001  12.866  11.065   1.089
46390SOL     OW41002   0.475   6.790  13.987
46390SOL    HW141003   0.403   6.843  13.954
46390SOL    HW241004   0.452   6.773  14.078
46391SOL     OW41005   2.745   9.078  13.644
46391SOL    HW141006   2.739   9.067  13.739
46391SOL    HW241007   2.768   9.170  13.631
46392SOL     OW41008   3.058  10.562  12.334
46392SOL    HW141009   3.091  10.641  12.378
46392SOL    HW241010   2.970  10.585  12.306
46393SOL     OW41011   8.283   8.736   3.079
46393SOL    HW141012   8.341   8.659   3.083
46393SOL    HW241013   8.314   8.785   3.002
46394SOL     OW41014   5.256   5.387   4.944
46394SOL    HW141015   5.221   5.298   4.936
46394SOL    HW241016   5.350   5.377   4.933
46395SOL     OW41017   5.451  14.340   7.534
46395SOL    HW141018   5.546  14.329   7.541
46395SOL    HW241019   5.439  14.435   7.527
46396SOL     OW41020   6.562  12.123   9.757
46396SOL    HW141021   6.474  12.143   9.724
46396SOL    HW241022   6.546  12.086   9.844
46397SOL     OW41023   0.485   3.257   9.617
46397SOL    HW141024   0.451   3.311   9.688
46397SOL    HW241025   0.467   3.167   9.643
46398SOL     OW41026   2.162   0.208   1.290
46398SOL    HW141027   2.187   0.147   1.222
46398SOL    HW241028   2.177   0.161   1.372
46399SOL     OW41029  11.164   7.409   2.593
46399SOL    HW141030  11.189   7.333   2.645
46399SOL    HW241031  11.240   7.425   2.537
46400SOL     OW41032   8.880  14.049   7.416
46400SOL    HW141033   8.879  14.130   7.364
46400SOL    HW241034   8.873  14.079   7.507
46401SOL     OW41035   0.430   0.851  12.704
46401SOL    HW141036   0.429   0.925  12.643
46401SOL    HW241037   0.422   0.774  12.648
46402SOL     OW41038  14.386  14.668   5.296
46402SOL    HW141039  14.479  14.688   5.309
46402SOL    HW241040  14.365  14.703   5.210
46403SOL     OW41041  12.957  13.769   7.677
46403SOL    HW141042  12.955  13.838   7.744
46403SOL    HW241043  13.044  13.777   7.637
46404SOL     OW41044  10.419  12.209   3.676
46404SOL    HW141045  10.448  12.164   3.755
46404SOL    HW241046  10.379  12.290   3.707
46405SOL     OW41047   8.585   6.956  13.545
46405SOL    HW141048   8.581   6.953  13.641
46405SOL    HW241049   8.674   6.985  13.525
46406SOL     OW41050   7.735  13.792   6.404
46406SOL    HW141051   7.723  13.700   6.381
46406SOL    HW241052   7.784  13.791   6.486
46407SOL     OW41053   1.542   8.342   7.086
46407SOL    HW141054   1.577   8.302   7.007
46407SOL    HW241055   1.490   8.273   7.128
46408SOL     OW41056  14.285   1.478  11.033
46408SOL    HW141057  14.263   1.425  11.109
46408SOL    HW241058  14.304   1.414  10.964
46409SOL     OW41059  13.779  11.794   6.758
46409SOL    HW141060  13.836  11.843   6.817
46409SOL    HW241061  13.814  11.705   6.760
46410SOL     OW41062   8.190   6.157   1.118
46410SOL    HW141063   8.229   6.146   1.032
46410SOL    HW241064   8.097   6.167   1.102
46411SOL     OW41065   6.540   0.400   5.107
46411SOL    HW141066   6.569   0.470   5.165
46411SOL    HW241067   6.457   0.370   5.144
46412SOL     OW41068   5.548  11.548   7.572
46412SOL    HW141069   5.579  11.596   7.649
46412SOL    HW241070   5.527  11.616   7.509
46413SOL     OW41071   5.106  10.100   3.587
46413SOL    HW141072   5.182  10.044   3.567
46413SOL    HW241073   5.031  10.041   3.581
46414SOL     OW41074   1.029   5.511   8.805
46414SOL    HW141075   1.122   5.495   8.791
46414SOL    HW241076   0.987   5.426   8.789
46415SOL     OW41077   1.670   0.772   3.794
46415SOL    HW141078   1.586   0.782   3.750
46415SOL    HW241079   1.656   0.810   3.881
46416SOL     OW41080   3.036   9.313   0.799
46416SOL    HW141081   2.940   9.308   0.797
46416SOL    HW241082   3.060   9.337   0.710
46417SOL     OW41083  10.052   7.874  12.421
46417SOL    HW141084   9.994   7.897  12.494
46417SOL    HW241085   9.992   7.846  12.351
46418SOL     OW41086   5.888   1.992   3.420
46418SOL    HW141087   5.956   2.024   3.360
46418SOL    HW241088   5.930   1.992   3.506
46419SOL     OW41089   0.737   9.294   8.026
46419SOL    HW141090   0.695   9.287   7.940
46419SOL    HW241091   0.753   9.388   8.037
46420SOL     OW41092  12.039   5.777   9.078
46420SOL    HW141093  12.127   5.742   9.062
46420SOL    HW241094  11.989   5.702   9.111
46421SOL     OW41095  14.855   5.831   9.701
46421SOL    HW141096   0.070   5.819   9.692
46421SOL    HW241097  14.826   5.864   9.616
46422SOL     OW41098  12.642   4.695   9.450
46422SOL    HW141099  12.704   4.640   9.499
46422SOL    HW241100  12.647   4.662   9.360
46423SOL     OW41101   5.901   6.912   1.511
46423SOL    HW141102   5.917   6.853   1.438
46423SOL    HW241103   5.951   6.874   1.584
46424SOL     OW41104   0.700  13.882   0.030
46424SOL    HW141105   0.787  13.874  14.870
46424SOL    HW241106   0.717  13.892   0.124
46425SOL     OW41107   3.282   0.564   6.813
46425SOL    HW141108   3.329   0.507   6.874
46425SOL    HW241109   3.324   0.649   6.824
46426SOL     OW41110  13.999  10.536   4.821
46426SOL    HW141111  14.072  10.474   4.824
46426SOL    HW241112  14.041  10.622   4.812
46427SOL     OW41113  11.733  10.280   7.806
46427SOL    HW141114  11.788  10.299   7.882
46427SOL    HW241115  11.791  10.289   7.731
46428SOL     OW41116   7.248   8.579  12.868
46428SOL    HW141117   7.219   8.514  12.804
46428SOL    HW241118   7.278   8.527  12.943
46429SOL     OW41119   0.131   9.690   4.180
46429SOL    HW141120   0.185   9.737   4.115
46429SOL    HW241121   0.181   9.611   4.199
46430SOL     OW41122   2.817   3.530   5.732
46430SOL    HW141123   2.811   3.624   5.744
46430SOL    HW241124   2.728   3.502   5.713
46431SOL     OW41125   6.754   0.321   3.653
46431SOL    HW141126   6.756   0.337   3.747
46431SOL    HW241127   6.685   0.256   3.640
46432SOL     OW41128   5.020   7.762   8.997
46432SOL    HW141129   5.087   7.700   9.026
46432SOL    HW241130   4.939   7.732   9.038
46433SOL     OW41131   0.856  11.903  14.727
46433SOL    HW141132   0.845  11.951  14.644
46433SOL    HW241133   0.789  11.939  14.784
46434SOL     OW41134   7.349  12.245   9.579
46434SOL    HW141135   7.388  12.286   9.502
46434SOL    HW241136   7.411  12.175   9.602
46435SOL     OW41137  11.985   6.107   2.594
46435SOL    HW141138  12.030   6.127   2.676
46435SOL    HW241139  11.940   6.189   2.571
46436SOL     OW41140  14.419   5.237  13.655
46436SOL    HW141141  14.334   5.273  13.682
46436SOL    HW241142  14.479   5.264  13.725
46437SOL     OW41143  14.713  11.512   3.306
46437SOL    HW141144  14.665  11.587   3.341
46437SOL    HW241145  14.691  11.512   3.212
46438SOL     OW41146  14.074  14.547   7.800
46438SOL    HW141147  14.004  14.562   7.864
46438SOL    HW241148  14.029  14.513   7.723
46439SOL     OW41149  10.357   7.961   0.160
46439SOL    HW141150  10.348   7.886   0.101
46439SOL    HW241151  10.393   8.031   0.105
46440SOL     OW41152   4.148  11.257   6.266
46440SOL    HW141153   4.149  11.179   6.211
46440SOL    HW241154   4.060  11.256   6.305
46441SOL     OW41155   5.180   9.060   5.860
46441SOL    HW141156   5.190   8.982   5.807
46441SOL    HW241157   5.152   9.028   5.946
46442SOL     OW41158  10.971  14.299   9.281
46442SOL    HW141159  10.887  14.253   9.282
46442SOL    HW241160  10.982  14.329   9.372
46443SOL     OW41161   1.835   3.112   4.319
46443SOL    HW141162   1.761   3.141   4.264
46443SOL    HW241163   1.883   3.193   4.337
46444SOL     OW41164   1.398   1.846  12.101
46444SOL    HW141165   1.347   1.787  12.046
46444SOL    HW241166   1.403   1.803  12.186
46445SOL     OW41167  12.643   2.654  13.560
46445SOL    HW141168  12.727   2.688  13.531
46445SOL    HW241169  12.611   2.602  13.485
46446SOL     OW41170   6.263   3.987   4.138
46446SOL    HW141171   6.247   3.902   4.180
46446SOL    HW241172   6.186   4.039   4.162
46447SOL     OW41173  12.577  13.869   4.568
46447SOL    HW141174  12.536  13.876   4.654
46447SOL    HW241175  12.663  13.910   4.579
46448SOL     OW41176   8.048   6.814   6.331
46448SOL    HW141177   8.031   6.886   6.392
46448SOL    HW241178   8.135   6.783   6.353
46449SOL     OW41179  10.705   4.531   7.782
46449SOL    HW141180  10.726   4.562   7.870
46449SOL    HW241181  10.676   4.610   7.735
46450SOL     OW41182  12.123   4.194   5.174
46450SOL    HW141183  12.108   4.271   5.119
46450SOL    HW241184  12.079   4.123   5.127
46451SOL     OW41185   7.412   2.544   4.992
46451SOL    HW141186   7.465   2.622   5.006
46451SOL    HW241187   7.352   2.568   4.922
46452SOL     OW41188   8.438  12.350   2.298
46452SOL    HW141189   8.419  12.309   2.214
46452SOL    HW241190   8.505  12.294   2.338
46453SOL     OW41191   6.114   5.683   5.881
46453SOL    HW141192   6.019   5.684   5.877
46453SOL    HW241193   6.142   5.735   5.805
46454SOL     OW41194   4.617  12.930   0.756
46454SOL    HW141195   4.626  12.870   0.682
46454SOL    HW241196   4.686  12.903   0.817
46455SOL     OW41197   6.402   1.833   8.863
46455SOL    HW141198   6.407   1.738   8.856
46455SOL    HW241199   6.490   1.864   8.840
46456SOL     OW41200   5.181   3.019   1.220
46456SOL    HW141201   5.109   2.963   1.250
46456SOL    HW241202   5.142   3.073   1.152
46457SOL     OW41203  11.527  14.151   7.164
46457SOL    HW141204  11.514  14.131   7.257
46457SOL    HW241205  11.620  14.131   7.149
46458SOL     OW41206   9.936   4.403   8.668
46458SOL    HW141207   9.999   4.448   8.724
46458SOL    HW241208   9.915   4.323   8.715
46459SOL     OW41209   7.345   8.679  13.404
46459SOL    HW141210   7.314   8.592  13.431
46459SOL    HW241211   7.441   8.671  13.407
46460SOL     OW41212  12.363   3.219   3.058
46460SOL    HW141213  12.379   3.164   3.134
46460SOL    HW241214  12.282   3.183   3.019
46461SOL     OW41215  11.870   4.715   0.634
46461SOL    HW141216  11.855   4.799   0.678
46461SOL    HW241217  11.909   4.659   0.701
46462SOL     OW41218   9.342  14.292   2.343
46462SOL    HW141219   9.276  14.326   2.403
46462SOL    HW241220   9.371  14.369   2.293
46463SOL     OW41221   0.022   6.031   0.597
46463SOL    HW141222  14.834   5.993   0.540
46463SOL    HW241223   0.082   5.959   0.615
46464SOL     OW41224  13.931   5.885   4.833
46464SOL    HW141225  13.926   5.885   4.737
46464SOL    HW241226  13.841   5.903   4.861
46465SOL     OW41227   3.441   3.140   0.115
46465SOL    HW141228   3.503   3.113   0.183
46465SOL    HW241229   3.475   3.224   0.084
46466SOL     OW41230   6.412   6.422  13.714
46466SOL    HW141231   6.504   6.422  13.688
46466SOL    HW241232   6.365   6.445  13.634
46467SOL     OW41233  12.253  12.024  10.708
46467SOL    HW141234  12.342  12.057  10.709
46467SOL    HW241235  12.210  12.069  10.782
46468SOL     OW41236   9.027   8.991  10.659
46468SOL    HW141237   8.972   9.059  10.697
46468SOL    HW241238   8.970   8.914  10.651
46469SOL     OW41239  10.835   0.990   1.786
46469SOL    HW141240  10.770   1.055   1.813
46469SOL    HW241241  10.786   0.908   1.783
46470SOL     OW41242   9.364   0.774  10.398
46470SOL    HW141243   9.307   0.845  10.429
46470SOL    HW241244   9.319   0.738  10.322
46471SOL     OW41245   7.012   7.264  10.605
46471SOL    HW141246   6.987   7.246  10.695
46471SOL    HW241247   6.934   7.303  10.565
46472SOL     OW41248   3.654  10.862   3.073
46472SOL    HW141249   3.688  10.929   3.014
46472SOL    HW241250   3.661  10.900   3.160
46473SOL     OW41251   4.117   9.399  13.922
46473SOL    HW141252   4.047   9.366  13.979
46473SOL    HW241253   4.153   9.473  13.970
46474SOL     OW41254  12.297   0.125   8.068
46474SOL    HW141255  12.231   0.104   8.001
46474SOL    HW241256  12.367   0.062   8.053
46475SOL     OW41257   1.090   4.121  11.142
46475SOL    HW141258   1.086   4.093  11.051
46475SOL    HW241259   1.127   4.210  11.138
46476SOL     OW41260   5.542   3.309   8.388
46476SOL    HW141261   5.595   3.375   8.343
46476SOL    HW241262   5.607   3.248   8.424
46477SOL     OW41263   7.414   2.865   6.498
46477SOL    HW141264   7.505   2.894   6.509
46477SOL    HW241265   7.420   2.770   6.489
46478SOL     OW41266   9.912   8.288  10.743
46478SOL    HW141267   9.830   8.336  10.729
46478SOL    HW241268   9.895   8.201  10.708
46479SOL     OW41269  12.755   0.206   4.468
46479SOL    HW141270  12.845   0.220   4.500
46479SOL    HW241271  12.734   0.117   4.495
46480SOL     OW41272  13.010   3.644   0.821
46480SOL    HW141273  12.959   3.714   0.861
46480SOL    HW241274  13.089   3.638   0.874
46481SOL     OW41275   9.648   3.524   3.208
46481SOL    HW141276   9.677   3.611   3.238
46481SOL    HW241277   9.718   3.465   3.236
46482SOL     OW41278   7.595  13.676   9.449
46482SOL    HW141279   7.508  13.676   9.489
46482SOL    HW241280   7.599  13.758   9.399
46483SOL     OW41281   1.494  14.678  14.035
46483SOL    HW141282   1.496  14.769  14.004
46483SOL    HW241283   1.585  14.650  14.033
46484SOL     OW41284   8.690  12.733  13.179
46484SOL    HW141285   8.603  12.694  13.190
46484SOL    HW241286   8.673  12.826  13.167
46485SOL     OW41287  11.070  10.733   1.710
46485SOL    HW141288  11.078  10.701   1.620
46485SOL    HW241289  10.979  10.763   1.717
46486SOL     OW41290   8.619  10.734   5.547
46486SOL    HW141291   8.628  10.640   5.559
46486SOL    HW241292   8.641  10.750   5.455
46487SOL     OW41293   9.802  12.639  10.801
46487SOL    HW141294   9.732  12.580  10.773
46487SOL    HW241295   9.758  12.723  10.816
46488SOL     OW41296  12.295   7.324   1.536
46488SOL    HW141297  12.212   7.278   1.525
46488SOL    HW241298  12.283   7.379   1.613
46489SOL     OW41299  12.187   5.438  13.410
46489SOL    HW141300  12.243   5.379  13.359
46489SOL    HW241301  12.205   5.525  13.373
46490SOL     OW41302  14.603  13.847   1.275
46490SOL    HW141303  14.663  13.917   1.297
46490SOL    HW241304  14.653  13.766   1.289
46491SOL     OW41305  14.137  14.351   5.452
46491SOL    HW141306  14.171  14.440   5.463
46491SOL    HW241307  14.115  14.345   5.359
46492SOL     OW41308   5.983   2.365   3.091
46492SOL    HW141309   5.976   2.418   3.012
46492SOL    HW241310   6.072   2.379   3.122
46493SOL     OW41311   4.388  14.044  10.501
46493SOL    HW141312   4.333  13.981  10.549
46493SOL    HW241313   4.427  13.993  10.430
46494SOL     OW41314  12.009   4.760   6.649
46494SOL    HW141315  12.058   4.699   6.593
46494SOL    HW241316  12.065   4.838   6.653
46495SOL     OW41317  13.464  12.857  12.334
46495SOL    HW141318  13.404  12.923  12.301
46495SOL    HW241319  13.550  12.899  12.331
46496SOL     OW41320  10.555   4.234  14.404
46496SOL    HW141321  10.614   4.280  14.345
46496SOL    HW241322  10.608   4.213  14.481
46497SOL     OW41323   0.173   3.038   0.045
46497SOL    HW141324   0.234   3.112   0.040
46497SOL    HW241325   0.201   2.979  14.854
46498SOL     OW41326   6.569   3.295  12.498
46498SOL    HW141327   6.581   3.201  12.509
46498SOL    HW241328   6.580   3.309  12.404
46499SOL     OW41329   4.547   6.303   8.051
46499SOL    HW141330   4.456   6.306   8.019
46499SOL    HW241331   4.593   6.367   7.997
46500SOL     OW41332   6.956   7.535   2.537
46500SOL    HW141333   6.867   7.524   2.505
46500SOL    HW241334   6.997   7.449   2.526
46501SOL     OW41335   3.808   6.434   6.003
46501SOL    HW141336   3.801   6.511   5.947
46501SOL    HW241337   3.787   6.466   6.091
46502SOL     OW41338  11.791   0.410  13.536
46502SOL    HW141339  11.800   0.466  13.459
46502SOL    HW241340  11.714   0.356  13.517
46503SOL     OW41341  12.946   7.256   1.613
46503SOL    HW141342  12.939   7.342   1.655
46503SOL    HW241343  12.876   7.205   1.652
46504SOL     OW41344   1.188   8.355  13.359
46504SOL    HW141345   1.183   8.372  13.266
46504SOL    HW241346   1.098   8.339  13.386
46505SOL     OW41347   9.575  11.287   7.072
46505SOL    HW141348   9.583  11.376   7.039
46505SOL    HW241349   9.576  11.297   7.168
46506SOL     OW41350   7.101   2.068   4.582
46506SOL    HW141351   7.069   2.085   4.671
46506SOL    HW241352   7.031   2.101   4.525
46507SOL     OW41353   4.714   6.942  10.592
46507SOL    HW141354   4.760   6.944  10.508
46507SOL    HW241355   4.669   7.026  10.596
46508SOL     OW41356   8.436   5.688   2.040
46508SOL    HW141357   8.489   5.667   2.117
46508SOL    HW241358   8.474   5.636   1.969
46509SOL     OW41359   7.083   0.225   7.278
46509SOL    HW141360   7.020   0.257   7.213
46509SOL    HW241361   7.085   0.130   7.264
46510SOL     OW41362  10.221  11.997   5.362
46510SOL    HW141363  10.278  12.006   5.438
46510SOL    HW241364  10.190  12.086   5.346
46511SOL     OW41365   1.887   1.907  13.478
46511SOL    HW141366   1.915   1.861  13.399
46511SOL    HW241367   1.792   1.911  13.472
46512SOL     OW41368   3.188   9.935   2.019
46512SOL    HW141369   3.192   9.901   1.930
46512SOL    HW241370   3.129  10.010   2.014
46513SOL     OW41371   3.070   7.351  11.852
46513SOL    HW141372   3.133   7.360  11.924
46513SOL    HW241373   3.067   7.439  11.814
46514SOL     OW41374   6.025  11.323   5.915
46514SOL    HW141375   6.061  11.303   5.829
46514SOL    HW241376   6.087  11.385   5.953
46515SOL     OW41377  14.479  13.865   7.573
46515SOL    HW141378  14.424  13.936   7.539
46515SOL    HW241379  14.416  13.799   7.604
46516SOL     OW41380  13.722  13.877  10.493
46516SOL    HW141381  13.757  13.789  10.478
46516SOL    HW241382  13.799  13.932  10.509
46517SOL     OW41383   8.564   6.352   4.415
46517SOL    HW141384   8.529   6.350   4.504
46517SOL    HW241385   8.528   6.433   4.377
46518SOL     OW41386  11.550   0.194   1.168
46518SOL    HW141387  11.611   0.127   1.201
46518SOL    HW241388  11.583   0.276   1.205
46519SOL     OW41389  14.876   1.553  14.222
46519SOL    HW141390   0.005   1.533  14.129
46519SOL    HW241391   0.036   1.640  14.232
46520SOL     OW41392  12.834   2.308   6.635
46520SOL    HW141393  12.847   2.256   6.556
46520SOL    HW241394  12.754   2.358   6.618
46521SOL     OW41395   1.015   7.525   4.957
46521SOL    HW141396   0.969   7.577   4.892
46521SOL    HW241397   0.954   7.519   5.031
46522SOL     OW41398  14.145   3.800  10.089
46522SOL    HW141399  14.120   3.771  10.001
46522SOL    HW241400  14.177   3.889  10.077
46523SOL     OW41401  12.093   2.346   9.415
46523SOL    HW141402  12.126   2.410   9.352
46523SOL    HW241403  12.167   2.331   9.474
46524SOL     OW41404   3.302  12.023   7.072
46524SOL    HW141405   3.247  12.100   7.088
46524SOL    HW241406   3.245  11.949   7.089
46525SOL     OW41407   9.457   1.872  13.695
46525SOL    HW141408   9.450   1.897  13.787
46525SOL    HW241409   9.379   1.909  13.654
46526SOL     OW41410   6.513   7.966  14.749
46526SOL    HW141411   6.495   8.036  14.812
46526SOL    HW241412   6.605   7.976  14.727
46527SOL     OW41413   7.221   4.693  10.784
46527SOL    HW141414   7.170   4.617  10.756
46527SOL    HW241415   7.294   4.697  10.723
46528SOL     OW41416  11.552   7.630   6.822
46528SOL    HW141417  11.594   7.712   6.847
46528SOL    HW241418  11.546   7.580   6.904
46529SOL     OW41419  10.833   6.944   4.338
46529SOL    HW141420  10.864   6.974   4.252
46529SOL    HW241421  10.887   6.867   4.357
46530SOL     OW41422   8.462  10.202  11.449
46530SOL    HW141423   8.454  10.287  11.407
46530SOL    HW241424   8.508  10.147  11.386
46531SOL     OW41425   5.097   0.572   7.243
46531SOL    HW141426   5.076   0.484   7.212
46531SOL    HW241427   5.073   0.572   7.335
46532SOL     OW41428   5.516   4.788   9.266
46532SOL    HW141429   5.464   4.708   9.257
46532SOL    HW241430   5.455   4.859   9.248
46533SOL     OW41431   9.987   6.514  14.868
46533SOL    HW141432  10.075   6.497   0.022
46533SOL    HW241433   9.997   6.519  14.773
46534SOL     OW41434   2.100  11.152   3.457
46534SOL    HW141435   2.036  11.146   3.386
46534SOL    HW241436   2.094  11.068   3.503
46535SOL     OW41437   2.944  14.261   8.827
46535SOL    HW141438   3.016  14.199   8.836
46535SOL    HW241439   2.986  14.344   8.808
46536SOL     OW41440   3.838   3.740   1.492
46536SOL    HW141441   3.800   3.652   1.489
46536SOL    HW241442   3.817   3.772   1.580
46537SOL     OW41443  12.275  11.946   5.096
46537SOL    HW141444  12.347  12.003   5.124
46537SOL    HW241445  12.246  11.982   5.013
46538SOL     OW41446  12.721   2.604   4.741
46538SOL    HW141447  12.662   2.669   4.779
46538SOL    HW241448  12.683   2.520   4.767
46539SOL     OW41449  13.292  13.128  11.413
46539SOL    HW141450  13.282  13.080  11.331
46539SOL    HW241451  13.368  13.089  11.455
46540SOL     OW41452   7.224  13.149   8.731
46540SOL    HW141453   7.269  13.111   8.656
46540SOL    HW241454   7.137  13.110   8.729
46541SOL     OW41455   6.850  11.697   2.379
46541SOL    HW141456   6.792  11.706   2.454
46541SOL    HW241457   6.840  11.606   2.351
46542SOL     OW41458   3.451  10.811  10.022
46542SOL    HW141459   3.360  10.808  10.049
46542SOL    HW241460   3.449  10.852   9.935
46543SOL     OW41461  11.389  11.286  11.880
46543SOL    HW141462  11.344  11.246  11.954
46543SOL    HW241463  11.479  11.256  11.887
46544SOL     OW41464   4.362   1.024  13.937
46544SOL    HW141465   4.401   0.980  14.013
46544SOL    HW241466   4.417   0.997  13.863
46545SOL     OW41467   5.254  10.777   4.470
46545SOL    HW141468   5.274  10.842   4.403
46545SOL    HW241469   5.292  10.812   4.550
46546SOL     OW41470   7.844  14.527   5.043
46546SOL    HW141471   7.921  14.470   5.047
46546SOL    HW241472   7.771  14.466   5.031
46547SOL     OW41473  11.012  10.688   9.367
46547SOL    HW141474  10.998  10.646   9.283
46547SOL    HW241475  11.012  10.782   9.348
46548SOL     OW41476   4.186   4.240   9.406
46548SOL    HW141477   4.179   4.147   9.385
46548SOL    HW241478   4.158   4.245   9.498
46549SOL     OW41479   0.976  14.199   6.397
46549SOL    HW141480   0.997  14.106   6.413
46549SOL    HW241481   0.881  14.202   6.396
46550SOL     OW41482  10.712   0.561   5.396
46550SOL    HW141483  10.773   0.488   5.385
46550SOL    HW241484  10.673   0.548   5.482
46551SOL     OW41485   2.872   4.051   1.524
46551SOL    HW141486   2.912   4.132   1.492
46551SOL    HW241487   2.945   3.989   1.529
46552SOL     OW41488  11.518   4.131   2.298
46552SOL    HW141489  11.436   4.178   2.287
46552SOL    HW241490  11.557   4.168   2.377
46553SOL     OW41491   2.082   7.227   6.373
46553SOL    HW141492   2.047   7.268   6.294
46553SOL    HW241493   2.005   7.218   6.430
46554SOL     OW41494   1.594   6.331   0.826
46554SOL    HW141495   1.499   6.335   0.812
46554SOL    HW241496   1.631   6.379   0.752
46555SOL     OW41497  11.910   7.701   2.003
46555SOL    HW141498  11.974   7.736   2.065
46555SOL    HW241499  11.955   7.702   1.918
46556SOL     OW41500   4.503  12.391  14.618
46556SOL    HW141501   4.429  12.347  14.659
46556SOL    HW241502   4.464  12.451  14.554
46557SOL     OW41503  14.469   1.993  12.282
46557SOL    HW141504  14.512   1.961  12.360
46557SOL    HW241505  14.424   1.917  12.245
46558SOL     OW41506   0.694   2.821   1.839
46558SOL    HW141507   0.684   2.833   1.933
46558SOL    HW241508   0.665   2.731   1.823
46559SOL     OW41509   0.448  13.961   9.871
46559SOL    HW141510   0.383  13.995   9.809
46559SOL    HW241511   0.410  13.977   9.957
46560SOL     OW41512   5.556   6.549  12.366
46560SOL    HW141513   5.517   6.623  12.319
46560SOL    HW241514   5.639   6.534  12.322
46561SOL     OW41515   6.306  12.194   7.201
46561SOL    HW141516   6.398  12.185   7.178
46561SOL    HW241517   6.305  12.191   7.297
46562SOL     OW41518   3.268   6.168   4.255
46562SOL    HW141519   3.301   6.186   4.167
46562SOL    HW241520   3.251   6.255   4.292
46563SOL     OW41521   8.803   3.533   8.926
46563SOL    HW141522   8.846   3.587   8.859
46563SOL    HW241523   8.834   3.444   8.910
46564SOL     OW41524   0.639   9.583  14.827
46564SOL    HW141525   0.635   9.660  14.770
46564SOL    HW241526   0.638   9.509  14.766
46565SOL     OW41527   0.657   2.114  13.936
46565SOL    HW141528   0.682   2.128  14.028
46565SOL    HW241529   0.578   2.166  13.925
46566SOL     OW41530   5.905   2.893  11.365
46566SOL    HW141531   5.901   2.988  11.352
46566SOL    HW241532   5.851   2.856  11.296
46567SOL     OW41533   8.791   9.947   4.546
46567SOL    HW141534   8.747   9.980   4.624
46567SOL    HW241535   8.881   9.980   4.553
46568SOL     OW41536   1.411   3.539  13.429
46568SOL    HW141537   1.433   3.472  13.494
46568SOL    HW241538   1.451   3.507  13.348
46569SOL     OW41539  13.197   8.164  12.603
46569SOL    HW141540  13.245   8.174  12.685
46569SOL    HW241541  13.220   8.076  12.572
46570SOL     OW41542   1.821   3.366   4.737
46570SOL    HW141543   1.821   3.315   4.818
46570SOL    HW241544   1.875   3.314   4.677
46571SOL     OW41545  12.638   6.926   0.332
46571SOL    HW141546  12.712   6.981   0.358
46571SOL    HW241547  12.583   6.923   0.411
46572SOL     OW41548  11.838   3.708   3.503
46572SOL    HW141549  11.851   3.727   3.411
46572SOL    HW241550  11.745   3.683   3.509
46573SOL     OW41551  13.735   8.982   5.106
46573SOL    HW141552  13.692   8.981   5.020
46573SOL    HW241553  13.827   8.965   5.086
46574SOL     OW41554  11.295   6.311   8.913
46574SOL    HW141555  11.356   6.242   8.938
46574SOL    HW241556  11.247   6.331   8.994
46575SOL     OW41557   7.961   9.241   3.065
46575SOL    HW141558   8.042   9.276   3.029
46575SOL    HW241559   7.986   9.158   3.105
46576SOL     OW41560  12.969  13.787  13.557
46576SOL    HW141561  12.957  13.879  13.533
46576SOL    HW241562  13.052  13.762  13.515
46577SOL     OW41563   0.939  12.962   5.361
46577SOL    HW141564   1.027  12.995   5.342
46577SOL    HW241565   0.905  13.023   5.426
46578SOL     OW41566  11.164  13.303   8.501
46578SOL    HW141567  11.076  13.303   8.539
46578SOL    HW241568  11.151  13.331   8.411
46579SOL     OW41569   8.245  14.338  13.062
46579SOL    HW141570   8.242  14.243  13.071
46579SOL    HW241571   8.269  14.370  13.148
46580SOL     OW41572   4.570   3.202  11.404
46580SOL    HW141573   4.479   3.173  11.409
46580SOL    HW241574   4.564   3.293  11.375
46581SOL     OW41575  13.945  14.068  14.862
46581SOL    HW141576  14.025  14.023  14.834
46581SOL    HW241577  13.966  14.161  14.856
46582SOL     OW41578   5.925   1.920   0.145
46582SOL    HW141579   5.920   1.997   0.202
46582SOL    HW241580   5.879   1.851   0.193
46583SOL     OW41581   6.854  12.744   1.155
46583SOL    HW141582   6.922  12.722   1.091
46583SOL    HW241583   6.858  12.840   1.161
46584SOL     OW41584  12.253   1.247  10.117
46584SOL    HW141585  12.323   1.310  10.102
46584SOL    HW241586  12.286   1.191  10.188
46585SOL     OW41587   7.761   1.722  12.646
46585SOL    HW141588   7.673   1.694  12.620
46585SOL    HW241589   7.817   1.647  12.624
46586SOL     OW41590   7.797   6.161  14.598
46586SOL    HW141591   7.711   6.186  14.630
46586SOL    HW241592   7.806   6.069  14.620
46587SOL     OW41593   9.083   1.816   1.246
46587SOL    HW141594   9.169   1.853   1.231
46587SOL    HW241595   9.098   1.746   1.310
46588SOL     OW41596   8.885   5.100   7.696
46588SOL    HW141597   8.886   5.020   7.644
46588SOL    HW241598   8.810   5.090   7.754
46589SOL     OW41599   8.691   9.797  13.140
46589SOL    HW141600   8.735   9.730  13.087
46589SOL    HW241601   8.612   9.754  13.172
46590SOL     OW41602  12.756   8.417   3.809
46590SOL    HW141603  12.703   8.472   3.750
46590SOL    HW241604  12.837   8.466   3.821
46591SOL     OW41605  10.205   8.790  11.828
46591SOL    HW141606  10.179   8.767  11.739
46591SOL    HW241607  10.155   8.730  11.883
46592SOL     OW41608  14.107  11.003   5.492
46592SOL    HW141609  14.177  10.970   5.435
46592SOL    HW241610  14.118  10.953   5.573
46593SOL     OW41611   4.958  14.191   4.952
46593SOL    HW141612   4.872  14.177   4.911
46593SOL    HW241613   4.938  14.206   5.045
46594SOL     OW41614  10.081  11.804  13.447
46594SOL    HW141615  10.055  11.770  13.533
46594SOL    HW241616  10.174  11.784  13.441
46595SOL     OW41617  14.250   7.824   7.752
46595SOL    HW141618  14.183   7.801   7.688
46595SOL    HW241619  14.242   7.919   7.762
46596SOL     OW41620  12.875   8.408   9.918
46596SOL    HW141621  12.842   8.494   9.891
46596SOL    HW241622  12.966   8.424   9.942
46597SOL     OW41623  10.052   6.847   8.881
46597SOL    HW141624  10.126   6.810   8.928
46597SOL    HW241625   9.995   6.883   8.949
46598SOL     OW41626   3.627   2.219   0.207
46598SOL    HW141627   3.639   2.270   0.127
46598SOL    HW241628   3.577   2.142   0.179
46599SOL     OW41629   2.012   0.477  14.717
46599SOL    HW141630   2.014   0.572  14.733
46599SOL    HW241631   2.087   0.443  14.765
46600SOL     OW41632  12.085   8.671   3.513
46600SOL    HW141633  12.124   8.589   3.542
46600SOL    HW241634  12.069   8.659   3.420
46601SOL     OW41635  14.384   2.167   5.338
46601SOL    HW141636  14.435   2.089   5.359
46601SOL    HW241637  14.301   2.132   5.304
46602SOL     OW41638   6.705   7.187  14.191
46602SOL    HW141639   6.679   7.202  14.282
46602SOL    HW241640   6.713   7.275  14.154
46603SOL     OW41641   5.048   2.840   2.817
46603SOL    HW141642   5.011   2.873   2.898
46603SOL    HW241643   5.113   2.905   2.792
46604SOL     OW41644  12.229   9.084   7.411
46604SOL    HW141645  12.221   9.078   7.506
46604SOL    HW241646  12.286   9.010   7.388
46605SOL     OW41647  11.692   7.350  10.441
46605SOL    HW141648  11.601   7.347  10.410
46605SOL    HW241649  11.720   7.258  10.441
46606SOL     OW41650   3.536   9.758   6.628
46606SOL    HW141651   3.468   9.694   6.652
46606SOL    HW241652   3.547   9.812   6.706
46607SOL     OW41653  13.678   8.135   2.121
46607SOL    HW141654  13.667   8.167   2.031
46607SOL    HW241655  13.711   8.211   2.169
46608SOL     OW41656  11.846   7.853   2.863
46608SOL    HW141657  11.768   7.906   2.877
46608SOL    HW241658  11.876   7.876   2.775
46609SOL     OW41659   6.844   5.505   1.318
46609SOL    HW141660   6.777   5.455   1.364
46609SOL    HW241661   6.809   5.516   1.230
46610SOL     OW41662   0.484   7.776   6.581
46610SOL    HW141663   0.573   7.781   6.546
46610SOL    HW241664   0.462   7.867   6.603
46611SOL     OW41665  13.058   3.232  14.591
46611SOL    HW141666  13.037   3.144  14.559
46611SOL    HW241667  13.064   3.222  14.686
46612SOL     OW41668   1.906  10.121   3.952
46612SOL    HW141669   1.997  10.095   3.934
46612SOL    HW241670   1.854  10.075   3.887
46613SOL     OW41671  13.752  13.137   7.631
46613SOL    HW141672  13.696  13.063   7.608
46613SOL    HW241673  13.830  13.097   7.669
46614SOL     OW41674   6.395   3.080   7.207
46614SOL    HW141675   6.360   3.107   7.122
46614SOL    HW241676   6.393   2.984   7.205
46615SOL     OW41677  10.995   9.589   9.316
46615SOL    HW141678  11.054   9.523   9.354
46615SOL    HW241679  10.917   9.540   9.292
46616SOL     OW41680   7.493   7.042  10.899
46616SOL    HW141681   7.481   6.957  10.941
46616SOL    HW241682   7.512   7.020  10.807
46617SOL     OW41683   1.867   7.986   3.451
46617SOL    HW141684   1.908   7.942   3.376
46617SOL    HW241685   1.777   8.002   3.423
46618SOL     OW41686   6.967   9.093  13.072
46618SOL    HW141687   6.949   9.007  13.110
46618SOL    HW241688   6.981   9.075  12.979
46619SOL     OW41689   0.131   4.431  10.240
46619SOL    HW141690   0.040   4.456  10.224
46619SOL    HW241691   0.140   4.434  10.335
46620SOL     OW41692   2.861   5.529  14.737
46620SOL    HW141693   2.931   5.468  14.716
46620SOL    HW241694   2.781   5.475  14.735
46621SOL     OW41695  14.243   9.034   8.321
46621SOL    HW141696  14.330   9.058   8.288
46621SOL    HW241697  14.203   9.118   8.343
46622SOL     OW41698   9.862   3.324  11.077
46622SOL    HW141699   9.870   3.413  11.042
46622SOL    HW241700   9.946   3.282  11.055
46623SOL     OW41701   4.408  10.000  12.556
46623SOL    HW141702   4.461   9.935  12.603
46623SOL    HW241703   4.330  10.011  12.609
46624SOL     OW41704   2.984  12.897  14.712
46624SOL    HW141705   2.993  12.963  14.643
46624SOL    HW241706   2.954  12.946  14.788
46625SOL     OW41707  12.494   9.015   8.365
46625SOL    HW141708  12.544   8.965   8.431
46625SOL    HW241709  12.453   8.948   8.310
46626SOL     OW41710  12.270  14.711   4.125
46626SOL    HW141711  12.226  14.761   4.056
46626SOL    HW241712  12.291  14.627   4.084
46627SOL     OW41713   1.509   2.851   4.127
46627SOL    HW141714   1.569   2.824   4.197
46627SOL    HW241715   1.557   2.834   4.046
46628SOL     OW41716  12.989   7.194   9.245
46628SOL    HW141717  13.065   7.228   9.197
46628SOL    HW241718  12.945   7.272   9.279
46629SOL     OW41719   9.645  13.751   5.583
46629SOL    HW141720   9.583  13.747   5.655
46629SOL    HW241721   9.592  13.773   5.506
46630SOL     OW41722   9.422  11.009  13.894
46630SOL    HW141723   9.474  11.048  13.964
46630SOL    HW241724   9.374  10.939  13.936
46631SOL     OW41725   3.231   6.391   6.903
46631SOL    HW141726   3.240   6.421   6.813
46631SOL    HW241727   3.207   6.469   6.953
46632SOL     OW41728   3.780  10.770   9.333
46632SOL    HW141729   3.834  10.694   9.313
46632SOL    HW241730   3.810  10.799   9.419
46633SOL     OW41731   8.182   2.234   0.276
46633SOL    HW141732   8.247   2.288   0.321
46633SOL    HW241733   8.102   2.244   0.329
46634SOL     OW41734   8.509  14.544   1.378
46634SOL    HW141735   8.570  14.596   1.430
46634SOL    HW241736   8.433  14.600   1.367
46635SOL     OW41737  12.386  13.431  10.284
46635SOL    HW141738  12.301  13.401  10.253
46635SOL    HW241739  12.377  13.433  10.379
46636SOL     OW41740   1.127   5.287   5.783
46636SOL    HW141741   1.038   5.317   5.800
46636SOL    HW241742   1.123   5.249   5.695
46637SOL     OW41743  12.357   5.544  12.888
46637SOL    HW141744  12.298   5.517  12.958
46637SOL    HW241745  12.435   5.578  12.933
46638SOL     OW41746   6.213   3.145  11.744
46638SOL    HW141747   6.166   3.066  11.718
46638SOL    HW241748   6.193   3.209  11.676
46639SOL     OW41749  13.581   2.230  14.550
46639SOL    HW141750  13.539   2.313  14.524
46639SOL    HW241751  13.526   2.198  14.621
46640SOL     OW41752   8.903   9.645   4.488
46640SOL    HW141753   8.886   9.708   4.558
46640SOL    HW241754   8.959   9.692   4.426
46641SOL     OW41755   3.774   6.412   4.574
46641SOL    HW141756   3.840   6.480   4.561
46641SOL    HW241757   3.752   6.419   4.667
46642SOL     OW41758   0.561  10.773   8.509
46642SOL    HW141759   0.623  10.793   8.439
46642SOL    HW241760   0.586  10.685   8.539
46643SOL     OW41761   7.809   2.217   0.632
46643SOL    HW141762   7.747   2.259   0.691
46643SOL    HW241763   7.805   2.124   0.655
46644SOL     OW41764  10.397   4.088   2.714
46644SOL    HW141765  10.332   4.116   2.650
46644SOL    HW241766  10.481   4.094   2.669
46645SOL     OW41767  13.174   2.826  10.465
46645SOL    HW141768  13.107   2.894  10.467
46645SOL    HW241769  13.209   2.831  10.376
46646SOL     OW41770   9.890   9.040   5.564
46646SOL    HW141771   9.839   9.027   5.483
46646SOL    HW241772   9.956   9.105   5.541
46647SOL     OW41773   5.067  12.678   3.708
46647SOL    HW141774   5.089  12.767   3.737
46647SOL    HW241775   5.146  12.647   3.664
46648SOL     OW41776   0.195   2.339   4.716
46648SOL    HW141777   0.238   2.387   4.644
46648SOL    HW241778   0.245   2.363   4.794
46649SOL     OW41779   7.213   0.762   7.331
46649SOL    HW141780   7.126   0.776   7.293
46649SOL    HW241781   7.228   0.668   7.321
46650SOL     OW41782   3.176   8.076  10.119
46650SOL    HW141783   3.223   8.071  10.036
46650SOL    HW241784   3.115   8.149  10.107
46651SOL     OW41785   0.427   0.779   0.013
46651SOL    HW141786   0.498   0.812  14.836
46651SOL    HW241787   0.398   0.856   0.062
46652SOL     OW41788   6.947  14.474  11.768
46652SOL    HW141789   6.970  14.545  11.827
46652SOL    HW241790   6.950  14.395  11.822
46653SOL     OW41791   4.782   3.496   4.834
46653SOL    HW141792   4.838   3.461   4.903
46653SOL    HW241793   4.756   3.419   4.782
46654SOL     OW41794   3.838   4.348  14.795
46654SOL    HW141795   3.858   4.424  14.850
46654SOL    HW241796   3.918   4.296  14.796
46655SOL     OW41797  13.856   6.547  10.342
46655SOL    HW141798  13.854   6.637  10.375
46655SOL    HW241799  13.795   6.499  10.399
46656SOL     OW41800   2.374  11.406   4.379
46656SOL    HW141801   2.344  11.477   4.434
46656SOL    HW241802   2.448  11.442   4.331
46657SOL     OW41803   6.192  12.177   8.296
46657SOL    HW141804   6.220  12.246   8.235
46657SOL    HW241805   6.225  12.096   8.257
46658SOL     OW41806   9.883  11.266   7.926
46658SOL    HW141807   9.858  11.323   7.999
46658SOL    HW241808   9.834  11.185   7.940
46659SOL     OW41809  11.319   3.123  14.253
46659SOL    HW141810  11.395   3.145  14.305
46659SOL    HW241811  11.350   3.055  14.193
46660SOL     OW41812  12.736  12.779   1.149
46660SOL    HW141813  12.732  12.837   1.225
46660SOL    HW241814  12.820  12.735   1.157
46661SOL     OW41815  11.205   2.706   4.892
46661SOL    HW141816  11.278   2.670   4.942
46661SOL    HW241817  11.192   2.794   4.928
46662SOL     OW41818  11.180  12.422  12.135
46662SOL    HW141819  11.129  12.341  12.127
46662SOL    HW241820  11.252  12.400  12.194
46663SOL     OW41821  13.046   8.661   8.729
46663SOL    HW141822  13.069   8.601   8.658
46663SOL    HW241823  13.047   8.606   8.808
46664SOL     OW41824   2.006   1.836  13.718
46664SOL    HW141825   2.044   1.913  13.760
46664SOL    HW241826   1.995   1.862  13.626
46665SOL     OW41827   5.712  10.552   3.835
46665SOL    HW141828   5.619  10.541   3.855
46665SOL    HW241829   5.728  10.645   3.849
46666SOL     OW41830   6.248   9.775   4.789
46666SOL    HW141831   6.312   9.731   4.733
46666SOL    HW241832   6.215   9.706   4.846
46667SOL     OW41833  12.572  10.449   2.849
46667SOL    HW141834  12.537  10.536   2.867
46667SOL    HW241835  12.636  10.462   2.779
46668SOL     OW41836   8.233   5.421  12.703
46668SOL    HW141837   8.256   5.434  12.611
46668SOL    HW241838   8.296   5.475  12.751
46669SOL     OW41839   9.611   7.023   1.071
46669SOL    HW141840   9.634   7.115   1.061
46669SOL    HW241841   9.675   6.989   1.133
46670SOL     OW41842   2.926  13.021   3.421
46670SOL    HW141843   3.013  13.045   3.388
46670SOL    HW241844   2.916  12.929   3.397
46671SOL     OW41845   9.141   7.649   4.101
46671SOL    HW141846   9.152   7.743   4.090
46671SOL    HW241847   9.148   7.613   4.012
46672SOL     OW41848  11.387   7.805   6.376
46672SOL    HW141849  11.479   7.801   6.349
46672SOL    HW241850  11.389   7.786   6.470
46673SOL     OW41851   9.707   8.171   3.027
46673SOL    HW141852   9.613   8.158   3.025
46673SOL    HW241853   9.728   8.177   3.121
46674SOL     OW41854   6.923   0.618   9.944
46674SOL    HW141855   6.914   0.565  10.024
46674SOL    HW241856   6.855   0.685   9.951
46675SOL     OW41857  12.661   0.392   0.865
46675SOL    HW141858  12.741   0.398   0.916
46675SOL    HW241859  12.691   0.381   0.774
46676SOL     OW41860   8.601  14.196  14.451
46676SOL    HW141861   8.687  14.234  14.469
46676SOL    HW241862   8.608  14.162  14.362
46677SOL     OW41863   0.137   0.466   3.569
46677SOL    HW141864   0.206   0.405   3.542
46677SOL    HW241865   0.156   0.484   3.661
46678SOL     OW41866   3.916   7.248   5.656
46678SOL    HW141867   3.910   7.171   5.600
46678SOL    HW241868   3.868   7.316   5.609
46679SOL     OW41869   2.626   1.388   2.457
46679SOL    HW141870   2.614   1.403   2.551
46679SOL    HW241871   2.635   1.293   2.450
46680SOL     OW41872   3.901   7.670   1.166
46680SOL    HW141873   3.928   7.669   1.074
46680SOL    HW241874   3.808   7.645   1.164
46681SOL     OW41875  14.492   0.440  11.315
46681SOL    HW141876  14.503   0.366  11.374
46681SOL    HW241877  14.397   0.456  11.314
46682SOL     OW41878   8.111   2.416   5.902
46682SOL    HW141879   8.022   2.442   5.881
46682SOL    HW241880   8.133   2.467   5.980
46683SOL     OW41881   7.011  12.888   6.987
46683SOL    HW141882   6.920  12.917   7.000
46683SOL    HW241883   7.063  12.950   7.039
46684SOL     OW41884  13.718  11.776   5.952
46684SOL    HW141885  13.696  11.767   5.859
46684SOL    HW241886  13.681  11.698   5.993
46685SOL     OW41887   1.163   6.239   3.905
46685SOL    HW141888   1.180   6.311   3.844
46685SOL    HW241889   1.205   6.266   3.987
46686SOL     OW41890  10.394   9.923   9.060
46686SOL    HW141891  10.402  10.011   9.022
46686SOL    HW241892  10.365   9.938   9.150
46687SOL     OW41893   2.502   0.865   1.745
46687SOL    HW141894   2.520   0.958   1.750
46687SOL    HW241895   2.586   0.825   1.723
46688SOL     OW41896   2.340   9.931   4.854
46688SOL    HW141897   2.295  10.006   4.893
46688SOL    HW241898   2.406   9.969   4.797
46689SOL     OW41899  13.053   1.508  13.050
46689SOL    HW141900  12.988   1.578  13.060
46689SOL    HW241901  13.022   1.437  13.107
46690SOL     OW41902   4.219   5.359   4.695
46690SOL    HW141903   4.135   5.395   4.724
46690SOL    HW241904   4.285   5.407   4.745
46691SOL     OW41905   7.633   3.178  13.114
46691SOL    HW141906   7.643   3.145  13.025
46691SOL    HW241907   7.542   3.157  13.137
46692SOL     OW41908  12.401   5.174  13.900
46692SOL    HW141909  12.317   5.150  13.862
46692SOL    HW241910  12.382   5.185  13.994
46693SOL     OW41911  14.130  13.279   2.904
46693SOL    HW141912  14.175  13.283   2.820
46693SOL    HW241913  14.145  13.190   2.935
46694SOL     OW41914   3.859   6.445   8.814
46694SOL    HW141915   3.779   6.397   8.836
46694SOL    HW241916   3.928   6.379   8.818
46695SOL     OW41917  13.687  13.924   6.855
46695SOL    HW141918  13.750  13.972   6.909
46695SOL    HW241919  13.740  13.886   6.785
46696SOL     OW41920   7.135   5.326   8.955
46696SOL    HW141921   7.197   5.355   9.022
46696SOL    HW241922   7.182   5.259   8.906
46697SOL     OW41923  10.154   5.278   6.768
46697SOL    HW141924  10.167   5.223   6.691
46697SOL    HW241925  10.222   5.251   6.829
46698SOL     OW41926   5.850   7.836  13.551
46698SOL    HW141927   5.900   7.889  13.489
46698SOL    HW241928   5.911   7.818  13.622
46699SOL     OW41929   5.579  12.179   7.733
46699SOL    HW141930   5.664  12.190   7.689
46699SOL    HW241931   5.602  12.159   7.823
46700SOL     OW41932   9.019   1.926  14.370
46700SOL    HW141933   9.031   1.987  14.298
46700SOL    HW241934   8.944   1.872  14.344
46701SOL     OW41935   5.692  12.107   6.447
46701SOL    HW141936   5.768  12.090   6.391
46701SOL    HW241937   5.725  12.095   6.536
46702SOL     OW41938  12.852   7.533   6.683
46702SOL    HW141939  12.893   7.496   6.605
46702SOL    HW241940  12.760   7.506   6.677
46703SOL     OW41941   1.601  11.845  11.476
46703SOL    HW141942   1.667  11.776  11.478
46703SOL    HW241943   1.578  11.858  11.568
46704SOL     OW41944   7.317   8.500  10.110
46704SOL    HW141945   7.397   8.482  10.160
46704SOL    HW241946   7.333   8.586  10.070
46705SOL     OW41947   9.835  11.074   4.436
46705SOL    HW141948   9.918  11.122   4.438
46705SOL    HW241949   9.772  11.137   4.401
46706SOL     OW41950  10.933  14.661  10.720
46706SOL    HW141951  10.865  14.694  10.662
46706SOL    HW241952  10.980  14.596  10.667
46707SOL     OW41953  12.681   4.388   1.614
46707SOL    HW141954  12.734   4.319   1.654
46707SOL    HW241955  12.698   4.466   1.667
46708SOL     OW41956   2.426   1.568  14.420
46708SOL    HW141957   2.484   1.603  14.352
46708SOL    HW241958   2.344   1.548  14.375
46709SOL     OW41959   9.249  10.485  11.021
46709SOL    HW141960   9.174  10.455  11.072
46709SOL    HW241961   9.316  10.419  11.036
46710SOL     OW41962   5.086  10.840   2.919
46710SOL    HW141963   5.052  10.752   2.900
46710SOL    HW241964   5.009  10.896   2.921
46711SOL     OW41965   3.377   9.234  14.599
46711SOL    HW141966   3.430   9.207  14.524
46711SOL    HW241967   3.431   9.298  14.645
46712SOL     OW41968   3.642  14.811   7.434
46712SOL    HW141969   3.631  14.723   7.396
46712SOL    HW241970   3.690  14.796   7.515
46713SOL     OW41971   8.314   4.578   5.944
46713SOL    HW141972   8.319   4.634   6.022
46713SOL    HW241973   8.399   4.590   5.900
46714SOL     OW41974   5.349  13.573  14.231
46714SOL    HW141975   5.276  13.558  14.172
46714SOL    HW241976   5.427  13.558  14.177
46715SOL     OW41977  13.254   0.963   3.676
46715SOL    HW141978  13.263   0.919   3.592
46715SOL    HW241979  13.171   0.932   3.711
46716SOL     OW41980  13.295   9.399   3.533
46716SOL    HW141981  13.367   9.339   3.551
46716SOL    HW241982  13.334   9.486   3.541
46717SOL     OW41983   7.534   4.654   1.566
46717SOL    HW141984   7.571   4.591   1.504
46717SOL    HW241985   7.600   4.661   1.635
46718SOL     OW41986   5.818  12.928   6.165
46718SOL    HW141987   5.726  12.929   6.138
46718SOL    HW241988   5.817  12.880   6.248
46719SOL     OW41989  11.299   0.894   9.056
46719SOL    HW141990  11.210   0.871   9.028
46719SOL    HW241991  11.356   0.840   9.001
46720SOL     OW41992  10.865  11.128   6.496
46720SOL    HW141993  10.817  11.057   6.539
46720SOL    HW241994  10.891  11.092   6.411
46721SOL     OW41995   6.993   8.615  10.602
46721SOL    HW141996   6.927   8.673  10.562
46721SOL    HW241997   7.050   8.675  10.651
46722SOL     OW41998  10.717   5.166   5.357
46722SOL    HW141999  10.727   5.074   5.333
46722SOL    HW242000  10.725   5.167   5.452
46723SOL     OW42001   4.383  14.416   3.956
46723SOL    HW142002   4.354  14.375   4.038
46723SOL    HW242003   4.419  14.501   3.984
46724SOL     OW42004   0.705  14.656   1.757
46724SOL    HW142005   0.751  14.690   1.834
46724SOL    HW242006   0.675  14.569   1.783
46725SOL     OW42007  11.740   9.781   7.491
46725SOL    HW142008  11.678   9.736   7.433
46725SOL    HW242009  11.697   9.865   7.511
46726SOL     OW42010   1.331  10.010   3.213
46726SOL    HW142011   1.314   9.975   3.300
46726SOL    HW242012   1.255  10.066   3.194
46727SOL     OW42013  13.904  13.959   7.423
46727SOL    HW142014  13.853  13.958   7.503
46727SOL    HW242015  13.846  13.922   7.357
46728SOL     OW42016   5.405   2.412  10.968
46728SOL    HW142017   5.314   2.382  10.965
46728SOL    HW242018   5.403   2.490  11.023
46729SOL     OW42019   6.279  12.561   4.631
46729SOL    HW142020   6.350  12.572   4.693
46729SOL    HW242021   6.294  12.628   4.564
46730SOL     OW42022   5.028  13.744   9.195
46730SOL    HW142023   4.941  13.770   9.224
46730SOL    HW242024   5.031  13.766   9.102
46731SOL     OW42025   8.614   6.038   2.859
46731SOL    HW142026   8.659   6.081   2.786
46731SOL    HW242027   8.524   6.071   2.855
46732SOL     OW42028   8.147   3.468   1.071
46732SOL    HW142029   8.104   3.410   1.008
46732SOL    HW242030   8.222   3.417   1.103
46733SOL     OW42031  13.729  12.642   5.576
46733SOL    HW142032  13.749  12.583   5.503
46733SOL    HW242033  13.633  12.641   5.582
46734SOL     OW42034  14.795  12.735  13.452
46734SOL    HW142035  14.823  12.825  13.465
46734SOL    HW242036  14.852  12.702  13.383
46735SOL     OW42037   0.880   3.953   3.307
46735SOL    HW142038   0.846   4.033   3.345
46735SOL    HW242039   0.864   3.886   3.373
46736SOL     OW42040   3.214   0.950   0.312
46736SOL    HW142041   3.222   0.921   0.403
46736SOL    HW242042   3.156   1.026   0.316
46737SOL     OW42043  10.583   6.076   6.081
46737SOL    HW142044  10.535   6.158   6.070
46737SOL    HW242045  10.577   6.058   6.175
46738SOL     OW42046  14.023   1.794   2.215
46738SOL    HW142047  14.087   1.734   2.253
46738SOL    HW242048  13.951   1.796   2.279
46739SOL     OW42049   3.965  11.230  11.892
46739SOL    HW142050   3.965  11.256  11.800
46739SOL    HW242051   4.040  11.276  11.929
46740SOL     OW42052   8.959  14.691   0.823
46740SOL    HW142053   8.994  14.608   0.855
46740SOL    HW242054   9.024  14.723   0.761
46741SOL     OW42055  14.753   2.923  11.701
46741SOL    HW142056  14.714   2.866  11.634
46741SOL    HW242057  14.724   3.011  11.677
46742SOL     OW42058   2.159   4.708   2.004
46742SOL    HW142059   2.180   4.801   1.993
46742SOL    HW242060   2.180   4.690   2.096
46743SOL     OW42061   8.146   0.644  11.833
46743SOL    HW142062   8.198   0.669  11.909
46743SOL    HW242063   8.076   0.709  11.829
46744SOL     OW42064   5.143   2.212   9.084
46744SOL    HW142065   5.219   2.252   9.127
46744SOL    HW242066   5.144   2.121   9.114
46745SOL     OW42067   1.432   7.861  11.456
46745SOL    HW142068   1.426   7.813  11.539
46745SOL    HW242069   1.488   7.936  11.476
46746SOL     OW42070  12.507  10.106  12.604
46746SOL    HW142071  12.482  10.034  12.547
46746SOL    HW242072  12.594  10.082  12.637
46747SOL     OW42073   0.530   2.806   9.222
46747SOL    HW142074   0.548   2.741   9.155
46747SOL    HW242075   0.521   2.755   9.303
46748SOL     OW42076  12.633  13.315  10.950
46748SOL    HW142077  12.599  13.292  10.864
46748SOL    HW242078  12.712  13.366  10.932
46749SOL     OW42079  12.787   9.772  13.722
46749SOL    HW142080  12.871   9.817  13.724
46749SOL    HW242081  12.805   9.684  13.755
46750SOL     OW42082   7.289  13.641  11.361
46750SOL    HW142083   7.305  13.622  11.269
46750SOL    HW242084   7.194  13.652  11.367
46751SOL     OW42085  12.889  11.396   3.458
46751SOL    HW142086  12.837  11.355   3.389
46751SOL    HW242087  12.933  11.323   3.502
46752SOL     OW42088  10.158   5.779   6.119
46752SOL    HW142089  10.077   5.759   6.166
46752SOL    HW242090  10.146   5.739   6.033
46753SOL     OW42091  10.468  12.466  13.522
46753SOL    HW142092  10.442  12.434  13.608
46753SOL    HW242093  10.452  12.560  13.526
46754SOL     OW42094   4.757   4.928   1.273
46754SOL    HW142095   4.765   4.996   1.206
46754SOL    HW242096   4.664   4.923   1.292
46755SOL     OW42097   1.413  13.778   9.380
46755SOL    HW142098   1.457  13.702   9.416
46755SOL    HW242099   1.341  13.742   9.328
46756SOL     OW42100  10.860   7.317  10.961
46756SOL    HW142101  10.836   7.224  10.956
46756SOL    HW242102  10.776   7.363  10.963
46757SOL     OW42103  13.801  11.970   1.793
46757SOL    HW142104  13.852  11.890   1.787
46757SOL    HW242105  13.849  12.025   1.854
46758SOL     OW42106   6.521   1.326   9.003
46758SOL    HW142107   6.523   1.231   9.012
46758SOL    HW242108   6.594   1.347   8.946
46759SOL     OW42109   3.469   1.937  12.340
46759SOL    HW142110   3.483   1.845  12.315
46759SOL    HW242111   3.545   1.958  12.395
46760SOL     OW42112  10.236  10.084  11.015
46760SOL    HW142113  10.207  10.087  10.924
46760SOL    HW242114  10.331  10.080  11.010
46761SOL     OW42115   4.413   4.542  10.251
46761SOL    HW142116   4.425   4.574  10.340
46761SOL    HW242117   4.499   4.507  10.226
46762SOL     OW42118   5.214   1.806   3.533
46762SOL    HW142119   5.231   1.732   3.591
46762SOL    HW242120   5.241   1.776   3.447
46763SOL     OW42121   0.393   5.376   5.473
46763SOL    HW142122   0.328   5.389   5.542
46763SOL    HW242123   0.369   5.293   5.433
46764SOL     OW42124   7.675   8.628   5.461
46764SOL    HW142125   7.734   8.686   5.509
46764SOL    HW242126   7.727   8.549   5.443
46765SOL     OW42127  14.070   4.622   4.047
46765SOL    HW142128  14.043   4.688   4.110
46765SOL    HW242129  14.129   4.565   4.096
46766SOL     OW42130   4.190   1.698  13.858
46766SOL    HW142131   4.266   1.721  13.911
46766SOL    HW242132   4.118   1.690  13.920
46767SOL     OW42133  11.499   1.161   5.577
46767SOL    HW142134  11.496   1.102   5.501
46767SOL    HW242135  11.407   1.179   5.596
46768SOL     OW42136   4.083   3.465   7.151
46768SOL    HW142137   4.039   3.388   7.116
46768SOL    HW242138   4.026   3.496   7.221
46769SOL     OW42139  12.946  14.366   6.711
46769SOL    HW142140  12.875  14.429   6.714
46769SOL    HW242141  13.018  14.412   6.669
46770SOL     OW42142   7.379   9.012   6.402
46770SOL    HW142143   7.364   8.982   6.313
46770SOL    HW242144   7.451   9.075   6.394
46771SOL     OW42145  14.061  11.503   4.575
46771SOL    HW142146  14.045  11.580   4.629
46771SOL    HW242147  13.975  11.483   4.536
46772SOL     OW42148   9.104   0.097   5.231
46772SOL    HW142149   9.016   0.130   5.214
46772SOL    HW242150   9.161   0.147   5.172
46773SOL     OW42151   4.411   5.792   3.490
46773SOL    HW142152   4.501   5.826   3.479
46773SOL    HW242153   4.420   5.720   3.552
46774SOL     OW42154   4.990   3.590   0.707
46774SOL    HW142155   4.910   3.538   0.696
46774SOL    HW242156   4.976   3.637   0.789
46775SOL     OW42157   8.450  11.501  10.863
46775SOL    HW142158   8.427  11.430  10.803
46775SOL    HW242159   8.546  11.506  10.858
46776SOL     OW42160  12.113   3.717   0.141
46776SOL    HW142161  12.174   3.645   0.127
46776SOL    HW242162  12.033   3.675   0.172
46777SOL     OW42163   5.632   0.525   1.927
46777SOL    HW142164   5.698   0.511   1.995
46777SOL    HW242165   5.666   0.477   1.851
46778SOL     OW42166   4.658  14.813   9.243
46778SOL    HW142167   4.741  14.852   9.270
46778SOL    HW242168   4.595   0.006   9.244
46779SOL     OW42169   1.701   9.814   2.901
46779SOL    HW142170   1.747   9.865   2.834
46779SOL    HW242171   1.617   9.859   2.912
46780SOL     OW42172   8.709  11.149   3.863
46780SOL    HW142173   8.623  11.176   3.832
46780SOL    HW242174   8.769  11.174   3.794
46781SOL     OW42175   4.805  14.434   7.991
46781SOL    HW142176   4.844  14.362   8.041
46781SOL    HW242177   4.868  14.453   7.922
46782SOL     OW42178  12.433  12.115   2.889
46782SOL    HW142179  12.430  12.186   2.825
46782SOL    HW242180  12.341  12.100   2.912
46783SOL     OW42181   9.314  11.556   6.667
46783SOL    HW142182   9.294  11.505   6.588
46783SOL    HW242183   9.235  11.608   6.683
46784SOL     OW42184  14.213   0.622   2.071
46784SOL    HW142185  14.239   0.589   1.985
46784SOL    HW242186  14.126   0.660   2.057
46785SOL     OW42187   3.790   7.346  14.543
46785SOL    HW142188   3.762   7.255  14.538
46785SOL    HW242189   3.742   7.389  14.472
46786SOL     OW42190  13.545   2.513   0.339
46786SOL    HW142191  13.489   2.461   0.281
46786SOL    HW242192  13.486   2.541   0.410
46787SOL     OW42193   6.524   2.705   5.608
46787SOL    HW142194   6.553   2.792   5.636
46787SOL    HW242195   6.492   2.718   5.519
46788SOL     OW42196   3.626   1.455   9.609
46788SOL    HW142197   3.717   1.448   9.580
46788SOL    HW242198   3.603   1.547   9.595
46789SOL     OW42199   3.947  12.644  14.314
46789SOL    HW142200   3.986  12.730  14.327
46789SOL    HW242201   4.003  12.584  14.364
46790SOL     OW42202  11.021  12.473   2.595
46790SOL    HW142203  11.045  12.540   2.659
46790SOL    HW242204  10.942  12.507   2.554
46791SOL     OW42205   4.888  10.195   5.284
46791SOL    HW142206   4.897  10.141   5.362
46791SOL    HW242207   4.808  10.164   5.242
46792SOL     OW42208  10.957   6.513   5.623
46792SOL    HW142209  11.023   6.497   5.690
46792SOL    HW242210  10.920   6.599   5.646
46793SOL     OW42211   1.898   2.535   5.714
46793SOL    HW142212   1.845   2.539   5.794
46793SOL    HW242213   1.837   2.559   5.644
46794SOL     OW42214   4.222   3.929  14.481
46794SOL    HW142215   4.162   3.991  14.523
46794SOL    HW242216   4.171   3.850  14.469
46795SOL     OW42217   7.643  13.232   9.629
46795SOL    HW142218   7.722  13.274   9.594
46795SOL    HW242219   7.647  13.250   9.723
46796SOL     OW42220   1.821   6.901  13.784
46796SOL    HW142221   1.828   6.836  13.714
46796SOL    HW242222   1.737   6.881  13.826
46797SOL     OW42223   9.019  10.814   7.890
46797SOL    HW142224   8.942  10.833   7.835
46797SOL    HW242225   9.000  10.856   7.973
46798SOL     OW42226   6.785  11.609   5.937
46798SOL    HW142227   6.746  11.524   5.917
46798SOL    HW242228   6.838  11.630   5.860
46799SOL     OW42229  11.809   6.936   6.719
46799SOL    HW142230  11.893   6.960   6.759
46799SOL    HW242231  11.748   7.003   6.749
46800SOL     OW42232   4.476   1.210   0.288
46800SOL    HW142233   4.438   1.131   0.327
46800SOL    HW242234   4.421   1.228   0.212
46801SOL     OW42235  14.811  10.665   5.630
46801SOL    HW142236  14.725  10.695   5.661
46801SOL    HW242237  14.873  10.725   5.670
46802SOL     OW42238   3.932   5.122   7.355
46802SOL    HW142239   3.851   5.123   7.303
46802SOL    HW242240   3.907   5.083   7.439
46803SOL     OW42241   4.067   4.841   4.668
46803SOL    HW142242   4.094   4.784   4.740
46803SOL    HW242243   4.105   4.926   4.689
46804SOL     OW42244  14.285  13.085   8.049
46804SOL    HW142245  14.349  13.059   7.984
46804SOL    HW242246  14.335  13.097   8.129
46805SOL     OW42247  14.578   3.664   1.817
46805SOL    HW142248  14.611   3.613   1.743
46805SOL    HW242249  14.490   3.630   1.832
46806SOL     OW42250   4.420  12.551   6.557
46806SOL    HW142251   4.384  12.463   6.555
46806SOL    HW242252   4.358  12.604   6.506
46807SOL     OW42253   3.574   3.726  14.686
46807SOL    HW142254   3.485   3.717  14.652
46807SOL    HW242255   3.571   3.805  14.739
46808SOL     OW42256  14.146   9.819  10.058
46808SOL    HW142257  14.173   9.876  10.130
46808SOL    HW242258  14.155   9.730  10.092
46809SOL     OW42259   3.725   7.945   2.871
46809SOL    HW142260   3.649   7.918   2.923
46809SOL    HW242261   3.725   8.040   2.876
46810SOL     OW42262   0.629   6.494   3.069
46810SOL    HW142263   0.622   6.467   2.977
46810SOL    HW242264   0.611   6.414   3.118
46811SOL     OW42265   1.033  10.290   9.915
46811SOL    HW142266   0.998  10.259   9.998
46811SOL    HW242267   1.060  10.380   9.933
46812SOL     OW42268  10.780   8.476   2.924
46812SOL    HW142269  10.772   8.572   2.917
46812SOL    HW242270  10.755   8.444   2.838
46813SOL     OW42271  13.742   2.461  14.795
46813SOL    HW142272  13.787   2.478  14.713
46813SOL    HW242273  13.727   2.548  14.833
46814SOL     OW42274   3.346   2.696   9.456
46814SOL    HW142275   3.388   2.634   9.397
46814SOL    HW242276   3.298   2.755   9.398
46815SOL     OW42277   2.788   6.271   1.716
46815SOL    HW142278   2.874   6.312   1.702
46815SOL    HW242279   2.754   6.314   1.795
46816SOL     OW42280  14.244  10.649   0.380
46816SOL    HW142281  14.152  10.635   0.359
46816SOL    HW242282  14.250  10.631   0.474
46817SOL     OW42283  13.251   6.367   2.592
46817SOL    HW142284  13.326   6.404   2.638
46817SOL    HW242285  13.200   6.444   2.564
46818SOL     OW42286   0.362   5.635   4.527
46818SOL    HW142287   0.301   5.606   4.596
46818SOL    HW242288   0.322   5.714   4.492
46819SOL     OW42289   8.875  11.119   8.138
46819SOL    HW142290   8.911  11.126   8.050
46819SOL    HW242291   8.877  11.209   8.172
46820SOL     OW42292   8.588   5.131   3.737
46820SOL    HW142293   8.664   5.076   3.757
46820SOL    HW242294   8.587   5.136   3.641
46821SOL     OW42295  11.229  11.152   3.655
46821SOL    HW142296  11.276  11.081   3.611
46821SOL    HW242297  11.201  11.115   3.738
46822SOL     OW42298   0.613  11.060  13.811
46822SOL    HW142299   0.691  11.021  13.771
46822SOL    HW242300   0.554  10.986  13.825
46823SOL     OW42301   7.328   5.893   7.031
46823SOL    HW142302   7.334   5.915   6.938
46823SOL    HW242303   7.348   5.975   7.076
46824SOL     OW42304  11.834   7.108   9.316
46824SOL    HW142305  11.767   7.166   9.353
46824SOL    HW242306  11.841   7.036   9.378
46825SOL     OW42307   0.460   1.363   8.574
46825SOL    HW142308   0.387   1.318   8.532
46825SOL    HW242309   0.420   1.411   8.647
46826SOL     OW42310   1.907   6.476   0.892
46826SOL    HW142311   1.878   6.443   0.977
46826SOL    HW242312   1.973   6.413   0.863
46827SOL     OW42313   4.979   1.180   3.388
46827SOL    HW142314   4.926   1.259   3.380
46827SOL    HW242315   4.917   1.108   3.381
46828SOL     OW42316  11.624   3.115   9.135
46828SOL    HW142317  11.602   3.181   9.069
46828SOL    HW242318  11.690   3.158   9.190
46829SOL     OW42319  11.196   1.223   0.784
46829SOL    HW142320  11.196   1.300   0.726
46829SOL    HW242321  11.148   1.156   0.735
46830SOL     OW42322   8.313   2.379  10.499
46830SOL    HW142323   8.290   2.362  10.590
46830SOL    HW242324   8.375   2.451  10.502
46831SOL     OW42325  13.319   1.395  14.036
46831SOL    HW142326  13.330   1.368  13.945
46831SOL    HW242327  13.295   1.487  14.031
46832SOL     OW42328   5.358   4.103   4.115
46832SOL    HW142329   5.354   4.008   4.119
46832SOL    HW242330   5.392   4.130   4.200
46833SOL     OW42331  14.709   0.270  13.164
46833SOL    HW142332  14.784   0.329  13.171
46833SOL    HW242333  14.720   0.208  13.236
46834SOL     OW42334   3.620  14.746   4.025
46834SOL    HW142335   3.604  14.819   4.086
46834SOL    HW242336   3.559  14.761   3.953
46835SOL     OW42337   8.187   8.529  10.366
46835SOL    HW142338   8.269   8.500  10.406
46835SOL    HW242339   8.199   8.512  10.272
46836SOL     OW42340  11.201  11.345  14.376
46836SOL    HW142341  11.249  11.401  14.436
46836SOL    HW242342  11.237  11.365  14.290
46837SOL     OW42343   6.726  13.515  10.977
46837SOL    HW142344   6.689  13.500  10.890
46837SOL    HW242345   6.818  13.537  10.961
46838SOL     OW42346   3.032  10.342   1.304
46838SOL    HW142347   2.981  10.261   1.311
46838SOL    HW242348   3.052  10.349   1.211
46839SOL     OW42349   2.909  12.482   6.616
46839SOL    HW142350   2.854  12.551   6.654
46839SOL    HW242351   2.850  12.407   6.606
46840SOL     OW42352  11.771   5.718  13.980
46840SOL    HW142353  11.776   5.636  14.029
46840SOL    HW242354  11.701   5.703  13.916
46841SOL     OW42355   6.791   2.377   7.695
46841SOL    HW142356   6.778   2.356   7.788
46841SOL    HW242357   6.886   2.381   7.685
46842SOL     OW42358  14.656   5.399  10.476
46842SOL    HW142359  14.678   5.470  10.536
46842SOL    HW242360  14.590   5.348  10.523
46843SOL     OW42361  13.083   1.426  11.187
46843SOL    HW142362  13.107   1.406  11.278
46843SOL    HW242363  12.991   1.450  11.191
46844SOL     OW42364  12.808   2.632  12.861
46844SOL    HW142365  12.729   2.666  12.819
46844SOL    HW242366  12.858   2.710  12.884
46845SOL     OW42367   7.486   9.482   5.593
46845SOL    HW142368   7.391   9.471   5.587
46845SOL    HW242369   7.497   9.567   5.636
46846SOL     OW42370   6.382   5.141   7.534
46846SOL    HW142371   6.368   5.220   7.482
46846SOL    HW242372   6.300   5.093   7.529
46847SOL     OW42373  11.442   0.418   5.197
46847SOL    HW142374  11.471   0.429   5.107
46847SOL    HW242375  11.464   0.327   5.218
46848SOL     OW42376   5.223   5.154   0.388
46848SOL    HW142377   5.160   5.160   0.460
46848SOL    HW242378   5.277   5.232   0.397
46849SOL     OW42379   6.759   9.121  13.551
46849SOL    HW142380   6.704   9.087  13.623
46849SOL    HW242381   6.760   9.050  13.487
46850SOL     OW42382   9.152   8.444   2.486
46850SOL    HW142383   9.093   8.406   2.420
46850SOL    HW242384   9.233   8.460   2.438
46851SOL     OW42385   9.278  13.182   5.493
46851SOL    HW142386   9.330  13.108   5.525
46851SOL    HW242387   9.205  13.188   5.553
46852SOL     OW42388   3.429   7.318  11.021
46852SOL    HW142389   3.479   7.238  11.037
46852SOL    HW242390   3.465   7.382  11.082
46853SOL     OW42391  12.847   1.535  11.281
46853SOL    HW142392  12.810   1.623  11.284
46853SOL    HW242393  12.775   1.478  11.308
46854SOL     OW42394  12.807  14.802   5.928
46854SOL    HW142395  12.752  14.775   6.002
46854SOL    HW242396  12.800  14.729   5.865
46855SOL     OW42397  11.745  10.308   5.270
46855SOL    HW142398  11.742  10.366   5.346
46855SOL    HW242399  11.830  10.327   5.229
46856SOL     OW42400   7.306  14.009   5.401
46856SOL    HW142401   7.334  14.077   5.339
46856SOL    HW242402   7.308  14.052   5.486
46857SOL     OW42403   8.476  13.247  13.314
46857SOL    HW142404   8.458  13.179  13.380
46857SOL    HW242405   8.571  13.254  13.313
46858SOL     OW42406   5.830  13.888   7.397
46858SOL    HW142407   5.829  13.795   7.377
46858SOL    HW242408   5.873  13.929   7.321
46859SOL     OW42409   9.809  12.359   6.406
46859SOL    HW142410   9.755  12.282   6.420
46859SOL    HW242411   9.863  12.365   6.485
46860SOL     OW42412   5.420   6.979   8.128
46860SOL    HW142413   5.481   7.037   8.175
46860SOL    HW242414   5.447   6.891   8.154
46861SOL     OW42415   9.068   3.225   1.472
46861SOL    HW142416   9.150   3.209   1.426
46861SOL    HW242417   9.041   3.313   1.444
46862SOL     OW42418   6.809  13.081  10.338
46862SOL    HW142419   6.879  13.017  10.327
46862SOL    HW242420   6.729  13.029  10.333
46863SOL     OW42421  13.379   7.722  14.003
46863SOL    HW142422  13.304   7.676  13.964
46863SOL    HW242423  13.367   7.814  13.977
46864SOL     OW42424   4.978   6.039   0.285
46864SOL    HW142425   4.891   6.010   0.256
46864SOL    HW242426   4.972   6.039   0.380
46865SOL     OW42427   4.054  11.414   8.264
46865SOL    HW142428   4.071  11.332   8.310
46865SOL    HW242429   3.986  11.392   8.200
46866SOL     OW42430   5.718  12.782   9.986
46866SOL    HW142431   5.738  12.691  10.008
46866SOL    HW242432   5.791  12.832  10.023
46867SOL     OW42433  12.911  10.883   3.919
46867SOL    HW142434  12.864  10.865   4.001
46867SOL    HW242435  13.003  10.874   3.942
46868SOL     OW42436   6.247   7.971   9.932
46868SOL    HW142437   6.213   7.993  10.019
46868SOL    HW242438   6.237   8.052   9.882
46869SOL     OW42439   1.828   6.229   7.940
46869SOL    HW142440   1.838   6.319   7.972
46869SOL    HW242441   1.738   6.226   7.907
46870SOL     OW42442   0.775   8.912   1.536
46870SOL    HW142443   0.759   8.818   1.528
46870SOL    HW242444   0.735   8.936   1.620
46871SOL     OW42445   8.807   9.599   7.347
46871SOL    HW142446   8.804   9.523   7.289
46871SOL    HW242447   8.865   9.661   7.303
46872SOL     OW42448   0.240   2.107   0.863
46872SOL    HW142449   0.216   2.086   0.773
46872SOL    HW242450   0.164   2.154   0.898
46873SOL     OW42451   2.353  13.719   8.565
46873SOL    HW142452   2.427  13.677   8.610
46873SOL    HW242453   2.324  13.788   8.624
46874SOL     OW42454   3.691  10.466  12.566
46874SOL    HW142455   3.626  10.433  12.503
46874SOL    HW242456   3.712  10.554  12.535
46875SOL     OW42457   2.271   7.920  14.741
46875SOL    HW142458   2.332   7.994  14.745
46875SOL    HW242459   2.252   7.909  14.648
46876SOL     OW42460   9.223   4.232   6.995
46876SOL    HW142461   9.180   4.245   7.079
46876SOL    HW242462   9.169   4.280   6.932
46877SOL     OW42463   2.769   1.198   6.501
46877SOL    HW142464   2.729   1.245   6.428
46877SOL    HW242465   2.698   1.146   6.539
46878SOL     OW42466   5.499   1.888  13.135
46878SOL    HW142467   5.432   1.853  13.077
46878SOL    HW242468   5.562   1.817  13.145
46879SOL     OW42469   9.271   0.405   6.030
46879SOL    HW142470   9.324   0.368   5.960
46879SOL    HW242471   9.328   0.406   6.107
46880SOL     OW42472   9.211   4.487   5.855
46880SOL    HW142473   9.272   4.515   5.787
46880SOL    HW242474   9.255   4.413   5.897
46881SOL     OW42475  12.862  13.772   9.702
46881SOL    HW142476  12.918  13.709   9.658
46881SOL    HW242477  12.892  13.857   9.670
46882SOL     OW42478  10.586   7.184   3.479
46882SOL    HW142479  10.526   7.189   3.554
46882SOL    HW242480  10.608   7.275   3.460
46883SOL     OW42481  13.925   8.093   3.065
46883SOL    HW142482  13.969   8.154   3.125
46883SOL    HW242483  13.896   8.021   3.120
46884SOL     OW42484  14.419  12.481  14.824
46884SOL    HW142485  14.398  12.418   0.015
46884SOL    HW242486  14.512  12.502  14.839
46885SOL     OW42487   7.693   6.527   9.433
46885SOL    HW142488   7.761   6.571   9.484
46885SOL    HW242489   7.706   6.559   9.344
46886SOL     OW42490  13.849  11.473   7.493
46886SOL    HW142491  13.933  11.427   7.494
46886SOL    HW242492  13.786  11.408   7.463
46887SOL     OW42493   0.894   1.706   7.706
46887SOL    HW142494   0.817   1.691   7.650
46887SOL    HW242495   0.864   1.770   7.771
46888SOL     OW42496   4.126   8.496   3.316
46888SOL    HW142497   4.192   8.511   3.249
46888SOL    HW242498   4.061   8.564   3.302
46889SOL     OW42499   7.420   0.926  13.263
46889SOL    HW142500   7.446   0.848  13.214
46889SOL    HW242501   7.325   0.920  13.269
46890SOL     OW42502   5.194   9.292   0.293
46890SOL    HW142503   5.243   9.262   0.370
46890SOL    HW242504   5.145   9.368   0.324
46891SOL     OW42505  11.615  14.001   0.980
46891SOL    HW142506  11.628  14.092   0.951
46891SOL    HW242507  11.581  14.010   1.069
46892SOL     OW42508   6.212   3.280   7.372
46892SOL    HW142509   6.168   3.355   7.332
46892SOL    HW242510   6.202   3.210   7.308
46893SOL     OW42511   9.811   2.025   5.898
46893SOL    HW142512   9.834   2.045   5.989
46893SOL    HW242513   9.883   2.062   5.846
46894SOL     OW42514  10.786   2.601   8.196
46894SOL    HW142515  10.737   2.626   8.274
46894SOL    HW242516  10.720   2.574   8.133
46895SOL     OW42517   9.937  12.777   4.921
46895SOL    HW142518   9.921  12.702   4.979
46895SOL    HW242519  10.029  12.799   4.936
46896SOL     OW42520  10.585  10.728  14.838
46896SOL    HW142521  10.621  10.731  14.749
46896SOL    HW242522  10.490  10.724  14.826
46897SOL     OW42523   2.107   0.026   3.093
46897SOL    HW142524   2.073   0.083   3.025
46897SOL    HW242525   2.029  14.875   3.141
46898SOL     OW42526   1.321   8.337  10.939
46898SOL    HW142527   1.280   8.401  10.997
46898SOL    HW242528   1.342   8.387  10.860
46899SOL     OW42529   4.163   0.376  11.038
46899SOL    HW142530   4.082   0.330  11.016
46899SOL    HW242531   4.143   0.468  11.021
46900SOL     OW42532   5.977   3.154   2.937
46900SOL    HW142533   5.940   3.073   2.973
46900SOL    HW242534   6.020   3.196   3.012
46901SOL     OW42535   5.201   7.901   5.997
46901SOL    HW142536   5.266   7.935   5.936
46901SOL    HW242537   5.122   7.892   5.944
46902SOL     OW42538   0.552  14.563   7.426
46902SOL    HW142539   0.472  14.569   7.479
46902SOL    HW242540   0.555  14.646   7.379
46903SOL     OW42541  10.448   8.763   8.117
46903SOL    HW142542  10.398   8.683   8.101
46903SOL    HW242543  10.420   8.823   8.048
46904SOL     OW42544   6.367   3.453  11.052
46904SOL    HW142545   6.328   3.424  10.969
46904SOL    HW242546   6.458   3.471  11.031
46905SOL     OW42547   5.303   7.843  10.911
46905SOL    HW142548   5.248   7.766  10.896
46905SOL    HW242549   5.265   7.887  10.986
46906SOL     OW42550  13.384   3.456   6.326
46906SOL    HW142551  13.426   3.373   6.345
46906SOL    HW242552  13.308   3.434   6.273
46907SOL     OW42553   9.860  10.342   8.501
46907SOL    HW142554   9.785  10.384   8.459
46907SOL    HW242555   9.841  10.347   8.594
46908SOL     OW42556   1.133   0.269   2.751
46908SOL    HW142557   1.151   0.216   2.829
46908SOL    HW242558   1.219   0.296   2.720
46909SOL     OW42559  11.943  14.836   4.916
46909SOL    HW142560  11.866  14.779   4.923
46909SOL    HW242561  11.946  14.861   4.824
46910SOL     OW42562   3.879   6.967   5.491
46910SOL    HW142563   3.795   6.947   5.449
46910SOL    HW242564   3.931   7.007   5.421
46911SOL     OW42565   1.165   7.656   8.749
46911SOL    HW142566   1.136   7.677   8.660
46911SOL    HW242567   1.138   7.731   8.802
46912SOL     OW42568  14.020   8.608  14.847
46912SOL    HW142569  13.927   8.591  14.836
46912SOL    HW242570  14.052   8.628  14.759
46913SOL     OW42571   0.785   5.467   3.060
46913SOL    HW142572   0.798   5.479   2.966
46913SOL    HW242573   0.759   5.375   3.068
46914SOL     OW42574  10.236   5.275   0.580
46914SOL    HW142575  10.273   5.330   0.511
46914SOL    HW242576  10.305   5.270   0.646
46915SOL     OW42577   8.562  14.220  12.459
46915SOL    HW142578   8.657  14.229  12.455
46915SOL    HW242579   8.529  14.290  12.402
46916SOL     OW42580   0.246   6.089  14.738
46916SOL    HW142581   0.271   5.997  14.730
46916SOL    HW242582   0.228   6.101  14.831
46917SOL     OW42583   8.605   0.273   5.553
46917SOL    HW142584   8.686   0.234   5.520
46917SOL    HW242585   8.616   0.367   5.542
46918SOL     OW42586   0.078   1.612  14.597
46918SOL    HW142587   0.048   1.566  14.675
46918SOL    HW242588   0.100   1.700  14.627
46919SOL     OW42589   6.427   0.735   3.994
46919SOL    HW142590   6.390   0.665   3.941
46919SOL    HW242591   6.393   0.816   3.955
46920SOL     OW42592   5.354  12.538   3.223
46920SOL    HW142593   5.398  12.622   3.208
46920SOL    HW242594   5.426  12.478   3.243
46921SOL     OW42595   1.992   9.212   4.495
46921SOL    HW142596   1.896   9.206   4.503
46921SOL    HW242597   2.006   9.237   4.403
46922SOL     OW42598  11.364   8.667   8.322
46922SOL    HW142599  11.271   8.684   8.305
46922SOL    HW242600  11.372   8.667   8.417
46923SOL     OW42601   7.114  12.324   6.905
46923SOL    HW142602   7.034  12.286   6.869
46923SOL    HW242603   7.090  12.413   6.929
46924SOL     OW42604  13.867  10.646   8.242
46924SOL    HW142605  13.829  10.683   8.163
46924SOL    HW242606  13.851  10.552   8.234
46925SOL     OW42607   2.415   2.264   1.926
46925SOL    HW142608   2.400   2.175   1.957
46925SOL    HW242609   2.438   2.313   2.005
46926SOL     OW42610   4.552   9.255   8.305
46926SOL    HW142611   4.593   9.250   8.392
46926SOL    HW242612   4.468   9.210   8.316
46927SOL     OW42613   7.476  12.260  10.218
46927SOL    HW142614   7.462  12.252  10.124
46927SOL    HW242615   7.563  12.298  10.227
46928SOL     OW42616   3.047   3.575   1.083
46928SOL    HW142617   3.096   3.655   1.099
46928SOL    HW242618   3.013   3.584   0.994
46929SOL     OW42619   5.127   5.075   6.874
46929SOL    HW142620   5.058   5.076   6.808
46929SOL    HW242621   5.166   4.988   6.866
46930SOL     OW42622   9.730   6.663   5.710
46930SOL    HW142623   9.785   6.608   5.765
46930SOL    HW242624   9.782   6.743   5.696
46931SOL     OW42625   5.540   3.991   0.440
46931SOL    HW142626   5.453   3.993   0.400
46931SOL    HW242627   5.596   4.039   0.379
46932SOL     OW42628   8.910   1.017   5.264
46932SOL    HW142629   8.865   0.985   5.185
46932SOL    HW242630   9.002   1.024   5.237
46933SOL     OW42631   0.964  10.941   5.676
46933SOL    HW142632   1.024  10.927   5.750
46933SOL    HW242633   0.975  10.862   5.622
46934SOL     OW42634   7.857   8.272   2.387
46934SOL    HW142635   7.787   8.325   2.425
46934SOL    HW242636   7.905   8.333   2.330
46935SOL     OW42637   8.811   2.080   1.057
46935SOL    HW142638   8.834   2.149   0.994
46935SOL    HW242639   8.894   2.042   1.083
46936SOL     OW42640  12.949  13.911   0.651
46936SOL    HW142641  12.916  13.846   0.589
46936SOL    HW242642  12.891  13.986   0.641
46937SOL     OW42643   5.931   2.017   3.698
46937SOL    HW142644   5.886   1.933   3.703
46937SOL    HW242645   5.906   2.063   3.778
46938SOL     OW42646  12.997   6.478   4.025
46938SOL    HW142647  12.905   6.454   4.034
46938SOL    HW242648  13.033   6.465   4.113
46939SOL     OW42649   3.176   9.129   6.300
46939SOL    HW142650   3.107   9.170   6.351
46939SOL    HW242651   3.142   9.042   6.279
46940SOL     OW42652  11.185   4.363   6.864
46940SOL    HW142653  11.112   4.349   6.804
46940SOL    HW242654  11.148   4.348   6.951
46941SOL     OW42655   5.377   7.066   7.043
46941SOL    HW142656   5.375   7.011   7.121
46941SOL    HW242657   5.455   7.121   7.054
46942SOL     OW42658  11.772   4.893   4.283
46942SOL    HW142659  11.676   4.892   4.284
46942SOL    HW242660  11.797   4.803   4.306
46943SOL     OW42661   4.946  11.135  11.766
46943SOL    HW142662   5.012  11.081  11.723
46943SOL    HW242663   4.986  11.159  11.850
46944SOL     OW42664   0.763   1.363   5.009
46944SOL    HW142665   0.843   1.363   4.957
46944SOL    HW242666   0.787   1.409   5.090
46945SOL     OW42667   7.951   4.659   4.429
46945SOL    HW142668   7.978   4.634   4.341
46945SOL    HW242669   8.028   4.702   4.467
46946SOL     OW42670   4.578  14.827  14.251
46946SOL    HW142671   4.608   0.030  14.291
46946SOL    HW242672   4.508  14.854  14.192
46947SOL     OW42673   6.949   2.385   5.177
46947SOL    HW142674   6.989   2.330   5.244
46947SOL    HW242675   6.862   2.406   5.212
46948SOL     OW42676   9.853   9.144   5.126
46948SOL    HW142677   9.800   9.079   5.080
46948SOL    HW242678   9.855   9.113   5.216
46949SOL     OW42679   9.742   8.168   6.672
46949SOL    HW142680   9.699   8.217   6.603
46949SOL    HW242681   9.676   8.159   6.741
46950SOL     OW42682  14.805   2.957   2.640
46950SOL    HW142683  14.779   2.879   2.590
46950SOL    HW242684  14.759   2.948   2.723
46951SOL     OW42685   8.649  10.644  10.507
46951SOL    HW142686   8.577  10.593  10.544
46951SOL    HW242687   8.727  10.595  10.531
46952SOL     OW42688   2.010   5.567  14.265
46952SOL    HW142689   2.003   5.472  14.276
46952SOL    HW242690   2.102   5.587  14.278
46953SOL     OW42691  10.778  12.948   4.457
46953SOL    HW142692  10.696  12.899   4.463
46953SOL    HW242693  10.752  13.040   4.463
46954SOL     OW42694   8.980   2.728   9.038
46954SOL    HW142695   8.910   2.783   9.073
46954SOL    HW242696   9.014   2.777   8.964
46955SOL     OW42697  12.309   0.312   9.581
46955SOL    HW142698  12.219   0.299   9.552
46955SOL    HW242699  12.330   0.234   9.632
46956SOL     OW42700   6.560  11.413   3.280
46956SOL    HW142701   6.655  11.400   3.283
46956SOL    HW242702   6.524  11.325   3.293
46957SOL     OW42703   1.010   0.763   3.672
46957SOL    HW142704   0.967   0.848   3.668
46957SOL    HW242705   0.954   0.711   3.730
46958SOL     OW42706  14.295  11.523   3.730
46958SOL    HW142707  14.366  11.502   3.792
46958SOL    HW242708  14.307  11.616   3.711
46959SOL     OW42709  14.605   5.716   2.899
46959SOL    HW142710  14.613   5.624   2.925
46959SOL    HW242711  14.684   5.757   2.934
46960SOL     OW42712   5.496  13.268   4.494
46960SOL    HW142713   5.500  13.173   4.484
46960SOL    HW242714   5.418  13.294   4.446
46961SOL     OW42715  13.424   9.844   2.824
46961SOL    HW142716  13.430   9.763   2.773
46961SOL    HW242717  13.504   9.892   2.803
46962SOL     OW42718  14.282   6.695   3.891
46962SOL    HW142719  14.213   6.759   3.911
46962SOL    HW242720  14.238   6.610   3.895
46963SOL     OW42721   9.858   9.700   9.289
46963SOL    HW142722   9.870   9.606   9.301
46963SOL    HW242723   9.936   9.728   9.240
46964SOL     OW42724  14.398   1.708   3.922
46964SOL    HW142725  14.355   1.661   3.994
46964SOL    HW242726  14.491   1.705   3.945
46965SOL     OW42727  14.326  11.765   4.806
46965SOL    HW142728  14.284  11.729   4.728
46965SOL    HW242729  14.387  11.831   4.772
46966SOL     OW42730   2.497   3.480   1.802
46966SOL    HW142731   2.486   3.484   1.707
46966SOL    HW242732   2.412   3.450   1.834
46967SOL     OW42733  14.246  13.457   0.734
46967SOL    HW142734  14.276  13.548   0.726
46967SOL    HW242735  14.233  13.445   0.828
46968SOL     OW42736  10.221   4.204   4.023
46968SOL    HW142737  10.224   4.197   3.928
46968SOL    HW242738  10.252   4.119   4.054
46969SOL     OW42739   5.965   3.683   3.526
46969SOL    HW142740   5.925   3.719   3.446
46969SOL    HW242741   5.943   3.748   3.593
46970SOL     OW42742   2.537   8.280   0.869
46970SOL    HW142743   2.530   8.254   0.777
46970SOL    HW242744   2.630   8.278   0.888
46971SOL     OW42745  12.550   8.665  13.010
46971SOL    HW142746  12.617   8.602  13.035
46971SOL    HW242747  12.467   8.623  13.032
46972SOL     OW42748   6.207   3.184   9.974
46972SOL    HW142749   6.194   3.237  10.053
46972SOL    HW242750   6.166   3.100   9.994
46973SOL     OW42751   2.891  14.624   4.191
46973SOL    HW142752   2.903  14.691   4.123
46973SOL    HW242753   2.888  14.542   4.142
46974SOL     OW42754  14.386  13.568   1.315
46974SOL    HW142755  14.404  13.480   1.350
46974SOL    HW242756  14.305  13.595   1.358
46975SOL     OW42757   3.572  14.057   3.819
46975SOL    HW142758   3.544  14.070   3.728
46975SOL    HW242759   3.631  13.982   3.815
46976SOL     OW42760   8.882   9.795  14.814
46976SOL    HW142761   8.794   9.793  14.775
46976SOL    HW242762   8.913   9.884  14.799
46977SOL     OW42763   6.902   2.996   7.280
46977SOL    HW142764   6.834   3.062   7.291
46977SOL    HW242765   6.984   3.044   7.288
46978SOL     OW42766   2.145   9.280   7.988
46978SOL    HW142767   2.227   9.271   7.940
46978SOL    HW242768   2.078   9.246   7.928
46979SOL     OW42769  13.757  13.720   4.936
46979SOL    HW142770  13.807  13.736   4.856
46979SOL    HW242771  13.703  13.798   4.946
46980SOL     OW42772  13.788   1.362   9.250
46980SOL    HW142773  13.845   1.401   9.316
46980SOL    HW242774  13.827   1.277   9.232
46981SOL     OW42775   2.803  13.124   7.577
46981SOL    HW142776   2.835  13.072   7.504
46981SOL    HW242777   2.834  13.213   7.559
46982SOL     OW42778   8.674   8.333   5.708
46982SOL    HW142779   8.747   8.313   5.768
46982SOL    HW242780   8.639   8.416   5.739
46983SOL     OW42781  11.490  10.467   6.157
46983SOL    HW142782  11.468  10.427   6.073
46983SOL    HW242783  11.489  10.394   6.219
46984SOL     OW42784   9.910   0.200   4.759
46984SOL    HW142785   9.924   0.286   4.798
46984SOL    HW242786   9.889   0.218   4.667
46985SOL     OW42787   7.380   2.457  11.919
46985SOL    HW142788   7.305   2.514  11.935
46985SOL    HW242789   7.368   2.426  11.829
46986SOL     OW42790   0.269   7.074   5.566
46986SOL    HW142791   0.257   7.047   5.475
46986SOL    HW242792   0.203   7.025   5.614
46987SOL     OW42793  10.174  10.823   7.169
46987SOL    HW142794  10.100  10.776   7.130
46987SOL    HW242795  10.218  10.757   7.223
46988SOL     OW42796   1.006  11.897   9.874
46988SOL    HW142797   1.060  11.924   9.800
46988SOL    HW242798   0.995  11.802   9.862
46989SOL     OW42799   1.113   5.592  12.991
46989SOL    HW142800   1.113   5.517  12.931
46989SOL    HW242801   1.176   5.567  13.059
46990SOL     OW42802   6.589   6.328  12.828
46990SOL    HW142803   6.618   6.413  12.794
46990SOL    HW242804   6.667   6.291  12.870
46991SOL     OW42805   9.435   1.415   0.847
46991SOL    HW142806   9.461   1.425   0.755
46991SOL    HW242807   9.431   1.504   0.881
46992SOL     OW42808   5.601   7.386   9.982
46992SOL    HW142809   5.667   7.320  10.005
46992SOL    HW242810   5.523   7.360  10.031
46993SOL     OW42811  11.828   3.159   4.628
46993SOL    HW142812  11.750   3.109   4.604
46993SOL    HW242813  11.861   3.194   4.546
46994SOL     OW42814   9.880   7.941  11.619
46994SOL    HW142815   9.957   7.993  11.595
46994SOL    HW242816   9.916   7.855  11.641
46995SOL     OW42817   9.235   0.082  10.757
46995SOL    HW142818   9.188   0.166  10.749
46995SOL    HW242819   9.205   0.046  10.840
46996SOL     OW42820  10.191  12.774   5.773
46996SOL    HW142821  10.217  12.794   5.683
46996SOL    HW242822  10.208  12.855   5.821
46997SOL     OW42823  11.353  13.726  10.939
46997SOL    HW142824  11.438  13.768  10.953
46997SOL    HW242825  11.324  13.758  10.854
46998SOL     OW42826   9.581   1.367   7.935
46998SOL    HW142827   9.533   1.449   7.925
46998SOL    HW242828   9.612   1.346   7.847
46999SOL     OW42829   3.202  10.676   8.199
46999SOL    HW142830   3.264  10.682   8.272
46999SOL    HW242831   3.116  10.671   8.242
47000SOL     OW42832  14.373   3.999  10.264
47000SOL    HW142833  14.355   4.076  10.211
47000SOL    HW242834  14.288   3.978  10.304
47001SOL     OW42835  12.063  12.066  10.892
47001SOL    HW142836  12.008  12.117  10.834
47001SOL    HW242837  12.025  11.978  10.890
47002SOL     OW42838   8.222   1.029   0.619
47002SOL    HW142839   8.301   1.067   0.581
47002SOL    HW242840   8.151   1.083   0.586
47003SOL     OW42841   3.920  11.821   5.499
47003SOL    HW142842   3.959  11.903   5.470
47003SOL    HW242843   3.829  11.844   5.519
47004SOL     OW42844   7.331   6.953   5.919
47004SOL    HW142845   7.369   7.040   5.904
47004SOL    HW242846   7.353   6.932   6.009
47005SOL     OW42847  13.581  12.974   4.049
47005SOL    HW142848  13.629  12.925   4.116
47005SOL    HW242849  13.648  13.001   3.987
47006SOL     OW42850   7.953  12.862   9.914
47006SOL    HW142851   8.033  12.809   9.909
47006SOL    HW242852   7.943  12.881  10.007
47007SOL     OW42853   1.727  12.434  10.502
47007SOL    HW142854   1.681  12.353  10.524
47007SOL    HW242855   1.705  12.493  10.574
47008SOL     OW42856   2.653   5.468   8.207
47008SOL    HW142857   2.564   5.503   8.199
47008SOL    HW242858   2.706   5.543   8.232
47009SOL     OW42859  14.283   4.239   4.901
47009SOL    HW142860  14.276   4.209   4.811
47009SOL    HW242861  14.237   4.173   4.953
47010SOL     OW42862   7.218   9.544   3.294
47010SOL    HW142863   7.184   9.602   3.363
47010SOL    HW242864   7.250   9.603   3.226
47011SOL     OW42865   3.342   5.605   7.884
47011SOL    HW142866   3.403   5.617   7.956
47011SOL    HW242867   3.296   5.524   7.904
47012SOL     OW42868   5.390   5.336  14.065
47012SOL    HW142869   5.296   5.346  14.082
47012SOL    HW242870   5.422   5.425  14.057
47013SOL     OW42871   4.731  13.967  12.120
47013SOL    HW142872   4.637  13.951  12.122
47013SOL    HW242873   4.739  14.062  12.120
47014SOL     OW42874   1.432   8.239  10.442
47014SOL    HW142875   1.403   8.329  10.450
47014SOL    HW242876   1.406   8.213  10.354
47015SOL     OW42877   4.957   4.763   7.265
47015SOL    HW142878   4.925   4.838   7.215
47015SOL    HW242879   5.008   4.712   7.202
47016SOL     OW42880   9.598   2.712  12.318
47016SOL    HW142881   9.607   2.643  12.383
47016SOL    HW242882   9.642   2.788  12.357
47017SOL     OW42883   8.856   0.043   3.809
47017SOL    HW142884   8.921   0.074   3.871
47017SOL    HW242885   8.782   0.016   3.863
47018SOL     OW42886   0.470  12.281   2.519
47018SOL    HW142887   0.484  12.373   2.543
47018SOL    HW242888   0.471  12.281   2.423
47019SOL     OW42889   0.409   9.452   3.333
47019SOL    HW142890   0.495   9.414   3.317
47019SOL    HW242891   0.358   9.381   3.373
47020SOL     OW42892   5.348   2.928   3.258
47020SOL    HW142893   5.281   2.993   3.236
47020SOL    HW242894   5.322   2.850   3.210
47021SOL     OW42895   9.192  11.200   1.813
47021SOL    HW142896   9.179  11.201   1.908
47021SOL    HW242897   9.244  11.279   1.795
47022SOL     OW42898  13.519   8.468   7.522
47022SOL    HW142899  13.501   8.374   7.510
47022SOL    HW242900  13.433   8.509   7.514
47023SOL     OW42901  13.730  14.434   3.143
47023SOL    HW142902  13.719  14.480   3.060
47023SOL    HW242903  13.726  14.502   3.210
47024SOL     OW42904   6.843   0.573   3.226
47024SOL    HW142905   6.785   0.539   3.294
47024SOL    HW242906   6.907   0.504   3.212
47025SOL     OW42907   3.172  12.504   2.660
47025SOL    HW142908   3.213  12.433   2.710
47025SOL    HW242909   3.246  12.552   2.622
47026SOL     OW42910  11.051  14.617  13.815
47026SOL    HW142911  11.087  14.704  13.798
47026SOL    HW242912  11.071  14.567  13.735
47027SOL     OW42913   7.779   9.498  10.298
47027SOL    HW142914   7.869   9.469  10.283
47027SOL    HW242915   7.770   9.576  10.242
47028SOL     OW42916  11.058   8.608   7.977
47028SOL    HW142917  10.964   8.604   7.993
47028SOL    HW242918  11.080   8.520   7.944
47029SOL     OW42919   6.919   5.898   7.267
47029SOL    HW142920   6.926   5.806   7.295
47029SOL    HW242921   6.913   5.947   7.349
47030SOL     OW42922   6.105   0.565   6.292
47030SOL    HW142923   6.108   0.494   6.229
47030SOL    HW242924   6.011   0.580   6.307
47031SOL     OW42925   7.021  11.713   6.996
47031SOL    HW142926   6.969  11.674   6.926
47031SOL    HW242927   7.098  11.749   6.951
47032SOL     OW42928   2.965   1.758   8.945
47032SOL    HW142929   3.030   1.829   8.949
47032SOL    HW242930   2.948   1.736   9.036
47033SOL     OW42931   2.417  14.307   2.202
47033SOL    HW142932   2.432  14.224   2.158
47033SOL    HW242933   2.381  14.364   2.134
47034SOL     OW42934   7.226   4.192  14.367
47034SOL    HW142935   7.222   4.180  14.462
47034SOL    HW242936   7.216   4.286  14.354
47035SOL     OW42937   2.947  11.310   8.688
47035SOL    HW142938   2.932  11.257   8.766
47035SOL    HW242939   2.859  11.333   8.657
47036SOL     OW42940   8.640  13.979   8.901
47036SOL    HW142941   8.575  14.018   8.842
47036SOL    HW242942   8.673  14.053   8.953
47037SOL     OW42943   6.164  11.521   1.310
47037SOL    HW142944   6.217  11.579   1.365
47037SOL    HW242945   6.089  11.574   1.283
47038SOL     OW42946  14.041  13.984   4.007
47038SOL    HW142947  14.050  14.077   3.985
47038SOL    HW242948  13.956  13.977   4.050
47039SOL     OW42949   9.960   5.179  10.519
47039SOL    HW142950  10.030   5.215  10.465
47039SOL    HW242951  10.003   5.157  10.602
47040SOL     OW42952   6.812  13.392   3.256
47040SOL    HW142953   6.814  13.331   3.331
47040SOL    HW242954   6.904  13.409   3.236
47041SOL     OW42955   4.675   8.035   2.374
47041SOL    HW142956   4.691   8.072   2.287
47041SOL    HW242957   4.733   7.959   2.379
47042SOL     OW42958  10.576  13.415  13.471
47042SOL    HW142959  10.555  13.342  13.413
47042SOL    HW242960  10.549  13.385  13.558
47043SOL     OW42961  11.962   1.082   4.105
47043SOL    HW142962  12.004   1.007   4.061
47043SOL    HW242963  12.035   1.137   4.132
47044SOL     OW42964   0.841   6.227  12.929
47044SOL    HW142965   0.773   6.234  12.995
47044SOL    HW242966   0.920   6.202  12.977
47045SOL     OW42967  13.339  12.065   1.155
47045SOL    HW142968  13.401  12.126   1.116
47045SOL    HW242969  13.273  12.051   1.087
47046SOL     OW42970   1.490   4.994   0.901
47046SOL    HW142971   1.561   4.929   0.903
47046SOL    HW242972   1.491   5.033   0.988
47047SOL     OW42973   1.601   5.270  11.265
47047SOL    HW142974   1.627   5.327  11.338
47047SOL    HW242975   1.588   5.331  11.192
47048SOL     OW42976   7.541   3.731   7.618
47048SOL    HW142977   7.598   3.769   7.685
47048SOL    HW242978   7.568   3.639   7.613
47049SOL     OW42979   1.987   9.144   8.658
47049SOL    HW142980   2.058   9.096   8.616
47049SOL    HW242981   1.924   9.077   8.682
47050SOL     OW42982   6.281  11.683  11.329
47050SOL    HW142983   6.340  11.615  11.360
47050SOL    HW242984   6.269  11.664  11.236
47051SOL     OW42985  12.318   4.275   5.896
47051SOL    HW142986  12.265   4.346   5.931
47051SOL    HW242987  12.255   4.214   5.857
47052SOL     OW42988   9.148  13.078   2.508
47052SOL    HW142989   9.226  13.033   2.476
47052SOL    HW242990   9.110  13.016   2.571
47053SOL     OW42991   5.579   9.377   6.997
47053SOL    HW142992   5.592   9.283   6.985
47053SOL    HW242993   5.561   9.388   7.090
47054SOL     OW42994   8.775  14.571   1.965
47054SOL    HW142995   8.836  14.534   2.029
47054SOL    HW242996   8.787  14.517   1.887
47055SOL     OW42997   2.913   9.102   2.633
47055SOL    HW142998   2.878   9.188   2.658
47055SOL    HW242999   2.980   9.121   2.567
47056SOL     OW43000  11.884   6.476  10.532
47056SOL    HW143001  11.972   6.482  10.568
47056SOL    HW243002  11.896   6.449  10.441
47057SOL     OW43003  13.775   1.946   4.086
47057SOL    HW143004  13.697   1.936   4.031
47057SOL    HW243005  13.744   1.929   4.175
47058SOL     OW43006   5.287  10.577   5.967
47058SOL    HW143007   5.345  10.549   5.897
47058SOL    HW243008   5.250  10.660   5.936
47059SOL     OW43009   3.283  11.245   1.007
47059SOL    HW143010   3.360  11.200   1.042
47059SOL    HW243011   3.302  11.338   1.019
47060SOL     OW43012   0.387  14.758   2.479
47060SOL    HW143013   0.432  14.675   2.462
47060SOL    HW243014   0.342  14.744   2.563
47061SOL     OW43015  13.850  13.275  13.246
47061SOL    HW143016  13.866  13.367  13.227
47061SOL    HW243017  13.758  13.261  13.222
47062SOL     OW43018  14.275   7.762  11.597
47062SOL    HW143019  14.370   7.757  11.587
47062SOL    HW243020  14.244   7.674  11.576
47063SOL     OW43021   2.271  10.500   2.058
47063SOL    HW143022   2.302  10.514   2.148
47063SOL    HW243023   2.197  10.560   2.049
47064SOL     OW43024   1.694   0.244   3.359
47064SOL    HW143025   1.675   0.231   3.266
47064SOL    HW243026   1.707   0.339   3.368
47065SOL     OW43027   3.575   0.149  10.359
47065SOL    HW143028   3.629   0.079  10.324
47065SOL    HW243029   3.547   0.118  10.445
47066SOL     OW43030   9.807   2.755   8.667
47066SOL    HW143031   9.716   2.760   8.696
47066SOL    HW243032   9.834   2.846   8.656
47067SOL     OW43033  13.036   3.478   7.193
47067SOL    HW143034  12.984   3.399   7.175
47067SOL    HW243035  13.126   3.452   7.172
47068SOL     OW43036   7.067   9.116  11.872
47068SOL    HW143037   7.085   9.029  11.908
47068SOL    HW243038   7.151   9.163  11.879
47069SOL     OW43039   8.903   3.776  14.781
47069SOL    HW143040   8.813   3.769  14.750
47069SOL    HW243041   8.931   3.685  14.793
47070SOL     OW43042   4.332  10.769  13.261
47070SOL    HW143043   4.347  10.863  13.276
47070SOL    HW243044   4.361  10.754  13.171
47071SOL     OW43045   3.974  14.106  12.428
47071SOL    HW143046   4.034  14.176  12.400
47071SOL    HW243047   4.027  14.026  12.423
47072SOL     OW43048   7.471   6.229   8.130
47072SOL    HW143049   7.560   6.264   8.127
47072SOL    HW243050   7.482   6.134   8.129
47073SOL     OW43051   0.804   6.567  14.338
47073SOL    HW143052   0.809   6.661  14.355
47073SOL    HW243053   0.857   6.527  14.407
47074SOL     OW43054   2.198   4.478   3.668
47074SOL    HW143055   2.103   4.479   3.678
47074SOL    HW243056   2.211   4.454   3.576
47075SOL     OW43057   6.585   1.268   1.936
47075SOL    HW143058   6.635   1.254   1.855
47075SOL    HW243059   6.618   1.351   1.970
47076SOL     OW43060   3.847  10.990   9.915
47076SOL    HW143061   3.762  10.948   9.918
47076SOL    HW243062   3.887  10.960   9.834
47077SOL     OW43063   0.474   1.599   3.401
47077SOL    HW143064   0.449   1.589   3.309
47077SOL    HW243065   0.461   1.692   3.419
47078SOL     OW43066  12.071   3.356  10.988
47078SOL    HW143067  12.128   3.379  10.915
47078SOL    HW243068  12.106   3.272  11.020
47079SOL     OW43069   0.582  14.025   4.011
47079SOL    HW143070   0.509  13.984   4.057
47079SOL    HW243071   0.649  13.956   4.007
47080SOL     OW43072   4.800   1.408   1.316
47080SOL    HW143073   4.791   1.467   1.241
47080SOL    HW243074   4.712   1.403   1.354
47081SOL     OW43075   1.434   3.676   8.861
47081SOL    HW143076   1.419   3.680   8.767
47081SOL    HW243077   1.529   3.669   8.870
47082SOL     OW43078   9.770   7.807  14.498
47082SOL    HW143079   9.746   7.897  14.519
47082SOL    HW243080   9.806   7.811  14.410
47083SOL     OW43081   8.524  10.044   3.222
47083SOL    HW143082   8.573   9.972   3.261
47083SOL    HW243083   8.537  10.118   3.282
47084SOL     OW43084  12.171   8.203   2.412
47084SOL    HW143085  12.157   8.114   2.378
47084SOL    HW243086  12.208   8.190   2.499
47085SOL     OW43087  14.583   3.738   0.144
47085SOL    HW143088  14.576   3.653   0.101
47085SOL    HW243089  14.493   3.771   0.147
47086SOL     OW43090   2.668   1.777   5.729
47086SOL    HW143091   2.573   1.781   5.735
47086SOL    HW243092   2.693   1.853   5.677
47087SOL     OW43093   4.655   9.732   7.819
47087SOL    HW143094   4.568   9.763   7.797
47087SOL    HW243095   4.647   9.698   7.908
47088SOL     OW43096  11.019   7.765   1.801
47088SOL    HW143097  10.994   7.675   1.819
47088SOL    HW243098  10.938   7.815   1.812
47089SOL     OW43099  13.232  12.455   2.854
47089SOL    HW143100  13.163  12.411   2.903
47089SOL    HW243101  13.208  12.443   2.762
47090SOL     OW43102   5.692   3.673  11.450
47090SOL    HW143103   5.693   3.762  11.486
47090SOL    HW243104   5.691   3.616  11.527
47091SOL     OW43105   2.131   5.045   8.669
47091SOL    HW143106   2.104   5.024   8.580
47091SOL    HW243107   2.109   4.966   8.720
47092SOL     OW43108  10.070   9.201   5.458
47092SOL    HW143109  10.105   9.273   5.511
47092SOL    HW243110  10.074   9.233   5.368
47093SOL     OW43111  13.001  10.823   1.545
47093SOL    HW143112  13.092  10.793   1.547
47093SOL    HW243113  12.990  10.863   1.459
47094SOL     OW43114   4.585   1.587   4.844
47094SOL    HW143115   4.501   1.594   4.888
47094SOL    HW243116   4.641   1.650   4.890
47095SOL     OW43117   0.206   1.951   4.009
47095SOL    HW143118   0.217   2.007   3.932
47095SOL    HW243119   0.295   1.924   4.032
47096SOL     OW43120   2.894  11.240   2.852
47096SOL    HW143121   2.818  11.299   2.847
47096SOL    HW243122   2.967  11.292   2.818
47097SOL     OW43123  12.251   5.301  10.331
47097SOL    HW143124  12.267   5.328  10.421
47097SOL    HW243125  12.207   5.217  10.339
47098SOL     OW43126   1.041   0.951  11.595
47098SOL    HW143127   1.057   0.856  11.593
47098SOL    HW243128   0.946   0.959  11.599
47099SOL     OW43129  13.617  14.624   1.057
47099SOL    HW143130  13.698  14.626   1.006
47099SOL    HW243131  13.577  14.710   1.042
47100SOL     OW43132  13.236  12.090  11.529
47100SOL    HW143133  13.289  12.133  11.461
47100SOL    HW243134  13.204  12.163  11.582
47101SOL     OW43135   1.487   3.496   2.035
47101SOL    HW143136   1.506   3.471   1.944
47101SOL    HW243137   1.395   3.523   2.033
47102SOL     OW43138   6.010   3.134   5.866
47102SOL    HW143139   5.955   3.207   5.896
47102SOL    HW243140   6.094   3.174   5.844
47103SOL     OW43141   7.750   3.847   3.100
47103SOL    HW143142   7.779   3.862   3.010
47103SOL    HW243143   7.798   3.913   3.152
47104SOL     OW43144  10.310  14.109   1.574
47104SOL    HW143145  10.345  14.041   1.633
47104SOL    HW243146  10.231  14.069   1.536
47105SOL     OW43147   4.369  11.891  11.710
47105SOL    HW143148   4.340  11.943  11.635
47105SOL    HW243149   4.333  11.936  11.786
47106SOL     OW43150   5.236   0.569  12.777
47106SOL    HW143151   5.153   0.598  12.739
47106SOL    HW243152   5.270   0.504  12.715
47107SOL     OW43153   0.920   0.102  12.262
47107SOL    HW143154   0.938   0.064  12.176
47107SOL    HW243155   0.827   0.085  12.277
47108SOL     OW43156   1.549   0.186   9.588
47108SOL    HW143157   1.553   0.136   9.507
47108SOL    HW243158   1.639   0.187   9.621
47109SOL     OW43159  11.241   2.945   8.306
47109SOL    HW143160  11.190   2.960   8.227
47109SOL    HW243161  11.220   3.018   8.364
47110SOL     OW43162   2.302   9.761   2.944
47110SOL    HW143163   2.381   9.808   2.918
47110SOL    HW243164   2.330   9.670   2.954
47111SOL     OW43165  10.533   6.787   8.374
47111SOL    HW143166  10.533   6.741   8.458
47111SOL    HW243167  10.455   6.842   8.377
47112SOL     OW43168   0.193   6.964   1.811
47112SOL    HW143169   0.235   7.025   1.871
47112SOL    HW243170   0.252   6.889   1.808
47113SOL     OW43171   1.257   9.162   7.826
47113SOL    HW143172   1.322   9.209   7.879
47113SOL    HW243173   1.175   9.208   7.842
47114SOL     OW43174  11.729   2.361   1.440
47114SOL    HW143175  11.734   2.269   1.413
47114SOL    HW243176  11.638   2.373   1.466
47115SOL     OW43177  13.977  12.455   7.912
47115SOL    HW143178  13.967  12.399   7.834
47115SOL    HW243179  14.068  12.484   7.909
47116SOL     OW43180   4.222  12.371   1.495
47116SOL    HW143181   4.251  12.462   1.499
47116SOL    HW243182   4.221  12.350   1.402
47117SOL     OW43183   4.540   9.983   1.244
47117SOL    HW143184   4.515   9.946   1.159
47117SOL    HW243185   4.545  10.077   1.228
47118SOL     OW43186   0.396  14.686   7.816
47118SOL    HW143187   0.359  14.625   7.880
47118SOL    HW243188   0.331  14.756   7.810
47119SOL     OW43189   5.277   3.394   0.165
47119SOL    HW143190   5.260   3.307   0.130
47119SOL    HW243191   5.369   3.393   0.189
47120SOL     OW43192   0.293   5.663   4.145
47120SOL    HW143193   0.371   5.717   4.138
47120SOL    HW243194   0.231   5.701   4.083
47121SOL     OW43195   1.681  13.659   3.410
47121SOL    HW143196   1.625  13.729   3.442
47121SOL    HW243197   1.694  13.680   3.317
47122SOL     OW43198   0.962  10.203   1.961
47122SOL    HW143199   0.958  10.160   1.875
47122SOL    HW243200   0.952  10.296   1.941
47123SOL     OW43201  11.917   9.411  13.463
47123SOL    HW143202  11.951   9.345  13.402
47123SOL    HW243203  11.864   9.361  13.525
47124SOL     OW43204   8.238  12.034   3.646
47124SOL    HW143205   8.196  12.091   3.710
47124SOL    HW243206   8.168  12.014   3.583
47125SOL     OW43207   1.247   0.613   6.323
47125SOL    HW143208   1.188   0.579   6.257
47125SOL    HW243209   1.191   0.629   6.399
47126SOL     OW43210   8.331  14.113  12.585
47126SOL    HW143211   8.364  14.077  12.667
47126SOL    HW243212   8.409  14.144  12.540
47127SOL     OW43213   8.279   5.236   8.513
47127SOL    HW143214   8.190   5.256   8.543
47127SOL    HW243215   8.329   5.224   8.594
47128SOL     OW43216   3.951   9.215   8.265
47128SOL    HW143217   3.895   9.292   8.275
47128SOL    HW243218   3.936   9.165   8.346
47129SOL     OW43219   1.727  14.806  12.698
47129SOL    HW143220   1.635  14.820  12.673
47129SOL    HW243221   1.722  14.773  12.788
47130SOL     OW43222   0.156   0.684  10.746
47130SOL    HW143223   0.204   0.748  10.797
47130SOL    HW243224   0.081   0.661  10.801
47131SOL     OW43225   2.038  12.063   7.579
47131SOL    HW143226   2.034  12.076   7.484
47131SOL    HW243227   2.128  12.085   7.603
47132SOL     OW43228   8.982  10.554  11.370
47132SOL    HW143229   8.904  10.502  11.350
47132SOL    HW243230   9.014  10.583  11.285
47133SOL     OW43231   0.959   4.712   4.406
47133SOL    HW143232   0.969   4.679   4.317
47133SOL    HW243233   0.950   4.634   4.460
47134SOL     OW43234  12.299   3.572  12.345
47134SOL    HW143235  12.292   3.639  12.277
47134SOL    HW243236  12.242   3.603  12.416
47135SOL     OW43237  12.262   7.355   9.404
47135SOL    HW143238  12.331   7.298   9.436
47135SOL    HW243239  12.301   7.443   9.403
47136SOL     OW43240   1.521   7.890   7.939
47136SOL    HW143241   1.453   7.901   7.872
47136SOL    HW243242   1.473   7.891   8.022
47137SOL     OW43243  12.854  11.134  11.356
47137SOL    HW143244  12.930  11.083  11.384
47137SOL    HW243245  12.886  11.187  11.283
47138SOL     OW43246  10.465   7.634  11.037
47138SOL    HW143247  10.497   7.721  11.016
47138SOL    HW243248  10.407   7.612  10.964
47139SOL     OW43249   8.503  12.269  10.451
47139SOL    HW143250   8.439  12.205  10.420
47139SOL    HW243251   8.577  12.217  10.482
47140SOL     OW43252   9.847   6.710   2.233
47140SOL    HW143253   9.934   6.730   2.198
47140SOL    HW243254   9.838   6.615   2.223
47141SOL     OW43255  13.912   5.741   1.623
47141SOL    HW143256  13.847   5.672   1.611
47141SOL    HW243257  13.992   5.695   1.647
47142SOL     OW43258  10.961   7.345  12.587
47142SOL    HW143259  11.011   7.290  12.527
47142SOL    HW243260  11.021   7.417  12.608
47143SOL     OW43261   5.354  13.401   6.880
47143SOL    HW143262   5.388  13.448   6.956
47143SOL    HW243263   5.272  13.361   6.910
47144SOL     OW43264   3.758   5.661   5.318
47144SOL    HW143265   3.703   5.727   5.276
47144SOL    HW243266   3.765   5.690   5.409
47145SOL     OW43267   4.781  13.404   0.442
47145SOL    HW143268   4.743  13.346   0.376
47145SOL    HW243269   4.854  13.447   0.397
47146SOL     OW43270  13.509   5.019  11.756
47146SOL    HW143271  13.603   5.021  11.743
47146SOL    HW243272  13.483   4.929  11.736
47147SOL     OW43273  13.997   4.387   6.447
47147SOL    HW143274  13.994   4.346   6.361
47147SOL    HW243275  13.943   4.331   6.502
47148SOL     OW43276  11.841   9.519   3.809
47148SOL    HW143277  11.876   9.559   3.729
47148SOL    HW243278  11.865   9.580   3.879
47149SOL     OW43279   8.109  14.288  11.167
47149SOL    HW143280   8.197  14.311  11.197
47149SOL    HW243281   8.079  14.222  11.229
47150SOL     OW43282   3.762   8.749   2.409
47150SOL    HW143283   3.810   8.678   2.366
47150SOL    HW243284   3.789   8.828   2.362
47151SOL     OW43285   1.703  12.717   0.474
47151SOL    HW143286   1.615  12.692   0.502
47151SOL    HW243287   1.761  12.667   0.531
47152SOL     OW43288   6.573   8.834   1.515
47152SOL    HW143289   6.569   8.864   1.424
47152SOL    HW243290   6.487   8.857   1.552
47153SOL     OW43291   2.516   3.496  13.797
47153SOL    HW143292   2.529   3.454  13.882
47153SOL    HW243293   2.479   3.582  13.819
47154SOL     OW43294  11.355  11.379   0.035
47154SOL    HW143295  11.354  11.471   0.006
47154SOL    HW243296  11.436  11.343  14.876
47155SOL     OW43297   3.330   4.442   6.780
47155SOL    HW143298   3.284   4.381   6.723
47155SOL    HW243299   3.314   4.528   6.740
47156SOL     OW43300   8.264  14.216   0.666
47156SOL    HW143301   8.340  14.245   0.617
47156SOL    HW243302   8.201  14.187   0.598
47157SOL     OW43303   1.535  13.900  14.118
47157SOL    HW143304   1.471  13.923  14.185
47157SOL    HW243305   1.608  13.959  14.134
47158SOL     OW43306  13.219   9.405  13.730
47158SOL    HW143307  13.194   9.487  13.686
47158SOL    HW243308  13.313   9.414  13.746
47159SOL     OW43309  11.654   2.855  12.822
47159SOL    HW143310  11.643   2.828  12.731
47159SOL    HW243311  11.570   2.838  12.863
47160SOL     OW43312   2.862   1.779   9.964
47160SOL    HW143313   2.956   1.765   9.975
47160SOL    HW243314   2.854   1.833   9.885
47161SOL     OW43315  11.310   9.200   1.721
47161SOL    HW143316  11.312   9.149   1.640
47161SOL    HW243317  11.331   9.289   1.694
47162SOL     OW43318   3.991   4.551   7.339
47162SOL    HW143319   4.051   4.580   7.409
47162SOL    HW243320   3.933   4.489   7.382
47163SOL     OW43321   1.868   4.877  12.943
47163SOL    HW143322   1.831   4.793  12.971
47163SOL    HW243323   1.792   4.932  12.927
47164SOL     OW43324   3.597   5.628   7.242
47164SOL    HW143325   3.667   5.600   7.183
47164SOL    HW243326   3.642   5.674   7.312
47165SOL     OW43327  10.296   3.265   5.839
47165SOL    HW143328  10.294   3.249   5.933
47165SOL    HW243329  10.214   3.312   5.821
47166SOL     OW43330  13.855  13.956   5.589
47166SOL    HW143331  13.794  13.940   5.517
47166SOL    HW243332  13.921  14.016   5.551
47167SOL     OW43333   0.247   7.485   7.554
47167SOL    HW143334   0.315   7.454   7.494
47167SOL    HW243335   0.198   7.407   7.578
47168SOL     OW43336   2.544   7.662   8.388
47168SOL    HW143337   2.582   7.619   8.465
47168SOL    HW243338   2.620   7.700   8.343
47169SOL     OW43339   7.066  13.321  12.875
47169SOL    HW143340   7.025  13.281  12.798
47169SOL    HW243341   6.999  13.317  12.943
47170SOL     OW43342  12.629   6.797  14.629
47170SOL    HW143343  12.626   6.735  14.701
47170SOL    HW243344  12.601   6.746  14.553
47171SOL     OW43345   7.772   9.858  11.601
47171SOL    HW143346   7.765   9.926  11.668
47171SOL    HW243347   7.741   9.900  11.520
47172SOL     OW43348   2.324  11.072   5.755
47172SOL    HW143349   2.377  11.044   5.681
47172SOL    HW243350   2.244  11.020   5.748
47173SOL     OW43351  12.516  12.360  12.382
47173SOL    HW143352  12.610  12.349  12.375
47173SOL    HW243353  12.487  12.289  12.439
47174SOL     OW43354   1.044  10.427   2.336
47174SOL    HW143355   1.061  10.505   2.284
47174SOL    HW243356   1.047  10.355   2.273
47175SOL     OW43357   3.677   9.894   2.005
47175SOL    HW143358   3.646   9.880   2.094
47175SOL    HW243359   3.601   9.932   1.959
47176SOL     OW43360   6.483   9.102   3.574
47176SOL    HW143361   6.424   9.126   3.502
47176SOL    HW243362   6.433   9.036   3.624
47177SOL     OW43363  11.980  13.419   2.600
47177SOL    HW143364  11.947  13.429   2.690
47177SOL    HW243365  11.902  13.420   2.546
47178SOL     OW43366   1.921  13.174   7.247
47178SOL    HW143367   1.842  13.158   7.196
47178SOL    HW243368   1.966  13.089   7.248
47179SOL     OW43369   6.492  12.006  12.626
47179SOL    HW143370   6.535  12.078  12.672
47179SOL    HW243371   6.559  11.971  12.568
47180SOL     OW43372   9.649   4.486   1.029
47180SOL    HW143373   9.744   4.477   1.041
47180SOL    HW243374   9.630   4.574   1.061
47181SOL     OW43375   4.224  10.325   4.573
47181SOL    HW143376   4.319  10.317   4.576
47181SOL    HW243377   4.193  10.265   4.641
47182SOL     OW43378   5.357   2.527   5.038
47182SOL    HW143379   5.308   2.457   5.082
47182SOL    HW243380   5.291   2.595   5.021
47183SOL     OW43381   6.140  10.655   8.847
47183SOL    HW143382   6.164  10.580   8.902
47183SOL    HW243383   6.055  10.629   8.809
47184SOL     OW43384   3.127   1.759   9.908
47184SOL    HW143385   3.150   1.838   9.957
47184SOL    HW243386   3.135   1.785   9.816
47185SOL     OW43387   0.354  14.341   6.298
47185SOL    HW143388   0.415  14.362   6.370
47185SOL    HW243389   0.278  14.396   6.315
47186SOL     OW43390   5.663   0.952  13.914
47186SOL    HW143391   5.645   0.945  13.821
47186SOL    HW243392   5.671   1.046  13.930
47187SOL     OW43393  13.813  14.778   1.262
47187SOL    HW143394  13.757  14.834   1.209
47187SOL    HW243395  13.899  14.785   1.220
47188SOL     OW43396  14.666   4.296  14.751
47188SOL    HW143397  14.749   4.281  14.797
47188SOL    HW243398  14.599   4.277  14.817
47189SOL     OW43399   9.181   9.237   3.259
47189SOL    HW143400   9.173   9.193   3.174
47189SOL    HW243401   9.109   9.300   3.260
47190SOL     OW43402  10.688  11.857  14.439
47190SOL    HW143403  10.691  11.812  14.523
47190SOL    HW243404  10.695  11.950  14.461
47191SOL     OW43405   7.619   1.281   0.108
47191SOL    HW143406   7.559   1.211   0.132
47191SOL    HW243407   7.702   1.237   0.091
47192SOL     OW43408   7.873  11.598   0.983
47192SOL    HW143409   7.946  11.581   1.042
47192SOL    HW243410   7.912  11.650   0.912
47193SOL     OW43411   7.092   3.308  10.840
47193SOL    HW143412   7.186   3.288  10.844
47193SOL    HW243413   7.059   3.284  10.926
47194SOL     OW43414   4.900   5.740   9.043
47194SOL    HW143415   4.884   5.802   9.114
47194SOL    HW243416   4.987   5.705   9.060
47195SOL     OW43417   9.901   4.092  14.551
47195SOL    HW143418   9.808   4.110  14.563
47195SOL    HW243419   9.944   4.137  14.624
47196SOL     OW43420   6.686   6.685   8.100
47196SOL    HW143421   6.664   6.599   8.065
47196SOL    HW243422   6.777   6.699   8.074
47197SOL     OW43423   0.074   6.649   3.353
47197SOL    HW143424   0.062   6.739   3.323
47197SOL    HW243425   0.110   6.657   3.442
47198SOL     OW43426  12.247   9.736  14.178
47198SOL    HW143427  12.255   9.820  14.132
47198SOL    HW243428  12.324   9.687  14.151
47199SOL     OW43429  13.008  12.054   5.598
47199SOL    HW143430  13.016  11.985   5.664
47199SOL    HW243431  13.040  12.014   5.517
47200SOL     OW43432   8.670  12.912  11.181
47200SOL    HW143433   8.630  12.992  11.218
47200SOL    HW243434   8.605  12.844  11.196
47201SOL     OW43435   5.948   7.465   6.455
47201SOL    HW143436   5.956   7.535   6.520
47201SOL    HW243437   5.976   7.506   6.373
47202SOL     OW43438  12.214  13.536   8.515
47202SOL    HW143439  12.140  13.584   8.553
47202SOL    HW243440  12.174  13.474   8.455
47203SOL     OW43441   6.021   8.328   3.207
47203SOL    HW143442   6.041   8.420   3.223
47203SOL    HW243443   5.927   8.326   3.192
47204SOL     OW43444   5.460  14.480   4.299
47204SOL    HW143445   5.523  14.551   4.292
47204SOL    HW243446   5.486  14.431   4.377
47205SOL     OW43447   2.829   0.086  11.618
47205SOL    HW143448   2.743   0.068  11.580
47205SOL    HW243449   2.809   0.133  11.699
47206SOL     OW43450  12.373   8.161  10.246
47206SOL    HW143451  12.323   8.239  10.224
47206SOL    HW243452  12.435   8.191  10.313
47207SOL     OW43453   9.611  13.858  13.021
47207SOL    HW143454   9.640  13.946  12.995
47207SOL    HW243455   9.652  13.800  12.956
47208SOL     OW43456  10.513   3.431  12.072
47208SOL    HW143457  10.556   3.422  12.157
47208SOL    HW243458  10.507   3.526  12.058
47209SOL     OW43459   0.273   5.556   7.117
47209SOL    HW143460   0.200   5.583   7.173
47209SOL    HW243461   0.283   5.628   7.055
47210SOL     OW43462  11.659   9.536   1.489
47210SOL    HW143463  11.598   9.598   1.451
47210SOL    HW243464  11.725   9.590   1.533
47211SOL     OW43465   6.950  10.634   6.742
47211SOL    HW143466   6.884  10.699   6.716
47211SOL    HW243467   6.935  10.560   6.683
47212SOL     OW43468  12.940  14.143   8.382
47212SOL    HW143469  12.962  14.053   8.406
47212SOL    HW243470  12.951  14.145   8.287
47213SOL     OW43471   6.224   6.793  13.754
47213SOL    HW143472   6.188   6.835  13.676
47213SOL    HW243473   6.312   6.829  13.763
47214SOL     OW43474   8.974   4.074   5.272
47214SOL    HW143475   9.049   4.055   5.329
47214SOL    HW243476   8.901   4.027   5.312
47215SOL     OW43477   1.122   7.353   9.026
47215SOL    HW143478   1.073   7.426   9.063
47215SOL    HW243479   1.071   7.326   8.950
47216SOL     OW43480   7.899  14.657   3.414
47216SOL    HW143481   7.970  14.621   3.361
47216SOL    HW243482   7.823  14.603   3.394
47217SOL     OW43483   2.685   6.247   6.277
47217SOL    HW143484   2.680   6.162   6.234
47217SOL    HW243485   2.598   6.285   6.266
47218SOL     OW43486   7.345  11.532   7.697
47218SOL    HW143487   7.281  11.477   7.653
47218SOL    HW243488   7.342  11.615   7.649
47219SOL     OW43489   9.334   3.407  12.737
47219SOL    HW143490   9.248   3.419  12.777
47219SOL    HW243491   9.352   3.490  12.693
47220SOL     OW43492   4.908   6.602   5.446
47220SOL    HW143493   4.884   6.669   5.511
47220SOL    HW243494   4.936   6.653   5.370
47221SOL     OW43495   3.226  14.556   8.089
47221SOL    HW143496   3.162  14.564   8.017
47221SOL    HW243497   3.281  14.633   8.080
47222SOL     OW43498   6.398   4.692  10.189
47222SOL    HW143499   6.485   4.694  10.227
47222SOL    HW243500   6.412   4.717  10.097
47223SOL     OW43501   2.876   0.305  10.445
47223SOL    HW143502   2.909   0.395  10.444
47223SOL    HW243503   2.802   0.308  10.506
47224SOL     OW43504   2.748  13.403  14.436
47224SOL    HW143505   2.759  13.315  14.401
47224SOL    HW243506   2.661  13.431  14.408
47225SOL     OW43507   8.854  10.289   9.422
47225SOL    HW143508   8.806  10.230   9.363
47225SOL    HW243509   8.802  10.369   9.422
47226SOL     OW43510  13.987   6.837  12.523
47226SOL    HW143511  14.076   6.804  12.515
47226SOL    HW243512  13.994   6.910  12.585
47227SOL     OW43513   4.811  13.345   2.990
47227SOL    HW143514   4.801  13.397   3.070
47227SOL    HW243515   4.723  13.339   2.953
47228SOL     OW43516  13.621   2.697   8.310
47228SOL    HW143517  13.680   2.660   8.244
47228SOL    HW243518  13.675   2.701   8.390
47229SOL     OW43519   8.732  10.242   0.085
47229SOL    HW143520   8.726  10.223  14.870
47229SOL    HW243521   8.648  10.210   0.121
47230SOL     OW43522   7.091   2.013   6.434
47230SOL    HW143523   7.062   2.100   6.406
47230SOL    HW243524   7.110   2.023   6.527
47231SOL     OW43525   6.054   6.930   2.182
47231SOL    HW143526   6.035   7.005   2.125
47231SOL    HW243527   6.062   6.968   2.270
47232SOL     OW43528   5.101  13.263   7.440
47232SOL    HW143529   5.187  13.289   7.407
47232SOL    HW243530   5.039  13.314   7.388
47233SOL     OW43531   3.542  13.966  10.415
47233SOL    HW143532   3.454  13.928  10.416
47233SOL    HW243533   3.593  13.909  10.472
47234SOL     OW43534   7.442  14.313   2.092
47234SOL    HW143535   7.429  14.265   2.173
47234SOL    HW243536   7.467  14.246   2.028
47235SOL     OW43537  14.681  10.523  14.063
47235SOL    HW143538  14.606  10.547  14.118
47235SOL    HW243539  14.641  10.484  13.985
47236SOL     OW43540   5.656  10.544   1.625
47236SOL    HW143541   5.618  10.630   1.609
47236SOL    HW243542   5.751  10.560   1.622
47237SOL     OW43543  10.368   9.863  12.167
47237SOL    HW143544  10.404   9.826  12.248
47237SOL    HW243545  10.378   9.794  12.102
47238SOL     OW43546  11.265   8.934   3.886
47238SOL    HW143547  11.178   8.943   3.847
47238SOL    HW243548  11.321   8.991   3.834
47239SOL     OW43549   6.655   6.646   7.749
47239SOL    HW143550   6.680   6.668   7.839
47239SOL    HW243551   6.727   6.679   7.695
47240SOL     OW43552   3.398   1.535   9.210
47240SOL    HW143553   3.364   1.623   9.193
47240SOL    HW243554   3.375   1.484   9.133
47241SOL     OW43555  13.989  10.681  13.695
47241SOL    HW143556  13.972  10.683  13.601
47241SOL    HW243557  13.978  10.772  13.723
47242SOL     OW43558   4.055   6.896  10.282
47242SOL    HW143559   4.016   6.954  10.348
47242SOL    HW243560   4.116   6.952  10.234
47243SOL     OW43561   9.231   8.175   7.504
47243SOL    HW143562   9.258   8.217   7.586
47243SOL    HW243563   9.184   8.096   7.532
47244SOL     OW43564  14.256   9.115   0.712
47244SOL    HW143565  14.162   9.115   0.729
47244SOL    HW243566  14.276   9.206   0.688
47245SOL     OW43567  11.735   8.524   6.035
47245SOL    HW143568  11.659   8.503   6.089
47245SOL    HW243569  11.713   8.608   5.994
47246SOL     OW43570   6.082   1.698  11.574
47246SOL    HW143571   6.159   1.675  11.626
47246SOL    HW243572   6.017   1.632  11.598
47247SOL     OW43573  12.810   9.605  14.656
47247SOL    HW143574  12.722   9.601  14.692
47247SOL    HW243575  12.844   9.690  14.683
47248SOL     OW43576   8.906   4.878  12.695
47248SOL    HW143577   8.872   4.850  12.610
47248SOL    HW243578   8.991   4.834  12.702
47249SOL     OW43579   2.149  10.940   3.644
47249SOL    HW143580   2.153  10.994   3.723
47249SOL    HW243581   2.068  10.889   3.654
47250SOL     OW43582   2.724  12.814   7.510
47250SOL    HW143583   2.791  12.821   7.442
47250SOL    HW243584   2.641  12.816   7.461
47251SOL     OW43585  11.553   3.930  12.072
47251SOL    HW143586  11.603   3.855  12.105
47251SOL    HW243587  11.471   3.892  12.040
47252SOL     OW43588   0.291   0.152  11.290
47252SOL    HW143589   0.277   0.227  11.349
47252SOL    HW243590   0.204   0.111  11.285
47253SOL     OW43591   0.028   5.702   5.294
47253SOL    HW143592  14.850   5.626   5.292
47253SOL    HW243593  14.852   5.774   5.261
47254SOL     OW43594   3.199   1.939  10.095
47254SOL    HW143595   3.133   1.973  10.155
47254SOL    HW243596   3.217   2.012  10.036
47255SOL     OW43597   5.453   0.776   5.392
47255SOL    HW143598   5.510   0.811   5.460
47255SOL    HW243599   5.365   0.779   5.431
47256SOL     OW43600   7.064  12.184   8.448
47256SOL    HW143601   6.974  12.151   8.444
47256SOL    HW243602   7.106  12.148   8.371
47257SOL     OW43603   0.069   6.866  12.011
47257SOL    HW143604   0.013   6.832  12.081
47257SOL    HW243605   0.106   6.946  12.048
47258SOL     OW43606   4.280   4.494   2.332
47258SOL    HW143607   4.199   4.531   2.367
47258SOL    HW243608   4.256   4.408   2.298
47259SOL     OW43609  13.839  14.142   3.839
47259SOL    HW143610  13.910  14.205   3.829
47259SOL    HW243611  13.868  14.066   3.787
47260SOL     OW43612   3.045  14.292  14.741
47260SOL    HW143613   2.984  14.299  14.667
47260SOL    HW243614   3.087  14.207  14.730
47261SOL     OW43615  13.947   3.676  10.442
47261SOL    HW143616  13.998   3.753  10.468
47261SOL    HW243617  13.941   3.683  10.347
47262SOL     OW43618  10.287  11.345   6.319
47262SOL    HW143619  10.321  11.290   6.390
47262SOL    HW243620  10.212  11.297   6.285
47263SOL     OW43621   1.693  10.461  10.468
47263SOL    HW143622   1.757  10.421  10.528
47263SOL    HW243623   1.613  10.469  10.521
47264SOL     OW43624  13.990  12.254   2.358
47264SOL    HW143625  14.017  12.250   2.450
47264SOL    HW243626  14.002  12.165   2.325
47265SOL     OW43627   1.676   7.378   4.669
47265SOL    HW143628   1.588   7.391   4.704
47265SOL    HW243629   1.732   7.435   4.723
47266SOL     OW43630   2.934  11.166   8.926
47266SOL    HW143631   2.879  11.126   8.994
47266SOL    HW243632   2.972  11.091   8.880
47267SOL     OW43633  10.467   9.813  12.900
47267SOL    HW143634  10.443   9.769  12.982
47267SOL    HW243635  10.529   9.880  12.927
47268SOL     OW43636  13.526   5.850   0.823
47268SOL    HW143637  13.581   5.825   0.896
47268SOL    HW243638  13.463   5.779   0.814
47269SOL     OW43639   9.553  13.161   3.260
47269SOL    HW143640   9.645  13.188   3.263
47269SOL    HW243641   9.534  13.132   3.349
47270SOL     OW43642  12.382   8.633   9.173
47270SOL    HW143643  12.346   8.716   9.205
47270SOL    HW243644  12.467   8.626   9.217
47271SOL     OW43645   2.744   5.407   5.515
47271SOL    HW143646   2.770   5.499   5.519
47271SOL    HW243647   2.765   5.380   5.426
47272SOL     OW43648   6.621   1.757   6.230
47272SOL    HW143649   6.563   1.684   6.251
47272SOL    HW243650   6.651   1.740   6.142
47273SOL     OW43651  10.241   8.596   6.387
47273SOL    HW143652  10.261   8.650   6.310
47273SOL    HW243653  10.148   8.577   6.380
47274SOL     OW43654  14.547   3.466  12.997
47274SOL    HW143655  14.517   3.539  12.943
47274SOL    HW243656  14.541   3.390  12.940
47275SOL     OW43657  12.851  14.656   9.295
47275SOL    HW143658  12.946  14.658   9.306
47275SOL    HW243659  12.827  14.564   9.303
47276SOL     OW43660  12.070   1.535   1.613
47276SOL    HW143661  12.004   1.516   1.679
47276SOL    HW243662  12.043   1.618   1.574
47277SOL     OW43663  10.986   1.147   4.935
47277SOL    HW143664  10.926   1.139   4.860
47277SOL    HW243665  10.931   1.128   5.011
47278SOL     OW43666   1.195   2.634   8.893
47278SOL    HW143667   1.139   2.693   8.843
47278SOL    HW243668   1.197   2.553   8.842
47279SOL     OW43669   9.673  12.685  11.928
47279SOL    HW143670   9.691  12.610  11.871
47279SOL    HW243671   9.607  12.736  11.880
47280SOL     OW43672  11.087   2.060   1.578
47280SOL    HW143673  11.089   1.986   1.516
47280SOL    HW243674  10.996   2.063   1.608
47281SOL     OW43675  10.742   1.164   5.517
47281SOL    HW143676  10.685   1.089   5.531
47281SOL    HW243677  10.689   1.240   5.541
47282SOL     OW43678   9.956   5.624   0.754
47282SOL    HW143679   9.974   5.717   0.760
47282SOL    HW243680  10.015   5.592   0.685
47283SOL     OW43681   0.733   0.439  10.299
47283SOL    HW143682   0.770   0.431  10.211
47283SOL    HW243683   0.656   0.494  10.287
47284SOL     OW43684  10.726   6.627  11.891
47284SOL    HW143685  10.754   6.715  11.916
47284SOL    HW243686  10.691   6.589  11.971
47285SOL     OW43687  14.010   6.982   1.305
47285SOL    HW143688  13.991   7.008   1.215
47285SOL    HW243689  14.095   6.938   1.300
47286SOL     OW43690   4.022   0.205  12.567
47286SOL    HW143691   3.958   0.180  12.634
47286SOL    HW243692   3.973   0.260  12.506
47287SOL     OW43693  11.473   6.021   4.733
47287SOL    HW143694  11.486   6.115   4.721
47287SOL    HW243695  11.408   6.014   4.803
47288SOL     OW43696   7.627  12.902  11.992
47288SOL    HW143697   7.538  12.885  12.024
47288SOL    HW243698   7.684  12.870  12.063
47289SOL     OW43699   5.577   4.405   6.852
47289SOL    HW143700   5.665   4.379   6.881
47289SOL    HW243701   5.520   4.334   6.882
47290SOL     OW43702  13.152  12.746   0.939
47290SOL    HW143703  13.223  12.691   0.971
47290SOL    HW243704  13.156  12.739   0.844
47291SOL     OW43705  10.656   3.038   0.404
47291SOL    HW143706  10.732   3.054   0.349
47291SOL    HW243707  10.689   2.986   0.477
47292SOL     OW43708  14.737   8.965   7.740
47292SOL    HW143709  14.682   9.020   7.796
47292SOL    HW243710  14.730   9.005   7.653
47293SOL     OW43711   8.724   2.844   3.249
47293SOL    HW143712   8.760   2.887   3.171
47293SOL    HW243713   8.637   2.883   3.259
47294SOL     OW43714   6.774  14.514   5.735
47294SOL    HW143715   6.743  14.466   5.812
47294SOL    HW243716   6.741  14.463   5.660
47295SOL     OW43717   9.585  10.464  10.868
47295SOL    HW143718   9.552  10.386  10.913
47295SOL    HW243719   9.603  10.526  10.938
47296SOL     OW43720   2.569   9.132   5.324
47296SOL    HW143721   2.651   9.136   5.274
47296SOL    HW243722   2.530   9.048   5.299
47297SOL     OW43723   9.309  11.108  14.306
47297SOL    HW143724   9.377  11.117  14.239
47297SOL    HW243725   9.357  11.106  14.389
47298SOL     OW43726   5.859   0.385   9.618
47298SOL    HW143727   5.796   0.313   9.628
47298SOL    HW243728   5.806   0.460   9.591
47299SOL     OW43729   7.498   5.083   4.313
47299SOL    HW143730   7.468   5.058   4.400
47299SOL    HW243731   7.453   5.022   4.254
47300SOL     OW43732  11.654   4.862  12.536
47300SOL    HW143733  11.708   4.937  12.512
47300SOL    HW243734  11.686   4.791  12.480
47301SOL     OW43735   1.580   3.502   1.081
47301SOL    HW143736   1.503   3.530   1.033
47301SOL    HW243737   1.642   3.474   1.014
47302SOL     OW43738   2.189   9.108   1.891
47302SOL    HW143739   2.227   9.021   1.881
47302SOL    HW243740   2.255   9.159   1.938
47303SOL     OW43741  12.198   3.337   6.646
47303SOL    HW143742  12.201   3.429   6.673
47303SOL    HW243743  12.257   3.332   6.571
47304SOL     OW43744   0.837   0.471   8.143
47304SOL    HW143745   0.918   0.468   8.193
47304SOL    HW243746   0.847   0.403   8.076
47305SOL     OW43747   8.308  12.070   8.632
47305SOL    HW143748   8.264  12.007   8.576
47305SOL    HW243749   8.254  12.148   8.628
47306SOL     OW43750   2.038   3.390   2.774
47306SOL    HW143751   2.101   3.400   2.703
47306SOL    HW243752   2.056   3.464   2.832
47307SOL     OW43753   2.058  13.318   6.562
47307SOL    HW143754   1.980  13.373   6.565
47307SOL    HW243755   2.053  13.274   6.477
47308SOL     OW43756  13.726  11.848   7.068
47308SOL    HW143757  13.687  11.774   7.021
47308SOL    HW243758  13.786  11.807   7.131
47309SOL     OW43759   5.284   9.336  10.018
47309SOL    HW143760   5.199   9.307  10.051
47309SOL    HW243761   5.313   9.266   9.959
47310SOL     OW43762  14.012   8.212   4.453
47310SOL    HW143763  14.037   8.289   4.402
47310SOL    HW243764  14.089   8.190   4.505
47311SOL     OW43765   7.896  10.959   3.785
47311SOL    HW143766   7.813  11.002   3.802
47311SOL    HW243767   7.875  10.890   3.722
47312SOL     OW43768   0.872  11.968  13.584
47312SOL    HW143769   0.807  12.038  13.582
47312SOL    HW243770   0.955  12.012  13.569
47313SOL     OW43771   2.678  11.928   7.501
47313SOL    HW143772   2.769  11.899   7.490
47313SOL    HW243773   2.684  12.011   7.547
47314SOL     OW43774   4.048   5.666   4.129
47314SOL    HW143775   3.992   5.730   4.085
47314SOL    HW243776   4.126   5.661   4.074
47315SOL     OW43777   1.781   0.168   6.444
47315SOL    HW143778   1.723   0.093   6.430
47315SOL    HW243779   1.806   0.196   6.356
47316SOL     OW43780  13.864   9.795  13.401
47316SOL    HW143781  13.930   9.737  13.362
47316SOL    HW243782  13.780   9.757  13.374
47317SOL     OW43783   8.191   9.505   4.635
47317SOL    HW143784   8.117   9.464   4.680
47317SOL    HW243785   8.236   9.554   4.703
47318SOL     OW43786   6.552  10.286   8.326
47318SOL    HW143787   6.543  10.237   8.244
47318SOL    HW243788   6.618  10.352   8.307
47319SOL     OW43789   9.609   5.768   6.286
47319SOL    HW143790   9.590   5.792   6.376
47319SOL    HW243791   9.594   5.849   6.236
47320SOL     OW43792   6.332  12.078  13.156
47320SOL    HW143793   6.258  12.138  13.149
47320SOL    HW243794   6.347  12.047  13.067
47321SOL     OW43795  13.084   5.163   0.645
47321SOL    HW143796  13.020   5.149   0.576
47321SOL    HW243797  13.094   5.258   0.650
47322SOL     OW43798   5.527  13.153   1.187
47322SOL    HW143799   5.612  13.113   1.168
47322SOL    HW243800   5.542  13.205   1.266
47323SOL     OW43801  14.361   1.031   2.633
47323SOL    HW143802  14.391   1.022   2.724
47323SOL    HW243803  14.414   1.102   2.597
47324SOL     OW43804   4.261  11.593  12.202
47324SOL    HW143805   4.347  11.559  12.176
47324SOL    HW243806   4.205  11.516  12.208
47325SOL     OW43807   9.079   9.281   1.847
47325SOL    HW143808   9.170   9.268   1.822
47325SOL    HW243809   9.031   9.280   1.764
47326SOL     OW43810   2.612   6.716   8.943
47326SOL    HW143811   2.580   6.805   8.957
47326SOL    HW243812   2.631   6.683   9.031
47327SOL     OW43813   1.010   9.293   7.874
47327SOL    HW143814   0.922   9.278   7.908
47327SOL    HW243815   1.010   9.384   7.847
47328SOL     OW43816  13.658   8.253   0.577
47328SOL    HW143817  13.745   8.215   0.577
47328SOL    HW243818  13.645   8.285   0.488
47329SOL     OW43819  10.766   6.100   7.704
47329SOL    HW143820  10.811   6.042   7.643
47329SOL    HW243821  10.824   6.175   7.714
47330SOL     OW43822   4.839   8.665   2.087
47330SOL    HW143823   4.770   8.601   2.104
47330SOL    HW243824   4.914   8.634   2.138
47331SOL     OW43825   2.128  13.529   6.246
47331SOL    HW143826   2.062  13.463   6.225
47331SOL    HW243827   2.203  13.508   6.190
47332SOL     OW43828   4.131  14.445   0.200
47332SOL    HW143829   4.124  14.493   0.282
47332SOL    HW243830   4.224  14.451   0.177
47333SOL     OW43831  10.060   6.584  14.598
47333SOL    HW143832  10.021   6.657  14.551
47333SOL    HW243833  10.140   6.620  14.637
47334SOL     OW43834   7.533   6.296   1.443
47334SOL    HW143835   7.505   6.210   1.413
47334SOL    HW243836   7.465   6.324   1.505
47335SOL     OW43837  12.138   6.102  12.209
47335SOL    HW143838  12.215   6.068  12.162
47335SOL    HW243839  12.175   6.148  12.284
47336SOL     OW43840   2.994   8.304   1.892
47336SOL    HW143841   2.984   8.282   1.799
47336SOL    HW243842   2.905   8.328   1.920
47337SOL     OW43843   7.248  13.760   5.276
47337SOL    HW143844   7.155  13.743   5.290
47337SOL    HW243845   7.259  13.853   5.297
47338SOL     OW43846   6.754   8.669   3.478
47338SOL    HW143847   6.737   8.591   3.531
47338SOL    HW243848   6.724   8.742   3.533
47339SOL     OW43849  12.230   4.469  10.828
47339SOL    HW143850  12.148   4.486  10.781
47339SOL    HW243851  12.236   4.374  10.832
47340SOL     OW43852  11.171   3.306   5.532
47340SOL    HW143853  11.175   3.223   5.579
47340SOL    HW243854  11.130   3.367   5.593
47341SOL     OW43855   6.045   2.583  12.569
47341SOL    HW143856   6.057   2.676  12.551
47341SOL    HW243857   5.950   2.574  12.582
47342SOL     OW43858   5.043   7.266  14.436
47342SOL    HW143859   4.967   7.306  14.477
47342SOL    HW243860   5.115   7.327  14.453
47343SOL     OW43861  11.374   6.301   7.969
47343SOL    HW143862  11.302   6.279   7.910
47343SOL    HW243863  11.345   6.382   8.012
47344SOL     OW43864  10.428  11.659   5.588
47344SOL    HW143865  10.357  11.684   5.529
47344SOL    HW243866  10.506  11.702   5.552
47345SOL     OW43867  13.969  11.414   2.007
47345SOL    HW143868  14.015  11.480   2.060
47345SOL    HW243869  13.919  11.466   1.944
47346SOL     OW43870   7.400   5.491   3.138
47346SOL    HW143871   7.464   5.506   3.068
47346SOL    HW243872   7.453   5.465   3.214
47347SOL     OW43873   3.179   6.884   5.795
47347SOL    HW143874   3.268   6.867   5.826
47347SOL    HW243875   3.186   6.968   5.749
47348SOL     OW43876  13.275  13.914   0.009
47348SOL    HW143877  13.200  13.893  14.832
47348SOL    HW243878  13.328  13.834   0.010
47349SOL     OW43879   9.040   9.152   3.892
47349SOL    HW143880   8.947   9.160   3.917
47349SOL    HW243881   9.066   9.066   3.926
47350SOL     OW43882   3.995  14.536   1.793
47350SOL    HW143883   3.925  14.477   1.821
47350SOL    HW243884   3.964  14.571   1.709
47351SOL     OW43885   4.645   9.192   2.986
47351SOL    HW143886   4.716   9.146   2.941
47351SOL    HW243887   4.601   9.124   3.037
47352SOL     OW43888   0.793   6.267  10.592
47352SOL    HW143889   0.767   6.321  10.518
47352SOL    HW243890   0.802   6.328  10.665
47353SOL     OW43891  14.580  14.201   4.086
47353SOL    HW143892  14.663  14.242   4.109
47353SOL    HW243893  14.522  14.273   4.065
47354SOL     OW43894   8.919  14.706   7.718
47354SOL    HW143895   8.855  14.635   7.714
47354SOL    HW243896   8.867  14.783   7.742
47355SOL     OW43897   8.043   2.986  11.521
47355SOL    HW143898   7.986   3.023  11.454
47355SOL    HW243899   8.119   3.044  11.524
47356SOL     OW43900   8.475   1.212  11.397
47356SOL    HW143901   8.488   1.198  11.303
47356SOL    HW243902   8.380   1.206  11.409
47357SOL     OW43903   3.074  10.963   0.420
47357SOL    HW143904   3.105  10.881   0.459
47357SOL    HW243905   3.153  11.015   0.406
47358SOL     OW43906   2.875   0.850   8.127
47358SOL    HW143907   2.919   0.866   8.044
47358SOL    HW243908   2.803   0.791   8.106
47359SOL     OW43909  10.996   4.298   0.403
47359SOL    HW143910  11.068   4.361   0.401
47359SOL    HW243911  11.036   4.215   0.379
47360SOL     OW43912   5.784   7.662   1.069
47360SOL    HW143913   5.689   7.655   1.079
47360SOL    HW243914   5.819   7.598   1.130
47361SOL     OW43915   7.700   6.023  14.024
47361SOL    HW143916   7.725   6.090  13.960
47361SOL    HW243917   7.782   5.994  14.063
47362SOL     OW43918   3.914  10.864   1.268
47362SOL    HW143919   3.847  10.801   1.295
47362SOL    HW243920   3.948  10.828   1.186
47363SOL     OW43921   6.432   1.546   9.703
47363SOL    HW143922   6.346   1.505   9.711
47363SOL    HW243923   6.490   1.475   9.677
47364SOL     OW43924   1.516  10.742  13.050
47364SOL    HW143925   1.582  10.811  13.036
47364SOL    HW243926   1.465  10.741  12.969
47365SOL     OW43927  12.574   1.581  14.658
47365SOL    HW143928  12.568   1.494  14.618
47365SOL    HW243929  12.554   1.641  14.587
47366SOL     OW43930   1.891   5.218   8.680
47366SOL    HW143931   1.874   5.298   8.730
47366SOL    HW243932   1.982   5.196   8.699
47367SOL     OW43933  12.561  13.401   7.613
47367SOL    HW143934  12.586  13.389   7.704
47367SOL    HW243935  12.643  13.424   7.568
47368SOL     OW43936  12.220   9.477   3.616
47368SOL    HW143937  12.269   9.559   3.615
47368SOL    HW243938  12.129   9.503   3.604
47369SOL     OW43939   3.859  12.680   0.979
47369SOL    HW143940   3.777  12.713   0.941
47369SOL    HW243941   3.870  12.732   1.059
47370SOL     OW43942  10.631   3.954   2.654
47370SOL    HW143943  10.673   3.962   2.740
47370SOL    HW243944  10.563   3.888   2.667
47371SOL     OW43945  10.680   0.209   7.842
47371SOL    HW143946  10.591   0.240   7.859
47371SOL    HW243947  10.689   0.214   7.747
47372SOL     OW43948   4.461  14.187  13.843
47372SOL    HW143949   4.426  14.149  13.763
47372SOL    HW243950   4.407  14.151  13.913
47373SOL     OW43951   6.568  12.159  10.692
47373SOL    HW143952   6.646  12.134  10.643
47373SOL    HW243953   6.573  12.254  10.699
47374SOL     OW43954   2.922  13.850  14.771
47374SOL    HW143955   2.886  13.916  14.831
47374SOL    HW243956   2.886  13.767  14.802
47375SOL     OW43957   9.661   3.755   3.586
47375SOL    HW143958   9.581   3.764   3.533
47375SOL    HW243959   9.678   3.844   3.618
47376SOL     OW43960  13.139  11.242  10.431
47376SOL    HW143961  13.140  11.150  10.456
47376SOL    HW243962  13.228  11.261  10.403
47377SOL     OW43963   2.459   8.090  14.561
47377SOL    HW143964   2.535   8.035  14.540
47377SOL    HW243965   2.413   8.098  14.478
47378SOL     OW43966   5.604   1.975   7.478
47378SOL    HW143967   5.651   1.940   7.402
47378SOL    HW243968   5.668   1.972   7.550
47379SOL     OW43969   6.205   8.175   3.322
47379SOL    HW143970   6.150   8.249   3.295
47379SOL    HW243971   6.260   8.211   3.391
47380SOL     OW43972  12.451   5.147   2.301
47380SOL    HW143973  12.540   5.167   2.329
47380SOL    HW243974  12.396   5.167   2.377
47381SOL     OW43975   5.716   6.288  13.845
47381SOL    HW143976   5.727   6.199  13.814
47381SOL    HW243977   5.796   6.333  13.818
47382SOL     OW43978  10.178   1.762   8.093
47382SOL    HW143979  10.271   1.743   8.108
47382SOL    HW243980  10.135   1.733   8.173
47383SOL     OW43981   6.719   3.720   2.513
47383SOL    HW143982   6.716   3.662   2.589
47383SOL    HW243983   6.811   3.743   2.503
47384SOL     OW43984   8.567  10.611   7.507
47384SOL    HW143985   8.498  10.625   7.442
47384SOL    HW243986   8.610  10.696   7.516
47385SOL     OW43987   7.394  13.664   6.227
47385SOL    HW143988   7.390  13.583   6.177
47385SOL    HW243989   7.388  13.635   6.319
47386SOL     OW43990   8.026   3.556  13.514
47386SOL    HW143991   8.100   3.588  13.462
47386SOL    HW243992   7.952   3.610  13.486
47387SOL     OW43993   7.589   3.400  11.875
47387SOL    HW143994   7.683   3.382  11.879
47387SOL    HW243995   7.580   3.492  11.901
47388SOL     OW43996   9.086   5.374   4.697
47388SOL    HW143997   9.154   5.429   4.736
47388SOL    HW243998   9.075   5.408   4.608
47389SOL     OW43999   7.062   5.826   3.291
47389SOL    HW144000   7.032   5.737   3.310
47389SOL    HW244001   6.986   5.881   3.309
47390SOL     OW44002   4.570   1.720   0.759
47390SOL    HW144003   4.562   1.626   0.747
47390SOL    HW244004   4.648   1.744   0.708
47391SOL     OW44005   5.434   3.634  13.078
47391SOL    HW144006   5.488   3.676  13.146
47391SOL    HW244007   5.387   3.565  13.125
47392SOL     OW44008   3.145   8.681  10.244
47392SOL    HW144009   3.064   8.688  10.295
47392SOL    HW244010   3.190   8.605  10.281
47393SOL     OW44011   2.029  10.580   0.352
47393SOL    HW144012   1.973  10.540   0.418
47393SOL    HW244013   2.030  10.673   0.374
47394SOL     OW44014  10.689  11.608  11.460
47394SOL    HW144015  10.619  11.666  11.492
47394SOL    HW244016  10.675  11.526  11.506
47395SOL     OW44017   3.527   7.349   4.432
47395SOL    HW144018   3.439   7.319   4.452
47395SOL    HW244019   3.522   7.444   4.438
47396SOL     OW44020   3.104  13.859   4.821
47396SOL    HW144021   3.090  13.833   4.730
47396SOL    HW244022   3.190  13.825   4.843
47397SOL     OW44023  14.225  11.135   3.398
47397SOL    HW144024  14.282  11.151   3.474
47397SOL    HW244025  14.181  11.219   3.384
47398SOL     OW44026   3.247   5.996   8.655
47398SOL    HW144027   3.302   6.032   8.725
47398SOL    HW244028   3.158   6.001   8.689
47399SOL     OW44029   3.529   6.449  14.330
47399SOL    HW144030   3.459   6.387  14.307
47399SOL    HW244031   3.523   6.457  14.425
47400SOL     OW44032   0.241   0.879   6.646
47400SOL    HW144033   0.164   0.858   6.593
47400SOL    HW244034   0.274   0.961   6.609
47401SOL     OW44035   3.595   4.167   3.316
47401SOL    HW144036   3.651   4.154   3.393
47401SOL    HW244037   3.506   4.154   3.349
47402SOL     OW44038   5.594   7.121  13.715
47402SOL    HW144039   5.592   7.030  13.685
47402SOL    HW244040   5.505   7.152  13.700
47403SOL     OW44041   8.017   2.484  14.597
47403SOL    HW144042   7.934   2.439  14.577
47403SOL    HW244043   8.056   2.501  14.511
47404SOL     OW44044  11.133   2.928   8.741
47404SOL    HW144045  11.080   2.959   8.814
47404SOL    HW244046  11.103   2.839   8.724
47405SOL     OW44047   0.534   1.843  10.344
47405SOL    HW144048   0.532   1.798  10.259
47405SOL    HW244049   0.442   1.847  10.372
47406SOL     OW44050   4.267   1.805   8.814
47406SOL    HW144051   4.332   1.860   8.771
47406SOL    HW244052   4.237   1.745   8.745
47407SOL     OW44053   3.011   8.879  14.389
47407SOL    HW144054   2.987   8.796  14.430
47407SOL    HW244055   3.089   8.908  14.436
47408SOL     OW44056  14.241  12.500  11.003
47408SOL    HW144057  14.300  12.475  11.074
47408SOL    HW244058  14.298  12.508  10.926
47409SOL     OW44059   0.030  14.681   7.087
47409SOL    HW144060   0.023  14.771   7.118
47409SOL    HW244061   0.090  14.639   7.149
47410SOL     OW44062   0.162   7.041   4.395
47410SOL    HW144063   0.155   7.130   4.430
47410SOL    HW244064   0.136   6.984   4.468
47411SOL     OW44065  13.393  14.417  11.477
47411SOL    HW144066  13.318  14.366  11.447
47411SOL    HW244067  13.401  14.487  11.413
47412SOL     OW44068   1.940   9.506   8.739
47412SOL    HW144069   1.936   9.572   8.670
47412SOL    HW244070   1.883   9.436   8.708
47413SOL     OW44071  13.831  10.300   2.819
47413SOL    HW144072  13.878  10.377   2.786
47413SOL    HW244073  13.797  10.327   2.904
47414SOL     OW44074   6.674   0.159  11.263
47414SOL    HW144075   6.728   0.204  11.197
47414SOL    HW244076   6.737   0.115  11.320
47415SOL     OW44077   2.925  11.161   4.899
47415SOL    HW144078   2.905  11.156   4.993
47415SOL    HW244079   2.966  11.077   4.880
47416SOL     OW44080   7.940  12.509   4.839
47416SOL    HW144081   7.917  12.428   4.795
47416SOL    HW244082   8.020  12.538   4.795
47417SOL     OW44083   5.651   7.301   5.948
47417SOL    HW144084   5.720   7.284   6.012
47417SOL    HW244085   5.662   7.393   5.925
47418SOL     OW44086   7.107   5.930   3.889
47418SOL    HW144087   7.179   5.993   3.897
47418SOL    HW244088   7.139   5.863   3.829
47419SOL     OW44089   9.936  13.440   8.422
47419SOL    HW144090   9.889  13.440   8.505
47419SOL    HW244091  10.022  13.476   8.442
47420SOL     OW44092  13.515  10.045   6.636
47420SOL    HW144093  13.462   9.987   6.690
47420SOL    HW244094  13.547   9.989   6.565
47421SOL     OW44095  11.678  10.915   8.929
47421SOL    HW144096  11.719  10.856   8.992
47421SOL    HW244097  11.688  10.871   8.845
47422SOL     OW44098  13.515  11.179   5.606
47422SOL    HW144099  13.442  11.155   5.548
47422SOL    HW244100  13.511  11.275   5.610
47423SOL     OW44101  10.620  12.207  14.174
47423SOL    HW144102  10.642  12.188  14.083
47423SOL    HW244103  10.536  12.251  14.170
47424SOL     OW44104   0.183  12.502  12.267
47424SOL    HW144105   0.136  12.458  12.197
47424SOL    HW244106   0.204  12.588  12.232
47425SOL     OW44107  13.157  10.405  10.981
47425SOL    HW144108  13.221  10.469  11.014
47425SOL    HW244109  13.211  10.338  10.939
47426SOL     OW44110   6.943   4.345   1.907
47426SOL    HW144111   6.931   4.437   1.930
47426SOL    HW244112   7.028   4.342   1.863
47427SOL     OW44113   4.333   8.525  10.940
47427SOL    HW144114   4.284   8.509  10.860
47427SOL    HW244115   4.271   8.569  10.998
47428SOL     OW44116  11.713   0.502   3.470
47428SOL    HW144117  11.713   0.415   3.431
47428SOL    HW244118  11.775   0.552   3.417
47429SOL     OW44119  12.604  11.691   8.359
47429SOL    HW144120  12.531  11.671   8.418
47429SOL    HW244121  12.570  11.673   8.271
47430SOL     OW44122  11.093   3.802   0.461
47430SOL    HW144123  11.039   3.826   0.536
47430SOL    HW244124  11.065   3.862   0.391
47431SOL     OW44125   5.836  12.242   8.784
47431SOL    HW144126   5.745  12.266   8.768
47431SOL    HW244127   5.854  12.172   8.721
47432SOL     OW44128   0.689   6.516   4.358
47432SOL    HW144129   0.602   6.543   4.328
47432SOL    HW244130   0.712   6.579   4.426
47433SOL     OW44131  14.280   1.464  14.056
47433SOL    HW144132  14.358   1.473  14.111
47433SOL    HW244133  14.211   1.508  14.105
47434SOL     OW44134  11.893  14.327  13.715
47434SOL    HW144135  11.920  14.311  13.625
47434SOL    HW244136  11.945  14.402  13.743
47435SOL     OW44137   8.658   0.044  10.999
47435SOL    HW144138   8.677   0.127  11.043
47435SOL    HW244139   8.605   0.069  10.923
47436SOL     OW44140  11.662   2.754   0.889
47436SOL    HW144141  11.570   2.778   0.899
47436SOL    HW244142  11.690   2.797   0.809
47437SOL     OW44143  12.754   6.346  13.872
47437SOL    HW144144  12.819   6.300  13.924
47437SOL    HW244145  12.743   6.293  13.793
47438SOL     OW44146  14.344  13.706   9.164
47438SOL    HW144147  14.255  13.676   9.146
47438SOL    HW244148  14.336  13.761   9.242
47439SOL     OW44149   5.956   7.547   7.194
47439SOL    HW144150   6.035   7.595   7.169
47439SOL    HW244151   5.888   7.580   7.135
47440SOL     OW44152  10.985   1.665   4.313
47440SOL    HW144153  10.896   1.648   4.283
47440SOL    HW244154  11.033   1.690   4.233
47441SOL     OW44155   3.935  13.883   1.818
47441SOL    HW144156   3.926  13.875   1.913
47441SOL    HW244157   3.899  13.969   1.797
47442SOL     OW44158   9.268  10.495   3.458
47442SOL    HW144159   9.188  10.476   3.506
47442SOL    HW244160   9.267  10.590   3.446
47443SOL     OW44161   7.599   7.480  12.647
47443SOL    HW144162   7.587   7.394  12.689
47443SOL    HW244163   7.523   7.531  12.675
47444SOL     OW44164   7.343   6.077   8.621
47444SOL    HW144165   7.330   6.048   8.711
47444SOL    HW244166   7.333   5.997   8.569
47445SOL     OW44167   8.396   2.278   8.521
47445SOL    HW144168   8.478   2.265   8.569
47445SOL    HW244169   8.330   2.291   8.588
47446SOL     OW44170  12.562  10.613  11.385
47446SOL    HW144171  12.629  10.547  11.399
47446SOL    HW244172  12.606  10.697  11.400
47447SOL     OW44173   5.088   8.231   8.163
47447SOL    HW144174   5.126   8.147   8.188
47447SOL    HW244175   5.128   8.251   8.078
47448SOL     OW44176  14.773   5.158  14.373
47448SOL    HW144177  14.720   5.121  14.444
47448SOL    HW244178  14.863   5.135  14.395
47449SOL     OW44179   4.494  10.202  13.161
47449SOL    HW144180   4.507  10.260  13.236
47449SOL    HW244181   4.430  10.247  13.106
47450SOL     OW44182  14.635   2.378  13.832
47450SOL    HW144183  14.657   2.350  13.921
47450SOL    HW244184  14.646   2.473  13.834
47451SOL     OW44185  12.055  13.706   0.456
47451SOL    HW144186  12.114  13.662   0.395
47451SOL    HW244187  11.994  13.637   0.484
47452SOL     OW44188   1.209   5.650   6.614
47452SOL    HW144189   1.139   5.713   6.595
47452SOL    HW244190   1.219   5.654   6.709
47453SOL     OW44191   2.042  10.788  13.503
47453SOL    HW144192   2.106  10.746  13.561
47453SOL    HW244193   2.042  10.733  13.424
47454SOL     OW44194  12.929   4.823   0.648
47454SOL    HW144195  12.978   4.863   0.720
47454SOL    HW244196  12.841   4.808   0.683
47455SOL     OW44197  14.556   7.246   7.758
47455SOL    HW144198  14.517   7.326   7.721
47455SOL    HW244199  14.576   7.269   7.849
47456SOL     OW44200   0.517  11.801   5.092
47456SOL    HW144201   0.434  11.837   5.122
47456SOL    HW244202   0.494  11.723   5.043
47457SOL     OW44203  12.985  14.062  11.032
47457SOL    HW144204  12.970  14.104  10.947
47457SOL    HW244205  13.070  14.095  11.061
47458SOL     OW44206   2.254   1.917   9.129
47458SOL    HW144207   2.224   1.883   9.045
47458SOL    HW244208   2.194   1.990   9.148
47459SOL     OW44209   2.659  14.372   8.776
47459SOL    HW144210   2.745  14.338   8.802
47459SOL    HW244211   2.659  14.367   8.681
47460SOL     OW44212   3.926   0.285  10.937
47460SOL    HW144213   3.934   0.290  10.841
47460SOL    HW244214   3.859   0.350  10.958
47461SOL     OW44215  13.375  13.096   2.929
47461SOL    HW144216  13.393  13.003   2.938
47461SOL    HW244217  13.399  13.134   3.013
47462SOL     OW44218   9.932   5.924  14.784
47462SOL    HW144219   9.946   6.015  14.760
47462SOL    HW244220   9.879   5.888  14.712
47463SOL     OW44221   6.906  11.107   0.934
47463SOL    HW144222   6.966  11.179   0.955
47463SOL    HW244223   6.835  11.148   0.885
47464SOL     OW44224   7.116   5.141   4.878
47464SOL    HW144225   7.066   5.116   4.801
47464SOL    HW244226   7.155   5.226   4.855
47465SOL     OW44227   7.383   3.469   6.652
47465SOL    HW144228   7.336   3.538   6.699
47465SOL    HW244229   7.350   3.387   6.690
47466SOL     OW44230   6.355   6.694   2.731
47466SOL    HW144231   6.356   6.598   2.734
47466SOL    HW244232   6.438   6.717   2.690
47467SOL     OW44233   6.927   7.338   3.268
47467SOL    HW144234   7.007   7.389   3.260
47467SOL    HW244235   6.958   7.248   3.284
47468SOL     OW44236   8.108  10.629   7.851
47468SOL    HW144237   8.180  10.583   7.808
47468SOL    HW244238   8.118  10.607   7.944
47469SOL     OW44239   5.652   8.611   3.310
47469SOL    HW144240   5.609   8.688   3.349
47469SOL    HW244241   5.723   8.590   3.371
47470SOL     OW44242   8.159  14.075   8.895
47470SOL    HW144243   8.199  13.988   8.893
47470SOL    HW244244   8.129  14.085   8.985
47471SOL     OW44245  10.711   7.186   6.936
47471SOL    HW144246  10.628   7.148   6.910
47471SOL    HW244247  10.759   7.114   6.976
47472SOL     OW44248   8.634  11.817  10.671
47472SOL    HW144249   8.654  11.895  10.619
47472SOL    HW244250   8.647  11.744  10.611
47473SOL     OW44251   3.268  10.898  11.161
47473SOL    HW144252   3.185  10.923  11.201
47473SOL    HW244253   3.296  10.976  11.112
47474SOL     OW44254   2.140   3.890  10.782
47474SOL    HW144255   2.212   3.926  10.834
47474SOL    HW244256   2.150   3.931  10.696
47475SOL     OW44257   3.553   7.643   9.116
47475SOL    HW144258   3.523   7.554   9.138
47475SOL    HW244259   3.613   7.630   9.043
47476SOL     OW44260   5.139   0.504   3.366
47476SOL    HW144261   5.076   0.549   3.310
47476SOL    HW244262   5.086   0.444   3.419
47477SOL     OW44263   2.493   8.348  13.211
47477SOL    HW144264   2.416   8.328  13.263
47477SOL    HW244265   2.467   8.327  13.121
47478SOL     OW44266  12.199  12.402   0.355
47478SOL    HW144267  12.139  12.429   0.425
47478SOL    HW244268  12.163  12.320   0.322
47479SOL     OW44269  13.762  10.535   5.213
47479SOL    HW144270  13.799  10.471   5.152
47479SOL    HW244271  13.715  10.597   5.158
47480SOL     OW44272   0.949   3.329   4.022
47480SOL    HW144273   0.932   3.354   3.932
47480SOL    HW244274   0.988   3.406   4.062
47481SOL     OW44275   3.369   6.530   1.786
47481SOL    HW144276   3.336   6.618   1.765
47481SOL    HW244277   3.364   6.526   1.882
47482SOL     OW44278   6.074  13.876  10.993
47482SOL    HW144279   6.113  13.868  10.906
47482SOL    HW244280   6.127  13.942  11.038
47483SOL     OW44281   8.004   6.514   2.202
47483SOL    HW144282   7.964   6.436   2.164
47483SOL    HW244283   8.025   6.489   2.291
47484SOL     OW44284   7.233   4.038   8.517
47484SOL    HW144285   7.231   4.006   8.427
47484SOL    HW244286   7.179   4.117   8.516
47485SOL     OW44287  10.938   3.803  12.131
47485SOL    HW144288  10.866   3.864  12.146
47485SOL    HW244289  11.004   3.855  12.085
47486SOL     OW44290   9.772   6.522   7.841
47486SOL    HW144291   9.743   6.438   7.877
47486SOL    HW244292   9.745   6.520   7.749
47487SOL     OW44293   0.173  12.689  12.827
47487SOL    HW144294   0.107  12.721  12.888
47487SOL    HW244295   0.220  12.767  12.798
47488SOL     OW44296   2.548  12.650   5.941
47488SOL    HW144297   2.483  12.581   5.925
47488SOL    HW244298   2.625  12.623   5.891
47489SOL     OW44299  12.719   4.451   0.555
47489SOL    HW144300  12.686   4.518   0.495
47489SOL    HW244301  12.661   4.455   0.630
47490SOL     OW44302  13.893   5.906   1.391
47490SOL    HW144303  13.975   5.883   1.347
47490SOL    HW244304  13.900   5.866   1.478
47491SOL     OW44305  12.477  12.034  12.302
47491SOL    HW144306  12.440  11.958  12.257
47491SOL    HW244307  12.434  12.109  12.261
47492SOL     OW44308  14.001   7.881   8.185
47492SOL    HW144309  13.931   7.856   8.125
47492SOL    HW244310  13.956   7.903   8.267
47493SOL     OW44311  12.488   8.580  14.811
47493SOL    HW144312  12.434   8.558   0.008
47493SOL    HW244313  12.454   8.527  14.739
47494SOL     OW44314   8.142  10.668   1.387
47494SOL    HW144315   8.187  10.743   1.347
47494SOL    HW244316   8.159  10.677   1.481
47495SOL     OW44317  14.424   7.400   1.370
47495SOL    HW144318  14.372   7.480   1.378
47495SOL    HW244319  14.369   7.332   1.409
47496SOL     OW44320   6.476  10.856   2.073
47496SOL    HW144321   6.462  10.774   2.121
47496SOL    HW244322   6.417  10.919   2.114
47497SOL     OW44323   8.424   6.358   0.889
47497SOL    HW144324   8.376   6.439   0.871
47497SOL    HW244325   8.452   6.366   0.980
47498SOL     OW44326  11.682   0.258   9.833
47498SOL    HW144327  11.613   0.206   9.874
47498SOL    HW244328  11.691   0.222   9.745
47499SOL     OW44329   5.751  10.183   6.344
47499SOL    HW144330   5.709  10.234   6.414
47499SOL    HW244331   5.684  10.179   6.275
47500SOL     OW44332   8.990   0.607   6.762
47500SOL    HW144333   9.063   0.654   6.802
47500SOL    HW244334   8.917   0.670   6.765
47501SOL     OW44335   9.743   1.840   4.016
47501SOL    HW144336   9.707   1.753   3.999
47501SOL    HW244337   9.831   1.837   3.979
47502SOL     OW44338   5.301   4.696   3.113
47502SOL    HW144339   5.309   4.666   3.204
47502SOL    HW244340   5.366   4.765   3.104
47503SOL     OW44341   0.186   7.571  12.178
47503SOL    HW144342   0.133   7.496  12.205
47503SOL    HW244343   0.256   7.533  12.124
47504SOL     OW44344   1.285   1.382   7.147
47504SOL    HW144345   1.209   1.331   7.173
47504SOL    HW244346   1.359   1.324   7.162
47505SOL     OW44347   9.043   3.371   0.839
47505SOL    HW144348   8.992   3.444   0.877
47505SOL    HW244349   8.988   3.338   0.768
47506SOL     OW44350  11.235   8.560  14.012
47506SOL    HW144351  11.143   8.544  13.991
47506SOL    HW244352  11.259   8.636  13.960
47507SOL     OW44353  13.224   9.187   8.962
47507SOL    HW144354  13.310   9.152   8.939
47507SOL    HW244355  13.179   9.114   9.005
47508SOL     OW44356   0.973   6.584  12.451
47508SOL    HW144357   0.905   6.520  12.472
47508SOL    HW244358   0.925   6.667  12.442
47509SOL     OW44359   4.563  11.592   4.765
47509SOL    HW144360   4.497  11.537   4.724
47509SOL    HW244361   4.518  11.674   4.785
47510SOL     OW44362   0.216  11.381   3.981
47510SOL    HW144363   0.131  11.351   3.948
47510SOL    HW244364   0.225  11.470   3.947
47511SOL     OW44365  13.396  10.799   2.480
47511SOL    HW144366  13.349  10.833   2.557
47511SOL    HW244367  13.355  10.844   2.406
47512SOL     OW44368   8.515   1.848  10.229
47512SOL    HW144369   8.440   1.825  10.175
47512SOL    HW244370   8.500   1.940  10.253
47513SOL     OW44371  10.432  12.565  14.580
47513SOL    HW144372  10.456  12.650  14.541
47513SOL    HW244373  10.463  12.570  14.670
47514SOL     OW44374   7.824   4.415   0.824
47514SOL    HW144375   7.730   4.412   0.842
47514SOL    HW244376   7.861   4.459   0.901
47515SOL     OW44377   5.606  13.968   4.749
47515SOL    HW144378   5.547  13.912   4.698
47515SOL    HW244379   5.600  13.933   4.838
47516SOL     OW44380  12.637  14.234   1.941
47516SOL    HW144381  12.598  14.153   1.907
47516SOL    HW244382  12.718  14.244   1.891
47517SOL     OW44383  10.587  12.149  10.350
47517SOL    HW144384  10.521  12.120  10.287
47517SOL    HW244385  10.656  12.084  10.344
47518SOL     OW44386  11.319  10.633   6.443
47518SOL    HW144387  11.226  10.608   6.438
47518SOL    HW244388  11.356  10.571   6.505
47519SOL     OW44389  10.510   2.336  13.535
47519SOL    HW144390  10.508   2.289  13.619
47519SOL    HW244391  10.602   2.334  13.509
47520SOL     OW44392   5.656   7.737  10.090
47520SOL    HW144393   5.584   7.791  10.121
47520SOL    HW244394   5.735   7.782  10.119
47521SOL     OW44395   7.427   9.552   6.014
47521SOL    HW144396   7.357   9.534   6.077
47521SOL    HW244397   7.481   9.473   6.015
47522SOL     OW44398  14.712  10.760   2.211
47522SOL    HW144399  14.647  10.759   2.282
47522SOL    HW244400  14.681  10.692   2.150
47523SOL     OW44401  13.716   7.243   7.795
47523SOL    HW144402  13.786   7.250   7.859
47523SOL    HW244403  13.757   7.267   7.712
47524SOL     OW44404  11.745  11.721  13.481
47524SOL    HW144405  11.652  11.700  13.485
47524SOL    HW244406  11.760  11.750  13.391
47525SOL     OW44407  10.533   9.555   6.387
47525SOL    HW144408  10.555   9.537   6.478
47525SOL    HW244409  10.555   9.474   6.340
47526SOL     OW44410   1.467   9.332   8.325
47526SOL    HW144411   1.393   9.376   8.282
47526SOL    HW244412   1.458   9.240   8.300
47527SOL     OW44413   3.161   3.107  11.452
47527SOL    HW144414   3.210   3.182  11.418
47527SOL    HW244415   3.138   3.057  11.374
47528SOL     OW44416   2.224  13.056   4.700
47528SOL    HW144417   2.266  13.088   4.620
47528SOL    HW244418   2.132  13.081   4.691
47529SOL     OW44419   0.893   6.330   7.944
47529SOL    HW144420   0.828   6.287   7.888
47529SOL    HW244421   0.848   6.345   8.027
47530SOL     OW44422  11.460   2.422  12.936
47530SOL    HW144423  11.548   2.406  12.969
47530SOL    HW244424  11.404   2.364  12.987
47531SOL     OW44425   4.599   4.200   0.184
47531SOL    HW144426   4.633   4.147   0.256
47531SOL    HW244427   4.657   4.181   0.110
47532SOL     OW44428  11.462  12.733   6.860
47532SOL    HW144429  11.502  12.756   6.776
47532SOL    HW244430  11.533  12.696   6.912
47533SOL     OW44431   0.205   1.068   0.969
47533SOL    HW144432   0.195   1.160   0.994
47533SOL    HW244433   0.299   1.051   0.981
47534SOL     OW44434  11.636  13.424   2.773
47534SOL    HW144435  11.567  13.358   2.762
47534SOL    HW244436  11.626  13.482   2.698
47535SOL     OW44437   0.713   3.283  12.479
47535SOL    HW144438   0.629   3.319  12.508
47535SOL    HW244439   0.754   3.354  12.430
47536SOL     OW44440   3.898   6.072  14.732
47536SOL    HW144441   3.809   6.062  14.764
47536SOL    HW244442   3.914   6.166  14.737
47537SOL     OW44443   6.906   3.988  11.462
47537SOL    HW144444   6.957   4.065  11.489
47537SOL    HW244445   6.938   3.968  11.374
47538SOL     OW44446  12.228   8.843  12.971
47538SOL    HW144447  12.240   8.752  12.946
47538SOL    HW244448  12.205   8.840  13.063
47539SOL     OW44449   8.272  10.609   0.497
47539SOL    HW144450   8.203  10.543   0.493
47539SOL    HW244451   8.318  10.601   0.413
47540SOL     OW44452   9.414   4.555   8.291
47540SOL    HW144453   9.470   4.624   8.256
47540SOL    HW244454   9.454   4.473   8.259
47541SOL     OW44455  13.994   4.141   0.170
47541SOL    HW144456  13.926   4.201   0.200
47541SOL    HW244457  13.951   4.055   0.165
47542SOL     OW44458   2.851   2.976  13.826
47542SOL    HW144459   2.946   2.971  13.821
47542SOL    HW244460   2.825   2.894  13.867
47543SOL     OW44461  10.879   0.983   8.588
47543SOL    HW144462  10.942   1.052   8.610
47543SOL    HW244463  10.805   0.999   8.646
47544SOL     OW44464   6.623   7.310   6.268
47544SOL    HW144465   6.715   7.333   6.257
47544SOL    HW244466   6.617   7.271   6.355
47545SOL     OW44467   4.178  11.259   7.100
47545SOL    HW144468   4.260  11.307   7.108
47545SOL    HW244469   4.110  11.327   7.108
47546SOL     OW44470   2.976   3.421  11.358
47546SOL    HW144471   2.911   3.446  11.424
47546SOL    HW244472   2.972   3.491  11.293
47547SOL     OW44473   3.276  14.060   7.678
47547SOL    HW144474   3.232  13.979   7.705
47547SOL    HW244475   3.349  14.069   7.739
47548SOL     OW44476  12.815   0.214   7.634
47548SOL    HW144477  12.814   0.306   7.607
47548SOL    HW244478  12.854   0.168   7.560
47549SOL     OW44479  13.576   5.184  12.175
47549SOL    HW144480  13.609   5.260  12.129
47549SOL    HW244481  13.529   5.220  12.250
47550SOL     OW44482  10.192   1.206  12.022
47550SOL    HW144483  10.286   1.195  12.040
47550SOL    HW244484  10.180   1.173  11.934
47551SOL     OW44485   4.627   6.806  10.159
47551SOL    HW144486   4.588   6.741  10.218
47551SOL    HW244487   4.714   6.773  10.140
47552SOL     OW44488   9.955  10.580   5.014
47552SOL    HW144489   9.997  10.620   5.090
47552SOL    HW244490   9.868  10.621   5.011
47553SOL     OW44491   0.191  13.271   5.531
47553SOL    HW144492   0.106  13.255   5.573
47553SOL    HW244493   0.233  13.185   5.529
47554SOL     OW44494   5.102   5.817  10.601
47554SOL    HW144495   5.070   5.732  10.568
47554SOL    HW244496   5.063   5.824  10.688
47555SOL     OW44497  10.692   9.856  11.158
47555SOL    HW144498  10.768   9.848  11.215
47555SOL    HW244499  10.720   9.815  11.076
47556SOL     OW44500   4.139  13.020   9.980
47556SOL    HW144501   4.075  12.950   9.970
47556SOL    HW244502   4.164  13.017  10.072
47557SOL     OW44503   1.929   0.031  11.292
47557SOL    HW144504   1.943   0.124  11.274
47557SOL    HW244505   1.917   0.027  11.387
47558SOL     OW44506   2.816   3.069  10.295
47558SOL    HW144507   2.834   3.029  10.210
47558SOL    HW244508   2.879   3.028  10.354
47559SOL     OW44509  12.207   6.591   4.820
47559SOL    HW144510  12.224   6.500   4.794
47559SOL    HW244511  12.202   6.588   4.915
47560SOL     OW44512  11.081   2.496   9.057
47560SOL    HW144513  11.078   2.455   8.971
47560SOL    HW244514  11.045   2.430   9.116
47561SOL     OW44515  11.108   5.275   4.422
47561SOL    HW144516  11.089   5.363   4.453
47561SOL    HW244517  11.201   5.262   4.442
47562SOL     OW44518   1.030   3.960   2.816
47562SOL    HW144519   1.042   3.966   2.911
47562SOL    HW244520   1.037   3.867   2.797
47563SOL     OW44521   9.041   9.388   5.984
47563SOL    HW144522   9.054   9.377   6.078
47563SOL    HW244523   8.978   9.458   5.976
47564SOL     OW44524   4.410   5.122   9.974
47564SOL    HW144525   4.386   5.166   9.892
47564SOL    HW244526   4.469   5.183  10.018
47565SOL     OW44527  12.000  11.437   0.200
47565SOL    HW144528  11.975  11.450   0.109
47565SOL    HW244529  12.084  11.391   0.196
47566SOL     OW44530  10.033   3.726   9.251
47566SOL    HW144531   9.938   3.739   9.248
47566SOL    HW244532  10.046   3.633   9.232
47567SOL     OW44533   1.349   2.760   9.352
47567SOL    HW144534   1.417   2.821   9.324
47567SOL    HW244535   1.297   2.810   9.415
47568SOL     OW44536   5.455   0.095   3.286
47568SOL    HW144537   5.506   0.073   3.364
47568SOL    HW244538   5.384   0.031   3.284
47569SOL     OW44539   3.683  13.341   3.413
47569SOL    HW144540   3.695  13.413   3.352
47569SOL    HW244541   3.680  13.383   3.499
47570SOL     OW44542  11.888   1.530   8.621
47570SOL    HW144543  11.937   1.449   8.610
47570SOL    HW244544  11.836   1.516   8.700
47571SOL     OW44545  10.326   4.878   6.217
47571SOL    HW144546  10.419   4.874   6.238
47571SOL    HW244547  10.285   4.815   6.277
47572SOL     OW44548   0.482   8.603   4.004
47572SOL    HW144549   0.395   8.643   4.011
47572SOL    HW244550   0.525   8.625   4.086
47573SOL     OW44551   0.701  13.596   6.480
47573SOL    HW144552   0.671  13.637   6.561
47573SOL    HW244553   0.761  13.527   6.509
47574SOL     OW44554   5.516   6.422   7.948
47574SOL    HW144555   5.544   6.336   7.979
47574SOL    HW244556   5.480   6.405   7.861
47575SOL     OW44557   5.219   3.770   0.958
47575SOL    HW144558   5.147   3.711   0.938
47575SOL    HW244559   5.244   3.748   1.048
47576SOL     OW44560  14.106  12.767  11.230
47576SOL    HW144561  14.176  12.824  11.201
47576SOL    HW244562  14.123  12.754  11.324
47577SOL     OW44563   0.597   0.561   3.857
47577SOL    HW144564   0.674   0.516   3.893
47577SOL    HW244565   0.532   0.491   3.846
47578SOL     OW44566   5.825   0.902   6.892
47578SOL    HW144567   5.779   0.933   6.814
47578SOL    HW244568   5.767   0.836   6.930
47579SOL     OW44569   8.173   7.350   3.838
47579SOL    HW144570   8.182   7.298   3.919
47579SOL    HW244571   8.100   7.409   3.855
47580SOL     OW44572   1.418  13.147  11.083
47580SOL    HW144573   1.504  13.122  11.115
47580SOL    HW244574   1.400  13.232  11.124
47581SOL     OW44575   3.816   3.791   7.740
47581SOL    HW144576   3.785   3.870   7.696
47581SOL    HW244577   3.889   3.761   7.686
47582SOL     OW44578  14.519   2.717   5.446
47582SOL    HW144579  14.436   2.701   5.400
47582SOL    HW244580  14.557   2.630   5.458
47583SOL     OW44581   5.473   3.682   5.354
47583SOL    HW144582   5.530   3.621   5.306
47583SOL    HW244583   5.457   3.639   5.438
47584SOL     OW44584  10.246   7.093   1.022
47584SOL    HW144585  10.338   7.114   1.008
47584SOL    HW244586  10.218   7.151   1.093
47585SOL     OW44587   5.638  12.270   5.296
47585SOL    HW144588   5.544  12.276   5.280
47585SOL    HW244589   5.676  12.255   5.209
47586SOL     OW44590   7.208   1.210   4.832
47586SOL    HW144591   7.243   1.240   4.916
47586SOL    HW244592   7.270   1.244   4.767
47587SOL     OW44593   3.659   7.874  14.798
47587SOL    HW144594   3.614   7.957  14.780
47587SOL    HW244595   3.599   7.825  14.854
47588SOL     OW44596   3.609   9.697   3.394
47588SOL    HW144597   3.623   9.628   3.330
47588SOL    HW244598   3.618   9.778   3.343
47589SOL     OW44599   7.740   3.581   9.587
47589SOL    HW144600   7.653   3.620   9.579
47589SOL    HW244601   7.799   3.656   9.596
47590SOL     OW44602   1.960   5.259   8.942
47590SOL    HW144603   1.923   5.306   9.016
47590SOL    HW244604   2.030   5.205   8.979
47591SOL     OW44605   0.244   8.097   3.912
47591SOL    HW144606   0.321   8.046   3.939
47591SOL    HW244607   0.218   8.146   3.991
47592SOL     OW44608   4.688   4.575  12.568
47592SOL    HW144609   4.783   4.579  12.564
47592SOL    HW244610   4.662   4.660  12.604
47593SOL     OW44611  10.121  13.041   0.741
47593SOL    HW144612  10.169  13.073   0.817
47593SOL    HW244613  10.156  13.093   0.668
47594SOL     OW44614   0.080   8.960   7.932
47594SOL    HW144615   0.017   8.952   7.860
47594SOL    HW244616   0.052   8.894   7.996
47595SOL     OW44617   7.307  10.167  14.271
47595SOL    HW144618   7.294  10.153  14.178
47595SOL    HW244619   7.323  10.080  14.307
47596SOL     OW44620  11.566  11.865   9.859
47596SOL    HW144621  11.517  11.785   9.879
47596SOL    HW244622  11.608  11.846   9.775
47597SOL     OW44623   7.847   1.284   5.848
47597SOL    HW144624   7.762   1.240   5.847
47597SOL    HW244625   7.838   1.353   5.913
47598SOL     OW44626   3.671   4.258   9.738
47598SOL    HW144627   3.619   4.338   9.735
47598SOL    HW244628   3.631   4.201   9.672
47599SOL     OW44629   9.151   3.992   1.724
47599SOL    HW144630   9.160   4.053   1.798
47599SOL    HW244631   9.112   3.914   1.762
47600SOL     OW44632   6.905   8.054   7.566
47600SOL    HW144633   6.954   8.100   7.633
47600SOL    HW244634   6.844   8.119   7.531
47601SOL     OW44635   7.711  13.984   8.347
47601SOL    HW144636   7.709  14.080   8.354
47601SOL    HW244637   7.697  13.966   8.255
47602SOL     OW44638  10.079   8.034   6.875
47602SOL    HW144639  10.042   7.983   6.947
47602SOL    HW244640  10.103   8.117   6.915
47603SOL     OW44641   9.349  12.624   9.288
47603SOL    HW144642   9.425  12.572   9.262
47603SOL    HW244643   9.282  12.560   9.309
47604SOL     OW44644  10.573   0.803   8.897
47604SOL    HW144645  10.483   0.799   8.929
47604SOL    HW244646  10.618   0.731   8.941
47605SOL     OW44647   2.084   7.580  11.296
47605SOL    HW144648   2.066   7.669  11.266
47605SOL    HW244649   2.155   7.549  11.240
47606SOL     OW44650   6.025  14.407  11.168
47606SOL    HW144651   5.938  14.386  11.204
47606SOL    HW244652   6.049  14.328  11.119
47607SOL     OW44653   1.559   9.955   8.144
47607SOL    HW144654   1.633   9.966   8.205
47607SOL    HW244655   1.513   9.878   8.178
47608SOL     OW44656  10.082  11.248   4.451
47608SOL    HW144657  10.087  11.272   4.543
47608SOL    HW244658  10.083  11.332   4.404
47609SOL     OW44659   0.745   7.529  10.349
47609SOL    HW144660   0.659   7.559  10.320
47609SOL    HW244661   0.755   7.443  10.309
47610SOL     OW44662  10.094   3.060   3.157
47610SOL    HW144663  10.048   3.050   3.241
47610SOL    HW244664  10.072   2.980   3.109
47611SOL     OW44665   9.070  12.059   6.525
47611SOL    HW144666   9.089  11.977   6.480
47611SOL    HW244667   9.055  12.122   6.455
47612SOL     OW44668   1.531   3.658   3.353
47612SOL    HW144669   1.436   3.670   3.343
47612SOL    HW244670   1.566   3.747   3.361
47613SOL     OW44671   9.185   6.636  14.423
47613SOL    HW144672   9.162   6.687  14.346
47613SOL    HW244673   9.273   6.666  14.446
47614SOL     OW44674   7.913   4.410  13.435
47614SOL    HW144675   7.914   4.413  13.531
47614SOL    HW244676   7.833   4.362  13.413
47615SOL     OW44677   2.179   3.067   9.852
47615SOL    HW144678   2.248   3.061   9.918
47615SOL    HW244679   2.098   3.068   9.903
47616SOL     OW44680   3.634  12.800   0.347
47616SOL    HW144681   3.556  12.777   0.296
47616SOL    HW244682   3.686  12.720   0.349
47617SOL     OW44683   0.176   4.053   3.654
47617SOL    HW144684   0.153   3.963   3.678
47617SOL    HW244685   0.099   4.104   3.679
47618SOL     OW44686   3.536   3.898   1.900
47618SOL    HW144687   3.491   3.938   1.975
47618SOL    HW244688   3.532   3.804   1.917
47619SOL     OW44689   2.761   0.208   0.906
47619SOL    HW144690   2.698   0.231   0.974
47619SOL    HW244691   2.722   0.238   0.825
47620SOL     OW44692  14.322  12.372  12.656
47620SOL    HW144693  14.290  12.347  12.742
47620SOL    HW244694  14.365  12.457  12.670
47621SOL     OW44695   3.533   0.668  11.748
47621SOL    HW144696   3.504   0.587  11.707
47621SOL    HW244697   3.504   0.661  11.839
47622SOL     OW44698   7.668   3.216   0.400
47622SOL    HW144699   7.750   3.169   0.382
47622SOL    HW244700   7.688   3.307   0.378
47623SOL     OW44701  13.606  13.522  13.267
47623SOL    HW144702  13.678  13.561  13.218
47623SOL    HW244703  13.537  13.588  13.266
47624SOL     OW44704   9.113   8.416   6.453
47624SOL    HW144705   9.063   8.498   6.457
47624SOL    HW244706   9.069   8.365   6.385
47625SOL     OW44707   6.214   2.747   6.169
47625SOL    HW144708   6.274   2.821   6.181
47625SOL    HW244709   6.271   2.670   6.170
47626SOL     OW44710  13.110   1.001   7.201
47626SOL    HW144711  13.114   0.942   7.276
47626SOL    HW244712  13.028   0.979   7.157
47627SOL     OW44713   2.318   0.260   4.627
47627SOL    HW144714   2.400   0.240   4.580
47627SOL    HW244715   2.271   0.177   4.629
47628SOL     OW44716   7.503   6.782   0.553
47628SOL    HW144717   7.593   6.811   0.539
47628SOL    HW244718   7.504   6.743   0.641
47629SOL     OW44719   2.057   8.896   9.958
47629SOL    HW144720   2.114   8.888  10.034
47629SOL    HW244721   2.066   8.987   9.931
47630SOL     OW44722   6.333   7.202   0.132
47630SOL    HW144723   6.423   7.230   0.118
47630SOL    HW244724   6.314   7.143   0.059
47631SOL     OW44725  12.196  14.808  14.772
47631SOL    HW144726  12.227  14.780  14.858
47631SOL    HW244727  12.215  14.734  14.714
47632SOL     OW44728  14.147  13.654   8.619
47632SOL    HW144729  14.202  13.723   8.582
47632SOL    HW244730  14.183  13.639   8.707
47633SOL     OW44731   9.379   7.984   5.724
47633SOL    HW144732   9.453   7.979   5.663
47633SOL    HW244733   9.365   8.077   5.738
47634SOL     OW44734   5.114   6.859   3.944
47634SOL    HW144735   5.204   6.890   3.933
47634SOL    HW244736   5.101   6.797   3.873
47635SOL     OW44737   2.682  13.027   1.787
47635SOL    HW144738   2.628  13.046   1.863
47635SOL    HW244739   2.722  13.110   1.764
47636SOL     OW44740  10.594  11.334   0.491
47636SOL    HW144741  10.683  11.350   0.460
47636SOL    HW244742  10.599  11.342   0.586
47637SOL     OW44743  13.340   7.328   7.511
47637SOL    HW144744  13.376   7.299   7.428
47637SOL    HW244745  13.246   7.315   7.502
47638SOL     OW44746   2.681   0.303   8.522
47638SOL    HW144747   2.656   0.233   8.583
47638SOL    HW244748   2.725   0.368   8.577
47639SOL     OW44749   2.966   1.448  14.467
47639SOL    HW144750   3.051   1.459  14.507
47639SOL    HW244751   2.903   1.466  14.537
47640SOL     OW44752  14.130   6.653   8.949
47640SOL    HW144753  14.119   6.562   8.920
47640SOL    HW244754  14.058   6.700   8.908
47641SOL     OW44755   1.222   5.980   6.391
47641SOL    HW144756   1.165   5.933   6.452
47641SOL    HW244757   1.310   5.949   6.413
47642SOL     OW44758  10.577  10.118   3.834
47642SOL    HW144759  10.557  10.132   3.926
47642SOL    HW244760  10.624  10.035   3.832
47643SOL     OW44761   3.916   3.084   6.723
47643SOL    HW144762   3.941   3.010   6.667
47643SOL    HW244763   3.967   3.072   6.803
47644SOL     OW44764   5.954  11.138   9.334
47644SOL    HW144765   5.867  11.123   9.298
47644SOL    HW244766   5.939  11.194   9.410
47645SOL     OW44767  11.390   8.897   1.702
47645SOL    HW144768  11.459   8.907   1.768
47645SOL    HW244769  11.411   8.962   1.635
47646SOL     OW44770   9.505   1.976   5.436
47646SOL    HW144771   9.470   2.039   5.374
47646SOL    HW244772   9.461   1.894   5.415
47647SOL     OW44773  10.267  13.997   4.291
47647SOL    HW144774  10.352  14.010   4.333
47647SOL    HW244775  10.270  14.055   4.214
47648SOL     OW44776   6.323  12.418   6.307
47648SOL    HW144777   6.273  12.466   6.242
47648SOL    HW244778   6.306  12.464   6.389
47649SOL     OW44779  11.413   6.440  13.355
47649SOL    HW144780  11.445   6.423  13.443
47649SOL    HW244781  11.372   6.358  13.328
47650SOL     OW44782   4.541   9.737   1.362
47650SOL    HW144783   4.523   9.820   1.318
47650SOL    HW244784   4.467   9.681   1.339
47651SOL     OW44785   9.375   0.594  11.461
47651SOL    HW144786   9.337   0.515  11.425
47651SOL    HW244787   9.386   0.652  11.385
47652SOL     OW44788   3.377   7.002   5.180
47652SOL    HW144789   3.319   7.068   5.217
47652SOL    HW244790   3.386   7.027   5.088
47653SOL     OW44791   8.445   3.382   1.354
47653SOL    HW144792   8.360   3.369   1.396
47653SOL    HW244793   8.451   3.312   1.289
47654SOL     OW44794  10.103   8.465  13.017
47654SOL    HW144795  10.092   8.481  12.923
47654SOL    HW244796  10.196   8.477  13.033
47655SOL     OW44797   5.344   1.826   2.274
47655SOL    HW144798   5.347   1.911   2.231
47655SOL    HW244799   5.253   1.798   2.263
47656SOL     OW44800   4.024   5.478  14.873
47656SOL    HW144801   3.999   5.463   0.086
47656SOL    HW244802   4.032   5.390  14.836
47657SOL     OW44803   7.829   0.216   3.506
47657SOL    HW144804   7.767   0.144   3.493
47657SOL    HW244805   7.861   0.204   3.596
47658SOL     OW44806  13.521  10.746   4.148
47658SOL    HW144807  13.426  10.750   4.153
47658SOL    HW244808  13.539  10.669   4.095
47659SOL     OW44809   7.541   2.409  13.568
47659SOL    HW144810   7.550   2.351  13.492
47659SOL    HW244811   7.624   2.398  13.615
47660SOL     OW44812  13.709   4.754   8.756
47660SOL    HW144813  13.648   4.776   8.685
47660SOL    HW244814  13.781   4.708   8.713
47661SOL     OW44815   6.295   6.203   2.113
47661SOL    HW144816   6.370   6.160   2.154
47661SOL    HW244817   6.219   6.156   2.148
47662SOL     OW44818  10.235  11.018   4.802
47662SOL    HW144819  10.186  11.099   4.789
47662SOL    HW244820  10.190  10.954   4.747
47663SOL     OW44821   6.816  10.028   3.136
47663SOL    HW144822   6.799  10.069   3.220
47663SOL    HW244823   6.800  10.097   3.071
47664SOL     OW44824   3.851   8.883  11.316
47664SOL    HW144825   3.787   8.890  11.387
47664SOL    HW244826   3.819   8.811  11.262
47665SOL     OW44827  13.763   0.347  13.384
47665SOL    HW144828  13.752   0.286  13.310
47665SOL    HW244829  13.679   0.394  13.388
47666SOL     OW44830   0.704   7.514   9.355
47666SOL    HW144831   0.652   7.441   9.323
47666SOL    HW244832   0.795   7.482   9.354
47667SOL     OW44833  12.986   0.940   6.237
47667SOL    HW144834  13.009   0.912   6.148
47667SOL    HW244835  13.045   1.014   6.254
47668SOL     OW44836   2.655   6.705   2.567
47668SOL    HW144837   2.728   6.648   2.591
47668SOL    HW244838   2.681   6.743   2.483
47669SOL     OW44839   2.942   1.784  10.323
47669SOL    HW144840   2.951   1.859  10.265
47669SOL    HW244841   2.904   1.715  10.268
47670SOL     OW44842  10.996   9.693  14.815
47670SOL    HW144843  11.011   9.603  14.844
47670SOL    HW244844  10.928   9.686  14.748
47671SOL     OW44845   3.977   1.560   2.329
47671SOL    HW144846   3.972   1.505   2.250
47671SOL    HW244847   4.020   1.640   2.299
47672SOL     OW44848   0.600  12.486   5.355
47672SOL    HW144849   0.605  12.476   5.450
47672SOL    HW244850   0.528  12.428   5.328
47673SOL     OW44851   9.537  10.292   3.121
47673SOL    HW144852   9.497  10.216   3.079
47673SOL    HW244853   9.579  10.258   3.199
47674SOL     OW44854   4.300   6.027  12.502
47674SOL    HW144855   4.224   6.011  12.446
47674SOL    HW244856   4.314   5.944  12.547
47675SOL     OW44857  11.093   3.804  14.644
47675SOL    HW144858  10.998   3.803  14.633
47675SOL    HW244859  11.124   3.728  14.595
47676SOL     OW44860   5.248   4.203   3.749
47676SOL    HW144861   5.335   4.232   3.721
47676SOL    HW244862   5.264   4.126   3.803
47677SOL     OW44863   0.092  11.260   9.497
47677SOL    HW144864   0.056  11.319   9.563
47677SOL    HW244865   0.106  11.315   9.420
47678SOL     OW44866  13.631  13.498   3.006
47678SOL    HW144867  13.705  13.498   2.946
47678SOL    HW244868  13.562  13.544   2.960
47679SOL     OW44869  10.101   6.949  12.438
47679SOL    HW144870  10.113   6.905  12.353
47679SOL    HW244871  10.055   6.884  12.491
47680SOL     OW44872  12.576  11.000  12.393
47680SOL    HW144873  12.511  10.982  12.461
47680SOL    HW244874  12.581  11.096  12.389
47681SOL     OW44875   0.399   6.795   1.822
47681SOL    HW144876   0.493   6.779   1.826
47681SOL    HW244877   0.362   6.708   1.805
47682SOL     OW44878   1.403   7.930   3.824
47682SOL    HW144879   1.343   8.003   3.840
47682SOL    HW244880   1.458   7.926   3.903
47683SOL     OW44881   3.093   8.610   4.421
47683SOL    HW144882   3.064   8.699   4.404
47683SOL    HW244883   3.039   8.580   4.494
47684SOL     OW44884   0.815   2.358  13.015
47684SOL    HW144885   0.811   2.322  12.926
47684SOL    HW244886   0.908   2.362  13.035
47685SOL     OW44887  12.367  14.182   5.354
47685SOL    HW144888  12.359  14.179   5.259
47685SOL    HW244889  12.342  14.095   5.384
47686SOL     OW44890   4.187   1.776   6.774
47686SOL    HW144891   4.172   1.852   6.830
47686SOL    HW244892   4.193   1.812   6.686
47687SOL     OW44893  13.495   6.846  11.712
47687SOL    HW144894  13.427   6.794  11.670
47687SOL    HW244895  13.473   6.937  11.690
47688SOL     OW44896   9.706  12.695  12.610
47688SOL    HW144897   9.790  12.741  12.603
47688SOL    HW244898   9.641  12.765  12.611
47689SOL     OW44899   2.658   3.041   1.142
47689SOL    HW144900   2.634   2.968   1.199
47689SOL    HW244901   2.710   3.099   1.198
47690SOL     OW44902   0.513   7.776   5.296
47690SOL    HW144903   0.505   7.867   5.324
47690SOL    HW244904   0.467   7.726   5.364
47691SOL     OW44905   2.347   0.269   3.616
47691SOL    HW144906   2.260   0.261   3.654
47691SOL    HW244907   2.402   0.301   3.688
47692SOL     OW44908   3.182   7.925  12.741
47692SOL    HW144909   3.095   7.943  12.705
47692SOL    HW244910   3.186   7.829  12.748
47693SOL     OW44911   4.799   4.214   0.006
47693SOL    HW144912   4.845   4.279   0.059
47693SOL    HW244913   4.838   4.222  14.798
47694SOL     OW44914  10.033   8.255   9.729
47694SOL    HW144915  10.023   8.230   9.821
47694SOL    HW244916   9.956   8.218   9.685
47695SOL     OW44917   9.290   7.920   0.727
47695SOL    HW144918   9.279   7.831   0.762
47695SOL    HW244919   9.382   7.924   0.702
47696SOL     OW44920   8.995  14.331  12.946
47696SOL    HW144921   8.947  14.267  12.893
47696SOL    HW244922   9.084  14.331  12.911
47697SOL     OW44923  10.631  12.513   4.371
47697SOL    HW144924  10.594  12.521   4.283
47697SOL    HW244925  10.688  12.437   4.366
47698SOL     OW44926  13.021   3.386  12.537
47698SOL    HW144927  13.070   3.469  12.535
47698SOL    HW244928  13.016   3.364  12.630
47699SOL     OW44929   3.103   2.848   9.914
47699SOL    HW144930   3.160   2.867   9.839
47699SOL    HW244931   3.154   2.876   9.990
47700SOL     OW44932   9.763   8.211  11.633
47700SOL    HW144933   9.746   8.237  11.543
47700SOL    HW244934   9.807   8.126  11.626
47701SOL     OW44935   4.630   5.346  12.332
47701SOL    HW144936   4.609   5.326  12.240
47701SOL    HW244937   4.692   5.278  12.357
47702SOL     OW44938   2.768   2.800   3.383
47702SOL    HW144939   2.795   2.784   3.474
47702SOL    HW244940   2.729   2.888   3.386
47703SOL     OW44941  11.952  12.174  11.307
47703SOL    HW144942  11.916  12.134  11.228
47703SOL    HW244943  11.929  12.113  11.378
47704SOL     OW44944   2.912   6.946  11.450
47704SOL    HW144945   2.963   6.909  11.378
47704SOL    HW244946   2.938   6.895  11.527
47705SOL     OW44947   4.947   6.066   8.896
47705SOL    HW144948   4.982   6.155   8.893
47705SOL    HW244949   4.968   6.035   8.984
47706SOL     OW44950  10.313   6.927   8.358
47706SOL    HW144951  10.312   6.958   8.268
47706SOL    HW244952  10.385   6.975   8.399
47707SOL     OW44953   8.079   9.815  10.452
47707SOL    HW144954   8.080   9.859  10.537
47707SOL    HW244955   8.003   9.851  10.407
47708SOL     OW44956   9.045   5.574  12.794
47708SOL    HW144957   9.040   5.636  12.721
47708SOL    HW244958   9.137   5.576  12.821
47709SOL     OW44959   9.579  12.429   7.255
47709SOL    HW144960   9.497  12.472   7.234
47709SOL    HW244961   9.612  12.475   7.332
47710SOL     OW44962  12.854  14.513   6.136
47710SOL    HW144963  12.917  14.577   6.105
47710SOL    HW244964  12.853  14.523   6.231
47711SOL     OW44965   1.190  12.192   7.713
47711SOL    HW144966   1.125  12.220   7.777
47711SOL    HW244967   1.246  12.268   7.700
47712SOL     OW44968   1.286  13.472   8.085
47712SOL    HW144969   1.238  13.448   8.165
47712SOL    HW244970   1.218  13.488   8.020
47713SOL     OW44971  10.945   2.280  12.895
47713SOL    HW144972  10.943   2.273  12.800
47713SOL    HW244973  10.958   2.373  12.912
47714SOL     OW44974  12.128   8.830   5.456
47714SOL    HW144975  12.149   8.787   5.373
47714SOL    HW244976  12.173   8.915   5.451
47715SOL     OW44977   8.783  11.543  13.419
47715SOL    HW144978   8.871  11.533  13.382
47715SOL    HW244979   8.735  11.593  13.352
47716SOL     OW44980   0.422   5.510  11.693
47716SOL    HW144981   0.355   5.579  11.700
47716SOL    HW244982   0.505   5.557  11.688
47717SOL     OW44983   3.870  13.713  11.021
47717SOL    HW144984   3.780  13.722  10.988
47717SOL    HW244985   3.865  13.645  11.087
47718SOL     OW44986   3.869  11.408   9.800
47718SOL    HW144987   3.814  11.360   9.861
47718SOL    HW244988   3.945  11.351   9.786
47719SOL     OW44989   7.523   0.228   8.061
47719SOL    HW144990   7.464   0.295   8.029
47719SOL    HW244991   7.546   0.256   8.150
47720SOL     OW44992   7.278   4.583  12.578
47720SOL    HW144993   7.270   4.508  12.520
47720SOL    HW244994   7.211   4.645  12.547
47721SOL     OW44995  10.438   0.604  13.566
47721SOL    HW144996  10.466   0.536  13.628
47721SOL    HW244997  10.519   0.635  13.527
47722SOL     OW44998  14.001   6.808  12.819
47722SOL    HW144999  13.957   6.891  12.834
47722SOL    HW245000  13.932   6.750  12.787
47723SOL     OW45001   9.456   7.540  11.713
47723SOL    HW145002   9.476   7.621  11.760
47723SOL    HW245003   9.495   7.553  11.626
47724SOL     OW45004   5.614  13.778  10.455
47724SOL    HW145005   5.582  13.721  10.385
47724SOL    HW245006   5.560  13.754  10.531
47725SOL     OW45007   5.535   4.395  10.098
47725SOL    HW145008   5.479   4.470  10.076
47725SOL    HW245009   5.556   4.406  10.190
47726SOL     OW45010  10.969   5.401   1.157
47726SOL    HW145011  10.905   5.426   1.090
47726SOL    HW245012  11.037   5.353   1.108
47727SOL     OW45013   4.211   6.234  11.273
47727SOL    HW145014   4.152   6.205  11.203
47727SOL    HW245015   4.237   6.322  11.247
47728SOL     OW45016   7.190  13.042   2.241
47728SOL    HW145017   7.222  13.132   2.245
47728SOL    HW245018   7.220  13.009   2.156
47729SOL     OW45019   0.350   6.478   3.775
47729SOL    HW145020   0.262   6.449   3.749
47729SOL    HW245021   0.349   6.573   3.762
47730SOL     OW45022   6.793  13.672   9.386
47730SOL    HW145023   6.748  13.601   9.338
47730SOL    HW245024   6.741  13.684   9.465
47731SOL     OW45025   2.279   0.778   1.930
47731SOL    HW145026   2.325   0.826   1.860
47731SOL    HW245027   2.320   0.809   2.011
47732SOL     OW45028   6.739   6.946   1.196
47732SOL    HW145029   6.826   6.983   1.216
47732SOL    HW245030   6.702   7.006   1.132
47733SOL     OW45031   3.498   2.979  12.875
47733SOL    HW145032   3.440   3.046  12.912
47733SOL    HW245033   3.489   2.904  12.934
47734SOL     OW45034   4.657   4.502   7.490
47734SOL    HW145035   4.561   4.494   7.492
47734SOL    HW245036   4.680   4.537   7.575
47735SOL     OW45037  10.955   6.046  10.369
47735SOL    HW145038  11.043   6.014  10.386
47735SOL    HW245039  10.898   5.972  10.387
47736SOL     OW45040  11.993   8.398   2.380
47736SOL    HW145041  12.061   8.335   2.402
47736SOL    HW245042  12.040   8.477   2.354
47737SOL     OW45043  14.300  13.886  12.874
47737SOL    HW145044  14.296  13.948  12.800
47737SOL    HW245045  14.368  13.824  12.849
47738SOL     OW45046   5.788   1.764   3.026
47738SOL    HW145047   5.782   1.846   2.977
47738SOL    HW245048   5.788   1.791   3.118
47739SOL     OW45049  14.214  11.770   7.203
47739SOL    HW145050  14.212  11.761   7.107
47739SOL    HW245051  14.219  11.864   7.218
47740SOL     OW45052   5.125   3.291  12.470
47740SOL    HW145053   5.066   3.284  12.545
47740SOL    HW245054   5.142   3.201  12.444
47741SOL     OW45055   5.642  11.511  14.318
47741SOL    HW145056   5.696  11.463  14.381
47741SOL    HW245057   5.654  11.464  14.236
47742SOL     OW45058   5.412   3.418   1.533
47742SOL    HW145059   5.365   3.475   1.594
47742SOL    HW245060   5.344   3.385   1.474
47743SOL     OW45061  11.035   9.513   6.149
47743SOL    HW145062  11.008   9.458   6.075
47743SOL    HW245063  10.958   9.565   6.170
47744SOL     OW45064  12.723   9.820   5.827
47744SOL    HW145065  12.699   9.729   5.812
47744SOL    HW245066  12.651   9.871   5.790
47745SOL     OW45067  12.622   9.870  10.755
47745SOL    HW145068  12.653   9.960  10.751
47745SOL    HW245069  12.680   9.822  10.696
47746SOL     OW45070   3.681  14.428   1.368
47746SOL    HW145071   3.647  14.378   1.442
47746SOL    HW245072   3.776  14.428   1.381
47747SOL     OW45073  14.171   5.181   9.491
47747SOL    HW145074  14.156   5.271   9.519
47747SOL    HW245075  14.237   5.147   9.552
47748SOL     OW45076  13.539   7.789   3.831
47748SOL    HW145077  13.549   7.734   3.909
47748SOL    HW245078  13.468   7.749   3.781
47749SOL     OW45079  11.914   9.221  10.384
47749SOL    HW145080  11.968   9.285  10.431
47749SOL    HW245081  11.833   9.267  10.366
47750SOL     OW45082   6.376   3.923   2.742
47750SOL    HW145083   6.467   3.952   2.744
47750SOL    HW245084   6.381   3.828   2.734
47751SOL     OW45085   8.841  13.583   5.929
47751SOL    HW145086   8.801  13.614   6.011
47751SOL    HW245087   8.918  13.639   5.918
47752SOL     OW45088   5.530   0.585   4.665
47752SOL    HW145089   5.454   0.588   4.723
47752SOL    HW245090   5.503   0.632   4.587
47753SOL     OW45091   8.737   7.560   6.179
47753SOL    HW145092   8.673   7.558   6.108
47753SOL    HW245093   8.732   7.472   6.218
47754SOL     OW45094   4.969   4.356   3.173
47754SOL    HW145095   4.881   4.385   3.197
47754SOL    HW245096   5.017   4.437   3.153
47755SOL     OW45097  11.700   9.217   9.307
47755SOL    HW145098  11.648   9.224   9.227
47755SOL    HW245099  11.769   9.282   9.297
47756SOL     OW45100  12.288   5.077  10.482
47756SOL    HW145101  12.206   5.055  10.528
47756SOL    HW245102  12.341   5.122  10.547
47757SOL     OW45103   8.441   2.486   9.298
47757SOL    HW145104   8.365   2.531   9.261
47757SOL    HW245105   8.406   2.437   9.373
47758SOL     OW45106  11.856   9.290   8.349
47758SOL    HW145107  11.811   9.209   8.325
47758SOL    HW245108  11.896   9.320   8.267
47759SOL     OW45109   3.189   7.936  11.244
47759SOL    HW145110   3.247   7.900  11.311
47759SOL    HW245111   3.156   7.859  11.197
47760SOL     OW45112  11.561  12.617   9.543
47760SOL    HW145113  11.562  12.522   9.531
47760SOL    HW245114  11.621  12.651   9.476
47761SOL     OW45115  11.062   9.285   2.400
47761SOL    HW145116  11.025   9.366   2.365
47761SOL    HW245117  11.066   9.226   2.325
47762SOL     OW45118   3.445   2.861   8.389
47762SOL    HW145119   3.443   2.897   8.301
47762SOL    HW245120   3.509   2.790   8.385
47763SOL     OW45121   3.577   4.084  11.860
47763SOL    HW145122   3.640   4.022  11.897
47763SOL    HW245123   3.546   4.134  11.936
47764SOL     OW45124   4.279   1.032   0.366
47764SOL    HW145125   4.225   1.027   0.446
47764SOL    HW245126   4.233   1.095   0.311
47765SOL     OW45127   4.710   7.722   1.451
47765SOL    HW145128   4.767   7.796   1.434
47765SOL    HW245129   4.727   7.699   1.543
47766SOL     OW45130  11.535   3.069   1.045
47766SOL    HW145131  11.547   2.995   1.105
47766SOL    HW245132  11.440   3.080   1.039
47767SOL     OW45133   0.419   9.519   9.411
47767SOL    HW145134   0.503   9.543   9.450
47767SOL    HW245135   0.355   9.532   9.481
47768SOL     OW45136  13.737   4.403  12.814
47768SOL    HW145137  13.710   4.408  12.722
47768SOL    HW245138  13.663   4.362  12.859
47769SOL     OW45139  11.028   3.522   0.377
47769SOL    HW145140  10.977   3.555   0.303
47769SOL    HW245141  11.051   3.601   0.427
47770SOL     OW45142  11.774   7.829   3.967
47770SOL    HW145143  11.755   7.787   4.051
47770SOL    HW245144  11.856   7.789   3.939
47771SOL     OW45145   5.024   8.904   6.764
47771SOL    HW145146   5.070   8.823   6.784
47771SOL    HW245147   4.934   8.887   6.792
47772SOL     OW45148  13.361   3.770   9.041
47772SOL    HW145149  13.349   3.740   8.951
47772SOL    HW245150  13.280   3.817   9.061
47773SOL     OW45151   2.502  12.095  14.357
47773SOL    HW145152   2.490  12.028  14.424
47773SOL    HW245153   2.561  12.159  14.398
47774SOL     OW45154   5.470  10.048   2.267
47774SOL    HW145155   5.526  10.114   2.307
47774SOL    HW245156   5.440   9.993   2.340
47775SOL     OW45157  12.142   8.207  11.784
47775SOL    HW145158  12.155   8.134  11.723
47775SOL    HW245159  12.207   8.272  11.757
47776SOL     OW45160  10.522   2.786   9.324
47776SOL    HW145161  10.461   2.727   9.280
47776SOL    HW245162  10.607   2.767   9.283
47777SOL     OW45163  13.268  13.862  13.669
47777SOL    HW145164  13.224  13.782  13.642
47777SOL    HW245165  13.360  13.838  13.675
47778SOL     OW45166   3.107   5.983   7.645
47778SOL    HW145167   3.194   6.018   7.629
47778SOL    HW245168   3.122   5.891   7.668
47779SOL     OW45169  10.885   9.682   5.702
47779SOL    HW145170  10.802   9.660   5.744
47779SOL    HW245171  10.926   9.745   5.762
47780SOL     OW45172  13.618  10.450   8.539
47780SOL    HW145173  13.557  10.437   8.467
47780SOL    HW245174  13.677  10.375   8.534
47781SOL     OW45175  13.240  14.556  12.142
47781SOL    HW145176  13.234  14.635  12.088
47781SOL    HW245177  13.277  14.586  12.225
47782SOL     OW45178   5.260   4.917   8.186
47782SOL    HW145179   5.181   4.958   8.221
47782SOL    HW245180   5.303   4.878   8.262
47783SOL     OW45181   3.576   7.394   0.333
47783SOL    HW145182   3.568   7.377   0.427
47783SOL    HW245183   3.600   7.310   0.295
47784SOL     OW45184   9.737   4.906   1.689
47784SOL    HW145185   9.832   4.896   1.688
47784SOL    HW245186   9.719   4.960   1.766
47785SOL     OW45187  13.582   3.175   7.071
47785SOL    HW145188  13.574   3.088   7.032
47785SOL    HW245189  13.499   3.218   7.050
47786SOL     OW45190   6.859   3.381   0.464
47786SOL    HW145191   6.891   3.353   0.549
47786SOL    HW245192   6.807   3.460   0.483
47787SOL     OW45193  13.256  11.702  13.940
47787SOL    HW145194  13.299  11.707  13.854
47787SOL    HW245195  13.163  11.690  13.918
47788SOL     OW45196  11.369  14.064   3.024
47788SOL    HW145197  11.451  14.109   3.045
47788SOL    HW245198  11.325  14.122   2.962
47789SOL     OW45199  13.547  11.478   8.368
47789SOL    HW145200  13.618  11.511   8.423
47789SOL    HW245201  13.497  11.420   8.426
47790SOL     OW45202  10.985   5.443  12.165
47790SOL    HW145203  10.987   5.539  12.163
47790SOL    HW245204  11.062   5.419  12.217
47791SOL     OW45205   0.273   3.816  11.507
47791SOL    HW145206   0.202   3.795  11.568
47791SOL    HW245207   0.306   3.732  11.477
47792SOL     OW45208   6.468  10.367  12.854
47792SOL    HW145209   6.390  10.397  12.899
47792SOL    HW245210   6.463  10.271  12.859
47793SOL     OW45211   8.954  14.171   2.894
47793SOL    HW145212   8.919  14.110   2.829
47793SOL    HW245213   9.013  14.228   2.844
47794SOL     OW45214   6.889  14.018   8.988
47794SOL    HW145215   6.928  13.931   9.000
47794SOL    HW245216   6.896  14.059   9.074
47795SOL     OW45217   0.230  11.182   2.156
47795SOL    HW145218   0.150  11.175   2.103
47795SOL    HW245219   0.297  11.209   2.094
47796SOL     OW45220  12.672   4.011   5.238
47796SOL    HW145221  12.621   3.946   5.288
47796SOL    HW245222  12.720   4.060   5.305
47797SOL     OW45223   3.124   7.607   8.677
47797SOL    HW145224   3.162   7.571   8.597
47797SOL    HW245225   3.035   7.632   8.652
47798SOL     OW45226   9.136  10.306  14.589
47798SOL    HW145227   9.148  10.383  14.645
47798SOL    HW245228   9.214  10.253  14.605
47799SOL     OW45229   6.519   5.669   5.214
47799SOL    HW145230   6.481   5.698   5.131
47799SOL    HW245231   6.444   5.633   5.263
47800SOL     OW45232   8.275   6.667   2.027
47800SOL    HW145233   8.221   6.660   2.105
47800SOL    HW245234   8.338   6.736   2.047
47801SOL     OW45235   7.949  10.773   3.974
47801SOL    HW145236   7.935  10.850   3.918
47801SOL    HW245237   7.916  10.800   4.060
47802SOL     OW45238   6.603   0.954   1.745
47802SOL    HW145239   6.512   0.957   1.716
47802SOL    HW245240   6.636   1.043   1.729
47803SOL     OW45241  10.556  13.808   0.214
47803SOL    HW145242  10.519  13.726   0.180
47803SOL    HW245243  10.503  13.877   0.173
47804SOL     OW45244  11.861   0.176   7.822
47804SOL    HW145245  11.824   0.205   7.739
47804SOL    HW245246  11.857   0.253   7.879
47805SOL     OW45247   5.944  10.805   1.837
47805SOL    HW145248   5.848  10.808   1.841
47805SOL    HW245249   5.972  10.854   1.914
47806SOL     OW45250   5.763   0.236   2.591
47806SOL    HW145251   5.710   0.312   2.617
47806SOL    HW245252   5.805   0.263   2.509
47807SOL     OW45253   5.791   2.564  11.615
47807SOL    HW145254   5.845   2.566  11.536
47807SOL    HW245255   5.738   2.644  11.610
47808SOL     OW45256   3.538  14.284  14.248
47808SOL    HW145257   3.544  14.378  14.261
47808SOL    HW245258   3.444  14.266  14.241
47809SOL     OW45259   9.697  12.833   8.723
47809SOL    HW145260   9.606  12.804   8.718
47809SOL    HW245261   9.743  12.780   8.658
47810SOL     OW45262  14.727  11.698   0.799
47810SOL    HW145263  14.702  11.607   0.810
47810SOL    HW245264  14.821  11.700   0.818
47811SOL     OW45265   0.550   7.779   7.795
47811SOL    HW145266   0.526   7.688   7.775
47811SOL    HW245267   0.577   7.777   7.887
47812SOL     OW45268   9.683  10.945  11.413
47812SOL    HW145269   9.610  10.933  11.352
47812SOL    HW245270   9.759  10.959  11.357
47813SOL     OW45271  11.258   0.411   0.942
47813SOL    HW145272  11.238   0.374   0.856
47813SOL    HW245273  11.212   0.355   1.004
47814SOL     OW45274   5.441   3.355  12.589
47814SOL    HW145275   5.531   3.382  12.569
47814SOL    HW245276   5.413   3.308  12.511
47815SOL     OW45277  11.093   1.894  13.924
47815SOL    HW145278  11.020   1.866  13.979
47815SOL    HW245279  11.060   1.969  13.875
47816SOL     OW45280  10.449   4.115   7.559
47816SOL    HW145281  10.397   4.161   7.494
47816SOL    HW245282  10.536   4.155   7.554
47817SOL     OW45283   2.435   4.890  14.009
47817SOL    HW145284   2.514   4.940  14.030
47817SOL    HW245285   2.404   4.927  13.926
47818SOL     OW45286   5.779  11.353  10.859
47818SOL    HW145287   5.793  11.303  10.779
47818SOL    HW245288   5.727  11.429  10.832
47819SOL     OW45289  12.608  12.411  13.712
47819SOL    HW145290  12.619  12.452  13.626
47819SOL    HW245291  12.567  12.479  13.765
47820SOL     OW45292   6.777   2.704   8.282
47820SOL    HW145293   6.858   2.750   8.262
47820SOL    HW245294   6.711   2.745   8.226
47821SOL     OW45295  13.084  10.542   6.262
47821SOL    HW145296  13.018  10.509   6.323
47821SOL    HW245297  13.124  10.463   6.225
47822SOL     OW45298   3.667   0.375   9.824
47822SOL    HW145299   3.722   0.373   9.903
47822SOL    HW245300   3.578   0.383   9.858
47823SOL     OW45301   3.295  14.135   3.457
47823SOL    HW145302   3.384  14.159   3.482
47823SOL    HW245303   3.305  14.052   3.410
47824SOL     OW45304   1.618  14.223   8.731
47824SOL    HW145305   1.582  14.312   8.742
47824SOL    HW245306   1.648  14.199   8.819
47825SOL     OW45307   9.066   0.911   0.826
47825SOL    HW145308   9.137   0.970   0.802
47825SOL    HW245309   9.048   0.930   0.918
47826SOL     OW45310  13.847  13.191   3.037
47826SOL    HW145311  13.923  13.176   3.094
47826SOL    HW245312  13.885  13.206   2.950
47827SOL     OW45313   4.543   5.851   5.860
47827SOL    HW145314   4.597   5.913   5.908
47827SOL    HW245315   4.604   5.785   5.828
47828SOL     OW45316  12.553   2.026   8.986
47828SOL    HW145317  12.516   1.983   8.908
47828SOL    HW245318  12.479   2.071   9.026
47829SOL     OW45319   3.962   1.724   8.906
47829SOL    HW145320   4.044   1.772   8.909
47829SOL    HW245321   3.958   1.678   8.990
47830SOL     OW45322   2.373  11.911   5.635
47830SOL    HW145323   2.296  11.858   5.654
47830SOL    HW245324   2.365  11.933   5.543
47831SOL     OW45325  14.657   8.186   8.365
47831SOL    HW145326  14.730   8.243   8.388
47831SOL    HW245327  14.673   8.162   8.273
47832SOL     OW45328  12.371   3.451   8.904
47832SOL    HW145329  12.362   3.356   8.897
47832SOL    HW245330  12.317   3.485   8.833
47833SOL     OW45331   8.211   1.616  12.467
47833SOL    HW145332   8.147   1.683  12.445
47833SOL    HW245333   8.160   1.546  12.506
47834SOL     OW45334   5.439   5.962  10.037
47834SOL    HW145335   5.457   5.973  10.131
47834SOL    HW245336   5.525   5.947   9.998
47835SOL     OW45337   2.736   3.379  12.609
47835SOL    HW145338   2.730   3.462  12.657
47835SOL    HW245339   2.645   3.353  12.594
47836SOL     OW45340  13.742   4.675   9.704
47836SOL    HW145341  13.666   4.630   9.740
47836SOL    HW245342  13.714   4.766   9.693
47837SOL     OW45343   8.228  12.938   5.021
47837SOL    HW145344   8.228  12.852   5.064
47837SOL    HW245345   8.249  13.000   5.091
47838SOL     OW45346  11.138   5.138   5.154
47838SOL    HW145347  11.052   5.169   5.124
47838SOL    HW245348  11.195   5.214   5.144
47839SOL     OW45349  13.335  12.030   9.983
47839SOL    HW145350  13.291  11.950   9.953
47839SOL    HW245351  13.263  12.086  10.012
47840SOL     OW45352   7.839   5.515   7.666
47840SOL    HW145353   7.794   5.597   7.646
47840SOL    HW245354   7.903   5.504   7.595
47841SOL     OW45355  13.771   7.358   9.093
47841SOL    HW145356  13.691   7.305   9.097
47841SOL    HW245357  13.749   7.438   9.140
47842SOL     OW45358   9.413  12.779  14.345
47842SOL    HW145359   9.330  12.814  14.314
47842SOL    HW245360   9.478  12.843  14.317
47843SOL     OW45361   0.347  11.320   6.739
47843SOL    HW145362   0.256  11.290   6.739
47843SOL    HW245363   0.352  11.380   6.813
47844SOL     OW45364   6.436   8.455   1.913
47844SOL    HW145365   6.459   8.482   1.824
47844SOL    HW245366   6.379   8.379   1.900
47845SOL     OW45367  14.319   1.696   1.341
47845SOL    HW145368  14.311   1.787   1.315
47845SOL    HW245369  14.319   1.647   1.258
47846SOL     OW45370   2.411   0.200   2.165
47846SOL    HW145371   2.454   0.197   2.079
47846SOL    HW245372   2.455   0.271   2.211
47847SOL     OW45373   6.567   4.205   9.341
47847SOL    HW145374   6.502   4.230   9.276
47847SOL    HW245375   6.527   4.132   9.388
47848SOL     OW45376   2.628   2.885   0.899
47848SOL    HW145377   2.581   2.965   0.875
47848SOL    HW245378   2.689   2.912   0.967
47849SOL     OW45379   3.471   2.268  14.637
47849SOL    HW145380   3.555   2.235  14.668
47849SOL    HW245381   3.466   2.358  14.670
47850SOL     OW45382  10.812   2.735  12.234
47850SOL    HW145383  10.865   2.792  12.179
47850SOL    HW245384  10.868   2.715  12.309
47851SOL     OW45385  11.175  12.396  13.787
47851SOL    HW145386  11.227  12.378  13.709
47851SOL    HW245387  11.209  12.480  13.819
47852SOL     OW45388  14.773   6.915  12.877
47852SOL    HW145389  14.767   6.958  12.792
47852SOL    HW245390  14.731   6.831  12.864
47853SOL     OW45391  12.843   5.327  10.770
47853SOL    HW145392  12.786   5.256  10.740
47853SOL    HW245393  12.783   5.399  10.788
47854SOL     OW45394   2.679  11.355  10.771
47854SOL    HW145395   2.643  11.406  10.699
47854SOL    HW245396   2.756  11.404  10.799
47855SOL     OW45397   4.232   5.637   9.728
47855SOL    HW145398   4.226   5.727   9.760
47855SOL    HW245399   4.179   5.586   9.789
47856SOL     OW45400   5.375   6.448  14.714
47856SOL    HW145401   5.356   6.447  14.620
47856SOL    HW245402   5.344   6.364  14.746
47857SOL     OW45403   3.843   8.838   3.332
47857SOL    HW145404   3.794   8.770   3.285
47857SOL    HW245405   3.904   8.789   3.387
47858SOL     OW45406   7.520  14.373   5.467
47858SOL    HW145407   7.583  14.435   5.431
47858SOL    HW245408   7.438  14.393   5.423
47859SOL     OW45409  12.684  12.196   3.640
47859SOL    HW145410  12.700  12.242   3.722
47859SOL    HW245411  12.604  12.236   3.606
47860SOL     OW45412   9.576   2.550   9.646
47860SOL    HW145413   9.573   2.616   9.715
47860SOL    HW245414   9.641   2.584   9.584
47861SOL     OW45415  10.787  12.975  11.096
47861SOL    HW145416  10.808  12.913  11.026
47861SOL    HW245417  10.860  12.967  11.157
47862SOL     OW45418   4.088   8.306  14.875
47862SOL    HW145419   4.002   8.344  14.857
47862SOL    HW245420   4.129   8.298  14.789
47863SOL     OW45421   1.367  10.465   2.498
47863SOL    HW145422   1.303  10.398   2.522
47863SOL    HW245423   1.385  10.449   2.405
47864SOL     OW45424  13.036   8.543   4.220
47864SOL    HW145425  13.093   8.478   4.260
47864SOL    HW245426  13.094   8.596   4.165
47865SOL     OW45427   6.996   8.964   4.969
47865SOL    HW145428   6.925   8.995   5.025
47865SOL    HW245429   6.966   8.982   4.880
47866SOL     OW45430   3.913  11.857  10.405
47866SOL    HW145431   3.948  11.769  10.394
47866SOL    HW245432   3.990  11.913  10.413
47867SOL     OW45433  11.187   4.392   2.673
47867SOL    HW145434  11.152   4.371   2.587
47867SOL    HW245435  11.200   4.307   2.715
47868SOL     OW45436  13.237  11.482   2.725
47868SOL    HW145437  13.221  11.491   2.631
47868SOL    HW245438  13.332  11.492   2.735
47869SOL     OW45439  12.888   5.061   2.764
47869SOL    HW145440  12.947   5.136   2.765
47869SOL    HW245441  12.800   5.099   2.766
47870SOL     OW45442   1.173  14.700   2.972
47870SOL    HW145443   1.141  14.700   2.882
47870SOL    HW245444   1.094  14.701   3.026
47871SOL     OW45445  13.374   6.617  13.687
47871SOL    HW145446  13.357   6.568  13.768
47871SOL    HW245447  13.399   6.705  13.717
47872SOL     OW45448   6.511   5.616  12.042
47872SOL    HW145449   6.580   5.642  11.981
47872SOL    HW245450   6.511   5.685  12.109
47873SOL     OW45451  13.707   1.913   0.325
47873SOL    HW145452  13.670   1.872   0.246
47873SOL    HW245453  13.647   1.888   0.395
47874SOL     OW45454   0.910   2.742   4.928
47874SOL    HW145455   0.945   2.655   4.948
47874SOL    HW245456   0.815   2.730   4.932
47875SOL     OW45457   5.929   5.745   7.773
47875SOL    HW145458   5.924   5.700   7.857
47875SOL    HW245459   5.838   5.752   7.744
47876SOL     OW45460   4.216  11.246   1.183
47876SOL    HW145461   4.179  11.259   1.095
47876SOL    HW245462   4.306  11.220   1.167
47877SOL     OW45463   3.673  13.283   5.766
47877SOL    HW145464   3.643  13.336   5.840
47877SOL    HW245465   3.650  13.194   5.790
47878SOL     OW45466   6.021   6.399  14.625
47878SOL    HW145467   6.105   6.407  14.670
47878SOL    HW245468   5.976   6.482  14.644
47879SOL     OW45469   0.247  12.143   6.932
47879SOL    HW145470   0.194  12.142   6.853
47879SOL    HW245471   0.268  12.235   6.946
47880SOL     OW45472  13.186  14.722   9.127
47880SOL    HW145473  13.127  14.795   9.107
47880SOL    HW245474  13.131  14.659   9.174
47881SOL     OW45475   1.107  12.361   2.326
47881SOL    HW145476   1.193  12.369   2.284
47881SOL    HW245477   1.123  12.386   2.417
47882SOL     OW45478   4.540   8.275   5.010
47882SOL    HW145479   4.606   8.331   4.969
47882SOL    HW245480   4.491   8.334   5.067
47883SOL     OW45481   9.820   3.704   2.684
47883SOL    HW145482   9.781   3.654   2.612
47883SOL    HW245483   9.913   3.685   2.679
47884SOL     OW45484   7.838   2.503   4.646
47884SOL    HW145485   7.766   2.486   4.707
47884SOL    HW245486   7.808   2.465   4.563
47885SOL     OW45487  13.909  13.105   7.371
47885SOL    HW145488  13.826  13.079   7.332
47885SOL    HW245489  13.925  13.193   7.338
47886SOL     OW45490   6.570   5.159   8.365
47886SOL    HW145491   6.502   5.221   8.390
47886SOL    HW245492   6.526   5.095   8.309
47887SOL     OW45493  12.095  12.577   2.853
47887SOL    HW145494  12.077  12.669   2.871
47887SOL    HW245495  12.139  12.576   2.768
47888SOL     OW45496  13.553  11.665  13.528
47888SOL    HW145497  13.620  11.733  13.534
47888SOL    HW245498  13.527  11.664  13.436
47889SOL     OW45499   6.823  13.968   0.106
47889SOL    HW145500   6.893  13.914   0.069
47889SOL    HW245501   6.839  13.965   0.201
47890SOL     OW45502   7.191   8.628  10.404
47890SOL    HW145503   7.186   8.639  10.499
47890SOL    HW245504   7.280   8.656  10.381
47891SOL     OW45505   6.655   0.554   3.029
47891SOL    HW145506   6.606   0.609   3.090
47891SOL    HW245507   6.745   0.558   3.060
47892SOL     OW45508   5.743   6.463  13.283
47892SOL    HW145509   5.792   6.449  13.201
47892SOL    HW245510   5.663   6.507  13.255
47893SOL     OW45511   3.237   5.709   3.291
47893SOL    HW145512   3.321   5.707   3.336
47893SOL    HW245513   3.259   5.724   3.199
47894SOL     OW45514  13.082  13.313   3.657
47894SOL    HW145515  13.041  13.390   3.698
47894SOL    HW245516  13.119  13.346   3.576
47895SOL     OW45517  14.818   1.638   5.317
47895SOL    HW145518  14.860   1.712   5.273
47895SOL    HW245519   0.011   1.592   5.360
47896SOL     OW45520  10.458   9.468   2.681
47896SOL    HW145521  10.446   9.377   2.657
47896SOL    HW245522  10.526   9.500   2.622
47897SOL     OW45523   2.019  12.779   4.175
47897SOL    HW145524   2.100  12.830   4.169
47897SOL    HW245525   2.008  12.763   4.269
47898SOL     OW45526  13.206   1.657   3.284
47898SOL    HW145527  13.211   1.667   3.379
47898SOL    HW245528  13.162   1.736   3.254
47899SOL     OW45529   1.089   9.219  10.764
47899SOL    HW145530   1.058   9.228  10.674
47899SOL    HW245531   1.101   9.125  10.775
47900SOL     OW45532  12.206   3.050   5.540
47900SOL    HW145533  12.144   3.113   5.575
47900SOL    HW245534  12.224   3.080   5.451
47901SOL     OW45535   0.844   1.705  11.737
47901SOL    HW145536   0.844   1.801  11.735
47901SOL    HW245537   0.928   1.681  11.699
47902SOL     OW45538   8.153   0.750   5.984
47902SOL    HW145539   8.195   0.689   6.046
47902SOL    HW245540   8.160   0.835   6.026
47903SOL     OW45541  10.540   0.086  13.832
47903SOL    HW145542  10.621   0.127  13.801
47903SOL    HW245543  10.555   0.070  13.925
47904SOL     OW45544  13.520  11.060  10.404
47904SOL    HW145545  13.566  11.061  10.320
47904SOL    HW245546  13.476  10.975  10.407
47905SOL     OW45547   6.173   8.056   0.878
47905SOL    HW145548   6.252   8.023   0.836
47905SOL    HW245549   6.148   7.987   0.940
47906SOL     OW45550  10.646  10.269   9.598
47906SOL    HW145551  10.579  10.236   9.538
47906SOL    HW245552  10.645  10.208   9.672
47907SOL     OW45553  10.266   8.116   3.006
47907SOL    HW145554  10.263   8.054   3.079
47907SOL    HW245555  10.359   8.124   2.985
47908SOL     OW45556   2.849   4.434   7.178
47908SOL    HW145557   2.901   4.355   7.159
47908SOL    HW245558   2.846   4.438   7.274
47909SOL     OW45559  10.083   0.046  11.517
47909SOL    HW145560  10.152   0.112  11.511
47909SOL    HW245561  10.028   0.076  11.590
47910SOL     OW45562   4.143  12.752  10.398
47910SOL    HW145563   4.104  12.731  10.483
47910SOL    HW245564   4.084  12.712  10.334
47911SOL     OW45565  12.498   1.730   0.969
47911SOL    HW145566  12.524   1.677   0.894
47911SOL    HW245567  12.490   1.819   0.935
47912SOL     OW45568   6.631   7.623   5.984
47912SOL    HW145569   6.638   7.718   5.975
47912SOL    HW245570   6.669   7.588   5.903
47913SOL     OW45571   6.169  14.546   9.643
47913SOL    HW145572   6.219  14.486   9.588
47913SOL    HW245573   6.191  14.521   9.733
47914SOL     OW45574  12.014   2.329  10.442
47914SOL    HW145575  11.926   2.347  10.473
47914SOL    HW245576  12.004   2.313  10.348
47915SOL     OW45577   1.942   2.701   3.974
47915SOL    HW145578   1.904   2.753   4.045
47915SOL    HW245579   1.905   2.737   3.894
47916SOL     OW45580  11.544  11.246   2.780
47916SOL    HW145581  11.576  11.325   2.823
47916SOL    HW245582  11.474  11.275   2.722
47917SOL     OW45583  11.336  14.014   3.705
47917SOL    HW145584  11.359  14.075   3.635
47917SOL    HW245585  11.337  13.928   3.664
47918SOL     OW45586   6.519   2.929  12.677
47918SOL    HW145587   6.569   2.967  12.604
47918SOL    HW245588   6.432   2.915  12.642
47919SOL     OW45589  12.446   9.986   7.168
47919SOL    HW145590  12.422   9.922   7.102
47919SOL    HW245591  12.534  10.015   7.143
47920SOL     OW45592   4.408  11.358   3.724
47920SOL    HW145593   4.501  11.365   3.703
47920SOL    HW245594   4.389  11.265   3.721
47921SOL     OW45595   9.006   9.327  13.487
47921SOL    HW145596   8.973   9.249  13.442
47921SOL    HW245597   8.971   9.319  13.576
47922SOL     OW45598  12.225   1.806  10.838
47922SOL    HW145599  12.195   1.847  10.757
47922SOL    HW245600  12.240   1.879  10.898
47923SOL     OW45601   2.410   2.742  14.406
47923SOL    HW145602   2.437   2.753  14.497
47923SOL    HW245603   2.334   2.799  14.396
47924SOL     OW45604   4.524  12.347  12.182
47924SOL    HW145605   4.615  12.371  12.200
47924SOL    HW245606   4.526  12.252  12.168
47925SOL     OW45607   4.499   5.656   9.621
47925SOL    HW145608   4.441   5.611   9.683
47925SOL    HW245609   4.527   5.735   9.667
47926SOL     OW45610   1.896  14.742   3.941
47926SOL    HW145611   1.960  14.673   3.924
47926SOL    HW245612   1.861  14.764   3.855
47927SOL     OW45613   5.928   0.432   3.744
47927SOL    HW145614   5.894   0.483   3.817
47927SOL    HW245615   5.851   0.405   3.695
47928SOL     OW45616  11.316  10.180   1.958
47928SOL    HW145617  11.274  10.094   1.948
47928SOL    HW245618  11.324  10.213   1.868
47929SOL     OW45619   9.944   8.420  12.606
47929SOL    HW145620   9.934   8.422  12.511
47929SOL    HW245621   9.857   8.442  12.640
47930SOL     OW45622   3.540   0.113   0.462
47930SOL    HW145623   3.530   0.035   0.517
47930SOL    HW245624   3.543   0.079   0.372
47931SOL     OW45625  11.311   8.372   6.935
47931SOL    HW145626  11.361   8.312   6.990
47931SOL    HW245627  11.268   8.315   6.871
47932SOL     OW45628   4.721  14.217   9.683
47932SOL    HW145629   4.800  14.264   9.710
47932SOL    HW245630   4.658  14.236   9.752
47933SOL     OW45631   4.717  14.580   0.586
47933SOL    HW145632   4.717  14.559   0.492
47933SOL    HW245633   4.635  14.628   0.599
47934SOL     OW45634  11.565   8.746   5.658
47934SOL    HW145635  11.576   8.651   5.661
47934SOL    HW245636  11.570   8.769   5.566
47935SOL     OW45637   7.331   0.594  14.478
47935SOL    HW145638   7.332   0.642  14.396
47935SOL    HW245639   7.363   0.656  14.543
47936SOL     OW45640   6.607  14.861  10.848
47936SOL    HW145641   6.536  14.870  10.911
47936SOL    HW245642   6.604  14.769  10.822
47937SOL     OW45643  12.644  10.468  12.077
47937SOL    HW145644  12.594  10.511  12.008
47937SOL    HW245645  12.694  10.538  12.119
47938SOL     OW45646  14.807  12.999   8.417
47938SOL    HW145647  14.821  13.028   8.327
47938SOL    HW245648  14.783  12.907   8.409
47939SOL     OW45649   3.821  11.863  14.000
47939SOL    HW145650   3.912  11.878  13.976
47939SOL    HW245651   3.813  11.767  14.007
47940SOL     OW45652   7.267  11.787   0.442
47940SOL    HW145653   7.355  11.751   0.452
47940SOL    HW245654   7.217  11.717   0.401
47941SOL     OW45655  13.737   1.670   7.436
47941SOL    HW145656  13.702   1.592   7.478
47941SOL    HW245657  13.738   1.648   7.343
47942SOL     OW45658   1.831   1.223   6.645
47942SOL    HW145659   1.804   1.135   6.617
47942SOL    HW245660   1.823   1.221   6.741
47943SOL     OW45661  11.448  12.084   3.742
47943SOL    HW145662  11.476  12.053   3.655
47943SOL    HW245663  11.528  12.082   3.795
47944SOL     OW45664  11.577   6.911   1.552
47944SOL    HW145665  11.548   6.820   1.546
47944SOL    HW245666  11.503   6.961   1.518
47945SOL     OW45667   7.900  12.917  14.637
47945SOL    HW145668   7.977  12.882  14.681
47945SOL    HW245669   7.842  12.946  14.708
47946SOL     OW45670   4.063  14.262   9.730
47946SOL    HW145671   4.028  14.330   9.674
47946SOL    HW245672   4.021  14.277   9.815
47947SOL     OW45673   2.400   0.056  13.727
47947SOL    HW145674   2.434  14.870  13.665
47947SOL    HW245675   2.380   0.133  13.674
47948SOL     OW45676   0.608   7.489   1.007
47948SOL    HW145677   0.518   7.493   0.977
47948SOL    HW245678   0.640   7.403   0.978
47949SOL     OW45679  11.857   6.867   8.486
47949SOL    HW145680  11.928   6.915   8.443
47949SOL    HW245681  11.885   6.861   8.578
47950SOL     OW45682   1.376  12.785   7.298
47950SOL    HW145683   1.340  12.784   7.386
47950SOL    HW245684   1.348  12.702   7.260
47951SOL     OW45685  10.900  11.798   3.215
47951SOL    HW145686  10.981  11.840   3.246
47951SOL    HW245687  10.870  11.746   3.289
47952SOL     OW45688   8.517  12.297   5.645
47952SOL    HW145689   8.544  12.359   5.577
47952SOL    HW245690   8.458  12.236   5.600
47953SOL     OW45691   9.180   9.692  10.847
47953SOL    HW145692   9.253   9.676  10.907
47953SOL    HW245693   9.109   9.638  10.881
47954SOL     OW45694  11.698   3.438   6.105
47954SOL    HW145695  11.790   3.439   6.078
47954SOL    HW245696  11.656   3.504   6.051
47955SOL     OW45697  11.898  11.762   8.434
47955SOL    HW145698  11.838  11.708   8.484
47955SOL    HW245699  11.842  11.820   8.382
47956SOL     OW45700  12.448  12.480   0.460
47956SOL    HW145701  12.505  12.415   0.419
47956SOL    HW245702  12.360  12.444   0.449
47957SOL     OW45703  11.089   3.800   0.066
47957SOL    HW145704  11.137   3.779  14.864
47957SOL    HW245705  11.017   3.857   0.037
47958SOL     OW45706  11.948   9.015   7.746
47958SOL    HW145707  12.014   8.999   7.678
47958SOL    HW245708  11.997   9.010   7.828
47959SOL     OW45709   2.038  11.043   2.681
47959SOL    HW145710   1.983  11.116   2.652
47959SOL    HW245711   1.979  10.988   2.732
47960SOL     OW45712  13.215  13.454  12.174
47960SOL    HW145713  13.204  13.425  12.083
47960SOL    HW245714  13.296  13.412  12.202
47961SOL     OW45715   9.661   8.354   6.932
47961SOL    HW145716   9.707   8.304   7.000
47961SOL    HW245717   9.581   8.303   6.915
47962SOL     OW45718   8.172   7.968   1.604
47962SOL    HW145719   8.195   7.992   1.514
47962SOL    HW245720   8.256   7.945   1.645
47963SOL     OW45721  13.025   8.086   8.265
47963SOL    HW145722  13.033   8.095   8.360
47963SOL    HW245723  13.112   8.107   8.231
47964SOL     OW45724   1.490   5.106   7.783
47964SOL    HW145725   1.433   5.182   7.773
47964SOL    HW245726   1.540   5.102   7.701
47965SOL     OW45727   3.767   6.853  11.621
47965SOL    HW145728   3.815   6.904  11.556
47965SOL    HW245729   3.708   6.798  11.570
47966SOL     OW45730   1.382   7.022  13.084
47966SOL    HW145731   1.333   7.052  13.161
47966SOL    HW245732   1.318   6.973  13.032
47967SOL     OW45733   8.229   7.656   1.755
47967SOL    HW145734   8.153   7.602   1.777
47967SOL    HW245735   8.246   7.637   1.662
47968SOL     OW45736  10.865   9.496   8.478
47968SOL    HW145737  10.856   9.509   8.573
47968SOL    HW245738  10.893   9.405   8.469
47969SOL     OW45739  14.758   9.498   9.715
47969SOL    HW145740  14.757   9.501   9.810
47969SOL    HW245741  14.665   9.508   9.690
47970SOL     OW45742  12.229   7.670  14.178
47970SOL    HW145743  12.263   7.749  14.221
47970SOL    HW245744  12.148   7.650  14.224
47971SOL     OW45745  12.031   4.762  14.655
47971SOL    HW145746  12.056   4.703  14.585
47971SOL    HW245747  12.070   4.724  14.734
47972SOL     OW45748   7.591   1.049   8.960
47972SOL    HW145749   7.637   1.010   8.886
47972SOL    HW245750   7.505   1.072   8.925
47973SOL     OW45751   4.903   2.443  10.788
47973SOL    HW145752   4.841   2.417  10.856
47973SOL    HW245753   4.968   2.374  10.788
47974SOL     OW45754   2.241  11.087   7.530
47974SOL    HW145755   2.285  11.154   7.582
47974SOL    HW245756   2.309  11.055   7.470
47975SOL     OW45757  13.028   7.963  13.804
47975SOL    HW145758  13.087   8.031  13.772
47975SOL    HW245759  13.054   7.884  13.755
47976SOL     OW45760   0.568   0.009  13.866
47976SOL    HW145761   0.604  14.871  13.778
47976SOL    HW245762   0.477   0.035  13.850
47977SOL     OW45763  14.311   9.919  11.134
47977SOL    HW145764  14.320   9.826  11.153
47977SOL    HW245765  14.401   9.950  11.124
47978SOL     OW45766   7.790   7.659   4.280
47978SOL    HW145767   7.791   7.585   4.220
47978SOL    HW245768   7.826   7.624   4.362
47979SOL     OW45769   5.368   8.648   2.439
47979SOL    HW145770   5.359   8.567   2.490
47979SOL    HW245771   5.462   8.666   2.438
47980SOL     OW45772   6.809   4.648   7.418
47980SOL    HW145773   6.834   4.732   7.457
47980SOL    HW245774   6.751   4.608   7.482
47981SOL     OW45775  11.230   6.230  11.499
47981SOL    HW145776  11.155   6.255  11.445
47981SOL    HW245777  11.192   6.201  11.581
47982SOL     OW45778   8.542   3.342   4.265
47982SOL    HW145779   8.487   3.271   4.297
47982SOL    HW245780   8.629   3.303   4.256
47983SOL     OW45781   4.285   8.840  13.449
47983SOL    HW145782   4.245   8.829  13.536
47983SOL    HW245783   4.211   8.854  13.390
47984SOL     OW45784   9.785  11.756   1.236
47984SOL    HW145785   9.704  11.748   1.186
47984SOL    HW245786   9.817  11.666   1.246
47985SOL     OW45787   7.573   1.623  14.081
47985SOL    HW145788   7.667   1.612  14.068
47985SOL    HW245789   7.566   1.674  14.161
47986SOL     OW45790  10.811  13.276   8.461
47986SOL    HW145791  10.859  13.206   8.504
47986SOL    HW245792  10.832  13.266   8.368
47987SOL     OW45793  10.498   7.742   6.260
47987SOL    HW145794  10.441   7.760   6.185
47987SOL    HW245795  10.485   7.816   6.319
47988SOL     OW45796   9.902   4.341   7.220
47988SOL    HW145797   9.919   4.288   7.297
47988SOL    HW245798   9.865   4.423   7.254
47989SOL     OW45799   1.451   3.966   3.660
47989SOL    HW145800   1.403   4.042   3.694
47989SOL    HW245801   1.462   3.984   3.566
47990SOL     OW45802  10.463   0.423   2.741
47990SOL    HW145803  10.433   0.332   2.746
47990SOL    HW245804  10.537   0.420   2.680
47991SOL     OW45805   5.659  14.326  13.908
47991SOL    HW145806   5.681  14.367  13.991
47991SOL    HW245807   5.742  14.320  13.861
47992SOL     OW45808  13.757   1.045  13.225
47992SOL    HW145809  13.837   1.087  13.196
47992SOL    HW245810  13.695   1.060  13.154
47993SOL     OW45811   0.447   5.517   9.939
47993SOL    HW145812   0.432   5.504  10.032
47993SOL    HW245813   0.416   5.606   9.922
47994SOL     OW45814   3.062  13.341   4.872
47994SOL    HW145815   3.066  13.249   4.847
47994SOL    HW245816   3.056  13.389   4.789
47995SOL     OW45817   5.725  13.342   6.492
47995SOL    HW145818   5.732  13.249   6.471
47995SOL    HW245819   5.775  13.386   6.423
47996SOL     OW45820   8.463  12.572   9.787
47996SOL    HW145821   8.425  12.524   9.860
47996SOL    HW245822   8.517  12.507   9.742
47997SOL     OW45823  10.992  10.865   2.318
47997SOL    HW145824  11.012  10.938   2.378
47997SOL    HW245825  11.067  10.806   2.326
47998SOL     OW45826   2.447   6.980   4.678
47998SOL    HW145827   2.410   7.018   4.758
47998SOL    HW245828   2.508   7.047   4.646
47999SOL     OW45829   7.705  12.850   7.746
47999SOL    HW145830   7.765  12.776   7.751
47999SOL    HW245831   7.680  12.855   7.654
48000SOL     OW45832   2.677   6.941  12.781
48000SOL    HW145833   2.698   6.914  12.870
48000SOL    HW245834   2.744   7.005  12.758
48001SOL     OW45835  11.770  13.165  10.746
48001SOL    HW145836  11.783  13.258  10.725
48001SOL    HW245837  11.752  13.124  10.661
48002SOL     OW45838  13.147  14.846   1.904
48002SOL    HW145839  13.141  14.847   2.000
48002SOL    HW245840  13.229  14.800   1.886
48003SOL     OW45841   2.015  11.472   7.582
48003SOL    HW145842   2.010  11.444   7.674
48003SOL    HW245843   2.014  11.568   7.586
48004SOL     OW45844  10.853   3.890   9.441
48004SOL    HW145845  10.764   3.923   9.427
48004SOL    HW245846  10.897   3.960   9.489
48005SOL     OW45847   1.674   2.122   1.989
48005SOL    HW145848   1.766   2.095   1.993
48005SOL    HW245849   1.676   2.217   1.988
48006SOL     OW45850   5.599  13.338   9.229
48006SOL    HW145851   5.595  13.406   9.162
48006SOL    HW245852   5.529  13.278   9.207
48007SOL     OW45853  13.552  13.948   9.411
48007SOL    HW145854  13.503  13.955   9.330
48007SOL    HW245855  13.633  13.902   9.386
48008SOL     OW45856  13.829   3.194   5.093
48008SOL    HW145857  13.806   3.132   5.025
48008SOL    HW245858  13.774   3.170   5.168
48009SOL     OW45859   7.897  10.055   0.282
48009SOL    HW145860   7.913  10.044   0.375
48009SOL    HW245861   7.847   9.977   0.257
48010SOL     OW45862   5.988   2.059   6.535
48010SOL    HW145863   5.953   1.979   6.496
48010SOL    HW245864   5.911   2.106   6.566
48011SOL     OW45865  14.536   3.586  11.642
48011SOL    HW145866  14.472   3.515  11.631
48011SOL    HW245867  14.515   3.623  11.728
48012SOL     OW45868   1.010   9.928  11.773
48012SOL    HW145869   0.995  10.006  11.718
48012SOL    HW245870   1.024   9.857  11.710
48013SOL     OW45871   9.433  13.178   4.265
48013SOL    HW145872   9.458  13.221   4.346
48013SOL    HW245873   9.432  13.247   4.199
48014SOL     OW45874   0.059  10.291   4.801
48014SOL    HW145875   0.120  10.217   4.804
48014SOL    HW245876   0.009  10.284   4.883
48015SOL     OW45877   9.897   7.731   1.100
48015SOL    HW145878   9.808   7.696   1.093
48015SOL    HW245879   9.944   7.667   1.154
48016SOL     OW45880  14.462   9.942  14.003
48016SOL    HW145881  14.420   9.997  13.936
48016SOL    HW245882  14.520  10.001  14.050
48017SOL     OW45883   8.321   0.248  14.497
48017SOL    HW145884   8.415   0.258  14.487
48017SOL    HW245885   8.290   0.335  14.522
48018SOL     OW45886  12.764  12.597   5.136
48018SOL    HW145887  12.859  12.596   5.149
48018SOL    HW245888  12.734  12.671   5.189
48019SOL     OW45889  11.456  14.090  13.514
48019SOL    HW145890  11.471  14.182  13.490
48019SOL    HW245891  11.543  14.054  13.527
48020SOL     OW45892   9.947   6.163   2.504
48020SOL    HW145893  10.007   6.185   2.575
48020SOL    HW245894   9.898   6.087   2.537
48021SOL     OW45895   4.588   5.212   9.166
48021SOL    HW145896   4.604   5.171   9.080
48021SOL    HW245897   4.588   5.139   9.227
48022SOL     OW45898  14.838  14.298  14.449
48022SOL    HW145899  14.846  14.390  14.426
48022SOL    HW245900  14.757  14.293  14.501
48023SOL     OW45901  14.495   2.927  12.940
48023SOL    HW145902  14.461   2.999  12.993
48023SOL    HW245903  14.431   2.917  12.870
48024SOL     OW45904  14.641  12.654   8.107
48024SOL    HW145905  14.576  12.643   8.176
48024SOL    HW245906  14.637  12.573   8.056
48025SOL     OW45907   0.902   8.140   2.530
48025SOL    HW145908   0.912   8.110   2.439
48025SOL    HW245909   0.939   8.228   2.530
48026SOL     OW45910   2.072   5.704   7.823
48026SOL    HW145911   2.026   5.679   7.903
48026SOL    HW245912   2.026   5.781   7.792
48027SOL     OW45913   5.434  11.482   9.081
48027SOL    HW145914   5.386  11.551   9.036
48027SOL    HW245915   5.515  11.524   9.111
48028SOL     OW45916  13.532  13.339   4.636
48028SOL    HW145917  13.560  13.276   4.702
48028SOL    HW245918  13.578  13.312   4.556
48029SOL     OW45919   1.064   1.489   0.318
48029SOL    HW145920   0.973   1.475   0.345
48029SOL    HW245921   1.074   1.584   0.315
48030SOL     OW45922  10.233  10.004  12.784
48030SOL    HW145923  10.293   9.938  12.819
48030SOL    HW245924  10.191   9.961  12.709
48031SOL     OW45925   9.657   6.475  11.748
48031SOL    HW145926   9.659   6.493  11.842
48031SOL    HW245927   9.737   6.425  11.732
48032SOL     OW45928   4.693   8.479   7.312
48032SOL    HW145929   4.698   8.390   7.348
48032SOL    HW245930   4.702   8.536   7.388
48033SOL     OW45931   0.968   5.912   8.120
48033SOL    HW145932   1.029   5.858   8.170
48033SOL    HW245933   0.998   6.002   8.135
48034SOL     OW45934   7.611   5.683   4.141
48034SOL    HW145935   7.658   5.698   4.224
48034SOL    HW245936   7.573   5.768   4.120
48035SOL     OW45937   7.346   5.962   5.139
48035SOL    HW145938   7.294   5.911   5.201
48035SOL    HW245939   7.420   5.995   5.191
48036SOL     OW45940   0.625   0.481   5.683
48036SOL    HW145941   0.655   0.570   5.667
48036SOL    HW245942   0.593   0.450   5.598
48037SOL     OW45943   5.963   3.908  10.288
48037SOL    HW145944   6.050   3.924  10.251
48037SOL    HW245945   5.902   3.926  10.217
48038SOL     OW45946  12.130   4.217  10.599
48038SOL    HW145947  12.061   4.190  10.659
48038SOL    HW245948  12.192   4.144  10.599
48039SOL     OW45949  11.459   5.789   3.203
48039SOL    HW145950  11.544   5.748   3.219
48039SOL    HW245951  11.437   5.831   3.286
48040SOL     OW45952   1.092  12.714   0.156
48040SOL    HW145953   0.998  12.726   0.166
48040SOL    HW245954   1.129  12.802   0.162
48041SOL     OW45955   9.833   3.860   8.719
48041SOL    HW145956   9.800   3.771   8.707
48041SOL    HW245957   9.754   3.914   8.729
48042SOL     OW45958  13.484   8.199  14.729
48042SOL    HW145959  13.563   8.185  14.677
48042SOL    HW245960  13.511   8.182  14.819
48043SOL     OW45961  12.574  12.239   6.108
48043SOL    HW145962  12.641  12.180   6.143
48043SOL    HW245963  12.531  12.188   6.039
48044SOL     OW45964   9.200   2.180   1.376
48044SOL    HW145965   9.147   2.181   1.456
48044SOL    HW245966   9.262   2.252   1.387
48045SOL     OW45967   7.890  12.767  10.663
48045SOL    HW145968   7.801  12.743  10.637
48045SOL    HW245969   7.919  12.827  10.594
48046SOL     OW45970   3.148   6.575   2.747
48046SOL    HW145971   3.194   6.559   2.829
48046SOL    HW245972   3.055   6.569   2.770
48047SOL     OW45973   0.746  12.417  11.853
48047SOL    HW145974   0.820  12.417  11.793
48047SOL    HW245975   0.669  12.403  11.797
48048SOL     OW45976   9.852   7.117   3.395
48048SOL    HW145977   9.937   7.079   3.418
48048SOL    HW245978   9.868   7.163   3.313
48049SOL     OW45979  10.139  11.345  10.465
48049SOL    HW145980  10.150  11.376  10.555
48049SOL    HW245981  10.060  11.390  10.434
48050SOL     OW45982   9.131   8.570  14.671
48050SOL    HW145983   9.088   8.652  14.695
48050SOL    HW245984   9.101   8.552  14.582
48051SOL     OW45985   7.856   4.872  12.918
48051SOL    HW145986   7.950   4.856  12.915
48051SOL    HW245987   7.816   4.785  12.926
48052SOL     OW45988  11.902  10.412   8.458
48052SOL    HW145989  11.839  10.364   8.512
48052SOL    HW245990  11.958  10.458   8.520
48053SOL     OW45991   8.055   2.488   4.935
48053SOL    HW145992   7.967   2.472   4.904
48053SOL    HW245993   8.048   2.569   4.987
48054SOL     OW45994   0.323  10.571   0.419
48054SOL    HW145995   0.272  10.492   0.404
48054SOL    HW245996   0.264  10.642   0.395
48055SOL     OW45997   1.396  11.417   1.989
48055SOL    HW145998   1.440  11.482   1.935
48055SOL    HW245999   1.403  11.451   2.078
48056SOL     OW46000   6.677  11.347   1.339
48056SOL    HW146001   6.649  11.406   1.269
48056SOL    HW246002   6.768  11.373   1.357
48057SOL     OW46003  12.243   9.040   0.227
48057SOL    HW146004  12.255   8.991   0.308
48057SOL    HW246005  12.170   8.996   0.183
48058SOL     OW46006   2.442   3.658  11.080
48058SOL    HW146007   2.503   3.717  11.035
48058SOL    HW246008   2.401   3.609  11.009
48059SOL     OW46009   1.014   2.012   0.139
48059SOL    HW146010   1.052   1.962   0.212
48059SOL    HW246011   1.019   1.953   0.064
48060SOL     OW46012  14.394   0.792  12.840
48060SOL    HW146013  14.310   0.811  12.882
48060SOL    HW246014  14.450   0.759  12.910
48061SOL     OW46015   7.112   7.078  11.516
48061SOL    HW146016   7.034   7.024  11.527
48061SOL    HW246017   7.126   7.118  11.602
48062SOL     OW46018   0.243  14.004   2.720
48062SOL    HW146019   0.168  14.046   2.761
48062SOL    HW246020   0.210  13.920   2.690
48063SOL     OW46021   6.857   2.203  12.125
48063SOL    HW146022   6.898   2.237  12.204
48063SOL    HW246023   6.911   2.127  12.102
48064SOL     OW46024   9.210   0.129   0.208
48064SOL    HW146025   9.195   0.106   0.117
48064SOL    HW246026   9.135   0.092   0.255
48065SOL     OW46027   4.064   8.122   7.090
48065SOL    HW146028   4.044   8.123   7.184
48065SOL    HW246029   4.112   8.040   7.077
48066SOL     OW46030   6.065   5.123   7.694
48066SOL    HW146031   6.049   5.028   7.692
48066SOL    HW246032   6.053   5.152   7.604
48067SOL     OW46033   5.758   3.205   9.534
48067SOL    HW146034   5.666   3.191   9.510
48067SOL    HW246035   5.761   3.294   9.569
48068SOL     OW46036   5.689   7.853  13.832
48068SOL    HW146037   5.746   7.794  13.784
48068SOL    HW246038   5.737   7.936  13.836
48069SOL     OW46039   7.041  12.367  11.766
48069SOL    HW146040   7.071  12.365  11.675
48069SOL    HW246041   7.063  12.281  11.801
48070SOL     OW46042   9.452   5.802  12.496
48070SOL    HW146043   9.418   5.853  12.422
48070SOL    HW246044   9.378   5.795  12.556
48071SOL     OW46045   8.203   9.316  10.689
48071SOL    HW146046   8.124   9.270  10.717
48071SOL    HW246047   8.172   9.393  10.643
48072SOL     OW46048   6.499   6.023   8.586
48072SOL    HW146049   6.540   5.938   8.576
48072SOL    HW246050   6.564   6.085   8.554
48073SOL     OW46051  14.856   5.675   9.412
48073SOL    HW146052  14.849   5.650   9.504
48073SOL    HW246053   0.022   5.602   9.370
48074SOL     OW46054   5.014   7.793   0.243
48074SOL    HW146055   4.931   7.748   0.261
48074SOL    HW246056   5.073   7.723   0.214
48075SOL     OW46057  10.030   4.012   8.092
48075SOL    HW146058  10.125   4.019   8.091
48075SOL    HW246059   9.999   4.102   8.101
48076SOL     OW46060   0.734  12.049   9.747
48076SOL    HW146061   0.650  12.053   9.792
48076SOL    HW246062   0.798  12.074   9.813
48077SOL     OW46063   9.333  10.580   0.578
48077SOL    HW146064   9.323  10.656   0.522
48077SOL    HW246065   9.383  10.518   0.526
48078SOL     OW46066   1.026   1.130   9.723
48078SOL    HW146067   0.962   1.183   9.674
48078SOL    HW246068   1.008   1.040   9.695
48079SOL     OW46069   2.978  10.713   5.141
48079SOL    HW146070   3.017  10.626   5.131
48079SOL    HW246071   2.912  10.718   5.071
48080SOL     OW46072   2.597   7.306  12.588
48080SOL    HW146073   2.517   7.270  12.628
48080SOL    HW246074   2.610   7.254  12.509
48081SOL     OW46075  14.030   2.452   0.185
48081SOL    HW146076  13.948   2.501   0.194
48081SOL    HW246077  14.010   2.384   0.121
48082SOL     OW46078   0.374  10.770   0.040
48082SOL    HW146079   0.391  10.813   0.123
48082SOL    HW246080   0.460  10.743   0.009
48083SOL     OW46081   9.456   2.690   5.818
48083SOL    HW146082   9.419   2.725   5.737
48083SOL    HW246083   9.503   2.763   5.857
48084SOL     OW46084   5.589   0.524  14.121
48084SOL    HW146085   5.595   0.563  14.208
48084SOL    HW246086   5.644   0.580  14.065
48085SOL     OW46087  12.606   6.160  13.364
48085SOL    HW146088  12.536   6.196  13.418
48085SOL    HW246089  12.573   6.167  13.275
48086SOL     OW46090  13.516   4.147   2.502
48086SOL    HW146091  13.554   4.175   2.419
48086SOL    HW246092  13.510   4.052   2.494
48087SOL     OW46093   5.850   3.441   9.679
48087SOL    HW146094   5.841   3.524   9.725
48087SOL    HW246095   5.929   3.401   9.717
48088SOL     OW46096  12.431   0.005   3.307
48088SOL    HW146097  12.354   0.017   3.253
48088SOL    HW246098  12.450  14.790   3.303
48089SOL     OW46099   4.322  13.249  12.216
48089SOL    HW146100   4.248  13.309  12.215
48089SOL    HW246101   4.399  13.305  12.208
48090SOL     OW46102   7.207   1.222  14.135
48090SOL    HW146103   7.235   1.133  14.116
48090SOL    HW246104   7.254   1.276  14.071
48091SOL     OW46105   4.785   0.710  11.474
48091SOL    HW146106   4.777   0.804  11.494
48091SOL    HW246107   4.879   0.696  11.461
48092SOL     OW46108  14.515   4.805   5.341
48092SOL    HW146109  14.481   4.748   5.272
48092SOL    HW246110  14.537   4.746   5.413
48093SOL     OW46111   9.329   4.178   8.849
48093SOL    HW146112   9.252   4.198   8.902
48093SOL    HW246113   9.390   4.136   8.909
48094SOL     OW46114  12.440   5.099  14.653
48094SOL    HW146115  12.459   5.167  14.718
48094SOL    HW246116  12.369   5.135  14.601
48095SOL     OW46117   1.213   2.542   2.876
48095SOL    HW146118   1.303   2.509   2.873
48095SOL    HW246119   1.194   2.552   2.969
48096SOL     OW46120   8.901   4.138   8.143
48096SOL    HW146121   8.884   4.209   8.081
48096SOL    HW246122   8.834   4.150   8.211
48097SOL     OW46123   5.087  14.575   6.394
48097SOL    HW146124   5.157  14.629   6.357
48097SOL    HW246125   5.043  14.536   6.319
48098SOL     OW46126   7.416  10.516   0.565
48098SOL    HW146127   7.494  10.569   0.585
48098SOL    HW246128   7.444  10.460   0.493
48099SOL     OW46129  11.004   9.911  12.592
48099SOL    HW146130  11.018   9.891  12.500
48099SOL    HW246131  11.087   9.888  12.635
48100SOL     OW46132  12.519   9.428   6.470
48100SOL    HW146133  12.571   9.456   6.545
48100SOL    HW246134  12.577   9.439   6.395
48101SOL     OW46135   5.195   5.725   6.096
48101SOL    HW146136   5.113   5.760   6.061
48101SOL    HW246137   5.184   5.729   6.191
48102SOL     OW46138   0.529   6.128  10.098
48102SOL    HW146139   0.481   6.047  10.079
48102SOL    HW246140   0.538   6.129  10.193
48103SOL     OW46141  11.459   2.760   5.071
48103SOL    HW146142  11.548   2.778   5.101
48103SOL    HW246143  11.403   2.794   5.141
48104SOL     OW46144  11.345   1.191  12.883
48104SOL    HW146145  11.328   1.277  12.920
48104SOL    HW246146  11.437   1.173  12.905
48105SOL     OW46147   8.039  14.479  12.658
48105SOL    HW146148   8.010  14.463  12.748
48105SOL    HW246149   8.129  14.447  12.656
48106SOL     OW46150   6.207   7.802   1.743
48106SOL    HW146151   6.204   7.889   1.703
48106SOL    HW246152   6.169   7.814   1.830
48107SOL     OW46153  10.239   8.246  10.829
48107SOL    HW146154  10.241   8.163  10.782
48107SOL    HW246155  10.218   8.311  10.763
48108SOL     OW46156   9.249  11.381   4.866
48108SOL    HW146157   9.341  11.406   4.863
48108SOL    HW246158   9.239  11.336   4.950
48109SOL     OW46159   1.318   6.076   6.137
48109SOL    HW146160   1.314   6.047   6.228
48109SOL    HW246161   1.239   6.129   6.126
48110SOL     OW46162   7.700   8.389  12.716
48110SOL    HW146163   7.615   8.433  12.709
48110SOL    HW246164   7.728   8.375  12.625
48111SOL     OW46165   6.846   0.396   4.940
48111SOL    HW146166   6.909   0.456   4.980
48111SOL    HW246167   6.765   0.410   4.990
48112SOL     OW46168  13.397   7.497   8.498
48112SOL    HW146169  13.488   7.468   8.496
48112SOL    HW246170  13.365   7.470   8.584
48113SOL     OW46171   8.139   8.849   6.563
48113SOL    HW146172   8.079   8.793   6.512
48113SOL    HW246173   8.210   8.790   6.588
48114SOL     OW46174  12.824   8.342   8.131
48114SOL    HW146175  12.843   8.363   8.222
48114SOL    HW246176  12.910   8.333   8.090
48115SOL     OW46177   7.168   1.652  11.618
48115SOL    HW146178   7.257   1.663  11.583
48115SOL    HW246179   7.147   1.560  11.599
48116SOL     OW46180   1.706  11.150  11.921
48116SOL    HW146181   1.692  11.055  11.919
48116SOL    HW246182   1.644  11.184  11.857
48117SOL     OW46183  13.871  10.445  14.179
48117SOL    HW146184  13.804  10.507  14.151
48117SOL    HW246185  13.935  10.445  14.108
48118SOL     OW46186   5.812   3.509   6.387
48118SOL    HW146187   5.750   3.555   6.445
48118SOL    HW246188   5.765   3.430   6.359
48119SOL     OW46189   5.858   7.136   9.982
48119SOL    HW146190   5.880   7.108   9.893
48119SOL    HW246191   5.818   7.058  10.022
48120SOL     OW46192   1.998   8.345  10.736
48120SOL    HW146193   1.997   8.435  10.768
48120SOL    HW246194   1.997   8.291  10.815
48121SOL     OW46195   2.502   9.240   6.221
48121SOL    HW146196   2.549   9.208   6.298
48121SOL    HW246197   2.555   9.210   6.146
48122SOL     OW46198   5.924   0.484   2.683
48122SOL    HW146199   5.889   0.550   2.623
48122SOL    HW246200   5.846   0.448   2.727
48123SOL     OW46201   4.519  13.396   1.072
48123SOL    HW146202   4.579  13.372   1.001
48123SOL    HW246203   4.431  13.384   1.035
48124SOL     OW46204  13.183   3.124  10.667
48124SOL    HW146205  13.159   3.046  10.717
48124SOL    HW246206  13.099   3.168  10.649
48125SOL     OW46207   2.086  10.073   5.859
48125SOL    HW146208   2.000  10.052   5.897
48125SOL    HW246209   2.105  10.161   5.891
48126SOL     OW46210   7.030   9.998   0.599
48126SOL    HW146211   7.009  10.059   0.670
48126SOL    HW246212   7.047   9.915   0.644
48127SOL     OW46213   9.854  12.795  11.703
48127SOL    HW146214   9.826  12.869  11.756
48127SOL    HW246215   9.781  12.734  11.704
48128SOL     OW46216   9.875   5.545  12.785
48128SOL    HW146217   9.849   5.635  12.766
48128SOL    HW246218   9.934   5.553  12.860
48129SOL     OW46219   4.959   3.169   5.418
48129SOL    HW146220   4.952   3.198   5.327
48129SOL    HW246221   5.026   3.101   5.417
48130SOL     OW46222   0.586   7.421   8.669
48130SOL    HW146223   0.627   7.507   8.657
48130SOL    HW246224   0.511   7.439   8.726
48131SOL     OW46225   7.308   8.551   5.663
48131SOL    HW146226   7.372   8.480   5.658
48131SOL    HW246227   7.313   8.592   5.576
48132SOL     OW46228  12.965   1.325   2.338
48132SOL    HW146229  13.002   1.372   2.263
48132SOL    HW246230  12.942   1.239   2.304
48133SOL     OW46231   8.448   9.546   1.966
48133SOL    HW146232   8.531   9.537   1.918
48133SOL    HW246233   8.382   9.555   1.897
48134SOL     OW46234  14.743   8.771   2.974
48134SOL    HW146235  14.661   8.773   2.925
48134SOL    HW246236  14.800   8.713   2.924
48135SOL     OW46237   6.853  11.266   0.321
48135SOL    HW146238   6.914  11.245   0.392
48135SOL    HW246239   6.821  11.180   0.291
48136SOL     OW46240   4.377  12.952  10.480
48136SOL    HW146241   4.411  13.003  10.553
48136SOL    HW246242   4.308  12.897  10.518
48137SOL     OW46243   7.649  10.597   0.881
48137SOL    HW146244   7.662  10.514   0.927
48137SOL    HW246245   7.706  10.591   0.804
48138SOL     OW46246   1.376   0.744   8.955
48138SOL    HW146247   1.393   0.827   8.910
48138SOL    HW246248   1.286   0.722   8.931
48139SOL     OW46249   8.424   4.050   5.347
48139SOL    HW146250   8.375   4.125   5.313
48139SOL    HW246251   8.513   4.064   5.315
48140SOL     OW46252   4.363   6.057   0.264
48140SOL    HW146253   4.320   6.128   0.217
48140SOL    HW246254   4.403   6.098   0.340
48141SOL     OW46255   8.430   7.944  11.135
48141SOL    HW146256   8.394   7.901  11.212
48141SOL    HW246257   8.523   7.918  11.134
48142SOL     OW46258   9.216  10.372  12.110
48142SOL    HW146259   9.159  10.353  12.035
48142SOL    HW246260   9.184  10.315  12.180
48143SOL     OW46261   3.466  10.827   1.210
48143SOL    HW146262   3.406  10.764   1.249
48143SOL    HW246263   3.537  10.774   1.174
48144SOL     OW46264  10.576  11.070   1.641
48144SOL    HW146265  10.606  11.037   1.556
48144SOL    HW246266  10.652  11.060   1.699
48145SOL     OW46267   4.310   2.304  12.257
48145SOL    HW146268   4.356   2.265  12.183
48145SOL    HW246269   4.377   2.309  12.326
48146SOL     OW46270   4.752   2.040   5.350
48146SOL    HW146271   4.694   1.980   5.397
48146SOL    HW246272   4.723   2.127   5.377
48147SOL     OW46273   3.480   9.488   1.836
48147SOL    HW146274   3.437   9.476   1.921
48147SOL    HW246275   3.572   9.465   1.852
48148SOL     OW46276   0.738   7.745   9.208
48148SOL    HW146277   0.744   7.675   9.273
48148SOL    HW246278   0.700   7.702   9.131
48149SOL     OW46279   4.299  12.789   2.612
48149SOL    HW146280   4.382  12.746   2.630
48149SOL    HW246281   4.317  12.846   2.537
48150SOL     OW46282   0.677   0.842   5.956
48150SOL    HW146283   0.616   0.839   5.883
48150SOL    HW246284   0.647   0.773   6.015
48151SOL     OW46285   8.824   9.887   7.147
48151SOL    HW146286   8.739   9.881   7.191
48151SOL    HW246287   8.870   9.957   7.193
48152SOL     OW46288   1.235   5.622  10.042
48152SOL    HW146289   1.182   5.676  10.101
48152SOL    HW246290   1.245   5.539  10.088
48153SOL     OW46291   6.158  11.321   8.458
48153SOL    HW146292   6.155  11.417   8.465
48153SOL    HW246293   6.144  11.291   8.548
48154SOL     OW46294   5.299   5.443   3.477
48154SOL    HW146295   5.376   5.457   3.422
48154SOL    HW246296   5.317   5.361   3.522
48155SOL     OW46297   4.134  11.768   5.664
48155SOL    HW146298   4.175  11.689   5.699
48155SOL    HW246299   4.055  11.737   5.620
48156SOL     OW46300   7.808   3.564  14.739
48156SOL    HW146301   7.726   3.611  14.722
48156SOL    HW246302   7.866   3.590  14.667
48157SOL     OW46303   2.651   1.548   5.424
48157SOL    HW146304   2.651   1.473   5.484
48157SOL    HW246305   2.577   1.601   5.451
48158SOL     OW46306   7.913  12.842  13.989
48158SOL    HW146307   7.895  12.884  14.073
48158SOL    HW246308   7.828  12.811  13.958
48159SOL     OW46309   9.744  14.294   0.717
48159SOL    HW146310   9.817  14.316   0.775
48159SOL    HW246311   9.782  14.241   0.648
48160SOL     OW46312   8.581   4.134   3.271
48160SOL    HW146313   8.524   4.130   3.348
48160SOL    HW246314   8.566   4.222   3.235
48161SOL     OW46315  14.533   1.193  12.184
48161SOL    HW146316  14.475   1.119  12.196
48161SOL    HW246317  14.621   1.155  12.186
48162SOL     OW46318   1.580   2.689   4.692
48162SOL    HW146319   1.592   2.602   4.729
48162SOL    HW246320   1.661   2.736   4.713
48163SOL     OW46321   6.660   0.029   1.229
48163SOL    HW146322   6.689  14.821   1.199
48163SOL    HW246323   6.709   0.043   1.310
48164SOL     OW46324  13.571   9.901  10.742
48164SOL    HW146325  13.494   9.958  10.746
48164SOL    HW246326  13.566   9.861  10.655
48165SOL     OW46327  13.538   9.510   1.397
48165SOL    HW146328  13.626   9.474   1.408
48165SOL    HW246329  13.542   9.560   1.315
48166SOL     OW46330   9.142  10.712  14.461
48166SOL    HW146331   9.131  10.624  14.426
48166SOL    HW246332   9.054  10.748  14.464
48167SOL     OW46333   0.105  13.350  10.102
48167SOL    HW146334   0.195  13.377  10.084
48167SOL    HW246335   0.052  13.419  10.062
48168SOL     OW46336   2.768  14.486  11.492
48168SOL    HW146337   2.747  14.396  11.467
48168SOL    HW246338   2.863  14.488  11.500
48169SOL     OW46339  13.306  10.612   8.550
48169SOL    HW146340  13.342  10.538   8.501
48169SOL    HW246341  13.243  10.572   8.610
48170SOL     OW46342   0.070   0.802   5.789
48170SOL    HW146343   0.139   0.785   5.725
48170SOL    HW246344   0.007   0.858   5.742
48171SOL     OW46345   3.624   3.387   2.335
48171SOL    HW146346   3.674   3.422   2.408
48171SOL    HW246347   3.643   3.294   2.334
48172SOL     OW46348  12.474   3.681   8.619
48172SOL    HW146349  12.484   3.726   8.703
48172SOL    HW246350  12.525   3.734   8.557
48173SOL     OW46351  11.976  11.881   1.905
48173SOL    HW146352  12.033  11.941   1.952
48173SOL    HW246353  11.920  11.937   1.851
48174SOL     OW46354   3.549   3.722   5.784
48174SOL    HW146355   3.461   3.694   5.760
48174SOL    HW246356   3.560   3.806   5.740
48175SOL     OW46357  14.694   3.559   1.317
48175SOL    HW146358  14.605   3.593   1.310
48175SOL    HW246359  14.689   3.492   1.385
48176SOL     OW46360  12.970  10.060   6.187
48176SOL    HW146361  12.905  10.024   6.247
48176SOL    HW246362  12.930  10.051   6.101
48177SOL     OW46363   7.901   9.897  13.140
48177SOL    HW146364   7.910   9.979  13.093
48177SOL    HW246365   7.982   9.849  13.119
48178SOL     OW46366   3.463   6.536   2.037
48178SOL    HW146367   3.529   6.606   2.037
48178SOL    HW246368   3.428   6.535   2.126
48179SOL     OW46369   8.567  13.869   1.184
48179SOL    HW146370   8.566  13.897   1.092
48179SOL    HW246371   8.548  13.949   1.233
48180SOL     OW46372   6.443   1.806   4.047
48180SOL    HW146373   6.497   1.822   4.124
48180SOL    HW246374   6.368   1.756   4.080
48181SOL     OW46375   1.079   4.424   5.220
48181SOL    HW146376   1.126   4.419   5.136
48181SOL    HW246377   1.121   4.357   5.275
48182SOL     OW46378   6.353   6.606  13.449
48182SOL    HW146379   6.395   6.681  13.491
48182SOL    HW246380   6.405   6.591  13.369
48183SOL     OW46381   9.543   7.771   5.564
48183SOL    HW146382   9.519   7.720   5.486
48183SOL    HW246383   9.572   7.856   5.529
48184SOL     OW46384   7.420   9.216  10.448
48184SOL    HW146385   7.464   9.231  10.364
48184SOL    HW246386   7.473   9.265  10.511
48185SOL     OW46387   4.302  11.953  11.022
48185SOL    HW146388   4.231  12.017  11.024
48185SOL    HW246389   4.287  11.904  10.941
48186SOL     OW46390   0.120   6.522  12.513
48186SOL    HW146391   0.082   6.435  12.501
48186SOL    HW246392   0.114   6.538  12.608
48187SOL     OW46393  13.408   2.863   2.998
48187SOL    HW146394  13.417   2.887   2.905
48187SOL    HW246395  13.347   2.789   2.998
48188SOL     OW46396   1.744   9.000   5.646
48188SOL    HW146397   1.739   8.926   5.585
48188SOL    HW246398   1.723   8.962   5.731
48189SOL     OW46399   7.612  13.152  11.163
48189SOL    HW146400   7.622  13.057  11.167
48189SOL    HW246401   7.696  13.184  11.131
48190SOL     OW46402  14.553  10.576  11.508
48190SOL    HW146403  14.472  10.539  11.543
48190SOL    HW246404  14.620  10.512  11.531
48191SOL     OW46405   6.169   3.380  13.419
48191SOL    HW146406   6.123   3.452  13.462
48191SOL    HW246407   6.254   3.417  13.395
48192SOL     OW46408  10.382   3.544  14.220
48192SOL    HW146409  10.395   3.629  14.263
48192SOL    HW246410  10.471   3.513  14.202
48193SOL     OW46411  11.696  12.826   0.867
48193SOL    HW146412  11.619  12.819   0.924
48193SOL    HW246413  11.734  12.911   0.890
48194SOL     OW46414   8.144  11.697  10.620
48194SOL    HW146415   8.088  11.753  10.675
48194SOL    HW246416   8.231  11.705  10.659
48195SOL     OW46417   4.898   7.429   5.208
48195SOL    HW146418   4.987   7.394   5.206
48195SOL    HW246419   4.843   7.355   5.234
48196SOL     OW46420   3.127   4.103   0.050
48196SOL    HW146421   3.051   4.044   0.048
48196SOL    HW246422   3.095   4.182   0.092
48197SOL     OW46423   5.773  14.521  13.531
48197SOL    HW146424   5.736  14.590  13.475
48197SOL    HW246425   5.780  14.445  13.473
48198SOL     OW46426   4.837   2.948   9.024
48198SOL    HW146427   4.763   3.003   9.048
48198SOL    HW246428   4.892   2.946   9.103
48199SOL     OW46429  12.724   3.928   1.907
48199SOL    HW146430  12.685   4.003   1.953
48199SOL    HW246431  12.783   3.889   1.972
48200SOL     OW46432   9.959   6.539   8.899
48200SOL    HW146433   9.922   6.465   8.947
48200SOL    HW246434  10.038   6.561   8.947
48201SOL     OW46435   6.766  13.626  13.243
48201SOL    HW146436   6.741  13.680  13.318
48201SOL    HW246437   6.766  13.536  13.277
48202SOL     OW46438   6.734   8.858   4.763
48202SOL    HW146439   6.668   8.788   4.757
48202SOL    HW246440   6.740   8.893   4.674
48203SOL     OW46441   4.214   8.544   9.679
48203SOL    HW146442   4.277   8.526   9.749
48203SOL    HW246443   4.180   8.458   9.654
48204SOL     OW46444  11.852  13.476  14.066
48204SOL    HW146445  11.769  13.456  14.023
48204SOL    HW246446  11.899  13.393  14.067
48205SOL     OW46447  12.390   2.081   2.468
48205SOL    HW146448  12.449   2.095   2.542
48205SOL    HW246449  12.303   2.104   2.501
48206SOL     OW46450   1.435   5.530   3.896
48206SOL    HW146451   1.467   5.554   3.983
48206SOL    HW246452   1.363   5.591   3.880
48207SOL     OW46453  12.330   3.748   7.792
48207SOL    HW146454  12.375   3.705   7.864
48207SOL    HW246455  12.254   3.790   7.833
48208SOL     OW46456   7.871  14.067   3.790
48208SOL    HW146457   7.927  13.992   3.768
48208SOL    HW246458   7.788  14.048   3.747
48209SOL     OW46459  10.587   8.581  11.526
48209SOL    HW146460  10.567   8.673  11.506
48209SOL    HW246461  10.593   8.579  11.622
48210SOL     OW46462   7.441   8.224   2.727
48210SOL    HW146463   7.396   8.186   2.803
48210SOL    HW246464   7.373   8.229   2.660
48211SOL     OW46465  12.799   7.397   3.759
48211SOL    HW146466  12.804   7.305   3.733
48211SOL    HW246467  12.763   7.442   3.683
48212SOL     OW46468   9.042   7.839  12.472
48212SOL    HW146469   9.055   7.898  12.547
48212SOL    HW246470   9.006   7.895  12.404
48213SOL     OW46471  13.369   8.619   0.544
48213SOL    HW146472  13.305   8.673   0.590
48213SOL    HW246473  13.454   8.658   0.565
48214SOL     OW46474   6.783  11.002   2.563
48214SOL    HW146475   6.850  11.051   2.517
48214SOL    HW246476   6.764  10.928   2.505
48215SOL     OW46477   4.450   7.625  10.362
48215SOL    HW146478   4.432   7.653  10.452
48215SOL    HW246479   4.449   7.706  10.311
48216SOL     OW46480   9.339   5.760   1.367
48216SOL    HW146481   9.313   5.803   1.285
48216SOL    HW246482   9.431   5.739   1.355
48217SOL     OW46483  12.327  12.565   4.121
48217SOL    HW146484  12.382  12.624   4.070
48217SOL    HW246485  12.345  12.478   4.085
48218SOL     OW46486   4.480   2.088   5.053
48218SOL    HW146487   4.575   2.074   5.059
48218SOL    HW246488   4.466   2.176   5.089
48219SOL     OW46489   0.600  11.118  11.909
48219SOL    HW146490   0.537  11.183  11.878
48219SOL    HW246491   0.549  11.061  11.967
48220SOL     OW46492   8.864   7.381   7.309
48220SOL    HW146493   8.771   7.372   7.329
48220SOL    HW246494   8.874   7.472   7.280
48221SOL     OW46495  10.123   8.049   2.753
48221SOL    HW146496  10.159   8.074   2.838
48221SOL    HW246497  10.033   8.023   2.771
48222SOL     OW46498  10.786   7.105   0.477
48222SOL    HW146499  10.835   7.096   0.396
48222SOL    HW246500  10.724   7.177   0.461
48223SOL     OW46501   2.225   2.536   5.188
48223SOL    HW146502   2.280   2.457   5.187
48223SOL    HW246503   2.287   2.607   5.171
48224SOL     OW46504   3.855   5.367   2.233
48224SOL    HW146505   3.793   5.362   2.306
48224SOL    HW246506   3.802   5.345   2.156
48225SOL     OW46507   8.825  11.651   6.764
48225SOL    HW146508   8.824  11.603   6.847
48225SOL    HW246509   8.753  11.714   6.772
48226SOL     OW46510   4.161   6.614   5.951
48226SOL    HW146511   4.256   6.613   5.958
48226SOL    HW246512   4.139   6.535   5.902
48227SOL     OW46513   7.844   7.272   7.386
48227SOL    HW146514   7.884   7.359   7.392
48227SOL    HW246515   7.780   7.280   7.316
48228SOL     OW46516   2.836   8.396  11.699
48228SOL    HW146517   2.750   8.376  11.735
48228SOL    HW246518   2.833   8.490  11.679
48229SOL     OW46519   8.416   9.135   5.794
48229SOL    HW146520   8.376   9.173   5.715
48229SOL    HW246521   8.347   9.137   5.860
48230SOL     OW46522  13.058   9.481  12.382
48230SOL    HW146523  13.001   9.405  12.374
48230SOL    HW246524  13.005   9.546  12.429
48231SOL     OW46525   9.528   3.572  13.067
48231SOL    HW146526   9.531   3.493  13.013
48231SOL    HW246527   9.611   3.572  13.115
48232SOL     OW46528  10.230   0.783  13.692
48232SOL    HW146529  10.217   0.746  13.604
48232SOL    HW246530  10.277   0.715  13.740
48233SOL     OW46531  10.566   9.103   3.756
48233SOL    HW146532  10.534   9.080   3.669
48233SOL    HW246533  10.647   9.053   3.767
48234SOL     OW46534  11.792  12.618  14.355
48234SOL    HW146535  11.862  12.633  14.291
48234SOL    HW246536  11.751  12.537  14.327
48235SOL     OW46537  12.274   5.944   7.090
48235SOL    HW146538  12.292   5.962   7.182
48235SOL    HW246539  12.286   6.028   7.046
48236SOL     OW46540   3.853  11.163  10.665
48236SOL    HW146541   3.868  11.088  10.608
48236SOL    HW246542   3.855  11.239  10.606
48237SOL     OW46543   1.960  14.415   2.636
48237SOL    HW146544   1.987  14.504   2.655
48237SOL    HW246545   2.006  14.361   2.700
48238SOL     OW46546  10.206   2.645  11.567
48238SOL    HW146547  10.275   2.578  11.572
48238SOL    HW246548  10.253   2.728  11.573
48239SOL     OW46549  10.101   1.877   8.531
48239SOL    HW146550  10.181   1.924   8.555
48239SOL    HW246551  10.071   1.920   8.451
48240SOL     OW46552  11.427   8.677   9.537
48240SOL    HW146553  11.349   8.632   9.569
48240SOL    HW246554  11.486   8.681   9.612
48241SOL     OW46555  12.864  10.189   5.646
48241SOL    HW146556  12.938  10.156   5.696
48241SOL    HW246557  12.817  10.247   5.707
48242SOL     OW46558  12.089   9.896   4.381
48242SOL    HW146559  12.162   9.946   4.344
48242SOL    HW246560  12.049   9.853   4.306
48243SOL     OW46561   9.290   5.246   4.163
48243SOL    HW146562   9.214   5.190   4.178
48243SOL    HW246563   9.362   5.185   4.148
48244SOL     OW46564  11.990  14.123   1.190
48244SOL    HW146565  12.074  14.140   1.233
48244SOL    HW246566  11.986  14.028   1.182
48245SOL     OW46567   1.585   7.061   6.291
48245SOL    HW146568   1.565   7.151   6.265
48245SOL    HW246569   1.503   7.028   6.327
48246SOL     OW46570   5.119   9.513   9.641
48246SOL    HW146571   5.138   9.606   9.648
48246SOL    HW246572   5.040   9.500   9.693
48247SOL     OW46573   5.242   5.229  12.143
48247SOL    HW146574   5.236   5.269  12.230
48247SOL    HW246575   5.281   5.297  12.088
48248SOL     OW46576  10.670   8.025  10.731
48248SOL    HW146577  10.752   8.001  10.776
48248SOL    HW246578  10.667   8.120  10.735
48249SOL     OW46579   1.560  10.553   7.601
48249SOL    HW146580   1.465  10.553   7.602
48249SOL    HW246581   1.584  10.479   7.545
48250SOL     OW46582   4.826  12.172  13.034
48250SOL    HW146583   4.844  12.087  12.993
48250SOL    HW246584   4.906  12.223  13.019
48251SOL     OW46585  11.452  13.618   5.191
48251SOL    HW146586  11.524  13.650   5.136
48251SOL    HW246587  11.489  13.541   5.235
48252SOL     OW46588   2.969  13.261  11.633
48252SOL    HW146589   2.956  13.254  11.539
48252SOL    HW246590   2.942  13.175  11.667
48253SOL     OW46591  10.516   6.595   6.678
48253SOL    HW146592  10.602   6.582   6.639
48253SOL    HW246593  10.533   6.648   6.756
48254SOL     OW46594   2.964  13.815   1.911
48254SOL    HW146595   3.026  13.887   1.916
48254SOL    HW246596   2.921  13.826   1.826
48255SOL     OW46597  14.532   2.865   5.700
48255SOL    HW146598  14.610   2.835   5.746
48255SOL    HW246599  14.549   2.845   5.608
48256SOL     OW46600  10.502   1.997  11.052
48256SOL    HW146601  10.504   1.966  11.143
48256SOL    HW246602  10.471   2.087  11.058
48257SOL     OW46603   6.130  10.249  14.528
48257SOL    HW146604   6.149  10.287  14.442
48257SOL    HW246605   6.137  10.323  14.588
48258SOL     OW46606  12.810   6.709  13.310
48258SOL    HW146607  12.879   6.642  13.305
48258SOL    HW246608  12.820   6.747  13.398
48259SOL     OW46609  10.621   1.006   8.713
48259SOL    HW146610  10.584   0.926   8.750
48259SOL    HW246611  10.600   1.074   8.777
48260SOL     OW46612   2.162   1.950   4.751
48260SOL    HW146613   2.205   1.907   4.677
48260SOL    HW246614   2.118   2.025   4.711
48261SOL     OW46615   5.286   2.080   3.423
48261SOL    HW146616   5.297   2.168   3.460
48261SOL    HW246617   5.316   2.021   3.492
48262SOL     OW46618   8.216   0.985   2.315
48262SOL    HW146619   8.134   1.021   2.282
48262SOL    HW246620   8.263   0.957   2.236
48263SOL     OW46621   9.304   4.924  12.718
48263SOL    HW146622   9.330   4.998  12.772
48263SOL    HW246623   9.385   4.878  12.698
48264SOL     OW46624   5.423  11.620   5.476
48264SOL    HW146625   5.437  11.703   5.520
48264SOL    HW246626   5.511  11.588   5.455
48265SOL     OW46627   5.989   9.744   1.937
48265SOL    HW146628   5.952   9.792   2.010
48265SOL    HW246629   6.013   9.811   1.873
48266SOL     OW46630   6.745   1.105  11.823
48266SOL    HW146631   6.678   1.173  11.831
48266SOL    HW246632   6.810   1.129  11.889
48267SOL     OW46633  14.560  10.102   8.780
48267SOL    HW146634  14.634  10.154   8.751
48267SOL    HW246635  14.574  10.089   8.874
48268SOL     OW46636   1.359  11.081   8.331
48268SOL    HW146637   1.437  11.055   8.283
48268SOL    HW246638   1.391  11.107   8.417
48269SOL     OW46639   0.170  10.596   3.454
48269SOL    HW146640   0.185  10.502   3.445
48269SOL    HW246641   0.084  10.604   3.495
48270SOL     OW46642   0.903   5.971   7.202
48270SOL    HW146643   0.897   5.932   7.114
48270SOL    HW246644   0.821   6.019   7.213
48271SOL     OW46645  11.335   9.299   2.537
48271SOL    HW146646  11.315   9.231   2.602
48271SOL    HW246647  11.265   9.292   2.472
48272SOL     OW46648   6.057   5.017   9.522
48272SOL    HW146649   5.982   5.016   9.464
48272SOL    HW246650   6.128   5.054   9.469
48273SOL     OW46651   0.126   2.617   8.807
48273SOL    HW146652   0.172   2.667   8.740
48273SOL    HW246653   0.037   2.608   8.773
48274SOL     OW46654   4.781   3.245  13.096
48274SOL    HW146655   4.803   3.302  13.023
48274SOL    HW246656   4.700   3.282  13.133
48275SOL     OW46657   5.063   9.579   5.005
48275SOL    HW146658   5.095   9.507   5.060
48275SOL    HW246659   5.124   9.651   5.022
48276SOL     OW46660   7.528  13.194   4.280
48276SOL    HW146661   7.507  13.102   4.298
48276SOL    HW246662   7.459  13.223   4.221
48277SOL     OW46663   8.246  11.994   8.985
48277SOL    HW146664   8.276  12.066   9.040
48277SOL    HW246665   8.161  12.023   8.952
48278SOL     OW46666  12.171  12.828   0.769
48278SOL    HW146667  12.230  12.757   0.745
48278SOL    HW246668  12.105  12.786   0.825
48279SOL     OW46669   5.569   4.078  10.461
48279SOL    HW146670   5.622   4.011  10.503
48279SOL    HW246671   5.489   4.081  10.513
48280SOL     OW46672   1.967   7.327   1.699
48280SOL    HW146673   1.978   7.415   1.735
48280SOL    HW246674   1.980   7.338   1.605
48281SOL     OW46675   3.701   3.010   5.886
48281SOL    HW146676   3.675   2.956   5.812
48281SOL    HW246677   3.644   2.983   5.958
48282SOL     OW46678   9.225   0.815   7.121
48282SOL    HW146679   9.308   0.827   7.168
48282SOL    HW246680   9.174   0.893   7.141
48283SOL     OW46681  12.252  13.341   0.729
48283SOL    HW146682  12.258  13.250   0.760
48283SOL    HW246683  12.258  13.394   0.809
48284SOL     OW46684  11.045   8.058   0.565
48284SOL    HW146685  11.134   8.028   0.545
48284SOL    HW246686  11.039   8.051   0.661
48285SOL     OW46687  14.351   3.929  13.641
48285SOL    HW146688  14.306   3.984  13.705
48285SOL    HW246689  14.387   3.857  13.692
48286SOL     OW46690  13.009   2.120   3.687
48286SOL    HW146691  12.958   2.174   3.747
48286SOL    HW246692  13.032   2.179   3.615
48287SOL     OW46693   5.859   6.887   1.904
48287SOL    HW146694   5.919   6.877   1.830
48287SOL    HW246695   5.789   6.824   1.887
48288SOL     OW46696  13.106  12.501  14.557
48288SOL    HW146697  13.082  12.409  14.556
48288SOL    HW246698  13.113  12.523  14.650
48289SOL     OW46699   1.924   3.940   7.709
48289SOL    HW146700   1.864   3.879   7.668
48289SOL    HW246701   1.959   3.993   7.638
48290SOL     OW46702   2.773  12.752  13.350
48290SOL    HW146703   2.827  12.810  13.296
48290SOL    HW246704   2.835  12.690  13.389
48291SOL     OW46705   0.826   3.777   7.265
48291SOL    HW146706   0.878   3.854   7.243
48291SOL    HW246707   0.857   3.751   7.352
48292SOL     OW46708   4.621   6.613  13.329
48292SOL    HW146709   4.608   6.520  13.309
48292SOL    HW246710   4.683   6.643  13.264
48293SOL     OW46711   3.054   9.467   1.409
48293SOL    HW146712   3.089   9.545   1.452
48293SOL    HW246713   3.042   9.404   1.480
48294SOL     OW46714   4.488  10.806  10.281
48294SOL    HW146715   4.413  10.768  10.235
48294SOL    HW246716   4.554  10.820  10.213
48295SOL     OW46717  12.340   7.874  12.544
48295SOL    HW146718  12.257   7.915  12.517
48295SOL    HW246719  12.319   7.781  12.553
48296SOL     OW46720  12.146   8.983  14.002
48296SOL    HW146721  12.147   8.891  14.028
48296SOL    HW246722  12.058   8.998  13.968
48297SOL     OW46723   4.306   1.834   6.030
48297SOL    HW146724   4.262   1.792   5.956
48297SOL    HW246725   4.308   1.927   6.007
48298SOL     OW46726  10.667   9.362   5.000
48298SOL    HW146727  10.605   9.324   4.938
48298SOL    HW246728  10.719   9.288   5.031
48299SOL     OW46729   5.961   9.740   3.880
48299SOL    HW146730   5.933   9.699   3.962
48299SOL    HW246731   6.010   9.671   3.834
48300SOL     OW46732   8.736   0.932   4.217
48300SOL    HW146733   8.691   0.857   4.255
48300SOL    HW246734   8.734   0.915   4.122
48301SOL     OW46735  14.394  10.780   4.161
48301SOL    HW146736  14.480  10.773   4.203
48301SOL    HW246737  14.338  10.721   4.212
48302SOL     OW46738  14.743  12.113  10.893
48302SOL    HW146739  14.796  12.192  10.877
48302SOL    HW246740  14.760  12.091  10.984
48303SOL     OW46741  11.141   6.646   9.094
48303SOL    HW146742  11.105   6.655   9.182
48303SOL    HW246743  11.080   6.586   9.049
48304SOL     OW46744   4.369  12.820   4.182
48304SOL    HW146745   4.369  12.886   4.251
48304SOL    HW246746   4.292  12.841   4.129
48305SOL     OW46747   1.348   3.715  14.569
48305SOL    HW146748   1.287   3.694  14.498
48305SOL    HW246749   1.348   3.637  14.624
48306SOL     OW46750   3.207   4.142  10.838
48306SOL    HW146751   3.142   4.144  10.908
48306SOL    HW246752   3.267   4.214  10.860
48307SOL     OW46753   6.716   2.197  10.597
48307SOL    HW146754   6.652   2.128  10.578
48307SOL    HW246755   6.663   2.271  10.628
48308SOL     OW46756   3.096   8.081   0.688
48308SOL    HW146757   3.022   8.113   0.637
48308SOL    HW246758   3.158   8.049   0.623
48309SOL     OW46759   6.734  14.566  10.423
48309SOL    HW146760   6.706  14.543  10.512
48309SOL    HW246761   6.793  14.495  10.398
48310SOL     OW46762   4.220   4.573  13.746
48310SOL    HW146763   4.260   4.527  13.672
48310SOL    HW246764   4.153   4.513  13.778
48311SOL     OW46765   7.407  12.652   9.876
48311SOL    HW146766   7.464  12.610   9.940
48311SOL    HW246767   7.383  12.581   9.816
48312SOL     OW46768   5.821   8.734   3.905
48312SOL    HW146769   5.816   8.794   3.831
48312SOL    HW246770   5.846   8.788   3.979
48313SOL     OW46771   2.877  13.272   9.651
48313SOL    HW146772   2.880  13.182   9.620
48313SOL    HW246773   2.940  13.318   9.595
48314SOL     OW46774   3.665  10.825   8.084
48314SOL    HW146775   3.607  10.887   8.038
48314SOL    HW246776   3.660  10.851   8.176
48315SOL     OW46777   0.001  12.367  10.498
48315SOL    HW146778   0.073  12.351  10.437
48315SOL    HW246779  14.842  12.280  10.515
48316SOL     OW46780   1.948   0.917   3.800
48316SOL    HW146781   1.930   0.823   3.805
48316SOL    HW246782   1.864   0.956   3.775
48317SOL     OW46783   8.197  14.146  10.916
48317SOL    HW146784   8.176  14.179  10.829
48317SOL    HW246785   8.129  14.181  10.972
48318SOL     OW46786   6.390   2.284  13.030
48318SOL    HW146787   6.375   2.375  13.053
48318SOL    HW246788   6.454   2.253  13.094
48319SOL     OW46789   3.368   2.109   1.335
48319SOL    HW146790   3.464   2.106   1.333
48319SOL    HW246791   3.341   2.078   1.249
48320SOL     OW46792  11.635   3.390   5.028
48320SOL    HW146793  11.546   3.426   5.024
48320SOL    HW246794  11.622   3.296   5.042
48321SOL     OW46795   9.770   5.177  13.171
48321SOL    HW146796   9.844   5.235  13.151
48321SOL    HW246797   9.807   5.089  13.168
48322SOL     OW46798  12.094  10.080  12.626
48322SOL    HW146799  12.102  10.149  12.560
48322SOL    HW246800  12.161  10.102  12.691
48323SOL     OW46801  12.796   7.205   7.717
48323SOL    HW146802  12.702   7.195   7.731
48323SOL    HW246803  12.805   7.281   7.660
48324SOL     OW46804  12.408  11.377   4.786
48324SOL    HW146805  12.455  11.294   4.779
48324SOL    HW246806  12.459  11.429   4.848
48325SOL     OW46807  11.720   2.909  14.823
48325SOL    HW146808  11.804   2.921  14.867
48325SOL    HW246809  11.675   2.843  14.875
48326SOL     OW46810   5.811   5.426   7.157
48326SOL    HW146811   5.744   5.412   7.223
48326SOL    HW246812   5.859   5.503   7.186
48327SOL     OW46813   1.902   8.506   5.801
48327SOL    HW146814   1.940   8.577   5.852
48327SOL    HW246815   1.945   8.512   5.716
48328SOL     OW46816   9.444   3.499   8.260
48328SOL    HW146817   9.408   3.540   8.181
48328SOL    HW246818   9.519   3.448   8.229
48329SOL     OW46819  13.627  11.817   5.029
48329SOL    HW146820  13.717  11.785   5.032
48329SOL    HW246821  13.634  11.909   5.054
48330SOL     OW46822   6.260   8.736   1.135
48330SOL    HW146823   6.319   8.667   1.166
48330SOL    HW246824   6.181   8.689   1.108
48331SOL     OW46825   4.703   7.896  10.040
48331SOL    HW146826   4.637   7.961  10.065
48331SOL    HW246827   4.677   7.816  10.085
48332SOL     OW46828  11.094   6.767   5.206
48332SOL    HW146829  11.052   6.699   5.258
48332SOL    HW246830  11.063   6.752   5.117
48333SOL     OW46831   4.537   6.882   6.591
48333SOL    HW146832   4.493   6.956   6.551
48333SOL    HW246833   4.630   6.904   6.588
48334SOL     OW46834   9.639   1.625  10.768
48334SOL    HW146835   9.717   1.665  10.806
48334SOL    HW246836   9.566   1.663  10.817
48335SOL     OW46837   5.929  11.489   4.416
48335SOL    HW146838   5.928  11.394   4.429
48335SOL    HW246839   5.943  11.500   4.322
48336SOL     OW46840   4.485   6.274   5.812
48336SOL    HW146841   4.577   6.298   5.827
48336SOL    HW246842   4.474   6.284   5.717
48337SOL     OW46843   2.113   3.706   2.443
48337SOL    HW146844   2.147   3.720   2.355
48337SOL    HW246845   2.018   3.703   2.432
48338SOL     OW46846   8.229   9.621   1.805
48338SOL    HW146847   8.185   9.543   1.770
48338SOL    HW246848   8.165   9.660   1.864
48339SOL     OW46849   5.577   0.686   6.357
48339SOL    HW146850   5.526   0.685   6.276
48339SOL    HW246851   5.511   0.677   6.426
48340SOL     OW46852  13.803  10.162   5.456
48340SOL    HW146853  13.785  10.211   5.537
48340SOL    HW246854  13.870  10.213   5.411
48341SOL     OW46855   8.060   1.652  12.786
48341SOL    HW146856   8.013   1.727  12.822
48341SOL    HW246857   8.149   1.684  12.772
48342SOL     OW46858   4.968   9.925   4.899
48342SOL    HW146859   4.900   9.889   4.956
48342SOL    HW246860   4.989  10.010   4.938
48343SOL     OW46861   4.068  10.816  13.340
48343SOL    HW146862   4.162  10.811  13.324
48343SOL    HW246863   4.027  10.793  13.256
48344SOL     OW46864   9.057   8.395  13.139
48344SOL    HW146865   9.116   8.330  13.101
48344SOL    HW246866   9.093   8.411  13.227
48345SOL     OW46867   7.069  12.786   6.333
48345SOL    HW146868   7.046  12.772   6.425
48345SOL    HW246869   7.141  12.725   6.317
48346SOL     OW46870   9.916  13.654   7.293
48346SOL    HW146871   9.941  13.746   7.285
48346SOL    HW246872   9.846  13.643   7.228
48347SOL     OW46873   5.703   0.798   1.073
48347SOL    HW146874   5.634   0.776   1.010
48347SOL    HW246875   5.772   0.733   1.056
48348SOL     OW46876  11.232   5.580  10.967
48348SOL    HW146877  11.249   5.486  10.970
48348SOL    HW246878  11.319   5.620  10.969
48349SOL     OW46879  13.793   5.195   9.840
48349SOL    HW146880  13.821   5.255   9.771
48349SOL    HW246881  13.862   5.200   9.906
48350SOL     OW46882   3.786  10.171   0.401
48350SOL    HW146883   3.788  10.230   0.477
48350SOL    HW246884   3.817  10.225   0.328
48351SOL     OW46885   5.998   4.057   0.414
48351SOL    HW146886   5.939   3.987   0.386
48351SOL    HW246887   5.940   4.131   0.431
48352SOL     OW46888   6.626  11.600   2.122
48352SOL    HW146889   6.719  11.600   2.097
48352SOL    HW246890   6.580  11.631   2.044
48353SOL     OW46891  11.495   7.101  10.922
48353SOL    HW146892  11.588   7.099  10.896
48353SOL    HW246893  11.448   7.079  10.842
48354SOL     OW46894  11.100  11.922   5.564
48354SOL    HW146895  11.149  11.903   5.484
48354SOL    HW246896  11.059  12.007   5.547
48355SOL     OW46897   3.448   1.315  14.829
48355SOL    HW146898   3.415   1.364   0.026
48355SOL    HW246899   3.417   1.226  14.842
48356SOL     OW46900  11.248   0.231   4.077
48356SOL    HW146901  11.212   0.281   4.151
48356SOL    HW246902  11.318   0.179   4.116
48357SOL     OW46903   6.726   9.092   5.460
48357SOL    HW146904   6.759   9.179   5.481
48357SOL    HW246905   6.695   9.098   5.370
48358SOL     OW46906  14.765  11.969   0.542
48358SOL    HW146907  14.673  11.996   0.535
48358SOL    HW246908  14.761  11.873   0.548
48359SOL     OW46909  12.218  10.027  14.004
48359SOL    HW146910  12.195  10.082  14.079
48359SOL    HW246911  12.264  10.085  13.945
48360SOL     OW46912  13.953   0.540   8.224
48360SOL    HW146913  13.963   0.505   8.313
48360SOL    HW246914  14.042   0.537   8.188
48361SOL     OW46915   5.769   9.653   9.440
48361SOL    HW146916   5.752   9.666   9.347
48361SOL    HW246917   5.783   9.741   9.474
48362SOL     OW46918  11.043  13.535   6.025
48362SOL    HW146919  11.029  13.605   5.961
48362SOL    HW246920  11.121  13.490   5.994
48363SOL     OW46921  14.137  13.585  14.639
48363SOL    HW146922  14.106  13.670  14.670
48363SOL    HW246923  14.202  13.559  14.704
48364SOL     OW46924   9.430  14.847   5.408
48364SOL    HW146925   9.402  14.756   5.396
48364SOL    HW246926   9.359   0.009   5.457
48365SOL     OW46927  12.662  10.339   7.499
48365SOL    HW146928  12.724  10.333   7.426
48365SOL    HW246929  12.717  10.335   7.578
48366SOL     OW46930   0.471  12.319  12.508
48366SOL    HW146931   0.404  12.264  12.549
48366SOL    HW246932   0.503  12.375  12.579
48367SOL     OW46933   2.274   8.304   4.230
48367SOL    HW146934   2.308   8.390   4.255
48367SOL    HW246935   2.256   8.260   4.313
48368SOL     OW46936   4.227  10.308   2.717
48368SOL    HW146937   4.152  10.265   2.677
48368SOL    HW246938   4.284  10.236   2.745
48369SOL     OW46939   7.292   4.779   6.234
48369SOL    HW146940   7.264   4.729   6.310
48369SOL    HW246941   7.372   4.734   6.205
48370SOL     OW46942   7.399  12.178   2.194
48370SOL    HW146943   7.472  12.172   2.133
48370SOL    HW246944   7.439  12.195   2.279
48371SOL     OW46945  10.364   1.508  14.206
48371SOL    HW146946  10.306   1.462  14.268
48371SOL    HW246947  10.404   1.578  14.259
48372SOL     OW46948   7.780   6.962   2.610
48372SOL    HW146949   7.759   6.911   2.688
48372SOL    HW246950   7.833   6.903   2.557
48373SOL     OW46951   0.144   4.901   3.217
48373SOL    HW146952   0.067   4.955   3.202
48373SOL    HW246953   0.113   4.827   3.270
48374SOL     OW46954  12.964  12.805   2.457
48374SOL    HW146955  12.940  12.735   2.518
48374SOL    HW246956  13.025  12.860   2.507
48375SOL     OW46957   4.608   2.078   2.520
48375SOL    HW146958   4.597   1.991   2.483
48375SOL    HW246959   4.659   2.126   2.455
48376SOL     OW46960  12.148   1.824  12.852
48376SOL    HW146961  12.138   1.841  12.758
48376SOL    HW246962  12.141   1.729  12.860
48377SOL     OW46963   0.027   3.806   6.525
48377SOL    HW146964   0.056   3.716   6.541
48377SOL    HW246965   0.100   3.846   6.478
48378SOL     OW46966   9.801  11.078   2.865
48378SOL    HW146967   9.781  11.020   2.791
48378SOL    HW246968   9.777  11.165   2.835
48379SOL     OW46969   8.875   6.239  11.402
48379SOL    HW146970   8.932   6.162  11.410
48379SOL    HW246971   8.851   6.241  11.310
48380SOL     OW46972   0.752  12.706   8.212
48380SOL    HW146973   0.833  12.665   8.183
48380SOL    HW246974   0.766  12.723   8.305
48381SOL     OW46975   3.273   0.754  10.904
48381SOL    HW146976   3.233   0.838  10.884
48381SOL    HW246977   3.224   0.691  10.851
48382SOL     OW46978  11.665   0.379   0.272
48382SOL    HW146979  11.731   0.321   0.233
48382SOL    HW246980  11.697   0.396   0.360
48383SOL     OW46981   6.059   2.020   1.120
48383SOL    HW146982   6.040   1.959   1.049
48383SOL    HW246983   6.126   1.977   1.172
48384SOL     OW46984   5.267  10.801   2.194
48384SOL    HW146985   5.225  10.885   2.214
48384SOL    HW246986   5.201  10.735   2.217
48385SOL     OW46987  11.046  13.039   2.720
48385SOL    HW146988  10.976  13.029   2.784
48385SOL    HW246989  11.126  13.049   2.773
48386SOL     OW46990   7.068   8.933  13.691
48386SOL    HW146991   7.044   9.017  13.652
48386SOL    HW246992   7.100   8.880  13.619
48387SOL     OW46993  10.992   9.999   3.842
48387SOL    HW146994  11.083   9.972   3.849
48387SOL    HW246995  10.984  10.072   3.903
48388SOL     OW46996   1.040  12.413   7.090
48388SOL    HW146997   1.001  12.327   7.103
48388SOL    HW246998   1.090  12.430   7.170
48389SOL     OW46999  13.362  10.401   0.913
48389SOL    HW147000  13.437  10.439   0.867
48389SOL    HW247001  13.307  10.477   0.935
48390SOL     OW47002   9.575   8.704  13.550
48390SOL    HW147003   9.586   8.653  13.469
48390SOL    HW247004   9.482   8.695  13.571
48391SOL     OW47005  12.689  10.961   9.939
48391SOL    HW147006  12.712  10.891  10.000
48391SOL    HW247007  12.593  10.961   9.937
48392SOL     OW47008   2.161   6.477  13.403
48392SOL    HW147009   2.085   6.421  13.420
48392SOL    HW247010   2.208   6.432  13.333
48393SOL     OW47011   5.742  12.008   2.055
48393SOL    HW147012   5.725  11.933   2.111
48393SOL    HW247013   5.681  11.998   1.981
48394SOL     OW47014   7.388   1.775   0.460
48394SOL    HW147015   7.420   1.800   0.373
48394SOL    HW247016   7.305   1.731   0.443
48395SOL     OW47017   1.689  11.521   9.486
48395SOL    HW147018   1.644  11.441   9.458
48395SOL    HW247019   1.781  11.495   9.492
48396SOL     OW47020  14.697   0.657  10.709
48396SOL    HW147021  14.612   0.688  10.677
48396SOL    HW247022  14.753   0.735  10.707
48397SOL     OW47023   6.484  11.718  10.817
48397SOL    HW147024   6.465  11.770  10.739
48397SOL    HW247025   6.553  11.767  10.862
48398SOL     OW47026   1.854  13.120   3.434
48398SOL    HW147027   1.779  13.149   3.486
48398SOL    HW247028   1.901  13.060   3.490
48399SOL     OW47029   4.755  10.183   3.661
48399SOL    HW147030   4.803  10.247   3.713
48399SOL    HW247031   4.779  10.099   3.700
48400SOL     OW47032   2.630   4.246   3.748
48400SOL    HW147033   2.724   4.264   3.746
48400SOL    HW247034   2.623   4.151   3.758
48401SOL     OW47035   8.612  11.176   4.667
48401SOL    HW147036   8.705  11.198   4.663
48401SOL    HW247037   8.596  11.159   4.760
48402SOL     OW47038  11.933   8.402  14.750
48402SOL    HW147039  11.906   8.322  14.706
48402SOL    HW247040  11.970   8.373  14.833
48403SOL     OW47041   6.992   0.777  12.756
48403SOL    HW147042   7.052   0.716  12.798
48403SOL    HW247043   7.036   0.801  12.675
48404SOL     OW47044   5.758  13.691   2.135
48404SOL    HW147045   5.735  13.709   2.044
48404SOL    HW247046   5.719  13.763   2.184
48405SOL     OW47047   6.169   9.248   8.337
48405SOL    HW147048   6.237   9.264   8.271
48405SOL    HW247049   6.107   9.320   8.326
48406SOL     OW47050   8.772   6.634   1.627
48406SOL    HW147051   8.704   6.673   1.682
48406SOL    HW247052   8.822   6.578   1.686
48407SOL     OW47053  14.139  12.765   3.957
48407SOL    HW147054  14.213  12.709   3.981
48407SOL    HW247055  14.177  12.852   3.949
48408SOL     OW47056   6.902   9.437   6.792
48408SOL    HW147057   6.984   9.475   6.762
48408SOL    HW247058   6.898   9.460   6.885
48409SOL     OW47059   8.491   1.793  13.140
48409SOL    HW147060   8.568   1.769  13.088
48409SOL    HW247061   8.475   1.885  13.118
48410SOL     OW47062  14.783   4.484   0.417
48410SOL    HW147063  14.866   4.476   0.370
48410SOL    HW247064  14.724   4.423   0.372
48411SOL     OW47065   2.994   1.944  11.733
48411SOL    HW147066   2.999   1.849  11.725
48411SOL    HW247067   2.933   1.972  11.664
48412SOL     OW47068   0.934  13.897  13.279
48412SOL    HW147069   1.017  13.851  13.282
48412SOL    HW247070   0.943  13.968  13.343
48413SOL     OW47071   0.412   0.216   0.303
48413SOL    HW147072   0.382   0.290   0.250
48413SOL    HW247073   0.498   0.194   0.268
48414SOL     OW47074   4.993   4.795   5.043
48414SOL    HW147075   5.070   4.748   5.075
48414SOL    HW247076   4.949   4.825   5.123
48415SOL     OW47077   3.149   7.726  13.176
48415SOL    HW147078   3.244   7.739  13.175
48415SOL    HW247079   3.113   7.815  13.177
48416SOL     OW47080   4.808   7.697  11.438
48416SOL    HW147081   4.804   7.659  11.350
48416SOL    HW247082   4.887   7.751  11.437
48417SOL     OW47083   9.025   0.004  12.701
48417SOL    HW147084   8.972  14.803  12.703
48417SOL    HW247085   8.964   0.072  12.673
48418SOL     OW47086   7.059   9.635  10.358
48418SOL    HW147087   7.034   9.650  10.450
48418SOL    HW247088   7.093   9.546  10.357
48419SOL     OW47089   8.408   5.784   1.158
48419SOL    HW147090   8.471   5.815   1.093
48419SOL    HW247091   8.386   5.695   1.130
48420SOL     OW47092   4.135   3.822   8.386
48420SOL    HW147093   4.157   3.730   8.395
48420SOL    HW247094   4.040   3.824   8.379
48421SOL     OW47095   2.864   4.200   5.091
48421SOL    HW147096   2.852   4.224   5.183
48421SOL    HW247097   2.944   4.245   5.064
48422SOL     OW47098  12.105   6.215   0.909
48422SOL    HW147099  12.093   6.224   1.003
48422SOL    HW247100  12.017   6.222   0.872
48423SOL     OW47101  12.305  13.402   5.250
48423SOL    HW147102  12.301  13.437   5.339
48423SOL    HW247103  12.238  13.333   5.249
48424SOL     OW47104   6.869  14.174   3.790
48424SOL    HW147105   6.887  14.243   3.725
48424SOL    HW247106   6.834  14.221   3.866
48425SOL     OW47107   1.023  12.937   5.014
48425SOL    HW147108   0.967  12.985   5.075
48425SOL    HW247109   1.019  12.846   5.044
48426SOL     OW47110   9.140  12.594   4.034
48426SOL    HW147111   9.203  12.602   4.106
48426SOL    HW247112   9.082  12.670   4.043
48427SOL     OW47113  12.571   9.629  14.781
48427SOL    HW147114  12.543   9.591  14.865
48427SOL    HW247115  12.570   9.724  14.797
48428SOL     OW47116   3.819   0.393   1.138
48428SOL    HW147117   3.865   0.441   1.069
48428SOL    HW247118   3.728   0.422   1.131
48429SOL     OW47119   3.896  12.408   7.226
48429SOL    HW147120   3.811  12.383   7.188
48429SOL    HW247121   3.897  12.365   7.312
48430SOL     OW47122   5.152   7.744  14.246
48430SOL    HW147123   5.069   7.788  14.262
48430SOL    HW247124   5.201   7.803  14.189
48431SOL     OW47125   4.009   4.731  11.973
48431SOL    HW147126   4.079   4.713  12.035
48431SOL    HW247127   3.988   4.645  11.935
48432SOL     OW47128   2.249   5.109  12.577
48432SOL    HW147129   2.237   5.204  12.566
48432SOL    HW247130   2.343   5.098  12.589
48433SOL     OW47131  14.379  14.750   7.952
48433SOL    HW147132  14.290  14.771   7.925
48433SOL    HW247133  14.382  14.654   7.952
48434SOL     OW47134  10.691   5.511  12.940
48434SOL    HW147135  10.692   5.503  13.035
48434SOL    HW247136  10.614   5.461  12.913
48435SOL     OW47137   4.745   3.136  13.893
48435SOL    HW147138   4.682   3.181  13.837
48435SOL    HW247139   4.757   3.194  13.967
48436SOL     OW47140   7.969  12.998   3.028
48436SOL    HW147141   8.050  12.947   3.026
48436SOL    HW247142   7.919  12.962   3.101
48437SOL     OW47143   2.701  14.706   3.921
48437SOL    HW147144   2.667  14.742   3.839
48437SOL    HW247145   2.790  14.740   3.926
48438SOL     OW47146   3.473   4.635  13.593
48438SOL    HW147147   3.524   4.661  13.670
48438SOL    HW247148   3.429   4.554  13.620
48439SOL     OW47149  13.121   1.075   6.631
48439SOL    HW147150  13.148   1.153   6.679
48439SOL    HW247151  13.167   1.003   6.674
48440SOL     OW47152   1.791   7.664   1.606
48440SOL    HW147153   1.840   7.746   1.609
48440SOL    HW247154   1.829   7.616   1.532
48441SOL     OW47155  10.440  11.813   4.459
48441SOL    HW147156  10.417  11.892   4.508
48441SOL    HW247157  10.383  11.745   4.495
48442SOL     OW47158   8.122  10.859   9.795
48442SOL    HW147159   8.178  10.831   9.723
48442SOL    HW247160   8.184  10.899   9.858
48443SOL     OW47161   0.213   3.072  10.881
48443SOL    HW147162   0.192   3.064  10.788
48443SOL    HW247163   0.133   3.043  10.925
48444SOL     OW47164   8.493  10.821   3.359
48444SOL    HW147165   8.553  10.748   3.342
48444SOL    HW247166   8.510  10.845   3.450
48445SOL     OW47167   8.139   8.913   8.788
48445SOL    HW147168   8.062   8.910   8.845
48445SOL    HW247169   8.212   8.921   8.849
48446SOL     OW47170   2.398  13.864  12.313
48446SOL    HW147171   2.370  13.819  12.392
48446SOL    HW247172   2.317  13.888  12.268
48447SOL     OW47173   7.234  10.886   3.410
48447SOL    HW147174   7.311  10.942   3.417
48447SOL    HW247175   7.220  10.877   3.315
48448SOL     OW47176  11.579   5.552  13.228
48448SOL    HW147177  11.604   5.509  13.310
48448SOL    HW247178  11.577   5.481  13.164
48449SOL     OW47179   5.888   2.443   7.133
48449SOL    HW147180   5.854   2.440   7.044
48449SOL    HW247181   5.859   2.361   7.173
48450SOL     OW47182   8.318   3.802  12.921
48450SOL    HW147183   8.385   3.867  12.943
48450SOL    HW247184   8.340   3.725  12.973
48451SOL     OW47185  14.180  12.489  11.820
48451SOL    HW147186  14.215  12.408  11.857
48451SOL    HW247187  14.124  12.524  11.889
48452SOL     OW47188   8.075   5.330   0.570
48452SOL    HW147189   8.129   5.376   0.505
48452SOL    HW247190   8.109   5.240   0.569
48453SOL     OW47191  14.319   0.669   7.424
48453SOL    HW147192  14.314   0.663   7.328
48453SOL    HW247193  14.271   0.748   7.446
48454SOL     OW47194   8.724   8.842   6.301
48454SOL    HW147195   8.653   8.778   6.293
48454SOL    HW247196   8.726   8.865   6.394
48455SOL     OW47197   3.966   2.799   5.966
48455SOL    HW147198   3.942   2.832   5.879
48455SOL    HW247199   3.956   2.704   5.960
48456SOL     OW47200  10.570   4.462   8.629
48456SOL    HW147201  10.486   4.458   8.674
48456SOL    HW247202  10.609   4.544   8.658
48457SOL     OW47203   7.990   4.812  13.627
48457SOL    HW147204   7.907   4.766  13.612
48457SOL    HW247205   8.039   4.799  13.545
48458SOL     OW47206   4.893   3.042   9.375
48458SOL    HW147207   4.978   3.019   9.415
48458SOL    HW247208   4.915   3.107   9.308
48459SOL     OW47209   0.444   9.628   0.241
48459SOL    HW147210   0.356   9.662   0.254
48459SOL    HW247211   0.501   9.702   0.265
48460SOL     OW47212   1.951   3.227   2.974
48460SOL    HW147213   1.901   3.300   3.009
48460SOL    HW247214   2.004   3.265   2.904
48461SOL     OW47215  14.870  12.395   9.665
48461SOL    HW147216  14.819  12.468   9.702
48461SOL    HW247217  14.803  12.335   9.630
48462SOL     OW47218   3.643   4.527   0.227
48462SOL    HW147219   3.736   4.506   0.214
48462SOL    HW247220   3.605   4.523   0.140
48463SOL     OW47221  10.275   9.444  14.632
48463SOL    HW147222  10.229   9.518  14.592
48463SOL    HW247223  10.215   9.370  14.622
48464SOL     OW47224   7.070   8.514   2.069
48464SOL    HW147225   7.091   8.452   2.139
48464SOL    HW247226   6.985   8.485   2.036
48465SOL     OW47227   7.321   6.096   3.864
48465SOL    HW147228   7.404   6.075   3.822
48465SOL    HW247229   7.331   6.187   3.893
48466SOL     OW47230   1.694   2.593  11.046
48466SOL    HW147231   1.653   2.679  11.054
48466SOL    HW247232   1.748   2.584  11.124
48467SOL     OW47233  14.167  14.109  13.942
48467SOL    HW147234  14.177  14.074  14.030
48467SOL    HW247235  14.257  14.119  13.910
48468SOL     OW47236  12.447   3.331   6.489
48468SOL    HW147237  12.501   3.408   6.470
48468SOL    HW247238  12.485   3.294   6.569
48469SOL     OW47239   4.567  10.973   4.007
48469SOL    HW147240   4.571  11.035   3.934
48469SOL    HW247241   4.525  10.895   3.970
48470SOL     OW47242  10.801   3.530   1.235
48470SOL    HW147243  10.877   3.489   1.193
48470SOL    HW247244  10.734   3.534   1.166
48471SOL     OW47245   7.871   1.234   7.355
48471SOL    HW147246   7.830   1.297   7.296
48471SOL    HW247247   7.850   1.149   7.318
48472SOL     OW47248   8.603   3.588  10.405
48472SOL    HW147249   8.648   3.670  10.426
48472SOL    HW247250   8.665   3.540  10.351
48473SOL     OW47251   2.844   3.047   5.007
48473SOL    HW147252   2.938   3.046   5.023
48473SOL    HW247253   2.809   2.972   5.056
48474SOL     OW47254   8.266   9.329   4.960
48474SOL    HW147255   8.227   9.324   5.047
48474SOL    HW247256   8.306   9.416   4.957
48475SOL     OW47257   6.584  14.517   1.661
48475SOL    HW147258   6.609  14.438   1.710
48475SOL    HW247259   6.500  14.495   1.621
48476SOL     OW47260   5.050   5.689  11.281
48476SOL    HW147261   5.073   5.762  11.339
48476SOL    HW247262   5.043   5.728  11.194
48477SOL     OW47263  14.170   6.190  14.207
48477SOL    HW147264  14.101   6.250  14.234
48477SOL    HW247265  14.225   6.179  14.285
48478SOL     OW47266  11.597   9.186   7.636
48478SOL    HW147267  11.611   9.098   7.670
48478SOL    HW247268  11.682   9.229   7.645
48479SOL     OW47269   7.180   4.647   3.561
48479SOL    HW147270   7.117   4.667   3.491
48479SOL    HW247271   7.145   4.693   3.638
48480SOL     OW47272   1.458   9.878   1.418
48480SOL    HW147273   1.433   9.871   1.326
48480SOL    HW247274   1.374   9.876   1.465
48481SOL     OW47275  12.347   3.025   7.195
48481SOL    HW147276  12.304   3.078   7.128
48481SOL    HW247277  12.355   3.083   7.271
48482SOL     OW47278   7.972   8.920   5.854
48482SOL    HW147279   8.024   8.844   5.882
48482SOL    HW247280   7.890   8.913   5.903
48483SOL     OW47281  13.714   9.978   3.714
48483SOL    HW147282  13.753   9.962   3.800
48483SOL    HW247283  13.656  10.053   3.727
48484SOL     OW47284   2.707   7.853  10.082
48484SOL    HW147285   2.775   7.859  10.149
48484SOL    HW247286   2.644   7.921  10.106
48485SOL     OW47287  14.468  11.569   1.369
48485SOL    HW147288  14.509  11.520   1.298
48485SOL    HW247289  14.420  11.640   1.324
48486SOL     OW47290   5.980   6.055  13.961
48486SOL    HW147291   6.047   5.993  13.989
48486SOL    HW247292   6.026   6.138  13.952
48487SOL     OW47293   8.014   8.994   9.880
48487SOL    HW147294   7.946   8.997   9.813
48487SOL    HW247295   7.966   8.985   9.962
48488SOL     OW47296   1.934  12.504   2.750
48488SOL    HW147297   1.934  12.500   2.846
48488SOL    HW247298   1.941  12.413   2.722
48489SOL     OW47299  13.221   6.649   1.907
48489SOL    HW147300  13.190   6.559   1.898
48489SOL    HW247301  13.291   6.657   1.843
48490SOL     OW47302   2.651   2.451  12.630
48490SOL    HW147303   2.662   2.459  12.725
48490SOL    HW247304   2.740   2.446  12.596
48491SOL     OW47305  11.780   6.924  14.142
48491SOL    HW147306  11.717   6.872  14.092
48491SOL    HW247307  11.865   6.890  14.114
48492SOL     OW47308   0.206   7.063  12.158
48492SOL    HW147309   0.265   7.129  12.193
48492SOL    HW247310   0.122   7.081  12.199
48493SOL     OW47311   7.014   5.885   4.602
48493SOL    HW147312   7.071   5.815   4.571
48493SOL    HW247313   7.070   5.963   4.607
48494SOL     OW47314   0.080   7.584   9.608
48494SOL    HW147315   0.077   7.639   9.686
48494SOL    HW247316   0.158   7.614   9.561
48495SOL     OW47317   3.052  14.315   1.199
48495SOL    HW147318   3.118  14.380   1.224
48495SOL    HW247319   2.973  14.342   1.247
48496SOL     OW47320   9.883   7.047  14.718
48496SOL    HW147321   9.794   7.079  14.702
48496SOL    HW247322   9.871   6.963  14.761
48497SOL     OW47323  11.858   0.702   4.816
48497SOL    HW147324  11.763   0.708   4.806
48497SOL    HW247325  11.872   0.623   4.868
48498SOL     OW47326  13.020  13.962   5.713
48498SOL    HW147327  12.950  14.019   5.681
48498SOL    HW247328  13.101  14.004   5.684
48499SOL     OW47329   3.426   0.457   7.044
48499SOL    HW147330   3.426   0.366   7.014
48499SOL    HW247331   3.404   0.452   7.137
48500SOL     OW47332   8.447   2.245   6.554
48500SOL    HW147333   8.506   2.246   6.629
48500SOL    HW247334   8.444   2.154   6.525
48501SOL     OW47335   2.248   3.214   7.982
48501SOL    HW147336   2.210   3.218   7.894
48501SOL    HW247337   2.236   3.123   8.009
48502SOL     OW47338   5.934   6.162   3.772
48502SOL    HW147339   5.953   6.091   3.834
48502SOL    HW247340   5.858   6.131   3.723
48503SOL     OW47341  11.115   2.065  12.975
48503SOL    HW147342  11.050   2.020  13.029
48503SOL    HW247343  11.069   2.142  12.942
48504SOL     OW47344   1.770   5.317  13.788
48504SOL    HW147345   1.747   5.406  13.760
48504SOL    HW247346   1.842   5.292  13.731
48505SOL     OW47347   8.269   5.055   3.299
48505SOL    HW147348   8.360   5.056   3.269
48505SOL    HW247349   8.222   5.008   3.230
48506SOL     OW47350  11.100   6.602  11.728
48506SOL    HW147351  11.022   6.548  11.719
48506SOL    HW247352  11.138   6.576  11.812
48507SOL     OW47353   0.954   9.144   3.606
48507SOL    HW147354   0.898   9.076   3.568
48507SOL    HW247355   0.901   9.223   3.603
48508SOL     OW47356   9.524   2.563   6.935
48508SOL    HW147357   9.445   2.579   6.986
48508SOL    HW247358   9.502   2.594   6.847
48509SOL     OW47359   9.368   6.560   1.333
48509SOL    HW147360   9.368   6.550   1.428
48509SOL    HW247361   9.298   6.502   1.303
48510SOL     OW47362  13.554   4.488  14.773
48510SOL    HW147363  13.580   4.580  14.776
48510SOL    HW247364  13.632   4.442  14.740
48511SOL     OW47365   1.220   2.525  12.561
48511SOL    HW147366   1.161   2.563  12.626
48511SOL    HW247367   1.284   2.594  12.542
48512SOL     OW47368   3.290   0.808   6.456
48512SOL    HW147369   3.384   0.826   6.458
48512SOL    HW247370   3.285   0.712   6.462
48513SOL     OW47371  11.441  11.944   0.589
48513SOL    HW147372  11.371  11.879   0.591
48513SOL    HW247373  11.403  12.021   0.632
48514SOL     OW47374  11.970   6.038   2.973
48514SOL    HW147375  11.914   6.106   2.935
48514SOL    HW247376  12.008   6.079   3.050
48515SOL     OW47377   1.770   4.417   5.332
48515SOL    HW147378   1.676   4.404   5.336
48515SOL    HW247379   1.784   4.471   5.253
48516SOL     OW47380  12.264  10.507   1.228
48516SOL    HW147381  12.293  10.562   1.155
48516SOL    HW247382  12.305  10.422   1.213
48517SOL     OW47383   4.571  13.220  10.068
48517SOL    HW147384   4.526  13.136  10.056
48517SOL    HW247385   4.662  13.201  10.046
48518SOL     OW47386   3.721  12.494   2.219
48518SOL    HW147387   3.634  12.518   2.187
48518SOL    HW247388   3.744  12.415   2.169
48519SOL     OW47389   9.450   2.958   1.004
48519SOL    HW147390   9.484   2.883   0.954
48519SOL    HW247391   9.517   3.025   0.995
48520SOL     OW47392  11.806   8.098   5.540
48520SOL    HW147393  11.808   8.191   5.517
48520SOL    HW247394  11.897   8.070   5.534
48521SOL     OW47395  10.449  10.185  12.939
48521SOL    HW147396  10.456  10.190  12.843
48521SOL    HW247397  10.529  10.140  12.966
48522SOL     OW47398   1.926   9.245   7.508
48522SOL    HW147399   1.922   9.237   7.603
48522SOL    HW247400   1.973   9.327   7.493
48523SOL     OW47401   5.329   4.658  13.203
48523SOL    HW147402   5.383   4.647  13.282
48523SOL    HW247403   5.387   4.702  13.141
48524SOL     OW47404   9.230  13.205  12.765
48524SOL    HW147405   9.186  13.122  12.745
48524SOL    HW247406   9.181  13.241  12.839
48525SOL     OW47407   3.615  11.677   9.921
48525SOL    HW147408   3.558  11.672   9.997
48525SOL    HW247409   3.600  11.595   9.874
48526SOL     OW47410  11.023  14.623   0.768
48526SOL    HW147411  10.940  14.670   0.759
48526SOL    HW247412  11.081  14.686   0.811
48527SOL     OW47413  12.295   9.499  13.195
48527SOL    HW147414  12.325   9.481  13.284
48527SOL    HW247415  12.373   9.526  13.147
48528SOL     OW47416   6.776   4.795  10.911
48528SOL    HW147417   6.871   4.793  10.897
48528SOL    HW247418   6.746   4.873  10.865
48529SOL     OW47419  12.020  10.896  13.406
48529SOL    HW147420  12.069  10.958  13.460
48529SOL    HW247421  11.930  10.928  13.408
48530SOL     OW47422   5.842   4.191   1.793
48530SOL    HW147423   5.930   4.225   1.814
48530SOL    HW247424   5.858   4.125   1.726
48531SOL     OW47425  12.610   8.396   0.162
48531SOL    HW147426  12.677   8.461   0.138
48531SOL    HW247427  12.573   8.428   0.244
48532SOL     OW47428   5.164   7.376  10.168
48532SOL    HW147429   5.209   7.444  10.217
48532SOL    HW247430   5.230   7.306  10.159
48533SOL     OW47431   4.916  12.618  14.116
48533SOL    HW147432   4.981  12.634  14.183
48533SOL    HW247433   4.905  12.523  14.115
48534SOL     OW47434   2.347  10.686   6.139
48534SOL    HW147435   2.369  10.748   6.069
48534SOL    HW247436   2.290  10.735   6.198
48535SOL     OW47437   8.480   9.620  11.000
48535SOL    HW147438   8.459   9.527  11.009
48535SOL    HW247439   8.575   9.624  10.998
48536SOL     OW47440  11.423   8.579   0.875
48536SOL    HW147441  11.497   8.523   0.852
48536SOL    HW247442  11.463   8.661   0.904
48537SOL     OW47443   5.258   1.577   1.976
48537SOL    HW147444   5.222   1.666   1.965
48537SOL    HW247445   5.192   1.531   2.028
48538SOL     OW47446   0.478  12.561  13.543
48538SOL    HW147447   0.454  12.647  13.575
48538SOL    HW247448   0.574  12.560  13.544
48539SOL     OW47449   1.072   1.994  14.621
48539SOL    HW147450   1.099   1.946  14.700
48539SOL    HW247451   0.992   1.950  14.592
48540SOL     OW47452   8.469  11.170   3.546
48540SOL    HW147453   8.513  11.091   3.577
48540SOL    HW247454   8.537  11.221   3.503
48541SOL     OW47455   0.480   6.552  11.613
48541SOL    HW147456   0.517   6.636  11.642
48541SOL    HW247457   0.471   6.501  11.693
48542SOL     OW47458  12.594   7.000   8.289
48542SOL    HW147459  12.613   6.926   8.232
48542SOL    HW247460  12.649   6.986   8.366
48543SOL     OW47461   5.362   7.595  11.217
48543SOL    HW147462   5.403   7.531  11.276
48543SOL    HW247463   5.429   7.615  11.153
48544SOL     OW47464   1.675  14.699   5.443
48544SOL    HW147465   1.606  14.632   5.448
48544SOL    HW247466   1.719  14.695   5.528
48545SOL     OW47467  14.060   2.025   8.220
48545SOL    HW147468  14.127   2.040   8.154
48545SOL    HW247469  14.108   2.023   8.303
48546SOL     OW47470   9.172  12.001   1.296
48546SOL    HW147471   9.125  11.976   1.217
48546SOL    HW247472   9.159  12.095   1.304
48547SOL     OW47473   8.797   4.838  13.907
48547SOL    HW147474   8.840   4.764  13.862
48547SOL    HW247475   8.712   4.846  13.863
48548SOL     OW47476  13.438  10.448   6.512
48548SOL    HW147477  13.476  10.413   6.593
48548SOL    HW247478  13.366  10.388   6.492
48549SOL     OW47479   3.257  13.415  12.621
48549SOL    HW147480   3.287  13.502  12.595
48549SOL    HW247481   3.161  13.422  12.622
48550SOL     OW47482   5.324  12.895  14.384
48550SOL    HW147483   5.250  12.946  14.417
48550SOL    HW247484   5.365  12.952  14.318
48551SOL     OW47485   6.689   7.508   2.539
48551SOL    HW147486   6.706   7.544   2.626
48551SOL    HW247487   6.602   7.543   2.516
48552SOL     OW47488   6.281   5.068   1.518
48552SOL    HW147489   6.225   5.078   1.440
48552SOL    HW247490   6.310   5.157   1.538
48553SOL     OW47491  14.206   4.982   3.379
48553SOL    HW147492  14.202   5.050   3.312
48553SOL    HW247493  14.114   4.958   3.394
48554SOL     OW47494  11.392   2.195   6.885
48554SOL    HW147495  11.469   2.162   6.930
48554SOL    HW247496  11.408   2.288   6.873
48555SOL     OW47497  12.123   7.100  11.090
48555SOL    HW147498  12.077   7.137  11.165
48555SOL    HW247499  12.061   7.038  11.052
48556SOL     OW47500   4.800  14.421   8.903
48556SOL    HW147501   4.802  14.350   8.839
48556SOL    HW247502   4.840  14.384   8.982
48557SOL     OW47503   3.540  12.519  12.695
48557SOL    HW147504   3.562  12.577  12.623
48557SOL    HW247505   3.486  12.572  12.754
48558SOL     OW47506   0.562   1.362   2.990
48558SOL    HW147507   0.553   1.268   3.002
48558SOL    HW247508   0.624   1.371   2.918
48559SOL     OW47509   1.351   4.194  10.385
48559SOL    HW147510   1.270   4.225  10.347
48559SOL    HW247511   1.333   4.104  10.412
48560SOL     OW47512  14.390   0.106  10.298
48560SOL    HW147513  14.456   0.099  10.367
48560SOL    HW247514  14.435   0.078  10.219
48561SOL     OW47515   6.804   2.952  11.775
48561SOL    HW147516   6.739   2.977  11.709
48561SOL    HW247517   6.769   2.987  11.857
48562SOL     OW47518   1.655  14.104   1.350
48562SOL    HW147519   1.620  14.179   1.301
48562SOL    HW247520   1.663  14.135   1.440
48563SOL     OW47521   5.040   0.052   6.315
48563SOL    HW147522   5.104  14.861   6.332
48563SOL    HW247523   4.971   0.009   6.265
48564SOL     OW47524   9.612   6.301  10.890
48564SOL    HW147525   9.588   6.270  10.802
48564SOL    HW247526   9.640   6.222  10.936
48565SOL     OW47527   7.729   1.179   4.426
48565SOL    HW147528   7.695   1.126   4.354
48565SOL    HW247529   7.711   1.269   4.400
48566SOL     OW47530   0.061   1.344   1.866
48566SOL    HW147531   0.047   1.300   1.950
48566SOL    HW247532   0.123   1.288   1.820
48567SOL     OW47533   8.599  12.402  12.943
48567SOL    HW147534   8.615  12.322  12.993
48567SOL    HW247535   8.687  12.437  12.925
48568SOL     OW47536   5.567   3.636   2.258
48568SOL    HW147537   5.492   3.692   2.280
48568SOL    HW247538   5.611   3.623   2.342
48569SOL     OW47539  14.159   4.168   4.291
48569SOL    HW147540  14.162   4.103   4.220
48569SOL    HW247541  14.073   4.158   4.330
48570SOL     OW47542   2.945  10.122   1.998
48570SOL    HW147543   2.878  10.190   2.011
48570SOL    HW247544   2.915  10.073   1.921
48571SOL     OW47545  12.080   4.340   8.380
48571SOL    HW147546  12.160   4.351   8.432
48571SOL    HW247547  12.025   4.281   8.432
48572SOL     OW47548   1.163   6.978   1.964
48572SOL    HW147549   1.247   7.024   1.960
48572SOL    HW247550   1.178   6.897   1.916
48573SOL     OW47551   9.872  13.463   8.947
48573SOL    HW147552   9.784  13.436   8.973
48573SOL    HW247553   9.903  13.516   9.021
48574SOL     OW47554   0.490   1.650  14.507
48574SOL    HW147555   0.430   1.576  14.507
48574SOL    HW247556   0.566   1.619  14.457
48575SOL     OW47557   5.014  13.720   9.542
48575SOL    HW147558   5.077  13.714   9.469
48575SOL    HW247559   4.955  13.646   9.529
48576SOL     OW47560   1.231   5.979  12.342
48576SOL    HW147561   1.288   6.046  12.380
48576SOL    HW247562   1.291   5.911  12.310
48577SOL     OW47563   2.018   6.359   6.863
48577SOL    HW147564   2.080   6.335   6.932
48577SOL    HW247565   2.020   6.455   6.862
48578SOL     OW47566   0.307   0.571   5.440
48578SOL    HW147567   0.334   0.513   5.368
48578SOL    HW247568   0.227   0.532   5.473
48579SOL     OW47569   0.526   0.291   1.062
48579SOL    HW147570   0.580   0.353   1.112
48579SOL    HW247571   0.589   0.236   1.016
48580SOL     OW47572  13.650  10.759   9.956
48580SOL    HW147573  13.573  10.781  10.009
48580SOL    HW247574  13.676  10.843   9.916
48581SOL     OW47575   1.062  13.407  10.799
48581SOL    HW147576   1.023  13.490  10.772
48581SOL    HW247577   1.043  13.401  10.892
48582SOL     OW47578  14.561  14.474  12.078
48582SOL    HW147579  14.650  14.495  12.048
48582SOL    HW247580  14.548  14.383  12.051
48583SOL     OW47581   0.227  13.957   6.067
48583SOL    HW147582   0.164  13.905   6.118
48583SOL    HW247583   0.242  13.905   5.988
48584SOL     OW47584   7.599  13.265   2.786
48584SOL    HW147585   7.617  13.173   2.764
48584SOL    HW247586   7.669  13.289   2.846
48585SOL     OW47587  12.704  12.149   4.850
48585SOL    HW147588  12.702  12.213   4.921
48585SOL    HW247589  12.774  12.179   4.792
48586SOL     OW47590   9.348   3.153   1.494
48586SOL    HW147591   9.367   3.063   1.520
48586SOL    HW247592   9.373   3.205   1.570
48587SOL     OW47593   6.187   5.634   2.313
48587SOL    HW147594   6.259   5.591   2.267
48587SOL    HW247595   6.143   5.562   2.359
48588SOL     OW47596  14.760   6.474   2.630
48588SOL    HW147597  14.824   6.487   2.560
48588SOL    HW247598  14.813   6.476   2.710
48589SOL     OW47599   6.411  12.911   5.767
48589SOL    HW147600   6.427  12.927   5.860
48589SOL    HW247601   6.468  12.837   5.745
48590SOL     OW47602  12.550   5.417   9.459
48590SOL    HW147603  12.496   5.412   9.380
48590SOL    HW247604  12.575   5.510   9.465
48591SOL     OW47605  14.232  10.576   4.247
48591SOL    HW147606  14.209  10.553   4.157
48591SOL    HW247607  14.255  10.493   4.288
48592SOL     OW47608   5.996   7.175   3.798
48592SOL    HW147609   6.081   7.139   3.775
48592SOL    HW247610   5.952   7.105   3.847
48593SOL     OW47611   4.745  13.876  10.069
48593SOL    HW147612   4.815  13.937  10.042
48593SOL    HW247613   4.673  13.933  10.093
48594SOL     OW47614   9.226   7.671   3.217
48594SOL    HW147615   9.169   7.596   3.232
48594SOL    HW247616   9.176   7.747   3.246
48595SOL     OW47617   1.734   2.393  13.508
48595SOL    HW147618   1.740   2.323  13.573
48595SOL    HW247619   1.807   2.377  13.449
48596SOL     OW47620   7.298   3.160  12.207
48596SOL    HW147621   7.326   3.238  12.256
48596SOL    HW247622   7.310   3.088  12.269
48597SOL     OW47623   3.214   6.528   7.274
48597SOL    HW147624   3.146   6.546   7.209
48597SOL    HW247625   3.171   6.472   7.339
48598SOL     OW47626   3.207  12.477   9.648
48598SOL    HW147627   3.287  12.434   9.617
48598SOL    HW247628   3.238  12.559   9.687
48599SOL     OW47629   4.403   5.061   6.398
48599SOL    HW147630   4.420   5.029   6.309
48599SOL    HW247631   4.486   5.101   6.426
48600SOL     OW47632   1.231  10.735  11.676
48600SOL    HW147633   1.258  10.752  11.586
48600SOL    HW247634   1.140  10.765  11.680
48601SOL     OW47635   8.808   5.508   9.669
48601SOL    HW147636   8.818   5.590   9.718
48601SOL    HW247637   8.822   5.439   9.734
48602SOL     OW47638  13.420   1.082   6.448
48602SOL    HW147639  13.343   1.072   6.393
48602SOL    HW247640  13.447   1.173   6.437
48603SOL     OW47641   6.637  11.940   5.997
48603SOL    HW147642   6.687  11.887   5.935
48603SOL    HW247643   6.616  12.020   5.949
48604SOL     OW47644   5.363   4.405  13.861
48604SOL    HW147645   5.330   4.394  13.771
48604SOL    HW247646   5.292   4.373  13.917
48605SOL     OW47647   9.556  11.067  14.123
48605SOL    HW147648   9.552  10.979  14.158
48605SOL    HW247649   9.650  11.085  14.114
48606SOL     OW47650   8.041   6.974  11.503
48606SOL    HW147651   7.976   7.043  11.519
48606SOL    HW247652   8.073   6.951  11.590
48607SOL     OW47653  12.034  13.746  12.161
48607SOL    HW147654  11.988  13.828  12.181
48607SOL    HW247655  12.118  13.753  12.207
48608SOL     OW47656  14.288   7.111  12.147
48608SOL    HW147657  14.313   7.022  12.172
48608SOL    HW247658  14.210   7.130  12.200
48609SOL     OW47659  11.455  12.054   4.632
48609SOL    HW147660  11.387  12.114   4.662
48609SOL    HW247661  11.531  12.110   4.614
48610SOL     OW47662  12.143   0.416   2.959
48610SOL    HW147663  12.147   0.333   2.911
48610SOL    HW247664  12.225   0.460   2.937
48611SOL     OW47665   6.391  13.575   4.616
48611SOL    HW147666   6.324  13.537   4.559
48611SOL    HW247667   6.459  13.508   4.621
48612SOL     OW47668  12.843   1.505   9.336
48612SOL    HW147669  12.860   1.454   9.257
48612SOL    HW247670  12.921   1.560   9.345
48613SOL     OW47671   8.365   0.251   0.668
48613SOL    HW147672   8.385   0.269   0.576
48613SOL    HW247673   8.439   0.199   0.700
48614SOL     OW47674   2.698  12.389  13.096
48614SOL    HW147675   2.699  12.469  13.043
48614SOL    HW247676   2.784  12.386  13.137
48615SOL     OW47677   0.760   2.468   7.422
48615SOL    HW147678   0.856   2.467   7.419
48615SOL    HW247679   0.735   2.376   7.426
48616SOL     OW47680  12.309  13.697  10.111
48616SOL    HW147681  12.328  13.625  10.171
48616SOL    HW247682  12.316  13.776  10.166
48617SOL     OW47683  12.993   1.896  13.172
48617SOL    HW147684  13.050   1.822  13.195
48617SOL    HW247685  12.915   1.855  13.134
48618SOL     OW47686   2.645   9.328  11.332
48618SOL    HW147687   2.735   9.314  11.364
48618SOL    HW247688   2.611   9.239  11.319
48619SOL     OW47689   4.775   1.247   6.407
48619SOL    HW147690   4.858   1.266   6.451
48619SOL    HW247691   4.708   1.272   6.471
48620SOL     OW47692   8.238   4.638   6.525
48620SOL    HW147693   8.165   4.622   6.586
48620SOL    HW247694   8.264   4.729   6.542
48621SOL     OW47695   0.484   5.734  13.885
48621SOL    HW147696   0.400   5.690  13.892
48621SOL    HW247697   0.517   5.712  13.798
48622SOL     OW47698   6.154   4.144  11.651
48622SOL    HW147699   6.132   4.054  11.673
48622SOL    HW247700   6.245   4.139  11.620
48623SOL     OW47701   6.004   1.664   5.912
48623SOL    HW147702   5.991   1.625   5.999
48623SOL    HW247703   5.929   1.635   5.861
48624SOL     OW47704   2.824   1.728   2.963
48624SOL    HW147705   2.903   1.780   2.977
48624SOL    HW247706   2.760   1.764   3.024
48625SOL     OW47707   6.518  13.128  11.776
48625SOL    HW147708   6.438  13.077  11.763
48625SOL    HW247709   6.502  13.177  11.857
48626SOL     OW47710   6.710   8.137   7.234
48626SOL    HW147711   6.711   8.153   7.140
48626SOL    HW247712   6.756   8.212   7.272
48627SOL     OW47713   0.668   2.032   5.674
48627SOL    HW147714   0.735   2.069   5.617
48627SOL    HW247715   0.670   2.086   5.753
48628SOL     OW47716   0.185   7.744   9.807
48628SOL    HW147717   0.275   7.735   9.838
48628SOL    HW247718   0.131   7.726   9.885
48629SOL     OW47719   8.379   5.854   2.800
48629SOL    HW147720   8.386   5.832   2.893
48629SOL    HW247721   8.304   5.912   2.795
48630SOL     OW47722   8.092  10.349   7.690
48630SOL    HW147723   8.177  10.392   7.682
48630SOL    HW247724   8.110  10.266   7.733
48631SOL     OW47725   9.107  10.228   3.953
48631SOL    HW147726   9.162  10.292   3.999
48631SOL    HW247727   9.149  10.144   3.972
48632SOL     OW47728   7.280  10.833   6.204
48632SOL    HW147729   7.316  10.851   6.291
48632SOL    HW247730   7.298  10.740   6.189
48633SOL     OW47731  11.181   9.242   5.603
48633SOL    HW147732  11.191   9.205   5.691
48633SOL    HW247733  11.179   9.337   5.617
48634SOL     OW47734  14.502   6.828   1.533
48634SOL    HW147735  14.445   6.849   1.607
48634SOL    HW247736  14.498   6.905   1.477
48635SOL     OW47737   1.316   3.761   1.122
48635SOL    HW147738   1.295   3.668   1.126
48635SOL    HW247739   1.345   3.783   1.211
48636SOL     OW47740  12.035   6.532   3.505
48636SOL    HW147741  12.019   6.614   3.459
48636SOL    HW247742  12.129   6.517   3.497
48637SOL     OW47743   2.006   4.957   4.874
48637SOL    HW147744   1.956   5.030   4.837
48637SOL    HW247745   2.040   4.991   4.957
48638SOL     OW47746   5.452   6.181  10.713
48638SOL    HW147747   5.436   6.089  10.693
48638SOL    HW247748   5.497   6.215  10.636
48639SOL     OW47749   0.592   9.200   5.721
48639SOL    HW147750   0.614   9.222   5.630
48639SOL    HW247751   0.496   9.192   5.720
48640SOL     OW47752   3.523  12.742   8.669
48640SOL    HW147753   3.523  12.836   8.690
48640SOL    HW247754   3.614  12.715   8.681
48641SOL     OW47755   2.554  12.728   1.511
48641SOL    HW147756   2.641  12.700   1.484
48641SOL    HW247757   2.500  12.649   1.501
48642SOL     OW47758   0.152   2.654  13.467
48642SOL    HW147759   0.060   2.634  13.483
48642SOL    HW247760   0.192   2.655  13.554
48643SOL     OW47761   4.698  10.570   7.813
48643SOL    HW147762   4.694  10.523   7.896
48643SOL    HW247763   4.738  10.655   7.834
48644SOL     OW47764   4.052  13.027   3.099
48644SOL    HW147765   4.034  12.993   3.186
48644SOL    HW247766   4.141  12.997   3.079
48645SOL     OW47767   0.803  11.456  14.305
48645SOL    HW147768   0.803  11.416  14.218
48645SOL    HW247769   0.710  11.459  14.328
48646SOL     OW47770   9.335  13.659   4.280
48646SOL    HW147771   9.312  13.752   4.269
48646SOL    HW247772   9.298  13.616   4.202
48647SOL     OW47773  12.962   8.907   2.977
48647SOL    HW147774  12.868   8.915   2.964
48647SOL    HW247775  12.979   8.813   2.980
48648SOL     OW47776   6.473   8.138   1.243
48648SOL    HW147777   6.478   8.044   1.259
48648SOL    HW247778   6.564   8.165   1.230
48649SOL     OW47779  11.625   7.979  14.204
48649SOL    HW147780  11.548   8.022  14.166
48649SOL    HW247781  11.687   8.050  14.220
48650SOL     OW47782   2.210   3.333  11.072
48650SOL    HW147783   2.131   3.386  11.084
48650SOL    HW247784   2.176   3.246  11.049
48651SOL     OW47785   1.612   2.351  13.867
48651SOL    HW147786   1.582   2.336  13.778
48651SOL    HW247787   1.620   2.264  13.905
48652SOL     OW47788  14.420   8.803   2.028
48652SOL    HW147789  14.336   8.765   2.004
48652SOL    HW247790  14.454   8.745   2.097
48653SOL     OW47791   4.347  14.035   9.397
48653SOL    HW147792   4.315  14.039   9.307
48653SOL    HW247793   4.389  13.950   9.404
48654SOL     OW47794   6.884   5.449  14.731
48654SOL    HW147795   6.940   5.526  14.722
48654SOL    HW247796   6.900   5.418  14.820
48655SOL     OW47797   2.330   4.004   3.726
48655SOL    HW147798   2.259   4.064   3.747
48655SOL    HW247799   2.385   4.051   3.663
48656SOL     OW47800   6.881   0.643  12.376
48656SOL    HW147801   6.905   0.625  12.285
48656SOL    HW247802   6.960   0.677  12.416
48657SOL     OW47803   4.453   2.957   6.617
48657SOL    HW147804   4.382   2.899   6.592
48657SOL    HW247805   4.466   3.014   6.541
48658SOL     OW47806   9.180   2.825   3.395
48658SOL    HW147807   9.102   2.831   3.450
48658SOL    HW247808   9.183   2.909   3.349
48659SOL     OW47809  13.147   5.227  13.939
48659SOL    HW147810  13.189   5.281  13.872
48659SOL    HW247811  13.053   5.233  13.919
48660SOL     OW47812   8.777  12.474   8.024
48660SOL    HW147813   8.808  12.418   8.095
48660SOL    HW247814   8.791  12.563   8.055
48661SOL     OW47815   4.407  12.575   1.465
48661SOL    HW147816   4.375  12.622   1.389
48661SOL    HW247817   4.500  12.561   1.448
48662SOL     OW47818  14.471  13.319  10.682
48662SOL    HW147819  14.444  13.349  10.596
48662SOL    HW247820  14.425  13.377  10.743
48663SOL     OW47821   6.571   2.276  14.071
48663SOL    HW147822   6.545   2.368  14.067
48663SOL    HW247823   6.523   2.234  13.999
48664SOL     OW47824   6.178   9.380  10.323
48664SOL    HW147825   6.152   9.332  10.402
48664SOL    HW247826   6.229   9.317  10.272
48665SOL     OW47827   8.955  13.630   1.371
48665SOL    HW147828   8.901  13.665   1.300
48665SOL    HW247829   9.012  13.567   1.328
48666SOL     OW47830  13.222   6.429   3.364
48666SOL    HW147831  13.316   6.409   3.367
48666SOL    HW247832  13.190   6.385   3.285
48667SOL     OW47833   2.347   0.386   5.281
48667SOL    HW147834   2.363   0.466   5.331
48667SOL    HW247835   2.362   0.315   5.343
48668SOL     OW47836   2.958   5.548  12.766
48668SOL    HW147837   2.939   5.630  12.812
48668SOL    HW247838   2.931   5.480  12.828
48669SOL     OW47839  14.366   0.197   7.721
48669SOL    HW147840  14.335   0.267   7.778
48669SOL    HW247841  14.444   0.163   7.764
48670SOL     OW47842  13.752  13.769  13.116
48670SOL    HW147843  13.811  13.772  13.192
48670SOL    HW247844  13.807  13.798  13.043
48671SOL     OW47845  11.717  13.122   0.425
48671SOL    HW147846  11.764  13.199   0.394
48671SOL    HW247847  11.625  13.142   0.407
48672SOL     OW47848   9.873   0.248  13.956
48672SOL    HW147849   9.812   0.228  13.885
48672SOL    HW247850   9.960   0.236  13.917
48673SOL     OW47851   9.925   9.694  10.315
48673SOL    HW147852   9.874   9.619  10.287
48673SOL    HW247853   9.960   9.732  10.234
48674SOL     OW47854  14.008   4.210   1.590
48674SOL    HW147855  13.969   4.279   1.644
48674SOL    HW247856  13.934   4.176   1.539
48675SOL     OW47857  12.201   5.862   1.887
48675SOL    HW147858  12.139   5.879   1.959
48675SOL    HW247859  12.215   5.948   1.848
48676SOL     OW47860  11.161   5.542  13.909
48676SOL    HW147861  11.203   5.589  13.981
48676SOL    HW247862  11.097   5.604  13.874
48677SOL     OW47863   9.854   6.475  12.456
48677SOL    HW147864   9.889   6.388  12.438
48677SOL    HW247865   9.924   6.520  12.503
48678SOL     OW47866   0.322   2.185  12.676
48678SOL    HW147867   0.415   2.173  12.656
48678SOL    HW247868   0.321   2.247  12.748
48679SOL     OW47869   3.699  14.861   5.476
48679SOL    HW147870   3.619  14.815   5.500
48679SOL    HW247871   3.669   0.053   5.419
48680SOL     OW47872  11.726   9.780  13.611
48680SOL    HW147873  11.799   9.802  13.669
48680SOL    HW247874  11.766   9.773  13.524
48681SOL     OW47875  11.748   0.008   1.208
48681SOL    HW147876  11.795   0.068   1.265
48681SOL    HW247877  11.805  14.876   1.132
48682SOL     OW47878  10.716   2.569   2.151
48682SOL    HW147879  10.689   2.534   2.235
48682SOL    HW247880  10.634   2.596   2.109
48683SOL     OW47881   3.089   6.848   2.250
48683SOL    HW147882   3.089   6.787   2.176
48683SOL    HW247883   3.104   6.792   2.327
48684SOL     OW47884   9.693   0.761   7.130
48684SOL    HW147885   9.779   0.741   7.095
48684SOL    HW247886   9.709   0.819   7.205
48685SOL     OW47887  10.178   7.391   5.040
48685SOL    HW147888  10.243   7.322   5.051
48685SOL    HW247889  10.178   7.409   4.947
48686SOL     OW47890  12.664  11.858   6.015
48686SOL    HW147891  12.571  11.838   6.018
48686SOL    HW247892  12.682  11.875   5.922
48687SOL     OW47893  13.014  13.179   7.030
48687SOL    HW147894  13.026  13.167   6.936
48687SOL    HW247895  13.000  13.090   7.064
48688SOL     OW47896   3.694  14.520   9.749
48688SOL    HW147897   3.629  14.513   9.819
48688SOL    HW247898   3.644  14.546   9.672
48689SOL     OW47899   1.493   8.736   4.192
48689SOL    HW147900   1.564   8.761   4.251
48689SOL    HW247901   1.526   8.657   4.148
48690SOL     OW47902   2.274   9.904   4.197
48690SOL    HW147903   2.203   9.947   4.244
48690SOL    HW247904   2.333   9.873   4.266
48691SOL     OW47905  10.412  14.452   3.651
48691SOL    HW147906  10.409  14.394   3.727
48691SOL    HW247907  10.400  14.540   3.687
48692SOL     OW47908   1.156   3.640  14.407
48692SOL    HW147909   1.173   3.615  14.316
48692SOL    HW247910   1.066   3.614  14.423
48693SOL     OW47911   8.114  12.048  10.463
48693SOL    HW147912   8.202  12.071  10.432
48693SOL    HW247913   8.102  11.957  10.435
48694SOL     OW47914   7.611  14.622  10.009
48694SOL    HW147915   7.656  14.541  10.035
48694SOL    HW247916   7.676  14.691  10.023
48695SOL     OW47917  10.529  11.385   7.794
48695SOL    HW147918  10.574  11.331   7.728
48695SOL    HW247919  10.525  11.329   7.872
48696SOL     OW47920  13.528   6.868   6.838
48696SOL    HW147921  13.598   6.925   6.805
48696SOL    HW247922  13.449   6.922   6.833
48697SOL     OW47923   2.245   3.203   9.210
48697SOL    HW147924   2.168   3.194   9.154
48697SOL    HW247925   2.232   3.138   9.280
48698SOL     OW47926   9.796  14.323  12.236
48698SOL    HW147927   9.744  14.302  12.159
48698SOL    HW247928   9.814  14.417  12.227
48699SOL     OW47929   3.327   2.213  11.643
48699SOL    HW147930   3.244   2.211  11.595
48699SOL    HW247931   3.309   2.267  11.720
48700SOL     OW47932   7.981   1.405  12.138
48700SOL    HW147933   7.896   1.432  12.172
48700SOL    HW247934   7.974   1.420  12.044
48701SOL     OW47935  13.281   7.708   0.853
48701SOL    HW147936  13.369   7.690   0.884
48701SOL    HW247937  13.293   7.747   0.766
48702SOL     OW47938   6.587  14.809   6.610
48702SOL    HW147939   6.580  14.822   6.705
48702SOL    HW247940   6.584   0.018   6.573
48703SOL     OW47941  13.565   3.816  12.416
48703SOL    HW147942  13.586   3.863  12.497
48703SOL    HW247943  13.509   3.876  12.368
48704SOL     OW47944  11.777  14.416   9.401
48704SOL    HW147945  11.812  14.504   9.394
48704SOL    HW247946  11.816  14.368   9.328
48705SOL     OW47947   1.357   5.282  11.604
48705SOL    HW147948   1.389   5.196  11.575
48705SOL    HW247949   1.267   5.265  11.633
48706SOL     OW47950  11.051   5.941   6.169
48706SOL    HW147951  11.051   6.037   6.172
48706SOL    HW247952  10.961   5.916   6.192
48707SOL     OW47953   8.319   6.562   0.311
48707SOL    HW147954   8.273   6.492   0.356
48707SOL    HW247955   8.257   6.635   0.309
48708SOL     OW47956   7.669   8.471   4.982
48708SOL    HW147957   7.638   8.478   4.892
48708SOL    HW247958   7.606   8.413   5.025
48709SOL     OW47959   0.881  14.877   9.391
48709SOL    HW147960   0.926   0.032   9.314
48709SOL    HW247961   0.813  14.819   9.356
48710SOL     OW47962   8.203   6.930   9.429
48710SOL    HW147963   8.154   7.010   9.448
48710SOL    HW247964   8.138   6.860   9.433
48711SOL     OW47965   8.114   9.187   3.702
48711SOL    HW147966   8.048   9.119   3.685
48711SOL    HW247967   8.113   9.198   3.797
48712SOL     OW47968   4.941   3.904   4.668
48712SOL    HW147969   5.011   3.847   4.635
48712SOL    HW247970   4.863   3.849   4.667
48713SOL     OW47971   9.166  13.425   6.432
48713SOL    HW147972   9.212  13.506   6.410
48713SOL    HW247973   9.219  13.384   6.499
48714SOL     OW47974   6.632   2.124  11.938
48714SOL    HW147975   6.662   2.041  11.901
48714SOL    HW247976   6.705   2.154  11.992
48715SOL     OW47977   7.706   2.876   2.653
48715SOL    HW147978   7.738   2.953   2.606
48715SOL    HW247979   7.785   2.830   2.681
48716SOL     OW47980  12.117   4.559   7.031
48716SOL    HW147981  12.118   4.600   7.117
48716SOL    HW247982  12.196   4.592   6.988
48717SOL     OW47983   9.718   8.316  13.152
48717SOL    HW147984   9.740   8.244  13.093
48717SOL    HW247985   9.622   8.316  13.155
48718SOL     OW47986  14.007   6.112  10.301
48718SOL    HW147987  13.970   6.069  10.378
48718SOL    HW247988  14.098   6.085  10.299
48719SOL     OW47989   6.084   9.704   4.308
48719SOL    HW147990   5.996   9.680   4.336
48719SOL    HW247991   6.124   9.743   4.386
48720SOL     OW47992   1.201   3.578   6.653
48720SOL    HW147993   1.123   3.606   6.605
48720SOL    HW247994   1.232   3.501   6.604
48721SOL     OW47995  14.707   5.408   2.565
48721SOL    HW147996  14.734   5.321   2.537
48721SOL    HW247997  14.763   5.468   2.516
48722SOL     OW47998   1.471   4.614   5.726
48722SOL    HW147999   1.514   4.539   5.685
48722SOL    HW248000   1.487   4.687   5.665
48723SOL     OW48001   7.546   1.134  13.132
48723SOL    HW148002   7.500   1.215  13.153
48723SOL    HW248003   7.492   1.065  13.169
48724SOL     OW48004   2.034   2.874   5.326
48724SOL    HW148005   2.012   2.848   5.416
48724SOL    HW248006   2.107   2.934   5.336
48725SOL     OW48007   5.143  10.674  14.710
48725SOL    HW148008   5.148  10.712  14.622
48725SOL    HW248009   5.180  10.587  14.700
48726SOL     OW48010   5.144   1.737  13.862
48726SOL    HW148011   5.150   1.723  13.957
48726SOL    HW248012   5.110   1.826  13.853
48727SOL     OW48013   2.569  13.614   9.143
48727SOL    HW148014   2.625  13.551   9.099
48727SOL    HW248015   2.523  13.658   9.072
48728SOL     OW48016   7.656   2.655   6.280
48728SOL    HW148017   7.656   2.750   6.292
48728SOL    HW248018   7.577   2.625   6.324
48729SOL     OW48019   3.546   0.522   5.150
48729SOL    HW148020   3.500   0.444   5.120
48729SOL    HW248021   3.635   0.512   5.115
48730SOL     OW48022   1.970   5.118   6.182
48730SOL    HW148023   1.952   5.039   6.132
48730SOL    HW248024   1.901   5.180   6.156
48731SOL     OW48025   8.267  10.328   2.571
48731SOL    HW148026   8.219  10.246   2.564
48731SOL    HW248027   8.202  10.396   2.553
48732SOL     OW48028   0.639   2.136   2.098
48732SOL    HW148029   0.721   2.149   2.145
48732SOL    HW248030   0.658   2.065   2.036
48733SOL     OW48031  10.088   2.598  11.852
48733SOL    HW148032  10.098   2.675  11.908
48733SOL    HW248033  10.100   2.631  11.763
48734SOL     OW48034   9.229   6.406   2.873
48734SOL    HW148035   9.261   6.495   2.857
48734SOL    HW248036   9.299   6.364   2.924
48735SOL     OW48037   3.896   6.563   3.260
48735SOL    HW148038   3.867   6.480   3.222
48735SOL    HW248039   3.914   6.619   3.184
48736SOL     OW48040  11.491   1.287   6.128
48736SOL    HW148041  11.474   1.258   6.039
48736SOL    HW248042  11.525   1.377   6.118
48737SOL     OW48043   7.502  12.655  11.576
48737SOL    HW148044   7.483  12.748  11.579
48737SOL    HW248045   7.562  12.644  11.502
48738SOL     OW48046  12.227  13.687   5.821
48738SOL    HW148047  12.276  13.605   5.814
48738SOL    HW248048  12.189  13.685   5.908
48739SOL     OW48049   1.470   2.092   9.643
48739SOL    HW148050   1.395   2.052   9.600
48739SOL    HW248051   1.479   2.045   9.726
48740SOL     OW48052   5.015   3.988   9.083
48740SOL    HW148053   5.086   4.052   9.087
48740SOL    HW248054   4.980   3.984   9.172
48741SOL     OW48055  14.847  14.283   1.746
48741SOL    HW148056  14.770  14.233   1.773
48741SOL    HW248057  14.821  14.374   1.753
48742SOL     OW48058   4.625  14.617   9.436
48742SOL    HW148059   4.575  14.651   9.511
48742SOL    HW248060   4.627  14.689   9.374
48743SOL     OW48061   1.013  13.050   1.332
48743SOL    HW148062   0.989  12.989   1.263
48743SOL    HW248063   1.062  13.119   1.287
48744SOL     OW48064   0.437  13.875  11.872
48744SOL    HW148065   0.363  13.815  11.862
48744SOL    HW248066   0.513  13.817  11.885
48745SOL     OW48067   0.396   5.131   0.687
48745SOL    HW148068   0.360   5.205   0.736
48745SOL    HW248069   0.419   5.169   0.602
48746SOL     OW48070   4.622  13.961   8.663
48746SOL    HW148071   4.638  13.938   8.755
48746SOL    HW248072   4.555  14.028   8.666
48747SOL     OW48073   9.607  10.760   2.912
48747SOL    HW148074   9.662  10.819   2.860
48747SOL    HW248075   9.586  10.688   2.852
48748SOL     OW48076   8.172  10.595  11.456
48748SOL    HW148077   8.148  10.622  11.544
48748SOL    HW248078   8.185  10.501  11.462
48749SOL     OW48079   0.735  14.246   9.349
48749SOL    HW148080   0.712  14.202   9.431
48749SOL    HW248081   0.810  14.301   9.372
48750SOL     OW48082   3.406   1.170  14.384
48750SOL    HW148083   3.455   1.170  14.467
48750SOL    HW248084   3.317   1.144  14.409
48751SOL     OW48085  11.700  10.105  12.279
48751SOL    HW148086  11.703  10.041  12.350
48751SOL    HW248087  11.607  10.110  12.255
48752SOL     OW48088   1.082   2.763   6.746
48752SOL    HW148089   1.080   2.858   6.762
48752SOL    HW248090   1.173   2.746   6.719
48753SOL     OW48091   3.137   5.825   9.873
48753SOL    HW148092   3.117   5.839   9.966
48753SOL    HW248093   3.231   5.838   9.867
48754SOL     OW48094  14.776   3.254  14.363
48754SOL    HW148095  14.786   3.176  14.418
48754SOL    HW248096  14.810   3.326  14.417
48755SOL     OW48097  10.138   8.556   4.611
48755SOL    HW148098  10.174   8.641   4.585
48755SOL    HW248099  10.082   8.576   4.686
48756SOL     OW48100   4.557   3.354   7.428
48756SOL    HW148101   4.575   3.431   7.483
48756SOL    HW248102   4.615   3.365   7.352
48757SOL     OW48103   0.723   3.973  12.039
48757SOL    HW148104   0.799   4.008  11.993
48757SOL    HW248105   0.686   3.909  11.979
48758SOL     OW48106  13.938  12.061   7.827
48758SOL    HW148107  13.875  11.990   7.844
48758SOL    HW248108  14.004  12.051   7.895
48759SOL     OW48109   3.846   0.916   1.296
48759SOL    HW148110   3.857   0.968   1.217
48759SOL    HW248111   3.787   0.968   1.351
48760SOL     OW48112  12.111   0.586   8.295
48760SOL    HW148113  12.056   0.664   8.299
48760SOL    HW248114  12.094   0.540   8.377
48761SOL     OW48115   4.633   5.457   4.272
48761SOL    HW148116   4.589   5.441   4.355
48761SOL    HW248117   4.563   5.479   4.211
48762SOL     OW48118   8.397  13.245   4.779
48762SOL    HW148119   8.346  13.308   4.830
48762SOL    HW248120   8.472  13.223   4.834
48763SOL     OW48121   5.205  10.808   5.829
48763SOL    HW148122   5.139  10.798   5.760
48763SOL    HW248123   5.207  10.902   5.847
48764SOL     OW48124   4.039  13.562   6.800
48764SOL    HW148125   3.951  13.527   6.795
48764SOL    HW248126   4.096  13.485   6.808
48765SOL     OW48127  12.089   2.539   7.900
48765SOL    HW148128  12.150   2.597   7.856
48765SOL    HW248129  12.130   2.453   7.896
48766SOL     OW48130   0.336  13.456   0.738
48766SOL    HW148131   0.320  13.367   0.768
48766SOL    HW248132   0.428  13.456   0.711
48767SOL     OW48133  10.757  10.047  13.964
48767SOL    HW148134  10.805  10.052  14.047
48767SOL    HW248135  10.710  10.131  13.959
48768SOL     OW48136  11.466   4.923   1.349
48768SOL    HW148137  11.384   4.958   1.385
48768SOL    HW248138  11.527   4.997   1.351
48769SOL     OW48139  11.291   9.304   4.417
48769SOL    HW148140  11.242   9.359   4.478
48769SOL    HW248141  11.290   9.217   4.458
48770SOL     OW48142   1.260   7.768   3.368
48770SOL    HW148143   1.351   7.795   3.351
48770SOL    HW248144   1.260   7.740   3.460
48771SOL     OW48145  13.207   0.339   7.223
48771SOL    HW148146  13.296   0.370   7.207
48771SOL    HW248147  13.152   0.417   7.210
48772SOL     OW48148   8.061   0.956   4.245
48772SOL    HW148149   8.062   1.049   4.223
48772SOL    HW248150   8.062   0.953   4.341
48773SOL     OW48151  11.600  14.066   2.204
48773SOL    HW148152  11.638  13.985   2.239
48773SOL    HW248153  11.506  14.057   2.220
48774SOL     OW48154   2.235   7.250   6.946
48774SOL    HW148155   2.205   7.161   6.930
48774SOL    HW248156   2.322   7.253   6.905
48775SOL     OW48157   4.135   2.759   0.900
48775SOL    HW148158   4.179   2.841   0.921
48775SOL    HW248159   4.197   2.691   0.926
48776SOL     OW48160   4.645   2.548   4.129
48776SOL    HW148161   4.633   2.526   4.222
48776SOL    HW248162   4.724   2.603   4.127
48777SOL     OW48163   5.087  10.701   6.559
48777SOL    HW148164   5.126  10.627   6.514
48777SOL    HW248165   5.035  10.663   6.629
48778SOL     OW48166   0.558   0.967   9.913
48778SOL    HW148167   0.504   0.905   9.864
48778SOL    HW248168   0.639   0.973   9.863
48779SOL     OW48169  12.687   4.607   6.770
48779SOL    HW148170  12.718   4.664   6.841
48779SOL    HW248171  12.622   4.660   6.724
48780SOL     OW48172  11.917   4.706   2.440
48780SOL    HW148173  11.874   4.648   2.503
48780SOL    HW248174  11.855   4.712   2.367
48781SOL     OW48175  14.250   2.326  11.740
48781SOL    HW148176  14.203   2.277  11.673
48781SOL    HW248177  14.205   2.305  11.821
48782SOL     OW48178   6.024   2.317   8.455
48782SOL    HW148179   5.962   2.245   8.442
48782SOL    HW248180   6.009   2.375   8.380
48783SOL     OW48181   4.702   6.502   6.819
48783SOL    HW148182   4.783   6.553   6.810
48783SOL    HW248183   4.641   6.543   6.757
48784SOL     OW48184   6.168   5.784  13.699
48784SOL    HW148185   6.117   5.704  13.711
48784SOL    HW248186   6.106   5.855  13.718
48785SOL     OW48187   2.199  13.401   0.048
48785SOL    HW148188   2.242  13.326   0.088
48785SOL    HW248189   2.267  13.469   0.044
48786SOL     OW48190  14.010   8.940   5.477
48786SOL    HW148191  14.102   8.964   5.484
48786SOL    HW248192  13.973   9.002   5.414
48787SOL     OW48193   7.163  12.505   8.846
48787SOL    HW148194   7.069  12.490   8.849
48787SOL    HW248195   7.184  12.510   8.753
48788SOL     OW48196  14.264   3.990   5.111
48788SOL    HW148197  14.237   3.930   5.041
48788SOL    HW248198  14.222   3.954   5.189
48789SOL     OW48199   0.679   8.941   7.582
48789SOL    HW148200   0.604   8.980   7.626
48789SOL    HW248201   0.755   8.986   7.620
48790SOL     OW48202   6.672   6.981   9.700
48790SOL    HW148203   6.719   7.023   9.628
48790SOL    HW248204   6.648   6.894   9.667
48791SOL     OW48205  12.668   6.607   1.519
48791SOL    HW148206  12.625   6.691   1.534
48791SOL    HW248207  12.761   6.624   1.535
48792SOL     OW48208   9.067   8.665   9.515
48792SOL    HW148209   9.118   8.592   9.480
48792SOL    HW248210   8.992   8.673   9.455
48793SOL     OW48211  13.594  13.826  14.604
48793SOL    HW148212  13.648  13.783  14.538
48793SOL    HW248213  13.532  13.759  14.631
48794SOL     OW48214   2.500  13.337   9.417
48794SOL    HW148215   2.578  13.326   9.363
48794SOL    HW248216   2.429  13.304   9.362
48795SOL     OW48217   5.998   7.748  12.523
48795SOL    HW148218   6.039   7.769  12.439
48795SOL    HW248219   5.999   7.652  12.527
48796SOL     OW48220   8.281   9.024  10.566
48796SOL    HW148221   8.221   9.093  10.539
48796SOL    HW248222   8.230   8.971  10.627
48797SOL     OW48223   8.677  10.774  13.594
48797SOL    HW148224   8.722  10.693  13.567
48797SOL    HW248225   8.585  10.758  13.572
48798SOL     OW48226  10.658   3.869  10.098
48798SOL    HW148227  10.655   3.781  10.060
48798SOL    HW248228  10.747   3.877  10.133
48799SOL     OW48229   1.623   9.636   0.758
48799SOL    HW148230   1.664   9.694   0.823
48799SOL    HW248231   1.540   9.678   0.738
48800SOL     OW48232   2.569  11.837  13.926
48800SOL    HW148233   2.540  11.877  14.007
48800SOL    HW248234   2.649  11.790  13.949
48801SOL     OW48235   5.197   5.460  14.741
48801SOL    HW148236   5.140   5.531  14.711
48801SOL    HW248237   5.160   5.381  14.701
48802SOL     OW48238   5.196  10.218   2.405
48802SOL    HW148239   5.191  10.267   2.488
48802SOL    HW248240   5.288  10.194   2.397
48803SOL     OW48241   6.086   0.477  12.330
48803SOL    HW148242   6.098   0.406  12.267
48803SOL    HW248243   5.991   0.479  12.346
48804SOL     OW48244   1.430   5.466   6.613
48804SOL    HW148245   1.372   5.392   6.630
48804SOL    HW248246   1.371   5.539   6.594
48805SOL     OW48247   9.772   1.551  12.074
48805SOL    HW148248   9.841   1.485  12.079
48805SOL    HW248249   9.729   1.548  12.159
48806SOL     OW48250   7.583   8.437  14.208
48806SOL    HW148251   7.657   8.377  14.220
48806SOL    HW248252   7.510   8.394  14.251
48807SOL     OW48253  12.463   4.408   2.428
48807SOL    HW148254  12.464   4.501   2.407
48807SOL    HW248255  12.554   4.379   2.417
48808SOL     OW48256   1.421   4.764  14.389
48808SOL    HW148257   1.516   4.760  14.379
48808SOL    HW248258   1.407   4.784  14.482
48809SOL     OW48259  14.647   2.972   0.361
48809SOL    HW148260  14.712   2.919   0.316
48809SOL    HW248261  14.564   2.947   0.321
48810SOL     OW48262   0.639   7.921   8.826
48810SOL    HW148263   0.726   7.900   8.792
48810SOL    HW248264   0.588   7.841   8.812
48811SOL     OW48265   4.515   2.610  14.436
48811SOL    HW148266   4.469   2.666  14.498
48811SOL    HW248267   4.447   2.582  14.375
48812SOL     OW48268   4.367  10.304   5.081
48812SOL    HW148269   4.398  10.317   5.171
48812SOL    HW248270   4.310  10.380   5.065
48813SOL     OW48271   3.443  10.817   6.263
48813SOL    HW148272   3.394  10.781   6.190
48813SOL    HW248273   3.469  10.741   6.315
48814SOL     OW48274   3.538   5.402  10.709
48814SOL    HW148275   3.628   5.394  10.676
48814SOL    HW248276   3.484   5.411  10.630
48815SOL     OW48277  13.167   5.635  11.867
48815SOL    HW148278  13.143   5.727  11.852
48815SOL    HW248279  13.089   5.586  11.842
48816SOL     OW48280   9.807  11.500  10.260
48816SOL    HW148281   9.747  11.530  10.191
48816SOL    HW248282   9.846  11.580  10.294
48817SOL     OW48283   5.088  10.001   5.824
48817SOL    HW148284   5.164  10.009   5.765
48817SOL    HW248285   5.012  10.010   5.766
48818SOL     OW48286  13.615   2.119   6.306
48818SOL    HW148287  13.675   2.065   6.253
48818SOL    HW248288  13.620   2.080   6.393
48819SOL     OW48289  13.596   0.725   2.626
48819SOL    HW148290  13.534   0.775   2.679
48819SOL    HW248291  13.555   0.638   2.617
48820SOL     OW48292  14.108  13.482   6.130
48820SOL    HW148293  14.107  13.576   6.110
48820SOL    HW248294  14.133  13.440   6.048
48821SOL     OW48295  12.529   7.701   0.071
48821SOL    HW148296  12.499   7.617   0.035
48821SOL    HW248297  12.570   7.678   0.154
48822SOL     OW48298   8.489   9.943   3.965
48822SOL    HW148299   8.490   9.893   3.884
48822SOL    HW248300   8.527   9.884   4.030
48823SOL     OW48301   0.839   3.063  10.059
48823SOL    HW148302   0.757   3.017  10.078
48823SOL    HW248303   0.838   3.075   9.964
48824SOL     OW48304  12.361   3.348   4.402
48824SOL    HW148305  12.402   3.306   4.327
48824SOL    HW248306  12.408   3.313   4.478
48825SOL     OW48307  11.026   0.651   2.274
48825SOL    HW148308  11.048   0.579   2.215
48825SOL    HW248309  11.009   0.725   2.215
48826SOL     OW48310   8.183   9.307   0.708
48826SOL    HW148311   8.182   9.403   0.699
48826SOL    HW248312   8.095   9.280   0.680
48827SOL     OW48313   0.337   4.426   3.701
48827SOL    HW148314   0.285   4.504   3.683
48827SOL    HW248315   0.341   4.380   3.618
48828SOL     OW48316   9.141   4.168   0.550
48828SOL    HW148317   9.196   4.093   0.528
48828SOL    HW248318   9.093   4.141   0.628
48829SOL     OW48319   0.174   9.917  11.760
48829SOL    HW148320   0.164  10.012  11.746
48829SOL    HW248321   0.262   9.907  11.795
48830SOL     OW48322   4.636  10.196   5.928
48830SOL    HW148323   4.549  10.234   5.939
48830SOL    HW248324   4.696  10.269   5.945
48831SOL     OW48325   9.117  11.652  11.514
48831SOL    HW148326   9.179  11.587  11.546
48831SOL    HW248327   9.121  11.723  11.577
48832SOL     OW48328   4.774  14.202   0.928
48832SOL    HW148329   4.750  14.116   0.895
48832SOL    HW248330   4.726  14.264   0.872
48833SOL     OW48331  10.841   5.988   1.399
48833SOL    HW148332  10.799   5.926   1.458
48833SOL    HW248333  10.785   5.990   1.321
48834SOL     OW48334   8.363  10.144   0.125
48834SOL    HW148335   8.443  10.146   0.178
48834SOL    HW248336   8.315  10.068   0.159
48835SOL     OW48337  12.587   9.385   1.163
48835SOL    HW148338  12.515   9.392   1.226
48835SOL    HW248339  12.660   9.352   1.215
48836SOL     OW48340   4.058   8.456  12.463
48836SOL    HW148341   4.125   8.490  12.522
48836SOL    HW248342   4.102   8.385  12.415
48837SOL     OW48343   6.986   8.703   5.222
48837SOL    HW148344   6.970   8.797   5.216
48837SOL    HW248345   6.966   8.669   5.135
48838SOL     OW48346  13.474  14.462   3.808
48838SOL    HW148347  13.530  14.514   3.866
48838SOL    HW248348  13.509  14.478   3.720
48839SOL     OW48349   8.316   9.439   7.798
48839SOL    HW148350   8.303   9.397   7.713
48839SOL    HW248351   8.324   9.366   7.859
48840SOL     OW48352   4.184  10.993   1.316
48840SOL    HW148353   4.184  11.088   1.303
48840SOL    HW248354   4.095  10.974   1.347
48841SOL     OW48355  12.729  12.626   1.908
48841SOL    HW148356  12.818  12.614   1.939
48841SOL    HW248357  12.719  12.562   1.837
48842SOL     OW48358  12.255  11.053   1.907
48842SOL    HW148359  12.280  10.964   1.930
48842SOL    HW248360  12.161  11.057   1.922
48843SOL     OW48361   2.146   4.135   4.806
48843SOL    HW148362   2.173   4.226   4.820
48843SOL    HW248363   2.143   4.125   4.711
48844SOL     OW48364  14.520   0.766   6.833
48844SOL    HW148365  14.559   0.830   6.892
48844SOL    HW248366  14.554   0.789   6.746
48845SOL     OW48367  14.666   5.884   1.166
48845SOL    HW148368  14.759   5.878   1.142
48845SOL    HW248369  14.634   5.794   1.158
48846SOL     OW48370   6.468  14.846   4.063
48846SOL    HW148371   6.523   0.042   4.040
48846SOL    HW248372   6.417  14.876   4.138
48847SOL     OW48373  12.335   9.983   8.340
48847SOL    HW148374  12.274  10.057   8.341
48847SOL    HW248375  12.352   9.968   8.247
48848SOL     OW48376   3.672  13.659   0.299
48848SOL    HW148377   3.745  13.604   0.270
48848SOL    HW248378   3.594  13.615   0.265
48849SOL     OW48379   8.617   1.644   6.379
48849SOL    HW148380   8.600   1.673   6.289
48849SOL    HW248381   8.682   1.575   6.370
48850SOL     OW48382   9.254  10.518   6.087
48850SOL    HW148383   9.215  10.528   6.001
48850SOL    HW248384   9.180  10.501   6.145
48851SOL     OW48385   0.381   3.798   0.557
48851SOL    HW148386   0.353   3.835   0.641
48851SOL    HW248387   0.467   3.838   0.541
48852SOL     OW48388   0.918  13.548  11.317
48852SOL    HW148389   0.895  13.632  11.278
48852SOL    HW248390   0.841  13.525  11.370
48853SOL     OW48391   2.202  11.714   7.947
48853SOL    HW148392   2.227  11.777   8.014
48853SOL    HW248393   2.279  11.659   7.935
48854SOL     OW48394  14.455   2.806  10.910
48854SOL    HW148395  14.384   2.758  10.866
48854SOL    HW248396  14.529   2.746  10.908
48855SOL     OW48397   0.881   0.302   7.527
48855SOL    HW148398   0.825   0.244   7.579
48855SOL    HW248399   0.886   0.260   7.441
48856SOL     OW48400  14.705   3.630   2.684
48856SOL    HW148401  14.767   3.637   2.757
48856SOL    HW248402  14.655   3.712   2.687
48857SOL     OW48403   1.022   8.878  14.871
48857SOL    HW148404   1.015   8.887  14.776
48857SOL    HW248405   0.984   8.959   0.027
48858SOL     OW48406   5.655   6.685   6.421
48858SOL    HW148407   5.616   6.770   6.398
48858SOL    HW248408   5.712   6.663   6.348
48859SOL     OW48409   1.824   0.150   7.880
48859SOL    HW148410   1.814   0.081   7.946
48859SOL    HW248411   1.892   0.207   7.916
48860SOL     OW48412   1.692   4.914   9.793
48860SOL    HW148413   1.645   4.922   9.711
48860SOL    HW248414   1.776   4.874   9.770
48861SOL     OW48415   0.891  10.631  14.392
48861SOL    HW148416   0.798  10.629  14.415
48861SOL    HW248417   0.894  10.671  14.305
48862SOL     OW48418   2.953   1.325   4.283
48862SOL    HW148419   2.918   1.238   4.267
48862SOL    HW248420   2.887   1.367   4.339
48863SOL     OW48421   6.217   8.044  12.208
48863SOL    HW148422   6.267   8.085  12.279
48863SOL    HW248423   6.258   8.078  12.128
48864SOL     OW48424   2.499   9.258  12.701
48864SOL    HW148425   2.560   9.320  12.660
48864SOL    HW248426   2.440   9.232  12.630
48865SOL     OW48427   1.900  10.210   7.619
48865SOL    HW148428   1.826  10.149   7.623
48865SOL    HW248429   1.977  10.154   7.610
48866SOL     OW48430   2.111   7.099   6.039
48866SOL    HW148431   2.102   7.104   6.134
48866SOL    HW248432   2.137   7.008   6.022
48867SOL     OW48433  13.255   5.864   3.064
48867SOL    HW148434  13.201   5.846   3.141
48867SOL    HW248435  13.319   5.793   3.062
48868SOL     OW48436  14.010   4.734   7.212
48868SOL    HW148437  14.006   4.771   7.300
48868SOL    HW248438  13.957   4.655   7.216
48869SOL     OW48439   1.084   8.853   3.924
48869SOL    HW148440   1.140   8.864   3.847
48869SOL    HW248441   1.116   8.774   3.967
48870SOL     OW48442   4.586   0.290   7.339
48870SOL    HW148443   4.626   0.292   7.252
48870SOL    HW248444   4.660   0.296   7.399
48871SOL     OW48445  13.511  11.745   6.757
48871SOL    HW148446  13.475  11.823   6.799
48871SOL    HW248447  13.594  11.774   6.719
48872SOL     OW48448   8.834  14.486   6.376
48872SOL    HW148449   8.746  14.517   6.356
48872SOL    HW248450   8.851  14.517   6.465
48873SOL     OW48451   6.393   5.887   6.722
48873SOL    HW148452   6.393   5.954   6.654
48873SOL    HW248453   6.484   5.857   6.727
48874SOL     OW48454   1.263   7.475  11.634
48874SOL    HW148455   1.278   7.398  11.579
48874SOL    HW248456   1.256   7.439  11.723
48875SOL     OW48457   0.991  11.916  11.603
48875SOL    HW148458   0.942  11.991  11.638
48875SOL    HW248459   1.059  11.956  11.549
48876SOL     OW48460  12.363   9.607   3.005
48876SOL    HW148461  12.315   9.679   3.047
48876SOL    HW248462  12.455   9.634   3.007
48877SOL     OW48463   4.289  12.060   4.016
48877SOL    HW148464   4.343  11.982   4.004
48877SOL    HW248465   4.220  12.051   3.950
48878SOL     OW48466  12.649   0.123   5.828
48878SOL    HW148467  12.620   0.067   5.757
48878SOL    HW248468  12.709   0.068   5.879
48879SOL     OW48469   4.499   1.846  10.577
48879SOL    HW148470   4.577   1.895  10.602
48879SOL    HW248471   4.528   1.791  10.504
48880SOL     OW48472   8.259   4.515   8.477
48880SOL    HW148473   8.263   4.529   8.383
48880SOL    HW248474   8.334   4.459   8.496
48881SOL     OW48475  14.630   7.930   9.066
48881SOL    HW148476  14.665   8.018   9.052
48881SOL    HW248477  14.535   7.941   9.069
48882SOL     OW48478  14.210   8.331   5.096
48882SOL    HW148479  14.199   8.418   5.136
48882SOL    HW248480  14.304   8.324   5.080
48883SOL     OW48481  13.610   0.721  12.944
48883SOL    HW148482  13.625   0.714  12.850
48883SOL    HW248483  13.691   0.688  12.983
48884SOL     OW48484   4.454   1.845   0.105
48884SOL    HW148485   4.394   1.814   0.037
48884SOL    HW248486   4.415   1.816   0.187
48885SOL     OW48487   3.287  10.751   9.690
48885SOL    HW148488   3.348  10.796   9.748
48885SOL    HW248489   3.343  10.703   9.629
48886SOL     OW48490  13.117   4.974   8.598
48886SOL    HW148491  13.155   5.021   8.673
48886SOL    HW248492  13.134   4.882   8.616
48887SOL     OW48493   5.881   3.221   0.071
48887SOL    HW148494   5.953   3.176   0.027
48887SOL    HW248495   5.825   3.253   0.000
48888SOL     OW48496  12.977   2.861   2.131
48888SOL    HW148497  12.971   2.829   2.042
48888SOL    HW248498  12.944   2.789   2.185
48889SOL     OW48499   5.708  14.180   2.418
48889SOL    HW148500   5.714  14.085   2.427
48889SOL    HW248501   5.626  14.203   2.462
48890SOL     OW48502   4.104  11.979   7.870
48890SOL    HW148503   4.066  12.067   7.872
48890SOL    HW248504   4.198  11.993   7.885
48891SOL     OW48505  13.820   5.329  11.023
48891SOL    HW148506  13.735   5.353  11.062
48891SOL    HW248507  13.864   5.279  11.091
48892SOL     OW48508   9.064  12.001   8.589
48892SOL    HW148509   9.031  11.989   8.499
48892SOL    HW248510   9.009  11.944   8.642
48893SOL     OW48511  10.557   4.250   3.765
48893SOL    HW148512  10.517   4.193   3.830
48893SOL    HW248513  10.509   4.233   3.684
48894SOL     OW48514  13.426   0.862   1.283
48894SOL    HW148515  13.499   0.812   1.320
48894SOL    HW248516  13.419   0.939   1.340
48895SOL     OW48517  11.358   9.199   6.623
48895SOL    HW148518  11.296   9.214   6.694
48895SOL    HW248519  11.303   9.181   6.547
48896SOL     OW48520   4.583  10.378  11.396
48896SOL    HW148521   4.615  10.361  11.484
48896SOL    HW248522   4.611  10.302  11.345
48897SOL     OW48523   4.641  14.233   2.616
48897SOL    HW148524   4.548  14.229   2.593
48897SOL    HW248525   4.643  14.279   2.700
48898SOL     OW48526  13.195   3.409   1.114
48898SOL    HW148527  13.159   3.494   1.139
48898SOL    HW248528  13.290   3.420   1.121
48899SOL     OW48529   4.088   9.904   5.067
48899SOL    HW148530   4.083   9.998   5.049
48899SOL    HW248531   4.075   9.897   5.162
48900SOL     OW48532  14.113   1.986   7.624
48900SOL    HW148533  14.193   1.981   7.571
48900SOL    HW248534  14.136   1.944   7.706
48901SOL     OW48535   1.149   7.394  12.497
48901SOL    HW148536   1.160   7.374  12.590
48901SOL    HW248537   1.102   7.318  12.462
48902SOL     OW48538   6.957  10.593  13.029
48902SOL    HW148539   6.991  10.605  12.940
48902SOL    HW248540   6.862  10.606  13.019
48903SOL     OW48541   3.336   4.430  13.726
48903SOL    HW148542   3.248   4.447  13.759
48903SOL    HW248543   3.392   4.435  13.804
48904SOL     OW48544   0.506   8.783   9.857
48904SOL    HW148545   0.450   8.860   9.855
48904SOL    HW248546   0.548   8.782   9.771
48905SOL     OW48547   6.248   5.722   8.905
48905SOL    HW148548   6.269   5.811   8.931
48905SOL    HW248549   6.161   5.728   8.866
48906SOL     OW48550  11.494   0.808   7.882
48906SOL    HW148551  11.477   0.882   7.823
48906SOL    HW248552  11.419   0.806   7.940
48907SOL     OW48553   0.696   2.332   8.010
48907SOL    HW148554   0.658   2.264   7.955
48907SOL    HW248555   0.783   2.298   8.033
48908SOL     OW48556   2.943   9.104   8.224
48908SOL    HW148557   3.008   9.129   8.159
48908SOL    HW248558   2.957   9.010   8.236
48909SOL     OW48559   9.060   4.729  14.532
48909SOL    HW148560   9.034   4.641  14.505
48909SOL    HW248561   9.152   4.736  14.505
48910SOL     OW48562  12.975  14.690  14.742
48910SOL    HW148563  12.916  14.760  14.714
48910SOL    HW248564  13.062  14.722  14.719
48911SOL     OW48565   6.478  11.544  10.433
48911SOL    HW148566   6.420  11.579  10.365
48911SOL    HW248567   6.440  11.576  10.515
48912SOL     OW48568   5.607   9.390   9.974
48912SOL    HW148569   5.558   9.309   9.957
48912SOL    HW248570   5.547   9.442  10.027
48913SOL     OW48571  14.415   0.446   8.587
48913SOL    HW148572  14.376   0.527   8.556
48913SOL    HW248573  14.501   0.442   8.544
48914SOL     OW48574  12.750  11.124   8.358
48914SOL    HW148575  12.656  11.124   8.380
48914SOL    HW248576  12.784  11.046   8.403
48915SOL     OW48577  12.574   0.529   1.449
48915SOL    HW148578  12.658   0.493   1.419
48915SOL    HW248579  12.543   0.580   1.374
48916SOL     OW48580  14.276  11.772   1.541
48916SOL    HW148581  14.229  11.829   1.601
48916SOL    HW248582  14.322  11.710   1.598
48917SOL     OW48583  11.568  11.019   6.764
48917SOL    HW148584  11.501  10.950   6.758
48917SOL    HW248585  11.644  10.983   6.718
48918SOL     OW48586   5.936   6.768   7.828
48918SOL    HW148587   5.894   6.686   7.803
48918SOL    HW248588   5.864   6.831   7.832
48919SOL     OW48589  13.808   9.940   9.135
48919SOL    HW148590  13.830   9.877   9.203
48919SOL    HW248591  13.874   9.927   9.068
48920SOL     OW48592   3.612  10.650  11.321
48920SOL    HW148593   3.577  10.635  11.234
48920SOL    HW248594   3.674  10.722  11.310
48921SOL     OW48595   2.235   5.848  10.308
48921SOL    HW148596   2.329   5.833  10.314
48921SOL    HW248597   2.227   5.929  10.257
48922SOL     OW48598   6.308  10.356   6.118
48922SOL    HW148599   6.246  10.332   6.050
48922SOL    HW248600   6.303  10.285   6.182
48923SOL     OW48601   8.260  11.062   2.699
48923SOL    HW148602   8.314  11.132   2.734
48923SOL    HW248603   8.322  10.990   2.684
48924SOL     OW48604   2.477  10.546   9.161
48924SOL    HW148605   2.383  10.532   9.150
48924SOL    HW248606   2.491  10.540   9.255
48925SOL     OW48607   2.995   6.062   6.575
48925SOL    HW148608   2.926   6.003   6.604
48925SOL    HW248609   2.950   6.143   6.553
48926SOL     OW48610   5.594  13.043   5.718
48926SOL    HW148611   5.612  13.054   5.812
48926SOL    HW248612   5.639  13.117   5.677
48927SOL     OW48613   9.333   6.278  12.301
48927SOL    HW148614   9.338   6.363  12.258
48927SOL    HW248615   9.351   6.215  12.232
48928SOL     OW48616   4.452  12.920   9.450
48928SOL    HW148617   4.513  12.877   9.511
48928SOL    HW248618   4.388  12.851   9.429
48929SOL     OW48619   7.414   1.628   3.724
48929SOL    HW148620   7.451   1.716   3.725
48929SOL    HW248621   7.452   1.586   3.647
48930SOL     OW48622  12.747   7.981   6.277
48930SOL    HW148623  12.837   7.982   6.307
48930SOL    HW248624  12.694   8.000   6.355
48931SOL     OW48625   8.605   7.762   1.334
48931SOL    HW148626   8.573   7.720   1.254
48931SOL    HW248627   8.585   7.855   1.322
48932SOL     OW48628   3.858   7.116   3.631
48932SOL    HW148629   3.900   7.159   3.557
48932SOL    HW248630   3.782   7.072   3.594
48933SOL     OW48631  13.995   6.170   1.450
48933SOL    HW148632  13.955   6.090   1.418
48933SOL    HW248633  13.921   6.227   1.473
48934SOL     OW48634  11.176   6.714   8.410
48934SOL    HW148635  11.209   6.738   8.497
48934SOL    HW248636  11.135   6.628   8.423
48935SOL     OW48637   0.245   1.796   8.736
48935SOL    HW148638   0.178   1.848   8.690
48935SOL    HW248639   0.239   1.826   8.827
48936SOL     OW48640   2.110   5.450   9.384
48936SOL    HW148641   2.020   5.479   9.396
48936SOL    HW248642   2.136   5.488   9.300
48937SOL     OW48643  10.524   1.824   7.994
48937SOL    HW148644  10.546   1.812   8.086
48937SOL    HW248645  10.604   1.801   7.946
48938SOL     OW48646  13.856   6.617   7.723
48938SOL    HW148647  13.831   6.684   7.660
48938SOL    HW248648  13.904   6.552   7.672
48939SOL     OW48649   5.513  11.678   1.474
48939SOL    HW148650   5.527  11.754   1.531
48939SOL    HW248651   5.533  11.709   1.386
48940SOL     OW48652   3.605  11.084   1.432
48940SOL    HW148653   3.514  11.057   1.419
48940SOL    HW248654   3.598  11.165   1.483
48941SOL     OW48655   6.633   5.504   6.275
48941SOL    HW148656   6.643   5.409   6.279
48941SOL    HW248657   6.635   5.525   6.182
48942SOL     OW48658   9.461   6.786   2.572
48942SOL    HW148659   9.458   6.882   2.570
48942SOL    HW248660   9.490   6.762   2.484
48943SOL     OW48661   1.796  14.355   4.084
48943SOL    HW148662   1.809  14.449   4.099
48943SOL    HW248663   1.826  14.313   4.164
48944SOL     OW48664   3.679  14.624   8.916
48944SOL    HW148665   3.650  14.542   8.955
48944SOL    HW248666   3.733  14.599   8.842
48945SOL     OW48667  12.856   5.827  11.508
48945SOL    HW148668  12.782   5.834  11.568
48945SOL    HW248669  12.818   5.831  11.421
48946SOL     OW48670   1.868   1.951   4.326
48946SOL    HW148671   1.790   2.006   4.327
48946SOL    HW248672   1.930   1.997   4.269
48947SOL     OW48673  10.163  14.385   8.884
48947SOL    HW148674  10.072  14.392   8.915
48947SOL    HW248675  10.155  14.352   8.794
48948SOL     OW48676   5.204  13.863  14.711
48948SOL    HW148677   5.218  13.819  14.795
48948SOL    HW248678   5.293  13.879  14.677
48949SOL     OW48679   8.289   7.487  12.376
48949SOL    HW148680   8.266   7.462  12.465
48949SOL    HW248681   8.232   7.435  12.320
48950SOL     OW48682   1.077  11.631  13.704
48950SOL    HW148683   1.097  11.540  13.725
48950SOL    HW248684   1.056  11.671  13.789
48951SOL     OW48685   0.903  14.261   3.574
48951SOL    HW148686   0.814  14.263   3.537
48951SOL    HW248687   0.937  14.350   3.559
48952SOL     OW48688   2.830   6.532   7.857
48952SOL    HW148689   2.741   6.537   7.821
48952SOL    HW248690   2.825   6.467   7.927
48953SOL     OW48691   8.506   5.435  11.999
48953SOL    HW148692   8.580   5.386  11.963
48953SOL    HW248693   8.530   5.527  11.988
48954SOL     OW48694   3.856   0.893   4.741
48954SOL    HW148695   3.854   0.935   4.655
48954SOL    HW248696   3.796   0.943   4.795
48955SOL     OW48697   9.196   1.404   5.727
48955SOL    HW148698   9.111   1.428   5.763
48955SOL    HW248699   9.236   1.349   5.794
48956SOL     OW48700   4.404   0.121   8.986
48956SOL    HW148701   4.469   0.144   8.920
48956SOL    HW248702   4.347   0.057   8.943
48957SOL     OW48703   8.247   9.542   3.676
48957SOL    HW148704   8.223   9.577   3.762
48957SOL    HW248705   8.176   9.483   3.653
48958SOL     OW48706   0.966   5.257   8.714
48958SOL    HW148707   0.962   5.218   8.802
48958SOL    HW248708   0.890   5.222   8.668
48959SOL     OW48709  11.354   5.206   8.239
48959SOL    HW148710  11.282   5.168   8.290
48959SOL    HW248711  11.429   5.151   8.259
48960SOL     OW48712   7.005   2.482   8.865
48960SOL    HW148713   6.938   2.422   8.896
48960SOL    HW248714   7.014   2.547   8.934
48961SOL     OW48715   1.485   1.352   1.761
48961SOL    HW148716   1.448   1.401   1.834
48961SOL    HW248717   1.411   1.339   1.702
48962SOL     OW48718   6.581   0.979   6.648
48962SOL    HW148719   6.600   1.058   6.699
48962SOL    HW248720   6.555   1.012   6.562
48963SOL     OW48721   0.305  12.572  13.180
48963SOL    HW148722   0.315  12.598  13.088
48963SOL    HW248723   0.390  12.535  13.204
48964SOL     OW48724   5.214  12.337  13.341
48964SOL    HW148725   5.280  12.308  13.277
48964SOL    HW248726   5.241  12.296  13.423
48965SOL     OW48727   0.743  10.779   2.511
48965SOL    HW148728   0.834  10.767   2.538
48965SOL    HW248729   0.743  10.755   2.419
48966SOL     OW48730   5.686   0.509   7.209
48966SOL    HW148731   5.745   0.436   7.191
48966SOL    HW248732   5.610   0.468   7.250
48967SOL     OW48733   5.731   0.960   4.483
48967SOL    HW148734   5.761   0.898   4.417
48967SOL    HW248735   5.727   0.909   4.564
48968SOL     OW48736   4.796   3.121   7.925
48968SOL    HW148737   4.815   3.028   7.939
48968SOL    HW248738   4.797   3.130   7.830
48969SOL     OW48739  10.355  12.964   2.989
48969SOL    HW148740  10.333  12.881   2.945
48969SOL    HW248741  10.409  13.010   2.925
48970SOL     OW48742   7.441   5.394  14.152
48970SOL    HW148743   7.364   5.425  14.104
48970SOL    HW248744   7.471   5.471  14.200
48971SOL     OW48745   7.764   5.377   4.371
48971SOL    HW148746   7.734   5.416   4.453
48971SOL    HW248747   7.700   5.309   4.352
48972SOL     OW48748   6.909   7.792   9.964
48972SOL    HW148749   6.972   7.782   9.893
48972SOL    HW248750   6.940   7.868  10.013
48973SOL     OW48751  10.777  14.503  14.422
48973SOL    HW148752  10.826  14.506  14.504
48973SOL    HW248753  10.833  14.546  14.358
48974SOL     OW48754  14.107  12.301   8.224
48974SOL    HW148755  14.095  12.233   8.291
48974SOL    HW248756  14.037  12.285   8.161
48975SOL     OW48757   0.044   0.449   7.596
48975SOL    HW148758   0.068   0.400   7.517
48975SOL    HW248759  14.827   0.454   7.592
48976SOL     OW48760  14.454   8.925   4.548
48976SOL    HW148761  14.448   8.840   4.592
48976SOL    HW248762  14.457   8.989   4.619
48977SOL     OW48763  10.227  11.069   3.396
48977SOL    HW148764  10.231  11.077   3.492
48977SOL    HW248765  10.248  11.157   3.365
48978SOL     OW48766   7.129   5.035  13.459
48978SOL    HW148767   7.222   5.009  13.461
48978SOL    HW248768   7.123   5.106  13.523
48979SOL     OW48769   6.483  13.753   0.994
48979SOL    HW148770   6.578  13.761   0.988
48979SOL    HW248771   6.454  13.741   0.904
48980SOL     OW48772  10.912   4.562  12.274
48980SOL    HW148773  10.862   4.600  12.202
48980SOL    HW248774  10.856   4.572  12.351
48981SOL     OW48775   1.071   6.058   2.630
48981SOL    HW148776   1.041   6.134   2.680
48981SOL    HW248777   1.051   6.080   2.539
48982SOL     OW48778  12.633   7.885  13.832
48982SOL    HW148779  12.626   7.825  13.906
48982SOL    HW248780  12.631   7.972  13.871
48983SOL     OW48781   6.925   8.612  12.739
48983SOL    HW148782   6.969   8.577  12.816
48983SOL    HW248783   6.854   8.549  12.721
48984SOL     OW48784   8.343  12.005   4.454
48984SOL    HW148785   8.291  12.058   4.514
48984SOL    HW248786   8.283  11.939   4.422
48985SOL     OW48787   7.954   4.996   2.248
48985SOL    HW148788   7.963   4.923   2.309
48985SOL    HW248789   8.043   5.017   2.221
48986SOL     OW48790   8.279  10.989   9.990
48986SOL    HW148791   8.209  10.983  10.055
48986SOL    HW248792   8.352  10.940  10.028
48987SOL     OW48793   8.714   5.888  12.942
48987SOL    HW148794   8.690   5.817  12.882
48987SOL    HW248795   8.656   5.878  13.017
48988SOL     OW48796   9.136   9.246  13.214
48988SOL    HW148797   9.096   9.183  13.154
48988SOL    HW248798   9.083   9.325  13.204
48989SOL     OW48799   4.122   1.779   1.860
48989SOL    HW148800   4.154   1.846   1.920
48989SOL    HW248801   4.111   1.701   1.915
48990SOL     OW48802  11.598   7.006  12.841
48990SOL    HW148803  11.523   6.952  12.817
48990SOL    HW248804  11.664   6.985  12.775
48991SOL     OW48805  12.313   0.883  11.040
48991SOL    HW148806  12.251   0.951  11.014
48991SOL    HW248807  12.295   0.868  11.132
48992SOL     OW48808   1.609   5.275  10.331
48992SOL    HW148809   1.662   5.195  10.323
48992SOL    HW248810   1.671   5.341  10.363
48993SOL     OW48811  12.383  14.341   4.283
48993SOL    HW148812  12.463  14.371   4.326
48993SOL    HW248813  12.312  14.381   4.333
48994SOL     OW48814   9.442  11.176   0.603
48994SOL    HW148815   9.484  11.098   0.639
48994SOL    HW248816   9.443  11.240   0.674
48995SOL     OW48817  10.059  14.531  11.629
48995SOL    HW148818  10.059  14.436  11.620
48995SOL    HW248819  10.111  14.547  11.708
48996SOL     OW48820   7.159   8.264   7.013
48996SOL    HW148821   7.253   8.258   6.997
48996SOL    HW248822   7.119   8.217   6.940
48997SOL     OW48823  12.796   9.765   7.902
48997SOL    HW148824  12.789   9.824   7.977
48997SOL    HW248825  12.717   9.782   7.851
48998SOL     OW48826   4.561   8.941   8.931
48998SOL    HW148827   4.576   9.005   9.000
48998SOL    HW248828   4.488   8.976   8.881
48999SOL     OW48829   5.617  11.233   7.337
48999SOL    HW148830   5.684  11.274   7.282
48999SOL    HW248831   5.534  11.265   7.301
49000SOL     OW48832  12.992   9.753   3.743
49000SOL    HW148833  13.023   9.706   3.665
49000SOL    HW248834  12.915   9.800   3.713
49001SOL     OW48835   0.834   3.813   0.456
49001SOL    HW148836   0.830   3.766   0.539
49001SOL    HW248837   0.911   3.776   0.412
49002SOL     OW48838  13.206  14.470   7.420
49002SOL    HW148839  13.114  14.446   7.433
49002SOL    HW248840  13.216  14.477   7.325
49003SOL     OW48841   1.191  14.681   8.905
49003SOL    HW148842   1.102  14.712   8.921
49003SOL    HW248843   1.179  14.603   8.850
49004SOL     OW48844   3.203  13.163  13.816
49004SOL    HW148845   3.227  13.127  13.901
49004SOL    HW248846   3.151  13.093  13.774
49005SOL     OW48847  14.489  12.175  12.176
49005SOL    HW148848  14.463  12.267  12.169
49005SOL    HW248849  14.582  12.174  12.153
49006SOL     OW48850   7.235   0.106   6.700
49006SOL    HW148851   7.151   0.138   6.734
49006SOL    HW248852   7.300   0.163   6.740
49007SOL     OW48853  10.187  11.009  10.834
49007SOL    HW148854  10.206  11.094  10.873
49007SOL    HW248855  10.229  10.946  10.892
49008SOL     OW48856   9.735   1.220  11.449
49008SOL    HW148857   9.748   1.311  11.423
49008SOL    HW248858   9.652   1.195  11.409
49009SOL     OW48859   4.258  10.990   4.142
49009SOL    HW148860   4.352  10.977   4.137
49009SOL    HW248861   4.247  11.074   4.186
49010SOL     OW48862   7.293  11.076  14.017
49010SOL    HW148863   7.284  11.169  13.997
49010SOL    HW248864   7.336  11.039  13.940
49011SOL     OW48865   2.396  14.159   8.140
49011SOL    HW148866   2.302  14.164   8.159
49011SOL    HW248867   2.439  14.185   8.221
49012SOL     OW48868   8.370   9.187  11.967
49012SOL    HW148869   8.278   9.210  11.953
49012SOL    HW248870   8.418   9.265  11.941
49013SOL     OW48871  13.588  11.274   7.194
49013SOL    HW148872  13.612  11.322   7.273
49013SOL    HW248873  13.549  11.193   7.226
49014SOL     OW48874   8.046   8.944   7.138
49014SOL    HW148875   8.026   8.992   7.218
49014SOL    HW248876   7.961   8.914   7.106
49015SOL     OW48877   3.742  10.334   5.099
49015SOL    HW148878   3.767  10.342   5.191
49015SOL    HW248879   3.652  10.302   5.102
49016SOL     OW48880   0.205   4.036  13.282
49016SOL    HW148881   0.182   4.079  13.364
49016SOL    HW248882   0.299   4.049  13.273
49017SOL     OW48883   0.099  11.649  13.207
49017SOL    HW148884   0.156  11.593  13.259
49017SOL    HW248885   0.158  11.696  13.149
49018SOL     OW48886  14.304  13.878   2.920
49018SOL    HW148887  14.335  13.964   2.891
49018SOL    HW248888  14.279  13.833   2.839
49019SOL     OW48889  12.370  13.553   5.018
49019SOL    HW148890  12.304  13.522   5.079
49019SOL    HW248891  12.351  13.646   5.006
49020SOL     OW48892   2.865  11.075   3.189
49020SOL    HW148893   2.807  11.096   3.116
49020SOL    HW248894   2.953  11.093   3.157
49021SOL     OW48895  13.164   4.807  12.322
49021SOL    HW148896  13.158   4.848  12.236
49021SOL    HW248897  13.084   4.833  12.367
49022SOL     OW48898   6.965  14.444  13.665
49022SOL    HW148899   6.977  14.533  13.633
49022SOL    HW248900   6.984  14.450  13.759
49023SOL     OW48901   6.140   7.295   7.901
49023SOL    HW148902   6.203   7.229   7.872
49023SOL    HW248903   6.194   7.368   7.932
49024SOL     OW48904   5.313   8.911  14.398
49024SOL    HW148905   5.331   8.860  14.477
49024SOL    HW248906   5.389   8.968  14.387
49025SOL     OW48907   8.337   1.685  12.760
49025SOL    HW148908   8.323   1.746  12.688
49025SOL    HW248909   8.416   1.636  12.735
49026SOL     OW48910   8.110   0.547  10.849
49026SOL    HW148911   8.084   0.563  10.759
49026SOL    HW248912   8.142   0.632  10.880
49027SOL     OW48913  14.724  11.707  14.792
49027SOL    HW148914  14.719  11.799  14.766
49027SOL    HW248915  14.649  11.694  14.850
49028SOL     OW48916   9.296   4.870  13.179
49028SOL    HW148917   9.239   4.942  13.150
49028SOL    HW248918   9.384   4.906  13.172
49029SOL     OW48919  10.691   2.463   0.194
49029SOL    HW148920  10.625   2.414   0.243
49029SOL    HW248921  10.766   2.403   0.191
49030SOL     OW48922  11.364   7.568   4.472
49030SOL    HW148923  11.288   7.525   4.512
49030SOL    HW248924  11.418   7.596   4.547
49031SOL     OW48925   1.670  14.524   6.684
49031SOL    HW148926   1.659  14.446   6.630
49031SOL    HW248927   1.584  14.568   6.681
49032SOL     OW48928   9.901   5.710   0.458
49032SOL    HW148929   9.895   5.776   0.528
49032SOL    HW248930   9.987   5.671   0.470
49033SOL     OW48931   3.634   6.205   5.399
49033SOL    HW148932   3.619   6.177   5.308
49033SOL    HW248933   3.546   6.221   5.433
49034SOL     OW48934   6.535   9.225  14.183
49034SOL    HW148935   6.611   9.172  14.206
49034SOL    HW248936   6.572   9.307  14.152
49035SOL     OW48937   0.975  11.712   7.049
49035SOL    HW148938   1.001  11.639   7.105
49035SOL    HW248939   0.892  11.685   7.011
49036SOL     OW48940  14.700  14.172  10.315
49036SOL    HW148941  14.656  14.255  10.329
49036SOL    HW248942  14.793  14.193  10.318
49037SOL     OW48943   7.184  13.072   0.255
49037SOL    HW148944   7.106  13.037   0.298
49037SOL    HW248945   7.215  13.141   0.314
49038SOL     OW48946   4.209  13.600  10.225
49038SOL    HW148947   4.259  13.674  10.191
49038SOL    HW248948   4.197  13.543  10.149
49039SOL     OW48949   5.937   2.913   6.543
49039SOL    HW148950   6.008   2.858   6.510
49039SOL    HW248951   5.933   2.987   6.482
49040SOL     OW48952   4.098  13.646   2.536
49040SOL    HW148953   4.152  13.617   2.462
49040SOL    HW248954   4.052  13.567   2.563
49041SOL     OW48955   2.691   9.977   3.190
49041SOL    HW148956   2.669  10.029   3.268
49041SOL    HW248957   2.783   9.998   3.174
49042SOL     OW48958  14.644   1.962  14.820
49042SOL    HW148959  14.711   1.894  14.822
49042SOL    HW248960  14.577   1.929  14.760
49043SOL     OW48961  10.445   7.835   2.932
49043SOL    HW148962  10.399   7.870   3.008
49043SOL    HW248963  10.537   7.834   2.959
49044SOL     OW48964  14.697   8.248   6.078
49044SOL    HW148965  14.716   8.212   5.992
49044SOL    HW248966  14.602   8.240   6.087
49045SOL     OW48967  11.121   4.897   1.565
49045SOL    HW148968  11.141   4.963   1.632
49045SOL    HW248969  11.183   4.826   1.582
49046SOL     OW48970   4.824  14.823   0.813
49046SOL    HW148971   4.783  14.762   0.753
49046SOL    HW248972   4.759  14.837   0.882
49047SOL     OW48973   8.055   3.493   9.939
49047SOL    HW148974   8.053   3.549  10.017
49047SOL    HW248975   8.045   3.554   9.866
49048SOL     OW48976   1.991   4.972   2.306
49048SOL    HW148977   2.086   4.973   2.310
49048SOL    HW248978   1.965   4.917   2.380
49049SOL     OW48979   0.505  14.238  12.120
49049SOL    HW148980   0.590  14.201  12.095
49049SOL    HW248981   0.521  14.333  12.124
49050SOL     OW48982   1.148  11.955   9.628
49050SOL    HW148983   1.146  12.049   9.609
49050SOL    HW248984   1.082  11.918   9.569
49051SOL     OW48985   5.012   4.067   5.562
49051SOL    HW148986   5.052   4.034   5.643
49051SOL    HW248987   5.074   4.044   5.494
49052SOL     OW48988   1.417   7.530  12.632
49052SOL    HW148989   1.461   7.446  12.623
49052SOL    HW248990   1.370   7.542  12.550
49053SOL     OW48991   2.366   9.677   6.068
49053SOL    HW148992   2.338   9.714   5.984
49053SOL    HW248993   2.292   9.693   6.126
49054SOL     OW48994   3.767   1.418  13.194
49054SOL    HW148995   3.742   1.387  13.107
49054SOL    HW248996   3.726   1.504  13.202
49055SOL     OW48997   1.866   4.216  14.787
49055SOL    HW148998   1.932   4.147  14.792
49055SOL    HW248999   1.801   4.192  14.854
49056SOL     OW49000  12.713  13.612   8.036
49056SOL    HW149001  12.718  13.595   7.942
49056SOL    HW249002  12.780  13.556   8.074
49057SOL     OW49003   7.591   7.920  14.753
49057SOL    HW149004   7.512   7.971  14.736
49057SOL    HW249005   7.559   7.837  14.788
49058SOL     OW49006   7.707   8.798   0.413
49058SOL    HW149007   7.694   8.704   0.424
49058SOL    HW249008   7.801   8.808   0.396
49059SOL     OW49009   8.074  12.104   6.286
49059SOL    HW149010   8.037  12.075   6.203
49059SOL    HW249011   8.167  12.118   6.266
49060SOL     OW49012   1.947  10.586   7.091
49060SOL    HW149013   2.039  10.596   7.067
49060SOL    HW249014   1.913  10.676   7.095
49061SOL     OW49015   1.559   4.737  14.049
49061SOL    HW149016   1.561   4.642  14.040
49061SOL    HW249017   1.595   4.770  13.967
49062SOL     OW49018   3.959   5.120   9.585
49062SOL    HW149019   4.028   5.177   9.552
49062SOL    HW249020   4.005   5.045   9.622
49063SOL     OW49021  11.404  10.969  13.743
49063SOL    HW149022  11.496  10.970  13.717
49063SOL    HW249023  11.366  11.046  13.701
49064SOL     OW49024  11.916   5.371  12.460
49064SOL    HW149025  11.885   5.301  12.518
49064SOL    HW249026  11.868   5.449  12.487
49065SOL     OW49027   3.316   7.967   8.607
49065SOL    HW149028   3.349   7.909   8.538
49065SOL    HW249029   3.374   7.950   8.682
49066SOL     OW49030   5.041   6.152   7.205
49066SOL    HW149031   5.031   6.059   7.184
49066SOL    HW249032   5.051   6.154   7.300
49067SOL     OW49033  14.791   8.965   5.019
49067SOL    HW149034  14.774   9.001   5.106
49067SOL    HW249035  14.869   9.010   4.989
49068SOL     OW49036   0.172  13.818   6.817
49068SOL    HW149037   0.142  13.864   6.896
49068SOL    HW249038   0.265  13.841   6.811
49069SOL     OW49039  14.804   7.499  12.503
49069SOL    HW149040  14.781   7.578  12.551
49069SOL    HW249041  14.721   7.451  12.495
49070SOL     OW49042  10.760  13.679   6.528
49070SOL    HW149043  10.846  13.721   6.530
49070SOL    HW249044  10.747  13.647   6.617
49071SOL     OW49045   7.437   3.616   2.315
49071SOL    HW149046   7.456   3.604   2.408
49071SOL    HW249047   7.389   3.699   2.312
49072SOL     OW49048  14.854   0.681  13.308
49072SOL    HW149049   0.050   0.722  13.352
49072SOL    HW249050  14.789   0.668  13.377
49073SOL     OW49051   4.925  11.656  11.392
49073SOL    HW149052   4.952  11.740  11.354
49073SOL    HW249053   4.982  11.592  11.351
49074SOL     OW49054  11.016   8.029   0.060
49074SOL    HW149055  10.980   8.037   0.149
49074SOL    HW249056  10.944   8.053   0.003
49075SOL     OW49057   0.520   7.372   2.386
49075SOL    HW149058   0.587   7.439   2.397
49075SOL    HW249059   0.539   7.306   2.453
49076SOL     OW49060   4.817   0.203  12.796
49076SOL    HW149061   4.888   0.145  12.824
49076SOL    HW249062   4.762   0.148  12.741
49077SOL     OW49063   4.954  10.054   9.281
49077SOL    HW149064   4.894   9.983   9.304
49077SOL    HW249065   4.932  10.076   9.190
49078SOL     OW49066  12.215  12.902  12.072
49078SOL    HW149067  12.145  12.946  12.122
49078SOL    HW249068  12.169  12.838  12.019
49079SOL     OW49069   9.931   4.527   6.758
49079SOL    HW149070   9.944   4.621   6.773
49079SOL    HW249071   9.836   4.516   6.763
49080SOL     OW49072   5.738  12.221   5.006
49080SOL    HW149073   5.822  12.178   4.993
49080SOL    HW249074   5.757  12.315   4.999
49081SOL     OW49075   7.321   9.282   5.454
49081SOL    HW149076   7.266   9.215   5.495
49081SOL    HW249077   7.388   9.233   5.407
49082SOL     OW49078  10.108   5.249  10.760
49082SOL    HW149079  10.171   5.320  10.749
49082SOL    HW249080  10.134   5.207  10.842
49083SOL     OW49081   4.828  11.949  12.216
49083SOL    HW149082   4.900  12.012  12.226
49083SOL    HW249083   4.787  11.973  12.133
49084SOL     OW49084  13.734  11.303   5.460
49084SOL    HW149085  13.665  11.241   5.483
49084SOL    HW249086  13.705  11.342   5.378
49085SOL     OW49087   5.783   8.980   1.850
49085SOL    HW149088   5.785   8.978   1.754
49085SOL    HW249089   5.863   9.027   1.874
49086SOL     OW49090   1.317   4.854   8.355
49086SOL    HW149091   1.383   4.809   8.302
49086SOL    HW249092   1.366   4.886   8.431
49087SOL     OW49093  14.250  11.008   2.395
49087SOL    HW149094  14.224  10.936   2.338
49087SOL    HW249095  14.189  11.079   2.373
49088SOL     OW49096   2.200   3.186   8.508
49088SOL    HW149097   2.251   3.177   8.588
49088SOL    HW249098   2.143   3.261   8.524
49089SOL     OW49099  14.216   8.200   5.390
49089SOL    HW149100  14.222   8.189   5.295
49089SOL    HW249101  14.292   8.154   5.424
49090SOL     OW49102   5.078   0.037   4.769
49090SOL    HW149103   5.060   0.075   4.684
49090SOL    HW249104   5.004  14.857   4.785
49091SOL     OW49105  12.411   4.189   4.833
49091SOL    HW149106  12.413   4.207   4.927
49091SOL    HW249107  12.322   4.160   4.816
49092SOL     OW49108  12.309  10.725   8.616
49092SOL    HW149109  12.244  10.710   8.547
49092SOL    HW249110  12.385  10.674   8.588
49093SOL     OW49111   3.388  12.306  14.652
49093SOL    HW149112   3.404  12.393  14.615
49093SOL    HW249113   3.321  12.320  14.718
49094SOL     OW49114   5.887  14.583   0.427
49094SOL    HW149115   5.840  14.544   0.501
49094SOL    HW249116   5.977  14.593   0.458
49095SOL     OW49117  13.949   2.830   7.226
49095SOL    HW149118  13.931   2.778   7.305
49095SOL    HW249119  13.919   2.918   7.249
49096SOL     OW49120  14.202   2.434  13.272
49096SOL    HW149121  14.184   2.504  13.335
49096SOL    HW249122  14.148   2.361  13.302
49097SOL     OW49123   2.485  10.453  10.240
49097SOL    HW149124   2.513  10.376  10.191
49097SOL    HW249125   2.531  10.526  10.199
49098SOL     OW49126   3.010   0.582  12.701
49098SOL    HW149127   2.947   0.615  12.765
49098SOL    HW249128   3.082   0.644  12.704
49099SOL     OW49129   0.478   1.800   8.582
49099SOL    HW149130   0.514   1.713   8.564
49099SOL    HW249131   0.411   1.785   8.649
49100SOL     OW49132  10.075   2.325  10.669
49100SOL    HW149133  10.002   2.373  10.631
49100SOL    HW249134  10.106   2.380  10.741
49101SOL     OW49135   9.197  14.032   8.139
49101SOL    HW149136   9.281  13.993   8.164
49101SOL    HW249137   9.164  14.072   8.220
49102SOL     OW49138   6.385   3.365   8.179
49102SOL    HW149139   6.372   3.437   8.240
49102SOL    HW249140   6.367   3.286   8.231
49103SOL     OW49141  11.406  10.827   8.694
49103SOL    HW149142  11.357  10.746   8.709
49103SOL    HW249143  11.375  10.887   8.763
49104SOL     OW49144   3.066  13.608   2.781
49104SOL    HW149145   3.111  13.571   2.857
49104SOL    HW249146   3.125  13.590   2.708
49105SOL     OW49147   3.100   3.255  10.425
49105SOL    HW149148   3.126   3.225  10.338
49105SOL    HW249149   3.047   3.184  10.460
49106SOL     OW49150   7.700   9.526   2.911
49106SOL    HW149151   7.686   9.432   2.927
49106SOL    HW249152   7.795   9.536   2.913
49107SOL     OW49153  11.607   9.678  12.589
49107SOL    HW149154  11.532   9.643  12.541
49107SOL    HW249155  11.682   9.629  12.555
49108SOL     OW49156   4.237   8.616   1.832
49108SOL    HW149157   4.278   8.574   1.757
49108SOL    HW249158   4.303   8.677   1.864
49109SOL     OW49159   8.485   3.809   1.163
49109SOL    HW149160   8.456   3.770   1.245
49109SOL    HW249161   8.488   3.736   1.102
49110SOL     OW49162   9.546  13.270   4.517
49110SOL    HW149163   9.502  13.334   4.574
49110SOL    HW249164   9.568  13.198   4.575
49111SOL     OW49165   6.283   6.106  13.039
49111SOL    HW149166   6.280   6.199  13.060
49111SOL    HW249167   6.191   6.081  13.027
49112SOL     OW49168  10.133   5.552   0.549
49112SOL    HW149169  10.207   5.605   0.578
49112SOL    HW249170  10.171   5.489   0.487
49113SOL     OW49171   4.506   5.044  12.459
49113SOL    HW149172   4.479   5.125  12.502
49113SOL    HW249173   4.452   5.040  12.380
49114SOL     OW49174   9.027   1.185  14.663
49114SOL    HW149175   9.069   1.114  14.712
49114SOL    HW249176   9.013   1.149  14.575
49115SOL     OW49177   4.902  10.109   2.522
49115SOL    HW149178   4.934  10.187   2.568
49115SOL    HW249179   4.953  10.037   2.559
49116SOL     OW49180   2.219   9.903   4.547
49116SOL    HW149181   2.225   9.817   4.505
49116SOL    HW249182   2.304   9.944   4.529
49117SOL     OW49183   4.516   3.149   8.080
49117SOL    HW149184   4.608   3.172   8.094
49117SOL    HW249185   4.511   3.133   7.985
49118SOL     OW49186   5.851  12.939  10.765
49118SOL    HW149187   5.775  12.973  10.718
49118SOL    HW249188   5.815  12.906  10.847
49119SOL     OW49189  11.349   0.074   6.581
49119SOL    HW149190  11.440   0.046   6.572
49119SOL    HW249191  11.343   0.154   6.529
49120SOL     OW49192   4.369  11.997   7.984
49120SOL    HW149193   4.412  11.981   8.068
49120SOL    HW249194   4.427  11.956   7.920
49121SOL     OW49195  14.497  14.529   5.674
49121SOL    HW149196  14.430  14.467   5.646
49121SOL    HW249197  14.530  14.494   5.757
49122SOL     OW49198  13.710   7.646  13.724
49122SOL    HW149199  13.766   7.573  13.696
49122SOL    HW249200  13.638   7.604  13.770
49123SOL     OW49201   6.092   6.589   7.036
49123SOL    HW149202   6.175   6.545   7.020
49123SOL    HW249203   6.061   6.552   7.118
49124SOL     OW49204  11.576   9.111  12.893
49124SOL    HW149205  11.529   9.052  12.952
49124SOL    HW249206  11.658   9.066  12.873
49125SOL     OW49207  12.857   3.374   6.789
49125SOL    HW149208  12.865   3.283   6.818
49125SOL    HW249209  12.884   3.425   6.865
49126SOL     OW49210  13.132   4.626   0.517
49126SOL    HW149211  13.070   4.674   0.572
49126SOL    HW249212  13.185   4.694   0.476
49127SOL     OW49213   7.480  11.003  10.525
49127SOL    HW149214   7.482  11.060  10.449
49127SOL    HW249215   7.412  11.041  10.581
49128SOL     OW49216   7.004   8.994   7.440
49128SOL    HW149217   7.080   8.936   7.438
49128SOL    HW249218   7.012   9.046   7.360
49129SOL     OW49219   6.971  12.770   2.203
49129SOL    HW149220   6.887  12.740   2.167
49129SOL    HW249221   6.946  12.824   2.279
49130SOL     OW49222   7.652  13.878   9.274
49130SOL    HW149223   7.714  13.875   9.201
49130SOL    HW249224   7.695  13.930   9.341
49131SOL     OW49225  14.550   9.791  12.908
49131SOL    HW149226  14.631   9.792  12.856
49131SOL    HW249227  14.548   9.877  12.950
49132SOL     OW49228   2.437  13.399   9.676
49132SOL    HW149229   2.469  13.387   9.586
49132SOL    HW249230   2.468  13.321   9.723
49133SOL     OW49231   6.439   1.274  13.485
49133SOL    HW149232   6.360   1.291  13.433
49133SOL    HW249233   6.489   1.212  13.432
49134SOL     OW49234   3.444   3.255   1.053
49134SOL    HW149235   3.428   3.328   0.994
49134SOL    HW249236   3.408   3.284   1.137
49135SOL     OW49237   9.135   7.351   7.378
49135SOL    HW149238   9.051   7.396   7.366
49135SOL    HW249239   9.152   7.356   7.472
49136SOL     OW49240  11.832  12.836   0.375
49136SOL    HW149241  11.798  12.925   0.374
49136SOL    HW249242  11.754  12.781   0.383
49137SOL     OW49243   7.416   1.979  12.527
49137SOL    HW149244   7.362   2.052  12.558
49137SOL    HW249245   7.506   2.011  12.534
49138SOL     OW49246   0.481   6.421  11.142
49138SOL    HW149247   0.464   6.514  11.156
49138SOL    HW249248   0.570   6.407  11.173
49139SOL     OW49249  12.321  14.346   7.032
49139SOL    HW149250  12.408  14.308   7.023
49139SOL    HW249251  12.329  14.434   6.995
49140SOL     OW49252   0.598   5.336   5.657
49140SOL    HW149253   0.543   5.366   5.585
49140SOL    HW249254   0.581   5.242   5.663
49141SOL     OW49255   5.903   5.932   0.177
49141SOL    HW149256   5.946   5.848   0.192
49141SOL    HW249257   5.952   5.994   0.231
49142SOL     OW49258   8.727   2.271   7.820
49142SOL    HW149259   8.653   2.327   7.844
49142SOL    HW249260   8.694   2.182   7.830
49143SOL     OW49261  11.221   1.916   8.876
49143SOL    HW149262  11.171   1.865   8.940
49143SOL    HW249263  11.222   2.005   8.911
49144SOL     OW49264   3.314   5.871   1.425
49144SOL    HW149265   3.321   5.967   1.425
49144SOL    HW249266   3.247   5.852   1.360
49145SOL     OW49267   5.886   9.224   4.690
49145SOL    HW149268   5.817   9.158   4.696
49145SOL    HW249269   5.966   9.176   4.713
49146SOL     OW49270  12.739   6.122   1.288
49146SOL    HW149271  12.680   6.054   1.321
49146SOL    HW249272  12.683   6.199   1.277
49147SOL     OW49273   8.412   1.103   8.723
49147SOL    HW149274   8.471   1.092   8.797
49147SOL    HW249275   8.356   1.026   8.725
49148SOL     OW49276   0.142  13.743   2.730
49148SOL    HW149277   0.086  13.743   2.807
49148SOL    HW249278   0.148  13.651   2.704
49149SOL     OW49279   2.578  14.403   3.532
49149SOL    HW149280   2.527  14.481   3.552
49149SOL    HW249281   2.652  14.406   3.593
49150SOL     OW49282  12.059   5.333   7.572
49150SOL    HW149283  12.141   5.284   7.567
49150SOL    HW249284  12.004   5.282   7.631
49151SOL     OW49285   3.308   1.327   5.281
49151SOL    HW149286   3.395   1.362   5.302
49151SOL    HW249287   3.250   1.364   5.347
49152SOL     OW49288   4.513   1.061   5.034
49152SOL    HW149289   4.449   1.002   4.995
49152SOL    HW249290   4.567   1.090   4.960
49153SOL     OW49291   6.902   9.242  10.318
49153SOL    HW149292   6.827   9.228  10.259
49153SOL    HW249293   6.963   9.172  10.296
49154SOL     OW49294   6.560   5.872  10.784
49154SOL    HW149295   6.502   5.795  10.786
49154SOL    HW249296   6.510   5.937  10.734
49155SOL     OW49297  13.232  13.426   3.474
49155SOL    HW149298  13.224  13.519   3.455
49155SOL    HW249299  13.261  13.387   3.392
49156SOL     OW49300  11.270  13.246  12.660
49156SOL    HW149301  11.355  13.288  12.645
49156SOL    HW249302  11.215  13.280  12.589
49157SOL     OW49303  14.502   1.499   7.292
49157SOL    HW149304  14.430   1.506   7.228
49157SOL    HW249305  14.523   1.590   7.314
49158SOL     OW49306   2.660   1.638  10.995
49158SOL    HW149307   2.675   1.713  11.052
49158SOL    HW249308   2.568   1.616  11.009
49159SOL     OW49309  14.445   6.699  10.003
49159SOL    HW149310  14.383   6.763  10.036
49159SOL    HW249311  14.481   6.657  10.082
49160SOL     OW49312   4.444   8.650   6.603
49160SOL    HW149313   4.534   8.619   6.591
49160SOL    HW249314   4.391   8.593   6.547
49161SOL     OW49315   8.755   8.138   4.636
49161SOL    HW149316   8.704   8.077   4.583
49161SOL    HW249317   8.692   8.172   4.700
49162SOL     OW49318   2.199   3.474  10.210
49162SOL    HW149319   2.195   3.458  10.304
49162SOL    HW249320   2.222   3.390  10.172
49163SOL     OW49321   6.069   8.661  12.949
49163SOL    HW149322   6.125   8.608  12.893
49163SOL    HW249323   6.096   8.640  13.038
49164SOL     OW49324   6.874   8.442   9.115
49164SOL    HW149325   6.790   8.396   9.119
49164SOL    HW249326   6.855   8.529   9.152
49165SOL     OW49327  12.401   7.781   5.343
49165SOL    HW149328  12.386   7.706   5.401
49165SOL    HW249329  12.410   7.856   5.403
49166SOL     OW49330   5.533   8.053   4.983
49166SOL    HW149331   5.536   7.961   5.007
49166SOL    HW249332   5.621   8.073   4.950
49167SOL     OW49333   3.367  14.495   9.081
49167SOL    HW149334   3.456  14.464   9.095
49167SOL    HW249335   3.312  14.419   9.102
49168SOL     OW49336   0.477   2.617   8.627
49168SOL    HW149337   0.402   2.676   8.622
49168SOL    HW249338   0.546   2.661   8.577
49169SOL     OW49339  13.745   6.148   9.333
49169SOL    HW149340  13.704   6.152   9.246
49169SOL    HW249341  13.787   6.063   9.336
49170SOL     OW49342   8.360  11.283  13.520
49170SOL    HW149343   8.371  11.303  13.613
49170SOL    HW249344   8.448  11.293  13.482
49171SOL     OW49345   9.167   6.459   0.067
49171SOL    HW149346   9.152   6.365   0.080
49171SOL    HW249347   9.153   6.472  14.852
49172SOL     OW49348   7.906   0.113   3.743
49172SOL    HW149349   7.974   0.047   3.757
49172SOL    HW249350   7.825   0.069   3.767
49173SOL     OW49351   4.460   7.454   5.702
49173SOL    HW149352   4.523   7.514   5.742
49173SOL    HW249353   4.493   7.367   5.723
49174SOL     OW49354  11.037  14.015   8.705
49174SOL    HW149355  10.991  14.064   8.774
49174SOL    HW249356  11.066  14.083   8.644
49175SOL     OW49357   3.552  12.702   1.215
49175SOL    HW149358   3.640  12.707   1.253
49175SOL    HW249359   3.522  12.614   1.236
49176SOL     OW49360   8.611   9.173   6.077
49176SOL    HW149361   8.598   9.254   6.127
49176SOL    HW249362   8.546   9.113   6.112
49177SOL     OW49363   5.604  14.694   6.462
49177SOL    HW149364   5.667  14.626   6.438
49177SOL    HW249365   5.649  14.776   6.442
49178SOL     OW49366   5.161  10.400   3.559
49178SOL    HW149367   5.072  10.366   3.553
49178SOL    HW249368   5.202  10.352   3.631
49179SOL     OW49369  10.463   7.955   4.107
49179SOL    HW149370  10.485   8.043   4.139
49179SOL    HW249371  10.388   7.929   4.160
49180SOL     OW49372  10.960   9.694  11.048
49180SOL    HW149373  10.945   9.775  11.000
49180SOL    HW249374  11.012   9.640  10.988
49181SOL     OW49375   8.389   5.526   2.774
49181SOL    HW149376   8.310   5.579   2.763
49181SOL    HW249377   8.458   5.589   2.794
49182SOL     OW49378   5.374   8.305   6.506
49182SOL    HW149379   5.429   8.234   6.539
49182SOL    HW249380   5.377   8.372   6.574
49183SOL     OW49381  14.477  10.215   0.540
49183SOL    HW149382  14.491  10.131   0.583
49183SOL    HW249383  14.390  10.243   0.569
49184SOL     OW49384   7.233   8.472   3.937
49184SOL    HW149385   7.224   8.506   4.026
49184SOL    HW249386   7.275   8.543   3.888
49185SOL     OW49387  14.760   7.307   2.107
49185SOL    HW149388  14.787   7.354   2.186
49185SOL    HW249389  14.842   7.292   2.060
49186SOL     OW49390   0.262   3.702   0.147
49186SOL    HW149391   0.227   3.705   0.237
49186SOL    HW249392   0.351   3.668   0.157
49187SOL     OW49393   3.793  13.688   8.114
49187SOL    HW149394   3.851  13.621   8.079
49187SOL    HW249395   3.706  13.648   8.112
49188SOL     OW49396   2.918   6.333  14.877
49188SOL    HW149397   2.866   6.412  14.861
49188SOL    HW249398   2.908   6.315   0.091
49189SOL     OW49399   2.000  11.396   1.331
49189SOL    HW149400   1.947  11.428   1.257
49189SOL    HW249401   2.075  11.455   1.334
49190SOL     OW49402   4.534   6.319   5.346
49190SOL    HW149403   4.484   6.306   5.426
49190SOL    HW249404   4.605   6.378   5.372
49191SOL     OW49405   8.807  12.271   6.426
49191SOL    HW149406   8.743  12.306   6.364
49191SOL    HW249407   8.754  12.223   6.490
49192SOL     OW49408   3.977  13.087  11.992
49192SOL    HW149409   3.886  13.089  11.963
49192SOL    HW249410   3.994  13.174  12.028
49193SOL     OW49411  13.814   7.491   9.435
49193SOL    HW149412  13.862   7.516   9.357
49193SOL    HW249413  13.879   7.498   9.506
49194SOL     OW49414  10.527  14.761   3.574
49194SOL    HW149415  10.465  14.715   3.518
49194SOL    HW249416  10.604  14.774   3.519
49195SOL     OW49417  12.206   7.160   8.816
49195SOL    HW149418  12.181   7.068   8.818
49195SOL    HW249419  12.292   7.161   8.774
49196SOL     OW49420  14.211   0.102  10.628
49196SOL    HW149421  14.258   0.020  10.615
49196SOL    HW249422  14.121   0.082  10.602
49197SOL     OW49423   8.281  12.019  13.463
49197SOL    HW149424   8.364  11.977  13.485
49197SOL    HW249425   8.240  12.037  13.548
49198SOL     OW49426  11.196   1.420   4.253
49198SOL    HW149427  11.265   1.439   4.316
49198SOL    HW249428  11.194   1.497   4.196
49199SOL     OW49429   3.979   9.349   8.733
49199SOL    HW149430   3.893   9.361   8.694
49199SOL    HW249431   4.003   9.436   8.766
49200SOL     OW49432   4.667   7.434   9.985
49200SOL    HW149433   4.681   7.449   9.892
49200SOL    HW249434   4.747   7.390  10.015
49201SOL     OW49435   5.665   6.716  11.004
49201SOL    HW149436   5.634   6.754  11.086
49201SOL    HW249437   5.586   6.707  10.950
49202SOL     OW49438   0.458  10.348   0.926
49202SOL    HW149439   0.439  10.396   0.845
49202SOL    HW249440   0.374  10.341   0.969
49203SOL     OW49441  11.740   1.560  11.894
49203SOL    HW149442  11.832   1.576  11.871
49203SOL    HW249443  11.730   1.466  11.887
49204SOL     OW49444   3.006   4.138   0.470
49204SOL    HW149445   3.047   4.203   0.526
49204SOL    HW249446   2.980   4.068   0.530
49205SOL     OW49447  12.199  10.527  11.727
49205SOL    HW149448  12.246  10.475  11.662
49205SOL    HW249449  12.265  10.549  11.792
49206SOL     OW49450  11.743   7.677   1.048
49206SOL    HW149451  11.665   7.646   1.003
49206SOL    HW249452  11.726   7.658   1.140
49207SOL     OW49453   6.807   1.260  10.405
49207SOL    HW149454   6.839   1.186  10.353
49207SOL    HW249455   6.733   1.295  10.355
49208SOL     OW49456  13.192   9.816   4.341
49208SOL    HW149457  13.111   9.864   4.325
49208SOL    HW249458  13.164   9.739   4.390
49209SOL     OW49459   6.133   3.063   1.925
49209SOL    HW149460   6.098   3.005   1.993
49209SOL    HW249461   6.064   3.129   1.913
49210SOL     OW49462  14.781   0.314   3.602
49210SOL    HW149463  14.867   0.354   3.586
49210SOL    HW249464  14.780   0.238   3.545
49211SOL     OW49465   2.417  13.733   3.620
49211SOL    HW149466   2.328  13.768   3.624
49211SOL    HW249467   2.405  13.639   3.610
49212SOL     OW49468   7.532   2.155  12.966
49212SOL    HW149469   7.452   2.164  13.018
49212SOL    HW249470   7.533   2.063  12.940
49213SOL     OW49471  11.408   7.858   8.877
49213SOL    HW149472  11.314   7.877   8.869
49213SOL    HW249473  11.419   7.830   8.968
49214SOL     OW49474  14.225   9.489   4.677
49214SOL    HW149475  14.302   9.457   4.631
49214SOL    HW249476  14.210   9.577   4.641
49215SOL     OW49477   3.949   3.827  10.341
49215SOL    HW149478   3.921   3.736  10.345
49215SOL    HW249479   3.966   3.851  10.432
49216SOL     OW49480   5.440   7.707  13.807
49216SOL    HW149481   5.516   7.757  13.836
49216SOL    HW249482   5.367   7.768  13.815
49217SOL     OW49483   9.515   9.312   2.524
49217SOL    HW149484   9.525   9.407   2.527
49217SOL    HW249485   9.596   9.278   2.563
49218SOL     OW49486  13.712   7.322  10.472
49218SOL    HW149487  13.764   7.251  10.433
49218SOL    HW249488  13.778   7.385  10.502
49219SOL     OW49489   5.472   5.307   9.998
49219SOL    HW149490   5.492   5.384  10.052
49219SOL    HW249491   5.529   5.238  10.031
49220SOL     OW49492   5.941  14.504   6.183
49220SOL    HW149493   5.998  14.481   6.109
49220SOL    HW249494   5.990  14.572   6.229
49221SOL     OW49495   0.360  14.737   7.058
49221SOL    HW149496   0.439  14.755   7.007
49221SOL    HW249497   0.288  14.761   7.000
49222SOL     OW49498   6.740  12.565   0.586
49222SOL    HW149499   6.710  12.480   0.619
49222SOL    HW249500   6.744  12.554   0.491
49223SOL     OW49501   1.034   6.992   6.111
49223SOL    HW149502   0.987   7.012   6.030
49223SOL    HW249503   1.061   7.078   6.144
49224SOL     OW49504  13.031   7.053   3.022
49224SOL    HW149505  13.030   6.998   2.943
49224SOL    HW249506  13.080   7.131   2.996
49225SOL     OW49507   5.769   7.131   1.603
49225SOL    HW149508   5.702   7.137   1.536
49225SOL    HW249509   5.815   7.049   1.583
49226SOL     OW49510   3.086   0.956  10.783
49226SOL    HW149511   3.115   0.968  10.692
49226SOL    HW249512   3.075   1.045  10.816
49227SOL     OW49513   9.721   7.322   3.622
49227SOL    HW149514   9.802   7.329   3.673
49227SOL    HW249515   9.742   7.260   3.552
49228SOL     OW49516  13.124   1.501   1.276
49228SOL    HW149517  13.141   1.417   1.233
49228SOL    HW249518  13.029   1.512   1.269
49229SOL     OW49519  13.522   3.781   8.287
49229SOL    HW149520  13.573   3.857   8.262
49229SOL    HW249521  13.436   3.795   8.248
49230SOL     OW49522   4.023   7.922   2.918
49230SOL    HW149523   3.937   7.915   2.958
49230SOL    HW249524   4.016   7.994   2.856
49231SOL     OW49525  14.675   0.805   1.945
49231SOL    HW149526  14.619   0.733   1.971
49231SOL    HW249527  14.739   0.766   1.885
49232SOL     OW49528   4.314   4.036   8.339
49232SOL    HW149529   4.267   4.093   8.278
49232SOL    HW249530   4.261   3.956   8.344
49233SOL     OW49531   7.381   4.554   3.048
49233SOL    HW149532   7.437   4.491   3.002
49233SOL    HW249533   7.442   4.613   3.092
49234SOL     OW49534   5.672   1.898   4.365
49234SOL    HW149535   5.711   1.826   4.315
49234SOL    HW249536   5.659   1.863   4.453
49235SOL     OW49537   0.514   9.207   3.598
49235SOL    HW149538   0.514   9.134   3.536
49235SOL    HW249539   0.537   9.166   3.682
49236SOL     OW49540   0.106   6.890   4.588
49236SOL    HW149541   0.018   6.873   4.622
49236SOL    HW249542   0.159   6.819   4.624
49237SOL     OW49543  12.373  13.419   0.502
49237SOL    HW149544  12.336  13.379   0.581
49237SOL    HW249545  12.449  13.364   0.481
49238SOL     OW49546   5.469  11.488   3.289
49238SOL    HW149547   5.561  11.460   3.289
49238SOL    HW249548   5.423  11.420   3.337
49239SOL     OW49549   8.585   8.282  13.968
49239SOL    HW149550   8.490   8.277  13.957
49239SOL    HW249551   8.610   8.195  14.001
49240SOL     OW49552  14.282   9.236   9.816
49240SOL    HW149553  14.319   9.192   9.740
49240SOL    HW249554  14.355   9.286   9.853
49241SOL     OW49555   5.643   6.782   1.476
49241SOL    HW149556   5.722   6.833   1.463
49241SOL    HW249557   5.664   6.696   1.439
49242SOL     OW49558  12.596  10.821  10.424
49242SOL    HW149559  12.642  10.871  10.491
49242SOL    HW249560  12.536  10.884  10.384
49243SOL     OW49561   3.295  10.550   0.171
49243SOL    HW149562   3.354  10.515   0.237
49243SOL    HW249563   3.224  10.486   0.165
49244SOL     OW49564  13.785  11.303   3.330
49244SOL    HW149565  13.709  11.264   3.374
49244SOL    HW249566  13.828  11.229   3.287
49245SOL     OW49567  13.716   4.698   1.158
49245SOL    HW149568  13.785   4.696   1.224
49245SOL    HW249569  13.635   4.695   1.209
49246SOL     OW49570  11.779   2.283   0.317
49246SOL    HW149571  11.792   2.233   0.397
49246SOL    HW249572  11.691   2.260   0.288
49247SOL     OW49573   5.215   9.073   4.542
49247SOL    HW149574   5.154   9.022   4.596
49247SOL    HW249575   5.164   9.149   4.513
49248SOL     OW49576   2.184   1.426  14.602
49248SOL    HW149577   2.233   1.495  14.558
49248SOL    HW249578   2.251   1.368  14.639
49249SOL     OW49579   9.161  14.169  11.240
49249SOL    HW149580   9.113  14.226  11.300
49249SOL    HW249581   9.247  14.157  11.282
49250SOL     OW49582   0.269   8.167   0.168
49250SOL    HW149583   0.192   8.225   0.169
49250SOL    HW249584   0.331   8.209   0.228
49251SOL     OW49585   6.072   3.615  13.531
49251SOL    HW149586   6.016   3.602  13.608
49251SOL    HW249587   6.114   3.700  13.545
49252SOL     OW49588  10.466  10.235   1.665
49252SOL    HW149589  10.447  10.141   1.674
49252SOL    HW249590  10.400  10.266   1.603
49253SOL     OW49591  14.266   4.068   1.519
49253SOL    HW149592  14.331   4.112   1.463
49253SOL    HW249593  14.199   4.134   1.535
49254SOL     OW49594  14.843   9.331   8.696
49254SOL    HW149595  14.768   9.386   8.675
49254SOL    HW249596  14.842   9.324   8.792
49255SOL     OW49597  13.773   3.877  10.827
49255SOL    HW149598  13.818   3.882  10.743
49255SOL    HW249599  13.768   3.783  10.846
49256SOL     OW49600   0.843   9.285   9.308
49256SOL    HW149601   0.809   9.322   9.226
49256SOL    HW249602   0.826   9.191   9.301
49257SOL     OW49603  12.698   5.353   4.905
49257SOL    HW149604  12.635   5.380   4.973
49257SOL    HW249605  12.661   5.273   4.869
49258SOL     OW49606   1.551   3.706  12.771
49258SOL    HW149607   1.620   3.722  12.707
49258SOL    HW249608   1.490   3.779  12.760
49259SOL     OW49609  10.324  13.037   1.253
49259SOL    HW149610  10.326  13.051   1.348
49259SOL    HW249611  10.314  12.942   1.244
49260SOL     OW49612   4.483  13.385   6.934
49260SOL    HW149613   4.413  13.329   6.899
49260SOL    HW249614   4.555  13.373   6.872
49261SOL     OW49615   4.030  11.726   7.965
49261SOL    HW149616   4.065  11.802   7.919
49261SOL    HW249617   3.969  11.686   7.903
49262SOL     OW49618   1.280  11.761   3.702
49262SOL    HW149619   1.214  11.831   3.696
49262SOL    HW249620   1.331  11.770   3.622
49263SOL     OW49621   8.139  11.836   5.697
49263SOL    HW149622   8.136  11.895   5.622
49263SOL    HW249623   8.190  11.883   5.763
49264SOL     OW49624  10.846  14.028   3.893
49264SOL    HW149625  10.817  13.978   3.817
49264SOL    HW249626  10.822  14.119   3.873
49265SOL     OW49627  10.171   8.773   8.492
49265SOL    HW149628  10.187   8.736   8.578
49265SOL    HW249629  10.140   8.700   8.439
49266SOL     OW49630   2.664  10.133   3.920
49266SOL    HW149631   2.629  10.207   3.870
49266SOL    HW249632   2.731  10.095   3.864
49267SOL     OW49633   2.375   6.823   1.993
49267SOL    HW149634   2.456   6.873   2.002
49267SOL    HW249635   2.305   6.887   2.005
49268SOL     OW49636  13.484   9.823  12.293
49268SOL    HW149637  13.488   9.850  12.385
49268SOL    HW249638  13.575   9.800  12.271
49269SOL     OW49639  13.416   1.056   5.731
49269SOL    HW149640  13.427   1.021   5.643
49269SOL    HW249641  13.342   1.007   5.767
49270SOL     OW49642  14.849  14.314  10.762
49270SOL    HW149643   0.028  14.280  10.694
49270SOL    HW249644  14.818  14.397  10.729
49271SOL     OW49645   3.822   8.243   6.569
49271SOL    HW149646   3.903   8.192   6.575
49271SOL    HW249647   3.824   8.300   6.646
49272SOL     OW49648   6.445  14.086   2.427
49272SOL    HW149649   6.416  14.167   2.468
49272SOL    HW249650   6.376  14.064   2.365
49273SOL     OW49651   5.598   1.837   0.077
49273SOL    HW149652   5.645   1.813   0.156
49273SOL    HW249653   5.512   1.796   0.087
49274SOL     OW49654   8.435   3.373   6.758
49274SOL    HW149655   8.439   3.323   6.676
49274SOL    HW249656   8.514   3.348   6.806
49275SOL     OW49657   7.196   4.489   3.965
49275SOL    HW149658   7.162   4.408   4.002
49275SOL    HW249659   7.213   4.468   3.873
49276SOL     OW49660  14.069   9.211   1.405
49276SOL    HW149661  14.125   9.169   1.471
49276SOL    HW249662  13.996   9.151   1.394
49277SOL     OW49663  12.204   4.148   8.162
49277SOL    HW149664  12.293   4.181   8.151
49277SOL    HW249665  12.200   4.121   8.254
49278SOL     OW49666   5.697   0.411   8.559
49278SOL    HW149667   5.667   0.326   8.591
49278SOL    HW249668   5.694   0.403   8.464
49279SOL     OW49669   0.883   0.164   7.283
49279SOL    HW149670   0.793   0.132   7.292
49279SOL    HW249671   0.937   0.087   7.302
49280SOL     OW49672   9.595   0.506  11.088
49280SOL    HW149673   9.667   0.462  11.133
49280SOL    HW249674   9.608   0.599  11.106
49281SOL     OW49675   7.360   9.547   3.589
49281SOL    HW149676   7.270   9.514   3.589
49281SOL    HW249677   7.352   9.640   3.566
49282SOL     OW49678   5.011   1.526  14.306
49282SOL    HW149679   4.942   1.463  14.289
49282SOL    HW249680   5.027   1.519  14.400
49283SOL     OW49681   6.143   5.619   4.902
49283SOL    HW149682   6.224   5.625   4.952
49283SOL    HW249683   6.154   5.542   4.847
49284SOL     OW49684   5.364  14.093  10.578
49284SOL    HW149685   5.450  14.113  10.616
49284SOL    HW249686   5.305  14.157  10.618
49285SOL     OW49687  12.684   1.025  13.373
49285SOL    HW149688  12.693   1.041  13.467
49285SOL    HW249689  12.672   1.112  13.335
49286SOL     OW49690   2.029  14.461  11.370
49286SOL    HW149691   2.115  14.502  11.382
49286SOL    HW249692   2.017  14.460  11.275
49287SOL     OW49693   3.555   2.233  14.039
49287SOL    HW149694   3.649   2.220  14.056
49287SOL    HW249695   3.513   2.208  14.121
49288SOL     OW49696   8.790  14.218   6.321
49288SOL    HW149697   8.831  14.177   6.397
49288SOL    HW249698   8.798  14.312   6.337
49289SOL     OW49699   6.277  12.414  10.675
49289SOL    HW149700   6.355  12.434  10.726
49289SOL    HW249701   6.213  12.480  10.704
49290SOL     OW49702  12.448   0.239   7.840
49290SOL    HW149703  12.481   0.151   7.861
49290SOL    HW249704  12.353   0.228   7.832
49291SOL     OW49705   5.235  14.023  12.604
49291SOL    HW149706   5.305  14.088  12.603
49291SOL    HW249707   5.184  14.040  12.525
49292SOL     OW49708   3.075   4.041   2.834
49292SOL    HW149709   3.163   4.019   2.864
49292SOL    HW249710   3.075   4.136   2.825
49293SOL     OW49711   4.828   1.090  14.431
49293SOL    HW149712   4.761   1.079  14.365
49293SOL    HW249713   4.887   1.016  14.418
49294SOL     OW49714  14.068   2.296   9.311
49294SOL    HW149715  14.001   2.320   9.374
49294SOL    HW249716  14.128   2.239   9.360
49295SOL     OW49717   1.847  11.339  14.527
49295SOL    HW149718   1.902  11.286  14.469
49295SOL    HW249719   1.781  11.277  14.560
49296SOL     OW49720  14.799   0.521   2.722
49296SOL    HW149721  14.737   0.530   2.795
49296SOL    HW249722  14.863   0.457   2.753
49297SOL     OW49723   5.650   2.032   0.423
49297SOL    HW149724   5.584   2.102   0.430
49297SOL    HW249725   5.602   1.952   0.443
49298SOL     OW49726   9.251  10.121  14.220
49298SOL    HW149727   9.170  10.171  14.210
49298SOL    HW249728   9.227  10.031  14.200
49299SOL     OW49729   0.894   6.404   5.351
49299SOL    HW149730   0.830   6.379   5.284
49299SOL    HW249731   0.949   6.470   5.309
49300SOL     OW49732  13.760   6.975   0.134
49300SOL    HW149733  13.672   6.994   0.102
49300SOL    HW249734  13.794   6.909   0.074
49301SOL     OW49735   2.581   3.420   5.658
49301SOL    HW149736   2.560   3.471   5.579
49301SOL    HW249737   2.513   3.353   5.662
49302SOL     OW49738  12.198   9.184   1.761
49302SOL    HW149739  12.106   9.193   1.736
49302SOL    HW249740  12.197   9.189   1.857
49303SOL     OW49741  11.828   6.362   3.310
49303SOL    HW149742  11.871   6.397   3.388
49303SOL    HW249743  11.766   6.431   3.284
49304SOL     OW49744   0.292   3.104   7.629
49304SOL    HW149745   0.235   3.177   7.606
49304SOL    HW249746   0.359   3.143   7.685
49305SOL     OW49747   5.012  11.508   8.045
49305SOL    HW149748   4.997  11.414   8.036
49305SOL    HW249749   5.102  11.520   8.014
49306SOL     OW49750   0.917   8.926   8.298
49306SOL    HW149751   0.844   8.891   8.350
49306SOL    HW249752   0.902   9.020   8.297
49307SOL     OW49753   6.744   9.258   0.149
49307SOL    HW149754   6.658   9.291   0.174
49307SOL    HW249755   6.725   9.187   0.088
49308SOL     OW49756  10.461   0.058   0.489
49308SOL    HW149757  10.545   0.028   0.455
49308SOL    HW249758  10.478   0.147   0.520
49309SOL     OW49759   5.126   4.245   1.302
49309SOL    HW149760   5.133   4.308   1.373
49309SOL    HW249761   5.073   4.290   1.236
49310SOL     OW49762  13.843   3.560   2.312
49310SOL    HW149763  13.895   3.629   2.272
49310SOL    HW249764  13.868   3.480   2.266
49311SOL     OW49765   4.742   5.708   2.446
49311SOL    HW149766   4.743   5.627   2.395
49311SOL    HW249767   4.652   5.717   2.475
49312SOL     OW49768   2.093  12.354   3.287
49312SOL    HW149769   2.122  12.298   3.215
49312SOL    HW249770   2.121  12.442   3.263
49313SOL     OW49771   9.803   1.078   8.572
49313SOL    HW149772   9.824   1.158   8.524
49313SOL    HW249773   9.752   1.109   8.648
49314SOL     OW49774   1.804  14.502   2.303
49314SOL    HW149775   1.822  14.410   2.322
49314SOL    HW249776   1.708  14.508   2.302
49315SOL     OW49777  13.805   1.520   9.037
49315SOL    HW149778  13.816   1.595   9.096
49315SOL    HW249779  13.785   1.447   9.095
49316SOL     OW49780   4.889   9.061   0.742
49316SOL    HW149781   4.929   9.147   0.726
49316SOL    HW249782   4.888   9.018   0.657
49317SOL     OW49783   7.142  14.723   8.767
49317SOL    HW149784   7.234  14.724   8.791
49317SOL    HW249785   7.102  14.788   8.826
49318SOL     OW49786   1.363  12.163   4.697
49318SOL    HW149787   1.339  12.146   4.788
49318SOL    HW249788   1.305  12.105   4.646
49319SOL     OW49789  11.641   1.329   9.394
49319SOL    HW149790  11.691   1.264   9.442
49319SOL    HW249791  11.623   1.287   9.310
49320SOL     OW49792   0.262   5.806  12.732
49320SOL    HW149793   0.337   5.859  12.759
49320SOL    HW249794   0.291   5.760  12.653
49321SOL     OW49795   6.617   2.059  10.067
49321SOL    HW149796   6.543   2.050  10.007
49321SOL    HW249797   6.637   2.152  10.067
49322SOL     OW49798   9.211  11.887   2.528
49322SOL    HW149799   9.158  11.808   2.525
49322SOL    HW249800   9.277  11.875   2.460
49323SOL     OW49801  14.264   7.272  10.381
49323SOL    HW149802  14.234   7.192  10.424
49323SOL    HW249803  14.183   7.315  10.351
49324SOL     OW49804   2.354   5.340  10.549
49324SOL    HW149805   2.377   5.431  10.532
49324SOL    HW249806   2.260   5.335  10.534
49325SOL     OW49807   0.584   9.671  13.783
49325SOL    HW149808   0.652   9.687  13.718
49325SOL    HW249809   0.524   9.745  13.773
49326SOL     OW49810   6.910   3.026  13.089
49326SOL    HW149811   6.952   2.952  13.045
49326SOL    HW249812   6.845   3.057  13.026
49327SOL     OW49813   4.471  13.454   6.365
49327SOL    HW149814   4.475  13.468   6.270
49327SOL    HW249815   4.549  13.401   6.384
49328SOL     OW49816  14.369   3.899   6.669
49328SOL    HW149817  14.340   3.940   6.588
49328SOL    HW249818  14.306   3.927   6.735
49329SOL     OW49819  12.924  10.655   7.792
49329SOL    HW149820  12.888  10.568   7.808
49329SOL    HW249821  12.893  10.678   7.704
49330SOL     OW49822   2.696  12.815  13.619
49330SOL    HW149823   2.737  12.760  13.553
49330SOL    HW249824   2.755  12.889  13.629
49331SOL     OW49825  13.155   2.740  14.858
49331SOL    HW149826  13.075   2.696  14.828
49331SOL    HW249827  13.214   2.735  14.783
49332SOL     OW49828   5.865   2.590   9.045
49332SOL    HW149829   5.926   2.524   9.080
49332SOL    HW249830   5.824   2.548   8.970
49333SOL     OW49831   9.539   1.386   9.973
49333SOL    HW149832   9.599   1.312   9.988
49333SOL    HW249833   9.467   1.348   9.923
49334SOL     OW49834  13.310  12.116  14.351
49334SOL    HW149835  13.220  12.126  14.321
49334SOL    HW249836  13.303  12.107  14.446
49335SOL     OW49837   1.613   1.044   7.968
49335SOL    HW149838   1.590   1.078   8.054
49335SOL    HW249839   1.545   0.979   7.949
49336SOL     OW49840   1.449   5.345   0.508
49336SOL    HW149841   1.409   5.267   0.546
49336SOL    HW249842   1.500   5.312   0.434
49337SOL     OW49843  13.803  13.365   8.166
49337SOL    HW149844  13.831  13.442   8.116
49337SOL    HW249845  13.803  13.395   8.257
49338SOL     OW49846   6.021   3.731   9.554
49338SOL    HW149847   5.977   3.694   9.477
49338SOL    HW249848   6.059   3.655   9.598
49339SOL     OW49849  12.407  10.578  12.546
49339SOL    HW149850  12.436  10.487  12.548
49339SOL    HW249851  12.328  10.580  12.600
49340SOL     OW49852   4.590  12.403   1.801
49340SOL    HW149853   4.616  12.321   1.842
49340SOL    HW249854   4.659  12.420   1.736
49341SOL     OW49855   1.387   5.679   7.858
49341SOL    HW149856   1.414   5.637   7.776
49341SOL    HW249857   1.466   5.683   7.911
49342SOL     OW49858   3.906   3.817  12.235
49342SOL    HW149859   3.874   3.744  12.287
49342SOL    HW249860   3.920   3.887  12.299
49343SOL     OW49861   8.485  11.572  14.402
49343SOL    HW149862   8.570  11.527  14.404
49343SOL    HW249863   8.477  11.603  14.312
49344SOL     OW49864  14.019   4.885   8.816
49344SOL    HW149865  14.001   4.978   8.804
49344SOL    HW249866  13.978   4.843   8.741
49345SOL     OW49867   5.139  13.990  13.902
49345SOL    HW149868   5.095  14.075  13.898
49345SOL    HW249869   5.155  13.968  13.810
49346SOL     OW49870  12.998   5.699   6.184
49346SOL    HW149871  13.070   5.655   6.139
49346SOL    HW249872  12.958   5.754   6.117
49347SOL     OW49873   0.466   6.466   3.474
49347SOL    HW149874   0.436   6.470   3.565
49347SOL    HW249875   0.553   6.426   3.479
49348SOL     OW49876   7.079   7.800   8.917
49348SOL    HW149877   7.124   7.764   8.840
49348SOL    HW249878   6.989   7.812   8.889
49349SOL     OW49879  14.444  11.451   5.586
49349SOL    HW149880  14.384  11.376   5.581
49349SOL    HW249881  14.411  11.503   5.659
49350SOL     OW49882   6.345  14.785   8.918
49350SOL    HW149883   6.328  14.817   9.007
49350SOL    HW249884   6.328  14.690   8.924
49351SOL     OW49885   4.197   9.234  14.869
49351SOL    HW149886   4.106   9.264  14.859
49351SOL    HW249887   4.191   9.155   0.044
49352SOL     OW49888   6.145   4.400   7.499
49352SOL    HW149889   6.167   4.444   7.417
49352SOL    HW249890   6.119   4.470   7.559
49353SOL     OW49891   8.627  10.278  13.118
49353SOL    HW149892   8.543  10.292  13.162
49353SOL    HW249893   8.629  10.184  13.100
49354SOL     OW49894  13.916   3.329   1.244
49354SOL    HW149895  13.942   3.273   1.317
49354SOL    HW249896  13.936   3.418   1.273
49355SOL     OW49897   5.730   5.837   4.355
49355SOL    HW149898   5.747   5.848   4.261
49355SOL    HW249899   5.734   5.926   4.390
49356SOL     OW49900   2.320  11.214   3.189
49356SOL    HW149901   2.311  11.118   3.191
49356SOL    HW249902   2.299  11.241   3.279
49357SOL     OW49903   8.782   1.524  14.070
49357SOL    HW149904   8.778   1.459  14.000
49357SOL    HW249905   8.706   1.505  14.125
49358SOL     OW49906  12.087  10.036   6.357
49358SOL    HW149907  12.131  10.074   6.281
49358SOL    HW249908  12.071   9.945   6.332
49359SOL     OW49909   0.408   4.360   2.341
49359SOL    HW149910   0.329   4.357   2.395
49359SOL    HW249911   0.469   4.415   2.391
49360SOL     OW49912   3.485   2.616   7.005
49360SOL    HW149913   3.405   2.564   7.012
49360SOL    HW249914   3.477   2.683   7.073
49361SOL     OW49915   9.279   0.780  11.639
49361SOL    HW149916   9.315   0.703  11.595
49361SOL    HW249917   9.318   0.855  11.594
49362SOL     OW49918   6.496   3.489  13.897
49362SOL    HW149919   6.503   3.557  13.965
49362SOL    HW249920   6.498   3.407  13.946
49363SOL     OW49921   6.466  12.141   7.927
49363SOL    HW149922   6.504  12.193   7.856
49363SOL    HW249923   6.427  12.066   7.882
49364SOL     OW49924  14.706   3.238   7.049
49364SOL    HW149925  14.652   3.315   7.034
49364SOL    HW249926  14.671   3.172   6.989
49365SOL     OW49927   0.122   8.162  14.508
49365SOL    HW149928   0.122   8.223  14.582
49365SOL    HW249929   0.045   8.107  14.523
49366SOL     OW49930   9.178   5.948  12.443
49366SOL    HW149931   9.254   5.990  12.403
49366SOL    HW249932   9.115   6.019  12.456
49367SOL     OW49933   1.458   8.763   2.281
49367SOL    HW149934   1.487   8.697   2.343
49367SOL    HW249935   1.404   8.715   2.218
49368SOL     OW49936   7.116  11.052   2.057
49368SOL    HW149937   7.044  11.115   2.048
49368SOL    HW249938   7.077  10.979   2.104
49369SOL     OW49939   2.764   6.999   3.889
49369SOL    HW149940   2.718   7.083   3.875
49369SOL    HW249941   2.856   7.019   3.873
49370SOL     OW49942   4.081  12.343   5.855
49370SOL    HW149943   4.106  12.347   5.762
49370SOL    HW249944   3.986  12.354   5.855
49371SOL     OW49945   4.943  11.474   0.525
49371SOL    HW149946   5.030  11.442   0.501
49371SOL    HW249947   4.932  11.447   0.616
49372SOL     OW49948   0.063   4.766  14.412
49372SOL    HW149949   0.033   4.746  14.324
49372SOL    HW249950   0.159   4.764  14.407
49373SOL     OW49951   9.853   4.436   3.153
49373SOL    HW149952   9.910   4.412   3.226
49373SOL    HW249953   9.769   4.454   3.193
49374SOL     OW49954  11.772   1.524   6.849
49374SOL    HW149955  11.734   1.595   6.797
49374SOL    HW249956  11.729   1.530   6.933
49375SOL     OW49957  14.385   9.980  11.530
49375SOL    HW149958  14.475  10.007  11.514
49375SOL    HW249959  14.352  10.044  11.592
49376SOL     OW49960   7.651   0.725   5.875
49376SOL    HW149961   7.595   0.666   5.924
49376SOL    HW249962   7.732   0.730   5.926
49377SOL     OW49963   3.314   3.564   2.794
49377SOL    HW149964   3.289   3.650   2.759
49377SOL    HW249965   3.275   3.502   2.733
49378SOL     OW49966   9.345   4.275   2.436
49378SOL    HW149967   9.399   4.310   2.364
49378SOL    HW249968   9.401   4.283   2.513
49379SOL     OW49969  12.620   1.519  11.906
49379SOL    HW149970  12.707   1.559  11.900
49379SOL    HW249971  12.604   1.509  12.000
49380SOL     OW49972   4.084   3.680  11.760
49380SOL    HW149973   3.993   3.667  11.732
49380SOL    HW249974   4.082   3.666  11.855
49381SOL     OW49975   0.308   2.611   9.020
49381SOL    HW149976   0.280   2.626   9.111
49381SOL    HW249977   0.226   2.614   8.970
49382SOL     OW49978   8.667  11.832  11.181
49382SOL    HW149979   8.699  11.813  11.093
49382SOL    HW249980   8.737  11.881  11.223
49383SOL     OW49981   0.891   0.583   0.977
49383SOL    HW149982   0.803   0.549   0.960
49383SOL    HW249983   0.941   0.506   1.004
49384SOL     OW49984   0.069   7.631  10.041
49384SOL    HW149985   0.027   7.550  10.015
49384SOL    HW249986   0.023   7.658  10.120
49385SOL     OW49987  10.827   8.479   4.419
49385SOL    HW149988  10.765   8.527   4.365
49385SOL    HW249989  10.895   8.449   4.358
49386SOL     OW49990  10.395   5.538   1.350
49386SOL    HW149991  10.395   5.544   1.446
49386SOL    HW249992  10.312   5.577   1.324
49387SOL     OW49993   9.490   1.593  13.145
49387SOL    HW149994   9.407   1.624  13.109
49387SOL    HW249995   9.476   1.592  13.240
49388SOL     OW49996   5.322   7.144   3.908
49388SOL    HW149997   5.347   7.089   3.982
49388SOL    HW249998   5.397   7.139   3.848
49389SOL     OW49999   9.589  13.374  14.520
49389SOL    HW150000   9.511  13.378  14.575
49389SOL    HW250001   9.559  13.337  14.437
49390SOL     OW50002   0.616  14.595   1.517
49390SOL    HW150003   0.637  14.619   1.607
49390SOL    HW250004   0.608  14.500   1.519
49391SOL     OW50005   4.403   6.942  14.526
49391SOL    HW150006   4.352   6.861  14.518
49391SOL    HW250007   4.451   6.949  14.444
49392SOL     OW50008   8.701  12.483   7.220
49392SOL    HW150009   8.732  12.572   7.202
49392SOL    HW250010   8.777  12.438   7.257
49393SOL     OW50011   3.850   2.048   7.887
49393SOL    HW150012   3.790   2.016   7.820
49393SOL    HW250013   3.906   1.973   7.906
49394SOL     OW50014  11.858   1.796   9.494
49394SOL    HW150015  11.879   1.886   9.519
49394SOL    HW250016  11.880   1.743   9.571
49395SOL     OW50017   1.255  12.841   1.425
49395SOL    HW150018   1.281  12.906   1.490
49395SOL    HW250019   1.212  12.892   1.356
49396SOL     OW50020   0.248  13.719   0.746
49396SOL    HW150021   0.282  13.630   0.742
49396SOL    HW250022   0.179  13.721   0.679
49397SOL     OW50023   5.755  12.604   2.734
49397SOL    HW150024   5.765  12.663   2.659
49397SOL    HW250025   5.716  12.525   2.697
49398SOL     OW50026   7.447   5.272  13.543
49398SOL    HW150027   7.380   5.235  13.485
49398SOL    HW250028   7.436   5.224  13.626
49399SOL     OW50029   1.715  11.485   0.668
49399SOL    HW150030   1.621  11.472   0.662
49399SOL    HW250031   1.736  11.549   0.599
49400SOL     OW50032  10.739   6.024   2.895
49400SOL    HW150033  10.685   5.946   2.880
49400SOL    HW250034  10.815   6.012   2.838
49401SOL     OW50035   2.654   9.119   4.913
49401SOL    HW150036   2.687   9.108   5.002
49401SOL    HW250037   2.610   9.037   4.894
49402SOL     OW50038  11.598   4.536   0.783
49402SOL    HW150039  11.541   4.612   0.798
49402SOL    HW250040  11.553   4.487   0.714
49403SOL     OW50041   7.711   7.635   5.635
49403SOL    HW150042   7.742   7.597   5.552
49403SOL    HW250043   7.704   7.729   5.617
49404SOL     OW50044   4.368   6.932   0.107
49404SOL    HW150045   4.362   6.978   0.023
49404SOL    HW250046   4.321   6.849   0.092
49405SOL     OW50047   8.349   4.668  12.290
49405SOL    HW150048   8.265   4.711  12.275
49405SOL    HW250049   8.328   4.576  12.304
49406SOL     OW50050   7.562   1.044   4.247
49406SOL    HW150051   7.590   1.098   4.173
49406SOL    HW250052   7.538   0.960   4.208
49407SOL     OW50053   0.457   8.938   1.679
49407SOL    HW150054   0.426   8.938   1.589
49407SOL    HW250055   0.432   8.852   1.714
49408SOL     OW50056   9.213   7.660  13.681
49408SOL    HW150057   9.280   7.639  13.745
49408SOL    HW250058   9.131   7.637  13.723
49409SOL     OW50059  14.178  11.515   5.995
49409SOL    HW150060  14.202  11.527   5.904
49409SOL    HW250061  14.083  11.528   5.997
49410SOL     OW50062  14.357   8.546   6.342
49410SOL    HW150063  14.444   8.573   6.315
49410SOL    HW250064  14.306   8.627   6.348
49411SOL     OW50065   6.580   5.884  12.116
49411SOL    HW150066   6.668   5.847  12.124
49411SOL    HW250067   6.578   5.955  12.182
49412SOL     OW50068   9.670  13.371  12.612
49412SOL    HW150069   9.598  13.420  12.572
49412SOL    HW250070   9.650  13.373  12.706
49413SOL     OW50071  11.428   8.846   3.516
49413SOL    HW150072  11.399   8.804   3.435
49413SOL    HW250073  11.466   8.775   3.568
49414SOL     OW50074   6.123  12.037   3.164
49414SOL    HW150075   6.157  11.995   3.084
49414SOL    HW250076   6.041  11.992   3.181
49415SOL     OW50077   3.360  11.044   1.297
49415SOL    HW150078   3.266  11.035   1.280
49415SOL    HW250079   3.399  10.964   1.261
49416SOL     OW50080   3.830  13.366   9.267
49416SOL    HW150081   3.881  13.368   9.186
49416SOL    HW250082   3.895  13.360   9.336
49417SOL     OW50083  13.925  13.982   3.237
49417SOL    HW150084  13.866  13.907   3.224
49417SOL    HW250085  14.007  13.942   3.266
49418SOL     OW50086  12.077  13.739   9.924
49418SOL    HW150087  12.130  13.715  10.000
49418SOL    HW250088  12.052  13.655   9.884
49419SOL     OW50089   8.843  11.943   4.366
49419SOL    HW150090   8.860  12.026   4.323
49419SOL    HW250091   8.918  11.888   4.344
49420SOL     OW50092  14.239  12.643  12.264
49420SOL    HW150093  14.259  12.653  12.357
49420SOL    HW250094  14.304  12.697  12.219
49421SOL     OW50095   9.535   7.577   8.117
49421SOL    HW150096   9.522   7.496   8.165
49421SOL    HW250097   9.504   7.558   8.029
49422SOL     OW50098  13.243   9.549  14.018
49422SOL    HW150099  13.179   9.574  13.951
49422SOL    HW250100  13.326   9.583  13.985
49423SOL     OW50101  14.278   6.471   9.540
49423SOL    HW150102  14.365   6.431   9.535
49423SOL    HW250103  14.219   6.404   9.505
49424SOL     OW50104   6.154   2.853   5.903
49424SOL    HW150105   6.129   2.794   5.974
49424SOL    HW250106   6.072   2.888   5.870
49425SOL     OW50107   1.235  13.557  14.762
49425SOL    HW150108   1.319  13.524  14.792
49425SOL    HW250109   1.182  13.565  14.842
49426SOL     OW50110   1.226   1.016   7.533
49426SOL    HW150111   1.280   0.939   7.519
49426SOL    HW250112   1.138   0.989   7.506
49427SOL     OW50113   7.023   8.054  10.071
49427SOL    HW150114   6.972   8.130  10.041
49427SOL    HW250115   7.106   8.091  10.102
49428SOL     OW50116   6.584  13.402   4.613
49428SOL    HW150117   6.639  13.424   4.689
49428SOL    HW250118   6.576  13.307   4.616
49429SOL     OW50119   8.149  11.583  12.003
49429SOL    HW150120   8.235  11.613  12.033
49429SOL    HW250121   8.091  11.657  12.021
49430SOL     OW50122   0.821  13.294  12.199
49430SOL    HW150123   0.799  13.276  12.108
49430SOL    HW250124   0.888  13.362  12.196
49431SOL     OW50125  10.560  14.572  13.627
49431SOL    HW150126  10.511  14.654  13.621
49431SOL    HW250127  10.497  14.509  13.662
49432SOL     OW50128   9.346  11.812  14.238
49432SOL    HW150129   9.436  11.843  14.236
49432SOL    HW250130   9.325  11.793  14.147
49433SOL     OW50131   1.962   3.403   2.364
49433SOL    HW150132   1.963   3.454   2.282
49433SOL    HW250133   2.054   3.383   2.380
49434SOL     OW50134  14.056  14.231   4.319
49434SOL    HW150135  13.979  14.222   4.262
49434SOL    HW250136  14.119  14.280   4.267
49435SOL     OW50137   4.114   3.436   0.280
49435SOL    HW150138   4.095   3.356   0.231
49435SOL    HW250139   4.032   3.485   0.277
49436SOL     OW50140   7.087  13.445   0.722
49436SOL    HW150141   7.085  13.402   0.637
49436SOL    HW250142   7.164  13.501   0.719
49437SOL     OW50143   9.788   6.676   2.830
49437SOL    HW150144   9.865   6.710   2.785
49437SOL    HW250145   9.783   6.727   2.910
49438SOL     OW50146  13.412  13.459   4.965
49438SOL    HW150147  13.336  13.513   4.985
49438SOL    HW250148  13.481  13.493   5.023
49439SOL     OW50149   3.851   5.726  10.501
49439SOL    HW150150   3.815   5.640  10.478
49439SOL    HW250151   3.830   5.737  10.594
49440SOL     OW50152   0.805  10.360   2.850
49440SOL    HW150153   0.875  10.403   2.801
49440SOL    HW250154   0.760  10.431   2.896
49441SOL     OW50155  14.326   8.461  11.310
49441SOL    HW150156  14.357   8.374  11.285
49441SOL    HW250157  14.380   8.521  11.259
49442SOL     OW50158  11.897   9.983  13.739
49442SOL    HW150159  11.908  10.068  13.696
49442SOL    HW250160  11.830   9.998  13.806
49443SOL     OW50161  14.477   5.918   2.687
49443SOL    HW150162  14.444   5.833   2.716
49443SOL    HW250163  14.561   5.929   2.731
49444SOL     OW50164   2.216   9.929   9.577
49444SOL    HW150165   2.124   9.937   9.604
49444SOL    HW250166   2.218   9.968   9.489
49445SOL     OW50167   1.041  13.780   2.856
49445SOL    HW150168   0.969  13.837   2.884
49445SOL    HW250169   1.020  13.694   2.894
49446SOL     OW50170   9.940  11.924   1.048
49446SOL    HW150171   9.999  11.972   1.106
49446SOL    HW250172   9.907  11.852   1.101
49447SOL     OW50173  13.375   3.151  10.877
49447SOL    HW150174  13.309   3.137  10.809
49447SOL    HW250175  13.410   3.064  10.894
49448SOL     OW50176  14.864  11.750   6.274
49448SOL    HW150177   0.006  11.657   6.279
49448SOL    HW250178   0.054  11.788   6.220
49449SOL     OW50179   8.586  12.816   7.671
49449SOL    HW150180   8.564  12.731   7.710
49449SOL    HW250181   8.621  12.868   7.744
49450SOL     OW50182   9.595  14.673   0.081
49450SOL    HW150183   9.604  14.591   0.033
49450SOL    HW250184   9.503  14.675   0.108
49451SOL     OW50185   0.025   9.117   0.610
49451SOL    HW150186   0.083   9.043   0.592
49451SOL    HW250187   0.010   9.158   0.525
49452SOL     OW50188   5.421   9.408   5.516
49452SOL    HW150189   5.483   9.338   5.493
49452SOL    HW250190   5.336   9.375   5.485
49453SOL     OW50191   7.344   2.146  10.325
49453SOL    HW150192   7.285   2.218  10.350
49453SOL    HW250193   7.319   2.074  10.383
49454SOL     OW50194   7.336  12.670   6.317
49454SOL    HW150195   7.346  12.576   6.300
49454SOL    HW250196   7.336  12.677   6.412
49455SOL     OW50197   6.748   0.702   7.888
49455SOL    HW150198   6.796   0.641   7.833
49455SOL    HW250199   6.688   0.647   7.939
49456SOL     OW50200   4.331   9.587   5.617
49456SOL    HW150201   4.245   9.618   5.645
49456SOL    HW250202   4.318   9.493   5.599
49457SOL     OW50203   9.661   6.415   6.482
49457SOL    HW150204   9.682   6.508   6.475
49457SOL    HW250205   9.575   6.413   6.524
49458SOL     OW50206   7.303   3.244  12.727
49458SOL    HW150207   7.330   3.264  12.637
49458SOL    HW250208   7.248   3.166  12.720
49459SOL     OW50209   1.506   0.580  13.318
49459SOL    HW150210   1.486   0.637  13.391
49459SOL    HW250211   1.437   0.514  13.318
49460SOL     OW50212   4.449  12.601   0.858
49460SOL    HW150213   4.371  12.570   0.813
49460SOL    HW250214   4.515  12.534   0.841
49461SOL     OW50215  11.184   6.977   6.894
49461SOL    HW150216  11.243   6.902   6.893
49461SOL    HW250217  11.116   6.953   6.957
49462SOL     OW50218  13.014   0.023   5.799
49462SOL    HW150219  12.941  14.864   5.848
49462SOL    HW250220  13.067   0.067   5.866
49463SOL     OW50221   3.930   4.848  13.574
49463SOL    HW150222   3.888   4.795  13.641
49463SOL    HW250223   3.864   4.859  13.506
49464SOL     OW50224   5.029   2.269   5.784
49464SOL    HW150225   4.989   2.263   5.871
49464SOL    HW250226   5.022   2.180   5.748
49465SOL     OW50227   3.856  10.943   3.554
49465SOL    HW150228   3.855  10.995   3.634
49465SOL    HW250229   3.815  10.999   3.488
49466SOL     OW50230   4.567   3.897   9.883
49466SOL    HW150231   4.493   3.887   9.943
49466SOL    HW250232   4.546   3.977   9.834
49467SOL     OW50233   8.025  14.472  12.996
49467SOL    HW150234   7.955  14.449  13.058
49467SOL    HW250235   8.103  14.427  13.030
49468SOL     OW50236   0.187   0.808  12.381
49468SOL    HW150237   0.235   0.865  12.320
49468SOL    HW250238   0.157   0.867  12.450
49469SOL     OW50239   2.350   7.201   8.987
49469SOL    HW150240   2.292   7.182   8.913
49469SOL    HW250241   2.294   7.248   9.050
49470SOL     OW50242   2.976   0.602   6.556
49470SOL    HW150243   2.928   0.680   6.583
49470SOL    HW250244   2.908   0.538   6.534
49471SOL     OW50245  13.947  13.830   0.504
49471SOL    HW150246  13.873  13.772   0.486
49471SOL    HW250247  13.963  13.820   0.598
49472SOL     OW50248   9.799  10.486  10.681
49472SOL    HW150249   9.815  10.392  10.689
49472SOL    HW250250   9.734  10.505  10.749
49473SOL     OW50251  11.268   7.246   9.286
49473SOL    HW150252  11.272   7.151   9.297
49473SOL    HW250253  11.200   7.274   9.347
49474SOL     OW50254   2.157   3.243   3.868
49474SOL    HW150255   2.096   3.208   3.803
49474SOL    HW250256   2.152   3.338   3.857
49475SOL     OW50257   4.290   3.884  12.661
49475SOL    HW150258   4.323   3.831  12.589
49475SOL    HW250259   4.238   3.952  12.619
49476SOL     OW50260   6.362   1.004   5.511
49476SOL    HW150261   6.403   1.041   5.590
49476SOL    HW250262   6.435   0.987   5.452
49477SOL     OW50263   6.882   9.908   9.942
49477SOL    HW150264   6.956   9.849   9.955
49477SOL    HW250265   6.845   9.882   9.857
49478SOL     OW50266   4.531  13.290  13.022
49478SOL    HW150267   4.533  13.195  13.031
49478SOL    HW250268   4.623  13.315  13.010
49479SOL     OW50269   9.895  10.426  11.823
49479SOL    HW150270   9.874  10.370  11.898
49479SOL    HW250271   9.918  10.510  11.862
49480SOL     OW50272   2.959   4.923   1.552
49480SOL    HW150273   2.993   5.011   1.535
49480SOL    HW250274   2.865   4.930   1.537
49481SOL     OW50275   2.181   1.862   3.106
49481SOL    HW150276   2.144   1.948   3.087
49481SOL    HW250277   2.106   1.803   3.107
49482SOL     OW50278   4.937   3.796   6.238
49482SOL    HW150279   4.868   3.770   6.298
49482SOL    HW250280   4.988   3.861   6.286
49483SOL     OW50281   9.190   3.467   4.739
49483SOL    HW150282   9.278   3.456   4.702
49483SOL    HW250283   9.180   3.392   4.799
49484SOL     OW50284   8.129  13.516  10.715
49484SOL    HW150285   8.175  13.472  10.644
49484SOL    HW250286   8.087  13.591  10.674
49485SOL     OW50287   7.394   4.130   4.053
49485SOL    HW150288   7.335   4.056   4.067
49485SOL    HW250289   7.372   4.192   4.123
49486SOL     OW50290   9.682   4.391   5.337
49486SOL    HW150291   9.702   4.431   5.253
49486SOL    HW250292   9.591   4.361   5.328
49487SOL     OW50293  12.145  12.339   1.900
49487SOL    HW150294  12.103  12.341   1.986
49487SOL    HW250295  12.237  12.324   1.918
49488SOL     OW50296   1.597   8.389  14.774
49488SOL    HW150297   1.556   8.463  14.728
49488SOL    HW250298   1.688   8.415  14.785
49489SOL     OW50299   5.651   8.585  14.083
49489SOL    HW150300   5.745   8.593  14.066
49489SOL    HW250301   5.617   8.674  14.075
49490SOL     OW50302  11.763   7.646   9.993
49490SOL    HW150303  11.700   7.672   9.926
49490SOL    HW250304  11.842   7.621   9.944
49491SOL     OW50305  12.749   0.476   7.559
49491SOL    HW150306  12.825   0.528   7.531
49491SOL    HW250307  12.678   0.540   7.566
49492SOL     OW50308  13.653   0.651   4.595
49492SOL    HW150309  13.741   0.684   4.581
49492SOL    HW250310  13.633   0.601   4.516
49493SOL     OW50311   0.130   7.825   4.994
49493SOL    HW150312   0.171   7.864   5.071
49493SOL    HW250313   0.052   7.879   4.979
49494SOL     OW50314   1.366   4.094   0.160
49494SOL    HW150315   1.317   4.078   0.241
49494SOL    HW250316   1.299   4.105   0.093
49495SOL     OW50317   6.551  12.608  14.455
49495SOL    HW150318   6.475  12.565  14.417
49495SOL    HW250319   6.608  12.627  14.380
49496SOL     OW50320   1.929   8.504   6.647
49496SOL    HW150321   1.899   8.450   6.720
49496SOL    HW250322   1.932   8.593   6.683
49497SOL     OW50323   4.012   2.069   6.456
49497SOL    HW150324   3.993   1.976   6.450
49497SOL    HW250325   4.091   2.081   6.402
49498SOL     OW50326   5.458  10.619   7.701
49498SOL    HW150327   5.460  10.524   7.705
49498SOL    HW250328   5.550  10.645   7.698
49499SOL     OW50329  11.891   0.738   5.719
49499SOL    HW150330  11.976   0.703   5.694
49499SOL    HW250331  11.893   0.829   5.689
49500SOL     OW50332  10.522   6.514  13.521
49500SOL    HW150333  10.552   6.523  13.430
49500SOL    HW250334  10.537   6.422  13.543
49501SOL     OW50335   3.741  12.542   4.239
49501SOL    HW150336   3.682  12.540   4.314
49501SOL    HW250337   3.806  12.609   4.262
49502SOL     OW50338  13.595  13.529  12.375
49502SOL    HW150339  13.593  13.621  12.401
49502SOL    HW250340  13.610  13.532  12.280
49503SOL     OW50341   9.508  13.366   4.060
49503SOL    HW150342   9.427  13.408   4.033
49503SOL    HW250343   9.550  13.338   3.978
49504SOL     OW50344   9.759   5.544   7.938
49504SOL    HW150345   9.682   5.598   7.923
49504SOL    HW250346   9.730   5.478   8.000
49505SOL     OW50347   2.618  14.162   5.823
49505SOL    HW150348   2.586  14.250   5.844
49505SOL    HW250349   2.669  14.174   5.743
49506SOL     OW50350   8.234   5.150  10.793
49506SOL    HW150351   8.215   5.240  10.818
49506SOL    HW250352   8.313   5.155  10.738
49507SOL     OW50353   6.369  14.126   0.594
49507SOL    HW150354   6.332  14.195   0.649
49507SOL    HW250355   6.380  14.167   0.508
49508SOL     OW50356  12.743  10.630  13.317
49508SOL    HW150357  12.790  10.547  13.327
49508SOL    HW250358  12.680  10.630  13.389
49509SOL     OW50359   6.056  10.757   8.497
49509SOL    HW150360   6.048  10.667   8.466
49509SOL    HW250361   6.132  10.792   8.450
49510SOL     OW50362   4.489   5.970   5.575
49510SOL    HW150363   4.491   5.924   5.659
49510SOL    HW250364   4.558   5.929   5.523
49511SOL     OW50365   6.465   1.482  11.321
49511SOL    HW150366   6.527   1.447  11.385
49511SOL    HW250367   6.491   1.443  11.238
49512SOL     OW50368   4.925   7.235   4.917
49512SOL    HW150369   4.986   7.290   4.867
49512SOL    HW250370   4.981   7.167   4.956
49513SOL     OW50371  13.822  14.493   5.233
49513SOL    HW150372  13.749  14.547   5.265
49513SOL    HW250373  13.874  14.475   5.310
49514SOL     OW50374  14.522   4.869  13.958
49514SOL    HW150375  14.587   4.932  13.987
49514SOL    HW250376  14.562   4.784  13.976
49515SOL     OW50377  14.350   9.975   5.389
49515SOL    HW150378  14.301   9.995   5.469
49515SOL    HW250379  14.283   9.961   5.322
49516SOL     OW50380   2.287  13.659  14.247
49516SOL    HW150381   2.366  13.635  14.295
49516SOL    HW250382   2.296  13.753  14.232
49517SOL     OW50383  11.206   4.724   5.277
49517SOL    HW150384  11.291   4.742   5.315
49517SOL    HW250385  11.148   4.791   5.314
49518SOL     OW50386   9.990   4.955   8.163
49518SOL    HW150387   9.927   4.912   8.222
49518SOL    HW250388   9.976   5.048   8.176
49519SOL     OW50389   8.922   6.160   6.557
49519SOL    HW150390   8.930   6.145   6.651
49519SOL    HW250391   8.840   6.117   6.533
49520SOL     OW50392   3.101   5.362  14.270
49520SOL    HW150393   3.156   5.364  14.348
49520SOL    HW250394   3.059   5.447  14.267
49521SOL     OW50395   4.334   7.321   4.993
49521SOL    HW150396   4.375   7.406   4.977
49521SOL    HW250397   4.306   7.291   4.907
49522SOL     OW50398   7.753   1.124   4.059
49522SOL    HW150399   7.679   1.133   4.000
49522SOL    HW250400   7.830   1.138   4.004
49523SOL     OW50401   3.178  12.763   0.029
49523SOL    HW150402   3.110  12.748   0.095
49523SOL    HW250403   3.158  12.850  14.872
49524SOL     OW50404   4.791  10.837   3.772
49524SOL    HW150405   4.740  10.840   3.691
49524SOL    HW250406   4.755  10.763   3.820
49525SOL     OW50407   3.136  13.276   4.233
49525SOL    HW150408   3.074  13.341   4.200
49525SOL    HW250409   3.199  13.326   4.285
49526SOL     OW50410  14.553   0.630   8.295
49526SOL    HW150411  14.513   0.636   8.208
49526SOL    HW250412  14.585   0.540   8.301
49527SOL     OW50413   8.233   4.809  14.170
49527SOL    HW150414   8.264   4.899  14.178
49527SOL    HW250415   8.310   4.756  14.191
49528SOL     OW50416   1.596   9.082   6.164
49528SOL    HW150417   1.565   9.092   6.254
49528SOL    HW250418   1.614   9.172   6.135
49529SOL     OW50419  12.565   3.518   0.055
49529SOL    HW150420  12.475   3.544   0.075
49529SOL    HW250421  12.619   3.572   0.113
49530SOL     OW50422  13.559  13.828   8.780
49530SOL    HW150423  13.604  13.852   8.861
49530SOL    HW250424  13.466  13.838   8.800
49531SOL     OW50425   4.774  13.866  14.323
49531SOL    HW150426   4.837  13.882  14.393
49531SOL    HW250427   4.785  13.773  14.302
49532SOL     OW50428  12.554   7.695   6.278
49532SOL    HW150429  12.514   7.622   6.231
49532SOL    HW250430  12.525   7.773   6.230
49533SOL     OW50431   5.196   8.945  12.429
49533SOL    HW150432   5.140   9.012  12.469
49533SOL    HW250433   5.182   8.954  12.335
49534SOL     OW50434   1.944  10.653  13.806
49534SOL    HW150435   1.882  10.690  13.743
49534SOL    HW250436   1.919  10.561  13.813
49535SOL     OW50437   2.013   5.348  12.812
49535SOL    HW150438   2.100   5.340  12.852
49535SOL    HW250439   1.999   5.264  12.769
49536SOL     OW50440   1.283   2.351  12.829
49536SOL    HW150441   1.374   2.343  12.856
49536SOL    HW250442   1.278   2.436  12.785
49537SOL     OW50443   6.976   5.305   5.449
49537SOL    HW150444   6.957   5.390   5.410
49537SOL    HW250445   6.953   5.242   5.382
49538SOL     OW50446   4.620   7.235   0.722
49538SOL    HW150447   4.707   7.227   0.761
49538SOL    HW250448   4.631   7.202   0.633
49539SOL     OW50449   4.164   7.081   7.199
49539SOL    HW150450   4.147   7.054   7.109
49539SOL    HW250451   4.250   7.122   7.196
49540SOL     OW50452  12.004   5.170  10.426
49540SOL    HW150453  11.990   5.263  10.442
49540SOL    HW250454  11.927   5.127  10.464
49541SOL     OW50455   8.666   9.437   1.808
49541SOL    HW150456   8.643   9.344   1.816
49541SOL    HW250457   8.746   9.437   1.756
49542SOL     OW50458   9.500   4.293   1.700
49542SOL    HW150459   9.450   4.283   1.619
49542SOL    HW250460   9.488   4.210   1.746
49543SOL     OW50461  12.858  14.866  12.629
49543SOL    HW150462  12.822   0.058  12.574
49543SOL    HW250463  12.869  14.793  12.569
49544SOL     OW50464   6.402   8.288   3.103
49544SOL    HW150465   6.337   8.281   3.032
49544SOL    HW250466   6.357   8.252   3.179
49545SOL     OW50467   3.098  12.873  12.007
49545SOL    HW150468   3.140  12.959  12.008
49545SOL    HW250469   3.168  12.811  12.028
49546SOL     OW50470   9.888  14.064   1.553
49546SOL    HW150471   9.924  14.039   1.468
49546SOL    HW250472   9.799  14.094   1.534
49547SOL     OW50473   1.262   8.325  10.168
49547SOL    HW150474   1.308   8.301  10.088
49547SOL    HW250475   1.169   8.316  10.147
49548SOL     OW50476   6.681   2.365  14.822
49548SOL    HW150477   6.647   2.391  14.737
49548SOL    HW250478   6.706   2.273  14.811
49549SOL     OW50479   3.899   9.465  12.676
49549SOL    HW150480   3.829   9.402  12.695
49549SOL    HW250481   3.915   9.455  12.583
49550SOL     OW50482   0.123   5.318   6.374
49550SOL    HW150483   0.192   5.252   6.365
49550SOL    HW250484   0.170   5.401   6.375
49551SOL     OW50485   8.665  10.356   7.560
49551SOL    HW150486   8.582  10.314   7.536
49551SOL    HW250487   8.668  10.435   7.506
49552SOL     OW50488   7.098  12.031   8.226
49552SOL    HW150489   7.166  12.008   8.162
49552SOL    HW250490   7.022  11.979   8.199
49553SOL     OW50491   3.463   5.900   3.804
49553SOL    HW150492   3.467   5.930   3.714
49553SOL    HW250493   3.421   5.814   3.799
49554SOL     OW50494  10.511  10.384   7.301
49554SOL    HW150495  10.486  10.307   7.352
49554SOL    HW250496  10.606  10.375   7.288
49555SOL     OW50497  13.174   5.543  11.580
49555SOL    HW150498  13.111   5.471  11.576
49555SOL    HW250499  13.153   5.589  11.662
49556SOL     OW50500  14.494   8.132   1.185
49556SOL    HW150501  14.438   8.145   1.262
49556SOL    HW250502  14.538   8.216   1.173
49557SOL     OW50503   8.470   5.629  14.353
49557SOL    HW150504   8.442   5.660  14.267
49557SOL    HW250505   8.490   5.536  14.340
49558SOL     OW50506  12.438   8.525  12.128
49558SOL    HW150507  12.524   8.546  12.165
49558SOL    HW250508  12.408   8.449  12.178
49559SOL     OW50509   5.280  12.373   6.093
49559SOL    HW150510   5.345  12.328   6.147
49559SOL    HW250511   5.331  12.407   6.019
49560SOL     OW50512   9.388  13.411  12.659
49560SOL    HW150513   9.454  13.447  12.717
49560SOL    HW250514   9.351  13.338  12.708
49561SOL     OW50515   6.252  12.868  13.660
49561SOL    HW150516   6.291  12.852  13.574
49561SOL    HW250517   6.181  12.804  13.666
49562SOL     OW50518  11.720   4.591   7.194
49562SOL    HW150519  11.632   4.555   7.196
49562SOL    HW250520  11.735   4.613   7.102
49563SOL     OW50521   2.303   4.420  13.020
49563SOL    HW150522   2.239   4.352  13.037
49563SOL    HW250523   2.319   4.416  12.925
49564SOL     OW50524   9.835   1.835  14.034
49564SOL    HW150525   9.748   1.875  14.026
49564SOL    HW250526   9.896   1.908  14.025
49565SOL     OW50527   3.680   1.719   5.306
49565SOL    HW150528   3.759   1.746   5.353
49565SOL    HW250529   3.709   1.702   5.217
49566SOL     OW50530  12.229   0.071   4.735
49566SOL    HW150531  12.271   0.152   4.763
49566SOL    HW250532  12.138   0.095   4.717
49567SOL     OW50533   7.696   4.699   7.741
49567SOL    HW150534   7.666   4.673   7.828
49567SOL    HW250535   7.735   4.620   7.704
49568SOL     OW50536  13.592   6.643   8.927
49568SOL    HW150537  13.648   6.679   8.996
49568SOL    HW250538  13.621   6.687   8.847
49569SOL     OW50539   3.174   4.047   7.725
49569SOL    HW150540   3.195   3.964   7.683
49569SOL    HW250541   3.245   4.106   7.699
49570SOL     OW50542   2.418   7.168   4.913
49570SOL    HW150543   2.388   7.225   4.842
49570SOL    HW250544   2.437   7.228   4.985
49571SOL     OW50545  10.952   6.155   4.109
49571SOL    HW150546  11.046   6.153   4.089
49571SOL    HW250547  10.916   6.216   4.045
49572SOL     OW50548  12.399  12.567   1.711
49572SOL    HW150549  12.408  12.655   1.675
49572SOL    HW250550  12.384  12.580   1.804
49573SOL     OW50551   4.749   7.424   1.081
49573SOL    HW150552   4.806   7.473   1.140
49573SOL    HW250553   4.683   7.487   1.052
49574SOL     OW50554  10.879   1.569  10.646
49574SOL    HW150555  10.962   1.579  10.692
49574SOL    HW250556  10.896   1.603  10.558
49575SOL     OW50557   4.640  11.254   0.231
49575SOL    HW150558   4.621  11.321   0.297
49575SOL    HW250559   4.576  11.270   0.162
49576SOL     OW50560  10.840   9.415  12.011
49576SOL    HW150561  10.878   9.414  11.924
49576SOL    HW250562  10.903   9.367  12.066
49577SOL     OW50563   2.288   9.798   6.545
49577SOL    HW150564   2.202   9.766   6.518
49577SOL    HW250565   2.276   9.893   6.555
49578SOL     OW50566   0.247  12.001   9.439
49578SOL    HW150567   0.179  11.934   9.427
49578SOL    HW250568   0.323  11.952   9.473
49579SOL     OW50569   0.414  13.033   1.338
49579SOL    HW150570   0.451  12.955   1.296
49579SOL    HW250571   0.384  13.002   1.423
49580SOL     OW50572  10.412   8.461   2.648
49580SOL    HW150573  10.372   8.468   2.562
49580SOL    HW250574  10.369   8.529   2.700
49581SOL     OW50575   3.706   9.435  14.620
49581SOL    HW150576   3.793   9.470  14.600
49581SOL    HW250577   3.647   9.478  14.558
49582SOL     OW50578   3.570   1.211   3.634
49582SOL    HW150579   3.570   1.164   3.551
49582SOL    HW250580   3.526   1.151   3.695
49583SOL     OW50581   1.502   9.833   8.508
49583SOL    HW150582   1.460   9.782   8.438
49583SOL    HW250583   1.435   9.896   8.535
49584SOL     OW50584  10.147   7.559  12.360
49584SOL    HW150585  10.241   7.580  12.363
49584SOL    HW250586  10.134   7.521  12.274
49585SOL     OW50587   9.131   3.712  13.865
49585SOL    HW150588   9.042   3.720  13.901
49585SOL    HW250589   9.127   3.636  13.808
49586SOL     OW50590   3.763  11.637   6.217
49586SOL    HW150591   3.749  11.687   6.298
49586SOL    HW250592   3.675  11.626   6.181
49587SOL     OW50593  10.699   8.129   4.040
49587SOL    HW150594  10.633   8.120   3.970
49587SOL    HW250595  10.713   8.223   4.048
49588SOL     OW50596   4.819   8.215  14.860
49588SOL    HW150597   4.875   8.139  14.877
49588SOL    HW250598   4.852   8.252  14.779
49589SOL     OW50599  12.938   3.348   3.929
49589SOL    HW150600  12.888   3.300   3.863
49589SOL    HW250601  13.022   3.303   3.934
49590SOL     OW50602  11.762  12.382   6.274
49590SOL    HW150603  11.789  12.345   6.190
49590SOL    HW250604  11.766  12.308   6.335
49591SOL     OW50605  13.754  12.024  14.655
49591SOL    HW150606  13.789  12.092  14.597
49591SOL    HW250607  13.746  11.946  14.600
49592SOL     OW50608  10.272   4.789   1.580
49592SOL    HW150609  10.331   4.855   1.619
49592SOL    HW250610  10.324   4.749   1.511
49593SOL     OW50611   6.382   3.185   6.497
49593SOL    HW150612   6.468   3.177   6.538
49593SOL    HW250613   6.320   3.176   6.569
49594SOL     OW50614   6.455   7.573   0.103
49594SOL    HW150615   6.432   7.598   0.193
49594SOL    HW250616   6.535   7.620   0.084
49595SOL     OW50617   2.449   3.950   2.055
49595SOL    HW150618   2.541   3.926   2.044
49595SOL    HW250619   2.439   3.963   2.150
49596SOL     OW50620   3.758   7.457  13.174
49596SOL    HW150621   3.778   7.517  13.102
49596SOL    HW250622   3.682   7.407  13.143
49597SOL     OW50623   0.858   8.071   9.568
49597SOL    HW150624   0.863   8.089   9.662
49597SOL    HW250625   0.865   7.975   9.561
49598SOL     OW50626  12.819   4.351  13.709
49598SOL    HW150627  12.748   4.360  13.772
49598SOL    HW250628  12.872   4.429  13.722
49599SOL     OW50629   5.953   4.050  13.918
49599SOL    HW150630   5.866   4.086  13.939
49599SOL    HW250631   5.979   4.003  13.997
49600SOL     OW50632   3.479  14.548  12.091
49600SOL    HW150633   3.499  14.596  12.171
49600SOL    HW250634   3.383  14.542  12.090
49601SOL     OW50635   2.821  10.170   5.953
49601SOL    HW150636   2.766  10.094   5.936
49601SOL    HW250637   2.782  10.212   6.030
49602SOL     OW50638  10.601   7.947  14.478
49602SOL    HW150639  10.596   7.916  14.387
49602SOL    HW250640  10.513   7.979  14.498
49603SOL     OW50641  10.679  12.406   9.268
49603SOL    HW150642  10.642  12.323   9.236
49603SOL    HW250643  10.609  12.444   9.321
49604SOL     OW50644   6.320   4.052   5.595
49604SOL    HW150645   6.323   4.109   5.672
49604SOL    HW250646   6.261   4.096   5.534
49605SOL     OW50647  12.804   8.411   6.028
49605SOL    HW150648  12.874   8.455   6.077
49605SOL    HW250649  12.768   8.348   6.090
49606SOL     OW50650   1.356   4.737   1.153
49606SOL    HW150651   1.439   4.730   1.200
49606SOL    HW250652   1.314   4.651   1.164
49607SOL     OW50653  13.282  14.383   4.957
49607SOL    HW150654  13.222  14.387   4.882
49607SOL    HW250655  13.369  14.395   4.918
49608SOL     OW50656   3.808   7.602  13.772
49608SOL    HW150657   3.851   7.688  13.771
49608SOL    HW250658   3.869   7.544  13.726
49609SOL     OW50659  13.146   2.409   1.105
49609SOL    HW150660  13.081   2.473   1.076
49609SOL    HW250661  13.125   2.330   1.056
49610SOL     OW50662   5.894   2.033   7.572
49610SOL    HW150663   5.915   2.066   7.659
49610SOL    HW250664   5.936   2.094   7.512
49611SOL     OW50665   0.971   9.918  10.607
49611SOL    HW150666   1.066   9.927  10.615
49611SOL    HW250667   0.936   9.991  10.658
49612SOL     OW50668   9.547   3.633   9.088
49612SOL    HW150669   9.627   3.636   9.036
49612SOL    HW250670   9.477   3.628   9.023
49613SOL     OW50671   7.859   0.759   7.336
49613SOL    HW150672   7.819   0.730   7.418
49613SOL    HW250673   7.921   0.827   7.363
49614SOL     OW50674   5.419   5.522  10.732
49614SOL    HW150675   5.456   5.436  10.713
49614SOL    HW250676   5.470   5.583  10.679
49615SOL     OW50677   1.777   0.900   9.605
49615SOL    HW150678   1.868   0.871   9.608
49615SOL    HW250679   1.743   0.880   9.693
49616SOL     OW50680   3.444  14.553   9.410
49616SOL    HW150681   3.496  14.475   9.390
49616SOL    HW250682   3.498  14.626   9.379
49617SOL     OW50683   7.826   5.193   0.356
49617SOL    HW150684   7.887   5.261   0.328
49617SOL    HW250685   7.831   5.193   0.451
49618SOL     OW50686   4.201   7.138   2.388
49618SOL    HW150687   4.284   7.098   2.414
49618SOL    HW250688   4.143   7.124   2.463
49619SOL     OW50689  12.299   2.589   3.837
49619SOL    HW150690  12.268   2.531   3.906
49619SOL    HW250691  12.243   2.666   3.843
49620SOL     OW50692  12.327  12.652  11.710
49620SOL    HW150693  12.282  12.614  11.634
49620SOL    HW250694  12.292  12.603  11.785
49621SOL     OW50695   4.056   5.319   3.520
49621SOL    HW150696   3.981   5.317   3.580
49621SOL    HW250697   4.035   5.388   3.458
49622SOL     OW50698  14.169  14.850  11.621
49622SOL    HW150699  14.097   0.030  11.640
49622SOL    HW250700  14.134  14.763  11.639
49623SOL     OW50701   3.691   0.601   0.352
49623SOL    HW150702   3.626   0.536   0.328
49623SOL    HW250703   3.761   0.551   0.394
49624SOL     OW50704   4.539   2.255   6.357
49624SOL    HW150705   4.493   2.290   6.433
49624SOL    HW250706   4.605   2.197   6.394
49625SOL     OW50707   1.932   3.915   8.543
49625SOL    HW150708   1.972   3.973   8.478
49625SOL    HW250709   1.953   3.955   8.627
49626SOL     OW50710   7.893  11.176   8.107
49626SOL    HW150711   7.834  11.226   8.051
49626SOL    HW250712   7.947  11.242   8.151
49627SOL     OW50713  13.335   5.294   6.074
49627SOL    HW150714  13.374   5.232   6.136
49627SOL    HW250715  13.409   5.347   6.043
49628SOL     OW50716   9.665   8.142   3.308
49628SOL    HW150717   9.621   8.061   3.282
49628SOL    HW250718   9.750   8.114   3.341
49629SOL     OW50719  13.678   2.336   7.518
49629SOL    HW150720  13.739   2.332   7.445
49629SOL    HW250721  13.601   2.289   7.488
49630SOL     OW50722  12.694   8.603   3.575
49630SOL    HW150723  12.759   8.657   3.621
49630SOL    HW250724  12.611   8.650   3.587
49631SOL     OW50725  13.302   2.308   5.400
49631SOL    HW150726  13.286   2.261   5.318
49631SOL    HW250727  13.338   2.392   5.372
49632SOL     OW50728   7.899   3.170   3.237
49632SOL    HW150729   7.961   3.242   3.228
49632SOL    HW250730   7.953   3.094   3.259
49633SOL     OW50731  13.786   9.827   3.219
49633SOL    HW150732  13.855   9.783   3.169
49633SOL    HW250733  13.709   9.823   3.163
49634SOL     OW50734   2.375   9.882  14.310
49634SOL    HW150735   2.467   9.887  14.334
49634SOL    HW250736   2.374   9.843  14.223
49635SOL     OW50737   6.408   5.322   5.761
49635SOL    HW150738   6.324   5.281   5.778
49635SOL    HW250739   6.473   5.262   5.798
49636SOL     OW50740   4.370   7.378   4.435
49636SOL    HW150741   4.440   7.420   4.384
49636SOL    HW250742   4.338   7.308   4.379
49637SOL     OW50743  14.050  13.770   4.985
49637SOL    HW150744  14.039  13.679   4.960
49637SOL    HW250745  14.145  13.782   4.991
49638SOL     OW50746   9.648   5.408  13.472
49638SOL    HW150747   9.715   5.404  13.404
49638SOL    HW250748   9.695   5.433  13.552
49639SOL     OW50749  13.942   3.159   5.976
49639SOL    HW150750  13.930   3.157   6.071
49639SOL    HW250751  13.992   3.240   5.961
49640SOL     OW50752   7.764   3.089  14.057
49640SOL    HW150753   7.722   3.118  14.138
49640SOL    HW250754   7.829   3.157  14.038
49641SOL     OW50755   7.022   2.759   4.105
49641SOL    HW150756   6.927   2.768   4.103
49641SOL    HW250757   7.038   2.669   4.078
49642SOL     OW50758   1.889   1.878   6.028
49642SOL    HW150759   1.819   1.931   6.065
49642SOL    HW250760   1.873   1.790   6.062
49643SOL     OW50761   3.415   2.873   2.248
49643SOL    HW150762   3.356   2.857   2.322
49643SOL    HW250763   3.498   2.898   2.289
49644SOL     OW50764   5.402  10.494  12.527
49644SOL    HW150765   5.412  10.409  12.483
49644SOL    HW250766   5.392  10.471  12.620
49645SOL     OW50767  11.338  14.179   0.111
49645SOL    HW150768  11.381  14.094   0.119
49645SOL    HW250769  11.371  14.214   0.028
49646SOL     OW50770   5.188  13.676   6.295
49646SOL    HW150771   5.276  13.695   6.262
49646SOL    HW250772   5.181  13.728   6.375
49647SOL     OW50773   0.059   3.330  11.823
49647SOL    HW150774   0.141   3.316  11.870
49647SOL    HW250775   0.078   3.403  11.763
49648SOL     OW50776  12.832   7.519   8.918
49648SOL    HW150777  12.917   7.558   8.941
49648SOL    HW250778  12.853   7.452   8.853
49649SOL     OW50779  14.341   9.881   0.745
49649SOL    HW150780  14.307   9.962   0.784
49649SOL    HW250781  14.422   9.909   0.701
49650SOL     OW50782   2.192  13.067  14.453
49650SOL    HW150783   2.268  13.103  14.408
49650SOL    HW250784   2.117  13.109  14.411
49651SOL     OW50785  11.472  12.863   7.124
49651SOL    HW150786  11.444  12.810   7.050
49651SOL    HW250787  11.567  12.849   7.129
49652SOL     OW50788  12.322   2.958  13.041
49652SOL    HW150789  12.315   3.035  12.983
49652SOL    HW250790  12.403   2.971  13.089
49653SOL     OW50791   8.517   0.379   8.240
49653SOL    HW150792   8.605   0.342   8.244
49653SOL    HW250793   8.497   0.403   8.330
49654SOL     OW50794   6.926  14.671   9.287
49654SOL    HW150795   6.986  14.674   9.213
49654SOL    HW250796   6.848  14.717   9.256
49655SOL     OW50797   8.584   2.458  10.521
49655SOL    HW150798   8.561   2.497  10.605
49655SOL    HW250799   8.623   2.374  10.544
49656SOL     OW50800   5.243   6.064   0.584
49656SOL    HW150801   5.234   6.005   0.509
49656SOL    HW250802   5.314   6.124   0.559
49657SOL     OW50803   5.104   5.777   3.575
49657SOL    HW150804   5.100   5.783   3.480
49657SOL    HW250805   5.134   5.862   3.604
49658SOL     OW50806   9.023   7.508   9.666
49658SOL    HW150807   8.961   7.575   9.638
49658SOL    HW250808   9.108   7.539   9.633
49659SOL     OW50809  13.557   3.749   8.571
49659SOL    HW150810  13.533   3.835   8.605
49659SOL    HW250811  13.565   3.761   8.477
49660SOL     OW50812   2.439   1.009  10.479
49660SOL    HW150813   2.468   1.002  10.570
49660SOL    HW250814   2.361   0.953  10.474
49661SOL     OW50815   3.621   2.267   3.631
49661SOL    HW150816   3.587   2.188   3.673
49661SOL    HW250817   3.601   2.255   3.538
49662SOL     OW50818  14.474   3.733   7.585
49662SOL    HW150819  14.552   3.689   7.550
49662SOL    HW250820  14.487   3.733   7.680
49663SOL     OW50821   7.447   5.053   9.000
49663SOL    HW150822   7.450   4.967   9.041
49663SOL    HW250823   7.413   5.112   9.068
49664SOL     OW50824   6.593   9.086   7.444
49664SOL    HW150825   6.644   9.044   7.375
49664SOL    HW250826   6.537   9.016   7.478
49665SOL     OW50827   1.627   0.242  12.990
49665SOL    HW150828   1.580   0.323  13.013
49665SOL    HW250829   1.671   0.216  13.071
49666SOL     OW50830   2.829   8.727   4.797
49666SOL    HW150831   2.762   8.699   4.735
49666SOL    HW250832   2.816   8.822   4.806
49667SOL     OW50833   4.905   9.862  13.164
49667SOL    HW150834   4.886   9.929  13.098
49667SOL    HW250835   4.853   9.786  13.136
49668SOL     OW50836   6.119   4.656  10.066
49668SOL    HW150837   6.183   4.727  10.059
49668SOL    HW250838   6.120   4.632  10.159
49669SOL     OW50839  12.858   6.159   9.781
49669SOL    HW150840  12.770   6.175   9.814
49669SOL    HW250841  12.905   6.240   9.798
49670SOL     OW50842   5.015   9.150   2.937
49670SOL    HW150843   5.103   9.112   2.940
49670SOL    HW250844   5.029   9.243   2.957
49671SOL     OW50845   0.171   6.570   8.306
49671SOL    HW150846   0.096   6.515   8.328
49671SOL    HW250847   0.207   6.530   8.227
49672SOL     OW50848   1.785   9.867  14.767
49672SOL    HW150849   1.788   9.881  14.673
49672SOL    HW250850   1.738   9.943  14.802
49673SOL     OW50851   8.489  13.064  10.686
49673SOL    HW150852   8.558  13.106  10.634
49673SOL    HW250853   8.447  13.003  10.625
49674SOL     OW50854   6.291  13.439   2.490
49674SOL    HW150855   6.252  13.353   2.477
49674SOL    HW250856   6.342  13.430   2.571
49675SOL     OW50857   9.736  14.189   3.336
49675SOL    HW150858   9.786  14.219   3.260
49675SOL    HW250859   9.645  14.207   3.313
49676SOL     OW50860   7.179   1.067   8.695
49676SOL    HW150861   7.085   1.054   8.707
49676SOL    HW250862   7.205   0.999   8.632
49677SOL     OW50863  10.464   7.570   4.132
49677SOL    HW150864  10.418   7.611   4.205
49677SOL    HW250865  10.455   7.633   4.060
49678SOL     OW50866   1.942   4.941  14.546
49678SOL    HW150867   1.927   4.931  14.452
49678SOL    HW250868   2.029   4.904  14.561
49679SOL     OW50869  10.469  14.457  10.405
49679SOL    HW150870  10.556  14.450  10.366
49679SOL    HW250871  10.452  14.370  10.441
49680SOL     OW50872   4.525   2.332   5.235
49680SOL    HW150873   4.561   2.295   5.316
49680SOL    HW250874   4.602   2.344   5.178
49681SOL     OW50875  10.433  13.171   8.840
49681SOL    HW150876  10.374  13.246   8.832
49681SOL    HW250877  10.475  13.165   8.754
49682SOL     OW50878  13.120   9.384   4.720
49682SOL    HW150879  13.151   9.294   4.705
49682SOL    HW250880  13.025   9.375   4.729
49683SOL     OW50881  10.906   7.235  14.336
49683SOL    HW150882  10.958   7.175  14.283
49683SOL    HW250883  10.896   7.191  14.420
49684SOL     OW50884  11.776   0.622   7.234
49684SOL    HW150885  11.725   0.568   7.294
49684SOL    HW250886  11.729   0.616   7.150
49685SOL     OW50887  12.947   2.116   8.249
49685SOL    HW150888  12.909   2.202   8.267
49685SOL    HW250889  13.036   2.122   8.284
49686SOL     OW50890   8.651   5.760   2.720
49686SOL    HW150891   8.690   5.814   2.651
49686SOL    HW250892   8.600   5.821   2.773
49687SOL     OW50893  10.079  13.604   3.223
49687SOL    HW150894  10.082  13.530   3.162
49687SOL    HW250895  10.164  13.603   3.268
49688SOL     OW50896   2.894   7.834   3.320
49688SOL    HW150897   2.905   7.769   3.390
49688SOL    HW250898   2.895   7.782   3.240
49689SOL     OW50899   8.254  10.010  11.437
49689SOL    HW150900   8.203  10.047  11.365
49689SOL    HW250901   8.318  10.077  11.459
49690SOL     OW50902  12.375  12.792  11.240
49690SOL    HW150903  12.460  12.791  11.284
49690SOL    HW250904  12.311  12.800  11.311
49691SOL     OW50905   9.000   5.688   3.072
49691SOL    HW150906   8.925   5.747   3.064
49691SOL    HW250907   9.008   5.648   2.985
49692SOL     OW50908   3.860   6.023   5.002
49692SOL    HW150909   3.930   6.069   5.049
49692SOL    HW250910   3.892   5.933   4.994
49693SOL     OW50911   8.667   6.019   1.880
49693SOL    HW150912   8.628   6.070   1.809
49693SOL    HW250913   8.761   6.038   1.875
49694SOL     OW50914  13.868  12.849  13.255
49694SOL    HW150915  13.883  12.937  13.289
49694SOL    HW250916  13.775  12.847  13.232
49695SOL     OW50917  11.340   2.384   4.326
49695SOL    HW150918  11.336   2.401   4.232
49695SOL    HW250919  11.421   2.334   4.338
49696SOL     OW50920   5.346   2.184   1.396
49696SOL    HW150921   5.431   2.227   1.384
49696SOL    HW250922   5.330   2.141   1.312
49697SOL     OW50923  14.823   5.706   0.356
49697SOL    HW150924  14.764   5.663   0.418
49697SOL    HW250925  14.795   5.797   0.354
49698SOL     OW50926   5.335  13.359   7.368
49698SOL    HW150927   5.386  13.309   7.431
49698SOL    HW250928   5.337  13.449   7.401
49699SOL     OW50929   3.359   9.922   7.913
49699SOL    HW150930   3.268   9.952   7.919
49699SOL    HW250931   3.353   9.826   7.916
49700SOL     OW50932   3.688   4.729   7.926
49700SOL    HW150933   3.596   4.747   7.947
49700SOL    HW250934   3.689   4.637   7.900
49701SOL     OW50935   8.665   1.673   4.412
49701SOL    HW150936   8.729   1.641   4.349
49701SOL    HW250937   8.705   1.661   4.497
49702SOL     OW50938  12.324   2.115   0.637
49702SOL    HW150939  12.232   2.136   0.647
49702SOL    HW250940  12.365   2.197   0.609
49703SOL     OW50941  14.449  14.309   8.507
49703SOL    HW150942  14.436  14.389   8.557
49703SOL    HW250943  14.534  14.322   8.463
49704SOL     OW50944   5.747   7.159   3.256
49704SOL    HW150945   5.787   7.246   3.261
49704SOL    HW250946   5.659   7.171   3.290
49705SOL     OW50947   2.654   4.823   0.530
49705SOL    HW150948   2.649   4.896   0.468
49705SOL    HW250949   2.613   4.750   0.484
49706SOL     OW50950  12.131   1.069  12.510
49706SOL    HW150951  12.077   1.037  12.437
49706SOL    HW250952  12.189   0.996  12.530
49707SOL     OW50953   6.724   2.574   1.580
49707SOL    HW150954   6.787   2.644   1.562
49707SOL    HW250955   6.642   2.621   1.600
49708SOL     OW50956   7.953   2.623  12.006
49708SOL    HW150957   7.950   2.709  12.049
49708SOL    HW250958   8.031   2.627  11.950
49709SOL     OW50959   3.518   7.920   7.954
49709SOL    HW150960   3.602   7.897   7.993
49709SOL    HW250961   3.523   8.015   7.942
49710SOL     OW50962   1.073  11.380   4.113
49710SOL    HW150963   1.052  11.342   4.199
49710SOL    HW250964   1.161  11.347   4.094
49711SOL     OW50965  12.220  13.393  12.780
49711SOL    HW150966  12.173  13.310  12.786
49711SOL    HW250967  12.288  13.376  12.714
49712SOL     OW50968   2.845   2.061  14.214
49712SOL    HW150969   2.810   2.141  14.252
49712SOL    HW250970   2.776   2.029  14.156
49713SOL     OW50971   7.908  10.048   8.363
49713SOL    HW150972   7.913   9.959   8.397
49713SOL    HW250973   7.947  10.043   8.276
49714SOL     OW50974   8.179  14.411   7.390
49714SOL    HW150975   8.135  14.411   7.305
49714SOL    HW250976   8.132  14.477   7.442
49715SOL     OW50977   9.342   3.780   4.742
49715SOL    HW150978   9.347   3.720   4.668
49715SOL    HW250979   9.258   3.760   4.783
49716SOL     OW50980   0.929  10.116  13.951
49716SOL    HW150981   0.945  10.130  13.858
49716SOL    HW250982   0.847  10.066  13.953
49717SOL     OW50983   7.954   8.233   4.658
49717SOL    HW150984   8.017   8.163   4.675
49717SOL    HW250985   7.869   8.190   4.663
49718SOL     OW50986   3.157   0.294   6.814
49718SOL    HW150987   3.201   0.260   6.892
49718SOL    HW250988   3.167   0.389   6.820
49719SOL     OW50989   8.833   4.537   9.903
49719SOL    HW150990   8.880   4.526   9.821
49719SOL    HW250991   8.743   4.510   9.884
49720SOL     OW50992   8.310   9.315  10.266
49720SOL    HW150993   8.302   9.227  10.301
49720SOL    HW250994   8.386   9.353  10.312
49721SOL     OW50995   5.281  13.367  10.340
49721SOL    HW150996   5.289  13.348  10.433
49721SOL    HW250997   5.201  13.324  10.312
49722SOL     OW50998  12.412   9.812   6.299
49722SOL    HW150999  12.319   9.803   6.278
49722SOL    HW251000  12.454   9.740   6.251
49723SOL     OW51001  12.652   5.562  11.613
49723SOL    HW151002  12.631   5.542  11.522
49723SOL    HW251003  12.613   5.648  11.628
49724SOL     OW51004   8.288  10.808  10.915
49724SOL    HW151005   8.345  10.770  10.981
49724SOL    HW251006   8.347  10.848  10.852
49725SOL     OW51007  11.681  13.700  14.707
49725SOL    HW151008  11.600  13.721  14.661
49725SOL    HW251009  11.659  13.626  14.763
49726SOL     OW51010   7.855   0.656  12.034
49726SOL    HW151011   7.779   0.702  11.998
49726SOL    HW251012   7.930   0.711  12.013
49727SOL     OW51013  10.230   3.208   6.757
49727SOL    HW151014  10.160   3.263   6.723
49727SOL    HW251015  10.191   3.164   6.833
49728SOL     OW51016   9.889   5.840   3.192
49728SOL    HW151017   9.811   5.889   3.220
49728SOL    HW251018   9.874   5.751   3.223
49729SOL     OW51019   1.097   7.458   9.575
49729SOL    HW151020   1.186   7.489   9.558
49729SOL    HW251021   1.079   7.485   9.665
49730SOL     OW51022   4.790   1.671  12.105
49730SOL    HW151023   4.823   1.759  12.088
49730SOL    HW251024   4.717   1.683  12.165
49731SOL     OW51025  10.967   5.746   4.068
49731SOL    HW151026  11.005   5.666   4.030
49731SOL    HW251027  11.018   5.762   4.147
49732SOL     OW51028   1.420   2.858   4.838
49732SOL    HW151029   1.443   2.795   4.770
49732SOL    HW251030   1.462   2.825   4.917
49733SOL     OW51031   4.850  10.396   6.420
49733SOL    HW151032   4.780  10.347   6.375
49733SOL    HW251033   4.822  10.397   6.511
49734SOL     OW51034   2.532   8.262   8.123
49734SOL    HW151035   2.548   8.192   8.186
49734SOL    HW251036   2.576   8.234   8.043
49735SOL     OW51037   4.929   0.113   3.024
49735SOL    HW151038   4.896   0.130   3.112
49735SOL    HW251039   4.895   0.027   3.002
49736SOL     OW51040   6.716  13.623   2.263
49736SOL    HW151041   6.648  13.557   2.244
49736SOL    HW251042   6.722  13.624   2.358
49737SOL     OW51043   6.235  12.767   1.996
49737SOL    HW151044   6.200  12.741   2.081
49737SOL    HW251045   6.160  12.759   1.937
49738SOL     OW51046   1.380  12.707  14.415
49738SOL    HW151047   1.433  12.753  14.480
49738SOL    HW251048   1.416  12.619  14.412
49739SOL     OW51049  11.152  12.645  13.041
49739SOL    HW151050  11.113  12.564  13.008
49739SOL    HW251051  11.126  12.712  12.977
49740SOL     OW51052   0.148   7.578   7.865
49740SOL    HW151053   0.066   7.592   7.818
49740SOL    HW251054   0.168   7.664   7.903
49741SOL     OW51055   4.321   2.764  10.690
49741SOL    HW151056   4.406   2.727  10.664
49741SOL    HW251057   4.289   2.704  10.758
49742SOL     OW51058   4.639   7.169   9.916
49742SOL    HW151059   4.580   7.100   9.947
49742SOL    HW251060   4.605   7.193   9.830
49743SOL     OW51061  12.708   9.934   4.347
49743SOL    HW151062  12.772   9.969   4.408
49743SOL    HW251063  12.711   9.839   4.361
49744SOL     OW51064   7.635   5.369   7.438
49744SOL    HW151065   7.549   5.329   7.426
49744SOL    HW251066   7.617   5.461   7.458
49745SOL     OW51067   1.616  14.320   1.196
49745SOL    HW151068   1.596  14.395   1.252
49745SOL    HW251069   1.549  14.324   1.127
49746SOL     OW51070   7.735  13.841  13.073
49746SOL    HW151071   7.717  13.840  12.979
49746SOL    HW251072   7.809  13.781  13.083
49747SOL     OW51073   7.800  11.290   5.435
49747SOL    HW151074   7.807  11.345   5.513
49747SOL    HW251075   7.836  11.344   5.365
49748SOL     OW51076  14.338  11.006   8.968
49748SOL    HW151077  14.402  10.987   9.035
49748SOL    HW251078  14.324  11.101   8.973
49749SOL     OW51079   7.565  11.282   3.990
49749SOL    HW151080   7.541  11.193   4.015
49749SOL    HW251081   7.598  11.321   4.071
49750SOL     OW51082  10.998  13.037   5.697
49750SOL    HW151083  11.015  12.987   5.776
49750SOL    HW251084  11.085  13.050   5.658
49751SOL     OW51085   3.309   2.093   5.440
49751SOL    HW151086   3.291   2.055   5.354
49751SOL    HW251087   3.234   2.151   5.456
49752SOL     OW51088  10.018   8.415   9.381
49752SOL    HW151089  10.054   8.501   9.398
49752SOL    HW251090   9.946   8.405   9.444
49753SOL     OW51091  13.622   1.148   0.276
49753SOL    HW151092  13.553   1.185   0.221
49753SOL    HW251093  13.609   1.191   0.361
49754SOL     OW51094   8.858   7.107   5.555
49754SOL    HW151095   8.816   7.140   5.476
49754SOL    HW251096   8.787   7.068   5.606
49755SOL     OW51097   4.554  11.813  12.693
49755SOL    HW151098   4.506  11.895  12.706
49755SOL    HW251099   4.529  11.758  12.767
49756SOL     OW51100  14.270  14.355  13.992
49756SOL    HW151101  14.208  14.418  14.029
49756SOL    HW251102  14.216  14.278  13.972
49757SOL     OW51103   7.523   3.900  14.058
49757SOL    HW151104   7.547   3.873  14.147
49757SOL    HW251105   7.601   3.946  14.026
49758SOL     OW51106   8.489   9.632  10.656
49758SOL    HW151107   8.516   9.719  10.687
49758SOL    HW251108   8.562   9.602  10.602
49759SOL     OW51109  10.554   6.327  12.949
49759SOL    HW151110  10.486   6.267  12.919
49759SOL    HW251111  10.518   6.365  13.030
49760SOL     OW51112   2.375   6.025  12.299
49760SOL    HW151113   2.453   6.012  12.353
49760SOL    HW251114   2.363   6.119  12.297
49761SOL     OW51115   8.074   1.288   5.184
49761SOL    HW151116   8.143   1.225   5.163
49761SOL    HW251117   8.062   1.338   5.103
49762SOL     OW51118   4.148  14.199   8.244
49762SOL    HW151119   4.147  14.256   8.321
49762SOL    HW251120   4.065  14.153   8.248
49763SOL     OW51121   4.180   6.461   3.845
49763SOL    HW151122   4.237   6.389   3.815
49763SOL    HW251123   4.103   6.417   3.881
49764SOL     OW51124   1.716   5.450   6.601
49764SOL    HW151125   1.624   5.427   6.593
49764SOL    HW251126   1.716   5.545   6.609
49765SOL     OW51127   0.872   9.613  14.199
49765SOL    HW151128   0.956   9.587  14.163
49765SOL    HW251129   0.807   9.580  14.136
49766SOL     OW51130  10.406   3.856  14.647
49766SOL    HW151131  10.399   3.762  14.662
49766SOL    HW251132  10.337   3.875  14.583
49767SOL     OW51133   0.903   2.394   9.709
49767SOL    HW151134   0.963   2.440   9.650
49767SOL    HW251135   0.956   2.322   9.744
49768SOL     OW51136  13.795   7.286   5.713
49768SOL    HW151137  13.722   7.323   5.763
49768SOL    HW251138  13.821   7.209   5.762
49769SOL     OW51139   8.189  13.384  13.685
49769SOL    HW151140   8.244  13.322  13.733
49769SOL    HW251141   8.123  13.329  13.644
49770SOL     OW51142   3.943   3.432   4.550
49770SOL    HW151143   3.953   3.412   4.457
49770SOL    HW251144   3.859   3.477   4.556
49771SOL     OW51145   6.251  13.284  14.511
49771SOL    HW151146   6.285  13.351  14.570
49771SOL    HW251147   6.290  13.202  14.543
49772SOL     OW51148  11.915   2.117   4.966
49772SOL    HW151149  11.937   2.102   4.874
49772SOL    HW251150  11.839   2.176   4.964
49773SOL     OW51151   1.918  13.175   1.922
49773SOL    HW151152   1.899  13.245   1.860
49773SOL    HW251153   1.832  13.142   1.949
49774SOL     OW51154   3.702  11.492   7.175
49774SOL    HW151155   3.752  11.550   7.232
49774SOL    HW251156   3.632  11.546   7.139
49775SOL     OW51157   4.282   2.810  13.828
49775SOL    HW151158   4.345   2.803  13.756
49775SOL    HW251159   4.313   2.884  13.880
49776SOL     OW51160   3.480  13.259  12.644
49776SOL    HW151161   3.397  13.305  12.638
49776SOL    HW251162   3.462  13.171  12.611
49777SOL     OW51163   4.840   1.118   0.200
49777SOL    HW151164   4.839   1.214   0.194
49777SOL    HW251165   4.879   1.090   0.117
49778SOL     OW51166  11.977   3.896   2.299
49778SOL    HW151167  11.991   3.988   2.320
49778SOL    HW251168  11.916   3.896   2.226
49779SOL     OW51169   9.880  11.826   3.666
49779SOL    HW151170   9.812  11.840   3.733
49779SOL    HW251171   9.883  11.731   3.654
49780SOL     OW51172  13.234   8.692   9.114
49780SOL    HW151173  13.307   8.748   9.087
49780SOL    HW251174  13.258   8.605   9.084
49781SOL     OW51175  12.898  12.682   0.922
49781SOL    HW151176  12.853  12.759   0.886
49781SOL    HW251177  12.987  12.713   0.939
49782SOL     OW51178   2.353   5.325   7.604
49782SOL    HW151179   2.433   5.373   7.626
49782SOL    HW251180   2.283   5.390   7.614
49783SOL     OW51181   9.714   3.366   5.677
49783SOL    HW151182   9.727   3.387   5.584
49783SOL    HW251183   9.786   3.308   5.699
49784SOL     OW51184  12.695   3.520   7.110
49784SOL    HW151185  12.707   3.579   7.185
49784SOL    HW251186  12.770   3.539   7.054
49785SOL     OW51187   6.148   6.671   8.583
49785SOL    HW151188   6.141   6.622   8.664
49785SOL    HW251189   6.176   6.759   8.610
49786SOL     OW51190   1.146   9.575  14.410
49786SOL    HW151191   1.122   9.486  14.435
49786SOL    HW251192   1.214   9.600  14.472
49787SOL     OW51193   0.654  12.998  11.005
49787SOL    HW151194   0.563  12.971  10.993
49787SOL    HW251195   0.704  12.942  10.946
49788SOL     OW51196   2.641   4.479   4.240
49788SOL    HW151197   2.552   4.515   4.232
49788SOL    HW251198   2.677   4.522   4.318
49789SOL     OW51199   7.100  13.332  10.436
49789SOL    HW151200   7.186  13.347  10.475
49789SOL    HW251201   7.042  13.394  10.479
49790SOL     OW51202   9.405   9.319   3.438
49790SOL    HW151203   9.357   9.387   3.485
49790SOL    HW251204   9.352   9.302   3.360
49791SOL     OW51205   9.768   0.480   0.420
49791SOL    HW151206   9.733   0.449   0.337
49791SOL    HW251207   9.697   0.464   0.483
49792SOL     OW51208  12.863   8.541  12.433
49792SOL    HW151209  12.908   8.475  12.381
49792SOL    HW251210  12.933   8.592  12.474
49793SOL     OW51211   7.944  11.311   1.290
49793SOL    HW151212   7.940  11.218   1.266
49793SOL    HW251213   7.862  11.347   1.259
49794SOL     OW51214  13.722   3.895   7.383
49794SOL    HW151215  13.755   3.985   7.393
49794SOL    HW251216  13.793   3.840   7.416
49795SOL     OW51217   8.056   9.592   5.978
49795SOL    HW151218   8.047   9.678   5.937
49795SOL    HW251219   8.131   9.552   5.934
49796SOL     OW51220   8.394   4.259  11.621
49796SOL    HW151221   8.316   4.253  11.566
49796SOL    HW251222   8.466   4.267  11.558
49797SOL     OW51223   1.774   3.205   4.033
49797SOL    HW151224   1.761   3.138   3.967
49797SOL    HW251225   1.694   3.203   4.086
49798SOL     OW51226   7.484  10.111  10.280
49798SOL    HW151227   7.425  10.141  10.350
49798SOL    HW251228   7.425  10.090  10.207
49799SOL     OW51229   8.234  12.448   7.072
49799SOL    HW151230   8.226  12.520   7.134
49799SOL    HW251231   8.322  12.414   7.085
49800SOL     OW51232   8.938  13.648   3.566
49800SOL    HW151233   8.849  13.616   3.559
49800SOL    HW251234   8.929  13.744   3.568
49801SOL     OW51235   9.287   7.610   0.589
49801SOL    HW151236   9.207   7.651   0.556
49801SOL    HW251237   9.345   7.605   0.513
49802SOL     OW51238   5.565   3.998   7.346
49802SOL    HW151239   5.591   4.021   7.435
49802SOL    HW251240   5.472   3.978   7.352
49803SOL     OW51241   1.527  12.818  10.038
49803SOL    HW151242   1.496  12.878   9.970
49803SOL    HW251243   1.622  12.820  10.031
49804SOL     OW51244   5.006   7.080  11.881
49804SOL    HW151245   5.015   7.055  11.789
49804SOL    HW251246   5.093   7.110  11.907
49805SOL     OW51247   9.870   9.874   5.397
49805SOL    HW151248   9.853   9.960   5.358
49805SOL    HW251249   9.913   9.824   5.328
49806SOL     OW51250   4.675   4.940  10.877
49806SOL    HW151251   4.617   4.905  10.809
49806SOL    HW251252   4.637   4.908  10.959
49807SOL     OW51253   0.755   6.407  10.373
49807SOL    HW151254   0.754   6.381  10.281
49807SOL    HW251255   0.700   6.485  10.376
49808SOL     OW51256   2.693   0.775   2.047
49808SOL    HW151257   2.782   0.742   2.056
49808SOL    HW251258   2.644   0.701   2.011
49809SOL     OW51259  11.856   4.930   0.836
49809SOL    HW151260  11.946   4.924   0.868
49809SOL    HW251261  11.848   5.018   0.802
49810SOL     OW51262   7.629  11.583  10.074
49810SOL    HW151263   7.600  11.534   9.997
49810SOL    HW251264   7.725  11.584  10.067
49811SOL     OW51265   0.311   1.312   0.564
49811SOL    HW151266   0.310   1.361   0.481
49811SOL    HW251267   0.328   1.378   0.630
49812SOL     OW51268  11.230   0.910   4.863
49812SOL    HW151269  11.144   0.951   4.851
49812SOL    HW251270  11.292   0.978   4.838
49813SOL     OW51271   9.238   6.285   3.358
49813SOL    HW151272   9.276   6.370   3.384
49813SOL    HW251273   9.191   6.304   3.277
49814SOL     OW51274  14.830   2.634   8.407
49814SOL    HW151275  14.777   2.560   8.439
49814SOL    HW251276  14.766   2.699   8.379
49815SOL     OW51277   7.342   3.644   6.866
49815SOL    HW151278   7.332   3.585   6.941
49815SOL    HW251279   7.337   3.731   6.905
49816SOL     OW51280  13.935   4.389   1.344
49816SOL    HW151281  13.853   4.346   1.319
49816SOL    HW251282  13.909   4.473   1.381
49817SOL     OW51283   2.442   2.001  11.316
49817SOL    HW151284   2.348   2.001  11.338
49817SOL    HW251285   2.480   2.066  11.375
49818SOL     OW51286   6.202   9.338  12.977
49818SOL    HW151287   6.223   9.290  12.897
49818SOL    HW251288   6.229   9.279  13.048
49819SOL     OW51289  11.640  12.472   1.078
49819SOL    HW151290  11.730  12.471   1.047
49819SOL    HW251291  11.643  12.521   1.160
49820SOL     OW51292  11.009  10.757   9.933
49820SOL    HW151293  11.056  10.674   9.944
49820SOL    HW251294  11.077  10.824   9.943
49821SOL     OW51295  11.301   2.552  13.463
49821SOL    HW151296  11.261   2.536  13.377
49821SOL    HW251297  11.314   2.647  13.466
49822SOL     OW51298   8.833  10.364   8.246
49822SOL    HW151299   8.772  10.395   8.179
49822SOL    HW251300   8.920  10.380   8.208
49823SOL     OW51301   8.125  13.076  12.907
49823SOL    HW151302   8.174  13.069  12.989
49823SOL    HW251303   8.192  13.074  12.839
49824SOL     OW51304  10.565  13.899   9.393
49824SOL    HW151305  10.515  13.969   9.350
49824SOL    HW251306  10.655  13.929   9.391
49825SOL     OW51307   8.714   5.612  13.555
49825SOL    HW151308   8.709   5.517  13.543
49825SOL    HW251309   8.799   5.627  13.597
49826SOL     OW51310   0.230   9.597   9.601
49826SOL    HW151311   0.141   9.631   9.605
49826SOL    HW251312   0.285   9.671   9.623
49827SOL     OW51313   8.520   9.763   6.593
49827SOL    HW151314   8.576   9.690   6.619
49827SOL    HW251315   8.436   9.722   6.572
49828SOL     OW51316   3.576   7.904   4.980
49828SOL    HW151317   3.494   7.872   5.016
49828SOL    HW251318   3.568   7.999   4.980
49829SOL     OW51319   5.931   4.255   1.322
49829SOL    HW151320   5.899   4.316   1.388
49829SOL    HW251321   6.013   4.222   1.357
49830SOL     OW51322  10.902  14.645   0.453
49830SOL    HW151323  10.918  14.615   0.364
49830SOL    HW251324  10.834  14.587   0.487
49831SOL     OW51325  11.698   6.865   4.875
49831SOL    HW151326  11.686   6.775   4.845
49831SOL    HW251327  11.613   6.907   4.858
49832SOL     OW51328   4.134   5.966   9.454
49832SOL    HW151329   4.104   5.905   9.386
49832SOL    HW251330   4.226   5.980   9.435
49833SOL     OW51331   5.492   4.423  12.506
49833SOL    HW151332   5.449   4.509  12.506
49833SOL    HW251333   5.585   4.443  12.501
49834SOL     OW51334  11.766   8.965  14.875
49834SOL    HW151335  11.742   8.932  14.788
49834SOL    HW251336  11.694   9.024   0.019
49835SOL     OW51337   7.063  11.253   4.155
49835SOL    HW151338   7.003  11.179   4.165
49835SOL    HW251339   7.069  11.267   4.061
49836SOL     OW51340   6.823   6.148  12.752
49836SOL    HW151341   6.843   6.234  12.713
49836SOL    HW251342   6.908   6.103  12.754
49837SOL     OW51343   2.551   8.863   4.926
49837SOL    HW151344   2.562   8.792   4.989
49837SOL    HW251345   2.456   8.870   4.915
49838SOL     OW51346  11.851   8.144   4.341
49838SOL    HW151347  11.896   8.075   4.390
49838SOL    HW251348  11.859   8.118   4.249
49839SOL     OW51349   9.613   2.675   4.825
49839SOL    HW151350   9.619   2.722   4.742
49839SOL    HW251351   9.598   2.584   4.799
49840SOL     OW51352  14.280  14.295   5.705
49840SOL    HW151353  14.276  14.304   5.610
49840SOL    HW251354  14.189  14.303   5.734
49841SOL     OW51355   8.930   4.610   3.571
49841SOL    HW151356   9.009   4.656   3.542
49841SOL    HW251357   8.923   4.628   3.664
49842SOL     OW51358   6.215  10.422   3.594
49842SOL    HW151359   6.240  10.483   3.664
49842SOL    HW251360   6.297  10.377   3.571
49843SOL     OW51361  12.797  12.926   4.608
49843SOL    HW151362  12.791  12.839   4.647
49843SOL    HW251363  12.714  12.938   4.563
49844SOL     OW51364   1.226  13.085   9.431
49844SOL    HW151365   1.168  13.034   9.487
49844SOL    HW251366   1.202  13.060   9.342
49845SOL     OW51367   6.856  10.386  11.033
49845SOL    HW151368   6.948  10.389  11.060
49845SOL    HW251369   6.818  10.315  11.085
49846SOL     OW51370  11.907   8.655  13.062
49846SOL    HW151371  11.816   8.679  13.075
49846SOL    HW251372  11.926   8.592  13.132
49847SOL     OW51373  10.211   8.963   2.939
49847SOL    HW151374  10.231   8.979   2.847
49847SOL    HW251375  10.173   9.045   2.970
49848SOL     OW51376   1.825  14.273   2.453
49848SOL    HW151377   1.863  14.317   2.529
49848SOL    HW251378   1.775  14.200   2.489
49849SOL     OW51379  10.162   2.761   6.928
49849SOL    HW151380  10.127   2.684   6.972
49849SOL    HW251381  10.206   2.726   6.850
49850SOL     OW51382   6.339   6.368   0.504
49850SOL    HW151383   6.322   6.301   0.438
49850SOL    HW251384   6.308   6.329   0.586
49851SOL     OW51385   2.882   4.294   8.607
49851SOL    HW151386   2.841   4.377   8.583
49851SOL    HW251387   2.809   4.236   8.626
49852SOL     OW51388  13.568  11.610   3.576
49852SOL    HW151389  13.643  11.666   3.595
49852SOL    HW251390  13.516  11.660   3.513
49853SOL     OW51391   1.478   1.807   1.768
49853SOL    HW151392   1.387   1.814   1.740
49853SOL    HW251393   1.485   1.720   1.806
49854SOL     OW51394   6.986   0.324   1.210
49854SOL    HW151395   7.016   0.356   1.126
49854SOL    HW251396   6.891   0.317   1.201
49855SOL     OW51397   7.960  10.778   1.076
49855SOL    HW151398   7.940  10.774   0.983
49855SOL    HW251399   7.908  10.707   1.114
49856SOL     OW51400   9.473   2.606   4.537
49856SOL    HW151401   9.531   2.683   4.540
49856SOL    HW251402   9.459   2.590   4.444
49857SOL     OW51403  11.367   2.510  11.005
49857SOL    HW151404  11.449   2.526  11.050
49857SOL    HW251405  11.383   2.538  10.915
49858SOL     OW51406   2.562   6.871  14.121
49858SOL    HW151407   2.598   6.835  14.202
49858SOL    HW251408   2.544   6.963  14.142
49859SOL     OW51409  11.389   2.076   8.544
49859SOL    HW151410  11.353   2.160   8.518
49859SOL    HW251411  11.434   2.093   8.627
49860SOL     OW51412   9.172   9.838   4.390
49860SOL    HW151413   9.177   9.772   4.459
49860SOL    HW251414   9.120   9.909   4.428
49861SOL     OW51415  11.907   6.408   7.975
49861SOL    HW151416  11.841   6.445   8.034
49861SOL    HW251417  11.913   6.316   8.000
49862SOL     OW51418   5.420   1.440   8.542
49862SOL    HW151419   5.486   1.462   8.476
49862SOL    HW251420   5.449   1.483   8.622
49863SOL     OW51421   5.066   4.101   6.663
49863SOL    HW151422   4.978   4.129   6.638
49863SOL    HW251423   5.113   4.182   6.681
49864SOL     OW51424   8.312  14.015   1.845
49864SOL    HW151425   8.279  13.954   1.911
49864SOL    HW251426   8.303  13.969   1.762
49865SOL     OW51427   0.096  14.199   7.200
49865SOL    HW151428   0.178  14.150   7.189
49865SOL    HW251429   0.123  14.282   7.238
49866SOL     OW51430   4.289  11.979   5.264
49866SOL    HW151431   4.367  12.027   5.294
49866SOL    HW251432   4.239  11.962   5.344
49867SOL     OW51433   2.540   2.151   9.223
49867SOL    HW151434   2.541   2.062   9.257
49867SOL    HW251435   2.472   2.195   9.273
49868SOL     OW51436   7.170   4.598  13.046
49868SOL    HW151437   7.251   4.573  13.090
49868SOL    HW251438   7.151   4.526  12.986
49869SOL     OW51439   1.456   2.067  13.252
49869SOL    HW151440   1.495   2.154  13.237
49869SOL    HW251441   1.376   2.067  13.199
49870SOL     OW51442   3.353  14.017  10.865
49870SOL    HW151443   3.441  14.002  10.899
49870SOL    HW251444   3.348  14.112  10.854
49871SOL     OW51445   6.063   2.016   9.720
49871SOL    HW151446   6.004   2.010   9.644
49871SOL    HW251447   6.063   1.928   9.758
49872SOL     OW51448   2.694   3.593  13.596
49872SOL    HW151449   2.759   3.523  13.595
49872SOL    HW251450   2.621   3.556  13.647
49873SOL     OW51451  11.712  13.718   7.372
49873SOL    HW151452  11.666  13.634   7.376
49873SOL    HW251453  11.643  13.783   7.365
49874SOL     OW51454   8.144   3.098   8.766
49874SOL    HW151455   8.130   3.022   8.824
49874SOL    HW251456   8.106   3.072   8.683
49875SOL     OW51457  11.869   7.723   4.491
49875SOL    HW151458  11.783   7.721   4.532
49875SOL    HW251459  11.865   7.658   4.421
49876SOL     OW51460  13.275  13.072   0.085
49876SOL    HW151461  13.305  13.140   0.145
49876SOL    HW251462  13.188  13.101   0.058
49877SOL     OW51463   9.049   7.939   7.055
49877SOL    HW151464   8.963   7.958   7.092
49877SOL    HW251465   9.052   7.843   7.049
49878SOL     OW51466  14.409  12.918   6.641
49878SOL    HW151467  14.363  12.851   6.591
49878SOL    HW251468  14.437  12.981   6.574
49879SOL     OW51469   7.834   0.501  11.582
49879SOL    HW151470   7.845   0.595  11.564
49879SOL    HW251471   7.857   0.492  11.675
49880SOL     OW51472  13.045   3.627  12.257
49880SOL    HW151473  13.098   3.568  12.204
49880SOL    HW251474  13.085   3.624  12.344
49881SOL     OW51475  11.963   8.994   0.191
49881SOL    HW151476  11.899   8.978   0.122
49881SOL    HW251477  11.915   8.982   0.272
49882SOL     OW51478   6.889  12.001   6.158
49882SOL    HW151479   6.795  12.004   6.172
49882SOL    HW251480   6.906  11.913   6.123
49883SOL     OW51481  12.420   0.357   3.111
49883SOL    HW151482  12.435   0.269   3.077
49883SOL    HW251483  12.404   0.411   3.033
49884SOL     OW51484   6.637  10.606   6.643
49884SOL    HW151485   6.665  10.518   6.671
49884SOL    HW251486   6.637  10.657   6.723
49885SOL     OW51487   0.708   9.330   4.726
49885SOL    HW151488   0.736   9.367   4.810
49885SOL    HW251489   0.678   9.405   4.675
49886SOL     OW51490   2.695   4.944   0.796
49886SOL    HW151491   2.678   4.923   0.705
49886SOL    HW251492   2.625   5.006   0.820
49887SOL     OW51493   3.340   2.621   3.441
49887SOL    HW151494   3.245   2.621   3.453
49887SOL    HW251495   3.372   2.554   3.501
49888SOL     OW51496  13.614  11.008   6.597
49888SOL    HW151497  13.531  11.052   6.579
49888SOL    HW251498  13.597  10.915   6.578
49889SOL     OW51499   9.002  13.415  14.273
49889SOL    HW151500   9.034  13.445  14.359
49889SOL    HW251501   9.053  13.336  14.255
49890SOL     OW51502   2.496   1.641   3.587
49890SOL    HW151503   2.564   1.708   3.595
49890SOL    HW251504   2.472   1.621   3.678
49891SOL     OW51505   0.392   1.541   3.106
49891SOL    HW151506   0.356   1.455   3.128
49891SOL    HW251507   0.460   1.524   3.041
49892SOL     OW51508   8.342   6.607   7.281
49892SOL    HW151509   8.279   6.600   7.352
49892SOL    HW251510   8.417   6.554   7.310
49893SOL     OW51511   4.397   3.499  13.905
49893SOL    HW151512   4.425   3.524  13.816
49893SOL    HW251513   4.431   3.569  13.961
49894SOL     OW51514   8.528   1.175   4.208
49894SOL    HW151515   8.478   1.143   4.282
49894SOL    HW251516   8.578   1.098   4.179
49895SOL     OW51517  14.805   8.380   2.372
49895SOL    HW151518  14.845   8.467   2.375
49895SOL    HW251519  14.845   8.338   2.295
49896SOL     OW51520  13.856   1.075   0.871
49896SOL    HW151521  13.919   1.076   0.944
49896SOL    HW251522  13.817   1.162   0.872
49897SOL     OW51523  14.238  12.681   6.034
49897SOL    HW151524  14.150  12.705   6.062
49897SOL    HW251525  14.284  12.764   6.024
49898SOL     OW51526   6.114   5.635   7.610
49898SOL    HW151527   6.177   5.705   7.627
49898SOL    HW251528   6.039   5.657   7.665
49899SOL     OW51529  14.344   6.258   9.037
49899SOL    HW151530  14.400   6.262   8.959
49899SOL    HW251531  14.405   6.267   9.110
49900SOL     OW51532   0.507   8.555   1.341
49900SOL    HW151533   0.580   8.534   1.283
49900SOL    HW251534   0.472   8.637   1.306
49901SOL     OW51535   9.951   0.841   4.857
49901SOL    HW151536  10.038   0.830   4.819
49901SOL    HW251537   9.940   0.765   4.915
49902SOL     OW51538   2.414   3.700   6.226
49902SOL    HW151539   2.352   3.701   6.153
49902SOL    HW251540   2.491   3.746   6.192
49903SOL     OW51541   1.789   3.452   0.496
49903SOL    HW151542   1.737   3.372   0.507
49903SOL    HW251543   1.876   3.421   0.471
49904SOL     OW51544  14.588  11.678   8.982
49904SOL    HW151545  14.680  11.691   9.003
49904SOL    HW251546  14.540  11.719   9.054
49905SOL     OW51547   5.847  11.842   6.479
49905SOL    HW151548   5.798  11.813   6.556
49905SOL    HW251549   5.935  11.860   6.511
49906SOL     OW51550   1.520  10.017   4.532
49906SOL    HW151551   1.535   9.960   4.608
49906SOL    HW251552   1.521  10.105   4.568
49907SOL     OW51553  10.766  10.288   7.487
49907SOL    HW151554  10.742  10.264   7.577
49907SOL    HW251555  10.819  10.367   7.496
49908SOL     OW51556   1.970   2.799   5.566
49908SOL    HW151557   1.996   2.746   5.641
49908SOL    HW251558   1.891   2.845   5.596
49909SOL     OW51559   7.688  12.831   8.186
49909SOL    HW151560   7.639  12.894   8.238
49909SOL    HW251561   7.780  12.858   8.197
49910SOL     OW51562   0.151   6.396   6.647
49910SOL    HW151563   0.062   6.407   6.682
49910SOL    HW251564   0.208   6.428   6.716
49911SOL     OW51565   5.259  13.464   1.043
49911SOL    HW151566   5.295  13.376   1.038
49911SOL    HW251567   5.290  13.498   1.127
49912SOL     OW51568  13.605   4.642   7.961
49912SOL    HW151569  13.667   4.631   8.033
49912SOL    HW251570  13.650   4.605   7.885
49913SOL     OW51571   4.502  12.425   7.677
49913SOL    HW151572   4.414  12.408   7.709
49913SOL    HW251573   4.556  12.357   7.717
49914SOL     OW51574   2.698   9.686  12.864
49914SOL    HW151575   2.778   9.737  12.853
49914SOL    HW251576   2.653   9.726  12.938
49915SOL     OW51577   3.934  11.675  10.684
49915SOL    HW151578   3.932  11.771  10.680
49915SOL    HW251579   3.960  11.648  10.595
49916SOL     OW51580  11.160   2.664   6.746
49916SOL    HW151581  11.138   2.718   6.823
49916SOL    HW251582  11.251   2.686   6.726
49917SOL     OW51583   1.215   6.437   7.007
49917SOL    HW151584   1.161   6.391   7.071
49917SOL    HW251585   1.289   6.378   6.992
49918SOL     OW51586   2.972   9.932  14.393
49918SOL    HW151587   2.974   9.937  14.298
49918SOL    HW251588   3.001   9.844  14.414
49919SOL     OW51589  14.165  10.873  12.535
49919SOL    HW151590  14.222  10.878  12.459
49919SOL    HW251591  14.142  10.780  12.541
49920SOL     OW51592  12.580  12.232  12.017
49920SOL    HW151593  12.664  12.212  12.059
49920SOL    HW251594  12.578  12.328  12.012
49921SOL     OW51595  11.227   0.748   7.520
49921SOL    HW151596  11.212   0.778   7.609
49921SOL    HW251597  11.315   0.711   7.521
49922SOL     OW51598  14.223   4.331   1.432
49922SOL    HW151599  14.138   4.289   1.423
49922SOL    HW251600  14.206   4.408   1.487
49923SOL     OW51601   7.072   3.021   2.644
49923SOL    HW151602   7.158   3.028   2.601
49923SOL    HW251603   7.013   3.070   2.586
49924SOL     OW51604   0.473   5.694   2.345
49924SOL    HW151605   0.556   5.683   2.391
49924SOL    HW251606   0.445   5.783   2.367
49925SOL     OW51607   4.826   9.656  10.705
49925SOL    HW151608   4.765   9.590  10.737
49925SOL    HW251609   4.901   9.606  10.672
49926SOL     OW51610   4.249   2.663   7.875
49926SOL    HW151611   4.223   2.580   7.916
49926SOL    HW251612   4.329   2.688   7.921
49927SOL     OW51613  13.473   7.351   8.945
49927SOL    HW151614  13.479   7.256   8.937
49927SOL    HW251615  13.450   7.366   9.037
49928SOL     OW51616   7.826   9.124  14.768
49928SOL    HW151617   7.784   9.038  14.768
49928SOL    HW251618   7.911   9.109  14.811
49929SOL     OW51619   4.271  12.810   1.921
49929SOL    HW151620   4.319  12.807   2.004
49929SOL    HW251621   4.323  12.758   1.861
49930SOL     OW51622   8.834   2.304   9.444
49930SOL    HW151623   8.891   2.338   9.513
49930SOL    HW251624   8.745   2.319   9.477
49931SOL     OW51625  10.010   6.899   8.288
49931SOL    HW151626  10.019   6.994   8.278
49931SOL    HW251627   9.936   6.876   8.232
49932SOL     OW51628   5.629   7.347   2.781
49932SOL    HW151629   5.538   7.327   2.757
49932SOL    HW251630   5.643   7.437   2.751
49933SOL     OW51631  10.348   2.278   5.960
49933SOL    HW151632  10.401   2.355   5.941
49933SOL    HW251633  10.258   2.307   5.946
49934SOL     OW51634   0.416   2.021   6.277
49934SOL    HW151635   0.464   2.103   6.264
49934SOL    HW251636   0.335   2.048   6.320
49935SOL     OW51637  14.790  11.680  10.005
49935SOL    HW151638  14.806  11.595  10.046
49935SOL    HW251639  14.695  11.691  10.009
49936SOL     OW51640  14.302   7.873   9.721
49936SOL    HW151641  14.312   7.789   9.675
49936SOL    HW251642  14.338   7.938   9.660
49937SOL     OW51643   2.133  14.730  13.293
49937SOL    HW151644   2.188  14.793  13.246
49937SOL    HW251645   2.196  14.666  13.327
49938SOL     OW51646   1.087  11.755   7.714
49938SOL    HW151647   1.085  11.703   7.794
49938SOL    HW251648   1.179  11.767   7.694
49939SOL     OW51649  13.817  13.183   7.953
49939SOL    HW151650  13.783  13.220   8.034
49939SOL    HW251651  13.912  13.188   7.962
49940SOL     OW51652   8.714   2.559   6.145
49940SOL    HW151653   8.642   2.564   6.082
49940SOL    HW251654   8.712   2.643   6.190
49941SOL     OW51655   3.806   1.066   6.080
49941SOL    HW151656   3.877   1.081   6.017
49941SOL    HW251657   3.803   1.146   6.132
49942SOL     OW51658  10.913  14.659  12.681
49942SOL    HW151659  10.852  14.603  12.634
49942SOL    HW251660  10.894  14.644  12.773
49943SOL     OW51661   1.452   3.769  11.967
49943SOL    HW151662   1.427   3.692  11.916
49943SOL    HW251663   1.490   3.735  12.047
49944SOL     OW51664   5.587  14.062  13.223
49944SOL    HW151665   5.558  13.972  13.234
49944SOL    HW251666   5.557  14.087  13.136
49945SOL     OW51667   9.831  13.789  12.076
49945SOL    HW151668   9.895  13.727  12.041
49945SOL    HW251669   9.858  13.874  12.042
49946SOL     OW51670  13.474   6.429  13.224
49946SOL    HW151671  13.383   6.402  13.212
49946SOL    HW251672  13.480   6.514  13.180
49947SOL     OW51673  12.436   0.390  10.856
49947SOL    HW151674  12.458   0.320  10.795
49947SOL    HW251675  12.410   0.464  10.801
49948SOL     OW51676   6.496   3.394  11.373
49948SOL    HW151677   6.519   3.309  11.412
49948SOL    HW251678   6.572   3.417  11.320
49949SOL     OW51679   1.087   2.995  14.610
49949SOL    HW151680   1.148   3.063  14.639
49949SOL    HW251681   1.003   3.040  14.600
49950SOL     OW51682  12.238   7.676   9.728
49950SOL    HW151683  12.249   7.596   9.677
49950SOL    HW251684  12.284   7.744   9.679
49951SOL     OW51685   9.927   7.598   9.714
49951SOL    HW151686   9.880   7.562   9.789
49951SOL    HW251687   9.868   7.587   9.640
49952SOL     OW51688   8.902  10.681   1.351
49952SOL    HW151689   8.908  10.588   1.375
49952SOL    HW251690   8.971  10.723   1.401
49953SOL     OW51691   2.512  11.546  10.108
49953SOL    HW151692   2.430  11.518  10.068
49953SOL    HW251693   2.578  11.535  10.040
49954SOL     OW51694   7.496  10.949   5.005
49954SOL    HW151695   7.457  11.033   5.030
49954SOL    HW251696   7.536  10.916   5.085
49955SOL     OW51697  12.389   4.459   0.500
49955SOL    HW151698  12.401   4.518   0.426
49955SOL    HW251699  12.299   4.476   0.530
49956SOL     OW51700  14.696  12.032  12.750
49956SOL    HW151701  14.632  12.054  12.818
49956SOL    HW251702  14.767  12.096  12.763
49957SOL     OW51703   8.635   6.136  12.233
49957SOL    HW151704   8.588   6.055  12.215
49957SOL    HW251705   8.614   6.156  12.324
49958SOL     OW51706   1.677   8.930   1.506
49958SOL    HW151707   1.772   8.925   1.517
49958SOL    HW251708   1.645   8.958   1.592
49959SOL     OW51709   1.104   1.327  11.700
49959SOL    HW151710   1.110   1.235  11.723
49959SOL    HW251711   1.147   1.334  11.615
49960SOL     OW51712   7.796   1.927   9.291
49960SOL    HW151713   7.821   1.996   9.229
49960SOL    HW251714   7.870   1.920   9.351
49961SOL     OW51715   2.647   7.860   1.863
49961SOL    HW151716   2.627   7.774   1.826
49961SOL    HW251717   2.564   7.891   1.899
49962SOL     OW51718   0.458   3.516  14.158
49962SOL    HW151719   0.417   3.470  14.085
49962SOL    HW251720   0.552   3.509  14.141
49963SOL     OW51721   6.365   7.580   4.725
49963SOL    HW151722   6.307   7.504   4.717
49963SOL    HW251723   6.320   7.638   4.786
49964SOL     OW51724   3.285   3.567   8.699
49964SOL    HW151725   3.377   3.590   8.690
49964SOL    HW251726   3.246   3.593   8.615
49965SOL     OW51727   0.966  13.979  13.798
49965SOL    HW151728   0.900  13.911  13.788
49965SOL    HW251729   0.964  14.028  13.715
49966SOL     OW51730   6.297  11.478  14.665
49966SOL    HW151731   6.305  11.386  14.690
49966SOL    HW251732   6.337  11.526  14.738
49967SOL     OW51733   2.380   3.973   9.388
49967SOL    HW151734   2.287   3.974   9.409
49967SOL    HW251735   2.387   3.920   9.309
49968SOL     OW51736   6.373   3.979   2.111
49968SOL    HW151737   6.445   3.953   2.052
49968SOL    HW251738   6.306   4.013   2.052
49969SOL     OW51739   7.416  12.322  12.524
49969SOL    HW151740   7.350  12.374  12.477
49969SOL    HW251741   7.497  12.338  12.476
49970SOL     OW51742   7.122  13.287   3.430
49970SOL    HW151743   7.093  13.340   3.355
49970SOL    HW251744   7.097  13.339   3.506
49971SOL     OW51745   3.292  14.787   4.447
49971SOL    HW151746   3.319  14.715   4.391
49971SOL    HW251747   3.245  14.746   4.519
49972SOL     OW51748   4.141   6.413   2.563
49972SOL    HW151749   4.073   6.469   2.527
49972SOL    HW251750   4.100   6.328   2.573
49973SOL     OW51751   9.248  11.512   1.530
49973SOL    HW151752   9.296  11.536   1.450
49973SOL    HW251753   9.160  11.545   1.516
49974SOL     OW51754  13.777   6.861  13.467
49974SOL    HW151755  13.687   6.830  13.478
49974SOL    HW251756  13.777   6.948  13.506
49975SOL     OW51757  14.786   1.731   7.891
49975SOL    HW151758  14.794   1.775   7.807
49975SOL    HW251759  14.858   1.767   7.943
49976SOL     OW51760  11.998  10.254   3.160
49976SOL    HW151761  12.023  10.318   3.093
49976SOL    HW251762  12.071  10.193   3.163
49977SOL     OW51763   0.202  12.978   4.776
49977SOL    HW151764   0.193  13.038   4.850
49977SOL    HW251765   0.192  12.891   4.813
49978SOL     OW51766   4.100  12.776  12.256
49978SOL    HW151767   4.147  12.699  12.288
49978SOL    HW251768   4.158  12.850  12.278
49979SOL     OW51769  10.127   4.625   9.661
49979SOL    HW151770  10.042   4.655   9.692
49979SOL    HW251771  10.189   4.656   9.726
49980SOL     OW51772   8.095   3.900  11.929
49980SOL    HW151773   8.023   3.843  11.902
49980SOL    HW251774   8.091   3.974  11.869
49981SOL     OW51775   7.665   1.528   0.191
49981SOL    HW151776   7.629   1.440   0.177
49981SOL    HW251777   7.743   1.531   0.135
49982SOL     OW51778   6.336  11.802   8.618
49982SOL    HW151779   6.244  11.822   8.604
49982SOL    HW251780   6.382  11.879   8.586
49983SOL     OW51781   4.072   7.267  10.209
49983SOL    HW151782   4.128   7.197  10.176
49983SOL    HW251783   4.128   7.315  10.270
49984SOL     OW51784   8.614   2.800  14.384
49984SOL    HW151785   8.662   2.814  14.302
49984SOL    HW251786   8.539   2.746  14.358
49985SOL     OW51787   6.679  13.003   1.793
49985SOL    HW151788   6.703  13.008   1.700
49985SOL    HW251789   6.666  13.094   1.819
49986SOL     OW51790  13.347  12.022   6.615
49986SOL    HW151791  13.289  11.963   6.567
49986SOL    HW251792  13.435  11.992   6.594
49987SOL     OW51793   7.316   7.570  14.007
49987SOL    HW151794   7.378   7.639  14.032
49987SOL    HW251795   7.334   7.497  14.066
49988SOL     OW51796  12.332  11.309  10.018
49988SOL    HW151797  12.367  11.397  10.010
49988SOL    HW251798  12.244  11.322  10.054
49989SOL     OW51799   0.029  14.777   5.719
49989SOL    HW151800  14.829  14.789   5.773
49989SOL    HW251801   0.095  14.744   5.780
49990SOL     OW51802   9.987   4.092   0.152
49990SOL    HW151803  10.053   4.030   0.123
49990SOL    HW251804   9.907   4.066   0.104
49991SOL     OW51805  12.066  14.242   5.297
49991SOL    HW151806  11.996  14.308   5.293
49991SOL    HW251807  12.125  14.274   5.365
49992SOL     OW51808  11.025  14.124  14.140
49992SOL    HW151809  10.990  14.058  14.079
49992SOL    HW251810  10.996  14.094  14.226
49993SOL     OW51811   0.076  11.920   8.288
49993SOL    HW151812   0.135  11.928   8.213
49993SOL    HW251813   0.121  11.966   8.359
49994SOL     OW51814   7.750   9.961   0.610
49994SOL    HW151815   7.702   9.879   0.616
49994SOL    HW251816   7.686  10.024   0.577
49995SOL     OW51817  13.282   6.139  14.714
49995SOL    HW151818  13.366   6.137  14.760
49995SOL    HW251819  13.303   6.172  14.627
49996SOL     OW51820   9.414   1.582   5.970
49996SOL    HW151821   9.405   1.496   5.931
49996SOL    HW251822   9.371   1.641   5.908
49997SOL     OW51823   4.796   2.482   3.459
49997SOL    HW151824   4.764   2.403   3.502
49997SOL    HW251825   4.781   2.467   3.366
49998SOL     OW51826  12.949   3.738   5.323
49998SOL    HW151827  12.908   3.810   5.276
49998SOL    HW251828  12.949   3.766   5.414
49999SOL     OW51829  10.102   1.078   5.569
49999SOL    HW151830  10.050   1.015   5.618
49999SOL    HW251831  10.163   1.115   5.633
50000SOL     OW51832  14.065  13.612   9.877
50000SOL    HW151833  14.115  13.635   9.955
50000SOL    HW251834  14.000  13.549   9.907
50001SOL     OW51835  13.653   0.696   1.347
50001SOL    HW151836  13.703   0.741   1.415
50001SOL    HW251837  13.695   0.721   1.265
50002SOL     OW51838   3.997   8.818  14.496
50002SOL    HW151839   4.015   8.724  14.500
50002SOL    HW251840   4.076   8.856  14.456
50003SOL     OW51841   8.009   0.761   4.074
50003SOL    HW151842   8.036   0.788   3.986
50003SOL    HW251843   8.039   0.833   4.130
50004SOL     OW51844   5.120   7.458   8.712
50004SOL    HW151845   5.125   7.415   8.626
50004SOL    HW251846   5.118   7.552   8.691
50005SOL     OW51847   5.147   5.176   3.258
50005SOL    HW151848   5.107   5.181   3.345
50005SOL    HW251849   5.080   5.134   3.204
50006SOL     OW51850   9.052   6.202   3.596
50006SOL    HW151851   9.025   6.160   3.515
50006SOL    HW251852   9.140   6.235   3.578
50007SOL     OW51853   5.548   3.351   2.267
50007SOL    HW151854   5.521   3.440   2.289
50007SOL    HW251855   5.601   3.361   2.188
50008SOL     OW51856   9.869   4.464   0.409
50008SOL    HW151857   9.925   4.462   0.332
50008SOL    HW251858   9.780   4.466   0.374
50009SOL     OW51859   6.879   9.560   4.129
50009SOL    HW151860   6.885   9.641   4.180
50009SOL    HW251861   6.955   9.508   4.156
50010SOL     OW51862   2.555   7.795  14.869
50010SOL    HW151863   2.508   7.821  14.790
50010SOL    HW251864   2.498   7.822   0.062
50011SOL     OW51865   0.102  11.292   5.925
50011SOL    HW151866   0.054  11.259   5.849
50011SOL    HW251867   0.171  11.227   5.939
50012SOL     OW51868   2.879   9.711   6.349
50012SOL    HW151869   2.789   9.728   6.377
50012SOL    HW251870   2.878   9.726   6.254
50013SOL     OW51871   8.648   2.497  11.678
50013SOL    HW151872   8.666   2.464  11.590
50013SOL    HW251873   8.730   2.486  11.725
50014SOL     OW51874   1.465   9.251   6.874
50014SOL    HW151875   1.380   9.208   6.862
50014SOL    HW251876   1.459   9.291   6.960
50015SOL     OW51877  11.418  12.313   0.309
50015SOL    HW151878  11.495  12.349   0.265
50015SOL    HW251879  11.344  12.364   0.274
50016SOL     OW51880  11.349   1.489   7.516
50016SOL    HW151881  11.425   1.538   7.482
50016SOL    HW251882  11.294   1.556   7.557
50017SOL     OW51883   5.750   5.724  14.786
50017SOL    HW151884   5.714   5.796  14.838
50017SOL    HW251885   5.749   5.756  14.696
50018SOL     OW51886   0.169   8.063  10.412
50018SOL    HW151887   0.141   8.027  10.328
50018SOL    HW251888   0.088   8.076  10.461
50019SOL     OW51889   2.211   3.738   8.380
50019SOL    HW151890   2.159   3.740   8.300
50019SOL    HW251891   2.286   3.794   8.362
50020SOL     OW51892   2.976   7.460   3.398
50020SOL    HW151893   3.046   7.489   3.340
50020SOL    HW251894   3.014   7.388   3.448
50021SOL     OW51895  11.395  12.587   4.713
50021SOL    HW151896  11.307  12.555   4.736
50021SOL    HW251897  11.397  12.677   4.745
50022SOL     OW51898  13.303   4.137   8.109
50022SOL    HW151899  13.334   4.164   8.023
50022SOL    HW251900  13.343   4.200   8.170
50023SOL     OW51901  13.525   7.444   4.995
50023SOL    HW151902  13.617   7.421   5.005
50023SOL    HW251903  13.525   7.521   4.937
50024SOL     OW51904  14.385   8.567   9.094
50024SOL    HW151905  14.453   8.537   9.155
50024SOL    HW251906  14.305   8.567   9.146
50025SOL     OW51907   5.027  11.255   2.537
50025SOL    HW151908   4.968  11.207   2.479
50025SOL    HW251909   5.079  11.311   2.478
50026SOL     OW51910  10.905   3.745  11.228
50026SOL    HW151911  10.850   3.696  11.289
50026SOL    HW251912  10.989   3.700  11.230
50027SOL     OW51913   8.013   6.797  10.982
50027SOL    HW151914   7.930   6.782  10.937
50027SOL    HW251915   8.001   6.880  11.029
50028SOL     OW51916   6.196   4.510   9.026
50028SOL    HW151917   6.226   4.492   8.937
50028SOL    HW251918   6.149   4.430   9.052
50029SOL     OW51919  14.801   7.267   4.597
50029SOL    HW151920  14.781   7.228   4.682
50029SOL    HW251921  14.768   7.357   4.604
50030SOL     OW51922   8.219  12.657   1.656
50030SOL    HW151923   8.250  12.683   1.742
50030SOL    HW251924   8.194  12.739   1.614
50031SOL     OW51925   7.312   9.109  13.141
50031SOL    HW151926   7.339   9.020  13.160
50031SOL    HW251927   7.239   9.125  13.201
50032SOL     OW51928  13.339   4.131   0.791
50032SOL    HW151929  13.262   4.188   0.784
50032SOL    HW251930  13.312   4.061   0.851
50033SOL     OW51931  14.588  14.460  13.453
50033SOL    HW151932  14.533  14.419  13.386
50033SOL    HW251933  14.574  14.554  13.442
50034SOL     OW51934   6.533  10.226   3.928
50034SOL    HW151935   6.455  10.227   3.983
50034SOL    HW251936   6.525  10.146   3.875
50035SOL     OW51937   0.474   7.265  14.080
50035SOL    HW151938   0.489   7.286  13.987
50035SOL    HW251939   0.562   7.262  14.118
50036SOL     OW51940  14.317   9.010  14.255
50036SOL    HW151941  14.360   9.090  14.285
50036SOL    HW251942  14.269   9.036  14.176
50037SOL     OW51943  12.670   4.319   9.615
50037SOL    HW151944  12.603   4.255   9.638
50037SOL    HW251945  12.641   4.400   9.656
50038SOL     OW51946  13.865   7.277   0.442
50038SOL    HW151947  13.905   7.227   0.371
50038SOL    HW251948  13.859   7.367   0.409
50039SOL     OW51949   6.919   9.379   0.715
50039SOL    HW151950   6.998   9.353   0.762
50039SOL    HW251951   6.898   9.304   0.660
50040SOL     OW51952   9.944   4.816   2.987
50040SOL    HW151953   9.940   4.869   2.908
50040SOL    HW251954   9.992   4.737   2.960
50041SOL     OW51955  14.243   8.703   4.426
50041SOL    HW151956  14.298   8.632   4.395
50041SOL    HW251957  14.282   8.782   4.387
50042SOL     OW51958   9.773   3.987   9.100
50042SOL    HW151959   9.701   3.998   9.038
50042SOL    HW251960   9.767   4.064   9.157
50043SOL     OW51961   0.605   7.902   1.320
50043SOL    HW151962   0.599   7.932   1.229
50043SOL    HW251963   0.645   7.974   1.367
50044SOL     OW51964   8.310  10.693  12.549
50044SOL    HW151965   8.343  10.659  12.632
50044SOL    HW251966   8.289  10.785  12.567
50045SOL     OW51967  14.857  10.916  13.863
50045SOL    HW151968  14.824  11.005  13.854
50045SOL    HW251969   0.021  10.916  13.949
50046SOL     OW51970   9.977   1.736   6.890
50046SOL    HW151971   9.886   1.724   6.918
50046SOL    HW251972   9.980   1.826   6.856
50047SOL     OW51973   9.734   8.012   9.283
50047SOL    HW151974   9.719   7.923   9.316
50047SOL    HW251975   9.647   8.047   9.269
50048SOL     OW51976   8.377   8.454  12.094
50048SOL    HW151977   8.334   8.428  12.175
50048SOL    HW251978   8.306   8.489  12.039
50049SOL     OW51979   6.011   0.517   7.261
50049SOL    HW151980   5.960   0.588   7.223
50049SOL    HW251981   5.952   0.442   7.259
50050SOL     OW51982   9.110   7.037   5.447
50050SOL    HW151983   9.026   7.045   5.493
50050SOL    HW251984   9.132   7.126   5.421
50051SOL     OW51985   6.416   2.086   0.824
50051SOL    HW151986   6.342   2.040   0.783
50051SOL    HW251987   6.481   2.017   0.839
50052SOL     OW51988   3.555  14.090  10.002
50052SOL    HW151989   3.576  14.130   9.917
50052SOL    HW251990   3.538  14.164  10.060
50053SOL     OW51991  14.258  13.700   5.573
50053SOL    HW151992  14.298  13.664   5.652
50053SOL    HW251993  14.172  13.658   5.568
50054SOL     OW51994  13.641   5.992   0.607
50054SOL    HW151995  13.686   5.917   0.567
50054SOL    HW251996  13.614   5.960   0.693
50055SOL     OW51997   1.491  10.196   1.815
50055SOL    HW151998   1.523  10.148   1.738
50055SOL    HW251999   1.560  10.259   1.834
50056SOL     OW52000   7.100   1.532  11.342
50056SOL    HW152001   7.075   1.524  11.250
50056SOL    HW252002   7.129   1.622  11.351
50057SOL     OW52003   9.235   0.547   1.908
50057SOL    HW152004   9.187   0.590   1.838
50057SOL    HW252005   9.324   0.537   1.874
50058SOL     OW52006   9.067   8.840   5.076
50058SOL    HW152007   9.091   8.906   5.010
50058SOL    HW252008   9.145   8.786   5.086
50059SOL     OW52009   7.763   3.185   5.107
50059SOL    HW152010   7.768   3.215   5.016
50059SOL    HW252011   7.797   3.096   5.106
50060SOL     OW52012   3.893   5.422   9.379
50060SOL    HW152013   3.836   5.416   9.303
50060SOL    HW252014   3.875   5.508   9.417
50061SOL     OW52015   8.382   5.949   0.409
50061SOL    HW152016   8.412   5.956   0.318
50061SOL    HW252017   8.463   5.947   0.461
50062SOL     OW52018   9.224  12.976   0.109
50062SOL    HW152019   9.149  13.024   0.145
50062SOL    HW252020   9.184  12.904   0.060
50063SOL     OW52021  14.607   7.013   5.330
50063SOL    HW152022  14.639   7.025   5.420
50063SOL    HW252023  14.525   6.964   5.341
50064SOL     OW52024   6.000   6.467   2.604
50064SOL    HW152025   5.925   6.468   2.663
50064SOL    HW252026   5.962   6.471   2.516
50065SOL     OW52027   3.711   5.203   0.439
50065SOL    HW152028   3.721   5.172   0.529
50065SOL    HW252029   3.695   5.297   0.448
50066SOL     OW52030   8.142   0.991  12.838
50066SOL    HW152031   8.192   0.979  12.919
50066SOL    HW252032   8.207   1.022  12.774
50067SOL     OW52033   2.102  14.414   7.170
50067SOL    HW152034   2.093  14.450   7.257
50067SOL    HW252035   2.038  14.462   7.117
50068SOL     OW52036   4.126   5.347   6.673
50068SOL    HW152037   4.204   5.399   6.655
50068SOL    HW252038   4.053   5.408   6.664
50069SOL     OW52039   3.366   6.811  14.158
50069SOL    HW152040   3.280   6.781  14.187
50069SOL    HW252041   3.417   6.730  14.149
50070SOL     OW52042  13.102   0.362  12.821
50070SOL    HW152043  13.050   0.305  12.878
50070SOL    HW252044  13.184   0.375  12.868
50071SOL     OW52045   2.507   9.620   7.413
50071SOL    HW152046   2.533   9.711   7.398
50071SOL    HW252047   2.420   9.613   7.373
50072SOL     OW52048  12.386  14.534   9.250
50072SOL    HW152049  12.448  14.588   9.201
50072SOL    HW252050  12.326  14.597   9.290
50073SOL     OW52051   9.695   8.193  11.352
50073SOL    HW152052   9.773   8.211  11.299
50073SOL    HW252053   9.622   8.199  11.290
50074SOL     OW52054   3.028  11.331  14.451
50074SOL    HW152055   2.999  11.243  14.476
50074SOL    HW252056   2.951  11.371  14.411
50075SOL     OW52057   6.752   6.479   3.488
50075SOL    HW152058   6.730   6.522   3.571
50075SOL    HW252059   6.841   6.446   3.501
50076SOL     OW52060   1.640   9.516   6.910
50076SOL    HW152061   1.703   9.450   6.880
50076SOL    HW252062   1.580   9.467   6.967
50077SOL     OW52063   7.348  12.037  12.508
50077SOL    HW152064   7.379  12.128  12.510
50077SOL    HW252065   7.351  12.009  12.599
50078SOL     OW52066   2.342   3.932   1.580
50078SOL    HW152067   2.328   4.026   1.569
50078SOL    HW252068   2.432   3.926   1.612
50079SOL     OW52069   1.331   0.826   6.655
50079SOL    HW152070   1.249   0.832   6.704
50079SOL    HW252071   1.388   0.770   6.708
50080SOL     OW52072   8.770   2.491  14.141
50080SOL    HW152073   8.782   2.431  14.068
50080SOL    HW252074   8.692   2.543  14.119
50081SOL     OW52075  12.030   5.772   5.002
50081SOL    HW152076  11.948   5.819   5.016
50081SOL    HW252077  12.023   5.737   4.914
50082SOL     OW52078  12.108   8.804   7.583
50082SOL    HW152079  12.117   8.807   7.487
50082SOL    HW252080  12.195   8.828   7.615
50083SOL     OW52081  13.397   7.522   4.241
50083SOL    HW152082  13.322   7.569   4.205
50083SOL    HW252083  13.375   7.430   4.233
50084SOL     OW52084   8.557   4.962  10.197
50084SOL    HW152085   8.491   5.011  10.149
50084SOL    HW252086   8.639   5.008  10.177
50085SOL     OW52087  11.578  14.116  12.424
50085SOL    HW152088  11.518  14.102  12.351
50085SOL    HW252089  11.531  14.085  12.501
50086SOL     OW52090   3.534   7.342   6.017
50086SOL    HW152091   3.539   7.409   5.949
50086SOL    HW252092   3.610   7.358   6.073
50087SOL     OW52093   8.336  14.143   6.619
50087SOL    HW152094   8.329  14.108   6.530
50087SOL    HW252095   8.430  14.140   6.638
50088SOL     OW52096   0.213   1.904   9.600
50088SOL    HW152097   0.249   1.816   9.589
50088SOL    HW252098   0.262   1.942   9.672
50089SOL     OW52099   2.778  10.107  10.991
50089SOL    HW152100   2.813  10.030  11.036
50089SOL    HW252101   2.753  10.075  10.905
50090SOL     OW52102  11.735   7.043   8.079
50090SOL    HW152103  11.754   7.105   8.149
50090SOL    HW252104  11.767   7.085   7.999
50091SOL     OW52105  14.413   0.660   1.760
50091SOL    HW152106  14.335   0.712   1.740
50091SOL    HW252107  14.470   0.671   1.685
50092SOL     OW52108  13.650   9.471  12.931
50092SOL    HW152109  13.644   9.398  12.994
50092SOL    HW252110  13.704   9.536  12.975
50093SOL     OW52111   1.169   2.396   8.774
50093SOL    HW152112   1.117   2.390   8.694
50093SOL    HW252113   1.188   2.305   8.797
50094SOL     OW52114   0.545   0.680   7.823
50094SOL    HW152115   0.459   0.651   7.853
50094SOL    HW252116   0.588   0.601   7.790
50095SOL     OW52117   7.346   4.977   0.867
50095SOL    HW152118   7.416   4.919   0.835
50095SOL    HW252119   7.315   4.934   0.947
50096SOL     OW52120   0.160  11.066   7.551
50096SOL    HW152121   0.156  10.987   7.496
50096SOL    HW252122   0.068  11.093   7.560
50097SOL     OW52123   3.979   5.445   0.411
50097SOL    HW152124   4.061   5.459   0.363
50097SOL    HW252125   3.963   5.351   0.404
50098SOL     OW52126   3.296   4.749   8.292
50098SOL    HW152127   3.325   4.826   8.341
50098SOL    HW252128   3.268   4.687   8.359
50099SOL     OW52129  12.705  13.364  11.426
50099SOL    HW152130  12.701  13.421  11.349
50099SOL    HW252131  12.681  13.278  11.392
50100SOL     OW52132   6.810   4.161   2.500
50100SOL    HW152133   6.756   4.236   2.474
50100SOL    HW252134   6.881   4.199   2.552
50101SOL     OW52135   3.037   4.362   2.162
50101SOL    HW152136   2.975   4.386   2.231
50101SOL    HW252137   2.982   4.327   2.092
50102SOL     OW52138   8.498   3.830  13.265
50102SOL    HW152139   8.534   3.892  13.200
50102SOL    HW252140   8.562   3.829  13.335
50103SOL     OW52141   5.688   8.863   6.023
50103SOL    HW152142   5.741   8.852   6.102
50103SOL    HW252143   5.677   8.774   5.989
50104SOL     OW52144  11.659   8.824   9.361
50104SOL    HW152145  11.747   8.856   9.341
50104SOL    HW252146  11.665   8.789   9.449
50105SOL     OW52147  11.623   6.482   3.757
50105SOL    HW152148  11.577   6.417   3.704
50105SOL    HW252149  11.555   6.544   3.784
50106SOL     OW52150  12.502  10.206   0.352
50106SOL    HW152151  12.596  10.226   0.350
50106SOL    HW252152  12.461  10.290   0.374
50107SOL     OW52153   5.616   3.965  11.023
50107SOL    HW152154   5.568   4.025  11.080
50107SOL    HW252155   5.683   3.928  11.080
50108SOL     OW52156   8.960  10.759   7.331
50108SOL    HW152157   9.033  10.707   7.364
50108SOL    HW252158   8.914  10.701   7.270
50109SOL     OW52159  12.189   0.669  13.759
50109SOL    HW152160  12.220   0.602  13.698
50109SOL    HW252161  12.098   0.645  13.776
50110SOL     OW52162   9.567  12.837   2.546
50110SOL    HW152163   9.640  12.898   2.546
50110SOL    HW252164   9.548  12.822   2.638
50111SOL     OW52165  11.855   9.010   6.132
50111SOL    HW152166  11.789   9.078   6.113
50111SOL    HW252167  11.907   9.047   6.203
50112SOL     OW52168  13.165  10.927   0.597
50112SOL    HW152169  13.184  10.834   0.610
50112SOL    HW252170  13.251  10.968   0.586
50113SOL     OW52171  14.745  13.529   0.377
50113SOL    HW152172  14.708  13.445   0.404
50113SOL    HW252173  14.682  13.594   0.406
50114SOL     OW52174   5.563  12.023  12.183
50114SOL    HW152175   5.513  12.007  12.263
50114SOL    HW252176   5.614  12.102  12.202
50115SOL     OW52177   9.113   4.588   8.070
50115SOL    HW152178   9.134   4.654   8.004
50115SOL    HW252179   9.167   4.610   8.145
50116SOL     OW52180   4.003   3.345   6.662
50116SOL    HW152181   4.095   3.317   6.658
50116SOL    HW252182   3.954   3.263   6.662
50117SOL     OW52183   3.821   5.879   6.610
50117SOL    HW152184   3.742   5.844   6.652
50117SOL    HW252185   3.829   5.968   6.643
50118SOL     OW52186   6.725   7.653  10.653
50118SOL    HW152187   6.644   7.675  10.607
50118SOL    HW252188   6.794   7.665  10.587
50119SOL     OW52189   8.127  13.773   8.308
50119SOL    HW152190   8.135  13.685   8.345
50119SOL    HW252191   8.188  13.773   8.234
50120SOL     OW52192  10.931   6.640   3.501
50120SOL    HW152193  10.945   6.550   3.531
50120SOL    HW252194  10.969   6.643   3.413
50121SOL     OW52195   9.400   0.417  10.339
50121SOL    HW152196   9.452   0.497  10.335
50121SOL    HW252197   9.402   0.384  10.249
50122SOL     OW52198  12.569   9.597   6.208
50122SOL    HW152199  12.610   9.591   6.122
50122SOL    HW252200  12.475   9.588   6.190
50123SOL     OW52201   7.771   0.645  14.159
50123SOL    HW152202   7.756   0.737  14.179
50123SOL    HW252203   7.826   0.645  14.081
50124SOL     OW52204  14.446   8.230   5.060
50124SOL    HW152205  14.493   8.154   5.095
50124SOL    HW252206  14.402   8.196   4.982
50125SOL     OW52207   8.467  14.178   2.924
50125SOL    HW152208   8.377  14.148   2.935
50125SOL    HW252209   8.487  14.226   3.005
50126SOL     OW52210   5.050  14.520   7.441
50126SOL    HW152211   4.982  14.559   7.496
50126SOL    HW252212   5.002  14.471   7.374
50127SOL     OW52213   2.932   9.107   9.259
50127SOL    HW152214   2.863   9.111   9.326
50127SOL    HW252215   2.965   9.018   9.264
50128SOL     OW52216   8.515   5.110   6.414
50128SOL    HW152217   8.483   5.025   6.383
50128SOL    HW252218   8.550   5.093   6.501
50129SOL     OW52219  10.553   0.021  14.087
50129SOL    HW152220  10.561   0.024  14.182
50129SOL    HW252221  10.561  14.807  14.065
50130SOL     OW52222   4.263  11.473  11.753
50130SOL    HW152223   4.266  11.402  11.688
50130SOL    HW252224   4.325  11.538  11.720
50131SOL     OW52225   4.445   6.825   0.733
50131SOL    HW152226   4.477   6.906   0.693
50131SOL    HW252227   4.517   6.763   0.722
50132SOL     OW52228   1.353   6.370  12.693
50132SOL    HW152229   1.359   6.307  12.764
50132SOL    HW252230   1.320   6.320  12.619
50133SOL     OW52231  10.667   7.445   6.429
50133SOL    HW152232  10.653   7.476   6.339
50133SOL    HW252233  10.761   7.452   6.443
50134SOL     OW52234   8.575   9.320   2.301
50134SOL    HW152235   8.494   9.330   2.251
50134SOL    HW252236   8.630   9.393   2.273
50135SOL     OW52237  11.966   1.700   5.929
50135SOL    HW152238  12.004   1.661   6.008
50135SOL    HW252239  12.008   1.653   5.857
50136SOL     OW52240   4.683   7.320  13.304
50136SOL    HW152241   4.739   7.304  13.228
50136SOL    HW252242   4.598   7.285  13.279
50137SOL     OW52243   5.207   1.628   9.273
50137SOL    HW152244   5.247   1.713   9.255
50137SOL    HW252245   5.280   1.572   9.299
50138SOL     OW52246  11.762   5.719   6.325
50138SOL    HW152247  11.698   5.745   6.258
50138SOL    HW252248  11.805   5.800   6.350
50139SOL     OW52249   8.564  11.621  10.499
50139SOL    HW152250   8.561  11.672  10.419
50139SOL    HW252251   8.486  11.565  10.495
50140SOL     OW52252   3.766   8.121   3.475
50140SOL    HW152253   3.859   8.116   3.495
50140SOL    HW252254   3.758   8.197   3.417
50141SOL     OW52255   4.978   5.570   1.043
50141SOL    HW152256   4.886   5.594   1.027
50141SOL    HW252257   5.000   5.613   1.125
50142SOL     OW52258   3.075   9.537   2.072
50142SOL    HW152259   3.046   9.497   1.990
50142SOL    HW252260   3.120   9.617   2.046
50143SOL     OW52261  13.020   7.249   8.399
50143SOL    HW152262  13.054   7.235   8.488
50143SOL    HW252263  12.951   7.183   8.389
50144SOL     OW52264  11.837  11.323   2.141
50144SOL    HW152265  11.831  11.288   2.052
50144SOL    HW252266  11.928  11.308   2.166
50145SOL     OW52267   0.054   6.690   5.703
50145SOL    HW152268   0.029   6.680   5.795
50145SOL    HW252269   0.002   6.624   5.657
50146SOL     OW52270   9.165   6.781  10.430
50146SOL    HW152271   9.234   6.834  10.389
50146SOL    HW252272   9.085   6.807  10.385
50147SOL     OW52273  14.572  14.409   7.572
50147SOL    HW152274  14.639  14.386   7.507
50147SOL    HW252275  14.568  14.505   7.569
50148SOL     OW52276   2.895   3.787   8.911
50148SOL    HW152277   2.891   3.793   8.816
50148SOL    HW252278   2.978   3.829   8.934
50149SOL     OW52279   1.753   2.630   3.219
50149SOL    HW152280   1.672   2.594   3.255
50149SOL    HW252281   1.812   2.638   3.295
50150SOL     OW52282  13.823  14.345   5.962
50150SOL    HW152283  13.845  14.263   5.917
50150SOL    HW252284  13.880  14.346   6.038
50151SOL     OW52285   6.967   2.085   1.961
50151SOL    HW152286   7.036   2.046   2.014
50151SOL    HW252287   6.984   2.052   1.872
50152SOL     OW52288   8.984  14.613   4.952
50152SOL    HW152289   8.899  14.651   4.975
50152SOL    HW252290   9.032  14.610   5.034
50153SOL     OW52291   0.318   9.524  14.870
50153SOL    HW152292   0.312   9.605  14.820
50153SOL    HW252293   0.371   9.547   0.068
50154SOL     OW52294  11.329   2.216  12.741
50154SOL    HW152295  11.410   2.182  12.703
50154SOL    HW252296  11.339   2.203  12.835
50155SOL     OW52297   4.459   8.399  12.525
50155SOL    HW152298   4.392   8.458  12.561
50155SOL    HW252299   4.414   8.353  12.454
50156SOL     OW52300   5.856   6.281  11.146
50156SOL    HW152301   5.944   6.247  11.132
50156SOL    HW252302   5.841   6.271  11.240
50157SOL     OW52303   6.546  12.813   3.864
50157SOL    HW152304   6.633  12.822   3.824
50157SOL    HW252305   6.515  12.903   3.872
50158SOL     OW52306   6.327   5.036  12.651
50158SOL    HW152307   6.346   5.130  12.650
50158SOL    HW252308   6.234   5.031  12.630
50159SOL     OW52309   4.519  10.916   0.121
50159SOL    HW152310   4.543  10.967   0.043
50159SOL    HW252311   4.427  10.892   0.106
50160SOL     OW52312   3.760   7.651   6.189
50160SOL    HW152313   3.684   7.709   6.191
50160SOL    HW252314   3.815   7.681   6.262
50161SOL     OW52315  10.748   9.137  14.336
50161SOL    HW152316  10.683   9.066  14.339
50161SOL    HW252317  10.786   9.131  14.248
50162SOL     OW52318   1.680  14.078   2.953
50162SOL    HW152319   1.643  14.056   2.868
50162SOL    HW252320   1.736  14.153   2.936
50163SOL     OW52321   0.996   4.287  11.602
50163SOL    HW152322   1.035   4.251  11.682
50163SOL    HW252323   0.959   4.211  11.557
50164SOL     OW52324   2.676  11.796   0.533
50164SOL    HW152325   2.743  11.782   0.467
50164SOL    HW252326   2.633  11.711   0.543
50165SOL     OW52327   8.972  12.917   7.351
50165SOL    HW152328   9.028  12.841   7.335
50165SOL    HW252329   8.886  12.881   7.371
50166SOL     OW52330  11.078  14.228   8.515
50166SOL    HW152331  11.023  14.236   8.437
50166SOL    HW252332  11.029  14.273   8.584
50167SOL     OW52333   2.260   6.574  11.632
50167SOL    HW152334   2.196   6.643  11.647
50167SOL    HW252335   2.208   6.497  11.609
50168SOL     OW52336   9.142  12.984  10.549
50168SOL    HW152337   9.094  12.904  10.528
50168SOL    HW252338   9.229  12.970  10.510
50169SOL     OW52339   0.643   6.505   1.786
50169SOL    HW152340   0.708   6.443   1.751
50169SOL    HW252341   0.694   6.566   1.839
50170SOL     OW52342   2.726  10.760   6.944
50170SOL    HW152343   2.649  10.732   6.895
50170SOL    HW252344   2.776  10.813   6.883
50171SOL     OW52345  12.525   5.301   5.758
50171SOL    HW152346  12.596   5.326   5.817
50171SOL    HW252347  12.560   5.228   5.707
50172SOL     OW52348   5.430  12.098   6.564
50172SOL    HW152349   5.393  12.049   6.491
50172SOL    HW252350   5.520  12.118   6.537
50173SOL     OW52351   4.974  14.345   3.444
50173SOL    HW152352   4.978  14.250   3.443
50173SOL    HW252353   4.960  14.369   3.352
50174SOL     OW52354   1.484  14.002   2.667
50174SOL    HW152355   1.413  13.944   2.694
50174SOL    HW252356   1.440  14.078   2.630
50175SOL     OW52357   3.481   5.258  12.025
50175SOL    HW152358   3.483   5.342  11.979
50175SOL    HW252359   3.519   5.196  11.963
50176SOL     OW52360  11.717   2.810   5.144
50176SOL    HW152361  11.752   2.802   5.232
50176SOL    HW252362  11.726   2.722   5.106
50177SOL     OW52363  11.755   6.042  12.602
50177SOL    HW152364  11.835   5.993  12.621
50177SOL    HW252365  11.688   5.976  12.586
50178SOL     OW52366  10.266  10.071   5.540
50178SOL    HW152367  10.303  10.006   5.481
50178SOL    HW252368  10.223  10.135   5.483
50179SOL     OW52369  13.301   1.046   9.172
50179SOL    HW152370  13.392   1.060   9.148
50179SOL    HW252371  13.276   1.124   9.221
50180SOL     OW52372   7.261  11.884   3.433
50180SOL    HW152373   7.287  11.794   3.415
50180SOL    HW252374   7.172  11.891   3.400
50181SOL     OW52375  13.411   6.841   3.739
50181SOL    HW152376  13.439   6.904   3.672
50181SOL    HW252377  13.342   6.791   3.696
50182SOL     OW52378   0.201   0.681   8.198
50182SOL    HW152379   0.150   0.750   8.241
50182SOL    HW252380   0.275   0.666   8.256
50183SOL     OW52381   9.116   0.324  11.757
50183SOL    HW152382   9.126   0.397  11.819
50183SOL    HW252383   9.160   0.251  11.800
50184SOL     OW52384   1.717   3.315   1.695
50184SOL    HW152385   1.651   3.246   1.704
50184SOL    HW252386   1.666   3.396   1.697
50185SOL     OW52387   0.228   7.243   8.898
50185SOL    HW152388   0.171   7.234   8.974
50185SOL    HW252389   0.313   7.211   8.928
50186SOL     OW52390   7.358  14.531   4.096
50186SOL    HW152391   7.269  14.564   4.102
50186SOL    HW252392   7.412  14.601   4.135
50187SOL     OW52393  13.695   8.901   8.973
50187SOL    HW152394  13.664   8.843   9.043
50187SOL    HW252395  13.617   8.919   8.920
50188SOL     OW52396   5.979   1.655   9.141
50188SOL    HW152397   6.062   1.668   9.186
50188SOL    HW252398   5.962   1.561   9.150
50189SOL     OW52399   0.382  14.645  13.913
50189SOL    HW152400   0.464  14.690  13.930
50189SOL    HW252401   0.316  14.698  13.959
50190SOL     OW52402   8.258  10.062   2.778
50190SOL    HW152403   8.185  10.074   2.717
50190SOL    HW252404   8.221  10.077   2.865
50191SOL     OW52405  12.024   0.505   7.389
50191SOL    HW152406  11.995   0.416   7.368
50191SOL    HW252407  11.997   0.558   7.314
50192SOL     OW52408   8.746   9.640   4.805
50192SOL    HW152409   8.841   9.634   4.798
50192SOL    HW252410   8.729   9.732   4.828
50193SOL     OW52411   2.243   6.692   3.087
50193SOL    HW152412   2.163   6.742   3.071
50193SOL    HW252413   2.314   6.751   3.065
50194SOL     OW52414   6.243   4.979  12.281
50194SOL    HW152415   6.236   5.074  12.288
50194SOL    HW252416   6.276   4.964  12.192
50195SOL     OW52417   3.092   2.488  11.589
50195SOL    HW152418   3.015   2.456  11.542
50195SOL    HW252419   3.106   2.576  11.555
50196SOL     OW52420   1.330  11.430   1.151
50196SOL    HW152421   1.375  11.390   1.226
50196SOL    HW252422   1.333  11.524   1.168
50197SOL     OW52423   0.209   3.551   4.565
50197SOL    HW152424   0.296   3.520   4.590
50197SOL    HW252425   0.219   3.645   4.554
50198SOL     OW52426   8.903   0.051  13.116
50198SOL    HW152427   8.928   0.018  13.202
50198SOL    HW252428   8.909  14.854  13.058
50199SOL     OW52429   9.904   2.846   5.463
50199SOL    HW152430   9.886   2.753   5.471
50199SOL    HW252431   9.849   2.875   5.390
50200SOL     OW52432   9.099  13.770  13.562
50200SOL    HW152433   9.104  13.699  13.627
50200SOL    HW252434   9.015  13.812  13.579
50201SOL     OW52435  13.345  13.186  12.922
50201SOL    HW152436  13.357  13.277  12.949
50201SOL    HW252437  13.370  13.185  12.830
50202SOL     OW52438  11.578  11.115   6.410
50202SOL    HW152439  11.526  11.057   6.354
50202SOL    HW252440  11.583  11.069   6.494
50203SOL     OW52441   0.776   7.441   3.394
50203SOL    HW152442   0.848   7.502   3.412
50203SOL    HW252443   0.726   7.437   3.475
50204SOL     OW52444  10.708  10.351   0.007
50204SOL    HW152445  10.714  10.256   0.011
50204SOL    HW252446  10.676  10.377   0.094
50205SOL     OW52447   9.026  13.742   4.842
50205SOL    HW152448   8.983  13.657   4.843
50205SOL    HW252449   8.955  13.804   4.827
50206SOL     OW52450  12.189   4.337  10.163
50206SOL    HW152451  12.221   4.408  10.107
50206SOL    HW252452  12.168   4.380  10.246
50207SOL     OW52453   7.670  14.514   8.787
50207SOL    HW152454   7.619  14.564   8.724
50207SOL    HW252455   7.607  14.487   8.853
50208SOL     OW52456   3.473   6.568   0.132
50208SOL    HW152457   3.438   6.655   0.112
50208SOL    HW252458   3.481   6.526   0.047
50209SOL     OW52459   7.329   6.255   3.287
50209SOL    HW152460   7.342   6.251   3.381
50209SOL    HW252461   7.413   6.286   3.252
50210SOL     OW52462  10.587   9.117   4.083
50210SOL    HW152463  10.492   9.126   4.095
50210SOL    HW252464  10.599   9.110   3.989
50211SOL     OW52465   1.425  13.157  13.926
50211SOL    HW152466   1.359  13.192  13.866
50211SOL    HW252467   1.466  13.086  13.877
50212SOL     OW52468  10.707  14.820   5.775
50212SOL    HW152469  10.640   0.010   5.774
50212SOL    HW252470  10.666  14.747   5.820
50213SOL     OW52471  12.738   1.748  13.956
50213SOL    HW152472  12.668   1.754  13.891
50213SOL    HW252473  12.786   1.830  13.948
50214SOL     OW52474   6.483   4.856   2.917
50214SOL    HW152475   6.552   4.812   2.967
50214SOL    HW252476   6.530   4.909   2.853
50215SOL     OW52477  12.076   3.850  12.084
50215SOL    HW152478  12.050   3.942  12.092
50215SOL    HW252479  12.160   3.853  12.038
50216SOL     OW52480  11.795   9.089   6.883
50216SOL    HW152481  11.745   9.103   6.803
50216SOL    HW252482  11.733   9.051   6.945
50217SOL     OW52483  10.551   7.921  10.502
50217SOL    HW152484  10.629   7.916  10.447
50217SOL    HW252485  10.582   7.961  10.584
50218SOL     OW52486   6.314   3.447   6.684
50218SOL    HW152487   6.365   3.505   6.740
50218SOL    HW252488   6.362   3.445   6.601
50219SOL     OW52489   3.029   8.481   5.642
50219SOL    HW152490   3.112   8.520   5.671
50219SOL    HW252491   3.030   8.393   5.679
50220SOL     OW52492   7.053   1.206   9.567
50220SOL    HW152493   7.110   1.138   9.530
50220SOL    HW252494   7.010   1.245   9.491
50221SOL     OW52495  12.808   6.347   7.726
50221SOL    HW152496  12.831   6.380   7.639
50221SOL    HW252497  12.746   6.276   7.708
50222SOL     OW52498   2.623  14.803   7.350
50222SOL    HW152499   2.595  14.869   7.287
50222SOL    HW252500   2.550  14.797   7.412
50223SOL     OW52501  10.722   3.899   6.613
50223SOL    HW152502  10.757   3.854   6.536
50223SOL    HW252503  10.758   3.851   6.688
50224SOL     OW52504   2.512   9.559  14.560
50224SOL    HW152505   2.474   9.518  14.483
50224SOL    HW252506   2.445   9.620  14.591
50225SOL     OW52507   8.351  10.371  14.512
50225SOL    HW152508   8.414  10.300  14.497
50225SOL    HW252509   8.281  10.354  14.449
50226SOL     OW52510   5.550   4.091   6.250
50226SOL    HW152511   5.502   4.119   6.172
50226SOL    HW252512   5.575   4.000   6.232
50227SOL     OW52513   2.888  14.844   7.047
50227SOL    HW152514   2.876  14.750   7.060
50227SOL    HW252515   2.952  14.851   6.976
50228SOL     OW52516  10.800   3.754  14.180
50228SOL    HW152517  10.887   3.751  14.141
50228SOL    HW252518  10.812   3.805  14.260
50229SOL     OW52519  14.203   5.796   9.178
50229SOL    HW152520  14.133   5.783   9.114
50229SOL    HW252521  14.178   5.742   9.253
50230SOL     OW52522  14.188   8.511   2.165
50230SOL    HW152523  14.113   8.476   2.214
50230SOL    HW252524  14.261   8.454   2.190
50231SOL     OW52525   4.913  11.749   1.304
50231SOL    HW152526   4.908  11.843   1.320
50231SOL    HW252527   4.988  11.720   1.356
50232SOL     OW52528   6.510   2.412   3.936
50232SOL    HW152529   6.557   2.346   3.987
50232SOL    HW252530   6.573   2.482   3.923
50233SOL     OW52531   6.845   2.883  12.301
50233SOL    HW152532   6.832   2.803  12.250
50233SOL    HW252533   6.922   2.864  12.356
50234SOL     OW52534  13.333  12.125  13.986
50234SOL    HW152535  13.309  12.056  13.924
50234SOL    HW252536  13.271  12.196  13.967
50235SOL     OW52537   0.786   5.782   1.509
50235SOL    HW152538   0.818   5.871   1.499
50235SOL    HW252539   0.864   5.731   1.532
50236SOL     OW52540   4.788   4.559   3.623
50236SOL    HW152541   4.805   4.485   3.564
50236SOL    HW252542   4.698   4.546   3.652
50237SOL     OW52543  10.105   9.203  14.662
50237SOL    HW152544  10.018   9.238  14.648
50237SOL    HW252545  10.135   9.177  14.574
50238SOL     OW52546   8.818  11.987   6.162
50238SOL    HW152547   8.789  11.926   6.229
50238SOL    HW252548   8.797  12.074   6.198
50239SOL     OW52549  11.847   8.316  10.909
50239SOL    HW152550  11.903   8.361  10.972
50239SOL    HW252551  11.875   8.348  10.823
50240SOL     OW52552   5.026   0.477   6.187
50240SOL    HW152553   5.075   0.552   6.152
50240SOL    HW252554   4.935   0.495   6.163
50241SOL     OW52555   9.040   1.123  10.207
50241SOL    HW152556   8.978   1.192  10.231
50241SOL    HW252557   9.072   1.089  10.290
50242SOL     OW52558   0.693  13.082   2.049
50242SOL    HW152559   0.732  13.086   1.962
50242SOL    HW252560   0.759  13.120   2.107
50243SOL     OW52561   7.432   8.516   8.613
50243SOL    HW152562   7.390   8.431   8.605
50243SOL    HW252563   7.414   8.560   8.530
50244SOL     OW52564   0.534   3.395  14.644
50244SOL    HW152565   0.532   3.300  14.648
50244SOL    HW252566   0.463   3.418  14.584
50245SOL     OW52567   0.096   4.695   1.879
50245SOL    HW152568   0.165   4.745   1.923
50245SOL    HW252569   0.061   4.754   1.813
50246SOL     OW52570  12.074   1.749   3.524
50246SOL    HW152571  12.075   1.706   3.439
50246SOL    HW252572  12.148   1.810   3.521
50247SOL     OW52573   8.744  11.665  13.679
50247SOL    HW152574   8.751  11.628  13.591
50247SOL    HW252575   8.834  11.675  13.709
50248SOL     OW52576   4.447  13.035   6.230
50248SOL    HW152577   4.415  13.041   6.320
50248SOL    HW252578   4.484  13.122   6.212
50249SOL     OW52579   3.206   5.638   0.619
50249SOL    HW152580   3.182   5.729   0.606
50249SOL    HW252581   3.142   5.589   0.568
50250SOL     OW52582  10.619   5.727  12.264
50250SOL    HW152583  10.597   5.704  12.174
50250SOL    HW252584  10.544   5.697  12.316
50251SOL     OW52585   7.521   2.364  14.406
50251SOL    HW152586   7.589   2.414  14.360
50251SOL    HW252587   7.470   2.430  14.453
50252SOL     OW52588   6.608   2.164   2.051
50252SOL    HW152589   6.648   2.243   2.087
50252SOL    HW252590   6.610   2.101   2.123
50253SOL     OW52591   3.948   6.525   0.969
50253SOL    HW152592   3.960   6.587   0.897
50253SOL    HW252593   4.033   6.482   0.978
50254SOL     OW52594   7.422   1.078   9.750
50254SOL    HW152595   7.443   1.081   9.657
50254SOL    HW252596   7.366   1.155   9.764
50255SOL     OW52597   0.841   0.510  11.867
50255SOL    HW152598   0.810   0.430  11.908
50255SOL    HW252599   0.930   0.522  11.901
50256SOL     OW52600   4.110   2.489   8.333
50256SOL    HW152601   4.167   2.564   8.315
50256SOL    HW252602   4.155   2.441   8.403
50257SOL     OW52603  13.114  14.565   8.917
50257SOL    HW152604  13.118  14.601   8.828
50257SOL    HW252605  13.166  14.625   8.970
50258SOL     OW52606   6.413  11.096   7.030
50258SOL    HW152607   6.378  11.131   7.112
50258SOL    HW252608   6.508  11.094   7.042
50259SOL     OW52609   4.565   3.110   2.941
50259SOL    HW152610   4.550   3.015   2.938
50259SOL    HW252611   4.610   3.129   2.858
50260SOL     OW52612   3.034   8.063   1.177
50260SOL    HW152613   2.973   8.029   1.242
50260SOL    HW252614   3.119   8.025   1.202
50261SOL     OW52615   0.785  11.351   1.311
50261SOL    HW152616   0.854  11.319   1.369
50261SOL    HW252617   0.730  11.274   1.294
50262SOL     OW52618   7.608  11.592  12.467
50262SOL    HW152619   7.702  11.599  12.479
50262SOL    HW252620   7.597  11.556  12.379
50263SOL     OW52621   1.472  13.542   7.356
50263SOL    HW152622   1.473  13.477   7.427
50263SOL    HW252623   1.467  13.626   7.401
50264SOL     OW52624   9.287  10.349  10.421
50264SOL    HW152625   9.310  10.399  10.342
50264SOL    HW252626   9.363  10.358  10.478
50265SOL     OW52627  10.856  14.415  11.588
50265SOL    HW152628  10.857  14.403  11.683
50265SOL    HW252629  10.786  14.478  11.573
50266SOL     OW52630  12.548   0.096  12.709
50266SOL    HW152631  12.580   0.104  12.799
50266SOL    HW252632  12.484   0.025  12.712
50267SOL     OW52633  12.679   0.848  13.982
50267SOL    HW152634  12.592   0.868  13.948
50267SOL    HW252635  12.696   0.759  13.951
50268SOL     OW52636   1.086   8.611   2.616
50268SOL    HW152637   1.123   8.674   2.677
50268SOL    HW252638   0.998   8.643   2.598
50269SOL     OW52639  11.306  11.943   4.084
50269SOL    HW152640  11.300  12.038   4.093
50269SOL    HW252641  11.236  11.910   4.141
50270SOL     OW52642  13.842   0.404   0.795
50270SOL    HW152643  13.761   0.364   0.763
50270SOL    HW252644  13.817   0.449   0.876
50271SOL     OW52645   1.891  13.676   2.114
50271SOL    HW152646   1.797  13.684   2.133
50271SOL    HW252647   1.932  13.741   2.171
50272SOL     OW52648   4.100   4.022   6.681
50272SOL    HW152649   4.084   3.928   6.693
50272SOL    HW252650   4.195   4.031   6.688
50273SOL     OW52651   2.878   4.581   2.575
50273SOL    HW152652   2.871   4.644   2.647
50273SOL    HW252653   2.962   4.603   2.533
50274SOL     OW52654   2.463  10.258   0.611
50274SOL    HW152655   2.464  10.321   0.540
50274SOL    HW252656   2.529  10.289   0.673
50275SOL     OW52657   8.426   8.999   4.191
50275SOL    HW152658   8.408   9.027   4.101
50275SOL    HW252659   8.340   8.981   4.228
50276SOL     OW52660   6.961   4.521   6.841
50276SOL    HW152661   6.944   4.556   6.928
50276SOL    HW252662   7.056   4.515   6.836
50277SOL     OW52663  14.504   5.813   2.299
50277SOL    HW152664  14.577   5.861   2.340
50277SOL    HW252665  14.445   5.881   2.268
50278SOL     OW52666  12.479   2.523   8.931
50278SOL    HW152667  12.405   2.574   8.963
50278SOL    HW252668  12.440   2.462   8.867
50279SOL     OW52669   9.642  12.496   9.416
50279SOL    HW152670   9.662  12.582   9.380
50279SOL    HW252671   9.680  12.434   9.353
50280SOL     OW52672  13.989   6.965   7.556
50280SOL    HW152673  13.951   6.892   7.605
50280SOL    HW252674  14.082   6.946   7.553
50281SOL     OW52675   9.095  14.556  13.277
50281SOL    HW152676   9.164  14.546  13.343
50281SOL    HW252677   9.054  14.470  13.273
50282SOL     OW52678   5.947   9.973   5.264
50282SOL    HW152679   6.041   9.984   5.251
50282SOL    HW252680   5.923   9.901   5.205
50283SOL     OW52681   6.843   4.822  11.972
50283SOL    HW152682   6.820   4.849  11.883
50283SOL    HW252683   6.776   4.756  11.995
50284SOL     OW52684  11.686  10.171   6.594
50284SOL    HW152685  11.641  10.093   6.561
50284SOL    HW252686  11.773  10.140   6.617
50285SOL     OW52687  11.949  12.274   5.266
50285SOL    HW152688  11.875  12.297   5.211
50285SOL    HW252689  11.911  12.220   5.336
50286SOL     OW52690   9.602   0.222   4.821
50286SOL    HW152691   9.619   0.315   4.829
50286SOL    HW252692   9.587   0.209   4.727
50287SOL     OW52693   2.850   9.406  12.922
50287SOL    HW152694   2.775   9.349  12.941
50287SOL    HW252695   2.826   9.490  12.961
50288SOL     OW52696   4.189   5.430   0.234
50288SOL    HW152697   4.186   5.335   0.228
50288SOL    HW252698   4.250   5.458   0.166
50289SOL     OW52699   9.498  13.868   4.882
50289SOL    HW152700   9.405  13.881   4.863
50289SOL    HW252701   9.505  13.774   4.901
50290SOL     OW52702  13.793   3.768   9.192
50290SOL    HW152703  13.736   3.717   9.136
50290SOL    HW252704  13.744   3.778   9.274
50291SOL     OW52705  10.820   3.774  14.604
50291SOL    HW152706  10.808   3.818  14.519
50291SOL    HW252707  10.775   3.691  14.594
50292SOL     OW52708   3.822   7.495  12.492
50292SOL    HW152709   3.814   7.566  12.556
50292SOL    HW252710   3.846   7.418  12.543
50293SOL     OW52711   6.985   3.043   1.562
50293SOL    HW152712   7.056   3.023   1.501
50293SOL    HW252713   7.027   3.037   1.649
50294SOL     OW52714  13.079   5.813   3.283
50294SOL    HW152715  13.002   5.781   3.330
50294SOL    HW252716  13.099   5.897   3.323
50295SOL     OW52717  12.779  13.880  12.018
50295SOL    HW152718  12.800  13.944  12.086
50295SOL    HW252719  12.820  13.799  12.049
50296SOL     OW52720   3.457   9.868   4.153
50296SOL    HW152721   3.547   9.881   4.184
50296SOL    HW252722   3.461   9.892   4.060
50297SOL     OW52723  14.231   7.490   2.485
50297SOL    HW152724  14.222   7.411   2.431
50297SOL    HW252725  14.170   7.553   2.446
50298SOL     OW52726   2.832   7.671  10.874
50298SOL    HW152727   2.809   7.693  10.964
50298SOL    HW252728   2.855   7.578  10.877
50299SOL     OW52729   9.275   1.883   4.220
50299SOL    HW152730   9.250   1.913   4.308
50299SOL    HW252731   9.246   1.952   4.161
50300SOL     OW52732   1.504  12.373   5.398
50300SOL    HW152733   1.597  12.356   5.383
50300SOL    HW252734   1.500  12.416   5.484
50301SOL     OW52735  13.358   1.477   6.164
50301SOL    HW152736  13.330   1.449   6.077
50301SOL    HW252737  13.281   1.521   6.201
50302SOL     OW52738   0.839  11.026   0.892
50302SOL    HW152739   0.758  11.064   0.858
50302SOL    HW252740   0.876  11.094   0.947
50303SOL     OW52741   8.601   1.915   9.828
50303SOL    HW152742   8.656   1.985   9.792
50303SOL    HW252743   8.523   1.916   9.773
50304SOL     OW52744   7.850   5.787  14.395
50304SOL    HW152745   7.762   5.808  14.427
50304SOL    HW252746   7.866   5.853  14.327
50305SOL     OW52747   5.904  13.697   1.283
50305SOL    HW152748   5.855  13.734   1.357
50305SOL    HW252749   5.867  13.740   1.206
50306SOL     OW52750  14.760   6.130   9.947
50306SOL    HW152751  14.834   6.093   9.995
50306SOL    HW252752  14.683   6.087   9.985
50307SOL     OW52753  10.940  11.422  12.961
50307SOL    HW152754  11.000  11.412  12.887
50307SOL    HW252755  10.946  11.338  13.007
50308SOL     OW52756   5.520   4.836   3.835
50308SOL    HW152757   5.427   4.835   3.860
50308SOL    HW252758   5.555   4.755   3.870
50309SOL     OW52759   9.698  13.695  13.259
50309SOL    HW152760   9.772  13.652  13.215
50309SOL    HW252761   9.691  13.780  13.216
50310SOL     OW52762   2.620  11.250   0.852
50310SOL    HW152763   2.589  11.285   0.935
50310SOL    HW252764   2.641  11.158   0.870
50311SOL     OW52765   3.664   7.101   3.983
50311SOL    HW152766   3.625   7.098   4.070
50311SOL    HW252767   3.749   7.060   3.992
50312SOL     OW52768   8.200   6.565   3.494
50312SOL    HW152769   8.253   6.644   3.506
50312SOL    HW252770   8.259   6.503   3.450
50313SOL     OW52771   7.998   1.139   1.314
50313SOL    HW152772   8.014   1.093   1.231
50313SOL    HW252773   8.081   1.135   1.361
50314SOL     OW52774   4.898   6.769   6.060
50314SOL    HW152775   4.973   6.797   6.008
50314SOL    HW252776   4.825   6.766   5.998
50315SOL     OW52777  11.242   4.777   3.135
50315SOL    HW152778  11.174   4.810   3.076
50315SOL    HW252779  11.308   4.846   3.136
50316SOL     OW52780   0.697   3.078   2.483
50316SOL    HW152781   0.617   3.092   2.533
50316SOL    HW252782   0.755   3.149   2.510
50317SOL     OW52783  13.135   2.958   9.969
50317SOL    HW152784  13.044   2.984   9.982
50317SOL    HW252785  13.180   3.038   9.943
50318SOL     OW52786   7.766  14.527   8.189
50318SOL    HW152787   7.804  14.575   8.115
50318SOL    HW252788   7.791  14.578   8.266
50319SOL     OW52789   6.683   3.836  10.459
50319SOL    HW152790   6.622   3.815  10.389
50319SOL    HW252791   6.637   3.812  10.539
50320SOL     OW52792   7.440   1.859   0.720
50320SOL    HW152793   7.423   1.841   0.628
50320SOL    HW252794   7.447   1.954   0.725
50321SOL     OW52795   8.823   5.054   1.490
50321SOL    HW152796   8.853   5.042   1.401
50321SOL    HW252797   8.875   5.127   1.524
50322SOL     OW52798   7.679   4.512   8.380
50322SOL    HW152799   7.686   4.545   8.470
50322SOL    HW252800   7.722   4.426   8.382
50323SOL     OW52801  14.171   0.873  14.370
50323SOL    HW152802  14.114   0.947  14.348
50323SOL    HW252803  14.206   0.844  14.286
50324SOL     OW52804   0.563   2.305  14.331
50324SOL    HW152805   0.657   2.311  14.312
50324SOL    HW252806   0.543   2.385  14.380
50325SOL     OW52807   9.893   4.545  14.334
50325SOL    HW152808   9.879   4.567  14.242
50325SOL    HW252809   9.890   4.449  14.337
50326SOL     OW52810   2.060   0.813   1.268
50326SOL    HW152811   2.137   0.851   1.310
50326SOL    HW252812   2.068   0.840   1.176
50327SOL     OW52813  13.959  14.212   6.727
50327SOL    HW152814  14.025  14.266   6.770
50327SOL    HW252815  13.875  14.246   6.759
50328SOL     OW52816   9.549   0.169   3.823
50328SOL    HW152817   9.567   0.075   3.831
50328SOL    HW252818   9.578   0.207   3.906
50329SOL     OW52819  14.148   1.903  11.599
50329SOL    HW152820  14.112   1.965  11.662
50329SOL    HW252821  14.195   1.957  11.536
50330SOL     OW52822   1.718   3.170   8.156
50330SOL    HW152823   1.779   3.162   8.083
50330SOL    HW252824   1.631   3.163   8.116
50331SOL     OW52825  10.718   8.838   8.120
50331SOL    HW152826  10.624   8.824   8.120
50331SOL    HW252827  10.733   8.901   8.049
50332SOL     OW52828   4.806   1.945   5.882
50332SOL    HW152829   4.877   1.983   5.831
50332SOL    HW252830   4.828   1.964   5.973
50333SOL     OW52831  11.276  12.492  10.399
50333SOL    HW152832  11.297  12.413  10.449
50333SOL    HW252833  11.186  12.513  10.424
50334SOL     OW52834   4.076   3.395  10.972
50334SOL    HW152835   4.160   3.442  10.973
50334SOL    HW252836   4.096   3.311  11.013
50335SOL     OW52837   0.878   1.666  12.966
50335SOL    HW152838   0.883   1.709  13.052
50335SOL    HW252839   0.925   1.583  12.978
50336SOL     OW52840  10.417   3.880   6.206
50336SOL    HW152841  10.435   3.815   6.274
50336SOL    HW252842  10.337   3.848   6.163
50337SOL     OW52843  10.841   4.256   9.093
50337SOL    HW152844  10.844   4.278   9.186
50337SOL    HW252845  10.894   4.177   9.085
50338SOL     OW52846  14.011  10.984  13.688
50338SOL    HW152847  14.015  11.032  13.606
50338SOL    HW252848  14.024  11.051  13.756
50339SOL     OW52849   1.986   2.605   0.711
50339SOL    HW152850   1.963   2.681   0.765
50339SOL    HW252851   2.078   2.589   0.730
50340SOL     OW52852   7.672   8.728   9.872
50340SOL    HW152853   7.739   8.671   9.836
50340SOL    HW252854   7.716   8.776   9.942
50341SOL     OW52855   0.624   0.298   2.906
50341SOL    HW152856   0.594   0.383   2.938
50341SOL    HW252857   0.621   0.306   2.811
50342SOL     OW52858   1.863  13.341   1.740
50342SOL    HW152859   1.850  13.365   1.649
50342SOL    HW252860   1.855  13.423   1.788
50343SOL     OW52861   2.426  14.391  13.568
50343SOL    HW152862   2.423  14.344  13.651
50343SOL    HW252863   2.480  14.336  13.511
50344SOL     OW52864  11.603  14.325  11.717
50344SOL    HW152865  11.598  14.384  11.792
50344SOL    HW252866  11.516  14.285  11.712
50345SOL     OW52867   7.647  13.562   4.172
50345SOL    HW152868   7.616  13.653   4.176
50345SOL    HW252869   7.675  13.543   4.261
50346SOL     OW52870   5.718  13.919   2.477
50346SOL    HW152871   5.806  13.881   2.471
50346SOL    HW252872   5.672  13.884   2.401
50347SOL     OW52873  10.933   2.614   5.007
50347SOL    HW152874  10.955   2.584   5.095
50347SOL    HW252875  11.016   2.609   4.959
50348SOL     OW52876   4.723   3.599  14.687
50348SOL    HW152877   4.747   3.678  14.639
50348SOL    HW252878   4.648   3.626  14.741
50349SOL     OW52879   5.117   8.917   0.830
50349SOL    HW152880   5.048   8.971   0.793
50349SOL    HW252881   5.131   8.847   0.766
50350SOL     OW52882   5.855  13.130   2.581
50350SOL    HW152883   5.943  13.154   2.609
50350SOL    HW252884   5.850  13.159   2.490
50351SOL     OW52885   6.323  12.807   9.703
50351SOL    HW152886   6.260  12.879   9.699
50351SOL    HW252887   6.383  12.832   9.773
50352SOL     OW52888   5.678  13.879   4.242
50352SOL    HW152889   5.630  13.852   4.320
50352SOL    HW252890   5.706  13.969   4.261
50353SOL     OW52891   8.582   0.607  12.343
50353SOL    HW152892   8.632   0.619  12.423
50353SOL    HW252893   8.649   0.601  12.274
50354SOL     OW52894   6.510   8.674   4.754
50354SOL    HW152895   6.538   8.590   4.791
50354SOL    HW252896   6.435   8.699   4.806
50355SOL     OW52897  11.658  12.858   6.350
50355SOL    HW152898  11.634  12.783   6.296
50355SOL    HW252899  11.700  12.820   6.427
50356SOL     OW52900  10.641   1.518   7.349
50356SOL    HW152901  10.601   1.552   7.429
50356SOL    HW252902  10.709   1.458   7.380
50357SOL     OW52903   0.229  12.799  14.326
50357SOL    HW152904   0.208  12.711  14.356
50357SOL    HW252905   0.311  12.821  14.370
50358SOL     OW52906  11.510  12.385   9.318
50358SOL    HW152907  11.453  12.417   9.248
50358SOL    HW252908  11.474  12.300   9.341
50359SOL     OW52909  10.775  14.580  13.831
50359SOL    HW152910  10.734  14.577  13.745
50359SOL    HW252911  10.868  14.590  13.813
50360SOL     OW52912   3.164  14.443   2.103
50360SOL    HW152913   3.213  14.505   2.157
50360SOL    HW252914   3.089  14.419   2.156
50361SOL     OW52915   9.356   6.873   4.503
50361SOL    HW152916   9.429   6.872   4.441
50361SOL    HW252917   9.369   6.952   4.555
50362SOL     OW52918   6.580   2.180   5.695
50362SOL    HW152919   6.608   2.227   5.616
50362SOL    HW252920   6.486   2.168   5.683
50363SOL     OW52921   4.226   4.036   4.754
50363SOL    HW152922   4.290   3.976   4.789
50363SOL    HW252923   4.183   3.987   4.684
50364SOL     OW52924  12.450   9.474   5.615
50364SOL    HW152925  12.414   9.436   5.534
50364SOL    HW252926  12.393   9.441   5.684
50365SOL     OW52927  10.981  13.746  11.624
50365SOL    HW152928  10.958  13.666  11.672
50365SOL    HW252929  10.897  13.788  11.606
50366SOL     OW52930   2.240   3.129  14.588
50366SOL    HW152931   2.165   3.135  14.648
50366SOL    HW252932   2.314   3.106  14.645
50367SOL     OW52933   9.570   7.305  14.219
50367SOL    HW152934   9.533   7.393  14.208
50367SOL    HW252935   9.661   7.320  14.245
50368SOL     OW52936   0.732  11.018   0.578
50368SOL    HW152937   0.644  11.042   0.551
50368SOL    HW252938   0.788  11.088   0.545
50369SOL     OW52939  11.832   3.499  13.698
50369SOL    HW152940  11.921   3.483  13.665
50369SOL    HW252941  11.778   3.433  13.655
50370SOL     OW52942   3.194  12.127   4.649
50370SOL    HW152943   3.226  12.047   4.608
50370SOL    HW252944   3.164  12.099   4.736
50371SOL     OW52945  14.427   5.225  14.001
50371SOL    HW152946  14.422   5.148  14.058
50371SOL    HW252947  14.349   5.276  14.024
50372SOL     OW52948   4.409  11.806   3.932
50372SOL    HW152949   4.503  11.796   3.949
50372SOL    HW252950   4.402  11.806   3.836
50373SOL     OW52951   4.038   8.388   0.247
50373SOL    HW152952   4.125   8.406   0.283
50373SOL    HW252953   4.055   8.351   0.161
50374SOL     OW52954   7.013   4.916   1.076
50374SOL    HW152955   7.098   4.905   1.033
50374SOL    HW252956   6.966   4.834   1.059
50375SOL     OW52957  14.338   3.544  13.266
50375SOL    HW152958  14.284   3.491  13.207
50375SOL    HW252959  14.320   3.634  13.240
50376SOL     OW52960   0.057   7.180   9.105
50376SOL    HW152961  14.876   7.109   9.082
50376SOL    HW252962   0.063   7.177   9.200
50377SOL     OW52963   3.882  13.627   4.434
50377SOL    HW152964   3.856  13.556   4.374
50377SOL    HW252965   3.959  13.592   4.480
50378SOL     OW52966   9.667  13.087   2.098
50378SOL    HW152967   9.727  13.016   2.074
50378SOL    HW252968   9.601  13.087   2.030
50379SOL     OW52969  13.037  13.049   3.704
50379SOL    HW152970  13.079  13.133   3.688
50379SOL    HW252971  12.992  13.028   3.622
50380SOL     OW52972   9.426   3.737   9.299
50380SOL    HW152973   9.473   3.714   9.379
50380SOL    HW252974   9.464   3.680   9.232
50381SOL     OW52975  10.405  11.476   3.221
50381SOL    HW152976  10.472  11.417   3.254
50381SOL    HW252977  10.322  11.430   3.237
50382SOL     OW52978   5.708   2.872   3.479
50382SOL    HW152979   5.691   2.778   3.481
50382SOL    HW252980   5.768   2.887   3.552
50383SOL     OW52981   4.248   5.104  11.202
50383SOL    HW152982   4.326   5.160  11.212
50383SOL    HW252983   4.227   5.109  11.109
50384SOL     OW52984   3.857   5.697  14.853
50384SOL    HW152985   3.818   5.672   0.059
50384SOL    HW252986   3.919   5.627  14.834
50385SOL     OW52987  13.101   7.026   8.262
50385SOL    HW152988  13.126   7.116   8.286
50385SOL    HW252989  13.034   7.037   8.194
50386SOL     OW52990  14.726   2.263   9.471
50386SOL    HW152991  14.761   2.175   9.483
50386SOL    HW252992  14.636   2.258   9.502
50387SOL     OW52993   4.422   0.224  13.871
50387SOL    HW152994   4.412   0.301  13.815
50387SOL    HW252995   4.371   0.246  13.950
50388SOL     OW52996   7.347   9.011  14.712
50388SOL    HW152997   7.399   8.976  14.784
50388SOL    HW252998   7.297   8.937  14.680
50389SOL     OW52999   2.497  11.756  13.519
50389SOL    HW153000   2.453  11.736  13.601
50389SOL    HW253001   2.510  11.671  13.477
50390SOL     OW53002   6.111  12.282   0.992
50390SOL    HW153003   6.063  12.351   1.037
50390SOL    HW253004   6.088  12.202   1.038
50391SOL     OW53005   4.276  14.653   5.357
50391SOL    HW153006   4.306  14.633   5.268
50391SOL    HW253007   4.298  14.575   5.408
50392SOL     OW53008   1.228   8.452   8.598
50392SOL    HW153009   1.323   8.453   8.605
50392SOL    HW253010   1.198   8.436   8.687
50393SOL     OW53011   1.549   3.650   5.962
50393SOL    HW153012   1.482   3.709   5.928
50393SOL    HW253013   1.501   3.575   5.997
50394SOL     OW53014  11.416   9.619  12.137
50394SOL    HW153015  11.420   9.541  12.082
50394SOL    HW253016  11.446   9.590  12.223
50395SOL     OW53017  11.547   6.495   9.467
50395SOL    HW153018  11.529   6.471   9.376
50395SOL    HW253019  11.532   6.414   9.516
50396SOL     OW53020   1.370   2.459  14.029
50396SOL    HW153021   1.466   2.462  14.031
50396SOL    HW253022   1.347   2.379  14.076
50397SOL     OW53023   4.340   7.552   6.954
50397SOL    HW153024   4.387   7.470   6.967
50397SOL    HW253025   4.402   7.619   6.982
50398SOL     OW53026  10.724  14.325   3.336
50398SOL    HW153027  10.817  14.348   3.342
50398SOL    HW253028  10.706  14.321   3.242
50399SOL     OW53029   3.825   5.379   6.936
50399SOL    HW153030   3.800   5.342   6.851
50399SOL    HW253031   3.778   5.325   7.000
50400SOL     OW53032  14.554   8.890  11.854
50400SOL    HW153033  14.555   8.986  11.854
50400SOL    HW253034  14.506   8.866  11.775
50401SOL     OW53035   6.828   2.956   5.550
50401SOL    HW153036   6.797   2.959   5.459
50401SOL    HW253037   6.869   2.870   5.559
50402SOL     OW53038  12.822   5.415  13.209
50402SOL    HW153039  12.819   5.366  13.127
50402SOL    HW253040  12.766   5.366  13.269
50403SOL     OW53041   0.016  11.869  14.459
50403SOL    HW153042  14.856  11.860  14.547
50403SOL    HW253043   0.103  11.831  14.467
50404SOL     OW53044   2.172   5.285  13.833
50404SOL    HW153045   2.143   5.257  13.919
50404SOL    HW253046   2.126   5.368  13.818
50405SOL     OW53047   2.650   7.716   7.278
50405SOL    HW153048   2.728   7.751   7.321
50405SOL    HW253049   2.642   7.766   7.196
50406SOL     OW53050   7.886   3.537  13.173
50406SOL    HW153051   7.887   3.455  13.222
50406SOL    HW253052   7.826   3.594  13.221
50407SOL     OW53053   2.071   1.478   4.454
50407SOL    HW153054   2.094   1.537   4.525
50407SOL    HW253055   2.047   1.535   4.381
50408SOL     OW53056   1.717   1.938  14.489
50408SOL    HW153057   1.750   1.862  14.536
50408SOL    HW253058   1.701   2.003  14.558
50409SOL     OW53059  10.932  12.242   2.749
50409SOL    HW153060  10.938  12.311   2.683
50409SOL    HW253061  11.005  12.260   2.808
50410SOL     OW53062   3.222   4.860   5.805
50410SOL    HW153063   3.249   4.785   5.752
50410SOL    HW253064   3.185   4.821   5.885
50411SOL     OW53065   7.571  13.210   0.415
50411SOL    HW153066   7.597  13.292   0.457
50411SOL    HW253067   7.628  13.144   0.455
50412SOL     OW53068   2.730  10.487  10.632
50412SOL    HW153069   2.743  10.514  10.542
50412SOL    HW253070   2.745  10.393  10.631
50413SOL     OW53071   0.315  14.123   9.305
50413SOL    HW153072   0.359  14.039   9.312
50413SOL    HW253073   0.231  14.110   9.350
50414SOL     OW53074   2.367   3.378   1.579
50414SOL    HW153075   2.359   3.440   1.507
50414SOL    HW253076   2.276   3.362   1.606
50415SOL     OW53077  12.451   6.552  10.013
50415SOL    HW153078  12.419   6.471  10.052
50415SOL    HW253079  12.519   6.524   9.952
50416SOL     OW53080   6.293   5.694   1.382
50416SOL    HW153081   6.260   5.775   1.422
50416SOL    HW253082   6.382   5.716   1.354
50417SOL     OW53083   4.421   6.780   4.830
50417SOL    HW153084   4.325   6.777   4.827
50417SOL    HW253085   4.449   6.699   4.786
50418SOL     OW53086  10.160  13.982   3.756
50418SOL    HW153087  10.076  14.017   3.785
50418SOL    HW253088  10.138  13.898   3.715
50419SOL     OW53089   7.482   1.861  13.909
50419SOL    HW153090   7.557   1.906  13.869
50419SOL    HW253091   7.481   1.893  13.999
50420SOL     OW53092   7.701   2.421   3.462
50420SOL    HW153093   7.690   2.513   3.436
50420SOL    HW253094   7.612   2.392   3.483
50421SOL     OW53095   6.948  12.409   8.232
50421SOL    HW153096   6.896  12.377   8.306
50421SOL    HW253097   7.020  12.346   8.225
50422SOL     OW53098   1.897   3.693   5.594
50422SOL    HW153099   1.861   3.604   5.601
50422SOL    HW253100   1.831   3.749   5.633
50423SOL     OW53101   3.741   5.545   2.791
50423SOL    HW153102   3.674   5.514   2.729
50423SOL    HW253103   3.814   5.573   2.736
50424SOL     OW53104   7.834  10.826   4.251
50424SOL    HW153105   7.896  10.767   4.295
50424SOL    HW253106   7.823  10.899   4.312
50425SOL     OW53107   3.502   1.190   6.413
50425SOL    HW153108   3.457   1.184   6.329
50425SOL    HW253109   3.514   1.283   6.427
50426SOL     OW53110   1.911   7.534   5.957
50426SOL    HW153111   1.936   7.522   5.866
50426SOL    HW253112   1.977   7.593   5.993
50427SOL     OW53113  14.480   4.674  14.508
50427SOL    HW153114  14.543   4.693  14.439
50427SOL    HW253115  14.499   4.738  14.577
50428SOL     OW53116   9.005   0.010   9.604
50428SOL    HW153117   8.913  14.875   9.582
50428SOL    HW253118   9.008   0.010   9.699
50429SOL     OW53119   7.125  14.316   1.618
50429SOL    HW153120   7.055  14.377   1.592
50429SOL    HW253121   7.134  14.330   1.713
50430SOL     OW53122   2.602   2.362   5.078
50430SOL    HW153123   2.597   2.305   5.154
50430SOL    HW253124   2.512   2.393   5.065
50431SOL     OW53125   1.269  11.010   9.687
50431SOL    HW153126   1.302  10.993   9.599
50431SOL    HW253127   1.176  10.990   9.682
50432SOL     OW53128   3.976   6.273   3.682
50432SOL    HW153129   4.023   6.346   3.642
50432SOL    HW253130   3.885   6.301   3.684
50433SOL     OW53131   2.469   9.276   5.777
50433SOL    HW153132   2.539   9.252   5.717
50433SOL    HW253133   2.494   9.237   5.861
50434SOL     OW53134   9.311   9.366  11.177
50434SOL    HW153135   9.248   9.436  11.194
50434SOL    HW253136   9.261   9.285  11.189
50435SOL     OW53137   5.071   5.253   6.643
50435SOL    HW153138   5.119   5.224   6.565
50435SOL    HW253139   5.113   5.336   6.667
50436SOL     OW53140   2.278   6.997   2.268
50436SOL    HW153141   2.372   7.009   2.276
50436SOL    HW253142   2.251   6.958   2.351
50437SOL     OW53143  11.266  14.330   5.654
50437SOL    HW153144  11.289  14.306   5.744
50437SOL    HW253145  11.288  14.253   5.602
50438SOL     OW53146   5.290  11.949   2.875
50438SOL    HW153147   5.323  11.971   2.962
50438SOL    HW253148   5.197  11.930   2.888
50439SOL     OW53149  13.321  14.771   9.976
50439SOL    HW153150  13.292  14.798  10.063
50439SOL    HW253151  13.254  14.710   9.946
50440SOL     OW53152   9.529   5.877   8.171
50440SOL    HW153153   9.616   5.841   8.159
50440SOL    HW253154   9.493   5.829   8.246
50441SOL     OW53155  14.126  13.941   1.331
50441SOL    HW153156  14.217  13.971   1.328
50441SOL    HW253157  14.075  14.015   1.299
50442SOL     OW53158   2.079   4.841   1.376
50442SOL    HW153159   2.093   4.747   1.363
50442SOL    HW253160   2.064   4.850   1.470
50443SOL     OW53161   8.248   4.465   9.085
50443SOL    HW153162   8.265   4.433   8.997
50443SOL    HW253163   8.171   4.521   9.077
50444SOL     OW53164   9.581   2.454  12.729
50444SOL    HW153165   9.512   2.520  12.722
50444SOL    HW253166   9.643   2.476  12.660
50445SOL     OW53167   4.192   4.247  14.864
50445SOL    HW153168   4.169   4.155  14.876
50445SOL    HW253169   4.268   4.245  14.806
50446SOL     OW53170   6.436   0.796  12.297
50446SOL    HW153171   6.499   0.811  12.368
50446SOL    HW253172   6.468   0.717  12.253
50447SOL     OW53173  12.614  12.769   5.968
50447SOL    HW153174  12.526  12.741   5.991
50447SOL    HW253175  12.654  12.692   5.927
50448SOL     OW53176  10.915  10.786  13.652
50448SOL    HW153177  10.893  10.867  13.605
50448SOL    HW253178  10.840  10.770  13.708
50449SOL     OW53179  14.605  10.983   3.300
50449SOL    HW153180  14.601  11.053   3.366
50449SOL    HW253181  14.693  10.991   3.262
50450SOL     OW53182   4.283   3.736  13.512
50450SOL    HW153183   4.344   3.703  13.447
50450SOL    HW253184   4.206   3.763  13.462
50451SOL     OW53185  10.990   3.815   6.773
50451SOL    HW153186  11.022   3.904   6.761
50451SOL    HW253187  10.914   3.825   6.831
50452SOL     OW53188   4.949  12.342   0.402
50452SOL    HW153189   4.992  12.420   0.366
50452SOL    HW253190   5.017  12.298   0.453
50453SOL     OW53191  13.635   1.430   0.484
50453SOL    HW153192  13.639   1.473   0.399
50453SOL    HW253193  13.721   1.389   0.493
50454SOL     OW53194   6.122   1.409   5.109
50454SOL    HW153195   6.191   1.376   5.167
50454SOL    HW253196   6.068   1.465   5.165
50455SOL     OW53197   5.464   5.471  14.728
50455SOL    HW153198   5.462   5.566  14.715
50455SOL    HW253199   5.372   5.447  14.737
50456SOL     OW53200   2.928   6.176  14.257
50456SOL    HW153201   2.970   6.230  14.324
50456SOL    HW253202   2.921   6.233  14.181
50457SOL     OW53203   5.434   1.009   6.452
50457SOL    HW153204   5.425   0.922   6.491
50457SOL    HW253205   5.355   1.020   6.399
50458SOL     OW53206   5.897   7.043   6.808
50458SOL    HW153207   5.852   7.055   6.892
50458SOL    HW253208   5.920   6.950   6.806
50459SOL     OW53209  14.366   3.694   1.223
50459SOL    HW153210  14.357   3.708   1.317
50459SOL    HW253211  14.349   3.780   1.185
50460SOL     OW53212   5.317   4.468   2.089
50460SOL    HW153213   5.345   4.465   1.998
50460SOL    HW253214   5.271   4.552   2.098
50461SOL     OW53215   9.790   8.130   9.593
50461SOL    HW153216   9.767   8.041   9.565
50461SOL    HW253217   9.733   8.187   9.540
50462SOL     OW53218   3.029  11.330   1.973
50462SOL    HW153219   3.032  11.236   1.991
50462SOL    HW253220   3.013  11.336   1.879
50463SOL     OW53221   7.138   0.984   9.784
50463SOL    HW153222   7.094   1.046   9.843
50463SOL    HW253223   7.090   0.991   9.702
50464SOL     OW53224  13.459   0.454   7.237
50464SOL    HW153225  13.403   0.530   7.253
50464SOL    HW253226  13.518   0.482   7.167
50465SOL     OW53227   3.188   5.152   6.359
50465SOL    HW153228   3.239   5.110   6.428
50465SOL    HW253229   3.207   5.100   6.280
50466SOL     OW53230   4.803   2.577   0.331
50466SOL    HW153231   4.829   2.487   0.348
50466SOL    HW253232   4.881   2.619   0.295
50467SOL     OW53233   6.799  11.916  14.618
50467SOL    HW153234   6.749  11.854  14.565
50467SOL    HW253235   6.845  11.861  14.681
50468SOL     OW53236   4.871   9.123   7.761
50468SOL    HW153237   4.828   9.081   7.835
50468SOL    HW253238   4.800   9.153   7.704
50469SOL     OW53239   4.825  11.940   2.778
50469SOL    HW153240   4.858  11.875   2.715
50469SOL    HW253241   4.740  11.906   2.805
50470SOL     OW53242   7.695   3.644   6.196
50470SOL    HW153243   7.626   3.687   6.144
50470SOL    HW253244   7.684   3.680   6.284
50471SOL     OW53245   7.834  12.682  12.910
50471SOL    HW153246   7.816  12.632  12.990
50471SOL    HW253247   7.754  12.732  12.894
50472SOL     OW53248   3.328   2.435  10.504
50472SOL    HW153249   3.317   2.388  10.421
50472SOL    HW253250   3.410   2.402  10.540
50473SOL     OW53251   7.041   8.797  14.387
50473SOL    HW153252   6.964   8.794  14.443
50473SOL    HW253253   7.031   8.878  14.337
50474SOL     OW53254  13.992   0.248  11.622
50474SOL    HW153255  14.034   0.290  11.697
50474SOL    HW253256  13.964   0.321  11.566
50475SOL     OW53257   7.517   6.300  13.736
50475SOL    HW153258   7.599   6.268  13.773
50475SOL    HW253259   7.500   6.243  13.662
50476SOL     OW53260   2.097   7.752  14.875
50476SOL    HW153261   2.124   7.843  14.865
50476SOL    HW253262   2.178   7.701  14.870
50477SOL     OW53263   1.488   0.558   0.912
50477SOL    HW153264   1.564   0.504   0.934
50477SOL    HW253265   1.413   0.509   0.945
50478SOL     OW53266  12.045   5.382   8.953
50478SOL    HW153267  12.057   5.425   8.869
50478SOL    HW253268  12.013   5.294   8.931
50479SOL     OW53269  12.104  14.280  12.233
50479SOL    HW153270  12.017  14.261  12.267
50479SOL    HW253271  12.122  14.209  12.172
50480SOL     OW53272  10.448   5.740   6.218
50480SOL    HW153273  10.371   5.789   6.193
50480SOL    HW253274  10.456   5.672   6.151
50481SOL     OW53275  12.702   6.579  12.968
50481SOL    HW153276  12.680   6.531  13.048
50481SOL    HW253277  12.674   6.669  12.985
50482SOL     OW53278   7.285   7.585   2.603
50482SOL    HW153279   7.235   7.577   2.522
50482SOL    HW253280   7.242   7.656   2.651
50483SOL     OW53281  14.407   1.390   4.704
50483SOL    HW153282  14.446   1.412   4.788
50483SOL    HW253283  14.440   1.456   4.644
50484SOL     OW53284   2.505  12.155   5.150
50484SOL    HW153285   2.517  12.091   5.079
50484SOL    HW253286   2.436  12.213   5.118
50485SOL     OW53287   5.804   4.965   6.458
50485SOL    HW153288   5.748   4.889   6.444
50485SOL    HW253289   5.785   5.023   6.384
50486SOL     OW53290  14.690  11.269   5.714
50486SOL    HW153291  14.679  11.347   5.768
50486SOL    HW253292  14.713  11.303   5.627
50487SOL     OW53293   6.667   9.076   4.955
50487SOL    HW153294   6.665   8.992   4.908
50487SOL    HW253295   6.657   9.142   4.887
50488SOL     OW53296   4.089  13.616   5.811
50488SOL    HW153297   4.059  13.693   5.860
50488SOL    HW253298   4.182  13.630   5.798
50489SOL     OW53299   0.534  13.844  12.837
50489SOL    HW153300   0.449  13.858  12.795
50489SOL    HW253301   0.516  13.777  12.903
50490SOL     OW53302  14.170   4.896  14.640
50490SOL    HW153303  14.113   4.972  14.633
50490SOL    HW253304  14.155   4.847  14.559
50491SOL     OW53305   5.717   9.268   8.429
50491SOL    HW153306   5.681   9.184   8.401
50491SOL    HW253307   5.695   9.328   8.358
50492SOL     OW53308  11.315  12.016  14.255
50492SOL    HW153309  11.375  11.944  14.269
50492SOL    HW253310  11.265  11.992  14.176
50493SOL     OW53311   6.612   4.374   5.435
50493SOL    HW153312   6.682   4.412   5.486
50493SOL    HW253313   6.531   4.408   5.475
50494SOL     OW53314   8.868  12.342   5.506
50494SOL    HW153315   8.896  12.343   5.415
50494SOL    HW253316   8.773  12.349   5.502
50495SOL     OW53317   0.971   0.725  11.340
50495SOL    HW153318   1.022   0.693  11.414
50495SOL    HW253319   0.901   0.778  11.380
50496SOL     OW53320  11.038  14.492   5.538
50496SOL    HW153321  11.115  14.435   5.540
50496SOL    HW253322  10.970  14.439   5.496
50497SOL     OW53323   7.921  10.659  12.704
50497SOL    HW153324   7.970  10.736  12.734
50497SOL    HW253325   7.988  10.593  12.686
50498SOL     OW53326   6.899   0.351   0.683
50498SOL    HW153327   6.873   0.436   0.647
50498SOL    HW253328   6.924   0.300   0.606
50499SOL     OW53329   9.140   7.967  11.920
50499SOL    HW153330   9.134   8.059  11.896
50499SOL    HW253331   9.049   7.938  11.925
50500SOL     OW53332   2.689   8.020   0.110
50500SOL    HW153333   2.729   7.978   0.034
50500SOL    HW253334   2.614   8.067   0.075
50501SOL     OW53335  12.959   4.030   5.143
50501SOL    HW153336  12.914   4.089   5.082
50501SOL    HW253337  12.979   4.085   5.219
50502SOL     OW53338   4.973  12.104   1.083
50502SOL    HW153339   4.974  12.151   1.167
50502SOL    HW253340   5.060  12.064   1.077
50503SOL     OW53341   8.911   1.757   5.961
50503SOL    HW153342   8.905   1.724   5.872
50503SOL    HW253343   8.841   1.713   6.009
50504SOL     OW53344   9.353   7.280   7.779
50504SOL    HW153345   9.295   7.227   7.725
50504SOL    HW253346   9.437   7.234   7.777
50505SOL     OW53347   0.902  10.828   0.665
50505SOL    HW153348   0.854  10.910   0.650
50505SOL    HW253349   0.993  10.855   0.676
50506SOL     OW53350  14.323  13.964   5.663
50506SOL    HW153351  14.295  14.000   5.579
50506SOL    HW253352  14.304  13.870   5.656
50507SOL     OW53353   0.489  11.169   8.315
50507SOL    HW153354   0.433  11.095   8.292
50507SOL    HW253355   0.505  11.159   8.409
50508SOL     OW53356   4.361   8.988  12.324
50508SOL    HW153357   4.432   8.948  12.376
50508SOL    HW253358   4.282   8.943  12.355
50509SOL     OW53359   2.397   2.101  13.535
50509SOL    HW153360   2.393   2.173  13.473
50509SOL    HW253361   2.311   2.099  13.576
50510SOL     OW53362   5.164   6.152   9.884
50510SOL    HW153363   5.124   6.130   9.799
50510SOL    HW253364   5.125   6.090   9.946
50511SOL     OW53365   9.012  11.653  12.578
50511SOL    HW153366   9.035  11.739  12.613
50511SOL    HW253367   9.095  11.616  12.550
50512SOL     OW53368   2.828   6.553  13.050
50512SOL    HW153369   2.913   6.556  13.006
50512SOL    HW253370   2.821   6.464  13.083
50513SOL     OW53371   7.573   6.110   8.987
50513SOL    HW153372   7.587   6.095   8.894
50513SOL    HW253373   7.638   6.176   9.011
50514SOL     OW53374   8.576  13.979  12.644
50514SOL    HW153375   8.645  13.957  12.707
50514SOL    HW253376   8.623  14.007  12.566
50515SOL     OW53377   8.110   9.386   1.699
50515SOL    HW153378   8.168   9.342   1.637
50515SOL    HW253379   8.058   9.315   1.737
50516SOL     OW53380   7.366   4.860  11.494
50516SOL    HW153381   7.329   4.788  11.545
50516SOL    HW253382   7.450   4.878  11.537
50517SOL     OW53383   6.492   1.525   0.914
50517SOL    HW153384   6.572   1.570   0.942
50517SOL    HW253385   6.521   1.462   0.849
50518SOL     OW53386   3.047  13.254   6.351
50518SOL    HW153387   2.982  13.282   6.415
50518SOL    HW253388   2.996  13.234   6.273
50519SOL     OW53389   1.577  14.557   8.799
50519SOL    HW153390   1.482  14.547   8.792
50519SOL    HW253391   1.591  14.591   8.887
50520SOL     OW53392  11.424   6.792   6.947
50520SOL    HW153393  11.412   6.836   7.032
50520SOL    HW253394  11.433   6.700   6.969
50521SOL     OW53395  11.354   5.631  12.614
50521SOL    HW153396  11.360   5.720  12.648
50521SOL    HW253397  11.431   5.586  12.650
50522SOL     OW53398   3.966   1.106  10.443
50522SOL    HW153399   4.035   1.147  10.495
50522SOL    HW253400   3.906   1.177  10.422
50523SOL     OW53401   1.371   6.738   4.420
50523SOL    HW153402   1.293   6.786   4.393
50523SOL    HW253403   1.417   6.797   4.480
50524SOL     OW53404  12.548  11.897   1.907
50524SOL    HW153405  12.548  11.802   1.899
50524SOL    HW253406  12.457  11.923   1.894
50525SOL     OW53407  11.392   9.388   3.416
50525SOL    HW153408  11.297   9.401   3.408
50525SOL    HW253409  11.412   9.412   3.506
50526SOL     OW53410   1.184  13.956   8.602
50526SOL    HW153411   1.124  14.011   8.553
50526SOL    HW253412   1.270  13.997   8.592
50527SOL     OW53413   2.640   9.861   4.532
50527SOL    HW153414   2.690   9.838   4.454
50527SOL    HW253415   2.607   9.778   4.566
50528SOL     OW53416  10.816   3.966  10.714
50528SOL    HW153417  10.899   4.015  10.712
50528SOL    HW253418  10.822   3.913  10.793
50529SOL     OW53419  14.408  11.935   0.280
50529SOL    HW153420  14.407  11.928   0.375
50529SOL    HW253421  14.441  12.023   0.262
50530SOL     OW53422   7.160  13.439   9.140
50530SOL    HW153423   7.080  13.491   9.134
50530SOL    HW253424   7.133  13.351   9.115
50531SOL     OW53425   5.514   6.689   6.006
50531SOL    HW153426   5.452   6.636   6.056
50531SOL    HW253427   5.565   6.734   6.073
50532SOL     OW53428   7.522   3.107   0.605
50532SOL    HW153429   7.434   3.124   0.638
50532SOL    HW253430   7.528   3.158   0.525
50533SOL     OW53431   1.620  13.486  13.555
50533SOL    HW153432   1.702  13.522  13.522
50533SOL    HW253433   1.570  13.563  13.583
50534SOL     OW53434  13.535   5.199   9.898
50534SOL    HW153435  13.630   5.191   9.901
50534SOL    HW253436  13.512   5.174   9.808
50535SOL     OW53437  13.139   1.754   5.807
50535SOL    HW153438  13.225   1.786   5.833
50535SOL    HW253439  13.144   1.746   5.711
50536SOL     OW53440   0.557   3.079   6.514
50536SOL    HW153441   0.545   3.132   6.434
50536SOL    HW253442   0.579   3.144   6.581
50537SOL     OW53443  12.897  14.164   7.222
50537SOL    HW153444  12.823  14.118   7.261
50537SOL    HW253445  12.882  14.158   7.127
50538SOL     OW53446   6.379  13.725   0.623
50538SOL    HW153447   6.434  13.646   0.622
50538SOL    HW253448   6.373  13.751   0.532
50539SOL     OW53449  14.483   5.525   1.602
50539SOL    HW153450  14.443   5.609   1.577
50539SOL    HW253451  14.519   5.540   1.689
50540SOL     OW53452   4.710   0.006   5.321
50540SOL    HW153453   4.690  14.791   5.318
50540SOL    HW253454   4.769   0.020   5.247
50541SOL     OW53455  13.409  11.574   1.017
50541SOL    HW153456  13.372  11.575   0.929
50541SOL    HW253457  13.335  11.550   1.073
50542SOL     OW53458  13.992   5.601   0.072
50542SOL    HW153459  14.023   5.542   0.141
50542SOL    HW253460  13.957   5.543   0.004
50543SOL     OW53461   3.439  12.899  14.798
50543SOL    HW153462   3.524  12.865  14.770
50543SOL    HW253463   3.397  12.825  14.842
50544SOL     OW53464   2.141   8.123   2.294
50544SOL    HW153465   2.084   8.149   2.222
50544SOL    HW253466   2.092   8.148   2.373
50545SOL     OW53467   6.375  13.503   1.816
50545SOL    HW153468   6.348  13.484   1.906
50545SOL    HW253469   6.342  13.428   1.765
50546SOL     OW53470   6.516   5.703   0.933
50546SOL    HW153471   6.559   5.694   1.018
50546SOL    HW253472   6.434   5.655   0.943
50547SOL     OW53473  13.461  12.712   5.565
50547SOL    HW153474  13.464  12.714   5.661
50547SOL    HW253475  13.382  12.664   5.544
50548SOL     OW53476   0.971   8.588  11.060
50548SOL    HW153477   0.934   8.667  11.099
50548SOL    HW253478   0.951   8.595  10.966
50549SOL     OW53479   3.331   7.472   6.963
50549SOL    HW153480   3.419   7.493   6.934
50549SOL    HW253481   3.279   7.549   6.941
50550SOL     OW53482   6.845   4.018   9.911
50550SOL    HW153483   6.771   4.053   9.861
50550SOL    HW253484   6.806   3.951   9.967
50551SOL     OW53485  14.270   2.340  14.304
50551SOL    HW153486  14.228   2.426  14.303
50551SOL    HW253487  14.200   2.279  14.327
50552SOL     OW53488   1.729   0.938   7.730
50552SOL    HW153489   1.745   1.020   7.685
50552SOL    HW253490   1.679   0.963   7.808
50553SOL     OW53491   5.176   3.537   6.807
50553SOL    HW153492   5.244   3.590   6.850
50553SOL    HW253493   5.133   3.598   6.746
50554SOL     OW53494   6.343  13.728  14.730
50554SOL    HW153495   6.419  13.686  14.771
50554SOL    HW253496   6.342  13.692  14.641
50555SOL     OW53497   3.906   9.443   1.375
50555SOL    HW153498   3.904   9.422   1.282
50555SOL    HW253499   3.980   9.503   1.384
50556SOL     OW53500   9.083   2.436  11.376
50556SOL    HW153501   9.066   2.530  11.369
50556SOL    HW253502   9.118   2.412  11.291
50557SOL     OW53503   1.927   6.856  12.644
50557SOL    HW153504   1.898   6.887  12.730
50557SOL    HW253505   1.948   6.936  12.596
50558SOL     OW53506   3.777  10.133  13.221
50558SOL    HW153507   3.685  10.147  13.198
50558SOL    HW253508   3.826  10.157  13.143
50559SOL     OW53509  13.880   1.215  11.370
50559SOL    HW153510  13.964   1.245  11.404
50559SOL    HW253511  13.816   1.245  11.435
50560SOL     OW53512   0.081   0.642   4.687
50560SOL    HW153513   0.167   0.600   4.696
50560SOL    HW253514   0.073   0.659   4.594
50561SOL     OW53515   2.393   4.361  12.429
50561SOL    HW153516   2.346   4.355  12.346
50561SOL    HW253517   2.378   4.450  12.459
50562SOL     OW53518  10.497  14.003  12.968
50562SOL    HW153519  10.407  14.009  13.000
50562SOL    HW253520  10.521  13.912  12.982
50563SOL     OW53521   7.476   0.781   4.300
50563SOL    HW153522   7.555   0.769   4.248
50563SOL    HW253523   7.505   0.775   4.391
50564SOL     OW53524  13.507   0.684   0.880
50564SOL    HW153525  13.554   0.612   0.922
50564SOL    HW253526  13.575   0.747   0.858
50565SOL     OW53527   7.503   5.483   8.292
50565SOL    HW153528   7.494   5.391   8.268
50565SOL    HW253529   7.560   5.483   8.369
50566SOL     OW53530  11.519   8.399   3.561
50566SOL    HW153531  11.493   8.319   3.607
50566SOL    HW253532  11.608   8.382   3.531
50567SOL     OW53533   8.844   7.718   1.914
50567SOL    HW153534   8.767   7.692   1.863
50567SOL    HW253535   8.888   7.636   1.933
50568SOL     OW53536   6.889   5.197   9.129
50568SOL    HW153537   6.892   5.102   9.111
50568SOL    HW253538   6.964   5.232   9.081
50569SOL     OW53539   0.897  13.105   7.078
50569SOL    HW153540   0.863  13.166   7.012
50569SOL    HW253541   0.990  13.127   7.083
50570SOL     OW53542  12.156   7.138  10.784
50570SOL    HW153543  12.105   7.075  10.836
50570SOL    HW253544  12.191   7.199  10.848
50571SOL     OW53545   3.330   8.086   3.441
50571SOL    HW153546   3.254   8.074   3.497
50571SOL    HW253547   3.376   8.162   3.478
50572SOL     OW53548   4.370   2.167   9.336
50572SOL    HW153549   4.286   2.157   9.292
50572SOL    HW253550   4.411   2.242   9.294
50573SOL     OW53551   2.115  10.439   0.129
50573SOL    HW153552   2.199  10.485   0.137
50573SOL    HW253553   2.058  10.483   0.192
50574SOL     OW53554   1.189   2.164   2.913
50574SOL    HW153555   1.196   2.238   2.853
50574SOL    HW253556   1.098   2.135   2.906
50575SOL     OW53557   9.850  13.586   9.191
50575SOL    HW153558   9.782  13.652   9.199
50575SOL    HW253559   9.930  13.630   9.222
50576SOL     OW53560  13.409  10.245   7.097
50576SOL    HW153561  13.398  10.211   7.008
50576SOL    HW253562  13.468  10.320   7.086
50577SOL     OW53563   2.224   8.645   4.742
50577SOL    HW153564   2.206   8.652   4.648
50577SOL    HW253565   2.138   8.635   4.782
50578SOL     OW53566   7.553   4.220   4.392
50578SOL    HW153567   7.575   4.227   4.485
50578SOL    HW253568   7.581   4.132   4.367
50579SOL     OW53569   4.267   2.195   5.291
50579SOL    HW153570   4.280   2.114   5.339
50579SOL    HW253571   4.354   2.235   5.284
50580SOL     OW53572   4.640   6.037  11.148
50580SOL    HW153573   4.602   6.062  11.232
50580SOL    HW253574   4.732   6.065  11.155
50581SOL     OW53575   2.744   8.734   3.195
50581SOL    HW153576   2.768   8.826   3.198
50581SOL    HW253577   2.729   8.716   3.102
50582SOL     OW53578   0.685   6.570   0.981
50582SOL    HW153579   0.677   6.652   1.029
50582SOL    HW253580   0.595   6.545   0.959
50583SOL     OW53581   1.678   8.580   0.980
50583SOL    HW153582   1.647   8.640   0.912
50583SOL    HW253583   1.598   8.537   1.012
50584SOL     OW53584   5.507   2.488  14.452
50584SOL    HW153585   5.535   2.418  14.512
50584SOL    HW253586   5.433   2.450  14.404
50585SOL     OW53587   0.070   9.167   0.098
50585SOL    HW153588   0.073   9.072   0.083
50585SOL    HW253589  14.865   9.194   0.062
50586SOL     OW53590  11.569   9.557  13.634
50586SOL    HW153591  11.568   9.545  13.729
50586SOL    HW253592  11.630   9.629  13.620
50587SOL     OW53593   1.879   9.437   7.952
50587SOL    HW153594   1.917   9.444   8.039
50587SOL    HW253595   1.923   9.505   7.901
50588SOL     OW53596   6.484  13.685   5.195
50588SOL    HW153597   6.460  13.601   5.154
50588SOL    HW253598   6.561  13.664   5.248
50589SOL     OW53599   9.239   0.812   7.855
50589SOL    HW153600   9.330   0.829   7.829
50589SOL    HW253601   9.222   0.723   7.823
50590SOL     OW53602  10.879  13.477   1.926
50590SOL    HW153603  10.967  13.513   1.914
50590SOL    HW253604  10.828  13.515   1.855
50591SOL     OW53605  12.128  11.080   4.352
50591SOL    HW153606  12.094  11.045   4.434
50591SOL    HW253607  12.203  11.025   4.330
50592SOL     OW53608   5.672   2.801   6.005
50592SOL    HW153609   5.744   2.834   5.951
50592SOL    HW253610   5.715   2.763   6.081
50593SOL     OW53611  10.780   4.107   2.464
50593SOL    HW153612  10.713   4.144   2.407
50593SOL    HW253613  10.732   4.055   2.528
50594SOL     OW53614   2.473  11.898  13.085
50594SOL    HW153615   2.479  11.840  13.009
50594SOL    HW253616   2.500  11.983  13.052
50595SOL     OW53617   0.817   2.801  14.027
50595SOL    HW153618   0.880   2.738  13.993
50595SOL    HW253619   0.870   2.870  14.066
50596SOL     OW53620  14.747  12.955  14.266
50596SOL    HW153621  14.702  13.008  14.201
50596SOL    HW253622  14.712  12.867  14.253
50597SOL     OW53623  13.196   5.316   8.120
50597SOL    HW153624  13.195   5.306   8.025
50597SOL    HW253625  13.115   5.363   8.140
50598SOL     OW53626   1.939   2.075   7.455
50598SOL    HW153627   1.857   2.105   7.494
50598SOL    HW253628   2.006   2.098   7.520
50599SOL     OW53629   8.478   8.710  14.096
50599SOL    HW153630   8.552   8.664  14.057
50599SOL    HW253631   8.486   8.800  14.064
50600SOL     OW53632   1.987  10.328   6.501
50600SOL    HW153633   1.983  10.408   6.553
50600SOL    HW253634   1.898  10.293   6.505
50601SOL     OW53635   6.440   4.303   6.408
50601SOL    HW153636   6.401   4.218   6.389
50601SOL    HW253637   6.436   4.351   6.325
50602SOL     OW53638  14.343   8.118   3.741
50602SOL    HW153639  14.382   8.032   3.728
50602SOL    HW253640  14.417   8.177   3.750
50603SOL     OW53641   1.208  10.775   5.794
50603SOL    HW153642   1.267  10.766   5.719
50603SOL    HW253643   1.192  10.686   5.823
50604SOL     OW53644   7.086   6.438  11.236
50604SOL    HW153645   7.099   6.369  11.301
50604SOL    HW253646   7.067   6.516  11.287
50605SOL     OW53647   7.430  10.216   9.102
50605SOL    HW153648   7.445  10.290   9.160
50605SOL    HW253649   7.470  10.241   9.019
50606SOL     OW53650   6.347  12.998  14.117
50606SOL    HW153651   6.394  12.948  14.184
50606SOL    HW253652   6.297  13.062  14.166
50607SOL     OW53653   0.359   7.652   9.600
50607SOL    HW153654   0.411   7.697   9.666
50607SOL    HW253655   0.350   7.716   9.529
50608SOL     OW53656   1.828   4.194   1.905
50608SOL    HW153657   1.801   4.201   1.997
50608SOL    HW253658   1.830   4.284   1.874
50609SOL     OW53659  14.155   3.841   4.911
50609SOL    HW153660  14.073   3.849   4.862
50609SOL    HW253661  14.215   3.799   4.849
50610SOL     OW53662  10.879   9.869  11.856
50610SOL    HW153663  10.816   9.811  11.900
50610SOL    HW253664  10.942   9.892  11.924
50611SOL     OW53665   3.225   9.530  13.645
50611SOL    HW153666   3.178   9.604  13.606
50611SOL    HW253667   3.290   9.572  13.703
50612SOL     OW53668   5.305   6.129   7.975
50612SOL    HW153669   5.245   6.126   7.900
50612SOL    HW253670   5.251   6.163   8.047
50613SOL     OW53671   2.026  12.665   7.529
50613SOL    HW153672   1.956  12.705   7.478
50613SOL    HW253673   2.009  12.571   7.524
50614SOL     OW53674   5.685  13.857   8.006
50614SOL    HW153675   5.725  13.881   8.090
50614SOL    HW253676   5.599  13.823   8.029
50615SOL     OW53677  11.315  13.034  13.527
50615SOL    HW153678  11.299  13.122  13.560
50615SOL    HW253679  11.379  12.997  13.587
50616SOL     OW53680  13.144   9.939  10.519
50616SOL    HW153681  13.051   9.921  10.528
50616SOL    HW253682  13.187   9.870  10.571
50617SOL     OW53683   4.211   8.815  14.312
50617SOL    HW153684   4.280   8.756  14.342
50617SOL    HW253685   4.160   8.763  14.250
50618SOL     OW53686   7.699  10.298   7.190
50618SOL    HW153687   7.783  10.294   7.236
50618SOL    HW253688   7.700  10.383   7.146
50619SOL     OW53689  12.008   0.538   5.402
50619SOL    HW153690  11.916   0.515   5.413
50619SOL    HW253691  12.026   0.600   5.472
50620SOL     OW53692   5.604   3.253   5.074
50620SOL    HW153693   5.662   3.251   4.998
50620SOL    HW253694   5.519   3.279   5.039
50621SOL     OW53695   9.869  10.458   1.147
50621SOL    HW153696   9.932  10.491   1.084
50621SOL    HW253697   9.919  10.445   1.228
50622SOL     OW53698   9.714  13.556   1.064
50622SOL    HW153699   9.806  13.555   1.089
50622SOL    HW253700   9.715  13.583   0.972
50623SOL     OW53701   8.925   1.387  13.060
50623SOL    HW153702   8.882   1.303  13.072
50623SOL    HW253703   9.013   1.375  13.095
50624SOL     OW53704  11.315   6.171   1.325
50624SOL    HW153705  11.381   6.113   1.288
50624SOL    HW253706  11.309   6.145   1.417
50625SOL     OW53707   7.370   0.970  11.410
50625SOL    HW153708   7.415   1.054  11.422
50625SOL    HW253709   7.373   0.955  11.315
50626SOL     OW53710  14.568   8.606   4.167
50626SOL    HW153711  14.638   8.658   4.127
50626SOL    HW253712  14.529   8.664   4.233
50627SOL     OW53713  14.602  12.552  13.444
50627SOL    HW153714  14.681  12.605  13.435
50627SOL    HW253715  14.531  12.616  13.447
50628SOL     OW53716   1.995   3.351  11.947
50628SOL    HW153717   1.996   3.359  12.043
50628SOL    HW253718   1.942   3.426  11.919
50629SOL     OW53719  12.316   7.819   3.991
50629SOL    HW153720  12.411   7.820   3.979
50629SOL    HW253721  12.281   7.825   3.902
50630SOL     OW53722   7.640   7.318  12.377
50630SOL    HW153723   7.607   7.363  12.454
50630SOL    HW253724   7.733   7.306  12.394
50631SOL     OW53725   8.875   3.830   1.593
50631SOL    HW153726   8.880   3.924   1.574
50631SOL    HW253727   8.781   3.811   1.589
50632SOL     OW53728  11.210  13.867   1.799
50632SOL    HW153729  11.263  13.871   1.879
50632SOL    HW253730  11.160  13.786   1.807
50633SOL     OW53731  11.724  11.407   4.583
50633SOL    HW153732  11.678  11.456   4.652
50633SOL    HW253733  11.750  11.474   4.520
50634SOL     OW53734   4.506   5.719   7.632
50634SOL    HW153735   4.594   5.741   7.601
50634SOL    HW253736   4.520   5.653   7.700
50635SOL     OW53737  12.810  14.682  10.785
50635SOL    HW153738  12.869  14.737  10.836
50635SOL    HW253739  12.817  14.595  10.824
50636SOL     OW53740   9.372   4.172  12.001
50636SOL    HW153741   9.330   4.242  12.050
50636SOL    HW253742   9.359   4.094  12.056
50637SOL     OW53743   4.104  11.810   6.078
50637SOL    HW153744   4.104  11.727   6.125
50637SOL    HW253745   4.132  11.875   6.144
50638SOL     OW53746   0.032  13.171   2.663
50638SOL    HW153747   0.083  13.249   2.684
50638SOL    HW253748   0.056  13.150   2.573
50639SOL     OW53749   7.508   3.388  12.203
50639SOL    HW153750   7.513   3.453  12.273
50639SOL    HW253751   7.599   3.376  12.176
50640SOL     OW53752   5.412  14.678   3.951
50640SOL    HW153753   5.348  14.608   3.941
50640SOL    HW253754   5.387  14.722   4.033
50641SOL     OW53755   2.322  10.693   7.988
50641SOL    HW153756   2.252  10.683   7.924
50641SOL    HW253757   2.397  10.725   7.937
50642SOL     OW53758   4.667  11.909  12.469
50642SOL    HW153759   4.602  11.893  12.538
50642SOL    HW253760   4.722  11.830  12.470
50643SOL     OW53761   9.520   7.232  14.849
50643SOL    HW153762   9.567   7.246  14.767
50643SOL    HW253763   9.428   7.244  14.827
50644SOL     OW53764   6.237  10.547  10.871
50644SOL    HW153765   6.150  10.515  10.895
50644SOL    HW253766   6.273  10.584  10.951
50645SOL     OW53767   7.214  14.670   1.487
50645SOL    HW153768   7.265  14.717   1.421
50645SOL    HW253769   7.280  14.633   1.547
50646SOL     OW53770   7.793  11.380  11.361
50646SOL    HW153771   7.874  11.420  11.394
50646SOL    HW253772   7.799  11.288  11.389
50647SOL     OW53773   5.683  12.828   4.439
50647SOL    HW153774   5.751  12.786   4.385
50647SOL    HW253775   5.732  12.867   4.512
50648SOL     OW53776   6.314   8.315  10.697
50648SOL    HW153777   6.397   8.361  10.684
50648SOL    HW253778   6.330   8.259  10.774
50649SOL     OW53779   1.963  12.321   7.926
50649SOL    HW153780   2.035  12.367   7.969
50649SOL    HW253781   1.900  12.390   7.905
50650SOL     OW53782   7.780   0.398   5.429
50650SOL    HW153783   7.742   0.485   5.427
50650SOL    HW253784   7.798   0.381   5.521
50651SOL     OW53785  11.916   9.855   2.043
50651SOL    HW153786  11.906   9.768   2.005
50651SOL    HW253787  12.005   9.882   2.019
50652SOL     OW53788   6.975   9.410   2.796
50652SOL    HW153789   6.973   9.406   2.700
50652SOL    HW253790   7.068   9.405   2.818
50653SOL     OW53791  12.575  10.130   1.927
50653SOL    HW153792  12.607  10.162   2.011
50653SOL    HW253793  12.546  10.209   1.881
50654SOL     OW53794   6.940   9.887   4.166
50654SOL    HW153795   6.962   9.885   4.073
50654SOL    HW253796   6.847   9.862   4.168
50655SOL     OW53797  12.240   3.528   6.924
50655SOL    HW153798  12.203   3.536   6.836
50655SOL    HW253799  12.251   3.619   6.954
50656SOL     OW53800   8.142  12.025   5.491
50656SOL    HW153801   8.176  11.966   5.424
50656SOL    HW253802   8.048  12.032   5.472
50657SOL     OW53803   5.137   5.609   8.251
50657SOL    HW153804   5.150   5.702   8.269
50657SOL    HW253805   5.065   5.584   8.309
50658SOL     OW53806   5.406   0.669   6.876
50658SOL    HW153807   5.370   0.583   6.854
50658SOL    HW253808   5.474   0.651   6.940
50659SOL     OW53809   4.171   4.031   7.321
50659SOL    HW153810   4.210   3.957   7.275
50659SOL    HW253811   4.166   4.100   7.256
50660SOL     OW53812   8.733  12.799  10.380
50660SOL    HW153813   8.814  12.829  10.341
50660SOL    HW253814   8.667  12.863  10.352
50661SOL     OW53815  14.643  12.377   2.639
50661SOL    HW153816  14.661  12.426   2.560
50661SOL    HW253817  14.611  12.292   2.609
50662SOL     OW53818  14.737   8.498   5.526
50662SOL    HW153819  14.713   8.418   5.479
50662SOL    HW253820  14.658   8.551   5.525
50663SOL     OW53821   8.826  10.665   9.935
50663SOL    HW153822   8.922  10.660   9.932
50663SOL    HW253823   8.806  10.675  10.028
50664SOL     OW53824  11.346   0.697   7.193
50664SOL    HW153825  11.291   0.741   7.258
50664SOL    HW253826  11.428   0.746   7.193
50665SOL     OW53827   7.765  12.439  10.581
50665SOL    HW153828   7.767  12.383  10.659
50665SOL    HW253829   7.857  12.445  10.554
50666SOL     OW53830   0.118   6.402   9.806
50666SOL    HW153831   0.031   6.384   9.843
50666SOL    HW253832   0.162   6.455   9.872
50667SOL     OW53833  10.554   4.261   6.646
50667SOL    HW153834  10.505   4.200   6.590
50667SOL    HW253835  10.643   4.225   6.647
50668SOL     OW53836   8.949   4.927   5.951
50668SOL    HW153837   8.906   4.966   5.875
50668SOL    HW253838   8.878   4.916   6.015
50669SOL     OW53839   0.575   7.671  12.155
50669SOL    HW153840   0.668   7.660  12.178
50669SOL    HW253841   0.555   7.761  12.180
50670SOL     OW53842   4.333   6.665  14.212
50670SOL    HW153843   4.362   6.607  14.142
50670SOL    HW253844   4.413   6.701  14.249
50671SOL     OW53845   5.889   1.790  14.060
50671SOL    HW153846   5.859   1.875  14.093
50671SOL    HW253847   5.966   1.769  14.112
50672SOL     OW53848   8.926   6.981   5.161
50672SOL    HW153849   8.964   7.066   5.140
50672SOL    HW253850   8.837   6.985   5.126
50673SOL     OW53851   0.167   6.883   8.676
50673SOL    HW153852   0.074   6.907   8.679
50673SOL    HW253853   0.169   6.802   8.626
50674SOL     OW53854   3.049   2.126  10.426
50674SOL    HW153855   2.955   2.106  10.429
50674SOL    HW253856   3.074   2.142  10.517
50675SOL     OW53857   2.224  10.283   8.604
50675SOL    HW153858   2.282  10.343   8.651
50675SOL    HW253859   2.260  10.196   8.622
50676SOL     OW53860  13.722   7.128   3.683
50676SOL    HW153861  13.632   7.097   3.684
50676SOL    HW253862  13.715   7.223   3.670
50677SOL     OW53863   1.878  10.333   0.979
50677SOL    HW153864   1.947  10.269   0.999
50677SOL    HW253865   1.804  10.281   0.948
50678SOL     OW53866   0.590   9.738  10.293
50678SOL    HW153867   0.683   9.722  10.312
50678SOL    HW253868   0.555   9.776  10.373
50679SOL     OW53869  10.042   9.248  10.183
50679SOL    HW153870   9.991   9.169  10.169
50679SOL    HW253871  10.072   9.274  10.096
50680SOL     OW53872  11.510  12.896  12.975
50680SOL    HW153873  11.516  12.889  13.070
50680SOL    HW253874  11.544  12.983  12.955
50681SOL     OW53875  14.345   4.563   8.753
50681SOL    HW153876  14.340   4.634   8.817
50681SOL    HW253877  14.275   4.583   8.690
50682SOL     OW53878   0.398   3.647   9.511
50682SOL    HW153879   0.369   3.568   9.465
50682SOL    HW253880   0.381   3.718   9.450
50683SOL     OW53881   3.728  14.228   5.977
50683SOL    HW153882   3.771  14.296   6.028
50683SOL    HW253883   3.719  14.154   6.038
50684SOL     OW53884  14.783   7.594  11.000
50684SOL    HW153885  14.862   7.564  10.955
50684SOL    HW253886  14.766   7.680  10.961
50685SOL     OW53887   8.639   8.860   3.865
50685SOL    HW153888   8.593   8.942   3.850
50685SOL    HW253889   8.631   8.812   3.782
50686SOL     OW53890  13.808   9.682  12.066
50686SOL    HW153891  13.780   9.599  12.104
50686SOL    HW253892  13.848   9.658  11.983
50687SOL     OW53893  12.650  12.973   1.369
50687SOL    HW153894  12.743  12.948   1.368
50687SOL    HW253895  12.606  12.898   1.410
50688SOL     OW53896   8.066  14.799  13.904
50688SOL    HW153897   8.076  14.855  13.981
50688SOL    HW253898   8.100  14.714  13.931
50689SOL     OW53899   7.233   2.934   4.942
50689SOL    HW153900   7.319   2.893   4.956
50689SOL    HW253901   7.228   2.946   4.847
50690SOL     OW53902   9.099  12.682   7.399
50690SOL    HW153903   9.068  12.620   7.465
50690SOL    HW253904   9.080  12.641   7.315
50691SOL     OW53905  11.174   9.724  13.162
50691SOL    HW153906  11.195   9.675  13.241
50691SOL    HW253907  11.223   9.681  13.093
50692SOL     OW53908  14.282   9.220  13.285
50692SOL    HW153909  14.320   9.245  13.200
50692SOL    HW253910  14.262   9.127  13.276
50693SOL     OW53911   5.809   4.056   4.002
50693SOL    HW153912   5.757   4.033   3.925
50693SOL    HW253913   5.747   4.048   4.075
50694SOL     OW53914   6.676   2.999   5.298
50694SOL    HW153915   6.746   2.988   5.233
50694SOL    HW253916   6.595   2.981   5.250
50695SOL     OW53917  10.018   7.948   0.581
50695SOL    HW153918   9.984   7.900   0.657
50695SOL    HW253919  10.101   7.906   0.560
50696SOL     OW53920  12.148  14.429   2.731
50696SOL    HW153921  12.133  14.391   2.644
50696SOL    HW253922  12.063  14.423   2.774
50697SOL     OW53923   7.653   8.396   2.808
50697SOL    HW153924   7.595   8.322   2.792
50697SOL    HW253925   7.601   8.473   2.783
50698SOL     OW53926   5.783   0.697   3.837
50698SOL    HW153927   5.863   0.690   3.889
50698SOL    HW253928   5.757   0.789   3.845
50699SOL     OW53929   5.724   8.542   9.715
50699SOL    HW153930   5.694   8.534   9.625
50699SOL    HW253931   5.721   8.453   9.750
50700SOL     OW53932   8.534   2.117   4.169
50700SOL    HW153933   8.519   2.195   4.115
50700SOL    HW253934   8.503   2.143   4.256
50701SOL     OW53935   9.009   6.054   2.637
50701SOL    HW153936   9.033   5.970   2.677
50701SOL    HW253937   9.085   6.110   2.652
50702SOL     OW53938   5.957  10.858   1.269
50702SOL    HW153939   5.951  10.902   1.354
50702SOL    HW253940   5.872  10.815   1.258
50703SOL     OW53941   0.925  14.133   8.989
50703SOL    HW153942   0.864  14.205   8.977
50703SOL    HW253943   0.885  14.079   9.058
50704SOL     OW53944   9.856   7.955   4.781
50704SOL    HW153945   9.773   7.979   4.823
50704SOL    HW253946   9.917   8.023   4.809
50705SOL     OW53947   9.303   0.857   7.550
50705SOL    HW153948   9.297   0.939   7.599
50705SOL    HW253949   9.380   0.813   7.586
50706SOL     OW53950   9.846  12.881  12.364
50706SOL    HW153951   9.761  12.903  12.402
50706SOL    HW253952   9.825  12.826  12.288
50707SOL     OW53953   1.728   1.966   7.143
50707SOL    HW153954   1.818   1.994   7.163
50707SOL    HW253955   1.674   2.038   7.175
50708SOL     OW53956   2.184  10.305   3.625
50708SOL    HW153957   2.103  10.266   3.592
50708SOL    HW253958   2.164  10.325   3.717
50709SOL     OW53959   0.896  10.973  13.270
50709SOL    HW153960   0.832  11.044  13.269
50709SOL    HW253961   0.970  11.006  13.219
50710SOL     OW53962   6.795   1.848   2.302
50710SOL    HW153963   6.790   1.859   2.207
50710SOL    HW253964   6.889   1.846   2.321
50711SOL     OW53965   9.123  13.966  14.604
50711SOL    HW153966   9.106  13.901  14.673
50711SOL    HW253967   9.101  13.921  14.523
50712SOL     OW53968   6.462  12.241   6.149
50712SOL    HW153969   6.552  12.259   6.177
50712SOL    HW253970   6.407  12.283   6.216
50713SOL     OW53971   0.389   0.236  14.530
50713SOL    HW153972   0.312   0.287  14.504
50713SOL    HW253973   0.408   0.265  14.619
50714SOL     OW53974   7.286   6.424   5.409
50714SOL    HW153975   7.274   6.494   5.345
50714SOL    HW253976   7.219   6.359   5.387
50715SOL     OW53977   7.995  11.628  14.351
50715SOL    HW153978   8.044  11.549  14.330
50715SOL    HW253979   7.976  11.620  14.445
50716SOL     OW53980   2.530   5.678   6.313
50716SOL    HW153981   2.450   5.708   6.358
50716SOL    HW253982   2.563   5.607   6.368
50717SOL     OW53983  12.792   7.289  13.207
50717SOL    HW153984  12.827   7.206  13.239
50717SOL    HW253985  12.739   7.322  13.280
50718SOL     OW53986   1.342   2.388  10.969
50718SOL    HW153987   1.416   2.348  11.014
50718SOL    HW253988   1.378   2.467  10.929
50719SOL     OW53989   3.376  14.325   5.422
50719SOL    HW153990   3.357  14.232   5.414
50719SOL    HW253991   3.471  14.329   5.433
50720SOL     OW53992   7.625   5.512   4.560
50720SOL    HW153993   7.531   5.494   4.557
50720SOL    HW253994   7.635   5.590   4.504
50721SOL     OW53995  11.782   0.602  11.339
50721SOL    HW153996  11.708   0.629  11.394
50721SOL    HW253997  11.751   0.618  11.250
50722SOL     OW53998  10.895  13.646   9.074
50722SOL    HW153999  10.966  13.624   9.014
50722SOL    HW254000  10.815  13.629   9.024
50723SOL     OW54001  11.527   6.518   9.028
50723SOL    HW154002  11.508   6.444   9.086
50723SOL    HW254003  11.490   6.594   9.072
50724SOL     OW54004   9.849  13.125  12.559
50724SOL    HW154005   9.807  13.120  12.473
50724SOL    HW254006   9.776  13.131  12.621
50725SOL     OW54007   1.461   4.071  10.138
50725SOL    HW154008   1.440   4.118  10.219
50725SOL    HW254009   1.384   4.017  10.121
50726SOL     OW54010  12.880   8.249  13.527
50726SOL    HW154011  12.901   8.163  13.491
50726SOL    HW254012  12.880   8.235  13.622
50727SOL     OW54013   7.173   6.830   2.509
50727SOL    HW154014   7.233   6.896   2.544
50727SOL    HW254015   7.199   6.821   2.417
50728SOL     OW54016   7.373   5.418   5.103
50728SOL    HW154017   7.402   5.348   5.161
50728SOL    HW254018   7.399   5.388   5.015
50729SOL     OW54019   8.954   6.987  12.776
50729SOL    HW154020   8.908   7.043  12.714
50729SOL    HW254021   9.017   6.938  12.723
50730SOL     OW54022   3.320  11.511   5.606
50730SOL    HW154023   3.310  11.491   5.513
50730SOL    HW254024   3.231  11.517   5.639
50731SOL     OW54025   6.577  11.865   0.192
50731SOL    HW154026   6.651  11.925   0.202
50731SOL    HW254027   6.511  11.917   0.145
50732SOL     OW54028  12.898   2.774  11.815
50732SOL    HW154029  12.812   2.767  11.857
50732SOL    HW254030  12.910   2.691  11.770
50733SOL     OW54031  11.889   5.638   8.465
50733SOL    HW154032  11.850   5.721   8.437
50733SOL    HW254033  11.982   5.648   8.447
50734SOL     OW54034   7.352  11.340   7.893
50734SOL    HW154035   7.276  11.330   7.951
50734SOL    HW254036   7.332  11.418   7.841
50735SOL     OW54037  14.166   7.024  11.634
50735SOL    HW154038  14.142   7.114  11.613
50735SOL    HW254039  14.148   7.016  11.728
50736SOL     OW54040   2.235   6.710   9.863
50736SOL    HW154041   2.299   6.722   9.932
50736SOL    HW254042   2.158   6.674   9.908
50737SOL     OW54043   0.223   7.364   5.652
50737SOL    HW154044   0.305   7.381   5.697
50737SOL    HW254045   0.245   7.297   5.586
50738SOL     OW54046  11.687   2.025   9.264
50738SOL    HW154047  11.660   1.961   9.331
50738SOL    HW254048  11.770   2.060   9.298
50739SOL     OW54049   2.016   0.712   3.516
50739SOL    HW154050   2.065   0.792   3.537
50739SOL    HW254051   2.018   0.661   3.597
50740SOL     OW54052   6.679  11.309   9.829
50740SOL    HW154053   6.753  11.345   9.877
50740SOL    HW254054   6.616  11.284   9.896
50741SOL     OW54055  12.184   1.192  13.791
50741SOL    HW154056  12.117   1.147  13.739
50741SOL    HW254057  12.208   1.269  13.740
50742SOL     OW54058  10.013   0.371  11.337
50742SOL    HW154059  10.069   0.421  11.396
50742SOL    HW254060   9.931   0.419  11.336
50743SOL     OW54061   1.769  10.002   6.524
50743SOL    HW154062   1.772  10.018   6.429
50743SOL    HW254063   1.860  10.011   6.552
50744SOL     OW54064  12.087   4.799  10.532
50744SOL    HW154065  11.996   4.824  10.521
50744SOL    HW254066  12.125   4.869  10.585
50745SOL     OW54067   1.548  12.275  11.178
50745SOL    HW154068   1.525  12.203  11.118
50745SOL    HW254069   1.463  12.309  11.207
50746SOL     OW54070   3.055  14.446   9.397
50746SOL    HW154071   3.127  14.414   9.452
50746SOL    HW254072   2.996  14.490   9.458
50747SOL     OW54073   6.160  14.618   0.528
50747SOL    HW154074   6.132  14.631   0.619
50747SOL    HW254075   6.256  14.616   0.533
50748SOL     OW54076   9.347   1.783   5.802
50748SOL    HW154077   9.388   1.862   5.835
50748SOL    HW254078   9.338   1.798   5.708
50749SOL     OW54079   3.303  10.783   2.535
50749SOL    HW154080   3.377  10.773   2.475
50749SOL    HW254081   3.288  10.695   2.571
50750SOL     OW54082   9.682   2.910  14.287
50750SOL    HW154083   9.675   2.816  14.271
50750SOL    HW254084   9.620   2.927  14.358
50751SOL     OW54085  12.209   7.191  13.510
50751SOL    HW154086  12.163   7.166  13.590
50751SOL    HW254087  12.149   7.169  13.439
50752SOL     OW54088  11.689   4.867   1.023
50752SOL    HW154089  11.674   4.953   1.061
50752SOL    HW254090  11.742   4.883   0.945
50753SOL     OW54091   8.730   6.382   6.583
50753SOL    HW154092   8.666   6.311   6.585
50753SOL    HW254093   8.815   6.340   6.573
50754SOL     OW54094   6.282   8.308  13.648
50754SOL    HW154095   6.213   8.354  13.695
50754SOL    HW254096   6.356   8.368  13.647
50755SOL     OW54097   4.071  14.238  10.311
50755SOL    HW154098   3.981  14.215  10.290
50755SOL    HW254099   4.107  14.159  10.351
50756SOL     OW54100   3.087  14.829   6.881
50756SOL    HW154101   3.143   0.026   6.896
50756SOL    HW254102   3.147  14.760   6.852
50757SOL     OW54103  12.581  12.848  14.699
50757SOL    HW154104  12.495  12.888  14.694
50757SOL    HW254105  12.580  12.799  14.781
50758SOL     OW54106   0.070   8.058   1.758
50758SOL    HW154107   0.004   7.989   1.747
50758SOL    HW254108   0.053   8.120   1.687
50759SOL     OW54109   3.427   0.801  10.106
50759SOL    HW154110   3.390   0.729  10.156
50759SOL    HW254111   3.357   0.826  10.045
50760SOL     OW54112   3.655  13.879  11.407
50760SOL    HW154113   3.623  13.929  11.331
50760SOL    HW254114   3.717  13.938  11.450
50761SOL     OW54115   4.647   4.215   8.644
50761SOL    HW154116   4.577   4.276   8.666
50761SOL    HW254117   4.627   4.136   8.696
50762SOL     OW54118   0.267   5.800   6.971
50762SOL    HW154119   0.261   5.853   7.051
50762SOL    HW254120   0.354   5.817   6.936
50763SOL     OW54121  14.047   1.304   3.425
50763SOL    HW154122  14.085   1.344   3.347
50763SOL    HW254123  13.964   1.267   3.396
50764SOL     OW54124   0.908   4.248   6.299
50764SOL    HW154125   0.891   4.176   6.360
50764SOL    HW254126   0.861   4.223   6.219
50765SOL     OW54127   0.351   6.517  13.301
50765SOL    HW154128   0.420   6.529  13.236
50765SOL    HW254129   0.271   6.508  13.250
50766SOL     OW54130  11.155   0.928   5.216
50766SOL    HW154131  11.195   0.869   5.280
50766SOL    HW254132  11.219   0.934   5.145
50767SOL     OW54133   9.041  10.418   6.262
50767SOL    HW154134   8.984  10.391   6.334
50767SOL    HW254135   9.108  10.349   6.257
50768SOL     OW54136   8.358   8.216  14.334
50768SOL    HW154137   8.377   8.123  14.329
50768SOL    HW254138   8.440   8.259  14.309
50769SOL     OW54139  13.188   8.076   2.709
50769SOL    HW154140  13.216   8.125   2.631
50769SOL    HW254141  13.231   7.991   2.701
50770SOL     OW54142   9.782   4.262  14.340
50770SOL    HW154143   9.867   4.219  14.355
50770SOL    HW254144   9.740   4.262  14.426
50771SOL     OW54145  10.008  11.728  11.044
50771SOL    HW154146  10.084  11.747  11.099
50771SOL    HW254147  10.027  11.642  11.007
50772SOL     OW54148   7.724  11.391  13.177
50772SOL    HW154149   7.810  11.350  13.187
50772SOL    HW254150   7.737  11.483  13.200
50773SOL     OW54151   2.907   4.806  10.393
50773SOL    HW154152   2.865   4.876  10.442
50773SOL    HW254153   2.836   4.763  10.346
50774SOL     OW54154  13.636   5.928   7.088
50774SOL    HW154155  13.602   5.961   7.171
50774SOL    HW254156  13.612   5.835   7.088
50775SOL     OW54157   7.385  10.547   3.256
50775SOL    HW154158   7.430  10.529   3.174
50775SOL    HW254159   7.455  10.559   3.320
50776SOL     OW54160   2.721   6.433   3.193
50776SOL    HW154161   2.751   6.352   3.234
50776SOL    HW254162   2.628   6.418   3.176
50777SOL     OW54163   0.216   0.883   0.769
50777SOL    HW154164   0.210   0.958   0.827
50777SOL    HW254165   0.168   0.910   0.690
50778SOL     OW54166  12.895   2.437   7.307
50778SOL    HW154167  12.950   2.509   7.336
50778SOL    HW254168  12.826   2.479   7.256
50779SOL     OW54169   3.199   4.482  11.333
50779SOL    HW154170   3.121   4.528  11.305
50779SOL    HW254171   3.226   4.526  11.414
50780SOL     OW54172   3.357   3.056   4.837
50780SOL    HW154173   3.446   3.086   4.857
50780SOL    HW254174   3.367   2.962   4.818
50781SOL     OW54175   3.125   3.168  14.095
50781SOL    HW154176   3.082   3.252  14.082
50781SOL    HW254177   3.213   3.190  14.126
50782SOL     OW54178  11.256   4.469   7.838
50782SOL    HW154179  11.186   4.503   7.894
50782SOL    HW254180  11.336   4.480   7.889
50783SOL     OW54181   2.526   5.815   0.739
50783SOL    HW154182   2.461   5.859   0.794
50783SOL    HW254183   2.552   5.881   0.675
50784SOL     OW54184  11.111  13.117   7.738
50784SOL    HW154185  11.196  13.088   7.706
50784SOL    HW254186  11.104  13.208   7.708
50785SOL     OW54187   2.692  11.109   6.261
50785SOL    HW154188   2.680  11.123   6.167
50785SOL    HW254189   2.781  11.075   6.269
50786SOL     OW54190   0.773  14.782   3.958
50786SOL    HW154191   0.769  14.793   3.863
50786SOL    HW254192   0.707  14.716   3.978
50787SOL     OW54193  10.973   0.162  10.795
50787SOL    HW154194  11.058   0.203  10.778
50787SOL    HW254195  10.974   0.082  10.742
50788SOL     OW54196  10.790   9.334   3.037
50788SOL    HW154197  10.836   9.407   2.994
50788SOL    HW254198  10.725   9.306   2.972
50789SOL     OW54199  10.523   1.403   3.190
50789SOL    HW154200  10.452   1.380   3.249
50789SOL    HW254201  10.537   1.324   3.138
50790SOL     OW54202   8.035   8.024   4.153
50790SOL    HW154203   8.042   7.929   4.154
50790SOL    HW254204   8.080   8.053   4.232
50791SOL     OW54205   4.127   6.271  14.787
50791SOL    HW154206   4.164   6.185  14.807
50791SOL    HW254207   4.138   6.321  14.868
50792SOL     OW54208  13.749   4.030   3.155
50792SOL    HW154209  13.790   4.093   3.214
50792SOL    HW254210  13.673   3.999   3.204
50793SOL     OW54211  13.043   5.341   3.875
50793SOL    HW154212  13.036   5.246   3.865
50793SOL    HW254213  12.958   5.375   3.847
50794SOL     OW54214   1.857   2.053   2.499
50794SOL    HW154215   1.827   2.020   2.415
50794SOL    HW254216   1.948   2.080   2.484
50795SOL     OW54217   0.443   1.512   9.353
50795SOL    HW154218   0.417   1.590   9.304
50795SOL    HW254219   0.382   1.444   9.323
50796SOL     OW54220  11.435   6.740   9.164
50796SOL    HW154221  11.378   6.742   9.087
50796SOL    HW254222  11.434   6.829   9.198
50797SOL     OW54223   8.520   1.819   7.681
50797SOL    HW154224   8.599   1.871   7.667
50797SOL    HW254225   8.466   1.873   7.739
50798SOL     OW54226  14.068   2.338   5.164
50798SOL    HW154227  14.065   2.385   5.247
50798SOL    HW254228  14.034   2.401   5.099
50799SOL     OW54229   6.862  10.203   2.507
50799SOL    HW154230   6.886  10.123   2.461
50799SOL    HW254231   6.863  10.271   2.439
50800SOL     OW54232   1.617   8.100   5.362
50800SOL    HW154233   1.536   8.089   5.412
50800SOL    HW254234   1.635   8.194   5.367
50801SOL     OW54235   2.456   9.072   7.841
50801SOL    HW154236   2.516   9.082   7.767
50801SOL    HW254237   2.440   9.162   7.871
50802SOL     OW54238  10.890   0.139   3.537
50802SOL    HW154239  10.821   0.185   3.489
50802SOL    HW254240  10.971   0.181   3.508
50803SOL     OW54241   5.890  12.002   3.429
50803SOL    HW154242   5.951  11.929   3.427
50803SOL    HW254243   5.865  12.016   3.337
50804SOL     OW54244   4.926   4.788   0.038
50804SOL    HW154245   4.940   4.779   0.132
50804SOL    HW254246   4.914   4.698   0.007
50805SOL     OW54247   4.217   3.142   2.438
50805SOL    HW154248   4.131   3.105   2.460
50805SOL    HW254249   4.198   3.209   2.372
50806SOL     OW54250   6.556   4.108   3.079
50806SOL    HW154251   6.581   4.164   3.006
50806SOL    HW254252   6.507   4.165   3.138
50807SOL     OW54253   0.940   8.839   6.504
50807SOL    HW154254   1.036   8.841   6.495
50807SOL    HW254255   0.926   8.822   6.597
50808SOL     OW54256   4.726   6.170   8.716
50808SOL    HW154257   4.798   6.128   8.764
50808SOL    HW254258   4.709   6.250   8.766
50809SOL     OW54259   3.239   3.316   3.176
50809SOL    HW154260   3.218   3.250   3.110
50809SOL    HW254261   3.271   3.267   3.251
50810SOL     OW54262   6.815   9.955   8.908
50810SOL    HW154263   6.783   9.974   8.820
50810SOL    HW254264   6.807   9.860   8.916
50811SOL     OW54265   2.537  12.725   6.230
50811SOL    HW154266   2.450  12.709   6.193
50811SOL    HW254267   2.554  12.817   6.212
50812SOL     OW54268   0.363   9.525   9.021
50812SOL    HW154269   0.404   9.597   8.973
50812SOL    HW254270   0.353   9.456   8.955
50813SOL     OW54271   0.771  13.964  12.796
50813SOL    HW154272   0.700  13.902  12.814
50813SOL    HW254273   0.736  14.023  12.729
50814SOL     OW54274  12.413   0.695   0.178
50814SOL    HW154275  12.429   0.610   0.138
50814SOL    HW254276  12.326   0.688   0.216
50815SOL     OW54277   5.243  10.361   1.045
50815SOL    HW154278   5.297  10.284   1.062
50815SOL    HW254279   5.154  10.326   1.038
50816SOL     OW54280   7.513   3.592   7.162
50816SOL    HW154281   7.423   3.614   7.187
50816SOL    HW254282   7.532   3.512   7.211
50817SOL     OW54283  10.500  12.586   5.718
50817SOL    HW154284  10.502  12.509   5.661
50817SOL    HW254285  10.454  12.557   5.796
50818SOL     OW54286   5.783   3.172  10.706
50818SOL    HW154287   5.751   3.124  10.630
50818SOL    HW254288   5.706   3.216  10.742
50819SOL     OW54289  12.525   2.825   6.984
50819SOL    HW154290  12.541   2.905   7.035
50819SOL    HW254291  12.611   2.803   6.948
50820SOL     OW54292  11.778   3.434   1.573
50820SOL    HW154293  11.724   3.366   1.611
50820SOL    HW254294  11.753   3.437   1.481
50821SOL     OW54295  11.180  14.208  13.883
50821SOL    HW154296  11.162  14.175  13.972
50821SOL    HW254297  11.271  14.184  13.867
50822SOL     OW54298   6.494   2.934   8.471
50822SOL    HW154299   6.517   3.027   8.467
50822SOL    HW254300   6.539   2.902   8.549
50823SOL     OW54301   9.839   9.599   8.486
50823SOL    HW154302   9.771   9.587   8.419
50823SOL    HW254303   9.913   9.547   8.455
50824SOL     OW54304   0.496   6.213   4.181
50824SOL    HW154305   0.504   6.146   4.112
50824SOL    HW254306   0.448   6.284   4.139
50825SOL     OW54307   7.684   4.272  11.863
50825SOL    HW154308   7.682   4.336  11.791
50825SOL    HW254309   7.749   4.308  11.924
50826SOL     OW54310  14.703  10.446   3.099
50826SOL    HW154311  14.724  10.358   3.131
50826SOL    HW254312  14.652  10.430   3.019
50827SOL     OW54313   6.861   1.464  10.795
50827SOL    HW154314   6.779   1.433  10.756
50827SOL    HW254315   6.834   1.535  10.853
50828SOL     OW54316   5.785   8.529   6.617
50828SOL    HW154317   5.855   8.472   6.650
50828SOL    HW254318   5.815   8.618   6.637
50829SOL     OW54319   7.263   9.830   6.610
50829SOL    HW154320   7.193   9.771   6.583
50829SOL    HW254321   7.331   9.818   6.544
50830SOL     OW54322   6.669   2.459   6.603
50830SOL    HW154323   6.686   2.509   6.683
50830SOL    HW254324   6.708   2.373   6.619
50831SOL     OW54325  11.959   4.692  12.629
50831SOL    HW154326  11.889   4.640  12.589
50831SOL    HW254327  12.023   4.704  12.559
50832SOL     OW54328  11.853   6.981   3.677
50832SOL    HW154329  11.921   6.997   3.743
50832SOL    HW254330  11.771   7.002   3.722
50833SOL     OW54331  11.668   1.999   0.151
50833SOL    HW154332  11.684   2.053   0.074
50833SOL    HW254333  11.604   2.050   0.203
50834SOL     OW54334  10.044  14.200   4.954
50834SOL    HW154335  10.113  14.152   4.907
50834SOL    HW254336  10.019  14.270   4.894
50835SOL     OW54337   5.635   5.752  13.337
50835SOL    HW154338   5.660   5.788  13.422
50835SOL    HW254339   5.654   5.822  13.274
50836SOL     OW54340   4.665  11.850  11.656
50836SOL    HW154341   4.604  11.876  11.726
50836SOL    HW254342   4.626  11.885  11.576
50837SOL     OW54343  12.980  12.725   7.585
50837SOL    HW154344  13.008  12.640   7.551
50837SOL    HW254345  13.058  12.780   7.578
50838SOL     OW54346   0.030  14.249   8.417
50838SOL    HW154347   0.124  14.258   8.436
50838SOL    HW254348  14.877  14.339   8.414
50839SOL     OW54349   1.435   9.055   4.515
50839SOL    HW154350   1.352   9.081   4.475
50839SOL    HW254351   1.474   9.137   4.546
50840SOL     OW54352  11.165   1.461   3.815
50840SOL    HW154353  11.139   1.371   3.795
50840SOL    HW254354  11.241   1.452   3.873
50841SOL     OW54355   2.367   7.710   2.629
50841SOL    HW154356   2.434   7.754   2.577
50841SOL    HW254357   2.385   7.617   2.618
50842SOL     OW54358   8.968   4.100   4.992
50842SOL    HW154359   8.912   4.176   4.972
50842SOL    HW254360   8.969   4.098   5.088
50843SOL     OW54361   6.254  10.021  11.187
50843SOL    HW154362   6.223   9.995  11.100
50843SOL    HW254363   6.178  10.010  11.244
50844SOL     OW54364   6.374   1.702   7.193
50844SOL    HW154365   6.352   1.609   7.199
50844SOL    HW254366   6.461   1.703   7.151
50845SOL     OW54367   7.341  12.650   6.577
50845SOL    HW154368   7.394  12.582   6.620
50845SOL    HW254369   7.266  12.662   6.635
50846SOL     OW54370  12.222   0.159   4.317
50846SOL    HW154371  12.248   0.187   4.229
50846SOL    HW254372  12.304   0.135   4.360
50847SOL     OW54373  11.800  13.555   6.711
50847SOL    HW154374  11.706  13.541   6.703
50847SOL    HW254375  11.809  13.646   6.738
50848SOL     OW54376  11.530   9.454   5.997
50848SOL    HW154377  11.596   9.520   6.016
50848SOL    HW254378  11.450   9.487   6.038
50849SOL     OW54379  11.459   2.780   7.762
50849SOL    HW154380  11.370   2.746   7.770
50849SOL    HW254381  11.482   2.806   7.851
50850SOL     OW54382  11.249  13.145   4.656
50850SOL    HW154383  11.158  13.117   4.645
50850SOL    HW254384  11.244  13.227   4.704
50851SOL     OW54385   2.498   6.978  10.753
50851SOL    HW154386   2.590   7.005  10.751
50851SOL    HW254387   2.463   7.004  10.668
50852SOL     OW54388   6.931  10.948   7.006
50852SOL    HW154389   6.872  11.021   6.986
50852SOL    HW254390   6.906  10.879   6.945
50853SOL     OW54391   5.711  14.726  14.256
50853SOL    HW154392   5.652  14.711  14.330
50853SOL    HW254393   5.769  14.797  14.286
50854SOL     OW54394   5.801   8.944  10.920
50854SOL    HW154395   5.779   8.864  10.967
50854SOL    HW254396   5.758   9.014  10.970
50855SOL     OW54397   8.113   6.304   0.006
50855SOL    HW154398   8.075   6.304  14.797
50855SOL    HW254399   8.206   6.284  14.870
50856SOL     OW54400  10.066   7.151   6.195
50856SOL    HW154401  10.124   7.219   6.162
50856SOL    HW254402  10.001   7.198   6.247
50857SOL     OW54403  14.567   5.650  12.329
50857SOL    HW154404  14.568   5.690  12.242
50857SOL    HW254405  14.491   5.592  12.328
50858SOL     OW54406   5.064  13.272   4.720
50858SOL    HW154407   4.983  13.222   4.730
50858SOL    HW254408   5.121  13.215   4.669
50859SOL     OW54409   0.779  12.289   6.309
50859SOL    HW154410   0.714  12.241   6.359
50859SOL    HW254411   0.746  12.288   6.219
50860SOL     OW54412   8.197   6.872  11.277
50860SOL    HW154413   8.148   6.921  11.211
50860SOL    HW254414   8.156   6.895  11.360
50861SOL     OW54415   5.805  13.828   1.049
50861SOL    HW154416   5.724  13.821   0.997
50861SOL    HW254417   5.874  13.837   0.984
50862SOL     OW54418   8.703  14.735   3.507
50862SOL    HW154419   8.644  14.669   3.543
50862SOL    HW254420   8.728  14.701   3.421
50863SOL     OW54421   7.213  12.306  11.525
50863SOL    HW154422   7.243  12.233  11.579
50863SOL    HW254423   7.194  12.267  11.440
50864SOL     OW54424   1.739  11.505  14.222
50864SOL    HW154425   1.763  11.549  14.140
50864SOL    HW254426   1.778  11.559  14.291
50865SOL     OW54427   3.456   2.770  13.393
50865SOL    HW154428   3.366   2.752  13.366
50865SOL    HW254429   3.495   2.683  13.402
50866SOL     OW54430   6.944   6.235   3.325
50866SOL    HW154431   7.019   6.222   3.268
50866SOL    HW254432   6.909   6.320   3.299
50867SOL     OW54433  10.740   7.351   2.588
50867SOL    HW154434  10.811   7.303   2.631
50867SOL    HW254435  10.771   7.366   2.499
50868SOL     OW54436   5.673   4.871   4.707
50868SOL    HW154437   5.630   4.884   4.792
50868SOL    HW254438   5.610   4.901   4.643
50869SOL     OW54439   7.634   3.094   8.407
50869SOL    HW154440   7.675   3.180   8.391
50869SOL    HW254441   7.696   3.031   8.370
50870SOL     OW54442  12.338   7.149  13.785
50870SOL    HW154443  12.349   7.085  13.855
50870SOL    HW254444  12.302   7.099  13.712
50871SOL     OW54445   6.571   2.668   0.348
50871SOL    HW154446   6.620   2.607   0.293
50871SOL    HW254447   6.483   2.630   0.355
50872SOL     OW54448   3.513   1.647   5.539
50872SOL    HW154449   3.558   1.678   5.460
50872SOL    HW254450   3.488   1.727   5.586
50873SOL     OW54451   4.979  12.466   8.797
50873SOL    HW154452   4.923  12.388   8.797
50873SOL    HW254453   4.984  12.491   8.704
50874SOL     OW54454   8.810  12.179   4.672
50874SOL    HW154455   8.741  12.124   4.635
50874SOL    HW254456   8.889  12.156   4.623
50875SOL     OW54457  11.933  12.243   9.374
50875SOL    HW154458  11.945  12.164   9.428
50875SOL    HW254459  11.841  12.266   9.384
50876SOL     OW54460   2.565   5.515   7.626
50876SOL    HW154461   2.576   5.555   7.713
50876SOL    HW254462   2.641   5.456   7.617
50877SOL     OW54463  11.564  11.201  12.804
50877SOL    HW154464  11.612  11.137  12.857
50877SOL    HW254465  11.530  11.264  12.868
50878SOL     OW54466  12.434  10.624  14.856
50878SOL    HW154467  12.397  10.653  14.773
50878SOL    HW254468  12.482  10.700   0.010
50879SOL     OW54469   9.999   4.686   6.059
50879SOL    HW154470   9.939   4.659   5.990
50879SOL    HW254471  10.085   4.688   6.017
50880SOL     OW54472  14.457   9.016  13.477
50880SOL    HW154473  14.405   9.048  13.404
50880SOL    HW254474  14.403   9.032  13.555
50881SOL     OW54475  13.909   3.480  10.633
50881SOL    HW154476  13.899   3.546  10.564
50881SOL    HW254477  13.999   3.490  10.662
50882SOL     OW54478   1.470   6.636   9.637
50882SOL    HW154479   1.417   6.699   9.589
50882SOL    HW254480   1.406   6.578   9.678
50883SOL     OW54481   6.095  14.654   6.961
50883SOL    HW154482   6.023  14.611   6.913
50883SOL    HW254483   6.112  14.595   7.034
50884SOL     OW54484   2.060   2.501   1.413
50884SOL    HW154485   2.114   2.425   1.388
50884SOL    HW254486   2.059   2.497   1.509
50885SOL     OW54487   5.853  13.307  10.963
50885SOL    HW154488   5.923  13.255  11.004
50885SOL    HW254489   5.800  13.243  10.916
50886SOL     OW54490   3.190  13.550  13.034
50886SOL    HW154491   3.249  13.475  13.028
50886SOL    HW254492   3.222  13.602  13.108
50887SOL     OW54493   3.629   2.177   6.706
50887SOL    HW154494   3.626   2.098   6.759
50887SOL    HW254495   3.540   2.213   6.712
50888SOL     OW54496   4.245   6.337   4.238
50888SOL    HW154497   4.296   6.256   4.245
50888SOL    HW254498   4.154   6.308   4.237
50889SOL     OW54499   3.570   4.794   5.263
50889SOL    HW154500   3.510   4.833   5.200
50889SOL    HW254501   3.515   4.773   5.338
50890SOL     OW54502   7.272   7.717  11.066
50890SOL    HW154503   7.227   7.735  10.983
50890SOL    HW254504   7.351   7.670  11.041
50891SOL     OW54505   6.737   1.311  12.715
50891SOL    HW154506   6.793   1.377  12.674
50891SOL    HW254507   6.777   1.227  12.691
50892SOL     OW54508  14.084   0.763   7.770
50892SOL    HW154509  14.076   0.782   7.676
50892SOL    HW254510  14.066   0.669   7.776
50893SOL     OW54511   2.934  14.707  13.062
50893SOL    HW154512   2.930  14.612  13.061
50893SOL    HW254513   2.846  14.736  13.041
50894SOL     OW54514   8.348  12.194   4.103
50894SOL    HW154515   8.312  12.243   4.177
50894SOL    HW254516   8.381  12.261   4.043
50895SOL     OW54517   5.085   0.732  10.229
50895SOL    HW154518   5.110   0.687  10.310
50895SOL    HW254519   5.006   0.687  10.200
50896SOL     OW54520   1.814   4.421   6.591
50896SOL    HW154521   1.789   4.330   6.605
50896SOL    HW254522   1.732   4.470   6.603
50897SOL     OW54523   2.829  12.554   8.032
50897SOL    HW154524   2.765  12.624   8.044
50897SOL    HW254525   2.913  12.595   8.052
50898SOL     OW54526  10.481  12.009   6.038
50898SOL    HW154527  10.553  11.961   5.995
50898SOL    HW254528  10.486  11.981   6.129
50899SOL     OW54529  13.594  11.403   3.751
50899SOL    HW154530  13.523  11.451   3.794
50899SOL    HW254531  13.615  11.455   3.673
50900SOL     OW54532   0.643   9.549   0.652
50900SOL    HW154533   0.731   9.581   0.629
50900SOL    HW254534   0.586   9.625   0.640
50901SOL     OW54535   0.339   9.055   2.796
50901SOL    HW154536   0.382   8.970   2.787
50901SOL    HW254537   0.309   9.057   2.887
50902SOL     OW54538   3.760   4.944  11.276
50902SOL    HW154539   3.846   4.921  11.241
50902SOL    HW254540   3.698   4.892  11.225
50903SOL     OW54541   3.949   8.325   5.921
50903SOL    HW154542   3.997   8.263   5.866
50903SOL    HW254543   3.912   8.272   5.991
50904SOL     OW54544   4.161   8.182   7.866
50904SOL    HW154545   4.111   8.264   7.865
50904SOL    HW254546   4.247   8.206   7.832
50905SOL     OW54547   4.936   8.162   9.708
50905SOL    HW154548   4.960   8.070   9.706
50905SOL    HW254549   4.863   8.170   9.647
50906SOL     OW54550   5.911   2.055  11.076
50906SOL    HW154551   5.825   2.082  11.109
50906SOL    HW254552   5.920   2.101  10.993
50907SOL     OW54553   9.279   3.593  11.196
50907SOL    HW154554   9.313   3.672  11.239
50907SOL    HW254555   9.338   3.579  11.122
50908SOL     OW54556   4.457   4.346   9.413
50908SOL    HW154557   4.367   4.312   9.409
50908SOL    HW254558   4.452   4.419   9.475
50909SOL     OW54559   9.864   9.288  14.593
50909SOL    HW154560   9.777   9.329  14.588
50909SOL    HW254561   9.885   9.266  14.502
50910SOL     OW54562   7.255   2.931   5.567
50910SOL    HW154563   7.287   2.841   5.558
50910SOL    HW254564   7.324   2.985   5.527
50911SOL     OW54565   5.642   5.529   4.568
50911SOL    HW154566   5.661   5.598   4.632
50911SOL    HW254567   5.627   5.451   4.621
50912SOL     OW54568   3.114   1.945   2.240
50912SOL    HW154569   3.025   1.940   2.275
50912SOL    HW254570   3.102   1.974   2.149
50913SOL     OW54571  13.121   0.464   3.592
50913SOL    HW154572  13.188   0.435   3.531
50913SOL    HW254573  13.038   0.450   3.546
50914SOL     OW54574   3.814  12.036   7.804
50914SOL    HW154575   3.868  12.113   7.820
50914SOL    HW254576   3.854  11.994   7.728
50915SOL     OW54577   1.633   8.762   5.003
50915SOL    HW154578   1.664   8.837   4.952
50915SOL    HW254579   1.638   8.688   4.942
50916SOL     OW54580   8.689   2.589  13.732
50916SOL    HW154581   8.700   2.521  13.666
50916SOL    HW254582   8.624   2.649  13.695
50917SOL     OW54583  13.266   3.727  13.854
50917SOL    HW154584  13.359   3.705  13.850
50917SOL    HW254585  13.228   3.659  13.909
50918SOL     OW54586   1.138   1.802   7.863
50918SOL    HW154587   1.166   1.837   7.779
50918SOL    HW254588   1.058   1.754   7.844
50919SOL     OW54589   1.897   3.594  14.511
50919SOL    HW154590   1.964   3.527  14.521
50919SOL    HW254591   1.936   3.659  14.453
50920SOL     OW54592   7.888   9.424  13.638
50920SOL    HW154593   7.922   9.507  13.604
50920SOL    HW254594   7.810   9.449  13.689
50921SOL     OW54595  11.569  13.130   3.967
50921SOL    HW154596  11.521  13.061   4.012
50921SOL    HW254597  11.534  13.130   3.878
50922SOL     OW54598   3.694  14.633   4.640
50922SOL    HW154599   3.621  14.641   4.702
50922SOL    HW254600   3.661  14.574   4.572
50923SOL     OW54601  10.412   4.191   4.823
50923SOL    HW154602  10.458   4.241   4.891
50923SOL    HW254603  10.478   4.178   4.755
50924SOL     OW54604  11.560   3.419   7.347
50924SOL    HW154605  11.638   3.375   7.381
50924SOL    HW254606  11.535   3.480   7.416
50925SOL     OW54607   5.188   5.524   8.798
50925SOL    HW154608   5.136   5.470   8.739
50925SOL    HW254609   5.256   5.465   8.831
50926SOL     OW54610   1.809  14.216  11.006
50926SOL    HW154611   1.793  14.122  10.998
50926SOL    HW254612   1.825  14.246  10.917
50927SOL     OW54613  14.333   5.559  14.109
50927SOL    HW154614  14.381   5.524  14.184
50927SOL    HW254615  14.245   5.523  14.118
50928SOL     OW54616   2.218   9.027   4.084
50928SOL    HW154617   2.131   9.067   4.076
50928SOL    HW254618   2.249   9.021   3.994
50929SOL     OW54619   3.297  10.993  12.941
50929SOL    HW154620   3.208  11.021  12.918
50929SOL    HW254621   3.332  10.956  12.860
50930SOL     OW54622  14.539   2.105   3.343
50930SOL    HW154623  14.539   2.033   3.279
50930SOL    HW254624  14.618   2.090   3.396
50931SOL     OW54625   3.224  10.725   3.400
50931SOL    HW154626   3.161  10.701   3.468
50931SOL    HW254627   3.170  10.751   3.325
50932SOL     OW54628   9.787  13.753  13.796
50932SOL    HW154629   9.746  13.669  13.780
50932SOL    HW254630   9.878  13.742  13.767
50933SOL     OW54631  10.949  13.555   5.071
50933SOL    HW154632  10.924  13.487   5.009
50933SOL    HW254633  11.025  13.518   5.117
50934SOL     OW54634   4.708   2.230   3.494
50934SOL    HW154635   4.634   2.179   3.527
50934SOL    HW254636   4.777   2.166   3.479
50935SOL     OW54637   0.887   0.980   7.279
50935SOL    HW154638   0.883   0.971   7.184
50935SOL    HW254639   0.800   1.011   7.304
50936SOL     OW54640   3.481   1.002  12.112
50936SOL    HW154641   3.487   1.052  12.194
50936SOL    HW254642   3.466   0.912  12.140
50937SOL     OW54643   9.245   9.838   7.482
50937SOL    HW154644   9.160   9.881   7.489
50937SOL    HW254645   9.259   9.798   7.569
50938SOL     OW54646   3.816   8.858   6.598
50938SOL    HW154647   3.747   8.803   6.634
50938SOL    HW254648   3.862   8.801   6.535
50939SOL     OW54649   0.306   6.538  10.463
50939SOL    HW154650   0.325   6.449  10.433
50939SOL    HW254651   0.259   6.527  10.545
50940SOL     OW54652  14.010   3.724   9.857
50940SOL    HW154653  14.025   3.818   9.855
50940SOL    HW254654  14.051   3.691   9.777
50941SOL     OW54655  11.798   1.450   1.713
50941SOL    HW154656  11.867   1.397   1.753
50941SOL    HW254657  11.716   1.414   1.748
50942SOL     OW54658  12.643   7.165   3.462
50942SOL    HW154659  12.570   7.225   3.444
50942SOL    HW254660  12.670   7.135   3.375
50943SOL     OW54661   5.251   7.274   0.706
50943SOL    HW154662   5.250   7.211   0.778
50943SOL    HW254663   5.225   7.223   0.630
50944SOL     OW54664   9.452  13.088  14.873
50944SOL    HW154665   9.466  13.009  14.822
50944SOL    HW254666   9.375  13.068   0.048
50945SOL     OW54667   4.999  14.506   5.464
50945SOL    HW154668   4.974  14.538   5.378
50945SOL    HW254669   5.086  14.469   5.452
50946SOL     OW54670   3.385   4.955   5.096
50946SOL    HW154671   3.325   5.028   5.116
50946SOL    HW254672   3.331   4.894   5.045
50947SOL     OW54673   7.760   3.786   3.778
50947SOL    HW154674   7.797   3.841   3.847
50947SOL    HW254675   7.701   3.726   3.824
50948SOL     OW54676   7.602   8.670  13.492
50948SOL    HW154677   7.640   8.630  13.414
50948SOL    HW254678   7.573   8.596  13.546
50949SOL     OW54679  14.793  10.769  10.355
50949SOL    HW154680  14.750  10.855  10.357
50949SOL    HW254681  14.750  10.719  10.424
50950SOL     OW54682   6.679  12.566   1.275
50950SOL    HW154683   6.699  12.568   1.368
50950SOL    HW254684   6.725  12.642   1.238
50951SOL     OW54685  11.359   1.422   7.191
50951SOL    HW154686  11.397   1.358   7.250
50951SOL    HW254687  11.336   1.496   7.247
50952SOL     OW54688   6.546   1.586  14.086
50952SOL    HW154689   6.562   1.512  14.027
50952SOL    HW254690   6.614   1.577  14.153
50953SOL     OW54691  12.800   5.465   5.627
50953SOL    HW154692  12.800   5.452   5.532
50953SOL    HW254693  12.713   5.500   5.647
50954SOL     OW54694  11.563   0.861   7.201
50954SOL    HW154695  11.610   0.925   7.256
50954SOL    HW254696  11.614   0.858   7.120
50955SOL     OW54697   6.926   1.017   2.099
50955SOL    HW154698   6.835   0.997   2.119
50955SOL    HW254699   6.973   0.999   2.180
50956SOL     OW54700   8.862   7.971  11.906
50956SOL    HW154701   8.835   7.998  11.994
50956SOL    HW254702   8.815   7.889  11.891
50957SOL     OW54703   9.859  14.166   0.502
50957SOL    HW154704   9.911  14.091   0.529
50957SOL    HW254705   9.768  14.141   0.520
50958SOL     OW54706  12.284  13.104  14.798
50958SOL    HW154707  12.244  13.027  14.839
50958SOL    HW254708  12.376  13.100  14.823
50959SOL     OW54709  12.473  14.715  11.998
50959SOL    HW154710  12.381  14.717  11.969
50959SOL    HW254711  12.474  14.764  12.080
50960SOL     OW54712   1.334   5.026  11.478
50960SOL    HW154713   1.299   5.048  11.392
50960SOL    HW254714   1.401   4.960  11.460
50961SOL     OW54715  11.857   1.072   2.309
50961SOL    HW154716  11.828   1.082   2.218
50961SOL    HW254717  11.917   0.998   2.307
50962SOL     OW54718  10.859   5.065  12.367
50962SOL    HW154719  10.888   5.068  12.458
50962SOL    HW254720  10.853   5.156  12.340
50963SOL     OW54721  12.022   8.691  10.271
50963SOL    HW154722  11.990   8.775  10.302
50963SOL    HW254723  12.114   8.707  10.248
50964SOL     OW54724   4.472   0.377   9.066
50964SOL    HW154725   4.440   0.444   9.005
50964SOL    HW254726   4.431   0.296   9.036
50965SOL     OW54727  10.236  13.936  13.076
50965SOL    HW154728  10.255  13.845  13.051
50965SOL    HW254729  10.169  13.928  13.143
50966SOL     OW54730   6.246   2.249   6.457
50966SOL    HW154731   6.226   2.343   6.455
50966SOL    HW254732   6.339   2.244   6.478
50967SOL     OW54733  11.577   6.360  14.165
50967SOL    HW154734  11.620   6.324  14.087
50967SOL    HW254735  11.514   6.423  14.130
50968SOL     OW54736   2.956   1.014   7.532
50968SOL    HW154737   3.040   1.029   7.575
50968SOL    HW254738   2.955   1.075   7.458
50969SOL     OW54739   2.056   1.190   4.180
50969SOL    HW154740   2.134   1.241   4.155
50969SOL    HW254741   1.982   1.244   4.151
50970SOL     OW54742  11.384   2.891   7.999
50970SOL    HW154743  11.456   2.954   8.004
50970SOL    HW254744  11.379   2.853   8.087
50971SOL     OW54745  11.834   1.019  14.020
50971SOL    HW154746  11.873   0.963  13.952
50971SOL    HW254747  11.881   0.995  14.100
50972SOL     OW54748   4.636   8.365  12.300
50972SOL    HW154749   4.591   8.390  12.219
50972SOL    HW254750   4.581   8.400  12.370
50973SOL     OW54751  12.706  12.563  14.209
50973SOL    HW154752  12.712  12.468  14.209
50973SOL    HW254753  12.654  12.585  14.287
50974SOL     OW54754   2.154   6.997   8.894
50974SOL    HW154755   2.111   7.044   8.965
50974SOL    HW254756   2.101   6.918   8.882
50975SOL     OW54757  10.798   7.052  13.447
50975SOL    HW154758  10.856   7.088  13.380
50975SOL    HW254759  10.726   7.116  13.453
50976SOL     OW54760   8.818  14.603   2.551
50976SOL    HW154761   8.732  14.587   2.511
50976SOL    HW254762   8.798  14.648   2.633
50977SOL     OW54763  14.440   6.479  10.627
50977SOL    HW154764  14.439   6.574  10.613
50977SOL    HW254765  14.463   6.442  10.542
50978SOL     OW54766  14.186   8.066   0.628
50978SOL    HW154767  14.106   8.014   0.617
50978SOL    HW254768  14.155   8.157   0.629
50979SOL     OW54769  12.008  14.115   7.388
50979SOL    HW154770  12.083  14.141   7.335
50979SOL    HW254771  11.978  14.033   7.348
50980SOL     OW54772   9.429   3.922  10.461
50980SOL    HW154773   9.487   3.916  10.537
50980SOL    HW254774   9.484   3.958  10.392
50981SOL     OW54775   5.347  10.952   4.251
50981SOL    HW154776   5.373  11.033   4.295
50981SOL    HW254777   5.276  10.978   4.192
50982SOL     OW54778  11.882   8.784   8.167
50982SOL    HW154779  11.792   8.812   8.183
50982SOL    HW254780  11.936   8.856   8.199
50983SOL     OW54781   6.892   7.135   0.658
50983SOL    HW154782   6.802   7.156   0.683
50983SOL    HW254783   6.939   7.218   0.664
50984SOL     OW54784  12.123   5.313   2.005
50984SOL    HW154785  12.185   5.378   2.038
50984SOL    HW254786  12.147   5.232   2.049
50985SOL     OW54787  12.805  14.024   4.624
50985SOL    HW154788  12.793  14.089   4.694
50985SOL    HW254789  12.863  14.066   4.561
50986SOL     OW54790  14.657  10.588  14.409
50986SOL    HW154791  14.587  10.548  14.358
50986SOL    HW254792  14.707  10.640  14.345
50987SOL     OW54793   6.718   9.154   6.832
50987SOL    HW154794   6.730   9.187   6.921
50987SOL    HW254795   6.751   9.065   6.835
50988SOL     OW54796   9.678   8.107   8.839
50988SOL    HW154797   9.593   8.086   8.879
50988SOL    HW254798   9.741   8.051   8.886
50989SOL     OW54799   0.155  11.779  11.477
50989SOL    HW154800   0.172  11.735  11.394
50989SOL    HW254801   0.201  11.863  11.470
50990SOL     OW54802   7.100   5.194  13.125
50990SOL    HW154803   7.185   5.203  13.167
50990SOL    HW254804   7.079   5.101  13.133
50991SOL     OW54805  14.790   1.766  10.767
50991SOL    HW154806  14.837   1.720  10.697
50991SOL    HW254807  14.857   1.815  10.813
50992SOL     OW54808   6.280  11.048   5.765
50992SOL    HW154809   6.284  11.076   5.856
50992SOL    HW254810   6.242  10.960   5.768
50993SOL     OW54811   9.933   7.624  10.651
50993SOL    HW154812   9.949   7.644  10.558
50993SOL    HW254813   9.981   7.692  10.699
50994SOL     OW54814  11.519   1.805   7.870
50994SOL    HW154815  11.590   1.760   7.916
50994SOL    HW254816  11.444   1.798   7.929
50995SOL     OW54817   3.057  13.402   6.941
50995SOL    HW154818   3.106  13.377   6.862
50995SOL    HW254819   2.989  13.336   6.949
50996SOL     OW54820   9.674   9.112   3.498
50996SOL    HW154821   9.631   9.194   3.474
50996SOL    HW254822   9.605   9.046   3.490
50997SOL     OW54823   5.561   2.777   7.663
50997SOL    HW154824   5.490   2.777   7.728
50997SOL    HW254825   5.637   2.743   7.711
50998SOL     OW54826   8.638   3.409   8.023
50998SOL    HW154827   8.684   3.327   8.010
50998SOL    HW254828   8.614   3.438   7.935
50999SOL     OW54829  13.888   2.552   7.355
50999SOL    HW154830  13.910   2.581   7.443
50999SOL    HW254831  13.908   2.459   7.354
51000SOL     OW54832   0.079   5.948  10.542
51000SOL    HW154833   0.008   5.964  10.605
51000SOL    HW254834   0.089   6.032  10.497
51001SOL     OW54835   5.706  12.188   4.087
51001SOL    HW154836   5.639  12.251   4.064
51001SOL    HW254837   5.715  12.196   4.182
51002SOL     OW54838  11.826   9.763   0.041
51002SOL    HW154839  11.810   9.821  14.846
51002SOL    HW254840  11.866   9.685   0.002
51003SOL     OW54841   9.144   7.739   5.467
51003SOL    HW154842   9.060   7.759   5.509
51003SOL    HW254843   9.204   7.724   5.541
51004SOL     OW54844   7.046  11.250   5.315
51004SOL    HW154845   7.056  11.202   5.397
51004SOL    HW254846   6.986  11.197   5.262
51005SOL     OW54847   1.217  11.845  13.449
51005SOL    HW154848   1.176  11.807  13.526
51005SOL    HW254849   1.281  11.779  13.421
51006SOL     OW54850  14.326   4.734   2.540
51006SOL    HW154851  14.327   4.642   2.565
51006SOL    HW254852  14.367   4.736   2.454
51007SOL     OW54853   4.142   4.095   0.767
51007SOL    HW154854   4.100   4.122   0.849
51007SOL    HW254855   4.197   4.021   0.792
51008SOL     OW54856  13.703   4.026  14.475
51008SOL    HW154857  13.617   4.062  14.497
51008SOL    HW254858  13.689   3.932  14.466
51009SOL     OW54859   9.083   0.123   3.949
51009SOL    HW154860   9.112   0.066   4.020
51009SOL    HW254861   9.163   0.168   3.920
51010SOL     OW54862   2.575   4.787  11.545
51010SOL    HW154863   2.523   4.742  11.612
51010SOL    HW254864   2.634   4.719  11.511
51011SOL     OW54865   0.479   7.684   7.428
51011SOL    HW154866   0.386   7.699   7.449
51011SOL    HW254867   0.483   7.687   7.333
51012SOL     OW54868  13.673  13.367   1.353
51012SOL    HW154869  13.674  13.331   1.264
51012SOL    HW254870  13.580  13.372   1.376
51013SOL     OW54871   4.280   9.310   9.107
51013SOL    HW154872   4.302   9.397   9.075
51013SOL    HW254873   4.313   9.308   9.197
51014SOL     OW54874   1.737   3.807  12.545
51014SOL    HW154875   1.788   3.734  12.511
51014SOL    HW254876   1.785   3.838  12.622
51015SOL     OW54877   9.110  11.810   4.265
51015SOL    HW154878   9.178  11.750   4.233
51015SOL    HW254879   9.032  11.755   4.273
51016SOL     OW54880   8.272  11.050  12.044
51016SOL    HW154881   8.335  10.981  12.064
51016SOL    HW254882   8.324  11.130  12.039
51017SOL     OW54883   6.658   8.233   7.534
51017SOL    HW154884   6.721   8.267   7.470
51017SOL    HW254885   6.613   8.162   7.488
51018SOL     OW54886   1.636   6.695  13.738
51018SOL    HW154887   1.667   6.654  13.657
51018SOL    HW254888   1.626   6.623  13.800
51019SOL     OW54889   5.548   5.258   0.392
51019SOL    HW154890   5.579   5.258   0.301
51019SOL    HW254891   5.497   5.338   0.400
51020SOL     OW54892   1.965   3.604   0.134
51020SOL    HW154893   2.016   3.652   0.069
51020SOL    HW254894   2.028   3.577   0.200
51021SOL     OW54895   0.069  14.043   5.837
51021SOL    HW154896   0.012  14.070   5.909
51021SOL    HW254897   0.157  14.042   5.875
51022SOL     OW54898  10.859   8.644   5.406
51022SOL    HW154899  10.894   8.636   5.494
51022SOL    HW254900  10.916   8.589   5.352
51023SOL     OW54901   8.875  12.676   8.932
51023SOL    HW154902   8.837  12.619   8.999
51023SOL    HW254903   8.850  12.636   8.849
51024SOL     OW54904  10.790   4.519   9.777
51024SOL    HW154905  10.860   4.560   9.726
51024SOL    HW254906  10.834   4.480   9.852
51025SOL     OW54907   1.829   0.255   7.122
51025SOL    HW154908   1.737   0.275   7.139
51025SOL    HW254909   1.856   0.203   7.198
51026SOL     OW54910  11.225  12.883   2.176
51026SOL    HW154911  11.250  12.975   2.171
51026SOL    HW254912  11.286  12.845   2.240
51027SOL     OW54913  14.253   2.372  13.933
51027SOL    HW154914  14.302   2.446  13.969
51027SOL    HW254915  14.250   2.308  14.004
51028SOL     OW54916   8.808   1.265   8.409
51028SOL    HW154917   8.804   1.299   8.319
51028SOL    HW254918   8.888   1.212   8.411
51029SOL     OW54919   5.923   4.360   2.313
51029SOL    HW154920   5.944   4.444   2.354
51029SOL    HW254921   5.873   4.312   2.379
51030SOL     OW54922   4.856  13.793   7.386
51030SOL    HW154923   4.870  13.748   7.469
51030SOL    HW254924   4.840  13.723   7.323
51031SOL     OW54925  10.187  12.478  14.699
51031SOL    HW154926  10.242  12.430  14.637
51031SOL    HW254927  10.249  12.526  14.754
51032SOL     OW54928  14.113  10.276  12.354
51032SOL    HW154929  14.024  10.276  12.390
51032SOL    HW254930  14.116  10.353  12.298
51033SOL     OW54931   7.438   4.687   5.863
51033SOL    HW154932   7.484   4.711   5.943
51033SOL    HW254933   7.452   4.592   5.854
51034SOL     OW54934  12.935  11.597  10.252
51034SOL    HW154935  12.905  11.544  10.325
51034SOL    HW254936  12.994  11.661  10.291
51035SOL     OW54937   4.888   2.035   1.419
51035SOL    HW154938   4.931   2.108   1.372
51035SOL    HW254939   4.831   2.078   1.483
51036SOL     OW54940  11.823   5.710   8.795
51036SOL    HW154941  11.799   5.721   8.887
51036SOL    HW254942  11.786   5.624   8.771
51037SOL     OW54943   7.597   0.383   7.162
51037SOL    HW154944   7.606   0.456   7.223
51037SOL    HW254945   7.662   0.401   7.094
51038SOL     OW54946  13.229   2.200   6.981
51038SOL    HW154947  13.264   2.195   7.070
51038SOL    HW254948  13.146   2.152   6.984
51039SOL     OW54949   2.107   2.046   6.077
51039SOL    HW154950   2.106   2.076   5.986
51039SOL    HW254951   2.038   1.979   6.081
51040SOL     OW54952   3.264  13.183   5.194
51040SOL    HW154953   3.320  13.202   5.269
51040SOL    HW254954   3.302  13.233   5.121
51041SOL     OW54955   0.986   7.123   1.128
51041SOL    HW154956   0.993   7.031   1.104
51041SOL    HW254957   1.027   7.170   1.055
51042SOL     OW54958   5.270  12.123  11.687
51042SOL    HW154959   5.315  12.195  11.644
51042SOL    HW254960   5.337  12.055  11.699
51043SOL     OW54961  12.030  13.372   3.643
51043SOL    HW154962  12.022  13.301   3.579
51043SOL    HW254963  11.943  13.377   3.684
51044SOL     OW54964   2.766   1.132  12.517
51044SOL    HW154965   2.761   1.036  12.521
51044SOL    HW254966   2.770   1.151  12.423
51045SOL     OW54967   2.167  10.654   3.876
51045SOL    HW154968   2.175  10.559   3.882
51045SOL    HW254969   2.176  10.673   3.783
51046SOL     OW54970   0.848   2.391  14.564
51046SOL    HW154971   0.921   2.331  14.575
51046SOL    HW254972   0.867   2.463  14.624
51047SOL     OW54973   1.376   4.103  13.741
51047SOL    HW154974   1.410   4.093  13.830
51047SOL    HW254975   1.372   4.014  13.707
51048SOL     OW54976  11.162  10.969   4.387
51048SOL    HW154977  11.207  11.053   4.375
51048SOL    HW254978  11.232  10.904   4.395
51049SOL     OW54979   8.072  10.386   1.044
51049SOL    HW154980   8.164  10.363   1.030
51049SOL    HW254981   8.043  10.327   1.114
51050SOL     OW54982  13.057   7.119  11.200
51050SOL    HW154983  13.093   7.200  11.163
51050SOL    HW254984  13.089   7.118  11.291
51051SOL     OW54985   0.873   1.956   3.866
51051SOL    HW154986   0.826   1.930   3.787
51051SOL    HW254987   0.836   2.041   3.888
51052SOL     OW54988  12.063   2.840   5.364
51052SOL    HW154989  11.997   2.858   5.430
51052SOL    HW254990  12.076   2.745   5.367
51053SOL     OW54991  13.287  10.022  12.169
51053SOL    HW154992  13.287   9.981  12.082
51053SOL    HW254993  13.344   9.966  12.222
51054SOL     OW54994   1.323   8.315   5.726
51054SOL    HW154995   1.290   8.395   5.685
51054SOL    HW254996   1.408   8.341   5.762
51055SOL     OW54997   4.774   0.579  13.642
51055SOL    HW154998   4.750   0.517  13.712
51055SOL    HW254999   4.765   0.665  13.683
51056SOL     OW55000  14.070   4.253  13.637
51056SOL    HW155001  13.984   4.230  13.602
51056SOL    HW255002  14.089   4.184  13.702
51057SOL     OW55003   4.647   7.669   2.233
51057SOL    HW155004   4.721   7.685   2.291
51057SOL    HW255005   4.647   7.743   2.173
51058SOL     OW55006   8.325   5.550   0.996
51058SOL    HW155007   8.234   5.543   1.023
51058SOL    HW255008   8.323   5.538   0.901
51059SOL     OW55009   4.313  11.580   9.556
51059SOL    HW155010   4.373  11.605   9.486
51059SOL    HW255011   4.234  11.552   9.512
51060SOL     OW55012   5.192  12.946   9.704
51060SOL    HW155013   5.283  12.945   9.732
51060SOL    HW255014   5.196  12.968   9.611
51061SOL     OW55015   0.716   3.113  14.452
51061SOL    HW155016   0.659   3.132  14.527
51061SOL    HW255017   0.655   3.093  14.381
51062SOL     OW55018   4.926   5.984   8.196
51062SOL    HW155019   4.948   5.946   8.111
51062SOL    HW255020   4.975   6.066   8.199
51063SOL     OW55021   7.196   4.241  10.375
51063SOL    HW155022   7.203   4.248  10.470
51063SOL    HW255023   7.286   4.248  10.343
51064SOL     OW55024   2.318  11.972   6.110
51064SOL    HW155025   2.360  12.048   6.071
51064SOL    HW255026   2.347  11.898   6.056
51065SOL     OW55027   8.827   2.007   2.401
51065SOL    HW155028   8.734   2.028   2.390
51065SOL    HW255029   8.871   2.064   2.339
51066SOL     OW55030   1.485   7.360  13.950
51066SOL    HW155031   1.527   7.431  13.901
51066SOL    HW255032   1.555   7.295  13.964
51067SOL     OW55033   7.505   6.695   0.270
51067SOL    HW155034   7.517   6.724   0.361
51067SOL    HW255035   7.528   6.771   0.217
51068SOL     OW55036   8.604   0.947  14.103
51068SOL    HW155037   8.654   0.892  14.042
51068SOL    HW255038   8.520   0.902  14.112
51069SOL     OW55039   9.004   1.811   0.930
51069SOL    HW155040   9.044   1.882   0.980
51069SOL    HW255041   8.997   1.738   0.992
51070SOL     OW55042   0.978   7.675  13.049
51070SOL    HW155043   0.916   7.606  13.069
51070SOL    HW255044   1.060   7.647  13.091
51071SOL     OW55045   9.282   8.445   6.949
51071SOL    HW155046   9.252   8.356   6.967
51071SOL    HW255047   9.282   8.451   6.853
51072SOL     OW55048   2.234   6.995   9.818
51072SOL    HW155049   2.234   6.902   9.838
51072SOL    HW255050   2.175   7.004   9.744
51073SOL     OW55051   8.368   8.238   5.155
51073SOL    HW155052   8.381   8.254   5.248
51073SOL    HW255053   8.384   8.144   5.144
51074SOL     OW55054   3.035  13.349  13.733
51074SOL    HW155055   2.993  13.300  13.662
51074SOL    HW255056   3.121  13.309  13.742
51075SOL     OW55057  10.607   7.123   9.180
51075SOL    HW155058  10.526   7.169   9.201
51075SOL    HW255059  10.676   7.185   9.202
51076SOL     OW55060  11.838  11.554   4.366
51076SOL    HW155061  11.822  11.515   4.280
51076SOL    HW255062  11.931  11.538   4.382
51077SOL     OW55063   8.568  12.533   5.037
51077SOL    HW155064   8.637  12.512   4.974
51077SOL    HW255065   8.574  12.628   5.048
51078SOL     OW55066  14.029  12.661  14.560
51078SOL    HW155067  14.072  12.637  14.643
51078SOL    HW255068  14.070  12.744  14.535
51079SOL     OW55069   5.755   3.199  11.689
51079SOL    HW155070   5.781   3.182  11.599
51079SOL    HW255071   5.825   3.160  11.742
51080SOL     OW55072  12.353   7.917   9.555
51080SOL    HW155073  12.433   7.952   9.517
51080SOL    HW255074  12.298   7.994   9.570
51081SOL     OW55075   3.868   0.818  12.061
51081SOL    HW155076   3.858   0.795  11.968
51081SOL    HW255077   3.957   0.852  12.067
51082SOL     OW55078   1.822   8.334   6.452
51082SOL    HW155079   1.779   8.264   6.503
51082SOL    HW255080   1.851   8.397   6.518
51083SOL     OW55081   9.189   7.966   4.313
51083SOL    HW155082   9.223   8.053   4.291
51083SOL    HW255083   9.116   7.983   4.373
51084SOL     OW55084  13.528   6.755   8.495
51084SOL    HW155085  13.597   6.733   8.558
51084SOL    HW255086  13.564   6.827   8.443
51085SOL     OW55087  12.207   4.137  11.721
51085SOL    HW155088  12.139   4.178  11.667
51085SOL    HW255089  12.225   4.201  11.790
51086SOL     OW55090  13.199   8.740  13.543
51086SOL    HW155091  13.213   8.792  13.464
51086SOL    HW255092  13.109   8.708  13.535
51087SOL     OW55093   6.075  10.459   4.072
51087SOL    HW155094   6.154  10.410   4.050
51087SOL    HW255095   6.096  10.550   4.050
51088SOL     OW55096  14.151  14.796  13.565
51088SOL    HW155097  14.060  14.824  13.557
51088SOL    HW255098  14.156  14.712  13.520
51089SOL     OW55099   5.246   6.784   6.357
51089SOL    HW155100   5.282   6.873   6.359
51089SOL    HW255101   5.152   6.797   6.341
51090SOL     OW55102  11.732   6.222   6.980
51090SOL    HW155103  11.670   6.157   6.946
51090SOL    HW255104  11.712   6.228   7.073
51091SOL     OW55105   7.902  10.517  13.422
51091SOL    HW155106   7.907  10.590  13.483
51091SOL    HW255107   7.974  10.459  13.448
51092SOL     OW55108  13.150   1.277  10.949
51092SOL    HW155109  13.142   1.349  10.886
51092SOL    HW255110  13.133   1.318  11.034
51093SOL     OW55111   7.367  12.923   6.525
51093SOL    HW155112   7.350  12.830   6.515
51093SOL    HW255113   7.292  12.965   6.482
51094SOL     OW55114   8.483  12.479  10.287
51094SOL    HW155115   8.571  12.474  10.250
51094SOL    HW255116   8.479  12.406  10.349
51095SOL     OW55117   8.319   5.433  10.964
51095SOL    HW155118   8.398   5.380  10.953
51095SOL    HW255119   8.281   5.403  11.047
51096SOL     OW55120   9.880  10.821   7.790
51096SOL    HW155121   9.858  10.814   7.883
51096SOL    HW255122   9.963  10.868   7.788
51097SOL     OW55123   4.326  12.479   0.262
51097SOL    HW155124   4.416  12.506   0.246
51097SOL    HW255125   4.332  12.387   0.287
51098SOL     OW55126  10.887   9.732   1.591
51098SOL    HW155127  10.924   9.807   1.544
51098SOL    HW255128  10.962   9.678   1.614
51099SOL     OW55129  11.178   4.165   2.831
51099SOL    HW155130  11.125   4.088   2.809
51099SOL    HW255131  11.170   4.174   2.926
51100SOL     OW55132  13.525   2.747  14.158
51100SOL    HW155133  13.546   2.655  14.173
51100SOL    HW255134  13.561   2.792  14.234
51101SOL     OW55135   4.491   1.079   5.313
51101SOL    HW155136   4.521   1.109   5.227
51101SOL    HW255137   4.503   0.984   5.311
51102SOL     OW55138   0.925  11.243   4.656
51102SOL    HW155139   0.950  11.229   4.565
51102SOL    HW255140   0.997  11.205   4.706
51103SOL     OW55141   5.038  10.254   8.333
51103SOL    HW155142   5.034  10.192   8.405
51103SOL    HW255143   5.006  10.205   8.257
51104SOL     OW55144   9.107   8.935   7.891
51104SOL    HW155145   9.091   8.985   7.970
51104SOL    HW255146   9.060   8.852   7.904
51105SOL     OW55147   7.536   7.266   4.624
51105SOL    HW155148   7.455   7.214   4.633
51105SOL    HW255149   7.505   7.356   4.613
51106SOL     OW55150  10.626  10.332   6.397
51106SOL    HW155151  10.569  10.257   6.411
51106SOL    HW255152  10.684  10.334   6.473
51107SOL     OW55153   0.245   2.490   2.954
51107SOL    HW155154   0.229   2.584   2.963
51107SOL    HW255155   0.158   2.452   2.943
51108SOL     OW55156  10.609   4.790   6.059
51108SOL    HW155157  10.700   4.806   6.084
51108SOL    HW255158  10.578   4.875   6.025
51109SOL     OW55159   0.875   7.839   4.578
51109SOL    HW155160   0.925   7.919   4.566
51109SOL    HW255161   0.815   7.837   4.503
51110SOL     OW55162   6.233  10.785  13.976
51110SOL    HW155163   6.291  10.765  13.903
51110SOL    HW255164   6.237  10.707  14.032
51111SOL     OW55165   7.656  12.803  12.355
51111SOL    HW155166   7.583  12.745  12.332
51111SOL    HW255167   7.723  12.786  12.289
51112SOL     OW55168   9.412   0.678  12.032
51112SOL    HW155169   9.397   0.768  12.004
51112SOL    HW255170   9.339   0.658  12.090
51113SOL     OW55171   5.629   9.156  10.336
51113SOL    HW155172   5.687   9.191  10.404
51113SOL    HW255173   5.601   9.071  10.370
51114SOL     OW55174   7.123   7.069  10.410
51114SOL    HW155175   7.116   7.095  10.318
51114SOL    HW255176   7.075   7.137  10.457
51115SOL     OW55177  10.486   5.643   8.030
51115SOL    HW155178  10.478   5.547   8.026
51115SOL    HW255179  10.488   5.671   7.939
51116SOL     OW55180  10.654   1.598   0.275
51116SOL    HW155181  10.625   1.687   0.254
51116SOL    HW255182  10.749   1.600   0.266
51117SOL     OW55183  12.931  14.593  11.969
51117SOL    HW155184  12.855  14.638  11.930
51117SOL    HW255185  12.993  14.585  11.897
51118SOL     OW55186   8.889  10.089   8.760
51118SOL    HW155187   8.818  10.143   8.794
51118SOL    HW255188   8.900  10.118   8.669
51119SOL     OW55189  10.896   3.526   2.701
51119SOL    HW155190  10.914   3.497   2.791
51119SOL    HW255191  10.880   3.445   2.653
51120SOL     OW55192   6.867  10.405   4.397
51120SOL    HW155193   6.853  10.311   4.399
51120SOL    HW255194   6.798  10.441   4.452
51121SOL     OW55195  13.565   7.564  14.378
51121SOL    HW155196  13.592   7.507  14.307
51121SOL    HW255197  13.481   7.600  14.350
51122SOL     OW55198  11.100   8.161  11.679
51122SOL    HW155199  11.177   8.105  11.668
51122SOL    HW255200  11.040   8.109  11.733
51123SOL     OW55201   4.204   2.920   2.701
51123SOL    HW155202   4.182   2.947   2.790
51123SOL    HW255203   4.276   2.979   2.676
51124SOL     OW55204   9.600   6.474   8.339
51124SOL    HW155205   9.555   6.520   8.411
51124SOL    HW255206   9.533   6.418   8.301
51125SOL     OW55207   3.737  11.205  12.049
51125SOL    HW155208   3.746  11.299  12.034
51125SOL    HW255209   3.821  11.168  12.020
51126SOL     OW55210   8.462   7.708   0.193
51126SOL    HW155211   8.523   7.723   0.264
51126SOL    HW255212   8.511   7.653   0.131
51127SOL     OW55213   3.686   2.232  12.335
51127SOL    HW155214   3.691   2.327  12.329
51127SOL    HW255215   3.775   2.205  12.359
51128SOL     OW55216  14.515   2.979   7.880
51128SOL    HW155217  14.554   3.063   7.857
51128SOL    HW255218  14.455   2.999   7.952
51129SOL     OW55219   2.432   2.658   2.259
51129SOL    HW155220   2.392   2.642   2.173
51129SOL    HW255221   2.358   2.658   2.320
51130SOL     OW55222  14.683   5.899   5.504
51130SOL    HW155223  14.733   5.936   5.576
51130SOL    HW255224  14.737   5.914   5.427
51131SOL     OW55225  13.898   6.262   4.688
51131SOL    HW155226  13.932   6.253   4.778
51131SOL    HW255227  13.857   6.178   4.670
51132SOL     OW55228  11.263  14.669   4.198
51132SOL    HW155229  11.231  14.595   4.249
51132SOL    HW255230  11.253  14.641   4.107
51133SOL     OW55231   1.275   0.121   9.655
51133SOL    HW155232   1.260   0.065   9.578
51133SOL    HW255233   1.368   0.142   9.652
51134SOL     OW55234  12.095   4.997   7.226
51134SOL    HW155235  12.013   4.953   7.201
51134SOL    HW255236  12.164   4.941   7.189
51135SOL     OW55237   5.454  11.935  12.428
51135SOL    HW155238   5.464  12.028  12.446
51135SOL    HW255239   5.495  11.891  12.502
51136SOL     OW55240   3.782   5.893   1.784
51136SOL    HW155241   3.798   5.798   1.784
51136SOL    HW255242   3.698   5.903   1.828
51137SOL     OW55243   5.541   5.928  12.790
51137SOL    HW155244   5.508   6.018  12.785
51137SOL    HW255245   5.634   5.938  12.809
51138SOL     OW55246   1.715   9.882   0.542
51138SOL    HW155247   1.742   9.791   0.550
51138SOL    HW255248   1.669   9.886   0.458
51139SOL     OW55249   8.620   4.018  14.385
51139SOL    HW155250   8.524   4.021  14.382
51139SOL    HW255251   8.641   3.993  14.475
51140SOL     OW55252  11.284   2.264   4.634
51140SOL    HW155253  11.290   2.339   4.574
51140SOL    HW255254  11.345   2.200   4.598
51141SOL     OW55255  13.863  11.164  13.024
51141SOL    HW155256  13.892  11.247  12.987
51141SOL    HW255257  13.936  11.134  13.077
51142SOL     OW55258   0.325  12.312  11.226
51142SOL    HW155259   0.282  12.392  11.198
51142SOL    HW255260   0.411  12.340  11.259
51143SOL     OW55261   9.554  11.991   0.161
51143SOL    HW155262   9.490  11.995   0.233
51143SOL    HW255263   9.502  12.010   0.083
51144SOL     OW55264   3.335  11.316   2.861
51144SOL    HW155265   3.241  11.335   2.864
51144SOL    HW255266   3.377  11.402   2.852
51145SOL     OW55267  14.793  12.922  12.584
51145SOL    HW155268  14.818  12.985  12.517
51145SOL    HW255269  14.840  12.842  12.561
51146SOL     OW55270   5.024  12.293  10.860
51146SOL    HW155271   5.066  12.355  10.919
51146SOL    HW255272   4.995  12.346  10.786
51147SOL     OW55273  14.518  12.226   4.384
51147SOL    HW155274  14.612  12.235   4.404
51147SOL    HW255275  14.510  12.135   4.354
51148SOL     OW55276   7.999   4.722   8.389
51148SOL    HW155277   8.019   4.662   8.460
51148SOL    HW255278   8.006   4.669   8.309
51149SOL     OW55279   6.110  10.721  11.979
51149SOL    HW155280   6.034  10.722  12.036
51149SOL    HW255281   6.091  10.788  11.913
51150SOL     OW55282  12.317   6.992   1.229
51150SOL    HW155283  12.235   6.961   1.268
51150SOL    HW255284  12.289   7.054   1.162
51151SOL     OW55285  12.052   7.931   3.786
51151SOL    HW155286  11.993   7.987   3.735
51151SOL    HW255287  12.135   7.934   3.739
51152SOL     OW55288   4.254   5.529   7.690
51152SOL    HW155289   4.271   5.556   7.600
51152SOL    HW255290   4.162   5.503   7.690
51153SOL     OW55291  10.472  14.827  13.619
51153SOL    HW155292  10.507   0.001  13.546
51153SOL    HW255293  10.482   0.004  13.696
51154SOL     OW55294   0.428  14.129   1.727
51154SOL    HW155295   0.351  14.135   1.784
51154SOL    HW255296   0.500  14.106   1.785
51155SOL     OW55297   1.430   1.658   1.067
51155SOL    HW155298   1.423   1.693   0.979
51155SOL    HW255299   1.364   1.705   1.118
51156SOL     OW55300  13.090  10.215   4.965
51156SOL    HW155301  13.003  10.246   4.988
51156SOL    HW255302  13.100  10.133   5.013
51157SOL     OW55303   6.077   1.714   8.354
51157SOL    HW155304   6.111   1.789   8.304
51157SOL    HW255305   6.148   1.692   8.414
51158SOL     OW55306   7.643  11.335   0.642
51158SOL    HW155307   7.592  11.396   0.589
51158SOL    HW255308   7.625  11.361   0.732
51159SOL     OW55309  12.638   2.116   8.160
51159SOL    HW155310  12.730   2.143   8.167
51159SOL    HW255311  12.618   2.125   8.067
51160SOL     OW55312  12.413   8.461  10.386
51160SOL    HW155313  12.347   8.525  10.412
51160SOL    HW255314  12.481   8.513  10.344
51161SOL     OW55315  12.110   7.434  11.536
51161SOL    HW155316  12.160   7.379  11.477
51161SOL    HW255317  12.037   7.379  11.565
51162SOL     OW55318   3.845   9.890   3.355
51162SOL    HW155319   3.924   9.874   3.407
51162SOL    HW255320   3.878   9.908   3.267
51163SOL     OW55321   2.887  13.051   9.482
51163SOL    HW155322   2.820  13.012   9.425
51163SOL    HW255323   2.920  12.977   9.534
51164SOL     OW55324   9.997  14.078  11.744
51164SOL    HW155325  10.068  14.028  11.783
51164SOL    HW255326   9.929  14.013  11.724
51165SOL     OW55327   3.730   2.619   2.169
51165SOL    HW155328   3.636   2.616   2.150
51165SOL    HW255329   3.769   2.659   2.091
51166SOL     OW55330  13.364   1.488   7.647
51166SOL    HW155331  13.340   1.478   7.555
51166SOL    HW255332  13.303   1.554   7.680
51167SOL     OW55333   3.301   8.205   1.549
51167SOL    HW155334   3.221   8.229   1.503
51167SOL    HW255335   3.371   8.217   1.484
51168SOL     OW55336   1.448   1.506  10.237
51168SOL    HW155337   1.409   1.419  10.248
51168SOL    HW255338   1.542   1.490  10.238
51169SOL     OW55339  11.157   0.450   4.560
51169SOL    HW155340  11.083   0.447   4.621
51169SOL    HW255341  11.228   0.405   4.605
51170SOL     OW55342   1.472   5.032   8.048
51170SOL    HW155343   1.557   5.017   8.089
51170SOL    HW255344   1.493   5.048   7.956
51171SOL     OW55345  11.670  12.564   2.923
51171SOL    HW155346  11.722  12.544   2.845
51171SOL    HW255347  11.692  12.655   2.943
51172SOL     OW55348   4.248  12.162   1.036
51172SOL    HW155349   4.253  12.067   1.050
51172SOL    HW255350   4.315  12.180   0.970
51173SOL     OW55351   4.361   9.786  10.896
51173SOL    HW155352   4.428   9.792  10.828
51173SOL    HW255353   4.279   9.802  10.850
51174SOL     OW55354   9.191   4.026   0.195
51174SOL    HW155355   9.240   4.018   0.276
51174SOL    HW255356   9.252   4.067   0.133
51175SOL     OW55357   3.098   6.846   7.344
51175SOL    HW155358   3.173   6.828   7.400
51175SOL    HW255359   3.132   6.838   7.255
51176SOL     OW55360   8.347  14.186  10.584
51176SOL    HW155361   8.252  14.185  10.579
51176SOL    HW255362   8.371  14.278  10.567
51177SOL     OW55363   7.469   3.162  10.567
51177SOL    HW155364   7.402   3.199  10.625
51177SOL    HW255365   7.434   3.076  10.542
51178SOL     OW55366  12.585   3.985   9.094
51178SOL    HW155367  12.581   3.955   9.185
51178SOL    HW255368  12.678   3.992   9.075
51179SOL     OW55369   9.815   2.942   2.502
51179SOL    HW155370   9.751   2.873   2.485
51179SOL    HW255371   9.899   2.897   2.502
51180SOL     OW55372  14.536   0.578   1.970
51180SOL    HW155373  14.489   0.504   2.009
51180SOL    HW255374  14.483   0.602   1.894
51181SOL     OW55375  11.401   3.324   4.446
51181SOL    HW155376  11.409   3.276   4.529
51181SOL    HW255377  11.318   3.293   4.408
51182SOL     OW55378   2.318  12.674   8.184
51182SOL    HW155379   2.341  12.738   8.251
51182SOL    HW255380   2.399  12.624   8.169
51183SOL     OW55381   5.822   1.536   7.549
51183SOL    HW155382   5.874   1.596   7.495
51183SOL    HW255383   5.826   1.452   7.503
51184SOL     OW55384  12.149   6.124  11.167
51184SOL    HW155385  12.243   6.107  11.158
51184SOL    HW255386  12.136   6.139  11.260
51185SOL     OW55387   2.117  11.233   2.052
51185SOL    HW155388   2.179  11.195   2.115
51185SOL    HW255389   2.085  11.158   2.003
51186SOL     OW55390  10.244   7.426  10.893
51186SOL    HW155391  10.189   7.429  10.971
51186SOL    HW255392  10.286   7.340  10.896
51187SOL     OW55393  11.329  13.472  12.890
51187SOL    HW155394  11.298  13.381  12.887
51187SOL    HW255395  11.256  13.523  12.854
51188SOL     OW55396   3.936  12.890   4.930
51188SOL    HW155397   3.957  12.932   5.014
51188SOL    HW255398   3.861  12.834   4.950
51189SOL     OW55399   2.836   8.013   5.143
51189SOL    HW155400   2.843   8.051   5.231
51189SOL    HW255401   2.796   8.081   5.090
51190SOL     OW55402   4.928   6.344  13.200
51190SOL    HW155403   4.867   6.361  13.271
51190SOL    HW255404   5.009   6.318  13.244
51191SOL     OW55405  11.895   6.485   3.781
51191SOL    HW155406  11.801   6.502   3.776
51191SOL    HW255407  11.929   6.521   3.699
51192SOL     OW55408   1.959   6.516   7.738
51192SOL    HW155409   1.932   6.493   7.827
51192SOL    HW255410   2.050   6.489   7.733
51193SOL     OW55411  11.069   4.836  14.585
51193SOL    HW155412  11.084   4.798  14.672
51193SOL    HW255413  11.144   4.807  14.533
51194SOL     OW55414   3.298   7.699  13.614
51194SOL    HW155415   3.288   7.763  13.544
51194SOL    HW255416   3.392   7.684  13.621
51195SOL     OW55417  14.785   7.978   0.350
51195SOL    HW155418  14.847   7.908   0.369
51195SOL    HW255419  14.708   7.933   0.313
51196SOL     OW55420   7.924   6.634   9.553
51196SOL    HW155421   7.938   6.707   9.492
51196SOL    HW255422   8.011   6.595   9.564
51197SOL     OW55423   6.873   3.365   7.709
51197SOL    HW155424   6.939   3.405   7.652
51197SOL    HW255425   6.838   3.292   7.658
51198SOL     OW55426   8.188  12.647   5.956
51198SOL    HW155427   8.228  12.573   5.910
51198SOL    HW255428   8.177  12.616   6.046
51199SOL     OW55429   1.242   6.981   2.734
51199SOL    HW155430   1.149   6.977   2.756
51199SOL    HW255431   1.247   6.950   2.643
51200SOL     OW55432  12.641  13.608  11.809
51200SOL    HW155433  12.591  13.669  11.755
51200SOL    HW255434  12.728  13.646  11.815
51201SOL     OW55435   8.213   0.456   3.230
51201SOL    HW155436   8.214   0.552   3.238
51201SOL    HW255437   8.123   0.432   3.252
51202SOL     OW55438   8.185  14.228  14.184
51202SOL    HW155439   8.118  14.267  14.128
51202SOL    HW255440   8.216  14.152  14.134
51203SOL     OW55441  13.198  10.306   0.343
51203SOL    HW155442  13.205  10.239   0.410
51203SOL    HW255443  13.125  10.361   0.372
51204SOL     OW55444  11.940  14.117   7.824
51204SOL    HW155445  11.903  14.123   7.736
51204SOL    HW255446  11.865  14.095   7.880
51205SOL     OW55447   5.291  13.460  10.063
51205SOL    HW155448   5.284  13.457  10.158
51205SOL    HW255449   5.316  13.371  10.038
51206SOL     OW55450   8.714   1.431   7.696
51206SOL    HW155451   8.804   1.461   7.712
51206SOL    HW255452   8.680   1.492   7.630
51207SOL     OW55453   8.050   5.739   2.880
51207SOL    HW155454   8.005   5.810   2.833
51207SOL    HW255455   8.027   5.754   2.972
51208SOL     OW55456   1.290  14.840   0.632
51208SOL    HW155457   1.245  14.755   0.638
51208SOL    HW255458   1.232   0.015   0.578
51209SOL     OW55459  10.625  13.163  12.330
51209SOL    HW155460  10.683  13.094  12.297
51209SOL    HW255461  10.685  13.234  12.354
51210SOL     OW55462   7.158   3.298  11.128
51210SOL    HW155463   7.188   3.234  11.193
51210SOL    HW255464   7.198   3.381  11.156
51211SOL     OW55465  13.908  14.759  11.615
51211SOL    HW155466  13.893  14.737  11.707
51211SOL    HW255467  13.830  14.809  11.589
51212SOL     OW55468   4.450   5.281  12.617
51212SOL    HW155469   4.534   5.324  12.631
51212SOL    HW255470   4.389   5.327  12.676
51213SOL     OW55471   5.528  14.139   3.806
51213SOL    HW155472   5.574  14.094   3.876
51213SOL    HW255473   5.456  14.081   3.783
51214SOL     OW55474  11.855  12.111   8.357
51214SOL    HW155475  11.775  12.161   8.373
51214SOL    HW255476  11.825  12.022   8.337
51215SOL     OW55477  11.539  12.284  12.017
51215SOL    HW155478  11.465  12.224  12.008
51215SOL    HW255479  11.501  12.371  12.003
51216SOL     OW55480   9.583   6.741  12.247
51216SOL    HW155481   9.578   6.785  12.162
51216SOL    HW255482   9.677   6.730  12.262
51217SOL     OW55483   0.106  14.828  14.653
51217SOL    HW155484   0.104   0.033  14.699
51217SOL    HW255485   0.160  14.771  14.709
51218SOL     OW55486  13.608   2.781   9.055
51218SOL    HW155487  13.610   2.842   8.982
51218SOL    HW255488  13.599   2.836   9.133
51219SOL     OW55489   2.987  11.795   4.272
51219SOL    HW155490   3.065  11.846   4.293
51219SOL    HW255491   2.994  11.717   4.327
51220SOL     OW55492   2.503  11.271   3.956
51220SOL    HW155493   2.478  11.327   4.030
51220SOL    HW255494   2.599  11.269   3.960
51221SOL     OW55495   2.043  13.664   7.738
51221SOL    HW155496   2.009  13.751   7.717
51221SOL    HW255497   2.128  13.660   7.693
51222SOL     OW55498   6.609   5.491  14.659
51222SOL    HW155499   6.635   5.551  14.589
51222SOL    HW255500   6.691   5.468  14.703
51223SOL     OW55501   4.764   6.416   0.855
51223SOL    HW155502   4.703   6.343   0.848
51223SOL    HW255503   4.844   6.377   0.891
51224SOL     OW55504   9.044  11.422   0.878
51224SOL    HW155505   8.972  11.467   0.835
51224SOL    HW255506   9.017  11.330   0.882
51225SOL     OW55507   9.745   8.147   0.726
51225SOL    HW155508   9.669   8.119   0.675
51225SOL    HW255509   9.802   8.190   0.663
51226SOL     OW55510  13.751  13.937   7.637
51226SOL    HW155511  13.655  13.942   7.637
51226SOL    HW255512  13.779  14.021   7.675
51227SOL     OW55513   5.671   1.229  10.230
51227SOL    HW155514   5.644   1.192  10.314
51227SOL    HW255515   5.598   1.210  10.171
51228SOL     OW55516   3.708   3.276   4.761
51228SOL    HW155517   3.795   3.239   4.749
51228SOL    HW255518   3.721   3.350   4.820
51229SOL     OW55519  12.253   1.464   3.027
51229SOL    HW155520  12.158   1.462   3.041
51229SOL    HW255521  12.290   1.431   3.109
51230SOL     OW55522   3.019   6.125  12.618
51230SOL    HW155523   3.073   6.099  12.543
51230SOL    HW255524   2.978   6.044  12.647
51231SOL     OW55525  10.503  14.141  13.319
51231SOL    HW155526  10.525  14.221  13.367
51231SOL    HW255527  10.440  14.168  13.253
51232SOL     OW55528   0.946  10.633  11.341
51232SOL    HW155529   0.937  10.543  11.308
51232SOL    HW255530   0.945  10.623  11.436
51233SOL     OW55531   4.777   5.199  10.783
51233SOL    HW155532   4.754   5.106  10.786
51233SOL    HW255533   4.789   5.223  10.875
51234SOL     OW55534   2.664   4.813   4.738
51234SOL    HW155535   2.748   4.782   4.704
51234SOL    HW255536   2.666   4.908   4.725
51235SOL     OW55537   0.297   5.157   1.069
51235SOL    HW155538   0.238   5.232   1.075
51235SOL    HW255539   0.383   5.196   1.052
51236SOL     OW55540   9.358   7.367   9.562
51236SOL    HW155541   9.446   7.402   9.549
51236SOL    HW255542   9.355   7.344   9.655
51237SOL     OW55543  10.779  12.269  11.584
51237SOL    HW155544  10.738  12.277  11.498
51237SOL    HW255545  10.872  12.281  11.568
51238SOL     OW55546   4.703  11.832   0.872
51238SOL    HW155547   4.689  11.918   0.911
51238SOL    HW255548   4.794  11.810   0.895
51239SOL     OW55549  14.093   0.443   2.308
51239SOL    HW155550  14.152   0.517   2.293
51239SOL    HW255551  14.020   0.456   2.248
51240SOL     OW55552  14.181  13.451   6.500
51240SOL    HW155553  14.213  13.412   6.419
51240SOL    HW255554  14.169  13.377   6.560
51241SOL     OW55555  10.246   9.621  10.529
51241SOL    HW155556  10.292   9.537  10.531
51241SOL    HW255557  10.268   9.659  10.444
51242SOL     OW55558   4.273   5.529   7.028
51242SOL    HW155559   4.238   5.448   6.992
51242SOL    HW255560   4.338   5.557   6.963
51243SOL     OW55561   8.968   8.431   4.912
51243SOL    HW155562   8.996   8.347   4.949
51243SOL    HW255563   8.975   8.420   4.818
51244SOL     OW55564   8.312   5.192  10.399
51244SOL    HW155565   8.305   5.149  10.484
51244SOL    HW255566   8.269   5.132  10.338
51245SOL     OW55567   2.309   5.046  13.205
51245SOL    HW155568   2.246   4.977  13.227
51245SOL    HW255569   2.286   5.118  13.263
51246SOL     OW55570   4.697   9.636  13.196
51246SOL    HW155571   4.677   9.551  13.157
51246SOL    HW255572   4.767   9.618  13.258
51247SOL     OW55573   3.034  11.707  12.889
51247SOL    HW155574   3.077  11.762  12.955
51247SOL    HW255575   2.954  11.676  12.932
51248SOL     OW55576   3.379   6.905   3.654
51248SOL    HW155577   3.391   7.000   3.654
51248SOL    HW255578   3.407   6.877   3.566
51249SOL     OW55579   9.652  11.460   5.973
51249SOL    HW155580   9.687  11.468   5.885
51249SOL    HW255581   9.688  11.536   6.020
51250SOL     OW55582   3.183   8.918  12.748
51250SOL    HW155583   3.158   8.827  12.735
51250SOL    HW255584   3.134   8.946  12.825
51251SOL     OW55585   4.533   5.391   8.501
51251SOL    HW155586   4.493   5.322   8.449
51251SOL    HW255587   4.535   5.357   8.590
51252SOL     OW55588  10.530   4.517  14.686
51252SOL    HW155589  10.512   4.427  14.715
51252SOL    HW255590  10.615   4.511  14.642
51253SOL     OW55591  12.500   2.041   3.407
51253SOL    HW155592  12.416   2.031   3.451
51253SOL    HW255593  12.479   2.087   3.325
51254SOL     OW55594  12.811   1.578   0.507
51254SOL    HW155595  12.756   1.653   0.529
51254SOL    HW255596  12.888   1.616   0.467
51255SOL     OW55597   2.771   5.111   4.837
51255SOL    HW155598   2.768   5.204   4.857
51255SOL    HW255599   2.854   5.081   4.873
51256SOL     OW55600   3.113   1.271  12.215
51256SOL    HW155601   3.031   1.321  12.219
51256SOL    HW255602   3.085   1.181  12.201
51257SOL     OW55603   0.484   5.568   8.255
51257SOL    HW155604   0.536   5.646   8.233
51257SOL    HW255605   0.508   5.549   8.345
51258SOL     OW55606   6.806  13.639   5.577
51258SOL    HW155607   6.839  13.724   5.549
51258SOL    HW255608   6.733  13.622   5.516
51259SOL     OW55609  11.977   8.042  14.299
51259SOL    HW155610  11.915   8.108  14.330
51259SOL    HW255611  12.047   8.043  14.364
51260SOL     OW55612  12.353   2.406   7.895
51260SOL    HW155613  12.295   2.330   7.898
51260SOL    HW255614  12.430   2.376   7.847
51261SOL     OW55615   1.485  10.735   4.425
51261SOL    HW155616   1.558  10.726   4.487
51261SOL    HW255617   1.521  10.707   4.341
51262SOL     OW55618  10.279   2.752  12.754
51262SOL    HW155619  10.310   2.661  12.756
51262SOL    HW255620  10.249   2.769  12.843
51263SOL     OW55621   9.652  10.927   3.940
51263SOL    HW155622   9.733  10.907   3.986
51263SOL    HW255623   9.619  10.842   3.910
51264SOL     OW55624   4.150   5.624   9.489
51264SOL    HW155625   4.157   5.529   9.482
51264SOL    HW255626   4.182   5.644   9.577
51265SOL     OW55627   2.746  12.303  13.588
51265SOL    HW155628   2.665  12.318  13.636
51265SOL    HW255629   2.734  12.218  13.546
51266SOL     OW55630   2.664   6.512  13.585
51266SOL    HW155631   2.732   6.513  13.517
51266SOL    HW255632   2.700   6.457  13.654
51267SOL     OW55633   4.488   6.659   1.296
51267SOL    HW155634   4.442   6.660   1.380
51267SOL    HW255635   4.474   6.747   1.260
51268SOL     OW55636  11.572  12.335   8.865
51268SOL    HW155637  11.513  12.406   8.891
51268SOL    HW255638  11.542  12.310   8.778
51269SOL     OW55639  10.253   0.121   2.628
51269SOL    HW155640  10.191   0.116   2.555
51269SOL    HW255641  10.277   0.030   2.645
51270SOL     OW55642  11.431  13.487   6.917
51270SOL    HW155643  11.419  13.581   6.901
51270SOL    HW255644  11.500  13.484   6.984
51271SOL     OW55645   6.089  13.806  12.636
51271SOL    HW155646   6.048  13.850  12.562
51271SOL    HW255647   6.179  13.837  12.636
51272SOL     OW55648   7.084  10.924   7.496
51272SOL    HW155649   7.102  10.885   7.582
51272SOL    HW255650   7.047  11.010   7.516
51273SOL     OW55651   0.564  10.833   8.985
51273SOL    HW155652   0.617  10.776   9.040
51273SOL    HW255653   0.527  10.898   9.045
51274SOL     OW55654   6.369   4.573   2.649
51274SOL    HW155655   6.385   4.612   2.563
51274SOL    HW255656   6.454   4.536   2.675
51275SOL     OW55657  11.600   2.053  13.486
51275SOL    HW155658  11.563   1.975  13.528
51275SOL    HW255659  11.570   2.126  13.539
51276SOL     OW55660   3.652   2.075  12.101
51276SOL    HW155661   3.666   2.116  12.187
51276SOL    HW255662   3.712   2.121  12.042
51277SOL     OW55663   5.053   6.108   0.770
51277SOL    HW155664   5.123   6.061   0.723
51277SOL    HW255665   5.077   6.201   0.760
51278SOL     OW55666   7.367   7.531  14.520
51278SOL    HW155667   7.340   7.542  14.611
51278SOL    HW255668   7.305   7.585  14.470
51279SOL     OW55669   9.598   4.055  10.271
51279SOL    HW155670   9.658   4.099  10.331
51279SOL    HW255671   9.539   4.124  10.241
51280SOL     OW55672   4.787   9.606  10.415
51280SOL    HW155673   4.859   9.662  10.387
51280SOL    HW255674   4.789   9.612  10.511
51281SOL     OW55675   6.789  12.996   7.594
51281SOL    HW155676   6.761  13.077   7.637
51281SOL    HW255677   6.786  13.016   7.501
51282SOL     OW55678   7.408   4.245   7.099
51282SOL    HW155679   7.500   4.266   7.114
51282SOL    HW255680   7.393   4.166   7.152
51283SOL     OW55681   0.057  10.110  12.636
51283SOL    HW155682   0.049  10.099  12.542
51283SOL    HW255683   0.066  10.021  12.671
51284SOL     OW55684   7.738   1.130  10.963
51284SOL    HW155685   7.774   1.179  10.888
51284SOL    HW255686   7.805   1.140  11.032
51285SOL     OW55687  10.342   5.138  13.926
51285SOL    HW155688  10.288   5.201  13.879
51285SOL    HW255689  10.430   5.173  13.921
51286SOL     OW55690  10.285   6.371   0.024
51286SOL    HW155691  10.260   6.279   0.027
51286SOL    HW255692  10.317   6.391   0.112
51287SOL     OW55693  13.737   1.050  12.258
51287SOL    HW155694  13.817   1.025  12.304
51287SOL    HW255695  13.765   1.115  12.194
51288SOL     OW55696   1.720   8.841  10.245
51288SOL    HW155697   1.628   8.831  10.222
51288SOL    HW255698   1.737   8.934  10.238
51289SOL     OW55699  14.622  10.556   9.056
51289SOL    HW155700  14.607  10.494   9.128
51289SOL    HW255701  14.558  10.625   9.070
51290SOL     OW55702   3.164  12.722   0.711
51290SOL    HW155703   3.162  12.808   0.669
51290SOL    HW255704   3.112  12.733   0.791
51291SOL     OW55705   7.601  13.786  12.801
51291SOL    HW155706   7.515  13.794  12.759
51291SOL    HW255707   7.618  13.692  12.803
51292SOL     OW55708  13.886   1.957  13.390
51292SOL    HW155709  13.957   1.892  13.394
51292SOL    HW255710  13.894   1.995  13.303
51293SOL     OW55711   4.665   7.331  14.347
51293SOL    HW155712   4.720   7.408  14.335
51293SOL    HW255713   4.588   7.348  14.292
51294SOL     OW55714   3.493  13.041   8.372
51294SOL    HW155715   3.526  13.091   8.298
51294SOL    HW255716   3.436  13.102   8.419
51295SOL     OW55717   5.829   2.519   0.443
51295SOL    HW155718   5.864   2.441   0.399
51295SOL    HW255719   5.761   2.485   0.501
51296SOL     OW55720   1.390  11.160   6.410
51296SOL    HW155721   1.472  11.162   6.461
51296SOL    HW255722   1.377  11.067   6.390
51297SOL     OW55723   6.800  13.271   5.459
51297SOL    HW155724   6.831  13.190   5.419
51297SOL    HW255725   6.880  13.320   5.479
51298SOL     OW55726   3.248  11.033  10.883
51298SOL    HW155727   3.284  10.966  10.825
51298SOL    HW255728   3.307  11.108  10.872
51299SOL     OW55729  10.933   8.177  10.475
51299SOL    HW155730  10.964   8.112  10.412
51299SOL    HW255731  10.852   8.211  10.438
51300SOL     OW55732   1.337  11.386   9.642
51300SOL    HW155733   1.333  11.478   9.669
51300SOL    HW255734   1.247  11.366   9.615
51301SOL     OW55735  11.981  10.035   5.766
51301SOL    HW155736  11.936  10.018   5.849
51301SOL    HW255737  11.953  10.123   5.741
51302SOL     OW55738   7.284   1.022   4.648
51302SOL    HW155739   7.306   1.088   4.583
51302SOL    HW255740   7.247   1.071   4.721
51303SOL     OW55741   9.400   5.683   7.699
51303SOL    HW155742   9.335   5.637   7.645
51303SOL    HW255743   9.470   5.706   7.638
51304SOL     OW55744   0.514   6.225  14.653
51304SOL    HW155745   0.445   6.219  14.719
51304SOL    HW255746   0.499   6.309  14.610
51305SOL     OW55747   5.411   1.316   6.523
51305SOL    HW155748   5.320   1.288   6.512
51305SOL    HW255749   5.405   1.412   6.528
51306SOL     OW55750   3.109   8.487   3.508
51306SOL    HW155751   3.049   8.539   3.453
51306SOL    HW255752   3.195   8.524   3.491
51307SOL     OW55753   6.063   1.051   1.268
51307SOL    HW155754   6.047   1.033   1.361
51307SOL    HW255755   5.978   1.081   1.235
51308SOL     OW55756   2.239   0.834  10.491
51308SOL    HW155757   2.195   0.843  10.576
51308SOL    HW255758   2.224   0.743  10.466
51309SOL     OW55759   6.464  11.989   4.386
51309SOL    HW155760   6.397  11.962   4.448
51309SOL    HW255761   6.496  12.073   4.421
51310SOL     OW55762   7.084   2.485  11.538
51310SOL    HW155763   7.100   2.579  11.542
51310SOL    HW255764   6.995   2.474  11.570
51311SOL     OW55765  11.230   9.257  11.805
51311SOL    HW155766  11.251   9.179  11.753
51311SOL    HW255767  11.268   9.239  11.891
51312SOL     OW55768   2.151   5.674   5.684
51312SOL    HW155769   2.059   5.657   5.705
51312SOL    HW255770   2.185   5.590   5.653
51313SOL     OW55771  14.326   7.758   6.305
51313SOL    HW155772  14.253   7.715   6.259
51313SOL    HW255773  14.326   7.847   6.271
51314SOL     OW55774   1.043   7.991   3.529
51314SOL    HW155775   1.030   7.904   3.569
51314SOL    HW255776   0.960   8.036   3.543
51315SOL     OW55777   7.785   6.443   4.277
51315SOL    HW155778   7.792   6.534   4.305
51315SOL    HW255779   7.702   6.439   4.230
51316SOL     OW55780   2.193   7.463  10.261
51316SOL    HW155781   2.204   7.445  10.355
51316SOL    HW255782   2.146   7.546  10.259
51317SOL     OW55783  12.493  13.509   8.400
51317SOL    HW155784  12.494  13.438   8.336
51317SOL    HW255785  12.411  13.497   8.448
51318SOL     OW55786  10.695  13.320   2.562
51318SOL    HW155787  10.627  13.281   2.507
51318SOL    HW255788  10.771  13.264   2.549
51319SOL     OW55789   2.072   2.524   3.182
51319SOL    HW155790   2.137   2.461   3.212
51319SOL    HW255791   2.019   2.543   3.260
51320SOL     OW55792  13.091   0.615  12.700
51320SOL    HW155793  13.097   0.525  12.731
51320SOL    HW255794  13.004   0.644  12.726
51321SOL     OW55795   1.824   2.788  12.829
51321SOL    HW155796   1.904   2.737  12.845
51321SOL    HW255797   1.855   2.870  12.792
51322SOL     OW55798   9.182   3.629   2.094
51322SOL    HW155799   9.153   3.585   2.174
51322SOL    HW255800   9.277   3.616   2.091
51323SOL     OW55801   7.012   9.741  11.208
51323SOL    HW155802   6.959   9.819  11.225
51323SOL    HW255803   7.042   9.714  11.294
51324SOL     OW55804   1.520  12.705   5.353
51324SOL    HW155805   1.447  12.704   5.416
51324SOL    HW255806   1.509  12.787   5.305
51325SOL     OW55807  11.274   3.126   5.145
51325SOL    HW155808  11.242   3.216   5.137
51325SOL    HW255809  11.258   3.102   5.236
51326SOL     OW55810   2.613  12.357   2.000
51326SOL    HW155811   2.584  12.286   2.057
51326SOL    HW255812   2.694  12.389   2.040
51327SOL     OW55813   3.671  14.021  13.037
51327SOL    HW155814   3.732  14.042  12.967
51327SOL    HW255815   3.649  13.929  13.024
51328SOL     OW55816  11.592   4.904   8.884
51328SOL    HW155817  11.563   4.821   8.848
51328SOL    HW255818  11.512   4.956   8.892
51329SOL     OW55819   8.209   1.454   2.486
51329SOL    HW155820   8.222   1.404   2.567
51329SOL    HW255821   8.189   1.543   2.516
51330SOL     OW55822   4.886   9.444  12.994
51330SOL    HW155823   4.854   9.527  12.959
51330SOL    HW255824   4.944   9.409  12.926
51331SOL     OW55825  11.321   6.545   5.248
51331SOL    HW155826  11.295   6.522   5.337
51331SOL    HW255827  11.271   6.624   5.228
51332SOL     OW55828   8.227  10.904  11.620
51332SOL    HW155829   8.303  10.933  11.569
51332SOL    HW255830   8.158  10.966  11.597
51333SOL     OW55831   6.557   0.132   9.094
51333SOL    HW155832   6.468   0.134   9.058
51333SOL    HW255833   6.607   0.189   9.036
51334SOL     OW55834  12.921   7.456   6.402
51334SOL    HW155835  12.872   7.533   6.373
51334SOL    HW255836  12.899   7.388   6.339
51335SOL     OW55837   6.397  14.280   0.383
51335SOL    HW155838   6.334  14.346   0.355
51335SOL    HW255839   6.463  14.329   0.432
51336SOL     OW55840  11.594   5.413   7.562
51336SOL    HW155841  11.614   5.486   7.621
51336SOL    HW255842  11.552   5.454   7.486
51337SOL     OW55843   9.998   2.978   6.623
51337SOL    HW155844   9.920   2.982   6.567
51337SOL    HW255845   9.989   2.894   6.669
51338SOL     OW55846   0.556   5.381   0.223
51338SOL    HW155847   0.469   5.349   0.198
51338SOL    HW255848   0.616   5.318   0.184
51339SOL     OW55849   6.975   4.528  10.001
51339SOL    HW155850   6.894   4.477  10.004
51339SOL    HW255851   7.008   4.514   9.912
51340SOL     OW55852   3.000   6.122   8.240
51340SOL    HW155853   3.069   6.088   8.297
51340SOL    HW255854   3.032   6.207   8.212
51341SOL     OW55855   1.141   6.307  12.469
51341SOL    HW155856   1.144   6.360  12.389
51341SOL    HW255857   1.080   6.236  12.448
51342SOL     OW55858   2.459  13.749   8.140
51342SOL    HW155859   2.529  13.812   8.157
51342SOL    HW255860   2.499  13.683   8.084
51343SOL     OW55861   8.878   2.844   1.193
51343SOL    HW155862   8.842   2.904   1.127
51343SOL    HW255863   8.880   2.897   1.273
51344SOL     OW55864  11.670   2.346   5.796
51344SOL    HW155865  11.606   2.276   5.805
51344SOL    HW255866  11.753   2.307   5.825
51345SOL     OW55867   8.846   0.800   5.765
51345SOL    HW155868   8.751   0.797   5.757
51345SOL    HW255869   8.878   0.787   5.675
51346SOL     OW55870   4.978   9.640  11.865
51346SOL    HW155871   5.022   9.578  11.923
51346SOL    HW255872   5.024   9.631  11.781
51347SOL     OW55873   2.298   5.633   8.562
51347SOL    HW155874   2.325   5.665   8.649
51347SOL    HW255875   2.381   5.624   8.514
51348SOL     OW55876   0.404   8.730   3.568
51348SOL    HW155877   0.415   8.671   3.494
51348SOL    HW255878   0.493   8.750   3.597
51349SOL     OW55879  14.226   9.282   5.831
51349SOL    HW155880  14.226   9.250   5.921
51349SOL    HW255881  14.259   9.372   5.837
51350SOL     OW55882   7.286  10.262  14.798
51350SOL    HW155883   7.359  10.205  14.824
51350SOL    HW255884   7.293  10.266  14.702
51351SOL     OW55885  13.529   8.007  13.549
51351SOL    HW155886  13.598   8.016  13.615
51351SOL    HW255887  13.460   7.957  13.594
51352SOL     OW55888   7.474  12.626  12.688
51352SOL    HW155889   7.518  12.711  12.694
51352SOL    HW255890   7.488  12.598  12.598
51353SOL     OW55891  13.805   7.680   7.495
51353SOL    HW155892  13.738   7.614   7.476
51353SOL    HW255893  13.820   7.672   7.589
51354SOL     OW55894   3.004  11.742  13.831
51354SOL    HW155895   3.099  11.742  13.834
51354SOL    HW255896   2.977  11.787  13.911
51355SOL     OW55897   2.125   3.665  11.921
51355SOL    HW155898   2.035   3.698  11.926
51355SOL    HW255899   2.178   3.743  11.908
51356SOL     OW55900  13.951  12.949   9.788
51356SOL    HW155901  13.964  12.902   9.705
51356SOL    HW255902  14.036  12.991   9.804
51357SOL     OW55903  14.122   6.753   4.282
51357SOL    HW155904  14.155   6.664   4.268
51357SOL    HW255905  14.054   6.742   4.349
51358SOL     OW55906  10.298   2.752   5.009
51358SOL    HW155907  10.362   2.686   5.031
51358SOL    HW255908  10.324   2.829   5.059
51359SOL     OW55909   4.983  13.365  11.037
51359SOL    HW155910   5.052  13.429  11.051
51359SOL    HW255911   4.904  13.405  11.073
51360SOL     OW55912   5.732   6.937  10.155
51360SOL    HW155913   5.752   6.850  10.119
51360SOL    HW255914   5.733   6.924  10.250
51361SOL     OW55915  13.735  10.262   5.694
51361SOL    HW155916  13.672  10.204   5.735
51361SOL    HW255917  13.702  10.350   5.713
51362SOL     OW55918  11.154   4.089   7.292
51362SOL    HW155919  11.120   4.008   7.254
51362SOL    HW255920  11.192   4.061   7.376
51363SOL     OW55921   5.399  13.020   7.756
51363SOL    HW155922   5.439  12.938   7.785
51363SOL    HW255923   5.359  12.998   7.672
51364SOL     OW55924   7.437  11.830   2.001
51364SOL    HW155925   7.490  11.813   1.923
51364SOL    HW255926   7.369  11.891   1.972
51365SOL     OW55927  12.348   8.051   4.477
51365SOL    HW155928  12.318   7.994   4.406
51365SOL    HW255929  12.430   8.088   4.444
51366SOL     OW55930   4.047   7.921   1.291
51366SOL    HW155931   4.027   7.842   1.240
51366SOL    HW255932   4.080   7.983   1.227
51367SOL     OW55933  14.521   6.056   0.624
51367SOL    HW155934  14.548   5.968   0.651
51367SOL    HW255935  14.602   6.098   0.595
51368SOL     OW55936   7.035  10.561   5.252
51368SOL    HW155937   6.969  10.623   5.282
51368SOL    HW255938   6.999  10.475   5.277
51369SOL     OW55939   6.702  11.147   9.610
51369SOL    HW155940   6.698  11.207   9.685
51369SOL    HW255941   6.615  11.153   9.570
51370SOL     OW55942  13.331  12.696   9.259
51370SOL    HW155943  13.300  12.624   9.204
51370SOL    HW255944  13.341  12.657   9.346
51371SOL     OW55945  12.239  14.267  10.392
51371SOL    HW155946  12.223  14.211  10.316
51371SOL    HW255947  12.170  14.245  10.453
51372SOL     OW55948   9.028  10.156  13.980
51372SOL    HW155949   9.074  10.075  14.003
51372SOL    HW255950   9.038  10.162  13.885
51373SOL     OW55951  12.591   2.004   7.096
51373SOL    HW155952  12.576   2.076   7.035
51373SOL    HW255953  12.553   1.927   7.053
51374SOL     OW55954  13.090   7.636   8.954
51374SOL    HW155955  13.168   7.665   8.906
51374SOL    HW255956  13.041   7.717   8.970
51375SOL     OW55957   7.161   5.655   4.520
51375SOL    HW155958   7.171   5.592   4.448
51375SOL    HW255959   7.135   5.601   4.595
51376SOL     OW55960  12.371   7.873   3.249
51376SOL    HW155961  12.352   7.860   3.156
51376SOL    HW255962  12.285   7.885   3.290
51377SOL     OW55963   2.246  12.929   4.040
51377SOL    HW155964   2.303  12.855   4.021
51377SOL    HW255965   2.305  13.003   4.052
51378SOL     OW55966   9.807   3.056  10.314
51378SOL    HW155967   9.715   3.078  10.299
51378SOL    HW255968   9.856   3.115  10.256
51379SOL     OW55969   5.168   8.872   1.619
51379SOL    HW155970   5.119   8.955   1.617
51379SOL    HW255971   5.141   8.831   1.701
51380SOL     OW55972   0.373   0.792   2.459
51380SOL    HW155973   0.293   0.793   2.407
51380SOL    HW255974   0.350   0.745   2.539
51381SOL     OW55975  10.405  14.780  14.451
51381SOL    HW155976  10.438  14.776  14.541
51381SOL    HW255977  10.482  14.767  14.396
51382SOL     OW55978   0.184  12.083  11.331
51382SOL    HW155979   0.264  12.032  11.343
51382SOL    HW255980   0.213  12.172  11.313
51383SOL     OW55981   3.967   5.512  12.735
51383SOL    HW155982   3.964   5.579  12.667
51383SOL    HW255983   3.927   5.554  12.811
51384SOL     OW55984   6.960   6.640   7.241
51384SOL    HW155985   6.921   6.713   7.194
51384SOL    HW255986   6.890   6.576   7.250
51385SOL     OW55987   8.719   7.798  13.015
51385SOL    HW155988   8.695   7.849  13.092
51385SOL    HW255989   8.637   7.785  12.967
51386SOL     OW55990   8.980  11.026   0.321
51386SOL    HW155991   8.889  11.043   0.344
51386SOL    HW255992   9.027  11.104   0.350
51387SOL     OW55993   5.441   9.473   9.298
51387SOL    HW155994   5.364   9.512   9.338
51387SOL    HW255995   5.508   9.477   9.367
51388SOL     OW55996  13.398   4.635   7.316
51388SOL    HW155997  13.372   4.602   7.402
51388SOL    HW255998  13.461   4.571   7.283
51389SOL     OW55999   3.001  14.322   6.303
51389SOL    HW156000   3.069  14.356   6.361
51389SOL    HW256001   3.040  14.326   6.215
51390SOL     OW56002   8.664  12.190  11.771
51390SOL    HW156003   8.628  12.264  11.722
51390SOL    HW256004   8.759  12.203  11.767
51391SOL     OW56005   9.490   1.633   8.405
51391SOL    HW156006   9.513   1.649   8.497
51391SOL    HW256007   9.473   1.720   8.369
51392SOL     OW56008  11.265  12.959  11.324
51392SOL    HW156009  11.361  12.958  11.334
51392SOL    HW256010  11.245  13.047  11.294
51393SOL     OW56011  10.052  10.445   2.049
51393SOL    HW156012  10.100  10.479   2.124
51393SOL    HW256013  10.096  10.484   1.973
51394SOL     OW56014  14.850   3.168  11.389
51394SOL    HW156015  14.832   3.154  11.296
51394SOL    HW256016   0.042   3.107  11.410
51395SOL     OW56017   6.030  10.485   3.376
51395SOL    HW156018   5.940  10.484   3.410
51395SOL    HW256019   6.084  10.458   3.451
51396SOL     OW56020  11.999   3.462  11.953
51396SOL    HW156021  12.034   3.506  12.031
51396SOL    HW256022  12.072   3.462  11.891
51397SOL     OW56023   4.980  13.021  14.760
51397SOL    HW156024   5.016  12.936  14.733
51397SOL    HW256025   4.935  13.002  14.842
51398SOL     OW56026   0.609   6.300   4.831
51398SOL    HW156027   0.589   6.371   4.770
51398SOL    HW256028   0.527   6.286   4.878
51399SOL     OW56029   5.325  12.127   4.158
51399SOL    HW156030   5.233  12.131   4.134
51399SOL    HW256031   5.370  12.176   4.089
51400SOL     OW56032  14.616   6.368   0.920
51400SOL    HW156033  14.541   6.315   0.893
51400SOL    HW256034  14.632   6.427   0.846
51401SOL     OW56035   3.582   9.020   6.805
51401SOL    HW156036   3.643   9.016   6.731
51401SOL    HW256037   3.620   9.085   6.864
51402SOL     OW56038   7.629   0.490   4.293
51402SOL    HW156039   7.663   0.402   4.276
51402SOL    HW256040   7.535   0.483   4.278
51403SOL     OW56041   5.620   2.287  14.584
51403SOL    HW156042   5.686   2.269  14.652
51403SOL    HW256043   5.567   2.208  14.580
51404SOL     OW56044  12.172  10.347   4.146
51404SOL    HW156045  12.233  10.274   4.158
51404SOL    HW256046  12.179  10.397   4.227
51405SOL     OW56047   8.201   2.615   5.395
51405SOL    HW156048   8.286   2.609   5.351
51405SOL    HW256049   8.179   2.525   5.417
51406SOL     OW56050   0.250   3.827   5.988
51406SOL    HW156051   0.340   3.814   6.018
51406SOL    HW256052   0.199   3.837   6.068
51407SOL     OW56053   8.661   5.300   5.887
51407SOL    HW156054   8.670   5.319   5.981
51407SOL    HW256055   8.749   5.273   5.861
51408SOL     OW56056   9.178  12.118   3.657
51408SOL    HW156057   9.085  12.095   3.654
51408SOL    HW256058   9.191  12.149   3.747
51409SOL     OW56059   8.603  11.006   8.707
51409SOL    HW156060   8.511  10.978   8.711
51409SOL    HW256061   8.652  10.925   8.693
51410SOL     OW56062   5.598   0.032   2.687
51410SOL    HW156063   5.516   0.026   2.639
51410SOL    HW256064   5.653   0.089   2.632
51411SOL     OW56065   7.821   7.772   5.128
51411SOL    HW156066   7.872   7.852   5.114
51411SOL    HW256067   7.766   7.792   5.204
51412SOL     OW56068   9.552   2.473   7.698
51412SOL    HW156069   9.510   2.435   7.621
51412SOL    HW256070   9.591   2.555   7.666
51413SOL     OW56071   0.697   0.562  11.142
51413SOL    HW156072   0.741   0.536  11.061
51413SOL    HW256073   0.621   0.504  11.148
51414SOL     OW56074   7.398   6.504   2.054
51414SOL    HW156075   7.417   6.592   2.023
51414SOL    HW256076   7.436   6.446   1.988
51415SOL     OW56077   2.605   7.979   8.848
51415SOL    HW156078   2.587   8.072   8.864
51415SOL    HW256079   2.651   7.978   8.764
51416SOL     OW56080   1.697   7.153   7.699
51416SOL    HW156081   1.749   7.073   7.706
51416SOL    HW256082   1.656   7.147   7.613
51417SOL     OW56083  12.275   4.819  12.494
51417SOL    HW156084  12.220   4.861  12.427
51417SOL    HW256085  12.340   4.885  12.517
51418SOL     OW56086   3.307   1.834   8.063
51418SOL    HW156087   3.246   1.902   8.089
51418SOL    HW256088   3.292   1.823   7.970
51419SOL     OW56089   6.705  11.120   3.373
51419SOL    HW156090   6.701  11.129   3.469
51419SOL    HW256091   6.646  11.047   3.353
51420SOL     OW56092  11.990   9.845   5.319
51420SOL    HW156093  12.037   9.793   5.254
51420SOL    HW256094  12.024   9.814   5.403
51421SOL     OW56095   0.702  14.292   3.938
51421SOL    HW156096   0.674  14.217   3.991
51421SOL    HW256097   0.670  14.273   3.850
51422SOL     OW56098   3.621   5.933   2.075
51422SOL    HW156099   3.533   5.899   2.092
51422SOL    HW256100   3.678   5.876   2.126
51423SOL     OW56101   9.984  14.270   8.322
51423SOL    HW156102   9.980  14.326   8.400
51423SOL    HW256103   9.927  14.313   8.258
51424SOL     OW56104   1.266  13.678   6.498
51424SOL    HW156105   1.283  13.772   6.506
51424SOL    HW256106   1.182  13.672   6.452
51425SOL     OW56107   1.247   8.756   0.223
51425SOL    HW156108   1.238   8.705   0.304
51425SOL    HW256109   1.157   8.785   0.204
51426SOL     OW56110   0.383  10.419  10.498
51426SOL    HW156111   0.440  10.408  10.421
51426SOL    HW256112   0.359  10.511  10.497
51427SOL     OW56113   2.822   8.873   2.115
51427SOL    HW156114   2.908   8.845   2.143
51427SOL    HW256115   2.784   8.917   2.192
51428SOL     OW56116   7.537   4.833   0.454
51428SOL    HW156117   7.533   4.742   0.482
51428SOL    HW256118   7.631   4.850   0.443
51429SOL     OW56119  13.982  10.918  14.067
51429SOL    HW156120  14.035  10.858  14.016
51429SOL    HW256121  13.905  10.867  14.093
51430SOL     OW56122   1.927   4.186   3.123
51430SOL    HW156123   1.861   4.153   3.062
51430SOL    HW256124   1.950   4.111   3.176
51431SOL     OW56125   8.562  11.251  12.983
51431SOL    HW156126   8.597  11.219  13.066
51431SOL    HW256127   8.631  11.233  12.919
51432SOL     OW56128   8.111   2.670   3.494
51432SOL    HW156129   8.179   2.685   3.429
51432SOL    HW256130   8.098   2.575   3.493
51433SOL     OW56131   3.675  10.313  10.510
51433SOL    HW156132   3.669  10.218  10.508
51433SOL    HW256133   3.585  10.344  10.512
51434SOL     OW56134   6.876   0.450   7.505
51434SOL    HW156135   6.810   0.425   7.441
51434SOL    HW256136   6.947   0.489   7.454
51435SOL     OW56137  11.637   4.775  12.814
51435SOL    HW156138  11.722   4.735  12.794
51435SOL    HW256139  11.590   4.772  12.731
51436SOL     OW56140   6.342  14.160   1.448
51436SOL    HW156141   6.258  14.115   1.435
51436SOL    HW256142   6.353  14.213   1.370
51437SOL     OW56143   6.744  12.341   8.408
51437SOL    HW156144   6.769  12.374   8.494
51437SOL    HW256145   6.667  12.392   8.384
51438SOL     OW56146   6.450   9.779  14.460
51438SOL    HW156147   6.393   9.713  14.421
51438SOL    HW256148   6.421   9.784  14.551
51439SOL     OW56149  12.109   6.305   1.902
51439SOL    HW156150  12.111   6.386   1.851
51439SOL    HW256151  12.197   6.297   1.938
51440SOL     OW56152   2.340   7.579   7.172
51440SOL    HW156153   2.283   7.572   7.095
51440SOL    HW256154   2.373   7.669   7.169
51441SOL     OW56155   6.144  11.583   4.562
51441SOL    HW156156   6.093  11.629   4.629
51441SOL    HW256157   6.078  11.537   4.509
51442SOL     OW56158   3.647  13.330   5.335
51442SOL    HW156159   3.727  13.329   5.387
51442SOL    HW256160   3.654  13.410   5.282
51443SOL     OW56161   0.412   7.398  12.699
51443SOL    HW156162   0.389   7.416  12.608
51443SOL    HW256163   0.354   7.454  12.750
51444SOL     OW56164   2.716   1.302   4.757
51444SOL    HW156165   2.807   1.295   4.786
51444SOL    HW256166   2.671   1.230   4.802
51445SOL     OW56167  13.767  11.730   9.920
51445SOL    HW156168  13.850  11.731   9.871
51445SOL    HW256169  13.703  11.697   9.858
51446SOL     OW56170   2.781   7.625   7.901
51446SOL    HW156171   2.840   7.673   7.959
51446SOL    HW256172   2.766   7.684   7.828
51447SOL     OW56173   1.746   1.345  14.007
51447SOL    HW156174   1.758   1.363  14.101
51447SOL    HW256175   1.834   1.323  13.976
51448SOL     OW56176  11.881   6.310   5.199
51448SOL    HW156177  11.882   6.237   5.260
51448SOL    HW256178  11.789   6.320   5.173
51449SOL     OW56179   9.328   3.439   6.025
51449SOL    HW156180   9.235   3.451   6.042
51449SOL    HW256181   9.359   3.387   6.100
51450SOL     OW56182   3.435   6.041   7.792
51450SOL    HW156183   3.401   5.984   7.722
51450SOL    HW256184   3.458   6.123   7.747
51451SOL     OW56185   8.679  14.606   2.967
51451SOL    HW156186   8.672  14.605   3.063
51451SOL    HW256187   8.698  14.697   2.945
51452SOL     OW56188   1.439   3.297  14.287
51452SOL    HW156189   1.377   3.301  14.359
51452SOL    HW256190   1.386   3.281  14.209
51453SOL     OW56191   9.659   0.636   8.425
51453SOL    HW156192   9.631   0.631   8.334
51453SOL    HW256193   9.723   0.707   8.426
51454SOL     OW56194   5.254  11.643   1.260
51454SOL    HW156195   5.261  11.738   1.247
51454SOL    HW256196   5.187  11.634   1.328
51455SOL     OW56197   1.907   3.036   6.990
51455SOL    HW156198   1.865   2.952   6.973
51455SOL    HW256199   1.976   3.015   7.054
51456SOL     OW56200   4.861  12.876  14.216
51456SOL    HW156201   4.891  12.907  14.302
51456SOL    HW256202   4.845  12.782  14.229
51457SOL     OW56203  10.531   0.063  13.374
51457SOL    HW156204  10.458   0.065  13.313
51457SOL    HW256205  10.598   0.118  13.334
51458SOL     OW56206   6.925  10.444   8.111
51458SOL    HW156207   6.926  10.365   8.056
51458SOL    HW256208   7.006  10.439   8.162
51459SOL     OW56209   4.791   0.315   2.886
51459SOL    HW156210   4.731   0.263   2.834
51459SOL    HW256211   4.837   0.252   2.941
51460SOL     OW56212   3.470   8.974   8.568
51460SOL    HW156213   3.560   8.991   8.541
51460SOL    HW256214   3.417   9.021   8.503
51461SOL     OW56215   1.481   4.482   2.138
51461SOL    HW156216   1.387   4.500   2.149
51461SOL    HW256217   1.509   4.544   2.071
51462SOL     OW56218  13.536  13.207  14.571
51462SOL    HW156219  13.587  13.126  14.573
51462SOL    HW256220  13.589  13.267  14.519
51463SOL     OW56221   9.501  12.539  12.862
51463SOL    HW156222   9.472  12.542  12.771
51463SOL    HW256223   9.531  12.449  12.875
51464SOL     OW56224   4.206  14.650  14.773
51464SOL    HW156225   4.120  14.609  14.776
51464SOL    HW256226   4.244  14.619  14.691
51465SOL     OW56227   6.604   9.871   2.490
51465SOL    HW156228   6.567   9.918   2.565
51465SOL    HW256229   6.618   9.782   2.522
51466SOL     OW56230   7.079  10.663   2.492
51466SOL    HW156231   6.991  10.692   2.468
51466SOL    HW256232   7.068  10.618   2.575
51467SOL     OW56233   1.091   2.619   4.395
51467SOL    HW156234   1.144   2.584   4.467
51467SOL    HW256235   1.153   2.640   4.326
51468SOL     OW56236   0.159   9.114   6.296
51468SOL    HW156237   0.209   9.035   6.275
51468SOL    HW256238   0.130   9.147   6.212
51469SOL     OW56239   4.491  11.328   0.034
51469SOL    HW156240   4.558  11.387  14.879
51469SOL    HW256241   4.408  11.373   0.018
51470SOL     OW56242   2.686   2.658   1.964
51470SOL    HW156243   2.599   2.679   1.931
51470SOL    HW256244   2.733   2.741   1.962
51471SOL     OW56245   0.747   8.651   3.217
51471SOL    HW156246   0.654   8.669   3.229
51471SOL    HW256247   0.784   8.659   3.305
51472SOL     OW56248  13.114   7.587   4.929
51472SOL    HW156249  13.023   7.613   4.943
51472SOL    HW256250  13.118   7.496   4.957
51473SOL     OW56251  14.381  13.562   9.600
51473SOL    HW156252  14.467  13.587   9.634
51473SOL    HW256253  14.368  13.472   9.633
51474SOL     OW56254  11.136  11.055  14.212
51474SOL    HW156255  11.048  11.093  14.216
51474SOL    HW256256  11.131  10.991  14.141
51475SOL     OW56257   4.183   8.161  12.601
51475SOL    HW156258   4.195   8.095  12.670
51475SOL    HW256259   4.091   8.186  12.608
51476SOL     OW56260   7.066   7.493   9.551
51476SOL    HW156261   7.067   7.534   9.464
51476SOL    HW256262   7.123   7.417   9.542
51477SOL     OW56263  12.159   9.513  12.782
51477SOL    HW156264  12.246   9.551  12.773
51477SOL    HW256265  12.149   9.459  12.704
51478SOL     OW56266  12.355   2.356   3.691
51478SOL    HW156267  12.268   2.331   3.661
51478SOL    HW256268  12.348   2.450   3.708
51479SOL     OW56269   3.528  12.708  12.239
51479SOL    HW156270   3.444  12.663  12.243
51479SOL    HW256271   3.577  12.674  12.314
51480SOL     OW56272   6.536   7.065   9.329
51480SOL    HW156273   6.463   7.094   9.383
51480SOL    HW256274   6.613   7.077   9.384
51481SOL     OW56275  12.417   4.239   9.122
51481SOL    HW156276  12.481   4.168   9.127
51481SOL    HW256277  12.365   4.229   9.202
51482SOL     OW56278   8.279   0.175   2.548
51482SOL    HW156279   8.305   0.150   2.637
51482SOL    HW256280   8.329   0.117   2.491
51483SOL     OW56281   9.845   9.776   3.462
51483SOL    HW156282   9.791   9.816   3.393
51483SOL    HW256283   9.791   9.782   3.541
51484SOL     OW56284   3.251   0.580   8.294
51484SOL    HW156285   3.295   0.535   8.365
51484SOL    HW256286   3.257   0.673   8.316
51485SOL     OW56287  10.790   9.014  13.810
51485SOL    HW156288  10.788   8.919  13.807
51485SOL    HW256289  10.698   9.039  13.825
51486SOL     OW56290  11.317  12.444   7.598
51486SOL    HW156291  11.310  12.385   7.523
51486SOL    HW256292  11.350  12.389   7.669
51487SOL     OW56293   5.559   0.613  10.539
51487SOL    HW156294   5.520   0.564  10.466
51487SOL    HW256295   5.641   0.566  10.556
51488SOL     OW56296   8.970  12.545  10.800
51488SOL    HW156297   8.898  12.494  10.763
51488SOL    HW256298   8.958  12.539  10.895
51489SOL     OW56299   1.132   6.785  13.494
51489SOL    HW156300   1.041   6.770  13.522
51489SOL    HW256301   1.183   6.777  13.574
51490SOL     OW56302  14.609   0.331   7.970
51490SOL    HW156303  14.620   0.274   7.893
51490SOL    HW256304  14.661   0.289   8.038
51491SOL     OW56305   8.880   3.111  10.823
51491SOL    HW156306   8.796   3.080  10.856
51491SOL    HW256307   8.858   3.188  10.770
51492SOL     OW56308  13.808  12.507   2.753
51492SOL    HW156309  13.802  12.577   2.689
51492SOL    HW256310  13.830  12.551   2.835
51493SOL     OW56311   6.416  12.639   7.163
51493SOL    HW156312   6.358  12.563   7.173
51493SOL    HW256313   6.496  12.615   7.210
51494SOL     OW56314  12.385   8.576   3.190
51494SOL    HW156315  12.341   8.647   3.142
51494SOL    HW256316  12.425   8.522   3.122
51495SOL     OW56317   9.753   9.793   3.907
51495SOL    HW156318   9.715   9.710   3.934
51495SOL    HW256319   9.739   9.851   3.981
51496SOL     OW56320   0.549   1.049   6.400
51496SOL    HW156321   0.604   1.051   6.322
51496SOL    HW256322   0.564   1.135   6.441
51497SOL     OW56323   9.754  14.179   9.870
51497SOL    HW156324   9.698  14.114   9.827
51497SOL    HW256325   9.722  14.263   9.836
51498SOL     OW56326  14.446  11.693   6.698
51498SOL    HW156327  14.507  11.714   6.769
51498SOL    HW256328  14.410  11.777   6.670
51499SOL     OW56329   9.009   6.129   5.177
51499SOL    HW156330   8.993   6.056   5.119
51499SOL    HW256331   9.073   6.096   5.241
51500SOL     OW56332   1.080   6.002  13.689
51500SOL    HW156333   1.016   6.019  13.620
51500SOL    HW256334   1.043   5.929  13.739
51501SOL     OW56335   5.615   6.597   5.118
51501SOL    HW156336   5.613   6.593   5.214
51501SOL    HW256337   5.696   6.643   5.098
51502SOL     OW56338  10.927   8.587  13.356
51502SOL    HW156339  10.855   8.547  13.307
51502SOL    HW256340  10.997   8.598  13.292
51503SOL     OW56341   0.837   1.067   2.074
51503SOL    HW156342   0.881   1.102   2.151
51503SOL    HW256343   0.908   1.033   2.019
51504SOL     OW56344   4.174  10.175   2.241
51504SOL    HW156345   4.226  10.154   2.318
51504SOL    HW256346   4.181  10.098   2.185
51505SOL     OW56347  10.508  13.989  13.908
51505SOL    HW156348  10.564  14.017  13.980
51505SOL    HW256349  10.563  13.930  13.856
51506SOL     OW56350   4.377  12.370   5.288
51506SOL    HW156351   4.299  12.375   5.232
51506SOL    HW256352   4.400  12.278   5.287
51507SOL     OW56353  10.996   9.596  11.624
51507SOL    HW156354  10.907   9.621  11.596
51507SOL    HW256355  10.982   9.520  11.682
51508SOL     OW56356   1.573  13.376   1.929
51508SOL    HW156357   1.495  13.383   1.874
51508SOL    HW256358   1.601  13.466   1.943
51509SOL     OW56359   7.532   7.242  13.243
51509SOL    HW156360   7.443   7.214  13.264
51509SOL    HW256361   7.560   7.182  13.174
51510SOL     OW56362   8.868   1.972   1.968
51510SOL    HW156363   8.879   1.999   1.877
51510SOL    HW256364   8.806   2.035   2.005
51511SOL     OW56365   4.574   5.086  12.080
51511SOL    HW156366   4.523   5.026  12.135
51511SOL    HW256367   4.515   5.108  12.008
51512SOL     OW56368  13.191  14.056   9.457
51512SOL    HW156369  13.218  13.989   9.394
51512SOL    HW256370  13.206  14.139   9.412
51513SOL     OW56371   5.763   7.143   9.344
51513SOL    HW156372   5.828   7.121   9.277
51513SOL    HW256373   5.697   7.194   9.297
51514SOL     OW56374   4.220   8.049  11.724
51514SOL    HW156375   4.281   8.019  11.657
51514SOL    HW256376   4.270   8.115  11.774
51515SOL     OW56377   7.931   7.533   5.119
51515SOL    HW156378   7.895   7.621   5.104
51515SOL    HW256379   7.903   7.483   5.043
51516SOL     OW56380  12.690  12.099   1.517
51516SOL    HW156381  12.598  12.075   1.505
51516SOL    HW256382  12.738  12.016   1.510
51517SOL     OW56383   3.086   2.092   8.520
51517SOL    HW156384   3.113   2.183   8.507
51517SOL    HW256385   3.073   2.057   8.432
51518SOL     OW56386   9.318   8.688  13.652
51518SOL    HW156387   9.241   8.743  13.639
51518SOL    HW256388   9.285   8.599  13.647
51519SOL     OW56389  13.918  13.251   4.333
51519SOL    HW156390  13.885  13.341   4.345
51519SOL    HW256391  13.879  13.202   4.406
51520SOL     OW56392  11.041   2.714   8.130
51520SOL    HW156393  10.956   2.671   8.140
51520SOL    HW256394  11.057   2.716   8.036
51521SOL     OW56395  11.141  14.734   0.531
51521SOL    HW156396  11.057  14.706   0.494
51521SOL    HW256397  11.139  14.701   0.621
51522SOL     OW56398  11.660  14.415  10.488
51522SOL    HW156399  11.666  14.446  10.398
51522SOL    HW256400  11.731  14.460  10.534
51523SOL     OW56401   8.341   9.743  12.805
51523SOL    HW156402   8.421   9.750  12.753
51523SOL    HW256403   8.345   9.816  12.866
51524SOL     OW56404   8.751   5.117   8.593
51524SOL    HW156405   8.737   5.181   8.664
51524SOL    HW256406   8.724   5.033   8.631
51525SOL     OW56407   2.212  12.343  12.828
51525SOL    HW156408   2.210  12.416  12.889
51525SOL    HW256409   2.279  12.284  12.863
51526SOL     OW56410  12.293   2.136   7.210
51526SOL    HW156411  12.388   2.141   7.206
51526SOL    HW256412  12.272   2.056   7.162
51527SOL     OW56413   8.441   5.526   9.116
51527SOL    HW156414   8.424   5.618   9.137
51527SOL    HW256415   8.500   5.529   9.041
51528SOL     OW56416   6.875   2.073   4.248
51528SOL    HW156417   6.853   2.114   4.332
51528SOL    HW256418   6.899   1.983   4.271
51529SOL     OW56419   9.062  11.058  13.601
51529SOL    HW156420   9.145  11.066  13.648
51529SOL    HW256421   9.015  11.140  13.619
51530SOL     OW56422   6.237  14.308   6.183
51530SOL    HW156423   6.281  14.387   6.214
51530SOL    HW256424   6.302  14.262   6.131
51531SOL     OW56425   9.868   3.948  13.562
51531SOL    HW156426   9.922   3.879  13.602
51531SOL    HW256427   9.784   3.905  13.544
51532SOL     OW56428   3.633  13.869   5.801
51532SOL    HW156429   3.585  13.916   5.870
51532SOL    HW256430   3.572  13.801   5.773
51533SOL     OW56431  14.454   5.455   4.507
51533SOL    HW156432  14.387   5.466   4.440
51533SOL    HW256433  14.506   5.380   4.477
51534SOL     OW56434   8.273   4.290  13.410
51534SOL    HW156435   8.302   4.381  13.404
51534SOL    HW256436   8.346   4.244  13.451
51535SOL     OW56437   2.886  14.206   6.001
51535SOL    HW156438   2.807  14.249   5.967
51535SOL    HW256439   2.872  14.201   6.095
51536SOL     OW56440   7.218  13.045  12.950
51536SOL    HW156441   7.205  13.084  12.864
51536SOL    HW256442   7.165  12.966  12.949
51537SOL     OW56443   8.516   9.374   1.434
51537SOL    HW156444   8.457   9.401   1.364
51537SOL    HW256445   8.516   9.447   1.496
51538SOL     OW56446   0.281   6.452   6.036
51538SOL    HW156447   0.357   6.415   6.080
51538SOL    HW256448   0.224   6.483   6.107
51539SOL     OW56449  10.402   2.138   2.385
51539SOL    HW156450  10.424   2.165   2.296
51539SOL    HW256451  10.319   2.091   2.376
51540SOL     OW56452   1.717   6.188   0.076
51540SOL    HW156453   1.806   6.163   0.049
51540SOL    HW256454   1.686   6.247   0.007
51541SOL     OW56455   9.387  14.233   7.755
51541SOL    HW156456   9.394  14.276   7.669
51541SOL    HW256457   9.424  14.146   7.742
51542SOL     OW56458  13.251   0.189   8.064
51542SOL    HW156459  13.179   0.249   8.081
51542SOL    HW256460  13.312   0.204   8.135
51543SOL     OW56461   4.655   7.771   3.144
51543SOL    HW156462   4.673   7.865   3.146
51543SOL    HW256463   4.608   7.754   3.226
51544SOL     OW56464   8.947  14.759   6.931
51544SOL    HW156465   8.928  14.846   6.967
51544SOL    HW256466   8.878  14.745   6.866
51545SOL     OW56467   6.010  10.633   1.092
51545SOL    HW156468   6.019  10.721   1.130
51545SOL    HW256469   6.048  10.640   1.005
51546SOL     OW56470   5.281  12.197   9.014
51546SOL    HW156471   5.366  12.240   9.011
51546SOL    HW256472   5.291  12.127   9.078
51547SOL     OW56473   1.493   6.395   7.609
51547SOL    HW156474   1.489   6.387   7.514
51547SOL    HW256475   1.471   6.486   7.627
51548SOL     OW56476   3.178   9.759   5.496
51548SOL    HW156477   3.127   9.836   5.472
51548SOL    HW256478   3.193   9.713   5.413
51549SOL     OW56479   0.165   4.910   6.815
51549SOL    HW156480   0.248   4.955   6.798
51549SOL    HW256481   0.128   4.895   6.729
51550SOL     OW56482   0.649   5.980  14.406
51550SOL    HW156483   0.553   5.979  14.411
51550SOL    HW256484   0.678   5.996  14.496
51551SOL     OW56485   8.686   8.980  14.076
51551SOL    HW156486   8.717   9.070  14.086
51551SOL    HW256487   8.614   8.987  14.013
51552SOL     OW56488   4.078   9.293   2.811
51552SOL    HW156489   4.040   9.216   2.853
51552SOL    HW256490   4.099   9.263   2.723
51553SOL     OW56491   1.930   1.148   3.545
51553SOL    HW156492   1.858   1.132   3.606
51553SOL    HW256493   1.933   1.244   3.536
51554SOL     OW56494  12.629  13.290   6.337
51554SOL    HW156495  12.663  13.343   6.265
51554SOL    HW256496  12.540  13.269   6.310
51555SOL     OW56497   8.210   8.887  14.294
51555SOL    HW156498   8.278   8.836  14.338
51555SOL    HW256499   8.256   8.964  14.261
51556SOL     OW56500   5.620   9.070  11.121
51556SOL    HW156501   5.706   9.094  11.155
51556SOL    HW256502   5.558   9.098  11.189
51557SOL     OW56503  13.580   0.587  12.370
51557SOL    HW156504  13.605   0.650  12.303
51557SOL    HW256505  13.570   0.504  12.323
51558SOL     OW56506   9.342  13.034   8.647
51558SOL    HW156507   9.428  13.041   8.605
51558SOL    HW256508   9.289  12.984   8.586
51559SOL     OW56509  12.258  13.666  11.902
51559SOL    HW156510  12.201  13.739  11.927
51559SOL    HW256511  12.345  13.693  11.931
51560SOL     OW56512  13.896   4.656   7.882
51560SOL    HW156513  13.967   4.610   7.928
51560SOL    HW256514  13.941   4.727   7.835
51561SOL     OW56515  14.044   6.371  10.449
51561SOL    HW156516  13.967   6.420  10.420
51561SOL    HW256517  14.021   6.279  10.433
51562SOL     OW56518  14.732  10.980   7.688
51562SOL    HW156519  14.759  11.043   7.621
51562SOL    HW256520  14.712  10.900   7.640
51563SOL     OW56521   4.228  13.023  10.236
51563SOL    HW156522   4.273  12.983  10.310
51563SOL    HW256523   4.177  13.094  10.274
51564SOL     OW56524   1.959  14.540  13.204
51564SOL    HW156525   1.897  14.517  13.274
51564SOL    HW256526   2.025  14.594  13.247
51565SOL     OW56527   8.460   6.869   6.952
51565SOL    HW156528   8.509   6.927   6.894
51565SOL    HW256529   8.370   6.871   6.920
51566SOL     OW56530   6.893   2.609  10.659
51566SOL    HW156531   6.981   2.601  10.695
51566SOL    HW256532   6.836   2.578  10.730
51567SOL     OW56533   0.438  12.540   2.855
51567SOL    HW156534   0.372  12.488   2.809
51567SOL    HW256535   0.386  12.601   2.908
51568SOL     OW56536   5.464   1.196  10.028
51568SOL    HW156537   5.469   1.145   9.947
51568SOL    HW256538   5.410   1.142  10.086
51569SOL     OW56539   9.361  12.079  14.864
51569SOL    HW156540   9.294  12.096  14.798
51569SOL    HW256541   9.322  12.108   0.068
51570SOL     OW56542   1.966  14.069   5.968
51570SOL    HW156543   1.911  14.025   6.033
51570SOL    HW256544   1.934  14.035   5.884
51571SOL     OW56545  13.069  11.768  12.842
51571SOL    HW156546  12.992  11.802  12.887
51571SOL    HW256547  13.139  11.769  12.908
51572SOL     OW56548   4.197  14.043   9.811
51572SOL    HW156549   4.276  14.069   9.765
51572SOL    HW256550   4.132  14.110   9.786
51573SOL     OW56551   8.554  11.939   2.281
51573SOL    HW156552   8.584  12.004   2.218
51573SOL    HW256553   8.461  11.927   2.262
51574SOL     OW56554   2.529   9.490  11.500
51574SOL    HW156555   2.542   9.548  11.424
51574SOL    HW256556   2.541   9.402  11.464
51575SOL     OW56557   4.665   1.086  10.258
51575SOL    HW156558   4.751   1.046  10.245
51575SOL    HW256559   4.631   1.100  10.170
51576SOL     OW56560  11.232   6.877  13.294
51576SOL    HW156561  11.222   6.840  13.382
51576SOL    HW256562  11.180   6.820  13.238
51577SOL     OW56563   9.600   4.025  12.911
51577SOL    HW156564   9.534   4.023  12.842
51577SOL    HW256565   9.559   4.072  12.983
51578SOL     OW56566  12.574   7.897   4.166
51578SOL    HW156567  12.607   7.903   4.076
51578SOL    HW256568  12.540   7.808   4.173
51579SOL     OW56569  12.611   1.317   2.994
51579SOL    HW156570  12.581   1.286   2.908
51579SOL    HW256571  12.699   1.350   2.978
51580SOL     OW56572   5.197  10.150  14.840
51580SOL    HW156573   5.290  10.156  14.818
51580SOL    HW256574   5.162  10.086  14.777
51581SOL     OW56575  12.725  14.845   1.357
51581SOL    HW156576  12.755  14.755   1.365
51581SOL    HW256577  12.798   0.019   1.390
51582SOL     OW56578   0.144   1.375  12.908
51582SOL    HW156579   0.089   1.434  12.961
51582SOL    HW256580   0.128   1.401  12.818
51583SOL     OW56581   7.177   4.703   5.188
51583SOL    HW156582   7.177   4.760   5.265
51583SOL    HW256583   7.176   4.764   5.113
51584SOL     OW56584   6.100   8.932  14.296
51584SOL    HW156585   6.162   8.862  14.316
51584SOL    HW256586   6.155   9.008  14.277
51585SOL     OW56587   2.258  12.947  12.383
51585SOL    HW156588   2.298  12.890  12.449
51585SOL    HW256589   2.186  12.989  12.430
51586SOL     OW56590  10.782  14.404   5.422
51586SOL    HW156591  10.778  14.369   5.511
51586SOL    HW256592  10.751  14.332   5.367
51587SOL     OW56593  12.082   5.063  12.510
51587SOL    HW156594  12.114   5.146  12.475
51587SOL    HW256595  12.070   5.008  12.433
51588SOL     OW56596  10.598   1.016   0.733
51588SOL    HW156597  10.514   1.061   0.744
51588SOL    HW256598  10.577   0.942   0.677
51589SOL     OW56599  11.441   6.034   9.436
51589SOL    HW156600  11.355   6.041   9.396
51589SOL    HW256601  11.425   5.996   9.522
51590SOL     OW56602  10.446   2.552   5.099
51590SOL    HW156603  10.443   2.526   5.191
51590SOL    HW256604  10.531   2.521   5.068
51591SOL     OW56605  14.720  12.435  10.883
51591SOL    HW156606  14.657  12.373  10.847
51591SOL    HW256607  14.677  12.520  10.877
51592SOL     OW56608   2.828   2.593  14.644
51592SOL    HW156609   2.848   2.639  14.726
51592SOL    HW256610   2.811   2.503  14.670
51593SOL     OW56611  14.863   6.901   6.846
51593SOL    HW156612   0.038   6.859   6.913
51593SOL    HW256613  14.852   6.833   6.779
51594SOL     OW56614  12.913   9.349  13.405
51594SOL    HW156615  12.884   9.282  13.467
51594SOL    HW256616  12.835   9.373  13.356
51595SOL     OW56617  14.836  12.413   2.211
51595SOL    HW156618   0.024  12.474   2.181
51595SOL    HW256619  14.789  12.461   2.280
51596SOL     OW56620   7.531   6.421   6.798
51596SOL    HW156621   7.499   6.477   6.728
51596SOL    HW256622   7.499   6.463   6.878
51597SOL     OW56623   8.025   1.530   6.859
51597SOL    HW156624   7.968   1.593   6.815
51597SOL    HW256625   7.975   1.502   6.936
51598SOL     OW56626   7.325   2.872   5.269
51598SOL    HW156627   7.366   2.793   5.302
51598SOL    HW256628   7.394   2.916   5.219
51599SOL     OW56629   3.748  11.868   4.768
51599SOL    HW156630   3.791  11.948   4.738
51599SOL    HW256631   3.686  11.898   4.835
51600SOL     OW56632   1.741   5.692  12.690
51600SOL    HW156633   1.824   5.740  12.683
51600SOL    HW256634   1.676   5.754  12.657
51601SOL     OW56635   6.454  11.156   2.748
51601SOL    HW156636   6.548  11.149   2.764
51601SOL    HW256637   6.413  11.125   2.829
51602SOL     OW56638  10.025   7.245  13.604
51602SOL    HW156639   9.955   7.283  13.657
51602SOL    HW256640  10.079   7.320  13.579
51603SOL     OW56641   1.104  10.037  12.776
51603SOL    HW156642   1.114   9.995  12.690
51603SOL    HW256643   1.148  10.121  12.766
51604SOL     OW56644   5.125  10.382   0.563
51604SOL    HW156645   5.218  10.397   0.579
51604SOL    HW256646   5.109  10.291   0.590
51605SOL     OW56647  14.339  11.577  11.719
51605SOL    HW156648  14.425  11.595  11.681
51605SOL    HW256649  14.352  11.500  11.773
51606SOL     OW56650  13.621   1.538   7.765
51606SOL    HW156651  13.594   1.497   7.847
51606SOL    HW256652  13.550   1.519   7.704
51607SOL     OW56653  13.868   6.044   7.581
51607SOL    HW156654  13.948   6.012   7.621
51607SOL    HW256655  13.814   6.073   7.655
51608SOL     OW56656   5.472  12.520   4.001
51608SOL    HW156657   5.491  12.556   4.087
51608SOL    HW256658   5.517  12.578   3.940
51609SOL     OW56659   4.345   4.893  11.326
51609SOL    HW156660   4.323   4.973  11.277
51609SOL    HW256661   4.347   4.921  11.417
51610SOL     OW56662   7.801   4.291  13.808
51610SOL    HW156663   7.878   4.343  13.786
51610SOL    HW256664   7.731   4.355  13.817
51611SOL     OW56665   1.602  14.102  10.760
51611SOL    HW156666   1.587  14.178  10.703
51611SOL    HW256667   1.547  14.118  10.836
51612SOL     OW56668  11.768  13.257  11.997
51612SOL    HW156669  11.719  13.328  11.955
51612SOL    HW256670  11.747  13.180  11.944
51613SOL     OW56671   3.678   3.782  13.959
51613SOL    HW156672   3.747   3.818  13.904
51613SOL    HW256673   3.724   3.723  14.019
51614SOL     OW56674  11.658  11.657   8.143
51614SOL    HW156675  11.705  11.699   8.071
51614SOL    HW256676  11.688  11.566   8.141
51615SOL     OW56677  13.945  10.581   9.575
51615SOL    HW156678  13.919  10.599   9.666
51615SOL    HW256679  13.993  10.659   9.548
51616SOL     OW56680   3.988   0.082  11.193
51616SOL    HW156681   4.061   0.032  11.157
51616SOL    HW256682   3.916   0.066  11.132
51617SOL     OW56683   3.591   7.091  11.059
51617SOL    HW156684   3.584   7.011  11.007
51617SOL    HW256685   3.683   7.096  11.083
51618SOL     OW56686  12.611  14.647   0.213
51618SOL    HW156687  12.610  14.564   0.166
51618SOL    HW256688  12.600  14.714   0.146
51619SOL     OW56689   2.121  12.077  13.251
51619SOL    HW156690   2.087  12.118  13.331
51619SOL    HW256691   2.076  11.992  13.247
51620SOL     OW56692  10.208   1.811   4.117
51620SOL    HW156693  10.181   1.736   4.170
51620SOL    HW256694  10.156   1.804   4.037
51621SOL     OW56695   1.025   1.008   0.661
51621SOL    HW156696   0.969   1.083   0.679
51621SOL    HW256697   1.001   0.944   0.727
51622SOL     OW56698   7.613   7.471  13.879
51622SOL    HW156699   7.562   7.517  13.945
51622SOL    HW256700   7.619   7.381  13.911
51623SOL     OW56701   5.665  10.398   3.171
51623SOL    HW156702   5.700  10.311   3.191
51623SOL    HW256703   5.572  10.382   3.154
51624SOL     OW56704   1.587   1.619   8.340
51624SOL    HW156705   1.588   1.634   8.246
51624SOL    HW256706   1.530   1.688   8.375
51625SOL     OW56707   9.215   2.367   4.400
51625SOL    HW156708   9.252   2.381   4.488
51625SOL    HW256709   9.267   2.423   4.343
51626SOL     OW56710   7.142  10.210   9.178
51626SOL    HW156711   7.221  10.210   9.124
51626SOL    HW256712   7.174  10.210   9.268
51627SOL     OW56713   7.930   3.223  14.404
51627SOL    HW156714   8.011   3.179  14.432
51627SOL    HW256715   7.950   3.316  14.406
51628SOL     OW56716  13.765   4.717   2.899
51628SOL    HW156717  13.769   4.634   2.945
51628SOL    HW256718  13.814   4.778   2.955
51629SOL     OW56719   4.617   9.124   0.647
51629SOL    HW156720   4.693   9.180   0.664
51629SOL    HW256721   4.580   9.157   0.565
51630SOL     OW56722   0.956   2.346   6.896
51630SOL    HW156723   0.935   2.369   6.987
51630SOL    HW256724   0.931   2.254   6.889
51631SOL     OW56725  10.816   4.714   1.153
51631SOL    HW156726  10.757   4.671   1.091
51631SOL    HW256727  10.860   4.642   1.198
51632SOL     OW56728   8.239   2.279  12.973
51632SOL    HW156729   8.162   2.304  13.024
51632SOL    HW256730   8.230   2.184  12.961
51633SOL     OW56731   3.121   9.097   2.995
51633SOL    HW156732   3.069   9.160   2.945
51633SOL    HW256733   3.065   9.074   3.069
51634SOL     OW56734   2.746  12.007   1.925
51634SOL    HW156735   2.771  12.099   1.915
51634SOL    HW256736   2.651  12.009   1.939
51635SOL     OW56737   4.627   0.271  11.531
51635SOL    HW156738   4.575   0.287  11.452
51635SOL    HW256739   4.592   0.189  11.566
51636SOL     OW56740  13.009   3.114   8.764
51636SOL    HW156741  12.964   3.195   8.739
51636SOL    HW256742  12.952   3.075   8.830
51637SOL     OW56743  11.070  14.299   1.788
51637SOL    HW156744  11.029  14.221   1.826
51637SOL    HW256745  11.053  14.291   1.694
51638SOL     OW56746  14.196   9.062   3.088
51638SOL    HW156747  14.173   9.123   3.018
51638SOL    HW256748  14.124   9.000   3.091
51639SOL     OW56749  12.464   6.589   6.802
51639SOL    HW156750  12.370   6.579   6.784
51639SOL    HW256751  12.470   6.590   6.897
51640SOL     OW56752   2.970   0.409   9.753
51640SOL    HW156753   2.920   0.328   9.760
51640SOL    HW256754   2.909   0.478   9.778
51641SOL     OW56755  10.817   7.338   9.991
51641SOL    HW156756  10.776   7.419   9.960
51641SOL    HW256757  10.753   7.270   9.971
51642SOL     OW56758   8.130  11.535   7.357
51642SOL    HW156759   8.146  11.520   7.450
51642SOL    HW256760   8.044  11.496   7.341
51643SOL     OW56761  10.194  11.441   1.003
51643SOL    HW156762  10.124  11.389   0.963
51643SOL    HW256763  10.275  11.401   0.971
51644SOL     OW56764  10.055   7.613  13.016
51644SOL    HW156765  10.046   7.640  12.925
51644SOL    HW256766  10.136   7.655  13.045
51645SOL     OW56767   8.018  14.419   7.138
51645SOL    HW156768   8.047  14.509   7.150
51645SOL    HW256769   8.037  14.399   7.046
51646SOL     OW56770   2.556  11.661   8.103
51646SOL    HW156771   2.644  11.629   8.086
51646SOL    HW256772   2.500  11.612   8.042
51647SOL     OW56773   9.511   0.584   5.268
51647SOL    HW156774   9.417   0.581   5.254
51647SOL    HW256775   9.530   0.512   5.327
51648SOL     OW56776  14.716   3.987  12.721
51648SOL    HW156777  14.794   4.042  12.729
51648SOL    HW256778  14.704   3.949  12.808
51649SOL     OW56779   6.011   4.644   1.718
51649SOL    HW156780   5.998   4.604   1.804
51649SOL    HW256781   6.069   4.719   1.735
51650SOL     OW56782  10.310  14.090   7.656
51650SOL    HW156783  10.271  14.093   7.569
51650SOL    HW256784  10.235  14.096   7.716
51651SOL     OW56785   6.611   4.722   5.288
51651SOL    HW156786   6.703   4.710   5.309
51651SOL    HW256787   6.573   4.762   5.367
51652SOL     OW56788  12.935   0.427  10.212
51652SOL    HW156789  12.910   0.472  10.292
51652SOL    HW256790  12.882   0.347  10.211
51653SOL     OW56791   6.042  14.249   7.748
51653SOL    HW156792   5.952  14.219   7.732
51653SOL    HW256793   6.077  14.265   7.660
51654SOL     OW56794  14.822   6.200  12.037
51654SOL    HW156795  14.737   6.215  11.996
51654SOL    HW256796  14.853   6.287  12.060
51655SOL     OW56797   6.620   5.651  13.610
51655SOL    HW156798   6.552   5.661  13.544
51655SOL    HW256799   6.638   5.557  13.613
51656SOL     OW56800   9.041   4.919   9.670
51656SOL    HW156801   9.045   4.846   9.608
51656SOL    HW256802   8.965   4.900   9.724
51657SOL     OW56803  11.153  12.196   2.556
51657SOL    HW156804  11.116  12.282   2.538
51657SOL    HW256805  11.076  12.140   2.572
51658SOL     OW56806   3.391   9.290  13.628
51658SOL    HW156807   3.308   9.333  13.608
51658SOL    HW256808   3.428   9.340  13.700
51659SOL     OW56809  10.130  14.151  10.702
51659SOL    HW156810  10.070  14.193  10.764
51659SOL    HW256811  10.175  14.084  10.754
51660SOL     OW56812   7.942   1.979   4.678
51660SOL    HW156813   7.905   1.906   4.729
51660SOL    HW256814   7.955   2.048   4.743
51661SOL     OW56815   4.476  13.227  13.589
51661SOL    HW156816   4.543  13.189  13.533
51661SOL    HW256817   4.413  13.266  13.529
51662SOL     OW56818   8.013   1.225   0.542
51662SOL    HW156819   7.949   1.293   0.521
51662SOL    HW256820   8.098   1.268   0.529
51663SOL     OW56821   9.325   5.820  10.703
51663SOL    HW156822   9.264   5.835  10.631
51663SOL    HW256823   9.282   5.753  10.757
51664SOL     OW56824  12.199   8.407   3.545
51664SOL    HW156825  12.284   8.421   3.586
51664SOL    HW256826  12.184   8.313   3.552
51665SOL     OW56827   1.828   3.107   4.902
51665SOL    HW156828   1.850   3.094   4.810
51665SOL    HW256829   1.905   3.077   4.950
51666SOL     OW56830  10.626   4.900   5.410
51666SOL    HW156831  10.535   4.884   5.433
51666SOL    HW256832  10.675   4.873   5.488
51667SOL     OW56833  11.463   1.320  11.199
51667SOL    HW156834  11.471   1.238  11.248
51667SOL    HW256835  11.489   1.388  11.262
51668SOL     OW56836  13.919   0.758   7.102
51668SOL    HW156837  13.862   0.823   7.143
51668SOL    HW256838  13.998   0.806   7.079
51669SOL     OW56839   0.126  14.316   2.651
51669SOL    HW156840   0.082  14.323   2.566
51669SOL    HW256841   0.081  14.243   2.694
51670SOL     OW56842   7.944   9.024  13.365
51670SOL    HW156843   7.866   8.982  13.327
51670SOL    HW256844   7.941   8.999  13.458
51671SOL     OW56845   6.711  14.286   8.272
51671SOL    HW156846   6.767  14.264   8.346
51671SOL    HW256847   6.716  14.382   8.266
51672SOL     OW56848   6.710  12.433  14.037
51672SOL    HW156849   6.644  12.381  13.990
51672SOL    HW256850   6.690  12.419  14.129
51673SOL     OW56851   6.109   9.445  12.651
51673SOL    HW156852   6.179   9.380  12.648
51673SOL    HW256853   6.130   9.500  12.727
51674SOL     OW56854   1.392   8.841  10.205
51674SOL    HW156855   1.423   8.915  10.152
51674SOL    HW256856   1.303   8.865  10.229
51675SOL     OW56857  10.985  14.143   8.928
51675SOL    HW156858  10.993  14.127   9.022
51675SOL    HW256859  10.947  14.230   8.921
51676SOL     OW56860   6.258   2.015  14.506
51676SOL    HW156861   6.238   2.075  14.577
51676SOL    HW256862   6.271   1.930  14.549
51677SOL     OW56863   7.629   1.242   0.802
51677SOL    HW156864   7.669   1.283   0.878
51677SOL    HW256865   7.607   1.153   0.831
51678SOL     OW56866   5.281  10.160   4.745
51678SOL    HW156867   5.215  10.221   4.711
51678SOL    HW256868   5.347  10.155   4.677
51679SOL     OW56869   4.223   3.882   1.552
51679SOL    HW156870   4.205   3.955   1.492
51679SOL    HW256871   4.225   3.805   1.496
51680SOL     OW56872   8.570   0.317   6.159
51680SOL    HW156873   8.638   0.384   6.167
51680SOL    HW256874   8.499   0.360   6.111
51681SOL     OW56875  10.272  12.542  14.313
51681SOL    HW156876  10.280  12.479  14.385
51681SOL    HW256877  10.353  12.593  14.316
51682SOL     OW56878   4.812  11.659   1.895
51682SOL    HW156879   4.718  11.661   1.875
51682SOL    HW256880   4.821  11.713   1.973
51683SOL     OW56881  14.533   6.089   5.836
51683SOL    HW156882  14.440   6.100   5.815
51683SOL    HW256883  14.540   6.001   5.872
51684SOL     OW56884   6.612   2.010   3.922
51684SOL    HW156885   6.541   2.057   3.878
51684SOL    HW256886   6.576   1.924   3.940
51685SOL     OW56887   0.613  14.804   5.112
51685SOL    HW156888   0.547  14.869   5.088
51685SOL    HW256889   0.622  14.813   5.207
51686SOL     OW56890  10.783   1.652   7.587
51686SOL    HW156891  10.793   1.731   7.535
51686SOL    HW256892  10.689   1.634   7.586
51687SOL     OW56893  14.759  14.594   9.409
51687SOL    HW156894  14.810  14.655   9.463
51687SOL    HW256895  14.698  14.651   9.362
51688SOL     OW56896   4.939   9.467   3.314
51688SOL    HW156897   4.946   9.537   3.250
51688SOL    HW256898   4.873   9.408   3.279
51689SOL     OW56899   1.883   4.247  12.583
51689SOL    HW156900   1.845   4.329  12.616
51689SOL    HW256901   1.976   4.267  12.572
51690SOL     OW56902   4.373   0.678   3.927
51690SOL    HW156903   4.430   0.687   3.851
51690SOL    HW256904   4.387   0.589   3.957
51691SOL     OW56905   1.872  10.528   6.163
51691SOL    HW156906   1.840  10.438   6.168
51691SOL    HW256907   1.943  10.525   6.099
51692SOL     OW56908  11.440   5.587   5.535
51692SOL    HW156909  11.389   5.532   5.476
51692SOL    HW256910  11.375   5.646   5.573
51693SOL     OW56911   8.385  13.869  10.058
51693SOL    HW156912   8.406  13.896  10.148
51693SOL    HW256913   8.423  13.937  10.003
51694SOL     OW56914   8.131   3.557  12.202
51694SOL    HW156915   8.212   3.559  12.253
51694SOL    HW256916   8.101   3.466  12.209
51695SOL     OW56917   9.206   4.764   6.513
51695SOL    HW156918   9.259   4.760   6.592
51695SOL    HW256919   9.234   4.845   6.470
51696SOL     OW56920  10.485   7.980   6.387
51696SOL    HW156921  10.484   7.920   6.461
51696SOL    HW256922  10.456   8.064   6.423
51697SOL     OW56923  13.712  14.710   6.285
51697SOL    HW156924  13.620  14.690   6.271
51697SOL    HW256925  13.758  14.653   6.222
51698SOL     OW56926   9.214  14.229   7.115
51698SOL    HW156927   9.228  14.171   7.041
51698SOL    HW256928   9.273  14.197   7.183
51699SOL     OW56929  14.082   9.760   2.171
51699SOL    HW156930  14.096   9.787   2.261
51699SOL    HW256931  14.076   9.842   2.122
51700SOL     OW56932   9.511   3.309   3.744
51700SOL    HW156933   9.457   3.377   3.784
51700SOL    HW256934   9.533   3.343   3.658
51701SOL     OW56935   7.647  12.055   4.372
51701SOL    HW156936   7.658  11.959   4.371
51701SOL    HW256937   7.616  12.074   4.460
51702SOL     OW56938  13.458   6.501   3.172
51702SOL    HW156939  13.414   6.462   3.096
51702SOL    HW256940  13.542   6.532   3.138
51703SOL     OW56941   9.858   1.692  14.238
51703SOL    HW156942   9.852   1.759  14.306
51703SOL    HW256943   9.853   1.741  14.155
51704SOL     OW56944   9.370   0.468   8.283
51704SOL    HW156945   9.407   0.512   8.207
51704SOL    HW256946   9.346   0.539   8.343
51705SOL     OW56947   4.637   2.717   7.714
51705SOL    HW156948   4.577   2.782   7.748
51705SOL    HW256949   4.722   2.739   7.752
51706SOL     OW56950  12.576   3.740   4.461
51706SOL    HW156951  12.598   3.831   4.478
51706SOL    HW256952  12.529   3.712   4.541
51707SOL     OW56953   0.479   6.444   8.434
51707SOL    HW156954   0.412   6.418   8.370
51707SOL    HW256955   0.431   6.455   8.516
51708SOL     OW56956  13.594  12.905  13.268
51708SOL    HW156957  13.573  12.849  13.343
51708SOL    HW256958  13.530  12.976  13.272
51709SOL     OW56959  12.943   3.233  13.702
51709SOL    HW156960  13.016   3.187  13.743
51709SOL    HW256961  12.883   3.253  13.774
51710SOL     OW56962  12.077  13.624   9.317
51710SOL    HW156963  12.093  13.647   9.409
51710SOL    HW256964  12.088  13.529   9.313
51711SOL     OW56965   1.143   2.953  11.256
51711SOL    HW156966   1.156   2.915  11.169
51711SOL    HW256967   1.150   3.048  11.241
51712SOL     OW56968   5.352   8.359  12.994
51712SOL    HW156969   5.337   8.269  13.024
51712SOL    HW256970   5.297   8.413  13.051
51713SOL     OW56971   5.369  12.298   2.332
51713SOL    HW156972   5.459  12.326   2.345
51713SOL    HW256973   5.369  12.259   2.245
51714SOL     OW56974   3.396   7.823   8.356
51714SOL    HW156975   3.484   7.860   8.348
51714SOL    HW256976   3.370   7.801   8.267
51715SOL     OW56977   1.199   6.043  11.100
51715SOL    HW156978   1.161   6.033  11.013
51715SOL    HW256979   1.178   5.961  11.145
51716SOL     OW56980   9.586  10.461  10.309
51716SOL    HW156981   9.559  10.473  10.400
51716SOL    HW256982   9.640  10.382  10.310
51717SOL     OW56983   2.637   2.437  12.910
51717SOL    HW156984   2.647   2.372  12.980
51717SOL    HW256985   2.548   2.471  12.922
51718SOL     OW56986   2.122  10.746   6.575
51718SOL    HW156987   2.165  10.821   6.534
51718SOL    HW256988   2.122  10.678   6.508
51719SOL     OW56989   0.824  12.746   7.793
51719SOL    HW156990   0.794  12.656   7.779
51719SOL    HW256991   0.837  12.780   7.704
51720SOL     OW56992  11.781   1.411   7.952
51720SOL    HW156993  11.735   1.392   8.033
51720SOL    HW256994  11.822   1.496   7.967
51721SOL     OW56995  13.183   7.070  11.445
51721SOL    HW156996  13.133   6.994  11.474
51721SOL    HW256997  13.188   7.126  11.523
51722SOL     OW56998  10.805   5.466   5.535
51722SOL    HW156999  10.734   5.496   5.478
51722SOL    HW257000  10.878   5.524   5.516
51723SOL     OW57001   2.143  14.090   6.667
51723SOL    HW157002   2.133  13.997   6.645
51723SOL    HW257003   2.218  14.092   6.728
51724SOL     OW57004   0.877  13.214  10.714
51724SOL    HW157005   0.934  13.272  10.765
51724SOL    HW257006   0.881  13.250  10.625
51725SOL     OW57007   1.181  11.890   6.355
51725SOL    HW157008   1.237  11.884   6.278
51725SOL    HW257009   1.230  11.846   6.424
51726SOL     OW57010   2.587   2.363  11.196
51726SOL    HW157011   2.544   2.336  11.115
51726SOL    HW257012   2.661   2.417  11.168
51727SOL     OW57013  10.453  13.478   2.273
51727SOL    HW157014  10.540  13.480   2.233
51727SOL    HW257015  10.462  13.528   2.354
51728SOL     OW57016   6.770   3.624  13.161
51728SOL    HW157017   6.826   3.680  13.107
51728SOL    HW257018   6.708   3.584  13.099
51729SOL     OW57019  14.165   1.175   3.070
51729SOL    HW157020  14.201   1.095   3.031
51729SOL    HW257021  14.224   1.195   3.142
51730SOL     OW57022   5.614   5.933   1.306
51730SOL    HW157023   5.598   5.846   1.342
51730SOL    HW257024   5.533   5.956   1.261
51731SOL     OW57025   9.899   1.600   9.174
51731SOL    HW157026   9.807   1.601   9.149
51731SOL    HW257027   9.918   1.508   9.192
51732SOL     OW57028  11.712   4.509   4.537
51732SOL    HW157029  11.702   4.426   4.491
51732SOL    HW257030  11.807   4.517   4.552
51733SOL     OW57031   4.125   7.443  13.800
51733SOL    HW157032   4.069   7.462  13.725
51733SOL    HW257033   4.208   7.485  13.779
51734SOL     OW57034   0.786  11.237   8.932
51734SOL    HW157035   0.796  11.250   8.838
51734SOL    HW257036   0.848  11.168   8.954
51735SOL     OW57037   5.177   9.966   1.235
51735SOL    HW157038   5.239   9.990   1.166
51735SOL    HW257039   5.231   9.923   1.302
51736SOL     OW57040  14.535   8.285   0.011
51736SOL    HW157041  14.617   8.275   0.059
51736SOL    HW257042  14.467   8.290   0.078
51737SOL     OW57043  11.403  10.806   7.350
51737SOL    HW157044  11.390  10.879   7.410
51737SOL    HW257045  11.344  10.737   7.383
51738SOL     OW57046  12.538  10.122   2.558
51738SOL    HW157047  12.582  10.041   2.533
51738SOL    HW257048  12.448  10.110   2.527
51739SOL     OW57049  12.930   9.694   3.279
51739SOL    HW157050  12.942   9.783   3.313
51739SOL    HW257051  12.972   9.638   3.344
51740SOL     OW57052  12.953  14.335  13.864
51740SOL    HW157053  12.864  14.351  13.834
51740SOL    HW257054  12.991  14.277  13.798
51741SOL     OW57055   4.770   9.325   3.184
51741SOL    HW157056   4.775   9.281   3.100
51741SOL    HW257057   4.691   9.379   3.179
51742SOL     OW57058   3.929  10.955  14.298
51742SOL    HW157059   4.007  10.924  14.253
51742SOL    HW257060   3.885  10.874  14.327
51743SOL     OW57061   9.436   7.673  10.868
51743SOL    HW157062   9.380   7.672  10.946
51743SOL    HW257063   9.501   7.605  10.885
51744SOL     OW57064   6.307  13.351  13.774
51744SOL    HW157065   6.356  13.338  13.855
51744SOL    HW257066   6.219  13.320  13.794
51745SOL     OW57067  14.344   0.063   5.778
51745SOL    HW157068  14.403  14.869   5.757
51745SOL    HW257069  14.267   0.048   5.723
51746SOL     OW57070   0.272   3.920   2.223
51746SOL    HW157071   0.330   3.855   2.262
51746SOL    HW257072   0.272   3.900   2.129
51747SOL     OW57073   5.532   0.078   8.045
51747SOL    HW157074   5.543  14.862   8.056
51747SOL    HW257075   5.479   0.104   8.121
51748SOL     OW57076   1.924   9.580   1.106
51748SOL    HW157077   1.843   9.614   1.069
51748SOL    HW257078   1.989   9.592   1.037
51749SOL     OW57079   8.005  11.793   0.804
51749SOL    HW157080   8.063  11.846   0.859
51749SOL    HW257081   8.065  11.744   0.747
51750SOL     OW57082   3.004  13.064   2.229
51750SOL    HW157083   2.954  13.139   2.260
51750SOL    HW257084   3.001  13.071   2.133
51751SOL     OW57085   4.920   1.691   9.729
51751SOL    HW157086   4.994   1.687   9.790
51751SOL    HW257087   4.877   1.774   9.750
51752SOL     OW57088   6.363   9.139  14.381
51752SOL    HW157089   6.325   9.226  14.388
51752SOL    HW257090   6.428   9.147  14.312
51753SOL     OW57091   4.625  10.185   6.523
51753SOL    HW157092   4.635  10.119   6.592
51753SOL    HW257093   4.679  10.153   6.451
51754SOL     OW57094   3.204   5.510  12.953
51754SOL    HW157095   3.132   5.513  12.891
51754SOL    HW257096   3.161   5.516  13.039
51755SOL     OW57097   6.696  10.365   1.477
51755SOL    HW157098   6.750  10.337   1.550
51755SOL    HW257099   6.734  10.448   1.449
51756SOL     OW57100   6.698   1.764  11.855
51756SOL    HW157101   6.713   1.743  11.947
51756SOL    HW257102   6.749   1.698  11.807
51757SOL     OW57103   2.271  12.530   0.589
51757SOL    HW157104   2.239  12.615   0.620
51757SOL    HW257105   2.367  12.540   0.588
51758SOL     OW57106   5.212   3.464  14.642
51758SOL    HW157107   5.154   3.467  14.718
51758SOL    HW257108   5.156   3.491  14.568
51759SOL     OW57109  12.555  13.064   6.081
51759SOL    HW157110  12.594  13.038   6.164
51759SOL    HW257111  12.485  13.126   6.105
51760SOL     OW57112  10.122  11.168   5.305
51760SOL    HW157113  10.137  11.160   5.399
51760SOL    HW257114  10.040  11.121   5.290
51761SOL     OW57115   6.023  11.016   2.847
51761SOL    HW157116   5.935  11.054   2.859
51761SOL    HW257117   6.065  11.074   2.783
51762SOL     OW57118   5.678   6.026   9.547
51762SOL    HW157119   5.772   6.016   9.535
51762SOL    HW257120   5.669   6.079   9.626
51763SOL     OW57121  12.257   9.572   6.269
51763SOL    HW157122  12.246   9.583   6.364
51763SOL    HW257123  12.217   9.487   6.250
51764SOL     OW57124   7.920   4.698   6.428
51764SOL    HW157125   7.955   4.684   6.516
51764SOL    HW257126   7.991   4.674   6.369
51765SOL     OW57127   1.360   6.659  11.373
51765SOL    HW157128   1.326   6.747  11.357
51765SOL    HW257129   1.440   6.673  11.423
51766SOL     OW57130   6.404   8.917  13.084
51766SOL    HW157131   6.410   8.857  13.158
51766SOL    HW257132   6.310   8.927  13.069
51767SOL     OW57133   5.959  13.015   6.569
51767SOL    HW157134   5.869  13.046   6.560
51767SOL    HW257135   6.013  13.092   6.549
51768SOL     OW57136  13.765  12.024  11.020
51768SOL    HW157137  13.791  11.932  11.022
51768SOL    HW257138  13.733  12.042  11.108
51769SOL     OW57139   4.668   2.153   2.791
51769SOL    HW157140   4.679   2.147   2.696
51769SOL    HW257141   4.757   2.155   2.825
51770SOL     OW57142  14.073   6.438  11.816
51770SOL    HW157143  13.997   6.459  11.870
51770SOL    HW257144  14.064   6.495  11.739
51771SOL     OW57145  14.384   2.208   0.513
51771SOL    HW157146  14.335   2.224   0.432
51771SOL    HW257147  14.324   2.233   0.583
51772SOL     OW57148   0.499  12.290  13.479
51772SOL    HW157149   0.498  12.384  13.464
51772SOL    HW257150   0.422  12.257  13.432
51773SOL     OW57151   1.141   4.489  13.440
51773SOL    HW157152   1.100   4.453  13.362
51773SOL    HW257153   1.197   4.418  13.473
51774SOL     OW57154  12.083   4.080   9.483
51774SOL    HW157155  12.019   4.128   9.431
51774SOL    HW257156  12.168   4.113   9.454
51775SOL     OW57157   7.608   4.267   8.046
51775SOL    HW157158   7.524   4.268   8.092
51775SOL    HW257159   7.674   4.266   8.116
51776SOL     OW57160   7.415   0.798  14.637
51776SOL    HW157161   7.500   0.815  14.678
51776SOL    HW257162   7.401   0.872  14.579
51777SOL     OW57163   3.822   9.386  11.290
51777SOL    HW157164   3.868   9.303  11.299
51777SOL    HW257165   3.766   9.374  11.213
51778SOL     OW57166   7.946  11.497   8.431
51778SOL    HW157167   7.911  11.572   8.479
51778SOL    HW257168   7.987  11.443   8.498
51779SOL     OW57169   4.963   3.920   6.840
51779SOL    HW157170   5.017   3.973   6.781
51779SOL    HW257171   5.002   3.833   6.836
51780SOL     OW57172   3.692  11.109   5.478
51780SOL    HW157173   3.767  11.131   5.423
51780SOL    HW257174   3.722  11.127   5.568
51781SOL     OW57175  12.643  14.527  12.394
51781SOL    HW157176  12.617  14.444  12.434
51781SOL    HW257177  12.629  14.514  12.300
51782SOL     OW57178  13.732  13.361   1.089
51782SOL    HW157179  13.675  13.438   1.085
51782SOL    HW257180  13.814  13.395   1.126
51783SOL     OW57181  12.307  11.118   3.169
51783SOL    HW157182  12.312  11.125   3.074
51783SOL    HW257183  12.227  11.164   3.193
51784SOL     OW57184   4.770   4.771   4.260
51784SOL    HW157185   4.678   4.745   4.264
51784SOL    HW257186   4.807   4.714   4.192
51785SOL     OW57187  14.776  10.613  11.908
51785SOL    HW157188  14.816  10.563  11.979
51785SOL    HW257189  14.845  10.671  11.877
51786SOL     OW57190   2.032  13.784  11.403
51786SOL    HW157191   2.012  13.693  11.424
51786SOL    HW257192   2.060  13.781  11.311
51787SOL     OW57193   2.445  10.623   9.438
51787SOL    HW157194   2.521  10.666   9.477
51787SOL    HW257195   2.370  10.665   9.480
51788SOL     OW57196   3.374   5.094   4.392
51788SOL    HW157197   3.422   5.011   4.395
51788SOL    HW257198   3.403   5.142   4.469
51789SOL     OW57199   3.467   8.588   2.851
51789SOL    HW157200   3.439   8.635   2.773
51789SOL    HW257201   3.459   8.651   2.922
51790SOL     OW57202   8.363   5.318   5.210
51790SOL    HW157203   8.301   5.379   5.171
51790SOL    HW257204   8.338   5.314   5.302
51791SOL     OW57205   9.323   1.994  11.292
51791SOL    HW157206   9.284   1.915  11.331
51791SOL    HW257207   9.251   2.058  11.292
51792SOL     OW57208   1.425   2.779  14.597
51792SOL    HW157209   1.430   2.869  14.564
51792SOL    HW257210   1.417   2.725  14.519
51793SOL     OW57211   8.223   0.248  12.367
51793SOL    HW157212   8.156   0.181  12.380
51793SOL    HW257213   8.177   0.331  12.378
51794SOL     OW57214   1.034   3.632   1.347
51794SOL    HW157215   1.014   3.725   1.351
51794SOL    HW257216   1.047   3.606   1.439
51795SOL     OW57217   6.196   5.693   6.789
51795SOL    HW157218   6.144   5.728   6.716
51795SOL    HW257219   6.275   5.747   6.790
51796SOL     OW57220   6.844   6.530   5.032
51796SOL    HW157221   6.833   6.625   5.028
51796SOL    HW257222   6.775   6.496   4.974
51797SOL     OW57223   4.719   5.850   6.430
51797SOL    HW157224   4.746   5.917   6.493
51797SOL    HW257225   4.623   5.857   6.429
51798SOL     OW57226   3.968   2.310   1.326
51798SOL    HW157227   4.043   2.317   1.385
51798SOL    HW257228   4.006   2.312   1.238
51799SOL     OW57229   3.496   9.334  13.378
51799SOL    HW157230   3.485   9.338  13.473
51799SOL    HW257231   3.553   9.260  13.363
51800SOL     OW57232  10.418   0.651   3.131
51800SOL    HW157233  10.455   0.678   3.215
51800SOL    HW257234  10.494   0.622   3.080
51801SOL     OW57235  10.337   3.989  11.217
51801SOL    HW157236  10.343   4.084  11.206
51801SOL    HW257237  10.410   3.966  11.274
51802SOL     OW57238   1.883   8.264   7.858
51802SOL    HW157239   1.862   8.258   7.764
51802SOL    HW257240   1.799   8.250   7.902
51803SOL     OW57241   6.423  10.590   7.646
51803SOL    HW157242   6.443  10.498   7.632
51803SOL    HW257243   6.486  10.637   7.591
51804SOL     OW57244  14.861   0.175   9.852
51804SOL    HW157245  14.790   0.232   9.883
51804SOL    HW257246   0.039   0.233   9.801
51805SOL     OW57247   2.363  13.942   0.188
51805SOL    HW157248   2.275  13.921   0.221
51805SOL    HW257249   2.358  13.926   0.094
51806SOL     OW57250   2.426  13.561   4.777
51806SOL    HW157251   2.419  13.470   4.804
51806SOL    HW257252   2.423  13.558   4.681
51807SOL     OW57253   3.012  12.389   6.030
51807SOL    HW157254   3.088  12.446   6.043
51807SOL    HW257255   2.942  12.430   6.081
51808SOL     OW57256   2.374   1.830   4.248
51808SOL    HW157257   2.469   1.821   4.247
51808SOL    HW257258   2.357   1.911   4.200
51809SOL     OW57259   9.778   5.014   9.782
51809SOL    HW157260   9.760   4.956   9.708
51809SOL    HW257261   9.782   4.956   9.858
51810SOL     OW57262   6.863  13.638   0.695
51810SOL    HW157263   6.885  13.729   0.717
51810SOL    HW257264   6.926  13.615   0.626
51811SOL     OW57265  14.168  12.021   7.299
51811SOL    HW157266  14.122  12.104   7.285
51811SOL    HW257267  14.132  11.987   7.381
51812SOL     OW57268   5.906   0.060   5.854
51812SOL    HW157269   5.827   0.098   5.891
51812SOL    HW257270   5.971   0.067   5.924
51813SOL     OW57271   8.781  13.118   0.756
51813SOL    HW157272   8.794  13.024   0.746
51813SOL    HW257273   8.787  13.153   0.667
51814SOL     OW57274   9.506   4.828   8.250
51814SOL    HW157275   9.539   4.811   8.338
51814SOL    HW257276   9.576   4.878   8.208
51815SOL     OW57277   5.571  14.441   4.639
51815SOL    HW157278   5.534  14.363   4.679
51815SOL    HW257279   5.660  14.446   4.674
51816SOL     OW57280  12.945  13.373   2.361
51816SOL    HW157281  12.886  13.412   2.296
51816SOL    HW257282  12.903  13.391   2.445
51817SOL     OW57283   9.304   6.479   4.815
51817SOL    HW157284   9.299   6.511   4.726
51817SOL    HW257285   9.366   6.538   4.858
51818SOL     OW57286   1.151   2.149   6.183
51818SOL    HW157287   1.232   2.124   6.137
51818SOL    HW257288   1.084   2.090   6.148
51819SOL     OW57289   2.276   3.598  12.529
51819SOL    HW157290   2.358   3.641  12.504
51819SOL    HW257291   2.270   3.611  12.624
51820SOL     OW57292  11.659   3.303   8.900
51820SOL    HW157293  11.747   3.273   8.921
51820SOL    HW257294  11.623   3.234   8.844
51821SOL     OW57295   1.501   4.587   8.848
51821SOL    HW157296   1.435   4.656   8.855
51821SOL    HW257297   1.449   4.506   8.844
51822SOL     OW57298   7.184   7.520   3.165
51822SOL    HW157299   7.193   7.432   3.127
51822SOL    HW257300   7.222   7.578   3.099
51823SOL     OW57301   5.211  11.145  11.531
51823SOL    HW157302   5.260  11.172  11.608
51823SOL    HW257303   5.176  11.058  11.553
51824SOL     OW57304  10.527   0.907   2.451
51824SOL    HW157305  10.582   0.830   2.437
51824SOL    HW257306  10.498   0.900   2.542
51825SOL     OW57307   5.992   9.261  11.827
51825SOL    HW157308   5.919   9.258  11.889
51825SOL    HW257309   5.959   9.219  11.748
51826SOL     OW57310  10.293   3.158  10.803
51826SOL    HW157311  10.265   3.073  10.836
51826SOL    HW257312  10.280   3.152  10.708
51827SOL     OW57313   1.438   9.160   8.101
51827SOL    HW157314   1.518   9.212   8.097
51827SOL    HW257315   1.467   9.073   8.129
51828SOL     OW57316   0.795  11.160   3.473
51828SOL    HW157317   0.774  11.114   3.392
51828SOL    HW257318   0.734  11.234   3.475
51829SOL     OW57319   6.673   2.025  14.099
51829SOL    HW157320   6.607   1.981  14.046
51829SOL    HW257321   6.651   2.118  14.093
51830SOL     OW57322   5.755  10.751  14.200
51830SOL    HW157323   5.821  10.718  14.140
51830SOL    HW257324   5.787  10.838  14.225
51831SOL     OW57325  11.817  10.366  10.563
51831SOL    HW157326  11.772  10.283  10.549
51831SOL    HW257327  11.878  10.373  10.489
51832SOL     OW57328   8.750   1.547  13.195
51832SOL    HW157329   8.772   1.638  13.177
51832SOL    HW257330   8.786   1.498  13.121
51833SOL     OW57331   5.265   8.891   8.209
51833SOL    HW157332   5.299   8.889   8.298
51833SOL    HW257333   5.337   8.927   8.157
51834SOL     OW57334   2.722  14.076   7.955
51834SOL    HW157335   2.668  14.155   7.962
51834SOL    HW257336   2.805  14.107   7.919
51835SOL     OW57337   0.331   6.858   2.463
51835SOL    HW157338   0.337   6.907   2.545
51835SOL    HW257339   0.277   6.783   2.484
51836SOL     OW57340   1.093  12.279   2.605
51836SOL    HW157341   1.184  12.289   2.577
51836SOL    HW257342   1.091  12.312   2.695
51837SOL     OW57343  11.530  10.992  13.494
51837SOL    HW157344  11.492  11.066  13.541
51837SOL    HW257345  11.583  11.031  13.425
51838SOL     OW57346  13.813  10.414  14.518
51838SOL    HW157347  13.903  10.409  14.485
51838SOL    HW257348  13.788  10.506  14.504
51839SOL     OW57349   0.267   1.245   8.431
51839SOL    HW157350   0.302   1.195   8.356
51839SOL    HW257351   0.186   1.200   8.453
51840SOL     OW57352  14.583  12.165   9.174
51840SOL    HW157353  14.494  12.191   9.197
51840SOL    HW257354  14.578  12.145   9.080
51841SOL     OW57355  10.765   2.249   8.110
51841SOL    HW157356  10.839   2.230   8.052
51841SOL    HW257357  10.720   2.322   8.069
51842SOL     OW57358   1.445   0.654   3.991
51842SOL    HW157359   1.362   0.688   3.958
51842SOL    HW257360   1.512   0.692   3.933
51843SOL     OW57361   4.048   5.407  14.505
51843SOL    HW157362   4.020   5.498  14.496
51843SOL    HW257363   3.970   5.361  14.536
51844SOL     OW57364   5.516   0.161  13.366
51844SOL    HW157365   5.473   0.075  13.366
51844SOL    HW257366   5.493   0.200  13.282
51845SOL     OW57367  11.857   1.125  14.620
51845SOL    HW157368  11.831   1.047  14.669
51845SOL    HW257369  11.777   1.154  14.576
51846SOL     OW57370  12.600   7.600  12.898
51846SOL    HW157371  12.599   7.508  12.870
51846SOL    HW257372  12.688   7.631  12.874
51847SOL     OW57373  13.162   7.643  12.201
51847SOL    HW157374  13.151   7.622  12.108
51847SOL    HW257375  13.249   7.683  12.207
51848SOL     OW57376  13.847   4.295   8.349
51848SOL    HW157377  13.839   4.233   8.277
51848SOL    HW257378  13.882   4.244   8.422
51849SOL     OW57379   0.792  12.555   6.129
51849SOL    HW157380   0.753  12.477   6.089
51849SOL    HW257381   0.886  12.545   6.114
51850SOL     OW57382   9.849  12.163   5.395
51850SOL    HW157383   9.911  12.236   5.392
51850SOL    HW257384   9.856  12.121   5.309
51851SOL     OW57385   3.237   8.632  12.087
51851SOL    HW157386   3.282   8.696  12.032
51851SOL    HW257387   3.222   8.557  12.030
51852SOL     OW57388   0.392   8.998  12.703
51852SOL    HW157389   0.385   9.021  12.611
51852SOL    HW257390   0.452   8.924  12.705
51853SOL     OW57391  12.461   7.350   3.362
51853SOL    HW157392  12.372   7.371   3.390
51853SOL    HW257393  12.490   7.428   3.315
51854SOL     OW57394  10.053   0.132  11.167
51854SOL    HW157395  10.142   0.136  11.130
51854SOL    HW257396  10.045   0.213  11.217
51855SOL     OW57397   1.206  10.197   9.733
51855SOL    HW157398   1.124  10.206   9.782
51855SOL    HW257399   1.274  10.213   9.798
51856SOL     OW57400   8.768   5.365  10.540
51856SOL    HW157401   8.674   5.383  10.543
51856SOL    HW257402   8.783   5.329  10.452
51857SOL     OW57403   5.608  12.150   1.121
51857SOL    HW157404   5.651  12.139   1.036
51857SOL    HW257405   5.631  12.238   1.149
51858SOL     OW57406   1.294   5.849   5.567
51858SOL    HW157407   1.249   5.863   5.650
51858SOL    HW257408   1.241   5.895   5.502
51859SOL     OW57409   4.738  13.068   4.558
51859SOL    HW157410   4.670  13.004   4.580
51859SOL    HW257411   4.770  13.041   4.472
51860SOL     OW57412  12.530  10.931   9.468
51860SOL    HW157413  12.524  10.964   9.557
51860SOL    HW257414  12.496  10.842   9.473
51861SOL     OW57415   6.389  11.110   0.776
51861SOL    HW157416   6.399  11.160   0.858
51861SOL    HW257417   6.362  11.023   0.805
51862SOL     OW57418   6.793   5.731  10.824
51862SOL    HW157419   6.714   5.764  10.781
51862SOL    HW257420   6.860   5.733  10.755
51863SOL     OW57421   4.545   5.987   8.473
51863SOL    HW157422   4.623   5.933   8.460
51863SOL    HW257423   4.555   6.060   8.412
51864SOL     OW57424  10.774   7.708  13.149
51864SOL    HW157425  10.726   7.773  13.097
51864SOL    HW257426  10.866   7.732  13.136
51865SOL     OW57427  13.295   1.326   2.400
51865SOL    HW157428  13.202   1.322   2.423
51865SOL    HW257429  13.340   1.282   2.472
51866SOL     OW57430  11.045   4.769   0.401
51866SOL    HW157431  11.081   4.681   0.413
51866SOL    HW257432  10.953   4.754   0.377
51867SOL     OW57433  14.449   9.694  13.370
51867SOL    HW157434  14.409   9.687  13.283
51867SOL    HW257435  14.486   9.607  13.386
51868SOL     OW57436  11.836  12.081   5.816
51868SOL    HW157437  11.750  12.040   5.807
51868SOL    HW257438  11.897  12.018   5.775
51869SOL     OW57439  10.013   4.267   3.780
51869SOL    HW157440   9.967   4.210   3.842
51869SOL    HW257441  10.067   4.207   3.728
51870SOL     OW57442   1.308   9.544  11.079
51870SOL    HW157443   1.327   9.453  11.099
51870SOL    HW257444   1.375   9.570  11.016
51871SOL     OW57445   5.391   2.062  12.781
51871SOL    HW157446   5.395   1.967  12.770
51871SOL    HW257447   5.444   2.079  12.858
51872SOL     OW57448   9.880   2.606  14.091
51872SOL    HW157449   9.840   2.617  14.177
51872SOL    HW257450   9.888   2.695  14.057
51873SOL     OW57451  10.364   5.593   4.477
51873SOL    HW157452  10.424   5.666   4.492
51873SOL    HW257453  10.419   5.525   4.439
51874SOL     OW57454   9.873   0.146   2.881
51874SOL    HW157455   9.919   0.128   2.963
51874SOL    HW257456   9.781   0.149   2.906
51875SOL     OW57457   8.362  11.291  10.650
51875SOL    HW157458   8.290  11.234  10.678
51875SOL    HW257459   8.322  11.354  10.591
51876SOL     OW57460  12.174   5.099   1.615
51876SOL    HW157461  12.174   5.029   1.680
51876SOL    HW257462  12.123   5.170   1.656
51877SOL     OW57463   3.365  14.428   2.945
51877SOL    HW157464   3.303  14.369   2.902
51877SOL    HW257465   3.320  14.513   2.946
51878SOL     OW57466   0.888   9.368   7.223
51878SOL    HW157467   0.803   9.355   7.265
51878SOL    HW257468   0.950   9.318   7.277
51879SOL     OW57469  14.370  12.313   7.453
51879SOL    HW157470  14.330  12.321   7.366
51879SOL    HW257471  14.323  12.376   7.507
51880SOL     OW57472   8.909  12.261   7.299
51880SOL    HW157473   8.879  12.203   7.369
51880SOL    HW257474   8.910  12.207   7.220
51881SOL     OW57475   5.381   1.288   7.637
51881SOL    HW157476   5.426   1.307   7.719
51881SOL    HW257477   5.394   1.366   7.583
51882SOL     OW57478  13.363   9.907   7.628
51882SOL    HW157479  13.317   9.948   7.555
51882SOL    HW257480  13.456   9.914   7.605
51883SOL     OW57481  13.350   6.493   2.903
51883SOL    HW157482  13.443   6.472   2.898
51883SOL    HW257483  13.343   6.582   2.869
51884SOL     OW57484   7.264   5.123   9.382
51884SOL    HW157485   7.349   5.089   9.410
51884SOL    HW257486   7.206   5.047   9.381
51885SOL     OW57487   3.610   5.596  10.482
51885SOL    HW157488   3.525   5.581  10.441
51885SOL    HW257489   3.667   5.529  10.443
51886SOL     OW57490   5.525   7.466   5.572
51886SOL    HW157491   5.521   7.561   5.563
51886SOL    HW257492   5.618   7.446   5.578
51887SOL     OW57493   3.722   0.890  10.889
51887SOL    HW157494   3.777   0.959  10.850
51887SOL    HW257495   3.633   0.921  10.878
51888SOL     OW57496   0.699   6.692   2.150
51888SOL    HW157497   0.660   6.710   2.236
51888SOL    HW257498   0.652   6.615   2.118
51889SOL     OW57499   8.043   4.347   2.142
51889SOL    HW157500   8.100   4.272   2.157
51889SOL    HW257501   7.995   4.358   2.224
51890SOL     OW57502   5.158  12.152  10.522
51890SOL    HW157503   5.201  12.180  10.603
51890SOL    HW257504   5.125  12.064  10.541
51891SOL     OW57505   0.312   9.040   5.193
51891SOL    HW157506   0.334   9.083   5.276
51891SOL    HW257507   0.287   8.952   5.218
51892SOL     OW57508  11.620   5.930  11.142
51892SOL    HW157509  11.529   5.949  11.121
51892SOL    HW257510  11.617   5.854  11.200
51893SOL     OW57511   6.634   5.532  11.571
51893SOL    HW157512   6.717   5.568  11.603
51893SOL    HW257513   6.609   5.466  11.636
51894SOL     OW57514   8.221  14.766   5.221
51894SOL    HW157515   8.285  14.811   5.167
51894SOL    HW257516   8.142  14.762   5.166
51895SOL     OW57517   4.924   3.341  14.091
51895SOL    HW157518   4.846   3.322  14.144
51895SOL    HW257519   4.891   3.398  14.021
51896SOL     OW57520   0.592  10.546  11.363
51896SOL    HW157521   0.547  10.609  11.307
51896SOL    HW257522   0.531  10.532  11.436
51897SOL     OW57523   9.354   5.030   9.246
51897SOL    HW157524   9.334   5.026   9.339
51897SOL    HW257525   9.441   5.069   9.241
51898SOL     OW57526   7.612  12.107   0.645
51898SOL    HW157527   7.605  12.176   0.579
51898SOL    HW257528   7.698  12.120   0.684
51899SOL     OW57529   3.789   8.688   8.806
51899SOL    HW157530   3.865   8.731   8.844
51899SOL    HW257531   3.787   8.719   8.715
51900SOL     OW57532   9.395   9.559   7.928
51900SOL    HW157533   9.384   9.615   8.005
51900SOL    HW257534   9.365   9.473   7.958
51901SOL     OW57535   6.842   3.349   4.515
51901SOL    HW157536   6.841   3.374   4.422
51901SOL    HW257537   6.802   3.262   4.517
51902SOL     OW57538   9.349  10.759   7.461
51902SOL    HW157539   9.388  10.816   7.395
51902SOL    HW257540   9.419  10.746   7.525
51903SOL     OW57541   9.421   8.273  10.382
51903SOL    HW157542   9.458   8.242  10.299
51903SOL    HW257543   9.439   8.203  10.444
51904SOL     OW57544  11.306   0.667  11.283
51904SOL    HW157545  11.386   0.664  11.337
51904SOL    HW257546  11.269   0.579  11.291
51905SOL     OW57547   4.079  12.552  12.400
51905SOL    HW157548   4.116  12.473  12.439
51905SOL    HW257549   4.017  12.584  12.465
51906SOL     OW57550  14.154   8.675  11.409
51906SOL    HW157551  14.209   8.601  11.383
51906SOL    HW257552  14.171   8.742  11.342
51907SOL     OW57553  10.172   8.007   9.014
51907SOL    HW157554  10.233   8.050   9.074
51907SOL    HW257555  10.096   7.988   9.068
51908SOL     OW57556  11.800  12.597   9.917
51908SOL    HW157557  11.814  12.690   9.900
51908SOL    HW257558  11.844  12.553   9.844
51909SOL     OW57559   0.350   2.030   9.781
51909SOL    HW157560   0.279   2.062   9.836
51909SOL    HW257561   0.420   2.008   9.843
51910SOL     OW57562  11.202   7.005   4.073
51910SOL    HW157563  11.203   6.940   4.143
51910SOL    HW257564  11.292   7.034   4.065
51911SOL     OW57565  11.554  14.528   4.236
51911SOL    HW157566  11.475  14.503   4.188
51911SOL    HW257567  11.619  14.545   4.168
51912SOL     OW57568   0.049  10.128  13.202
51912SOL    HW157569  14.876  10.193  13.154
51912SOL    HW257570   0.107  10.090  13.135
51913SOL     OW57571   8.399   7.625   9.338
51913SOL    HW157572   8.455   7.556   9.373
51913SOL    HW257573   8.454   7.672   9.275
51914SOL     OW57574  10.139  14.507   7.634
51914SOL    HW157575  10.168  14.598   7.638
51914SOL    HW257576  10.122  14.483   7.725
51915SOL     OW57577   1.810   3.462   3.081
51915SOL    HW157578   1.783   3.551   3.060
51915SOL    HW257579   1.853   3.469   3.166
51916SOL     OW57580   2.257   2.861   9.131
51916SOL    HW157581   2.221   2.924   9.068
51916SOL    HW257582   2.264   2.910   9.212
51917SOL     OW57583  14.131   0.368  11.838
51917SOL    HW157584  14.123   0.463  11.848
51917SOL    HW257585  14.209   0.357  11.785
51918SOL     OW57586  10.236  13.437  13.069
51918SOL    HW157587  10.150  13.443  13.027
51918SOL    HW257588  10.245  13.344  13.091
51919SOL     OW57589   4.855   5.574   6.471
51919SOL    HW157590   4.915   5.620   6.413
51919SOL    HW257591   4.780   5.633   6.480
51920SOL     OW57592   4.218  12.792   4.659
51920SOL    HW157593   4.150  12.769   4.595
51920SOL    HW257594   4.220  12.887   4.659
51921SOL     OW57595   9.091   0.537   1.635
51921SOL    HW157596   9.026   0.498   1.693
51921SOL    HW257597   9.058   0.520   1.547
51922SOL     OW57598   0.718   0.723  13.939
51922SOL    HW157599   0.670   0.745  14.018
51922SOL    HW257600   0.761   0.640  13.959
51923SOL     OW57601  12.703   3.741   1.102
51923SOL    HW157602  12.754   3.742   1.183
51923SOL    HW257603  12.640   3.669   1.114
51924SOL     OW57604   3.139   9.089   2.044
51924SOL    HW157605   3.135   9.010   1.990
51924SOL    HW257606   3.210   9.071   2.106
51925SOL     OW57607  11.748   7.044   3.401
51925SOL    HW157608  11.723   7.136   3.396
51925SOL    HW257609  11.746   7.024   3.494
51926SOL     OW57610  13.072   1.479   4.796
51926SOL    HW157611  13.064   1.435   4.711
51926SOL    HW257612  13.096   1.569   4.775
51927SOL     OW57613  11.664   1.091   8.820
51927SOL    HW157614  11.631   1.047   8.741
51927SOL    HW257615  11.657   1.184   8.800
51928SOL     OW57616   3.281   1.484   8.940
51928SOL    HW157617   3.329   1.566   8.927
51928SOL    HW257618   3.195   1.500   8.899
51929SOL     OW57619   0.779   1.702  10.838
51929SOL    HW157620   0.851   1.672  10.783
51929SOL    HW257621   0.720   1.746  10.778
51930SOL     OW57622   9.096   3.407   9.794
51930SOL    HW157623   9.143   3.459   9.858
51930SOL    HW257624   9.165   3.366   9.741
51931SOL     OW57625   4.213  11.700   0.965
51931SOL    HW157626   4.264  11.627   1.001
51931SOL    HW257627   4.193  11.754   1.041
51932SOL     OW57628   2.486   9.383   8.659
51932SOL    HW157629   2.448   9.301   8.690
51932SOL    HW257630   2.414   9.446   8.663
51933SOL     OW57631   9.705   0.606   6.493
51933SOL    HW157632   9.735   0.545   6.426
51933SOL    HW257633   9.708   0.692   6.450
51934SOL     OW57634  10.842  12.230  12.202
51934SOL    HW157635  10.801  12.277  12.129
51934SOL    HW257636  10.852  12.296  12.270
51935SOL     OW57637   3.604   1.336   7.695
51935SOL    HW157638   3.647   1.333   7.781
51935SOL    HW257639   3.512   1.317   7.714
51936SOL     OW57640   1.344   2.238  12.521
51936SOL    HW157641   1.279   2.306  12.505
51936SOL    HW257642   1.311   2.162  12.473
51937SOL     OW57643   5.774   6.171   1.024
51937SOL    HW157644   5.762   6.264   1.004
51937SOL    HW257645   5.830   6.171   1.102
51938SOL     OW57646  10.953   5.233   1.890
51938SOL    HW157647  11.019   5.168   1.866
51938SOL    HW257648  10.991   5.317   1.863
51939SOL     OW57649   6.708   0.522   0.311
51939SOL    HW157650   6.650   0.459   0.268
51939SOL    HW257651   6.702   0.501   0.404
51940SOL     OW57652   7.095  11.072   1.171
51940SOL    HW157653   7.070  11.161   1.148
51940SOL    HW257654   7.183  11.061   1.136
51941SOL     OW57655  12.635   1.489   5.973
51941SOL    HW157656  12.702   1.557   5.976
51941SOL    HW257657  12.679   1.410   6.005
51942SOL     OW57658  13.755  11.399  12.346
51942SOL    HW157659  13.775  11.487  12.315
51942SOL    HW257660  13.694  11.412  12.418
51943SOL     OW57661   8.885  11.228   4.607
51943SOL    HW157662   8.886  11.165   4.534
51943SOL    HW257663   8.977  11.237   4.632
51944SOL     OW57664  14.447   2.446   9.944
51944SOL    HW157665  14.439   2.351   9.952
51944SOL    HW257666  14.357   2.476   9.928
51945SOL     OW57667   6.778  11.128   8.728
51945SOL    HW157668   6.769  11.187   8.652
51945SOL    HW257669   6.784  11.040   8.689
51946SOL     OW57670   8.259   3.118   7.250
51946SOL    HW157671   8.271   3.209   7.225
51946SOL    HW257672   8.236   3.073   7.168
51947SOL     OW57673  13.146  10.966   0.260
51947SOL    HW157674  13.227  10.988   0.215
51947SOL    HW257675  13.174  10.943   0.349
51948SOL     OW57676   7.198  12.480   5.069
51948SOL    HW157677   7.139  12.549   5.099
51948SOL    HW257678   7.207  12.422   5.144
51949SOL     OW57679   3.321   4.023   0.442
51949SOL    HW157680   3.336   4.000   0.534
51949SOL    HW257681   3.247   4.084   0.445
51950SOL     OW57682  14.347   3.897  11.289
51950SOL    HW157683  14.317   3.816  11.330
51950SOL    HW257684  14.269   3.952  11.285
51951SOL     OW57685   4.036  13.934   9.334
51951SOL    HW157686   4.080  13.862   9.380
51951SOL    HW257687   4.049  14.010   9.390
51952SOL     OW57688   2.284  11.278  10.704
51952SOL    HW157689   2.371  11.308  10.676
51952SOL    HW257690   2.226  11.351  10.683
51953SOL     OW57691   0.282   0.858   0.397
51953SOL    HW157692   0.243   0.771   0.386
51953SOL    HW257693   0.238   0.894   0.475
51954SOL     OW57694   5.704   7.433  10.666
51954SOL    HW157695   5.791   7.393  10.669
51954SOL    HW257696   5.691   7.455  10.574
51955SOL     OW57697  11.412  11.297   6.655
51955SOL    HW157698  11.495  11.253   6.635
51955SOL    HW257699  11.398  11.279   6.748
51956SOL     OW57700   2.515  14.227   2.642
51956SOL    HW157701   2.581  14.295   2.629
51956SOL    HW257702   2.441  14.256   2.588
51957SOL     OW57703   6.326  14.624  14.595
51957SOL    HW157704   6.250  14.629  14.653
51957SOL    HW257705   6.338  14.530  14.580
51958SOL     OW57706   0.972  12.232   5.870
51958SOL    HW157707   0.979  12.197   5.958
51958SOL    HW257708   0.987  12.157   5.813
51959SOL     OW57709  11.349   1.902   9.540
51959SOL    HW157710  11.392   1.987   9.549
51959SOL    HW257711  11.306   1.888   9.624
51960SOL     OW57712   1.532  14.515   4.004
51960SOL    HW157713   1.496  14.432   4.035
51960SOL    HW257714   1.627  14.505   4.011
51961SOL     OW57715  10.438   3.388   2.084
51961SOL    HW157716  10.400   3.313   2.129
51961SOL    HW257717  10.377   3.460   2.102
51962SOL     OW57718  14.588  12.966   9.942
51962SOL    HW157719  14.493  12.960   9.954
51962SOL    HW257720  14.603  12.937   9.852
51963SOL     OW57721  13.894  14.605   9.801
51963SOL    HW157722  13.965  14.554   9.840
51963SOL    HW257723  13.908  14.694   9.833
51964SOL     OW57724   2.730   5.519   6.944
51964SOL    HW157725   2.760   5.576   6.873
51964SOL    HW257726   2.807   5.505   6.998
51965SOL     OW57727   8.768   1.556   8.958
51965SOL    HW157728   8.834   1.601   9.011
51965SOL    HW257729   8.818   1.509   8.892
51966SOL     OW57730  14.803  10.970   7.124
51966SOL    HW157731  14.865  10.965   7.052
51966SOL    HW257732  14.837  10.909   7.189
51967SOL     OW57733   5.048   1.945  14.173
51967SOL    HW157734   4.971   1.891  14.157
51967SOL    HW257735   5.035   1.980  14.261
51968SOL     OW57736   7.053   8.300   0.772
51968SOL    HW157737   7.081   8.327   0.859
51968SOL    HW257738   7.067   8.377   0.717
51969SOL     OW57739  13.807   4.239  13.550
51969SOL    HW157740  13.797   4.334  13.558
51969SOL    HW257741  13.731   4.210  13.500
51970SOL     OW57742  13.727   4.294  10.142
51970SOL    HW157743  13.725   4.279  10.237
51970SOL    HW257744  13.647   4.252  10.109
51971SOL     OW57745   9.122  11.258   6.788
51971SOL    HW157746   9.065  11.182   6.795
51971SOL    HW257747   9.172  11.258   6.870
51972SOL     OW57748   2.028   8.172   5.525
51972SOL    HW157749   2.086   8.155   5.451
51972SOL    HW257750   1.946   8.127   5.502
51973SOL     OW57751   8.152   8.594   5.241
51973SOL    HW157752   8.193   8.525   5.293
51973SOL    HW257753   8.144   8.558   5.153
51974SOL     OW57754   6.714  13.880   1.613
51974SOL    HW157755   6.629  13.924   1.615
51974SOL    HW257756   6.772  13.935   1.666
51975SOL     OW57757   9.562  14.606  14.599
51975SOL    HW157758   9.550  14.677  14.661
51975SOL    HW257759   9.496  14.621  14.532
51976SOL     OW57760   4.680  12.547   6.480
51976SOL    HW157761   4.700  12.455   6.462
51976SOL    HW257762   4.592  12.545   6.517
51977SOL     OW57763   9.321   7.279   2.194
51977SOL    HW157764   9.288   7.290   2.105
51977SOL    HW257765   9.416   7.272   2.184
51978SOL     OW57766   7.034  11.367  13.912
51978SOL    HW157767   6.940  11.385  13.909
51978SOL    HW257768   7.044  11.289  13.858
51979SOL     OW57769   4.332  11.374   9.175
51979SOL    HW157770   4.297  11.382   9.264
51979SOL    HW257771   4.347  11.465   9.148
51980SOL     OW57772   2.570   0.949  13.551
51980SOL    HW157773   2.662   0.975  13.542
51980SOL    HW257774   2.528   1.024  13.593
51981SOL     OW57775   6.373  13.839   0.362
51981SOL    HW157776   6.462  13.833   0.328
51981SOL    HW257777   6.331  13.907   0.309
51982SOL     OW57778   5.562   3.811   4.784
51982SOL    HW157779   5.500   3.779   4.849
51982SOL    HW257780   5.648   3.793   4.821
51983SOL     OW57781  14.410   3.206   8.353
51983SOL    HW157782  14.347   3.269   8.389
51983SOL    HW257783  14.477   3.198   8.420
51984SOL     OW57784   5.537   1.857   8.740
51984SOL    HW157785   5.599   1.880   8.671
51984SOL    HW257786   5.451   1.866   8.699
51985SOL     OW57787   7.923  11.545  12.482
51985SOL    HW157788   7.952  11.634  12.502
51985SOL    HW257789   7.899  11.548  12.389
51986SOL     OW57790  14.176  10.735  13.169
51986SOL    HW157791  14.251  10.676  13.173
51986SOL    HW257792  14.105  10.681  13.135
51987SOL     OW57793  11.585   0.463   5.550
51987SOL    HW157794  11.521   0.392   5.540
51987SOL    HW257795  11.547   0.518   5.619
51988SOL     OW57796  12.682   2.696  12.585
51988SOL    HW157797  12.588   2.680  12.589
51988SOL    HW257798  12.712   2.649  12.508
51989SOL     OW57799   3.530   7.794  11.249
51989SOL    HW157800   3.442   7.758  11.258
51989SOL    HW257801   3.517   7.887  11.229
51990SOL     OW57802  10.416  13.485   0.490
51990SOL    HW157803  10.423  13.519   0.401
51990SOL    HW257804  10.461  13.400   0.486
51991SOL     OW57805  11.610  12.933  10.814
51991SOL    HW157806  11.568  12.895  10.737
51991SOL    HW257807  11.658  13.009  10.779
51992SOL     OW57808  11.772  10.960   3.049
51992SOL    HW157809  11.716  11.000   3.116
51992SOL    HW257810  11.776  10.868   3.073
51993SOL     OW57811   8.237   6.440  12.916
51993SOL    HW157812   8.271   6.516  12.964
51993SOL    HW257813   8.157   6.416  12.962
51994SOL     OW57814  13.708  11.537  12.810
51994SOL    HW157815  13.653  11.563  12.736
51994SOL    HW257816  13.683  11.446  12.828
51995SOL     OW57817   4.122   9.056   4.269
51995SOL    HW157818   4.084   9.064   4.181
51995SOL    HW257819   4.196   9.116   4.269
51996SOL     OW57820   6.971   8.006   7.068
51996SOL    HW157821   6.943   8.079   7.124
51996SOL    HW257822   7.019   8.048   6.997
51997SOL     OW57823   5.420  13.080  11.446
51997SOL    HW157824   5.371  13.135  11.385
51997SOL    HW257825   5.498  13.131  11.468
51998SOL     OW57826  12.208   7.458  14.531
51998SOL    HW157827  12.272   7.393  14.559
51998SOL    HW257828  12.260   7.536  14.511
51999SOL     OW57829   7.165  13.484   1.883
51999SOL    HW157830   7.220  13.493   1.805
51999SOL    HW257831   7.160  13.389   1.898
52000SOL     OW57832   9.297  12.880   3.364
52000SOL    HW157833   9.314  12.960   3.413
52000SOL    HW257834   9.372  12.823   3.382
52001SOL     OW57835  13.535   0.087  10.444
52001SOL    HW157836  13.605   0.063  10.505
52001SOL    HW257837  13.575   0.080  10.358
52002SOL     OW57838   8.179   9.545   8.605
52002SOL    HW157839   8.244   9.594   8.655
52002SOL    HW257840   8.095   9.576   8.638
52003SOL     OW57841   3.519   1.021  11.006
52003SOL    HW157842   3.487   1.044  11.093
52003SOL    HW257843   3.461   1.068  10.946
52004SOL     OW57844   6.595   5.802  12.553
52004SOL    HW157845   6.584   5.897  12.554
52004SOL    HW257846   6.685   5.788  12.523
52005SOL     OW57847  14.471  13.557   4.223
52005SOL    HW157848  14.501  13.527   4.309
52005SOL    HW257849  14.376  13.564   4.232
52006SOL     OW57850  13.461   7.319  11.143
52006SOL    HW157851  13.537   7.375  11.123
52006SOL    HW257852  13.475   7.240  11.091
52007SOL     OW57853   0.626  14.438  13.328
52007SOL    HW157854   0.591  14.385  13.399
52007SOL    HW257855   0.674  14.377  13.273
52008SOL     OW57856  10.340  10.936   3.783
52008SOL    HW157857  10.388  10.933   3.865
52008SOL    HW257858  10.404  10.909   3.717
52009SOL     OW57859   5.760  10.481   9.468
52009SOL    HW157860   5.682  10.481   9.413
52009SOL    HW257861   5.732  10.439   9.549
52010SOL     OW57862   2.027   4.328   1.068
52010SOL    HW157863   1.995   4.316   0.979
52010SOL    HW257864   1.971   4.272   1.122
52011SOL     OW57865   6.845   4.093   7.219
52011SOL    HW157866   6.901   4.155   7.266
52011SOL    HW257867   6.782   4.062   7.284
52012SOL     OW57868   3.291   5.653  12.136
52012SOL    HW157869   3.363   5.692  12.187
52012SOL    HW257870   3.212   5.688  12.178
52013SOL     OW57871   2.002   7.437   7.823
52013SOL    HW157872   2.054   7.378   7.877
52013SOL    HW257873   2.040   7.430   7.735
52014SOL     OW57874   3.924  12.480  10.484
52014SOL    HW157875   4.006  12.459  10.441
52014SOL    HW257876   3.870  12.401  10.473
52015SOL     OW57877   6.501   6.188   5.822
52015SOL    HW157878   6.536   6.277   5.822
52015SOL    HW257879   6.578   6.132   5.827
52016SOL     OW57880  10.736  10.716   1.960
52016SOL    HW157881  10.797  10.645   1.981
52016SOL    HW257882  10.669  10.710   2.027
52017SOL     OW57883   4.636  10.295   8.534
52017SOL    HW157884   4.618  10.389   8.539
52017SOL    HW257885   4.581  10.256   8.602
52018SOL     OW57886   5.504   3.811   8.728
52018SOL    HW157887   5.423   3.780   8.689
52018SOL    HW257888   5.572   3.783   8.668
52019SOL     OW57889   8.959   2.541   8.540
52019SOL    HW157890   9.004   2.623   8.518
52019SOL    HW257891   8.979   2.483   8.467
52020SOL     OW57892  11.138  10.381  10.708
52020SOL    HW157893  11.157  10.423  10.792
52020SOL    HW257894  11.223  10.376  10.663
52021SOL     OW57895  12.195   2.188  13.983
52021SOL    HW157896  12.152   2.121  14.037
52021SOL    HW257897  12.128   2.255  13.971
52022SOL     OW57898  14.146   6.126   3.698
52022SOL    HW157899  14.081   6.072   3.654
52022SOL    HW257900  14.102   6.157   3.777
52023SOL     OW57901   4.460  12.771  12.430
52023SOL    HW157902   4.480  12.685  12.467
52023SOL    HW257903   4.494  12.767  12.341
52024SOL     OW57904   3.483   0.355   6.747
52024SOL    HW157905   3.484   0.342   6.653
52024SOL    HW257906   3.549   0.423   6.763
52025SOL     OW57907   9.753   4.746   8.749
52025SOL    HW157908   9.680   4.723   8.807
52025SOL    HW257909   9.825   4.768   8.808
52026SOL     OW57910   9.193   2.378   7.401
52026SOL    HW157911   9.159   2.465   7.423
52026SOL    HW257912   9.167   2.322   7.474
52027SOL     OW57913  13.493  10.641   5.898
52027SOL    HW157914  13.426  10.575   5.915
52027SOL    HW257915  13.532  10.659   5.983
52028SOL     OW57916   8.914   8.628   6.143
52028SOL    HW157917   8.945   8.597   6.058
52028SOL    HW257918   8.878   8.715   6.125
52029SOL     OW57919   6.609  14.026   9.007
52029SOL    HW157920   6.607  14.103   9.063
52029SOL    HW257921   6.702  14.008   8.994
52030SOL     OW57922   9.930  10.164   0.968
52030SOL    HW157923   9.852  10.160   0.912
52030SOL    HW257924   9.994  10.214   0.917
52031SOL     OW57925   6.389   7.195  10.293
52031SOL    HW157926   6.432   7.110  10.296
52031SOL    HW257927   6.445   7.247  10.234
52032SOL     OW57928  14.344  14.387  12.436
52032SOL    HW157929  14.261  14.354  12.468
52032SOL    HW257930  14.332  14.397  12.341
52033SOL     OW57931   9.566   9.861   1.654
52033SOL    HW157932   9.599   9.850   1.743
52033SOL    HW257933   9.522   9.778   1.634
52034SOL     OW57934  12.123  13.581   1.987
52034SOL    HW157935  12.178  13.541   1.919
52034SOL    HW257936  12.131  13.521   2.062
52035SOL     OW57937   8.452  11.329   6.817
52035SOL    HW157938   8.409  11.415   6.821
52035SOL    HW257939   8.403  11.276   6.880
52036SOL     OW57940  10.379   5.328   2.817
52036SOL    HW157941  10.326   5.384   2.873
52036SOL    HW257942  10.463   5.374   2.808
52037SOL     OW57943   5.282   1.963   5.815
52037SOL    HW157944   5.232   1.913   5.879
52037SOL    HW257945   5.367   1.918   5.811
52038SOL     OW57946   6.333   1.368  10.588
52038SOL    HW157947   6.279   1.367  10.509
52038SOL    HW257948   6.311   1.451  10.631
52039SOL     OW57949   6.421   3.362   0.123
52039SOL    HW157950   6.370   3.418   0.065
52039SOL    HW257951   6.508   3.403   0.124
52040SOL     OW57952   4.990  14.423  11.065
52040SOL    HW157953   5.017  14.440  11.155
52040SOL    HW257954   5.066  14.382  11.024
52041SOL     OW57955  12.634   4.472   6.445
52041SOL    HW157956  12.678   4.441   6.524
52041SOL    HW257957  12.552   4.422   6.442
52042SOL     OW57958  13.621   0.939   7.590
52042SOL    HW157959  13.566   1.012   7.618
52042SOL    HW257960  13.697   0.943   7.648
52043SOL     OW57961   4.436   0.473   9.316
52043SOL    HW157962   4.343   0.455   9.332
52043SOL    HW257963   4.457   0.421   9.238
52044SOL     OW57964   5.678   3.958   6.829
52044SOL    HW157965   5.648   4.022   6.764
52044SOL    HW257966   5.726   4.010   6.893
52045SOL     OW57967   1.599  11.181  10.221
52045SOL    HW157968   1.544  11.119  10.173
52045SOL    HW257969   1.642  11.233  10.153
52046SOL     OW57970  11.995  14.431   4.761
52046SOL    HW157971  11.959  14.459   4.845
52046SOL    HW257972  12.019  14.512   4.717
52047SOL     OW57973   8.367   2.610  13.075
52047SOL    HW157974   8.462   2.601  13.065
52047SOL    HW257975   8.331   2.569  12.997
52048SOL     OW57976   1.859   5.881   0.074
52048SOL    HW157977   1.905   5.960   0.105
52048SOL    HW257978   1.915   5.846   0.005
52049SOL     OW57979  10.592   3.137   4.573
52049SOL    HW157980  10.501   3.164   4.560
52049SOL    HW257981  10.586   3.045   4.599
52050SOL     OW57982   5.923   1.702   6.819
52050SOL    HW157983   5.993   1.763   6.796
52050SOL    HW257984   5.919   1.704   6.914
52051SOL     OW57985   2.685   8.253   2.865
52051SOL    HW157986   2.596   8.260   2.901
52051SOL    HW257987   2.711   8.163   2.885
52052SOL     OW57988  11.244  12.496  11.060
52052SOL    HW157989  11.202  12.566  11.010
52052SOL    HW257990  11.315  12.540  11.107
52053SOL     OW57991  14.813   1.008   4.121
52053SOL    HW157992  14.762   1.073   4.074
52053SOL    HW257993  14.830   0.939   4.057
52054SOL     OW57994   9.070   4.207   9.021
52054SOL    HW157995   9.001   4.240   8.963
52054SOL    HW257996   9.095   4.282   9.075
52055SOL     OW57997   9.440   2.730   7.934
52055SOL    HW157998   9.418   2.723   7.841
52055SOL    HW257999   9.465   2.822   7.946
52056SOL     OW58000  12.137  12.232   0.157
52056SOL    HW158001  12.115  12.161   0.216
52056SOL    HW258002  12.211  12.199   0.105
52057SOL     OW58003   3.301   2.844  11.207
52057SOL    HW158004   3.364   2.846  11.135
52057SOL    HW258005   3.247   2.922  11.194
52058SOL     OW58006   4.416  10.661   8.694
52058SOL    HW158007   4.442  10.638   8.604
52058SOL    HW258008   4.371  10.584   8.727
52059SOL     OW58009   2.002   3.555   2.137
52059SOL    HW158010   1.928   3.588   2.086
52059SOL    HW258011   2.078   3.598   2.098
52060SOL     OW58012   2.933   3.358  12.155
52060SOL    HW158013   2.993   3.285  12.143
52060SOL    HW258014   2.872   3.329  12.222
52061SOL     OW58015  13.767   3.563   8.107
52061SOL    HW158016  13.685   3.515   8.122
52061SOL    HW258017  13.762   3.592   8.016
52062SOL     OW58018   1.626   9.342  13.758
52062SOL    HW158019   1.639   9.278  13.688
52062SOL    HW258020   1.661   9.299  13.836
52063SOL     OW58021  11.016  12.974   7.314
52063SOL    HW158022  11.020  13.018   7.229
52063SOL    HW258023  11.068  12.895   7.303
52064SOL     OW58024  11.274   3.619   6.185
52064SOL    HW158025  11.236   3.697   6.144
52064SOL    HW258026  11.321   3.653   6.261
52065SOL     OW58027  12.828   6.135   8.249
52065SOL    HW158028  12.921   6.116   8.243
52065SOL    HW258029  12.802   6.159   8.160
52066SOL     OW58030  14.250   5.763  12.091
52066SOL    HW158031  14.184   5.711  12.138
52066SOL    HW258032  14.284   5.824  12.156
52067SOL     OW58033   2.685   8.467   1.296
52067SOL    HW158034   2.679   8.543   1.239
52067SOL    HW258035   2.635   8.399   1.251
52068SOL     OW58036  13.498   6.077   6.396
52068SOL    HW158037  13.460   6.054   6.312
52068SOL    HW258038  13.428   6.121   6.444
52069SOL     OW58039   4.837  13.549   1.961
52069SOL    HW158040   4.869  13.480   2.019
52069SOL    HW258041   4.773  13.596   2.013
52070SOL     OW58042   9.501  13.047  12.998
52070SOL    HW158043   9.442  13.123  13.006
52070SOL    HW258044   9.488  12.999  13.080
52071SOL     OW58045   3.455   9.534   2.376
52071SOL    HW158046   3.486   9.554   2.288
52071SOL    HW258047   3.516   9.580   2.434
52072SOL     OW58048   4.307   5.743   8.591
52072SOL    HW158049   4.353   5.665   8.559
52072SOL    HW258050   4.289   5.794   8.512
52073SOL     OW58051   7.474   9.883  12.753
52073SOL    HW158052   7.401   9.822  12.761
52073SOL    HW258053   7.436   9.969  12.771
52074SOL     OW58054  12.467   8.647   1.065
52074SOL    HW158055  12.425   8.613   0.986
52074SOL    HW258056  12.418   8.607   1.137
52075SOL     OW58057  13.308   4.582  10.218
52075SOL    HW158058  13.368   4.553  10.150
52075SOL    HW258059  13.307   4.510  10.281
52076SOL     OW58060   7.466   6.231   7.689
52076SOL    HW158061   7.470   6.320   7.723
52076SOL    HW258062   7.528   6.182   7.743
52077SOL     OW58063   8.040   7.708  10.464
52077SOL    HW158064   8.058   7.646  10.393
52077SOL    HW258065   8.059   7.659  10.544
52078SOL     OW58066   8.604   1.407   9.220
52078SOL    HW158067   8.575   1.382   9.308
52078SOL    HW258068   8.691   1.444   9.233
52079SOL     OW58069   4.024  11.553   6.164
52079SOL    HW158070   3.941  11.596   6.186
52079SOL    HW258071   3.998  11.471   6.120
52080SOL     OW58072   4.282   8.352   2.201
52080SOL    HW158073   4.203   8.300   2.192
52080SOL    HW258074   4.327   8.342   2.117
52081SOL     OW58075   0.428  13.664  14.298
52081SOL    HW158076   0.346  13.621  14.275
52081SOL    HW258077   0.495  13.598  14.282
52082SOL     OW58078   7.804   7.935  13.054
52082SOL    HW158079   7.825   7.848  13.021
52082SOL    HW258080   7.762   7.920  13.138
52083SOL     OW58081   5.874   7.952   1.912
52083SOL    HW158082   5.951   7.897   1.924
52083SOL    HW258083   5.819   7.934   1.989
52084SOL     OW58084  12.206  12.808  14.146
52084SOL    HW158085  12.160  12.881  14.187
52084SOL    HW258086  12.224  12.837  14.057
52085SOL     OW58087   6.009   5.746  10.404
52085SOL    HW158088   6.096   5.725  10.438
52085SOL    HW258089   6.014   5.724  10.311
52086SOL     OW58090  12.149  14.145  13.873
52086SOL    HW158091  12.232  14.147  13.825
52086SOL    HW258092  12.148  14.058  13.914
52087SOL     OW58093   1.315   2.957   1.692
52087SOL    HW158094   1.229   2.998   1.691
52087SOL    HW258095   1.297   2.863   1.697
52088SOL     OW58096   5.403   8.096   4.389
52088SOL    HW158097   5.319   8.133   4.360
52088SOL    HW258098   5.402   8.107   4.484
52089SOL     OW58099  12.786   5.952   3.571
52089SOL    HW158100  12.797   5.906   3.654
52089SOL    HW258101  12.858   6.015   3.569
52090SOL     OW58102   0.774  12.357   8.757
52090SOL    HW158103   0.813  12.405   8.831
52090SOL    HW258104   0.825  12.387   8.681
52091SOL     OW58105   8.081   4.650  13.950
52091SOL    HW158106   8.016   4.697  14.002
52091SOL    HW258107   8.143   4.718  13.923
52092SOL     OW58108   9.444   6.175   7.643
52092SOL    HW158109   9.495   6.094   7.633
52092SOL    HW258110   9.468   6.229   7.568
52093SOL     OW58111   8.432  11.270  11.949
52093SOL    HW158112   8.397  11.357  11.964
52093SOL    HW258113   8.469  11.273  11.860
52094SOL     OW58114   6.480   8.375   8.868
52094SOL    HW158115   6.419   8.394   8.939
52094SOL    HW258116   6.442   8.416   8.791
52095SOL     OW58117   3.000   3.827   0.017
52095SOL    HW158118   2.940   3.752   0.013
52095SOL    HW258119   3.024   3.833   0.110
52096SOL     OW58120   7.697  10.662   2.899
52096SOL    HW158121   7.786  10.690   2.875
52096SOL    HW258122   7.640  10.727   2.858
52097SOL     OW58123  10.792   9.462   9.192
52097SOL    HW158124  10.748   9.540   9.225
52097SOL    HW258125  10.723   9.411   9.149
52098SOL     OW58126  11.008   6.771   4.943
52098SOL    HW158127  11.081   6.768   4.881
52098SOL    HW258128  10.935   6.730   4.897
52099SOL     OW58129  13.682   7.829   8.181
52099SOL    HW158130  13.587   7.826   8.174
52099SOL    HW258131  13.700   7.791   8.267
52100SOL     OW58132   6.367  10.358   1.219
52100SOL    HW158133   6.357  10.452   1.232
52100SOL    HW258134   6.392  10.324   1.305
52101SOL     OW58135  10.018   7.957   1.849
52101SOL    HW158136   9.946   7.907   1.811
52101SOL    HW258137  10.022   8.037   1.796
52102SOL     OW58138  10.376   8.207  14.491
52102SOL    HW158139  10.354   8.283  14.545
52102SOL    HW258140  10.433   8.241  14.422
52103SOL     OW58141  14.782   6.583  13.284
52103SOL    HW158142  14.830   6.553  13.361
52103SOL    HW258143  14.796   6.678  13.282
52104SOL     OW58144   3.146  10.496  10.105
52104SOL    HW158145   3.170  10.408  10.076
52104SOL    HW258146   3.050  10.499  10.100
52105SOL     OW58147   1.838   0.275   4.235
52105SOL    HW158148   1.926   0.302   4.259
52105SOL    HW258149   1.786   0.288   4.314
52106SOL     OW58150   7.032  11.672   8.931
52106SOL    HW158151   7.032  11.694   9.024
52106SOL    HW258152   7.100  11.729   8.894
52107SOL     OW58153  13.827   9.112  11.821
52107SOL    HW158154  13.920   9.090  11.822
52107SOL    HW258155  13.816   9.176  11.892
52108SOL     OW58156   4.954   9.690  14.874
52108SOL    HW158157   4.863   9.708   0.018
52108SOL    HW258158   4.962   9.717  14.783
52109SOL     OW58159   1.167   8.088   4.660
52109SOL    HW158160   1.201   8.106   4.748
52109SOL    HW258161   1.101   8.156   4.646
52110SOL     OW58162   3.762   0.471   2.860
52110SOL    HW158163   3.786   0.481   2.952
52110SOL    HW258164   3.790   0.553   2.819
52111SOL     OW58165  12.029  14.698   6.610
52111SOL    HW158166  12.055  14.783   6.646
52111SOL    HW258167  11.962  14.667   6.671
52112SOL     OW58168   5.291   4.117   2.440
52112SOL    HW158169   5.385   4.129   2.453
52112SOL    HW258170   5.277   4.134   2.347
52113SOL     OW58171   7.420   1.758  11.530
52113SOL    HW158172   7.415   1.838  11.479
52113SOL    HW258173   7.454   1.785  11.615
52114SOL     OW58174   5.324  11.006   2.955
52114SOL    HW158175   5.239  10.977   2.924
52114SOL    HW258176   5.305  11.072   3.022
52115SOL     OW58177  14.112  13.002   2.355
52115SOL    HW158178  14.171  13.017   2.281
52115SOL    HW258179  14.057  13.080   2.359
52116SOL     OW58180   0.963  10.998   9.660
52116SOL    HW158181   0.951  11.047   9.741
52116SOL    HW258182   0.894  10.931   9.662
52117SOL     OW58183   6.663  13.389   0.316
52117SOL    HW158184   6.584  13.407   0.265
52117SOL    HW258185   6.643  13.308   0.363
52118SOL     OW58186  13.615  12.708   2.019
52118SOL    HW158187  13.549  12.742   1.958
52118SOL    HW258188  13.648  12.785   2.064
52119SOL     OW58189   4.003  14.125   2.585
52119SOL    HW158190   4.075  14.068   2.612
52119SOL    HW258191   4.041  14.213   2.585
52120SOL     OW58192   2.499   6.870   9.340
52120SOL    HW158193   2.544   6.873   9.425
52120SOL    HW258194   2.478   6.778   9.327
52121SOL     OW58195   5.679   1.854  11.470
52121SOL    HW158196   5.704   1.807  11.391
52121SOL    HW258197   5.761   1.861  11.520
52122SOL     OW58198   4.833  10.284  13.944
52122SOL    HW158199   4.752  10.330  13.966
52122SOL    HW258200   4.821  10.196  13.981
52123SOL     OW58201  11.122   8.582  12.652
52123SOL    HW158202  11.119   8.639  12.575
52123SOL    HW258203  11.066   8.508  12.629
52124SOL     OW58204   3.410   7.414  11.763
52124SOL    HW158205   3.422   7.359  11.841
52124SOL    HW258206   3.452   7.365  11.693
52125SOL     OW58207  14.174  12.530   3.642
52125SOL    HW158208  14.102  12.485   3.686
52125SOL    HW258209  14.238  12.546   3.711
52126SOL     OW58210  10.733   7.672  13.425
52126SOL    HW158211  10.775   7.684  13.340
52126SOL    HW258212  10.768   7.589  13.457
52127SOL     OW58213   1.918   6.862   7.936
52127SOL    HW158214   1.916   6.915   7.857
52127SOL    HW258215   1.991   6.801   7.923
52128SOL     OW58216   1.400  14.738   3.957
52128SOL    HW158217   1.433  14.649   3.970
52128SOL    HW258218   1.448  14.791   4.021
52129SOL     OW58219   8.499  12.717   2.648
52129SOL    HW158220   8.468  12.641   2.698
52129SOL    HW258221   8.487  12.692   2.556
52130SOL     OW58222   0.980  12.721   4.307
52130SOL    HW158223   1.029  12.801   4.324
52130SOL    HW258224   0.905  12.725   4.367
52131SOL     OW58225  13.512   2.067   8.677
52131SOL    HW158226  13.550   2.077   8.765
52131SOL    HW258227  13.421   2.093   8.687
52132SOL     OW58228   8.770   4.429   4.131
52132SOL    HW158229   8.773   4.424   4.035
52132SOL    HW258230   8.678   4.412   4.153
52133SOL     OW58231   7.111  10.582  10.724
52133SOL    HW158232   7.042  10.569  10.659
52133SOL    HW258233   7.076  10.648  10.784
52134SOL     OW58234   1.746   7.108   6.991
52134SOL    HW158235   1.662   7.070   7.015
52134SOL    HW258236   1.790   7.124   7.075
52135SOL     OW58237   8.559   0.471   0.510
52135SOL    HW158238   8.612   0.396   0.482
52135SOL    HW258239   8.470   0.436   0.515
52136SOL     OW58240  14.198   9.182   3.357
52136SOL    HW158241  14.201   9.138   3.272
52136SOL    HW258242  14.238   9.268   3.341
52137SOL     OW58243  11.948  11.999  11.501
52137SOL    HW158244  11.976  12.045  11.580
52137SOL    HW258245  12.029  11.958  11.468
52138SOL     OW58246   8.022  10.124   5.187
52138SOL    HW158247   7.970  10.189   5.140
52138SOL    HW258248   8.078  10.085   5.119
52139SOL     OW58249   0.459   7.933   1.864
52139SOL    HW158250   0.499   7.998   1.922
52139SOL    HW258251   0.383   7.901   1.913
52140SOL     OW58252  14.500   2.470  10.434
52140SOL    HW158253  14.457   2.556  10.440
52140SOL    HW258254  14.455   2.425  10.363
52141SOL     OW58255   0.766   9.949   9.070
52141SOL    HW158256   0.708   9.978   8.999
52141SOL    HW258257   0.707   9.916   9.138
52142SOL     OW58258  11.360   7.126  13.242
52142SOL    HW158259  11.314   7.043  13.251
52142SOL    HW258260  11.441   7.104  13.197
52143SOL     OW58261   3.646   7.794  11.520
52143SOL    HW158262   3.682   7.764  11.604
52143SOL    HW258263   3.720   7.793  11.460
52144SOL     OW58264   6.794  12.433  13.615
52144SOL    HW158265   6.841  12.414  13.696
52144SOL    HW258266   6.743  12.354  13.598
52145SOL     OW58267  14.097   3.535   2.728
52145SOL    HW158268  14.135   3.558   2.643
52145SOL    HW258269  14.118   3.442   2.739
52146SOL     OW58270  14.080   9.297   2.499
52146SOL    HW158271  14.113   9.328   2.583
52146SOL    HW258272  14.152   9.248   2.460
52147SOL     OW58273   6.008   2.874  12.700
52147SOL    HW158274   5.999   2.939  12.630
52147SOL    HW258275   5.925   2.878  12.748
52148SOL     OW58276   7.950   1.482   9.152
52148SOL    HW158277   7.993   1.496   9.237
52148SOL    HW258278   7.859   1.463   9.175
52149SOL     OW58279   9.908  10.689  14.204
52149SOL    HW158280   9.965  10.716  14.276
52149SOL    HW258281   9.891  10.597  14.220
52150SOL     OW58282  11.765   2.307   8.659
52150SOL    HW158283  11.709   2.385   8.659
52150SOL    HW258284  11.710   2.237   8.694
52151SOL     OW58285   5.026   0.972   0.038
52151SOL    HW158286   5.102   0.915   0.052
52151SOL    HW258287   4.958   0.914   0.005
52152SOL     OW58288   9.649   4.412  12.912
52152SOL    HW158289   9.660   4.419  12.817
52152SOL    HW258290   9.595   4.488  12.935
52153SOL     OW58291  10.507   9.835   5.880
52153SOL    HW158292  10.500   9.801   5.791
52153SOL    HW258293  10.480   9.762   5.936
52154SOL     OW58294   8.133  13.222  12.285
52154SOL    HW158295   8.108  13.138  12.322
52154SOL    HW258296   8.222  13.209  12.252
52155SOL     OW58297   2.816   2.098  12.496
52155SOL    HW158298   2.882   2.033  12.521
52155SOL    HW258299   2.835   2.174  12.550
52156SOL     OW58300   7.091  10.438  14.821
52156SOL    HW158301   7.161  10.375  14.803
52156SOL    HW258302   7.122  10.487   0.018
52157SOL     OW58303   8.437   4.789  14.435
52157SOL    HW158304   8.493   4.783  14.357
52157SOL    HW258305   8.476   4.729  14.498
52158SOL     OW58306   1.643  11.530   4.154
52158SOL    HW158307   1.591  11.595   4.201
52158SOL    HW258308   1.654  11.567   4.067
52159SOL     OW58309   1.304  10.337  11.424
52159SOL    HW158310   1.363  10.263  11.438
52159SOL    HW258311   1.361  10.414  11.428
52160SOL     OW58312   2.876   1.174   5.135
52160SOL    HW158313   2.959   1.197   5.176
52160SOL    HW258314   2.828   1.126   5.202
52161SOL     OW58315  14.619   2.655  10.042
52161SOL    HW158316  14.562   2.703  10.102
52161SOL    HW258317  14.564   2.585  10.007
52162SOL     OW58318   0.533   0.438  12.830
52162SOL    HW158319   0.603   0.445  12.765
52162SOL    HW258320   0.457   0.408  12.781
52163SOL     OW58321   4.157   1.334   5.196
52163SOL    HW158322   4.064   1.333   5.175
52163SOL    HW258323   4.179   1.242   5.212
52164SOL     OW58324  11.424   6.818  12.789
52164SOL    HW158325  11.465   6.766  12.721
52164SOL    HW258326  11.337   6.838  12.756
52165SOL     OW58327   4.725   7.113   1.695
52165SOL    HW158328   4.718   7.110   1.790
52165SOL    HW258329   4.678   7.192   1.669
52166SOL     OW58330  11.854  13.266   4.864
52166SOL    HW158331  11.931  13.209   4.855
52166SOL    HW258332  11.804  13.252   4.784
52167SOL     OW58333   8.473   8.904   1.885
52167SOL    HW158334   8.546   8.842   1.891
52167SOL    HW258335   8.505   8.982   1.931
52168SOL     OW58336  11.905  13.800   8.016
52168SOL    HW158337  11.842  13.869   7.994
52168SOL    HW258338  11.990  13.841   8.005
52169SOL     OW58339   5.208   0.426   7.961
52169SOL    HW158340   5.230   0.333   7.966
52169SOL    HW258341   5.200   0.453   8.053
52170SOL     OW58342   1.385   6.913   2.205
52170SOL    HW158343   1.375   6.970   2.282
52170SOL    HW258344   1.313   6.937   2.148
52171SOL     OW58345   3.301  13.763   6.646
52171SOL    HW158346   3.242  13.791   6.576
52171SOL    HW258347   3.294  13.668   6.647
52172SOL     OW58348  14.091   8.723  14.609
52172SOL    HW158349  14.098   8.673  14.527
52172SOL    HW258350  14.034   8.797  14.587
52173SOL     OW58351  12.082  11.615   8.087
52173SOL    HW158352  12.129  11.630   8.169
52173SOL    HW258353  12.093  11.522   8.070
52174SOL     OW58354   3.771   8.024  10.260
52174SOL    HW158355   3.795   8.080  10.187
52174SOL    HW258356   3.840   7.958  10.263
52175SOL     OW58357   3.394  14.125  12.063
52175SOL    HW158358   3.332  14.125  12.136
52175SOL    HW258359   3.462  14.062  12.090
52176SOL     OW58360   0.993  11.053   7.441
52176SOL    HW158361   0.921  11.102   7.481
52176SOL    HW258362   1.030  11.113   7.376
52177SOL     OW58363   3.622   3.589  11.789
52177SOL    HW158364   3.581   3.515  11.745
52177SOL    HW258365   3.577   3.596  11.873
52178SOL     OW58366   5.401   2.998   9.677
52178SOL    HW158367   5.478   3.044   9.643
52178SOL    HW258368   5.414   2.996   9.772
52179SOL     OW58369   2.725   0.050   0.240
52179SOL    HW158370   2.643   0.039   0.192
52179SOL    HW258371   2.785   0.088   0.175
52180SOL     OW58372   0.254   5.304   0.168
52180SOL    HW158373   0.241   5.364   0.094
52180SOL    HW258374   0.243   5.359   0.246
52181SOL     OW58375   5.675   2.152   9.577
52181SOL    HW158376   5.710   2.191   9.657
52181SOL    HW258377   5.751   2.119   9.530
52182SOL     OW58378  14.532   9.539  10.351
52182SOL    HW158379  14.489   9.472  10.405
52182SOL    HW258380  14.536   9.500  10.263
52183SOL     OW58381   4.014   7.920  11.880
52183SOL    HW158382   4.091   7.922  11.823
52183SOL    HW258383   4.045   7.957  11.963
52184SOL     OW58384   8.523   4.172   8.757
52184SOL    HW158385   8.577   4.164   8.678
52184SOL    HW258386   8.572   4.231   8.814
52185SOL     OW58387   9.804  14.510  13.687
52185SOL    HW158388   9.715  14.538  13.665
52185SOL    HW258389   9.847  14.589  13.719
52186SOL     OW58390   7.075  12.165   3.571
52186SOL    HW158391   7.124  12.175   3.489
52186SOL    HW258392   7.096  12.243   3.621
52187SOL     OW58393   4.223   9.945   0.612
52187SOL    HW158394   4.154   9.893   0.570
52187SOL    HW258395   4.238   9.901   0.695
52188SOL     OW58396  10.511  13.971   1.752
52188SOL    HW158397  10.439  13.919   1.789
52188SOL    HW258398  10.590  13.933   1.790
52189SOL     OW58399   5.539   1.827   2.491
52189SOL    HW158400   5.452   1.797   2.463
52189SOL    HW258401   5.600   1.770   2.444
52190SOL     OW58402   8.539  12.075   0.402
52190SOL    HW158403   8.632  12.084   0.423
52190SOL    HW258404   8.532  12.100   0.310
52191SOL     OW58405   4.003  10.183   3.291
52191SOL    HW158406   4.012  10.164   3.384
52191SOL    HW258407   3.981  10.276   3.287
52192SOL     OW58408   5.103   0.204   0.061
52192SOL    HW158409   5.082   0.131   0.119
52192SOL    HW258410   5.020   0.225   0.017
52193SOL     OW58411  11.820   3.657  12.799
52193SOL    HW158412  11.851   3.738  12.758
52193SOL    HW258413  11.775   3.685  12.878
52194SOL     OW58414   2.715  14.256   3.875
52194SOL    HW158415   2.768  14.178   3.892
52194SOL    HW258416   2.741  14.284   3.786
52195SOL     OW58417  12.100   8.938   6.560
52195SOL    HW158418  12.030   8.890   6.604
52195SOL    HW258419  12.147   8.982   6.632
52196SOL     OW58420  12.552   3.724   0.275
52196SOL    HW158421  12.614   3.784   0.234
52196SOL    HW258422  12.589   3.706   0.361
52197SOL     OW58423  14.696  10.815   9.280
52197SOL    HW158424  14.777  10.784   9.240
52197SOL    HW258425  14.695  10.776   9.367
52198SOL     OW58426   9.787   8.573  14.264
52198SOL    HW158427   9.854   8.599  14.328
52198SOL    HW258428   9.838   8.540  14.190
52199SOL     OW58429   1.660   7.661   5.894
52199SOL    HW158430   1.659   7.693   5.984
52199SOL    HW258431   1.750   7.630   5.881
52200SOL     OW58432  13.276   6.296  12.516
52200SOL    HW158433  13.197   6.302  12.569
52200SOL    HW258434  13.346   6.329  12.573
52201SOL     OW58435   4.137  11.441   7.390
52201SOL    HW158436   4.156  11.352   7.362
52201SOL    HW258437   4.110  11.487   7.310
52202SOL     OW58438   8.729   3.400   9.357
52202SOL    HW158439   8.642   3.434   9.334
52202SOL    HW258440   8.772   3.473   9.401
52203SOL     OW58441   4.355  12.992   4.386
52203SOL    HW158442   4.308  13.064   4.343
52203SOL    HW258443   4.373  13.024   4.474
52204SOL     OW58444   3.326  13.090   6.944
52204SOL    HW158445   3.317  13.031   6.869
52204SOL    HW258446   3.412  13.131   6.932
52205SOL     OW58447   1.888   7.501   5.293
52205SOL    HW158448   1.849   7.453   5.220
52205SOL    HW258449   1.931   7.434   5.345
52206SOL     OW58450  12.334   0.804   9.942
52206SOL    HW158451  12.402   0.746   9.979
52206SOL    HW258452  12.266   0.744   9.912
52207SOL     OW58453   4.214   3.065   0.390
52207SOL    HW158454   4.120   3.055   0.400
52207SOL    HW258455   4.236   3.015   0.311
52208SOL     OW58456  13.162   7.537  14.577
52208SOL    HW158457  13.160   7.559  14.670
52208SOL    HW258458  13.095   7.594  14.538
52209SOL     OW58459   4.148  12.593  11.118
52209SOL    HW158460   4.168  12.502  11.098
52209SOL    HW258461   4.165  12.601  11.212
52210SOL     OW58462   7.449   9.693   8.537
52210SOL    HW158463   7.379   9.728   8.482
52210SOL    HW258464   7.520   9.674   8.475
52211SOL     OW58465   0.950  13.813  14.773
52211SOL    HW158466   0.999  13.800  14.691
52211SOL    HW258467   0.989  13.751  14.834
52212SOL     OW58468   3.840   5.107   6.630
52212SOL    HW158469   3.859   5.040   6.564
52212SOL    HW258470   3.761   5.150   6.599
52213SOL     OW58471   0.748   9.856   9.593
52213SOL    HW158472   0.836   9.838   9.628
52213SOL    HW258473   0.729   9.945   9.623
52214SOL     OW58474   9.985  11.723  12.058
52214SOL    HW158475   9.969  11.629  12.044
52214SOL    HW258476  10.080  11.730  12.069
52215SOL     OW58477   1.898  11.745   5.168
52215SOL    HW158478   1.898  11.839   5.188
52215SOL    HW258479   1.825  11.732   5.108
52216SOL     OW58480   3.431  14.707   6.318
52216SOL    HW158481   3.408  14.621   6.283
52216SOL    HW258482   3.526  14.707   6.324
52217SOL     OW58483   3.305  12.199   9.594
52217SOL    HW158484   3.341  12.199   9.505
52217SOL    HW258485   3.229  12.141   9.589
52218SOL     OW58486   2.214  10.489   0.624
52218SOL    HW158487   2.230  10.581   0.606
52218SOL    HW258488   2.201  10.485   0.719
52219SOL     OW58489   5.876   4.555  13.054
52219SOL    HW158490   5.968   4.539  13.035
52219SOL    HW258491   5.864   4.649  13.038
52220SOL     OW58492  13.639  11.756  10.810
52220SOL    HW158493  13.630  11.667  10.842
52220SOL    HW258494  13.704  11.796  10.868
52221SOL     OW58495  10.483  14.041   7.918
52221SOL    HW158496  10.530  14.117   7.885
52221SOL    HW258497  10.478  13.982   7.843
52222SOL     OW58498   2.801  12.652   1.134
52222SOL    HW158499   2.772  12.581   1.191
52222SOL    HW258500   2.846  12.609   1.062
52223SOL     OW58501  10.905   1.134   1.314
52223SOL    HW158502  10.962   1.099   1.246
52223SOL    HW258503  10.872   1.056   1.359
52224SOL     OW58504  14.365  11.271   2.781
52224SOL    HW158505  14.327  11.195   2.737
52224SOL    HW258506  14.300  11.297   2.845
52225SOL     OW58507   5.479   9.452   6.542
52225SOL    HW158508   5.399   9.399   6.534
52225SOL    HW258509   5.484   9.500   6.460
52226SOL     OW58510   5.432  12.660  10.154
52226SOL    HW158511   5.465  12.746  10.130
52226SOL    HW258512   5.505  12.618  10.200
52227SOL     OW58513   8.989   2.189   2.293
52227SOL    HW158514   8.968   2.258   2.355
52227SOL    HW258515   9.020   2.235   2.215
52228SOL     OW58516   9.351   9.109   6.552
52228SOL    HW158517   9.266   9.140   6.584
52228SOL    HW258518   9.363   9.155   6.469
52229SOL     OW58519   5.177  14.511   1.848
52229SOL    HW158520   5.176  14.429   1.897
52229SOL    HW258521   5.261  14.552   1.870
52230SOL     OW58522  10.263  10.665  11.675
52230SOL    HW158523  10.337  10.606  11.694
52230SOL    HW258524  10.246  10.710  11.758
52231SOL     OW58525   6.045   2.225   9.333
52231SOL    HW158526   6.120   2.166   9.325
52231SOL    HW258527   6.059   2.291   9.265
52232SOL     OW58528   4.924   4.302  10.661
52232SOL    HW158529   4.971   4.298  10.745
52232SOL    HW258530   4.862   4.375  10.673
52233SOL     OW58531   7.723   7.170  14.393
52233SOL    HW158532   7.689   7.242  14.447
52233SOL    HW258533   7.645   7.135  14.350
52234SOL     OW58534   0.319   4.690   5.371
52234SOL    HW158535   0.255   4.746   5.325
52234SOL    HW258536   0.327   4.730   5.458
52235SOL     OW58537   4.709   1.438   4.402
52235SOL    HW158538   4.712   1.347   4.372
52235SOL    HW258539   4.686   1.431   4.494
52236SOL     OW58540  14.041   8.539   7.536
52236SOL    HW158541  13.957   8.570   7.503
52236SOL    HW258542  14.103   8.608   7.510
52237SOL     OW58543   9.091   3.421  11.291
52237SOL    HW158544   9.120   3.395  11.378
52237SOL    HW258545   9.165   3.468  11.253
52238SOL     OW58546   1.604  13.596  11.621
52238SOL    HW158547   1.633  13.681  11.586
52238SOL    HW258548   1.518  13.614  11.660
52239SOL     OW58549   6.296   1.734  12.661
52239SOL    HW158550   6.326   1.651  12.623
52239SOL    HW258551   6.361   1.798  12.634
52240SOL     OW58552   2.420   4.274  11.540
52240SOL    HW158553   2.403   4.234  11.625
52240SOL    HW258554   2.514   4.262  11.526
52241SOL     OW58555   8.633   7.703  11.348
52241SOL    HW158556   8.666   7.769  11.287
52241SOL    HW258557   8.572   7.650  11.297
52242SOL     OW58558   6.544   9.616  10.851
52242SOL    HW158559   6.577   9.538  10.896
52242SOL    HW258560   6.505   9.581  10.771
52243SOL     OW58561  10.689   5.580   4.013
52243SOL    HW158562  10.669   5.639   3.941
52243SOL    HW258563  10.773   5.611   4.046
52244SOL     OW58564  10.431   6.131   5.642
52244SOL    HW158565  10.455   6.135   5.549
52244SOL    HW258566  10.427   6.223   5.669
52245SOL     OW58567   7.965   1.093  13.856
52245SOL    HW158568   7.876   1.057  13.852
52245SOL    HW258569   7.973   1.145  13.776
52246SOL     OW58570   1.835   7.285  13.675
52246SOL    HW158571   1.852   7.222  13.604
52246SOL    HW258572   1.865   7.240  13.754
52247SOL     OW58573   1.820   2.046  11.031
52247SOL    HW158574   1.847   2.091  11.112
52247SOL    HW258575   1.902   2.032  10.983
52248SOL     OW58576   4.136   1.100   8.426
52248SOL    HW158577   4.190   1.029   8.460
52248SOL    HW258578   4.056   1.096   8.479
52249SOL     OW58579   8.112  13.393  11.619
52249SOL    HW158580   8.025  13.396  11.658
52249SOL    HW258581   8.165  13.345  11.682
52250SOL     OW58582   7.685  12.097  13.132
52250SOL    HW158583   7.774  12.104  13.098
52250SOL    HW258584   7.650  12.185  13.127
52251SOL     OW58585  11.039  13.755  14.334
52251SOL    HW158586  11.049  13.729  14.426
52251SOL    HW258587  11.108  13.707  14.288
52252SOL     OW58588  12.146   4.985  10.735
52252SOL    HW158589  12.079   4.976  10.802
52252SOL    HW258590  12.203   5.055  10.768
52253SOL     OW58591  14.390   5.378   7.356
52253SOL    HW158592  14.405   5.285   7.338
52253SOL    HW258593  14.353   5.380   7.444
52254SOL     OW58594  12.442   3.986   6.342
52254SOL    HW158595  12.526   3.998   6.298
52254SOL    HW258596  12.385   4.052   6.303
52255SOL     OW58597   5.686   9.269  10.844
52255SOL    HW158598   5.606   9.260  10.792
52255SOL    HW258599   5.755   9.280  10.779
52256SOL     OW58600  14.139   9.858   2.415
52256SOL    HW158601  14.104   9.868   2.504
52256SOL    HW258602  14.216   9.803   2.426
52257SOL     OW58603   0.003   0.941   9.861
52257SOL    HW158604  14.799   0.899   9.837
52257SOL    HW258605   0.049   0.954   9.779
52258SOL     OW58606  10.466   0.320  12.151
52258SOL    HW158607  10.460   0.414  12.133
52258SOL    HW258608  10.383   0.298  12.193
52259SOL     OW58609  12.400   6.226   0.926
52259SOL    HW158610  12.307   6.235   0.906
52259SOL    HW258611  12.432   6.316   0.931
52260SOL     OW58612  12.562   0.441   6.522
52260SOL    HW158613  12.478   0.419   6.563
52260SOL    HW258614  12.550   0.417   6.430
52261SOL     OW58615   8.373   6.541   2.300
52261SOL    HW158616   8.419   6.621   2.324
52261SOL    HW258617   8.293   6.543   2.353
52262SOL     OW58618  12.551  12.685   8.505
52262SOL    HW158619  12.634  12.698   8.460
52262SOL    HW258620  12.491  12.747   8.463
52263SOL     OW58621  10.061  14.666  13.063
52263SOL    HW158622   9.989  14.724  13.088
52263SOL    HW258623  10.078  14.686  12.971
52264SOL     OW58624  14.116   2.200  11.526
52264SOL    HW158625  14.036   2.252  11.513
52264SOL    HW258626  14.141   2.174  11.438
52265SOL     OW58627   4.852   5.524   7.257
52265SOL    HW158628   4.942   5.500   7.277
52265SOL    HW258629   4.846   5.519   7.162
52266SOL     OW58630   5.261   4.179  11.855
52266SOL    HW158631   5.241   4.122  11.781
52266SOL    HW258632   5.356   4.194  11.849
52267SOL     OW58633   1.353  11.815   7.712
52267SOL    HW158634   1.381  11.792   7.800
52267SOL    HW258635   1.431  11.852   7.671
52268SOL     OW58636   5.488   1.545   9.362
52268SOL    HW158637   5.481   1.455   9.394
52268SOL    HW258638   5.497   1.536   9.268
52269SOL     OW58639  14.497   0.102  12.681
52269SOL    HW158640  14.474   0.085  12.773
52269SOL    HW258641  14.545   0.185  12.684
52270SOL     OW58642   6.271   1.136   4.966
52270SOL    HW158643   6.296   1.193   5.038
52270SOL    HW258644   6.194   1.178   4.928
52271SOL     OW58645   5.684   1.191  12.997
52271SOL    HW158646   5.688   1.156  12.908
52271SOL    HW258647   5.659   1.117  13.051
52272SOL     OW58648  11.754   4.096   1.589
52272SOL    HW158649  11.844   4.125   1.573
52272SOL    HW258650  11.715   4.167   1.641
52273SOL     OW58651   2.485   8.951  12.917
52273SOL    HW158652   2.497   8.884  12.985
52273SOL    HW258653   2.566   8.948  12.866
52274SOL     OW58654   3.449   0.702   4.396
52274SOL    HW158655   3.457   0.792   4.363
52274SOL    HW258656   3.471   0.647   4.321
52275SOL     OW58657   2.141   4.547  12.461
52275SOL    HW158658   2.154   4.640  12.481
52275SOL    HW258659   2.136   4.544  12.365
52276SOL     OW58660   7.486  12.584  12.340
52276SOL    HW158661   7.449  12.537  12.265
52276SOL    HW258662   7.565  12.535  12.362
52277SOL     OW58663  11.863   2.682   7.858
52277SOL    HW158664  11.937   2.622   7.852
52277SOL    HW258665  11.901   2.766   7.884
52278SOL     OW58666   4.316   6.237   2.904
52278SOL    HW158667   4.392   6.283   2.938
52278SOL    HW258668   4.241   6.277   2.948
52279SOL     OW58669   4.631  14.119  10.835
52279SOL    HW158670   4.581  14.040  10.816
52279SOL    HW258671   4.584  14.189  10.790
52280SOL     OW58672   4.521  11.071  14.779
52280SOL    HW158673   4.603  11.105  14.742
52280SOL    HW258674   4.487  11.143  14.831
52281SOL     OW58675   8.453  12.138   2.948
52281SOL    HW158676   8.480  12.192   2.874
52281SOL    HW258677   8.468  12.193   3.025
52282SOL     OW58678   4.189  11.736   4.100
52282SOL    HW158679   4.225  11.803   4.042
52282SOL    HW258680   4.244  11.659   4.084
52283SOL     OW58681   3.119   2.999   2.621
52283SOL    HW158682   3.123   3.032   2.711
52283SOL    HW258683   3.200   2.950   2.610
52284SOL     OW58684   8.857  12.691  11.486
52284SOL    HW158685   8.856  12.781  11.455
52284SOL    HW258686   8.769  12.677  11.521
52285SOL     OW58687   7.692   2.494  14.795
52285SOL    HW158688   7.721   2.488  14.704
52285SOL    HW258689   7.598   2.477  14.791
52286SOL     OW58690  13.475  11.647   5.182
52286SOL    HW158691  13.509  11.695   5.106
52286SOL    HW258692  13.404  11.594   5.147
52287SOL     OW58693   6.734   6.323  10.476
52287SOL    HW158694   6.716   6.266  10.401
52287SOL    HW258695   6.800   6.385  10.443
52288SOL     OW58696  11.426  10.228   2.625
52288SOL    HW158697  11.439  10.322   2.607
52288SOL    HW258698  11.396  10.192   2.542
52289SOL     OW58699   0.122  10.416  11.365
52289SOL    HW158700   0.130  10.503  11.403
52289SOL    HW258701   0.179  10.361  11.419
52290SOL     OW58702   8.404   7.941   6.014
52290SOL    HW158703   8.411   7.859   6.062
52290SOL    HW258704   8.486   7.947   5.965
52291SOL     OW58705   2.207  10.449   0.887
52291SOL    HW158706   2.259  10.383   0.932
52291SOL    HW258707   2.258  10.530   0.895
52292SOL     OW58708  10.948  10.870   8.100
52292SOL    HW158709  10.948  10.826   8.015
52292SOL    HW258710  11.007  10.817   8.154
52293SOL     OW58711   2.171   0.089   9.343
52293SOL    HW158712   2.149   0.051   9.428
52293SOL    HW258713   2.199   0.014   9.290
52294SOL     OW58714   0.338   8.132   4.817
52294SOL    HW158715   0.398   8.192   4.773
52294SOL    HW258716   0.394   8.058   4.844
52295SOL     OW58717   6.470   4.008   9.503
52295SOL    HW158718   6.475   3.913   9.506
52295SOL    HW258719   6.415   4.032   9.578
52296SOL     OW58720   2.774   3.231   7.139
52296SOL    HW158721   2.811   3.304   7.190
52296SOL    HW258722   2.783   3.155   7.196
52297SOL     OW58723  10.668  11.462  12.934
52297SOL    HW158724  10.756  11.487  12.963
52297SOL    HW258725  10.682  11.424  12.847
52298SOL     OW58726  10.989   8.499   0.125
52298SOL    HW158727  10.971   8.572   0.185
52298SOL    HW258728  10.984   8.421   0.180
52299SOL     OW58729   4.488   4.604   5.053
52299SOL    HW158730   4.486   4.524   5.105
52299SOL    HW258731   4.514   4.672   5.116
52300SOL     OW58732  10.226   4.078   8.760
52300SOL    HW158733  10.265   4.001   8.800
52300SOL    HW258734  10.291   4.147   8.772
52301SOL     OW58735  14.282   2.954  10.467
52301SOL    HW158736  14.359   2.954  10.525
52301SOL    HW258737  14.210   2.979  10.524
52302SOL     OW58738   1.173   0.473   4.950
52302SOL    HW158739   1.170   0.524   4.869
52302SOL    HW258740   1.199   0.537   5.017
52303SOL     OW58741  12.351  11.465  12.212
52303SOL    HW158742  12.338  11.559  12.210
52303SOL    HW258743  12.331  11.436  12.123
52304SOL     OW58744  11.235   2.488   7.132
52304SOL    HW158745  11.282   2.542   7.070
52304SOL    HW258746  11.301   2.425   7.163
52305SOL     OW58747   5.043   7.982  14.438
52305SOL    HW158748   5.097   7.988  14.359
52305SOL    HW258749   5.094   8.029  14.505
52306SOL     OW58750  12.278   3.977  10.719
52306SOL    HW158751  12.209   3.985  10.784
52306SOL    HW258752  12.356   3.952  10.769
52307SOL     OW58753  10.768   4.693   8.041
52307SOL    HW158754  10.832   4.764   8.031
52307SOL    HW258755  10.778   4.665   8.132
52308SOL     OW58756  11.447   0.507  10.325
52308SOL    HW158757  11.356   0.508  10.298
52308SOL    HW258758  11.443   0.502  10.421
52309SOL     OW58759   2.764   4.965   8.323
52309SOL    HW158760   2.852   4.966   8.283
52309SOL    HW258761   2.738   5.057   8.327
52310SOL     OW58762   6.580   0.718   4.520
52310SOL    HW158763   6.643   0.703   4.590
52310SOL    HW258764   6.535   0.799   4.546
52311SOL     OW58765   3.449   0.946  10.725
52311SOL    HW158766   3.514   1.001  10.681
52311SOL    HW258767   3.401   1.006  10.781
52312SOL     OW58768  13.415   7.073  13.690
52312SOL    HW158769  13.479   7.002  13.690
52312SOL    HW258770  13.359   7.055  13.615
52313SOL     OW58771   9.730  14.400  14.295
52313SOL    HW158772   9.692  14.357  14.372
52313SOL    HW258773   9.707  14.492  14.306
52314SOL     OW58774   2.833  13.594  14.860
52314SOL    HW158775   2.854  13.517  14.808
52314SOL    HW258776   2.904  13.600   0.045
52315SOL     OW58777   2.823   6.969   6.899
52315SOL    HW158778   2.746   7.025   6.890
52315SOL    HW258779   2.862   6.995   6.982
52316SOL     OW58780   2.802   4.791   8.813
52316SOL    HW158781   2.860   4.785   8.736
52316SOL    HW258782   2.764   4.704   8.821
52317SOL     OW58783  11.979   7.835  12.176
52317SOL    HW158784  11.913   7.772  12.206
52317SOL    HW258785  12.012   7.875  12.256
52318SOL     OW58786   8.291   9.122  14.189
52318SOL    HW158787   8.214   9.119  14.133
52318SOL    HW258788   8.357   9.169  14.138
52319SOL     OW58789  12.216   5.409   4.924
52319SOL    HW158790  12.171   5.489   4.899
52319SOL    HW258791  12.260   5.380   4.844
52320SOL     OW58792  12.313   5.642   2.344
52320SOL    HW158793  12.279   5.574   2.400
52320SOL    HW258794  12.367   5.697   2.402
52321SOL     OW58795   9.419   4.738  10.181
52321SOL    HW158796   9.441   4.656  10.223
52321SOL    HW258797   9.503   4.783  10.170
52322SOL     OW58798   1.567  11.671   1.205
52322SOL    HW158799   1.660  11.665   1.182
52322SOL    HW258800   1.522  11.666   1.120
52323SOL     OW58801  10.993   3.073   1.865
52323SOL    HW158802  10.905   3.091   1.898
52323SOL    HW258803  11.043   3.152   1.884
52324SOL     OW58804   9.974   8.563   6.337
52324SOL    HW158805   9.904   8.497   6.334
52324SOL    HW258806   9.931   8.642   6.368
52325SOL     OW58807   3.081   7.360   6.892
52325SOL    HW158808   3.023   7.408   6.951
52325SOL    HW258809   3.168   7.392   6.913
52326SOL     OW58810   2.998   3.435   3.148
52326SOL    HW158811   2.930   3.379   3.186
52326SOL    HW258812   3.080   3.390   3.169
52327SOL     OW58813  11.837   8.381  12.576
52327SOL    HW158814  11.787   8.452  12.615
52327SOL    HW258815  11.787   8.356  12.498
52328SOL     OW58816   5.351  10.825  10.935
52328SOL    HW158817   5.282  10.807  10.998
52328SOL    HW258818   5.349  10.920  10.925
52329SOL     OW58819  14.641  13.701   8.783
52329SOL    HW158820  14.627  13.614   8.819
52329SOL    HW258821  14.583  13.758   8.832
52330SOL     OW58822   3.636  10.910   9.108
52330SOL    HW158823   3.685  10.904   9.190
52330SOL    HW258824   3.545  10.893   9.133
52331SOL     OW58825   3.035   9.325   4.880
52331SOL    HW158826   3.066   9.379   4.954
52331SOL    HW258827   2.971   9.380   4.836
52332SOL     OW58828   3.639   5.968   7.165
52332SOL    HW158829   3.583   5.950   7.089
52332SOL    HW258830   3.645   5.885   7.211
52333SOL     OW58831   2.078   1.361   8.382
52333SOL    HW158832   2.016   1.428   8.410
52333SOL    HW258833   2.061   1.286   8.439
52334SOL     OW58834  14.812   5.223  12.709
52334SOL    HW158835  14.796   5.314  12.686
52334SOL    HW258836  14.725   5.184  12.716
52335SOL     OW58837   7.876   6.700   0.772
52335SOL    HW158838   7.897   6.613   0.737
52335SOL    HW258839   7.961   6.735   0.800
52336SOL     OW58840   1.454  12.102   7.875
52336SOL    HW158841   1.366  12.104   7.836
52336SOL    HW258842   1.481  12.194   7.876
52337SOL     OW58843   8.948   9.284   0.405
52337SOL    HW158844   8.991   9.205   0.373
52337SOL    HW258845   8.935   9.338   0.327
52338SOL     OW58846  12.582  11.133   4.617
52338SOL    HW158847  12.672  11.151   4.589
52338SOL    HW258848  12.527  11.186   4.559
52339SOL     OW58849   1.475   1.471   5.674
52339SOL    HW158850   1.484   1.467   5.578
52339SOL    HW258851   1.391   1.515   5.687
52340SOL     OW58852   0.826   5.673   5.558
52340SOL    HW158853   0.848   5.755   5.513
52340SOL    HW258854   0.864   5.605   5.503
52341SOL     OW58855   4.675   4.765   3.460
52341SOL    HW158856   4.666   4.735   3.369
52341SOL    HW258857   4.706   4.688   3.508
52342SOL     OW58858   2.709   6.656   9.189
52342SOL    HW158859   2.664   6.644   9.273
52342SOL    HW258860   2.802   6.643   9.210
52343SOL     OW58861  10.842   2.394   2.434
52343SOL    HW158862  10.884   2.311   2.458
52343SOL    HW258863  10.915   2.450   2.407
52344SOL     OW58864   3.095  10.196   5.914
52344SOL    HW158865   3.086  10.213   5.820
52344SOL    HW258866   3.007  10.171   5.942
52345SOL     OW58867   7.860  12.077   5.441
52345SOL    HW158868   7.810  12.004   5.402
52345SOL    HW258869   7.857  12.146   5.374
52346SOL     OW58870  11.345   8.389  10.072
52346SOL    HW158871  11.372   8.480  10.060
52346SOL    HW258872  11.363   8.371  10.164
52347SOL     OW58873  14.568   2.850   4.390
52347SOL    HW158874  14.526   2.833   4.306
52347SOL    HW258875  14.500   2.832   4.455
52348SOL     OW58876  10.851  10.179  12.065
52348SOL    HW158877  10.798  10.214  11.993
52348SOL    HW258878  10.795  10.114  12.106
52349SOL     OW58879   7.995  13.052   4.622
52349SOL    HW158880   7.966  12.976   4.573
52349SOL    HW258881   8.088  13.035   4.640
52350SOL     OW58882   2.572  14.741   3.207
52350SOL    HW158883   2.503  14.709   3.149
52350SOL    HW258884   2.539  14.825   3.238
52351SOL     OW58885  14.450   2.153  13.782
52351SOL    HW158886  14.411   2.144  13.869
52351SOL    HW258887  14.520   2.217  13.793
52352SOL     OW58888   3.116   8.055   3.633
52352SOL    HW158889   3.033   8.030   3.592
52352SOL    HW258890   3.091   8.121   3.698
52353SOL     OW58891  10.886  14.340   4.295
52353SOL    HW158892  10.817  14.404   4.284
52353SOL    HW258893  10.940  14.349   4.216
52354SOL     OW58894  11.080   8.707   8.664
52354SOL    HW158895  11.061   8.619   8.698
52354SOL    HW258896  10.994   8.745   8.648
52355SOL     OW58897   9.477   5.931   7.122
52355SOL    HW158898   9.505   5.901   7.036
52355SOL    HW258899   9.453   6.023   7.110
52356SOL     OW58900   3.084  11.345   5.523
52356SOL    HW158901   3.020  11.416   5.531
52356SOL    HW258902   3.070  11.310   5.434
52357SOL     OW58903  14.423   8.140  11.872
52357SOL    HW158904  14.404   8.048  11.855
52357SOL    HW258905  14.489   8.138  11.941
52358SOL     OW58906  12.206  10.960   7.081
52358SOL    HW158907  12.194  10.980   6.988
52358SOL    HW258908  12.117  10.947   7.114
52359SOL     OW58909   2.899  13.168  13.572
52359SOL    HW158910   2.924  13.211  13.490
52359SOL    HW258911   2.805  13.153  13.563
52360SOL     OW58912   8.435  13.633  12.258
52360SOL    HW158913   8.448  13.608  12.166
52360SOL    HW258914   8.518  13.615  12.300
52361SOL     OW58915  10.374   4.366   7.785
52361SOL    HW158916  10.319   4.435   7.824
52361SOL    HW258917  10.397   4.400   7.698
52362SOL     OW58918   4.582   2.595  10.702
52362SOL    HW158919   4.587   2.500  10.694
52362SOL    HW258920   4.595   2.612  10.795
52363SOL     OW58921  12.863  12.819   2.091
52363SOL    HW158922  12.810  12.786   2.018
52363SOL    HW258923  12.800  12.841   2.159
52364SOL     OW58924  12.387   9.960   9.680
52364SOL    HW158925  12.408   9.917   9.597
52364SOL    HW258926  12.321  10.025   9.656
52365SOL     OW58927   2.626   5.570  13.030
52365SOL    HW158928   2.613   5.663  13.015
52365SOL    HW258929   2.539   5.536  13.051
52366SOL     OW58930  10.293  12.388  10.743
52366SOL    HW158931  10.339  12.346  10.671
52366SOL    HW258932  10.342  12.468  10.759
52367SOL     OW58933   8.828   7.624  12.135
52367SOL    HW158934   8.819   7.548  12.194
52367SOL    HW258935   8.915   7.659  12.154
52368SOL     OW58936  10.312   6.235  11.924
52368SOL    HW158937  10.257   6.183  11.865
52368SOL    HW258938  10.308   6.323  11.888
52369SOL     OW58939   5.518  13.409  14.709
52369SOL    HW158940   5.433  13.420  14.752
52369SOL    HW258941   5.581  13.409  14.782
52370SOL     OW58942  13.732   0.201   9.342
52370SOL    HW158943  13.790   0.271   9.312
52370SOL    HW258944  13.662   0.199   9.277
52371SOL     OW58945   7.947  13.641   5.700
52371SOL    HW158946   7.951  13.648   5.604
52371SOL    HW258947   7.900  13.719   5.728
52372SOL     OW58948  13.777   4.930   3.603
52372SOL    HW158949  13.731   5.003   3.563
52372SOL    HW258950  13.813   4.966   3.684
52373SOL     OW58951   7.492   5.684   5.739
52373SOL    HW158952   7.563   5.623   5.717
52373SOL    HW258953   7.485   5.681   5.834
52374SOL     OW58954   5.077  13.142   1.236
52374SOL    HW158955   5.055  13.163   1.145
52374SOL    HW258956   5.104  13.226   1.274
52375SOL     OW58957   6.213   8.018   5.192
52375SOL    HW158958   6.177   8.025   5.281
52375SOL    HW258959   6.161   7.949   5.151
52376SOL     OW58960   2.318   2.620   9.250
52376SOL    HW158961   2.408   2.646   9.266
52376SOL    HW258962   2.295   2.663   9.168
52377SOL     OW58963  11.888   9.771  13.108
52377SOL    HW158964  11.919   9.686  13.139
52377SOL    HW258965  11.859   9.754  13.018
52378SOL     OW58966   3.384  12.611   7.307
52378SOL    HW158967   3.360  12.617   7.215
52378SOL    HW258968   3.362  12.522   7.333
52379SOL     OW58969  10.129   6.764  10.887
52379SOL    HW158970  10.086   6.735  10.807
52379SOL    HW258971  10.063   6.815  10.933
52380SOL     OW58972   8.589  10.308   6.584
52380SOL    HW158973   8.600  10.363   6.661
52380SOL    HW258974   8.596  10.219   6.617
52381SOL     OW58975  10.053  10.441   7.469
52381SOL    HW158976  10.060  10.378   7.541
52381SOL    HW258977   9.979  10.497   7.492
52382SOL     OW58978   8.400  13.420   6.635
52382SOL    HW158979   8.494  13.424   6.653
52382SOL    HW258980   8.380  13.327   6.637
52383SOL     OW58981  13.217   0.372  10.595
52383SOL    HW158982  13.137   0.320  10.605
52383SOL    HW258983  13.254   0.343  10.512
52384SOL     OW58984   7.404   8.627   9.210
52384SOL    HW158985   7.470   8.564   9.239
52384SOL    HW258986   7.336   8.622   9.278
52385SOL     OW58987   2.635   6.027   9.753
52385SOL    HW158988   2.722   6.037   9.791
52385SOL    HW258989   2.649   5.976   9.673
52386SOL     OW58990   7.153   7.147   3.311
52386SOL    HW158991   7.131   7.066   3.357
52386SOL    HW258992   7.127   7.131   3.220
52387SOL     OW58993   2.363   1.807  12.370
52387SOL    HW158994   2.390   1.715  12.373
52387SOL    HW258995   2.377   1.838  12.460
52388SOL     OW58996  11.084  10.345   4.987
52388SOL    HW158997  11.087  10.374   4.896
52388SOL    HW258998  10.991  10.327   5.003
52389SOL     OW58999  12.878   4.545  11.578
52389SOL    HW159000  12.954   4.528  11.523
52389SOL    HW259001  12.811   4.576  11.518
52390SOL     OW59002  13.713  10.071   0.882
52390SOL    HW159003  13.645  10.009   0.855
52390SOL    HW259004  13.673  10.121   0.953
52391SOL     OW59005  11.304  10.653  14.486
52391SOL    HW159006  11.305  10.717  14.557
52391SOL    HW259007  11.352  10.696  14.415
52392SOL     OW59008  12.984   8.680   9.551
52392SOL    HW159009  12.972   8.604   9.493
52392SOL    HW259010  12.933   8.658   9.629
52393SOL     OW59011  12.759   1.311   8.890
52393SOL    HW159012  12.821   1.285   8.958
52393SOL    HW259013  12.676   1.324   8.936
52394SOL     OW59014  10.404  12.233   0.393
52394SOL    HW159015  10.358  12.224   0.476
52394SOL    HW259016  10.366  12.166   0.337
52395SOL     OW59017   2.528   1.133   3.199
52395SOL    HW159018   2.487   1.108   3.116
52395SOL    HW259019   2.615   1.163   3.174
52396SOL     OW59020   2.505   8.263   6.285
52396SOL    HW159021   2.598   8.245   6.270
52396SOL    HW259022   2.504   8.328   6.355
52397SOL     OW59023  14.405  13.090  14.670
52397SOL    HW159024  14.428  13.025  14.736
52397SOL    HW259025  14.451  13.061  14.591
52398SOL     OW59026   8.001   8.886   2.887
52398SOL    HW159027   8.083   8.921   2.852
52398SOL    HW259028   8.011   8.791   2.879
52399SOL     OW59029  13.250   6.777   3.201
52399SOL    HW159030  13.199   6.759   3.122
52399SOL    HW259031  13.276   6.690   3.232
52400SOL     OW59032   6.576   5.367  11.796
52400SOL    HW159033   6.485   5.348  11.773
52400SOL    HW259034   6.571   5.427  11.869
52401SOL     OW59035   1.209   8.331  14.389
52401SOL    HW159036   1.134   8.390  14.381
52401SOL    HW259037   1.274   8.382  14.438
52402SOL     OW59038  13.820   8.686  12.231
52402SOL    HW159039  13.771   8.764  12.204
52402SOL    HW259040  13.801   8.622  12.162
52403SOL     OW59041   9.039  14.037   2.282
52403SOL    HW159042   9.023  14.086   2.363
52403SOL    HW259043   8.993  14.088   2.214
52404SOL     OW59044  10.762  12.710  11.460
52404SOL    HW159045  10.731  12.724  11.549
52404SOL    HW259046  10.682  12.700  11.408
52405SOL     OW59047  12.599   5.793  11.168
52405SOL    HW159048  12.557   5.724  11.116
52405SOL    HW259049  12.688   5.798  11.134
52406SOL     OW59050   2.078  11.595   8.344
52406SOL    HW159051   2.045  11.514   8.383
52406SOL    HW259052   2.166  11.573   8.312
52407SOL     OW59053   9.621  14.054   0.537
52407SOL    HW159054   9.548  14.010   0.492
52407SOL    HW259055   9.579  14.119   0.592
52408SOL     OW59056   6.781  14.758   7.862
52408SOL    HW159057   6.776  14.702   7.784
52408SOL    HW259058   6.737  14.839   7.836
52409SOL     OW59059   5.329   6.521  14.461
52409SOL    HW159060   5.289   6.506  14.375
52409SOL    HW259061   5.411   6.566  14.442
52410SOL     OW59062   6.740   3.870   7.681
52410SOL    HW159063   6.693   3.880   7.764
52410SOL    HW259064   6.800   3.945   7.679
52411SOL     OW59065  13.201   7.592  14.858
52411SOL    HW159066  13.152   7.547   0.048
52411SOL    HW259067  13.283   7.618   0.021
52412SOL     OW59068   4.218   1.977  10.951
52412SOL    HW159069   4.203   2.069  10.973
52412SOL    HW259070   4.145   1.953  10.894
52413SOL     OW59071   5.924   5.505   9.409
52413SOL    HW159072   5.849   5.471   9.457
52413SOL    HW259073   5.950   5.433   9.351
52414SOL     OW59074  14.307   8.998   4.781
52414SOL    HW159075  14.310   9.093   4.796
52414SOL    HW259076  14.309   8.960   4.869
52415SOL     OW59077   2.179  13.398   1.828
52415SOL    HW159078   2.149  13.307   1.827
52415SOL    HW259079   2.178  13.422   1.921
52416SOL     OW59080   6.984   6.616  11.396
52416SOL    HW159081   7.052   6.649  11.456
52416SOL    HW259082   6.915   6.583  11.454
52417SOL     OW59083   5.662   8.415   0.278
52417SOL    HW159084   5.627   8.335   0.238
52417SOL    HW259085   5.753   8.418   0.248
52418SOL     OW59086  10.862  10.498   0.208
52418SOL    HW159087  10.865  10.447   0.289
52418SOL    HW259088  10.922  10.453   0.149
52419SOL     OW59089   1.943   1.819   9.191
52419SOL    HW159090   1.914   1.908   9.173
52419SOL    HW259091   1.891   1.791   9.267
52420SOL     OW59092   2.800   2.403   8.567
52420SOL    HW159093   2.831   2.342   8.501
52420SOL    HW259094   2.717   2.366   8.596
52421SOL     OW59095  11.236   1.822  13.311
52421SOL    HW159096  11.230   1.917  13.304
52421SOL    HW259097  11.146   1.791  13.310
52422SOL     OW59098  11.846   6.318  12.577
52422SOL    HW159099  11.772   6.347  12.631
52422SOL    HW259100  11.847   6.223  12.587
52423SOL     OW59101  13.981   1.444   7.444
52423SOL    HW159102  14.059   1.397   7.413
52423SOL    HW259103  13.936   1.381   7.501
52424SOL     OW59104   4.759   8.750  13.775
52424SOL    HW159105   4.843   8.719  13.741
52424SOL    HW259106   4.696   8.685  13.745
52425SOL     OW59107   8.645   2.382   1.080
52425SOL    HW159108   8.654   2.346   1.168
52425SOL    HW259109   8.668   2.474   1.089
52426SOL     OW59110   8.029  11.851   4.110
52426SOL    HW159111   7.954  11.909   4.121
52426SOL    HW259112   8.093  11.903   4.062
52427SOL     OW59113   1.673   5.334   8.155
52427SOL    HW159114   1.637   5.355   8.242
52427SOL    HW259115   1.735   5.264   8.172
52428SOL     OW59116   0.663  10.176   6.267
52428SOL    HW159117   0.642  10.083   6.276
52428SOL    HW259118   0.617  10.218   6.341
52429SOL     OW59119  13.599  12.787   8.677
52429SOL    HW159120  13.540  12.723   8.637
52429SOL    HW259121  13.673  12.735   8.708
52430SOL     OW59122   6.801   5.755  11.639
52430SOL    HW159123   6.887   5.759  11.598
52430SOL    HW259124   6.745   5.810  11.583
52431SOL     OW59125   1.786  11.562   2.653
52431SOL    HW159126   1.708  11.617   2.648
52431SOL    HW259127   1.848  11.602   2.593
52432SOL     OW59128   7.976   1.175  14.503
52432SOL    HW159129   8.040   1.148  14.568
52432SOL    HW259130   7.978   1.270  14.505
52433SOL     OW59131   1.390   3.996  11.315
52433SOL    HW159132   1.441   4.048  11.376
52433SOL    HW259133   1.355   3.924  11.367
52434SOL     OW59134   5.305   4.875  12.279
52434SOL    HW159135   5.390   4.836  12.300
52434SOL    HW259136   5.258   4.877  12.363
52435SOL     OW59137   5.536   6.381   3.831
52435SOL    HW159138   5.480   6.394   3.755
52435SOL    HW259139   5.619   6.424   3.808
52436SOL     OW59140   5.318   2.045  11.182
52436SOL    HW159141   5.402   2.087  11.201
52436SOL    HW259142   5.329   1.955  11.212
52437SOL     OW59143   9.478  10.506  10.571
52437SOL    HW159144   9.533  10.468  10.640
52437SOL    HW259145   9.459  10.595  10.602
52438SOL     OW59146   6.521   5.342   7.159
52438SOL    HW159147   6.553   5.431   7.144
52438SOL    HW259148   6.462   5.350   7.234
52439SOL     OW59149   2.041   6.950   5.724
52439SOL    HW159150   2.079   6.987   5.644
52439SOL    HW259151   2.117   6.920   5.774
52440SOL     OW59152  10.812   8.091   4.294
52440SOL    HW159153  10.762   8.116   4.216
52440SOL    HW259154  10.767   8.014   4.328
52441SOL     OW59155   6.884   3.581  11.773
52441SOL    HW159156   6.852   3.610  11.859
52441SOL    HW259157   6.974   3.554  11.789
52442SOL     OW59158   0.962   7.158   9.546
52442SOL    HW159159   0.960   7.196   9.634
52442SOL    HW259160   0.893   7.091   9.547
52443SOL     OW59161  12.942   6.007  13.312
52443SOL    HW159162  12.882   6.075  13.341
52443SOL    HW259163  12.906   5.926  13.349
52444SOL     OW59164  10.081   8.320   8.667
52444SOL    HW159165  10.077   8.319   8.571
52444SOL    HW259166  10.056   8.231   8.693
52445SOL     OW59167  10.699   9.012   0.428
52445SOL    HW159168  10.687   9.034   0.336
52445SOL    HW259169  10.661   9.087   0.475
52446SOL     OW59170   6.482   4.604   7.804
52446SOL    HW159171   6.471   4.519   7.846
52446SOL    HW259172   6.515   4.584   7.717
52447SOL     OW59173  11.718   4.314   9.628
52447SOL    HW159174  11.681   4.301   9.716
52447SOL    HW259175  11.784   4.382   9.640
52448SOL     OW59176   0.101   1.906   3.123
52448SOL    HW159177   0.170   1.852   3.162
52448SOL    HW259178   0.143   1.990   3.105
52449SOL     OW59179  14.095   9.100   9.515
52449SOL    HW159180  14.168   9.108   9.454
52449SOL    HW259181  14.096   9.009   9.543
52450SOL     OW59182  11.031  14.648   9.078
52450SOL    HW159183  11.082  14.713   9.127
52450SOL    HW259184  10.945  14.689   9.067
52451SOL     OW59185   1.920   4.098   7.946
52451SOL    HW159186   1.890   4.047   8.022
52451SOL    HW259187   1.926   4.034   7.875
52452SOL     OW59188   6.279  10.662   0.315
52452SOL    HW159189   6.361  10.703   0.287
52452SOL    HW259190   6.212  10.727   0.296
52453SOL     OW59191   3.661  12.939   9.283
52453SOL    HW159192   3.648  12.998   9.358
52453SOL    HW259193   3.667  12.852   9.322
52454SOL     OW59194   9.749   0.879   6.435
52454SOL    HW159195   9.835   0.848   6.407
52454SOL    HW259196   9.766   0.965   6.473
52455SOL     OW59197  12.807   4.895   3.827
52455SOL    HW159198  12.715   4.893   3.798
52455SOL    HW259199  12.819   4.813   3.874
52456SOL     OW59200   5.822   8.558  12.743
52456SOL    HW159201   5.838   8.647  12.712
52456SOL    HW259202   5.844   8.503  12.667
52457SOL     OW59203   9.221   5.191   2.671
52457SOL    HW159204   9.228   5.250   2.746
52457SOL    HW259205   9.152   5.130   2.695
52458SOL     OW59206   8.666   7.895  10.608
52458SOL    HW159207   8.604   7.824  10.595
52458SOL    HW259208   8.743   7.852  10.646
52459SOL     OW59209   8.500  14.180   1.642
52459SOL    HW159210   8.435  14.136   1.696
52459SOL    HW259211   8.582  14.134   1.660
52460SOL     OW59212   5.818  13.450  10.200
52460SOL    HW159213   5.752  13.502  10.246
52460SOL    HW259214   5.855  13.393  10.267
52461SOL     OW59215   7.051   1.094   9.053
52461SOL    HW159216   6.983   1.144   9.099
52461SOL    HW259217   7.103   1.159   9.008
52462SOL     OW59218   9.654   4.763   2.513
52462SOL    HW159219   9.722   4.732   2.453
52462SOL    HW259220   9.685   4.737   2.600
52463SOL     OW59221   8.994  14.686   8.156
52463SOL    HW159222   9.012  14.775   8.185
52463SOL    HW259223   9.056  14.671   8.085
52464SOL     OW59224  11.024  12.126  13.611
52464SOL    HW159225  11.007  12.196  13.674
52464SOL    HW259226  10.992  12.160  13.528
52465SOL     OW59227   9.460  12.510   9.609
52465SOL    HW159228   9.515  12.501   9.531
52465SOL    HW259229   9.379  12.464   9.587
52466SOL     OW59230   9.079  11.272   0.356
52466SOL    HW159231   9.000  11.295   0.306
52466SOL    HW259232   9.137  11.347   0.345
52467SOL     OW59233   4.056   8.765  12.651
52467SOL    HW159234   3.981   8.796  12.599
52467SOL    HW259235   4.110   8.843  12.664
52468SOL     OW59236   2.145   2.779  11.846
52468SOL    HW159237   2.147   2.867  11.809
52468SOL    HW259238   2.160   2.721  11.771
52469SOL     OW59239   3.397   2.370   0.115
52469SOL    HW159240   3.433   2.405   0.197
52469SOL    HW259241   3.452   2.409   0.046
52470SOL     OW59242  12.772  13.296  11.688
52470SOL    HW159243  12.759  13.201  11.679
52470SOL    HW259244  12.743  13.332  11.604
52471SOL     OW59245   4.419   9.320  11.768
52471SOL    HW159246   4.401   9.320  11.674
52471SOL    HW259247   4.443   9.229  11.787
52472SOL     OW59248  13.514   5.408  12.543
52472SOL    HW159249  13.490   5.413  12.451
52472SOL    HW259250  13.508   5.315  12.565
52473SOL     OW59251  13.414   3.532  10.250
52473SOL    HW159252  13.328   3.503  10.219
52473SOL    HW259253  13.476   3.481  10.198
52474SOL     OW59254   9.276   9.019  14.016
52474SOL    HW159255   9.311   8.978  13.938
52474SOL    HW259256   9.318   8.974  14.089
52475SOL     OW59257   4.848   3.795  14.548
52475SOL    HW159258   4.835   3.848  14.469
52475SOL    HW259259   4.873   3.858  14.616
52476SOL     OW59260   1.833   7.778   1.002
52476SOL    HW159261   1.861   7.786   0.911
52476SOL    HW259262   1.910   7.745   1.048
52477SOL     OW59263   1.351   0.365   0.735
52477SOL    HW159264   1.426   0.418   0.763
52477SOL    HW259265   1.349   0.375   0.640
52478SOL     OW59266  13.311   0.331   3.409
52478SOL    HW159267  13.352   0.305   3.326
52478SOL    HW259268  13.339   0.265   3.472
52479SOL     OW59269   2.223  14.744   9.149
52479SOL    HW159270   2.261  14.703   9.071
52479SOL    HW259271   2.269  14.703   9.222
52480SOL     OW59272  11.971  14.829  11.997
52480SOL    HW159273  11.941  14.739  12.008
52480SOL    HW259274  12.013  14.851  12.080
52481SOL     OW59275   0.217   9.166   8.978
52481SOL    HW159276   0.269   9.245   8.962
52481SOL    HW259277   0.131   9.198   9.003
52482SOL     OW59278   4.269  13.470   5.468
52482SOL    HW159279   4.288  13.559   5.438
52482SOL    HW259280   4.317  13.413   5.407
52483SOL     OW59281   1.800   0.472   9.767
52483SOL    HW159282   1.734   0.473   9.697
52483SOL    HW259283   1.774   0.545   9.824
52484SOL     OW59284   6.738   9.912   9.705
52484SOL    HW159285   6.659   9.900   9.652
52484SOL    HW259286   6.741  10.006   9.723
52485SOL     OW59287   8.640   4.000  12.408
52485SOL    HW159288   8.605   3.944  12.477
52485SOL    HW259289   8.614   4.088  12.433
52486SOL     OW59290  11.090   1.135   8.627
52486SOL    HW159291  11.086   1.210   8.568
52486SOL    HW259292  11.159   1.157   8.689
52487SOL     OW59293   2.481  14.205   6.784
52487SOL    HW159294   2.572  14.203   6.815
52487SOL    HW259295   2.447  14.289   6.813
52488SOL     OW59296   7.272   5.631   8.396
52488SOL    HW159297   7.352   5.593   8.359
52488SOL    HW259298   7.210   5.559   8.400
52489SOL     OW59299  14.413   0.284   1.222
52489SOL    HW159300  14.449   0.209   1.270
52489SOL    HW259301  14.488   0.342   1.208
52490SOL     OW59302  11.894   6.190   1.124
52490SOL    HW159303  11.891   6.283   1.099
52490SOL    HW259304  11.844   6.186   1.206
52491SOL     OW59305   2.150  12.932   9.533
52491SOL    HW159306   2.234  12.974   9.552
52491SOL    HW259307   2.174  12.852   9.486
52492SOL     OW59308  11.916   5.114   4.373
52492SOL    HW159309  11.863   5.037   4.350
52492SOL    HW259310  11.992   5.109   4.315
52493SOL     OW59311   9.697  13.397   6.082
52493SOL    HW159312   9.765  13.336   6.113
52493SOL    HW259313   9.637  13.406   6.156
52494SOL     OW59314   5.280  12.779   4.743
52494SOL    HW159315   5.190  12.747   4.739
52494SOL    HW259316   5.333  12.707   4.708
52495SOL     OW59317  10.678   2.925   9.999
52495SOL    HW159318  10.707   2.836   9.980
52495SOL    HW259319  10.622   2.917  10.076
52496SOL     OW59320   6.113   9.684   7.594
52496SOL    HW159321   6.198   9.729   7.598
52496SOL    HW259322   6.134   9.594   7.570
52497SOL     OW59323  14.188   0.685  11.160
52497SOL    HW159324  14.148   0.622  11.100
52497SOL    HW259325  14.280   0.688  11.133
52498SOL     OW59326   7.572   0.862   8.380
52498SOL    HW159327   7.586   0.926   8.310
52498SOL    HW259328   7.660   0.830   8.401
52499SOL     OW59329  11.275  11.052   4.869
52499SOL    HW159330  11.262  11.135   4.914
52499SOL    HW259331  11.368  11.052   4.846
52500SOL     OW59332   8.286   8.330   0.594
52500SOL    HW159333   8.337   8.383   0.533
52500SOL    HW259334   8.349   8.268   0.631
52501SOL     OW59335   9.923  11.729   9.955
52501SOL    HW159336   9.933  11.824   9.952
52501SOL    HW259337   9.986  11.700  10.022
52502SOL     OW59338   3.165   8.872   8.231
52502SOL    HW159339   3.195   8.850   8.143
52502SOL    HW259340   3.073   8.848   8.232
52503SOL     OW59341   0.847   7.985   5.117
52503SOL    HW159342   0.902   7.933   5.058
52503SOL    HW259343   0.766   7.935   5.125
52504SOL     OW59344  10.665   2.342  12.661
52504SOL    HW159345  10.699   2.310  12.578
52504SOL    HW259346  10.624   2.266  12.701
52505SOL     OW59347  14.432   6.550  12.933
52505SOL    HW159348  14.418   6.465  12.890
52505SOL    HW259349  14.346   6.592  12.928
52506SOL     OW59350   7.322  10.408   0.795
52506SOL    HW159351   7.228  10.403   0.776
52506SOL    HW259352   7.358  10.464   0.727
52507SOL     OW59353  10.862   6.413  14.320
52507SOL    HW159354  10.827   6.498  14.292
52507SOL    HW259355  10.799   6.349  14.289
52508SOL     OW59356   2.362   9.828  10.780
52508SOL    HW159357   2.445   9.791  10.808
52508SOL    HW259358   2.337   9.886  10.851
52509SOL     OW59359  11.145   7.187  10.959
52509SOL    HW159360  11.109   7.106  10.922
52509SOL    HW259361  11.102   7.196  11.044
52510SOL     OW59362   9.524  11.252   9.611
52510SOL    HW159363   9.600  11.235   9.555
52510SOL    HW259364   9.524  11.348   9.621
52511SOL     OW59365   2.054  11.412   1.674
52511SOL    HW159366   2.094  11.496   1.698
52511SOL    HW259367   2.095  11.348   1.731
52512SOL     OW59368   7.757  10.922   5.664
52512SOL    HW159369   7.817  10.973   5.610
52512SOL    HW259370   7.740  10.978   5.739
52513SOL     OW59371   0.843  11.276   8.667
52513SOL    HW159372   0.848  11.198   8.612
52513SOL    HW259373   0.933  11.308   8.672
52514SOL     OW59374   3.622  11.470  13.505
52514SOL    HW159375   3.620  11.382  13.542
52514SOL    HW259376   3.544  11.474  13.450
52515SOL     OW59377  13.532   0.242   3.216
52515SOL    HW159378  13.491   0.192   3.146
52515SOL    HW259379  13.567   0.176   3.276
52516SOL     OW59380  13.806   7.435   1.961
52516SOL    HW159381  13.787   7.401   1.874
52516SOL    HW259382  13.882   7.385   1.990
52517SOL     OW59383   1.356   1.675  11.496
52517SOL    HW159384   1.427   1.711  11.550
52517SOL    HW259385   1.384   1.586  11.476
52518SOL     OW59386  13.920   7.748   5.656
52518SOL    HW159387  13.959   7.730   5.571
52518SOL    HW259388  13.828   7.768   5.638
52519SOL     OW59389   3.242   3.843   0.924
52519SOL    HW159390   3.210   3.841   1.014
52519SOL    HW259391   3.312   3.777   0.922
52520SOL     OW59392   8.553   0.735   4.302
52520SOL    HW159393   8.463   0.741   4.270
52520SOL    HW259394   8.589   0.659   4.256
52521SOL     OW59395  10.677  10.692   9.883
52521SOL    HW159396  10.756  10.637   9.888
52521SOL    HW259397  10.707  10.779   9.911
52522SOL     OW59398   1.931   2.797  11.526
52522SOL    HW159399   1.900   2.747  11.601
52522SOL    HW259400   1.869   2.869  11.518
52523SOL     OW59401   5.411   7.191   6.077
52523SOL    HW159402   5.445   7.209   6.164
52523SOL    HW259403   5.483   7.211   6.018
52524SOL     OW59404  13.540   8.854   1.307
52524SOL    HW159405  13.464   8.835   1.252
52524SOL    HW259406  13.585   8.925   1.261
52525SOL     OW59407  12.016   3.658   9.565
52525SOL    HW159408  12.028   3.716   9.490
52525SOL    HW259409  11.921   3.648   9.571
52526SOL     OW59410   3.873   8.807   1.516
52526SOL    HW159411   3.795   8.762   1.550
52526SOL    HW259412   3.863   8.898   1.546
52527SOL     OW59413  13.653   0.536   5.605
52527SOL    HW159414  13.685   0.626   5.614
52527SOL    HW259415  13.575   0.544   5.549
52528SOL     OW59416   9.693  12.806   8.119
52528SOL    HW159417   9.751  12.833   8.191
52528SOL    HW259418   9.620  12.868   8.123
52529SOL     OW59419  13.137   9.876   9.204
52529SOL    HW159420  13.185   9.895   9.123
52529SOL    HW259421  13.067   9.941   9.206
52530SOL     OW59422  10.858   5.985   0.974
52530SOL    HW159423  10.820   5.969   1.061
52530SOL    HW259424  10.933   6.042   0.991
52531SOL     OW59425  13.337   9.160  10.601
52531SOL    HW159426  13.384   9.234  10.640
52531SOL    HW259427  13.406   9.103  10.568
52532SOL     OW59428  14.216  14.547  11.313
52532SOL    HW159429  14.208  14.598  11.232
52532SOL    HW259430  14.310  14.540  11.327
52533SOL     OW59431  13.680   2.176  10.061
52533SOL    HW159432  13.733   2.233  10.006
52533SOL    HW259433  13.605   2.230  10.087
52534SOL     OW59434   5.531  10.461   9.290
52534SOL    HW159435   5.436  10.459   9.300
52534SOL    HW259436   5.545  10.494   9.201
52535SOL     OW59437   3.603  12.635   8.202
52535SOL    HW159438   3.671  12.586   8.247
52535SOL    HW259439   3.611  12.724   8.235
52536SOL     OW59440   0.197   7.125   6.377
52536SOL    HW159441   0.248   7.205   6.393
52536SOL    HW259442   0.257   7.054   6.398
52537SOL     OW59443   6.598   6.020   7.034
52537SOL    HW159444   6.689   5.991   7.041
52537SOL    HW259445   6.603   6.106   6.993
52538SOL     OW59446   3.907   6.763   6.860
52538SOL    HW159447   3.914   6.700   6.788
52538SOL    HW259448   3.957   6.723   6.932
52539SOL     OW59449   3.214   0.070   4.951
52539SOL    HW159450   3.128   0.110   4.937
52539SOL    HW259451   3.199   0.009   5.024
52540SOL     OW59452   8.941   4.232   4.088
52540SOL    HW159453   8.894   4.315   4.093
52540SOL    HW259454   9.016   4.250   4.031
52541SOL     OW59455  13.425  12.322   7.636
52541SOL    HW159456  13.442  12.228   7.631
52541SOL    HW259457  13.481  12.353   7.707
52542SOL     OW59458   4.159   1.395  12.680
52542SOL    HW159459   4.079   1.429  12.640
52542SOL    HW259460   4.160   1.302  12.655
52543SOL     OW59461   6.654  11.097   5.888
52543SOL    HW159462   6.723  11.045   5.847
52543SOL    HW259463   6.595  11.032   5.927
52544SOL     OW59464   3.209   8.756   6.593
52544SOL    HW159465   3.151   8.787   6.524
52544SOL    HW259466   3.219   8.662   6.576
52545SOL     OW59467   4.867   6.700   8.553
52545SOL    HW159468   4.823   6.624   8.593
52545SOL    HW259469   4.958   6.692   8.580
52546SOL     OW59470   1.489   8.036   0.575
52546SOL    HW159471   1.567   7.981   0.583
52546SOL    HW259472   1.424   7.994   0.631
52547SOL     OW59473   6.486   6.652   4.917
52547SOL    HW159474   6.563   6.600   4.891
52547SOL    HW259475   6.504   6.678   5.007
52548SOL     OW59476   6.557   9.478   5.965
52548SOL    HW159477   6.539   9.488   6.059
52548SOL    HW259478   6.516   9.394   5.942
52549SOL     OW59479   0.667   9.596   8.666
52549SOL    HW159480   0.634   9.626   8.581
52549SOL    HW259481   0.603   9.628   8.729
52550SOL     OW59482  13.682   8.139   3.706
52550SOL    HW159483  13.622   8.083   3.656
52550SOL    HW259484  13.696   8.091   3.788
52551SOL     OW59485   0.138  14.645   4.070
52551SOL    HW159486   0.162  14.659   4.161
52551SOL    HW259487   0.213  14.679   4.020
52552SOL     OW59488  12.569   0.393   6.224
52552SOL    HW159489  12.497   0.332   6.211
52552SOL    HW259490  12.576   0.441   6.141
52553SOL     OW59491   6.712   2.916   3.149
52553SOL    HW159492   6.726   2.854   3.220
52553SOL    HW259493   6.736   2.868   3.070
52554SOL     OW59494  10.513  13.382   9.185
52554SOL    HW159495  10.524  13.393   9.091
52554SOL    HW259496  10.464  13.301   9.195
52555SOL     OW59497   6.440  11.700  14.813
52555SOL    HW159498   6.382  11.701   0.010
52555SOL    HW259499   6.528  11.697  14.851
52556SOL     OW59500   1.707   3.317   6.481
52556SOL    HW159501   1.717   3.412   6.487
52556SOL    HW259502   1.794   3.286   6.456
52557SOL     OW59503   0.837  14.642   5.681
52557SOL    HW159504   0.837  14.586   5.758
52557SOL    HW259505   0.928  14.668   5.670
52558SOL     OW59506   7.674   4.200   2.754
52558SOL    HW159507   7.695   4.280   2.707
52558SOL    HW259508   7.582   4.209   2.778
52559SOL     OW59509   4.137   8.413   4.181
52559SOL    HW159510   4.134   8.485   4.245
52559SOL    HW259511   4.161   8.456   4.099
52560SOL     OW59512   3.159   8.198  11.145
52560SOL    HW159513   3.149   8.272  11.205
52560SOL    HW259514   3.200   8.129  11.198
52561SOL     OW59515   8.127   2.486  14.344
52561SOL    HW159516   8.195   2.419  14.353
52561SOL    HW259517   8.104   2.484  14.251
52562SOL     OW59518  11.405  13.856   8.821
52562SOL    HW159519  11.480  13.807   8.854
52562SOL    HW259520  11.390  13.822   8.733
52563SOL     OW59521   6.418   8.373   2.251
52563SOL    HW159522   6.404   8.306   2.318
52563SOL    HW259523   6.452   8.324   2.176
52564SOL     OW59524  14.673   9.122   3.606
52564SOL    HW159525  14.587   9.127   3.563
52564SOL    HW259526  14.678   9.202   3.659
52565SOL     OW59527   1.294   0.391  13.309
52565SOL    HW159528   1.294   0.307  13.355
52565SOL    HW259529   1.250   0.372  13.226
52566SOL     OW59530  11.744   5.829   2.691
52566SOL    HW159531  11.784   5.799   2.772
52566SOL    HW259532  11.652   5.804   2.698
52567SOL     OW59533   2.910  13.656   5.606
52567SOL    HW159534   2.940  13.576   5.650
52567SOL    HW259535   2.890  13.717   5.677
52568SOL     OW59536   0.625  10.642  14.415
52568SOL    HW159537   0.570  10.697  14.359
52568SOL    HW259538   0.566  10.610  14.483
52569SOL     OW59539   2.989  10.972  13.056
52569SOL    HW159540   3.064  10.986  13.113
52569SOL    HW259541   3.025  10.967  12.968
52570SOL     OW59542   5.315   3.802   2.778
52570SOL    HW159543   5.302   3.845   2.863
52570SOL    HW259544   5.290   3.868   2.714
52571SOL     OW59545   0.954   7.387   5.601
52571SOL    HW159546   0.898   7.464   5.599
52571SOL    HW259547   0.894   7.313   5.612
52572SOL     OW59548   6.185  11.897   9.855
52572SOL    HW159549   6.162  11.834   9.787
52572SOL    HW259550   6.125  11.970   9.841
52573SOL     OW59551   3.222   6.833   3.918
52573SOL    HW159552   3.247   6.853   3.828
52573SOL    HW259553   3.227   6.737   3.924
52574SOL     OW59554   3.168   9.338   8.347
52574SOL    HW159555   3.127   9.401   8.288
52574SOL    HW259556   3.252   9.378   8.370
52575SOL     OW59557  12.583   2.190   0.232
52575SOL    HW159558  12.516   2.258   0.225
52575SOL    HW259559  12.664   2.233   0.204
52576SOL     OW59560   2.970  12.803   9.619
52576SOL    HW159561   3.025  12.757   9.556
52576SOL    HW259562   3.026  12.813   9.697
52577SOL     OW59563  11.231   1.172  12.638
52577SOL    HW159564  11.143   1.209  12.631
52577SOL    HW259565  11.263   1.200  12.724
52578SOL     OW59566  11.834   7.192  12.832
52578SOL    HW159567  11.826   7.121  12.768
52578SOL    HW259568  11.808   7.152  12.916
52579SOL     OW59569   3.771   2.657   4.446
52579SOL    HW159570   3.772   2.652   4.351
52579SOL    HW259571   3.710   2.728   4.466
52580SOL     OW59572  14.678  10.623   3.962
52580SOL    HW159573  14.699  10.648   4.052
52580SOL    HW259574  14.764  10.609   3.921
52581SOL     OW59575   0.510   0.466   3.346
52581SOL    HW159576   0.422   0.449   3.312
52581SOL    HW259577   0.517   0.561   3.349
52582SOL     OW59578   3.875   0.675  13.872
52582SOL    HW159579   3.941   0.701  13.937
52582SOL    HW259580   3.825   0.755  13.855
52583SOL     OW59581  10.826   3.758   2.557
52583SOL    HW159582  10.793   3.828   2.614
52583SOL    HW259583  10.880   3.704   2.614
52584SOL     OW59584  14.561  10.492  10.659
52584SOL    HW159585  14.568  10.584  10.686
52584SOL    HW259586  14.623  10.483  10.587
52585SOL     OW59587  11.859   3.610   0.196
52585SOL    HW159588  11.779   3.642   0.238
52585SOL    HW259589  11.847   3.516   0.189
52586SOL     OW59590  14.813   2.365   4.765
52586SOL    HW159591  14.780   2.279   4.790
52586SOL    HW259592   0.029   2.356   4.767
52587SOL     OW59593   1.799   0.179   1.132
52587SOL    HW159594   1.871   0.234   1.165
52587SOL    HW259595   1.751   0.154   1.211
52588SOL     OW59596   4.871   1.353   5.474
52588SOL    HW159597   4.893   1.368   5.565
52588SOL    HW259598   4.867   1.441   5.436
52589SOL     OW59599   0.618   6.675   8.319
52589SOL    HW159600   0.537   6.716   8.351
52589SOL    HW259601   0.654   6.631   8.396
52590SOL     OW59602   9.739   6.276   3.339
52590SOL    HW159603   9.754   6.326   3.419
52590SOL    HW259604   9.769   6.187   3.359
52591SOL     OW59605   4.506   4.768   2.614
52591SOL    HW159606   4.550   4.814   2.543
52591SOL    HW259607   4.419   4.808   2.619
52592SOL     OW59608   5.817  10.242   4.493
52592SOL    HW159609   5.810  10.170   4.556
52592SOL    HW259610   5.795  10.202   4.408
52593SOL     OW59611   8.136   9.522   3.182
52593SOL    HW159612   8.143   9.431   3.209
52593SOL    HW259613   8.198   9.569   3.238
52594SOL     OW59614   4.989  11.805   2.242
52594SOL    HW159615   4.995  11.783   2.335
52594SOL    HW259616   4.905  11.770   2.214
52595SOL     OW59617   0.365   0.938   8.995
52595SOL    HW159618   0.354   0.946   8.900
52595SOL    HW259619   0.339   0.848   9.014
52596SOL     OW59620  11.791   3.398   3.591
52596SOL    HW159621  11.864   3.460   3.589
52596SOL    HW259622  11.795   3.354   3.506
52597SOL     OW59623   7.778  10.080  11.768
52597SOL    HW159624   7.772  10.175  11.762
52597SOL    HW259625   7.709  10.055  11.828
52598SOL     OW59626  12.945   4.759   4.593
52598SOL    HW159627  12.990   4.819   4.652
52598SOL    HW259628  12.912   4.815   4.522
52599SOL     OW59629  10.493   3.170  14.018
52599SOL    HW159630  10.414   3.220  13.999
52599SOL    HW259631  10.551   3.186  13.944
52600SOL     OW59632  13.016   0.983   9.791
52600SOL    HW159633  13.044   0.906   9.742
52600SOL    HW259634  12.963   1.033   9.729
52601SOL     OW59635  14.390   7.712  14.050
52601SOL    HW159636  14.452   7.720  13.977
52601SOL    HW259637  14.324   7.779  14.032
52602SOL     OW59638   1.356   8.649   3.080
52602SOL    HW159639   1.430   8.697   3.044
52602SOL    HW259640   1.290   8.717   3.098
52603SOL     OW59641   5.410  14.280   9.228
52603SOL    HW159642   5.322  14.269   9.193
52603SOL    HW259643   5.467  14.277   9.151
52604SOL     OW59644   4.418  14.385   9.543
52604SOL    HW159645   4.340  14.439   9.558
52604SOL    HW259646   4.454  14.419   9.461
52605SOL     OW59647  12.710   8.132  11.073
52605SOL    HW159648  12.806   8.129  11.068
52605SOL    HW259649  12.682   8.043  11.051
52606SOL     OW59650  14.434   3.068  10.918
52606SOL    HW159651  14.453   2.975  10.925
52606SOL    HW259652  14.390   3.090  11.001
52607SOL     OW59653  12.609   1.780  13.019
52607SOL    HW159654  12.592   1.781  13.113
52607SOL    HW259655  12.578   1.865  12.988
52608SOL     OW59656   1.143  12.410   0.954
52608SOL    HW159657   1.201  12.410   0.878
52608SOL    HW259658   1.140  12.502   0.981
52609SOL     OW59659   1.907   7.448   0.868
52609SOL    HW159660   1.891   7.383   0.937
52609SOL    HW259661   1.825   7.498   0.862
52610SOL     OW59662   8.321   0.705  12.733
52610SOL    HW159663   8.336   0.741  12.821
52610SOL    HW259664   8.285   0.617  12.749
52611SOL     OW59665  12.281   6.994   6.880
52611SOL    HW159666  12.260   6.930   6.948
52611SOL    HW259667  12.356   6.957   6.834
52612SOL     OW59668   7.707   6.242   9.606
52612SOL    HW159669   7.703   6.338   9.602
52612SOL    HW259670   7.734   6.222   9.695
52613SOL     OW59671  13.364  14.140   8.979
52613SOL    HW159672  13.445  14.188   8.998
52613SOL    HW259673  13.295  14.206   8.988
52614SOL     OW59674   9.805  13.531   1.412
52614SOL    HW159675   9.723  13.573   1.438
52614SOL    HW259676   9.778  13.466   1.346
52615SOL     OW59677  12.364  10.918   5.226
52615SOL    HW159678  12.391  10.899   5.136
52615SOL    HW259679  12.446  10.928   5.274
52616SOL     OW59680   8.598   7.919  13.221
52616SOL    HW159681   8.560   7.849  13.275
52616SOL    HW259682   8.610   7.992  13.282
52617SOL     OW59683   3.543   5.013   6.485
52617SOL    HW159684   3.556   4.922   6.461
52617SOL    HW259685   3.605   5.061   6.430
52618SOL     OW59686   5.027   3.436  13.390
52618SOL    HW159687   4.966   3.372  13.353
52618SOL    HW259688   5.032   3.414  13.483
52619SOL     OW59689  11.560   5.630  12.109
52619SOL    HW159690  11.533   5.541  12.086
52619SOL    HW259691  11.490   5.663  12.164
52620SOL     OW59692   0.819  12.887   8.030
52620SOL    HW159693   0.804  12.840   7.949
52620SOL    HW259694   0.768  12.840   8.096
52621SOL     OW59695  11.192   8.323   0.173
52621SOL    HW159696  11.256   8.281   0.116
52621SOL    HW259697  11.170   8.405   0.129
52622SOL     OW59698   7.423   8.038   8.751
52622SOL    HW159699   7.362   8.108   8.774
52622SOL    HW259700   7.501   8.056   8.804
52623SOL     OW59701   0.372   1.136   1.496
52623SOL    HW159702   0.390   1.227   1.474
52623SOL    HW259703   0.319   1.141   1.576
52624SOL     OW59704   1.348   4.092   6.012
52624SOL    HW159705   1.320   4.128   6.097
52624SOL    HW259706   1.441   4.075   6.023
52625SOL     OW59707   8.701   1.651  10.350
52625SOL    HW159708   8.793   1.655  10.378
52625SOL    HW259709   8.683   1.739  10.317
52626SOL     OW59710   7.073   7.811  14.145
52626SOL    HW159711   7.067   7.776  14.056
52626SOL    HW259712   6.983   7.812  14.177
52627SOL     OW59713   6.683  11.144   6.984
52627SOL    HW159714   6.646  11.181   6.903
52627SOL    HW259715   6.716  11.220   7.032
52628SOL     OW59716   2.383   2.664   0.297
52628SOL    HW159717   2.434   2.742   0.314
52628SOL    HW259718   2.364   2.668   0.203
52629SOL     OW59719   1.291  12.677  10.718
52629SOL    HW159720   1.304  12.587  10.749
52629SOL    HW259721   1.370  12.723  10.745
52630SOL     OW59722   5.811  12.136   8.283
52630SOL    HW159723   5.730  12.160   8.238
52630SOL    HW259724   5.879  12.144   8.217
52631SOL     OW59725   6.871  14.609  14.369
52631SOL    HW159726   6.851  14.554  14.445
52631SOL    HW259727   6.802  14.675  14.367
52632SOL     OW59728  10.578   2.219   6.697
52632SOL    HW159729  10.555   2.311   6.686
52632SOL    HW259730  10.611   2.212   6.786
52633SOL     OW59731  10.645  11.142   1.051
52633SOL    HW159732  10.578  11.159   0.984
52633SOL    HW259733  10.612  11.068   1.101
52634SOL     OW59734   0.127  14.002  13.680
52634SOL    HW159735   0.124  14.069  13.748
52634SOL    HW259736   0.185  14.038  13.613
52635SOL     OW59737  12.404   8.217   9.390
52635SOL    HW159738  12.466   8.258   9.329
52635SOL    HW259739  12.318   8.246   9.359
52636SOL     OW59740   0.424   4.930   3.143
52636SOL    HW159741   0.400   5.019   3.171
52636SOL    HW259742   0.359   4.873   3.184
52637SOL     OW59743   9.536  12.089   3.813
52637SOL    HW159744   9.538  12.129   3.726
52637SOL    HW259745   9.563  12.159   3.873
52638SOL     OW59746   9.967  10.591  11.338
52638SOL    HW159747   9.886  10.590  11.286
52638SOL    HW259748  10.032  10.548  11.282
52639SOL     OW59749  10.139   8.139  11.133
52639SOL    HW159750  10.185   8.219  11.109
52639SOL    HW259751  10.189   8.069  11.091
52640SOL     OW59752  10.560  13.346  10.813
52640SOL    HW159753  10.638  13.396  10.791
52640SOL    HW259754  10.592  13.268  10.856
52641SOL     OW59755   4.269   6.734  11.444
52641SOL    HW159756   4.229   6.649  11.427
52641SOL    HW259757   4.355   6.714  11.480
52642SOL     OW59758  12.005   2.662  13.696
52642SOL    HW159759  12.075   2.656  13.761
52642SOL    HW259760  12.042   2.622  13.617
52643SOL     OW59761   5.194  13.473   4.861
52643SOL    HW159762   5.158  13.400   4.810
52643SOL    HW259763   5.286  13.449   4.873
52644SOL     OW59764   0.215  13.630   9.792
52644SOL    HW159765   0.148  13.677   9.744
52644SOL    HW259766   0.221  13.545   9.748
52645SOL     OW59767   0.106   0.018  13.769
52645SOL    HW159768   0.100  14.804  13.793
52645SOL    HW259769   0.200   0.037  13.775
52646SOL     OW59770  12.515   0.139  12.442
52646SOL    HW159771  12.529   0.095  12.525
52646SOL    HW259772  12.519   0.068  12.377
52647SOL     OW59773   7.287   6.089  11.205
52647SOL    HW159774   7.262   6.003  11.238
52647SOL    HW259775   7.240   6.151  11.262
52648SOL     OW59776   8.903   6.073  12.965
52648SOL    HW159777   8.954   6.042  13.041
52648SOL    HW259778   8.829   6.013  12.959
52649SOL     OW59779  14.314   7.053   9.706
52649SOL    HW159780  14.269   7.053   9.621
52649SOL    HW259781  14.383   7.118   9.696
52650SOL     OW59782   1.880   8.488   8.832
52650SOL    HW159783   1.886   8.554   8.902
52650SOL    HW259784   1.817   8.424   8.866
52651SOL     OW59785  14.326   0.374   3.655
52651SOL    HW159786  14.408   0.331   3.679
52651SOL    HW259787  14.303   0.425   3.733
52652SOL     OW59788  10.438  10.411   3.629
52652SOL    HW159789  10.444  10.356   3.707
52652SOL    HW259790  10.356  10.458   3.639
52653SOL     OW59791   3.610   3.455   1.720
52653SOL    HW159792   3.698   3.447   1.756
52653SOL    HW259793   3.609   3.541   1.678
52654SOL     OW59794  14.112   4.427   8.802
52654SOL    HW159795  14.052   4.456   8.871
52654SOL    HW259796  14.198   4.458   8.831
52655SOL     OW59797  13.788   7.156  11.409
52655SOL    HW159798  13.734   7.235  11.414
52655SOL    HW259799  13.728   7.085  11.432
52656SOL     OW59800   9.519   2.775  12.754
52656SOL    HW159801   9.464   2.816  12.821
52656SOL    HW259802   9.543   2.846  12.696
52657SOL     OW59803   2.986   1.314   5.478
52657SOL    HW159804   3.009   1.253   5.408
52657SOL    HW259805   3.023   1.398   5.450
52658SOL     OW59806   7.246   1.947   1.378
52658SOL    HW159807   7.342   1.944   1.375
52658SOL    HW259808   7.222   1.881   1.443
52659SOL     OW59809   1.614   3.312   3.204
52659SOL    HW159810   1.682   3.367   3.167
52659SOL    HW259811   1.604   3.240   3.141
52660SOL     OW59812  11.213  10.509   2.676
52660SOL    HW159813  11.208  10.577   2.743
52660SOL    HW259814  11.199  10.427   2.723
52661SOL     OW59815   5.998   4.772   3.152
52661SOL    HW159816   6.088   4.788   3.179
52661SOL    HW259817   5.962   4.859   3.134
52662SOL     OW59818  12.758   0.307  14.527
52662SOL    HW159819  12.670   0.335  14.550
52662SOL    HW259820  12.797   0.280  14.609
52663SOL     OW59821   8.473   9.777   0.136
52663SOL    HW159822   8.437   9.747   0.219
52663SOL    HW259823   8.568   9.780   0.151
52664SOL     OW59824   7.643   0.284   1.028
52664SOL    HW159825   7.602   0.362   0.990
52664SOL    HW259826   7.736   0.305   1.030
52665SOL     OW59827   2.105  10.492   3.245
52665SOL    HW159828   2.123  10.513   3.153
52665SOL    HW259829   2.190  10.495   3.287
52666SOL     OW59830  13.398   5.727  11.678
52666SOL    HW159831  13.344   5.650  11.659
52666SOL    HW259832  13.437   5.708  11.763
52667SOL     OW59833  10.839   1.339   6.302
52667SOL    HW159834  10.760   1.324   6.353
52667SOL    HW259835  10.881   1.414   6.346
52668SOL     OW59836   3.426   7.181   9.865
52668SOL    HW159837   3.412   7.265   9.823
52668SOL    HW259838   3.395   7.193   9.955
52669SOL     OW59839   8.914   0.312   0.534
52669SOL    HW159840   8.860   0.287   0.459
52669SOL    HW259841   8.989   0.357   0.495
52670SOL     OW59842   9.030   4.220   0.121
52670SOL    HW159843   9.084   4.142   0.135
52670SOL    HW259844   8.958   4.211   0.184
52671SOL     OW59845  14.196   1.889   4.271
52671SOL    HW159846  14.274   1.875   4.218
52671SOL    HW259847  14.128   1.915   4.209
52672SOL     OW59848   7.217   2.548   7.769
52672SOL    HW159849   7.151   2.609   7.735
52672SOL    HW259850   7.175   2.507   7.844
52673SOL     OW59851   2.093  11.188   3.898
52673SOL    HW159852   2.175  11.238   3.893
52673SOL    HW259853   2.105  11.132   3.975
52674SOL     OW59854   2.562   3.325   6.114
52674SOL    HW159855   2.529   3.351   6.200
52674SOL    HW259856   2.590   3.235   6.124
52675SOL     OW59857   6.722  14.578   1.109
52675SOL    HW159858   6.799  14.615   1.066
52675SOL    HW259859   6.686  14.517   1.045
52676SOL     OW59860  11.342  14.511   2.564
52676SOL    HW159861  11.299  14.534   2.646
52676SOL    HW259862  11.297  14.564   2.498
52677SOL     OW59863  13.122   4.601  13.207
52677SOL    HW159864  13.062   4.562  13.270
52677SOL    HW259865  13.075   4.598  13.124
52678SOL     OW59866   4.703   4.585  10.788
52678SOL    HW159867   4.795   4.610  10.784
52678SOL    HW259868   4.666   4.642  10.855
52679SOL     OW59869   9.306   4.699   6.752
52679SOL    HW159870   9.212   4.712   6.768
52679SOL    HW259871   9.347   4.718   6.837
52680SOL     OW59872   8.754   0.659   0.446
52680SOL    HW159873   8.798   0.639   0.363
52680SOL    HW259874   8.689   0.589   0.455
52681SOL     OW59875   6.103   3.203   2.686
52681SOL    HW159876   6.031   3.263   2.664
52681SOL    HW259877   6.092   3.186   2.779
52682SOL     OW59878   8.127   4.349   1.065
52682SOL    HW159879   8.049   4.396   1.094
52682SOL    HW259880   8.159   4.398   0.990
52683SOL     OW59881   6.563   0.973   0.716
52683SOL    HW159882   6.489   0.918   0.688
52683SOL    HW259883   6.632   0.954   0.653
52684SOL     OW59884   1.011  12.009   0.896
52684SOL    HW159885   1.088  12.039   0.944
52684SOL    HW259886   0.950  12.082   0.899
52685SOL     OW59887   0.959   3.826  12.243
52685SOL    HW159888   1.030   3.837  12.180
52685SOL    HW259889   0.986   3.877  12.319
52686SOL     OW59890   2.428  11.357  13.581
52686SOL    HW159891   2.440  11.298  13.656
52686SOL    HW259892   2.417  11.444  13.621
52687SOL     OW59893   6.000  12.520   8.784
52687SOL    HW159894   5.968  12.431   8.799
52687SOL    HW259895   5.998  12.530   8.689
52688SOL     OW59896  13.364  13.283   2.530
52688SOL    HW159897  13.396  13.218   2.593
52688SOL    HW259898  13.442  13.316   2.487
52689SOL     OW59899   0.618   8.670  10.986
52689SOL    HW159900   0.561   8.597  11.009
52689SOL    HW259901   0.562   8.729  10.936
52690SOL     OW59902  14.180   4.167   8.669
52690SOL    HW159903  14.167   4.099   8.735
52690SOL    HW259904  14.159   4.249   8.715
52691SOL     OW59905   9.678   9.511   9.098
52691SOL    HW159906   9.691   9.536   9.190
52691SOL    HW259907   9.589   9.475   9.096
52692SOL     OW59908   8.775   4.980  14.643
52692SOL    HW159909   8.722   5.021  14.712
52692SOL    HW259910   8.823   4.910  14.688
52693SOL     OW59911  12.466  10.647  11.975
52693SOL    HW159912  12.457  10.668  12.068
52693SOL    HW259913  12.419  10.717  11.930
52694SOL     OW59914  10.685   9.532   5.832
52694SOL    HW159915  10.640   9.490   5.906
52694SOL    HW259916  10.614   9.564   5.777
52695SOL     OW59917   6.122  10.829  11.373
52695SOL    HW159918   6.136  10.739  11.401
52695SOL    HW259919   6.211  10.867  11.370
52696SOL     OW59920  12.093  14.674   0.455
52696SOL    HW159921  12.046  14.689   0.373
52696SOL    HW259922  12.114  14.761   0.487
52697SOL     OW59923  14.322  10.754   1.617
52697SOL    HW159924  14.234  10.791   1.613
52697SOL    HW259925  14.310  10.667   1.655
52698SOL     OW59926   8.919  11.621   7.208
52698SOL    HW159927   8.957  11.571   7.136
52698SOL    HW259928   8.825  11.623   7.188
52699SOL     OW59929  10.071  10.051  11.588
52699SOL    HW159930  10.021   9.974  11.616
52699SOL    HW259931  10.151  10.016  11.551
52700SOL     OW59932   3.855  14.288   4.108
52700SOL    HW159933   3.789  14.255   4.169
52700SOL    HW259934   3.806  14.344   4.048
52701SOL     OW59935  12.980  14.161  12.450
52701SOL    HW159936  12.918  14.109  12.500
52701SOL    HW259937  12.969  14.251  12.481
52702SOL     OW59938  11.252   3.179   5.941
52702SOL    HW159939  11.298   3.257   5.971
52702SOL    HW259940  11.167   3.182   5.985
52703SOL     OW59941  13.546   9.241  14.529
52703SOL    HW159942  13.598   9.305  14.481
52703SOL    HW259943  13.456   9.274  14.525
52704SOL     OW59944   7.532   3.574  10.195
52704SOL    HW159945   7.541   3.500  10.255
52704SOL    HW259946   7.613   3.625  10.207
52705SOL     OW59947   1.239   6.389  11.429
52705SOL    HW159948   1.327   6.396  11.465
52705SOL    HW259949   1.214   6.479  11.408
52706SOL     OW59950   1.691  11.984   8.711
52706SOL    HW159951   1.665  11.941   8.629
52706SOL    HW259952   1.613  11.978   8.766
52707SOL     OW59953   7.221  13.688   0.915
52707SOL    HW159954   7.278  13.687   0.838
52707SOL    HW259955   7.160  13.760   0.899
52708SOL     OW59956   3.032   9.756   1.703
52708SOL    HW159957   3.105   9.726   1.650
52708SOL    HW259958   3.021   9.688   1.770
52709SOL     OW59959  14.035  11.021   7.307
52709SOL    HW159960  13.944  11.045   7.321
52709SOL    HW259961  14.039  10.996   7.214
52710SOL     OW59962  12.701  11.595  10.137
52710SOL    HW159963  12.715  11.500  10.136
52710SOL    HW259964  12.780  11.630  10.178
52711SOL     OW59965   9.331   5.492  12.801
52711SOL    HW159966   9.278   5.455  12.872
52711SOL    HW259967   9.329   5.426  12.732
52712SOL     OW59968   4.183   6.322  14.398
52712SOL    HW159969   4.142   6.407  14.415
52712SOL    HW259970   4.275   6.335  14.420
52713SOL     OW59971   0.869  14.536  14.475
52713SOL    HW159972   0.808  14.464  14.462
52713SOL    HW259973   0.848  14.598  14.406
52714SOL     OW59974  14.155  13.127   9.272
52714SOL    HW159975  14.158  13.199   9.335
52714SOL    HW259976  14.230  13.142   9.215
52715SOL     OW59977   5.851  12.855   8.595
52715SOL    HW159978   5.778  12.794   8.603
52715SOL    HW259979   5.811  12.937   8.566
52716SOL     OW59980   9.341   9.998  10.488
52716SOL    HW159981   9.292   9.922  10.521
52716SOL    HW259982   9.348  10.056  10.564
52717SOL     OW59983   4.876   6.107  14.813
52717SOL    HW159984   4.782   6.090  14.811
52717SOL    HW259985   4.905   6.076   0.020
52718SOL     OW59986   9.621   9.858   9.296
52718SOL    HW159987   9.686   9.792   9.276
52718SOL    HW259988   9.671   9.936   9.321
52719SOL     OW59989  13.691  11.467  14.098
52719SOL    HW159990  13.674  11.476  14.004
52719SOL    HW259991  13.686  11.556  14.132
52720SOL     OW59992   5.359   8.259   6.894
52720SOL    HW159993   5.359   8.353   6.875
52720SOL    HW259994   5.451   8.233   6.888
52721SOL     OW59995  14.681  11.991  13.681
52721SOL    HW159996  14.597  11.995  13.727
52721SOL    HW259997  14.718  12.079  13.692
52722SOL     OW59998   3.776   5.768   6.339
52722SOL    HW159999   3.828   5.802   6.412
52722SOL    HW260000   3.742   5.684   6.372
52723SOL     OW60001   3.389  13.228   6.350
52723SOL    HW160002   3.315  13.289   6.340
52723SOL    HW260003   3.363  13.171   6.422
52724SOL     OW60004   5.566   4.914  14.098
52724SOL    HW160005   5.581   4.852  14.169
52724SOL    HW260006   5.653   4.926  14.058
52725SOL     OW60007  12.485  10.426  13.709
52725SOL    HW160008  12.487  10.485  13.784
52725SOL    HW260009  12.573  10.388  13.705
52726SOL     OW60010   9.595   6.528   0.939
52726SOL    HW160011   9.642   6.611   0.942
52726SOL    HW260012   9.550   6.529   0.855
52727SOL     OW60013  11.483  11.088   8.954
52727SOL    HW160014  11.405  11.048   8.914
52727SOL    HW260015  11.550  11.019   8.949
52728SOL     OW60016   0.400   7.249  14.841
52728SOL    HW160017   0.464   7.303   0.009
52728SOL    HW260018   0.361   7.195   0.031
52729SOL     OW60019   5.824   7.746   0.563
52729SOL    HW160020   5.787   7.659   0.546
52729SOL    HW260021   5.916   7.739   0.537
52730SOL     OW60022   0.420   2.842   2.691
52730SOL    HW160023   0.515   2.838   2.693
52730SOL    HW260024   0.393   2.760   2.650
52731SOL     OW60025   0.982   3.808  10.184
52731SOL    HW160026   1.003   3.840  10.272
52731SOL    HW260027   0.886   3.811  10.179
52732SOL     OW60028  11.950   9.427   8.134
52732SOL    HW160029  11.899   9.507   8.121
52732SOL    HW260030  12.033   9.458   8.171
52733SOL     OW60031   0.171  12.418   2.874
52733SOL    HW160032   0.207  12.376   2.952
52733SOL    HW260033   0.090  12.369   2.856
52734SOL     OW60034  11.479   5.738   6.834
52734SOL    HW160035  11.386   5.715   6.836
52734SOL    HW260036  11.503   5.751   6.926
52735SOL     OW60037  11.650   8.475   5.707
52735SOL    HW160038  11.576   8.432   5.751
52735SOL    HW260039  11.726   8.452   5.760
52736SOL     OW60040   4.343   2.579   0.567
52736SOL    HW160041   4.395   2.659   0.574
52736SOL    HW260042   4.406   2.508   0.582
52737SOL     OW60043  13.861   5.476  14.366
52737SOL    HW160044  13.944   5.507  14.330
52737SOL    HW260045  13.886   5.404  14.424
52738SOL     OW60046   9.994  11.311   0.826
52738SOL    HW160047   9.899  11.297   0.822
52738SOL    HW260048  10.031  11.223   0.827
52739SOL     OW60049   2.295   5.794   9.310
52739SOL    HW160050   2.306   5.884   9.280
52739SOL    HW260051   2.295   5.801   9.406
52740SOL     OW60052   4.463   6.531   4.710
52740SOL    HW160053   4.544   6.480   4.705
52740SOL    HW260054   4.417   6.509   4.629
52741SOL     OW60055   3.161  12.170  12.608
52741SOL    HW160056   3.246  12.214  12.603
52741SOL    HW260057   3.165  12.119  12.689
52742SOL     OW60058  14.512  12.914   1.305
52742SOL    HW160059  14.525  12.982   1.239
52742SOL    HW260060  14.486  12.837   1.255
52743SOL     OW60061   7.645   5.583   5.084
52743SOL    HW160062   7.567   5.603   5.032
52743SOL    HW260063   7.626   5.621   5.170
52744SOL     OW60064  11.602  14.872   1.462
52744SOL    HW160065  11.616   0.034   1.547
52744SOL    HW260066  11.688  14.842   1.435
52745SOL     OW60067   4.670   8.572  14.186
52745SOL    HW160068   4.678   8.649  14.130
52745SOL    HW260069   4.663   8.607  14.275
52746SOL     OW60070   2.786  11.432  11.940
52746SOL    HW160071   2.778  11.341  11.912
52746SOL    HW260072   2.697  11.458  11.963
52747SOL     OW60073   8.418   4.472   6.421
52747SOL    HW160074   8.475   4.526   6.366
52747SOL    HW260075   8.357   4.534   6.460
52748SOL     OW60076  10.902   2.299   0.175
52748SOL    HW160077  10.976   2.340   0.220
52748SOL    HW260078  10.916   2.205   0.186
52749SOL     OW60079  12.086   5.009  10.240
52749SOL    HW160080  12.059   5.049  10.323
52749SOL    HW260081  12.007   4.970  10.204
52750SOL     OW60082   8.975   6.393   4.434
52750SOL    HW160083   8.977   6.304   4.398
52750SOL    HW260084   9.004   6.448   4.362
52751SOL     OW60085   0.306   7.808   4.590
52751SOL    HW160086   0.341   7.824   4.678
52751SOL    HW260087   0.213   7.830   4.597
52752SOL     OW60088   4.821   0.163   6.955
52752SOL    HW160089   4.788   0.247   6.987
52752SOL    HW260090   4.841   0.113   7.035
52753SOL     OW60091   2.612   1.860  10.285
52753SOL    HW160092   2.611   1.924  10.356
52753SOL    HW260093   2.664   1.787  10.318
52754SOL     OW60094   4.395   2.689   8.526
52754SOL    HW160095   4.430   2.777   8.542
52754SOL    HW260096   4.417   2.640   8.604
52755SOL     OW60097  13.025  11.640   3.428
52755SOL    HW160098  13.069  11.644   3.343
52755SOL    HW260099  13.005  11.547   3.440
52756SOL     OW60100  11.944   7.804   6.548
52756SOL    HW160101  11.885   7.853   6.606
52756SOL    HW260102  12.023   7.858   6.543
52757SOL     OW60103   2.401  12.269   4.113
52757SOL    HW160104   2.368  12.190   4.071
52757SOL    HW260105   2.447  12.238   4.191
52758SOL     OW60106  14.116   5.991   7.711
52758SOL    HW160107  14.085   5.963   7.797
52758SOL    HW260108  14.210   6.002   7.722
52759SOL     OW60109   9.749   7.026   6.490
52759SOL    HW160110   9.713   7.092   6.550
52759SOL    HW260111   9.734   7.062   6.403
52760SOL     OW60112  14.168   5.384   7.978
52760SOL    HW160113  14.189   5.437   7.901
52760SOL    HW260114  14.103   5.321   7.946
52761SOL     OW60115   0.200   3.002  12.819
52761SOL    HW160116   0.123   2.957  12.856
52761SOL    HW260117   0.231   2.945  12.749
52762SOL     OW60118  10.161   8.286   6.969
52762SOL    HW160119  10.106   8.357   6.934
52762SOL    HW260120  10.166   8.304   7.063
52763SOL     OW60121  13.869  13.686  10.948
52763SOL    HW160122  13.960  13.668  10.923
52763SOL    HW260123  13.870  13.681  11.044
52764SOL     OW60124  10.789   3.564  11.427
52764SOL    HW160125  10.722   3.598  11.486
52764SOL    HW260126  10.835   3.498  11.479
52765SOL     OW60127   0.111  13.243   2.258
52765SOL    HW160128   0.058  13.168   2.284
52765SOL    HW260129   0.155  13.215   2.178
52766SOL     OW60130  14.856   2.329  12.913
52766SOL    HW160131   0.012   2.359  12.829
52766SOL    HW260132   0.053   2.327  12.971
52767SOL     OW60133   1.320   2.370   1.250
52767SOL    HW160134   1.248   2.325   1.206
52767SOL    HW260135   1.368   2.301   1.296
52768SOL     OW60136  10.460   3.841   3.541
52768SOL    HW160137  10.500   3.927   3.553
52768SOL    HW260138  10.508   3.784   3.601
52769SOL     OW60139   8.909   8.764  10.577
52769SOL    HW160140   8.891   8.672  10.561
52769SOL    HW260141   8.878   8.809  10.498
52770SOL     OW60142  10.368   6.141  12.943
52770SOL    HW160143  10.336   6.168  13.029
52770SOL    HW260144  10.396   6.051  12.955
52771SOL     OW60145   8.479   9.590  14.036
52771SOL    HW160146   8.451   9.526  13.970
52771SOL    HW260147   8.451   9.551  14.120
52772SOL     OW60148   7.722   9.358   1.691
52772SOL    HW160149   7.671   9.281   1.667
52772SOL    HW260150   7.795   9.324   1.743
52773SOL     OW60151   5.919   0.981  12.427
52773SOL    HW160152   6.003   0.992  12.471
52773SOL    HW260153   5.941   0.962  12.336
52774SOL     OW60154   6.560  10.221   9.373
52774SOL    HW160155   6.596  10.281   9.308
52774SOL    HW260156   6.594  10.254   9.457
52775SOL     OW60157   2.496  10.501  13.520
52775SOL    HW160158   2.492  10.473  13.612
52775SOL    HW260159   2.489  10.596  13.524
52776SOL     OW60160   2.400   2.306   5.516
52776SOL    HW160161   2.357   2.362   5.580
52776SOL    HW260162   2.492   2.332   5.519
52777SOL     OW60163  10.179   0.578   7.798
52777SOL    HW160164  10.107   0.575   7.861
52777SOL    HW260165  10.140   0.545   7.716
52778SOL     OW60166   9.824  12.208  10.338
52778SOL    HW160167   9.742  12.183  10.294
52778SOL    HW260168   9.829  12.303  10.327
52779SOL     OW60169  11.112   9.774   9.517
52779SOL    HW160170  11.189   9.717   9.514
52779SOL    HW260171  11.056   9.741   9.446
52780SOL     OW60172   4.917   5.993  10.875
52780SOL    HW160173   4.873   6.064  10.828
52780SOL    HW260174   4.848   5.930  10.895
52781SOL     OW60175   2.687   0.010   5.342
52781SOL    HW160176   2.687   0.049   5.430
52781SOL    HW260177   2.599   0.027   5.308
52782SOL     OW60178   6.476   0.960   9.938
52782SOL    HW160179   6.480   1.049   9.903
52782SOL    HW260180   6.560   0.920   9.915
52783SOL     OW60181  10.702   9.601   7.994
52783SOL    HW160182  10.797   9.606   8.003
52783SOL    HW260183  10.687   9.598   7.900
52784SOL     OW60184   4.701  11.724   7.646
52784SOL    HW160185   4.681  11.678   7.565
52784SOL    HW260186   4.759  11.664   7.693
52785SOL     OW60187   7.358   1.296   1.886
52785SOL    HW160188   7.287   1.290   1.823
52785SOL    HW260189   7.430   1.246   1.847
52786SOL     OW60190  14.211   8.121   5.853
52786SOL    HW160191  14.152   8.107   5.780
52786SOL    HW260192  14.294   8.084   5.825
52787SOL     OW60193  10.050   5.907   4.109
52787SOL    HW160194  10.097   5.824   4.103
52787SOL    HW260195   9.962   5.887   4.077
52788SOL     OW60196  12.092  10.797   0.018
52788SOL    HW160197  12.019  10.854  14.874
52788SOL    HW260198  12.074  10.715  14.852
52789SOL     OW60199   8.450   2.037   7.021
52789SOL    HW160200   8.526   2.007   7.071
52789SOL    HW260201   8.482   2.112   6.971
52790SOL     OW60202   4.216  11.805  13.461
52790SOL    HW160203   4.124  11.833  13.461
52790SOL    HW260204   4.220  11.736  13.527
52791SOL     OW60205   9.710   4.883  11.297
52791SOL    HW160206   9.697   4.955  11.234
52791SOL    HW260207   9.777   4.828  11.256
52792SOL     OW60208   8.723   2.809   0.504
52792SOL    HW160209   8.769   2.888   0.532
52792SOL    HW260210   8.734   2.748   0.577
52793SOL     OW60211   2.332  11.590   2.363
52793SOL    HW160212   2.371  11.624   2.444
52793SOL    HW260213   2.366  11.501   2.355
52794SOL     OW60214   5.926   4.425  12.209
52794SOL    HW160215   5.895   4.378  12.287
52794SOL    HW260216   5.895   4.514  12.221
52795SOL     OW60217  11.555  12.131   9.057
52795SOL    HW160218  11.646  12.104   9.043
52795SOL    HW260219  11.550  12.220   9.021
52796SOL     OW60220   0.115   6.122   5.035
52796SOL    HW160221   0.111   6.215   5.054
52796SOL    HW260222   0.140   6.081   5.117
52797SOL     OW60223   0.576   3.443   5.911
52797SOL    HW160224   0.570   3.536   5.935
52797SOL    HW260225   0.670   3.429   5.897
52798SOL     OW60226   5.996  13.671   4.373
52798SOL    HW160227   5.950  13.721   4.440
52798SOL    HW260228   5.983  13.579   4.398
52799SOL     OW60229  12.726  11.556   8.966
52799SOL    HW160230  12.742  11.636   8.915
52799SOL    HW260231  12.706  11.489   8.900
52800SOL     OW60232   6.679   4.393   2.466
52800SOL    HW160233   6.639   4.369   2.382
52800SOL    HW260234   6.686   4.489   2.462
52801SOL     OW60235   1.597   6.914  13.575
52801SOL    HW160236   1.579   6.833  13.623
52801SOL    HW260237   1.597   6.982  13.643
52802SOL     OW60238   3.048  11.201   6.536
52802SOL    HW160239   2.966  11.237   6.572
52802SOL    HW260240   3.084  11.149   6.608
52803SOL     OW60241  13.877   3.941   7.747
52803SOL    HW160242  13.875   3.905   7.659
52803SOL    HW260243  13.831   4.025   7.739
52804SOL     OW60244  12.858  12.691   5.478
52804SOL    HW160245  12.931  12.736   5.435
52804SOL    HW260246  12.788  12.693   5.413
52805SOL     OW60247   9.992   8.205   3.251
52805SOL    HW160248  10.020   8.243   3.168
52805SOL    HW260249  10.022   8.266   3.318
52806SOL     OW60250   8.454   2.894  10.169
52806SOL    HW160251   8.480   2.830  10.102
52806SOL    HW260252   8.399   2.957  10.122
52807SOL     OW60253   4.522  12.046   7.439
52807SOL    HW160254   4.430  12.019   7.438
52807SOL    HW260255   4.520  12.139   7.461
52808SOL     OW60256   7.045   4.254  13.461
52808SOL    HW160257   7.126   4.289  13.426
52808SOL    HW260258   7.002   4.212  13.387
52809SOL     OW60259   1.096  13.460   4.481
52809SOL    HW160260   1.128  13.548   4.498
52809SOL    HW260261   1.102  13.415   4.565
52810SOL     OW60262  10.674   5.649  14.082
52810SOL    HW160263  10.716   5.633  13.997
52810SOL    HW260264  10.587   5.610  14.073
52811SOL     OW60265   0.651  14.767   8.307
52811SOL    HW160266   0.570  14.745   8.261
52811SOL    HW260267   0.669  14.691   8.362
52812SOL     OW60268   8.019   5.450   2.618
52812SOL    HW160269   8.008   5.422   2.709
52812SOL    HW260270   7.939   5.498   2.599
52813SOL     OW60271  13.296   5.244   7.019
52813SOL    HW160272  13.306   5.317   7.080
52813SOL    HW260273  13.228   5.189   7.058
52814SOL     OW60274  13.890   3.797   4.787
52814SOL    HW160275  13.809   3.849   4.789
52814SOL    HW260276  13.861   3.708   4.808
52815SOL     OW60277   6.033   9.938   3.675
52815SOL    HW160278   5.998   9.893   3.598
52815SOL    HW260279   6.012   9.880   3.749
52816SOL     OW60280  14.730   7.316   6.616
52816SOL    HW160281  14.816   7.281   6.595
52816SOL    HW260282  14.700   7.264   6.691
52817SOL     OW60283   9.596   6.192  12.340
52817SOL    HW160284   9.679   6.235  12.323
52817SOL    HW260285   9.531   6.262  12.339
52818SOL     OW60286  11.224   8.335   5.068
52818SOL    HW160287  11.153   8.310   5.010
52818SOL    HW260288  11.291   8.371   5.010
52819SOL     OW60289   2.285   0.326  10.963
52819SOL    HW160290   2.290   0.414  10.998
52819SOL    HW260291   2.361   0.318  10.905
52820SOL     OW60292   3.794   8.861   9.215
52820SOL    HW160293   3.706   8.853   9.180
52820SOL    HW260294   3.825   8.771   9.224
52821SOL     OW60295  12.990   5.698  13.806
52821SOL    HW160296  12.971   5.676  13.897
52821SOL    HW260297  12.918   5.755  13.779
52822SOL     OW60298  11.896  11.817   9.407
52822SOL    HW160299  11.898  11.798   9.313
52822SOL    HW260300  11.864  11.735   9.447
52823SOL     OW60301   9.179   6.844  12.266
52823SOL    HW160302   9.230   6.798  12.199
52823SOL    HW260303   9.219   6.931  12.269
52824SOL     OW60304   0.650   8.668   5.048
52824SOL    HW160305   0.614   8.756   5.047
52824SOL    HW260306   0.689   8.659   5.136
52825SOL     OW60307   8.994  14.727   4.022
52825SOL    HW160308   8.970  14.731   3.930
52825SOL    HW260309   8.926  14.673   4.062
52826SOL     OW60310  11.901   0.040  13.232
52826SOL    HW160311  11.860   0.011  13.151
52826SOL    HW260312  11.836   0.022  13.300
52827SOL     OW60313   1.318  10.006   8.624
52827SOL    HW160314   1.238  10.057   8.611
52827SOL    HW260315   1.288   9.926   8.666
52828SOL     OW60316  14.873   4.312   1.163
52828SOL    HW160317  14.822   4.385   1.128
52828SOL    HW260318   0.035   4.347   1.243
52829SOL     OW60319   5.124  10.776   1.021
52829SOL    HW160320   5.053  10.729   0.976
52829SOL    HW260321   5.184  10.801   0.950
52830SOL     OW60322   9.225   9.290   7.314
52830SOL    HW160323   9.286   9.357   7.344
52830SOL    HW260324   9.144   9.308   7.363
52831SOL     OW60325   2.035  12.564   7.115
52831SOL    HW160326   2.116  12.595   7.155
52831SOL    HW260327   1.997  12.641   7.074
52832SOL     OW60328  12.042   1.942  11.222
52832SOL    HW160329  12.052   1.996  11.301
52832SOL    HW260330  11.973   1.879  11.245
52833SOL     OW60331   2.625  12.861  10.747
52833SOL    HW160332   2.706  12.826  10.709
52833SOL    HW260333   2.637  12.851  10.841
52834SOL     OW60334   6.223  12.712   0.331
52834SOL    HW160335   6.271  12.685   0.410
52834SOL    HW260336   6.141  12.749   0.364
52835SOL     OW60337   2.218  13.550   3.217
52835SOL    HW160338   2.163  13.479   3.185
52835SOL    HW260339   2.159  13.604   3.269
52836SOL     OW60340   5.874   6.503   7.457
52836SOL    HW160341   5.835   6.473   7.375
52836SOL    HW260342   5.919   6.585   7.434
52837SOL     OW60343   1.721  11.938   2.705
52837SOL    HW160344   1.675  11.856   2.725
52837SOL    HW260345   1.796  11.938   2.765
52838SOL     OW60346   4.092   2.473   8.036
52838SOL    HW160347   4.098   2.465   8.131
52838SOL    HW260348   4.068   2.385   8.007
52839SOL     OW60349   4.809   1.803  13.464
52839SOL    HW160350   4.731   1.844  13.500
52839SOL    HW260351   4.880   1.863  13.486
52840SOL     OW60352  10.935   4.438  10.032
52840SOL    HW160353  10.988   4.514  10.010
52840SOL    HW260354  10.936   4.435  10.128
52841SOL     OW60355   8.798   4.428   6.896
52841SOL    HW160356   8.767   4.425   6.805
52841SOL    HW260357   8.893   4.440   6.888
52842SOL     OW60358   2.046   0.942  12.855
52842SOL    HW160359   2.026   1.000  12.929
52842SOL    HW260360   2.141   0.934  12.855
52843SOL     OW60361   1.293   3.549   5.835
52843SOL    HW160362   1.219   3.535   5.776
52843SOL    HW260363   1.279   3.487   5.907
52844SOL     OW60364   3.156   9.782   7.444
52844SOL    HW160365   3.101   9.789   7.522
52844SOL    HW260366   3.220   9.715   7.465
52845SOL     OW60367   8.447   8.983   0.830
52845SOL    HW160368   8.529   8.974   0.781
52845SOL    HW260369   8.411   8.894   0.832
52846SOL     OW60370  13.054   8.418   2.058
52846SOL    HW160371  13.118   8.472   2.011
52846SOL    HW260372  13.024   8.355   1.992
52847SOL     OW60373   1.461   5.975   7.772
52847SOL    HW160374   1.424   5.888   7.783
52847SOL    HW260375   1.524   5.982   7.844
52848SOL     OW60376   4.352   9.623  12.644
52848SOL    HW160377   4.304   9.675  12.579
52848SOL    HW260378   4.374   9.542  12.599
52849SOL     OW60379   1.988  11.824   7.798
52849SOL    HW160380   2.012  11.914   7.822
52849SOL    HW260381   2.055  11.770   7.839
52850SOL     OW60382   0.713  11.124   6.520
52850SOL    HW160383   0.623  11.109   6.492
52850SOL    HW260384   0.734  11.212   6.488
52851SOL     OW60385   8.020   9.882   0.580
52851SOL    HW160386   7.926   9.880   0.563
52851SOL    HW260387   8.058   9.829   0.511
52852SOL     OW60388  11.348  14.470  12.046
52852SOL    HW160389  11.324  14.556  12.080
52852SOL    HW260390  11.441  14.478  12.025
52853SOL     OW60391  14.285  11.192  11.137
52853SOL    HW160392  14.317  11.132  11.205
52853SOL    HW260393  14.352  11.187  11.068
52854SOL     OW60394   3.107  14.474  13.325
52854SOL    HW160395   3.146  14.426  13.398
52854SOL    HW260396   3.028  14.424  13.303
52855SOL     OW60397  12.985   5.912  11.986
52855SOL    HW160398  12.989   5.926  11.891
52855SOL    HW260399  12.977   6.001  12.023
52856SOL     OW60400   6.633   0.030  13.358
52856SOL    HW160401   6.570   0.001  13.424
52856SOL    HW260402   6.637  14.836  13.295
52857SOL     OW60403   4.794   2.763   8.848
52857SOL    HW160404   4.851   2.692   8.875
52857SOL    HW260405   4.822   2.838   8.901
52858SOL     OW60406  10.930  11.351   2.822
52858SOL    HW160407  10.842  11.324   2.796
52858SOL    HW260408  10.916  11.430   2.874
52859SOL     OW60409  10.190  10.512   7.809
52859SOL    HW160410  10.224  10.535   7.722
52859SOL    HW260411  10.186  10.416   7.809
52860SOL     OW60412   2.275   5.836   9.584
52860SOL    HW160413   2.219   5.869   9.654
52860SOL    HW260414   2.300   5.748   9.613
52861SOL     OW60415   4.534   5.581   3.936
52861SOL    HW160416   4.461   5.578   3.998
52861SOL    HW260417   4.562   5.490   3.929
52862SOL     OW60418   2.455   7.246   5.513
52862SOL    HW160419   2.521   7.177   5.517
52862SOL    HW260420   2.500   7.324   5.548
52863SOL     OW60421  11.472   8.281   6.611
52863SOL    HW160422  11.453   8.215   6.544
52863SOL    HW260423  11.549   8.327   6.579
52864SOL     OW60424   6.962   5.020   3.995
52864SOL    HW160425   6.980   5.056   3.908
52864SOL    HW260426   6.948   4.927   3.981
52865SOL     OW60427  11.877   4.164  14.631
52865SOL    HW160428  11.859   4.176  14.538
52865SOL    HW260429  11.797   4.127  14.667
52866SOL     OW60430  14.103   5.393  11.706
52866SOL    HW160431  14.137   5.306  11.686
52866SOL    HW260432  14.116   5.443  11.625
52867SOL     OW60433   6.436  14.333   0.795
52867SOL    HW160434   6.482  14.410   0.828
52867SOL    HW260435   6.347  14.342   0.828
52868SOL     OW60436   6.822   6.433   8.379
52868SOL    HW160437   6.898   6.465   8.429
52868SOL    HW260438   6.833   6.471   8.292
52869SOL     OW60439   9.914   1.417   9.998
52869SOL    HW160440   9.857   1.341  10.003
52869SOL    HW260441   9.912   1.443   9.906
52870SOL     OW60442   6.984   3.860   6.342
52870SOL    HW160443   6.978   3.785   6.401
52870SOL    HW260444   6.896   3.867   6.304
52871SOL     OW60445  12.389   7.073   5.599
52871SOL    HW160446  12.387   6.981   5.571
52871SOL    HW260447  12.422   7.121   5.524
52872SOL     OW60448   2.295   6.066   4.523
52872SOL    HW160449   2.376   6.110   4.550
52872SOL    HW260450   2.316   6.028   4.438
52873SOL     OW60451   5.669   6.701   9.915
52873SOL    HW160452   5.686   6.666   9.827
52873SOL    HW260453   5.755   6.705   9.956
52874SOL     OW60454   9.418   7.059   2.517
52874SOL    HW160455   9.331   7.066   2.557
52874SOL    HW260456   9.459   7.144   2.534
52875SOL     OW60457   2.716  11.411   9.421
52875SOL    HW160458   2.804  11.440   9.398
52875SOL    HW260459   2.662  11.490   9.416
52876SOL     OW60460  10.595  11.149   2.944
52876SOL    HW160461  10.631  11.170   3.030
52876SOL    HW260462  10.506  11.118   2.961
52877SOL     OW60463  11.340  13.842   3.177
52877SOL    HW160464  11.348  13.918   3.120
52877SOL    HW260465  11.392  13.774   3.135
52878SOL     OW60466   3.535  11.178  11.648
52878SOL    HW160467   3.476  11.226  11.590
52878SOL    HW260468   3.573  11.110  11.593
52879SOL     OW60469   7.730  13.679   3.738
52879SOL    HW160470   7.704  13.588   3.756
52879SOL    HW260471   7.746  13.716   3.825
52880SOL     OW60472   3.584   1.474   6.474
52880SOL    HW160473   3.540   1.518   6.401
52880SOL    HW260474   3.599   1.543   6.539
52881SOL     OW60475  12.042  11.586  11.761
52881SOL    HW160476  12.051  11.586  11.666
52881SOL    HW260477  12.130  11.570  11.794
52882SOL     OW60478   6.167  14.642  11.791
52882SOL    HW160479   6.218  14.579  11.842
52882SOL    HW260480   6.226  14.669  11.720
52883SOL     OW60481   0.640   0.497  14.597
52883SOL    HW160482   0.552   0.519  14.569
52883SOL    HW260483   0.698   0.544  14.537
52884SOL     OW60484  10.782   1.625   4.845
52884SOL    HW160485  10.829   1.623   4.762
52884SOL    HW260486  10.848   1.598   4.910
52885SOL     OW60487   2.554   9.047  12.457
52885SOL    HW160488   2.626   9.098  12.492
52885SOL    HW260489   2.593   8.962  12.434
52886SOL     OW60490   3.390   8.256   7.638
52886SOL    HW160491   3.380   8.176   7.587
52886SOL    HW260492   3.328   8.318   7.599
52887SOL     OW60493   3.265   5.239   3.729
52887SOL    HW160494   3.209   5.316   3.744
52887SOL    HW260495   3.203   5.168   3.710
52888SOL     OW60496   5.122   2.606  12.938
52888SOL    HW160497   5.043   2.571  12.980
52888SOL    HW260498   5.149   2.538  12.876
52889SOL     OW60499  12.996  11.435  10.021
52889SOL    HW160500  12.960  11.350  10.049
52889SOL    HW260501  12.986  11.491  10.098
52890SOL     OW60502   4.776   3.500  10.125
52890SOL    HW160503   4.780   3.596  10.123
52890SOL    HW260504   4.855   3.471  10.081
52891SOL     OW60505   9.359   6.081  11.101
52891SOL    HW160506   9.412   6.044  11.172
52891SOL    HW260507   9.306   6.008  11.069
52892SOL     OW60508   4.613   4.042  11.845
52892SOL    HW160509   4.657   3.976  11.791
52892SOL    HW260510   4.543   3.994  11.889
52893SOL     OW60511  14.229   3.065   8.700
52893SOL    HW160512  14.146   3.112   8.700
52893SOL    HW260513  14.284   3.113   8.762
52894SOL     OW60514   0.169   2.473   8.468
52894SOL    HW160515   0.102   2.535   8.440
52894SOL    HW260516   0.120   2.394   8.491
52895SOL     OW60517   9.054   9.233  10.035
52895SOL    HW160518   9.085   9.225   9.945
52895SOL    HW260519   8.982   9.295  10.030
52896SOL     OW60520   9.434   2.198   5.287
52896SOL    HW160521   9.389   2.255   5.349
52896SOL    HW260522   9.366   2.174   5.223
52897SOL     OW60523   2.282   6.372   7.537
52897SOL    HW160524   2.225   6.328   7.600
52897SOL    HW260525   2.222   6.406   7.471
52898SOL     OW60526   9.157   1.687  10.574
52898SOL    HW160527   9.207   1.617  10.615
52898SOL    HW260528   9.189   1.767  10.615
52899SOL     OW60529   2.021   0.797  13.443
52899SOL    HW160530   2.057   0.876  13.403
52899SOL    HW260531   1.982   0.748  13.370
52900SOL     OW60532   1.944  14.014   5.660
52900SOL    HW160533   1.948  13.919   5.672
52900SOL    HW260534   1.957  14.027   5.566
52901SOL     OW60535   4.351  13.512  12.171
52901SOL    HW160536   4.257  13.519  12.188
52901SOL    HW260537   4.392  13.537  12.254
52902SOL     OW60538   7.400   6.043   0.032
52902SOL    HW160539   7.369   6.019   0.119
52902SOL    HW260540   7.483   6.089   0.048
52903SOL     OW60541   0.169   7.089  12.555
52903SOL    HW160542   0.177   7.085  12.651
52903SOL    HW260543   0.133   7.004  12.530
52904SOL     OW60544  12.377  13.738   1.927
52904SOL    HW160545  12.395  13.828   1.955
52904SOL    HW260546  12.286  13.723   1.953
52905SOL     OW60547   7.012   2.942   2.080
52905SOL    HW160548   7.032   2.856   2.044
52905SOL    HW260549   7.065   2.947   2.160
52906SOL     OW60550   4.615   6.834   1.643
52906SOL    HW160551   4.681   6.820   1.575
52906SOL    HW260552   4.553   6.896   1.604
52907SOL     OW60553   9.760  12.531  14.359
52907SOL    HW160554   9.855  12.520  14.364
52907SOL    HW260555   9.743  12.615  14.402
52908SOL     OW60556   0.131   5.119   0.512
52908SOL    HW160557   0.198   5.052   0.526
52908SOL    HW260558   0.049   5.076   0.536
52909SOL     OW60559   8.594   8.503   9.217
52909SOL    HW160560   8.592   8.483   9.311
52909SOL    HW260561   8.589   8.599   9.213
52910SOL     OW60562   4.691  13.017   9.745
52910SOL    HW160563   4.641  12.937   9.725
52910SOL    HW260564   4.721  13.048   9.659
52911SOL     OW60565  13.027   8.426  14.420
52911SOL    HW160566  13.079   8.498  14.454
52911SOL    HW260567  13.030   8.359  14.489
52912SOL     OW60568   3.756   2.235   4.278
52912SOL    HW160569   3.713   2.221   4.194
52912SOL    HW260570   3.839   2.187   4.271
52913SOL     OW60571  11.862   3.793   4.980
52913SOL    HW160572  11.807   3.787   4.902
52913SOL    HW260573  11.944   3.750   4.955
52914SOL     OW60574   4.414   8.266   9.591
52914SOL    HW160575   4.428   8.355   9.561
52914SOL    HW260576   4.319   8.255   9.591
52915SOL     OW60577  10.959   2.766   1.238
52915SOL    HW160578  10.962   2.833   1.306
52915SOL    HW260579  10.918   2.810   1.163
52916SOL     OW60580   4.503   5.777   2.491
52916SOL    HW160581   4.493   5.872   2.483
52916SOL    HW260582   4.423   5.742   2.452
52917SOL     OW60583   0.046   9.922  14.381
52917SOL    HW160584   0.015  10.011  14.367
52917SOL    HW260585   0.058   9.916  14.476
52918SOL     OW60586  10.931  13.999   2.928
52918SOL    HW160587  10.973  13.949   2.998
52918SOL    HW260588  10.843  13.961   2.920
52919SOL     OW60589   0.109   2.897   6.172
52919SOL    HW160590   0.061   2.964   6.124
52919SOL    HW260591   0.192   2.888   6.124
52920SOL     OW60592   8.494   6.954   7.863
52920SOL    HW160593   8.474   6.864   7.835
52920SOL    HW260594   8.471   6.956   7.955
52921SOL     OW60595   3.923   0.069   5.639
52921SOL    HW160596   3.916   0.164   5.645
52921SOL    HW260597   3.836   0.041   5.610
52922SOL     OW60598  14.689   7.419   7.973
52922SOL    HW160599  14.730   7.408   7.887
52922SOL    HW260600  14.663   7.511   7.975
52923SOL     OW60601   4.650   5.175   1.153
52923SOL    HW160602   4.578   5.175   1.090
52923SOL    HW260603   4.721   5.223   1.109
52924SOL     OW60604  12.960  10.738  12.694
52924SOL    HW160605  12.915  10.730  12.778
52924SOL    HW260606  13.038  10.790  12.714
52925SOL     OW60607   6.652  12.660   8.547
52925SOL    HW160608   6.594  12.645   8.621
52925SOL    HW260609   6.625  12.745   8.513
52926SOL     OW60610   3.522   4.058   7.274
52926SOL    HW160611   3.534   3.966   7.300
52926SOL    HW260612   3.478   4.054   7.189
52927SOL     OW60613  11.393   3.241   3.429
52927SOL    HW160614  11.379   3.262   3.337
52927SOL    HW260615  11.477   3.193   3.431
52928SOL     OW60616   5.943   6.708   9.461
52928SOL    HW160617   5.956   6.672   9.374
52928SOL    HW260618   5.848   6.712   9.472
52929SOL     OW60619   1.924   9.556  14.181
52929SOL    HW160620   1.846   9.561  14.127
52929SOL    HW260621   1.938   9.645  14.213
52930SOL     OW60622   9.633   6.971  10.769
52930SOL    HW160623   9.622   7.064  10.750
52930SOL    HW260624   9.655   6.931  10.685
52931SOL     OW60625  10.435   6.663  12.788
52931SOL    HW160626  10.428   6.754  12.817
52931SOL    HW260627  10.445   6.613  12.869
52932SOL     OW60628  12.361   7.960   5.546
52932SOL    HW160629  12.313   7.978   5.627
52932SOL    HW260630  12.409   8.041   5.529
52933SOL     OW60631   6.786   8.682   7.146
52933SOL    HW160632   6.749   8.653   7.063
52933SOL    HW260633   6.758   8.615   7.209
52934SOL     OW60634   9.523   8.288  14.869
52934SOL    HW160635   9.609   8.252   0.011
52934SOL    HW260636   9.478   8.292   0.075
52935SOL     OW60637   0.790   8.690   4.593
52935SOL    HW160638   0.739   8.730   4.663
52935SOL    HW260639   0.794   8.757   4.525
52936SOL     OW60640  11.926   6.537  12.876
52936SOL    HW160641  11.856   6.472  12.872
52936SOL    HW260642  11.908   6.587  12.956
52937SOL     OW60643  10.201   1.546   2.211
52937SOL    HW160644  10.165   1.610   2.151
52937SOL    HW260645  10.172   1.574   2.297
52938SOL     OW60646   7.610  11.174  13.325
52938SOL    HW160647   7.628  11.106  13.261
52938SOL    HW260648   7.648  11.254  13.287
52939SOL     OW60649   9.122   1.017  12.700
52939SOL    HW160650   9.198   0.972  12.737
52939SOL    HW260651   9.114   1.097  12.752
52940SOL     OW60652   0.283   1.460  14.506
52940SOL    HW160653   0.269   1.453  14.411
52940SOL    HW260654   0.205   1.505  14.538
52941SOL     OW60655   0.865   6.108   8.475
52941SOL    HW160656   0.773   6.086   8.460
52941SOL    HW260657   0.867   6.144   8.564
52942SOL     OW60658   6.304   1.665   5.298
52942SOL    HW160659   6.308   1.757   5.274
52942SOL    HW260660   6.376   1.652   5.359
52943SOL     OW60661   1.559  14.055   8.319
52943SOL    HW160662   1.610  13.986   8.275
52943SOL    HW260663   1.624  14.102   8.371
52944SOL     OW60664   7.626   1.665   9.874
52944SOL    HW160665   7.574   1.588   9.852
52944SOL    HW260666   7.717   1.636   9.865
52945SOL     OW60667   9.456  13.881   8.176
52945SOL    HW160668   9.531  13.922   8.217
52945SOL    HW260669   9.486  13.794   8.151
52946SOL     OW60670  11.631   3.801   5.500
52946SOL    HW160671  11.588   3.725   5.540
52946SOL    HW260672  11.604   3.798   5.408
52947SOL     OW60673   1.126   5.641  12.510
52947SOL    HW160674   1.158   5.673  12.595
52947SOL    HW260675   1.198   5.660  12.449
52948SOL     OW60676   4.290   2.489   9.953
52948SOL    HW160677   4.281   2.414  10.012
52948SOL    HW260678   4.383   2.511   9.958
52949SOL     OW60679   2.252   4.498   6.053
52949SOL    HW160680   2.344   4.509   6.032
52949SOL    HW260681   2.211   4.472   5.970
52950SOL     OW60682   6.063   7.319  10.035
52950SOL    HW160683   6.134   7.300   9.974
52950SOL    HW260684   5.998   7.250  10.018
52951SOL     OW60685   5.931  12.119  11.233
52951SOL    HW160686   6.006  12.061  11.242
52951SOL    HW260687   5.887  12.089  11.154
52952SOL     OW60688   4.975  14.334   2.452
52952SOL    HW160689   5.045  14.391   2.423
52952SOL    HW260690   4.984  14.330   2.547
52953SOL     OW60691  10.433   9.606   6.740
52953SOL    HW160692  10.516   9.615   6.787
52953SOL    HW260693  10.430   9.514   6.714
52954SOL     OW60694  13.725   0.893   3.595
52954SOL    HW160695  13.685   0.909   3.509
52954SOL    HW260696  13.691   0.963   3.650
52955SOL     OW60697   0.113   8.588   5.427
52955SOL    HW160698   0.155   8.505   5.405
52955SOL    HW260699   0.019   8.570   5.418
52956SOL     OW60700   5.021   1.326  12.120
52956SOL    HW160701   4.963   1.325  12.197
52956SOL    HW260702   5.107   1.350  12.155
52957SOL     OW60703  13.852   5.966   3.990
52957SOL    HW160704  13.803   5.884   3.988
52957SOL    HW260705  13.914   5.958   3.918
52958SOL     OW60706   6.148   8.184   4.982
52958SOL    HW160707   6.221   8.139   5.023
52958SOL    HW260708   6.088   8.205   5.054
52959SOL     OW60709   0.779  12.979   4.552
52959SOL    HW160710   0.801  13.070   4.572
52959SOL    HW260711   0.857  12.945   4.508
52960SOL     OW60712  10.362   0.318   3.090
52960SOL    HW160713  10.417   0.374   3.035
52960SOL    HW260714  10.289   0.293   3.034
52961SOL     OW60715   6.935  14.467   0.261
52961SOL    HW160716   6.983  14.428   0.334
52961SOL    HW260717   6.860  14.511   0.302
52962SOL     OW60718   6.081   6.815   6.892
52962SOL    HW160719   6.066   6.737   6.945
52962SOL    HW260720   6.126   6.876   6.950
52963SOL     OW60721   1.318   1.415   1.241
52963SOL    HW160722   1.361   1.474   1.179
52963SOL    HW260723   1.345   1.327   1.214
52964SOL     OW60724   2.403   6.547   8.467
52964SOL    HW160725   2.456   6.601   8.408
52964SOL    HW260726   2.437   6.567   8.554
52965SOL     OW60727  13.118   2.618   5.541
52965SOL    HW160728  13.211   2.636   5.524
52965SOL    HW260729  13.119   2.543   5.600
52966SOL     OW60730  13.136   6.974   7.902
52966SOL    HW160731  13.180   6.934   7.827
52966SOL    HW260732  13.154   6.915   7.975
52967SOL     OW60733  11.203   3.017  11.145
52967SOL    HW160734  11.294   3.044  11.161
52967SOL    HW260735  11.164   3.092  11.101
52968SOL     OW60736   7.646   3.128  12.365
52968SOL    HW160737   7.699   3.207  12.356
52968SOL    HW260738   7.617   3.107  12.276
52969SOL     OW60739   9.755  12.466   7.549
52969SOL    HW160740   9.808  12.496   7.622
52969SOL    HW260741   9.738  12.545   7.497
52970SOL     OW60742   5.184   3.495   5.159
52970SOL    HW160743   5.201   3.587   5.181
52970SOL    HW260744   5.239   3.478   5.082
52971SOL     OW60745   6.108   5.124  14.060
52971SOL    HW160746   6.029   5.174  14.040
52971SOL    HW260747   6.134   5.154  14.147
52972SOL     OW60748   7.275   7.210   9.737
52972SOL    HW160749   7.248   7.229   9.647
52972SOL    HW260750   7.371   7.208   9.733
52973SOL     OW60751   3.455  12.458   1.254
52973SOL    HW160752   3.406  12.430   1.331
52973SOL    HW260753   3.530  12.399   1.250
52974SOL     OW60754   4.205   2.209   7.487
52974SOL    HW160755   4.219   2.225   7.394
52974SOL    HW260756   4.174   2.119   7.492
52975SOL     OW60757   8.328  12.858   7.017
52975SOL    HW160758   8.253  12.869   6.957
52975SOL    HW260759   8.289  12.854   7.104
52976SOL     OW60760   0.025   9.243   5.705
52976SOL    HW160761   0.054   9.168   5.757
52976SOL    HW260762  14.826   9.275   5.750
52977SOL     OW60763   5.160   4.734  11.884
52977SOL    HW160764   5.209   4.752  11.964
52977SOL    HW260765   5.141   4.640  11.888
52978SOL     OW60766   1.925  12.830   1.706
52978SOL    HW160767   1.853  12.883   1.741
52978SOL    HW260768   1.944  12.868   1.620
52979SOL     OW60769   6.047   9.915   2.180
52979SOL    HW160770   6.029   9.975   2.252
52979SOL    HW260771   6.137   9.936   2.154
52980SOL     OW60772   1.587   8.994   8.834
52980SOL    HW160773   1.500   8.965   8.804
52980SOL    HW260774   1.588   9.088   8.819
52981SOL     OW60775  10.795   9.315  13.551
52981SOL    HW160776  10.855   9.285  13.620
52981SOL    HW260777  10.807   9.252  13.480
52982SOL     OW60778   6.484  11.465   2.568
52982SOL    HW160779   6.522  11.550   2.547
52982SOL    HW260780   6.538  11.431   2.639
52983SOL     OW60781   6.158  12.376   1.880
52983SOL    HW160782   6.190  12.423   1.802
52983SOL    HW260783   6.184  12.285   1.865
52984SOL     OW60784   2.636  10.199   0.170
52984SOL    HW160785   2.554  10.150   0.168
52984SOL    HW260786   2.705  10.133   0.161
52985SOL     OW60787  14.369   8.690  13.146
52985SOL    HW160788  14.343   8.661  13.234
52985SOL    HW260789  14.379   8.608  13.097
52986SOL     OW60790   5.140   8.266  10.096
52986SOL    HW160791   5.204   8.330  10.066
52986SOL    HW260792   5.101   8.305  10.175
52987SOL     OW60793  12.088   1.442  13.933
52987SOL    HW160794  12.023   1.384  13.972
52987SOL    HW260795  12.090   1.417  13.841
52988SOL     OW60796   4.718   3.626   1.466
52988SOL    HW160797   4.765   3.565   1.523
52988SOL    HW260798   4.732   3.712   1.506
52989SOL     OW60799   5.827   0.115  13.300
52989SOL    HW160800   5.747   0.073  13.332
52989SOL    HW260801   5.828   0.095  13.207
52990SOL     OW60802   1.958   7.363   2.342
52990SOL    HW160803   2.047   7.341   2.369
52990SOL    HW260804   1.960   7.458   2.328
52991SOL     OW60805   9.667   4.462   6.779
52991SOL    HW160806   9.588   4.448   6.727
52991SOL    HW260807   9.653   4.410   6.858
52992SOL     OW60808   2.564  12.195   0.438
52992SOL    HW160809   2.605  12.181   0.353
52992SOL    HW260810   2.497  12.261   0.422
52993SOL     OW60811  13.097   3.544   6.696
52993SOL    HW160812  13.121   3.593   6.617
52993SOL    HW260813  13.010   3.509   6.677
52994SOL     OW60814   0.910   9.288   3.183
52994SOL    HW160815   1.003   9.286   3.202
52994SOL    HW260816   0.889   9.198   3.159
52995SOL     OW60817   8.482  11.890   4.205
52995SOL    HW160818   8.421  11.951   4.248
52995SOL    HW260819   8.526  11.845   4.277
52996SOL     OW60820   6.207   0.881  14.218
52996SOL    HW160821   6.238   0.931  14.143
52996SOL    HW260822   6.136   0.827  14.184
52997SOL     OW60823   8.511   0.803   8.966
52997SOL    HW160824   8.486   0.717   9.000
52997SOL    HW260825   8.583   0.831   9.023
52998SOL     OW60826  10.868   3.226   7.677
52998SOL    HW160827  10.932   3.154   7.676
52998SOL    HW260828  10.849   3.240   7.770
52999SOL     OW60829   0.802   0.682  10.462
52999SOL    HW160830   0.775   0.599  10.422
52999SOL    HW260831   0.757   0.749  10.411
53000SOL     OW60832   7.129   3.989   4.910
53000SOL    HW160833   7.147   3.949   4.824
53000SOL    HW260834   7.096   4.077   4.889
53001SOL     OW60835   9.083   1.621  14.364
53001SOL    HW160836   9.015   1.567  14.323
53001SOL    HW260837   9.122   1.671  14.293
53002SOL     OW60838  14.446   5.632   7.219
53002SOL    HW160839  14.407   5.550   7.249
53002SOL    HW260840  14.378   5.698   7.234
53003SOL     OW60841   0.859   7.826   3.695
53003SOL    HW160842   0.877   7.762   3.763
53003SOL    HW260843   0.784   7.790   3.647
53004SOL     OW60844   7.927   4.818  11.245
53004SOL    HW160845   7.982   4.862  11.310
53004SOL    HW260846   7.838   4.822  11.282
53005SOL     OW60847  11.282   8.874   6.021
53005SOL    HW160848  11.348   8.909   5.961
53005SOL    HW260849  11.322   8.880   6.107
53006SOL     OW60850   7.912  12.157   8.656
53006SOL    HW160851   7.872  12.149   8.570
53006SOL    HW260852   7.990  12.212   8.641
53007SOL     OW60853   1.934   7.427   4.400
53007SOL    HW160854   1.937   7.335   4.374
53007SOL    HW260855   1.848   7.457   4.370
53008SOL     OW60856   5.077  10.219  14.121
53008SOL    HW160857   4.993  10.185  14.091
53008SOL    HW260858   5.066  10.314  14.119
53009SOL     OW60859   0.291  11.095   1.843
53009SOL    HW160860   0.328  11.156   1.906
53009SOL    HW260861   0.207  11.067   1.882
53010SOL     OW60862  11.763   5.056   6.482
53010SOL    HW160863  11.841   5.105   6.508
53010SOL    HW260864  11.796   4.971   6.455
53011SOL     OW60865   0.706  12.151   7.913
53011SOL    HW160866   0.789  12.150   7.865
53011SOL    HW260867   0.662  12.230   7.883
53012SOL     OW60868   0.323   2.447   1.105
53012SOL    HW160869   0.249   2.417   1.157
53012SOL    HW260870   0.284   2.498   1.034
53013SOL     OW60871  11.548   7.289  14.070
53013SOL    HW160872  11.499   7.327  13.998
53013SOL    HW260873  11.597   7.217  14.030
53014SOL     OW60874   7.025   3.057  11.473
53014SOL    HW160875   7.002   3.104  11.553
53014SOL    HW260876   6.986   2.971  11.484
53015SOL     OW60877   7.983   0.874  11.756
53015SOL    HW160878   7.896   0.843  11.729
53015SOL    HW260879   8.035   0.872  11.676
53016SOL     OW60880  14.115   0.583   4.169
53016SOL    HW160881  14.133   0.490   4.152
53016SOL    HW260882  14.145   0.628   4.090
53017SOL     OW60883   9.650   7.501   7.333
53017SOL    HW160884   9.590   7.471   7.401
53017SOL    HW260885   9.621   7.455   7.254
53018SOL     OW60886  11.675  12.892   1.577
53018SOL    HW160887  11.651  12.800   1.588
53018SOL    HW260888  11.673  12.906   1.482
53019SOL     OW60889  12.782  13.808   8.856
53019SOL    HW160890  12.838  13.823   8.779
53019SOL    HW260891  12.694  13.797   8.820
53020SOL     OW60892   8.612   3.921   9.135
53020SOL    HW160893   8.677   3.974   9.181
53020SOL    HW260894   8.646   3.832   9.139
53021SOL     OW60895   1.584  10.388   5.446
53021SOL    HW160896   1.530  10.326   5.495
53021SOL    HW260897   1.537  10.471   5.450
53022SOL     OW60898   1.237   0.666   0.627
53022SOL    HW160899   1.275   0.672   0.714
53022SOL    HW260900   1.227   0.757   0.598
53023SOL     OW60901   7.894   7.332   5.435
53023SOL    HW160902   7.985   7.342   5.406
53023SOL    HW260903   7.844   7.388   5.376
53024SOL     OW60904   9.614   2.809   8.919
53024SOL    HW160905   9.691   2.774   8.963
53024SOL    HW260906   9.552   2.735   8.917
53025SOL     OW60907   4.790   0.623   1.045
53025SOL    HW160908   4.805   0.717   1.054
53025SOL    HW260909   4.706   0.615   1.000
53026SOL     OW60910   5.669   1.910   1.037
53026SOL    HW160911   5.661   1.923   1.132
53026SOL    HW260912   5.642   1.819   1.024
53027SOL     OW60913   1.747   5.484  10.415
53027SOL    HW160914   1.703   5.561  10.379
53027SOL    HW260915   1.809   5.519  10.479
53028SOL     OW60916   9.444   3.969  13.652
53028SOL    HW160917   9.418   3.961  13.560
53028SOL    HW260918   9.450   4.063  13.667
53029SOL     OW60919   5.071  13.013  11.168
53029SOL    HW160920   5.068  13.043  11.077
53029SOL    HW260921   5.078  12.918  11.162
53030SOL     OW60922   0.104   2.984   4.089
53030SOL    HW160923   0.178   2.955   4.143
53030SOL    HW260924   0.123   2.950   4.002
53031SOL     OW60925  11.697   0.053  13.715
53031SOL    HW160926  11.755  14.869  13.757
53031SOL    HW260927  11.680   0.120  13.782
53032SOL     OW60928   4.394   3.976  10.387
53032SOL    HW160929   4.376   4.030  10.464
53032SOL    HW260930   4.409   4.039  10.316
53033SOL     OW60931   4.884   8.343  13.644
53033SOL    HW160932   4.794   8.308  13.642
53033SOL    HW260933   4.881   8.419  13.587
53034SOL     OW60934   6.875   6.728  12.674
53034SOL    HW160935   6.938   6.780  12.625
53034SOL    HW260936   6.902   6.736  12.766
53035SOL     OW60937   3.614  10.746   4.200
53035SOL    HW160938   3.551  10.742   4.273
53035SOL    HW260939   3.700  10.743   4.243
53036SOL     OW60940   3.724   8.068   8.519
53036SOL    HW160941   3.814   8.090   8.492
53036SOL    HW260942   3.727   8.073   8.614
53037SOL     OW60943  14.186   4.868   8.045
53037SOL    HW160944  14.237   4.829   8.116
53037SOL    HW260945  14.251   4.893   7.980
53038SOL     OW60946   7.949   8.951   4.501
53038SOL    HW160947   8.028   8.930   4.552
53038SOL    HW260948   7.881   8.894   4.539
53039SOL     OW60949   3.711   0.492   8.718
53039SOL    HW160950   3.777   0.424   8.702
53039SOL    HW260951   3.738   0.565   8.661
53040SOL     OW60952  14.063   6.962   2.900
53040SOL    HW160953  14.055   6.866   2.900
53040SOL    HW260954  14.128   6.980   2.968
53041SOL     OW60955   0.274   1.423  11.259
53041SOL    HW160956   0.289   1.517  11.255
53041SOL    HW260957   0.283   1.401  11.352
53042SOL     OW60958  11.511   2.814   9.933
53042SOL    HW160959  11.522   2.720   9.950
53042SOL    HW260960  11.563   2.857  10.001
53043SOL     OW60961   1.309   4.028   2.046
53043SOL    HW160962   1.334   4.097   1.984
53043SOL    HW260963   1.218   4.048   2.069
53044SOL     OW60964  12.782  14.135   6.196
53044SOL    HW160965  12.754  14.197   6.264
53044SOL    HW260966  12.752  14.175   6.115
53045SOL     OW60967  13.475   1.007   4.333
53045SOL    HW160968  13.384   0.981   4.323
53045SOL    HW260969  13.482   1.089   4.285
53046SOL     OW60970  12.223   4.680   7.418
53046SOL    HW160971  12.179   4.763   7.430
53046SOL    HW260972  12.155   4.620   7.388
53047SOL     OW60973  11.532   2.006   5.212
53047SOL    HW160974  11.536   2.068   5.285
53047SOL    HW260975  11.440   2.008   5.184
53048SOL     OW60976   4.042   4.469  12.411
53048SOL    HW160977   4.004   4.453  12.325
53048SOL    HW260978   4.126   4.424  12.409
53049SOL     OW60979  12.432   3.960   4.677
53049SOL    HW160980  12.345   3.924   4.695
53049SOL    HW260981  12.452   4.015   4.752
53050SOL     OW60982  13.485   2.095  11.653
53050SOL    HW160983  13.409   2.153  11.660
53050SOL    HW260984  13.526   2.098  11.739
53051SOL     OW60985   7.684   5.493  14.596
53051SOL    HW160986   7.600   5.504  14.552
53051SOL    HW260987   7.684   5.403  14.627
53052SOL     OW60988   9.079   2.710  11.395
53052SOL    HW160989   9.037   2.770  11.456
53052SOL    HW260990   9.155   2.759  11.362
53053SOL     OW60991   8.640  10.667   4.849
53053SOL    HW160992   8.548  10.691   4.839
53053SOL    HW260993   8.681  10.743   4.890
53054SOL     OW60994   1.986   5.112  12.627
53054SOL    HW160995   1.939   5.063  12.559
53054SOL    HW260996   2.077   5.111  12.598
53055SOL     OW60997  10.330  10.441  10.895
53055SOL    HW160998  10.242  10.439  10.856
53055SOL    HW260999  10.378  10.372  10.849
53056SOL     OW61000  14.732   1.350   7.246
53056SOL    HW161001  14.651   1.396   7.267
53056SOL    HW261002  14.746   1.367   7.153
53057SOL     OW61003  13.333   8.073   4.272
53057SOL    HW161004  13.374   7.988   4.262
53057SOL    HW261005  13.244   8.054   4.302
53058SOL     OW61006   2.467   5.125   7.867
53058SOL    HW161007   2.407   5.052   7.886
53058SOL    HW261008   2.410   5.201   7.857
53059SOL     OW61009  10.934   3.704   5.825
53059SOL    HW161010  10.970   3.776   5.773
53059SOL    HW261011  10.854   3.679   5.779
53060SOL     OW61012  12.915   3.828   0.984
53060SOL    HW161013  12.830   3.801   1.019
53060SOL    HW261014  12.950   3.886   1.051
53061SOL     OW61015   4.949   9.306   8.149
53061SOL    HW161016   5.000   9.297   8.229
53061SOL    HW261017   4.932   9.216   8.121
53062SOL     OW61018   4.058  11.326   4.293
53062SOL    HW161019   3.972  11.291   4.316
53062SOL    HW261020   4.056  11.417   4.322
53063SOL     OW61021   7.559   9.085   3.131
53063SOL    HW161022   7.544   9.142   3.206
53063SOL    HW261023   7.553   8.996   3.166
53064SOL     OW61024   8.951  12.813   4.053
53064SOL    HW161025   8.927  12.816   3.960
53064SOL    HW261026   8.995  12.896   4.070
53065SOL     OW61027   6.798   7.251   7.718
53065SOL    HW161028   6.783   7.233   7.811
53065SOL    HW261029   6.755   7.335   7.702
53066SOL     OW61030  11.594   3.172  14.243
53066SOL    HW161031  11.644   3.178  14.324
53066SOL    HW261032  11.604   3.258  14.202
53067SOL     OW61033  10.558   4.340  10.575
53067SOL    HW161034  10.626   4.403  10.549
53067SOL    HW261035  10.553   4.278  10.503
53068SOL     OW61036   0.241   1.575   6.906
53068SOL    HW161037   0.177   1.551   6.973
53068SOL    HW261038   0.243   1.670   6.908
53069SOL     OW61039  12.730   9.103   3.161
53069SOL    HW161040  12.720   9.075   3.252
53069SOL    HW261041  12.811   9.153   3.161
53070SOL     OW61042  14.625  11.170   1.984
53070SOL    HW161043  14.537  11.138   2.005
53070SOL    HW261044  14.682  11.127   2.047
53071SOL     OW61045   2.120   9.462   5.349
53071SOL    HW161046   2.100   9.511   5.429
53071SOL    HW261047   2.211   9.435   5.360
53072SOL     OW61048  10.813   0.160   2.038
53072SOL    HW161049  10.847   0.090   2.092
53072SOL    HW261050  10.806   0.122   1.950
53073SOL     OW61051   5.590  10.947   0.213
53073SOL    HW161052   5.675  10.919   0.181
53073SOL    HW261053   5.537  10.867   0.211
53074SOL     OW61054  10.174  12.815   0.170
53074SOL    HW161055  10.186  12.843   0.079
53074SOL    HW261056  10.119  12.882   0.208
53075SOL     OW61057  14.092   9.955   5.286
53075SOL    HW161058  14.061   9.999   5.365
53075SOL    HW261059  14.077  10.018   5.215
53076SOL     OW61060  12.601   4.335  10.001
53076SOL    HW161061  12.566   4.380  10.078
53076SOL    HW261062  12.695   4.353  10.003
53077SOL     OW61063   5.473   1.203   2.381
53077SOL    HW161064   5.543   1.243   2.432
53077SOL    HW261065   5.432   1.277   2.335
53078SOL     OW61066   6.196   5.811   3.830
53078SOL    HW161067   6.110   5.769   3.830
53078SOL    HW261068   6.242   5.772   3.905
53079SOL     OW61069   8.136  13.305   0.198
53079SOL    HW161070   8.178  13.307   0.112
53079SOL    HW261071   8.156  13.390   0.237
53080SOL     OW61072  12.128  10.603   2.457
53080SOL    HW161073  12.169  10.673   2.406
53080SOL    HW261074  12.166  10.611   2.544
53081SOL     OW61075   8.204   5.944   6.489
53081SOL    HW161076   8.215   6.032   6.453
53081SOL    HW261077   8.122   5.948   6.538
53082SOL     OW61078   7.384   5.853   4.082
53082SOL    HW161079   7.339   5.876   4.001
53082SOL    HW261080   7.339   5.904   4.150
53083SOL     OW61081   1.910   7.390  10.900
53083SOL    HW161082   1.861   7.328  10.954
53083SOL    HW261083   1.847   7.458  10.878
53084SOL     OW61084   4.698   1.497   8.381
53084SOL    HW161085   4.620   1.442   8.388
53084SOL    HW261086   4.712   1.506   8.287
53085SOL     OW61087   8.032   5.801   1.748
53085SOL    HW161088   8.075   5.886   1.758
53085SOL    HW261089   8.095   5.748   1.699
53086SOL     OW61090   6.747   7.466  13.711
53086SOL    HW161091   6.726   7.533  13.777
53086SOL    HW261092   6.801   7.402  13.758
53087SOL     OW61093  11.305   8.222  10.651
53087SOL    HW161094  11.311   8.275  10.730
53087SOL    HW261095  11.385   8.170  10.650
53088SOL     OW61096   5.229   1.795   0.345
53088SOL    HW161097   5.202   1.878   0.383
53088SOL    HW261098   5.150   1.740   0.350
53089SOL     OW61099  10.672  11.915   9.844
53089SOL    HW161100  10.637  11.896   9.931
53089SOL    HW261101  10.595  11.932   9.790
53090SOL     OW61102   6.603   1.650  12.953
53090SOL    HW161103   6.542   1.667  13.025
53090SOL    HW261104   6.631   1.737  12.924
53091SOL     OW61105  13.709  11.462   0.076
53091SOL    HW161106  13.708  11.548   0.119
53091SOL    HW261107  13.617  11.437   0.069
53092SOL     OW61108   0.468  12.117   9.843
53092SOL    HW161109   0.444  12.139   9.933
53092SOL    HW261110   0.411  12.172   9.789
53093SOL     OW61111   7.906  11.702   4.975
53093SOL    HW161112   7.959  11.646   5.031
53093SOL    HW261113   7.884  11.646   4.900
53094SOL     OW61114   9.844  11.714   2.356
53094SOL    HW161115   9.914  11.655   2.327
53094SOL    HW261116   9.821  11.764   2.278
53095SOL     OW61117   8.086  13.164   1.381
53095SOL    HW161118   8.136  13.183   1.461
53095SOL    HW261119   8.137  13.097   1.336
53096SOL     OW61120   5.811   8.191   7.969
53096SOL    HW161121   5.734   8.204   7.914
53096SOL    HW261122   5.872   8.144   7.912
53097SOL     OW61123   5.663   9.814  14.150
53097SOL    HW161124   5.650   9.837  14.058
53097SOL    HW261125   5.748   9.770  14.152
53098SOL     OW61126   9.281  12.032   9.062
53098SOL    HW161127   9.328  11.963   9.015
53098SOL    HW261128   9.240  11.987   9.136
53099SOL     OW61129   8.228   6.475  10.838
53099SOL    HW161130   8.303   6.523  10.805
53099SOL    HW261131   8.240   6.385  10.807
53100SOL     OW61132   4.524   8.910   8.539
53100SOL    HW161133   4.513   8.999   8.573
53100SOL    HW261134   4.608   8.912   8.494
53101SOL     OW61135   6.068   3.306   9.779
53101SOL    HW161136   6.124   3.278   9.852
53101SOL    HW261137   6.062   3.229   9.723
53102SOL     OW61138   2.115  11.205  13.774
53102SOL    HW161139   2.146  11.267  13.839
53102SOL    HW261140   2.169  11.221  13.697
53103SOL     OW61141   5.936   9.400   1.037
53103SOL    HW161142   5.979   9.483   1.057
53103SOL    HW261143   5.986   9.334   1.085
53104SOL     OW61144  14.206   6.573  10.347
53104SOL    HW161145  14.192   6.624  10.427
53104SOL    HW261146  14.172   6.486  10.367
53105SOL     OW61147  14.221  13.123  10.598
53105SOL    HW161148  14.183  13.172  10.526
53105SOL    HW261149  14.309  13.099  10.568
53106SOL     OW61150  12.912  11.117   3.545
53106SOL    HW161151  12.867  11.104   3.461
53106SOL    HW261152  12.981  11.050   3.546
53107SOL     OW61153   4.400  14.131   9.660
53107SOL    HW161154   4.385  14.084   9.578
53107SOL    HW261155   4.418  14.221   9.633
53108SOL     OW61156   6.886   6.513   4.211
53108SOL    HW161157   6.880   6.428   4.254
53108SOL    HW261158   6.866   6.576   4.280
53109SOL     OW61159   5.345   1.403   4.807
53109SOL    HW161160   5.308   1.320   4.776
53109SOL    HW261161   5.291   1.470   4.765
53110SOL     OW61162   6.243  11.004  13.506
53110SOL    HW161163   6.213  11.080  13.556
53110SOL    HW261164   6.283  11.043  13.428
53111SOL     OW61165   5.610  13.237  10.410
53111SOL    HW161166   5.527  13.270  10.377
53111SOL    HW261167   5.595  13.143  10.424
53112SOL     OW61168  11.757   1.414   3.560
53112SOL    HW161169  11.813   1.340   3.583
53112SOL    HW261170  11.671   1.391   3.596
53113SOL     OW61171   2.588   0.978   9.844
53113SOL    HW161172   2.666   1.012   9.800
53113SOL    HW261173   2.543   0.927   9.776
53114SOL     OW61174   2.961   7.226  10.144
53114SOL    HW161175   2.947   7.139  10.107
53114SOL    HW261176   2.950   7.213  10.239
53115SOL     OW61177  12.825  14.694   6.825
53115SOL    HW161178  12.786  14.646   6.752
53115SOL    HW261179  12.761  14.763   6.845
53116SOL     OW61180   2.449  10.266   7.478
53116SOL    HW161181   2.426  10.332   7.413
53116SOL    HW261182   2.518  10.307   7.530
53117SOL     OW61183   3.587  12.914  10.673
53117SOL    HW161184   3.533  12.881  10.745
53117SOL    HW261185   3.543  12.883  10.594
53118SOL     OW61186   8.728   6.608  12.124
53118SOL    HW161187   8.791   6.680  12.129
53118SOL    HW261188   8.763   6.549  12.058
53119SOL     OW61189   2.315   1.074   5.877
53119SOL    HW161190   2.371   1.071   5.955
53119SOL    HW261191   2.359   1.135   5.818
53120SOL     OW61192  12.518   4.557  13.302
53120SOL    HW161193  12.518   4.480  13.358
53120SOL    HW261194  12.493   4.524  13.216
53121SOL     OW61195  10.784   0.553   7.990
53121SOL    HW161196  10.721   0.607   7.943
53121SOL    HW261197  10.859   0.611   8.005
53122SOL     OW61198  14.437   6.319   8.768
53122SOL    HW161199  14.451   6.372   8.690
53122SOL    HW261200  14.446   6.229   8.739
53123SOL     OW61201   9.872  13.214  10.412
53123SOL    HW161202   9.828  13.134  10.441
53123SOL    HW261203   9.849  13.279  10.478
53124SOL     OW61204  12.410  10.013   8.852
53124SOL    HW161205  12.369  10.094   8.820
53124SOL    HW261206  12.337   9.961   8.886
53125SOL     OW61207   7.768  12.294  12.059
53125SOL    HW161208   7.851  12.335  12.079
53125SOL    HW261209   7.786  12.237  11.984
53126SOL     OW61210   5.233  11.505   5.164
53126SOL    HW161211   5.296  11.435   5.145
53126SOL    HW261212   5.204  11.488   5.253
53127SOL     OW61213   4.568  14.528   2.586
53127SOL    HW161214   4.660  14.538   2.565
53127SOL    HW261215   4.530  14.485   2.509
53128SOL     OW61216   6.885  12.856  13.447
53128SOL    HW161217   6.960  12.866  13.506
53128SOL    HW261218   6.827  12.795  13.491
53129SOL     OW61219  12.005   1.714   9.201
53129SOL    HW161220  12.045   1.634   9.165
53129SOL    HW261221  11.926   1.683   9.246
53130SOL     OW61222  11.999   8.279   5.153
53130SOL    HW161223  11.926   8.337   5.130
53130SOL    HW261224  11.965   8.191   5.136
53131SOL     OW61225   7.829  14.243   1.036
53131SOL    HW161226   7.748  14.284   1.064
53131SOL    HW261227   7.864  14.203   1.116
53132SOL     OW61228   6.027   8.959  13.385
53132SOL    HW161229   5.996   8.884  13.334
53132SOL    HW261230   5.951   9.015  13.393
53133SOL     OW61231  12.055   6.126  11.888
53133SOL    HW161232  11.981   6.066  11.873
53133SOL    HW261233  12.132   6.069  11.890
53134SOL     OW61234  14.684  12.226   4.757
53134SOL    HW161235  14.668  12.196   4.847
53134SOL    HW261236  14.597  12.244   4.721
53135SOL     OW61237   3.299   8.869   7.993
53135SOL    HW161238   3.344   8.785   7.986
53135SOL    HW261239   3.334   8.908   8.073
53136SOL     OW61240   8.261   1.673   2.204
53136SOL    HW161241   8.325   1.612   2.238
53136SOL    HW261242   8.270   1.666   2.109
53137SOL     OW61243   2.960   4.298   3.079
53137SOL    HW161244   2.930   4.313   3.168
53137SOL    HW261245   3.051   4.270   3.089
53138SOL     OW61246   6.437   7.802   8.832
53138SOL    HW161247   6.489   7.845   8.900
53138SOL    HW261248   6.468   7.841   8.750
53139SOL     OW61249  13.380   6.162  11.894
53139SOL    HW161250  13.422   6.209  11.823
53139SOL    HW261251  13.291   6.144  11.862
53140SOL     OW61252  14.360   0.454  13.570
53140SOL    HW161253  14.291   0.465  13.505
53140SOL    HW261254  14.397   0.541  13.581
53141SOL     OW61255   4.742   9.214  11.859
53141SOL    HW161256   4.682   9.144  11.834
53141SOL    HW261257   4.697   9.294  11.834
53142SOL     OW61258  11.161   1.898  12.321
53142SOL    HW161259  11.105   1.911  12.397
53142SOL    HW261260  11.106   1.852  12.257
53143SOL     OW61261   1.323   7.714   1.962
53143SOL    HW161262   1.240   7.696   2.006
53143SOL    HW261263   1.325   7.809   1.952
53144SOL     OW61264   2.199   0.575   9.563
53144SOL    HW161265   2.148   0.518   9.621
53144SOL    HW261266   2.288   0.569   9.595
53145SOL     OW61267   0.890  13.479   2.089
53145SOL    HW161268   0.937  13.395   2.090
53145SOL    HW261269   0.873  13.497   2.182
53146SOL     OW61270   4.740  14.725   7.010
53146SOL    HW161271   4.751  14.631   7.000
53146SOL    HW261272   4.786  14.763   6.935
53147SOL     OW61273  10.439   5.305   5.019
53147SOL    HW161274  10.455   5.245   4.945
53147SOL    HW261275  10.344   5.306   5.029
53148SOL     OW61276   8.411   7.840  10.301
53148SOL    HW161277   8.494   7.818  10.257
53148SOL    HW261278   8.423   7.811  10.391
53149SOL     OW61279  13.538   5.716   4.643
53149SOL    HW161280  13.448   5.682   4.642
53149SOL    HW261281  13.528   5.811   4.653
53150SOL     OW61282   3.601   4.250   0.580
53150SOL    HW161283   3.605   4.196   0.501
53150SOL    HW261284   3.609   4.340   0.549
53151SOL     OW61285  11.328   4.753  12.846
53151SOL    HW161286  11.256   4.724  12.901
53151SOL    HW261287  11.406   4.721  12.890
53152SOL     OW61288  12.699   6.945  11.578
53152SOL    HW161289  12.712   7.029  11.622
53152SOL    HW261290  12.614   6.914  11.609
53153SOL     OW61291   1.050   1.150   2.256
53153SOL    HW161292   1.093   1.235   2.268
53153SOL    HW261293   1.123   1.088   2.244
53154SOL     OW61294   1.033  10.684  12.805
53154SOL    HW161295   0.995  10.602  12.835
53154SOL    HW261296   0.959  10.744  12.800
53155SOL     OW61297   2.484   5.933   3.725
53155SOL    HW161298   2.464   6.027   3.728
53155SOL    HW261299   2.441   5.897   3.803
53156SOL     OW61300   7.130   4.190   2.852
53156SOL    HW161301   7.132   4.258   2.919
53156SOL    HW261302   7.182   4.118   2.889
53157SOL     OW61303   8.385  10.964   7.589
53157SOL    HW161304   8.476  10.935   7.592
53157SOL    HW261305   8.356  10.961   7.680
53158SOL     OW61306   5.213   0.905  14.175
53158SOL    HW161307   5.190   0.852  14.099
53158SOL    HW261308   5.287   0.959  14.145
53159SOL     OW61309  12.879   4.783   5.256
53159SOL    HW161310  12.842   4.848   5.316
53159SOL    HW261311  12.942   4.833   5.203
53160SOL     OW61312   7.445   6.992   7.359
53160SOL    HW161313   7.400   6.909   7.346
53160SOL    HW261314   7.423   7.044   7.282
53161SOL     OW61315   0.109   5.044  14.463
53161SOL    HW161316   0.203   5.031  14.463
53161SOL    HW261317   0.073   4.956  14.469
53162SOL     OW61318  13.704   7.856   4.933
53162SOL    HW161319  13.743   7.869   5.019
53162SOL    HW261320  13.748   7.920   4.877
53163SOL     OW61321   5.471  14.293   6.667
53163SOL    HW161322   5.396  14.238   6.644
53163SOL    HW261323   5.435  14.381   6.675
53164SOL     OW61324   4.577   8.355  10.727
53164SOL    HW161325   4.483   8.372  10.736
53164SOL    HW261326   4.591   8.347  10.633
53165SOL     OW61327  12.571  11.015   7.690
53165SOL    HW161328  12.612  11.028   7.604
53165SOL    HW261329  12.533  10.928   7.685
53166SOL     OW61330   4.200  13.161   4.230
53166SOL    HW161331   4.216  13.252   4.206
53166SOL    HW261332   4.239  13.110   4.158
53167SOL     OW61333   7.910   2.123  14.727
53167SOL    HW161334   7.868   2.063  14.665
53167SOL    HW261335   7.880   2.210  14.699
53168SOL     OW61336   7.137   7.665   3.469
53168SOL    HW161337   7.109   7.590   3.522
53168SOL    HW261338   7.161   7.626   3.385
53169SOL     OW61339   5.035  10.198   0.791
53169SOL    HW161340   5.031  10.102   0.797
53169SOL    HW261341   4.976  10.229   0.859
53170SOL     OW61342   6.672  12.162   4.799
53170SOL    HW161343   6.755  12.196   4.833
53170SOL    HW261344   6.608  12.230   4.823
53171SOL     OW61345   7.493   2.424   7.609
53171SOL    HW161346   7.502   2.466   7.695
53171SOL    HW261347   7.431   2.479   7.562
53172SOL     OW61348  10.546   8.530  14.072
53172SOL    HW161349  10.577   8.521  13.982
53172SOL    HW261350  10.612   8.584  14.115
53173SOL     OW61351   2.840   1.787   0.906
53173SOL    HW161352   2.814   1.747   0.823
53173SOL    HW261353   2.874   1.715   0.958
53174SOL     OW61354   4.586  10.314  12.836
53174SOL    HW161355   4.558  10.346  12.750
53174SOL    HW261356   4.681  10.325  12.836
53175SOL     OW61357   0.153   9.463   1.392
53175SOL    HW161358   0.238   9.461   1.348
53175SOL    HW261359   0.151   9.383   1.445
53176SOL     OW61360   1.715   7.314  11.625
53176SOL    HW161361   1.700   7.266  11.544
53176SOL    HW261362   1.811   7.315  11.634
53177SOL     OW61363   7.721   8.080   7.934
53177SOL    HW161364   7.678   8.006   7.892
53177SOL    HW261365   7.655   8.149   7.937
53178SOL     OW61366   1.602   4.760   1.563
53178SOL    HW161367   1.557   4.685   1.602
53178SOL    HW261368   1.579   4.833   1.621
53179SOL     OW61369  10.080   6.022  10.355
53179SOL    HW161370  10.165   5.989  10.324
53179SOL    HW261371  10.027   6.030  10.276
53180SOL     OW61372   6.903   4.249   6.956
53180SOL    HW161373   6.976   4.211   7.005
53180SOL    HW261374   6.944   4.290   6.880
53181SOL     OW61375  12.525  10.372   9.466
53181SOL    HW161376  12.598  10.334   9.418
53181SOL    HW261377  12.549  10.464   9.477
53182SOL     OW61378   2.795  14.583   6.939
53182SOL    HW161379   2.724  14.565   7.001
53182SOL    HW261380   2.770  14.665   6.897
53183SOL     OW61381   9.217   0.065   4.833
53183SOL    HW161382   9.312   0.057   4.826
53183SOL    HW261383   9.203   0.126   4.905
53184SOL     OW61384   7.224  12.227  10.691
53184SOL    HW161385   7.255  12.220  10.601
53184SOL    HW261386   7.248  12.315  10.718
53185SOL     OW61387   4.407   7.074  12.385
53185SOL    HW161388   4.409   7.007  12.316
53185SOL    HW261389   4.459   7.037  12.456
53186SOL     OW61390   8.664   3.672   4.078
53186SOL    HW161391   8.614   3.675   4.160
53186SOL    HW261392   8.754   3.693   4.104
53187SOL     OW61393   9.205   9.132   5.894
53187SOL    HW161394   9.237   9.102   5.809
53187SOL    HW261395   9.125   9.180   5.874
53188SOL     OW61396   3.913  10.571  11.596
53188SOL    HW161397   3.929  10.477  11.606
53188SOL    HW261398   3.918  10.587  11.502
53189SOL     OW61399   5.657  13.671   8.256
53189SOL    HW161400   5.679  13.578   8.255
53189SOL    HW261401   5.741  13.716   8.255
53190SOL     OW61402   6.021   0.729   7.713
53190SOL    HW161403   6.041   0.636   7.714
53190SOL    HW261404   5.934   0.735   7.752
53191SOL     OW61405  13.918   3.312   2.628
53191SOL    HW161406  13.948   3.291   2.716
53191SOL    HW261407  13.996   3.305   2.573
53192SOL     OW61408   5.504   7.158   5.357
53192SOL    HW161409   5.472   7.221   5.293
53192SOL    HW261410   5.521   7.211   5.436
53193SOL     OW61411   4.711   4.118  13.713
53193SOL    HW161412   4.722   4.092  13.621
53193SOL    HW261413   4.631   4.169  13.714
53194SOL     OW61414  12.031  12.843  11.589
53194SOL    HW161415  11.998  12.763  11.630
53194SOL    HW261416  11.979  12.852  11.509
53195SOL     OW61417   7.757   4.259   6.619
53195SOL    HW161418   7.695   4.197   6.582
53195SOL    HW261419   7.716   4.345   6.608
53196SOL     OW61420  11.250  10.008   8.437
53196SOL    HW161421  11.317   9.945   8.460
53196SOL    HW261422  11.169   9.971   8.473
53197SOL     OW61423  10.582  14.744   2.761
53197SOL    HW161424  10.586  14.769   2.853
53197SOL    HW261425  10.648  14.799   2.719
53198SOL     OW61426  12.659   4.259   4.349
53198SOL    HW161427  12.592   4.317   4.314
53198SOL    HW261428  12.730   4.318   4.376
53199SOL     OW61429   0.958   4.665   7.900
53199SOL    HW161430   0.949   4.581   7.856
53199SOL    HW261431   0.955   4.730   7.830
53200SOL     OW61432   6.302  14.695   2.025
53200SOL    HW161433   6.303  14.727   2.115
53200SOL    HW261434   6.230  14.744   1.984
53201SOL     OW61435  10.667   3.277  14.789
53201SOL    HW161436  10.730   3.207  14.776
53201SOL    HW261437  10.630   3.261  14.876
53202SOL     OW61438   9.602   9.101   1.890
53202SOL    HW161439   9.603   9.194   1.913
53202SOL    HW261440   9.693   9.080   1.869
53203SOL     OW61441   2.848  10.622   3.107
53203SOL    HW161442   2.758  10.623   3.073
53203SOL    HW261443   2.842  10.575   3.190
53204SOL     OW61444   7.587  12.758   0.135
53204SOL    HW161445   7.656  12.800   0.084
53204SOL    HW261446   7.511  12.816   0.126
53205SOL     OW61447   0.436   0.440   9.816
53205SOL    HW161448   0.402   0.358   9.781
53205SOL    HW261449   0.473   0.485   9.740
53206SOL     OW61450   9.941  11.621   2.657
53206SOL    HW161451   9.941  11.530   2.686
53206SOL    HW261452   9.866  11.628   2.598
53207SOL     OW61453   2.909   7.318  10.426
53207SOL    HW161454   2.869   7.232  10.421
53207SOL    HW261455   2.892   7.348  10.515
53208SOL     OW61456   3.509  14.812   0.696
53208SOL    HW161457   3.433  14.833   0.750
53208SOL    HW261458   3.578  14.872   0.726
53209SOL     OW61459   9.229   0.574  12.230
53209SOL    HW161460   9.150   0.526  12.252
53209SOL    HW261461   9.263   0.605  12.314
53210SOL     OW61462   8.029   1.450   3.066
53210SOL    HW161463   8.080   1.529   3.085
53210SOL    HW261464   8.068   1.416   2.985
53211SOL     OW61465   0.663   6.703   3.510
53211SOL    HW161466   0.641   6.636   3.575
53211SOL    HW261467   0.746   6.739   3.539
53212SOL     OW61468   1.335  14.275   3.093
53212SOL    HW161469   1.342  14.350   3.033
53212SOL    HW261470   1.331  14.199   3.035
53213SOL     OW61471  13.740   6.054   5.093
53213SOL    HW161472  13.746   6.133   5.145
53213SOL    HW261473  13.738   5.983   5.157
53214SOL     OW61474  10.218  11.870   7.840
53214SOL    HW161475  10.236  11.842   7.751
53214SOL    HW261476  10.123  11.865   7.849
53215SOL     OW61477   1.361   0.853   6.387
53215SOL    HW161478   1.337   0.844   6.479
53215SOL    HW261479   1.319   0.779   6.343
53216SOL     OW61480   5.565   5.111  10.489
53216SOL    HW161481   5.586   5.187  10.435
53216SOL    HW261482   5.635   5.108  10.554
53217SOL     OW61483   4.687   6.629   0.204
53217SOL    HW161484   4.777   6.599   0.209
53217SOL    HW261485   4.686   6.690   0.131
53218SOL     OW61486   6.487   4.874   5.120
53218SOL    HW161487   6.533   4.957   5.131
53218SOL    HW261488   6.535   4.813   5.176
53219SOL     OW61489  14.504   4.510  13.353
53219SOL    HW161490  14.433   4.484  13.411
53219SOL    HW261491  14.467   4.581  13.300
53220SOL     OW61492   3.310  10.327  13.416
53220SOL    HW161493   3.236  10.312  13.476
53220SOL    HW261494   3.378  10.267  13.447
53221SOL     OW61495   2.046  11.503   4.599
53221SOL    HW161496   2.079  11.575   4.545
53221SOL    HW261497   1.969  11.539   4.642
53222SOL     OW61498  11.937   3.463   5.977
53222SOL    HW161499  12.003   3.533   5.984
53222SOL    HW261500  11.975   3.390   6.026
53223SOL     OW61501   9.353   2.798   7.095
53223SOL    HW161502   9.384   2.735   7.160
53223SOL    HW261503   9.400   2.879   7.115
53224SOL     OW61504   5.255   4.140   2.773
53224SOL    HW161505   5.220   4.129   2.684
53224SOL    HW261506   5.350   4.141   2.760
53225SOL     OW61507   0.194   8.488   0.190
53225SOL    HW161508   0.234   8.503   0.104
53225SOL    HW261509   0.113   8.440   0.170
53226SOL     OW61510   2.480   4.744   2.395
53226SOL    HW161511   2.572   4.726   2.376
53226SOL    HW261512   2.432   4.700   2.325
53227SOL     OW61513   2.123   3.447   5.938
53227SOL    HW161514   2.171   3.374   5.977
53227SOL    HW261515   2.108   3.507   6.011
53228SOL     OW61516   8.462   9.619   5.750
53228SOL    HW161517   8.395   9.556   5.778
53228SOL    HW261518   8.527   9.618   5.821
53229SOL     OW61519  12.283   1.564  12.312
53229SOL    HW161520  12.211   1.525  12.264
53229SOL    HW261521  12.250   1.650  12.340
53230SOL     OW61522   5.571   8.645  12.474
53230SOL    HW161523   5.636   8.638  12.404
53230SOL    HW261524   5.615   8.694  12.543
53231SOL     OW61525   4.426   5.027   7.382
53231SOL    HW161526   4.346   5.003   7.335
53231SOL    HW261527   4.429   4.968   7.457
53232SOL     OW61528   2.826   9.377  10.222
53232SOL    HW161529   2.754   9.326  10.258
53232SOL    HW261530   2.887   9.312  10.187
53233SOL     OW61531   9.802   0.739   0.716
53233SOL    HW161532   9.877   0.789   0.747
53233SOL    HW261533   9.836   0.652   0.699
53234SOL     OW61534   0.518  12.679  11.235
53234SOL    HW161535   0.545  12.659  11.325
53234SOL    HW261536   0.423  12.681  11.239
53235SOL     OW61537   7.620   3.814   7.366
53235SOL    HW161538   7.710   3.800   7.398
53235SOL    HW261539   7.565   3.788   7.440
53236SOL     OW61540   4.715   9.322   8.857
53236SOL    HW161541   4.775   9.273   8.912
53236SOL    HW261542   4.729   9.414   8.881
53237SOL     OW61543  11.118   7.062   2.542
53237SOL    HW161544  11.102   6.977   2.581
53237SOL    HW261545  11.189   7.100   2.594
53238SOL     OW61546  12.306   6.402   7.465
53238SOL    HW161547  12.349   6.446   7.538
53238SOL    HW261548  12.218   6.382   7.497
53239SOL     OW61549   9.346   0.388  12.982
53239SOL    HW161550   9.371   0.341  13.062
53239SOL    HW261551   9.284   0.330  12.938
53240SOL     OW61552  11.772   1.357  13.570
53240SOL    HW161553  11.812   1.412  13.503
53240SOL    HW261554  11.700   1.313  13.526
53241SOL     OW61555   4.637  14.629   8.071
53241SOL    HW161556   4.691  14.555   8.042
53241SOL    HW261557   4.575  14.643   8.000
53242SOL     OW61558   1.500  14.050   0.033
53242SOL    HW161559   1.563  14.009  14.852
53242SOL    HW261560   1.470  13.978   0.089
53243SOL     OW61561  12.357  11.923   9.333
53243SOL    HW161562  12.452  11.923   9.344
53243SOL    HW261563  12.336  12.011   9.301
53244SOL     OW61564   6.794   1.829   6.472
53244SOL    HW161565   6.855   1.850   6.402
53244SOL    HW261566   6.713   1.805   6.428
53245SOL     OW61567  12.316   3.202  12.432
53245SOL    HW161568  12.272   3.258  12.367
53245SOL    HW261569  12.244   3.157  12.477
53246SOL     OW61570   1.016  12.492  13.689
53246SOL    HW161571   1.079  12.420  13.685
53246SOL    HW261572   1.059  12.559  13.743
53247SOL     OW61573  12.219  13.455   2.723
53247SOL    HW161574  12.248  13.364   2.720
53247SOL    HW261575  12.145  13.459   2.662
53248SOL     OW61576   7.130   8.815  13.452
53248SOL    HW161577   7.116   8.834  13.359
53248SOL    HW261578   7.213   8.769  13.455
53249SOL     OW61579   8.134   7.440   5.309
53249SOL    HW161580   8.059   7.472   5.258
53249SOL    HW261581   8.210   7.476   5.265
53250SOL     OW61582   9.696   3.694  13.601
53250SOL    HW161583   9.645   3.672  13.523
53250SOL    HW261584   9.743   3.613  13.622
53251SOL     OW61585   2.735  12.697  11.964
53251SOL    HW161586   2.717  12.681  12.056
53251SOL    HW261587   2.711  12.788  11.950
53252SOL     OW61588   6.595   4.639  13.170
53252SOL    HW161589   6.656   4.568  13.187
53252SOL    HW261590   6.594   4.646  13.074
53253SOL     OW61591  10.595   5.658   0.435
53253SOL    HW161592  10.641   5.712   0.371
53253SOL    HW261593  10.585   5.714   0.512
53254SOL     OW61594   7.761  10.860   9.437
53254SOL    HW161595   7.679  10.894   9.401
53254SOL    HW261596   7.745  10.856   9.531
53255SOL     OW61597  12.712   5.891   1.016
53255SOL    HW161598  12.683   5.952   1.084
53255SOL    HW261599  12.793   5.929   0.982
53256SOL     OW61600   1.029   8.042  14.248
53256SOL    HW161601   0.938   8.042  14.219
53256SOL    HW261602   1.029   8.096  14.327
53257SOL     OW61603   9.757   3.900   3.048
53257SOL    HW161604   9.819   3.962   3.010
53257SOL    HW261605   9.796   3.814   3.031
53258SOL     OW61606   5.195   5.788   3.894
53258SOL    HW161607   5.136   5.747   3.957
53258SOL    HW261608   5.225   5.716   3.839
53259SOL     OW61609   0.755  13.156   5.454
53259SOL    HW161610   0.725  13.102   5.527
53259SOL    HW261611   0.697  13.233   5.455
53260SOL     OW61612   8.601   9.227   5.094
53260SOL    HW161613   8.552   9.153   5.059
53260SOL    HW261614   8.544   9.265   5.160
53261SOL     OW61615  14.454   4.636   4.226
53261SOL    HW161616  14.371   4.673   4.258
53261SOL    HW261617  14.522   4.684   4.274
53262SOL     OW61618   4.618   6.130   0.110
53262SOL    HW161619   4.589   6.206   0.060
53262SOL    HW261620   4.567   6.133   0.191
53263SOL     OW61621  12.377  12.733   5.271
53263SOL    HW161622  12.288  12.708   5.293
53263SOL    HW261623  12.370  12.782   5.189
53264SOL     OW61624  13.414   2.823   0.458
53264SOL    HW161625  13.431   2.738   0.498
53264SOL    HW261626  13.320   2.822   0.441
53265SOL     OW61627  10.514  10.582   7.968
53265SOL    HW161628  10.496  10.539   7.884
53265SOL    HW261629  10.519  10.510   8.031
53266SOL     OW61630  10.186   2.888   8.631
53266SOL    HW161631  10.100   2.927   8.616
53266SOL    HW261632  10.208   2.911   8.721
53267SOL     OW61633   1.638   4.619   9.493
53267SOL    HW161634   1.630   4.602   9.587
53267SOL    HW261635   1.655   4.534   9.454
53268SOL     OW61636   7.404  11.228   6.673
53268SOL    HW161637   7.373  11.169   6.742
53268SOL    HW261638   7.368  11.313   6.697
53269SOL     OW61639   4.055   9.292  11.929
53269SOL    HW161640   3.970   9.321  11.896
53269SOL    HW261641   4.036   9.256  12.016
53270SOL     OW61642  13.099  12.483   3.358
53270SOL    HW161643  13.018  12.453   3.398
53270SOL    HW261644  13.095  12.451   3.268
53271SOL     OW61645  13.866   2.129  11.200
53271SOL    HW161646  13.868   2.034  11.214
53271SOL    HW261647  13.783   2.144  11.155
53272SOL     OW61648  12.314  14.433   3.289
53272SOL    HW161649  12.390  14.443   3.345
53272SOL    HW261650  12.345  14.459   3.202
53273SOL     OW61651  13.863  14.697   2.318
53273SOL    HW161652  13.800  14.766   2.338
53273SOL    HW261653  13.811  14.630   2.272
53274SOL     OW61654   8.919   6.563   3.844
53274SOL    HW161655   8.976   6.639   3.834
53274SOL    HW261656   8.917   6.523   3.757
53275SOL     OW61657   1.138   7.319  14.733
53275SOL    HW161658   1.043   7.329  14.744
53275SOL    HW261659   1.176   7.387  14.789
53276SOL     OW61660  12.595  14.620   4.605
53276SOL    HW161661  12.619  14.603   4.696
53276SOL    HW261662  12.502  14.640   4.608
53277SOL     OW61663   6.808   8.489   1.965
53277SOL    HW161664   6.728   8.468   2.014
53277SOL    HW261665   6.808   8.584   1.959
53278SOL     OW61666   6.058   0.156  10.903
53278SOL    HW161667   6.011   0.235  10.931
53278SOL    HW261668   6.125   0.188  10.843
53279SOL     OW61669   6.826   8.562  14.033
53279SOL    HW161670   6.813   8.470  14.057
53279SOL    HW261671   6.867   8.558  13.947
53280SOL     OW61672  12.733  10.862   4.124
53280SOL    HW161673  12.669  10.840   4.193
53280SOL    HW261674  12.679  10.884   4.048
53281SOL     OW61675   5.033   0.253   0.372
53281SOL    HW161676   4.989   0.197   0.435
53281SOL    HW261677   4.966   0.318   0.348
53282SOL     OW61678   2.320  14.300  10.052
53282SOL    HW161679   2.255  14.320  10.119
53282SOL    HW261680   2.366  14.383  10.037
53283SOL     OW61681   3.526   5.782  11.284
53283SOL    HW161682   3.524   5.691  11.255
53283SOL    HW261683   3.469   5.784  11.361
53284SOL     OW61684  13.861   2.353   2.791
53284SOL    HW161685  13.826   2.350   2.702
53284SOL    HW261686  13.928   2.285   2.793
53285SOL     OW61687   4.627   7.249   4.328
53285SOL    HW161688   4.691   7.305   4.373
53285SOL    HW261689   4.597   7.189   4.396
53286SOL     OW61690   1.733   3.136   9.196
53286SOL    HW161691   1.767   3.222   9.219
53286SOL    HW261692   1.660   3.154   9.136
53287SOL     OW61693   7.889  13.226  11.134
53287SOL    HW161694   7.954  13.156  11.119
53287SOL    HW261695   7.935  13.290  11.188
53288SOL     OW61696   2.108   8.461   3.248
53288SOL    HW161697   2.114   8.396   3.319
53288SOL    HW261698   2.076   8.412   3.173
53289SOL     OW61699  12.122   6.385   5.293
53289SOL    HW161700  12.034   6.374   5.256
53289SOL    HW261701  12.123   6.330   5.370
53290SOL     OW61702   6.664  12.956   2.209
53290SOL    HW161703   6.749  12.989   2.238
53290SOL    HW261704   6.605  13.031   2.219
53291SOL     OW61705   2.542   0.189   2.723
53291SOL    HW161706   2.450   0.171   2.741
53291SOL    HW261707   2.540   0.255   2.653
53292SOL     OW61708  12.643  14.003   7.623
53292SOL    HW161709  12.614  13.922   7.664
53292SOL    HW261710  12.646  14.066   7.695
53293SOL     OW61711   6.933  14.303   6.358
53293SOL    HW161712   6.958  14.393   6.335
53293SOL    HW261713   6.923  14.304   6.453
53294SOL     OW61714  11.873   4.404  13.932
53294SOL    HW161715  11.813   4.475  13.906
53294SOL    HW261716  11.857   4.393  14.025
53295SOL     OW61717   9.032  13.114   0.235
53295SOL    HW161718   9.064  13.163   0.310
53295SOL    HW261719   8.947  13.080   0.263
53296SOL     OW61720  12.403   2.819   1.256
53296SOL    HW161721  12.318   2.776   1.267
53296SOL    HW261722  12.459   2.778   1.323
53297SOL     OW61723  14.231   0.030   6.995
53297SOL    HW161724  14.262   0.094   7.059
53297SOL    HW261725  14.307   0.010   6.941
53298SOL     OW61726  12.227   8.912   0.818
53298SOL    HW161727  12.315   8.883   0.795
53298SOL    HW261728  12.231   8.932   0.911
53299SOL     OW61729  12.243   7.466   1.771
53299SOL    HW161730  12.223   7.394   1.831
53299SOL    HW261731  12.335   7.487   1.788
53300SOL     OW61732   5.209   8.665   5.990
53300SOL    HW161733   5.226   8.572   5.979
53300SOL    HW261734   5.196   8.698   5.901
53301SOL     OW61735   8.149   6.534   3.983
53301SOL    HW161736   8.101   6.473   4.039
53301SOL    HW261737   8.141   6.618   4.028
53302SOL     OW61738   1.928   4.562  14.005
53302SOL    HW161739   2.015   4.544  14.039
53302SOL    HW261740   1.869   4.521  14.068
53303SOL     OW61741   5.858   6.295   5.238
53303SOL    HW161742   5.765   6.288   5.215
53303SOL    HW261743   5.898   6.342   5.165
53304SOL     OW61744   1.110   3.295   8.763
53304SOL    HW161745   1.135   3.387   8.773
53304SOL    HW261746   1.086   3.286   8.671
53305SOL     OW61747   3.225   0.003  13.520
53305SOL    HW161748   3.299  14.843  13.474
53305SOL    HW261749   3.208  14.822  13.593
53306SOL     OW61750   6.636   3.163   9.827
53306SOL    HW161751   6.575   3.108   9.876
53306SOL    HW261752   6.591   3.182   9.745
53307SOL     OW61753   8.407   5.250   0.664
53307SOL    HW161754   8.428   5.190   0.736
53307SOL    HW261755   8.491   5.264   0.620
53308SOL     OW61756  11.773  13.108   6.301
53308SOL    HW161757  11.699  13.163   6.276
53308SOL    HW261758  11.735  13.022   6.315
53309SOL     OW61759  13.442   8.698  13.703
53309SOL    HW161760  13.352   8.726  13.722
53309SOL    HW261761  13.457   8.725  13.613
53310SOL     OW61762  11.243  12.898   1.221
53310SOL    HW161763  11.215  12.899   1.130
53310SOL    HW261764  11.244  12.990   1.247
53311SOL     OW61765   5.978  11.908   5.932
53311SOL    HW161766   5.947  11.991   5.897
53311SOL    HW261767   6.073  11.912   5.924
53312SOL     OW61768   7.165   3.342  11.642
53312SOL    HW161769   7.153   3.418  11.698
53312SOL    HW261770   7.260   3.330  11.637
53313SOL     OW61771   6.567   9.557   3.268
53313SOL    HW161772   6.562   9.462   3.261
53313SOL    HW261773   6.585   9.586   3.178
53314SOL     OW61774   0.627  13.130  12.634
53314SOL    HW161775   0.667  13.135  12.547
53314SOL    HW261776   0.546  13.082  12.620
53315SOL     OW61777   9.152  11.146   4.677
53315SOL    HW161778   9.166  11.149   4.583
53315SOL    HW261779   9.238  11.123   4.713
53316SOL     OW61780  12.237   5.932  11.933
53316SOL    HW161781  12.274   5.868  11.873
53316SOL    HW261782  12.207   5.881  12.008
53317SOL     OW61783  10.100   3.809   8.661
53317SOL    HW161784  10.125   3.876   8.597
53317SOL    HW261785  10.009   3.830   8.684
53318SOL     OW61786   9.260  11.967   8.016
53318SOL    HW161787   9.348  11.965   8.053
53318SOL    HW261788   9.209  12.019   8.077
53319SOL     OW61789   3.947   7.945   9.656
53319SOL    HW161790   3.909   8.033   9.659
53319SOL    HW261791   3.920   7.911   9.571
53320SOL     OW61792   6.628   2.537   1.244
53320SOL    HW161793   6.613   2.594   1.320
53320SOL    HW261794   6.582   2.580   1.172
53321SOL     OW61795  11.477   9.953  13.679
53321SOL    HW161796  11.457   9.923  13.767
53321SOL    HW261797  11.555   9.903  13.653
53322SOL     OW61798  13.465   5.239  13.411
53322SOL    HW161799  13.388   5.183  13.425
53322SOL    HW261800  13.517   5.227  13.490
53323SOL     OW61801  14.393   9.775   5.871
53323SOL    HW161802  14.379   9.836   5.944
53323SOL    HW261803  14.488   9.760   5.871
53324SOL     OW61804   2.652   4.763   1.018
53324SOL    HW161805   2.669   4.812   0.937
53324SOL    HW261806   2.584   4.814   1.062
53325SOL     OW61807  10.210  12.159   6.022
53325SOL    HW161808  10.284  12.101   6.036
53325SOL    HW261809  10.135  12.100   6.013
53326SOL     OW61810   0.396  11.905  11.361
53326SOL    HW161811   0.421  11.853  11.284
53326SOL    HW261812   0.479  11.930  11.401
53327SOL     OW61813  13.405   0.678  10.664
53327SOL    HW161814  13.423   0.771  10.651
53327SOL    HW261815  13.467   0.633  10.607
53328SOL     OW61816   5.364   7.197  14.002
53328SOL    HW161817   5.303   7.212  13.929
53328SOL    HW261818   5.440   7.250  13.981
53329SOL     OW61819   9.647   9.414  10.274
53329SOL    HW161820   9.734   9.405  10.313
53329SOL    HW261821   9.654   9.371  10.188
53330SOL     OW61822   3.903   2.214  10.319
53330SOL    HW161823   3.848   2.220  10.240
53330SOL    HW261824   3.872   2.134  10.363
53331SOL     OW61825   8.568   5.293  10.914
53331SOL    HW161826   8.540   5.310  10.824
53331SOL    HW261827   8.656   5.257  10.906
53332SOL     OW61828   5.716   8.218  11.990
53332SOL    HW161829   5.629   8.181  11.975
53332SOL    HW261830   5.726   8.285  11.923
53333SOL     OW61831   9.547   5.749   7.507
53333SOL    HW161832   9.629   5.782   7.470
53333SOL    HW261833   9.490   5.737   7.431
53334SOL     OW61834  12.410  12.848   3.812
53334SOL    HW161835  12.361  12.815   3.887
53334SOL    HW261836  12.488  12.888   3.849
53335SOL     OW61837   4.552   7.449  12.838
53335SOL    HW161838   4.494   7.488  12.904
53335SOL    HW261839   4.558   7.357  12.863
53336SOL     OW61840   2.131   3.936   0.837
53336SOL    HW161841   2.216   3.917   0.876
53336SOL    HW261842   2.151   3.977   0.753
53337SOL     OW61843   0.085   5.057  10.129
53337SOL    HW161844   0.086   5.129  10.191
53337SOL    HW261845   0.084   5.099  10.043
53338SOL     OW61846  12.392  11.628   4.332
53338SOL    HW161847  12.402  11.685   4.408
53338SOL    HW261848  12.431  11.677   4.260
53339SOL     OW61849  14.766   9.764   4.273
53339SOL    HW161850  14.728   9.699   4.332
53339SOL    HW261851  14.840   9.719   4.233
53340SOL     OW61852  11.344   1.454  12.991
53340SOL    HW161853  11.423   1.486  12.948
53340SOL    HW261854  11.273   1.503  12.950
53341SOL     OW61855   7.049   3.430  14.383
53341SOL    HW161856   7.144   3.442  14.380
53341SOL    HW261857   7.036   3.351  14.435
53342SOL     OW61858   7.161   5.299  11.415
53342SOL    HW161859   7.188   5.363  11.481
53342SOL    HW261860   7.222   5.313  11.343
53343SOL     OW61861   2.562  14.250  11.975
53343SOL    HW161862   2.613  14.249  11.894
53343SOL    HW261863   2.475  14.279  11.949
53344SOL     OW61864  10.934   8.837   6.401
53344SOL    HW161865  10.949   8.744   6.384
53344SOL    HW261866  10.839   8.844   6.415
53345SOL     OW61867   8.326   0.331   5.973
53345SOL    HW161868   8.383   0.298   5.903
53345SOL    HW261869   8.247   0.277   5.967
53346SOL     OW61870  11.259   1.275  10.742
53346SOL    HW161871  11.271   1.369  10.741
53346SOL    HW261872  11.168   1.263  10.771
53347SOL     OW61873  13.832  13.053   3.525
53347SOL    HW161874  13.800  13.088   3.442
53347SOL    HW261875  13.753  13.023   3.570
53348SOL     OW61876   8.482   0.731   7.098
53348SOL    HW161877   8.575   0.717   7.118
53348SOL    HW261878   8.481   0.750   7.004
53349SOL     OW61879   8.890  14.793  14.140
53349SOL    HW161880   8.884  14.721  14.204
53349SOL    HW261881   8.960  14.849  14.173
53350SOL     OW61882   7.667   7.832  13.285
53350SOL    HW161883   7.698   7.742  13.276
53350SOL    HW261884   7.574   7.828  13.260
53351SOL     OW61885   8.678   8.751  11.447
53351SOL    HW161886   8.600   8.770  11.500
53351SOL    HW261887   8.672   8.658  11.427
53352SOL     OW61888   2.752  11.401  13.502
53352SOL    HW161889   2.766  11.337  13.571
53352SOL    HW261890   2.797  11.480  13.533
53353SOL     OW61891   2.225  12.238   2.835
53353SOL    HW161892   2.295  12.217   2.772
53353SOL    HW261893   2.243  12.328   2.862
53354SOL     OW61894   7.771   4.398  11.117
53354SOL    HW161895   7.850   4.375  11.165
53354SOL    HW261896   7.785   4.364  11.028
53355SOL     OW61897   8.947   2.005   4.469
53355SOL    HW161898   8.878   2.003   4.403
53355SOL    HW261899   8.938   1.922   4.515
53356SOL     OW61900   8.632  13.672  13.094
53356SOL    HW161901   8.676  13.614  13.156
53356SOL    HW261902   8.557  13.706  13.141
53357SOL     OW61903   4.423   4.610   9.540
53357SOL    HW161904   4.369   4.639   9.613
53357SOL    HW261905   4.410   4.676   9.472
53358SOL     OW61906  11.404   2.347   9.999
53358SOL    HW161907  11.406   2.386   9.912
53358SOL    HW261908  11.319   2.374  10.036
53359SOL     OW61909   2.694   8.180   9.135
53359SOL    HW161910   2.629   8.212   9.072
53359SOL    HW261911   2.775   8.171   9.084
53360SOL     OW61912   8.628   2.264   7.182
53360SOL    HW161913   8.646   2.245   7.090
53360SOL    HW261914   8.667   2.350   7.196
53361SOL     OW61915   0.254   0.850   2.889
53361SOL    HW161916   0.201   0.922   2.854
53361SOL    HW261917   0.225   0.842   2.980
53362SOL     OW61918  13.541   1.798   7.183
53362SOL    HW161919  13.560   1.713   7.144
53362SOL    HW261920  13.627   1.834   7.204
53363SOL     OW61921   8.686   5.331   2.525
53363SOL    HW161922   8.621   5.401   2.520
53363SOL    HW261923   8.636   5.253   2.549
53364SOL     OW61924  10.402  12.327  14.131
53364SOL    HW161925  10.382  12.420  14.136
53364SOL    HW261926  10.320  12.283  14.153
53365SOL     OW61927   1.495  13.929   4.877
53365SOL    HW161928   1.432  13.870   4.918
53365SOL    HW261929   1.518  13.886   4.795
53366SOL     OW61930  10.899   7.396  13.920
53366SOL    HW161931  10.979   7.383  13.971
53366SOL    HW261932  10.929   7.399  13.829
53367SOL     OW61933   0.126  11.758   1.238
53367SOL    HW161934   0.154  11.833   1.290
53367SOL    HW261935   0.183  11.687   1.265
53368SOL     OW61936  11.205  14.196   7.433
53368SOL    HW161937  11.202  14.191   7.337
53368SOL    HW261938  11.168  14.112   7.462
53369SOL     OW61939   2.379  10.121   4.429
53369SOL    HW161940   2.440  10.175   4.480
53369SOL    HW261941   2.435  10.063   4.378
53370SOL     OW61942   4.763   4.042   3.235
53370SOL    HW161943   4.776   4.101   3.160
53370SOL    HW261944   4.676   4.065   3.268
53371SOL     OW61945   6.093  14.075   3.792
53371SOL    HW161946   6.175  14.124   3.799
53371SOL    HW261947   6.033  14.118   3.853
53372SOL     OW61948   7.659  12.343   5.975
53372SOL    HW161949   7.611  12.406   5.920
53372SOL    HW261950   7.623  12.258   5.950
53373SOL     OW61951   6.258   5.977   8.978
53373SOL    HW161952   6.260   6.029   8.898
53373SOL    HW261953   6.198   6.025   9.036
53374SOL     OW61954   6.428   7.415   0.484
53374SOL    HW161955   6.352   7.406   0.541
53374SOL    HW261956   6.405   7.489   0.427
53375SOL     OW61957  13.432  12.854   0.150
53375SOL    HW161958  13.360  12.908   0.118
53375SOL    HW261959  13.393  12.800   0.218
53376SOL     OW61960   1.846   5.174  11.048
53376SOL    HW161961   1.757   5.166  11.082
53376SOL    HW261962   1.881   5.253  11.089
53377SOL     OW61963  12.927   0.638   1.707
53377SOL    HW161964  12.847   0.630   1.758
53377SOL    HW261965  12.930   0.731   1.682
53378SOL     OW61966   8.726   3.534   2.909
53378SOL    HW161967   8.806   3.499   2.949
53378SOL    HW261968   8.670   3.556   2.983
53379SOL     OW61969   1.302   8.230  11.914
53379SOL    HW161970   1.325   8.160  11.975
53379SOL    HW261971   1.235   8.191  11.857
53380SOL     OW61972   7.363   2.528  13.054
53380SOL    HW161973   7.286   2.510  13.109
53380SOL    HW261974   7.385   2.619  13.073
53381SOL     OW61975   2.828   7.545   5.075
53381SOL    HW161976   2.923   7.539   5.086
53381SOL    HW261977   2.793   7.537   5.164
53382SOL     OW61978  12.789   5.733   9.226
53382SOL    HW161979  12.852   5.709   9.159
53382SOL    HW261980  12.790   5.828   9.228
53383SOL     OW61981  11.359  13.426   7.530
53383SOL    HW161982  11.272  13.465   7.524
53383SOL    HW261983  11.344  13.332   7.522
53384SOL     OW61984   6.694   2.168   7.533
53384SOL    HW161985   6.716   2.238   7.594
53384SOL    HW261986   6.606   2.141   7.557
53385SOL     OW61987  10.434   9.614   8.573
53385SOL    HW161988  10.352   9.622   8.524
53385SOL    HW261989  10.482   9.695   8.554
53386SOL     OW61990   4.673  14.204   3.352
53386SOL    HW161991   4.639  14.212   3.263
53386SOL    HW261992   4.596  14.212   3.408
53387SOL     OW61993   1.335  12.823   2.770
53387SOL    HW161994   1.289  12.831   2.686
53387SOL    HW261995   1.321  12.733   2.797
53388SOL     OW61996   3.743   8.213  14.274
53388SOL    HW161997   3.765   8.279  14.340
53388SOL    HW261998   3.700   8.143  14.323
53389SOL     OW61999   2.233  14.626   5.424
53389SOL    HW162000   2.197  14.673   5.350
53389SOL    HW262001   2.159  14.579   5.462
53390SOL     OW62002   9.395  13.558  14.764
53390SOL    HW162003   9.331  13.549  14.694
53390SOL    HW262004   9.345  13.547  14.844
53391SOL     OW62005  12.672   2.157   7.886
53391SOL    HW162006  12.726   2.092   7.841
53391SOL    HW262007  12.602   2.177   7.824
53392SOL     OW62008  14.017   1.792   6.269
53392SOL    HW162009  14.051   1.703   6.277
53392SOL    HW262010  14.084   1.838   6.219
53393SOL     OW62011   7.398  14.559   9.834
53393SOL    HW162012   7.451  14.510   9.771
53393SOL    HW262013   7.462  14.610   9.884
53394SOL     OW62014   8.275   0.067   7.663
53394SOL    HW162015   8.350   0.116   7.697
53394SOL    HW262016   8.198   0.117   7.692
53395SOL     OW62017   6.527   4.054   8.517
53395SOL    HW162018   6.568   3.988   8.572
53395SOL    HW262019   6.433   4.046   8.536
53396SOL     OW62020   5.144   3.089   3.229
53396SOL    HW162021   5.172   3.136   3.151
53396SOL    HW262022   5.124   3.157   3.293
53397SOL     OW62023   4.965   1.250  11.321
53397SOL    HW162024   4.941   1.307  11.394
53397SOL    HW262025   5.017   1.180  11.362
53398SOL     OW62026   6.878   3.411  12.445
53398SOL    HW162027   6.788   3.414  12.479
53398SOL    HW262028   6.892   3.497  12.406
53399SOL     OW62029   6.330  12.580  12.269
53399SOL    HW162030   6.321  12.608  12.360
53399SOL    HW262031   6.417  12.540  12.265
53400SOL     OW62032  10.609  11.365   1.320
53400SOL    HW162033  10.666  11.312   1.265
53400SOL    HW262034  10.526  11.369   1.273
53401SOL     OW62035  10.926  12.235  10.805
53401SOL    HW162036  10.881  12.310  10.844
53401SOL    HW262037  10.901  12.161  10.860
53402SOL     OW62038  12.702   5.555   0.183
53402SOL    HW162039  12.705   5.462   0.206
53402SOL    HW262040  12.667   5.556   0.094
53403SOL     OW62041  10.477   0.262   5.479
53403SOL    HW162042  10.520   0.269   5.394
53403SOL    HW262043  10.405   0.326   5.475
53404SOL     OW62044   2.405  13.838   9.520
53404SOL    HW162045   2.464  13.903   9.481
53404SOL    HW262046   2.440  13.753   9.491
53405SOL     OW62047   1.506   5.931  14.026
53405SOL    HW162048   1.418   5.960  14.001
53405SOL    HW262049   1.492   5.847  14.070
53406SOL     OW62050  10.798   9.890   5.897
53406SOL    HW162051  10.848   9.839   5.961
53406SOL    HW262052  10.707   9.878   5.923
53407SOL     OW62053   6.370  12.054   4.143
53407SOL    HW162054   6.391  12.147   4.132
53407SOL    HW262055   6.386  12.037   4.236
53408SOL     OW62056   9.643   7.696   8.821
53408SOL    HW162057   9.643   7.698   8.917
53408SOL    HW262058   9.624   7.605   8.799
53409SOL     OW62059   4.656   7.172  14.551
53409SOL    HW162060   4.565   7.141  14.551
53409SOL    HW262061   4.663   7.225  14.472
53410SOL     OW62062  11.489   6.171   3.365
53410SOL    HW162063  11.409   6.123   3.384
53410SOL    HW262064  11.520   6.202   3.450
53411SOL     OW62065   8.680  14.744  10.572
53411SOL    HW162066   8.648  14.820  10.621
53411SOL    HW262067   8.741  14.701  10.632
53412SOL     OW62068  14.253  11.109  14.380
53412SOL    HW162069  14.192  11.038  14.361
53412SOL    HW262070  14.251  11.118  14.476
53413SOL     OW62071  10.580   7.833  13.621
53413SOL    HW162072  10.657   7.853  13.674
53413SOL    HW262073  10.611   7.767  13.559
53414SOL     OW62074   9.733   8.082   5.818
53414SOL    HW162075   9.729   8.044   5.905
53414SOL    HW262076   9.733   8.007   5.758
53415SOL     OW62077   3.624  10.713   3.574
53415SOL    HW162078   3.547  10.666   3.607
53415SOL    HW262079   3.593  10.755   3.494
53416SOL     OW62080  13.642   9.528   2.111
53416SOL    HW162081  13.668   9.615   2.141
53416SOL    HW262082  13.724   9.479   2.103
53417SOL     OW62083   0.514   3.150   5.249
53417SOL    HW162084   0.502   3.239   5.283
53417SOL    HW262085   0.521   3.161   5.154
53418SOL     OW62086   9.921   7.591  12.517
53418SOL    HW162087   9.989   7.586  12.449
53418SOL    HW262088   9.887   7.502  12.522
53419SOL     OW62089   8.712   8.971   5.419
53419SOL    HW162090   8.640   8.938   5.366
53419SOL    HW262091   8.790   8.926   5.386
53420SOL     OW62092   5.750   7.383  11.326
53420SOL    HW162093   5.701   7.373  11.244
53420SOL    HW262094   5.829   7.431  11.301
53421SOL     OW62095   2.961   0.730   1.751
53421SOL    HW162096   2.995   0.652   1.795
53421SOL    HW262097   3.034   0.792   1.754
53422SOL     OW62098   2.461   9.855   5.610
53422SOL    HW162099   2.535   9.821   5.661
53422SOL    HW262100   2.397   9.882   5.676
53423SOL     OW62101  11.168  10.655  12.801
53423SOL    HW162102  11.176  10.580  12.861
53423SOL    HW262103  11.100  10.709  12.839
53424SOL     OW62104   8.993  10.014   6.398
53424SOL    HW162105   8.953  10.049   6.478
53424SOL    HW262106   9.088  10.021   6.414
53425SOL     OW62107  13.420  14.104  12.942
53425SOL    HW162108  13.344  14.159  12.959
53425SOL    HW262109  13.416  14.035  13.008
53426SOL     OW62110   4.508   9.510  14.715
53426SOL    HW162111   4.582   9.476  14.765
53426SOL    HW262112   4.539   9.594  14.681
53427SOL     OW62113   2.354  12.601  12.744
53427SOL    HW162114   2.309  12.604  12.828
53427SOL    HW262115   2.392  12.513  12.740
53428SOL     OW62116   1.320   5.915  13.654
53428SOL    HW162117   1.234   5.955  13.647
53428SOL    HW262118   1.328   5.859  13.577
53429SOL     OW62119   2.173   6.385   0.845
53429SOL    HW162120   2.168   6.313   0.782
53429SOL    HW262121   2.216   6.456   0.797
53430SOL     OW62122   4.133   3.182  11.143
53430SOL    HW162123   4.196   3.171  11.215
53430SOL    HW262124   4.075   3.106  11.151
53431SOL     OW62125   6.703   1.716   4.794
53431SOL    HW162126   6.775   1.702   4.855
53431SOL    HW262127   6.633   1.754   4.847
53432SOL     OW62128  10.670   2.070  12.275
53432SOL    HW162129  10.754   2.066  12.230
53432SOL    HW262130  10.613   2.012  12.225
53433SOL     OW62131  11.198   7.081   5.084
53433SOL    HW162132  11.127   7.145   5.091
53433SOL    HW262133  11.175   7.012   5.146
53434SOL     OW62134   3.714   6.580   8.624
53434SOL    HW162135   3.699   6.674   8.621
53434SOL    HW262136   3.744   6.563   8.713
53435SOL     OW62137  13.709   2.277   2.568
53435SOL    HW162138  13.774   2.250   2.502
53435SOL    HW262139  13.693   2.199   2.619
53436SOL     OW62140   0.813   6.742  10.268
53436SOL    HW162141   0.756   6.695  10.208
53436SOL    HW262142   0.764   6.744  10.351
53437SOL     OW62143   4.377  13.735   6.707
53437SOL    HW162144   4.434  13.682   6.764
53437SOL    HW262145   4.297  13.746   6.757
53438SOL     OW62146   4.165   6.777   0.444
53438SOL    HW162147   4.253   6.784   0.408
53438SOL    HW262148   4.108   6.774   0.367
53439SOL     OW62149   5.841   5.417  14.122
53439SOL    HW162150   5.799   5.408  14.036
53439SOL    HW262151   5.818   5.506  14.150
53440SOL     OW62152   0.551   1.662   7.772
53440SOL    HW162153   0.573   1.693   7.684
53440SOL    HW262154   0.609   1.587   7.786
53441SOL     OW62155   4.204   2.531   9.420
53441SOL    HW162156   4.132   2.491   9.371
53441SOL    HW262157   4.282   2.515   9.367
53442SOL     OW62158   0.076   2.028  12.225
53442SOL    HW162159   0.088   2.097  12.290
53442SOL    HW262160  14.870   2.048  12.184
53443SOL     OW62161   9.754  12.644   0.512
53443SOL    HW162162   9.726  12.694   0.435
53443SOL    HW262163   9.812  12.576   0.477
53444SOL     OW62164  14.185   8.673   0.891
53444SOL    HW162165  14.257   8.736   0.886
53444SOL    HW262166  14.106   8.727   0.888
53445SOL     OW62167  10.830   3.233   6.761
53445SOL    HW162168  10.920   3.245   6.790
53445SOL    HW262169  10.813   3.139   6.772
53446SOL     OW62170  12.411   5.943  10.863
53446SOL    HW162171  12.376   6.026  10.830
53446SOL    HW262172  12.506   5.956  10.863
53447SOL     OW62173   2.849   8.818  13.110
53447SOL    HW162174   2.784   8.888  13.114
53447SOL    HW262175   2.803   8.741  13.143
53448SOL     OW62176   0.823   2.639   7.118
53448SOL    HW162177   0.827   2.562   7.174
53448SOL    HW262178   0.746   2.688   7.148
53449SOL     OW62179  11.485  13.150   6.748
53449SOL    HW162180  11.568  13.189   6.720
53449SOL    HW262181  11.509  13.062   6.777
53450SOL     OW62182  14.563   1.487  13.726
53450SOL    HW162183  14.495   1.484  13.794
53450SOL    HW262184  14.609   1.404  13.734
53451SOL     OW62185   8.179   5.069   6.742
53451SOL    HW162186   8.196   5.163   6.748
53451SOL    HW262187   8.091   5.062   6.707
53452SOL     OW62188   3.145   0.956  14.208
53452SOL    HW162189   3.154   1.051  14.206
53452SOL    HW262190   3.079   0.939  14.275
53453SOL     OW62191  10.918   0.549  13.365
53453SOL    HW162192  10.970   0.608  13.311
53453SOL    HW262193  10.837   0.536  13.316
53454SOL     OW62194  12.445   8.669   3.682
53454SOL    HW162195  12.395   8.716   3.749
53454SOL    HW262196  12.452   8.580   3.716
53455SOL     OW62197  11.911  10.148   0.289
53455SOL    HW162198  11.917  10.146   0.385
53455SOL    HW262199  11.967  10.077   0.260
53456SOL     OW62200   0.255  13.235   2.018
53456SOL    HW162201   0.303  13.227   1.936
53456SOL    HW262202   0.307  13.297   2.070
53457SOL     OW62203   5.657  14.302   8.909
53457SOL    HW162204   5.654  14.366   8.980
53457SOL    HW262205   5.598  14.232   8.937
53458SOL     OW62206   6.255   4.416   9.299
53458SOL    HW162207   6.233   4.380   9.385
53458SOL    HW262208   6.251   4.511   9.310
53459SOL     OW62209  14.395   2.550   4.652
53459SOL    HW162210  14.328   2.538   4.720
53459SOL    HW262211  14.373   2.634   4.611
53460SOL     OW62212   2.240  11.725  11.213
53460SOL    HW162213   2.154  11.753  11.182
53460SOL    HW262214   2.241  11.749  11.306
53461SOL     OW62215  10.076   5.904   6.571
53461SOL    HW162216  10.114   5.820   6.598
53461SOL    HW262217  10.152   5.960   6.555
53462SOL     OW62218   4.784  12.015  10.598
53462SOL    HW162219   4.756  11.984  10.685
53462SOL    HW262220   4.878  11.998  10.595
53463SOL     OW62221   0.042  14.394   9.468
53463SOL    HW162222  14.841  14.447   9.465
53463SOL    HW262223   0.070  14.390   9.376
53464SOL     OW62224   5.541  10.183   6.150
53464SOL    HW162225   5.489  10.185   6.070
53464SOL    HW262226   5.481  10.215   6.218
53465SOL     OW62227   9.646   0.786   2.905
53465SOL    HW162228   9.560   0.753   2.879
53465SOL    HW262229   9.681   0.719   2.963
53466SOL     OW62230   9.088   3.072   8.501
53466SOL    HW162231   9.138   3.099   8.424
53466SOL    HW262232   9.086   3.150   8.556
53467SOL     OW62233   1.159   0.667  14.360
53467SOL    HW162234   1.208   0.629  14.432
53467SOL    HW262235   1.095   0.724  14.402
53468SOL     OW62236  12.729   2.925   5.088
53468SOL    HW162237  12.743   2.868   5.163
53468SOL    HW262238  12.798   2.901   5.026
53469SOL     OW62239   3.559   5.052   1.182
53469SOL    HW162240   3.606   5.133   1.162
53469SOL    HW262241   3.620   4.983   1.156
53470SOL     OW62242   6.434  13.878   1.243
53470SOL    HW162243   6.452  13.816   1.173
53470SOL    HW262244   6.497  13.949   1.229
53471SOL     OW62245   1.775   1.247  12.441
53471SOL    HW162246   1.723   1.166  12.432
53471SOL    HW262247   1.796   1.251  12.534
53472SOL     OW62248   8.745   3.867  14.156
53472SOL    HW162249   8.650   3.880  14.161
53472SOL    HW262250   8.770   3.837  14.243
53473SOL     OW62251   8.442   9.836   2.733
53473SOL    HW162252   8.400   9.912   2.774
53473SOL    HW262253   8.469   9.867   2.647
53474SOL     OW62254   0.922  13.816   9.887
53474SOL    HW162255   0.999  13.850   9.840
53474SOL    HW262256   0.850  13.827   9.826
53475SOL     OW62257  13.002   6.653   8.787
53475SOL    HW162258  12.973   6.655   8.696
53475SOL    HW262259  13.095   6.631   8.783
53476SOL     OW62260   3.120   7.512   4.618
53476SOL    HW162261   3.130   7.578   4.550
53476SOL    HW262262   3.144   7.430   4.575
53477SOL     OW62263  11.447  14.056  12.669
53477SOL    HW162264  11.524  14.056  12.727
53477SOL    HW262265  11.392  13.985  12.702
53478SOL     OW62266  11.387   9.906   1.530
53478SOL    HW162267  11.353   9.924   1.618
53478SOL    HW262268  11.481   9.921   1.537
53479SOL     OW62269   1.330   9.746   8.272
53479SOL    HW162270   1.305   9.737   8.180
53479SOL    HW262271   1.270   9.812   8.306
53480SOL     OW62272   8.744   2.310   0.295
53480SOL    HW162273   8.822   2.255   0.303
53480SOL    HW262274   8.696   2.272   0.221
53481SOL     OW62275   3.913   3.060   7.800
53481SOL    HW162276   3.972   2.985   7.799
53481SOL    HW262277   3.961   3.127   7.849
53482SOL     OW62278   0.168   0.723  14.800
53482SOL    HW162279   0.115   0.789  14.846
53482SOL    HW262280   0.254   0.727  14.843
53483SOL     OW62281   6.961  10.254   5.755
53483SOL    HW162282   7.044  10.302   5.763
53483SOL    HW262283   6.984  10.163   5.776
53484SOL     OW62284  13.862   1.934   7.514
53484SOL    HW162285  13.946   1.948   7.558
53484SOL    HW262286  13.813   1.877   7.574
53485SOL     OW62287  14.627   2.400   6.647
53485SOL    HW162288  14.667   2.425   6.564
53485SOL    HW262289  14.632   2.479   6.701
53486SOL     OW62290   5.933  13.187   8.731
53486SOL    HW162291   5.928  13.250   8.803
53486SOL    HW262292   5.861  13.126   8.748
53487SOL     OW62293   6.706   2.570   4.670
53487SOL    HW162294   6.781   2.603   4.720
53487SOL    HW262295   6.652   2.526   4.736
53488SOL     OW62296   6.423   9.560   2.644
53488SOL    HW162297   6.379   9.603   2.571
53488SOL    HW262298   6.516   9.578   2.630
53489SOL     OW62299   8.550   9.345   9.752
53489SOL    HW162300   8.554   9.252   9.773
53489SOL    HW262301   8.590   9.388   9.828
53490SOL     OW62302   4.256  12.111   1.925
53490SOL    HW162303   4.269  12.204   1.945
53490SOL    HW262304   4.164  12.104   1.901
53491SOL     OW62305   7.343  13.068   0.622
53491SOL    HW162306   7.425  13.019   0.631
53491SOL    HW262307   7.277  13.012   0.661
53492SOL     OW62308  12.089  14.870   7.335
53492SOL    HW162309  12.025  14.811   7.294
53492SOL    HW262310  12.173  14.844   7.298
53493SOL     OW62311   8.628  14.027   4.087
53493SOL    HW162312   8.625  14.039   3.993
53493SOL    HW262313   8.692  13.957   4.100
53494SOL     OW62314   8.170  13.373   8.172
53494SOL    HW162315   8.222  13.367   8.092
53494SOL    HW262316   8.148  13.282   8.192
53495SOL     OW62317   3.678  14.710   5.943
53495SOL    HW162318   3.705  14.670   5.860
53495SOL    HW262319   3.722  14.795   5.944
53496SOL     OW62320   2.920  12.520  13.596
53496SOL    HW162321   2.845  12.463  13.578
53496SOL    HW262322   2.997  12.465  13.581
53497SOL     OW62323   8.966  11.075   5.820
53497SOL    HW162324   9.047  11.076   5.768
53497SOL    HW262325   8.981  11.139   5.890
53498SOL     OW62326   8.617   9.707   9.801
53498SOL    HW162327   8.640   9.722   9.893
53498SOL    HW262328   8.670   9.771   9.753
53499SOL     OW62329   5.278   1.649   1.443
53499SOL    HW162330   5.253   1.619   1.530
53499SOL    HW262331   5.320   1.573   1.402
53500SOL     OW62332  13.984   7.153   6.137
53500SOL    HW162333  14.066   7.137   6.185
53500SOL    HW262334  13.974   7.248   6.137
53501SOL     OW62335  10.689   2.314   4.713
53501SOL    HW162336  10.716   2.248   4.777
53501SOL    HW262337  10.595   2.323   4.726
53502SOL     OW62338  12.968   6.803  11.779
53502SOL    HW162339  12.952   6.894  11.803
53502SOL    HW262340  12.895   6.755  11.818
53503SOL     OW62341   0.600   0.733   4.700
53503SOL    HW162342   0.613   0.709   4.792
53503SOL    HW262343   0.668   0.798   4.682
53504SOL     OW62344   3.981   0.463   1.630
53504SOL    HW162345   3.978   0.441   1.537
53504SOL    HW262346   4.027   0.546   1.633
53505SOL     OW62347  10.451   0.637   8.282
53505SOL    HW162348  10.469   0.591   8.200
53505SOL    HW262349  10.357   0.628   8.295
53506SOL     OW62350   8.079   7.853  14.176
53506SOL    HW162351   8.004   7.797  14.196
53506SOL    HW262352   8.130   7.803  14.113
53507SOL     OW62353   7.160  12.828  13.538
53507SOL    HW162354   7.184  12.742  13.505
53507SOL    HW262355   7.158  12.884  13.460
53508SOL     OW62356   7.493   7.075   9.313
53508SOL    HW162357   7.459   7.038   9.232
53508SOL    HW262358   7.439   7.036   9.382
53509SOL     OW62359  14.782   7.953  11.834
53509SOL    HW162360  14.734   7.936  11.915
53509SOL    HW262361  14.813   7.868  11.806
53510SOL     OW62362   8.561   6.382   7.146
53510SOL    HW162363   8.553   6.382   7.241
53510SOL    HW262364   8.552   6.474   7.121
53511SOL     OW62365   6.054   6.646   2.809
53511SOL    HW162366   6.141   6.653   2.848
53511SOL    HW262367   6.063   6.578   2.742
53512SOL     OW62368  12.260  10.177   9.647
53512SOL    HW162369  12.259  10.270   9.670
53512SOL    HW262370  12.257  10.176   9.551
53513SOL     OW62371   1.344   0.578   1.842
53513SOL    HW162372   1.415   0.520   1.815
53513SOL    HW262373   1.266   0.522   1.842
53514SOL     OW62374  10.283   9.368   1.515
53514SOL    HW162375  10.294   9.276   1.540
53514SOL    HW262376  10.208   9.368   1.456
53515SOL     OW62377   0.959   3.362   4.890
53515SOL    HW162378   0.967   3.268   4.907
53515SOL    HW262379   1.040   3.400   4.924
53516SOL     OW62380   6.361   3.957  12.488
53516SOL    HW162381   6.294   4.023  12.467
53516SOL    HW262382   6.316   3.893  12.542
53517SOL     OW62383  13.370   9.614  14.638
53517SOL    HW162384  13.397   9.535  14.591
53517SOL    HW262385  13.300   9.584  14.696
53518SOL     OW62386  11.985   7.037  10.373
53518SOL    HW162387  12.078   7.059  10.370
53518SOL    HW262388  11.954   7.077  10.454
53519SOL     OW62389   0.228   8.144  12.972
53519SOL    HW162390   0.248   8.101  13.055
53519SOL    HW262391   0.141   8.112  12.949
53520SOL     OW62392  14.334  12.656  13.462
53520SOL    HW162393  14.296  12.575  13.495
53520SOL    HW262394  14.277  12.725  13.496
53521SOL     OW62395   9.078  13.324  14.580
53521SOL    HW162396   9.005  13.264  14.593
53521SOL    HW262397   9.154  13.279  14.617
53522SOL     OW62398  13.318  10.555   3.797
53522SOL    HW162399  13.255  10.587   3.862
53522SOL    HW262400  13.401  10.547   3.844
53523SOL     OW62401  14.069   2.054  12.868
53523SOL    HW162402  14.024   2.035  12.785
53523SOL    HW262403  14.143   1.993  12.869
53524SOL     OW62404   0.719  12.687  10.295
53524SOL    HW162405   0.667  12.640  10.360
53524SOL    HW262406   0.809  12.677  10.324
53525SOL     OW62407   1.048   2.495  11.859
53525SOL    HW162408   0.980   2.449  11.810
53525SOL    HW262409   1.122   2.500  11.798
53526SOL     OW62410   8.960   9.899   0.417
53526SOL    HW162411   9.050   9.930   0.412
53526SOL    HW262412   8.964   9.821   0.472
53527SOL     OW62413  12.683   9.694   1.263
53527SOL    HW162414  12.777   9.696   1.283
53527SOL    HW262415  12.640   9.697   1.348
53528SOL     OW62416   1.930  10.966   0.887
53528SOL    HW162417   1.936  11.030   0.959
53528SOL    HW262418   1.850  10.989   0.840
53529SOL     OW62419   9.593  14.132  13.718
53529SOL    HW162420   9.646  14.181  13.781
53529SOL    HW262421   9.556  14.200  13.661
53530SOL     OW62422   2.970   7.835   9.415
53530SOL    HW162423   3.052   7.833   9.463
53530SOL    HW262424   2.996   7.846   9.323
53531SOL     OW62425  13.402   1.918  13.462
53531SOL    HW162426  13.441   1.912  13.549
53531SOL    HW262427  13.377   1.828  13.441
53532SOL     OW62428   9.110   6.452   8.520
53532SOL    HW162429   9.098   6.448   8.615
53532SOL    HW262430   9.193   6.409   8.504
53533SOL     OW62431  13.312   4.289   2.242
53533SOL    HW162432  13.284   4.348   2.312
53533SOL    HW262433  13.365   4.344   2.184
53534SOL     OW62434  12.626  12.426   0.849
53534SOL    HW162435  12.687  12.389   0.786
53534SOL    HW262436  12.542  12.428   0.803
53535SOL     OW62437   7.139   5.152   1.343
53535SOL    HW162438   7.190   5.188   1.415
53535SOL    HW262439   7.055   5.129   1.382
53536SOL     OW62440   6.315  11.651   3.756
53536SOL    HW162441   6.383  11.696   3.706
53536SOL    HW262442   6.282  11.718   3.816
53537SOL     OW62443  13.260  10.306   3.086
53537SOL    HW162444  13.227  10.386   3.044
53537SOL    HW262445  13.354  10.319   3.091
53538SOL     OW62446   7.428   7.766  12.366
53538SOL    HW162447   7.494   7.823  12.327
53538SOL    HW262448   7.413   7.698  12.301
53539SOL     OW62449   8.064   4.660   4.082
53539SOL    HW162450   8.002   4.586   4.077
53539SOL    HW262451   8.008   4.737   4.088
53540SOL     OW62452   2.336   5.111   8.291
53540SOL    HW162453   2.398   5.183   8.279
53540SOL    HW262454   2.289   5.106   8.207
53541SOL     OW62455  12.121   0.445   4.691
53541SOL    HW162456  12.063   0.510   4.651
53541SOL    HW262457  12.063   0.377   4.724
53542SOL     OW62458  11.506   6.508   7.479
53542SOL    HW162459  11.424   6.491   7.525
53542SOL    HW262460  11.538   6.590   7.518
53543SOL     OW62461   2.246   5.055   3.003
53543SOL    HW162462   2.317   5.118   3.011
53543SOL    HW262463   2.258   4.995   3.078
53544SOL     OW62464  13.484   0.735  10.969
53544SOL    HW162465  13.390   0.726  10.987
53544SOL    HW262466  13.492   0.715  10.876
53545SOL     OW62467   0.210  14.860   1.282
53545SOL    HW162468   0.196   0.032   1.362
53545SOL    HW262469   0.266  14.787   1.308
53546SOL     OW62470   9.891  13.196   0.762
53546SOL    HW162471   9.976  13.152   0.760
53546SOL    HW262472   9.904  13.276   0.711
53547SOL     OW62473   7.971   1.421  12.758
53547SOL    HW162474   7.996   1.512  12.770
53547SOL    HW262475   8.051   1.378  12.727
53548SOL     OW62476   3.340   1.090   0.056
53548SOL    HW162477   3.303   1.059   0.138
53548SOL    HW262478   3.271   1.076  14.870
53549SOL     OW62479   7.171  13.383   7.442
53549SOL    HW162480   7.195  13.360   7.352
53549SOL    HW262481   7.078  13.359   7.449
53550SOL     OW62482  13.159   1.688   2.728
53550SOL    HW162483  13.091   1.738   2.773
53550SOL    HW262484  13.122   1.669   2.642
53551SOL     OW62485   2.537  13.065   8.306
53551SOL    HW162486   2.548  13.017   8.224
53551SOL    HW262487   2.444  13.059   8.325
53552SOL     OW62488   9.663   1.021   9.661
53552SOL    HW162489   9.633   0.997   9.749
53552SOL    HW262490   9.668   1.117   9.663
53553SOL     OW62491   0.592   2.285  12.698
53553SOL    HW162492   0.572   2.357  12.757
53553SOL    HW262493   0.687   2.276  12.701
53554SOL     OW62494  13.724   2.943   3.388
53554SOL    HW162495  13.766   2.978   3.310
53554SOL    HW262496  13.749   3.003   3.458
53555SOL     OW62497   3.919   8.559  10.826
53555SOL    HW162498   3.911   8.492  10.893
53555SOL    HW262499   3.830   8.589  10.810
53556SOL     OW62500  14.363   2.721   5.881
53556SOL    HW162501  14.433   2.768   5.835
53556SOL    HW262502  14.305   2.789   5.914
53557SOL     OW62503  14.712   0.264   6.749
53557SOL    HW162504  14.624   0.225   6.753
53557SOL    HW262505  14.770   0.190   6.733
53558SOL     OW62506   3.999   1.548  14.003
53558SOL    HW162507   3.988   1.514  13.914
53558SOL    HW262508   3.925   1.513  14.052
53559SOL     OW62509   1.424   0.566  10.977
53559SOL    HW162510   1.481   0.573  10.900
53559SOL    HW262511   1.468   0.503  11.034
53560SOL     OW62512   5.278   8.495  13.373
53560SOL    HW162513   5.347   8.444  13.332
53560SOL    HW262514   5.271   8.460  13.462
53561SOL     OW62515  11.583   7.257  12.307
53561SOL    HW162516  11.555   7.240  12.217
53561SOL    HW262517  11.639   7.335  12.300
53562SOL     OW62518   4.295   7.065   8.946
53562SOL    HW162519   4.253   7.030   9.024
53562SOL    HW262520   4.368   7.117   8.979
53563SOL     OW62521   4.959   2.471  11.216
53563SOL    HW162522   4.913   2.390  11.238
53563SOL    HW262523   4.981   2.509  11.301
53564SOL     OW62524   9.916   5.203  12.328
53564SOL    HW162525   9.881   5.152  12.254
53564SOL    HW262526   9.981   5.145  12.369
53565SOL     OW62527   6.192   1.038  12.515
53565SOL    HW162528   6.259   1.102  12.537
53565SOL    HW262529   6.241   0.956  12.502
53566SOL     OW62530   8.400   3.352   1.683
53566SOL    HW162531   8.407   3.295   1.606
53566SOL    HW262532   8.385   3.292   1.756
53567SOL     OW62533  11.985  13.070   1.326
53567SOL    HW162534  12.019  12.999   1.272
53567SOL    HW262535  12.040  13.068   1.405
53568SOL     OW62536  10.458   0.418   1.600
53568SOL    HW162537  10.504   0.502   1.603
53568SOL    HW262538  10.461   0.392   1.508
53569SOL     OW62539   1.203   1.114  13.186
53569SOL    HW162540   1.253   1.057  13.245
53569SOL    HW262541   1.218   1.202  13.220
53570SOL     OW62542   5.316   1.037   8.396
53570SOL    HW162543   5.259   0.981   8.343
53570SOL    HW262544   5.262   1.112   8.419
53571SOL     OW62545  12.178   5.845   3.322
53571SOL    HW162546  12.147   5.921   3.372
53571SOL    HW262547  12.243   5.881   3.262
53572SOL     OW62548  12.364   2.424  11.305
53572SOL    HW162549  12.290   2.453  11.251
53572SOL    HW262550  12.323   2.380  11.380
53573SOL     OW62551   7.606  11.782   3.035
53573SOL    HW162552   7.697  11.789   3.006
53573SOL    HW262553   7.612  11.762   3.129
53574SOL     OW62554   5.693   5.472   5.208
53574SOL    HW162555   5.654   5.445   5.291
53574SOL    HW262556   5.675   5.566   5.202
53575SOL     OW62557  11.973   0.235  11.557
53575SOL    HW162558  12.053   0.274  11.522
53575SOL    HW262559  12.003   0.161  11.610
53576SOL     OW62560  12.357  12.179   9.208
53576SOL    HW162561  12.315  12.215   9.130
53576SOL    HW262562  12.417  12.247   9.237
53577SOL     OW62563  13.478   3.807   7.710
53577SOL    HW162564  13.552   3.860   7.680
53577SOL    HW262565  13.495   3.720   7.674
53578SOL     OW62566  11.746   7.187  10.718
53578SOL    HW162567  11.684   7.259  10.706
53578SOL    HW262568  11.812   7.200  10.651
53579SOL     OW62569   4.445   2.963   7.156
53579SOL    HW162570   4.464   3.004   7.072
53579SOL    HW262571   4.525   2.974   7.207
53580SOL     OW62572   1.337  14.809  13.098
53580SOL    HW162573   1.381  14.745  13.155
53580SOL    HW262574   1.265  14.842  13.151
53581SOL     OW62575   1.068   6.408   1.462
53581SOL    HW162576   1.139   6.463   1.428
53581SOL    HW262577   1.034   6.363   1.384
53582SOL     OW62578  11.732   6.625  12.237
53582SOL    HW162579  11.769   6.542  12.207
53582SOL    HW262580  11.640   6.620  12.214
53583SOL     OW62581   0.269   0.668   2.692
53583SOL    HW162582   0.296   0.577   2.709
53583SOL    HW262583   0.280   0.712   2.776
53584SOL     OW62584   3.299   2.082   5.145
53584SOL    HW162585   3.342   2.166   5.129
53584SOL    HW262586   3.370   2.019   5.156
53585SOL     OW62587   9.505  14.127  12.986
53585SOL    HW162588   9.420  14.170  12.997
53585SOL    HW262589   9.539  14.118  13.075
53586SOL     OW62590   8.905  11.459   9.172
53586SOL    HW162591   8.936  11.436   9.085
53586SOL    HW262592   8.959  11.407   9.231
53587SOL     OW62593  14.520   7.012   0.088
53587SOL    HW162594  14.456   6.974   0.148
53587SOL    HW262595  14.499   6.973   0.003
53588SOL     OW62596   9.345  12.698   7.823
53588SOL    HW162597   9.337  12.646   7.743
53588SOL    HW262598   9.259  12.691   7.865
53589SOL     OW62599   7.896  11.316   0.513
53589SOL    HW162600   7.959  11.288   0.580
53589SOL    HW262601   7.812  11.318   0.559
53590SOL     OW62602   6.427   9.050   9.679
53590SOL    HW162603   6.400   9.028   9.768
53590SOL    HW262604   6.410   8.971   9.628
53591SOL     OW62605   8.934  14.350  11.725
53591SOL    HW162606   9.016  14.399  11.724
53591SOL    HW262607   8.901  14.356  11.635
53592SOL     OW62608  10.024   4.170   6.483
53592SOL    HW162609  10.101   4.226   6.485
53592SOL    HW262610   9.958   4.221   6.437
53593SOL     OW62611   7.136   3.013  10.549
53593SOL    HW162612   7.084   2.981  10.475
53593SOL    HW262613   7.220   2.967  10.540
53594SOL     OW62614   4.433   0.392  11.003
53594SOL    HW162615   4.463   0.307  10.970
53594SOL    HW262616   4.340   0.380  11.019
53595SOL     OW62617   5.052  14.727   8.927
53595SOL    HW162618   4.978  14.785   8.946
53595SOL    HW262619   5.024  14.642   8.962
53596SOL     OW62620  12.635   7.153   3.144
53596SOL    HW162621  12.730   7.151   3.153
53596SOL    HW262622  12.611   7.244   3.162
53597SOL     OW62623   7.001  13.696   5.350
53597SOL    HW162624   7.006  13.770   5.410
53597SOL    HW262625   7.049  13.626   5.395
53598SOL     OW62626  12.932  12.268   5.898
53598SOL    HW162627  12.908  12.308   5.982
53598SOL    HW262628  13.022  12.239   5.911
53599SOL     OW62629   8.068   8.749  12.202
53599SOL    HW162630   7.991   8.805  12.191
53599SOL    HW262631   8.141   8.803  12.173
53600SOL     OW62632   5.806  12.060   1.309
53600SOL    HW162633   5.863  12.046   1.233
53600SOL    HW262634   5.838  12.141   1.348
53601SOL     OW62635   9.960   9.726   0.827
53601SOL    HW162636   9.893   9.715   0.759
53601SOL    HW262637   9.916   9.698   0.908
53602SOL     OW62638  11.283   9.975   3.354
53602SOL    HW162639  11.372  10.008   3.364
53602SOL    HW262640  11.229  10.036   3.405
53603SOL     OW62641   5.711  12.597   6.579
53603SOL    HW162642   5.715  12.513   6.625
53603SOL    HW262643   5.658  12.653   6.636
53604SOL     OW62644  10.730  13.637   5.905
53604SOL    HW162645  10.690  13.722   5.925
53604SOL    HW262646  10.696  13.578   5.973
53605SOL     OW62647   3.680   4.544   7.138
53605SOL    HW162648   3.693   4.515   7.228
53605SOL    HW262649   3.765   4.579   7.112
53606SOL     OW62650   1.834  14.766   6.069
53606SOL    HW162651   1.929  14.769   6.074
53606SOL    HW262652   1.806  14.857   6.066
53607SOL     OW62653   1.189  11.397  10.847
53607SOL    HW162654   1.173  11.326  10.785
53607SOL    HW262655   1.284  11.399  10.858
53608SOL     OW62656   2.464   5.410   5.566
53608SOL    HW162657   2.559   5.424   5.569
53608SOL    HW262658   2.443   5.370   5.650
53609SOL     OW62659  10.804   5.248  12.043
53609SOL    HW162660  10.864   5.199  11.986
53609SOL    HW262661  10.853   5.326  12.068
53610SOL     OW62662   4.410  11.808   2.164
53610SOL    HW162663   4.376  11.722   2.139
53610SOL    HW262664   4.396  11.812   2.259
53611SOL     OW62665   1.949   7.196   8.114
53611SOL    HW162666   2.009   7.154   8.052
53611SOL    HW262667   1.873   7.221   8.060
53612SOL     OW62668  14.290  10.441  10.648
53612SOL    HW162669  14.269  10.434  10.741
53612SOL    HW262670  14.379  10.474  10.645
53613SOL     OW62671   6.932   6.341   8.983
53613SOL    HW162672   6.884   6.331   8.901
53613SOL    HW262673   6.978   6.258   8.995
53614SOL     OW62674   5.122  11.392  14.781
53614SOL    HW162675   5.062  11.319  14.796
53614SOL    HW262676   5.090  11.435  14.702
53615SOL     OW62677  13.767  12.343   4.709
53615SOL    HW162678  13.841  12.289   4.680
53615SOL    HW262679  13.783  12.358   4.803
53616SOL     OW62680  11.350   4.481   1.712
53616SOL    HW162681  11.337   4.567   1.673
53616SOL    HW262682  11.442   4.461   1.694
53617SOL     OW62683   7.537   2.123   1.898
53617SOL    HW162684   7.455   2.145   1.853
53617SOL    HW262685   7.606   2.157   1.841
53618SOL     OW62686   3.578   5.094  10.561
53618SOL    HW162687   3.536   5.059  10.639
53618SOL    HW262688   3.507   5.109  10.500
53619SOL     OW62689  13.798   0.454  11.494
53619SOL    HW162690  13.839   0.507  11.426
53619SOL    HW262691  13.708   0.443  11.465
53620SOL     OW62692   0.794   2.471  14.309
53620SOL    HW162693   0.788   2.445  14.401
53620SOL    HW262694   0.888   2.474  14.291
53621SOL     OW62695  10.786  12.576   2.564
53621SOL    HW162696  10.717  12.625   2.519
53621SOL    HW262697  10.785  12.610   2.653
53622SOL     OW62698   8.489  12.244   9.862
53622SOL    HW162699   8.402  12.264   9.826
53622SOL    HW262700   8.471  12.197   9.943
53623SOL     OW62701   2.771  12.769   1.819
53623SOL    HW162702   2.760  12.863   1.804
53623SOL    HW262703   2.847  12.763   1.877
53624SOL     OW62704  10.124   4.023   9.539
53624SOL    HW162705  10.075   4.101   9.565
53624SOL    HW262706  10.196   4.018   9.602
53625SOL     OW62707   4.541   0.576  14.321
53625SOL    HW162708   4.634   0.596  14.318
53625SOL    HW262709   4.503   0.646  14.376
53626SOL     OW62710  11.628   8.134   5.743
53626SOL    HW162711  11.573   8.064   5.707
53626SOL    HW262712  11.711   8.126   5.696
53627SOL     OW62713  14.206  12.929  13.417
53627SOL    HW162714  14.278  12.973  13.461
53627SOL    HW262715  14.135  12.926  13.481
53628SOL     OW62716   7.717  13.387   4.964
53628SOL    HW162717   7.743  13.331   4.891
53628SOL    HW262718   7.671  13.328   5.024
53629SOL     OW62719   5.387   7.545   6.156
53629SOL    HW162720   5.421   7.597   6.083
53629SOL    HW262721   5.309   7.503   6.121
53630SOL     OW62722   0.778   4.270   4.781
53630SOL    HW162723   0.780   4.306   4.870
53630SOL    HW262724   0.863   4.227   4.770
53631SOL     OW62725   6.572   6.078  13.956
53631SOL    HW162726   6.569   6.092  13.861
53631SOL    HW262727   6.493   6.026  13.975
53632SOL     OW62728   3.020   6.956   9.881
53632SOL    HW162729   3.106   6.922   9.906
53632SOL    HW262730   3.036   7.003   9.799
53633SOL     OW62731  12.887   0.549   2.641
53633SOL    HW162732  12.859   0.634   2.676
53633SOL    HW262733  12.905   0.495   2.718
53634SOL     OW62734   8.025   5.340   5.650
53634SOL    HW162735   7.992   5.403   5.585
53634SOL    HW262736   8.027   5.390   5.732
53635SOL     OW62737  14.225   1.521   1.536
53635SOL    HW162738  14.271   1.559   1.611
53635SOL    HW262739  14.229   1.590   1.469
53636SOL     OW62740   0.141   3.929  11.278
53636SOL    HW162741   0.130   3.970  11.364
53636SOL    HW262742   0.061   3.878  11.265
53637SOL     OW62743   9.903   2.404  13.613
53637SOL    HW162744   9.854   2.429  13.691
53637SOL    HW262745   9.846   2.430  13.540
53638SOL     OW62746  14.064   5.586   4.404
53638SOL    HW162747  14.056   5.495   4.376
53638SOL    HW262748  13.976   5.611   4.431
53639SOL     OW62749  10.338   8.171  11.790
53639SOL    HW162750  10.381   8.099  11.836
53639SOL    HW262751  10.351   8.150  11.697
53640SOL     OW62752  14.610   4.807   3.733
53640SOL    HW162753  14.602   4.902   3.722
53640SOL    HW262754  14.532   4.771   3.691
53641SOL     OW62755  14.036   9.724   0.153
53641SOL    HW162756  14.119   9.737   0.199
53641SOL    HW262757  14.055   9.745   0.062
53642SOL     OW62758   7.890  14.229   4.011
53642SOL    HW162759   7.893  14.165   3.940
53642SOL    HW262760   7.916  14.312   3.971
53643SOL     OW62761   8.857   7.914   4.227
53643SOL    HW162762   8.918   7.900   4.154
53643SOL    HW262763   8.816   7.829   4.240
53644SOL     OW62764   2.609   7.372   3.143
53644SOL    HW162765   2.693   7.327   3.151
53644SOL    HW262766   2.602   7.425   3.223
53645SOL     OW62767   6.777   5.889   1.514
53645SOL    HW162768   6.771   5.971   1.466
53645SOL    HW262769   6.693   5.881   1.559
53646SOL     OW62770   0.977   5.569   8.161
53646SOL    HW162771   0.924   5.489   8.164
53646SOL    HW262772   1.049   5.552   8.221
53647SOL     OW62773   7.169  12.985   1.763
53647SOL    HW162774   7.117  12.905   1.774
53647SOL    HW262775   7.180  13.018   1.852
53648SOL     OW62776  12.788   2.320  10.540
53648SOL    HW162777  12.817   2.230  10.522
53648SOL    HW262778  12.823   2.340  10.626
53649SOL     OW62779   2.168   4.238   2.001
53649SOL    HW162780   2.172   4.271   1.911
53649SOL    HW262781   2.075   4.221   2.016
53650SOL     OW62782  13.416   8.571   5.598
53650SOL    HW162783  13.361   8.615   5.532
53650SOL    HW262784  13.505   8.599   5.577
53651SOL     OW62785  10.697   5.710   4.361
53651SOL    HW162786  10.615   5.723   4.313
53651SOL    HW262787  10.752   5.783   4.334
53652SOL     OW62788  12.661  14.085  13.777
53652SOL    HW162789  12.735  14.045  13.824
53652SOL    HW262790  12.626  14.150  13.838
53653SOL     OW62791   3.221   7.456  13.479
53653SOL    HW162792   3.266   7.390  13.532
53653SOL    HW262793   3.218   7.534  13.534
53654SOL     OW62794   0.191   3.953   0.061
53654SOL    HW162795   0.239   3.876   0.092
53654SOL    HW262796   0.250   4.026   0.078
53655SOL     OW62797   6.146   4.977   8.916
53655SOL    HW162798   6.166   4.887   8.888
53655SOL    HW262799   6.123   4.969   9.008
53656SOL     OW62800   5.992   6.664  11.761
53656SOL    HW162801   6.014   6.577  11.727
53656SOL    HW262802   5.976   6.717  11.683
53657SOL     OW62803   9.532   6.214   5.244
53657SOL    HW162804   9.489   6.256   5.170
53657SOL    HW262805   9.535   6.121   5.220
53658SOL     OW62806   7.532  10.580   9.038
53658SOL    HW162807   7.469  10.620   9.097
53658SOL    HW262808   7.608  10.638   9.041
53659SOL     OW62809   1.552   7.533  13.124
53659SOL    HW162810   1.610   7.609  13.113
53659SOL    HW262811   1.592   7.483  13.195
53660SOL     OW62812   3.842   1.220   8.103
53660SOL    HW162813   3.914   1.162   8.129
53660SOL    HW262814   3.834   1.283   8.174
53661SOL     OW62815  13.223  14.670   4.373
53661SOL    HW162816  13.247  14.668   4.466
53661SOL    HW262817  13.237  14.581   4.342
53662SOL     OW62818  12.219  13.337   4.303
53662SOL    HW162819  12.242  13.257   4.349
53662SOL    HW262820  12.270  13.405   4.347
53663SOL     OW62821  11.071  13.483  13.326
53663SOL    HW162822  11.071  13.573  13.358
53663SOL    HW262823  10.991  13.445  13.361
53664SOL     OW62824  11.266   7.663   1.756
53664SOL    HW162825  11.184   7.714   1.752
53664SOL    HW262826  11.311   7.697   1.833
53665SOL     OW62827   8.496   4.527   1.295
53665SOL    HW162828   8.546   4.593   1.247
53665SOL    HW262829   8.545   4.446   1.285
53666SOL     OW62830   7.942  11.123   5.140
53666SOL    HW162831   7.931  11.029   5.157
53666SOL    HW262832   7.971  11.127   5.049
53667SOL     OW62833  14.606  13.384   4.387
53667SOL    HW162834  14.658  13.340   4.454
53667SOL    HW262835  14.659  13.378   4.307
53668SOL     OW62836   3.151  10.656  14.000
53668SOL    HW162837   3.195  10.591  14.055
53668SOL    HW262838   3.084  10.606  13.953
53669SOL     OW62839   7.321   4.640   4.186
53669SOL    HW162840   7.282   4.581   4.121
53669SOL    HW262841   7.264   4.633   4.262
53670SOL     OW62842  12.457  11.859   7.685
53670SOL    HW162843  12.414  11.823   7.763
53670SOL    HW262844  12.528  11.797   7.667
53671SOL     OW62845   5.529   5.146  14.197
53671SOL    HW162846   5.514   5.057  14.163
53671SOL    HW262847   5.474   5.202  14.143
53672SOL     OW62848   9.414  14.054   6.623
53672SOL    HW162849   9.490  14.104   6.651
53672SOL    HW262850   9.375  14.022   6.704
53673SOL     OW62851   4.155   2.939  10.517
53673SOL    HW162852   4.238   2.940  10.468
53673SOL    HW262853   4.162   2.863  10.574
53674SOL     OW62854   4.541   1.729   9.518
53674SOL    HW162855   4.446   1.740   9.514
53674SOL    HW262856   4.576   1.814   9.492
53675SOL     OW62857   0.458   3.793   1.098
53675SOL    HW162858   0.445   3.699   1.113
53675SOL    HW262859   0.486   3.799   1.007
53676SOL     OW62860  12.484  12.256   6.733
53676SOL    HW162861  12.506  12.301   6.815
53676SOL    HW262862  12.521  12.169   6.743
53677SOL     OW62863   7.835  13.993   6.069
53677SOL    HW162864   7.821  14.027   5.981
53677SOL    HW262865   7.793  13.907   6.069
53678SOL     OW62866   3.589  13.646   6.573
53678SOL    HW162867   3.547  13.619   6.655
53678SOL    HW262868   3.597  13.565   6.523
53679SOL     OW62869   9.091  11.029  14.137
53679SOL    HW162870   9.148  11.057  14.209
53679SOL    HW262871   9.017  10.987  14.181
53680SOL     OW62872   8.020   4.597  14.328
53680SOL    HW162873   8.080   4.605  14.253
53680SOL    HW262874   8.017   4.503  14.347
53681SOL     OW62875   0.522  11.099  10.303
53681SOL    HW162876   0.517  11.116  10.397
53681SOL    HW262877   0.493  11.180  10.262
53682SOL     OW62878   8.685  11.512  10.196
53682SOL    HW162879   8.709  11.490  10.106
53682SOL    HW262880   8.649  11.431  10.232
53683SOL     OW62881   9.040   9.773   1.622
53683SOL    HW162882   9.126   9.733   1.626
53683SOL    HW262883   8.998   9.750   1.705
53684SOL     OW62884  10.384   2.459  11.660
53684SOL    HW162885  10.311   2.396  11.664
53684SOL    HW262886  10.442   2.424  11.592
53685SOL     OW62887   6.887   1.048   8.694
53685SOL    HW162888   6.839   1.093   8.624
53685SOL    HW262889   6.819   1.009   8.749
53686SOL     OW62890   4.767  12.864   4.856
53686SOL    HW162891   4.696  12.804   4.833
53686SOL    HW262892   4.775  12.855   4.951
53687SOL     OW62893   8.318   8.025   2.791
53687SOL    HW162894   8.316   7.950   2.851
53687SOL    HW262895   8.251   8.006   2.725
53688SOL     OW62896   4.076   6.253   9.569
53688SOL    HW162897   4.100   6.334   9.526
53688SOL    HW262898   4.081   6.186   9.500
53689SOL     OW62899   8.709   9.146  12.151
53689SOL    HW162900   8.653   9.215  12.115
53689SOL    HW262901   8.786   9.146  12.093
53690SOL     OW62902  12.745   2.537   8.482
53690SOL    HW162903  12.666   2.486   8.500
53690SOL    HW262904  12.719   2.628   8.497
53691SOL     OW62905   8.754   9.510   2.197
53691SOL    HW162906   8.792   9.501   2.110
53691SOL    HW262907   8.823   9.481   2.257
53692SOL     OW62908   1.155   7.556  11.043
53692SOL    HW162909   1.149   7.579  10.950
53692SOL    HW262910   1.074   7.508  11.061
53693SOL     OW62911   8.433   6.907   9.573
53693SOL    HW162912   8.456   6.814   9.570
53693SOL    HW262913   8.339   6.909   9.554
53694SOL     OW62914   6.300   7.528   7.348
53694SOL    HW162915   6.252   7.542   7.266
53694SOL    HW262916   6.257   7.453   7.389
53695SOL     OW62917  10.443  10.708   6.652
53695SOL    HW162918  10.521  10.714   6.706
53695SOL    HW262919  10.448  10.621   6.611
53696SOL     OW62920   3.233   1.649   6.565
53696SOL    HW162921   3.173   1.669   6.637
53696SOL    HW262922   3.245   1.554   6.569
53697SOL     OW62923   5.199  10.101  10.569
53697SOL    HW162924   5.242  10.023  10.603
53697SOL    HW262925   5.190  10.085  10.475
53698SOL     OW62926   6.953   5.308  10.566
53698SOL    HW162927   7.021   5.306  10.499
53698SOL    HW262928   6.990   5.359  10.637
53699SOL     OW62929   6.409   9.601   9.710
53699SOL    HW162930   6.463   9.633   9.782
53699SOL    HW262931   6.319   9.616   9.739
53700SOL     OW62932   7.954   0.617   9.248
53700SOL    HW162933   7.879   0.677   9.247
53700SOL    HW262934   8.004   0.643   9.325
53701SOL     OW62935   6.595   7.115   1.868
53701SOL    HW162936   6.550   7.058   1.930
53701SOL    HW262937   6.639   7.180   1.923
53702SOL     OW62938  10.070   7.540   6.075
53702SOL    HW162939  10.124   7.461   6.078
53702SOL    HW262940  10.104   7.595   6.145
53703SOL     OW62941  14.596  10.818   3.784
53703SOL    HW162942  14.633  10.753   3.844
53703SOL    HW262943  14.502  10.808   3.793
53704SOL     OW62944   6.770  14.315   2.559
53704SOL    HW162945   6.784  14.317   2.465
53704SOL    HW262946   6.722  14.233   2.574
53705SOL     OW62947  14.690   9.803   9.375
53705SOL    HW162948  14.603   9.789   9.337
53705SOL    HW262949  14.699   9.899   9.377
53706SOL     OW62950   9.172   4.796   8.620
53706SOL    HW162951   9.198   4.737   8.691
53706SOL    HW262952   9.079   4.812   8.635
53707SOL     OW62953   3.826   3.460  12.178
53707SOL    HW162954   3.774   3.403  12.122
53707SOL    HW262955   3.802   3.435  12.267
53708SOL     OW62956   6.953   0.641   8.464
53708SOL    HW162957   7.000   0.646   8.547
53708SOL    HW262958   6.918   0.552   8.462
53709SOL     OW62959   5.199   9.226  14.619
53709SOL    HW162960   5.183   9.290  14.687
53709SOL    HW262961   5.286   9.190  14.639
53710SOL     OW62962   7.889   9.896   5.335
53710SOL    HW162963   7.798   9.868   5.338
53710SOL    HW262964   7.899   9.938   5.250
53711SOL     OW62965   5.630   0.443   3.233
53711SOL    HW162966   5.582   0.393   3.299
53711SOL    HW262967   5.584   0.527   3.230
53712SOL     OW62968  11.032   2.247   6.144
53712SOL    HW162969  11.121   2.215   6.124
53712SOL    HW262970  11.040   2.342   6.143
53713SOL     OW62971  10.742   0.020   5.191
53713SOL    HW162972  10.781   0.007   5.104
53713SOL    HW262973  10.768  14.821   5.240
53714SOL     OW62974   5.128  12.994   6.048
53714SOL    HW162975   5.188  13.050   6.097
53714SOL    HW262976   5.058  13.053   6.021
53715SOL     OW62977   4.765  12.082   7.560
53715SOL    HW162978   4.694  12.042   7.510
53715SOL    HW262979   4.798  12.012   7.616
53716SOL     OW62980   7.099   4.021   9.266
53716SOL    HW162981   7.167   3.988   9.326
53716SOL    HW262982   7.044   3.945   9.247
53717SOL     OW62983   0.869  10.955  13.763
53717SOL    HW162984   0.912  10.992  13.840
53717SOL    HW262985   0.941  10.930  13.705
53718SOL     OW62986   5.708   1.936   5.879
53718SOL    HW162987   5.684   2.027   5.895
53718SOL    HW262988   5.767   1.913   5.951
53719SOL     OW62989   0.409  11.167   6.513
53719SOL    HW162990   0.398  11.249   6.464
53719SOL    HW262991   0.364  11.182   6.596
53720SOL     OW62992   7.186   1.789   5.395
53720SOL    HW162993   7.229   1.807   5.312
53720SOL    HW262994   7.095   1.768   5.370
53721SOL     OW62995   7.946   7.508   4.480
53721SOL    HW162996   8.030   7.489   4.438
53721SOL    HW262997   7.914   7.423   4.509
53722SOL     OW62998   5.679   6.970  12.406
53722SOL    HW162999   5.747   7.038  12.412
53722SOL    HW263000   5.608   7.002  12.462
53723SOL     OW63001  14.233   3.740   2.515
53723SOL    HW163002  14.146   3.758   2.551
53723SOL    HW263003  14.236   3.790   2.434
53724SOL     OW63004  12.915   4.920   9.684
53724SOL    HW163005  13.009   4.935   9.679
53724SOL    HW263006  12.886   4.917   9.593
53725SOL     OW63007  10.852   6.896  11.894
53725SOL    HW163008  10.905   6.877  11.816
53725SOL    HW263009  10.890   6.976  11.930
53726SOL     OW63010   1.776   7.812   7.430
53726SOL    HW163011   1.814   7.726   7.417
53726SOL    HW263012   1.835   7.856   7.491
53727SOL     OW63013  13.255  10.107   8.601
53727SOL    HW163014  13.276  10.163   8.676
53727SOL    HW263015  13.282  10.158   8.525
53728SOL     OW63016   0.837  14.721   7.222
53728SOL    HW163017   0.846  14.681   7.135
53728SOL    HW263018   0.858  14.651   7.283
53729SOL     OW63019  12.211   6.608   8.306
53729SOL    HW163020  12.284   6.651   8.261
53729SOL    HW263021  12.158   6.570   8.236
53730SOL     OW63022   1.353   6.266   2.229
53730SOL    HW163023   1.268   6.223   2.214
53730SOL    HW263024   1.344   6.306   2.316
53731SOL     OW63025   6.188  11.284   2.311
53731SOL    HW163026   6.157  11.196   2.330
53731SOL    HW263027   6.119  11.342   2.343
53732SOL     OW63028   7.003   8.636  11.531
53732SOL    HW163029   6.981   8.719  11.573
53732SOL    HW263030   6.919   8.598  11.507
53733SOL     OW63031  10.389   3.176   0.514
53733SOL    HW163032  10.448   3.218   0.577
53733SOL    HW263033  10.448   3.138   0.448
53734SOL     OW63034  13.564   0.477  10.502
53734SOL    HW163035  13.509   0.434  10.436
53734SOL    HW263036  13.653   0.453  10.477
53735SOL     OW63037   7.636  10.998   6.061
53735SOL    HW163038   7.543  10.978   6.060
53735SOL    HW263039   7.679  10.912   6.067
53736SOL     OW63040   2.753  12.742   3.021
53736SOL    HW163041   2.805  12.809   2.976
53736SOL    HW263042   2.684  12.719   2.959
53737SOL     OW63043  10.174  14.536   7.219
53737SOL    HW163044  10.136  14.480   7.286
53737SOL    HW263045  10.110  14.537   7.148
53738SOL     OW63046  14.405   0.207  11.050
53738SOL    HW163047  14.325   0.206  11.102
53738SOL    HW263048  14.452   0.285  11.079
53739SOL     OW63049   9.385   5.829   2.540
53739SOL    HW163050   9.471   5.855   2.506
53739SOL    HW263051   9.368   5.745   2.499
53740SOL     OW63052   8.266  13.300   0.645
53740SOL    HW163053   8.345  13.323   0.693
53740SOL    HW263054   8.238  13.216   0.682
53741SOL     OW63055   5.314  11.669   6.939
53741SOL    HW163056   5.278  11.659   6.850
53741SOL    HW263057   5.395  11.720   6.926
53742SOL     OW63058   2.980   1.896  10.756
53742SOL    HW163059   2.984   1.843  10.835
53742SOL    HW263060   2.930   1.973  10.781
53743SOL     OW63061  13.319  12.647   0.288
53743SOL    HW163062  13.234  12.616   0.320
53743SOL    HW263063  13.341  12.588   0.216
53744SOL     OW63064  11.943   7.835   1.251
53744SOL    HW163065  11.874   7.855   1.188
53744SOL    HW263066  12.017   7.890   1.223
53745SOL     OW63067   9.212   7.467   5.797
53745SOL    HW163068   9.194   7.561   5.788
53745SOL    HW263069   9.145   7.425   5.743
53746SOL     OW63070  14.660   9.473   1.613
53746SOL    HW163071  14.686   9.490   1.522
53746SOL    HW263072  14.727   9.516   1.666
53747SOL     OW63073   6.812   9.223   7.798
53747SOL    HW163074   6.780   9.197   7.885
53747SOL    HW263075   6.895   9.177   7.788
53748SOL     OW63076   2.213   1.203  13.078
53748SOL    HW163077   2.244   1.274  13.135
53748SOL    HW263078   2.292   1.153  13.057
53749SOL     OW63079   6.738  13.334   9.185
53749SOL    HW163080   6.728  13.274   9.258
53749SOL    HW263081   6.798  13.289   9.125
53750SOL     OW63082   3.486   5.019  10.134
53750SOL    HW163083   3.531   5.019  10.218
53750SOL    HW263084   3.535   4.957  10.080
53751SOL     OW63085   9.236   5.545  13.878
53751SOL    HW163086   9.232   5.621  13.935
53751SOL    HW263087   9.155   5.497  13.895
53752SOL     OW63088  14.323   9.361   0.612
53752SOL    HW163089  14.251   9.410   0.572
53752SOL    HW263090  14.394   9.425   0.619
53753SOL     OW63091   7.007  13.865  14.196
53753SOL    HW163092   7.080  13.847  14.138
53753SOL    HW263093   6.997  13.785  14.248
53754SOL     OW63094   7.043   6.318   5.756
53754SOL    HW163095   7.060   6.401   5.800
53754SOL    HW263096   7.126   6.295   5.714
53755SOL     OW63097  11.723   3.347   0.108
53755SOL    HW163098  11.771   3.370   0.029
53755SOL    HW263099  11.631   3.342   0.080
53756SOL     OW63100   1.301   0.128  13.463
53756SOL    HW163101   1.263   0.147  13.548
53756SOL    HW263102   1.390   0.098  13.482
53757SOL     OW63103   7.758   3.701  13.463
53757SOL    HW163104   7.781   3.794  13.465
53757SOL    HW263105   7.731   3.685  13.372
53758SOL     OW63106   1.443  14.264  12.247
53758SOL    HW163107   1.454  14.203  12.320
53758SOL    HW263108   1.530  14.300  12.232
53759SOL     OW63109   5.326   9.577  12.051
53759SOL    HW163110   5.383   9.650  12.077
53759SOL    HW263111   5.383   9.500  12.055
53760SOL     OW63112   6.756   5.983   5.133
53760SOL    HW163113   6.690   6.053   5.134
53760SOL    HW263114   6.759   5.955   5.041
53761SOL     OW63115  11.856   3.579   6.444
53761SOL    HW163116  11.867   3.525   6.522
53761SOL    HW263117  11.764   3.570   6.421
53762SOL     OW63118   4.208   0.019   1.142
53762SOL    HW163119   4.289   0.069   1.146
53762SOL    HW263120   4.147   0.076   1.094
53763SOL     OW63121  11.517   0.111   8.138
53763SOL    HW163122  11.604   0.139   8.169
53763SOL    HW263123  11.518   0.016   8.149
53764SOL     OW63124  10.199   9.852  14.490
53764SOL    HW163125  10.279   9.808  14.519
53764SOL    HW263126  10.138   9.781  14.470
53765SOL     OW63127   5.333  12.607   6.231
53765SOL    HW163128   5.310  12.649   6.148
53765SOL    HW263129   5.424  12.580   6.220
53766SOL     OW63130   0.166   3.508  10.873
53766SOL    HW163131   0.207   3.595  10.874
53766SOL    HW263132   0.235   3.449  10.906
53767SOL     OW63133   9.224   8.413   9.378
53767SOL    HW163134   9.188   8.372   9.456
53767SOL    HW263135   9.184   8.368   9.305
53768SOL     OW63136  10.411   1.622   5.212
53768SOL    HW163137  10.467   1.691   5.249
53768SOL    HW263138  10.449   1.603   5.127
53769SOL     OW63139  11.109   3.115   8.065
53769SOL    HW163140  11.016   3.137   8.060
53769SOL    HW263141  11.152   3.179   8.008
53770SOL     OW63142   7.824   1.523   3.409
53770SOL    HW163143   7.794   1.561   3.326
53770SOL    HW263144   7.826   1.429   3.393
53771SOL     OW63145  14.667  12.824  12.237
53771SOL    HW163146  14.735  12.793  12.177
53771SOL    HW263147  14.676  12.768  12.314
53772SOL     OW63148  14.325  12.291  13.361
53772SOL    HW163149  14.290  12.259  13.444
53772SOL    HW263150  14.418  12.268  13.365
53773SOL     OW63151  10.573   7.313   2.947
53773SOL    HW163152  10.609   7.395   2.914
53773SOL    HW263153  10.640   7.280   3.008
53774SOL     OW63154   3.312   1.932   1.605
53774SOL    HW163155   3.397   1.929   1.647
53774SOL    HW263156   3.313   2.012   1.552
53775SOL     OW63157   2.252  11.992  12.440
53775SOL    HW163158   2.159  12.006  12.421
53775SOL    HW263159   2.266  12.036  12.524
53776SOL     OW63160   6.190   1.357   4.518
53776SOL    HW163161   6.151   1.438   4.553
53776SOL    HW263162   6.266   1.341   4.574
53777SOL     OW63163  10.147   6.881   1.797
53777SOL    HW163164  10.214   6.815   1.807
53777SOL    HW263165  10.121   6.874   1.705
53778SOL     OW63166   8.008   6.977  10.151
53778SOL    HW163167   7.921   6.946  10.124
53778SOL    HW263168   8.059   6.979  10.070
53779SOL     OW63169   0.309   7.594  10.636
53779SOL    HW163170   0.243   7.525  10.644
53779SOL    HW263171   0.286   7.640  10.556
53780SOL     OW63172   8.850  13.866  14.269
53780SOL    HW163173   8.920  13.929  14.251
53780SOL    HW263174   8.842  13.815  14.188
53781SOL     OW63175   4.967  12.133   2.635
53781SOL    HW163176   4.926  12.120   2.549
53781SOL    HW263177   4.930  12.062   2.689
53782SOL     OW63178   2.847   4.032   1.854
53782SOL    HW163179   2.816   4.122   1.863
53782SOL    HW263180   2.920   4.037   1.794
53783SOL     OW63181  10.096  12.505   0.249
53783SOL    HW163182  10.186  12.473   0.240
53783SOL    HW263183  10.101  12.598   0.227
53784SOL     OW63184  14.739   3.202  12.876
53784SOL    HW163185  14.740   3.150  12.957
53784SOL    HW263186  14.814   3.261  12.884
53785SOL     OW63187   2.122   6.351  13.897
53785SOL    HW163188   2.074   6.415  13.951
53785SOL    HW263189   2.157   6.402  13.825
53786SOL     OW63190  10.968   8.917   3.730
53786SOL    HW163191  11.032   8.932   3.661
53786SOL    HW263192  10.915   8.844   3.697
53787SOL     OW63193   5.304   5.595   6.523
53787SOL    HW163194   5.331   5.532   6.456
53787SOL    HW263195   5.243   5.547   6.578
53788SOL     OW63196  13.310   9.279  12.857
53788SOL    HW163197  13.226   9.288  12.903
53788SOL    HW263198  13.322   9.185  12.847
53789SOL     OW63199   6.487  10.207  13.762
53789SOL    HW163200   6.412  10.256  13.797
53789SOL    HW263201   6.549  10.202  13.834
53790SOL     OW63202   1.877   8.547   3.460
53790SOL    HW163203   1.904   8.463   3.496
53790SOL    HW263204   1.783   8.537   3.446
53791SOL     OW63205   4.178   0.253   8.811
53791SOL    HW163206   4.153   0.324   8.870
53791SOL    HW263207   4.207   0.182   8.869
53792SOL     OW63208  10.911  11.098   1.099
53792SOL    HW163209  10.819  11.115   1.078
53792SOL    HW263210  10.947  11.183   1.123
53793SOL     OW63211   5.056   7.179   4.097
53793SOL    HW163212   5.064   7.171   4.002
53793SOL    HW263213   5.140   7.213   4.126
53794SOL     OW63214   6.608   7.217  10.073
53794SOL    HW163215   6.635   7.308  10.077
53794SOL    HW263216   6.688   7.167  10.086
53795SOL     OW63217   0.269   2.983   0.698
53795SOL    HW163218   0.193   3.040   0.691
53795SOL    HW263219   0.254   2.915   0.632
53796SOL     OW63220   5.821  13.336  12.184
53796SOL    HW163221   5.829  13.408  12.246
53796SOL    HW263222   5.901  13.341  12.132
53797SOL     OW63223   1.473   2.736   8.491
53797SOL    HW163224   1.526   2.775   8.560
53797SOL    HW263225   1.483   2.794   8.416
53798SOL     OW63226   9.295   8.325   7.755
53798SOL    HW163227   9.276   8.417   7.733
53798SOL    HW263228   9.246   8.309   7.836
53799SOL     OW63229   7.802   3.154   8.886
53799SOL    HW163230   7.819   3.203   8.806
53799SOL    HW263231   7.751   3.078   8.857
53800SOL     OW63232   7.869   9.881   3.990
53800SOL    HW163233   7.814   9.817   3.945
53800SOL    HW263234   7.865   9.959   3.936
53801SOL     OW63235   4.975  11.617  11.666
53801SOL    HW163236   5.029  11.540  11.686
53801SOL    HW263237   4.934  11.597  11.582
53802SOL     OW63238   8.664   9.061   5.839
53802SOL    HW163239   8.585   9.106   5.809
53802SOL    HW263240   8.652   9.052   5.934
53803SOL     OW63241   7.812   7.659  13.024
53803SOL    HW163242   7.869   7.600  12.976
53803SOL    HW263243   7.744   7.603  13.061
53804SOL     OW63244   4.089  13.400  12.271
53804SOL    HW163245   4.028  13.466  12.301
53804SOL    HW263246   4.066  13.321  12.320
53805SOL     OW63247   1.299   5.961  11.986
53805SOL    HW163248   1.253   6.044  11.981
53805SOL    HW263249   1.376   5.972  11.930
53806SOL     OW63250   0.807   8.506   4.862
53806SOL    HW163251   0.759   8.565   4.919
53806SOL    HW263252   0.837   8.435   4.919
53807SOL     OW63253   6.342   5.769   4.361
53807SOL    HW163254   6.287   5.830   4.409
53807SOL    HW263255   6.293   5.687   4.361
53808SOL     OW63256  13.026   7.166   9.935
53808SOL    HW163257  13.032   7.090   9.877
53808SOL    HW263258  12.944   7.154   9.984
53809SOL     OW63259  11.129   2.798   7.004
53809SOL    HW163260  11.114   2.752   7.086
53809SOL    HW263261  11.140   2.890   7.029
53810SOL     OW63262   6.065   6.045  12.523
53810SOL    HW163263   6.097   6.111  12.462
53810SOL    HW263264   6.039   6.094  12.601
53811SOL     OW63265   9.793  11.137   2.023
53811SOL    HW163266   9.859  11.204   2.042
53811SOL    HW263267   9.779  11.144   1.928
53812SOL     OW63268   0.724  11.406  14.760
53812SOL    HW163269   0.737  11.496  14.791
53812SOL    HW263270   0.655  11.372  14.817
53813SOL     OW63271   8.189   0.252   6.864
53813SOL    HW163272   8.235   0.179   6.822
53813SOL    HW263273   8.139   0.292   6.792
53814SOL     OW63274  10.011   5.620   3.447
53814SOL    HW163275   9.993   5.526   3.443
53814SOL    HW263276   9.927   5.659   3.473
53815SOL     OW63277  13.448   7.000   0.968
53815SOL    HW163278  13.383   6.977   1.034
53815SOL    HW263279  13.520   6.939   0.983
53816SOL     OW63280   3.870   8.828   2.007
53816SOL    HW163281   3.927   8.882   1.952
53816SOL    HW263282   3.916   8.744   2.013
53817SOL     OW63283   2.584   2.091   3.312
53817SOL    HW163284   2.565   2.170   3.261
53817SOL    HW263285   2.501   2.043   3.312
53818SOL     OW63286  11.341   8.024  10.186
53818SOL    HW163287  11.311   8.012  10.275
53818SOL    HW263288  11.429   8.063  10.195
53819SOL     OW63289   4.822  11.522   6.870
53819SOL    HW163290   4.904  11.495   6.911
53819SOL    HW263291   4.848  11.560   6.786
53820SOL     OW63292   3.913  12.661   9.069
53820SOL    HW163293   3.910  12.590   9.133
53820SOL    HW263294   3.831  12.652   9.020
53821SOL     OW63295   3.184   5.674  11.882
53821SOL    HW163296   3.109   5.730  11.904
53821SOL    HW263297   3.229   5.660  11.965
53822SOL     OW63298  11.214   4.808   8.868
53822SOL    HW163299  11.239   4.800   8.960
53822SOL    HW263300  11.174   4.724   8.847
53823SOL     OW63301   7.641   4.943   6.454
53823SOL    HW163302   7.679   4.913   6.537
53823SOL    HW263303   7.588   4.868   6.425
53824SOL     OW63304   0.216   3.782   5.718
53824SOL    HW163305   0.311   3.771   5.710
53824SOL    HW263306   0.200   3.787   5.812
53825SOL     OW63307   7.841   1.411  11.507
53825SOL    HW163308   7.752   1.446  11.498
53825SOL    HW263309   7.833   1.318  11.487
53826SOL     OW63310  13.446   5.732   7.453
53826SOL    HW163311  13.526   5.752   7.405
53826SOL    HW263312  13.443   5.637   7.458
53827SOL     OW63313  13.557  10.035   8.853
53827SOL    HW163314  13.559  10.046   8.948
53827SOL    HW263315  13.648  10.045   8.826
53828SOL     OW63316   0.333   9.826  12.137
53828SOL    HW163317   0.401   9.831  12.070
53828SOL    HW263318   0.369   9.875  12.211
53829SOL     OW63319  10.712  11.782   7.206
53829SOL    HW163320  10.659  11.847   7.160
53829SOL    HW263321  10.728  11.714   7.141
53830SOL     OW63322   2.853   2.140   2.411
53830SOL    HW163323   2.867   2.045   2.404
53830SOL    HW263324   2.794   2.149   2.486
53831SOL     OW63325   7.478   9.571   2.771
53831SOL    HW163326   7.471   9.554   2.677
53831SOL    HW263327   7.566   9.543   2.794
53832SOL     OW63328   1.710   2.673   9.148
53832SOL    HW163329   1.627   2.634   9.121
53832SOL    HW263330   1.701   2.685   9.243
53833SOL     OW63331   9.669   1.432   6.713
53833SOL    HW163332   9.642   1.433   6.804
53833SOL    HW263333   9.597   1.389   6.666
53834SOL     OW63334   6.055   6.791   6.356
53834SOL    HW163335   6.128   6.829   6.308
53834SOL    HW263336   6.082   6.795   6.448
53835SOL     OW63337  10.756  10.959  12.791
53835SOL    HW163338  10.839  11.006  12.778
53835SOL    HW263339  10.689  11.027  12.788
53836SOL     OW63340   9.494   1.677   8.677
53836SOL    HW163341   9.441   1.723   8.743
53836SOL    HW263342   9.571   1.733   8.665
53837SOL     OW63343   7.073   8.228   9.160
53837SOL    HW163344   7.073   8.166   9.088
53837SOL    HW263345   6.996   8.283   9.145
53838SOL     OW63346  10.634   3.454   2.868
53838SOL    HW163347  10.660   3.444   2.777
53838SOL    HW263348  10.604   3.545   2.874
53839SOL     OW63349  10.388   6.698   2.780
53839SOL    HW163350  10.317   6.730   2.835
53839SOL    HW263351  10.397   6.763   2.711
53840SOL     OW63352   6.260  12.915   0.935
53840SOL    HW163353   6.263  13.003   0.899
53840SOL    HW263354   6.332  12.912   0.998
53841SOL     OW63355  12.321   9.555   5.100
53841SOL    HW163356  12.291   9.497   5.030
53841SOL    HW263357  12.351   9.496   5.169
53842SOL     OW63358   1.907  14.520  11.855
53842SOL    HW163359   1.875  14.537  11.766
53842SOL    HW263360   1.965  14.445  11.847
53843SOL     OW63361  13.967  14.209  13.276
53843SOL    HW163362  13.950  14.152  13.351
53843SOL    HW263363  13.949  14.154  13.200
53844SOL     OW63364   0.118   6.713   3.645
53844SOL    HW163365   0.188   6.728   3.709
53844SOL    HW263366   0.052   6.780   3.665
53845SOL     OW63367  12.932   8.021  10.228
53845SOL    HW163368  12.904   8.008  10.318
53845SOL    HW263369  12.856   7.998  10.175
53846SOL     OW63370   9.049   0.045   8.246
53846SOL    HW163371   9.053   0.136   8.217
53846SOL    HW263372   9.115   0.038   8.315
53847SOL     OW63373  13.201   0.856   8.122
53847SOL    HW163374  13.128   0.847   8.184
53847SOL    HW263375  13.279   0.834   8.173
53848SOL     OW63376   8.162   1.129   7.345
53848SOL    HW163377   8.099   1.200   7.332
53848SOL    HW263378   8.196   1.112   7.257
53849SOL     OW63379  12.799   2.901   9.431
53849SOL    HW163380  12.814   2.848   9.509
53849SOL    HW263381  12.713   2.941   9.446
53850SOL     OW63382   1.913   1.699   3.167
53850SOL    HW163383   1.846   1.631   3.155
53850SOL    HW263384   1.884   1.771   3.111
53851SOL     OW63385   1.842   6.922   9.236
53851SOL    HW163386   1.788   6.886   9.165
53851SOL    HW263387   1.901   6.984   9.192
53852SOL     OW63388   5.029   5.587   1.861
53852SOL    HW163389   5.116   5.627   1.859
53852SOL    HW263390   4.984   5.631   1.934
53853SOL     OW63391  11.929   7.283   8.283
53853SOL    HW163392  11.985   7.330   8.222
53853SOL    HW263393  11.987   7.217   8.323
53854SOL     OW63394  10.126   9.801   8.147
53854SOL    HW163395  10.219   9.791   8.167
53854SOL    HW263396  10.092   9.712   8.145
53855SOL     OW63397   0.804  14.831   2.383
53855SOL    HW163398   0.764  14.785   2.309
53855SOL    HW263399   0.734   0.010   2.416
53856SOL     OW63400   5.284  14.425   7.952
53856SOL    HW163401   5.284  14.394   8.043
53856SOL    HW263402   5.333  14.358   7.904
53857SOL     OW63403   1.072   5.157   3.277
53857SOL    HW163404   0.996   5.131   3.224
53857SOL    HW263405   1.146   5.152   3.217
53858SOL     OW63406  14.519  14.250  14.105
53858SOL    HW163407  14.555  14.171  14.145
53858SOL    HW263408  14.450  14.219  14.047
53859SOL     OW63409   9.208   7.034   2.863
53859SOL    HW163410   9.197   7.059   2.955
53859SOL    HW263411   9.199   6.939   2.863
53860SOL     OW63412   8.854   2.057   2.664
53860SOL    HW163413   8.923   2.123   2.674
53860SOL    HW263414   8.877   2.012   2.583
53861SOL     OW63415   3.358   4.518   7.354
53861SOL    HW163416   3.372   4.605   7.319
53861SOL    HW263417   3.358   4.530   7.449
53862SOL     OW63418  12.406  14.058   0.072
53862SOL    HW163419  12.486  14.103   0.100
53862SOL    HW263420  12.336  14.120   0.092
53863SOL     OW63421  11.370   9.585   0.746
53863SOL    HW163422  11.314   9.515   0.712
53863SOL    HW263423  11.450   9.579   0.694
53864SOL     OW63424  13.653  14.109  10.276
53864SOL    HW163425  13.742  14.086  10.301
53864SOL    HW263426  13.603  14.103  10.357
53865SOL     OW63427  10.909   1.864   9.409
53865SOL    HW163428  10.975   1.803   9.442
53865SOL    HW263429  10.831   1.811   9.395
53866SOL     OW63430   0.605   3.564  11.762
53866SOL    HW163431   0.657   3.545  11.684
53866SOL    HW263432   0.534   3.500  11.760
53867SOL     OW63433   8.401  10.731  13.854
53867SOL    HW163434   8.327  10.699  13.905
53867SOL    HW263435   8.386  10.826  13.847
53868SOL     OW63436   8.801   7.454   9.405
53868SOL    HW163437   8.842   7.374   9.373
53868SOL    HW263438   8.769   7.432   9.492
53869SOL     OW63439   6.077   2.716  13.429
53869SOL    HW163440   6.124   2.661  13.366
53869SOL    HW263441   6.014   2.657  13.470
53870SOL     OW63442   8.703   4.048  13.231
53870SOL    HW163443   8.743   4.100  13.301
53870SOL    HW263444   8.763   4.057  13.157
53871SOL     OW63445   4.896   4.811   6.132
53871SOL    HW163446   4.831   4.767   6.186
53871SOL    HW263447   4.849   4.884   6.092
53872SOL     OW63448  11.944   0.223   4.764
53872SOL    HW163449  11.867   0.224   4.706
53872SOL    HW263450  11.907   0.229   4.852
53873SOL     OW63451  11.731  14.729   6.104
53873SOL    HW163452  11.719  14.651   6.158
53873SOL    HW263453  11.645  14.772   6.106
53874SOL     OW63454  10.938  11.869   4.219
53874SOL    HW163455  10.856  11.911   4.193
53874SOL    HW263456  10.985  11.936   4.269
53875SOL     OW63457   4.498  10.952   5.764
53875SOL    HW163458   4.462  11.037   5.790
53875SOL    HW263459   4.453  10.930   5.682
53876SOL     OW63460   0.158  11.082   1.018
53876SOL    HW163461   0.089  11.137   0.980
53876SOL    HW263462   0.167  11.113   1.108
53877SOL     OW63463  13.118   1.656   3.542
53877SOL    HW163464  13.031   1.689   3.517
53877SOL    HW263465  13.133   1.692   3.629
53878SOL     OW63466   6.460   9.821  12.379
53878SOL    HW163467   6.509   9.867  12.447
53878SOL    HW263468   6.438   9.890  12.315
53879SOL     OW63469   9.697   9.932  13.544
53879SOL    HW163470   9.667   9.847  13.510
53879SOL    HW263471   9.684   9.926  13.639
53880SOL     OW63472   9.311  13.399  12.130
53880SOL    HW163473   9.297  13.417  12.223
53880SOL    HW263474   9.223  13.388  12.094
53881SOL     OW63475  14.692  10.124   4.457
53881SOL    HW163476  14.627  10.156   4.394
53881SOL    HW263477  14.727  10.203   4.499
53882SOL     OW63478   3.987  14.676  10.345
53882SOL    HW163479   4.033  14.610  10.398
53882SOL    HW263480   4.047  14.750  10.341
53883SOL     OW63481   5.039   1.825   2.266
53883SOL    HW163482   5.047   1.918   2.287
53883SOL    HW263483   5.038   1.822   2.170
53884SOL     OW63484   9.172  13.095  13.139
53884SOL    HW163485   9.105  13.042  13.095
53884SOL    HW263486   9.166  13.180  13.095
53885SOL     OW63487   3.655  14.173  10.928
53885SOL    HW163488   3.642  14.167  10.834
53885SOL    HW263489   3.694  14.260  10.942
53886SOL     OW63490   3.713   9.860   0.018
53886SOL    HW163491   3.669   9.943  14.878
53886SOL    HW263492   3.790   9.861  14.840
53887SOL     OW63493  12.612   9.647   7.230
53887SOL    HW163494  12.662   9.724   7.256
53887SOL    HW263495  12.537   9.682   7.182
53888SOL     OW63496  10.411   8.473  14.603
53888SOL    HW163497  10.346   8.504  14.666
53888SOL    HW263498  10.493   8.514  14.632
53889SOL     OW63499  13.355   7.315  13.882
53889SOL    HW163500  13.299   7.277  13.948
53889SOL    HW263501  13.352   7.253  13.809
53890SOL     OW63502  11.185   9.869   0.021
53890SOL    HW163503  11.120   9.806  14.869
53890SOL    HW263504  11.265   9.846  14.853
53891SOL     OW63505  10.091   9.597   1.963
53891SOL    HW163506  10.123   9.686   1.979
53891SOL    HW263507  10.140   9.568   1.885
53892SOL     OW63508   6.197   5.317   0.800
53892SOL    HW163509   6.113   5.322   0.753
53892SOL    HW263510   6.263   5.328   0.732
53893SOL     OW63511   5.404  11.248   8.928
53893SOL    HW163512   5.373  11.169   8.971
53893SOL    HW263513   5.394  11.317   8.994
53894SOL     OW63514   4.408   3.034   8.318
53894SOL    HW163515   4.450   3.049   8.233
53894SOL    HW263516   4.480   3.023   8.379
53895SOL     OW63517  14.150   8.806   9.523
53895SOL    HW163518  14.229   8.824   9.574
53895SOL    HW263519  14.182   8.783   9.436
53896SOL     OW63520  14.440   8.722   5.171
53896SOL    HW163521  14.476   8.778   5.240
53896SOL    HW263522  14.517   8.685   5.127
53897SOL     OW63523   8.869   5.575  10.863
53897SOL    HW163524   8.911   5.492  10.843
53897SOL    HW263525   8.927   5.641  10.823
53898SOL     OW63526   9.366   1.877  12.703
53898SOL    HW163527   9.412   1.952  12.740
53898SOL    HW263528   9.275   1.906  12.698
53899SOL     OW63529   7.945  11.624   8.034
53899SOL    HW163530   7.866  11.666   8.068
53899SOL    HW263531   7.922  11.597   7.946
53900SOL     OW63532  14.090   9.416   7.102
53900SOL    HW163533  14.034   9.380   7.034
53900SOL    HW263534  14.133   9.491   7.060
53901SOL     OW63535   4.397  10.634   2.116
53901SOL    HW163536   4.367  10.615   2.205
53901SOL    HW263537   4.404  10.730   2.113
53902SOL     OW63538  11.207   5.157  12.974
53902SOL    HW163539  11.119   5.133  13.003
53902SOL    HW263540  11.213   5.121  12.885
53903SOL     OW63541  12.718  12.912   2.346
53903SOL    HW163542  12.686  12.986   2.397
53903SOL    HW263543  12.810  12.902   2.373
53904SOL     OW63544   8.096  14.463   8.301
53904SOL    HW163545   8.066  14.453   8.211
53904SOL    HW263546   8.192  14.457   8.295
53905SOL     OW63547   2.349   1.815   6.263
53905SOL    HW163548   2.267   1.767   6.275
53905SOL    HW263549   2.410   1.751   6.226
53906SOL     OW63550   9.292   7.687   9.026
53906SOL    HW163551   9.205   7.651   9.041
53906SOL    HW263552   9.327   7.635   8.954
53907SOL     OW63553   5.561   8.355   4.361
53907SOL    HW163554   5.536   8.419   4.428
53907SOL    HW263555   5.524   8.272   4.392
53908SOL     OW63556   3.914  10.903   2.818
53908SOL    HW163557   3.976  10.833   2.835
53908SOL    HW263558   3.959  10.983   2.847
53909SOL     OW63559   6.552   5.935   0.771
53909SOL    HW163560   6.582   5.868   0.833
53909SOL    HW263561   6.483   5.891   0.721
53910SOL     OW63562  13.932   5.549   0.801
53910SOL    HW163563  14.011   5.603   0.803
53910SOL    HW263564  13.957   5.472   0.750
53911SOL     OW63565   9.215  11.757  13.304
53911SOL    HW163566   9.243  11.831  13.250
53911SOL    HW263567   9.286  11.693  13.296
53912SOL     OW63568  14.361  10.986   7.511
53912SOL    HW163569  14.455  10.974   7.522
53912SOL    HW263570  14.324  10.968   7.597
53913SOL     OW63571  13.126  13.912  10.492
53913SOL    HW163572  13.221  13.904  10.486
53913SOL    HW263573  13.098  13.946  10.407
53914SOL     OW63574   1.700   8.492   0.388
53914SOL    HW163575   1.713   8.405   0.349
53914SOL    HW263576   1.757   8.549   0.338
53915SOL     OW63577   0.835   3.749   2.393
53915SOL    HW163578   0.764   3.782   2.449
53915SOL    HW263579   0.887   3.828   2.372
53916SOL     OW63580   6.925   9.182   3.094
53916SOL    HW163581   6.972   9.112   3.140
53916SOL    HW263582   6.965   9.262   3.127
53917SOL     OW63583   6.315   9.232   0.614
53917SOL    HW163584   6.227   9.198   0.633
53917SOL    HW263585   6.372   9.155   0.623
53918SOL     OW63586  14.551  13.850  12.098
53918SOL    HW163587  14.519  13.889  12.179
53918SOL    HW263588  14.477  13.800  12.064
53919SOL     OW63589   3.500  13.733   2.341
53919SOL    HW163590   3.505  13.650   2.388
53919SOL    HW263591   3.522  13.712   2.250
53920SOL     OW63592   5.808   1.682   8.098
53920SOL    HW163593   5.884   1.687   8.040
53920SOL    HW263594   5.843   1.654   8.182
53921SOL     OW63595  13.882   2.448   5.740
53921SOL    HW163596  13.930   2.488   5.813
53921SOL    HW263597  13.808   2.507   5.725
53922SOL     OW63598  14.600  12.428  10.404
53922SOL    HW163599  14.633  12.443  10.315
53922SOL    HW263600  14.678  12.414  10.456
53923SOL     OW63601   3.226   5.318   4.436
53923SOL    HW163602   3.291   5.372   4.390
53923SOL    HW263603   3.264   5.230   4.434
53924SOL     OW63604   3.877  14.308   0.460
53924SOL    HW163605   3.890  14.400   0.483
53924SOL    HW263606   3.786  14.290   0.483
53925SOL     OW63607   0.559   1.489   3.659
53925SOL    HW163608   0.531   1.558   3.720
53925SOL    HW263609   0.575   1.536   3.577
53926SOL     OW63610  14.329  11.187  10.514
53926SOL    HW163611  14.319  11.105  10.564
53926SOL    HW263612  14.268  11.177  10.440
53927SOL     OW63613   1.223   4.927   8.107
53927SOL    HW163614   1.241   4.906   8.198
53927SOL    HW263615   1.300   4.976   8.078
53928SOL     OW63616   5.192   9.935  11.807
53928SOL    HW163617   5.250  10.012  11.802
53928SOL    HW263618   5.213   9.883  11.730
53929SOL     OW63619  11.057  13.387   9.802
53929SOL    HW163620  10.986  13.451   9.815
53929SOL    HW263621  11.012  13.303   9.794
53930SOL     OW63622   5.945   1.047   1.982
53930SOL    HW163623   5.932   1.140   1.962
53930SOL    HW263624   5.881   1.029   2.052
53931SOL     OW63625   4.034   3.731  14.543
53931SOL    HW163626   3.939   3.730  14.538
53931SOL    HW263627   4.054   3.716  14.635
53932SOL     OW63628   0.632  10.111   0.166
53932SOL    HW163629   0.703  10.146   0.219
53932SOL    HW263630   0.666  10.110   0.077
53933SOL     OW63631   1.552   5.961  12.874
53933SOL    HW163632   1.563   6.037  12.931
53933SOL    HW263633   1.608   5.894  12.912
53934SOL     OW63634   3.750   2.495   4.846
53934SOL    HW163635   3.694   2.426   4.809
53934SOL    HW263636   3.767   2.466   4.936
53935SOL     OW63637  11.069   9.843  12.351
53935SOL    HW163638  11.139   9.881  12.298
53935SOL    HW263639  11.050   9.759  12.310
53936SOL     OW63640   5.122   0.367   8.260
53936SOL    HW163641   5.102   0.338   8.349
53936SOL    HW263642   5.069   0.310   8.204
53937SOL     OW63643   4.648   8.463   2.096
53937SOL    HW163644   4.626   8.471   2.189
53937SOL    HW263645   4.578   8.409   2.060
53938SOL     OW63646   1.115  14.195   8.802
53938SOL    HW163647   1.057  14.168   8.874
53938SOL    HW263648   1.097  14.131   8.733
53939SOL     OW63649  14.318  13.257  10.266
53939SOL    HW163650  14.393  13.198  10.265
53939SOL    HW263651  14.242  13.198  10.265
53940SOL     OW63652   0.615   6.216   5.516
53940SOL    HW163653   0.695   6.253   5.479
53940SOL    HW263654   0.545   6.246   5.458
53941SOL     OW63655   8.223  11.940  11.611
53941SOL    HW163656   8.242  11.922  11.519
53941SOL    HW263657   8.309  11.943  11.653
53942SOL     OW63658  11.749   1.919  12.951
53942SOL    HW163659  11.786   1.832  12.937
53942SOL    HW263660  11.711   1.916  13.039
53943SOL     OW63661   9.408  14.673   2.197
53943SOL    HW163662   9.455  14.679   2.114
53943SOL    HW263663   9.453  14.605   2.245
53944SOL     OW63664  12.138  11.409   5.546
53944SOL    HW163665  12.137  11.438   5.637
53944SOL    HW263666  12.207  11.461   5.505
53945SOL     OW63667   8.490   5.142  14.565
53945SOL    HW163668   8.488   5.106  14.654
53945SOL    HW263669   8.558   5.092  14.520
53946SOL     OW63670   4.687   8.447  10.108
53946SOL    HW163671   4.661   8.497  10.030
53946SOL    HW263672   4.729   8.368  10.073
53947SOL     OW63673  12.859   1.053  14.113
53947SOL    HW163674  12.801   1.015  14.047
53947SOL    HW263675  12.847   0.999  14.191
53948SOL     OW63676  12.991  11.173   2.492
53948SOL    HW163677  13.044  11.150   2.568
53948SOL    HW263678  12.967  11.265   2.505
53949SOL     OW63679   4.355  12.421  14.223
53949SOL    HW163680   4.344  12.339  14.271
53949SOL    HW263681   4.436  12.408  14.172
53950SOL     OW63682   1.802   1.818   6.529
53950SOL    HW163683   1.855   1.749   6.568
53950SOL    HW263684   1.862   1.891   6.516
53951SOL     OW63685  14.795   4.808   1.097
53951SOL    HW163686   0.001   4.780   1.131
53951SOL    HW263687  14.732   4.778   1.163
53952SOL     OW63688  10.252   7.344   5.751
53952SOL    HW163689  10.297   7.270   5.710
53952SOL    HW263690  10.168   7.349   5.706
53953SOL     OW63691  10.730   5.804   1.575
53953SOL    HW163692  10.728   5.709   1.590
53953SOL    HW263693  10.646   5.835   1.610
53954SOL     OW63694   8.343   2.424  11.010
53954SOL    HW163695   8.261   2.423  11.059
53954SOL    HW263696   8.407   2.458  11.072
53955SOL     OW63697  13.658   8.343   6.128
53955SOL    HW163698  13.619   8.303   6.050
53955SOL    HW263699  13.584   8.365   6.183
53956SOL     OW63700   5.682   6.405  14.386
53956SOL    HW163701   5.665   6.425  14.293
53956SOL    HW263702   5.774   6.381  14.389
53957SOL     OW63703   6.069   2.741  10.984
53957SOL    HW163704   6.086   2.732  11.077
53957SOL    HW263705   6.039   2.831  10.973
53958SOL     OW63706   3.617   7.788  13.016
53958SOL    HW163707   3.544   7.751  12.968
53958SOL    HW263708   3.684   7.720  13.016
53959SOL     OW63709  12.945   0.547  14.520
53959SOL    HW163710  13.017   0.489  14.544
53959SOL    HW263711  12.867   0.491  14.524
53960SOL     OW63712   7.769  11.160  10.850
53960SOL    HW163713   7.706  11.148  10.920
53960SOL    HW263714   7.719  11.202  10.780
53961SOL     OW63715  13.498  10.324  11.936
53961SOL    HW163716  13.538  10.245  11.897
53961SOL    HW263717  13.414  10.332  11.892
53962SOL     OW63718  14.390   3.539   7.952
53962SOL    HW163719  14.322   3.590   7.995
53962SOL    HW263720  14.454   3.603   7.922
53963SOL     OW63721   9.714   3.107   6.019
53963SOL    HW163722   9.681   3.188   5.979
53963SOL    HW263723   9.809   3.112   6.010
53964SOL     OW63724  14.450  10.090   4.776
53964SOL    HW163725  14.527  10.086   4.832
53964SOL    HW263726  14.408  10.004   4.787
53965SOL     OW63727  10.419  11.270  14.183
53965SOL    HW163728  10.489  11.208  14.202
53965SOL    HW263729  10.358  11.262  14.256
53966SOL     OW63730   4.781   2.791   8.574
53966SOL    HW163731   4.772   2.768   8.666
53966SOL    HW263732   4.834   2.721   8.536
53967SOL     OW63733  11.417  10.505   1.886
53967SOL    HW163734  11.326  10.494   1.860
53967SOL    HW263735  11.413  10.534   1.977
53968SOL     OW63736   8.430   8.002  11.469
53968SOL    HW163737   8.480   7.942  11.524
53968SOL    HW263738   8.355   8.027  11.522
53969SOL     OW63739  10.125  14.749  12.812
53969SOL    HW163740  10.147  14.841  12.794
53969SOL    HW263741  10.188  14.699  12.760
53970SOL     OW63742   3.316  13.194   3.347
53970SOL    HW163743   3.405  13.169   3.370
53970SOL    HW263744   3.261  13.123   3.381
53971SOL     OW63745   1.804   3.157  10.344
53971SOL    HW163746   1.780   3.183  10.433
53971SOL    HW263747   1.731   3.101  10.315
53972SOL     OW63748   0.371   6.993   9.745
53972SOL    HW163749   0.347   6.915   9.694
53972SOL    HW263750   0.412   6.959   9.824
53973SOL     OW63751   6.055   6.308   0.066
53973SOL    HW163752   6.110   6.316  14.867
53973SOL    HW263753   6.053   6.214   0.085
53974SOL     OW63754   4.501   4.388   3.836
53974SOL    HW163755   4.431   4.330   3.866
53974SOL    HW263756   4.581   4.337   3.847
53975SOL     OW63757   1.220  12.332   5.739
53975SOL    HW163758   1.266  12.263   5.785
53975SOL    HW263759   1.127  12.317   5.760
53976SOL     OW63760   2.577  13.707   2.127
53976SOL    HW163761   2.611  13.688   2.039
53976SOL    HW263762   2.482  13.710   2.116
53977SOL     OW63763   4.941  11.597   0.148
53977SOL    HW163764   4.931  11.523   0.208
53977SOL    HW263765   5.036  11.605   0.136
53978SOL     OW63766   9.295   6.030   6.175
53978SOL    HW163767   9.386   6.023   6.146
53978SOL    HW263768   9.243   6.022   6.095
53979SOL     OW63769   6.910   4.962   2.899
53979SOL    HW163770   6.920   5.058   2.898
53979SOL    HW263771   6.910   4.939   2.992
53980SOL     OW63772   1.725  14.810   9.862
53980SOL    HW163773   1.743  14.743   9.796
53980SOL    HW263774   1.747   0.014   9.819
53981SOL     OW63775  12.195   5.078   7.505
53981SOL    HW163776  12.216   5.012   7.572
53981SOL    HW263777  12.175   5.027   7.427
53982SOL     OW63778  12.675   0.146   3.220
53982SOL    HW163779  12.590   0.110   3.246
53982SOL    HW263780  12.697   0.100   3.139
53983SOL     OW63781  10.870   6.249   6.532
53983SOL    HW163782  10.862   6.174   6.591
53983SOL    HW263783  10.924   6.312   6.581
53984SOL     OW63784   0.469   1.706   0.367
53984SOL    HW163785   0.489   1.686   0.459
53984SOL    HW263786   0.537   1.769   0.341
53985SOL     OW63787   4.938   2.935  14.316
53985SOL    HW163788   4.889   2.967  14.240
53985SOL    HW263789   5.004   3.003  14.331
53986SOL     OW63790   0.695   6.830   2.600
53986SOL    HW163791   0.770   6.779   2.631
53986SOL    HW263792   0.652   6.861   2.680
53987SOL     OW63793  12.122   1.527   5.290
53987SOL    HW163794  12.081   1.484   5.215
53987SOL    HW263795  12.050   1.569   5.336
53988SOL     OW63796  14.034  12.655   3.060
53988SOL    HW163797  14.032  12.641   3.155
53988SOL    HW263798  14.128  12.652   3.039
53989SOL     OW63799  11.732  10.487  11.915
53989SOL    HW163800  11.824  10.462  11.920
53989SOL    HW263801  11.710  10.481  11.822
53990SOL     OW63802   2.630   9.053   3.240
53990SOL    HW163803   2.557   9.054   3.179
53990SOL    HW263804   2.621   9.135   3.290
53991SOL     OW63805   3.409   0.500   5.570
53991SOL    HW163806   3.359   0.573   5.533
53991SOL    HW263807   3.444   0.533   5.652
53992SOL     OW63808  14.643  12.735   6.730
53992SOL    HW163809  14.570  12.774   6.682
53992SOL    HW263810  14.621  12.642   6.737
53993SOL     OW63811   2.634  11.734   3.532
53993SOL    HW163812   2.588  11.811   3.565
53993SOL    HW263813   2.578  11.701   3.462
53994SOL     OW63814  12.876   5.864   5.369
53994SOL    HW163815  12.886   5.907   5.285
53994SOL    HW263816  12.874   5.935   5.433
53995SOL     OW63817   8.966  12.788   8.589
53995SOL    HW163818   8.977  12.823   8.501
53995SOL    HW263819   8.986  12.694   8.580
53996SOL     OW63820   1.783  11.054  12.488
53996SOL    HW163821   1.712  11.114  12.506
53996SOL    HW263822   1.862  11.100  12.517
53997SOL     OW63823   1.651   1.950  11.342
53997SOL    HW163824   1.701   1.960  11.260
53997SOL    HW263825   1.715   1.968  11.411
53998SOL     OW63826  11.101   5.296   6.719
53998SOL    HW163827  11.176   5.278   6.662
53998SOL    HW263828  11.118   5.244   6.798
53999SOL     OW63829  12.439   4.833   6.152
53999SOL    HW163830  12.472   4.789   6.230
53999SOL    HW263831  12.517   4.872   6.112
54000SOL     OW63832   8.237   4.501   7.429
54000SOL    HW163833   8.275   4.522   7.344
54000SOL    HW263834   8.255   4.408   7.441
54001SOL     OW63835   1.600   8.547   1.700
54001SOL    HW163836   1.603   8.547   1.604
54001SOL    HW263837   1.692   8.551   1.727
54002SOL     OW63838   3.602   3.740  13.446
54002SOL    HW163839   3.510   3.716  13.456
54002SOL    HW263840   3.606   3.831  13.474
54003SOL     OW63841   0.540   2.697   0.644
54003SOL    HW163842   0.489   2.751   0.704
54003SOL    HW263843   0.506   2.718   0.557
54004SOL     OW63844  11.874   5.583   7.738
54004SOL    HW163845  11.905   5.587   7.647
54004SOL    HW263846  11.779   5.593   7.731
54005SOL     OW63847   3.920  12.761   4.251
54005SOL    HW163848   3.925  12.841   4.197
54005SOL    HW263849   4.001  12.762   4.302
54006SOL     OW63850   2.275   2.430  10.951
54006SOL    HW163851   2.317   2.352  10.988
54006SOL    HW263852   2.194   2.397  10.912
54007SOL     OW63853   5.024   7.101   9.118
54007SOL    HW163854   5.058   7.147   9.041
54007SOL    HW263855   5.072   7.139   9.192
54008SOL     OW63856   1.103   0.677  11.598
54008SOL    HW163857   1.159   0.602  11.618
54008SOL    HW263858   1.017   0.654  11.634
54009SOL     OW63859   2.157   2.574  11.193
54009SOL    HW163860   2.164   2.489  11.151
54009SOL    HW263861   2.225   2.573  11.261
54010SOL     OW63862  10.954   7.613   2.795
54010SOL    HW163863  10.968   7.639   2.704
54010SOL    HW263864  11.042   7.605   2.832
54011SOL     OW63865  12.976   9.726   6.304
54011SOL    HW163866  13.039   9.796   6.320
54011SOL    HW263867  12.945   9.702   6.391
54012SOL     OW63868  12.551   9.426   1.854
54012SOL    HW163869  12.500   9.501   1.886
54012SOL    HW263870  12.499   9.350   1.879
54013SOL     OW63871  11.026  14.196  10.363
54013SOL    HW163872  11.031  14.290  10.350
54013SOL    HW263873  11.062  14.159  10.282
54014SOL     OW63874   0.231  10.909  14.101
54014SOL    HW163875   0.300  10.972  14.124
54014SOL    HW263876   0.172  10.911  14.176
54015SOL     OW63877   8.065   0.930   8.290
54015SOL    HW163878   8.150   0.897   8.318
54015SOL    HW263879   8.055   1.013   8.337
54016SOL     OW63880   8.270  14.298   9.344
54016SOL    HW163881   8.306  14.386   9.350
54016SOL    HW263882   8.344  14.241   9.365
54017SOL     OW63883   1.334   1.081  12.538
54017SOL    HW163884   1.425   1.090  12.565
54017SOL    HW263885   1.290   1.044  12.615
54018SOL     OW63886  13.733   9.971   4.892
54018SOL    HW163887  13.743   9.913   4.816
54018SOL    HW263888  13.819  10.011   4.903
54019SOL     OW63889   8.771  13.688   9.602
54019SOL    HW163890   8.810  13.629   9.538
54019SOL    HW263891   8.805  13.774   9.579
54020SOL     OW63892   6.992   9.233  13.582
54020SOL    HW163893   6.982   9.315  13.533
54020SOL    HW263894   6.905   9.193  13.579
54021SOL     OW63895   2.175  14.414   0.527
54021SOL    HW163896   2.158  14.363   0.448
54021SOL    HW263897   2.256  14.378   0.562
54022SOL     OW63898  12.035   3.950   9.159
54022SOL    HW163899  12.003   4.040   9.157
54022SOL    HW263900  11.958   3.898   9.182
54023SOL     OW63901   4.612   2.955  11.025
54023SOL    HW163902   4.663   2.999  10.958
54023SOL    HW263903   4.549   3.021  11.055
54024SOL     OW63904   0.596   4.617   6.747
54024SOL    HW163905   0.512   4.579   6.722
54024SOL    HW263906   0.661   4.556   6.713
54025SOL     OW63907  10.845  11.404   9.522
54025SOL    HW163908  10.927  11.356   9.522
54025SOL    HW263909  10.799  11.373   9.601
54026SOL     OW63910   6.266  11.520  11.720
54026SOL    HW163911   6.247  11.614  11.721
54026SOL    HW263912   6.259  11.493  11.812
54027SOL     OW63913   7.993   4.850  12.558
54027SOL    HW163914   8.074   4.898  12.539
54027SOL    HW263915   8.022   4.767  12.595
54028SOL     OW63916  14.297   2.401   8.084
54028SOL    HW163917  14.205   2.425   8.093
54028SOL    HW263918  14.295   2.309   8.058
54029SOL     OW63919   9.968   5.333   3.378
54029SOL    HW163920   9.884   5.287   3.386
54029SOL    HW263921  10.032   5.265   3.359
54030SOL     OW63922   2.104   0.835  12.150
54030SOL    HW163923   2.162   0.781  12.204
54030SOL    HW263924   2.025   0.846  12.203
54031SOL     OW63925   1.953   7.453   9.096
54031SOL    HW163926   1.913   7.532   9.133
54031SOL    HW263927   2.017   7.425   9.162
54032SOL     OW63928   4.377  12.057  12.699
54032SOL    HW163929   4.402  12.148  12.683
54032SOL    HW263930   4.324  12.033  12.623
54033SOL     OW63931   3.678   2.811   8.758
54033SOL    HW163932   3.763   2.850   8.777
54033SOL    HW263933   3.643   2.788   8.844
54034SOL     OW63934   2.325  11.555   1.767
54034SOL    HW163935   2.376  11.529   1.690
54034SOL    HW263936   2.347  11.490   1.833
54035SOL     OW63937  13.777   2.130   9.538
54035SOL    HW163938  13.834   2.149   9.612
54035SOL    HW263939  13.720   2.059   9.568
54036SOL     OW63940  14.199   2.350   6.998
54036SOL    HW163941  14.182   2.410   7.071
54036SOL    HW263942  14.286   2.313   7.018
54037SOL     OW63943   9.926  11.756   4.964
54037SOL    HW163944   9.961  11.832   4.918
54037SOL    HW263945  10.002  11.717   5.007
54038SOL     OW63946   9.437  10.634  11.315
54038SOL    HW163947   9.402  10.664  11.399
54038SOL    HW263948   9.411  10.543  11.309
54039SOL     OW63949   1.111   2.642   4.016
54039SOL    HW163950   1.168   2.635   4.093
54039SOL    HW263951   1.101   2.736   4.002
54040SOL     OW63952   5.894   6.824   1.055
54040SOL    HW163953   5.898   6.742   1.006
54040SOL    HW263954   5.865   6.889   0.990
54041SOL     OW63955   2.734   1.200   2.988
54041SOL    HW163956   2.748   1.162   2.901
54041SOL    HW263957   2.738   1.294   2.975
54042SOL     OW63958   1.641   4.624  10.353
54042SOL    HW163959   1.630   4.539  10.397
54042SOL    HW263960   1.712   4.666  10.401
54043SOL     OW63961  12.846  10.178  14.359
54043SOL    HW163962  12.918  10.132  14.402
54043SOL    HW263963  12.809  10.235  14.426
54044SOL     OW63964  10.310   1.166   6.950
54044SOL    HW163965  10.394   1.182   6.908
54044SOL    HW263966  10.277   1.086   6.910
54045SOL     OW63967  10.227   1.290   2.294
54045SOL    HW163968  10.314   1.250   2.296
54045SOL    HW263969  10.234   1.361   2.231
54046SOL     OW63970   3.004  11.228   1.084
54046SOL    HW163971   3.099  11.229   1.079
54046SOL    HW263972   2.977  11.314   1.051
54047SOL     OW63973  13.808  14.487   7.934
54047SOL    HW163974  13.821  14.454   8.023
54047SOL    HW263975  13.717  14.465   7.914
54048SOL     OW63976   4.158  14.780  13.535
54048SOL    HW163977   4.094  14.719  13.572
54048SOL    HW263978   4.158  14.854  13.595
54049SOL     OW63979   4.084   4.103  11.399
54049SOL    HW163980   4.042   4.155  11.330
54049SOL    HW263981   4.110   4.167  11.465
54050SOL     OW63982   5.720  10.851   7.166
54050SOL    HW163983   5.814  10.842   7.148
54050SOL    HW263984   5.681  10.871   7.080
54051SOL     OW63985   5.877   4.353   9.947
54051SOL    HW163986   5.884   4.265   9.911
54051SOL    HW263987   5.795   4.387   9.911
54052SOL     OW63988   9.279   3.729  14.667
54052SOL    HW163989   9.220   3.764  14.600
54052SOL    HW263990   9.344   3.678  14.619
54053SOL     OW63991   1.600   5.822   3.185
54053SOL    HW163992   1.568   5.747   3.235
54053SOL    HW263993   1.526   5.849   3.131
54054SOL     OW63994   5.010   3.922   7.702
54054SOL    HW163995   5.058   3.952   7.780
54054SOL    HW263996   5.026   3.828   7.699
54055SOL     OW63997   5.366  14.850   2.997
54055SOL    HW163998   5.288   0.019   2.969
54055SOL    HW263999   5.433   0.039   3.007
54056SOL     OW64000  11.565  10.892   1.211
54056SOL    HW164001  11.492  10.954   1.208
54056SOL    HW264002  11.577  10.865   1.120
54057SOL     OW64003   7.757   8.961   2.811
54057SOL    HW164004   7.837   8.922   2.847
54057SOL    HW264005   7.687   8.929   2.868
54058SOL     OW64006  11.055   8.412   2.584
54058SOL    HW164007  11.018   8.373   2.663
54058SOL    HW264008  11.083   8.500   2.611
54059SOL     OW64009   3.543   2.755   9.045
54059SOL    HW164010   3.527   2.846   9.019
54059SOL    HW264011   3.457   2.714   9.043
54060SOL     OW64012   2.242  11.882   4.472
54060SOL    HW164013   2.318  11.893   4.415
54060SOL    HW264014   2.168  11.913   4.419
54061SOL     OW64015   1.169   8.968   3.269
54061SOL    HW164016   1.081   8.969   3.229
54061SOL    HW264017   1.219   8.907   3.214
54062SOL     OW64018   6.504   2.812  12.960
54062SOL    HW164019   6.584   2.777  12.920
54062SOL    HW264020   6.476   2.881  12.900
54063SOL     OW64021  12.327   3.224   9.762
54063SOL    HW164022  12.309   3.139   9.722
54063SOL    HW264023  12.243   3.271   9.759
54064SOL     OW64024   6.043  13.735   5.086
54064SOL    HW164025   6.054  13.644   5.056
54064SOL    HW264026   5.978  13.772   5.025
54065SOL     OW64027  14.247   4.915  10.322
54065SOL    HW164028  14.232   4.871  10.239
54065SOL    HW264029  14.181   4.879  10.381
54066SOL     OW64030  14.252   1.676   2.706
54066SOL    HW164031  14.282   1.733   2.777
54066SOL    HW264032  14.248   1.733   2.629
54067SOL     OW64033   8.449  11.533   9.702
54067SOL    HW164034   8.518  11.469   9.716
54067SOL    HW264035   8.369  11.482   9.691
54068SOL     OW64036   0.984   7.450  10.710
54068SOL    HW164037   1.031   7.533  10.722
54068SOL    HW264038   1.041   7.385  10.752
54069SOL     OW64039   5.038  12.601   0.470
54069SOL    HW164040   5.117  12.569   0.512
54069SOL    HW264041   4.967  12.570   0.526
54070SOL     OW64042   5.775   9.274   0.005
54070SOL    HW164043   5.757   9.208   0.071
54070SOL    HW264044   5.793   9.225  14.804
54071SOL     OW64045  11.582   1.791   5.451
54071SOL    HW164046  11.500   1.824   5.487
54071SOL    HW264047  11.573   1.803   5.356
54072SOL     OW64048   5.609   9.660  14.635
54072SOL    HW164049   5.532   9.708  14.663
54072SOL    HW264050   5.682   9.700  14.682
54073SOL     OW64051  13.621   7.565  10.397
54073SOL    HW164052  13.656   7.480  10.426
54073SOL    HW264053  13.527   7.551  10.392
54074SOL     OW64054   3.378  10.217   2.203
54074SOL    HW164055   3.294  10.219   2.157
54074SOL    HW264056   3.439  10.181   2.139
54075SOL     OW64057  11.453   7.948   5.658
54075SOL    HW164058  11.367   7.957   5.698
54075SOL    HW264059  11.485   7.863   5.687
54076SOL     OW64060   1.063  11.742   2.878
54076SOL    HW164061   1.042  11.704   2.793
54076SOL    HW264062   0.990  11.716   2.934
54077SOL     OW64063   0.829   9.851   5.176
54077SOL    HW164064   0.915   9.810   5.171
54077SOL    HW264065   0.834   9.924   5.113
54078SOL     OW64066   6.444   7.019   5.073
54078SOL    HW164067   6.523   7.055   5.113
54078SOL    HW264068   6.375   7.081   5.097
54079SOL     OW64069   7.307   2.692  10.136
54079SOL    HW164070   7.280   2.600  10.144
54079SOL    HW264071   7.261   2.724  10.059
54080SOL     OW64072  12.695   1.607   3.143
54080SOL    HW164073  12.753   1.629   3.216
54080SOL    HW264074  12.743   1.635   3.065
54081SOL     OW64075  10.915   8.725   1.568
54081SOL    HW164076  10.914   8.741   1.474
54081SOL    HW264077  10.940   8.810   1.606
54082SOL     OW64078   4.360   5.342   0.499
54082SOL    HW164079   4.425   5.302   0.441
54082SOL    HW264080   4.277   5.304   0.471
54083SOL     OW64081  11.380  10.314   5.938
54083SOL    HW164082  11.299  10.262   5.933
54083SOL    HW264083  11.383  10.361   5.854
54084SOL     OW64084  11.251  10.984   3.271
54084SOL    HW164085  11.292  11.063   3.305
54084SOL    HW264086  11.278  10.980   3.179
54085SOL     OW64087   0.982   6.266  13.363
54085SOL    HW164088   0.893   6.299  13.348
54085SOL    HW264089   0.999   6.285  13.455
54086SOL     OW64090   7.152   3.725  11.112
54086SOL    HW164091   7.179   3.650  11.165
54086SOL    HW264092   7.064   3.703  11.081
54087SOL     OW64093  14.008  13.717   6.494
54087SOL    HW164094  13.962  13.795   6.526
54087SOL    HW264095  13.953  13.644   6.520
54088SOL     OW64096   0.985   4.259   7.881
54088SOL    HW164097   0.898   4.284   7.850
54088SOL    HW264098   1.003   4.176   7.837
54089SOL     OW64099   5.794   4.102  14.515
54089SOL    HW164100   5.738   4.178  14.531
54089SOL    HW264101   5.745   4.049  14.452
54090SOL     OW64102   8.123   9.927  13.859
54090SOL    HW164103   8.029   9.907  13.857
54090SOL    HW264104   8.127  10.017  13.891
54091SOL     OW64105   5.368   0.695  13.726
54091SOL    HW164106   5.350   0.610  13.765
54091SOL    HW264107   5.286   0.721  13.685
54092SOL     OW64108   5.604  11.496   4.438
54092SOL    HW164109   5.684  11.487   4.489
54092SOL    HW264110   5.549  11.557   4.488
54093SOL     OW64111   1.153  12.796   8.282
54093SOL    HW164112   1.104  12.802   8.200
54093SOL    HW264113   1.238  12.760   8.256
54094SOL     OW64114  13.010   1.254   5.357
54094SOL    HW164115  13.092   1.300   5.376
54094SOL    HW264116  12.942   1.317   5.379
54095SOL     OW64117   9.232   6.967   2.059
54095SOL    HW164118   9.302   6.976   2.123
54095SOL    HW264119   9.181   7.048   2.067
54096SOL     OW64120   6.197   9.537   7.839
54096SOL    HW164121   6.207   9.613   7.782
54096SOL    HW264122   6.120   9.491   7.803
54097SOL     OW64123   5.702   0.679  11.162
54097SOL    HW164124   5.775   0.652  11.218
54097SOL    HW264125   5.724   0.645  11.076
54098SOL     OW64126  13.486   9.261   1.947
54098SOL    HW164127  13.474   9.213   2.029
54098SOL    HW264128  13.581   9.261   1.933
54099SOL     OW64129  10.739   5.904   8.400
54099SOL    HW164130  10.733   5.879   8.492
54099SOL    HW264131  10.827   5.875   8.374
54100SOL     OW64132  10.571   3.057  12.491
54100SOL    HW164133  10.653   3.041  12.445
54100SOL    HW264134  10.575   3.003  12.570
54101SOL     OW64135   1.487   3.862   7.866
54101SOL    HW164136   1.542   3.825   7.797
54101SOL    HW264137   1.545   3.867   7.943
54102SOL     OW64138   9.374   5.050  11.359
54102SOL    HW164139   9.296   5.082  11.313
54102SOL    HW264140   9.417   4.993  11.295
54103SOL     OW64141  14.680   7.922  14.291
54103SOL    HW164142  14.612   7.871  14.334
54103SOL    HW264143  14.633   7.992  14.245
54104SOL     OW64144   0.107   9.867   1.581
54104SOL    HW164145   0.098   9.962   1.586
54104SOL    HW264146   0.166   9.851   1.508
54105SOL     OW64147   3.957   6.957   7.897
54105SOL    HW164148   3.933   6.959   7.805
54105SOL    HW264149   3.997   6.871   7.910
54106SOL     OW64150   7.594   5.963   2.926
54106SOL    HW164151   7.622   5.879   2.890
54106SOL    HW264152   7.499   5.958   2.930
54107SOL     OW64153   3.894   0.491   4.642
54107SOL    HW164154   3.850   0.558   4.590
54107SOL    HW264155   3.919   0.424   4.579
54108SOL     OW64156  11.919   1.207  13.350
54108SOL    HW164157  11.978   1.138  13.320
54108SOL    HW264158  11.937   1.281  13.293
54109SOL     OW64159   1.917   5.105  10.082
54109SOL    HW164160   1.949   5.110   9.992
54109SOL    HW264161   1.873   5.020  10.087
54110SOL     OW64162   4.571  13.094  12.511
54110SOL    HW164163   4.620  13.014  12.529
54110SOL    HW264164   4.547  13.087  12.419
54111SOL     OW64165   1.761  11.508  12.483
54111SOL    HW164166   1.709  11.546  12.554
54111SOL    HW264167   1.706  11.518  12.405
54112SOL     OW64168   7.962   8.448   5.047
54112SOL    HW164169   7.937   8.464   5.138
54112SOL    HW264170   7.879   8.436   5.001
54113SOL     OW64171   0.626   4.831   4.463
54113SOL    HW164172   0.696   4.896   4.451
54113SOL    HW264173   0.641   4.796   4.550
54114SOL     OW64174   4.735   7.545  12.690
54114SOL    HW164175   4.805   7.486  12.717
54114SOL    HW264176   4.654   7.501  12.718
54115SOL     OW64177   0.956  12.616   8.816
54115SOL    HW164178   1.039  12.584   8.780
54115SOL    HW264179   0.931  12.549   8.880
54116SOL     OW64180  14.135   4.989   5.407
54116SOL    HW164181  14.171   4.908   5.443
54116SOL    HW264182  14.052   4.963   5.367
54117SOL     OW64183   7.122   7.791  11.779
54117SOL    HW164184   7.181   7.863  11.755
54117SOL    HW264185   7.169   7.744  11.848
54118SOL     OW64186   2.517  11.999   7.278
54118SOL    HW164187   2.432  11.957   7.289
54118SOL    HW264188   2.570  11.964   7.349
54119SOL     OW64189  12.786   5.578   6.318
54119SOL    HW164190  12.849   5.622   6.261
54119SOL    HW264191  12.813   5.601   6.407
54120SOL     OW64192  11.035   5.866   5.544
54120SOL    HW164193  10.951   5.905   5.519
54120SOL    HW264194  11.027   5.850   5.638
54121SOL     OW64195  10.917   1.850   0.716
54121SOL    HW164196  10.929   1.759   0.743
54121SOL    HW264197  10.927   1.848   0.621
54122SOL     OW64198   0.727   4.155   3.430
54122SOL    HW164199   0.744   4.245   3.458
54122SOL    HW264200   0.722   4.105   3.511
54123SOL     OW64201   2.313   3.144   1.182
54123SOL    HW164202   2.372   3.203   1.134
54123SOL    HW264203   2.228   3.157   1.139
54124SOL     OW64204   1.858  11.310   2.751
54124SOL    HW164205   1.839  11.330   2.842
54124SOL    HW264206   1.836  11.391   2.704
54125SOL     OW64207   8.004   0.304  13.389
54125SOL    HW164208   8.079   0.253  13.359
54125SOL    HW264209   7.992   0.372  13.323
54126SOL     OW64210  14.146   6.134   7.966
54126SOL    HW164211  14.093   6.061   7.999
54126SOL    HW264212  14.225   6.132   8.020
54127SOL     OW64213   0.168   2.210  13.546
54127SOL    HW164214   0.112   2.174  13.477
54127SOL    HW264215   0.107   2.247  13.610
54128SOL     OW64216   0.033   3.356   1.239
54128SOL    HW164217   0.061   3.265   1.228
54128SOL    HW264218  14.855   3.374   1.164
54129SOL     OW64219   0.516  13.074  11.352
54129SOL    HW164220   0.550  12.994  11.391
54129SOL    HW264221   0.452  13.106  11.416
54130SOL     OW64222  14.709   5.093   7.680
54130SOL    HW164223  14.691   5.011   7.726
54130SOL    HW264224  14.680   5.161   7.741
54131SOL     OW64225   9.916   3.835  11.377
54131SOL    HW164226   9.962   3.917  11.360
54131SOL    HW264227   9.904   3.834  11.472
54132SOL     OW64228   5.342  10.168  12.010
54132SOL    HW164229   5.305  10.219  11.937
54132SOL    HW264230   5.302  10.205  12.088
54133SOL     OW64231  11.192  13.112   5.147
54133SOL    HW164232  11.277  13.149   5.172
54133SOL    HW264233  11.130  13.149   5.210
54134SOL     OW64234   7.893   3.912   9.369
54134SOL    HW164235   7.837   3.917   9.291
54134SOL    HW264236   7.945   3.833   9.356
54135SOL     OW64237   8.180   0.549   5.365
54135SOL    HW164238   8.120   0.535   5.438
54135SOL    HW264239   8.212   0.638   5.377
54136SOL     OW64240  14.343   5.501   3.195
54136SOL    HW164241  14.309   5.539   3.114
54136SOL    HW264242  14.408   5.438   3.166
54137SOL     OW64243   1.925   8.139   2.466
54137SOL    HW164244   1.868   8.087   2.522
54137SOL    HW264245   1.944   8.217   2.517
54138SOL     OW64246  11.705   8.655  12.555
54138SOL    HW164247  11.664   8.670  12.640
54138SOL    HW264248  11.631   8.646  12.495
54139SOL     OW64249   3.387  13.054   0.213
54139SOL    HW164250   3.313  13.088   0.163
54139SOL    HW264251   3.382  12.959   0.202
54140SOL     OW64252   7.404   5.040   7.671
54140SOL    HW164253   7.486   5.010   7.632
54140SOL    HW264254   7.425   5.055   7.763
54141SOL     OW64255   3.353   4.127   6.310
54141SOL    HW164256   3.276   4.070   6.302
54141SOL    HW264257   3.427   4.071   6.287
54142SOL     OW64258   7.636   9.120  11.750
54142SOL    HW164259   7.549   9.090  11.776
54142SOL    HW264260   7.663   9.060  11.681
54143SOL     OW64261  12.258  12.496  11.947
54143SOL    HW164262  12.278  12.404  11.931
54143SOL    HW264263  12.198  12.495  12.022
54144SOL     OW64264   7.667   9.798   9.025
54144SOL    HW164265   7.578   9.822   9.050
54144SOL    HW264266   7.657   9.751   8.942
54145SOL     OW64267  14.490  13.363   5.967
54145SOL    HW164268  14.528  13.281   5.935
54145SOL    HW264269  14.541  13.385   6.044
54146SOL     OW64270   8.634  13.202   4.891
54146SOL    HW164271   8.656  13.155   4.811
54146SOL    HW264272   8.617  13.134   4.955
54147SOL     OW64273  13.522  12.085  10.234
54147SOL    HW164274  13.437  12.073  10.191
54147SOL    HW264275  13.559  12.163  10.193
54148SOL     OW64276   4.171   4.094  12.160
54148SOL    HW164277   4.248   4.078  12.105
54148SOL    HW264278   4.183   4.037  12.236
54149SOL     OW64279   8.484   4.460  13.617
54149SOL    HW164280   8.560   4.444  13.674
54149SOL    HW264281   8.522   4.480  13.531
54150SOL     OW64282  12.855  10.819   1.253
54150SOL    HW164283  12.832  10.902   1.294
54150SOL    HW264284  12.774  10.767   1.254
54151SOL     OW64285  14.703   7.638  10.654
54151SOL    HW164286  14.722   7.697  10.727
54151SOL    HW264287  14.627   7.677  10.610
54152SOL     OW64288  10.903   5.536   2.296
54152SOL    HW164289  10.979   5.576   2.338
54152SOL    HW264290  10.843   5.609   2.280
54153SOL     OW64291  11.481   0.451   6.264
54153SOL    HW164292  11.530   0.378   6.226
54153SOL    HW264293  11.399   0.453   6.215
54154SOL     OW64294   3.979   1.597   1.556
54154SOL    HW164295   3.939   1.574   1.640
54154SOL    HW264296   4.059   1.645   1.581
54155SOL     OW64297  11.390   3.303   3.158
54155SOL    HW164298  11.323   3.288   3.091
54155SOL    HW264299  11.426   3.389   3.136
54156SOL     OW64300   7.390   9.943  14.385
54156SOL    HW164301   7.430   9.856  14.380
54156SOL    HW264302   7.362   9.952  14.476
54157SOL     OW64303  14.211  12.890   9.443
54157SOL    HW164304  14.256  12.970   9.471
54157SOL    HW264305  14.120  12.904   9.468
54158SOL     OW64306   1.504   1.413   9.108
54158SOL    HW164307   1.518   1.343   9.171
54158SOL    HW264308   1.556   1.486   9.142
54159SOL     OW64309   7.436   9.213   5.079
54159SOL    HW164310   7.357   9.166   5.106
54159SOL    HW264311   7.489   9.147   5.036
54160SOL     OW64312  14.412   7.168   7.470
54160SOL    HW164313  14.506   7.187   7.469
54160SOL    HW264314  14.400   7.107   7.396
54161SOL     OW64315  12.505  11.251   0.537
54161SOL    HW164316  12.472  11.331   0.577
54161SOL    HW264317  12.579  11.225   0.592
54162SOL     OW64318   9.981   7.698  10.119
54162SOL    HW164319   9.974   7.792  10.103
54162SOL    HW264320   9.915   7.659  10.062
54163SOL     OW64321  10.943   8.911   9.594
54163SOL    HW164322  11.012   8.977   9.603
54163SOL    HW264323  10.957   8.851   9.667
54164SOL     OW64324  12.208   9.616  10.602
54164SOL    HW164325  12.284   9.674  10.596
54164SOL    HW264326  12.137   9.672  10.633
54165SOL     OW64327   1.173   6.572  12.791
54165SOL    HW164328   1.221   6.495  12.759
54165SOL    HW264329   1.083   6.555  12.766
54166SOL     OW64330   5.633  11.644   9.132
54166SOL    HW164331   5.667  11.614   9.217
54166SOL    HW264332   5.705  11.632   9.071
54167SOL     OW64333   9.283   5.876  14.699
54167SOL    HW164334   9.238   5.895  14.616
54167SOL    HW264335   9.373   5.905  14.684
54168SOL     OW64336   2.921   5.150   5.582
54168SOL    HW164337   2.847   5.167   5.525
54168SOL    HW264338   2.998   5.163   5.527
54169SOL     OW64339   8.919  14.691  10.274
54169SOL    HW164340   8.832  14.713  10.241
54169SOL    HW264341   8.922  14.729  10.361
54170SOL     OW64342   1.308   3.901   9.556
54170SOL    HW164343   1.317   3.996   9.552
54170SOL    HW264344   1.214   3.885   9.546
54171SOL     OW64345   2.361   3.254  11.909
54171SOL    HW164346   2.415   3.178  11.886
54171SOL    HW264347   2.307   3.270  11.832
54172SOL     OW64348   5.238  10.801   9.222
54172SOL    HW164349   5.270  10.714   9.246
54172SOL    HW264350   5.291  10.827   9.147
54173SOL     OW64351   6.777   5.593   0.113
54173SOL    HW164352   6.766   5.591   0.208
54173SOL    HW264353   6.699   5.549   0.079
54174SOL     OW64354  12.774   3.178   3.406
54174SOL    HW164355  12.827   3.250   3.439
54174SOL    HW264356  12.833   3.127   3.351
54175SOL     OW64357   3.799  11.848   1.818
54175SOL    HW164358   3.883  11.862   1.863
54175SOL    HW264359   3.764  11.768   1.856
54176SOL     OW64360  13.749   2.468   5.128
54176SOL    HW164361  13.784   2.383   5.102
54176SOL    HW264362  13.663   2.472   5.088
54177SOL     OW64363   6.792   8.252   1.784
54177SOL    HW164364   6.783   8.317   1.715
54177SOL    HW264365   6.790   8.302   1.866
54178SOL     OW64366   4.190  13.395  14.660
54178SOL    HW164367   4.215  13.357  14.745
54178SOL    HW264368   4.166  13.319  14.607
54179SOL     OW64369   0.239   0.046   9.461
54179SOL    HW164370   0.274   0.121   9.509
54179SOL    HW264371   0.316  14.874   9.436
54180SOL     OW64372  13.612   8.937  14.831
54180SOL    HW164373  13.562   8.857  14.846
54180SOL    HW264374  13.673   8.941   0.025
54181SOL     OW64375  13.172   6.491   5.112
54181SOL    HW164376  13.092   6.484   5.164
54181SOL    HW264377  13.242   6.502   5.177
54182SOL     OW64378   8.457   2.443   6.137
54182SOL    HW164379   8.406   2.396   6.203
54182SOL    HW264380   8.471   2.378   6.068
54183SOL     OW64381   0.246   2.761  10.778
54183SOL    HW164382   0.156   2.792  10.785
54183SOL    HW264383   0.241   2.669  10.804
54184SOL     OW64384   2.473   5.840   1.377
54184SOL    HW164385   2.462   5.933   1.394
54184SOL    HW264386   2.550   5.835   1.320
54185SOL     OW64387   7.124  10.930   5.173
54185SOL    HW164388   7.149  10.848   5.129
54185SOL    HW264389   7.201  10.955   5.223
54186SOL     OW64390   8.928   4.070  14.075
54186SOL    HW164391   8.864   4.000  14.087
54186SOL    HW264392   8.970   4.080  14.161
54187SOL     OW64393   1.007   3.467  11.542
54187SOL    HW164394   0.983   3.462  11.635
54187SOL    HW264395   0.928   3.498  11.499
54188SOL     OW64396   1.855   0.694  11.627
54188SOL    HW164397   1.903   0.769  11.662
54188SOL    HW264398   1.763   0.712  11.647
54189SOL     OW64399   5.169   5.637   4.366
54189SOL    HW164400   5.095   5.583   4.391
54189SOL    HW264401   5.237   5.616   4.430
54190SOL     OW64402   4.995   7.367   7.496
54190SOL    HW164403   4.904   7.370   7.524
54190SOL    HW264404   5.001   7.430   7.424
54191SOL     OW64405  14.423   4.645   4.708
54191SOL    HW164406  14.392   4.721   4.658
54191SOL    HW264407  14.434   4.678   4.797
54192SOL     OW64408   4.275  12.009   3.622
54192SOL    HW164409   4.253  11.923   3.585
54192SOL    HW264410   4.368  12.020   3.601
54193SOL     OW64411   6.749   1.740   5.998
54193SOL    HW164412   6.839   1.765   5.976
54193SOL    HW264413   6.697   1.819   5.980
54194SOL     OW64414  11.737   5.848   9.382
54194SOL    HW164415  11.702   5.910   9.318
54194SOL    HW264416  11.701   5.877   9.466
54195SOL     OW64417   9.184  10.661   9.633
54195SOL    HW164418   9.131  10.709   9.570
54195SOL    HW264419   9.204  10.578   9.590
54196SOL     OW64420   0.906   8.614  14.723
54196SOL    HW164421   0.993   8.633  14.758
54196SOL    HW264422   0.918   8.538  14.667
54197SOL     OW64423   9.322   0.331  10.095
54197SOL    HW164424   9.363   0.299  10.014
54197SOL    HW264425   9.228   0.320  10.081
54198SOL     OW64426   6.598   4.664  14.002
54198SOL    HW164427   6.526   4.727  13.999
54198SOL    HW264428   6.581   4.604  13.929
54199SOL     OW64429   5.618   4.351  10.352
54199SOL    HW164430   5.566   4.396  10.418
54199SOL    HW264431   5.613   4.259  10.376
54200SOL     OW64432   7.582   1.907  14.190
54200SOL    HW164433   7.558   2.000  14.186
54200SOL    HW264434   7.525   1.870  14.258
54201SOL     OW64435  12.996   4.476   6.499
54201SOL    HW164436  12.995   4.564   6.537
54201SOL    HW264437  13.023   4.489   6.408
54202SOL     OW64438  10.095   0.050   4.514
54202SOL    HW164439  10.092  14.833   4.518
54202SOL    HW264440  10.024   0.073   4.454
54203SOL     OW64441  13.573   7.031   6.013
54203SOL    HW164442  13.478   7.034   6.000
54203SOL    HW264443  13.601   7.122   6.007
54204SOL     OW64444   2.184  12.576   8.818
54204SOL    HW164445   2.196  12.508   8.751
54204SOL    HW264446   2.274  12.602   8.841
54205SOL     OW64447   2.631  14.483   2.246
54205SOL    HW164448   2.559  14.425   2.222
54205SOL    HW264449   2.656  14.455   2.335
54206SOL     OW64450   9.795   8.149   2.792
54206SOL    HW164451   9.742   8.091   2.736
54206SOL    HW264452   9.757   8.138   2.879
54207SOL     OW64453   9.632   7.644   4.883
54207SOL    HW164454   9.624   7.660   4.789
54207SOL    HW264455   9.584   7.715   4.924
54208SOL     OW64456   4.418   1.608  12.842
54208SOL    HW164457   4.381   1.694  12.821
54208SOL    HW264458   4.432   1.566  12.757
54209SOL     OW64459  11.267  12.923   6.221
54209SOL    HW164460  11.330  12.942   6.151
54209SOL    HW264461  11.276  12.829   6.237
54210SOL     OW64462   2.783  10.478   6.930
54210SOL    HW164463   2.760  10.570   6.919
54210SOL    HW264464   2.699  10.434   6.945
54211SOL     OW64465  10.407   8.351   1.301
54211SOL    HW164466  10.392   8.440   1.269
54211SOL    HW264467  10.468   8.362   1.374
54212SOL     OW64468   8.075  11.519   7.622
54212SOL    HW164469   8.155  11.552   7.663
54212SOL    HW264470   8.050  11.443   7.675
54213SOL     OW64471  11.127   7.096   1.280
54213SOL    HW164472  11.169   7.148   1.210
54213SOL    HW264473  11.057   7.048   1.235
54214SOL     OW64474   8.304   1.382  12.215
54214SOL    HW164475   8.332   1.306  12.266
54214SOL    HW264476   8.209   1.386  12.226
54215SOL     OW64477   1.829  11.023   5.800
54215SOL    HW164478   1.911  11.062   5.770
54215SOL    HW264479   1.834  11.026   5.896
54216SOL     OW64480   2.020  12.089   9.853
54216SOL    HW164481   2.075  12.162   9.881
54216SOL    HW264482   1.951  12.130   9.801
54217SOL     OW64483  10.146   8.703  11.534
54217SOL    HW164484  10.051   8.688  11.535
54217SOL    HW264485  10.159   8.770  11.467
54218SOL     OW64486   1.845   1.367   7.913
54218SOL    HW164487   1.926   1.413   7.894
54218SOL    HW264488   1.798   1.366   7.830
54219SOL     OW64489   1.364   4.899  13.535
54219SOL    HW164490   1.361   4.970  13.599
54219SOL    HW264491   1.281   4.852  13.546
54220SOL     OW64492   0.375   9.247   9.409
54220SOL    HW164493   0.375   9.341   9.425
54220SOL    HW264494   0.421   9.237   9.325
54221SOL     OW64495  13.425   2.922  11.573
54221SOL    HW164496  13.427   2.881  11.660
54221SOL    HW264497  13.516   2.922  11.544
54222SOL     OW64498  12.873   2.382  11.957
54222SOL    HW164499  12.783   2.400  11.931
54222SOL    HW264500  12.912   2.469  11.968
54223SOL     OW64501  12.681  13.155   3.409
54223SOL    HW164502  12.615  13.092   3.383
54223SOL    HW264503  12.634  13.238   3.416
54224SOL     OW64504  14.834  11.114   4.587
54224SOL    HW164505  14.776  11.186   4.612
54224SOL    HW264506   0.028  11.157   4.541
54225SOL     OW64507  10.385  11.400   9.870
54225SOL    HW164508  10.365  11.415   9.778
54225SOL    HW264509  10.330  11.326   9.895
54226SOL     OW64510  12.931  10.729   0.900
54226SOL    HW164511  12.996  10.681   0.849
54226SOL    HW264512  12.874  10.661   0.936
54227SOL     OW64513   7.924   6.150   1.919
54227SOL    HW164514   7.972   6.224   1.882
54227SOL    HW264515   7.992   6.086   1.940
54228SOL     OW64516   0.772   6.974   6.814
54228SOL    HW164517   0.781   6.879   6.817
54228SOL    HW264518   0.793   7.003   6.903
54229SOL     OW64519   9.070   8.080   8.834
54229SOL    HW164520   9.048   8.007   8.892
54229SOL    HW264521   9.103   8.038   8.754
54230SOL     OW64522   1.271   3.346   1.838
54230SOL    HW164523   1.329   3.290   1.889
54230SOL    HW264524   1.300   3.334   1.747
54231SOL     OW64525   3.958   4.802   2.707
54231SOL    HW164526   3.903   4.726   2.722
54231SOL    HW264527   3.898   4.877   2.712
54232SOL     OW64528   9.479   1.679   1.015
54232SOL    HW164529   9.417   1.733   0.966
54232SOL    HW264530   9.451   1.687   1.106
54233SOL     OW64531   8.338   3.930   5.891
54233SOL    HW164532   8.319   3.965   5.804
54233SOL    HW264533   8.359   4.007   5.944
54234SOL     OW64534   4.818   5.464   3.326
54234SOL    HW164535   4.849   5.388   3.275
54234SOL    HW264536   4.890   5.483   3.386
54235SOL     OW64537  14.859  10.811   7.900
54235SOL    HW164538  14.806  10.850   7.830
54235SOL    HW264539   0.067  10.851   7.889
54236SOL     OW64540   7.834  12.516   6.151
54236SOL    HW164541   7.800  12.467   6.077
54236SOL    HW264542   7.899  12.576   6.114
54237SOL     OW64543   8.727   6.263   4.956
54237SOL    HW164544   8.729   6.351   4.918
54237SOL    HW264545   8.790   6.213   4.905
54238SOL     OW64546   9.124   2.559   3.464
54238SOL    HW164547   9.147   2.643   3.425
54238SOL    HW264548   9.030   2.552   3.453
54239SOL     OW64549  11.331  12.772  11.923
54239SOL    HW164550  11.309  12.825  12.000
54239SOL    HW264551  11.286  12.814  11.850
54240SOL     OW64552   6.023   0.181   0.931
54240SOL    HW164553   6.058   0.269   0.945
54240SOL    HW264554   5.938   0.195   0.890
54241SOL     OW64555   7.137  14.351  13.464
54241SOL    HW164556   7.126  14.258  13.443
54241SOL    HW264557   7.061  14.373  13.517
54242SOL     OW64558   9.126   5.024  11.915
54242SOL    HW164559   9.141   4.929  11.919
54242SOL    HW264560   9.053   5.033  11.854
54243SOL     OW64561  14.397  11.089   6.762
54243SOL    HW164562  14.451  11.067   6.686
54243SOL    HW264563  14.445  11.158   6.807
54244SOL     OW64564   2.562  14.216  13.301
54244SOL    HW164565   2.641  14.256  13.336
54244SOL    HW264566   2.526  14.281  13.241
54245SOL     OW64567  14.432   5.223   3.446
54245SOL    HW164568  14.385   5.222   3.363
54245SOL    HW264569  14.522   5.196   3.424
54246SOL     OW64570   4.522   9.514   7.227
54246SOL    HW164571   4.526   9.535   7.134
54246SOL    HW264572   4.432   9.536   7.253
54247SOL     OW64573  10.197   9.727   5.694
54247SOL    HW164574  10.242   9.790   5.749
54247SOL    HW264575  10.105   9.732   5.720
54248SOL     OW64576   0.710   3.520   9.972
54248SOL    HW164577   0.682   3.429   9.958
54248SOL    HW264578   0.631   3.572   9.961
54249SOL     OW64579  14.202   6.315   8.598
54249SOL    HW164580  14.180   6.323   8.505
54249SOL    HW264581  14.292   6.347   8.605
54250SOL     OW64582   8.374   5.315   7.653
54250SOL    HW164583   8.452   5.360   7.621
54250SOL    HW264584   8.372   5.333   7.747
54251SOL     OW64585  13.662   5.459  11.580
54251SOL    HW164586  13.625   5.406  11.651
54251SOL    HW264587  13.596   5.456  11.511
54252SOL     OW64588   3.165  12.306  11.499
54252SOL    HW164589   3.251  12.348  11.501
54252SOL    HW264590   3.109  12.366  11.451
54253SOL     OW64591   1.317   9.397   0.321
54253SOL    HW164592   1.279   9.386   0.408
54253SOL    HW264593   1.407   9.365   0.329
54254SOL     OW64594  13.447   7.128   7.672
54254SOL    HW164595  13.413   7.194   7.612
54254SOL    HW264596  13.527   7.167   7.707
54255SOL     OW64597  13.658  14.242   0.767
54255SOL    HW164598  13.610  14.253   0.849
54255SOL    HW264599  13.622  14.310   0.709
54256SOL     OW64600   1.959   7.578   8.055
54256SOL    HW164601   1.987   7.549   7.969
54256SOL    HW264602   1.866   7.556   8.059
54257SOL     OW64603   1.535   7.427   5.043
54257SOL    HW164604   1.447   7.424   5.080
54257SOL    HW264605   1.547   7.342   5.002
54258SOL     OW64606   1.487   5.265   3.603
54258SOL    HW164607   1.414   5.266   3.541
54258SOL    HW264608   1.474   5.186   3.655
54259SOL     OW64609   0.614   0.113   7.566
54259SOL    HW164610   0.620   0.049   7.638
54259SOL    HW264611   0.604   0.060   7.487
54260SOL     OW64612  11.244   2.214  11.972
54260SOL    HW164613  11.228   2.151  11.902
54260SOL    HW264614  11.324   2.259  11.945
54261SOL     OW64615   7.274   1.593  14.783
54261SOL    HW164616   7.333   1.656  14.743
54261SOL    HW264617   7.241   1.541  14.710
54262SOL     OW64618  14.478   3.278  13.907
54262SOL    HW164619  14.522   3.328  13.976
54262SOL    HW264620  14.426   3.213  13.953
54263SOL     OW64621   4.159   0.283   0.715
54263SOL    HW164622   4.225   0.222   0.746
54263SOL    HW264623   4.173   0.287   0.620
54264SOL     OW64624   1.631   6.606   8.091
54264SOL    HW164625   1.565   6.644   8.032
54264SOL    HW264626   1.669   6.682   8.136
54265SOL     OW64627  13.327   0.862   5.250
54265SOL    HW164628  13.312   0.796   5.183
54265SOL    HW264629  13.257   0.926   5.236
54266SOL     OW64630   8.031   2.366  13.142
54266SOL    HW164631   8.036   2.292  13.202
54266SOL    HW264632   7.946   2.356  13.099
54267SOL     OW64633   3.581   7.149  11.803
54267SOL    HW164634   3.670   7.154  11.769
54267SOL    HW264635   3.527   7.131  11.726
54268SOL     OW64636   8.519   2.017  11.835
54268SOL    HW164637   8.534   1.924  11.820
54268SOL    HW264638   8.429   2.022  11.868
54269SOL     OW64639   8.171   6.321   5.859
54269SOL    HW164640   8.229   6.262   5.907
54269SOL    HW264641   8.202   6.316   5.768
54270SOL     OW64642   2.766   5.093   7.206
54270SOL    HW164643   2.787   5.161   7.270
54270SOL    HW264644   2.851   5.066   7.171
54271SOL     OW64645   8.994   2.707   5.088
54271SOL    HW164646   9.048   2.631   5.109
54271SOL    HW264647   8.908   2.685   5.123
54272SOL     OW64648   3.159   5.186   9.752
54272SOL    HW164649   3.160   5.111   9.812
54272SOL    HW264650   3.072   5.183   9.713
54273SOL     OW64651   5.468   6.029  13.643
54273SOL    HW164652   5.543   6.000  13.694
54273SOL    HW264653   5.425   5.948  13.615
54274SOL     OW64654   8.463  14.065   8.720
54274SOL    HW164655   8.403  14.139   8.722
54274SOL    HW264656   8.438  14.016   8.642
54275SOL     OW64657   0.291   3.463   7.090
54275SOL    HW164658   0.333   3.426   7.168
54275SOL    HW264659   0.252   3.545   7.121
54276SOL     OW64660   1.245   7.736   5.159
54276SOL    HW164661   1.295   7.679   5.217
54276SOL    HW264662   1.167   7.761   5.210
54277SOL     OW64663  10.550   7.780   5.150
54277SOL    HW164664  10.529   7.697   5.193
54277SOL    HW264665  10.557   7.757   5.057
54278SOL     OW64666   0.482   2.795  11.096
54278SOL    HW164667   0.540   2.786  11.020
54278SOL    HW264668   0.534   2.845  11.160
54279SOL     OW64669  10.987  14.379  14.035
54279SOL    HW164670  11.064  14.362  13.981
54279SOL    HW264671  10.984  14.306  14.097
54280SOL     OW64672   1.014   6.912   7.231
54280SOL    HW164673   1.062   6.835   7.262
54280SOL    HW264674   0.933   6.876   7.193
54281SOL     OW64675   6.784  10.580   8.650
54281SOL    HW164676   6.838  10.626   8.713
54281SOL    HW264677   6.755  10.501   8.697
54282SOL     OW64678   3.431   4.769   9.174
54282SOL    HW164679   3.519   4.732   9.181
54282SOL    HW264680   3.373   4.693   9.173
54283SOL     OW64681   6.789   7.161   2.670
54283SOL    HW164682   6.879   7.191   2.680
54283SOL    HW264683   6.779   7.091   2.735
54284SOL     OW64684  12.514   9.567  13.679
54284SOL    HW164685  12.455   9.641  13.666
54284SOL    HW264686  12.520   9.557  13.774
54285SOL     OW64687  11.130   8.808  10.734
54285SOL    HW164688  11.172   8.772  10.812
54285SOL    HW264689  11.191   8.874  10.702
54286SOL     OW64690   4.879  11.041   4.459
54286SOL    HW164691   4.807  11.031   4.521
54286SOL    HW264692   4.839  11.029   4.373
54287SOL     OW64693   1.315  14.363   0.459
54287SOL    HW164694   1.383  14.425   0.434
54287SOL    HW264695   1.268  14.344   0.378
54288SOL     OW64696   4.498  10.093  12.036
54288SOL    HW164697   4.476  10.040  12.113
54288SOL    HW264698   4.564  10.154  12.068
54289SOL     OW64699  11.684   6.481  13.253
54289SOL    HW164700  11.686   6.402  13.199
54289SOL    HW264701  11.594   6.485  13.287
54290SOL     OW64702  13.939   4.574   0.240
54290SOL    HW164703  13.844   4.581   0.232
54290SOL    HW264704  13.971   4.569   0.150
54291SOL     OW64705   8.208   9.895   3.772
54291SOL    HW164706   8.128   9.939   3.802
54291SOL    HW264707   8.269   9.902   3.845
54292SOL     OW64708   5.129   6.763   2.471
54292SOL    HW164709   5.102   6.851   2.445
54292SOL    HW264710   5.122   6.711   2.392
54293SOL     OW64711   2.701   7.529  13.713
54293SOL    HW164712   2.610   7.504  13.697
54293SOL    HW264713   2.714   7.607  13.659
54294SOL     OW64714   5.070   4.961   7.948
54294SOL    HW164715   5.037   5.011   8.023
54294SOL    HW264716   5.151   4.920   7.980
54295SOL     OW64717   1.331   7.264  11.831
54295SOL    HW164718   1.392   7.249  11.904
54295SOL    HW264719   1.342   7.187  11.775
54296SOL     OW64720  12.017  10.715  11.737
54296SOL    HW164721  12.015  10.695  11.831
54296SOL    HW264722  12.087  10.659  11.702
54297SOL     OW64723  11.490  11.959   7.135
54297SOL    HW164724  11.412  11.905   7.148
54297SOL    HW264725  11.489  11.981   7.042
54298SOL     OW64726  12.752  12.582  13.522
54298SOL    HW164727  12.818  12.648  13.500
54298SOL    HW264728  12.696  12.578  13.444
54299SOL     OW64729  10.035   2.016  11.265
54299SOL    HW164730   9.967   2.045  11.326
54299SOL    HW264731  10.022   1.922  11.258
54300SOL     OW64732   3.212  11.189   9.925
54300SOL    HW164733   3.193  11.095   9.930
54300SOL    HW264734   3.232  11.215  10.015
54301SOL     OW64735   1.704   1.239  11.440
54301SOL    HW164736   1.785   1.199  11.471
54301SOL    HW264737   1.701   1.218  11.346
54302SOL     OW64738   7.967   3.458   2.466
54302SOL    HW164739   8.028   3.482   2.397
54302SOL    HW264740   7.937   3.541   2.502
54303SOL     OW64741   6.556   3.400   4.096
54303SOL    HW164742   6.641   3.366   4.123
54303SOL    HW264743   6.544   3.478   4.150
54304SOL     OW64744   5.222  14.397   4.266
54304SOL    HW164745   5.312  14.422   4.285
54304SOL    HW264746   5.201  14.332   4.332
54305SOL     OW64747  14.364  10.918  13.238
54305SOL    HW164748  14.288  10.865  13.212
54305SOL    HW264749  14.326  11.004  13.260
54306SOL     OW64750   9.531  13.725   5.856
54306SOL    HW164751   9.588  13.650   5.841
54306SOL    HW264752   9.445  13.697   5.826
54307SOL     OW64753   2.431   4.185   4.346
54307SOL    HW164754   2.374   4.228   4.283
54307SOL    HW264755   2.424   4.239   4.425
54308SOL     OW64756  14.795   9.084  12.438
54308SOL    HW164757  14.715   9.111  12.483
54308SOL    HW264758  14.827   9.010  12.489
54309SOL     OW64759   5.963   1.721   7.122
54309SOL    HW164760   5.978   1.627   7.134
54309SOL    HW264761   5.948   1.753   7.211
54310SOL     OW64762  14.031  11.602  10.551
54310SOL    HW164763  13.986  11.673  10.506
54310SOL    HW264764  14.075  11.644  10.625
54311SOL     OW64765  12.007   3.613  12.175
54311SOL    HW164766  12.029   3.697  12.134
54311SOL    HW264767  11.970   3.638  12.260
54312SOL     OW64768  14.010   7.003  13.347
54312SOL    HW164769  14.041   6.964  13.429
54312SOL    HW264770  13.915   6.990  13.348
54313SOL     OW64771   1.221  13.341  13.075
54313SOL    HW164772   1.295  13.365  13.130
54313SOL    HW264773   1.144  13.363  13.128
54314SOL     OW64774   1.351  12.146   0.611
54314SOL    HW164775   1.349  12.121   0.518
54314SOL    HW264776   1.355  12.063   0.658
54315SOL     OW64777  14.174  13.955   6.239
54315SOL    HW164778  14.079  13.961   6.251
54315SOL    HW264779  14.204  13.904   6.315
54316SOL     OW64780   7.897   8.328   7.408
54316SOL    HW164781   7.826   8.329   7.471
54316SOL    HW264782   7.855   8.308   7.324
54317SOL     OW64783  13.831  14.453  13.368
54317SOL    HW164784  13.902  14.408  13.416
54317SOL    HW264785  13.866  14.466  13.280
54318SOL     OW64786   0.142   4.187  13.035
54318SOL    HW164787   0.196   4.264  13.053
54318SOL    HW264788   0.169   4.123  13.101
54319SOL     OW64789  12.037   4.299   7.995
54319SOL    HW164790  11.962   4.253   8.033
54319SOL    HW264791  12.101   4.304   8.066
54320SOL     OW64792   3.845   8.861   0.881
54320SOL    HW164793   3.904   8.936   0.877
54320SOL    HW264794   3.758   8.900   0.895
54321SOL     OW64795  10.416   4.086   5.560
54321SOL    HW164796  10.465   4.087   5.641
54321SOL    HW264797  10.482   4.076   5.491
54322SOL     OW64798  11.864   4.219   2.201
54322SOL    HW164799  11.880   4.218   2.296
54322SOL    HW264800  11.945   4.185   2.163
54323SOL     OW64801   8.145   5.758   5.283
54323SOL    HW164802   8.052   5.736   5.279
54323SOL    HW264803   8.152   5.838   5.231
54324SOL     OW64804   6.010  13.166   9.598
54324SOL    HW164805   5.970  13.105   9.538
54324SOL    HW264806   6.052  13.232   9.542
54325SOL     OW64807  14.390   1.356   9.552
54325SOL    HW164808  14.389   1.411   9.630
54325SOL    HW264809  14.315   1.297   9.562
54326SOL     OW64810  10.691   0.216  11.996
54326SOL    HW164811  10.701   0.223  11.901
54326SOL    HW264812  10.596   0.214  12.010
54327SOL     OW64813  14.708  12.277   3.689
54327SOL    HW164814  14.731  12.223   3.765
54327SOL    HW264815  14.618  12.251   3.668
54328SOL     OW64816   5.692   8.191  14.645
54328SOL    HW164817   5.752   8.202  14.571
54328SOL    HW264818   5.704   8.271  14.697
54329SOL     OW64819  10.357  11.898   9.165
54329SOL    HW164820  10.267  11.931   9.168
54329SOL    HW264821  10.348  11.803   9.156
54330SOL     OW64822   5.276   7.347   3.348
54330SOL    HW164823   5.270   7.256   3.318
54330SOL    HW264824   5.279   7.398   3.267
54331SOL     OW64825  10.275   5.211   7.800
54331SOL    HW164826  10.319   5.146   7.855
54331SOL    HW264827  10.238   5.274   7.861
54332SOL     OW64828   2.098   7.031   7.108
54332SOL    HW164829   2.109   6.962   7.174
54332SOL    HW264830   2.138   7.108   7.147
54333SOL     OW64831   0.383   1.209  10.342
54333SOL    HW164832   0.400   1.129  10.391
54333SOL    HW264833   0.458   1.265  10.362
54334SOL     OW64834   4.289   5.852   8.038
54334SOL    HW164835   4.301   5.865   7.944
54334SOL    HW264836   4.228   5.920   8.064
54335SOL     OW64837   0.572   5.413   8.035
54335SOL    HW164838   0.551   5.428   8.127
54335SOL    HW264839   0.666   5.428   8.030
54336SOL     OW64840   6.657  12.811  13.961
54336SOL    HW164841   6.727  12.819  13.897
54336SOL    HW264842   6.632  12.902  13.980
54337SOL     OW64843   1.384  14.037  12.804
54337SOL    HW164844   1.478  14.025  12.823
54337SOL    HW264845   1.348  13.948  12.808
54338SOL     OW64846   7.549  12.496   9.143
54338SOL    HW164847   7.498  12.428   9.187
54338SOL    HW264848   7.488  12.568   9.129
54339SOL     OW64849   2.545   7.573   4.243
54339SOL    HW164850   2.594   7.632   4.301
54339SOL    HW264851   2.458   7.612   4.238
54340SOL     OW64852   8.350   7.861   9.897
54340SOL    HW164853   8.299   7.895   9.970
54340SOL    HW264854   8.290   7.862   9.823
54341SOL     OW64855  10.724  12.553  13.713
54341SOL    HW164856  10.672  12.616  13.763
54341SOL    HW264857  10.722  12.586  13.623
54342SOL     OW64858  10.365   3.544  13.853
54342SOL    HW164859  10.285   3.575  13.810
54342SOL    HW264860  10.423   3.621  13.853
54343SOL     OW64861  10.751   4.110   7.496
54343SOL    HW164862  10.689   4.077   7.431
54343SOL    HW264863  10.787   4.032   7.538
54344SOL     OW64864  12.261  11.727   6.909
54344SOL    HW164865  12.348  11.694   6.890
54344SOL    HW264866  12.247  11.708   7.002
54345SOL     OW64867  14.667   0.876   8.433
54345SOL    HW164868  14.592   0.898   8.489
54345SOL    HW264869  14.638   0.800   8.383
54346SOL     OW64870   0.953   2.254   3.649
54346SOL    HW164871   0.893   2.317   3.689
54346SOL    HW264872   1.036   2.301   3.642
54347SOL     OW64873   1.917  13.511  14.210
54347SOL    HW164874   1.848  13.445  14.225
54347SOL    HW264875   1.879  13.571  14.145
54348SOL     OW64876   4.343   6.360   7.068
54348SOL    HW164877   4.420   6.303   7.066
54348SOL    HW264878   4.372   6.437   7.118
54349SOL     OW64879   4.801   0.472   7.217
54349SOL    HW164880   4.750   0.436   7.144
54349SOL    HW264881   4.827   0.559   7.187
54350SOL     OW64882  12.417  10.094   3.929
54350SOL    HW164883  12.446  10.041   4.003
54350SOL    HW264884  12.392  10.031   3.862
54351SOL     OW64885  13.504   5.769   2.139
54351SOL    HW164886  13.526   5.799   2.227
54351SOL    HW264887  13.564   5.816   2.082
54352SOL     OW64888  10.060   1.420   0.123
54352SOL    HW164889  10.050   1.327   0.139
54352SOL    HW264890  10.055   1.460   0.210
54353SOL     OW64891  10.666   7.304   7.716
54353SOL    HW164892  10.745   7.359   7.711
54353SOL    HW264893  10.699   7.214   7.713
54354SOL     OW64894   9.294   6.814  13.417
54354SOL    HW164895   9.328   6.864  13.343
54354SOL    HW264896   9.315   6.867  13.494
54355SOL     OW64897   0.123  11.406   3.645
54355SOL    HW164898   0.104  11.328   3.698
54355SOL    HW264899   0.075  11.477   3.689
54356SOL     OW64900  12.429  14.745  10.503
54356SOL    HW164901  12.365  14.814  10.487
54356SOL    HW264902  12.473  14.733  10.419
54357SOL     OW64903   3.724   2.763   0.564
54357SOL    HW164904   3.798   2.704   0.549
54357SOL    HW264905   3.651   2.722   0.517
54358SOL     OW64906  12.529   3.758   7.593
54358SOL    HW164907  12.602   3.721   7.642
54358SOL    HW264908  12.452   3.713   7.628
54359SOL     OW64909   5.331   9.080   1.282
54359SOL    HW164910   5.301   9.027   1.209
54359SOL    HW264911   5.252   9.100   1.332
54360SOL     OW64912   2.796  13.747  13.619
54360SOL    HW164913   2.769  13.657  13.603
54360SOL    HW264914   2.716  13.791  13.648
54361SOL     OW64915   5.463   2.499   6.142
54361SOL    HW164916   5.501   2.566   6.199
54361SOL    HW264917   5.488   2.525   6.054
54362SOL     OW64918  13.576   9.417   2.806
54362SOL    HW164919  13.666   9.448   2.796
54362SOL    HW264920  13.535   9.481   2.865
54363SOL     OW64921   0.471  10.994  13.403
54363SOL    HW164922   0.549  10.949  13.370
54363SOL    HW264923   0.404  10.978  13.336
54364SOL     OW64924   7.738   1.513  12.200
54364SOL    HW164925   7.748   1.516  12.295
54364SOL    HW264926   7.737   1.604  12.172
54365SOL     OW64927  11.619   2.021   4.249
54365SOL    HW164928  11.531   1.995   4.279
54365SOL    HW264929  11.635   1.965   4.173
54366SOL     OW64930   9.912  10.035   9.599
54366SOL    HW164931   9.944  10.124   9.585
54366SOL    HW264932   9.989   9.987   9.631
54367SOL     OW64933   2.466  11.184  13.812
54367SOL    HW164934   2.556  11.180  13.844
54367SOL    HW264935   2.428  11.100  13.837
54368SOL     OW64936   2.811   7.770   8.307
54368SOL    HW164937   2.851   7.805   8.228
54368SOL    HW264938   2.882   7.771   8.372
54369SOL     OW64939   9.974  14.191  13.178
54369SOL    HW164940  10.015  14.265  13.223
54369SOL    HW264941  10.009  14.113  13.221
54370SOL     OW64942   9.497   4.623   3.035
54370SOL    HW164943   9.544   4.651   3.114
54370SOL    HW264944   9.405   4.643   3.053
54371SOL     OW64945  14.241   7.215   9.957
54371SOL    HW164946  14.322   7.218   9.905
54371SOL    HW264947  14.173   7.244   9.897
54372SOL     OW64948  11.298   4.041   7.534
54372SOL    HW164949  11.368   4.103   7.513
54372SOL    HW264950  11.340   3.955   7.524
54373SOL     OW64951   9.209   4.870   7.124
54373SOL    HW164952   9.271   4.907   7.187
54373SOL    HW264953   9.245   4.785   7.101
54374SOL     OW64954   7.916  10.093   6.021
54374SOL    HW164955   7.956  10.092   6.108
54374SOL    HW264956   7.988  10.075   5.961
54375SOL     OW64957   3.450  13.922   4.570
54375SOL    HW164958   3.524  13.863   4.556
54375SOL    HW264959   3.394  13.909   4.493
54376SOL     OW64960  11.767   8.940  11.709
54376SOL    HW164961  11.741   8.982  11.627
54376SOL    HW264962  11.861   8.925  11.699
54377SOL     OW64963   6.813   6.212   8.113
54377SOL    HW164964   6.871   6.286   8.131
54377SOL    HW264965   6.866   6.135   8.133
54378SOL     OW64966  10.642   2.706   7.581
54378SOL    HW164967  10.609   2.639   7.522
54378SOL    HW264968  10.735   2.685   7.593
54379SOL     OW64969   5.234   3.551  10.387
54379SOL    HW164970   5.238   3.489  10.315
54379SOL    HW264971   5.266   3.633  10.350
54380SOL     OW64972  13.461   0.046   3.014
54380SOL    HW164973  13.436   0.027   2.924
54380SOL    HW264974  13.455  14.840   3.059
54381SOL     OW64975   7.360   9.897  10.513
54381SOL    HW164976   7.439   9.901  10.459
54381SOL    HW264977   7.390   9.858  10.595
54382SOL     OW64978  11.283  11.891  12.323
54382SOL    HW164979  11.269  11.798  12.304
54382SOL    HW264980  11.338  11.891  12.401
54383SOL     OW64981   3.854  14.721   5.289
54383SOL    HW164982   3.933  14.771   5.272
54383SOL    HW264983   3.814  14.765   5.364
54384SOL     OW64984   9.238   9.859   9.970
54384SOL    HW164985   9.295   9.856   9.893
54384SOL    HW264986   9.218   9.767   9.987
54385SOL     OW64987   3.665   4.065   4.465
54385SOL    HW164988   3.677   4.125   4.539
54385SOL    HW264989   3.580   4.024   4.481
54386SOL     OW64990   5.685   0.998   6.623
54386SOL    HW164991   5.636   0.970   6.546
54386SOL    HW264992   5.623   1.053   6.672
54387SOL     OW64993   2.731   9.288  14.327
54387SOL    HW164994   2.755   9.369  14.372
54387SOL    HW264995   2.720   9.223  14.396
54388SOL     OW64996   8.922  10.846   6.440
54388SOL    HW164997   9.004  10.894   6.424
54388SOL    HW264998   8.941  10.756   6.413
54389SOL     OW64999   1.615   7.425   2.269
54389SOL    HW165000   1.538   7.480   2.285
54389SOL    HW265001   1.689   7.484   2.282
54390SOL     OW65002   9.165  13.881   9.036
54390SOL    HW165003   9.247  13.887   9.085
54390SOL    HW265004   9.189  13.899   8.946
54391SOL     OW65005  13.262   1.544   7.407
54391SOL    HW165006  13.176   1.582   7.425
54391SOL    HW265007  13.245   1.475   7.343
54392SOL     OW65008  13.780   8.805   6.560
54392SOL    HW165009  13.741   8.869   6.500
54392SOL    HW265010  13.707   8.778   6.616
54393SOL     OW65011   6.591   0.461  12.098
54393SOL    HW165012   6.589   0.555  12.080
54393SOL    HW265013   6.627   0.454  12.187
54394SOL     OW65014   9.480  11.493   4.712
54394SOL    HW165015   9.437  11.464   4.632
54394SOL    HW265016   9.561  11.535   4.682
54395SOL     OW65017   0.436   1.766  13.200
54395SOL    HW165018   0.445   1.702  13.129
54395SOL    HW265019   0.392   1.719  13.270
54396SOL     OW65020   8.336   6.117   1.349
54396SOL    HW165021   8.274   6.123   1.422
54396SOL    HW265022   8.282   6.130   1.271
54397SOL     OW65023   6.968   0.018  13.235
54397SOL    HW165024   6.932   0.100  13.199
54397SOL    HW265025   6.904  14.830  13.210
54398SOL     OW65026  10.460   3.194   3.512
54398SOL    HW165027  10.455   3.160   3.422
54398SOL    HW265028  10.520   3.134   3.557
54399SOL     OW65029  12.111   4.730   9.324
54399SOL    HW165030  12.018   4.726   9.348
54399SOL    HW265031  12.157   4.688   9.397
54400SOL     OW65032   5.676   8.820   5.544
54400SOL    HW165033   5.603   8.866   5.502
54400SOL    HW265034   5.709   8.760   5.477
54401SOL     OW65035  11.347   6.054   2.383
54401SOL    HW165036  11.361   6.142   2.348
54401SOL    HW265037  11.365   5.996   2.308
54402SOL     OW65038  10.622   1.280   4.105
54402SOL    HW165039  10.616   1.309   4.196
54402SOL    HW265040  10.531   1.273   4.075
54403SOL     OW65041  11.051   3.678   0.929
54403SOL    HW165042  11.081   3.587   0.936
54403SOL    HW265043  11.058   3.713   1.017
54404SOL     OW65044   7.507   2.773  14.736
54404SOL    HW165045   7.588   2.781  14.785
54404SOL    HW265046   7.499   2.857  14.690
54405SOL     OW65047  10.227   4.943  14.599
54405SOL    HW165048  10.133   4.956  14.596
54405SOL    HW265049  10.255   4.952  14.508
54406SOL     OW65050  10.061  12.402  12.589
54406SOL    HW165051  10.079  12.308  12.597
54406SOL    HW265052   9.966  12.407  12.576
54407SOL     OW65053   5.822  12.576  11.417
54407SOL    HW165054   5.873  12.496  11.412
54407SOL    HW265055   5.738  12.555  11.378
54408SOL     OW65056   8.334  14.234   4.715
54408SOL    HW165057   8.422  14.242   4.752
54408SOL    HW265058   8.322  14.315   4.665
54409SOL     OW65059   3.219  13.747   3.388
54409SOL    HW165060   3.255  13.668   3.429
54409SOL    HW265061   3.143  13.769   3.441
54410SOL     OW65062   7.300   0.498  11.469
54410SOL    HW165063   7.294   0.593  11.480
54410SOL    HW265064   7.393   0.481  11.456
54411SOL     OW65065   8.565  12.745   6.989
54411SOL    HW165066   8.558  12.677   6.922
54411SOL    HW265067   8.475  12.767   7.011
54412SOL     OW65068  10.740  11.499   5.387
54412SOL    HW165069  10.733  11.565   5.319
54412SOL    HW265070  10.656  11.454   5.386
54413SOL     OW65071   4.856   8.525   4.992
54413SOL    HW165072   4.805   8.574   5.056
54413SOL    HW265073   4.937   8.575   4.981
54414SOL     OW65074   8.372   4.434   3.015
54414SOL    HW165075   8.433   4.394   3.077
54414SOL    HW265076   8.326   4.500   3.067
54415SOL     OW65077   0.578  13.676  10.210
54415SOL    HW165078   0.613  13.595  10.170
54415SOL    HW265079   0.514  13.707  10.146
54416SOL     OW65080   6.714   7.521   7.760
54416SOL    HW165081   6.738   7.607   7.725
54416SOL    HW265082   6.703   7.536   7.854
54417SOL     OW65083   6.716   2.317  12.966
54417SOL    HW165084   6.641   2.348  12.914
54417SOL    HW265085   6.747   2.240  12.918
54418SOL     OW65086  12.061  12.664   6.532
54418SOL    HW165087  12.065  12.646   6.439
54418SOL    HW265088  11.981  12.715   6.544
54419SOL     OW65089  11.764   9.600   4.288
54419SOL    HW165090  11.713   9.526   4.323
54419SOL    HW265091  11.847   9.561   4.261
54420SOL     OW65092   1.421   4.598  13.662
54420SOL    HW165093   1.458   4.683  13.636
54420SOL    HW265094   1.494   4.537  13.653
54421SOL     OW65095   1.222   1.222   7.953
54421SOL    HW165096   1.245   1.289   7.889
54421SOL    HW265097   1.228   1.139   7.906
54422SOL     OW65098   9.681  13.193   2.992
54422SOL    HW165099   9.757  13.163   3.041
54422SOL    HW265100   9.608  13.187   3.054
54423SOL     OW65101   7.710   1.067   6.803
54423SOL    HW165102   7.772   1.004   6.840
54423SOL    HW265103   7.627   1.021   6.802
54424SOL     OW65104   3.608   1.254  13.665
54424SOL    HW165105   3.583   1.340  13.631
54424SOL    HW265106   3.700   1.243  13.639
54425SOL     OW65107   9.414  10.110   6.916
54425SOL    HW165108   9.489  10.107   6.975
54425SOL    HW265109   9.452  10.121   6.829
54426SOL     OW65110   8.818   5.264   2.240
54426SOL    HW165111   8.784   5.204   2.174
54426SOL    HW265112   8.760   5.253   2.315
54427SOL     OW65113   3.972  10.930  10.167
54427SOL    HW165114   3.963  11.001  10.230
54427SOL    HW265115   3.886  10.925  10.125
54428SOL     OW65116   1.132   5.300  13.118
54428SOL    HW165117   1.071   5.246  13.169
54428SOL    HW265118   1.189   5.339  13.183
54429SOL     OW65119  11.285   0.480  12.506
54429SOL    HW165120  11.258   0.522  12.588
54429SOL    HW265121  11.206   0.434  12.476
54430SOL     OW65122   4.407   4.651   7.902
54430SOL    HW165123   4.386   4.723   7.962
54430SOL    HW265124   4.503   4.646   7.904
54431SOL     OW65125   9.181   9.744  12.075
54431SOL    HW165126   9.252   9.807  12.092
54431SOL    HW265127   9.146   9.769  11.990
54432SOL     OW65128   7.699  14.754   5.076
54432SOL    HW165129   7.732  14.665   5.071
54432SOL    HW265130   7.680  14.768   5.169
54433SOL     OW65131  11.543   1.867   0.715
54433SOL    HW165132  11.601   1.791   0.712
54433SOL    HW265133  11.463   1.834   0.754
54434SOL     OW65134   7.930   8.744   2.026
54434SOL    HW165135   7.988   8.814   2.055
54434SOL    HW265136   7.976   8.703   1.953
54435SOL     OW65137   0.386  11.723   4.328
54435SOL    HW165138   0.311  11.773   4.360
54435SOL    HW265139   0.461  11.781   4.341
54436SOL     OW65140  14.090   9.739  10.332
54436SOL    HW165141  14.112   9.832  10.333
54436SOL    HW265142  14.008   9.733  10.379
54437SOL     OW65143   0.282  14.161   7.948
54437SOL    HW165144   0.214  14.191   8.009
54437SOL    HW265145   0.280  14.065   7.957
54438SOL     OW65146  12.192  12.388   7.147
54438SOL    HW165147  12.247  12.314   7.122
54438SOL    HW265148  12.234  12.464   7.107
54439SOL     OW65149   1.811   0.886  14.572
54439SOL    HW165150   1.776   0.974  14.569
54439SOL    HW265151   1.742   0.830  14.536
54440SOL     OW65152  10.637  14.187  11.854
54440SOL    HW165153  10.646  14.099  11.818
54440SOL    HW265154  10.595  14.238  11.785
54441SOL     OW65155   9.077  11.617   9.616
54441SOL    HW165156   9.025  11.657   9.685
54441SOL    HW265157   9.139  11.560   9.661
54442SOL     OW65158   2.233   4.820   9.842
54442SOL    HW165159   2.311   4.776   9.874
54442SOL    HW265160   2.233   4.905   9.886
54443SOL     OW65161   8.802   9.134   3.272
54443SOL    HW165162   8.869   9.147   3.339
54443SOL    HW265163   8.730   9.192   3.298
54444SOL     OW65164   8.208   6.766   6.809
54444SOL    HW165165   8.160   6.848   6.798
54444SOL    HW265166   8.140   6.701   6.825
54445SOL     OW65167  11.465   1.379   3.922
54445SOL    HW165168  11.496   1.289   3.935
54445SOL    HW265169  11.494   1.425   4.001
54446SOL     OW65170  10.224   6.676   9.036
54446SOL    HW165171  10.220   6.602   9.097
54446SOL    HW265172  10.292   6.733   9.073
54447SOL     OW65173  13.091   8.095  13.210
54447SOL    HW165174  13.021   8.105  13.274
54447SOL    HW265175  13.051   8.045  13.138
54448SOL     OW65176   7.741   4.160   1.803
54448SOL    HW165177   7.804   4.213   1.850
54448SOL    HW265178   7.794   4.094   1.758
54449SOL     OW65179  12.090   5.753   8.691
54449SOL    HW165180  12.132   5.831   8.727
54449SOL    HW265181  11.998   5.761   8.718
54450SOL     OW65182   3.984  13.395   1.099
54450SOL    HW165183   3.928  13.331   1.144
54450SOL    HW265184   3.969  13.378   1.006
54451SOL     OW65185  14.530  11.233  11.525
54451SOL    HW165186  14.454  11.268  11.571
54451SOL    HW265187  14.493  11.181  11.454
54452SOL     OW65188   9.766  11.894  14.069
54452SOL    HW165189   9.755  11.976  14.118
54452SOL    HW265190   9.699  11.897  14.001
54453SOL     OW65191  13.956  14.117   1.193
54453SOL    HW165192  13.884  14.103   1.132
54453SOL    HW265193  13.935  14.199   1.237
54454SOL     OW65194  13.037  11.762  12.362
54454SOL    HW165195  13.106  11.696  12.370
54454SOL    HW265196  13.057  11.826  12.431
54455SOL     OW65197   3.710   9.557   7.259
54455SOL    HW165198   3.628   9.607   7.265
54455SOL    HW265199   3.762   9.586   7.334
54456SOL     OW65200   4.387   2.828   1.277
54456SOL    HW165201   4.446   2.787   1.214
54456SOL    HW265202   4.423   2.805   1.363
54457SOL     OW65203   5.374  13.220   0.265
54457SOL    HW165204   5.440  13.275   0.307
54457SOL    HW265205   5.333  13.171   0.336
54458SOL     OW65206   4.923   7.450   8.868
54458SOL    HW165207   4.960   7.476   8.952
54458SOL    HW265208   4.997   7.453   8.808
54459SOL     OW65209  10.000  10.177  14.704
54459SOL    HW165210  10.059  10.207  14.774
54459SOL    HW265211   9.988  10.254  14.648
54460SOL     OW65212   2.936   7.678   3.534
54460SOL    HW165213   2.946   7.589   3.499
54460SOL    HW265214   2.862   7.672   3.595
54461SOL     OW65215  11.366   2.217   2.142
54461SOL    HW165216  11.374   2.130   2.103
54461SOL    HW265217  11.408   2.209   2.228
54462SOL     OW65218   1.182  12.331   9.907
54462SOL    HW165219   1.087  12.339   9.900
54462SOL    HW265220   1.197  12.237   9.919
54463SOL     OW65221   6.832   2.424  13.878
54463SOL    HW165222   6.793   2.337  13.868
54463SOL    HW265223   6.843   2.456  13.789
54464SOL     OW65224  14.663   9.518   7.796
54464SOL    HW165225  14.653   9.552   7.707
54464SOL    HW265226  14.662   9.423   7.786
54465SOL     OW65227   5.945   2.062   1.952
54465SOL    HW165228   5.965   2.068   1.859
54465SOL    HW265229   6.020   2.102   1.996
54466SOL     OW65230   4.577   5.575   5.795
54466SOL    HW165231   4.545   5.572   5.705
54466SOL    HW265232   4.517   5.519   5.844
54467SOL     OW65233   3.031   5.851   6.355
54467SOL    HW165234   3.013   5.919   6.420
54467SOL    HW265235   2.947   5.808   6.341
54468SOL     OW65236   8.384   6.142   4.499
54468SOL    HW165237   8.357   6.060   4.458
54468SOL    HW265238   8.373   6.208   4.430
54469SOL     OW65239  11.334   5.632   2.233
54469SOL    HW165240  11.246   5.598   2.220
54469SOL    HW265241  11.352   5.617   2.326
54470SOL     OW65242   3.808   0.221  11.696
54470SOL    HW165243   3.806   0.313  11.670
54470SOL    HW265244   3.831   0.174  11.616
54471SOL     OW65245  14.146   5.526   5.206
54471SOL    HW165246  14.149   5.521   5.302
54471SOL    HW265247  14.053   5.522   5.185
54472SOL     OW65248   9.303   7.710   5.689
54472SOL    HW165249   9.237   7.743   5.749
54472SOL    HW265250   9.353   7.787   5.662
54473SOL     OW65251  12.290   1.193  13.040
54473SOL    HW165252  12.258   1.135  12.971
54473SOL    HW265253  12.210   1.222  13.085
54474SOL     OW65254  14.549   5.594   6.973
54474SOL    HW165255  14.476   5.579   6.912
54474SOL    HW265256  14.507   5.597   7.059
54475SOL     OW65257   4.522  13.975   6.258
54475SOL    HW165258   4.438  13.938   6.286
54475SOL    HW265259   4.563  14.004   6.340
54476SOL     OW65260   9.607   6.474   1.211
54476SOL    HW165261   9.522   6.494   1.251
54476SOL    HW265262   9.596   6.494   1.118
54477SOL     OW65263   0.006  14.316   3.602
54477SOL    HW165264  14.867  14.243   3.661
54477SOL    HW265265   0.079  14.363   3.643
54478SOL     OW65266   2.787  13.199  10.679
54478SOL    HW165267   2.695  13.205  10.703
54478SOL    HW265268   2.795  13.248  10.598
54479SOL     OW65269   6.630  13.981   5.383
54479SOL    HW165270   6.651  13.949   5.295
54479SOL    HW265271   6.535  13.992   5.382
54480SOL     OW65272   9.671   4.887  10.453
54480SOL    HW165273   9.585   4.925  10.470
54480SOL    HW265274   9.663   4.847  10.366
54481SOL     OW65275   1.793  10.092   7.296
54481SOL    HW165276   1.815  10.026   7.362
54481SOL    HW265277   1.833  10.173   7.330
54482SOL     OW65278  11.944  11.238   1.857
54482SOL    HW165279  11.997  11.239   1.777
54482SOL    HW265280  11.882  11.167   1.843
54483SOL     OW65281   3.121   2.250   1.745
54483SOL    HW165282   3.038   2.271   1.788
54483SOL    HW265283   3.143   2.163   1.779
54484SOL     OW65284  10.635   9.215   7.581
54484SOL    HW165285  10.678   9.277   7.522
54484SOL    HW265286  10.705   9.158   7.613
54485SOL     OW65287   5.154   6.088   3.912
54485SOL    HW165288   5.166   6.120   4.001
54485SOL    HW265289   5.120   5.999   3.923
54486SOL     OW65290   7.193  12.285   1.379
54486SOL    HW165291   7.189  12.313   1.288
54486SOL    HW265292   7.275  12.322   1.412
54487SOL     OW65293   9.991  14.003   1.053
54487SOL    HW165294  10.070  13.984   1.002
54487SOL    HW265295   9.929  14.039   0.989
54488SOL     OW65296   7.858   3.843   4.299
54488SOL    HW165297   7.947   3.872   4.278
54488SOL    HW265298   7.850   3.758   4.256
54489SOL     OW65299  13.548  13.049   1.339
54489SOL    HW165300  13.513  13.030   1.252
54489SOL    HW265301  13.473  13.078   1.390
54490SOL     OW65302   4.390   5.359  12.126
54490SOL    HW165303   4.405   5.292  12.060
54490SOL    HW265304   4.461   5.422  12.114
54491SOL     OW65305  14.007   9.058   5.798
54491SOL    HW165306  14.081   9.057   5.859
54491SOL    HW265307  13.998   8.967   5.770
54492SOL     OW65308   8.458   5.671  11.064
54492SOL    HW165309   8.397   5.743  11.075
54492SOL    HW265310   8.404   5.597  11.036
54493SOL     OW65311  14.032  11.249   8.333
54493SOL    HW165312  13.937  11.263   8.322
54493SOL    HW265313  14.038  11.167   8.381
54494SOL     OW65314   6.625   4.345  12.443
54494SOL    HW165315   6.625   4.283  12.370
54494SOL    HW265316   6.634   4.431  12.402
54495SOL     OW65317   3.515   3.366   3.559
54495SOL    HW165318   3.497   3.442   3.613
54495SOL    HW265319   3.597   3.386   3.515
54496SOL     OW65320   3.692   8.447   8.711
54496SOL    HW165321   3.771   8.395   8.726
54496SOL    HW265322   3.713   8.533   8.746
54497SOL     OW65323  14.581  12.728  14.266
54497SOL    HW165324  14.639  12.671  14.215
54497SOL    HW265325  14.546  12.671  14.334
54498SOL     OW65326   0.969  13.977  10.128
54498SOL    HW165327   0.882  14.015  10.117
54498SOL    HW265328   0.991  13.943  10.041
54499SOL     OW65329   6.545   4.032   0.861
54499SOL    HW165330   6.526   4.066   0.773
54499SOL    HW265331   6.535   4.108   0.918
54500SOL     OW65332  11.188  11.971  12.625
54500SOL    HW165333  11.105  11.982  12.672
54500SOL    HW265334  11.173  12.013  12.541
54501SOL     OW65335   8.084  13.125   1.869
54501SOL    HW165336   8.023  13.192   1.898
54501SOL    HW265337   8.142  13.112   1.943
54502SOL     OW65338   1.698   9.217   4.519
54502SOL    HW165339   1.671   9.300   4.559
54502SOL    HW265340   1.650   9.213   4.437
54503SOL     OW65341   5.186   2.048   0.437
54503SOL    HW165342   5.207   2.050   0.531
54503SOL    HW265343   5.103   2.094   0.430
54504SOL     OW65344   5.043  10.894   8.896
54504SOL    HW165345   5.134  10.870   8.880
54504SOL    HW265346   5.038  10.986   8.870
54505SOL     OW65347   2.844   6.694   3.747
54505SOL    HW165348   2.807   6.782   3.733
54505SOL    HW265349   2.903   6.681   3.672
54506SOL     OW65350  10.837  12.810   4.907
54506SOL    HW165351  10.907  12.783   4.847
54506SOL    HW265352  10.758  12.809   4.854
54507SOL     OW65353   9.926   1.434  14.367
54507SOL    HW165354   9.929   1.501  14.298
54507SOL    HW265355  10.002   1.379  14.351
54508SOL     OW65356   3.110   5.505   9.035
54508SOL    HW165357   3.025   5.491   8.993
54508SOL    HW265358   3.142   5.588   8.998
54509SOL     OW65359   9.934   3.665   5.836
54509SOL    HW165360   9.942   3.637   5.745
54509SOL    HW265361  10.013   3.632   5.879
54510SOL     OW65362  14.310   2.841   8.945
54510SOL    HW165363  14.225   2.877   8.972
54510SOL    HW265364  14.357   2.917   8.910
54511SOL     OW65365   2.405   3.085  13.556
54511SOL    HW165366   2.474   3.049  13.612
54511SOL    HW265367   2.394   3.175  13.586
54512SOL     OW65368   5.431   0.542   8.524
54512SOL    HW165369   5.438   0.550   8.429
54512SOL    HW265370   5.441   0.449   8.542
54513SOL     OW65371   0.456   9.712   0.816
54513SOL    HW165372   0.528   9.662   0.854
54513SOL    HW265373   0.378   9.660   0.836
54514SOL     OW65374   0.723  14.003   7.777
54514SOL    HW165375   0.652  14.063   7.799
54514SOL    HW265376   0.687  13.916   7.794
54515SOL     OW65377  10.201   1.108  10.546
54515SOL    HW165378  10.146   1.165  10.599
54515SOL    HW265379  10.153   1.025  10.542
54516SOL     OW65380  13.167  10.227   9.072
54516SOL    HW165381  13.106  10.283   9.023
54516SOL    HW265382  13.181  10.273   9.154
54517SOL     OW65383   3.970  12.243   6.560
54517SOL    HW165384   3.998  12.241   6.469
54517SOL    HW265385   3.894  12.185   6.563
54518SOL     OW65386   4.474   2.694   8.107
54518SOL    HW165387   4.485   2.608   8.066
54518SOL    HW265388   4.550   2.702   8.165
54519SOL     OW65389  14.467   8.241  11.216
54519SOL    HW165390  14.482   8.193  11.134
54519SOL    HW265391  14.476   8.174  11.285
54520SOL     OW65392  12.404  10.210   2.197
54520SOL    HW165393  12.360  10.250   2.272
54520SOL    HW265394  12.354  10.130   2.179
54521SOL     OW65395   4.484   5.248  14.598
54521SOL    HW165396   4.532   5.309  14.653
54521SOL    HW265397   4.532   5.166  14.606
54522SOL     OW65398  13.112   6.331   8.098
54522SOL    HW165399  13.123   6.247   8.142
54522SOL    HW265400  13.084   6.308   8.009
54523SOL     OW65401   8.292  13.601   9.573
54523SOL    HW165402   8.372  13.568   9.616
54523SOL    HW265403   8.222  13.582   9.636
54524SOL     OW65404   2.116  13.750   1.382
54524SOL    HW165405   2.113  13.659   1.354
54524SOL    HW265406   2.136  13.799   1.303
54525SOL     OW65407  13.505   6.101   2.254
54525SOL    HW165408  13.572   6.165   2.230
54525SOL    HW265409  13.431   6.121   2.197
54526SOL     OW65410   3.357   8.692  11.356
54526SOL    HW165411   3.346   8.691  11.261
54526SOL    HW265412   3.404   8.773  11.374
54527SOL     OW65413  11.917   4.891   8.026
54527SOL    HW165414  11.904   4.830   8.099
54527SOL    HW265415  11.947   4.836   7.954
54528SOL     OW65416   6.105   0.532  13.178
54528SOL    HW165417   6.046   0.595  13.137
54528SOL    HW265418   6.082   0.448  13.138
54529SOL     OW65419  10.731  12.073   0.513
54529SOL    HW165420  10.729  12.164   0.542
54529SOL    HW265421  10.813  12.038   0.549
54530SOL     OW65422   8.314  10.332   4.001
54530SOL    HW165423   8.390  10.283   4.034
54530SOL    HW265424   8.245  10.315   4.065
54531SOL     OW65425   1.988  10.703  12.450
54531SOL    HW165426   2.011  10.625  12.501
54531SOL    HW265427   1.893  10.713  12.462
54532SOL     OW65428   2.526  12.367   2.640
54532SOL    HW165429   2.447  12.410   2.671
54532SOL    HW265430   2.518  12.277   2.671
54533SOL     OW65431   9.374   7.874   6.081
54533SOL    HW165432   9.417   7.810   6.138
54533SOL    HW265433   9.368   7.830   5.996
54534SOL     OW65434   5.032   5.435   3.483
54534SOL    HW165435   5.127   5.448   3.481
54534SOL    HW265436   5.021   5.342   3.502
54535SOL     OW65437   3.310   7.711   8.110
54535SOL    HW165438   3.247   7.642   8.129
54535SOL    HW265439   3.284   7.744   8.024
54536SOL     OW65440   0.685  10.423  12.313
54536SOL    HW165441   0.750  10.483  12.348
54536SOL    HW265442   0.735  10.355  12.270
54537SOL     OW65443   9.654   5.279   1.729
54537SOL    HW165444   9.596   5.338   1.778
54537SOL    HW265445   9.613   5.272   1.643
54538SOL     OW65446   8.045  12.719   9.321
54538SOL    HW165447   8.105  12.745   9.251
54538SOL    HW265448   7.994  12.648   9.284
54539SOL     OW65449   6.736   4.470   5.735
54539SOL    HW165450   6.800   4.535   5.763
54539SOL    HW265451   6.763   4.390   5.781
54540SOL     OW65452  13.855   2.726   0.168
54540SOL    HW165453  13.911   2.760   0.238
54540SOL    HW265454  13.915   2.705   0.097
54541SOL     OW65455  14.679   0.136   0.780
54541SOL    HW165456  14.756   0.098   0.823
54541SOL    HW265457  14.693   0.230   0.786
54542SOL     OW65458  12.259   5.036  11.160
54542SOL    HW165459  12.189   5.098  11.143
54542SOL    HW265460  12.219   4.970  11.218
54543SOL     OW65461   7.478   9.455   0.620
54543SOL    HW165462   7.503   9.399   0.694
54543SOL    HW265463   7.561   9.484   0.583
54544SOL     OW65464  14.747   1.728   9.701
54544SOL    HW165465  14.737   1.666   9.630
54544SOL    HW265466  14.832   1.707   9.739
54545SOL     OW65467  14.585   1.980  11.000
54545SOL    HW165468  14.570   2.013  10.911
54545SOL    HW265469  14.534   2.039  11.056
54546SOL     OW65470   6.185   2.196  14.718
54546SOL    HW165471   6.234   2.277  14.734
54546SOL    HW265472   6.164   2.163  14.805
54547SOL     OW65473  13.641   4.454   9.256
54547SOL    HW165474  13.655   4.527   9.316
54547SOL    HW265475  13.655   4.491   9.169
54548SOL     OW65476   6.707   4.899   9.613
54548SOL    HW165477   6.688   4.836   9.683
54548SOL    HW265478   6.803   4.903   9.610
54549SOL     OW65479   3.294  13.682   7.970
54549SOL    HW165480   3.285  13.699   7.876
54549SOL    HW265481   3.232  13.611   7.988
54550SOL     OW65482   7.639   5.585  11.160
54550SOL    HW165483   7.602   5.503  11.128
54550SOL    HW265484   7.727   5.588  11.121
54551SOL     OW65485   5.844   8.891   9.292
54551SOL    HW165486   5.853   8.984   9.271
54551SOL    HW265487   5.787   8.889   9.369
54552SOL     OW65488   0.754  10.761  14.639
54552SOL    HW165489   0.795  10.691  14.588
54552SOL    HW265490   0.698  10.715  14.702
54553SOL     OW65491   5.125   2.259  13.647
54553SOL    HW165492   5.074   2.294  13.573
54553SOL    HW265493   5.062   2.252  13.718
54554SOL     OW65494  14.730   3.552  10.846
54554SOL    HW165495  14.691   3.466  10.859
54554SOL    HW265496  14.824   3.535  10.837
54555SOL     OW65497   0.466  14.121   1.301
54555SOL    HW165498   0.543  14.105   1.247
54555SOL    HW265499   0.453  14.040   1.349
54556SOL     OW65500   7.015  11.865   0.326
54556SOL    HW165501   7.004  11.953   0.290
54556SOL    HW265502   7.103  11.866   0.365
54557SOL     OW65503  14.294   6.451   0.973
54557SOL    HW165504  14.318   6.454   1.065
54557SOL    HW265505  14.315   6.362   0.945
54558SOL     OW65506   6.103   6.914   8.716
54558SOL    HW165507   6.061   6.930   8.801
54558SOL    HW265508   6.157   6.991   8.701
54559SOL     OW65509  10.556   7.646   7.352
54559SOL    HW165510  10.507   7.686   7.280
54559SOL    HW265511  10.508   7.672   7.431
54560SOL     OW65512   3.847   6.951   9.983
54560SOL    HW165513   3.883   6.870  10.019
54560SOL    HW265514   3.807   6.925   9.900
54561SOL     OW65515  13.353  11.001  11.745
54561SOL    HW165516  13.398  10.920  11.720
54561SOL    HW265517  13.277  10.973  11.796
54562SOL     OW65518   4.821  12.484  14.515
54562SOL    HW165519   4.777  12.486  14.431
54562SOL    HW265520   4.752  12.464  14.578
54563SOL     OW65521   5.916  12.489   1.349
54563SOL    HW165522   5.999  12.527   1.322
54563SOL    HW265523   5.850  12.550   1.317
54564SOL     OW65524   6.480  11.696  11.820
54564SOL    HW165525   6.535  11.726  11.748
54564SOL    HW265526   6.466  11.774  11.874
54565SOL     OW65527   1.105   7.147   4.549
54565SOL    HW165528   1.025   7.143   4.496
54565SOL    HW265529   1.080   7.201   4.624
54566SOL     OW65530  12.089  11.795   0.739
54566SOL    HW165531  12.174  11.768   0.705
54566SOL    HW265532  12.066  11.727   0.802
54567SOL     OW65533   0.541   7.328  13.831
54567SOL    HW165534   0.633   7.305  13.819
54567SOL    HW265535   0.494   7.269  13.772
54568SOL     OW65536  12.279   2.484   9.240
54568SOL    HW165537  12.372   2.459   9.242
54568SOL    HW265538  12.281   2.580   9.235
54569SOL     OW65539   6.232   1.170   8.547
54569SOL    HW165540   6.152   1.211   8.581
54569SOL    HW265541   6.303   1.213   8.595
54570SOL     OW65542  14.796   3.865   8.566
54570SOL    HW165543  14.878   3.817   8.580
54570SOL    HW265544  14.771   3.895   8.653
54571SOL     OW65545   7.820   1.707   0.397
54571SOL    HW165546   7.763   1.781   0.420
54571SOL    HW265547   7.772   1.660   0.329
54572SOL     OW65548  10.878   2.484   1.218
54572SOL    HW165549  10.889   2.577   1.194
54572SOL    HW265550  10.968   2.451   1.226
54573SOL     OW65551  13.291   5.113   7.653
54573SOL    HW165552  13.364   5.119   7.592
54573SOL    HW265553  13.223   5.067   7.604
54574SOL     OW65554   1.358   6.571  13.544
54574SOL    HW165555   1.293   6.511  13.581
54574SOL    HW265556   1.362   6.644  13.606
54575SOL     OW65557  10.966   2.541   3.324
54575SOL    HW165558  10.998   2.476   3.387
54575SOL    HW265559  11.045   2.574   3.281
54576SOL     OW65560   6.412   9.299   9.098
54576SOL    HW165561   6.485   9.251   9.136
54576SOL    HW265562   6.422   9.388   9.130
54577SOL     OW65563   5.932   5.700  11.523
54577SOL    HW165564   5.918   5.625  11.466
54577SOL    HW265565   6.003   5.749  11.483
54578SOL     OW65566   7.340  12.126   5.892
54578SOL    HW165567   7.352  12.140   5.798
54578SOL    HW265568   7.424  12.092   5.922
54579SOL     OW65569  12.535  13.632   7.084
54579SOL    HW165570  12.556  13.690   7.157
54579SOL    HW265571  12.478  13.565   7.121
54580SOL     OW65572   6.562  10.553   5.473
54580SOL    HW165573   6.578  10.474   5.422
54580SOL    HW265574   6.545  10.522   5.561
54581SOL     OW65575   3.792   1.462  13.504
54581SOL    HW165576   3.786   1.436  13.412
54581SOL    HW265577   3.717   1.519  13.517
54582SOL     OW65578   2.419  10.068   1.789
54582SOL    HW165579   2.462  10.012   1.854
54582SOL    HW265580   2.422  10.155   1.828
54583SOL     OW65581   7.344   1.687   8.911
54583SOL    HW165582   7.384   1.655   8.992
54583SOL    HW265583   7.303   1.770   8.935
54584SOL     OW65584   4.641   9.983   2.641
54584SOL    HW165585   4.673  10.020   2.723
54584SOL    HW265586   4.718   9.977   2.585
54585SOL     OW65587   4.448  10.770  13.013
54585SOL    HW165588   4.495  10.824  12.949
54585SOL    HW265589   4.495  10.687  13.014
54586SOL     OW65590  13.550  11.874  13.897
54586SOL    HW165591  13.484  11.893  13.831
54586SOL    HW265592  13.605  11.806  13.857
54587SOL     OW65593   0.597   5.780   8.717
54587SOL    HW165594   0.554   5.795   8.632
54587SOL    HW265595   0.572   5.691   8.741
54588SOL     OW65596   2.121  14.346  10.244
54588SOL    HW165597   2.109  14.298  10.326
54588SOL    HW265598   2.049  14.318  10.188
54589SOL     OW65599   8.750   6.298   6.931
54589SOL    HW165600   8.656   6.305   6.916
54589SOL    HW265601   8.763   6.331   7.020
54590SOL     OW65602   8.687   1.818   4.985
54590SOL    HW165603   8.700   1.849   5.075
54590SOL    HW265604   8.774   1.825   4.945
54591SOL     OW65605  11.184   0.927   5.520
54591SOL    HW165606  11.091   0.907   5.512
54591SOL    HW265607  11.186   1.020   5.542
54592SOL     OW65608   4.843   9.661  13.487
54592SOL    HW165609   4.923   9.630  13.445
54592SOL    HW265610   4.869   9.680  13.577
54593SOL     OW65611   5.841   9.457   3.773
54593SOL    HW165612   5.767   9.480   3.829
54593SOL    HW265613   5.860   9.365   3.794
54594SOL     OW65614  11.075   6.742   3.945
54594SOL    HW165615  11.109   6.809   3.886
54594SOL    HW265616  11.091   6.659   3.899
54595SOL     OW65617   6.742  14.879   8.849
54595SOL    HW165618   6.821   0.016   8.901
54595SOL    HW265619   6.773  14.874   8.759
54596SOL     OW65620   7.061   5.840   8.355
54596SOL    HW165621   7.152   5.827   8.382
54596SOL    HW265622   7.010   5.823   8.434
54597SOL     OW65623  10.285  13.641   3.830
54597SOL    HW165624  10.353  13.594   3.879
54597SOL    HW265625  10.236  13.689   3.896
54598SOL     OW65626   6.821   9.861  11.551
54598SOL    HW165627   6.845   9.874  11.460
54598SOL    HW265628   6.742   9.914  11.563
54599SOL     OW65629   5.462   3.678   3.889
54599SOL    HW165630   5.423   3.723   3.814
54599SOL    HW265631   5.387   3.659   3.946
54600SOL     OW65632   7.092   0.895   1.609
54600SOL    HW165633   7.066   0.803   1.614
54600SOL    HW265634   7.067   0.931   1.694
54601SOL     OW65635  13.083  11.166   4.925
54601SOL    HW165636  13.143  11.129   4.860
54601SOL    HW265637  13.107  11.259   4.929
54602SOL     OW65638  12.542   5.657   8.606
54602SOL    HW165639  12.514   5.706   8.528
54602SOL    HW265640  12.613   5.709   8.643
54603SOL     OW65641   4.861   1.245   5.225
54603SOL    HW165642   4.787   1.279   5.174
54603SOL    HW265643   4.864   1.300   5.303
54604SOL     OW65644   6.817  11.038   5.435
54604SOL    HW165645   6.741  10.983   5.413
54604SOL    HW265646   6.783  11.127   5.431
54605SOL     OW65647  13.262   3.590   7.528
54605SOL    HW165648  13.354   3.564   7.521
54605SOL    HW265649  13.242   3.583   7.621
54606SOL     OW65650   0.856   0.824   3.369
54606SOL    HW165651   0.808   0.827   3.451
54606SOL    HW265652   0.799   0.775   3.310
54607SOL     OW65653   5.305   9.367   7.541
54607SOL    HW165654   5.297   9.341   7.633
54607SOL    HW265655   5.218   9.400   7.518
54608SOL     OW65656   8.553   1.898   0.528
54608SOL    HW165657   8.634   1.891   0.579
54608SOL    HW265658   8.493   1.836   0.569
54609SOL     OW65659   3.286   6.914   9.934
54609SOL    HW165660   3.291   7.008   9.948
54609SOL    HW265661   3.365   6.893   9.884
54610SOL     OW65662   8.474   6.346   1.365
54610SOL    HW165663   8.558   6.323   1.405
54610SOL    HW265664   8.424   6.264   1.366
54611SOL     OW65665  12.029   4.027   7.533
54611SOL    HW165666  12.107   3.992   7.491
54611SOL    HW265667  12.046   4.121   7.541
54612SOL     OW65668  14.133  10.662  14.640
54612SOL    HW165669  14.220  10.699  14.626
54612SOL    HW265670  14.104  10.635  14.553
54613SOL     OW65671  11.344   6.220   0.274
54613SOL    HW165672  11.331   6.296   0.217
54613SOL    HW265673  11.413   6.169   0.231
54614SOL     OW65674   3.177  11.392  10.745
54614SOL    HW165675   3.115  11.456  10.709
54614SOL    HW265676   3.125  11.311  10.753
54615SOL     OW65677   6.271  14.476   6.778
54615SOL    HW165678   6.264  14.545   6.844
54615SOL    HW265679   6.190  14.425   6.788
54616SOL     OW65680   0.948   9.866   0.824
54616SOL    HW165681   1.004   9.940   0.851
54616SOL    HW265682   0.971   9.796   0.884
54617SOL     OW65683  10.645  12.391  13.125
54617SOL    HW165684  10.725  12.378  13.075
54617SOL    HW265685  10.591  12.315  13.104
54618SOL     OW65686   5.765   9.253   3.528
54618SOL    HW165687   5.706   9.314   3.572
54618SOL    HW265688   5.711   9.176   3.510
54619SOL     OW65689   1.556   7.017   0.424
54619SOL    HW165690   1.511   7.066   0.356
54619SOL    HW265691   1.578   6.933   0.383
54620SOL     OW65692   3.234   0.263   4.701
54620SOL    HW165693   3.324   0.237   4.719
54620SOL    HW265694   3.212   0.324   4.771
54621SOL     OW65695  11.099   2.439   0.299
54621SOL    HW165696  11.128   2.426   0.389
54621SOL    HW265697  11.167   2.495   0.260
54622SOL     OW65698  12.115  11.017   2.239
54622SOL    HW165699  12.146  11.103   2.212
54622SOL    HW265700  12.021  11.029   2.254
54623SOL     OW65701  14.081   1.879   9.657
54623SOL    HW165702  14.156   1.839   9.614
54623SOL    HW265703  14.007   1.861   9.598
54624SOL     OW65704   5.888  12.646   5.353
54624SOL    HW165705   5.875  12.740   5.348
54624SOL    HW265706   5.812  12.613   5.401
54625SOL     OW65707   8.945   1.839   4.879
54625SOL    HW165708   8.920   1.931   4.885
54625SOL    HW265709   8.947   1.820   4.785
54626SOL     OW65710   2.754  13.457   5.315
54626SOL    HW165711   2.726  13.457   5.223
54626SOL    HW265712   2.745  13.366   5.343
54627SOL     OW65713   7.992   3.284  10.637
54627SOL    HW165714   8.037   3.298  10.553
54627SOL    HW265715   8.045   3.217  10.681
54628SOL     OW65716   7.478  10.395   6.990
54628SOL    HW165717   7.489  10.474   6.937
54628SOL    HW265718   7.455  10.427   7.077
54629SOL     OW65719   0.170  11.709   5.363
54629SOL    HW165720   0.258  11.732   5.394
54629SOL    HW265721   0.113  11.775   5.402
54630SOL     OW65722  10.786  13.182  10.366
54630SOL    HW165723  10.693  13.186  10.386
54630SOL    HW265724  10.798  13.244  10.294
54631SOL     OW65725   2.941   5.330  13.321
54631SOL    HW165726   3.011   5.265  13.315
54631SOL    HW265727   2.868   5.282  13.361
54632SOL     OW65728  14.517   6.689  13.157
54632SOL    HW165729  14.580   6.656  13.222
54632SOL    HW265730  14.516   6.622  13.089
54633SOL     OW65731   7.615   5.364   7.712
54633SOL    HW165732   7.705   5.396   7.714
54633SOL    HW265733   7.597   5.347   7.619
54634SOL     OW65734  11.863   2.133  13.435
54634SOL    HW165735  11.774   2.102  13.448
54634SOL    HW265736  11.911   2.101  13.511
54635SOL     OW65737   6.017  14.475   7.294
54635SOL    HW165738   6.079  14.442   7.229
54635SOL    HW265739   5.931  14.451   7.259
54636SOL     OW65740  10.385   7.358  13.754
54636SOL    HW165741  10.435   7.342  13.674
54636SOL    HW265742  10.448   7.403  13.812
54637SOL     OW65743   4.673  11.831   6.947
54637SOL    HW165744   4.619  11.908   6.969
54637SOL    HW265745   4.613  11.757   6.956
54638SOL     OW65746  13.758   4.274  11.345
54638SOL    HW165747  13.715   4.357  11.322
54638SOL    HW265748  13.823   4.261  11.277
54639SOL     OW65749   3.722   9.222   4.426
54639SOL    HW165750   3.800   9.175   4.454
54639SOL    HW265751   3.725   9.220   4.330
54640SOL     OW65752   7.678   3.381   0.749
54640SOL    HW165753   7.752   3.323   0.733
54640SOL    HW265754   7.690   3.413   0.839
54641SOL     OW65755  13.325  14.154  10.285
54641SOL    HW165756  13.358  14.173  10.197
54641SOL    HW265757  13.233  14.130  10.272
54642SOL     OW65758   2.621   8.713  10.089
54642SOL    HW165759   2.658   8.799  10.109
54642SOL    HW265760   2.663   8.688  10.007
54643SOL     OW65761  10.632   4.310   2.636
54643SOL    HW165762  10.631   4.331   2.543
54643SOL    HW265763  10.653   4.393   2.679
54644SOL     OW65764   0.123  12.216   2.301
54644SOL    HW165765   0.138  12.252   2.389
54644SOL    HW265766   0.044  12.262   2.270
54645SOL     OW65767   1.971   2.254   8.551
54645SOL    HW165768   1.932   2.329   8.595
54645SOL    HW265769   1.923   2.178   8.585
54646SOL     OW65770   4.984   3.346   1.970
54646SOL    HW165771   5.032   3.323   1.891
54646SOL    HW265772   4.993   3.441   1.978
54647SOL     OW65773   2.788   6.270   9.497
54647SOL    HW165774   2.785   6.174   9.500
54647SOL    HW265775   2.704   6.298   9.535
54648SOL     OW65776  11.253  11.560   2.122
54648SOL    HW165777  11.233  11.584   2.213
54648SOL    HW265778  11.314  11.628   2.093
54649SOL     OW65779   1.684   6.271  13.527
54649SOL    HW165780   1.614   6.234  13.581
54649SOL    HW265781   1.640   6.338  13.474
54650SOL     OW65782  12.002  10.564   1.089
54650SOL    HW165783  11.944  10.494   1.117
54650SOL    HW265784  12.091  10.530   1.104
54651SOL     OW65785  11.265   3.489   9.431
54651SOL    HW165786  11.215   3.546   9.490
54651SOL    HW265787  11.233   3.401   9.449
54652SOL     OW65788  11.560   8.875   3.034
54652SOL    HW165789  11.552   8.790   2.989
54652SOL    HW265790  11.634   8.863   3.094
54653SOL     OW65791  13.623   1.075  13.739
54653SOL    HW165792  13.613   1.095  13.645
54653SOL    HW265793  13.709   1.034  13.746
54654SOL     OW65794   3.126  12.657  14.613
54654SOL    HW165795   3.148  12.633  14.703
54654SOL    HW265796   3.093  12.747  14.620
54655SOL     OW65797   1.465  12.309   0.354
54655SOL    HW165798   1.412  12.353   0.287
54655SOL    HW265799   1.512  12.380   0.398
54656SOL     OW65800   1.541  13.046  12.222
54656SOL    HW165801   1.506  13.107  12.286
54656SOL    HW265802   1.474  12.978  12.214
54657SOL     OW65803   6.530   1.167   7.040
54657SOL    HW165804   6.594   1.133   7.102
54657SOL    HW265805   6.517   1.095   6.978
54658SOL     OW65806   0.616   4.762  12.661
54658SOL    HW165807   0.579   4.712  12.587
54658SOL    HW265808   0.585   4.715  12.738
54659SOL     OW65809   8.939   5.989  10.527
54659SOL    HW165810   8.940   6.084  10.511
54659SOL    HW265811   9.015   5.956  10.481
54660SOL     OW65812   3.212   5.519   9.329
54660SOL    HW165813   3.157   5.597   9.317
54660SOL    HW265814   3.205   5.472   9.246
54661SOL     OW65815   5.877  14.110  10.872
54661SOL    HW165816   5.950  14.100  10.933
54661SOL    HW265817   5.904  14.182  10.815
54662SOL     OW65818   7.335   6.337   6.047
54662SOL    HW165819   7.396   6.410   6.059
54662SOL    HW265820   7.382   6.274   5.994
54663SOL     OW65821  14.535  14.874   3.527
54663SOL    HW165822  14.517   0.031   3.440
54663SOL    HW265823  14.613  14.820   3.516
54664SOL     OW65824   7.780   9.122  12.581
54664SOL    HW165825   7.780   9.027  12.579
54664SOL    HW265826   7.747   9.148  12.495
54665SOL     OW65827   7.883   2.453   8.262
54665SOL    HW165828   7.931   2.380   8.303
54665SOL    HW265829   7.791   2.427   8.268
54666SOL     OW65830   0.633   4.038   7.080
54666SOL    HW165831   0.675   4.093   7.147
54666SOL    HW265832   0.579   3.977   7.130
54667SOL     OW65833  14.665  11.199   9.642
54667SOL    HW165834  14.576  11.212   9.676
54667SOL    HW265835  14.719  11.257   9.696
54668SOL     OW65836  12.508  10.602   3.957
54668SOL    HW165837  12.486  10.598   4.050
54668SOL    HW265838  12.554  10.520   3.939
54669SOL     OW65839   3.916   9.507   3.314
54669SOL    HW165840   3.942   9.591   3.352
54669SOL    HW265841   3.826   9.521   3.285
54670SOL     OW65842   7.558   8.051   3.028
54670SOL    HW165843   7.556   8.141   3.061
54670SOL    HW265844   7.643   8.044   2.984
54671SOL     OW65845   7.576  14.805   1.272
54671SOL    HW165846   7.612  14.747   1.206
54671SOL    HW265847   7.539  14.878   1.222
54672SOL     OW65848   3.202  14.454   6.439
54672SOL    HW165849   3.196  14.541   6.477
54672SOL    HW265850   3.290  14.424   6.462
54673SOL     OW65851   2.800  10.785  13.138
54673SOL    HW165852   2.749  10.779  13.057
54673SOL    HW265853   2.855  10.862  13.125
54674SOL     OW65854   3.439   8.344   0.611
54674SOL    HW165855   3.393   8.398   0.675
54674SOL    HW265856   3.430   8.255   0.644
54675SOL     OW65857  10.143   8.685   3.895
54675SOL    HW165858  10.179   8.774   3.888
54675SOL    HW265859  10.154   8.662   3.987
54676SOL     OW65860   5.228  14.586   1.460
54676SOL    HW165861   5.200  14.612   1.372
54676SOL    HW265862   5.148  14.588   1.513
54677SOL     OW65863  13.541  13.029   4.783
54677SOL    HW165864  13.632  13.000   4.770
54677SOL    HW265865  13.523  13.009   4.875
54678SOL     OW65866  11.299   3.922   8.076
54678SOL    HW165867  11.329   3.943   8.164
54678SOL    HW265868  11.204   3.915   8.084
54679SOL     OW65869  12.019  11.462  12.834
54679SOL    HW165870  12.016  11.378  12.788
54679SOL    HW265871  12.016  11.439  12.927
54680SOL     OW65872  13.491  12.350  12.371
54680SOL    HW165873  13.456  12.326  12.285
54680SOL    HW265874  13.459  12.438  12.387
54681SOL     OW65875   0.596   2.081   3.823
54681SOL    HW165876   0.580   2.168   3.786
54681SOL    HW265877   0.598   2.022   3.747
54682SOL     OW65878   4.573  12.202  10.552
54682SOL    HW165879   4.608  12.290  10.557
54682SOL    HW265880   4.647  12.145  10.573
54683SOL     OW65881   3.638  12.014   4.099
54683SOL    HW165882   3.732  12.016   4.081
54683SOL    HW265883   3.615  11.921   4.097
54684SOL     OW65884   6.387  12.173   2.148
54684SOL    HW165885   6.333  12.204   2.220
54684SOL    HW265886   6.389  12.078   2.159
54685SOL     OW65887   8.566  10.304   0.545
54685SOL    HW165888   8.619  10.261   0.612
54685SOL    HW265889   8.538  10.386   0.585
54686SOL     OW65890  10.968   0.856   9.468
54686SOL    HW165891  10.942   0.935   9.515
54686SOL    HW265892  10.928   0.864   9.381
54687SOL     OW65893  12.122   2.329   7.156
54687SOL    HW165894  12.186   2.260   7.174
54687SOL    HW265895  12.084   2.304   7.072
54688SOL     OW65896  14.832   7.071   0.007
54688SOL    HW165897  14.742   7.040  14.878
54688SOL    HW265898  14.868   7.065  14.797
54689SOL     OW65899  11.367  10.652   1.085
54689SOL    HW165900  11.323  10.601   1.017
54689SOL    HW265901  11.460  10.643   1.065
54690SOL     OW65902  11.368   7.065   0.436
54690SOL    HW165903  11.310   7.002   0.392
54690SOL    HW265904  11.342   7.150   0.402
54691SOL     OW65905   5.012   0.305   6.591
54691SOL    HW165906   5.054   0.302   6.505
54691SOL    HW265907   4.998   0.214   6.614
54692SOL     OW65908   7.767  13.969  14.248
54692SOL    HW165909   7.811  13.976  14.332
54692SOL    HW265910   7.837  13.946  14.186
54693SOL     OW65911  13.655   2.973  13.219
54693SOL    HW165912  13.638   2.902  13.280
54693SOL    HW265913  13.677   2.930  13.137
54694SOL     OW65914   2.172   5.217   5.258
54694SOL    HW165915   2.250   5.207   5.312
54694SOL    HW265916   2.182   5.302   5.216
54695SOL     OW65917   1.163  12.240   9.519
54695SOL    HW165918   1.227  12.309   9.507
54695SOL    HW265919   1.139  12.213   9.430
54696SOL     OW65920   8.305   0.767   1.381
54696SOL    HW165921   8.372   0.737   1.319
54696SOL    HW265922   8.239   0.698   1.380
54697SOL     OW65923   9.020   7.401   3.478
54697SOL    HW165924   8.960   7.342   3.432
54697SOL    HW265925   9.107   7.372   3.451
54698SOL     OW65926   9.162   8.883   1.704
54698SOL    HW165927   9.242   8.897   1.754
54698SOL    HW265928   9.142   8.969   1.667
54699SOL     OW65929  12.277   4.375   0.150
54699SOL    HW165930  12.232   4.317   0.212
54699SOL    HW265931  12.351   4.410   0.200
54700SOL     OW65932   6.141   1.419   7.860
54700SOL    HW165933   6.200   1.373   7.800
54700SOL    HW265934   6.071   1.356   7.877
54701SOL     OW65935   9.920   3.356  14.582
54701SOL    HW165936   9.913   3.345  14.677
54701SOL    HW265937  10.010   3.331  14.561
54702SOL     OW65938  11.299   2.182   9.058
54702SOL    HW165939  11.378   2.222   9.093
54702SOL    HW265940  11.268   2.124   9.127
54703SOL     OW65941   7.063  11.493   7.146
54703SOL    HW165942   7.082  11.525   7.234
54703SOL    HW265943   7.060  11.572   7.092
54704SOL     OW65944   7.250   6.351  13.095
54704SOL    HW165945   7.207   6.361  13.010
54704SOL    HW265946   7.335   6.393  13.084
54705SOL     OW65947   6.560   2.528   9.836
54705SOL    HW165948   6.469   2.555   9.847
54705SOL    HW265949   6.579   2.547   9.743
54706SOL     OW65950  14.389  11.554   0.806
54706SOL    HW165951  14.306  11.512   0.825
54706SOL    HW265952  14.372  11.648   0.819
54707SOL     OW65953   3.469  14.019  12.816
54707SOL    HW165954   3.411  13.956  12.858
54707SOL    HW265955   3.414  14.096  12.802
54708SOL     OW65956  10.980   2.970  14.473
54708SOL    HW165957  11.068   3.007  14.477
54708SOL    HW265958  10.924   3.042  14.445
54709SOL     OW65959   9.738  11.152   3.438
54709SOL    HW165960   9.674  11.113   3.378
54709SOL    HW265961   9.686  11.209   3.494
54710SOL     OW65962   2.869   5.637   9.651
54710SOL    HW165963   2.802   5.594   9.706
54710SOL    HW265964   2.929   5.566   9.628
54711SOL     OW65965  10.042   8.869  11.319
54711SOL    HW165966   9.966   8.902  11.270
54711SOL    HW265967  10.073   8.794  11.268
54712SOL     OW65968   0.587  12.153   7.569
54712SOL    HW165969   0.546  12.169   7.654
54712SOL    HW265970   0.543  12.075   7.536
54713SOL     OW65971   4.841   0.569  10.389
54713SOL    HW165972   4.867   0.602  10.475
54713SOL    HW265973   4.756   0.609  10.372
54714SOL     OW65974   1.314  13.208   2.825
54714SOL    HW165975   1.408  13.224   2.831
54714SOL    HW265976   1.299  13.192   2.731
54715SOL     OW65977   8.050   3.505   9.466
54715SOL    HW165978   8.130   3.509   9.414
54715SOL    HW265979   8.001   3.430   9.430
54716SOL     OW65980   3.338   1.666   1.468
54716SOL    HW165981   3.365   1.728   1.537
54716SOL    HW265982   3.258   1.626   1.502
54717SOL     OW65983   1.659  11.014   8.738
54717SOL    HW165984   1.753  11.029   8.752
54717SOL    HW265985   1.616  11.069   8.803
54718SOL     OW65986  14.649  13.365  13.906
54718SOL    HW165987  14.725  13.392  13.958
54718SOL    HW265988  14.662  13.410  13.821
54719SOL     OW65989   9.045  12.559   4.949
54719SOL    HW165990   9.065  12.477   4.994
54719SOL    HW265991   8.950  12.559   4.941
54720SOL     OW65992  11.475   3.356  13.642
54720SOL    HW165993  11.540   3.293  13.610
54720SOL    HW265994  11.484   3.431  13.583
54721SOL     OW65995   4.292   2.720   2.541
54721SOL    HW165996   4.387   2.731   2.541
54721SOL    HW265997   4.264   2.756   2.625
54722SOL     OW65998   5.047   9.031   2.246
54722SOL    HW165999   5.084   8.946   2.224
54722SOL    HW266000   5.112   9.094   2.214
54723SOL     OW66001  11.668   7.853   8.954
54723SOL    HW166002  11.594   7.858   8.893
54723SOL    HW266003  11.703   7.942   8.956
54724SOL     OW66004  11.612   8.400   9.368
54724SOL    HW166005  11.567   8.465   9.314
54724SOL    HW266006  11.545   8.334   9.388
54725SOL     OW66007   2.981   4.944  12.613
54725SOL    HW166008   2.905   4.893  12.588
54725SOL    HW266009   2.975   4.952  12.708
54726SOL     OW66010  11.986   0.243  10.494
54726SOL    HW166011  12.032   0.253  10.411
54726SOL    HW266012  11.927   0.318  10.498
54727SOL     OW66013   6.633   5.374   2.770
54727SOL    HW166014   6.561   5.329   2.814
54727SOL    HW266015   6.643   5.457   2.817
54728SOL     OW66016  12.598   0.821   5.864
54728SOL    HW166017  12.615   0.915   5.861
54728SOL    HW266018  12.672   0.782   5.817
54729SOL     OW66019  14.190  11.280  14.829
54729SOL    HW166020  14.142  11.358  14.801
54729SOL    HW266021  14.253  11.313   0.015
54730SOL     OW66022   6.801  13.089   9.538
54730SOL    HW166023   6.798  13.060   9.629
54730SOL    HW266024   6.848  13.173   9.541
54731SOL     OW66025  13.234   8.936   0.445
54731SOL    HW166026  13.146   8.972   0.431
54731SOL    HW266027  13.225   8.882   0.524
54732SOL     OW66028   1.096  10.020   2.924
54732SOL    HW166029   1.159  10.080   2.883
54732SOL    HW266030   1.138   9.934   2.918
54733SOL     OW66031   0.403   4.874  14.645
54733SOL    HW166032   0.399   4.937  14.716
54733SOL    HW266033   0.348   4.801  14.674
54734SOL     OW66034  12.802   3.178   8.116
54734SOL    HW166035  12.719   3.130   8.116
54734SOL    HW266036  12.800   3.228   8.198
54735SOL     OW66037   8.156   0.504   1.937
54735SOL    HW166038   8.164   0.553   1.855
54735SOL    HW266039   8.077   0.452   1.927
54736SOL     OW66040   4.138   9.340   3.193
54736SOL    HW166041   4.137   9.426   3.237
54736SOL    HW266042   4.195   9.286   3.248
54737SOL     OW66043   3.638   3.423  11.557
54737SOL    HW166044   3.630   3.417  11.462
54737SOL    HW266045   3.559   3.380  11.591
54738SOL     OW66046   0.812   1.019   6.719
54738SOL    HW166047   0.871   0.972   6.660
54738SOL    HW266048   0.750   1.063   6.660
54739SOL     OW66049  13.513  14.663  14.107
54739SOL    HW166050  13.514  14.723  14.033
54739SOL    HW266051  13.579  14.696  14.167
54740SOL     OW66052   7.212   2.583   4.777
54740SOL    HW166053   7.254   2.522   4.716
54740SOL    HW266054   7.167   2.646   4.720
54741SOL     OW66055   7.875   0.057   8.721
54741SOL    HW166056   7.855  14.843   8.730
54741SOL    HW266057   7.950   0.071   8.779
54742SOL     OW66058   3.171   7.666   4.409
54742SOL    HW166059   3.216   7.638   4.329
54742SOL    HW266060   3.132   7.750   4.386
54743SOL     OW66061   9.846  13.071   3.192
54743SOL    HW166062   9.910  13.013   3.152
54743SOL    HW266063   9.883  13.093   3.278
54744SOL     OW66064   5.247  13.386   5.598
54744SOL    HW166065   5.290  13.370   5.514
54744SOL    HW266066   5.309  13.353   5.663
54745SOL     OW66067  14.785   2.066   5.823
54745SOL    HW166068  14.747   1.980   5.842
54745SOL    HW266069  14.717   2.129   5.849
54746SOL     OW66070  10.292   5.953   0.506
54746SOL    HW166071  10.344   5.874   0.519
54746SOL    HW266072  10.254   5.972   0.591
54747SOL     OW66073   1.965   6.194   1.497
54747SOL    HW166074   1.947   6.285   1.520
54747SOL    HW266075   1.880   6.151   1.497
54748SOL     OW66076   8.827   5.652   4.221
54748SOL    HW166077   8.839   5.560   4.194
54748SOL    HW266078   8.913   5.677   4.256
54749SOL     OW66079   6.514   6.548   0.197
54749SOL    HW166080   6.490   6.465   0.155
54749SOL    HW266081   6.579   6.523   0.264
54750SOL     OW66082   3.971   8.175   8.448
54750SOL    HW166083   4.055   8.141   8.478
54750SOL    HW266084   3.989   8.207   8.359
54751SOL     OW66085   2.056  14.112   3.996
54751SOL    HW166086   1.988  14.045   3.996
54751SOL    HW266087   2.037  14.166   3.920
54752SOL     OW66088   8.203   1.519   4.200
54752SOL    HW166089   8.156   1.540   4.119
54752SOL    HW266090   8.255   1.441   4.178
54753SOL     OW66091   3.721  14.061   1.511
54753SOL    HW166092   3.689  14.059   1.421
54753SOL    HW266093   3.774  13.982   1.519
54754SOL     OW66094   5.970   2.630  11.404
54754SOL    HW166095   6.055   2.606  11.367
54754SOL    HW266096   5.955   2.719  11.372
54755SOL     OW66097  12.267  12.875   4.041
54755SOL    HW166098  12.339  12.937   4.050
54755SOL    HW266099  12.199  12.924   3.994
54756SOL     OW66100   0.074   3.373   1.924
54756SOL    HW166101   0.144   3.400   1.982
54756SOL    HW266102   0.027   3.305   1.973
54757SOL     OW66103  14.470  14.048  14.848
54757SOL    HW166104  14.398  14.067  14.788
54757SOL    HW266105  14.497  13.958  14.826
54758SOL     OW66106  11.085  13.250   5.379
54758SOL    HW166107  11.083  13.338   5.415
54758SOL    HW266108  11.130  13.198   5.445
54759SOL     OW66109   3.137   5.709   7.672
54759SOL    HW166110   3.183   5.644   7.619
54759SOL    HW266111   3.176   5.702   7.759
54760SOL     OW66112   8.091  13.426   6.771
54760SOL    HW166113   8.173  13.472   6.751
54760SOL    HW266114   8.068  13.381   6.690
54761SOL     OW66115  10.601   9.742   8.964
54761SOL    HW166116  10.541   9.809   8.998
54761SOL    HW266117  10.544   9.681   8.918
54762SOL     OW66118  13.267  12.625   8.131
54762SOL    HW166119  13.212  12.551   8.155
54762SOL    HW266120  13.288  12.667   8.215
54763SOL     OW66121  10.932   9.239  13.762
54763SOL    HW166122  10.926   9.282  13.847
54763SOL    HW266123  10.879   9.160  13.771
54764SOL     OW66124   2.275  13.831   3.119
54764SOL    HW166125   2.298  13.754   3.171
54764SOL    HW266126   2.255  13.898   3.184
54765SOL     OW66127   7.864   5.200   7.396
54765SOL    HW166128   7.790   5.261   7.406
54765SOL    HW266129   7.840   5.125   7.451
54766SOL     OW66130   3.920   3.850   5.655
54766SOL    HW166131   3.891   3.940   5.638
54766SOL    HW266132   3.862   3.796   5.601
54767SOL     OW66133  12.670  10.264   5.842
54767SOL    HW166134  12.691  10.352   5.874
54767SOL    HW266135  12.679  10.208   5.919
54768SOL     OW66136   3.822   8.374   9.854
54768SOL    HW166137   3.770   8.394   9.931
54768SOL    HW266138   3.833   8.458   9.809
54769SOL     OW66139   4.213   4.424   6.537
54769SOL    HW166140   4.223   4.503   6.484
54769SOL    HW266141   4.255   4.445   6.620
54770SOL     OW66142   6.636  13.186   7.841
54770SOL    HW166143   6.554  13.166   7.795
54770SOL    HW266144   6.683  13.245   7.782
54771SOL     OW66145   7.271   8.082  11.241
54771SOL    HW166146   7.245   8.118  11.156
54771SOL    HW266147   7.337   8.017  11.220
54772SOL     OW66148   9.316   4.935   2.064
54772SOL    HW166149   9.410   4.950   2.076
54772SOL    HW266150   9.303   4.941   1.969
54773SOL     OW66151   5.988   5.346   0.619
54773SOL    HW166152   5.930   5.286   0.666
54773SOL    HW266153   5.947   5.358   0.534
54774SOL     OW66154  10.984   6.306   9.007
54774SOL    HW166155  11.007   6.309   9.099
54774SOL    HW266156  10.975   6.213   8.987
54775SOL     OW66157   1.656  12.319  13.444
54775SOL    HW166158   1.719  12.252  13.470
54775SOL    HW266159   1.571  12.276  13.449
54776SOL     OW66160   8.222  11.868   6.567
54776SOL    HW166161   8.207  11.925   6.643
54776SOL    HW266162   8.137  11.828   6.551
54777SOL     OW66163  13.238   3.553   8.288
54777SOL    HW166164  13.184   3.623   8.252
54777SOL    HW266165  13.213   3.475   8.239
54778SOL     OW66166   4.556   7.270   3.532
54778SOL    HW166167   4.492   7.212   3.491
54778SOL    HW266168   4.598   7.216   3.599
54779SOL     OW66169  10.283   7.612  11.255
54779SOL    HW166170  10.259   7.530  11.211
54779SOL    HW266171  10.352   7.649  11.200
54780SOL     OW66172  13.024   7.601   4.255
54780SOL    HW166173  13.075   7.599   4.174
54780SOL    HW266174  13.082   7.645   4.318
54781SOL     OW66175   7.520   3.731   5.362
54781SOL    HW166176   7.553   3.737   5.273
54781SOL    HW266177   7.598   3.723   5.417
54782SOL     OW66178   1.791  12.403   8.967
54782SOL    HW166179   1.807  12.339   8.898
54782SOL    HW266180   1.827  12.364   9.046
54783SOL     OW66181   0.744   6.080   9.341
54783SOL    HW166182   0.780   6.026   9.411
54783SOL    HW266183   0.673   6.027   9.304
54784SOL     OW66184  14.102   1.311  11.564
54784SOL    HW166185  14.162   1.242  11.534
54784SOL    HW266186  14.132   1.332  11.652
54785SOL     OW66187   2.710   2.446   6.308
54785SOL    HW166188   2.804   2.463   6.319
54785SOL    HW266189   2.706   2.357   6.273
54786SOL     OW66190   3.027   7.002  11.888
54786SOL    HW166191   2.947   7.047  11.862
54786SOL    HW266192   3.000   6.945  11.960
54787SOL     OW66193   4.159  13.986  12.169
54787SOL    HW166194   4.157  13.905  12.118
54787SOL    HW266195   4.122  14.052  12.111
54788SOL     OW66196   3.931  12.025   8.322
54788SOL    HW166197   4.025  12.040   8.315
54788SOL    HW266198   3.905  11.991   8.237
54789SOL     OW66199   4.422  13.198  14.606
54789SOL    HW166200   4.460  13.146  14.677
54789SOL    HW266201   4.348  13.146  14.575
54790SOL     OW66202   7.673   0.871  11.387
54790SOL    HW166203   7.625   0.954  11.375
54790SOL    HW266204   7.625   0.808  11.334
54791SOL     OW66205  12.759   1.387   7.542
54791SOL    HW166206  12.768   1.421   7.452
54791SOL    HW266207  12.674   1.343   7.542
54792SOL     OW66208  13.563   9.452   0.516
54792SOL    HW166209  13.649   9.482   0.486
54792SOL    HW266210  13.520   9.421   0.436
54793SOL     OW66211   0.396  13.803   8.302
54793SOL    HW166212   0.387  13.724   8.249
54793SOL    HW266213   0.375  13.775   8.392
54794SOL     OW66214   2.427  10.035   5.246
54794SOL    HW166215   2.410  10.111   5.190
54794SOL    HW266216   2.514  10.051   5.283
54795SOL     OW66217   1.483   8.573   6.312
54795SOL    HW166218   1.562   8.563   6.260
54795SOL    HW266219   1.514   8.604   6.397
54796SOL     OW66220   5.369  13.193   9.190
54796SOL    HW166221   5.282  13.157   9.210
54796SOL    HW266222   5.351  13.276   9.146
54797SOL     OW66223   9.780  13.686  14.099
54797SOL    HW166224   9.761  13.777  14.076
54797SOL    HW266225   9.756  13.680  14.192
54798SOL     OW66226   6.805   1.311  13.431
54798SOL    HW166227   6.787   1.394  13.386
54798SOL    HW266228   6.781   1.327  13.522
54799SOL     OW66229   2.652   1.757   3.220
54799SOL    HW166230   2.734   1.807   3.225
54799SOL    HW266231   2.681   1.666   3.209
54800SOL     OW66232  10.861   8.810   2.525
54800SOL    HW166233  10.819   8.893   2.501
54800SOL    HW266234  10.788   8.754   2.553
54801SOL     OW66235   7.153   0.782   6.762
54801SOL    HW166236   7.243   0.806   6.785
54801SOL    HW266237   7.156   0.687   6.749
54802SOL     OW66238   3.739  11.069  14.501
54802SOL    HW166239   3.646  11.075  14.481
54802SOL    HW266240   3.777  11.022  14.427
54803SOL     OW66241   1.582   7.619  14.846
54803SOL    HW166242   1.636   7.565  14.789
54803SOL    HW266243   1.493   7.609  14.811
54804SOL     OW66244   1.097   1.032   6.544
54804SOL    HW166245   1.035   1.101   6.522
54804SOL    HW266246   1.180   1.077   6.557
54805SOL     OW66247   2.997   1.230  10.536
54805SOL    HW166248   2.930   1.213  10.471
54805SOL    HW266249   3.042   1.146  10.547
54806SOL     OW66250   2.929  14.784   5.740
54806SOL    HW166251   2.880  14.703   5.752
54806SOL    HW266252   2.867  14.842   5.694
54807SOL     OW66253   5.291  12.101   3.566
54807SOL    HW166254   5.330  12.014   3.555
54807SOL    HW266255   5.278  12.133   3.477
54808SOL     OW66256  12.046  13.404  11.840
54808SOL    HW166257  12.012  13.322  11.804
54808SOL    HW266258  12.139  13.405  11.817
54809SOL     OW66259   9.484  11.171  14.498
54809SOL    HW166260   9.453  11.128  14.578
54809SOL    HW266261   9.570  11.132  14.481
54810SOL     OW66262   9.875   9.088   3.691
54810SOL    HW166263   9.792   9.089   3.642
54810SOL    HW266264   9.881   8.999   3.725
54811SOL     OW66265   3.966   1.372  11.685
54811SOL    HW166266   4.050   1.363  11.731
54811SOL    HW266267   3.920   1.290  11.704
54812SOL     OW66268  11.609   9.758   3.867
54812SOL    HW166269  11.531   9.755   3.812
54812SOL    HW266270  11.596   9.688   3.931
54813SOL     OW66271   3.789   9.003   7.027
54813SOL    HW166272   3.750   9.091   7.030
54813SOL    HW266273   3.860   9.012   6.963
54814SOL     OW66274   6.867  12.327   0.712
54814SOL    HW166275   6.949  12.375   0.718
54814SOL    HW266276   6.884  12.244   0.757
54815SOL     OW66277   7.415   4.911  10.890
54815SOL    HW166278   7.438   4.837  10.946
54815SOL    HW266279   7.467   4.899  10.811
54816SOL     OW66280   2.678  13.541   5.060
54816SOL    HW166281   2.749  13.528   4.997
54816SOL    HW266282   2.657  13.634   5.053
54817SOL     OW66283   9.781   9.813   4.854
54817SOL    HW166284   9.795   9.781   4.944
54817SOL    HW266285   9.706   9.763   4.823
54818SOL     OW66286  11.583   7.280   3.730
54818SOL    HW166287  11.514   7.338   3.762
54818SOL    HW266288  11.539   7.225   3.665
54819SOL     OW66289   5.337   8.819   9.464
54819SOL    HW166290   5.275   8.751   9.488
54819SOL    HW266291   5.368   8.855   9.547
54820SOL     OW66292   8.978   0.991  14.066
54820SOL    HW166293   8.970   0.959  14.156
54820SOL    HW266294   8.926   0.930  14.014
54821SOL     OW66295   6.160   7.653   1.407
54821SOL    HW166296   6.158   7.638   1.312
54821SOL    HW266297   6.084   7.710   1.423
54822SOL     OW66298   9.682  12.473   3.834
54822SOL    HW166299   9.609  12.461   3.894
54822SOL    HW266300   9.717  12.559   3.856
54823SOL     OW66301  14.138   8.265  14.076
54823SOL    HW166302  14.147   8.354  14.109
54823SOL    HW266303  14.061   8.269  14.019
54824SOL     OW66304  12.899  11.968   9.544
54824SOL    HW166305  12.976  11.976   9.488
54824SOL    HW266306  12.885  11.873   9.554
54825SOL     OW66307   5.959  11.472  11.584
54825SOL    HW166308   5.867  11.466  11.561
54825SOL    HW266309   5.981  11.564  11.571
54826SOL     OW66310   7.848   5.927  14.717
54826SOL    HW166311   7.856   5.831  14.722
54826SOL    HW266312   7.821   5.953  14.805
54827SOL     OW66313  14.083   9.806  13.629
54827SOL    HW166314  14.049   9.878  13.681
54827SOL    HW266315  14.011   9.744  13.624
54828SOL     OW66316   7.499   1.697   7.737
54828SOL    HW166317   7.487   1.636   7.665
54828SOL    HW266318   7.426   1.758   7.730
54829SOL     OW66319   3.502   4.928   4.699
54829SOL    HW166320   3.437   4.868   4.662
54829SOL    HW266321   3.521   4.892   4.786
54830SOL     OW66322  12.098  12.284   7.723
54830SOL    HW166323  12.086  12.316   7.633
54830SOL    HW266324  12.144  12.201   7.713
54831SOL     OW66325   8.753  13.487  13.284
54831SOL    HW166326   8.744  13.490  13.380
54831SOL    HW266327   8.760  13.394  13.264
54832SOL     OW66328   4.173   5.603   1.477
54832SOL    HW166329   4.231   5.529   1.458
54832SOL    HW266330   4.232   5.679   1.480
54833SOL     OW66331   4.373   9.791   7.766
54833SOL    HW166332   4.297   9.765   7.714
54833SOL    HW266333   4.337   9.836   7.842
54834SOL     OW66334   8.737   1.591   1.032
54834SOL    HW166335   8.754   1.673   1.079
54834SOL    HW266336   8.641   1.585   1.030
54835SOL     OW66337   6.669  10.698   6.951
54835SOL    HW166338   6.604  10.702   7.022
54835SOL    HW266339   6.703  10.787   6.945
54836SOL     OW66340  10.535   9.121   2.147
54836SOL    HW166341  10.545   9.025   2.152
54836SOL    HW266342  10.492   9.145   2.229
54837SOL     OW66343   8.611   8.213  10.251
54837SOL    HW166344   8.586   8.141  10.193
54837SOL    HW266345   8.528   8.244  10.286
54838SOL     OW66346  14.233  11.226  13.954
54838SOL    HW166347  14.241  11.142  13.909
54838SOL    HW266348  14.166  11.212  14.021
54839SOL     OW66349  10.371   3.938  12.273
54839SOL    HW166350  10.415   3.999  12.214
54839SOL    HW266351  10.400   3.963  12.360
54840SOL     OW66352   5.764  12.362  13.329
54840SOL    HW166353   5.698  12.431  13.321
54840SOL    HW266354   5.781  12.356  13.423
54841SOL     OW66355   5.445  14.634  12.519
54841SOL    HW166356   5.405  14.628  12.432
54841SOL    HW266357   5.439  14.726  12.542
54842SOL     OW66358   2.108   4.734  13.410
54842SOL    HW166359   2.053   4.657  13.396
54842SOL    HW266360   2.127   4.766  13.322
54843SOL     OW66361   7.011   1.741   8.040
54843SOL    HW166362   7.091   1.690   8.048
54843SOL    HW266363   6.972   1.739   8.127
54844SOL     OW66364   8.238  11.869   2.598
54844SOL    HW166365   8.185  11.911   2.530
54844SOL    HW266366   8.298  11.812   2.550
54845SOL     OW66367   4.732  11.921  11.380
54845SOL    HW166368   4.687  11.909  11.296
54845SOL    HW266369   4.824  11.928  11.357
54846SOL     OW66370   2.625  14.737  10.724
54846SOL    HW166371   2.564  14.663  10.730
54846SOL    HW266372   2.569  14.814  10.732
54847SOL     OW66373   5.840   5.631  13.197
54847SOL    HW166374   5.761   5.662  13.242
54847SOL    HW266375   5.848   5.540  13.222
54848SOL     OW66376   0.971  12.034   8.798
54848SOL    HW166377   0.979  12.008   8.889
54848SOL    HW266378   0.992  12.128   8.798
54849SOL     OW66379   3.494   9.381   7.768
54849SOL    HW166380   3.560   9.349   7.829
54849SOL    HW266381   3.541   9.445   7.714
54850SOL     OW66382   7.858  12.187  10.175
54850SOL    HW166383   7.803  12.242  10.231
54850SOL    HW266384   7.859  12.102  10.219
54851SOL     OW66385   8.390  13.637   1.263
54851SOL    HW166386   8.460  13.702   1.264
54851SOL    HW266387   8.423  13.566   1.207
54852SOL     OW66388   7.575   1.585   4.588
54852SOL    HW166389   7.575   1.545   4.675
54852SOL    HW266390   7.667   1.583   4.561
54853SOL     OW66391  10.630   5.257   0.028
54853SOL    HW166392  10.681   5.177   0.042
54853SOL    HW266393  10.540   5.225   0.016
54854SOL     OW66394   8.870   9.254  12.349
54854SOL    HW166395   8.795   9.237  12.292
54854SOL    HW266396   8.850   9.338  12.391
54855SOL     OW66397   8.900   0.236   6.544
54855SOL    HW166398   8.882   0.326   6.516
54855SOL    HW266399   8.994   0.235   6.563
54856SOL     OW66400  12.144   1.915   4.159
54856SOL    HW166401  12.092   1.931   4.081
54856SOL    HW266402  12.234   1.910   4.127
54857SOL     OW66403   7.491   1.997   2.869
54857SOL    HW166404   7.426   1.929   2.853
54857SOL    HW266405   7.514   2.030   2.782
54858SOL     OW66406   7.789  11.122  11.455
54858SOL    HW166407   7.695  11.128  11.469
54858SOL    HW266408   7.824  11.086  11.537
54859SOL     OW66409   1.239   3.899   0.405
54859SOL    HW166410   1.314   3.893   0.345
54859SOL    HW266411   1.271   3.860   0.487
54860SOL     OW66412  13.965   9.988   0.889
54860SOL    HW166413  13.876  10.022   0.893
54860SOL    HW266414  13.987   9.989   0.796
54861SOL     OW66415   7.755  10.870   0.552
54861SOL    HW166416   7.824  10.902   0.494
54861SOL    HW266417   7.703  10.948   0.573
54862SOL     OW66418   4.744   4.320   1.323
54862SOL    HW166419   4.728   4.412   1.344
54862SOL    HW266420   4.729   4.314   1.229
54863SOL     OW66421  10.732   1.102  13.500
54863SOL    HW166422  10.752   1.130  13.589
54863SOL    HW266423  10.637   1.094  13.498
54864SOL     OW66424   1.358  14.043  11.546
54864SOL    HW166425   1.283  13.989  11.572
54864SOL    HW266426   1.433  13.983  11.548
54865SOL     OW66427   2.078   5.139  12.336
54865SOL    HW166428   2.110   5.111  12.250
54865SOL    HW266429   2.079   5.235  12.331
54866SOL     OW66430   6.971   1.491  10.054
54866SOL    HW166431   6.966   1.572  10.106
54866SOL    HW266432   7.016   1.429  10.112
54867SOL     OW66433   2.956   2.823   4.702
54867SOL    HW166434   2.928   2.777   4.781
54867SOL    HW266435   2.900   2.901   4.699
54868SOL     OW66436  12.025   4.722   5.987
54868SOL    HW166437  12.101   4.740   6.042
54868SOL    HW266438  11.952   4.715   6.049
54869SOL     OW66439   6.821   8.737   1.892
54869SOL    HW166440   6.878   8.790   1.948
54869SOL    HW266441   6.849   8.758   1.803
54870SOL     OW66442  13.614  10.080   6.345
54870SOL    HW166443  13.661  10.149   6.298
54870SOL    HW266444  13.640  10.091   6.436
54871SOL     OW66445  10.297  11.850   0.454
54871SOL    HW166446  10.269  11.831   0.364
54871SOL    HW266447  10.216  11.865   0.502
54872SOL     OW66448   2.472   4.814  13.415
54872SOL    HW166449   2.510   4.785  13.497
54872SOL    HW266450   2.456   4.734  13.365
54873SOL     OW66451   3.832   2.303  13.707
54873SOL    HW166452   3.841   2.322  13.801
54873SOL    HW266453   3.915   2.264  13.682
54874SOL     OW66454   1.345  11.366  13.384
54874SOL    HW166455   1.319  11.330  13.469
54874SOL    HW266456   1.277  11.336  13.324
54875SOL     OW66457   8.567   4.508  10.663
54875SOL    HW166458   8.554   4.475  10.574
54875SOL    HW266459   8.493   4.473  10.713
54876SOL     OW66460   4.291   8.817   8.432
54876SOL    HW166461   4.379   8.827   8.466
54876SOL    HW266462   4.239   8.883   8.479
54877SOL     OW66463   1.180   3.462   6.938
54877SOL    HW166464   1.148   3.550   6.960
54877SOL    HW266465   1.235   3.476   6.861
54878SOL     OW66466   9.699   2.068   1.168
54878SOL    HW166467   9.741   2.125   1.103
54878SOL    HW266468   9.682   2.125   1.243
54879SOL     OW66469  11.651  11.497   9.102
54879SOL    HW166470  11.739  11.460   9.103
54879SOL    HW266471  11.638  11.531   9.191
54880SOL     OW66472  10.345   1.492  13.212
54880SOL    HW166473  10.331   1.428  13.143
54880SOL    HW266474  10.262   1.539  13.219
54881SOL     OW66475  10.307  10.342   1.460
54881SOL    HW166476  10.229  10.382   1.496
54881SOL    HW266477  10.337  10.402   1.392
54882SOL     OW66478  13.733   2.927   4.598
54882SOL    HW166479  13.712   2.917   4.506
54882SOL    HW266480  13.680   2.861   4.642
54883SOL     OW66481   6.532   2.627  11.432
54883SOL    HW166482   6.622   2.598  11.445
54883SOL    HW266483   6.515   2.687  11.505
54884SOL     OW66484   0.813  11.569  11.089
54884SOL    HW166485   0.827  11.663  11.073
54884SOL    HW266486   0.833  11.558  11.182
54885SOL     OW66487   9.680  14.240  12.527
54885SOL    HW166488   9.773  14.227  12.507
54885SOL    HW266489   9.636  14.235  12.443
54886SOL     OW66490   0.963   7.544   9.121
54886SOL    HW166491   0.979   7.638   9.131
54886SOL    HW266492   0.967   7.509   9.210
54887SOL     OW66493  12.861   8.277   4.927
54887SOL    HW166494  12.801   8.248   4.995
54887SOL    HW266495  12.808   8.278   4.847
54888SOL     OW66496   8.657   3.631   3.423
54888SOL    HW166497   8.624   3.702   3.478
54888SOL    HW266498   8.725   3.671   3.369
54889SOL     OW66499   1.795   9.617   6.609
54889SOL    HW166500   1.783   9.532   6.652
54889SOL    HW266501   1.824   9.676   6.678
54890SOL     OW66502   2.460   0.527   9.052
54890SOL    HW166503   2.385   0.581   9.027
54890SOL    HW266504   2.525   0.545   8.984
54891SOL     OW66505   0.932   4.449   2.412
54891SOL    HW166506   1.028   4.451   2.415
54891SOL    HW266507   0.907   4.538   2.388
54892SOL     OW66508  13.922  11.303  14.494
54892SOL    HW166509  13.949  11.223  14.538
54892SOL    HW266510  13.886  11.359  14.563
54893SOL     OW66511   2.180  13.999   2.777
54893SOL    HW166512   2.167  13.994   2.682
54893SOL    HW266513   2.149  13.915   2.810
54894SOL     OW66514   1.615  11.985  11.785
54894SOL    HW166515   1.668  12.061  11.760
54894SOL    HW266516   1.676  11.929  11.833
54895SOL     OW66517   6.235   0.137   2.390
54895SOL    HW166518   6.184   0.180   2.459
54895SOL    HW266519   6.318   0.184   2.390
54896SOL     OW66520  14.170   6.631   6.333
54896SOL    HW166521  14.225   6.708   6.318
54896SOL    HW266522  14.102   6.661   6.392
54897SOL     OW66523   6.279   7.964   4.117
54897SOL    HW166524   6.259   7.995   4.028
54897SOL    HW266525   6.258   8.039   4.173
54898SOL     OW66526  11.905  11.262   7.934
54898SOL    HW166527  11.835  11.288   7.875
54898SOL    HW266528  11.880  11.299   8.019
54899SOL     OW66529  11.178   9.711   2.316
54899SOL    HW166530  11.169   9.772   2.389
54899SOL    HW266531  11.174   9.624   2.357
54900SOL     OW66532   1.878   3.543   1.313
54900SOL    HW166533   1.820   3.467   1.318
54900SOL    HW266534   1.843   3.605   1.377
54901SOL     OW66535   4.436  12.726  12.892
54901SOL    HW166536   4.437  12.642  12.938
54901SOL    HW266537   4.345  12.756  12.899
54902SOL     OW66538   3.262  13.244   1.578
54902SOL    HW166539   3.332  13.269   1.517
54902SOL    HW266540   3.222  13.167   1.539
54903SOL     OW66541   2.114  13.497   5.814
54903SOL    HW166542   2.105  13.591   5.831
54903SOL    HW266543   2.157  13.462   5.892
54904SOL     OW66544   7.573   1.166   1.377
54904SOL    HW166545   7.664   1.172   1.408
54904SOL    HW266546   7.572   1.087   1.322
54905SOL     OW66547   3.860   2.460   0.749
54905SOL    HW166548   3.938   2.509   0.724
54905SOL    HW266549   3.888   2.369   0.754
54906SOL     OW66550   9.557  12.629  13.137
54906SOL    HW166551   9.514  12.612  13.053
54906SOL    HW266552   9.621  12.698  13.117
54907SOL     OW66553  14.784   2.409   4.478
54907SOL    HW166554  14.697   2.371   4.485
54907SOL    HW266555  14.819   2.407   4.567
54908SOL     OW66556   0.050   6.835   2.059
54908SOL    HW166557   0.142   6.860   2.073
54908SOL    HW266558   0.012   6.834   2.147
54909SOL     OW66559   6.853  10.960   3.180
54909SOL    HW166560   6.835  10.965   3.273
54909SOL    HW266561   6.778  11.002   3.138
54910SOL     OW66562   9.556  12.438  10.136
54910SOL    HW166563   9.558  12.456  10.230
54910SOL    HW266564   9.613  12.506  10.098
54911SOL     OW66565  13.272   1.597   2.227
54911SOL    HW166566  13.303   1.682   2.258
54911SOL    HW266567  13.202   1.573   2.287
54912SOL     OW66568   2.874   6.688   0.862
54912SOL    HW166569   2.861   6.650   0.775
54912SOL    HW266570   2.904   6.614   0.915
54913SOL     OW66571   7.091   9.157   6.227
54913SOL    HW166572   7.006   9.135   6.190
54913SOL    HW266573   7.085   9.128   6.318
54914SOL     OW66574   8.483  12.332   0.223
54914SOL    HW166575   8.425  12.379   0.163
54914SOL    HW266576   8.424  12.286   0.283
54915SOL     OW66577   3.084  14.732   8.930
54915SOL    HW166578   3.084  14.660   8.993
54915SOL    HW266579   3.078  14.811   8.983
54916SOL     OW66580   1.313  11.011  10.552
54916SOL    HW166581   1.379  10.946  10.529
54916SOL    HW266582   1.351  11.095  10.525
54917SOL     OW66583  11.856   1.491  13.323
54917SOL    HW166584  11.818   1.500  13.236
54917SOL    HW266585  11.943   1.531  13.315
54918SOL     OW66586   1.667   6.932  10.362
54918SOL    HW166587   1.605   6.859  10.358
54918SOL    HW266588   1.661   6.974  10.277
54919SOL     OW66589  10.508   9.319   4.697
54919SOL    HW166590  10.587   9.366   4.670
54919SOL    HW266591  10.501   9.246   4.635
54920SOL     OW66592  12.611   0.718   2.262
54920SOL    HW166593  12.572   0.653   2.320
54920SOL    HW266594  12.666   0.667   2.202
54921SOL     OW66595  11.593   9.092   6.662
54921SOL    HW166596  11.510   9.140   6.659
54921SOL    HW266597  11.577   9.013   6.611
54922SOL     OW66598   3.962   3.027   6.432
54922SOL    HW166599   3.943   2.953   6.374
54922SOL    HW266600   4.042   3.066   6.396
54923SOL     OW66601  12.585   5.635   6.674
54923SOL    HW166602  12.579   5.692   6.598
54923SOL    HW266603  12.495   5.611   6.694
54924SOL     OW66604   1.836  13.976   8.864
54924SOL    HW166605   1.807  14.066   8.881
54924SOL    HW266606   1.922  13.986   8.824
54925SOL     OW66607   0.665   8.930  10.053
54925SOL    HW166608   0.760   8.924  10.058
54925SOL    HW266609   0.637   8.843  10.026
54926SOL     OW66610   0.138   1.428  10.388
54926SOL    HW166611   0.091   1.345  10.375
54926SOL    HW266612   0.230   1.404  10.385
54927SOL     OW66613   4.547   1.433   1.399
54927SOL    HW166614   4.530   1.507   1.341
54927SOL    HW266615   4.527   1.356   1.347
54928SOL     OW66616   6.182   0.973   2.670
54928SOL    HW166617   6.165   0.888   2.628
54928SOL    HW266618   6.130   0.970   2.750
54929SOL     OW66619   1.144   0.561  13.761
54929SOL    HW166620   1.108   0.643  13.796
54929SOL    HW266621   1.174   0.585  13.673
54930SOL     OW66622   8.775   5.598   0.277
54930SOL    HW166623   8.820   5.522   0.312
54930SOL    HW266624   8.844   5.655   0.244
54931SOL     OW66625   6.831   5.114   3.200
54931SOL    HW166626   6.825   5.188   3.261
54931SOL    HW266627   6.743   5.076   3.200
54932SOL     OW66628   4.057  13.327   0.363
54932SOL    HW166629   4.069  13.377   0.444
54932SOL    HW266630   4.146  13.308   0.334
54933SOL     OW66631   5.607   7.220   5.697
54933SOL    HW166632   5.516   7.190   5.696
54933SOL    HW266633   5.615   7.267   5.780
54934SOL     OW66634   6.791   8.256   4.917
54934SOL    HW166635   6.771   8.277   5.008
54934SOL    HW266636   6.730   8.187   4.894
54935SOL     OW66637   7.842   5.845   6.786
54935SOL    HW166638   7.901   5.829   6.859
54935SOL    HW266639   7.765   5.887   6.826
54936SOL     OW66640   4.077   9.905   2.807
54936SOL    HW166641   4.169   9.880   2.812
54936SOL    HW266642   4.069   9.979   2.867
54937SOL     OW66643   6.514   7.074   5.762
54937SOL    HW166644   6.538   7.141   5.826
54937SOL    HW266645   6.455   7.119   5.701
54938SOL     OW66646   9.984  12.170   0.445
54938SOL    HW166647   9.962  12.153   0.354
54938SOL    HW266648  10.003  12.084   0.482
54939SOL     OW66649   5.999   7.556   9.036
54939SOL    HW166650   6.077   7.591   8.993
54939SOL    HW266651   5.926   7.597   8.990
54940SOL     OW66652   8.739   7.125   4.001
54940SOL    HW166653   8.727   7.168   4.085
54940SOL    HW266654   8.795   7.049   4.021
54941SOL     OW66655   2.483  14.129   7.157
54941SOL    HW166656   2.547  14.059   7.147
54941SOL    HW266657   2.535  14.209   7.163
54942SOL     OW66658  11.634   7.320   3.121
54942SOL    HW166659  11.677   7.322   3.035
54942SOL    HW266660  11.706   7.304   3.183
54943SOL     OW66661   3.606  12.133  14.701
54943SOL    HW166662   3.613  12.096  14.613
54943SOL    HW266663   3.537  12.199  14.694
54944SOL     OW66664   4.221  14.527   9.852
54944SOL    HW166665   4.227  14.567   9.938
54944SOL    HW266666   4.131  14.544   9.824
54945SOL     OW66667   4.490   8.144   8.312
54945SOL    HW166668   4.406   8.157   8.268
54945SOL    HW266669   4.506   8.050   8.303
54946SOL     OW66670   8.778   2.445  13.497
54946SOL    HW166671   8.864   2.410  13.476
54946SOL    HW266672   8.727   2.369  13.525
54947SOL     OW66673   2.543  10.595   8.877
54947SOL    HW166674   2.614  10.569   8.818
54947SOL    HW266675   2.588  10.636   8.951
54948SOL     OW66676   8.489   6.828   0.731
54948SOL    HW166677   8.545   6.751   0.728
54948SOL    HW266678   8.535   6.890   0.787
54949SOL     OW66679   4.995  11.111  12.808
54949SOL    HW166680   5.067  11.067  12.763
54949SOL    HW266681   5.028  11.200  12.825
54950SOL     OW66682   7.222   5.036   4.080
54950SOL    HW166683   7.232   5.125   4.046
54950SOL    HW266684   7.128   5.028   4.097
54951SOL     OW66685   6.350  13.004   8.033
54951SOL    HW166686   6.396  12.924   8.059
54951SOL    HW266687   6.379  13.070   8.096
54952SOL     OW66688  13.573   7.856  12.969
54952SOL    HW166689  13.632   7.795  12.923
54952SOL    HW266690  13.566   7.820  13.057
54953SOL     OW66691   6.327   2.451   1.070
54953SOL    HW166692   6.275   2.524   1.104
54953SOL    HW266693   6.404   2.492   1.031
54954SOL     OW66694   6.553   0.283   0.286
54954SOL    HW166695   6.555   0.264   0.192
54954SOL    HW266696   6.465   0.258   0.313
54955SOL     OW66697   4.657  14.302  12.369
54955SOL    HW166698   4.608  14.384  12.367
54955SOL    HW266699   4.667  14.278  12.277
54956SOL     OW66700  10.837   5.549   7.267
54956SOL    HW166701  10.769   5.615   7.251
54956SOL    HW266702  10.855   5.556   7.360
54957SOL     OW66703   0.911   5.911   5.418
54957SOL    HW166704   0.893   5.904   5.324
54957SOL    HW266705   0.916   6.005   5.435
54958SOL     OW66706   9.103   4.812  13.479
54958SOL    HW166707   9.131   4.797  13.569
54958SOL    HW266708   9.010   4.831  13.486
54959SOL     OW66709  10.256   4.851  12.985
54959SOL    HW166710  10.227   4.774  13.034
54959SOL    HW266711  10.275   4.818  12.897
54960SOL     OW66712   3.224   2.440  13.104
54960SOL    HW166713   3.211   2.366  13.046
54960SOL    HW266714   3.213   2.517  13.048
54961SOL     OW66715   9.448   9.849   5.550
54961SOL    HW166716   9.357   9.868   5.573
54961SOL    HW266717   9.495   9.855   5.633
54962SOL     OW66718  12.863  14.600   0.317
54962SOL    HW166719  12.771  14.621   0.305
54962SOL    HW266720  12.890  14.563   0.233
54963SOL     OW66721  14.534   1.757  14.114
54963SOL    HW166722  14.545   1.757  14.019
54963SOL    HW266723  14.533   1.664  14.138
54964SOL     OW66724  10.469   0.107   3.251
54964SOL    HW166725  10.434   0.179   3.199
54964SOL    HW266726  10.546   0.078   3.202
54965SOL     OW66727  13.698   5.786   4.957
54965SOL    HW166728  13.618   5.786   4.904
54965SOL    HW266729  13.687   5.860   5.017
54966SOL     OW66730  10.717   8.063   9.542
54966SOL    HW166731  10.699   8.066   9.636
54966SOL    HW266732  10.639   8.100   9.500
54967SOL     OW66733   2.911  13.817   4.313
54967SOL    HW166734   2.904  13.770   4.231
54967SOL    HW266735   2.960  13.896   4.292
54968SOL     OW66736  10.751   1.872   1.816
54968SOL    HW166737  10.801   1.796   1.846
54968SOL    HW266738  10.690   1.889   1.887
54969SOL     OW66739   8.934  13.519  10.885
54969SOL    HW166740   8.992  13.594  10.873
54969SOL    HW266741   8.891  13.535  10.969
54970SOL     OW66742   3.847   8.206  13.043
54970SOL    HW166743   3.798   8.266  12.987
54970SOL    HW266744   3.862   8.255  13.124
54971SOL     OW66745  10.878  10.121   8.890
54971SOL    HW166746  10.822  10.086   8.821
54971SOL    HW266747  10.832  10.199   8.922
54972SOL     OW66748  11.150   7.934   8.808
54972SOL    HW166749  11.095   7.992   8.861
54972SOL    HW266750  11.100   7.853   8.802
54973SOL     OW66751   7.468   8.066  11.665
54973SOL    HW166752   7.525   8.089  11.592
54973SOL    HW266753   7.389   8.119  11.652
54974SOL     OW66754   5.166   1.820  10.358
54974SOL    HW166755   5.194   1.774  10.437
54974SOL    HW266756   5.247   1.854  10.320
54975SOL     OW66757  14.363   3.590   5.186
54975SOL    HW166758  14.449   3.631   5.188
54975SOL    HW266759  14.318   3.623   5.264
54976SOL     OW66760  13.603   1.875  11.133
54976SOL    HW166761  13.639   1.908  11.215
54976SOL    HW266762  13.671   1.816  11.099
54977SOL     OW66763   2.610  12.002   2.929
54977SOL    HW166764   2.700  11.988   2.898
54977SOL    HW266765   2.617  12.077   2.988
54978SOL     OW66766   9.392  12.950  13.258
54978SOL    HW166767   9.317  13.000  13.225
54978SOL    HW266768   9.412  12.991  13.342
54979SOL     OW66769   7.944   9.131   5.138
54979SOL    HW166770   7.977   9.212   5.178
54979SOL    HW266771   7.963   9.063   5.203
54980SOL     OW66772   5.043  11.573  14.561
54980SOL    HW166773   5.078  11.557  14.473
54980SOL    HW266774   5.035  11.668  14.566
54981SOL     OW66775  10.642   7.145  10.393
54981SOL    HW166776  10.603   7.228  10.419
54981SOL    HW266777  10.714   7.132  10.454
54982SOL     OW66778   4.766   5.256   4.501
54982SOL    HW166779   4.678   5.289   4.481
54982SOL    HW266780   4.765   5.166   4.470
54983SOL     OW66781  12.214   8.207   5.331
54983SOL    HW166782  12.264   8.271   5.383
54983SOL    HW266783  12.153   8.261   5.279
54984SOL     OW66784   6.624   5.063   8.737
54984SOL    HW166785   6.586   5.112   8.811
54984SOL    HW266786   6.705   5.109   8.717
54985SOL     OW66787   3.665  14.025   5.011
54985SOL    HW166788   3.596  14.028   4.944
54985SOL    HW266789   3.642  14.094   5.073
54986SOL     OW66790   1.576   9.234   4.081
54986SOL    HW166791   1.601   9.290   4.155
54986SOL    HW266792   1.584   9.291   4.005
54987SOL     OW66793  13.651   7.389   1.448
54987SOL    HW166794  13.609   7.459   1.498
54987SOL    HW266795  13.578   7.336   1.415
54988SOL     OW66796   5.096   3.433   4.296
54988SOL    HW166797   5.071   3.498   4.362
54988SOL    HW266798   5.183   3.404   4.324
54989SOL     OW66799  12.845   6.200   4.983
54989SOL    HW166800  12.883   6.216   4.897
54989SOL    HW266801  12.798   6.281   5.003
54990SOL     OW66802   5.498   3.849  12.080
54990SOL    HW166803   5.465   3.939  12.080
54990SOL    HW266804   5.442   3.802  12.141
54991SOL     OW66805   8.566   1.521   0.652
54991SOL    HW166806   8.639   1.497   0.708
54991SOL    HW266807   8.562   1.452   0.585
54992SOL     OW66808   1.761   5.071   1.474
54992SOL    HW166809   1.823   5.045   1.541
54992SOL    HW266810   1.802   5.043   1.392
54993SOL     OW66811   0.817  11.656   9.977
54993SOL    HW166812   0.909  11.653   9.948
54993SOL    HW266813   0.768  11.682   9.899
54994SOL     OW66814   0.040   0.860   1.006
54994SOL    HW166815   0.098   0.934   0.989
54994SOL    HW266816  14.873   0.845   0.924
54995SOL     OW66817   7.441  13.438   6.057
54995SOL    HW166818   7.452  13.365   5.996
54995SOL    HW266819   7.501  13.419   6.129
54996SOL     OW66820  12.913  12.931   1.398
54996SOL    HW166821  12.992  12.962   1.354
54996SOL    HW266822  12.930  12.942   1.491
54997SOL     OW66823  10.208  12.762   7.322
54997SOL    HW166824  10.155  12.683   7.309
54997SOL    HW266825  10.144  12.832   7.335
54998SOL     OW66826   4.755   7.123  12.043
54998SOL    HW166827   4.848   7.110  12.028
54998SOL    HW266828   4.741   7.216  12.026
54999SOL     OW66829   5.312   2.797   4.266
54999SOL    HW166830   5.314   2.876   4.319
54999SOL    HW266831   5.403   2.768   4.262
55000SOL     OW66832  12.618   2.847   4.772
55000SOL    HW166833  12.611   2.937   4.804
55000SOL    HW266834  12.533   2.829   4.732
55001SOL     OW66835   0.833   5.365   0.764
55001SOL    HW166836   0.899   5.370   0.832
55001SOL    HW266837   0.882   5.365   0.682
55002SOL     OW66838   1.609  13.865   2.433
55002SOL    HW166839   1.531  13.816   2.457
55002SOL    HW266840   1.586  13.909   2.351
55003SOL     OW66841   6.894   6.453   7.640
55003SOL    HW166842   6.983   6.423   7.654
55003SOL    HW266843   6.888   6.535   7.690
55004SOL     OW66844   3.332   3.087   2.756
55004SOL    HW166845   3.403   3.023   2.757
55004SOL    HW266846   3.359   3.151   2.689
55005SOL     OW66847   7.707   8.968   8.425
55005SOL    HW166848   7.622   8.937   8.457
55005SOL    HW266849   7.760   8.979   8.504
55006SOL     OW66850   1.838   6.832   4.949
55006SOL    HW166851   1.756   6.841   4.900
55006SOL    HW266852   1.905   6.863   4.888
55007SOL     OW66853  12.232  11.281  11.771
55007SOL    HW166854  12.214  11.299  11.679
55007SOL    HW266855  12.323  11.307  11.783
55008SOL     OW66856  12.474   6.539   3.824
55008SOL    HW166857  12.430   6.564   3.906
55008SOL    HW266858  12.410   6.483   3.779
55009SOL     OW66859   3.944  11.472  10.863
55009SOL    HW166860   4.021  11.422  10.836
55009SOL    HW266861   3.949  11.553  10.812
55010SOL     OW66862  11.512   5.031   5.490
55010SOL    HW166863  11.585   5.084   5.458
55010SOL    HW266864  11.450   5.094   5.525
55011SOL     OW66865   3.857   2.027   0.189
55011SOL    HW166866   3.857   1.987   0.102
55011SOL    HW266867   3.833   2.118   0.172
55012SOL     OW66868   8.804   5.920   4.789
55012SOL    HW166869   8.730   5.967   4.750
55012SOL    HW266870   8.768   5.836   4.816
55013SOL     OW66871   8.315   3.827   2.001
55013SOL    HW166872   8.298   3.890   1.930
55013SOL    HW266873   8.396   3.858   2.041
55014SOL     OW66874   2.121   4.063   7.097
55014SOL    HW166875   2.094   4.002   7.029
55014SOL    HW266876   2.137   4.145   7.051
55015SOL     OW66877   2.828   8.320   7.083
55015SOL    HW166878   2.890   8.331   7.011
55015SOL    HW266879   2.797   8.408   7.102
55016SOL     OW66880   5.432   9.290  11.520
55016SOL    HW166881   5.416   9.369  11.469
55016SOL    HW266882   5.374   9.298  11.596
55017SOL     OW66883   1.416  10.052   3.825
55017SOL    HW166884   1.334  10.035   3.780
55017SOL    HW266885   1.400  10.133   3.874
55018SOL     OW66886   1.233   0.032   9.387
55018SOL    HW166887   1.251   0.019   9.294
55018SOL    HW266888   1.192  14.829   9.415
55019SOL     OW66889   4.756   3.885   1.543
55019SOL    HW166890   4.804   3.938   1.480
55019SOL    HW266891   4.745   3.941   1.619
55020SOL     OW66892   0.902  14.565   4.991
55020SOL    HW166893   0.951  14.602   5.064
55020SOL    HW266894   0.963  14.571   4.917
55021SOL     OW66895   7.396  10.316  10.581
55021SOL    HW166896   7.373  10.339  10.491
55021SOL    HW266897   7.312  10.306  10.626
55022SOL     OW66898   2.436   2.132   2.283
55022SOL    HW166899   2.346   2.142   2.253
55022SOL    HW266900   2.483   2.206   2.243
55023SOL     OW66901   2.646   8.051  13.871
55023SOL    HW166902   2.568   8.007  13.904
55023SOL    HW266903   2.709   7.980  13.857
55024SOL     OW66904   5.573  13.743   0.943
55024SOL    HW166905   5.568  13.649   0.961
55024SOL    HW266906   5.558  13.750   0.849
55025SOL     OW66907   0.511   6.986  13.503
55025SOL    HW166908   0.603   7.011  13.512
55025SOL    HW266909   0.513   6.896  13.472
55026SOL     OW66910   5.579   4.848   4.980
55026SOL    HW166911   5.584   4.754   4.968
55026SOL    HW266912   5.656   4.871   5.033
55027SOL     OW66913   8.950   4.958  11.481
55027SOL    HW166914   8.946   4.981  11.388
55027SOL    HW266915   9.038   4.922  11.492
55028SOL     OW66916  12.794  12.829   8.314
55028SOL    HW166917  12.850  12.755   8.338
55028SOL    HW266918  12.846  12.906   8.334
55029SOL     OW66919   1.939   6.038   2.747
55029SOL    HW166920   2.019   6.012   2.794
55029SOL    HW266921   1.944   5.991   2.664
55030SOL     OW66922  10.297   3.199   6.092
55030SOL    HW166923  10.260   3.167   6.174
55030SOL    HW266924  10.390   3.176   6.097
55031SOL     OW66925   3.203   8.300   2.056
55031SOL    HW166926   3.119   8.287   2.014
55031SOL    HW266927   3.242   8.375   2.010
55032SOL     OW66928  11.340   5.425   1.584
55032SOL    HW166929  11.407   5.433   1.516
55032SOL    HW266930  11.353   5.337   1.619
55033SOL     OW66931   0.724   2.839   4.061
55033SOL    HW166932   0.811   2.875   4.041
55033SOL    HW266933   0.723   2.834   4.157
55034SOL     OW66934   1.335   2.079   7.291
55034SOL    HW166935   1.393   2.075   7.367
55034SOL    HW266936   1.247   2.078   7.328
55035SOL     OW66937  11.727   9.178   1.131
55035SOL    HW166938  11.773   9.258   1.105
55035SOL    HW266939  11.639   9.207   1.153
55036SOL     OW66940   2.507   8.051  10.128
55036SOL    HW166941   2.564   8.116  10.168
55036SOL    HW266942   2.451   8.102  10.069
55037SOL     OW66943  11.105   6.175   0.437
55037SOL    HW166944  11.138   6.115   0.503
55037SOL    HW266945  11.180   6.193   0.380
55038SOL     OW66946   3.695   6.295   8.230
55038SOL    HW166947   3.714   6.384   8.261
55038SOL    HW266948   3.770   6.243   8.261
55039SOL     OW66949   7.992   2.926   4.223
55039SOL    HW166950   7.970   2.907   4.314
55039SOL    HW266951   7.908   2.948   4.182
55040SOL     OW66952  14.281   1.889   0.374
55040SOL    HW166953  14.260   1.851   0.459
55040SOL    HW266954  14.333   1.822   0.330
55041SOL     OW66955  14.876  13.605   3.359
55041SOL    HW166956  14.811  13.630   3.424
55041SOL    HW266957  14.857  13.513   3.339
55042SOL     OW66958   5.804   9.487   0.199
55042SOL    HW166959   5.782   9.478   0.292
55042SOL    HW266960   5.777   9.404   0.160
55043SOL     OW66961   7.438   0.006  11.168
55043SOL    HW166962   7.525  14.844  11.169
55043SOL    HW266963   7.446   0.077  11.104
55044SOL     OW66964  11.917  12.849   4.635
55044SOL    HW166965  11.963  12.882   4.558
55044SOL    HW266966  11.926  12.754   4.630
55045SOL     OW66967  12.394   2.691   2.349
55045SOL    HW166968  12.420   2.766   2.403
55045SOL    HW266969  12.476   2.658   2.313
55046SOL     OW66970   8.572   2.018  14.668
55046SOL    HW166971   8.603   1.986  14.584
55046SOL    HW266972   8.587   1.945  14.728
55047SOL     OW66973  11.987   7.888  12.540
55047SOL    HW166974  12.041   7.932  12.475
55047SOL    HW266975  12.018   7.921  12.624
55048SOL     OW66976   6.323   3.523  10.139
55048SOL    HW166977   6.288   3.601  10.096
55048SOL    HW266978   6.250   3.490  10.192
55049SOL     OW66979   1.922  12.009   5.196
55049SOL    HW166980   1.906  12.082   5.137
55049SOL    HW266981   2.009  12.026   5.233
55050SOL     OW66982   6.733   3.206   1.612
55050SOL    HW166983   6.819   3.178   1.579
55050SOL    HW266984   6.754   3.277   1.673
55051SOL     OW66985   4.013   6.211  13.489
55051SOL    HW166986   4.017   6.307  13.484
55051SOL    HW266987   4.104   6.184  13.497
55052SOL     OW66988  10.555   5.109   1.230
55052SOL    HW166989  10.590   5.047   1.295
55052SOL    HW266990  10.476   5.068   1.197
55053SOL     OW66991   4.751   0.867   5.151
55053SOL    HW166992   4.844   0.881   5.134
55053SOL    HW266993   4.708   0.942   5.111
55054SOL     OW66994  13.744   1.316   5.799
55054SOL    HW166995  13.718   1.226   5.817
55054SOL    HW266996  13.679   1.370   5.845
55055SOL     OW66997   5.501   9.089   2.975
55055SOL    HW166998   5.553   9.028   2.924
55055SOL    HW266999   5.564   9.153   3.008
55056SOL     OW67000   8.195   2.466  14.866
55056SOL    HW167001   8.203   2.374   0.012
55056SOL    HW267002   8.108   2.472  14.827
55057SOL     OW67003   9.157   6.582  11.709
55057SOL    HW167004   9.171   6.671  11.677
55057SOL    HW267005   9.080   6.551  11.661
55058SOL     OW67006   3.206  14.298   5.648
55058SOL    HW167007   3.265  14.348   5.704
55058SOL    HW267008   3.232  14.320   5.559
55059SOL     OW67009   9.001   5.100  12.138
55059SOL    HW167010   8.967   5.019  12.177
55059SOL    HW267011   9.043   5.072  12.057
55060SOL     OW67012   0.591   0.122   8.016
55060SOL    HW167013   0.633   0.138   8.100
55060SOL    HW267014   0.502   0.157   8.027
55061SOL     OW67015  11.132  12.521   4.818
55061SOL    HW167016  11.063  12.470   4.776
55061SOL    HW267017  11.126  12.608   4.778
55062SOL     OW67018   9.822  12.896   5.878
55062SOL    HW167019   9.907  12.925   5.911
55062SOL    HW267020   9.763  12.904   5.953
55063SOL     OW67021   5.981   5.552   0.961
55063SOL    HW167022   6.075   5.554   0.944
55063SOL    HW267023   5.965   5.626   1.019
55064SOL     OW67024  11.135  12.714   4.299
55064SOL    HW167025  11.118  12.759   4.216
55064SOL    HW267026  11.224  12.740   4.323
55065SOL     OW67027   6.965   9.358  11.982
55065SOL    HW167028   7.006   9.291  11.926
55065SOL    HW267029   6.875   9.364  11.950
55066SOL     OW67030  13.746   8.396   1.627
55066SOL    HW167031  13.822   8.374   1.574
55066SOL    HW267032  13.747   8.492   1.632
55067SOL     OW67033  10.570   7.729  11.518
55067SOL    HW167034  10.592   7.819  11.542
55067SOL    HW267035  10.636   7.676  11.561
55068SOL     OW67036   0.656   5.250   5.211
55068SOL    HW167037   0.582   5.311   5.204
55068SOL    HW267038   0.733   5.305   5.194
55069SOL     OW67039   2.546  10.773  11.272
55069SOL    HW167040   2.608  10.724  11.327
55069SOL    HW267041   2.535  10.719  11.194
55070SOL     OW67042   8.449  11.236   7.469
55070SOL    HW167043   8.537  11.270   7.454
55070SOL    HW267044   8.459  11.141   7.472
55071SOL     OW67045   8.455  13.779  11.166
55071SOL    HW167046   8.536  13.817  11.200
55071SOL    HW267047   8.483  13.701  11.117
55072SOL     OW67048   1.263   0.034   6.490
55072SOL    HW167049   1.293   0.082   6.412
55072SOL    HW267050   1.182   0.078   6.515
55073SOL     OW67051   4.693  13.732   7.813
55073SOL    HW167052   4.676  13.707   7.904
55073SOL    HW267053   4.696  13.827   7.814
55074SOL     OW67054   5.174   0.665   5.438
55074SOL    HW167055   5.165   0.583   5.391
55074SOL    HW267056   5.169   0.640   5.531
55075SOL     OW67057   3.358   3.772  13.592
55075SOL    HW167058   3.289   3.785  13.657
55075SOL    HW267059   3.436   3.751  13.644
55076SOL     OW67060  11.584   5.788   1.948
55076SOL    HW167061  11.599   5.788   1.854
55076SOL    HW267062  11.514   5.725   1.962
55077SOL     OW67063   3.584   4.086   3.809
55077SOL    HW167064   3.649   4.146   3.846
55077SOL    HW267065   3.605   4.083   3.716
55078SOL     OW67066   6.429   2.587   6.546
55078SOL    HW167067   6.453   2.675   6.574
55078SOL    HW267068   6.504   2.533   6.570
55079SOL     OW67069  10.710  14.451   3.600
55079SOL    HW167070  10.697  14.386   3.531
55079SOL    HW267071  10.623  14.463   3.638
55080SOL     OW67072  14.619   8.426  13.178
55080SOL    HW167073  14.604   8.489  13.107
55080SOL    HW267074  14.532   8.406  13.212
55081SOL     OW67075   1.192  11.953   9.034
55081SOL    HW167076   1.103  11.917   9.037
55081SOL    HW267077   1.241  11.898   9.095
55082SOL     OW67078   9.161  10.414   7.178
55082SOL    HW167079   9.182  10.329   7.216
55082SOL    HW267080   9.155  10.473   7.253
55083SOL     OW67081   1.382   6.348  13.861
55083SOL    HW167082   1.320   6.416  13.834
55083SOL    HW267083   1.331   6.291  13.919
55084SOL     OW67084   1.344   9.747   0.364
55084SOL    HW167085   1.285   9.672   0.374
55084SOL    HW267086   1.379   9.738   0.275
55085SOL     OW67087  11.454   3.862   4.362
55085SOL    HW167088  11.445   3.838   4.269
55085SOL    HW267089  11.536   3.911   4.366
55086SOL     OW67090   7.976   9.640   2.982
55086SOL    HW167091   8.058   9.665   2.940
55086SOL    HW267092   8.001   9.613   3.070
55087SOL     OW67093   2.976   4.048   8.844
55087SOL    HW167094   2.942   3.990   8.776
55087SOL    HW267095   3.070   4.052   8.827
55088SOL     OW67096   5.619   2.002   7.966
55088SOL    HW167097   5.666   2.084   7.973
55088SOL    HW267098   5.534   2.019   8.007
55089SOL     OW67099   2.860   8.020   6.914
55089SOL    HW167100   2.902   8.104   6.894
55089SOL    HW267101   2.899   7.993   6.997
55090SOL     OW67102   0.100  11.511   2.598
55090SOL    HW167103   0.110  11.417   2.589
55090SOL    HW267104   0.044  11.536   2.524
55091SOL     OW67105   5.176   7.395   1.243
55091SOL    HW167106   5.175   7.482   1.203
55091SOL    HW267107   5.132   7.405   1.327
55092SOL     OW67108  10.438   4.474   7.554
55092SOL    HW167109  10.470   4.565   7.555
55092SOL    HW267110  10.515   4.423   7.530
55093SOL     OW67111  11.546   7.725   9.841
55093SOL    HW167112  11.457   7.693   9.831
55093SOL    HW267113  11.540   7.819   9.826
55094SOL     OW67114   9.595   4.582   4.108
55094SOL    HW167115   9.656   4.579   4.182
55094SOL    HW267116   9.541   4.660   4.125
55095SOL     OW67117   6.477   2.704   1.572
55095SOL    HW167118   6.468   2.736   1.662
55095SOL    HW267119   6.396   2.656   1.555
55096SOL     OW67120  10.450   2.824   1.851
55096SOL    HW167121  10.516   2.866   1.795
55096SOL    HW267122  10.500   2.782   1.920
55097SOL     OW67123   2.574  14.186  14.088
55097SOL    HW167124   2.578  14.173  14.182
55097SOL    HW267125   2.595  14.100  14.051
55098SOL     OW67126  12.416   4.060   0.662
55098SOL    HW167127  12.413   4.045   0.757
55098SOL    HW267128  12.331   4.099   0.642
55099SOL     OW67129  13.434   4.972   3.481
55099SOL    HW167130  13.423   4.936   3.392
55099SOL    HW267131  13.511   5.027   3.475
55100SOL     OW67132   4.662  13.098   0.325
55100SOL    HW167133   4.635  13.124   0.413
55100SOL    HW267134   4.580  13.095   0.274
55101SOL     OW67135   2.888   7.724   4.012
55101SOL    HW167136   2.937   7.650   3.975
55101SOL    HW267137   2.804   7.722   3.967
55102SOL     OW67138  13.233  10.872   8.921
55102SOL    HW167139  13.249  10.905   9.009
55102SOL    HW267140  13.319  10.847   8.888
55103SOL     OW67141  14.295  14.373   3.938
55103SOL    HW167142  14.336  14.459   3.931
55103SOL    HW267143  14.319  14.329   3.857
55104SOL     OW67144   8.383   1.610   7.987
55104SOL    HW167145   8.319   1.603   8.058
55104SOL    HW267146   8.464   1.577   8.026
55105SOL     OW67147  10.593  10.515  10.711
55105SOL    HW167148  10.586  10.571  10.633
55105SOL    HW267149  10.555  10.432  10.685
55106SOL     OW67150   9.407   6.919  12.948
55106SOL    HW167151   9.454   6.922  12.865
55106SOL    HW267152   9.322   6.882  12.926
55107SOL     OW67153   9.728  14.221   5.009
55107SOL    HW167154   9.661  14.164   5.047
55107SOL    HW267155   9.808  14.170   5.013
55108SOL     OW67156   1.420  13.294   0.558
55108SOL    HW167157   1.435  13.306   0.652
55108SOL    HW267158   1.326  13.278   0.551
55109SOL     OW67159   3.305   5.762  14.266
55109SOL    HW167160   3.314   5.708  14.345
55109SOL    HW267161   3.214   5.794  14.269
55110SOL     OW67162  12.844  10.194  12.780
55110SOL    HW167163  12.878  10.202  12.869
55110SOL    HW267164  12.787  10.271  12.769
55111SOL     OW67165   9.223   5.616   3.498
55111SOL    HW167166   9.234   5.669   3.419
55111SOL    HW267167   9.303   5.565   3.504
55112SOL     OW67168   2.136   4.979  10.799
55112SOL    HW167169   2.118   5.008  10.710
55112SOL    HW267170   2.232   4.972  10.803
55113SOL     OW67171  11.131   5.757   4.271
55113SOL    HW167172  11.098   5.687   4.327
55113SOL    HW267173  11.199   5.799   4.322
55114SOL     OW67174   4.409   1.965   9.810
55114SOL    HW167175   4.388   2.008   9.727
55114SOL    HW267176   4.358   2.014   9.875
55115SOL     OW67177   9.674   7.003   0.511
55115SOL    HW167178   9.721   6.973   0.589
55115SOL    HW267179   9.732   7.068   0.472
55116SOL     OW67180   1.989   8.479   8.479
55116SOL    HW167181   1.921   8.438   8.426
55116SOL    HW267182   1.997   8.423   8.556
55117SOL     OW67183   8.263  11.408   5.626
55117SOL    HW167184   8.225  11.324   5.651
55117SOL    HW267185   8.337  11.420   5.685
55118SOL     OW67186   5.408   8.086  13.856
55118SOL    HW167187   5.351   8.156  13.888
55118SOL    HW267188   5.352   8.008  13.857
55119SOL     OW67189   9.338   7.070   4.044
55119SOL    HW167190   9.385   7.138   3.996
55119SOL    HW267191   9.246   7.087   4.025
55120SOL     OW67192   5.718  12.013   4.660
55120SOL    HW167193   5.801  12.055   4.682
55120SOL    HW267194   5.664  12.084   4.624
55121SOL     OW67195   5.700   2.362  10.113
55121SOL    HW167196   5.759   2.293  10.143
55121SOL    HW267197   5.616   2.340  10.154
55122SOL     OW67198   5.339  10.447  13.540
55122SOL    HW167199   5.288  10.370  13.561
55122SOL    HW267200   5.428  10.414  13.524
55123SOL     OW67201  14.057   2.999   3.467
55123SOL    HW167202  14.039   3.045   3.550
55123SOL    HW267203  14.071   2.908   3.493
55124SOL     OW67204  13.344   5.947  13.302
55124SOL    HW167205  13.351   6.037  13.271
55124SOL    HW267206  13.320   5.955  13.395
55125SOL     OW67207  13.105   9.282  11.188
55125SOL    HW167208  13.039   9.282  11.258
55125SOL    HW267209  13.054   9.269  11.108
55126SOL     OW67210  10.612  14.445   6.197
55126SOL    HW167211  10.665  14.405   6.129
55126SOL    HW267212  10.524  14.450   6.159
55127SOL     OW67213   2.616   9.459   3.917
55127SOL    HW167214   2.521   9.449   3.912
55127SOL    HW267215   2.629   9.535   3.973
55128SOL     OW67216   8.174   7.494   2.693
55128SOL    HW167217   8.237   7.565   2.705
55128SOL    HW267218   8.121   7.494   2.773
55129SOL     OW67219   5.781   5.228   4.442
55129SOL    HW167220   5.833   5.193   4.370
55129SOL    HW267221   5.717   5.159   4.461
55130SOL     OW67222   9.098   0.954   3.378
55130SOL    HW167223   9.034   1.017   3.412
55130SOL    HW267224   9.105   0.974   3.285
55131SOL     OW67225  13.154  14.071   2.291
55131SOL    HW167226  13.168  14.017   2.213
55131SOL    HW267227  13.059  14.081   2.297
55132SOL     OW67228   8.964   3.832   9.010
55132SOL    HW167229   8.983   3.803   8.921
55132SOL    HW267230   8.905   3.906   8.999
55133SOL     OW67231  10.625   3.703   7.225
55133SOL    HW167232  10.675   3.646   7.168
55133SOL    HW267233  10.609   3.651   7.304
55134SOL     OW67234   5.476  10.799  13.022
55134SOL    HW167235   5.507  10.794  12.931
55134SOL    HW267236   5.519  10.877  13.058
55135SOL     OW67237  10.145   9.601   0.300
55135SOL    HW167238  10.086   9.664   0.260
55135SOL    HW267239  10.224   9.604   0.246
55136SOL     OW67240   2.328   2.223  13.926
55136SOL    HW167241   2.320   2.265  14.012
55136SOL    HW267242   2.366   2.291  13.870
55137SOL     OW67243   1.150   0.865   2.489
55137SOL    HW167244   1.127   0.850   2.581
55137SOL    HW267245   1.082   0.821   2.439
55138SOL     OW67246   5.660   8.773   4.216
55138SOL    HW167247   5.705   8.692   4.188
55138SOL    HW267248   5.731   8.832   4.241
55139SOL     OW67249   8.141  11.822   4.368
55139SOL    HW167250   8.091  11.831   4.287
55139SOL    HW267251   8.075  11.818   4.437
55140SOL     OW67252  12.508   6.144   0.366
55140SOL    HW167253  12.572   6.104   0.308
55140SOL    HW267254  12.553   6.219   0.403
55141SOL     OW67255   8.247  11.538  11.711
55141SOL    HW167256   8.153  11.557  11.710
55141SOL    HW267257   8.271  11.547  11.803
55142SOL     OW67258  11.834  10.630   8.307
55142SOL    HW167259  11.874  10.583   8.380
55142SOL    HW267260  11.788  10.703   8.348
55143SOL     OW67261   8.366   3.825   6.882
55143SOL    HW167262   8.292   3.884   6.895
55143SOL    HW267263   8.437   3.882   6.851
55144SOL     OW67264   1.292   8.336  12.945
55144SOL    HW167265   1.256   8.258  12.902
55144SOL    HW267266   1.224   8.363  13.007
55145SOL     OW67267  14.532   5.315   6.811
55145SOL    HW167268  14.476   5.390   6.830
55145SOL    HW267269  14.496   5.244   6.865
55146SOL     OW67270  12.996  13.430   4.656
55146SOL    HW167271  13.080  13.442   4.701
55146SOL    HW267272  12.986  13.335   4.650
55147SOL     OW67273   9.499   0.822   4.785
55147SOL    HW167274   9.497   0.853   4.695
55147SOL    HW267275   9.512   0.728   4.778
55148SOL     OW67276   3.420  11.167   7.096
55148SOL    HW167277   3.510  11.198   7.101
55148SOL    HW267278   3.373  11.237   7.050
55149SOL     OW67279   5.145   7.029  13.465
55149SOL    HW167280   5.091   7.026  13.544
55149SOL    HW267281   5.094   7.081  13.402
55150SOL     OW67282  10.536   6.560   0.650
55150SOL    HW167283  10.478   6.596   0.582
55150SOL    HW267284  10.579   6.486   0.607
55151SOL     OW67285  14.622   2.474  12.905
55151SOL    HW167286  14.559   2.402  12.895
55151SOL    HW267287  14.707   2.435  12.884
55152SOL     OW67288  13.065   4.324   0.740
55152SOL    HW167289  13.063   4.321   0.644
55152SOL    HW267290  13.015   4.247   0.767
55153SOL     OW67291   1.983   9.340  14.326
55153SOL    HW167292   1.926   9.365  14.399
55153SOL    HW267293   1.966   9.405  14.259
55154SOL     OW67294   5.498  13.972   0.627
55154SOL    HW167295   5.412  14.005   0.653
55154SOL    HW267296   5.560  14.030   0.672
55155SOL     OW67297   6.047   2.784  13.966
55155SOL    HW167298   6.107   2.772  14.039
55155SOL    HW267299   6.095   2.839  13.904
55156SOL     OW67300  13.213   9.369   4.199
55156SOL    HW167301  13.187   9.281   4.226
55156SOL    HW267302  13.306   9.360   4.175
55157SOL     OW67303   3.395   3.794   4.345
55157SOL    HW167304   3.315   3.776   4.295
55157SOL    HW267305   3.459   3.819   4.278
55158SOL     OW67306  14.478  10.184   2.499
55158SOL    HW167307  14.498  10.260   2.553
55158SOL    HW267308  14.558  10.131   2.502
55159SOL     OW67309  12.199   3.174   2.040
55159SOL    HW167310  12.115   3.177   1.994
55159SOL    HW267311  12.201   3.254   2.093
55160SOL     OW67312   4.526  14.524  13.293
55160SOL    HW167313   4.465  14.589  13.327
55160SOL    HW267314   4.478  14.479  13.224
55161SOL     OW67315   7.944   5.684   8.898
55161SOL    HW167316   8.023   5.722   8.936
55161SOL    HW267317   7.891   5.660   8.973
55162SOL     OW67318  10.638  14.460   9.959
55162SOL    HW167319  10.548  14.428   9.970
55162SOL    HW267320  10.690  14.400  10.012
55163SOL     OW67321  11.780   5.501   2.998
55163SOL    HW167322  11.759   5.591   3.023
55163SOL    HW267323  11.706   5.472   2.946
55164SOL     OW67324   0.124  11.534   7.484
55164SOL    HW167325   0.153  11.496   7.566
55164SOL    HW267326   0.048  11.588   7.507
55165SOL     OW67327  11.092   1.020   0.664
55165SOL    HW167328  11.039   0.950   0.702
55165SOL    HW267329  11.068   1.020   0.571
55166SOL     OW67330   0.938   7.258  13.423
55166SOL    HW167331   0.985   7.212  13.354
55166SOL    HW267332   0.977   7.226  13.504
55167SOL     OW67333  11.252   8.650   4.302
55167SOL    HW167334  11.235   8.586   4.232
55167SOL    HW267335  11.343   8.678   4.286
55168SOL     OW67336   4.082   0.438   5.766
55168SOL    HW167337   4.032   0.387   5.829
55168SOL    HW267338   4.031   0.433   5.685
55169SOL     OW67339   9.819  11.015   9.578
55169SOL    HW167340   9.790  11.053   9.661
55169SOL    HW267341   9.813  11.087   9.515
55170SOL     OW67342   6.650   0.345  10.812
55170SOL    HW167343   6.604   0.311  10.736
55170SOL    HW267344   6.617   0.294  10.886
55171SOL     OW67345   4.153   0.303   1.891
55171SOL    HW167346   4.125   0.255   1.813
55171SOL    HW267347   4.156   0.236   1.959
55172SOL     OW67348   5.272   7.282  11.016
55172SOL    HW167349   5.349   7.292  10.960
55172SOL    HW267350   5.301   7.223  11.086
55173SOL     OW67351  11.463  14.131  13.874
55173SOL    HW167352  11.431  14.041  13.863
55173SOL    HW267353  11.554  14.128  13.845
55174SOL     OW67354   1.169   0.246   1.218
55174SOL    HW167355   1.165   0.312   1.286
55174SOL    HW267356   1.080   0.240   1.184
55175SOL     OW67357   8.174   1.617   9.668
55175SOL    HW167358   8.188   1.606   9.762
55175SOL    HW267359   8.235   1.686   9.642
55176SOL     OW67360  14.862   8.126  13.377
55176SOL    HW167361   0.015   8.198  13.323
55176SOL    HW267362   0.062   8.081  13.407
55177SOL     OW67363   7.938  11.062  13.381
55177SOL    HW167364   7.973  10.973  13.369
55177SOL    HW267365   7.937  11.075  13.476
55178SOL     OW67366   5.579   2.589   2.669
55178SOL    HW167367   5.624   2.516   2.712
55178SOL    HW267368   5.506   2.547   2.622
55179SOL     OW67369  13.623  11.389   9.492
55179SOL    HW167370  13.537  11.398   9.452
55179SOL    HW267371  13.648  11.298   9.474
55180SOL     OW67372   0.116   1.549   2.135
55180SOL    HW167373   0.128   1.582   2.046
55180SOL    HW267374   0.035   1.498   2.131
55181SOL     OW67375   6.680   0.505   3.424
55181SOL    HW167376   6.687   0.425   3.477
55181SOL    HW267377   6.593   0.540   3.445
55182SOL     OW67378   3.289   9.809  12.246
55182SOL    HW167379   3.225   9.743  12.220
55182SOL    HW267380   3.264   9.832  12.336
55183SOL     OW67381  10.976   9.884   1.114
55183SOL    HW167382  10.952   9.836   1.193
55183SOL    HW267383  10.973   9.818   1.044
55184SOL     OW67384  10.061   9.008  12.665
55184SOL    HW167385  10.098   8.938  12.611
55184SOL    HW267386   9.972   9.019  12.631
55185SOL     OW67387   2.389  10.948  11.453
55185SOL    HW167388   2.438  10.886  11.399
55185SOL    HW267389   2.450  10.972  11.523
55186SOL     OW67390   6.835   2.953   3.824
55186SOL    HW167391   6.813   2.904   3.745
55186SOL    HW267392   6.930   2.962   3.822
55187SOL     OW67393   7.959   2.718  14.398
55187SOL    HW167394   7.944   2.721  14.304
55187SOL    HW267395   8.011   2.638  14.411
55188SOL     OW67396   1.216   2.438   6.869
55188SOL    HW167397   1.132   2.395   6.884
55188SOL    HW267398   1.196   2.532   6.874
55189SOL     OW67399   8.729  10.472   5.464
55189SOL    HW167400   8.817  10.436   5.455
55189SOL    HW267401   8.672  10.395   5.475
55190SOL     OW67402   3.019   7.189   1.806
55190SOL    HW167403   3.030   7.238   1.888
55190SOL    HW267404   3.018   7.255   1.738
55191SOL     OW67405  12.335   7.583  11.303
55191SOL    HW167406  12.252   7.543  11.277
55191SOL    HW267407  12.314   7.632  11.383
55192SOL     OW67408   9.616   2.559   2.215
55192SOL    HW167409   9.694   2.587   2.263
55192SOL    HW267410   9.552   2.629   2.230
55193SOL     OW67411  14.539   9.234  12.274
55193SOL    HW167412  14.455   9.273  12.295
55193SOL    HW267413  14.531   9.142  12.301
55194SOL     OW67414   5.524   9.207   2.108
55194SOL    HW167415   5.525   9.213   2.012
55194SOL    HW267416   5.482   9.288   2.137
55195SOL     OW67417   0.231  10.320   1.097
55195SOL    HW167418   0.158  10.355   1.046
55195SOL    HW267419   0.260  10.393   1.152
55196SOL     OW67420   5.150   6.485  14.226
55196SOL    HW167421   5.141   6.408  14.169
55196SOL    HW267422   5.088   6.469  14.297
55197SOL     OW67423  13.603  12.767  10.512
55197SOL    HW167424  13.586  12.775  10.606
55197SOL    HW267425  13.559  12.843  10.474
55198SOL     OW67426   3.302  12.897  11.588
55198SOL    HW167427   3.332  12.811  11.619
55198SOL    HW267428   3.328  12.957  11.658
55199SOL     OW67429   8.791   1.049   2.874
55199SOL    HW167430   8.732   0.973   2.867
55199SOL    HW267431   8.741   1.114   2.923
55200SOL     OW67432  10.407   9.689   3.637
55200SOL    HW167433  10.432   9.604   3.671
55200SOL    HW267434  10.330   9.714   3.688
55201SOL     OW67435   1.136   6.247   9.733
55201SOL    HW167436   1.160   6.155   9.721
55201SOL    HW267437   1.209   6.295   9.694
55202SOL     OW67438   0.485   1.589  13.005
55202SOL    HW167439   0.565   1.537  12.997
55202SOL    HW267440   0.415   1.528  12.985
55203SOL     OW67441   3.057   3.886   6.904
55203SOL    HW167442   3.100   3.823   6.962
55203SOL    HW267443   2.964   3.875   6.920
55204SOL     OW67444   6.016   6.523  12.146
55204SOL    HW167445   6.093   6.531  12.089
55204SOL    HW267446   6.015   6.431  12.172
55205SOL     OW67447   5.197   7.915   4.130
55205SOL    HW167448   5.285   7.882   4.146
55205SOL    HW267449   5.139   7.847   4.164
55206SOL     OW67450   2.479   6.919  14.590
55206SOL    HW167451   2.442   6.878  14.511
55206SOL    HW267452   2.473   6.851  14.657
55207SOL     OW67453  10.160  14.225   5.968
55207SOL    HW167454  10.200  14.311   5.953
55207SOL    HW267455  10.070  14.235   5.940
55208SOL     OW67456   6.562   1.707   0.574
55208SOL    HW167457   6.549   1.794   0.534
55208SOL    HW267458   6.480   1.660   0.556
55209SOL     OW67459  13.686  11.117   3.581
55209SOL    HW167460  13.695  11.147   3.671
55209SOL    HW267461  13.776  11.108   3.550
55210SOL     OW67462   8.735   2.922   3.577
55210SOL    HW167463   8.753   3.002   3.528
55210SOL    HW267464   8.815   2.870   3.567
55211SOL     OW67465   4.397   9.920   1.895
55211SOL    HW167466   4.396   9.963   1.810
55211SOL    HW267467   4.426   9.831   1.877
55212SOL     OW67468   3.854  12.725   9.385
55212SOL    HW167469   3.897  12.788   9.328
55212SOL    HW267470   3.922  12.662   9.407
55213SOL     OW67471   9.558  13.384   1.979
55213SOL    HW167472   9.556  13.298   1.937
55213SOL    HW267473   9.632  13.429   1.938
55214SOL     OW67474  10.681   4.895   7.225
55214SOL    HW167475  10.620   4.834   7.182
55214SOL    HW267476  10.623   4.956   7.272
55215SOL     OW67477   2.116  10.362   5.693
55215SOL    HW167478   2.026  10.369   5.662
55215SOL    HW267479   2.151  10.285   5.648
55216SOL     OW67480  10.057   0.758   5.165
55216SOL    HW167481   9.995   0.688   5.185
55216SOL    HW267482  10.143   0.718   5.176
55217SOL     OW67483   9.922   3.447  11.817
55217SOL    HW167484  10.010   3.440  11.781
55217SOL    HW267485   9.881   3.517  11.767
55218SOL     OW67486  12.613   9.702   3.031
55218SOL    HW167487  12.652   9.782   3.068
55218SOL    HW267488  12.673   9.632   3.058
55219SOL     OW67489   8.180   1.501   7.510
55219SOL    HW167490   8.243   1.490   7.582
55219SOL    HW267491   8.123   1.425   7.516
55220SOL     OW67492   6.454   1.876   5.175
55220SOL    HW167493   6.467   1.971   5.172
55220SOL    HW267494   6.425   1.853   5.086
55221SOL     OW67495   1.275  11.917   0.200
55221SOL    HW167496   1.225  11.996   0.177
55221SOL    HW267497   1.317  11.939   0.283
55222SOL     OW67498  12.307  13.956  10.247
55222SOL    HW167499  12.300  14.017  10.173
55222SOL    HW267500  12.387  13.983  10.292
55223SOL     OW67501   9.978   3.135   9.558
55223SOL    HW167502  10.015   3.154   9.644
55223SOL    HW267503   9.956   3.221   9.523
55224SOL     OW67504   4.367   3.224  12.439
55224SOL    HW167505   4.367   3.139  12.394
55224SOL    HW267506   4.281   3.261  12.418
55225SOL     OW67507   7.918   0.732   3.173
55225SOL    HW167508   8.012   0.720   3.185
55225SOL    HW267509   7.910   0.790   3.097
55226SOL     OW67510   8.667   4.239   4.591
55226SOL    HW167511   8.608   4.310   4.567
55226SOL    HW267512   8.753   4.280   4.601
55227SOL     OW67513  12.073   4.265   5.430
55227SOL    HW167514  12.167   4.281   5.433
55227SOL    HW267515  12.059   4.215   5.349
55228SOL     OW67516   1.627   8.606   5.687
55228SOL    HW167517   1.697   8.603   5.622
55228SOL    HW267518   1.581   8.688   5.670
55229SOL     OW67519  13.651  10.830  13.832
55229SOL    HW167520  13.567  10.829  13.786
55229SOL    HW267521  13.691  10.746  13.810
55230SOL     OW67522  10.594   9.550   2.445
55230SOL    HW167523  10.610   9.479   2.383
55230SOL    HW267524  10.678   9.596   2.450
55231SOL     OW67525   0.388   7.039  14.436
55231SOL    HW167526   0.471   7.013  14.397
55231SOL    HW267527   0.325   7.035  14.363
55232SOL     OW67528   5.637   9.692   6.714
55232SOL    HW167529   5.663   9.617   6.661
55232SOL    HW267530   5.693   9.689   6.791
55233SOL     OW67531   4.960  13.501  10.200
55233SOL    HW167532   4.961  13.452  10.118
55233SOL    HW267533   4.868  13.524  10.214
55234SOL     OW67534   2.932   3.222   1.217
55234SOL    HW167535   2.985   3.152   1.180
55234SOL    HW267536   2.994   3.293   1.234
55235SOL     OW67537   0.670   3.258  12.171
55235SOL    HW167538   0.665   3.192  12.101
55235SOL    HW267539   0.603   3.231  12.234
55236SOL     OW67540  14.041   4.219  10.038
55236SOL    HW167541  14.077   4.267   9.964
55236SOL    HW267542  14.043   4.280  10.111
55237SOL     OW67543   7.872  13.781   6.969
55237SOL    HW167544   7.837  13.852   6.917
55237SOL    HW267545   7.857  13.808   7.060
55238SOL     OW67546  10.053  14.788   0.278
55238SOL    HW167547   9.983  14.847   0.249
55238SOL    HW267548  10.007  14.719   0.327
55239SOL     OW67549  14.259  10.492   1.698
55239SOL    HW167550  14.228  10.417   1.647
55239SOL    HW267551  14.213  10.484   1.782
55240SOL     OW67552  11.884  10.092  10.696
55240SOL    HW167553  11.952  10.117  10.758
55240SOL    HW267554  11.850  10.174  10.661
55241SOL     OW67555   3.139   4.666   7.065
55241SOL    HW167556   3.104   4.577   7.064
55241SOL    HW267557   3.133   4.695   6.974
55242SOL     OW67558  11.950  11.681   6.584
55242SOL    HW167559  11.923  11.762   6.627
55242SOL    HW267560  11.966  11.619   6.656
55243SOL     OW67561  10.791   3.345   4.615
55243SOL    HW167562  10.857   3.306   4.672
55243SOL    HW267563  10.711   3.295   4.633
55244SOL     OW67564   7.542   7.560   1.781
55244SOL    HW167565   7.625   7.595   1.813
55244SOL    HW267566   7.563   7.517   1.698
55245SOL     OW67567   5.691  11.528  11.761
55245SOL    HW167568   5.704  11.517  11.666
55245SOL    HW267569   5.597  11.545  11.771
55246SOL     OW67570  10.332   9.493  11.867
55246SOL    HW167571  10.237   9.489  11.872
55246SOL    HW267572  10.355   9.420  11.809
55247SOL     OW67573   7.914  13.615   2.606
55247SOL    HW167574   7.879  13.605   2.518
55247SOL    HW267575   7.997  13.662   2.594
55248SOL     OW67576   2.009   0.615   2.644
55248SOL    HW167577   2.087   0.561   2.632
55248SOL    HW267578   1.980   0.636   2.555
55249SOL     OW67579   0.068   8.080   8.887
55249SOL    HW167580   0.093   8.040   8.971
55249SOL    HW267581   0.045   8.170   8.911
55250SOL     OW67582   4.798   6.894   3.602
55250SOL    HW167583   4.804   6.965   3.538
55250SOL    HW267584   4.813   6.814   3.550
55251SOL     OW67585   1.576   7.358   1.065
55251SOL    HW167586   1.522   7.280   1.073
55251SOL    HW267587   1.515   7.427   1.038
55252SOL     OW67588  12.318   1.630   9.390
55252SOL    HW167589  12.392   1.643   9.331
55252SOL    HW267590  12.313   1.535   9.401
55253SOL     OW67591   9.682   0.482  10.827
55253SOL    HW167592   9.610   0.451  10.771
55253SOL    HW267593   9.650   0.469  10.916
55254SOL     OW67594   0.095   0.221   5.739
55254SOL    HW167595   0.019   0.164   5.752
55254SOL    HW267596   0.070   0.304   5.780
55255SOL     OW67597   4.280   1.398  12.419
55255SOL    HW167598   4.283   1.417  12.513
55255SOL    HW267599   4.297   1.304  12.412
55256SOL     OW67600  10.642   0.050  14.345
55256SOL    HW167601  10.699   0.117  14.381
55256SOL    HW267602  10.666  14.849  14.391
55257SOL     OW67603  11.527   6.090   6.851
55257SOL    HW167604  11.481   6.025   6.797
55257SOL    HW267605  11.517   6.172   6.804
55258SOL     OW67606   8.509  10.912  12.065
55258SOL    HW167607   8.547  10.860  12.136
55258SOL    HW267608   8.495  10.849  11.994
55259SOL     OW67609   0.786  12.919   9.586
55259SOL    HW167610   0.729  12.961   9.522
55259SOL    HW267611   0.767  12.964   9.668
55260SOL     OW67612   8.954  12.372   0.575
55260SOL    HW167613   8.932  12.464   0.593
55260SOL    HW267614   8.892  12.322   0.627
55261SOL     OW67615   9.423  13.105   6.030
55261SOL    HW167616   9.375  13.040   6.082
55261SOL    HW267617   9.515  13.080   6.041
55262SOL     OW67618   5.104   4.970   5.727
55262SOL    HW167619   5.121   4.896   5.669
55262SOL    HW267620   5.010   4.985   5.719
55263SOL     OW67621   8.917  12.941   9.262
55263SOL    HW167622   8.961  12.978   9.338
55263SOL    HW267623   8.966  12.975   9.187
55264SOL     OW67624   7.308   1.632  13.919
55264SOL    HW167625   7.302   1.632  14.015
55264SOL    HW267626   7.365   1.706  13.899
55265SOL     OW67627   8.953  10.077   9.092
55265SOL    HW167628   8.973   9.985   9.107
55265SOL    HW267629   8.867  10.089   9.134
55266SOL     OW67630   9.205   8.579  10.058
55266SOL    HW167631   9.209   8.609  10.149
55266SOL    HW267632   9.199   8.659  10.006
55267SOL     OW67633   0.835   7.942   7.293
55267SOL    HW167634   0.892   7.985   7.356
55267SOL    HW267635   0.772   7.895   7.347
55268SOL     OW67636  12.862   2.895  12.520
55268SOL    HW167637  12.776   2.864  12.546
55268SOL    HW267638  12.922   2.823  12.541
55269SOL     OW67639  14.415   6.631   8.335
55269SOL    HW167640  14.359   6.580   8.277
55269SOL    HW267641  14.500   6.635   8.289
55270SOL     OW67642  14.483   8.248   7.038
55270SOL    HW167643  14.565   8.200   7.049
55270SOL    HW267644  14.438   8.237   7.122
55271SOL     OW67645   8.442   9.392   0.463
55271SOL    HW167646   8.378   9.454   0.430
55271SOL    HW267647   8.390   9.319   0.497
55272SOL     OW67648   5.198   7.386   3.872
55272SOL    HW167649   5.209   7.404   3.779
55272SOL    HW267650   5.271   7.327   3.894
55273SOL     OW67651   0.579   3.691   7.172
55273SOL    HW167652   0.524   3.769   7.163
55273SOL    HW267653   0.662   3.725   7.207
55274SOL     OW67654   8.811   2.406   0.857
55274SOL    HW167655   8.733   2.367   0.896
55274SOL    HW267656   8.882   2.381   0.916
55275SOL     OW67657   4.162   6.204   6.912
55275SOL    HW167658   4.226   6.261   6.956
55275SOL    HW267659   4.191   6.115   6.931
55276SOL     OW67660   2.535  12.338   4.839
55276SOL    HW167661   2.477  12.385   4.778
55276SOL    HW267662   2.564  12.261   4.789
55277SOL     OW67663   6.954   8.854  11.724
55277SOL    HW167664   6.906   8.810  11.794
55277SOL    HW267665   6.899   8.930  11.702
55278SOL     OW67666   6.720   4.308   8.585
55278SOL    HW167667   6.705   4.328   8.493
55278SOL    HW267668   6.666   4.230   8.602
55279SOL     OW67669  12.275   2.697   9.001
55279SOL    HW167670  12.231   2.731   9.080
55279SOL    HW267671  12.203   2.672   8.943
55280SOL     OW67672   6.259  13.451   3.654
55280SOL    HW167673   6.168  13.436   3.625
55280SOL    HW267674   6.295  13.510   3.588
55281SOL     OW67675   6.837   4.108   0.697
55281SOL    HW167676   6.768   4.162   0.735
55281SOL    HW267677   6.794   4.025   0.678
55282SOL     OW67678   0.867   7.659  10.974
55282SOL    HW167679   0.834   7.583  10.926
55282SOL    HW267680   0.866   7.730  10.910
55283SOL     OW67681   3.455  11.272   8.422
55283SOL    HW167682   3.405  11.236   8.496
55283SOL    HW267683   3.433  11.365   8.422
55284SOL     OW67684   9.509  13.954   1.450
55284SOL    HW167685   9.525  14.008   1.527
55284SOL    HW267686   9.462  14.011   1.390
55285SOL     OW67687  13.824   4.106   1.005
55285SOL    HW167688  13.799   4.125   1.095
55285SOL    HW267689  13.749   4.059   0.969
55286SOL     OW67690   9.757   2.236   0.929
55286SOL    HW167691   9.749   2.234   0.834
55286SOL    HW267692   9.709   2.315   0.955
55287SOL     OW67693   2.411   1.449   4.663
55287SOL    HW167694   2.421   1.354   4.665
55287SOL    HW267695   2.347   1.468   4.732
55288SOL     OW67696   7.235  10.329   1.599
55288SOL    HW167697   7.151  10.285   1.606
55288SOL    HW267698   7.300  10.259   1.599
55289SOL     OW67699   9.022   1.452  11.772
55289SOL    HW167700   9.040   1.438  11.679
55289SOL    HW267701   9.065   1.378  11.815
55290SOL     OW67702   0.863   5.338   1.874
55290SOL    HW167703   0.793   5.402   1.886
55290SOL    HW267704   0.819   5.253   1.880
55291SOL     OW67705   4.418   9.834   2.564
55291SOL    HW167706   4.442   9.785   2.486
55291SOL    HW267707   4.496   9.886   2.585
55292SOL     OW67708   8.261   4.820   7.803
55292SOL    HW167709   8.184   4.825   7.860
55292SOL    HW267710   8.333   4.856   7.855
55293SOL     OW67711   0.937   6.543  14.680
55293SOL    HW167712   1.002   6.551  14.750
55293SOL    HW267713   0.985   6.503  14.607
55294SOL     OW67714   0.508   8.931   5.043
55294SOL    HW167715   0.559   9.012   5.037
55294SOL    HW267716   0.439   8.951   5.107
55295SOL     OW67717  14.334  10.964  13.906
55295SOL    HW167718  14.395  10.929  13.971
55295SOL    HW267719  14.333  10.898  13.837
55296SOL     OW67720  11.840   0.515   0.817
55296SOL    HW167721  11.744   0.512   0.821
55296SOL    HW267722  11.861   0.608   0.819
55297SOL     OW67723   8.198   1.426  11.272
55297SOL    HW167724   8.181   1.341  11.313
55297SOL    HW267725   8.280   1.414  11.224
55298SOL     OW67726  12.842   5.897   9.889
55298SOL    HW167727  12.755   5.877   9.855
55298SOL    HW267728  12.854   5.990   9.871
55299SOL     OW67729  14.419  11.617   3.171
55299SOL    HW167730  14.496  11.575   3.133
55299SOL    HW267731  14.438  11.711   3.166
55300SOL     OW67732  12.483  13.575  11.526
55300SOL    HW167733  12.489  13.645  11.461
55300SOL    HW267734  12.550  13.512  11.499
55301SOL     OW67735  12.966   6.314  10.891
55301SOL    HW167736  13.045   6.311  10.944
55301SOL    HW267737  12.902   6.261  10.940
55302SOL     OW67738   1.583  10.258  11.228
55302SOL    HW167739   1.678  10.251  11.220
55302SOL    HW267740   1.562  10.344  11.192
55303SOL     OW67741  14.005   6.634   5.263
55303SOL    HW167742  13.917   6.637   5.299
55303SOL    HW267743  14.029   6.726   5.250
55304SOL     OW67744  13.071   0.367   3.848
55304SOL    HW167745  13.013   0.294   3.827
55304SOL    HW267746  13.109   0.392   3.764
55305SOL     OW67747   0.620   7.577  13.045
55305SOL    HW167748   0.537   7.535  13.063
55305SOL    HW267749   0.684   7.527  13.096
55306SOL     OW67750   3.950  10.272   8.290
55306SOL    HW167751   3.987  10.233   8.211
55306SOL    HW267752   3.900  10.347   8.258
55307SOL     OW67753   4.358   9.559   1.268
55307SOL    HW167754   4.358   9.593   1.179
55307SOL    HW267755   4.378   9.466   1.258
55308SOL     OW67756  11.024  14.010   4.910
55308SOL    HW167757  10.998  13.922   4.882
55308SOL    HW267758  11.048  13.999   5.002
55309SOL     OW67759  14.691  10.329   7.047
55309SOL    HW167760  14.658  10.348   7.135
55309SOL    HW267761  14.767  10.272   7.061
55310SOL     OW67762   3.983  10.241  10.074
55310SOL    HW167763   4.068  10.283  10.084
55310SOL    HW267764   3.932  10.301  10.020
55311SOL     OW67765  14.498  10.980   0.955
55311SOL    HW167766  14.459  10.893   0.948
55311SOL    HW267767  14.586  10.964   0.988
55312SOL     OW67768  11.844   9.059   3.371
55312SOL    HW167769  11.883   9.133   3.417
55312SOL    HW267770  11.851   8.986   3.432
55313SOL     OW67771  13.237   9.926   2.248
55313SOL    HW167772  13.279   9.841   2.256
55313SOL    HW267773  13.145   9.910   2.269
55314SOL     OW67774  10.166   7.097  11.172
55314SOL    HW167775  10.082   7.050  11.175
55314SOL    HW267776  10.188   7.099  11.079
55315SOL     OW67777   2.263   1.898   7.316
55315SOL    HW167778   2.312   1.818   7.294
55315SOL    HW267779   2.219   1.877   7.398
55316SOL     OW67780  10.400   4.246   1.732
55316SOL    HW167781  10.401   4.210   1.820
55316SOL    HW267782  10.425   4.337   1.742
55317SOL     OW67783   3.846   5.866   3.996
55317SOL    HW167784   3.931   5.906   3.982
55317SOL    HW267785   3.784   5.924   3.951
55318SOL     OW67786   6.350   5.251   9.134
55318SOL    HW167787   6.418   5.194   9.096
55318SOL    HW267788   6.378   5.339   9.112
55319SOL     OW67789  14.853   0.406   1.052
55319SOL    HW167790   0.012   0.393   1.139
55319SOL    HW267791   0.032   0.358   0.993
55320SOL     OW67792   8.349   1.113  12.667
55320SOL    HW167793   8.394   1.038  12.627
55320SOL    HW267794   8.416   1.156  12.720
55321SOL     OW67795   9.441   3.064   6.842
55321SOL    HW167796   9.361   3.115   6.830
55321SOL    HW267797   9.446   3.048   6.936
55322SOL     OW67798   2.948  12.004   5.979
55322SOL    HW167799   3.040  12.031   5.971
55322SOL    HW267800   2.951  11.909   5.990
55323SOL     OW67801   7.321   7.237   2.290
55323SOL    HW167802   7.381   7.162   2.298
55323SOL    HW267803   7.377   7.314   2.296
55324SOL     OW67804   0.382   5.881  14.351
55324SOL    HW167805   0.308   5.844  14.399
55324SOL    HW267806   0.343   5.932  14.280
55325SOL     OW67807   1.836   3.639   3.928
55325SOL    HW167808   1.774   3.598   3.988
55325SOL    HW267809   1.781   3.679   3.860
55326SOL     OW67810   5.801   2.934   4.293
55326SOL    HW167811   5.799   2.906   4.385
55326SOL    HW267812   5.894   2.950   4.275
55327SOL     OW67813  14.873   2.692   4.746
55327SOL    HW167814  14.785   2.657   4.756
55327SOL    HW267815   0.045   2.648   4.815
55328SOL     OW67816   3.210   4.958   7.661
55328SOL    HW167817   3.232   5.044   7.697
55328SOL    HW267818   3.177   4.976   7.573
55329SOL     OW67819   2.382  10.960  14.832
55329SOL    HW167820   2.330  11.004   0.021
55329SOL    HW267821   2.469  10.951  14.871
55330SOL     OW67822   0.694   6.468   3.670
55330SOL    HW167823   0.715   6.379   3.640
55330SOL    HW267824   0.684   6.459   3.765
55331SOL     OW67825   9.070   8.862   3.197
55331SOL    HW167826   9.021   8.921   3.140
55331SOL    HW267827   9.120   8.921   3.254
55332SOL     OW67828   3.205  12.569   0.382
55332SOL    HW167829   3.285  12.543   0.428
55332SOL    HW267830   3.140  12.579   0.451
55333SOL     OW67831   5.635   9.525   4.026
55333SOL    HW167832   5.541   9.511   4.027
55333SOL    HW267833   5.673   9.442   4.055
55334SOL     OW67834  11.928   5.716  14.363
55334SOL    HW167835  12.018   5.704  14.332
55334SOL    HW267836  11.874   5.691  14.288
55335SOL     OW67837   1.779   7.202   5.976
55335SOL    HW167838   1.752   7.265   5.909
55335SOL    HW267839   1.799   7.122   5.927
55336SOL     OW67840  11.975   1.449   7.085
55336SOL    HW167841  11.974   1.437   6.990
55336SOL    HW267842  11.898   1.402   7.117
55337SOL     OW67843   7.308   2.738  12.698
55337SOL    HW167844   7.253   2.775  12.629
55337SOL    HW267845   7.279   2.782  12.778
55338SOL     OW67846   0.059   4.454   9.020
55338SOL    HW167847   0.051   4.359   9.031
55338SOL    HW267848   0.116   4.464   8.944
55339SOL     OW67849   0.563  13.416   1.510
55339SOL    HW167850   0.548  13.333   1.554
55339SOL    HW267851   0.658  13.419   1.498
55340SOL     OW67852  11.240   3.760  14.342
55340SOL    HW167853  11.200   3.787  14.259
55340SOL    HW267854  11.269   3.841  14.383
55341SOL     OW67855  12.030   3.213   8.335
55341SOL    HW167856  11.970   3.185   8.266
55341SOL    HW267857  11.974   3.261   8.397
55342SOL     OW67858  10.621   2.429  11.054
55342SOL    HW167859  10.655   2.518  11.061
55342SOL    HW267860  10.639   2.402  10.964
55343SOL     OW67861   2.345   6.580  13.034
55343SOL    HW167862   2.431   6.582  12.993
55343SOL    HW267863   2.358   6.620  13.119
55344SOL     OW67864  11.525  11.959   6.501
55344SOL    HW167865  11.449  12.017   6.501
55344SOL    HW267866  11.487  11.871   6.511
55345SOL     OW67867  10.242   7.874   4.998
55345SOL    HW167868  10.252   7.802   5.060
55345SOL    HW267869  10.323   7.875   4.948
55346SOL     OW67870   1.138  12.790  12.900
55346SOL    HW167871   1.063  12.730  12.907
55346SOL    HW267872   1.214  12.735  12.917
55347SOL     OW67873   1.680  12.255  14.389
55347SOL    HW167874   1.727  12.301  14.320
55347SOL    HW267875   1.721  12.169  14.393
55348SOL     OW67876   5.236   5.465   6.019
55348SOL    HW167877   5.224   5.557   6.041
55348SOL    HW267878   5.328   5.446   6.041
55349SOL     OW67879   7.884   5.143   5.946
55349SOL    HW167880   7.797   5.172   5.918
55349SOL    HW267881   7.944   5.180   5.882
55350SOL     OW67882  12.434   0.801   7.406
55350SOL    HW167883  12.370   0.871   7.423
55350SOL    HW267884  12.382   0.730   7.369
55351SOL     OW67885   0.732   0.696   9.093
55351SOL    HW167886   0.736   0.622   9.154
55351SOL    HW267887   0.729   0.656   9.006
55352SOL     OW67888   4.909   1.706  12.891
55352SOL    HW167889   4.969   1.652  12.840
55352SOL    HW267890   4.915   1.793  12.852
55353SOL     OW67891  10.675  11.437  12.104
55353SOL    HW167892  10.677  11.454  12.199
55353SOL    HW267893  10.584  11.454  12.079
55354SOL     OW67894   4.756   8.626   1.820
55354SOL    HW167895   4.843   8.650   1.788
55354SOL    HW267896   4.761   8.637   1.915
55355SOL     OW67897   9.423  12.662   4.817
55355SOL    HW167898   9.334  12.689   4.799
55355SOL    HW267899   9.419  12.567   4.822
55356SOL     OW67900   6.837  10.753  14.150
55356SOL    HW167901   6.930  10.776  14.148
55356SOL    HW267902   6.835  10.664  14.186
55357SOL     OW67903  14.043   0.189   9.267
55357SOL    HW167904  14.065   0.098   9.284
55357SOL    HW267905  13.979   0.185   9.196
55358SOL     OW67906   2.671  12.555  11.298
55358SOL    HW167907   2.633  12.635  11.335
55358SOL    HW267908   2.606  12.526  11.234
55359SOL     OW67909   0.521   9.770   2.516
55359SOL    HW167910   0.474   9.835   2.464
55359SOL    HW267911   0.511   9.799   2.607
55360SOL     OW67912   7.552   7.521   1.258
55360SOL    HW167913   7.567   7.427   1.246
55360SOL    HW267914   7.582   7.539   1.347
55361SOL     OW67915   3.290   6.148   6.214
55361SOL    HW167916   3.199   6.143   6.185
55361SOL    HW267917   3.309   6.242   6.215
55362SOL     OW67918  13.637   7.300   5.951
55362SOL    HW167919  13.581   7.348   6.012
55362SOL    HW267920  13.723   7.299   5.993
55363SOL     OW67921  10.114   6.831   2.295
55363SOL    HW167922  10.094   6.750   2.342
55363SOL    HW267923  10.201   6.816   2.257
55364SOL     OW67924  10.752  11.365   8.990
55364SOL    HW167925  10.729  11.337   9.078
55364SOL    HW267926  10.714  11.453   8.982
55365SOL     OW67927   7.157   5.118   0.713
55365SOL    HW167928   7.217   5.070   0.771
55365SOL    HW267929   7.137   5.198   0.761
55366SOL     OW67930   7.688  14.207  11.286
55366SOL    HW167931   7.686  14.290  11.240
55366SOL    HW267932   7.608  14.162  11.257
55367SOL     OW67933  11.390  11.371  12.918
55367SOL    HW167934  11.310  11.421  12.898
55367SOL    HW267935  11.455  11.438  12.939
55368SOL     OW67936   2.466  14.873  13.976
55368SOL    HW167937   2.393  14.855  14.035
55368SOL    HW267938   2.426   0.012  13.891
55369SOL     OW67939  12.998  11.420  11.892
55369SOL    HW167940  12.980  11.412  11.986
55369SOL    HW267941  12.928  11.476  11.859
55370SOL     OW67942  13.149  10.634   2.211
55370SOL    HW167943  13.118  10.546   2.228
55370SOL    HW267944  13.093  10.666   2.140
55371SOL     OW67945   1.584   7.848   0.916
55371SOL    HW167946   1.540   7.775   0.873
55371SOL    HW267947   1.650   7.807   0.972
55372SOL     OW67948   1.618   1.296   9.979
55372SOL    HW167949   1.635   1.205  10.000
55372SOL    HW267950   1.690   1.344  10.021
55373SOL     OW67951   1.623  13.423   3.866
55373SOL    HW167952   1.589  13.433   3.777
55373SOL    HW267953   1.568  13.355   3.905
55374SOL     OW67954   8.235   9.607  13.642
55374SOL    HW167955   8.272   9.685  13.601
55374SOL    HW267956   8.229   9.543  13.571
55375SOL     OW67957   4.568  11.859  14.444
55375SOL    HW167958   4.480  11.841  14.477
55375SOL    HW267959   4.558  11.933  14.384
55376SOL     OW67960   3.557   9.206   2.385
55376SOL    HW167961   3.563   9.126   2.437
55376SOL    HW267962   3.642   9.215   2.344
55377SOL     OW67963   7.763   0.418  11.234
55377SOL    HW167964   7.788   0.510  11.241
55377SOL    HW267965   7.825   0.372  11.290
55378SOL     OW67966   3.836   7.742   4.377
55378SOL    HW167967   3.926   7.710   4.383
55378SOL    HW267968   3.838   7.827   4.420
55379SOL     OW67969  13.330   0.746   8.931
55379SOL    HW167970  13.366   0.792   8.855
55379SOL    HW267971  13.249   0.792   8.951
55380SOL     OW67972   5.377  10.759   2.811
55380SOL    HW167973   5.406  10.832   2.866
55380SOL    HW267974   5.294  10.788   2.774
55381SOL     OW67975   2.334   6.066   0.530
55381SOL    HW167976   2.430   6.062   0.528
55381SOL    HW267977   2.311   6.047   0.621
55382SOL     OW67978   6.454  11.578   7.789
55382SOL    HW167979   6.395  11.631   7.735
55382SOL    HW267980   6.402  11.501   7.813
55383SOL     OW67981  13.873   2.759  10.244
55383SOL    HW167982  13.950   2.810  10.218
55383SOL    HW267983  13.815   2.823  10.285
55384SOL     OW67984   7.747  12.552   3.057
55384SOL    HW167985   7.780  12.487   2.995
55384SOL    HW267986   7.702  12.500   3.124
55385SOL     OW67987   9.217   7.644  11.104
55385SOL    HW167988   9.190   7.556  11.077
55385SOL    HW267989   9.179   7.655  11.191
55386SOL     OW67990  14.487   0.602  12.648
55386SOL    HW167991  14.410   0.640  12.690
55386SOL    HW267992  14.561   0.653  12.683
55387SOL     OW67993  14.767  10.576   5.034
55387SOL    HW167994  14.765  10.579   5.130
55387SOL    HW267995  14.792  10.665   5.008
55388SOL     OW67996   6.038   6.861   5.589
55388SOL    HW167997   6.020   6.845   5.682
55388SOL    HW267998   6.071   6.951   5.587
55389SOL     OW67999   6.604   5.302   7.788
55389SOL    HW168000   6.673   5.325   7.851
55389SOL    HW268001   6.625   5.352   7.710
55390SOL     OW68002  11.388  14.853   7.078
55390SOL    HW168003  11.348  14.871   6.993
55390SOL    HW268004  11.329   0.016   7.141
55391SOL     OW68005   3.977   5.352   7.495
55391SOL    HW168006   3.907   5.396   7.541
55391SOL    HW268007   3.933   5.294   7.433
55392SOL     OW68008   0.261  11.899  11.043
55392SOL    HW168009   0.285  11.991  11.041
55392SOL    HW268010   0.249  11.875  10.951
55393SOL     OW68011   5.109   3.268   1.733
55393SOL    HW168012   5.145   3.334   1.673
55393SOL    HW268013   5.155   3.187   1.710
55394SOL     OW68014   3.201   3.252  12.455
55394SOL    HW168015   3.125   3.310  12.466
55394SOL    HW268016   3.181   3.176  12.511
55395SOL     OW68017   1.340   6.602   7.198
55395SOL    HW168018   1.326   6.550   7.119
55395SOL    HW268019   1.258   6.650   7.210
55396SOL     OW68020   3.363  12.804   3.677
55396SOL    HW168021   3.423  12.759   3.617
55396SOL    HW268022   3.420  12.857   3.732
55397SOL     OW68023   0.583   1.153   5.024
55397SOL    HW168024   0.522   1.150   4.950
55397SOL    HW268025   0.629   1.236   5.013
55398SOL     OW68026   3.005   3.043   9.329
55398SOL    HW168027   2.982   3.010   9.416
55398SOL    HW268028   2.938   3.108   9.309
55399SOL     OW68029  13.339   3.668  10.903
55399SOL    HW168030  13.323   3.732  10.972
55399SOL    HW268031  13.385   3.596  10.947
55400SOL     OW68032   6.004   3.582   6.118
55400SOL    HW168033   6.067   3.652   6.103
55400SOL    HW268034   6.015   3.560   6.211
55401SOL     OW68035   4.971  11.733  10.348
55401SOL    HW168036   4.991  11.641  10.330
55401SOL    HW268037   4.971  11.775  10.261
55402SOL     OW68038  11.306   7.802   3.352
55402SOL    HW168039  11.391   7.762   3.333
55402SOL    HW268040  11.286   7.774   3.442
55403SOL     OW68041   2.762  14.213   6.871
55403SOL    HW168042   2.782  14.212   6.965
55403SOL    HW268043   2.801  14.294   6.839
55404SOL     OW68044   3.826   9.593  13.097
55404SOL    HW168045   3.866   9.664  13.148
55404SOL    HW268046   3.893   9.568  13.034
55405SOL     OW68047   6.001   0.612   4.703
55405SOL    HW168048   5.995   0.631   4.610
55405SOL    HW268049   6.093   0.625   4.724
55406SOL     OW68050   7.581  10.768   8.610
55406SOL    HW168051   7.672  10.751   8.634
55406SOL    HW268052   7.555  10.693   8.557
55407SOL     OW68053   2.005   8.098  14.497
55407SOL    HW168054   1.933   8.078  14.556
55407SOL    HW268055   2.067   8.026  14.510
55408SOL     OW68056   4.988  13.720  11.095
55408SOL    HW168057   4.975  13.664  11.171
55408SOL    HW268058   5.075  13.697  11.063
55409SOL     OW68059  10.852   7.817   2.983
55409SOL    HW168060  10.944   7.841   2.976
55409SOL    HW268061  10.845   7.735   2.935
55410SOL     OW68062   3.095  11.350  11.925
55410SOL    HW168063   3.009  11.387  11.904
55410SOL    HW268064   3.157  11.416  11.896
55411SOL     OW68065  14.289  11.158   0.952
55411SOL    HW168066  14.371  11.109   0.959
55411SOL    HW268067  14.280  11.202   1.037
55412SOL     OW68068   6.420   4.159  10.123
55412SOL    HW168069   6.492   4.142  10.184
55412SOL    HW268070   6.442   4.243  10.084
55413SOL     OW68071   2.480   0.973   9.353
55413SOL    HW168072   2.406   1.000   9.299
55413SOL    HW268073   2.535   0.921   9.294
55414SOL     OW68074   0.563   1.469   2.521
55414SOL    HW168075   0.626   1.398   2.520
55414SOL    HW268076   0.508   1.454   2.445
55415SOL     OW68077   4.102  14.309   6.480
55415SOL    HW168078   4.168  14.285   6.415
55415SOL    HW268079   4.021  14.318   6.429
55416SOL     OW68080   4.934   7.896   9.677
55416SOL    HW168081   4.842   7.894   9.650
55416SOL    HW268082   4.963   7.806   9.665
55417SOL     OW68083   4.864  11.915   9.980
55417SOL    HW168084   4.820  11.994  10.010
55417SOL    HW268085   4.955  11.926  10.009
55418SOL     OW68086  11.255   9.251  13.588
55418SOL    HW168087  11.232   9.159  13.600
55418SOL    HW268088  11.224   9.293  13.669
55419SOL     OW68089   0.295   5.392  12.039
55419SOL    HW168090   0.226   5.325  12.038
55419SOL    HW268091   0.281   5.441  11.958
55420SOL     OW68092   2.768  14.338   0.743
55420SOL    HW168093   2.728  14.294   0.818
55420SOL    HW268094   2.825  14.272   0.704
55421SOL     OW68095   8.066  14.503  11.757
55421SOL    HW168096   8.080  14.568  11.687
55421SOL    HW268097   8.008  14.547  11.819
55422SOL     OW68098   7.711  10.754   6.175
55422SOL    HW168099   7.704  10.659   6.188
55422SOL    HW268100   7.805  10.770   6.171
55423SOL     OW68101   5.531   3.749   7.864
55423SOL    HW168102   5.624   3.752   7.840
55423SOL    HW268103   5.504   3.841   7.862
55424SOL     OW68104   5.171  13.573   9.341
55424SOL    HW168105   5.118  13.623   9.280
55424SOL    HW268106   5.249  13.549   9.291
55425SOL     OW68107   1.822   4.962   2.088
55425SOL    HW168108   1.823   4.874   2.051
55425SOL    HW268109   1.873   4.955   2.169
55426SOL     OW68110  13.265   3.315  14.462
55426SOL    HW168111  13.250   3.407  14.484
55426SOL    HW268112  13.213   3.267  14.526
55427SOL     OW68113  14.822   2.293   8.499
55427SOL    HW168114  14.838   2.264   8.588
55427SOL    HW268115  14.729   2.277   8.485
55428SOL     OW68116   3.594  10.050   2.829
55428SOL    HW168117   3.514  10.100   2.847
55428SOL    HW268118   3.663  10.098   2.874
55429SOL     OW68119   5.444   9.554   8.992
55429SOL    HW168120   5.452   9.498   9.068
55429SOL    HW268121   5.532   9.560   8.957
55430SOL     OW68122   3.425   7.311   0.836
55430SOL    HW168123   3.500   7.364   0.864
55430SOL    HW268124   3.439   7.226   0.876
55431SOL     OW68125   0.676   9.061  11.185
55431SOL    HW168126   0.744   8.997  11.163
55431SOL    HW268127   0.606   9.008  11.223
55432SOL     OW68128  10.368   3.452   8.332
55432SOL    HW168129  10.292   3.493   8.290
55432SOL    HW268130  10.435   3.521   8.332
55433SOL     OW68131   5.920  14.773   2.726
55433SOL    HW168132   5.890  14.829   2.798
55433SOL    HW268133   5.999  14.815   2.693
55434SOL     OW68134  14.439  13.894   3.361
55434SOL    HW168135  14.349  13.884   3.331
55434SOL    HW268136  14.444  13.841   3.441
55435SOL     OW68137   5.727   9.166   8.793
55435SOL    HW168138   5.666   9.210   8.852
55435SOL    HW268139   5.784   9.236   8.761
55436SOL     OW68140  13.745   6.583  11.739
55436SOL    HW168141  13.710   6.631  11.813
55436SOL    HW268142  13.793   6.509  11.778
55437SOL     OW68143   2.982   6.077  10.383
55437SOL    HW168144   3.005   6.105  10.472
55437SOL    HW268145   2.959   6.158  10.338
55438SOL     OW68146   2.054  14.670   7.776
55438SOL    HW168147   1.997  14.644   7.849
55438SOL    HW268148   2.016  14.752   7.745
55439SOL     OW68149  12.568   0.437   2.282
55439SOL    HW168150  12.599   0.358   2.237
55439SOL    HW268151  12.540   0.407   2.368
55440SOL     OW68152  10.354   9.418   5.715
55440SOL    HW168153  10.291   9.388   5.780
55440SOL    HW268154  10.423   9.352   5.716
55441SOL     OW68155   5.448  13.053   4.996
55441SOL    HW168156   5.438  13.141   5.032
55441SOL    HW268157   5.537  13.028   5.019
55442SOL     OW68158   4.657  13.261   6.440
55442SOL    HW168159   4.732  13.246   6.383
55442SOL    HW268160   4.648  13.180   6.490
55443SOL     OW68161   7.592  11.909  11.366
55443SOL    HW168162   7.564  11.905  11.275
55443SOL    HW268163   7.640  11.991  11.374
55444SOL     OW68164   5.944  10.977   5.077
55444SOL    HW168165   5.958  10.917   5.150
55444SOL    HW268166   5.992  10.938   5.004
55445SOL     OW68167   2.538   9.628   4.629
55445SOL    HW168168   2.589   9.547   4.636
55445SOL    HW268169   2.452   9.605   4.664
55446SOL     OW68170   3.050  13.436  10.695
55446SOL    HW168171   3.010  13.425  10.781
55446SOL    HW268172   2.986  13.486  10.644
55447SOL     OW68173  10.402   8.550   0.139
55447SOL    HW168174  10.491   8.519   0.155
55447SOL    HW268175  10.349   8.470   0.134
55448SOL     OW68176  14.024  14.317   5.753
55448SOL    HW168177  13.972  14.391   5.721
55448SOL    HW268178  13.961  14.246   5.764
55449SOL     OW68179   2.053  11.835   5.925
55449SOL    HW168180   2.124  11.899   5.923
55449SOL    HW268181   1.989  11.872   5.986
55450SOL     OW68182  14.683  14.743  12.643
55450SOL    HW168183  14.659  14.834  12.625
55450SOL    HW268184  14.600  14.695  12.640
55451SOL     OW68185   5.818   2.656  10.600
55451SOL    HW168186   5.740   2.618  10.559
55451SOL    HW268187   5.887   2.647  10.535
55452SOL     OW68188   0.783   6.905   9.500
55452SOL    HW168189   0.689   6.904   9.521
55452SOL    HW268190   0.786   6.915   9.405
55453SOL     OW68191   0.269  13.799   0.352
55453SOL    HW168192   0.242  13.842   0.271
55453SOL    HW268193   0.349  13.846   0.379
55454SOL     OW68194  14.675  14.265   3.180
55454SOL    HW168195  14.591  14.289   3.142
55454SOL    HW268196  14.659  14.181   3.223
55455SOL     OW68197   2.676  10.614   7.929
55455SOL    HW168198   2.756  10.567   7.908
55455SOL    HW268199   2.689  10.702   7.892
55456SOL     OW68200   2.556   5.206   4.670
55456SOL    HW168201   2.627   5.188   4.732
55456SOL    HW268202   2.528   5.119   4.641
55457SOL     OW68203  11.797  11.082   7.322
55457SOL    HW168204  11.796  11.178   7.325
55457SOL    HW268205  11.724  11.059   7.265
55458SOL     OW68206  13.457  13.859   9.636
55458SOL    HW168207  13.495  13.914   9.566
55458SOL    HW268208  13.397  13.801   9.590
55459SOL     OW68209   1.823   4.630  14.810
55459SOL    HW168210   1.733   4.656  14.793
55459SOL    HW268211   1.868   4.712  14.831
55460SOL     OW68212  13.320   6.511  11.194
55460SOL    HW168213  13.387   6.574  11.222
55460SOL    HW268214  13.238   6.547  11.227
55461SOL     OW68215  12.978  13.734  12.150
55461SOL    HW168216  13.066  13.755  12.181
55461SOL    HW268217  12.979  13.640  12.137
55462SOL     OW68218   2.722   6.670   4.543
55462SOL    HW168219   2.716   6.765   4.556
55462SOL    HW268220   2.808   6.646   4.577
55463SOL     OW68221   5.089   8.419   3.455
55463SOL    HW168222   4.995   8.430   3.439
55463SOL    HW268223   5.108   8.479   3.527
55464SOL     OW68224  11.986   1.352   6.764
55464SOL    HW168225  11.944   1.324   6.682
55464SOL    HW268226  11.936   1.429   6.792
55465SOL     OW68227   2.475   2.460   1.426
55465SOL    HW168228   2.434   2.381   1.461
55465SOL    HW268229   2.428   2.477   1.345
55466SOL     OW68230   0.291   9.807   6.964
55466SOL    HW168231   0.306   9.713   6.958
55466SOL    HW268232   0.195   9.816   6.962
55467SOL     OW68233   5.667  13.629   3.950
55467SOL    HW168234   5.704  13.603   4.034
55467SOL    HW268235   5.588  13.576   3.940
55468SOL     OW68236   7.027   8.763   3.513
55468SOL    HW168237   6.938   8.727   3.508
55468SOL    HW268238   7.020   8.836   3.574
55469SOL     OW68239   5.762   9.763   8.047
55469SOL    HW168240   5.793   9.748   7.957
55469SOL    HW268241   5.683   9.817   8.036
55470SOL     OW68242   0.139   6.273   6.990
55470SOL    HW168243   0.102   6.212   7.055
55470SOL    HW268244   0.181   6.217   6.925
55471SOL     OW68245   4.396   1.934   0.684
55471SOL    HW168246   4.477   1.903   0.725
55471SOL    HW268247   4.343   1.967   0.757
55472SOL     OW68248   9.402  11.797   3.917
55472SOL    HW168249   9.423  11.704   3.921
55472SOL    HW268250   9.337  11.805   3.847
55473SOL     OW68251   1.676  11.362  10.004
55473SOL    HW168252   1.659  11.326   9.916
55473SOL    HW268253   1.717  11.446   9.988
55474SOL     OW68254   7.120   8.715  10.843
55474SOL    HW168255   7.174   8.751  10.913
55474SOL    HW268256   7.116   8.621  10.861
55475SOL     OW68257  11.970   4.467   2.935
55475SOL    HW168258  11.971   4.399   3.003
55475SOL    HW268259  12.042   4.526   2.959
55476SOL     OW68260   9.671  11.205   8.264
55476SOL    HW168261   9.741  11.156   8.307
55476SOL    HW268262   9.658  11.160   8.181
55477SOL     OW68263   4.943   2.442   7.579
55477SOL    HW168264   4.865   2.388   7.595
55477SOL    HW268265   5.006   2.382   7.541
55478SOL     OW68266   6.339   6.497   1.239
55478SOL    HW168267   6.259   6.498   1.186
55478SOL    HW268268   6.317   6.546   1.318
55479SOL     OW68269   0.950  12.976  10.228
55479SOL    HW168270   0.911  12.929  10.154
55479SOL    HW268271   0.963  12.908  10.294
55480SOL     OW68272  10.337   8.601   6.918
55480SOL    HW168273  10.323   8.509   6.940
55480SOL    HW268274  10.253   8.631   6.884
55481SOL     OW68275  12.719   4.950  11.255
55481SOL    HW168276  12.768   4.994  11.186
55481SOL    HW268277  12.716   5.014  11.327
55482SOL     OW68278   9.910   0.405   9.625
55482SOL    HW168279   9.975   0.475   9.627
55482SOL    HW268280   9.895   0.389   9.532
55483SOL     OW68281  14.345   1.139  13.895
55483SOL    HW168282  14.353   1.212  13.834
55483SOL    HW268283  14.434   1.125  13.927
55484SOL     OW68284   4.773   7.680   1.714
55484SOL    HW168285   4.694   7.699   1.765
55484SOL    HW268286   4.809   7.601   1.753
55485SOL     OW68287   9.705  11.252   9.031
55485SOL    HW168288   9.787  11.212   9.057
55485SOL    HW268289   9.723  11.289   8.944
55486SOL     OW68290   1.816  13.130  10.727
55486SOL    HW168291   1.795  13.038  10.708
55486SOL    HW268292   1.746  13.159  10.785
55487SOL     OW68293   0.957  10.511   8.406
55487SOL    HW168294   0.973  10.577   8.339
55487SOL    HW268295   1.027  10.447   8.394
55488SOL     OW68296   4.608   6.369   7.789
55488SOL    HW168297   4.627   6.292   7.735
55488SOL    HW268298   4.682   6.428   7.774
55489SOL     OW68299  13.208  13.900  11.278
55489SOL    HW168300  13.134  13.894  11.218
55489SOL    HW268301  13.176  13.861  11.360
55490SOL     OW68302  14.521  11.762   6.056
55490SOL    HW168303  14.492  11.745   6.145
55490SOL    HW268304  14.615  11.780   6.064
55491SOL     OW68305   2.197   8.637   8.156
55491SOL    HW168306   2.149   8.554   8.160
55491SOL    HW268307   2.153   8.688   8.088
55492SOL     OW68308   7.822   8.679  14.174
55492SOL    HW168309   7.843   8.615  14.105
55492SOL    HW268310   7.850   8.763  14.138
55493SOL     OW68311   8.408   6.589  11.515
55493SOL    HW168312   8.464   6.521  11.478
55493SOL    HW268313   8.327   6.584  11.465
55494SOL     OW68314   8.851  13.427   8.502
55494SOL    HW168315   8.897  13.412   8.584
55494SOL    HW268316   8.902  13.494   8.456
55495SOL     OW68317   5.569  14.826   1.377
55495SOL    HW168318   5.534  14.805   1.464
55495SOL    HW268319   5.642  14.766   1.365
55496SOL     OW68320   4.047   4.695   3.296
55496SOL    HW168321   4.010   4.627   3.352
55496SOL    HW268322   4.044   4.774   3.350
55497SOL     OW68323  12.826   0.826   4.293
55497SOL    HW168324  12.847   0.919   4.287
55497SOL    HW268325  12.911   0.782   4.291
55498SOL     OW68326  13.881  11.583   6.889
55498SOL    HW168327  13.857  11.518   6.823
55498SOL    HW268328  13.867  11.539   6.973
55499SOL     OW68329   5.905   6.326   9.213
55499SOL    HW168330   5.908   6.420   9.231
55499SOL    HW268331   5.907   6.285   9.300
55500SOL     OW68332   9.887  14.065  12.038
55500SOL    HW168333   9.889  14.145  11.985
55500SOL    HW268334   9.807  14.073  12.090
55501SOL     OW68335  14.551  13.162   2.487
55501SOL    HW168336  14.525  13.108   2.561
55501SOL    HW268337  14.478  13.224   2.475
55502SOL     OW68338   0.321   2.395   7.912
55502SOL    HW168339   0.376   2.434   7.844
55502SOL    HW268340   0.232   2.420   7.888
55503SOL     OW68341   0.762   2.452   5.800
55503SOL    HW168342   0.744   2.505   5.878
55503SOL    HW268343   0.804   2.373   5.833
55504SOL     OW68344   0.640  10.220  14.174
55504SOL    HW168345   0.591  10.247  14.252
55504SOL    HW268346   0.684  10.299  14.144
55505SOL     OW68347  13.969   4.491  13.761
55505SOL    HW168348  14.028   4.418  13.775
55505SOL    HW268349  13.887   4.450  13.731
55506SOL     OW68350   1.475  14.078  12.000
55506SOL    HW168351   1.449  14.151  12.057
55506SOL    HW268352   1.544  14.114  11.945
55507SOL     OW68353   9.535  14.726   8.776
55507SOL    HW168354   9.577  14.812   8.775
55507SOL    HW268355   9.470  14.732   8.845
55508SOL     OW68356   8.763   4.864  12.456
55508SOL    HW168357   8.733   4.952  12.436
55508SOL    HW268358   8.684   4.810  12.450
55509SOL     OW68359  12.595   4.816   6.604
55509SOL    HW168360  12.669   4.869   6.575
55509SOL    HW268361  12.551   4.869   6.670
55510SOL     OW68362   9.101   3.826  14.438
55510SOL    HW168363   9.127   3.893  14.375
55510SOL    HW268364   9.060   3.875  14.510
55511SOL     OW68365  14.299   0.702  13.827
55511SOL    HW168366  14.236   0.630  13.836
55511SOL    HW268367  14.248   0.781  13.846
55512SOL     OW68368   0.616   3.877  13.224
55512SOL    HW168369   0.593   3.873  13.317
55512SOL    HW268370   0.682   3.808  13.213
55513SOL     OW68371   1.204   8.981   5.740
55513SOL    HW168372   1.194   9.075   5.753
55513SOL    HW268373   1.239   8.949   5.823
55514SOL     OW68374   8.067   6.661   0.506
55514SOL    HW168375   8.058   6.724   0.434
55514SOL    HW268376   8.115   6.709   0.573
55515SOL     OW68377   4.111   7.700  10.201
55515SOL    HW168378   4.140   7.670  10.115
55515SOL    HW268379   4.025   7.738  10.185
55516SOL     OW68380  14.667  14.342   8.351
55516SOL    HW168381  14.672  14.411   8.285
55516SOL    HW268382  14.672  14.261   8.300
55517SOL     OW68383   4.427   5.639  10.811
55517SOL    HW168384   4.338   5.666  10.789
55517SOL    HW268385   4.416   5.566  10.872
55518SOL     OW68386   6.914  10.759   8.840
55518SOL    HW168387   6.963  10.737   8.920
55518SOL    HW268388   6.844  10.817   8.871
55519SOL     OW68389   9.350  14.019  14.401
55519SOL    HW168390   9.297  13.965  14.343
55519SOL    HW268391   9.321  14.109  14.384
55520SOL     OW68392   5.826   8.252   7.240
55520SOL    HW168393   5.757   8.274   7.303
55520SOL    HW268394   5.802   8.164   7.209
55521SOL     OW68395   5.337  14.628   7.179
55521SOL    HW168396   5.298  14.672   7.255
55521SOL    HW268397   5.397  14.693   7.142
55522SOL     OW68398   1.597   5.573   3.371
55522SOL    HW168399   1.614   5.624   3.450
55522SOL    HW268400   1.624   5.484   3.395
55523SOL     OW68401  13.292   6.975   6.980
55523SOL    HW168402  13.199   6.984   6.999
55523SOL    HW268403  13.329   7.061   6.999
55524SOL     OW68404   1.378  12.616   1.091
55524SOL    HW168405   1.302  12.673   1.080
55524SOL    HW268406   1.427  12.656   1.164
55525SOL     OW68407  10.087  12.269   4.355
55525SOL    HW168408  10.013  12.260   4.295
55525SOL    HW268409  10.086  12.188   4.406
55526SOL     OW68410   5.766   2.609   4.491
55526SOL    HW168411   5.837   2.673   4.490
55526SOL    HW268412   5.765   2.576   4.581
55527SOL     OW68413   2.511   6.623  13.856
55527SOL    HW168414   2.584   6.620  13.919
55527SOL    HW268415   2.526   6.703  13.806
55528SOL     OW68416   5.717   6.183   6.813
55528SOL    HW168417   5.805   6.190   6.850
55528SOL    HW268418   5.659   6.181   6.890
55529SOL     OW68419  14.368   7.353   4.692
55529SOL    HW168420  14.278   7.386   4.681
55529SOL    HW268421  14.399   7.396   4.772
55530SOL     OW68422   1.211   9.990   1.803
55530SOL    HW168423   1.290   9.938   1.790
55530SOL    HW268424   1.242  10.074   1.837
55531SOL     OW68425  11.797   3.970   7.067
55531SOL    HW168426  11.745   3.892   7.049
55531SOL    HW268427  11.811   3.967   7.162
55532SOL     OW68428  10.532  10.346   8.113
55532SOL    HW168429  10.625  10.325   8.109
55532SOL    HW268430  10.487  10.262   8.104
55533SOL     OW68431   9.977   0.086  13.175
55533SOL    HW168432  10.017   0.162  13.134
55533SOL    HW268433  10.008   0.088  13.265
55534SOL     OW68434  14.521   6.971   4.109
55534SOL    HW168435  14.436   6.986   4.150
55534SOL    HW268436  14.547   7.057   4.076
55535SOL     OW68437   3.523   7.885  12.426
55535SOL    HW168438   3.547   7.794  12.414
55535SOL    HW268439   3.463   7.904  12.353
55536SOL     OW68440   1.912   0.871  12.600
55536SOL    HW168441   1.921   0.885  12.694
55536SOL    HW268442   1.964   0.793  12.582
55537SOL     OW68443   0.633   1.215   5.394
55537SOL    HW168444   0.723   1.185   5.381
55537SOL    HW268445   0.580   1.148   5.351
55538SOL     OW68446   6.802   7.475   0.663
55538SOL    HW168447   6.777   7.568   0.665
55538SOL    HW268448   6.898   7.476   0.662
55539SOL     OW68449   7.684   5.250   1.254
55539SOL    HW168450   7.636   5.220   1.177
55539SOL    HW268451   7.616   5.268   1.319
55540SOL     OW68452  13.852   8.466   3.229
55540SOL    HW168453  13.810   8.524   3.166
55540SOL    HW268454  13.841   8.511   3.313
55541SOL     OW68455  12.461   3.049  14.088
55541SOL    HW168456  12.471   3.021  13.997
55541SOL    HW268457  12.470   3.144  14.085
55542SOL     OW68458   1.530   2.731   5.041
55542SOL    HW168459   1.444   2.689   5.032
55542SOL    HW268460   1.592   2.665   5.011
55543SOL     OW68461  13.982   3.591   1.301
55543SOL    HW168462  13.996   3.678   1.262
55543SOL    HW268463  13.906   3.602   1.357
55544SOL     OW68464  11.503   5.526   8.730
55544SOL    HW168465  11.580   5.480   8.763
55544SOL    HW268466  11.468   5.467   8.663
55545SOL     OW68467   7.175  10.673  13.705
55545SOL    HW168468   7.100  10.708  13.752
55545SOL    HW268469   7.141  10.652  13.618
55546SOL     OW68470   0.171   1.229  14.762
55546SOL    HW168471   0.195   1.139  14.739
55546SOL    HW268472   0.249   1.264  14.805
55547SOL     OW68473   1.634   9.875  13.151
55547SOL    HW168474   1.561   9.911  13.102
55547SOL    HW268475   1.697   9.847  13.085
55548SOL     OW68476  12.133   6.440  11.178
55548SOL    HW168477  12.097   6.372  11.236
55548SOL    HW268478  12.103   6.414  11.091
55549SOL     OW68479  14.443   8.529  11.861
55549SOL    HW168480  14.516   8.496  11.913
55549SOL    HW268481  14.456   8.492  11.774
55550SOL     OW68482  14.083  14.441   9.945
55550SOL    HW168483  14.000  14.408   9.978
55550SOL    HW268484  14.150  14.392   9.994
55551SOL     OW68485   9.545   0.253   0.016
55551SOL    HW168486   9.604   0.324  14.871
55551SOL    HW268487   9.578   0.222   0.101
55552SOL     OW68488   4.087   7.333   8.707
55552SOL    HW168489   4.097   7.413   8.759
55552SOL    HW268490   4.076   7.364   8.617
55553SOL     OW68491   4.769   7.130  12.712
55553SOL    HW168492   4.827   7.205  12.704
55553SOL    HW268493   4.785   7.078  12.633
55554SOL     OW68494   4.111   6.469  13.905
55554SOL    HW168495   4.116   6.544  13.964
55554SOL    HW268496   4.188   6.416  13.927
55555SOL     OW68497  11.101  11.265  14.875
55555SOL    HW168498  11.185  11.293   0.033
55555SOL    HW268499  11.053  11.230   0.071
55556SOL     OW68500   9.661   8.553   2.542
55556SOL    HW168501   9.618   8.519   2.620
55556SOL    HW268502   9.677   8.477   2.487
55557SOL     OW68503  11.650  13.070   4.310
55557SOL    HW168504  11.744  13.085   4.323
55557SOL    HW268505  11.612  13.157   4.312
55558SOL     OW68506   1.465   5.780   2.587
55558SOL    HW168507   1.409   5.858   2.587
55558SOL    HW268508   1.537   5.802   2.527
55559SOL     OW68509   8.948  10.157   7.000
55559SOL    HW168510   9.040  10.184   7.008
55559SOL    HW268511   8.948  10.064   7.025
55560SOL     OW68512  11.389   1.633   3.136
55560SOL    HW168513  11.463   1.578   3.158
55560SOL    HW268514  11.313   1.589   3.173
55561SOL     OW68515   3.060   7.035   3.948
55561SOL    HW168516   3.066   7.042   4.043
55561SOL    HW268517   3.098   6.949   3.928
55562SOL     OW68518  13.904   3.531   7.346
55562SOL    HW168519  13.847   3.454   7.350
55562SOL    HW268520  13.919   3.545   7.253
55563SOL     OW68521  10.450   7.730  12.357
55563SOL    HW168522  10.380   7.785  12.320
55563SOL    HW268523  10.438   7.645  12.316
55564SOL     OW68524   8.351   7.700   2.713
55564SOL    HW168525   8.331   7.702   2.807
55564SOL    HW268526   8.342   7.791   2.685
55565SOL     OW68527  12.677   2.309  14.467
55565SOL    HW168528  12.770   2.287  14.461
55565SOL    HW268529  12.654   2.343  14.381
55566SOL     OW68530   9.309   4.204   8.493
55566SOL    HW168531   9.257   4.135   8.533
55566SOL    HW268532   9.333   4.170   8.407
55567SOL     OW68533  13.549   5.766   4.238
55567SOL    HW168534  13.527   5.756   4.145
55567SOL    HW268535  13.481   5.717   4.284
55568SOL     OW68536   8.621  10.028  12.997
55568SOL    HW168537   8.656   9.986  13.076
55568SOL    HW268538   8.674   9.992  12.925
55569SOL     OW68539   6.512   0.796   6.346
55569SOL    HW168540   6.426   0.755   6.344
55569SOL    HW268541   6.497   0.883   6.382
55570SOL     OW68542   8.856  10.622   6.221
55570SOL    HW168543   8.902  10.538   6.215
55570SOL    HW268544   8.764  10.600   6.206
55571SOL     OW68545  11.473  11.558  11.389
55571SOL    HW168546  11.463  11.589  11.479
55571SOL    HW268547  11.389  11.576  11.347
55572SOL     OW68548   4.616   2.604   8.964
55572SOL    HW168549   4.688   2.640   8.913
55572SOL    HW268550   4.657   2.569   9.043
55573SOL     OW68551   2.797   6.011  10.888
55573SOL    HW168552   2.822   6.079  10.824
55573SOL    HW268553   2.730   5.960  10.843
55574SOL     OW68554   0.455   7.270   0.432
55574SOL    HW168555   0.458   7.209   0.358
55574SOL    HW268556   0.385   7.237   0.488
55575SOL     OW68557   2.520   7.799   6.817
55575SOL    HW168558   2.558   7.831   6.735
55575SOL    HW268559   2.472   7.720   6.791
55576SOL     OW68560   7.160  12.025   4.704
55576SOL    HW168561   7.180  12.076   4.783
55576SOL    HW268562   7.064  12.024   4.700
55577SOL     OW68563   7.579  10.711   6.503
55577SOL    HW168564   7.667  10.689   6.472
55577SOL    HW268565   7.531  10.628   6.500
55578SOL     OW68566   9.716   1.256   3.289
55578SOL    HW168567   9.623   1.266   3.309
55578SOL    HW268568   9.746   1.345   3.270
55579SOL     OW68569   8.259  10.791   2.336
55579SOL    HW168570   8.205  10.734   2.390
55579SOL    HW268571   8.253  10.877   2.378
55580SOL     OW68572   8.371   9.491   3.936
55580SOL    HW168573   8.408   9.563   3.988
55580SOL    HW268574   8.335   9.431   4.001
55581SOL     OW68575  14.856   1.623   7.305
55581SOL    HW168576  14.812   1.606   7.389
55581SOL    HW268577   0.065   1.651   7.329
55582SOL     OW68578   8.618   6.133   8.487
55582SOL    HW168579   8.523   6.131   8.476
55582SOL    HW268580   8.637   6.061   8.548
55583SOL     OW68581  10.754   0.422   0.569
55583SOL    HW168582  10.816   0.380   0.509
55583SOL    HW268583  10.751   0.513   0.541
55584SOL     OW68584  12.636   9.576   7.683
55584SOL    HW168585  12.623   9.541   7.596
55584SOL    HW268586  12.649   9.670   7.670
55585SOL     OW68587  11.580   1.401   0.460
55585SOL    HW168588  11.545   1.331   0.516
55585SOL    HW268589  11.671   1.375   0.444
55586SOL     OW68590   0.486  10.091   9.747
55586SOL    HW168591   0.451  10.131   9.826
55586SOL    HW268592   0.445  10.138   9.675
55587SOL     OW68593   9.699   0.793  10.855
55587SOL    HW168594   9.607   0.768  10.841
55587SOL    HW268595   9.749   0.728  10.805
55588SOL     OW68596  10.793  10.521  10.179
55588SOL    HW168597  10.712  10.494  10.221
55588SOL    HW268598  10.772  10.606  10.139
55589SOL     OW68599  11.206   7.343   9.657
55589SOL    HW168600  11.300   7.330   9.641
55589SOL    HW268601  11.176   7.259   9.692
55590SOL     OW68602   9.713  11.822   3.168
55590SOL    HW168603   9.700  11.812   3.262
55590SOL    HW268604   9.685  11.912   3.149
55591SOL     OW68605   2.528  13.543   4.493
55591SOL    HW168606   2.470  13.600   4.443
55591SOL    HW268607   2.601  13.525   4.434
55592SOL     OW68608  10.896   9.090   7.086
55592SOL    HW168609  10.814   9.093   7.136
55592SOL    HW268610  10.898   9.173   7.038
55593SOL     OW68611  10.330   6.742   5.076
55593SOL    HW168612  10.332   6.778   5.164
55593SOL    HW268613  10.416   6.700   5.066
55594SOL     OW68614  14.053  12.484   0.633
55594SOL    HW168615  14.033  12.399   0.593
55594SOL    HW268616  13.987  12.543   0.597
55595SOL     OW68617   6.067   2.339   5.257
55595SOL    HW168618   5.998   2.301   5.312
55595SOL    HW268619   6.020   2.385   5.187
55596SOL     OW68620   4.173  12.474   0.855
55596SOL    HW168621   4.173  12.492   0.949
55596SOL    HW268622   4.116  12.398   0.845
55597SOL     OW68623   8.463   9.383  13.850
55597SOL    HW168624   8.529   9.408  13.785
55597SOL    HW268625   8.414   9.311  13.809
55598SOL     OW68626   4.366  10.816   8.150
55598SOL    HW168627   4.294  10.830   8.089
55598SOL    HW268628   4.354  10.883   8.217
55599SOL     OW68629   9.259  14.435  13.492
55599SOL    HW168630   9.325  14.376  13.456
55599SOL    HW268631   9.275  14.435  13.586
55600SOL     OW68632   3.265   4.915  12.291
55600SOL    HW168633   3.265   5.008  12.314
55600SOL    HW268634   3.231   4.913  12.202
55601SOL     OW68635   0.014   9.773   6.991
55601SOL    HW168636   0.028   9.680   6.977
55601SOL    HW268637  14.805   9.779   7.027
55602SOL     OW68638   7.194  13.547   5.985
55602SOL    HW168639   7.274  13.545   6.038
55602SOL    HW268640   7.201  13.470   5.928
55603SOL     OW68641  13.801  12.047   9.394
55603SOL    HW168642  13.714  12.086   9.380
55603SOL    HW268643  13.861  12.122   9.397
55604SOL     OW68644   9.633  12.434  10.720
55604SOL    HW168645   9.566  12.431  10.652
55604SOL    HW268646   9.625  12.350  10.766
55605SOL     OW68647   0.505   0.244   0.571
55605SOL    HW168648   0.427   0.279   0.612
55605SOL    HW268649   0.476   0.215   0.484
55606SOL     OW68650  12.910   9.335  12.019
55606SOL    HW168651  12.993   9.361  11.980
55606SOL    HW268652  12.917   9.241  12.030
55607SOL     OW68653  14.503   9.161  10.740
55607SOL    HW168654  14.550   9.173  10.823
55607SOL    HW268655  14.561   9.104  10.689
55608SOL     OW68656   4.074  14.761   9.116
55608SOL    HW168657   4.001  14.823   9.119
55608SOL    HW268658   4.066  14.709   9.195
55609SOL     OW68659  13.393  10.232  14.487
55609SOL    HW168660  13.334  10.306  14.496
55609SOL    HW268661  13.348  10.172  14.427
55610SOL     OW68662   8.076   0.857  11.489
55610SOL    HW168663   8.118   0.773  11.505
55610SOL    HW268664   8.126   0.895  11.416
55611SOL     OW68665   8.588  12.477   5.436
55611SOL    HW168666   8.530  12.427   5.379
55611SOL    HW268667   8.530  12.536   5.484
55612SOL     OW68668  11.074  13.936   3.747
55612SOL    HW168669  11.147  13.996   3.760
55612SOL    HW268670  10.999  13.979   3.789
55613SOL     OW68671  14.198  11.181   7.931
55613SOL    HW168672  14.215  11.174   8.025
55613SOL    HW268673  14.256  11.252   7.902
55614SOL     OW68674   4.945   0.807   9.729
55614SOL    HW168675   4.850   0.807   9.733
55614SOL    HW268676   4.966   0.844   9.643
55615SOL     OW68677   7.127   2.054   0.722
55615SOL    HW168678   7.121   1.960   0.739
55615SOL    HW268679   7.151   2.060   0.629
55616SOL     OW68680   9.824   8.636   7.667
55616SOL    HW168681   9.900   8.619   7.722
55616SOL    HW268682   9.770   8.558   7.675
55617SOL     OW68683  12.018  12.712  11.955
55617SOL    HW168684  11.980  12.797  11.980
55617SOL    HW268685  11.992  12.700  11.864
55618SOL     OW68686   4.488   3.944   5.449
55618SOL    HW168687   4.550   3.988   5.508
55618SOL    HW268688   4.404   3.987   5.467
55619SOL     OW68689   0.543   9.486  10.993
55619SOL    HW168690   0.601   9.478  10.916
55619SOL    HW268691   0.592   9.445  11.064
55620SOL     OW68692   8.057   3.717   5.927
55620SOL    HW168693   8.109   3.720   6.007
55620SOL    HW268694   7.976   3.674   5.952
55621SOL     OW68695  14.318   4.381   7.913
55621SOL    HW168696  14.359   4.463   7.887
55621SOL    HW268697  14.383   4.314   7.895
55622SOL     OW68698   1.326   8.366  12.457
55622SOL    HW168699   1.367   8.369  12.544
55622SOL    HW268700   1.390   8.323  12.402
55623SOL     OW68701  11.735   1.257  11.857
55623SOL    HW168702  11.829   1.272  11.862
55623SOL    HW268703  11.717   1.243  11.764
55624SOL     OW68704   0.297   5.229   8.319
55624SOL    HW168705   0.248   5.186   8.250
55624SOL    HW268706   0.247   5.307   8.339
55625SOL     OW68707   7.096  11.955   9.359
55625SOL    HW168708   7.151  11.884   9.390
55625SOL    HW268709   7.054  11.921   9.280
55626SOL     OW68710   1.940  14.860  13.480
55626SOL    HW168711   1.995   0.027  13.544
55626SOL    HW268712   2.002  14.807  13.429
55627SOL     OW68713  14.784   6.482   2.989
55627SOL    HW168714  14.752   6.571   3.000
55627SOL    HW268715  14.777   6.443   3.076
55628SOL     OW68716   1.062   3.495   7.416
55628SOL    HW168717   1.034   3.579   7.453
55628SOL    HW268718   1.096   3.446   7.491
55629SOL     OW68719   6.710   5.875   6.742
55629SOL    HW168720   6.767   5.802   6.719
55629SOL    HW268721   6.763   5.930   6.799
55630SOL     OW68722   1.576  12.510  14.691
55630SOL    HW168723   1.579  12.552  14.777
55630SOL    HW268724   1.610  12.576  14.631
55631SOL     OW68725   1.369   9.361   9.493
55631SOL    HW168726   1.283   9.363   9.451
55631SOL    HW268727   1.390   9.268   9.500
55632SOL     OW68728   0.618   9.646   8.404
55632SOL    HW168729   0.665   9.563   8.414
55632SOL    HW268730   0.553   9.630   8.336
55633SOL     OW68731   6.732  11.666  13.680
55633SOL    HW168732   6.823  11.695  13.683
55633SOL    HW268733   6.712  11.660  13.587
55634SOL     OW68734   4.646  10.075   9.493
55634SOL    HW168735   4.696  10.115   9.564
55634SOL    HW268736   4.605  10.149   9.447
55635SOL     OW68737   7.842   0.416   8.941
55635SOL    HW168738   7.927   0.457   8.957
55635SOL    HW268739   7.843   0.394   8.848
55636SOL     OW68740  13.712   2.413   6.526
55636SOL    HW168741  13.713   2.405   6.430
55636SOL    HW268742  13.738   2.327   6.558
55637SOL     OW68743   4.513  14.287   1.304
55637SOL    HW168744   4.570  14.248   1.238
55637SOL    HW268745   4.447  14.219   1.321
55638SOL     OW68746  10.288  13.157   0.535
55638SOL    HW168747  10.351  13.199   0.593
55638SOL    HW268748  10.302  13.198   0.450
55639SOL     OW68749   4.236   0.927   5.556
55639SOL    HW168750   4.145   0.938   5.582
55639SOL    HW268751   4.286   0.938   5.637
55640SOL     OW68752  13.265   6.883  13.052
55640SOL    HW168753  13.244   6.842  13.136
55640SOL    HW268754  13.352   6.921  13.065
55641SOL     OW68755   7.017   9.983   1.091
55641SOL    HW168756   7.059   9.917   1.036
55641SOL    HW268757   6.932   9.997   1.051
55642SOL     OW68758   8.989   6.471   0.603
55642SOL    HW168759   8.948   6.558   0.599
55642SOL    HW268760   9.029   6.460   0.518
55643SOL     OW68761   5.888  14.495   3.927
55643SOL    HW168762   5.858  14.562   3.987
55643SOL    HW268763   5.973  14.527   3.895
55644SOL     OW68764   2.865  10.122   8.530
55644SOL    HW168765   2.790  10.076   8.491
55644SOL    HW268766   2.938  10.101   8.472
55645SOL     OW68767  13.890   7.076  10.529
55645SOL    HW168768  13.969   7.071  10.583
55645SOL    HW268769  13.819   7.059  10.590
55646SOL     OW68770   4.923  12.136   0.673
55646SOL    HW168771   4.949  12.050   0.705
55646SOL    HW268772   4.845  12.119   0.619
55647SOL     OW68773  14.679   9.627  14.727
55647SOL    HW168774  14.751   9.583  14.772
55647SOL    HW268775  14.647   9.562  14.664
55648SOL     OW68776  12.766   6.725   8.232
55648SOL    HW168777  12.749   6.732   8.138
55648SOL    HW268778  12.742   6.635   8.254
55649SOL     OW68779   0.393   9.230   6.059
55649SOL    HW168780   0.380   9.312   6.106
55649SOL    HW268781   0.488   9.215   6.061
55650SOL     OW68782   2.262   4.364   7.722
55650SOL    HW168783   2.292   4.312   7.648
55650SOL    HW268784   2.184   4.319   7.753
55651SOL     OW68785   6.850   7.675  13.056
55651SOL    HW168786   6.909   7.609  13.022
55651SOL    HW268787   6.805   7.632  13.129
55652SOL     OW68788   6.527   2.136   5.230
55652SOL    HW168789   6.546   2.206   5.168
55652SOL    HW268790   6.549   2.174   5.315
55653SOL     OW68791   7.199   1.852  10.724
55653SOL    HW168792   7.110   1.887  10.714
55653SOL    HW268793   7.240   1.867  10.639
55654SOL     OW68794  10.960   3.021   6.299
55654SOL    HW168795  10.870   3.005   6.327
55654SOL    HW268796  10.992   3.088   6.359
55655SOL     OW68797   2.400   9.591   0.483
55655SOL    HW168798   2.359   9.600   0.398
55655SOL    HW268799   2.489   9.564   0.464
55656SOL     OW68800   3.827   8.677   5.211
55656SOL    HW168801   3.810   8.717   5.296
55656SOL    HW268802   3.766   8.604   5.207
55657SOL     OW68803  11.439   3.410   0.104
55657SOL    HW168804  11.450   3.494   0.059
55657SOL    HW268805  11.400   3.433   0.188
55658SOL     OW68806   5.251   8.165  13.473
55658SOL    HW168807   5.200   8.208  13.406
55658SOL    HW268808   5.340   8.198  13.461
55659SOL     OW68809   3.217   4.610   2.839
55659SOL    HW168810   3.277   4.633   2.910
55659SOL    HW268811   3.184   4.523   2.863
55660SOL     OW68812   5.528   0.466   2.348
55660SOL    HW168813   5.492   0.461   2.436
55660SOL    HW268814   5.494   0.549   2.313
55661SOL     OW68815   1.105   2.373  13.039
55661SOL    HW168816   1.152   2.441  13.086
55661SOL    HW268817   1.152   2.364  12.956
55662SOL     OW68818   6.281   8.927  12.143
55662SOL    HW168819   6.208   8.974  12.102
55662SOL    HW268820   6.321   8.991  12.202
55663SOL     OW68821   7.645   9.435  12.208
55663SOL    HW168822   7.551   9.431  12.194
55663SOL    HW268823   7.667   9.528  12.199
55664SOL     OW68824   4.522   2.377  13.928
55664SOL    HW168825   4.436   2.417  13.918
55664SOL    HW268826   4.570   2.436  13.986
55665SOL     OW68827   5.762   7.684   7.987
55665SOL    HW168828   5.849   7.713   7.959
55665SOL    HW268829   5.775   7.658   8.078
55666SOL     OW68830   5.738  14.083   0.800
55666SOL    HW168831   5.811  14.032   0.763
55666SOL    HW268832   5.760  14.091   0.893
55667SOL     OW68833  13.655   6.805   3.068
55667SOL    HW168834  13.645   6.831   3.159
55667SOL    HW268835  13.714   6.730   3.071
55668SOL     OW68836   4.299   6.300   7.929
55668SOL    HW168837   4.216   6.339   7.904
55668SOL    HW268838   4.327   6.251   7.851
55669SOL     OW68839   8.195  12.119   9.757
55669SOL    HW168840   8.237  12.103   9.841
55669SOL    HW268841   8.195  12.034   9.713
55670SOL     OW68842   8.234   2.629   2.196
55670SOL    HW168843   8.282   2.614   2.278
55670SOL    HW268844   8.301   2.625   2.128
55671SOL     OW68845   7.531   0.676  11.757
55671SOL    HW168846   7.572   0.595  11.787
55671SOL    HW268847   7.456   0.647  11.705
55672SOL     OW68848   6.105   0.272   2.586
55672SOL    HW168849   6.087   0.195   2.641
55672SOL    HW268850   6.048   0.340   2.622
55673SOL     OW68851   1.507   7.315   2.864
55673SOL    HW168852   1.458   7.397   2.867
55673SOL    HW268853   1.527   7.302   2.772
55674SOL     OW68854   8.576   0.834   5.770
55674SOL    HW168855   8.567   0.743   5.796
55674SOL    HW268856   8.494   0.876   5.797
55675SOL     OW68857  12.654  10.316   0.648
55675SOL    HW168858  12.623  10.406   0.638
55675SOL    HW268859  12.581  10.262   0.618
55676SOL     OW68860  13.101  10.660  14.147
55676SOL    HW168861  13.017  10.694  14.178
55676SOL    HW268862  13.117  10.583  14.202
55677SOL     OW68863   4.663   7.210   4.958
55677SOL    HW168864   4.757   7.214   4.939
55677SOL    HW268865   4.657   7.222   5.053
55678SOL     OW68866  13.086   8.656  10.295
55678SOL    HW168867  13.100   8.725  10.231
55678SOL    HW268868  13.029   8.696  10.361
55679SOL     OW68869   9.808   2.667   2.358
55679SOL    HW168870   9.849   2.597   2.409
55679SOL    HW268871   9.881   2.723   2.330
55680SOL     OW68872   1.010   2.482   4.941
55680SOL    HW168873   1.083   2.484   4.879
55680SOL    HW268874   0.986   2.389   4.947
55681SOL     OW68875   2.579   1.849  12.202
55681SOL    HW168876   2.503   1.844  12.260
55681SOL    HW268877   2.562   1.784  12.134
55682SOL     OW68878   4.225   0.492  13.051
55682SOL    HW168879   4.163   0.431  13.092
55682SOL    HW268880   4.171   0.545  12.993
55683SOL     OW68881   2.797   8.379   3.958
55683SOL    HW168882   2.714   8.421   3.937
55683SOL    HW268883   2.842   8.441   4.015
55684SOL     OW68884  14.114   9.920   4.689
55684SOL    HW168885  14.079   9.848   4.637
55684SOL    HW268886  14.207   9.900   4.698
55685SOL     OW68887   6.583   4.456   1.408
55685SOL    HW168888   6.587   4.531   1.466
55685SOL    HW268889   6.639   4.479   1.334
55686SOL     OW68890   4.862   3.786   5.105
55686SOL    HW168891   4.766   3.791   5.104
55686SOL    HW268892   4.881   3.717   5.169
55687SOL     OW68893   4.668   9.259   1.243
55687SOL    HW168894   4.731   9.196   1.207
55687SOL    HW268895   4.688   9.260   1.337
55688SOL     OW68896   6.966  10.879  14.692
55688SOL    HW168897   7.059  10.880  14.669
55688SOL    HW268898   6.927  10.947  14.637
55689SOL     OW68899   4.630  12.180   4.133
55689SOL    HW168900   4.552  12.205   4.183
55689SOL    HW268901   4.694  12.248   4.155
55690SOL     OW68902  11.562  11.328   1.230
55690SOL    HW168903  11.589  11.382   1.156
55690SOL    HW268904  11.640  11.321   1.286
55691SOL     OW68905   8.228  11.834  14.677
55691SOL    HW168906   8.275  11.814  14.758
55691SOL    HW268907   8.142  11.794  14.688
55692SOL     OW68908   6.053   5.718  10.120
55692SOL    HW168909   6.140   5.730  10.081
55692SOL    HW268910   6.007   5.662  10.058
55693SOL     OW68911   2.203   8.529   2.587
55693SOL    HW168912   2.276   8.550   2.529
55693SOL    HW268913   2.218   8.582   2.666
55694SOL     OW68914  11.382  11.161   9.201
55694SOL    HW168915  11.399  11.145   9.108
55694SOL    HW268916  11.412  11.081   9.245
55695SOL     OW68917   9.588   7.386   5.381
55695SOL    HW168918   9.535   7.415   5.455
55695SOL    HW268919   9.596   7.463   5.325
55696SOL     OW68920   6.365   9.786   3.917
55696SOL    HW168921   6.354   9.879   3.898
55696SOL    HW268922   6.378   9.782   4.012
55697SOL     OW68923   4.842   1.376  10.865
55697SOL    HW168924   4.890   1.384  10.947
55697SOL    HW268925   4.766   1.322  10.887
55698SOL     OW68926   1.706   2.238   0.676
55698SOL    HW168927   1.717   2.278   0.762
55698SOL    HW268928   1.660   2.304   0.624
55699SOL     OW68929   5.368   0.873   3.671
55699SOL    HW168930   5.285   0.916   3.649
55699SOL    HW268931   5.375   0.802   3.606
55700SOL     OW68932   2.829   5.696   6.759
55700SOL    HW168933   2.866   5.627   6.703
55700SOL    HW268934   2.809   5.767   6.699
55701SOL     OW68935   3.034  13.310  11.329
55701SOL    HW168936   3.091  13.237  11.350
55701SOL    HW268937   3.088  13.369  11.276
55702SOL     OW68938  12.003  13.585  14.797
55702SOL    HW168939  11.933  13.629  14.749
55702SOL    HW268940  12.083  13.625  14.765
55703SOL     OW68941  12.895   2.308   6.187
55703SOL    HW168942  12.806   2.317   6.222
55703SOL    HW268943  12.928   2.398   6.183
55704SOL     OW68944  13.003  10.211   3.081
55704SOL    HW168945  13.086  10.251   3.107
55704SOL    HW268946  13.027  10.125   3.047
55705SOL     OW68947   9.865   6.590  11.535
55705SOL    HW168948   9.885   6.505  11.575
55705SOL    HW268949   9.814   6.637  11.601
55706SOL     OW68950  11.295   6.231  13.850
55706SOL    HW168951  11.374   6.214  13.902
55706SOL    HW268952  11.223   6.203  13.906
55707SOL     OW68953  14.485   0.437   6.630
55707SOL    HW168954  14.573   0.405   6.652
55707SOL    HW268955  14.430   0.407   6.703
55708SOL     OW68956   3.269   9.218   1.099
55708SOL    HW168957   3.310   9.157   1.038
55708SOL    HW268958   3.230   9.161   1.166
55709SOL     OW68959  13.839   5.516   7.546
55709SOL    HW168960  13.836   5.574   7.470
55709SOL    HW268961  13.922   5.468   7.536
55710SOL     OW68962   9.355   3.687  13.634
55710SOL    HW168963   9.293   3.738  13.686
55710SOL    HW268964   9.375   3.742  13.559
55711SOL     OW68965  14.796   6.668   9.909
55711SOL    HW168966  14.812   6.699   9.998
55711SOL    HW268967  14.767   6.577   9.921
55712SOL     OW68968   4.549  11.804   1.591
55712SOL    HW168969   4.587  11.890   1.572
55712SOL    HW268970   4.613  11.741   1.557
55713SOL     OW68971   2.581  11.461  14.620
55713SOL    HW168972   2.624  11.376  14.629
55713SOL    HW268973   2.488  11.442  14.628
55714SOL     OW68974  13.723   4.672   2.627
55714SOL    HW168975  13.722   4.675   2.722
55714SOL    HW268976  13.724   4.763   2.599
55715SOL     OW68977   4.639   0.726   8.984
55715SOL    HW168978   4.573   0.709   9.052
55715SOL    HW268979   4.608   0.804   8.940
55716SOL     OW68980   1.725  14.149   8.486
55716SOL    HW168981   1.813  14.118   8.508
55716SOL    HW268982   1.686  14.174   8.570
55717SOL     OW68983  12.160  14.874  13.401
55717SOL    HW168984  12.071  14.850  13.377
55717SOL    HW268985  12.157   0.090  13.414
55718SOL     OW68986  11.883   2.446   5.581
55718SOL    HW168987  11.856   2.398   5.659
55718SOL    HW268988  11.871   2.384   5.509
55719SOL     OW68989   7.743   6.030   7.525
55719SOL    HW168990   7.793   6.083   7.587
55719SOL    HW268991   7.670   6.086   7.499
55720SOL     OW68992   7.889  11.838   3.813
55720SOL    HW168993   7.868  11.902   3.881
55720SOL    HW268994   7.819  11.773   3.818
55721SOL     OW68995   2.738  13.315   4.091
55721SOL    HW168996   2.706  13.229   4.119
55721SOL    HW268997   2.697  13.329   4.006
55722SOL     OW68998   3.364  13.363   4.376
55722SOL    HW168999   3.329  13.289   4.426
55722SOL    HW269000   3.449  13.332   4.344
55723SOL     OW69001   2.781  13.810   5.839
55723SOL    HW169002   2.697  13.770   5.863
55723SOL    HW269003   2.762  13.904   5.833
55724SOL     OW69004  10.194   0.841   7.908
55724SOL    HW169005  10.231   0.760   7.871
55724SOL    HW269006  10.106   0.816   7.937
55725SOL     OW69007  14.287   3.993   5.519
55725SOL    HW169008  14.355   4.042   5.473
55725SOL    HW269009  14.205   4.022   5.478
55726SOL     OW69010  14.345  13.473  13.680
55726SOL    HW169011  14.315  13.448  13.767
55726SOL    HW269012  14.379  13.562  13.691
55727SOL     OW69013  10.976   3.358   4.923
55727SOL    HW169014  10.886   3.389   4.914
55727SOL    HW269015  10.980   3.321   5.011
55728SOL     OW69016   1.983   4.776  10.923
55728SOL    HW169017   2.032   4.853  10.893
55728SOL    HW269018   1.967   4.792  11.016
55729SOL     OW69019   7.663   7.900   4.495
55729SOL    HW169020   7.718   7.833   4.535
55729SOL    HW269021   7.695   7.908   4.405
55730SOL     OW69022   2.666   6.901   2.363
55730SOL    HW169023   2.701   6.921   2.277
55730SOL    HW269024   2.598   6.968   2.377
55731SOL     OW69025  10.438   8.771  12.772
55731SOL    HW169026  10.417   8.860  12.799
55731SOL    HW269027  10.397   8.715  12.838
55732SOL     OW69028  14.823   1.273  10.912
55732SOL    HW169029   0.032   1.310  10.915
55732SOL    HW269030  14.765   1.349  10.910
55733SOL     OW69031   1.663   3.403  10.995
55733SOL    HW169032   1.695   3.433  11.080
55733SOL    HW269033   1.689   3.471  10.933
55734SOL     OW69034   2.150  11.637   9.427
55734SOL    HW169035   2.085  11.625   9.495
55734SOL    HW269036   2.173  11.548   9.400
55735SOL     OW69037   5.896  14.315   5.509
55735SOL    HW169038   5.866  14.256   5.579
55735SOL    HW269039   5.821  14.325   5.451
55736SOL     OW69040  11.530   2.622   2.445
55736SOL    HW169041  11.561   2.647   2.533
55736SOL    HW269042  11.566   2.689   2.387
55737SOL     OW69043   3.097   0.377  14.409
55737SOL    HW169044   3.171   0.431  14.381
55737SOL    HW269045   3.073   0.328  14.330
55738SOL     OW69046   9.370   0.096   1.812
55738SOL    HW169047   9.341   0.177   1.769
55738SOL    HW269048   9.435   0.126   1.876
55739SOL     OW69049  14.313   8.027   1.760
55739SOL    HW169050  14.376   8.049   1.691
55739SOL    HW269051  14.367   8.011   1.837
55740SOL     OW69052  11.003   9.309  12.202
55740SOL    HW169053  10.960   9.325  12.286
55740SOL    HW269054  11.091   9.346  12.213
55741SOL     OW69055   1.991   7.498   2.078
55741SOL    HW169056   1.920   7.556   2.105
55741SOL    HW269057   1.947   7.423   2.038
55742SOL     OW69058  12.710   7.233   5.805
55742SOL    HW169059  12.742   7.208   5.892
55742SOL    HW269060  12.730   7.158   5.749
55743SOL     OW69061  13.376  13.812  12.786
55743SOL    HW169062  13.423  13.814  12.870
55743SOL    HW269063  13.430  13.866  12.728
55744SOL     OW69064   7.443   6.754  11.721
55744SOL    HW169065   7.470   6.691  11.654
55744SOL    HW269066   7.429   6.701  11.799
55745SOL     OW69067  11.586   0.942   9.606
55745SOL    HW169068  11.596   0.937   9.511
55745SOL    HW269069  11.662   0.895   9.641
55746SOL     OW69070  10.523  12.794  12.330
55746SOL    HW169071  10.476  12.877  12.328
55746SOL    HW269072  10.499  12.750  12.249
55747SOL     OW69073   1.270   5.494  13.273
55747SOL    HW169074   1.220   5.544  13.337
55747SOL    HW269075   1.348   5.464  13.320
55748SOL     OW69076   1.958   7.845   3.729
55748SOL    HW169077   1.957   7.926   3.677
55748SOL    HW269078   1.951   7.775   3.664
55749SOL     OW69079   5.531   7.751  10.752
55749SOL    HW169080   5.481   7.772  10.831
55749SOL    HW269081   5.505   7.818  10.689
55750SOL     OW69082   1.559  14.184  13.086
55750SOL    HW169083   1.631  14.122  13.102
55750SOL    HW269084   1.502  14.174  13.162
55751SOL     OW69085  10.173  10.159   6.805
55751SOL    HW169086  10.210  10.230   6.752
55751SOL    HW269087  10.108  10.201   6.860
55752SOL     OW69088  10.021   9.069   0.227
55752SOL    HW169089   9.950   9.039   0.169
55752SOL    HW269090  10.042   9.156   0.195
55753SOL     OW69091   6.520   1.119   5.736
55753SOL    HW169092   6.575   1.167   5.799
55753SOL    HW269093   6.432   1.151   5.753
55754SOL     OW69094  14.098  13.467   1.741
55754SOL    HW169095  14.099  13.390   1.683
55754SOL    HW269096  14.174  13.455   1.797
55755SOL     OW69097   2.743   5.834  11.837
55755SOL    HW169098   2.767   5.824  11.745
55755SOL    HW269099   2.696   5.918  11.840
55756SOL     OW69100  10.230   3.242   3.027
55756SOL    HW169101  10.325   3.245   3.030
55756SOL    HW269102  10.207   3.166   3.081
55757SOL     OW69103   7.033   8.427  13.253
55757SOL    HW169104   6.975   8.381  13.314
55757SOL    HW269105   6.985   8.430  13.171
55758SOL     OW69106  13.021   9.980   7.190
55758SOL    HW169107  12.957  10.036   7.233
55758SOL    HW269108  13.020  10.007   7.099
55759SOL     OW69109  11.563  11.156   4.798
55759SOL    HW169110  11.584  11.244   4.830
55759SOL    HW269111  11.552  11.167   4.703
55760SOL     OW69112  12.951  14.339   7.457
55760SOL    HW169113  12.904  14.300   7.383
55760SOL    HW269114  12.944  14.273   7.527
55761SOL     OW69115   6.034  11.397  13.463
55761SOL    HW169116   6.036  11.458  13.536
55761SOL    HW269117   5.962  11.428  13.408
55762SOL     OW69118   5.814  13.660  11.961
55762SOL    HW169119   5.782  13.630  11.876
55762SOL    HW269120   5.895  13.610  11.975
55763SOL     OW69121  11.058  12.539   3.591
55763SOL    HW169122  11.134  12.592   3.616
55763SOL    HW269123  11.038  12.489   3.671
55764SOL     OW69124   7.795   5.764   8.135
55764SOL    HW169125   7.815   5.794   8.047
55764SOL    HW269126   7.842   5.824   8.193
55765SOL     OW69127  13.841   3.735  14.218
55765SOL    HW169128  13.872   3.644  14.219
55765SOL    HW269129  13.774   3.738  14.286
55766SOL     OW69130   7.772   8.212  13.364
55766SOL    HW169131   7.808   8.127  13.392
55766SOL    HW269132   7.825   8.236  13.289
55767SOL     OW69133   6.629   7.068   4.218
55767SOL    HW169134   6.634   6.990   4.162
55767SOL    HW269135   6.535   7.085   4.227
55768SOL     OW69136  13.970  12.717   3.762
55768SOL    HW169137  13.922  12.645   3.802
55768SOL    HW269138  14.029  12.747   3.832
55769SOL     OW69139   0.678   7.855  13.224
55769SOL    HW169140   0.682   7.792  13.295
55769SOL    HW269141   0.656   7.803  13.146
55770SOL     OW69142   8.403   5.725   7.527
55770SOL    HW169143   8.493   5.708   7.556
55770SOL    HW269144   8.364   5.777   7.598
55771SOL     OW69145   1.593  11.208  14.558
55771SOL    HW169146   1.503  11.182  14.576
55771SOL    HW269147   1.593  11.234  14.466
55772SOL     OW69148  11.815  12.021   9.038
55772SOL    HW169149  11.908  12.038   9.054
55772SOL    HW269150  11.796  11.941   9.088
55773SOL     OW69151   9.011  12.755  10.463
55773SOL    HW169152   9.007  12.663  10.436
55773SOL    HW269153   8.948  12.761  10.536
55774SOL     OW69154   7.610  11.293   4.740
55774SOL    HW169155   7.577  11.377   4.708
55774SOL    HW269156   7.566  11.228   4.686
55775SOL     OW69157  13.356  14.749   2.233
55775SOL    HW169158  13.409  14.814   2.187
55775SOL    HW269159  13.409  14.670   2.233
55776SOL     OW69160   5.222   4.690  11.527
55776SOL    HW169161   5.220   4.783  11.509
55776SOL    HW269162   5.201   4.683  11.621
55777SOL     OW69163   6.302  14.024   4.731
55777SOL    HW169164   6.270  14.042   4.820
55777SOL    HW269165   6.397  14.016   4.740
55778SOL     OW69166   2.921  10.898   3.492
55778SOL    HW169167   2.949  10.863   3.408
55778SOL    HW269168   2.914  10.993   3.479
55779SOL     OW69169  14.099   7.921   5.210
55779SOL    HW169170  14.048   7.958   5.282
55779SOL    HW269171  14.053   7.951   5.131
55780SOL     OW69172   2.976   0.512  11.927
55780SOL    HW169173   3.032   0.460  11.869
55780SOL    HW269174   3.030   0.526  12.005
55781SOL     OW69175  10.193   2.492   3.403
55781SOL    HW169176  10.140   2.461   3.475
55781SOL    HW269177  10.171   2.585   3.395
55782SOL     OW69178   0.516   6.270   3.799
55782SOL    HW169179   0.449   6.331   3.766
55782SOL    HW269180   0.498   6.188   3.754
55783SOL     OW69181   8.224   3.698   2.701
55783SOL    HW169182   8.185   3.673   2.617
55783SOL    HW269183   8.270   3.780   2.682
55784SOL     OW69184  10.299  12.414   4.183
55784SOL    HW169185  10.225  12.354   4.175
55784SOL    HW269186  10.373  12.365   4.149
55785SOL     OW69187   2.226  10.657  11.200
55785SOL    HW169188   2.289  10.600  11.154
55785SOL    HW269189   2.260  10.662  11.290
55786SOL     OW69190   4.796   9.484   2.441
55786SOL    HW169191   4.757   9.433   2.511
55786SOL    HW269192   4.840   9.420   2.385
55787SOL     OW69193   1.610   3.246   5.299
55787SOL    HW169194   1.689   3.255   5.246
55787SOL    HW269195   1.560   3.326   5.282
55788SOL     OW69196  10.952  13.529  14.836
55788SOL    HW169197  10.909  13.503   0.039
55788SOL    HW269198  11.004  13.453  14.811
55789SOL     OW69199   1.136   3.168   7.514
55789SOL    HW169200   1.063   3.160   7.452
55789SOL    HW269201   1.209   3.199   7.460
55790SOL     OW69202   6.329   3.721   8.205
55790SOL    HW169203   6.236   3.743   8.211
55790SOL    HW269204   6.362   3.729   8.295
55791SOL     OW69205   5.484   3.068  12.204
55791SOL    HW169206   5.430   3.010  12.256
55791SOL    HW269207   5.464   3.156  12.237
55792SOL     OW69208   1.186   6.060   7.733
55792SOL    HW169209   1.170   6.127   7.798
55792SOL    HW269210   1.281   6.045   7.737
55793SOL     OW69211   5.484   2.753   8.839
55793SOL    HW169212   5.418   2.813   8.873
55793SOL    HW269213   5.514   2.704   8.916
55794SOL     OW69214   6.821   3.646  14.382
55794SOL    HW169215   6.896   3.588  14.395
55794SOL    HW269216   6.823   3.668  14.289
55795SOL     OW69217   1.222  11.183  14.124
55795SOL    HW169218   1.229  11.231  14.206
55795SOL    HW269219   1.312  11.159  14.102
55796SOL     OW69220   7.783   8.300   3.036
55796SOL    HW169221   7.718   8.294   3.106
55796SOL    HW269222   7.731   8.317   2.957
55797SOL     OW69223   4.922   4.366  10.152
55797SOL    HW169224   4.892   4.298  10.213
55797SOL    HW269225   5.004   4.331  10.117
55798SOL     OW69226  11.582  13.716   0.169
55798SOL    HW169227  11.593  13.808   0.196
55798SOL    HW269228  11.487  13.703   0.169
55799SOL     OW69229   1.577   0.017   0.612
55799SOL    HW169230   1.567   0.089   0.675
55799SOL    HW269231   1.488  14.863   0.599
55800SOL     OW69232   2.701  10.999   1.552
55800SOL    HW169233   2.739  10.973   1.468
55800SOL    HW269234   2.671  11.089   1.537
55801SOL     OW69235   6.801   9.482   5.008
55801SOL    HW169236   6.749   9.448   5.081
55801SOL    HW269237   6.814   9.407   4.950
55802SOL     OW69238  10.930   7.078  13.025
55802SOL    HW169239  10.862   7.040  12.969
55802SOL    HW269240  10.989   7.006  13.044
55803SOL     OW69241   9.294  13.593   5.386
55803SOL    HW169242   9.350  13.549   5.450
55803SOL    HW269243   9.354  13.648   5.336
55804SOL     OW69244  12.094  10.113   0.827
55804SOL    HW169245  12.015  10.120   0.880
55804SOL    HW269246  12.163  10.091   0.890
55805SOL     OW69247   0.283   8.203  14.296
55805SOL    HW169248   0.320   8.290  14.280
55805SOL    HW269249   0.237   8.211  14.379
55806SOL     OW69250  11.704   9.860   4.754
55806SOL    HW169251  11.750   9.903   4.682
55806SOL    HW269252  11.611   9.879   4.739
55807SOL     OW69253   5.353   3.250   4.332
55807SOL    HW169254   5.444   3.280   4.330
55807SOL    HW269255   5.335   3.221   4.243
55808SOL     OW69256   5.228  11.347   9.254
55808SOL    HW169257   5.275  11.403   9.191
55808SOL    HW269258   5.147  11.323   9.209
55809SOL     OW69259   8.131  13.068   9.686
55809SOL    HW169260   8.096  13.043   9.601
55809SOL    HW269261   8.181  13.148   9.669
55810SOL     OW69262  12.818  10.652   4.754
55810SOL    HW169263  12.905  10.643   4.794
55810SOL    HW269264  12.817  10.740   4.717
55811SOL     OW69265   6.729   5.692  11.885
55811SOL    HW169266   6.773   5.709  11.802
55811SOL    HW269267   6.699   5.778  11.915
55812SOL     OW69268   5.897   4.622   4.912
55812SOL    HW169269   5.939   4.568   4.978
55812SOL    HW269270   5.871   4.702   4.958
55813SOL     OW69271  13.756  11.847   3.531
55813SOL    HW169272  13.683  11.889   3.486
55813SOL    HW269273  13.820  11.829   3.462
55814SOL     OW69274  11.206   2.810   3.949
55814SOL    HW169275  11.279   2.749   3.953
55814SOL    HW269276  11.186   2.817   3.856
55815SOL     OW69277   4.142   4.986   7.918
55815SOL    HW169278   4.055   5.005   7.881
55815SOL    HW269279   4.178   5.071   7.940
55816SOL     OW69280   7.177   8.358  13.800
55816SOL    HW169281   7.121   8.435  13.811
55816SOL    HW269282   7.265   8.388  13.820
55817SOL     OW69283   1.418   1.550   3.212
55817SOL    HW169284   1.371   1.467   3.219
55817SOL    HW269285   1.378   1.605   3.280
55818SOL     OW69286   6.637   4.547   6.877
55818SOL    HW169287   6.630   4.469   6.933
55818SOL    HW269288   6.660   4.512   6.791
55819SOL     OW69289   8.665   8.626   0.135
55819SOL    HW169290   8.654   8.582   0.050
55819SOL    HW269291   8.613   8.706   0.127
55820SOL     OW69292   6.684   1.307  12.988
55820SOL    HW169293   6.750   1.347  12.931
55820SOL    HW269294   6.601   1.345  12.959
55821SOL     OW69295   0.448   9.607   4.468
55821SOL    HW169296   0.502   9.575   4.396
55821SOL    HW269297   0.358   9.598   4.437
55822SOL     OW69298   2.789   9.411   1.062
55822SOL    HW169299   2.834   9.478   1.011
55822SOL    HW269300   2.767   9.344   0.998
55823SOL     OW69301  10.082   1.421  14.146
55823SOL    HW169302  10.154   1.484  14.144
55823SOL    HW269303  10.036   1.434  14.064
55824SOL     OW69304   6.148   2.507   7.424
55824SOL    HW169305   6.174   2.504   7.516
55824SOL    HW269306   6.139   2.600   7.404
55825SOL     OW69307  10.915   2.479  13.135
55825SOL    HW169308  10.855   2.405  13.140
55825SOL    HW269309  10.874   2.547  13.188
55826SOL     OW69310   4.328   6.332   6.270
55826SOL    HW169311   4.259   6.319   6.204
55826SOL    HW269312   4.346   6.243   6.303
55827SOL     OW69313   9.387   9.644  10.996
55827SOL    HW169314   9.454   9.576  10.992
55827SOL    HW269315   9.409   9.695  11.074
55828SOL     OW69316   1.393   4.528   3.543
55828SOL    HW169317   1.469   4.480   3.508
55828SOL    HW269318   1.428   4.614   3.566
55829SOL     OW69319  14.366  10.688   9.640
55829SOL    HW169320  14.303  10.696   9.712
55829SOL    HW269321  14.353  10.768   9.589
55830SOL     OW69322   4.265   3.165  10.046
55830SOL    HW169323   4.292   3.076  10.066
55830SOL    HW269324   4.325   3.221  10.095
55831SOL     OW69325   6.203   2.494   7.689
55831SOL    HW169326   6.272   2.558   7.706
55831SOL    HW269327   6.241   2.410   7.713
55832SOL     OW69328   3.865   5.930  14.467
55832SOL    HW169329   3.864   5.982  14.548
55832SOL    HW269330   3.929   5.973  14.412
55833SOL     OW69331   7.909   7.420  13.707
55833SOL    HW169332   7.816   7.442  13.706
55833SOL    HW269333   7.944   7.462  13.629
55834SOL     OW69334  11.379  11.659   9.019
55834SOL    HW169335  11.326  11.643   8.940
55834SOL    HW269336  11.426  11.577   9.033
55835SOL     OW69337   4.383   0.245   0.978
55835SOL    HW169338   4.396   0.322   1.034
55835SOL    HW269339   4.446   0.257   0.907
55836SOL     OW69340   5.075   9.456   6.794
55836SOL    HW169341   5.170   9.460   6.808
55836SOL    HW269342   5.040   9.533   6.840
55837SOL     OW69343   3.085  14.337   7.406
55837SOL    HW169344   3.170  14.299   7.387
55837SOL    HW269345   3.102  14.399   7.477
55838SOL     OW69346   8.903   1.740   7.995
55838SOL    HW169347   8.921   1.685   8.071
55838SOL    HW269348   8.815   1.775   8.011
55839SOL     OW69349  14.257   0.229   4.717
55839SOL    HW169350  14.194   0.281   4.667
55839SOL    HW269351  14.338   0.232   4.666
55840SOL     OW69352   6.394  10.650  10.096
55840SOL    HW169353   6.359  10.587  10.159
55840SOL    HW269354   6.462  10.697  10.144
55841SOL     OW69355   2.333   0.955   0.732
55841SOL    HW169356   2.334   0.977   0.639
55841SOL    HW269357   2.321   1.039   0.776
55842SOL     OW69358  10.813   0.942   8.961
55842SOL    HW169359  10.751   0.909   8.897
55842SOL    HW269360  10.804   1.038   8.955
55843SOL     OW69361   5.392   8.901   2.117
55843SOL    HW169362   5.385   8.995   2.134
55843SOL    HW269363   5.481   8.879   2.145
55844SOL     OW69364  10.974  13.143   9.757
55844SOL    HW169365  10.942  13.116   9.844
55844SOL    HW269366  10.902  13.193   9.720
55845SOL     OW69367   3.757  13.430   2.737
55845SOL    HW169368   3.722  13.517   2.717
55845SOL    HW269369   3.755  13.383   2.654
55846SOL     OW69370   0.894   2.090  13.644
55846SOL    HW169371   0.956   2.035  13.597
55846SOL    HW269372   0.817   2.094  13.588
55847SOL     OW69373  14.223   0.710   1.458
55847SOL    HW169374  14.242   0.765   1.383
55847SOL    HW269375  14.299   0.651   1.464
55848SOL     OW69376   5.085   4.521   5.664
55848SOL    HW169377   5.152   4.517   5.732
55848SOL    HW269378   5.090   4.610   5.631
55849SOL     OW69379   8.084   1.419   6.603
55849SOL    HW169380   8.099   1.468   6.684
55849SOL    HW269381   8.172   1.399   6.570
55850SOL     OW69382   5.042   3.663   1.605
55850SOL    HW169383   4.989   3.589   1.574
55850SOL    HW269384   5.040   3.726   1.533
55851SOL     OW69385   4.664   0.758   2.320
55851SOL    HW169386   4.692   0.765   2.228
55851SOL    HW269387   4.716   0.824   2.366
55852SOL     OW69388   9.562   8.448   7.937
55852SOL    HW169389   9.474   8.437   7.901
55852SOL    HW269390   9.570   8.542   7.953
55853SOL     OW69391   9.479   3.717   7.456
55853SOL    HW169392   9.516   3.766   7.530
55853SOL    HW269393   9.466   3.629   7.491
55854SOL     OW69394  13.503   2.501   5.512
55854SOL    HW169395  13.587   2.500   5.466
55854SOL    HW269396  13.486   2.593   5.529
55855SOL     OW69397  13.765  13.235   3.344
55855SOL    HW169398  13.685  13.270   3.384
55855SOL    HW269399  13.745  13.228   3.251
55856SOL     OW69400   2.632   4.028   9.485
55856SOL    HW169401   2.692   4.026   9.410
55856SOL    HW269402   2.545   4.026   9.445
55857SOL     OW69403  14.192  11.184   5.109
55857SOL    HW169404  14.184  11.090   5.126
55857SOL    HW269405  14.236  11.190   5.025
55858SOL     OW69406  14.568   1.904  14.329
55858SOL    HW169407  14.503   1.975  14.330
55858SOL    HW269408  14.551   1.858  14.247
55859SOL     OW69409  13.092   6.041   3.417
55859SOL    HW169410  13.099   6.074   3.507
55859SOL    HW269411  13.176   6.064   3.377
55860SOL     OW69412   9.166  14.854   7.765
55860SOL    HW169413   9.158  14.803   7.846
55860SOL    HW269414   9.082  14.841   7.720
55861SOL     OW69415   1.216   8.881   7.484
55861SOL    HW169416   1.298   8.831   7.479
55861SOL    HW269417   1.245   8.972   7.493
55862SOL     OW69418  14.793   0.249  11.801
55862SOL    HW169419  14.741   0.193  11.859
55862SOL    HW269420  14.826   0.189  11.733
55863SOL     OW69421  11.130   5.515   5.698
55863SOL    HW169422  11.061   5.559   5.747
55863SOL    HW269423  11.116   5.541   5.607
55864SOL     OW69424   8.978  12.213   9.838
55864SOL    HW169425   9.071  12.214   9.816
55864SOL    HW269426   8.975  12.240   9.930
55865SOL     OW69427   5.130   0.303  10.822
55865SOL    HW169428   5.142   0.252  10.742
55865SOL    HW269429   5.213   0.347  10.836
55866SOL     OW69430   0.152   2.039   6.339
55866SOL    HW169431   0.133   1.961   6.287
55866SOL    HW269432   0.074   2.051   6.393
55867SOL     OW69433   3.995   1.260   0.117
55867SOL    HW169434   3.982   1.203   0.041
55867SOL    HW269435   3.906   1.277   0.150
55868SOL     OW69436  10.294  14.640  13.938
55868SOL    HW169437  10.247  14.724  13.939
55868SOL    HW269438  10.373  14.657  13.990
55869SOL     OW69439   8.555  12.131  13.045
55869SOL    HW169440   8.564  12.043  13.008
55869SOL    HW269441   8.634  12.143  13.097
55870SOL     OW69442   8.017  12.553   3.561
55870SOL    HW169443   8.099  12.517   3.595
55870SOL    HW269444   8.000  12.503   3.481
55871SOL     OW69445   7.468   0.471   4.695
55871SOL    HW169446   7.534   0.482   4.626
55871SOL    HW269447   7.386   0.499   4.653
55872SOL     OW69448   5.375   6.451   0.640
55872SOL    HW169449   5.421   6.534   0.627
55872SOL    HW269450   5.445   6.387   0.657
55873SOL     OW69451  14.245   2.306   2.182
55873SOL    HW169452  14.216   2.217   2.202
55873SOL    HW269453  14.269   2.302   2.089
55874SOL     OW69454   6.605   8.558   1.376
55874SOL    HW169455   6.512   8.577   1.359
55874SOL    HW269456   6.649   8.641   1.362
55875SOL     OW69457   6.155   4.875   7.921
55875SOL    HW169458   6.133   4.906   8.009
55875SOL    HW269459   6.215   4.941   7.887
55876SOL     OW69460   2.009   3.056   0.862
55876SOL    HW169461   2.083   2.997   0.854
55876SOL    HW269462   2.042   3.130   0.913
55877SOL     OW69463  13.544   0.024  11.426
55877SOL    HW169464  13.604   0.041  11.499
55877SOL    HW269465  13.485  14.835  11.460
55878SOL     OW69466   8.527   3.075   3.285
55878SOL    HW169467   8.471   3.112   3.353
55878SOL    HW269468   8.497   3.118   3.204
55879SOL     OW69469   3.811   3.547  14.066
55879SOL    HW169470   3.862   3.491  14.007
55879SOL    HW269471   3.854   3.538  14.151
55880SOL     OW69472   0.827   2.681   5.298
55880SOL    HW169473   0.785   2.596   5.287
55880SOL    HW269474   0.832   2.693   5.393
55881SOL     OW69475   1.145   8.074  12.976
55881SOL    HW169476   1.184   8.028  12.901
55881SOL    HW269477   1.071   8.019  13.002
55882SOL     OW69478   0.152   7.755   1.291
55882SOL    HW169479   0.227   7.710   1.329
55882SOL    HW269480   0.183   7.787   1.207
55883SOL     OW69481  14.396   0.655   9.964
55883SOL    HW169482  14.367   0.603   9.889
55883SOL    HW269483  14.437   0.592  10.023
55884SOL     OW69484   3.958   1.911   4.688
55884SOL    HW169485   3.883   1.967   4.666
55884SOL    HW269486   3.934   1.825   4.653
55885SOL     OW69487  14.770   3.409  14.794
55885SOL    HW169488  14.857   3.440  14.767
55885SOL    HW269489  14.785   3.367  14.878
55886SOL     OW69490   0.258  10.086  10.903
55886SOL    HW169491   0.315  10.124  10.836
55886SOL    HW269492   0.199  10.029  10.854
55887SOL     OW69493   3.990   6.371   4.765
55887SOL    HW169494   4.019   6.444   4.710
55887SOL    HW269495   4.029   6.388   4.851
55888SOL     OW69496   5.915  11.186   7.697
55888SOL    HW169497   5.859  11.259   7.723
55888SOL    HW269498   5.855  11.120   7.662
55889SOL     OW69499   5.820   3.351   5.926
55889SOL    HW169500   5.760   3.325   5.855
55889SOL    HW269501   5.783   3.433   5.959
55890SOL     OW69502   0.017  11.932   1.508
55890SOL    HW169503   0.076  12.007   1.517
55890SOL    HW269504  14.837  11.956   1.437
55891SOL     OW69505   8.294   2.445  13.762
55891SOL    HW169506   8.217   2.450  13.706
55891SOL    HW269507   8.323   2.536  13.771
55892SOL     OW69508   8.828   3.365   6.770
55892SOL    HW169509   8.775   3.376   6.690
55892SOL    HW269510   8.918   3.381   6.741
55893SOL     OW69511   7.339   4.809  11.930
55893SOL    HW169512   7.287   4.886  11.910
55893SOL    HW269513   7.284   4.757  11.989
55894SOL     OW69514   2.110   3.876   4.958
55894SOL    HW169515   2.108   3.971   4.967
55894SOL    HW269516   2.092   3.843   5.046
55895SOL     OW69517   1.126   4.453  10.688
55895SOL    HW169518   1.068   4.512  10.640
55895SOL    HW269519   1.104   4.366  10.655
55896SOL     OW69520  10.216   9.446   5.491
55896SOL    HW169521  10.292   9.442   5.433
55896SOL    HW269522  10.253   9.441   5.579
55897SOL     OW69523  14.306   9.095   9.336
55897SOL    HW169524  14.365   9.019   9.333
55897SOL    HW269525  14.235   9.072   9.277
55898SOL     OW69526   2.204  13.349  13.085
55898SOL    HW169527   2.181  13.415  13.020
55898SOL    HW269528   2.223  13.271  13.033
55899SOL     OW69529   8.518  13.529   9.703
55899SOL    HW169530   8.522  13.619   9.736
55899SOL    HW269531   8.547  13.475   9.777
55900SOL     OW69532   8.465  10.245   1.812
55900SOL    HW169533   8.495  10.335   1.817
55900SOL    HW269534   8.534  10.194   1.855
55901SOL     OW69535  13.045  13.911   3.360
55901SOL    HW169536  13.011  13.835   3.312
55901SOL    HW269537  12.981  13.980   3.342
55902SOL     OW69538   6.790  12.335   5.988
55902SOL    HW169539   6.761  12.296   6.071
55902SOL    HW269540   6.715  12.385   5.957
55903SOL     OW69541   9.992  12.106   2.106
55903SOL    HW169542   9.999  12.190   2.152
55903SOL    HW269543   9.973  12.130   2.015
55904SOL     OW69544   7.980  13.749   9.377
55904SOL    HW169545   8.009  13.824   9.325
55904SOL    HW269546   8.037  13.677   9.350
55905SOL     OW69547  12.919   4.749   9.241
55905SOL    HW169548  12.963   4.678   9.194
55905SOL    HW269549  12.914   4.718   9.332
55906SOL     OW69550   7.189  11.968   6.078
55906SOL    HW169551   7.219  11.889   6.033
55906SOL    HW269552   7.228  12.040   6.028
55907SOL     OW69553   8.801  11.443   1.883
55907SOL    HW169554   8.891  11.457   1.852
55907SOL    HW269555   8.748  11.504   1.831
55908SOL     OW69556  12.906  13.817  11.405
55908SOL    HW169557  12.902  13.724  11.429
55908SOL    HW269558  12.970  13.855  11.465
55909SOL     OW69559   6.209   4.957   0.065
55909SOL    HW169560   6.247   4.986   0.148
55909SOL    HW269561   6.235   5.025   0.002
55910SOL     OW69562   4.135   1.577  12.264
55910SOL    HW169563   4.208   1.521  12.288
55910SOL    HW269564   4.085   1.527  12.200
55911SOL     OW69565   8.961  11.718  10.438
55911SOL    HW169566   8.883  11.707  10.384
55911SOL    HW269567   8.986  11.630  10.463
55912SOL     OW69568   8.382  12.484   1.152
55912SOL    HW169569   8.385  12.500   1.058
55912SOL    HW269570   8.391  12.388   1.160
55913SOL     OW69571   6.970  12.617   8.015
55913SOL    HW169572   7.050  12.667   8.004
55913SOL    HW269573   6.990  12.555   8.086
55914SOL     OW69574   1.829   4.427   9.322
55914SOL    HW169575   1.827   4.413   9.416
55914SOL    HW269576   1.922   4.440   9.302
55915SOL     OW69577   5.494   4.322   2.474
55915SOL    HW169578   5.500   4.272   2.556
55915SOL    HW269579   5.542   4.268   2.411
55916SOL     OW69580   2.288   0.768  10.816
55916SOL    HW169581   2.348   0.695  10.834
55916SOL    HW269582   2.206   0.725  10.791
55917SOL     OW69583   6.071  13.012   6.146
55917SOL    HW169584   6.110  12.960   6.075
55917SOL    HW269585   5.978  12.990   6.142
55918SOL     OW69586   0.481   2.199   1.645
55918SOL    HW169587   0.489   2.110   1.609
55918SOL    HW269588   0.506   2.256   1.572
55919SOL     OW69589   2.472  11.610   3.808
55919SOL    HW169590   2.418  11.660   3.746
55919SOL    HW269591   2.440  11.520   3.801
55920SOL     OW69592  13.883  13.517   2.369
55920SOL    HW169593  13.928  13.602   2.372
55920SOL    HW269594  13.902  13.484   2.281
55921SOL     OW69595  14.137  10.134  12.037
55921SOL    HW169596  14.112  10.046  12.008
55921SOL    HW269597  14.057  10.170  12.075
55922SOL     OW69598   0.814   9.494  13.734
55922SOL    HW169599   0.775   9.461  13.653
55922SOL    HW269600   0.795   9.427  13.800
55923SOL     OW69601   3.201   1.376   4.420
55923SOL    HW169602   3.125   1.365   4.362
55923SOL    HW269603   3.174   1.335   4.502
55924SOL     OW69604   9.816  13.422   2.856
55924SOL    HW169605   9.788  13.482   2.786
55924SOL    HW269606   9.734  13.393   2.896
55925SOL     OW69607   3.087   9.278  13.504
55925SOL    HW169608   3.070   9.184  13.514
55925SOL    HW269609   3.000   9.316  13.491
55926SOL     OW69610   7.757  13.785   8.791
55926SOL    HW169611   7.728  13.868   8.752
55926SOL    HW269612   7.835  13.761   8.741
55927SOL     OW69613   8.192   7.749   5.723
55927SOL    HW169614   8.119   7.694   5.752
55927SOL    HW269615   8.182   7.831   5.771
55928SOL     OW69616   8.174   3.826   7.450
55928SOL    HW169617   8.203   3.745   7.492
55928SOL    HW269618   8.246   3.851   7.393
55929SOL     OW69619  12.182   0.231   7.779
55929SOL    HW169620  12.123   0.307   7.780
55929SOL    HW269621  12.159   0.184   7.699
55930SOL     OW69622   2.914  12.785   3.252
55930SOL    HW169623   2.920  12.710   3.311
55930SOL    HW269624   2.853  12.757   3.184
55931SOL     OW69625   9.859   2.756   7.777
55931SOL    HW169626   9.883   2.702   7.853
55931SOL    HW269627   9.896   2.843   7.797
55932SOL     OW69628   2.562  11.291   6.412
55932SOL    HW169629   2.619  11.230   6.365
55932SOL    HW269630   2.576  11.375   6.368
55933SOL     OW69631  10.229   1.862  11.443
55933SOL    HW169632  10.244   1.922  11.517
55933SOL    HW269633  10.136   1.841  11.448
55934SOL     OW69634  14.650   5.906   6.367
55934SOL    HW169635  14.634   5.971   6.299
55934SOL    HW269636  14.603   5.828   6.337
55935SOL     OW69637   7.236   8.198  10.189
55935SOL    HW169638   7.280   8.271  10.145
55935SOL    HW269639   7.290   8.181  10.266
55936SOL     OW69640  10.437  10.364   4.221
55936SOL    HW169641  10.433  10.317   4.305
55936SOL    HW269642  10.406  10.300   4.157
55937SOL     OW69643  14.717   6.396   9.914
55937SOL    HW169644  14.622   6.411   9.905
55937SOL    HW269645  14.724   6.302   9.931
55938SOL     OW69646  11.927   2.134   9.421
55938SOL    HW169647  11.960   2.084   9.495
55938SOL    HW269648  11.978   2.214   9.421
55939SOL     OW69649   8.972  10.051   3.443
55939SOL    HW169650   8.884  10.079   3.467
55939SOL    HW269651   8.965   9.956   3.434
55940SOL     OW69652   5.901   0.496  14.264
55940SOL    HW169653   5.852   0.506  14.346
55940SOL    HW269654   5.853   0.429  14.215
55941SOL     OW69655   5.441   0.779   7.652
55941SOL    HW169656   5.408   0.692   7.673
55941SOL    HW269657   5.388   0.808   7.578
55942SOL     OW69658   9.229   0.161   6.279
55942SOL    HW169659   9.223   0.070   6.249
55942SOL    HW269660   9.321   0.184   6.267
55943SOL     OW69661   5.918   9.709   1.613
55943SOL    HW169662   5.838   9.659   1.626
55943SOL    HW269663   5.941   9.743   1.700
55944SOL     OW69664   0.326  10.252   1.392
55944SOL    HW169665   0.368  10.338   1.395
55944SOL    HW269666   0.392  10.191   1.426
55945SOL     OW69667  10.086   2.396  14.547
55945SOL    HW169668  10.105   2.473  14.599
55945SOL    HW269669  10.003   2.417  14.502
55946SOL     OW69670   1.811   5.447   6.342
55946SOL    HW169671   1.779   5.453   6.432
55946SOL    HW269672   1.757   5.379   6.302
55947SOL     OW69673  12.586   6.820   7.452
55947SOL    HW169674  12.632   6.790   7.374
55947SOL    HW269675  12.632   6.900   7.478
55948SOL     OW69676   7.178   4.844   4.568
55948SOL    HW169677   7.247   4.907   4.548
55948SOL    HW269678   7.213   4.791   4.640
55949SOL     OW69679   3.230   4.133   1.086
55949SOL    HW169680   3.304   4.137   1.025
55949SOL    HW269681   3.164   4.081   1.039
55950SOL     OW69682  11.689   2.054  11.946
55950SOL    HW169683  11.760   2.113  11.919
55950SOL    HW269684  11.638   2.107  12.008
55951SOL     OW69685  12.312  14.156  12.699
55951SOL    HW169686  12.371  14.089  12.664
55951SOL    HW269687  12.229  14.110  12.714
55952SOL     OW69688  13.227   9.157   9.900
55952SOL    HW169689  13.296   9.166   9.966
55952SOL    HW269690  13.244   9.227   9.838
55953SOL     OW69691   1.510   6.917   7.302
55953SOL    HW169692   1.496   6.938   7.210
55953SOL    HW269693   1.587   6.859   7.302
55954SOL     OW69694  10.045   6.798  14.113
55954SOL    HW169695  10.120   6.795  14.172
55954SOL    HW269696  10.043   6.888  14.081
55955SOL     OW69697  13.014   8.846   5.140
55955SOL    HW169698  13.044   8.783   5.205
55955SOL    HW269699  12.921   8.825   5.126
55956SOL     OW69700  14.336   1.007  14.536
55956SOL    HW169701  14.352   0.938  14.600
55956SOL    HW269702  14.265   0.974  14.481
55957SOL     OW69703   8.933   3.280  14.868
55957SOL    HW169704   8.990   3.205  14.849
55957SOL    HW269705   8.856   3.242   0.030
55958SOL     OW69706   1.301   2.808  10.587
55958SOL    HW169707   1.267   2.732  10.541
55958SOL    HW269708   1.228   2.838  10.641
55959SOL     OW69709   8.400   5.042   2.337
55959SOL    HW169710   8.445   4.982   2.278
55959SOL    HW269711   8.353   4.986   2.398
55960SOL     OW69712   9.344   0.021   2.568
55960SOL    HW169713   9.319   0.004   2.478
55960SOL    HW269714   9.261   0.034   2.614
55961SOL     OW69715   9.515  13.609   4.940
55961SOL    HW169716   9.508  13.588   5.033
55961SOL    HW269717   9.580  13.548   4.907
55962SOL     OW69718   4.149   1.351   7.449
55962SOL    HW169719   4.232   1.317   7.415
55962SOL    HW269720   4.086   1.281   7.433
55963SOL     OW69721  10.437   3.846   7.872
55963SOL    HW169722  10.403   3.935   7.864
55963SOL    HW269723  10.520   3.847   7.826
55964SOL     OW69724   9.032   2.877   3.092
55964SOL    HW169725   9.091   2.951   3.082
55964SOL    HW269726   8.946   2.912   3.067
55965SOL     OW69727   6.687   4.486   1.990
55965SOL    HW169728   6.632   4.561   2.010
55965SOL    HW269729   6.644   4.443   1.916
55966SOL     OW69730  11.390   3.819   5.886
55966SOL    HW169731  11.321   3.870   5.929
55966SOL    HW269732  11.432   3.881   5.827
55967SOL     OW69733   4.844   6.100  12.478
55967SOL    HW169734   4.852   6.150  12.560
55967SOL    HW269735   4.922   6.123  12.429
55968SOL     OW69736   7.794   6.550   5.185
55968SOL    HW169737   7.823   6.641   5.195
55968SOL    HW269738   7.756   6.528   5.270
55969SOL     OW69739   1.173  12.791   1.057
55969SOL    HW169740   1.149  12.769   0.967
55969SOL    HW269741   1.093  12.824   1.096
55970SOL     OW69742   4.308   8.794   3.982
55970SOL    HW169743   4.359   8.713   3.976
55970SOL    HW269744   4.325   8.827   4.070
55971SOL     OW69745   8.836  11.863  13.931
55971SOL    HW169746   8.907  11.920  13.961
55971SOL    HW269747   8.879  11.796  13.879
55972SOL     OW69748   5.583   4.337  10.715
55972SOL    HW169749   5.657   4.397  10.707
55972SOL    HW269750   5.619   4.261  10.761
55973SOL     OW69751   2.690   4.504   4.953
55973SOL    HW169752   2.681   4.486   5.047
55973SOL    HW269753   2.743   4.431   4.920
55974SOL     OW69754   2.970   4.820   7.274
55974SOL    HW169755   2.891   4.843   7.227
55974SOL    HW269756   3.028   4.782   7.208
55975SOL     OW69757   4.661  11.732   8.645
55975SOL    HW169758   4.605  11.655   8.628
55975SOL    HW269759   4.600  11.806   8.647
55976SOL     OW69760  10.658   5.372   4.153
55976SOL    HW169761  10.608   5.309   4.101
55976SOL    HW269762  10.650   5.454   4.104
55977SOL     OW69763   0.426  10.285  13.026
55977SOL    HW169764   0.364  10.353  13.053
55977SOL    HW269765   0.373  10.206  13.020
55978SOL     OW69766  12.399   0.869   6.457
55978SOL    HW169767  12.319   0.881   6.507
55978SOL    HW269768  12.468   0.903   6.514
55979SOL     OW69769   0.576   6.091  13.429
55979SOL    HW169770   0.662   6.131  13.438
55979SOL    HW269771   0.551   6.065  13.518
55980SOL     OW69772   4.133  14.690  11.589
55980SOL    HW169773   4.092  14.650  11.512
55980SOL    HW269774   4.171  14.616  11.637
55981SOL     OW69775   1.395   5.298  14.540
55981SOL    HW169776   1.452   5.223  14.522
55981SOL    HW269777   1.381   5.296  14.634
55982SOL     OW69778   1.075   5.841   3.138
55982SOL    HW169779   1.065   5.926   3.094
55982SOL    HW269780   0.998   5.791   3.110
55983SOL     OW69781  13.506   1.075   0.849
55983SOL    HW169782  13.577   1.140   0.847
55983SOL    HW269783  13.433   1.118   0.804
55984SOL     OW69784   4.637   3.551   8.502
55984SOL    HW169785   4.573   3.500   8.550
55984SOL    HW269786   4.722   3.517   8.530
55985SOL     OW69787   5.192   9.481   4.528
55985SOL    HW169788   5.246   9.476   4.448
55985SOL    HW269789   5.184   9.575   4.545
55986SOL     OW69790   3.791  10.339   7.031
55986SOL    HW169791   3.840  10.332   7.113
55986SOL    HW269792   3.850  10.387   6.972
55987SOL     OW69793   6.245  13.190   0.872
55987SOL    HW169794   6.309  13.240   0.923
55987SOL    HW269795   6.173  13.250   0.858
55988SOL     OW69796   9.009  14.857  10.943
55988SOL    HW169797   9.011   0.068  10.975
55988SOL    HW269798   9.090  14.818  10.977
55989SOL     OW69799   3.151  11.841   3.111
55989SOL    HW169800   3.094  11.872   3.041
55989SOL    HW269801   3.098  11.777   3.158
55990SOL     OW69802  12.512  13.461   9.983
55990SOL    HW169803  12.505  13.463  10.078
55990SOL    HW269804  12.569  13.535   9.961
55991SOL     OW69805   8.931  11.827   8.106
55991SOL    HW169806   8.905  11.811   8.015
55991SOL    HW269807   8.882  11.761   8.156
55992SOL     OW69808   1.816   5.635  10.682
55992SOL    HW169809   1.866   5.561  10.719
55992SOL    HW269810   1.882   5.703  10.669
55993SOL     OW69811   5.666   3.992  12.801
55993SOL    HW169812   5.755   4.025  12.816
55993SOL    HW269813   5.678   3.898  12.786
55994SOL     OW69814  14.806   4.013   2.103
55994SOL    HW169815  14.732   4.069   2.125
55994SOL    HW269816  14.780   3.970   2.022
55995SOL     OW69817  10.306  11.336   5.872
55995SOL    HW169818  10.284  11.408   5.812
55995SOL    HW269819  10.396  11.354   5.900
55996SOL     OW69820  14.397  14.804  11.811
55996SOL    HW169821  14.328  14.797  11.745
55996SOL    HW269822  14.477  14.780  11.764
55997SOL     OW69823  13.912   2.041   0.977
55997SOL    HW169824  13.940   1.988   0.902
55997SOL    HW269825  13.887   1.976   1.043
55998SOL     OW69826  14.234   0.488  11.409
55998SOL    HW169827  14.200   0.473  11.497
55998SOL    HW269828  14.285   0.569  11.417
55999SOL     OW69829   6.879   5.609  13.369
55999SOL    HW169830   6.853   5.683  13.315
55999SOL    HW269831   6.808   5.546  13.359
56000SOL     OW69832  14.368  12.602  14.003
56000SOL    HW169833  14.299  12.588  13.938
56000SOL    HW269834  14.343  12.546  14.077
56001SOL     OW69835   8.144   3.897  12.663
56001SOL    HW169836   8.175   3.861  12.580
56001SOL    HW269837   8.196   3.852  12.730
56002SOL     OW69838  10.829  14.221   7.650
56002SOL    HW169839  10.793  14.180   7.570
56002SOL    HW269840  10.886  14.291   7.617
56003SOL     OW69841   8.519   0.690  14.559
56003SOL    HW169842   8.566   0.649  14.486
56003SOL    HW269843   8.440   0.726  14.519
56004SOL     OW69844   4.624   6.169   0.904
56004SOL    HW169845   4.661   6.146   0.819
56004SOL    HW269846   4.681   6.125   0.967
56005SOL     OW69847   2.208   4.863   8.913
56005SOL    HW169848   2.281   4.831   8.967
56005SOL    HW269849   2.220   4.821   8.828
56006SOL     OW69850  10.959   6.464   3.012
56006SOL    HW169851  10.868   6.443   3.033
56006SOL    HW269852  11.011   6.400   3.061
56007SOL     OW69853   2.353   5.184   3.734
56007SOL    HW169854   2.344   5.265   3.683
56007SOL    HW269855   2.301   5.198   3.812
56008SOL     OW69856  10.582   4.586   5.268
56008SOL    HW169857  10.675   4.589   5.243
56008SOL    HW269858  10.578   4.638   5.349
56009SOL     OW69859   2.476   7.194   9.334
56009SOL    HW169860   2.424   7.178   9.413
56009SOL    HW269861   2.423   7.254   9.282
56010SOL     OW69862   4.389  10.670   0.595
56010SOL    HW169863   4.460  10.669   0.660
56010SOL    HW269864   4.420  10.729   0.526
56011SOL     OW69865   0.129   4.420  10.516
56011SOL    HW169866   0.211   4.371  10.507
56011SOL    HW269867   0.119   4.434  10.610
56012SOL     OW69868  11.434   2.950   7.564
56012SOL    HW169869  11.446   2.893   7.641
56012SOL    HW269870  11.523   2.978   7.542
56013SOL     OW69871   5.884   8.977   5.460
56013SOL    HW169872   5.808   8.943   5.506
56013SOL    HW269873   5.948   8.906   5.463
56014SOL     OW69874   7.922   5.903   8.444
56014SOL    HW169875   7.830   5.926   8.457
56014SOL    HW269876   7.965   5.926   8.526
56015SOL     OW69877  14.665   0.106   9.581
56015SOL    HW169878  14.625   0.182   9.622
56015SOL    HW269879  14.596   0.040   9.577
56016SOL     OW69880   1.916   5.754   8.639
56016SOL    HW169881   1.946   5.845   8.638
56016SOL    HW269882   1.964   5.714   8.712
56017SOL     OW69883   6.090  13.970   0.370
56017SOL    HW169884   6.077  14.008   0.458
56017SOL    HW269885   6.146  14.033   0.325
56018SOL     OW69886   1.353   7.713   1.443
56018SOL    HW169887   1.344   7.668   1.359
56018SOL    HW269888   1.412   7.658   1.495
56019SOL     OW69889   6.025  10.359   9.419
56019SOL    HW169890   5.936  10.393   9.425
56019SOL    HW269891   6.015  10.273   9.379
56020SOL     OW69892   4.531  12.609  11.238
56020SOL    HW169893   4.449  12.595  11.191
56020SOL    HW269894   4.599  12.591  11.173
56021SOL     OW69895  14.741   5.941   5.236
56021SOL    HW169896  14.650   5.918   5.221
56021SOL    HW269897  14.742   6.037   5.241
56022SOL     OW69898  10.352  12.469  11.361
56022SOL    HW169899  10.411  12.545  11.370
56022SOL    HW269900  10.359  12.424  11.445
56023SOL     OW69901   8.864  13.852   9.064
56023SOL    HW169902   8.954  13.880   9.049
56023SOL    HW269903   8.811  13.915   9.015
56024SOL     OW69904   9.436  11.920   9.362
56024SOL    HW169905   9.447  11.969   9.443
56024SOL    HW269906   9.498  11.959   9.301
56025SOL     OW69907  10.489  13.592   8.667
56025SOL    HW169908  10.544  13.525   8.628
56025SOL    HW269909  10.498  13.668   8.610
56026SOL     OW69910   7.133   3.411   0.238
56026SOL    HW169911   7.097   3.355   0.307
56026SOL    HW269912   7.122   3.360   0.158
56027SOL     OW69913  14.260  13.378   7.822
56027SOL    HW169914  14.342  13.366   7.774
56027SOL    HW269915  14.202  13.420   7.759
56028SOL     OW69916   7.134   5.199   5.650
56028SOL    HW169917   7.076   5.230   5.580
56028SOL    HW269918   7.077   5.152   5.710
56029SOL     OW69919   0.401   9.393  13.588
56029SOL    HW169920   0.347   9.333  13.537
56029SOL    HW269921   0.354   9.401  13.671
56030SOL     OW69922   6.184  12.079  14.231
56030SOL    HW169923   6.260  12.029  14.261
56030SOL    HW269924   6.129  12.087  14.309
56031SOL     OW69925   1.008   6.843   1.092
56031SOL    HW169926   0.981   6.841   1.184
56031SOL    HW269927   1.063   6.765   1.082
56032SOL     OW69928   4.382  13.680   7.025
56032SOL    HW169929   4.357  13.602   6.976
56032SOL    HW269930   4.379  13.653   7.117
56033SOL     OW69931   4.067  13.567   6.094
56033SOL    HW169932   3.975  13.593   6.083
56033SOL    HW269933   4.063  13.483   6.139
56034SOL     OW69934   6.734   2.827   9.011
56034SOL    HW169935   6.796   2.894   8.983
56034SOL    HW269936   6.652   2.850   8.968
56035SOL     OW69937   1.367   8.751   7.201
56035SOL    HW169938   1.361   8.661   7.170
56035SOL    HW269939   1.398   8.744   7.292
56036SOL     OW69940   3.906   1.041   8.574
56036SOL    HW169941   3.878   1.115   8.629
56036SOL    HW269942   3.835   1.029   8.512
56037SOL     OW69943   5.962   9.827  10.730
56037SOL    HW169944   6.046   9.783  10.736
56037SOL    HW269945   5.928   9.802  10.644
56038SOL     OW69946  12.963  12.471   9.919
56038SOL    HW169947  12.956  12.558   9.879
56038SOL    HW269948  13.013  12.420   9.855
56039SOL     OW69949  10.154   8.819   8.087
56039SOL    HW169950  10.067   8.821   8.126
56039SOL    HW269951  10.211   8.784   8.156
56040SOL     OW69952   8.085   7.254   5.037
56040SOL    HW169953   8.101   7.168   4.997
56040SOL    HW269954   8.021   7.236   5.106
56041SOL     OW69955   2.351   1.630   9.476
56041SOL    HW169956   2.335   1.680   9.557
56041SOL    HW269957   2.375   1.543   9.506
56042SOL     OW69958   7.578  13.320   6.281
56042SOL    HW169959   7.492  13.282   6.297
56042SOL    HW269960   7.617  13.331   6.368
56043SOL     OW69961   0.116  13.828   9.611
56043SOL    HW169962   0.045  13.789   9.663
56043SOL    HW269963   0.157  13.891   9.670
56044SOL     OW69964   8.295   3.316   2.094
56044SOL    HW169965   8.308   3.410   2.081
56044SOL    HW269966   8.335   3.298   2.179
56045SOL     OW69967   1.966   0.297   3.307
56045SOL    HW169968   1.890   0.288   3.364
56045SOL    HW269969   1.932   0.283   3.219
56046SOL     OW69970  13.154   2.487   3.283
56046SOL    HW169971  13.229   2.547   3.285
56046SOL    HW269972  13.079   2.542   3.304
56047SOL     OW69973  10.638  10.741   6.410
56047SOL    HW169974  10.565  10.683   6.388
56047SOL    HW269975  10.687  10.693   6.477
56048SOL     OW69976   9.090   5.699   5.121
56048SOL    HW169977   9.080   5.647   5.041
56048SOL    HW269978   9.182   5.726   5.121
56049SOL     OW69979  13.515  12.961   2.402
56049SOL    HW169980  13.511  13.020   2.477
56049SOL    HW269981  13.456  12.890   2.424
56050SOL     OW69982  11.372   6.538   3.035
56050SOL    HW169983  11.311   6.572   2.969
56050SOL    HW269984  11.402   6.617   3.081
56051SOL     OW69985   4.424  12.433   2.232
56051SOL    HW169986   4.414  12.439   2.137
56051SOL    HW269987   4.515  12.457   2.248
56052SOL     OW69988  14.259   9.087  11.309
56052SOL    HW169989  14.249   9.168  11.258
56052SOL    HW269990  14.280   9.117  11.397
56053SOL     OW69991   0.071   6.212   5.351
56053SOL    HW169992   0.077   6.305   5.372
56053SOL    HW269993  14.857   6.193   5.354
56054SOL     OW69994  11.754  10.837   8.677
56054SOL    HW169995  11.700  10.773   8.631
56054SOL    HW269996  11.843  10.820   8.646
56055SOL     OW69997  14.154  10.424   0.847
56055SOL    HW169998  14.071  10.389   0.879
56055SOL    HW269999  14.164  10.507   0.893
56056SOL     OW70000  11.780   7.129   8.636
56056SOL    HW170001  11.737   7.081   8.708
56056SOL    HW270002  11.829   7.062   8.589
56057SOL     OW70003  14.689   9.057   9.120
56057SOL    HW170004  14.743   9.009   9.183
56057SOL    HW270005  14.606   9.008   9.118
56058SOL     OW70006   8.847  13.035   5.180
56058SOL    HW170007   8.891  13.079   5.252
56058SOL    HW270008   8.771  12.993   5.220
56059SOL     OW70009   1.708  12.264   9.230
56059SOL    HW170010   1.655  12.343   9.223
56059SOL    HW270011   1.680  12.223   9.312
56060SOL     OW70012   0.890  11.714   3.432
56060SOL    HW170013   0.895  11.774   3.506
56060SOL    HW270014   0.807  11.667   3.444
56061SOL     OW70015   8.144  12.994   6.831
56061SOL    HW170016   8.077  13.040   6.881
56061SOL    HW270017   8.111  12.992   6.741
56062SOL     OW70018  12.921   0.741   5.470
56062SOL    HW170019  12.972   0.683   5.413
56062SOL    HW270020  12.962   0.826   5.460
56063SOL     OW70021   8.232  13.195   3.863
56063SOL    HW170022   8.179  13.269   3.892
56063SOL    HW270023   8.173  13.119   3.867
56064SOL     OW70024   3.920   1.838  11.076
56064SOL    HW170025   3.825   1.851  11.076
56064SOL    HW270026   3.956   1.927  11.083
56065SOL     OW70027  11.971  12.755   0.595
56065SOL    HW170028  12.034  12.823   0.617
56065SOL    HW270029  11.932  12.783   0.512
56066SOL     OW70030   7.318   6.347   3.608
56066SOL    HW170031   7.361   6.346   3.693
56066SOL    HW270032   7.377   6.397   3.552
56067SOL     OW70033   7.204   9.311  13.009
56067SOL    HW170034   7.263   9.384  12.991
56067SOL    HW270035   7.260   9.244  13.047
56068SOL     OW70036   3.900   5.322   2.561
56068SOL    HW170037   3.977   5.265   2.555
56068SOL    HW270038   3.859   5.298   2.644
56069SOL     OW70039  12.494   5.980   4.914
56069SOL    HW170040  12.525   5.974   5.005
56069SOL    HW270041  12.403   5.951   4.917
56070SOL     OW70042  11.208   2.524   8.231
56070SOL    HW170043  11.275   2.542   8.166
56070SOL    HW270044  11.127   2.558   8.193
56071SOL     OW70045   6.388   4.402   2.034
56071SOL    HW170046   6.402   4.345   1.958
56071SOL    HW270047   6.298   4.384   2.061
56072SOL     OW70048  12.805  13.875  12.462
56072SOL    HW170049  12.872  13.889  12.394
56072SOL    HW270050  12.854  13.838  12.536
56073SOL     OW70051   3.054  12.191  11.970
56073SOL    HW170052   3.037  12.283  11.950
56073SOL    HW270053   3.031  12.145  11.890
56074SOL     OW70054  13.360  12.676   7.657
56074SOL    HW170055  13.332  12.760   7.693
56074SOL    HW270056  13.338  12.613   7.725
56075SOL     OW70057  10.966  10.577   7.676
56075SOL    HW170058  10.934  10.515   7.742
56075SOL    HW270059  10.888  10.605   7.629
56076SOL     OW70060   1.642   8.818   1.270
56076SOL    HW170061   1.584   8.742   1.279
56076SOL    HW270062   1.663   8.842   1.360
56077SOL     OW70063   1.371   9.117   1.170
56077SOL    HW170064   1.401   9.138   1.258
56077SOL    HW270065   1.448   9.129   1.114
56078SOL     OW70066  14.612  10.050   5.371
56078SOL    HW170067  14.641  10.092   5.452
56078SOL    HW270068  14.519  10.035   5.384
56079SOL     OW70069   6.486   0.691   6.631
56079SOL    HW170070   6.515   0.768   6.581
56079SOL    HW270071   6.518   0.616   6.581
56080SOL     OW70072   0.710   5.334   1.529
56080SOL    HW170073   0.742   5.421   1.507
56080SOL    HW270074   0.765   5.274   1.479
56081SOL     OW70075   2.155  12.987  10.959
56081SOL    HW170076   2.155  12.921  10.889
56081SOL    HW270077   2.213  12.950  11.026
56082SOL     OW70078   3.935   0.392   8.217
56082SOL    HW170079   3.995   0.345   8.276
56082SOL    HW270080   3.912   0.328   8.150
56083SOL     OW70081  13.483   7.890   1.481
56083SOL    HW170082  13.571   7.926   1.469
56083SOL    HW270083  13.456   7.865   1.393
56084SOL     OW70084  10.136   0.841   0.930
56084SOL    HW170085  10.090   0.757   0.921
56084SOL    HW270086  10.113   0.889   0.851
56085SOL     OW70087   3.458   0.149   4.878
56085SOL    HW170088   3.430   0.221   4.934
56085SOL    HW270089   3.384   0.088   4.878
56086SOL     OW70090  11.972   5.143   7.757
56086SOL    HW170091  11.886   5.147   7.798
56086SOL    HW270092  12.031   5.118   7.828
56087SOL     OW70093  11.540   0.126  11.676
56087SOL    HW170094  11.590   0.146  11.597
56087SOL    HW270095  11.456   0.170  11.663
56088SOL     OW70096   4.439   7.644  14.344
56088SOL    HW170097   4.374   7.681  14.404
56088SOL    HW270098   4.522   7.651  14.391
56089SOL     OW70099   6.040   2.244   7.484
56089SOL    HW170100   6.027   2.228   7.390
56089SOL    HW270101   6.036   2.340   7.492
56090SOL     OW70102  14.611  14.389   2.534
56090SOL    HW170103  14.696  14.383   2.491
56090SOL    HW270104  14.600  14.304   2.577
56091SOL     OW70105   7.536   0.374   3.813
56091SOL    HW170106   7.621   0.377   3.768
56091SOL    HW270107   7.474   0.349   3.745
56092SOL     OW70108   8.192  14.022  13.728
56092SOL    HW170109   8.210  13.935  13.764
56092SOL    HW270110   8.188  14.008  13.633
56093SOL     OW70111   7.189   8.943   1.509
56093SOL    HW170112   7.182   8.874   1.576
56093SOL    HW270113   7.199   8.895   1.427
56094SOL     OW70114   5.089   7.231  13.860
56094SOL    HW170115   5.065   7.322  13.843
56094SOL    HW270116   5.062   7.184  13.782
56095SOL     OW70117  10.624   7.673   2.619
56095SOL    HW170118  10.585   7.587   2.601
56095SOL    HW270119  10.569   7.735   2.571
56096SOL     OW70120   1.457   4.749   3.142
56096SOL    HW170121   1.431   4.678   3.200
56096SOL    HW270122   1.516   4.708   3.079
56097SOL     OW70123   9.493   8.783  10.074
56097SOL    HW170124   9.476   8.761   9.982
56097SOL    HW270125   9.468   8.705  10.122
56098SOL     OW70126  13.803  11.601   5.490
56098SOL    HW170127  13.780  11.551   5.411
56098SOL    HW270128  13.896  11.582   5.503
56099SOL     OW70129  11.229   5.910   7.134
56099SOL    HW170130  11.207   5.852   7.206
56099SOL    HW270131  11.212   5.998   7.168
56100SOL     OW70132   6.679  12.871   2.742
56100SOL    HW170133   6.595  12.897   2.702
56100SOL    HW270134   6.745  12.910   2.685
56101SOL     OW70135  10.452  11.757   0.209
56101SOL    HW170136  10.408  11.687   0.162
56101SOL    HW270137  10.481  11.716   0.291
56102SOL     OW70138   7.544   6.505   6.103
56102SOL    HW170139   7.597   6.429   6.128
56102SOL    HW270140   7.597   6.550   6.037
56103SOL     OW70141   5.388  13.189   7.122
56103SOL    HW170142   5.403  13.273   7.165
56103SOL    HW270143   5.298  13.194   7.089
56104SOL     OW70144  13.100   7.455   3.754
56104SOL    HW170145  13.036   7.502   3.701
56104SOL    HW270146  13.111   7.370   3.709
56105SOL     OW70147   7.860   5.660  14.875
56105SOL    HW170148   7.830   5.574   0.025
56105SOL    HW270149   7.952   5.664   0.023
56106SOL     OW70150   3.107   7.115   4.634
56106SOL    HW170151   3.195   7.111   4.673
56106SOL    HW270152   3.059   7.045   4.676
56107SOL     OW70153   4.597   8.171   4.629
56107SOL    HW170154   4.535   8.139   4.563
56107SOL    HW270155   4.599   8.266   4.617
56108SOL     OW70156   2.382   5.999   4.244
56108SOL    HW170157   2.315   6.066   4.242
56108SOL    HW270158   2.449   6.029   4.183
56109SOL     OW70159   5.245   2.472  10.306
56109SOL    HW170160   5.316   2.413  10.282
56109SOL    HW270161   5.289   2.551  10.339
56110SOL     OW70162  14.782   6.087   0.168
56110SOL    HW170163  14.730   6.042   0.102
56110SOL    HW270164  14.824   6.159   0.121
56111SOL     OW70165   8.594   7.200   3.706
56111SOL    HW170166   8.529   7.162   3.766
56111SOL    HW270167   8.659   7.130   3.695
56112SOL     OW70168   7.720   9.910   5.967
56112SOL    HW170169   7.630   9.917   5.934
56112SOL    HW270170   7.755   9.999   5.961
56113SOL     OW70171  14.012   9.732   3.100
56113SOL    HW170172  14.070   9.707   3.171
56113SOL    HW270173  14.070   9.765   3.032
56114SOL     OW70174   1.432   7.839   2.472
56114SOL    HW170175   1.505   7.851   2.411
56114SOL    HW270176   1.361   7.803   2.418
56115SOL     OW70177   5.950  10.138   9.251
56115SOL    HW170178   5.940  10.052   9.211
56115SOL    HW270179   5.868  10.152   9.298
56116SOL     OW70180   4.673  10.494   6.235
56116SOL    HW170181   4.706  10.466   6.149
56116SOL    HW270182   4.584  10.459   6.239
56117SOL     OW70183  14.098   8.418   4.304
56117SOL    HW170184  14.072   8.472   4.230
56117SOL    HW270185  14.178   8.373   4.275
56118SOL     OW70186   7.694   0.095   6.173
56118SOL    HW170187   7.655   0.046   6.101
56118SOL    HW270188   7.725   0.027   6.233
56119SOL     OW70189   2.491   5.288  11.752
56119SOL    HW170190   2.513   5.358  11.813
56119SOL    HW270191   2.478   5.333  11.668
56120SOL     OW70192   7.478   0.221   7.757
56120SOL    HW170193   7.422   0.273   7.815
56120SOL    HW270194   7.557   0.274   7.747
56121SOL     OW70195   5.913   4.058   8.353
56121SOL    HW170196   5.974   4.112   8.303
56121SOL    HW270197   5.850   4.120   8.390
56122SOL     OW70198   6.469   1.343   0.626
56122SOL    HW170199   6.436   1.397   0.554
56122SOL    HW270200   6.547   1.389   0.657
56123SOL     OW70201  12.920   2.879  14.249
56123SOL    HW170202  12.961   2.871  14.164
56123SOL    HW270203  12.847   2.939  14.235
56124SOL     OW70204   0.228   5.762   0.077
56124SOL    HW170205   0.246   5.838   0.134
56124SOL    HW270206   0.286   5.694   0.109
56125SOL     OW70207  10.731   0.095   9.343
56125SOL    HW170208  10.794   0.139   9.287
56125SOL    HW270209  10.781   0.027   9.388
56126SOL     OW70210  10.596   6.824   4.661
56126SOL    HW170211  10.584   6.854   4.570
56126SOL    HW270212  10.507   6.820   4.696
56127SOL     OW70213  12.147   9.676  11.426
56127SOL    HW170214  12.061   9.645  11.396
56127SOL    HW270215  12.162   9.757  11.378
56128SOL     OW70216   4.085   8.977   3.242
56128SOL    HW170217   4.039   8.907   3.196
56128SOL    HW270218   4.062   8.964   3.334
56129SOL     OW70219  12.785   3.744  12.332
56129SOL    HW170220  12.867   3.700  12.310
56129SOL    HW270221  12.744   3.763  12.248
56130SOL     OW70222   0.844   4.649  11.459
56130SOL    HW170223   0.822   4.571  11.408
56130SOL    HW270224   0.884   4.709  11.396
56131SOL     OW70225   4.007   0.588  12.653
56131SOL    HW170226   3.942   0.632  12.597
56131SOL    HW270227   3.985   0.617  12.742
56132SOL     OW70228   1.975   4.958   5.659
56132SOL    HW170229   1.929   4.877   5.637
56132SOL    HW270230   1.908   5.025   5.656
56133SOL     OW70231   4.039  13.147   1.772
56133SOL    HW170232   4.057  13.224   1.718
56133SOL    HW270233   3.954  13.116   1.740
56134SOL     OW70234  13.149   1.057   5.198
56134SOL    HW170235  13.164   1.082   5.107
56134SOL    HW270236  13.153   1.140   5.246
56135SOL     OW70237   9.256   2.809   3.806
56135SOL    HW170238   9.295   2.723   3.818
56135SOL    HW270239   9.314   2.868   3.854
56136SOL     OW70240   3.932  14.040   3.923
56136SOL    HW170241   3.877  14.091   3.982
56136SOL    HW270242   3.875  13.969   3.893
56137SOL     OW70243  13.960   2.851   1.152
56137SOL    HW170244  13.963   2.793   1.076
56137SOL    HW270245  13.879   2.901   1.140
56138SOL     OW70246   5.524   3.223   2.494
56138SOL    HW170247   5.518   3.268   2.410
56138SOL    HW270248   5.615   3.194   2.500
56139SOL     OW70249   1.947  11.584   8.093
56139SOL    HW170250   1.911  11.658   8.045
56139SOL    HW270251   1.966  11.617   8.180
56140SOL     OW70252   0.258  11.435   4.270
56140SOL    HW170253   0.222  11.461   4.185
56140SOL    HW270254   0.280  11.518   4.313
56141SOL     OW70255   5.523   3.040  11.098
56141SOL    HW170256   5.532   3.133  11.120
56141SOL    HW270257   5.583   2.996  11.159
56142SOL     OW70258   9.713   5.555   2.563
56142SOL    HW170259   9.653   5.511   2.502
56142SOL    HW270260   9.682   5.528   2.649
56143SOL     OW70261   0.751   7.520   6.469
56143SOL    HW170262   0.813   7.519   6.541
56143SOL    HW270263   0.738   7.613   6.450
56144SOL     OW70264   9.613  12.622  10.469
56144SOL    HW170265   9.533  12.646  10.423
56144SOL    HW270266   9.583  12.573  10.545
56145SOL     OW70267   5.775   0.206   0.824
56145SOL    HW170268   5.713   0.271   0.858
56145SOL    HW270269   5.725   0.124   0.824
56146SOL     OW70270  12.960   2.428  12.328
56146SOL    HW170271  13.055   2.428  12.328
56146SOL    HW270272  12.935   2.340  12.301
56147SOL     OW70273  10.845  13.944  10.494
56147SOL    HW170274  10.921  13.993  10.526
56147SOL    HW270275  10.801  14.004  10.434
56148SOL     OW70276   7.418   5.910  10.021
56148SOL    HW170277   7.447   5.859  10.097
56148SOL    HW270278   7.323   5.920  10.034
56149SOL     OW70279   8.416   0.773  11.772
56149SOL    HW170280   8.397   0.706  11.837
56149SOL    HW270281   8.442   0.724  11.694
56150SOL     OW70282  10.349  12.532   4.677
56150SOL    HW170283  10.371  12.439   4.685
56150SOL    HW270284  10.334  12.545   4.584
56151SOL     OW70285   7.457   3.423  13.192
56151SOL    HW170286   7.447   3.392  13.102
56151SOL    HW270287   7.552   3.435  13.203
56152SOL     OW70288  13.562   6.844  13.717
56152SOL    HW170289  13.600   6.849  13.805
56152SOL    HW270290  13.618   6.780  13.671
56153SOL     OW70291   8.854   5.367   3.029
56153SOL    HW170292   8.822   5.277   3.023
56153SOL    HW270293   8.868   5.381   3.123
56154SOL     OW70294   8.826   4.041   3.394
56154SOL    HW170295   8.754   4.074   3.340
56154SOL    HW270296   8.784   3.984   3.458
56155SOL     OW70297   6.584  13.624   9.563
56155SOL    HW170298   6.538  13.632   9.479
56155SOL    HW270299   6.544  13.547   9.604
56156SOL     OW70300   6.051   0.199  12.606
56156SOL    HW170301   6.121   0.263  12.591
56156SOL    HW270302   6.096   0.115  12.611
56157SOL     OW70303  11.804   7.773   2.490
56157SOL    HW170304  11.875   7.822   2.531
56157SOL    HW270305  11.724   7.811   2.526
56158SOL     OW70306   2.107   2.196   9.533
56158SOL    HW170307   2.043   2.266   9.549
56158SOL    HW270308   2.163   2.231   9.463
56159SOL     OW70309  12.890  10.154   6.931
56159SOL    HW170310  12.859  10.244   6.927
56159SOL    HW270311  12.862  10.115   6.848
56160SOL     OW70312   8.063   6.741   9.816
56160SOL    HW170313   8.132   6.701   9.869
56160SOL    HW270314   8.037   6.673   9.754
56161SOL     OW70315   9.313   9.159   8.430
56161SOL    HW170316   9.407   9.172   8.417
56161SOL    HW270317   9.296   9.072   8.396
56162SOL     OW70318  11.558  11.943   1.893
56162SOL    HW170319  11.505  12.019   1.869
56162SOL    HW270320  11.501  11.868   1.876
56163SOL     OW70321   9.544   9.646   4.796
56163SOL    HW170322   9.507   9.595   4.724
56163SOL    HW270323   9.470   9.693   4.834
56164SOL     OW70324   7.800   3.092   2.531
56164SOL    HW170325   7.744   3.118   2.458
56164SOL    HW270326   7.883   3.068   2.490
56165SOL     OW70327   8.117  11.232  11.875
56165SOL    HW170328   8.068  11.287  11.936
56165SOL    HW270329   8.155  11.163  11.930
56166SOL     OW70330   7.115   2.355  14.153
56166SOL    HW170331   7.084   2.290  14.090
56166SOL    HW270332   7.079   2.326  14.237
56167SOL     OW70333   3.287   8.723   3.243
56167SOL    HW170334   3.197   8.692   3.229
56167SOL    HW270335   3.324   8.660   3.305
56168SOL     OW70336   9.978   0.619   2.196
56168SOL    HW170337  10.052   0.671   2.228
56168SOL    HW270338   9.933   0.677   2.134
56169SOL     OW70339   7.447   8.553   2.695
56169SOL    HW170340   7.469   8.505   2.615
56169SOL    HW270341   7.397   8.628   2.666
56170SOL     OW70342  12.404   1.707  13.466
56170SOL    HW170343  12.418   1.641  13.534
56170SOL    HW270344  12.388   1.656  13.386
56171SOL     OW70345   7.914   6.125   1.243
56171SOL    HW170346   7.921   6.064   1.170
56171SOL    HW270347   7.927   6.070   1.321
56172SOL     OW70348  10.414   1.784   1.384
56172SOL    HW170349  10.436   1.869   1.422
56172SOL    HW270350  10.319   1.785   1.375
56173SOL     OW70351   3.476  11.789   7.366
56173SOL    HW170352   3.551  11.800   7.424
56173SOL    HW270353   3.499  11.715   7.310
56174SOL     OW70354   5.445   1.736   1.789
56174SOL    HW170355   5.358   1.769   1.811
56174SOL    HW270356   5.452   1.747   1.694
56175SOL     OW70357   8.772  12.015   8.615
56175SOL    HW170358   8.737  12.098   8.646
56175SOL    HW270359   8.833  11.987   8.684
56176SOL     OW70360   1.037   2.078   0.629
56176SOL    HW170361   0.986   2.159   0.639
56176SOL    HW270362   1.090   2.074   0.708
56177SOL     OW70363  14.733   2.936   3.758
56177SOL    HW170364  14.652   2.914   3.711
56177SOL    HW270365  14.789   2.859   3.747
56178SOL     OW70366  11.013   3.778  10.066
56178SOL    HW170367  10.973   3.831  10.134
56178SOL    HW270368  11.104   3.767  10.095
56179SOL     OW70369   2.552   2.487  11.942
56179SOL    HW170370   2.569   2.560  11.882
56179SOL    HW270371   2.639   2.461  11.973
56180SOL     OW70372  13.200   4.895   9.573
56180SOL    HW170373  13.204   4.801   9.590
56180SOL    HW270374  13.195   4.902   9.478
56181SOL     OW70375   3.156   4.428  12.531
56181SOL    HW170376   3.130   4.337  12.515
56181SOL    HW270377   3.074   4.474  12.550
56182SOL     OW70378  12.853  14.449  10.904
56182SOL    HW170379  12.948  14.444  10.896
56182SOL    HW270380  12.821  14.376  10.851
56183SOL     OW70381   5.348  12.223   2.802
56183SOL    HW170382   5.281  12.245   2.738
56183SOL    HW270383   5.338  12.129   2.817
56184SOL     OW70384   4.776   9.873   9.407
56184SOL    HW170385   4.724   9.792   9.398
56184SOL    HW270386   4.710   9.942   9.413
56185SOL     OW70387  11.509   6.799  13.374
56185SOL    HW170388  11.449   6.859  13.330
56185SOL    HW270389  11.511   6.721  13.318
56186SOL     OW70390   4.212   9.899   3.559
56186SOL    HW170391   4.305   9.896   3.533
56186SOL    HW270392   4.166   9.927   3.480
56187SOL     OW70393   4.320   6.024   2.747
56187SOL    HW170394   4.332   6.099   2.805
56187SOL    HW270395   4.225   6.009   2.748
56188SOL     OW70396   3.927  14.424   4.628
56188SOL    HW170397   3.857  14.482   4.658
56188SOL    HW270398   3.947  14.369   4.704
56189SOL     OW70399   5.412  13.587   5.858
56189SOL    HW170400   5.449  13.612   5.774
56189SOL    HW270401   5.317  13.583   5.842
56190SOL     OW70402   7.882  10.748  13.648
56190SOL    HW170403   7.810  10.729  13.588
56190SOL    HW270404   7.852  10.714  13.733
56191SOL     OW70405   9.367   0.533   7.986
56191SOL    HW170406   9.438   0.496   7.934
56191SOL    HW270407   9.296   0.548   7.924
56192SOL     OW70408   8.886   3.730   8.751
56192SOL    HW170409   8.877   3.748   8.658
56192SOL    HW270410   8.829   3.793   8.794
56193SOL     OW70411   0.713   4.315  11.965
56193SOL    HW170412   0.626   4.281  11.985
56193SOL    HW270413   0.715   4.322  11.870
56194SOL     OW70414   7.752   4.614   1.744
56194SOL    HW170415   7.750   4.520   1.727
56194SOL    HW270416   7.799   4.651   1.668
56195SOL     OW70417   0.822   3.129   7.364
56195SOL    HW170418   0.801   3.114   7.456
56195SOL    HW270419   0.860   3.046   7.335
56196SOL     OW70420   5.887  10.997   8.500
56196SOL    HW170421   5.929  11.071   8.456
56196SOL    HW270422   5.954  10.930   8.504
56197SOL     OW70423   8.194   4.697   5.663
56197SOL    HW170424   8.227   4.674   5.750
56197SOL    HW270425   8.269   4.734   5.617
56198SOL     OW70426  13.302   0.633  11.311
56198SOL    HW170427  13.331   0.724  11.321
56198SOL    HW270428  13.245   0.634  11.234
56199SOL     OW70429   7.537  10.003   7.453
56199SOL    HW170430   7.496  10.063   7.516
56199SOL    HW270431   7.547   9.921   7.502
56200SOL     OW70432  13.357  10.046   5.094
56200SOL    HW170433  13.370  10.140   5.105
56200SOL    HW270434  13.429  10.005   5.142
56201SOL     OW70435  11.204  11.123   7.168
56201SOL    HW170436  11.155  11.105   7.249
56201SOL    HW270437  11.232  11.037   7.137
56202SOL     OW70438   8.304   1.538   5.875
56202SOL    HW170439   8.366   1.566   5.808
56202SOL    HW270440   8.304   1.443   5.870
56203SOL     OW70441   0.120  12.107   1.692
56203SOL    HW170442   0.101  12.037   1.755
56203SOL    HW270443   0.214  12.123   1.701
56204SOL     OW70444  12.282   6.684   8.639
56204SOL    HW170445  12.369   6.679   8.599
56204SOL    HW270446  12.226   6.717   8.569
56205SOL     OW70447  12.706  10.312   6.574
56205SOL    HW170448  12.706  10.236   6.516
56205SOL    HW270449  12.761  10.376   6.529
56206SOL     OW70450   2.656   1.432   1.418
56206SOL    HW170451   2.711   1.353   1.415
56206SOL    HW270452   2.568   1.400   1.401
56207SOL     OW70453  14.546  10.080  11.147
56207SOL    HW170454  14.618  10.105  11.088
56207SOL    HW270455  14.513  10.164  11.181
56208SOL     OW70456   6.344  14.792   2.270
56208SOL    HW170457   6.402  14.728   2.311
56208SOL    HW270458   6.329  14.858   2.339
56209SOL     OW70459   8.734  10.405  10.172
56209SOL    HW170460   8.706  10.397  10.080
56209SOL    HW270461   8.796  10.333  10.185
56210SOL     OW70462   2.549   2.017  12.554
56210SOL    HW170463   2.561   2.003  12.648
56210SOL    HW270464   2.637   2.039  12.522
56211SOL     OW70465  11.738   4.684   5.786
56211SOL    HW170466  11.796   4.760   5.794
56211SOL    HW270467  11.651   4.718   5.804
56212SOL     OW70468   8.958   1.767   4.598
56212SOL    HW170469   8.876   1.718   4.606
56212SOL    HW270470   9.025   1.700   4.588
56213SOL     OW70471   9.198  10.015   0.282
56213SOL    HW170472   9.127  10.028   0.219
56213SOL    HW270473   9.236  10.102   0.293
56214SOL     OW70474  12.935  13.099   7.461
56214SOL    HW170475  12.909  13.104   7.553
56214SOL    HW270476  12.853  13.102   7.412
56215SOL     OW70477  11.063   9.949   0.240
56215SOL    HW170478  11.131   9.986   0.297
56215SOL    HW270479  11.109   9.932   0.158
56216SOL     OW70480   2.559   5.867   2.077
56216SOL    HW170481   2.532   5.815   2.002
56216SOL    HW270482   2.604   5.804   2.135
56217SOL     OW70483   5.831   4.086  11.949
56217SOL    HW170484   5.804   4.154  11.887
56217SOL    HW270485   5.823   4.005  11.900
56218SOL     OW70486   5.637  11.046   8.395
56218SOL    HW170487   5.696  11.040   8.469
56218SOL    HW270488   5.668  11.122   8.346
56219SOL     OW70489   4.957   7.092   1.376
56219SOL    HW170490   4.948   7.031   1.448
56219SOL    HW270491   5.050   7.089   1.353
56220SOL     OW70492  13.131   2.776   4.566
56220SOL    HW170493  13.206   2.717   4.568
56220SOL    HW270494  13.073   2.744   4.636
56221SOL     OW70495   7.994   9.495  12.558
56221SOL    HW170496   7.950   9.447  12.629
56221SOL    HW270497   8.066   9.540  12.601
56222SOL     OW70498  14.133   3.651   0.941
56222SOL    HW170499  14.171   3.655   1.029
56222SOL    HW270500  14.065   3.584   0.948
56223SOL     OW70501   8.029  13.009   8.538
56223SOL    HW170502   8.104  13.044   8.587
56223SOL    HW270503   7.976  12.965   8.604
56224SOL     OW70504  12.514  13.346  14.519
56224SOL    HW170505  12.450  13.274  14.519
56224SOL    HW270506  12.544  13.352  14.609
56225SOL     OW70507   8.829   7.398  12.293
56225SOL    HW170508   8.870   7.353  12.368
56225SOL    HW270509   8.764   7.336  12.261
56226SOL     OW70510   8.230  10.209   1.307
56226SOL    HW170511   8.291  10.168   1.246
56226SOL    HW270512   8.195  10.136   1.358
56227SOL     OW70513   5.772   6.438   0.966
56227SOL    HW170514   5.822   6.509   0.925
56227SOL    HW270515   5.703   6.482   1.014
56228SOL     OW70516  10.588   6.909   0.996
56228SOL    HW170517  10.507   6.862   0.973
56228SOL    HW270518  10.559   6.982   1.051
56229SOL     OW70519  12.610   8.641  11.583
56229SOL    HW170520  12.607   8.547  11.566
56229SOL    HW270521  12.525   8.674  11.555
56230SOL     OW70522   7.937   3.051  12.071
56230SOL    HW170523   7.954   3.044  11.977
56230SOL    HW270524   7.997   2.988  12.111
56231SOL     OW70525  12.548   9.975   3.498
56231SOL    HW170526  12.596  10.042   3.450
56231SOL    HW270527  12.512   9.917   3.431
56232SOL     OW70528   7.284  12.949  11.129
56232SOL    HW170529   7.370  12.927  11.094
56232SOL    HW270530   7.256  12.869  11.174
56233SOL     OW70531  14.260   7.610   0.505
56233SOL    HW170532  14.286   7.661   0.428
56233SOL    HW270533  14.321   7.536   0.506
56234SOL     OW70534   6.605   3.968  13.503
56234SOL    HW170535   6.538   3.973  13.571
56234SOL    HW270536   6.664   4.041  13.521
56235SOL     OW70537  11.860   0.896   2.834
56235SOL    HW170538  11.905   0.978   2.815
56235SOL    HW270539  11.925   0.844   2.881
56236SOL     OW70540   9.104   6.914   7.078
56236SOL    HW170541   9.082   7.005   7.097
56236SOL    HW270542   9.199   6.915   7.065
56237SOL     OW70543   9.145   7.379  11.053
56237SOL    HW170544   9.176   7.307  10.997
56237SOL    HW270545   9.052   7.362  11.064
56238SOL     OW70546   8.451   1.326   3.201
56238SOL    HW170547   8.488   1.306   3.287
56238SOL    HW270548   8.426   1.418   3.207
56239SOL     OW70549   8.041   2.938   7.976
56239SOL    HW170550   8.010   2.964   7.889
56239SOL    HW270551   8.056   2.844   7.968
56240SOL     OW70552  14.789   0.967   0.329
56240SOL    HW170553  14.769   0.876   0.348
56240SOL    HW270554  14.829   0.966   0.243
56241SOL     OW70555   8.451  14.875  11.192
56241SOL    HW170556   8.468   0.003  11.285
56241SOL    HW270557   8.537  14.874  11.151
56242SOL     OW70558   4.401   8.708   2.705
56242SOL    HW170559   4.477   8.668   2.661
56242SOL    HW270560   4.425   8.709   2.798
56243SOL     OW70561   2.346  13.434   2.802
56243SOL    HW170562   2.390  13.355   2.771
56243SOL    HW270563   2.408  13.473   2.864
56244SOL     OW70564  10.931   6.974   1.497
56244SOL    HW170565  11.001   6.949   1.437
56244SOL    HW270566  10.969   6.965   1.584
56245SOL     OW70567   7.334  12.200   7.048
56245SOL    HW170568   7.270  12.257   7.005
56245SOL    HW270569   7.321  12.114   7.007
56246SOL     OW70570  13.080   7.303   4.198
56246SOL    HW170571  13.130   7.358   4.259
56246SOL    HW270572  13.039   7.365   4.138
56247SOL     OW70573  14.545  12.132   2.281
56247SOL    HW170574  14.506  12.045   2.274
56247SOL    HW270575  14.617  12.131   2.219
56248SOL     OW70576   0.962   4.972  10.203
56248SOL    HW170577   0.960   5.067  10.197
56248SOL    HW270578   0.874   4.944  10.177
56249SOL     OW70579   2.543   0.861   7.858
56249SOL    HW170580   2.543   0.906   7.942
56249SOL    HW270581   2.585   0.923   7.798
56250SOL     OW70582  14.029   4.513  12.785
56250SOL    HW170583  14.053   4.602  12.758
56250SOL    HW270584  13.939   4.503  12.755
56251SOL     OW70585   8.603  11.487   3.924
56251SOL    HW170586   8.590  11.498   3.829
56251SOL    HW270587   8.517  11.460   3.956
56252SOL     OW70588  11.244   0.396   3.738
56252SOL    HW170589  11.163   0.400   3.789
56252SOL    HW270590  11.268   0.487   3.723
56253SOL     OW70591   7.777   9.359   3.533
56253SOL    HW170592   7.776   9.351   3.438
56253SOL    HW270593   7.738   9.278   3.565
56254SOL     OW70594   8.017  13.652   6.401
56254SOL    HW170595   8.106  13.669   6.432
56254SOL    HW270596   7.961  13.674   6.476
56255SOL     OW70597  11.299  11.929  10.251
56255SOL    HW170598  11.257  11.969  10.175
56255SOL    HW270599  11.241  11.949  10.324
56256SOL     OW70600   5.630   6.376   6.637
56256SOL    HW170601   5.663   6.310   6.697
56256SOL    HW270602   5.689   6.451   6.648
56257SOL     OW70603   3.716   9.486   4.518
56257SOL    HW170604   3.703   9.394   4.494
56257SOL    HW270605   3.631   9.527   4.503
56258SOL     OW70606  13.179  11.171  10.824
56258SOL    HW170607  13.274  11.172  10.809
56258SOL    HW270608  13.167  11.112  10.899
56259SOL     OW70609   6.107   3.588   7.696
56259SOL    HW170610   6.132   3.590   7.788
56259SOL    HW270611   6.137   3.503   7.665
56260SOL     OW70612   1.767  12.968   5.129
56260SOL    HW170613   1.859  12.987   5.111
56260SOL    HW270614   1.730  12.950   5.042
56261SOL     OW70615   3.922   2.645   7.127
56261SOL    HW170616   3.872   2.714   7.170
56261SOL    HW270617   3.890   2.564   7.168
56262SOL     OW70618   6.961  12.155  13.369
56262SOL    HW170619   6.921  12.235  13.333
56262SOL    HW270620   6.923  12.084  13.317
56263SOL     OW70621   7.348   2.514  11.056
56263SOL    HW170622   7.416   2.504  11.123
56263SOL    HW270623   7.266   2.504  11.103
56264SOL     OW70624   9.439   8.870   8.290
56264SOL    HW170625   9.534   8.860   8.286
56264SOL    HW270626   9.408   8.787   8.326
56265SOL     OW70627   2.486  10.616   3.707
56265SOL    HW170628   2.571  10.661   3.718
56265SOL    HW270629   2.434  10.678   3.656
56266SOL     OW70630  13.280   0.445   8.309
56266SOL    HW170631  13.351   0.380   8.310
56266SOL    HW270632  13.298   0.500   8.233
56267SOL     OW70633   4.472   3.839   6.114
56267SOL    HW170634   4.552   3.890   6.123
56267SOL    HW270635   4.442   3.856   6.025
56268SOL     OW70636   0.589  14.704   6.879
56268SOL    HW170637   0.666  14.738   6.925
56268SOL    HW270638   0.572  14.768   6.810
56269SOL     OW70639  13.751   7.831   9.133
56269SOL    HW170640  13.730   7.855   9.223
56269SOL    HW270641  13.819   7.893   9.106
56270SOL     OW70642   7.135  11.460  13.579
56270SOL    HW170643   7.040  11.469  13.580
56270SOL    HW270644   7.150  11.369  13.551
56271SOL     OW70645  14.353   5.714   0.872
56271SOL    HW170646  14.333   5.801   0.905
56271SOL    HW270647  14.314   5.654   0.936
56272SOL     OW70648   5.435  11.314   4.621
56272SOL    HW170649   5.457  11.407   4.625
56272SOL    HW270650   5.408  11.292   4.710
56273SOL     OW70651   4.396   9.270  10.349
56273SOL    HW170652   4.394   9.323  10.269
56273SOL    HW270653   4.359   9.327  10.417
56274SOL     OW70654   4.262   7.970   2.625
56274SOL    HW170655   4.333   7.926   2.580
56274SOL    HW270656   4.261   7.931   2.713
56275SOL     OW70657   1.304  13.666   3.711
56275SOL    HW170658   1.269  13.722   3.641
56275SOL    HW270659   1.344  13.727   3.773
56276SOL     OW70660   9.903  13.142   1.641
56276SOL    HW170661   9.933  13.230   1.619
56276SOL    HW270662   9.833  13.124   1.579
56277SOL     OW70663   0.394  14.659  12.233
56277SOL    HW170664   0.386  14.752  12.253
56277SOL    HW270665   0.314  14.638  12.184
56278SOL     OW70666   7.165  10.775  13.443
56278SOL    HW170667   7.236  10.710  13.438
56278SOL    HW270668   7.093  10.736  13.394
56279SOL     OW70669  12.373   8.564  11.847
56279SOL    HW170670  12.401   8.537  11.934
56279SOL    HW270671  12.403   8.655  11.840
56280SOL     OW70672   8.081   7.636  14.633
56280SOL    HW170673   8.024   7.565  14.602
56280SOL    HW270674   8.079   7.627  14.728
56281SOL     OW70675   5.106   9.271  13.371
56281SOL    HW170676   5.196   9.301  13.367
56281SOL    HW270677   5.110   9.186  13.415
56282SOL     OW70678   5.993   4.440   3.814
56282SOL    HW170679   5.927   4.440   3.884
56282SOL    HW270680   6.063   4.495   3.847
56283SOL     OW70681   3.774  10.739  11.777
56283SOL    HW170682   3.727  10.790  11.710
56283SOL    HW270683   3.834  10.684  11.727
56284SOL     OW70684   7.580   3.936   4.982
56284SOL    HW170685   7.616   4.016   5.020
56284SOL    HW270686   7.615   3.866   5.037
56285SOL     OW70687   4.831   2.537  11.476
56285SOL    HW170688   4.740   2.545  11.448
56285SOL    HW270689   4.845   2.615  11.530
56286SOL     OW70690   5.568   9.518  10.464
56286SOL    HW170691   5.620   9.516  10.384
56286SOL    HW270692   5.489   9.566  10.440
56287SOL     OW70693   7.886   2.962   1.954
56287SOL    HW170694   7.945   3.030   1.921
56287SOL    HW270695   7.897   2.966   2.049
56288SOL     OW70696  10.156  12.018  14.825
56288SOL    HW170697  10.173  11.927  14.803
56288SOL    HW270698  10.237  12.064  14.803
56289SOL     OW70699   7.514  12.457   6.972
56289SOL    HW170700   7.507  12.414   6.886
56289SOL    HW270701   7.476  12.394   7.033
56290SOL     OW70702  10.854   3.801   1.215
56290SOL    HW170703  10.792   3.859   1.260
56290SOL    HW270704  10.823   3.713   1.233
56291SOL     OW70705   0.137   3.392  13.300
56291SOL    HW170706   0.106   3.317  13.250
56291SOL    HW270707   0.082   3.465  13.271
56292SOL     OW70708   3.096  11.569  14.203
56292SOL    HW170709   3.089  11.487  14.155
56292SOL    HW270710   3.006  11.591  14.227
56293SOL     OW70711   3.833   6.275  13.210
56293SOL    HW170712   3.869   6.354  13.170
56293SOL    HW270713   3.882   6.264  13.291
56294SOL     OW70714   9.171   7.454   1.614
56294SOL    HW170715   9.192   7.470   1.522
56294SOL    HW270716   9.149   7.540   1.649
56295SOL     OW70717   4.547   1.989   8.864
56295SOL    HW170718   4.457   2.015   8.883
56295SOL    HW270719   4.539   1.912   8.807
56296SOL     OW70720  13.285  10.605   4.626
56296SOL    HW170721  13.201  10.590   4.582
56296SOL    HW270722  13.351  10.588   4.559
56297SOL     OW70723   8.363   9.004  14.592
56297SOL    HW170724   8.334   9.076  14.538
56297SOL    HW270725   8.287   8.947  14.601
56298SOL     OW70726   0.067   0.751  11.002
56298SOL    HW170727   0.136   0.737  11.066
56298SOL    HW270728   0.061   0.846  10.994
56299SOL     OW70729  13.213   0.432  12.249
56299SOL    HW170730  13.236   0.467  12.164
56299SOL    HW270731  13.179   0.507  12.299
56300SOL     OW70732  10.423  11.575   1.504
56300SOL    HW170733  10.416  11.480   1.519
56300SOL    HW270734  10.377  11.615   1.577
56301SOL     OW70735   2.789   0.276  11.176
56301SOL    HW170736   2.804   0.356  11.227
56301SOL    HW270737   2.703   0.288  11.137
56302SOL     OW70738   9.605  12.002   4.329
56302SOL    HW170739   9.658  12.070   4.288
56302SOL    HW270740   9.597  11.934   4.261
56303SOL     OW70741   3.083   6.238   2.343
56303SOL    HW170742   3.130   6.155   2.339
56303SOL    HW270743   2.997   6.219   2.306
56304SOL     OW70744  10.991   0.660   2.913
56304SOL    HW170745  10.904   0.633   2.943
56304SOL    HW270746  10.974   0.735   2.855
56305SOL     OW70747   9.490   9.974   9.521
56305SOL    HW170748   9.447  10.049   9.478
56305SOL    HW270749   9.510   9.914   9.450
56306SOL     OW70750   4.073  10.554   2.589
56306SOL    HW170751   4.068  10.495   2.514
56306SOL    HW270752   4.150  10.524   2.638
56307SOL     OW70753   8.119   1.752  10.820
56307SOL    HW170754   8.167   1.834  10.807
56307SOL    HW270755   8.187   1.685  10.823
56308SOL     OW70756  13.423   5.722   9.843
56308SOL    HW170757  13.388   5.640   9.809
56308SOL    HW270758  13.506   5.697   9.885
56309SOL     OW70759   3.661   9.005  10.381
56309SOL    HW170760   3.740   9.012  10.433
56309SOL    HW270761   3.623   9.093  10.382
56310SOL     OW70762   2.625   4.149  10.625
56310SOL    HW170763   2.537   4.186  10.627
56310SOL    HW270764   2.674   4.201  10.689
56311SOL     OW70765   9.136   6.516   0.337
56311SOL    HW170766   9.197   6.589   0.352
56311SOL    HW270767   9.127   6.512   0.242
56312SOL     OW70768   6.502  10.509  11.909
56312SOL    HW170769   6.410  10.486  11.891
56312SOL    HW270770   6.539  10.430  11.949
56313SOL     OW70771   8.633   1.554   8.112
56313SOL    HW170772   8.592   1.498   8.178
56313SOL    HW270773   8.723   1.522   8.107
56314SOL     OW70774   2.203   0.038   1.108
56314SOL    HW170775   2.253  14.841   1.078
56314SOL    HW270776   2.151   0.065   1.031
56315SOL     OW70777   9.584   5.404   3.275
56315SOL    HW170778   9.617   5.318   3.303
56315SOL    HW270779   9.526   5.432   3.346
56316SOL     OW70780  11.204  13.374   2.322
56316SOL    HW170781  11.232  13.291   2.283
56316SOL    HW270782  11.279  13.433   2.309
56317SOL     OW70783   9.667  11.102  12.792
56317SOL    HW170784   9.604  11.172  12.810
56317SOL    HW270785   9.677  11.057  12.876
56318SOL     OW70786  11.601  14.831   5.096
56318SOL    HW170787  11.649  14.799   5.019
56318SOL    HW270788  11.554  14.754   5.128
56319SOL     OW70789   5.675   4.619  11.119
56319SOL    HW170790   5.732   4.609  11.196
56319SOL    HW270791   5.597   4.568  11.139
56320SOL     OW70792   8.596  11.748  12.357
56320SOL    HW170793   8.634  11.737  12.444
56320SOL    HW270794   8.670  11.737  12.297
56321SOL     OW70795  10.134  13.875   1.508
56321SOL    HW170796  10.172  13.805   1.456
56321SOL    HW270797  10.053  13.898   1.463
56322SOL     OW70798   0.364  11.539   8.019
56322SOL    HW170799   0.343  11.535   8.112
56322SOL    HW270800   0.369  11.633   8.000
56323SOL     OW70801  10.857   4.141  12.910
56323SOL    HW170802  10.858   4.230  12.877
56323SOL    HW270803  10.846   4.086  12.832
56324SOL     OW70804  13.857   3.029   9.304
56324SOL    HW170805  13.762   3.027   9.293
56324SOL    HW270806  13.869   3.022   9.399
56325SOL     OW70807   8.556   9.082   1.430
56325SOL    HW170808   8.559   9.175   1.450
56325SOL    HW270809   8.528   9.078   1.338
56326SOL     OW70810   4.101   5.193   6.385
56326SOL    HW170811   4.184   5.148   6.399
56326SOL    HW270812   4.034   5.131   6.416
56327SOL     OW70813   6.112   0.746  12.911
56327SOL    HW170814   6.108   0.840  12.897
56327SOL    HW270815   6.042   0.727  12.972
56328SOL     OW70816   3.048   3.830   4.479
56328SOL    HW170817   3.129   3.779   4.476
56328SOL    HW270818   2.982   3.773   4.440
56329SOL     OW70819  12.342  14.058   8.319
56329SOL    HW170820  12.340  13.986   8.256
56329SOL    HW270821  12.392  14.127   8.276
56330SOL     OW70822   3.694   5.767   3.307
56330SOL    HW170823   3.772   5.741   3.257
56330SOL    HW270824   3.728   5.789   3.394
56331SOL     OW70825  10.836   3.612   5.551
56331SOL    HW170826  10.767   3.557   5.515
56331SOL    HW270827  10.803   3.701   5.542
56332SOL     OW70828  11.433  10.366   0.884
56332SOL    HW170829  11.451  10.311   0.961
56332SOL    HW270830  11.517  10.372   0.839
56333SOL     OW70831   2.426   6.507   3.244
56333SOL    HW170832   2.368   6.582   3.232
56333SOL    HW270833   2.386   6.456   3.314
56334SOL     OW70834  11.674   3.864   8.467
56334SOL    HW170835  11.614   3.793   8.443
56334SOL    HW270836  11.761   3.830   8.444
56335SOL     OW70837  14.181   2.533   5.804
56335SOL    HW170838  14.252   2.597   5.818
56335SOL    HW270839  14.122   2.547   5.878
56336SOL     OW70840   8.421  11.045   0.292
56336SOL    HW170841   8.403  10.954   0.269
56336SOL    HW270842   8.469  11.039   0.375
56337SOL     OW70843  11.847  14.323   3.100
56337SOL    HW170844  11.837  14.369   3.184
56337SOL    HW270845  11.779  14.361   3.044
56338SOL     OW70846  14.321   2.468   6.784
56338SOL    HW170847  14.384   2.397   6.773
56338SOL    HW270848  14.276   2.447   6.866
56339SOL     OW70849   0.401   2.134   2.551
56339SOL    HW170850   0.381   2.071   2.482
56339SOL    HW270851   0.488   2.167   2.528
56340SOL     OW70852   8.419   7.463   1.562
56340SOL    HW170853   8.373   7.543   1.536
56340SOL    HW270854   8.352   7.411   1.607
56341SOL     OW70855  13.321   8.798  14.848
56341SOL    HW170856  13.255   8.843  14.795
56341SOL    HW270857  13.329   8.853   0.048
56342SOL     OW70858   7.055   0.868   2.815
56342SOL    HW170859   7.113   0.873   2.891
56342SOL    HW270860   6.985   0.931   2.835
56343SOL     OW70861   4.110   9.622   1.364
56343SOL    HW170862   4.133   9.692   1.426
56343SOL    HW270863   4.192   9.603   1.318
56344SOL     OW70864   2.388   1.268   5.721
56344SOL    HW170865   2.458   1.306   5.669
56344SOL    HW270866   2.370   1.334   5.789
56345SOL     OW70867   0.647   3.008   0.588
56345SOL    HW170868   0.697   2.938   0.630
56345SOL    HW270869   0.590   2.963   0.525
56346SOL     OW70870   9.157  11.917  10.396
56346SOL    HW170871   9.094  11.847  10.411
56346SOL    HW270872   9.157  11.967  10.477
56347SOL     OW70873   6.777  11.421  13.876
56347SOL    HW170874   6.742  11.404  13.963
56347SOL    HW270875   6.728  11.497  13.845
56348SOL     OW70876   7.132   0.873   4.468
56348SOL    HW170877   7.051   0.923   4.468
56348SOL    HW270878   7.195   0.930   4.513
56349SOL     OW70879   4.499  10.682  10.949
56349SOL    HW170880   4.512  10.656  11.040
56349SOL    HW270881   4.474  10.601  10.904
56350SOL     OW70882   7.125   2.436   6.223
56350SOL    HW170883   7.088   2.523   6.213
56350SOL    HW270884   7.146   2.430   6.317
56351SOL     OW70885   4.916   1.065   7.244
56351SOL    HW170886   4.853   1.019   7.300
56351SOL    HW270887   4.981   0.999   7.220
56352SOL     OW70888  14.303  12.441   5.917
56352SOL    HW170889  14.264  12.453   5.830
56352SOL    HW270890  14.291  12.526   5.960
56353SOL     OW70891   5.946   8.075  12.044
56353SOL    HW170892   5.878   8.141  12.056
56353SOL    HW270893   6.001   8.082  12.122
56354SOL     OW70894  14.195   6.763  11.241
56354SOL    HW170895  14.131   6.827  11.270
56354SOL    HW270896  14.254   6.752  11.316
56355SOL     OW70897   1.437   1.113   3.844
56355SOL    HW170898   1.403   1.126   3.932
56355SOL    HW270899   1.366   1.069   3.797
56356SOL     OW70900   3.801   5.701   9.756
56356SOL    HW170901   3.873   5.681   9.815
56356SOL    HW270902   3.723   5.696   9.811
56357SOL     OW70903  11.345   2.198  13.029
56357SOL    HW170904  11.266   2.146  13.044
56357SOL    HW270905  11.412   2.158  13.084
56358SOL     OW70906  13.716   1.842   8.424
56358SOL    HW170907  13.809   1.843   8.448
56358SOL    HW270908  13.677   1.777   8.482
56359SOL     OW70909   0.562  12.397   0.850
56359SOL    HW170910   0.519  12.456   0.788
56359SOL    HW270911   0.490  12.351   0.893
56360SOL     OW70912   0.127   8.479   1.529
56360SOL    HW170913   0.219   8.474   1.554
56360SOL    HW270914   0.126   8.534   1.451
56361SOL     OW70915  13.633   8.735   9.177
56361SOL    HW170916  13.557   8.781   9.214
56361SOL    HW270917  13.604   8.645   9.168
56362SOL     OW70918  10.132   2.681  13.959
56362SOL    HW170919  10.069   2.666  14.030
56362SOL    HW270920  10.217   2.679  14.001
56363SOL     OW70921   7.868   1.717   5.498
56363SOL    HW170922   7.788   1.694   5.450
56363SOL    HW270923   7.917   1.634   5.504
56364SOL     OW70924   1.135   2.014   1.928
56364SOL    HW170925   1.106   2.102   1.950
56364SOL    HW270926   1.085   1.956   1.986
56365SOL     OW70927  14.697  12.226  11.510
56365SOL    HW170928  14.728  12.137  11.491
56365SOL    HW270929  14.606  12.226  11.477
56366SOL     OW70930   7.404   2.960  12.363
56366SOL    HW170931   7.447   2.878  12.341
56366SOL    HW270932   7.470   3.011  12.410
56367SOL     OW70933  13.795   0.216  13.842
56367SOL    HW170934  13.741   0.239  13.917
56367SOL    HW270935  13.847   0.142  13.872
56368SOL     OW70936   1.190   3.523  11.365
56368SOL    HW170937   1.127   3.500  11.433
56368SOL    HW270938   1.142   3.516  11.283
56369SOL     OW70939  12.409  10.550   9.893
56369SOL    HW170940  12.391  10.556   9.986
56369SOL    HW270941  12.436  10.638   9.867
56370SOL     OW70942   3.530  12.233  13.179
56370SOL    HW170943   3.524  12.317  13.134
56370SOL    HW270944   3.515  12.254  13.272
56371SOL     OW70945   3.510   8.321   2.112
56371SOL    HW170946   3.423   8.284   2.130
56371SOL    HW270947   3.497   8.416   2.116
56372SOL     OW70948   6.158   4.446   3.369
56372SOL    HW170949   6.165   4.387   3.444
56372SOL    HW270950   6.140   4.532   3.407
56373SOL     OW70951   9.637   8.175   7.866
56373SOL    HW170952   9.613   8.268   7.866
56373SOL    HW270953   9.732   8.175   7.880
56374SOL     OW70954  10.473   7.029   7.026
56374SOL    HW170955  10.410   7.032   6.954
56374SOL    HW270956  10.419   7.012   7.104
56375SOL     OW70957  12.957   0.103   1.117
56375SOL    HW170958  13.010   0.078   1.041
56375SOL    HW270959  12.959   0.027   1.174
56376SOL     OW70960  12.817   5.998   5.842
56376SOL    HW170961  12.819   5.904   5.861
56376SOL    HW270962  12.860   6.006   5.756
56377SOL     OW70963   9.035   1.055  12.050
56377SOL    HW170964   9.095   1.115  12.007
56377SOL    HW270965   8.982   1.111  12.107
56378SOL     OW70966   3.774  10.693   2.647
56378SOL    HW170967   3.868  10.711   2.654
56378SOL    HW270968   3.747  10.674   2.737
56379SOL     OW70969  13.787   9.142   4.766
56379SOL    HW170970  13.870   9.130   4.721
56379SOL    HW270971  13.740   9.060   4.751
56380SOL     OW70972   2.339   8.398   7.344
56380SOL    HW170973   2.301   8.352   7.419
56380SOL    HW270974   2.419   8.439   7.378
56381SOL     OW70975   6.381  10.816   8.767
56381SOL    HW170976   6.335  10.898   8.748
56381SOL    HW270977   6.312  10.751   8.775
56382SOL     OW70978  10.455   0.018   4.108
56382SOL    HW170979  10.403  14.852   4.175
56382SOL    HW270980  10.435  14.850   4.027
56383SOL     OW70981  10.272  11.460   2.253
56383SOL    HW170982  10.296  11.552   2.263
56383SOL    HW270983  10.326  11.429   2.180
56384SOL     OW70984  10.401   6.222   2.370
56384SOL    HW170985  10.420   6.277   2.446
56384SOL    HW270986  10.486   6.183   2.347
56385SOL     OW70987   8.380  12.988   5.688
56385SOL    HW170988   8.302  12.985   5.744
56385SOL    HW270989   8.453  12.972   5.748
56386SOL     OW70990   4.462  14.066   0.673
56386SOL    HW170991   4.369  14.068   0.654
56386SOL    HW270992   4.502  14.024   0.596
56387SOL     OW70993  11.814   0.279   2.629
56387SOL    HW170994  11.794   0.190   2.660
56387SOL    HW270995  11.729   0.323   2.631
56388SOL     OW70996   2.856   7.673   8.599
56388SOL    HW170997   2.846   7.768   8.609
56388SOL    HW270998   2.782   7.636   8.647
56389SOL     OW70999  12.671   9.042   1.359
56389SOL    HW171000  12.683   9.064   1.451
56389SOL    HW271001  12.729   9.102   1.312
56390SOL     OW71002   5.401   6.985   9.196
56390SOL    HW171003   5.424   7.071   9.160
56390SOL    HW271004   5.484   6.937   9.199
56391SOL     OW71005  11.877   8.357   5.417
56391SOL    HW171006  11.833   8.416   5.356
56391SOL    HW271007  11.926   8.414   5.475
56392SOL     OW71008   8.802   9.909   6.858
56392SOL    HW171009   8.808   9.861   6.941
56392SOL    HW271010   8.714   9.945   6.857
56393SOL     OW71011  10.129   1.638  13.227
56393SOL    HW171012  10.156   1.675  13.311
56393SOL    HW271013  10.049   1.687  13.204
56394SOL     OW71014   5.970   5.838   4.551
56394SOL    HW171015   5.876   5.848   4.533
56394SOL    HW271016   5.974   5.766   4.614
56395SOL     OW71017  12.028  13.375   8.424
56395SOL    HW171018  11.980  13.347   8.346
56395SOL    HW271019  11.998  13.318   8.494
56396SOL     OW71020  11.101   2.641   1.771
56396SOL    HW171021  11.096   2.674   1.681
56396SOL    HW271022  11.017   2.599   1.786
56397SOL     OW71023   2.077   3.144  10.362
56397SOL    HW171024   1.990   3.115  10.335
56397SOL    HW271025   2.070   3.158  10.456
56398SOL     OW71026   5.247  10.012   5.112
56398SOL    HW171027   5.157  10.041   5.093
56398SOL    HW271028   5.301  10.089   5.096
56399SOL     OW71029   9.095  12.780  14.526
56399SOL    HW171030   9.094  12.692  14.488
56399SOL    HW271031   9.014  12.785  14.577
56400SOL     OW71032  13.515  11.378   0.609
56400SOL    HW171033  13.430  11.413   0.633
56400SOL    HW271034  13.529  11.303   0.667
56401SOL     OW71035   0.140   9.772  14.174
56401SOL    HW171036   0.145   9.844  14.111
56401SOL    HW271037   0.141   9.815  14.260
56402SOL     OW71038   7.141   9.647   3.757
56402SOL    HW171039   7.073   9.589   3.792
56402SOL    HW271040   7.194   9.670   3.833
56403SOL     OW71041  10.237   3.940   1.920
56403SOL    HW171042  10.291   3.861   1.920
56403SOL    HW271043  10.295   4.008   1.954
56404SOL     OW71044   9.746   0.332  13.558
56404SOL    HW171045   9.692   0.265  13.598
56404SOL    HW271046   9.700   0.356  13.477
56405SOL     OW71047   2.333  12.731  11.004
56405SOL    HW171048   2.255  12.700  11.050
56405SOL    HW271049   2.399  12.664  11.021
56406SOL     OW71050   5.388   6.720   8.882
56406SOL    HW171051   5.385   6.629   8.852
56406SOL    HW271052   5.464   6.724   8.939
56407SOL     OW71053   3.714  10.414   9.244
56407SOL    HW171054   3.805  10.394   9.227
56407SOL    HW271055   3.707  10.411   9.340
56408SOL     OW71056  14.269   6.670   7.478
56408SOL    HW171057  14.180   6.634   7.471
56408SOL    HW271058  14.257   6.765   7.476
56409SOL     OW71059   0.034  13.407  11.555
56409SOL    HW171060   0.030  13.357  11.637
56409SOL    HW271061  14.832  13.383  11.509
56410SOL     OW71062   5.456   9.806   4.606
56410SOL    HW171063   5.431   9.815   4.698
56410SOL    HW271064   5.374   9.785   4.561
56411SOL     OW71065  14.508   9.178  11.937
56411SOL    HW171066  14.597   9.162  11.968
56411SOL    HW271067  14.490   9.269  11.959
56412SOL     OW71068   8.142  12.516   9.668
56412SOL    HW171069   8.189  12.505   9.750
56412SOL    HW271070   8.172  12.600   9.634
56413SOL     OW71071  13.232   4.389   3.847
56413SOL    HW171072  13.306   4.392   3.907
56413SOL    HW271073  13.233   4.300   3.812
56414SOL     OW71074   2.344  10.550   2.341
56414SOL    HW171075   2.296  10.493   2.401
56414SOL    HW271076   2.431  10.559   2.381
56415SOL     OW71077   7.756  11.869   1.512
56415SOL    HW171078   7.720  11.957   1.527
56415SOL    HW271079   7.693  11.828   1.453
56416SOL     OW71080   7.847   9.479   0.205
56416SOL    HW171081   7.866   9.504   0.115
56416SOL    HW271082   7.768   9.425   0.200
56417SOL     OW71083   8.982   5.513  14.194
56417SOL    HW171084   8.928   5.445  14.234
56417SOL    HW271085   9.012   5.567  14.268
56418SOL     OW71086   6.690  14.761   1.484
56418SOL    HW171087   6.666  14.718   1.566
56418SOL    HW271088   6.786  14.761   1.484
56419SOL     OW71089   8.548   9.510  12.892
56419SOL    HW171090   8.474   9.557  12.855
56419SOL    HW271091   8.618   9.521  12.828
56420SOL     OW71092   0.698   8.747   2.234
56420SOL    HW171093   0.607   8.742   2.264
56420SOL    HW271094   0.732   8.826   2.277
56421SOL     OW71095   6.574   6.968  10.564
56421SOL    HW171096   6.651   6.939  10.515
56421SOL    HW271097   6.560   7.058  10.536
56422SOL     OW71098  14.737  14.726  14.763
56422SOL    HW171099  14.667  14.789  14.748
56422SOL    HW271100  14.809  14.756  14.708
56423SOL     OW71101   8.919  10.569   3.485
56423SOL    HW171102   8.967  10.599   3.408
56423SOL    HW271103   8.974  10.501   3.523
56424SOL     OW71104   6.105   3.274   8.136
56424SOL    HW171105   6.195   3.306   8.128
56424SOL    HW271106   6.106   3.187   8.096
56425SOL     OW71107   3.725  11.332  14.808
56425SOL    HW171108   3.811  11.374  14.819
56425SOL    HW271109   3.695  11.363  14.722
56426SOL     OW71110   5.293   1.348   7.209
56426SOL    HW171111   5.346   1.269   7.219
56426SOL    HW271112   5.229   1.343   7.280
56427SOL     OW71113   2.206   0.605  14.209
56427SOL    HW171114   2.180   0.696  14.224
56427SOL    HW271115   2.195   0.562  14.293
56428SOL     OW71116  14.582   8.822   9.990
56428SOL    HW171117  14.563   8.861  10.076
56428SOL    HW271118  14.647   8.881   9.951
56429SOL     OW71119   3.941  10.611  12.072
56429SOL    HW171120   4.027  10.652  12.085
56429SOL    HW271121   3.956  10.544  12.006
56430SOL     OW71122   3.187   4.502   3.817
56430SOL    HW171123   3.110   4.522   3.764
56430SOL    HW271124   3.184   4.565   3.889
56431SOL     OW71125  11.499   7.954   0.300
56431SOL    HW171126  11.421   7.969   0.247
56431SOL    HW271127  11.543   7.880   0.257
56432SOL     OW71128   5.462  12.431   1.317
56432SOL    HW171129   5.426  12.520   1.313
56432SOL    HW271130   5.510  12.421   1.235
56433SOL     OW71131  11.986   3.801   1.676
56433SOL    HW171132  11.902   3.791   1.721
56433SOL    HW271133  11.968   3.861   1.604
56434SOL     OW71134  11.227   4.491  10.110
56434SOL    HW171135  11.165   4.557  10.079
56434SOL    HW271136  11.253   4.442  10.032
56435SOL     OW71137   7.322  12.189  12.180
56435SOL    HW171138   7.279  12.227  12.257
56435SOL    HW271139   7.392  12.251  12.159
56436SOL     OW71140  10.987   5.282   8.684
56436SOL    HW171141  11.042   5.280   8.762
56436SOL    HW271142  11.036   5.335   8.621
56437SOL     OW71143   9.286   8.527  13.355
56437SOL    HW171144   9.269   8.619  13.373
56437SOL    HW271145   9.256   8.481  13.434
56438SOL     OW71146   6.810  14.678   5.403
56438SOL    HW171147   6.876  14.636   5.459
56438SOL    HW271148   6.845  14.669   5.314
56439SOL     OW71149  10.987   9.443   6.495
56439SOL    HW171150  10.993   9.351   6.470
56439SOL    HW271151  11.044   9.489   6.433
56440SOL     OW71152  13.044  12.497   3.743
56440SOL    HW171153  12.979  12.524   3.679
56440SOL    HW271154  13.064  12.577   3.792
56441SOL     OW71155  12.644   4.600   5.926
56441SOL    HW171156  12.565   4.630   5.882
56441SOL    HW271157  12.707   4.586   5.856
56442SOL     OW71158   7.850  13.420  12.458
56442SOL    HW171159   7.883  13.510  12.451
56442SOL    HW271160   7.913  13.377  12.516
56443SOL     OW71161   3.116   3.316   2.601
56443SOL    HW171162   3.152   3.335   2.514
56443SOL    HW271163   3.144   3.227   2.619
56444SOL     OW71164   9.952   8.207  12.959
56444SOL    HW171165   9.968   8.184  12.868
56444SOL    HW271166  10.015   8.277  12.977
56445SOL     OW71167   5.590   0.856   3.408
56445SOL    HW171168   5.586   0.777   3.463
56445SOL    HW271169   5.642   0.918   3.458
56446SOL     OW71170  10.268   1.286  14.693
56446SOL    HW171171  10.348   1.248  14.730
56446SOL    HW271172  10.207   1.289  14.766
56447SOL     OW71173   4.148  13.275   5.147
56447SOL    HW171174   4.145  13.371   5.149
56447SOL    HW271175   4.092  13.248   5.221
56448SOL     OW71176   7.832  11.785  12.533
56448SOL    HW171177   7.843  11.795  12.628
56448SOL    HW271178   7.770  11.854  12.509
56449SOL     OW71179   7.962   7.252   1.193
56449SOL    HW171180   7.891   7.304   1.155
56449SOL    HW271181   7.936   7.240   1.285
56450SOL     OW71182  12.898   1.435   8.013
56450SOL    HW171183  12.957   1.360   8.011
56450SOL    HW271184  12.846   1.427   7.933
56451SOL     OW71185   1.935   7.126  13.860
56451SOL    HW171186   1.899   7.041  13.836
56451SOL    HW271187   2.029   7.109  13.873
56452SOL     OW71188   6.014   4.528   9.470
56452SOL    HW171189   5.971   4.462   9.524
56452SOL    HW271190   6.045   4.593   9.533
56453SOL     OW71191   6.832   7.091   4.877
56453SOL    HW171192   6.788   7.056   4.800
56453SOL    HW271193   6.854   7.014   4.929
56454SOL     OW71194   6.946   5.621  13.786
56454SOL    HW171195   6.914   5.672  13.860
56454SOL    HW271196   6.980   5.686  13.725
56455SOL     OW71197   1.031   0.322  13.544
56455SOL    HW171198   1.122   0.327  13.575
56455SOL    HW271199   0.993   0.407  13.569
56456SOL     OW71200  14.701   1.229  12.734
56456SOL    HW171201  14.673   1.317  12.758
56456SOL    HW271202  14.628   1.172  12.759
56457SOL     OW71203   7.762  13.443  13.651
56457SOL    HW171204   7.695  13.502  13.684
56457SOL    HW271205   7.739  13.357  13.688
56458SOL     OW71206  10.576   5.360   6.641
56458SOL    HW171207  10.507   5.365   6.575
56458SOL    HW271208  10.650   5.319   6.596
56459SOL     OW71209   4.399   6.847  10.376
56459SOL    HW171210   4.340   6.782  10.337
56459SOL    HW271211   4.446   6.799  10.444
56460SOL     OW71212  14.668   2.683   1.839
56460SOL    HW171213  14.598   2.633   1.882
56460SOL    HW271214  14.642   2.774   1.850
56461SOL     OW71215   1.730  12.746  12.072
56461SOL    HW171216   1.774  12.821  12.112
56461SOL    HW271217   1.654  12.783  12.028
56462SOL     OW71218   5.806  10.634   0.474
56462SOL    HW171219   5.725  10.645   0.524
56462SOL    HW271220   5.837  10.547   0.498
56463SOL     OW71221  12.995   9.708   1.631
56463SOL    HW171222  13.067   9.652   1.661
56463SOL    HW271223  12.929   9.701   1.700
56464SOL     OW71224   8.499   9.661   7.814
56464SOL    HW171225   8.478   9.727   7.880
56464SOL    HW271226   8.437   9.589   7.831
56465SOL     OW71227  12.727   4.754   4.339
56465SOL    HW171228  12.813   4.791   4.319
56465SOL    HW271229  12.743   4.691   4.409
56466SOL     OW71230   8.832   7.943   2.075
56466SOL    HW171231   8.759   7.919   2.132
56466SOL    HW271232   8.853   7.863   2.027
56467SOL     OW71233  12.874   7.793  12.140
56467SOL    HW171234  12.815   7.865  12.116
56467SOL    HW271235  12.954   7.837  12.169
56468SOL     OW71236   4.459   6.250  12.570
56468SOL    HW171237   4.407   6.330  12.563
56468SOL    HW271238   4.395   6.179  12.562
56469SOL     OW71239   1.921   9.557   3.461
56469SOL    HW171240   1.984   9.604   3.405
56469SOL    HW271241   1.850   9.533   3.401
56470SOL     OW71242  10.955   2.252   3.925
56470SOL    HW171243  10.947   2.327   3.866
56470SOL    HW271244  11.050   2.240   3.934
56471SOL     OW71245  12.092  12.778   8.981
56471SOL    HW171246  12.012  12.796   9.031
56471SOL    HW271247  12.157  12.838   9.018
56472SOL     OW71248   3.678   5.416   5.236
56472SOL    HW171249   3.726   5.482   5.286
56472SOL    HW271250   3.639   5.464   5.163
56473SOL     OW71251  14.642  13.812   9.956
56473SOL    HW171252  14.599  13.819  10.042
56473SOL    HW271253  14.601  13.880   9.903
56474SOL     OW71254   9.577   1.460   7.007
56474SOL    HW171255   9.603   1.413   7.087
56474SOL    HW271256   9.482   1.449   7.004
56475SOL     OW71257  10.057  13.206   8.633
56475SOL    HW171258  10.028  13.155   8.709
56475SOL    HW271259   9.995  13.279   8.628
56476SOL     OW71260   6.586   6.773   0.047
56476SOL    HW171261   6.674   6.750   0.020
56476SOL    HW271262   6.560   6.701   0.106
56477SOL     OW71263   4.505   6.425   0.117
56477SOL    HW171264   4.581   6.478   0.139
56477SOL    HW271265   4.445   6.438   0.191
56478SOL     OW71266   8.944  14.869   5.787
56478SOL    HW171267   8.977  14.808   5.853
56478SOL    HW271268   8.982   0.074   5.811
56479SOL     OW71269   0.535   0.530   2.535
56479SOL    HW171270   0.571   0.447   2.567
56479SOL    HW271271   0.543   0.590   2.609
56480SOL     OW71272  14.217  10.212   4.031
56480SOL    HW171273  14.239  10.158   3.955
56480SOL    HW271274  14.249  10.161   4.106
56481SOL     OW71275   2.889  12.023   3.168
56481SOL    HW171276   2.878  11.960   3.239
56481SOL    HW271277   2.951  12.088   3.201
56482SOL     OW71278  11.820   8.988  13.667
56482SOL    HW171279  11.857   9.020  13.749
56482SOL    HW271280  11.892   8.941  13.625
56483SOL     OW71281  10.746   7.087   4.554
56483SOL    HW171282  10.708   7.021   4.612
56483SOL    HW271283  10.749   7.044   4.468
56484SOL     OW71284  10.179  12.315  10.404
56484SOL    HW171285  10.135  12.388  10.448
56484SOL    HW271286  10.261  12.304  10.452
56485SOL     OW71287   9.667   1.786   4.742
56485SOL    HW171288   9.580   1.802   4.705
56485SOL    HW271289   9.706   1.873   4.750
56486SOL     OW71290  14.077   3.943  12.191
56486SOL    HW171291  14.028   4.008  12.139
56486SOL    HW271292  14.081   3.981  12.279
56487SOL     OW71293   7.880  11.700   7.477
56487SOL    HW171294   7.951  11.662   7.530
56487SOL    HW271295   7.833  11.757   7.538
56488SOL     OW71296   8.223   9.917   2.429
56488SOL    HW171297   8.201   9.893   2.339
56488SOL    HW271298   8.294   9.856   2.453
56489SOL     OW71299   6.918   1.333  11.443
56489SOL    HW171300   6.946   1.412  11.397
56489SOL    HW271301   6.913   1.266  11.374
56490SOL     OW71302   0.847   4.837  10.559
56490SOL    HW171303   0.824   4.874  10.644
56490SOL    HW271304   0.775   4.780  10.536
56491SOL     OW71305   1.249  14.341   3.352
56491SOL    HW171306   1.274  14.339   3.260
56491SOL    HW271307   1.285  14.423   3.385
56492SOL     OW71308  10.512   1.083  11.171
56492SOL    HW171309  10.497   1.132  11.091
56492SOL    HW271310  10.426   1.078  11.213
56493SOL     OW71311   7.664   2.453   8.850
56493SOL    HW171312   7.658   2.411   8.764
56493SOL    HW271313   7.614   2.535   8.840
56494SOL     OW71314  14.211  11.660   4.031
56494SOL    HW171315  14.220  11.572   4.067
56494SOL    HW271316  14.117  11.676   4.030
56495SOL     OW71317   4.090   8.617  13.354
56495SOL    HW171318   4.025   8.555  13.321
56495SOL    HW271319   4.044   8.701  13.353
56496SOL     OW71320   8.776   3.326   3.716
56496SOL    HW171321   8.759   3.305   3.624
56496SOL    HW271322   8.838   3.259   3.745
56497SOL     OW71323   6.278  14.297   1.207
56497SOL    HW171324   6.321  14.372   1.165
56497SOL    HW271325   6.203  14.335   1.253
56498SOL     OW71326   5.806   1.983   2.875
56498SOL    HW171327   5.782   1.988   2.782
56498SOL    HW271328   5.781   2.068   2.911
56499SOL     OW71329   4.389   2.095  10.409
56499SOL    HW171330   4.392   2.027  10.341
56499SOL    HW271331   4.463   2.152  10.389
56500SOL     OW71332   1.696   5.865  11.703
56500SOL    HW171333   1.784   5.902  11.701
56500SOL    HW271334   1.700   5.796  11.769
56501SOL     OW71335   6.744  12.883   5.213
56501SOL    HW171336   6.728  12.789   5.216
56501SOL    HW271337   6.665  12.920   5.173
56502SOL     OW71338   9.054  12.163   9.404
56502SOL    HW171339   8.965  12.156   9.367
56502SOL    HW271340   9.105  12.099   9.355
56503SOL     OW71341   7.605  12.367   1.617
56503SOL    HW171342   7.568  12.355   1.704
56503SOL    HW271343   7.686  12.415   1.631
56504SOL     OW71344   9.550  11.370  11.968
56504SOL    HW171345   9.616  11.407  11.910
56504SOL    HW271346   9.559  11.420  12.049
56505SOL     OW71347  10.401  12.747   6.564
56505SOL    HW171348  10.400  12.815   6.631
56505SOL    HW271349  10.362  12.788   6.487
56506SOL     OW71350   4.088   0.282   7.274
56506SOL    HW171351   4.025   0.352   7.289
56506SOL    HW271352   4.071   0.253   7.184
56507SOL     OW71353   3.398  11.087   5.908
56507SOL    HW171354   3.379  11.138   5.830
56507SOL    HW271355   3.347  11.006   5.897
56508SOL     OW71356   3.902  10.725  10.722
56508SOL    HW171357   3.873  10.800  10.671
56508SOL    HW271358   3.976  10.690  10.674
56509SOL     OW71359   6.704  10.259   3.470
56509SOL    HW171360   6.738  10.292   3.553
56509SOL    HW271361   6.727  10.325   3.406
56510SOL     OW71362   6.268   1.999  11.813
56510SOL    HW171363   6.322   1.946  11.753
56510SOL    HW271364   6.322   2.007  11.892
56511SOL     OW71365  13.660  11.752  11.586
56511SOL    HW171366  13.706  11.699  11.651
56511SOL    HW271367  13.686  11.842  11.604
56512SOL     OW71368   8.118  13.651   6.980
56512SOL    HW171369   8.046  13.713   6.972
56512SOL    HW271370   8.121  13.606   6.896
56513SOL     OW71371  10.388   6.356   6.732
56513SOL    HW171372  10.436   6.434   6.703
56513SOL    HW271373  10.448   6.283   6.715
56514SOL     OW71374   7.005   2.172   7.957
56514SOL    HW171375   7.010   2.090   7.909
56514SOL    HW271376   7.053   2.155   8.038
56515SOL     OW71377   5.872   7.185   1.987
56515SOL    HW171378   5.879   7.090   1.970
56515SOL    HW271379   5.816   7.192   2.064
56516SOL     OW71380   3.011   3.565   9.013
56516SOL    HW171381   2.984   3.647   8.971
56516SOL    HW271382   3.067   3.522   8.949
56517SOL     OW71383  12.249  14.591  10.281
56517SOL    HW171384  12.224  14.647  10.207
56517SOL    HW271385  12.178  14.604  10.345
56518SOL     OW71386  14.440   1.866  11.711
56518SOL    HW171387  14.455   1.854  11.617
56518SOL    HW271388  14.353   1.906  11.716
56519SOL     OW71389   9.674  12.437   8.498
56519SOL    HW171390   9.738  12.387   8.446
56519SOL    HW271391   9.589  12.402   8.472
56520SOL     OW71392   4.474  12.592  13.992
56520SOL    HW171393   4.488  12.626  13.903
56520SOL    HW271394   4.505  12.662  14.049
56521SOL     OW71395  11.469  10.314   4.865
56521SOL    HW171396  11.475  10.326   4.959
56521SOL    HW271397  11.451  10.402   4.830
56522SOL     OW71398   1.289  14.792   5.477
56522SOL    HW171399   1.285   0.009   5.475
56522SOL    HW271400   1.252  14.764   5.393
56523SOL     OW71401  13.141   6.155  11.779
56523SOL    HW171402  13.071   6.200  11.827
56523SOL    HW271403  13.134   6.190  11.690
56524SOL     OW71404   6.347  10.045   9.325
56524SOL    HW171405   6.374   9.971   9.271
56524SOL    HW271406   6.419  10.108   9.318
56525SOL     OW71407   6.099  10.930   6.184
56525SOL    HW171408   6.027  10.977   6.227
56525SOL    HW271409   6.062  10.903   6.100
56526SOL     OW71410  12.630   1.653   6.554
56526SOL    HW171411  12.590   1.700   6.481
56526SOL    HW271412  12.646   1.565   6.520
56527SOL     OW71413  14.429   9.661   6.806
56527SOL    HW171414  14.460   9.751   6.810
56527SOL    HW271415  14.402   9.649   6.714
56528SOL     OW71416  12.354   6.853   5.055
56528SOL    HW171417  12.379   6.850   4.963
56528SOL    HW271418  12.270   6.807   5.059
56529SOL     OW71419  11.706   4.643  14.164
56529SOL    HW171420  11.799   4.631  14.183
56529SOL    HW271421  11.692   4.598  14.081
56530SOL     OW71422   1.382  10.874   1.415
56530SOL    HW171423   1.459  10.877   1.358
56530SOL    HW271424   1.378  10.960   1.456
56531SOL     OW71425  11.662  10.457  14.602
56531SOL    HW171426  11.582  10.430  14.557
56531SOL    HW271427  11.670  10.396  14.676
56532SOL     OW71428   7.186   0.612   3.669
56532SOL    HW171429   7.091   0.598   3.667
56532SOL    HW271430   7.202   0.656   3.752
56533SOL     OW71431   2.443   3.035   3.959
56533SOL    HW171432   2.450   3.027   4.054
56533SOL    HW271433   2.351   3.018   3.940
56534SOL     OW71434   8.523   0.953   4.758
56534SOL    HW171435   8.504   0.887   4.692
56534SOL    HW271436   8.483   1.033   4.724
56535SOL     OW71437   4.103   8.734  11.376
56535SOL    HW171438   4.017   8.773  11.361
56535SOL    HW271439   4.160   8.809  11.393
56536SOL     OW71440   6.702   4.611  12.310
56536SOL    HW171441   6.691   4.671  12.384
56536SOL    HW271442   6.796   4.596  12.305
56537SOL     OW71443   9.354  10.550   6.564
56537SOL    HW171444   9.355  10.574   6.656
56537SOL    HW271445   9.263  10.527   6.546
56538SOL     OW71446   0.647   9.579   1.214
56538SOL    HW171447   0.694   9.525   1.278
56538SOL    HW271448   0.555   9.566   1.236
56539SOL     OW71449   4.891  11.349  13.704
56539SOL    HW171450   4.858  11.276  13.651
56539SOL    HW271451   4.893  11.315  13.793
56540SOL     OW71452   0.285  14.827   2.234
56540SOL    HW171453   0.352  14.784   2.288
56540SOL    HW271454   0.304  14.797   2.144
56541SOL     OW71455   7.807   0.375   2.997
56541SOL    HW171456   7.791   0.406   3.086
56541SOL    HW271457   7.731   0.405   2.947
56542SOL     OW71458   4.001  13.026   2.656
56542SOL    HW171459   3.967  12.960   2.595
56542SOL    HW271460   4.048  12.976   2.723
56543SOL     OW71461  14.727  13.361   3.351
56543SOL    HW171462  14.728  13.355   3.255
56543SOL    HW271463  14.771  13.281   3.380
56544SOL     OW71464   6.943   7.830  12.042
56544SOL    HW171465   6.902   7.889  11.979
56544SOL    HW271466   7.037   7.851  12.036
56545SOL     OW71467   5.558   1.861   9.781
56545SOL    HW171468   5.555   1.856   9.685
56545SOL    HW271469   5.638   1.910   9.799
56546SOL     OW71470   1.546   4.827   6.624
56546SOL    HW171471   1.583   4.874   6.549
56546SOL    HW271472   1.453   4.848   6.622
56547SOL     OW71473  13.682   4.609   0.161
56547SOL    HW171474  13.617   4.674   0.188
56547SOL    HW271475  13.714   4.641   0.077
56548SOL     OW71476  11.144  13.595   8.359
56548SOL    HW171477  11.109  13.625   8.276
56548SOL    HW271478  11.099  13.648   8.425
56549SOL     OW71479  10.359  13.863   2.298
56549SOL    HW171480  10.349  13.911   2.379
56549SOL    HW271481  10.283  13.804   2.295
56550SOL     OW71482   5.338   2.965  13.770
56550SOL    HW171483   5.431   2.954  13.751
56550SOL    HW271484   5.315   2.890  13.825
56551SOL     OW71485  13.698   4.448   1.485
56551SOL    HW171486  13.704   4.543   1.480
56551SOL    HW271487  13.613   4.427   1.444
56552SOL     OW71488  11.279   3.125   6.613
56552SOL    HW171489  11.282   3.062   6.686
56552SOL    HW271490  11.371   3.142   6.592
56553SOL     OW71491  14.496   4.062  14.334
56553SOL    HW171492  14.426   4.041  14.396
56553SOL    HW271493  14.452   4.114  14.266
56554SOL     OW71494  10.660  13.317   3.420
56554SOL    HW171495  10.657  13.343   3.328
56554SOL    HW271496  10.643  13.398   3.468
56555SOL     OW71497   6.664   3.037  12.475
56555SOL    HW171498   6.758   3.053  12.488
56555SOL    HW271499   6.658   2.999  12.388
56556SOL     OW71500   9.652   2.625  11.167
56556SOL    HW171501   9.701   2.668  11.097
56556SOL    HW271502   9.713   2.625  11.242
56557SOL     OW71503   6.474   2.002   3.069
56557SOL    HW171504   6.438   2.054   3.141
56557SOL    HW271505   6.523   1.932   3.112
56558SOL     OW71506   9.305   0.781   3.093
56558SOL    HW171507   9.291   0.814   3.005
56558SOL    HW271508   9.378   0.719   3.085
56559SOL     OW71509  13.545  14.037   8.036
56559SOL    HW171510  13.617  14.086   8.075
56559SOL    HW271511  13.579  13.949   8.022
56560SOL     OW71512   2.243  12.893   2.569
56560SOL    HW171513   2.240  12.798   2.564
56560SOL    HW271514   2.197  12.914   2.650
56561SOL     OW71515   4.490   8.156  14.593
56561SOL    HW171516   4.565   8.158  14.534
56561SOL    HW271517   4.528   8.135  14.679
56562SOL     OW71518   4.196  11.793  10.762
56562SOL    HW171519   4.113  11.746  10.769
56562SOL    HW271520   4.174  11.876  10.720
56563SOL     OW71521   4.520   6.138   6.289
56563SOL    HW171522   4.479   6.138   6.203
56563SOL    HW271523   4.528   6.046   6.313
56564SOL     OW71524   7.057   4.999   2.108
56564SOL    HW171525   7.048   5.014   2.202
56564SOL    HW271526   7.126   5.058   2.081
56565SOL     OW71527  11.989   9.013   5.131
56565SOL    HW171528  11.954   9.008   5.220
56565SOL    HW271529  11.993   8.922   5.101
56566SOL     OW71530  12.970   8.713   6.215
56566SOL    HW171531  12.998   8.726   6.306
56566SOL    HW271532  13.048   8.680   6.171
56567SOL     OW71533   8.661   4.843   9.105
56567SOL    HW171534   8.656   4.748   9.109
56567SOL    HW271535   8.676   4.863   9.012
56568SOL     OW71536   2.507   5.868   0.199
56568SOL    HW171537   2.520   5.833   0.288
56568SOL    HW271538   2.570   5.940   0.193
56569SOL     OW71539   8.829   4.486   4.711
56569SOL    HW171540   8.754   4.544   4.725
56569SOL    HW271541   8.902   4.546   4.692
56570SOL     OW71542  14.257   9.550   5.891
56570SOL    HW171543  14.222   9.557   5.980
56570SOL    HW271544  14.293   9.636   5.872
56571SOL     OW71545  13.954   2.458   9.519
56571SOL    HW171546  14.033   2.503   9.549
56571SOL    HW271547  13.902   2.526   9.477
56572SOL     OW71548   7.744   4.820   1.211
56572SOL    HW171549   7.687   4.759   1.163
56572SOL    HW271550   7.697   4.836   1.293
56573SOL     OW71551  13.716   5.947   5.585
56573SOL    HW171552  13.649   5.926   5.650
56573SOL    HW271553  13.786   5.989   5.634
56574SOL     OW71554   1.351  12.468   7.424
56574SOL    HW171555   1.385  12.394   7.374
56574SOL    HW271556   1.261  12.479   7.393
56575SOL     OW71557  13.879  12.570   9.248
56575SOL    HW171558  13.873  12.634   9.177
56575SOL    HW271559  13.808  12.594   9.308
56576SOL     OW71560   1.937   9.920   4.332
56576SOL    HW171561   1.864   9.890   4.387
56576SOL    HW271562   1.969   9.841   4.290
56577SOL     OW71563  14.750   7.732  12.610
56577SOL    HW171564  14.843   7.749  12.596
56577SOL    HW271565  14.707   7.815  12.587
56578SOL     OW71566  10.829   5.210   2.586
56578SOL    HW171567  10.744   5.165   2.581
56578SOL    HW271568  10.888   5.154   2.536
56579SOL     OW71569  10.125   8.196   3.551
56579SOL    HW171570  10.106   8.280   3.509
56579SOL    HW271571  10.215   8.204   3.581
56580SOL     OW71572   4.170  10.997   9.955
56580SOL    HW171573   4.191  11.090   9.963
56580SOL    HW271574   4.106  10.980  10.024
56581SOL     OW71575  14.624   5.627   0.525
56581SOL    HW171576  14.597   5.701   0.580
56581SOL    HW271577  14.596   5.549   0.573
56582SOL     OW71578  14.750   3.887   1.136
56582SOL    HW171579  14.727   3.944   1.209
56582SOL    HW271580  14.700   3.922   1.061
56583SOL     OW71581   8.830  12.241  10.469
56583SOL    HW171582   8.923  12.225  10.483
56583SOL    HW271583   8.826  12.319  10.415
56584SOL     OW71584   7.707   9.992  12.285
56584SOL    HW171585   7.721  10.004  12.378
56584SOL    HW271586   7.795   9.985  12.247
56585SOL     OW71587  12.981   3.648   3.938
56585SOL    HW171588  12.910   3.700   3.901
56585SOL    HW271589  12.938   3.567   3.968
56586SOL     OW71590   9.292  14.851   9.009
56586SOL    HW171591   9.275  14.771   8.960
56586SOL    HW271592   9.313   0.037   8.942
56587SOL     OW71593   5.388  10.849   1.734
56587SOL    HW171594   5.398  10.885   1.646
56587SOL    HW271595   5.351  10.761   1.721
56588SOL     OW71596  14.233   1.084   5.143
56588SOL    HW171597  14.181   1.004   5.144
56588SOL    HW271598  14.269   1.090   5.232
56589SOL     OW71599   6.173   4.114  10.211
56589SOL    HW171600   6.265   4.132  10.193
56589SOL    HW271601   6.159   4.149  10.299
56590SOL     OW71602  11.623  11.621   4.744
56590SOL    HW171603  11.530  11.607   4.727
56590SOL    HW271604  11.632  11.611   4.839
56591SOL     OW71605  14.333   4.867  12.763
56591SOL    HW171606  14.245   4.835  12.744
56591SOL    HW271607  14.391   4.792  12.747
56592SOL     OW71608   5.008  12.286   5.709
56592SOL    HW171609   5.041  12.264   5.796
56592SOL    HW271610   4.915  12.263   5.712
56593SOL     OW71611   5.326   7.029   6.443
56593SOL    HW171612   5.369   7.075   6.515
56593SOL    HW271613   5.253   7.086   6.419
56594SOL     OW71614   7.202  13.148   7.783
56594SOL    HW171615   7.270  13.184   7.725
56594SOL    HW271616   7.162  13.078   7.732
56595SOL     OW71617   0.257  11.447  11.377
56595SOL    HW171618   0.250  11.476  11.286
56595SOL    HW271619   0.239  11.353  11.374
56596SOL     OW71620   4.424   1.337  14.332
56596SOL    HW171621   4.388   1.358  14.246
56596SOL    HW271622   4.487   1.406  14.350
56597SOL     OW71623   6.972  11.734  12.497
56597SOL    HW171624   6.882  11.750  12.466
56597SOL    HW271625   6.995  11.814  12.544
56598SOL     OW71626   3.910   1.036  14.591
56598SOL    HW171627   3.879   0.947  14.608
56598SOL    HW271628   4.006   1.029  14.594
56599SOL     OW71629   5.743  10.023  12.813
56599SOL    HW171630   5.798   9.946  12.823
56599SOL    HW271631   5.656   9.993  12.841
56600SOL     OW71632  13.101   2.056   0.696
56600SOL    HW171633  13.080   1.963   0.703
56600SOL    HW271634  13.173   2.059   0.633
56601SOL     OW71635   8.961   4.678  11.134
56601SOL    HW171636   8.873   4.641  11.129
56601SOL    HW271637   9.019   4.603  11.121
56602SOL     OW71638   6.964   5.545   2.001
56602SOL    HW171639   7.051   5.553   1.962
56602SOL    HW271640   6.920   5.480   1.947
56603SOL     OW71641   0.228   9.031   5.970
56603SOL    HW171642   0.287   9.098   6.002
56603SOL    HW271643   0.258   8.950   6.012
56604SOL     OW71644   1.041   6.430  10.423
56604SOL    HW171645   1.051   6.373  10.346
56604SOL    HW271646   0.946   6.439  10.433
56605SOL     OW71647   8.819  13.371  11.233
56605SOL    HW171648   8.727  13.352  11.255
56605SOL    HW271649   8.815  13.452  11.183
56606SOL     OW71650  12.978  14.290  11.806
56606SOL    HW171651  13.030  14.292  11.725
56606SOL    HW271652  13.044  14.289  11.876
56607SOL     OW71653  14.478  10.747   6.768
56607SOL    HW171654  14.429  10.665   6.776
56607SOL    HW271655  14.487  10.778   6.858
56608SOL     OW71656  14.248  13.818   1.589
56608SOL    HW171657  14.324  13.877   1.591
56608SOL    HW271658  14.213  13.828   1.501
56609SOL     OW71659   3.077   1.564   1.591
56609SOL    HW171660   2.982   1.555   1.601
56609SOL    HW271661   3.112   1.477   1.609
56610SOL     OW71662   6.959   5.942   7.554
56610SOL    HW171663   6.999   5.997   7.620
56610SOL    HW271664   6.975   5.852   7.584
56611SOL     OW71665  10.227  14.244  11.319
56611SOL    HW171666  10.210  14.313  11.255
56611SOL    HW271667  10.160  14.178  11.303
56612SOL     OW71668   6.982   5.632   2.674
56612SOL    HW171669   6.918   5.628   2.745
56612SOL    HW271670   6.937   5.591   2.599
56613SOL     OW71671   0.612   7.124   7.189
56613SOL    HW171672   0.604   7.032   7.215
56613SOL    HW271673   0.523   7.151   7.167
56614SOL     OW71674  12.264   3.485  11.816
56614SOL    HW171675  12.341   3.453  11.864
56614SOL    HW271676  12.249   3.418  11.749
56615SOL     OW71677  12.033   5.215   8.297
56615SOL    HW171678  11.958   5.256   8.254
56615SOL    HW271679  11.995   5.145   8.350
56616SOL     OW71680  10.751   8.266   6.065
56616SOL    HW171681  10.818   8.208   6.028
56616SOL    HW271682  10.754   8.248   6.159
56617SOL     OW71683   0.072  12.114   3.563
56617SOL    HW171684   0.020  12.191   3.587
56617SOL    HW271685   0.106  12.082   3.647
56618SOL     OW71686   7.192   2.663   3.384
56618SOL    HW171687   7.231   2.600   3.323
56618SOL    HW271688   7.155   2.731   3.327
56619SOL     OW71689   7.411  14.215   7.407
56619SOL    HW171690   7.466  14.138   7.421
56619SOL    HW271691   7.326  14.191   7.444
56620SOL     OW71692   4.634  12.797  11.743
56620SOL    HW171693   4.545  12.794  11.708
56620SOL    HW271694   4.689  12.759  11.675
56621SOL     OW71695   4.184   5.143   1.870
56621SOL    HW171696   4.128   5.145   1.948
56621SOL    HW271697   4.270   5.116   1.903
56622SOL     OW71698   8.587  10.429  11.026
56622SOL    HW171699   8.569  10.523  11.027
56622SOL    HW271700   8.532  10.393  11.095
56623SOL     OW71701   3.218  14.362   0.870
56623SOL    HW171702   3.173  14.401   0.795
56623SOL    HW271703   3.239  14.436   0.927
56624SOL     OW71704   7.560  12.532   8.536
56624SOL    HW171705   7.552  12.612   8.588
56624SOL    HW271706   7.613  12.474   8.591
56625SOL     OW71707   7.738   5.445   4.803
56625SOL    HW171708   7.720   5.523   4.856
56625SOL    HW271709   7.703   5.467   4.717
56626SOL     OW71710   6.796  10.883   5.771
56626SOL    HW171711   6.884  10.862   5.742
56626SOL    HW271712   6.739  10.822   5.725
56627SOL     OW71713  11.595   7.217   9.366
56627SOL    HW171714  11.543   7.194   9.443
56627SOL    HW271715  11.571   7.309   9.348
56628SOL     OW71716  10.816   3.390   0.557
56628SOL    HW171717  10.788   3.475   0.522
56628SOL    HW271718  10.745   3.364   0.617
56629SOL     OW71719   1.272  14.060   9.038
56629SOL    HW171720   1.321  13.980   9.019
56629SOL    HW271721   1.274  14.109   8.955
56630SOL     OW71722   2.877   8.675   8.709
56630SOL    HW171723   2.893   8.752   8.763
56630SOL    HW271724   2.783   8.659   8.716
56631SOL     OW71725   9.939   9.640  11.432
56631SOL    HW171726   9.891   9.558  11.423
56631SOL    HW271727   9.896   9.699  11.370
56632SOL     OW71728   9.228  10.314   6.922
56632SOL    HW171729   9.213  10.378   6.991
56632SOL    HW271730   9.295  10.255   6.958
56633SOL     OW71731   1.286   2.806   6.277
56633SOL    HW171732   1.320   2.808   6.187
56633SOL    HW271733   1.237   2.888   6.286
56634SOL     OW71734  13.078   3.319   9.111
56634SOL    HW171735  12.998   3.319   9.165
56634SOL    HW271736  13.058   3.260   9.039
56635SOL     OW71737   8.527   2.243   5.968
56635SOL    HW171738   8.570   2.239   5.883
56635SOL    HW271739   8.471   2.165   5.970
56636SOL     OW71740  12.201   3.135   9.448
56636SOL    HW171741  12.206   3.134   9.353
56636SOL    HW271742  12.191   3.227   9.471
56637SOL     OW71743   7.670  12.357  12.428
56637SOL    HW171744   7.669  12.272  12.386
56637SOL    HW271745   7.759  12.368  12.460
56638SOL     OW71746  10.071   5.070  12.522
56638SOL    HW171747  10.109   5.045  12.606
56638SOL    HW271748  10.084   4.993  12.466
56639SOL     OW71749   4.584   9.187   5.764
56639SOL    HW171750   4.535   9.263   5.795
56639SOL    HW271751   4.635   9.159   5.839
56640SOL     OW71752   4.957  10.306   1.100
56640SOL    HW171753   4.883  10.300   1.039
56640SOL    HW271754   4.943  10.233   1.161
56641SOL     OW71755   3.371  13.669   5.882
56641SOL    HW171756   3.386  13.577   5.863
56641SOL    HW271757   3.356  13.710   5.797
56642SOL     OW71758   2.857   3.943   4.987
56642SOL    HW171759   2.866   4.036   5.009
56642SOL    HW271760   2.869   3.939   4.892
56643SOL     OW71761   7.202   3.743   3.889
56643SOL    HW171762   7.126   3.702   3.931
56643SOL    HW271763   7.168   3.825   3.853
56644SOL     OW71764  10.640   1.845   3.302
56644SOL    HW171765  10.683   1.846   3.387
56644SOL    HW271766  10.699   1.894   3.244
56645SOL     OW71767   3.958   1.186   8.962
56645SOL    HW171768   3.901   1.230   8.899
56645SOL    HW271769   3.905   1.115   8.998
56646SOL     OW71770   3.838   4.191  11.510
56646SOL    HW171771   3.887   4.126  11.561
56646SOL    HW271772   3.746   4.166  11.523
56647SOL     OW71773   8.731   5.564   3.865
56647SOL    HW171774   8.826   5.574   3.851
56647SOL    HW271775   8.691   5.624   3.802
56648SOL     OW71776   2.839  13.997   0.923
56648SOL    HW171777   2.860  13.904   0.924
56648SOL    HW271778   2.860  14.027   1.011
56649SOL     OW71779  12.087  10.749   7.821
56649SOL    HW171780  12.038  10.828   7.796
56649SOL    HW271781  12.087  10.749   7.916
56650SOL     OW71782  11.639   2.720  11.815
56650SOL    HW171783  11.727   2.731  11.852
56650SOL    HW271784  11.643   2.765  11.731
56651SOL     OW71785  12.733  12.047   6.191
56651SOL    HW171786  12.818  12.043   6.235
56651SOL    HW271787  12.737  11.979   6.124
56652SOL     OW71788   1.670  12.769   0.784
56652SOL    HW171789   1.722  12.691   0.802
56652SOL    HW271790   1.579  12.737   0.780
56653SOL     OW71791  10.142   1.629   1.543
56653SOL    HW171792  10.056   1.587   1.537
56653SOL    HW271793  10.141   1.695   1.473
56654SOL     OW71794  10.064   9.730  14.032
56654SOL    HW171795  10.011   9.807  14.051
56654SOL    HW271796  10.147   9.765  14.000
56655SOL     OW71797   8.739   5.898  12.613
56655SOL    HW171798   8.650   5.897  12.576
56655SOL    HW271799   8.733   5.959  12.687
56656SOL     OW71800  10.597   0.785   6.738
56656SOL    HW171801  10.650   0.852   6.693
56656SOL    HW271802  10.595   0.815   6.830
56657SOL     OW71803   1.275  12.208   9.084
56657SOL    HW171804   1.190  12.236   9.119
56657SOL    HW271805   1.265  12.115   9.068
56658SOL     OW71806   3.767   1.675   1.924
56658SOL    HW171807   3.687   1.720   1.896
56658SOL    HW271808   3.742   1.630   2.005
56659SOL     OW71809   0.182   1.631   3.734
56659SOL    HW171810   0.131   1.676   3.801
56659SOL    HW271811   0.273   1.655   3.753
56660SOL     OW71812  13.129   1.954   5.504
56660SOL    HW171813  13.217   1.917   5.492
56660SOL    HW271814  13.070   1.879   5.497
56661SOL     OW71815   1.299  11.146   4.990
56661SOL    HW171816   1.323  11.200   5.065
56661SOL    HW271817   1.309  11.056   5.020
56662SOL     OW71818   6.437  12.299   3.879
56662SOL    HW171819   6.524  12.310   3.918
56662SOL    HW271820   6.402  12.388   3.873
56663SOL     OW71821   8.534   1.826   0.244
56663SOL    HW171822   8.625   1.833   0.214
56663SOL    HW271823   8.538   1.850   0.337
56664SOL     OW71824   3.619   4.168   5.127
56664SOL    HW171825   3.624   4.138   5.218
56664SOL    HW271826   3.557   4.108   5.085
56665SOL     OW71827   0.292   0.701   3.380
56665SOL    HW171828   0.270   0.762   3.451
56665SOL    HW271829   0.290   0.614   3.422
56666SOL     OW71830  13.471   8.900   5.909
56666SOL    HW171831  13.486   8.987   5.945
56666SOL    HW271832  13.387   8.872   5.948
56667SOL     OW71833   6.388   5.663   8.654
56667SOL    HW171834   6.342   5.580   8.657
56667SOL    HW271835   6.356   5.711   8.730
56668SOL     OW71836   3.870   5.916   0.621
56668SOL    HW171837   3.830   5.859   0.687
56668SOL    HW271838   3.916   5.856   0.562
56669SOL     OW71839   1.244   8.833   2.734
56669SOL    HW171840   1.271   8.864   2.647
56669SOL    HW271841   1.320   8.784   2.766
56670SOL     OW71842  12.189  11.561  11.036
56670SOL    HW171843  12.205  11.651  11.006
56670SOL    HW271844  12.208  11.507  10.960
56671SOL     OW71845   9.989  11.636   5.645
56671SOL    HW171846   9.931  11.565   5.674
56671SOL    HW271847   9.953  11.663   5.560
56672SOL     OW71848   7.979  12.569  10.831
56672SOL    HW171849   7.908  12.510  10.855
56672SOL    HW271850   7.940  12.630  10.768
56673SOL     OW71851  13.353  13.181   7.954
56673SOL    HW171852  13.436  13.210   7.916
56673SOL    HW271853  13.290  13.247   7.925
56674SOL     OW71854   5.747   4.500  12.431
56674SOL    HW171855   5.726   4.524  12.341
56674SOL    HW271856   5.822   4.554  12.453
56675SOL     OW71857   9.476   6.784  11.963
56675SOL    HW171858   9.519   6.808  11.881
56675SOL    HW271859   9.494   6.690  11.973
56676SOL     OW71860   7.602   4.470  14.269
56676SOL    HW171861   7.608   4.375  14.261
56676SOL    HW271862   7.521   4.486  14.317
56677SOL     OW71863  14.091  10.389  13.652
56677SOL    HW171864  14.038  10.467  13.636
56677SOL    HW271865  14.091  10.342  13.568
56678SOL     OW71866  11.678  11.231  13.361
56678SOL    HW171867  11.594  11.275  13.345
56678SOL    HW271868  11.693  11.179  13.282
56679SOL     OW71869  14.111   2.221   3.309
56679SOL    HW171870  14.033   2.260   3.269
56679SOL    HW271871  14.163   2.295   3.339
56680SOL     OW71872  14.833   3.150  13.121
56680SOL    HW171873   0.041   3.126  13.153
56680SOL    HW271874  14.786   3.181  13.199
56681SOL     OW71875   1.708  13.852  13.831
56681SOL    HW171876   1.621  13.819  13.808
56681SOL    HW271877   1.700  13.947  13.826
56682SOL     OW71878  10.759   9.014   7.915
56682SOL    HW171879  10.826   9.080   7.930
56682SOL    HW271880  10.795   8.959   7.846
56683SOL     OW71881  14.685   4.773   3.011
56683SOL    HW171882  14.743   4.785   3.086
56683SOL    HW271883  14.673   4.678   3.005
56684SOL     OW71884   5.012  14.691   8.085
56684SOL    HW171885   4.988  14.750   8.156
56684SOL    HW271886   4.930  14.676   8.038
56685SOL     OW71887   8.762   0.269  10.741
56685SOL    HW171888   8.708   0.196  10.711
56685SOL    HW271889   8.715   0.347  10.712
56686SOL     OW71890   8.533  12.298  13.270
56686SOL    HW171891   8.501  12.384  13.241
56686SOL    HW271892   8.462  12.237  13.248
56687SOL     OW71893   0.639   4.930  11.423
56687SOL    HW171894   0.658   4.988  11.350
56687SOL    HW271895   0.674   4.975  11.500
56688SOL     OW71896   3.071   0.685   7.625
56688SOL    HW171897   3.024   0.612   7.585
56688SOL    HW271898   3.144   0.644   7.672
56689SOL     OW71899   9.057  14.490   1.642
56689SOL    HW171900   9.046  14.579   1.675
56689SOL    HW271901   9.032  14.434   1.715
56690SOL     OW71902  10.314   6.511  11.113
56690SOL    HW171903  10.368   6.554  11.047
56690SOL    HW271904  10.368   6.512  11.192
56691SOL     OW71905  12.292  12.912   1.975
56691SOL    HW171906  12.348  12.927   1.899
56691SOL    HW271907  12.352  12.916   2.050
56692SOL     OW71908  12.036  12.416   2.152
56692SOL    HW171909  12.073  12.477   2.215
56692SOL    HW271910  11.950  12.394   2.187
56693SOL     OW71911   8.584  12.938   9.378
56693SOL    HW171912   8.627  12.981   9.304
56693SOL    HW271913   8.642  12.865   9.400
56694SOL     OW71914   8.602  13.949  12.253
56694SOL    HW171915   8.567  14.025  12.301
56694SOL    HW271916   8.530  13.887  12.251
56695SOL     OW71917  10.602   7.188  12.794
56695SOL    HW171918  10.621   7.181  12.700
56695SOL    HW271919  10.518   7.234  12.797
56696SOL     OW71920   1.123   2.743   8.636
56696SOL    HW171921   1.150   2.680   8.570
56696SOL    HW271922   1.034   2.716   8.660
56697SOL     OW71923   7.988  12.684  11.108
56697SOL    HW171924   7.998  12.601  11.060
56697SOL    HW271925   8.045  12.745  11.063
56698SOL     OW71926   4.639   7.928  11.423
56698SOL    HW171927   4.693   7.999  11.389
56698SOL    HW271928   4.702   7.865  11.458
56699SOL     OW71929   7.498   3.386   3.562
56699SOL    HW171930   7.548   3.314   3.601
56699SOL    HW271931   7.563   3.436   3.512
56700SOL     OW71932   6.310   8.222  12.005
56700SOL    HW171933   6.397   8.251  11.976
56700SOL    HW271934   6.258   8.217  11.925
56701SOL     OW71935   0.607  12.285  11.295
56701SOL    HW171936   0.605  12.220  11.224
56701SOL    HW271937   0.628  12.234  11.373
56702SOL     OW71938  13.109  13.978  12.653
56702SOL    HW171939  13.202  13.981  12.673
56702SOL    HW271940  13.101  13.917  12.579
56703SOL     OW71941   2.451   1.755   9.258
56703SOL    HW171942   2.383   1.822   9.251
56703SOL    HW271943   2.431   1.710   9.340
56704SOL     OW71944   8.233  13.597   2.157
56704SOL    HW171945   8.291  13.537   2.109
56704SOL    HW271946   8.255  13.683   2.123
56705SOL     OW71947   4.248  12.726   9.212
56705SOL    HW171948   4.217  12.639   9.236
56705SOL    HW271949   4.344  12.719   9.212
56706SOL     OW71950   4.563  12.266  10.267
56706SOL    HW171951   4.613  12.232  10.341
56706SOL    HW271952   4.549  12.359  10.287
56707SOL     OW71953  14.480   1.246   2.471
56707SOL    HW171954  14.459   1.320   2.529
56707SOL    HW271955  14.412   1.249   2.404
56708SOL     OW71956  12.261   3.939   2.116
56708SOL    HW171957  12.300   3.852   2.108
56708SOL    HW271958  12.325   3.998   2.075
56709SOL     OW71959   7.942   3.993   7.193
56709SOL    HW171960   8.033   4.019   7.211
56709SOL    HW271961   7.949   3.903   7.161
56710SOL     OW71962  13.400   5.830   4.013
56710SOL    HW171963  13.382   5.913   3.968
56710SOL    HW271964  13.431   5.772   3.944
56711SOL     OW71965  14.665   0.418   0.711
56711SOL    HW171966  14.723   0.489   0.739
56711SOL    HW271967  14.580   0.460   0.699
56712SOL     OW71968   1.795   9.061   7.960
56712SOL    HW171969   1.729   9.115   8.003
56712SOL    HW271970   1.834   9.009   8.032
56713SOL     OW71971   9.368   1.867  13.956
56713SOL    HW171972   9.312   1.944  13.957
56713SOL    HW271973   9.438   1.887  14.018
56714SOL     OW71974   5.124   7.331   8.201
56714SOL    HW171975   5.077   7.284   8.131
56714SOL    HW271976   5.114   7.424   8.177
56715SOL     OW71977  14.036   9.471   9.314
56715SOL    HW171978  14.029   9.525   9.393
56715SOL    HW271979  14.103   9.514   9.262
56716SOL     OW71980   7.899   3.531   4.856
56716SOL    HW171981   7.896   3.470   4.782
56716SOL    HW271982   7.809   3.530   4.890
56717SOL     OW71983  12.566   4.164   5.889
56717SOL    HW171984  12.538   4.075   5.868
56717SOL    HW271985  12.491   4.219   5.866
56718SOL     OW71986   5.919   9.174   9.245
56718SOL    HW171987   5.999   9.193   9.294
56718SOL    HW271988   5.900   9.254   9.196
56719SOL     OW71989   5.139  11.702   2.467
56719SOL    HW171990   5.075  11.717   2.537
56719SOL    HW271991   5.223  11.699   2.512
56720SOL     OW71992  10.315   7.251  10.675
56720SOL    HW171993  10.266   7.178  10.713
56720SOL    HW271994  10.391   7.210  10.635
56721SOL     OW71995   9.563   0.694   9.882
56721SOL    HW171996   9.524   0.624   9.934
56721SOL    HW271997   9.642   0.656   9.845
56722SOL     OW71998   9.859   8.917   6.924
56722SOL    HW171999   9.833   9.005   6.897
56722SOL    HW272000   9.783   8.863   6.905
56723SOL     OW72001  12.731   9.880   7.327
56723SOL    HW172002  12.654   9.904   7.378
56723SOL    HW272003  12.784   9.960   7.325
56724SOL     OW72004   8.218   2.315  10.753
56724SOL    HW172005   8.141   2.289  10.805
56724SOL    HW272006   8.281   2.346  10.818
56725SOL     OW72007   3.652  11.020  13.312
56725SOL    HW172008   3.646  10.926  13.296
56725SOL    HW272009   3.644  11.060  13.226
56726SOL     OW72010   7.255  12.567   8.112
56726SOL    HW172011   7.243  12.473   8.122
56726SOL    HW272012   7.282  12.578   8.021
56727SOL     OW72013  12.527  13.472   8.955
56727SOL    HW172014  12.535  13.546   9.015
56727SOL    HW272015  12.500  13.510   8.872
56728SOL     OW72016   7.208   6.927   5.247
56728SOL    HW172017   7.303   6.927   5.255
56728SOL    HW272018   7.183   7.017   5.264
56729SOL     OW72019   4.493   1.850   1.586
56729SOL    HW172020   4.405   1.813   1.585
56729SOL    HW272021   4.480   1.944   1.581
56730SOL     OW72022   2.076  12.313   5.304
56730SOL    HW172023   2.115  12.390   5.344
56730SOL    HW272024   1.986  12.312   5.335
56731SOL     OW72025  10.408   4.537   2.439
56731SOL    HW172026  10.420   4.549   2.533
56731SOL    HW272027  10.490   4.496   2.410
56732SOL     OW72028  13.209   4.762   1.965
56732SOL    HW172029  13.263   4.761   2.043
56732SOL    HW272030  13.179   4.672   1.955
56733SOL     OW72031  11.700   6.800   5.747
56733SOL    HW172032  11.751   6.832   5.673
56733SOL    HW272033  11.698   6.872   5.809
56734SOL     OW72034   3.636   2.744   1.214
56734SOL    HW172035   3.622   2.675   1.149
56734SOL    HW272036   3.704   2.710   1.272
56735SOL     OW72037  14.859   1.790   2.492
56735SOL    HW172038  14.826   1.880   2.499
56735SOL    HW272039   0.046   1.783   2.561
56736SOL     OW72040  11.135   0.363   6.973
56736SOL    HW172041  11.099   0.275   6.968
56736SOL    HW272042  11.228   0.353   6.954
56737SOL     OW72043   0.180   2.929   5.039
56737SOL    HW172044   0.091   2.914   5.007
56737SOL    HW272045   0.209   3.007   4.993
56738SOL     OW72046  13.994  10.219   3.812
56738SOL    HW172047  14.050  10.239   3.886
56738SOL    HW272048  13.940  10.145   3.842
56739SOL     OW72049   4.054   5.576   8.372
56739SOL    HW172050   4.096   5.490   8.361
56739SOL    HW272051   4.039   5.583   8.466
56740SOL     OW72052   0.601  14.373   0.038
56740SOL    HW172053   0.523  14.342  14.871
56740SOL    HW272054   0.570  14.394   0.126
56741SOL     OW72055  11.505   5.914   6.633
56741SOL    HW172056  11.447   5.919   6.557
56741SOL    HW272057  11.473   5.838   6.682
56742SOL     OW72058  14.680   0.455   3.829
56742SOL    HW172059  14.744   0.469   3.759
56742SOL    HW272060  14.637   0.372   3.806
56743SOL     OW72061   9.378   1.455  11.021
56743SOL    HW172062   9.337   1.530  11.065
56743SOL    HW272063   9.373   1.384  11.085
56744SOL     OW72064   0.143  11.963  10.258
56744SOL    HW172065   0.077  12.032  10.252
56744SOL    HW272066   0.096  11.886  10.288
56745SOL     OW72067   1.132  12.475   1.290
56745SOL    HW172068   1.205  12.418   1.314
56745SOL    HW272069   1.136  12.481   1.195
56746SOL     OW72070  10.242   1.092   2.582
56746SOL    HW172071  10.288   1.045   2.513
56746SOL    HW272072  10.229   1.027   2.651
56747SOL     OW72073   2.041   0.198   9.115
56747SOL    HW172074   2.091   0.147   9.179
56747SOL    HW272075   2.105   0.256   9.075
56748SOL     OW72076  14.267   1.787  12.224
56748SOL    HW172077  14.215   1.780  12.144
56748SOL    HW272078  14.203   1.783  12.294
56749SOL     OW72079  12.174  12.542  10.543
56749SOL    HW172080  12.235  12.612  10.568
56749SOL    HW272081  12.226  12.462  10.548
56750SOL     OW72082  10.047  11.883   3.317
56750SOL    HW172083  10.076  11.899   3.227
56750SOL    HW272084  10.126  11.896   3.370
56751SOL     OW72085  12.784  10.736   3.287
56751SOL    HW172086  12.838  10.719   3.209
56751SOL    HW272087  12.829  10.689   3.358
56752SOL     OW72088   3.692   4.254   2.548
56752SOL    HW172089   3.749   4.211   2.612
56752SOL    HW272090   3.694   4.346   2.574
56753SOL     OW72091   5.881   1.967   0.880
56753SOL    HW172092   5.843   1.935   0.799
56753SOL    HW272093   5.810   1.963   0.943
56754SOL     OW72094  10.732   3.718  13.654
56754SOL    HW172095  10.713   3.651  13.719
56754SOL    HW272096  10.665   3.785  13.668
56755SOL     OW72097  12.382   7.883   1.998
56755SOL    HW172098  12.412   7.867   2.088
56755SOL    HW272099  12.344   7.800   1.970
56756SOL     OW72100   8.607   4.833   7.117
56756SOL    HW172101   8.655   4.778   7.179
56756SOL    HW272102   8.634   4.922   7.138
56757SOL     OW72103   7.919   5.514  14.442
56757SOL    HW172104   7.896   5.603  14.417
56757SOL    HW272105   7.861   5.494  14.516
56758SOL     OW72106   4.882  14.024  10.894
56758SOL    HW172107   4.875  13.930  10.877
56758SOL    HW272108   4.803  14.062  10.855
56759SOL     OW72109   0.595   5.531   7.194
56759SOL    HW172110   0.501   5.521   7.179
56759SOL    HW272111   0.636   5.470   7.132
56760SOL     OW72112   1.639  13.095  13.386
56760SOL    HW172113   1.600  13.138  13.462
56760SOL    HW272114   1.690  13.023  13.422
56761SOL     OW72115   4.149  11.967   2.226
56761SOL    HW172116   4.103  11.904   2.170
56761SOL    HW272117   4.242  11.951   2.208
56762SOL     OW72118   1.718  13.096   9.803
56762SOL    HW172119   1.658  13.025   9.780
56762SOL    HW272120   1.796  13.079   9.751
56763SOL     OW72121   8.361  10.064   6.061
56763SOL    HW172122   8.318   9.979   6.052
56763SOL    HW272123   8.413  10.073   5.981
56764SOL     OW72124  13.174  12.397  11.386
56764SOL    HW172125  13.175  12.460  11.314
56764SOL    HW272126  13.173  12.311  11.343
56765SOL     OW72127   0.808   6.937   7.435
56765SOL    HW172128   0.790   6.887   7.355
56765SOL    HW272129   0.859   6.878   7.489
56766SOL     OW72130   3.654  11.152  13.540
56766SOL    HW172131   3.567  11.135  13.578
56766SOL    HW272132   3.658  11.095  13.464
56767SOL     OW72133   3.419   3.728   0.715
56767SOL    HW172134   3.510   3.748   0.692
56767SOL    HW272135   3.367   3.791   0.664
56768SOL     OW72136   0.343   3.815   6.808
56768SOL    HW172137   0.403   3.754   6.766
56768SOL    HW272138   0.398   3.889   6.833
56769SOL     OW72139   4.967   0.439  10.990
56769SOL    HW172140   5.035   0.392  10.942
56769SOL    HW272141   5.012   0.514  11.028
56770SOL     OW72142   9.279   0.824   9.765
56770SOL    HW172143   9.195   0.858   9.735
56770SOL    HW272144   9.260   0.785   9.851
56771SOL     OW72145   6.989   4.119  13.701
56771SOL    HW172146   7.016   4.159  13.618
56771SOL    HW272147   7.055   4.052  13.717
56772SOL     OW72148  14.873   7.738   6.860
56772SOL    HW172149  14.875   7.686   6.941
56772SOL    HW272150  14.829   7.682   6.797
56773SOL     OW72151   1.118   8.809  14.003
56773SOL    HW172152   1.183   8.838  13.938
56773SOL    HW272153   1.078   8.732  13.963
56774SOL     OW72154   0.903   9.121  11.712
56774SOL    HW172155   0.927   9.171  11.790
56774SOL    HW272156   0.950   9.039  11.720
56775SOL     OW72157  12.799   7.361   8.205
56775SOL    HW172158  12.846   7.279   8.186
56775SOL    HW272159  12.839   7.426   8.147
56776SOL     OW72160   3.458   8.671   4.325
56776SOL    HW172161   3.492   8.605   4.385
56776SOL    HW272162   3.388   8.626   4.276
56777SOL     OW72163   2.689  11.838   5.307
56777SOL    HW172164   2.678  11.821   5.214
56777SOL    HW272165   2.712  11.753   5.345
56778SOL     OW72166   2.874   5.282   8.564
56778SOL    HW172167   2.893   5.374   8.582
56778SOL    HW272168   2.888   5.238   8.648
56779SOL     OW72169   2.837   9.771  10.848
56779SOL    HW172170   2.919   9.810  10.880
56779SOL    HW272171   2.805   9.718  10.921
56780SOL     OW72172   9.786   1.150   6.514
56780SOL    HW172173   9.858   1.206   6.542
56780SOL    HW272174   9.741   1.200   6.446
56781SOL     OW72175   3.675  10.738   1.366
56781SOL    HW172176   3.647  10.681   1.438
56781SOL    HW272177   3.617  10.814   1.372
56782SOL     OW72178  11.735   6.331  14.371
56782SOL    HW172179  11.712   6.403  14.429
56782SOL    HW272180  11.681   6.344  14.293
56783SOL     OW72181  11.980   3.410   7.987
56783SOL    HW172182  11.897   3.423   7.940
56783SOL    HW272183  11.965   3.333   8.042
56784SOL     OW72184   6.508   0.113  11.726
56784SOL    HW172185   6.462   0.080  11.804
56784SOL    HW272186   6.439   0.122  11.660
56785SOL     OW72187  10.326   7.036   0.162
56785SOL    HW172188  10.314   7.129   0.141
56785SOL    HW272189  10.416   7.017   0.135
56786SOL     OW72190  11.688   5.265   5.456
56786SOL    HW172191  11.656   5.354   5.467
56786SOL    HW272192  11.735   5.246   5.538
56787SOL     OW72193   7.713  14.525  11.840
56787SOL    HW172194   7.746  14.612  11.862
56787SOL    HW272195   7.779  14.489  11.780
56788SOL     OW72196  12.929   1.312   9.124
56788SOL    HW172197  13.018   1.344   9.136
56788SOL    HW272198  12.939   1.231   9.073
56789SOL     OW72199   7.474   4.537   5.460
56789SOL    HW172200   7.552   4.486   5.438
56789SOL    HW272201   7.506   4.606   5.517
56790SOL     OW72202   8.690   4.679  11.307
56790SOL    HW172203   8.683   4.713  11.396
56790SOL    HW272204   8.775   4.634  11.304
56791SOL     OW72205  12.531   5.752   5.788
56791SOL    HW172206  12.605   5.725   5.842
56791SOL    HW272207  12.534   5.693   5.712
56792SOL     OW72208  10.477  12.762  13.786
56792SOL    HW172209  10.480  12.668  13.804
56792SOL    HW272210  10.409  12.796  13.845
56793SOL     OW72211   7.445   7.542  12.171
56793SOL    HW172212   7.501   7.471  12.203
56793SOL    HW272213   7.375   7.497  12.123
56794SOL     OW72214  13.294  13.432  11.852
56794SOL    HW172215  13.201  13.419  11.835
56794SOL    HW272216  13.304  13.526  11.865
56795SOL     OW72217   7.968   2.743   1.810
56795SOL    HW172218   7.903   2.700   1.865
56795SOL    HW272219   7.945   2.836   1.815
56796SOL     OW72220   3.506  12.617   5.499
56796SOL    HW172221   3.477  12.526   5.505
56796SOL    HW272222   3.595  12.616   5.534
56797SOL     OW72223  10.871   9.686   2.500
56797SOL    HW172224  10.946   9.727   2.542
56797SOL    HW272225  10.815   9.759   2.474
56798SOL     OW72226   3.817   3.310   5.294
56798SOL    HW172227   3.784   3.280   5.379
56798SOL    HW272228   3.756   3.379   5.269
56799SOL     OW72229  10.827   8.980   4.497
56799SOL    HW172230  10.861   8.891   4.493
56799SOL    HW272231  10.904   9.035   4.512
56800SOL     OW72232   2.633   4.215   7.582
56800SOL    HW172233   2.675   4.137   7.547
56800SOL    HW272234   2.694   4.286   7.562
56801SOL     OW72235  11.415   9.258   6.949
56801SOL    HW172236  11.329   9.288   6.922
56801SOL    HW272237  11.410   9.162   6.943
56802SOL     OW72238   1.413  12.238   6.144
56802SOL    HW172239   1.418  12.313   6.084
56802SOL    HW272240   1.319  12.221   6.152
56803SOL     OW72241   5.939  10.914   2.143
56803SOL    HW172242   6.005  10.844   2.144
56803SOL    HW272243   5.857  10.870   2.126
56804SOL     OW72244   9.639  14.301   4.463
56804SOL    HW172245   9.615  14.210   4.479
56804SOL    HW272246   9.715  14.316   4.520
56805SOL     OW72247   0.862   9.758   2.801
56805SOL    HW172248   0.879   9.771   2.895
56805SOL    HW272249   0.788   9.696   2.799
56806SOL     OW72250   9.901   7.224  13.344
56806SOL    HW172251   9.902   7.222  13.439
56806SOL    HW272252   9.927   7.136  13.317
56807SOL     OW72253  10.294  11.571   1.752
56807SOL    HW172254  10.208  11.610   1.740
56807SOL    HW272255  10.276  11.486   1.794
56808SOL     OW72256   8.776   4.930   4.717
56808SOL    HW172257   8.718   4.854   4.723
56808SOL    HW272258   8.755   4.983   4.794
56809SOL     OW72259   2.933   6.903   8.562
56809SOL    HW172260   2.928   6.853   8.480
56809SOL    HW272261   2.868   6.862   8.619
56810SOL     OW72262   2.561   5.656   5.711
56810SOL    HW172263   2.505   5.582   5.734
56810SOL    HW272264   2.505   5.732   5.719
56811SOL     OW72265  10.162   3.791  13.349
56811SOL    HW172266  10.159   3.726  13.419
56811SOL    HW272267  10.127   3.745  13.272
56812SOL     OW72268   4.264   1.285  10.240
56812SOL    HW172269   4.262   1.228  10.317
56812SOL    HW272270   4.258   1.374  10.277
56813SOL     OW72271   2.876  12.569   8.677
56813SOL    HW172272   2.851  12.652   8.635
56813SOL    HW272273   2.969  12.580   8.697
56814SOL     OW72274   8.344  14.188   3.373
56814SOL    HW172275   8.282  14.119   3.395
56814SOL    HW272276   8.301  14.239   3.305
56815SOL     OW72277   9.318  11.024   5.179
56815SOL    HW172278   9.404  11.054   5.148
56815SOL    HW272279   9.259  11.097   5.158
56816SOL     OW72280  14.259   1.744   5.281
56816SOL    HW172281  14.256   1.663   5.231
56816SOL    HW272282  14.291   1.809   5.218
56817SOL     OW72283  11.269   4.224   4.320
56817SOL    HW172284  11.291   4.271   4.401
56817SOL    HW272285  11.233   4.291   4.262
56818SOL     OW72286   0.341   6.296  10.318
56818SOL    HW172287   0.379   6.341  10.243
56818SOL    HW272288   0.397   6.220  10.332
56819SOL     OW72289   7.880   5.425   5.071
56819SOL    HW172290   7.791   5.462   5.068
56819SOL    HW272291   7.867   5.333   5.093
56820SOL     OW72292   3.437   0.388  12.247
56820SOL    HW172293   3.521   0.368  12.207
56820SOL    HW272294   3.372   0.363  12.181
56821SOL     OW72295  14.349   9.258   7.791
56821SOL    HW172296  14.315   9.283   7.877
56821SOL    HW272297  14.292   9.301   7.729
56822SOL     OW72298   7.016   6.383   1.163
56822SOL    HW172299   6.925   6.360   1.143
56822SOL    HW272300   7.050   6.308   1.212
56823SOL     OW72301  11.061  12.698  10.527
56823SOL    HW172302  11.096  12.628  10.582
56823SOL    HW272303  11.121  12.771  10.540
56824SOL     OW72304   9.001   4.616   7.266
56824SOL    HW172305   8.908   4.630   7.249
56824SOL    HW272306   9.043   4.699   7.243
56825SOL     OW72307  10.263   9.111   1.032
56825SOL    HW172308  10.271   9.199   1.069
56825SOL    HW272309  10.294   9.120   0.942
56826SOL     OW72310  14.605   3.316  10.896
56826SOL    HW172311  14.583   3.224  10.884
56826SOL    HW272312  14.525   3.357  10.928
56827SOL     OW72313  14.021  13.844   8.902
56827SOL    HW172314  14.090  13.791   8.863
56827SOL    HW272315  14.058  13.875   8.984
56828SOL     OW72316  14.351   5.392   9.710
56828SOL    HW172317  14.387   5.337   9.780
56828SOL    HW272318  14.398   5.475   9.718
56829SOL     OW72319   6.078   8.253   7.308
56829SOL    HW172320   6.116   8.201   7.237
56829SOL    HW272321   5.986   8.263   7.283
56830SOL     OW72322   1.591   3.191  12.143
56830SOL    HW172323   1.560   3.162  12.229
56830SOL    HW272324   1.638   3.116  12.107
56831SOL     OW72325  12.840   9.265  12.377
56831SOL    HW172326  12.782   9.209  12.429
56831SOL    HW272327  12.828   9.235  12.287
56832SOL     OW72328   0.578  12.847   5.698
56832SOL    HW172329   0.519  12.844   5.773
56832SOL    HW272330   0.524  12.825   5.623
56833SOL     OW72331   3.827   9.951  11.568
56833SOL    HW172332   3.844  10.040  11.537
56833SOL    HW272333   3.914   9.913  11.580
56834SOL     OW72334   8.812  10.837   9.732
56834SOL    HW172335   8.803  10.791   9.815
56834SOL    HW272336   8.776  10.925   9.750
56835SOL     OW72337  10.851  10.971   2.930
56835SOL    HW172338  10.805  11.052   2.951
56835SOL    HW272339  10.905  10.992   2.854
56836SOL     OW72340   3.903   5.685  11.393
56836SOL    HW172341   3.952   5.642  11.322
56836SOL    HW272342   3.837   5.621  11.419
56837SOL     OW72343   5.324  14.850  12.845
56837SOL    HW172344   5.410  14.855  12.803
56837SOL    HW272345   5.335  14.790  12.918
56838SOL     OW72346   0.681  10.067  10.759
56838SOL    HW172347   0.597  10.081  10.717
56838SOL    HW272348   0.662  10.067  10.853
56839SOL     OW72349   3.444   6.541  12.318
56839SOL    HW172350   3.525   6.490  12.309
56839SOL    HW272351   3.472   6.629  12.341
56840SOL     OW72352  13.346   9.160  13.813
56840SOL    HW172353  13.329   9.241  13.861
56840SOL    HW272354  13.280   9.159  13.744
56841SOL     OW72355   3.052   9.082  11.190
56841SOL    HW172356   3.080   9.009  11.134
56841SOL    HW272357   3.025   9.041  11.272
56842SOL     OW72358   2.234  10.628  11.464
56842SOL    HW172359   2.323  10.610  11.494
56842SOL    HW272360   2.205  10.702  11.517
56843SOL     OW72361   4.965   8.293   8.804
56843SOL    HW172362   4.935   8.202   8.793
56843SOL    HW272363   5.013   8.312   8.724
56844SOL     OW72364   5.296   4.943  13.554
56844SOL    HW172365   5.270   4.864  13.599
56844SOL    HW272366   5.377   4.971  13.598
56845SOL     OW72367   4.156  14.536  14.298
56845SOL    HW172368   4.077  14.589  14.285
56845SOL    HW272369   4.216  14.564  14.230
56846SOL     OW72370   1.393   8.368   4.389
56846SOL    HW172371   1.369   8.455   4.357
56846SOL    HW272372   1.312   8.318   4.384
56847SOL     OW72373   7.013  12.486   6.036
56847SOL    HW172374   6.948  12.422   6.008
56847SOL    HW272375   7.024  12.470   6.130
56848SOL     OW72376   2.101   2.809  11.084
56848SOL    HW172377   2.100   2.716  11.108
56848SOL    HW272378   2.183   2.821  11.037
56849SOL     OW72379  11.388  13.458   8.511
56849SOL    HW172380  11.314  13.398   8.518
56849SOL    HW272381  11.366  13.514   8.436
56850SOL     OW72382  13.539   6.428   3.707
56850SOL    HW172383  13.462   6.372   3.716
56850SOL    HW272384  13.600   6.396   3.774
56851SOL     OW72385   5.026   3.641  11.560
56851SOL    HW172386   5.040   3.681  11.474
56851SOL    HW272387   5.071   3.699  11.621
56852SOL     OW72388   0.125  10.044   0.887
56852SOL    HW172389   0.120  10.078   0.797
56852SOL    HW272390   0.208   9.997   0.891
56853SOL     OW72391   9.513   6.565  13.851
56853SOL    HW172392   9.521   6.645  13.799
56853SOL    HW272393   9.570   6.502  13.806
56854SOL     OW72394   6.403   6.235   2.449
56854SOL    HW172395   6.431   6.161   2.394
56854SOL    HW272396   6.322   6.205   2.489
56855SOL     OW72397   5.413   7.675   7.762
56855SOL    HW172398   5.423   7.753   7.708
56855SOL    HW272399   5.382   7.708   7.847
56856SOL     OW72400   6.944   6.649   2.591
56856SOL    HW172401   6.944   6.703   2.670
56856SOL    HW272402   7.001   6.696   2.531
56857SOL     OW72403   2.974   5.376  12.231
56857SOL    HW172404   2.946   5.440  12.297
56857SOL    HW272405   2.931   5.405  12.150
56858SOL     OW72406   8.500  14.425   9.650
56858SOL    HW172407   8.421  14.411   9.702
56858SOL    HW272408   8.468  14.452   9.564
56859SOL     OW72409  11.160   8.665   0.502
56859SOL    HW172410  11.179   8.735   0.439
56859SOL    HW272411  11.187   8.585   0.458
56860SOL     OW72412   3.171  13.125   0.065
56860SOL    HW172413   3.081  13.094   0.074
56860SOL    HW272414   3.165  13.220   0.077
56861SOL     OW72415  10.449   7.446   2.514
56861SOL    HW172416  10.389   7.513   2.482
56861SOL    HW272417  10.408   7.413   2.594
56862SOL     OW72418   2.210   5.860   5.390
56862SOL    HW172419   2.234   5.843   5.481
56862SOL    HW272420   2.276   5.922   5.359
56863SOL     OW72421   4.813   3.267   4.056
56863SOL    HW172422   4.892   3.230   4.096
56863SOL    HW272423   4.788   3.203   3.989
56864SOL     OW72424   9.288  14.691  10.706
56864SOL    HW172425   9.279  14.785  10.690
56864SOL    HW272426   9.365  14.683  10.762
56865SOL     OW72427  13.308  11.547  11.375
56865SOL    HW172428  13.246  11.573  11.443
56865SOL    HW272429  13.371  11.618  11.372
56866SOL     OW72430   7.577  14.105  12.879
56866SOL    HW172431   7.540  14.138  12.797
56866SOL    HW272432   7.512  14.042  12.911
56867SOL     OW72433   0.835   2.921   2.238
56867SOL    HW172434   0.875   2.986   2.182
56867SOL    HW272435   0.877   2.933   2.323
56868SOL     OW72436   0.211   8.918  14.306
56868SOL    HW172437   0.231   8.984  14.372
56868SOL    HW272438   0.160   8.964  14.240
56869SOL     OW72439   3.802   4.876   8.114
56869SOL    HW172440   3.879   4.827   8.141
56869SOL    HW272441   3.747   4.812   8.070
56870SOL     OW72442  12.895  14.799   9.731
56870SOL    HW172443  12.825  14.752   9.775
56870SOL    HW272444  12.855  14.833   9.651
56871SOL     OW72445  10.395  11.991   3.294
56871SOL    HW172446  10.461  12.035   3.241
56871SOL    HW272447  10.374  11.911   3.246
56872SOL     OW72448   5.825   8.568   8.993
56872SOL    HW172449   5.912   8.555   8.956
56872SOL    HW272450   5.841   8.616   9.075
56873SOL     OW72451  10.740   0.761  11.955
56873SOL    HW172452  10.817   0.767  11.899
56873SOL    HW272453  10.675   0.713  11.904
56874SOL     OW72454   5.452   8.640  10.436
56874SOL    HW172455   5.456   8.563  10.379
56874SOL    HW272456   5.533   8.637  10.486
56875SOL     OW72457   0.992   1.704  10.653
56875SOL    HW172458   0.991   1.692  10.558
56875SOL    HW272459   1.073   1.661  10.681
56876SOL     OW72460   6.993   7.453  10.871
56876SOL    HW172461   6.920   7.391  10.884
56876SOL    HW272462   7.067   7.412  10.915
56877SOL     OW72463   9.010  11.559  10.118
56877SOL    HW172464   8.999  11.641  10.069
56877SOL    HW272465   9.098  11.564  10.155
56878SOL     OW72466   2.614  10.165   2.044
56878SOL    HW172467   2.650  10.231   1.985
56878SOL    HW272468   2.596  10.212   2.125
56879SOL     OW72469  10.508  12.850   7.278
56879SOL    HW172470  10.478  12.934   7.242
56879SOL    HW272471  10.600  12.864   7.300
56880SOL     OW72472   0.074   1.575   8.879
56880SOL    HW172473  14.861   1.591   8.860
56880SOL    HW272474   0.083   1.480   8.880
56881SOL     OW72475   2.148   8.718  13.167
56881SOL    HW172476   2.121   8.639  13.213
56881SOL    HW272477   2.109   8.790  13.217
56882SOL     OW72478   4.490  11.474   1.592
56882SOL    HW172479   4.561  11.530   1.560
56882SOL    HW272480   4.529  11.387   1.599
56883SOL     OW72481  12.101  14.802   6.962
56883SOL    HW172482  12.022  14.814   7.014
56883SOL    HW272483  12.132  14.715   6.985
56884SOL     OW72484  13.989  13.404  10.169
56884SOL    HW172485  14.028  13.490  10.184
56884SOL    HW272486  13.930  13.417  10.094
56885SOL     OW72487  12.040  12.747   2.340
56885SOL    HW172488  12.048  12.820   2.402
56885SOL    HW272489  12.105  12.765   2.273
56886SOL     OW72490   9.123   0.920  13.560
56886SOL    HW172491   9.035   0.941  13.528
56886SOL    HW272492   9.178   0.927  13.482
56887SOL     OW72493   1.919   5.600  12.950
56887SOL    HW172494   1.917   5.518  12.902
56887SOL    HW272495   2.003   5.640  12.925
56888SOL     OW72496   6.570  11.000  12.771
56888SOL    HW172497   6.479  10.977  12.792
56888SOL    HW272498   6.578  10.981  12.677
56889SOL     OW72499   0.966   3.017  14.119
56889SOL    HW172500   1.046   2.997  14.071
56889SOL    HW272501   0.962   3.113  14.118
56890SOL     OW72502   5.825   7.097   5.799
56890SOL    HW172503   5.775   7.142   5.731
56890SOL    HW272504   5.796   7.006   5.794
56891SOL     OW72505   4.857  10.324  13.079
56891SOL    HW172506   4.816  10.239  13.067
56891SOL    HW272507   4.793  10.375  13.128
56892SOL     OW72508   1.879  11.091   1.320
56892SOL    HW172509   1.877  11.151   1.246
56892SOL    HW272510   1.860  11.005   1.283
56893SOL     OW72511   4.899   6.954   6.252
56893SOL    HW172512   4.983   6.999   6.238
56893SOL    HW272513   4.897   6.885   6.186
56894SOL     OW72514   2.414   4.148   2.426
56894SOL    HW172515   2.399   4.063   2.385
56894SOL    HW272516   2.403   4.131   2.520
56895SOL     OW72517   2.705   7.551   5.317
56895SOL    HW172518   2.748   7.634   5.340
56895SOL    HW272519   2.755   7.484   5.363
56896SOL     OW72520  10.261   9.563   1.748
56896SOL    HW172521  10.343   9.539   1.791
56896SOL    HW272522  10.264   9.519   1.663
56897SOL     OW72523   8.937   8.857  14.070
56897SOL    HW172524   8.844   8.880  14.078
56897SOL    HW272525   8.983   8.935  14.100
56898SOL     OW72526   9.421  11.058   1.854
56898SOL    HW172527   9.466  11.061   1.769
56898SOL    HW272528   9.331  11.083   1.834
56899SOL     OW72529   0.061   6.969   9.915
56899SOL    HW172530   0.004   6.915   9.970
56899SOL    HW272531   0.150   6.942   9.938
56900SOL     OW72532   0.670   9.603   0.939
56900SOL    HW172533   0.724   9.526   0.922
56900SOL    HW272534   0.673   9.614   1.034
56901SOL     OW72535   5.199   6.883   1.736
56901SOL    HW172536   5.124   6.922   1.692
56901SOL    HW272537   5.274   6.908   1.682
56902SOL     OW72538   0.951  14.579   7.008
56902SOL    HW172539   0.933  14.569   6.914
56902SOL    HW272540   1.045  14.567   7.016
56903SOL     OW72541   2.198   2.468  13.126
56903SOL    HW172542   2.132   2.398  13.121
56903SOL    HW272543   2.211   2.480  13.220
56904SOL     OW72544   2.047   5.400   1.694
56904SOL    HW172545   2.142   5.394   1.700
56904SOL    HW272546   2.031   5.474   1.636
56905SOL     OW72547  11.739   1.277  11.555
56905SOL    HW172548  11.671   1.245  11.497
56905SOL    HW272549  11.807   1.310  11.497
56906SOL     OW72550   8.357   7.571   2.005
56906SOL    HW172551   8.383   7.663   2.010
56906SOL    HW272552   8.320   7.561   1.917
56907SOL     OW72553   9.926  12.026  13.396
56907SOL    HW172554   9.995  12.087  13.369
56907SOL    HW272555   9.972  11.944  13.413
56908SOL     OW72556   4.099   1.538   5.417
56908SOL    HW172557   4.149   1.472   5.466
56908SOL    HW272558   4.104   1.508   5.326
56909SOL     OW72559  11.409   8.886   0.100
56909SOL    HW172560  11.457   8.968   0.088
56909SOL    HW272561  11.432   8.834   0.024
56910SOL     OW72562   2.286   8.426   8.501
56910SOL    HW172563   2.206   8.473   8.478
56910SOL    HW272564   2.320   8.472   8.578
56911SOL     OW72565   3.174   8.260  12.802
56911SOL    HW172566   3.147   8.349  12.825
56911SOL    HW272567   3.092   8.213  12.787
56912SOL     OW72568  11.131  12.225   1.094
56912SOL    HW172569  11.076  12.234   1.172
56912SOL    HW272570  11.094  12.288   1.031
56913SOL     OW72571   8.381  12.595   3.483
56913SOL    HW172572   8.325  12.572   3.409
56913SOL    HW272573   8.470  12.576   3.452
56914SOL     OW72574   7.364   6.200   4.570
56914SOL    HW172575   7.377   6.233   4.481
56914SOL    HW272576   7.400   6.111   4.567
56915SOL     OW72577   8.970   2.169  13.415
56915SOL    HW172578   8.952   2.229  13.342
56915SOL    HW272579   9.060   2.141  13.401
56916SOL     OW72580   0.560   4.582  12.864
56916SOL    HW172581   0.501   4.514  12.831
56916SOL    HW272582   0.520   4.611  12.946
56917SOL     OW72583  12.303   7.227   7.045
56917SOL    HW172584  12.238   7.276   6.993
56917SOL    HW272585  12.307   7.141   7.003
56918SOL     OW72586   0.366  14.818   0.327
56918SOL    HW172587   0.409  14.793   0.245
56918SOL    HW272588   0.362   0.035   0.324
56919SOL     OW72589   8.722  14.713   4.890
56919SOL    HW172590   8.719  14.650   4.818
56919SOL    HW272591   8.680  14.792   4.855
56920SOL     OW72592   4.522  11.583   0.879
56920SOL    HW172593   4.493  11.629   0.800
56920SOL    HW272594   4.542  11.654   0.941
56921SOL     OW72595  14.750   8.753   4.024
56921SOL    HW172596  14.831   8.780   4.067
56921SOL    HW272597  14.713   8.834   3.990
56922SOL     OW72598  13.236  11.612   0.325
56922SOL    HW172599  13.223  11.629   0.231
56922SOL    HW272600  13.331  11.609   0.336
56923SOL     OW72601  11.491  14.608   8.894
56923SOL    HW172602  11.433  14.550   8.944
56923SOL    HW272603  11.477  14.583   8.803
56924SOL     OW72604   6.088   9.204  11.261
56924SOL    HW172605   6.175   9.239  11.244
56924SOL    HW272606   6.102   9.112  11.281
56925SOL     OW72607   4.368  12.952   7.494
56925SOL    HW172608   4.312  13.030   7.494
56925SOL    HW272609   4.308  12.880   7.514
56926SOL     OW72610   8.361   9.877   7.638
56926SOL    HW172611   8.449   9.856   7.605
56926SOL    HW272612   8.319   9.924   7.566
56927SOL     OW72613  11.183   1.444   5.466
56927SOL    HW172614  11.184   1.519   5.407
56927SOL    HW272615  11.207   1.481   5.551
56928SOL     OW72616  12.541   1.244  13.936
56928SOL    HW172617  12.613   1.230  13.873
56928SOL    HW272618  12.514   1.335  13.920
56929SOL     OW72619   1.353   7.513   8.938
56929SOL    HW172620   1.313   7.554   8.861
56929SOL    HW272621   1.288   7.448   8.966
56930SOL     OW72622  10.467  10.421  11.636
56930SOL    HW172623  10.520  10.470  11.698
56930SOL    HW272624  10.527  10.360  11.595
56931SOL     OW72625   9.271   5.612   3.014
56931SOL    HW172626   9.322   5.662   3.078
56931SOL    HW272627   9.180   5.620   3.044
56932SOL     OW72628  14.580   4.055   6.718
56932SOL    HW172629  14.492   4.018   6.712
56932SOL    HW272630  14.578   4.109   6.797
56933SOL     OW72631   3.185   6.175  12.117
56933SOL    HW172632   3.244   6.100  12.116
56933SOL    HW272633   3.243   6.251  12.107
56934SOL     OW72634   9.987   6.516   0.743
56934SOL    HW172635  10.005   6.606   0.769
56934SOL    HW272636  10.072   6.482   0.714
56935SOL     OW72637   5.023   2.193  10.810
56935SOL    HW172638   5.066   2.237  10.883
56935SOL    HW272639   5.095   2.158  10.757
56936SOL     OW72640   4.093   5.653   7.194
56936SOL    HW172641   4.157   5.614   7.134
56936SOL    HW272642   4.116   5.617   7.280
56937SOL     OW72643   3.518  10.252   7.104
56937SOL    HW172644   3.577  10.312   7.057
56937SOL    HW272645   3.441  10.245   7.048
56938SOL     OW72646  14.251   2.021   3.143
56938SOL    HW172647  14.294   1.958   3.201
56938SOL    HW272648  14.198   2.075   3.202
56939SOL     OW72649   1.701   7.656   3.386
56939SOL    HW172650   1.796   7.665   3.385
56939SOL    HW272651   1.677   7.659   3.479
56940SOL     OW72652  14.762   1.932  13.658
56940SOL    HW172653  14.800   1.949  13.744
56940SOL    HW272654  14.770   2.016  13.611
56941SOL     OW72655   7.224   9.936   2.520
56941SOL    HW172656   7.213   9.870   2.452
56941SOL    HW272657   7.246   9.887   2.599
56942SOL     OW72658   2.886   9.054   0.616
56942SOL    HW172659   2.853   9.097   0.695
56942SOL    HW272660   2.848   9.104   0.543
56943SOL     OW72661   9.129  10.714   2.845
56943SOL    HW172662   9.165  10.701   2.757
56943SOL    HW272663   9.206  10.713   2.902
56944SOL     OW72664  13.781  10.565   2.315
56944SOL    HW172665  13.720  10.494   2.295
56944SOL    HW272666  13.755  10.636   2.256
56945SOL     OW72667   7.526   3.114   7.081
56945SOL    HW172668   7.535   3.019   7.070
56945SOL    HW272669   7.501   3.125   7.173
56946SOL     OW72670  14.663   1.745  11.102
56946SOL    HW172671  14.723   1.805  11.146
56946SOL    HW272672  14.621   1.798  11.034
56947SOL     OW72673  10.248  12.136  13.362
56947SOL    HW172674  10.286  12.113  13.447
56947SOL    HW272675  10.277  12.226  13.347
56948SOL     OW72676  12.261   7.172   1.028
56948SOL    HW172677  12.202   7.236   1.068
56948SOL    HW272678  12.304   7.221   0.958
56949SOL     OW72679   2.697   6.545   8.491
56949SOL    HW172680   2.734   6.615   8.437
56949SOL    HW272681   2.733   6.562   8.579
56950SOL     OW72682   9.728   0.861   8.788
56950SOL    HW172683   9.772   0.928   8.841
56950SOL    HW272684   9.656   0.908   8.745
56951SOL     OW72685  12.896   0.921   7.592
56951SOL    HW172686  12.840   0.878   7.527
56951SOL    HW272687  12.916   1.006   7.554
56952SOL     OW72688   5.166  12.560   9.248
56952SOL    HW172689   5.229  12.493   9.274
56952SOL    HW272690   5.151  12.544   9.155
56953SOL     OW72691   2.867   0.705   9.729
56953SOL    HW172692   2.829   0.753   9.656
56953SOL    HW272693   2.816   0.625   9.736
56954SOL     OW72694  13.334   3.052   1.141
56954SOL    HW172695  13.247   3.087   1.120
56954SOL    HW272696  13.389   3.081   1.067
56955SOL     OW72697  14.028   3.246   0.268
56955SOL    HW172698  14.092   3.317   0.278
56955SOL    HW272699  14.078   3.174   0.229
56956SOL     OW72700   1.379  10.932  11.826
56956SOL    HW172701   1.456  10.889  11.862
56956SOL    HW272702   1.330  10.862  11.783
56957SOL     OW72703   9.125  11.341   2.809
56957SOL    HW172704   9.178  11.320   2.886
56957SOL    HW272705   9.080  11.259   2.789
56958SOL     OW72706  13.696   3.304   1.509
56958SOL    HW172707  13.756   3.263   1.447
56958SOL    HW272708  13.740   3.295   1.594
56959SOL     OW72709  12.185   8.389   3.265
56959SOL    HW172710  12.179   8.402   3.360
56959SOL    HW272711  12.270   8.426   3.242
56960SOL     OW72712   4.250   4.240   2.234
56960SOL    HW172713   4.206   4.164   2.272
56960SOL    HW272714   4.232   4.235   2.141
56961SOL     OW72715  11.912  12.150   2.169
56961SOL    HW172716  11.863  12.075   2.201
56961SOL    HW272717  12.001  12.117   2.158
56962SOL     OW72718   2.691  12.177   9.739
56962SOL    HW172719   2.768  12.174   9.796
56962SOL    HW272720   2.709  12.249   9.678
56963SOL     OW72721  12.847   7.966   8.080
56963SOL    HW172722  12.906   7.983   8.006
56963SOL    HW272723  12.886   8.014   8.153
56964SOL     OW72724   2.592  12.269   0.169
56964SOL    HW172725   2.678  12.311   0.173
56964SOL    HW272726   2.548  12.313   0.095
56965SOL     OW72727  11.990   0.037   5.705
56965SOL    HW172728  12.015   0.039   5.612
56965SOL    HW272729  12.073   0.048   5.752
56966SOL     OW72730   5.670  10.262   1.917
56966SOL    HW172731   5.703  10.350   1.899
56966SOL    HW272732   5.725  10.205   1.862
56967SOL     OW72733   5.914   8.752   7.676
56967SOL    HW172734   5.968   8.783   7.603
56967SOL    HW272735   5.919   8.823   7.740
56968SOL     OW72736   1.267   7.878   7.681
56968SOL    HW172737   1.213   7.868   7.602
56968SOL    HW272738   1.205   7.877   7.753
56969SOL     OW72739   9.276   9.782   9.286
56969SOL    HW172740   9.343   9.828   9.233
56969SOL    HW272741   9.313   9.695   9.299
56970SOL     OW72742  12.651   5.189   7.385
56970SOL    HW172743  12.612   5.185   7.298
56970SOL    HW272744  12.612   5.267   7.426
56971SOL     OW72745   0.714  13.381  11.866
56971SOL    HW172746   0.703  13.288  11.842
56971SOL    HW272747   0.629  13.421  11.846
56972SOL     OW72748  11.311  11.252   0.336
56972SOL    HW172749  11.321  11.347   0.330
56972SOL    HW272750  11.352  11.219   0.256
56973SOL     OW72751   3.064  11.829  14.405
56973SOL    HW172752   3.005  11.819  14.480
56973SOL    HW272753   3.149  11.802  14.438
56974SOL     OW72754  14.601   3.331   7.673
56974SOL    HW172755  14.552   3.338   7.755
56974SOL    HW272756  14.655   3.253   7.684
56975SOL     OW72757  12.435   7.883  10.147
56975SOL    HW172758  12.382   7.961  10.157
56975SOL    HW272759  12.391   7.831  10.080
56976SOL     OW72760  14.306  10.705   9.125
56976SOL    HW172761  14.232  10.732   9.180
56976SOL    HW272762  14.355  10.786   9.111
56977SOL     OW72763   1.300   6.308   4.134
56977SOL    HW172764   1.319   6.389   4.181
56977SOL    HW272765   1.243   6.258   4.193
56978SOL     OW72766  12.266   4.821   1.408
56978SOL    HW172767  12.337   4.767   1.374
56978SOL    HW272768  12.297   4.850   1.494
56979SOL     OW72769  11.989  13.802   0.139
56979SOL    HW172770  11.969  13.895   0.138
56979SOL    HW272771  12.022  13.783   0.051
56980SOL     OW72772  11.166  11.977   4.339
56980SOL    HW172773  11.199  12.054   4.386
56980SOL    HW272774  11.203  11.902   4.386
56981SOL     OW72775   4.046  12.511   0.350
56981SOL    HW172776   4.124  12.543   0.305
56981SOL    HW272777   4.049  12.553   0.436
56982SOL     OW72778   0.872   9.124   4.655
56982SOL    HW172779   0.836   9.207   4.687
56982SOL    HW272780   0.885   9.071   4.733
56983SOL     OW72781   3.031   9.531   9.577
56983SOL    HW172782   3.087   9.582   9.635
56983SOL    HW272783   2.955   9.587   9.561
56984SOL     OW72784   2.652   6.701  10.886
56984SOL    HW172785   2.571   6.691  10.835
56984SOL    HW272786   2.722   6.682  10.824
56985SOL     OW72787   5.278  11.752   2.693
56985SOL    HW172788   5.334  11.805   2.635
56985SOL    HW272789   5.258  11.810   2.767
56986SOL     OW72790  13.672   8.147   6.779
56986SOL    HW172791  13.752   8.155   6.831
56986SOL    HW272792  13.696   8.087   6.708
56987SOL     OW72793  13.707   3.641  12.931
56987SOL    HW172794  13.796   3.607  12.916
56987SOL    HW272795  13.657   3.613  12.855
56988SOL     OW72796   8.207   1.829   2.678
56988SOL    HW172797   8.210   1.828   2.582
56988SOL    HW272798   8.230   1.919   2.702
56989SOL     OW72799   2.645  11.767   6.550
56989SOL    HW172800   2.594  11.792   6.627
56989SOL    HW272801   2.590  11.792   6.476
56990SOL     OW72802   8.483  14.381  12.238
56990SOL    HW172803   8.462  14.292  12.210
56990SOL    HW272804   8.410  14.406  12.295
56991SOL     OW72805   9.958   5.980   1.972
56991SOL    HW172806   9.888   5.915   1.973
56991SOL    HW272807   9.959   6.016   2.061
56992SOL     OW72808   4.906  12.113   4.903
56992SOL    HW172809   4.943  12.025   4.919
56992SOL    HW272810   4.854  12.103   4.824
56993SOL     OW72811   4.095   7.890  13.016
56993SOL    HW172812   4.090   7.795  13.030
56993SOL    HW272813   4.005   7.917  13.001
56994SOL     OW72814   9.897  13.345   3.792
56994SOL    HW172815   9.822  13.402   3.776
56994SOL    HW272816   9.933  13.375   3.876
56995SOL     OW72817   0.510   2.324  11.398
56995SOL    HW172818   0.556   2.277  11.468
56995SOL    HW272819   0.576   2.382  11.361
56996SOL     OW72820   1.679   6.386  14.764
56996SOL    HW172821   1.743   6.396  14.693
56996SOL    HW272822   1.596   6.370  14.720
56997SOL     OW72823   2.879   1.423   7.996
56997SOL    HW172824   2.934   1.437   8.073
56997SOL    HW272825   2.856   1.331   7.999
56998SOL     OW72826  11.834   6.009   5.026
56998SOL    HW172827  11.746   5.974   5.015
56998SOL    HW272828  11.855   5.991   5.118
56999SOL     OW72829   0.795   0.231   3.121
56999SOL    HW172830   0.736   0.249   3.049
56999SOL    HW272831   0.775   0.299   3.186
57000SOL     OW72832  13.812   5.238  14.651
57000SOL    HW172833  13.785   5.192  14.571
57000SOL    HW272834  13.735   5.238  14.706
57001SOL     OW72835  12.384  14.746   1.300
57001SOL    HW172836  12.368  14.657   1.335
57001SOL    HW272837  12.445  14.733   1.228
57002SOL     OW72838  14.838   2.168   8.749
57002SOL    HW172839   0.035   2.209   8.791
57002SOL    HW272840  14.764   2.194   8.803
57003SOL     OW72841   6.262   0.860   7.728
57003SOL    HW172842   6.236   0.952   7.734
57003SOL    HW272843   6.182   0.813   7.706
57004SOL     OW72844  14.537   6.293   9.503
57004SOL    HW172845  14.592   6.223   9.540
57004SOL    HW272846  14.482   6.248   9.439
57005SOL     OW72847   6.841   8.486  13.064
57005SOL    HW172848   6.803   8.555  13.010
57005SOL    HW272849   6.769   8.423  13.076
57006SOL     OW72850  11.467  12.778  14.745
57006SOL    HW172851  11.511  12.741  14.821
57006SOL    HW272852  11.465  12.872  14.762
57007SOL     OW72853  14.487  12.983   9.372
57007SOL    HW172854  14.578  12.959   9.357
57007SOL    HW272855  14.438  12.902   9.354
57008SOL     OW72856   6.351   9.580  10.111
57008SOL    HW172857   6.291   9.547  10.043
57008SOL    HW272858   6.426   9.521  10.107
57009SOL     OW72859  14.273   9.716  14.008
57009SOL    HW172860  14.356   9.671  14.023
57009SOL    HW272861  14.290   9.807  14.029
57010SOL     OW72862   6.735   1.052  13.386
57010SOL    HW172863   6.761   1.143  13.397
57010SOL    HW272864   6.657   1.055  13.330
57011SOL     OW72865   1.742  13.735   9.326
57011SOL    HW172866   1.681  13.681   9.375
57011SOL    HW272867   1.827  13.719   9.367
57012SOL     OW72868   9.275   1.474   7.881
57012SOL    HW172869   9.294   1.524   7.961
57012SOL    HW272870   9.189   1.435   7.898
57013SOL     OW72871  13.097  10.671   1.208
57013SOL    HW172872  13.139  10.693   1.291
57013SOL    HW272873  13.009  10.707   1.215
57014SOL     OW72874   6.683   8.898   3.633
57014SOL    HW172875   6.641   8.984   3.634
57014SOL    HW272876   6.712   8.884   3.723
57015SOL     OW72877  13.842  13.464   9.938
57015SOL    HW172878  13.812  13.377   9.911
57015SOL    HW272879  13.762  13.516   9.945
57016SOL     OW72880   2.706   9.532   7.032
57016SOL    HW172881   2.725   9.613   7.079
57016SOL    HW272882   2.689   9.559   6.942
57017SOL     OW72883   5.036   8.013   7.889
57017SOL    HW172884   5.121   7.991   7.928
57017SOL    HW272885   5.027   7.954   7.815
57018SOL     OW72886  11.674  13.061  13.911
57018SOL    HW172887  11.743  13.017  13.861
57018SOL    HW272888  11.677  13.019  13.997
57019SOL     OW72889   2.003   4.835  14.870
57019SOL    HW172890   2.044   4.826  14.784
57019SOL    HW272891   2.076   4.831   0.053
57020SOL     OW72892   1.574   0.039   5.339
57020SOL    HW172893   1.622   0.038   5.256
57020SOL    HW272894   1.593  14.833   5.379
57021SOL     OW72895  12.551   4.096   2.008
57021SOL    HW172896  12.539   4.042   2.086
57021SOL    HW272897  12.490   4.169   2.020
57022SOL     OW72898   8.502   1.813  12.528
57022SOL    HW172899   8.480   1.765  12.448
57022SOL    HW272900   8.438   1.884  12.532
57023SOL     OW72901   1.165  13.241   1.216
57023SOL    HW172902   1.244  13.281   1.254
57023SOL    HW272903   1.175  13.253   1.121
57024SOL     OW72904  11.141  13.986   6.377
57024SOL    HW172905  11.204  14.025   6.438
57024SOL    HW272906  11.056  13.996   6.421
57025SOL     OW72907   3.289  11.240   5.671
57025SOL    HW172908   3.332  11.166   5.627
57025SOL    HW272909   3.240  11.284   5.602
57026SOL     OW72910  11.059   2.154  11.663
57026SOL    HW172911  11.090   2.245  11.659
57026SOL    HW272912  11.061   2.124  11.573
57027SOL     OW72913   6.075   2.311   2.573
57027SOL    HW172914   6.131   2.385   2.595
57027SOL    HW272915   6.127   2.234   2.598
57028SOL     OW72916  13.537   0.291  10.751
57028SOL    HW172917  13.531   0.353  10.678
57028SOL    HW272918  13.464   0.313  10.808
57029SOL     OW72919   3.398   3.267   6.287
57029SOL    HW172920   3.323   3.327   6.291
57029SOL    HW272921   3.359   3.181   6.273
57030SOL     OW72922   7.784   0.245   4.424
57030SOL    HW172923   7.871   0.238   4.462
57030SOL    HW272924   7.725   0.225   4.497
57031SOL     OW72925  12.347   9.058   8.030
57031SOL    HW172926  12.392   9.060   7.946
57031SOL    HW272927  12.405   9.105   8.090
57032SOL     OW72928   0.629   0.663  11.914
57032SOL    HW172929   0.706   0.610  11.892
57032SOL    HW272930   0.611   0.713  11.834
57033SOL     OW72931   4.542   7.749  13.921
57033SOL    HW172932   4.592   7.673  13.948
57033SOL    HW272933   4.469   7.753  13.982
57034SOL     OW72934  10.935  12.619   0.053
57034SOL    HW172935  10.863  12.561   0.075
57034SOL    HW272936  10.953  12.667   0.134
57035SOL     OW72937   4.519   9.310  12.937
57035SOL    HW172938   4.438   9.340  12.978
57035SOL    HW272939   4.585   9.316  13.006
57036SOL     OW72940  12.760   0.884   2.853
57036SOL    HW172941  12.843   0.912   2.892
57036SOL    HW272942  12.779   0.874   2.760
57037SOL     OW72943  12.808   0.181  14.286
57037SOL    HW172944  12.793   0.228  14.368
57037SOL    HW272945  12.768   0.095  14.300
57038SOL     OW72946  13.085   0.427  11.375
57038SOL    HW172947  13.179   0.424  11.389
57038SOL    HW272948  13.067   0.515  11.344
57039SOL     OW72949   3.522   7.061  12.332
57039SOL    HW172950   3.508   7.068  12.238
57039SOL    HW272951   3.612   7.092  12.346
57040SOL     OW72952   1.534   9.178   1.440
57040SOL    HW172953   1.593   9.235   1.490
57040SOL    HW272954   1.590   9.108   1.407
57041SOL     OW72955  11.932  13.762   3.076
57041SOL    HW172956  11.977  13.681   3.099
57041SOL    HW272957  11.902  13.798   3.159
57042SOL     OW72958   1.217   3.317  14.458
57042SOL    HW172959   1.203   3.398  14.507
57042SOL    HW272960   1.129   3.284  14.441
57043SOL     OW72961   2.487   5.434  12.767
57043SOL    HW172962   2.444   5.453  12.684
57043SOL    HW272963   2.556   5.371  12.745
57044SOL     OW72964   8.863  13.354   4.640
57044SOL    HW172965   8.782  13.344   4.591
57044SOL    HW272966   8.896  13.264   4.650
57045SOL     OW72967   2.916   7.858   4.742
57045SOL    HW172968   2.870   7.893   4.665
57045SOL    HW272969   2.848   7.851   4.809
57046SOL     OW72970  12.704   5.185  12.761
57046SOL    HW172971  12.644   5.187  12.686
57046SOL    HW272972  12.652   5.145  12.831
57047SOL     OW72973   1.726   1.096   3.742
57047SOL    HW172974   1.637   1.063   3.741
57047SOL    HW272975   1.731   1.152   3.820
57048SOL     OW72976   3.698   5.625   6.051
57048SOL    HW172977   3.706   5.715   6.082
57048SOL    HW272978   3.610   5.620   6.015
57049SOL     OW72979   5.680  13.992  11.247
57049SOL    HW172980   5.770  13.977  11.220
57049SOL    HW272981   5.635  13.911  11.223
57050SOL     OW72982   6.423   9.716   0.736
57050SOL    HW172983   6.378   9.709   0.651
57050SOL    HW272984   6.513   9.686   0.718
57051SOL     OW72985   7.511   8.410  13.936
57051SOL    HW172986   7.431   8.362  13.955
57051SOL    HW272987   7.548   8.430  14.023
57052SOL     OW72988   2.663   3.247   1.892
57052SOL    HW172989   2.670   3.313   1.823
57052SOL    HW272990   2.571   3.249   1.918
57053SOL     OW72991   1.103  14.816   6.203
57053SOL    HW172992   1.158  14.868   6.261
57053SOL    HW272993   1.159  14.742   6.177
57054SOL     OW72994   2.368   8.998  10.094
57054SOL    HW172995   2.337   8.997  10.184
57054SOL    HW272996   2.373   8.905  10.070
57055SOL     OW72997   6.051   6.423  11.664
57055SOL    HW172998   6.067   6.448  11.573
57055SOL    HW272999   6.108   6.348  11.678
57056SOL     OW73000   6.982   8.950   0.580
57056SOL    HW173001   6.996   8.863   0.618
57056SOL    HW273002   7.054   9.002   0.615
57057SOL     OW73003   6.854   1.985   9.393
57057SOL    HW173004   6.932   2.033   9.363
57057SOL    HW273005   6.880   1.893   9.389
57058SOL     OW73006   7.828   9.186   1.403
57058SOL    HW173007   7.744   9.203   1.359
57058SOL    HW273008   7.864   9.273   1.419
57059SOL     OW73009  10.705   5.142   1.682
57059SOL    HW173010  10.673   5.225   1.648
57059SOL    HW273011  10.789   5.163   1.723
57060SOL     OW73012   0.800  11.616   8.732
57060SOL    HW173013   0.792  11.710   8.721
57060SOL    HW273014   0.804  11.582   8.643
57061SOL     OW73015   3.901  14.129  11.791
57061SOL    HW173016   3.946  14.211  11.808
57061SOL    HW273017   3.824  14.155  11.740
57062SOL     OW73018   6.285   5.262  13.424
57062SOL    HW173019   6.309   5.170  13.424
57062SOL    HW273020   6.360   5.307  13.464
57063SOL     OW73021   4.395   7.580  13.031
57063SOL    HW173022   4.400   7.662  12.983
57063SOL    HW273023   4.310   7.543  13.006
57064SOL     OW73024  12.617   8.240   3.581
57064SOL    HW173025  12.584   8.205   3.498
57064SOL    HW273026  12.695   8.289   3.558
57065SOL     OW73027  12.063   5.381   4.035
57065SOL    HW173028  12.084   5.412   3.946
57065SOL    HW273029  12.123   5.308   4.050
57066SOL     OW73030  12.310  10.428   4.728
57066SOL    HW173031  12.233  10.377   4.704
57066SOL    HW273032  12.278  10.490   4.794
57067SOL     OW73033   4.675  14.816   3.242
57067SOL    HW173034   4.758  14.806   3.288
57067SOL    HW273035   4.639   0.020   3.275
57068SOL     OW73036   6.163   8.724   3.630
57068SOL    HW173037   6.180   8.633   3.651
57068SOL    HW273038   6.245   8.757   3.595
57069SOL     OW73039   7.570   4.475   4.026
57069SOL    HW173040   7.526   4.482   4.111
57069SOL    HW273041   7.514   4.418   3.974
57070SOL     OW73042   4.810   1.745   2.368
57070SOL    HW173043   4.902   1.746   2.340
57070SOL    HW273044   4.791   1.653   2.384
57071SOL     OW73045   4.736   5.810   5.284
57071SOL    HW173046   4.784   5.876   5.335
57071SOL    HW273047   4.692   5.859   5.215
57072SOL     OW73048   2.218  13.560   0.327
57072SOL    HW173049   2.274  13.496   0.285
57072SOL    HW273050   2.279  13.623   0.366
57073SOL     OW73051  13.903  12.087  11.447
57073SOL    HW173052  13.928  12.151  11.514
57073SOL    HW273053  13.985  12.069  11.400
57074SOL     OW73054   5.771   6.702  13.998
57074SOL    HW173055   5.757   6.739  14.085
57074SOL    HW273056   5.863   6.717  13.979
57075SOL     OW73057   7.931   9.793  11.043
57075SOL    HW173058   7.866   9.791  10.972
57075SOL    HW273059   7.967   9.881  11.040
57076SOL     OW73060  13.370   6.272   2.083
57076SOL    HW173061  13.403   6.360   2.100
57076SOL    HW273062  13.398   6.253   1.994
57077SOL     OW73063   2.386   3.489   0.617
57077SOL    HW173064   2.297   3.527   0.618
57077SOL    HW273065   2.436   3.547   0.674
57078SOL     OW73066  14.532  10.034  11.936
57078SOL    HW173067  14.493   9.991  11.860
57078SOL    HW273068  14.612   9.984  11.953
57079SOL     OW73069   5.155   8.598   5.274
57079SOL    HW173070   5.136   8.623   5.364
57079SOL    HW273071   5.144   8.503   5.272
57080SOL     OW73072   3.193   0.870   7.379
57080SOL    HW173073   3.255   0.922   7.431
57080SOL    HW273074   3.193   0.784   7.420
57081SOL     OW73075   6.652   6.015  10.505
57081SOL    HW173076   6.734   6.034  10.461
57081SOL    HW273077   6.601   6.096  10.498
57082SOL     OW73078  12.951   5.999   5.132
57082SOL    HW173079  12.876   6.056   5.111
57082SOL    HW273080  12.985   5.972   5.046
57083SOL     OW73081   7.053  12.828  12.687
57083SOL    HW173082   7.132  12.876  12.662
57083SOL    HW273083   6.991  12.846  12.616
57084SOL     OW73084  10.030   6.597  10.142
57084SOL    HW173085  10.053   6.508  10.116
57084SOL    HW273086  10.030   6.647  10.060
57085SOL     OW73087   5.969  11.250  14.046
57085SOL    HW173088   5.945  11.265  13.955
57085SOL    HW273089   6.035  11.181  14.042
57086SOL     OW73090  10.494   7.162   1.098
57086SOL    HW173091  10.488   7.193   1.188
57086SOL    HW273092  10.567   7.211   1.061
57087SOL     OW73093   9.400   5.396   4.359
57087SOL    HW173094   9.355   5.353   4.286
57087SOL    HW273095   9.351   5.369   4.436
57088SOL     OW73096  11.022  11.118   6.235
57088SOL    HW173097  10.969  11.065   6.175
57088SOL    HW273098  11.076  11.054   6.280
57089SOL     OW73099   9.069   5.616   0.826
57089SOL    HW173100   9.012   5.683   0.865
57089SOL    HW273101   9.086   5.555   0.898
57090SOL     OW73102   2.842   5.539   2.977
57090SOL    HW173103   2.850   5.591   3.057
57090SOL    HW273104   2.767   5.482   2.992
57091SOL     OW73105   9.145  11.976   5.489
57091SOL    HW173106   9.206  11.906   5.511
57091SOL    HW273107   9.061  11.947   5.523
57092SOL     OW73108   6.125   6.968  13.538
57092SOL    HW173109   6.045   7.006  13.501
57092SOL    HW273110   6.154   6.904  13.473
57093SOL     OW73111  10.767   1.372   7.037
57093SOL    HW173112  10.684   1.369   7.085
57093SOL    HW273113  10.825   1.423   7.093
57094SOL     OW73114   6.479  14.575   2.349
57094SOL    HW173115   6.508  14.570   2.440
57094SOL    HW273116   6.552  14.539   2.299
57095SOL     OW73117  13.424   2.549  13.431
57095SOL    HW173118  13.515   2.527  13.414
57095SOL    HW273119  13.402   2.503  13.512
57096SOL     OW73120   1.809  13.357  10.015
57096SOL    HW173121   1.782  13.434  10.064
57096SOL    HW273122   1.748  13.352   9.941
57097SOL     OW73123   3.961  13.217  12.765
57097SOL    HW173124   3.934  13.143  12.711
57097SOL    HW273125   3.921  13.294  12.723
57098SOL     OW73126   2.733  14.175   6.268
57098SOL    HW173127   2.675  14.145   6.338
57098SOL    HW273128   2.815  14.198   6.312
57099SOL     OW73129   8.677  14.428   4.697
57099SOL    HW173130   8.645  14.364   4.634
57099SOL    HW273131   8.615  14.424   4.769
57100SOL     OW73132  10.135   8.986   1.761
57100SOL    HW173133  10.188   9.051   1.807
57100SOL    HW273134  10.153   9.002   1.668
57101SOL     OW73135   7.276  12.809   1.313
57101SOL    HW173136   7.246  12.824   1.223
57101SOL    HW273137   7.196  12.806   1.365
57102SOL     OW73138   7.478  11.720  11.844
57102SOL    HW173139   7.478  11.746  11.936
57102SOL    HW273140   7.386  11.707  11.823
57103SOL     OW73141   9.483   8.553  12.218
57103SOL    HW173142   9.412   8.489  12.222
57103SOL    HW273143   9.459   8.611  12.146
57104SOL     OW73144  10.385   7.654  14.014
57104SOL    HW173145  10.333   7.625  13.939
57104SOL    HW273146  10.393   7.749  14.001
57105SOL     OW73147   8.843   5.382   0.415
57105SOL    HW173148   8.884   5.310   0.465
57105SOL    HW273149   8.795   5.432   0.481
57106SOL     OW73150   2.363  10.518   8.658
57106SOL    HW173151   2.390  10.458   8.727
57106SOL    HW273152   2.442  10.569   8.639
57107SOL     OW73153  14.335   1.330   2.143
57107SOL    HW173154  14.392   1.264   2.103
57107SOL    HW273155  14.308   1.291   2.226
57108SOL     OW73156   8.331  12.305  12.552
57108SOL    HW173157   8.299  12.395  12.545
57108SOL    HW273158   8.295  12.273  12.635
57109SOL     OW73159   6.204  13.488   1.357
57109SOL    HW173160   6.295  13.470   1.336
57109SOL    HW273161   6.178  13.556   1.295
57110SOL     OW73162   4.692   0.482  11.680
57110SOL    HW173163   4.664   0.395  11.651
57110SOL    HW273164   4.629   0.542  11.641
57111SOL     OW73165   6.979  12.346   5.532
57111SOL    HW173166   6.885  12.331   5.524
57111SOL    HW273167   6.987  12.432   5.572
57112SOL     OW73168   6.629   1.777  12.577
57112SOL    HW173169   6.598   1.844  12.516
57112SOL    HW273170   6.710   1.812  12.613
57113SOL     OW73171  14.351   8.419  13.236
57113SOL    HW173172  14.310   8.332  13.240
57113SOL    HW273173  14.285   8.479  13.269
57114SOL     OW73174  14.378   2.580   0.940
57114SOL    HW173175  14.435   2.577   0.864
57114SOL    HW273176  14.436   2.562   1.014
57115SOL     OW73177  11.229   8.930   5.691
57115SOL    HW173178  11.144   8.935   5.735
57115SOL    HW273179  11.238   8.838   5.666
57116SOL     OW73180  10.885  14.162   8.290
57116SOL    HW173181  10.850  14.184   8.204
57116SOL    HW273182  10.838  14.083   8.315
57117SOL     OW73183   7.879   5.773   5.580
57117SOL    HW173184   7.907   5.864   5.590
57117SOL    HW273185   7.889   5.756   5.486
57118SOL     OW73186   5.747   5.183  13.037
57118SOL    HW173187   5.760   5.098  12.996
57118SOL    HW273188   5.722   5.241  12.966
57119SOL     OW73189  10.666   2.439   9.314
57119SOL    HW173190  10.726   2.509   9.290
57119SOL    HW273191  10.722   2.362   9.324
57120SOL     OW73192   8.256   7.473   9.878
57120SOL    HW173193   8.285   7.386   9.852
57120SOL    HW273194   8.330   7.530   9.858
57121SOL     OW73195  14.172   9.877   9.453
57121SOL    HW173196  14.121   9.820   9.511
57121SOL    HW273197  14.121   9.958   9.448
57122SOL     OW73198   7.813  14.630   2.157
57122SOL    HW173199   7.873  14.705   2.155
57122SOL    HW273200   7.843  14.574   2.086
57123SOL     OW73201   5.892   5.761   9.341
57123SOL    HW173202   5.898   5.670   9.371
57123SOL    HW273203   5.983   5.789   9.332
57124SOL     OW73204   7.303   9.702   7.232
57124SOL    HW173205   7.261   9.664   7.154
57124SOL    HW273206   7.392   9.668   7.230
57125SOL     OW73207   6.709   5.055   7.630
57125SOL    HW173208   6.774   5.125   7.620
57125SOL    HW273209   6.755   4.975   7.604
57126SOL     OW73210   4.863   3.014   4.918
57126SOL    HW173211   4.943   3.007   4.970
57126SOL    HW273212   4.864   2.936   4.862
57127SOL     OW73213  14.616  12.539  12.015
57127SOL    HW173214  14.543  12.515  12.073
57127SOL    HW273215  14.638  12.457  11.970
57128SOL     OW73216   4.353   2.159   8.711
57128SOL    HW173217   4.380   2.245   8.678
57128SOL    HW273218   4.263   2.148   8.680
57129SOL     OW73219   8.571   0.014  11.960
57129SOL    HW173220   8.614   0.085  12.007
57129SOL    HW273221   8.552  14.828  12.028
57130SOL     OW73222   4.113   4.024   9.852
57130SOL    HW173223   4.060   3.982   9.784
57130SOL    HW273224   4.074   4.110   9.864
57131SOL     OW73225  13.473   7.020   3.559
57131SOL    HW173226  13.461   7.021   3.464
57131SOL    HW273227  13.479   7.113   3.584
57132SOL     OW73228  13.576  14.383   7.124
57132SOL    HW173229  13.594  14.386   7.218
57132SOL    HW273230  13.482  14.400   7.117
57133SOL     OW73231   5.826   6.788   5.206
57133SOL    HW173232   5.782   6.867   5.237
57133SOL    HW273233   5.866   6.750   5.284
57134SOL     OW73234  10.155  13.267  13.491
57134SOL    HW173235  10.108  13.196  13.448
57134SOL    HW273236  10.090  13.337  13.500
57135SOL     OW73237  11.709   3.524   9.049
57135SOL    HW173238  11.654   3.513   9.126
57135SOL    HW273239  11.682   3.454   8.990
57136SOL     OW73240   9.849   5.865   1.712
57136SOL    HW173241   9.817   5.844   1.799
57136SOL    HW273242   9.782   5.831   1.653
57137SOL     OW73243  13.860   4.994   4.422
57137SOL    HW173244  13.846   4.913   4.470
57137SOL    HW273245  13.772   5.026   4.402
57138SOL     OW73246   8.780   8.173   8.878
57138SOL    HW173247   8.754   8.142   8.965
57138SOL    HW273248   8.868   8.136   8.865
57139SOL     OW73249   9.062   6.815   1.740
57139SOL    HW173250   9.110   6.810   1.822
57139SOL    HW273251   9.054   6.724   1.711
57140SOL     OW73252   7.935   1.480   2.681
57140SOL    HW173253   7.963   1.389   2.680
57140SOL    HW273254   8.010   1.528   2.716
57141SOL     OW73255   1.883  13.226   1.292
57141SOL    HW173256   1.945  13.187   1.230
57141SOL    HW273257   1.832  13.288   1.240
57142SOL     OW73258   4.541   3.056  10.581
57142SOL    HW173259   4.459   3.058  10.632
57142SOL    HW273260   4.518   3.009  10.501
57143SOL     OW73261   8.670   0.855  11.318
57143SOL    HW173262   8.724   0.880  11.393
57143SOL    HW273263   8.707   0.772  11.288
57144SOL     OW73264  10.265   6.686  10.572
57144SOL    HW173265  10.219   6.616  10.525
57144SOL    HW273266  10.346   6.644  10.602
57145SOL     OW73267  13.933  13.048   0.285
57145SOL    HW173268  13.952  13.037   0.192
57145SOL    HW273269  13.838  13.040   0.292
57146SOL     OW73270   9.222   1.148  14.096
57146SOL    HW173271   9.132   1.118  14.105
57146SOL    HW273272   9.231   1.172  14.004
57147SOL     OW73273  13.083   6.566  11.804
57147SOL    HW173274  13.105   6.652  11.770
57147SOL    HW273275  13.030   6.525  11.735
57148SOL     OW73276   9.661   8.984  14.421
57148SOL    HW173277   9.619   9.070  14.419
57148SOL    HW273278   9.657   8.953  14.330
57149SOL     OW73279   5.699   8.025  14.099
57149SOL    HW173280   5.732   7.946  14.057
57149SOL    HW273281   5.720   8.013  14.192
57150SOL     OW73282   1.809   4.941   9.273
57150SOL    HW173283   1.870   5.002   9.313
57150SOL    HW273284   1.864   4.871   9.237
57151SOL     OW73285  12.022  11.478   5.169
57151SOL    HW173286  12.047  11.566   5.143
57151SOL    HW273287  12.010  11.431   5.086
57152SOL     OW73288   3.229  12.159   6.189
57152SOL    HW173289   3.205  12.103   6.116
57152SOL    HW273290   3.322  12.177   6.176
57153SOL     OW73291  10.042   5.986   3.827
57153SOL    HW173292   9.963   5.932   3.825
57153SOL    HW273293  10.056   6.005   3.920
57154SOL     OW73294   5.342  13.959  12.962
57154SOL    HW173295   5.293  13.952  13.044
57154SOL    HW273296   5.349  14.053  12.946
57155SOL     OW73297   8.984   5.157   9.830
57155SOL    HW173298   9.028   5.124   9.752
57155SOL    HW273299   9.034   5.122   9.903
57156SOL     OW73300   9.818   5.074  12.863
57156SOL    HW173301   9.905   5.075  12.903
57156SOL    HW273302   9.834   5.059  12.770
57157SOL     OW73303   0.570   7.166   4.378
57157SOL    HW173304   0.502   7.102   4.357
57157SOL    HW273305   0.538   7.248   4.340
57158SOL     OW73306   1.991  10.564   8.248
57158SOL    HW173307   2.051  10.533   8.316
57158SOL    HW273308   1.934  10.626   8.293
57159SOL     OW73309   1.769   3.527   3.427
57159SOL    HW173310   1.685   3.558   3.393
57159SOL    HW273311   1.808   3.603   3.468
57160SOL     OW73312   9.540   9.095   7.035
57160SOL    HW173313   9.476   9.058   7.096
57160SOL    HW273314   9.612   9.033   7.036
57161SOL     OW73315  10.696   7.499   8.795
57161SOL    HW173316  10.654   7.421   8.831
57161SOL    HW273317  10.742   7.538   8.870
57162SOL     OW73318   7.857   1.954   0.243
57162SOL    HW173319   7.887   2.037   0.280
57162SOL    HW273320   7.909   1.943   0.164
57163SOL     OW73321  11.006   8.151  14.367
57163SOL    HW173322  11.059   8.116  14.438
57163SOL    HW273323  11.067   8.164  14.294
57164SOL     OW73324   8.188   4.141   3.120
57164SOL    HW173325   8.144   4.215   3.161
57164SOL    HW273326   8.194   4.075   3.190
57165SOL     OW73327  10.324   4.086   7.807
57165SOL    HW173328  10.326   4.178   7.834
57165SOL    HW273329  10.369   4.085   7.722
57166SOL     OW73330  11.986  13.498   2.859
57166SOL    HW173331  11.992  13.478   2.952
57166SOL    HW273332  12.077  13.517   2.832
57167SOL     OW73333   5.532  10.092  13.990
57167SOL    HW173334   5.454  10.116  14.040
57167SOL    HW273335   5.505  10.103  13.898
57168SOL     OW73336  10.439   8.452   9.967
57168SOL    HW173337  10.347   8.434   9.987
57168SOL    HW273338  10.456   8.538  10.005
57169SOL     OW73339   5.873  14.015  13.304
57169SOL    HW173340   5.935  13.944  13.290
57169SOL    HW273341   5.788  13.977  13.283
57170SOL     OW73342   6.289   6.352   3.720
57170SOL    HW173343   6.318   6.271   3.676
57170SOL    HW273344   6.369   6.392   3.752
57171SOL     OW73345   6.880   7.180  10.841
57171SOL    HW173346   6.791   7.198  10.811
57171SOL    HW273347   6.870   7.116  10.911
57172SOL     OW73348   5.170   0.698   9.862
57172SOL    HW173349   5.107   0.744   9.807
57172SOL    HW273350   5.177   0.752   9.941
57173SOL     OW73351   6.870  10.648   4.694
57173SOL    HW173352   6.963  10.622   4.694
57173SOL    HW273353   6.846  10.653   4.602
57174SOL     OW73354   8.922   3.495   1.997
57174SOL    HW173355   8.992   3.560   2.001
57174SOL    HW273356   8.939   3.447   1.915
57175SOL     OW73357   5.060   2.543   1.873
57175SOL    HW173358   5.019   2.594   1.943
57175SOL    HW273359   5.128   2.492   1.917
57176SOL     OW73360   9.909   9.721   6.845
57176SOL    HW173361   9.975   9.789   6.836
57176SOL    HW273362   9.952   9.641   6.814
57177SOL     OW73363  12.240   0.069  10.530
57177SOL    HW173364  12.175   0.139  10.519
57177SOL    HW273365  12.195   0.003  10.583
57178SOL     OW73366   8.319  11.694  14.876
57178SOL    HW173367   8.273  11.610   0.001
57178SOL    HW273368   8.410  11.673   0.016
57179SOL     OW73369   0.477   8.891   2.498
57179SOL    HW173370   0.573   8.897   2.503
57179SOL    HW273371   0.458   8.798   2.503
57180SOL     OW73372   0.180   6.162   9.603
57180SOL    HW173373   0.275   6.159   9.608
57180SOL    HW273374   0.156   6.236   9.660
57181SOL     OW73375  10.160   9.620   8.546
57181SOL    HW173376  10.173   9.584   8.633
57181SOL    HW273377  10.175   9.547   8.487
57182SOL     OW73378  12.679   7.270   6.527
57182SOL    HW173379  12.633   7.336   6.579
57182SOL    HW273380  12.659   7.293   6.436
57183SOL     OW73381  10.237  12.941  14.246
57183SOL    HW173382  10.280  13.024  14.266
57183SOL    HW273383  10.269  12.918  14.159
57184SOL     OW73384   5.908   5.736   1.656
57184SOL    HW173385   5.881   5.824   1.681
57184SOL    HW273386   5.881   5.681   1.729
57185SOL     OW73387   8.298   3.000  12.566
57185SOL    HW173388   8.386   3.019  12.535
57185SOL    HW273389   8.296   2.905  12.578
57186SOL     OW73390   6.266  13.777   7.797
57186SOL    HW173391   6.225  13.844   7.852
57186SOL    HW273392   6.358  13.778   7.822
57187SOL     OW73393  13.779   7.161   6.380
57187SOL    HW173394  13.826   7.241   6.403
57187SOL    HW273395  13.848   7.096   6.366
57188SOL     OW73396  11.677  11.967   1.317
57188SOL    HW173397  11.587  11.948   1.340
57188SOL    HW273398  11.671  12.036   1.251
57189SOL     OW73399   7.361   4.985  13.341
57189SOL    HW173400   7.332   5.051  13.279
57189SOL    HW273401   7.456   4.980  13.330
57190SOL     OW73402  12.822   1.587  10.490
57190SOL    HW173403  12.745   1.601  10.434
57190SOL    HW273404  12.855   1.675  10.507
57191SOL     OW73405   3.357   4.317   2.826
57191SOL    HW173406   3.267   4.297   2.802
57191SOL    HW273407   3.396   4.232   2.845
57192SOL     OW73408  10.598   9.503   1.980
57192SOL    HW173409  10.575   9.508   1.887
57192SOL    HW273410  10.645   9.585   1.997
57193SOL     OW73411   5.323   0.708   6.244
57193SOL    HW173412   5.313   0.650   6.320
57193SOL    HW273413   5.338   0.648   6.171
57194SOL     OW73414  13.906   9.098  13.570
57194SOL    HW173415  13.932   9.122  13.481
57194SOL    HW273416  13.925   9.176  13.621
57195SOL     OW73417   5.292   8.614  11.697
57195SOL    HW173418   5.341   8.683  11.742
57195SOL    HW273419   5.349   8.589  11.624
57196SOL     OW73420   4.023  12.161  10.170
57196SOL    HW173421   3.935  12.176  10.136
57196SOL    HW273422   4.053  12.081  10.125
57197SOL     OW73423  12.041   9.123   2.153
57197SOL    HW173424  12.002   9.134   2.066
57197SOL    HW273425  11.984   9.173   2.211
57198SOL     OW73426   9.316   3.057  12.355
57198SOL    HW173427   9.304   3.148  12.328
57198SOL    HW273428   9.377   3.062  12.428
57199SOL     OW73429   6.653  10.833  11.665
57199SOL    HW173430   6.600  10.798  11.593
57199SOL    HW273431   6.695  10.756  11.703
57200SOL     OW73432  10.938   5.937   9.559
57200SOL    HW173433  10.863   5.881   9.581
57200SOL    HW273434  10.915   5.974   9.474
57201SOL     OW73435   8.265  13.567   4.591
57201SOL    HW173436   8.242  13.611   4.508
57201SOL    HW273437   8.344  13.517   4.571
57202SOL     OW73438   5.445   2.398   8.904
57202SOL    HW173439   5.520   2.380   8.847
57202SOL    HW273440   5.469   2.479   8.950
57203SOL     OW73441   8.048   5.348   9.019
57203SOL    HW173442   8.073   5.437   9.040
57203SOL    HW273443   8.125   5.295   9.041
57204SOL     OW73444   8.041  11.109   4.839
57204SOL    HW173445   8.022  11.035   4.782
57204SOL    HW273446   8.136  11.111   4.845
57205SOL     OW73447  11.627   5.606  10.155
57205SOL    HW173448  11.616   5.692  10.114
57205SOL    HW273449  11.646   5.626  10.247
57206SOL     OW73450   2.751  11.886   7.083
57206SOL    HW173451   2.826  11.919   7.133
57206SOL    HW273452   2.688  11.959   7.083
57207SOL     OW73453   0.098  13.588   9.118
57207SOL    HW173454   0.116  13.586   9.024
57207SOL    HW273455   0.178  13.620   9.157
57208SOL     OW73456   2.407   9.020   5.915
57208SOL    HW173457   2.448   8.934   5.907
57208SOL    HW273458   2.469   9.072   5.966
57209SOL     OW73459   8.386   5.478   8.723
57209SOL    HW173460   8.402   5.571   8.710
57209SOL    HW273461   8.293   5.472   8.744
57210SOL     OW73462  10.815   5.838  10.490
57210SOL    HW173463  10.864   5.763  10.524
57210SOL    HW273464  10.724   5.809  10.490
57211SOL     OW73465  12.409   1.357  14.266
57211SOL    HW173466  12.360   1.436  14.288
57211SOL    HW273467  12.446   1.375  14.179
57212SOL     OW73468  12.792   5.574   4.730
57212SOL    HW173469  12.762   5.509   4.793
57212SOL    HW273470  12.726   5.643   4.734
57213SOL     OW73471   1.560  14.377   9.823
57213SOL    HW173472   1.634  14.356   9.766
57213SOL    HW273473   1.550  14.472   9.816
57214SOL     OW73474   9.039   5.473   3.857
57214SOL    HW173475   9.098   5.409   3.817
57214SOL    HW273476   9.087   5.507   3.932
57215SOL     OW73477   0.876   6.283   3.882
57215SOL    HW173478   0.954   6.232   3.903
57215SOL    HW273479   0.850   6.323   3.965
57216SOL     OW73480   7.642   1.087   9.553
57216SOL    HW173481   7.682   1.167   9.586
57216SOL    HW273482   7.652   1.093   9.458
57217SOL     OW73483   4.892   6.482   2.412
57217SOL    HW173484   4.927   6.492   2.324
57217SOL    HW273485   4.803   6.518   2.407
57218SOL     OW73486   2.520   9.062   0.808
57218SOL    HW173487   2.469   8.997   0.760
57218SOL    HW273488   2.455   9.121   0.846
57219SOL     OW73489   4.737  12.941  11.479
57219SOL    HW173490   4.819  12.964  11.522
57219SOL    HW273491   4.699  13.025  11.452
57220SOL     OW73492   6.294  12.302  12.385
57220SOL    HW173493   6.220  12.344  12.341
57220SOL    HW273494   6.333  12.245  12.318
57221SOL     OW73495   5.074  10.474   8.866
57221SOL    HW173496   5.046  10.490   8.957
57221SOL    HW273497   5.021  10.535   8.815
57222SOL     OW73498  11.200   9.586   0.438
57222SOL    HW173499  11.190   9.505   0.490
57222SOL    HW273500  11.112   9.603   0.405
57223SOL     OW73501   7.165   6.390  11.623
57223SOL    HW173502   7.115   6.457  11.669
57223SOL    HW273503   7.231   6.439  11.574
57224SOL     OW73504  14.275   8.410   5.848
57224SOL    HW173505  14.359   8.437   5.810
57224SOL    HW273506  14.280   8.315   5.852
57225SOL     OW73507   1.538  14.452   4.643
57225SOL    HW173508   1.497  14.518   4.698
57225SOL    HW273509   1.614  14.495   4.604
57226SOL     OW73510   2.940   7.463  11.232
57226SOL    HW173511   2.886   7.386  11.213
57226SOL    HW273512   2.995   7.437  11.306
57227SOL     OW73513   0.033   8.754   0.793
57227SOL    HW173514   0.093   8.699   0.843
57227SOL    HW273515   0.020   8.831   0.848
57228SOL     OW73516   9.209  10.538  14.736
57228SOL    HW173517   9.194  10.520  14.829
57228SOL    HW273518   9.243  10.628  14.735
57229SOL     OW73519  11.707   2.038   5.588
57229SOL    HW173520  11.660   2.105   5.538
57229SOL    HW273521  11.688   1.956   5.543
57230SOL     OW73522  10.850   0.314   5.463
57230SOL    HW173523  10.896   0.236   5.493
57230SOL    HW273524  10.763   0.283   5.439
57231SOL     OW73525   3.230   6.800   4.846
57231SOL    HW173526   3.239   6.745   4.923
57231SOL    HW273527   3.319   6.828   4.825
57232SOL     OW73528   4.751   6.233  10.801
57232SOL    HW173529   4.683   6.170  10.822
57232SOL    HW273530   4.716   6.318  10.830
57233SOL     OW73531   7.796   8.334  10.316
57233SOL    HW173532   7.788   8.240  10.300
57233SOL    HW273533   7.841   8.368  10.239
57234SOL     OW73534  10.912   0.967   5.547
57234SOL    HW173535  10.884   1.055   5.523
57234SOL    HW273536  10.884   0.957   5.638
57235SOL     OW73537  13.620   5.922   1.912
57235SOL    HW173538  13.701   5.894   1.869
57235SOL    HW273539  13.550   5.886   1.857
57236SOL     OW73540  12.782   7.690   1.683
57236SOL    HW173541  12.755   7.632   1.611
57236SOL    HW273542  12.709   7.685   1.746
57237SOL     OW73543   5.515  11.395   8.690
57237SOL    HW173544   5.432  11.407   8.644
57237SOL    HW273545   5.493  11.343   8.767
57238SOL     OW73546   1.926   5.903   7.731
57238SOL    HW173547   1.857   5.838   7.726
57238SOL    HW273548   1.911   5.960   7.656
57239SOL     OW73549   2.245  13.787   8.312
57239SOL    HW173550   2.320  13.777   8.252
57239SOL    HW273551   2.256  13.716   8.375
57240SOL     OW73552   4.160  13.107   7.832
57240SOL    HW173553   4.143  13.091   7.740
57240SOL    HW273554   4.115  13.035   7.878
57241SOL     OW73555   4.586  13.402  14.413
57241SOL    HW173556   4.512  13.396  14.353
57241SOL    HW273557   4.562  13.344  14.486
57242SOL     OW73558   1.835   4.858  10.045
57242SOL    HW173559   1.774   4.871   9.972
57242SOL    HW273560   1.866   4.769  10.035
57243SOL     OW73561  10.249   9.334   0.288
57243SOL    HW173562  10.194   9.369   0.217
57243SOL    HW273563  10.250   9.404   0.353
57244SOL     OW73564   9.793   9.140   4.486
57244SOL    HW173565   9.866   9.082   4.464
57244SOL    HW273566   9.833   9.224   4.507
57245SOL     OW73567   3.638   9.942   0.530
57245SOL    HW173568   3.604   9.929   0.441
57245SOL    HW273569   3.703  10.011   0.521
57246SOL     OW73570  14.180   6.810   9.767
57246SOL    HW173571  14.116   6.812   9.838
57246SOL    HW273572  14.199   6.903   9.750
57247SOL     OW73573  10.051  13.811  11.607
57247SOL    HW173574  10.042  13.719  11.582
57247SOL    HW273575   9.973  13.830  11.659
57248SOL     OW73576   3.571  11.617   1.054
57248SOL    HW173577   3.489  11.606   1.103
57248SOL    HW273578   3.543  11.637   0.965
57249SOL     OW73579   4.995   8.514   0.818
57249SOL    HW173580   4.962   8.540   0.904
57249SOL    HW273581   4.925   8.538   0.757
57250SOL     OW73582  11.536   6.355   6.689
57250SOL    HW173583  11.598   6.396   6.749
57250SOL    HW273584  11.458   6.411   6.694
57251SOL     OW73585  14.762   6.489   0.230
57251SOL    HW173586  14.822   6.490   0.304
57251SOL    HW273587  14.677   6.469   0.269
57252SOL     OW73588   2.988   8.263   6.872
57252SOL    HW173589   3.082   8.260   6.894
57252SOL    HW273590   2.986   8.297   6.782
57253SOL     OW73591  14.714  13.929   6.875
57253SOL    HW173592  14.709  13.989   6.949
57253SOL    HW273593  14.624  13.926   6.841
57254SOL     OW73594   4.829   5.591  11.013
57254SOL    HW173595   4.796   5.502  11.024
57254SOL    HW273596   4.760   5.647  11.049
57255SOL     OW73597  13.894   7.065   8.424
57255SOL    HW173598  13.972   7.039   8.473
57255SOL    HW273599  13.912   7.155   8.396
57256SOL     OW73600   8.618   9.005   8.038
57256SOL    HW173601   8.603   8.913   8.057
57256SOL    HW273602   8.600   9.014   7.945
57257SOL     OW73603   6.373   8.181   2.441
57257SOL    HW173604   6.344   8.090   2.444
57257SOL    HW273605   6.344   8.218   2.524
57258SOL     OW73606   5.646   1.991   1.313
57258SOL    HW173607   5.619   2.083   1.310
57258SOL    HW273608   5.597   1.954   1.386
57259SOL     OW73609  10.097   6.805   4.957
57259SOL    HW173610  10.168   6.792   5.020
57259SOL    HW273611  10.077   6.716   4.925
57260SOL     OW73612   4.315   8.145   3.021
57260SOL    HW173613   4.282   8.232   3.000
57260SOL    HW273614   4.264   8.117   3.097
57261SOL     OW73615   3.797   3.802   1.749
57261SOL    HW173616   3.857   3.868   1.785
57261SOL    HW273617   3.711   3.830   1.781
57262SOL     OW73618   9.069  13.453   6.107
57262SOL    HW173619   9.077  13.375   6.052
57262SOL    HW273620   9.159  13.475   6.131
57263SOL     OW73621   0.422   6.627   0.258
57263SOL    HW173622   0.513   6.650   0.275
57263SOL    HW273623   0.427   6.550   0.201
57264SOL     OW73624   7.597   9.524   9.235
57264SOL    HW173625   7.670   9.499   9.292
57264SOL    HW273626   7.585   9.617   9.250
57265SOL     OW73627  13.603   0.751   7.395
57265SOL    HW173628  13.547   0.691   7.444
57265SOL    HW273629  13.623   0.822   7.457
57266SOL     OW73630   5.265  12.508  14.478
57266SOL    HW173631   5.201  12.461  14.531
57266SOL    HW273632   5.293  12.581  14.533
57267SOL     OW73633  14.288   1.694   0.638
57267SOL    HW173634  14.336   1.696   0.721
57267SOL    HW273635  14.354   1.673   0.572
57268SOL     OW73636   0.420   9.939   7.150
57268SOL    HW173637   0.364   9.894   7.086
57268SOL    HW273638   0.407  10.032   7.131
57269SOL     OW73639   0.470   6.393   9.458
57269SOL    HW173640   0.405   6.463   9.447
57269SOL    HW273641   0.544   6.420   9.404
57270SOL     OW73642   4.564   6.803   8.044
57270SOL    HW173643   4.576   6.763   8.130
57270SOL    HW273644   4.475   6.841   8.048
57271SOL     OW73645   4.704   5.816   5.586
57271SOL    HW173646   4.797   5.822   5.568
57271SOL    HW273647   4.670   5.753   5.522
57272SOL     OW73648   9.708   6.265   2.008
57272SOL    HW173649   9.758   6.232   1.933
57272SOL    HW273650   9.618   6.236   1.991
57273SOL     OW73651   4.203   9.496   6.020
57273SOL    HW173652   4.226   9.587   6.002
57273SOL    HW273653   4.114   9.487   5.987
57274SOL     OW73654  13.205  11.229  14.517
57274SOL    HW173655  13.248  11.315  14.511
57274SOL    HW273656  13.113  11.249  14.533
57275SOL     OW73657   4.793  12.758   4.027
57275SOL    HW173658   4.801  12.663   4.037
57275SOL    HW273659   4.766  12.770   3.937
57276SOL     OW73660  14.525  14.430   1.423
57276SOL    HW173661  14.519  14.376   1.344
57276SOL    HW273662  14.588  14.498   1.401
57277SOL     OW73663  10.836  11.551  12.593
57277SOL    HW173664  10.890  11.542  12.515
57277SOL    HW273665  10.869  11.630  12.636
57278SOL     OW73666   8.943   2.119  12.116
57278SOL    HW173667   8.856   2.088  12.093
57278SOL    HW273668   8.995   2.107  12.037
57279SOL     OW73669  13.367   6.529   9.098
57279SOL    HW173670  13.456   6.550   9.071
57279SOL    HW273671  13.365   6.547   9.191
57280SOL     OW73672   5.328  14.409   2.076
57280SOL    HW173673   5.364  14.495   2.054
57280SOL    HW273674   5.399  14.364   2.122
57281SOL     OW73675   7.274   7.230   4.901
57281SOL    HW173676   7.339   7.170   4.939
57281SOL    HW273677   7.224   7.261   4.976
57282SOL     OW73678  14.681   7.281  11.814
57282SOL    HW173679  14.721   7.327  11.888
57282SOL    HW273680  14.732   7.200  11.806
57283SOL     OW73681   5.447  13.208   8.849
57283SOL    HW173682   5.490  13.172   8.771
57283SOL    HW273683   5.505  13.278   8.879
57284SOL     OW73684  13.957   2.676   1.714
57284SOL    HW173685  13.881   2.732   1.698
57284SOL    HW273686  13.952   2.608   1.647
57285SOL     OW73687   9.721   4.618  14.858
57285SOL    HW173688   9.686   4.612   0.068
57285SOL    HW273689   9.729   4.712  14.842
57286SOL     OW73690   5.266  14.864   4.507
57286SOL    HW173691   5.286  14.774   4.532
57286SOL    HW273692   5.204  14.856   4.434
57287SOL     OW73693   5.192  14.174   4.525
57287SOL    HW173694   5.182  14.130   4.610
57287SOL    HW273695   5.193  14.103   4.461
57288SOL     OW73696   3.387  14.295   8.797
57288SOL    HW173697   3.420  14.246   8.872
57288SOL    HW273698   3.397  14.387   8.822
57289SOL     OW73699   8.465   6.195  12.480
57289SOL    HW173700   8.517   6.150  12.547
57289SOL    HW273701   8.458   6.285  12.512
57290SOL     OW73702  10.478  11.304   2.589
57290SOL    HW173703  10.439  11.266   2.510
57290SOL    HW273704  10.419  11.277   2.660
57291SOL     OW73705   9.153   5.276   3.705
57291SOL    HW173706   9.096   5.294   3.630
57291SOL    HW273707   9.238   5.256   3.666
57292SOL     OW73708   2.680   8.686  14.305
57292SOL    HW173709   2.588   8.692  14.279
57292SOL    HW273710   2.676   8.677  14.401
57293SOL     OW73711  11.473  10.782   7.077
57293SOL    HW173712  11.522  10.702   7.059
57293SOL    HW273713  11.461  10.782   7.172
57294SOL     OW73714  12.646   0.588   1.893
57294SOL    HW173715  12.666   0.501   1.925
57294SOL    HW273716  12.696   0.647   1.949
57295SOL     OW73717   5.997   4.974  13.768
57295SOL    HW173718   5.984   5.033  13.694
57295SOL    HW273719   6.089   4.946  13.759
57296SOL     OW73720   0.559   4.493   2.519
57296SOL    HW173721   0.622   4.473   2.589
57296SOL    HW273722   0.500   4.557   2.559
57297SOL     OW73723  11.882   7.191   2.220
57297SOL    HW173724  11.952   7.233   2.169
57297SOL    HW273725  11.822   7.157   2.153
57298SOL     OW73726   6.952  10.646   7.565
57298SOL    HW173727   7.003  10.701   7.506
57298SOL    HW273728   7.006  10.568   7.578
57299SOL     OW73729   3.782  12.127   6.940
57299SOL    HW173730   3.690  12.123   6.915
57299SOL    HW273731   3.816  12.203   6.892
57300SOL     OW73732  12.221   5.754   0.740
57300SOL    HW173733  12.278   5.677   0.737
57300SOL    HW273734  12.204   5.768   0.833
57301SOL     OW73735   1.482   7.766   9.273
57301SOL    HW173736   1.439   7.817   9.205
57301SOL    HW273737   1.548   7.715   9.226
57302SOL     OW73738   7.135   1.518   6.829
57302SOL    HW173739   7.075   1.574   6.780
57302SOL    HW273740   7.093   1.432   6.829
57303SOL     OW73741   5.381   0.391  10.815
57303SOL    HW173742   5.431   0.399  10.733
57303SOL    HW273743   5.448   0.371  10.881
57304SOL     OW73744  14.389   5.823   1.216
57304SOL    HW173745  14.449   5.888   1.180
57304SOL    HW273746  14.405   5.745   1.164
57305SOL     OW73747   0.414  11.980   7.480
57305SOL    HW173748   0.366  11.902   7.509
57305SOL    HW273749   0.357  12.020   7.414
57306SOL     OW73750  14.726  12.062   2.097
57306SOL    HW173751  14.770  12.105   2.024
57306SOL    HW273752  14.691  11.981   2.060
57307SOL     OW73753   0.219   6.153   8.546
57307SOL    HW173754   0.129   6.184   8.544
57307SOL    HW273755   0.269   6.227   8.582
57308SOL     OW73756   8.655  13.653   5.626
57308SOL    HW173757   8.640  13.569   5.583
57308SOL    HW273758   8.723  13.635   5.691
57309SOL     OW73759   5.826   7.569  12.832
57309SOL    HW173760   5.803   7.641  12.774
57309SOL    HW273761   5.785   7.492  12.792
57310SOL     OW73762   3.248  11.925   1.211
57310SOL    HW173763   3.314  11.872   1.253
57310SOL    HW273764   3.171  11.920   1.268
57311SOL     OW73765   6.377   6.807   1.066
57311SOL    HW173766   6.445   6.865   1.033
57311SOL    HW273767   6.419   6.722   1.074
57312SOL     OW73768   5.062   8.319   7.613
57312SOL    HW173769   5.045   8.287   7.701
57312SOL    HW273770   5.150   8.288   7.592
57313SOL     OW73771   3.963   4.123   2.304
57313SOL    HW173772   3.905   4.191   2.336
57313SOL    HW273773   3.940   4.112   2.212
57314SOL     OW73774   1.395   2.170  11.620
57314SOL    HW173775   1.386   2.185  11.714
57314SOL    HW273776   1.489   2.177  11.604
57315SOL     OW73777  13.192   5.543   6.768
57315SOL    HW173778  13.201   5.469   6.827
57315SOL    HW273779  13.113   5.588   6.797
57316SOL     OW73780  11.112   7.737  12.472
57316SOL    HW173781  11.121   7.831  12.455
57316SOL    HW273782  11.132   7.695  12.389
57317SOL     OW73783   8.007   1.747  14.659
57317SOL    HW173784   7.943   1.778  14.595
57317SOL    HW273785   8.092   1.760  14.617
57318SOL     OW73786   2.672   0.103  12.729
57318SOL    HW173787   2.654   0.196  12.716
57318SOL    HW273788   2.766   0.094  12.711
57319SOL     OW73789   0.339   2.583  10.213
57319SOL    HW173790   0.309   2.616  10.128
57319SOL    HW273791   0.310   2.649  10.276
57320SOL     OW73792   1.426   6.719   0.369
57320SOL    HW173793   1.512   6.704   0.329
57320SOL    HW273794   1.381   6.779   0.309
57321SOL     OW73795  11.360  14.268   1.763
57321SOL    HW173796  11.281  14.319   1.746
57321SOL    HW273797  11.329  14.191   1.810
57322SOL     OW73798   8.086  11.063   7.778
57322SOL    HW173799   8.035  11.044   7.856
57322SOL    HW273800   8.168  11.015   7.790
57323SOL     OW73801   8.013   9.683   5.563
57323SOL    HW173802   7.971   9.707   5.646
57323SOL    HW273803   7.959   9.724   5.496
57324SOL     OW73804  14.787  11.018   2.166
57324SOL    HW173805  14.791  11.063   2.250
57324SOL    HW273806  14.783  10.925   2.188
57325SOL     OW73807   9.335  14.184   6.091
57325SOL    HW173808   9.401  14.193   6.022
57325SOL    HW273809   9.303  14.273   6.105
57326SOL     OW73810   3.151   7.415  10.024
57326SOL    HW173811   3.130   7.455   9.940
57326SOL    HW273812   3.070   7.372  10.051
57327SOL     OW73813   9.127   9.513   5.278
57327SOL    HW173814   9.081   9.442   5.321
57327SOL    HW273815   9.218   9.504   5.307
57328SOL     OW73816   8.099  14.671   2.524
57328SOL    HW173817   8.163  14.609   2.560
57328SOL    HW273818   8.025  14.616   2.497
57329SOL     OW73819   2.911  12.553   2.637
57329SOL    HW173820   3.006  12.562   2.646
57329SOL    HW273821   2.882  12.640   2.608
57330SOL     OW73822  13.775   6.950   4.145
57330SOL    HW173823  13.707   6.905   4.095
57330SOL    HW273824  13.728   7.016   4.196
57331SOL     OW73825  10.818   4.168   7.021
57331SOL    HW173826  10.905   4.160   7.062
57331SOL    HW273827  10.781   4.247   7.059
57332SOL     OW73828   4.942   6.250  12.698
57332SOL    HW173829   5.004   6.294  12.641
57332SOL    HW273830   4.986   6.247  12.783
57333SOL     OW73831   0.671   0.165  11.019
57333SOL    HW173832   0.746   0.112  10.991
57333SOL    HW273833   0.702   0.211  11.098
57334SOL     OW73834   2.247   0.143  10.538
57334SOL    HW173835   2.172   0.201  10.549
57334SOL    HW273836   2.214   0.073  10.481
57335SOL     OW73837   8.289   1.241   2.980
57335SOL    HW173838   8.344   1.286   3.045
57335SOL    HW273839   8.318   1.150   2.983
57336SOL     OW73840   9.303  12.094   2.992
57336SOL    HW173841   9.265  12.007   2.982
57336SOL    HW273842   9.289  12.137   2.908
57337SOL     OW73843   2.145   4.158   3.357
57337SOL    HW173844   2.134   4.253   3.353
57337SOL    HW273845   2.223   4.140   3.304
57338SOL     OW73846   6.300   7.529   0.756
57338SOL    HW173847   6.292   7.443   0.716
57338SOL    HW273848   6.219   7.540   0.806
57339SOL     OW73849  11.062  10.062  13.399
57339SOL    HW173850  11.077  10.083  13.492
57339SOL    HW273851  11.145  10.026  13.369
57340SOL     OW73852  12.180  10.420   8.017
57340SOL    HW173853  12.222  10.505   8.011
57340SOL    HW273854  12.125  10.414   7.939
57341SOL     OW73855  10.318   1.393   9.557
57341SOL    HW173856  10.393   1.334   9.557
57341SOL    HW273857  10.348   1.471   9.604
57342SOL     OW73858   8.706   2.712   1.501
57342SOL    HW173859   8.774   2.646   1.486
57342SOL    HW273860   8.747   2.795   1.480
57343SOL     OW73861  10.066   7.957   9.484
57343SOL    HW173862  10.041   7.878   9.436
57343SOL    HW273863  10.062   7.930   9.576
57344SOL     OW73864   4.948   0.088   4.530
57344SOL    HW173865   4.861   0.054   4.514
57344SOL    HW273866   4.983   0.107   4.443
57345SOL     OW73867   9.371   2.225   6.097
57345SOL    HW173868   9.412   2.165   6.035
57345SOL    HW273869   9.279   2.229   6.069
57346SOL     OW73870  12.932   7.459   9.795
57346SOL    HW173871  12.959   7.367   9.799
57346SOL    HW273872  12.950   7.493   9.882
57347SOL     OW73873   6.734  10.265   7.492
57347SOL    HW173874   6.822  10.228   7.501
57347SOL    HW273875   6.741  10.325   7.418
57348SOL     OW73876   5.634   3.286  14.216
57348SOL    HW173877   5.702   3.282  14.149
57348SOL    HW273878   5.582   3.207  14.203
57349SOL     OW73879  13.512  13.616   7.823
57349SOL    HW173880  13.455  13.656   7.758
57349SOL    HW273881  13.479  13.526   7.832
57350SOL     OW73882  11.116   9.965   0.730
57350SOL    HW173883  11.033   9.917   0.739
57350SOL    HW273884  11.166   9.914   0.667
57351SOL     OW73885   9.138  13.822   0.333
57351SOL    HW173886   9.121  13.738   0.292
57351SOL    HW273887   9.201  13.803   0.403
57352SOL     OW73888  13.162  10.178  10.391
57352SOL    HW173889  13.233  10.168  10.327
57352SOL    HW273890  13.158  10.095  10.437
57353SOL     OW73891   4.208   8.034  12.833
57353SOL    HW173892   4.261   8.091  12.888
57353SOL    HW273893   4.165   7.974  12.894
57354SOL     OW73894   0.461   5.841   6.638
57354SOL    HW173895   0.505   5.787   6.704
57354SOL    HW273896   0.532   5.887   6.593
57355SOL     OW73897   4.371   0.393   4.236
57355SOL    HW173898   4.405   0.479   4.261
57355SOL    HW273899   4.322   0.363   4.312
57356SOL     OW73900   6.071  13.305  13.885
57356SOL    HW173901   6.083  13.376  13.948
57356SOL    HW273902   6.083  13.225  13.936
57357SOL     OW73903  14.782   8.573  10.103
57357SOL    HW173904  14.704   8.545  10.151
57357SOL    HW273905  14.805   8.658  10.141
57358SOL     OW73906   4.766  14.767  13.143
57358SOL    HW173907   4.738  14.709  13.213
57358SOL    HW273908   4.833  14.717  13.095
57359SOL     OW73909  13.493   7.857   9.012
57359SOL    HW173910  13.587   7.847   9.025
57359SOL    HW273911  13.456   7.854   9.100
57360SOL     OW73912   3.534   8.649   9.512
57360SOL    HW173913   3.578   8.732   9.492
57360SOL    HW273914   3.511   8.613   9.426
57361SOL     OW73915   1.219   9.226   6.469
57361SOL    HW173916   1.242   9.279   6.545
57361SOL    HW273917   1.143   9.270   6.430
57362SOL     OW73918   2.622   1.948   1.797
57362SOL    HW173919   2.588   1.987   1.878
57362SOL    HW273920   2.712   1.980   1.791
57363SOL     OW73921  12.954   1.814   1.564
57363SOL    HW173922  12.902   1.833   1.486
57363SOL    HW273923  12.907   1.856   1.636
57364SOL     OW73924   7.398   8.090   0.479
57364SOL    HW173925   7.340   8.156   0.441
57364SOL    HW273926   7.341   8.037   0.535
57365SOL     OW73927   0.343   9.511   7.006
57365SOL    HW173928   0.253   9.480   7.013
57365SOL    HW273929   0.379   9.465   6.930
57366SOL     OW73930   0.628   3.025  12.585
57366SOL    HW173931   0.533   3.029  12.571
57366SOL    HW273932   0.659   3.114  12.566
57367SOL     OW73933   7.900  10.765   4.999
57367SOL    HW173934   7.841  10.699   5.033
57367SOL    HW273935   7.843  10.829   4.956
57368SOL     OW73936   0.238   2.881  14.706
57368SOL    HW173937   0.192   2.892  14.623
57368SOL    HW273938   0.313   2.826  14.685
57369SOL     OW73939  11.007   3.661   2.361
57369SOL    HW173940  10.980   3.569   2.365
57369SOL    HW273941  10.944   3.707   2.417
57370SOL     OW73942   2.170   5.942   5.673
57370SOL    HW173943   2.159   5.848   5.690
57370SOL    HW273944   2.149   5.984   5.757
57371SOL     OW73945  13.744  14.289   2.762
57371SOL    HW173946  13.651  14.292   2.740
57371SOL    HW273947  13.748  14.243   2.846
57372SOL     OW73948  10.665   7.971  11.613
57372SOL    HW173949  10.761   7.969  11.614
57372SOL    HW273950  10.643   8.064  11.616
57373SOL     OW73951  13.642   3.792  13.692
57373SOL    HW173952  13.641   3.710  13.742
57373SOL    HW273953  13.634   3.765  13.601
57374SOL     OW73954  13.236   6.029   7.565
57374SOL    HW173955  13.141   6.021   7.572
57374SOL    HW273956  13.270   5.977   7.638
57375SOL     OW73957   8.847   2.084   2.937
57375SOL    HW173958   8.826   2.095   2.844
57375SOL    HW273959   8.942   2.092   2.941
57376SOL     OW73960   8.614   0.317  11.440
57376SOL    HW173961   8.602   0.314  11.345
57376SOL    HW273962   8.709   0.324  11.452
57377SOL     OW73963   5.062   6.909   0.090
57377SOL    HW173964   5.109   6.888   0.171
57377SOL    HW273965   5.129   6.905   0.022
57378SOL     OW73966  12.869  14.370   4.457
57378SOL    HW173967  12.777  14.379   4.433
57378SOL    HW273968  12.869  14.358   4.552
57379SOL     OW73969  14.687  11.332   3.535
57379SOL    HW173970  14.686  11.414   3.585
57379SOL    HW273971  14.723  11.357   3.450
57380SOL     OW73972   3.924  14.811  11.731
57380SOL    HW173973   3.960  14.864  11.802
57380SOL    HW273974   4.001  14.778  11.684
57381SOL     OW73975   0.862  13.398   6.054
57381SOL    HW173976   0.891  13.482   6.019
57381SOL    HW273977   0.941  13.344   6.055
57382SOL     OW73978  10.869   4.489   5.966
57382SOL    HW173979  10.816   4.474   5.887
57382SOL    HW273980  10.935   4.553   5.939
57383SOL     OW73981   9.556  10.052  13.867
57383SOL    HW173982   9.644  10.016  13.855
57383SOL    HW273983   9.509   9.984  13.916
57384SOL     OW73984   7.830  12.195   7.494
57384SOL    HW173985   7.878  12.124   7.452
57384SOL    HW273986   7.767  12.224   7.428
57385SOL     OW73987   7.378   7.252   5.854
57385SOL    HW173988   7.308   7.297   5.901
57385SOL    HW273989   7.440   7.321   5.830
57386SOL     OW73990   0.614   3.699   6.006
57386SOL    HW173991   0.594   3.785   6.043
57386SOL    HW273992   0.705   3.684   6.031
57387SOL     OW73993   0.811  13.236  13.868
57387SOL    HW173994   0.900  13.213  13.846
57387SOL    HW273995   0.762  13.230  13.786
57388SOL     OW73996   7.601  11.694   9.400
57388SOL    HW173997   7.544  11.769   9.381
57388SOL    HW273998   7.690  11.728   9.386
57389SOL     OW73999   3.370   8.557   3.491
57389SOL    HW174000   3.409   8.479   3.453
57389SOL    HW274001   3.442   8.601   3.536
57390SOL     OW74002   7.340   6.142  12.736
57390SOL    HW174003   7.423   6.136  12.784
57390SOL    HW274004   7.314   6.051  12.721
57391SOL     OW74005   3.748  11.165  10.329
57391SOL    HW174006   3.673  11.191  10.275
57391SOL    HW274007   3.711  11.151  10.417
57392SOL     OW74008   8.789  14.644   0.445
57392SOL    HW174009   8.738  14.590   0.505
57392SOL    HW274010   8.872  14.597   0.434
57393SOL     OW74011  13.030   2.545   6.190
57393SOL    HW174012  13.105   2.496   6.156
57393SOL    HW274013  13.067   2.603   6.257
57394SOL     OW74014  14.374  10.052   1.071
57394SOL    HW174015  14.443   9.988   1.056
57394SOL    HW274016  14.404  10.103   1.146
57395SOL     OW74017   8.768  12.184   6.794
57395SOL    HW174018   8.753  12.198   6.700
57395SOL    HW274019   8.684  12.204   6.835
57396SOL     OW74020   3.614   8.068   2.029
57396SOL    HW174021   3.522   8.056   2.004
57396SOL    HW274022   3.615   8.150   2.078
57397SOL     OW74023  12.972   9.977   3.363
57397SOL    HW174024  12.982  10.007   3.453
57397SOL    HW274025  12.882   9.998   3.340
57398SOL     OW74026   4.472   2.728   5.110
57398SOL    HW174027   4.396   2.669   5.109
57398SOL    HW274028   4.435   2.814   5.128
57399SOL     OW74029   6.381   8.896   3.725
57399SOL    HW174030   6.428   8.836   3.667
57399SOL    HW274031   6.433   8.897   3.805
57400SOL     OW74032   3.661  11.082   3.401
57400SOL    HW174033   3.613  11.100   3.321
57400SOL    HW274034   3.604  11.114   3.471
57401SOL     OW74035  10.021  12.313   4.750
57401SOL    HW174036   9.936  12.272   4.762
57401SOL    HW274037  10.004  12.407   4.753
57402SOL     OW74038  14.476  11.162   4.279
57402SOL    HW174039  14.491  11.147   4.372
57402SOL    HW274040  14.397  11.112   4.258
57403SOL     OW74041   9.647  14.077  10.474
57403SOL    HW174042   9.601  13.994  10.471
57403SOL    HW274043   9.651  14.098  10.568
57404SOL     OW74044   9.689   5.419   4.328
57404SOL    HW174045   9.606   5.431   4.374
57404SOL    HW274046   9.702   5.324   4.327
57405SOL     OW74047  10.872  11.830   9.539
57405SOL    HW174048  10.954  11.780   9.543
57405SOL    HW274049  10.807  11.767   9.508
57406SOL     OW74050  14.768   6.357  13.798
57406SOL    HW174051  14.693   6.308  13.766
57406SOL    HW274052  14.731   6.426  13.852
57407SOL     OW74053   3.068   1.867   2.994
57407SOL    HW174054   3.061   1.942   3.053
57407SOL    HW274055   3.143   1.888   2.938
57408SOL     OW74056  12.512  12.150   7.429
57408SOL    HW174057  12.484  12.122   7.342
57408SOL    HW274058  12.525  12.068   7.477
57409SOL     OW74059  10.635   6.101   1.624
57409SOL    HW174060  10.589   6.085   1.707
57409SOL    HW274061  10.595   6.040   1.563
57410SOL     OW74062   1.301  13.718   0.511
57410SOL    HW174063   1.268  13.651   0.451
57410SOL    HW274064   1.290  13.800   0.464
57411SOL     OW74065   3.793   3.940  11.959
57411SOL    HW174066   3.799   3.870  11.894
57411SOL    HW274067   3.806   3.896  12.043
57412SOL     OW74068   1.506   3.765  13.980
57412SOL    HW174069   1.507   3.684  14.031
57412SOL    HW274070   1.552   3.828  14.035
57413SOL     OW74071  13.973  14.244   7.390
57413SOL    HW174072  13.911  14.308   7.427
57413SOL    HW274073  13.920  14.166   7.374
57414SOL     OW74074   8.893  11.502  14.062
57414SOL    HW174075   8.817  11.504  14.120
57414SOL    HW274076   8.892  11.414  14.024
57415SOL     OW74077   5.857  13.789  11.127
57415SOL    HW174078   5.930  13.850  11.121
57415SOL    HW274079   5.860  13.740  11.045
57416SOL     OW74080   6.570  12.694   2.946
57416SOL    HW174081   6.629  12.768   2.934
57416SOL    HW274082   6.566  12.652   2.860
57417SOL     OW74083   7.767   7.489  10.419
57417SOL    HW174084   7.764   7.501  10.324
57417SOL    HW274085   7.679   7.461  10.442
57418SOL     OW74086   4.524   0.747   0.395
57418SOL    HW174087   4.588   0.740   0.465
57418SOL    HW274088   4.570   0.791   0.324
57419SOL     OW74089   1.148   6.004   8.924
57419SOL    HW174090   1.200   5.945   8.978
57419SOL    HW274091   1.212   6.050   8.870
57420SOL     OW74092   3.902  12.516   3.723
57420SOL    HW174093   3.985  12.481   3.690
57420SOL    HW274094   3.861  12.442   3.768
57421SOL     OW74095   2.152   5.499   8.192
57421SOL    HW174096   2.142   5.472   8.283
57421SOL    HW274097   2.091   5.572   8.181
57422SOL     OW74098   0.163  11.729   2.136
57422SOL    HW174099   0.090  11.705   2.079
57422SOL    HW274100   0.126  11.794   2.196
57423SOL     OW74101   1.377   0.519   5.755
57423SOL    HW174102   1.433   0.493   5.828
57423SOL    HW274103   1.288   0.515   5.789
57424SOL     OW74104  12.438   8.473   2.090
57424SOL    HW174105  12.400   8.527   2.020
57424SOL    HW274106  12.433   8.384   2.057
57425SOL     OW74107  11.541   0.412  14.157
57425SOL    HW174108  11.471   0.453  14.208
57425SOL    HW274109  11.550   0.467  14.080
57426SOL     OW74110   5.289   8.857   6.565
57426SOL    HW174111   5.278   8.936   6.619
57426SOL    HW274112   5.384   8.843   6.564
57427SOL     OW74113  13.847   3.013   8.810
57427SOL    HW174114  13.858   3.027   8.716
57427SOL    HW274115  13.753   3.001   8.822
57428SOL     OW74116  11.281  10.606  11.267
57428SOL    HW174117  11.325  10.690  11.256
57428SOL    HW274118  11.342  10.553  11.318
57429SOL     OW74119   5.780   3.249   4.861
57429SOL    HW174120   5.853   3.307   4.878
57429SOL    HW274121   5.814   3.183   4.801
57430SOL     OW74122   9.317  14.668   0.832
57430SOL    HW174123   9.303  14.579   0.799
57430SOL    HW274124   9.288  14.725   0.761
57431SOL     OW74125   8.871  13.293   5.050
57431SOL    HW174126   8.817  13.263   4.977
57431SOL    HW274127   8.903  13.212   5.090
57432SOL     OW74128   3.291   0.285   9.013
57432SOL    HW174129   3.349   0.220   8.973
57432SOL    HW274130   3.345   0.330   9.077
57433SOL     OW74131   4.441   0.953  10.713
57433SOL    HW174132   4.494   1.025  10.677
57433SOL    HW274133   4.372   0.939  10.649
57434SOL     OW74134  14.873  11.465  11.088
57434SOL    HW174135  14.829  11.491  11.007
57434SOL    HW274136   0.087  11.462  11.065
57435SOL     OW74137   0.557  11.965  12.656
57435SOL    HW174138   0.565  11.953  12.751
57435SOL    HW274139   0.532  11.879  12.623
57436SOL     OW74140   0.476  14.596   5.964
57436SOL    HW174141   0.400  14.653   5.968
57436SOL    HW274142   0.497  14.590   5.871
57437SOL     OW74143   6.710   7.160  13.823
57437SOL    HW174144   6.798   7.161  13.861
57437SOL    HW274145   6.660   7.222  13.876
57438SOL     OW74146   3.053   5.484   0.178
57438SOL    HW174147   2.971   5.434   0.178
57438SOL    HW274148   3.118   5.422   0.143
57439SOL     OW74149  10.658   0.598   4.222
57439SOL    HW174150  10.599   0.526   4.247
57439SOL    HW274151  10.740   0.554   4.200
57440SOL     OW74152   6.819   8.396   2.508
57440SOL    HW174153   6.793   8.406   2.600
57440SOL    HW274154   6.738   8.412   2.459
57441SOL     OW74155  11.210  14.585   3.684
57441SOL    HW174156  11.207  14.663   3.628
57441SOL    HW274157  11.131  14.536   3.660
57442SOL     OW74158   7.424   1.629  13.579
57442SOL    HW174159   7.361   1.695  13.608
57442SOL    HW274160   7.493   1.632  13.646
57443SOL     OW74161  10.524   4.030   3.107
57443SOL    HW174162  10.582   4.092   3.152
57443SOL    HW274163  10.440   4.039   3.151
57444SOL     OW74164   7.852   0.536  14.727
57444SOL    HW174165   7.769   0.489  14.712
57444SOL    HW274166   7.917   0.467  14.739
57445SOL     OW74167  12.482   7.827  10.421
57445SOL    HW174168  12.471   7.835  10.326
57445SOL    HW274169  12.567   7.783  10.432
57446SOL     OW74170  12.605   4.569   5.394
57446SOL    HW174171  12.585   4.662   5.401
57446SOL    HW274172  12.606   4.537   5.484
57447SOL     OW74173   4.837   5.785   4.208
57447SOL    HW174174   4.799   5.805   4.293
57447SOL    HW274175   4.767   5.802   4.145
57448SOL     OW74176   2.717   1.378   8.535
57448SOL    HW174177   2.670   1.356   8.616
57448SOL    HW274178   2.742   1.469   8.547
57449SOL     OW74179   5.132   8.422  14.539
57449SOL    HW174180   5.201   8.356  14.532
57449SOL    HW274181   5.135   8.469  14.456
57450SOL     OW74182   9.692   6.049   3.574
57450SOL    HW174183   9.773   6.009   3.542
57450SOL    HW274184   9.630   6.039   3.502
57451SOL     OW74185   1.341  12.337  12.522
57451SOL    HW174186   1.269  12.326  12.585
57451SOL    HW274187   1.388  12.254  12.524
57452SOL     OW74188   3.917  10.352  13.323
57452SOL    HW174189   3.863  10.278  13.298
57452SOL    HW274190   3.883  10.425  13.272
57453SOL     OW74191   3.970   2.488  10.221
57453SOL    HW174192   4.015   2.539  10.288
57453SOL    HW274193   3.937   2.411  10.267
57454SOL     OW74194   9.295   5.073  10.786
57454SOL    HW174195   9.219   5.126  10.762
57454SOL    HW274196   9.318   5.103  10.874
57455SOL     OW74197   3.386   6.752   5.556
57455SOL    HW174198   3.382   6.669   5.507
57455SOL    HW274199   3.465   6.745   5.609
57456SOL     OW74200   6.715   5.290   8.126
57456SOL    HW174201   6.753   5.340   8.198
57456SOL    HW274202   6.650   5.233   8.166
57457SOL     OW74203   8.863   7.698  13.472
57457SOL    HW174204   8.849   7.784  13.513
57457SOL    HW274205   8.950   7.705  13.433
57458SOL     OW74206   5.985   3.136   7.032
57458SOL    HW174207   5.991   3.205   6.966
57458SOL    HW274208   6.076   3.111   7.050
57459SOL     OW74209  10.462   2.573   5.919
57459SOL    HW174210  10.413   2.574   6.000
57459SOL    HW274211  10.445   2.658   5.879
57460SOL     OW74212   2.677  11.637   9.012
57460SOL    HW174213   2.712  11.548   9.014
57460SOL    HW274214   2.709  11.678   9.092
57461SOL     OW74215   2.832   0.711   2.480
57461SOL    HW174216   2.802   0.795   2.445
57461SOL    HW274217   2.840   0.725   2.574
57462SOL     OW74218   5.992  12.233   1.463
57462SOL    HW174219   6.087  12.232   1.454
57462SOL    HW274220   5.965  12.317   1.426
57463SOL     OW74221   7.178   3.199   9.691
57463SOL    HW174222   7.179   3.186   9.786
57463SOL    HW274223   7.118   3.132   9.658
57464SOL     OW74224  10.274  13.607   5.373
57464SOL    HW174225  10.200  13.617   5.433
57464SOL    HW274226  10.346  13.577   5.429
57465SOL     OW74227   7.911   0.290  11.404
57465SOL    HW174228   7.847   0.225  11.433
57465SOL    HW274229   7.896   0.366  11.460
57466SOL     OW74230  13.584  12.108   2.155
57466SOL    HW174231  13.503  12.105   2.104
57466SOL    HW274232  13.583  12.026   2.204
57467SOL     OW74233  11.523   1.678   4.769
57467SOL    HW174234  11.513   1.582   4.769
57467SOL    HW274235  11.535   1.701   4.861
57468SOL     OW74236   4.377   8.653   1.317
57468SOL    HW174237   4.392   8.640   1.223
57468SOL    HW274238   4.284   8.637   1.329
57469SOL     OW74239   6.620  10.425   0.275
57469SOL    HW174240   6.553  10.403   0.210
57469SOL    HW274241   6.577  10.487   0.335
57470SOL     OW74242   4.594  14.503   4.135
57470SOL    HW174243   4.686  14.529   4.128
57470SOL    HW274244   4.552  14.577   4.178
57471SOL     OW74245  10.342   4.988   5.411
57471SOL    HW174246  10.394   5.069   5.403
57471SOL    HW274247  10.261   5.007   5.364
57472SOL     OW74248   8.339   2.585   1.902
57472SOL    HW174249   8.430   2.590   1.872
57472SOL    HW274250   8.342   2.519   1.972
57473SOL     OW74251   0.448   4.301   3.402
57473SOL    HW174252   0.458   4.395   3.416
57473SOL    HW274253   0.529   4.275   3.358
57474SOL     OW74254   6.963   4.012   5.651
57474SOL    HW174255   6.931   3.932   5.610
57474SOL    HW274256   6.915   4.082   5.607
57475SOL     OW74257   4.979  13.349   5.511
57475SOL    HW174258   5.070  13.336   5.539
57475SOL    HW274259   4.944  13.414   5.572
57476SOL     OW74260   3.290   6.912  11.500
57476SOL    HW174261   3.298   6.830  11.451
57476SOL    HW274262   3.290   6.980  11.433
57477SOL     OW74263   2.397   6.231   2.468
57477SOL    HW174264   2.391   6.315   2.515
57477SOL    HW274265   2.307   6.197   2.469
57478SOL     OW74266   8.692  11.691   7.717
57478SOL    HW174267   8.722  11.734   7.637
57478SOL    HW274268   8.660  11.762   7.773
57479SOL     OW74269   8.070   2.367  12.563
57479SOL    HW174270   8.054   2.310  12.488
57479SOL    HW274271   7.983   2.380  12.602
57480SOL     OW74272   9.526  13.755  10.629
57480SOL    HW174273   9.544  13.810  10.706
57480SOL    HW274274   9.439  13.783  10.600
57481SOL     OW74275  12.550   3.954  11.580
57481SOL    HW174276  12.479   3.931  11.520
57481SOL    HW274277  12.576   3.871  11.620
57482SOL     OW74278   9.373   4.697   1.433
57482SOL    HW174279   9.313   4.743   1.374
57482SOL    HW274280   9.447   4.672   1.378
57483SOL     OW74281   7.892   8.956  11.877
57483SOL    HW174282   7.845   9.027  11.833
57483SOL    HW274283   7.899   8.984  11.968
57484SOL     OW74284  14.464   5.395  11.922
57484SOL    HW174285  14.413   5.467  11.886
57484SOL    HW274286  14.413   5.363  11.996
57485SOL     OW74287   2.290   1.759  11.401
57485SOL    HW174288   2.279   1.667  11.375
57485SOL    HW274289   2.340   1.798  11.329
57486SOL     OW74290  10.626   4.194  13.048
57486SOL    HW174291  10.580   4.252  12.987
57486SOL    HW274292  10.706   4.170  13.002
57487SOL     OW74293  12.056   5.799   5.585
57487SOL    HW174294  12.079   5.840   5.668
57487SOL    HW274295  12.071   5.868   5.520
57488SOL     OW74296   9.900  11.697   6.064
57488SOL    HW174297   9.804  11.695   6.069
57488SOL    HW274298   9.926  11.605   6.063
57489SOL     OW74299   3.086   8.230   5.374
57489SOL    HW174300   3.157   8.204   5.433
57489SOL    HW274301   3.113   8.315   5.340
57490SOL     OW74302  10.461   0.805   5.896
57490SOL    HW174303  10.548   0.778   5.927
57490SOL    HW274304  10.474   0.894   5.863
57491SOL     OW74305   9.418  14.468  11.676
57491SOL    HW174306   9.484  14.402  11.696
57491SOL    HW274307   9.429  14.534  11.744
57492SOL     OW74308   1.014   1.018  13.765
57492SOL    HW174309   0.930   1.064  13.767
57492SOL    HW274310   1.079   1.085  13.782
57493SOL     OW74311   2.257  11.539   1.359
57493SOL    HW174312   2.308  11.526   1.439
57493SOL    HW274313   2.277  11.629   1.333
57494SOL     OW74314  14.605   6.653   1.196
57494SOL    HW174315  14.619   6.614   1.282
57494SOL    HW274316  14.686   6.634   1.148
57495SOL     OW74317  13.600  12.052   6.958
57495SOL    HW174318  13.510  12.022   6.945
57495SOL    HW274319  13.644  11.979   7.001
57496SOL     OW74320  14.563   0.560   6.371
57496SOL    HW174321  14.607   0.594   6.449
57496SOL    HW274322  14.486   0.514   6.406
57497SOL     OW74323  12.520   2.159  13.724
57497SOL    HW174324  12.533   2.095  13.794
57497SOL    HW274325  12.539   2.243  13.765
57498SOL     OW74326   2.591   6.158  10.004
57498SOL    HW174327   2.673   6.124  10.039
57498SOL    HW274328   2.611   6.181   9.913
57499SOL     OW74329   3.672   1.930  13.181
57499SOL    HW174330   3.654   1.951  13.090
57499SOL    HW274331   3.587   1.908  13.219
57500SOL     OW74332   1.639   5.463   3.731
57500SOL    HW174333   1.605   5.383   3.692
57500SOL    HW274334   1.571   5.490   3.793
57501SOL     OW74335  12.551  12.906   6.543
57501SOL    HW174336  12.641  12.919   6.514
57501SOL    HW274337  12.529  12.986   6.590
57502SOL     OW74338  11.997   2.198  12.241
57502SOL    HW174339  11.912   2.159  12.261
57502SOL    HW274340  12.009   2.265  12.308
57503SOL     OW74341   6.181  13.262  12.886
57503SOL    HW174342   6.149  13.182  12.845
57503SOL    HW274343   6.118  13.329  12.861
57504SOL     OW74344  12.718  10.936   5.767
57504SOL    HW174345  12.674  10.851   5.772
57504SOL    HW274346  12.733  10.961   5.859
57505SOL     OW74347  14.121   0.869   3.595
57505SOL    HW174348  14.116   0.873   3.499
57505SOL    HW274349  14.124   0.961   3.622
57506SOL     OW74350  14.702  11.218   4.869
57506SOL    HW174351  14.791  11.190   4.891
57506SOL    HW274352  14.711  11.265   4.786
57507SOL     OW74353  10.226  14.752   7.637
57507SOL    HW174354  10.318  14.748   7.661
57507SOL    HW274355  10.194  14.834   7.675
57508SOL     OW74356  11.035  10.758   5.603
57508SOL    HW174357  11.035  10.821   5.676
57508SOL    HW274358  11.034  10.672   5.645
57509SOL     OW74359   0.176  14.863   7.776
57509SOL    HW174360   0.198   0.077   7.773
57509SOL    HW274361   0.119  14.849   7.700
57510SOL     OW74362   1.639   9.161  13.542
57510SOL    HW174363   1.572   9.093  13.554
57510SOL    HW274364   1.714   9.130  13.593
57511SOL     OW74365  11.716  11.783   2.015
57511SOL    HW174366  11.664  11.852   1.975
57511SOL    HW274367  11.796  11.780   1.962
57512SOL     OW74368   6.589   5.778   8.490
57512SOL    HW174369   6.511   5.729   8.512
57512SOL    HW274370   6.608   5.755   8.399
57513SOL     OW74371   5.804   1.376  13.665
57513SOL    HW174372   5.794   1.438  13.737
57513SOL    HW274373   5.717   1.371  13.624
57514SOL     OW74374   9.429  11.253  12.864
57514SOL    HW174375   9.394  11.308  12.794
57514SOL    HW274376   9.367  11.180  12.871
57515SOL     OW74377  11.009   1.802  11.002
57515SOL    HW174378  10.991   1.868  10.935
57515SOL    HW274379  10.925   1.787  11.045
57516SOL     OW74380   5.787   0.105  11.462
57516SOL    HW174381   5.817   0.030  11.410
57516SOL    HW274382   5.736   0.066  11.533
57517SOL     OW74383  13.952   1.183   2.200
57517SOL    HW174384  13.902   1.259   2.228
57517SOL    HW274385  14.002   1.158   2.277
57518SOL     OW74386   6.740   1.729   0.348
57518SOL    HW174387   6.673   1.733   0.415
57518SOL    HW274388   6.724   1.804   0.292
57519SOL     OW74389  14.698  12.076   6.407
57519SOL    HW174390  14.756  12.023   6.461
57519SOL    HW274391  14.620  12.022   6.394
57520SOL     OW74392   7.066   6.947  12.522
57520SOL    HW174393   7.118   6.925  12.445
57520SOL    HW274394   7.102   7.030  12.553
57521SOL     OW74395   7.968   5.024   6.542
57521SOL    HW174396   7.892   4.973   6.571
57521SOL    HW274397   7.956   5.033   6.447
57522SOL     OW74398   8.374   6.628  13.060
57522SOL    HW174399   8.417   6.576  13.128
57522SOL    HW274400   8.444   6.682  13.023
57523SOL     OW74401   7.303   1.974  14.369
57523SOL    HW174402   7.322   1.881  14.376
57523SOL    HW274403   7.244   1.981  14.294
57524SOL     OW74404  13.901   7.435   5.480
57524SOL    HW174405  13.919   7.359   5.536
57524SOL    HW274406  13.908   7.510   5.538
57525SOL     OW74407   1.949  14.317   8.817
57525SOL    HW174408   1.996  14.277   8.889
57525SOL    HW274409   1.885  14.375   8.858
57526SOL     OW74410  11.917  12.448  12.640
57526SOL    HW174411  11.903  12.354  12.654
57526SOL    HW274412  11.972  12.452  12.562
57527SOL     OW74413   2.726   0.814   1.223
57527SOL    HW174414   2.750   0.725   1.200
57527SOL    HW274415   2.804   0.849   1.267
57528SOL     OW74416  14.072   3.831  11.175
57528SOL    HW174417  14.054   3.916  11.216
57528SOL    HW274418  13.996   3.777  11.196
57529SOL     OW74419  13.100  10.997   1.236
57529SOL    HW174420  13.179  11.041   1.202
57529SOL    HW274421  13.047  10.980   1.158
57530SOL     OW74422   8.081   8.888  12.475
57530SOL    HW174423   8.057   8.852  12.389
57530SOL    HW274424   8.127   8.816  12.518
57531SOL     OW74425   8.656   4.446  13.832
57531SOL    HW174426   8.714   4.517  13.803
57531SOL    HW274427   8.708   4.399  13.898
57532SOL     OW74428  10.581   7.533   8.550
57532SOL    HW174429  10.491   7.518   8.579
57532SOL    HW274430  10.634   7.526   8.629
57533SOL     OW74431   7.580  10.162   0.536
57533SOL    HW174432   7.579  10.221   0.461
57533SOL    HW274433   7.492  10.122   0.536
57534SOL     OW74434   4.645   5.507   5.289
57534SOL    HW174435   4.696   5.505   5.370
57534SOL    HW274436   4.624   5.600   5.276
57535SOL     OW74437   8.446   1.486   0.326
57535SOL    HW174438   8.485   1.557   0.275
57535SOL    HW274439   8.521   1.432   0.352
57536SOL     OW74440  10.012   2.712   7.567
57536SOL    HW174441  10.093   2.761   7.583
57536SOL    HW274442   9.955   2.734   7.640
57537SOL     OW74443  11.586   4.750  14.626
57537SOL    HW174444  11.556   4.752  14.535
57537SOL    HW274445  11.561   4.664  14.658
57538SOL     OW74446  14.691   3.465   6.857
57538SOL    HW174447  14.723   3.399   6.795
57538SOL    HW274448  14.768   3.520   6.875
57539SOL     OW74449   4.488   5.988   3.858
57539SOL    HW174450   4.423   6.057   3.845
57539SOL    HW274451   4.535   5.983   3.775
57540SOL     OW74452   8.248   9.819   5.641
57540SOL    HW174453   8.168   9.769   5.624
57540SOL    HW274454   8.315   9.753   5.655
57541SOL     OW74455  13.875   2.679   4.052
57541SOL    HW174456  13.801   2.618   4.061
57541SOL    HW274457  13.907   2.664   3.963
57542SOL     OW74458   4.562  10.829   3.379
57542SOL    HW174459   4.515  10.759   3.424
57542SOL    HW274460   4.494  10.878   3.333
57543SOL     OW74461   9.958   1.112   3.270
57543SOL    HW174462   9.998   1.198   3.288
57543SOL    HW274463   9.864   1.128   3.275
57544SOL     OW74464  14.331   4.387   7.543
57544SOL    HW174465  14.288   4.380   7.458
57544SOL    HW274466  14.304   4.308   7.590
57545SOL     OW74467   9.268  11.604  12.077
57545SOL    HW174468   9.264  11.641  11.988
57545SOL    HW274469   9.270  11.681  12.135
57546SOL     OW74470  12.619   5.733   4.443
57546SOL    HW174471  12.582   5.815   4.475
57546SOL    HW274472  12.696   5.719   4.497
57547SOL     OW74473   1.757  12.486   6.015
57547SOL    HW174474   1.684  12.425   6.004
57547SOL    HW274475   1.726  12.567   5.975
57548SOL     OW74476   0.708   8.646   2.940
57548SOL    HW174477   0.754   8.664   3.022
57548SOL    HW274478   0.777   8.639   2.874
57549SOL     OW74479  14.110   8.437  14.433
57549SOL    HW174480  14.126   8.464  14.343
57549SOL    HW274481  14.176   8.370  14.451
57550SOL     OW74482   9.366  10.448   1.504
57550SOL    HW174483   9.350  10.406   1.419
57550SOL    HW274484   9.364  10.377   1.567
57551SOL     OW74485   3.725   0.935   6.767
57551SOL    HW174486   3.657   0.977   6.821
57551SOL    HW274487   3.676   0.888   6.700
57552SOL     OW74488   9.991  10.400  14.543
57552SOL    HW174489   9.982  10.463  14.471
57552SOL    HW274490  10.080  10.366  14.533
57553SOL     OW74491  11.870  12.113  13.462
57553SOL    HW174492  11.821  12.063  13.527
57553SOL    HW274493  11.807  12.176  13.427
57554SOL     OW74494  10.628  13.016   3.266
57554SOL    HW174495  10.687  13.002   3.340
57554SOL    HW274496  10.545  12.978   3.293
57555SOL     OW74497   8.088  13.201  10.310
57555SOL    HW174498   8.139  13.142  10.254
57555SOL    HW274499   8.076  13.152  10.392
57556SOL     OW74500   7.023  14.527   5.474
57556SOL    HW174501   6.981  14.447   5.505
57556SOL    HW274502   7.113  14.520   5.505
57557SOL     OW74503   8.148   3.547   0.264
57557SOL    HW174504   8.159   3.591   0.180
57557SOL    HW274505   8.072   3.590   0.303
57558SOL     OW74506   4.820   0.141   8.728
57558SOL    HW174507   4.840   0.231   8.753
57558SOL    HW274508   4.905   0.098   8.724
57559SOL     OW74509   2.643  11.021  11.096
57559SOL    HW174510   2.650  11.068  11.013
57559SOL    HW274511   2.566  10.966  11.087
57560SOL     OW74512   7.166   0.210   3.777
57560SOL    HW174513   7.098   0.166   3.828
57560SOL    HW274514   7.189   0.288   3.829
57561SOL     OW74515  12.764   5.373  10.338
57561SOL    HW174516  12.677   5.358  10.374
57561SOL    HW274517  12.810   5.290  10.349
57562SOL     OW74518   5.506   2.600   7.938
57562SOL    HW174519   5.429   2.656   7.940
57562SOL    HW274520   5.472   2.510   7.941
57563SOL     OW74521   8.638   6.979   9.399
57563SOL    HW174522   8.665   7.038   9.469
57563SOL    HW274523   8.551   6.949   9.426
57564SOL     OW74524   7.594   1.488  11.454
57564SOL    HW174525   7.585   1.417  11.390
57564SOL    HW274526   7.520   1.546  11.437
57565SOL     OW74527  14.506   7.421  12.845
57565SOL    HW174528  14.533   7.498  12.795
57565SOL    HW274529  14.574   7.412  12.912
57566SOL     OW74530   9.284  11.441   0.516
57566SOL    HW174531   9.300  11.349   0.536
57566SOL    HW274532   9.319  11.489   0.592
57567SOL     OW74533   7.749   3.531   9.300
57567SOL    HW174534   7.687   3.548   9.371
57567SOL    HW274535   7.717   3.584   9.227
57568SOL     OW74536   0.292   6.072   3.975
57568SOL    HW174537   0.224   6.139   3.963
57568SOL    HW274538   0.333   6.064   3.889
57569SOL     OW74539  14.507   9.698   9.079
57569SOL    HW174540  14.440   9.746   9.032
57569SOL    HW274541  14.487   9.713   9.172
57570SOL     OW74542   6.102   4.291   1.049
57570SOL    HW174543   6.197   4.298   1.056
57570SOL    HW274544   6.069   4.355   1.113
57571SOL     OW74545   5.057   0.572   5.912
57571SOL    HW174546   5.109   0.635   5.961
57571SOL    HW274547   4.969   0.579   5.949
57572SOL     OW74548   3.102   1.446   5.889
57572SOL    HW174549   3.068   1.507   5.956
57572SOL    HW274550   3.032   1.440   5.825
57573SOL     OW74551   7.670   8.743  11.141
57573SOL    HW174552   7.712   8.820  11.180
57573SOL    HW274553   7.578   8.769  11.129
57574SOL     OW74554  14.849   4.475   3.557
57574SOL    HW174555  14.832   4.488   3.650
57574SOL    HW274556  14.775   4.516   3.512
57575SOL     OW74557   4.533   0.308   1.766
57575SOL    HW174558   4.504   0.246   1.833
57575SOL    HW274559   4.506   0.394   1.799
57576SOL     OW74560   3.243   7.355   1.166
57576SOL    HW174561   3.194   7.426   1.205
57576SOL    HW274562   3.203   7.343   1.080
57577SOL     OW74563   2.197   2.808   1.564
57577SOL    HW174564   2.228   2.813   1.654
57577SOL    HW274565   2.201   2.897   1.531
57578SOL     OW74566  14.698   1.460   9.548
57578SOL    HW174567  14.727   1.414   9.626
57578SOL    HW274568  14.611   1.425   9.530
57579SOL     OW74569   4.342   2.896   8.942
57579SOL    HW174570   4.317   2.875   9.032
57579SOL    HW274571   4.261   2.887   8.892
57580SOL     OW74572   8.461  10.957  10.741
57580SOL    HW174573   8.537  10.901  10.757
57580SOL    HW274574   8.466  10.976  10.647
57581SOL     OW74575  11.978   9.831   0.874
57581SOL    HW174576  11.904   9.770   0.878
57581SOL    HW274577  12.039   9.790   0.811
57582SOL     OW74578  12.923   7.572   7.740
57582SOL    HW174579  12.840   7.535   7.708
57582SOL    HW274580  12.981   7.496   7.749
57583SOL     OW74581   8.093   4.760  11.780
57583SOL    HW174582   8.062   4.696  11.845
57583SOL    HW274583   8.151   4.818  11.829
57584SOL     OW74584   3.962  10.288   5.982
57584SOL    HW174585   3.981  10.200   5.950
57584SOL    HW274586   3.867  10.294   5.981
57585SOL     OW74587  11.968   8.382   3.929
57585SOL    HW174588  12.057   8.411   3.912
57585SOL    HW274589  11.935   8.444   3.995
57586SOL     OW74590  10.593  11.170   2.117
57586SOL    HW174591  10.621  11.112   2.188
57586SOL    HW274592  10.610  11.258   2.149
57587SOL     OW74593   3.313   3.618   2.464
57587SOL    HW174594   3.282   3.617   2.374
57587SOL    HW274595   3.250   3.673   2.510
57588SOL     OW74596   3.760   1.257   2.232
57588SOL    HW174597   3.745   1.261   2.326
57588SOL    HW274598   3.817   1.181   2.220
57589SOL     OW74599   3.965  14.489  14.849
57589SOL    HW174600   3.894  14.427  14.867
57589SOL    HW274601   4.020  14.485   0.049
57590SOL     OW74602   3.982   6.389   6.827
57590SOL    HW174603   3.927   6.383   6.906
57590SOL    HW274604   4.054   6.329   6.844
57591SOL     OW74605   5.676   0.137   6.007
57591SOL    HW174606   5.715   0.063   6.054
57591SOL    HW274607   5.616   0.097   5.945
57592SOL     OW74608   1.031   9.538   4.881
57592SOL    HW174609   1.087   9.586   4.943
57592SOL    HW274610   0.946   9.581   4.889
57593SOL     OW74611   4.611   5.563   7.895
57593SOL    HW174612   4.684   5.509   7.926
57593SOL    HW274613   4.571   5.597   7.975
57594SOL     OW74614   8.011   3.564  14.552
57594SOL    HW174615   8.079   3.505  14.519
57594SOL    HW274616   7.961   3.589  14.475
57595SOL     OW74617   7.833  10.758   3.245
57595SOL    HW174618   7.895  10.685   3.239
57595SOL    HW274619   7.786  10.756   3.162
57596SOL     OW74620   8.432   4.399   8.049
57596SOL    HW174621   8.475   4.480   8.076
57596SOL    HW274622   8.473   4.376   7.966
57597SOL     OW74623   2.333   1.943  10.539
57597SOL    HW174624   2.379   1.885  10.600
57597SOL    HW274625   2.256   1.893  10.511
57598SOL     OW74626   4.455   2.710  12.484
57598SOL    HW174627   4.438   2.735  12.394
57598SOL    HW274628   4.489   2.790  12.525
57599SOL     OW74629   9.503   8.132   3.517
57599SOL    HW174630   9.548   8.140   3.432
57599SOL    HW274631   9.495   8.037   3.530
57600SOL     OW74632   7.524  10.816   2.730
57600SOL    HW174633   7.566  10.901   2.716
57600SOL    HW274634   7.464  10.807   2.656
57601SOL     OW74635   8.776  11.027   6.296
57601SOL    HW174636   8.689  10.997   6.271
57601SOL    HW274637   8.813  10.954   6.347
57602SOL     OW74638   5.539   4.841  13.654
57602SOL    HW174639   5.477   4.781  13.695
57602SOL    HW274640   5.539   4.816  13.562
57603SOL     OW74641  14.187   7.060  10.580
57603SOL    HW174642  14.205   6.971  10.549
57603SOL    HW274643  14.237   7.068  10.660
57604SOL     OW74644   1.564   0.374   2.285
57604SOL    HW174645   1.588   0.408   2.199
57604SOL    HW274646   1.637   0.318   2.311
57605SOL     OW74647   7.163  12.134   4.950
57605SOL    HW174648   7.193  12.079   5.022
57605SOL    HW274649   7.235  12.195   4.933
57606SOL     OW74650   9.436   7.317   6.932
57606SOL    HW174651   9.409   7.384   6.869
57606SOL    HW274652   9.426   7.234   6.885
57607SOL     OW74653   0.990  10.677   2.155
57607SOL    HW174654   0.987  10.734   2.079
57607SOL    HW274655   1.079  10.686   2.189
57608SOL     OW74656  14.173  13.509   0.982
57608SOL    HW174657  14.092  13.501   1.032
57608SOL    HW274658  14.197  13.601   0.990
57609SOL     OW74659  14.603   7.010   8.529
57609SOL    HW174660  14.521   6.962   8.539
57609SOL    HW274661  14.577   7.102   8.533
57610SOL     OW74662  14.774  14.462   5.517
57610SOL    HW174663  14.802  14.416   5.596
57610SOL    HW274664  14.687  14.496   5.539
57611SOL     OW74665   3.121   2.663   3.163
57611SOL    HW174666   3.129   2.746   3.209
57611SOL    HW274667   3.061   2.611   3.216
57612SOL     OW74668   6.135  13.643   0.701
57612SOL    HW174669   6.126  13.563   0.650
57612SOL    HW274670   6.221  13.677   0.676
57613SOL     OW74671   4.766  13.206   7.529
57613SOL    HW174672   4.758  13.133   7.467
57613SOL    HW274673   4.767  13.284   7.473
57614SOL     OW74674  11.887   5.549   3.443
57614SOL    HW174675  11.824   5.589   3.503
57614SOL    HW274676  11.970   5.551   3.492
57615SOL     OW74677   5.755  13.337   3.032
57615SOL    HW174678   5.818  13.388   3.082
57615SOL    HW274679   5.745  13.256   3.082
57616SOL     OW74680   3.182   9.586  13.075
57616SOL    HW174681   3.260   9.545  13.113
57616SOL    HW274682   3.204   9.598  12.983
57617SOL     OW74683   5.618  12.673   3.816
57617SOL    HW174684   5.706  12.687   3.851
57617SOL    HW274685   5.599  12.752   3.766
57618SOL     OW74686   4.498   5.426  11.752
57618SOL    HW174687   4.471   5.483  11.680
57618SOL    HW274688   4.439   5.449  11.824
57619SOL     OW74689  12.518  10.147   5.290
57619SOL    HW174690  12.446  10.099   5.332
57619SOL    HW274691  12.522  10.112   5.201
57620SOL     OW74692  11.163   6.183   6.610
57620SOL    HW174693  11.095   6.233   6.564
57620SOL    HW274694  11.228   6.163   6.543
57621SOL     OW74695   9.263   5.378  13.083
57621SOL    HW174696   9.235   5.289  13.103
57621SOL    HW274697   9.356   5.370  13.065
57622SOL     OW74698   0.052  14.624   1.267
57622SOL    HW174699   0.088  14.713   1.261
57622SOL    HW274700   0.082  14.581   1.186
57623SOL     OW74701   3.526  14.513  13.108
57623SOL    HW174702   3.579  14.464  13.045
57623SOL    HW274703   3.476  14.446  13.155
57624SOL     OW74704  10.584   0.698   3.969
57624SOL    HW174705  10.592   0.704   4.064
57624SOL    HW274706  10.648   0.631   3.944
57625SOL     OW74707   3.350   1.921   7.271
57625SOL    HW174708   3.394   2.003   7.290
57625SOL    HW274709   3.346   1.875   7.355
57626SOL     OW74710   2.238  12.580  12.990
57626SOL    HW174711   2.170  12.620  13.045
57626SOL    HW274712   2.300  12.543  13.053
57627SOL     OW74713   7.454   3.118  11.487
57627SOL    HW174714   7.449   3.209  11.516
57627SOL    HW274715   7.545   3.105  11.463
57628SOL     OW74716  12.414   3.632   0.765
57628SOL    HW174717  12.474   3.706   0.751
57628SOL    HW274718  12.336   3.656   0.715
57629SOL     OW74719   5.825   2.464  13.845
57629SOL    HW174720   5.767   2.513  13.787
57629SOL    HW274721   5.785   2.377  13.851
57630SOL     OW74722  14.714   9.447   2.216
57630SOL    HW174723  14.778   9.469   2.148
57630SOL    HW274724  14.759   9.385   2.273
57631SOL     OW74725   3.331  14.186   0.474
57631SOL    HW174726   3.389  14.176   0.550
57631SOL    HW274727   3.247  14.212   0.512
57632SOL     OW74728   1.762   8.000   1.248
57632SOL    HW174729   1.789   7.913   1.218
57632SOL    HW274730   1.679   7.986   1.294
57633SOL     OW74731   5.333   2.515   3.920
57633SOL    HW174732   5.400   2.476   3.977
57633SOL    HW274733   5.291   2.582   3.974
57634SOL     OW74734   8.195   7.080   4.430
57634SOL    HW174735   8.126   7.123   4.380
57634SOL    HW274736   8.191   7.120   4.517
57635SOL     OW74737   2.122  11.997  10.787
57635SOL    HW174738   2.041  12.020  10.742
57635SOL    HW274739   2.180  12.071  10.771
57636SOL     OW74740   9.633   7.897   7.826
57636SOL    HW174741   9.623   7.992   7.823
57636SOL    HW274742   9.603   7.871   7.913
57637SOL     OW74743   8.524   1.234   8.515
57637SOL    HW174744   8.485   1.161   8.563
57637SOL    HW274745   8.613   1.205   8.494
57638SOL     OW74746   0.522   7.703   7.170
57638SOL    HW174747   0.605   7.700   7.121
57638SOL    HW274748   0.501   7.796   7.176
57639SOL     OW74749   3.853   7.849   6.626
57639SOL    HW174750   3.759   7.858   6.641
57639SOL    HW274751   3.892   7.854   6.713
57640SOL     OW74752  12.161   9.365   7.915
57640SOL    HW174753  12.075   9.406   7.917
57640SOL    HW274754  12.176   9.335   8.005
57641SOL     OW74755   8.464   7.785  12.488
57641SOL    HW174756   8.416   7.796  12.406
57641SOL    HW274757   8.522   7.710  12.472
57642SOL     OW74758   0.541   3.506   8.258
57642SOL    HW174759   0.533   3.596   8.288
57642SOL    HW274760   0.504   3.453   8.329
57643SOL     OW74761   8.914   1.148   9.398
57643SOL    HW174762   8.844   1.197   9.441
57643SOL    HW274763   8.982   1.213   9.381
57644SOL     OW74764   1.302   1.876   8.082
57644SOL    HW174765   1.395   1.855   8.075
57644SOL    HW274766   1.262   1.837   8.004
57645SOL     OW74767   8.388  10.020  10.154
57645SOL    HW174768   8.436  10.100  10.132
57645SOL    HW274769   8.448   9.949  10.131
57646SOL     OW74770  12.589   7.416   5.293
57646SOL    HW174771  12.589   7.463   5.376
57646SOL    HW274772  12.556   7.480   5.229
57647SOL     OW74773   1.072   4.923  14.075
57647SOL    HW174774   1.075   5.014  14.045
57647SOL    HW274775   1.161   4.903  14.102
57648SOL     OW74776  12.562   6.625   2.608
57648SOL    HW174777  12.562   6.567   2.683
57648SOL    HW274778  12.576   6.568   2.533
57649SOL     OW74779   2.386   3.803   6.484
57649SOL    HW174780   2.391   3.780   6.391
57649SOL    HW274781   2.465   3.767   6.523
57650SOL     OW74782   8.699  10.418   4.173
57650SOL    HW174783   8.617  10.428   4.125
57650SOL    HW274784   8.755  10.367   4.114
57651SOL     OW74785   8.704   8.469  12.817
57651SOL    HW174786   8.692   8.378  12.793
57651SOL    HW274787   8.661   8.519  12.748
57652SOL     OW74788   5.488   4.486  13.398
57652SOL    HW174789   5.564   4.509  13.451
57652SOL    HW274790   5.525   4.456  13.315
57653SOL     OW74791  12.898   3.172   0.848
57653SOL    HW174792  12.948   3.252   0.828
57653SOL    HW274793  12.906   3.162   0.942
57654SOL     OW74794   2.372   9.032   8.274
57654SOL    HW174795   2.408   9.060   8.358
57654SOL    HW274796   2.450   9.008   8.222
57655SOL     OW74797   0.314   8.059   8.054
57655SOL    HW174798   0.277   8.133   8.006
57655SOL    HW274799   0.260   8.052   8.133
57656SOL     OW74800  13.579  10.296   4.528
57656SOL    HW174801  13.566  10.227   4.463
57656SOL    HW274802  13.639  10.257   4.592
57657SOL     OW74803   0.195   2.647   0.889
57657SOL    HW174804   0.111   2.692   0.878
57657SOL    HW274805   0.192   2.575   0.826
57658SOL     OW74806   2.170   2.243  14.725
57658SOL    HW174807   2.111   2.311  14.691
57658SOL    HW274808   2.255   2.286  14.732
57659SOL     OW74809   9.777  11.417   5.647
57659SOL    HW174810   9.709  11.460   5.596
57659SOL    HW274811   9.743  11.329   5.664
57660SOL     OW74812   5.001   6.022   9.174
57660SOL    HW174813   5.006   5.964   9.250
57660SOL    HW274814   5.092   6.051   9.161
57661SOL     OW74815  14.661  12.588  12.397
57661SOL    HW174816  14.711  12.587  12.479
57661SOL    HW274817  14.683  12.504  12.355
57662SOL     OW74818   9.074   0.155   0.964
57662SOL    HW174819   9.006   0.186   1.024
57662SOL    HW274820   9.031   0.148   0.879
57663SOL     OW74821   5.176   1.392   3.803
57663SOL    HW174822   5.178   1.374   3.709
57663SOL    HW274823   5.171   1.306   3.844
57664SOL     OW74824   7.630  13.409   4.673
57664SOL    HW174825   7.654  13.382   4.584
57664SOL    HW274826   7.534  13.400   4.675
57665SOL     OW74827   0.526   4.111   2.331
57665SOL    HW174828   0.490   4.194   2.299
57665SOL    HW274829   0.575   4.076   2.257
57666SOL     OW74830   6.085   7.355  13.510
57666SOL    HW174831   6.001   7.400  13.516
57666SOL    HW274832   6.094   7.308  13.593
57667SOL     OW74833  12.789  11.606   3.650
57667SOL    HW174834  12.824  11.555   3.577
57667SOL    HW274835  12.717  11.552   3.684
57668SOL     OW74836  10.085   4.325   8.422
57668SOL    HW174837  10.011   4.345   8.480
57668SOL    HW274838  10.158   4.375   8.458
57669SOL     OW74839  11.836   2.493   0.100
57669SOL    HW174840  11.821   2.462   0.011
57669SOL    HW274841  11.835   2.414   0.155
57670SOL     OW74842   9.402  11.959  10.226
57670SOL    HW174843   9.325  11.958  10.283
57670SOL    HW274844   9.378  11.901  10.154
57671SOL     OW74845   5.667  10.143  11.116
57671SOL    HW174846   5.709  10.080  11.058
57671SOL    HW274847   5.609  10.090  11.171
57672SOL     OW74848   2.716   0.337   3.143
57672SOL    HW174849   2.687   0.263   3.091
57672SOL    HW274850   2.642   0.398   3.143
57673SOL     OW74851   6.597  11.111   8.413
57673SOL    HW174852   6.677  11.060   8.401
57673SOL    HW274853   6.628  11.200   8.429
57674SOL     OW74854   0.620   6.691   8.862
57674SOL    HW174855   0.578   6.609   8.887
57674SOL    HW274856   0.573   6.720   8.784
57675SOL     OW74857  13.419   9.740   1.853
57675SOL    HW174858  13.453   9.651   1.842
57675SOL    HW274859  13.333   9.728   1.894
57676SOL     OW74860  10.899   3.118  12.054
57676SOL    HW174861  10.966   3.050  12.057
57676SOL    HW274862  10.945   3.196  12.023
57677SOL     OW74863  13.321  11.902   0.675
57677SOL    HW174864  13.360  11.911   0.588
57677SOL    HW274865  13.383  11.944   0.734
57678SOL     OW74866   6.939   8.508  13.786
57678SOL    HW174867   6.930   8.414  13.768
57678SOL    HW274868   6.968   8.545  13.702
57679SOL     OW74869  13.004   3.823  13.392
57679SOL    HW174870  13.075   3.806  13.453
57679SOL    HW274871  12.972   3.736  13.368
57680SOL     OW74872   2.597   1.072  12.060
57680SOL    HW174873   2.654   1.003  12.028
57680SOL    HW274874   2.521   1.026  12.096
57681SOL     OW74875   4.951  14.422   7.762
57681SOL    HW174876   4.903  14.352   7.718
57681SOL    HW274877   5.039  14.417   7.726
57682SOL     OW74878   7.124   7.758  11.302
57682SOL    HW174879   7.149   7.760  11.210
57682SOL    HW274880   7.131   7.665  11.327
57683SOL     OW74881   8.816  11.744   0.027
57683SOL    HW174882   8.871  11.713   0.099
57683SOL    HW274883   8.866  11.724  14.827
57684SOL     OW74884   0.019   0.095  11.246
57684SOL    HW174885  14.807   0.074  11.227
57684SOL    HW274886   0.035   0.178  11.201
57685SOL     OW74887  10.808   1.067   6.041
57685SOL    HW174888  10.878   1.132   6.043
57685SOL    HW274889  10.728   1.118   6.054
57686SOL     OW74890   9.802   9.015  12.519
57686SOL    HW174891   9.795   9.080  12.449
57686SOL    HW274892   9.848   8.941  12.478
57687SOL     OW74893  11.016  14.300  12.101
57687SOL    HW174894  11.107  14.293  12.074
57687SOL    HW274895  11.004  14.226  12.161
57688SOL     OW74896   7.110   4.769   3.793
57688SOL    HW174897   7.068   4.699   3.843
57688SOL    HW274898   7.162   4.817   3.858
57689SOL     OW74899   1.977   0.746  14.762
57689SOL    HW174900   2.032   0.817  14.795
57689SOL    HW274901   1.894   0.788  14.738
57690SOL     OW74902   2.090  14.824   0.813
57690SOL    HW174903   2.109  14.763   0.883
57690SOL    HW274904   2.065  14.769   0.739
57691SOL     OW74905  14.744   8.535   2.042
57691SOL    HW174906  14.837   8.557   2.051
57691SOL    HW274907  14.729   8.535   1.948
57692SOL     OW74908   0.600   4.975  14.208
57692SOL    HW174909   0.665   4.909  14.234
57692SOL    HW274910   0.566   5.008  14.290
57693SOL     OW74911  10.210  14.227   4.093
57693SOL    HW174912  10.146  14.273   4.038
57693SOL    HW274913  10.275  14.193   4.031
57694SOL     OW74914   9.436   5.652   9.868
57694SOL    HW174915   9.425   5.557   9.864
57694SOL    HW274916   9.449   5.678   9.777
57695SOL     OW74917  11.876   7.559   3.388
57695SOL    HW174918  11.879   7.654   3.400
57695SOL    HW274919  11.887   7.546   3.293
57696SOL     OW74920   2.343  14.872  14.354
57696SOL    HW174921   2.288  14.876  14.276
57696SOL    HW274922   2.371   0.084  14.368
57697SOL     OW74923   4.443  11.264   6.166
57697SOL    HW174924   4.359  11.291   6.203
57697SOL    HW274925   4.442  11.301   6.077
57698SOL     OW74926  11.142  13.420   3.143
57698SOL    HW174927  11.132  13.326   3.155
57698SOL    HW274928  11.071  13.444   3.082
57699SOL     OW74929   1.562   3.150   2.394
57699SOL    HW174930   1.529   3.061   2.409
57699SOL    HW274931   1.655   3.145   2.419
57700SOL     OW74932   4.393  12.463   1.966
57700SOL    HW174933   4.470  12.441   1.915
57700SOL    HW274934   4.319  12.442   1.909
57701SOL     OW74935   6.020   6.705   4.529
57701SOL    HW174936   6.059   6.745   4.452
57701SOL    HW274937   6.058   6.753   4.603
57702SOL     OW74938   0.967   4.593  10.489
57702SOL    HW174939   1.046   4.608  10.438
57702SOL    HW274940   0.927   4.679  10.498
57703SOL     OW74941   0.225  10.302   3.491
57703SOL    HW174942   0.187  10.249   3.422
57703SOL    HW274943   0.202  10.256   3.572
57704SOL     OW74944  13.828  10.424   6.767
57704SOL    HW174945  13.742  10.389   6.743
57704SOL    HW274946  13.846  10.490   6.701
57705SOL     OW74947  10.974  13.873  10.755
57705SOL    HW174948  10.982  13.852  10.662
57705SOL    HW274949  10.974  13.788  10.799
57706SOL     OW74950  12.507  13.566   9.592
57706SOL    HW174951  12.435  13.545   9.651
57706SOL    HW274952  12.586  13.551   9.644
57707SOL     OW74953  10.861   8.519   7.519
57707SOL    HW174954  10.804   8.585   7.480
57707SOL    HW274955  10.834   8.515   7.611
57708SOL     OW74956   5.592  14.169  10.705
57708SOL    HW174957   5.663  14.233  10.709
57708SOL    HW274958   5.549  14.176  10.791
57709SOL     OW74959  13.637   2.586   2.077
57709SOL    HW174960  13.732   2.570   2.073
57709SOL    HW274961  13.625   2.670   2.032
57710SOL     OW74962   1.861  10.964  14.552
57710SOL    HW174963   1.826  10.883  14.515
57710SOL    HW274964   1.952  10.943  14.574
57711SOL     OW74965  11.147   2.590   3.156
57711SOL    HW174966  11.152   2.673   3.108
57711SOL    HW274967  11.118   2.526   3.090
57712SOL     OW74968   2.156   2.335   9.809
57712SOL    HW174969   2.084   2.292   9.762
57712SOL    HW274970   2.129   2.426   9.815
57713SOL     OW74971  11.731   7.219   7.413
57713SOL    HW174972  11.691   7.155   7.353
57713SOL    HW274973  11.698   7.195   7.499
57714SOL     OW74974  14.611  10.139  11.536
57714SOL    HW174975  14.635  10.177  11.620
57714SOL    HW274976  14.671  10.180  11.473
57715SOL     OW74977  11.023   2.296   7.477
57715SOL    HW174978  11.088   2.226   7.469
57715SOL    HW274979  10.983   2.301   7.390
57716SOL     OW74980  11.017   0.430   7.840
57716SOL    HW174981  11.073   0.436   7.918
57716SOL    HW274982  10.960   0.507   7.845
57717SOL     OW74983  13.046   6.270  12.666
57717SOL    HW174984  12.997   6.287  12.585
57717SOL    HW274985  12.997   6.316  12.734
57718SOL     OW74986   9.152   8.301  12.089
57718SOL    HW174987   9.213   8.236  12.125
57718SOL    HW274988   9.140   8.273  11.998
57719SOL     OW74989   4.813  11.041  13.699
57719SOL    HW174990   4.801  10.968  13.639
57719SOL    HW274991   4.908  11.054  13.702
57720SOL     OW74992   5.637   8.390   0.553
57720SOL    HW174993   5.683   8.310   0.580
57720SOL    HW274994   5.639   8.388   0.458
57721SOL     OW74995  12.684   6.846   6.170
57721SOL    HW174996  12.635   6.799   6.102
57721SOL    HW274997  12.620   6.858   6.241
57722SOL     OW74998   0.622   3.924   0.801
57722SOL    HW174999   0.581   3.995   0.849
57722SOL    HW275000   0.603   3.942   0.709
57723SOL     OW75001  10.727   3.997  12.201
57723SOL    HW175002  10.660   4.033  12.143
57723SOL    HW275003  10.778   4.073  12.229
57724SOL     OW75004   3.052  11.540   8.905
57724SOL    HW175005   3.088  11.496   8.828
57724SOL    HW275006   3.045  11.471   8.971
57725SOL     OW75007  11.536   2.381  14.260
57725SOL    HW175008  11.578   2.466  14.273
57725SOL    HW275009  11.571   2.326  14.330
57726SOL     OW75010  14.184   4.626  13.631
57726SOL    HW175011  14.177   4.722  13.637
57726SOL    HW275012  14.096   4.597  13.608
57727SOL     OW75013  10.982   5.771   9.043
57727SOL    HW175014  11.075   5.764   9.020
57727SOL    HW275015  10.937   5.737   8.966
57728SOL     OW75016  11.531  11.056   4.310
57728SOL    HW175017  11.535  11.091   4.221
57728SOL    HW275018  11.619  11.024   4.328
57729SOL     OW75019   2.815   0.885   8.589
57729SOL    HW175020   2.790   0.971   8.556
57729SOL    HW275021   2.746   0.862   8.652
57730SOL     OW75022  12.156  11.668  10.690
57730SOL    HW175023  12.194  11.707  10.769
57730SOL    HW275024  12.087  11.728  10.663
57731SOL     OW75025   9.389  11.507  11.562
57731SOL    HW175026   9.483  11.507  11.542
57731SOL    HW275027   9.371  11.419  11.594
57732SOL     OW75028  10.979   6.584   4.683
57732SOL    HW175029  11.009   6.601   4.594
57732SOL    HW275030  11.054   6.542   4.725
57733SOL     OW75031  12.565   7.941   3.666
57733SOL    HW175032  12.566   7.975   3.576
57733SOL    HW275033  12.556   8.019   3.721
57734SOL     OW75034   0.691  11.877  12.013
57734SOL    HW175035   0.775  11.879  12.059
57734SOL    HW275036   0.677  11.967  11.983
57735SOL     OW75037   3.728   5.956   5.510
57735SOL    HW175038   3.694   6.018   5.446
57735SOL    HW275039   3.653   5.934   5.565
57736SOL     OW75040   3.719  14.784  10.307
57736SOL    HW175041   3.784  14.749  10.368
57736SOL    HW275042   3.640  14.732  10.324
57737SOL     OW75043   0.053  12.975   0.089
57737SOL    HW175044  14.857  12.946   0.141
57737SOL    HW275045   0.086  13.052   0.135
57738SOL     OW75046   2.157  10.847  11.584
57738SOL    HW175047   2.114  10.923  11.624
57738SOL    HW275048   2.230  10.884  11.534
57739SOL     OW75049   9.387   1.598  12.702
57739SOL    HW175050   9.380   1.694  12.698
57739SOL    HW275051   9.481   1.582  12.711
57740SOL     OW75052   2.889   2.038   6.778
57740SOL    HW175053   2.940   2.083   6.846
57740SOL    HW275054   2.950   2.025   6.706
57741SOL     OW75055   2.125   7.172  12.176
57741SOL    HW175056   2.175   7.247  12.143
57741SOL    HW275057   2.063   7.152  12.105
57742SOL     OW75058   6.725   5.611   2.134
57742SOL    HW175059   6.748   5.651   2.217
57742SOL    HW275060   6.809   5.582   2.097
57743SOL     OW75061  13.050  10.468   6.642
57743SOL    HW175062  12.982  10.531   6.664
57743SOL    HW275063  13.121  10.521   6.605
57744SOL     OW75064  12.767   2.536   9.986
57744SOL    HW175065  12.684   2.552   9.943
57744SOL    HW275066  12.753   2.455  10.035
57745SOL     OW75067  12.603   0.694   0.915
57745SOL    HW175068  12.567   0.717   0.829
57745SOL    HW275069  12.585   0.600   0.923
57746SOL     OW75070  13.833   8.042   9.792
57746SOL    HW175071  13.858   8.134   9.793
57746SOL    HW275072  13.842   8.014   9.883
57747SOL     OW75073   7.972   6.178  11.030
57747SOL    HW175074   8.031   6.192  11.105
57747SOL    HW275075   7.901   6.240  11.044
57748SOL     OW75076   8.521   3.450  13.218
57748SOL    HW175077   8.491   3.392  13.288
57748SOL    HW275078   8.442   3.473  13.170
57749SOL     OW75079   3.411   9.700  11.863
57749SOL    HW175080   3.476   9.737  11.803
57749SOL    HW275081   3.460   9.635  11.914
57750SOL     OW75082  12.285   3.047   6.417
57750SOL    HW175083  12.350   3.024   6.351
57750SOL    HW275084  12.335   3.093   6.485
57751SOL     OW75085  13.639  14.439   0.574
57751SOL    HW175086  13.655  14.533   0.582
57751SOL    HW275087  13.717  14.404   0.531
57752SOL     OW75088   5.754   6.315   4.436
57752SOL    HW175089   5.803   6.381   4.485
57752SOL    HW275090   5.718   6.362   4.361
57753SOL     OW75091  10.209   8.328   0.138
57753SOL    HW175092  10.253   8.244   0.122
57753SOL    HW275093  10.126   8.321   0.090
57754SOL     OW75094   3.052  10.058   5.160
57754SOL    HW175095   2.996  10.070   5.237
57754SOL    HW275096   2.991  10.036   5.089
57755SOL     OW75097  10.478   3.048   2.492
57755SOL    HW175098  10.556   3.103   2.479
57755SOL    HW275099  10.457   3.058   2.585
57756SOL     OW75100  12.867   4.534  10.266
57756SOL    HW175101  12.800   4.514  10.332
57756SOL    HW275102  12.944   4.484  10.294
57757SOL     OW75103   6.510   7.996   8.658
57757SOL    HW175104   6.447   8.064   8.681
57757SOL    HW275105   6.542   8.021   8.571
57758SOL     OW75106  14.686   7.233   5.843
57758SOL    HW175107  14.622   7.287   5.890
57758SOL    HW275108  14.720   7.174   5.910
57759SOL     OW75109  10.771   4.647   9.074
57759SOL    HW175110  10.739   4.660   9.163
57759SOL    HW275111  10.853   4.598   9.085
57760SOL     OW75112   9.956  14.681   3.924
57760SOL    HW175113  10.032  14.663   3.979
57760SOL    HW275114   9.964  14.620   3.851
57761SOL     OW75115   8.758   4.487  11.805
57761SOL    HW175116   8.736   4.402  11.841
57761SOL    HW275117   8.853   4.483  11.792
57762SOL     OW75118  11.440  14.730   1.810
57762SOL    HW175119  11.365  14.679   1.841
57762SOL    HW275120  11.405  14.818   1.794
57763SOL     OW75121   5.723  10.010  10.205
57763SOL    HW175122   5.801  10.051  10.168
57763SOL    HW275123   5.688  10.074  10.266
57764SOL     OW75124  11.102   2.508   4.267
57764SOL    HW175125  11.190   2.477   4.291
57764SOL    HW275126  11.095   2.594   4.306
57765SOL     OW75127   0.376   4.624   2.677
57765SOL    HW175128   0.285   4.648   2.661
57765SOL    HW275129   0.415   4.703   2.715
57766SOL     OW75130  12.245   7.521  13.959
57766SOL    HW175131  12.151   7.506  13.970
57766SOL    HW275132  12.266   7.587  14.024
57767SOL     OW75133   6.119   0.629  10.031
57767SOL    HW175134   6.154   0.696   9.972
57767SOL    HW275135   6.039   0.598   9.988
57768SOL     OW75136   0.238  10.429  12.134
57768SOL    HW175137   0.305  10.497  12.142
57768SOL    HW275138   0.265  10.378  12.057
57769SOL     OW75139   5.267  13.434   8.739
57769SOL    HW175140   5.196  13.371   8.751
57769SOL    HW275141   5.312  13.405   8.660
57770SOL     OW75142  11.537  10.550   6.714
57770SOL    HW175143  11.457  10.602   6.724
57770SOL    HW275144  11.565  10.532   6.804
57771SOL     OW75145  10.875   4.155  14.693
57771SOL    HW175146  10.930   4.142  14.616
57771SOL    HW275147  10.916   4.228  14.740
57772SOL     OW75148  11.492   4.808   4.299
57772SOL    HW175149  11.436   4.746   4.252
57772SOL    HW275150  11.443   4.830   4.378
57773SOL     OW75151   6.436  10.126   5.287
57773SOL    HW175152   6.459  10.107   5.378
57773SOL    HW275153   6.361  10.069   5.269
57774SOL     OW75154   0.562   8.503  11.692
57774SOL    HW175155   0.551   8.514  11.597
57774SOL    HW275156   0.473   8.508  11.727
57775SOL     OW75157  12.208  12.338   1.018
57775SOL    HW175158  12.245  12.323   1.105
57775SOL    HW275159  12.245  12.268   0.963
57776SOL     OW75160   9.348  10.090  14.636
57776SOL    HW175161   9.410  10.159  14.616
57776SOL    HW275162   9.400  10.020  14.673
57777SOL     OW75163   2.551  12.013  13.715
57777SOL    HW175164   2.567  11.979  13.803
57777SOL    HW275165   2.600  11.956  13.657
57778SOL     OW75166   0.290   6.483   6.858
57778SOL    HW175167   0.313   6.571   6.886
57778SOL    HW275168   0.285   6.432   6.939
57779SOL     OW75169   7.942  12.173  12.993
57779SOL    HW175170   7.914  12.174  12.902
57779SOL    HW275171   7.996  12.251  13.003
57780SOL     OW75172  10.493   1.319  14.041
57780SOL    HW175173  10.512   1.407  14.074
57780SOL    HW275174  10.444   1.276  14.111
57781SOL     OW75175   7.123  10.517  11.103
57781SOL    HW175176   7.093  10.607  11.089
57781SOL    HW275177   7.203  10.509  11.051
57782SOL     OW75178   6.392   8.556  10.396
57782SOL    HW175179   6.393   8.461  10.395
57782SOL    HW275180   6.318   8.578  10.454
57783SOL     OW75181   8.314  12.098  14.691
57783SOL    HW175182   8.293  12.005  14.678
57783SOL    HW275183   8.229  12.142  14.688
57784SOL     OW75184   1.131   1.300   3.224
57784SOL    HW175185   1.201   1.267   3.168
57784SOL    HW275186   1.086   1.365   3.170
57785SOL     OW75187  11.312   6.771   2.438
57785SOL    HW175188  11.351   6.768   2.525
57785SOL    HW275189  11.301   6.679   2.413
57786SOL     OW75190   6.272  11.201  10.914
57786SOL    HW175191   6.327  11.171  10.987
57786SOL    HW275192   6.304  11.289  10.895
57787SOL     OW75193   1.634   3.932   2.521
57787SOL    HW175194   1.673   4.019   2.517
57787SOL    HW275195   1.550   3.941   2.477
57788SOL     OW75196   9.277  13.755  14.216
57788SOL    HW175197   9.193  13.720  14.186
57788SOL    HW275198   9.312  13.801  14.139
57789SOL     OW75199   8.837   8.717  11.650
57789SOL    HW175200   8.903   8.781  11.674
57789SOL    HW275201   8.773   8.765  11.598
57790SOL     OW75202   9.299   0.428   4.646
57790SOL    HW175203   9.394   0.433   4.655
57790SOL    HW275204   9.282   0.336   4.623
57791SOL     OW75205   2.635   4.522   3.677
57791SOL    HW175206   2.622   4.432   3.708
57791SOL    HW275207   2.603   4.577   3.748
57792SOL     OW75208  10.682   1.947   4.255
57792SOL    HW175209  10.607   1.913   4.303
57792SOL    HW275210  10.717   2.017   4.311
57793SOL     OW75211  10.742  12.912  10.158
57793SOL    HW175212  10.649  12.933  10.145
57793SOL    HW275213  10.786  12.996  10.150
57794SOL     OW75214   0.932   5.666  11.315
57794SOL    HW175215   1.007   5.622  11.354
57794SOL    HW275216   0.899   5.724  11.384
57795SOL     OW75217   4.579  13.324   5.556
57795SOL    HW175218   4.584  13.371   5.472
57795SOL    HW275219   4.577  13.394   5.622
57796SOL     OW75220   4.541  14.514   1.111
57796SOL    HW175221   4.555  14.570   1.187
57796SOL    HW275222   4.622  14.462   1.106
57797SOL     OW75223   4.278  13.333   3.528
57797SOL    HW175224   4.188  13.341   3.497
57797SOL    HW275225   4.332  13.365   3.456
57798SOL     OW75226   2.439   0.797  10.289
57798SOL    HW175227   2.434   0.859  10.217
57798SOL    HW275228   2.434   0.851  10.368
57799SOL     OW75229  13.233  12.277   4.746
57799SOL    HW175230  13.327  12.268   4.764
57799SOL    HW275231  13.213  12.368   4.770
57800SOL     OW75232   6.343   2.271   2.958
57800SOL    HW175233   6.384   2.187   2.980
57800SOL    HW275234   6.388   2.300   2.879
57801SOL     OW75235  13.002   9.152   6.926
57801SOL    HW175236  13.090   9.133   6.894
57801SOL    HW275237  12.997   9.248   6.928
57802SOL     OW75238   1.303  12.025   7.232
57802SOL    HW175239   1.297  12.058   7.321
57802SOL    HW275240   1.220  11.979   7.217
57803SOL     OW75241   0.854   0.472  13.980
57803SOL    HW175242   0.815   0.395  13.939
57803SOL    HW275243   0.930   0.492  13.924
57804SOL     OW75244   4.296  10.058  14.219
57804SOL    HW175245   4.264  10.106  14.295
57804SOL    HW275246   4.339   9.981  14.256
57805SOL     OW75247  11.856   0.947   4.384
57805SOL    HW175248  11.897   0.980   4.304
57805SOL    HW275249  11.925   0.896   4.427
57806SOL     OW75250  14.429  14.781   1.889
57806SOL    HW175251  14.402  14.872   1.882
57806SOL    HW275252  14.503  14.773   1.828
57807SOL     OW75253   8.744   7.478   6.862
57807SOL    HW175254   8.678   7.477   6.792
57807SOL    HW275255   8.783   7.565   6.857
57808SOL     OW75256   3.415   7.532   4.740
57808SOL    HW175257   3.344   7.533   4.676
57808SOL    HW275258   3.445   7.623   4.744
57809SOL     OW75259   5.730  11.907   9.030
57809SOL    HW175260   5.763  11.984   9.076
57809SOL    HW275261   5.670  11.865   9.092
57810SOL     OW75262   9.395   3.820  11.343
57810SOL    HW175263   9.487   3.834  11.365
57810SOL    HW275264   9.367   3.901  11.301
57811SOL     OW75265   3.076   6.364   8.145
57811SOL    HW175266   3.159   6.410   8.130
57811SOL    HW275267   3.019   6.430   8.185
57812SOL     OW75268  11.263  11.465  13.431
57812SOL    HW175269  11.229  11.459  13.521
57812SOL    HW275270  11.185  11.456  13.376
57813SOL     OW75271   1.432  12.611   0.471
57813SOL    HW175272   1.439  12.579   0.561
57813SOL    HW275273   1.340  12.602   0.449
57814SOL     OW75274   2.540   6.417   0.790
57814SOL    HW175275   2.578   6.349   0.846
57814SOL    HW275276   2.615   6.468   0.759
57815SOL     OW75277   9.778   6.861  13.796
57815SOL    HW175278   9.708   6.813  13.752
57815SOL    HW275279   9.735   6.902  13.870
57816SOL     OW75280   0.752   0.538   6.886
57816SOL    HW175281   0.823   0.595   6.917
57816SOL    HW275282   0.769   0.526   6.793
57817SOL     OW75283   4.630  12.824   8.821
57817SOL    HW175284   4.620  12.894   8.756
57817SOL    HW275285   4.689  12.860   8.886
57818SOL     OW75286   7.776  11.567   4.246
57818SOL    HW175287   7.864  11.568   4.209
57818SOL    HW275288   7.749  11.475   4.242
57819SOL     OW75289  12.566   8.151  12.412
57819SOL    HW175290  12.532   8.223  12.465
57819SOL    HW275291  12.495   8.087  12.410
57820SOL     OW75292   3.190   3.173  14.573
57820SOL    HW175293   3.164   3.143  14.486
57820SOL    HW275294   3.164   3.102  14.632
57821SOL     OW75295   3.650   4.508   2.336
57821SOL    HW175296   3.584   4.546   2.277
57821SOL    HW275297   3.643   4.413   2.322
57822SOL     OW75298  14.834   1.402   4.605
57822SOL    HW175299  14.859   1.323   4.652
57822SOL    HW275300   0.012   1.470   4.639
57823SOL     OW75301  13.006   1.605   0.911
57823SOL    HW175302  12.942   1.567   0.850
57823SOL    HW275303  13.067   1.534   0.930
57824SOL     OW75304   6.433  10.699   5.938
57824SOL    HW175305   6.484  10.687   6.018
57824SOL    HW275306   6.343  10.707   5.968
57825SOL     OW75307  10.070  10.155   8.482
57825SOL    HW175308  10.001  10.220   8.469
57825SOL    HW275309  10.055  10.121   8.571
57826SOL     OW75310  11.860  14.796   7.690
57826SOL    HW175311  11.847  14.878   7.738
57826SOL    HW275312  11.776  14.749   7.700
57827SOL     OW75313  14.728  13.128   4.146
57827SOL    HW175314  14.800  13.108   4.086
57827SOL    HW275315  14.717  13.223   4.141
57828SOL     OW75316   0.800   9.995  12.497
57828SOL    HW175317   0.838  10.072  12.540
57828SOL    HW275318   0.840   9.920  12.540
57829SOL     OW75319   8.961   0.681   4.042
57829SOL    HW175320   8.877   0.712   4.009
57829SOL    HW275321   8.968   0.590   4.011
57830SOL     OW75322   2.926   5.323   3.857
57830SOL    HW175323   2.837   5.358   3.846
57830SOL    HW275324   2.983   5.395   3.829
57831SOL     OW75325   8.375  10.727  11.337
57831SOL    HW175326   8.306  10.688  11.390
57831SOL    HW275327   8.426  10.780  11.399
57832SOL     OW75328  13.134  13.850  11.552
57832SOL    HW175329  13.174  13.917  11.607
57832SOL    HW275330  13.197  13.778  11.552
57833SOL     OW75331   3.331   6.195  14.023
57833SOL    HW175332   3.355   6.105  14.044
57833SOL    HW275333   3.276   6.188  13.944
57834SOL     OW75334   4.030   5.486   4.882
57834SOL    HW175335   4.012   5.512   4.972
57834SOL    HW275336   4.028   5.568   4.832
57835SOL     OW75337   2.610   0.553   8.815
57835SOL    HW175338   2.594   0.482   8.753
57835SOL    HW275339   2.696   0.534   8.853
57836SOL     OW75340   2.713  11.455   8.688
57836SOL    HW175341   2.760  11.537   8.673
57836SOL    HW275342   2.630  11.465   8.642
57837SOL     OW75343   1.905   0.450   9.208
57837SOL    HW175344   1.983   0.492   9.245
57837SOL    HW275345   1.917   0.357   9.227
57838SOL     OW75346  11.613   8.178  10.943
57838SOL    HW175347  11.658   8.262  10.949
57838SOL    HW275348  11.678   8.118  10.906
57839SOL     OW75349   8.142   2.399  12.191
57839SOL    HW175350   8.200   2.340  12.144
57839SOL    HW275351   8.125   2.471  12.130
57840SOL     OW75352   0.781   8.397   4.085
57840SOL    HW175353   0.826   8.393   4.001
57840SOL    HW275354   0.804   8.315   4.129
57841SOL     OW75355   5.203   4.613   6.520
57841SOL    HW175356   5.201   4.669   6.442
57841SOL    HW275357   5.295   4.592   6.532
57842SOL     OW75358   6.282   3.101  11.389
57842SOL    HW175359   6.344   3.104  11.316
57842SOL    HW275360   6.293   3.186  11.433
57843SOL     OW75361   9.177   7.939  10.597
57843SOL    HW175362   9.218   7.969  10.678
57843SOL    HW275363   9.246   7.888  10.553
57844SOL     OW75364   8.822  13.334   1.490
57844SOL    HW175365   8.884  13.392   1.535
57844SOL    HW275366   8.866  13.312   1.408
57845SOL     OW75367   2.354  10.168   3.153
57845SOL    HW175368   2.292  10.193   3.084
57845SOL    HW275369   2.309  10.100   3.202
57846SOL     OW75370  13.094   2.917   5.259
57846SOL    HW175371  13.096   2.911   5.355
57846SOL    HW275372  13.023   2.978   5.241
57847SOL     OW75373  11.680  12.769  12.162
57847SOL    HW175374  11.598  12.799  12.201
57847SOL    HW275375  11.664  12.774  12.068
57848SOL     OW75376  10.565   7.492   0.196
57848SOL    HW175377  10.620   7.420   0.164
57848SOL    HW275378  10.600   7.570   0.153
57849SOL     OW75379  14.599   3.509   5.645
57849SOL    HW175380  14.542   3.576   5.608
57849SOL    HW275381  14.560   3.487   5.730
57850SOL     OW75382   7.036  13.214   7.020
57850SOL    HW175383   7.064  13.237   6.931
57850SOL    HW275384   6.981  13.288   7.047
57851SOL     OW75385   8.817   0.104   5.236
57851SOL    HW175386   8.759   0.029   5.241
57851SOL    HW275387   8.819   0.139   5.324
57852SOL     OW75388   2.902   1.676   4.515
57852SOL    HW175389   2.996   1.665   4.498
57852SOL    HW275390   2.897   1.698   4.608
57853SOL     OW75391  11.337   2.107   2.626
57853SOL    HW175392  11.298   2.173   2.684
57853SOL    HW275393  11.383   2.048   2.685
57854SOL     OW75394   5.592  12.607   5.160
57854SOL    HW175395   5.600  12.595   5.255
57854SOL    HW275396   5.508  12.566   5.138
57855SOL     OW75397  12.099  12.965   7.198
57855SOL    HW175398  12.176  12.910   7.213
57855SOL    HW275399  12.047  12.917   7.134
57856SOL     OW75400   5.638   4.982   0.245
57856SOL    HW175401   5.696   4.918   0.287
57856SOL    HW275402   5.622   5.047   0.313
57857SOL     OW75403  10.874  14.260  14.853
57857SOL    HW175404  10.801  14.278   0.034
57857SOL    HW275405  10.899  14.345  14.818
57858SOL     OW75406   8.829  10.905   4.886
57858SOL    HW175407   8.877  10.824   4.868
57858SOL    HW275408   8.897  10.972   4.895
57859SOL     OW75409   0.171   0.732   7.619
57859SOL    HW175410   0.140   0.642   7.630
57859SOL    HW275411   0.221   0.730   7.537
57860SOL     OW75412   3.493   6.862   3.415
57860SOL    HW175413   3.452   6.885   3.332
57860SOL    HW275414   3.527   6.774   3.402
57861SOL     OW75415   5.458   7.728   4.192
57861SOL    HW175416   5.521   7.740   4.263
57861SOL    HW275417   5.407   7.651   4.218
57862SOL     OW75418   7.952  13.632  11.192
57862SOL    HW175419   7.894  13.698  11.230
57862SOL    HW275420   8.039  13.672  11.195
57863SOL     OW75421   7.773   2.463  10.941
57863SOL    HW175422   7.819   2.541  10.970
57863SOL    HW275423   7.833   2.420  10.880
57864SOL     OW75424   8.770   9.497  12.667
57864SOL    HW175425   8.794   9.474  12.578
57864SOL    HW275426   8.845   9.469  12.720
57865SOL     OW75427   8.857  12.292  12.693
57865SOL    HW175428   8.772  12.265  12.660
57865SOL    HW275429   8.906  12.319  12.615
57866SOL     OW75430  12.426  11.255   0.077
57866SOL    HW175431  12.371  11.298   0.010
57866SOL    HW275432  12.474  11.327   0.118
57867SOL     OW75433   0.862   4.067  13.304
57867SOL    HW175434   0.952   4.037  13.310
57867SOL    HW275435   0.816   3.995  13.260
57868SOL     OW75436   1.910   3.742  13.542
57868SOL    HW175437   1.854   3.673  13.578
57868SOL    HW275438   1.853   3.789  13.481
57869SOL     OW75439   3.652  12.966   0.593
57869SOL    HW175440   3.719  13.033   0.579
57869SOL    HW275441   3.660  12.908   0.517
57870SOL     OW75442   6.023  13.722   9.410
57870SOL    HW175443   5.978  13.728   9.495
57870SOL    HW275444   5.983  13.645   9.368
57871SOL     OW75445  13.641   5.099   6.542
57871SOL    HW175446  13.689   5.022   6.570
57871SOL    HW275447  13.585   5.121   6.616
57872SOL     OW75448   1.325  11.455  12.974
57872SOL    HW175449   1.253  11.411  13.019
57872SOL    HW275450   1.326  11.544  13.010
57873SOL     OW75451   1.318  10.449   6.058
57873SOL    HW175452   1.273  10.373   6.095
57873SOL    HW275453   1.256  10.485   5.995
57874SOL     OW75454   1.932   1.370   5.252
57874SOL    HW175455   1.981   1.288   5.247
57874SOL    HW275456   1.859   1.350   5.310
57875SOL     OW75457   3.658   2.647   2.865
57875SOL    HW175458   3.633   2.626   2.775
57875SOL    HW275459   3.744   2.689   2.856
57876SOL     OW75460  12.766   1.215   8.632
57876SOL    HW175461  12.773   1.242   8.724
57876SOL    HW275462  12.684   1.254   8.602
57877SOL     OW75463   1.045  12.596  10.570
57877SOL    HW175464   1.118  12.620  10.627
57877SOL    HW275465   0.968  12.601  10.626
57878SOL     OW75466  10.575  12.415   4.910
57878SOL    HW175467  10.655  12.432   4.958
57878SOL    HW275468  10.530  12.499   4.907
57879SOL     OW75469  13.020   1.881   9.799
57879SOL    HW175470  13.057   1.794   9.812
57879SOL    HW275471  12.933   1.876   9.839
57880SOL     OW75472   5.525   9.692   8.527
57880SOL    HW175473   5.484   9.775   8.507
57880SOL    HW275474   5.614   9.700   8.492
57881SOL     OW75475  10.953  13.678   5.541
57881SOL    HW175476  11.015  13.640   5.478
57881SOL    HW275477  10.942  13.769   5.512
57882SOL     OW75478  11.311   8.579  13.650
57882SOL    HW175479  11.363   8.612  13.723
57882SOL    HW275480  11.363   8.508  13.612
57883SOL     OW75481  12.255  13.893   1.356
57883SOL    HW175482  12.249  13.901   1.261
57883SOL    HW275483  12.319  13.959   1.382
57884SOL     OW75484   9.448   8.589   6.580
57884SOL    HW175485   9.360   8.570   6.613
57884SOL    HW275486   9.499   8.610   6.659
57885SOL     OW75487   8.920  13.291   7.647
57885SOL    HW175488   8.840  13.336   7.621
57885SOL    HW275489   8.948  13.244   7.568
57886SOL     OW75490  11.586  12.076   1.055
57886SOL    HW175491  11.516  12.127   1.095
57886SOL    HW275492  11.631  12.137   0.997
57887SOL     OW75493   4.252   7.518   5.334
57887SOL    HW175494   4.242   7.551   5.424
57887SOL    HW275495   4.330   7.463   5.337
57888SOL     OW75496  10.404   0.940   0.081
57888SOL    HW175497  10.395   1.034   0.101
57888SOL    HW275498  10.315   0.906   0.085
57889SOL     OW75499  11.570  13.314   8.298
57889SOL    HW175500  11.641  13.368   8.332
57889SOL    HW275501  11.491  13.366   8.314
57890SOL     OW75502  14.187   5.191  12.205
57890SOL    HW175503  14.280   5.197  12.227
57890SOL    HW275504  14.176   5.251  12.132
57891SOL     OW75505   4.234   0.577  10.737
57891SOL    HW175506   4.140   0.589  10.741
57891SOL    HW275507   4.249   0.488  10.770
57892SOL     OW75508   3.436   6.977   8.562
57892SOL    HW175509   3.451   7.050   8.621
57892SOL    HW275510   3.371   6.922   8.606
57893SOL     OW75511   7.207   2.487   9.793
57893SOL    HW175512   7.111   2.492   9.797
57893SOL    HW275513   7.224   2.428   9.719
57894SOL     OW75514   1.467  13.515   6.401
57894SOL    HW175515   1.392  13.571   6.419
57894SOL    HW275516   1.524  13.525   6.477
57895SOL     OW75517   8.677  12.448  12.388
57895SOL    HW175518   8.760  12.406  12.365
57895SOL    HW275519   8.633  12.385  12.445
57896SOL     OW75520  14.095  10.801   1.985
57896SOL    HW175521  14.166  10.817   1.922
57896SOL    HW275522  14.051  10.886   1.992
57897SOL     OW75523   0.551  11.199   2.423
57897SOL    HW175524   0.515  11.124   2.376
57897SOL    HW275525   0.565  11.266   2.356
57898SOL     OW75526  14.057   1.747   1.691
57898SOL    HW175527  14.079   1.741   1.784
57898SOL    HW275528  14.130   1.705   1.646
57899SOL     OW75529   4.807   0.166   4.049
57899SOL    HW175530   4.786   0.112   4.125
57899SOL    HW275531   4.901   0.154   4.037
57900SOL     OW75532  12.751   3.439   0.481
57900SOL    HW175533  12.771   3.530   0.459
57900SOL    HW275534  12.658   3.429   0.463
57901SOL     OW75535   5.499  11.519  12.085
57901SOL    HW175536   5.517  11.577  12.160
57901SOL    HW275537   5.404  11.518  12.078
57902SOL     OW75538   7.772   2.747   5.621
57902SOL    HW175539   7.737   2.721   5.535
57902SOL    HW275540   7.867   2.743   5.609
57903SOL     OW75541   3.744   9.905   5.365
57903SOL    HW175542   3.750   9.997   5.391
57903SOL    HW275543   3.802   9.859   5.425
57904SOL     OW75544   4.468   0.026  12.247
57904SOL    HW175545   4.429   0.104  12.207
57904SOL    HW275546   4.438  14.832  12.192
57905SOL     OW75547   0.499   2.052   8.885
57905SOL    HW175548   0.580   2.001   8.896
57905SOL    HW275549   0.521   2.138   8.923
57906SOL     OW75550   1.344  12.970   3.113
57906SOL    HW175551   1.395  12.929   3.043
57906SOL    HW275552   1.404  13.035   3.152
57907SOL     OW75553   1.059  10.548   0.963
57907SOL    HW175554   1.053  10.521   1.054
57907SOL    HW275555   1.020  10.636   0.961
57908SOL     OW75556  10.538   4.791  13.796
57908SOL    HW175557  10.565   4.800  13.704
57908SOL    HW275558  10.499   4.704  13.801
57909SOL     OW75559  14.412   5.562  12.594
57909SOL    HW175560  14.324   5.595  12.613
57909SOL    HW275561  14.405   5.525  12.507
57910SOL     OW75562  12.199   9.766   3.157
57910SOL    HW175563  12.124   9.710   3.177
57910SOL    HW275564  12.181   9.847   3.203
57911SOL     OW75565  11.319   3.445  10.651
57911SOL    HW175566  11.307   3.497  10.572
57911SOL    HW275567  11.367   3.367  10.622
57912SOL     OW75568   6.709   4.725  12.941
57912SOL    HW175569   6.784   4.696  12.889
57912SOL    HW275570   6.633   4.707  12.886
57913SOL     OW75571   4.160  11.293  10.828
57913SOL    HW175572   4.172  11.216  10.883
57913SOL    HW275573   4.201  11.270  10.745
57914SOL     OW75574   1.695   3.484   8.611
57914SOL    HW175575   1.671   3.500   8.703
57914SOL    HW275576   1.637   3.415   8.582
57915SOL     OW75577   6.625  10.074  12.926
57915SOL    HW175578   6.544  10.055  12.973
57915SOL    HW275579   6.644   9.994  12.878
57916SOL     OW75580   1.142   3.487  13.242
57916SOL    HW175581   1.067   3.434  13.215
57916SOL    HW275582   1.189   3.505  13.160
57917SOL     OW75583   1.103   3.245   8.118
57917SOL    HW175584   1.076   3.323   8.070
57917SOL    HW275585   1.120   3.180   8.050
57918SOL     OW75586  14.651  12.830  12.788
57918SOL    HW175587  14.559  12.834  12.762
57918SOL    HW275588  14.698  12.881  12.721
57919SOL     OW75589   2.286  10.114  14.699
57919SOL    HW175590   2.218  10.150  14.641
57919SOL    HW275591   2.309  10.186  14.757
57920SOL     OW75592   9.564   5.208   8.101
57920SOL    HW175593   9.623   5.133   8.093
57920SOL    HW275594   9.486   5.173   8.143
57921SOL     OW75595   1.637   7.146   4.527
57921SOL    HW175596   1.545   7.141   4.502
57921SOL    HW275597   1.645   7.229   4.575
57922SOL     OW75598   4.605  13.070   6.652
57922SOL    HW175599   4.680  13.080   6.711
57922SOL    HW275600   4.577  12.979   6.664
57923SOL     OW75601  14.325   6.814   1.734
57923SOL    HW175602  14.364   6.733   1.768
57923SOL    HW275603  14.377   6.884   1.773
57924SOL     OW75604  12.049  10.725   6.253
57924SOL    HW175605  12.069  10.818   6.262
57924SOL    HW275606  11.961  10.716   6.291
57925SOL     OW75607   9.828   9.813   5.651
57925SOL    HW175608   9.839   9.838   5.559
57925SOL    HW275609   9.880   9.734   5.660
57926SOL     OW75610   5.789   7.813  12.709
57926SOL    HW175611   5.851   7.820  12.637
57926SOL    HW275612   5.733   7.890  12.701
57927SOL     OW75613   1.160   6.931   4.363
57927SOL    HW175614   1.121   7.011   4.397
57927SOL    HW275615   1.161   6.943   4.268
57928SOL     OW75616   9.788  10.765   8.269
57928SOL    HW175617   9.830  10.834   8.216
57928SOL    HW275618   9.778  10.692   8.209
57929SOL     OW75619   0.402   9.153   5.432
57929SOL    HW175620   0.352   9.193   5.503
57929SOL    HW275621   0.490   9.191   5.440
57930SOL     OW75622   1.694   2.249   7.467
57930SOL    HW175623   1.748   2.322   7.436
57930SOL    HW275624   1.704   2.250   7.562
57931SOL     OW75625   2.830  11.654   0.767
57931SOL    HW175626   2.897  11.699   0.714
57931SOL    HW275627   2.821  11.568   0.725
57932SOL     OW75628   9.295   5.820   9.218
57932SOL    HW175629   9.211   5.786   9.187
57932SOL    HW275630   9.272   5.893   9.274
57933SOL     OW75631   2.729   4.311   8.254
57933SOL    HW175632   2.727   4.390   8.308
57933SOL    HW275633   2.820   4.302   8.227
57934SOL     OW75634   9.398  11.831   2.353
57934SOL    HW175635   9.382  11.761   2.289
57934SOL    HW275636   9.404  11.911   2.301
57935SOL     OW75637   7.518  11.501   9.562
57935SOL    HW175638   7.473  11.580   9.592
57935SOL    HW275639   7.563  11.528   9.482
57936SOL     OW75640  10.599  12.921   8.400
57936SOL    HW175641  10.677  12.977   8.396
57936SOL    HW275642  10.632  12.836   8.428
57937SOL     OW75643   1.237   9.068   8.962
57937SOL    HW175644   1.219   9.039   9.052
57937SOL    HW275645   1.227   9.163   8.965
57938SOL     OW75646   3.663   1.842  10.143
57938SOL    HW175647   3.646   1.884  10.059
57938SOL    HW275648   3.576   1.823  10.179
57939SOL     OW75649   0.857  14.533   8.019
57939SOL    HW175650   0.810  14.613   7.996
57939SOL    HW275651   0.944  14.544   7.981
57940SOL     OW75652   9.723  13.508  11.275
57940SOL    HW175653   9.702  13.421  11.311
57940SOL    HW275654   9.740  13.491  11.183
57941SOL     OW75655  10.949  14.398   8.684
57941SOL    HW175656  10.923  14.409   8.776
57941SOL    HW275657  10.875  14.431   8.634
57942SOL     OW75658   6.796  12.494   0.324
57942SOL    HW175659   6.891  12.503   0.332
57942SOL    HW275660   6.777  12.517   0.233
57943SOL     OW75661  12.998  11.909   6.794
57943SOL    HW175662  12.917  11.953   6.819
57943SOL    HW275663  13.034  11.965   6.725
57944SOL     OW75664  11.558   1.096  12.527
57944SOL    HW175665  11.560   1.148  12.607
57944SOL    HW275666  11.466   1.073  12.515
57945SOL     OW75667  14.076  12.731   2.473
57945SOL    HW175668  14.123  12.673   2.414
57945SOL    HW275669  14.075  12.816   2.428
57946SOL     OW75670   4.196   1.187   9.643
57946SOL    HW175671   4.195   1.267   9.695
57946SOL    HW275672   4.288   1.170   9.626
57947SOL     OW75673  11.541   5.678  14.462
57947SOL    HW175674  11.559   5.764  14.500
57947SOL    HW275675  11.529   5.621  14.537
57948SOL     OW75676   3.237   5.010   2.478
57948SOL    HW175677   3.248   5.089   2.530
57948SOL    HW275678   3.224   5.041   2.389
57949SOL     OW75679  11.953  13.205  14.116
57949SOL    HW175680  12.008  13.143  14.163
57949SOL    HW275681  11.914  13.154  14.045
57950SOL     OW75682   2.950  10.205   8.781
57950SOL    HW175683   2.920  10.182   8.693
57950SOL    HW275684   2.893  10.278   8.807
57951SOL     OW75685  14.350   4.373  14.320
57951SOL    HW175686  14.427   4.383  14.264
57951SOL    HW275687  14.384   4.356  14.407
57952SOL     OW75688   6.434   4.413  13.426
57952SOL    HW175689   6.359   4.354  13.437
57952SOL    HW275690   6.397   4.492  13.386
57953SOL     OW75691   0.567  12.235   9.394
57953SOL    HW175692   0.555  12.270   9.305
57953SOL    HW275693   0.633  12.167   9.383
57954SOL     OW75694   5.577   1.914   9.504
57954SOL    HW175695   5.609   2.005   9.503
57954SOL    HW275696   5.511   1.911   9.434
57955SOL     OW75697   4.467   9.692  11.850
57955SOL    HW175698   4.375   9.715  11.863
57955SOL    HW275699   4.468   9.651  11.763
57956SOL     OW75700   2.081  13.966   7.193
57956SOL    HW175701   2.111  14.044   7.147
57956SOL    HW275702   1.986  13.978   7.201
57957SOL     OW75703  10.749  14.618   6.735
57957SOL    HW175704  10.706  14.662   6.808
57957SOL    HW275705  10.774  14.689   6.675
57958SOL     OW75706   0.144   6.052   4.517
57958SOL    HW175707   0.223   6.064   4.465
57958SOL    HW275708   0.092   6.130   4.500
57959SOL     OW75709   2.290  13.843  12.958
57959SOL    HW175710   2.364  13.785  12.976
57959SOL    HW275711   2.313  13.888  12.876
57960SOL     OW75712   2.096   5.424  10.499
57960SOL    HW175713   2.065   5.383  10.419
57960SOL    HW275714   2.105   5.517  10.477
57961SOL     OW75715   3.886  11.103  13.050
57961SOL    HW175716   3.889  11.179  13.108
57961SOL    HW275717   3.834  11.132  12.975
57962SOL     OW75718   1.809  10.146   7.919
57962SOL    HW175719   1.881  10.196   7.881
57962SOL    HW275720   1.757  10.117   7.844
57963SOL     OW75721   2.309   0.409   6.549
57963SOL    HW175722   2.236   0.352   6.528
57963SOL    HW275723   2.331   0.388   6.640
57964SOL     OW75724   9.064   5.981   4.737
57964SOL    HW175725   8.974   5.983   4.769
57964SOL    HW275726   9.096   6.070   4.749
57965SOL     OW75727   2.095  12.050  14.580
57965SOL    HW175728   2.123  12.072  14.491
57965SOL    HW275729   2.174  12.017  14.623
57966SOL     OW75730  14.563  11.868  13.955
57966SOL    HW175731  14.585  11.781  13.987
57966SOL    HW275732  14.504  11.853  13.881
57967SOL     OW75733   1.902  13.243  11.472
57967SOL    HW175734   1.976  13.184  11.487
57967SOL    HW275735   1.830  13.207  11.524
57968SOL     OW75736   9.940  11.725  10.423
57968SOL    HW175737   9.920  11.668  10.498
57968SOL    HW275738  10.036  11.724  10.418
57969SOL     OW75739   5.055  14.244   8.869
57969SOL    HW175740   4.973  14.247   8.820
57969SOL    HW275741   5.084  14.336   8.872
57970SOL     OW75742   4.089   8.647   1.378
57970SOL    HW175743   4.055   8.561   1.402
57970SOL    HW275744   4.028   8.709   1.419
57971SOL     OW75745  14.764   8.053  10.513
57971SOL    HW175746  14.689   8.110  10.493
57971SOL    HW275747  14.783   8.072  10.605
57972SOL     OW75748  12.515   0.135   4.792
57972SOL    HW175749  12.588   0.195   4.806
57972SOL    HW275750  12.437   0.191   4.794
57973SOL     OW75751   6.671   8.044   7.793
57973SOL    HW175752   6.685   8.037   7.887
57973SOL    HW275753   6.737   8.107   7.764
57974SOL     OW75754  10.770   0.190   2.822
57974SOL    HW175755  10.677   0.186   2.799
57974SOL    HW275756  10.776   0.261   2.886
57975SOL     OW75757   9.890   7.571   8.502
57975SOL    HW175758   9.801   7.568   8.467
57975SOL    HW275759   9.893   7.503   8.569
57976SOL     OW75760   0.442   1.993  12.417
57976SOL    HW175761   0.437   1.968  12.510
57976SOL    HW275762   0.382   1.933  12.373
57977SOL     OW75763   1.836   4.806   3.506
57977SOL    HW175764   1.837   4.896   3.473
57977SOL    HW275765   1.908   4.762   3.460
57978SOL     OW75766   3.430  10.902  11.410
57978SOL    HW175767   3.426  10.993  11.379
57978SOL    HW275768   3.425  10.850  11.330
57979SOL     OW75769  13.171   7.105   1.059
57979SOL    HW175770  13.160   7.010   1.058
57979SOL    HW275771  13.143   7.131   1.147
57980SOL     OW75772   2.442   0.023   0.300
57980SOL    HW175773   2.444  14.810   0.327
57980SOL    HW275774   2.456   0.021   0.205
57981SOL     OW75775   7.711  13.683   4.580
57981SOL    HW175776   7.620  13.684   4.550
57981SOL    HW275777   7.725  13.594   4.613
57982SOL     OW75778  11.716  12.744   8.522
57982SOL    HW175779  11.689  12.711   8.608
57982SOL    HW275780  11.681  12.832   8.518
57983SOL     OW75781   7.137   9.016   6.536
57983SOL    HW175782   7.152   9.064   6.618
57983SOL    HW275783   7.225   9.004   6.499
57984SOL     OW75784  14.178  13.450   3.379
57984SOL    HW175785  14.258  13.429   3.331
57984SOL    HW275786  14.193  13.418   3.468
57985SOL     OW75787   9.005   8.183   5.039
57985SOL    HW175788   9.046   8.231   5.111
57985SOL    HW275789   9.059   8.104   5.028
57986SOL     OW75790  12.688  12.830   8.923
57986SOL    HW175791  12.640  12.768   8.867
57986SOL    HW275792  12.758  12.863   8.867
57987SOL     OW75793   8.973   7.441   5.660
57987SOL    HW175794   8.970   7.536   5.650
57987SOL    HW275795   8.887   7.418   5.696
57988SOL     OW75796   2.551   4.068   6.608
57988SOL    HW175797   2.571   4.034   6.520
57988SOL    HW275798   2.620   4.032   6.663
57989SOL     OW75799   4.293   3.287   3.435
57989SOL    HW175800   4.345   3.246   3.366
57989SOL    HW275801   4.304   3.230   3.511
57990SOL     OW75802   4.883   1.944   3.400
57990SOL    HW175803   4.883   1.861   3.447
57990SOL    HW275804   4.790   1.964   3.386
57991SOL     OW75805  11.765   3.559   4.455
57991SOL    HW175806  11.715   3.478   4.442
57991SOL    HW275807  11.706   3.615   4.506
57992SOL     OW75808  10.304   4.442   2.087
57992SOL    HW175809  10.293   4.384   2.162
57992SOL    HW275810  10.398   4.445   2.072
57993SOL     OW75811   0.652   3.840   1.300
57993SOL    HW175812   0.583   3.837   1.234
57993SOL    HW275813   0.734   3.840   1.250
57994SOL     OW75814   4.088  11.796   2.026
57994SOL    HW175815   4.086  11.826   1.935
57994SOL    HW275816   4.100  11.702   2.021
57995SOL     OW75817   1.782  12.683  10.384
57995SOL    HW175818   1.695  12.718  10.405
57995SOL    HW275819   1.779  12.592  10.414
57996SOL     OW75820   4.352  14.037   6.517
57996SOL    HW175821   4.363  14.109   6.455
57996SOL    HW275822   4.264  14.049   6.552
57997SOL     OW75823   1.486   2.427  13.378
57997SOL    HW175824   1.504   2.454  13.288
57997SOL    HW275825   1.573   2.415  13.417
57998SOL     OW75826   7.650   8.122   3.846
57998SOL    HW175827   7.582   8.146   3.909
57998SOL    HW275828   7.730   8.118   3.898
57999SOL     OW75829   3.063   7.543   2.349
57999SOL    HW175830   3.133   7.505   2.296
57999SOL    HW275831   3.108   7.580   2.425
58000SOL     OW75832  10.405   8.311   0.601
58000SOL    HW175833  10.476   8.261   0.640
58000SOL    HW275834  10.357   8.247   0.548
58001SOL     OW75835   4.673   7.828   9.762
58001SOL    HW175836   4.673   7.852   9.855
58001SOL    HW275837   4.695   7.735   9.762
58002SOL     OW75838   0.030   3.037   6.734
58002SOL    HW175839   0.068   2.968   6.788
58002SOL    HW275840  14.816   3.039   6.759
58003SOL     OW75841   1.188  13.407   3.762
58003SOL    HW175842   1.240  13.486   3.757
58003SOL    HW275843   1.193  13.380   3.853
58004SOL     OW75844   5.033  13.051   0.262
58004SOL    HW175845   5.063  12.981   0.321
58004SOL    HW275846   5.024  13.008   0.178
58005SOL     OW75847   7.767   0.658   0.741
58005SOL    HW175848   7.860   0.664   0.721
58005SOL    HW275849   7.724   0.703   0.669
58006SOL     OW75850   6.396   7.224   8.216
58006SOL    HW175851   6.485   7.215   8.250
58006SOL    HW275852   6.408   7.241   8.122
58007SOL     OW75853   7.663   7.378   7.241
58007SOL    HW175854   7.573   7.410   7.249
58007SOL    HW275855   7.718   7.455   7.254
58008SOL     OW75856   4.047  11.712  14.468
58008SOL    HW175857   4.116  11.755  14.518
58008SOL    HW275858   4.058  11.619  14.486
58009SOL     OW75859  11.221  10.723   2.270
58009SOL    HW175860  11.283  10.731   2.198
58009SOL    HW275861  11.254  10.650   2.323
58010SOL     OW75862   2.453   5.315   1.446
58010SOL    HW175863   2.395   5.351   1.513
58010SOL    HW275864   2.395   5.296   1.372
58011SOL     OW75865  11.480   2.132   4.503
58011SOL    HW175866  11.515   2.053   4.545
58011SOL    HW275867  11.556   2.175   4.465
58012SOL     OW75868  13.872   1.469   2.253
58012SOL    HW175869  13.965   1.488   2.267
58012SOL    HW275870  13.840   1.444   2.339
58013SOL     OW75871   2.261   6.436   4.101
58013SOL    HW175872   2.314   6.479   4.034
58013SOL    HW275873   2.263   6.496   4.175
58014SOL     OW75874   8.696  12.762  14.666
58014SOL    HW175875   8.705  12.709  14.586
58014SOL    HW275876   8.700  12.698  14.737
58015SOL     OW75877  10.256   9.275  13.073
58015SOL    HW175878  10.215   9.349  13.118
58015SOL    HW275879  10.183   9.227  13.034
58016SOL     OW75880  13.461   5.074   2.562
58016SOL    HW175881  13.401   5.006   2.591
58016SOL    HW275882  13.541   5.058   2.612
58017SOL     OW75883   2.277   8.448   5.759
58017SOL    HW175884   2.214   8.463   5.688
58017SOL    HW275885   2.280   8.353   5.769
58018SOL     OW75886   2.696   5.239   8.927
58018SOL    HW175887   2.762   5.220   8.860
58018SOL    HW275888   2.624   5.178   8.908
58019SOL     OW75889  11.163  10.116   9.099
58019SOL    HW175890  11.079  10.069   9.104
58019SOL    HW275891  11.197  10.113   9.188
58020SOL     OW75892   1.277   4.072   0.981
58020SOL    HW175893   1.207   4.018   1.016
58020SOL    HW275894   1.338   4.010   0.940
58021SOL     OW75895   9.337   0.207  14.682
58021SOL    HW175896   9.386   0.212  14.600
58021SOL    HW275897   9.403   0.218  14.751
58022SOL     OW75898  11.272  11.787   1.956
58022SOL    HW175899  11.197  11.783   1.898
58022SOL    HW275900  11.341  11.739   1.911
58023SOL     OW75901  13.791   0.738  11.712
58023SOL    HW175902  13.744   0.743  11.629
58023SOL    HW275903  13.766   0.653  11.748
58024SOL     OW75904   6.743   6.070   5.831
58024SOL    HW175905   6.829   6.100   5.858
58024SOL    HW275906   6.737   5.980   5.863
58025SOL     OW75907   3.090  12.023  12.857
58025SOL    HW175908   3.165  11.971  12.829
58025SOL    HW275909   3.099  12.030  12.952
58026SOL     OW75910  12.931  11.154  10.076
58026SOL    HW175911  12.911  11.062  10.059
58026SOL    HW275912  13.015  11.152  10.122
58027SOL     OW75913   2.787   0.484   3.642
58027SOL    HW175914   2.838   0.520   3.570
58027SOL    HW275915   2.852   0.457   3.707
58028SOL     OW75916   2.506  12.290  13.769
58028SOL    HW175917   2.536  12.319  13.855
58028SOL    HW275918   2.523  12.196  13.768
58029SOL     OW75919   5.126   4.522   0.910
58029SOL    HW175920   5.202   4.510   0.967
58029SOL    HW275921   5.123   4.442   0.857
58030SOL     OW75922   6.569   2.125   9.671
58030SOL    HW175923   6.599   2.041   9.705
58030SOL    HW275924   6.542   2.174   9.749
58031SOL     OW75925  14.693   0.235  10.448
58031SOL    HW175926  14.631   0.162  10.452
58031SOL    HW275927  14.746   0.226  10.527
58032SOL     OW75928   6.389  14.305  14.286
58032SOL    HW175929   6.326  14.233  14.282
58032SOL    HW275930   6.376  14.344  14.372
58033SOL     OW75931   1.050  14.339   2.769
58033SOL    HW175932   1.008  14.425   2.769
58033SOL    HW275933   1.017  14.297   2.848
58034SOL     OW75934  11.730   2.107   7.935
58034SOL    HW175935  11.678   2.065   7.866
58034SOL    HW275936  11.700   2.067   8.016
58035SOL     OW75937   7.681   8.125  12.857
58035SOL    HW175938   7.729   8.193  12.809
58035SOL    HW275939   7.737   8.105  12.932
58036SOL     OW75940   5.294   7.897  11.308
58036SOL    HW175941   5.334   7.814  11.285
58036SOL    HW275942   5.368   7.955  11.328
58037SOL     OW75943   7.998  12.112   8.914
58037SOL    HW175944   7.924  12.078   8.963
58037SOL    HW275945   7.971  12.109   8.822
58038SOL     OW75946   0.401   0.681   0.972
58038SOL    HW175947   0.419   0.775   0.964
58038SOL    HW275948   0.375   0.670   1.064
58039SOL     OW75949   0.014   2.944  12.498
58039SOL    HW175950  14.805   2.917  12.471
58039SOL    HW275951   0.072   2.880  12.457
58040SOL     OW75952   8.623   9.356  12.005
58040SOL    HW175953   8.696   9.418  11.993
58040SOL    HW275954   8.546   9.412  12.017
58041SOL     OW75955  11.310   7.333   0.679
58041SOL    HW175956  11.235   7.273   0.671
58041SOL    HW275957  11.320   7.345   0.774
58042SOL     OW75958   9.547   3.827   8.040
58042SOL    HW175959   9.522   3.844   8.131
58042SOL    HW275960   9.473   3.778   8.004
58043SOL     OW75961  14.507   9.733  11.486
58043SOL    HW175962  14.475   9.644  11.473
58043SOL    HW275963  14.435   9.778  11.531
58044SOL     OW75964   4.989   4.172   0.682
58044SOL    HW175965   4.975   4.168   0.777
58044SOL    HW275966   4.998   4.265   0.663
58045SOL     OW75967   5.265   4.557   5.932
58045SOL    HW175968   5.182   4.601   5.950
58045SOL    HW275969   5.305   4.545   6.019
58046SOL     OW75970   2.857   0.570   8.968
58046SOL    HW175971   2.852   0.659   9.002
58046SOL    HW275972   2.931   0.571   8.908
58047SOL     OW75973  14.830   0.472  10.845
58047SOL    HW175974  14.770   0.528  10.796
58047SOL    HW275975  14.878   0.424  10.778
58048SOL     OW75976  13.340  14.052   5.265
58048SOL    HW175977  13.287  13.980   5.299
58048SOL    HW275978  13.430  14.021   5.271
58049SOL     OW75979  13.908   3.953   5.513
58049SOL    HW175980  13.920   4.043   5.485
58049SOL    HW275981  13.814   3.947   5.533
58050SOL     OW75982  10.143  14.313   2.096
58050SOL    HW175983  10.152  14.375   2.168
58050SOL    HW275984  10.171  14.229   2.133
58051SOL     OW75985   2.388   3.093  11.155
58051SOL    HW175986   2.312   3.132  11.198
58051SOL    HW275987   2.462   3.148  11.182
58052SOL     OW75988   0.144   9.740   0.818
58052SOL    HW175989   0.139   9.676   0.747
58052SOL    HW275990   0.094   9.815   0.786
58053SOL     OW75991   7.021   0.283   3.528
58053SOL    HW175992   7.062   0.259   3.611
58053SOL    HW275993   7.002   0.376   3.537
58054SOL     OW75994   6.479   2.898   9.944
58054SOL    HW175995   6.504   2.949  10.020
58054SOL    HW275996   6.406   2.843   9.975
58055SOL     OW75997   5.691   3.965   3.025
58055SOL    HW175998   5.767   4.021   3.016
58055SOL    HW275999   5.648   3.995   3.105
58056SOL     OW76000   5.405  14.079   1.657
58056SOL    HW176001   5.391  14.101   1.749
58056SOL    HW276002   5.363  14.150   1.609
58057SOL     OW76003  11.191  14.282   1.028
58057SOL    HW176004  11.125  14.223   0.992
58057SOL    HW276005  11.185  14.270   1.123
58058SOL     OW76006  11.928   1.999   2.719
58058SOL    HW176007  11.945   1.913   2.758
58058SOL    HW276008  12.009   2.048   2.731
58059SOL     OW76009   5.263   2.105  10.654
58059SOL    HW176010   5.298   2.048  10.722
58059SOL    HW276011   5.339   2.127  10.600
58060SOL     OW76012   4.941   8.296   7.063
58060SOL    HW176013   4.954   8.390   7.076
58060SOL    HW276014   5.028   8.258   7.075
58061SOL     OW76015   3.548  13.416   4.023
58061SOL    HW176016   3.597  13.338   4.047
58061SOL    HW276017   3.460  13.385   4.003
58062SOL     OW76018   2.075   1.755   1.839
58062SOL    HW176019   2.136   1.768   1.766
58062SOL    HW276020   1.999   1.713   1.799
58063SOL     OW76021   7.112  12.537  10.510
58063SOL    HW176022   7.062  12.595  10.568
58063SOL    HW276023   7.152  12.596  10.446
58064SOL     OW76024   3.041   7.424   7.200
58064SOL    HW176025   2.992   7.487   7.147
58064SOL    HW276026   3.117   7.474   7.231
58065SOL     OW76027   7.492   3.813   8.086
58065SOL    HW176028   7.580   3.829   8.055
58065SOL    HW276029   7.496   3.725   8.124
58066SOL     OW76030   7.617   3.064   4.655
58066SOL    HW176031   7.659   3.101   4.578
58066SOL    HW276032   7.525   3.051   4.629
58067SOL     OW76033  10.435   8.325   8.515
58067SOL    HW176034  10.356   8.380   8.512
58067SOL    HW276035  10.401   8.237   8.530
58068SOL     OW76036  12.720   2.162   2.431
58068SOL    HW176037  12.627   2.156   2.411
58068SOL    HW276038  12.755   2.222   2.365
58069SOL     OW76039   6.004  10.171   0.020
58069SOL    HW176040   6.008  10.075   0.013
58069SOL    HW276041   6.011  10.189   0.114
58070SOL     OW76042   1.117  10.627   6.639
58070SOL    HW176043   1.172  10.581   6.575
58070SOL    HW276044   1.178  10.683   6.687
58071SOL     OW76045   7.505   3.180   5.938
58071SOL    HW176046   7.587   3.211   5.976
58071SOL    HW276047   7.527   3.095   5.899
58072SOL     OW76048   3.959   0.366  14.594
58072SOL    HW176049   3.887   0.359  14.532
58072SOL    HW276050   3.925   0.326  14.674
58073SOL     OW76051   7.059  14.754  11.516
58073SOL    HW176052   7.130  14.781  11.457
58073SOL    HW276053   7.011  14.834  11.535
58074SOL     OW76054   3.334   5.328   0.332
58074SOL    HW176055   3.375   5.300   0.414
58074SOL    HW276056   3.262   5.265   0.320
58075SOL     OW76057   7.231   8.471  10.902
58075SOL    HW176058   7.310   8.522  10.916
58075SOL    HW276059   7.247   8.423  10.821
58076SOL     OW76060  14.361   8.340   8.907
58076SOL    HW176061  14.369   8.416   8.963
58076SOL    HW276062  14.405   8.366   8.826
58077SOL     OW76063   3.173   8.848   8.964
58077SOL    HW176064   3.199   8.756   8.958
58077SOL    HW276065   3.095   8.854   8.908
58078SOL     OW76066   4.707   5.271   2.465
58078SOL    HW176067   4.644   5.344   2.459
58078SOL    HW276068   4.725   5.263   2.559
58079SOL     OW76069   8.128  13.269   2.756
58079SOL    HW176070   8.164  13.181   2.751
58079SOL    HW276071   8.096  13.286   2.668
58080SOL     OW76072  14.131  12.381   9.705
58080SOL    HW176073  14.131  12.309   9.642
58080SOL    HW276074  14.159  12.341   9.788
58081SOL     OW76075  14.418  12.869  12.130
58081SOL    HW176076  14.491  12.852  12.190
58081SOL    HW276077  14.461  12.893  12.047
58082SOL     OW76078   9.035   0.734   3.157
58082SOL    HW176079   9.126   0.720   3.132
58082SOL    HW276080   9.015   0.823   3.130
58083SOL     OW76081  13.739   0.970   3.129
58083SOL    HW176082  13.823   0.987   3.173
58083SOL    HW276083  13.706   1.058   3.108
58084SOL     OW76084   3.516   5.528   3.182
58084SOL    HW176085   3.603   5.520   3.142
58084SOL    HW276086   3.501   5.443   3.224
58085SOL     OW76087   7.279   1.271   7.382
58085SOL    HW176088   7.293   1.186   7.422
58085SOL    HW276089   7.188   1.294   7.404
58086SOL     OW76090  11.182   5.832   9.523
58086SOL    HW176091  11.236   5.862   9.597
58086SOL    HW276092  11.095   5.870   9.541
58087SOL     OW76093   4.479   4.842  14.073
58087SOL    HW176094   4.447   4.795  14.149
58087SOL    HW276095   4.466   4.781  14.000
58088SOL     OW76096  13.391  14.001  13.892
58088SOL    HW176097  13.427  14.088  13.913
58088SOL    HW276098  13.320  14.019  13.830
58089SOL     OW76099   2.957  13.634   7.034
58089SOL    HW176100   3.036  13.580   7.024
58089SOL    HW276101   2.885  13.572   7.025
58090SOL     OW76102   2.766   2.706  13.020
58090SOL    HW176103   2.806   2.645  12.958
58090SOL    HW276104   2.677   2.675  13.031
58091SOL     OW76105  11.021   7.512   9.848
58091SOL    HW176106  10.993   7.528   9.758
58091SOL    HW276107  10.996   7.422   9.866
58092SOL     OW76108   6.102  12.242  13.046
58092SOL    HW176109   6.072  12.203  12.964
58092SOL    HW276110   6.056  12.194  13.114
58093SOL     OW76111   2.289  11.895   7.650
58093SOL    HW176112   2.305  11.874   7.558
58093SOL    HW276113   2.343  11.833   7.699
58094SOL     OW76114   8.262   1.571   1.655
58094SOL    HW176115   8.168   1.588   1.641
58094SOL    HW276116   8.289   1.522   1.578
58095SOL     OW76117   8.545  10.858  13.125
58095SOL    HW176118   8.620  10.800  13.123
58095SOL    HW276119   8.582  10.945  13.142
58096SOL     OW76120   4.132   5.018  12.402
58096SOL    HW176121   4.120   5.107  12.371
58096SOL    HW276122   4.112   5.022  12.496
58097SOL     OW76123   2.535   1.361  11.995
58097SOL    HW176124   2.626   1.340  12.016
58097SOL    HW276125   2.495   1.277  11.973
58098SOL     OW76126   8.692  12.092   7.891
58098SOL    HW176127   8.650  12.060   7.972
58098SOL    HW276128   8.651  12.041   7.821
58099SOL     OW76129   1.819  14.854  14.809
58099SOL    HW176130   1.764  14.796  14.756
58099SOL    HW276131   1.769  14.869   0.010
58100SOL     OW76132   7.939   0.433   1.045
58100SOL    HW176133   8.014   0.484   1.016
58100SOL    HW276134   7.916   0.470   1.130
58101SOL     OW76135  13.487   7.049  11.087
58101SOL    HW176136  13.548   6.982  11.058
58101SOL    HW276137  13.438   7.008  11.158
58102SOL     OW76138   5.864  14.849  10.452
58102SOL    HW176139   5.796   0.030  10.423
58102SOL    HW276140   5.890  14.802  10.373
58103SOL     OW76141   8.439  10.239   7.395
58103SOL    HW176142   8.389  10.320   7.400
58103SOL    HW276143   8.374  10.169   7.399
58104SOL     OW76144   6.171  10.144  14.017
58104SOL    HW176145   6.121  10.223  13.998
58104SOL    HW276146   6.111  10.089  14.068
58105SOL     OW76147  13.075   5.970   2.445
58105SOL    HW176148  13.136   6.033   2.407
58105SOL    HW276149  13.032   5.930   2.369
58106SOL     OW76150   1.112   9.740   6.408
58106SOL    HW176151   1.036   9.683   6.392
58106SOL    HW276152   1.085   9.826   6.377
58107SOL     OW76153   1.915   1.468   4.994
58107SOL    HW176154   1.934   1.551   5.038
58107SOL    HW276155   1.936   1.401   5.059
58108SOL     OW76156   6.839  10.670  10.198
58108SOL    HW176157   6.867  10.582  10.222
58108SOL    HW276158   6.910  10.703  10.142
58109SOL     OW76159   1.851  11.034   8.258
58109SOL    HW176160   1.898  11.075   8.186
58109SOL    HW276161   1.913  10.972   8.295
58110SOL     OW76162   5.118   4.856   7.473
58110SOL    HW176163   5.075   4.894   7.549
58110SOL    HW276164   5.047   4.834   7.413
58111SOL     OW76165   1.536   7.544  13.545
58111SOL    HW176166   1.452   7.502  13.565
58111SOL    HW276167   1.575   7.487  13.478
58112SOL     OW76168  14.566   0.942  12.467
58112SOL    HW176169  14.479   0.981  12.457
58112SOL    HW276170  14.625   1.016  12.474
58113SOL     OW76171  10.023   0.943   2.835
58113SOL    HW176172  10.100   0.910   2.788
58113SOL    HW276173   9.950   0.926   2.775
58114SOL     OW76174  12.660   6.905  10.982
58114SOL    HW176175  12.625   6.994  10.974
58114SOL    HW276176  12.587   6.849  10.957
58115SOL     OW76177   3.832   1.959   1.923
58115SOL    HW176178   3.830   1.863   1.926
58115SOL    HW276179   3.867   1.985   2.008
58116SOL     OW76180   1.262   6.442   5.084
58116SOL    HW176181   1.321   6.512   5.112
58116SOL    HW276182   1.196   6.485   5.030
58117SOL     OW76183   2.937  14.733  12.485
58117SOL    HW176184   2.880  14.712  12.412
58117SOL    HW276185   2.883  14.787  12.543
58118SOL     OW76186   0.164   1.442  13.710
58118SOL    HW176187   0.246   1.491  13.704
58118SOL    HW276188   0.099   1.507  13.737
58119SOL     OW76189   9.262   2.470   0.037
58119SOL    HW176190   9.187   2.488  14.859
58119SOL    HW276191   9.337   2.473  14.857
58120SOL     OW76192  13.712   7.901  14.680
58120SOL    HW176193  13.617   7.895  14.682
58120SOL    HW276194  13.737   7.863  14.595
58121SOL     OW76195   5.672   6.744   3.473
58121SOL    HW176196   5.646   6.734   3.381
58121SOL    HW276197   5.741   6.811   3.470
58122SOL     OW76198   8.921  13.496   0.583
58122SOL    HW176199   8.855  13.477   0.650
58122SOL    HW276200   8.873  13.542   0.514
58123SOL     OW76201  13.445  11.494   7.547
58123SOL    HW176202  13.471  11.521   7.459
58123SOL    HW276203  13.426  11.575   7.593
58124SOL     OW76204   3.906   1.283   0.472
58124SOL    HW176205   3.813   1.268   0.488
58124SOL    HW276206   3.919   1.376   0.491
58125SOL     OW76207  10.772  12.075  13.315
58125SOL    HW176208  10.790  12.165  13.342
58125SOL    HW276209  10.845  12.024  13.350
58126SOL     OW76210   2.309   8.252   2.071
58126SOL    HW176211   2.264   8.336   2.077
58126SOL    HW276212   2.322   8.225   2.162
58127SOL     OW76213   1.867   2.269   7.709
58127SOL    HW176214   1.868   2.214   7.788
58127SOL    HW276215   1.848   2.357   7.742
58128SOL     OW76216   0.659   3.332   8.955
58128SOL    HW176217   0.629   3.382   8.879
58128SOL    HW276218   0.745   3.368   8.976
58129SOL     OW76219  11.755  12.788   2.310
58129SOL    HW176220  11.747  12.882   2.327
58129SOL    HW276221  11.849  12.771   2.310
58130SOL     OW76222   4.184   4.697  13.128
58130SOL    HW176223   4.242   4.658  13.193
58130SOL    HW276224   4.204   4.651  13.046
58131SOL     OW76225  12.259  11.967   0.224
58131SOL    HW176226  12.215  11.897   0.176
58131SOL    HW276227  12.345  11.932   0.245
58132SOL     OW76228   6.709  13.818   6.986
58132SOL    HW176229   6.708  13.891   6.924
58132SOL    HW276230   6.616  13.803   7.007
58133SOL     OW76231   0.941  14.460   1.880
58133SOL    HW176232   1.006  14.439   1.813
58133SOL    HW276233   0.860  14.423   1.846
58134SOL     OW76234  11.868   9.422  14.398
58134SOL    HW176235  11.889   9.449  14.308
58134SOL    HW276236  11.778   9.391  14.393
58135SOL     OW76237  12.602  11.454   2.461
58135SOL    HW176238  12.621  11.489   2.374
58135SOL    HW276239  12.553  11.523   2.505
58136SOL     OW76240  13.476  13.509  13.911
58136SOL    HW176241  13.515  13.442  13.968
58136SOL    HW276242  13.548  13.539  13.856
58137SOL     OW76243   8.886   7.212   9.894
58137SOL    HW176244   8.859   7.173   9.977
58137SOL    HW276245   8.820   7.279   9.876
58138SOL     OW76246  11.625   7.487  13.060
58138SOL    HW176247  11.534   7.514  13.074
58138SOL    HW276248  11.677   7.563  13.086
58139SOL     OW76249   0.055   9.020   2.663
58139SOL    HW176250   0.032   9.030   2.756
58139SOL    HW276251   0.051   9.108   2.627
58140SOL     OW76252   1.718   2.021   6.163
58140SOL    HW176253   1.624   2.002   6.172
58140SOL    HW276254   1.723   2.117   6.164
58141SOL     OW76255   1.339   9.766   5.369
58141SOL    HW176256   1.307   9.686   5.411
58141SOL    HW276257   1.411   9.795   5.425
58142SOL     OW76258   7.543   2.698   8.733
58142SOL    HW176259   7.581   2.785   8.742
58142SOL    HW276260   7.449   2.713   8.720
58143SOL     OW76261   0.610   8.480   0.292
58143SOL    HW176262   0.575   8.461   0.205
58143SOL    HW276263   0.541   8.452   0.353
58144SOL     OW76264   8.201   6.267   9.791
58144SOL    HW176265   8.166   6.179   9.785
58144SOL    HW276266   8.294   6.255   9.811
58145SOL     OW76267   6.532  11.202   0.572
58145SOL    HW176268   6.463  11.182   0.635
58145SOL    HW276269   6.589  11.125   0.572
58146SOL     OW76270  12.843   3.839  10.692
58146SOL    HW176271  12.779   3.893  10.646
58146SOL    HW276272  12.807   3.830  10.781
58147SOL     OW76273   2.222   5.811   0.490
58147SOL    HW176274   2.274   5.886   0.520
58147SOL    HW276275   2.137   5.822   0.534
58148SOL     OW76276  10.115   5.602   1.832
58148SOL    HW176277  10.114   5.696   1.847
58148SOL    HW276278  10.026   5.574   1.853
58149SOL     OW76279   2.760  13.920  11.891
58149SOL    HW176280   2.685  13.938  11.948
58149SOL    HW276281   2.727  13.857  11.827
58150SOL     OW76282   6.940  14.672  14.103
58150SOL    HW176283   6.924  14.634  14.189
58150SOL    HW276284   7.016  14.729  14.116
58151SOL     OW76285   9.963  10.051   6.076
58151SOL    HW176286   9.988  10.143   6.071
58151SOL    HW276287  10.032  10.010   6.129
58152SOL     OW76288   4.798   6.329   8.951
58152SOL    HW176289   4.796   6.256   9.013
58152SOL    HW276290   4.776   6.406   9.004
58153SOL     OW76291  12.811   9.591   8.357
58153SOL    HW176292  12.859   9.670   8.331
58153SOL    HW276293  12.813   9.535   8.281
58154SOL     OW76294   0.666   5.138  11.627
58154SOL    HW176295   0.620   5.186  11.696
58154SOL    HW276296   0.749   5.112  11.667
58155SOL     OW76297  12.471   3.714   3.472
58155SOL    HW176298  12.449   3.626   3.502
58155SOL    HW276299  12.467   3.708   3.376
58156SOL     OW76300  10.116   6.257  10.517
58156SOL    HW176301  10.179   6.207  10.568
58156SOL    HW276302  10.065   6.191  10.470
58157SOL     OW76303  10.363  10.791   9.069
58157SOL    HW176304  10.319  10.861   9.118
58157SOL    HW276305  10.292  10.736   9.036
58158SOL     OW76306   9.073  10.990  13.081
58158SOL    HW176307   9.055  10.896  13.077
58158SOL    HW276308   9.153  11.002  13.031
58159SOL     OW76309   5.102   8.331   3.107
58159SOL    HW176310   5.193   8.330   3.077
58159SOL    HW276311   5.089   8.245   3.147
58160SOL     OW76312   3.925   4.504   6.473
58160SOL    HW176313   4.019   4.503   6.493
58160SOL    HW276314   3.920   4.526   6.380
58161SOL     OW76315  14.578   4.957   9.099
58161SOL    HW176316  14.508   4.896   9.078
58161SOL    HW276317  14.551   5.040   9.059
58162SOL     OW76318  10.818   6.229   2.594
58162SOL    HW176319  10.799   6.259   2.682
58162SOL    HW276320  10.880   6.293   2.559
58163SOL     OW76321   2.952   9.375   6.271
58163SOL    HW176322   3.038   9.417   6.273
58163SOL    HW276323   2.891   9.442   6.303
58164SOL     OW76324   7.413  10.122   8.299
58164SOL    HW176325   7.462  10.040   8.307
58164SOL    HW276326   7.478  10.186   8.272
58165SOL     OW76327   5.118   1.857   7.161
58165SOL    HW176328   5.143   1.774   7.120
58165SOL    HW276329   5.062   1.900   7.096
58166SOL     OW76330  10.851   3.968   4.307
58166SOL    HW176331  10.801   3.895   4.272
58166SOL    HW276332  10.787   4.037   4.322
58167SOL     OW76333   9.742   8.516  12.003
58167SOL    HW176334   9.809   8.458  12.039
58167SOL    HW276335   9.678   8.458  11.963
58168SOL     OW76336   1.442   9.991  13.014
58168SOL    HW176337   1.452   9.991  12.919
58168SOL    HW276338   1.413  10.079  13.035
58169SOL     OW76339  12.163   8.006   1.212
58169SOL    HW176340  12.194   8.064   1.144
58169SOL    HW276341  12.242   7.962   1.245
58170SOL     OW76342   6.788  11.796   2.842
58170SOL    HW176343   6.831  11.792   2.927
58170SOL    HW276344   6.855  11.830   2.783
58171SOL     OW76345   4.367   5.510  11.036
58171SOL    HW176346   4.323   5.514  11.121
58171SOL    HW276347   4.410   5.424  11.035
58172SOL     OW76348  10.936  10.909   9.229
58172SOL    HW176349  10.879  10.927   9.154
58172SOL    HW276350  11.008  10.972   9.220
58173SOL     OW76351  10.433  11.296   4.421
58173SOL    HW176352  10.399  11.306   4.510
58173SOL    HW276353  10.520  11.335   4.424
58174SOL     OW76354  14.774  10.797  14.274
58174SOL    HW176355  14.817  10.761  14.197
58174SOL    HW276356  14.845  10.842  14.321
58175SOL     OW76357   5.339   7.837   6.783
58175SOL    HW176358   5.383   7.780   6.720
58175SOL    HW276359   5.353   7.794   6.868
58176SOL     OW76360  13.546  14.347   2.433
58176SOL    HW176361  13.558  14.257   2.401
58176SOL    HW276362  13.635  14.377   2.452
58177SOL     OW76363   5.463   2.157   4.318
58177SOL    HW176364   5.523   2.202   4.378
58177SOL    HW276365   5.465   2.066   4.345
58178SOL     OW76366   7.119  12.990   4.066
58178SOL    HW176367   7.201  13.007   4.020
58178SOL    HW276368   7.087  12.908   4.028
58179SOL     OW76369   9.069  12.925  12.760
58179SOL    HW176370   9.130  12.856  12.788
58179SOL    HW276371   8.982  12.886  12.769
58180SOL     OW76372   0.653   5.276   7.514
58180SOL    HW176373   0.611   5.361   7.525
58180SOL    HW276374   0.683   5.253   7.601
58181SOL     OW76375  11.839   1.223  12.355
58181SOL    HW176376  11.772   1.162  12.387
58181SOL    HW276377  11.911   1.166  12.328
58182SOL     OW76378   4.775  12.123   5.157
58182SOL    HW176379   4.826  12.201   5.136
58182SOL    HW276380   4.729  12.102   5.076
58183SOL     OW76381  11.772  14.754   0.488
58183SOL    HW176382  11.782  14.743   0.583
58183SOL    HW276383  11.678  14.746   0.473
58184SOL     OW76384   6.448   5.547   1.731
58184SOL    HW176385   6.399   5.593   1.663
58184SOL    HW276386   6.535   5.588   1.730
58185SOL     OW76387   4.500   4.633  12.200
58185SOL    HW176388   4.517   4.587  12.282
58185SOL    HW276389   4.419   4.592  12.167
58186SOL     OW76390   6.344  14.290   7.373
58186SOL    HW176391   6.422  14.252   7.412
58186SOL    HW276392   6.374  14.372   7.334
58187SOL     OW76393   4.137  14.746   3.984
58187SOL    HW176394   4.079  14.780   4.052
58187SOL    HW276395   4.134  14.651   3.995
58188SOL     OW76396   8.000   2.703   7.728
58188SOL    HW176397   8.037   2.647   7.659
58188SOL    HW276398   7.950   2.643   7.784
58189SOL     OW76399   7.685   6.987   1.573
58189SOL    HW176400   7.597   6.994   1.609
58189SOL    HW276401   7.673   6.997   1.479
58190SOL     OW76402   4.657   8.724  12.103
58190SOL    HW176403   4.732   8.784  12.104
58190SOL    HW276404   4.584   8.778  12.073
58191SOL     OW76405  11.292   5.120   1.455
58191SOL    HW176406  11.256   5.170   1.383
58191SOL    HW276407  11.217   5.074   1.493
58192SOL     OW76408   6.217  14.130   8.152
58192SOL    HW176409   6.194  14.041   8.180
58192SOL    HW276410   6.287  14.156   8.211
58193SOL     OW76411   1.164   8.145   6.486
58193SOL    HW176412   1.225   8.167   6.557
58193SOL    HW276413   1.164   8.222   6.429
58194SOL     OW76414   5.357   1.048  11.208
58194SOL    HW176415   5.433   1.095  11.243
58194SOL    HW276416   5.389   1.005  11.129
58195SOL     OW76417  13.158   5.702  14.316
58195SOL    HW176418  13.206   5.663  14.242
58195SOL    HW276419  13.097   5.634  14.344
58196SOL     OW76420   8.863   9.325   5.212
58196SOL    HW176421   8.916   9.246   5.221
58196SOL    HW276422   8.773   9.292   5.201
58197SOL     OW76423  12.386   9.113  12.132
58197SOL    HW176424  12.303   9.076  12.102
58197SOL    HW276425  12.393   9.197  12.087
58198SOL     OW76426   9.508   0.106  12.915
58198SOL    HW176427   9.422   0.073  12.888
58198SOL    HW276428   9.542   0.039  12.974
58199SOL     OW76429   0.217   1.757   0.834
58199SOL    HW176430   0.242   1.686   0.893
58199SOL    HW276431   0.254   1.836   0.873
58200SOL     OW76432   4.309   1.018   4.270
58200SOL    HW176433   4.274   0.960   4.337
58200SOL    HW276434   4.312   0.964   4.191
58201SOL     OW76435  12.239   7.124  12.287
58201SOL    HW176436  12.165   7.100  12.231
58201SOL    HW276437  12.292   7.044  12.291
58202SOL     OW76438   5.103   9.351   8.877
58202SOL    HW176439   5.037   9.287   8.904
58202SOL    HW276440   5.126   9.396   8.958
58203SOL     OW76441   5.916   2.067   4.400
58203SOL    HW176442   5.895   2.151   4.359
58203SOL    HW276443   5.833   2.019   4.398
58204SOL     OW76444  11.888   7.618  11.713
58204SOL    HW176445  11.854   7.638  11.800
58204SOL    HW276446  11.811   7.612  11.658
58205SOL     OW76447   6.010  10.638   6.368
58205SOL    HW176448   6.092  10.674   6.335
58205SOL    HW276449   6.027  10.545   6.382
58206SOL     OW76450   3.878  12.507   9.712
58206SOL    HW176451   3.933  12.433   9.685
58206SOL    HW276452   3.821  12.471   9.780
58207SOL     OW76453   9.681   9.587   3.243
58207SOL    HW176454   9.716   9.667   3.281
58207SOL    HW276455   9.650   9.536   3.318
58208SOL     OW76456  10.252   5.695   9.550
58208SOL    HW176457  10.276   5.764   9.611
58208SOL    HW276458  10.164   5.667   9.579
58209SOL     OW76459   6.948  12.209   6.733
58209SOL    HW176460   7.004  12.188   6.659
58209SOL    HW276461   6.955  12.134   6.791
58210SOL     OW76462   5.585  12.355   4.427
58210SOL    HW176463   5.671  12.314   4.424
58210SOL    HW276464   5.523  12.283   4.433
58211SOL     OW76465  12.167   2.574   6.652
58211SOL    HW176466  12.112   2.611   6.721
58211SOL    HW276467  12.145   2.480   6.651
58212SOL     OW76468   6.935   0.881   5.882
58212SOL    HW176469   6.891   0.962   5.909
58212SOL    HW276470   6.995   0.861   5.953
58213SOL     OW76471   2.359  11.793   8.266
58213SOL    HW176472   2.429  11.744   8.222
58213SOL    HW276473   2.346  11.871   8.211
58214SOL     OW76474  11.422  13.092  14.294
58214SOL    HW176475  11.361  13.028  14.255
58214SOL    HW276476  11.503  13.043  14.305
58215SOL     OW76477  14.668   6.062   3.950
58215SOL    HW176478  14.663   6.107   4.034
58215SOL    HW276479  14.576   6.054   3.922
58216SOL     OW76480   9.965   9.714  13.575
58216SOL    HW176481   9.893   9.684  13.631
58216SOL    HW276482   9.940   9.687  13.487
58217SOL     OW76483   5.787   7.512   4.423
58217SOL    HW176484   5.860   7.573   4.406
58217SOL    HW276485   5.711   7.568   4.434
58218SOL     OW76486   7.732   7.220  14.012
58218SOL    HW176487   7.793   7.183  14.076
58218SOL    HW276488   7.673   7.147  13.991
58219SOL     OW76489   4.525   1.646   1.249
58219SOL    HW176490   4.448   1.703   1.256
58219SOL    HW276491   4.599   1.704   1.265
58220SOL     OW76492   7.553   9.448   6.363
58220SOL    HW176493   7.643   9.476   6.346
58220SOL    HW276494   7.507   9.529   6.386
58221SOL     OW76495   6.470  13.339   6.426
58221SOL    HW176496   6.475  13.258   6.374
58221SOL    HW276497   6.517  13.404   6.374
58222SOL     OW76498  14.617  10.694  12.698
58222SOL    HW176499  14.572  10.777  12.717
58222SOL    HW276500  14.556  10.647  12.642
58223SOL     OW76501   9.348   2.009   5.046
58223SOL    HW176502   9.427   1.955   5.051
58223SOL    HW276503   9.369   2.076   4.980
58224SOL     OW76504   6.256   9.334   1.032
58224SOL    HW176505   6.332   9.377   1.071
58224SOL    HW276506   6.293   9.259   0.985
58225SOL     OW76507  11.025  14.673   7.935
58225SOL    HW176508  11.117  14.681   7.959
58225SOL    HW276509  11.026  14.625   7.852
58226SOL     OW76510  10.179   0.207   0.368
58226SOL    HW176511  10.134   0.287   0.394
58226SOL    HW276512  10.128   0.136   0.406
58227SOL     OW76513   4.020   8.530  14.523
58227SOL    HW176514   3.952   8.463  14.522
58227SOL    HW276515   4.037   8.546  14.615
58228SOL     OW76516  10.507   6.487   7.385
58228SOL    HW176517  10.601   6.506   7.378
58228SOL    HW276518  10.500   6.435   7.465
58229SOL     OW76519   9.688  13.427   1.685
58229SOL    HW176520   9.747  13.495   1.655
58229SOL    HW276521   9.734  13.345   1.668
58230SOL     OW76522  10.826   7.126   5.174
58230SOL    HW176523  10.897   7.074   5.213
58230SOL    HW276524  10.869   7.208   5.149
58231SOL     OW76525   6.960   5.317   8.602
58231SOL    HW176526   6.948   5.391   8.662
58231SOL    HW276527   6.917   5.244   8.646
58232SOL     OW76528   1.719  14.863   6.992
58232SOL    HW176529   1.755   0.001   7.079
58232SOL    HW276530   1.783   0.021   6.932
58233SOL     OW76531   6.485  10.592  12.666
58233SOL    HW176532   6.462  10.528  12.733
58233SOL    HW276533   6.412  10.653  12.666
58234SOL     OW76534   8.089   6.336   6.231
58234SOL    HW176535   8.050   6.314   6.146
58234SOL    HW276536   8.173   6.376   6.208
58235SOL     OW76537  10.906   7.870   5.527
58235SOL    HW176538  10.952   7.896   5.448
58235SOL    HW276539  10.845   7.802   5.498
58236SOL     OW76540  13.646   4.380   7.702
58236SOL    HW176541  13.739   4.369   7.724
58236SOL    HW276542  13.645   4.395   7.608
58237SOL     OW76543   4.581  13.539   5.709
58237SOL    HW176544   4.516  13.571   5.773
58237SOL    HW276545   4.593  13.612   5.648
58238SOL     OW76546   2.972   0.732   0.222
58238SOL    HW176547   3.016   0.783   0.290
58238SOL    HW276548   2.986   0.782   0.142
58239SOL     OW76549   3.061   6.056   5.508
58239SOL    HW176550   3.086   6.124   5.572
58239SOL    HW276551   3.031   6.105   5.432
58240SOL     OW76552   6.593   3.918   0.298
58240SOL    HW176553   6.501   3.942   0.312
58240SOL    HW276554   6.622   3.975   0.227
58241SOL     OW76555   8.208   8.076  13.510
58241SOL    HW176556   8.210   8.016  13.584
58241SOL    HW276557   8.180   8.023  13.436
58242SOL     OW76558   9.104   0.816  11.429
58242SOL    HW176559   9.125   0.804  11.521
58242SOL    HW276560   9.131   0.906  11.409
58243SOL     OW76561  11.966  14.837   2.913
58243SOL    HW176562  11.930  14.845   2.825
58243SOL    HW276563  12.018  14.756   2.910
58244SOL     OW76564   8.993   8.144  14.432
58244SOL    HW176565   9.065   8.135  14.496
58244SOL    HW276566   8.965   8.235  14.441
58245SOL     OW76567   2.803   3.436  11.603
58245SOL    HW176568   2.853   3.357  11.622
58245SOL    HW276569   2.863   3.508  11.623
58246SOL     OW76570  12.058   6.959   1.617
58246SOL    HW176571  12.032   6.995   1.702
58246SOL    HW276572  12.046   7.031   1.555
58247SOL     OW76573   7.192   6.491   9.382
58247SOL    HW176574   7.239   6.568   9.415
58247SOL    HW276575   7.208   6.492   9.288
58248SOL     OW76576   4.756   5.811   0.625
58248SOL    HW176577   4.719   5.754   0.558
58248SOL    HW276578   4.815   5.755   0.675
58249SOL     OW76579  13.705  10.241   4.778
58249SOL    HW176580  13.645  10.180   4.820
58249SOL    HW276581  13.787  10.193   4.770
58250SOL     OW76582   3.414   0.933   7.570
58250SOL    HW176583   3.433   0.850   7.612
58250SOL    HW276584   3.343   0.971   7.622
58251SOL     OW76585   8.623   2.632   4.102
58251SOL    HW176586   8.596   2.677   4.182
58251SOL    HW276587   8.679   2.561   4.133
58252SOL     OW76588   1.324   0.874   5.342
58252SOL    HW176589   1.407   0.892   5.297
58252SOL    HW276590   1.336   0.912   5.430
58253SOL     OW76591  11.851   7.601  11.354
58253SOL    HW176592  11.807   7.686  11.358
58253SOL    HW276593  11.941   7.620  11.382
58254SOL     OW76594  14.078   5.587   6.685
58254SOL    HW176595  14.071   5.670   6.638
58254SOL    HW276596  14.060   5.610   6.776
58255SOL     OW76597   1.930   3.825   1.462
58255SOL    HW176598   1.834   3.828   1.463
58255SOL    HW276599   1.955   3.877   1.386
58256SOL     OW76600   9.746   5.031   2.435
58256SOL    HW176601   9.841   5.034   2.438
58256SOL    HW276602   9.724   4.940   2.452
58257SOL     OW76603   8.765   3.813   4.599
58257SOL    HW176604   8.839   3.856   4.641
58257SOL    HW276605   8.688   3.855   4.636
58258SOL     OW76606   5.603   3.548   0.542
58258SOL    HW176607   5.655   3.545   0.622
58258SOL    HW276608   5.547   3.470   0.547
58259SOL     OW76609   7.252   9.376   7.443
58259SOL    HW176610   7.214   9.401   7.527
58259SOL    HW276611   7.296   9.292   7.460
58260SOL     OW76612  14.217   0.879  12.461
58260SOL    HW176613  14.178   0.821  12.527
58260SOL    HW276614  14.248   0.955  12.511
58261SOL     OW76615   5.068  13.825   0.742
58261SOL    HW176616   5.031  13.744   0.777
58261SOL    HW276617   5.131  13.795   0.676
58262SOL     OW76618   1.164   7.704   0.949
58262SOL    HW176619   1.142   7.689   0.857
58262SOL    HW276620   1.127   7.790   0.969
58263SOL     OW76621  14.159  10.009   2.063
58263SOL    HW176622  14.247   9.983   2.038
58263SOL    HW276623  14.171  10.087   2.118
58264SOL     OW76624  13.637   4.061  11.071
58264SOL    HW176625  13.636   4.079  10.977
58264SOL    HW276626  13.726   4.084  11.098
58265SOL     OW76627   5.950  12.515   8.498
58265SOL    HW176628   5.976  12.423   8.503
58265SOL    HW276629   5.996  12.549   8.421
58266SOL     OW76630  10.281   5.424   8.890
58266SOL    HW176631  10.212   5.482   8.922
58266SOL    HW276632  10.297   5.452   8.800
58267SOL     OW76633   4.450   2.031  11.247
58267SOL    HW176634   4.541   2.020  11.278
58267SOL    HW276635   4.456   2.024  11.152
58268SOL     OW76636  12.651   2.875   3.259
58268SOL    HW176637  12.713   2.869   3.186
58268SOL    HW276638  12.705   2.861   3.337
58269SOL     OW76639   4.363   4.673  12.730
58269SOL    HW176640   4.284   4.661  12.676
58269SOL    HW276641   4.426   4.713  12.670
58270SOL     OW76642   3.752  14.761  12.138
58270SOL    HW176643   3.759  14.699  12.210
58270SOL    HW276644   3.747  14.847  12.181
58271SOL     OW76645   3.821   0.934   3.091
58271SOL    HW176646   3.861   0.864   3.142
58271SOL    HW276647   3.868   1.014   3.118
58272SOL     OW76648   4.810   6.562  10.527
58272SOL    HW176649   4.718   6.543  10.545
58272SOL    HW276650   4.850   6.477  10.511
58273SOL     OW76651   6.695   8.587   2.901
58273SOL    HW176652   6.605   8.621   2.904
58273SOL    HW276653   6.708   8.547   2.987
58274SOL     OW76654   7.666   5.912  12.019
58274SOL    HW176655   7.709   5.853  12.081
58274SOL    HW276656   7.696   5.883  11.933
58275SOL     OW76657   6.452   4.230   1.806
58275SOL    HW176658   6.526   4.173   1.824
58275SOL    HW276659   6.460   4.252   1.713
58276SOL     OW76660   5.541  12.706   9.024
58276SOL    HW176661   5.567  12.788   9.065
58276SOL    HW276662   5.452  12.690   9.056
58277SOL     OW76663  12.183   8.535  12.464
58277SOL    HW176664  12.116   8.600  12.484
58277SOL    HW276665  12.134   8.458  12.435
58278SOL     OW76666   1.602   7.528   7.035
58278SOL    HW176667   1.561   7.615   7.035
58278SOL    HW276668   1.646   7.522   6.951
58279SOL     OW76669   8.915   4.100  10.826
58279SOL    HW176670   8.893   4.051  10.747
58279SOL    HW276671   8.842   4.084  10.886
58280SOL     OW76672  10.341   7.484   8.227
58280SOL    HW176673  10.273   7.550   8.245
58280SOL    HW276674  10.422   7.523   8.261
58281SOL     OW76675   5.480   6.376   7.679
58281SOL    HW176676   5.417   6.382   7.607
58281SOL    HW276677   5.546   6.315   7.649
58282SOL     OW76678   0.978   8.502   1.863
58282SOL    HW176679   1.016   8.454   1.790
58282SOL    HW276680   1.026   8.585   1.865
58283SOL     OW76681   1.007  11.988   1.706
58283SOL    HW176682   1.061  12.055   1.748
58283SOL    HW276683   0.992  11.923   1.775
58284SOL     OW76684   2.542   0.418   3.769
58284SOL    HW176685   2.505   0.498   3.807
58284SOL    HW276686   2.588   0.449   3.690
58285SOL     OW76687  12.961  13.528   6.519
58285SOL    HW176688  12.954  13.611   6.473
58285SOL    HW276689  12.875  13.517   6.561
58286SOL     OW76690   4.283   9.372  10.128
58286SOL    HW176691   4.228   9.450  10.120
58286SOL    HW276692   4.305   9.349  10.037
58287SOL     OW76693   1.081  11.894  10.648
58287SOL    HW176694   1.086  11.800  10.667
58287SOL    HW276695   1.137  11.905  10.571
58288SOL     OW76696   4.698   5.568   2.191
58288SOL    HW176697   4.642   5.639   2.160
58288SOL    HW276698   4.648   5.488   2.174
58289SOL     OW76699  12.178   9.693   2.067
58289SOL    HW176700  12.208   9.621   2.123
58289SOL    HW276701  12.086   9.674   2.051
58290SOL     OW76702  12.220   6.679  10.990
58290SOL    HW176703  12.309   6.655  10.963
58290SOL    HW276704  12.174   6.596  10.996
58291SOL     OW76705   6.369   2.486  14.062
58291SOL    HW176706   6.304   2.420  14.085
58291SOL    HW276707   6.318   2.556  14.020
58292SOL     OW76708   0.986   0.422  14.222
58292SOL    HW176709   0.928   0.433  14.146
58292SOL    HW276710   0.982   0.506  14.268
58293SOL     OW76711   3.946   8.992   8.022
58293SOL    HW176712   3.989   8.993   8.107
58293SOL    HW276713   3.963   8.904   7.988
58294SOL     OW76714   6.287   1.087  11.648
58294SOL    HW176715   6.340   1.085  11.568
58294SOL    HW276716   6.270   0.995  11.668
58295SOL     OW76717  14.208  11.230   1.885
58295SOL    HW176718  14.240  11.311   1.924
58295SOL    HW276719  14.213  11.166   1.956
58296SOL     OW76720   6.114   6.493  10.414
58296SOL    HW176721   6.070   6.543  10.482
58296SOL    HW276722   6.137   6.558  10.348
58297SOL     OW76723   8.987   1.900   8.663
58297SOL    HW176724   9.080   1.913   8.682
58297SOL    HW276725   8.985   1.881   8.569
58298SOL     OW76726   4.042   7.529  10.866
58298SOL    HW176727   4.086   7.522  10.781
58298SOL    HW276728   4.073   7.612  10.902
58299SOL     OW76729  10.781  11.026   4.214
58299SOL    HW176730  10.827  11.087   4.272
58299SOL    HW276731  10.837  11.020   4.137
58300SOL     OW76732  14.209   9.023  10.680
58300SOL    HW176733  14.219   9.116  10.660
58300SOL    HW276734  14.247   8.978  10.604
58301SOL     OW76735   1.305  12.111   1.559
58301SOL    HW176736   1.361  12.121   1.636
58301SOL    HW276737   1.265  12.197   1.548
58302SOL     OW76738   8.697   7.398  14.321
58302SOL    HW176739   8.714   7.324  14.263
58302SOL    HW276740   8.636   7.454  14.272
58303SOL     OW76741   9.581  10.865   2.463
58303SOL    HW176742   9.534  10.947   2.448
58303SOL    HW276743   9.660  10.873   2.410
58304SOL     OW76744   4.005   2.525   9.628
58304SOL    HW176745   4.060   2.522   9.550
58304SOL    HW276746   3.937   2.589   9.608
58305SOL     OW76747  11.753   8.820   4.533
58305SOL    HW176748  11.658   8.823   4.536
58305SOL    HW276749  11.780   8.911   4.547
58306SOL     OW76750   2.769   8.197   8.470
58306SOL    HW176751   2.850   8.235   8.437
58306SOL    HW276752   2.728   8.157   8.393
58307SOL     OW76753   5.356   3.942   5.947
58307SOL    HW176754   5.441   3.924   5.908
58307SOL    HW276755   5.361   4.033   5.976
58308SOL     OW76756  10.769  10.321   9.016
58308SOL    HW176757  10.802  10.349   9.101
58308SOL    HW276758  10.779  10.398   8.960
58309SOL     OW76759  12.718  12.419   0.027
58309SOL    HW176760  12.744  12.473  14.831
58309SOL    HW276761  12.713  12.480   0.100
58310SOL     OW76762  10.039   9.719   1.641
58310SOL    HW176763  10.071   9.807   1.621
58310SOL    HW276764  10.092   9.690   1.714
58311SOL     OW76765   1.661   2.116  10.809
58311SOL    HW176766   1.582   2.069  10.836
58311SOL    HW276767   1.718   2.112  10.885
58312SOL     OW76768  14.389  11.467   8.375
58312SOL    HW176769  14.348  11.553   8.381
58312SOL    HW276770  14.379  11.429   8.463
58313SOL     OW76771   5.537   1.525   4.315
58313SOL    HW176772   5.467   1.461   4.323
58313SOL    HW276773   5.617   1.477   4.338
58314SOL     OW76774   3.500   4.334  13.387
58314SOL    HW176775   3.484   4.427  13.407
58314SOL    HW276776   3.416   4.301  13.356
58315SOL     OW76777   2.508   6.065   2.795
58315SOL    HW176778   2.580   6.113   2.836
58315SOL    HW276779   2.519   6.081   2.701
58316SOL     OW76780   1.045  12.176   9.243
58316SOL    HW176781   0.991  12.099   9.226
58316SOL    HW276782   0.984  12.249   9.240
58317SOL     OW76783  14.459  12.446   0.719
58317SOL    HW176784  14.493  12.536   0.716
58317SOL    HW276785  14.438  12.425   0.628
58318SOL     OW76786   7.068  11.815   7.803
58318SOL    HW176787   7.069  11.746   7.870
58318SOL    HW276788   6.975  11.831   7.786
58319SOL     OW76789  11.429  10.234  10.393
58319SOL    HW176790  11.395  10.322  10.409
58319SOL    HW276791  11.382  10.204  10.315
58320SOL     OW76792   3.597   0.525  14.308
58320SOL    HW176793   3.587   0.618  14.289
58320SOL    HW276794   3.629   0.487  14.226
58321SOL     OW76795   3.264   6.221  11.661
58321SOL    HW176796   3.301   6.153  11.718
58321SOL    HW276797   3.306   6.302  11.691
58322SOL     OW76798  14.018  10.511  10.176
58322SOL    HW176799  13.983  10.437  10.126
58322SOL    HW276800  13.985  10.498  10.265
58323SOL     OW76801   4.049   9.931  12.692
58323SOL    HW176802   3.990   9.991  12.737
58323SOL    HW276803   4.134   9.945  12.732
58324SOL     OW76804   3.948   6.988   6.132
58324SOL    HW176805   3.963   6.932   6.056
58324SOL    HW276806   3.903   7.065   6.096
58325SOL     OW76807   1.496   4.651  12.774
58325SOL    HW176808   1.540   4.696  12.702
58325SOL    HW276809   1.440   4.718  12.813
58326SOL     OW76810   2.043   5.684  10.421
58326SOL    HW176811   2.102   5.741  10.372
58326SOL    HW276812   2.001   5.743  10.484
58327SOL     OW76813   6.438  14.683   5.650
58327SOL    HW176814   6.479  14.690   5.565
58327SOL    HW276815   6.352  14.644   5.632
58328SOL     OW76816   4.590   5.711  11.076
58328SOL    HW176817   4.501   5.683  11.057
58328SOL    HW276818   4.583   5.806  11.089
58329SOL     OW76819   9.740   2.125  14.304
58329SOL    HW176820   9.772   2.159  14.388
58329SOL    HW276821   9.785   2.177  14.238
58330SOL     OW76822  13.621   9.240   8.553
58330SOL    HW176823  13.577   9.184   8.489
58330SOL    HW276824  13.550   9.284   8.599
58331SOL     OW76825  12.597   2.393  14.220
58331SOL    HW176826  12.638   2.479  14.235
58331SOL    HW276827  12.518   2.412  14.170
58332SOL     OW76828   5.745   7.376   4.193
58332SOL    HW176829   5.820   7.316   4.194
58332SOL    HW276830   5.758   7.431   4.270
58333SOL     OW76831   3.866  14.457   0.870
58333SOL    HW176832   3.819  14.512   0.932
58333SOL    HW276833   3.887  14.377   0.920
58334SOL     OW76834   0.419  13.956  14.271
58334SOL    HW176835   0.422  13.860  14.274
58334SOL    HW276836   0.468  13.979  14.192
58335SOL     OW76837  12.660   5.278   0.801
58335SOL    HW176838  12.659   5.192   0.761
58335SOL    HW276839  12.746   5.314   0.781
58336SOL     OW76840  13.214   4.933   2.612
58336SOL    HW176841  13.185   5.003   2.554
58336SOL    HW276842  13.146   4.928   2.679
58337SOL     OW76843  14.175  14.101  11.560
58337SOL    HW176844  14.198  14.116  11.652
58337SOL    HW276845  14.091  14.146  11.549
58338SOL     OW76846   7.768   9.762   2.698
58338SOL    HW176847   7.722   9.700   2.755
58338SOL    HW276848   7.808   9.825   2.757
58339SOL     OW76849  10.231   6.741   7.562
58339SOL    HW176850  10.183   6.822   7.579
58339SOL    HW276851  10.323   6.765   7.566
58340SOL     OW76852   0.610   8.810  13.069
58340SOL    HW176853   0.674   8.837  13.135
58340SOL    HW276854   0.529   8.855  13.093
58341SOL     OW76855   9.368  12.428   8.647
58341SOL    HW176856   9.412  12.392   8.570
58341SOL    HW276857   9.319  12.354   8.684
58342SOL     OW76858  11.167   2.131  11.036
58342SOL    HW176859  11.127   2.125  11.123
58342SOL    HW276860  11.131   2.056  10.988
58343SOL     OW76861   2.892  12.606   3.508
58343SOL    HW176862   2.895  12.545   3.582
58343SOL    HW276863   2.800  12.611   3.484
58344SOL     OW76864  10.096   1.883   6.001
58344SOL    HW176865  10.038   1.843   6.065
58344SOL    HW276866  10.058   1.969   5.983
58345SOL     OW76867   7.049  13.799  10.629
58345SOL    HW176868   7.067  13.811  10.723
58345SOL    HW276869   6.970  13.851  10.613
58346SOL     OW76870  12.545   4.828   5.417
58346SOL    HW176871  12.631   4.854   5.450
58346SOL    HW276872  12.484   4.890   5.457
58347SOL     OW76873  10.467   4.054   8.571
58347SOL    HW176874  10.488   4.100   8.652
58347SOL    HW276875  10.462   4.123   8.505
58348SOL     OW76876   7.251   4.674  11.642
58348SOL    HW176877   7.286   4.587  11.619
58348SOL    HW276878   7.284   4.690  11.730
58349SOL     OW76879  10.843   5.284   6.561
58349SOL    HW176880  10.856   5.310   6.470
58349SOL    HW276881  10.931   5.276   6.597
58350SOL     OW76882   2.019  11.121  12.697
58350SOL    HW176883   2.008  11.120  12.792
58350SOL    HW276884   2.011  11.214  12.673
58351SOL     OW76885  10.381   9.670   0.145
58351SOL    HW176886  10.425   9.720   0.214
58351SOL    HW276887  10.441   9.672   0.071
58352SOL     OW76888  12.586   7.741  14.487
58352SOL    HW176889  12.627   7.661  14.519
58352SOL    HW276890  12.596   7.804  14.559
58353SOL     OW76891   2.537   5.250   9.645
58353SOL    HW176892   2.501   5.170   9.608
58353SOL    HW276893   2.499   5.321   9.593
58354SOL     OW76894   6.609   1.946  12.900
58354SOL    HW176895   6.676   2.007  12.868
58354SOL    HW276896   6.606   1.961  12.995
58355SOL     OW76897  13.264  11.692   0.064
58355SOL    HW176898  13.329  11.756   0.093
58355SOL    HW276899  13.268  11.695  14.847
58356SOL     OW76900   3.759   4.035   4.213
58356SOL    HW176901   3.745   4.122   4.175
58356SOL    HW276902   3.734   4.045   4.305
58357SOL     OW76903   2.403   4.018  14.454
58357SOL    HW176904   2.430   3.986  14.368
58357SOL    HW276905   2.357   4.100  14.436
58358SOL     OW76906   2.851   7.380   5.434
58358SOL    HW176907   2.874   7.288   5.447
58358SOL    HW276908   2.932   7.421   5.404
58359SOL     OW76909   2.540   2.285   6.869
58359SOL    HW176910   2.571   2.215   6.812
58359SOL    HW276911   2.449   2.298   6.845
58360SOL     OW76912   9.864  10.367  12.124
58360SOL    HW176913   9.872  10.329  12.211
58360SOL    HW276914   9.791  10.429  12.132
58361SOL     OW76915   8.449   7.261   0.983
58361SOL    HW176916   8.363   7.238   1.019
58361SOL    HW276917   8.511   7.207   1.032
58362SOL     OW76918  11.140   1.574  14.135
58362SOL    HW176919  11.119   1.626  14.213
58362SOL    HW276920  11.233   1.553  14.145
58363SOL     OW76921   2.701   7.099   8.678
58363SOL    HW176922   2.773   7.143   8.632
58363SOL    HW276923   2.725   7.106   8.771
58364SOL     OW76924   1.679   5.676   8.204
58364SOL    HW176925   1.742   5.664   8.274
58364SOL    HW276926   1.635   5.759   8.225
58365SOL     OW76927   8.286   2.920   4.231
58365SOL    HW176928   8.199   2.892   4.258
58365SOL    HW276929   8.269   2.993   4.171
58366SOL     OW76930  13.517  10.796  14.311
58366SOL    HW176931  13.438  10.817  14.262
58366SOL    HW276932  13.574  10.872  14.296
58367SOL     OW76933   9.487   0.690  14.191
58367SOL    HW176934   9.552   0.628  14.157
58367SOL    HW276935   9.535   0.743  14.255
58368SOL     OW76936   2.324   6.109   8.684
58368SOL    HW176937   2.272   6.126   8.605
58368SOL    HW276938   2.401   6.062   8.651
58369SOL     OW76939   8.071  13.844   3.836
58369SOL    HW176940   8.134  13.843   3.908
58369SOL    HW276941   7.992  13.806   3.873
58370SOL     OW76942  14.079   5.340  14.508
58370SOL    HW176943  14.032   5.285  14.445
58370SOL    HW276944  14.171   5.333  14.481
58371SOL     OW76945  11.248   6.162   4.022
58371SOL    HW176946  11.313   6.171   3.952
58371SOL    HW276947  11.246   6.068   4.041
58372SOL     OW76948   6.444   7.692  13.113
58372SOL    HW176949   6.398   7.774  13.132
58372SOL    HW276950   6.458   7.652  13.198
58373SOL     OW76951   4.324   7.810   4.786
58373SOL    HW176952   4.349   7.902   4.786
58373SOL    HW276953   4.405   7.763   4.766
58374SOL     OW76954   7.913   4.530   1.059
58374SOL    HW176955   7.954   4.610   1.027
58374SOL    HW276956   7.922   4.535   1.154
58375SOL     OW76957   2.185   4.688  10.675
58375SOL    HW176958   2.151   4.775  10.694
58375SOL    HW276959   2.114   4.629  10.700
58376SOL     OW76960   7.632  11.842   1.803
58376SOL    HW176961   7.657  11.847   1.711
58376SOL    HW276962   7.715  11.838   1.850
58377SOL     OW76963  14.424   8.128   2.746
58377SOL    HW176964  14.341   8.130   2.793
58377SOL    HW276965  14.414   8.193   2.677
58378SOL     OW76966  14.566  11.716   2.588
58378SOL    HW176967  14.638  11.760   2.632
58378SOL    HW276968  14.585  11.623   2.598
58379SOL     OW76969   5.174   9.353   3.305
58379SOL    HW176970   5.093   9.402   3.319
58379SOL    HW276971   5.148   9.261   3.310
58380SOL     OW76972   4.998   1.361  10.650
58380SOL    HW176973   4.929   1.359  10.716
58380SOL    HW276974   4.995   1.274  10.609
58381SOL     OW76975   2.132  10.449   8.972
58381SOL    HW176976   2.190  10.523   8.952
58381SOL    HW276977   2.106  10.416   8.886
58382SOL     OW76978   8.891  12.829   5.490
58382SOL    HW176979   8.809  12.877   5.492
58382SOL    HW276980   8.871  12.746   5.447
58383SOL     OW76981  10.933   7.506   1.879
58383SOL    HW176982  10.999   7.460   1.931
58383SOL    HW276983  10.859   7.445   1.874
58384SOL     OW76984   0.661  14.869   2.960
58384SOL    HW176985   0.707   0.009   2.878
58384SOL    HW276986   0.694   0.055   3.022
58385SOL     OW76987   9.368   9.190   5.015
58385SOL    HW176988   9.361   9.179   5.110
58385SOL    HW276989   9.438   9.253   5.003
58386SOL     OW76990   8.343  11.513   1.433
58386SOL    HW176991   8.250  11.494   1.444
58386SOL    HW276992   8.386  11.465   1.504
58387SOL     OW76993  10.527   0.357   9.753
58387SOL    HW176994  10.544   0.319   9.839
58387SOL    HW276995  10.477   0.437   9.772
58388SOL     OW76996   5.456  11.527   1.791
58388SOL    HW176997   5.536  11.557   1.835
58388SOL    HW276998   5.485  11.497   1.705
58389SOL     OW76999   6.236   9.188  10.827
58389SOL    HW177000   6.152   9.161  10.864
58389SOL    HW277001   6.258   9.118  10.766
58390SOL     OW77002   0.047   2.924  12.126
58390SOL    HW177003   0.048   3.019  12.125
58390SOL    HW277004   0.130   2.899  12.168
58391SOL     OW77005   9.881   0.868   9.114
58391SOL    HW177006   9.826   0.798   9.080
58391SOL    HW277007   9.901   0.841   9.204
58392SOL     OW77008   0.703  13.080   3.079
58392SOL    HW177009   0.656  13.000   3.100
58392SOL    HW277010   0.635  13.143   3.055
58393SOL     OW77011   5.915   8.824   2.598
58393SOL    HW177012   5.963   8.773   2.532
58393SOL    HW277013   5.879   8.758   2.657
58394SOL     OW77014  12.206  10.219   7.245
58394SOL    HW177015  12.205  10.147   7.182
58394SOL    HW277016  12.153  10.188   7.319
58395SOL     OW77017   0.360   5.702  13.442
58395SOL    HW177018   0.320   5.743  13.518
58395SOL    HW277019   0.339   5.609  13.451
58396SOL     OW77020  12.847   0.476   8.179
58396SOL    HW177021  12.827   0.489   8.271
58396SOL    HW277022  12.768   0.437   8.142
58397SOL     OW77023   4.125   4.617   6.787
58397SOL    HW177024   4.198   4.558   6.769
58397SOL    HW277025   4.166   4.695   6.824
58398SOL     OW77026   0.719  14.059   5.981
58398SOL    HW177027   0.786  14.048   5.913
58398SOL    HW277028   0.706  14.154   5.986
58399SOL     OW77029   5.031   1.429  13.536
58399SOL    HW177030   4.940   1.459  13.534
58399SOL    HW277031   5.039   1.372  13.460
58400SOL     OW77032  11.253   7.960   7.215
58400SOL    HW177033  11.196   8.025   7.174
58400SOL    HW277034  11.278   7.902   7.143
58401SOL     OW77035   4.581   0.574   0.876
58401SOL    HW177036   4.576   0.485   0.840
58401SOL    HW277037   4.637   0.621   0.814
58402SOL     OW77038  13.090   0.018  13.415
58402SOL    HW177039  13.119   0.097  13.371
58402SOL    HW277040  13.168  14.863  13.459
58403SOL     OW77041   8.279  13.869   1.622
58403SOL    HW177042   8.231  13.821   1.554
58403SOL    HW277043   8.354  13.906   1.575
58404SOL     OW77044   7.571  11.197   5.355
58404SOL    HW177045   7.658  11.233   5.370
58404SOL    HW277046   7.517  11.273   5.334
58405SOL     OW77047   1.046   0.603  10.476
58405SOL    HW177048   0.957   0.627  10.451
58405SOL    HW277049   1.037   0.521  10.525
58406SOL     OW77050   8.790  14.392   7.973
58406SOL    HW177051   8.756  14.314   8.016
58406SOL    HW277052   8.871  14.362   7.931
58407SOL     OW77053   9.174   0.870  12.235
58407SOL    HW177054   9.113   0.811  12.279
58407SOL    HW277055   9.118   0.932  12.188
58408SOL     OW77056   9.312  11.318  13.499
58408SOL    HW177057   9.265  11.324  13.582
58408SOL    HW277058   9.400  11.288  13.522
58409SOL     OW77059  13.956   3.841   7.146
58409SOL    HW177060  13.894   3.904   7.108
58409SOL    HW277061  13.912   3.756   7.137
58410SOL     OW77062   1.199   4.028  10.901
58410SOL    HW177063   1.157   3.949  10.865
58410SOL    HW277064   1.228   4.076  10.823
58411SOL     OW77065   1.111   1.554   2.464
58411SOL    HW177066   1.115   1.591   2.552
58411SOL    HW277067   1.017   1.554   2.443
58412SOL     OW77068  13.162   3.582  12.819
58412SOL    HW177069  13.253   3.572  12.848
58412SOL    HW277070  13.164   3.658  12.761
58413SOL     OW77071  13.885  13.743  12.421
58413SOL    HW177072  13.790  13.756  12.426
58413SOL    HW277073  13.912  13.799  12.348
58414SOL     OW77074   0.375  10.040   4.087
58414SOL    HW177075   0.333  10.107   4.032
58414SOL    HW277076   0.319  10.033   4.164
58415SOL     OW77077   3.884  10.692   0.393
58415SOL    HW177078   3.825  10.638   0.445
58415SOL    HW277079   3.891  10.774   0.442
58416SOL     OW77080  13.136   0.493   5.479
58416SOL    HW177081  13.063   0.439   5.509
58416SOL    HW277082  13.123   0.501   5.384
58417SOL     OW77083   0.483   7.079   0.234
58417SOL    HW177084   0.501   7.008   0.295
58417SOL    HW277085   0.542   7.063   0.160
58418SOL     OW77086   6.038  13.276   1.042
58418SOL    HW177087   6.095  13.267   1.119
58418SOL    HW277088   6.042  13.370   1.020
58419SOL     OW77089   1.875   8.053  13.522
58419SOL    HW177090   1.946   8.032  13.582
58419SOL    HW277091   1.801   8.001  13.553
58420SOL     OW77092   4.761   3.507  13.620
58420SOL    HW177093   4.766   3.516  13.525
58420SOL    HW277094   4.851   3.488  13.647
58421SOL     OW77095   4.620  13.728  11.251
58421SOL    HW177096   4.673  13.650  11.239
58421SOL    HW277097   4.678  13.791  11.293
58422SOL     OW77098   9.207  12.144  12.742
58422SOL    HW177099   9.293  12.147  12.699
58422SOL    HW277100   9.203  12.225  12.792
58423SOL     OW77101   3.478   2.911  14.480
58423SOL    HW177102   3.567   2.879  14.466
58423SOL    HW277103   3.430   2.883  14.401
58424SOL     OW77104   5.967  13.069   7.973
58424SOL    HW177105   5.949  13.020   7.892
58424SOL    HW277106   5.936  13.157   7.955
58425SOL     OW77107   4.728   0.827   7.314
58425SOL    HW177108   4.761   0.782   7.391
58425SOL    HW277109   4.772   0.786   7.240
58426SOL     OW77110  14.647   7.423   4.818
58426SOL    HW177111  14.572   7.464   4.861
58426SOL    HW277112  14.719   7.485   4.831
58427SOL     OW77113  10.633  12.074   0.874
58427SOL    HW177114  10.727  12.054   0.871
58427SOL    HW277115  10.602  12.060   0.784
58428SOL     OW77116   9.553   2.298   6.298
58428SOL    HW177117   9.476   2.302   6.243
58428SOL    HW277118   9.538   2.223   6.356
58429SOL     OW77119   3.054   8.242   7.648
58429SOL    HW177120   2.992   8.312   7.664
58429SOL    HW277121   3.100   8.268   7.568
58430SOL     OW77122   7.892   1.121   9.400
58430SOL    HW177123   7.864   1.033   9.373
58430SOL    HW277124   7.976   1.134   9.356
58431SOL     OW77125  10.428   2.737   9.079
58431SOL    HW177126  10.388   2.695   9.003
58431SOL    HW277127  10.409   2.830   9.068
58432SOL     OW77128  12.598   8.954  14.594
58432SOL    HW177129  12.626   8.863  14.603
58432SOL    HW277130  12.585   8.984  14.684
58433SOL     OW77131   3.974   7.552   4.951
58433SOL    HW177132   3.997   7.469   4.992
58433SOL    HW277133   3.989   7.537   4.858
58434SOL     OW77134  11.974  13.553   7.419
58434SOL    HW177135  11.946  13.468   7.452
58434SOL    HW277136  11.940  13.557   7.330
58435SOL     OW77137   4.653  11.652   4.119
58435SOL    HW177138   4.686  11.737   4.088
58435SOL    HW277139   4.612  11.671   4.203
58436SOL     OW77140  11.809   2.427   6.569
58436SOL    HW177141  11.827   2.521   6.571
58436SOL    HW277142  11.893   2.388   6.546
58437SOL     OW77143  12.901   4.314   8.952
58437SOL    HW177144  12.946   4.387   8.994
58437SOL    HW277145  12.870   4.349   8.869
58438SOL     OW77146   0.931  14.326  11.790
58438SOL    HW177147   0.884  14.378  11.856
58438SOL    HW277148   1.008  14.293  11.837
58439SOL     OW77149   7.154   9.550   6.202
58439SOL    HW177150   7.126   9.547   6.294
58439SOL    HW277151   7.072   9.558   6.153
58440SOL     OW77152  13.249   4.004   4.871
58440SOL    HW177153  13.284   4.091   4.891
58440SOL    HW277154  13.154   4.015   4.872
58441SOL     OW77155   3.812   8.972  10.979
58441SOL    HW177156   3.842   8.921  11.054
58441SOL    HW277157   3.738   8.922  10.944
58442SOL     OW77158   9.637  10.406   7.007
58442SOL    HW177159   9.549  10.424   6.974
58442SOL    HW277160   9.644  10.310   7.005
58443SOL     OW77161   0.735   8.033  13.675
58443SOL    HW177162   0.675   7.998  13.741
58443SOL    HW277163   0.769   8.113  13.714
58444SOL     OW77164   8.294  14.477   4.591
58444SOL    HW177165   8.357  14.547   4.577
58444SOL    HW277166   8.209  14.516   4.567
58445SOL     OW77167  14.797  11.185  13.614
58445SOL    HW177168  14.770  11.125  13.545
58445SOL    HW277169  14.736  11.168  13.686
58446SOL     OW77170   5.867   9.095   2.706
58446SOL    HW177171   5.791   9.052   2.747
58446SOL    HW277172   5.913   9.025   2.661
58447SOL     OW77173  12.619  10.258   9.016
58447SOL    HW177174  12.689  10.242   8.953
58447SOL    HW277175  12.655  10.230   9.100
58448SOL     OW77176  14.450  10.995   0.512
58448SOL    HW177177  14.425  10.902   0.518
58448SOL    HW277178  14.386  11.034   0.453
58449SOL     OW77179   2.592   6.201  12.963
58449SOL    HW177180   2.501   6.180  12.939
58449SOL    HW277181   2.636   6.213  12.879
58450SOL     OW77182  10.982   9.951   1.450
58450SOL    HW177183  11.037   9.987   1.519
58450SOL    HW277184  10.975  10.022   1.386
58451SOL     OW77185   6.569   1.113   8.134
58451SOL    HW177186   6.663   1.131   8.125
58451SOL    HW277187   6.551   1.125   8.227
58452SOL     OW77188   6.727  10.857   8.097
58452SOL    HW177189   6.770  10.778   8.066
58452SOL    HW277190   6.770  10.928   8.050
58453SOL     OW77191  12.725   0.982   6.272
58453SOL    HW177192  12.817   0.957   6.267
58453SOL    HW277193  12.703   0.975   6.365
58454SOL     OW77194   1.137   3.644  11.968
58454SOL    HW177195   1.060   3.608  12.013
58454SOL    HW277196   1.170   3.711  12.028
58455SOL     OW77197   2.139   1.623  14.354
58455SOL    HW177198   2.119   1.668  14.435
58455SOL    HW277199   2.162   1.692  14.292
58456SOL     OW77200   7.424  10.979   5.656
58456SOL    HW177201   7.443  10.989   5.563
58456SOL    HW277202   7.469  10.897   5.680
58457SOL     OW77203   3.249   4.417  10.545
58457SOL    HW177204   3.255   4.470  10.465
58457SOL    HW277205   3.308   4.343  10.530
58458SOL     OW77206  11.875   3.005  10.296
58458SOL    HW177207  11.883   2.933  10.359
58458SOL    HW277208  11.918   3.079  10.338
58459SOL     OW77209   5.584   2.136  13.027
58459SOL    HW177210   5.653   2.155  13.091
58459SOL    HW277211   5.544   2.055  13.058
58460SOL     OW77212   1.042   5.454  10.235
58460SOL    HW177213   1.100   5.431  10.307
58460SOL    HW277214   1.006   5.540  10.259
58461SOL     OW77215  13.722   4.324   1.982
58461SOL    HW177216  13.654   4.326   2.049
58461SOL    HW277217  13.783   4.393   2.007
58462SOL     OW77218   9.353  12.430   5.375
58462SOL    HW177219   9.318  12.515   5.347
58462SOL    HW277220   9.444  12.448   5.398
58463SOL     OW77221   0.850   2.131  14.130
58463SOL    HW177222   0.907   2.182  14.187
58463SOL    HW277223   0.897   2.126  14.047
58464SOL     OW77224   5.208  13.575   3.178
58464SOL    HW177225   5.172  13.537   3.258
58464SOL    HW277226   5.132  13.590   3.122
58465SOL     OW77227  13.176  12.656  13.256
58465SOL    HW177228  13.209  12.571  13.226
58465SOL    HW277229  13.167  12.708  13.177
58466SOL     OW77230  11.811   5.677  13.082
58466SOL    HW177231  11.773   5.612  13.141
58466SOL    HW277232  11.737   5.707  13.028
58467SOL     OW77233  14.031   0.596   1.229
58467SOL    HW177234  14.051   0.579   1.321
58467SOL    HW277235  14.063   0.685   1.213
58468SOL     OW77236   8.850   4.175  13.433
58468SOL    HW177237   8.837   4.269  13.422
58468SOL    HW277238   8.805   4.154  13.515
58469SOL     OW77239  13.878   8.795   9.270
58469SOL    HW177240  13.888   8.890   9.272
58469SOL    HW277241  13.787   8.782   9.241
58470SOL     OW77242   7.509   0.858  12.761
58470SOL    HW177243   7.525   0.767  12.739
58470SOL    HW277244   7.596   0.898  12.764
58471SOL     OW77245   2.881  12.712   0.124
58471SOL    HW177246   2.869  12.684   0.215
58471SOL    HW277247   2.863  12.806   0.124
58472SOL     OW77248   7.205   3.241   3.743
58472SOL    HW177249   7.192   3.333   3.722
58472SOL    HW277250   7.139   3.195   3.691
58473SOL     OW77251   0.420   4.586  12.546
58473SOL    HW177252   0.338   4.627  12.572
58473SOL    HW277253   0.411   4.495  12.574
58474SOL     OW77254   6.674   0.459  12.365
58474SOL    HW177255   6.749   0.518  12.359
58474SOL    HW277256   6.712   0.377  12.396
58475SOL     OW77257  13.328  10.166   6.849
58475SOL    HW177258  13.248  10.188   6.802
58475SOL    HW277259  13.323  10.071   6.860
58476SOL     OW77260  10.661   6.232   8.048
58476SOL    HW177261  10.669   6.230   8.143
58476SOL    HW277262  10.645   6.141   8.023
58477SOL     OW77263   9.111  12.915   4.422
58477SOL    HW177264   9.106  12.995   4.372
58477SOL    HW277265   9.019  12.893   4.441
58478SOL     OW77266   0.243   8.502  10.879
58478SOL    HW177267   0.186   8.572  10.909
58478SOL    HW277268   0.282   8.467  10.959
58479SOL     OW77269   2.802   1.642  11.525
58479SOL    HW177270   2.742   1.583  11.480
58479SOL    HW277271   2.832   1.702  11.457
58480SOL     OW77272   5.226   2.799  14.649
58480SOL    HW177273   5.233   2.707  14.622
58480SOL    HW277274   5.317   2.829  14.652
58481SOL     OW77275   7.850   6.866   7.107
58481SOL    HW177276   7.928   6.828   7.148
58481SOL    HW277277   7.831   6.806   7.034
58482SOL     OW77278   2.745   2.491   1.531
58482SOL    HW177279   2.662   2.473   1.486
58482SOL    HW277280   2.756   2.586   1.521
58483SOL     OW77281  14.657   8.555  14.838
58483SOL    HW177282  14.618   8.507  14.764
58483SOL    HW277283  14.707   8.625  14.797
58484SOL     OW77284  11.938   4.060  13.910
58484SOL    HW177285  11.900   4.004  13.977
58484SOL    HW277286  11.868   4.121  13.886
58485SOL     OW77287   3.482   6.039   3.236
58485SOL    HW177288   3.517   5.969   3.179
58485SOL    HW277289   3.554   6.102   3.243
58486SOL     OW77290   4.739   3.017  11.667
58486SOL    HW177291   4.785   3.054  11.742
58486SOL    HW277292   4.647   3.042  11.680
58487SOL     OW77293   4.744   0.060  11.668
58487SOL    HW177294   4.784   0.054  11.582
58487SOL    HW277295   4.817   0.081  11.727
58488SOL     OW77296   1.136   0.260   5.965
58488SOL    HW177297   1.145   0.355   5.963
58488SOL    HW277298   1.181   0.230   5.886
58489SOL     OW77299   7.207  13.927   6.759
58489SOL    HW177300   7.219  13.985   6.684
58489SOL    HW277301   7.124  13.883   6.742
58490SOL     OW77302   5.447   3.658  13.611
58490SOL    HW177303   5.502   3.721  13.657
58490SOL    HW277304   5.454   3.578  13.664
58491SOL     OW77305  10.972  14.092  12.316
58491SOL    HW177306  10.948  14.040  12.393
58491SOL    HW277307  10.891  14.101  12.266
58492SOL     OW77308  10.321   0.667   2.483
58492SOL    HW177309  10.289   0.602   2.420
58492SOL    HW277310  10.414   0.648   2.491
58493SOL     OW77311   5.731  11.367   3.294
58493SOL    HW177312   5.771  11.366   3.207
58493SOL    HW277313   5.786  11.426   3.345
58494SOL     OW77314  12.744   1.126   4.944
58494SOL    HW177315  12.729   1.217   4.918
58494SOL    HW277316  12.663   1.080   4.919
58495SOL     OW77317   7.918  13.689   3.308
58495SOL    HW177318   7.835  13.643   3.308
58495SOL    HW277319   7.927  13.723   3.219
58496SOL     OW77320   6.505  12.326   1.888
58496SOL    HW177321   6.450  12.274   1.948
58496SOL    HW277322   6.500  12.415   1.924
58497SOL     OW77323   1.721   2.812   1.854
58497SOL    HW177324   1.741   2.840   1.765
58497SOL    HW277325   1.703   2.893   1.902
58498SOL     OW77326  14.089   1.640   5.476
58498SOL    HW177327  14.157   1.614   5.539
58498SOL    HW277328  14.137   1.680   5.404
58499SOL     OW77329   4.140  14.490   8.126
58499SOL    HW177330   4.194  14.550   8.178
58499SOL    HW277331   4.129  14.413   8.181
58500SOL     OW77332   9.010  11.971   8.316
58500SOL    HW177333   8.984  11.935   8.231
58500SOL    HW277334   9.065  12.046   8.294
58501SOL     OW77335   4.012   1.929   5.274
58501SOL    HW177336   4.088   1.892   5.227
58501SOL    HW277337   3.974   1.991   5.211
58502SOL     OW77338   7.711   1.263   9.112
58502SOL    HW177339   7.643   1.204   9.078
58502SOL    HW277340   7.777   1.264   9.043
58503SOL     OW77341   4.511  14.407   7.182
58503SOL    HW177342   4.450  14.333   7.179
58503SOL    HW277343   4.528  14.427   7.090
58504SOL     OW77344  11.570   7.130   0.088
58504SOL    HW177345  11.498   7.072   0.063
58504SOL    HW277346  11.537   7.218   0.071
58505SOL     OW77347   2.954   5.155  14.110
58505SOL    HW177348   3.038   5.113  14.094
58505SOL    HW277349   2.973   5.225  14.173
58506SOL     OW77350   5.195  14.462  13.778
58506SOL    HW177351   5.290  14.472  13.763
58506SOL    HW277352   5.164  14.551  13.792
58507SOL     OW77353  14.237   4.587  11.548
58507SOL    HW177354  14.178   4.548  11.483
58507SOL    HW277355  14.292   4.514  11.578
58508SOL     OW77356   9.387   6.021   7.968
58508SOL    HW177357   9.348   6.109   7.964
58508SOL    HW277358   9.388   5.999   8.061
58509SOL     OW77359  13.373  10.957  10.706
58509SOL    HW177360  13.320  10.885  10.741
58509SOL    HW277361  13.323  10.988  10.630
58510SOL     OW77362  14.712  12.625   1.919
58510SOL    HW177363  14.635  12.637   1.862
58510SOL    HW277364  14.765  12.703   1.903
58511SOL     OW77365   5.769   1.032   3.046
58511SOL    HW177366   5.703   1.096   3.073
58511SOL    HW277367   5.804   0.997   3.128
58512SOL     OW77368   1.682   1.300   4.649
58512SOL    HW177369   1.762   1.257   4.618
58512SOL    HW277370   1.615   1.271   4.587
58513SOL     OW77371   7.019   7.365   7.183
58513SOL    HW177372   7.078   7.439   7.168
58513SOL    HW277373   7.003   7.330   7.096
58514SOL     OW77374  10.165   3.139   1.856
58514SOL    HW177375  10.174   3.203   1.785
58514SOL    HW277376  10.090   3.086   1.829
58515SOL     OW77377   8.916   3.098  14.409
58515SOL    HW177378   9.000   3.116  14.365
58515SOL    HW277379   8.861   3.172  14.386
58516SOL     OW77380   0.732   2.915  13.326
58516SOL    HW177381   0.732   2.825  13.292
58516SOL    HW277382   0.650   2.922  13.374
58517SOL     OW77383   2.421   2.034   5.175
58517SOL    HW177384   2.369   2.019   5.096
58517SOL    HW277385   2.512   2.023   5.147
58518SOL     OW77386  11.583  11.757   3.999
58518SOL    HW177387  11.513  11.735   4.060
58518SOL    HW277388  11.566  11.848   3.975
58519SOL     OW77389   4.399   0.612   9.632
58519SOL    HW177390   4.424   0.530   9.675
58519SOL    HW277391   4.314   0.592   9.592
58520SOL     OW77392  14.446  12.593   8.303
58520SOL    HW177393  14.352  12.580   8.311
58520SOL    HW277394  14.485  12.522   8.355
58521SOL     OW77395   3.534  10.336   2.587
58521SOL    HW177396   3.517  10.424   2.555
58521SOL    HW277397   3.529  10.344   2.683
58522SOL     OW77398   2.942   6.931   1.415
58522SOL    HW177399   2.995   7.008   1.395
58522SOL    HW277400   2.955   6.872   1.340
58523SOL     OW77401   5.875  14.764  13.795
58523SOL    HW177402   5.810  14.758  13.865
58523SOL    HW277403   5.900  14.673  13.778
58524SOL     OW77404   7.330  13.309   0.779
58524SOL    HW177405   7.238  13.335   0.785
58524SOL    HW277406   7.331  13.236   0.718
58525SOL     OW77407  10.307  11.066   9.190
58525SOL    HW177408  10.241  11.091   9.254
58525SOL    HW277409  10.388  11.058   9.240
58526SOL     OW77410   2.381   3.853   0.921
58526SOL    HW177411   2.432   3.790   0.870
58526SOL    HW277412   2.448   3.903   0.969
58527SOL     OW77413   3.327   5.478   6.631
58527SOL    HW177414   3.332   5.463   6.536
58527SOL    HW277415   3.253   5.539   6.641
58528SOL     OW77416  10.731  13.356   7.986
58528SOL    HW177417  10.675  13.284   7.959
58528SOL    HW277418  10.671  13.420   8.024
58529SOL     OW77419   5.869   3.992   3.321
58529SOL    HW177420   5.794   3.940   3.351
58529SOL    HW277421   5.842   4.083   3.334
58530SOL     OW77422   9.220   6.577   6.321
58530SOL    HW177423   9.282   6.544   6.256
58530SOL    HW277424   9.185   6.498   6.362
58531SOL     OW77425   1.807   7.698  12.261
58531SOL    HW177426   1.715   7.677  12.274
58531SOL    HW277427   1.821   7.686  12.167
58532SOL     OW77428   1.052  10.105   1.243
58532SOL    HW177429   1.115  10.114   1.171
58532SOL    HW277430   1.011  10.020   1.229
58533SOL     OW77431   4.406   6.760  10.848
58533SOL    HW177432   4.477   6.784  10.907
58533SOL    HW277433   4.369   6.680  10.886
58534SOL     OW77434   7.976   6.864  13.316
58534SOL    HW177435   8.008   6.954  13.315
58534SOL    HW277436   8.021   6.823  13.390
58535SOL     OW77437   3.395   8.087   4.745
58535SOL    HW177438   3.465   8.073   4.681
58535SOL    HW277439   3.330   8.139   4.699
58536SOL     OW77440  10.381  12.744   8.126
58536SOL    HW177441  10.468  12.704   8.114
58536SOL    HW277442  10.328  12.706   8.056
58537SOL     OW77443   8.151   8.386   2.556
58537SOL    HW177444   8.166   8.316   2.492
58537SOL    HW277445   8.059   8.410   2.543
58538SOL     OW77446  14.736   0.730  12.535
58538SOL    HW177447  14.741   0.784  12.614
58538SOL    HW277448  14.698   0.788  12.468
58539SOL     OW77449   6.207   7.611   6.195
58539SOL    HW177450   6.287   7.558   6.202
58539SOL    HW277451   6.226   7.672   6.123
58540SOL     OW77452  10.528   8.299   6.470
58540SOL    HW177453  10.468   8.261   6.406
58540SOL    HW277454  10.477   8.364   6.517
58541SOL     OW77455   9.726  11.348  11.271
58541SOL    HW177456   9.795  11.287  11.245
58541SOL    HW277457   9.678  11.366  11.189
58542SOL     OW77458   8.723   3.746   5.791
58542SOL    HW177459   8.704   3.832   5.829
58542SOL    HW277460   8.804   3.758   5.741
58543SOL     OW77461   2.830   4.659   3.956
58543SOL    HW177462   2.780   4.583   3.927
58543SOL    HW277463   2.764   4.721   3.988
58544SOL     OW77464   5.583  11.948   1.823
58544SOL    HW177465   5.568  12.034   1.783
58544SOL    HW277466   5.495  11.912   1.836
58545SOL     OW77467   2.524   6.331   1.261
58545SOL    HW177468   2.523   6.395   1.332
58545SOL    HW277469   2.463   6.366   1.196
58546SOL     OW77470   1.802   7.642   2.204
58546SOL    HW177471   1.738   7.690   2.153
58546SOL    HW277472   1.841   7.707   2.262
58547SOL     OW77473  14.712  11.567  13.172
58547SOL    HW177474  14.706  11.565  13.268
58547SOL    HW277475  14.797  11.605  13.154
58548SOL     OW77476  13.941   2.806   6.022
58548SOL    HW177477  13.971   2.848   5.942
58548SOL    HW277478  13.972   2.864   6.092
58549SOL     OW77479   5.513   2.598   2.343
58549SOL    HW177480   5.482   2.688   2.334
58549SOL    HW277481   5.601   2.599   2.305
58550SOL     OW77482  10.227   5.704   8.693
58550SOL    HW177483  10.172   5.774   8.658
58550SOL    HW277484  10.208   5.702   8.786
58551SOL     OW77485  10.013   0.490   3.182
58551SOL    HW177486  10.042   0.541   3.257
58551SOL    HW277487  10.076   0.511   3.113
58552SOL     OW77488   1.889   5.690  11.121
58552SOL    HW177489   1.803   5.700  11.081
58552SOL    HW277490   1.876   5.710  11.213
58553SOL     OW77491   8.542   7.545  12.243
58553SOL    HW177492   8.465   7.535  12.299
58553SOL    HW277493   8.557   7.458  12.207
58554SOL     OW77494   5.300  11.476   6.476
58554SOL    HW177495   5.292  11.394   6.427
58554SOL    HW277496   5.345  11.536   6.417
58555SOL     OW77497   7.102  14.108  13.820
58555SOL    HW177498   7.017  14.126  13.779
58555SOL    HW277499   7.095  14.150  13.906
58556SOL     OW77500   3.025  10.495   0.824
58556SOL    HW177501   2.968  10.447   0.764
58556SOL    HW277502   2.965  10.532   0.889
58557SOL     OW77503  10.803  14.290   3.855
58557SOL    HW177504  10.810  14.366   3.912
58557SOL    HW277505  10.756  14.321   3.778
58558SOL     OW77506   8.027   8.343   8.086
58558SOL    HW177507   8.108   8.307   8.120
58558SOL    HW277508   7.987   8.271   8.038
58559SOL     OW77509  13.673   1.773   1.865
58559SOL    HW177510  13.584   1.791   1.836
58559SOL    HW277511  13.702   1.700   1.809
58560SOL     OW77512   5.904   2.838   6.963
58560SOL    HW177513   5.936   2.926   6.981
58560SOL    HW277514   5.835   2.850   6.897
58561SOL     OW77515   3.829   3.502   5.595
58561SOL    HW177516   3.784   3.422   5.621
58561SOL    HW277517   3.869   3.534   5.675
58562SOL     OW77518  12.002   5.705  12.354
58562SOL    HW177519  11.998   5.697  12.449
58562SOL    HW277520  11.944   5.778  12.333
58563SOL     OW77521   7.768   8.656   1.086
58563SOL    HW177522   7.790   8.616   1.002
58563SOL    HW277523   7.681   8.621   1.106
58564SOL     OW77524  12.571  12.319   7.000
58564SOL    HW177525  12.640  12.374   6.964
58564SOL    HW277526  12.590  12.315   7.094
58565SOL     OW77527   8.282   3.019   9.992
58565SOL    HW177528   8.209   3.080  10.003
58565SOL    HW277529   8.324   3.046   9.910
58566SOL     OW77530   7.445   2.697   3.176
58566SOL    HW177531   7.433   2.653   3.261
58566SOL    HW277532   7.432   2.627   3.112
58567SOL     OW77533   5.497  10.452   3.567
58567SOL    HW177534   5.460  10.521   3.512
58567SOL    HW277535   5.486  10.484   3.656
58568SOL     OW77536   4.086  11.941  10.016
58568SOL    HW177537   4.145  11.969   9.945
58568SOL    HW277538   4.006  11.914   9.971
58569SOL     OW77539   3.565  10.338   9.938
58569SOL    HW177540   3.569  10.411   9.877
58569SOL    HW277541   3.530  10.265   9.887
58570SOL     OW77542   1.152   2.815   0.513
58570SOL    HW177543   1.180   2.898   0.553
58570SOL    HW277544   1.058   2.825   0.498
58571SOL     OW77545   9.076   0.492  10.543
58571SOL    HW177546   9.157   0.539  10.561
58571SOL    HW277547   9.090   0.404  10.577
58572SOL     OW77548   4.590  12.585   6.955
58572SOL    HW177549   4.525  12.587   6.885
58572SOL    HW277550   4.673  12.605   6.912
58573SOL     OW77551   4.908   3.565   2.919
58573SOL    HW177552   4.979   3.543   2.860
58573SOL    HW277553   4.829   3.557   2.865
58574SOL     OW77554   1.571  14.271   9.203
58574SOL    HW177555   1.628  14.316   9.265
58574SOL    HW277556   1.547  14.190   9.248
58575SOL     OW77557   6.923   7.262   9.631
58575SOL    HW177558   6.927   7.347   9.588
58575SOL    HW277559   6.951   7.279   9.721
58576SOL     OW77560  14.248  13.667   7.333
58576SOL    HW177561  14.226  13.741   7.390
58576SOL    HW277562  14.249  13.591   7.391
58577SOL     OW77563   6.707   8.933  13.339
58577SOL    HW177564   6.752   8.916  13.256
58577SOL    HW277565   6.651   9.008  13.321
58578SOL     OW77566   5.426   3.171   5.621
58578SOL    HW177567   5.454   3.080   5.634
58578SOL    HW277568   5.331   3.169   5.636
58579SOL     OW77569   7.726  11.806   7.669
58579SOL    HW177570   7.668  11.876   7.642
58579SOL    HW277571   7.772  11.841   7.745
58580SOL     OW77572   7.570   9.974   2.620
58580SOL    HW177573   7.504   9.917   2.658
58580SOL    HW277574   7.595  10.033   2.691
58581SOL     OW77575  13.121   3.880   6.233
58581SOL    HW177576  13.206   3.843   6.258
58581SOL    HW277577  13.068   3.875   6.312
58582SOL     OW77578   5.419  11.896   5.663
58582SOL    HW177579   5.346  11.938   5.708
58582SOL    HW277580   5.495  11.950   5.685
58583SOL     OW77581   3.999   5.069   1.249
58583SOL    HW177582   4.036   4.982   1.236
58583SOL    HW277583   4.052   5.127   1.194
58584SOL     OW77584   5.221   3.104  10.548
58584SOL    HW177585   5.271   3.053  10.612
58584SOL    HW277586   5.206   3.188  10.591
58585SOL     OW77587  14.325   3.113  14.680
58585SOL    HW177588  14.382   3.188  14.660
58585SOL    HW277589  14.374   3.062  14.744
58586SOL     OW77590  12.444  12.421   8.850
58586SOL    HW177591  12.358  12.448   8.882
58586SOL    HW277592  12.504  12.440   8.922
58587SOL     OW77593   5.878   1.394   5.709
58587SOL    HW177594   5.953   1.409   5.652
58587SOL    HW277595   5.803   1.394   5.649
58588SOL     OW77596   4.229   7.946  14.249
58588SOL    HW177597   4.194   8.023  14.205
58588SOL    HW277598   4.158   7.918  14.308
58589SOL     OW77599  11.934   9.224   1.347
58589SOL    HW177600  11.940   9.281   1.270
58589SOL    HW277601  11.994   9.152   1.328
58590SOL     OW77602   3.012  12.129   2.542
58590SOL    HW177603   2.945  12.195   2.561
58590SOL    HW277604   3.060  12.120   2.624
58591SOL     OW77605  10.199  14.783   3.538
58591SOL    HW177606  10.151  14.853   3.582
58591SOL    HW277607  10.162  14.702   3.576
58592SOL     OW77608   7.416   6.405   8.815
58592SOL    HW177609   7.383   6.323   8.851
58592SOL    HW277610   7.370   6.416   8.732
58593SOL     OW77611   6.668   8.065   4.344
58593SOL    HW177612   6.679   8.032   4.433
58593SOL    HW277613   6.605   8.137   4.353
58594SOL     OW77614  11.708   1.620   9.114
58594SOL    HW177615  11.746   1.588   9.196
58594SOL    HW277616  11.638   1.679   9.142
58595SOL     OW77617   8.611  14.591  10.396
58595SOL    HW177618   8.651  14.648  10.462
58595SOL    HW277619   8.653  14.506  10.409
58596SOL     OW77620   0.876   1.543   1.634
58596SOL    HW177621   0.866   1.593   1.554
58596SOL    HW277622   0.854   1.453   1.609
58597SOL     OW77623   9.127  11.349   5.280
58597SOL    HW177624   9.048  11.312   5.241
58597SOL    HW277625   9.105  11.358   5.373
58598SOL     OW77626   5.229  10.624  12.799
58598SOL    HW177627   5.243  10.529  12.804
58598SOL    HW277628   5.192  10.647  12.884
58599SOL     OW77629   9.838   7.634  11.730
58599SOL    HW177630   9.929   7.639  11.699
58599SOL    HW277631   9.846   7.623  11.825
58600SOL     OW77632  12.571   9.860  12.890
58600SOL    HW177633  12.504   9.917  12.926
58600SOL    HW277634  12.572   9.784  12.948
58601SOL     OW77635   1.091   1.894   0.410
58601SOL    HW177636   1.074   1.960   0.478
58601SOL    HW277637   1.019   1.831   0.419
58602SOL     OW77638   0.501  13.057  13.543
58602SOL    HW177639   0.476  12.976  13.499
58602SOL    HW277640   0.420  13.091  13.580
58603SOL     OW77641   3.752  12.184   6.345
58603SOL    HW177642   3.687  12.143   6.288
58603SOL    HW277643   3.833  12.184   6.293
58604SOL     OW77644   6.574  12.500   6.024
58604SOL    HW177645   6.494  12.454   6.052
58604SOL    HW277646   6.590  12.564   6.093
58605SOL     OW77647   0.344   4.822  11.351
58605SOL    HW177648   0.296   4.904  11.339
58605SOL    HW277649   0.355   4.788  11.262
58606SOL     OW77650  14.450   5.258  14.621
58606SOL    HW177651  14.517   5.189  14.616
58606SOL    HW277652  14.499   5.339  14.607
58607SOL     OW77653   2.538  10.915  11.750
58607SOL    HW177654   2.617  10.944  11.704
58607SOL    HW277655   2.495  10.995  11.778
58608SOL     OW77656   7.044   3.947  13.115
58608SOL    HW177657   7.000   4.006  13.054
58608SOL    HW277658   7.025   3.982  13.201
58609SOL     OW77659   2.974   8.743  12.424
58609SOL    HW177660   2.953   8.836  12.433
58609SOL    HW277661   3.068   8.741  12.407
58610SOL     OW77662  11.348  14.398  10.861
58610SOL    HW177663  11.415  14.443  10.912
58610SOL    HW277664  11.363  14.426  10.771
58611SOL     OW77665   0.884  12.667   1.873
58611SOL    HW177666   0.945  12.620   1.929
58611SOL    HW277667   0.810  12.608   1.863
58612SOL     OW77668   9.445   4.215   3.392
58612SOL    HW177669   9.424   4.151   3.460
58612SOL    HW277670   9.381   4.198   3.323
58613SOL     OW77671   5.541   4.953   9.821
58613SOL    HW177672   5.634   4.957   9.800
58613SOL    HW277673   5.535   4.892   9.895
58614SOL     OW77674   8.703   5.800   7.808
58614SOL    HW177675   8.613   5.832   7.809
58614SOL    HW277676   8.755   5.875   7.780
58615SOL     OW77677   4.004   6.101   5.858
58615SOL    HW177678   3.996   6.009   5.882
58615SOL    HW277679   3.945   6.112   5.784
58616SOL     OW77680   1.508   7.225   3.186
58616SOL    HW177681   1.544   7.259   3.105
58616SOL    HW277682   1.549   7.277   3.255
58617SOL     OW77683   7.515  10.955  12.697
58617SOL    HW177684   7.587  11.014  12.673
58617SOL    HW277685   7.558  10.881  12.741
58618SOL     OW77686  12.963  11.501   1.579
58618SOL    HW177687  12.993  11.593   1.579
58618SOL    HW277688  12.877  11.504   1.620
58619SOL     OW77689   5.198   4.859  12.842
58619SOL    HW177690   5.279   4.907  12.856
58619SOL    HW277691   5.181   4.816  12.926
58620SOL     OW77692   4.816  10.689  11.128
58620SOL    HW177693   4.900  10.652  11.153
58620SOL    HW277694   4.759  10.613  11.116
58621SOL     OW77695   2.072   3.528  13.220
58621SOL    HW177696   2.119   3.445  13.228
58621SOL    HW277697   2.070   3.545  13.126
58622SOL     OW77698   9.129   3.806  10.832
58622SOL    HW177699   9.080   3.887  10.816
58622SOL    HW277700   9.061   3.741  10.852
58623SOL     OW77701  11.244   0.481   0.201
58623SOL    HW177702  11.287   0.398   0.222
58623SOL    HW277703  11.195   0.463   0.120
58624SOL     OW77704   1.871  12.468  13.217
58624SOL    HW177705   1.840  12.508  13.298
58624SOL    HW277706   1.957  12.505  13.203
58625SOL     OW77707   6.319   4.503   0.062
58625SOL    HW177708   6.267   4.582   0.078
58625SOL    HW277709   6.341   4.471   0.150
58626SOL     OW77710  13.858   7.881   5.959
58626SOL    HW177711  13.892   7.959   6.004
58626SOL    HW277712  13.821   7.915   5.877
58627SOL     OW77713  11.192   1.571  12.470
58627SOL    HW177714  11.143   1.598  12.392
58627SOL    HW277715  11.250   1.645  12.488
58628SOL     OW77716  13.942   0.162  14.234
58628SOL    HW177717  14.035   0.162  14.212
58628SOL    HW277718  13.932   0.237  14.294
58629SOL     OW77719  14.357   1.110  12.579
58629SOL    HW177720  14.295   1.134  12.649
58629SOL    HW277721  14.418   1.184  12.575
58630SOL     OW77722   6.243  11.408   8.086
58630SOL    HW177723   6.301  11.371   8.153
58630SOL    HW277724   6.277  11.374   8.003
58631SOL     OW77725  14.238   4.112   2.316
58631SOL    HW177726  14.311   4.159   2.356
58631SOL    HW277727  14.261   4.020   2.323
58632SOL     OW77728   2.080   8.336   9.491
58632SOL    HW177729   2.119   8.265   9.542
58632SOL    HW277730   1.986   8.328   9.507
58633SOL     OW77731   2.625   3.546  13.319
58633SOL    HW177732   2.533   3.557  13.347
58633SOL    HW277733   2.675   3.583  13.392
58634SOL     OW77734   0.979   5.656   9.021
58634SOL    HW177735   0.927   5.724   8.979
58634SOL    HW277736   0.987   5.587   8.954
58635SOL     OW77737   2.793  10.050   9.183
58635SOL    HW177738   2.838  10.129   9.151
58635SOL    HW277739   2.784  10.064   9.277
58636SOL     OW77740   2.792   3.331   2.887
58636SOL    HW177741   2.749   3.366   2.964
58636SOL    HW277742   2.840   3.405   2.850
58637SOL     OW77743   3.939   3.496   9.325
58637SOL    HW177744   3.857   3.497   9.375
58637SOL    HW277745   3.919   3.443   9.248
58638SOL     OW77746  11.661   8.819   6.034
58638SOL    HW177747  11.605   8.861   5.969
58638SOL    HW277748  11.719   8.889   6.065
58639SOL     OW77749  11.230   1.288  13.214
58639SOL    HW177750  11.234   1.332  13.299
58639SOL    HW277751  11.251   1.357  13.151
58640SOL     OW77752   3.478  13.526   4.799
58640SOL    HW177753   3.469  13.450   4.856
58640SOL    HW277754   3.572  13.534   4.783
58641SOL     OW77755  14.637   1.055  10.055
58641SOL    HW177756  14.604   1.025   9.971
58641SOL    HW277757  14.731   1.036  10.052
58642SOL     OW77758   1.357   7.541   9.461
58642SOL    HW177759   1.391   7.628   9.440
58642SOL    HW277760   1.330   7.505   9.377
58643SOL     OW77761   7.088   2.124   8.422
58643SOL    HW177762   7.010   2.094   8.376
58643SOL    HW277763   7.054   2.177   8.495
58644SOL     OW77764  14.344   4.187  10.641
58644SOL    HW177765  14.314   4.109  10.687
58644SOL    HW277766  14.281   4.200  10.570
58645SOL     OW77767   9.448   1.126  12.722
58645SOL    HW177768   9.398   1.192  12.674
58645SOL    HW277769   9.387   1.054  12.735
58646SOL     OW77770   0.007  10.448   1.008
58646SOL    HW177771   0.043  10.518   0.953
58646SOL    HW277772  14.810  10.489   1.052
58647SOL     OW77773  14.498   3.288   7.904
58647SOL    HW177774  14.465   3.238   7.979
58647SOL    HW277775  14.481   3.379   7.928
58648SOL     OW77776   4.597  11.349   9.425
58648SOL    HW177777   4.617  11.321   9.336
58648SOL    HW277778   4.557  11.435   9.415
58649SOL     OW77779   5.595  10.024   4.049
58649SOL    HW177780   5.651  10.073   3.989
58649SOL    HW277781   5.523   9.992   3.995
58650SOL     OW77782   6.120   0.634   1.162
58650SOL    HW177783   6.075   0.640   1.247
58650SOL    HW277784   6.175   0.556   1.170
58651SOL     OW77785   8.441  13.274   1.254
58651SOL    HW177786   8.490  13.284   1.336
58651SOL    HW277787   8.389  13.195   1.267
58652SOL     OW77788   2.498   7.562   9.434
58652SOL    HW177789   2.541   7.522   9.510
58652SOL    HW277790   2.568   7.614   9.392
58653SOL     OW77791  10.572   2.716   6.528
58653SOL    HW177792  10.516   2.668   6.467
58653SOL    HW277793  10.658   2.718   6.486
58654SOL     OW77794   1.312  12.610  12.597
58654SOL    HW177795   1.297  12.613  12.691
58654SOL    HW277796   1.296  12.518  12.573
58655SOL     OW77797   4.000  11.174   0.255
58655SOL    HW177798   4.075  11.232   0.242
58655SOL    HW277799   4.029  11.089   0.222
58656SOL     OW77800   9.396  11.526   2.359
58656SOL    HW177801   9.316  11.490   2.321
58656SOL    HW277802   9.383  11.520   2.454
58657SOL     OW77803  10.475  12.608  13.135
58657SOL    HW177804  10.532  12.533  13.115
58657SOL    HW277805  10.489  12.669  13.062
58658SOL     OW77806   9.294   0.637  14.373
58658SOL    HW177807   9.275   0.729  14.392
58658SOL    HW277808   9.341   0.639  14.290
58659SOL     OW77809   5.680   1.246   4.309
58659SOL    HW177810   5.759   1.297   4.325
58659SOL    HW277811   5.685   1.221   4.217
58660SOL     OW77812   6.861   6.807   6.177
58660SOL    HW177813   6.951   6.821   6.149
58660SOL    HW277814   6.810   6.869   6.124
58661SOL     OW77815   9.122  14.511   6.757
58661SOL    HW177816   9.187  14.456   6.713
58661SOL    HW277817   9.092  14.457   6.831
58662SOL     OW77818   1.434   4.275   6.487
58662SOL    HW177819   1.397   4.314   6.566
58662SOL    HW277820   1.496   4.340   6.455
58663SOL     OW77821   6.468  10.754  12.361
58663SOL    HW177822   6.499  10.663  12.365
58663SOL    HW277823   6.397  10.758  12.425
58664SOL     OW77824  10.394   2.413   9.534
58664SOL    HW177825  10.463   2.460   9.581
58664SOL    HW277826  10.411   2.431   9.441
58665SOL     OW77827  11.313   8.325   5.594
58665SOL    HW177828  11.256   8.379   5.650
58665SOL    HW277829  11.371   8.389   5.553
58666SOL     OW77830   2.648  10.674   8.211
58666SOL    HW177831   2.662  10.668   8.117
58666SOL    HW277832   2.560  10.638   8.224
58667SOL     OW77833   6.158   4.748   2.214
58667SOL    HW177834   6.218   4.797   2.157
58667SOL    HW277835   6.208   4.734   2.295
58668SOL     OW77836   8.193  11.044   2.432
58668SOL    HW177837   8.209  11.071   2.522
58668SOL    HW277838   8.110  11.086   2.409
58669SOL     OW77839   0.807   2.507   6.718
58669SOL    HW177840   0.854   2.434   6.758
58669SOL    HW277841   0.747   2.537   6.786
58670SOL     OW77842   7.343  10.798  14.792
58670SOL    HW177843   7.435  10.790  14.770
58670SOL    HW277844   7.302  10.832  14.713
58671SOL     OW77845   2.108   7.698   9.953
58671SOL    HW177846   2.156   7.618   9.974
58671SOL    HW277847   2.034   7.668   9.900
58672SOL     OW77848   6.771   5.702   5.160
58672SOL    HW177849   6.679   5.686   5.179
58672SOL    HW277850   6.778   5.798   5.154
58673SOL     OW77851   2.519  13.958   2.006
58673SOL    HW177852   2.581  13.933   2.074
58673SOL    HW277853   2.569  13.953   1.925
58674SOL     OW77854   0.589   8.541   6.664
58674SOL    HW177855   0.526   8.557   6.594
58674SOL    HW277856   0.639   8.622   6.671
58675SOL     OW77857  13.471   7.169  10.582
58675SOL    HW177858  13.539   7.129  10.635
58675SOL    HW277859  13.508   7.253  10.555
58676SOL     OW77860   2.792   8.831   5.696
58676SOL    HW177861   2.747   8.761   5.744
58676SOL    HW277862   2.840   8.880   5.764
58677SOL     OW77863   2.062   9.924   1.665
58677SOL    HW177864   1.991   9.983   1.639
58677SOL    HW277865   2.094   9.887   1.582
58678SOL     OW77866   3.367  12.491   9.936
58678SOL    HW177867   3.398  12.403   9.913
58678SOL    HW277868   3.371  12.540   9.854
58679SOL     OW77869  12.461   4.187   5.130
58679SOL    HW177870  12.385   4.201   5.187
58679SOL    HW277871  12.503   4.109   5.166
58680SOL     OW77872  13.978   4.240   7.523
58680SOL    HW177873  13.924   4.220   7.446
58680SOL    HW277874  14.056   4.186   7.513
58681SOL     OW77875  14.790   1.415  14.440
58681SOL    HW177876  14.804   1.468  14.362
58681SOL    HW277877  14.811   1.473  14.513
58682SOL     OW77878   7.430   4.050   8.995
58682SOL    HW177879   7.466   3.972   8.953
58682SOL    HW277880   7.440   4.119   8.930
58683SOL     OW77881  11.546  12.268   2.404
58683SOL    HW177882  11.483  12.337   2.383
58683SOL    HW277883  11.498  12.187   2.389
58684SOL     OW77884   1.394  14.544   9.251
58684SOL    HW177885   1.369  14.582   9.336
58684SOL    HW277886   1.442  14.464   9.275
58685SOL     OW77887   2.563   7.011   4.351
58685SOL    HW177888   2.583   7.086   4.407
58685SOL    HW277889   2.591   6.935   4.402
58686SOL     OW77890  12.436   6.011  10.228
58686SOL    HW177891  12.388   5.955  10.167
58686SOL    HW277892  12.528   5.993  10.211
58687SOL     OW77893   0.181   9.765   9.003
58687SOL    HW177894   0.203   9.675   8.978
58687SOL    HW277895   0.166   9.760   9.097
58688SOL     OW77896   7.165  10.542   7.776
58688SOL    HW177897   7.221  10.492   7.836
58688SOL    HW277898   7.083  10.493   7.773
58689SOL     OW77899  10.167   3.053   0.943
58689SOL    HW177900  10.165   3.145   0.971
58689SOL    HW277901  10.083   3.039   0.899
58690SOL     OW77902   6.457   7.746  12.578
58690SOL    HW177903   6.550   7.723  12.575
58690SOL    HW277904   6.440   7.789  12.495
58691SOL     OW77905   4.455   2.288   2.208
58691SOL    HW177906   4.422   2.363   2.259
58691SOL    HW277907   4.402   2.288   2.128
58692SOL     OW77908   9.294   7.110  12.267
58692SOL    HW177909   9.357   7.172  12.230
58692SOL    HW277910   9.348   7.050  12.319
58693SOL     OW77911   8.678   0.286   5.047
58693SOL    HW177912   8.716   0.228   5.113
58693SOL    HW277913   8.659   0.367   5.094
58694SOL     OW77914   3.218   5.161  10.711
58694SOL    HW177915   3.290   5.221  10.694
58694SOL    HW277916   3.180   5.144  10.625
58695SOL     OW77917  12.939  10.474   9.187
58695SOL    HW177918  12.995  10.550   9.205
58695SOL    HW277919  12.962  10.448   9.098
58696SOL     OW77920   8.196   9.750  14.505
58696SOL    HW177921   8.210   9.678  14.443
58696SOL    HW277922   8.244   9.824  14.468
58697SOL     OW77923   9.179  13.245  10.458
58697SOL    HW177924   9.177  13.173  10.521
58697SOL    HW277925   9.220  13.208  10.380
58698SOL     OW77926  10.831   9.915   2.684
58698SOL    HW177927  10.738   9.898   2.675
58698SOL    HW277928  10.861   9.849   2.746
58699SOL     OW77929  14.504   4.559   0.826
58699SOL    HW177930  14.592   4.542   0.791
58699SOL    HW277931  14.519   4.578   0.919
58700SOL     OW77932   8.190   1.036   7.077
58700SOL    HW177933   8.257   1.097   7.048
58700SOL    HW277934   8.115   1.053   7.020
58701SOL     OW77935   8.445   1.264   0.787
58701SOL    HW177936   8.407   1.207   0.853
58701SOL    HW277937   8.510   1.315   0.834
58702SOL     OW77938  14.471   1.902  13.646
58702SOL    HW177939  14.487   1.966  13.715
58702SOL    HW277940  14.534   1.925  13.577
58703SOL     OW77941   0.181  13.587   8.863
58703SOL    HW177942   0.135  13.573   8.780
58703SOL    HW277943   0.230  13.507   8.877
58704SOL     OW77944   0.935   5.013   1.035
58704SOL    HW177945   0.978   4.944   0.984
58704SOL    HW277946   0.996   5.032   1.106
58705SOL     OW77947   4.185   7.741  11.024
58705SOL    HW177948   4.269   7.704  11.052
58705SOL    HW277949   4.184   7.829  11.063
58706SOL     OW77950  14.301   3.206   3.525
58706SOL    HW177951  14.220   3.256   3.516
58706SOL    HW277952  14.367   3.260   3.482
58707SOL     OW77953  13.042  12.368   9.147
58707SOL    HW177954  13.009  12.368   9.057
58707SOL    HW277955  13.134  12.392   9.138
58708SOL     OW77956  10.919   6.784   1.794
58708SOL    HW177957  10.915   6.745   1.881
58708SOL    HW277958  11.010   6.772   1.767
58709SOL     OW77959  14.233   2.963  13.871
58709SOL    HW177960  14.259   3.045  13.912
58709SOL    HW277961  14.314   2.913  13.865
58710SOL     OW77962   4.214  10.857   7.189
58710SOL    HW177963   4.187  10.765   7.186
58710SOL    HW277964   4.207  10.888   7.099
58711SOL     OW77965  14.525   1.010   4.239
58711SOL    HW177966  14.533   1.058   4.322
58711SOL    HW277967  14.524   0.918   4.265
58712SOL     OW77968  14.860   7.886   3.494
58712SOL    HW177969  14.815   7.965   3.463
58712SOL    HW277970   0.068   7.917   3.518
58713SOL     OW77971  10.971  14.020   1.278
58713SOL    HW177972  10.984  13.972   1.196
58713SOL    HW277973  10.900  13.973   1.321
58714SOL     OW77974   4.971  10.663   6.159
58714SOL    HW177975   4.976  10.677   6.065
58714SOL    HW277976   4.880  10.682   6.181
58715SOL     OW77977   9.939  13.692   9.576
58715SOL    HW177978   9.897  13.646   9.648
58715SOL    HW277979   9.961  13.623   9.513
58716SOL     OW77980   2.913  11.724  12.635
58716SOL    HW177981   2.890  11.631  12.639
58716SOL    HW277982   2.978  11.735  12.705
58717SOL     OW77983   2.050   4.582   2.743
58717SOL    HW177984   2.104   4.652   2.778
58717SOL    HW277985   2.007   4.620   2.666
58718SOL     OW77986   8.189  10.722  14.156
58718SOL    HW177987   8.185  10.795  14.217
58718SOL    HW277988   8.149  10.649  14.203
58719SOL     OW77989   6.059  14.211  14.087
58719SOL    HW177990   6.080  14.291  14.136
58719SOL    HW277991   6.094  14.227  13.999
58720SOL     OW77992   8.412  12.397  12.117
58720SOL    HW177993   8.423  12.311  12.158
58720SOL    HW277994   8.451  12.459  12.178
58721SOL     OW77995   8.865   6.486   1.846
58721SOL    HW177996   8.914   6.537   1.910
58721SOL    HW277997   8.806   6.432   1.898
58722SOL     OW77998   7.221   6.651   0.276
58722SOL    HW177999   7.240   6.567   0.234
58722SOL    HW278000   7.249   6.716   0.211
58723SOL     OW78001   5.107   2.108  13.095
58723SOL    HW178002   5.114   2.201  13.117
58723SOL    HW278003   5.173   2.066  13.151
58724SOL     OW78004   0.306  13.219  14.396
58724SOL    HW178005   0.299  13.135  14.441
58724SOL    HW278006   0.345  13.199  14.312
58725SOL     OW78007   6.800   9.461  12.403
58725SOL    HW178008   6.875   9.417  12.361
58725SOL    HW278009   6.753   9.502  12.330
58726SOL     OW78010   1.426  13.476  13.315
58726SOL    HW178011   1.448  13.569  13.323
58726SOL    HW278012   1.417  13.446  13.405
58727SOL     OW78013   0.166   5.651   9.865
58727SOL    HW178014   0.169   5.624   9.957
58727SOL    HW278015   0.137   5.742   9.868
58728SOL     OW78016  13.497   6.744  12.787
58728SOL    HW178017  13.424   6.791  12.746
58728SOL    HW278018  13.566   6.810  12.794
58729SOL     OW78019  14.142  10.918   5.144
58729SOL    HW178020  14.200  10.883   5.077
58729SOL    HW278021  14.117  10.841   5.196
58730SOL     OW78022   0.322  13.687  12.301
58730SOL    HW178023   0.320  13.650  12.213
58730SOL    HW278024   0.245  13.650  12.345
58731SOL     OW78025   2.421  12.043   9.532
58731SOL    HW178026   2.465  11.976   9.585
58731SOL    HW278027   2.386  11.995   9.457
58732SOL     OW78028   8.158  12.727   2.214
58732SOL    HW178029   8.096  12.660   2.185
58732SOL    HW278030   8.104  12.791   2.259
58733SOL     OW78031   9.060   0.214   5.875
58733SOL    HW178032   9.085   0.272   5.803
58733SOL    HW278033   9.018   0.272   5.939
58734SOL     OW78034   0.783  11.212  13.273
58734SOL    HW178035   0.742  11.263  13.203
58734SOL    HW278036   0.850  11.269  13.309
58735SOL     OW78037   5.766   0.095   4.242
58735SOL    HW178038   5.822   0.064   4.314
58735SOL    HW278039   5.681   0.109   4.282
58736SOL     OW78040  11.218  10.406  11.836
58736SOL    HW178041  11.308  10.404  11.868
58736SOL    HW278042  11.224  10.452  11.752
58737SOL     OW78043  14.164   9.124  14.055
58737SOL    HW178044  14.089   9.090  14.007
58737SOL    HW278045  14.220   9.163  13.988
58738SOL     OW78046   2.842  13.237   1.062
58738SOL    HW178047   2.871  13.275   1.145
58738SOL    HW278048   2.905  13.270   0.997
58739SOL     OW78049   9.237   5.540   4.055
58739SOL    HW178050   9.232   5.463   4.112
58739SOL    HW278051   9.316   5.526   4.003
58740SOL     OW78052  10.553   3.625   0.727
58740SOL    HW178053  10.634   3.676   0.731
58740SOL    HW278054  10.493   3.680   0.676
58741SOL     OW78055   5.984  12.386   9.069
58741SOL    HW178056   5.922  12.451   9.034
58741SOL    HW278057   5.929  12.322   9.115
58742SOL     OW78058  14.738   0.518   4.808
58742SOL    HW178059  14.817   0.564   4.781
58742SOL    HW278060  14.720   0.458   4.735
58743SOL     OW78061   5.185  13.202  11.658
58743SOL    HW178062   5.120  13.271  11.640
58743SOL    HW278063   5.148  13.153  11.731
58744SOL     OW78064   0.452  12.740   7.378
58744SOL    HW178065   0.468  12.816   7.435
58744SOL    HW278066   0.361  12.752   7.349
58745SOL     OW78067   6.987   6.593   0.585
58745SOL    HW178068   7.009   6.531   0.655
58745SOL    HW278069   7.029   6.675   0.612
58746SOL     OW78070  14.228   2.503   9.166
58746SOL    HW178071  14.164   2.433   9.177
58746SOL    HW278072  14.176   2.583   9.167
58747SOL     OW78073   6.851  11.742   6.414
58747SOL    HW178074   6.861  11.744   6.319
58747SOL    HW278075   6.940  11.752   6.448
58748SOL     OW78076   6.587  10.214   7.021
58748SOL    HW178077   6.519  10.237   7.084
58748SOL    HW278078   6.630  10.297   7.000
58749SOL     OW78079   4.817  14.498   4.896
58749SOL    HW178080   4.745  14.506   4.958
58749SOL    HW278081   4.789  14.429   4.836
58750SOL     OW78082   7.211  12.310   8.092
58750SOL    HW178083   7.223  12.218   8.115
58750SOL    HW278084   7.163  12.308   8.009
58751SOL     OW78085   0.032   2.112   2.798
58751SOL    HW178086   0.003   2.089   2.710
58751SOL    HW278087   0.059   2.029   2.837
58752SOL     OW78088   1.224  14.698   8.093
58752SOL    HW178089   1.303  14.745   8.066
58752SOL    HW278090   1.257  14.622   8.142
58753SOL     OW78091   4.290  11.756  14.770
58753SOL    HW178092   4.346  11.713  14.704
58753SOL    HW278093   4.352  11.803  14.827
58754SOL     OW78094  11.111  10.163   2.216
58754SOL    HW178095  11.186  10.178   2.159
58754SOL    HW278096  11.095  10.248   2.257
58755SOL     OW78097   1.501   5.453  11.080
58755SOL    HW178098   1.435   5.517  11.107
58755SOL    HW278099   1.505   5.460  10.985
58756SOL     OW78100   5.313   3.467  11.991
58756SOL    HW178101   5.236   3.519  11.968
58756SOL    HW278102   5.278   3.394  12.042
58757SOL     OW78103   8.357   6.424   3.337
58757SOL    HW178104   8.342   6.435   3.243
58757SOL    HW278105   8.376   6.331   3.347
58758SOL     OW78106  10.262  14.188  13.788
58758SOL    HW178107  10.197  14.132  13.831
58758SOL    HW278108  10.211  14.262  13.753
58759SOL     OW78109  11.666  14.753  12.723
58759SOL    HW178110  11.644  14.751  12.630
58759SOL    HW278111  11.649  14.664  12.754
58760SOL     OW78112  10.795  14.006  10.096
58760SOL    HW178113  10.766  13.995  10.005
58760SOL    HW278114  10.767  13.926  10.140
58761SOL     OW78115   3.733   9.705   2.882
58761SOL    HW178116   3.682   9.624   2.887
58761SOL    HW278117   3.701   9.749   2.803
58762SOL     OW78118   7.331   0.151   9.064
58762SOL    HW178119   7.377   0.221   9.018
58762SOL    HW278120   7.335   0.178   9.156
58763SOL     OW78121   5.982   9.088   8.540
58763SOL    HW178122   6.035   9.122   8.468
58763SOL    HW278123   5.947   9.167   8.582
58764SOL     OW78124   7.250   5.575   3.618
58764SOL    HW178125   7.343   5.557   3.622
58764SOL    HW278126   7.209   5.507   3.671
58765SOL     OW78127  12.349   2.325   4.822
58765SOL    HW178128  12.409   2.397   4.841
58765SOL    HW278129  12.373   2.256   4.885
58766SOL     OW78130   5.763   8.928   8.928
58766SOL    HW178131   5.856   8.906   8.927
58766SOL    HW278132   5.756   9.005   8.873
58767SOL     OW78133   3.918   7.706  11.200
58767SOL    HW178134   4.002   7.693  11.245
58767SOL    HW278135   3.883   7.786  11.239
58768SOL     OW78136   3.282   3.678  10.024
58768SOL    HW178137   3.203   3.658   9.973
58768SOL    HW278138   3.354   3.653   9.967
58769SOL     OW78139   2.304   5.845  14.874
58769SOL    HW178140   2.361   5.867   0.070
58769SOL    HW278141   2.364   5.822  14.804
58770SOL     OW78142  12.577   7.027   2.688
58770SOL    HW178143  12.540   7.088   2.752
58770SOL    HW278144  12.605   7.083   2.616
58771SOL     OW78145   6.538   8.003   6.904
58771SOL    HW178146   6.476   7.931   6.894
58771SOL    HW278147   6.624   7.962   6.892
58772SOL     OW78148   1.299   0.865   4.883
58772SOL    HW178149   1.344   0.924   4.943
58772SOL    HW278150   1.259   0.923   4.817
58773SOL     OW78151  14.774   2.693   1.134
58773SOL    HW178152  14.784   2.724   1.044
58773SOL    HW278153  14.779   2.773   1.187
58774SOL     OW78154   6.003  11.952  14.707
58774SOL    HW178155   5.931  11.909  14.753
58774SOL    HW278156   6.078  11.942  14.766
58775SOL     OW78157   3.517  11.773  10.605
58775SOL    HW178158   3.466  11.701  10.568
58775SOL    HW278159   3.556  11.735  10.684
58776SOL     OW78160   0.654   7.491  11.153
58776SOL    HW178161   0.610   7.528  11.229
58776SOL    HW278162   0.682   7.567  11.102
58777SOL     OW78163  13.874   9.023   3.792
58777SOL    HW178164  13.945   9.051   3.735
58777SOL    HW278165  13.915   9.006   3.876
58778SOL     OW78166   5.936   3.354  14.586
58778SOL    HW178167   5.851   3.351  14.629
58778SOL    HW278168   5.996   3.383  14.654
58779SOL     OW78169   9.602   7.613  10.551
58779SOL    HW178170   9.669   7.594  10.617
58779SOL    HW278171   9.551   7.533  10.545
58780SOL     OW78172  13.076   9.690   7.144
58780SOL    HW178173  13.056   9.783   7.136
58780SOL    HW278174  12.991   9.647   7.139
58781SOL     OW78175  14.329   0.159   9.045
58781SOL    HW178176  14.367   0.203   8.969
58781SOL    HW278177  14.276   0.088   9.009
58782SOL     OW78178   3.598  13.127   3.282
58782SOL    HW178179   3.676  13.105   3.232
58782SOL    HW278180   3.625  13.199   3.339
58783SOL     OW78181   6.470   7.571   4.013
58783SOL    HW178182   6.420   7.494   3.984
58783SOL    HW278183   6.425   7.600   4.092
58784SOL     OW78184   0.818   8.238   5.315
58784SOL    HW178185   0.813   8.230   5.220
58784SOL    HW278186   0.881   8.309   5.330
58785SOL     OW78187   5.581   5.245   2.893
58785SOL    HW178188   5.673   5.256   2.915
58785SOL    HW278189   5.553   5.330   2.861
58786SOL     OW78190   6.569  13.201  14.582
58786SOL    HW178191   6.535  13.235  14.665
58786SOL    HW278192   6.627  13.130  14.608
58787SOL     OW78193   7.036  12.740  10.676
58787SOL    HW178194   6.964  12.780  10.628
58787SOL    HW278195   7.108  12.803  10.668
58788SOL     OW78196   2.033   6.392   5.144
58788SOL    HW178197   1.945   6.362   5.123
58788SOL    HW278198   2.047   6.468   5.088
58789SOL     OW78199   2.434   0.145   8.669
58789SOL    HW178200   2.470   0.122   8.755
58789SOL    HW278201   2.342   0.120   8.674
58790SOL     OW78202  12.499   2.823   1.730
58790SOL    HW178203  12.555   2.866   1.794
58790SOL    HW278204  12.417   2.873   1.732
58791SOL     OW78205   0.948   7.135   1.398
58791SOL    HW178206   1.002   7.202   1.439
58791SOL    HW278207   0.973   7.137   1.305
58792SOL     OW78208   5.887   9.380  10.687
58792SOL    HW178209   5.849   9.468  10.691
58792SOL    HW278210   5.981   9.395  10.696
58793SOL     OW78211  13.745  12.369   6.288
58793SOL    HW178212  13.677  12.364   6.221
58793SOL    HW278213  13.705  12.419   6.359
58794SOL     OW78214   8.185   1.380   5.408
58794SOL    HW178215   8.115   1.361   5.471
58794SOL    HW278216   8.150   1.349   5.324
58795SOL     OW78217   0.473   1.118   6.801
58795SOL    HW178218   0.491   1.167   6.881
58795SOL    HW278219   0.545   1.140   6.742
58796SOL     OW78220   8.556   7.628   5.954
58796SOL    HW178221   8.477   7.650   6.004
58796SOL    HW278222   8.523   7.607   5.866
58797SOL     OW78223   0.463  13.433   1.993
58797SOL    HW178224   0.519  13.420   2.070
58797SOL    HW278225   0.501  13.509   1.949
58798SOL     OW78226   5.721   2.321   2.757
58798SOL    HW178227   5.718   2.292   2.848
58798SOL    HW278228   5.649   2.275   2.714
58799SOL     OW78229   8.327   9.081   4.864
58799SOL    HW178230   8.295   9.169   4.885
58799SOL    HW278231   8.350   9.087   4.771
58800SOL     OW78232   9.262   5.584  10.966
58800SOL    HW178233   9.209   5.508  10.942
58800SOL    HW278234   9.219   5.619  11.044
58801SOL     OW78235   3.820   4.953  10.645
58801SOL    HW178236   3.730   4.975  10.618
58801SOL    HW278237   3.809   4.885  10.711
58802SOL     OW78238   5.003  11.964  12.821
58802SOL    HW178239   4.965  11.878  12.839
58802SOL    HW278240   4.927  12.020  12.807
58803SOL     OW78241   9.964  13.548  10.779
58803SOL    HW178242   9.895  13.485  10.760
58803SOL    HW278243   9.986  13.587  10.694
58804SOL     OW78244   5.101   9.686   3.605
58804SOL    HW178245   5.123   9.765   3.656
58804SOL    HW278246   5.186   9.648   3.583
58805SOL     OW78247   0.851   3.345   6.122
58805SOL    HW178248   0.847   3.327   6.028
58805SOL    HW278249   0.767   3.315   6.156
58806SOL     OW78250  14.435   6.757   5.060
58806SOL    HW178251  14.497   6.756   4.987
58806SOL    HW278252  14.365   6.698   5.034
58807SOL     OW78253  10.759  12.791   6.527
58807SOL    HW178254  10.712  12.714   6.559
58807SOL    HW278255  10.766  12.848   6.603
58808SOL     OW78256  10.955  11.242   1.950
58808SOL    HW178257  10.994  11.316   1.904
58808SOL    HW278258  10.889  11.282   2.007
58809SOL     OW78259   7.395  14.726   4.516
58809SOL    HW178260   7.391  14.818   4.490
58809SOL    HW278261   7.469  14.690   4.468
58810SOL     OW78262  12.360  12.572  12.380
58810SOL    HW178263  12.419  12.497  12.376
58810SOL    HW278264  12.383  12.624  12.303
58811SOL     OW78265   5.611   4.399   9.248
58811SOL    HW178266   5.596   4.338   9.176
58811SOL    HW278267   5.706   4.412   9.249
58812SOL     OW78268   5.098   5.361  11.742
58812SOL    HW178269   5.098   5.355  11.838
58812SOL    HW278270   5.145   5.283  11.713
58813SOL     OW78271  14.489   2.072   2.180
58813SOL    HW178272  14.533   2.154   2.159
58813SOL    HW278273  14.487   2.023   2.098
58814SOL     OW78274   8.184  10.529   0.155
58814SOL    HW178275   8.130  10.462   0.196
58814SOL    HW278276   8.271  10.518   0.194
58815SOL     OW78277   0.488  14.857  11.404
58815SOL    HW178278   0.499  14.797  11.330
58815SOL    HW278279   0.399   0.013  11.394
58816SOL     OW78280   3.369  11.663   3.659
58816SOL    HW178281   3.310  11.688   3.730
58816SOL    HW278282   3.446  11.628   3.702
58817SOL     OW78283  11.507   4.206  10.172
58817SOL    HW178284  11.515   4.188  10.266
58817SOL    HW278285  11.472   4.295  10.168
58818SOL     OW78286   3.785   1.334   1.635
58818SOL    HW178287   3.828   1.393   1.697
58818SOL    HW278288   3.852   1.316   1.569
58819SOL     OW78289  14.336   5.641   8.948
58819SOL    HW178290  14.318   5.710   9.012
58819SOL    HW278291  14.413   5.596   8.982
58820SOL     OW78292   8.227   4.550  13.634
58820SOL    HW178293   8.299   4.489  13.618
58820SOL    HW278294   8.271   4.630  13.665
58821SOL     OW78295   3.102  11.317   6.299
58821SOL    HW178296   3.187  11.323   6.342
58821SOL    HW278297   3.045  11.276   6.365
58822SOL     OW78298  13.794  11.815  14.223
58822SOL    HW178299  13.789  11.788  14.315
58822SOL    HW278300  13.732  11.888  14.217
58823SOL     OW78301  12.173   0.271   2.389
58823SOL    HW178302  12.118   0.320   2.450
58823SOL    HW278303  12.191   0.332   2.318
58824SOL     OW78304  10.056  10.714   1.374
58824SOL    HW178305  10.145  10.730   1.405
58824SOL    HW278306  10.024  10.800   1.346
58825SOL     OW78307   0.368  10.226   9.978
58825SOL    HW178308   0.415  10.240  10.061
58825SOL    HW278309   0.349  10.315   9.947
58826SOL     OW78310   5.127   2.112   2.418
58826SOL    HW178311   5.104   2.130   2.509
58826SOL    HW278312   5.217   2.078   2.423
58827SOL     OW78313   2.963   3.710   9.266
58827SOL    HW178314   2.915   3.666   9.337
58827SOL    HW278315   2.947   3.655   9.189
58828SOL     OW78316   6.786   4.543   0.453
58828SOL    HW178317   6.792   4.449   0.438
58828SOL    HW278318   6.868   4.566   0.495
58829SOL     OW78319   5.777   3.648   4.296
58829SOL    HW178320   5.757   3.737   4.326
58829SOL    HW278321   5.766   3.652   4.201
58830SOL     OW78322  11.338  12.256  10.603
58830SOL    HW178323  11.313  12.266  10.695
58830SOL    HW278324  11.318  12.164  10.583
58831SOL     OW78325   3.547   0.535  12.558
58831SOL    HW178326   3.503   0.451  12.573
58831SOL    HW278327   3.478   0.593  12.528
58832SOL     OW78328   7.334   1.725  10.267
58832SOL    HW178329   7.285   1.772  10.200
58832SOL    HW278330   7.338   1.634  10.235
58833SOL     OW78331   3.116  14.171  13.812
58833SOL    HW178332   3.182  14.104  13.799
58833SOL    HW278333   3.043  14.145  13.757
58834SOL     OW78334   1.342   9.722  13.854
58834SOL    HW178335   1.366   9.648  13.910
58834SOL    HW278336   1.246   9.725  13.858
58835SOL     OW78337   8.576   1.374  13.749
58835SOL    HW178338   8.500   1.408  13.797
58835SOL    HW278339   8.609   1.303  13.803
58836SOL     OW78340   7.693   2.290  13.352
58836SOL    HW178341   7.687   2.375  13.308
58836SOL    HW278342   7.759   2.302  13.420
58837SOL     OW78343   2.177   0.064   5.128
58837SOL    HW178344   2.138  14.855   5.125
58837SOL    HW278345   2.174   0.088   5.221
58838SOL     OW78346   7.488  10.461  12.190
58838SOL    HW178347   7.469  10.369  12.208
58838SOL    HW278348   7.581  10.471  12.209
58839SOL     OW78349   5.037   4.747   0.277
58839SOL    HW178350   5.125   4.726   0.244
58839SOL    HW278351   5.000   4.662   0.302
58840SOL     OW78352   0.556  13.272   0.102
58840SOL    HW178353   0.513  13.354   0.081
58840SOL    HW278354   0.621  13.260   0.032
58841SOL     OW78355  11.948  10.707  11.029
58841SOL    HW178356  11.917  10.781  10.977
58841SOL    HW278357  11.897  10.712  11.110
58842SOL     OW78358   7.862  10.716   8.643
58842SOL    HW178359   7.884  10.627   8.668
58842SOL    HW278360   7.909  10.731   8.561
58843SOL     OW78361   6.885   0.505   5.641
58843SOL    HW178362   6.910   0.415   5.659
58843SOL    HW278363   6.959   0.542   5.593
58844SOL     OW78364   8.671   0.507  10.639
58844SOL    HW178365   8.601   0.572  10.639
58844SOL    HW278366   8.672   0.472  10.550
58845SOL     OW78367   2.827   3.319  14.652
58845SOL    HW178368   2.862   3.311  14.564
58845SOL    HW278369   2.743   3.274  14.649
58846SOL     OW78370   8.424   1.664  11.419
58846SOL    HW178371   8.340   1.711  11.422
58846SOL    HW278372   8.485   1.728  11.382
58847SOL     OW78373   9.946  10.925  12.054
58847SOL    HW178374   9.989  10.994  12.105
58847SOL    HW278375   9.906  10.971  11.980
58848SOL     OW78376   0.796   5.960   4.206
58848SOL    HW178377   0.820   5.926   4.120
58848SOL    HW278378   0.734   5.896   4.242
58849SOL     OW78379   2.841  10.284   0.361
58849SOL    HW178380   2.839  10.312   0.270
58849SOL    HW278381   2.842  10.188   0.357
58850SOL     OW78382  13.375   8.088   1.821
58850SOL    HW178383  13.405   8.162   1.767
58850SOL    HW278384  13.327   8.129   1.893
58851SOL     OW78385   6.167   2.815   6.441
58851SOL    HW178386   6.245   2.851   6.483
58851SOL    HW278387   6.192   2.805   6.349
58852SOL     OW78388   7.323   3.047   6.683
58852SOL    HW178389   7.256   3.103   6.644
58852SOL    HW278390   7.353   2.992   6.610
58853SOL     OW78391   2.784   3.411   4.497
58853SOL    HW178392   2.803   3.415   4.591
58853SOL    HW278393   2.853   3.355   4.461
58854SOL     OW78394  14.278  12.646   2.939
58854SOL    HW178395  14.242  12.695   2.865
58854SOL    HW278396  14.334  12.580   2.899
58855SOL     OW78397  13.540   5.190  10.574
58855SOL    HW178398  13.555   5.278  10.539
58855SOL    HW278399  13.570   5.195  10.665
58856SOL     OW78400   3.101  14.331   2.637
58856SOL    HW178401   3.101  14.295   2.726
58856SOL    HW278402   3.193  14.339   2.615
58857SOL     OW78403   6.152   0.323  14.345
58857SOL    HW178404   6.146   0.248  14.404
58857SOL    HW278405   6.110   0.293  14.264
58858SOL     OW78406  13.940   4.357  12.253
58858SOL    HW178407  13.855   4.400  12.259
58858SOL    HW278408  13.938   4.312  12.168
58859SOL     OW78409  14.136  12.438   0.905
58859SOL    HW178410  14.131  12.527   0.939
58859SOL    HW278411  14.128  12.448   0.810
58860SOL     OW78412   8.485   1.887   4.648
58860SOL    HW178413   8.579   1.893   4.668
58860SOL    HW278414   8.479   1.916   4.557
58861SOL     OW78415   3.543   3.404   7.957
58861SOL    HW178416   3.530   3.393   8.052
58861SOL    HW278417   3.543   3.498   7.944
58862SOL     OW78418   4.191   0.024  14.620
58862SOL    HW178419   4.207  14.822  14.670
58862SOL    HW278420   4.095   0.031  14.617
58863SOL     OW78421   6.878   8.217  12.141
58863SOL    HW178422   6.854   8.222  12.048
58863SOL    HW278423   6.966   8.180  12.140
58864SOL     OW78424   5.651   5.225  12.018
58864SOL    HW178425   5.636   5.285  11.946
58864SOL    HW278426   5.740   5.244  12.047
58865SOL     OW78427  12.395  13.728   6.102
58865SOL    HW178428  12.393  13.792   6.032
58865SOL    HW278429  12.366  13.776   6.180
58866SOL     OW78430  11.901  11.938   5.176
58866SOL    HW178431  11.809  11.912   5.180
58866SOL    HW278432  11.910  12.005   5.243
58867SOL     OW78433  13.783  11.201   2.114
58867SOL    HW178434  13.838  11.277   2.096
58867SOL    HW278435  13.705  11.216   2.061
58868SOL     OW78436   1.741   2.659   1.070
58868SOL    HW178437   1.649   2.646   1.050
58868SOL    HW278438   1.756   2.607   1.149
58869SOL     OW78439  11.763   3.730   9.663
58869SOL    HW178440  11.830   3.718   9.731
58869SOL    HW278441  11.758   3.825   9.652
58870SOL     OW78442   3.272   7.589   2.549
58870SOL    HW178443   3.306   7.649   2.615
58870SOL    HW278444   3.315   7.506   2.568
58871SOL     OW78445   7.614  11.677  10.527
58871SOL    HW178446   7.680  11.629  10.477
58871SOL    HW278447   7.532  11.631  10.510
58872SOL     OW78448   0.231   9.628   2.353
58872SOL    HW178449   0.255   9.536   2.341
58872SOL    HW278450   0.194   9.632   2.441
58873SOL     OW78451   9.801  14.709  11.632
58873SOL    HW178452   9.864  14.653  11.677
58873SOL    HW278453   9.837  14.797  11.640
58874SOL     OW78454   8.061   6.099   4.888
58874SOL    HW178455   8.096   6.038   4.952
58874SOL    HW278456   7.985   6.055   4.850
58875SOL     OW78457   5.167  10.078  10.305
58875SOL    HW178458   5.193  10.030  10.226
58875SOL    HW278459   5.098  10.137  10.275
58876SOL     OW78460  11.333  11.175   2.332
58876SOL    HW178461  11.404  11.201   2.274
58876SOL    HW278462  11.254  11.209   2.290
58877SOL     OW78463  11.710  11.580   8.537
58877SOL    HW178464  11.634  11.613   8.490
58877SOL    HW278465  11.695  11.603   8.628
58878SOL     OW78466   2.538   5.978   6.227
58878SOL    HW178467   2.555   5.899   6.278
58878SOL    HW278468   2.507   5.945   6.143
58879SOL     OW78469   5.483  13.748   1.926
58879SOL    HW178470   5.423  13.768   1.997
58879SOL    HW278471   5.483  13.826   1.871
58880SOL     OW78472   0.212   8.577   7.504
58880SOL    HW178473   0.187   8.646   7.566
58880SOL    HW278474   0.305   8.560   7.523
58881SOL     OW78475   2.646  11.165   3.320
58881SOL    HW178476   2.596  11.095   3.278
58881SOL    HW278477   2.736  11.151   3.291
58882SOL     OW78478   7.452   9.355  14.618
58882SOL    HW178479   7.520   9.394  14.673
58882SOL    HW278480   7.495   9.279  14.578
58883SOL     OW78481   4.783   0.476   1.700
58883SOL    HW178482   4.827   0.429   1.771
58883SOL    HW278483   4.751   0.406   1.642
58884SOL     OW78484  12.550   8.102   0.361
58884SOL    HW178485  12.640   8.079   0.341
58884SOL    HW278486  12.513   8.129   0.277
58885SOL     OW78487  11.923  11.122   4.548
58885SOL    HW178488  11.887  11.211   4.543
58885SOL    HW278489  12.008  11.133   4.591
58886SOL     OW78490   0.491   0.643  10.023
58886SOL    HW178491   0.464   0.569   9.969
58886SOL    HW278492   0.585   0.628  10.039
58887SOL     OW78493  11.890  12.567   5.429
58887SOL    HW178494  11.951  12.530   5.493
58887SOL    HW278495  11.805  12.566   5.474
58888SOL     OW78496  13.598   0.787   1.826
58888SOL    HW178497  13.645   0.869   1.811
58888SOL    HW278498  13.637   0.752   1.906
58889SOL     OW78499   4.669   8.492   6.909
58889SOL    HW178500   4.628   8.516   6.992
58889SOL    HW278501   4.748   8.545   6.905
58890SOL     OW78502   2.666  12.997  14.532
58890SOL    HW178503   2.711  12.978  14.449
58890SOL    HW278504   2.670  12.914  14.580
58891SOL     OW78505   6.577  12.963  12.398
58891SOL    HW178506   6.640  13.034  12.393
58891SOL    HW278507   6.616  12.893  12.346
58892SOL     OW78508   1.270   9.466   8.203
58892SOL    HW178509   1.179   9.492   8.188
58892SOL    HW278510   1.314   9.548   8.227
58893SOL     OW78511   6.645  12.342  10.476
58893SOL    HW178512   6.630  12.391  10.395
58893SOL    HW278513   6.671  12.408  10.540
58894SOL     OW78514   9.863   5.577   2.089
58894SOL    HW178515   9.888   5.517   2.019
58894SOL    HW278516   9.941   5.583   2.145
58895SOL     OW78517   5.211  10.352   4.981
58895SOL    HW178518   5.288  10.328   5.033
58895SOL    HW278519   5.247  10.392   4.902
58896SOL     OW78520   1.940   1.142  10.591
58896SOL    HW178521   1.899   1.212  10.540
58896SOL    HW278522   1.990   1.188  10.659
58897SOL     OW78523   9.707   6.454   7.570
58897SOL    HW178524   9.615   6.474   7.554
58897SOL    HW278525   9.723   6.373   7.521
58898SOL     OW78526   0.186  11.499   8.553
58898SOL    HW178527   0.259  11.437   8.561
58898SOL    HW278528   0.108  11.447   8.573
58899SOL     OW78529   8.001   6.647   5.506
58899SOL    HW178530   7.995   6.553   5.517
58899SOL    HW278531   7.958   6.664   5.422
58900SOL     OW78532  12.639   4.420   5.168
58900SOL    HW178533  12.629   4.464   5.252
58900SOL    HW278534  12.549   4.396   5.143
58901SOL     OW78535  12.038  10.766  10.059
58901SOL    HW178536  11.997  10.686  10.093
58901SOL    HW278537  12.132  10.746  10.058
58902SOL     OW78538  13.982   0.105   0.928
58902SOL    HW178539  14.031   0.186   0.918
58902SOL    HW278540  13.900   0.131   0.970
58903SOL     OW78541  14.257  14.590   8.263
58903SOL    HW178542  14.351  14.605   8.274
58903SOL    HW278543  14.251  14.505   8.218
58904SOL     OW78544   9.955   9.331   7.760
58904SOL    HW178545   9.911   9.269   7.702
58904SOL    HW278546   9.898   9.407   7.762
58905SOL     OW78547   3.567   5.519   6.353
58905SOL    HW178548   3.584   5.554   6.266
58905SOL    HW278549   3.483   5.475   6.346
58906SOL     OW78550  12.037   5.404   6.277
58906SOL    HW178551  12.007   5.329   6.226
58906SOL    HW278552  11.980   5.405   6.355
58907SOL     OW78553   3.138   2.223  12.943
58907SOL    HW178554   3.196   2.231  12.867
58907SOL    HW278555   3.163   2.140  12.983
58908SOL     OW78556   5.759   0.220   8.124
58908SOL    HW178557   5.815   0.254   8.054
58908SOL    HW278558   5.703   0.155   8.081
58909SOL     OW78559   0.326   6.361   8.197
58909SOL    HW178560   0.240   6.333   8.167
58909SOL    HW278561   0.385   6.341   8.125
58910SOL     OW78562  13.050   2.682   8.629
58910SOL    HW178563  13.042   2.619   8.557
58910SOL    HW278564  13.034   2.767   8.589
58911SOL     OW78565   5.960   2.475  13.105
58911SOL    HW178566   6.040   2.495  13.154
58911SOL    HW278567   5.989   2.467  13.014
58912SOL     OW78568  14.247   1.454  13.782
58912SOL    HW178569  14.262   1.462  13.876
58912SOL    HW278570  14.154   1.471  13.771
58913SOL     OW78571  11.240  12.616  10.083
58913SOL    HW178572  11.238  12.556  10.158
58913SOL    HW278573  11.172  12.583  10.024
58914SOL     OW78574   6.915   6.724   7.966
58914SOL    HW178575   6.957   6.784   7.904
58914SOL    HW278576   6.979   6.716   8.037
58915SOL     OW78577   6.718  11.934  11.306
58915SOL    HW178578   6.766  11.955  11.387
58915SOL    HW278579   6.766  11.859  11.269
58916SOL     OW78580  12.599  12.666   2.353
58916SOL    HW178581  12.642  12.750   2.337
58916SOL    HW278582  12.661  12.601   2.321
58917SOL     OW78583   4.709   2.294   0.759
58917SOL    HW178584   4.765   2.372   0.757
58917SOL    HW278585   4.631   2.320   0.711
58918SOL     OW78586  10.897   3.489   6.433
58918SOL    HW178587  10.927   3.499   6.343
58918SOL    HW278588  10.863   3.575   6.457
58919SOL     OW78589   9.249  10.687  13.818
58919SOL    HW178590   9.264  10.753  13.886
58919SOL    HW278591   9.289  10.607  13.852
58920SOL     OW78592  12.986  13.677   9.957
58920SOL    HW178593  12.909  13.678   9.900
58920SOL    HW278594  12.961  13.730  10.032
58921SOL     OW78595  12.530   7.494   4.626
58921SOL    HW178596  12.456   7.452   4.583
58921SOL    HW278597  12.604   7.436   4.609
58922SOL     OW78598   2.032   6.407  10.739
58922SOL    HW178599   2.089   6.330  10.739
58922SOL    HW278600   1.970   6.391  10.810
58923SOL     OW78601   3.976   2.659  14.208
58923SOL    HW178602   4.025   2.740  14.221
58923SOL    HW278603   3.915   2.679  14.138
58924SOL     OW78604   7.072  13.228   2.964
58924SOL    HW178605   7.002  13.164   2.961
58924SOL    HW278606   7.152  13.176   2.960
58925SOL     OW78607   8.622  12.216   6.214
58925SOL    HW178608   8.581  12.301   6.205
58925SOL    HW278609   8.582  12.161   6.147
58926SOL     OW78610   6.419   4.922   1.144
58926SOL    HW178611   6.441   4.948   1.233
58926SOL    HW278612   6.333   4.881   1.151
58927SOL     OW78613   8.711   6.574  14.465
58927SOL    HW178614   8.687   6.634  14.394
58927SOL    HW278615   8.744   6.496  14.420
58928SOL     OW78616  11.101   8.083  13.249
58928SOL    HW178617  11.174   8.085  13.187
58928SOL    HW278618  11.028   8.046  13.199
58929SOL     OW78619  14.681   8.418  10.710
58929SOL    HW178620  14.594   8.416  10.671
58929SOL    HW278621  14.726   8.488  10.663
58930SOL     OW78622   4.891   6.149  11.565
58930SOL    HW178623   4.927   6.226  11.523
58930SOL    HW278624   4.808   6.133  11.520
58931SOL     OW78625   9.981   4.123   7.670
58931SOL    HW178626  10.058   4.178   7.656
58931SOL    HW278627   9.916   4.182   7.708
58932SOL     OW78628  10.895   5.525  14.658
58932SOL    HW178629  10.955   5.463  14.699
58932SOL    HW278630  10.809   5.503  14.694
58933SOL     OW78631  11.107   2.425  10.046
58933SOL    HW178632  11.029   2.464  10.086
58933SOL    HW278633  11.101   2.332  10.070
58934SOL     OW78634   3.541   8.214   8.321
58934SOL    HW178635   3.618   8.248   8.366
58934SOL    HW278636   3.550   8.119   8.326
58935SOL     OW78637   4.812  14.435   1.965
58935SOL    HW178638   4.805  14.367   1.897
58935SOL    HW278639   4.741  14.416   2.026
58936SOL     OW78640  10.222  14.081  14.476
58936SOL    HW178641  10.133  14.065  14.442
58936SOL    HW278642  10.212  14.156  14.534
58937SOL     OW78643   8.473  12.925   1.463
58937SOL    HW178644   8.475  12.858   1.394
58937SOL    HW278645   8.523  12.998   1.426
58938SOL     OW78646   5.095   0.028   8.668
58938SOL    HW178647   5.122  14.843   8.601
58938SOL    HW278648   5.098  14.858   8.750
58939SOL     OW78649   4.811   0.967   1.345
58939SOL    HW178650   4.781   0.929   1.427
58939SOL    HW278651   4.879   1.029   1.371
58940SOL     OW78652   7.272   3.612  13.276
58940SOL    HW178653   7.328   3.540  13.248
58940SOL    HW278654   7.190   3.570  13.303
58941SOL     OW78655   8.071  10.645   9.963
58941SOL    HW178656   8.059  10.725   9.912
58941SOL    HW278657   8.155  10.657  10.007
58942SOL     OW78658   3.936   7.350   0.975
58942SOL    HW178659   3.867   7.364   1.039
58942SOL    HW278660   4.017   7.353   1.026
58943SOL     OW78661  13.493   9.030   6.650
58943SOL    HW178662  13.524   8.941   6.660
58943SOL    HW278663  13.536   9.063   6.572
58944SOL     OW78664   6.184   1.095   5.332
58944SOL    HW178665   6.177   1.014   5.281
58944SOL    HW278666   6.233   1.069   5.410
58945SOL     OW78667  12.746  12.158   0.102
58945SOL    HW178668  12.827  12.106   0.097
58945SOL    HW278669  12.768  12.240   0.058
58946SOL     OW78670   3.484   8.938  11.356
58946SOL    HW178671   3.415   8.980  11.408
58946SOL    HW278672   3.546   8.904  11.422
58947SOL     OW78673  12.500   2.631  11.409
58947SOL    HW178674  12.450   2.556  11.379
58947SOL    HW278675  12.534   2.672  11.330
58948SOL     OW78676  10.454   7.980   7.983
58948SOL    HW178677  10.402   7.925   8.042
58948SOL    HW278678  10.543   7.944   7.988
58949SOL     OW78679   9.019   8.835  14.358
58949SOL    HW178680   9.055   8.916  14.321
58949SOL    HW278681   8.924   8.845  14.349
58950SOL     OW78682   6.694  11.242  12.852
58950SOL    HW178683   6.663  11.174  12.792
58950SOL    HW278684   6.787  11.222  12.866
58951SOL     OW78685   1.230  13.452   7.031
58951SOL    HW178686   1.159  13.477   7.090
58951SOL    HW278687   1.256  13.534   6.989
58952SOL     OW78688   6.387  14.360   4.057
58952SOL    HW178689   6.473  14.388   4.086
58952SOL    HW278690   6.326  14.409   4.112
58953SOL     OW78691   2.845  14.171   2.592
58953SOL    HW178692   2.927  14.145   2.549
58953SOL    HW278693   2.862  14.158   2.685
58954SOL     OW78694  12.527   2.131   4.618
58954SOL    HW178695  12.531   2.038   4.592
58954SOL    HW278696  12.582   2.136   4.696
58955SOL     OW78697   6.664   9.279  10.780
58955SOL    HW178698   6.748   9.290  10.735
58955SOL    HW278699   6.605   9.245  10.713
58956SOL     OW78700   3.155   1.305   1.862
58956SOL    HW178701   3.181   1.390   1.896
58956SOL    HW278702   3.093   1.271   1.926
58957SOL     OW78703   8.369   9.931  12.990
58957SOL    HW178704   8.460   9.961  12.991
58957SOL    HW278705   8.337   9.953  13.078
58958SOL     OW78706  11.948   7.967   2.649
58958SOL    HW178707  12.029   8.012   2.674
58958SOL    HW278708  11.895   8.034   2.606
58959SOL     OW78709   4.308  10.540  13.393
58959SOL    HW178710   4.322  10.617  13.340
58959SOL    HW278711   4.385  10.534  13.449
58960SOL     OW78712  14.527   3.196   1.718
58960SOL    HW178713  14.497   3.218   1.630
58960SOL    HW278714  14.622   3.205   1.713
58961SOL     OW78715  10.767  11.632   0.211
58961SOL    HW178716  10.753  11.599   0.300
58961SOL    HW278717  10.858  11.611   0.191
58962SOL     OW78718   9.669   5.799   2.457
58962SOL    HW178719   9.685   5.707   2.475
58962SOL    HW278720   9.713   5.815   2.373
58963SOL     OW78721  13.076   4.010   9.807
58963SOL    HW178722  13.023   3.952   9.751
58963SOL    HW278723  13.018   4.029   9.881
58964SOL     OW78724  13.302  12.360  10.137
58964SOL    HW178725  13.391  12.390  10.156
58964SOL    HW278726  13.251  12.387  10.214
58965SOL     OW78727   6.883   2.958   4.808
58965SOL    HW178728   6.824   3.002   4.747
58965SOL    HW278729   6.830   2.889   4.847
58966SOL     OW78730   8.446   2.745   3.622
58966SOL    HW178731   8.438   2.727   3.528
58966SOL    HW278732   8.496   2.826   3.626
58967SOL     OW78733  13.558   3.844   3.802
58967SOL    HW178734  13.587   3.780   3.868
58967SOL    HW278735  13.480   3.804   3.763
58968SOL     OW78736   2.431   3.093   7.344
58968SOL    HW178737   2.453   3.112   7.436
58968SOL    HW278738   2.509   3.051   7.310
58969SOL     OW78739   0.565   4.327   5.698
58969SOL    HW178740   0.492   4.389   5.693
58969SOL    HW278741   0.524   4.242   5.681
58970SOL     OW78742  10.024   0.434  10.490
58970SOL    HW178743  10.063   0.454  10.575
58970SOL    HW278744  10.015   0.338  10.490
58971SOL     OW78745  13.503  10.256  12.772
58971SOL    HW178746  13.471  10.202  12.700
58971SOL    HW278747  13.476  10.345  12.749
58972SOL     OW78748   2.075   4.402  11.542
58972SOL    HW178749   1.993   4.431  11.502
58972SOL    HW278750   2.143   4.444  11.489
58973SOL     OW78751   9.240   0.054  13.287
58973SOL    HW178752   9.156   0.012  13.308
58973SOL    HW278753   9.294  14.863  13.253
58974SOL     OW78754  14.237   1.463   5.139
58974SOL    HW178755  14.176   1.409   5.089
58974SOL    HW278756  14.316   1.467   5.085
58975SOL     OW78757   7.721   9.293   5.767
58975SOL    HW178758   7.653   9.347   5.725
58975SOL    HW278759   7.722   9.322   5.858
58976SOL     OW78760   1.282  13.766   6.130
58976SOL    HW178761   1.239  13.778   6.045
58976SOL    HW278762   1.315  13.676   6.127
58977SOL     OW78763   1.638   3.191   7.379
58977SOL    HW178764   1.636   3.286   7.390
58977SOL    HW278765   1.697   3.176   7.304
58978SOL     OW78766  13.351   6.311   5.276
58978SOL    HW178767  13.385   6.236   5.227
58978SOL    HW278768  13.302   6.272   5.349
58979SOL     OW78769   2.160   5.551   2.078
58979SOL    HW178770   2.174   5.642   2.051
58979SOL    HW278771   2.147   5.555   2.172
58980SOL     OW78772   6.464   8.584  12.405
58980SOL    HW178773   6.459   8.653  12.339
58980SOL    HW278774   6.504   8.510  12.360
58981SOL     OW78775  10.329   1.352   6.402
58981SOL    HW178776  10.382   1.350   6.482
58981SOL    HW278777  10.241   1.327   6.432
58982SOL     OW78778  12.564   8.420   5.136
58982SOL    HW178779  12.599   8.335   5.109
58982SOL    HW278780  12.516   8.451   5.060
58983SOL     OW78781   9.174   1.891   4.725
58983SOL    HW178782   9.113   1.855   4.660
58983SOL    HW278783   9.135   1.975   4.750
58984SOL     OW78784  11.174   0.381   4.922
58984SOL    HW178785  11.161   0.403   5.014
58984SOL    HW278786  11.236   0.446   4.891
58985SOL     OW78787   2.596   7.205   4.634
58985SOL    HW178788   2.548   7.287   4.641
58985SOL    HW278789   2.678   7.221   4.682
58986SOL     OW78790  13.907   3.991   6.121
58986SOL    HW178791  13.843   3.985   6.192
58986SOL    HW278792  13.973   3.925   6.142
58987SOL     OW78793   3.658  10.033   1.516
58987SOL    HW178794   3.574   9.989   1.507
58987SOL    HW278795   3.676  10.068   1.428
58988SOL     OW78796   1.304  12.390  11.343
58988SOL    HW178797   1.314  12.468  11.289
58988SOL    HW278798   1.270  12.423  11.426
58989SOL     OW78799   9.003   8.492   5.327
58989SOL    HW178800   8.951   8.510   5.249
58989SOL    HW278801   8.950   8.526   5.400
58990SOL     OW78802   9.533  10.033   4.801
58990SOL    HW178803   9.461   9.995   4.852
58990SOL    HW278804   9.612  10.002   4.845
58991SOL     OW78805   8.609   1.696  10.663
58991SOL    HW178806   8.522   1.727  10.638
58991SOL    HW278807   8.657   1.775  10.688
58992SOL     OW78808   8.381   8.664   6.892
58992SOL    HW178809   8.332   8.592   6.930
58992SOL    HW278810   8.323   8.740   6.900
58993SOL     OW78811   4.526   9.489   0.876
58993SOL    HW178812   4.555   9.576   0.849
58993SOL    HW278813   4.449   9.506   0.931
58994SOL     OW78814  11.353   5.496  11.896
58994SOL    HW178815  11.370   5.422  11.954
58994SOL    HW278816  11.270   5.474  11.853
58995SOL     OW78817   8.697   2.235   8.205
58995SOL    HW178818   8.745   2.291   8.143
58995SOL    HW278819   8.756   2.161   8.221
58996SOL     OW78820   5.800   5.268   4.710
58996SOL    HW178821   5.787   5.261   4.615
58996SOL    HW278822   5.845   5.187   4.734
58997SOL     OW78823  12.767   9.532  12.633
58997SOL    HW178824  12.849   9.573  12.660
58997SOL    HW278825  12.708   9.546  12.707
58998SOL     OW78826   5.088   1.457   2.621
58998SOL    HW178827   5.088   1.537   2.568
58998SOL    HW278828   5.100   1.487   2.711
58999SOL     OW78829  13.313   6.719   3.505
58999SOL    HW178830  13.408   6.713   3.506
58999SOL    HW278831  13.295   6.796   3.451
59000SOL     OW78832   5.549   5.477   1.445
59000SOL    HW178833   5.528   5.414   1.515
59000SOL    HW278834   5.464   5.510   1.416
59001SOL     OW78835   8.664  10.663   2.527
59001SOL    HW178836   8.656  10.750   2.487
59001SOL    HW278837   8.622  10.604   2.464
59002SOL     OW78838   7.850  13.861   7.756
59002SOL    HW178839   7.791  13.788   7.741
59002SOL    HW278840   7.897  13.837   7.836
59003SOL     OW78841   7.833   8.926   0.947
59003SOL    HW178842   7.820   8.843   0.993
59003SOL    HW278843   7.902   8.971   0.996
59004SOL     OW78844   0.342   7.553  14.813
59004SOL    HW178845   0.426   7.582  14.850
59004SOL    HW278846   0.352   7.458  14.803
59005SOL     OW78847  11.834   9.550  14.690
59005SOL    HW178848  11.911   9.592  14.650
59005SOL    HW278849  11.871   9.485  14.749
59006SOL     OW78850   0.482   2.383   6.553
59006SOL    HW178851   0.529   2.465   6.544
59006SOL    HW278852   0.389   2.407   6.548
59007SOL     OW78853   8.607  13.555   4.380
59007SOL    HW178854   8.629  13.506   4.459
59007SOL    HW278855   8.637  13.644   4.399
59008SOL     OW78856   6.230   2.531   8.948
59008SOL    HW178857   6.243   2.603   9.010
59008SOL    HW278858   6.234   2.573   8.862
59009SOL     OW78859  11.509   3.027  11.221
59009SOL    HW178860  11.591   3.063  11.187
59009SOL    HW278861  11.497   3.069  11.306
59010SOL     OW78862   1.760  12.884  12.423
59010SOL    HW178863   1.738  12.893  12.516
59010SOL    HW278864   1.677  12.897  12.377
59011SOL     OW78865  11.995  14.470   2.151
59011SOL    HW178866  11.980  14.379   2.128
59011SOL    HW278867  12.009  14.514   2.067
59012SOL     OW78868   3.153   7.653   1.241
59012SOL    HW178869   3.193   7.641   1.154
59012SOL    HW278870   3.060   7.669   1.222
59013SOL     OW78871   1.045  14.826   7.369
59013SOL    HW178872   1.005  14.740   7.382
59013SOL    HW278873   1.116  14.809   7.307
59014SOL     OW78874   9.539   9.635   8.500
59014SOL    HW178875   9.601   9.580   8.547
59014SOL    HW278876   9.472   9.656   8.565
59015SOL     OW78877   4.364   7.984   6.842
59015SOL    HW178878   4.445   7.936   6.831
59015SOL    HW278879   4.369   8.022   6.929
59016SOL     OW78880   6.086   5.842   4.290
59016SOL    HW178881   6.136   5.923   4.284
59016SOL    HW278882   6.054   5.840   4.380
59017SOL     OW78883   0.565   2.350  11.960
59017SOL    HW178884   0.565   2.330  11.866
59017SOL    HW278885   0.655   2.336  11.987
59018SOL     OW78886   0.721  11.971   2.154
59018SOL    HW178887   0.735  12.060   2.122
59018SOL    HW278888   0.641  11.977   2.207
59019SOL     OW78889   4.469  10.260   3.689
59019SOL    HW178890   4.424  10.219   3.763
59019SOL    HW278891   4.541  10.200   3.668
59020SOL     OW78892   8.776  12.249   5.055
59020SOL    HW178893   8.822  12.289   4.981
59020SOL    HW278894   8.685  12.242   5.025
59021SOL     OW78895  10.568   5.883  14.210
59021SOL    HW178896  10.555   5.821  14.283
59021SOL    HW278897  10.610   5.831  14.142
59022SOL     OW78898   5.248   8.359   1.801
59022SOL    HW178899   5.290   8.418   1.863
59022SOL    HW278900   5.315   8.343   1.734
59023SOL     OW78901   3.052  12.205   3.275
59023SOL    HW178902   3.139  12.178   3.306
59023SOL    HW278903   3.033  12.285   3.325
59024SOL     OW78904   9.401  14.556   4.892
59024SOL    HW178905   9.448  14.639   4.888
59024SOL    HW278906   9.309  14.582   4.894
59025SOL     OW78907   9.771   9.203   9.383
59025SOL    HW178908   9.843   9.244   9.431
59025SOL    HW278909   9.785   9.109   9.394
59026SOL     OW78910   5.655  10.505  12.789
59026SOL    HW178911   5.650  10.419  12.748
59026SOL    HW278912   5.626  10.489  12.879
59027SOL     OW78913   4.408  11.888  10.170
59027SOL    HW178914   4.369  11.804  10.145
59027SOL    HW278915   4.349  11.954  10.133
59028SOL     OW78916   9.454   4.256   9.676
59028SOL    HW178917   9.400   4.179   9.655
59028SOL    HW278918   9.475   4.294   9.591
59029SOL     OW78919   4.845  13.971   6.535
59029SOL    HW178920   4.789  14.047   6.516
59029SOL    HW278921   4.817  13.943   6.623
59030SOL     OW78922   0.478  12.564   5.870
59030SOL    HW178923   0.441  12.642   5.913
59030SOL    HW278924   0.571  12.567   5.893
59031SOL     OW78925  14.334   6.780   7.038
59031SOL    HW178926  14.352   6.758   7.129
59031SOL    HW278927  14.307   6.697   6.998
59032SOL     OW78928  11.105  13.814   6.852
59032SOL    HW178929  11.153  13.780   6.927
59032SOL    HW278930  11.074  13.900   6.881
59033SOL     OW78931   6.529   6.591   7.516
59033SOL    HW178932   6.584   6.616   7.590
59033SOL    HW278933   6.536   6.495   7.513
59034SOL     OW78934   8.329  12.216   8.010
59034SOL    HW178935   8.382  12.142   8.040
59034SOL    HW278936   8.393  12.283   7.985
59035SOL     OW78937   1.375   9.428   0.748
59035SOL    HW178938   1.385   9.407   0.841
59035SOL    HW278939   1.402   9.348   0.702
59036SOL     OW78940   6.122  11.310   9.214
59036SOL    HW178941   6.084  11.392   9.248
59036SOL    HW278942   6.070  11.241   9.257
59037SOL     OW78943   1.041   9.787   4.504
59037SOL    HW178944   0.963   9.825   4.464
59037SOL    HW278945   1.034   9.693   4.487
59038SOL     OW78946  10.013  13.673  14.559
59038SOL    HW178947   9.929  13.711  14.583
59038SOL    HW278948  10.053  13.648  14.643
59039SOL     OW78949  12.955   3.940   8.026
59039SOL    HW178950  12.915   3.959   7.941
59039SOL    HW278951  12.884   3.952   8.089
59040SOL     OW78952  10.249   9.002   5.400
59040SOL    HW178953  10.327   9.054   5.421
59040SOL    HW278954  10.176   9.055   5.432
59041SOL     OW78955   4.386  11.064  13.495
59041SOL    HW178956   4.351  10.981  13.527
59041SOL    HW278957   4.428  11.041  13.412
59042SOL     OW78958   3.512  11.229   3.560
59042SOL    HW178959   3.595  11.272   3.583
59042SOL    HW278960   3.451  11.301   3.545
59043SOL     OW78961   9.089  12.261  12.232
59043SOL    HW178962   9.176  12.222  12.228
59043SOL    HW278963   9.058  12.259  12.141
59044SOL     OW78964  12.476  13.126   6.693
59044SOL    HW178965  12.519  13.208   6.717
59044SOL    HW278966  12.382  13.146   6.698
59045SOL     OW78967  13.430   2.890   3.850
59045SOL    HW178968  13.455   2.835   3.924
59045SOL    HW278969  13.387   2.830   3.789
59046SOL     OW78970  10.286   0.756  12.033
59046SOL    HW178971  10.215   0.796  12.084
59046SOL    HW278972  10.366   0.780  12.081
59047SOL     OW78973   2.012   8.324   1.716
59047SOL    HW178974   2.100   8.302   1.749
59047SOL    HW278975   1.996   8.261   1.646
59048SOL     OW78976   2.493   0.140   3.285
59048SOL    HW178977   2.397   0.149   3.283
59048SOL    HW278978   2.516   0.154   3.377
59049SOL     OW78979   0.996  11.912  13.249
59049SOL    HW178980   1.049  11.885  13.324
59049SOL    HW278981   0.964  11.830  13.211
59050SOL     OW78982   4.386  14.795  12.739
59050SOL    HW178983   4.402  14.801  12.833
59050SOL    HW278984   4.367   0.006  12.712
59051SOL     OW78985   1.881   6.761   2.771
59051SOL    HW178986   1.942   6.688   2.780
59051SOL    HW278987   1.915   6.828   2.831
59052SOL     OW78988   1.975   8.886  14.101
59052SOL    HW178989   1.961   8.965  14.048
59052SOL    HW278990   1.919   8.820  14.061
59053SOL     OW78991  11.408   1.498   0.787
59053SOL    HW178992  11.465   1.486   0.711
59053SOL    HW278993  11.322   1.517   0.750
59054SOL     OW78994  13.224   2.527   7.872
59054SOL    HW178995  13.155   2.591   7.891
59054SOL    HW278996  13.235   2.479   7.954
59055SOL     OW78997   8.544   4.534   3.690
59055SOL    HW178998   8.561   4.580   3.608
59055SOL    HW278999   8.467   4.577   3.727
59056SOL     OW79000   1.383  11.986   6.951
59056SOL    HW179001   1.350  12.013   7.037
59056SOL    HW279002   1.312  11.933   6.914
59057SOL     OW79003  11.516   8.634   4.218
59057SOL    HW179004  11.552   8.561   4.268
59057SOL    HW279005  11.498   8.597   4.131
59058SOL     OW79006   1.399  10.355  12.146
59058SOL    HW179007   1.412  10.307  12.228
59058SOL    HW279008   1.488  10.380  12.119
59059SOL     OW79009  14.084  11.995   8.059
59059SOL    HW179010  14.177  11.995   8.084
59059SOL    HW279011  14.044  11.930   8.116
59060SOL     OW79012   1.948   3.594   4.904
59060SOL    HW179013   1.954   3.677   4.951
59060SOL    HW279014   1.857   3.590   4.874
59061SOL     OW79015   2.876   1.884   2.361
59061SOL    HW179016   2.789   1.877   2.321
59061SOL    HW279017   2.874   1.823   2.435
59062SOL     OW79018  12.465   9.238   7.455
59062SOL    HW179019  12.504   9.175   7.516
59062SOL    HW279020  12.464   9.191   7.371
59063SOL     OW79021   5.792   7.734   4.921
59063SOL    HW179022   5.776   7.656   4.975
59063SOL    HW279023   5.725   7.796   4.947
59064SOL     OW79024   9.820   9.683   1.063
59064SOL    HW179025   9.846   9.754   1.122
59064SOL    HW279026   9.728   9.668   1.083
59065SOL     OW79027   4.944   1.391  11.587
59065SOL    HW179028   4.890   1.469  11.573
59065SOL    HW279029   5.001   1.415  11.660
59066SOL     OW79030   1.737   7.462   6.433
59066SOL    HW179031   1.781   7.406   6.369
59066SOL    HW279032   1.791   7.541   6.437
59067SOL     OW79033   3.076  11.654   6.653
59067SOL    HW179034   3.062  11.705   6.733
59067SOL    HW279035   3.142  11.589   6.678
59068SOL     OW79036  14.090  10.274  13.409
59068SOL    HW179037  13.998  10.296  13.396
59068SOL    HW279038  14.100  10.185  13.375
59069SOL     OW79039  11.983   9.227  14.573
59069SOL    HW179040  11.939   9.297  14.525
59069SOL    HW279041  12.027   9.271  14.646
59070SOL     OW79042  14.718   9.946   6.143
59070SOL    HW179043  14.653  10.008   6.176
59070SOL    HW279044  14.668   9.886   6.088
59071SOL     OW79045   7.047   5.128  14.482
59071SOL    HW179046   7.128   5.087  14.515
59071SOL    HW279047   7.073   5.168  14.399
59072SOL     OW79048   4.248  12.031   3.175
59072SOL    HW179049   4.156  12.017   3.153
59072SOL    HW279050   4.296  11.996   3.100
59073SOL     OW79051  13.681   4.840  14.309
59073SOL    HW179052  13.725   4.859  14.226
59073SOL    HW279053  13.588   4.835  14.286
59074SOL     OW79054   0.500   3.983   5.973
59074SOL    HW179055   0.537   3.991   6.061
59074SOL    HW279056   0.418   4.032   5.975
59075SOL     OW79057   9.888  12.397   9.203
59075SOL    HW179058   9.795  12.390   9.181
59075SOL    HW279059   9.932  12.410   9.119
59076SOL     OW79060  14.775   8.665   1.210
59076SOL    HW179061  14.750   8.665   1.302
59076SOL    HW279062  14.735   8.586   1.174
59077SOL     OW79063   4.163   8.207  14.190
59077SOL    HW179064   4.190   8.273  14.126
59077SOL    HW279065   4.181   8.246  14.275
59078SOL     OW79066  14.617  14.131   0.539
59078SOL    HW179067  14.524  14.118   0.521
59078SOL    HW279068  14.627  14.225   0.550
59079SOL     OW79069   4.841   1.476   7.009
59079SOL    HW179070   4.862   1.393   6.968
59079SOL    HW279071   4.748   1.471   7.029
59080SOL     OW79072   9.908   8.495   8.050
59080SOL    HW179073   9.985   8.465   8.098
59080SOL    HW279074   9.834   8.455   8.096
59081SOL     OW79075  13.409  14.174  10.010
59081SOL    HW179076  13.490  14.135   9.978
59081SOL    HW279077  13.342  14.107   9.996
59082SOL     OW79078   4.923   1.245   2.145
59082SOL    HW179079   4.925   1.152   2.121
59082SOL    HW279080   4.831   1.269   2.138
59083SOL     OW79081   4.819   1.432  12.692
59083SOL    HW179082   4.889   1.442  12.756
59083SOL    HW279083   4.818   1.338  12.672
59084SOL     OW79084  10.023   9.148   3.038
59084SOL    HW179085  10.029   9.185   3.126
59084SOL    HW279086  10.056   9.217   2.981
59085SOL     OW79087   7.676   0.598  13.672
59085SOL    HW179088   7.684   0.604  13.767
59085SOL    HW279089   7.581   0.605  13.656
59086SOL     OW79090   8.473   2.904   6.343
59086SOL    HW179091   8.404   2.863   6.395
59086SOL    HW279092   8.434   2.984   6.309
59087SOL     OW79093  14.703  11.339  14.661
59087SOL    HW179094  14.720  11.252  14.624
59087SOL    HW279095  14.616  11.362  14.629
59088SOL     OW79096   8.138   5.173   9.920
59088SOL    HW179097   8.090   5.179  10.003
59088SOL    HW279098   8.230   5.172   9.947
59089SOL     OW79099   1.052  11.536   2.591
59089SOL    HW179100   0.962  11.536   2.559
59089SOL    HW279101   1.100  11.590   2.528
59090SOL     OW79102  14.379  11.238  12.574
59090SOL    HW179103  14.442  11.279  12.633
59090SOL    HW279104  14.427  11.165  12.535
59091SOL     OW79105   0.202   7.701  11.614
59091SOL    HW179106   0.257   7.762  11.662
59091SOL    HW279107   0.113   7.725  11.638
59092SOL     OW79108   5.730   6.804   8.748
59092SOL    HW179109   5.777   6.834   8.670
59092SOL    HW279110   5.647   6.852   8.746
59093SOL     OW79111   9.581   9.299   7.658
59093SOL    HW179112   9.603   9.253   7.739
59093SOL    HW279113   9.486   9.292   7.651
59094SOL     OW79114   4.600  12.650  12.669
59094SOL    HW179115   4.526  12.687  12.716
59094SOL    HW279116   4.562  12.587  12.608
59095SOL     OW79117  14.561   8.208  12.344
59095SOL    HW179118  14.651   8.215  12.378
59095SOL    HW279119  14.507   8.195  12.422
59096SOL     OW79120  13.035   8.706  12.557
59096SOL    HW179121  13.081   8.765  12.616
59096SOL    HW279122  13.015   8.759  12.479
59097SOL     OW79123   4.254   8.687   7.718
59097SOL    HW179124   4.179   8.742   7.693
59097SOL    HW279125   4.320   8.704   7.651
59098SOL     OW79126   7.735   7.386   4.890
59098SOL    HW179127   7.726   7.294   4.867
59098SOL    HW279128   7.654   7.408   4.936
59099SOL     OW79129   5.411   7.040   8.482
59099SOL    HW179130   5.354   7.028   8.407
59099SOL    HW279131   5.464   6.961   8.485
59100SOL     OW79132   6.168   0.404  11.786
59100SOL    HW179133   6.211   0.463  11.848
59100SOL    HW279134   6.110   0.460  11.735
59101SOL     OW79135   8.836  12.817  12.508
59101SOL    HW179136   8.905  12.755  12.484
59101SOL    HW279137   8.759  12.763  12.522
59102SOL     OW79138   6.478  12.639   8.753
59102SOL    HW179139   6.396  12.659   8.708
59102SOL    HW279140   6.466  12.551   8.788
59103SOL     OW79141   9.803   7.954  13.236
59103SOL    HW179142   9.825   7.983  13.147
59103SOL    HW279143   9.829   7.862  13.237
59104SOL     OW79144  11.314   8.937   7.209
59104SOL    HW179145  11.352   8.861   7.253
59104SOL    HW279146  11.220   8.926   7.219
59105SOL     OW79147  11.717   0.354   9.329
59105SOL    HW179148  11.651   0.333   9.264
59105SOL    HW279149  11.705   0.447   9.348
59106SOL     OW79150   1.814   2.096   7.927
59106SOL    HW179151   1.900   2.057   7.942
59106SOL    HW279152   1.766   2.080   8.008
59107SOL     OW79153   8.684   1.287   9.574
59107SOL    HW179154   8.690   1.257   9.665
59107SOL    HW279155   8.633   1.218   9.530
59108SOL     OW79156   2.514   3.543   4.024
59108SOL    HW179157   2.580   3.503   4.081
59108SOL    HW279158   2.521   3.637   4.040
59109SOL     OW79159   4.463   4.570  11.589
59109SOL    HW179160   4.504   4.650  11.621
59109SOL    HW279161   4.512   4.499  11.631
59110SOL     OW79162   7.867   7.636   3.402
59110SOL    HW179163   7.928   7.667   3.334
59110SOL    HW279164   7.883   7.542   3.407
59111SOL     OW79165   7.853  14.514   2.399
59111SOL    HW179166   7.853  14.522   2.304
59111SOL    HW279167   7.798  14.586   2.429
59112SOL     OW79168   1.837   1.525   2.208
59112SOL    HW179169   1.755   1.521   2.159
59112SOL    HW279170   1.864   1.433   2.216
59113SOL     OW79171   6.558   5.159  11.084
59113SOL    HW179172   6.589   5.159  11.175
59113SOL    HW279173   6.558   5.251  11.059
59114SOL     OW79174   4.861  14.170   5.785
59114SOL    HW179175   4.931  14.220   5.743
59114SOL    HW279176   4.819  14.233   5.845
59115SOL     OW79177   7.002   2.829   5.987
59115SOL    HW179178   7.018   2.909   6.037
59115SOL    HW279179   7.059   2.837   5.911
59116SOL     OW79180   9.394   4.465   0.725
59116SOL    HW179181   9.468   4.523   0.705
59116SOL    HW279182   9.319   4.508   0.685
59117SOL     OW79183   9.160  12.360   1.857
59117SOL    HW179184   9.118  12.373   1.772
59117SOL    HW279185   9.143  12.268   1.879
59118SOL     OW79186  13.613   4.728   6.608
59118SOL    HW179187  13.679   4.686   6.553
59118SOL    HW279188  13.570   4.790   6.550
59119SOL     OW79189   6.661   8.125   2.585
59119SOL    HW179190   6.638   8.100   2.674
59119SOL    HW279191   6.614   8.207   2.569
59120SOL     OW79192   1.991   4.737   4.015
59120SOL    HW179193   1.966   4.663   4.071
59120SOL    HW279194   1.954   4.716   3.929
59121SOL     OW79195  10.690   0.533  11.733
59121SOL    HW179196  10.772   0.504  11.774
59121SOL    HW279197  10.716   0.605  11.677
59122SOL     OW79198   7.846   0.016  11.695
59122SOL    HW179199   7.841   0.031  11.789
59122SOL    HW279200   7.934  14.860  11.680
59123SOL     OW79201  13.805   1.763   9.176
59123SOL    HW179202  13.899   1.778   9.165
59123SOL    HW279203  13.770   1.847   9.206
59124SOL     OW79204  14.152   1.265   4.966
59124SOL    HW179205  14.183   1.193   5.020
59124SOL    HW279206  14.181   1.243   4.877
59125SOL     OW79207   0.394  12.959   8.679
59125SOL    HW179208   0.324  12.971   8.614
59125SOL    HW279209   0.348  12.947   8.761
59126SOL     OW79210   2.944   3.628   0.840
59126SOL    HW179211   2.907   3.715   0.823
59126SOL    HW279212   2.909   3.573   0.770
59127SOL     OW79213   4.478  12.699  10.504
59127SOL    HW179214   4.455  12.776  10.450
59127SOL    HW279215   4.537  12.734  10.570
59128SOL     OW79216   6.931  11.596  10.854
59128SOL    HW179217   6.864  11.664  10.845
59128SOL    HW279218   6.883  11.514  10.841
59129SOL     OW79219   0.669   4.666   1.928
59129SOL    HW179220   0.591   4.619   1.957
59129SOL    HW279221   0.674   4.650   1.834
59130SOL     OW79222  10.123   0.827   1.551
59130SOL    HW179223  10.040   0.869   1.573
59130SOL    HW279224  10.185   0.861   1.616
59131SOL     OW79225   2.479   6.919   0.145
59131SOL    HW179226   2.521   6.946   0.226
59131SOL    HW279227   2.386   6.938   0.158
59132SOL     OW79228   4.302   4.224   1.209
59132SOL    HW179229   4.389   4.219   1.247
59132SOL    HW279230   4.256   4.290   1.261
59133SOL     OW79231  14.043   2.856   2.342
59133SOL    HW179232  13.963   2.811   2.367
59133SOL    HW279233  14.052   2.838   2.248
59134SOL     OW79234  14.646  11.098   7.961
59134SOL    HW179235  14.668  11.041   7.888
59134SOL    HW279236  14.572  11.055   8.003
59135SOL     OW79237   7.888   0.971   2.582
59135SOL    HW179238   7.858   0.980   2.492
59135SOL    HW279239   7.846   0.892   2.614
59136SOL     OW79240  14.573   2.520   1.167
59136SOL    HW179241  14.631   2.596   1.156
59136SOL    HW279242  14.541   2.527   1.256
59137SOL     OW79243   0.170   7.559   4.895
59137SOL    HW179244   0.189   7.637   4.948
59137SOL    HW279245   0.078   7.568   4.871
59138SOL     OW79246  10.007  13.489  13.565
59138SOL    HW179247   9.950  13.437  13.621
59138SOL    HW279248  10.043  13.556  13.624
59139SOL     OW79249  14.805   0.689   7.297
59139SOL    HW179250  14.718   0.696   7.257
59139SOL    HW279251  14.852   0.766   7.264
59140SOL     OW79252   3.969  11.502  14.815
59140SOL    HW179253   4.003  11.491  14.726
59140SOL    HW279254   3.895  11.561  14.805
59141SOL     OW79255   6.344  11.700   1.433
59141SOL    HW179256   6.434  11.710   1.466
59141SOL    HW279257   6.347  11.735   1.344
59142SOL     OW79258   6.220   9.927   5.811
59142SOL    HW179259   6.243   9.835   5.830
59142SOL    HW279260   6.287   9.978   5.857
59143SOL     OW79261   8.162   7.967   5.886
59143SOL    HW179262   8.252   7.944   5.907
59143SOL    HW279263   8.139   8.036   5.948
59144SOL     OW79264   7.001  14.805   4.697
59144SOL    HW179265   6.911  14.785   4.723
59144SOL    HW279266   6.994   0.011   4.653
59145SOL     OW79267   0.542  11.602   1.088
59145SOL    HW179268   0.460  11.561   1.116
59145SOL    HW279269   0.540  11.594   0.992
59146SOL     OW79270   8.195   8.150  11.646
59146SOL    HW179271   8.130   8.217  11.667
59146SOL    HW279272   8.218   8.111  11.730
59147SOL     OW79273  11.317  10.950  12.215
59147SOL    HW179274  11.405  10.961  12.180
59147SOL    HW279275  11.294  10.860  12.194
59148SOL     OW79276   1.890  12.337   7.201
59148SOL    HW179277   1.933  12.421   7.187
59148SOL    HW279278   1.943  12.274   7.153
59149SOL     OW79279   1.323   3.798   1.396
59149SOL    HW179280   1.238   3.843   1.398
59149SOL    HW279281   1.382   3.857   1.442
59150SOL     OW79282   4.983   7.590   6.610
59150SOL    HW179283   4.983   7.565   6.703
59150SOL    HW279284   4.921   7.531   6.569
59151SOL     OW79285   5.922   1.157   4.593
59151SOL    HW179286   5.923   1.250   4.569
59151SOL    HW279287   5.853   1.119   4.540
59152SOL     OW79288   9.124   8.982   2.723
59152SOL    HW179289   9.108   8.930   2.644
59152SOL    HW279290   9.072   8.939   2.790
59153SOL     OW79291   7.149  10.683   9.033
59153SOL    HW179292   7.102  10.607   9.069
59153SOL    HW279293   7.235  10.679   9.074
59154SOL     OW79294   2.686   3.240   1.352
59154SOL    HW179295   2.761   3.284   1.312
59154SOL    HW279296   2.617   3.307   1.354
59155SOL     OW79297   9.934   7.606  10.377
59155SOL    HW179298   9.965   7.617  10.287
59155SOL    HW279299   9.869   7.537  10.372
59156SOL     OW79300  13.853  11.781  11.052
59156SOL    HW179301  13.922  11.716  11.037
59156SOL    HW279302  13.794  11.740  11.114
59157SOL     OW79303   8.941   5.846   0.934
59157SOL    HW179304   8.986   5.910   0.879
59157SOL    HW279305   8.920   5.895   1.014
59158SOL     OW79306   4.636   4.467  14.032
59158SOL    HW179307   4.683   4.521  14.097
59158SOL    HW279308   4.655   4.509  13.948
59159SOL     OW79309  11.737   0.833  13.358
59159SOL    HW179310  11.774   0.886  13.429
59159SOL    HW279311  11.648   0.813  13.388
59160SOL     OW79312  11.962   9.457  14.140
59160SOL    HW179313  11.998   9.493  14.059
59160SOL    HW279314  11.935   9.368  14.117
59161SOL     OW79315   7.200   0.848   1.976
59161SOL    HW179316   7.149   0.910   1.924
59161SOL    HW279317   7.234   0.785   1.913
59162SOL     OW79318  10.969   9.271   8.338
59162SOL    HW179319  10.998   9.184   8.309
59162SOL    HW279320  11.028   9.332   8.292
59163SOL     OW79321   4.825   6.754  11.178
59163SOL    HW179322   4.835   6.698  11.256
59163SOL    HW279323   4.911   6.792  11.164
59164SOL     OW79324  10.855   0.317   7.419
59164SOL    HW179325  10.782   0.257   7.407
59164SOL    HW279326  10.837   0.389   7.357
59165SOL     OW79327   6.905   3.601   2.760
59165SOL    HW179328   6.936   3.656   2.688
59165SOL    HW279329   6.966   3.528   2.763
59166SOL     OW79330  11.812   3.981   0.131
59166SOL    HW179331  11.742   3.953   0.190
59166SOL    HW279332  11.820   3.910   0.068
59167SOL     OW79333   4.678   3.116   3.605
59167SOL    HW179334   4.673   3.081   3.693
59167SOL    HW279335   4.664   3.210   3.615
59168SOL     OW79336  13.894   3.630  14.632
59168SOL    HW179337  13.891   3.539  14.601
59168SOL    HW279338  13.875   3.625  14.725
59169SOL     OW79339   6.272   9.418   4.312
59169SOL    HW179340   6.263   9.398   4.406
59169SOL    HW279341   6.362   9.396   4.291
59170SOL     OW79342   8.967   1.016  10.971
59170SOL    HW179343   8.897   0.952  10.985
59170SOL    HW279344   8.983   1.053  11.058
59171SOL     OW79345   2.474   7.090  11.357
59171SOL    HW179346   2.426   7.016  11.319
59171SOL    HW279347   2.430   7.106  11.440
59172SOL     OW79348  13.026  13.495   2.867
59172SOL    HW179349  13.068  13.470   2.949
59172SOL    HW279350  13.099  13.505   2.805
59173SOL     OW79351  10.754   6.930   5.011
59173SOL    HW179352  10.781   7.016   5.042
59173SOL    HW279353  10.830   6.896   4.964
59174SOL     OW79354   4.506  14.800   9.640
59174SOL    HW179355   4.514  14.771   9.731
59174SOL    HW279356   4.432  14.860   9.641
59175SOL     OW79357  12.322   7.581  12.546
59175SOL    HW179358  12.279   7.498  12.526
59175SOL    HW279359  12.386   7.591  12.475
59176SOL     OW79360  11.878  14.110   8.926
59176SOL    HW179361  11.907  14.199   8.947
59176SOL    HW279362  11.807  14.093   8.987
59177SOL     OW79363   6.699   0.981   9.132
59177SOL    HW179364   6.702   1.020   9.045
59177SOL    HW279365   6.631   1.030   9.178
59178SOL     OW79366  10.426  12.096   4.406
59178SOL    HW179367  10.392  12.177   4.444
59178SOL    HW279368  10.358  12.070   4.343
59179SOL     OW79369   2.170  11.648   3.822
59179SOL    HW179370   2.075  11.643   3.832
59179SOL    HW279371   2.195  11.564   3.784
59180SOL     OW79372   1.880  14.145  12.843
59180SOL    HW179373   1.959  14.158  12.790
59180SOL    HW279374   1.878  14.219  12.903
59181SOL     OW79375   7.017   0.278   4.222
59181SOL    HW179376   6.930   0.304   4.252
59181SOL    HW279377   7.005   0.191   4.185
59182SOL     OW79378   9.917   0.308  10.960
59182SOL    HW179379   9.837   0.261  10.939
59182SOL    HW279380   9.959   0.254  11.027
59183SOL     OW79381   6.019  13.382  11.767
59183SOL    HW179382   6.113  13.394  11.782
59183SOL    HW279383   5.984  13.355  11.852
59184SOL     OW79384  12.261   4.812  10.122
59184SOL    HW179385  12.345   4.855  10.110
59184SOL    HW279386  12.211   4.871  10.178
59185SOL     OW79387   1.423   3.509   9.483
59185SOL    HW179388   1.408   3.500   9.578
59185SOL    HW279389   1.516   3.491   9.472
59186SOL     OW79390  13.023   3.358  11.248
59186SOL    HW179391  12.996   3.391  11.334
59186SOL    HW279392  12.949   3.376  11.191
59187SOL     OW79393   3.530   0.269   0.064
59187SOL    HW179394   3.473   0.194   0.083
59187SOL    HW279395   3.578   0.284   0.145
59188SOL     OW79396  10.362  13.085   8.404
59188SOL    HW179397  10.338  13.044   8.321
59188SOL    HW279398  10.429  13.026   8.441
59189SOL     OW79399   5.637   9.947  14.846
59189SOL    HW179400   5.653   9.862   0.008
59189SOL    HW279401   5.663  10.011   0.033
59190SOL     OW79402   0.445   1.554  12.511
59190SOL    HW179403   0.393   1.609  12.452
59190SOL    HW279404   0.523   1.606  12.529
59191SOL     OW79405   8.015   0.527  12.639
59191SOL    HW179406   7.989   0.616  12.663
59191SOL    HW279407   8.099   0.514  12.682
59192SOL     OW79408   8.753   5.906   3.044
59192SOL    HW179409   8.685   5.938   2.985
59192SOL    HW279410   8.739   5.811   3.047
59193SOL     OW79411  13.243  11.525  11.008
59193SOL    HW179412  13.250  11.470  11.087
59193SOL    HW279413  13.161  11.497  10.967
59194SOL     OW79414   9.039   1.576   1.944
59194SOL    HW179415   9.084   1.652   1.982
59194SOL    HW279416   8.948   1.603   1.937
59195SOL     OW79417  13.533   4.081   2.979
59195SOL    HW179418  13.603   4.096   3.043
59195SOL    HW279419  13.577   4.036   2.906
59196SOL     OW79420   9.977   1.769   3.894
59196SOL    HW179421   9.994   1.791   3.803
59196SOL    HW279422  10.000   1.676   3.901
59197SOL     OW79423  13.109   3.794   3.573
59197SOL    HW179424  13.046   3.767   3.506
59197SOL    HW279425  13.121   3.888   3.557
59198SOL     OW79426   5.597   7.400   9.327
59198SOL    HW179427   5.688   7.429   9.324
59198SOL    HW279428   5.545   7.480   9.324
59199SOL     OW79429   6.500   7.016   0.928
59199SOL    HW179430   6.497   7.028   0.834
59199SOL    HW279431   6.579   7.064   0.956
59200SOL     OW79432   8.320   1.087   4.331
59200SOL    HW179433   8.260   1.013   4.338
59200SOL    HW279434   8.267   1.163   4.351
59201SOL     OW79435  11.239   8.894  10.119
59201SOL    HW179436  11.245   8.900  10.214
59201SOL    HW279437  11.190   8.972  10.093
59202SOL     OW79438   3.031   8.697   9.720
59202SOL    HW179439   3.050   8.688   9.813
59202SOL    HW279440   3.095   8.641   9.676
59203SOL     OW79441  13.100   1.926   3.255
59203SOL    HW179442  13.183   1.964   3.227
59203SOL    HW279443  13.070   1.982   3.326
59204SOL     OW79444   2.668  10.125   6.845
59204SOL    HW179445   2.575  10.134   6.822
59204SOL    HW279446   2.706  10.209   6.820
59205SOL     OW79447  14.384   6.100   7.672
59205SOL    HW179448  14.414   6.076   7.584
59205SOL    HW279449  14.325   6.174   7.657
59206SOL     OW79450   4.984   2.367  10.288
59206SOL    HW179451   5.007   2.298  10.349
59206SOL    HW279452   5.066   2.413  10.272
59207SOL     OW79453  10.664   0.701   9.758
59207SOL    HW179454  10.700   0.750   9.832
59207SOL    HW279455  10.742   0.669   9.711
59208SOL     OW79456   2.411  10.270   5.099
59208SOL    HW179457   2.398  10.271   5.004
59208SOL    HW279458   2.352  10.338   5.132
59209SOL     OW79459   6.979   6.818  10.248
59209SOL    HW179460   6.929   6.750  10.204
59209SOL    HW279461   6.916   6.889  10.264
59210SOL     OW79462  11.996  12.209   2.470
59210SOL    HW179463  11.986  12.301   2.494
59210SOL    HW279464  11.953  12.202   2.385
59211SOL     OW79465   9.698   2.870   3.318
59211SOL    HW179466   9.764   2.923   3.363
59211SOL    HW279467   9.721   2.780   3.340
59212SOL     OW79468   2.533   7.444   5.996
59212SOL    HW179469   2.531   7.376   5.928
59212SOL    HW279470   2.545   7.526   5.948
59213SOL     OW79471  12.481   9.781   4.494
59213SOL    HW179472  12.540   9.855   4.482
59213SOL    HW279473  12.523   9.726   4.560
59214SOL     OW79474   9.570   5.329   5.826
59214SOL    HW179475   9.565   5.405   5.884
59214SOL    HW279476   9.664   5.316   5.811
59215SOL     OW79477   6.214   5.160   5.665
59215SOL    HW179478   6.154   5.126   5.598
59215SOL    HW279479   6.163   5.227   5.711
59216SOL     OW79480  11.460   5.612   4.410
59216SOL    HW179481  11.426   5.699   4.428
59216SOL    HW279482  11.547   5.628   4.373
59217SOL     OW79483   5.405   7.734  12.383
59217SOL    HW179484   5.378   7.777  12.464
59217SOL    HW279485   5.501   7.733  12.387
59218SOL     OW79486   8.207  14.130  10.250
59218SOL    HW179487   8.202  14.192  10.323
59218SOL    HW279488   8.301  14.110  10.242
59219SOL     OW79489  10.410   9.895   9.925
59219SOL    HW179490  10.445   9.810   9.949
59219SOL    HW279491  10.339   9.875   9.864
59220SOL     OW79492   5.854   9.150  10.551
59220SOL    HW179493   5.863   9.229  10.604
59220SOL    HW279494   5.936   9.146  10.501
59221SOL     OW79495  14.420   8.124   9.073
59221SOL    HW179496  14.370   8.191   9.027
59221SOL    HW279497  14.489   8.172   9.118
59222SOL     OW79498   4.705   8.375   4.280
59222SOL    HW179499   4.746   8.408   4.360
59222SOL    HW279500   4.697   8.452   4.224
59223SOL     OW79501  12.136   3.369   3.789
59223SOL    HW179502  12.190   3.415   3.724
59223SOL    HW279503  12.068   3.433   3.812
59224SOL     OW79504   7.544  12.741   5.294
59224SOL    HW179505   7.614  12.759   5.231
59224SOL    HW279506   7.517  12.651   5.275
59225SOL     OW79507   3.443   5.338   9.157
59225SOL    HW179508   3.417   5.395   9.229
59225SOL    HW279509   3.533   5.313   9.178
59226SOL     OW79510   4.276   4.376  11.516
59226SOL    HW179511   4.324   4.448  11.558
59226SOL    HW279512   4.257   4.316  11.588
59227SOL     OW79513   4.160  12.564   0.599
59227SOL    HW179514   4.248  12.530   0.582
59227SOL    HW279515   4.148  12.552   0.693
59228SOL     OW79516   5.787  10.931  13.305
59228SOL    HW179517   5.827  11.014  13.332
59228SOL    HW279518   5.704  10.955  13.265
59229SOL     OW79519   0.245   0.402   4.445
59229SOL    HW179520   0.307   0.448   4.502
59229SOL    HW279521   0.200   0.472   4.398
59230SOL     OW79522   0.438   2.121   0.477
59230SOL    HW179523   0.444   2.179   0.553
59230SOL    HW279524   0.346   2.097   0.471
59231SOL     OW79525   2.360   6.280  12.601
59231SOL    HW179526   2.284   6.338  12.609
59231SOL    HW279527   2.327   6.193  12.625
59232SOL     OW79528   3.873   1.962  12.838
59232SOL    HW179529   3.936   2.016  12.885
59232SOL    HW279530   3.789   1.981  12.880
59233SOL     OW79531  11.187  10.089  11.227
59233SOL    HW179532  11.247  10.015  11.239
59233SOL    HW279533  11.156  10.080  11.137
59234SOL     OW79534   1.486  11.821   5.306
59234SOL    HW179535   1.503  11.778   5.390
59234SOL    HW279536   1.403  11.868   5.319
59235SOL     OW79537   0.888   3.744  11.717
59235SOL    HW179538   0.912   3.813  11.655
59235SOL    HW279539   0.972   3.714  11.753
59236SOL     OW79540  10.538   6.336   4.049
59236SOL    HW179541  10.561   6.336   3.956
59236SOL    HW279542  10.609   6.288   4.091
59237SOL     OW79543   0.735   7.694  10.553
59237SOL    HW179544   0.741   7.647  10.470
59237SOL    HW279545   0.682   7.772  10.533
59238SOL     OW79546   1.206   5.011   7.184
59238SOL    HW179547   1.289   5.007   7.137
59238SOL    HW279548   1.140   5.024   7.117
59239SOL     OW79549   7.530   4.626   6.121
59239SOL    HW179550   7.616   4.654   6.151
59239SOL    HW279551   7.541   4.533   6.101
59240SOL     OW79552   3.187  13.423  14.647
59240SOL    HW179553   3.213  13.448  14.558
59240SOL    HW279554   3.269  13.422  14.696
59241SOL     OW79555   4.776   2.101  14.579
59241SOL    HW179556   4.744   2.038  14.644
59241SOL    HW279557   4.721   2.178  14.591
59242SOL     OW79558   4.890  11.510   8.292
59242SOL    HW179559   4.950  11.521   8.219
59242SOL    HW279560   4.803  11.509   8.253
59243SOL     OW79561   4.704   1.681   7.648
59243SOL    HW179562   4.763   1.650   7.579
59243SOL    HW279563   4.723   1.624   7.722
59244SOL     OW79564   8.374  11.470   1.744
59244SOL    HW179565   8.294  11.445   1.699
59244SOL    HW279566   8.350  11.473   1.837
59245SOL     OW79567   2.837   3.007  11.685
59245SOL    HW179568   2.883   2.923  11.684
59245SOL    HW279569   2.902   3.070  11.654
59246SOL     OW79570   7.133   2.648   1.789
59246SOL    HW179571   7.162   2.558   1.803
59246SOL    HW279572   7.164   2.695   1.866
59247SOL     OW79573  11.195   4.189  10.244
59247SOL    HW179574  11.203   4.142  10.162
59247SOL    HW279575  11.227   4.277  10.224
59248SOL     OW79576   5.867  11.511  12.170
59248SOL    HW179577   5.960  11.502  12.152
59248SOL    HW279578   5.834  11.564  12.097
59249SOL     OW79579   8.600   1.935   5.326
59249SOL    HW179580   8.533   1.978   5.379
59249SOL    HW279581   8.606   1.989   5.247
59250SOL     OW79582   6.353   7.126   9.505
59250SOL    HW179583   6.260   7.122   9.482
59250SOL    HW279584   6.359   7.081   9.589
59251SOL     OW79585   4.196  11.166  14.688
59251SOL    HW179586   4.143  11.090  14.663
59251SOL    HW279587   4.213  11.155  14.781
59252SOL     OW79588   0.704   7.465  10.685
59252SOL    HW179589   0.798   7.448  10.683
59252SOL    HW279590   0.696   7.555  10.653
59253SOL     OW79591   0.373  13.384  12.237
59253SOL    HW179592   0.408  13.296  12.250
59253SOL    HW279593   0.446  13.443  12.257
59254SOL     OW79594   6.546   7.030   3.592
59254SOL    HW179595   6.510   7.069   3.671
59254SOL    HW279596   6.551   6.936   3.612
59255SOL     OW79597   8.169   7.680  13.685
59255SOL    HW179598   8.156   7.720  13.598
59255SOL    HW279599   8.163   7.586  13.669
59256SOL     OW79600   7.859   3.211   0.975
59256SOL    HW179601   7.781   3.262   0.994
59256SOL    HW279602   7.833   3.120   0.993
59257SOL     OW79603   1.300   6.068   6.901
59257SOL    HW179604   1.349   6.143   6.934
59257SOL    HW279605   1.321   6.064   6.807
59258SOL     OW79606  14.845   7.283  14.569
59258SOL    HW179607   0.052   7.247  14.594
59258SOL    HW279608  14.854   7.304  14.476
59259SOL     OW79609   1.407   3.448   4.737
59259SOL    HW179610   1.412   3.542   4.755
59259SOL    HW279611   1.415   3.407   4.823
59260SOL     OW79612   3.366   5.333   9.850
59260SOL    HW179613   3.317   5.253   9.829
59260SOL    HW279614   3.317   5.404   9.809
59261SOL     OW79615   7.225   0.231  12.237
59261SOL    HW179616   7.199   0.322  12.226
59261SOL    HW279617   7.256   0.226  12.328
59262SOL     OW79618  11.283  14.386   5.284
59262SOL    HW179619  11.271  14.348   5.372
59262SOL    HW279620  11.201  14.431   5.266
59263SOL     OW79621   8.675   9.912  14.683
59263SOL    HW179622   8.579   9.916  14.690
59263SOL    HW279623   8.702  10.003  14.675
59264SOL     OW79624   2.533   0.087  11.246
59264SOL    HW179625   2.437   0.084  11.248
59264SOL    HW279626   2.560  14.876  11.260
59265SOL     OW79627   1.091   8.386   2.089
59265SOL    HW179628   1.157   8.455   2.101
59265SOL    HW279629   1.037   8.416   2.016
59266SOL     OW79630  11.104  11.775   1.730
59266SOL    HW179631  11.127  11.795   1.639
59266SOL    HW279632  11.010  11.794   1.736
59267SOL     OW79633  14.438  13.597  11.618
59267SOL    HW179634  14.471  13.684  11.636
59267SOL    HW279635  14.367  13.584  11.681
59268SOL     OW79636   7.982   9.074   4.266
59268SOL    HW179637   7.974   9.021   4.345
59268SOL    HW279638   8.039   9.146   4.291
59269SOL     OW79639   0.966   0.165   1.862
59269SOL    HW179640   0.908   0.217   1.918
59269SOL    HW279641   0.907   0.107   1.815
59270SOL     OW79642  14.680   8.984   3.874
59270SOL    HW179643  14.731   9.062   3.897
59270SOL    HW279644  14.670   8.989   3.779
59271SOL     OW79645   5.740   1.036   7.248
59271SOL    HW179646   5.765   0.957   7.296
59271SOL    HW279647   5.691   1.088   7.311
59272SOL     OW79648   3.450   1.581   6.870
59272SOL    HW179649   3.514   1.510   6.872
59272SOL    HW279650   3.373   1.546   6.915
59273SOL     OW79651  12.355  12.298   0.714
59273SOL    HW179652  12.405  12.234   0.663
59273SOL    HW279653  12.268  12.299   0.674
59274SOL     OW79654   7.009   1.979  13.411
59274SOL    HW179655   6.995   2.026  13.492
59274SOL    HW279656   6.953   1.902  13.418
59275SOL     OW79657   1.943   0.063  12.819
59275SOL    HW179658   1.882   0.000  12.780
59275SOL    HW279659   1.981   0.016  12.893
59276SOL     OW79660   6.160   9.522  14.707
59276SOL    HW179661   6.239   9.485  14.669
59276SOL    HW279662   6.192   9.584  14.773
59277SOL     OW79663  10.336  12.217   2.412
59277SOL    HW179664  10.242  12.211   2.395
59277SOL    HW279665  10.361  12.129   2.439
59278SOL     OW79666  13.758   2.021   9.237
59278SOL    HW179667  13.798   2.088   9.180
59278SOL    HW279668  13.769   2.055   9.325
59279SOL     OW79669   2.983  10.746  11.028
59279SOL    HW179670   2.896  10.707  11.032
59279SOL    HW279671   2.980  10.817  11.091
59280SOL     OW79672   9.537  14.760   9.706
59280SOL    HW179673   9.629  14.780   9.726
59280SOL    HW279674   9.517  14.684   9.761
59281SOL     OW79675   1.019  13.044  12.556
59281SOL    HW179676   1.102  13.040  12.603
59281SOL    HW279677   1.006  12.956  12.522
59282SOL     OW79678   2.377  14.573   5.642
59282SOL    HW179679   2.361  14.578   5.548
59282SOL    HW279680   2.353  14.483   5.667
59283SOL     OW79681   5.733  14.626  11.209
59283SOL    HW179682   5.815  14.653  11.167
59283SOL    HW279683   5.664  14.653  11.148
59284SOL     OW79684   3.566   4.060   9.582
59284SOL    HW179685   3.583   4.086   9.492
59284SOL    HW279686   3.630   3.991   9.600
59285SOL     OW79687   0.320   4.473  12.221
59285SOL    HW179688   0.363   4.540  12.168
59285SOL    HW279689   0.347   4.493  12.311
59286SOL     OW79690  10.172   6.970   9.863
59286SOL    HW179691  10.150   7.015   9.944
59286SOL    HW279692  10.158   6.877   9.883
59287SOL     OW79693   7.938  13.467  13.874
59287SOL    HW179694   8.013  13.525  13.883
59287SOL    HW279695   7.912  13.475  13.783
59288SOL     OW79696   1.956   0.508   0.469
59288SOL    HW179697   1.873   0.554   0.482
59288SOL    HW279698   2.008   0.566   0.414
59289SOL     OW79699   2.218   6.931   0.261
59289SOL    HW179700   2.195   6.993   0.192
59289SOL    HW279701   2.144   6.933   0.321
59290SOL     OW79702   2.997   8.567   1.946
59290SOL    HW179703   2.927   8.551   2.008
59290SOL    HW279704   3.017   8.481   1.909
59291SOL     OW79705   9.167   9.904  14.048
59291SOL    HW179706   9.131   9.835  14.105
59291SOL    HW279707   9.255   9.874  14.026
59292SOL     OW79708  14.667   2.663   3.303
59292SOL    HW179709  14.682   2.681   3.396
59292SOL    HW279710  14.627   2.576   3.302
59293SOL     OW79711   5.659  12.048  10.366
59293SOL    HW179712   5.609  12.101  10.304
59293SOL    HW279713   5.603  12.046  10.444
59294SOL     OW79714  10.861   1.120   2.603
59294SOL    HW179715  10.862   1.216   2.600
59294SOL    HW279716  10.806   1.095   2.528
59295SOL     OW79717   9.917  10.220   1.995
59295SOL    HW179718   9.880  10.172   2.069
59295SOL    HW279719   9.963  10.294   2.035
59296SOL     OW79720   5.313   9.019   6.323
59296SOL    HW179721   5.304   8.948   6.387
59296SOL    HW279722   5.366   8.981   6.253
59297SOL     OW79723  14.849   3.676   2.117
59297SOL    HW179724   0.026   3.671   2.039
59297SOL    HW279725  14.856   3.590   2.157
59298SOL     OW79726  13.542   2.984   7.495
59298SOL    HW179727  13.520   2.950   7.582
59298SOL    HW279728  13.557   2.906   7.442
59299SOL     OW79729   3.816   6.131   2.009
59299SOL    HW179730   3.765   6.210   2.027
59299SOL    HW279731   3.755   6.059   2.022
59300SOL     OW79732   4.391   9.677  10.293
59300SOL    HW179733   4.466   9.618  10.286
59300SOL    HW279734   4.331   9.648  10.224
59301SOL     OW79735   4.810  14.751  14.786
59301SOL    HW179736   4.892  14.744  14.836
59301SOL    HW279737   4.757  14.678  14.817
59302SOL     OW79738  10.572  14.450   4.090
59302SOL    HW179739  10.492  14.476   4.044
59302SOL    HW279740  10.643  14.469   4.028
59303SOL     OW79741   8.744  12.345   9.755
59303SOL    HW179742   8.835  12.321   9.773
59303SOL    HW279743   8.697  12.324   9.837
59304SOL     OW79744  14.845  14.258   5.703
59304SOL    HW179745   0.011  14.180   5.735
59304SOL    HW279746  14.752  14.239   5.718
59305SOL     OW79747  13.649   5.165   5.363
59305SOL    HW179748  13.717   5.098   5.357
59305SOL    HW279749  13.574   5.129   5.316
59306SOL     OW79750  13.079   8.565  11.102
59306SOL    HW179751  12.987   8.570  11.127
59306SOL    HW279752  13.082   8.602  11.014
59307SOL     OW79753   8.735   1.289  10.902
59307SOL    HW179754   8.800   1.350  10.866
59307SOL    HW279755   8.735   1.308  10.996
59308SOL     OW79756   0.562   2.246  10.006
59308SOL    HW179757   0.484   2.301  10.011
59308SOL    HW279758   0.528   2.156  10.004
59309SOL     OW79759  14.012   5.103  10.787
59309SOL    HW179760  13.918   5.089  10.797
59309SOL    HW279761  14.053   5.038  10.844
59310SOL     OW79762  13.092  14.787  13.126
59310SOL    HW179763  13.044  14.760  13.205
59310SOL    HW279764  13.181  14.755  13.140
59311SOL     OW79765   3.995   6.272   6.347
59311SOL    HW179766   4.074   6.320   6.323
59311SOL    HW279767   3.955   6.324   6.417
59312SOL     OW79768   0.192  13.912  10.109
59312SOL    HW179769   0.108  13.876  10.136
59312SOL    HW279770   0.236  13.936  10.190
59313SOL     OW79771  10.500   1.067   5.806
59313SOL    HW179772  10.565   1.136   5.820
59313SOL    HW279773  10.524   1.027   5.722
59314SOL     OW79774   8.172   3.381   8.968
59314SOL    HW179775   8.249   3.367   9.022
59314SOL    HW279776   8.104   3.326   9.008
59315SOL     OW79777   9.495   5.818   6.548
59315SOL    HW179778   9.521   5.910   6.556
59315SOL    HW279779   9.411   5.814   6.594
59316SOL     OW79780   5.182   0.583   1.864
59316SOL    HW179781   5.229   0.561   1.784
59316SOL    HW279782   5.250   0.596   1.930
59317SOL     OW79783   8.303   8.714   4.838
59317SOL    HW179784   8.387   8.741   4.801
59317SOL    HW279785   8.324   8.639   4.893
59318SOL     OW79786   5.888   8.394   8.703
59318SOL    HW179787   5.935   8.428   8.627
59318SOL    HW279788   5.930   8.437   8.778
59319SOL     OW79789   3.787  11.282   4.318
59319SOL    HW179790   3.693  11.291   4.303
59319SOL    HW279791   3.805  11.339   4.393
59320SOL     OW79792   4.098   9.440   6.646
59320SOL    HW179793   4.043   9.500   6.697
59320SOL    HW279794   4.071   9.455   6.555
59321SOL     OW79795   1.252   3.900   6.438
59321SOL    HW179796   1.310   3.913   6.513
59321SOL    HW279797   1.262   3.979   6.385
59322SOL     OW79798  12.227  10.318  14.008
59322SOL    HW179799  12.160  10.373  13.967
59322SOL    HW279800  12.238  10.355  14.095
59323SOL     OW79801   5.544  13.012   8.327
59323SOL    HW179802   5.475  13.071   8.298
59323SOL    HW279803   5.498  12.942   8.374
59324SOL     OW79804   8.531   8.033  10.061
59324SOL    HW179805   8.489   7.951  10.034
59324SOL    HW279806   8.614   8.034  10.013
59325SOL     OW79807   5.099   0.244   6.911
59325SOL    HW179808   5.065   0.284   6.991
59325SOL    HW279809   5.023   0.242   6.852
59326SOL     OW79810   5.106   1.389   0.312
59326SOL    HW179811   5.063   1.318   0.359
59326SOL    HW279812   5.066   1.469   0.346
59327SOL     OW79813  12.978   1.514   6.240
59327SOL    HW179814  12.986   1.610   6.247
59327SOL    HW279815  13.049   1.481   6.296
59328SOL     OW79816  13.293   3.116   2.986
59328SOL    HW179817  13.251   3.174   3.051
59328SOL    HW279818  13.307   3.034   3.033
59329SOL     OW79819   6.522   4.058   6.966
59329SOL    HW179820   6.554   4.043   6.876
59329SOL    HW279821   6.574   4.131   6.998
59330SOL     OW79822   5.231  10.938  12.754
59330SOL    HW179823   5.316  10.981  12.761
59330SOL    HW279824   5.249  10.846  12.769
59331SOL     OW79825   9.789   1.910   0.330
59331SOL    HW179826   9.756   1.937   0.245
59331SOL    HW279827   9.850   1.979   0.356
59332SOL     OW79828   3.772  12.015   0.676
59332SOL    HW179829   3.849  11.986   0.725
59332SOL    HW279830   3.721  12.064   0.740
59333SOL     OW79831   7.270   2.227  14.636
59333SOL    HW179832   7.359   2.193  14.623
59333SOL    HW279833   7.233   2.229  14.548
59334SOL     OW79834   7.240  13.495   5.494
59334SOL    HW179835   7.269  13.452   5.575
59334SOL    HW279836   7.314  13.550   5.469
59335SOL     OW79837   8.841   3.481  11.422
59335SOL    HW179838   8.826   3.552  11.360
59335SOL    HW279839   8.902   3.422  11.377
59336SOL     OW79840  10.308   1.564  12.110
59336SOL    HW179841  10.261   1.501  12.166
59336SOL    HW279842  10.392   1.522  12.093
59337SOL     OW79843   0.725  12.105   3.409
59337SOL    HW179844   0.726  12.095   3.314
59337SOL    HW279845   0.788  12.040   3.440
59338SOL     OW79846   6.868   4.008   8.390
59338SOL    HW179847   6.812   3.958   8.449
59338SOL    HW279848   6.820   4.090   8.375
59339SOL     OW79849  13.702   9.438   7.186
59339SOL    HW179850  13.727   9.522   7.149
59339SOL    HW279851  13.733   9.373   7.123
59340SOL     OW79852   9.432   0.390   3.238
59340SOL    HW179853   9.481   0.317   3.201
59340SOL    HW279854   9.348   0.388   3.192
59341SOL     OW79855  11.288   2.849   9.492
59341SOL    HW179856  11.382   2.860   9.477
59341SOL    HW279857  11.269   2.762   9.455
59342SOL     OW79858   3.194   0.891  11.313
59342SOL    HW179859   3.222   0.830  11.245
59342SOL    HW279860   3.182   0.836  11.391
59343SOL     OW79861  12.452   0.427  11.827
59343SOL    HW179862  12.478   0.518  11.807
59343SOL    HW279863  12.535   0.382  11.842
59344SOL     OW79864  10.340  13.229   4.921
59344SOL    HW179865  10.323  13.249   5.013
59344SOL    HW279866  10.321  13.310   4.874
59345SOL     OW79867   8.284  11.658   7.745
59345SOL    HW179868   8.318  11.618   7.825
59345SOL    HW279869   8.224  11.726   7.775
59346SOL     OW79870   0.653  14.754   7.713
59346SOL    HW179871   0.583  14.723   7.772
59346SOL    HW279872   0.638  14.705   7.632
59347SOL     OW79873  10.309   2.834   7.164
59347SOL    HW179874  10.272   2.805   7.247
59347SOL    HW279875  10.257   2.788   7.097
59348SOL     OW79876  13.421   6.871   8.936
59348SOL    HW179877  13.502   6.822   8.920
59348SOL    HW279878  13.360   6.840   8.869
59349SOL     OW79879  12.424   1.130   7.652
59349SOL    HW179880  12.462   1.176   7.727
59349SOL    HW279881  12.473   1.163   7.577
59350SOL     OW79882   2.559  10.276   3.301
59350SOL    HW179883   2.496  10.213   3.267
59350SOL    HW279884   2.527  10.299   3.389
59351SOL     OW79885   4.210  12.834  11.017
59351SOL    HW179886   4.195  12.837  10.923
59351SOL    HW279887   4.219  12.741  11.037
59352SOL     OW79888   9.208   0.761   6.235
59352SOL    HW179889   9.226   0.774   6.142
59352SOL    HW279890   9.164   0.841   6.262
59353SOL     OW79891   5.180  12.770   2.862
59353SOL    HW179892   5.092  12.748   2.834
59353SOL    HW279893   5.237  12.737   2.793
59354SOL     OW79894  12.591   2.175   6.895
59354SOL    HW179895  12.589   2.102   6.833
59354SOL    HW279896  12.679   2.211   6.888
59355SOL     OW79897   5.437   6.310  12.422
59355SOL    HW179898   5.421   6.272  12.336
59355SOL    HW279899   5.483   6.392  12.404
59356SOL     OW79900  13.673   3.076   2.733
59356SOL    HW179901  13.716   2.993   2.755
59356SOL    HW279902  13.678   3.081   2.638
59357SOL     OW79903  12.159   2.697  12.690
59357SOL    HW179904  12.106   2.617  12.695
59357SOL    HW279905  12.100   2.767  12.719
59358SOL     OW79906   7.353  12.757   2.997
59358SOL    HW179907   7.335  12.765   3.090
59358SOL    HW279908   7.318  12.837   2.958
59359SOL     OW79909   2.307   5.004  13.779
59359SOL    HW179910   2.361   5.030  13.705
59359SOL    HW279911   2.249   5.079  13.794
59360SOL     OW79912  13.839  11.228  10.454
59360SOL    HW179913  13.797  11.315  10.456
59360SOL    HW279914  13.908  11.234  10.520
59361SOL     OW79915   5.852   5.507  12.651
59361SOL    HW179916   5.939   5.505  12.612
59361SOL    HW279917   5.793   5.521  12.577
59362SOL     OW79918   5.147   2.518   9.310
59362SOL    HW179919   5.111   2.460   9.378
59362SOL    HW279920   5.235   2.484   9.294
59363SOL     OW79921  12.225  14.189   2.242
59363SOL    HW179922  12.249  14.198   2.150
59363SOL    HW279923  12.276  14.256   2.287
59364SOL     OW79924  12.201   7.681   3.410
59364SOL    HW179925  12.224   7.589   3.425
59364SOL    HW279926  12.115   7.690   3.451
59365SOL     OW79927  14.290   5.742   4.395
59365SOL    HW179928  14.237   5.669   4.427
59365SOL    HW279929  14.229   5.796   4.344
59366SOL     OW79930   7.424  12.138   1.080
59366SOL    HW179931   7.508  12.095   1.093
59366SOL    HW279932   7.368  12.103   1.149
59367SOL     OW79933   3.749   8.304   4.616
59367SOL    HW179934   3.737   8.233   4.678
59367SOL    HW279935   3.673   8.361   4.629
59368SOL     OW79936   9.714   1.634  11.078
59368SOL    HW179937   9.686   1.700  11.142
59368SOL    HW279938   9.632   1.604  11.038
59369SOL     OW79939   9.462   6.779   6.993
59369SOL    HW179940   9.528   6.735   7.047
59369SOL    HW279941   9.384   6.725   7.003
59370SOL     OW79942  11.005   0.230  13.799
59370SOL    HW179943  11.029   0.141  13.827
59370SOL    HW279944  11.047   0.287  13.864
59371SOL     OW79945   3.125   2.931  13.563
59371SOL    HW179946   3.079   2.858  13.605
59371SOL    HW279947   3.215   2.925  13.596
59372SOL     OW79948  14.312   3.012   1.990
59372SOL    HW179949  14.334   3.105   1.981
59372SOL    HW279950  14.247   3.009   2.060
59373SOL     OW79951   0.354   9.616   6.375
59373SOL    HW179952   0.314   9.627   6.461
59373SOL    HW279953   0.443   9.585   6.394
59374SOL     OW79954   4.462   7.790  14.627
59374SOL    HW179955   4.502   7.783  14.714
59374SOL    HW279956   4.508   7.863  14.585
59375SOL     OW79957   4.694  14.044   8.048
59375SOL    HW179958   4.751  13.979   8.088
59375SOL    HW279959   4.605  14.016   8.070
59376SOL     OW79960   2.575   5.603  14.477
59376SOL    HW179961   2.655   5.553  14.461
59376SOL    HW279962   2.507   5.536  14.482
59377SOL     OW79963  10.174   2.149   1.985
59377SOL    HW179964  10.213   2.081   1.930
59377SOL    HW279965  10.145   2.216   1.923
59378SOL     OW79966  10.449   9.066  13.485
59378SOL    HW179967  10.439   8.973  13.468
59378SOL    HW279968  10.516   9.095  13.423
59379SOL     OW79969   1.688  12.537  13.621
59379SOL    HW179970   1.599  12.508  13.639
59379SOL    HW279971   1.714  12.488  13.543
59380SOL     OW79972  12.692   6.176  12.596
59380SOL    HW179973  12.768   6.161  12.542
59380SOL    HW279974  12.726   6.177  12.686
59381SOL     OW79975   6.285   6.812   7.699
59381SOL    HW179976   6.196   6.841   7.676
59381SOL    HW279977   6.277   6.717   7.707
59382SOL     OW79978   1.045   8.583  11.795
59382SOL    HW179979   1.119   8.569  11.735
59382SOL    HW279980   0.995   8.502  11.791
59383SOL     OW79981   5.735   8.104   2.276
59383SOL    HW179982   5.763   8.168   2.210
59383SOL    HW279983   5.789   8.124   2.353
59384SOL     OW79984   6.798   0.863  13.918
59384SOL    HW179985   6.807   0.797  13.987
59384SOL    HW279986   6.730   0.828  13.860
59385SOL     OW79987   9.904  13.454   9.779
59385SOL    HW179988   9.937  13.388   9.840
59385SOL    HW279989   9.951  13.436   9.697
59386SOL     OW79990  10.802   8.997   3.910
59386SOL    HW179991  10.878   8.963   3.862
59386SOL    HW279992  10.829   9.084   3.938
59387SOL     OW79993   9.113  13.732  14.810
59387SOL    HW179994   9.122  13.668   0.001
59387SOL    HW279995   9.100  13.680  14.731
59388SOL     OW79996   3.705   3.110   7.268
59388SOL    HW179997   3.699   3.084   7.359
59388SOL    HW279998   3.768   3.182   7.268
59389SOL     OW79999   8.347   1.981   2.092
59389SOL    HW180000   8.313   2.046   2.030
59389SOL    HW280001   8.270   1.949   2.139
59390SOL     OW80002  14.458   6.588  14.718
59390SOL    HW180003  14.499   6.667  14.683
59390SOL    HW280004  14.517   6.560  14.788
59391SOL     OW80005  11.986   1.650   0.692
59391SOL    HW180006  11.986   1.637   0.597
59391SOL    HW280007  12.037   1.576   0.726
59392SOL     OW80008   5.301  10.821   8.838
59392SOL    HW180009   5.316  10.823   8.744
59392SOL    HW280010   5.347  10.742   8.868
59393SOL     OW80011   5.587   6.974   4.183
59393SOL    HW180012   5.595   7.021   4.101
59393SOL    HW280013   5.676   6.945   4.203
59394SOL     OW80014   5.314   3.191  14.590
59394SOL    HW180015   5.396   3.219  14.550
59394SOL    HW280016   5.283   3.268  14.638
59395SOL     OW80017   5.435   2.014   8.205
59395SOL    HW180018   5.413   1.943   8.265
59395SOL    HW280019   5.407   2.093   8.250
59396SOL     OW80020   0.282   0.428   1.516
59396SOL    HW180021   0.334   0.488   1.462
59396SOL    HW280022   0.215   0.484   1.556
59397SOL     OW80023   2.731   9.496  10.668
59397SOL    HW180024   2.779   9.458  10.595
59397SOL    HW280025   2.781   9.470  10.746
59398SOL     OW80026   9.693   6.251  13.440
59398SOL    HW180027   9.629   6.180  13.436
59398SOL    HW280028   9.722   6.263  13.350
59399SOL     OW80029   4.002  12.488   6.874
59399SOL    HW180030   4.019  12.507   6.966
59399SOL    HW280031   3.921  12.437   6.875
59400SOL     OW80032   3.744   6.986   2.892
59400SOL    HW180033   3.727   6.919   2.825
59400SOL    HW280034   3.826   7.027   2.864
59401SOL     OW80035   6.380  10.045   6.015
59401SOL    HW180036   6.452  10.014   6.070
59401SOL    HW280037   6.311  10.070   6.076
59402SOL     OW80038   0.185   5.295   0.797
59402SOL    HW180039   0.161   5.320   0.886
59402SOL    HW280040   0.122   5.226   0.774
59403SOL     OW80041   6.545   1.857   9.739
59403SOL    HW180042   6.598   1.789   9.780
59403SOL    HW280043   6.572   1.858   9.647
59404SOL     OW80044   0.644  14.059  10.925
59404SOL    HW180045   0.703  14.085  10.995
59404SOL    HW280046   0.660  14.122  10.855
59405SOL     OW80047   3.335   1.550   0.985
59405SOL    HW180048   3.391   1.592   0.920
59405SOL    HW280049   3.249   1.547   0.944
59406SOL     OW80050   4.472  13.488   8.035
59406SOL    HW180051   4.512  13.573   8.057
59406SOL    HW280052   4.511  13.465   7.951
59407SOL     OW80053  12.898  10.713   5.899
59407SOL    HW180054  12.865  10.795   5.862
59407SOL    HW280055  12.943  10.738   5.979
59408SOL     OW80056   6.337  11.487   4.359
59408SOL    HW180057   6.418  11.497   4.410
59408SOL    HW280058   6.270  11.470   4.425
59409SOL     OW80059  10.334   7.922  10.766
59409SOL    HW180060  10.360   7.995  10.708
59409SOL    HW280061  10.404   7.858  10.757
59410SOL     OW80062   2.752   3.015   4.507
59410SOL    HW180063   2.771   3.106   4.484
59410SOL    HW280064   2.731   3.019   4.601
59411SOL     OW80065   3.571   3.007  13.320
59411SOL    HW180066   3.528   2.928  13.353
59411SOL    HW280067   3.571   2.996  13.225
59412SOL     OW80068   7.366   4.142   0.129
59412SOL    HW180069   7.394   4.232   0.114
59412SOL    HW280070   7.303   4.148   0.200
59413SOL     OW80071   3.884   5.260   8.366
59413SOL    HW180072   3.823   5.333   8.368
59413SOL    HW280073   3.947   5.279   8.435
59414SOL     OW80074  11.741   5.009   3.591
59414SOL    HW180075  11.725   4.975   3.679
59414SOL    HW280076  11.753   4.932   3.537
59415SOL     OW80077   5.380   0.455   9.533
59415SOL    HW180078   5.396   0.538   9.489
59415SOL    HW280079   5.345   0.397   9.466
59416SOL     OW80080   0.939   9.038   7.089
59416SOL    HW180081   1.020   8.994   7.063
59416SOL    HW280082   0.949   9.052   7.184
59417SOL     OW80083   9.370   0.508   7.519
59417SOL    HW180084   9.383   0.589   7.469
59417SOL    HW280085   9.329   0.448   7.457
59418SOL     OW80086   2.446   0.558  10.917
59418SOL    HW180087   2.539   0.559  10.898
59418SOL    HW280088   2.440   0.580  11.010
59419SOL     OW80089   2.248  11.930  13.850
59419SOL    HW180090   2.344  11.931  13.853
59419SOL    HW280091   2.222  11.909  13.939
59420SOL     OW80092  11.658  12.224  14.588
59420SOL    HW180093  11.611  12.183  14.660
59420SOL    HW280094  11.600  12.212  14.512
59421SOL     OW80095   6.152  12.310   5.873
59421SOL    HW180096   6.087  12.349   5.931
59421SOL    HW280097   6.167  12.376   5.806
59422SOL     OW80098  11.707  14.728   9.799
59422SOL    HW180099  11.789  14.696   9.760
59422SOL    HW280100  11.641  14.712   9.731
59423SOL     OW80101   0.250  11.712  10.411
59423SOL    HW180102   0.158  11.737  10.399
59423SOL    HW280103   0.299  11.791  10.388
59424SOL     OW80104   8.741   8.877  14.403
59424SOL    HW180105   8.707   8.875  14.493
59424SOL    HW280106   8.710   8.961  14.368
59425SOL     OW80107  12.640   7.756   5.763
59425SOL    HW180108  12.631   7.846   5.732
59425SOL    HW280109  12.583   7.751   5.839
59426SOL     OW80110  12.477   1.427  12.501
59426SOL    HW180111  12.518   1.513  12.506
59426SOL    HW280112  12.409   1.436  12.434
59427SOL     OW80113   6.664   7.439   0.342
59427SOL    HW180114   6.722   7.365   0.359
59427SOL    HW280115   6.595   7.431   0.407
59428SOL     OW80116  12.314  12.879   6.871
59428SOL    HW180117  12.373  12.949   6.841
59428SOL    HW280118  12.228  12.905   6.837
59429SOL     OW80119   4.493  13.459   4.910
59429SOL    HW180120   4.580  13.423   4.894
59429SOL    HW280121   4.483  13.527   4.844
59430SOL     OW80122   1.404   0.799  11.316
59430SOL    HW180123   1.496   0.773  11.310
59430SOL    HW280124   1.370   0.787  11.228
59431SOL     OW80125   8.610   9.413   0.742
59431SOL    HW180126   8.705   9.424   0.741
59431SOL    HW280127   8.594   9.342   0.680
59432SOL     OW80128  13.180   1.364   8.942
59432SOL    HW180129  13.224   1.288   8.906
59432SOL    HW280130  13.236   1.438   8.918
59433SOL     OW80131  14.280  12.126   6.007
59433SOL    HW180132  14.191  12.141   6.038
59433SOL    HW280133  14.335  12.145   6.084
59434SOL     OW80134   8.869   1.352  10.253
59434SOL    HW180135   8.819   1.404  10.191
59434SOL    HW280136   8.942   1.408  10.279
59435SOL     OW80137   3.361   6.669  10.201
59435SOL    HW180138   3.364   6.668  10.296
59435SOL    HW280139   3.337   6.759  10.178
59436SOL     OW80140  11.980   0.493  13.792
59436SOL    HW180141  11.903   0.473  13.739
59436SOL    HW280142  11.944   0.524  13.875
59437SOL     OW80143   1.715   5.702   3.617
59437SOL    HW180144   1.716   5.753   3.699
59437SOL    HW280145   1.683   5.616   3.643
59438SOL     OW80146   4.778   2.484  10.122
59438SOL    HW180147   4.840   2.439  10.180
59438SOL    HW280148   4.832   2.516  10.050
59439SOL     OW80149   1.432  12.672   2.541
59439SOL    HW180150   1.451  12.743   2.602
59439SOL    HW280151   1.422  12.595   2.597
59440SOL     OW80152   2.161   8.839   6.551
59440SOL    HW180153   2.212   8.768   6.590
59440SOL    HW280154   2.144   8.809   6.462
59441SOL     OW80155  13.405   3.017  11.234
59441SOL    HW180156  13.346   2.944  11.214
59441SOL    HW280157  13.467   2.982  11.297
59442SOL     OW80158   7.143   5.126  10.781
59442SOL    HW180159   7.117   5.161  10.866
59442SOL    HW280160   7.180   5.201  10.735
59443SOL     OW80161   8.345  11.383   7.261
59443SOL    HW180162   8.379  11.333   7.335
59443SOL    HW280163   8.287  11.448   7.300
59444SOL     OW80164  11.114   9.456   3.399
59444SOL    HW180165  11.061   9.511   3.457
59444SOL    HW280166  11.050   9.416   3.339
59445SOL     OW80167  13.562  14.542  13.037
59445SOL    HW180168  13.514  14.505  12.963
59445SOL    HW280169  13.611  14.615  12.999
59446SOL     OW80170   0.273  13.934  10.362
59446SOL    HW180171   0.312  13.857  10.404
59446SOL    HW280172   0.188  13.944  10.405
59447SOL     OW80173  10.004   8.855   9.179
59447SOL    HW180174  10.066   8.889   9.115
59447SOL    HW280175   9.918   8.873   9.141
59448SOL     OW80176  11.691   7.503  12.300
59448SOL    HW180177  11.649   7.588  12.285
59448SOL    HW280178  11.769   7.524  12.352
59449SOL     OW80179   5.734   8.835   7.920
59449SOL    HW180180   5.820   8.868   7.946
59449SOL    HW280181   5.731   8.746   7.955
59450SOL     OW80182   4.059   6.474   5.008
59450SOL    HW180183   4.042   6.527   5.087
59450SOL    HW280184   4.092   6.537   4.944
59451SOL     OW80185   6.437   4.398  12.665
59451SOL    HW180186   6.471   4.358  12.584
59451SOL    HW280187   6.410   4.323  12.718
59452SOL     OW80188   5.389   1.178   6.200
59452SOL    HW180189   5.483   1.164   6.211
59452SOL    HW280190   5.357   1.199   6.288
59453SOL     OW80191  11.034   5.448   1.763
59453SOL    HW180192  11.121   5.445   1.724
59453SOL    HW280193  10.980   5.493   1.698
59454SOL     OW80194   8.534   3.637   2.741
59454SOL    HW180195   8.612   3.604   2.786
59454SOL    HW280196   8.461   3.599   2.790
59455SOL     OW80197   2.165   9.404  10.985
59455SOL    HW180198   2.222   9.364  11.051
59455SOL    HW280199   2.120   9.474  11.032
59456SOL     OW80200   9.523   4.937   0.736
59456SOL    HW180201   9.558   5.024   0.716
59456SOL    HW280202   9.590   4.876   0.704
59457SOL     OW80203   6.441  11.967   1.704
59457SOL    HW180204   6.426  12.056   1.736
59457SOL    HW280205   6.358  11.921   1.722
59458SOL     OW80206   3.968   7.568  11.706
59458SOL    HW180207   4.042   7.507  11.709
59458SOL    HW280208   3.929   7.554  11.620
59459SOL     OW80209   2.699   3.614   6.293
59459SOL    HW180210   2.661   3.529   6.319
59459SOL    HW280211   2.642   3.645   6.222
59460SOL     OW80212  14.530   5.821  14.665
59460SOL    HW180213  14.452   5.862  14.628
59460SOL    HW280214  14.593   5.821  14.593
59461SOL     OW80215   7.880   8.415  11.401
59461SOL    HW180216   7.883   8.419  11.306
59461SOL    HW280217   7.863   8.504  11.430
59462SOL     OW80218   0.274   3.810   8.145
59462SOL    HW180219   0.317   3.888   8.179
59462SOL    HW280220   0.326   3.785   8.068
59463SOL     OW80221  14.183   2.159  12.042
59463SOL    HW180222  14.100   2.126  12.077
59463SOL    HW280223  14.201   2.104  11.966
59464SOL     OW80224   0.506   9.627   5.017
59464SOL    HW180225   0.422   9.620   5.062
59464SOL    HW280226   0.571   9.624   5.088
59465SOL     OW80227  11.020   3.950   8.142
59465SOL    HW180228  11.021   4.020   8.077
59465SOL    HW280229  10.942   3.898   8.121
59466SOL     OW80230  14.678   0.361   2.540
59466SOL    HW180231  14.727   0.425   2.592
59466SOL    HW280232  14.587   0.388   2.548
59467SOL     OW80233  14.683   0.295   4.654
59467SOL    HW180234  14.777   0.290   4.638
59467SOL    HW280235  14.666   0.226   4.717
59468SOL     OW80236  10.574   9.414   8.133
59468SOL    HW180237  10.597   9.467   8.056
59468SOL    HW280238  10.575   9.324   8.101
59469SOL     OW80239   5.527  10.913   9.685
59469SOL    HW180240   5.523  10.879   9.596
59469SOL    HW280241   5.616  10.895   9.714
59470SOL     OW80242  11.282  10.660   6.171
59470SOL    HW180243  11.359  10.606   6.153
59470SOL    HW280244  11.270  10.654   6.266
59471SOL     OW80245  13.424   7.897  12.232
59471SOL    HW180246  13.493   7.937  12.285
59471SOL    HW280247  13.415   7.955  12.156
59472SOL     OW80248  12.990  11.751   8.186
59472SOL    HW180249  12.948  11.665   8.186
59472SOL    HW280250  13.057  11.746   8.118
59473SOL     OW80251  14.211   7.315   6.561
59473SOL    HW180252  14.178   7.325   6.651
59473SOL    HW280253  14.187   7.226   6.537
59474SOL     OW80254   7.246  12.898  12.047
59474SOL    HW180255   7.198  12.846  12.112
59474SOL    HW280256   7.271  12.978  12.093
59475SOL     OW80257  12.977  11.044   2.238
59475SOL    HW180258  12.888  11.009   2.240
59475SOL    HW280259  12.986  11.093   2.320
59476SOL     OW80260  12.275  13.603   3.517
59476SOL    HW180261  12.246  13.520   3.480
59476SOL    HW280262  12.194  13.655   3.524
59477SOL     OW80263   9.575   8.895  12.811
59477SOL    HW180264   9.594   8.900  12.717
59477SOL    HW280265   9.550   8.984  12.834
59478SOL     OW80266   0.785  12.305  13.222
59478SOL    HW180267   0.814  12.290  13.313
59478SOL    HW280268   0.822  12.231  13.173
59479SOL     OW80269  13.724   3.659   0.500
59479SOL    HW180270  13.806   3.700   0.527
59479SOL    HW280271  13.696   3.710   0.423
59480SOL     OW80272  12.287   6.930   7.435
59480SOL    HW180273  12.243   6.845   7.433
59480SOL    HW280274  12.373   6.912   7.474
59481SOL     OW80275  11.314   5.668   8.588
59481SOL    HW180276  11.385   5.649   8.650
59481SOL    HW280277  11.330   5.607   8.516
59482SOL     OW80278  11.566   4.485   2.329
59482SOL    HW180279  11.567   4.487   2.425
59482SOL    HW280280  11.657   4.472   2.304
59483SOL     OW80281  14.218   7.071   8.456
59483SOL    HW180282  14.271   6.997   8.488
59483SOL    HW280283  14.182   7.041   8.373
59484SOL     OW80284   6.886   5.982   6.985
59484SOL    HW180285   6.969   5.976   6.938
59484SOL    HW280286   6.900   5.932   7.065
59485SOL     OW80287  11.872  13.527   0.578
59485SOL    HW180288  11.900  13.459   0.638
59485SOL    HW280289  11.831  13.480   0.505
59486SOL     OW80290   4.727   2.324   1.933
59486SOL    HW180291   4.713   2.235   1.964
59486SOL    HW280292   4.771   2.313   1.848
59487SOL     OW80293   4.033  13.018   1.311
59487SOL    HW180294   3.977  13.095   1.313
59487SOL    HW280295   4.120  13.052   1.290
59488SOL     OW80296   7.803   2.840   8.901
59488SOL    HW180297   7.822   2.820   8.809
59488SOL    HW280298   7.884   2.879   8.935
59489SOL     OW80299  13.479   0.021   5.587
59489SOL    HW180300  13.504   0.113   5.594
59489SOL    HW280301  13.541  14.853   5.643
59490SOL     OW80302   4.055   5.755   8.701
59490SOL    HW180303   4.014   5.671   8.683
59490SOL    HW280304   4.137   5.753   8.651
59491SOL     OW80305   1.421   2.685   3.617
59491SOL    HW180306   1.461   2.598   3.613
59491SOL    HW280307   1.460   2.733   3.543
59492SOL     OW80308   6.998   2.935   6.631
59492SOL    HW180309   7.042   2.880   6.696
59492SOL    HW280310   7.040   3.020   6.639
59493SOL     OW80311   6.425   3.962  13.710
59493SOL    HW180312   6.337   3.971  13.746
59493SOL    HW280313   6.463   4.049  13.720
59494SOL     OW80314   3.900   4.986  10.949
59494SOL    HW180315   3.983   4.973  10.902
59494SOL    HW280316   3.924   4.985  11.041
59495SOL     OW80317   2.088   7.930  13.298
59495SOL    HW180318   2.069   7.973  13.382
59495SOL    HW280319   2.127   7.999  13.244
59496SOL     OW80320  13.973   3.361   9.996
59496SOL    HW180321  14.054   3.389  10.038
59496SOL    HW280322  13.913   3.434  10.008
59497SOL     OW80323   8.561   6.617  11.746
59497SOL    HW180324   8.650   6.605  11.714
59497SOL    HW280325   8.508   6.627  11.667
59498SOL     OW80326   2.895   6.963   1.669
59498SOL    HW180327   2.936   7.039   1.711
59498SOL    HW280328   2.902   6.981   1.575
59499SOL     OW80329  13.758   9.511   1.743
59499SOL    HW180330  13.850   9.522   1.765
59499SOL    HW280331  13.758   9.472   1.656
59500SOL     OW80332   8.448   7.245   2.736
59500SOL    HW180333   8.472   7.337   2.723
59500SOL    HW280334   8.357   7.248   2.766
59501SOL     OW80335   6.210   1.459   6.978
59501SOL    HW180336   6.195   1.488   7.067
59501SOL    HW280337   6.227   1.365   6.985
59502SOL     OW80338   4.520  10.590  14.506
59502SOL    HW180339   4.438  10.605  14.458
59502SOL    HW280340   4.497  10.601  14.598
59503SOL     OW80341   7.441   7.003   1.654
59503SOL    HW180342   7.382   6.968   1.720
59503SOL    HW280343   7.383   7.027   1.580
59504SOL     OW80344   8.837   6.210  12.702
59504SOL    HW180345   8.779   6.253  12.640
59504SOL    HW280346   8.799   6.231  12.788
59505SOL     OW80347  13.445  12.228   0.058
59505SOL    HW180348  13.539  12.211   0.067
59505SOL    HW280349  13.431  12.245  14.844
59506SOL     OW80350   8.158   4.991   8.660
59506SOL    HW180351   8.179   5.064   8.718
59506SOL    HW280352   8.243   4.953   8.637
59507SOL     OW80353  14.755  12.686   1.527
59507SOL    HW180354  14.837  12.638   1.522
59507SOL    HW280355  14.768  12.746   1.601
59508SOL     OW80356  12.818  10.406   5.410
59508SOL    HW180357  12.743  10.354   5.382
59508SOL    HW280358  12.870  10.347   5.465
59509SOL     OW80359  10.840  10.572  10.834
59509SOL    HW180360  10.827  10.651  10.887
59509SOL    HW280361  10.751  10.547  10.807
59510SOL     OW80362  13.970   2.612   1.032
59510SOL    HW180363  13.997   2.587   0.944
59510SOL    HW280364  13.886   2.567   1.044
59511SOL     OW80365   1.340  10.749   7.360
59511SOL    HW180366   1.248  10.762   7.335
59511SOL    HW280367   1.336  10.706   7.445
59512SOL     OW80368   3.567  10.360  14.413
59512SOL    HW180369   3.567  10.361  14.317
59512SOL    HW280370   3.526  10.277  14.436
59513SOL     OW80371   2.794   8.072   3.112
59513SOL    HW180372   2.756   7.989   3.141
59513SOL    HW280373   2.828   8.053   3.024
59514SOL     OW80374  10.416   4.884   9.394
59514SOL    HW180375  10.399   4.965   9.441
59514SOL    HW280376  10.477   4.836   9.450
59515SOL     OW80377   0.164   1.750  12.972
59515SOL    HW180378   0.110   1.827  12.953
59515SOL    HW280379   0.253   1.776  12.948
59516SOL     OW80380  11.720  11.687   6.790
59516SOL    HW180381  11.711  11.651   6.701
59516SOL    HW280382  11.631  11.710   6.816
59517SOL     OW80383  11.385  13.614   1.081
59517SOL    HW180384  11.384  13.659   0.997
59517SOL    HW280385  11.417  13.679   1.143
59518SOL     OW80386  12.186  12.033   2.427
59518SOL    HW180387  12.125  11.959   2.421
59518SOL    HW280388  12.132  12.107   2.453
59519SOL     OW80389   7.893   0.080   0.554
59519SOL    HW180390   7.967   0.107   0.608
59519SOL    HW280391   7.829   0.045   0.616
59520SOL     OW80392  13.584   0.464  13.081
59520SOL    HW180393  13.630   0.548  13.083
59520SOL    HW280394  13.647   0.403  13.043
59521SOL     OW80395   1.925   2.145  10.727
59521SOL    HW180396   1.974   2.216  10.768
59521SOL    HW280397   1.836   2.156  10.759
59522SOL     OW80398   3.855   4.675  13.790
59522SOL    HW180399   3.770   4.700  13.824
59522SOL    HW280400   3.916   4.689  13.863
59523SOL     OW80401  10.948   7.743   1.083
59523SOL    HW180402  10.951   7.816   1.146
59523SOL    HW280403  10.858   7.712   1.087
59524SOL     OW80404   5.873   4.302   0.414
59524SOL    HW180405   5.813   4.253   0.358
59524SOL    HW280406   5.817   4.362   0.463
59525SOL     OW80407  13.657  10.984   8.083
59525SOL    HW180408  13.686  11.029   8.163
59525SOL    HW280409  13.584  11.036   8.051
59526SOL     OW80410  11.049   0.572   4.085
59526SOL    HW180411  11.087   0.623   4.156
59526SOL    HW280412  11.008   0.497   4.129
59527SOL     OW80413   2.977   0.194   4.722
59527SOL    HW180414   2.926   0.172   4.644
59527SOL    HW280415   3.055   0.237   4.689
59528SOL     OW80416   9.250   1.495   4.806
59528SOL    HW180417   9.173   1.444   4.831
59528SOL    HW280418   9.256   1.562   4.874
59529SOL     OW80419  11.635   0.232  13.934
59529SOL    HW180420  11.696   0.176  13.982
59529SOL    HW280421  11.599   0.290  14.000
59530SOL     OW80422   0.653   0.932   8.714
59530SOL    HW180423   0.676   1.021   8.689
59530SOL    HW280424   0.581   0.908   8.657
59531SOL     OW80425   0.362   5.655   0.894
59531SOL    HW180426   0.430   5.711   0.932
59531SOL    HW280427   0.409   5.596   0.835
59532SOL     OW80428  14.374   7.027  10.763
59532SOL    HW180429  14.435   7.095  10.734
59532SOL    HW280430  14.384   7.025  10.858
59533SOL     OW80431   7.650   1.943   0.023
59533SOL    HW180432   7.701   1.976  14.829
59533SOL    HW280433   7.706   1.956   0.100
59534SOL     OW80434   3.822   4.421   9.428
59534SOL    HW180435   3.852   4.337   9.461
59534SOL    HW280436   3.881   4.441   9.355
59535SOL     OW80437   7.227  11.857   3.733
59535SOL    HW180438   7.241  11.769   3.768
59535SOL    HW280439   7.232  11.846   3.638
59536SOL     OW80440   5.765   0.837   1.471
59536SOL    HW180441   5.697   0.881   1.420
59536SOL    HW280442   5.737   0.848   1.562
59537SOL     OW80443   9.335  10.830  13.609
59537SOL    HW180444   9.263  10.822  13.546
59537SOL    HW280445   9.301  10.789  13.688
59538SOL     OW80446   7.270   1.288   3.750
59538SOL    HW180447   7.267   1.309   3.656
59538SOL    HW280448   7.199   1.225   3.762
59539SOL     OW80449  12.702  10.764   1.589
59539SOL    HW180450  12.787  10.772   1.547
59539SOL    HW280451  12.639  10.777   1.517
59540SOL     OW80452  10.454   6.286   3.477
59540SOL    HW180453  10.430   6.210   3.532
59540SOL    HW280454  10.478   6.247   3.393
59541SOL     OW80455  13.516   0.689   2.181
59541SOL    HW180456  13.453   0.682   2.252
59541SOL    HW280457  13.473   0.745   2.116
59542SOL     OW80458   3.589   9.257  11.484
59542SOL    HW180459   3.515   9.309  11.515
59542SOL    HW280460   3.552   9.170  11.469
59543SOL     OW80461  14.800  14.503  11.900
59543SOL    HW180462  14.854  14.458  11.835
59543SOL    HW280463  14.808  14.596  11.877
59544SOL     OW80464   3.685   2.044  11.348
59544SOL    HW180465   3.644   2.130  11.341
59544SOL    HW280466   3.768   2.060  11.394
59545SOL     OW80467  14.714   3.563  14.411
59545SOL    HW180468  14.732   3.657  14.419
59545SOL    HW280469  14.628   3.559  14.370
59546SOL     OW80470   1.884   2.011   0.692
59546SOL    HW180471   1.798   2.052   0.682
59546SOL    HW280472   1.891   1.950   0.619
59547SOL     OW80473   4.481   2.942   4.104
59547SOL    HW180474   4.528   2.988   4.173
59547SOL    HW280475   4.409   2.897   4.149
59548SOL     OW80476   2.145   0.761   8.168
59548SOL    HW180477   2.139   0.831   8.104
59548SOL    HW280478   2.216   0.786   8.226
59549SOL     OW80479   7.537   6.213  10.998
59549SOL    HW180480   7.561   6.211  10.905
59549SOL    HW280481   7.546   6.122  11.026
59550SOL     OW80482   8.717   6.178  13.856
59550SOL    HW180483   8.793   6.214  13.901
59550SOL    HW280484   8.715   6.086  13.882
59551SOL     OW80485   8.412   7.283   3.497
59551SOL    HW180486   8.345   7.224   3.532
59551SOL    HW280487   8.494   7.252   3.536
59552SOL     OW80488  11.512   0.232   9.121
59552SOL    HW180489  11.469   0.147   9.110
59552SOL    HW280490  11.594   0.224   9.073
59553SOL     OW80491   1.116  14.558  10.750
59553SOL    HW180492   1.188  14.540  10.690
59553SOL    HW280493   1.157  14.562  10.836
59554SOL     OW80494   7.138   2.573  10.821
59554SOL    HW180495   7.140   2.525  10.904
59554SOL    HW280496   7.198   2.646  10.835
59555SOL     OW80497  13.133  14.308  12.043
59555SOL    HW180498  13.048  14.330  12.081
59555SOL    HW280499  13.183  14.390  12.046
59556SOL     OW80500   6.452  11.026  11.826
59556SOL    HW180501   6.457  10.938  11.862
59556SOL    HW280502   6.543  11.050  11.807
59557SOL     OW80503  12.079  11.355   4.301
59557SOL    HW180504  12.147  11.392   4.358
59557SOL    HW280505  12.087  11.260   4.313
59558SOL     OW80506   2.210  10.018   9.316
59558SOL    HW180507   2.160   9.968   9.251
59558SOL    HW280508   2.174  10.107   9.310
59559SOL     OW80509   4.495  14.128  12.917
59559SOL    HW180510   4.476  14.103  12.827
59559SOL    HW280511   4.457  14.057  12.970
59560SOL     OW80512   4.076   3.882  10.581
59560SOL    HW180513   4.025   3.901  10.659
59560SOL    HW280514   4.138   3.954  10.574
59561SOL     OW80515  14.080   1.979   4.817
59561SOL    HW180516  14.151   1.940   4.766
59561SOL    HW280517  14.014   2.002   4.751
59562SOL     OW80518   4.536   4.330   5.497
59562SOL    HW180519   4.509   4.240   5.512
59562SOL    HW280520   4.631   4.325   5.485
59563SOL     OW80521  12.946   0.356   9.091
59563SOL    HW180522  13.032   0.396   9.076
59563SOL    HW280523  12.913   0.337   9.004
59564SOL     OW80524  12.409   9.994  11.228
59564SOL    HW180525  12.453   9.915  11.195
59564SOL    HW280526  12.426  10.060  11.162
59565SOL     OW80527   7.789  12.699   9.727
59565SOL    HW180528   7.831  12.733   9.806
59565SOL    HW280529   7.828  12.748   9.656
59566SOL     OW80530   6.671   3.545  11.210
59566SOL    HW180531   6.645   3.498  11.130
59566SOL    HW280532   6.611   3.619  11.214
59567SOL     OW80533   4.011   3.201   2.049
59567SOL    HW180534   4.008   3.210   1.953
59567SOL    HW280535   4.017   3.106   2.064
59568SOL     OW80536   5.559   7.340   2.060
59568SOL    HW180537   5.613   7.419   2.064
59568SOL    HW280538   5.602   7.278   2.118
59569SOL     OW80539  11.380   4.333   5.250
59569SOL    HW180540  11.439   4.259   5.242
59569SOL    HW280541  11.397   4.386   5.172
59570SOL     OW80542  11.045   6.205   5.498
59570SOL    HW180543  11.081   6.197   5.586
59570SOL    HW280544  10.965   6.255   5.509
59571SOL     OW80545   6.633   7.267   0.751
59571SOL    HW180546   6.685   7.333   0.704
59571SOL    HW280547   6.634   7.297   0.842
59572SOL     OW80548   5.884  14.186  13.779
59572SOL    HW180549   5.883  14.137  13.861
59572SOL    HW280550   5.881  14.119  13.711
59573SOL     OW80551  12.788   4.146  10.361
59573SOL    HW180552  12.820   4.234  10.343
59573SOL    HW280553  12.867   4.092  10.368
59574SOL     OW80554  10.787   4.728   2.575
59574SOL    HW180555  10.707   4.683   2.604
59574SOL    HW280556  10.805   4.693   2.488
59575SOL     OW80557   8.295   2.223   7.848
59575SOL    HW180558   8.230   2.242   7.915
59575SOL    HW280559   8.243   2.207   7.769
59576SOL     OW80560  12.073   8.168   3.132
59576SOL    HW180561  12.130   8.242   3.155
59576SOL    HW280562  12.028   8.147   3.214
59577SOL     OW80563  13.324   6.382   8.283
59577SOL    HW180564  13.259   6.415   8.221
59577SOL    HW280565  13.400   6.361   8.229
59578SOL     OW80566   9.065   6.786   6.421
59578SOL    HW180567   9.101   6.727   6.354
59578SOL    HW280568   9.046   6.729   6.496
59579SOL     OW80569   5.890  11.775   0.448
59579SOL    HW180570   5.847  11.723   0.380
59579SOL    HW280571   5.979  11.788   0.415
59580SOL     OW80572   5.448   6.091   5.538
59580SOL    HW180573   5.494   6.175   5.540
59580SOL    HW280574   5.400   6.093   5.455
59581SOL     OW80575   5.302  14.727   4.824
59581SOL    HW180576   5.224  14.781   4.816
59581SOL    HW280577   5.316  14.691   4.737
59582SOL     OW80578   2.568  14.541  13.883
59582SOL    HW180579   2.634  14.606  13.860
59582SOL    HW280580   2.586  14.520  13.975
59583SOL     OW80581  11.431   7.239   5.126
59583SOL    HW180582  11.371   7.306   5.092
59583SOL    HW280583  11.409   7.160   5.076
59584SOL     OW80584  10.537  13.163   8.002
59584SOL    HW180585  10.553  13.080   7.957
59584SOL    HW280586  10.456  13.149   8.051
59585SOL     OW80587   7.776   4.158  12.818
59585SOL    HW180588   7.750   4.142  12.727
59585SOL    HW280589   7.871   4.169  12.814
59586SOL     OW80590  13.072   6.255   0.662
59586SOL    HW180591  12.985   6.289   0.684
59586SOL    HW280592  13.074   6.256   0.566
59587SOL     OW80593   8.382   5.525   5.966
59587SOL    HW180594   8.470   5.526   5.928
59587SOL    HW280595   8.395   5.554   6.057
59588SOL     OW80596   0.952  10.934  10.401
59588SOL    HW180597   0.919  10.965  10.485
59588SOL    HW280598   0.881  10.951  10.339
59589SOL     OW80599   2.691   3.028   3.520
59589SOL    HW180600   2.655   3.104   3.475
59589SOL    HW280601   2.678   3.046   3.613
59590SOL     OW80602  13.256  13.030   2.135
59590SOL    HW180603  13.261  13.093   2.207
59590SOL    HW280604  13.295  12.950   2.171
59591SOL     OW80605   5.252   4.814   4.805
59591SOL    HW180606   5.258   4.721   4.824
59591SOL    HW280607   5.340   4.848   4.823
59592SOL     OW80608  13.028  10.633   8.223
59592SOL    HW180609  13.067  10.717   8.247
59592SOL    HW280610  13.063  10.571   8.287
59593SOL     OW80611  13.312  14.195   6.606
59593SOL    HW180612  13.336  14.116   6.557
59593SOL    HW280613  13.331  14.174   6.697
59594SOL     OW80614   5.822   6.293   2.905
59594SOL    HW180615   5.911   6.262   2.885
59594SOL    HW280616   5.765   6.237   2.853
59595SOL     OW80617   4.862   8.850   9.943
59595SOL    HW180618   4.774   8.830   9.974
59595SOL    HW280619   4.866   8.810   9.856
59596SOL     OW80620  13.584   6.080  10.299
59596SOL    HW180621  13.624   5.995  10.317
59596SOL    HW280622  13.610   6.100  10.209
59597SOL     OW80623   2.015   7.576   1.753
59597SOL    HW180624   2.004   7.604   1.843
59597SOL    HW280625   1.962   7.637   1.702
59598SOL     OW80626  13.957  10.104  11.657
59598SOL    HW180627  13.965  10.187  11.610
59598SOL    HW280628  13.881  10.117  11.714
59599SOL     OW80629   6.975   9.902  13.075
59599SOL    HW180630   6.884   9.888  13.050
59599SOL    HW280631   6.971   9.976  13.137
59600SOL     OW80632  13.830   5.138  10.450
59600SOL    HW180633  13.742   5.129  10.484
59600SOL    HW280634  13.854   5.229  10.468
59601SOL     OW80635   7.484   8.463   0.007
59601SOL    HW180636   7.559   8.485  14.830
59601SOL    HW280637   7.515   8.393   0.064
59602SOL     OW80638   3.650   1.928  10.641
59602SOL    HW180639   3.643   1.955  10.549
59602SOL    HW280640   3.682   1.837  10.637
59603SOL     OW80641   9.649   3.425   4.604
59603SOL    HW180642   9.696   3.342   4.616
59603SOL    HW280643   9.718   3.492   4.606
59604SOL     OW80644   0.327   3.680   5.428
59604SOL    HW180645   0.274   3.700   5.506
59604SOL    HW280646   0.308   3.752   5.368
59605SOL     OW80647  11.813   4.924  10.209
59605SOL    HW180648  11.768   4.865  10.147
59605SOL    HW280649  11.768   5.008  10.199
59606SOL     OW80650   2.832   3.091  10.773
59606SOL    HW180651   2.857   3.157  10.709
59606SOL    HW280652   2.748   3.121  10.807
59607SOL     OW80653   5.134   2.347  11.398
59607SOL    HW180654   5.150   2.382  11.486
59607SOL    HW280655   5.218   2.358  11.352
59608SOL     OW80656   1.428   0.305  11.969
59608SOL    HW180657   1.418   0.221  11.923
59608SOL    HW280658   1.522   0.320  11.973
59609SOL     OW80659  11.392   1.102   4.766
59609SOL    HW180660  11.449   1.158   4.819
59609SOL    HW280661  11.315   1.156   4.749
59610SOL     OW80662  12.341   5.049   0.704
59610SOL    HW180663  12.250   5.062   0.732
59610SOL    HW280664  12.389   5.032   0.785
59611SOL     OW80665   9.155   0.775  12.546
59611SOL    HW180666   9.244   0.770  12.510
59611SOL    HW280667   9.157   0.852  12.604
59612SOL     OW80668   5.732   3.603   5.990
59612SOL    HW180669   5.681   3.635   6.065
59612SOL    HW280670   5.822   3.629   6.010
59613SOL     OW80671   8.655   1.917   5.604
59613SOL    HW180672   8.657   1.887   5.514
59613SOL    HW280673   8.600   1.995   5.602
59614SOL     OW80674  12.513  14.873   2.132
59614SOL    HW180675  12.551  14.785   2.133
59614SOL    HW280676  12.586   0.052   2.153
59615SOL     OW80677   0.794  10.652   1.247
59615SOL    HW180678   0.886  10.627   1.232
59615SOL    HW280679   0.746  10.614   1.174
59616SOL     OW80680   2.725   4.563  11.540
59616SOL    HW180681   2.789   4.496  11.516
59616SOL    HW280682   2.677   4.525  11.613
59617SOL     OW80683   3.909   3.764   6.092
59617SOL    HW180684   3.946   3.742   6.178
59617SOL    HW280685   3.916   3.860   6.087
59618SOL     OW80686  10.120  12.620  12.728
59618SOL    HW180687  10.121  12.538  12.680
59618SOL    HW280688  10.068  12.680  12.675
59619SOL     OW80689   3.254   4.020   8.736
59619SOL    HW180690   3.255   3.939   8.788
59619SOL    HW280691   3.343   4.055   8.745
59620SOL     OW80692   5.844   1.153  11.574
59620SOL    HW180693   5.938   1.149  11.592
59620SOL    HW280694   5.838   1.166  11.480
59621SOL     OW80695  13.968   0.506   7.755
59621SOL    HW180696  13.902   0.515   7.824
59621SOL    HW280697  13.956   0.417   7.722
59622SOL     OW80698  11.368  14.385   0.341
59622SOL    HW180699  11.283  14.366   0.381
59622SOL    HW280700  11.389  14.474   0.370
59623SOL     OW80701   2.627  14.255   4.595
59623SOL    HW180702   2.716  14.220   4.595
59623SOL    HW280703   2.597  14.244   4.685
59624SOL     OW80704   4.455   1.548   2.239
59624SOL    HW180705   4.420   1.462   2.214
59624SOL    HW280706   4.532   1.559   2.183
59625SOL     OW80707   1.395   1.465   0.562
59625SOL    HW180708   1.439   1.526   0.621
59625SOL    HW280709   1.332   1.519   0.514
59626SOL     OW80710   8.322   5.260   3.483
59626SOL    HW180711   8.334   5.337   3.537
59626SOL    HW280712   8.356   5.285   3.397
59627SOL     OW80713  14.791  10.926   1.005
59627SOL    HW180714  14.768  10.965   1.089
59627SOL    HW280715  14.855  10.986   0.967
59628SOL     OW80716   3.176  14.188   9.559
59628SOL    HW180717   3.230  14.168   9.635
59628SOL    HW280718   3.089  14.205   9.595
59629SOL     OW80719   7.086  10.863  10.820
59629SOL    HW180720   7.178  10.843  10.805
59629SOL    HW280721   7.083  10.958  10.825
59630SOL     OW80722  11.489   6.236   9.600
59630SOL    HW180723  11.484   6.153   9.552
59630SOL    HW280724  11.398   6.256   9.621
59631SOL     OW80725  10.210   5.585   8.125
59631SOL    HW180726  10.265   5.654   8.088
59631SOL    HW280727  10.121   5.620   8.124
59632SOL     OW80728   9.254   5.064   7.929
59632SOL    HW180729   9.314   5.030   7.863
59632SOL    HW280730   9.303   5.058   8.011
59633SOL     OW80731   1.369   2.142   3.970
59633SOL    HW180732   1.291   2.088   3.981
59633SOL    HW280733   1.427   2.090   3.916
59634SOL     OW80734   3.343   4.495   1.068
59634SOL    HW180735   3.384   4.485   0.982
59634SOL    HW280736   3.330   4.589   1.078
59635SOL     OW80737  13.403   8.558   8.040
59635SOL    HW180738  13.308   8.543   8.041
59635SOL    HW280739  13.433   8.521   8.123
59636SOL     OW80740   4.619   5.253  14.327
59636SOL    HW180741   4.581   5.224  14.410
59636SOL    HW280742   4.544   5.270  14.270
59637SOL     OW80743   1.459   3.393  13.180
59637SOL    HW180744   1.546   3.421  13.151
59637SOL    HW280745   1.441   3.314  13.129
59638SOL     OW80746  11.662   0.636   5.841
59638SOL    HW180747  11.600   0.709   5.845
59638SOL    HW280748  11.737   0.671   5.793
59639SOL     OW80749  13.675  10.587  12.932
59639SOL    HW180750  13.623  10.573  12.853
59639SOL    HW280751  13.694  10.681  12.930
59640SOL     OW80752  13.082   8.004  12.277
59640SOL    HW180753  13.159   8.052  12.244
59640SOL    HW280754  13.117   7.948  12.346
59641SOL     OW80755   1.846   6.934   9.517
59641SOL    HW180756   1.831   6.910   9.425
59641SOL    HW280757   1.812   6.860   9.567
59642SOL     OW80758   0.929   0.819  12.950
59642SOL    HW180759   0.835   0.836  12.953
59642SOL    HW280760   0.964   0.866  13.026
59643SOL     OW80761   7.129   0.360  10.964
59643SOL    HW180762   7.154   0.269  10.979
59643SOL    HW280763   7.108   0.365  10.871
59644SOL     OW80764   8.185   2.935   0.901
59644SOL    HW180765   8.153   2.934   0.992
59644SOL    HW280766   8.105   2.938   0.848
59645SOL     OW80767   4.799  14.865   8.984
59645SOL    HW180768   4.774   0.077   8.970
59645SOL    HW280769   4.740  14.833   9.052
59646SOL     OW80770   7.018  11.224  14.152
59646SOL    HW180771   7.001  11.290  14.085
59646SOL    HW280772   6.934  11.212  14.196
59647SOL     OW80773   4.684   9.916   1.006
59647SOL    HW180774   4.739   9.845   1.039
59647SOL    HW280775   4.731   9.949   0.929
59648SOL     OW80776   2.536   8.632   5.078
59648SOL    HW180777   2.629   8.610   5.077
59648SOL    HW280778   2.497   8.571   5.140
59649SOL     OW80779   9.769   4.569   7.356
59649SOL    HW180780   9.732   4.565   7.444
59649SOL    HW280781   9.834   4.639   7.361
59650SOL     OW80782   5.483  13.498   8.026
59650SOL    HW180783   5.418  13.474   8.093
59650SOL    HW280784   5.490  13.593   8.033
59651SOL     OW80785   3.855   3.682   2.621
59651SOL    HW180786   3.865   3.634   2.704
59651SOL    HW280787   3.760   3.688   2.608
59652SOL     OW80788   4.323   1.064  12.456
59652SOL    HW180789   4.319   0.974  12.424
59652SOL    HW280790   4.408   1.097  12.425
59653SOL     OW80791   4.959   2.836  14.584
59653SOL    HW180792   4.963   2.882  14.500
59653SOL    HW280793   5.041   2.859  14.628
59654SOL     OW80794  14.693   3.805   1.552
59654SOL    HW180795  14.775   3.759   1.535
59654SOL    HW280796  14.719   3.895   1.572
59655SOL     OW80797   2.969   2.289  11.174
59655SOL    HW180798   2.982   2.291  11.079
59655SOL    HW280799   2.883   2.250  11.186
59656SOL     OW80800   8.715  13.899  11.968
59656SOL    HW180801   8.713  13.989  11.934
59656SOL    HW280802   8.710  13.909  12.063
59657SOL     OW80803   8.841   0.052  13.914
59657SOL    HW180804   8.861  14.873  13.988
59657SOL    HW280805   8.800   0.128  13.955
59658SOL     OW80806   4.568   2.707   5.816
59658SOL    HW180807   4.496   2.767   5.796
59658SOL    HW280808   4.600   2.680   5.730
59659SOL     OW80809   4.674   2.818   7.303
59659SOL    HW180810   4.751   2.856   7.345
59659SOL    HW280811   4.662   2.734   7.347
59660SOL     OW80812   4.511  11.313   6.550
59660SOL    HW180813   4.433  11.265   6.524
59660SOL    HW280814   4.580  11.247   6.554
59661SOL     OW80815   7.290   1.071   8.333
59661SOL    HW180816   7.381   1.099   8.342
59661SOL    HW280817   7.286   0.987   8.377
59662SOL     OW80818  11.332  11.357   6.402
59662SOL    HW180819  11.240  11.370   6.425
59662SOL    HW280820  11.374  11.329   6.483
59663SOL     OW80821   2.310   8.877   4.800
59663SOL    HW180822   2.259   8.942   4.750
59663SOL    HW280823   2.271   8.793   4.776
59664SOL     OW80824   4.863  12.111   6.854
59664SOL    HW180825   4.768  12.109   6.855
59664SOL    HW280826   4.888  12.043   6.792
59665SOL     OW80827   5.315   2.439   0.593
59665SOL    HW180828   5.332   2.533   0.606
59665SOL    HW280829   5.317   2.402   0.681
59666SOL     OW80830  13.002   1.246   0.114
59666SOL    HW180831  12.930   1.286   0.066
59666SOL    HW280832  13.020   1.308   0.186
59667SOL     OW80833   8.572   2.089   1.194
59667SOL    HW180834   8.597   2.095   1.286
59667SOL    HW280835   8.654   2.094   1.146
59668SOL     OW80836  13.600   5.269   0.666
59668SOL    HW180837  13.646   5.261   0.582
59668SOL    HW280838  13.593   5.179   0.698
59669SOL     OW80839   9.548  13.149  11.074
59669SOL    HW180840   9.486  13.221  11.081
59669SOL    HW280841   9.624  13.186  11.030
59670SOL     OW80842   0.953   8.301  10.129
59670SOL    HW180843   0.922   8.212  10.145
59670SOL    HW280844   0.896   8.334  10.059
59671SOL     OW80845   8.431   6.757   3.551
59671SOL    HW180846   8.474   6.742   3.635
59671SOL    HW280847   8.488   6.713   3.487
59672SOL     OW80848   0.749   8.481   5.805
59672SOL    HW180849   0.658   8.511   5.809
59672SOL    HW280850   0.801   8.560   5.818
59673SOL     OW80851   8.645   8.294  12.145
59673SOL    HW180852   8.552   8.291  12.122
59673SOL    HW280853   8.687   8.331  12.067
59674SOL     OW80854  12.825  13.399  10.208
59674SOL    HW180855  12.819  13.345  10.287
59674SOL    HW280856  12.760  13.469  10.222
59675SOL     OW80857   4.747   8.329   1.463
59675SOL    HW180858   4.758   8.265   1.393
59675SOL    HW280859   4.654   8.351   1.462
59676SOL     OW80860   7.740   1.940   2.366
59676SOL    HW180861   7.732   1.844   2.363
59676SOL    HW280862   7.741   1.967   2.275
59677SOL     OW80863   9.943   6.073   0.189
59677SOL    HW180864   9.847   6.070   0.179
59677SOL    HW280865   9.970   5.981   0.187
59678SOL     OW80866   2.622   4.029   4.408
59678SOL    HW180867   2.551   4.086   4.379
59678SOL    HW280868   2.698   4.057   4.357
59679SOL     OW80869   8.175  13.793  13.049
59679SOL    HW180870   8.112  13.744  13.101
59679SOL    HW280871   8.134  13.800  12.963
59680SOL     OW80872  14.101   3.579   5.058
59680SOL    HW180873  14.102   3.673   5.037
59680SOL    HW280874  14.186   3.562   5.098
59681SOL     OW80875   3.836  12.767  11.305
59681SOL    HW180876   3.758  12.761  11.359
59681SOL    HW280877   3.895  12.699  11.340
59682SOL     OW80878   3.194   8.446  10.397
59682SOL    HW180879   3.277   8.406  10.372
59682SOL    HW280880   3.138   8.372  10.422
59683SOL     OW80881   0.639  13.080  10.562
59683SOL    HW180882   0.631  13.085  10.658
59683SOL    HW280883   0.724  13.120  10.543
59684SOL     OW80884  12.546   2.827   7.414
59684SOL    HW180885  12.542   2.912   7.457
59684SOL    HW280886  12.480   2.831   7.345
59685SOL     OW80887  13.659   1.712  10.430
59685SOL    HW180888  13.751   1.728  10.450
59685SOL    HW280889  13.655   1.708  10.335
59686SOL     OW80890   9.682   0.420  14.736
59686SOL    HW180891   9.724   0.506  14.741
59686SOL    HW280892   9.638   0.420  14.651
59687SOL     OW80893  10.964  12.104  11.815
59687SOL    HW180894  10.977  12.081  11.723
59687SOL    HW280895  10.997  12.194  11.822
59688SOL     OW80896  11.238   1.979   6.841
59688SOL    HW180897  11.275   2.066   6.853
59688SOL    HW280898  11.227   1.970   6.747
59689SOL     OW80899   6.622   2.231   3.227
59689SOL    HW180900   6.708   2.189   3.236
59689SOL    HW280901   6.604   2.228   3.133
59690SOL     OW80902   4.921  12.176  11.504
59690SOL    HW180903   4.861  12.166  11.430
59690SOL    HW280904   4.950  12.086  11.522
59691SOL     OW80905  10.258   0.553   5.117
59691SOL    HW180906  10.268   0.462   5.091
59691SOL    HW280907  10.340   0.574   5.163
59692SOL     OW80908   2.774   7.733   1.453
59692SOL    HW180909   2.695   7.690   1.486
59692SOL    HW280910   2.840   7.719   1.522
59693SOL     OW80911   4.508   8.502   9.514
59693SOL    HW180912   4.534   8.468   9.428
59693SOL    HW280913   4.473   8.589   9.496
59694SOL     OW80914   3.231   3.214   5.185
59694SOL    HW180915   3.219   3.195   5.278
59694SOL    HW280916   3.206   3.306   5.176
59695SOL     OW80917  11.158   1.495   0.673
59695SOL    HW180918  11.187   1.570   0.621
59695SOL    HW280919  11.103   1.533   0.742
59696SOL     OW80920  13.974   3.362   4.936
59696SOL    HW180921  13.894   3.340   4.983
59696SOL    HW280922  14.016   3.429   4.991
59697SOL     OW80923   6.235   7.312   6.057
59697SOL    HW180924   6.297   7.383   6.071
59697SOL    HW280925   6.255   7.248   6.126
59698SOL     OW80926  13.840  14.684  14.112
59698SOL    HW180927  13.817  14.636  14.192
59698SOL    HW280928  13.801  14.633  14.042
59699SOL     OW80929   6.576   6.976  10.249
59699SOL    HW180930   6.540   7.012  10.167
59699SOL    HW280931   6.645   6.916  10.221
59700SOL     OW80932   6.546  10.555   2.559
59700SOL    HW180933   6.462  10.591   2.587
59700SOL    HW280934   6.610  10.592   2.620
59701SOL     OW80935   6.029   3.582   0.890
59701SOL    HW180936   6.116   3.584   0.931
59701SOL    HW280937   5.974   3.635   0.947
59702SOL     OW80938   9.164   7.363   3.002
59702SOL    HW180939   9.187   7.297   3.068
59702SOL    HW280940   9.102   7.420   3.047
59703SOL     OW80941  12.338  10.841   3.660
59703SOL    HW180942  12.401  10.862   3.591
59703SOL    HW280943  12.392  10.829   3.738
59704SOL     OW80944  14.229   6.884   6.021
59704SOL    HW180945  14.320   6.901   5.997
59704SOL    HW280946  14.228   6.886   6.117
59705SOL     OW80947  14.543   4.258   7.786
59705SOL    HW180948  14.614   4.276   7.848
59705SOL    HW280949  14.581   4.277   7.700
59706SOL     OW80950   9.612  12.476   4.300
59706SOL    HW180951   9.681  12.435   4.353
59706SOL    HW280952   9.633  12.569   4.303
59707SOL     OW80953  11.217   5.748   6.877
59707SOL    HW180954  11.140   5.691   6.880
59707SOL    HW280955  11.234   5.771   6.968
59708SOL     OW80956   2.090   8.103   0.837
59708SOL    HW180957   2.072   8.117   0.930
59708SOL    HW280958   2.184   8.086   0.832
59709SOL     OW80959   7.103   0.426   2.457
59709SOL    HW180960   7.185   0.423   2.408
59709SOL    HW280961   7.036   0.445   2.391
59710SOL     OW80962   9.583  12.077   2.583
59710SOL    HW180963   9.656  12.024   2.549
59710SOL    HW280964   9.616  12.113   2.665
59711SOL     OW80965   2.694   5.493  10.645
59711SOL    HW180966   2.767   5.435  10.625
59711SOL    HW280967   2.689   5.553  10.570
59712SOL     OW80968   1.577   0.785   4.223
59712SOL    HW180969   1.495   0.742   4.199
59712SOL    HW280970   1.585   0.770   4.317
59713SOL     OW80971   5.010   7.289   1.051
59713SOL    HW180972   4.923   7.325   1.071
59713SOL    HW280973   5.068   7.330   1.116
59714SOL     OW80974  13.376   7.375   4.639
59714SOL    HW180975  13.417   7.308   4.584
59714SOL    HW280976  13.337   7.325   4.712
59715SOL     OW80977  10.737   0.441  14.828
59715SOL    HW180978  10.776   0.485   0.024
59715SOL    HW280979  10.807   0.383  14.796
59716SOL     OW80980   4.322   1.145  11.431
59716SOL    HW180981   4.298   1.053  11.435
59716SOL    HW280982   4.239   1.191  11.418
59717SOL     OW80983  14.647   1.158   5.608
59717SOL    HW180984  14.596   1.207   5.543
59717SOL    HW280985  14.668   1.223   5.676
59718SOL     OW80986  14.002   5.784  10.114
59718SOL    HW180987  13.940   5.739  10.056
59718SOL    HW280988  14.076   5.805  10.058
59719SOL     OW80989   4.801   6.436   4.713
59719SOL    HW180990   4.876   6.468   4.763
59719SOL    HW280991   4.772   6.512   4.662
59720SOL     OW80992  10.708  12.626  10.145
59720SOL    HW180993  10.744  12.623  10.233
59720SOL    HW280994  10.742  12.707  10.107
59721SOL     OW80995   3.173   0.417  11.759
59721SOL    HW180996   3.108   0.439  11.693
59721SOL    HW280997   3.257   0.441  11.719
59722SOL     OW80998   5.150   3.718   5.489
59722SOL    HW180999   5.094   3.723   5.567
59722SOL    HW281000   5.229   3.673   5.520
59723SOL     OW81001  11.104  10.431   9.118
59723SOL    HW181002  11.145  10.346   9.110
59723SOL    HW281003  11.040  10.420   9.188
59724SOL     OW81004  11.628   8.317  13.029
59724SOL    HW181005  11.700   8.379  13.019
59724SOL    HW281006  11.656   8.240  12.979
59725SOL     OW81007   7.279   3.022   3.046
59725SOL    HW181008   7.334   3.085   2.998
59725SOL    HW281009   7.242   2.966   2.978
59726SOL     OW81010  12.857  12.931  13.627
59726SOL    HW181011  12.798  12.873  13.675
59726SOL    HW281012  12.942  12.886  13.630
59727SOL     OW81013   1.114   5.536   7.255
59727SOL    HW181014   1.025   5.511   7.282
59727SOL    HW281015   1.109   5.631   7.242
59728SOL     OW81016  14.615  14.098  13.614
59728SOL    HW181017  14.668  14.159  13.666
59728SOL    HW281018  14.656  14.100  13.527
59729SOL     OW81019   0.629   4.221   3.941
59729SOL    HW181020   0.604   4.312   3.930
59729SOL    HW281021   0.557   4.171   3.903
59730SOL     OW81022   5.173  11.109  12.308
59730SOL    HW181023   5.210  11.077  12.226
59730SOL    HW281024   5.229  11.070  12.376
59731SOL     OW81025   8.732   0.159   5.964
59731SOL    HW181026   8.819   0.120   5.962
59731SOL    HW281027   8.740   0.232   6.026
59732SOL     OW81028   3.079   6.728  10.784
59732SOL    HW181029   3.110   6.656  10.730
59732SOL    HW281030   3.059   6.798  10.722
59733SOL     OW81031   1.527   6.974  10.954
59733SOL    HW181032   1.547   6.963  11.047
59733SOL    HW281033   1.613   6.982  10.912
59734SOL     OW81034  11.561   9.539   7.401
59734SOL    HW181035  11.502   9.505   7.469
59734SOL    HW281036  11.525   9.625   7.379
59735SOL     OW81037   3.349  11.043   2.893
59735SOL    HW181038   3.375  11.134   2.904
59735SOL    HW281039   3.406  11.009   2.823
59736SOL     OW81040   7.376  13.654   9.599
59736SOL    HW181041   7.413  13.725   9.653
59736SOL    HW281042   7.306  13.618   9.653
59737SOL     OW81043  10.737   7.945   4.950
59737SOL    HW181044  10.644   7.938   4.929
59737SOL    HW281045  10.763   7.855   4.973
59738SOL     OW81046  10.014  12.979   6.368
59738SOL    HW181047  10.034  13.051   6.427
59738SOL    HW281048   9.964  12.917   6.421
59739SOL     OW81049  14.224   2.832   4.878
59739SOL    HW181050  14.296   2.895   4.867
59739SOL    HW281051  14.267   2.746   4.879
59740SOL     OW81052   6.897   5.206  12.580
59740SOL    HW181053   6.887   5.158  12.662
59740SOL    HW281054   6.985   5.184  12.550
59741SOL     OW81055   6.731   5.215  11.312
59741SOL    HW181056   6.791   5.282  11.280
59741SOL    HW281057   6.787   5.139  11.328
59742SOL     OW81058   8.377   8.135  10.478
59742SOL    HW181059   8.373   8.039  10.475
59742SOL    HW281060   8.383   8.157  10.571
59743SOL     OW81061   5.105   6.279   6.778
59743SOL    HW181062   5.124   6.364   6.818
59743SOL    HW281063   5.129   6.290   6.686
59744SOL     OW81064  14.222   2.329   2.987
59744SOL    HW181065  14.145   2.385   2.981
59744SOL    HW281066  14.216   2.289   3.073
59745SOL     OW81067   4.888  10.330   1.453
59745SOL    HW181068   4.795  10.310   1.441
59745SOL    HW281069   4.934  10.265   1.401
59746SOL     OW81070  14.031   6.625   3.675
59746SOL    HW181071  13.986   6.678   3.740
59746SOL    HW281072  14.069   6.553   3.726
59747SOL     OW81073  12.451  14.009   6.826
59747SOL    HW181074  12.426  13.961   6.905
59747SOL    HW281075  12.460  14.100   6.855
59748SOL     OW81076  11.470  10.447  12.354
59748SOL    HW181077  11.489  10.428  12.446
59748SOL    HW281078  11.542  10.406  12.306
59749SOL     OW81079  12.925  14.180  11.525
59749SOL    HW181080  12.854  14.213  11.471
59749SOL    HW281081  12.881  14.140  11.600
59750SOL     OW81082  10.689   6.630   3.715
59750SOL    HW181083  10.746   6.605   3.788
59750SOL    HW281084  10.742   6.691   3.663
59751SOL     OW81085  14.706   5.072   8.709
59751SOL    HW181086  14.642   5.044   8.644
59751SOL    HW281087  14.659   5.134   8.765
59752SOL     OW81088   3.354   0.706   5.165
59752SOL    HW181089   3.392   0.619   5.173
59752SOL    HW281090   3.375   0.734   5.076
59753SOL     OW81091   7.239   3.412   8.976
59753SOL    HW181092   7.329   3.443   8.968
59753SOL    HW281093   7.187   3.478   8.930
59754SOL     OW81094   9.124  12.453  13.458
59754SOL    HW181095   9.107  12.546  13.469
59754SOL    HW281096   9.091  12.432  13.370
59755SOL     OW81097   2.732   2.545   9.870
59755SOL    HW181098   2.689   2.498   9.798
59755SOL    HW281099   2.660   2.570   9.928
59756SOL     OW81100  10.858  13.821   2.149
59756SOL    HW181101  10.872  13.795   2.240
59756SOL    HW281102  10.946  13.843   2.117
59757SOL     OW81103  10.875   0.386   5.740
59757SOL    HW181104  10.907   0.476   5.732
59757SOL    HW281105  10.865   0.356   5.650
59758SOL     OW81106   1.496   8.476   2.687
59758SOL    HW181107   1.582   8.444   2.713
59758SOL    HW281108   1.442   8.398   2.679
59759SOL     OW81109   7.369   6.171   1.072
59759SOL    HW181110   7.319   6.121   1.008
59759SOL    HW281111   7.400   6.106   1.135
59760SOL     OW81112   9.109   7.118  12.078
59760SOL    HW181113   9.141   7.067  12.004
59760SOL    HW281114   9.188   7.134  12.131
59761SOL     OW81115   2.452  13.859   1.536
59761SOL    HW181116   2.426  13.847   1.627
59761SOL    HW281117   2.376  13.899   1.494
59762SOL     OW81118   7.741   8.664   1.402
59762SOL    HW181119   7.770   8.733   1.342
59762SOL    HW281120   7.809   8.597   1.397
59763SOL     OW81121  10.649   4.414   2.379
59763SOL    HW181122  10.647   4.352   2.307
59763SOL    HW281123  10.716   4.477   2.355
59764SOL     OW81124   7.416  10.673  11.504
59764SOL    HW181125   7.451  10.720  11.428
59764SOL    HW281126   7.325  10.656  11.483
59765SOL     OW81127  12.657   7.459   8.423
59765SOL    HW181128  12.578   7.420   8.387
59765SOL    HW281129  12.720   7.458   8.351
59766SOL     OW81130   7.509  12.376   0.923
59766SOL    HW181131   7.479  12.399   0.834
59766SOL    HW281132   7.461  12.296   0.944
59767SOL     OW81133   5.172   6.877   9.220
59767SOL    HW181134   5.122   6.940   9.170
59767SOL    HW281135   5.263   6.906   9.213
59768SOL     OW81136   4.720   3.025   3.899
59768SOL    HW181137   4.649   3.019   3.963
59768SOL    HW281138   4.710   2.947   3.845
59769SOL     OW81139   9.524   1.947   4.321
59769SOL    HW181140   9.525   2.017   4.387
59769SOL    HW281141   9.431   1.927   4.309
59770SOL     OW81142   5.714   0.178   8.713
59770SOL    HW181143   5.725   0.085   8.729
59770SOL    HW281144   5.773   0.221   8.775
59771SOL     OW81145  13.717   5.890   3.051
59771SOL    HW181146  13.695   5.894   3.144
59771SOL    HW281147  13.686   5.804   3.022
59772SOL     OW81148   8.883   7.565   8.274
59772SOL    HW181149   8.886   7.629   8.203
59772SOL    HW281150   8.791   7.563   8.300
59773SOL     OW81151   4.202   4.998  11.591
59773SOL    HW181152   4.189   4.961  11.679
59773SOL    HW281153   4.265   5.069  11.604
59774SOL     OW81154  11.088   7.199   6.795
59774SOL    HW181155  11.118   7.114   6.828
59774SOL    HW281156  11.164   7.256   6.804
59775SOL     OW81157  12.577  10.344   4.265
59775SOL    HW181158  12.644  10.293   4.311
59775SOL    HW281159  12.527  10.386   4.334
59776SOL     OW81160   1.636  13.301  14.779
59776SOL    HW181161   1.642  13.230  14.843
59776SOL    HW281162   1.721  13.302  14.736
59777SOL     OW81163   3.369  11.624   9.749
59777SOL    HW181164   3.309  11.588   9.683
59777SOL    HW281165   3.412  11.698   9.705
59778SOL     OW81166   2.113  11.309  11.664
59778SOL    HW181167   2.079  11.254  11.594
59778SOL    HW281168   2.152  11.385  11.620
59779SOL     OW81169   0.181   6.715  12.915
59779SOL    HW181170   0.119   6.776  12.874
59779SOL    HW281171   0.248   6.701  12.848
59780SOL     OW81172  14.007  14.028   0.326
59780SOL    HW181173  13.973  14.042   0.414
59780SOL    HW281174  13.978  13.940   0.303
59781SOL     OW81175   2.591  12.441   7.855
59781SOL    HW181176   2.557  12.497   7.785
59781SOL    HW281177   2.685  12.460   7.857
59782SOL     OW81178   1.619   5.439  13.177
59782SOL    HW181179   1.687   5.372  13.186
59782SOL    HW281180   1.586   5.428  13.088
59783SOL     OW81181   6.671   0.621  10.182
59783SOL    HW181182   6.754   0.576  10.168
59783SOL    HW281183   6.645   0.597  10.271
59784SOL     OW81184   1.619  12.869   3.760
59784SOL    HW181185   1.684  12.824   3.814
59784SOL    HW281186   1.574  12.799   3.713
59785SOL     OW81187  14.077   5.835   0.791
59785SOL    HW181188  14.158   5.877   0.763
59785SOL    HW281189  14.010   5.867   0.730
59786SOL     OW81190  12.211   2.340   5.922
59786SOL    HW181191  12.251   2.329   6.008
59786SOL    HW281192  12.270   2.294   5.862
59787SOL     OW81193   1.206   9.893  14.740
59787SOL    HW181194   1.133   9.954  14.729
59787SOL    HW281195   1.167   9.818  14.785
59788SOL     OW81196  13.719  11.492   3.104
59788SOL    HW181197  13.631  11.466   3.078
59788SOL    HW281198  13.732  11.453   3.190
59789SOL     OW81199   5.627  10.803  10.805
59789SOL    HW181200   5.637  10.869  10.736
59789SOL    HW281201   5.546  10.826  10.849
59790SOL     OW81202   6.782   0.288  12.719
59790SOL    HW181203   6.767   0.376  12.684
59790SOL    HW281204   6.853   0.298  12.782
59791SOL     OW81205   3.214   3.505   1.297
59791SOL    HW181206   3.159   3.538   1.226
59791SOL    HW281207   3.164   3.523   1.377
59792SOL     OW81208   9.530   0.425   8.956
59792SOL    HW181209   9.527   0.482   8.879
59792SOL    HW281210   9.494   0.479   9.027
59793SOL     OW81211   1.753  14.298   2.040
59793SOL    HW181212   1.669  14.254   2.030
59793SOL    HW281213   1.730  14.389   2.059
59794SOL     OW81214  14.363   4.687   2.933
59794SOL    HW181215  14.323   4.609   2.972
59794SOL    HW281216  14.407   4.655   2.854
59795SOL     OW81217   7.728   1.644   9.242
59795SOL    HW181218   7.637   1.672   9.252
59795SOL    HW281219   7.779   1.724   9.251
59796SOL     OW81220  14.080   9.023   7.998
59796SOL    HW181221  14.017   9.036   7.928
59796SOL    HW281222  14.138   9.099   7.992
59797SOL     OW81223  13.470  13.350   6.142
59797SOL    HW181224  13.479  13.307   6.057
59797SOL    HW281225  13.381  13.384   6.142
59798SOL     OW81226  10.342   2.521   5.345
59798SOL    HW181227  10.396   2.574   5.405
59798SOL    HW281228  10.270   2.579   5.321
59799SOL     OW81229   0.191  11.794   6.012
59799SOL    HW181230   0.151  11.861   5.957
59799SOL    HW281231   0.272  11.834   6.044
59800SOL     OW81232   1.114  12.411  14.456
59800SOL    HW181233   1.203  12.414  14.490
59800SOL    HW281234   1.114  12.473  14.383
59801SOL     OW81235   6.218   8.127   8.328
59801SOL    HW181236   6.238   8.146   8.236
59801SOL    HW281237   6.281   8.059   8.352
59802SOL     OW81238   2.291   6.367   3.437
59802SOL    HW181239   2.312   6.288   3.388
59802SOL    HW281240   2.196   6.374   3.434
59803SOL     OW81241  13.220   0.545  13.907
59803SOL    HW181242  13.148   0.494  13.870
59803SOL    HW281243  13.232   0.509  13.995
59804SOL     OW81244   8.237   8.523   2.799
59804SOL    HW181245   8.270   8.448   2.848
59804SOL    HW281246   8.214   8.488   2.713
59805SOL     OW81247   2.687  14.245  11.424
59805SOL    HW181248   2.699  14.254  11.329
59805SOL    HW281249   2.743  14.170  11.448
59806SOL     OW81250  12.527  12.777   1.519
59806SOL    HW181251  12.454  12.749   1.464
59806SOL    HW281252  12.594  12.709   1.508
59807SOL     OW81253   9.189   3.004   4.316
59807SOL    HW181254   9.134   3.011   4.238
59807SOL    HW281255   9.243   2.927   4.300
59808SOL     OW81256   4.769   1.518   1.063
59808SOL    HW181257   4.791   1.488   0.975
59808SOL    HW281258   4.801   1.609   1.066
59809SOL     OW81259   6.606  12.648   5.166
59809SOL    HW181260   6.606  12.552   5.161
59809SOL    HW281261   6.551  12.668   5.242
59810SOL     OW81262   6.526  12.530  10.797
59810SOL    HW181263   6.505  12.568  10.882
59810SOL    HW281264   6.617  12.502  10.805
59811SOL     OW81265   4.685   6.702   9.674
59811SOL    HW181266   4.752   6.639   9.700
59811SOL    HW281267   4.735   6.780   9.649
59812SOL     OW81268   9.342  11.416   1.768
59812SOL    HW181269   9.327  11.428   1.674
59812SOL    HW281270   9.428  11.455   1.784
59813SOL     OW81271   6.334   9.870  10.042
59813SOL    HW181272   6.343   9.780  10.074
59813SOL    HW281273   6.423   9.897  10.020
59814SOL     OW81274   6.074  11.847   5.166
59814SOL    HW181275   5.980  11.866   5.169
59814SOL    HW281276   6.083  11.779   5.099
59815SOL     OW81277  10.316   1.677  10.271
59815SOL    HW181278  10.306   1.743  10.202
59815SOL    HW281279  10.371   1.720  10.336
59816SOL     OW81280  13.574   4.242  13.386
59816SOL    HW181281  13.609   4.222  13.299
59816SOL    HW281282  13.536   4.330  13.376
59817SOL     OW81283   6.182  14.231   9.228
59817SOL    HW181284   6.117  14.249   9.296
59817SOL    HW281285   6.233  14.312   9.221
59818SOL     OW81286  14.660   4.806  10.468
59818SOL    HW181287  14.609   4.733  10.432
59818SOL    HW281288  14.610   4.884  10.446
59819SOL     OW81289   1.903  12.987   0.864
59819SOL    HW181290   1.957  12.936   0.803
59819SOL    HW281291   1.828  12.930   0.881
59820SOL     OW81292   6.264   5.693   9.940
59820SOL    HW181293   6.343   5.741   9.967
59820SOL    HW281294   6.280   5.672   9.848
59821SOL     OW81295  11.801  10.905  10.933
59821SOL    HW181296  11.772  10.948  10.853
59821SOL    HW281297  11.721  10.889  10.982
59822SOL     OW81298  13.235   9.083   6.477
59822SOL    HW181299  13.252   8.990   6.492
59822SOL    HW281300  13.282   9.103   6.395
59823SOL     OW81301   3.800   4.690   8.866
59823SOL    HW181302   3.800   4.665   8.774
59823SOL    HW281303   3.729   4.754   8.874
59824SOL     OW81304   8.505   6.452  14.273
59824SOL    HW181305   8.527   6.360  14.261
59824SOL    HW281306   8.537   6.495  14.194
59825SOL     OW81307   9.024   6.867   7.858
59825SOL    HW181308   9.059   6.912   7.935
59825SOL    HW281309   9.066   6.781   7.859
59826SOL     OW81310   5.279   0.941  10.162
59826SOL    HW181311   5.282   0.846  10.168
59826SOL    HW281312   5.193   0.960  10.124
59827SOL     OW81313   2.916   0.416   7.546
59827SOL    HW181314   2.821   0.419   7.560
59827SOL    HW281315   2.951   0.386   7.630
59828SOL     OW81316   8.212   7.154   3.099
59828SOL    HW181317   8.216   7.060   3.112
59828SOL    HW281318   8.154   7.186   3.168
59829SOL     OW81319   4.320   6.451  11.752
59829SOL    HW181320   4.244   6.418  11.704
59829SOL    HW281321   4.306   6.545  11.758
59830SOL     OW81322  10.800  13.431   8.715
59830SOL    HW181323  10.870  13.370   8.736
59830SOL    HW281324  10.749  13.387   8.647
59831SOL     OW81325   5.234   3.625  13.414
59831SOL    HW181326   5.283   3.603  13.493
59831SOL    HW281327   5.170   3.555  13.405
59832SOL     OW81328   0.840  11.026  14.703
59832SOL    HW181329   0.828  10.939  14.664
59832SOL    HW281330   0.803  11.019  14.790
59833SOL     OW81331   4.984   8.745   9.495
59833SOL    HW181332   4.965   8.691   9.418
59833SOL    HW281333   5.047   8.694   9.545
59834SOL     OW81334   4.676  13.310   7.119
59834SOL    HW181335   4.603  13.347   7.070
59834SOL    HW281336   4.705  13.236   7.066
59835SOL     OW81337  11.204  14.788   8.382
59835SOL    HW181338  11.216  14.822   8.293
59835SOL    HW281339  11.204  14.693   8.372
59836SOL     OW81340   2.170  13.894   5.007
59836SOL    HW181341   2.170  13.922   4.916
59836SOL    HW281342   2.203  13.804   5.005
59837SOL     OW81343  14.757   1.816   5.913
59837SOL    HW181344  14.756   1.752   5.842
59837SOL    HW281345  14.836   1.795   5.963
59838SOL     OW81346  14.294  10.425  10.374
59838SOL    HW181347  14.388  10.411  10.362
59838SOL    HW281348  14.283  10.431  10.469
59839SOL     OW81349  13.612   8.990   9.446
59839SOL    HW181350  13.538   8.961   9.392
59839SOL    HW281351  13.571   9.034   9.520
59840SOL     OW81352  13.898  13.154  11.709
59840SOL    HW181353  13.872  13.237  11.669
59840SOL    HW281354  13.844  13.147  11.788
59841SOL     OW81355   5.122  13.202  14.195
59841SOL    HW181356   5.117  13.184  14.101
59841SOL    HW281357   5.209  13.171  14.221
59842SOL     OW81358   5.409   6.068   2.833
59842SOL    HW181359   5.384   6.141   2.891
59842SOL    HW281360   5.363   5.992   2.870
59843SOL     OW81361  12.338   3.953   6.067
59843SOL    HW181362  12.329   3.886   6.134
59843SOL    HW281363  12.422   3.933   6.025
59844SOL     OW81364   8.098   2.405   6.523
59844SOL    HW181365   8.178   2.457   6.532
59844SOL    HW281366   8.029   2.469   6.504
59845SOL     OW81367   7.831   2.191   6.364
59845SOL    HW181368   7.792   2.253   6.303
59845SOL    HW281369   7.757   2.162   6.419
59846SOL     OW81370   8.581  12.395  11.632
59846SOL    HW181371   8.617  12.389  11.543
59846SOL    HW281372   8.562  12.488  11.644
59847SOL     OW81373   1.128  11.261   0.199
59847SOL    HW181374   1.066  11.321   0.158
59847SOL    HW281375   1.134  11.187   0.138
59848SOL     OW81376  13.303   9.351  14.525
59848SOL    HW181377  13.229   9.292  14.537
59848SOL    HW281378  13.288   9.391  14.440
59849SOL     OW81379  13.778  13.797   6.150
59849SOL    HW181380  13.840  13.834   6.213
59849SOL    HW281381  13.830  13.736   6.098
59850SOL     OW81382  13.572   2.600   4.942
59850SOL    HW181383  13.549   2.540   4.871
59850SOL    HW281384  13.488   2.638   4.968
59851SOL     OW81385   8.504   5.750  13.373
59851SOL    HW181386   8.529   5.697  13.448
59851SOL    HW281387   8.409   5.761  13.382
59852SOL     OW81388   4.858  14.432   6.309
59852SOL    HW181389   4.873  14.511   6.360
59852SOL    HW281390   4.772  14.445   6.269
59853SOL     OW81391   2.094   1.291  12.848
59853SOL    HW181392   2.138   1.264  12.928
59853SOL    HW281393   2.164   1.297  12.783
59854SOL     OW81394  10.407   4.321  10.120
59854SOL    HW181395  10.320   4.300  10.089
59854SOL    HW281396  10.446   4.375  10.051
59855SOL     OW81397   5.485  12.206   6.205
59855SOL    HW181398   5.430  12.136   6.242
59855SOL    HW281399   5.563  12.160   6.172
59856SOL     OW81400  11.945   2.848   6.649
59856SOL    HW181401  11.958   2.793   6.726
59856SOL    HW281402  11.988   2.931   6.672
59857SOL     OW81403   0.576   0.957   1.489
59857SOL    HW181404   0.503   1.009   1.522
59857SOL    HW281405   0.568   0.962   1.394
59858SOL     OW81406  14.567   8.301  10.062
59858SOL    HW181407  14.630   8.252  10.010
59858SOL    HW281408  14.617   8.332  10.137
59859SOL     OW81409   9.651   0.942   4.446
59859SOL    HW181410   9.629   0.946   4.353
59859SOL    HW281411   9.714   1.013   4.458
59860SOL     OW81412  13.016   4.806   5.605
59860SOL    HW181413  13.068   4.816   5.525
59860SOL    HW281414  12.996   4.713   5.610
59861SOL     OW81415   5.333   0.697   8.031
59861SOL    HW181416   5.282   0.773   8.060
59861SOL    HW281417   5.413   0.734   7.994
59862SOL     OW81418   4.552   1.485  11.654
59862SOL    HW181419   4.595   1.424  11.714
59862SOL    HW281420   4.615   1.557  11.644
59863SOL     OW81421   3.529  12.518  14.236
59863SOL    HW181422   3.488  12.488  14.155
59863SOL    HW281423   3.616  12.479  14.234
59864SOL     OW81424   3.652   8.413  11.715
59864SOL    HW181425   3.729   8.438  11.767
59864SOL    HW281426   3.682   8.338  11.663
59865SOL     OW81427  14.861   2.270   9.232
59865SOL    HW181428   0.035   2.191   9.235
59865SOL    HW281429  14.846   2.293   9.324
59866SOL     OW81430   3.035   9.415  10.662
59866SOL    HW181431   3.089   9.452  10.592
59866SOL    HW281432   3.027   9.322  10.639
59867SOL     OW81433  10.723  13.355   5.731
59867SOL    HW181434  10.663  13.299   5.682
59867SOL    HW281435  10.710  13.442   5.695
59868SOL     OW81436   4.086  13.521  11.344
59868SOL    HW181437   4.061  13.430  11.325
59868SOL    HW281438   4.004  13.568  11.348
59869SOL     OW81439   5.832   5.681   8.033
59869SOL    HW181440   5.754   5.668   7.979
59869SOL    HW281441   5.810   5.754   8.090
59870SOL     OW81442   1.896   0.237   2.605
59870SOL    HW181443   1.984   0.268   2.586
59870SOL    HW281444   1.840   0.314   2.595
59871SOL     OW81445   9.021   3.490   6.968
59871SOL    HW181446   9.076   3.470   6.892
59871SOL    HW281447   9.011   3.585   6.966
59872SOL     OW81448  10.809  10.615   2.362
59872SOL    HW181449  10.863  10.603   2.284
59872SOL    HW281450  10.858  10.678   2.415
59873SOL     OW81451   6.913  14.815   8.088
59873SOL    HW181452   6.855  14.819   8.013
59873SOL    HW281453   6.990  14.866   8.062
59874SOL     OW81454   5.024   9.499   8.671
59874SOL    HW181455   5.081   9.444   8.725
59874SOL    HW281456   5.024   9.456   8.586
59875SOL     OW81457  10.723   2.186   2.281
59875SOL    HW181458  10.781   2.250   2.322
59875SOL    HW281459  10.711   2.219   2.192
59876SOL     OW81460   8.210   3.120   6.729
59876SOL    HW181461   8.284   3.148   6.676
59876SOL    HW281462   8.154   3.072   6.668
59877SOL     OW81463   0.790  13.880   0.282
59877SOL    HW181464   0.841  13.798   0.284
59877SOL    HW281465   0.840  13.940   0.337
59878SOL     OW81466  13.952  10.053   9.881
59878SOL    HW181467  14.038  10.013   9.893
59878SOL    HW281468  13.908   9.999   9.816
59879SOL     OW81469  11.980   9.001   2.799
59879SOL    HW181470  11.990   8.912   2.766
59879SOL    HW281471  11.891   9.027   2.772
59880SOL     OW81472  11.591   9.823  11.637
59880SOL    HW181473  11.592   9.915  11.663
59880SOL    HW281474  11.580   9.775  11.719
59881SOL     OW81475   1.316   0.374   3.799
59881SOL    HW181476   1.236   0.401   3.844
59881SOL    HW281477   1.369   0.332   3.866
59882SOL     OW81478   5.845   0.316   7.858
59882SOL    HW181479   5.796   0.281   7.784
59882SOL    HW281480   5.928   0.346   7.820
59883SOL     OW81481   7.541   8.303   2.044
59883SOL    HW181482   7.603   8.244   2.087
59883SOL    HW281483   7.463   8.250   2.030
59884SOL     OW81484   7.075   1.158   6.410
59884SOL    HW181485   7.161   1.117   6.420
59884SOL    HW281486   7.082   1.241   6.457
59885SOL     OW81487   8.344  13.940   8.512
59885SOL    HW181488   8.363  13.852   8.545
59885SOL    HW281489   8.272  13.927   8.450
59886SOL     OW81490   0.118  11.479  12.446
59886SOL    HW181491   0.051  11.545  12.429
59886SOL    HW281492   0.200  11.523  12.424
59887SOL     OW81493   9.526   5.428   1.944
59887SOL    HW181494   9.440   5.404   1.979
59887SOL    HW281495   9.525   5.524   1.942
59888SOL     OW81496  12.738   8.605   5.252
59888SOL    HW181497  12.663   8.564   5.209
59888SOL    HW281498  12.814   8.563   5.213
59889SOL     OW81499   8.328   4.875   6.608
59889SOL    HW181500   8.403   4.899   6.662
59889SOL    HW281501   8.265   4.946   6.622
59890SOL     OW81502   1.963  10.077  13.982
59890SOL    HW181503   1.891  10.080  13.920
59890SOL    HW281504   2.041  10.064  13.928
59891SOL     OW81505  10.181  14.448  13.146
59891SOL    HW181506  10.219  14.461  13.233
59891SOL    HW281507  10.133  14.529  13.129
59892SOL     OW81508   0.358   0.814  13.939
59892SOL    HW181509   0.277   0.782  13.978
59892SOL    HW281510   0.423   0.805  14.009
59893SOL     OW81511   1.491   8.151   3.042
59893SOL    HW181512   1.495   8.246   3.035
59893SOL    HW281513   1.397   8.132   3.051
59894SOL     OW81514  14.304   4.140   3.445
59894SOL    HW181515  14.257   4.057   3.448
59894SOL    HW281516  14.300   4.166   3.353
59895SOL     OW81517  13.418   0.524   5.479
59895SOL    HW181518  13.427   0.510   5.384
59895SOL    HW281519  13.325   0.510   5.496
59896SOL     OW81520   7.061   4.042   6.729
59896SOL    HW181521   7.123   4.096   6.778
59896SOL    HW281522   7.105   3.957   6.720
59897SOL     OW81523  12.709  11.812   7.492
59897SOL    HW181524  12.745  11.756   7.423
59897SOL    HW281525  12.750  11.897   7.477
59898SOL     OW81526  14.027  10.645  11.922
59898SOL    HW181527  14.089  10.573  11.929
59898SOL    HW281528  14.016  10.676  12.012
59899SOL     OW81529   5.641   7.932   7.473
59899SOL    HW181530   5.692   7.851   7.472
59899SOL    HW281531   5.633   7.957   7.381
59900SOL     OW81532   9.410  12.397   8.388
59900SOL    HW181533   9.440  12.461   8.324
59900SOL    HW281534   9.386  12.320   8.337
59901SOL     OW81535   9.432   6.247   1.493
59901SOL    HW181536   9.484   6.260   1.573
59901SOL    HW281537   9.494   6.216   1.428
59902SOL     OW81538   6.824   5.394   7.433
59902SOL    HW181539   6.811   5.330   7.363
59902SOL    HW281540   6.891   5.354   7.489
59903SOL     OW81541  10.662   4.208  14.017
59903SOL    HW181542  10.664   4.296  13.977
59903SOL    HW281543  10.647   4.149  13.943
59904SOL     OW81544   9.336   5.813   2.090
59904SOL    HW181545   9.385   5.782   2.166
59904SOL    HW281546   9.247   5.781   2.104
59905SOL     OW81547   2.205   7.453   7.377
59905SOL    HW181548   2.266   7.485   7.309
59905SOL    HW281549   2.156   7.531   7.403
59906SOL     OW81550   8.002   2.980   8.490
59906SOL    HW181551   8.031   3.009   8.403
59906SOL    HW281552   7.942   3.048   8.520
59907SOL     OW81553   7.468   8.016   0.189
59907SOL    HW181554   7.440   8.025   0.280
59907SOL    HW281555   7.409   7.950   0.152
59908SOL     OW81556  14.058   4.587   9.607
59908SOL    HW181557  14.102   4.574   9.523
59908SOL    HW281558  13.976   4.633   9.584
59909SOL     OW81559   8.028  14.416   4.802
59909SOL    HW181560   7.963  14.470   4.756
59909SOL    HW281561   8.005  14.326   4.778
59910SOL     OW81562   5.449  14.001   5.768
59910SOL    HW181563   5.492  14.086   5.776
59910SOL    HW281564   5.396  13.994   5.848
59911SOL     OW81565   6.228   4.511   7.270
59911SOL    HW181566   6.213   4.597   7.231
59911SOL    HW281567   6.323   4.503   7.272
59912SOL     OW81568   2.862   6.677   6.843
59912SOL    HW181569   2.789   6.628   6.880
59912SOL    HW281570   2.851   6.766   6.876
59913SOL     OW81571   8.942  13.175   7.377
59913SOL    HW181572   8.943  13.084   7.346
59913SOL    HW281573   8.869  13.215   7.330
59914SOL     OW81574   4.146  11.786   4.983
59914SOL    HW181575   4.084  11.841   4.935
59914SOL    HW281576   4.166  11.715   4.923
59915SOL     OW81577  10.379   6.768   7.987
59915SOL    HW181578  10.301   6.717   8.007
59915SOL    HW281579  10.365   6.852   8.031
59916SOL     OW81580  14.851  14.217   6.032
59916SOL    HW181581   0.023  14.209   6.112
59916SOL    HW281582  14.767  14.252   6.060
59917SOL     OW81583  13.787  12.818   4.711
59917SOL    HW181584  13.847  12.891   4.696
59917SOL    HW281585  13.778  12.812   4.806
59918SOL     OW81586   9.122   9.533  12.526
59918SOL    HW181587   9.099   9.621  12.556
59918SOL    HW281588   9.096   9.476  12.599
59919SOL     OW81589   6.523   7.759  10.392
59919SOL    HW181590   6.452   7.804  10.437
59919SOL    HW281591   6.558   7.824  10.331
59920SOL     OW81592   5.228   3.116   6.762
59920SOL    HW181593   5.296   3.171   6.801
59920SOL    HW281594   5.273   3.034   6.741
59921SOL     OW81595   0.871   6.853   8.528
59921SOL    HW181596   0.895   6.861   8.436
59921SOL    HW281597   0.793   6.907   8.538
59922SOL     OW81598   7.408   0.372   8.904
59922SOL    HW181599   7.391   0.463   8.930
59922SOL    HW281600   7.496   0.355   8.937
59923SOL     OW81601  14.161   8.942   1.535
59923SOL    HW181602  14.244   8.988   1.544
59923SOL    HW281603  14.155   8.922   1.442
59924SOL     OW81604   8.359   5.801   8.048
59924SOL    HW181605   8.265   5.819   8.050
59924SOL    HW281606   8.396   5.874   7.999
59925SOL     OW81607   5.895  12.368   9.355
59925SOL    HW181608   5.943  12.291   9.384
59925SOL    HW281609   5.947  12.442   9.385
59926SOL     OW81610   4.168  11.444   5.013
59926SOL    HW181611   4.126  11.358   5.008
59926SOL    HW281612   4.259  11.425   5.032
59927SOL     OW81613  10.625  14.202   0.123
59927SOL    HW181614  10.535  14.177   0.102
59927SOL    HW281615  10.672  14.118   0.129
59928SOL     OW81616   1.102   9.800  13.934
59928SOL    HW181617   1.007   9.792  13.925
59928SOL    HW281618   1.116   9.819  14.027
59929SOL     OW81619   0.509   9.522  11.825
59929SOL    HW181620   0.423   9.544  11.859
59929SOL    HW281621   0.568   9.531  11.900
59930SOL     OW81622   6.550   8.615   2.528
59930SOL    HW181623   6.592   8.571   2.454
59930SOL    HW281624   6.540   8.545   2.594
59931SOL     OW81625  13.414  10.176   2.497
59931SOL    HW181626  13.436  10.216   2.412
59931SOL    HW281627  13.498  10.157   2.537
59932SOL     OW81628   5.134  14.630   3.171
59932SOL    HW181629   5.156  14.544   3.206
59932SOL    HW281630   5.042  14.643   3.196
59933SOL     OW81631   3.544   8.100  14.739
59933SOL    HW181632   3.485   8.077  14.667
59933SOL    HW281633   3.486   8.133  14.808
59934SOL     OW81634  11.723  13.049   7.109
59934SOL    HW181635  11.808  13.093   7.117
59934SOL    HW281636  11.659  13.120   7.115
59935SOL     OW81637   6.403  14.564   3.462
59935SOL    HW181638   6.467  14.533   3.526
59935SOL    HW281639   6.351  14.629   3.509
59936SOL     OW81640   3.327   4.436   0.448
59936SOL    HW181641   3.308   4.420   0.356
59936SOL    HW281642   3.420   4.457   0.451
59937SOL     OW81643   6.869  14.156  13.687
59937SOL    HW181644   6.774  14.161  13.702
59937SOL    HW281645   6.900  14.244  13.707
59938SOL     OW81646   2.360  10.383  12.919
59938SOL    HW181647   2.288  10.331  12.955
59938SOL    HW281648   2.394  10.330  12.847
59939SOL     OW81649   7.926   6.217   5.291
59939SOL    HW181650   7.978   6.263   5.225
59939SOL    HW281651   7.839   6.209   5.251
59940SOL     OW81652   2.239   5.119  10.248
59940SOL    HW181653   2.324   5.164  10.252
59940SOL    HW281654   2.177   5.183  10.284
59941SOL     OW81655   8.624   5.790   1.500
59941SOL    HW181656   8.686   5.737   1.449
59941SOL    HW281657   8.607   5.866   1.444
59942SOL     OW81658   9.702   1.000   5.192
59942SOL    HW181659   9.667   1.069   5.248
59942SOL    HW281660   9.727   0.930   5.253
59943SOL     OW81661   1.666   5.467   4.531
59943SOL    HW181662   1.613   5.396   4.496
59943SOL    HW281663   1.701   5.432   4.613
59944SOL     OW81664  13.421   1.525   1.333
59944SOL    HW181665  13.445   1.521   1.426
59944SOL    HW281666  13.328   1.503   1.332
59945SOL     OW81667  13.017   3.466  11.764
59945SOL    HW181668  13.060   3.400  11.820
59945SOL    HW281669  12.929   3.472  11.799
59946SOL     OW81670  11.879  13.920   0.399
59946SOL    HW181671  11.932  13.999   0.401
59946SOL    HW281672  11.942  13.849   0.386
59947SOL     OW81673   7.385   3.260   7.874
59947SOL    HW181674   7.329   3.337   7.888
59947SOL    HW281675   7.467   3.296   7.840
59948SOL     OW81676   9.265  11.719  10.790
59948SOL    HW181677   9.297  11.630  10.799
59948SOL    HW281678   9.176  11.717  10.826
59949SOL     OW81679   6.302  13.875  12.240
59949SOL    HW181680   6.283  13.933  12.166
59949SOL    HW281681   6.395  13.891  12.260
59950SOL     OW81682   8.874   4.496  10.625
59950SOL    HW181683   8.916   4.475  10.542
59950SOL    HW281684   8.789   4.451  10.622
59951SOL     OW81685   8.956   6.261   2.457
59951SOL    HW181686   8.957   6.190   2.521
59951SOL    HW281687   8.896   6.326   2.493
59952SOL     OW81688   3.900  12.001   4.037
59952SOL    HW181689   3.946  12.068   4.087
59952SOL    HW281690   3.957  11.985   3.961
59953SOL     OW81691   7.734   7.964  14.529
59953SOL    HW181692   7.692   7.950  14.614
59953SOL    HW281693   7.754   7.876  14.497
59954SOL     OW81694   9.513   5.413   4.004
59954SOL    HW181695   9.539   5.355   4.075
59954SOL    HW281696   9.596   5.439   3.963
59955SOL     OW81697   2.805   5.927  12.627
59955SOL    HW181698   2.784   6.018  12.604
59955SOL    HW281699   2.812   5.882  12.543
59956SOL     OW81700   1.404   6.778   1.040
59956SOL    HW181701   1.454   6.846   0.994
59956SOL    HW281702   1.340   6.747   0.976
59957SOL     OW81703   7.161  11.347   8.454
59957SOL    HW181704   7.180  11.415   8.518
59957SOL    HW281705   7.211  11.271   8.483
59958SOL     OW81706   5.148   7.926   7.057
59958SOL    HW181707   5.061   7.925   7.097
59958SOL    HW281708   5.131   7.946   6.965
59959SOL     OW81709   4.698  12.148  11.727
59959SOL    HW181710   4.636  12.222  11.724
59959SOL    HW281711   4.751  12.160  11.648
59960SOL     OW81712   2.072   6.677  10.111
59960SOL    HW181713   1.999   6.679  10.172
59960SOL    HW281714   2.124   6.754  10.132
59961SOL     OW81715  14.184   7.837   1.005
59961SOL    HW181716  14.165   7.795   0.921
59961SOL    HW281717  14.217   7.924   0.981
59962SOL     OW81718   6.775   2.782   1.939
59962SOL    HW181719   6.764   2.692   1.908
59962SOL    HW281720   6.742   2.836   1.867
59963SOL     OW81721   1.838   2.120  12.856
59963SOL    HW181722   1.806   2.151  12.771
59963SOL    HW281723   1.851   2.200  12.907
59964SOL     OW81724  12.664  11.498   4.471
59964SOL    HW181725  12.573  11.468   4.469
59964SOL    HW281726  12.690  11.501   4.378
59965SOL     OW81727   5.936  12.559  11.845
59965SOL    HW181728   6.009  12.620  11.851
59965SOL    HW281729   5.883  12.592  11.773
59966SOL     OW81730  11.905  14.492   4.146
59966SOL    HW181731  11.864  14.550   4.082
59966SOL    HW281732  11.873  14.405   4.124
59967SOL     OW81733   2.361   6.728   7.242
59967SOL    HW181734   2.328   6.731   7.152
59967SOL    HW281735   2.453   6.750   7.235
59968SOL     OW81736   0.217   9.085  11.233
59968SOL    HW181737   0.247   9.152  11.295
59968SOL    HW281738   0.198   9.009  11.287
59969SOL     OW81739  10.207  11.269  14.636
59969SOL    HW181740  10.184  11.362  14.642
59969SOL    HW281741  10.132  11.223  14.673
59970SOL     OW81742   6.591  10.211   4.283
59970SOL    HW181743   6.673  10.169   4.312
59970SOL    HW281744   6.553  10.148   4.222
59971SOL     OW81745   7.931   1.518   7.987
59971SOL    HW181746   8.022   1.548   7.977
59971SOL    HW281747   7.879   1.588   7.948
59972SOL     OW81748   8.787   8.700   9.053
59972SOL    HW181749   8.742   8.654   9.124
59972SOL    HW281750   8.861   8.643   9.030
59973SOL     OW81751   9.553  13.846   2.899
59973SOL    HW181752   9.508  13.914   2.949
59973SOL    HW281753   9.645  13.855   2.925
59974SOL     OW81754   4.103  12.828   1.146
59974SOL    HW181755   4.075  12.891   1.213
59974SOL    HW281756   4.166  12.877   1.092
59975SOL     OW81757  10.987   1.847  10.076
59975SOL    HW181758  11.064   1.880  10.122
59975SOL    HW281759  10.999   1.752  10.074
59976SOL     OW81760   6.264   6.593   3.015
59976SOL    HW181761   6.260   6.616   3.108
59976SOL    HW281762   6.326   6.520   3.011
59977SOL     OW81763  11.451   2.763   2.091
59977SOL    HW181764  11.488   2.813   2.018
59977SOL    HW281765  11.387   2.704   2.050
59978SOL     OW81766   6.587   7.358   3.213
59978SOL    HW181767   6.670   7.407   3.216
59978SOL    HW281768   6.532   7.402   3.277
59979SOL     OW81769  14.834   5.216   9.897
59979SOL    HW181770  14.758   5.159   9.905
59979SOL    HW281771   0.019   5.164   9.848
59980SOL     OW81772  12.188  10.595  14.389
59980SOL    HW181773  12.218  10.507  14.369
59980SOL    HW281774  12.112  10.610  14.332
59981SOL     OW81775  11.132   3.786   3.753
59981SOL    HW181776  11.146   3.880   3.766
59981SOL    HW281777  11.037   3.779   3.737
59982SOL     OW81778   9.546   7.511   0.793
59982SOL    HW181779   9.483   7.582   0.807
59982SOL    HW281780   9.581   7.528   0.705
59983SOL     OW81781   7.639   6.945  14.034
59983SOL    HW181782   7.561   6.967  14.086
59983SOL    HW281783   7.624   6.855  14.006
59984SOL     OW81784  11.725   3.078   7.012
59984SOL    HW181785  11.666   3.128   6.956
59984SOL    HW281786  11.801   3.061   6.957
59985SOL     OW81787   6.086   2.658   5.269
59985SOL    HW181788   6.118   2.571   5.244
59985SOL    HW281789   5.991   2.648   5.272
59986SOL     OW81790   8.790   6.910   9.788
59986SOL    HW181791   8.761   6.852   9.717
59986SOL    HW281792   8.848   6.973   9.745
59987SOL     OW81793   0.154   4.346   5.523
59987SOL    HW181794   0.074   4.396   5.540
59987SOL    HW281795   0.150   4.325   5.430
59988SOL     OW81796  12.977   5.726   4.412
59988SOL    HW181797  12.909   5.754   4.351
59988SOL    HW281798  13.058   5.759   4.375
59989SOL     OW81799   9.730   7.389   6.282
59989SOL    HW181800   9.671   7.416   6.353
59989SOL    HW281801   9.818   7.412   6.315
59990SOL     OW81802   6.803   7.833  11.348
59990SOL    HW181803   6.829   7.834  11.440
59990SOL    HW281804   6.720   7.787  11.347
59991SOL     OW81805   1.591  11.793   2.059
59991SOL    HW181806   1.667  11.737   2.044
59991SOL    HW281807   1.611  11.840   2.140
59992SOL     OW81808   1.454   9.859   2.409
59992SOL    HW181809   1.442   9.938   2.462
59992SOL    HW281810   1.401   9.876   2.331
59993SOL     OW81811  11.565   6.167   7.200
59993SOL    HW181812  11.532   6.177   7.289
59993SOL    HW281813  11.590   6.075   7.193
59994SOL     OW81814   0.364   1.127   0.740
59994SOL    HW181815   0.330   1.161   0.657
59994SOL    HW281816   0.392   1.038   0.720
59995SOL     OW81817   5.450   1.327  14.604
59995SOL    HW181818   5.511   1.372  14.545
59995SOL    HW281819   5.441   1.239  14.569
59996SOL     OW81820  14.118   1.724   1.056
59996SOL    HW181821  14.023   1.723   1.070
59996SOL    HW281822  14.149   1.795   1.113
59997SOL     OW81823  10.532   0.070   8.081
59997SOL    HW181824  10.603   0.125   8.114
59997SOL    HW281825  10.474   0.131   8.036
59998SOL     OW81826   9.260  14.060  13.569
59998SOL    HW181827   9.232  14.062  13.660
59998SOL    HW281828   9.278  13.967  13.551
59999SOL     OW81829   8.053  10.255   0.169
59999SOL    HW181830   8.005  10.186   0.215
59999SOL    HW281831   8.145  10.237   0.187
60000SOL     OW81832   0.568  12.879   0.132
60000SOL    HW181833   0.541  12.804   0.184
60000SOL    HW281834   0.599  12.943   0.196
60001SOL     OW81835  11.887   6.761   0.724
60001SOL    HW181836  11.956   6.738   0.786
60001SOL    HW281837  11.859   6.849   0.749
60002SOL     OW81838  11.507   4.947   4.031
60002SOL    HW181839  11.538   4.884   4.095
60002SOL    HW281840  11.411   4.941   4.036
60003SOL     OW81841  14.842  11.949   8.578
60003SOL    HW181842  14.860  11.937   8.672
60003SOL    HW281843   0.017  12.024   8.553
60004SOL     OW81844   5.303   2.071   1.646
60004SOL    HW181845   5.319   2.121   1.566
60004SOL    HW281846   5.252   2.131   1.701
60005SOL     OW81847  12.883  12.243   2.205
60005SOL    HW181848  12.826  12.167   2.192
60005SOL    HW281849  12.947  12.237   2.134
60006SOL     OW81850  11.370   0.766   5.119
60006SOL    HW181851  11.321   0.742   5.040
60006SOL    HW281852  11.354   0.693   5.179
60007SOL     OW81853   6.602   4.107   5.719
60007SOL    HW181854   6.654   4.098   5.639
60007SOL    HW281855   6.511   4.096   5.690
60008SOL     OW81856  11.574   9.309   2.824
60008SOL    HW181857  11.564   9.403   2.844
60008SOL    HW281858  11.487   9.282   2.793
60009SOL     OW81859   2.721   2.899   0.069
60009SOL    HW181860   2.642   2.910   0.123
60009SOL    HW281861   2.785   2.861   0.129
60010SOL     OW81862   7.856   1.027   9.896
60010SOL    HW181863   7.787   1.061   9.953
60010SOL    HW281864   7.822   0.942   9.866
60011SOL     OW81865   5.258   9.070   0.018
60011SOL    HW181866   5.214   9.155   0.014
60011SOL    HW281867   5.341   9.083  14.851
60012SOL     OW81868   9.484   8.118   9.195
60012SOL    HW181869   9.404   8.135   9.243
60012SOL    HW281870   9.455   8.083   9.111
60013SOL     OW81871   4.785   3.901   1.950
60013SOL    HW181872   4.874   3.886   1.983
60013SOL    HW281873   4.798   3.950   1.869
60014SOL     OW81874  13.784  10.112  12.746
60014SOL    HW181875  13.804  10.170  12.819
60014SOL    HW281876  13.691  10.094  12.754
60015SOL     OW81877   7.530   6.176   6.627
60015SOL    HW181878   7.505   6.249   6.684
60015SOL    HW281879   7.449   6.151   6.583
60016SOL     OW81880   9.668   1.055   2.787
60016SOL    HW181881   9.599   1.029   2.726
60016SOL    HW281882   9.698   0.973   2.826
60017SOL     OW81883  12.260   6.868   7.133
60017SOL    HW181884  12.294   6.904   7.216
60017SOL    HW281885  12.254   6.774   7.149
60018SOL     OW81886   8.259   3.926   0.771
60018SOL    HW181887   8.195   3.858   0.753
60018SOL    HW281888   8.271   3.924   0.866
60019SOL     OW81889   1.148   8.043   2.662
60019SOL    HW181890   1.059   8.064   2.632
60019SOL    HW281891   1.153   7.948   2.658
60020SOL     OW81892   0.008   3.463   0.567
60020SOL    HW181893  14.852   3.511   0.492
60020SOL    HW281894  14.873   3.521   0.642
60021SOL     OW81895   1.216  10.336   8.405
60021SOL    HW181896   1.268  10.299   8.333
60021SOL    HW281897   1.277  10.343   8.478
60022SOL     OW81898  10.813   9.951   5.254
60022SOL    HW181899  10.753  10.024   5.239
60022SOL    HW281900  10.782   9.911   5.335
60023SOL     OW81901   0.080   9.870   5.964
60023SOL    HW181902   0.160   9.820   5.981
60023SOL    HW281903   0.029   9.861   6.044
60024SOL     OW81904  11.819  13.705   8.541
60024SOL    HW181905  11.734  13.683   8.578
60024SOL    HW281906  11.809  13.688   8.447
60025SOL     OW81907   9.277   0.721  14.006
60025SOL    HW181908   9.274   0.797  13.948
60025SOL    HW281909   9.361   0.729  14.052
60026SOL     OW81910   0.917  11.645   2.339
60026SOL    HW181911   0.859  11.584   2.293
60026SOL    HW281912   1.002  11.633   2.298
60027SOL     OW81913   3.051   4.324   4.928
60027SOL    HW181914   3.056   4.381   4.851
60027SOL    HW281915   3.142   4.295   4.941
60028SOL     OW81916  12.822   7.270   4.944
60028SOL    HW181917  12.756   7.229   4.999
60028SOL    HW281918  12.901   7.217   4.956
60029SOL     OW81919   3.475  10.519   2.842
60029SOL    HW181920   3.416  10.518   2.918
60029SOL    HW281921   3.560  10.543   2.878
60030SOL     OW81922   4.535   7.235   1.143
60030SOL    HW181923   4.594   7.304   1.114
60030SOL    HW281924   4.480   7.217   1.067
60031SOL     OW81925  14.444  10.016   8.568
60031SOL    HW181926  14.461  10.090   8.510
60031SOL    HW281927  14.465  10.048   8.656
60032SOL     OW81928   7.298  10.655   4.014
60032SOL    HW181929   7.387  10.674   4.044
60032SOL    HW281930   7.310  10.610   3.931
60033SOL     OW81931  13.262   5.551   2.807
60033SOL    HW181932  13.336   5.491   2.797
60033SOL    HW281933  13.288   5.609   2.879
60034SOL     OW81934   3.850   6.858   7.628
60034SOL    HW181935   3.780   6.918   7.601
60034SOL    HW281936   3.905   6.849   7.550
60035SOL     OW81937   1.910   7.263   9.466
60035SOL    HW181938   1.897   7.343   9.415
60035SOL    HW281939   1.844   7.202   9.432
60036SOL     OW81940  11.663   4.802   5.159
60036SOL    HW181941  11.727   4.872   5.155
60036SOL    HW281942  11.655   4.771   5.069
60037SOL     OW81943   4.440   2.890   9.754
60037SOL    HW181944   4.523   2.875   9.799
60037SOL    HW281945   4.438   2.985   9.739
60038SOL     OW81946   2.706   0.943   5.280
60038SOL    HW181947   2.760   0.867   5.302
60038SOL    HW281948   2.692   0.987   5.363
60039SOL     OW81949   5.590  14.504   9.077
60039SOL    HW181950   5.633  14.483   9.160
60039SOL    HW281951   5.625  14.590   9.053
60040SOL     OW81952   5.432  11.369   0.613
60040SOL    HW181953   5.361  11.405   0.560
60040SOL    HW281954   5.512  11.386   0.562
60041SOL     OW81955   0.139   5.004   2.581
60041SOL    HW181956   0.188   5.052   2.648
60041SOL    HW281957   0.121   5.069   2.513
60042SOL     OW81958   7.106  10.506   4.446
60042SOL    HW181959   7.154  10.470   4.371
60042SOL    HW281960   7.026  10.455   4.450
60043SOL     OW81961   1.787   0.243   4.963
60043SOL    HW181962   1.809   0.309   5.029
60043SOL    HW281963   1.722   0.285   4.908
60044SOL     OW81964   7.702   8.886  12.460
60044SOL    HW181965   7.726   8.811  12.514
60044SOL    HW281966   7.640   8.850  12.396
60045SOL     OW81967  13.198  13.989   8.610
60045SOL    HW181968  13.247  13.967   8.689
60045SOL    HW281969  13.245  13.943   8.540
60046SOL     OW81970   6.787   8.398   8.311
60046SOL    HW181971   6.777   8.430   8.222
60046SOL    HW281972   6.881   8.385   8.322
60047SOL     OW81973  13.004  10.575  11.785
60047SOL    HW181974  12.938  10.550  11.721
60047SOL    HW281975  13.007  10.503  11.847
60048SOL     OW81976   9.889   5.471  12.262
60048SOL    HW181977   9.867   5.439  12.174
60048SOL    HW281978   9.901   5.392  12.314
60049SOL     OW81979   8.415  11.745   4.975
60049SOL    HW181980   8.429  11.732   5.069
60049SOL    HW281981   8.414  11.657   4.938
60050SOL     OW81982  12.527  12.102   8.474
60050SOL    HW181983  12.536  12.147   8.558
60050SOL    HW281984  12.473  12.161   8.421
60051SOL     OW81985  12.342   5.478   1.191
60051SOL    HW181986  12.268   5.444   1.142
60051SOL    HW281987  12.409   5.410   1.183
60052SOL     OW81988  14.480  11.688  11.468
60052SOL    HW181989  14.565  11.650  11.446
60052SOL    HW281990  14.422  11.658  11.397
60053SOL     OW81991  11.794  11.045  12.406
60053SOL    HW181992  11.838  11.070  12.324
60053SOL    HW281993  11.797  10.949  12.406
60054SOL     OW81994   9.531   1.724  11.589
60054SOL    HW181995   9.591   1.662  11.547
60054SOL    HW281996   9.585   1.768  11.655
60055SOL     OW81997  13.602   3.740   0.250
60055SOL    HW181998  13.547   3.817   0.240
60055SOL    HW281999  13.542   3.666   0.240
60056SOL     OW82000   7.824   5.022  13.743
60056SOL    HW182001   7.856   5.026  13.833
60056SOL    HW282002   7.885   4.964  13.698
60057SOL     OW82003   7.955   9.079   2.625
60057SOL    HW182004   7.893   9.035   2.683
60057SOL    HW282005   7.906   9.153   2.589
60058SOL     OW82006  10.169  12.064  12.960
60058SOL    HW182007  10.199  12.008  13.031
60058SOL    HW282008  10.078  12.083  12.981
60059SOL     OW82009   0.984   4.921   0.350
60059SOL    HW182010   0.918   4.852   0.356
60059SOL    HW282011   1.046   4.889   0.284
60060SOL     OW82012   4.466  11.660   5.533
60060SOL    HW182013   4.513  11.633   5.612
60060SOL    HW282014   4.449  11.754   5.546
60061SOL     OW82015  11.530  10.713  13.372
60061SOL    HW182016  11.565  10.655  13.439
60061SOL    HW282017  11.591  10.786  13.367
60062SOL     OW82018  12.622   7.841   9.019
60062SOL    HW182019  12.685   7.817   8.952
60062SOL    HW282020  12.558   7.896   8.973
60063SOL     OW82021   1.944  12.561   0.059
60063SOL    HW182022   1.934  12.644   0.013
60063SOL    HW282023   1.854  12.534   0.078
60064SOL     OW82024  10.768   2.113   7.766
60064SOL    HW182025  10.794   2.198   7.729
60064SOL    HW282026  10.701   2.134   7.831
60065SOL     OW82027   4.554   4.230   4.212
60065SOL    HW182028   4.538   4.187   4.128
60065SOL    HW282029   4.482   4.202   4.268
60066SOL     OW82030   2.319   9.689  12.545
60066SOL    HW182031   2.250   9.623  12.538
60066SOL    HW282032   2.377   9.657  12.614
60067SOL     OW82033   0.563  13.338   5.473
60067SOL    HW182034   0.554  13.433   5.465
60067SOL    HW282035   0.529  13.318   5.560
60068SOL     OW82036   9.770   1.798   4.334
60068SOL    HW182037   9.683   1.833   4.352
60068SOL    HW282038   9.784   1.815   4.241
60069SOL     OW82039   9.308   1.007  10.984
60069SOL    HW182040   9.266   1.026  10.900
60069SOL    HW282041   9.323   0.913  10.984
60070SOL     OW82042   6.724   4.058  13.802
60070SOL    HW182043   6.816   4.056  13.777
60070SOL    HW282044   6.714   3.986  13.864
60071SOL     OW82045  13.662   6.807   8.748
60071SOL    HW182046  13.651   6.893   8.708
60071SOL    HW282047  13.757   6.793   8.748
60072SOL     OW82048   7.087   6.706   8.189
60072SOL    HW182049   7.171   6.750   8.176
60072SOL    HW282050   7.098   6.659   8.273
60073SOL     OW82051   8.026   2.708   9.742
60073SOL    HW182052   7.943   2.755   9.740
60073SOL    HW282053   8.032   2.673   9.830
60074SOL     OW82054   0.600  10.352  10.879
60074SOL    HW182055   0.578  10.311  10.796
60074SOL    HW282056   0.596  10.446  10.861
60075SOL     OW82057   8.717   0.707   2.354
60075SOL    HW182058   8.729   0.783   2.410
60075SOL    HW282059   8.623   0.691   2.354
60076SOL     OW82060   2.949   6.339   3.542
60076SOL    HW182061   2.877   6.276   3.548
60076SOL    HW282062   3.018   6.304   3.599
60077SOL     OW82063   1.356  11.332  13.664
60077SOL    HW182064   1.309  11.330  13.747
60077SOL    HW282065   1.441  11.293  13.683
60078SOL     OW82066  12.098   7.419   4.353
60078SOL    HW182067  12.164   7.482   4.382
60078SOL    HW282068  12.133   7.383   4.271
60079SOL     OW82069   4.268  10.612  10.187
60079SOL    HW182070   4.203  10.650  10.245
60079SOL    HW282071   4.265  10.518  10.206
60080SOL     OW82072   1.506   2.427   6.642
60080SOL    HW182073   1.498   2.363   6.713
60080SOL    HW282074   1.558   2.498   6.679
60081SOL     OW82075  10.505  12.403   2.276
60081SOL    HW182076  10.457  12.328   2.310
60081SOL    HW282077  10.439  12.471   2.261
60082SOL     OW82078  12.527  12.117   6.372
60082SOL    HW182079  12.439  12.149   6.354
60082SOL    HW282080  12.568  12.108   6.286
60083SOL     OW82081   8.109  10.566   4.594
60083SOL    HW182082   8.021  10.575   4.631
60083SOL    HW282083   8.110  10.626   4.520
60084SOL     OW82084   7.765   6.076   9.382
60084SOL    HW182085   7.825   6.121   9.323
60084SOL    HW282086   7.762   6.131   9.460
60085SOL     OW82087  12.334   1.189  11.252
60085SOL    HW182088  12.288   1.248  11.313
60085SOL    HW282089  12.267   1.127  11.224
60086SOL     OW82090   4.199  10.193   4.228
60086SOL    HW182091   4.267  10.147   4.276
60086SOL    HW282092   4.235  10.280   4.211
60087SOL     OW82093   1.552   8.378   7.882
60087SOL    HW182094   1.563   8.284   7.896
60087SOL    HW282095   1.628   8.417   7.926
60088SOL     OW82096  10.699  11.002   5.417
60088SOL    HW182097  10.717  11.044   5.333
60088SOL    HW282098  10.750  11.053   5.480
60089SOL     OW82099  10.388   6.175   1.330
60089SOL    HW182100  10.450   6.244   1.308
60089SOL    HW282101  10.331   6.214   1.396
60090SOL     OW82102   0.539   2.496  13.006
60090SOL    HW182103   0.622   2.543  13.004
60090SOL    HW282104   0.539   2.452  13.091
60091SOL     OW82105   2.089   2.511   7.682
60091SOL    HW182106   2.147   2.453   7.732
60091SOL    HW282107   2.014   2.456   7.658
60092SOL     OW82108  14.401  12.886   7.057
60092SOL    HW182109  14.361  12.957   7.007
60092SOL    HW282110  14.379  12.807   7.008
60093SOL     OW82111   8.082   5.517   9.254
60093SOL    HW182112   8.003   5.566   9.233
60093SOL    HW282113   8.123   5.567   9.325
60094SOL     OW82114  12.690  13.253   9.862
60094SOL    HW182115  12.602  13.265   9.898
60094SOL    HW282116  12.713  13.338   9.826
60095SOL     OW82117   3.195   5.649  13.382
60095SOL    HW182118   3.252   5.726  13.389
60095SOL    HW282119   3.108   5.682  13.404
60096SOL     OW82120  12.720  13.190   7.217
60096SOL    HW182121  12.744  13.282   7.206
60096SOL    HW282122  12.692  13.162   7.129
60097SOL     OW82123   5.344   5.867  13.158
60097SOL    HW182124   5.348   5.779  13.121
60097SOL    HW282125   5.425   5.908  13.129
60098SOL     OW82126  14.823   3.470   3.368
60098SOL    HW182127  14.824   3.505   3.457
60098SOL    HW282128  14.878   3.391   3.372
60099SOL     OW82129   3.928   0.534   5.526
60099SOL    HW182130   3.845   0.490   5.509
60099SOL    HW282131   3.983   0.511   5.451
60100SOL     OW82132   6.224  14.572   7.465
60100SOL    HW182133   6.171  14.635   7.513
60100SOL    HW282134   6.165  14.534   7.400
60101SOL     OW82135  13.762   4.539  10.268
60101SOL    HW182136  13.728   4.601  10.203
60101SOL    HW282137  13.774   4.458  10.219
60102SOL     OW82138   8.943   2.421  12.542
60102SOL    HW182139   8.896   2.410  12.459
60102SOL    HW282140   8.925   2.342  12.591
60103SOL     OW82141   3.762   8.955  13.181
60103SOL    HW182142   3.780   8.918  13.095
60103SOL    HW282143   3.845   8.995  13.207
60104SOL     OW82144   2.400   2.751   5.187
60104SOL    HW182145   2.461   2.822   5.167
60104SOL    HW282146   2.378   2.763   5.279
60105SOL     OW82147  13.879  11.870  12.089
60105SOL    HW182148  13.932  11.949  12.102
60105SOL    HW282149  13.855  11.872  11.996
60106SOL     OW82150  10.015   7.116  12.675
60106SOL    HW182151   9.988   7.042  12.621
60106SOL    HW282152  10.042   7.183  12.613
60107SOL     OW82153   3.048   4.920   9.785
60107SOL    HW182154   3.080   4.830   9.786
60107SOL    HW282155   3.059   4.949   9.695
60108SOL     OW82156  11.647  13.987   1.337
60108SOL    HW182157  11.616  14.078   1.331
60108SOL    HW282158  11.718  13.991   1.401
60109SOL     OW82159   6.245   0.000   9.912
60109SOL    HW182160   6.318  14.818   9.922
60109SOL    HW282161   6.240   0.016   9.818
60110SOL     OW82162  14.417  11.840   4.044
60110SOL    HW182163  14.363  11.914   4.070
60110SOL    HW282164  14.354  11.773   4.016
60111SOL     OW82165   6.635   3.372  14.410
60111SOL    HW182166   6.674   3.297  14.454
60111SOL    HW282167   6.541   3.366  14.429
60112SOL     OW82168   2.749   3.034   0.610
60112SOL    HW182169   2.818   3.047   0.546
60112SOL    HW282170   2.697   3.114   0.607
60113SOL     OW82171   1.335  10.028   6.385
60113SOL    HW182172   1.249  10.030   6.341
60113SOL    HW282173   1.320   9.976   6.463
60114SOL     OW82174   1.404   1.283   3.457
60114SOL    HW182175   1.449   1.348   3.510
60114SOL    HW282176   1.462   1.269   3.382
60115SOL     OW82177  14.774  13.145  13.687
60115SOL    HW182178  14.715  13.116  13.757
60115SOL    HW282179  14.724  13.212  13.640
60116SOL     OW82180   3.262  11.641   1.944
60116SOL    HW182181   3.213  11.720   1.924
60116SOL    HW282182   3.245  11.625   2.037
60117SOL     OW82183   7.918   2.137  14.353
60117SOL    HW182184   8.005   2.097  14.349
60117SOL    HW282185   7.880   2.121  14.267
60118SOL     OW82186  11.931  13.619  11.948
60118SOL    HW182187  11.979  13.549  11.904
60118SOL    HW282188  11.987  13.643  12.022
60119SOL     OW82189   4.594  14.278   5.045
60119SOL    HW182190   4.560  14.368   5.036
60119SOL    HW282191   4.644  14.264   4.965
60120SOL     OW82192   4.934   6.790   7.638
60120SOL    HW182193   5.024   6.801   7.607
60120SOL    HW282194   4.881   6.840   7.577
60121SOL     OW82195  11.588   9.430  14.802
60121SOL    HW182196  11.562   9.468  14.718
60121SOL    HW282197  11.681   9.452  14.812
60122SOL     OW82198   9.893   5.883   2.902
60122SOL    HW182199   9.890   5.829   2.981
60122SOL    HW282200   9.957   5.951   2.921
60123SOL     OW82201  10.973   6.996   7.518
60123SOL    HW182202  11.024   7.074   7.542
60123SOL    HW282203  10.979   6.939   7.595
60124SOL     OW82204   6.013  14.295   1.056
60124SOL    HW182205   6.006  14.200   1.050
60124SOL    HW282206   6.066  14.311   1.134
60125SOL     OW82207   0.822   8.156   3.479
60125SOL    HW182208   0.873   8.233   3.454
60125SOL    HW282209   0.758   8.145   3.409
60126SOL     OW82210   5.385   1.696   9.960
60126SOL    HW182211   5.463   1.742   9.927
60126SOL    HW282212   5.389   1.708  10.055
60127SOL     OW82213   8.335   5.061   8.284
60127SOL    HW182214   8.261   5.096   8.334
60127SOL    HW282215   8.405   5.124   8.299
60128SOL     OW82216  13.968   9.521  12.400
60128SOL    HW182217  14.029   9.595  12.404
60128SOL    HW282218  13.925   9.521  12.485
60129SOL     OW82219   5.046   1.710   6.931
60129SOL    HW182220   5.111   1.648   6.963
60129SOL    HW282221   4.962   1.665   6.942
60130SOL     OW82222   1.131  13.958   0.073
60130SOL    HW182223   1.209  13.909   0.047
60130SOL    HW282224   1.066  13.935   0.006
60131SOL     OW82225   3.876   1.245   7.243
60131SOL    HW182226   3.823   1.189   7.186
60131SOL    HW282227   3.822   1.257   7.321
60132SOL     OW82228   1.760  12.097   3.962
60132SOL    HW182229   1.805  12.043   3.896
60132SOL    HW282230   1.727  12.172   3.914
60133SOL     OW82231  14.119   1.575   6.408
60133SOL    HW182232  14.088   1.522   6.482
60133SOL    HW282233  14.143   1.511   6.341
60134SOL     OW82234  12.346   9.803  11.896
60134SOL    HW182235  12.314   9.853  11.821
60134SOL    HW282236  12.409   9.741  11.859
60135SOL     OW82237  10.666  13.596   2.470
60135SOL    HW182238  10.750  13.635   2.446
60135SOL    HW282239  10.685  13.503   2.483
60136SOL     OW82240  12.024   1.359   5.812
60136SOL    HW182241  12.106   1.372   5.764
60136SOL    HW282242  12.052   1.330   5.899
60137SOL     OW82243   1.533   8.250  11.081
60137SOL    HW182244   1.443   8.262  11.051
60137SOL    HW282245   1.586   8.252  11.001
60138SOL     OW82246   7.382   4.234   1.977
60138SOL    HW182247   7.470   4.273   1.981
60138SOL    HW282248   7.324   4.303   2.010
60139SOL     OW82249   2.750  12.142   7.651
60139SOL    HW182250   2.707  12.156   7.736
60139SOL    HW282251   2.778  12.229   7.623
60140SOL     OW82252   7.219   3.686   5.621
60140SOL    HW182253   7.263   3.641   5.549
60140SOL    HW282254   7.141   3.724   5.581
60141SOL     OW82255  11.922   4.353   3.470
60141SOL    HW182256  11.988   4.302   3.423
60141SOL    HW282257  11.971   4.424   3.512
60142SOL     OW82258   9.865  10.703   7.205
60142SOL    HW182259   9.769  10.696   7.212
60142SOL    HW282260   9.884  10.681   7.114
60143SOL     OW82261   4.377   1.416   5.809
60143SOL    HW182262   4.335   1.332   5.832
60143SOL    HW282263   4.411   1.449   5.892
60144SOL     OW82264   3.811   8.804  13.442
60144SOL    HW182265   3.753   8.876  13.467
60144SOL    HW282266   3.886   8.846  13.401
60145SOL     OW82267   3.014   8.879   0.995
60145SOL    HW182268   2.941   8.838   0.950
60145SOL    HW282269   2.979   8.962   1.029
60146SOL     OW82270   3.616   7.311   4.918
60146SOL    HW182271   3.658   7.395   4.900
60146SOL    HW282272   3.540   7.332   4.972
60147SOL     OW82273  10.057  13.968  12.219
60147SOL    HW182274   9.994  13.992  12.151
60147SOL    HW282275  10.117  13.907  12.176
60148SOL     OW82276   7.591  10.438  14.195
60148SOL    HW182277   7.538  10.488  14.257
60148SOL    HW282278   7.607  10.499  14.122
60149SOL     OW82279  13.222   7.373   0.599
60149SOL    HW182280  13.269   7.298   0.637
60149SOL    HW282281  13.193   7.423   0.675
60150SOL     OW82282   7.411   2.381  14.094
60150SOL    HW182283   7.396   2.442  14.022
60150SOL    HW282284   7.325   2.345  14.114
60151SOL     OW82285  11.349  12.049   8.072
60151SOL    HW182286  11.316  11.967   8.035
60151SOL    HW282287  11.429  12.067   8.023
60152SOL     OW82288  13.532   4.395   5.019
60152SOL    HW182289  13.445   4.354   5.020
60152SOL    HW282290  13.559   4.396   5.111
60153SOL     OW82291  12.236   5.981   1.319
60153SOL    HW182292  12.251   5.991   1.225
60153SOL    HW282293  12.176   6.052   1.342
60154SOL     OW82294  14.343   9.201   1.529
60154SOL    HW182295  14.435   9.201   1.557
60154SOL    HW282296  14.347   9.216   1.434
60155SOL     OW82297   0.010   6.747   5.985
60155SOL    HW182298   0.041   6.755   6.075
60155SOL    HW282299   0.012   6.837   5.951
60156SOL     OW82300   8.952   3.224   3.073
60156SOL    HW182301   8.951   3.314   3.039
60156SOL    HW282302   9.040   3.192   3.052
60157SOL     OW82303   3.900  10.013   8.616
60157SOL    HW182304   3.858  10.051   8.538
60157SOL    HW282305   3.897  10.082   8.681
60158SOL     OW82306   8.210   2.072   9.963
60158SOL    HW182307   8.291   2.110   9.997
60158SOL    HW282308   8.142   2.103  10.023
60159SOL     OW82309  10.357   3.867   8.891
60159SOL    HW182310  10.341   3.893   8.982
60159SOL    HW282311  10.448   3.894   8.875
60160SOL     OW82312   7.762   9.817   4.641
60160SOL    HW182313   7.839   9.873   4.632
60160SOL    HW282314   7.690   9.878   4.659
60161SOL     OW82315  10.414   5.349   2.497
60161SOL    HW182316  10.394   5.442   2.505
60161SOL    HW282317  10.501   5.340   2.537
60162SOL     OW82318   7.006  11.862   3.920
60162SOL    HW182319   7.039  11.894   3.836
60162SOL    HW282320   6.919  11.902   3.928
60163SOL     OW82321  13.233   5.400  13.449
60163SOL    HW182322  13.184   5.435  13.374
60163SOL    HW282323  13.307   5.354  13.410
60164SOL     OW82324   6.928  11.428   1.436
60164SOL    HW182325   6.892  11.502   1.485
60164SOL    HW282326   6.997  11.393   1.493
60165SOL     OW82327  12.111  12.513   5.615
60165SOL    HW182328  12.154  12.508   5.530
60165SOL    HW282329  12.144  12.438   5.664
60166SOL     OW82330   2.680  13.209   2.874
60166SOL    HW182331   2.694  13.280   2.811
60166SOL    HW282332   2.586  13.190   2.868
60167SOL     OW82333   0.607  11.781   6.395
60167SOL    HW182334   0.649  11.864   6.414
60167SOL    HW282335   0.663  11.715   6.435
60168SOL     OW82336   8.625  14.360  10.663
60168SOL    HW182337   8.626  14.370  10.568
60168SOL    HW282338   8.689  14.291  10.681
60169SOL     OW82339   0.148   9.602  12.217
60169SOL    HW182340   0.221   9.636  12.165
60169SOL    HW282341   0.185   9.526  12.262
60170SOL     OW82342  11.472  12.977   0.591
60170SOL    HW182343  11.532  12.981   0.516
60170SOL    HW282344  11.497  12.898   0.638
60171SOL     OW82345  12.991  14.430   8.111
60171SOL    HW182346  13.015  14.455   8.022
60171SOL    HW282347  12.980  14.335   8.107
60172SOL     OW82348   2.087  10.695   2.104
60172SOL    HW182349   2.023  10.675   2.036
60172SOL    HW282350   2.035  10.732   2.175
60173SOL     OW82351   2.263   5.164   2.454
60173SOL    HW182352   2.214   5.245   2.470
60173SOL    HW282353   2.324   5.158   2.528
60174SOL     OW82354   4.141   6.409   8.253
60174SOL    HW182355   4.134   6.350   8.179
60174SOL    HW282356   4.226   6.388   8.293
60175SOL     OW82357   4.744   5.896   0.251
60175SOL    HW182358   4.693   5.831   0.299
60175SOL    HW282359   4.679   5.943   0.199
60176SOL     OW82360   2.696   2.675   0.699
60176SOL    HW182361   2.653   2.745   0.748
60176SOL    HW282362   2.759   2.637   0.761
60177SOL     OW82363   8.296   9.860   4.981
60177SOL    HW182364   8.240   9.852   4.904
60177SOL    HW282365   8.247   9.814   5.050
60178SOL     OW82366   1.727  13.068   6.680
60178SOL    HW182367   1.795  13.002   6.665
60178SOL    HW282368   1.696  13.051   6.769
60179SOL     OW82369  11.068   5.504   4.762
60179SOL    HW182370  11.047   5.552   4.842
60179SOL    HW282371  11.135   5.440   4.790
60180SOL     OW82372   4.062   5.273  12.354
60180SOL    HW182373   4.014   5.281  12.436
60180SOL    HW282374   4.091   5.362  12.333
60181SOL     OW82375  10.028   0.193   9.370
60181SOL    HW182376  10.087   0.256   9.410
60181SOL    HW282377  10.084   0.135   9.319
60182SOL     OW82378   0.161   5.728   5.538
60182SOL    HW182379   0.184   5.815   5.570
60182SOL    HW282380   0.100   5.744   5.466
60183SOL     OW82381  14.059   8.942   3.987
60183SOL    HW182382  14.018   8.891   4.056
60183SOL    HW282383  14.083   8.878   3.920
60184SOL     OW82384   2.466   4.684   7.933
60184SOL    HW182385   2.472   4.637   7.850
60184SOL    HW282386   2.552   4.674   7.973
60185SOL     OW82387   2.462  12.316  10.794
60185SOL    HW182388   2.496  12.398  10.758
60185SOL    HW282389   2.385  12.341  10.844
60186SOL     OW82390   0.363   4.832  11.632
60186SOL    HW182391   0.355   4.924  11.654
60186SOL    HW282392   0.360   4.830  11.536
60187SOL     OW82393   3.541   5.835   1.165
60187SOL    HW182394   3.472   5.826   1.231
60187SOL    HW282395   3.619   5.801   1.207
60188SOL     OW82396  13.151   0.101   5.527
60188SOL    HW182397  13.090   0.061   5.590
60188SOL    HW282398  13.206   0.028   5.497
60189SOL     OW82399   8.720   4.866  11.584
60189SOL    HW182400   8.798   4.903  11.543
60189SOL    HW282401   8.706   4.920  11.662
60190SOL     OW82402   3.984   6.154   2.562
60190SOL    HW182403   3.996   6.106   2.480
60190SOL    HW282404   3.983   6.087   2.630
60191SOL     OW82405   3.282  11.786  14.564
60191SOL    HW182406   3.376  11.784  14.547
60191SOL    HW282407   3.272  11.835  14.645
60192SOL     OW82408   0.754  11.922   7.157
60192SOL    HW182409   0.818  11.941   7.226
60192SOL    HW282410   0.808  11.903   7.080
60193SOL     OW82411  14.846  12.294   6.455
60193SOL    HW182412  14.876  12.302   6.365
60193SOL    HW282413  14.810  12.205   6.461
60194SOL     OW82414   9.742   9.383   2.296
60194SOL    HW182415   9.758   9.354   2.386
60194SOL    HW282416   9.823   9.426   2.270
60195SOL     OW82417   7.965   5.725  12.576
60195SOL    HW182418   7.899   5.731  12.507
60195SOL    HW282419   7.942   5.647  12.626
60196SOL     OW82420  11.843   0.371   8.387
60196SOL    HW182421  11.753   0.341   8.379
60196SOL    HW282422  11.889   0.329   8.313
60197SOL     OW82423  14.687   3.878   3.845
60197SOL    HW182424  14.632   3.874   3.767
60197SOL    HW282425  14.707   3.970   3.857
60198SOL     OW82426   0.794  10.510  11.063
60198SOL    HW182427   0.795  10.503  11.158
60198SOL    HW282428   0.742  10.436  11.033
60199SOL     OW82429   1.831   3.771   0.818
60199SOL    HW182430   1.912   3.817   0.795
60199SOL    HW282431   1.840   3.753   0.912
60200SOL     OW82432  11.832  13.374   0.365
60200SOL    HW182433  11.836  13.445   0.300
60200SOL    HW282434  11.920  13.336   0.364
60201SOL     OW82435   5.795   2.942   7.870
60201SOL    HW182436   5.854   2.967   7.799
60201SOL    HW282437   5.789   2.847   7.864
60202SOL     OW82438   1.110   6.836  11.453
60202SOL    HW182439   1.075   6.747  11.450
60202SOL    HW282440   1.034   6.892  11.440
60203SOL     OW82441   7.787  10.471   1.468
60203SOL    HW182442   7.800  10.460   1.562
60203SOL    HW282443   7.856  10.417   1.428
60204SOL     OW82444   0.059   8.864   9.855
60204SOL    HW182445   0.101   8.871   9.941
60204SOL    HW282446   0.130   8.843   9.795
60205SOL     OW82447   2.049   9.792  13.211
60205SOL    HW182448   2.023   9.787  13.303
60205SOL    HW282449   2.017   9.711  13.172
60206SOL     OW82450   0.802   0.053  14.501
60206SOL    HW182451   0.859   0.088  14.432
60206SOL    HW282452   0.728   0.015  14.453
60207SOL     OW82453   6.601   8.096   2.861
60207SOL    HW182454   6.532   8.110   2.926
60207SOL    HW282455   6.658   8.029   2.899
60208SOL     OW82456   4.422  10.648   5.458
60208SOL    HW182457   4.466  10.621   5.539
60208SOL    HW282458   4.403  10.741   5.472
60209SOL     OW82459   2.093   3.997  10.353
60209SOL    HW182460   2.186   3.976  10.360
60209SOL    HW282461   2.083   4.081  10.398
60210SOL     OW82462  14.630   4.505   3.027
60210SOL    HW182463  14.606   4.413   3.019
60210SOL    HW282464  14.562   4.543   3.083
60211SOL     OW82465   2.992   0.034   9.435
60211SOL    HW182466   3.059   0.074   9.490
60211SOL    HW282467   2.970   0.102   9.371
60212SOL     OW82468   0.045   3.191   5.116
60212SOL    HW182469   0.055   3.096   5.123
60212SOL    HW282470   0.024   3.206   5.024
60213SOL     OW82471   6.226   9.602   6.357
60213SOL    HW182472   6.164   9.666   6.391
60213SOL    HW282473   6.185   9.568   6.278
60214SOL     OW82474  10.075  10.670   1.772
60214SOL    HW182475  10.026  10.745   1.804
60214SOL    HW282476  10.151  10.664   1.831
60215SOL     OW82477   9.069  11.758   6.441
60215SOL    HW182478   9.098  11.722   6.525
60215SOL    HW282479   9.090  11.690   6.377
60216SOL     OW82480   9.736  10.964   3.128
60216SOL    HW182481   9.802  11.002   3.070
60216SOL    HW282482   9.670  10.929   3.069
60217SOL     OW82483  13.353   5.372   5.264
60217SOL    HW182484  13.296   5.389   5.339
60217SOL    HW282485  13.299   5.322   5.204
60218SOL     OW82486   2.342   7.024   3.086
60218SOL    HW182487   2.371   7.065   3.167
60218SOL    HW282488   2.417   6.973   3.055
60219SOL     OW82489   5.404   0.667   5.749
60219SOL    HW182490   5.482   0.705   5.708
60219SOL    HW282491   5.360   0.742   5.789
60220SOL     OW82492   4.283  11.903   7.426
60220SOL    HW182493   4.298  11.818   7.385
60220SOL    HW282494   4.262  11.882   7.517
60221SOL     OW82495   5.768   0.456   9.013
60221SOL    HW182496   5.810   0.398   8.950
60221SOL    HW282497   5.832   0.465   9.084
60222SOL     OW82498   7.852  12.687   5.910
60222SOL    HW182499   7.793  12.632   5.859
60222SOL    HW282500   7.880  12.756   5.850
60223SOL     OW82501   3.562   1.594   0.245
60223SOL    HW182502   3.530   1.666   0.300
60223SOL    HW282503   3.541   1.622   0.155
60224SOL     OW82504   1.373   5.611  10.357
60224SOL    HW182505   1.285   5.610  10.395
60224SOL    HW282506   1.377   5.531  10.304
60225SOL     OW82507   4.812   4.206  12.959
60225SOL    HW182508   4.888   4.245  12.917
60225SOL    HW282509   4.836   4.114  12.972
60226SOL     OW82510   5.873  13.106  10.439
60226SOL    HW182511   5.782  13.128  10.455
60226SOL    HW282512   5.902  13.166  10.371
60227SOL     OW82513   4.829  13.259   2.621
60227SOL    HW182514   4.845  13.272   2.715
60227SOL    HW282515   4.798  13.344   2.590
60228SOL     OW82516   2.250  12.799  10.747
60228SOL    HW182517   2.177  12.740  10.730
60228SOL    HW282518   2.291  12.765  10.827
60229SOL     OW82519   5.683   3.693   4.035
60229SOL    HW182520   5.759   3.699   3.978
60229SOL    HW282521   5.611   3.669   3.976
60230SOL     OW82522   3.907   9.031   8.794
60230SOL    HW182523   3.987   9.080   8.808
60230SOL    HW282524   3.929   8.966   8.727
60231SOL     OW82525   6.030  13.709   0.325
60231SOL    HW182526   5.982  13.674   0.400
60231SOL    HW282527   6.063  13.793   0.354
60232SOL     OW82528  10.781   0.192  10.995
60232SOL    HW182529  10.749   0.103  10.983
60232SOL    HW282530  10.859   0.197  10.939
60233SOL     OW82531  11.752   7.979   9.193
60233SOL    HW182532  11.829   7.944   9.239
60233SOL    HW282533  11.686   7.988   9.262
60234SOL     OW82534  14.276   0.250   0.587
60234SOL    HW182535  14.245   0.172   0.632
60234SOL    HW282536  14.228   0.322   0.629
60235SOL     OW82537  11.125   6.666   5.952
60235SOL    HW182538  11.127   6.578   5.913
60235SOL    HW282539  11.182   6.659   6.029
60236SOL     OW82540  11.976   8.666   9.560
60236SOL    HW182541  11.889   8.637   9.588
60236SOL    HW282542  12.025   8.586   9.543
60237SOL     OW82543  11.299  14.215  11.049
60237SOL    HW182544  11.306  14.274  10.974
60237SOL    HW282545  11.289  14.128  11.009
60238SOL     OW82546   3.666   3.286   9.409
60238SOL    HW182547   3.647   3.273   9.502
60238SOL    HW282548   3.581   3.283   9.366
60239SOL     OW82549   8.838   2.627  11.256
60239SOL    HW182550   8.896   2.567  11.302
60239SOL    HW282551   8.832   2.703  11.314
60240SOL     OW82552  10.626   0.324  10.398
60240SOL    HW182553  10.533   0.299  10.402
60240SOL    HW282554  10.662   0.270  10.328
60241SOL     OW82555  12.561  10.377   9.767
60241SOL    HW182556  12.559  10.403   9.675
60241SOL    HW282557  12.513  10.446   9.813
60242SOL     OW82558   1.599   8.702   0.734
60242SOL    HW182559   1.666   8.751   0.685
60242SOL    HW282560   1.627   8.611   0.728
60243SOL     OW82561   5.225  10.164  12.920
60243SOL    HW182562   5.183  10.083  12.949
60243SOL    HW282563   5.192  10.179  12.832
60244SOL     OW82564   8.458   5.018  14.817
60244SOL    HW182565   8.471   4.925  14.797
60244SOL    HW282566   8.363   5.029  14.817
60245SOL     OW82567   6.791   1.498   6.757
60245SOL    HW182568   6.848   1.422   6.748
60245SOL    HW282569   6.713   1.476   6.706
60246SOL     OW82570   8.693  10.213   3.080
60246SOL    HW182571   8.635  10.147   3.119
60246SOL    HW282572   8.688  10.196   2.986
60247SOL     OW82573   2.109  11.501  14.585
60247SOL    HW182574   2.033  11.444  14.573
60247SOL    HW282575   2.094  11.574  14.526
60248SOL     OW82576   5.012   5.652   1.289
60248SOL    HW182577   4.992   5.600   1.367
60248SOL    HW282578   4.937   5.711   1.278
60249SOL     OW82579   9.698   6.394  14.771
60249SOL    HW182580   9.622   6.451  14.756
60249SOL    HW282581   9.707   6.390  14.866
60250SOL     OW82582   2.398   7.659  13.078
60250SOL    HW182583   2.308   7.669  13.049
60250SOL    HW282584   2.423   7.746  13.109
60251SOL     OW82585   9.548   8.874   3.755
60251SOL    HW182586   9.459   8.849   3.781
60251SOL    HW282587   9.549   8.861   3.660
60252SOL     OW82588   1.048   9.527   2.296
60252SOL    HW182589   1.008   9.550   2.380
60252SOL    HW282590   1.031   9.603   2.241
60253SOL     OW82591  13.977   8.552  13.135
60253SOL    HW182592  13.947   8.463  13.119
60253SOL    HW282593  13.897   8.599  13.161
60254SOL     OW82594  12.611   8.449  11.326
60254SOL    HW182595  12.598   8.538  11.358
60254SOL    HW282596  12.523   8.414  11.316
60255SOL     OW82597   3.687   6.019   3.864
60255SOL    HW182598   3.636   6.064   3.932
60255SOL    HW282599   3.630   5.947   3.836
60256SOL     OW82600   8.993   5.129  12.864
60256SOL    HW182601   9.006   5.053  12.807
60256SOL    HW282602   8.982   5.202  12.803
60257SOL     OW82603   6.901   2.970   8.199
60257SOL    HW182604   6.822   3.024   8.201
60257SOL    HW282605   6.918   2.956   8.106
60258SOL     OW82606   0.349   9.612  11.357
60258SOL    HW182607   0.292   9.683  11.386
60258SOL    HW282608   0.437   9.652  11.353
60259SOL     OW82609   7.664   6.219   5.166
60259SOL    HW182610   7.610   6.293   5.193
60259SOL    HW282611   7.693   6.242   5.077
60260SOL     OW82612  14.203  12.397  14.168
60260SOL    HW182613  14.198  12.390  14.263
60260SOL    HW282614  14.247  12.316  14.140
60261SOL     OW82615  10.380   7.606   1.856
60261SOL    HW182616  10.286   7.622   1.857
60261SOL    HW282617  10.407   7.615   1.948
60262SOL     OW82618   9.230   3.061   3.064
60262SOL    HW182619   9.265   3.150   3.062
60262SOL    HW282620   9.292   3.010   3.012
60263SOL     OW82621   1.108  14.789  11.610
60263SOL    HW182622   1.036  14.749  11.562
60263SOL    HW282623   1.083   0.003  11.618
60264SOL     OW82624  14.846   8.857  10.729
60264SOL    HW182625   0.059   8.828  10.728
60264SOL    HW282626  14.800   8.790  10.779
60265SOL     OW82627  14.034   9.168   4.639
60265SOL    HW182628  14.115   9.214   4.616
60265SOL    HW282629  14.049   9.077   4.610
60266SOL     OW82630   7.035  10.527   9.579
60266SOL    HW182631   6.982  10.606   9.571
60266SOL    HW282632   6.993  10.465   9.520
60267SOL     OW82633   2.412   2.357   9.649
60267SOL    HW182634   2.497   2.364   9.692
60267SOL    HW282635   2.349   2.357   9.721
60268SOL     OW82636   5.131  14.737   4.013
60268SOL    HW182637   5.104  14.754   4.103
60268SOL    HW282638   5.059  14.688   3.974
60269SOL     OW82639   7.771  11.564  10.311
60269SOL    HW182640   7.806  11.476  10.299
60269SOL    HW282641   7.694  11.567  10.255
60270SOL     OW82642   9.822  10.194   3.805
60270SOL    HW182643   9.859  10.145   3.879
60270SOL    HW282644   9.886  10.182   3.735
60271SOL     OW82645   3.441  11.636   7.138
60271SOL    HW182646   3.372  11.694   7.107
60271SOL    HW282647   3.395  11.560   7.173
60272SOL     OW82648  14.143  11.415   2.924
60272SOL    HW182649  14.088  11.492   2.910
60272SOL    HW282650  14.210  11.443   2.986
60273SOL     OW82651   5.521  12.372   2.997
60273SOL    HW182652   5.525  12.454   2.949
60273SOL    HW282653   5.451  12.323   2.954
60274SOL     OW82654   6.166   3.788   5.619
60274SOL    HW182655   6.231   3.854   5.642
60274SOL    HW282656   6.090   3.808   5.674
60275SOL     OW82657   9.986  14.135  11.310
60275SOL    HW182658   9.956  14.082  11.236
60275SOL    HW282659   9.920  14.119  11.378
60276SOL     OW82660   0.584   6.423   8.933
60276SOL    HW182661   0.619   6.371   8.861
60276SOL    HW282662   0.560   6.358   8.999
60277SOL     OW82663  11.217  11.315  13.941
60277SOL    HW182664  11.181  11.403  13.935
60277SOL    HW282665  11.166  11.263  13.878
60278SOL     OW82666   7.073   5.718   7.013
60278SOL    HW182667   7.087   5.632   7.053
60278SOL    HW282668   7.152   5.768   7.034
60279SOL     OW82669   5.225  11.108  10.612
60279SOL    HW182670   5.201  11.188  10.566
60279SOL    HW282671   5.148  11.052  10.605
60280SOL     OW82672  14.050   4.677   2.743
60280SOL    HW182673  13.966   4.636   2.761
60280SOL    HW282674  14.054   4.752   2.802
60281SOL     OW82675   9.538  10.383   0.248
60281SOL    HW182676   9.579  10.380   0.335
60281SOL    HW282677   9.533  10.477   0.228
60282SOL     OW82678   9.970  11.786  13.148
60282SOL    HW182679   9.987  11.703  13.103
60282SOL    HW282680  10.056  11.827  13.157
60283SOL     OW82681   6.445  13.773   7.019
60283SOL    HW182682   6.421  13.680   7.023
60283SOL    HW282683   6.455  13.799   7.111
60284SOL     OW82684   3.444   2.541  11.701
60284SOL    HW182685   3.495   2.501  11.771
60284SOL    HW282686   3.377   2.593  11.745
60285SOL     OW82687   0.113   8.391   5.683
60285SOL    HW182688   0.117   8.342   5.600
60285SOL    HW282689   0.201   8.384   5.719
60286SOL     OW82690  14.063   0.000   2.044
60286SOL    HW182691  14.078  14.785   2.053
60286SOL    HW282692  14.061   0.033   2.134
60287SOL     OW82693  12.431  14.875   8.621
60287SOL    HW182694  12.372   0.029   8.689
60287SOL    HW282695  12.387   0.017   8.539
60288SOL     OW82696   7.120  14.211   8.259
60288SOL    HW182697   7.153  14.285   8.309
60288SOL    HW282698   7.080  14.250   8.182
60289SOL     OW82699   9.513   3.887  14.866
60289SOL    HW182700   9.516   3.811   0.046
60289SOL    HW282701   9.514   3.849  14.778
60290SOL     OW82702  11.297  11.547   9.354
60290SOL    HW182703  11.251  11.576   9.275
60290SOL    HW282704  11.386  11.579   9.343
60291SOL     OW82705   0.333   4.559   4.974
60291SOL    HW182706   0.334   4.539   4.881
60291SOL    HW282707   0.359   4.476   5.016
60292SOL     OW82708   2.202   6.178   4.210
60292SOL    HW182709   2.134   6.130   4.162
60292SOL    HW282710   2.200   6.266   4.172
60293SOL     OW82711   8.341   5.296  14.364
60293SOL    HW182712   8.283   5.366  14.392
60293SOL    HW282713   8.364   5.250  14.445
60294SOL     OW82714   4.224  12.404   7.749
60294SOL    HW182715   4.246  12.470   7.815
60294SOL    HW282716   4.231  12.449   7.665
60295SOL     OW82717  14.538   7.661  13.796
60295SOL    HW182718  14.622   7.706  13.799
60295SOL    HW282719  14.488   7.708  13.730
60296SOL     OW82720   1.429  11.087   0.051
60296SOL    HW182721   1.356  11.025   0.049
60296SOL    HW282722   1.446  11.105  14.837
60297SOL     OW82723   6.457  13.162  12.818
60297SOL    HW182724   6.447  13.140  12.911
60297SOL    HW282725   6.375  13.204  12.795
60298SOL     OW82726  13.323   7.523   2.870
60298SOL    HW182727  13.389   7.578   2.913
60298SOL    HW282728  13.363   7.496   2.788
60299SOL     OW82729   0.891  10.526   9.786
60299SOL    HW182730   0.948  10.529   9.862
60299SOL    HW282731   0.930  10.588   9.724
60300SOL     OW82732   6.702   8.750   4.370
60300SOL    HW182733   6.656   8.767   4.287
60300SOL    HW282734   6.734   8.836   4.397
60301SOL     OW82735   6.988   2.241   0.571
60301SOL    HW182736   7.041   2.316   0.543
60301SOL    HW282737   7.051   2.172   0.588
60302SOL     OW82738   7.461   0.115  10.291
60302SOL    HW182739   7.519   0.126  10.366
60302SOL    HW282740   7.417   0.200  10.282
60303SOL     OW82741   0.215   4.167   3.397
60303SOL    HW182742   0.300   4.211   3.391
60303SOL    HW282743   0.220   4.116   3.478
60304SOL     OW82744   7.923   4.902   4.263
60304SOL    HW182745   7.884   4.838   4.322
60304SOL    HW282746   7.963   4.967   4.321
60305SOL     OW82747   9.587   1.627   9.864
60305SOL    HW182748   9.669   1.610   9.817
60305SOL    HW282749   9.581   1.557   9.929
60306SOL     OW82750   5.551   3.929   0.039
60306SOL    HW182751   5.534   3.885  14.835
60306SOL    HW282752   5.492   3.887   0.101
60307SOL     OW82753   6.831  13.248   6.741
60307SOL    HW182754   6.779  13.288   6.671
60307SOL    HW282755   6.906  13.307   6.751
60308SOL     OW82756  12.286   5.520  11.302
60308SOL    HW182757  12.211   5.498  11.357
60308SOL    HW282758  12.253   5.587  11.242
60309SOL     OW82759  12.209   1.310  13.540
60309SOL    HW182760  12.119   1.330  13.515
60309SOL    HW282761  12.248   1.269  13.463
60310SOL     OW82762   5.935   3.632   7.959
60310SOL    HW182763   5.991   3.697   7.917
60310SOL    HW282764   5.995   3.576   8.008
60311SOL     OW82765  11.575   9.268   2.430
60311SOL    HW182766  11.495   9.271   2.482
60311SOL    HW282767  11.554   9.212   2.356
60312SOL     OW82768   1.495   8.553   3.934
60312SOL    HW182769   1.471   8.491   3.864
60312SOL    HW282770   1.538   8.625   3.888
60313SOL     OW82771   8.031  14.365   9.245
60313SOL    HW182772   8.035  14.453   9.283
60313SOL    HW282773   8.115  14.325   9.270
60314SOL     OW82774   1.711  12.593   8.781
60314SOL    HW182775   1.707  12.675   8.830
60314SOL    HW282776   1.727  12.526   8.848
60315SOL     OW82777   4.242  14.159   2.841
60315SOL    HW182778   4.161  14.200   2.872
60315SOL    HW282779   4.303  14.231   2.831
60316SOL     OW82780   8.511  13.198   6.040
60316SOL    HW182781   8.575  13.244   6.094
60316SOL    HW282782   8.430  13.248   6.051
60317SOL     OW82783   1.437  10.127  13.323
60317SOL    HW182784   1.368  10.192  13.311
60317SOL    HW282785   1.392  10.049  13.356
60318SOL     OW82786  10.787   7.560  12.302
60318SOL    HW182787  10.780   7.638  12.249
60318SOL    HW282788  10.734   7.494  12.256
60319SOL     OW82789   9.197   5.307   8.645
60319SOL    HW182790   9.217   5.396   8.616
60319SOL    HW282791   9.273   5.280   8.696
60320SOL     OW82792  12.680   7.617   9.879
60320SOL    HW182793  12.694   7.709   9.854
60320SOL    HW282794  12.766   7.576   9.866
60321SOL     OW82795  10.895   7.589   5.291
60321SOL    HW182796  10.990   7.606   5.293
60321SOL    HW282797  10.883   7.517   5.353
60322SOL     OW82798  12.923   2.238  14.529
60322SOL    HW182799  12.948   2.242  14.622
60322SOL    HW282800  13.003   2.209  14.485
60323SOL     OW82801  11.997   7.551   0.713
60323SOL    HW182802  12.074   7.582   0.665
60323SOL    HW282803  11.923   7.569   0.655
60324SOL     OW82804   9.681   6.337  11.357
60324SOL    HW182805   9.771   6.309  11.371
60324SOL    HW282806   9.685   6.391  11.278
60325SOL     OW82807  13.493   7.135   1.375
60325SOL    HW182808  13.578   7.103   1.403
60325SOL    HW282809  13.430   7.089   1.431
60326SOL     OW82810  12.607  13.562   4.564
60326SOL    HW182811  12.691  13.607   4.553
60326SOL    HW282812  12.573  13.552   4.476
60327SOL     OW82813   3.009   1.233   0.653
60327SOL    HW182814   2.941   1.199   0.710
60327SOL    HW282815   2.997   1.328   0.654
60328SOL     OW82816  14.000  12.829   0.806
60328SOL    HW182817  13.908  12.836   0.833
60328SOL    HW282818  14.024  12.919   0.782
60329SOL     OW82819   2.520   7.879   4.628
60329SOL    HW182820   2.443   7.849   4.677
60329SOL    HW282821   2.535   7.811   4.563
60330SOL     OW82822  11.022   1.647   3.617
60330SOL    HW182823  11.016   1.703   3.694
60330SOL    HW282824  11.011   1.558   3.652
60331SOL     OW82825   7.842   6.903   3.960
60331SOL    HW182826   7.747   6.893   3.958
60331SOL    HW282827   7.872   6.848   3.887
60332SOL     OW82828   4.828   7.350   0.244
60332SOL    HW182829   4.811   7.390   0.330
60332SOL    HW282830   4.914   7.308   0.253
60333SOL     OW82831   6.151   8.829  10.731
60333SOL    HW182832   6.066   8.788  10.744
60333SOL    HW282833   6.189   8.834  10.819
60334SOL     OW82834   3.151  10.844  10.320
60334SOL    HW182835   3.155  10.935  10.349
60334SOL    HW282836   3.106  10.798  10.391
60335SOL     OW82837   8.020   7.920  14.622
60335SOL    HW182838   7.926   7.924  14.609
60335SOL    HW282839   8.042   7.827  14.609
60336SOL     OW82840  13.246  11.162   0.826
60336SOL    HW182841  13.160  11.128   0.800
60336SOL    HW282842  13.264  11.232   0.763
60337SOL     OW82843   3.159   7.932   5.559
60337SOL    HW182844   3.181   7.942   5.466
60337SOL    HW282845   3.069   7.964   5.566
60338SOL     OW82846  14.859   0.207   7.334
60338SOL    HW182847   0.013   0.297   7.331
60338SOL    HW282848  14.878   0.171   7.248
60339SOL     OW82849   2.981   7.185   5.831
60339SOL    HW182850   3.000   7.155   5.920
60339SOL    HW282851   3.055   7.154   5.779
60340SOL     OW82852   2.087  14.762  11.076
60340SOL    HW182853   2.158  14.754  11.139
60340SOL    HW282854   2.024  14.820  11.118
60341SOL     OW82855   3.983   4.521   4.676
60341SOL    HW182856   3.999   4.487   4.765
60341SOL    HW282857   4.063   4.500   4.628
60342SOL     OW82858   8.862   6.115  10.836
60342SOL    HW182859   8.814   6.035  10.811
60342SOL    HW282860   8.954   6.089  10.836
60343SOL     OW82861   4.782   9.664  12.874
60343SOL    HW182862   4.794   9.714  12.793
60343SOL    HW282863   4.707   9.706  12.916
60344SOL     OW82864   4.613   5.937  14.759
60344SOL    HW182865   4.533   5.969  14.717
60344SOL    HW282866   4.593   5.938  14.852
60345SOL     OW82867   0.528   4.588   0.999
60345SOL    HW182868   0.547   4.681   0.986
60345SOL    HW282869   0.529   4.576   1.094
60346SOL     OW82870  14.681   6.780  14.326
60346SOL    HW182871  14.605   6.815  14.281
60346SOL    HW282872  14.665   6.798  14.419
60347SOL     OW82873   2.090   6.850   2.444
60347SOL    HW182874   2.105   6.801   2.363
60347SOL    HW282875   2.003   6.889   2.433
60348SOL     OW82876   5.775  14.399   2.605
60348SOL    HW182877   5.691  14.438   2.628
60348SOL    HW282878   5.754  14.329   2.544
60349SOL     OW82879   0.153   9.071   4.967
60349SOL    HW182880   0.216   9.079   5.039
60349SOL    HW282881   0.176   9.140   4.906
60350SOL     OW82882  11.597  14.179   4.758
60350SOL    HW182883  11.643  14.117   4.702
60350SOL    HW282884  11.618  14.151   4.847
60351SOL     OW82885  11.831   8.895   3.955
60351SOL    HW182886  11.797   8.858   4.036
60351SOL    HW282887  11.764   8.957   3.926
60352SOL     OW82888  14.795   4.792   9.053
60352SOL    HW182889  14.731   4.863   9.046
60352SOL    HW282890  14.762   4.724   8.995
60353SOL     OW82891   1.887   9.923   8.931
60353SOL    HW182892   1.893   9.957   8.841
60353SOL    HW282893   1.950   9.851   8.934
60354SOL     OW82894   2.176   2.356  10.358
60354SOL    HW182895   2.122   2.278  10.342
60354SOL    HW282896   2.160   2.411  10.281
60355SOL     OW82897   3.924   3.244   8.181
60355SOL    HW182898   3.935   3.154   8.150
60355SOL    HW282899   4.011   3.272   8.209
60356SOL     OW82900   5.995   7.198  13.279
60356SOL    HW182901   5.980   7.246  13.198
60356SOL    HW282902   6.009   7.265  13.345
60357SOL     OW82903   1.337   3.014   5.085
60357SOL    HW182904   1.323   2.919   5.091
60357SOL    HW282905   1.405   3.024   5.018
60358SOL     OW82906  11.711   6.922   5.406
60358SOL    HW182907  11.631   6.924   5.460
60358SOL    HW282908  11.694   6.986   5.337
60359SOL     OW82909   3.636   5.775  11.772
60359SOL    HW182910   3.710   5.717  11.757
60359SOL    HW282911   3.669   5.862  11.748
60360SOL     OW82912  13.208   4.713   8.662
60360SOL    HW182913  13.289   4.737   8.617
60360SOL    HW282914  13.178   4.633   8.617
60361SOL     OW82915   3.904   7.309  13.943
60361SOL    HW182916   3.968   7.365  13.900
60361SOL    HW282917   3.914   7.329  14.036
60362SOL     OW82918   8.614  10.291  14.438
60362SOL    HW182919   8.566  10.234  14.379
60362SOL    HW282920   8.703  10.294  14.402
60363SOL     OW82921   1.323  13.619   3.418
60363SOL    HW182922   1.274  13.691   3.458
60363SOL    HW282923   1.257  13.571   3.368
60364SOL     OW82924  12.239   5.265  12.431
60364SOL    HW182925  12.292   5.287  12.354
60364SOL    HW282926  12.245   5.342  12.487
60365SOL     OW82927   2.444   5.134  12.969
60365SOL    HW182928   2.379   5.115  12.901
60365SOL    HW282929   2.404   5.102  13.050
60366SOL     OW82930  14.515   2.267   8.477
60366SOL    HW182931  14.507   2.362   8.469
60366SOL    HW282932  14.447   2.242   8.540
60367SOL     OW82933  14.486   4.444   5.375
60367SOL    HW182934  14.481   4.421   5.282
60367SOL    HW282935  14.415   4.507   5.388
60368SOL     OW82936  14.648   5.193  11.859
60368SOL    HW182937  14.728   5.230  11.896
60368SOL    HW282938  14.580   5.258  11.879
60369SOL     OW82939  12.965   2.035   6.852
60369SOL    HW182940  12.946   1.945   6.882
60369SOL    HW282941  13.020   2.023   6.775
60370SOL     OW82942   2.046   3.846   6.948
60370SOL    HW182943   1.952   3.843   6.927
60370SOL    HW282944   2.082   3.767   6.909
60371SOL     OW82945   6.968   4.340  12.506
60371SOL    HW182946   6.916   4.274  12.552
60371SOL    HW282947   6.931   4.423  12.535
60372SOL     OW82948  13.252   8.076   3.107
60372SOL    HW182949  13.248   8.053   3.015
60372SOL    HW282950  13.336   8.041   3.137
60373SOL     OW82951   6.769  13.940  13.988
60373SOL    HW182952   6.834  13.903  14.048
60373SOL    HW282953   6.778  14.034  13.999
60374SOL     OW82954   4.085  14.671   7.630
60374SOL    HW182955   4.178  14.690   7.618
60374SOL    HW282956   4.066  14.603   7.566
60375SOL     OW82957  14.182  11.992   1.178
60375SOL    HW182958  14.152  12.047   1.106
60375SOL    HW282959  14.195  12.053   1.250
60376SOL     OW82960  14.839  10.218   2.700
60376SOL    HW182961  14.812  10.299   2.744
60376SOL    HW282962   0.026  10.180   2.759
60377SOL     OW82963   3.157  11.817  13.571
60377SOL    HW182964   3.219  11.833  13.641
60377SOL    HW282965   3.211  11.785  13.498
60378SOL     OW82966   3.714  10.062   6.586
60378SOL    HW182967   3.654  10.105   6.647
60378SOL    HW282968   3.748  10.133   6.532
60379SOL     OW82969  13.649   6.653  14.277
60379SOL    HW182970  13.599   6.733  14.294
60379SOL    HW282971  13.739   6.684  14.262
60380SOL     OW82972  11.386   0.234   1.431
60380SOL    HW182973  11.354   0.281   1.353
60380SOL    HW282974  11.479   0.221   1.414
60381SOL     OW82975   8.109   0.662   0.172
60381SOL    HW182976   8.107   0.706   0.087
60381SOL    HW282977   8.017   0.654   0.196
60382SOL     OW82978   4.416  14.775   3.973
60382SOL    HW182979   4.447  14.865   3.960
60382SOL    HW282980   4.321  14.781   3.969
60383SOL     OW82981   4.412  13.310  13.844
60383SOL    HW182982   4.411  13.253  13.767
60383SOL    HW282983   4.498  13.294  13.884
60384SOL     OW82984   5.929   5.190  14.782
60384SOL    HW182985   5.949   5.150  14.866
60384SOL    HW282986   5.905   5.281  14.804
60385SOL     OW82987   5.792  14.865  14.867
60385SOL    HW182988   5.739   0.061   0.017
60385SOL    HW282989   5.882   0.012   0.008
60386SOL     OW82990   0.585  10.852  11.797
60386SOL    HW182991   0.610  10.814  11.712
60386SOL    HW282992   0.619  10.941  11.793
60387SOL     OW82993  14.219   4.214   8.372
60387SOL    HW182994  14.226   4.183   8.462
60387SOL    HW282995  14.288   4.167   8.325
60388SOL     OW82996   6.450   2.550  13.051
60388SOL    HW182997   6.461   2.645  13.043
60388SOL    HW282998   6.506   2.514  12.983
60389SOL     OW82999   9.337  13.244   0.420
60389SOL    HW183000   9.294  13.181   0.478
60389SOL    HW283001   9.342  13.324   0.472
60390SOL     OW83002   7.008  13.389  14.087
60390SOL    HW183003   7.051  13.406  14.003
60390SOL    HW283004   7.064  13.431  14.152
60391SOL     OW83005   1.184   1.708  10.239
60391SOL    HW183006   1.205   1.728  10.330
60391SOL    HW283007   1.251   1.646  10.212
60392SOL     OW83008   6.087   8.540   0.741
60392SOL    HW183009   6.101   8.603   0.813
60392SOL    HW283010   5.993   8.540   0.727
60393SOL     OW83011   0.023   5.050  14.771
60393SOL    HW183012   0.037   5.132  14.723
60393SOL    HW283013  14.841   5.073  14.840
60394SOL     OW83014   8.017  14.850   1.902
60394SOL    HW183015   8.031  14.762   1.865
60394SOL    HW283016   8.020  14.837   1.996
60395SOL     OW83017  13.519   8.395   7.815
60395SOL    HW183018  13.476   8.468   7.859
60395SOL    HW283019  13.551   8.432   7.733
60396SOL     OW83020   5.239   5.409   0.774
60396SOL    HW183021   5.327   5.419   0.809
60396SOL    HW283022   5.234   5.473   0.703
60397SOL     OW83023   2.953   8.266   5.825
60397SOL    HW183024   2.873   8.223   5.853
60397SOL    HW283025   3.023   8.220   5.872
60398SOL     OW83026  12.894  13.909   6.881
60398SOL    HW183027  12.931  13.869   6.960
60398SOL    HW283028  12.970  13.943   6.834
60399SOL     OW83029   9.685   6.584   5.381
60399SOL    HW183030   9.776   6.568   5.357
60399SOL    HW283031   9.690   6.625   5.467
60400SOL     OW83032   0.720  13.307   9.345
60400SOL    HW183033   0.807  13.334   9.317
60400SOL    HW283034   0.729  13.213   9.362
60401SOL     OW83035   0.028   7.810   3.155
60401SOL    HW183036   0.075   7.891   3.169
60401SOL    HW283037   0.052   7.755   3.230
60402SOL     OW83038   7.598  12.680   0.902
60402SOL    HW183039   7.576  12.665   0.811
60402SOL    HW283040   7.572  12.600   0.948
60403SOL     OW83041  13.199   2.890   0.910
60403SOL    HW183042  13.134   2.885   0.980
60403SOL    HW283043  13.154   2.852   0.834
60404SOL     OW83044   8.117   7.257   6.139
60404SOL    HW183045   8.198   7.291   6.177
60404SOL    HW283046   8.072   7.216   6.213
60405SOL     OW83047  13.503  13.821  13.012
60405SOL    HW183048  13.592  13.806  13.043
60405SOL    HW283049  13.452  13.830  13.093
60406SOL     OW83050   0.631   3.947   9.146
60406SOL    HW183051   0.563   3.881   9.137
60406SOL    HW283052   0.585   4.023   9.183
60407SOL     OW83053  13.248   8.363  12.415
60407SOL    HW183054  13.269   8.450  12.452
60407SOL    HW283055  13.224   8.310  12.491
60408SOL     OW83056   8.928   3.662  10.950
60408SOL    HW183057   8.841   3.702  10.948
60408SOL    HW283058   8.912   3.569  10.934
60409SOL     OW83059   9.610  13.858   6.361
60409SOL    HW183060   9.521  13.894   6.367
60409SOL    HW283061   9.603  13.790   6.294
60410SOL     OW83062  10.134  14.189   6.260
60410SOL    HW183063  10.118  14.216   6.170
60410SOL    HW283064  10.185  14.109   6.252
60411SOL     OW83065   4.137  14.241  14.666
60411SOL    HW183066   4.193  14.220  14.590
60411SOL    HW283067   4.118  14.334  14.657
60412SOL     OW83068  12.591   5.390   2.602
60412SOL    HW183069  12.686   5.392   2.608
60412SOL    HW283070  12.562   5.471   2.644
60413SOL     OW83071   4.556  14.612   7.363
60413SOL    HW183072   4.553  14.695   7.315
60413SOL    HW283073   4.554  14.545   7.295
60414SOL     OW83074   8.832   2.101   4.932
60414SOL    HW183075   8.819   2.164   5.003
60414SOL    HW283076   8.744   2.085   4.899
60415SOL     OW83077   4.186  14.403   3.755
60415SOL    HW183078   4.222  14.322   3.719
60415SOL    HW283079   4.249  14.429   3.822
60416SOL     OW83080   9.368  11.023  12.338
60416SOL    HW183081   9.373  10.995  12.429
60416SOL    HW283082   9.378  11.118  12.342
60417SOL     OW83083  14.768   4.027  11.534
60417SOL    HW183084  14.733   4.014  11.446
60417SOL    HW283085  14.693   4.015  11.592
60418SOL     OW83086   0.536   1.400   1.081
60418SOL    HW183087   0.611   1.460   1.074
60418SOL    HW283088   0.549   1.338   1.010
60419SOL     OW83089   0.295   5.795   8.926
60419SOL    HW183090   0.284   5.855   8.852
60419SOL    HW283091   0.214   5.804   8.976
60420SOL     OW83092   9.752   4.185  10.445
60420SOL    HW183093   9.831   4.223  10.406
60420SOL    HW283094   9.768   4.188  10.539
60421SOL     OW83095   6.771   2.290   7.942
60421SOL    HW183096   6.848   2.236   7.924
60421SOL    HW283097   6.784   2.320   8.032
60422SOL     OW83098   1.681  13.093   9.420
60422SOL    HW183099   1.728  13.176   9.420
60422SOL    HW283100   1.606  13.108   9.479
60423SOL     OW83101   8.844   0.991   2.223
60423SOL    HW183102   8.805   1.020   2.305
60423SOL    HW283103   8.932   0.963   2.248
60424SOL     OW83104  14.795   2.033  14.535
60424SOL    HW183105  14.737   1.974  14.488
60424SOL    HW283106  14.852   2.071  14.468
60425SOL     OW83107   2.350  10.801   3.505
60425SOL    HW183108   2.284  10.731   3.508
60425SOL    HW283109   2.305  10.878   3.537
60426SOL     OW83110   9.601   4.411   1.354
60426SOL    HW183111   9.639   4.442   1.436
60426SOL    HW283112   9.625   4.479   1.290
60427SOL     OW83113  13.120   6.412  13.925
60427SOL    HW183114  13.212   6.393  13.909
60427SOL    HW283115  13.099   6.363  14.004
60428SOL     OW83116   1.268   9.249  11.014
60428SOL    HW183117   1.318   9.217  10.940
60428SOL    HW283118   1.200   9.304  10.976
60429SOL     OW83119   3.244   6.657  12.504
60429SOL    HW183120   3.294   6.620  12.431
60429SOL    HW283121   3.171   6.703  12.461
60430SOL     OW83122  11.813  10.599   3.147
60430SOL    HW183123  11.747  10.533   3.121
60430SOL    HW283124  11.890  10.577   3.093
60431SOL     OW83125   4.984   9.571   1.121
60431SOL    HW183126   4.900   9.527   1.115
60431SOL    HW283127   4.996   9.586   1.215
60432SOL     OW83128   1.068   3.848  11.209
60432SOL    HW183129   1.062   3.941  11.190
60432SOL    HW283130   1.111   3.843  11.295
60433SOL     OW83131  11.244   6.609   2.778
60433SOL    HW183132  11.197   6.689   2.756
60433SOL    HW283133  11.180   6.539   2.766
60434SOL     OW83134   7.178  14.022  11.320
60434SOL    HW183135   7.263  13.985  11.343
60434SOL    HW283136   7.184  14.114  11.345
60435SOL     OW83137   4.669   4.575   4.497
60435SOL    HW183138   4.690   4.662   4.530
60435SOL    HW283139   4.579   4.583   4.464
60436SOL     OW83140  13.763   8.535   8.976
60436SOL    HW183141  13.794   8.580   8.898
60436SOL    HW283142  13.814   8.574   9.048
60437SOL     OW83143   9.976   7.723   4.167
60437SOL    HW183144   9.909   7.662   4.136
60437SOL    HW283145   9.979   7.709   4.262
60438SOL     OW83146  12.953   7.166   0.692
60438SOL    HW183147  12.980   7.257   0.697
60438SOL    HW283148  13.034   7.117   0.680
60439SOL     OW83149   7.577  11.081  13.573
60439SOL    HW183150   7.529  11.160  13.599
60439SOL    HW283151   7.600  11.097  13.481
60440SOL     OW83152  12.631  10.655   0.835
60440SOL    HW183153  12.606  10.738   0.794
60440SOL    HW283154  12.595  10.588   0.776
60441SOL     OW83155  10.343   8.781  13.570
60441SOL    HW183156  10.253   8.813  13.564
60441SOL    HW283157  10.357   8.730  13.490
60442SOL     OW83158   8.372  13.080   2.532
60442SOL    HW183159   8.444  13.079   2.469
60442SOL    HW283160   8.320  13.157   2.509
60443SOL     OW83161   8.567   1.307   8.963
60443SOL    HW183162   8.594   1.341   9.048
60443SOL    HW283163   8.610   1.222   8.957
60444SOL     OW83164   9.978   3.984  12.033
60444SOL    HW183165  10.018   3.983  12.120
60444SOL    HW283166  10.032   3.924  11.981
60445SOL     OW83167  10.533   5.120   5.669
60445SOL    HW183168  10.445   5.148   5.696
60445SOL    HW283169  10.536   5.027   5.691
60446SOL     OW83170   2.679   0.925  13.121
60446SOL    HW183171   2.649   0.880  13.042
60446SOL    HW283172   2.772   0.905  13.127
60447SOL     OW83173   5.793  14.069   7.838
60447SOL    HW183174   5.764  13.991   7.884
60447SOL    HW283175   5.728  14.082   7.769
60448SOL     OW83176   6.854   0.594  10.984
60448SOL    HW183177   6.817   0.678  10.959
60448SOL    HW283178   6.833   0.536  10.911
60449SOL     OW83179   6.155  14.133   3.517
60449SOL    HW183180   6.250  14.128   3.513
60449SOL    HW283181   6.135  14.126   3.610
60450SOL     OW83182  13.536   6.101   5.479
60450SOL    HW183183  13.626   6.074   5.494
60450SOL    HW283184  13.524   6.179   5.533
60451SOL     OW83185   9.401   8.489  10.709
60451SOL    HW183186   9.350   8.409  10.723
60451SOL    HW283187   9.345   8.543  10.653
60452SOL     OW83188   0.377  10.640   5.966
60452SOL    HW183189   0.351  10.593   6.045
60452SOL    HW283190   0.300  10.692   5.942
60453SOL     OW83191   4.198  13.211  14.217
60453SOL    HW183192   4.170  13.246  14.132
60453SOL    HW283193   4.230  13.123  14.197
60454SOL     OW83194  11.844   8.399   8.425
60454SOL    HW183195  11.825   8.482   8.469
60454SOL    HW283196  11.922   8.366   8.469
60455SOL     OW83197   1.861  14.223   6.282
60455SOL    HW183198   1.855  14.128   6.288
60455SOL    HW283199   1.770  14.253   6.288
60456SOL     OW83200  12.506  13.780   5.439
60456SOL    HW183201  12.509  13.710   5.505
60456SOL    HW283202  12.438  13.751   5.377
60457SOL     OW83203  13.263   6.988   0.131
60457SOL    HW183204  13.260   7.035   0.214
60457SOL    HW283205  13.202   7.036   0.075
60458SOL     OW83206  14.358   5.830   6.093
60458SOL    HW183207  14.285   5.889   6.074
60458SOL    HW283208  14.417   5.840   6.018
60459SOL     OW83209  10.047   7.863  13.481
60459SOL    HW183210   9.997   7.796  13.434
60459SOL    HW283211  10.013   7.946  13.448
60460SOL     OW83212  13.437   0.291   8.898
60460SOL    HW183213  13.351   0.288   8.940
60460SOL    HW283214  13.482   0.365   8.939
60461SOL     OW83215  11.400  12.002  13.239
60461SOL    HW183216  11.336  12.057  13.193
60461SOL    HW283217  11.382  11.913  13.207
60462SOL     OW83218   8.214   8.121   8.806
60462SOL    HW183219   8.124   8.104   8.832
60462SOL    HW283220   8.240   8.197   8.858
60463SOL     OW83221   4.570  10.968   7.958
60463SOL    HW183222   4.503  10.905   7.931
60463SOL    HW283223   4.575  11.029   7.884
60464SOL     OW83224   8.718   8.169  11.768
60464SOL    HW183225   8.785   8.109  11.801
60464SOL    HW283226   8.704   8.141  11.678
60465SOL     OW83227  10.258  10.018  11.911
60465SOL    HW183228  10.348  10.006  11.943
60465SOL    HW283229  10.239   9.939  11.862
60466SOL     OW83230  11.604   1.191   9.151
60466SOL    HW183231  11.509   1.187   9.134
60466SOL    HW283232  11.637   1.106   9.122
60467SOL     OW83233   0.415  13.765   2.517
60467SOL    HW183234   0.439  13.829   2.451
60467SOL    HW283235   0.330  13.794   2.550
60468SOL     OW83236  13.144   6.408  10.193
60468SOL    HW183237  13.164   6.447  10.279
60468SOL    HW283238  13.230   6.398  10.152
60469SOL     OW83239  12.012   0.394   0.493
60469SOL    HW183240  11.964   0.316   0.468
60469SOL    HW283241  12.090   0.394   0.438
60470SOL     OW83242   3.843   7.247   4.640
60470SOL    HW183243   3.804   7.159   4.640
60470SOL    HW283244   3.778   7.302   4.596
60471SOL     OW83245   7.710   8.701   2.676
60471SOL    HW183246   7.750   8.756   2.742
60471SOL    HW283247   7.621   8.685   2.708
60472SOL     OW83248   7.832   9.848  12.081
60472SOL    HW183249   7.834   9.758  12.049
60472SOL    HW283250   7.743   9.860  12.112
60473SOL     OW83251  14.489   8.995   8.199
60473SOL    HW183252  14.584   8.984   8.192
60473SOL    HW283253  14.475   9.090   8.200
60474SOL     OW83254   1.359   3.135   1.337
60474SOL    HW183255   1.269   3.151   1.311
60474SOL    HW283256   1.397   3.084   1.266
60475SOL     OW83257   4.426  13.068   4.643
60475SOL    HW183258   4.411  13.162   4.640
60475SOL    HW283259   4.451  13.050   4.734
60476SOL     OW83260   7.489   8.740   8.822
60476SOL    HW183261   7.415   8.772   8.874
60476SOL    HW283262   7.483   8.789   8.740
60477SOL     OW83263   0.071   0.143  11.618
60477SOL    HW183264   0.135   0.212  11.638
60477SOL    HW283265   0.116   0.088  11.553
60478SOL     OW83266  11.743   8.719  11.402
60478SOL    HW183267  11.710   8.807  11.386
60478SOL    HW283268  11.678   8.661  11.363
60479SOL     OW83269   9.902   0.430   8.186
60479SOL    HW183270   9.807   0.427   8.203
60479SOL    HW283271   9.941   0.447   8.272
60480SOL     OW83272   1.089  12.222   3.789
60480SOL    HW183273   1.088  12.258   3.878
60480SOL    HW283274   1.064  12.296   3.733
60481SOL     OW83275   1.664  14.629  11.334
60481SOL    HW183276   1.712  14.558  11.290
60481SOL    HW283277   1.572  14.601  11.329
60482SOL     OW83278   6.481   1.224  11.819
60482SOL    HW183279   6.425   1.212  11.742
60482SOL    HW283280   6.470   1.316  11.842
60483SOL     OW83281   8.925   0.715  11.755
60483SOL    HW183282   8.862   0.741  11.822
60483SOL    HW283283   9.005   0.696  11.804
60484SOL     OW83284  10.961   8.214  11.210
60484SOL    HW183285  11.024   8.154  11.250
60484SOL    HW283286  10.986   8.218  11.118
60485SOL     OW83287   6.068   1.247  11.699
60485SOL    HW183288   6.063   1.239  11.794
60485SOL    HW283289   6.151   1.204  11.676
60486SOL     OW83290  11.563   7.768  14.415
60486SOL    HW183291  11.472   7.741  14.408
60486SOL    HW283292  11.571   7.842  14.355
60487SOL     OW83293   9.794  13.450  11.010
60487SOL    HW183294   9.730  13.404  10.954
60487SOL    HW283295   9.853  13.381  11.040
60488SOL     OW83296   4.174   9.609   5.134
60488SOL    HW183297   4.236   9.649   5.074
60488SOL    HW283298   4.197   9.516   5.134
60489SOL     OW83299   3.458   7.348   1.355
60489SOL    HW183300   3.394   7.337   1.285
60489SOL    HW283301   3.436   7.432   1.395
60490SOL     OW83302  13.000   7.881  11.575
60490SOL    HW183303  13.091   7.882  11.546
60490SOL    HW283304  13.000   7.823  11.651
60491SOL     OW83305  11.809   6.953   9.541
60491SOL    HW183306  11.797   6.858   9.551
60491SOL    HW283307  11.886   6.973   9.594
60492SOL     OW83308   8.067  12.819   9.010
60492SOL    HW183309   8.071  12.761   8.934
60492SOL    HW283310   7.973  12.832   9.025
60493SOL     OW83311   8.108   2.849  12.137
60493SOL    HW183312   8.187   2.836  12.086
60493SOL    HW283313   8.123   2.801  12.219
60494SOL     OW83314   8.788   0.217  12.134
60494SOL    HW183315   8.794   0.274  12.057
60494SOL    HW283316   8.859   0.154  12.123
60495SOL     OW83317  11.476   6.361   0.519
60495SOL    HW183318  11.529   6.282   0.508
60495SOL    HW283319  11.400   6.347   0.463
60496SOL     OW83320   4.634  12.438  10.575
60496SOL    HW183321   4.720  12.459  10.612
60496SOL    HW283322   4.600  12.522  10.544
60497SOL     OW83323  11.731  10.509  11.362
60497SOL    HW183324  11.786  10.585  11.344
60497SOL    HW283325  11.727  10.462  11.279
60498SOL     OW83326   2.309  14.448  12.333
60498SOL    HW183327   2.240  14.443  12.399
60498SOL    HW283328   2.325  14.358  12.307
60499SOL     OW83329   8.585  11.331   0.722
60499SOL    HW183330   8.587  11.286   0.637
60499SOL    HW283331   8.581  11.424   0.699
60500SOL     OW83332  11.669   2.772   6.566
60500SOL    HW183333  11.757   2.808   6.566
60500SOL    HW283334  11.658   2.734   6.479
60501SOL     OW83335   2.713   6.204  13.459
60501SOL    HW183336   2.769   6.280  13.443
60501SOL    HW283337   2.758   6.131  13.417
60502SOL     OW83338   5.802  14.658  13.146
60502SOL    HW183339   5.868  14.629  13.082
60502SOL    HW283340   5.853  14.684  13.223
60503SOL     OW83341   2.110   7.751   6.631
60503SOL    HW183342   2.124   7.839   6.596
60503SOL    HW283343   2.198   7.718   6.649
60504SOL     OW83344  13.529  11.988   4.510
60504SOL    HW183345  13.536  11.918   4.576
60504SOL    HW283346  13.438  12.018   4.516
60505SOL     OW83347   2.257   6.999   5.573
60505SOL    HW183348   2.264   6.911   5.537
60505SOL    HW283349   2.344   7.037   5.561
60506SOL     OW83350   0.085  13.623   7.456
60506SOL    HW183351   0.114  13.678   7.529
60506SOL    HW283352  14.870  13.640   7.450
60507SOL     OW83353  13.875  14.378   8.167
60507SOL    HW183354  13.788  14.410   8.190
60507SOL    HW283355  13.916  14.355   8.250
60508SOL     OW83356   9.504   0.603   8.748
60508SOL    HW183357   9.487   0.682   8.799
60508SOL    HW283358   9.479   0.626   8.659
60509SOL     OW83359  11.201   4.919   8.622
60509SOL    HW183360  11.207   4.864   8.700
60509SOL    HW283361  11.127   4.977   8.639
60510SOL     OW83362  11.515  12.902   9.523
60510SOL    HW183363  11.530  12.807   9.532
60510SOL    HW283364  11.557  12.940   9.601
60511SOL     OW83365  11.015   3.248  11.405
60511SOL    HW183366  10.931   3.250  11.359
60511SOL    HW283367  11.076   3.294  11.346
60512SOL     OW83368   4.408   0.136   9.249
60512SOL    HW183369   4.321   0.145   9.288
60512SOL    HW283370   4.393   0.136   9.155
60513SOL     OW83371  11.957   1.944   6.380
60513SOL    HW183372  11.885   1.945   6.317
60513SOL    HW283373  11.972   1.852   6.399
60514SOL     OW83374   8.677   3.644   5.458
60514SOL    HW183375   8.621   3.687   5.522
60514SOL    HW283376   8.636   3.662   5.373
60515SOL     OW83377   0.149   0.185   8.749
60515SOL    HW183378   0.230   0.172   8.799
60515SOL    HW283379   0.175   0.174   8.658
60516SOL     OW83380   9.281  13.525   0.953
60516SOL    HW183381   9.369  13.553   0.978
60516SOL    HW283382   9.263  13.572   0.871
60517SOL     OW83383   3.807   4.849  14.452
60517SOL    HW183384   3.893   4.891  14.461
60517SOL    HW283385   3.782   4.864  14.361
60518SOL     OW83386   7.743   2.478   9.769
60518SOL    HW183387   7.659   2.507   9.804
60518SOL    HW283388   7.808   2.526   9.820
60519SOL     OW83389   4.544   8.465   4.557
60519SOL    HW183390   4.631   8.503   4.550
60519SOL    HW283391   4.506   8.506   4.635
60520SOL     OW83392   9.942   2.984  12.429
60520SOL    HW183393   9.972   3.067  12.393
60520SOL    HW283394  10.000   2.968  12.504
60521SOL     OW83395   9.066   5.035   3.834
60521SOL    HW183396   9.154   5.009   3.861
60521SOL    HW283397   9.079   5.106   3.771
60522SOL     OW83398   5.638   5.482   2.361
60522SOL    HW183399   5.609   5.572   2.376
60522SOL    HW283400   5.662   5.450   2.447
60523SOL     OW83401   5.867  10.925  11.238
60523SOL    HW183402   5.838  10.834  11.229
60523SOL    HW283403   5.959  10.919  11.263
60524SOL     OW83404   3.810  13.414   6.854
60524SOL    HW183405   3.800  13.397   6.760
60524SOL    HW283406   3.825  13.328   6.893
60525SOL     OW83407   4.824   9.151   8.414
60525SOL    HW183408   4.919   9.139   8.414
60525SOL    HW283409   4.789   9.071   8.377
60526SOL     OW83410   0.101   2.288   6.553
60526SOL    HW183411   0.028   2.293   6.492
60526SOL    HW283412   0.152   2.368   6.536
60527SOL     OW83413  14.166   2.341   3.699
60527SOL    HW183414  14.115   2.279   3.647
60527SOL    HW283415  14.194   2.291   3.775
60528SOL     OW83416  11.268   7.090  10.093
60528SOL    HW183417  11.346   7.043  10.065
60528SOL    HW283418  11.205   7.021  10.115
60529SOL     OW83419   9.177   3.572   3.153
60529SOL    HW183420   9.154   3.528   3.236
60529SOL    HW283421   9.206   3.659   3.180
60530SOL     OW83422   3.938  14.006   0.611
60530SOL    HW183423   4.015  14.063   0.616
60530SOL    HW283424   3.882  14.047   0.545
60531SOL     OW83425   1.142   7.901  11.543
60531SOL    HW183426   1.231   7.885  11.509
60531SOL    HW283427   1.126   7.829  11.603
60532SOL     OW83428  12.463   6.479   3.150
60532SOL    HW183429  12.396   6.432   3.100
60532SOL    HW283430  12.520   6.411   3.185
60533SOL     OW83431  13.433   8.624   2.330
60533SOL    HW183432  13.471   8.544   2.292
60533SOL    HW283433  13.439   8.611   2.424
60534SOL     OW83434   2.019   7.394   8.294
60534SOL    HW183435   1.993   7.475   8.251
60534SOL    HW283436   2.010   7.327   8.226
60535SOL     OW83437   5.437   5.658   9.707
60535SOL    HW183438   5.404   5.744   9.683
60535SOL    HW283439   5.412   5.647   9.799
60536SOL     OW83440  12.379   6.764   7.843
60536SOL    HW183441  12.286   6.748   7.827
60536SOL    HW283442  12.383   6.857   7.866
60537SOL     OW83443  14.011   5.882  13.916
60537SOL    HW183444  13.948   5.910  13.850
60537SOL    HW283445  13.959   5.863  13.994
60538SOL     OW83446   8.456   1.583   0.983
60538SOL    HW183447   8.379   1.614   0.935
60538SOL    HW283448   8.434   1.597   1.075
60539SOL     OW83449  11.244   3.519  12.955
60539SOL    HW183450  11.278   3.466  12.883
60539SOL    HW283451  11.302   3.595  12.959
60540SOL     OW83452   8.852   1.200   8.721
60540SOL    HW183453   8.795   1.143   8.773
60540SOL    HW283454   8.806   1.211   8.638
60541SOL     OW83455   8.130   8.085   6.421
60541SOL    HW183456   8.065   8.089   6.351
60541SOL    HW283457   8.083   8.047   6.495
60542SOL     OW83458   0.809   7.724  12.297
60542SOL    HW183459   0.836   7.798  12.242
60542SOL    HW283460   0.883   7.709  12.355
60543SOL     OW83461   2.906   4.225   5.882
60543SOL    HW183462   2.940   4.307   5.847
60543SOL    HW283463   2.914   4.234   5.977
60544SOL     OW83464   6.375  11.246   9.312
60544SOL    HW183465   6.430  11.193   9.253
60544SOL    HW283466   6.302  11.274   9.257
60545SOL     OW83467   0.155   4.614   0.568
60545SOL    HW183468   0.196   4.538   0.609
60545SOL    HW283469   0.139   4.586   0.477
60546SOL     OW83470  12.581   7.350  13.030
60546SOL    HW183471  12.656   7.304  13.069
60546SOL    HW283472  12.571   7.429  13.082
60547SOL     OW83473  13.864   7.741  12.092
60547SOL    HW183474  13.831   7.818  12.045
60547SOL    HW283475  13.815   7.667  12.054
60548SOL     OW83476   6.628   1.419   1.267
60548SOL    HW183477   6.662   1.404   1.179
60548SOL    HW283478   6.687   1.483   1.306
60549SOL     OW83479   8.854   0.077   0.078
60549SOL    HW183480   8.874   0.003   0.021
60549SOL    HW283481   8.884   0.154   0.029
60550SOL     OW83482  13.101  11.225   4.490
60550SOL    HW183483  13.122  11.263   4.575
60550SOL    HW283484  13.180  11.178   4.464
60551SOL     OW83485   5.269  10.616   1.631
60551SOL    HW183486   5.176  10.608   1.614
60551SOL    HW283487   5.311  10.581   1.552
60552SOL     OW83488   6.353   0.432   2.129
60552SOL    HW183489   6.283   0.420   2.065
60552SOL    HW283490   6.429   0.458   2.076
60553SOL     OW83491  14.422   4.040  13.126
60553SOL    HW183492  14.447   4.094  13.201
60553SOL    HW283493  14.386   4.103  13.062
60554SOL     OW83494  14.633  14.083   5.770
60554SOL    HW183495  14.553  14.050   5.731
60554SOL    HW283496  14.667  14.010   5.822
60555SOL     OW83497   8.501  13.082   7.019
60555SOL    HW183498   8.482  13.036   7.101
60555SOL    HW283499   8.488  13.016   6.951
60556SOL     OW83500  10.359   8.078   8.624
60556SOL    HW183501  10.276   8.047   8.660
60556SOL    HW283502  10.424   8.012   8.651
60557SOL     OW83503   5.588  10.885   5.518
60557SOL    HW183504   5.565  10.926   5.601
60557SOL    HW283505   5.515  10.827   5.497
60558SOL     OW83506  14.834  13.692  11.273
60558SOL    HW183507  14.862  13.767  11.326
60558SOL    HW283508  14.845  13.721  11.182
60559SOL     OW83509   3.417   0.585  10.327
60559SOL    HW183510   3.376   0.645  10.389
60559SOL    HW283511   3.358   0.510  10.323
60560SOL     OW83512  14.690   4.423   1.701
60560SOL    HW183513  14.602   4.401   1.730
60560SOL    HW283514  14.744   4.351   1.734
60561SOL     OW83515   9.364   3.485  14.109
60561SOL    HW183516   9.435   3.451  14.164
60561SOL    HW283517   9.402   3.562  14.067
60562SOL     OW83518   0.109   6.863  12.405
60562SOL    HW183519   0.193   6.819  12.389
60562SOL    HW283520   0.045   6.810  12.358
60563SOL     OW83521   4.563  12.313   1.180
60563SOL    HW183522   4.523  12.365   1.110
60563SOL    HW283523   4.490  12.290   1.238
60564SOL     OW83524   4.347  12.092   9.365
60564SOL    HW183525   4.433  12.119   9.397
60564SOL    HW283526   4.337  12.002   9.394
60565SOL     OW83527  11.888  14.247  10.830
60565SOL    HW183528  11.821  14.310  10.805
60565SOL    HW283529  11.842  14.164  10.836
60566SOL     OW83530   9.993   5.986  10.605
60566SOL    HW183531   9.989   6.033  10.522
60566SOL    HW283532  10.052   5.913  10.589
60567SOL     OW83533  11.675   1.640   1.571
60567SOL    HW183534  11.732   1.574   1.609
60567SOL    HW283535  11.631   1.680   1.647
60568SOL     OW83536   4.324   2.410   9.678
60568SOL    HW183537   4.282   2.430   9.762
60568SOL    HW283538   4.266   2.449   9.612
60569SOL     OW83539   6.458   0.315   2.404
60569SOL    HW183540   6.525   0.367   2.448
60569SOL    HW283541   6.492   0.300   2.316
60570SOL     OW83542   4.414  11.239   2.124
60570SOL    HW183543   4.453  11.323   2.102
60570SOL    HW283544   4.460  11.212   2.204
60571SOL     OW83545  13.206   5.034   1.055
60571SOL    HW183546  13.224   5.128   1.067
60571SOL    HW283547  13.293   4.993   1.055
60572SOL     OW83548   4.317  13.241   5.678
60572SOL    HW183549   4.264  13.311   5.639
60572SOL    HW283550   4.407  13.269   5.664
60573SOL     OW83551   5.475   2.530  11.791
60573SOL    HW183552   5.411   2.493  11.852
60573SOL    HW283553   5.554   2.542  11.844
60574SOL     OW83554   5.262   1.553   7.002
60574SOL    HW183555   5.347   1.583   6.970
60574SOL    HW283556   5.282   1.477   7.057
60575SOL     OW83557   8.967   5.164   0.103
60575SOL    HW183558   9.020   5.086   0.120
60575SOL    HW283559   8.995   5.227   0.170
60576SOL     OW83560   0.625   3.633  10.350
60576SOL    HW183561   0.555   3.694  10.373
60576SOL    HW283562   0.630   3.638  10.254
60577SOL     OW83563  13.613  10.575  14.183
60577SOL    HW183564  13.553  10.639  14.220
60577SOL    HW283565  13.558  10.498  14.165
60578SOL     OW83566   0.583  10.142  11.048
60578SOL    HW183567   0.634  10.163  11.127
60578SOL    HW283568   0.577  10.224  11.000
60579SOL     OW83569   8.378   9.032  11.738
60579SOL    HW183570   8.390   9.085  11.817
60579SOL    HW283571   8.353   9.094  11.670
60580SOL     OW83572   3.280  12.345  10.559
60580SOL    HW183573   3.208  12.319  10.501
60580SOL    HW283574   3.290  12.439  10.545
60581SOL     OW83575   8.489  11.755   6.645
60581SOL    HW183576   8.554  11.811   6.688
60581SOL    HW283577   8.460  11.805   6.569
60582SOL     OW83578   6.152   4.201   6.692
60582SOL    HW183579   6.189   4.135   6.634
60582SOL    HW283580   6.228   4.251   6.722
60583SOL     OW83581  13.903  11.496   5.959
60583SOL    HW183582  13.845  11.542   5.899
60583SOL    HW283583  13.919  11.411   5.917
60584SOL     OW83584  12.326   9.638   3.954
60584SOL    HW183585  12.372   9.632   3.870
60584SOL    HW283586  12.331   9.549   3.991
60585SOL     OW83587  11.734   9.165   8.919
60585SOL    HW183588  11.742   9.258   8.898
60585SOL    HW283589  11.817   9.127   8.891
60586SOL     OW83590   6.890  12.856  12.464
60586SOL    HW183591   6.915  12.789  12.400
60586SOL    HW283592   6.948  12.930  12.444
60587SOL     OW83593   2.503   7.177   1.075
60587SOL    HW183594   2.561   7.172   1.152
60587SOL    HW283595   2.524   7.261   1.035
60588SOL     OW83596   8.405  13.801  13.185
60588SOL    HW183597   8.330  13.808  13.126
60588SOL    HW283598   8.367  13.784  13.271
60589SOL     OW83599   7.611   5.243   8.635
60589SOL    HW183600   7.696   5.275   8.604
60589SOL    HW283601   7.633   5.187   8.710
60590SOL     OW83602   3.410   6.522   8.740
60590SOL    HW183603   3.340   6.515   8.675
60590SOL    HW283604   3.489   6.536   8.689
60591SOL     OW83605   4.481   7.226   3.974
60591SOL    HW183606   4.481   7.321   3.987
60591SOL    HW283607   4.401   7.209   3.925
60592SOL     OW83608   0.734   7.784   0.959
60592SOL    HW183609   0.732   7.689   0.966
60592SOL    HW283610   0.757   7.801   0.868
60593SOL     OW83611  11.502  13.815  11.894
60593SOL    HW183612  11.537  13.799  11.806
60593SOL    HW283613  11.552  13.756  11.950
60594SOL     OW83614   0.308   7.381   9.594
60594SOL    HW183615   0.237   7.368   9.656
60594SOL    HW283616   0.344   7.467   9.616
60595SOL     OW83617   0.485   3.895   0.091
60595SOL    HW183618   0.472   3.801   0.094
60595SOL    HW283619   0.485   3.917  14.877
60596SOL     OW83620  14.487   2.661  12.063
60596SOL    HW183621  14.558   2.718  12.033
60596SOL    HW283622  14.531   2.584  12.098
60597SOL     OW83623  13.489  14.331   9.315
60597SOL    HW183624  13.405  14.288   9.297
60597SOL    HW283625  13.468  14.424   9.318
60598SOL     OW83626   7.541   9.625  14.284
60598SOL    HW183627   7.560   9.633  14.377
60598SOL    HW283628   7.446   9.628  14.278
60599SOL     OW83629  13.093  12.536   0.384
60599SOL    HW183630  13.011  12.515   0.429
60599SOL    HW283631  13.121  12.453   0.345
60600SOL     OW83632   0.689  14.303   8.931
60600SOL    HW183633   0.703  14.396   8.915
60600SOL    HW283634   0.617  14.298   8.994
60601SOL     OW83635  14.732  12.181   9.544
60601SOL    HW183636  14.689  12.110   9.497
60601SOL    HW283637  14.807  12.139   9.587
60602SOL     OW83638   5.522   6.379   2.797
60602SOL    HW183639   5.540   6.367   2.890
60602SOL    HW283640   5.439   6.332   2.782
60603SOL     OW83641   8.986  13.186   9.377
60603SOL    HW183642   9.009  13.194   9.469
60603SOL    HW283643   8.907  13.239   9.367
60604SOL     OW83644   6.798   4.159   5.132
60604SOL    HW183645   6.871   4.097   5.135
60604SOL    HW283646   6.803   4.198   5.045
60605SOL     OW83647   2.421   9.544  10.948
60605SOL    HW183648   2.371   9.626  10.955
60605SOL    HW283649   2.368   9.480  10.995
60606SOL     OW83650   4.097   7.036   1.113
60606SOL    HW183651   4.161   6.998   1.053
60606SOL    HW283652   4.012   7.013   1.074
60607SOL     OW83653   0.723   7.749   5.854
60607SOL    HW183654   0.631   7.750   5.878
60607SOL    HW283655   0.765   7.808   5.917
60608SOL     OW83656  12.355  11.390   2.740
60608SOL    HW183657  12.414  11.457   2.705
60608SOL    HW283658  12.378  11.384   2.832
60609SOL     OW83659  11.193   7.310  10.411
60609SOL    HW183660  11.148   7.226  10.400
60609SOL    HW283661  11.208   7.316  10.506
60610SOL     OW83662   8.234   4.140  14.595
60610SOL    HW183663   8.226   4.232  14.571
60610SOL    HW283664   8.216   4.137  14.689
60611SOL     OW83665   1.456  11.095   8.586
60611SOL    HW183666   1.525  11.048   8.633
60611SOL    HW283667   1.486  11.187   8.586
60612SOL     OW83668  12.387   2.171   0.974
60612SOL    HW183669  12.415   2.262   0.979
60612SOL    HW283670  12.292   2.174   0.984
60613SOL     OW83671   8.463  13.706  13.748
60613SOL    HW183672   8.482  13.731  13.658
60613SOL    HW283673   8.378  13.661  13.743
60614SOL     OW83674  13.701   1.346   2.425
60614SOL    HW183675  13.624   1.382   2.381
60614SOL    HW283676  13.682   1.356   2.519
60615SOL     OW83677   1.463   8.212   8.833
60615SOL    HW183678   1.380   8.172   8.858
60615SOL    HW283679   1.509   8.145   8.783
60616SOL     OW83680   4.173  10.595   3.112
60616SOL    HW183681   4.195  10.610   3.204
60616SOL    HW283682   4.200  10.504   3.096
60617SOL     OW83683   6.139  10.325  12.544
60617SOL    HW183684   6.111  10.234  12.535
60617SOL    HW283685   6.059  10.373  12.564
60618SOL     OW83686   7.447   0.017  11.536
60618SOL    HW183687   7.369   0.011  11.482
60618SOL    HW283688   7.425   0.082  11.604
60619SOL     OW83689  12.131  10.591   4.292
60619SOL    HW183690  12.153  10.640   4.371
60619SOL    HW283691  12.084  10.653   4.236
60620SOL     OW83692   3.724   5.425  13.505
60620SOL    HW183693   3.681   5.339  13.505
60620SOL    HW283694   3.777   5.425  13.426
60621SOL     OW83695   9.207   9.494  13.664
60621SOL    HW183696   9.140   9.427  13.680
60621SOL    HW283697   9.253   9.463  13.586
60622SOL     OW83698   6.588  12.279   4.234
60622SOL    HW183699   6.654  12.300   4.168
60622SOL    HW283700   6.552  12.364   4.259
60623SOL     OW83701   1.307   7.955  12.107
60623SOL    HW183702   1.251   7.923  12.178
60623SOL    HW283703   1.381   7.995  12.153
60624SOL     OW83704   4.302  11.291   8.095
60624SOL    HW183705   4.359  11.334   8.032
60624SOL    HW283706   4.248  11.362   8.130
60625SOL     OW83707  12.101  10.317   3.489
60625SOL    HW183708  12.125  10.262   3.415
60625SOL    HW283709  12.072  10.255   3.556
60626SOL     OW83710   3.301   6.105  12.816
60626SOL    HW183711   3.390   6.108  12.849
60626SOL    HW283712   3.254   6.171  12.868
60627SOL     OW83713  13.286  14.587  13.280
60627SOL    HW183714  13.345  14.520  13.244
60627SOL    HW283715  13.343  14.642  13.333
60628SOL     OW83716  14.160  14.493   0.098
60628SOL    HW183717  14.202  14.559   0.153
60628SOL    HW283718  14.159  14.531   0.010
60629SOL     OW83719   7.103   1.854  14.541
60629SOL    HW183720   7.166   1.926  14.550
60629SOL    HW283721   7.108   1.829  14.449
60630SOL     OW83722   1.434   1.930   4.733
60630SOL    HW183723   1.472   1.964   4.814
60630SOL    HW283724   1.432   1.835   4.746
60631SOL     OW83725   1.889  10.284  12.627
60631SOL    HW183726   1.811  10.293  12.573
60631SOL    HW283727   1.857  10.245  12.709
60632SOL     OW83728  10.147  11.286   4.009
60632SOL    HW183729  10.196  11.273   3.929
60632SOL    HW283730  10.197  11.239   4.076
60633SOL     OW83731  11.677  11.564   6.553
60633SOL    HW183732  11.747  11.611   6.508
60633SOL    HW283733  11.637  11.510   6.484
60634SOL     OW83734   0.521   1.419  11.691
60634SOL    HW183735   0.494   1.342  11.741
60634SOL    HW283736   0.579   1.466  11.750
60635SOL     OW83737   5.365  14.576   6.629
60635SOL    HW183738   5.438  14.608   6.577
60635SOL    HW283739   5.288  14.619   6.591
60636SOL     OW83740   1.497   8.158   8.524
60636SOL    HW183741   1.484   8.232   8.466
60636SOL    HW283742   1.576   8.180   8.573
60637SOL     OW83743   4.765  13.985  13.775
60637SOL    HW183744   4.715  14.051  13.823
60637SOL    HW283745   4.802  13.928  13.843
60638SOL     OW83746  12.442   4.491  10.589
60638SOL    HW183747  12.405   4.462  10.672
60638SOL    HW283748  12.425   4.585  10.586
60639SOL     OW83749   6.373   9.956  13.982
60639SOL    HW183750   6.360   9.917  13.896
60639SOL    HW283751   6.304  10.023  13.988
60640SOL     OW83752  11.075   9.218   7.401
60640SOL    HW183753  11.064   9.224   7.496
60640SOL    HW283754  11.067   9.309   7.370
60641SOL     OW83755   7.925   5.657   2.300
60641SOL    HW183756   7.836   5.690   2.297
60641SOL    HW283757   7.916   5.563   2.313
60642SOL     OW83758   9.288  12.427  11.573
60642SOL    HW183759   9.225  12.415  11.503
60642SOL    HW283760   9.370  12.392  11.538
60643SOL     OW83761  11.573   4.072   3.867
60643SOL    HW183762  11.581   4.016   3.944
60643SOL    HW283763  11.525   4.018   3.803
60644SOL     OW83764  12.665  13.662   2.735
60644SOL    HW183765  12.584  13.702   2.704
60644SOL    HW283766  12.723  13.663   2.658
60645SOL     OW83767  13.055   6.846   8.473
60645SOL    HW183768  13.048   6.752   8.460
60645SOL    HW283769  13.098   6.879   8.394
60646SOL     OW83770   2.810  10.844   0.337
60646SOL    HW183771   2.749  10.892   0.394
60646SOL    HW283772   2.890  10.837   0.388
60647SOL     OW83773   4.826   9.786   8.112
60647SOL    HW183774   4.752   9.835   8.076
60647SOL    HW283775   4.886   9.854   8.143
60648SOL     OW83776   2.445   6.666  11.424
60648SOL    HW183777   2.507   6.595  11.410
60648SOL    HW283778   2.384   6.632  11.489
60649SOL     OW83779   9.124   1.465  10.287
60649SOL    HW183780   9.220   1.462  10.293
60649SOL    HW283781   9.105   1.534  10.224
60650SOL     OW83782  14.543   8.798   0.032
60650SOL    HW183783  14.540   8.705   0.009
60650SOL    HW283784  14.511   8.842  14.832
60651SOL     OW83785   7.644  12.202   1.296
60651SOL    HW183786   7.689  12.182   1.379
60651SOL    HW283787   7.714  12.204   1.231
60652SOL     OW83788   4.567   7.816   6.757
60652SOL    HW183789   4.662   7.820   6.748
60652SOL    HW283790   4.552   7.783   6.846
60653SOL     OW83791   8.963   3.602   7.648
60653SOL    HW183792   9.002   3.556   7.574
60653SOL    HW283793   9.034   3.657   7.682
60654SOL     OW83794   2.519  10.857   2.877
60654SOL    HW183795   2.438  10.907   2.890
60654SOL    HW283796   2.582  10.896   2.937
60655SOL     OW83797   7.012   4.977   5.752
60655SOL    HW183798   6.935   4.986   5.808
60655SOL    HW283799   7.046   4.890   5.771
60656SOL     OW83800   6.095   9.950   7.530
60656SOL    HW183801   6.093  10.000   7.611
60656SOL    HW283802   6.070   9.862   7.556
60657SOL     OW83803   8.535   2.318   1.900
60657SOL    HW183804   8.541   2.226   1.875
60657SOL    HW283805   8.597   2.363   1.842
60658SOL     OW83806   8.529   0.269   9.768
60658SOL    HW183807   8.538   0.332   9.840
60658SOL    HW283808   8.565   0.188   9.804
60659SOL     OW83809   7.349   0.639   6.420
60659SOL    HW183810   7.268   0.679   6.452
60659SOL    HW283811   7.409   0.643   6.494
60660SOL     OW83812  13.450   9.861   4.211
60660SOL    HW183813  13.375   9.840   4.266
60660SOL    HW283814  13.517   9.796   4.234
60661SOL     OW83815  10.105  12.257   5.252
60661SOL    HW183816  10.081  12.199   5.181
60661SOL    HW283817  10.179  12.308   5.218
60662SOL     OW83818   0.772  11.071   6.212
60662SOL    HW183819   0.866  11.058   6.223
60662SOL    HW283820   0.756  11.159   6.247
60663SOL     OW83821   6.764  13.110  14.877
60663SOL    HW183822   6.708  13.037   0.024
60663SOL    HW283823   6.811  13.078  14.800
60664SOL     OW83824  14.736   1.029   6.108
60664SOL    HW183825  14.806   0.964   6.104
60664SOL    HW283826  14.698   1.029   6.021
60665SOL     OW83827  12.119   8.270   4.837
60665SOL    HW183828  12.127   8.215   4.914
60665SOL    HW283829  12.205   8.265   4.795
60666SOL     OW83830  11.857   8.432   3.511
60666SOL    HW183831  11.878   8.464   3.599
60666SOL    HW283832  11.845   8.511   3.459
60667SOL     OW83833  10.095   4.193   0.461
60667SOL    HW183834  10.056   4.255   0.522
60667SOL    HW283835  10.106   4.243   0.380
60668SOL     OW83836   3.377   0.551   6.535
60668SOL    HW183837   3.342   0.544   6.624
60668SOL    HW283838   3.471   0.563   6.548
60669SOL     OW83839   0.417  12.936  11.599
60669SOL    HW183840   0.464  12.993  11.660
60669SOL    HW283841   0.328  12.972  11.595
60670SOL     OW83842   8.700   0.549   0.746
60670SOL    HW183843   8.648   0.540   0.666
60670SOL    HW283844   8.678   0.472   0.798
60671SOL     OW83845   0.928   5.523   3.302
60671SOL    HW183846   1.003   5.575   3.275
60671SOL    HW283847   0.883   5.501   3.221
60672SOL     OW83848   3.680  10.159   4.134
60672SOL    HW183849   3.772  10.160   4.107
60672SOL    HW283850   3.679  10.108   4.215
60673SOL     OW83851   7.810   0.535   9.865
60673SOL    HW183852   7.721   0.515   9.837
60673SOL    HW283853   7.861   0.459   9.838
60674SOL     OW83854  13.533   6.606   4.403
60674SOL    HW183855  13.604   6.611   4.340
60674SOL    HW283856  13.568   6.649   4.482
60675SOL     OW83857   5.494   5.980  14.709
60675SOL    HW183858   5.530   6.000  14.796
60675SOL    HW283859   5.516   6.057  14.656
60676SOL     OW83860   3.318   9.928  10.369
60676SOL    HW183861   3.298   9.974  10.451
60676SOL    HW283862   3.328   9.997  10.304
60677SOL     OW83863  11.245   9.731  11.636
60677SOL    HW183864  11.294   9.727  11.554
60677SOL    HW283865  11.168   9.677  11.620
60678SOL     OW83866   0.202  13.561   5.156
60678SOL    HW183867   0.224  13.621   5.085
60678SOL    HW283868   0.215  13.613   5.236
60679SOL     OW83869   3.096  13.087   4.797
60679SOL    HW183870   3.067  13.042   4.877
60679SOL    HW283871   3.186  13.057   4.785
60680SOL     OW83872  13.362  10.586  13.151
60680SOL    HW183873  13.278  10.600  13.196
60680SOL    HW283874  13.357  10.496  13.119
60681SOL     OW83875  13.911   4.010  10.215
60681SOL    HW183876  13.871   3.946  10.156
60681SOL    HW283877  13.915   4.091  10.163
60682SOL     OW83878  12.902   9.232  10.973
60682SOL    HW183879  12.945   9.155  10.935
60682SOL    HW283880  12.932   9.305  10.918
60683SOL     OW83881   1.650   7.639   9.069
60683SOL    HW183882   1.643   7.696   8.993
60683SOL    HW283883   1.605   7.559   9.044
60684SOL     OW83884   6.301   5.433  14.330
60684SOL    HW183885   6.293   5.425  14.235
60684SOL    HW283886   6.223   5.481  14.357
60685SOL     OW83887  10.358   6.262   3.798
60685SOL    HW183888  10.424   6.325   3.769
60685SOL    HW283889  10.389   6.231   3.882
60686SOL     OW83890  14.385  10.750  14.733
60686SOL    HW183891  14.357  10.702  14.811
60686SOL    HW283892  14.419  10.833  14.766
60687SOL     OW83893   0.399  13.421   7.235
60687SOL    HW183894   0.384  13.341   7.185
60687SOL    HW283895   0.398  13.491   7.169
60688SOL     OW83896   1.540   3.212  10.865
60688SOL    HW183897   1.600   3.139  10.879
60688SOL    HW283898   1.576   3.283  10.918
60689SOL     OW83899  11.371   9.558   4.962
60689SOL    HW183900  11.361   9.653   4.959
60689SOL    HW283901  11.297   9.528   5.015
60690SOL     OW83902   8.723   2.559   8.688
60690SOL    HW183903   8.796   2.528   8.635
60690SOL    HW283904   8.761   2.573   8.775
60691SOL     OW83905   6.897  12.384  10.334
60691SOL    HW183906   6.951  12.418  10.406
60691SOL    HW283907   6.893  12.457  10.272
60692SOL     OW83908  12.582  11.977   5.508
60692SOL    HW183909  12.667  11.982   5.465
60692SOL    HW283910  12.542  12.062   5.490
60693SOL     OW83911   5.486   7.795   6.005
60693SOL    HW183912   5.503   7.871   5.949
60693SOL    HW283913   5.505   7.826   6.094
60694SOL     OW83914   7.803   7.022  14.795
60694SOL    HW183915   7.864   6.991  14.729
60694SOL    HW283916   7.848   7.007  14.878
60695SOL     OW83917   4.571   8.612   5.038
60695SOL    HW183918   4.516   8.540   5.067
60695SOL    HW283919   4.582   8.667   5.116
60696SOL     OW83920  10.701  11.538  14.849
60696SOL    HW183921  10.624  11.482  14.856
60696SOL    HW283922  10.711  11.576   0.057
60697SOL     OW83923  14.209  14.657   6.532
60697SOL    HW183924  14.230  14.654   6.439
60697SOL    HW283925  14.131  14.712   6.538
60698SOL     OW83926   7.093   1.684  12.986
60698SOL    HW183927   7.121   1.747  12.919
60698SOL    HW283928   7.016   1.642  12.950
60699SOL     OW83929   4.244   1.739  10.579
60699SOL    HW183930   4.327   1.785  10.587
60699SOL    HW283931   4.262   1.649  10.608
60700SOL     OW83932   7.184  10.274   9.440
60700SOL    HW183933   7.090  10.294   9.444
60700SOL    HW283934   7.217  10.299   9.525
60701SOL     OW83935  12.257  14.172   6.241
60701SOL    HW183936  12.339  14.126   6.257
60701SOL    HW283937  12.277  14.233   6.171
60702SOL     OW83938   1.202   9.175  10.263
60702SOL    HW183939   1.208   9.212  10.175
60702SOL    HW283940   1.169   9.086  10.250
60703SOL     OW83941  13.372   2.603   8.127
60703SOL    HW183942  13.305   2.537   8.111
60703SOL    HW283943  13.372   2.614   8.222
60704SOL     OW83944  11.714   5.378   7.196
60704SOL    HW183945  11.689   5.308   7.136
60704SOL    HW283946  11.762   5.333   7.266
60705SOL     OW83947  10.440   1.038   6.546
60705SOL    HW183948  10.384   1.047   6.469
60705SOL    HW283949  10.501   0.967   6.524
60706SOL     OW83950   6.521   0.180  10.057
60706SOL    HW183951   6.574   0.208  10.132
60706SOL    HW283952   6.566   0.102  10.023
60707SOL     OW83953   4.138   7.884   7.025
60707SOL    HW183954   4.204   7.860   6.959
60707SOL    HW283955   4.168   7.840   7.105
60708SOL     OW83956   2.489   2.858   5.496
60708SOL    HW183957   2.395   2.843   5.504
60708SOL    HW283958   2.519   2.866   5.587
60709SOL     OW83959  14.842   1.982   0.682
60709SOL    HW183960  14.851   1.887   0.679
60709SOL    HW283961  14.748   1.997   0.669
60710SOL     OW83962  10.537  12.327   6.158
60710SOL    HW183963  10.626  12.364   6.153
60710SOL    HW283964  10.544  12.257   6.223
60711SOL     OW83965   1.412   0.124   0.847
60711SOL    HW183966   1.347   0.062   0.814
60711SOL    HW283967   1.409   0.198   0.786
60712SOL     OW83968  11.861   1.013  11.437
60712SOL    HW183969  11.782   1.019  11.490
60712SOL    HW283970  11.830   1.001  11.348
60713SOL     OW83971  12.615  12.135   3.213
60713SOL    HW183972  12.534  12.084   3.222
60713SOL    HW283973  12.601  12.213   3.266
60714SOL     OW83974   6.558   6.982   6.343
60714SOL    HW183975   6.590   7.006   6.430
60714SOL    HW283976   6.463   6.975   6.354
60715SOL     OW83977   0.668  13.907  12.397
60715SOL    HW183978   0.620  13.844  12.342
60715SOL    HW283979   0.753  13.866  12.412
60716SOL     OW83980   7.865  10.665   4.673
60716SOL    HW183981   7.814  10.649   4.594
60716SOL    HW283982   7.818  10.735   4.718
60717SOL     OW83983  11.449  14.734  12.097
60717SOL    HW183984  11.523  14.783  12.134
60717SOL    HW283985  11.376  14.796  12.098
60718SOL     OW83986   5.649  11.715  12.615
60718SOL    HW183987   5.638  11.624  12.644
60718SOL    HW283988   5.723  11.712  12.554
60719SOL     OW83989  12.514   2.354   3.453
60719SOL    HW183990  12.548   2.443   3.462
60719SOL    HW283991  12.468   2.337   3.535
60720SOL     OW83992   9.307   9.925   5.914
60720SOL    HW183993   9.381   9.865   5.921
60720SOL    HW283994   9.233   9.877   5.951
60721SOL     OW83995   4.495  11.935   5.569
60721SOL    HW183996   4.562  11.999   5.546
60721SOL    HW283997   4.415  11.987   5.580
60722SOL     OW83998  10.223   4.366   6.426
60722SOL    HW183999  10.316   4.361   6.402
60722SOL    HW284000  10.177   4.360   6.342
60723SOL     OW84001   1.203   5.086   9.736
60723SOL    HW184002   1.171   5.006   9.777
60723SOL    HW284003   1.289   5.101   9.776
60724SOL     OW84004  14.754   7.283  13.255
60724SOL    HW184005  14.790   7.341  13.323
60724SOL    HW284006  14.743   7.199  13.299
60725SOL     OW84007   0.023   5.827   8.960
60725SOL    HW184008   0.020   5.835   8.864
60725SOL    HW284009  14.825   5.876   8.990
60726SOL     OW84010   0.235  12.299   9.760
60726SOL    HW184011   0.146  12.322   9.736
60726SOL    HW284012   0.270  12.254   9.682
60727SOL     OW84013   3.980   6.926   6.399
60727SOL    HW184014   4.072   6.903   6.386
60727SOL    HW284015   3.952   6.960   6.314
60728SOL     OW84016  14.674  12.038  14.189
60728SOL    HW184017  14.622  11.989  14.125
60728SOL    HW284018  14.668  12.129  14.160
60729SOL     OW84019   2.021  10.162  12.147
60729SOL    HW184020   1.944  10.107  12.141
60729SOL    HW284021   2.061  10.140  12.231
60730SOL     OW84022   1.188   6.866   9.693
60730SOL    HW184023   1.135   6.916   9.754
60730SOL    HW284024   1.130   6.851   9.618
60731SOL     OW84025  12.947   9.469   5.835
60731SOL    HW184026  12.984   9.383   5.815
60731SOL    HW284027  12.986   9.528   5.770
60732SOL     OW84028   3.515   0.839   5.572
60732SOL    HW184029   3.568   0.788   5.511
60732SOL    HW284030   3.521   0.792   5.655
60733SOL     OW84031  12.215   6.884   8.139
60733SOL    HW184032  12.130   6.845   8.157
60733SOL    HW284033  12.277   6.812   8.151
60734SOL     OW84034  11.806   6.658  14.741
60734SOL    HW184035  11.789   6.751  14.729
60734SOL    HW284036  11.901   6.649  14.727
60735SOL     OW84037   3.828   8.150  11.934
60735SOL    HW184038   3.883   8.075  11.955
60735SOL    HW284039   3.886   8.208  11.883
60736SOL     OW84040   3.233   8.487   1.307
60736SOL    HW184041   3.273   8.538   1.377
60736SOL    HW284042   3.165   8.545   1.272
60737SOL     OW84043   0.264   8.934   6.528
60737SOL    HW184044   0.328   9.004   6.514
60737SOL    HW284045   0.230   8.949   6.616
60738SOL     OW84046   8.257   3.183  12.757
60738SOL    HW184047   8.175   3.205  12.712
60738SOL    HW284048   8.290   3.106  12.710
60739SOL     OW84049   0.860  14.601  14.774
60739SOL    HW184050   0.869  14.524  14.830
60739SOL    HW284051   0.852  14.565  14.685
60740SOL     OW84052  11.863   7.622  12.571
60740SOL    HW184053  11.850   7.619  12.665
60740SOL    HW284054  11.906   7.707  12.556
60741SOL     OW84055   7.525   9.649   6.894
60741SOL    HW184056   7.581   9.618   6.823
60741SOL    HW284057   7.491   9.733   6.863
60742SOL     OW84058   7.921   2.211   9.891
60742SOL    HW184059   7.929   2.128   9.845
60742SOL    HW284060   7.964   2.274   9.833
60743SOL     OW84061   1.770   4.772  10.573
60743SOL    HW184062   1.807   4.860  10.582
60743SOL    HW284063   1.779   4.733  10.659
60744SOL     OW84064   5.983   1.679   7.736
60744SOL    HW184065   6.017   1.608   7.789
60744SOL    HW284066   5.891   1.657   7.723
60745SOL     OW84067  11.964   2.613  11.768
60745SOL    HW184068  11.940   2.705  11.759
60745SOL    HW284069  11.992   2.587  11.680
60746SOL     OW84070   7.736   3.590  12.866
60746SOL    HW184071   7.793   3.635  12.927
60746SOL    HW284072   7.647   3.611  12.896
60747SOL     OW84073   1.555   4.533   6.639
60747SOL    HW184074   1.473   4.518   6.687
60747SOL    HW284075   1.553   4.626   6.618
60748SOL     OW84076   5.409  10.254  13.175
60748SOL    HW184077   5.463  10.320  13.134
60748SOL    HW284078   5.325  10.297  13.191
60749SOL     OW84079  13.103   3.655   1.176
60749SOL    HW184080  13.168   3.709   1.222
60749SOL    HW284081  13.029   3.649   1.236
60750SOL     OW84082   4.228   5.093   4.740
60750SOL    HW184083   4.221   5.187   4.724
60750SOL    HW284084   4.231   5.085   4.835
60751SOL     OW84085   3.150   7.982   7.216
60751SOL    HW184086   3.067   8.029   7.224
60751SOL    HW284087   3.137   7.903   7.268
60752SOL     OW84088  10.564   5.745   0.063
60752SOL    HW184089  10.476   5.721   0.032
60752SOL    HW284090  10.598   5.664   0.102
60753SOL     OW84091   0.790   8.974  12.678
60753SOL    HW184092   0.717   8.911  12.678
60753SOL    HW284093   0.864   8.924  12.645
60754SOL     OW84094  10.604   1.738  12.669
60754SOL    HW184095  10.651   1.822  12.672
60754SOL    HW284096  10.557   1.740  12.586
60755SOL     OW84097   1.373  10.661   1.180
60755SOL    HW184098   1.426  10.592   1.222
60755SOL    HW284099   1.286  10.651   1.219
60756SOL     OW84100  10.432  10.592  13.566
60756SOL    HW184101  10.424  10.534  13.491
60756SOL    HW284102  10.498  10.656  13.540
60757SOL     OW84103   7.082  14.372   9.559
60757SOL    HW184104   7.076  14.384   9.464
60757SOL    HW284105   7.131  14.448   9.590
60758SOL     OW84106  13.584   5.051  11.160
60758SOL    HW184107  13.559   5.007  11.242
60758SOL    HW284108  13.506   5.101  11.136
60759SOL     OW84109   2.277   9.249   6.400
60759SOL    HW184110   2.352   9.267   6.343
60759SOL    HW284111   2.313   9.193   6.469
60760SOL     OW84112   8.633   4.870   8.668
60760SOL    HW184113   8.612   4.850   8.576
60760SOL    HW284114   8.548   4.880   8.710
60761SOL     OW84115   2.349   1.188   2.258
60761SOL    HW184116   2.436   1.203   2.223
60761SOL    HW284117   2.293   1.178   2.181
60762SOL     OW84118   8.564   8.482   8.848
60762SOL    HW184119   8.584   8.442   8.764
60762SOL    HW284120   8.638   8.458   8.904
60763SOL     OW84121  14.179  14.684   1.819
60763SOL    HW184122  14.273  14.699   1.810
60763SOL    HW284123  14.140  14.771   1.814
60764SOL     OW84124   8.279  14.669   1.366
60764SOL    HW184125   8.273  14.722   1.445
60764SOL    HW284126   8.205  14.608   1.372
60765SOL     OW84127   8.198   5.000   1.663
60765SOL    HW184128   8.208   5.067   1.732
60765SOL    HW284129   8.199   5.050   1.581
60766SOL     OW84130   2.057   8.435   0.742
60766SOL    HW184131   2.041   8.349   0.704
60766SOL    HW284132   2.136   8.423   0.795
60767SOL     OW84133   5.623  11.832   6.266
60767SOL    HW184134   5.700  11.823   6.323
60767SOL    HW284135   5.658  11.870   6.186
60768SOL     OW84136   9.333  11.571   1.294
60768SOL    HW184137   9.413  11.523   1.272
60768SOL    HW284138   9.271  11.545   1.227
60769SOL     OW84139   0.227   1.780  11.272
60769SOL    HW184140   0.263   1.741  11.352
60769SOL    HW284141   0.300   1.831  11.236
60770SOL     OW84142   9.055   0.064   1.438
60770SOL    HW184143   9.134   0.051   1.385
60770SOL    HW284144   9.017   0.145   1.405
60771SOL     OW84145  10.885   2.964  11.285
60771SOL    HW184146  10.938   3.042  11.299
60771SOL    HW284147  10.937   2.910  11.225
60772SOL     OW84148   4.827  14.567  13.334
60772SOL    HW184149   4.740  14.529  13.341
60772SOL    HW284150   4.885  14.493  13.317
60773SOL     OW84151   2.078  13.533   2.363
60773SOL    HW184152   2.112  13.603   2.419
60773SOL    HW284153   1.992  13.564   2.336
60774SOL     OW84154  12.794   0.672  11.070
60774SOL    HW184155  12.713   0.722  11.056
60774SOL    HW284156  12.789   0.644  11.161
60775SOL     OW84157  12.004   1.793   1.177
60775SOL    HW184158  12.056   1.872   1.187
60775SOL    HW284159  11.968   1.776   1.264
60776SOL     OW84160   6.835  11.322  13.564
60776SOL    HW184161   6.765  11.267  13.528
60776SOL    HW284162   6.832  11.306  13.658
60777SOL     OW84163   2.765  13.250  14.851
60777SOL    HW184164   2.826  13.277  14.782
60777SOL    HW284165   2.678  13.265  14.813
60778SOL     OW84166  11.135   8.009   1.742
60778SOL    HW184167  11.101   7.923   1.768
60778SOL    HW284168  11.192   7.990   1.667
60779SOL     OW84169   7.369  13.605   1.156
60779SOL    HW184170   7.305  13.632   1.222
60779SOL    HW284171   7.331  13.633   1.073
60780SOL     OW84172   7.334  11.550  12.138
60780SOL    HW184173   7.243  11.576  12.153
60780SOL    HW284174   7.329  11.485  12.068
60781SOL     OW84175   9.810  13.847   8.781
60781SOL    HW184176   9.869  13.858   8.707
60781SOL    HW284177   9.780  13.756   8.776
60782SOL     OW84178  12.153   6.593  14.374
60782SOL    HW184179  12.210   6.638  14.312
60782SOL    HW284180  12.066   6.600  14.336
60783SOL     OW84181   9.404  11.447   4.438
60783SOL    HW184182   9.395  11.537   4.407
60783SOL    HW284183   9.316  11.410   4.431
60784SOL     OW84184  12.963   1.953  12.486
60784SOL    HW184185  13.031   1.964  12.552
60784SOL    HW284186  12.904   2.027  12.499
60785SOL     OW84187   0.757   0.598   9.766
60785SOL    HW184188   0.754   0.626   9.675
60785SOL    HW284189   0.797   0.511   9.763
60786SOL     OW84190   6.449  10.119   4.676
60786SOL    HW184191   6.382  10.076   4.729
60786SOL    HW284192   6.403  10.193   4.636
60787SOL     OW84193  11.655   8.353   8.645
60787SOL    HW184194  11.713   8.375   8.718
60787SOL    HW284195  11.708   8.369   8.567
60788SOL     OW84196   7.969  14.688   9.044
60788SOL    HW184197   8.012  14.773   9.045
60788SOL    HW284198   7.982  14.655   8.955
60789SOL     OW84199  12.458  14.316  12.457
60789SOL    HW184200  12.434  14.278  12.541
60789SOL    HW284201  12.516  14.252  12.416
60790SOL     OW84202   0.779   2.821  12.658
60790SOL    HW184203   0.859   2.868  12.681
60790SOL    HW284204   0.722   2.888  12.620
60791SOL     OW84205  13.082   7.439   5.168
60791SOL    HW184206  13.063   7.493   5.245
60791SOL    HW284207  13.175   7.421   5.175
60792SOL     OW84208  14.545   7.612   6.327
60792SOL    HW184209  14.617   7.660   6.285
60792SOL    HW284210  14.476   7.678   6.337
60793SOL     OW84211  14.551  11.291   6.868
60793SOL    HW184212  14.635  11.269   6.908
60793SOL    HW284213  14.524  11.372   6.910
60794SOL     OW84214  12.473  11.643   9.583
60794SOL    HW184215  12.529  11.699   9.636
60794SOL    HW284216  12.414  11.703   9.537
60795SOL     OW84217   0.411   6.433   7.448
60795SOL    HW184218   0.347   6.457   7.381
60795SOL    HW284219   0.405   6.337   7.454
60796SOL     OW84220  14.843  12.414   6.192
60796SOL    HW184221  14.751  12.439   6.186
60796SOL    HW284222  14.848  12.329   6.148
60797SOL     OW84223   7.979  10.423   5.987
60797SOL    HW184224   7.945  10.416   5.898
60797SOL    HW284225   8.072  10.445   5.976
60798SOL     OW84226  14.664   5.890   1.750
60798SOL    HW184227  14.618   5.943   1.816
60798SOL    HW284228  14.639   5.800   1.771
60799SOL     OW84229  10.597   0.454   1.052
60799SOL    HW184230  10.664   0.425   0.990
60799SOL    HW284231  10.522   0.476   0.997
60800SOL     OW84232  13.089   3.496   9.912
60800SOL    HW184233  13.161   3.433   9.919
60800SOL    HW284234  13.133   3.579   9.891
60801SOL     OW84235   0.592  13.875   4.945
60801SOL    HW184236   0.677  13.907   4.916
60801SOL    HW284237   0.529  13.916   4.886
60802SOL     OW84238  11.598  11.288   9.358
60802SOL    HW184239  11.602  11.384   9.348
60802SOL    HW284240  11.528  11.261   9.299
60803SOL     OW84241   5.187   6.226   4.699
60803SOL    HW184242   5.171   6.173   4.777
60803SOL    HW284243   5.235   6.168   4.640
60804SOL     OW84244   9.482   1.349  12.351
60804SOL    HW184245   9.558   1.291  12.339
60804SOL    HW284246   9.459   1.377  12.263
60805SOL     OW84247  13.550   0.966   9.454
60805SOL    HW184248  13.626   0.992   9.506
60805SOL    HW284249  13.501   0.906   9.510
60806SOL     OW84250   9.544   0.229   8.007
60806SOL    HW184251   9.473   0.266   7.954
60806SOL    HW284252   9.602   0.187   7.944
60807SOL     OW84253   5.913   8.944  12.723
60807SOL    HW184254   5.910   9.034  12.691
60807SOL    HW284255   5.837   8.901  12.682
60808SOL     OW84256  10.660   4.689   3.606
60808SOL    HW184257  10.752   4.676   3.631
60808SOL    HW284258  10.633   4.604   3.571
60809SOL     OW84259  10.210   4.220   2.990
60809SOL    HW184260  10.306   4.217   2.991
60809SOL    HW284261  10.188   4.241   2.899
60810SOL     OW84262   4.046  13.895   1.248
60810SOL    HW184263   4.011  13.980   1.218
60810SOL    HW284264   4.023  13.834   1.178
60811SOL     OW84265   2.699   0.516  11.577
60811SOL    HW184266   2.639   0.453  11.537
60811SOL    HW284267   2.665   0.602  11.550
60812SOL     OW84268  10.057   7.861  10.771
60812SOL    HW184269  10.152   7.872  10.766
60812SOL    HW284270  10.039   7.847  10.864
60813SOL     OW84271   0.139   4.474   9.890
60813SOL    HW184272   0.116   4.422   9.813
60813SOL    HW284273   0.186   4.550   9.855
60814SOL     OW84274  14.592   7.153  14.503
60814SOL    HW184275  14.678   7.169  14.541
60814SOL    HW284276  14.567   7.236  14.463
60815SOL     OW84277  14.509   5.736   5.217
60815SOL    HW184278  14.549   5.668   5.272
60815SOL    HW284279  14.498   5.694   5.132
60816SOL     OW84280   8.636   2.757   5.373
60816SOL    HW184281   8.670   2.835   5.417
60816SOL    HW284282   8.541   2.769   5.372
60817SOL     OW84283   2.443   6.629  13.496
60817SOL    HW184284   2.380   6.557  13.503
60817SOL    HW284285   2.523   6.595  13.534
60818SOL     OW84286   5.376  14.228   1.886
60818SOL    HW184287   5.337  14.304   1.929
60818SOL    HW284288   5.316  14.156   1.905
60819SOL     OW84289   6.517  11.607  12.207
60819SOL    HW184290   6.591  11.547  12.219
60819SOL    HW284291   6.522  11.667  12.281
60820SOL     OW84292   4.869   7.656  13.121
60820SOL    HW184293   4.913   7.738  13.143
60820SOL    HW284294   4.780   7.666  13.156
60821SOL     OW84295  10.954  10.903   5.838
60821SOL    HW184296  11.020  10.969   5.817
60821SOL    HW284297  10.942  10.911   5.933
60822SOL     OW84298   0.059   5.033  13.862
60822SOL    HW184299   0.143   5.033  13.815
60822SOL    HW284300  14.877   5.075  13.801
60823SOL     OW84301   2.407   4.228   9.644
60823SOL    HW184302   2.461   4.297   9.682
60823SOL    HW284303   2.469   4.157   9.625
60824SOL     OW84304   4.314   3.216   7.464
60824SOL    HW184305   4.263   3.211   7.384
60824SOL    HW284306   4.397   3.257   7.438
60825SOL     OW84307   5.506   4.353   8.322
60825SOL    HW184308   5.460   4.364   8.404
60825SOL    HW284309   5.444   4.309   8.264
60826SOL     OW84310   9.295   4.658  11.251
60826SOL    HW184311   9.311   4.717  11.177
60826SOL    HW284312   9.375   4.607  11.258
60827SOL     OW84313   4.028  11.045  12.574
60827SOL    HW184314   4.068  11.075  12.492
60827SOL    HW284315   4.063  10.957  12.587
60828SOL     OW84316  13.495   6.847   5.095
60828SOL    HW184317  13.500   6.937   5.063
60828SOL    HW284318  13.502   6.793   5.016
60829SOL     OW84319   7.742   0.114   2.009
60829SOL    HW184320   7.809   0.181   2.017
60829SOL    HW284321   7.693   0.117   2.091
60830SOL     OW84322   0.108   0.660  13.603
60830SOL    HW184323   0.116   0.575  13.560
60830SOL    HW284324   0.166   0.718  13.553
60831SOL     OW84325   6.349   7.395  13.742
60831SOL    HW184326   6.396   7.390  13.825
60831SOL    HW284327   6.305   7.310  13.735
60832SOL     OW84328   9.998   4.631   0.621
60832SOL    HW184329   9.945   4.619   0.542
60832SOL    HW284330   9.971   4.559   0.679
60833SOL     OW84331   5.062   1.046  10.041
60833SOL    HW184332   4.986   1.008  10.085
60833SOL    HW284333   5.035   1.056   9.950
60834SOL     OW84334   3.956  13.434  13.016
60834SOL    HW184335   3.998  13.520  13.020
60834SOL    HW284336   4.000  13.389  12.944
60835SOL     OW84337   8.718   2.618   4.613
60835SOL    HW184338   8.704   2.707   4.644
60835SOL    HW284339   8.813   2.609   4.607
60836SOL     OW84340  13.676   4.975   2.716
60836SOL    HW184341  13.738   4.953   2.785
60836SOL    HW284342  13.730   4.980   2.637
60837SOL     OW84343   8.717   2.763   2.317
60837SOL    HW184344   8.675   2.761   2.232
60837SOL    HW284345   8.749   2.853   2.326
60838SOL     OW84346   1.399  12.717   6.154
60838SOL    HW184347   1.480  12.711   6.206
60838SOL    HW284348   1.376  12.810   6.157
60839SOL     OW84349   3.800  12.311   5.870
60839SOL    HW184350   3.732  12.245   5.890
60839SOL    HW284351   3.814  12.303   5.776
60840SOL     OW84352  13.949  10.056   6.683
60840SOL    HW184353  13.949  10.120   6.612
60840SOL    HW284354  13.918  10.105   6.759
60841SOL     OW84355   7.924  14.056   5.487
60841SOL    HW184356   7.998  13.995   5.488
60841SOL    HW284357   7.960  14.136   5.526
60842SOL     OW84358  10.959   1.919  12.696
60842SOL    HW184359  11.033   1.978  12.708
60842SOL    HW284360  10.960   1.864  12.774
60843SOL     OW84361   8.012   1.828  14.225
60843SOL    HW184362   8.089   1.885  14.232
60843SOL    HW284363   8.044   1.741  14.249
60844SOL     OW84364   1.109   7.803   8.492
60844SOL    HW184365   1.200   7.823   8.512
60844SOL    HW284366   1.083   7.870   8.429
60845SOL     OW84367   3.248   1.153   4.873
60845SOL    HW184368   3.254   1.063   4.842
60845SOL    HW284369   3.274   1.206   4.798
60846SOL     OW84370  10.507   8.486  11.790
60846SOL    HW184371  10.511   8.394  11.815
60846SOL    HW284372  10.417   8.512  11.809
60847SOL     OW84373   3.816   9.904   3.746
60847SOL    HW184374   3.727   9.933   3.726
60847SOL    HW284375   3.822   9.817   3.708
60848SOL     OW84376  14.264   5.638  11.416
60848SOL    HW184377  14.265   5.545  11.439
60848SOL    HW284378  14.246   5.683  11.498
60849SOL     OW84379   4.993  14.496   8.402
60849SOL    HW184380   4.910  14.471   8.361
60849SOL    HW284381   4.984  14.590   8.418
60850SOL     OW84382  14.831   8.380   0.882
60850SOL    HW184383   0.035   8.359   0.838
60850SOL    HW284384  14.768   8.388   0.810
60851SOL     OW84385   2.939   4.854   7.886
60851SOL    HW184386   2.981   4.925   7.837
60851SOL    HW284387   2.851   4.886   7.905
60852SOL     OW84388   6.235   0.136  10.166
60852SOL    HW184389   6.328   0.158  10.160
60852SOL    HW284390   6.209   0.114  10.076
60853SOL     OW84391  11.371  13.457   0.423
60853SOL    HW184392  11.352  13.526   0.360
60853SOL    HW284393  11.420  13.500   0.493
60854SOL     OW84394  12.564  13.086   7.924
60854SOL    HW184395  12.614  13.008   7.947
60854SOL    HW284396  12.499  13.055   7.860
60855SOL     OW84397   8.818   4.731   4.983
60855SOL    HW184398   8.893   4.771   4.939
60855SOL    HW284399   8.761   4.702   4.912
60856SOL     OW84400  10.890   3.273   5.680
60856SOL    HW184401  10.922   3.338   5.742
60856SOL    HW284402  10.938   3.193   5.701
60857SOL     OW84403   5.014   3.920   4.922
60857SOL    HW184404   4.987   3.914   4.830
60857SOL    HW284405   4.950   3.866   4.968
60858SOL     OW84406  14.766   5.765  12.770
60858SOL    HW184407  14.850   5.719  12.765
60858SOL    HW284408  14.783   5.838  12.830
60859SOL     OW84409   0.912   8.374   9.025
60859SOL    HW184410   0.934   8.449   9.080
60859SOL    HW284411   0.881   8.307   9.085
60860SOL     OW84412   0.582   1.436   0.177
60860SOL    HW184413   0.643   1.483   0.120
60860SOL    HW284414   0.635   1.412   0.253
60861SOL     OW84415   1.226  13.521   0.306
60861SOL    HW184416   1.316  13.549   0.288
60861SOL    HW284417   1.217  13.439   0.258
60862SOL     OW84418  12.064   7.683   8.304
60862SOL    HW184419  12.133   7.749   8.306
60862SOL    HW284420  12.014   7.698   8.384
60863SOL     OW84421   9.405  10.458  13.894
60863SOL    HW184422   9.498  10.477  13.876
60863SOL    HW284423   9.392  10.369  13.860
60864SOL     OW84424   4.869   5.357   4.930
60864SOL    HW184425   4.859   5.271   4.891
60864SOL    HW284426   4.856   5.418   4.857
60865SOL     OW84427  14.281   9.046   5.620
60865SOL    HW184428  14.373   9.064   5.600
60865SOL    HW284429  14.263   9.096   5.699
60866SOL     OW84430   2.296   7.257   0.625
60866SOL    HW184431   2.332   7.331   0.674
60866SOL    HW284432   2.202   7.261   0.642
60867SOL     OW84433  14.481  10.453   8.677
60867SOL    HW184434  14.552  10.431   8.737
60867SOL    HW284435  14.401  10.437   8.727
60868SOL     OW84436  12.402   9.034   1.354
60868SOL    HW184437  12.495   9.041   1.331
60868SOL    HW284438  12.397   9.062   1.445
60869SOL     OW84439   1.620   8.157  12.770
60869SOL    HW184440   1.689   8.186  12.830
60869SOL    HW284441   1.564   8.233  12.758
60870SOL     OW84442  10.347  14.418   6.844
60870SOL    HW184443  10.271  14.371   6.877
60870SOL    HW284444  10.312  14.482   6.782
60871SOL     OW84445   6.051   2.787   7.292
60871SOL    HW184446   5.970   2.755   7.253
60871SOL    HW284447   6.032   2.877   7.317
60872SOL     OW84448  12.487   3.569   5.404
60872SOL    HW184449  12.497   3.522   5.321
60872SOL    HW284450  12.432   3.512   5.457
60873SOL     OW84451  13.455   8.534  10.977
60873SOL    HW184452  13.427   8.442  10.979
60873SOL    HW284453  13.540   8.532  10.933
60874SOL     OW84454  11.700   6.356   0.938
60874SOL    HW184455  11.788   6.382   0.967
60874SOL    HW284456  11.653   6.438   0.929
60875SOL     OW84457   1.244  12.559  11.783
60875SOL    HW184458   1.239  12.499  11.857
60875SOL    HW284459   1.326  12.535  11.738
60876SOL     OW84460  13.289   3.532  10.521
60876SOL    HW184461  13.260   3.618  10.491
60876SOL    HW284462  13.349   3.501  10.454
60877SOL     OW84463   4.410   2.131   1.526
60877SOL    HW184464   4.314   2.127   1.532
60877SOL    HW284465   4.427   2.190   1.453
60878SOL     OW84466   8.824   1.083   1.557
60878SOL    HW184467   8.806   1.170   1.594
60878SOL    HW284468   8.779   1.023   1.615
60879SOL     OW84469  13.385  10.937   5.800
60879SOL    HW184470  13.396  10.936   5.705
60879SOL    HW284471  13.451  10.875   5.832
60880SOL     OW84472  12.264  10.381   2.402
60880SOL    HW184473  12.262  10.358   2.495
60880SOL    HW284474  12.196  10.448   2.393
60881SOL     OW84475   9.576   4.506  14.056
60881SOL    HW184476   9.612   4.492  13.968
60881SOL    HW284477   9.501   4.447  14.061
60882SOL     OW84478  10.725   9.601  13.866
60882SOL    HW184479  10.754   9.661  13.934
60882SOL    HW284480  10.639   9.635  13.839
60883SOL     OW84481   8.406  11.267   9.028
60883SOL    HW184482   8.362  11.339   8.981
60883SOL    HW284483   8.468  11.231   8.964
60884SOL     OW84484  12.769  13.146   6.754
60884SOL    HW184485  12.776  13.122   6.662
60884SOL    HW284486  12.772  13.242   6.755
60885SOL     OW84487   3.347  14.123   7.423
60885SOL    HW184488   3.413  14.057   7.401
60885SOL    HW284489   3.318  14.098   7.511
60886SOL     OW84490  14.287   6.196  10.560
60886SOL    HW184491  14.328   6.122  10.515
60886SOL    HW284492  14.270   6.163  10.648
60887SOL     OW84493   6.311  13.304   7.222
60887SOL    HW184494   6.321  13.302   7.317
60887SOL    HW284495   6.287  13.215   7.198
60888SOL     OW84496   9.876   8.411  12.342
60888SOL    HW184497   9.949   8.407  12.281
60888SOL    HW284498   9.817   8.476  12.304
60889SOL     OW84499  13.462   8.808   2.810
60889SOL    HW184500  13.452   8.878   2.874
60889SOL    HW284501  13.545   8.828   2.766
60890SOL     OW84502   9.862   9.861   8.857
60890SOL    HW184503   9.882   9.856   8.763
60890SOL    HW284504   9.868   9.771   8.888
60891SOL     OW84505   1.645  12.574  10.715
60891SOL    HW184506   1.627  12.523  10.794
60891SOL    HW284507   1.668  12.661  10.747
60892SOL     OW84508  13.542   7.699   6.505
60892SOL    HW184509  13.575   7.620   6.463
60892SOL    HW284510  13.564   7.770   6.444
60893SOL     OW84511   4.916   1.943  12.742
60893SOL    HW184512   4.965   1.964  12.662
60893SOL    HW284513   4.838   1.897  12.711
60894SOL     OW84514   7.232   7.265   5.633
60894SOL    HW184515   7.273   7.252   5.718
60894SOL    HW284516   7.219   7.177   5.599
60895SOL     OW84517  12.190   3.333   0.004
60895SOL    HW184518  12.259   3.326  14.818
60895SOL    HW284519  12.191   3.249   0.051
60896SOL     OW84520   8.710   2.550  12.674
60896SOL    HW184521   8.672   2.488  12.612
60896SOL    HW284522   8.804   2.536  12.669
60897SOL     OW84523   6.111   0.689   8.353
60897SOL    HW184524   6.187   0.667   8.298
60897SOL    HW284525   6.035   0.661   8.301
60898SOL     OW84526  14.006   0.883  11.025
60898SOL    HW184527  14.085   0.872  11.078
60898SOL    HW284528  13.971   0.968  11.051
60899SOL     OW84529   7.999   3.262   1.609
60899SOL    HW184530   7.907   3.236   1.602
60899SOL    HW284531   8.005   3.306   1.694
60900SOL     OW84532  14.377   7.709   3.497
60900SOL    HW184533  14.448   7.652   3.468
60900SOL    HW284534  14.359   7.765   3.421
60901SOL     OW84535   1.682   5.016   4.197
60901SOL    HW184536   1.664   5.006   4.104
60901SOL    HW284537   1.607   4.974   4.240
60902SOL     OW84538   7.713  10.285   5.946
60902SOL    HW184539   7.758  10.217   5.896
60902SOL    HW284540   7.779  10.320   6.005
60903SOL     OW84541   2.619  13.135   6.391
60903SOL    HW184542   2.546  13.094   6.437
60903SOL    HW284543   2.612  13.101   6.301
60904SOL     OW84544   7.359  10.333  11.377
60904SOL    HW184545   7.390  10.347  11.287
60904SOL    HW284546   7.325  10.419  11.404
60905SOL     OW84547   4.431  10.825   4.751
60905SOL    HW184548   4.449  10.785   4.666
60905SOL    HW284549   4.351  10.782   4.781
60906SOL     OW84550   6.648  13.336   3.048
60906SOL    HW184551   6.714  13.350   3.116
60906SOL    HW284552   6.576  13.292   3.094
60907SOL     OW84553   0.782   2.022   9.000
60907SOL    HW184554   0.857   2.051   9.052
60907SOL    HW284555   0.786   1.926   9.004
60908SOL     OW84556   1.845   8.048   5.967
60908SOL    HW184557   1.923   8.007   5.929
60908SOL    HW284558   1.774   8.027   5.906
60909SOL     OW84559  11.997  11.428  13.103
60909SOL    HW184560  12.005  11.346  13.152
60909SOL    HW284561  12.029  11.496  13.162
60910SOL     OW84562  10.543   6.238   2.807
60910SOL    HW184563  10.473   6.277   2.859
60910SOL    HW284564  10.585   6.175   2.865
60911SOL     OW84565  12.203   8.761   5.744
60911SOL    HW184566  12.244   8.733   5.662
60911SOL    HW284567  12.109   8.764   5.725
60912SOL     OW84568  13.482   9.251   2.397
60912SOL    HW184569  13.444   9.322   2.345
60912SOL    HW284570  13.440   9.172   2.364
60913SOL     OW84571   6.218   6.469  11.144
60913SOL    HW184572   6.240   6.474  11.051
60913SOL    HW284573   6.294   6.505  11.189
60914SOL     OW84574   2.425  10.422   5.441
60914SOL    HW184575   2.516  10.432   5.470
60914SOL    HW284576   2.375  10.410   5.521
60915SOL     OW84577  13.909   7.665  13.498
60915SOL    HW184578  13.844   7.645  13.431
60915SOL    HW284579  13.896   7.597  13.565
60916SOL     OW84580  13.081   8.116   6.997
60916SOL    HW184581  13.004   8.165   6.971
60916SOL    HW284582  13.061   8.025   6.974
60917SOL     OW84583   9.530  11.048  13.313
60917SOL    HW184584   9.462  10.982  13.328
60917SOL    HW284585   9.487  11.132  13.330
60918SOL     OW84586   8.006   4.070   8.258
60918SOL    HW184587   8.071   4.133   8.226
60918SOL    HW284588   8.056   3.990   8.274
60919SOL     OW84589   8.921   8.521  11.505
60919SOL    HW184590   8.844   8.465  11.516
60919SOL    HW284591   8.899   8.601  11.553
60920SOL     OW84592   3.825   2.945  12.301
60920SOL    HW184593   3.775   2.926  12.221
60920SOL    HW284594   3.867   3.029  12.282
60921SOL     OW84595   3.333   6.408  12.105
60921SOL    HW184596   3.356   6.430  12.195
60921SOL    HW284597   3.312   6.492  12.064
60922SOL     OW84598   8.564   2.218  13.192
60922SOL    HW184599   8.598   2.289  13.137
60922SOL    HW284600   8.642   2.171  13.222
60923SOL     OW84601   4.638  10.485   1.761
60923SOL    HW184602   4.689  10.404   1.757
60923SOL    HW284603   4.702  10.554   1.748
60924SOL     OW84604   9.209   5.347  14.331
60924SOL    HW184605   9.163   5.264  14.325
60924SOL    HW284606   9.246   5.361  14.243
60925SOL     OW84607   5.419   3.505   3.193
60925SOL    HW184608   5.489   3.571   3.190
60925SOL    HW284609   5.465   3.422   3.203
60926SOL     OW84610  11.418   1.993   2.003
60926SOL    HW184611  11.395   1.937   2.077
60926SOL    HW284612  11.349   1.978   1.939
60927SOL     OW84613  14.071   7.545  13.839
60927SOL    HW184614  14.089   7.495  13.760
60927SOL    HW284615  14.138   7.517  13.902
60928SOL     OW84616   6.595   5.143   0.768
60928SOL    HW184617   6.680   5.133   0.812
60928SOL    HW284618   6.533   5.155   0.840
60929SOL     OW84619   0.833   3.440   8.140
60929SOL    HW184620   0.749   3.483   8.155
60929SOL    HW284621   0.897   3.495   8.183
60930SOL     OW84622  14.374   5.667  11.881
60930SOL    HW184623  14.308   5.702  11.941
60930SOL    HW284624  14.353   5.708  11.796
60931SOL     OW84625  14.008  14.754  14.731
60931SOL    HW184626  14.040  14.833  14.773
60931SOL    HW284627  13.923  14.738  14.772
60932SOL     OW84628  12.125   2.171   7.932
60932SOL    HW184629  12.119   2.214   8.016
60932SOL    HW284630  12.178   2.093   7.948
60933SOL     OW84631   2.914  14.754   0.354
60933SOL    HW184632   2.850  14.815   0.318
60933SOL    HW284633   2.890  14.668   0.318
60934SOL     OW84634  12.257   9.460   9.882
60934SOL    HW184635  12.306   9.484   9.961
60934SOL    HW284636  12.196   9.532   9.869
60935SOL     OW84637  10.084  13.300   9.209
60935SOL    HW184638  10.019  13.365   9.238
60935SOL    HW284639  10.082  13.232   9.277
60936SOL     OW84640   5.616   8.526   9.478
60936SOL    HW184641   5.701   8.483   9.466
60936SOL    HW284642   5.621   8.605   9.424
60937SOL     OW84643   3.867   6.460   2.812
60937SOL    HW184644   3.866   6.416   2.727
60937SOL    HW284645   3.948   6.510   2.812
60938SOL     OW84646  14.312   3.734   3.376
60938SOL    HW184647  14.259   3.764   3.302
60938SOL    HW284648  14.274   3.777   3.453
60939SOL     OW84649   8.915   5.835   9.498
60939SOL    HW184650   8.868   5.884   9.431
60939SOL    HW284651   8.897   5.743   9.477
60940SOL     OW84652  11.094  10.787  10.990
60940SOL    HW184653  11.068  10.840  10.915
60940SOL    HW284654  11.014  10.743  11.018
60941SOL     OW84655   8.902   7.711   6.899
60941SOL    HW184656   8.844   7.730   6.972
60941SOL    HW284657   8.847   7.720   6.821
60942SOL     OW84658   9.334   5.056   1.511
60942SOL    HW184659   9.331   5.123   1.579
60942SOL    HW284660   9.419   5.068   1.468
60943SOL     OW84661   1.464  10.332   8.018
60943SOL    HW184662   1.542  10.382   7.995
60943SOL    HW284663   1.402  10.352   7.947
60944SOL     OW84664  12.340   0.296   6.640
60944SOL    HW184665  12.304   0.313   6.727
60944SOL    HW284666  12.267   0.255   6.593
60945SOL     OW84667  10.111   7.306  12.503
60945SOL    HW184668  10.113   7.267  12.415
60945SOL    HW284669  10.092   7.399  12.487
60946SOL     OW84670   5.495  12.463  12.600
60946SOL    HW184671   5.584  12.477  12.632
60946SOL    HW284672   5.440  12.465  12.678
60947SOL     OW84673   7.070   7.902   9.615
60947SOL    HW184674   7.146   7.886   9.560
60947SOL    HW284675   6.996   7.904   9.554
60948SOL     OW84676  14.220   5.078   1.821
60948SOL    HW184677  14.195   5.050   1.733
60948SOL    HW284678  14.314   5.061   1.826
60949SOL     OW84679  13.807  12.134  12.844
60949SOL    HW184680  13.849  12.178  12.770
60949SOL    HW284681  13.764  12.204  12.893
60950SOL     OW84682   4.693   8.719   2.414
60950SOL    HW184683   4.764   8.657   2.426
60950SOL    HW284684   4.629   8.696   2.481
60951SOL     OW84685   6.997   8.708   4.032
60951SOL    HW184686   7.027   8.643   4.096
60951SOL    HW284687   6.964   8.656   3.959
60952SOL     OW84688  11.906   4.912   2.615
60952SOL    HW184689  11.811   4.915   2.618
60952SOL    HW284690  11.926   4.848   2.546
60953SOL     OW84691  13.707   9.868   2.795
60953SOL    HW184692  13.729   9.815   2.719
60953SOL    HW284693  13.785   9.921   2.811
60954SOL     OW84694  10.118   0.581   8.956
60954SOL    HW184695  10.208   0.553   8.972
60954SOL    HW284696  10.088   0.524   8.884
60955SOL     OW84697   3.137   9.701  12.565
60955SOL    HW184698   3.177   9.623  12.527
60955SOL    HW284699   3.204   9.769  12.560
60956SOL     OW84700  12.426  12.375   1.522
60956SOL    HW184701  12.429  12.439   1.593
60956SOL    HW284702  12.516  12.371   1.489
60957SOL     OW84703   7.384  13.767  12.576
60957SOL    HW184704   7.449  13.760  12.506
60957SOL    HW284705   7.333  13.686  12.570
60958SOL     OW84706  10.248  10.278  10.362
60958SOL    HW184707  10.203  10.317  10.287
60958SOL    HW284708  10.208  10.192  10.373
60959SOL     OW84709   0.211   8.830  10.082
60959SOL    HW184710   0.129   8.823  10.130
60959SOL    HW284711   0.273   8.865  10.146
60960SOL     OW84712   7.541   2.932   5.778
60960SOL    HW184713   7.485   2.855   5.781
60960SOL    HW284714   7.610   2.909   5.716
60961SOL     OW84715   7.802  13.551  12.906
60961SOL    HW184716   7.744  13.506  12.967
60961SOL    HW284717   7.791  13.504  12.823
60962SOL     OW84718   0.326  14.369   5.706
60962SOL    HW184719   0.385  14.442   5.688
60962SOL    HW284720   0.265  14.402   5.772
60963SOL     OW84721  10.755   3.973  13.193
60963SOL    HW184722  10.754   3.908  13.122
60963SOL    HW284723  10.683   4.032  13.172
60964SOL     OW84724   0.394   1.700   6.209
60964SOL    HW184725   0.455   1.738   6.272
60964SOL    HW284726   0.385   1.768   6.141
60965SOL     OW84727  13.693   4.345   0.569
60965SOL    HW184728  13.637   4.271   0.547
60965SOL    HW284729  13.639   4.400   0.627
60966SOL     OW84730   4.945  13.383   1.072
60966SOL    HW184731   4.865  13.333   1.089
60966SOL    HW284732   4.993  13.330   1.008
60967SOL     OW84733  11.014   8.941  12.732
60967SOL    HW184734  10.920   8.959  12.731
60967SOL    HW284735  11.027   8.889  12.812
60968SOL     OW84736   9.485  14.020   8.478
60968SOL    HW184737   9.447  14.107   8.474
60968SOL    HW284738   9.544  14.016   8.403
60969SOL     OW84739   0.863   7.911   6.022
60969SOL    HW184740   0.808   7.988   6.007
60969SOL    HW284741   0.952   7.944   6.016
60970SOL     OW84742  13.168   1.997   2.590
60970SOL    HW184743  13.137   2.087   2.583
60970SOL    HW284744  13.248   2.003   2.642
60971SOL     OW84745  11.902   1.223   5.040
60971SOL    HW184746  11.868   1.138   5.066
60971SOL    HW284747  11.876   1.232   4.948
60972SOL     OW84748   0.080   9.166   8.484
60972SOL    HW184749   0.056   9.081   8.521
60972SOL    HW284750   0.047   9.230   8.547
60973SOL     OW84751  11.376   5.294   6.937
60973SOL    HW184752  11.452   5.283   6.880
60973SOL    HW284753  11.359   5.207   6.973
60974SOL     OW84754   2.519   1.322   3.848
60974SOL    HW184755   2.437   1.306   3.802
60974SOL    HW284756   2.534   1.243   3.900
60975SOL     OW84757  13.018  10.465  14.589
60975SOL    HW184758  13.066  10.462  14.672
60975SOL    HW284759  13.086  10.462  14.522
60976SOL     OW84760   2.370   2.579  12.492
60976SOL    HW184761   2.461   2.549  12.488
60976SOL    HW284762   2.342   2.580  12.400
60977SOL     OW84763  10.057   5.519   8.374
60977SOL    HW184764  10.144   5.560   8.373
60977SOL    HW284765  10.014   5.553   8.295
60978SOL     OW84766   6.414   4.162   7.371
60978SOL    HW184767   6.466   4.113   7.307
60978SOL    HW284768   6.380   4.096   7.431
60979SOL     OW84769  14.335  14.460   1.084
60979SOL    HW184770  14.379  14.388   1.040
60979SOL    HW284771  14.334  14.435   1.176
60980SOL     OW84772   0.336   6.633   7.260
60980SOL    HW184773   0.328   6.652   7.353
60980SOL    HW284774   0.258   6.583   7.239
60981SOL     OW84775   4.346   0.752   3.138
60981SOL    HW184776   4.371   0.808   3.212
60981SOL    HW284777   4.419   0.761   3.076
60982SOL     OW84778  14.495  13.525   6.593
60982SOL    HW184779  14.587  13.503   6.584
60982SOL    HW284780  14.450  13.440   6.597
60983SOL     OW84781  11.702   7.031  11.281
60983SOL    HW184782  11.650   7.111  11.267
60983SOL    HW284783  11.763   7.054  11.351
60984SOL     OW84784   2.725   0.716  10.258
60984SOL    HW184785   2.632   0.730  10.276
60984SOL    HW284786   2.758   0.803  10.234
60985SOL     OW84787   8.302   9.460   5.873
60985SOL    HW184788   8.277   9.367   5.879
60985SOL    HW284789   8.325   9.484   5.962
60986SOL     OW84790   1.437   8.258   7.477
60986SOL    HW184791   1.502   8.189   7.493
60986SOL    HW284792   1.419   8.253   7.383
60987SOL     OW84793  13.513  12.961  11.818
60987SOL    HW184794  13.608  12.958  11.809
60987SOL    HW284795  13.484  13.014  11.744
60988SOL     OW84796   6.585   7.066  12.187
60988SOL    HW184797   6.671   7.102  12.167
60988SOL    HW284798   6.603   6.982  12.228
60989SOL     OW84799   3.468   6.657   2.806
60989SOL    HW184800   3.409   6.679   2.878
60989SOL    HW284801   3.485   6.564   2.816
60990SOL     OW84802  13.588   3.602   9.024
60990SOL    HW184803  13.537   3.681   9.042
60990SOL    HW284804  13.564   3.541   9.094
60991SOL     OW84805  13.015  12.524   1.921
60991SOL    HW184806  12.967  12.441   1.917
60991SOL    HW284807  13.098  12.501   1.964
60992SOL     OW84808  14.834   4.540   4.026
60992SOL    HW184809  14.806   4.547   4.117
60992SOL    HW284810  14.832   4.630   3.993
60993SOL     OW84811   9.936   5.203   0.600
60993SOL    HW184812  10.023   5.242   0.589
60993SOL    HW284813   9.928   5.189   0.695
60994SOL     OW84814   5.302   7.169  14.859
60994SOL    HW184815   5.272   7.089  14.816
60994SOL    HW284816   5.374   7.200  14.803
60995SOL     OW84817   3.732  12.352   8.807
60995SOL    HW184818   3.670  12.347   8.879
60995SOL    HW284819   3.723  12.268   8.762
60996SOL     OW84820  11.663   9.998  12.824
60996SOL    HW184821  11.707  10.066  12.774
60996SOL    HW284822  11.583   9.980  12.775
60997SOL     OW84823   3.335   6.460   7.570
60997SOL    HW184824   3.323   6.401   7.644
60997SOL    HW284825   3.274   6.428   7.504
60998SOL     OW84826  14.689  12.445   7.963
60998SOL    HW184827  14.692  12.349   7.965
60998SOL    HW284828  14.675  12.466   7.871
60999SOL     OW84829   4.293   0.779   4.779
60999SOL    HW184830   4.219   0.788   4.838
60999SOL    HW284831   4.347   0.856   4.794
61000SOL     OW84832   8.321   1.725   9.318
61000SOL    HW184833   8.275   1.799   9.279
61000SOL    HW284834   8.340   1.752   9.408
61001SOL     OW84835   8.283   9.379   9.096
61001SOL    HW184836   8.241   9.377   9.182
61001SOL    HW284837   8.362   9.326   9.107
61002SOL     OW84838  10.159   9.578   6.412
61002SOL    HW184839  10.168   9.673   6.424
61002SOL    HW284840  10.070   9.558   6.441
61003SOL     OW84841   5.931   3.135   4.661
61003SOL    HW184842   5.853   3.171   4.621
61003SOL    HW284843   6.000   3.200   4.644
61004SOL     OW84844   6.981  10.465   3.191
61004SOL    HW184845   7.052  10.525   3.215
61004SOL    HW284846   6.993  10.389   3.247
61005SOL     OW84847   2.151   2.139   2.185
61005SOL    HW184848   2.165   2.095   2.101
61005SOL    HW284849   2.070   2.189   2.172
61006SOL     OW84850  14.524   8.298   0.498
61006SOL    HW184851  14.565   8.214   0.518
61006SOL    HW284852  14.535   8.349   0.578
61007SOL     OW84853   9.900  12.453  14.672
61007SOL    HW184854   9.992  12.467  14.650
61007SOL    HW284855   9.865  12.542  14.682
61008SOL     OW84856  11.521   8.041   1.309
61008SOL    HW184857  11.509   8.111   1.245
61008SOL    HW284858  11.616   8.035   1.320
61009SOL     OW84859  14.385   3.175   3.127
61009SOL    HW184860  14.470   3.216   3.144
61009SOL    HW284861  14.374   3.179   3.032
61010SOL     OW84862  12.123   3.663   4.967
61010SOL    HW184863  12.104   3.595   4.902
61010SOL    HW284864  12.151   3.614   5.044
61011SOL     OW84865   7.694   1.270   2.590
61011SOL    HW184866   7.652   1.282   2.675
61011SOL    HW284867   7.788   1.276   2.608
61012SOL     OW84868   0.085   1.631   4.684
61012SOL    HW184869   0.095   1.708   4.740
61012SOL    HW284870   0.174   1.606   4.662
61013SOL     OW84871  12.482   0.419   6.992
61013SOL    HW184872  12.518   0.339   6.954
61013SOL    HW284873  12.406   0.389   7.042
61014SOL     OW84874   1.373  12.387   7.666
61014SOL    HW184875   1.464  12.374   7.693
61014SOL    HW284876   1.378  12.417   7.576
61015SOL     OW84877   3.358   7.804   9.363
61015SOL    HW184878   3.328   7.826   9.452
61015SOL    HW284879   3.446   7.767   9.376
61016SOL     OW84880   2.798  12.247   1.749
61016SOL    HW184881   2.820  12.337   1.723
61016SOL    HW284882   2.702  12.246   1.752
61017SOL     OW84883   6.664  11.383   5.866
61017SOL    HW184884   6.569  11.383   5.850
61017SOL    HW284885   6.685  11.292   5.885
61018SOL     OW84886   2.115   6.734  13.405
61018SOL    HW184887   2.146   6.644  13.414
61018SOL    HW284888   2.191   6.782  13.372
61019SOL     OW84889   0.704   6.360   1.473
61019SOL    HW184890   0.703   6.347   1.378
61019SOL    HW284891   0.797   6.363   1.495
61020SOL     OW84892   2.153   7.248   5.619
61020SOL    HW184893   2.167   7.238   5.713
61020SOL    HW284894   2.195   7.171   5.580
61021SOL     OW84895   5.027   7.596   5.805
61021SOL    HW184896   4.989   7.683   5.815
61021SOL    HW284897   5.055   7.592   5.714
61022SOL     OW84898   1.817   9.654   2.702
61022SOL    HW184899   1.767   9.682   2.626
61022SOL    HW284900   1.762   9.677   2.777
61023SOL     OW84901   9.793   2.333  10.938
61023SOL    HW184902   9.807   2.427  10.947
61023SOL    HW284903   9.760   2.305  11.024
61024SOL     OW84904   0.270   7.408  13.615
61024SOL    HW184905   0.250   7.329  13.666
61024SOL    HW284906   0.235   7.480  13.668
61025SOL     OW84907   7.802   7.468  10.963
61025SOL    HW184908   7.843   7.504  11.041
61025SOL    HW284909   7.747   7.396  10.995
61026SOL     OW84910   0.213  10.248  11.133
61026SOL    HW184911   0.130  10.221  11.170
61026SOL    HW284912   0.233  10.181  11.067
61027SOL     OW84913   9.507   8.056   8.450
61027SOL    HW184914   9.430   8.049   8.506
61027SOL    HW284915   9.481   8.015   8.367
61028SOL     OW84916   7.972  13.132   5.870
61028SOL    HW184917   8.000  13.040   5.867
61028SOL    HW284918   8.048  13.181   5.840
61029SOL     OW84919   5.255   4.579  10.940
61029SOL    HW184920   5.221   4.645  10.879
61029SOL    HW284921   5.199   4.503  10.926
61030SOL     OW84922  10.030  10.043   4.834
61030SOL    HW184923  10.118  10.080   4.829
61030SOL    HW284924  10.007  10.023   4.743
61031SOL     OW84925  10.612   1.929  13.481
61031SOL    HW184926  10.705   1.923  13.506
61031SOL    HW284927  10.565   1.927  13.564
61032SOL     OW84928  14.299  13.686   7.671
61032SOL    HW184929  14.233  13.647   7.613
61032SOL    HW284930  14.252  13.707   7.751
61033SOL     OW84931   5.697   2.117   4.845
61033SOL    HW184932   5.722   2.192   4.790
61033SOL    HW284933   5.605   2.103   4.824
61034SOL     OW84934  12.214  14.202   7.226
61034SOL    HW184935  12.247  14.272   7.169
61034SOL    HW284936  12.286  14.184   7.286
61035SOL     OW84937  14.872   7.454   5.805
61035SOL    HW184938   0.072   7.417   5.764
61035SOL    HW284939  14.812   7.380   5.812
61036SOL     OW84940   7.722   3.904   0.458
61036SOL    HW184941   7.664   3.831   0.438
61036SOL    HW284942   7.691   3.975   0.402
61037SOL     OW84943   1.668  14.406  12.358
61037SOL    HW184944   1.617  14.487  12.354
61037SOL    HW284945   1.670  14.384  12.451
61038SOL     OW84946   2.049  14.808   0.341
61038SOL    HW184947   1.963  14.839   0.370
61038SOL    HW284948   2.059  14.845   0.253
61039SOL     OW84949  13.935   7.323  13.427
61039SOL    HW184950  13.990   7.352  13.354
61039SOL    HW284951  13.953   7.229  13.435
61040SOL     OW84952   3.411  14.626   5.196
61040SOL    HW184953   3.322  14.660   5.187
61040SOL    HW284954   3.461  14.672   5.128
61041SOL     OW84955   1.112  12.660   0.830
61041SOL    HW184956   1.027  12.617   0.839
61041SOL    HW284957   1.128  12.663   0.736
61042SOL     OW84958   6.085   8.510  11.662
61042SOL    HW184959   6.092   8.431  11.609
61042SOL    HW284960   6.158   8.505  11.723
61043SOL     OW84961  10.987   8.915   6.075
61043SOL    HW184962  11.075   8.878   6.078
61043SOL    HW284963  10.960   8.907   5.984
61044SOL     OW84964   3.575   4.464  13.898
61044SOL    HW184965   3.552   4.406  13.970
61044SOL    HW284966   3.652   4.423  13.858
61045SOL     OW84967   5.160   3.696   6.347
61045SOL    HW184968   5.080   3.701   6.294
61045SOL    HW284969   5.231   3.708   6.283
61046SOL     OW84970   0.536   4.195   7.436
61046SOL    HW184971   0.466   4.241   7.483
61046SOL    HW284972   0.502   4.187   7.347
61047SOL     OW84973   2.502   7.348   4.099
61047SOL    HW184974   2.434   7.369   4.035
61047SOL    HW284975   2.508   7.426   4.154
61048SOL     OW84976  13.168  13.236  10.240
61048SOL    HW184977  13.217  13.197  10.312
61048SOL    HW284978  13.164  13.329  10.261
61049SOL     OW84979   1.423  14.836   2.977
61049SOL    HW184980   1.378  14.805   3.056
61049SOL    HW284981   1.448  14.756   2.931
61050SOL     OW84982   1.459   5.965   1.151
61050SOL    HW184983   1.552   5.985   1.139
61050SOL    HW284984   1.443   5.981   1.244
61051SOL     OW84985   1.157   8.122   3.836
61051SOL    HW184986   1.172   8.158   3.749
61051SOL    HW284987   1.066   8.092   3.833
61052SOL     OW84988  12.668  11.747   7.119
61052SOL    HW184989  12.738  11.712   7.174
61052SOL    HW284990  12.623  11.669   7.086
61053SOL     OW84991   2.701   0.640   1.691
61053SOL    HW184992   2.790   0.674   1.701
61053SOL    HW284993   2.680   0.601   1.776
61054SOL     OW84994  14.840  10.305  14.142
61054SOL    HW184995  14.801  10.386  14.110
61054SOL    HW284996   0.047  10.301  14.098
61055SOL     OW84997   4.141   5.309   9.445
61055SOL    HW184998   4.165   5.291   9.354
61055SOL    HW284999   4.058   5.357   9.439
61056SOL     OW85000  11.257   2.924   1.859
61056SOL    HW185001  11.241   2.836   1.823
61056SOL    HW285002  11.172   2.967   1.856
61057SOL     OW85003   8.246   0.864   8.949
61057SOL    HW185004   8.340   0.848   8.941
61057SOL    HW285005   8.237   0.914   9.030
61058SOL     OW85006  14.563   0.705  13.778
61058SOL    HW185007  14.599   0.793  13.791
61058SOL    HW285008  14.468   0.717  13.785
61059SOL     OW85009  13.828  13.066   8.412
61059SOL    HW185010  13.844  13.051   8.505
61059SOL    HW285011  13.914  13.089   8.377
61060SOL     OW85012   3.610   4.721   8.508
61060SOL    HW185013   3.662   4.771   8.571
61060SOL    HW285014   3.675   4.680   8.451
61061SOL     OW85015  11.099   8.688   2.704
61061SOL    HW185016  11.146   8.760   2.662
61061SOL    HW285017  11.151   8.667   2.781
61062SOL     OW85018   9.762   1.372   4.715
61062SOL    HW185019   9.718   1.445   4.757
61062SOL    HW285020   9.847   1.367   4.758
61063SOL     OW85021   3.418   3.372   9.276
61063SOL    HW185022   3.374   3.320   9.209
61063SOL    HW285023   3.368   3.356   9.356
61064SOL     OW85024   7.735   2.676   0.491
61064SOL    HW185025   7.813   2.729   0.506
61064SOL    HW285026   7.769   2.590   0.467
61065SOL     OW85027  12.628  10.104   9.784
61065SOL    HW185028  12.637  10.199   9.781
61065SOL    HW285029  12.539  10.088   9.753
61066SOL     OW85030  10.335   4.411  12.543
61066SOL    HW185031  10.419   4.383  12.577
61066SOL    HW285032  10.283   4.432  12.621
61067SOL     OW85033  10.174   1.128   3.821
61067SOL    HW185034  10.155   1.049   3.871
61067SOL    HW285035  10.128   1.116   3.738
61068SOL     OW85036   0.611  10.547   9.690
61068SOL    HW185037   0.546  10.490   9.731
61068SOL    HW285038   0.695  10.514   9.721
61069SOL     OW85039  14.646  12.270  13.689
61069SOL    HW185040  14.570  12.275  13.631
61069SOL    HW285041  14.710  12.330  13.649
61070SOL     OW85042   9.816   6.044  11.680
61070SOL    HW185043   9.733   6.046  11.727
61070SOL    HW285044   9.867   5.977  11.726
61071SOL     OW85045  14.492   7.392   2.050
61071SOL    HW185046  14.452   7.329   1.991
61071SOL    HW285047  14.567   7.345   2.088
61072SOL     OW85048   9.563   1.802   6.612
61072SOL    HW185049   9.503   1.801   6.537
61072SOL    HW285050   9.589   1.710   6.623
61073SOL     OW85051  10.195   7.211   2.214
61073SOL    HW185052  10.250   7.258   2.150
61073SOL    HW285053  10.185   7.123   2.177
61074SOL     OW85054   4.901   5.879  13.853
61074SOL    HW185055   4.965   5.808  13.840
61074SOL    HW285056   4.860   5.889  13.767
61075SOL     OW85057   8.532   2.360   2.288
61075SOL    HW185058   8.612   2.392   2.248
61075SOL    HW285059   8.464   2.375   2.223
61076SOL     OW85060  13.439   6.339   7.329
61076SOL    HW185061  13.394   6.268   7.284
61076SOL    HW285062  13.411   6.332   7.421
61077SOL     OW85063   7.177   2.180  11.956
61077SOL    HW185064   7.163   2.223  11.872
61077SOL    HW285065   7.270   2.194  11.975
61078SOL     OW85066   4.070  14.465   3.092
61078SOL    HW185067   4.019  14.449   3.171
61078SOL    HW285068   4.061  14.559   3.076
61079SOL     OW85069  12.258  11.443   4.483
61079SOL    HW185070  12.308  11.498   4.422
61079SOL    HW285071  12.199  11.505   4.526
61080SOL     OW85072   2.361  12.232   2.425
61080SOL    HW185073   2.427  12.297   2.449
61080SOL    HW285074   2.376  12.215   2.332
61081SOL     OW85075   8.730  14.146  11.872
61081SOL    HW185076   8.655  14.205  11.880
61081SOL    HW285077   8.797  14.199  11.829
61082SOL     OW85078   3.421  12.474   3.560
61082SOL    HW185079   3.485  12.536   3.594
61082SOL    HW285080   3.435  12.473   3.466
61083SOL     OW85081   9.894   8.999   3.340
61083SOL    HW185082   9.925   9.087   3.318
61083SOL    HW285083   9.829   9.013   3.409
61084SOL     OW85084  11.401   2.218  12.327
61084SOL    HW185085  11.350   2.298  12.337
61084SOL    HW285086  11.446   2.228  12.243
61085SOL     OW85087  11.263   8.749   4.789
61085SOL    HW185088  11.184   8.802   4.798
61085SOL    HW285089  11.237   8.676   4.734
61086SOL     OW85090   0.599   6.358  11.428
61086SOL    HW185091   0.666   6.372  11.361
61086SOL    HW285092   0.590   6.443  11.471
61087SOL     OW85093   1.248   2.390   4.767
61087SOL    HW185094   1.257   2.424   4.678
61087SOL    HW285095   1.258   2.296   4.758
61088SOL     OW85096  10.237   3.550   1.646
61088SOL    HW185097  10.330   3.532   1.658
61088SOL    HW285098  10.232   3.586   1.557
61089SOL     OW85099   7.506  12.759   2.561
61089SOL    HW185100   7.562  12.758   2.483
61089SOL    HW285101   7.518  12.672   2.600
61090SOL     OW85102   1.405   2.232   4.950
61090SOL    HW185103   1.427   2.309   4.899
61090SOL    HW285104   1.310   2.223   4.941
61091SOL     OW85105  11.334  10.272   3.055
61091SOL    HW185106  11.291  10.272   2.969
61091SOL    HW285107  11.387  10.192   3.055
61092SOL     OW85108   7.005   6.068   2.432
61092SOL    HW185109   7.026   6.089   2.341
61092SOL    HW285110   7.017   5.973   2.438
61093SOL     OW85111  13.595  13.579   2.373
61093SOL    HW185112  13.688  13.562   2.361
61093SOL    HW285113  13.580  13.564   2.466
61094SOL     OW85114   7.423   3.877  11.003
61094SOL    HW185115   7.387   3.956  10.964
61094SOL    HW285116   7.368   3.806  10.971
61095SOL     OW85117   0.123   6.109  13.287
61095SOL    HW185118   0.201   6.092  13.235
61095SOL    HW285119   0.056   6.050  13.251
61096SOL     OW85120   3.772  14.872  13.493
61096SOL    HW185121   3.690  14.841  13.531
61096SOL    HW285122   3.798  14.803  13.432
61097SOL     OW85123   8.176   7.576   1.398
61097SOL    HW185124   8.254   7.631   1.404
61097SOL    HW285125   8.197   7.513   1.329
61098SOL     OW85126   6.893   3.891   1.752
61098SOL    HW185127   6.979   3.923   1.724
61098SOL    HW285128   6.831   3.952   1.713
61099SOL     OW85129  10.947   8.332   3.857
61099SOL    HW185130  10.884   8.404   3.865
61099SOL    HW285131  10.930   8.277   3.933
61100SOL     OW85132   4.092   2.182   2.007
61100SOL    HW185133   4.044   2.124   2.067
61100SOL    HW285134   4.027   2.244   1.976
61101SOL     OW85135  10.442   4.960  13.138
61101SOL    HW185136  10.394   4.971  13.220
61101SOL    HW285137  10.374   4.943  13.073
61102SOL     OW85138   7.501   0.988   6.081
61102SOL    HW185139   7.434   1.039   6.036
61102SOL    HW285140   7.455   0.910   6.113
61103SOL     OW85141   7.541   2.223   3.823
61103SOL    HW185142   7.549   2.159   3.753
61103SOL    HW285143   7.620   2.277   3.815
61104SOL     OW85144  13.992  10.404   5.587
61104SOL    HW185145  13.934  10.347   5.638
61104SOL    HW285146  13.978  10.491   5.625
61105SOL     OW85147   8.590   7.536   3.428
61105SOL    HW185148   8.599   7.481   3.351
61105SOL    HW285149   8.602   7.477   3.502
61106SOL     OW85150   6.625   0.342   8.659
61106SOL    HW185151   6.693   0.389   8.610
61106SOL    HW285152   6.600   0.269   8.601
61107SOL     OW85153   3.837  11.837   6.022
61107SOL    HW185154   3.931  11.821   6.038
61107SOL    HW285155   3.795  11.815   6.105
61108SOL     OW85156   0.340  12.311   8.134
61108SOL    HW185157   0.266  12.356   8.092
61108SOL    HW285158   0.416  12.365   8.112
61109SOL     OW85159   0.624   5.129   8.134
61109SOL    HW185160   0.571   5.063   8.087
61109SOL    HW285161   0.586   5.213   8.107
61110SOL     OW85162  12.202   2.738   8.542
61110SOL    HW185163  12.119   2.765   8.502
61110SOL    HW285164  12.222   2.653   8.502
61111SOL     OW85165   4.234  13.251   6.434
61111SOL    HW185166   4.299  13.297   6.381
61111SOL    HW285167   4.273  13.164   6.448
61112SOL     OW85168  14.702   2.974   1.264
61112SOL    HW185169  14.653   2.932   1.335
61112SOL    HW285170  14.651   2.953   1.185
61113SOL     OW85171   6.087   0.150   1.881
61113SOL    HW185172   6.042   0.164   1.798
61113SOL    HW285173   6.155   0.218   1.883
61114SOL     OW85174   5.398  11.721   4.505
61114SOL    HW185175   5.321  11.666   4.497
61114SOL    HW285176   5.378  11.798   4.453
61115SOL     OW85177  11.434   3.617   1.239
61115SOL    HW185178  11.397   3.549   1.296
61115SOL    HW285179  11.396   3.699   1.272
61116SOL     OW85180   3.590   9.612  14.443
61116SOL    HW185181   3.675   9.636  14.406
61116SOL    HW285182   3.537   9.587  14.368
61117SOL     OW85183   5.996   3.739   1.860
61117SOL    HW185184   5.960   3.734   1.772
61117SOL    HW285185   6.000   3.833   1.879
61118SOL     OW85186   9.507   8.087  10.575
61118SOL    HW185187   9.584   8.143  10.568
61118SOL    HW285188   9.516   8.045  10.661
61119SOL     OW85189   1.708  10.270   2.500
61119SOL    HW185190   1.759  10.191   2.481
61119SOL    HW285191   1.769  10.327   2.548
61120SOL     OW85192   2.181   8.539  12.869
61120SOL    HW185193   2.183   8.632  12.889
61120SOL    HW285194   2.110   8.503  12.922
61121SOL     OW85195   5.099   2.181  12.769
61121SOL    HW185196   5.159   2.111  12.745
61121SOL    HW285197   5.026   2.137  12.813
61122SOL     OW85198   7.974  12.758  13.325
61122SOL    HW185199   7.978  12.722  13.413
61122SOL    HW285200   7.913  12.832  13.332
61123SOL     OW85201  12.627   9.114  12.477
61123SOL    HW185202  12.560   9.180  12.494
61123SOL    HW285203  12.640   9.071  12.562
61124SOL     OW85204  11.069   4.818   8.065
61124SOL    HW185205  11.006   4.889   8.074
61124SOL    HW285206  11.081   4.784   8.154
61125SOL     OW85207  14.828   2.827  14.188
61125SOL    HW185208  14.757   2.891  14.188
61125SOL    HW285209  14.785   2.742  14.194
61126SOL     OW85210   1.703   4.808   7.945
61126SOL    HW185211   1.772   4.752   7.911
61126SOL    HW285212   1.676   4.862   7.870
61127SOL     OW85213  13.248   4.700   5.742
61127SOL    HW185214  13.165   4.730   5.705
61127SOL    HW285215  13.224   4.633   5.805
61128SOL     OW85216   5.043   0.671  11.445
61128SOL    HW185217   5.084   0.749  11.483
61128SOL    HW285218   5.090   0.658  11.362
61129SOL     OW85219  14.164  10.222  14.023
61129SOL    HW185220  14.226  10.235  14.095
61129SOL    HW285221  14.081  10.254  14.057
61130SOL     OW85222   6.350   9.035  14.637
61130SOL    HW185223   6.350   9.116  14.586
61130SOL    HW285224   6.337   9.063  14.728
61131SOL     OW85225  13.825   8.458  14.258
61131SOL    HW185226  13.735   8.437  14.232
61131SOL    HW285227  13.834   8.552  14.239
61132SOL     OW85228   0.696  14.762   2.155
61132SOL    HW185229   0.760  14.775   2.085
61132SOL    HW285230   0.620  14.724   2.111
61133SOL     OW85231  14.462   7.536   0.188
61133SOL    HW185232  14.547   7.495   0.205
61133SOL    HW285233  14.468   7.570   0.099
61134SOL     OW85234   2.456   6.528   3.584
61134SOL    HW185235   2.383   6.489   3.536
61134SOL    HW285236   2.421   6.611   3.618
61135SOL     OW85237   7.187   0.193   2.208
61135SOL    HW185238   7.253   0.135   2.170
61135SOL    HW285239   7.233   0.277   2.220
61136SOL     OW85240  12.692   0.944  12.611
61136SOL    HW185241  12.629   1.005  12.573
61136SOL    HW285242  12.671   0.860  12.570
61137SOL     OW85243   3.518  10.656   2.162
61137SOL    HW185244   3.594  10.612   2.123
61137SOL    HW285245   3.443  10.617   2.118
61138SOL     OW85246   0.502   9.450  12.527
61138SOL    HW185247   0.550   9.528  12.555
61138SOL    HW285248   0.458   9.418  12.606
61139SOL     OW85249   4.771   8.237   9.936
61139SOL    HW185250   4.861   8.256   9.910
61139SOL    HW285251   4.752   8.151   9.898
61140SOL     OW85252  12.956   0.930   3.729
61140SOL    HW185253  12.958   0.921   3.824
61140SOL    HW285254  12.928   0.844   3.698
61141SOL     OW85255  13.645  10.014   5.941
61141SOL    HW185256  13.734  10.021   5.906
61141SOL    HW285257  13.589  10.015   5.864
61142SOL     OW85258  13.202   6.290  11.036
61142SOL    HW185259  13.261   6.230  11.083
61142SOL    HW285260  13.213   6.374  11.080
61143SOL     OW85261   4.619   5.363   1.358
61143SOL    HW185262   4.658   5.447   1.334
61143SOL    HW285263   4.625   5.310   1.279
61144SOL     OW85264  13.284  11.829   1.277
61144SOL    HW185265  13.302  11.920   1.255
61144SOL    HW285266  13.366  11.796   1.314
61145SOL     OW85267   0.582  10.493  11.825
61145SOL    HW185268   0.557  10.507  11.733
61145SOL    HW285269   0.674  10.467  11.820
61146SOL     OW85270   1.096  13.293   7.934
61146SOL    HW185271   1.038  13.226   7.898
61146SOL    HW285272   1.145  13.248   8.003
61147SOL     OW85273  13.446   0.877  10.346
61147SOL    HW185274  13.497   0.945  10.390
61147SOL    HW285275  13.512   0.817  10.311
61148SOL     OW85276   3.909   9.309  14.140
61148SOL    HW185277   3.909   9.214  14.150
61148SOL    HW285278   3.941   9.342  14.223
61149SOL     OW85279   7.218  11.685  12.366
61149SOL    HW185280   7.274  11.679  12.443
61149SOL    HW285281   7.130  11.696  12.401
61150SOL     OW85282  10.267   4.723   6.003
61150SOL    HW185283  10.311   4.751   6.083
61150SOL    HW285284  10.250   4.804   5.955
61151SOL     OW85285   4.379  11.202   5.867
61151SOL    HW185286   4.289  11.217   5.895
61151SOL    HW285287   4.399  11.276   5.809
61152SOL     OW85288   1.755   3.457  12.179
61152SOL    HW185289   1.850   3.442  12.186
61152SOL    HW285290   1.717   3.370  12.175
61153SOL     OW85291  10.394   3.382  14.445
61153SOL    HW185292  10.421   3.297  14.411
61153SOL    HW285293  10.389   3.438  14.367
61154SOL     OW85294  12.029   3.819  11.287
61154SOL    HW185295  11.956   3.824  11.348
61154SOL    HW285296  11.989   3.833  11.201
61155SOL     OW85297   6.764   8.481   1.616
61155SOL    HW185298   6.761   8.493   1.521
61155SOL    HW285299   6.679   8.511   1.647
61156SOL     OW85300  11.456  10.286   7.796
61156SOL    HW185301  11.551  10.299   7.807
61156SOL    HW285302  11.432  10.225   7.865
61157SOL     OW85303   3.124  10.976   3.048
61157SOL    HW185304   3.169  10.985   3.133
61157SOL    HW285305   3.189  11.003   2.984
61158SOL     OW85306   9.543  10.530  13.623
61158SOL    HW185307   9.483  10.456  13.614
61158SOL    HW285308   9.603  10.504  13.693
61159SOL     OW85309   4.318   3.902  10.005
61159SOL    HW185310   4.254   3.857  10.061
61159SOL    HW285311   4.265   3.943   9.937
61160SOL     OW85312  12.579   3.788   5.541
61160SOL    HW185313  12.533   3.730   5.481
61160SOL    HW285314  12.532   3.871   5.534
61161SOL     OW85315   8.924   6.418   1.071
61161SOL    HW185316   9.018   6.433   1.061
61161SOL    HW285317   8.905   6.442   1.162
61162SOL     OW85318   8.383  11.631   2.564
61162SOL    HW185319   8.408  11.631   2.657
61162SOL    HW285320   8.464  11.608   2.518
61163SOL     OW85321   7.162   4.217  14.683
61163SOL    HW185322   7.166   4.250  14.772
61163SOL    HW285323   7.072   4.236  14.655
61164SOL     OW85324  14.495  10.694   2.360
61164SOL    HW185325  14.459  10.730   2.441
61164SOL    HW285326  14.438  10.621   2.337
61165SOL     OW85327   2.744   0.523   9.237
61165SOL    HW185328   2.830   0.536   9.198
61165SOL    HW285329   2.739   0.429   9.254
61166SOL     OW85330  13.112   3.054  13.820
61166SOL    HW185331  13.064   2.993  13.876
61166SOL    HW285332  13.156   2.999  13.756
61167SOL     OW85333   5.170   6.559   6.637
61167SOL    HW185334   5.263   6.542   6.653
61167SOL    HW285335   5.163   6.655   6.639
61168SOL     OW85336  14.497   6.083  12.131
61168SOL    HW185337  14.504   6.168  12.088
61168SOL    HW285338  14.569   6.082  12.194
61169SOL     OW85339   3.723  12.909   5.537
61169SOL    HW185340   3.646  12.883   5.486
61169SOL    HW285341   3.686  12.953   5.614
61170SOL     OW85342   5.172   8.337   5.984
61170SOL    HW185343   5.149   8.370   5.898
61170SOL    HW285344   5.230   8.262   5.966
61171SOL     OW85345   9.766   8.162  12.394
61171SOL    HW185346   9.674   8.188  12.385
61171SOL    HW285347   9.814   8.243  12.378
61172SOL     OW85348   6.599   6.330   4.101
61172SOL    HW185349   6.536   6.311   4.171
61172SOL    HW285350   6.655   6.253   4.098
61173SOL     OW85351   7.584   6.937  10.645
61173SOL    HW185352   7.569   6.850  10.606
61173SOL    HW285353   7.553   6.998  10.579
61174SOL     OW85354  13.599   5.204  13.663
61174SOL    HW185355  13.533   5.164  13.719
61174SOL    HW285356  13.622   5.286  13.707
61175SOL     OW85357   6.304   8.913  10.946
61175SOL    HW185358   6.250   8.991  10.955
61175SOL    HW285359   6.387   8.945  10.911
61176SOL     OW85360   4.256   4.129  10.592
61176SOL    HW185361   4.213   4.210  10.565
61176SOL    HW285362   4.267   4.137  10.687
61177SOL     OW85363   3.408  12.893   9.980
61177SOL    HW185364   3.488  12.852  10.013
61177SOL    HW285365   3.403  12.977  10.026
61178SOL     OW85366   1.040  11.429   8.107
61178SOL    HW185367   0.965  11.446   8.164
61178SOL    HW285368   1.062  11.337   8.122
61179SOL     OW85369   1.412   9.993   3.492
61179SOL    HW185370   1.503   9.994   3.463
61179SOL    HW285371   1.394  10.084   3.516
61180SOL     OW85372   4.756   1.550   9.105
61180SOL    HW185373   4.851   1.551   9.111
61180SOL    HW285374   4.727   1.608   9.176
61181SOL     OW85375  13.248   1.834   4.169
61181SOL    HW185376  13.193   1.838   4.090
61181SOL    HW285377  13.196   1.879   4.236
61182SOL     OW85378   6.590   5.364   1.338
61182SOL    HW185379   6.495   5.371   1.330
61182SOL    HW285380   6.615   5.302   1.270
61183SOL     OW85381   3.855   3.198  12.858
61183SOL    HW185382   3.782   3.172  12.802
61183SOL    HW285383   3.933   3.188  12.802
61184SOL     OW85384   9.146  12.174   8.187
61184SOL    HW185385   9.137  12.212   8.100
61184SOL    HW285386   9.111  12.242   8.246
61185SOL     OW85387  11.198   5.778   3.399
61185SOL    HW185388  11.211   5.741   3.486
61185SOL    HW285389  11.107   5.757   3.377
61186SOL     OW85390   0.171  13.406   9.612
61186SOL    HW185391   0.155  13.404   9.518
61186SOL    HW285392   0.217  13.324   9.631
61187SOL     OW85393  12.789   1.314  14.161
61187SOL    HW185394  12.862   1.333  14.103
61187SOL    HW285395  12.775   1.220  14.151
61188SOL     OW85396   0.160   2.092  14.328
61188SOL    HW185397   0.218   2.060  14.397
61188SOL    HW285398   0.189   2.182  14.312
61189SOL     OW85399  10.254   7.798   3.165
61189SOL    HW185400  10.182   7.836   3.115
61189SOL    HW285401  10.262   7.854   3.242
61190SOL     OW85402   7.438   6.702   3.659
61190SOL    HW185403   7.394   6.639   3.600
61190SOL    HW285404   7.394   6.690   3.743
61191SOL     OW85405  13.663   3.134   5.299
61191SOL    HW185406  13.663   3.060   5.359
61191SOL    HW285407  13.598   3.111   5.232
61192SOL     OW85408  10.848  12.982   3.791
61192SOL    HW185409  10.901  12.935   3.726
61192SOL    HW285410  10.787  13.033   3.738
61193SOL     OW85411   4.329  14.405  11.291
61193SOL    HW185412   4.340  14.490  11.333
61193SOL    HW285413   4.384  14.410  11.213
61194SOL     OW85414   5.474   3.328   3.777
61194SOL    HW185415   5.524   3.401   3.813
61194SOL    HW285416   5.539   3.261   3.756
61195SOL     OW85417   2.556  11.923  10.772
61195SOL    HW185418   2.540  11.990  10.705
61195SOL    HW285419   2.477  11.869  10.771
61196SOL     OW85420   1.456   2.343  14.579
61196SOL    HW185421   1.396   2.313  14.647
61196SOL    HW285422   1.540   2.354  14.624
61197SOL     OW85423   1.469  10.481   2.219
61197SOL    HW185424   1.477  10.514   2.129
61197SOL    HW285425   1.533  10.410   2.224
61198SOL     OW85426   9.791   2.127  12.452
61198SOL    HW185427   9.861   2.158  12.394
61198SOL    HW285428   9.837   2.104  12.533
61199SOL     OW85429   9.541   3.598   4.022
61199SOL    HW185430   9.521   3.527   4.084
61199SOL    HW285431   9.636   3.594   4.011
61200SOL     OW85432   6.581  13.669   5.827
61200SOL    HW185433   6.505  13.715   5.863
61200SOL    HW285434   6.617  13.729   5.762
61201SOL     OW85435   3.098   0.617   2.896
61201SOL    HW185436   3.049   0.623   2.978
61201SOL    HW285437   3.082   0.528   2.864
61202SOL     OW85438   1.054  10.798  11.992
61202SOL    HW185439   1.108  10.807  12.070
61202SOL    HW285440   1.033  10.887  11.966
61203SOL     OW85441  10.793   6.487   4.278
61203SOL    HW185442  10.775   6.536   4.358
61203SOL    HW285443  10.707   6.476   4.236
61204SOL     OW85444   5.955  11.552   2.740
61204SOL    HW185445   5.914  11.610   2.804
61204SOL    HW285446   5.886  11.489   2.717
61205SOL     OW85447  13.487  12.081   7.913
61205SOL    HW185448  13.452  11.992   7.917
61205SOL    HW285449  13.415  12.136   7.944
61206SOL     OW85450  14.019   1.206  11.883
61206SOL    HW185451  14.057   1.185  11.968
61206SOL    HW285452  14.067   1.150  11.821
61207SOL     OW85453   5.888   1.303  10.392
61207SOL    HW185454   5.891   1.241  10.465
61207SOL    HW285455   5.814   1.275  10.339
61208SOL     OW85456   7.052   3.817  11.691
61208SOL    HW185457   7.113   3.775  11.630
61208SOL    HW285458   7.106   3.882  11.737
61209SOL     OW85459   2.273   2.926   2.587
61209SOL    HW185460   2.204   2.874   2.545
61209SOL    HW285461   2.344   2.863   2.603
61210SOL     OW85462   5.737   1.789   3.688
61210SOL    HW185463   5.674   1.860   3.678
61210SOL    HW285464   5.685   1.715   3.718
61211SOL     OW85465   6.281  12.798   3.595
61211SOL    HW185466   6.295  12.756   3.510
61211SOL    HW285467   6.186  12.793   3.610
61212SOL     OW85468   7.996   1.691  13.435
61212SOL    HW185469   8.028   1.741  13.360
61212SOL    HW285470   7.904   1.715  13.442
61213SOL     OW85471   1.898   8.432  11.723
61213SOL    HW185472   1.871   8.485  11.648
61213SOL    HW285473   1.822   8.431  11.781
61214SOL     OW85474   2.670  10.886   5.272
61214SOL    HW185475   2.648  10.897   5.179
61214SOL    HW285476   2.652  10.794   5.290
61215SOL     OW85477   4.886   7.488  13.401
61215SOL    HW185478   4.824   7.426  13.362
61215SOL    HW285479   4.896   7.556  13.334
61216SOL     OW85480   1.111   4.406   4.603
61216SOL    HW185481   1.059   4.326   4.608
61216SOL    HW285482   1.049   4.474   4.577
61217SOL     OW85483   4.184   6.328   5.309
61217SOL    HW185484   4.259   6.357   5.362
61217SOL    HW285485   4.221   6.263   5.250
61218SOL     OW85486  12.340   7.235   0.367
61218SOL    HW185487  12.366   7.145   0.383
61218SOL    HW285488  12.375   7.255   0.280
61219SOL     OW85489   9.440  10.894   1.527
61219SOL    HW185490   9.485  10.810   1.528
61219SOL    HW285491   9.372  10.885   1.460
61220SOL     OW85492   4.613   7.834  11.010
61220SOL    HW185493   4.638   7.772  10.941
61220SOL    HW285494   4.644   7.919  10.979
61221SOL     OW85495   7.340  12.714  10.428
61221SOL    HW185496   7.423  12.748  10.395
61221SOL    HW285497   7.298  12.674  10.352
61222SOL     OW85498   9.065  11.540  13.374
61222SOL    HW185499   9.127  11.499  13.314
61222SOL    HW285500   9.099  11.629  13.386
61223SOL     OW85501  14.860   5.120   9.018
61223SOL    HW185502  14.833   5.093   9.106
61223SOL    HW285503  14.781   5.156   8.978
61224SOL     OW85504   4.105  11.842   0.556
61224SOL    HW185505   4.187  11.793   0.554
61224SOL    HW285506   4.106  11.887   0.640
61225SOL     OW85507  13.024   5.691   8.805
61225SOL    HW185508  13.020   5.596   8.794
61225SOL    HW285509  13.050   5.704   8.896
61226SOL     OW85510  11.541   4.734   8.637
61226SOL    HW185511  11.556   4.657   8.582
61226SOL    HW285512  11.567   4.808   8.583
61227SOL     OW85513   5.341   8.004  12.169
61227SOL    HW185514   5.315   7.917  12.201
61227SOL    HW285515   5.354   8.056  12.248
61228SOL     OW85516  11.553   8.349   7.769
61228SOL    HW185517  11.642   8.370   7.742
61228SOL    HW285518  11.506   8.433   7.765
61229SOL     OW85519  14.094   3.320   7.204
61229SOL    HW185520  14.046   3.259   7.260
61229SOL    HW285521  14.032   3.342   7.134
61230SOL     OW85522  10.139  13.875   9.674
61230SOL    HW185523  10.088  13.795   9.663
61230SOL    HW285524  10.178  13.867   9.761
61231SOL     OW85525   2.373   8.877   3.558
61231SOL    HW185526   2.327   8.794   3.568
61231SOL    HW285527   2.441   8.860   3.493
61232SOL     OW85528  10.977   0.025   7.348
61232SOL    HW185529  10.951   0.118   7.354
61232SOL    HW285530  11.009   0.004   7.436
61233SOL     OW85531  13.314   6.658   7.642
61233SOL    HW185532  13.264   6.739   7.633
61233SOL    HW285533  13.311   6.618   7.555
61234SOL     OW85534  11.549   0.537   8.148
61234SOL    HW185535  11.585   0.624   8.164
61234SOL    HW285536  11.567   0.488   8.228
61235SOL     OW85537   1.499   2.086  12.271
61235SOL    HW185538   1.467   2.021  12.209
61235SOL    HW285539   1.489   2.044  12.357
61236SOL     OW85540   5.706   9.368  11.588
61236SOL    HW185541   5.651   9.315  11.530
61236SOL    HW285542   5.735   9.441  11.534
61237SOL     OW85543  10.265   9.533   3.973
61237SOL    HW185544  10.179   9.494   3.957
61237SOL    HW285545  10.326   9.462   3.956
61238SOL     OW85546   9.953   0.364   9.922
61238SOL    HW185547  10.035   0.406   9.949
61238SOL    HW285548   9.944   0.385   9.829
61239SOL     OW85549  13.493   8.763  10.023
61239SOL    HW185550  13.513   8.763   9.929
61239SOL    HW285551  13.504   8.855  10.050
61240SOL     OW85552   1.799  10.838   9.106
61240SOL    HW185553   1.883  10.883   9.114
61240SOL    HW285554   1.822  10.746   9.089
61241SOL     OW85555   3.223  12.438  11.979
61241SOL    HW185556   3.303  12.389  11.962
61241SOL    HW285557   3.187  12.457  11.892
61242SOL     OW85558   3.471  12.811  11.874
61242SOL    HW185559   3.447  12.737  11.819
61242SOL    HW285560   3.484  12.883  11.813
61243SOL     OW85561   5.799   1.893  10.427
61243SOL    HW185562   5.768   1.965  10.482
61243SOL    HW285563   5.763   1.814  10.468
61244SOL     OW85564   1.222   4.387   8.033
61244SOL    HW185565   1.129   4.376   8.054
61244SOL    HW285566   1.243   4.475   8.064
61245SOL     OW85567   7.814   2.789  10.405
61245SOL    HW185568   7.719   2.804  10.402
61245SOL    HW285569   7.822   2.693  10.406
61246SOL     OW85570   0.763   9.328   6.451
61246SOL    HW185571   0.747   9.236   6.432
61246SOL    HW285572   0.857   9.333   6.469
61247SOL     OW85573  14.795   4.535   1.003
61247SOL    HW185574  14.776   4.575   0.918
61247SOL    HW285575  14.867   4.587   1.038
61248SOL     OW85576   4.929   2.350   1.707
61248SOL    HW185577   4.984   2.318   1.636
61248SOL    HW285578   4.974   2.430   1.737
61249SOL     OW85579   9.925  10.200  12.794
61249SOL    HW185580   9.993  10.160  12.849
61249SOL    HW285581   9.959  10.194  12.705
61250SOL     OW85582  11.545  11.052   7.156
61250SOL    HW185583  11.547  10.972   7.104
61250SOL    HW285584  11.522  11.121   7.093
61251SOL     OW85585  14.571   4.689   5.858
61251SOL    HW185586  14.501   4.630   5.889
61251SOL    HW285587  14.599   4.735   5.937
61252SOL     OW85588   8.552   4.061   2.764
61252SOL    HW185589   8.509   3.991   2.716
61252SOL    HW285590   8.494   4.079   2.838
61253SOL     OW85591   7.132   0.329  11.967
61253SOL    HW185592   7.043   0.361  11.956
61253SOL    HW285593   7.137   0.303  12.059
61254SOL     OW85594   5.238   2.241  14.507
61254SOL    HW185595   5.182   2.232  14.430
61254SOL    HW285596   5.308   2.177  14.492
61255SOL     OW85597   1.210   1.167  11.446
61255SOL    HW185598   1.134   1.112  11.462
61255SOL    HW285599   1.283   1.123  11.490
61256SOL     OW85600  11.500   2.866   5.472
61256SOL    HW185601  11.498   2.770   5.478
61256SOL    HW285602  11.542   2.894   5.554
61257SOL     OW85603   5.109   9.475   0.554
61257SOL    HW185604   5.195   9.460   0.592
61257SOL    HW285605   5.058   9.398   0.578
61258SOL     OW85606  11.956  10.247   7.122
61258SOL    HW185607  12.046  10.260   7.153
61258SOL    HW285608  11.958  10.162   7.079
61259SOL     OW85609   2.120   3.106   1.948
61259SOL    HW185610   2.050   3.131   1.888
61259SOL    HW285611   2.088   3.131   2.035
61260SOL     OW85612   3.459   8.625   7.697
61260SOL    HW185613   3.398   8.588   7.761
61260SOL    HW285614   3.403   8.672   7.635
61261SOL     OW85615  12.662   5.465  12.121
61261SOL    HW185616  12.637   5.458  12.029
61261SOL    HW285617  12.667   5.560  12.138
61262SOL     OW85618   0.198  12.548   2.180
61262SOL    HW185619   0.252  12.615   2.138
61262SOL    HW285620   0.258  12.498   2.234
61263SOL     OW85621   1.965   8.884   0.874
61263SOL    HW185622   1.880   8.845   0.896
61263SOL    HW285623   2.001   8.827   0.807
61264SOL     OW85624  13.712   2.490   1.269
61264SOL    HW185625  13.663   2.558   1.222
61264SOL    HW285626  13.644   2.435   1.308
61265SOL     OW85627   1.389   3.556   0.586
61265SOL    HW185628   1.471   3.600   0.568
61265SOL    HW285629   1.326   3.626   0.600
61266SOL     OW85630   4.224   7.818   0.078
61266SOL    HW185631   4.211   7.910   0.099
61266SOL    HW285632   4.145   7.774   0.110
61267SOL     OW85633  13.361   2.182   9.830
61267SOL    HW185634  13.307   2.252   9.866
61267SOL    HW285635  13.436   2.226   9.790
61268SOL     OW85636  11.492  10.299   2.175
61268SOL    HW185637  11.441  10.269   2.099
61268SOL    HW285638  11.568  10.240   2.177
61269SOL     OW85639   3.083   0.769   6.920
61269SOL    HW185640   3.122   0.743   7.003
61269SOL    HW285641   3.119   0.706   6.856
61270SOL     OW85642  10.666   2.385   7.741
61270SOL    HW185643  10.595   2.412   7.683
61270SOL    HW285644  10.635   2.410   7.828
61271SOL     OW85645  12.741   5.981   9.029
61271SOL    HW185646  12.705   6.067   9.052
61271SOL    HW285647  12.664   5.927   9.011
61272SOL     OW85648   9.411   8.980   2.061
61272SOL    HW185649   9.462   8.959   1.983
61272SOL    HW285650   9.452   9.059   2.096
61273SOL     OW85651   3.823   7.774   5.959
61273SOL    HW185652   3.821   7.700   5.898
61273SOL    HW285653   3.810   7.735   6.045
61274SOL     OW85654   4.683   7.927   4.393
61274SOL    HW185655   4.729   7.941   4.476
61274SOL    HW285656   4.673   8.014   4.356
61275SOL     OW85657   5.782   2.642  14.036
61275SOL    HW185658   5.763   2.575  13.971
61275SOL    HW285659   5.862   2.685  14.005
61276SOL     OW85660   1.197  11.405  13.890
61276SOL    HW185661   1.249  11.345  13.944
61276SOL    HW285662   1.200  11.488  13.937
61277SOL     OW85663  10.052   5.127   3.818
61277SOL    HW185664  10.033   5.054   3.759
61277SOL    HW285665  10.111   5.184   3.769
61278SOL     OW85666  11.288  12.912   8.415
61278SOL    HW185667  11.293  12.821   8.444
61278SOL    HW285668  11.323  12.963   8.489
61279SOL     OW85669   9.504   4.947  14.643
61279SOL    HW185670   9.505   4.938  14.548
61279SOL    HW285671   9.446   5.021  14.660
61280SOL     OW85672  14.010   8.475   5.920
61280SOL    HW185673  13.987   8.437   6.005
61280SOL    HW285674  14.098   8.444   5.902
61281SOL     OW85675   5.460   2.624   9.388
61281SOL    HW185676   5.453   2.542   9.436
61281SOL    HW285677   5.554   2.633   9.369
61282SOL     OW85678  14.139  13.277  14.789
61282SOL    HW185679  14.204  13.327  14.739
61282SOL    HW285680  14.060  13.331  14.788
61283SOL     OW85681   4.342  14.378  10.814
61283SOL    HW185682   4.327  14.465  10.775
61283SOL    HW285683   4.264  14.362  10.867
61284SOL     OW85684   3.794   1.179   6.884
61284SOL    HW185685   3.885   1.208   6.872
61284SOL    HW285686   3.797   1.085   6.871
61285SOL     OW85687   2.700   5.289  12.703
61285SOL    HW185688   2.776   5.250  12.659
61285SOL    HW285689   2.735   5.322  12.786
61286SOL     OW85690   3.097   0.584   6.252
61286SOL    HW185691   3.057   0.596   6.338
61286SOL    HW285692   3.124   0.493   6.250
61287SOL     OW85693  11.685   1.709   8.067
61287SOL    HW185694  11.616   1.681   8.126
61287SOL    HW285695  11.760   1.729   8.124
61288SOL     OW85696  13.446   5.176  14.365
61288SOL    HW185697  13.531   5.214  14.341
61288SOL    HW285698  13.395   5.179  14.284
61289SOL     OW85699   5.286   9.276   6.416
61289SOL    HW185700   5.291   9.183   6.393
61289SOL    HW285701   5.216   9.280   6.481
61290SOL     OW85702   3.490  10.257   3.646
61290SOL    HW185703   3.418  10.317   3.668
61290SOL    HW285704   3.496  10.198   3.721
61291SOL     OW85705   1.631  14.477   0.039
61291SOL    HW185706   1.679  14.535   0.098
61291SOL    HW285707   1.657  14.389   0.064
61292SOL     OW85708   2.826   4.326   2.489
61292SOL    HW185709   2.853   4.416   2.508
61292SOL    HW285710   2.808   4.289   2.575
61293SOL     OW85711  11.483   8.375  12.609
61293SOL    HW185712  11.423   8.407  12.676
61293SOL    HW285713  11.477   8.440  12.539
61294SOL     OW85714  13.509   6.749  13.442
61294SOL    HW185715  13.450   6.742  13.367
61294SOL    HW285716  13.466   6.697  13.510
61295SOL     OW85717  10.999   0.020  10.129
61295SOL    HW185718  10.968  14.847  10.055
61295SOL    HW285719  10.963   0.107  10.114
61296SOL     OW85720   5.816   9.127  13.456
61296SOL    HW185721   5.802   9.109  13.549
61296SOL    HW285722   5.865   9.209  13.454
61297SOL     OW85723   5.992  13.077   0.545
61297SOL    HW185724   5.929  13.147   0.565
61297SOL    HW285725   6.076  13.122   0.534
61298SOL     OW85726   5.618   8.148  12.738
61298SOL    HW185727   5.626   8.108  12.652
61298SOL    HW285728   5.596   8.239  12.721
61299SOL     OW85729   1.840   6.179   0.838
61299SOL    HW185730   1.775   6.244   0.810
61299SOL    HW285731   1.796   6.131   0.909
61300SOL     OW85732   4.263   9.566   1.002
61300SOL    HW185733   4.201   9.495   0.988
61300SOL    HW285734   4.226   9.640   0.954
61301SOL     OW85735   9.021   6.145  13.726
61301SOL    HW185736   8.934   6.183  13.715
61301SOL    HW285737   9.013   6.090  13.804
61302SOL     OW85738  10.360   0.449   9.028
61302SOL    HW185739  10.428   0.423   8.966
61302SOL    HW285740  10.388   0.411   9.112
61303SOL     OW85741  11.749  10.316   0.159
61303SOL    HW185742  11.810  10.252   0.196
61303SOL    HW285743  11.802  10.370   0.101
61304SOL     OW85744   1.763  10.211   4.918
61304SOL    HW185745   1.732  10.153   4.987
61304SOL    HW285746   1.850  10.237   4.946
61305SOL     OW85747   2.806  11.209   3.682
61305SOL    HW185748   2.825  11.291   3.728
61305SOL    HW285749   2.886  11.191   3.632
61306SOL     OW85750   0.039  11.967   3.320
61306SOL    HW185751   0.042  11.879   3.358
61306SOL    HW285752   0.053  12.025   3.394
61307SOL     OW85753   8.383  14.046  11.842
61307SOL    HW185754   8.462  14.047  11.788
61307SOL    HW285755   8.312  14.072  11.783
61308SOL     OW85756   5.125  13.629  12.548
61308SOL    HW185757   5.096  13.671  12.467
61308SOL    HW285758   5.219  13.644  12.550
61309SOL     OW85759   9.708   3.528   1.180
61309SOL    HW185760   9.627   3.495   1.139
61309SOL    HW285761   9.686   3.534   1.273
61310SOL     OW85762   7.460  11.908   7.049
61310SOL    HW185763   7.512  11.977   7.008
61310SOL    HW285764   7.496  11.900   7.137
61311SOL     OW85765   9.233   3.286   7.654
61311SOL    HW185766   9.254   3.271   7.746
61311SOL    HW285767   9.166   3.221   7.633
61312SOL     OW85768   2.410  11.535   7.935
61312SOL    HW185769   2.337  11.492   7.981
61312SOL    HW285770   2.422  11.482   7.856
61313SOL     OW85771   0.361   1.636   9.626
61313SOL    HW185772   0.355   1.595   9.712
61313SOL    HW285773   0.428   1.585   9.580
61314SOL     OW85774   2.203   4.215   0.259
61314SOL    HW185775   2.125   4.161   0.267
61314SOL    HW285776   2.174   4.291   0.209
61315SOL     OW85777   0.218   6.387   1.550
61315SOL    HW185778   0.148   6.327   1.523
61315SOL    HW285779   0.256   6.417   1.467
61316SOL     OW85780   2.612   9.978   8.703
61316SOL    HW185781   2.614   9.980   8.798
61316SOL    HW285782   2.686   9.923   8.677
61317SOL     OW85783   0.259  14.243  12.910
61317SOL    HW185784   0.205  14.300  12.855
61317SOL    HW285785   0.298  14.181  12.849
61318SOL     OW85786   9.116   8.881  12.540
61318SOL    HW185787   9.123   8.834  12.623
61318SOL    HW285788   9.031   8.925  12.544
61319SOL     OW85789   9.744   3.431   4.255
61319SOL    HW185790   9.663   3.407   4.300
61319SOL    HW285791   9.735   3.524   4.237
61320SOL     OW85792   2.376   0.437   7.234
61320SOL    HW185793   2.323   0.371   7.279
61320SOL    HW285794   2.424   0.481   7.303
61321SOL     OW85795   6.749  13.980   8.428
61321SOL    HW185796   6.835  13.984   8.469
61321SOL    HW285797   6.704  14.059   8.459
61322SOL     OW85798   5.013   7.351   6.220
61322SOL    HW185799   5.013   7.283   6.153
61322SOL    HW285800   4.929   7.395   6.211
61323SOL     OW85801  13.192   8.396   0.454
61323SOL    HW185802  13.204   8.476   0.505
61323SOL    HW285803  13.098   8.389   0.443
61324SOL     OW85804   7.930  11.506   9.349
61324SOL    HW185805   7.904  11.596   9.332
61324SOL    HW285806   7.970  11.477   9.267
61325SOL     OW85807  12.817   4.305   3.842
61325SOL    HW185808  12.851   4.394   3.845
61325SOL    HW285809  12.871   4.261   3.776
61326SOL     OW85810   7.013   4.598  11.544
61326SOL    HW185811   7.086   4.640  11.590
61326SOL    HW285812   7.030   4.615  11.452
61327SOL     OW85813  13.348  13.090   4.635
61327SOL    HW185814  13.410  13.059   4.702
61327SOL    HW285815  13.331  13.181   4.659
61328SOL     OW85816  14.669   9.218   1.808
61328SOL    HW185817  14.677   9.161   1.732
61328SOL    HW285818  14.662   9.307   1.772
61329SOL     OW85819   8.746   7.402   0.783
61329SOL    HW185820   8.720   7.448   0.863
61329SOL    HW285821   8.796   7.327   0.814
61330SOL     OW85822  13.665   7.934   7.429
61330SOL    HW185823  13.652   7.927   7.334
61330SOL    HW285824  13.723   7.861   7.450
61331SOL     OW85825   1.641   7.184   2.107
61331SOL    HW185826   1.702   7.221   2.042
61331SOL    HW285827   1.641   7.248   2.178
61332SOL     OW85828   2.175   8.013   6.552
61332SOL    HW185829   2.223   8.009   6.635
61332SOL    HW285830   2.179   8.105   6.527
61333SOL     OW85831  11.810   9.629   9.366
61333SOL    HW185832  11.849   9.553   9.322
61333SOL    HW285833  11.764   9.677   9.297
61334SOL     OW85834  13.114   3.772   7.171
61334SOL    HW185835  13.138   3.811   7.255
61334SOL    HW285836  13.105   3.679   7.190
61335SOL     OW85837   2.952  14.596   3.668
61335SOL    HW185838   3.039  14.614   3.632
61335SOL    HW285839   2.895  14.659   3.624
61336SOL     OW85840   1.371   2.671   1.420
61336SOL    HW185841   1.367   2.607   1.491
61336SOL    HW285842   1.312   2.741   1.448
61337SOL     OW85843   6.356  10.643   2.743
61337SOL    HW185844   6.295  10.679   2.678
61337SOL    HW285845   6.299  10.613   2.814
61338SOL     OW85846  12.789   5.733  10.556
61338SOL    HW185847  12.717   5.689  10.511
61338SOL    HW285848  12.771   5.720  10.649
61339SOL     OW85849   5.859   7.979   1.071
61339SOL    HW185850   5.838   7.886   1.079
61339SOL    HW285851   5.897   8.003   1.156
61340SOL     OW85852   7.490   1.433   9.846
61340SOL    HW185853   7.467   1.396   9.931
61340SOL    HW285854   7.431   1.389   9.784
61341SOL     OW85855  10.639   6.416  11.061
61341SOL    HW185856  10.580   6.399  10.988
61341SOL    HW285857  10.595   6.377  11.137
61342SOL     OW85858   7.275   7.785   3.726
61342SOL    HW185859   7.256   7.726   3.653
61342SOL    HW285860   7.368   7.808   3.715
61343SOL     OW85861   9.106  14.217   1.230
61343SOL    HW185862   9.058  14.286   1.185
61343SOL    HW285863   9.158  14.175   1.161
61344SOL     OW85864  11.536   3.851  12.471
61344SOL    HW185865  11.447   3.847  12.436
61344SOL    HW285866  11.566   3.760  12.472
61345SOL     OW85867   4.607   1.512   3.499
61345SOL    HW185868   4.567   1.496   3.584
61345SOL    HW285869   4.566   1.593   3.469
61346SOL     OW85870   3.558   6.773  13.261
61346SOL    HW185871   3.509   6.724  13.196
61346SOL    HW285872   3.559   6.717  13.339
61347SOL     OW85873   4.058  12.560   1.109
61347SOL    HW185874   4.069  12.655   1.103
61347SOL    HW285875   3.980  12.541   1.057
61348SOL     OW85876  10.154   2.952   8.266
61348SOL    HW185877  10.135   2.885   8.332
61348SOL    HW285878  10.119   3.033   8.303
61349SOL     OW85879  12.142   9.059   3.673
61349SOL    HW185880  12.204   8.991   3.697
61349SOL    HW285881  12.160   9.131   3.733
61350SOL     OW85882   1.319  10.786  10.261
61350SOL    HW185883   1.338  10.692  10.266
61350SOL    HW285884   1.223  10.791  10.266
61351SOL     OW85885   3.739   2.435  14.557
61351SOL    HW185886   3.734   2.339  14.565
61351SOL    HW285887   3.813   2.460  14.612
61352SOL     OW85888  10.911   3.413   2.346
61352SOL    HW185889  10.877   3.355   2.414
61352SOL    HW285890  10.833   3.437   2.295
61353SOL     OW85891   7.736  14.615  14.752
61353SOL    HW185892   7.734  14.615  14.656
61353SOL    HW285893   7.719  14.524  14.776
61354SOL     OW85894   8.401  10.136   5.125
61354SOL    HW185895   8.322  10.116   5.075
61354SOL    HW285896   8.412  10.060   5.182
61355SOL     OW85897   8.736  14.361  12.101
61355SOL    HW185898   8.699  14.392  12.183
61355SOL    HW285899   8.661  14.356  12.041
61356SOL     OW85900   9.570   4.919  13.247
61356SOL    HW185901   9.625   4.860  13.298
61356SOL    HW285902   9.540   4.985  13.309
61357SOL     OW85903  11.023   0.126   3.966
61357SOL    HW185904  11.087   0.191   3.993
61357SOL    HW285905  10.946   0.177   3.940
61358SOL     OW85906   5.954   9.707  11.783
61358SOL    HW185907   6.007   9.666  11.852
61358SOL    HW285908   5.976   9.800  11.787
61359SOL     OW85909  11.932   7.805  11.086
61359SOL    HW185910  11.941   7.841  10.997
61359SOL    HW285911  12.005   7.743  11.094
61360SOL     OW85912   1.220   6.138   3.071
61360SOL    HW185913   1.131   6.167   3.051
61360SOL    HW285914   1.276   6.209   3.041
61361SOL     OW85915   8.504   3.390   6.325
61361SOL    HW185916   8.439   3.450   6.288
61361SOL    HW285917   8.568   3.378   6.256
61362SOL     OW85918   3.970   8.370   6.365
61362SOL    HW185919   3.942   8.294   6.417
61362SOL    HW285920   3.959   8.342   6.274
61363SOL     OW85921   2.271   8.804  13.535
61363SOL    HW185922   2.272   8.820  13.629
61363SOL    HW285923   2.311   8.717  13.525
61364SOL     OW85924   3.302  12.679  12.087
61364SOL    HW185925   3.282  12.593  12.052
61364SOL    HW285926   3.378  12.709  12.036
61365SOL     OW85927   1.954  12.878   2.638
61365SOL    HW185928   1.953  12.829   2.556
61365SOL    HW285929   1.937  12.968   2.612
61366SOL     OW85930   2.470  12.404  11.594
61366SOL    HW185931   2.426  12.395  11.679
61366SOL    HW285932   2.563  12.411  11.616
61367SOL     OW85933  10.104   6.995   3.347
61367SOL    HW185934  10.194   7.025   3.335
61367SOL    HW285935  10.075   6.972   3.259
61368SOL     OW85936  10.965   1.692  12.266
61368SOL    HW185937  10.910   1.704  12.189
61368SOL    HW285938  10.923   1.746  12.333
61369SOL     OW85939   4.822   1.032  14.002
61369SOL    HW185940   4.856   1.060  13.917
61369SOL    HW285941   4.764   1.103  14.029
61370SOL     OW85942   3.019   0.659  14.633
61370SOL    HW185943   3.115   0.659  14.632
61370SOL    HW285944   2.996   0.659  14.726
61371SOL     OW85945   8.330   3.479   3.113
61371SOL    HW185946   8.245   3.457   3.150
61371SOL    HW285947   8.314   3.488   3.019
61372SOL     OW85948  10.967   1.587   6.356
61372SOL    HW185949  11.020   1.531   6.299
61372SOL    HW285950  11.021   1.603   6.433
61373SOL     OW85951   5.085   2.692   0.575
61373SOL    HW185952   5.152   2.695   0.643
61373SOL    HW285953   5.074   2.784   0.548
61374SOL     OW85954  13.482   2.491  14.554
61374SOL    HW185955  13.513   2.579  14.573
61374SOL    HW285956  13.440   2.498  14.468
61375SOL     OW85957   3.037   7.198  13.211
61375SOL    HW185958   2.988   7.193  13.293
61375SOL    HW285959   3.058   7.291  13.201
61376SOL     OW85960  10.185   3.593   6.844
61376SOL    HW185961  10.185   3.616   6.937
61376SOL    HW285962  10.263   3.539   6.833
61377SOL     OW85963   8.074   5.041   4.745
61377SOL    HW185964   8.146   5.094   4.779
61377SOL    HW285965   7.996   5.091   4.765
61378SOL     OW85966   6.818   1.043   2.921
61378SOL    HW185967   6.754   0.974   2.937
61378SOL    HW285968   6.789   1.083   2.839
61379SOL     OW85969  14.159   9.208   3.882
61379SOL    HW185970  14.157   9.141   3.814
61379SOL    HW285971  14.101   9.176   3.950
61380SOL     OW85972  12.397   1.410   3.259
61380SOL    HW185973  12.467   1.347   3.240
61380SOL    HW285974  12.411   1.435   3.350
61381SOL     OW85975   0.570   9.776  10.854
61381SOL    HW185976   0.523   9.716  10.912
61381SOL    HW285977   0.598   9.847  10.910
61382SOL     OW85978   2.126   0.949  10.941
61382SOL    HW185979   2.107   1.016  10.875
61382SOL    HW285980   2.198   0.899  10.904
61383SOL     OW85981  11.053   4.511   4.847
61383SOL    HW185982  10.975   4.467   4.881
61383SOL    HW285983  11.113   4.515   4.921
61384SOL     OW85984  14.495   5.028  10.436
61384SOL    HW185985  14.488   5.105  10.492
61384SOL    HW285986  14.405   4.994  10.431
61385SOL     OW85987   7.563   3.869  14.338
61385SOL    HW185988   7.644   3.850  14.386
61385SOL    HW285989   7.543   3.960  14.360
61386SOL     OW85990   0.414   5.498  13.701
61386SOL    HW185991   0.365   5.505  13.784
61386SOL    HW285992   0.488   5.441  13.722
61387SOL     OW85993   4.449   5.832   6.397
61387SOL    HW185994   4.423   5.764   6.335
61387SOL    HW285995   4.376   5.838   6.458
61388SOL     OW85996  13.922  11.445  13.028
61388SOL    HW185997  13.878  11.495  13.096
61388SOL    HW285998  13.882  11.475  12.946
61389SOL     OW85999   3.795  14.470  14.027
61389SOL    HW186000   3.745  14.524  14.087
61389SOL    HW286001   3.885  14.473  14.061
61390SOL     OW86002   5.239   9.209  11.124
61390SOL    HW186003   5.194   9.178  11.046
61390SOL    HW286004   5.312   9.261  11.090
61391SOL     OW86005   0.842   0.797   8.057
61391SOL    HW186006   0.862   0.746   8.135
61391SOL    HW286007   0.833   0.887   8.089
61392SOL     OW86008   5.456   5.760  12.594
61392SOL    HW186009   5.505   5.804  12.663
61392SOL    HW286010   5.364   5.771  12.619
61393SOL     OW86011  11.488   7.703   5.737
61393SOL    HW186012  11.569   7.653   5.740
61393SOL    HW286013  11.431   7.653   5.678
61394SOL     OW86014   8.565   6.607   3.353
61394SOL    HW186015   8.494   6.543   3.345
61394SOL    HW286016   8.557   6.663   3.276
61395SOL     OW86017  13.795   0.010   3.865
61395SOL    HW186018  13.794   0.106   3.868
61395SOL    HW286019  13.832  14.863   3.949
61396SOL     OW86020  11.865   2.004   3.394
61396SOL    HW186021  11.930   1.984   3.326
61396SOL    HW286022  11.784   2.020   3.346
61397SOL     OW86023   7.627  11.140   1.352
61397SOL    HW186024   7.717  11.109   1.362
61397SOL    HW286025   7.635  11.225   1.308
61398SOL     OW86026  13.253   5.070   8.820
61398SOL    HW186027  13.331   5.054   8.872
61398SOL    HW286028  13.190   5.108   8.882
61399SOL     OW86029  14.454  13.366   2.182
61399SOL    HW186030  14.541  13.398   2.207
61399SOL    HW286031  14.472  13.295   2.119
61400SOL     OW86032  13.826   9.059   9.284
61400SOL    HW186033  13.745   9.068   9.334
61400SOL    HW286034  13.870   9.143   9.294
61401SOL     OW86035  14.118   8.735   6.368
61401SOL    HW186036  14.099   8.817   6.415
61401SOL    HW286037  14.032   8.694   6.357
61402SOL     OW86038   5.609   6.736   2.536
61402SOL    HW186039   5.641   6.663   2.589
61402SOL    HW286040   5.514   6.736   2.551
61403SOL     OW86041   5.625   1.396  14.326
61403SOL    HW186042   5.671   1.321  14.364
61403SOL    HW286043   5.690   1.438  14.270
61404SOL     OW86044  12.876   1.721  12.762
61404SOL    HW186045  12.817   1.671  12.706
61404SOL    HW286046  12.818   1.771  12.820
61405SOL     OW86047   1.088  10.519   0.692
61405SOL    HW186048   1.093  10.520   0.787
61405SOL    HW286049   0.999  10.547   0.671
61406SOL     OW86050   8.536   3.132  11.845
61406SOL    HW186051   8.606   3.089  11.796
61406SOL    HW286052   8.578   3.208  11.885
61407SOL     OW86053  14.072  11.595  14.010
61407SOL    HW186054  14.006  11.621  14.075
61407SOL    HW286055  14.152  11.642  14.038
61408SOL     OW86056  11.150   1.531   6.184
61408SOL    HW186057  11.177   1.503   6.097
61408SOL    HW286058  11.147   1.627   6.179
61409SOL     OW86059   1.012  13.759   4.676
61409SOL    HW186060   1.055  13.757   4.590
61409SOL    HW286061   0.939  13.698   4.667
61410SOL     OW86062  13.609  13.871   3.856
61410SOL    HW186063  13.583  13.891   3.946
61410SOL    HW286064  13.634  13.956   3.819
61411SOL     OW86065   3.602   6.547   5.669
61411SOL    HW186066   3.664   6.615   5.696
61411SOL    HW286067   3.604   6.483   5.741
61412SOL     OW86068   6.778  12.227  10.958
61412SOL    HW186069   6.803  12.285  11.030
61412SOL    HW286070   6.710  12.171  10.995
61413SOL     OW86071   9.964  14.533   5.268
61413SOL    HW186072   9.992  14.616   5.229
61413SOL    HW286073  10.041  14.500   5.313
61414SOL     OW86074  10.947  12.628  11.281
61414SOL    HW186075  10.998  12.709  11.283
61414SOL    HW286076  10.880  12.639  11.348
61415SOL     OW86077   1.728   1.116   9.000
61415SOL    HW186078   1.735   1.022   9.017
61415SOL    HW286079   1.662   1.147   9.063
61416SOL     OW86080   7.073   2.363   8.597
61416SOL    HW186081   7.082   2.426   8.669
61416SOL    HW286082   7.013   2.406   8.535
61417SOL     OW86083   4.847  14.746   8.488
61417SOL    HW186084   4.752  14.754   8.478
61417SOL    HW286085   4.861  14.738   8.582
61418SOL     OW86086   1.749  12.232   8.117
61418SOL    HW186087   1.765  12.228   8.023
61418SOL    HW286088   1.817  12.290   8.151
61419SOL     OW86089   4.553   1.677   5.980
61419SOL    HW186090   4.598   1.669   5.896
61419SOL    HW286091   4.475   1.730   5.961
61420SOL     OW86092  12.560   3.768   3.959
61420SOL    HW186093  12.587   3.855   3.987
61420SOL    HW286094  12.560   3.716   4.040
61421SOL     OW86095  12.275   6.686  13.221
61421SOL    HW186096  12.307   6.724  13.303
61421SOL    HW286097  12.186   6.719  13.213
61422SOL     OW86098  13.619  14.734   4.240
61422SOL    HW186099  13.553  14.803   4.245
61422SOL    HW286100  13.648  14.723   4.331
61423SOL     OW86101   5.562   9.911   6.311
61423SOL    HW186102   5.632   9.847   6.295
61423SOL    HW286103   5.519   9.921   6.226
61424SOL     OW86104  10.547   8.279  11.085
61424SOL    HW186105  10.606   8.349  11.114
61424SOL    HW286106  10.567   8.205  11.143
61425SOL     OW86107   6.706   8.102  13.885
61425SOL    HW186108   6.624   8.055  13.901
61425SOL    HW286109   6.733   8.134  13.971
61426SOL     OW86110  11.329  12.159   6.130
61426SOL    HW186111  11.332  12.095   6.201
61426SOL    HW286112  11.384  12.121   6.062
61427SOL     OW86113   4.692  11.449   0.436
61427SOL    HW186114   4.784  11.445   0.465
61427SOL    HW286115   4.687  11.530   0.386
61428SOL     OW86116   4.916   3.254   9.168
61428SOL    HW186117   4.980   3.304   9.117
61428SOL    HW286118   4.837   3.254   9.115
61429SOL     OW86119   6.833  13.660   5.119
61429SOL    HW186120   6.853  13.674   5.212
61429SOL    HW286121   6.867  13.573   5.100
61430SOL     OW86122   9.991  11.413  14.256
61430SOL    HW186123  10.047  11.448  14.187
61430SOL    HW286124   9.925  11.481  14.271
61431SOL     OW86125   7.539  14.391  10.898
61431SOL    HW186126   7.505  14.476  10.925
61431SOL    HW286127   7.503  14.377  10.810
61432SOL     OW86128   1.214   1.618   2.206
61432SOL    HW186129   1.161   1.581   2.277
61432SOL    HW286130   1.278   1.673   2.251
61433SOL     OW86131   1.071   2.978   9.270
61433SOL    HW186132   1.067   2.930   9.188
61433SOL    HW286133   1.096   3.067   9.245
61434SOL     OW86134   0.304   9.581  11.070
61434SOL    HW186135   0.298   9.606  11.162
61434SOL    HW286136   0.395   9.555  11.058
61435SOL     OW86137   7.527   5.547  12.673
61435SOL    HW186138   7.459   5.612  12.687
61435SOL    HW286139   7.608   5.597  12.666
61436SOL     OW86140   0.782   6.735   5.902
61436SOL    HW186141   0.826   6.675   5.962
61436SOL    HW286142   0.853   6.781   5.857
61437SOL     OW86143  11.983   1.666  10.042
61437SOL    HW186144  11.942   1.583  10.064
61437SOL    HW286145  12.077   1.646  10.038
61438SOL     OW86146   0.582   6.650  12.381
61438SOL    HW186147   0.526   6.708  12.433
61438SOL    HW286148   0.659   6.704  12.361
61439SOL     OW86149   3.462  13.446   2.881
61439SOL    HW186150   3.462  13.351   2.893
61439SOL    HW286151   3.373  13.473   2.902
61440SOL     OW86152   0.489   5.299   2.531
61440SOL    HW186153   0.562   5.337   2.483
61440SOL    HW286154   0.493   5.205   2.512
61441SOL     OW86155   1.577  10.511   0.639
61441SOL    HW186156   1.602  10.438   0.695
61441SOL    HW286157   1.654  10.527   0.585
61442SOL     OW86158  11.147   1.768  12.022
61442SOL    HW186159  11.184   1.855  12.006
61442SOL    HW286160  11.222   1.714  12.044
61443SOL     OW86161   9.674  13.342   9.079
61443SOL    HW186162   9.709  13.264   9.122
61443SOL    HW286163   9.619  13.384   9.146
61444SOL     OW86164   4.346   3.022   4.585
61444SOL    HW186165   4.375   3.063   4.503
61444SOL    HW286166   4.251   3.037   4.586
61445SOL     OW86167   2.517   2.308   2.776
61445SOL    HW186168   2.436   2.326   2.728
61445SOL    HW286169   2.497   2.232   2.830
61446SOL     OW86170   3.744   4.641   4.632
61446SOL    HW186171   3.826   4.592   4.644
61446SOL    HW286172   3.746   4.708   4.701
61447SOL     OW86173   0.405  11.335   2.861
61447SOL    HW186174   0.383  11.336   2.954
61447SOL    HW286175   0.379  11.422   2.829
61448SOL     OW86176   7.133  10.242   1.235
61448SOL    HW186177   7.169  10.158   1.265
61448SOL    HW286178   7.068  10.265   1.302
61449SOL     OW86179  11.262  11.946   8.766
61449SOL    HW186180  11.312  11.949   8.684
61449SOL    HW286181  11.258  11.853   8.789
61450SOL     OW86182   5.639  10.146   6.839
61450SOL    HW186183   5.572  10.204   6.874
61450SOL    HW286184   5.617  10.059   6.874
61451SOL     OW86185   4.343   2.146  10.005
61451SOL    HW186186   4.425   2.176  10.044
61451SOL    HW286187   4.278   2.158  10.075
61452SOL     OW86188  13.854   0.322   5.878
61452SOL    HW186189  13.939   0.367   5.870
61452SOL    HW286190  13.791   0.393   5.888
61453SOL     OW86191   9.697   0.697   9.039
61453SOL    HW186192   9.621   0.664   9.087
61453SOL    HW286193   9.663   0.716   8.951
61454SOL     OW86194   5.559  13.779   9.591
61454SOL    HW186195   5.594  13.853   9.640
61454SOL    HW286196   5.482  13.752   9.641
61455SOL     OW86197   1.259   6.671   9.860
61455SOL    HW186198   1.355   6.668   9.862
61455SOL    HW286199   1.239   6.754   9.818
61456SOL     OW86200   0.220   1.346   2.876
61456SOL    HW186201   0.312   1.333   2.853
61456SOL    HW286202   0.213   1.318   2.967
61457SOL     OW86203   9.648   1.188   9.061
61457SOL    HW186204   9.569   1.208   9.012
61457SOL    HW286205   9.618   1.172   9.150
61458SOL     OW86206   5.944   1.239   1.511
61458SOL    HW186207   6.030   1.277   1.528
61458SOL    HW286208   5.950   1.150   1.546
61459SOL     OW86209  10.462   5.046  12.329
61459SOL    HW186210  10.507   4.984  12.387
61459SOL    HW286211  10.510   5.128  12.341
61460SOL     OW86212   3.642   0.907  12.533
61460SOL    HW186213   3.708   0.928  12.467
61460SOL    HW286214   3.692   0.875  12.608
61461SOL     OW86215   3.513   5.487  10.256
61461SOL    HW186216   3.479   5.563  10.208
61461SOL    HW286217   3.462   5.413  10.224
61462SOL     OW86218   3.292   6.205   2.808
61462SOL    HW186219   3.316   6.113   2.819
61462SOL    HW286220   3.320   6.247   2.889
61463SOL     OW86221  11.002   0.691  10.392
61463SOL    HW186222  10.932   0.627  10.379
61463SOL    HW286223  11.076   0.655  10.344
61464SOL     OW86224   6.829   2.600   9.980
61464SOL    HW186225   6.895   2.547   9.935
61464SOL    HW286226   6.747   2.581   9.934
61465SOL     OW86227   4.158   2.729   1.358
61465SOL    HW186228   4.153   2.798   1.424
61465SOL    HW286229   4.239   2.747   1.311
61466SOL     OW86230   0.510   4.370   7.792
61466SOL    HW186231   0.465   4.354   7.875
61466SOL    HW286232   0.445   4.349   7.725
61467SOL     OW86233   5.895  12.992   5.844
61467SOL    HW186234   5.919  12.934   5.771
61467SOL    HW286235   5.810  12.958   5.873
61468SOL     OW86236   4.546  13.648   2.827
61468SOL    HW186237   4.498  13.710   2.772
61468SOL    HW286238   4.535  13.681   2.916
61469SOL     OW86239   6.618  12.533   6.810
61469SOL    HW186240   6.571  12.455   6.840
61469SOL    HW286241   6.591  12.543   6.719
61470SOL     OW86242   0.402  14.600   9.809
61470SOL    HW186243   0.317  14.622   9.771
61470SOL    HW286244   0.466  14.637   9.749
61471SOL     OW86245   9.181  14.111   0.966
61471SOL    HW186246   9.254  14.164   0.999
61471SOL    HW286247   9.197  14.024   1.003
61472SOL     OW86248   2.160   0.258   7.374
61472SOL    HW186249   2.083   0.206   7.349
61472SOL    HW286250   2.209   0.202   7.435
61473SOL     OW86251  11.800  13.987  10.861
61473SOL    HW186252  11.864  13.929  10.902
61473SOL    HW286253  11.730  13.928  10.833
61474SOL     OW86254  11.314   9.606   9.507
61474SOL    HW186255  11.272   9.522   9.492
61474SOL    HW286256  11.403   9.584   9.535
61475SOL     OW86257   2.882   4.508  13.995
61475SOL    HW186258   2.849   4.493  14.083
61475SOL    HW286259   2.818   4.467  13.937
61476SOL     OW86260   5.071   1.114  12.324
61476SOL    HW186261   5.149   1.077  12.282
61476SOL    HW286262   4.999   1.094  12.265
61477SOL     OW86263   3.661  13.777   4.468
61477SOL    HW186264   3.735  13.728   4.434
61477SOL    HW286265   3.589  13.714   4.468
61478SOL     OW86266  14.415   5.542  13.441
61478SOL    HW186267  14.503   5.526  13.407
61478SOL    HW286268  14.402   5.473  13.506
61479SOL     OW86269   9.499   3.653   5.902
61479SOL    HW186270   9.568   3.672   5.967
61479SOL    HW286271   9.458   3.572   5.934
61480SOL     OW86272   2.124  11.489   7.045
61480SOL    HW186273   2.083  11.484   6.959
61480SOL    HW286274   2.196  11.426   7.042
61481SOL     OW86275  14.741   0.617  11.110
61481SOL    HW186276  14.722   0.554  11.041
61481SOL    HW286277  14.822   0.659  11.081
61482SOL     OW86278   8.283  12.527  11.927
61482SOL    HW186279   8.332  12.605  11.903
61482SOL    HW286280   8.329  12.492  12.004
61483SOL     OW86281  14.092   1.348   8.601
61483SOL    HW186282  14.064   1.359   8.692
61483SOL    HW286283  14.146   1.269   8.602
61484SOL     OW86284   7.989   8.515   0.096
61484SOL    HW186285   8.048   8.483   0.165
61484SOL    HW286286   7.946   8.436   0.063
61485SOL     OW86287  10.071   8.600  11.185
61485SOL    HW186288   9.987   8.559  11.204
61485SOL    HW286289  10.130   8.528  11.165
61486SOL     OW86290   6.953  10.971   4.231
61486SOL    HW186291   6.866  10.955   4.192
61486SOL    HW286292   6.966  10.896   4.290
61487SOL     OW86293   1.740   8.779  11.083
61487SOL    HW186294   1.741   8.805  10.991
61487SOL    HW286295   1.790   8.697  11.085
61488SOL     OW86296   0.019  14.135   9.966
61488SOL    HW186297   0.040  14.062   9.909
61488SOL    HW286298   0.052  14.109  10.052
61489SOL     OW86299   4.322   6.755   6.700
61489SOL    HW186300   4.327   6.735   6.794
61489SOL    HW286301   4.384   6.826   6.687
61490SOL     OW86302   2.502   1.256   4.292
61490SOL    HW186303   2.535   1.320   4.229
61490SOL    HW286304   2.553   1.271   4.371
61491SOL     OW86305  11.173   0.485   8.979
61491SOL    HW186306  11.260   0.497   9.017
61491SOL    HW286307  11.116   0.540   9.032
61492SOL     OW86308  10.902   0.104   1.264
61492SOL    HW186309  10.863   0.073   1.182
61492SOL    HW286310  10.884   0.033   1.327
61493SOL     OW86311   1.837   2.775   7.119
61493SOL    HW186312   1.846   2.681   7.132
61493SOL    HW286313   1.744   2.787   7.096
61494SOL     OW86314  14.007   2.703   9.953
61494SOL    HW186315  13.994   2.766  10.024
61494SOL    HW286316  13.954   2.737   9.881
61495SOL     OW86317  11.410   0.269   3.095
61495SOL    HW186318  11.419   0.338   3.160
61495SOL    HW286319  11.495   0.225   3.093
61496SOL     OW86320   3.571  14.257   2.476
61496SOL    HW186321   3.605  14.318   2.411
61496SOL    HW286322   3.538  14.183   2.425
61497SOL     OW86323  10.851   7.894   6.158
61497SOL    HW186324  10.837   7.876   6.065
61497SOL    HW286325  10.947   7.893   6.169
61498SOL     OW86326  13.699   2.892   4.307
61498SOL    HW186327  13.653   2.950   4.246
61498SOL    HW286328  13.792   2.912   4.293
61499SOL     OW86329   0.144  14.849  12.789
61499SOL    HW186330   0.138  14.833  12.695
61499SOL    HW286331   0.226  14.807  12.816
61500SOL     OW86332   2.980  13.060   8.540
61500SOL    HW186333   3.022  13.132   8.586
61500SOL    HW286334   2.910  13.101   8.489
61501SOL     OW86335  10.895   3.618   3.572
61501SOL    HW186336  10.909   3.526   3.552
61501SOL    HW286337  10.916   3.627   3.665
61502SOL     OW86338   9.438   5.300  11.492
61502SOL    HW186339   9.434   5.210  11.461
61502SOL    HW286340   9.486   5.347  11.423
61503SOL     OW86341  13.493  12.510   6.992
61503SOL    HW186342  13.537  12.590   7.023
61503SOL    HW286343  13.410  12.509   7.038
61504SOL     OW86344   8.222   8.474   7.010
61504SOL    HW186345   8.182   8.535   7.071
61504SOL    HW286346   8.154   8.408   6.995
61505SOL     OW86347  12.615   8.077  11.315
61505SOL    HW186348  12.630   8.108  11.225
61505SOL    HW286349  12.568   8.149  11.357
61506SOL     OW86350   9.031  13.685   2.983
61506SOL    HW186351   9.055  13.703   3.074
61506SOL    HW286352   9.109  13.711   2.933
61507SOL     OW86353  13.379  12.034   5.637
61507SOL    HW186354  13.383  12.041   5.542
61507SOL    HW286355  13.324  12.107   5.664
61508SOL     OW86356   0.279   5.988   8.340
61508SOL    HW186357   0.252   6.025   8.424
61508SOL    HW286358   0.203   5.936   8.312
61509SOL     OW86359   5.064  11.368  11.684
61509SOL    HW186360   5.134  11.310  11.714
61509SOL    HW286361   4.983  11.319  11.701
61510SOL     OW86362  13.181  10.901   5.973
61510SOL    HW186363  13.105  10.949   5.938
61510SOL    HW286364  13.252  10.921   5.912
61511SOL     OW86365  11.111   9.606  12.199
61511SOL    HW186366  11.023   9.615  12.161
61511SOL    HW286367  11.169   9.602  12.123
61512SOL     OW86368   7.869   1.550   8.270
61512SOL    HW186369   7.887   1.461   8.299
61512SOL    HW286370   7.883   1.547   8.175
61513SOL     OW86371   5.612   6.859   7.021
61513SOL    HW186372   5.655   6.774   7.017
61513SOL    HW286373   5.563   6.865   6.938
61514SOL     OW86374  13.082   6.260   1.656
61514SOL    HW186375  13.120   6.173   1.666
61514SOL    HW286376  13.000   6.246   1.609
61515SOL     OW86377   7.056  13.334   9.903
61515SOL    HW186378   7.103  13.251   9.903
61515SOL    HW286379   7.046  13.356   9.996
61516SOL     OW86380  10.559  14.640  14.015
61516SOL    HW186381  10.546  14.547  14.034
61516SOL    HW286382  10.628  14.641  13.949
61517SOL     OW86383   0.051  11.195  12.612
61517SOL    HW186384  14.865  11.218  12.678
61517SOL    HW286385   0.050  11.267  12.550
61518SOL     OW86386   7.849   4.057   0.172
61518SOL    HW186387   7.759   4.083   0.194
61518SOL    HW286388   7.840   3.971   0.131
61519SOL     OW86389  12.431   3.757  14.835
61519SOL    HW186390  12.355   3.708  14.804
61519SOL    HW286391  12.399   3.847  14.847
61520SOL     OW86392   3.930   9.505   5.948
61520SOL    HW186393   3.887   9.442   6.006
61520SOL    HW286394   3.868   9.577   5.939
61521SOL     OW86395   4.118   5.970   4.037
61521SOL    HW186396   4.191   5.929   4.083
61521SOL    HW286397   4.070   6.017   4.106
61522SOL     OW86398  13.116  10.693   6.936
61522SOL    HW186399  13.036  10.641   6.939
61522SOL    HW286400  13.173  10.653   7.002
61523SOL     OW86401   8.922   1.342   1.935
61523SOL    HW186402   8.975   1.419   1.915
61523SOL    HW286403   8.981   1.268   1.919
61524SOL     OW86404   7.688   7.546   1.508
61524SOL    HW186405   7.779   7.528   1.534
61524SOL    HW286406   7.675   7.638   1.529
61525SOL     OW86407  10.848  14.239   0.459
61525SOL    HW186408  10.795  14.315   0.485
61525SOL    HW286409  10.826  14.172   0.523
61526SOL     OW86410  12.102   9.229  13.700
61526SOL    HW186411  12.163   9.223  13.626
61526SOL    HW286412  12.155   9.211  13.777
61527SOL     OW86413  11.356   2.783  11.119
61527SOL    HW186414  11.386   2.873  11.136
61527SOL    HW286415  11.319   2.754  11.202
61528SOL     OW86416   4.140  11.409   9.359
61528SOL    HW186417   4.146  11.499   9.327
61528SOL    HW286418   4.050  11.384   9.343
61529SOL     OW86419   9.757   1.919   5.599
61529SOL    HW186420   9.729   1.965   5.678
61529SOL    HW286421   9.681   1.923   5.541
61530SOL     OW86422   1.897   3.907  10.547
61530SOL    HW186423   1.964   3.886  10.481
61530SOL    HW286424   1.867   3.994  10.523
61531SOL     OW86425   8.707  10.824   2.040
61531SOL    HW186426   8.649  10.900   2.049
61531SOL    HW286427   8.669  10.759   2.099
61532SOL     OW86428  12.817  11.084   5.570
61532SOL    HW186429  12.866  11.031   5.507
61532SOL    HW286430  12.788  11.022   5.636
61533SOL     OW86431  10.704  12.097   2.052
61533SOL    HW186432  10.667  12.184   2.036
61533SOL    HW286433  10.686  12.049   1.972
61534SOL     OW86434   3.656   9.181   9.862
61534SOL    HW186435   3.581   9.209   9.809
61534SOL    HW286436   3.641   9.221   9.948
61535SOL     OW86437   1.707   6.631  11.013
61535SOL    HW186438   1.624   6.655  10.972
61535SOL    HW286439   1.755   6.585  10.944
61536SOL     OW86440   1.147   9.335  11.710
61536SOL    HW186441   1.178   9.252  11.676
61536SOL    HW286442   1.106   9.313  11.794
61537SOL     OW86443   6.620   9.508  11.645
61537SOL    HW186444   6.525   9.511  11.655
61537SOL    HW286445   6.634   9.483  11.553
61538SOL     OW86446   3.021   3.512  10.424
61538SOL    HW186447   3.043   3.419  10.432
61538SOL    HW286448   3.020   3.528  10.330
61539SOL     OW86449   5.269   2.049   0.713
61539SOL    HW186450   5.251   1.956   0.723
61539SOL    HW286451   5.334   2.068   0.780
61540SOL     OW86452   2.607  12.417   1.590
61540SOL    HW186453   2.550  12.342   1.608
61540SOL    HW286454   2.606  12.467   1.672
61541SOL     OW86455  10.595   5.089   6.084
61541SOL    HW186456  10.506   5.120   6.065
61541SOL    HW286457  10.608   5.108   6.177
61542SOL     OW86458   3.857  12.380   8.091
61542SOL    HW186459   3.823  12.339   8.170
61542SOL    HW286460   3.779  12.400   8.038
61543SOL     OW86461   5.939   2.228  10.815
61543SOL    HW186462   5.929   2.309  10.866
61543SOL    HW286463   6.009   2.247  10.753
61544SOL     OW86464   9.404   0.615   0.406
61544SOL    HW186465   9.447   0.568   0.334
61544SOL    HW286466   9.314   0.628   0.375
61545SOL     OW86467   5.614   4.284  11.346
61545SOL    HW186468   5.562   4.231  11.285
61545SOL    HW286469   5.558   4.295  11.423
61546SOL     OW86470   0.672   6.510   6.692
61546SOL    HW186471   0.706   6.587   6.645
61546SOL    HW286472   0.736   6.494   6.761
61547SOL     OW86473   4.113   1.774  14.516
61547SOL    HW186474   4.134   1.683  14.493
61547SOL    HW286475   4.137   1.825  14.439
61548SOL     OW86476   8.489  14.165   5.514
61548SOL    HW186477   8.505  14.135   5.424
61548SOL    HW286478   8.403  14.206   5.511
61549SOL     OW86479   5.933  10.353  14.287
61549SOL    HW186480   6.017  10.395  14.305
61549SOL    HW286481   5.912  10.379  14.197
61550SOL     OW86482   5.587   3.807   5.841
61550SOL    HW186483   5.676   3.776   5.861
61550SOL    HW286484   5.538   3.728   5.822
61551SOL     OW86485   6.257   8.528   0.021
61551SOL    HW186486   6.334   8.561  14.854
61551SOL    HW286487   6.274   8.545   0.113
61552SOL     OW86488   4.018   2.048  13.925
61552SOL    HW186489   3.975   2.014  14.004
61552SOL    HW286490   4.001   2.142  13.928
61553SOL     OW86491   6.125  13.634  10.353
61553SOL    HW186492   6.153  13.652  10.263
61553SOL    HW286493   6.041  13.681  10.362
61554SOL     OW86494   8.801   4.580   5.543
61554SOL    HW186495   8.866   4.578   5.614
61554SOL    HW286496   8.734   4.517   5.571
61555SOL     OW86497   0.872  11.899   2.355
61555SOL    HW186498   0.815  11.928   2.284
61555SOL    HW286499   0.873  11.803   2.347
61556SOL     OW86500  10.563  12.120   6.757
61556SOL    HW186501  10.612  12.047   6.795
61556SOL    HW286502  10.507  12.151   6.828
61557SOL     OW86503  12.056   5.836   7.972
61557SOL    HW186504  12.091   5.752   8.002
61557SOL    HW286505  12.133   5.891   7.961
61558SOL     OW86506   7.639  13.548  11.543
61558SOL    HW186507   7.614  13.613  11.609
61558SOL    HW286508   7.560  13.496  11.531
61559SOL     OW86509   8.987   5.935  14.581
61559SOL    HW186510   8.923   5.918  14.649
61559SOL    HW286511   9.012   6.027  14.594
61560SOL     OW86512   1.331   0.998  13.401
61560SOL    HW186513   1.383   0.930  13.443
61560SOL    HW286514   1.279   1.037  13.472
61561SOL     OW86515   9.090   7.832   3.467
61561SOL    HW186516   9.009   7.880   3.448
61561SOL    HW286517   9.157   7.901   3.476
61562SOL     OW86518  12.053   6.202   4.968
61562SOL    HW186519  12.007   6.286   4.970
61562SOL    HW286520  11.986   6.138   4.992
61563SOL     OW86521  11.521   6.255   4.886
61563SOL    HW186522  11.475   6.333   4.917
61563SOL    HW286523  11.606   6.289   4.856
61564SOL     OW86524   8.579   2.096   2.355
61564SOL    HW186525   8.512   2.038   2.320
61564SOL    HW286526   8.541   2.183   2.349
61565SOL     OW86527   7.287  11.228  14.839
61565SOL    HW186528   7.289  11.216  14.744
61565SOL    HW286529   7.343  11.158  14.873
61566SOL     OW86530  14.033   1.756  11.162
61566SOL    HW186531  14.060   1.676  11.116
61566SOL    HW286532  13.983   1.805  11.097
61567SOL     OW86533  13.928   0.282  14.735
61567SOL    HW186534  13.902   0.354  14.678
61567SOL    HW286535  14.023   0.282  14.731
61568SOL     OW86536  10.917   2.984  10.876
61568SOL    HW186537  10.954   2.922  10.938
61568SOL    HW286538  10.944   3.070  10.909
61569SOL     OW86539   8.873   4.954   4.119
61569SOL    HW186540   8.937   4.909   4.174
61569SOL    HW286541   8.790   4.910   4.137
61570SOL     OW86542   1.511  10.170   1.364
61570SOL    HW186543   1.569  10.113   1.414
61570SOL    HW286544   1.423  10.144   1.391
61571SOL     OW86545   4.184   5.394   5.338
61571SOL    HW186546   4.255   5.398   5.274
61571SOL    HW286547   4.117   5.342   5.294
61572SOL     OW86548  11.584   8.891   1.881
61572SOL    HW186549  11.627   8.974   1.864
61572SOL    HW286550  11.620   8.861   1.965
61573SOL     OW86551   7.637   1.587   5.365
61573SOL    HW186552   7.610   1.498   5.385
61573SOL    HW286553   7.570   1.642   5.404
61574SOL     OW86554   4.138   5.172   0.381
61574SOL    HW186555   4.220   5.123   0.389
61574SOL    HW286556   4.071   5.113   0.414
61575SOL     OW86557  12.449   5.016  10.260
61575SOL    HW186558  12.508   5.075  10.308
61575SOL    HW286559  12.373   5.006  10.317
61576SOL     OW86560   1.570  12.877   6.836
61576SOL    HW186561   1.484  12.915   6.854
61576SOL    HW286562   1.574  12.799   6.892
61577SOL     OW86563   9.549   4.562   4.618
61577SOL    HW186564   9.507   4.585   4.701
61577SOL    HW286565   9.549   4.467   4.616
61578SOL     OW86566  13.897  12.579  12.357
61578SOL    HW186567  13.917  12.639  12.429
61578SOL    HW286568  13.980  12.534  12.340
61579SOL     OW86569   6.681   5.671   4.160
61579SOL    HW186570   6.676   5.635   4.248
61579SOL    HW286571   6.600   5.722   4.151
61580SOL     OW86572   7.290   9.532   9.358
61580SOL    HW186573   7.341   9.463   9.315
61580SOL    HW286574   7.337   9.613   9.339
61581SOL     OW86575   2.386   1.285   0.534
61581SOL    HW186576   2.369   1.376   0.512
61581SOL    HW286577   2.300   1.246   0.545
61582SOL     OW86578   4.834  12.619   6.875
61582SOL    HW186579   4.917  12.663   6.893
61582SOL    HW286580   4.858  12.542   6.824
61583SOL     OW86581   0.066   3.007   8.441
61583SOL    HW186582   0.060   3.086   8.494
61583SOL    HW286583   0.138   3.024   8.380
61584SOL     OW86584  12.879   9.120   5.970
61584SOL    HW186585  12.827   9.061   5.916
61584SOL    HW286586  12.876   9.081   6.057
61585SOL     OW86587   9.006  11.277  13.001
61585SOL    HW186588   8.995  11.208  13.066
61585SOL    HW286589   9.011  11.231  12.917
61586SOL     OW86590   9.209   3.830   2.751
61586SOL    HW186591   9.219   3.745   2.708
61586SOL    HW286592   9.256   3.891   2.695
61587SOL     OW86593   1.173   6.439   7.421
61587SOL    HW186594   1.183   6.349   7.452
61587SOL    HW286595   1.263   6.472   7.416
61588SOL     OW86596   2.655  14.232  11.690
61588SOL    HW186597   2.701  14.149  11.701
61588SOL    HW286598   2.641  14.240  11.596
61589SOL     OW86599   2.158   8.123  13.102
61589SOL    HW186600   2.167   8.185  13.175
61589SOL    HW286601   2.212   8.160  13.033
61590SOL     OW86602   2.666  13.444   5.789
61590SOL    HW186603   2.704  13.482   5.710
61590SOL    HW286604   2.613  13.370   5.757
61591SOL     OW86605  12.481  13.258   8.692
61591SOL    HW186606  12.418  13.324   8.720
61591SOL    HW286607  12.463  13.247   8.598
61592SOL     OW86608   3.492   8.284   3.516
61592SOL    HW186609   3.524   8.271   3.427
61592SOL    HW286610   3.569   8.274   3.572
61593SOL     OW86611  10.062   7.450   0.836
61593SOL    HW186612  10.131   7.393   0.802
61593SOL    HW286613  10.031   7.499   0.760
61594SOL     OW86614  12.854  12.664   1.568
61594SOL    HW186615  12.807  12.615   1.635
61594SOL    HW286616  12.896  12.736   1.615
61595SOL     OW86617   4.215   0.691  13.777
61595SOL    HW186618   4.298   0.692  13.730
61595SOL    HW286619   4.149   0.678  13.708
61596SOL     OW86620  14.121   4.345  14.177
61596SOL    HW186621  14.188   4.394  14.224
61596SOL    HW286622  14.041   4.397  14.187
61597SOL     OW86623   2.822  12.716   4.920
61597SOL    HW186624   2.768  12.756   4.853
61597SOL    HW286625   2.904  12.766   4.920
61598SOL     OW86626   2.386   7.868   9.016
61598SOL    HW186627   2.434   7.938   8.971
61598SOL    HW286628   2.303   7.909   9.043
61599SOL     OW86629   6.330  14.748   6.868
61599SOL    HW186630   6.291  14.761   6.782
61599SOL    HW286631   6.257  14.753   6.929
61600SOL     OW86632   4.865   1.017   7.525
61600SOL    HW186633   4.947   1.055   7.556
61600SOL    HW286634   4.797   1.072   7.564
61601SOL     OW86635   6.795   4.482   3.156
61601SOL    HW186636   6.847   4.472   3.077
61601SOL    HW286637   6.792   4.394   3.194
61602SOL     OW86638   6.428   7.884  12.869
61602SOL    HW186639   6.360   7.878  12.802
61602SOL    HW286640   6.472   7.799  12.866
61603SOL     OW86641  10.894   6.800  13.467
61603SOL    HW186642  10.848   6.883  13.474
61603SOL    HW286643  10.892   6.779  13.374
61604SOL     OW86644   7.101   7.264  11.077
61604SOL    HW186645   7.036   7.289  11.142
61604SOL    HW286646   7.179   7.314  11.100
61605SOL     OW86647   7.479   2.724  14.126
61605SOL    HW186648   7.449   2.654  14.185
61605SOL    HW286649   7.411   2.730  14.060
61606SOL     OW86650   0.410   6.632   5.901
61606SOL    HW186651   0.456   6.558   5.861
61606SOL    HW286652   0.334   6.593   5.943
61607SOL     OW86653  11.739  14.826  14.562
61607SOL    HW186654  11.701   0.032  14.539
61607SOL    HW286655  11.680  14.762  14.523
61608SOL     OW86656   5.779  13.517  12.370
61608SOL    HW186657   5.822  13.529  12.454
61608SOL    HW286658   5.728  13.597  12.357
61609SOL     OW86659  12.514   6.317   6.257
61609SOL    HW186660  12.424   6.348   6.269
61609SOL    HW286661  12.562   6.395   6.228
61610SOL     OW86662   7.864   5.012  14.255
61610SOL    HW186663   7.876   5.061  14.336
61610SOL    HW286664   7.771   5.023  14.233
61611SOL     OW86665   3.165   1.656   4.433
61611SOL    HW186666   3.244   1.700   4.404
61611SOL    HW286667   3.193   1.566   4.452
61612SOL     OW86668  14.537   2.804   3.094
61612SOL    HW186669  14.558   2.743   3.164
61612SOL    HW286670  14.579   2.886   3.119
61613SOL     OW86671   3.940  10.810   8.656
61613SOL    HW186672   3.886  10.813   8.735
61613SOL    HW286673   3.948  10.716   8.637
61614SOL     OW86674   8.963  13.334   9.996
61614SOL    HW186675   9.035  13.299   9.943
61614SOL    HW286676   8.917  13.394   9.937
61615SOL     OW86677   6.843   8.509   8.676
61615SOL    HW186678   6.856   8.590   8.724
61615SOL    HW286679   6.929   8.467   8.676
61616SOL     OW86680  12.499   4.034   8.350
61616SOL    HW186681  12.544   3.960   8.390
61616SOL    HW286682  12.495   4.100   8.419
61617SOL     OW86683   5.131   9.606   9.958
61617SOL    HW186684   5.147   9.512   9.956
61617SOL    HW286685   5.218   9.645   9.945
61618SOL     OW86686   2.156   9.821   1.445
61618SOL    HW186687   2.105   9.857   1.372
61618SOL    HW286688   2.198   9.743   1.409
61619SOL     OW86689  11.520   1.620  12.858
61619SOL    HW186690  11.562   1.580  12.782
61619SOL    HW286691  11.506   1.711  12.832
61620SOL     OW86692   5.447  13.159  11.992
61620SOL    HW186693   5.531  13.124  12.021
61620SOL    HW286694   5.443  13.140  11.899
61621SOL     OW86695  12.177  11.348  11.513
61621SOL    HW186696  12.130  11.431  11.503
61621SOL    HW286697  12.244  11.350  11.446
61622SOL     OW86698   8.206  13.224   7.504
61622SOL    HW186699   8.142  13.157   7.527
61622SOL    HW286700   8.155  13.293   7.461
61623SOL     OW86701   1.545   4.836   6.024
61623SOL    HW186702   1.585   4.813   6.108
61623SOL    HW286703   1.489   4.762   6.004
61624SOL     OW86704  10.698   1.745  10.336
61624SOL    HW186705  10.747   1.810  10.387
61624SOL    HW286706  10.644   1.700  10.401
61625SOL     OW86707  13.972   7.312  12.804
61625SOL    HW186708  13.966   7.279  12.893
61625SOL    HW286709  14.000   7.403  12.814
61626SOL     OW86710   6.025   6.315   1.953
61626SOL    HW186711   6.092   6.310   2.022
61626SOL    HW286712   6.035   6.233   1.904
61627SOL     OW86713   6.497   6.450   5.283
61627SOL    HW186714   6.493   6.542   5.311
61627SOL    HW286715   6.405   6.424   5.274
61628SOL     OW86716   0.036   2.406  12.269
61628SOL    HW186717   0.043   2.421  12.174
61628SOL    HW286718   0.103   2.462  12.307
61629SOL     OW86719   9.304  13.231  14.688
61629SOL    HW186720   9.361  13.215  14.763
61629SOL    HW286721   9.292  13.145  14.647
61630SOL     OW86722   6.472   4.538   1.045
61630SOL    HW186723   6.420   4.508   1.120
61630SOL    HW286724   6.416   4.526   0.969
61631SOL     OW86725  12.610   2.858   5.935
61631SOL    HW186726  12.517   2.878   5.952
61631SOL    HW286727  12.608   2.791   5.867
61632SOL     OW86728   7.676   5.685  10.129
61632SOL    HW186729   7.662   5.602  10.084
61632SOL    HW286730   7.673   5.663  10.222
61633SOL     OW86731   8.176   0.330   4.748
61633SOL    HW186732   8.135   0.288   4.823
61633SOL    HW286733   8.234   0.396   4.785
61634SOL     OW86734  12.637  10.674   1.322
61634SOL    HW186735  12.597  10.620   1.254
61634SOL    HW286736  12.688  10.613   1.375
61635SOL     OW86737   2.341   3.542   1.343
61635SOL    HW186738   2.348   3.537   1.247
61635SOL    HW286739   2.314   3.632   1.361
61636SOL     OW86740   0.630   9.953   1.318
61636SOL    HW186741   0.560   9.896   1.348
61636SOL    HW286742   0.593   9.999   1.242
61637SOL     OW86743   9.815   5.722   7.741
61637SOL    HW186744   9.779   5.806   7.769
61637SOL    HW286745   9.796   5.663   7.814
61638SOL     OW86746   1.804  13.579   1.884
61638SOL    HW186747   1.800  13.664   1.840
61638SOL    HW286748   1.826  13.601   1.975
61639SOL     OW86749   9.804  14.722   8.948
61639SOL    HW186750   9.879  14.770   8.915
61639SOL    HW286751   9.746  14.713   8.872
61640SOL     OW86752   1.277   9.223   5.506
61640SOL    HW186753   1.366   9.258   5.503
61640SOL    HW286754   1.272   9.163   5.432
61641SOL     OW86755   9.823  12.879  13.988
61641SOL    HW186756   9.871  12.882  14.071
61641SOL    HW286757   9.867  12.812  13.937
61642SOL     OW86758   1.291   8.479   1.542
61642SOL    HW186759   1.385   8.459   1.545
61642SOL    HW286760   1.252   8.421   1.608
61643SOL     OW86761   3.692  12.866   8.342
61643SOL    HW186762   3.620  12.929   8.345
61643SOL    HW286763   3.750  12.893   8.412
61644SOL     OW86764   5.574   0.659   1.329
61644SOL    HW186765   5.532   0.740   1.359
61644SOL    HW286766   5.654   0.688   1.286
61645SOL     OW86767   4.768  10.903  11.523
61645SOL    HW186768   4.738  10.954  11.448
61645SOL    HW286769   4.691  10.892  11.578
61646SOL     OW86770  14.298   6.234  11.353
61646SOL    HW186771  14.279   6.146  11.387
61646SOL    HW286772  14.342   6.217  11.270
61647SOL     OW86773   1.594   5.105  14.513
61647SOL    HW186774   1.634   5.033  14.561
61647SOL    HW286775   1.626   5.095  14.424
61648SOL     OW86776  10.176  13.527   7.807
61648SOL    HW186777  10.160  13.452   7.864
61648SOL    HW286778  10.089  13.556   7.781
61649SOL     OW86779  11.749  10.888  13.319
61649SOL    HW186780  11.800  10.820  13.276
61649SOL    HW286781  11.766  10.967  13.267
61650SOL     OW86782   2.536  12.241   9.379
61650SOL    HW186783   2.500  12.180   9.444
61650SOL    HW286784   2.568  12.315   9.431
61651SOL     OW86785   3.487   1.563  11.768
61651SOL    HW186786   3.547   1.558  11.694
61651SOL    HW286787   3.411   1.611  11.735
61652SOL     OW86788  13.987   3.530  12.868
61652SOL    HW186789  14.063   3.565  12.914
61652SOL    HW286790  14.023   3.470  12.803
61653SOL     OW86791   6.493  13.091   9.003
61653SOL    HW186792   6.441  13.142   9.066
61653SOL    HW286793   6.525  13.155   8.940
61654SOL     OW86794   0.553   5.294  14.168
61654SOL    HW186795   0.600   5.376  14.152
61654SOL    HW286796   0.580   5.237  14.096
61655SOL     OW86797  12.542   6.437   8.744
61655SOL    HW186798  12.545   6.343   8.726
61655SOL    HW286799  12.624   6.471   8.709
61656SOL     OW86800   0.277  13.233   6.424
61656SOL    HW186801   0.260  13.183   6.504
61656SOL    HW286802   0.213  13.305   6.428
61657SOL     OW86803   0.709   4.390   4.365
61657SOL    HW186804   0.617   4.364   4.352
61657SOL    HW286805   0.758   4.334   4.305
61658SOL     OW86806   1.858   8.018   5.031
61658SOL    HW186807   1.945   7.996   4.998
61658SOL    HW286808   1.830   7.941   5.080
61659SOL     OW86809   1.526   6.273   1.991
61659SOL    HW186810   1.492   6.287   2.079
61659SOL    HW286811   1.540   6.361   1.956
61660SOL     OW86812   0.756  11.054   0.066
61660SOL    HW186813   0.760  11.008   0.149
61660SOL    HW286814   0.756  11.147   0.089
61661SOL     OW86815  13.730   6.197   1.201
61661SOL    HW186816  13.657   6.224   1.258
61661SOL    HW286817  13.720   6.102   1.193
61662SOL     OW86818   8.341   0.065   3.960
61662SOL    HW186819   8.380   0.151   3.943
61662SOL    HW286820   8.348   0.054   4.055
61663SOL     OW86821  11.356  11.892   7.709
61663SOL    HW186822  11.451  11.875   7.708
61663SOL    HW286823  11.325  11.853   7.627
61664SOL     OW86824   4.566   2.977   8.801
61664SOL    HW186825   4.630   2.906   8.805
61664SOL    HW286826   4.498   2.952   8.864
61665SOL     OW86827  13.343   8.061   8.164
61665SOL    HW186828  13.311   7.973   8.146
61665SOL    HW286829  13.421   8.048   8.218
61666SOL     OW86830  12.646   7.691  13.669
61666SOL    HW186831  12.662   7.766  13.725
61666SOL    HW286832  12.629   7.619  13.729
61667SOL     OW86833  13.410  13.640   1.251
61667SOL    HW186834  13.439  13.731   1.244
61667SOL    HW286835  13.316  13.644   1.233
61668SOL     OW86836   7.288   1.055   9.486
61668SOL    HW186837   7.248   1.002   9.417
61668SOL    HW286838   7.349   1.112   9.440
61669SOL     OW86839   4.073   6.048   1.510
61669SOL    HW186840   4.092   6.135   1.475
61669SOL    HW286841   4.034   6.000   1.437
61670SOL     OW86842   3.088   5.107   3.961
61670SOL    HW186843   3.044   5.184   3.927
61670SOL    HW286844   3.033   5.034   3.932
61671SOL     OW86845   9.106   6.268   3.117
61671SOL    HW186846   9.115   6.338   3.052
61671SOL    HW286847   9.023   6.226   3.095
61672SOL     OW86848  10.349  13.222   6.895
61672SOL    HW186849  10.429  13.256   6.934
61672SOL    HW286850  10.283  13.229   6.964
61673SOL     OW86851  14.021  12.026  10.221
61673SOL    HW186852  13.957  11.954  10.230
61673SOL    HW286853  13.972  12.104  10.246
61674SOL     OW86854  11.191   9.494   0.159
61674SOL    HW186855  11.251   9.532   0.223
61674SOL    HW286856  11.150   9.420   0.204
61675SOL     OW86857   2.324   4.497  13.812
61675SOL    HW186858   2.302   4.413  13.773
61675SOL    HW286859   2.304   4.561  13.744
61676SOL     OW86860   3.680   6.376  11.617
61676SOL    HW186861   3.626   6.300  11.638
61676SOL    HW286862   3.758   6.339  11.574
61677SOL     OW86863   6.317   1.703   8.559
61677SOL    HW186864   6.403   1.705   8.601
61677SOL    HW286865   6.256   1.681   8.630
61678SOL     OW86866  14.655  12.882   2.187
61678SOL    HW186867  14.625  12.800   2.227
61678SOL    HW286868  14.587  12.904   2.123
61679SOL     OW86869  12.068   6.271   3.150
61679SOL    HW186870  12.106   6.218   3.220
61679SOL    HW286871  11.979   6.290   3.180
61680SOL     OW86872  14.262  14.319   8.128
61680SOL    HW186873  14.267  14.269   8.209
61680SOL    HW286874  14.326  14.277   8.070
61681SOL     OW86875   9.478   5.961   0.947
61681SOL    HW186876   9.564   5.947   0.906
61681SOL    HW286877   9.434   6.023   0.889
61682SOL     OW86878   0.802  10.900   5.977
61682SOL    HW186879   0.773  10.944   6.057
61682SOL    HW286880   0.892  10.928   5.965
61683SOL     OW86881  14.127  12.836   0.155
61683SOL    HW186882  14.214  12.838   0.197
61683SOL    HW286883  14.069  12.802   0.223
61684SOL     OW86884   5.948   2.105  14.498
61684SOL    HW186885   6.031   2.083  14.456
61684SOL    HW286886   5.967   2.186  14.547
61685SOL     OW86887  12.921   8.674  11.377
61685SOL    HW186888  12.879   8.599  11.421
61685SOL    HW286889  13.010   8.644  11.360
61686SOL     OW86890   4.598   3.064   7.531
61686SOL    HW186891   4.507   3.092   7.529
61686SOL    HW286892   4.593   2.968   7.528
61687SOL     OW86893   9.994  12.128  14.592
61687SOL    HW186894   9.934  12.201  14.607
61687SOL    HW286895  10.005  12.088  14.679
61688SOL     OW86896   5.338   6.273   3.000
61688SOL    HW186897   5.256   6.317   2.979
61688SOL    HW286898   5.366   6.313   3.082
61689SOL     OW86899   7.235  14.419   9.156
61689SOL    HW186900   7.328  14.423   9.178
61689SOL    HW286901   7.229  14.353   9.088
61690SOL     OW86902   5.905   9.799   6.702
61690SOL    HW186903   5.846   9.834   6.635
61690SOL    HW286904   5.926   9.875   6.757
61691SOL     OW86905   4.898   7.146  13.384
61691SOL    HW186906   4.841   7.215  13.419
61691SOL    HW286907   4.889   7.153  13.289
61692SOL     OW86908   9.491   3.518   8.702
61692SOL    HW186909   9.504   3.441   8.756
61692SOL    HW286910   9.443   3.579   8.758
61693SOL     OW86911   3.217  12.670   6.289
61693SOL    HW186912   3.237  12.745   6.345
61693SOL    HW286913   3.293  12.613   6.298
61694SOL     OW86914   3.959  10.491   6.854
61694SOL    HW186915   4.043  10.453   6.883
61694SOL    HW286916   3.981  10.580   6.827
61695SOL     OW86917  11.704   0.251   3.374
61695SOL    HW186918  11.701   0.240   3.279
61695SOL    HW286919  11.718   0.163   3.408
61696SOL     OW86920   8.664   3.096  13.939
61696SOL    HW186921   8.668   3.147  13.858
61696SOL    HW286922   8.742   3.121  13.988
61697SOL     OW86923  11.215   0.753   9.495
61697SOL    HW186924  11.247   0.842   9.510
61697SOL    HW286925  11.121   0.763   9.482
61698SOL     OW86926  12.815   4.275   4.695
61698SOL    HW186927  12.825   4.225   4.776
61698SOL    HW286928  12.830   4.366   4.722
61699SOL     OW86929  11.944  10.363   1.922
61699SOL    HW186930  11.919  10.304   1.851
61699SOL    HW286931  11.887  10.439   1.912
61700SOL     OW86932  14.635  14.032  14.230
61700SOL    HW186933  14.725  14.041  14.259
61700SOL    HW286934  14.610  13.943  14.255
61701SOL     OW86935  11.349   0.379  14.458
61701SOL    HW186936  11.367   0.445  14.392
61701SOL    HW286937  11.349   0.427  14.541
61702SOL     OW86938  10.096   6.097   4.579
61702SOL    HW186939  10.109   6.043   4.657
61702SOL    HW286940  10.078   6.034   4.509
61703SOL     OW86941   6.321   4.261  11.261
61703SOL    HW186942   6.358   4.300  11.182
61703SOL    HW286943   6.343   4.323  11.331
61704SOL     OW86944   0.231  12.113  13.623
61704SOL    HW186945   0.192  12.185  13.573
61704SOL    HW286946   0.287  12.067  13.561
61705SOL     OW86947  14.215   8.981   5.970
61705SOL    HW186948  14.207   8.889   5.995
61705SOL    HW286949  14.275   9.018   6.034
61706SOL     OW86950   4.895  10.676   8.795
61706SOL    HW186951   4.816  10.680   8.849
61706SOL    HW286952   4.947  10.752   8.822
61707SOL     OW86953   9.934  11.131  10.254
61707SOL    HW186954   9.913  11.074  10.328
61707SOL    HW286955   9.854  11.133  10.202
61708SOL     OW86956   8.242   2.617   2.868
61708SOL    HW186957   8.226   2.707   2.895
61708SOL    HW286958   8.298   2.581   2.937
61709SOL     OW86959  11.236   5.994  10.311
61709SOL    HW186960  11.206   6.051  10.240
61709SOL    HW286961  11.179   5.917  10.306
61710SOL     OW86962   1.407  11.295  12.779
61710SOL    HW186963   1.451  11.360  12.724
61710SOL    HW286964   1.370  11.346  12.851
61711SOL     OW86965  13.661   3.629   3.602
61711SOL    HW186966  13.599   3.563   3.572
61711SOL    HW286967  13.638   3.644   3.694
61712SOL     OW86968   2.502  14.629   4.081
61712SOL    HW186969   2.547  14.575   4.146
61712SOL    HW286970   2.565  14.637   4.009
61713SOL     OW86971  14.377  14.589  10.473
61713SOL    HW186972  14.425  14.601  10.554
61713SOL    HW286973  14.289  14.563  10.501
61714SOL     OW86974  13.171  11.709   7.965
61714SOL    HW186975  13.131  11.741   7.884
61714SOL    HW286976  13.211  11.625   7.941
61715SOL     OW86977   9.388   3.460  12.447
61715SOL    HW186978   9.343   3.407  12.381
61715SOL    HW286979   9.427   3.395  12.506
61716SOL     OW86980   2.420  10.148  13.878
61716SOL    HW186981   2.449  10.127  13.790
61716SOL    HW286982   2.349  10.085  13.896
61717SOL     OW86983   0.970   7.785  13.402
61717SOL    HW186984   0.966   7.866  13.452
61717SOL    HW286985   1.062   7.757  13.408
61718SOL     OW86986   0.119  10.499  13.402
61718SOL    HW186987   0.112  10.544  13.318
61718SOL    HW286988   0.028  10.480  13.427
61719SOL     OW86989   1.735   3.877   4.529
61719SOL    HW186990   1.766   3.787   4.518
61719SOL    HW286991   1.779   3.908   4.609
61720SOL     OW86992   1.649   7.774   2.000
61720SOL    HW186993   1.569   7.744   1.956
61720SOL    HW286994   1.720   7.742   1.945
61721SOL     OW86995   3.865  13.168   6.969
61721SOL    HW186996   3.907  13.084   6.953
61721SOL    HW286997   3.832  13.162   7.059
61722SOL     OW86998   9.480   4.439   7.810
61722SOL    HW186999   9.447   4.450   7.721
61722SOL    HW287000   9.496   4.529   7.841
61723SOL     OW87001  10.106  13.103  11.234
61723SOL    HW187002  10.175  13.166  11.212
61723SOL    HW287003  10.154  13.023  11.256
61724SOL     OW87004   4.822   1.044   9.883
61724SOL    HW187005   4.783   0.956   9.885
61724SOL    HW287006   4.750   1.103   9.906
61725SOL     OW87007   0.150  10.807   0.319
61725SOL    HW187008   0.074  10.751   0.302
61725SOL    HW287009   0.123  10.893   0.288
61726SOL     OW87010   2.692   6.142   3.011
61726SOL    HW187011   2.636   6.110   3.082
61726SOL    HW287012   2.773   6.169   3.054
61727SOL     OW87013  11.173  13.657  12.165
61727SOL    HW187014  11.220  13.711  12.102
61727SOL    HW287015  11.216  13.675  12.249
61728SOL     OW87016   3.065   7.625   5.614
61728SOL    HW187017   3.136   7.682   5.643
61728SOL    HW287018   3.088   7.602   5.524
61729SOL     OW87019   4.426   3.692  12.128
61729SOL    HW187020   4.516   3.680  12.156
61729SOL    HW287021   4.412   3.627  12.059
61730SOL     OW87022   5.425   4.061  14.307
61730SOL    HW187023   5.333   4.061  14.334
61730SOL    HW287024   5.431   3.991  14.242
61731SOL     OW87025   8.093   8.565   3.219
61731SOL    HW187026   8.173   8.617   3.217
61731SOL    HW287027   8.034   8.608   3.157
61732SOL     OW87028   9.376   7.018  11.590
61732SOL    HW187029   9.403   7.104  11.621
61732SOL    HW287030   9.340   7.034  11.503
61733SOL     OW87031   1.391   4.258  14.713
61733SOL    HW187032   1.295   4.254  14.720
61733SOL    HW287033   1.414   4.183  14.658
61734SOL     OW87034   5.516   6.215   7.022
61734SOL    HW187035   5.442   6.273   7.037
61734SOL    HW287036   5.542   6.186   7.110
61735SOL     OW87037   1.793   8.307  13.348
61735SOL    HW187038   1.795   8.222  13.391
61735SOL    HW287039   1.701   8.334  13.352
61736SOL     OW87040   0.332  13.236  10.780
61736SOL    HW187041   0.416  13.281  10.792
61736SOL    HW287042   0.350  13.145  10.802
61737SOL     OW87043  10.742   9.341   0.842
61737SOL    HW187044  10.715   9.371   0.929
61737SOL    HW287045  10.700   9.255   0.832
61738SOL     OW87046  10.587   8.516   5.730
61738SOL    HW187047  10.529   8.583   5.766
61738SOL    HW287048  10.649   8.564   5.676
61739SOL     OW87049   2.854   5.698   9.111
61739SOL    HW187050   2.790   5.694   9.182
61739SOL    HW287051   2.844   5.615   9.065
61740SOL     OW87052  14.523   1.126   0.334
61740SOL    HW187053  14.446   1.074   0.309
61740SOL    HW287054  14.588   1.060   0.360
61741SOL     OW87055  12.084  12.377  12.854
61741SOL    HW187056  12.025  12.452  12.846
61741SOL    HW287057  12.169  12.410  12.825
61742SOL     OW87058  11.570   8.353   4.373
61742SOL    HW187059  11.577   8.292   4.300
61742SOL    HW287060  11.660   8.365   4.404
61743SOL     OW87061   5.073   2.546   2.309
61743SOL    HW187062   5.097   2.609   2.241
61743SOL    HW287063   5.090   2.592   2.391
61744SOL     OW87064  12.214   9.864  11.646
61744SOL    HW187065  12.179   9.779  11.618
61744SOL    HW287066  12.218   9.916  11.566
61745SOL     OW87067  11.654   2.923   5.695
61745SOL    HW187068  11.648   2.875   5.777
61745SOL    HW287069  11.626   3.012   5.717
61746SOL     OW87070   4.348   8.590  13.909
61746SOL    HW187071   4.328   8.519  13.969
61746SOL    HW287072   4.300   8.665  13.944
61747SOL     OW87073   3.035   2.065  13.996
61747SOL    HW187074   2.997   2.027  14.075
61747SOL    HW287075   3.115   2.108  14.026
61748SOL     OW87076   9.041  13.014   8.082
61748SOL    HW187077   9.136  13.022   8.075
61748SOL    HW287078   9.008  13.047   7.998
61749SOL     OW87079  14.769   5.934  11.964
61749SOL    HW187080  14.793   6.025  11.951
61749SOL    HW287081  14.705   5.915  11.896
61750SOL     OW87082  14.249   1.935   3.537
61750SOL    HW187083  14.204   1.883   3.602
61750SOL    HW287084  14.322   1.879   3.508
61751SOL     OW87085   9.802  14.060   6.407
61751SOL    HW187086   9.824  14.060   6.500
61751SOL    HW287087   9.771  13.971   6.390
61752SOL     OW87088   6.959  10.303   1.027
61752SOL    HW187089   6.901  10.228   1.026
61752SOL    HW287090   7.023  10.284   1.096
61753SOL     OW87091   9.043   7.112   3.706
61753SOL    HW187092   9.010   7.190   3.750
61753SOL    HW287093   9.128   7.139   3.671
61754SOL     OW87094  11.797   7.265  13.589
61754SOL    HW187095  11.732   7.222  13.644
61754SOL    HW287096  11.818   7.200  13.522
61755SOL     OW87097   3.238   5.421  11.115
61755SOL    HW187098   3.262   5.439  11.024
61755SOL    HW287099   3.230   5.508  11.156
61756SOL     OW87100  10.897   8.292   7.386
61756SOL    HW187101  10.954   8.333   7.319
61756SOL    HW287102  10.883   8.362   7.450
61757SOL     OW87103  10.395   3.382   4.068
61757SOL    HW187104  10.441   3.350   4.145
61757SOL    HW287105  10.446   3.349   3.994
61758SOL     OW87106   9.596  14.405   2.517
61758SOL    HW187107   9.618  14.313   2.505
61758SOL    HW287108   9.657  14.436   2.585
61759SOL     OW87109   2.618   3.537  11.899
61759SOL    HW187110   2.584   3.524  11.810
61759SOL    HW287111   2.539   3.547  11.953
61760SOL     OW87112   5.158   1.344   1.110
61760SOL    HW187113   5.178   1.437   1.104
61760SOL    HW287114   5.129   1.331   1.200
61761SOL     OW87115  13.294   0.909  12.202
61761SOL    HW187116  13.223   0.944  12.257
61761SOL    HW287117  13.374   0.943  12.243
61762SOL     OW87118  10.235   5.689   3.291
61762SOL    HW187119  10.160   5.645   3.332
61762SOL    HW287120  10.196   5.752   3.232
61763SOL     OW87121   8.472  14.123   9.443
61763SOL    HW187122   8.532  14.067   9.394
61763SOL    HW287123   8.512  14.132   9.529
61764SOL     OW87124   8.105   1.691   5.775
61764SOL    HW187125   8.120   1.663   5.685
61764SOL    HW287126   8.180   1.656   5.824
61765SOL     OW87127  10.069   9.012   6.669
61765SOL    HW187128  10.081   8.917   6.668
61765SOL    HW287129   9.989   9.026   6.619
61766SOL     OW87130   2.183   0.482   0.206
61766SOL    HW187131   2.198   0.388   0.209
61766SOL    HW287132   2.265   0.518   0.173
61767SOL     OW87133   1.393  13.320   5.162
61767SOL    HW187134   1.329  13.289   5.098
61767SOL    HW287135   1.344  13.380   5.218
61768SOL     OW87136  14.408  12.922   8.352
61768SOL    HW187137  14.317  12.911   8.327
61768SOL    HW287138  14.456  12.860   8.297
61769SOL     OW87139   9.319   9.863   5.214
61769SOL    HW187140   9.379   9.796   5.247
61769SOL    HW287141   9.254   9.873   5.283
61770SOL     OW87142   0.851   6.145   7.485
61770SOL    HW187143   0.788   6.141   7.413
61770SOL    HW287144   0.879   6.054   7.498
61771SOL     OW87145   7.016   2.647   0.577
61771SOL    HW187146   6.987   2.737   0.564
61771SOL    HW287147   6.936   2.598   0.593
61772SOL     OW87148  13.838   8.116  13.350
61772SOL    HW187149  13.861   8.071  13.431
61772SOL    HW287150  13.854   8.208  13.369
61773SOL     OW87151   1.489  14.211   2.026
61773SOL    HW187152   1.408  14.229   1.977
61773SOL    HW287153   1.498  14.116   2.024
61774SOL     OW87154   8.492   7.997  14.623
61774SOL    HW187155   8.532   8.074  14.584
61774SOL    HW287156   8.478   7.937  14.549
61775SOL     OW87157   6.351   3.293   3.231
61775SOL    HW187158   6.386   3.312   3.318
61775SOL    HW287159   6.404   3.346   3.172
61776SOL     OW87160  12.082   6.103   3.364
61776SOL    HW187161  12.165   6.146   3.384
61776SOL    HW287162  12.047   6.076   3.449
61777SOL     OW87163   5.935  10.969   1.525
61777SOL    HW187164   5.943  10.887   1.573
61777SOL    HW287165   6.004  11.025   1.561
61778SOL     OW87166  11.425   1.915   3.132
61778SOL    HW187167  11.420   1.820   3.128
61778SOL    HW287168  11.513   1.933   3.165
61779SOL     OW87169   0.320   1.046  11.570
61779SOL    HW187170   0.301   1.066  11.661
61779SOL    HW287171   0.272   0.965  11.553
61780SOL     OW87172   4.526  11.536  10.520
61780SOL    HW187173   4.584  11.612  10.528
61780SOL    HW287174   4.570  11.466  10.568
61781SOL     OW87175   2.554   8.646   2.189
61781SOL    HW187176   2.646   8.671   2.186
61781SOL    HW287177   2.510   8.721   2.230
61782SOL     OW87178   4.726   7.848  12.477
61782SOL    HW187179   4.708   7.903  12.401
61782SOL    HW287180   4.704   7.903  12.552
61783SOL     OW87181   1.241   9.934   0.890
61783SOL    HW187182   1.285   9.981   0.819
61783SOL    HW287183   1.227   9.846   0.856
61784SOL     OW87184   9.925  10.079  12.513
61784SOL    HW187185   9.906  10.116  12.427
61784SOL    HW287186   9.839  10.063  12.552
61785SOL     OW87187  10.988  10.294   6.708
61785SOL    HW187188  10.936  10.230   6.757
61785SOL    HW287189  10.977  10.269   6.617
61786SOL     OW87190   1.834   2.714   3.709
61786SOL    HW187191   1.925   2.692   3.687
61786SOL    HW287192   1.802   2.761   3.632
61787SOL     OW87193  11.356   0.522  13.113
61787SOL    HW187194  11.394   0.609  13.127
61787SOL    HW287195  11.272   0.538  13.071
61788SOL     OW87196   0.337   7.660   3.873
61788SOL    HW187197   0.380   7.743   3.893
61788SOL    HW287198   0.276   7.646   3.946
61789SOL     OW87199   9.331  14.619   5.302
61789SOL    HW187200   9.328  14.528   5.271
61789SOL    HW287201   9.262  14.663   5.253
61790SOL     OW87202   8.024   2.141  13.272
61790SOL    HW187203   7.941   2.108  13.308
61790SOL    HW287204   8.089   2.077  13.303
61791SOL     OW87205   3.480  12.329  11.966
61791SOL    HW187206   3.539  12.264  12.004
61791SOL    HW287207   3.524  12.412  11.981
61792SOL     OW87208   6.772   2.329   8.948
61792SOL    HW187209   6.760   2.238   8.919
61792SOL    HW287210   6.721   2.381   8.887
61793SOL     OW87211   1.090   7.665  10.327
61793SOL    HW187212   1.000   7.634  10.335
61793SOL    HW287213   1.090   7.751  10.370
61794SOL     OW87214   4.169   8.976   1.720
61794SOL    HW187215   4.201   9.066   1.721
61794SOL    HW287216   4.082   8.982   1.680
61795SOL     OW87217   2.521   0.976   8.091
61795SOL    HW187218   2.481   0.898   8.128
61795SOL    HW287219   2.515   1.042   8.161
61796SOL     OW87220  13.495  14.517   2.233
61796SOL    HW187221  13.571  14.508   2.175
61796SOL    HW287222  13.519  14.468   2.312
61797SOL     OW87223   5.671  13.014  14.828
61797SOL    HW187224   5.715  13.082  14.778
61797SOL    HW287225   5.734  12.943  14.834
61798SOL     OW87226   5.652   3.067   0.134
61798SOL    HW187227   5.746   3.087   0.135
61798SOL    HW287228   5.648   2.972   0.122
61799SOL     OW87229   2.060   8.072   7.828
61799SOL    HW187230   2.139   8.087   7.879
61799SOL    HW287231   1.997   8.135   7.862
61800SOL     OW87232   7.609   9.753   7.944
61800SOL    HW187233   7.697   9.767   7.908
61800SOL    HW287234   7.612   9.665   7.982
61801SOL     OW87235  10.565  14.610  13.020
61801SOL    HW187236  10.633  14.665  12.980
61801SOL    HW287237  10.563  14.638  13.111
61802SOL     OW87238  10.404  11.431  11.669
61802SOL    HW187239  10.388  11.366  11.738
61802SOL    HW287240  10.346  11.404  11.597
61803SOL     OW87241   7.851   8.585   0.829
61803SOL    HW187242   7.871   8.629   0.746
61803SOL    HW287243   7.915   8.513   0.834
61804SOL     OW87244  12.666  10.202   0.087
61804SOL    HW187245  12.730  10.135   0.063
61804SOL    HW287246  12.677  10.214   0.181
61805SOL     OW87247   5.996   7.653   3.363
61805SOL    HW187248   5.927   7.710   3.329
61805SOL    HW287249   6.021   7.599   3.288
61806SOL     OW87250   4.263   0.618   2.591
61806SOL    HW187251   4.257   0.621   2.495
61806SOL    HW287252   4.297   0.530   2.610
61807SOL     OW87253  13.134   3.708   1.708
61807SOL    HW187254  13.108   3.672   1.622
61807SOL    HW287255  13.222   3.673   1.722
61808SOL     OW87256   3.819   2.963   8.478
61808SOL    HW187257   3.868   2.907   8.418
61808SOL    HW287258   3.800   2.907   8.553
61809SOL     OW87259   0.243  13.157   7.592
61809SOL    HW187260   0.252  13.240   7.546
61809SOL    HW287261   0.173  13.111   7.546
61810SOL     OW87262   6.986   1.343   0.878
61810SOL    HW187263   6.989   1.268   0.819
61810SOL    HW287264   7.057   1.400   0.848
61811SOL     OW87265   7.202   8.244   0.398
61811SOL    HW187266   7.139   8.205   0.338
61811SOL    HW287267   7.149   8.282   0.467
61812SOL     OW87268  13.717  14.320   5.651
61812SOL    HW187269  13.726  14.269   5.571
61812SOL    HW287270  13.650  14.274   5.701
61813SOL     OW87271   1.827  14.181  14.279
61813SOL    HW187272   1.842  14.211  14.368
61813SOL    HW287273   1.732  14.181  14.268
61814SOL     OW87274   6.212   0.618   3.756
61814SOL    HW187275   6.176   0.644   3.671
61814SOL    HW287276   6.150   0.652   3.820
61815SOL     OW87277  11.791   0.361  14.789
61815SOL    HW187278  11.847   0.338  14.715
61815SOL    HW287279  11.815   0.298  14.858
61816SOL     OW87280   4.382  11.219  14.492
61816SOL    HW187281   4.333  11.179  14.564
61816SOL    HW287282   4.398  11.148  14.431
61817SOL     OW87283   3.780  11.710  13.519
61817SOL    HW187284   3.737  11.766  13.584
61817SOL    HW287285   3.720  11.636  13.508
61818SOL     OW87286   3.670   6.767   2.438
61818SOL    HW187287   3.643   6.837   2.379
61818SOL    HW287288   3.667   6.688   2.385
61819SOL     OW87289   3.264   6.080   9.973
61819SOL    HW187290   3.211   6.048   9.900
61819SOL    HW287291   3.220   6.046  10.051
61820SOL     OW87292   9.305   0.839   5.605
61820SOL    HW187293   9.343   0.823   5.518
61820SOL    HW287294   9.272   0.929   5.600
61821SOL     OW87295   2.373  10.095   7.920
61821SOL    HW187296   2.399  10.156   7.852
61821SOL    HW287297   2.379  10.146   8.001
61822SOL     OW87298  13.024   6.783  12.403
61822SOL    HW187299  12.940   6.761  12.364
61822SOL    HW287300  13.002   6.822  12.488
61823SOL     OW87301   9.012   3.007  14.785
61823SOL    HW187302   9.048   2.938  14.729
61823SOL    HW287303   8.935   3.039  14.738
61824SOL     OW87304   2.572  10.904   5.028
61824SOL    HW187305   2.552  10.926   4.937
61824SOL    HW287306   2.488  10.908   5.073
61825SOL     OW87307   5.053   0.162   9.494
61825SOL    HW187308   4.982   0.127   9.547
61825SOL    HW287309   5.048   0.257   9.507
61826SOL     OW87310   9.396   2.213   2.146
61826SOL    HW187311   9.316   2.263   2.131
61826SOL    HW287312   9.464   2.265   2.103
61827SOL     OW87313  12.764   2.086   0.868
61827SOL    HW187314  12.760   2.164   0.813
61827SOL    HW287315  12.681   2.042   0.853
61828SOL     OW87316   0.671   8.282  11.198
61828SOL    HW187317   0.723   8.267  11.119
61828SOL    HW287318   0.706   8.364  11.234
61829SOL     OW87319   4.528   6.624  11.505
61829SOL    HW187320   4.616   6.630  11.467
61829SOL    HW287321   4.541   6.638  11.599
61830SOL     OW87322   7.971   5.503  12.723
61830SOL    HW187323   7.943   5.476  12.811
61830SOL    HW287324   8.055   5.458  12.710
61831SOL     OW87325  10.120   3.528   1.889
61831SOL    HW187326  10.163   3.575   1.961
61831SOL    HW287327  10.184   3.529   1.818
61832SOL     OW87328   6.364   9.740  11.647
61832SOL    HW187329   6.296   9.800  11.615
61832SOL    HW287330   6.433   9.797  11.678
61833SOL     OW87331   9.596  10.859   6.612
61833SOL    HW187332   9.586  10.784   6.671
61833SOL    HW287333   9.540  10.927   6.650
61834SOL     OW87334   2.051   2.926  12.310
61834SOL    HW187335   2.044   2.900  12.402
61834SOL    HW287336   2.143   2.951  12.299
61835SOL     OW87337   6.686   5.050  10.858
61835SOL    HW187338   6.668   5.144  10.858
61835SOL    HW287339   6.673   5.023  10.949
61836SOL     OW87340   6.842   1.005   5.503
61836SOL    HW187341   6.918   0.948   5.488
61836SOL    HW287342   6.879   1.083   5.545
61837SOL     OW87343   1.980   4.793   6.532
61837SOL    HW187344   1.970   4.877   6.488
61837SOL    HW287345   1.949   4.808   6.621
61838SOL     OW87346  11.589   1.118   7.391
61838SOL    HW187347  11.566   1.130   7.483
61838SOL    HW287348  11.507   1.099   7.347
61839SOL     OW87349   6.170   5.357  14.824
61839SOL    HW187350   6.137   5.412  14.753
61839SOL    HW287351   6.202   5.278  14.781
61840SOL     OW87352   0.797   7.623   8.696
61840SOL    HW187353   0.876   7.591   8.654
61840SOL    HW287354   0.767   7.695   8.641
61841SOL     OW87355  14.493  13.102   7.643
61841SOL    HW187356  14.508  13.197   7.645
61841SOL    HW287357  14.398  13.093   7.637
61842SOL     OW87358   6.786  14.326  13.397
61842SOL    HW187359   6.762  14.285  13.480
61842SOL    HW287360   6.753  14.416  13.404
61843SOL     OW87361  13.406   5.585   0.889
61843SOL    HW187362  13.482   5.578   0.831
61843SOL    HW287363  13.437   5.550   0.973
61844SOL     OW87364   8.660   4.351   7.228
61844SOL    HW187365   8.675   4.399   7.310
61844SOL    HW287366   8.740   4.300   7.215
61845SOL     OW87367   6.918   6.499  10.388
61845SOL    HW187368   7.006   6.530  10.409
61845SOL    HW287369   6.911   6.510  10.293
61846SOL     OW87370  10.960   1.248   8.187
61846SOL    HW187371  10.869   1.271   8.167
61846SOL    HW287372  10.963   1.244   8.282
61847SOL     OW87373   7.413   7.322  10.765
61847SOL    HW187374   7.428   7.239  10.809
61847SOL    HW287375   7.342   7.305  10.703
61848SOL     OW87376  12.676   1.381  12.278
61848SOL    HW187377  12.751   1.391  12.337
61848SOL    HW287378  12.602   1.364  12.337
61849SOL     OW87379  10.914   1.086   5.191
61849SOL    HW187380  10.921   1.148   5.264
61849SOL    HW287381  10.975   1.015   5.215
61850SOL     OW87382   0.974   1.120  14.668
61850SOL    HW187383   0.989   1.114  14.762
61850SOL    HW287384   0.909   1.190  14.658
61851SOL     OW87385  10.216   7.375  13.101
61851SOL    HW187386  10.277   7.302  13.111
61851SOL    HW287387  10.240   7.415  13.017
61852SOL     OW87388   5.934  13.862   6.664
61852SOL    HW187389   5.945  13.941   6.612
61852SOL    HW287390   5.858  13.880   6.720
61853SOL     OW87391   1.022   7.226  14.356
61853SOL    HW187392   1.105   7.272  14.368
61853SOL    HW287393   1.030   7.148  14.411
61854SOL     OW87394   9.483   3.292  12.967
61854SOL    HW187395   9.435   3.353  12.910
61854SOL    HW287396   9.439   3.208  12.953
61855SOL     OW87397   5.562  10.243   0.790
61855SOL    HW187398   5.585  10.156   0.823
61855SOL    HW287399   5.644  10.278   0.755
61856SOL     OW87400   1.815   8.597   1.411
61856SOL    HW187401   1.900   8.596   1.367
61856SOL    HW287402   1.835   8.579   1.503
61857SOL     OW87403   1.374   3.333   1.591
61857SOL    HW187404   1.366   3.243   1.557
61857SOL    HW287405   1.379   3.387   1.512
61858SOL     OW87406   7.143   2.750  11.571
61858SOL    HW187407   7.195   2.830  11.583
61858SOL    HW287408   7.082   2.751  11.646
61859SOL     OW87409   8.242  12.067  10.037
61859SOL    HW187410   8.319  12.078  10.092
61859SOL    HW287411   8.222  11.973  10.040
61860SOL     OW87412  11.220   4.679   0.592
61860SOL    HW187413  11.168   4.739   0.646
61860SOL    HW287414  11.259   4.619   0.656
61861SOL     OW87415  11.479   9.572   5.256
61861SOL    HW187416  11.512   9.490   5.293
61861SOL    HW287417  11.513   9.574   5.167
61862SOL     OW87418  14.756  14.389   7.363
61862SOL    HW187419  14.847  14.367   7.381
61862SOL    HW287420  14.752  14.484   7.368
61863SOL     OW87421   3.285  12.589   4.370
61863SOL    HW187422   3.241  12.509   4.400
61863SOL    HW287423   3.308  12.570   4.279
61864SOL     OW87424   6.659   1.278   5.550
61864SOL    HW187425   6.618   1.212   5.605
61864SOL    HW287426   6.753   1.263   5.561
61865SOL     OW87427  10.540  13.714  12.651
61865SOL    HW187428  10.482  13.788  12.633
61865SOL    HW287429  10.481  13.638  12.654
61866SOL     OW87430   2.108  13.081  12.050
61866SOL    HW187431   2.032  13.047  12.003
61866SOL    HW287432   2.153  13.004  12.083
61867SOL     OW87433   6.359   5.680  13.491
61867SOL    HW187434   6.276   5.676  13.538
61867SOL    HW287435   6.336   5.662  13.400
61868SOL     OW87436  13.300   6.691   0.501
61868SOL    HW187437  13.245   6.624   0.542
61868SOL    HW287438  13.336   6.741   0.574
61869SOL     OW87439   7.216   3.372   4.751
61869SOL    HW187440   7.224   3.277   4.764
61869SOL    HW287441   7.207   3.382   4.656
61870SOL     OW87442  10.393  14.109   2.896
61870SOL    HW187443  10.435  14.150   2.972
61870SOL    HW287444  10.331  14.175   2.865
61871SOL     OW87445   1.653  10.640  11.701
61871SOL    HW187446   1.714  10.566  11.703
61871SOL    HW287447   1.660  10.680  11.787
61872SOL     OW87448  10.552   0.289   8.721
61872SOL    HW187449  10.535   0.377   8.687
61872SOL    HW287450  10.647   0.287   8.734
61873SOL     OW87451   0.211  14.243   1.837
61873SOL    HW187452   0.240  14.334   1.844
61873SOL    HW287453   0.119  14.249   1.811
61874SOL     OW87454   6.961   9.614   3.188
61874SOL    HW187455   7.041   9.563   3.180
61874SOL    HW287456   6.924   9.588   3.273
61875SOL     OW87457  13.452   5.454   8.857
61875SOL    HW187458  13.396   5.402   8.799
61875SOL    HW287459  13.437   5.544   8.829
61876SOL     OW87460  14.096   3.722   2.013
61876SOL    HW187461  14.004   3.725   2.039
61876SOL    HW287462  14.096   3.667   1.934
61877SOL     OW87463  14.701   7.403   0.354
61877SOL    HW187464  14.750   7.321   0.346
61877SOL    HW287465  14.764   7.471   0.332
61878SOL     OW87466  13.939   3.594   7.617
61878SOL    HW187467  13.945   3.520   7.678
61878SOL    HW287468  13.917   3.554   7.533
61879SOL     OW87469   0.825   3.143   8.171
61879SOL    HW187470   0.812   3.238   8.159
61879SOL    HW287471   0.896   3.137   8.234
61880SOL     OW87472   2.477   8.243   3.584
61880SOL    HW187473   2.539   8.191   3.635
61880SOL    HW287474   2.519   8.254   3.499
61881SOL     OW87475   0.539   6.709  13.437
61881SOL    HW187476   0.549   6.628  13.488
61881SOL    HW287477   0.562   6.684  13.348
61882SOL     OW87478  11.181   5.082   7.783
61882SOL    HW187479  11.214   4.996   7.807
61882SOL    HW287480  11.125   5.107   7.857
61883SOL     OW87481  12.192   3.088   0.098
61883SOL    HW187482  12.252   3.013   0.098
61883SOL    HW287483  12.105   3.049   0.107
61884SOL     OW87484   0.724   1.525  11.862
61884SOL    HW187485   0.770   1.583  11.801
61884SOL    HW287486   0.719   1.574  11.943
61885SOL     OW87487  12.356   0.576  12.664
61885SOL    HW187488  12.432   0.522  12.642
61885SOL    HW287489  12.320   0.536  12.743
61886SOL     OW87490   3.302  12.348   6.807
61886SOL    HW187491   3.297  12.434   6.764
61886SOL    HW287492   3.227  12.300   6.771
61887SOL     OW87493   7.408  10.703   2.960
61887SOL    HW187494   7.423  10.738   3.048
61887SOL    HW287495   7.460  10.760   2.903
61888SOL     OW87496  12.933  14.115   9.198
61888SOL    HW187497  12.982  14.059   9.258
61888SOL    HW287498  12.842  14.102   9.223
61889SOL     OW87499   0.794  10.496  13.138
61889SOL    HW187500   0.781  10.490  13.044
61889SOL    HW287501   0.810  10.589  13.154
61890SOL     OW87502   7.259   2.310  11.365
61890SOL    HW187503   7.186   2.356  11.407
61890SOL    HW287504   7.237   2.217  11.374
61891SOL     OW87505  12.205   0.455   2.647
61891SOL    HW187506  12.130   0.485   2.595
61891SOL    HW287507  12.185   0.364   2.668
61892SOL     OW87508   7.301  10.309  14.512
61892SOL    HW187509   7.342  10.250  14.449
61892SOL    HW287510   7.208  10.286  14.509
61893SOL     OW87511   0.572  13.465   3.481
61893SOL    HW187512   0.508  13.403   3.515
61893SOL    HW287513   0.634  13.478   3.552
61894SOL     OW87514  10.278   6.543   7.723
61894SOL    HW187515  10.271   6.625   7.674
61894SOL    HW287516  10.204   6.490   7.693
61895SOL     OW87517  10.890   9.311   6.913
61895SOL    HW187518  10.889   9.394   6.960
61895SOL    HW287519  10.800   9.297   6.886
61896SOL     OW87520   7.199   3.978   1.940
61896SOL    HW187521   7.130   4.032   1.978
61896SOL    HW287522   7.202   3.900   1.994
61897SOL     OW87523   0.152   9.840   1.278
61897SOL    HW187524   0.156   9.790   1.196
61897SOL    HW287525   0.188   9.926   1.255
61898SOL     OW87526   2.529   9.902   2.994
61898SOL    HW187527   2.447   9.920   3.040
61898SOL    HW287528   2.598   9.931   3.054
61899SOL     OW87529   4.592   1.942  12.353
61899SOL    HW187530   4.685   1.967  12.358
61899SOL    HW287531   4.559   1.958  12.442
61900SOL     OW87532   5.300   3.936   7.378
61900SOL    HW187533   5.271   3.848   7.400
61900SOL    HW287534   5.231   3.970   7.320
61901SOL     OW87535   7.533   3.052  10.227
61901SOL    HW187536   7.451   3.066  10.274
61901SOL    HW287537   7.510   3.055  10.135
61902SOL     OW87538  12.105  12.710   5.298
61902SOL    HW187539  12.034  12.654   5.330
61902SOL    HW287540  12.074  12.742   5.214
61903SOL     OW87541  14.663  14.710   5.347
61903SOL    HW187542  14.711  14.791   5.333
61903SOL    HW287543  14.682  14.656   5.270
61904SOL     OW87544   6.045  11.724  11.127
61904SOL    HW187545   6.010  11.674  11.201
61904SOL    HW287546   5.968  11.753  11.079
61905SOL     OW87547  14.203   9.982   5.610
61905SOL    HW187548  14.255   9.934   5.674
61905SOL    HW287549  14.222  10.074   5.629
61906SOL     OW87550  10.548  11.642  14.333
61906SOL    HW187551  10.562  11.640  14.238
61906SOL    HW287552  10.606  11.712  14.364
61907SOL     OW87553   7.128   7.757   9.817
61907SOL    HW187554   7.102   7.824   9.754
61907SOL    HW287555   7.151   7.681   9.764
61908SOL     OW87556   7.140   8.372   4.908
61908SOL    HW187557   7.136   8.285   4.948
61908SOL    HW287558   7.132   8.355   4.814
61909SOL     OW87559  14.695   2.123   6.800
61909SOL    HW187560  14.644   2.189   6.753
61909SOL    HW287561  14.634   2.053   6.819
61910SOL     OW87562   2.081   0.616   6.812
61910SOL    HW187563   2.068   0.692   6.868
61910SOL    HW287564   2.148   0.564   6.857
61911SOL     OW87565   9.251   7.970   2.925
61911SOL    HW187566   9.206   7.921   2.994
61911SOL    HW287567   9.183   7.989   2.860
61912SOL     OW87568   4.956   0.591   4.992
61912SOL    HW187569   4.996   0.590   5.079
61912SOL    HW287570   4.983   0.507   4.953
61913SOL     OW87571  12.324   2.467   8.628
61913SOL    HW187572  12.416   2.448   8.615
61913SOL    HW287573  12.278   2.395   8.586
61914SOL     OW87574  14.861   8.837  10.210
61914SOL    HW187575  14.825   8.926  10.211
61914SOL    HW287576   0.010   8.822  10.300
61915SOL     OW87577  12.438   5.419  11.020
61915SOL    HW187578  12.354   5.452  10.988
61915SOL    HW287579  12.415   5.351  11.083
61916SOL     OW87580  10.916   0.749   3.931
61916SOL    HW187581  10.968   0.680   3.971
61916SOL    HW287582  10.921   0.822   3.993
61917SOL     OW87583   7.627  11.066   0.677
61917SOL    HW187584   7.580  11.065   0.760
61917SOL    HW287585   7.645  11.158   0.660
61918SOL     OW87586   9.104  13.952  12.786
61918SOL    HW187587   9.048  13.876  12.801
61918SOL    HW287588   9.173  13.945  12.851
61919SOL     OW87589   7.240   9.901   5.145
61919SOL    HW187590   7.145   9.900   5.157
61919SOL    HW287591   7.255   9.855   5.063
61920SOL     OW87592  14.044   0.549   9.870
61920SOL    HW187593  14.068   0.528   9.960
61920SOL    HW287594  13.965   0.498   9.854
61921SOL     OW87595   7.729   6.512  14.137
61921SOL    HW187596   7.724   6.448  14.208
61921SOL    HW287597   7.700   6.594  14.176
61922SOL     OW87598   8.106   8.008   4.788
61922SOL    HW187599   8.188   7.960   4.783
61922SOL    HW287600   8.117   8.069   4.861
61923SOL     OW87601   6.591  13.002  13.769
61923SOL    HW187602   6.508  12.969  13.803
61923SOL    HW287603   6.569  13.039  13.684
61924SOL     OW87604  11.075  13.919   5.149
61924SOL    HW187605  11.139  13.852   5.173
61924SOL    HW287606  11.059  13.967   5.230
61925SOL     OW87607   6.494   8.601   9.712
61925SOL    HW187608   6.516   8.510   9.692
61925SOL    HW287609   6.530   8.651   9.638
61926SOL     OW87610  11.275   6.983   7.740
61926SOL    HW187611  11.333   7.002   7.814
61926SOL    HW287612  11.282   6.888   7.728
61927SOL     OW87613   6.194   6.875  11.835
61927SOL    HW187614   6.154   6.803  11.787
61927SOL    HW287615   6.146   6.953  11.807
61928SOL     OW87616   8.241   5.836   0.111
61928SOL    HW187617   8.319   5.890   0.121
61928SOL    HW287618   8.237   5.785   0.191
61929SOL     OW87619   4.153  12.420   3.693
61929SOL    HW187620   4.111  12.413   3.607
61929SOL    HW287621   4.236  12.374   3.684
61930SOL     OW87622   1.305   3.580   5.386
61930SOL    HW187623   1.266   3.517   5.446
61930SOL    HW287624   1.235   3.643   5.368
61931SOL     OW87625   4.226   6.091  11.511
61931SOL    HW187626   4.210   6.161  11.448
61931SOL    HW287627   4.155   6.028  11.494
61932SOL     OW87628   6.198  12.628   9.559
61932SOL    HW187629   6.257  12.604   9.488
61932SOL    HW287630   6.248  12.688   9.614
61933SOL     OW87631  14.795   3.828  14.440
61933SOL    HW187632  14.770   3.902  14.495
61933SOL    HW287633  14.872   3.860  14.391
61934SOL     OW87634  11.814   7.112   9.033
61934SOL    HW187635  11.854   7.196   9.013
61934SOL    HW287636  11.863   7.080   9.109
61935SOL     OW87637  13.047   5.714   9.421
61935SOL    HW187638  12.961   5.740   9.387
61935SOL    HW287639  13.028   5.684   9.510
61936SOL     OW87640   2.718   1.337   5.561
61936SOL    HW187641   2.675   1.252   5.553
61936SOL    HW287642   2.804   1.324   5.521
61937SOL     OW87643  12.911   6.656   9.664
61937SOL    HW187644  12.991   6.690   9.624
61937SOL    HW287645  12.934   6.646   9.757
61938SOL     OW87646  14.565   2.664   5.054
61938SOL    HW187647  14.594   2.585   5.100
61938SOL    HW287648  14.599   2.655   4.966
61939SOL     OW87649  10.242  14.275  14.073
61939SOL    HW187650  10.197  14.191  14.084
61939SOL    HW287651  10.288  14.267  13.989
61940SOL     OW87652   8.655   9.617   9.491
61940SOL    HW187653   8.677   9.707   9.469
61940SOL    HW287654   8.561   9.618   9.506
61941SOL     OW87655   5.867  11.337   2.374
61941SOL    HW187656   5.868  11.302   2.463
61941SOL    HW287657   5.814  11.275   2.324
61942SOL     OW87658   3.676  13.549   5.190
61942SOL    HW187659   3.721  13.568   5.272
61942SOL    HW287660   3.647  13.634   5.157
61943SOL     OW87661  12.409  10.060   5.944
61943SOL    HW187662  12.436  10.049   5.853
61943SOL    HW287663  12.358   9.981   5.963
61944SOL     OW87664   7.166   4.731   6.546
61944SOL    HW187665   7.188   4.822   6.563
61944SOL    HW287666   7.165   4.690   6.633
61945SOL     OW87667  13.734   3.354   9.333
61945SOL    HW187668  13.658   3.307   9.299
61945SOL    HW287669  13.697   3.420   9.392
61946SOL     OW87670  13.067   4.425   1.536
61946SOL    HW187671  13.003   4.394   1.472
61946SOL    HW287672  13.152   4.398   1.502
61947SOL     OW87673   8.971  11.204  11.555
61947SOL    HW187674   8.988  11.154  11.476
61947SOL    HW287675   8.888  11.248  11.538
61948SOL     OW87676   1.794   7.503   9.352
61948SOL    HW187677   1.716   7.473   9.304
61948SOL    HW287678   1.811   7.591   9.318
61949SOL     OW87679  11.912   5.142   2.954
61949SOL    HW187680  11.940   5.222   2.998
61949SOL    HW287681  11.841   5.108   3.009
61950SOL     OW87682  13.471  12.575  14.681
61950SOL    HW187683  13.567  12.569  14.675
61950SOL    HW287684  13.451  12.660  14.642
61951SOL     OW87685   2.371   4.588  13.247
61951SOL    HW187686   2.311   4.568  13.319
61951SOL    HW287687   2.344   4.530  13.176
61952SOL     OW87688   6.859   3.944   8.121
61952SOL    HW187689   6.882   4.007   8.189
61952SOL    HW287690   6.770   3.916   8.144
61953SOL     OW87691   1.768  14.877  12.197
61953SOL    HW187692   1.845   0.052  12.178
61953SOL    HW287693   1.719  14.876  12.115
61954SOL     OW87694   2.172  12.432   9.519
61954SOL    HW187695   2.096  12.473   9.562
61954SOL    HW287696   2.159  12.338   9.534
61955SOL     OW87697  11.765   8.638  14.405
61955SOL    HW187698  11.749   8.571  14.339
61955SOL    HW287699  11.809   8.709  14.358
61956SOL     OW87700  13.744  14.873   7.817
61956SOL    HW187701  13.750  14.831   7.731
61956SOL    HW287702  13.652   0.021   7.824
61957SOL     OW87703   3.096  12.664  12.681
61957SOL    HW187704   3.057  12.617  12.755
61957SOL    HW287705   3.045  12.634  12.605
61958SOL     OW87706   3.955   9.147  11.298
61958SOL    HW187707   3.907   9.065  11.308
61958SOL    HW287708   4.020   9.128  11.230
61959SOL     OW87709  10.449  13.656   9.861
61959SOL    HW187710  10.358  13.640   9.837
61959SOL    HW287711  10.486  13.702   9.785
61960SOL     OW87712   1.824   8.266   9.593
61960SOL    HW187713   1.798   8.289   9.683
61960SOL    HW287714   1.800   8.174   9.584
61961SOL     OW87715   8.408   3.036  11.055
61961SOL    HW187716   8.323   3.051  11.096
61961SOL    HW287717   8.455   3.119  11.065
61962SOL     OW87718   5.332   9.732   8.780
61962SOL    HW187719   5.392   9.696   8.714
61962SOL    HW287720   5.357   9.688   8.861
61963SOL     OW87721   6.334   5.822   3.172
61963SOL    HW187722   6.339   5.789   3.082
61963SOL    HW287723   6.340   5.744   3.227
61964SOL     OW87724   9.754   4.812   0.615
61964SOL    HW187725   9.823   4.808   0.681
61964SOL    HW287726   9.801   4.807   0.531
61965SOL     OW87727   5.357  13.350  10.601
61965SOL    HW187728   5.414  13.404  10.656
61965SOL    HW287729   5.384  13.260  10.619
61966SOL     OW87730   1.763   7.210   9.181
61966SOL    HW187731   1.697   7.271   9.149
61966SOL    HW287732   1.734   7.187   9.270
61967SOL     OW87733  11.676  10.142   9.050
61967SOL    HW187734  11.619  10.156   9.126
61967SOL    HW287735  11.644  10.204   8.984
61968SOL     OW87736  10.121   7.905   3.787
61968SOL    HW187737  10.128   7.920   3.693
61968SOL    HW287738  10.157   7.984   3.827
61969SOL     OW87739  14.234   6.200  11.747
61969SOL    HW187740  14.169   6.269  11.742
61969SOL    HW287741  14.284   6.220  11.826
61970SOL     OW87742  11.595  10.590   8.859
61970SOL    HW187743  11.652  10.628   8.926
61970SOL    HW287744  11.528  10.656   8.843
61971SOL     OW87745   1.688   3.720  10.604
61971SOL    HW187746   1.761   3.772  10.570
61971SOL    HW287747   1.727   3.662  10.669
61972SOL     OW87748   7.783  11.612   5.246
61972SOL    HW187749   7.688  11.600   5.245
61972SOL    HW287750   7.818  11.531   5.208
61973SOL     OW87751   0.963   1.227   6.408
61973SOL    HW187752   0.910   1.213   6.330
61973SOL    HW287753   0.962   1.322   6.421
61974SOL     OW87754   0.483   9.123  12.090
61974SOL    HW187755   0.497   9.215  12.067
61974SOL    HW287756   0.563   9.079  12.062
61975SOL     OW87757   1.236   1.887   7.593
61975SOL    HW187758   1.301   1.936   7.644
61975SOL    HW287759   1.223   1.939   7.514
61976SOL     OW87760   4.275   9.278  13.756
61976SOL    HW187761   4.197   9.288  13.810
61976SOL    HW287762   4.340   9.334  13.797
61977SOL     OW87763  13.797  11.502   8.810
61977SOL    HW187764  13.866  11.565   8.788
61977SOL    HW287765  13.829  11.418   8.775
61978SOL     OW87766  11.992  12.819   3.328
61978SOL    HW187767  12.077  12.786   3.355
61978SOL    HW287768  11.935  12.742   3.332
61979SOL     OW87769   0.742  12.898   2.388
61979SOL    HW187770   0.736  12.991   2.366
61979SOL    HW287771   0.666  12.858   2.345
61980SOL     OW87772  13.330   9.498   2.991
61980SOL    HW187773  13.272   9.425   2.969
61980SOL    HW287774  13.276   9.576   2.980
61981SOL     OW87775  12.831  14.250   3.628
61981SOL    HW187776  12.842  14.155   3.630
61981SOL    HW287777  12.736  14.263   3.629
61982SOL     OW87778   3.705   6.110   4.295
61982SOL    HW187779   3.656   6.190   4.316
61982SOL    HW287780   3.771   6.103   4.364
61983SOL     OW87781  12.942  12.745  13.354
61983SOL    HW187782  13.032  12.717  13.339
61983SOL    HW287783  12.945  12.840  13.344
61984SOL     OW87784  11.855   4.560   3.281
61984SOL    HW187785  11.774   4.543   3.234
61984SOL    HW287786  11.889   4.473   3.304
61985SOL     OW87787   6.360   6.669   9.362
61985SOL    HW187788   6.340   6.575   9.370
61985SOL    HW287789   6.455   6.672   9.348
61986SOL     OW87790   2.386  13.040   7.124
61986SOL    HW187791   2.420  12.998   7.045
61986SOL    HW287792   2.330  13.110   7.092
61987SOL     OW87793  13.862   7.007  14.657
61987SOL    HW187794  13.799   7.044  14.595
61987SOL    HW287795  13.946   7.044  14.631
61988SOL     OW87796  10.726   2.166   6.930
61988SOL    HW187797  10.807   2.122   6.905
61988SOL    HW287798  10.681   2.104   6.987
61989SOL     OW87799  12.086   5.420  14.687
61989SOL    HW187800  11.993   5.444  14.682
61989SOL    HW287801  12.086   5.331  14.721
61990SOL     OW87802  14.645  13.312   4.834
61990SOL    HW187803  14.726  13.306   4.783
61990SOL    HW287804  14.578  13.278   4.776
61991SOL     OW87805   2.625   1.546   7.623
61991SOL    HW187806   2.538   1.539   7.585
61991SOL    HW287807   2.613   1.523   7.715
61992SOL     OW87808   1.984   4.319   7.753
61992SOL    HW187809   1.939   4.248   7.800
61992SOL    HW287810   1.919   4.353   7.692
61993SOL     OW87811   2.644   8.732  11.427
61993SOL    HW187812   2.559   8.769  11.402
61993SOL    HW287813   2.629   8.638  11.428
61994SOL     OW87814   7.578   0.268   4.068
61994SOL    HW187815   7.494   0.226   4.086
61994SOL    HW287816   7.565   0.310   3.982
61995SOL     OW87817  14.794   1.891   7.617
61995SOL    HW187818  14.875   1.893   7.566
61995SOL    HW287819  14.752   1.974   7.597
61996SOL     OW87820  12.722  12.535   5.805
61996SOL    HW187821  12.811  12.567   5.791
61996SOL    HW287822  12.725  12.443   5.778
61997SOL     OW87823   3.162   9.089  13.755
61997SOL    HW187824   3.155   8.997  13.730
61997SOL    HW287825   3.208   9.131  13.682
61998SOL     OW87826   3.784   6.511   0.537
61998SOL    HW187827   3.757   6.478   0.451
61998SOL    HW287828   3.831   6.438   0.577
61999SOL     OW87829   2.825   8.277  14.773
61999SOL    HW187830   2.825   8.189  14.811
61999SOL    HW287831   2.785   8.332  14.841
62000SOL     OW87832   3.150   1.497   4.755
62000SOL    HW187833   3.197   1.440   4.815
62000SOL    HW287834   3.106   1.437   4.695
62001SOL     OW87835   8.461   0.633   0.037
62001SOL    HW187836   8.540   0.685   0.049
62001SOL    HW287837   8.487   0.565  14.854
62002SOL     OW87838  11.388   1.115   8.035
62002SOL    HW187839  11.335   1.186   8.000
62002SOL    HW287840  11.474   1.127   7.994
62003SOL     OW87841   3.591   0.612  13.773
62003SOL    HW187842   3.673   0.582  13.813
62003SOL    HW287843   3.601   0.707  13.764
62004SOL     OW87844  14.811   9.004   1.321
62004SOL    HW187845  14.847   8.972   1.404
62004SOL    HW287846  14.717   8.994   1.331
62005SOL     OW87847   8.763   6.573   9.651
62005SOL    HW187848   8.783   6.560   9.744
62005SOL    HW287849   8.848   6.590   9.611
62006SOL     OW87850  11.451   5.794  13.276
62006SOL    HW187851  11.496   5.710  13.282
62006SOL    HW287852  11.422   5.799  13.185
62007SOL     OW87853   3.751   1.140   1.870
62007SOL    HW187854   3.690   1.087   1.820
62007SOL    HW287855   3.810   1.178   1.805
62008SOL     OW87856   5.020   3.361   7.697
62008SOL    HW187857   5.013   3.338   7.604
62008SOL    HW287858   4.929   3.363   7.728
62009SOL     OW87859   3.885   7.839   9.132
62009SOL    HW187860   3.805   7.796   9.101
62009SOL    HW287861   3.952   7.811   9.070
62010SOL     OW87862   7.105  10.503   9.871
62010SOL    HW187863   7.026  10.550   9.898
62010SOL    HW287864   7.092  10.486   9.778
62011SOL     OW87865  10.746   0.268   3.340
62011SOL    HW187866  10.780   0.357   3.328
62011SOL    HW287867  10.672   0.279   3.401
62012SOL     OW87868  11.968  10.427   6.712
62012SOL    HW187869  12.059  10.440   6.684
62012SOL    HW287870  11.916  10.473   6.646
62013SOL     OW87871   1.908  11.763   9.299
62013SOL    HW187872   1.988  11.733   9.340
62013SOL    HW287873   1.844  11.768   9.371
62014SOL     OW87874   8.962  11.676  10.730
62014SOL    HW187875   8.894  11.617  10.765
62014SOL    HW287876   9.005  11.624  10.662
62015SOL     OW87877   2.613   7.253  11.626
62015SOL    HW187878   2.673   7.250  11.551
62015SOL    HW287879   2.527   7.268  11.587
62016SOL     OW87880  13.139  11.689   9.239
62016SOL    HW187881  13.058  11.642   9.261
62016SOL    HW287882  13.192  11.683   9.319
62017SOL     OW87883  11.021   8.330   7.876
62017SOL    HW187884  11.113   8.323   7.849
62017SOL    HW287885  10.974   8.272   7.818
62018SOL     OW87886   5.443   8.093  14.146
62018SOL    HW187887   5.530   8.068  14.113
62018SOL    HW287888   5.455   8.181  14.181
62019SOL     OW87889   4.788  10.827   7.901
62019SOL    HW187890   4.861  10.841   7.960
62019SOL    HW287891   4.735  10.906   7.910
62020SOL     OW87892  10.069  13.469   5.537
62020SOL    HW187893  10.057  13.396   5.598
62020SOL    HW287894   9.982  13.510   5.533
62021SOL     OW87895   2.040   0.667   1.921
62021SOL    HW187896   2.122   0.712   1.941
62021SOL    HW287897   2.066   0.585   1.879
62022SOL     OW87898   7.879  10.751   1.366
62022SOL    HW187899   7.975  10.746   1.370
62022SOL    HW287900   7.852  10.671   1.321
62023SOL     OW87901   1.706   5.771  12.976
62023SOL    HW187902   1.764   5.695  12.966
62023SOL    HW287903   1.761   5.838  13.016
62024SOL     OW87904  12.309  14.312   8.857
62024SOL    HW187905  12.363  14.383   8.819
62024SOL    HW287906  12.359  14.282   8.933
62025SOL     OW87907   3.480   8.415   3.942
62025SOL    HW187908   3.395   8.410   3.898
62025SOL    HW287909   3.544   8.408   3.872
62026SOL     OW87910  10.937  11.728   1.000
62026SOL    HW187911  11.028  11.713   1.026
62026SOL    HW287912  10.885  11.685   1.069
62027SOL     OW87913   8.627   4.330  11.126
62027SOL    HW187914   8.592   4.353  11.212
62027SOL    HW287915   8.631   4.413  11.079
62028SOL     OW87916  12.337   9.349   1.581
62028SOL    HW187917  12.387   9.413   1.632
62028SOL    HW287918  12.284   9.304   1.646
62029SOL     OW87919   1.216   3.200  14.742
62029SOL    HW187920   1.234   3.147  14.819
62029SOL    HW287921   1.271   3.278  14.753
62030SOL     OW87922   2.744   0.620  13.141
62030SOL    HW187923   2.759   0.583  13.228
62030SOL    HW287924   2.685   0.694  13.157
62031SOL     OW87925   9.408   7.296   2.745
62031SOL    HW187926   9.342   7.309   2.676
62031SOL    HW287927   9.488   7.334   2.709
62032SOL     OW87928   8.693   7.136   9.600
62032SOL    HW187929   8.674   7.230   9.602
62032SOL    HW287930   8.692   7.110   9.693
62033SOL     OW87931   2.493  12.319   6.516
62033SOL    HW187932   2.427  12.390   6.516
62033SOL    HW287933   2.463  12.260   6.447
62034SOL     OW87934   2.249   1.636   5.221
62034SOL    HW187935   2.159   1.654   5.194
62034SOL    HW287936   2.260   1.542   5.206
62035SOL     OW87937   1.882   1.686   4.226
62035SOL    HW187938   1.966   1.696   4.181
62035SOL    HW287939   1.865   1.771   4.265
62036SOL     OW87940   3.557   7.349   7.243
62036SOL    HW187941   3.588   7.362   7.153
62036SOL    HW287942   3.543   7.255   7.250
62037SOL     OW87943  12.616   0.929  11.970
62037SOL    HW187944  12.638   1.008  11.921
62037SOL    HW287945  12.692   0.914  12.026
62038SOL     OW87946   7.142   9.154  14.496
62038SOL    HW187947   7.183   9.173  14.411
62038SOL    HW287948   7.206   9.100  14.542
62039SOL     OW87949  12.903   7.670   5.633
62039SOL    HW187950  12.840   7.644   5.700
62039SOL    HW287951  12.903   7.766   5.636
62040SOL     OW87952  12.634   5.509  14.807
62040SOL    HW187953  12.578   5.433  14.824
62040SOL    HW287954  12.668   5.494  14.719
62041SOL     OW87955   4.924   9.413   5.549
62041SOL    HW187956   4.990   9.400   5.481
62041SOL    HW287957   4.889   9.501   5.531
62042SOL     OW87958   9.051   7.353   2.757
62042SOL    HW187959   9.070   7.355   2.851
62042SOL    HW287960   9.104   7.423   2.720
62043SOL     OW87961   0.459   9.722   8.853
62043SOL    HW187962   0.465   9.811   8.889
62043SOL    HW287963   0.406   9.732   8.774
62044SOL     OW87964  13.799   0.926  11.346
62044SOL    HW187965  13.833   0.978  11.273
62044SOL    HW287966  13.744   0.988  11.395
62045SOL     OW87967   1.993   0.619  11.394
62045SOL    HW187968   1.928   0.606  11.325
62045SOL    HW287969   1.941   0.623  11.475
62046SOL     OW87970   5.788   0.230   6.835
62046SOL    HW187971   5.826   0.147   6.804
62046SOL    HW287972   5.698   0.209   6.857
62047SOL     OW87973   6.945  12.380   9.661
62047SOL    HW187974   7.005  12.333   9.603
62047SOL    HW287975   6.903  12.445   9.604
62048SOL     OW87976   6.350   4.880   2.068
62048SOL    HW187977   6.388   4.899   1.982
62048SOL    HW287978   6.417   4.830   2.114
62049SOL     OW87979   6.833   7.299   4.062
62049SOL    HW187980   6.753   7.247   4.073
62049SOL    HW287981   6.803   7.377   4.015
62050SOL     OW87982   8.690   1.230   2.052
62050SOL    HW187983   8.779   1.262   2.044
62050SOL    HW287984   8.653   1.239   1.963
62051SOL     OW87985  12.964  14.243  14.163
62051SOL    HW187986  12.939  14.281  14.080
62051SOL    HW287987  13.012  14.163  14.140
62052SOL     OW87988   6.606   3.172   9.021
62052SOL    HW187989   6.695   3.138   9.014
62052SOL    HW287990   6.552   3.109   8.972
62053SOL     OW87991   7.445  11.513  14.160
62053SOL    HW187992   7.528  11.472  14.185
62053SOL    HW287993   7.403  11.533  14.244
62054SOL     OW87994   1.775   5.177   2.668
62054SOL    HW187995   1.752   5.161   2.577
62054SOL    HW287996   1.762   5.271   2.681
62055SOL     OW87997  14.686   6.996   0.320
62055SOL    HW187998  14.631   6.996   0.242
62055SOL    HW287999  14.763   6.945   0.295
62056SOL     OW88000   2.758   2.466   2.671
62056SOL    HW188001   2.723   2.476   2.582
62056SOL    HW288002   2.709   2.530   2.723
62057SOL     OW88003   7.112  11.154   9.168
62057SOL    HW188004   7.138  11.170   9.078
62057SOL    HW288005   7.162  11.218   9.219
62058SOL     OW88006   9.299   4.751   9.125
62058SOL    HW188007   9.207   4.738   9.101
62058SOL    HW288008   9.310   4.847   9.126
62059SOL     OW88009   3.120   2.521   0.947
62059SOL    HW188010   3.085   2.457   1.009
62059SOL    HW288011   3.090   2.490   0.862
62060SOL     OW88012   4.123   1.385   8.448
62060SOL    HW188013   4.156   1.383   8.538
62060SOL    HW288014   4.108   1.293   8.427
62061SOL     OW88015   0.161   2.666  14.038
62061SOL    HW188016   0.223   2.634  14.103
62061SOL    HW288017   0.095   2.714  14.088
62062SOL     OW88018   3.853   6.176   6.691
62062SOL    HW188019   3.867   6.254   6.745
62062SOL    HW288020   3.939   6.154   6.657
62063SOL     OW88021   4.906   4.793  10.949
62063SOL    HW188022   4.835   4.850  10.920
62063SOL    HW288023   4.961   4.850  11.004
62064SOL     OW88024   0.017   6.193   3.188
62064SOL    HW188025   0.001   6.286   3.203
62064SOL    HW288026  14.855   6.149   3.262
62065SOL     OW88027  14.413   1.978   4.118
62065SOL    HW188028  14.463   2.057   4.137
62065SOL    HW288029  14.422   1.966   4.023
62066SOL     OW88030  10.351  12.355  10.041
62066SOL    HW188031  10.409  12.313   9.977
62066SOL    HW288032  10.290  12.406   9.988
62067SOL     OW88033   2.702  11.272   1.534
62067SOL    HW188034   2.719  11.348   1.590
62067SOL    HW288035   2.767  11.278   1.464
62068SOL     OW88036   4.299  11.879   9.148
62068SOL    HW188037   4.287  11.953   9.089
62068SOL    HW288038   4.386  11.893   9.186
62069SOL     OW88039   7.416   0.770   2.754
62069SOL    HW188040   7.362   0.707   2.706
62069SOL    HW288041   7.429   0.842   2.691
62070SOL     OW88042  10.057   7.084  10.103
62070SOL    HW188043   9.965   7.100  10.081
62070SOL    HW288044  10.059   7.081  10.199
62071SOL     OW88045  10.427   5.350   4.703
62071SOL    HW188046  10.412   5.432   4.750
62071SOL    HW288047  10.407   5.370   4.612
62072SOL     OW88048   7.329  14.660   2.891
62072SOL    HW188049   7.301  14.658   2.800
62072SOL    HW288050   7.363  14.571   2.907
62073SOL     OW88051  11.314   9.440  10.469
62073SOL    HW188052  11.382   9.461  10.405
62073SOL    HW288053  11.290   9.349  10.449
62074SOL     OW88054   1.499   7.785   6.910
62074SOL    HW188055   1.419   7.759   6.863
62074SOL    HW288056   1.563   7.803   6.841
62075SOL     OW88057  10.658   5.784   3.827
62075SOL    HW188058  10.727   5.850   3.831
62075SOL    HW288059  10.578   5.833   3.848
62076SOL     OW88060   9.341  11.179   7.378
62076SOL    HW188061   9.381  11.204   7.461
62076SOL    HW288062   9.331  11.261   7.330
62077SOL     OW88063  14.510   7.174  14.045
62077SOL    HW188064  14.481   7.141  14.130
62077SOL    HW288065  14.529   7.096  13.994
62078SOL     OW88066  13.337  12.311   6.286
62078SOL    HW188067  13.394  12.386   6.266
62078SOL    HW288068  13.392  12.253   6.338
62079SOL     OW88069   1.629   6.549  11.274
62079SOL    HW188070   1.659   6.624  11.326
62079SOL    HW288071   1.662   6.567  11.186
62080SOL     OW88072   2.713  13.406   0.202
62080SOL    HW188073   2.682  13.490   0.167
62080SOL    HW288074   2.747  13.360   0.125
62081SOL     OW88075  12.929  10.782   7.531
62081SOL    HW188076  13.012  10.818   7.560
62081SOL    HW288077  12.939  10.774   7.436
62082SOL     OW88078   3.166   0.555  10.752
62082SOL    HW188079   3.223   0.478  10.758
62082SOL    HW288080   3.150   0.566  10.659
62083SOL     OW88081  10.813  13.774   5.162
62083SOL    HW188082  10.841  13.685   5.141
62083SOL    HW288083  10.891  13.828   5.144
62084SOL     OW88084   7.467   4.053  12.151
62084SOL    HW188085   7.500   4.143  12.143
62084SOL    HW288086   7.432   4.049  12.240
62085SOL     OW88087   2.572   5.168  10.552
62085SOL    HW188088   2.602   5.226  10.622
62085SOL    HW288089   2.487   5.205  10.527
62086SOL     OW88090   3.222  13.803   2.467
62086SOL    HW188091   3.289  13.853   2.513
62086SOL    HW288092   3.141  13.822   2.514
62087SOL     OW88093   9.407  12.645   2.984
62087SOL    HW188094   9.458  12.677   3.059
62087SOL    HW288095   9.376  12.559   3.012
62088SOL     OW88096  12.205   8.106   5.042
62088SOL    HW188097  12.209   8.027   5.096
62088SOL    HW288098  12.267   8.166   5.082
62089SOL     OW88099   7.149   9.805   8.822
62089SOL    HW188100   7.148   9.895   8.853
62089SOL    HW288101   7.221   9.764   8.869
62090SOL     OW88102   7.262  14.812  10.314
62090SOL    HW188103   7.252  14.776  10.402
62090SOL    HW288104   7.337  14.871  10.320
62091SOL     OW88105  11.108   0.651   9.195
62091SOL    HW188106  11.138   0.690   9.277
62091SOL    HW288107  11.026   0.697   9.176
62092SOL     OW88108   6.753   8.666   3.212
62092SOL    HW188109   6.753   8.646   3.306
62092SOL    HW288110   6.679   8.724   3.200
62093SOL     OW88111  11.548   6.622   1.190
62093SOL    HW188112  11.498   6.625   1.272
62093SOL    HW288113  11.633   6.661   1.212
62094SOL     OW88114  14.253  13.893  10.653
62094SOL    HW188115  14.309  13.903  10.731
62094SOL    HW288116  14.298  13.943  10.585
62095SOL     OW88117   4.175  14.843   0.556
62095SOL    HW188118   4.086  14.870   0.578
62095SOL    HW288119   4.227  14.867   0.633
62096SOL     OW88120   0.990  13.878   1.892
62096SOL    HW188121   0.910  13.901   1.844
62096SOL    HW288122   1.026  13.961   1.922
62097SOL     OW88123  13.230  13.121  13.375
62097SOL    HW188124  13.162  13.063  13.340
62097SOL    HW288125  13.250  13.084  13.462
62098SOL     OW88126  12.434  13.319  12.654
62098SOL    HW188127  12.392  13.323  12.568
62098SOL    HW288128  12.511  13.376  12.646
62099SOL     OW88129  12.161   2.760   9.269
62099SOL    HW188130  12.083   2.778   9.322
62099SOL    HW288131  12.233   2.797   9.319
62100SOL     OW88132   9.578   9.347   7.299
62100SOL    HW188133   9.583   9.261   7.340
62100SOL    HW288134   9.638   9.342   7.224
62101SOL     OW88135  12.867   1.662  11.573
62101SOL    HW188136  12.947   1.631  11.531
62101SOL    HW288137  12.876   1.635  11.664
62102SOL     OW88138   1.427   3.982   1.599
62102SOL    HW188139   1.352   4.043   1.602
62102SOL    HW288140   1.492   4.023   1.656
62103SOL     OW88141   1.743   7.983   8.869
62103SOL    HW188142   1.680   8.013   8.934
62103SOL    HW288143   1.761   8.060   8.816
62104SOL     OW88144   6.350   1.415  13.741
62104SOL    HW188145   6.326   1.330  13.778
62104SOL    HW288146   6.370   1.397  13.650
62105SOL     OW88147   9.180   7.321   8.955
62105SOL    HW188148   9.230   7.254   8.908
62105SOL    HW288149   9.228   7.403   8.939
62106SOL     OW88150   4.173   4.021   3.591
62106SOL    HW188151   4.261   3.984   3.582
62106SOL    HW288152   4.186   4.102   3.642
62107SOL     OW88153   5.667  10.460   5.426
62107SOL    HW188154   5.748  10.492   5.466
62107SOL    HW288155   5.678  10.478   5.333
62108SOL     OW88156  13.207   2.869   4.245
62108SOL    HW188157  13.168   2.801   4.189
62108SOL    HW288158  13.284   2.826   4.283
62109SOL     OW88159   7.902  13.840   3.094
62109SOL    HW188160   7.922  13.849   3.001
62109SOL    HW288161   7.915  13.928   3.129
62110SOL     OW88162   2.939   4.041   3.815
62110SOL    HW188163   2.919   4.126   3.854
62110SOL    HW288164   2.891   4.041   3.732
62111SOL     OW88165   4.386  13.086   5.886
62111SOL    HW188166   4.423  13.137   5.958
62111SOL    HW288167   4.368  13.151   5.817
62112SOL     OW88168   1.725   8.479   6.216
62112SOL    HW188169   1.757   8.439   6.297
62112SOL    HW288170   1.736   8.410   6.150
62113SOL     OW88171   4.023  12.531   1.993
62113SOL    HW188172   4.064  12.481   1.922
62113SOL    HW288173   4.054  12.489   2.073
62114SOL     OW88174   1.714  10.362   6.432
62114SOL    HW188175   1.657  10.292   6.401
62114SOL    HW288176   1.688  10.376   6.523
62115SOL     OW88177   5.484   1.072   3.966
62115SOL    HW188178   5.390   1.070   3.984
62115SOL    HW288179   5.512   1.160   3.995
62116SOL     OW88180   1.704   3.488   9.507
62116SOL    HW188181   1.798   3.474   9.517
62116SOL    HW288182   1.687   3.474   9.414
62117SOL     OW88183  11.269  13.885  12.034
62117SOL    HW188184  11.350  13.871  11.986
62117SOL    HW288185  11.208  13.920  11.969
62118SOL     OW88186   5.920   3.354  12.660
62118SOL    HW188187   5.991   3.382  12.604
62118SOL    HW288188   5.936   3.397  12.744
62119SOL     OW88189   1.099   2.346   1.685
62119SOL    HW188190   1.169   2.285   1.664
62119SOL    HW288191   1.109   2.417   1.621
62120SOL     OW88192   4.050   9.513  11.141
62120SOL    HW188193   3.970   9.526  11.193
62120SOL    HW288194   4.086   9.601  11.130
62121SOL     OW88195  14.593  13.878   8.476
62121SOL    HW188196  14.566  13.856   8.566
62121SOL    HW288197  14.686  13.898   8.482
62122SOL     OW88198  12.666   7.730   2.929
62122SOL    HW188199  12.688   7.696   2.842
62122SOL    HW288200  12.677   7.656   2.987
62123SOL     OW88201   8.327  12.566   6.766
62123SOL    HW188202   8.315  12.538   6.857
62123SOL    HW288203   8.409  12.525   6.739
62124SOL     OW88204   9.263   2.203  10.509
62124SOL    HW188205   9.184   2.160  10.478
62124SOL    HW288206   9.334   2.144  10.482
62125SOL     OW88207  14.071  12.138   8.450
62125SOL    HW188208  14.161  12.152   8.479
62125SOL    HW288209  14.021  12.209   8.491
62126SOL     OW88210  13.117   1.526   8.662
62126SOL    HW188211  13.213   1.525   8.660
62126SOL    HW288212  13.095   1.540   8.754
62127SOL     OW88213   8.934   6.575  11.193
62127SOL    HW188214   9.020   6.531  11.195
62127SOL    HW288215   8.896   6.550  11.109
62128SOL     OW88216  14.606   1.040  11.166
62128SOL    HW188217  14.656   0.992  11.100
62128SOL    HW288218  14.588   1.125  11.126
62129SOL     OW88219   5.610  13.308   2.668
62129SOL    HW188220   5.649  13.234   2.714
62129SOL    HW288221   5.683  13.366   2.649
62130SOL     OW88222   4.469   3.056  11.812
62130SOL    HW188223   4.420   2.986  11.854
62130SOL    HW288224   4.414   3.083  11.739
62131SOL     OW88225   0.920   1.269   6.826
62131SOL    HW188226   1.009   1.290   6.796
62131SOL    HW288227   0.892   1.198   6.768
62132SOL     OW88228   0.869  10.072   3.482
62132SOL    HW188229   0.868  10.167   3.482
62132SOL    HW288230   0.891  10.048   3.392
62133SOL     OW88231   3.255   1.690   8.300
62133SOL    HW188232   3.300   1.724   8.222
62133SOL    HW288233   3.171   1.735   8.301
62134SOL     OW88234   5.354   7.779   5.613
62134SOL    HW188235   5.360   7.859   5.666
62134SOL    HW288236   5.377   7.709   5.674
62135SOL     OW88237   6.318   9.906  14.687
62135SOL    HW188238   6.247   9.929  14.628
62135SOL    HW288239   6.337   9.987  14.735
62136SOL     OW88240   9.877   0.759   1.961
62136SOL    HW188241   9.873   0.854   1.952
62136SOL    HW288242   9.793   0.736   2.001
62137SOL     OW88243   1.776  14.714   9.617
62137SOL    HW188244   1.684  14.732   9.635
62137SOL    HW288245   1.785  14.725   9.523
62138SOL     OW88246   9.545   5.065   1.019
62138SOL    HW188247   9.632   5.068   1.060
62138SOL    HW288248   9.562   5.036   0.929
62139SOL     OW88249   4.134   2.280   0.020
62139SOL    HW188250   4.189   2.208   0.052
62139SOL    HW288251   4.160   2.355   0.073
62140SOL     OW88252  11.112  11.383  12.750
62140SOL    HW188253  11.142  11.473  12.739
62140SOL    HW288254  11.182  11.329  12.712
62141SOL     OW88255   6.569   7.280   7.992
62141SOL    HW188256   6.561   7.284   7.897
62141SOL    HW288257   6.653   7.237   8.007
62142SOL     OW88258   0.962   9.286   6.866
62142SOL    HW188259   0.939   9.236   6.944
62142SOL    HW288260   0.899   9.359   6.865
62143SOL     OW88261   1.358   4.897  14.158
62143SOL    HW188262   1.405   4.841  14.096
62143SOL    HW288263   1.363   4.851  14.241
62144SOL     OW88264  12.186   5.335   5.723
62144SOL    HW188265  12.202   5.263   5.784
62144SOL    HW288266  12.103   5.372   5.750
62145SOL     OW88267   5.808   9.065   6.964
62145SOL    HW188268   5.713   9.053   6.958
62145SOL    HW288269   5.828   9.135   6.902
62146SOL     OW88270   8.170   0.550   2.215
62146SOL    HW188271   8.203   0.552   2.125
62146SOL    HW288272   8.221   0.483   2.258
62147SOL     OW88273   7.620   8.119  10.601
62147SOL    HW188274   7.709   8.101  10.571
62147SOL    HW288275   7.599   8.046  10.659
62148SOL     OW88276   7.860  14.264   7.520
62148SOL    HW188277   7.894  14.175   7.523
62148SOL    HW288278   7.820  14.278   7.606
62149SOL     OW88279   4.704  14.360   5.458
62149SOL    HW188280   4.626  14.309   5.479
62149SOL    HW288281   4.777  14.304   5.486
62150SOL     OW88282   4.439   1.415   2.475
62150SOL    HW188283   4.461   1.446   2.387
62150SOL    HW288284   4.509   1.355   2.498
62151SOL     OW88285  13.380   8.483   1.498
62151SOL    HW188286  13.457   8.505   1.446
62151SOL    HW288287  13.310   8.469   1.434
62152SOL     OW88288  13.689  11.262   5.075
62152SOL    HW188289  13.751  11.190   5.087
62152SOL    HW288290  13.642  11.268   5.158
62153SOL     OW88291  14.563   0.170   0.527
62153SOL    HW188292  14.488   0.229   0.530
62153SOL    HW288293  14.589   0.159   0.618
62154SOL     OW88294   6.600  10.300   0.907
62154SOL    HW188295   6.641  10.374   0.951
62154SOL    HW288296   6.642  10.297   0.821
62155SOL     OW88297   5.102   7.689  10.488
62155SOL    HW188298   5.090   7.784  10.491
62155SOL    HW288299   5.128   7.671  10.398
62156SOL     OW88300   4.709   5.825   7.301
62156SOL    HW188301   4.664   5.766   7.362
62156SOL    HW288302   4.794   5.784   7.288
62157SOL     OW88303   5.202   8.537  10.569
62157SOL    HW188304   5.207   8.447  10.601
62157SOL    HW288305   5.229   8.531  10.477
62158SOL     OW88306  12.924  10.202  10.532
62158SOL    HW188307  12.999  10.165  10.485
62158SOL    HW288308  12.930  10.296  10.517
62159SOL     OW88309   9.044   5.344   9.484
62159SOL    HW188310   9.112   5.369   9.546
62159SOL    HW288311   8.965   5.387   9.516
62160SOL     OW88312   3.123   3.418   3.694
62160SOL    HW188313   3.096   3.499   3.737
62160SOL    HW288314   3.215   3.407   3.718
62161SOL     OW88315   7.682   7.958   9.854
62161SOL    HW188316   7.764   7.938   9.808
62161SOL    HW288317   7.634   8.015   9.793
62162SOL     OW88318  13.502   7.774   0.467
62162SOL    HW188319  13.480   7.681   0.473
62162SOL    HW288320  13.452   7.814   0.539
62163SOL     OW88321  14.470   7.691   1.980
62163SOL    HW188322  14.431   7.634   2.046
62163SOL    HW288323  14.563   7.667   1.980
62164SOL     OW88324   4.573  12.844  14.193
62164SOL    HW188325   4.666  12.863  14.197
62164SOL    HW288326   4.559  12.782  14.265
62165SOL     OW88327   3.602  14.681   1.767
62165SOL    HW188328   3.624  14.679   1.860
62165SOL    HW288329   3.513  14.717   1.764
62166SOL     OW88330   9.843   1.976   7.963
62166SOL    HW188331   9.892   1.899   7.934
62166SOL    HW288332   9.829   2.026   7.882
62167SOL     OW88333  14.024   9.532   7.968
62167SOL    HW188334  13.940   9.518   8.012
62167SOL    HW288335  14.064   9.605   8.016
62168SOL     OW88336   1.184  13.579  11.218
62168SOL    HW188337   1.160  13.543  11.132
62168SOL    HW288338   1.102  13.578  11.268
62169SOL     OW88339  13.761   8.065   8.806
62169SOL    HW188340  13.709   8.133   8.850
62169SOL    HW288341  13.827   8.041   8.870
62170SOL     OW88342   1.556   6.200  10.406
62170SOL    HW188343   1.579   6.194  10.499
62170SOL    HW288344   1.521   6.288  10.396
62171SOL     OW88345   2.066   5.964   9.074
62171SOL    HW188346   2.138   5.967   9.137
62171SOL    HW288347   2.108   5.958   8.988
62172SOL     OW88348  14.314   2.911   1.733
62172SOL    HW188349  14.310   2.955   1.818
62172SOL    HW288350  14.373   2.836   1.748
62173SOL     OW88351  11.657   8.884   9.632
62173SOL    HW188352  11.736   8.927   9.667
62173SOL    HW288353  11.586   8.914   9.689
62174SOL     OW88354   1.058  10.165  12.406
62174SOL    HW188355   1.079  10.234  12.469
62174SOL    HW288356   0.973  10.190  12.370
62175SOL     OW88357  12.084   2.391  12.429
62175SOL    HW188358  12.073   2.438  12.511
62175SOL    HW288359  12.075   2.458  12.361
62176SOL     OW88360   6.776   5.515   9.673
62176SOL    HW188361   6.752   5.461   9.748
62176SOL    HW288362   6.859   5.555   9.697
62177SOL     OW88363  14.652   3.404   4.929
62177SOL    HW188364  14.587   3.370   4.990
62177SOL    HW288365  14.629   3.365   4.845
62178SOL     OW88366   1.233   0.514  14.833
62178SOL    HW188367   1.138   0.502  14.827
62178SOL    HW288368   1.248   0.540   0.045
62179SOL     OW88369   7.723  13.040   5.951
62179SOL    HW188370   7.790  13.078   5.896
62179SOL    HW288371   7.766  13.024   6.035
62180SOL     OW88372  13.974   9.599   3.505
62180SOL    HW188373  14.020   9.593   3.589
62180SOL    HW288374  13.884   9.620   3.527
62181SOL     OW88375   5.116  12.941   0.772
62181SOL    HW188376   5.138  12.850   0.750
62181SOL    HW288377   5.025  12.951   0.743
62182SOL     OW88378   0.308   1.055   6.243
62182SOL    HW188379   0.333   0.992   6.176
62182SOL    HW288380   0.388   1.066   6.295
62183SOL     OW88381  12.479   0.208  10.156
62183SOL    HW188382  12.568   0.229  10.184
62183SOL    HW288383  12.491   0.168  10.070
62184SOL     OW88384   9.578  10.470  14.807
62184SOL    HW188385   9.657  10.432  14.846
62184SOL    HW288386   9.515  10.473  14.879
62185SOL     OW88387   4.732   2.242   1.147
62185SOL    HW188388   4.755   2.334   1.132
62185SOL    HW288389   4.808   2.205   1.193
62186SOL     OW88390  10.325  11.220  13.300
62186SOL    HW188391  10.371  11.142  13.331
62186SOL    HW288392  10.392  11.271  13.255
62187SOL     OW88393   1.125   5.930   8.532
62187SOL    HW188394   1.065   5.858   8.555
62187SOL    HW288395   1.133   5.925   8.437
62188SOL     OW88396   2.018   9.369   7.161
62188SOL    HW188397   1.983   9.405   7.080
62188SOL    HW288398   1.979   9.282   7.168
62189SOL     OW88399   3.070  10.256   0.529
62189SOL    HW188400   3.009  10.324   0.501
62189SOL    HW288401   3.073  10.194   0.457
62190SOL     OW88402   4.713  12.382   2.485
62190SOL    HW188403   4.739  12.336   2.405
62190SOL    HW288404   4.795  12.396   2.532
62191SOL     OW88405  13.300   3.917   3.128
62191SOL    HW188406  13.213   3.889   3.157
62191SOL    HW288407  13.288   3.935   3.034
62192SOL     OW88408   8.298   3.190  12.317
62192SOL    HW188409   8.379   3.182  12.368
62192SOL    HW288410   8.315   3.140  12.237
62193SOL     OW88411   9.556  13.278   3.817
62193SOL    HW188412   9.619  13.236   3.760
62193SOL    HW288413   9.478  13.290   3.762
62194SOL     OW88414  10.357   6.391   7.986
62194SOL    HW188415  10.421   6.442   8.036
62194SOL    HW288416  10.329   6.449   7.915
62195SOL     OW88417   1.390   5.712  12.333
62195SOL    HW188418   1.424   5.663  12.258
62195SOL    HW288419   1.431   5.670  12.409
62196SOL     OW88420   2.775   4.538   7.721
62196SOL    HW188421   2.706   4.500   7.667
62196SOL    HW288422   2.804   4.615   7.673
62197SOL     OW88423   4.590   6.077   4.500
62197SOL    HW188424   4.558   6.162   4.469
62197SOL    HW288425   4.671   6.096   4.546
62198SOL     OW88426   1.890   9.607  14.770
62198SOL    HW188427   1.968   9.618  14.716
62198SOL    HW288428   1.865   9.696  14.794
62199SOL     OW88429   0.999   8.415   7.065
62199SOL    HW188430   0.969   8.405   6.975
62199SOL    HW288431   0.937   8.476   7.105
62200SOL     OW88432   6.909   2.378   2.026
62200SOL    HW188433   6.898   2.299   1.974
62200SOL    HW288434   6.874   2.449   1.972
62201SOL     OW88435  12.727  13.615  13.871
62201SOL    HW188436  12.686  13.643  13.790
62201SOL    HW288437  12.712  13.687  13.932
62202SOL     OW88438   4.058  10.621   5.801
62202SOL    HW188439   3.983  10.619   5.743
62202SOL    HW288440   4.110  10.545   5.775
62203SOL     OW88441   5.349   4.793   3.417
62203SOL    HW188442   5.376   4.885   3.408
62203SOL    HW288443   5.430   4.747   3.439
62204SOL     OW88444  13.716   2.680  11.560
62204SOL    HW188445  13.778   2.726  11.503
62204SOL    HW288446  13.671   2.619  11.502
62205SOL     OW88447  14.338   3.863   2.270
62205SOL    HW188448  14.316   3.788   2.215
62205SOL    HW288449  14.430   3.883   2.248
62206SOL     OW88450  13.222   6.839   1.101
62206SOL    HW188451  13.247   6.775   1.034
62206SOL    HW288452  13.205   6.786   1.179
62207SOL     OW88453  14.806   8.149   1.046
62207SOL    HW188454   0.009   8.156   1.095
62207SOL    HW288455  14.800   8.231   0.997
62208SOL     OW88456   5.991  14.286   8.240
62208SOL    HW188457   6.075  14.259   8.204
62208SOL    HW288458   5.975  14.228   8.314
62209SOL     OW88459  10.258   3.610   0.163
62209SOL    HW188460  10.288   3.572   0.246
62209SOL    HW288461  10.314   3.569   0.097
62210SOL     OW88462   4.010   1.665   9.435
62210SOL    HW188463   3.998   1.688   9.528
62210SOL    HW288464   3.985   1.573   9.430
62211SOL     OW88465  12.441   0.178  10.708
62211SOL    HW188466  12.371   0.138  10.657
62211SOL    HW288467  12.470   0.109  10.768
62212SOL     OW88468   5.689   4.824   2.652
62212SOL    HW188469   5.614   4.785   2.606
62212SOL    HW288470   5.727   4.885   2.588
62213SOL     OW88471   3.974   8.834   0.648
62213SOL    HW188472   3.928   8.786   0.579
62213SOL    HW288473   3.915   8.829   0.723
62214SOL     OW88474   8.782   8.166   2.836
62214SOL    HW188475   8.709   8.225   2.821
62214SOL    HW288476   8.854   8.223   2.863
62215SOL     OW88477  12.246   0.200   1.764
62215SOL    HW188478  12.301   0.242   1.697
62215SOL    HW288479  12.291   0.217   1.846
62216SOL     OW88480  10.066  13.658  13.796
62216SOL    HW188481  10.159  13.674  13.778
62216SOL    HW288482  10.064  13.628  13.886
62217SOL     OW88483   3.097  11.127   9.309
62217SOL    HW188484   3.075  11.145   9.401
62217SOL    HW288485   3.077  11.034   9.298
62218SOL     OW88486  11.321   9.865  14.050
62218SOL    HW188487  11.257   9.794  14.049
62218SOL    HW288488  11.319   9.899  14.139
62219SOL     OW88489   1.442   9.262  12.468
62219SOL    HW188490   1.411   9.176  12.497
62219SOL    HW288491   1.537   9.253  12.464
62220SOL     OW88492  10.607   4.517   6.725
62220SOL    HW188493  10.519   4.536   6.757
62220SOL    HW288494  10.601   4.429   6.687
62221SOL     OW88495   3.895   3.080   1.279
62221SOL    HW188496   3.819   3.031   1.311
62221SOL    HW288497   3.956   3.082   1.353
62222SOL     OW88498  13.677  12.454   7.363
62222SOL    HW188499  13.597  12.449   7.311
62222SOL    HW288500  13.679  12.372   7.411
62223SOL     OW88501  13.484   7.998   5.293
62223SOL    HW188502  13.410   8.032   5.344
62223SOL    HW288503  13.460   8.015   5.202
62224SOL     OW88504   9.998   0.927   2.483
62224SOL    HW188505  10.050   0.859   2.440
62224SOL    HW288506   9.941   0.878   2.543
62225SOL     OW88507   0.066   6.362   4.737
62225SOL    HW188508   0.131   6.293   4.724
62225SOL    HW288509   0.012   6.332   4.810
62226SOL     OW88510  10.956  10.280   2.573
62226SOL    HW188511  11.012  10.253   2.647
62226SOL    HW288512  10.918  10.363   2.602
62227SOL     OW88513   8.833   0.495   6.486
62227SOL    HW188514   8.805   0.515   6.575
62227SOL    HW288515   8.857   0.580   6.449
62228SOL     OW88516   2.550  13.573  12.598
62228SOL    HW188517   2.489  13.637  12.562
62228SOL    HW288518   2.556  13.505  12.531
62229SOL     OW88519   2.002  14.132   5.407
62229SOL    HW188520   1.985  14.107   5.316
62229SOL    HW288521   2.058  14.210   5.400
62230SOL     OW88522  11.060   4.320   3.784
62230SOL    HW188523  11.109   4.401   3.797
62230SOL    HW288524  10.968   4.347   3.784
62231SOL     OW88525   3.708  12.923  12.147
62231SOL    HW188526   3.654  12.850  12.176
62231SOL    HW288527   3.657  13.001  12.167
62232SOL     OW88528   3.704   4.367   6.465
62232SOL    HW188529   3.790   4.404   6.484
62232SOL    HW288530   3.689   4.304   6.536
62233SOL     OW88531  13.819  14.742   5.878
62233SOL    HW188532  13.735  14.788   5.873
62233SOL    HW288533  13.885  14.810   5.864
62234SOL     OW88534   7.831   2.103   2.848
62234SOL    HW188535   7.743   2.065   2.859
62234SOL    HW288536   7.876   2.042   2.790
62235SOL     OW88537   5.039   0.751   6.119
62235SOL    HW188538   5.056   0.831   6.070
62235SOL    HW288539   4.963   0.772   6.173
62236SOL     OW88540  14.510  14.534  12.841
62236SOL    HW188541  14.600  14.511  12.865
62236SOL    HW288542  14.510  14.535  12.745
62237SOL     OW88543   1.558   9.674   2.072
62237SOL    HW188544   1.625   9.648   2.135
62237SOL    HW288545   1.501   9.734   2.120
62238SOL     OW88546  12.965   4.512  14.005
62238SOL    HW188547  12.935   4.488  14.092
62238SOL    HW288548  13.000   4.601  14.015
62239SOL     OW88549   3.842   5.022  12.213
62239SOL    HW188550   3.904   5.090  12.239
62239SOL    HW288551   3.838   4.963  12.287
62240SOL     OW88552   5.340  13.074  12.390
62240SOL    HW188553   5.383  13.142  12.338
62240SOL    HW288554   5.386  13.075  12.474
62241SOL     OW88555   2.132   0.310   2.537
62241SOL    HW188556   2.198   0.378   2.530
62241SOL    HW288557   2.140   0.260   2.455
62242SOL     OW88558  12.119   4.493   0.519
62242SOL    HW188559  12.107   4.566   0.459
62242SOL    HW288560  12.055   4.509   0.589
62243SOL     OW88561  11.641   7.831   6.285
62243SOL    HW188562  11.709   7.765   6.295
62243SOL    HW288563  11.686   7.906   6.248
62244SOL     OW88564   1.541   3.941   5.552
62244SOL    HW188565   1.526   3.860   5.503
62244SOL    HW288566   1.586   3.912   5.631
62245SOL     OW88567   8.363   0.544  10.239
62245SOL    HW188568   8.285   0.494  10.264
62245SOL    HW288569   8.333   0.635  10.239
62246SOL     OW88570  10.769   8.227   0.801
62246SOL    HW188571  10.756   8.141   0.842
62246SOL    HW288572  10.690   8.276   0.820
62247SOL     OW88573  13.182   2.868  10.750
62247SOL    HW188574  13.170   2.811  10.674
62247SOL    HW288575  13.247   2.823  10.803
62248SOL     OW88576  14.432   3.373   0.825
62248SOL    HW188577  14.486   3.387   0.747
62248SOL    HW288578  14.495   3.354   0.895
62249SOL     OW88579  12.007   6.442  13.667
62249SOL    HW188580  12.036   6.352  13.652
62249SOL    HW288581  11.985   6.474  13.579
62250SOL     OW88582  12.493   4.938   8.510
62250SOL    HW188583  12.564   4.985   8.553
62250SOL    HW288584  12.525   4.922   8.421
62251SOL     OW88585   1.509   0.949   8.594
62251SOL    HW188586   1.444   0.913   8.534
62251SOL    HW288587   1.592   0.909   8.568
62252SOL     OW88588   6.575  13.905  12.870
62252SOL    HW188589   6.549  13.997  12.859
62252SOL    HW288590   6.651  13.895  12.814
62253SOL     OW88591   4.433   3.790  11.573
62253SOL    HW188592   4.441   3.878  11.536
62253SOL    HW288593   4.521   3.768  11.604
62254SOL     OW88594   3.842   5.493   3.426
62254SOL    HW188595   3.766   5.435   3.429
62254SOL    HW288596   3.807   5.579   3.449
62255SOL     OW88597   2.719  13.005   0.965
62255SOL    HW188598   2.738  13.095   0.990
62255SOL    HW288599   2.804  12.969   0.939
62256SOL     OW88600   7.064   3.956  10.598
62256SOL    HW188601   7.131   3.919  10.540
62256SOL    HW288602   7.104   4.034  10.635
62257SOL     OW88603  10.078   5.116  12.919
62257SOL    HW188604  10.135   5.039  12.927
62257SOL    HW288605  10.121   5.170  12.852
62258SOL     OW88606   2.240   5.206   9.309
62258SOL    HW188607   2.202   5.201   9.221
62258SOL    HW288608   2.220   5.295   9.339
62259SOL     OW88609   6.037   9.554  12.969
62259SOL    HW188610   6.097   9.479  12.973
62259SOL    HW288611   6.037   9.590  13.057
62260SOL     OW88612   1.155  13.925   4.050
62260SOL    HW188613   1.125  13.922   4.140
62260SOL    HW288614   1.146  14.018   4.025
62261SOL     OW88615   0.112   0.217   4.282
62261SOL    HW188616   0.099   0.131   4.323
62261SOL    HW288617   0.153   0.270   4.350
62262SOL     OW88618  13.900   3.775   4.499
62262SOL    HW188619  13.903   3.783   4.594
62262SOL    HW288620  13.972   3.831   4.468
62263SOL     OW88621  10.942   2.164   2.985
62263SOL    HW188622  11.019   2.136   3.034
62263SOL    HW288623  10.974   2.234   2.928
62264SOL     OW88624  14.867   5.222   3.646
62264SOL    HW188625   0.046   5.238   3.721
62264SOL    HW288626  14.797   5.288   3.655
62265SOL     OW88627  14.129  14.554  11.933
62265SOL    HW188628  14.114  14.465  11.966
62265SOL    HW288629  14.041  14.590  11.923
62266SOL     OW88630  12.982   1.787   5.058
62266SOL    HW188631  13.022   1.807   4.974
62266SOL    HW288632  13.048   1.737   5.106
62267SOL     OW88633  10.402   2.436  10.691
62267SOL    HW188634  10.319   2.449  10.737
62267SOL    HW288635  10.450   2.518  10.704
62268SOL     OW88636   0.546   1.389  10.935
62268SOL    HW188637   0.561   1.482  10.952
62268SOL    HW288638   0.592   1.371  10.853
62269SOL     OW88639  14.447  12.291  11.121
62269SOL    HW188640  14.517  12.349  11.151
62269SOL    HW288641  14.435  12.229  11.194
62270SOL     OW88642   7.994   2.633   6.042
62270SOL    HW188643   8.028   2.721   6.055
62270SOL    HW288644   8.033   2.581   6.113
62271SOL     OW88645   0.273  10.757  12.006
62271SOL    HW188646   0.366  10.750  12.025
62271SOL    HW288647   0.236  10.806  12.080
62272SOL     OW88648   8.411   4.865   3.523
62272SOL    HW188649   8.350   4.832   3.589
62272SOL    HW288650   8.498   4.849   3.561
62273SOL     OW88651   1.120   0.741  10.002
62273SOL    HW188652   1.101   0.689  10.081
62273SOL    HW288653   1.067   0.820  10.013
62274SOL     OW88654   9.462   9.189  12.784
62274SOL    HW188655   9.459   9.161  12.876
62274SOL    HW288656   9.550   9.223  12.772
62275SOL     OW88657  10.219   8.051   3.278
62275SOL    HW188658  10.245   8.051   3.370
62275SOL    HW288659  10.163   8.128   3.270
62276SOL     OW88660   4.892   0.503  10.150
62276SOL    HW188661   4.935   0.418  10.153
62276SOL    HW288662   4.864   0.519  10.240
62277SOL     OW88663   7.693   2.850   6.502
62277SOL    HW188664   7.722   2.927   6.551
62277SOL    HW288665   7.747   2.851   6.423
62278SOL     OW88666   8.625  11.254   8.794
62278SOL    HW188667   8.606  11.167   8.757
62278SOL    HW288668   8.568  11.313   8.745
62279SOL     OW88669   5.106   9.434  11.992
62279SOL    HW188670   5.180   9.490  12.016
62279SOL    HW288671   5.090   9.382  12.071
62280SOL     OW88672   2.364   9.011  14.490
62280SOL    HW188673   2.326   8.926  14.471
62280SOL    HW288674   2.291   9.072  14.484
62281SOL     OW88675   4.173  11.372  11.988
62281SOL    HW188676   4.235  11.312  12.031
62281SOL    HW288677   4.221  11.407  11.913
62282SOL     OW88678   5.142   9.527   4.243
62282SOL    HW188679   5.095   9.466   4.187
62282SOL    HW288680   5.074   9.583   4.281
62283SOL     OW88681   2.048  11.765  13.730
62283SOL    HW188682   2.120  11.812  13.773
62283SOL    HW288683   2.059  11.674  13.758
62284SOL     OW88684   3.572   2.590   2.598
62284SOL    HW188685   3.639   2.599   2.529
62284SOL    HW288686   3.493   2.565   2.551
62285SOL     OW88687   9.029   4.190   9.646
62285SOL    HW188688   8.973   4.169   9.721
62285SOL    HW288689   9.015   4.283   9.631
62286SOL     OW88690   6.013  12.998   2.359
62286SOL    HW188691   5.958  12.975   2.434
62286SOL    HW288692   5.955  13.046   2.300
62287SOL     OW88693   3.668   3.500  12.621
62287SOL    HW188694   3.694   3.503  12.713
62287SOL    HW288695   3.598   3.435  12.617
62288SOL     OW88696   4.156   2.718   4.097
62288SOL    HW188697   4.178   2.803   4.133
62288SOL    HW288698   4.082   2.688   4.149
62289SOL     OW88699   6.016   0.986   8.676
62289SOL    HW188700   6.045   0.921   8.612
62289SOL    HW288701   5.963   1.047   8.624
62290SOL     OW88702   4.629   0.019   2.939
62290SOL    HW188703   4.715  14.856   2.938
62290SOL    HW288704   4.611   0.041   2.848
62291SOL     OW88705  13.621   7.469   4.389
62291SOL    HW188706  13.632   7.542   4.449
62291SOL    HW288707  13.538   7.487   4.344
62292SOL     OW88708  12.989  12.765   5.203
62292SOL    HW188709  12.986  12.800   5.114
62292SOL    HW288710  13.058  12.815   5.247
62293SOL     OW88711  13.133   0.459   0.093
62293SOL    HW188712  13.220   0.495   0.110
62293SOL    HW288713  13.082   0.533   0.061
62294SOL     OW88714  10.875   0.289  10.079
62294SOL    HW188715  10.846   0.372  10.041
62294SOL    HW288716  10.971   0.293  10.077
62295SOL     OW88717   8.672  14.034   6.184
62295SOL    HW188718   8.707  14.116   6.219
62295SOL    HW288719   8.744  13.996   6.134
62296SOL     OW88720   8.047   0.034  12.419
62296SOL    HW188721   7.987  14.839  12.413
62296SOL    HW288722   8.111   0.008  12.486
62297SOL     OW88723   6.868   2.313  11.117
62297SOL    HW188724   6.889   2.282  11.205
62297SOL    HW288725   6.779   2.282  11.101
62298SOL     OW88726   8.421  12.817   4.378
62298SOL    HW188727   8.511  12.786   4.381
62298SOL    HW288728   8.375  12.751   4.325
62299SOL     OW88729   4.044  10.602   9.754
62299SOL    HW188730   4.065  10.695   9.762
62299SOL    HW288731   4.129  10.559   9.744
62300SOL     OW88732  10.558   0.085   1.393
62300SOL    HW188733  10.622   0.081   1.463
62300SOL    HW288734  10.482   0.039   1.427
62301SOL     OW88735   2.538   8.935   8.074
62301SOL    HW188736   2.525   8.841   8.075
62301SOL    HW288737   2.502   8.964   7.990
62302SOL     OW88738   0.639   5.597  10.871
62302SOL    HW188739   0.626   5.646  10.790
62302SOL    HW288740   0.702   5.648  10.921
62303SOL     OW88741  10.485   5.644   2.971
62303SOL    HW188742  10.550   5.590   2.928
62303SOL    HW288743  10.420   5.583   3.004
62304SOL     OW88744   6.220  11.350  12.600
62304SOL    HW188745   6.292  11.344  12.662
62304SOL    HW288746   6.262  11.349  12.514
62305SOL     OW88747   4.180  12.231   2.731
62305SOL    HW188748   4.219  12.312   2.696
62305SOL    HW288749   4.231  12.161   2.691
62306SOL     OW88750  10.494  13.753   4.406
62306SOL    HW188751  10.520  13.760   4.314
62306SOL    HW288752  10.493  13.843   4.438
62307SOL     OW88753   1.802  14.690   2.101
62307SOL    HW188754   1.868  14.664   2.037
62307SOL    HW288755   1.817  14.632   2.176
62308SOL     OW88756  13.857   1.083  11.132
62308SOL    HW188757  13.807   1.146  11.081
62308SOL    HW288758  13.875   1.127  11.215
62309SOL     OW88759   8.857   6.717   0.688
62309SOL    HW188760   8.856   6.791   0.627
62309SOL    HW288761   8.848   6.756   0.774
62310SOL     OW88762  12.994  14.071  13.521
62310SOL    HW188763  12.955  14.046  13.438
62310SOL    HW288764  12.989  14.167  13.523
62311SOL     OW88765   9.362  12.326   6.437
62311SOL    HW188766   9.322  12.273   6.368
62311SOL    HW288767   9.290  12.381   6.469
62312SOL     OW88768  11.730   6.987  12.593
62312SOL    HW188769  11.753   7.050  12.525
62312SOL    HW288770  11.737   6.902  12.549
62313SOL     OW88771   1.834   2.257   5.789
62313SOL    HW188772   1.827   2.331   5.849
62313SOL    HW288773   1.927   2.237   5.786
62314SOL     OW88774   2.470  11.948  13.344
62314SOL    HW188775   2.482  11.918  13.254
62314SOL    HW288776   2.475  11.869  13.397
62315SOL     OW88777  13.995  11.287   1.518
62315SOL    HW188778  14.063  11.239   1.565
62315SOL    HW288779  13.990  11.243   1.433
62316SOL     OW88780   6.142  13.575   1.647
62316SOL    HW188781   6.217  13.575   1.707
62316SOL    HW288782   6.176  13.537   1.566
62317SOL     OW88783   2.326  13.026   4.949
62317SOL    HW188784   2.284  13.018   4.863
62317SOL    HW288785   2.418  13.005   4.934
62318SOL     OW88786  13.540  13.232  11.673
62318SOL    HW188787  13.459  13.201  11.633
62318SOL    HW288788  13.599  13.244  11.599
62319SOL     OW88789   3.050   1.196   7.316
62319SOL    HW188790   3.094   1.279   7.296
62319SOL    HW288791   3.091   1.132   7.258
62320SOL     OW88792  13.098   1.037  11.392
62320SOL    HW188793  13.124   0.975  11.460
62320SOL    HW288794  13.004   1.020  11.379
62321SOL     OW88795  14.607  10.623   1.494
62321SOL    HW188796  14.675  10.623   1.427
62321SOL    HW288797  14.526  10.643   1.446
62322SOL     OW88798   3.245  13.064  14.680
62322SOL    HW188799   3.206  13.099  14.760
62322SOL    HW288800   3.311  13.002  14.709
62323SOL     OW88801   3.121  13.994  11.027
62323SOL    HW188802   3.180  14.003  10.952
62323SOL    HW288803   3.090  13.904  11.022
62324SOL     OW88804   3.732  12.868   2.023
62324SOL    HW188805   3.802  12.885   1.961
62324SOL    HW288806   3.775  12.826   2.098
62325SOL     OW88807   1.275   7.915   0.699
62325SOL    HW188808   1.244   7.930   0.789
62325SOL    HW288809   1.196   7.919   0.646
62326SOL     OW88810  11.300   1.242   5.233
62326SOL    HW188811  11.236   1.234   5.303
62326SOL    HW288812  11.263   1.191   5.161
62327SOL     OW88813   9.986   3.174  13.355
62327SOL    HW188814  10.031   3.183  13.439
62327SOL    HW288815   9.925   3.248  13.352
62328SOL     OW88816   9.296   1.039  10.139
62328SOL    HW188817   9.217   1.079  10.174
62328SOL    HW288818   9.278   0.945  10.143
62329SOL     OW88819  13.266   1.143   7.432
62329SOL    HW188820  13.170   1.146   7.433
62329SOL    HW288821  13.287   1.095   7.352
62330SOL     OW88822   1.329   7.856   1.140
62330SOL    HW188823   1.259   7.920   1.149
62330SOL    HW288824   1.288   7.778   1.103
62331SOL     OW88825   1.412   0.844   7.940
62331SOL    HW188826   1.331   0.892   7.922
62331SOL    HW288827   1.412   0.834   8.035
62332SOL     OW88828  11.952  11.975   1.093
62332SOL    HW188829  11.986  11.914   1.159
62332SOL    HW288830  11.934  12.055   1.141
62333SOL     OW88831   2.608   2.918   9.219
62333SOL    HW188832   2.582   2.828   9.240
62333SOL    HW288833   2.650   2.951   9.299
62334SOL     OW88834   3.901   8.716  11.071
62334SOL    HW188835   3.825   8.661  11.089
62334SOL    HW288836   3.976   8.662  11.095
62335SOL     OW88837  12.147   9.342   6.195
62335SOL    HW188838  12.162   9.292   6.114
62335SOL    HW288839  12.121   9.275   6.259
62336SOL     OW88840   1.646  10.678   3.742
62336SOL    HW188841   1.644  10.768   3.774
62336SOL    HW288842   1.729  10.643   3.775
62337SOL     OW88843   8.736   9.964  12.538
62337SOL    HW188844   8.669  10.026  12.510
62337SOL    HW288845   8.688   9.895  12.583
62338SOL     OW88846   3.755  12.624   7.724
62338SOL    HW188847   3.762  12.635   7.629
62338SOL    HW288848   3.699  12.547   7.735
62339SOL     OW88849   3.519   2.261  11.405
62339SOL    HW188850   3.510   2.341  11.354
62339SOL    HW288851   3.428   2.235  11.425
62340SOL     OW88852  11.564   5.646  11.797
62340SOL    HW188853  11.632   5.613  11.856
62340SOL    HW288854  11.492   5.584  11.807
62341SOL     OW88855  14.375  10.566   5.819
62341SOL    HW188856  14.393  10.497   5.755
62341SOL    HW288857  14.461  10.594   5.849
62342SOL     OW88858  10.355  11.193   8.389
62342SOL    HW188859  10.421  11.126   8.403
62342SOL    HW288860  10.404  11.268   8.354
62343SOL     OW88861   6.251   7.479   5.057
62343SOL    HW188862   6.165   7.444   5.079
62343SOL    HW288863   6.288   7.508   5.141
62344SOL     OW88864   4.955   0.867  11.183
62344SOL    HW188865   4.906   0.949  11.181
62344SOL    HW288866   4.888   0.799  11.184
62345SOL     OW88867   0.509   8.931  11.344
62345SOL    HW188868   0.474   9.012  11.381
62345SOL    HW288869   0.433   8.888  11.304
62346SOL     OW88870  11.481  13.858   4.662
62346SOL    HW188871  11.500  13.767   4.684
62346SOL    HW288872  11.408  13.882   4.719
62347SOL     OW88873   5.977   2.134   0.582
62347SOL    HW188874   5.987   2.039   0.583
62347SOL    HW288875   6.044   2.166   0.642
62348SOL     OW88876   8.127  14.651  12.187
62348SOL    HW188877   8.092  14.586  12.126
62348SOL    HW288878   8.177  14.711  12.131
62349SOL     OW88879   9.995   4.225  10.359
62349SOL    HW188880  10.060   4.179  10.306
62349SOL    HW288881  10.031   4.314  10.369
62350SOL     OW88882  13.470   1.092   2.182
62350SOL    HW188883  13.379   1.062   2.187
62350SOL    HW288884  13.482   1.117   2.090
62351SOL     OW88885   7.139   7.243  14.705
62351SOL    HW188886   7.054   7.263  14.666
62351SOL    HW288887   7.187   7.197  14.637
62352SOL     OW88888  13.140   7.126   9.573
62352SOL    HW188889  13.090   7.045   9.566
62352SOL    HW288890  13.205   7.122   9.503
62353SOL     OW88891   2.560   6.325   0.112
62353SOL    HW188892   2.526   6.287   0.193
62353SOL    HW288893   2.588   6.250   0.060
62354SOL     OW88894  13.574  14.875   5.883
62354SOL    HW188895  13.551   0.087   5.899
62354SOL    HW288896  13.547  14.829   5.963
62355SOL     OW88897   3.047   3.795  14.514
62355SOL    HW188898   3.017   3.851  14.586
62355SOL    HW288899   3.008   3.709  14.532
62356SOL     OW88900   2.682  14.017  10.277
62356SOL    HW188901   2.653  14.105  10.252
62356SOL    HW288902   2.643  13.959  10.211
62357SOL     OW88903  10.130   2.020   2.237
62357SOL    HW188904  10.149   2.080   2.166
62357SOL    HW288905  10.043   2.045   2.268
62358SOL     OW88906   5.694  12.982  12.348
62358SOL    HW188907   5.637  13.019  12.415
62358SOL    HW288908   5.780  12.977  12.389
62359SOL     OW88909   5.241   3.781   3.664
62359SOL    HW188910   5.257   3.692   3.632
62359SOL    HW288911   5.153   3.802   3.634
62360SOL     OW88912  12.462   5.223   8.427
62360SOL    HW188913  12.389   5.264   8.472
62360SOL    HW288914  12.466   5.135   8.464
62361SOL     OW88915   2.834   4.453   9.973
62361SOL    HW188916   2.863   4.363   9.961
62361SOL    HW288917   2.745   4.445  10.006
62362SOL     OW88918  10.872   3.801   3.359
62362SOL    HW188919  10.850   3.744   3.432
62362SOL    HW288920  10.844   3.888   3.387
62363SOL     OW88921   2.628  13.547   6.481
62363SOL    HW188922   2.604  13.516   6.568
62363SOL    HW288923   2.684  13.623   6.498
62364SOL     OW88924   7.663  12.588   8.895
62364SOL    HW188925   7.701  12.560   8.812
62364SOL    HW288926   7.628  12.508   8.934
62365SOL     OW88927   4.638   3.838   5.712
62365SOL    HW188928   4.621   3.931   5.700
62365SOL    HW288929   4.715   3.820   5.658
62366SOL     OW88930  11.177  13.154  10.217
62366SOL    HW188931  11.172  13.210  10.294
62366SOL    HW288932  11.265  13.167  10.183
62367SOL     OW88933   0.902   0.560  13.576
62367SOL    HW188934   0.812   0.541  13.603
62367SOL    HW288935   0.923   0.643  13.620
62368SOL     OW88936  10.461   5.881   3.995
62368SOL    HW188937  10.394   5.812   4.000
62368SOL    HW288938  10.449   5.932   4.076
62369SOL     OW88939   5.747  14.425   9.309
62369SOL    HW188940   5.665  14.455   9.346
62369SOL    HW288941   5.815  14.467   9.362
62370SOL     OW88942  10.786   7.846  10.386
62370SOL    HW188943  10.733   7.776  10.348
62370SOL    HW288944  10.834   7.882  10.312
62371SOL     OW88945   0.696   5.302   1.213
62371SOL    HW188946   0.708   5.386   1.258
62371SOL    HW288947   0.772   5.250   1.239
62372SOL     OW88948   0.886  13.518  13.232
62372SOL    HW188949   0.830  13.595  13.242
62372SOL    HW288950   0.854  13.475  13.153
62373SOL     OW88951  12.899   3.896   7.070
62373SOL    HW188952  12.988   3.861   7.069
62373SOL    HW288953  12.869   3.887   6.980
62374SOL     OW88954   0.402   7.909  14.175
62374SOL    HW188955   0.350   7.976  14.220
62374SOL    HW288956   0.374   7.913  14.084
62375SOL     OW88957   0.266  10.593  13.977
62375SOL    HW188958   0.329  10.614  14.046
62375SOL    HW288959   0.319  10.553  13.908
62376SOL     OW88960  12.133   4.750  13.980
62376SOL    HW188961  12.206   4.755  14.041
62376SOL    HW288962  12.153   4.816  13.913
62377SOL     OW88963  10.663   0.169  10.187
62377SOL    HW188964  10.681   0.083  10.225
62377SOL    HW288965  10.736   0.184  10.126
62378SOL     OW88966  12.006   0.997   9.195
62378SOL    HW188967  11.975   1.036   9.113
62378SOL    HW288968  12.063   1.065   9.233
62379SOL     OW88969  13.409   7.383   1.700
62379SOL    HW188970  13.351   7.358   1.628
62379SOL    HW288971  13.454   7.461   1.669
62380SOL     OW88972   3.560   1.876   1.708
62380SOL    HW188973   3.611   1.956   1.694
62380SOL    HW288974   3.601   1.810   1.652
62381SOL     OW88975  13.300  11.438   7.170
62381SOL    HW188976  13.354  11.515   7.187
62381SOL    HW288977  13.324  11.410   7.082
62382SOL     OW88978   3.663   1.231  14.261
62382SOL    HW188979   3.680   1.138  14.246
62382SOL    HW288980   3.577   1.232  14.304
62383SOL     OW88981   9.407   0.337  10.805
62383SOL    HW188982   9.376   0.248  10.794
62383SOL    HW288983   9.420   0.369  10.716
62384SOL     OW88984   5.386   4.859   7.443
62384SOL    HW188985   5.291   4.857   7.458
62384SOL    HW288986   5.399   4.931   7.382
62385SOL     OW88987   1.625   2.960   3.237
62385SOL    HW188988   1.649   2.954   3.144
62385SOL    HW288989   1.548   3.016   3.238
62386SOL     OW88990  13.159  14.216   3.956
62386SOL    HW188991  13.197  14.128   3.944
62386SOL    HW288992  13.221  14.260   4.014
62387SOL     OW88993   1.390  10.141  11.928
62387SOL    HW188994   1.309  10.101  11.958
62387SOL    HW288995   1.402  10.217  11.984
62388SOL     OW88996   2.077   0.166   8.795
62388SOL    HW188997   2.150   0.190   8.851
62388SOL    HW288998   2.050   0.248   8.753
62389SOL     OW88999   5.431   3.546   6.542
62389SOL    HW189000   5.501   3.532   6.607
62389SOL    HW289001   5.387   3.626   6.572
62390SOL     OW89002  12.295   4.795   7.134
62390SOL    HW189003  12.335   4.764   7.215
62390SOL    HW289004  12.361   4.775   7.067
62391SOL     OW89005   6.173  10.735   9.638
62391SOL    HW189006   6.079  10.723   9.655
62391SOL    HW289007   6.211  10.648   9.651
62392SOL     OW89008   1.651  12.749   7.717
62392SOL    HW189009   1.564  12.752   7.677
62392SOL    HW289010   1.705  12.805   7.661
62393SOL     OW89011   0.951  10.399  13.516
62393SOL    HW189012   0.991  10.444  13.442
62393SOL    HW289013   0.873  10.356  13.480
62394SOL     OW89014   9.915   4.434   7.956
62394SOL    HW189015   9.882   4.498   8.018
62394SOL    HW289016   9.991   4.395   8.000
62395SOL     OW89017   7.049   6.066  10.127
62395SOL    HW189018   7.083   6.059  10.038
62395SOL    HW289019   7.076   6.153  10.156
62396SOL     OW89020   6.407  13.686   2.720
62396SOL    HW189021   6.325  13.702   2.673
62396SOL    HW289022   6.384  13.623   2.788
62397SOL     OW89023   9.102  10.924   0.956
62397SOL    HW189024   9.066  10.860   1.019
62397SOL    HW289025   9.041  10.997   0.958
62398SOL     OW89026   9.679  10.025   7.716
62398SOL    HW189027   9.729   9.990   7.643
62398SOL    HW289028   9.664   9.951   7.774
62399SOL     OW89029   6.089   9.490  11.918
62399SOL    HW189030   6.179   9.496  11.888
62399SOL    HW289031   6.056   9.408  11.880
62400SOL     OW89032   1.584  12.784   9.375
62400SOL    HW189033   1.676  12.764   9.360
62400SOL    HW289034   1.584  12.839   9.453
62401SOL     OW89035  11.668   6.845  10.185
62401SOL    HW189036  11.700   6.782  10.120
62401SOL    HW289037  11.674   6.798  10.268
62402SOL     OW89038   2.064  14.617  13.836
62402SOL    HW189039   2.101  14.562  13.906
62402SOL    HW289040   2.040  14.556  13.767
62403SOL     OW89041   5.705   4.142  10.840
62403SOL    HW189042   5.796   4.117  10.822
62403SOL    HW289043   5.680   4.089  10.915
62404SOL     OW89044   2.817  10.770   9.824
62404SOL    HW189045   2.782  10.812   9.902
62404SOL    HW289046   2.910  10.794   9.823
62405SOL     OW89047   1.895  10.416   6.857
62405SOL    HW189048   1.830  10.454   6.916
62405SOL    HW289049   1.955  10.488   6.838
62406SOL     OW89050   2.330   7.593   6.422
62406SOL    HW189051   2.363   7.647   6.350
62406SOL    HW289052   2.347   7.503   6.393
62407SOL     OW89053  10.590   0.700  11.037
62407SOL    HW189054  10.545   0.760  10.978
62407SOL    HW289055  10.629   0.634  10.980
62408SOL     OW89056   2.772  13.543  12.123
62408SOL    HW189057   2.829  13.580  12.055
62408SOL    HW289058   2.704  13.609  12.134
62409SOL     OW89059   7.975   3.535  10.739
62409SOL    HW189060   7.888   3.540  10.699
62409SOL    HW289061   8.004   3.445  10.722
62410SOL     OW89062  12.312   7.060   3.655
62410SOL    HW189063  12.322   7.065   3.560
62410SOL    HW289064  12.224   7.024   3.668
62411SOL     OW89065   0.955   2.128  12.476
62411SOL    HW189066   0.972   2.222  12.479
62411SOL    HW289067   0.992   2.099  12.393
62412SOL     OW89068   5.400  14.440  11.470
62412SOL    HW189069   5.330  14.443  11.536
62412SOL    HW289070   5.439  14.353  11.480
62413SOL     OW89071   1.431   5.288   0.189
62413SOL    HW189072   1.519   5.294   0.227
62413SOL    HW289073   1.404   5.198   0.206
62414SOL     OW89074  13.752   9.187   0.904
62414SOL    HW189075  13.664   9.156   0.926
62414SOL    HW289076  13.789   9.212   0.989
62415SOL     OW89077   0.860  12.068  10.029
62415SOL    HW189078   0.929  12.035   9.972
62415SOL    HW289079   0.888  12.042  10.117
62416SOL     OW89080   8.791   3.379   7.093
62416SOL    HW189081   8.883   3.407   7.090
62416SOL    HW289082   8.761   3.384   7.002
62417SOL     OW89083   0.049  13.427   1.212
62417SOL    HW189084   0.069  13.446   1.120
62417SOL    HW289085   0.118  13.471   1.261
62418SOL     OW89086   4.202   0.485   8.937
62418SOL    HW189087   4.282   0.505   8.889
62418SOL    HW289088   4.207   0.537   9.017
62419SOL     OW89089   9.337   0.069   1.297
62419SOL    HW189090   9.385   0.027   1.368
62419SOL    HW289091   9.356   0.015   1.220
62420SOL     OW89092   5.121  12.805  14.737
62420SOL    HW189093   5.197  12.752  14.711
62420SOL    HW289094   5.075  12.752  14.802
62421SOL     OW89095   7.085   3.407   2.748
62421SOL    HW189096   7.152   3.377   2.810
62421SOL    HW289097   7.134   3.426   2.667
62422SOL     OW89098  12.413   4.072   1.062
62422SOL    HW189099  12.454   4.027   1.136
62422SOL    HW289100  12.322   4.083   1.087
62423SOL     OW89101   6.104   4.052   4.586
62423SOL    HW189102   6.194   4.020   4.587
62423SOL    HW289103   6.107   4.129   4.529
62424SOL     OW89104   4.918  14.045   1.987
62424SOL    HW189105   4.905  14.104   2.061
62424SOL    HW289106   4.881  14.093   1.912
62425SOL     OW89107   7.967   4.270  10.441
62425SOL    HW189108   8.010   4.262  10.356
62425SOL    HW289109   8.019   4.337  10.487
62426SOL     OW89110  11.684   7.239   8.407
62426SOL    HW189111  11.761   7.281   8.368
62426SOL    HW289112  11.705   7.232   8.500
62427SOL     OW89113  10.197   9.862   3.794
62427SOL    HW189114  10.272   9.835   3.848
62427SOL    HW289115  10.164   9.940   3.837
62428SOL     OW89116  13.173   8.234   6.729
62428SOL    HW189117  13.123   8.315   6.730
62428SOL    HW289118  13.139   8.184   6.804
62429SOL     OW89119   2.895  11.397   8.230
62429SOL    HW189120   2.839  11.405   8.307
62429SOL    HW289121   2.960  11.331   8.253
62430SOL     OW89122  13.649   6.754   3.846
62430SOL    HW189123  13.562   6.782   3.815
62430SOL    HW289124  13.709   6.782   3.776
62431SOL     OW89125  10.551   1.443  12.060
62431SOL    HW189126  10.568   1.476  11.972
62431SOL    HW289127  10.614   1.371  12.072
62432SOL     OW89128  13.065   7.319  11.902
62432SOL    HW189129  13.144   7.264  11.901
62432SOL    HW289130  13.047   7.336  11.810
62433SOL     OW89131   1.278  11.182   6.765
62433SOL    HW189132   1.264  11.253   6.702
62433SOL    HW289133   1.327  11.223   6.837
62434SOL     OW89134   7.856  14.612  12.179
62434SOL    HW189135   7.871  14.517  12.185
62434SOL    HW289136   7.925  14.651  12.232
62435SOL     OW89137  14.336  13.016   0.638
62435SOL    HW189138  14.400  13.085   0.621
62435SOL    HW289139  14.360  12.945   0.578
62436SOL     OW89140   6.246   6.110  14.287
62436SOL    HW189141   6.169   6.065  14.322
62436SOL    HW289142   6.287   6.150  14.363
62437SOL     OW89143   0.566   2.398   1.214
62437SOL    HW189144   0.609   2.458   1.153
62437SOL    HW289145   0.473   2.406   1.193
62438SOL     OW89146   2.061   9.956   6.635
62438SOL    HW189147   2.123   9.962   6.708
62438SOL    HW289148   2.079  10.032   6.581
62439SOL     OW89149  11.324   8.430  10.811
62439SOL    HW189150  11.301   8.463  10.724
62439SOL    HW289151  11.336   8.509  10.864
62440SOL     OW89152   7.757   3.202   9.987
62440SOL    HW189153   7.762   3.155   9.903
62440SOL    HW289154   7.680   3.165  10.030
62441SOL     OW89155   0.886  14.113  14.436
62441SOL    HW189156   0.910  14.098  14.528
62441SOL    HW289157   0.793  14.135  14.439
62442SOL     OW89158   7.234  14.035  10.622
62442SOL    HW189159   7.297  14.024  10.552
62442SOL    HW289160   7.191  13.949  10.629
62443SOL     OW89161   2.799   1.351   1.665
62443SOL    HW189162   2.785   1.412   1.738
62443SOL    HW289163   2.738   1.380   1.597
62444SOL     OW89164   4.248  14.051   5.340
62444SOL    HW189165   4.263  14.031   5.432
62444SOL    HW289166   4.333  14.081   5.308
62445SOL     OW89167  11.964   9.583  12.118
62445SOL    HW189168  12.045   9.632  12.107
62445SOL    HW289169  11.990   9.491  12.115
62446SOL     OW89170   6.459   0.488   1.298
62446SOL    HW189171   6.487   0.575   1.327
62446SOL    HW289172   6.498   0.428   1.362
62447SOL     OW89173   5.384   8.312   3.167
62447SOL    HW189174   5.377   8.384   3.230
62447SOL    HW289175   5.338   8.240   3.208
62448SOL     OW89176   7.313   5.301   6.849
62448SOL    HW189177   7.314   5.345   6.935
62448SOL    HW289178   7.396   5.254   6.845
62449SOL     OW89179   6.521  11.842   7.841
62449SOL    HW189180   6.484  11.832   7.929
62449SOL    HW289181   6.514  11.755   7.802
62450SOL     OW89182   1.628   2.670  13.595
62450SOL    HW189183   1.594   2.630  13.676
62450SOL    HW289184   1.670   2.597  13.549
62451SOL     OW89185   9.277   7.716   4.806
62451SOL    HW189186   9.311   7.642   4.856
62451SOL    HW289187   9.196   7.683   4.768
62452SOL     OW89188   4.455  14.176  11.461
62452SOL    HW189189   4.457  14.247  11.398
62452SOL    HW289190   4.466  14.097  11.408
62453SOL     OW89191   9.054   8.338   3.150
62453SOL    HW189192   9.079   8.262   3.202
62453SOL    HW289193   9.035   8.406   3.214
62454SOL     OW89194   9.617  11.677   2.512
62454SOL    HW189195   9.692  11.704   2.459
62454SOL    HW289196   9.544  11.675   2.450
62455SOL     OW89197   5.696  10.542  10.957
62455SOL    HW189198   5.713  10.634  10.938
62455SOL    HW289199   5.659  10.507  10.876
62456SOL     OW89200   1.352   3.636   6.372
62456SOL    HW189201   1.320   3.571   6.435
62456SOL    HW289202   1.327   3.720   6.410
62457SOL     OW89203  10.982  11.354   6.056
62457SOL    HW189204  10.944  11.317   5.976
62457SOL    HW289205  10.989  11.280   6.116
62458SOL     OW89206   0.578  14.793   9.908
62458SOL    HW189207   0.649  14.732   9.886
62458SOL    HW289208   0.498  14.740   9.900
62459SOL     OW89209   2.334  13.317   4.246
62459SOL    HW189210   2.360  13.399   4.289
62459SOL    HW289211   2.239  13.321   4.242
62460SOL     OW89212   4.713  12.755  13.671
62460SOL    HW189213   4.786  12.765  13.732
62460SOL    HW289214   4.735  12.678  13.618
62461SOL     OW89215   3.681   6.514   2.289
62461SOL    HW189216   3.703   6.451   2.221
62461SOL    HW289217   3.641   6.461   2.358
62462SOL     OW89218   3.445   5.126   6.041
62462SOL    HW189219   3.375   5.077   6.083
62462SOL    HW289220   3.422   5.218   6.054
62463SOL     OW89221   8.234  14.291   2.067
62463SOL    HW189222   8.280  14.212   2.040
62463SOL    HW289223   8.232  14.346   1.989
62464SOL     OW89224   3.102  11.246   0.774
62464SOL    HW189225   3.094  11.338   0.798
62464SOL    HW289226   3.171  11.212   0.830
62465SOL     OW89227   5.387  11.191   4.866
62465SOL    HW189228   5.482  11.198   4.878
62465SOL    HW289229   5.366  11.100   4.888
62466SOL     OW89230   8.225  12.592  12.625
62466SOL    HW189231   8.265  12.679  12.633
62466SOL    HW289232   8.211  12.564  12.716
62467SOL     OW89233   2.723  11.496   1.685
62467SOL    HW189234   2.708  11.570   1.744
62467SOL    HW289235   2.800  11.452   1.721
62468SOL     OW89236   4.252   7.421   9.976
62468SOL    HW189237   4.173   7.370   9.990
62468SOL    HW289238   4.316   7.384  10.037
62469SOL     OW89239   1.835   8.205   7.594
62469SOL    HW189240   1.851   8.278   7.535
62469SOL    HW289241   1.900   8.139   7.569
62470SOL     OW89242   2.659   6.690   4.048
62470SOL    HW189243   2.647   6.634   4.125
62470SOL    HW289244   2.745   6.666   4.014
62471SOL     OW89245  14.381  11.718   2.013
62471SOL    HW189246  14.456  11.777   2.025
62471SOL    HW289247  14.309  11.761   2.059
62472SOL     OW89248   9.006   9.682   0.598
62472SOL    HW189249   8.958   9.626   0.538
62472SOL    HW289250   8.980   9.652   0.685
62473SOL     OW89251   2.904   9.004   8.670
62473SOL    HW189252   2.934   9.095   8.662
62473SOL    HW289253   2.956   8.956   8.606
62474SOL     OW89254   2.645   1.535  10.252
62474SOL    HW189255   2.715   1.567  10.195
62474SOL    HW289256   2.628   1.446  10.222
62475SOL     OW89257   7.938  13.667  13.125
62475SOL    HW189258   7.898  13.633  13.045
62475SOL    HW289259   7.972  13.589  13.170
62476SOL     OW89260   1.905  12.591  10.142
62476SOL    HW189261   1.993  12.556  10.159
62476SOL    HW289262   1.872  12.617  10.228
62477SOL     OW89263   2.110   1.532   0.837
62477SOL    HW189264   2.098   1.519   0.931
62477SOL    HW289265   2.035   1.585   0.811
62478SOL     OW89266   4.139   4.669   1.621
62478SOL    HW189267   4.177   4.746   1.578
62478SOL    HW289268   4.052   4.699   1.651
62479SOL     OW89269   6.752   9.220   7.104
62479SOL    HW189270   6.793   9.281   7.165
62479SOL    HW289271   6.775   9.133   7.139
62480SOL     OW89272   6.982   6.843   4.036
62480SOL    HW189273   7.059   6.896   4.015
62480SOL    HW289274   7.002   6.805   4.121
62481SOL     OW89275  12.486   6.158   7.461
62481SOL    HW189276  12.445   6.245   7.461
62481SOL    HW289277  12.531   6.153   7.376
62482SOL     OW89278   8.056   2.212  10.129
62482SOL    HW189279   8.080   2.287  10.183
62482SOL    HW289280   7.978   2.242  10.081
62483SOL     OW89281   2.393   1.495  12.884
62483SOL    HW189282   2.483   1.493  12.919
62483SOL    HW289283   2.389   1.420  12.825
62484SOL     OW89284   2.434   8.312   2.954
62484SOL    HW189285   2.462   8.248   3.019
62484SOL    HW289286   2.406   8.388   3.006
62485SOL     OW89287   6.940   2.813   0.219
62485SOL    HW189288   7.014   2.866   0.190
62485SOL    HW289289   6.971   2.722   0.208
62486SOL     OW89290   9.740   3.748   5.381
62486SOL    HW189291   9.733   3.836   5.420
62486SOL    HW289292   9.668   3.744   5.317
62487SOL     OW89293   6.795   7.516  14.377
62487SOL    HW189294   6.867   7.457  14.353
62487SOL    HW289295   6.716   7.472  14.344
62488SOL     OW89296   4.852   8.836   0.984
62488SOL    HW189297   4.897   8.752   0.981
62488SOL    HW289298   4.919   8.899   0.956
62489SOL     OW89299  10.974   1.285   5.386
62489SOL    HW189300  11.047   1.343   5.407
62489SOL    HW289301  10.899   1.323   5.431
62490SOL     OW89302   3.438  10.271   9.591
62490SOL    HW189303   3.501  10.342   9.578
62490SOL    HW289304   3.443  10.220   9.510
62491SOL     OW89305  13.653   3.029  10.337
62491SOL    HW189306  13.578   3.044  10.393
62491SOL    HW289307  13.616   2.996  10.255
62492SOL     OW89308  14.738  13.246   3.082
62492SOL    HW189309  14.724  13.162   3.126
62492SOL    HW289310  14.714  13.229   2.991
62493SOL     OW89311  12.179   6.131   8.201
62493SOL    HW189312  12.203   6.219   8.230
62493SOL    HW289313  12.261   6.084   8.196
62494SOL     OW89314   8.192   8.550   4.571
62494SOL    HW189315   8.224   8.638   4.554
62494SOL    HW289316   8.107   8.563   4.613
62495SOL     OW89317  10.633   8.114  13.355
62495SOL    HW189318  10.592   8.139  13.438
62495SOL    HW289319  10.561   8.082  13.301
62496SOL     OW89320   2.063   4.428  11.157
62496SOL    HW189321   2.138   4.393  11.204
62496SOL    HW289322   2.024   4.492  11.217
62497SOL     OW89323   7.924   5.506   6.143
62497SOL    HW189324   7.829   5.511   6.151
62497SOL    HW289325   7.955   5.592   6.169
62498SOL     OW89326  14.553   7.176   0.990
62498SOL    HW189327  14.485   7.111   1.007
62498SOL    HW289328  14.507   7.260   0.991
62499SOL     OW89329  14.829  10.014   6.861
62499SOL    HW189330  14.771  10.064   6.919
62499SOL    HW289331   0.001   9.959   6.921
62500SOL     OW89332   6.402   9.271  11.914
62500SOL    HW189333   6.333   9.323  11.872
62500SOL    HW289334   6.410   9.307  12.002
62501SOL     OW89335   8.732   0.748   3.861
62501SOL    HW189336   8.661   0.772   3.801
62501SOL    HW289337   8.787   0.688   3.810
62502SOL     OW89338  12.236  13.190   2.739
62502SOL    HW189339  12.269  13.130   2.673
62502SOL    HW289340  12.278  13.162   2.820
62503SOL     OW89341   8.378  13.062  11.100
62503SOL    HW189342   8.352  13.127  11.165
62503SOL    HW289343   8.436  13.110  11.041
62504SOL     OW89344   4.991   9.308   0.738
62504SOL    HW189345   4.925   9.376   0.753
62504SOL    HW289346   5.024   9.287   0.825
62505SOL     OW89347  12.455   9.263   9.020
62505SOL    HW189348  12.414   9.250   8.934
62505SOL    HW289349  12.427   9.351   9.046
62506SOL     OW89350  14.301   4.382   0.725
62506SOL    HW189351  14.363   4.446   0.759
62506SOL    HW289352  14.217   4.428   0.723
62507SOL     OW89353   8.234   9.099   3.125
62507SOL    HW189354   8.241   9.189   3.094
62507SOL    HW289355   8.228   9.046   3.046
62508SOL     OW89356   0.693  10.763  12.524
62508SOL    HW189357   0.627  10.720  12.579
62508SOL    HW289358   0.652  10.770  12.438
62509SOL     OW89359   9.555  10.370   5.374
62509SOL    HW189360   9.468  10.390   5.340
62509SOL    HW289361   9.544  10.287   5.421
62510SOL     OW89362   6.454   1.147   8.384
62510SOL    HW189363   6.380   1.127   8.442
62510SOL    HW289364   6.448   1.242   8.369
62511SOL     OW89365   6.143   0.949   9.124
62511SOL    HW189366   6.074   0.963   9.060
62511SOL    HW289367   6.187   0.869   9.096
62512SOL     OW89368  13.813   7.652   7.774
62512SOL    HW189369  13.731   7.647   7.822
62512SOL    HW289370  13.829   7.745   7.762
62513SOL     OW89371   0.475   2.902  10.761
62513SOL    HW189372   0.390   2.861  10.774
62513SOL    HW289373   0.462   2.962  10.688
62514SOL     OW89374   7.485   5.543   6.012
62514SOL    HW189375   7.545   5.529   6.085
62514SOL    HW289376   7.474   5.456   5.974
62515SOL     OW89377   3.982   8.540   6.095
62515SOL    HW189378   4.044   8.516   6.164
62515SOL    HW289379   3.961   8.458   6.051
62516SOL     OW89380   3.445  10.560   0.554
62516SOL    HW189381   3.419  10.468   0.549
62516SOL    HW289382   3.393  10.596   0.626
62517SOL     OW89383  13.415  11.311  10.417
62517SOL    HW189384  13.457  11.340  10.498
62517SOL    HW289385  13.435  11.218  10.411
62518SOL     OW89386   7.021   3.558   4.492
62518SOL    HW189387   6.983   3.603   4.567
62518SOL    HW289388   6.980   3.472   4.493
62519SOL     OW89389  10.047   1.656   8.293
62519SOL    HW189390  10.068   1.609   8.374
62519SOL    HW289391   9.963   1.697   8.310
62520SOL     OW89392   1.546  12.734  12.574
62520SOL    HW189393   1.570  12.708  12.485
62520SOL    HW289394   1.459  12.696  12.587
62521SOL     OW89395  12.054   9.906   0.172
62521SOL    HW189396  12.137   9.915   0.125
62521SOL    HW289397  12.000   9.852   0.114
62522SOL     OW89398   1.615   2.189   0.371
62522SOL    HW189399   1.706   2.211   0.352
62522SOL    HW289400   1.590   2.249   0.441
62523SOL     OW89401   4.510   9.585   8.016
62523SOL    HW189402   4.436   9.536   7.979
62523SOL    HW289403   4.571   9.518   8.045
62524SOL     OW89404   7.877   3.828  14.342
62524SOL    HW189405   7.833   3.744  14.359
62524SOL    HW289406   7.845   3.885  14.411
62525SOL     OW89407  13.856   1.760   1.043
62525SOL    HW189408  13.809   1.758   1.127
62525SOL    HW289409  13.790   1.738   0.978
62526SOL     OW89410  13.683  10.410   0.838
62526SOL    HW189411  13.763  10.401   0.890
62526SOL    HW289412  13.696  10.350   0.764
62527SOL     OW89413   1.451   2.339  13.652
62527SOL    HW189414   1.362   2.369  13.671
62527SOL    HW289415   1.463   2.358  13.559
62528SOL     OW89416   2.678   9.445  11.090
62528SOL    HW189417   2.594   9.442  11.044
62528SOL    HW289418   2.663   9.394  11.170
62529SOL     OW89419   3.079  10.387  11.508
62529SOL    HW189420   3.149  10.322  11.513
62529SOL    HW289421   3.123  10.471  11.518
62530SOL     OW89422  10.995   2.462  14.858
62530SOL    HW189423  11.018   2.423   0.064
62530SOL    HW289424  10.936   2.398  14.817
62531SOL     OW89425  11.482   8.282  13.847
62531SOL    HW189426  11.432   8.224  13.904
62531SOL    HW289427  11.423   8.355  13.829
62532SOL     OW89428   5.061  14.231  13.839
62532SOL    HW189429   4.971  14.229  13.807
62532SOL    HW289430   5.094  14.317  13.813
62533SOL     OW89431   0.293  11.183  11.032
62533SOL    HW189432   0.306  11.271  11.065
62533SOL    HW289433   0.250  11.195  10.947
62534SOL     OW89434  11.433   4.207   5.596
62534SOL    HW189435  11.436   4.294   5.555
62534SOL    HW289436  11.521   4.172   5.585
62535SOL     OW89437  13.175   4.546   2.735
62535SOL    HW189438  13.261   4.582   2.717
62535SOL    HW289439  13.167   4.545   2.830
62536SOL     OW89440  11.209  10.245   8.278
62536SOL    HW189441  11.300  10.222   8.299
62536SOL    HW289442  11.157  10.173   8.314
62537SOL     OW89443   6.056  10.233   6.676
62537SOL    HW189444   5.963  10.239   6.651
62537SOL    HW289445   6.084  10.325   6.684
62538SOL     OW89446   9.052   5.856   8.098
62538SOL    HW189447   9.084   5.853   8.187
62538SOL    HW289448   9.107   5.922   8.055
62539SOL     OW89449  11.450  10.685   9.548
62539SOL    HW189450  11.491  10.763   9.585
62539SOL    HW289451  11.359  10.690   9.578
62540SOL     OW89452  10.255   5.803  14.087
62540SOL    HW189453  10.350   5.804  14.070
62540SOL    HW289454  10.247   5.836  14.177
62541SOL     OW89455   8.325   5.202   7.138
62541SOL    HW189456   8.308   5.113   7.108
62541SOL    HW289457   8.280   5.259   7.076
62542SOL     OW89458  14.009   8.124  11.839
62542SOL    HW189459  14.082   8.175  11.873
62542SOL    HW289460  14.045   8.077  11.764
62543SOL     OW89461   2.123   1.579  13.774
62543SOL    HW189462   2.027   1.575  13.775
62543SOL    HW289463   2.145   1.612  13.687
62544SOL     OW89464   7.259   7.283  13.332
62544SOL    HW189465   7.196   7.246  13.270
62544SOL    HW289466   7.205   7.320  13.402
62545SOL     OW89467   2.907   2.269   2.764
62545SOL    HW189468   2.872   2.251   2.851
62545SOL    HW289469   2.858   2.345   2.733
62546SOL     OW89470  14.245   1.476  14.474
62546SOL    HW189471  14.291   1.555  14.445
62546SOL    HW289472  14.174   1.466  14.411
62547SOL     OW89473   3.199  14.062   8.105
62547SOL    HW189474   3.111  14.099   8.105
62547SOL    HW289475   3.257  14.137   8.100
62548SOL     OW89476  13.317   3.822   9.417
62548SOL    HW189477  13.366   3.844   9.496
62548SOL    HW289478  13.225   3.828   9.444
62549SOL     OW89479   1.252   9.463  12.386
62549SOL    HW189480   1.313   9.536  12.393
62549SOL    HW289481   1.298   9.389  12.426
62550SOL     OW89482   2.974   5.716  14.122
62550SOL    HW189483   3.035   5.670  14.063
62550SOL    HW289484   2.888   5.691  14.090
62551SOL     OW89485   9.432  10.716  12.928
62551SOL    HW189486   9.434  10.664  13.008
62551SOL    HW289487   9.524  10.723  12.901
62552SOL     OW89488   6.246   3.576   7.962
62552SOL    HW189489   6.325   3.522   7.959
62552SOL    HW289490   6.262   3.636   8.035
62553SOL     OW89491   5.611  13.390   5.379
62553SOL    HW189492   5.530  13.340   5.386
62553SOL    HW289493   5.596  13.468   5.434
62554SOL     OW89494   4.150  10.751   0.374
62554SOL    HW189495   4.182  10.685   0.437
62554SOL    HW289496   4.055  10.745   0.380
62555SOL     OW89497   0.140   1.011  13.770
62555SOL    HW189498   0.213   1.000  13.710
62555SOL    HW289499   0.179   1.050  13.848
62556SOL     OW89500   1.006  13.120   0.093
62556SOL    HW189501   0.962  13.058   0.150
62556SOL    HW289502   0.954  13.121   0.013
62557SOL     OW89503   8.681   9.484  13.135
62557SOL    HW189504   8.617   9.483  13.064
62557SOL    HW289505   8.628   9.483  13.215
62558SOL     OW89506  10.713  14.470   0.120
62558SOL    HW189507  10.634  14.524   0.117
62558SOL    HW289508  10.681  14.380   0.121
62559SOL     OW89509   0.817  11.005  12.555
62559SOL    HW189510   0.759  11.067  12.600
62559SOL    HW289511   0.769  10.923  12.556
62560SOL     OW89512   6.664  11.222   7.449
62560SOL    HW189513   6.697  11.154   7.390
62560SOL    HW289514   6.569  11.206   7.453
62561SOL     OW89515  11.538   4.487  14.677
62561SOL    HW189516  11.501   4.400  14.663
62561SOL    HW289517  11.506   4.513  14.763
62562SOL     OW89518  14.471   8.271   9.314
62562SOL    HW189519  14.541   8.319   9.269
62562SOL    HW289520  14.494   8.276   9.406
62563SOL     OW89521   2.823   9.014  11.665
62563SOL    HW189522   2.822   8.963  11.746
62563SOL    HW289523   2.730   9.027  11.644
62564SOL     OW89524   0.593  12.961   6.411
62564SOL    HW189525   0.621  13.052   6.419
62564SOL    HW289526   0.630  12.932   6.328
62565SOL     OW89527  10.903  13.770  12.455
62565SOL    HW189528  10.848  13.703  12.414
62565SOL    HW289529  10.849  13.803  12.527
62566SOL     OW89530   2.632  10.676   0.658
62566SOL    HW189531   2.621  10.631   0.742
62566SOL    HW289532   2.727  10.675   0.643
62567SOL     OW89533   2.624   0.364   1.152
62567SOL    HW189534   2.586   0.332   1.234
62567SOL    HW289535   2.548   0.379   1.095
62568SOL     OW89536  13.081   8.140   6.495
62568SOL    HW189537  13.135   8.156   6.572
62568SOL    HW289538  12.991   8.150   6.527
62569SOL     OW89539   2.788   3.071   2.317
62569SOL    HW189540   2.719   3.008   2.338
62569SOL    HW289541   2.746   3.135   2.259
62570SOL     OW89542  11.534   0.217   8.775
62570SOL    HW189543  11.512   0.210   8.682
62570SOL    HW289544  11.625   0.245   8.776
62571SOL     OW89545   6.483   8.355   8.430
62571SOL    HW189546   6.416   8.387   8.491
62571SOL    HW289547   6.485   8.420   8.360
62572SOL     OW89548  12.301   5.119   6.262
62572SOL    HW189549  12.309   5.032   6.222
62572SOL    HW289550  12.391   5.143   6.283
62573SOL     OW89551   4.568   3.920   2.611
62573SOL    HW189552   4.475   3.937   2.630
62573SOL    HW289553   4.567   3.874   2.527
62574SOL     OW89554   6.938   5.736   6.701
62574SOL    HW189555   6.921   5.694   6.785
62574SOL    HW289556   7.007   5.800   6.719
62575SOL     OW89557   4.794   0.876   9.339
62575SOL    HW189558   4.730   0.813   9.373
62575SOL    HW289559   4.742   0.934   9.282
62576SOL     OW89560   3.208  12.798  11.048
62576SOL    HW189561   3.226  12.717  11.097
62576SOL    HW289562   3.116  12.818  11.067
62577SOL     OW89563   1.358  12.530   7.904
62577SOL    HW189564   1.357  12.470   7.829
62577SOL    HW289565   1.385  12.614   7.866
62578SOL     OW89566   4.845  12.105  14.763
62578SOL    HW189567   4.800  12.143  14.838
62578SOL    HW289568   4.804  12.146  14.687
62579SOL     OW89569   9.421   3.569   4.530
62579SOL    HW189570   9.486   3.498   4.523
62579SOL    HW289571   9.375   3.567   4.446
62580SOL     OW89572  12.017   1.373   3.102
62580SOL    HW189573  11.955   1.399   3.034
62580SOL    HW289574  12.005   1.278   3.110
62581SOL     OW89575   0.991   2.709   9.454
62581SOL    HW189576   1.063   2.648   9.469
62581SOL    HW289577   1.000   2.735   9.363
62582SOL     OW89578   4.562  11.442   1.983
62582SOL    HW189579   4.585  11.514   1.925
62582SOL    HW289580   4.632  11.378   1.973
62583SOL     OW89581   3.851  10.776  11.222
62583SOL    HW189582   3.891  10.703  11.268
62583SOL    HW289583   3.876  10.765  11.131
62584SOL     OW89584  11.058  10.312   3.125
62584SOL    HW189585  11.002  10.242   3.159
62584SOL    HW289586  11.145  10.273   3.119
62585SOL     OW89587   5.471  14.771   0.503
62585SOL    HW189588   5.544  14.815   0.459
62585SOL    HW289589   5.393  14.807   0.462
62586SOL     OW89590   5.471   1.851   0.508
62586SOL    HW189591   5.393   1.867   0.455
62586SOL    HW289592   5.477   1.756   0.513
62587SOL     OW89593   2.514   1.698   4.680
62587SOL    HW189594   2.601   1.678   4.715
62587SOL    HW289595   2.477   1.612   4.658
62588SOL     OW89596  10.599   6.654   0.330
62588SOL    HW189597  10.680   6.644   0.380
62588SOL    HW289598  10.546   6.714   0.383
62589SOL     OW89599   1.840  14.197   0.690
62589SOL    HW189600   1.766  14.258   0.680
62589SOL    HW289601   1.839  14.175   0.783
62590SOL     OW89602   3.249  10.940   7.074
62590SOL    HW189603   3.320  11.002   7.087
62590SOL    HW289604   3.289  10.854   7.086
62591SOL     OW89605   4.676  10.830  12.296
62591SOL    HW189606   4.696  10.851  12.205
62591SOL    HW289607   4.750  10.776  12.325
62592SOL     OW89608   0.554   3.298   0.415
62592SOL    HW189609   0.539   3.285   0.509
62592SOL    HW289610   0.466   3.301   0.377
62593SOL     OW89611   2.506   7.651   4.960
62593SOL    HW189612   2.489   7.696   4.877
62593SOL    HW289613   2.570   7.583   4.938
62594SOL     OW89614   4.922  11.719   6.410
62594SOL    HW189615   4.850  11.756   6.360
62594SOL    HW289616   4.898  11.627   6.422
62595SOL     OW89617   6.175   6.048   3.129
62595SOL    HW189618   6.152   6.063   3.220
62595SOL    HW289619   6.234   5.972   3.130
62596SOL     OW89620   8.679   6.045   6.414
62596SOL    HW189621   8.675   6.088   6.328
62596SOL    HW289622   8.622   6.098   6.470
62597SOL     OW89623   1.449  14.016   8.656
62597SOL    HW189624   1.489  14.092   8.699
62597SOL    HW289625   1.523  13.962   8.628
62598SOL     OW89626   3.464   3.873  12.233
62598SOL    HW189627   3.443   3.955  12.189
62598SOL    HW289628   3.517   3.899  12.308
62599SOL     OW89629   2.530  11.552  13.328
62599SOL    HW189630   2.604  11.584  13.278
62599SOL    HW289631   2.567  11.487  13.388
62600SOL     OW89632   0.296   7.020   2.710
62600SOL    HW189633   0.202   7.038   2.717
62600SOL    HW289634   0.320   6.982   2.794
62601SOL     OW89635   6.734  12.718  14.265
62601SOL    HW189636   6.725  12.813  14.267
62601SOL    HW289637   6.783  12.700  14.184
62602SOL     OW89638   8.994  13.192   5.394
62602SOL    HW189639   8.968  13.227   5.479
62602SOL    HW289640   9.073  13.141   5.413
62603SOL     OW89641   8.853  10.939  14.251
62603SOL    HW189642   8.850  10.902  14.339
62603SOL    HW289643   8.781  10.895  14.205
62604SOL     OW89644  14.033   0.341   8.924
62604SOL    HW189645  13.996   0.361   9.010
62604SOL    HW289646  13.975   0.275   8.888
62605SOL     OW89647   8.414  12.854   3.500
62605SOL    HW189648   8.394  12.762   3.518
62605SOL    HW289649   8.339  12.902   3.535
62606SOL     OW89650  11.307   0.219   6.345
62606SOL    HW189651  11.328   0.220   6.251
62606SOL    HW289652  11.265   0.304   6.360
62607SOL     OW89653   4.871   4.527   8.107
62607SOL    HW189654   4.935   4.468   8.148
62607SOL    HW289655   4.911   4.614   8.114
62608SOL     OW89656  14.260   6.037   4.949
62608SOL    HW189657  14.173   6.076   4.945
62608SOL    HW289658  14.261   5.988   5.031
62609SOL     OW89659  14.376  13.453  14.756
62609SOL    HW189660  14.424  13.493  14.829
62609SOL    HW289661  14.440  13.396  14.713
62610SOL     OW89662   6.417   6.257   0.074
62610SOL    HW189663   6.498   6.206   0.081
62610SOL    HW289664   6.367   6.233   0.151
62611SOL     OW89665   0.554   2.493   4.078
62611SOL    HW189666   0.632   2.538   4.046
62611SOL    HW289667   0.482   2.554   4.061
62612SOL     OW89668   8.438  14.516   5.059
62612SOL    HW189669   8.363  14.516   5.000
62612SOL    HW289670   8.399  14.511   5.147
62613SOL     OW89671  12.918  14.239   9.778
62613SOL    HW189672  13.004  14.263   9.812
62613SOL    HW289673  12.866  14.319   9.787
62614SOL     OW89674   6.533   4.936   0.174
62614SOL    HW189675   6.524   4.843   0.152
62614SOL    HW289676   6.539   4.980   0.089
62615SOL     OW89677  12.279   3.355   7.970
62615SOL    HW189678  12.293   3.324   8.060
62615SOL    HW289679  12.184   3.362   7.962
62616SOL     OW89680   2.846   8.295   9.948
62616SOL    HW189681   2.771   8.346   9.918
62616SOL    HW289682   2.839   8.212   9.902
62617SOL     OW89683   3.548  12.644   4.477
62617SOL    HW189684   3.470  12.617   4.429
62617SOL    HW289685   3.540  12.601   4.563
62618SOL     OW89686   8.963   9.319  14.393
62618SOL    HW189687   8.980   9.388  14.457
62618SOL    HW289688   8.895   9.356  14.335
62619SOL     OW89689   5.271   4.529  14.162
62619SOL    HW189690   5.275   4.515  14.256
62619SOL    HW289691   5.280   4.442  14.124
62620SOL     OW89692  14.456   2.419   0.311
62620SOL    HW189693  14.367   2.421   0.345
62620SOL    HW289694  14.446   2.427   0.216
62621SOL     OW89695   2.277   0.071  11.387
62621SOL    HW189696   2.325   0.116  11.457
62621SOL    HW289697   2.200   0.126  11.372
62622SOL     OW89698   7.913   9.930   2.909
62622SOL    HW189699   7.979   9.993   2.937
62622SOL    HW289700   7.962   9.851   2.888
62623SOL     OW89701   6.316  14.097   6.611
62623SOL    HW189702   6.304  14.061   6.699
62623SOL    HW289703   6.229  14.093   6.571
62624SOL     OW89704   5.674   7.379   8.415
62624SOL    HW189705   5.646   7.298   8.371
62624SOL    HW289706   5.680   7.355   8.507
62625SOL     OW89707   5.927   3.682   3.885
62625SOL    HW189708   6.019   3.682   3.912
62625SOL    HW289709   5.924   3.742   3.810
62626SOL     OW89710   1.658   0.822   0.059
62626SOL    HW189711   1.569   0.823   0.022
62626SOL    HW289712   1.667   0.735   0.097
62627SOL     OW89713   4.271   0.082   8.030
62627SOL    HW189714   4.323   0.153   7.994
62627SOL    HW289715   4.266   0.017   7.959
62628SOL     OW89716   1.485   8.550   9.279
62628SOL    HW189717   1.424   8.586   9.344
62628SOL    HW289718   1.541   8.624   9.255
62629SOL     OW89719   4.313   5.821   0.628
62629SOL    HW189720   4.376   5.772   0.682
62629SOL    HW289721   4.300   5.765   0.552
62630SOL     OW89722  11.192   8.673   5.316
62630SOL    HW189723  11.129   8.631   5.258
62630SOL    HW289724  11.274   8.629   5.299
62631SOL     OW89725  13.694   3.717   5.726
62631SOL    HW189726  13.692   3.781   5.655
62631SOL    HW289727  13.700   3.770   5.806
62632SOL     OW89728   7.399   2.913  12.908
62632SOL    HW189729   7.471   2.970  12.881
62632SOL    HW289730   7.320   2.960  12.880
62633SOL     OW89731   8.769  14.751  14.581
62633SOL    HW189732   8.707  14.823  14.592
62633SOL    HW289733   8.715  14.678  14.551
62634SOL     OW89734   8.157   9.913   1.185
62634SOL    HW189735   8.068   9.919   1.221
62634SOL    HW289736   8.168   9.994   1.135
62635SOL     OW89737  11.438   8.194   9.415
62635SOL    HW189738  11.526   8.162   9.436
62635SOL    HW289739  11.394   8.119   9.375
62636SOL     OW89740   1.245   6.257   2.772
62636SOL    HW189741   1.299   6.265   2.851
62636SOL    HW289742   1.172   6.317   2.786
62637SOL     OW89743   6.132   5.549   8.311
62637SOL    HW189744   6.086   5.622   8.353
62637SOL    HW289745   6.129   5.570   8.218
62638SOL     OW89746  14.042   4.739   6.775
62638SOL    HW189747  14.051   4.649   6.743
62638SOL    HW289748  13.994   4.730   6.858
62639SOL     OW89749   4.850  10.122   4.062
62639SOL    HW189750   4.827  10.029   4.061
62639SOL    HW289751   4.767  10.167   4.077
62640SOL     OW89752  12.853   8.312   8.428
62640SOL    HW189753  12.761   8.309   8.455
62640SOL    HW289754  12.881   8.220   8.431
62641SOL     OW89755   5.285   2.059   7.221
62641SOL    HW189756   5.224   1.987   7.204
62641SOL    HW289757   5.308   2.050   7.313
62642SOL     OW89758   6.441   6.490   8.290
62642SOL    HW189759   6.408   6.578   8.311
62642SOL    HW289760   6.518   6.506   8.236
62643SOL     OW89761  11.022   6.491   7.016
62643SOL    HW189762  10.927   6.503   7.026
62643SOL    HW289763  11.032   6.397   6.998
62644SOL     OW89764   1.864   0.500   5.810
62644SOL    HW189765   1.804   0.573   5.797
62644SOL    HW289766   1.812   0.436   5.860
62645SOL     OW89767   6.466   0.926   3.702
62645SOL    HW189768   6.390   0.941   3.758
62645SOL    HW289769   6.431   0.929   3.613
62646SOL     OW89770   2.710   6.240   4.764
62646SOL    HW189771   2.672   6.311   4.713
62646SOL    HW289772   2.718   6.168   4.701
62647SOL     OW89773   1.562   1.025   6.359
62647SOL    HW189774   1.530   1.097   6.304
62647SOL    HW289775   1.490   0.962   6.361
62648SOL     OW89776   1.214  12.957   0.142
62648SOL    HW189777   1.287  13.015   0.163
62648SOL    HW289778   1.160  13.008   0.081
62649SOL     OW89779   1.439   5.961   1.747
62649SOL    HW189780   1.465   5.869   1.751
62649SOL    HW289781   1.517   6.009   1.774
62650SOL     OW89782   9.467   9.686  10.710
62650SOL    HW189783   9.417   9.651  10.783
62650SOL    HW289784   9.475   9.612  10.650
62651SOL     OW89785   0.269   7.963   3.315
62651SOL    HW189786   0.345   7.906   3.309
62651SOL    HW289787   0.244   7.960   3.407
62652SOL     OW89788   3.576   6.333   6.253
62652SOL    HW189789   3.499   6.380   6.286
62652SOL    HW289790   3.598   6.271   6.323
62653SOL     OW89791  10.151   9.895   8.604
62653SOL    HW189792  10.067   9.852   8.619
62653SOL    HW289793  10.200   9.834   8.551
62654SOL     OW89794  10.655   9.357  11.590
62654SOL    HW189795  10.711   9.430  11.620
62654SOL    HW289796  10.714   9.302  11.539
62655SOL     OW89797   0.562  13.548  10.773
62655SOL    HW189798   0.519  13.629  10.746
62655SOL    HW289799   0.530  13.533  10.862
62656SOL     OW89800   8.019   2.918   0.692
62656SOL    HW189801   7.930   2.951   0.676
62656SOL    HW289802   8.031   2.848   0.627
62657SOL     OW89803   3.818   1.666  12.640
62657SOL    HW189804   3.877   1.626  12.576
62657SOL    HW289805   3.876   1.693  12.711
62658SOL     OW89806   0.749  11.089   8.238
62658SOL    HW189807   0.787  11.160   8.186
62658SOL    HW289808   0.663  11.121   8.263
62659SOL     OW89809   6.463   8.245  11.657
62659SOL    HW189810   6.450   8.326  11.707
62659SOL    HW289811   6.476   8.178  11.724
62660SOL     OW89812  10.933   8.151   3.165
62660SOL    HW189813  10.998   8.082   3.176
62660SOL    HW289814  10.932   8.197   3.249
62661SOL     OW89815   2.268   2.942   4.652
62661SOL    HW189816   2.237   3.022   4.694
62661SOL    HW289817   2.221   2.938   4.569
62662SOL     OW89818   2.478   0.115   8.407
62662SOL    HW189819   2.488   0.207   8.383
62662SOL    HW289820   2.466   0.117   8.502
62663SOL     OW89821  12.182   2.586   3.256
62663SOL    HW189822  12.149   2.661   3.206
62663SOL    HW289823  12.273   2.606   3.274
62664SOL     OW89824   9.397   5.079   4.685
62664SOL    HW189825   9.366   5.169   4.673
62664SOL    HW289826   9.429   5.077   4.776
62665SOL     OW89827   2.835   9.964   2.511
62665SOL    HW189828   2.799   9.878   2.490
62665SOL    HW289829   2.887   9.988   2.434
62666SOL     OW89830  12.182   8.144   8.734
62666SOL    HW189831  12.273   8.174   8.731
62666SOL    HW289832  12.131   8.223   8.751
62667SOL     OW89833   6.448   4.413   0.663
62667SOL    HW189834   6.423   4.321   0.661
62667SOL    HW289835   6.395   4.451   0.734
62668SOL     OW89836   0.854   9.299  14.291
62668SOL    HW189837   0.774   9.344  14.263
62668SOL    HW289838   0.869   9.233  14.224
62669SOL     OW89839   8.749   6.178   7.194
62669SOL    HW189840   8.672   6.176   7.137
62669SOL    HW289841   8.715   6.151   7.280
62670SOL     OW89842  12.756   0.066  10.602
62670SOL    HW189843  12.700   0.056  10.679
62670SOL    HW289844  12.774  14.856  10.574
62671SOL     OW89845   9.130   4.873   0.350
62671SOL    HW189846   9.058   4.887   0.411
62671SOL    HW289847   9.152   4.960   0.316
62672SOL     OW89848   7.803   2.091   6.724
62672SOL    HW189849   7.851   2.015   6.693
62672SOL    HW289850   7.711   2.068   6.712
62673SOL     OW89851   7.575  12.757   6.211
62673SOL    HW189852   7.624  12.675   6.217
62673SOL    HW289853   7.485  12.733   6.230
62674SOL     OW89854   9.833  11.472   4.978
62674SOL    HW189855   9.779  11.453   4.902
62674SOL    HW289856   9.870  11.559   4.960
62675SOL     OW89857   0.619   9.308   5.464
62675SOL    HW189858   0.647   9.295   5.373
62675SOL    HW289859   0.670   9.383   5.494
62676SOL     OW89860   3.208  12.570   8.383
62676SOL    HW189861   3.193  12.585   8.476
62676SOL    HW289862   3.254  12.648   8.353
62677SOL     OW89863  10.499   9.649  13.119
62677SOL    HW189864  10.544   9.572  13.154
62677SOL    HW289865  10.408   9.639  13.148
62678SOL     OW89866   2.628   9.033  14.459
62678SOL    HW189867   2.536   9.014  14.446
62678SOL    HW289868   2.636   9.054  14.552
62679SOL     OW89869  14.017   1.623   0.647
62679SOL    HW189870  14.111   1.622   0.667
62679SOL    HW289871  14.013   1.633   0.552
62680SOL     OW89872   0.212  14.029   4.177
62680SOL    HW189873   0.172  13.968   4.239
62680SOL    HW289874   0.306  14.023   4.196
62681SOL     OW89875   1.344   9.552  14.174
62681SOL    HW189876   1.286   9.502  14.231
62681SOL    HW289877   1.345   9.640  14.212
62682SOL     OW89878  11.212   0.985   5.854
62682SOL    HW189879  11.221   1.080   5.855
62682SOL    HW289880  11.272   0.956   5.785
62683SOL     OW89881  14.381  10.825   9.968
62683SOL    HW189882  14.289  10.800   9.963
62683SOL    HW289883  14.390  10.897   9.905
62684SOL     OW89884   4.894   7.962   2.794
62684SOL    HW189885   4.890   8.041   2.742
62684SOL    HW289886   4.953   7.904   2.747
62685SOL     OW89887  10.241   7.290  14.192
62685SOL    HW189888  10.237   7.287  14.288
62685SOL    HW289889  10.330   7.321  14.173
62686SOL     OW89890   9.735  11.347   8.759
62686SOL    HW189891   9.811  11.300   8.724
62686SOL    HW289892   9.662  11.320   8.703
62687SOL     OW89893  13.570  10.673  13.307
62687SOL    HW189894  13.570  10.768  13.296
62687SOL    HW289895  13.519  10.640  13.233
62688SOL     OW89896   3.876   1.181  13.640
62688SOL    HW189897   3.954   1.175  13.696
62688SOL    HW289898   3.910   1.174  13.551
62689SOL     OW89899  14.699   7.922   4.177
62689SOL    HW189900  14.731   7.859   4.113
62689SOL    HW289901  14.619   7.883   4.212
62690SOL     OW89902  14.633   1.043   0.829
62690SOL    HW189903  14.544   1.012   0.816
62690SOL    HW289904  14.688   0.969   0.804
62691SOL     OW89905  14.284   5.896  11.208
62691SOL    HW189906  14.355   5.866  11.151
62691SOL    HW289907  14.279   5.830  11.277
62692SOL     OW89908   7.859   9.946   3.536
62692SOL    HW189909   7.941   9.939   3.487
62692SOL    HW289910   7.817   9.861   3.525
62693SOL     OW89911  12.623   2.566   3.850
62693SOL    HW189912  12.528   2.570   3.843
62693SOL    HW289913  12.642   2.474   3.868
62694SOL     OW89914   6.697   7.605   5.113
62694SOL    HW189915   6.787   7.602   5.145
62694SOL    HW289916   6.705   7.619   5.019
62695SOL     OW89917   2.006  13.581  12.234
62695SOL    HW189918   2.030  13.580  12.327
62695SOL    HW289919   1.941  13.652  12.227
62696SOL     OW89920   2.160   5.294  14.144
62696SOL    HW189921   2.163   5.203  14.176
62696SOL    HW289922   2.066   5.313  14.138
62697SOL     OW89923   2.704  11.547   5.340
62697SOL    HW189924   2.630  11.495   5.372
62697SOL    HW289925   2.709  11.526   5.246
62698SOL     OW89926  11.655   8.495  10.435
62698SOL    HW189927  11.622   8.462  10.518
62698SOL    HW289928  11.662   8.417  10.379
62699SOL     OW89929   2.015   5.098   2.785
62699SOL    HW189930   2.028   5.167   2.849
62699SOL    HW289931   1.942   5.128   2.731
62700SOL     OW89932  14.349  10.258  14.480
62700SOL    HW189933  14.407  10.325  14.515
62700SOL    HW289934  14.361  10.182  14.537
62701SOL     OW89935   4.945   2.956   3.063
62701SOL    HW189936   4.958   3.039   3.016
62701SOL    HW289937   4.950   2.979   3.155
62702SOL     OW89938  11.384  12.394  14.857
62702SOL    HW189939  11.464  12.447  14.858
62702SOL    HW289940  11.370  12.374  14.764
62703SOL     OW89941   3.581   5.072   3.532
62703SOL    HW189942   3.667   5.032   3.540
62703SOL    HW289943   3.568   5.119   3.615
62704SOL     OW89944  12.210   9.229   9.260
62704SOL    HW189945  12.171   9.239   9.173
62704SOL    HW289946  12.195   9.137   9.282
62705SOL     OW89947   8.204  12.747   1.136
62705SOL    HW189948   8.190  12.711   1.224
62705SOL    HW289949   8.227  12.672   1.082
62706SOL     OW89950   4.178   4.094   5.322
62706SOL    HW189951   4.221   4.068   5.240
62706SOL    HW289952   4.190   4.189   5.326
62707SOL     OW89953  10.618  13.687  14.413
62707SOL    HW189954  10.659  13.758  14.463
62707SOL    HW289955  10.524  13.700  14.425
62708SOL     OW89956   6.721  13.814  13.426
62708SOL    HW189957   6.742  13.905  13.402
62708SOL    HW289958   6.730  13.813  13.521
62709SOL     OW89959  10.574   2.275   3.196
62709SOL    HW189960  10.608   2.186   3.185
62709SOL    HW289961  10.606   2.302   3.282
62710SOL     OW89962  10.073  13.411  11.873
62710SOL    HW189963  10.050  13.435  11.963
62710SOL    HW289964  10.167  13.393  11.876
62711SOL     OW89965   6.178   1.475  10.135
62711SOL    HW189966   6.152   1.568  10.135
62711SOL    HW289967   6.111   1.432  10.081
62712SOL     OW89968  14.046  12.032  14.801
62712SOL    HW189969  14.066  12.084  14.723
62712SOL    HW289970  13.973  12.078  14.843
62713SOL     OW89971   7.386   9.427  13.391
62713SOL    HW189972   7.443   9.382  13.329
62713SOL    HW289973   7.304   9.379  13.388
62714SOL     OW89974   0.388   2.971   8.751
62714SOL    HW189975   0.438   2.983   8.831
62714SOL    HW289976   0.451   2.989   8.680
62715SOL     OW89977  10.883   6.741  14.806
62715SOL    HW189978  10.850   6.786  14.729
62715SOL    HW289979  10.814   6.679  14.829
62716SOL     OW89980  14.767  10.285   8.747
62716SOL    HW189981  14.794  10.365   8.793
62716SOL    HW289982  14.755  10.313   8.656
62717SOL     OW89983   7.688   9.485   6.698
62717SOL    HW189984   7.722   9.518   6.614
62717SOL    HW289985   7.754   9.422   6.727
62718SOL     OW89986   6.751   9.481   8.446
62718SOL    HW189987   6.707   9.550   8.496
62718SOL    HW289988   6.793   9.427   8.513
62719SOL     OW89989  11.529  14.128   4.287
62719SOL    HW189990  11.444  14.171   4.299
62719SOL    HW289991  11.559  14.160   4.202
62720SOL     OW89992   2.788  10.553   4.588
62720SOL    HW189993   2.804  10.459   4.581
62720SOL    HW289994   2.747  10.576   4.505
62721SOL     OW89995   3.804  10.568   4.641
62721SOL    HW189996   3.887  10.540   4.602
62721SOL    HW289997   3.776  10.494   4.695
62722SOL     OW89998   8.690   2.485   6.835
62722SOL    HW189999   8.645   2.552   6.785
62722SOL    HW290000   8.777   2.480   6.795
62723SOL     OW90001   7.864  14.832  10.071
62723SOL    HW190002   7.951  14.870  10.083
62723SOL    HW290003   7.804   0.021  10.100
62724SOL     OW90004   7.092   1.040   0.494
62724SOL    HW190005   7.139   1.004   0.569
62724SOL    HW290006   7.123   0.988   0.419
62725SOL     OW90007   0.763  12.579  13.259
62725SOL    HW190008   0.714  12.620  13.188
62725SOL    HW290009   0.757  12.485  13.242
62726SOL     OW90010   2.564   9.786   6.471
62726SOL    HW190011   2.473   9.794   6.499
62726SOL    HW290012   2.584   9.693   6.483
62727SOL     OW90013   1.199  11.163   1.499
62727SOL    HW190014   1.167  11.253   1.491
62727SOL    HW290015   1.256  11.164   1.576
62728SOL     OW90016   8.487  10.023   6.900
62728SOL    HW190017   8.456   9.968   6.828
62728SOL    HW290018   8.451  10.110   6.879
62729SOL     OW90019  14.556   9.503   7.281
62729SOL    HW190020  14.461   9.496   7.278
62729SOL    HW290021  14.587   9.415   7.302
62730SOL     OW90022   2.144   3.904   3.470
62730SOL    HW190023   2.219   3.865   3.516
62730SOL    HW290024   2.179   3.986   3.435
62731SOL     OW90025  10.471   4.397   8.149
62731SOL    HW190026  10.565   4.398   8.131
62731SOL    HW290027  10.444   4.308   8.130
62732SOL     OW90028   8.144  10.099  13.496
62732SOL    HW190029   8.114  10.009  13.489
62732SOL    HW290030   8.135  10.120  13.589
62733SOL     OW90031  11.972   4.237  11.629
62733SOL    HW190032  11.921   4.312  11.599
62733SOL    HW290033  11.907   4.169  11.644
62734SOL     OW90034   6.676   3.763   2.990
62734SOL    HW190035   6.646   3.685   2.943
62734SOL    HW290036   6.765   3.777   2.960
62735SOL     OW90037   0.085   9.302   0.377
62735SOL    HW190038  14.876   9.266   0.388
62735SOL    HW290039   0.142   9.226   0.373
62736SOL     OW90040  12.691   0.840   8.357
62736SOL    HW190041  12.609   0.793   8.373
62736SOL    HW290042  12.704   0.833   8.262
62737SOL     OW90043   6.002  10.470   4.765
62737SOL    HW190044   6.015  10.465   4.859
62737SOL    HW290045   6.091  10.472   4.728
62738SOL     OW90046   1.524  14.558   7.936
62738SOL    HW190047   1.524  14.609   8.017
62738SOL    HW290048   1.478  14.613   7.873
62739SOL     OW90049   0.715   5.939  10.497
62739SOL    HW190050   0.731   5.916  10.406
62739SOL    HW290051   0.778   6.009  10.516
62740SOL     OW90052  14.516  14.002   2.457
62740SOL    HW190053  14.585  14.035   2.515
62740SOL    HW290054  14.564  13.957   2.387
62741SOL     OW90055   8.863   4.625   7.656
62741SOL    HW190056   8.784   4.671   7.683
62741SOL    HW290057   8.923   4.694   7.629
62742SOL     OW90058   2.209   4.797   3.085
62742SOL    HW190059   2.211   4.813   2.991
62742SOL    HW290060   2.285   4.741   3.101
62743SOL     OW90061   9.205   1.163   3.774
62743SOL    HW190062   9.200   1.100   3.703
62743SOL    HW290063   9.168   1.117   3.850
62744SOL     OW90064  12.572  11.704   7.954
62744SOL    HW190065  12.553  11.622   7.999
62744SOL    HW290066  12.487  11.749   7.951
62745SOL     OW90067   3.231   3.027   0.824
62745SOL    HW190068   3.271   2.947   0.858
62745SOL    HW290069   3.137   3.013   0.836
62746SOL     OW90070   3.218  13.130  12.032
62746SOL    HW190071   3.217  13.225  12.042
62746SOL    HW290072   3.246  13.117  11.941
62747SOL     OW90073   8.117  12.681   4.688
62747SOL    HW190074   8.152  12.760   4.728
62747SOL    HW290075   8.076  12.712   4.607
62748SOL     OW90076   3.044   7.066   3.107
62748SOL    HW190077   3.013   6.995   3.050
62748SOL    HW290078   2.980   7.136   3.094
62749SOL     OW90079   7.697   0.143  10.139
62749SOL    HW190080   7.604   0.135  10.160
62749SOL    HW290081   7.709   0.235  10.116
62750SOL     OW90082   3.272  10.692   6.091
62750SOL    HW190083   3.224  10.674   6.010
62750SOL    HW290084   3.240  10.627   6.153
62751SOL     OW90085   9.029   5.555   5.380
62751SOL    HW190086   9.002   5.464   5.367
62751SOL    HW290087   9.031   5.592   5.292
62752SOL     OW90088  11.946   0.795  12.519
62752SOL    HW190089  11.992   0.766  12.440
62752SOL    HW290090  11.867   0.837  12.487
62753SOL     OW90091   4.414  12.520   5.536
62753SOL    HW190092   4.461  12.594   5.497
62753SOL    HW290093   4.405  12.456   5.466
62754SOL     OW90094   3.124  13.913   7.815
62754SOL    HW190095   3.090  13.879   7.898
62754SOL    HW290096   3.049  13.910   7.756
62755SOL     OW90097  14.041  12.624   8.985
62755SOL    HW190098  14.091  12.661   9.058
62755SOL    HW290099  14.002  12.700   8.942
62756SOL     OW90100  10.296   5.227   4.014
62756SOL    HW190101  10.388   5.244   3.992
62756SOL    HW290102  10.280   5.139   3.981
62757SOL     OW90103  10.729   5.938   5.154
62757SOL    HW190104  10.731   5.867   5.218
62757SOL    HW290105  10.816   5.937   5.115
62758SOL     OW90106  13.454  11.788   7.934
62758SOL    HW190107  13.503  11.771   8.014
62758SOL    HW290108  13.362  11.773   7.958
62759SOL     OW90109  12.769   5.552   3.280
62759SOL    HW190110  12.837   5.562   3.213
62759SOL    HW290111  12.751   5.642   3.309
62760SOL     OW90112  10.481   0.433   4.379
62760SOL    HW190113  10.546   0.481   4.431
62760SOL    HW290114  10.451   0.363   4.438
62761SOL     OW90115  11.592  14.259   7.676
62761SOL    HW190116  11.666  14.248   7.615
62761SOL    HW290117  11.625  14.319   7.743
62762SOL     OW90118   8.333  13.119  12.113
62762SOL    HW190119   8.270  13.085  12.049
62762SOL    HW290120   8.416  13.079  12.087
62763SOL     OW90121  11.416   6.747  11.391
62763SOL    HW190122  11.341   6.802  11.367
62763SOL    HW290123  11.398   6.720  11.481
62764SOL     OW90124   8.724  11.282   2.899
62764SOL    HW190125   8.785  11.339   2.851
62764SOL    HW290126   8.713  11.206   2.842
62765SOL     OW90127   1.261  11.932   8.424
62765SOL    HW190128   1.212  11.851   8.410
62765SOL    HW290129   1.274  11.967   8.335
62766SOL     OW90130   8.032   0.759  13.093
62766SOL    HW190131   7.981   0.723  13.021
62766SOL    HW290132   8.008   0.852  13.095
62767SOL     OW90133   1.450   7.457   4.247
62767SOL    HW190134   1.467   7.525   4.312
62767SOL    HW290135   1.357   7.436   4.259
62768SOL     OW90136   3.391   8.093   0.769
62768SOL    HW190137   3.296   8.097   0.763
62768SOL    HW290138   3.409   8.084   0.862
62769SOL     OW90139   4.754  11.980  11.080
62769SOL    HW190140   4.726  12.064  11.117
62769SOL    HW290141   4.848  11.990  11.067
62770SOL     OW90142  11.720   5.210   7.898
62770SOL    HW190143  11.683   5.295   7.918
62770SOL    HW290144  11.717   5.162   7.981
62771SOL     OW90145   4.729  11.900   7.259
62771SOL    HW190146   4.647  11.947   7.271
62771SOL    HW290147   4.783  11.960   7.207
62772SOL     OW90148   1.571   9.431  14.131
62772SOL    HW190149   1.478   9.454  14.130
62772SOL    HW290150   1.616   9.509  14.099
62773SOL     OW90151  13.397   6.463  10.082
62773SOL    HW190152  13.470   6.437  10.139
62773SOL    HW290153  13.425   6.437   9.994
62774SOL     OW90154   9.447  14.648   8.017
62774SOL    HW190155   9.506  14.574   8.028
62774SOL    HW290156   9.451  14.694   8.101
62775SOL     OW90157  12.176  10.885  12.786
62775SOL    HW190158  12.105  10.938  12.752
62775SOL    HW290159  12.139  10.798  12.796
62776SOL     OW90160  14.299   2.418   5.428
62776SOL    HW190161  14.204   2.427   5.436
62776SOL    HW290162  14.313   2.325   5.410
62777SOL     OW90163   8.018   4.643   2.995
62777SOL    HW190164   8.020   4.664   3.089
62777SOL    HW290165   7.961   4.566   2.989
62778SOL     OW90166   6.926   7.939   1.436
62778SOL    HW190167   6.961   7.862   1.391
62778SOL    HW290168   6.964   7.935   1.524
62779SOL     OW90169   4.678  12.480   8.985
62779SOL    HW190170   4.732  12.555   8.962
62779SOL    HW290171   4.588  12.509   8.971
62780SOL     OW90172   5.793   8.200   2.590
62780SOL    HW190173   5.821   8.291   2.581
62780SOL    HW290174   5.733   8.200   2.664
62781SOL     OW90175   6.561  11.225  10.055
62781SOL    HW190176   6.574  11.279  10.133
62781SOL    HW290177   6.566  11.135  10.087
62782SOL     OW90178  14.781   3.019   3.419
62782SOL    HW190179  14.848   2.972   3.468
62782SOL    HW290180  14.699   2.972   3.437
62783SOL     OW90181   2.169   0.976   3.052
62783SOL    HW190182   2.148   0.901   2.997
62783SOL    HW290183   2.188   0.939   3.138
62784SOL     OW90184   2.108   5.668   3.008
62784SOL    HW190185   2.107   5.602   3.077
62784SOL    HW290186   2.030   5.721   3.024
62785SOL     OW90187  10.316   5.541  11.397
62785SOL    HW190188  10.334   5.454  11.433
62785SOL    HW290189  10.223   5.555  11.410
62786SOL     OW90190  12.198   9.779   5.159
62786SOL    HW190191  12.250   9.852   5.193
62786SOL    HW290192  12.263   9.712   5.137
62787SOL     OW90193  13.972   9.027  11.371
62787SOL    HW190194  14.066   9.040  11.355
62787SOL    HW290195  13.944   8.969  11.301
62788SOL     OW90196   4.381   6.457   9.926
62788SOL    HW190197   4.453   6.437   9.866
62788SOL    HW290198   4.347   6.371   9.952
62789SOL     OW90199   0.491   9.986   4.729
62789SOL    HW190200   0.570   9.935   4.712
62789SOL    HW290201   0.419   9.930   4.698
62790SOL     OW90202  10.692   2.702   9.020
62790SOL    HW190203  10.600   2.715   9.045
62790SOL    HW290204  10.688   2.651   8.939
62791SOL     OW90205   0.902   0.311   8.418
62791SOL    HW190206   0.958   0.233   8.415
62791SOL    HW290207   0.833   0.293   8.354
62792SOL     OW90208   1.582   2.988   1.457
62792SOL    HW190209   1.496   3.025   1.438
62792SOL    HW290210   1.642   3.033   1.398
62793SOL     OW90211  14.755   4.747  12.171
62793SOL    HW190212  14.849   4.762  12.157
62793SOL    HW290213  14.735   4.791  12.253
62794SOL     OW90214   6.492  12.416   9.564
62794SOL    HW190215   6.447  12.434   9.482
62794SOL    HW290216   6.451  12.336   9.596
62795SOL     OW90217   6.371  10.999   9.916
62795SOL    HW190218   6.370  11.004  10.012
62795SOL    HW290219   6.443  10.940   9.896
62796SOL     OW90220   4.695   5.012   5.361
62796SOL    HW190221   4.754   5.087   5.350
62796SOL    HW290222   4.619   5.048   5.407
62797SOL     OW90223  14.384   5.377   5.349
62797SOL    HW190224  14.373   5.390   5.255
62797SOL    HW290225  14.476   5.353   5.360
62798SOL     OW90226   6.132  14.097  10.600
62798SOL    HW190227   6.084  14.176  10.626
62798SOL    HW290228   6.097  14.076  10.513
62799SOL     OW90229   5.285   7.321   6.775
62799SOL    HW190230   5.361   7.291   6.725
62799SOL    HW290231   5.233   7.371   6.712
62800SOL     OW90232   3.137   8.519   0.986
62800SOL    HW190233   3.072   8.460   1.025
62800SOL    HW290234   3.131   8.598   1.040
62801SOL     OW90235  13.761   8.634   6.170
62801SOL    HW190236  13.820   8.628   6.245
62801SOL    HW290237  13.736   8.544   6.152
62802SOL     OW90238   8.930   3.204   7.304
62802SOL    HW190239   8.994   3.193   7.234
62802SOL    HW290240   8.846   3.213   7.259
62803SOL     OW90241   4.772   3.394   0.674
62803SOL    HW190242   4.707   3.374   0.607
62803SOL    HW290243   4.722   3.398   0.755
62804SOL     OW90244  12.630   8.626  12.304
62804SOL    HW190245  12.709   8.597  12.350
62804SOL    HW290246  12.557   8.594  12.358
62805SOL     OW90247   7.564   3.743   8.414
62805SOL    HW190248   7.478   3.704   8.430
62805SOL    HW290249   7.550   3.837   8.422
62806SOL     OW90250  10.762   9.730  14.115
62806SOL    HW190251  10.795   9.820  14.110
62806SOL    HW290252  10.712   9.727  14.196
62807SOL     OW90253  11.777   8.653   0.799
62807SOL    HW190254  11.740   8.668   0.886
62807SOL    HW290255  11.755   8.562   0.779
62808SOL     OW90256   9.313   6.124   5.906
62808SOL    HW190257   9.270   6.201   5.868
62808SOL    HW290258   9.406   6.148   5.909
62809SOL     OW90259   9.380   7.387   4.031
62809SOL    HW190260   9.323   7.413   3.959
62809SOL    HW290261   9.463   7.363   3.989
62810SOL     OW90262   1.048  11.073  13.038
62810SOL    HW190263   0.970  11.118  13.007
62810SOL    HW290264   1.089  11.039  12.959
62811SOL     OW90265   5.436   6.176   4.398
62811SOL    HW190266   5.454   6.148   4.488
62811SOL    HW290267   5.444   6.271   4.400
62812SOL     OW90268  12.007  14.180  10.193
62812SOL    HW190269  12.031  14.103  10.142
62812SOL    HW290270  11.911  14.183  10.188
62813SOL     OW90271   7.133   6.381   7.679
62813SOL    HW190272   7.173   6.372   7.766
62813SOL    HW290273   7.199   6.426   7.627
62814SOL     OW90274   2.630   2.202   3.740
62814SOL    HW190275   2.599   2.293   3.745
62814SOL    HW290276   2.719   2.209   3.707
62815SOL     OW90277   4.004   2.569   2.117
62815SOL    HW190278   3.915   2.567   2.152
62815SOL    HW290279   4.049   2.637   2.167
62816SOL     OW90280   3.237  11.292   0.477
62816SOL    HW190281   3.243  11.292   0.573
62816SOL    HW290282   3.209  11.381   0.455
62817SOL     OW90283   0.736   2.998   1.271
62817SOL    HW190284   0.794   3.074   1.266
62817SOL    HW290285   0.667   3.023   1.332
62818SOL     OW90286  11.655   6.100   2.616
62818SOL    HW190287  11.703   6.180   2.595
62818SOL    HW290288  11.723   6.039   2.644
62819SOL     OW90289   7.926   8.395   8.516
62819SOL    HW190290   8.009   8.410   8.470
62819SOL    HW290291   7.951   8.371   8.605
62820SOL     OW90292  14.793   4.918   9.474
62820SOL    HW190293  14.826   4.995   9.430
62820SOL    HW290294  14.705   4.906   9.439
62821SOL     OW90295   4.264  10.355   9.471
62821SOL    HW190296   4.171  10.378   9.473
62821SOL    HW290297   4.284  10.344   9.378
62822SOL     OW90298   4.324  10.706   5.085
62822SOL    HW190299   4.410  10.670   5.064
62822SOL    HW290300   4.291  10.740   5.001
62823SOL     OW90301   4.937   2.923  11.209
62823SOL    HW190302   4.899   3.006  11.182
62823SOL    HW290303   4.963   2.936  11.300
62824SOL     OW90304   7.415  10.200  12.514
62824SOL    HW190305   7.397  10.179  12.606
62824SOL    HW290306   7.452  10.288  12.515
62825SOL     OW90307   6.617   9.890   0.055
62825SOL    HW190308   6.539   9.834   0.061
62825SOL    HW290309   6.687   9.831   0.029
62826SOL     OW90310   8.633   3.537   2.216
62826SOL    HW190311   8.724   3.544   2.187
62826SOL    HW290312   8.582   3.531   2.135
62827SOL     OW90313  13.134   0.815   6.751
62827SOL    HW190314  13.071   0.773   6.810
62827SOL    HW290315  13.125   0.768   6.668
62828SOL     OW90316   7.063   0.387   7.943
62828SOL    HW190317   7.042   0.442   7.867
62828SOL    HW290318   7.038   0.440   8.018
62829SOL     OW90319   9.399   4.691  13.876
62829SOL    HW190320   9.475   4.651  13.832
62829SOL    HW290321   9.396   4.650  13.962
62830SOL     OW90322  14.595   5.779  10.378
62830SOL    HW190323  14.682   5.772  10.418
62830SOL    HW290324  14.586   5.700  10.325
62831SOL     OW90325  12.231  10.340  10.295
62831SOL    HW190326  12.278  10.380  10.221
62831SOL    HW290327  12.140  10.367  10.283
62832SOL     OW90328   5.947  14.231   0.483
62832SOL    HW190329   5.965  14.257   0.393
62832SOL    HW290330   5.853  14.245   0.493
62833SOL     OW90331   3.640  12.540  12.047
62833SOL    HW190332   3.732  12.550  12.071
62833SOL    HW290333   3.596  12.613  12.091
62834SOL     OW90334  14.483   0.054  14.710
62834SOL    HW190335  14.522   0.141  14.697
62834SOL    HW290336  14.410   0.051  14.649
62835SOL     OW90337   2.473   7.848   7.744
62835SOL    HW190338   2.564   7.817   7.735
62835SOL    HW290339   2.441   7.853   7.654
62836SOL     OW90340   8.394   0.681   3.828
62836SOL    HW190341   8.391   0.628   3.908
62836SOL    HW290342   8.424   0.621   3.760
62837SOL     OW90343  13.733   8.848   0.263
62837SOL    HW190344  13.736   8.919   0.327
62837SOL    HW290345  13.746   8.769   0.315
62838SOL     OW90346   3.320  14.070   9.803
62838SOL    HW190347   3.237  14.025   9.819
62838SOL    HW290348   3.371  14.008   9.751
62839SOL     OW90349   6.604  14.202   8.531
62839SOL    HW190350   6.665  14.234   8.598
62839SOL    HW290351   6.542  14.274   8.520
62840SOL     OW90352  13.366  13.123   6.859
62840SOL    HW190353  13.309  13.056   6.899
62840SOL    HW290354  13.372  13.192   6.925
62841SOL     OW90355   6.565  11.819  13.149
62841SOL    HW190356   6.630  11.783  13.210
62841SOL    HW290357   6.487  11.766  13.165
62842SOL     OW90358  12.367  12.860   8.403
62842SOL    HW190359  12.298  12.818   8.352
62842SOL    HW290360  12.420  12.906   8.338
62843SOL     OW90361  10.974   5.099   3.125
62843SOL    HW190362  11.050   5.117   3.181
62843SOL    HW290363  11.005   5.031   3.065
62844SOL     OW90364  10.365  13.103   4.289
62844SOL    HW190365  10.423  13.067   4.222
62844SOL    HW290366  10.278  13.072   4.264
62845SOL     OW90367   4.081   8.220  10.830
62845SOL    HW190368   4.003   8.177  10.867
62845SOL    HW290369   4.049   8.306  10.802
62846SOL     OW90370   3.703   2.017  10.382
62846SOL    HW190371   3.722   1.959  10.308
62846SOL    HW290372   3.616   2.053  10.362
62847SOL     OW90373   7.505   2.396  10.548
62847SOL    HW190374   7.462   2.321  10.588
62847SOL    HW290375   7.549   2.361  10.471
62848SOL     OW90376   9.032   2.274   6.102
62848SOL    HW190377   8.941   2.268   6.072
62848SOL    HW290378   9.027   2.267   6.197
62849SOL     OW90379   4.560   4.213   4.549
62849SOL    HW190380   4.492   4.176   4.493
62849SOL    HW290381   4.515   4.237   4.630
62850SOL     OW90382   9.227   4.161   5.651
62850SOL    HW190383   9.169   4.236   5.636
62850SOL    HW290384   9.247   4.165   5.745
62851SOL     OW90385  13.984   7.095   6.886
62851SOL    HW190386  13.970   7.069   6.977
62851SOL    HW290387  13.921   7.042   6.836
62852SOL     OW90388   0.187   8.467   1.122
62852SOL    HW190389   0.174   8.374   1.102
62852SOL    HW290390   0.231   8.468   1.207
62853SOL     OW90391   7.697   3.070  11.439
62853SOL    HW190392   7.773   3.121  11.411
62853SOL    HW290393   7.710   2.984  11.397
62854SOL     OW90394  12.852   3.302   9.461
62854SOL    HW190395  12.918   3.238   9.488
62854SOL    HW290396  12.780   3.291   9.524
62855SOL     OW90397  11.959   9.361   4.203
62855SOL    HW190398  11.901   9.346   4.128
62855SOL    HW290399  11.961   9.278   4.250
62856SOL     OW90400  11.979   3.512   2.636
62856SOL    HW190401  12.074   3.509   2.649
62856SOL    HW290402  11.968   3.549   2.549
62857SOL     OW90403  12.257  13.544   4.724
62857SOL    HW190404  12.199  13.477   4.688
62857SOL    HW290405  12.315  13.497   4.784
62858SOL     OW90406   5.428   9.125  11.308
62858SOL    HW190407   5.364   9.179  11.262
62858SOL    HW290408   5.442   9.170  11.392
62859SOL     OW90409   1.213  11.932   2.185
62859SOL    HW190410   1.306  11.940   2.206
62859SOL    HW290411   1.168  11.979   2.256
62860SOL     OW90412   0.957   2.877   1.904
62860SOL    HW190413   0.987   2.858   1.815
62860SOL    HW290414   0.933   2.792   1.940
62861SOL     OW90415   5.357   4.324   8.898
62861SOL    HW190416   5.330   4.275   8.976
62861SOL    HW290417   5.394   4.257   8.840
62862SOL     OW90418   5.795   8.232   4.519
62862SOL    HW190419   5.758   8.236   4.431
62862SOL    HW290420   5.847   8.312   4.526
62863SOL     OW90421   6.742   2.478   5.291
62863SOL    HW190422   6.801   2.549   5.316
62863SOL    HW290423   6.656   2.518   5.290
62864SOL     OW90424   0.385   9.768   9.901
62864SOL    HW190425   0.298   9.787   9.867
62864SOL    HW290426   0.371   9.747   9.993
62865SOL     OW90427   2.952   4.106  11.424
62865SOL    HW190428   3.025   4.128  11.482
62865SOL    HW290429   2.898   4.045  11.475
62866SOL     OW90430   7.101   3.328   0.963
62866SOL    HW190431   7.087   3.393   1.032
62866SOL    HW290432   7.091   3.376   0.881
62867SOL     OW90433   7.416   2.784  13.143
62867SOL    HW190434   7.406   2.809  13.051
62867SOL    HW290435   7.423   2.867  13.190
62868SOL     OW90436   8.409   7.522   4.705
62868SOL    HW190437   8.449   7.586   4.763
62868SOL    HW290438   8.319   7.551   4.694
62869SOL     OW90439   8.278  13.726  13.404
62869SOL    HW190440   8.336  13.657  13.438
62869SOL    HW290441   8.194  13.682  13.392
62870SOL     OW90442  13.863  12.535   6.616
62870SOL    HW190443  13.928  12.470   6.642
62870SOL    HW290444  13.807  12.545   6.694
62871SOL     OW90445   8.527  11.732   5.642
62871SOL    HW190446   8.526  11.826   5.626
62871SOL    HW290447   8.618  11.706   5.625
62872SOL     OW90448  12.132  11.294   2.092
62872SOL    HW190449  12.225  11.291   2.069
62872SOL    HW290450  12.087  11.274   2.010
62873SOL     OW90451  13.355   1.389   8.668
62873SOL    HW190452  13.419   1.350   8.727
62873SOL    HW290453  13.316   1.315   8.622
62874SOL     OW90454   4.611   6.657  11.834
62874SOL    HW190455   4.546   6.646  11.903
62874SOL    HW290456   4.591   6.741  11.795
62875SOL     OW90457   8.061  10.846   4.746
62875SOL    HW190458   7.996  10.796   4.697
62875SOL    HW290459   8.050  10.818   4.837
62876SOL     OW90460   6.283   3.560  11.526
62876SOL    HW190461   6.354   3.503  11.498
62876SOL    HW290462   6.322   3.616  11.593
62877SOL     OW90463   0.846   9.467   5.506
62877SOL    HW190464   0.880   9.380   5.485
62877SOL    HW290465   0.817   9.502   5.421
62878SOL     OW90466   8.766   8.627   3.991
62878SOL    HW190467   8.730   8.694   3.933
62878SOL    HW290468   8.698   8.615   4.057
62879SOL     OW90469   2.603   9.460   9.508
62879SOL    HW190470   2.562   9.413   9.581
62879SOL    HW290471   2.620   9.547   9.543
62880SOL     OW90472   4.552  11.582   5.270
62880SOL    HW190473   4.530  11.613   5.358
62880SOL    HW290474   4.523  11.653   5.212
62881SOL     OW90475   8.639   2.698   6.664
62881SOL    HW190476   8.566   2.726   6.609
62881SOL    HW290477   8.645   2.765   6.732
62882SOL     OW90478  11.884   6.632  14.266
62882SOL    HW190479  11.836   6.560  14.306
62882SOL    HW290480  11.834   6.654  14.187
62883SOL     OW90481   8.572   3.764  12.236
62883SOL    HW190482   8.646   3.760  12.176
62883SOL    HW290483   8.586   3.844  12.287
62884SOL     OW90484   9.241  12.964  11.524
62884SOL    HW190485   9.180  12.898  11.555
62884SOL    HW290486   9.204  13.047  11.553
62885SOL     OW90487   6.136   7.443  10.816
62885SOL    HW190488   6.109   7.532  10.794
62885SOL    HW290489   6.152   7.402  10.731
62886SOL     OW90490   7.465   2.812   1.331
62886SOL    HW190491   7.468   2.749   1.259
62886SOL    HW290492   7.383   2.794   1.377
62887SOL     OW90493   7.588   6.235   3.177
62887SOL    HW190494   7.669   6.242   3.228
62887SOL    HW290495   7.542   6.159   3.215
62888SOL     OW90496  10.638   0.280  14.173
62888SOL    HW190497  10.595   0.243  14.250
62888SOL    HW290498  10.566   0.321  14.123
62889SOL     OW90499   0.990  14.105   8.473
62889SOL    HW190500   0.917  14.118   8.534
62889SOL    HW290501   0.951  14.059   8.399
62890SOL     OW90502   3.045  10.395   4.916
62890SOL    HW190503   3.113  10.334   4.886
62890SOL    HW290504   2.980  10.395   4.846
62891SOL     OW90505  13.271   9.166   6.831
62891SOL    HW190506  13.323   9.127   6.761
62891SOL    HW290507  13.310   9.252   6.845
62892SOL     OW90508  11.932   3.043  14.524
62892SOL    HW190509  11.876   3.039  14.601
62892SOL    HW290510  12.021   3.045  14.559
62893SOL     OW90511  10.152   3.177  13.707
62893SOL    HW190512  10.103   3.219  13.778
62893SOL    HW290513  10.121   3.086  13.707
62894SOL     OW90514  10.407   9.541   0.928
62894SOL    HW190515  10.345   9.605   0.892
62894SOL    HW290516  10.352   9.479   0.976
62895SOL     OW90517   1.401   4.384  14.298
62895SOL    HW190518   1.425   4.291  14.307
62895SOL    HW290519   1.476   4.431  14.335
62896SOL     OW90520   4.531  12.110   5.869
62896SOL    HW190521   4.492  12.195   5.850
62896SOL    HW290522   4.464  12.047   5.844
62897SOL     OW90523   8.663  13.283   0.335
62897SOL    HW190524   8.629  13.329   0.412
62897SOL    HW290525   8.596  13.295   0.268
62898SOL     OW90526  13.860  11.614   9.481
62898SOL    HW190527  13.818  11.530   9.500
62898SOL    HW290528  13.836  11.634   9.391
62899SOL     OW90529   2.411   4.387   4.555
62899SOL    HW190530   2.326   4.410   4.594
62899SOL    HW290531   2.463   4.466   4.565
62900SOL     OW90532   5.745  11.358  12.373
62900SOL    HW190533   5.669  11.411  12.397
62900SOL    HW290534   5.769  11.389  12.286
62901SOL     OW90535  13.835  10.031   1.518
62901SOL    HW190536  13.861  10.060   1.430
62901SOL    HW290537  13.847   9.936   1.515
62902SOL     OW90538   2.137   6.138   8.490
62902SOL    HW190539   2.135   6.232   8.474
62902SOL    HW290540   2.155   6.100   8.404
62903SOL     OW90541   3.724   1.820  12.258
62903SOL    HW190542   3.786   1.883  12.295
62903SOL    HW290543   3.684   1.867  12.185
62904SOL     OW90544   9.608   4.368   8.482
62904SOL    HW190545   9.674   4.352   8.550
62904SOL    HW290546   9.524   4.366   8.529
62905SOL     OW90547   3.061   4.995   4.653
62905SOL    HW190548   2.983   4.982   4.600
62905SOL    HW290549   3.133   4.999   4.590
62906SOL     OW90550   0.095   4.980  14.119
62906SOL    HW190551   0.078   5.011  14.031
62906SOL    HW290552   0.190   4.990  14.130
62907SOL     OW90553   8.920   3.364   3.972
62907SOL    HW190554   8.870   3.334   3.896
62907SOL    HW290555   8.864   3.343   4.047
62908SOL     OW90556   3.613   6.459   2.939
62908SOL    HW190557   3.702   6.475   2.909
62908SOL    HW290558   3.593   6.371   2.908
62909SOL     OW90559   5.861  11.900   8.025
62909SOL    HW190560   5.933  11.963   8.017
62909SOL    HW290561   5.904  11.814   8.020
62910SOL     OW90562   8.491  10.541   5.973
62910SOL    HW190563   8.492  10.471   5.908
62910SOL    HW290564   8.411  10.590   5.953
62911SOL     OW90565   6.959   7.951  10.842
62911SOL    HW190566   7.040   7.955  10.791
62911SOL    HW290567   6.943   7.858  10.855
62912SOL     OW90568  13.878  13.400   0.376
62912SOL    HW190569  13.856  13.483   0.419
62912SOL    HW290570  13.958  13.371   0.420
62913SOL     OW90571   2.291  14.611   2.891
62913SOL    HW190572   2.244  14.598   2.974
62913SOL    HW290573   2.333  14.527   2.874
62914SOL     OW90574   1.952   2.746   6.031
62914SOL    HW190575   1.947   2.837   6.061
62914SOL    HW290576   2.040   2.739   5.993
62915SOL     OW90577  14.455   5.865   6.635
62915SOL    HW190578  14.484   5.916   6.559
62915SOL    HW290579  14.425   5.931   6.697
62916SOL     OW90580   5.277  13.323   4.335
62916SOL    HW190581   5.195  13.297   4.377
62916SOL    HW290582   5.275  13.282   4.249
62917SOL     OW90583   6.877   2.395  13.349
62917SOL    HW190584   6.851   2.311  13.312
62917SOL    HW290585   6.837   2.460  13.290
62918SOL     OW90586   3.041   7.125   2.197
62918SOL    HW190587   3.101   7.195   2.219
62918SOL    HW290588   3.093   7.045   2.203
62919SOL     OW90589   0.562  12.175   5.011
62919SOL    HW190590   0.482  12.191   5.062
62919SOL    HW290591   0.552  12.230   4.933
62920SOL     OW90592   8.061  11.651   9.601
62920SOL    HW190593   7.991  11.633   9.538
62920SOL    HW290594   8.135  11.598   9.570
62921SOL     OW90595   9.800   0.092   9.474
62921SOL    HW190596   9.879   0.126   9.433
62921SOL    HW290597   9.761   0.037   9.406
62922SOL     OW90598   4.227   7.845  13.872
62922SOL    HW190599   4.259   7.930  13.842
62922SOL    HW290600   4.249   7.843  13.965
62923SOL     OW90601   1.161   5.051   4.512
62923SOL    HW190602   1.238   5.014   4.553
62923SOL    HW290603   1.094   5.050   4.581
62924SOL     OW90604  12.676   8.286   4.748
62924SOL    HW190605  12.584   8.274   4.723
62924SOL    HW290606  12.702   8.366   4.702
62925SOL     OW90607  10.715   4.440  13.878
62925SOL    HW190608  10.676   4.499  13.942
62925SOL    HW290609  10.714   4.489  13.796
62926SOL     OW90610  13.802   6.753  11.281
62926SOL    HW190611  13.848   6.700  11.217
62926SOL    HW290612  13.836   6.723  11.366
62927SOL     OW90613  12.470   4.976  10.994
62927SOL    HW190614  12.537   5.031  11.034
62927SOL    HW290615  12.404   4.965  11.062
62928SOL     OW90616  12.547  13.256  13.522
62928SOL    HW190617  12.617  13.212  13.473
62928SOL    HW290618  12.533  13.338  13.474
62929SOL     OW90619   4.189   7.660   6.752
62929SOL    HW190620   4.210   7.591   6.689
62929SOL    HW290621   4.238   7.636   6.831
62930SOL     OW90622  10.777   6.452  14.799
62930SOL    HW190623  10.750   6.364  14.824
62930SOL    HW290624  10.724   6.510  14.854
62931SOL     OW90625   1.919   7.925   7.634
62931SOL    HW190626   1.976   7.976   7.692
62931SOL    HW290627   1.837   7.917   7.682
62932SOL     OW90628   5.370   4.456   1.820
62932SOL    HW190629   5.336   4.444   1.732
62932SOL    HW290630   5.453   4.407   1.821
62933SOL     OW90631   5.893   1.570  11.332
62933SOL    HW190632   5.987   1.554  11.335
62933SOL    HW290633   5.885   1.658  11.295
62934SOL     OW90634   2.629   9.271  12.964
62934SOL    HW190635   2.591   9.241  12.882
62934SOL    HW290636   2.571   9.342  12.993
62935SOL     OW90637   3.659  13.089   9.816
62935SOL    HW190638   3.697  13.131   9.738
62935SOL    HW290639   3.568  13.071   9.791
62936SOL     OW90640   1.047   1.021  10.015
62936SOL    HW190641   1.004   1.039   9.932
62936SOL    HW290642   1.076   1.107  10.046
62937SOL     OW90643  14.809  10.586   7.233
62937SOL    HW190644  14.790  10.536   7.313
62937SOL    HW290645  14.729  10.582   7.181
62938SOL     OW90646   0.060  14.803   6.356
62938SOL    HW190647   0.096  14.864   6.291
62938SOL    HW290648  14.844  14.803   6.339
62939SOL     OW90649  10.630   9.365  14.224
62939SOL    HW190650  10.536   9.371  14.238
62939SOL    HW290651  10.660   9.299  14.287
62940SOL     OW90652   0.114  11.426   6.530
62940SOL    HW190653   0.126  11.521   6.529
62940SOL    HW290654   0.118  11.402   6.623
62941SOL     OW90655   6.815   2.246   6.641
62941SOL    HW190656   6.892   2.223   6.589
62941SOL    HW290657   6.783   2.162   6.674
62942SOL     OW90658   1.950   6.490  12.157
62942SOL    HW190659   1.982   6.568  12.111
62942SOL    HW290660   1.903   6.526  12.233
62943SOL     OW90661  14.337   5.976   2.165
62943SOL    HW190662  14.330   6.065   2.130
62943SOL    HW290663  14.247   5.948   2.178
62944SOL     OW90664   6.064   2.980   4.068
62944SOL    HW190665   6.006   2.911   4.037
62944SOL    HW290666   6.152   2.948   4.047
62945SOL     OW90667   9.134   0.425   6.591
62945SOL    HW190668   9.084   0.472   6.658
62945SOL    HW290669   9.114   0.472   6.510
62946SOL     OW90670   2.021   2.655   2.666
62946SOL    HW190671   1.981   2.676   2.750
62946SOL    HW290672   1.959   2.687   2.601
62947SOL     OW90673   7.649   1.360  11.194
62947SOL    HW190674   7.724   1.418  11.181
62947SOL    HW290675   7.590   1.379  11.121
62948SOL     OW90676   4.853   4.361   4.341
62948SOL    HW190677   4.850   4.285   4.282
62948SOL    HW290678   4.857   4.437   4.282
62949SOL     OW90679  14.545  11.102  13.766
62949SOL    HW190680  14.471  11.068  13.815
62949SOL    HW290681  14.542  11.054  13.683
62950SOL     OW90682   7.835  11.555   4.730
62950SOL    HW190683   7.844  11.469   4.772
62950SOL    HW290684   7.747  11.554   4.693
62951SOL     OW90685  10.426   9.577   7.643
62951SOL    HW190686  10.462   9.609   7.561
62951SOL    HW290687  10.334   9.603   7.640
62952SOL     OW90688  12.715   1.860   7.322
62952SOL    HW190689  12.643   1.883   7.264
62952SOL    HW290690  12.780   1.930   7.309
62953SOL     OW90691   1.244   5.898   4.859
62953SOL    HW190692   1.195   5.980   4.851
62953SOL    HW290693   1.333   5.921   4.833
62954SOL     OW90694   7.665   9.611  14.545
62954SOL    HW190695   7.701   9.535  14.501
62954SOL    HW290696   7.718   9.620  14.624
62955SOL     OW90697   3.921   3.200  12.312
62955SOL    HW190698   3.927   3.243  12.396
62955SOL    HW290699   3.993   3.236  12.260
62956SOL     OW90700   0.289   4.981  12.463
62956SOL    HW190701   0.231   5.057  12.453
62956SOL    HW290702   0.327   4.968  12.376
62957SOL     OW90703  11.050   4.806   2.638
62957SOL    HW190704  10.973   4.751   2.624
62957SOL    HW290705  11.018   4.881   2.689
62958SOL     OW90706   8.928   9.189   9.648
62958SOL    HW190707   8.865   9.124   9.679
62958SOL    HW290708   8.881   9.273   9.655
62959SOL     OW90709   1.139   9.453   6.008
62959SOL    HW190710   1.138   9.416   5.919
62959SOL    HW290711   1.051   9.489   6.020
62960SOL     OW90712  14.574  10.433   0.190
62960SOL    HW190713  14.669  10.436   0.195
62960SOL    HW290714  14.555  10.374   0.117
62961SOL     OW90715  12.602   3.202   1.270
62961SOL    HW190716  12.557   3.145   1.208
62961SOL    HW290717  12.541   3.275   1.284
62962SOL     OW90718   1.061   1.507   3.416
62962SOL    HW190719   1.081   1.439   3.352
62962SOL    HW290720   1.044   1.459   3.497
62963SOL     OW90721   0.688  13.760  11.111
62963SOL    HW190722   0.764  13.813  11.089
62963SOL    HW290723   0.712  13.671  11.082
62964SOL     OW90724  13.974   6.287   5.685
62964SOL    HW190725  14.011   6.345   5.619
62964SOL    HW290726  13.975   6.200   5.644
62965SOL     OW90727   8.765  12.992   8.238
62965SOL    HW190728   8.784  13.078   8.201
62965SOL    HW290729   8.743  13.009   8.329
62966SOL     OW90730   4.901  11.444  12.853
62966SOL    HW190731   4.812  11.440  12.888
62966SOL    HW290732   4.896  11.396  12.770
62967SOL     OW90733   7.213   5.676   5.977
62967SOL    HW190734   7.153   5.657   5.905
62967SOL    HW290735   7.293   5.629   5.955
62968SOL     OW90736   0.807   5.685   6.361
62968SOL    HW190737   0.744   5.691   6.289
62968SOL    HW290738   0.892   5.700   6.319
62969SOL     OW90739   9.769   1.182   7.453
62969SOL    HW190740   9.858   1.150   7.466
62969SOL    HW290741   9.733   1.188   7.541
62970SOL     OW90742   3.909   5.915  10.314
62970SOL    HW190743   3.849   5.884  10.246
62970SOL    HW290744   3.897   5.853  10.386
62971SOL     OW90745  12.100  11.411   8.443
62971SOL    HW190746  12.175  11.387   8.388
62971SOL    HW290747  12.097  11.506   8.439
62972SOL     OW90748   0.224   3.089   9.093
62972SOL    HW190749   0.292   3.023   9.103
62972SOL    HW290750   0.272   3.172   9.088
62973SOL     OW90751   1.006  13.104   5.653
62973SOL    HW190752   0.928  13.059   5.684
62973SOL    HW290753   0.985  13.197   5.660
62974SOL     OW90754   0.335   1.453   2.267
62974SOL    HW190755   0.287   1.371   2.277
62974SOL    HW290756   0.273   1.513   2.226
62975SOL     OW90757   1.488   7.990   2.696
62975SOL    HW190758   1.465   7.954   2.782
62975SOL    HW290759   1.475   7.917   2.636
62976SOL     OW90760   3.000   7.410   9.103
62976SOL    HW190761   2.947   7.472   9.153
62976SOL    HW290762   3.083   7.456   9.090
62977SOL     OW90763   0.411   6.381   0.121
62977SOL    HW190764   0.499   6.342   0.118
62977SOL    HW290765   0.396   6.412   0.031
62978SOL     OW90766   8.148   7.417   9.438
62978SOL    HW190767   8.212   7.488   9.441
62978SOL    HW290768   8.070   7.457   9.398
62979SOL     OW90769   8.941   5.511   3.620
62979SOL    HW190770   8.975   5.473   3.700
62979SOL    HW290771   9.011   5.569   3.589
62980SOL     OW90772  12.339   4.384  12.427
62980SOL    HW190773  12.334   4.426  12.513
62980SOL    HW290774  12.431   4.390  12.403
62981SOL     OW90775   1.561  13.732   4.230
62981SOL    HW190776   1.601  13.814   4.259
62981SOL    HW290777   1.471  13.738   4.262
62982SOL     OW90778   8.621   2.624  12.375
62982SOL    HW190779   8.605   2.551  12.435
62982SOL    HW290780   8.675   2.586  12.306
62983SOL     OW90781   0.664   8.495   9.620
62983SOL    HW190782   0.657   8.400   9.612
62983SOL    HW290783   0.752   8.515   9.590
62984SOL     OW90784  14.368   9.682   2.449
62984SOL    HW190785  14.402   9.651   2.365
62984SOL    HW290786  14.434   9.745   2.479
62985SOL     OW90787   4.222  13.203   2.844
62985SOL    HW190788   4.168  13.225   2.767
62985SOL    HW290789   4.197  13.113   2.865
62986SOL     OW90790  14.080   0.767  14.620
62986SOL    HW190791  14.046   0.683  14.589
62986SOL    HW290792  14.151   0.788  14.560
62987SOL     OW90793  11.906  13.981  12.183
62987SOL    HW190794  11.886  14.068  12.218
62987SOL    HW290795  11.832  13.927  12.211
62988SOL     OW90796   4.058   9.025  11.556
62988SOL    HW190797   4.072   9.040  11.463
62988SOL    HW290798   3.995   9.092  11.582
62989SOL     OW90799   0.535   7.996   9.927
62989SOL    HW190800   0.494   8.032  10.005
62989SOL    HW290801   0.614   7.953   9.959
62990SOL     OW90802   7.662   5.119   9.729
62990SOL    HW190803   7.592   5.054   9.730
62990SOL    HW290804   7.669   5.147   9.820
62991SOL     OW90805  14.488  13.979   1.044
62991SOL    HW190806  14.565  13.945   1.089
62991SOL    HW290807  14.504  13.959   0.952
62992SOL     OW90808   9.429  11.746   5.543
62992SOL    HW190809   9.488  11.804   5.590
62992SOL    HW290810   9.350  11.742   5.598
62993SOL     OW90811  13.833   1.631   5.557
62993SOL    HW190812  13.818   1.726   5.554
62993SOL    HW290813  13.926   1.621   5.539
62994SOL     OW90814   8.153   6.479  12.405
62994SOL    HW190815   8.195   6.450  12.323
62994SOL    HW290816   8.216   6.457  12.473
62995SOL     OW90817  11.184   9.923  13.817
62995SOL    HW190818  11.101   9.930  13.864
62995SOL    HW290819  11.246   9.891  13.882
62996SOL     OW90820   6.733   3.681   8.902
62996SOL    HW190821   6.736   3.650   8.992
62996SOL    HW290822   6.811   3.735   8.892
62997SOL     OW90823  13.974   2.534   6.002
62997SOL    HW190824  13.922   2.613   6.015
62997SOL    HW290825  14.002   2.509   6.090
62998SOL     OW90826  14.718  10.861  11.685
62998SOL    HW190827  14.753  10.949  11.669
62998SOL    HW290828  14.793  10.810  11.714
62999SOL     OW90829  12.084   3.924   7.185
62999SOL    HW190830  12.043   3.842   7.159
62999SOL    HW290831  12.029   3.992   7.146
63000SOL     OW90832   5.938   5.458  11.403
63000SOL    HW190833   5.884   5.383  11.427
63000SOL    HW290834   6.027   5.424  11.403
63001SOL     OW90835  13.820   7.079   9.648
63001SOL    HW190836  13.829   7.013   9.717
63001SOL    HW290837  13.854   7.036   9.569
63002SOL     OW90838  12.815  11.234   7.590
63002SOL    HW190839  12.869  11.164   7.553
63002SOL    HW290840  12.785  11.199   7.674
63003SOL     OW90841   8.494   5.003   4.145
63003SOL    HW190842   8.401   4.980   4.139
63003SOL    HW290843   8.540   4.923   4.118
63004SOL     OW90844   2.305   9.124   7.034
63004SOL    HW190845   2.350   9.166   6.960
63004SOL    HW290846   2.276   9.196   7.089
63005SOL     OW90847   3.194   6.427  10.399
63005SOL    HW190848   3.204   6.428  10.304
63005SOL    HW290849   3.230   6.511  10.428
63006SOL     OW90850   5.328  12.662  11.187
63006SOL    HW190851   5.309  12.743  11.235
63006SOL    HW290852   5.419  12.671  11.160
63007SOL     OW90853  10.240   0.667  13.406
63007SOL    HW190854  10.269   0.664  13.315
63007SOL    HW290855  10.318   0.643  13.457
63008SOL     OW90856  13.948   6.906  11.962
63008SOL    HW190857  14.022   6.934  11.908
63008SOL    HW290858  13.877   6.889  11.899
63009SOL     OW90859   1.739   8.314   9.856
63009SOL    HW190860   1.664   8.315   9.915
63009SOL    HW290861   1.807   8.362   9.903
63010SOL     OW90862   1.285   1.121   9.068
63010SOL    HW190863   1.263   1.210   9.038
63010SOL    HW290864   1.347   1.088   9.003
63011SOL     OW90865  13.630   3.282   7.883
63011SOL    HW190866  13.648   3.198   7.840
63011SOL    HW290867  13.552   3.315   7.839
63012SOL     OW90868   5.735  14.511   5.913
63012SOL    HW190869   5.811  14.490   5.860
63012SOL    HW290870   5.707  14.427   5.948
63013SOL     OW90871  14.162   9.479   4.096
63013SOL    HW190872  14.181   9.413   4.163
63013SOL    HW290873  14.247   9.518   4.076
63014SOL     OW90874   5.012   4.346   8.269
63014SOL    HW190875   4.951   4.332   8.341
63014SOL    HW290876   5.082   4.284   8.284
63015SOL     OW90877   4.348   1.361   3.042
63015SOL    HW190878   4.315   1.419   3.111
63015SOL    HW290879   4.300   1.389   2.963
63016SOL     OW90880   7.052  14.351   0.754
63016SOL    HW190881   7.042  14.411   0.680
63016SOL    HW290882   7.139  14.370   0.788
63017SOL     OW90883   2.667  13.692  14.668
63017SOL    HW190884   2.721  13.673  14.745
63017SOL    HW290885   2.598  13.626  14.670
63018SOL     OW90886  10.999  12.347   1.759
63018SOL    HW190887  11.043  12.373   1.840
63018SOL    HW290888  10.973  12.430   1.718
63019SOL     OW90889   2.613  10.638  14.455
63019SOL    HW190890   2.695  10.670  14.493
63019SOL    HW290891   2.641  10.570  14.393
63020SOL     OW90892   1.868   0.471  14.300
63020SOL    HW190893   1.787   0.487  14.348
63020SOL    HW290894   1.913   0.556  14.301
63021SOL     OW90895  14.770  11.015  12.130
63021SOL    HW190896  14.828  10.966  12.190
63021SOL    HW290897  14.745  11.093  12.180
63022SOL     OW90898   6.825   0.900  11.431
63022SOL    HW190899   6.894   0.880  11.495
63022SOL    HW290900   6.867   0.889  11.346
63023SOL     OW90901   0.258   4.500  13.649
63023SOL    HW190902   0.275   4.421  13.701
63023SOL    HW290903   0.287   4.572  13.706
63024SOL     OW90904  13.088   7.514   0.814
63024SOL    HW190905  13.129   7.457   0.880
63024SOL    HW290906  13.138   7.595   0.818
63025SOL     OW90907   5.253   8.894   1.098
63025SOL    HW190908   5.241   8.801   1.119
63025SOL    HW290909   5.207   8.907   1.015
63026SOL     OW90910   0.699   7.395   7.323
63026SOL    HW190911   0.775   7.435   7.281
63026SOL    HW290912   0.672   7.326   7.263
63027SOL     OW90913  12.161   2.833   0.288
63027SOL    HW190914  12.199   2.869   0.368
63027SOL    HW290915  12.206   2.749   0.276
63028SOL     OW90916  14.586  12.352   1.392
63028SOL    HW190917  14.508  12.366   1.339
63028SOL    HW290918  14.580  12.417   1.462
63029SOL     OW90919  12.724   0.050   8.661
63029SOL    HW190920  12.631   0.034   8.678
63029SOL    HW290921  12.742   0.004   8.579
63030SOL     OW90922   6.480   0.625   7.500
63030SOL    HW190923   6.517   0.635   7.412
63030SOL    HW290924   6.524   0.692   7.552
63031SOL     OW90925  14.662  14.543   5.926
63031SOL    HW190926  14.597  14.613   5.929
63031SOL    HW290927  14.611  14.463   5.917
63032SOL     OW90928  10.918   6.061  12.722
63032SOL    HW190929  10.883   6.140  12.763
63032SOL    HW290930  10.968   6.018  12.791
63033SOL     OW90931  13.501   8.720   6.991
63033SOL    HW190932  13.593   8.728   7.015
63033SOL    HW290933  13.467   8.809   7.000
63034SOL     OW90934  10.901  14.270   9.981
63034SOL    HW190935  10.996  14.256   9.979
63034SOL    HW290936  10.870  14.218  10.055
63035SOL     OW90937  10.522   5.722  14.438
63035SOL    HW190938  10.482   5.797  14.481
63035SOL    HW290939  10.450   5.659  14.429
63036SOL     OW90940   5.215  11.516   4.521
63036SOL    HW190941   5.137  11.460   4.521
63036SOL    HW290942   5.266  11.485   4.447
63037SOL     OW90943   7.068  11.320  10.172
63037SOL    HW190944   7.021  11.351  10.250
63037SOL    HW290945   7.155  11.359  10.179
63038SOL     OW90946   4.737   1.295  10.579
63038SOL    HW190947   4.783   1.303  10.495
63038SOL    HW290948   4.665   1.358  10.572
63039SOL     OW90949   5.566   8.657   1.318
63039SOL    HW190950   5.519   8.616   1.245
63039SOL    HW290951   5.570   8.588   1.385
63040SOL     OW90952  13.711  12.596  13.983
63040SOL    HW190953  13.616  12.587  13.987
63040SOL    HW290954  13.744  12.508  14.001
63041SOL     OW90955  10.035   5.809   7.137
63041SOL    HW190956   9.949   5.851   7.140
63041SOL    HW290957  10.045   5.769   7.224
63042SOL     OW90958  11.514   4.308   3.367
63042SOL    HW190959  11.578   4.295   3.437
63042SOL    HW290960  11.488   4.219   3.341
63043SOL     OW90961   4.806   4.341   9.561
63043SOL    HW190962   4.850   4.415   9.518
63043SOL    HW290963   4.788   4.279   9.491
63044SOL     OW90964   8.867   3.366  12.033
63044SOL    HW190965   8.872   3.435  12.100
63044SOL    HW290966   8.896   3.410  11.952
63045SOL     OW90967   1.753   1.223   3.973
63045SOL    HW190968   1.795   1.308   3.989
63045SOL    HW290969   1.672   1.227   4.024
63046SOL     OW90970  14.527   3.819  12.346
63046SOL    HW190971  14.448   3.828  12.293
63046SOL    HW290972  14.519   3.887  12.413
63047SOL     OW90973   9.771   5.857   9.388
63047SOL    HW190974   9.762   5.940   9.341
63047SOL    HW290975   9.713   5.866   9.463
63048SOL     OW90976   4.126   4.551   4.307
63048SOL    HW190977   4.133   4.642   4.335
63048SOL    HW290978   4.186   4.503   4.364
63049SOL     OW90979   8.755  10.143  14.018
63049SOL    HW190980   8.845  10.149  13.984
63049SOL    HW290981   8.747  10.217  14.078
63050SOL     OW90982   3.688   2.944   6.334
63050SOL    HW190983   3.594   2.928   6.327
63050SOL    HW290984   3.701   2.973   6.424
63051SOL     OW90985  14.145   6.482   0.696
63051SOL    HW190986  14.213   6.473   0.763
63051SOL    HW290987  14.137   6.577   0.683
63052SOL     OW90988   2.900  13.851   6.261
63052SOL    HW190989   2.927  13.819   6.174
63052SOL    HW290990   2.837  13.785   6.292
63053SOL     OW90991  13.271   6.638   0.914
63053SOL    HW190992  13.229   6.583   0.848
63053SOL    HW290993  13.365   6.632   0.894
63054SOL     OW90994   0.433  14.330   8.285
63054SOL    HW190995   0.502  14.363   8.228
63054SOL    HW290996   0.452  14.236   8.294
63055SOL     OW90997   8.015   7.080   6.991
63055SOL    HW190998   7.985   7.013   7.053
63055SOL    HW290999   7.935   7.127   6.967
63056SOL     OW91000  11.506  13.556   9.513
63056SOL    HW191001  11.574  13.560   9.446
63056SOL    HW291002  11.476  13.465   9.511
63057SOL     OW91003   9.141   1.904   3.618
63057SOL    HW191004   9.074   1.890   3.686
63057SOL    HW291005   9.210   1.953   3.662
63058SOL     OW91006   7.842  10.900   0.810
63058SOL    HW191007   7.905  10.833   0.786
63058SOL    HW291008   7.782  10.906   0.735
63059SOL     OW91009   0.535   2.642  11.680
63059SOL    HW191010   0.602   2.695  11.636
63059SOL    HW291011   0.477   2.706  11.721
63060SOL     OW91012   0.975   6.861  14.841
63060SOL    HW191013   1.019   6.814   0.033
63060SOL    HW291014   1.031   6.846  14.764
63061SOL     OW91015   9.138   3.307   9.347
63061SOL    HW191016   9.080   3.383   9.350
63061SOL    HW291017   9.224   3.341   9.368
63062SOL     OW91018   1.012   8.309   0.074
63062SOL    HW191019   1.051   8.383   0.028
63062SOL    HW291020   1.086   8.253   0.097
63063SOL     OW91021  12.024   8.213   7.035
63063SOL    HW191022  11.942   8.261   7.046
63063SOL    HW291023  11.997   8.122   7.029
63064SOL     OW91024  14.404   0.826   3.276
63064SOL    HW191025  14.432   0.816   3.185
63064SOL    HW291026  14.452   0.757   3.323
63065SOL     OW91027   6.486   9.015   0.587
63065SOL    HW191028   6.531   9.034   0.505
63065SOL    HW291029   6.431   8.939   0.567
63066SOL     OW91030   2.328   4.589   2.224
63066SOL    HW191031   2.344   4.495   2.212
63066SOL    HW291032   2.249   4.593   2.279
63067SOL     OW91033   5.901   9.516  14.011
63067SOL    HW191034   5.805   9.517  14.013
63067SOL    HW291035   5.925   9.607  13.990
63068SOL     OW91036   2.884   3.991   7.700
63068SOL    HW191037   2.913   3.919   7.644
63068SOL    HW291038   2.961   4.049   7.705
63069SOL     OW91039  13.816  11.245  11.508
63069SOL    HW191040  13.871  11.292  11.571
63069SOL    HW291041  13.861  11.162  11.494
63070SOL     OW91042  12.189   7.837   5.185
63070SOL    HW191043  12.105   7.836   5.231
63070SOL    HW291044  12.251   7.798   5.246
63071SOL     OW91045  13.331   2.298   0.760
63071SOL    HW191046  13.406   2.299   0.701
63071SOL    HW291047  13.353   2.231   0.825
63072SOL     OW91048  11.399   0.254   0.239
63072SOL    HW191049  11.478   0.303   0.261
63072SOL    HW291050  11.353   0.244   0.322
63073SOL     OW91051   4.034   8.436   7.883
63073SOL    HW191052   4.069   8.479   7.961
63073SOL    HW291053   4.076   8.480   7.810
63074SOL     OW91054   4.898   4.104   1.441
63074SOL    HW191055   4.983   4.128   1.479
63074SOL    HW291056   4.858   4.188   1.418
63075SOL     OW91057  13.862  12.276   8.061
63075SOL    HW191058  13.885  12.196   8.012
63075SOL    HW291059  13.900  12.347   8.009
63076SOL     OW91060   6.832   0.271   0.923
63076SOL    HW191061   6.851   0.336   0.855
63076SOL    HW291062   6.801   0.323   0.997
63077SOL     OW91063   3.880   8.948   2.281
63077SOL    HW191064   3.913   8.917   2.196
63077SOL    HW291065   3.948   8.923   2.344
63078SOL     OW91066  14.278   2.957  14.283
63078SOL    HW191067  14.342   2.886  14.281
63078SOL    HW291068  14.291   3.000  14.367
63079SOL     OW91069   1.543   2.618  13.842
63079SOL    HW191070   1.564   2.649  13.930
63079SOL    HW291071   1.513   2.528  13.855
63080SOL     OW91072   1.810   0.277   3.083
63080SOL    HW191073   1.801   0.332   3.005
63080SOL    HW291074   1.762   0.197   3.063
63081SOL     OW91075  11.478  10.395  11.877
63081SOL    HW191076  11.558  10.433  11.913
63081SOL    HW291077  11.496  10.382  11.784
63082SOL     OW91078   5.748  14.779   7.215
63082SOL    HW191079   5.787  14.785   7.302
63082SOL    HW291080   5.716  14.689   7.209
63083SOL     OW91081   8.126   1.193  14.226
63083SOL    HW191082   8.096   1.112  14.268
63083SOL    HW291083   8.160   1.165  14.142
63084SOL     OW91084  13.616   8.330   1.946
63084SOL    HW191085  13.703   8.335   1.904
63084SOL    HW291086  13.555   8.354   1.876
63085SOL     OW91087   9.821   2.203   6.512
63085SOL    HW191088   9.775   2.273   6.557
63085SOL    HW291089   9.798   2.123   6.561
63086SOL     OW91090   4.730  13.375   3.830
63086SOL    HW191091   4.689  13.316   3.893
63086SOL    HW291092   4.662  13.438   3.807
63087SOL     OW91093   3.141   6.080   7.275
63087SOL    HW191094   3.161   5.996   7.315
63087SOL    HW291095   3.209   6.091   7.208
63088SOL     OW91096   5.349   2.482   7.197
63088SOL    HW191097   5.387   2.544   7.134
63088SOL    HW291098   5.254   2.493   7.187
63089SOL     OW91099  10.500  11.273   3.394
63089SOL    HW191100  10.524  11.226   3.474
63089SOL    HW291101  10.542  11.223   3.324
63090SOL     OW91102  13.190   7.279  14.078
63090SOL    HW191103  13.095   7.268  14.089
63090SOL    HW291104  13.204   7.374  14.086
63091SOL     OW91105   2.336  11.457  14.228
63091SOL    HW191106   2.352  11.370  14.190
63091SOL    HW291107   2.241  11.460  14.241
63092SOL     OW91108  13.447   4.227   0.561
63092SOL    HW191109  13.427   4.202   0.650
63092SOL    HW291110  13.375   4.192   0.508
63093SOL     OW91111   5.294   2.831  12.988
63093SOL    HW191112   5.243   2.750  12.982
63093SOL    HW291113   5.303   2.846  13.082
63094SOL     OW91114  13.773   6.238   1.617
63094SOL    HW191115  13.689   6.251   1.662
63094SOL    HW291116  13.809   6.159   1.658
63095SOL     OW91117   5.401   1.045   9.337
63095SOL    HW191118   5.400   1.035   9.432
63095SOL    HW291119   5.494   1.047   9.314
63096SOL     OW91120  14.269   0.592   7.180
63096SOL    HW191121  14.266   0.635   7.095
63096SOL    HW291122  14.197   0.529   7.178
63097SOL     OW91123   8.726  11.483  12.398
63097SOL    HW191124   8.771  11.452  12.476
63097SOL    HW291125   8.633  11.469  12.417
63098SOL     OW91126   4.447  10.120   7.685
63098SOL    HW191127   4.441  10.215   7.687
63098SOL    HW291128   4.486  10.096   7.769
63099SOL     OW91129   3.824  13.858  12.114
63099SOL    HW191130   3.862  13.937  12.077
63099SOL    HW291131   3.811  13.800  12.038
63100SOL     OW91132  11.451  13.836   7.348
63100SOL    HW191133  11.400  13.786   7.412
63100SOL    HW291134  11.456  13.924   7.384
63101SOL     OW91135   6.101   1.895   6.838
63101SOL    HW191136   6.169   1.897   6.905
63101SOL    HW291137   6.145   1.926   6.758
63102SOL     OW91138  13.862   7.884  11.247
63102SOL    HW191139  13.919   7.812  11.221
63102SOL    HW291140  13.921   7.957  11.263
63103SOL     OW91141  10.002   0.984   8.074
63103SOL    HW191142   9.976   1.070   8.108
63103SOL    HW291143  10.081   0.962   8.124
63104SOL     OW91144   2.173   3.513   3.383
63104SOL    HW191145   2.107   3.447   3.404
63104SOL    HW291146   2.160   3.531   3.289
63105SOL     OW91147   0.855   3.569   5.577
63105SOL    HW191148   0.761   3.555   5.565
63105SOL    HW291149   0.890   3.570   5.488
63106SOL     OW91150  13.623   0.016   0.458
63106SOL    HW191151  13.652  14.834   0.527
63106SOL    HW291152  13.551   0.064   0.499
63107SOL     OW91153  11.004   6.139   9.745
63107SOL    HW191154  10.976   6.086   9.671
63107SOL    HW291155  11.002   6.229   9.713
63108SOL     OW91156   1.402   3.717   1.694
63108SOL    HW191157   1.390   3.790   1.634
63108SOL    HW291158   1.317   3.706   1.737
63109SOL     OW91159   8.783   9.700  10.985
63109SOL    HW191160   8.845   9.628  10.990
63109SOL    HW291161   8.780   9.724  10.893
63110SOL     OW91162  11.290   2.251   9.671
63110SOL    HW191163  11.296   2.338   9.710
63110SOL    HW291164  11.198   2.227   9.681
63111SOL     OW91165   3.848   1.624   7.007
63111SOL    HW191166   3.772   1.661   7.051
63111SOL    HW291167   3.858   1.678   6.928
63112SOL     OW91168   4.646  12.059   1.560
63112SOL    HW191169   4.598  12.141   1.545
63112SOL    HW291170   4.705  12.079   1.632
63113SOL     OW91171   4.453   2.048   6.618
63113SOL    HW191172   4.532   2.068   6.567
63113SOL    HW291173   4.407   2.132   6.626
63114SOL     OW91174   8.088   2.018   4.998
63114SOL    HW191175   8.069   1.939   5.048
63114SOL    HW291176   8.006   2.066   4.996
63115SOL     OW91177   5.541   5.194  10.860
63115SOL    HW191178   5.592   5.205  10.940
63115SOL    HW291179   5.583   5.252  10.796
63116SOL     OW91180   3.173   3.898  13.389
63116SOL    HW191181   3.211   3.862  13.309
63116SOL    HW291182   3.211   3.846  13.459
63117SOL     OW91183   9.644   5.606   7.267
63117SOL    HW191184   9.737   5.584   7.273
63117SOL    HW291185   9.629   5.625   7.175
63118SOL     OW91186  13.432   3.818   6.655
63118SOL    HW191187  13.461   3.826   6.746
63118SOL    HW291188  13.442   3.725   6.635
63119SOL     OW91189   3.760   3.069  11.030
63119SOL    HW191190   3.801   3.042  11.112
63119SOL    HW291191   3.730   3.158  11.046
63120SOL     OW91192   2.718   0.663   0.874
63120SOL    HW191193   2.673   0.742   0.845
63120SOL    HW291194   2.713   0.667   0.970
63121SOL     OW91195   5.200   3.360  13.995
63121SOL    HW191196   5.120   3.360  14.047
63121SOL    HW291197   5.183   3.298  13.924
63122SOL     OW91198  12.955  14.012   9.614
63122SOL    HW191199  12.945  14.099   9.653
63122SOL    HW291200  13.033  14.019   9.559
63123SOL     OW91201  10.842   8.293  14.172
63123SOL    HW191202  10.782   8.364  14.196
63123SOL    HW291203  10.892   8.276  14.251
63124SOL     OW91204   9.808   9.329  11.851
63124SOL    HW191205   9.746   9.398  11.829
63124SOL    HW291206   9.754   9.255  11.876
63125SOL     OW91207   0.897   3.125   7.743
63125SOL    HW191208   0.953   3.050   7.723
63125SOL    HW291209   0.809   3.097   7.715
63126SOL     OW91210   8.608  14.684   4.289
63126SOL    HW191211   8.550  14.758   4.273
63126SOL    HW291212   8.564  14.610   4.245
63127SOL     OW91213   2.578   6.110  12.489
63127SOL    HW191214   2.540   6.180  12.436
63127SOL    HW291215   2.622   6.154  12.561
63128SOL     OW91216  10.884   5.006   2.772
63128SOL    HW191217  10.803   4.965   2.801
63128SOL    HW291218  10.857   5.090   2.735
63129SOL     OW91219   7.992   0.854   0.826
63129SOL    HW191220   7.971   0.948   0.824
63129SOL    HW291221   8.086   0.851   0.806
63130SOL     OW91222   8.388   9.591   4.955
63130SOL    HW191223   8.464   9.578   5.012
63130SOL    HW291224   8.411   9.667   4.901
63131SOL     OW91225   2.859   8.164   4.373
63131SOL    HW191226   2.906   8.245   4.355
63131SOL    HW291227   2.785   8.165   4.311
63132SOL     OW91228   2.340   4.195   8.894
63132SOL    HW191229   2.354   4.105   8.866
63132SOL    HW291230   2.375   4.199   8.983
63133SOL     OW91231  13.031   0.002   2.440
63133SOL    HW191232  13.071  14.819   2.500
63133SOL    HW291233  12.952  14.837   2.409
63134SOL     OW91234   6.942  10.163   6.556
63134SOL    HW191235   6.995  10.135   6.630
63134SOL    HW291236   6.853  10.134   6.577
63135SOL     OW91237   1.650   4.407  12.736
63135SOL    HW191238   1.614   4.488  12.773
63135SOL    HW291239   1.699   4.435  12.659
63136SOL     OW91240  11.331   9.551  13.032
63136SOL    HW191241  11.390   9.591  12.968
63136SOL    HW291242  11.305   9.468  12.992
63137SOL     OW91243   5.788   0.042   1.784
63137SOL    HW191244   5.833   0.116   1.743
63137SOL    HW291245   5.743   0.081   1.859
63138SOL     OW91246   1.084   1.045   9.237
63138SOL    HW191247   1.147   1.082   9.175
63138SOL    HW291248   1.027   1.119   9.260
63139SOL     OW91249   5.071   8.073  12.081
63139SOL    HW191250   5.146   8.036  12.127
63139SOL    HW291251   5.103   8.089  11.992
63140SOL     OW91252   5.716   1.358  10.956
63140SOL    HW191253   5.721   1.263  10.946
63140SOL    HW291254   5.749   1.374  11.045
63141SOL     OW91255   7.565  13.797  14.097
63141SOL    HW191256   7.558  13.790  14.002
63141SOL    HW291257   7.606  13.882  14.112
63142SOL     OW91258  12.562   5.592  10.447
63142SOL    HW191259  12.511   5.654  10.394
63142SOL    HW291260  12.501   5.565  10.516
63143SOL     OW91261  14.194   3.490   4.727
63143SOL    HW191262  14.194   3.396   4.747
63143SOL    HW291263  14.102   3.512   4.712
63144SOL     OW91264  13.966  11.025   7.967
63144SOL    HW191265  13.900  11.080   8.009
63144SOL    HW291266  14.043  11.082   7.960
63145SOL     OW91267  14.128   8.936  13.509
63145SOL    HW191268  14.139   8.891  13.425
63145SOL    HW291269  14.051   8.992  13.496
63146SOL     OW91270   7.621   2.760   5.326
63146SOL    HW191271   7.558   2.688   5.322
63146SOL    HW291272   7.706   2.718   5.319
63147SOL     OW91273  13.397   5.266  11.082
63147SOL    HW191274  13.470   5.316  11.120
63147SOL    HW291275  13.387   5.302  10.994
63148SOL     OW91276  10.123   6.259   2.702
63148SOL    HW191277  10.198   6.313   2.677
63148SOL    HW291278  10.074   6.314   2.763
63149SOL     OW91279   3.962  12.365   1.571
63149SOL    HW191280   3.925  12.287   1.612
63149SOL    HW291281   4.035  12.333   1.519
63150SOL     OW91282  11.733   5.217  13.121
63150SOL    HW191283  11.818   5.226  13.079
63150SOL    HW291284  11.690   5.146  13.073
63151SOL     OW91285   2.962  11.538   9.308
63151SOL    HW191286   2.949  11.621   9.264
63151SOL    HW291287   3.001  11.481   9.242
63152SOL     OW91288  14.288  11.786   2.515
63152SOL    HW191289  14.376  11.776   2.553
63152SOL    HW291290  14.233  11.727   2.567
63153SOL     OW91291   2.257   4.092  11.271
63153SOL    HW191292   2.258   4.122  11.362
63153SOL    HW291293   2.348   4.102  11.242
63154SOL     OW91294   5.977  10.956  12.345
63154SOL    HW191295   5.948  11.047  12.354
63154SOL    HW291296   5.898  10.904  12.357
63155SOL     OW91297   5.695   4.477   2.149
63155SOL    HW191298   5.759   4.441   2.211
63155SOL    HW291299   5.632   4.523   2.203
63156SOL     OW91300   8.966   2.764   1.695
63156SOL    HW191301   8.874   2.790   1.681
63156SOL    HW291302   9.015   2.845   1.680
63157SOL     OW91303   9.622   4.073   2.885
63157SOL    HW191304   9.680   4.059   2.811
63157SOL    HW291305   9.630   3.994   2.938
63158SOL     OW91306   8.043   0.048   8.939
63158SOL    HW191307   8.137   0.039   8.951
63158SOL    HW291308   8.015   0.102   9.013
63159SOL     OW91309   5.220  14.010   7.155
63159SOL    HW191310   5.151  13.967   7.207
63159SOL    HW291311   5.302  13.977   7.192
63160SOL     OW91312   4.511   3.788   5.234
63160SOL    HW191313   4.538   3.703   5.271
63160SOL    HW291314   4.484   3.839   5.310
63161SOL     OW91315  10.846  11.376   4.998
63161SOL    HW191316  10.813  11.322   5.070
63161SOL    HW291317  10.781  11.367   4.929
63162SOL     OW91318   7.707   6.663   4.474
63162SOL    HW191319   7.757   6.713   4.539
63162SOL    HW291320   7.622   6.649   4.515
63163SOL     OW91321   6.664  11.663  14.528
63163SOL    HW191322   6.657  11.568  14.523
63163SOL    HW291323   6.582  11.691  14.569
63164SOL     OW91324   4.279   1.467   3.485
63164SOL    HW191325   4.256   1.473   3.393
63164SOL    HW291326   4.195   1.474   3.531
63165SOL     OW91327  14.256  14.413   4.203
63165SOL    HW191328  14.310  14.409   4.125
63165SOL    HW291329  14.270  14.501   4.238
63166SOL     OW91330   5.929  10.202   3.659
63166SOL    HW191331   5.965  10.262   3.726
63166SOL    HW291332   5.995  10.133   3.652
63167SOL     OW91333   0.960   7.567   8.097
63167SOL    HW191334   1.052   7.585   8.081
63167SOL    HW291335   0.918   7.580   8.012
63168SOL     OW91336   9.094  12.235  14.583
63168SOL    HW191337   9.065  12.219  14.673
63168SOL    HW291338   9.138  12.320  14.587
63169SOL     OW91339  14.233   2.848   7.127
63169SOL    HW191340  14.199   2.905   7.195
63169SOL    HW291341  14.163   2.785   7.112
63170SOL     OW91342   7.560  13.561   5.709
63170SOL    HW191343   7.530  13.549   5.799
63170SOL    HW291344   7.514  13.639   5.678
63171SOL     OW91345  12.310   6.543  12.751
63171SOL    HW191346  12.263   6.621  12.783
63171SOL    HW291347  12.290   6.541  12.657
63172SOL     OW91348  13.190   6.858   4.366
63172SOL    HW191349  13.149   6.919   4.305
63172SOL    HW291350  13.235   6.794   4.311
63173SOL     OW91351   5.266  14.063   6.271
63173SOL    HW191352   5.174  14.039   6.282
63173SOL    HW291353   5.315  13.995   6.318
63174SOL     OW91354  12.256   7.527  12.139
63174SOL    HW191355  12.338   7.500  12.098
63174SOL    HW291356  12.261   7.490  12.228
63175SOL     OW91357  12.389   9.671   7.429
63175SOL    HW191358  12.326   9.616   7.476
63175SOL    HW291359  12.466   9.615   7.417
63176SOL     OW91360   4.333   8.205   1.540
63176SOL    HW191361   4.369   8.272   1.482
63176SOL    HW291362   4.362   8.122   1.501
63177SOL     OW91363  11.779   0.185   8.157
63177SOL    HW191364  11.801   0.092   8.152
63177SOL    HW291365  11.862   0.229   8.138
63178SOL     OW91366   0.383   3.597  12.492
63178SOL    HW191367   0.408   3.504  12.489
63178SOL    HW291368   0.407   3.631  12.406
63179SOL     OW91369  11.658  14.052   9.038
63179SOL    HW191370  11.576  14.021   9.076
63179SOL    HW291371  11.632  14.121   8.977
63180SOL     OW91372  10.966   6.272  11.358
63180SOL    HW191373  10.984   6.292  11.266
63180SOL    HW291374  10.903   6.339  11.384
63181SOL     OW91375   7.206   2.682  11.964
63181SOL    HW191376   7.256   2.763  11.978
63181SOL    HW291377   7.144   2.704  11.894
63182SOL     OW91378   2.917   1.314  13.051
63182SOL    HW191379   2.881   1.400  13.033
63182SOL    HW291380   2.970   1.326  13.130
63183SOL     OW91381   9.925   2.838  14.454
63183SOL    HW191382  10.006   2.854  14.502
63183SOL    HW291383   9.901   2.923  14.418
63184SOL     OW91384  12.007   6.699   3.934
63184SOL    HW191385  11.994   6.616   3.887
63184SOL    HW291386  11.925   6.712   3.982
63185SOL     OW91387   1.638   2.809  13.351
63185SOL    HW191388   1.563   2.869  13.347
63185SOL    HW291389   1.621   2.755  13.428
63186SOL     OW91390   0.662   0.671   0.273
63186SOL    HW191391   0.614   0.636   0.348
63186SOL    HW291392   0.733   0.609   0.259
63187SOL     OW91393   5.101  12.473  12.581
63187SOL    HW191394   5.155  12.394  12.584
63187SOL    HW291395   5.138  12.525  12.510
63188SOL     OW91396  10.618   2.490   7.391
63188SOL    HW191397  10.531   2.479   7.428
63188SOL    HW291398  10.626   2.422   7.325
63189SOL     OW91399   0.592   1.480   2.210
63189SOL    HW191400   0.605   1.392   2.176
63189SOL    HW291401   0.502   1.480   2.244
63190SOL     OW91402  11.527  13.316   4.883
63190SOL    HW191403  11.548  13.239   4.936
63190SOL    HW291404  11.437  13.301   4.854
63191SOL     OW91405   2.767   3.963   9.247
63191SOL    HW191406   2.848   3.914   9.231
63191SOL    HW291407   2.751   4.009   9.164
63192SOL     OW91408   8.187  13.551   0.317
63192SOL    HW191409   8.147  13.621   0.369
63192SOL    HW291410   8.238  13.597   0.251
63193SOL     OW91411  12.472   3.074  13.811
63193SOL    HW191412  12.400   3.014  13.796
63193SOL    HW291413  12.536   3.052  13.743
63194SOL     OW91414   6.415   2.041   8.538
63194SOL    HW191415   6.407   1.977   8.609
63194SOL    HW291416   6.500   2.082   8.553
63195SOL     OW91417   5.065   0.567   6.771
63195SOL    HW191418   5.038   0.513   6.697
63195SOL    HW291419   5.152   0.534   6.794
63196SOL     OW91420  11.643   4.235   2.026
63196SOL    HW191421  11.570   4.211   2.082
63196SOL    HW291422  11.721   4.216   2.079
63197SOL     OW91423   9.078   3.883   2.049
63197SOL    HW191424   9.071   3.811   1.986
63197SOL    HW291425   9.157   3.930   2.023
63198SOL     OW91426   5.062   4.564  12.318
63198SOL    HW191427   5.055   4.486  12.263
63198SOL    HW291428   5.020   4.633  12.268
63199SOL     OW91429   2.379   1.754   5.766
63199SOL    HW191430   2.367   1.820   5.698
63199SOL    HW291431   2.306   1.768   5.826
63200SOL     OW91432   4.113  10.508   0.081
63200SOL    HW191433   4.139  10.502   0.173
63200SOL    HW291434   4.125  10.601   0.059
63201SOL     OW91435  12.616   1.417   8.112
63201SOL    HW191436  12.649   1.396   8.025
63201SOL    HW291437  12.618   1.334   8.160
63202SOL     OW91438  10.805   6.087  10.656
63202SOL    HW191439  10.754   6.018  10.616
63202SOL    HW291440  10.894   6.075  10.621
63203SOL     OW91441   1.675   7.666   5.402
63203SOL    HW191442   1.763   7.631   5.389
63203SOL    HW291443   1.686   7.740   5.462
63204SOL     OW91444  10.621   5.235   0.976
63204SOL    HW191445  10.652   5.156   1.020
63204SOL    HW291446  10.529   5.242   1.000
63205SOL     OW91447  11.914   5.580   1.269
63205SOL    HW191448  11.960   5.610   1.190
63205SOL    HW291449  11.922   5.653   1.330
63206SOL     OW91450   4.806   6.109   4.957
63206SOL    HW191451   4.773   6.110   4.867
63206SOL    HW291452   4.738   6.063   5.006
63207SOL     OW91453   4.361   9.054   7.478
63207SOL    HW191454   4.411   8.972   7.474
63207SOL    HW291455   4.344   9.076   7.387
63208SOL     OW91456   2.956   9.779  10.500
63208SOL    HW191457   2.996   9.743  10.421
63208SOL    HW291458   2.914   9.704  10.542
63209SOL     OW91459  14.833  11.490  11.994
63209SOL    HW191460  14.763  11.555  12.002
63209SOL    HW291461  14.799  11.412  12.037
63210SOL     OW91462   1.024  13.640  13.774
63210SOL    HW191463   1.010  13.690  13.855
63210SOL    HW291464   1.118  13.624  13.771
63211SOL     OW91465  14.338   8.350  12.198
63211SOL    HW191466  14.249   8.337  12.230
63211SOL    HW291467  14.381   8.403  12.266
63212SOL     OW91468   7.031  13.935   3.302
63212SOL    HW191469   7.006  13.917   3.212
63212SOL    HW291470   6.983  14.014   3.325
63213SOL     OW91471   9.523   6.591   8.582
63213SOL    HW191472   9.459   6.642   8.632
63213SOL    HW291473   9.606   6.605   8.628
63214SOL     OW91474  12.608  10.258  12.254
63214SOL    HW191475  12.636  10.313  12.181
63214SOL    HW291476  12.610  10.169  12.220
63215SOL     OW91477   2.366   9.360   5.364
63215SOL    HW191478   2.409   9.443   5.388
63215SOL    HW291479   2.437   9.296   5.363
63216SOL     OW91480   7.731   3.529   1.646
63216SOL    HW191481   7.672   3.603   1.660
63216SOL    HW291482   7.783   3.524   1.726
63217SOL     OW91483  14.451   3.137   5.717
63217SOL    HW191484  14.393   3.150   5.792
63217SOL    HW291485  14.464   3.042   5.712
63218SOL     OW91486   8.875   3.185  14.078
63218SOL    HW191487   8.914   3.099  14.064
63218SOL    HW291488   8.935   3.229  14.139
63219SOL     OW91489   8.521   5.285   2.065
63219SOL    HW191490   8.548   5.197   2.037
63219SOL    HW291491   8.494   5.273   2.156
63220SOL     OW91492   6.107   6.167   2.889
63220SOL    HW191493   6.194   6.127   2.879
63220SOL    HW291494   6.099   6.183   2.983
63221SOL     OW91495   1.007   5.809  12.238
63221SOL    HW191496   1.079   5.865  12.267
63221SOL    HW291497   1.044   5.759  12.165
63222SOL     OW91498   9.960   5.356   2.900
63222SOL    HW191499   9.997   5.389   2.981
63222SOL    HW291500   9.992   5.415   2.832
63223SOL     OW91501   7.687   0.775   6.224
63223SOL    HW191502   7.664   0.840   6.158
63223SOL    HW291503   7.764   0.730   6.189
63224SOL     OW91504  10.079   7.216  12.252
63224SOL    HW191505  10.121   7.149  12.197
63224SOL    HW291506  10.027   7.166  12.316
63225SOL     OW91507   9.393  11.032   3.031
63225SOL    HW191508   9.299  11.035   3.049
63225SOL    HW291509   9.403  10.958   2.970
63226SOL     OW91510   8.430   8.550   0.418
63226SOL    HW191511   8.516   8.509   0.411
63226SOL    HW291512   8.448   8.640   0.445
63227SOL     OW91513  12.086   8.545   4.777
63227SOL    HW191514  12.090   8.450   4.783
63227SOL    HW291515  12.022   8.562   4.708
63228SOL     OW91516   6.092   1.321  14.505
63228SOL    HW191517   6.150   1.245  14.508
63228SOL    HW291518   6.107   1.359  14.418
63229SOL     OW91519   6.588  14.157   2.772
63229SOL    HW191520   6.509  14.111   2.744
63229SOL    HW291521   6.559  14.246   2.791
63230SOL     OW91522  10.897   5.130   7.897
63230SOL    HW191523  10.809   5.135   7.860
63230SOL    HW291524  10.914   5.219   7.929
63231SOL     OW91525  12.104   2.563   0.776
63231SOL    HW191526  12.105   2.494   0.842
63231SOL    HW291527  12.038   2.535   0.713
63232SOL     OW91528   0.349  11.338  13.081
63232SOL    HW191529   0.432  11.296  13.101
63232SOL    HW291530   0.323  11.380  13.163
63233SOL     OW91531   8.068  11.871  12.381
63233SOL    HW191532   8.049  11.956  12.340
63233SOL    HW291533   7.987  11.848  12.428
63234SOL     OW91534   9.081   5.462   6.339
63234SOL    HW191535   9.143   5.412   6.286
63234SOL    HW291536   9.110   5.448   6.429
63235SOL     OW91537   3.941   2.475   7.723
63235SOL    HW191538   3.930   2.511   7.811
63235SOL    HW291539   3.852   2.456   7.693
63236SOL     OW91540  11.945  10.725  12.740
63236SOL    HW191541  11.904  10.750  12.657
63236SOL    HW291542  11.873  10.688  12.791
63237SOL     OW91543  12.879   1.054   9.048
63237SOL    HW191544  12.808   1.055   9.113
63237SOL    HW291545  12.849   0.991   8.982
63238SOL     OW91546   3.733   5.277  10.206
63238SOL    HW191547   3.644   5.313  10.208
63238SOL    HW291548   3.723   5.187  10.237
63239SOL     OW91549   1.881   9.559   4.929
63239SOL    HW191550   1.789   9.560   4.956
63239SOL    HW291551   1.902   9.650   4.910
63240SOL     OW91552   4.043  13.776   6.418
63240SOL    HW191553   3.982  13.708   6.445
63240SOL    HW291554   4.130  13.738   6.430
63241SOL     OW91555   0.858   5.135   4.833
63241SOL    HW191556   0.885   5.175   4.751
63241SOL    HW291557   0.763   5.143   4.834
63242SOL     OW91558  13.716   9.231  10.484
63242SOL    HW191559  13.697   9.229  10.577
63242SOL    HW291560  13.716   9.139  10.457
63243SOL     OW91561  11.163  11.975   3.180
63243SOL    HW191562  11.133  12.017   3.261
63243SOL    HW291563  11.192  11.888   3.208
63244SOL     OW91564   1.821   0.603  10.642
63244SOL    HW191565   1.753   0.586  10.707
63244SOL    HW291566   1.775   0.650  10.572
63245SOL     OW91567   3.825   2.458   8.232
63245SOL    HW191568   3.742   2.414   8.216
63245SOL    HW291569   3.873   2.450   8.150
63246SOL     OW91570   2.374   3.090  13.903
63246SOL    HW191571   2.443   3.059  13.845
63246SOL    HW291572   2.294   3.049  13.870
63247SOL     OW91573   7.197   7.677   7.664
63247SOL    HW191574   7.143   7.741   7.618
63247SOL    HW291575   7.287   7.704   7.645
63248SOL     OW91576  10.238  10.067   7.758
63248SOL    HW191577  10.238   9.975   7.784
63248SOL    HW291578  10.154  10.080   7.713
63249SOL     OW91579   4.479   0.287   5.103
63249SOL    HW191580   4.537   0.277   5.178
63249SOL    HW291581   4.479   0.380   5.084
63250SOL     OW91582  10.304   6.608   3.791
63250SOL    HW191583  10.248   6.553   3.736
63250SOL    HW291584  10.253   6.621   3.871
63251SOL     OW91585  12.996  13.509  13.794
63251SOL    HW191586  12.932  13.579  13.788
63251SOL    HW291587  12.969  13.458  13.870
63252SOL     OW91588  12.059   0.085   5.148
63252SOL    HW191589  12.008   0.064   5.070
63252SOL    HW291590  12.033   0.174   5.171
63253SOL     OW91591  13.322  12.902   4.011
63253SOL    HW191592  13.411  12.914   4.042
63253SOL    HW291593  13.267  12.950   4.073
63254SOL     OW91594   2.828   5.345  11.868
63254SOL    HW191595   2.841   5.273  11.930
63254SOL    HW291596   2.798   5.418  11.922
63255SOL     OW91597   5.592  13.464   0.953
63255SOL    HW191598   5.684  13.464   0.980
63255SOL    HW291599   5.544  13.448   1.034
63256SOL     OW91600   7.062   9.848  10.603
63256SOL    HW191601   7.107   9.892  10.531
63256SOL    HW291602   7.088   9.896  10.681
63257SOL     OW91603   7.074   1.141   3.465
63257SOL    HW191604   7.039   1.130   3.377
63257SOL    HW291605   7.122   1.059   3.481
63258SOL     OW91606   7.267   7.014  11.281
63258SOL    HW191607   7.244   6.921  11.276
63258SOL    HW291608   7.209   7.050  11.347
63259SOL     OW91609  11.197   6.281  12.082
63259SOL    HW191610  11.117   6.235  12.108
63259SOL    HW291611  11.266   6.238  12.132
63260SOL     OW91612   2.140  13.590   1.653
63260SOL    HW191613   2.108  13.554   1.571
63260SOL    HW291614   2.170  13.514   1.703
63261SOL     OW91615  14.746   2.532  14.719
63261SOL    HW191616  14.666   2.582  14.733
63261SOL    HW291617  14.729   2.447  14.759
63262SOL     OW91618  12.015   2.720  11.404
63262SOL    HW191619  12.072   2.751  11.334
63262SOL    HW291620  11.928   2.753  11.381
63263SOL     OW91621   6.829   5.988   3.268
63263SOL    HW191622   6.851   6.080   3.280
63263SOL    HW291623   6.736   5.988   3.246
63264SOL     OW91624   6.261  10.719  11.709
63264SOL    HW191625   6.299  10.716  11.797
63264SOL    HW291626   6.238  10.811  11.696
63265SOL     OW91627  12.753   5.009  13.287
63265SOL    HW191628  12.732   4.974  13.374
63265SOL    HW291629  12.836   4.967  13.264
63266SOL     OW91630   2.897   5.165   9.661
63266SOL    HW191631   2.841   5.119   9.599
63266SOL    HW291632   2.844   5.174   9.740
63267SOL     OW91633   0.369  11.020   4.610
63267SOL    HW191634   0.413  10.966   4.676
63267SOL    HW291635   0.438  11.077   4.577
63268SOL     OW91636   2.720   5.185  10.970
63268SOL    HW191637   2.690   5.275  10.955
63268SOL    HW291638   2.814   5.188  10.953
63269SOL     OW91639  11.335  11.623   6.557
63269SOL    HW191640  11.265  11.642   6.494
63269SOL    HW291641  11.336  11.527   6.562
63270SOL     OW91642   4.846  14.654   4.141
63270SOL    HW191643   4.848  14.603   4.221
63270SOL    HW291644   4.796  14.733   4.163
63271SOL     OW91645   2.237   9.727   3.993
63271SOL    HW191646   2.244   9.770   4.078
63271SOL    HW291647   2.301   9.772   3.937
63272SOL     OW91648   5.493  10.830  12.170
63272SOL    HW191649   5.552  10.790  12.233
63272SOL    HW291650   5.496  10.924  12.190
63273SOL     OW91651   6.302   9.606  12.128
63273SOL    HW191652   6.383   9.555  12.135
63273SOL    HW291653   6.330   9.694  12.104
63274SOL     OW91654   3.751  13.664   8.867
63274SOL    HW191655   3.798  13.651   8.949
63274SOL    HW291656   3.670  13.708   8.892
63275SOL     OW91657  10.958   9.067   0.702
63275SOL    HW191658  11.031   9.116   0.665
63275SOL    HW291659  10.993   8.978   0.715
63276SOL     OW91660  14.454   6.994   1.886
63276SOL    HW191661  14.547   6.970   1.888
63276SOL    HW291662  14.423   6.974   1.974
63277SOL     OW91663   2.975   9.279  11.960
63277SOL    HW191664   3.039   9.217  11.925
63277SOL    HW291665   3.022   9.324  12.031
63278SOL     OW91666  14.755   8.068   7.579
63278SOL    HW191667  14.756   8.031   7.491
63278SOL    HW291668  14.785   7.997   7.635
63279SOL     OW91669   6.635   3.552  12.592
63279SOL    HW191670   6.608   3.461  12.582
63279SOL    HW291671   6.608   3.575  12.681
63280SOL     OW91672  13.712   2.546   4.671
63280SOL    HW191673  13.730   2.554   4.577
63280SOL    HW291674  13.649   2.615   4.690
63281SOL     OW91675   5.501   1.652   2.126
63281SOL    HW191676   5.444   1.604   2.066
63281SOL    HW291677   5.442   1.706   2.178
63282SOL     OW91678  13.974   6.697   8.212
63282SOL    HW191679  13.984   6.624   8.151
63282SOL    HW291680  13.888   6.684   8.252
63283SOL     OW91681   2.488   0.633  10.577
63283SOL    HW191682   2.489   0.663  10.668
63283SOL    HW291683   2.411   0.577  10.571
63284SOL     OW91684   1.843  10.410  13.023
63284SOL    HW191685   1.840  10.388  13.116
63284SOL    HW291686   1.805  10.335  12.979
63285SOL     OW91687   5.323   3.352   2.670
63285SOL    HW191688   5.355   3.435   2.633
63285SOL    HW291689   5.369   3.284   2.621
63286SOL     OW91690  13.714  14.860   9.570
63286SOL    HW191691  13.720   0.040   9.495
63286SOL    HW291692  13.620  14.853   9.588
63287SOL     OW91693   6.327   8.382  14.004
63287SOL    HW191694   6.343   8.305  14.058
63287SOL    HW291695   6.413   8.407  13.971
63288SOL     OW91696   3.831   8.395  14.823
63288SOL    HW191697   3.796   8.434   0.025
63288SOL    HW291698   3.753   8.371  14.773
63289SOL     OW91699  12.286  13.175   2.342
63289SOL    HW191700  12.315  13.083   2.347
63289SOL    HW291701  12.201  13.170   2.298
63290SOL     OW91702  10.999   3.168   6.060
63290SOL    HW191703  10.905   3.181   6.050
63290SOL    HW291704  11.009   3.130   6.147
63291SOL     OW91705  13.056  11.107   4.176
63291SOL    HW191706  13.080  11.199   4.191
63291SOL    HW291707  12.966  11.100   4.208
63292SOL     OW91708   0.597   2.653   3.461
63292SOL    HW191709   0.588   2.615   3.374
63292SOL    HW291710   0.574   2.745   3.450
63293SOL     OW91711  11.051   9.168   6.186
63293SOL    HW191712  10.972   9.183   6.238
63293SOL    HW291713  11.030   9.091   6.133
63294SOL     OW91714   7.541  12.875  13.714
63294SOL    HW191715   7.473  12.808  13.706
63294SOL    HW291716   7.515  12.926  13.790
63295SOL     OW91717   3.672  10.404  13.827
63295SOL    HW191718   3.745  10.371  13.775
63295SOL    HW291719   3.660  10.494  13.796
63296SOL     OW91720   9.406   2.694   6.732
63296SOL    HW191721   9.463   2.752   6.682
63296SOL    HW291722   9.342   2.752   6.772
63297SOL     OW91723   2.581   9.942   3.471
63297SOL    HW191724   2.673   9.930   3.448
63297SOL    HW291725   2.578  10.028   3.513
63298SOL     OW91726   3.874   6.929   5.105
63298SOL    HW191727   3.811   7.000   5.097
63298SOL    HW291728   3.837   6.872   5.173
63299SOL     OW91729   9.224  14.368   7.953
63299SOL    HW191730   9.270  14.338   7.875
63299SOL    HW291731   9.177  14.291   7.985
63300SOL     OW91732  10.920  11.448  13.791
63300SOL    HW191733  10.910  11.523  13.850
63300SOL    HW291734  10.844  11.394  13.808
63301SOL     OW91735   4.968  13.835  14.535
63301SOL    HW191736   4.979  13.741  14.521
63301SOL    HW291737   5.041  13.859  14.593
63302SOL     OW91738   0.819   4.232  13.590
63302SOL    HW191739   0.874   4.308  13.609
63302SOL    HW291740   0.768   4.258  13.513
63303SOL     OW91741   6.913   9.780   6.633
63303SOL    HW191742   6.860   9.770   6.712
63303SOL    HW291743   7.004   9.777   6.666
63304SOL     OW91744  13.726  12.350   3.820
63304SOL    HW191745  13.740  12.424   3.880
63304SOL    HW291746  13.711  12.275   3.877
63305SOL     OW91747   1.681   0.008   8.765
63305SOL    HW191748   1.617   0.077   8.748
63305SOL    HW291749   1.653  14.814   8.709
63306SOL     OW91750  12.748  12.897   6.167
63306SOL    HW191751  12.824  12.848   6.133
63306SOL    HW291752  12.675  12.869   6.111
63307SOL     OW91753  14.086   0.312   5.472
63307SOL    HW191754  14.063   0.404   5.487
63307SOL    HW291755  14.002   0.269   5.458
63308SOL     OW91756   4.685   7.342   3.157
63308SOL    HW191757   4.589   7.341   3.158
63308SOL    HW291758   4.707   7.399   3.084
63309SOL     OW91759   2.873  10.364   6.318
63309SOL    HW191760   2.863  10.458   6.307
63309SOL    HW291761   2.795  10.327   6.276
63310SOL     OW91762   6.808  12.318   3.488
63310SOL    HW191763   6.727  12.293   3.534
63310SOL    HW291764   6.878  12.291   3.547
63311SOL     OW91765  14.257   2.168   7.930
63311SOL    HW191766  14.274   2.088   7.980
63311SOL    HW291767  14.161   2.177   7.932
63312SOL     OW91768   0.722   5.575   1.894
63312SOL    HW191769   0.664   5.614   1.960
63312SOL    HW291770   0.694   5.615   1.812
63313SOL     OW91771  12.738   6.312   1.020
63313SOL    HW191772  12.704   6.383   1.074
63313SOL    HW291773  12.665   6.288   0.962
63314SOL     OW91774  13.412   8.277   2.641
63314SOL    HW191775  13.347   8.241   2.582
63314SOL    HW291776  13.415   8.370   2.620
63315SOL     OW91777   8.228  11.005   6.157
63315SOL    HW191778   8.319  10.995   6.184
63315SOL    HW291779   8.219  11.097   6.134
63316SOL     OW91780   2.299  11.629   4.553
63316SOL    HW191781   2.373  11.680   4.587
63316SOL    HW291782   2.237  11.695   4.522
63317SOL     OW91783  10.610  14.878  10.867
63317SOL    HW191784  10.534  14.850  10.918
63317SOL    HW291785  10.681  14.822  10.897
63318SOL     OW91786   9.802   3.667   4.961
63318SOL    HW191787   9.742   3.704   4.897
63318SOL    HW291788   9.842   3.742   5.004
63319SOL     OW91789   4.551  12.078   7.082
63319SOL    HW191790   4.473  12.025   7.098
63319SOL    HW291791   4.517  12.166   7.066
63320SOL     OW91792   1.707   5.007   8.690
63320SOL    HW191793   1.751   5.088   8.716
63320SOL    HW291794   1.766   4.937   8.717
63321SOL     OW91795   6.750   5.526   2.476
63321SOL    HW191796   6.668   5.507   2.431
63321SOL    HW291797   6.778   5.611   2.441
63322SOL     OW91798   8.384  10.009   1.686
63322SOL    HW191799   8.466   9.960   1.696
63322SOL    HW291800   8.398  10.089   1.736
63323SOL     OW91801  12.763   3.699   3.649
63323SOL    HW191802  12.684   3.651   3.672
63323SOL    HW291803  12.732   3.775   3.601
63324SOL     OW91804   0.886  13.571  11.942
63324SOL    HW191805   0.828  13.500  11.912
63324SOL    HW291806   0.900  13.552  12.034
63325SOL     OW91807   7.400  13.427  12.556
63325SOL    HW191808   7.439  13.355  12.506
63325SOL    HW291809   7.312  13.438  12.518
63326SOL     OW91810   8.087  11.669   3.721
63326SOL    HW191811   8.058  11.582   3.747
63326SOL    HW291812   8.025  11.728   3.764
63327SOL     OW91813   6.228   5.198   2.412
63327SOL    HW191814   6.255   5.114   2.447
63327SOL    HW291815   6.207   5.251   2.489
63328SOL     OW91816   0.424   2.765  13.078
63328SOL    HW191817   0.441   2.803  12.992
63328SOL    HW291818   0.492   2.699  13.090
63329SOL     OW91819   5.560  13.034  12.575
63329SOL    HW191820   5.534  13.112  12.624
63329SOL    HW291821   5.581  12.969  12.642
63330SOL     OW91822   4.196   6.924  10.966
63330SOL    HW191823   4.158   6.999  10.920
63330SOL    HW291824   4.270   6.897  10.911
63331SOL     OW91825   5.421   6.740   4.986
63331SOL    HW191826   5.436   6.738   4.891
63331SOL    HW291827   5.493   6.689   5.023
63332SOL     OW91828  11.027   8.145   7.640
63332SOL    HW191829  11.058   8.084   7.573
63332SOL    HW291830  10.935   8.161   7.617
63333SOL     OW91831   2.493  14.597   5.312
63333SOL    HW191832   2.485  14.627   5.221
63333SOL    HW291833   2.404  14.578   5.339
63334SOL     OW91834  13.284   5.804   0.055
63334SOL    HW191835  13.207   5.860   0.056
63334SOL    HW291836  13.250   5.715   0.066
63335SOL     OW91837   5.678   1.916   0.694
63335SOL    HW191838   5.610   1.887   0.632
63335SOL    HW291839   5.728   1.982   0.645
63336SOL     OW91840   0.962   2.298   1.896
63336SOL    HW191841   1.025   2.330   1.831
63336SOL    HW291842   0.893   2.256   1.844
63337SOL     OW91843   9.368   6.471  12.940
63337SOL    HW191844   9.424   6.548  12.951
63337SOL    HW291845   9.349   6.469  12.846
63338SOL     OW91846   9.826   3.201  11.536
63338SOL    HW191847   9.786   3.268  11.481
63338SOL    HW291848   9.753   3.158  11.579
63339SOL     OW91849   0.118   7.470   0.300
63339SOL    HW191850   0.086   7.380   0.290
63339SOL    HW291851   0.195   7.461   0.356
63340SOL     OW91852   2.236   2.495  10.069
63340SOL    HW191853   2.207   2.570  10.018
63340SOL    HW291854   2.167   2.429  10.055
63341SOL     OW91855   0.958   6.107   0.927
63341SOL    HW191856   0.974   6.200   0.914
63341SOL    HW291857   1.046   6.068   0.935
63342SOL     OW91858   8.636   2.634  12.971
63342SOL    HW191859   8.680   2.717  12.991
63342SOL    HW291860   8.666   2.612  12.883
63343SOL     OW91861  10.886   3.820   0.755
63343SOL    HW191862  10.946   3.786   0.822
63343SOL    HW291863  10.812   3.854   0.804
63344SOL     OW91864   6.884   8.588   0.880
63344SOL    HW191865   6.798   8.553   0.858
63344SOL    HW291866   6.923   8.522   0.936
63345SOL     OW91867   2.288   8.501  10.013
63345SOL    HW191868   2.296   8.459   9.928
63345SOL    HW291869   2.360   8.465  10.065
63346SOL     OW91870   6.594   9.957   4.472
63346SOL    HW191871   6.518   9.954   4.414
63346SOL    HW291872   6.568  10.017   4.542
63347SOL     OW91873   8.925   8.562   5.861
63347SOL    HW191874   8.843   8.535   5.820
63347SOL    HW291875   8.985   8.576   5.787
63348SOL     OW91876   0.397   1.871   2.676
63348SOL    HW191877   0.464   1.859   2.744
63348SOL    HW291878   0.403   1.965   2.655
63349SOL     OW91879   1.735   6.089   1.092
63349SOL    HW191880   1.733   6.174   1.135
63349SOL    HW291881   1.786   6.033   1.150
63350SOL     OW91882  11.127  13.686   2.612
63350SOL    HW191883  11.059  13.753   2.616
63350SOL    HW291884  11.193  13.714   2.675
63351SOL     OW91885   7.461  12.086   3.476
63351SOL    HW191886   7.403  12.010   3.462
63351SOL    HW291887   7.502  12.069   3.561
63352SOL     OW91888   8.805   8.384  13.303
63352SOL    HW191889   8.749   8.407  13.229
63352SOL    HW291890   8.893   8.375  13.265
63353SOL     OW91891   7.510   3.607  14.076
63353SOL    HW191892   7.494   3.701  14.084
63353SOL    HW291893   7.605   3.599  14.075
63354SOL     OW91894  14.218  14.870   5.115
63354SOL    HW191895  14.129  14.868   5.149
63354SOL    HW291896  14.271   0.023   5.187
63355SOL     OW91897  10.095   4.611   8.545
63355SOL    HW191898  10.157   4.544   8.575
63355SOL    HW291899  10.009   4.578   8.570
63356SOL     OW91900   7.567   5.196   1.808
63356SOL    HW191901   7.547   5.289   1.808
63356SOL    HW291902   7.661   5.191   1.827
63357SOL     OW91903   5.083   7.180   2.103
63357SOL    HW191904   5.080   7.118   2.177
63357SOL    HW291905   5.082   7.266   2.144
63358SOL     OW91906   6.419  13.940   7.973
63358SOL    HW191907   6.514  13.943   7.970
63358SOL    HW291908   6.391  14.022   7.933
63359SOL     OW91909  10.591  10.486   2.649
63359SOL    HW191910  10.682  10.492   2.676
63359SOL    HW291911  10.542  10.485   2.731
63360SOL     OW91912   5.720  11.763  13.469
63360SOL    HW191913   5.754  11.755  13.380
63360SOL    HW291914   5.771  11.835  13.507
63361SOL     OW91915   6.636   6.631   7.018
63361SOL    HW191916   6.656   6.580   6.939
63361SOL    HW291917   6.646   6.568   7.089
63362SOL     OW91918   1.601   2.205  11.998
63362SOL    HW191919   1.560   2.279  12.043
63362SOL    HW291920   1.597   2.133  12.061
63363SOL     OW91921  12.617   6.164  14.165
63363SOL    HW191922  12.643   6.130  14.079
63363SOL    HW291923  12.664   6.109  14.228
63364SOL     OW91924   7.391   3.407   9.704
63364SOL    HW191925   7.390   3.480   9.765
63364SOL    HW291926   7.313   3.356   9.726
63365SOL     OW91927  14.440  13.583   4.692
63365SOL    HW191928  14.422  13.501   4.645
63365SOL    HW291929  14.534  13.578   4.712
63366SOL     OW91930   0.296  11.824   2.997
63366SOL    HW191931   0.215  11.840   2.948
63366SOL    HW291932   0.277  11.747   3.051
63367SOL     OW91933  12.706   6.883  13.816
63367SOL    HW191934  12.643   6.856  13.749
63367SOL    HW291935  12.740   6.966  13.784
63368SOL     OW91936  13.396  10.609   5.421
63368SOL    HW191937  13.312  10.591   5.462
63368SOL    HW291938  13.390  10.700   5.393
63369SOL     OW91939   3.934   1.813   2.620
63369SOL    HW191940   4.021   1.796   2.657
63369SOL    HW291941   3.877   1.823   2.696
63370SOL     OW91942   1.209   3.046  13.687
63370SOL    HW191943   1.130   3.011  13.645
63370SOL    HW291944   1.203   3.016  13.778
63371SOL     OW91945   4.259  12.900   6.084
63371SOL    HW191946   4.255  12.915   5.989
63371SOL    HW291947   4.336  12.948   6.113
63372SOL     OW91948  12.759   9.516   1.727
63372SOL    HW191949  12.797   9.438   1.687
63372SOL    HW291950  12.683   9.483   1.776
63373SOL     OW91951   7.199   6.597  10.420
63373SOL    HW191952   7.190   6.670  10.481
63373SOL    HW291953   7.218   6.639  10.336
63374SOL     OW91954   1.575  14.876  11.468
63374SOL    HW191955   1.573  14.848  11.559
63374SOL    HW291956   1.608  14.799  11.421
63375SOL     OW91957  12.282   3.478   1.695
63375SOL    HW191958  12.250   3.522   1.774
63375SOL    HW291959  12.203   3.462   1.643
63376SOL     OW91960   8.672   2.990   4.495
63376SOL    HW191961   8.751   3.020   4.539
63376SOL    HW291962   8.695   2.905   4.458
63377SOL     OW91963   1.824   1.547   9.905
63377SOL    HW191964   1.744   1.539   9.853
63377SOL    HW291965   1.849   1.457   9.925
63378SOL     OW91966   7.624   0.420  11.808
63378SOL    HW191967   7.619   0.344  11.865
63378SOL    HW291968   7.716   0.446  11.810
63379SOL     OW91969   1.704   4.385   8.528
63379SOL    HW191970   1.650   4.312   8.557
63379SOL    HW291971   1.692   4.388   8.433
63380SOL     OW91972  12.870  13.919   1.547
63380SOL    HW191973  12.906  13.930   1.635
63380SOL    HW291974  12.928  13.969   1.491
63381SOL     OW91975   2.146  10.850  10.987
63381SOL    HW191976   2.195  10.921  10.947
63381SOL    HW291977   2.209  10.808  11.046
63382SOL     OW91978  11.060  14.551   5.221
63382SOL    HW191979  10.984  14.583   5.269
63382SOL    HW291980  11.024  14.516   5.140
63383SOL     OW91981   2.325  11.376   3.762
63383SOL    HW191982   2.332  11.333   3.677
63383SOL    HW291983   2.369  11.316   3.823
63384SOL     OW91984  13.644   4.465   8.455
63384SOL    HW191985  13.723   4.453   8.402
63384SOL    HW291986  13.602   4.543   8.419
63385SOL     OW91987  11.912   2.425  12.048
63385SOL    HW191988  11.977   2.357  12.064
63385SOL    HW291989  11.853   2.388  11.984
63386SOL     OW91990   1.501   1.753  14.349
63386SOL    HW191991   1.541   1.820  14.404
63386SOL    HW291992   1.563   1.741  14.277
63387SOL     OW91993   2.672   3.568  10.286
63387SOL    HW191994   2.751   3.559  10.232
63387SOL    HW291995   2.704   3.600  10.370
63388SOL     OW91996   5.072   7.367  14.104
63388SOL    HW191997   5.137   7.424  14.064
63388SOL    HW291998   5.051   7.303  14.036
63389SOL     OW91999   2.631  12.760  14.317
63389SOL    HW192000   2.698  12.737  14.253
63389SOL    HW292001   2.594  12.842  14.285
63390SOL     OW92002   7.395  14.389  12.172
63390SOL    HW192003   7.403  14.422  12.082
63390SOL    HW292004   7.439  14.455  12.226
63391SOL     OW92005   8.393   7.358  13.746
63391SOL    HW192006   8.395   7.447  13.781
63391SOL    HW292007   8.463   7.356  13.681
63392SOL     OW92008  14.462  10.030   8.155
63392SOL    HW192009  14.509  10.070   8.082
63392SOL    HW292010  14.531  10.004   8.216
63393SOL     OW92011   3.630   4.264  11.197
63393SOL    HW192012   3.624   4.296  11.287
63393SOL    HW292013   3.720   4.231  11.189
63394SOL     OW92014   9.426   8.582   5.091
63394SOL    HW192015   9.346   8.594   5.039
63394SOL    HW292016   9.394   8.565   5.179
63395SOL     OW92017   8.726   8.069   9.454
63395SOL    HW192018   8.756   7.978   9.445
63395SOL    HW292019   8.657   8.078   9.388
63396SOL     OW92020   9.179   5.084   1.223
63396SOL    HW192021   9.192   5.146   1.151
63396SOL    HW292022   9.266   5.074   1.262
63397SOL     OW92023  14.395   4.309  11.973
63397SOL    HW192024  14.462   4.250  12.008
63397SOL    HW292025  14.343   4.255  11.915
63398SOL     OW92026   5.833   8.524   0.731
63398SOL    HW192027   5.809   8.513   0.639
63398SOL    HW292028   5.750   8.513   0.778
63399SOL     OW92029   2.863  10.013   8.158
63399SOL    HW192030   2.941   9.979   8.200
63399SOL    HW292031   2.799  10.020   8.229
63400SOL     OW92032   0.496   1.078  11.370
63400SOL    HW192033   0.438   1.057  11.443
63400SOL    HW292034   0.574   1.115  11.411
63401SOL     OW92035  10.156   3.833   7.499
63401SOL    HW192036  10.115   3.818   7.584
63401SOL    HW292037  10.248   3.811   7.512
63402SOL     OW92038  11.062  12.411   6.678
63402SOL    HW192039  11.137  12.469   6.672
63402SOL    HW292040  10.997  12.460   6.727
63403SOL     OW92041   7.542   5.223   0.774
63403SOL    HW192042   7.540   5.150   0.712
63403SOL    HW292043   7.594   5.291   0.731
63404SOL     OW92044   2.817   0.656  12.873
63404SOL    HW192045   2.766   0.628  12.949
63404SOL    HW292046   2.790   0.747  12.858
63405SOL     OW92047  12.217   8.598   6.643
63405SOL    HW192048  12.227   8.675   6.586
63405SOL    HW292049  12.237   8.630   6.731
63406SOL     OW92050  11.882   2.860   2.039
63406SOL    HW192051  11.883   2.772   2.003
63406SOL    HW292052  11.966   2.869   2.083
63407SOL     OW92053  13.168  11.440   8.599
63407SOL    HW192054  13.097  11.411   8.541
63407SOL    HW292055  13.139  11.525   8.631
63408SOL     OW92056   2.230   6.041   2.859
63408SOL    HW192057   2.315   6.014   2.826
63408SOL    HW292058   2.223   6.000   2.945
63409SOL     OW92059   2.983   2.985   7.048
63409SOL    HW192060   2.971   3.044   6.973
63409SOL    HW292061   2.990   3.044   7.123
63410SOL     OW92062   1.170   9.474   4.231
63410SOL    HW192063   1.153   9.421   4.153
63410SOL    HW292064   1.088   9.521   4.246
63411SOL     OW92065   2.247  13.043   7.616
63411SOL    HW192066   2.322  13.020   7.671
63411SOL    HW292067   2.210  13.121   7.658
63412SOL     OW92068   1.875   5.489   9.817
63412SOL    HW192069   1.885   5.455   9.906
63412SOL    HW292070   1.780   5.498   9.805
63413SOL     OW92071   9.216  13.925   7.878
63413SOL    HW192072   9.289  13.982   7.855
63413SOL    HW292073   9.232  13.902   7.970
63414SOL     OW92074  13.539  12.355   2.254
63414SOL    HW192075  13.541  12.271   2.208
63414SOL    HW292076  13.630  12.371   2.278
63415SOL     OW92077   5.944   2.637   6.187
63415SOL    HW192078   6.036   2.659   6.201
63415SOL    HW292079   5.943   2.593   6.102
63416SOL     OW92080   0.115  12.725  12.514
63416SOL    HW192081   0.199  12.731  12.560
63416SOL    HW292082   0.083  12.637  12.534
63417SOL     OW92083  10.207  13.694   1.290
63417SOL    HW192084  10.134  13.672   1.233
63417SOL    HW292085  10.269  13.741   1.234
63418SOL     OW92086   0.762   8.061  12.722
63418SOL    HW192087   0.768   8.030  12.632
63418SOL    HW292088   0.696   8.004  12.763
63419SOL     OW92089  11.408   3.926  13.515
63419SOL    HW192090  11.463   3.989  13.468
63419SOL    HW292091  11.457   3.906  13.595
63420SOL     OW92092  12.468  12.147   5.864
63420SOL    HW192093  12.427  12.231   5.843
63420SOL    HW292094  12.398  12.083   5.848
63421SOL     OW92095   1.366   9.711  12.415
63421SOL    HW192096   1.294   9.752  12.463
63421SOL    HW292097   1.434   9.697  12.481
63422SOL     OW92098   5.726   0.852   6.019
63422SOL    HW192099   5.767   0.874   6.103
63422SOL    HW292100   5.635   0.835   6.041
63423SOL     OW92101   1.342   2.561   7.219
63423SOL    HW192102   1.324   2.625   7.151
63423SOL    HW292103   1.372   2.612   7.294
63424SOL     OW92104   6.934   3.164   2.186
63424SOL    HW192105   6.973   3.094   2.134
63424SOL    HW292106   6.853   3.186   2.141
63425SOL     OW92107   9.671   6.306   7.939
63425SOL    HW192108   9.685   6.239   8.006
63425SOL    HW292109   9.614   6.264   7.875
63426SOL     OW92110  12.779   6.771   3.335
63426SOL    HW192111  12.814   6.698   3.283
63426SOL    HW292112  12.856   6.825   3.354
63427SOL     OW92113   6.222   3.924  11.015
63427SOL    HW192114   6.204   3.958  11.102
63427SOL    HW292115   6.137   3.899  10.980
63428SOL     OW92116   0.172  10.551   7.121
63428SOL    HW192117   0.214  10.633   7.094
63428SOL    HW292118   0.086  10.579   7.154
63429SOL     OW92119   8.444   0.264   3.426
63429SOL    HW192120   8.497   0.203   3.476
63429SOL    HW292121   8.365   0.215   3.403
63430SOL     OW92122   0.152  13.591   3.670
63430SOL    HW192123   0.084  13.653   3.643
63430SOL    HW292124   0.217  13.645   3.716
63431SOL     OW92125   8.732  10.127   3.507
63431SOL    HW192126   8.655  10.153   3.457
63431SOL    HW292127   8.710  10.041   3.543
63432SOL     OW92128  10.429  10.715  10.896
63432SOL    HW192129  10.520  10.717  10.928
63432SOL    HW292130  10.413  10.624  10.873
63433SOL     OW92131  10.883  10.333   3.493
63433SOL    HW192132  10.825  10.408   3.509
63433SOL    HW292133  10.880  10.283   3.574
63434SOL     OW92134  13.388  11.695  11.749
63434SOL    HW192135  13.340  11.614  11.733
63434SOL    HW292136  13.478  11.675  11.723
63435SOL     OW92137  13.308   9.937   8.991
63435SOL    HW192138  13.349   9.865   8.944
63435SOL    HW292139  13.375   9.965   9.054
63436SOL     OW92140   8.831   1.726  11.388
63436SOL    HW192141   8.801   1.660  11.451
63436SOL    HW292142   8.788   1.701  11.306
63437SOL     OW92143   1.328  10.325   1.611
63437SOL    HW192144   1.340  10.283   1.696
63437SOL    HW292145   1.331  10.253   1.548
63438SOL     OW92146  10.216  14.517   6.622
63438SOL    HW192147  10.255  14.437   6.586
63438SOL    HW292148  10.167  14.554   6.549
63439SOL     OW92149   0.590   4.747   4.740
63439SOL    HW192150   0.658   4.682   4.761
63439SOL    HW292151   0.563   4.781   4.825
63440SOL     OW92152   6.027   4.377   0.798
63440SOL    HW192153   6.062   4.320   0.729
63440SOL    HW292154   6.031   4.324   0.877
63441SOL     OW92155   9.637   8.909   0.682
63441SOL    HW192156   9.658   8.950   0.766
63441SOL    HW292157   9.556   8.862   0.698
63442SOL     OW92158  14.574   7.921   2.646
63442SOL    HW192159  14.646   7.954   2.593
63442SOL    HW292160  14.542   7.997   2.695
63443SOL     OW92161   4.095   6.636  12.798
63443SOL    HW192162   4.006   6.665  12.816
63443SOL    HW292163   4.142   6.650  12.880
63444SOL     OW92164  11.479   2.648  14.786
63444SOL    HW192165  11.525   2.686  14.861
63444SOL    HW292166  11.394   2.691  14.785
63445SOL     OW92167   5.528  11.938   8.833
63445SOL    HW192168   5.513  11.862   8.777
63445SOL    HW292169   5.602  11.913   8.888
63446SOL     OW92170   4.985   7.797  12.683
63446SOL    HW192171   4.929   7.735  12.637
63446SOL    HW292172   5.073   7.760  12.676
63447SOL     OW92173   5.014   4.715   3.152
63447SOL    HW192174   5.098   4.702   3.109
63447SOL    HW292175   5.035   4.723   3.245
63448SOL     OW92176   2.555   7.614  11.246
63448SOL    HW192177   2.471   7.633  11.288
63448SOL    HW292178   2.605   7.565  11.311
63449SOL     OW92179  11.063   9.841   8.512
63449SOL    HW192180  11.038   9.869   8.424
63449SOL    HW292181  10.988   9.863   8.567
63450SOL     OW92182   5.592   4.187   4.797
63450SOL    HW192183   5.576   4.140   4.715
63450SOL    HW292184   5.668   4.241   4.780
63451SOL     OW92185   8.935   6.864  10.012
63451SOL    HW192186   8.855   6.877   9.961
63451SOL    HW292187   9.005   6.894   9.954
63452SOL     OW92188   6.569   7.560   8.795
63452SOL    HW192189   6.517   7.640   8.805
63452SOL    HW292190   6.573   7.545   8.701
63453SOL     OW92191   4.274  14.009   2.372
63453SOL    HW192192   4.280  14.011   2.468
63453SOL    HW292193   4.211  13.939   2.353
63454SOL     OW92194   5.657  14.731  10.971
63454SOL    HW192195   5.720  14.800  10.991
63454SOL    HW292196   5.602  14.768  10.902
63455SOL     OW92197  10.265  10.847   9.527
63455SOL    HW192198  10.329  10.808   9.585
63455SOL    HW292199  10.186  10.857   9.580
63456SOL     OW92200  13.155   8.291  11.214
63456SOL    HW192201  13.117   8.355  11.154
63456SOL    HW292202  13.170   8.341  11.295
63457SOL     OW92203   3.575  12.517   3.343
63457SOL    HW192204   3.600  12.470   3.263
63457SOL    HW292205   3.596  12.609   3.324
63458SOL     OW92206   8.460   2.072   1.796
63458SOL    HW192207   8.426   1.994   1.751
63458SOL    HW292208   8.397   2.141   1.774
63459SOL     OW92209   9.945  10.860  11.532
63459SOL    HW192210  10.000  10.837  11.457
63459SOL    HW292211   9.867  10.804  11.522
63460SOL     OW92212   8.168  10.747  13.003
63460SOL    HW192213   8.155  10.793  13.086
63460SOL    HW292214   8.149  10.655  13.024
63461SOL     OW92215   3.501  12.048   5.393
63461SOL    HW192216   3.539  11.992   5.460
63461SOL    HW292217   3.526  12.006   5.310
63462SOL     OW92218   9.808   0.888  12.213
63462SOL    HW192219   9.767   0.872  12.298
63462SOL    HW292220   9.775   0.818  12.157
63463SOL     OW92221  13.538  11.209  12.438
63463SOL    HW192222  13.581  11.177  12.359
63463SOL    HW292223  13.609  11.245  12.491
63464SOL     OW92224   0.408  11.171   7.488
63464SOL    HW192225   0.325  11.141   7.524
63464SOL    HW292226   0.393  11.177   7.393
63465SOL     OW92227   7.287  13.861   2.253
63465SOL    HW192228   7.262  13.808   2.177
63465SOL    HW292229   7.244  13.820   2.327
63466SOL     OW92230  14.272  14.336   1.295
63466SOL    HW192231  14.248  14.258   1.244
63466SOL    HW292232  14.198  14.348   1.355
63467SOL     OW92233   5.995  10.750   5.940
63467SOL    HW192234   6.056  10.766   5.867
63467SOL    HW292235   6.042  10.690   5.998
63468SOL     OW92236  13.985  11.602  10.107
63468SOL    HW192237  13.945  11.687  10.123
63468SOL    HW292238  13.911  11.542  10.098
63469SOL     OW92239   9.017  13.078   4.056
63469SOL    HW192240   9.072  13.155   4.043
63469SOL    HW292241   8.933  13.101   4.016
63470SOL     OW92242   4.629   5.057   3.771
63470SOL    HW192243   4.699   5.106   3.813
63470SOL    HW292244   4.564   5.123   3.748
63471SOL     OW92245  12.525   1.862  13.280
63471SOL    HW192246  12.486   1.821  13.358
63471SOL    HW292247  12.469   1.937  13.262
63472SOL     OW92248   2.088   0.734   2.230
63472SOL    HW192249   2.023   0.770   2.170
63472SOL    HW292250   2.120   0.810   2.279
63473SOL     OW92251   8.617  11.719  13.287
63473SOL    HW192252   8.547  11.677  13.237
63473SOL    HW292253   8.577  11.739  13.372
63474SOL     OW92254   0.206   3.556   8.262
63474SOL    HW192255   0.232   3.644   8.234
63474SOL    HW292256   0.204   3.561   8.358
63475SOL     OW92257  12.691  13.334   0.857
63475SOL    HW192258  12.629  13.262   0.866
63475SOL    HW292259  12.640  13.405   0.818
63476SOL     OW92260   5.409   1.259  12.496
63476SOL    HW192261   5.483   1.212  12.533
63476SOL    HW292262   5.390   1.213  12.414
63477SOL     OW92263  12.738   5.226   6.508
63477SOL    HW192264  12.799   5.295   6.531
63477SOL    HW292265  12.791   5.159   6.465
63478SOL     OW92266   9.153   0.967  10.433
63478SOL    HW192267   9.075   0.920  10.461
63478SOL    HW292268   9.159   1.042  10.492
63479SOL     OW92269   3.541  13.541   8.000
63479SOL    HW192270   3.537  13.509   8.090
63479SOL    HW292271   3.473  13.608   7.995
63480SOL     OW92272   1.918   1.247   0.756
63480SOL    HW192273   1.835   1.201   0.771
63480SOL    HW292274   1.947   1.273   0.843
63481SOL     OW92275   3.098   5.499   3.755
63481SOL    HW192276   3.012   5.539   3.741
63481SOL    HW292277   3.159   5.557   3.709
63482SOL     OW92278   2.159   4.749   6.158
63482SOL    HW192279   2.110   4.753   6.076
63482SOL    HW292280   2.218   4.674   6.147
63483SOL     OW92281   2.752  10.225   9.496
63483SOL    HW192282   2.768  10.142   9.541
63483SOL    HW292283   2.659  10.244   9.513
63484SOL     OW92284  14.308   9.575   6.198
63484SOL    HW192285  14.276   9.501   6.250
63484SOL    HW292286  14.402   9.560   6.189
63485SOL     OW92287   2.244   6.558  10.924
63485SOL    HW192288   2.298   6.607  10.862
63485SOL    HW292289   2.177   6.517  10.870
63486SOL     OW92290  14.112   5.787   5.825
63486SOL    HW192291  14.037   5.729   5.840
63486SOL    HW292292  14.106   5.811   5.732
63487SOL     OW92293   6.145  11.316   0.550
63487SOL    HW192294   6.124  11.307   0.457
63487SOL    HW292295   6.236  11.286   0.558
63488SOL     OW92296  12.839   8.139  14.795
63488SOL    HW192297  12.914   8.181  14.753
63488SOL    HW292298  12.765   8.156  14.737
63489SOL     OW92299  11.622   6.772   8.170
63489SOL    HW192300  11.611   6.735   8.258
63489SOL    HW292301  11.689   6.840   8.182
63490SOL     OW92302  11.591  12.033  10.567
63490SOL    HW192303  11.556  11.993  10.487
63490SOL    HW292304  11.528  12.007  10.636
63491SOL     OW92305  10.677  14.488   1.678
63491SOL    HW192306  10.669  14.401   1.716
63491SOL    HW292307  10.589  14.507   1.644
63492SOL     OW92308   1.327   0.850  12.960
63492SOL    HW192309   1.386   0.784  12.924
63492SOL    HW292310   1.257   0.799  13.002
63493SOL     OW92311   4.951   3.709   2.218
63493SOL    HW192312   5.040   3.674   2.218
63493SOL    HW292313   4.961   3.802   2.234
63494SOL     OW92314  11.650   3.082   7.465
63494SOL    HW192315  11.643   3.039   7.379
63494SOL    HW292316  11.717   3.149   7.452
63495SOL     OW92317   4.558  10.540   3.807
63495SOL    HW192318   4.502  10.473   3.766
63495SOL    HW292319   4.620  10.564   3.739
63496SOL     OW92320   0.794   4.454   0.558
63496SOL    HW192321   0.739   4.391   0.605
63496SOL    HW292322   0.761   4.540   0.583
63497SOL     OW92323   8.838  11.942   1.566
63497SOL    HW192324   8.862  12.034   1.554
63497SOL    HW292325   8.794  11.918   1.484
63498SOL     OW92326  13.649   1.267   8.458
63498SOL    HW192327  13.701   1.326   8.514
63498SOL    HW292328  13.712   1.202   8.427
63499SOL     OW92329  12.445   4.003   4.182
63499SOL    HW192330  12.368   4.056   4.163
63499SOL    HW292331  12.513   4.040   4.126
63500SOL     OW92332  11.088   0.987   1.137
63500SOL    HW192333  11.168   0.961   1.091
63500SOL    HW292334  11.018   0.941   1.092
63501SOL     OW92335  13.309   3.013  14.716
63501SOL    HW192336  13.400   3.015  14.747
63501SOL    HW292337  13.313   2.966  14.633
63502SOL     OW92338  11.934   7.318   7.245
63502SOL    HW192339  11.920   7.281   7.158
63502SOL    HW292340  11.857   7.291   7.295
63503SOL     OW92341  12.303  10.644   1.488
63503SOL    HW192342  12.345  10.571   1.444
63503SOL    HW292343  12.211  10.617   1.497
63504SOL     OW92344   6.865   1.671   3.596
63504SOL    HW192345   6.810   1.607   3.641
63504SOL    HW292346   6.928   1.700   3.663
63505SOL     OW92347  13.758   0.483  11.106
63505SOL    HW192348  13.817   0.517  11.174
63505SOL    HW292349  13.758   0.550  11.038
63506SOL     OW92350   3.350  13.541  13.635
63506SOL    HW192351   3.297  13.540  13.714
63506SOL    HW292352   3.426  13.595  13.656
63507SOL     OW92353  10.780   9.582   4.459
63507SOL    HW192354  10.866   9.559   4.425
63507SOL    HW292355  10.775   9.538   4.544
63508SOL     OW92356  14.029   4.747  14.397
63508SOL    HW192357  14.103   4.696  14.430
63508SOL    HW292358  13.960   4.732  14.461
63509SOL     OW92359   3.793   6.004   3.138
63509SOL    HW192360   3.821   6.022   3.228
63509SOL    HW292361   3.778   5.909   3.136
63510SOL     OW92362   0.883   0.257  10.793
63510SOL    HW192363   0.846   0.228  10.710
63510SOL    HW292364   0.897   0.176  10.842
63511SOL     OW92365  10.268   4.939   7.303
63511SOL    HW192366  10.214   4.940   7.382
63511SOL    HW292367  10.312   5.024   7.304
63512SOL     OW92368   4.771   3.326  12.189
63512SOL    HW192369   4.747   3.265  12.259
63512SOL    HW292370   4.735   3.287  12.109
63513SOL     OW92371  13.156   7.445  10.158
63513SOL    HW192372  13.188   7.354  10.162
63513SOL    HW292373  13.123   7.463  10.246
63514SOL     OW92374  10.095   5.603  14.290
63514SOL    HW192375  10.049   5.575  14.369
63514SOL    HW292376  10.119   5.694  14.306
63515SOL     OW92377  13.326   8.131   1.454
63515SOL    HW192378  13.358   8.043   1.472
63515SOL    HW292379  13.339   8.179   1.536
63516SOL     OW92380  12.964   0.790   0.765
63516SOL    HW192381  12.928   0.720   0.821
63516SOL    HW292382  12.888   0.822   0.717
63517SOL     OW92383   6.292   8.820   0.509
63517SOL    HW192384   6.238   8.772   0.446
63517SOL    HW292385   6.241   8.820   0.590
63518SOL     OW92386  11.683  11.256   5.863
63518SOL    HW192387  11.762  11.273   5.914
63518SOL    HW292388  11.630  11.200   5.918
63519SOL     OW92389   9.947  10.964   3.431
63519SOL    HW192390  10.027  11.003   3.396
63519SOL    HW292391   9.894  11.039   3.458
63520SOL     OW92392   4.781   9.523   0.730
63520SOL    HW192393   4.702   9.559   0.690
63520SOL    HW292394   4.843   9.595   0.731
63521SOL     OW92395  11.919   3.172   8.930
63521SOL    HW192396  11.965   3.240   8.880
63521SOL    HW292397  11.936   3.091   8.882
63522SOL     OW92398   5.752   3.909  14.293
63522SOL    HW192399   5.663   3.891  14.263
63522SOL    HW292400   5.808   3.861  14.232
63523SOL     OW92401   3.038  13.258   3.685
63523SOL    HW192402   3.061  13.327   3.747
63523SOL    HW292403   3.105  13.191   3.698
63524SOL     OW92404   4.198   4.987   3.306
63524SOL    HW192405   4.234   5.022   3.387
63524SOL    HW292406   4.106   4.970   3.325
63525SOL     OW92407   8.981   8.524   3.823
63525SOL    HW192408   9.069   8.528   3.859
63525SOL    HW292409   8.930   8.584   3.877
63526SOL     OW92410  10.412   6.022   4.268
63526SOL    HW192411  10.481   6.089   4.276
63526SOL    HW292412  10.339   6.057   4.318
63527SOL     OW92413   3.480   7.966  12.667
63527SOL    HW192414   3.440   7.884  12.698
63527SOL    HW292415   3.494   7.951  12.573
63528SOL     OW92416  10.663  14.586   5.057
63528SOL    HW192417  10.674  14.626   5.143
63528SOL    HW292418  10.751  14.557   5.032
63529SOL     OW92419  13.743   9.682   7.083
63529SOL    HW192420  13.687   9.757   7.104
63529SOL    HW292421  13.827   9.704   7.123
63530SOL     OW92422   6.727   3.476   6.908
63530SOL    HW192423   6.740   3.444   6.819
63530SOL    HW292424   6.765   3.564   6.907
63531SOL     OW92425   1.461  14.790  10.851
63531SOL    HW192426   1.493  14.863  10.904
63531SOL    HW292427   1.375  14.819  10.821
63532SOL     OW92428   5.365   3.892   3.083
63532SOL    HW192429   5.311   3.903   3.161
63532SOL    HW292430   5.403   3.978   3.067
63533SOL     OW92431   4.549  12.889   5.697
63533SOL    HW192432   4.617  12.933   5.647
63533SOL    HW292433   4.527  12.950   5.768
63534SOL     OW92434   1.291  12.686   5.548
63534SOL    HW192435   1.210  12.734   5.566
63534SOL    HW292436   1.263  12.606   5.503
63535SOL     OW92437   8.142   9.450  11.031
63535SOL    HW192438   8.111   9.360  11.027
63535SOL    HW292439   8.152   9.476  10.939
63536SOL     OW92440  11.397   3.919   1.083
63536SOL    HW192441  11.314   3.879   1.110
63536SOL    HW292442  11.425   3.867   1.008
63537SOL     OW92443  10.462   2.216  13.103
63537SOL    HW192444  10.407   2.231  13.180
63537SOL    HW292445  10.522   2.146  13.131
63538SOL     OW92446   9.242   3.034   4.844
63538SOL    HW192447   9.211   3.069   4.760
63538SOL    HW292448   9.334   3.059   4.848
63539SOL     OW92449  10.211   1.349  13.011
63539SOL    HW192450  10.270   1.403  12.959
63539SOL    HW292451  10.128   1.397  13.012
63540SOL     OW92452   8.658   7.955   5.006
63540SOL    HW192453   8.579   7.968   4.955
63540SOL    HW292454   8.729   7.955   4.942
63541SOL     OW92455  10.445  13.961   8.745
63541SOL    HW192456  10.446  13.951   8.840
63541SOL    HW292457  10.370  14.017   8.728
63542SOL     OW92458   4.048  11.644  11.820
63542SOL    HW192459   4.076  11.697  11.894
63542SOL    HW292460   4.115  11.576  11.812
63543SOL     OW92461   7.259   0.329   0.764
63543SOL    HW192462   7.235   0.410   0.808
63543SOL    HW292463   7.281   0.356   0.675
63544SOL     OW92464   4.524   4.216   2.429
63544SOL    HW192465   4.441   4.203   2.382
63544SOL    HW292466   4.589   4.175   2.373
63545SOL     OW92467  14.015   1.225   6.937
63545SOL    HW192468  14.069   1.304   6.931
63545SOL    HW292469  14.020   1.186   6.850
63546SOL     OW92470  10.613  11.017  12.390
63546SOL    HW192471  10.626  10.984  12.302
63546SOL    HW292472  10.677  11.088  12.399
63547SOL     OW92473  12.421   7.268   8.672
63547SOL    HW192474  12.472   7.344   8.644
63547SOL    HW292475  12.340   7.273   8.621
63548SOL     OW92476   7.119   3.019  12.750
63548SOL    HW192477   7.119   2.996  12.657
63548SOL    HW292478   7.058   2.957  12.790
63549SOL     OW92479   1.743  10.909   6.395
63549SOL    HW192480   1.771  10.817   6.397
63549SOL    HW292481   1.819  10.957   6.364
63550SOL     OW92482   5.597   8.839   7.660
63550SOL    HW192483   5.522   8.848   7.718
63550SOL    HW292484   5.671   8.822   7.718
63551SOL     OW92485  12.008   2.973  10.886
63551SOL    HW192486  12.080   3.001  10.944
63551SOL    HW292487  11.982   2.887  10.918
63552SOL     OW92488   7.485  12.312  13.953
63552SOL    HW192489   7.402  12.269  13.974
63552SOL    HW292490   7.548  12.277  14.016
63553SOL     OW92491   9.221   3.823   9.770
63553SOL    HW192492   9.178   3.782   9.845
63553SOL    HW292493   9.310   3.789   9.773
63554SOL     OW92494  11.071   9.571   6.757
63554SOL    HW192495  11.029   9.552   6.673
63554SOL    HW292496  11.001   9.607   6.811
63555SOL     OW92497  12.056  14.645   4.593
63555SOL    HW192498  11.984  14.706   4.608
63555SOL    HW292499  12.066  14.643   4.498
63556SOL     OW92500   3.748   8.670   1.183
63556SOL    HW192501   3.693   8.733   1.138
63556SOL    HW292502   3.799   8.628   1.114
63557SOL     OW92503   4.278   9.387  10.737
63557SOL    HW192504   4.188   9.357  10.720
63557SOL    HW292505   4.279   9.477  10.705
63558SOL     OW92506   9.298   0.162   4.551
63558SOL    HW192507   9.390   0.184   4.539
63558SOL    HW292508   9.293   0.068   4.534
63559SOL     OW92509  11.422  11.522   7.158
63559SOL    HW192510  11.515  11.516   7.135
63559SOL    HW292511  11.377  11.521   7.073
63560SOL     OW92512  11.570   1.411   3.125
63560SOL    HW192513  11.657   1.449   3.136
63560SOL    HW292514  11.570   1.376   3.036
63561SOL     OW92515   7.261   7.934   0.724
63561SOL    HW192516   7.343   7.917   0.771
63561SOL    HW292517   7.230   8.018   0.759
63562SOL     OW92518   4.263  11.361   8.510
63562SOL    HW192519   4.204  11.308   8.458
63562SOL    HW292520   4.346  11.360   8.461
63563SOL     OW92521   0.710  11.907  13.132
63563SOL    HW192522   0.701  11.935  13.223
63563SOL    HW292523   0.648  11.834  13.124
63564SOL     OW92524  11.997   0.026   2.294
63564SOL    HW192525  12.028   0.041   2.383
63564SOL    HW292526  12.039   0.095   2.242
63565SOL     OW92527   6.038  12.895   5.378
63565SOL    HW192528   6.031  12.990   5.381
63565SOL    HW292529   6.030  12.873   5.285
63566SOL     OW92530   4.588   2.713   3.548
63566SOL    HW192531   4.528   2.659   3.497
63566SOL    HW292532   4.668   2.716   3.495
63567SOL     OW92533   2.402   8.721   8.297
63567SOL    HW192534   2.369   8.811   8.306
63567SOL    HW292535   2.331   8.675   8.251
63568SOL     OW92536   6.464  12.237  14.409
63568SOL    HW192537   6.552  12.251  14.444
63568SOL    HW292538   6.415  12.198  14.481
63569SOL     OW92539   2.314   6.298  12.303
63569SOL    HW192540   2.325   6.373  12.361
63569SOL    HW292541   2.285   6.336  12.220
63570SOL     OW92542   8.527   5.652  11.337
63570SOL    HW192543   8.540   5.649  11.242
63570SOL    HW292544   8.611   5.679  11.373
63571SOL     OW92545  11.257   5.291   3.776
63571SOL    HW192546  11.177   5.337   3.799
63571SOL    HW292547  11.241   5.200   3.801
63572SOL     OW92548   6.218   5.511  12.214
63572SOL    HW192549   6.152   5.579  12.228
63572SOL    HW292550   6.300   5.559  12.201
63573SOL     OW92551  11.383   9.589   3.722
63573SOL    HW192552  11.391   9.626   3.634
63573SOL    HW292553  11.458   9.531   3.731
63574SOL     OW92554   2.703  12.270   2.282
63574SOL    HW192555   2.659  12.228   2.356
63574SOL    HW292556   2.788  12.225   2.276
63575SOL     OW92557   9.973   6.325   4.624
63575SOL    HW192558   9.893   6.298   4.670
63575SOL    HW292559  10.015   6.243   4.599
63576SOL     OW92560   2.582  13.179  12.607
63576SOL    HW192561   2.508  13.182  12.547
63576SOL    HW292562   2.622  13.093  12.592
63577SOL     OW92563   9.340  13.879  12.909
63577SOL    HW192564   9.368  13.839  12.827
63577SOL    HW292565   9.413  13.935  12.935
63578SOL     OW92566   9.994   6.469  14.217
63578SOL    HW192567  10.029   6.489  14.131
63578SOL    HW292568  10.062   6.496  14.278
63579SOL     OW92569   2.232  14.714   6.128
63579SOL    HW192570   2.220  14.629   6.086
63579SOL    HW292571   2.287  14.696   6.204
63580SOL     OW92572  14.754   8.952  12.199
63580SOL    HW192573  14.762   9.017  12.129
63580SOL    HW292574  14.771   9.001  12.280
63581SOL     OW92575   9.835   8.710   6.540
63581SOL    HW192576   9.924   8.746   6.540
63581SOL    HW292577   9.833   8.653   6.616
63582SOL     OW92578   2.993   0.301   1.538
63582SOL    HW192579   2.941   0.305   1.457
63582SOL    HW292580   3.057   0.371   1.528
63583SOL     OW92581   1.228  14.227   0.818
63583SOL    HW192582   1.174  14.258   0.745
63583SOL    HW292583   1.318  14.228   0.784
63584SOL     OW92584  12.969   2.021   0.068
63584SOL    HW192585  12.975   1.930   0.039
63584SOL    HW292586  13.059   2.045   0.089
63585SOL     OW92587  10.056   2.661   1.981
63585SOL    HW192588  10.025   2.589   2.036
63585SOL    HW292589  10.049   2.739   2.036
63586SOL     OW92590   0.345   6.797   3.774
63586SOL    HW192591   0.326   6.889   3.788
63586SOL    HW292592   0.439   6.795   3.753
63587SOL     OW92593  11.612   1.311   8.202
63587SOL    HW192594  11.657   1.362   8.269
63587SOL    HW292595  11.520   1.311   8.228
63588SOL     OW92596   5.204  11.228   2.741
63588SOL    HW192597   5.203  11.319   2.770
63588SOL    HW292598   5.148  11.226   2.664
63589SOL     OW92599   1.265   9.830   9.712
63589SOL    HW192600   1.170   9.821   9.720
63589SOL    HW292601   1.298   9.818   9.801
63590SOL     OW92602   3.420  12.092  13.890
63590SOL    HW192603   3.498  12.089  13.945
63590SOL    HW292604   3.379  12.175  13.911
63591SOL     OW92605   1.192   5.913   5.210
63591SOL    HW192606   1.236   5.989   5.173
63591SOL    HW292607   1.102   5.920   5.179
63592SOL     OW92608  14.775   5.059   6.637
63592SOL    HW192609  14.821   4.975   6.641
63592SOL    HW292610  14.767   5.078   6.543
63593SOL     OW92611  11.650   3.914  10.519
63593SOL    HW192612  11.671   4.002  10.489
63593SOL    HW292613  11.731   3.884  10.560
63594SOL     OW92614  11.017   8.175   4.468
63594SOL    HW192615  11.089   8.208   4.414
63594SOL    HW292616  10.952   8.145   4.405
63595SOL     OW92617  12.933   1.161  10.722
63595SOL    HW192618  13.001   1.184  10.659
63595SOL    HW292619  12.937   1.231  10.788
63596SOL     OW92620   0.585   6.407   2.053
63596SOL    HW192621   0.568   6.405   1.959
63596SOL    HW292622   0.532   6.336   2.089
63597SOL     OW92623   4.843   8.290   6.579
63597SOL    HW192624   4.767   8.326   6.534
63597SOL    HW292625   4.879   8.364   6.628
63598SOL     OW92626  12.302  12.029   1.810
63598SOL    HW192627  12.366  12.084   1.765
63598SOL    HW292628  12.258  11.981   1.740
63599SOL     OW92629  14.015   4.460   6.722
63599SOL    HW192630  14.023   4.372   6.759
63599SOL    HW292631  14.025   4.447   6.627
63600SOL     OW92632  13.816   7.422  13.640
63600SOL    HW192633  13.776   7.344  13.678
63600SOL    HW292634  13.860   7.390  13.562
63601SOL     OW92635   3.854   5.609  12.236
63601SOL    HW192636   3.783   5.588  12.176
63601SOL    HW292637   3.925   5.550  12.210
63602SOL     OW92638   2.775   6.898   3.426
63602SOL    HW192639   2.716   6.823   3.422
63602SOL    HW292640   2.717   6.974   3.420
63603SOL     OW92641  11.323   8.679  11.352
63603SOL    HW192642  11.391   8.652  11.414
63603SOL    HW292643  11.241   8.668  11.400
63604SOL     OW92644   2.133   0.733  13.690
63604SOL    HW192645   2.112   0.750  13.598
63604SOL    HW292646   2.076   0.661  13.715
63605SOL     OW92647  12.898   7.534  10.938
63605SOL    HW192648  12.956   7.462  10.965
63605SOL    HW292649  12.902   7.597  11.010
63606SOL     OW92650  12.543   4.785   2.696
63606SOL    HW192651  12.552   4.774   2.601
63606SOL    HW292652  12.522   4.878   2.707
63607SOL     OW92653   6.076   5.459   7.415
63607SOL    HW192654   6.038   5.509   7.343
63607SOL    HW292655   6.081   5.521   7.488
63608SOL     OW92656   8.108   2.754   6.704
63608SOL    HW192657   8.033   2.700   6.679
63608SOL    HW292658   8.087   2.785   6.793
63609SOL     OW92659   3.426  14.251  10.404
63609SOL    HW192660   3.347  14.272  10.454
63609SOL    HW292661   3.424  14.155  10.397
63610SOL     OW92662   6.900   6.053  14.498
63610SOL    HW192663   6.990   6.050  14.530
63610SOL    HW292664   6.846   6.047  14.577
63611SOL     OW92665  10.720   2.941   7.667
63611SOL    HW192666  10.671   2.861   7.647
63611SOL    HW292667  10.688   3.006   7.604
63612SOL     OW92668   8.239  12.841  13.586
63612SOL    HW192669   8.155  12.848  13.632
63612SOL    HW292670   8.281  12.764  13.623
63613SOL     OW92671   0.777   3.911   0.200
63613SOL    HW192672   0.804   3.906   0.292
63613SOL    HW292673   0.684   3.933   0.204
63614SOL     OW92674   4.893  13.924   4.012
63614SOL    HW192675   4.868  13.902   3.922
63614SOL    HW292676   4.954  13.997   4.003
63615SOL     OW92677   4.405   2.693  14.033
63615SOL    HW192678   4.481   2.749  14.019
63615SOL    HW292679   4.344   2.717  13.964
63616SOL     OW92680   3.864  10.340   0.622
63616SOL    HW192681   3.889  10.361   0.712
63616SOL    HW292682   3.866  10.425   0.576
63617SOL     OW92683   1.705  14.260  12.668
63617SOL    HW192684   1.725  14.234  12.758
63617SOL    HW292685   1.699  14.355  12.671
63618SOL     OW92686  13.176   0.587   5.749
63618SOL    HW192687  13.092   0.566   5.790
63618SOL    HW292688  13.169   0.551   5.660
63619SOL     OW92689   8.038   8.554  14.395
63619SOL    HW192690   8.093   8.574  14.319
63619SOL    HW292691   8.085   8.485  14.442
63620SOL     OW92692   0.862   3.653   4.002
63620SOL    HW192693   0.799   3.605   3.947
63620SOL    HW292694   0.947   3.621   3.973
63621SOL     OW92695  13.320   8.784   8.401
63621SOL    HW192696  13.261   8.712   8.377
63621SOL    HW292697  13.406   8.743   8.411
63622SOL     OW92698  12.073   7.372  13.176
63622SOL    HW192699  12.100   7.283  13.201
63622SOL    HW292700  11.977   7.368  13.177
63623SOL     OW92701   4.508  14.469  13.976
63623SOL    HW192702   4.437  14.533  13.969
63623SOL    HW292703   4.471  14.389  13.937
63624SOL     OW92704   1.415   1.194   0.514
63624SOL    HW192705   1.323   1.177   0.494
63624SOL    HW292706   1.420   1.290   0.520
63625SOL     OW92707   6.167   2.203   2.084
63625SOL    HW192708   6.217   2.150   2.146
63625SOL    HW292709   6.131   2.274   2.137
63626SOL     OW92710  11.644   6.316  11.123
63626SOL    HW192711  11.577   6.248  11.131
63626SOL    HW292712  11.631   6.371  11.200
63627SOL     OW92713   4.830  14.196   9.167
63627SOL    HW192714   4.901  14.142   9.200
63627SOL    HW292715   4.798  14.243   9.244
63628SOL     OW92716   3.531   2.269   4.914
63628SOL    HW192717   3.482   2.271   4.832
63628SOL    HW292718   3.557   2.177   4.924
63629SOL     OW92719   5.009   9.130  11.245
63629SOL    HW192720   5.012   9.070  11.320
63629SOL    HW292721   5.101   9.151  11.228
63630SOL     OW92722   4.315  14.443   5.518
63630SOL    HW192723   4.394  14.396   5.490
63630SOL    HW292724   4.264  14.377   5.565
63631SOL     OW92725   8.159   1.747   6.538
63631SOL    HW192726   8.197   1.673   6.492
63631SOL    HW292727   8.154   1.719   6.630
63632SOL     OW92728   8.048   9.658   2.592
63632SOL    HW192729   7.966   9.702   2.618
63632SOL    HW292730   8.063   9.686   2.502
63633SOL     OW92731   8.763  13.868  14.546
63633SOL    HW192732   8.854  13.895  14.554
63633SOL    HW292733   8.736  13.897  14.459
63634SOL     OW92734   0.156   8.969   7.047
63634SOL    HW192735   0.121   8.880   7.035
63634SOL    HW292736   0.223   8.959   7.115
63635SOL     OW92737   5.863   5.220  10.026
63635SOL    HW192738   5.931   5.219   9.959
63635SOL    HW292739   5.786   5.185   9.981
63636SOL     OW92740  14.544  14.645   9.018
63636SOL    HW192741  14.457  14.615   8.994
63636SOL    HW292742  14.567  14.711   8.953
63637SOL     OW92743   2.534   9.084  11.333
63637SOL    HW192744   2.523   9.077  11.428
63637SOL    HW292745   2.519   8.996  11.301
63638SOL     OW92746   5.495  12.955   0.416
63638SOL    HW192747   5.581  12.991   0.394
63638SOL    HW292748   5.450  12.951   0.332
63639SOL     OW92749  10.045   4.303  11.370
63639SOL    HW192750  10.133   4.287  11.403
63639SOL    HW292751  10.006   4.363  11.433
63640SOL     OW92752   6.679   0.805   7.633
63640SOL    HW192753   6.690   0.754   7.713
63640SOL    HW292754   6.672   0.896   7.662
63641SOL     OW92755  12.820   9.960   0.128
63641SOL    HW192756  12.885  10.004   0.182
63641SOL    HW292757  12.814   9.872   0.165
63642SOL     OW92758  10.745  13.975   5.668
63642SOL    HW192759  10.729  13.988   5.762
63642SOL    HW292760  10.685  13.904   5.643
63643SOL     OW92761  12.961   6.182   4.469
63643SOL    HW192762  12.981   6.088   4.478
63643SOL    HW292763  12.965   6.198   4.374
63644SOL     OW92764   8.302  12.758  10.401
63644SOL    HW192765   8.329  12.668  10.415
63644SOL    HW292766   8.269  12.787  10.487
63645SOL     OW92767  14.414   5.872  13.449
63645SOL    HW192768  14.416   5.777  13.440
63645SOL    HW292769  14.452   5.904  13.367
63646SOL     OW92770  13.372   0.535   4.979
63646SOL    HW192771  13.353   0.465   4.916
63646SOL    HW292772  13.427   0.597   4.930
63647SOL     OW92773   9.351   4.033   0.882
63647SOL    HW192774   9.395   4.116   0.898
63647SOL    HW292775   9.402   3.968   0.931
63648SOL     OW92776   6.334  11.610  10.223
63648SOL    HW192777   6.376  11.567  10.149
63648SOL    HW292778   6.284  11.681  10.184
63649SOL     OW92779   8.188   3.321   9.689
63649SOL    HW192780   8.206   3.400   9.740
63649SOL    HW292781   8.093   3.316   9.684
63650SOL     OW92782   1.393   0.100   4.176
63650SOL    HW192783   1.387   0.145   4.260
63650SOL    HW292784   1.327   0.031   4.181
63651SOL     OW92785   4.948   3.724  11.069
63651SOL    HW192786   4.894   3.645  11.062
63651SOL    HW292787   4.958   3.754  10.979
63652SOL     OW92788   2.863   6.377  10.427
63652SOL    HW192789   2.773   6.381  10.394
63652SOL    HW292790   2.905   6.456  10.391
63653SOL     OW92791   1.090   4.753  10.317
63653SOL    HW192792   1.158   4.734  10.252
63653SOL    HW292793   1.058   4.840  10.293
63654SOL     OW92794   8.796  11.293   4.271
63654SOL    HW192795   8.822  11.219   4.216
63654SOL    HW292796   8.703  11.305   4.252
63655SOL     OW92797   3.630  13.295  10.474
63655SOL    HW192798   3.616  13.292  10.569
63655SOL    HW292799   3.636  13.203  10.448
63656SOL     OW92800   7.264   8.635  13.699
63656SOL    HW192801   7.267   8.730  13.693
63656SOL    HW292802   7.347   8.606  13.660
63657SOL     OW92803  13.861   4.537   2.161
63657SOL    HW192804  13.914   4.490   2.225
63657SOL    HW292805  13.822   4.609   2.211
63658SOL     OW92806  10.670   2.431  14.803
63658SOL    HW192807  10.702   2.439   0.015
63658SOL    HW292808  10.663   2.337  14.788
63659SOL     OW92809   5.424  14.548   1.196
63659SOL    HW192810   5.466  14.542   1.282
63659SOL    HW292811   5.377  14.465   1.186
63660SOL     OW92812  10.054   7.043  14.421
63660SOL    HW192813  10.115   7.019  14.351
63660SOL    HW292814   9.969   7.052  14.377
63661SOL     OW92815   0.593   7.207   0.873
63661SOL    HW192816   0.687   7.191   0.869
63661SOL    HW292817   0.569   7.189   0.964
63662SOL     OW92818  10.830   8.032  14.699
63662SOL    HW192819  10.817   8.091  14.624
63662SOL    HW292820  10.781   7.953  14.676
63663SOL     OW92821  10.662   2.311   6.305
63663SOL    HW192822  10.588   2.364   6.334
63663SOL    HW292823  10.719   2.372   6.259
63664SOL     OW92824   6.607  13.281   1.722
63664SOL    HW192825   6.664  13.358   1.713
63664SOL    HW292826   6.524  13.308   1.682
63665SOL     OW92827   4.184   7.167   5.581
63665SOL    HW192828   4.124   7.194   5.651
63665SOL    HW292829   4.129   7.161   5.503
63666SOL     OW92830  10.948  13.380  11.107
63666SOL    HW192831  10.871  13.353  11.156
63666SOL    HW292832  11.013  13.402  11.173
63667SOL     OW92833   4.302   9.127   3.697
63667SOL    HW192834   4.367   9.074   3.742
63667SOL    HW292835   4.349   9.207   3.672
63668SOL     OW92836  14.479   5.543  11.004
63668SOL    HW192837  14.500   5.571  10.915
63668SOL    HW292838  14.385   5.555  11.012
63669SOL     OW92839   5.482   8.641   4.389
63669SOL    HW192840   5.550   8.685   4.338
63669SOL    HW292841   5.449   8.707   4.449
63670SOL     OW92842  12.448   6.866   0.784
63670SOL    HW192843  12.517   6.812   0.746
63670SOL    HW292844  12.451   6.845   0.878
63671SOL     OW92845   0.651   4.028   5.496
63671SOL    HW192846   0.723   4.078   5.459
63671SOL    HW292847   0.670   4.023   5.590
63672SOL     OW92848  12.625  13.515  12.595
63672SOL    HW192849  12.593  13.550  12.678
63672SOL    HW292850  12.623  13.590  12.535
63673SOL     OW92851  11.739  10.222  11.558
63673SOL    HW192852  11.771  10.163  11.626
63673SOL    HW292853  11.803  10.293  11.555
63674SOL     OW92854   6.011   1.704  14.354
63674SOL    HW192855   6.055   1.637  14.301
63674SOL    HW292856   5.998   1.664  14.439
63675SOL     OW92857  12.178   0.711   4.276
63675SOL    HW192858  12.235   0.636   4.289
63675SOL    HW292859  12.205   0.775   4.342
63676SOL     OW92860   8.055   9.446  10.205
63676SOL    HW192861   8.111   9.523  10.210
63676SOL    HW292862   8.108   9.374  10.238
63677SOL     OW92863   4.589  10.201   9.040
63677SOL    HW192864   4.650  10.129   9.024
63677SOL    HW292865   4.638  10.280   9.015
63678SOL     OW92866  10.458  14.056   7.333
63678SOL    HW192867  10.447  13.979   7.277
63678SOL    HW292868  10.369  14.080   7.359
63679SOL     OW92869   4.045   2.860   9.530
63679SOL    HW192870   4.047   2.943   9.484
63679SOL    HW292871   4.058   2.883   9.622
63680SOL     OW92872  11.857   2.328   4.363
63680SOL    HW192873  11.906   2.392   4.415
63680SOL    HW292874  11.867   2.246   4.410
63681SOL     OW92875  14.503   5.668   7.876
63681SOL    HW192876  14.432   5.732   7.871
63681SOL    HW292877  14.509   5.632   7.788
63682SOL     OW92878  12.816  11.651   6.832
63682SOL    HW192879  12.872  11.727   6.847
63682SOL    HW292880  12.876  11.579   6.815
63683SOL     OW92881   1.152   8.185   8.553
63683SOL    HW192882   1.244   8.173   8.528
63683SOL    HW292883   1.147   8.275   8.584
63684SOL     OW92884  11.715   8.434   0.438
63684SOL    HW192885  11.673   8.478   0.363
63684SOL    HW292886  11.808   8.431   0.414
63685SOL     OW92887  10.303  13.775   3.527
63685SOL    HW192888  10.289  13.696   3.474
63685SOL    HW292889  10.232  13.775   3.590
63686SOL     OW92890   7.020   0.906  10.933
63686SOL    HW192891   7.094   0.966  10.921
63686SOL    HW292892   7.033   0.839  10.867
63687SOL     OW92893   0.951   2.428  13.645
63687SOL    HW192894   0.947   2.426  13.549
63687SOL    HW292895   0.891   2.359  13.672
63688SOL     OW92896   5.727   2.218  10.649
63688SOL    HW192897   5.802   2.209  10.707
63688SOL    HW292898   5.676   2.290  10.685
63689SOL     OW92899   8.389  12.910   2.905
63689SOL    HW192900   8.326  12.955   2.849
63689SOL    HW292901   8.430  12.845   2.848
63690SOL     OW92902  12.376   3.517   4.633
63690SOL    HW192903  12.339   3.599   4.599
63690SOL    HW292904  12.346   3.450   4.571
63691SOL     OW92905  10.735  13.898  14.603
63691SOL    HW192906  10.795  13.970  14.621
63691SOL    HW292907  10.648  13.939  14.600
63692SOL     OW92908   3.274   0.279   5.518
63692SOL    HW192909   3.331   0.337   5.569
63692SOL    HW292910   3.192   0.277   5.568
63693SOL     OW92911   2.259   5.667  14.344
63693SOL    HW192912   2.327   5.599  14.342
63693SOL    HW292913   2.293   5.737  14.290
63694SOL     OW92914   4.896   3.114   2.068
63694SOL    HW192915   4.966   3.085   2.126
63694SOL    HW292916   4.926   3.198   2.033
63695SOL     OW92917   7.264  14.576   1.902
63695SOL    HW192918   7.241  14.484   1.910
63695SOL    HW292919   7.352  14.583   1.938
63696SOL     OW92920   3.936   3.532   7.732
63696SOL    HW192921   4.022   3.566   7.758
63696SOL    HW292922   3.894   3.507   7.814
63697SOL     OW92923  11.225  11.633  12.279
63697SOL    HW192924  11.229  11.549  12.324
63697SOL    HW292925  11.229  11.610  12.186
63698SOL     OW92926   5.325  11.827   8.210
63698SOL    HW192927   5.379  11.903   8.188
63698SOL    HW292928   5.242  11.864   8.240
63699SOL     OW92929   7.423   2.278   0.049
63699SOL    HW192930   7.429   2.349  14.864
63699SOL    HW292931   7.360   2.310   0.114
63700SOL     OW92932  13.217   0.873   4.851
63700SOL    HW192933  13.248   0.962   4.863
63700SOL    HW292934  13.207   0.863   4.756
63701SOL     OW92935   7.609   0.073  10.520
63701SOL    HW192936   7.617  14.859  10.502
63701SOL    HW292937   7.539   0.080  10.585
63702SOL     OW92938   4.856   5.177  13.590
63702SOL    HW192939   4.879   5.092  13.553
63702SOL    HW292940   4.785   5.158  13.651
63703SOL     OW92941   8.451   9.559   2.710
63703SOL    HW192942   8.438   9.654   2.706
63703SOL    HW292943   8.529   9.544   2.657
63704SOL     OW92944   9.148   2.381  14.362
63704SOL    HW192945   9.052   2.373  14.356
63704SOL    HW292946   9.171   2.333  14.442
63705SOL     OW92947   2.847  11.455   3.783
63705SOL    HW192948   2.837  11.444   3.877
63705SOL    HW292949   2.839  11.549   3.768
63706SOL     OW92950   8.676  13.840   6.416
63706SOL    HW192951   8.725  13.884   6.485
63706SOL    HW292952   8.675  13.904   6.344
63707SOL     OW92953   9.115   3.677  13.319
63707SOL    HW192954   9.092   3.768  13.341
63707SOL    HW292955   9.049   3.624  13.364
63708SOL     OW92956   8.801   6.333  14.363
63708SOL    HW192957   8.765   6.245  14.377
63708SOL    HW292958   8.894   6.323  14.381
63709SOL     OW92959   8.538   9.423   3.117
63709SOL    HW192960   8.569   9.382   3.036
63709SOL    HW292961   8.496   9.504   3.088
63710SOL     OW92962  14.239  14.795  12.031
63710SOL    HW192963  14.190  14.713  12.021
63710SOL    HW292964  14.302  14.793  11.959
63711SOL     OW92965   8.577   9.250   8.356
63711SOL    HW192966   8.567   9.323   8.295
63711SOL    HW292967   8.509   9.187   8.329
63712SOL     OW92968  11.362  11.297   2.590
63712SOL    HW192969  11.278  11.339   2.606
63712SOL    HW292970  11.353  11.257   2.503
63713SOL     OW92971  14.036   5.158   2.776
63713SOL    HW192972  14.103   5.226   2.775
63713SOL    HW292973  14.070   5.090   2.717
63714SOL     OW92974   3.119   8.131   7.879
63714SOL    HW192975   3.033   8.147   7.918
63714SOL    HW292976   3.114   8.170   7.792
63715SOL     OW92977   5.164  12.542   9.860
63715SOL    HW192978   5.163  12.488   9.782
63715SOL    HW292979   5.226  12.498   9.919
63716SOL     OW92980   1.447   6.029   0.614
63716SOL    HW192981   1.353   6.049   0.612
63716SOL    HW292982   1.484   6.085   0.546
63717SOL     OW92983   7.681   8.781   1.900
63717SOL    HW192984   7.771   8.782   1.932
63717SOL    HW292985   7.665   8.689   1.877
63718SOL     OW92986   1.659   9.438   0.564
63718SOL    HW192987   1.643   9.517   0.616
63718SOL    HW292988   1.625   9.366   0.617
63719SOL     OW92989   8.122   0.303   9.401
63719SOL    HW192990   8.058   0.373   9.417
63719SOL    HW292991   8.158   0.284   9.488
63720SOL     OW92992   1.688  12.756  14.539
63720SOL    HW192993   1.679  12.850  14.524
63720SOL    HW292994   1.701  12.719  14.451
63721SOL     OW92995  12.222   7.878   6.249
63721SOL    HW192996  12.224   7.931   6.328
63721SOL    HW292997  12.309   7.888   6.211
63722SOL     OW92998   5.109   2.232   4.159
63722SOL    HW192999   5.043   2.300   4.175
63722SOL    HW293000   5.181   2.278   4.116
63723SOL     OW93001   3.959  13.255   4.335
63723SOL    HW193002   4.038  13.232   4.286
63723SOL    HW293003   3.932  13.339   4.298
63724SOL     OW93004   5.234   9.296  14.277
63724SOL    HW193005   5.211   9.251  14.197
63724SOL    HW293006   5.233   9.389  14.254
63725SOL     OW93007   5.061  10.251   6.761
63725SOL    HW193008   4.989  10.195   6.733
63725SOL    HW293009   5.140  10.200   6.742
63726SOL     OW93010   3.616   2.862  11.648
63726SOL    HW193011   3.539   2.826  11.606
63726SOL    HW293012   3.682   2.793  11.642
63727SOL     OW93013   2.205   2.165  14.284
63727SOL    HW193014   2.260   2.242  14.298
63727SOL    HW293015   2.135   2.195  14.226
63728SOL     OW93016   9.998  13.615  12.378
63728SOL    HW193017   9.976  13.566  12.458
63728SOL    HW293018   9.914  13.644  12.344
63729SOL     OW93019  13.661   5.218   0.074
63729SOL    HW193020  13.647   5.222   0.168
63729SOL    HW293021  13.635   5.305   0.042
63730SOL     OW93022   7.132   2.596   5.255
63730SOL    HW193023   7.086   2.515   5.234
63730SOL    HW293024   7.117   2.653   5.180
63731SOL     OW93025   5.018   8.035   9.106
63731SOL    HW193026   5.000   7.943   9.088
63731SOL    HW293027   4.931   8.076   9.110
63732SOL     OW93028   8.881  13.325  10.238
63732SOL    HW193029   8.910  13.410  10.272
63732SOL    HW293030   8.915  13.323  10.148
63733SOL     OW93031  11.992   0.852  12.781
63733SOL    HW193032  12.003   0.871  12.688
63733SOL    HW293033  11.941   0.771  12.782
63734SOL     OW93034   4.688   4.523   6.841
63734SOL    HW193035   4.777   4.556   6.827
63734SOL    HW293036   4.641   4.598   6.879
63735SOL     OW93037   1.334   9.893  13.454
63735SOL    HW193038   1.278   9.822  13.423
63735SOL    HW293039   1.280   9.942  13.516
63736SOL     OW93040   2.072  13.854   1.683
63736SOL    HW193041   2.113  13.769   1.671
63736SOL    HW293042   1.993  13.836   1.734
63737SOL     OW93043   7.698  13.357   4.388
63737SOL    HW193044   7.641  13.292   4.347
63737SOL    HW293045   7.786  13.334   4.358
63738SOL     OW93046  10.766  14.608   4.346
63738SOL    HW193047  10.766  14.696   4.308
63738SOL    HW293048  10.812  14.618   4.429
63739SOL     OW93049  12.498   4.113   9.633
63739SOL    HW193050  12.411   4.152   9.645
63739SOL    HW293051  12.495   4.033   9.686
63740SOL     OW93052   7.423   8.849  13.230
63740SOL    HW193053   7.496   8.877  13.284
63740SOL    HW293054   7.375   8.787  13.285
63741SOL     OW93055   2.138   0.538   9.966
63741SOL    HW193056   2.138   0.443   9.960
63741SOL    HW293057   2.051   0.560  10.000
63742SOL     OW93058  10.798   1.323   8.466
63742SOL    HW193059  10.754   1.352   8.545
63742SOL    HW293060  10.731   1.274   8.417
63743SOL     OW93061  10.258   9.486  13.952
63743SOL    HW193062  10.203   9.525  13.884
63743SOL    HW293063  10.320   9.431  13.905
63744SOL     OW93064   7.390   5.398   7.091
63744SOL    HW193065   7.411   5.486   7.060
63744SOL    HW293066   7.469   5.368   7.136
63745SOL     OW93067   4.044  12.020  11.617
63745SOL    HW193068   4.061  11.948  11.678
63745SOL    HW293069   4.121  12.023  11.560
63746SOL     OW93070   5.813  14.666   8.932
63746SOL    HW193071   5.846  14.730   8.868
63746SOL    HW293072   5.852  14.583   8.906
63747SOL     OW93073  11.282  11.232   6.144
63747SOL    HW193074  11.312  11.270   6.226
63747SOL    HW293075  11.205  11.181   6.167
63748SOL     OW93076   2.251   7.612   8.640
63748SOL    HW193077   2.285   7.571   8.560
63748SOL    HW293078   2.258   7.544   8.706
63749SOL     OW93079   0.855   7.099   3.029
63749SOL    HW193080   0.809   7.047   3.095
63749SOL    HW293081   0.883   7.178   3.075
63750SOL     OW93082   5.540  12.498   0.285
63750SOL    HW193083   5.610  12.563   0.280
63750SOL    HW293084   5.579  12.424   0.331
63751SOL     OW93085   9.499   4.497   7.271
63751SOL    HW193086   9.504   4.429   7.204
63751SOL    HW293087   9.591   4.519   7.289
63752SOL     OW93088   9.518  10.134  14.273
63752SOL    HW193089   9.425  10.117  14.256
63752SOL    HW293090   9.525  10.230  14.270
63753SOL     OW93091  13.888  12.701   1.941
63753SOL    HW193092  13.878  12.715   1.846
63753SOL    HW293093  13.808  12.658   1.968
63754SOL     OW93094   5.572   7.958   2.444
63754SOL    HW193095   5.501   7.929   2.387
63754SOL    HW293096   5.652   7.933   2.397
63755SOL     OW93097   5.769   9.165   7.888
63755SOL    HW193098   5.698   9.153   7.824
63755SOL    HW293099   5.825   9.089   7.875
63756SOL     OW93100  13.803   5.198   7.057
63756SOL    HW193101  13.842   5.117   7.089
63756SOL    HW293102  13.709   5.179   7.051
63757SOL     OW93103   1.606  10.513  10.068
63757SOL    HW193104   1.631  10.567  10.143
63757SOL    HW293105   1.686  10.508  10.016
63758SOL     OW93106   6.056   2.100  10.401
63758SOL    HW193107   6.095   2.111  10.487
63758SOL    HW293108   6.018   2.013  10.402
63759SOL     OW93109   6.086  11.566   5.581
63759SOL    HW193110   6.026  11.492   5.571
63759SOL    HW293111   6.141  11.543   5.656
63760SOL     OW93112   2.416   0.132  11.869
63760SOL    HW193113   2.332   0.142  11.823
63760SOL    HW293114   2.410   0.047  11.913
63761SOL     OW93115   2.064   0.769   7.072
63761SOL    HW193116   2.116   0.696   7.106
63761SOL    HW293117   2.014   0.800   7.148
63762SOL     OW93118   4.910  13.310   9.834
63762SOL    HW193119   4.952  13.385   9.879
63762SOL    HW293120   4.983  13.263   9.794
63763SOL     OW93121  10.052   4.390  13.757
63763SOL    HW193122  10.052   4.437  13.841
63763SOL    HW293123  10.005   4.309  13.776
63764SOL     OW93124   7.434   4.225  12.661
63764SOL    HW193125   7.475   4.276  12.591
63764SOL    HW293126   7.341   4.225  12.639
63765SOL     OW93127   3.460  10.750  10.300
63765SOL    HW193128   3.368  10.724  10.291
63765SOL    HW293129   3.499  10.725  10.216
63766SOL     OW93130   3.052  12.777  13.587
63766SOL    HW193131   3.100  12.741  13.512
63766SOL    HW293132   2.990  12.708  13.611
63767SOL     OW93133   2.283   4.274   5.086
63767SOL    HW193134   2.284   4.328   5.008
63767SOL    HW293135   2.362   4.220   5.079
63768SOL     OW93136  13.365  12.322  14.681
63768SOL    HW193137  13.288  12.338  14.737
63768SOL    HW293138  13.401  12.409  14.664
63769SOL     OW93139   7.920   7.120   4.291
63769SOL    HW193140   7.919   7.024   4.294
63769SOL    HW293141   7.831   7.144   4.270
63770SOL     OW93142   2.070   4.691  11.651
63770SOL    HW193143   2.135   4.757  11.627
63770SOL    HW293144   2.017   4.679  11.572
63771SOL     OW93145  13.877   3.737   3.528
63771SOL    HW193146  13.788   3.709   3.550
63771SOL    HW293147  13.886   3.717   3.435
63772SOL     OW93148  10.966  13.052  11.705
63772SOL    HW193149  10.940  13.025  11.793
63772SOL    HW293150  11.026  13.125  11.718
63773SOL     OW93151   1.165   3.018   2.077
63773SOL    HW193152   1.233   3.053   2.020
63773SOL    HW293153   1.096   2.990   2.018
63774SOL     OW93154   9.212   7.710   5.197
63774SOL    HW193155   9.245   7.622   5.183
63774SOL    HW293156   9.193   7.714   5.291
63775SOL     OW93157  11.968   7.223  10.592
63775SOL    HW193158  11.991   7.314  10.575
63775SOL    HW293159  12.032   7.194  10.657
63776SOL     OW93160  11.701   3.151  13.126
63776SOL    HW193161  11.611   3.152  13.157
63776SOL    HW293162  11.752   3.187  13.198
63777SOL     OW93163   8.958   6.620   4.889
63777SOL    HW193164   8.923   6.551   4.832
63777SOL    HW293165   8.919   6.603   4.974
63778SOL     OW93166   5.837  12.631  12.377
63778SOL    HW193167   5.789  12.592  12.304
63778SOL    HW293168   5.898  12.563  12.406
63779SOL     OW93169   5.368  13.205   6.601
63779SOL    HW193170   5.424  13.129   6.581
63779SOL    HW293171   5.375  13.215   6.696
63780SOL     OW93172  10.389  14.283   9.552
63780SOL    HW193173  10.484  14.287   9.553
63780SOL    HW293174  10.364  14.335   9.475
63781SOL     OW93175   2.337   5.502  11.056
63781SOL    HW193176   2.270   5.438  11.031
63781SOL    HW293177   2.386   5.460  11.126
63782SOL     OW93178   7.352   5.435  14.748
63782SOL    HW193179   7.289   5.473  14.809
63782SOL    HW293180   7.359   5.343  14.773
63783SOL     OW93181  11.386  12.150  12.774
63783SOL    HW193182  11.460  12.138  12.833
63783SOL    HW293183  11.383  12.070  12.721
63784SOL     OW93184  11.487   8.633   8.922
63784SOL    HW193185  11.415   8.686   8.887
63784SOL    HW293186  11.483   8.552   8.871
63785SOL     OW93187   9.754  14.756   6.560
63785SOL    HW193188   9.741  14.851   6.561
63785SOL    HW293189   9.700  14.726   6.486
63786SOL     OW93190   0.776   5.925   9.985
63786SOL    HW193191   0.864   5.920   9.948
63786SOL    HW293192   0.743   6.010   9.955
63787SOL     OW93193   5.152   7.488   0.427
63787SOL    HW193194   5.098   7.531   0.361
63787SOL    HW293195   5.242   7.502   0.398
63788SOL     OW93196   6.668  13.670  14.619
63788SOL    HW193197   6.745  13.652  14.565
63788SOL    HW293198   6.595  13.629  14.572
63789SOL     OW93199  12.621   0.935   0.299
63789SOL    HW193200  12.711   0.955   0.274
63789SOL    HW293201  12.606   0.846   0.268
63790SOL     OW93202   6.518   4.486   3.461
63790SOL    HW193203   6.489   4.536   3.384
63790SOL    HW293204   6.613   4.485   3.453
63791SOL     OW93205   3.885   3.042   2.817
63791SOL    HW193206   3.928   3.040   2.903
63791SOL    HW293207   3.885   2.950   2.789
63792SOL     OW93208   4.873   3.149  14.530
63792SOL    HW193209   4.948   3.099  14.496
63792SOL    HW293210   4.857   3.216  14.463
63793SOL     OW93211   6.812  11.172   4.436
63793SOL    HW193212   6.856  11.157   4.520
63793SOL    HW293213   6.858  11.117   4.374
63794SOL     OW93214   3.553  10.140  12.839
63794SOL    HW193215   3.506  10.219  12.813
63794SOL    HW293216   3.543  10.080  12.765
63795SOL     OW93217   1.725   9.726   3.171
63795SOL    HW193218   1.720   9.744   3.077
63795SOL    HW293219   1.770   9.801   3.208
63796SOL     OW93220   6.823  13.370   0.103
63796SOL    HW193221   6.778  13.408   0.178
63796SOL    HW293222   6.769  13.295   0.078
63797SOL     OW93223   8.536  13.711   3.019
63797SOL    HW193224   8.544  13.665   3.102
63797SOL    HW293225   8.611  13.680   2.968
63798SOL     OW93226   7.320   8.684   6.948
63798SOL    HW193227   7.304   8.682   6.854
63798SOL    HW293228   7.368   8.765   6.963
63799SOL     OW93229  13.905   2.475  11.645
63799SOL    HW193230  13.844   2.547  11.628
63799SOL    HW293231  13.903   2.424  11.564
63800SOL     OW93232   7.792   6.229  11.350
63800SOL    HW193233   7.798   6.246  11.256
63800SOL    HW293234   7.883   6.234  11.380
63801SOL     OW93235  12.288   1.122   5.219
63801SOL    HW193236  12.321   1.200   5.176
63801SOL    HW293237  12.353   1.103   5.287
63802SOL     OW93238   5.713  13.093  12.091
63802SOL    HW193239   5.739  13.183  12.110
63802SOL    HW293240   5.699  13.053  12.176
63803SOL     OW93241   9.197   8.324   2.028
63803SOL    HW193242   9.236   8.247   1.986
63803SOL    HW293243   9.108   8.296   2.050
63804SOL     OW93244   9.397   4.924  10.445
63804SOL    HW193245   9.384   4.859  10.514
63804SOL    HW293246   9.356   4.885  10.367
63805SOL     OW93247   8.516   7.051   0.560
63805SOL    HW193248   8.464   7.095   0.627
63805SOL    HW293249   8.563   6.983   0.607
63806SOL     OW93250  11.507  11.181   8.021
63806SOL    HW193251  11.496  11.164   8.114
63806SOL    HW293252  11.583  11.127   7.996
63807SOL     OW93253   3.182   3.025   3.555
63807SOL    HW193254   3.120   3.092   3.585
63807SOL    HW293255   3.136   2.980   3.483
63808SOL     OW93256  10.146   9.240   5.188
63808SOL    HW193257  10.211   9.258   5.120
63808SOL    HW293258  10.085   9.179   5.148
63809SOL     OW93259   5.341   0.721   9.056
63809SOL    HW193260   5.409   0.708   8.990
63809SOL    HW293261   5.278   0.651   9.040
63810SOL     OW93262   4.379  11.634  11.535
63810SOL    HW193263   4.469  11.620  11.504
63810SOL    HW293264   4.386  11.709  11.595
63811SOL     OW93265  12.209   5.070   2.884
63811SOL    HW193266  12.118   5.076   2.914
63811SOL    HW293267  12.245   5.157   2.901
63812SOL     OW93268   8.958   3.039  12.254
63812SOL    HW193269   8.878   3.021  12.205
63812SOL    HW293270   8.999   3.112  12.206
63813SOL     OW93271   2.266  11.598  13.158
63813SOL    HW193272   2.343  11.586  13.102
63813SOL    HW293273   2.300  11.591  13.248
63814SOL     OW93274   2.003   2.287   0.951
63814SOL    HW193275   2.022   2.200   0.984
63814SOL    HW293276   2.042   2.288   0.863
63815SOL     OW93277   8.934   3.798   9.621
63815SOL    HW193278   8.878   3.871   9.595
63815SOL    HW293279   8.955   3.814   9.713
63816SOL     OW93280   0.152  13.193   8.854
63816SOL    HW193281   0.220  13.260   8.852
63816SOL    HW293282   0.075  13.238   8.890
63817SOL     OW93283   9.104   7.772   6.699
63817SOL    HW193284   9.095   7.698   6.638
63817SOL    HW293285   9.098   7.732   6.786
63818SOL     OW93286  10.590  14.756  12.188
63818SOL    HW193287  10.665  14.812  12.168
63818SOL    HW293288  10.590  14.751  12.284
63819SOL     OW93289  13.118   2.004  12.693
63819SOL    HW193290  13.091   2.008  12.785
63819SOL    HW293291  13.213   2.006  12.696
63820SOL     OW93292  10.910   9.154  13.345
63820SOL    HW193293  10.962   9.203  13.281
63820SOL    HW293294  10.974   9.120  13.406
63821SOL     OW93295  14.441   4.882  14.676
63821SOL    HW193296  14.468   4.869  14.767
63821SOL    HW293297  14.346   4.895  14.681
63822SOL     OW93298   4.842   4.900   5.657
63822SOL    HW193299   4.775   4.963   5.684
63822SOL    HW293300   4.797   4.843   5.595
63823SOL     OW93301   3.021  12.686   5.874
63823SOL    HW193302   3.102  12.638   5.895
63823SOL    HW293303   3.051  12.763   5.827
63824SOL     OW93304   3.115   5.220   4.966
63824SOL    HW193305   3.078   5.229   4.878
63824SOL    HW293306   3.194   5.275   4.964
63825SOL     OW93307  14.374   8.229  13.949
63825SOL    HW193308  14.294   8.236  14.001
63825SOL    HW293309  14.445   8.244  14.012
63826SOL     OW93310   2.428  14.102  10.492
63826SOL    HW193311   2.500  14.061  10.444
63826SOL    HW293312   2.425  14.192  10.459
63827SOL     OW93313   5.316   9.640  13.197
63827SOL    HW193314   5.281   9.715  13.149
63827SOL    HW293315   5.371   9.594  13.133
63828SOL     OW93316   9.628   5.598  12.533
63828SOL    HW193317   9.636   5.603  12.628
63828SOL    HW293318   9.572   5.672  12.510
63829SOL     OW93319   5.349   5.554  11.944
63829SOL    HW193320   5.256   5.558  11.969
63829SOL    HW293321   5.393   5.610  12.007
63830SOL     OW93322   8.510   5.286   1.718
63830SOL    HW193323   8.530   5.201   1.679
63830SOL    HW293324   8.414   5.287   1.724
63831SOL     OW93325   9.619   1.018  14.475
63831SOL    HW193326   9.632   1.112  14.491
63831SOL    HW293327   9.573   1.014  14.391
63832SOL     OW93328  11.296  12.855   9.169
63832SOL    HW193329  11.262  12.766   9.159
63832SOL    HW293330  11.221  12.911   9.151
63833SOL     OW93331  13.102   2.223  12.030
63833SOL    HW193332  13.108   2.153  12.096
63833SOL    HW293333  13.015   2.261  12.043
63834SOL     OW93334  12.568   8.845  10.099
63834SOL    HW193335  12.629   8.856  10.026
63834SOL    HW293336  12.490   8.893  10.073
63835SOL     OW93337   4.514  12.431   8.642
63835SOL    HW193338   4.432  12.462   8.604
63835SOL    HW293339   4.579  12.496   8.613
63836SOL     OW93340   4.835   5.949   1.460
63836SOL    HW193341   4.848   5.881   1.526
63836SOL    HW293342   4.909   6.008   1.471
63837SOL     OW93343   2.979   5.176  10.891
63837SOL    HW193344   3.029   5.215  10.819
63837SOL    HW293345   3.022   5.092  10.908
63838SOL     OW93346  12.926   4.647  13.516
63838SOL    HW193347  12.878   4.629  13.597
63838SOL    HW293348  12.869   4.706  13.467
63839SOL     OW93349   9.864   9.824  11.259
63839SOL    HW193350   9.914   9.902  11.233
63839SOL    HW293351   9.845   9.779  11.176
63840SOL     OW93352   5.255   7.799   3.034
63840SOL    HW193353   5.296   7.806   3.120
63840SOL    HW293354   5.201   7.720   3.039
63841SOL     OW93355  11.964   8.788   6.030
63841SOL    HW193356  11.909   8.801   5.953
63841SOL    HW293357  11.952   8.867   6.082
63842SOL     OW93358   1.367  14.160   6.673
63842SOL    HW193359   1.294  14.165   6.735
63842SOL    HW293360   1.413  14.243   6.683
63843SOL     OW93361   0.978  14.415   0.406
63843SOL    HW193362   1.010  14.360   0.334
63843SOL    HW293363   1.000  14.504   0.380
63844SOL     OW93364  14.368   1.753  13.339
63844SOL    HW193365  14.394   1.662  13.320
63844SOL    HW293366  14.276   1.746  13.365
63845SOL     OW93367   8.806   4.091   0.244
63845SOL    HW193368   8.827   4.043   0.164
63845SOL    HW293369   8.717   4.121   0.231
63846SOL     OW93370  10.345   5.254   6.987
63846SOL    HW193371  10.379   5.324   7.043
63846SOL    HW293372  10.420   5.227   6.935
63847SOL     OW93373   2.942   4.020   2.554
63847SOL    HW193374   2.902   4.096   2.514
63847SOL    HW293375   2.953   4.043   2.646
63848SOL     OW93376  14.750   9.081   8.199
63848SOL    HW193377  14.716   9.169   8.216
63848SOL    HW293378  14.845   9.091   8.204
63849SOL     OW93379  12.039   7.592   7.526
63849SOL    HW193380  12.026   7.684   7.548
63849SOL    HW293381  11.951   7.560   7.504
63850SOL     OW93382   4.945  11.545   9.436
63850SOL    HW193383   4.938  11.640   9.426
63850SOL    HW293384   4.941  11.511   9.347
63851SOL     OW93385  11.858   7.174  11.892
63851SOL    HW193386  11.855   7.239  11.821
63851SOL    HW293387  11.888   7.094  11.850
63852SOL     OW93388   1.274   1.288   1.582
63852SOL    HW193389   1.310   1.208   1.544
63852SOL    HW293390   1.217   1.324   1.514
63853SOL     OW93391  11.010  13.078   3.983
63853SOL    HW193392  10.959  13.150   4.021
63853SOL    HW293393  10.949  13.033   3.926
63854SOL     OW93394   6.702   1.918   1.304
63854SOL    HW193395   6.760   1.939   1.231
63854SOL    HW293396   6.712   1.990   1.365
63855SOL     OW93397   3.175   6.273   5.664
63855SOL    HW193398   3.098   6.327   5.682
63855SOL    HW293399   3.226   6.277   5.745
63856SOL     OW93400   9.635   3.989   7.846
63856SOL    HW193401   9.666   4.078   7.864
63856SOL    HW293402   9.626   3.948   7.932
63857SOL     OW93403   3.052  11.157  14.860
63857SOL    HW193404   3.064  11.200   0.066
63857SOL    HW293405   3.105  11.208  14.799
63858SOL     OW93406   7.888   0.654   3.511
63858SOL    HW193407   7.877   0.584   3.575
63858SOL    HW293408   7.890   0.609   3.426
63859SOL     OW93409  11.801   3.127   1.082
63859SOL    HW193410  11.707   3.114   1.071
63859SOL    HW293411  11.826   3.182   1.008
63860SOL     OW93412   9.214   4.728   1.220
63860SOL    HW193413   9.244   4.648   1.178
63860SOL    HW293414   9.253   4.798   1.168
63861SOL     OW93415   9.767  13.755  12.615
63861SOL    HW193416   9.756  13.732  12.707
63861SOL    HW293417   9.853  13.721  12.592
63862SOL     OW93418  10.261   0.849   2.728
63862SOL    HW193419  10.310   0.847   2.811
63862SOL    HW293420  10.281   0.766   2.686
63863SOL     OW93421  11.794   6.881   6.176
63863SOL    HW193422  11.750   6.939   6.114
63863SOL    HW293423  11.734   6.806   6.184
63864SOL     OW93424   2.549   1.557   8.903
63864SOL    HW193425   2.474   1.527   8.954
63864SOL    HW293426   2.592   1.622   8.958
63865SOL     OW93427   9.468   6.018   1.681
63865SOL    HW193428   9.479   6.030   1.775
63865SOL    HW293429   9.379   6.048   1.663
63866SOL     OW93430  11.699   9.056   2.881
63866SOL    HW193431  11.658   9.132   2.840
63866SOL    HW293432  11.627   8.993   2.892
63867SOL     OW93433   1.093   2.614  11.407
63867SOL    HW193434   1.095   2.583  11.316
63867SOL    HW293435   1.185   2.617  11.433
63868SOL     OW93436  10.004   6.992   7.216
63868SOL    HW193437  10.000   7.047   7.294
63868SOL    HW293438   9.950   7.037   7.151
63869SOL     OW93439   0.610   6.001   8.506
63869SOL    HW193440   0.557   5.921   8.507
63869SOL    HW293441   0.607   6.033   8.596
63870SOL     OW93442   0.524   4.830  13.327
63870SOL    HW193443   0.440   4.810  13.287
63870SOL    HW293444   0.589   4.797  13.265
63871SOL     OW93445  12.149  12.408  14.769
63871SOL    HW193446  12.057  12.401  14.741
63871SOL    HW293447  12.149  12.373  14.858
63872SOL     OW93448   1.726   5.651  11.930
63872SOL    HW193449   1.718   5.584  11.998
63872SOL    HW293450   1.783   5.611  11.864
63873SOL     OW93451  10.718   6.943  11.629
63873SOL    HW193452  10.760   7.004  11.568
63873SOL    HW293453  10.771   6.948  11.708
63874SOL     OW93454   9.262   1.972  13.510
63874SOL    HW193455   9.252   1.898  13.450
63874SOL    HW293456   9.263   2.049  13.453
63875SOL     OW93457   7.223   6.049   4.252
63875SOL    HW193458   7.281   6.125   4.254
63875SOL    HW293459   7.138   6.083   4.280
63876SOL     OW93460   6.898   9.910  13.815
63876SOL    HW193461   6.958   9.856  13.867
63876SOL    HW293462   6.950   9.941  13.742
63877SOL     OW93463   2.076  10.813   8.396
63877SOL    HW193464   1.986  10.795   8.423
63877SOL    HW293465   2.124  10.733   8.421
63878SOL     OW93466   5.007   8.855   7.135
63878SOL    HW193467   5.084   8.855   7.191
63878SOL    HW293468   5.010   8.771   7.090
63879SOL     OW93469   4.719  12.214   8.136
63879SOL    HW193470   4.766  12.203   8.218
63879SOL    HW293471   4.761  12.153   8.076
63880SOL     OW93472  11.671  13.319  13.081
63880SOL    HW193473  11.667  13.238  13.132
63880SOL    HW293474  11.733  13.375  13.128
63881SOL     OW93475  10.560   9.974   4.805
63881SOL    HW193476  10.487   9.912   4.800
63881SOL    HW293477  10.578   9.983   4.899
63882SOL     OW93478  10.800   2.716   9.261
63882SOL    HW193479  10.793   2.701   9.167
63882SOL    HW293480  10.827   2.807   9.270
63883SOL     OW93481   6.877   4.217   3.024
63883SOL    HW193482   6.826   4.215   3.105
63883SOL    HW293483   6.965   4.244   3.052
63884SOL     OW93484  12.104  14.016   7.060
63884SOL    HW193485  12.144  14.064   7.132
63884SOL    HW293486  12.173  13.957   7.029
63885SOL     OW93487   8.799  11.181   6.032
63885SOL    HW193488   8.859  11.158   6.103
63885SOL    HW293489   8.759  11.264   6.060
63886SOL     OW93490   2.337   5.345   6.620
63886SOL    HW193491   2.307   5.311   6.704
63886SOL    HW293492   2.349   5.267   6.565
63887SOL     OW93493   9.971   5.066   8.559
63887SOL    HW193494   9.927   5.061   8.644
63887SOL    HW293495   9.968   5.159   8.536
63888SOL     OW93496  11.621   3.092  10.447
63888SOL    HW193497  11.707   3.055  10.430
63888SOL    HW293498  11.615   3.167  10.389
63889SOL     OW93499  13.431  13.985   6.103
63889SOL    HW193500  13.520  14.021   6.110
63889SOL    HW293501  13.435  13.925   6.029
63890SOL     OW93502  12.548   7.198   4.431
63890SOL    HW193503  12.516   7.112   4.404
63890SOL    HW293504  12.606   7.180   4.505
63891SOL     OW93505   8.596  14.516   3.661
63891SOL    HW193506   8.618  14.451   3.594
63891SOL    HW293507   8.506  14.494   3.686
63892SOL     OW93508  13.656   6.823   3.338
63892SOL    HW193509  13.656   6.741   3.388
63892SOL    HW293510  13.707   6.884   3.392
63893SOL     OW93511   7.298   9.391  14.038
63893SOL    HW193512   7.374   9.450  14.038
63893SOL    HW293513   7.223   9.449  14.027
63894SOL     OW93514  13.132  12.490  11.637
63894SOL    HW193515  13.155  12.430  11.565
63894SOL    HW293516  13.050  12.530  11.609
63895SOL     OW93517   5.001  14.842   2.307
63895SOL    HW193518   5.006  14.764   2.251
63895SOL    HW293519   5.086   0.006   2.296
63896SOL     OW93520   6.075   3.818   8.268
63896SOL    HW193521   6.051   3.738   8.314
63896SOL    HW293522   6.043   3.889   8.324
63897SOL     OW93523   1.005   9.231   5.521
63897SOL    HW193524   1.097   9.226   5.545
63897SOL    HW293525   0.975   9.141   5.519
63898SOL     OW93526   9.678   9.504  13.986
63898SOL    HW193527   9.592   9.500  14.029
63898SOL    HW293528   9.729   9.562  14.042
63899SOL     OW93529   1.058   4.632  12.879
63899SOL    HW193530   1.144   4.598  12.858
63899SOL    HW293531   1.075   4.706  12.937
63900SOL     OW93532   8.638   1.176  10.337
63900SOL    HW193533   8.623   1.266  10.310
63900SOL    HW293534   8.733   1.168  10.345
63901SOL     OW93535   8.026  13.401   4.327
63901SOL    HW193536   8.117  13.379   4.307
63901SOL    HW293537   8.019  13.494   4.306
63902SOL     OW93538   0.901  11.892  12.870
63902SOL    HW193539   0.882  11.907  12.962
63902SOL    HW293540   0.831  11.833  12.841
63903SOL     OW93541   6.470   3.028   8.034
63903SOL    HW193542   6.382   3.017   8.069
63903SOL    HW293543   6.467   2.986   7.948
63904SOL     OW93544   6.525  10.521  14.275
63904SOL    HW193545   6.494  10.448  14.221
63904SOL    HW293546   6.619  10.527  14.256
63905SOL     OW93547   1.254   3.800   0.658
63905SOL    HW193548   1.301   3.825   0.737
63905SOL    HW293549   1.162   3.822   0.677
63906SOL     OW93550   2.072   2.015   5.159
63906SOL    HW193551   2.111   2.081   5.216
63906SOL    HW293552   2.147   1.978   5.112
63907SOL     OW93553   9.161   2.208   0.734
63907SOL    HW193554   9.222   2.217   0.660
63907SOL    HW293555   9.102   2.137   0.708
63908SOL     OW93556   7.069   7.384   0.689
63908SOL    HW193557   7.131   7.388   0.616
63908SOL    HW293558   7.122   7.361   0.765
63909SOL     OW93559  11.286   1.569  11.671
63909SOL    HW193560  11.290   1.619  11.590
63909SOL    HW293561  11.205   1.596  11.714
63910SOL     OW93562   0.676  12.851  12.902
63910SOL    HW193563   0.702  12.760  12.915
63910SOL    HW293564   0.756  12.894  12.871
63911SOL     OW93565  13.160   8.369   7.182
63911SOL    HW193566  13.203   8.291   7.147
63911SOL    HW293567  13.171   8.435   7.113
63912SOL     OW93568   2.643  13.588   8.368
63912SOL    HW193569   2.595  13.671   8.369
63912SOL    HW293570   2.607  13.539   8.442
63913SOL     OW93571  11.542  10.503  11.040
63913SOL    HW193572  11.449  10.484  11.055
63913SOL    HW293573  11.586  10.418  11.051
63914SOL     OW93574   8.645  14.861  12.318
63914SOL    HW193575   8.603   0.060  12.281
63914SOL    HW293576   8.592  14.787  12.286
63915SOL     OW93577   4.536   5.948  13.075
63915SOL    HW193578   4.459   5.906  13.037
63915SOL    HW293579   4.535   6.037  13.040
63916SOL     OW93580   0.577   9.605  13.206
63916SOL    HW193581   0.654   9.588  13.153
63916SOL    HW293582   0.522   9.527  13.195
63917SOL     OW93583  14.584   0.989   5.843
63917SOL    HW193584  14.592   1.021   5.753
63917SOL    HW293585  14.527   1.052   5.885
63918SOL     OW93586   9.743  11.777   0.517
63918SOL    HW193587   9.753  11.682   0.503
63918SOL    HW293588   9.759  11.789   0.610
63919SOL     OW93589   3.756   6.385  14.165
63919SOL    HW193590   3.698   6.407  14.238
63919SOL    HW293591   3.845   6.395  14.201
63920SOL     OW93592   4.810   2.246  13.251
63920SOL    HW193593   4.734   2.282  13.296
63920SOL    HW293594   4.774   2.185  13.187
63921SOL     OW93595   6.323   5.487   6.915
63921SOL    HW193596   6.273   5.562   6.882
63921SOL    HW293597   6.284   5.468   7.000
63922SOL     OW93598   8.649   8.426   0.352
63922SOL    HW193599   8.684   8.349   0.306
63922SOL    HW293600   8.658   8.498   0.289
63923SOL     OW93601  11.425   2.319   7.245
63923SOL    HW193602  11.515   2.286   7.240
63923SOL    HW293603  11.410   2.331   7.339
63924SOL     OW93604   9.032   8.578  14.207
63924SOL    HW193605   9.036   8.669  14.236
63924SOL    HW293606   9.093   8.573  14.134
63925SOL     OW93607   2.321  14.044   0.733
63925SOL    HW193608   2.233  14.043   0.693
63925SOL    HW293609   2.369  14.108   0.681
63926SOL     OW93610   4.168  12.917   2.834
63926SOL    HW193611   4.159  12.871   2.917
63926SOL    HW293612   4.239  12.871   2.788
63927SOL     OW93613   7.083   4.649   2.312
63927SOL    HW193614   7.039   4.615   2.235
63927SOL    HW293615   7.012   4.684   2.367
63928SOL     OW93616   9.533  12.644   0.821
63928SOL    HW193617   9.476  12.654   0.745
63928SOL    HW293618   9.603  12.708   0.806
63929SOL     OW93619  14.151   9.891   1.102
63929SOL    HW193620  14.101   9.922   1.027
63929SOL    HW293621  14.235   9.937   1.096
63930SOL     OW93622   9.731   4.584   8.375
63930SOL    HW193623   9.729   4.649   8.446
63930SOL    HW293624   9.681   4.510   8.410
63931SOL     OW93625   3.449   6.825  14.738
63931SOL    HW193626   3.526   6.881  14.734
63931SOL    HW293627   3.406   6.835  14.653
63932SOL     OW93628   7.891   9.998   7.947
63932SOL    HW193629   7.814  10.053   7.931
63932SOL    HW293630   7.940  10.044   8.016
63933SOL     OW93631   9.131   7.652   7.053
63933SOL    HW193632   9.051   7.623   7.010
63933SOL    HW293633   9.117   7.632   7.146
63934SOL     OW93634  11.732   2.722   4.027
63934SOL    HW193635  11.729   2.799   4.084
63934SOL    HW293636  11.644   2.685   4.033
63935SOL     OW93637   9.195   6.440   1.026
63935SOL    HW193638   9.252   6.431   0.949
63935SOL    HW293639   9.199   6.534   1.047
63936SOL     OW93640  10.633   0.746   1.094
63936SOL    HW193641  10.557   0.805   1.094
63936SOL    HW293642  10.595   0.658   1.105
63937SOL     OW93643   6.800  14.160   8.746
63937SOL    HW193644   6.762  14.238   8.786
63937SOL    HW293645   6.858  14.124   8.813
63938SOL     OW93646   2.493   7.400  14.585
63938SOL    HW193647   2.520   7.344  14.513
63938SOL    HW293648   2.442   7.343  14.643
63939SOL     OW93649  11.168  13.438   0.804
63939SOL    HW193650  11.184  13.426   0.897
63939SOL    HW293651  11.221  13.371   0.761
63940SOL     OW93652   0.360   3.849   9.309
63940SOL    HW193653   0.295   3.823   9.243
63940SOL    HW293654   0.325   3.930   9.347
63941SOL     OW93655  14.583   3.331   4.346
63941SOL    HW193656  14.501   3.359   4.386
63941SOL    HW293657  14.608   3.404   4.288
63942SOL     OW93658   0.306   8.471  11.810
63942SOL    HW193659   0.300   8.412  11.885
63942SOL    HW293660   0.282   8.557  11.845
63943SOL     OW93661   2.828   2.790   0.481
63943SOL    HW193662   2.879   2.839   0.545
63943SOL    HW293663   2.772   2.733   0.534
63944SOL     OW93664  12.258   1.224   1.708
63944SOL    HW193665  12.273   1.171   1.786
63944SOL    HW293666  12.338   1.275   1.698
63945SOL     OW93667   7.531   4.887  12.401
63945SOL    HW193668   7.530   4.868  12.307
63945SOL    HW293669   7.585   4.965  12.409
63946SOL     OW93670   9.559   3.650   9.523
63946SOL    HW193671   9.648   3.618   9.506
63946SOL    HW293672   9.561   3.678   9.615
63947SOL     OW93673   9.664   1.257   5.846
63947SOL    HW193674   9.639   1.202   5.772
63947SOL    HW293675   9.757   1.240   5.859
63948SOL     OW93676   4.870   2.441  12.554
63948SOL    HW193677   4.779   2.471  12.554
63948SOL    HW293678   4.920   2.515  12.588
63949SOL     OW93679   4.977   3.199  14.810
63949SOL    HW193680   4.989   3.290  14.838
63949SOL    HW293681   4.941   3.206  14.721
63950SOL     OW93682   2.947   8.283   1.634
63950SOL    HW193683   3.013   8.288   1.565
63950SOL    HW293684   2.865   8.267   1.588
63951SOL     OW93685   4.348  14.698   4.537
63951SOL    HW193686   4.276  14.640   4.515
63951SOL    HW293687   4.347  14.765   4.468
63952SOL     OW93688   1.768   4.273   6.133
63952SOL    HW193689   1.834   4.331   6.095
63952SOL    HW293690   1.802   4.252   6.220
63953SOL     OW93691   3.959   3.469   0.975
63953SOL    HW193692   3.973   3.437   1.064
63953SOL    HW293693   3.894   3.408   0.938
63954SOL     OW93694   6.532   7.466   1.666
63954SOL    HW193695   6.457   7.521   1.644
63954SOL    HW293696   6.542   7.475   1.760
63955SOL     OW93697  13.007  12.036   5.046
63955SOL    HW193698  12.960  12.114   5.074
63955SOL    HW293699  13.100  12.060   5.053
63956SOL     OW93700  13.605   8.104   8.289
63956SOL    HW193701  13.679   8.068   8.241
63956SOL    HW293702  13.631   8.194   8.310
63957SOL     OW93703  10.540   9.057  11.256
63957SOL    HW193704  10.500   9.134  11.296
63957SOL    HW293705  10.478   9.029  11.190
63958SOL     OW93706   6.583  12.281   7.402
63958SOL    HW193707   6.607  12.260   7.493
63958SOL    HW293708   6.623  12.210   7.351
63959SOL     OW93709   9.172   7.973   6.511
63959SOL    HW193710   9.160   7.878   6.505
63959SOL    HW293711   9.160   7.992   6.604
63960SOL     OW93712  14.047  13.237   6.629
63960SOL    HW193713  14.066  13.176   6.558
63960SOL    HW293714  14.001  13.183   6.694
63961SOL     OW93715   3.244   4.640  12.702
63961SOL    HW193716   3.204   4.612  12.785
63961SOL    HW293717   3.262   4.559  12.656
63962SOL     OW93718  11.414   6.992   3.333
63962SOL    HW193719  11.482   6.961   3.272
63962SOL    HW293720  11.365   6.913   3.356
63963SOL     OW93721   5.573   5.701   7.304
63963SOL    HW193722   5.650   5.717   7.250
63963SOL    HW293723   5.584   5.611   7.336
63964SOL     OW93724   9.095   8.842  14.657
63964SOL    HW193725   9.067   8.845  14.565
63964SOL    HW293726   9.080   8.931  14.689
63965SOL     OW93727   6.469   3.943   3.959
63965SOL    HW193728   6.505   4.028   3.933
63965SOL    HW293729   6.376   3.962   3.977
63966SOL     OW93730   9.161   8.623   6.681
63966SOL    HW193731   9.094   8.604   6.747
63966SOL    HW293732   9.120   8.687   6.623
63967SOL     OW93733   0.817   2.059  10.533
63967SOL    HW193734   0.815   2.069  10.438
63967SOL    HW293735   0.896   2.008  10.551
63968SOL     OW93736   8.818  10.220  12.358
63968SOL    HW193737   8.743  10.257  12.311
63968SOL    HW293738   8.783  10.142  12.401
63969SOL     OW93739  13.190   9.967   4.067
63969SOL    HW193740  13.148   9.959   4.152
63969SOL    HW293741  13.277   9.931   4.080
63970SOL     OW93742   4.286   4.309   6.256
63970SOL    HW193743   4.261   4.250   6.327
63970SOL    HW293744   4.215   4.302   6.192
63971SOL     OW93745   8.786   1.613  12.347
63971SOL    HW193746   8.717   1.575  12.293
63971SOL    HW293747   8.858   1.551  12.341
63972SOL     OW93748   3.599   5.305   8.079
63972SOL    HW193749   3.651   5.234   8.115
63972SOL    HW293750   3.636   5.321   7.992
63973SOL     OW93751  10.238   3.439   7.434
63973SOL    HW193752  10.249   3.422   7.527
63973SOL    HW293753  10.143   3.442   7.421
63974SOL     OW93754   7.141  10.436   0.434
63974SOL    HW193755   7.058  10.434   0.482
63974SOL    HW293756   7.197  10.495   0.485
63975SOL     OW93757  14.074   1.843   6.544
63975SOL    HW193758  14.025   1.796   6.612
63975SOL    HW293759  14.074   1.785   6.469
63976SOL     OW93760   6.918  12.373  13.840
63976SOL    HW193761   6.855  12.389  13.910
63976SOL    HW293762   6.996  12.339  13.884
63977SOL     OW93763   3.230  13.408   9.252
63977SOL    HW193764   3.283  13.482   9.282
63977SOL    HW293765   3.293  13.348   9.212
63978SOL     OW93766   5.191  14.643  13.517
63978SOL    HW193767   5.228  14.662  13.603
63978SOL    HW293768   5.143  14.723  13.493
63979SOL     OW93769  12.601   8.359   5.430
63979SOL    HW193770  12.546   8.431   5.461
63979SOL    HW293771  12.606   8.371   5.335
63980SOL     OW93772   2.839   7.975   5.582
63980SOL    HW193773   2.885   7.966   5.665
63980SOL    HW293774   2.780   7.900   5.579
63981SOL     OW93775   7.441  13.263   9.847
63981SOL    HW193776   7.441  13.188   9.907
63981SOL    HW293777   7.353  13.264   9.809
63982SOL     OW93778   6.743   3.324   7.950
63982SOL    HW193779   6.800   3.372   8.010
63982SOL    HW293780   6.782   3.336   7.864
63983SOL     OW93781   4.793   5.959   9.704
63983SOL    HW193782   4.843   6.017   9.646
63983SOL    HW293783   4.753   5.895   9.645
63984SOL     OW93784  11.279   8.890   0.360
63984SOL    HW193785  11.321   8.959   0.411
63984SOL    HW293786  11.326   8.890   0.277
63985SOL     OW93787  13.680  12.668   9.414
63985SOL    HW193788  13.722  12.754   9.420
63985SOL    HW293789  13.707  12.623   9.493
63986SOL     OW93790   2.393   5.672   8.816
63986SOL    HW193791   2.347   5.591   8.836
63986SOL    HW293792   2.454   5.684   8.889
63987SOL     OW93793   6.180   2.511   6.445
63987SOL    HW193794   6.134   2.595   6.450
63987SOL    HW293795   6.265   2.528   6.485
63988SOL     OW93796  13.244  10.869  12.136
63988SOL    HW193797  13.331  10.837  12.113
63988SOL    HW293798  13.254  10.906  12.224
63989SOL     OW93799   1.537   6.282   3.722
63989SOL    HW193800   1.625   6.316   3.712
63989SOL    HW293801   1.516   6.296   3.815
63990SOL     OW93802  11.108   5.903  10.579
63990SOL    HW193803  11.059   5.854  10.645
63990SOL    HW293804  11.089   5.858  10.497
63991SOL     OW93805  10.456   2.164  11.521
63991SOL    HW193806  10.432   2.204  11.437
63991SOL    HW293807  10.540   2.122  11.504
63992SOL     OW93808   4.514  14.588   0.032
63992SOL    HW193809   4.442  14.541  14.868
63992SOL    HW293810   4.520  14.549   0.119
63993SOL     OW93811   2.297   9.133   9.536
63993SOL    HW193812   2.281   9.163   9.625
63993SOL    HW293813   2.314   9.212   9.486
63994SOL     OW93814   7.982   6.437   9.883
63994SOL    HW193815   8.013   6.519   9.922
63994SOL    HW293816   8.061   6.397   9.846
63995SOL     OW93817   8.317   6.655   3.127
63995SOL    HW193818   8.251   6.700   3.180
63995SOL    HW293819   8.270   6.630   3.047
63996SOL     OW93820  11.342   0.485   7.773
63996SOL    HW193821  11.268   0.427   7.757
63996SOL    HW293822  11.403   0.433   7.825
63997SOL     OW93823   7.096   7.276   9.058
63997SOL    HW193824   7.025   7.285   8.994
63997SOL    HW293825   7.147   7.357   9.049
63998SOL     OW93826   1.576  12.005   6.120
63998SOL    HW193827   1.601  11.985   6.210
63998SOL    HW293828   1.524  12.085   6.127
63999SOL     OW93829  13.127  10.915  13.757
63999SOL    HW193830  13.080  10.837  13.788
63999SOL    HW293831  13.170  10.949  13.835
64000SOL     OW93832   8.369   7.526   5.737
64000SOL    HW193833   8.338   7.474   5.663
64000SOL    HW293834   8.302   7.592   5.750
64001SOL     OW93835   0.660  12.007   5.343
64001SOL    HW193836   0.572  11.975   5.326
64001SOL    HW293837   0.648  12.092   5.384
64002SOL     OW93838   6.305   9.620   9.406
64002SOL    HW193839   6.285   9.590   9.494
64002SOL    HW293840   6.249   9.697   9.393
64003SOL     OW93841  11.646  12.330   5.604
64003SOL    HW193842  11.655  12.425   5.611
64003SOL    HW293843  11.735  12.298   5.595
64004SOL     OW93844   7.501   3.700   1.134
64004SOL    HW193845   7.497   3.713   1.229
64004SOL    HW293846   7.593   3.716   1.112
64005SOL     OW93847   8.837   4.002   2.683
64005SOL    HW193848   8.762   4.051   2.717
64005SOL    HW293849   8.831   3.916   2.724
64006SOL     OW93850   3.149   9.470   1.002
64006SOL    HW193851   3.087   9.415   0.955
64006SOL    HW293852   3.218   9.411   1.032
64007SOL     OW93853   3.368   9.725  11.051
64007SOL    HW193854   3.463   9.737  11.040
64007SOL    HW293855   3.343   9.667  10.980
64008SOL     OW93856   5.526   5.580  14.079
64008SOL    HW193857   5.508   5.661  14.127
64008SOL    HW293858   5.601   5.601  14.023
64009SOL     OW93859  12.249   7.373   9.671
64009SOL    HW193860  12.230   7.336   9.585
64009SOL    HW293861  12.170   7.355   9.722
64010SOL     OW93862   9.759   3.184   4.058
64010SOL    HW193863   9.693   3.116   4.069
64010SOL    HW293864   9.737   3.251   4.123
64011SOL     OW93865   3.899   3.848  13.803
64011SOL    HW193866   3.858   3.788  13.740
64011SOL    HW293867   3.991   3.823  13.804
64012SOL     OW93868  11.877  12.377  14.692
64012SOL    HW193869  11.825  12.321  14.635
64012SOL    HW293870  11.849  12.354  14.781
64013SOL     OW93871   3.814   5.105   0.211
64013SOL    HW193872   3.808   5.116   0.306
64013SOL    HW293873   3.775   5.019   0.195
64014SOL     OW93874   8.398   2.866   1.887
64014SOL    HW193875   8.328   2.804   1.868
64014SOL    HW293876   8.468   2.843   1.827
64015SOL     OW93877   6.798  11.280   8.506
64015SOL    HW193878   6.828  11.360   8.549
64015SOL    HW293879   6.854  11.273   8.428
64016SOL     OW93880  13.957   8.622  10.184
64016SOL    HW193881  13.961   8.533  10.150
64016SOL    HW293882  13.923   8.674  10.110
64017SOL     OW93883   7.497   1.945   8.984
64017SOL    HW193884   7.584   1.929   8.947
64017SOL    HW293885   7.444   1.972   8.909
64018SOL     OW93886   2.996   3.407   8.746
64018SOL    HW193887   2.915   3.355   8.753
64018SOL    HW293888   2.966   3.496   8.728
64019SOL     OW93889   9.340   7.788  13.237
64019SOL    HW193890   9.317   7.881  13.227
64019SOL    HW293891   9.385   7.766  13.155
64020SOL     OW93892   8.693   5.320  12.584
64020SOL    HW193893   8.698   5.323  12.489
64020SOL    HW293894   8.641   5.397  12.607
64021SOL     OW93895   5.066   8.923   3.097
64021SOL    HW193896   5.087   8.852   3.037
64021SOL    HW293897   5.032   8.993   3.041
64022SOL     OW93898  14.373   7.796   9.984
64022SOL    HW193899  14.351   7.796   9.891
64022SOL    HW293900  14.360   7.705  10.011
64023SOL     OW93901   5.518  10.253   6.470
64023SOL    HW193902   5.542  10.292   6.554
64023SOL    HW293903   5.435  10.295   6.447
64024SOL     OW93904  10.858  13.435  10.186
64024SOL    HW193905  10.798  13.477  10.125
64024SOL    HW293906  10.810  13.433  10.269
64025SOL     OW93907   9.356   0.248   5.277
64025SOL    HW193908   9.338   0.159   5.308
64025SOL    HW293909   9.403   0.289   5.349
64026SOL     OW93910   9.757  13.237   4.279
64026SOL    HW193911   9.702  13.279   4.345
64026SOL    HW293912   9.833  13.205   4.329
64027SOL     OW93913   2.440   3.534  10.645
64027SOL    HW193914   2.420   3.627  10.632
64027SOL    HW293915   2.388   3.508  10.721
64028SOL     OW93916  14.528   7.750   1.257
64028SOL    HW193917  14.603   7.696   1.283
64028SOL    HW293918  14.565   7.814   1.196
64029SOL     OW93919   0.626  11.544   2.593
64029SOL    HW193920   0.549  11.512   2.640
64029SOL    HW293921   0.643  11.631   2.630
64030SOL     OW93922   5.144  13.283   7.026
64030SOL    HW193923   5.075  13.300   6.963
64030SOL    HW293924   5.126  13.344   7.098
64031SOL     OW93925   7.586   8.000   1.657
64031SOL    HW193926   7.543   8.085   1.646
64031SOL    HW293927   7.568   7.976   1.748
64032SOL     OW93928  11.744   7.905  10.047
64032SOL    HW193929  11.670   7.846  10.036
64032SOL    HW293930  11.811   7.851  10.089
64033SOL     OW93931   3.043   5.394   7.795
64033SOL    HW193932   3.041   5.386   7.890
64033SOL    HW293933   3.099   5.322   7.766
64034SOL     OW93934   1.337   7.744   6.408
64034SOL    HW193935   1.307   7.655   6.427
64034SOL    HW293936   1.418   7.731   6.357
64035SOL     OW93937   5.819   2.896  10.091
64035SOL    HW193938   5.807   2.892  10.186
64035SOL    HW293939   5.914   2.890  10.079
64036SOL     OW93940   6.832   2.429  14.359
64036SOL    HW193941   6.846   2.516  14.395
64036SOL    HW293942   6.845   2.370  14.434
64037SOL     OW93943   7.168   4.559   1.448
64037SOL    HW193944   7.201   4.487   1.395
64037SOL    HW293945   7.184   4.533   1.538
64038SOL     OW93946   2.572   3.126   6.540
64038SOL    HW193947   2.510   3.151   6.609
64038SOL    HW293948   2.638   3.074   6.586
64039SOL     OW93949  13.236   7.550   9.255
64039SOL    HW193950  13.330   7.545   9.238
64039SOL    HW293951  13.218   7.478   9.316
64040SOL     OW93952  10.117   5.427  11.816
64040SOL    HW193953  10.138   5.334  11.828
64040SOL    HW293954  10.193   5.473  11.852
64041SOL     OW93955   7.042   6.267   4.546
64041SOL    HW193956   7.036   6.224   4.631
64041SOL    HW293957   7.131   6.249   4.516
64042SOL     OW93958   8.882   8.462  10.923
64042SOL    HW193959   8.910   8.433  11.010
64042SOL    HW293960   8.906   8.555  10.920
64043SOL     OW93961   1.629   9.316   8.783
64043SOL    HW193962   1.638   9.313   8.688
64043SOL    HW293963   1.591   9.402   8.801
64044SOL     OW93964   0.988   9.854   1.860
64044SOL    HW193965   0.914   9.867   1.801
64044SOL    HW293966   1.049   9.924   1.838
64045SOL     OW93967   8.364   8.686  10.689
64045SOL    HW193968   8.289   8.741  10.670
64045SOL    HW293969   8.328   8.610  10.735
64046SOL     OW93970   4.754   5.964   5.974
64046SOL    HW193971   4.735   6.052   6.005
64046SOL    HW293972   4.835   5.940   6.019
64047SOL     OW93973  12.321  11.080   8.308
64047SOL    HW193974  12.352  11.052   8.394
64047SOL    HW293975  12.227  11.062   8.310
64048SOL     OW93976   8.233   7.398   1.195
64048SOL    HW193977   8.195   7.328   1.142
64048SOL    HW293978   8.255   7.466   1.132
64049SOL     OW93979   7.549   2.665   7.295
64049SOL    HW193980   7.630   2.714   7.281
64049SOL    HW293981   7.521   2.639   7.207
64050SOL     OW93982  13.626   4.435  10.512
64050SOL    HW193983  13.668   4.483  10.441
64050SOL    HW293984  13.596   4.502  10.572
64051SOL     OW93985   6.497   3.782   1.025
64051SOL    HW193986   6.493   3.853   0.961
64051SOL    HW293987   6.579   3.736   1.006
64052SOL     OW93988  13.969   6.026   2.985
64052SOL    HW193989  13.969   6.046   2.892
64052SOL    HW293990  13.902   5.958   2.995
64053SOL     OW93991   2.777  10.616   6.335
64053SOL    HW193992   2.725  10.566   6.398
64053SOL    HW293993   2.801  10.696   6.381
64054SOL     OW93994  10.039  12.031  14.358
64054SOL    HW193995  10.003  11.942  14.353
64054SOL    HW293996  10.008  12.065  14.442
64055SOL     OW93997   7.820  10.292   8.530
64055SOL    HW193998   7.852  10.204   8.507
64055SOL    HW293999   7.888  10.328   8.587
64056SOL     OW94000   9.518   4.330  11.498
64056SOL    HW194001   9.573   4.309  11.423
64056SOL    HW294002   9.560   4.406  11.538
64057SOL     OW94003   2.725   4.588   8.059
64057SOL    HW194004   2.817   4.612   8.044
64057SOL    HW294005   2.707   4.520   7.994
64058SOL     OW94006  13.114   1.288   9.451
64058SOL    HW194007  13.145   1.300   9.361
64058SOL    HW294008  13.019   1.282   9.443
64059SOL     OW94009  10.716  13.573   1.714
64059SOL    HW194010  10.675  13.493   1.683
64059SOL    HW294011  10.646  13.619   1.761
64060SOL     OW94012   3.972   4.914   7.534
64060SOL    HW194013   3.969   4.843   7.597
64060SOL    HW294014   4.047   4.967   7.560
64061SOL     OW94015   2.217   2.488   5.706
64061SOL    HW194016   2.201   2.501   5.800
64061SOL    HW294017   2.174   2.405   5.685
64062SOL     OW94018  10.641   0.526  13.827
64062SOL    HW194019  10.669   0.437  13.809
64062SOL    HW294020  10.694   0.580  13.769
64063SOL     OW94021   9.405   4.823   0.395
64063SOL    HW194022   9.433   4.913   0.409
64063SOL    HW294023   9.311   4.829   0.377
64064SOL     OW94024   4.916   4.581  13.350
64064SOL    HW194025   4.922   4.502  13.296
64064SOL    HW294026   4.843   4.630  13.312
64065SOL     OW94027   4.522  11.177   9.627
64065SOL    HW194028   4.548  11.215   9.543
64065SOL    HW294029   4.598  11.127   9.656
64066SOL     OW94030  12.475   6.951   8.656
64066SOL    HW194031  12.545   6.887   8.662
64066SOL    HW294032  12.397   6.899   8.637
64067SOL     OW94033   1.374  14.564  10.422
64067SOL    HW194034   1.389  14.620  10.498
64067SOL    HW294035   1.459  14.524  10.406
64068SOL     OW94036   5.950  10.061  14.215
64068SOL    HW194037   5.887   9.992  14.236
64068SOL    HW294038   5.937  10.127  14.284
64069SOL     OW94039   0.561   6.843  11.334
64069SOL    HW194040   0.533   6.889  11.413
64069SOL    HW294041   0.507   6.764  11.331
64070SOL     OW94042   0.406   3.391   6.621
64070SOL    HW194043   0.340   3.343   6.672
64070SOL    HW294044   0.489   3.368   6.661
64071SOL     OW94045   3.129   6.511  14.776
64071SOL    HW194046   3.149   6.418  14.766
64071SOL    HW294047   3.201   6.556  14.733
64072SOL     OW94048   3.317   7.327   5.475
64072SOL    HW194049   3.402   7.369   5.493
64072SOL    HW294050   3.271   7.330   5.559
64073SOL     OW94051   7.285  11.669   5.225
64073SOL    HW194052   7.263  11.706   5.140
64073SOL    HW294053   7.232  11.589   5.231
64074SOL     OW94054   2.701   1.803  11.716
64074SOL    HW194055   2.738   1.762  11.638
64074SOL    HW294056   2.607   1.808  11.699
64075SOL     OW94057  11.862   5.934   0.989
64075SOL    HW194058  11.818   5.979   0.917
64075SOL    HW294059  11.875   6.001   1.055
64076SOL     OW94060   3.070  11.800   0.640
64076SOL    HW194061   3.111  11.804   0.553
64076SOL    HW294062   3.144  11.791   0.701
64077SOL     OW94063   2.388  13.556  11.190
64077SOL    HW194064   2.423  13.471  11.163
64077SOL    HW294065   2.355  13.541  11.278
64078SOL     OW94066   4.982  13.410  14.250
64078SOL    HW194067   4.895  13.372  14.260
64078SOL    HW294068   5.039  13.335  14.236
64079SOL     OW94069  14.815   4.068   3.395
64079SOL    HW194070   0.019   4.060   3.347
64079SOL    HW294071  14.837   4.120   3.472
64080SOL     OW94072  14.201  11.841  10.461
64080SOL    HW194073  14.197  11.920  10.515
64080SOL    HW294074  14.111  11.829  10.430
64081SOL     OW94075   5.344   4.946   5.442
64081SOL    HW194076   5.357   4.897   5.361
64081SOL    HW294077   5.428   4.937   5.489
64082SOL     OW94078   6.161   1.942   0.804
64082SOL    HW194079   6.208   1.881   0.861
64082SOL    HW294080   6.069   1.932   0.830
64083SOL     OW94081   4.310   2.499   5.158
64083SOL    HW194082   4.386   2.447   5.183
64083SOL    HW294083   4.237   2.437   5.161
64084SOL     OW94084  10.975  12.125  12.544
64084SOL    HW194085  10.970  12.197  12.607
64084SOL    HW294086  11.040  12.153  12.480
64085SOL     OW94087   5.510  12.603   7.303
64085SOL    HW194088   5.549  12.543   7.367
64085SOL    HW294089   5.564  12.593   7.225
64086SOL     OW94090   1.271   9.618  11.730
64086SOL    HW194091   1.242   9.528  11.715
64086SOL    HW294092   1.367   9.612  11.731
64087SOL     OW94093   7.536   4.660   1.905
64087SOL    HW194094   7.620   4.686   1.867
64087SOL    HW294095   7.471   4.685   1.839
64088SOL     OW94096   5.127   2.783   6.766
64088SOL    HW194097   5.160   2.790   6.676
64088SOL    HW294098   5.034   2.803   6.760
64089SOL     OW94099   4.729   3.698   9.479
64089SOL    HW194100   4.745   3.743   9.562
64089SOL    HW294101   4.660   3.635   9.500
64090SOL     OW94102   5.235  13.818   1.279
64090SOL    HW194103   5.188  13.758   1.337
64090SOL    HW294104   5.215  13.786   1.191
64091SOL     OW94105  12.020   1.966   5.888
64091SOL    HW194106  12.113   1.960   5.912
64091SOL    HW294107  11.992   1.875   5.882
64092SOL     OW94108  14.615   7.554  10.175
64092SOL    HW194109  14.687   7.492  10.165
64092SOL    HW294110  14.563   7.542  10.095
64093SOL     OW94111   7.546  10.832   3.191
64093SOL    HW194112   7.555  10.833   3.286
64093SOL    HW294113   7.486  10.904   3.172
64094SOL     OW94114   5.153   7.827  14.697
64094SOL    HW194115   5.152   7.917  14.729
64094SOL    HW294116   5.062   7.799  14.699
64095SOL     OW94117  11.655   0.450   7.451
64095SOL    HW194118  11.655   0.356   7.434
64095SOL    HW294119  11.676   0.458   7.544
64096SOL     OW94120   0.208   1.997   4.445
64096SOL    HW194121   0.154   1.956   4.378
64096SOL    HW294122   0.246   2.073   4.402
64097SOL     OW94123   7.824   3.392   4.617
64097SOL    HW194124   7.812   3.435   4.532
64097SOL    HW294125   7.861   3.306   4.595
64098SOL     OW94126   4.813   1.808  14.142
64098SOL    HW194127   4.771   1.740  14.090
64098SOL    HW294128   4.741   1.854  14.185
64099SOL     OW94129   9.989   1.973   8.210
64099SOL    HW194130   9.933   1.985   8.133
64099SOL    HW294131   9.946   1.903   8.260
64100SOL     OW94132  10.968   0.183  11.507
64100SOL    HW194133  10.932   0.121  11.445
64100SOL    HW294134  11.023   0.131  11.565
64101SOL     OW94135   7.400   1.359   2.346
64101SOL    HW194136   7.340   1.374   2.273
64101SOL    HW294137   7.487   1.367   2.307
64102SOL     OW94138   6.489   0.697  14.180
64102SOL    HW194139   6.424   0.644  14.226
64102SOL    HW294140   6.471   0.787  14.208
64103SOL     OW94141   9.239  13.244  13.939
64103SOL    HW194142   9.269  13.153  13.933
64103SOL    HW294143   9.158  13.239  13.990
64104SOL     OW94144   6.676   3.529   1.454
64104SOL    HW194145   6.584   3.549   1.474
64104SOL    HW294146   6.676   3.513   1.359
64105SOL     OW94147  13.472  13.540  11.648
64105SOL    HW194148  13.418  13.496  11.715
64105SOL    HW294149  13.555  13.493  11.650
64106SOL     OW94150   5.771   2.615  14.444
64106SOL    HW194151   5.730   2.616  14.357
64106SOL    HW294152   5.710   2.566  14.499
64107SOL     OW94153  11.225  10.087  12.187
64107SOL    HW194154  11.177  10.054  12.111
64107SOL    HW294155  11.160  10.134  12.238
64108SOL     OW94156   5.685   6.193  13.372
64108SOL    HW194157   5.721   6.276  13.341
64108SOL    HW294158   5.757   6.150  13.418
64109SOL     OW94159   4.176  10.321  13.268
64109SOL    HW194160   4.241  10.376  13.311
64109SOL    HW294161   4.095  10.338  13.315
64110SOL     OW94162  10.487  12.076   8.931
64110SOL    HW194163  10.464  12.162   8.896
64110SOL    HW294164  10.422  12.060   9.000
64111SOL     OW94165  11.130   0.284   1.185
64111SOL    HW194166  11.074   0.222   1.232
64111SOL    HW294167  11.143   0.356   1.246
64112SOL     OW94168   2.472  14.272   3.094
64112SOL    HW194169   2.468  14.179   3.070
64112SOL    HW294170   2.421  14.317   3.027
64113SOL     OW94171   0.898  10.283   9.638
64113SOL    HW194172   0.922  10.360   9.690
64113SOL    HW294173   0.969  10.221   9.652
64114SOL     OW94174   3.857   4.187   4.860
64114SOL    HW194175   3.943   4.182   4.819
64114SOL    HW294176   3.868   4.144   4.945
64115SOL     OW94177   5.832   4.529   8.994
64115SOL    HW194178   5.850   4.487   9.078
64115SOL    HW294179   5.798   4.615   9.017
64116SOL     OW94180   9.699  10.824   1.325
64116SOL    HW194181   9.731  10.851   1.411
64116SOL    HW294182   9.632  10.758   1.345
64117SOL     OW94183  11.373   9.731   1.815
64117SOL    HW194184  11.357   9.656   1.872
64117SOL    HW294185  11.304   9.793   1.838
64118SOL     OW94186  10.132   3.310   1.053
64118SOL    HW194187  10.059   3.361   1.019
64118SOL    HW294188  10.210   3.356   1.020
64119SOL     OW94189   5.478   9.322   7.236
64119SOL    HW194190   5.460   9.229   7.244
64119SOL    HW294191   5.394   9.364   7.256
64120SOL     OW94192   4.322  10.155   9.006
64120SOL    HW194193   4.329  10.063   8.981
64120SOL    HW294194   4.412  10.185   9.016
64121SOL     OW94195  14.782  12.732   3.085
64121SOL    HW194196  14.716  12.762   3.022
64121SOL    HW294197  14.838  12.673   3.034
64122SOL     OW94198   6.838   9.303   4.827
64122SOL    HW194199   6.901   9.234   4.811
64122SOL    HW294200   6.771   9.291   4.760
64123SOL     OW94201   7.504   5.612   7.457
64123SOL    HW194202   7.467   5.663   7.386
64123SOL    HW294203   7.429   5.589   7.512
64124SOL     OW94204  11.090   1.997   5.712
64124SOL    HW194205  11.046   2.063   5.766
64124SOL    HW294206  11.021   1.933   5.692
64125SOL     OW94207   9.088   0.788   4.884
64125SOL    HW194208   9.083   0.805   4.790
64125SOL    HW294209   9.144   0.858   4.918
64126SOL     OW94210   4.479   4.108   3.943
64126SOL    HW194211   4.395   4.067   3.925
64126SOL    HW294212   4.536   4.080   3.871
64127SOL     OW94213  14.282  13.260   2.689
64127SOL    HW194214  14.272  13.169   2.660
64127SOL    HW294215  14.294  13.309   2.608
64128SOL     OW94216  14.724  11.808  10.753
64128SOL    HW194217  14.700  11.744  10.686
64128SOL    HW294218  14.662  11.880  10.740
64129SOL     OW94219   0.399   2.244  13.870
64129SOL    HW194220   0.315   2.239  13.916
64129SOL    HW294221   0.448   2.312  13.917
64130SOL     OW94222   5.592   0.276  13.573
64130SOL    HW194223   5.570   0.227  13.493
64130SOL    HW294224   5.513   0.325  13.593
64131SOL     OW94225   3.583   6.615  14.110
64131SOL    HW194226   3.606   6.566  14.031
64131SOL    HW294227   3.566   6.548  14.176
64132SOL     OW94228   3.368   1.738   3.039
64132SOL    HW194229   3.290   1.740   3.094
64132SOL    HW294230   3.379   1.646   3.016
64133SOL     OW94231  11.872   1.579   4.435
64133SOL    HW194232  11.938   1.600   4.369
64133SOL    HW294233  11.850   1.488   4.418
64134SOL     OW94234  11.925   8.853   0.686
64134SOL    HW194235  11.880   8.769   0.701
64134SOL    HW294236  12.005   8.847   0.738
64135SOL     OW94237  10.151  13.393   3.056
64135SOL    HW194238  10.228  13.372   3.109
64135SOL    HW294239  10.119  13.308   3.026
64136SOL     OW94240  14.495   2.233   7.336
64136SOL    HW194241  14.564   2.167   7.346
64136SOL    HW294242  14.418   2.193   7.375
64137SOL     OW94243   9.250   1.486   5.473
64137SOL    HW194244   9.162   1.519   5.457
64137SOL    HW294245   9.245   1.441   5.557
64138SOL     OW94246   4.589   3.238   5.677
64138SOL    HW194247   4.620   3.268   5.762
64138SOL    HW294248   4.509   3.189   5.697
64139SOL     OW94249   0.512   5.892  12.216
64139SOL    HW194250   0.450   5.822  12.196
64139SOL    HW294251   0.506   5.902  12.311
64140SOL     OW94252   6.461   2.082   0.030
64140SOL    HW194253   6.376   2.037   0.031
64140SOL    HW294254   6.444   2.166   0.071
64141SOL     OW94255   8.119   0.766  12.115
64141SOL    HW194256   8.170   0.847  12.100
64141SOL    HW294257   8.182   0.706  12.154
64142SOL     OW94258   6.786   1.548   8.611
64142SOL    HW194259   6.863   1.601   8.591
64142SOL    HW294260   6.780   1.487   8.538
64143SOL     OW94261   3.086  10.558   2.894
64143SOL    HW194262   3.121  10.520   2.814
64143SOL    HW294263   3.052  10.644   2.867
64144SOL     OW94264  11.411  14.317   9.209
64144SOL    HW194265  11.360  14.246   9.247
64144SOL    HW294266  11.471  14.344   9.279
64145SOL     OW94267   0.019   5.335  13.777
64145SOL    HW194268  14.856   5.285  13.846
64145SOL    HW294269  14.850   5.418  13.774
64146SOL     OW94270  12.122  13.071   8.510
64146SOL    HW194271  12.062  13.020   8.456
64146SOL    HW294272  12.190  13.009   8.536
64147SOL     OW94273   5.060   0.592   3.640
64147SOL    HW194274   5.123   0.549   3.582
64147SOL    HW294275   4.975   0.571   3.602
64148SOL     OW94276   2.597   3.838  13.919
64148SOL    HW194277   2.519   3.784  13.903
64148SOL    HW294278   2.628   3.860  13.831
64149SOL     OW94279   6.890  13.081   4.334
64149SOL    HW194280   6.864  13.029   4.259
64149SOL    HW294281   6.985  13.071   4.338
64150SOL     OW94282  13.259   7.038  13.443
64150SOL    HW194283  13.262   6.978  13.368
64150SOL    HW294284  13.248   7.124  13.404
64151SOL     OW94285   4.708  10.048  14.664
64151SOL    HW194286   4.645  10.102  14.711
64151SOL    HW294287   4.773  10.109  14.630
64152SOL     OW94288   9.746  13.674  12.293
64152SOL    HW194289   9.653  13.654  12.302
64152SOL    HW294290   9.755  13.710  12.205
64153SOL     OW94291  11.489   6.631   9.874
64153SOL    HW194292  11.442   6.555   9.907
64153SOL    HW294293  11.443   6.654   9.793
64154SOL     OW94294   4.070   3.080  11.552
64154SOL    HW194295   4.100   2.997  11.515
64154SOL    HW294296   4.001   3.109  11.492
64155SOL     OW94297  10.977  11.816  10.279
64155SOL    HW194298  11.046  11.767  10.324
64155SOL    HW294299  10.925  11.749  10.234
64156SOL     OW94300  12.949  12.082   4.250
64156SOL    HW194301  13.033  12.101   4.293
64156SOL    HW294302  12.961  11.994   4.213
64157SOL     OW94303   6.638   3.529  10.610
64157SOL    HW194304   6.579   3.514  10.536
64157SOL    HW294305   6.688   3.447  10.618
64158SOL     OW94306   8.516  13.225   3.823
64158SOL    HW194307   8.571  13.205   3.899
64158SOL    HW294308   8.434  13.179   3.840
64159SOL     OW94309   4.611   2.205  11.789
64159SOL    HW194310   4.516   2.194  11.801
64159SOL    HW294311   4.640   2.123  11.749
64160SOL     OW94312   2.261  11.233   4.912
64160SOL    HW194313   2.184  11.203   4.863
64160SOL    HW294314   2.270  11.325   4.889
64161SOL     OW94315  12.933   2.865  12.943
64161SOL    HW194316  12.922   2.950  12.900
64161SOL    HW294317  12.887   2.875  13.026
64162SOL     OW94318  10.990   1.235   5.830
64162SOL    HW194319  11.045   1.314   5.834
64162SOL    HW294320  11.036   1.171   5.883
64163SOL     OW94321   8.662   7.034  10.978
64163SOL    HW194322   8.684   6.952  10.935
64163SOL    HW294323   8.741   7.057  11.028
64164SOL     OW94324   1.854   8.818   9.530
64164SOL    HW194325   1.931   8.869   9.555
64164SOL    HW294326   1.819   8.864   9.453
64165SOL     OW94327   4.542   8.758  11.492
64165SOL    HW194328   4.594   8.756  11.572
64165SOL    HW294329   4.465   8.810  11.514
64166SOL     OW94330   2.984  10.346   3.109
64166SOL    HW194331   2.996  10.423   3.052
64166SOL    HW294332   3.037  10.365   3.186
64167SOL     OW94333  10.623  13.064  10.874
64167SOL    HW194334  10.693  13.043  10.935
64167SOL    HW294335  10.611  12.984  10.822
64168SOL     OW94336   3.485  10.240   6.584
64168SOL    HW194337   3.525  10.316   6.540
64168SOL    HW294338   3.392  10.246   6.561
64169SOL     OW94339  11.174  14.020   9.487
64169SOL    HW194340  11.252  13.969   9.507
64169SOL    HW294341  11.132  14.035   9.571
64170SOL     OW94342  12.044   2.169  14.425
64170SOL    HW194343  12.130   2.209  14.410
64170SOL    HW294344  12.062   2.093  14.480
64171SOL     OW94345   9.084   0.484   7.159
64171SOL    HW194346   9.059   0.538   7.234
64171SOL    HW294347   9.134   0.542   7.103
64172SOL     OW94348   1.520   9.083  12.047
64172SOL    HW194349   1.476   9.164  12.074
64172SOL    HW294350   1.518   9.028  12.126
64173SOL     OW94351  13.775   9.084  14.147
64173SOL    HW194352  13.788   9.148  14.217
64173SOL    HW294353  13.753   9.136  14.070
64174SOL     OW94354  10.532   8.744   1.443
64174SOL    HW194355  10.516   8.691   1.521
64174SOL    HW294356  10.559   8.829   1.477
64175SOL     OW94357   9.239  13.431  10.117
64175SOL    HW194358   9.145  13.418  10.123
64175SOL    HW294359   9.265  13.386  10.036
64176SOL     OW94360   3.946   5.611   6.134
64176SOL    HW194361   3.857   5.591   6.104
64176SOL    HW294362   3.958   5.703   6.110
64177SOL     OW94363   5.123  14.225   7.034
64177SOL    HW194364   5.123  14.138   7.072
64177SOL    HW294365   5.148  14.283   7.106
64178SOL     OW94366   9.362  14.454   0.262
64178SOL    HW194367   9.345  14.544   0.290
64178SOL    HW294368   9.276  14.414   0.253
64179SOL     OW94369   4.528   8.895  13.578
64179SOL    HW194370   4.444   8.886  13.534
64179SOL    HW294371   4.511   8.953  13.652
64180SOL     OW94372   1.628  13.977   4.004
64180SOL    HW194373   1.548  13.928   3.984
64180SOL    HW294374   1.654  14.016   3.920
64181SOL     OW94375   8.770  11.031   9.992
64181SOL    HW194376   8.791  11.073   9.908
64181SOL    HW294377   8.855  11.016  10.033
64182SOL     OW94378   2.349   2.987   7.716
64182SOL    HW194379   2.403   2.940   7.779
64182SOL    HW294380   2.279   2.925   7.694
64183SOL     OW94381   5.909   2.781   8.820
64183SOL    HW194382   5.903   2.729   8.900
64183SOL    HW294383   5.904   2.716   8.749
64184SOL     OW94384  13.098   3.567   6.132
64184SOL    HW194385  13.085   3.657   6.162
64184SOL    HW294386  13.143   3.575   6.049
64185SOL     OW94387   6.693   0.591  11.580
64185SOL    HW194388   6.757   0.531  11.541
64185SOL    HW294389   6.724   0.678  11.554
64186SOL     OW94390   4.706   7.202   7.882
64186SOL    HW194391   4.698   7.129   7.944
64186SOL    HW294392   4.769   7.171   7.817
64187SOL     OW94393   1.917   6.577  12.743
64187SOL    HW194394   1.909   6.552  12.835
64187SOL    HW294395   1.931   6.671  12.745
64188SOL     OW94396   3.046  12.191   6.402
64188SOL    HW194397   2.958  12.199   6.366
64188SOL    HW294398   3.104  12.190   6.326
64189SOL     OW94399   1.211  10.309  10.760
64189SOL    HW194400   1.193  10.388  10.809
64189SOL    HW294401   1.130  10.257  10.766
64190SOL     OW94402   5.309   8.510   0.881
64190SOL    HW194403   5.307   8.564   0.801
64190SOL    HW294404   5.219   8.481   0.893
64191SOL     OW94405   2.131  10.119  13.766
64191SOL    HW194406   2.063  10.066  13.724
64191SOL    HW294407   2.210  10.103  13.713
64192SOL     OW94408  13.324   8.945  13.403
64192SOL    HW194409  13.283   9.013  13.456
64192SOL    HW294410  13.282   8.953  13.317
64193SOL     OW94411   1.722   9.693   9.184
64193SOL    HW194412   1.796   9.672   9.240
64193SOL    HW294413   1.665   9.616   9.189
64194SOL     OW94414   6.822  14.026  10.962
64194SOL    HW194415   6.773  13.946  10.942
64194SOL    HW294416   6.865  14.008  11.045
64195SOL     OW94417   2.451   2.623   4.921
64195SOL    HW194418   2.449   2.650   5.013
64195SOL    HW294419   2.417   2.534   4.921
64196SOL     OW94420  14.112   3.612   0.400
64196SOL    HW194421  14.124   3.707   0.394
64196SOL    HW294422  14.101   3.584   0.309
64197SOL     OW94423  13.090  10.321   5.835
64197SOL    HW194424  13.029  10.359   5.773
64197SOL    HW294425  13.158  10.388   5.847
64198SOL     OW94426   9.597   2.998   2.074
64198SOL    HW194427   9.539   2.997   2.149
64198SOL    HW294428   9.684   2.982   2.110
64199SOL     OW94429  10.261   1.807   9.817
64199SOL    HW194430  10.175   1.783   9.782
64199SOL    HW294431  10.317   1.733   9.796
64200SOL     OW94432   3.150   1.379   9.315
64200SOL    HW194433   3.106   1.460   9.341
64200SOL    HW294434   3.238   1.386   9.351
64201SOL     OW94435   6.596   7.501  10.087
64201SOL    HW194436   6.510   7.476  10.053
64201SOL    HW294437   6.652   7.509  10.009
64202SOL     OW94438   1.669   1.504  14.614
64202SOL    HW194439   1.703   1.594  14.617
64202SOL    HW294440   1.741   1.450  14.646
64203SOL     OW94441  14.855   1.600  10.552
64203SOL    HW194442   0.038   1.565  10.488
64203SOL    HW294443  14.773   1.609  10.504
64204SOL     OW94444   5.745   4.014   4.410
64204SOL    HW194445   5.668   4.062   4.441
64204SOL    HW294446   5.715   3.971   4.330
64205SOL     OW94447  11.054  14.845  12.539
64205SOL    HW194448  11.021  14.792  12.611
64205SOL    HW294449  11.074  14.781  12.470
64206SOL     OW94450   8.298   9.569   5.365
64206SOL    HW194451   8.233   9.636   5.341
64206SOL    HW294452   8.361   9.615   5.421
64207SOL     OW94453   8.705  12.195  10.706
64207SOL    HW194454   8.679  12.277  10.748
64207SOL    HW294455   8.741  12.221  10.622
64208SOL     OW94456   9.902  13.159  13.923
64208SOL    HW194457   9.842  13.227  13.955
64208SOL    HW294458   9.854  13.077  13.936
64209SOL     OW94459   7.117   2.390  14.767
64209SOL    HW194460   7.163   2.320  14.721
64209SOL    HW294461   7.112   2.360  14.858
64210SOL     OW94462   3.484   7.422   2.374
64210SOL    HW194463   3.549   7.483   2.407
64210SOL    HW294464   3.511   7.403   2.284
64211SOL     OW94465  13.980  13.227   5.491
64211SOL    HW194466  13.892  13.253   5.517
64211SOL    HW294467  13.996  13.275   5.409
64212SOL     OW94468   3.022  13.624  11.438
64212SOL    HW194469   3.080  13.567  11.387
64212SOL    HW294470   2.934  13.601  11.407
64213SOL     OW94471   8.934   4.516   9.645
64213SOL    HW194472   8.978   4.583   9.593
64213SOL    HW294473   8.856   4.493   9.594
64214SOL     OW94474   9.660   2.254   0.423
64214SOL    HW194475   9.671   2.235   0.330
64214SOL    HW294476   9.637   2.347   0.426
64215SOL     OW94477  10.812   5.160   4.742
64215SOL    HW194478  10.767   5.218   4.803
64215SOL    HW294479  10.795   5.198   4.656
64216SOL     OW94480   4.987  12.680   5.600
64216SOL    HW194481   4.913  12.692   5.659
64216SOL    HW294482   5.048  12.624   5.647
64217SOL     OW94483   2.437  11.821  14.189
64217SOL    HW194484   2.480  11.772  14.259
64217SOL    HW294485   2.480  11.906  14.189
64218SOL     OW94486   5.397   1.395   0.984
64218SOL    HW194487   5.408   1.338   0.907
64218SOL    HW294488   5.331   1.350   1.037
64219SOL     OW94489   4.334   0.012   2.454
64219SOL    HW194490   4.258   0.069   2.447
64219SOL    HW294491   4.303  14.815   2.504
64220SOL     OW94492   5.063   0.282   1.135
64220SOL    HW194493   5.144   0.261   1.181
64220SOL    HW294494   5.050   0.376   1.150
64221SOL     OW94495   5.830   7.705  13.273
64221SOL    HW194496   5.834   7.755  13.355
64221SOL    HW294497   5.806   7.770  13.206
64222SOL     OW94498   3.280  13.654   7.691
64222SOL    HW194499   3.190  13.661   7.658
64222SOL    HW294500   3.331  13.627   7.615
64223SOL     OW94501   8.220  14.706  10.086
64223SOL    HW194502   8.202  14.799  10.101
64223SOL    HW294503   8.273  14.679  10.161
64224SOL     OW94504   8.956   5.064   6.385
64224SOL    HW194505   9.018   4.999   6.354
64224SOL    HW294506   8.899   5.081   6.310
64225SOL     OW94507  10.748   0.517  10.916
64225SOL    HW194508  10.746   0.429  10.878
64225SOL    HW294509  10.816   0.512  10.983
64226SOL     OW94510   0.983   5.205   6.666
64226SOL    HW194511   0.918   5.198   6.735
64226SOL    HW294512   0.966   5.289   6.625
64227SOL     OW94513   9.326   8.112   7.262
64227SOL    HW194514   9.274   8.157   7.195
64227SOL    HW294515   9.280   8.130   7.344
64228SOL     OW94516   1.251  12.754   6.878
64228SOL    HW194517   1.276  12.806   6.954
64228SOL    HW294518   1.270  12.809   6.803
64229SOL     OW94519  12.789   7.192  14.543
64229SOL    HW194520  12.833   7.107  14.541
64229SOL    HW294521  12.853   7.252  14.583
64230SOL     OW94522   9.318   3.419   5.049
64230SOL    HW194523   9.410   3.410   5.021
64230SOL    HW294524   9.305   3.513   5.057
64231SOL     OW94525   4.244   2.920   4.278
64231SOL    HW194526   4.278   3.004   4.310
64231SOL    HW294527   4.167   2.944   4.227
64232SOL     OW94528  11.725   8.408   0.711
64232SOL    HW194529  11.802   8.353   0.720
64232SOL    HW294530  11.718   8.425   0.617
64233SOL     OW94531   9.030   4.551  11.769
64233SOL    HW194532   9.073   4.593  11.844
64233SOL    HW294533   9.044   4.611  11.696
64234SOL     OW94534   4.901   5.093  14.019
64234SOL    HW194535   4.886   5.145  14.098
64234SOL    HW294536   4.992   5.111  13.995
64235SOL     OW94537   7.313  13.467  12.816
64235SOL    HW194538   7.372  13.461  12.740
64235SOL    HW294539   7.235  13.418  12.789
64236SOL     OW94540   1.658   4.887   9.477
64236SOL    HW194541   1.703   4.888   9.392
64236SOL    HW294542   1.667   4.797   9.507
64237SOL     OW94543   1.437  13.270   2.195
64237SOL    HW194544   1.479  13.351   2.165
64237SOL    HW294545   1.441  13.275   2.291
64238SOL     OW94546   2.971  12.955   3.041
64238SOL    HW194547   2.940  13.044   3.060
64238SOL    HW294548   2.941  12.903   3.116
64239SOL     OW94549  11.819   4.444  13.032
64239SOL    HW194550  11.729   4.429  13.001
64239SOL    HW294551  11.871   4.379  12.986
64240SOL     OW94552   2.244  12.578  13.808
64240SOL    HW194553   2.300  12.619  13.743
64240SOL    HW294554   2.222  12.648  13.869
64241SOL     OW94555   7.861  12.382  12.802
64241SOL    HW194556   7.800  12.311  12.782
64241SOL    HW294557   7.805  12.458  12.814
64242SOL     OW94558   5.621   8.616   5.986
64242SOL    HW194559   5.707   8.577   5.971
64242SOL    HW294560   5.565   8.542   6.010
64243SOL     OW94561  13.296   4.739   0.846
64243SOL    HW194562  13.284   4.831   0.822
64243SOL    HW294563  13.356   4.705   0.779
64244SOL     OW94564   3.522  10.427   8.307
64244SOL    HW194565   3.493  10.478   8.231
64244SOL    HW294566   3.456  10.358   8.316
64245SOL     OW94567   7.120  14.325   7.324
64245SOL    HW194568   7.187  14.331   7.256
64245SOL    HW294569   7.145  14.250   7.377
64246SOL     OW94570   4.713  11.042  13.971
64246SOL    HW194571   4.758  10.962  13.996
64246SOL    HW294572   4.750  11.064  13.886
64247SOL     OW94573   4.697   3.934  13.133
64247SOL    HW194574   4.635   3.943  13.060
64247SOL    HW294575   4.780   3.912  13.091
64248SOL     OW94576  10.565   6.116   5.014
64248SOL    HW194577  10.641   6.064   5.040
64248SOL    HW294578  10.596   6.206   5.014
64249SOL     OW94579   8.518  14.252   2.272
64249SOL    HW194580   8.613  14.257   2.283
64249SOL    HW294581   8.505  14.196   2.196
64250SOL     OW94582   5.149   6.805   4.969
64250SOL    HW194583   5.243   6.792   4.981
64250SOL    HW294584   5.139   6.824   4.875
64251SOL     OW94585   6.716   0.935   6.173
64251SOL    HW194586   6.625   0.958   6.190
64251SOL    HW294587   6.763   0.960   6.253
64252SOL     OW94588   6.174   1.934  13.845
64252SOL    HW194589   6.229   1.857  13.862
64252SOL    HW294590   6.102   1.900  13.792
64253SOL     OW94591   4.338  12.752  10.196
64253SOL    HW194592   4.369  12.667  10.228
64253SOL    HW294593   4.266  12.774  10.255
64254SOL     OW94594   8.585   2.096   4.818
64254SOL    HW194595   8.583   2.164   4.751
64254SOL    HW294596   8.507   2.043   4.801
64255SOL     OW94597   3.591   1.112   4.388
64255SOL    HW194598   3.519   1.052   4.404
64255SOL    HW294599   3.550   1.196   4.367
64256SOL     OW94600   4.491  12.447  13.343
64256SOL    HW194601   4.511  12.370  13.398
64256SOL    HW294602   4.574  12.494  13.339
64257SOL     OW94603   1.419   4.575   5.987
64257SOL    HW194604   1.327   4.551   5.995
64257SOL    HW294605   1.430   4.597   5.894
64258SOL     OW94606  13.927  11.699   4.075
64258SOL    HW194607  13.894  11.609   4.066
64258SOL    HW294608  13.892  11.729   4.159
64259SOL     OW94609   3.737   4.859  12.021
64259SOL    HW194610   3.788   4.918  12.076
64259SOL    HW294611   3.802   4.802  11.981
64260SOL     OW94612   6.212  10.048   9.034
64260SOL    HW194613   6.222  10.084   9.122
64260SOL    HW294614   6.157   9.970   9.046
64261SOL     OW94615  10.068   7.342  11.848
64261SOL    HW194616  10.021   7.260  11.864
64261SOL    HW294617  10.059   7.357  11.754
64262SOL     OW94618   3.906  13.067   0.515
64262SOL    HW194619   3.991  13.097   0.484
64262SOL    HW294620   3.918  12.974   0.534
64263SOL     OW94621   6.070   6.327   8.050
64263SOL    HW194622   6.051   6.389   8.121
64263SOL    HW294623   6.165   6.316   8.053
64264SOL     OW94624  11.816   5.329   4.745
64264SOL    HW194625  11.795   5.417   4.778
64264SOL    HW294626  11.806   5.272   4.821
64265SOL     OW94627   3.382   4.050   4.460
64265SOL    HW194628   3.355   3.959   4.453
64265SOL    HW294629   3.366   4.087   4.373
64266SOL     OW94630   8.710  13.280   1.163
64266SOL    HW194631   8.746  13.346   1.104
64266SOL    HW294632   8.616  13.295   1.161
64267SOL     OW94633  10.103   3.118   4.482
64267SOL    HW194634  10.122   3.025   4.490
64267SOL    HW294635  10.021   3.130   4.531
64268SOL     OW94636   8.352   0.556  12.479
64268SOL    HW194637   8.433   0.549  12.428
64268SOL    HW294638   8.362   0.636  12.530
64269SOL     OW94639   3.209   3.411  11.509
64269SOL    HW194640   3.157   3.372  11.439
64269SOL    HW294641   3.168   3.497  11.524
64270SOL     OW94642  10.851  11.723   2.079
64270SOL    HW194643  10.844  11.761   1.992
64270SOL    HW294644  10.768  11.746   2.122
64271SOL     OW94645   5.159   6.491  11.235
64271SOL    HW194646   5.181   6.537  11.154
64271SOL    HW294647   5.235   6.504  11.292
64272SOL     OW94648  11.726  14.080  13.807
64272SOL    HW194649  11.796  14.044  13.862
64272SOL    HW294650  11.770  14.147  13.754
64273SOL     OW94651   3.580   1.229  14.594
64273SOL    HW194652   3.663   1.181  14.596
64273SOL    HW294653   3.559   1.244  14.686
64274SOL     OW94654  10.233   6.406  13.799
64274SOL    HW194655  10.313   6.417  13.850
64274SOL    HW294656  10.163   6.436  13.858
64275SOL     OW94657   6.074   9.940   4.186
64275SOL    HW194658   5.980   9.952   4.197
64275SOL    HW294659   6.093   9.857   4.231
64276SOL     OW94660  11.171   7.347   3.058
64276SOL    HW194661  11.213   7.261   3.064
64276SOL    HW294662  11.204   7.396   3.133
64277SOL     OW94663   4.136   1.191   7.168
64277SOL    HW194664   4.123   1.123   7.101
64277SOL    HW294665   4.048   1.207   7.202
64278SOL     OW94666  11.311   4.482   5.923
64278SOL    HW194667  11.239   4.490   5.985
64278SOL    HW294668  11.316   4.389   5.903
64279SOL     OW94669  12.985   2.724  14.549
64279SOL    HW194670  13.003   2.645  14.600
64279SOL    HW294671  12.965   2.693  14.461
64280SOL     OW94672  10.133   7.447   8.017
64280SOL    HW194673  10.143   7.353   7.999
64280SOL    HW294674  10.042   7.466   7.992
64281SOL     OW94675  14.831  14.444  13.626
64281SOL    HW194676  14.765  14.511  13.605
64281SOL    HW294677   0.018  14.453  13.557
64282SOL     OW94678   9.862   9.531   3.043
64282SOL    HW194679   9.946   9.575   3.055
64282SOL    HW294680   9.807   9.565   3.113
64283SOL     OW94681   7.310   2.420   4.585
64283SOL    HW194682   7.248   2.402   4.513
64283SOL    HW294683   7.346   2.335   4.607
64284SOL     OW94684  11.346   9.446   8.303
64284SOL    HW194685  11.428   9.406   8.331
64284SOL    HW294686  11.317   9.497   8.379
64285SOL     OW94687  10.650   3.509   4.920
64285SOL    HW194688  10.572   3.454   4.912
64285SOL    HW294689  10.628   3.590   4.875
64286SOL     OW94690   4.590   1.271  11.457
64286SOL    HW194691   4.497   1.251  11.461
64286SOL    HW294692   4.615   1.290  11.548
64287SOL     OW94693  12.649   0.123  13.657
64287SOL    HW194694  12.701   0.044  13.642
64287SOL    HW294695  12.709   0.183  13.702
64288SOL     OW94696  11.970   3.904  13.378
64288SOL    HW194697  12.039   3.872  13.435
64288SOL    HW294698  11.931   3.978  13.425
64289SOL     OW94699   4.429   4.221  14.475
64289SOL    HW194700   4.381   4.188  14.551
64289SOL    HW294701   4.506   4.166  14.470
64290SOL     OW94702   4.400  10.607  12.267
64290SOL    HW194703   4.433  10.675  12.326
64290SOL    HW294704   4.467  10.598  12.200
64291SOL     OW94705   3.154  14.317   1.797
64291SOL    HW194706   3.227  14.366   1.758
64291SOL    HW294707   3.143  14.356   1.883
64292SOL     OW94708   2.579   7.840   3.664
64292SOL    HW194709   2.540   7.801   3.742
64292SOL    HW294710   2.617   7.923   3.694
64293SOL     OW94711   4.425  13.387   5.153
64293SOL    HW194712   4.416  13.429   5.068
64293SOL    HW294713   4.348  13.330   5.160
64294SOL     OW94714   9.751  12.065  14.419
64294SOL    HW194715   9.763  12.132  14.486
64294SOL    HW294716   9.762  12.112  14.336
64295SOL     OW94717  10.958  10.951  12.167
64295SOL    HW194718  10.997  11.017  12.224
64295SOL    HW294719  10.889  10.998  12.120
64296SOL     OW94720   6.264   8.193   8.625
64296SOL    HW194721   6.290   8.285   8.618
64296SOL    HW294722   6.255   8.165   8.534
64297SOL     OW94723  14.353   3.966  12.166
64297SOL    HW194724  14.257   3.970  12.164
64297SOL    HW294725  14.380   4.056  12.186
64298SOL     OW94726  11.212   1.390   2.760
64298SOL    HW194727  11.150   1.322   2.785
64298SOL    HW294728  11.158   1.459   2.723
64299SOL     OW94729  14.300   2.813  11.137
64299SOL    HW194730  14.312   2.747  11.204
64299SOL    HW294731  14.378   2.807  11.082
64300SOL     OW94732  11.628  12.048  10.030
64300SOL    HW194733  11.614  11.969   9.978
64300SOL    HW294734  11.706  12.029  10.083
64301SOL     OW94735   6.410  11.798  14.545
64301SOL    HW194736   6.423  11.882  14.590
64301SOL    HW294737   6.371  11.742  14.612
64302SOL     OW94738   1.098   6.775  11.140
64302SOL    HW194739   1.158   6.707  11.110
64302SOL    HW294740   1.104   6.772  11.236
64303SOL     OW94741   2.956   6.634   3.516
64303SOL    HW194742   2.886   6.692   3.485
64303SOL    HW294743   2.924   6.546   3.496
64304SOL     OW94744   0.840   9.838  11.346
64304SOL    HW194745   0.915   9.811  11.399
64304SOL    HW294746   0.859   9.804  11.259
64305SOL     OW94747   9.308  12.858   1.024
64305SOL    HW194748   9.334  12.789   1.085
64305SOL    HW294749   9.390  12.884   0.982
64306SOL     OW94750   7.589   5.543   9.002
64306SOL    HW194751   7.548   5.566   9.085
64306SOL    HW294752   7.621   5.626   8.966
64307SOL     OW94753  12.384   7.033   3.382
64307SOL    HW194754  12.433   6.990   3.312
64307SOL    HW294755  12.337   7.104   3.339
64308SOL     OW94756  13.820  10.164   2.238
64308SOL    HW194757  13.861  10.173   2.324
64308SOL    HW294758  13.729  10.189   2.252
64309SOL     OW94759  10.784   5.969   5.427
64309SOL    HW194760  10.841   6.043   5.444
64309SOL    HW294761  10.713   6.006   5.374
64310SOL     OW94762  10.533   0.570   8.669
64310SOL    HW194763  10.442   0.596   8.659
64310SOL    HW294764  10.582   0.628   8.611
64311SOL     OW94765   4.789  13.443   4.551
64311SOL    HW194766   4.849  13.402   4.489
64311SOL    HW294767   4.801  13.537   4.537
64312SOL     OW94768   4.387   8.229   0.558
64312SOL    HW194769   4.421   8.140   0.553
64312SOL    HW294770   4.455   8.283   0.518
64313SOL     OW94771   9.485   0.801   7.785
64313SOL    HW194772   9.529   0.716   7.789
64313SOL    HW294773   9.556   0.864   7.771
64314SOL     OW94774   6.616   6.809  12.266
64314SOL    HW194775   6.676   6.745  12.305
64314SOL    HW294776   6.547   6.756  12.226
64315SOL     OW94777   7.136   5.362   0.483
64315SOL    HW194778   7.065   5.367   0.547
64315SOL    HW294779   7.124   5.439   0.427
64316SOL     OW94780   5.197   0.985   1.323
64316SOL    HW194781   5.137   1.033   1.380
64316SOL    HW294782   5.170   0.894   1.329
64317SOL     OW94783   6.946   4.372   3.723
64317SOL    HW194784   6.886   4.301   3.745
64317SOL    HW294785   7.022   4.328   3.684
64318SOL     OW94786   8.019  11.362  12.097
64318SOL    HW194787   7.962  11.409  12.156
64318SOL    HW294788   8.078  11.430  12.061
64319SOL     OW94789  10.374  14.461  11.619
64319SOL    HW194790  10.315  14.535  11.608
64319SOL    HW294791  10.333  14.390  11.569
64320SOL     OW94792   7.898   7.111   3.686
64320SOL    HW194793   7.821   7.167   3.691
64320SOL    HW294794   7.938   7.116   3.773
64321SOL     OW94795   9.738   4.150   6.637
64321SOL    HW194796   9.827   4.167   6.665
64321SOL    HW294797   9.694   4.114   6.714
64322SOL     OW94798   7.797  11.265  10.294
64322SOL    HW194799   7.847  11.191  10.261
64322SOL    HW294800   7.764  11.236  10.379
64323SOL     OW94801   2.127  13.198  11.777
64323SOL    HW194802   2.167  13.181  11.862
64323SOL    HW294803   2.038  13.166  11.785
64324SOL     OW94804   1.120   7.890  12.336
64324SOL    HW194805   1.071   7.811  12.359
64324SOL    HW294806   1.054   7.959  12.332
64325SOL     OW94807   3.862   9.579  10.539
64325SOL    HW194808   3.928   9.515  10.566
64325SOL    HW294809   3.894   9.662  10.574
64326SOL     OW94810  11.400   2.201   9.417
64326SOL    HW194811  11.352   2.223   9.497
64326SOL    HW294812  11.439   2.283   9.388
64327SOL     OW94813   1.379   6.300   3.289
64327SOL    HW194814   1.301   6.322   3.238
64327SOL    HW294815   1.446   6.282   3.223
64328SOL     OW94816   7.766   1.747   6.986
64328SOL    HW194817   7.837   1.774   7.045
64328SOL    HW294818   7.810   1.715   6.908
64329SOL     OW94819  11.988   6.947   2.950
64329SOL    HW194820  11.932   6.885   2.903
64329SOL    HW294821  11.981   6.920   3.042
64330SOL     OW94822  14.383   9.864   4.091
64330SOL    HW194823  14.304   9.854   4.038
64330SOL    HW294824  14.390   9.782   4.139
64331SOL     OW94825  14.670   1.357   5.791
64331SOL    HW194826  14.615   1.435   5.778
64331SOL    HW294827  14.729   1.381   5.862
64332SOL     OW94828  14.698  10.314   4.966
64332SOL    HW194829  14.647  10.302   5.046
64332SOL    HW294830  14.718  10.408   4.964
64333SOL     OW94831   3.373  12.938   8.035
64333SOL    HW194832   3.311  12.986   8.089
64333SOL    HW294833   3.435  13.005   8.005
64334SOL     OW94834  13.159  12.396  14.843
64334SOL    HW194835  13.192  12.484  14.857
64334SOL    HW294836  13.122  12.371   0.049
64335SOL     OW94837   1.483  13.321   7.512
64335SOL    HW194838   1.533  13.380   7.568
64335SOL    HW294839   1.400  13.308   7.559
64336SOL     OW94840  10.756   3.900   4.931
64336SOL    HW194841  10.808   3.822   4.948
64336SOL    HW294842  10.798   3.940   4.854
64337SOL     OW94843   9.809   8.618  10.275
64337SOL    HW194844   9.873   8.555  10.305
64337SOL    HW294845   9.762   8.645  10.354
64338SOL     OW94846   3.440   9.636   5.810
64338SOL    HW194847   3.347   9.648   5.827
64338SOL    HW294848   3.452   9.666   5.720
64339SOL     OW94849  14.697   0.289   0.287
64339SOL    HW194850  14.672   0.213   0.339
64339SOL    HW294851  14.615   0.333   0.266
64340SOL     OW94852   4.769  14.462  13.681
64340SOL    HW194853   4.678  14.483  13.659
64340SOL    HW294854   4.762  14.391  13.745
64341SOL     OW94855   6.339   9.745   2.852
64341SOL    HW194856   6.258   9.783   2.885
64341SOL    HW294857   6.336   9.759   2.758
64342SOL     OW94858   9.677   9.541   5.856
64342SOL    HW194859   9.614   9.582   5.915
64342SOL    HW294860   9.655   9.576   5.770
64343SOL     OW94861  14.649   0.931   9.452
64343SOL    HW194862  14.680   1.021   9.456
64343SOL    HW294863  14.581   0.932   9.385
64344SOL     OW94864   9.885   6.164  14.710
64344SOL    HW194865   9.912   6.187  14.621
64344SOL    HW294866   9.857   6.247  14.749
64345SOL     OW94867   4.056  13.818   4.287
64345SOL    HW194868   3.971  13.789   4.320
64345SOL    HW294869   4.117  13.801   4.359
64346SOL     OW94870  11.173   6.906   3.755
64346SOL    HW194871  11.233   6.975   3.784
64346SOL    HW294872  11.203   6.885   3.667
64347SOL     OW94873  13.768  13.784   7.283
64347SOL    HW194874  13.686  13.767   7.328
64347SOL    HW294875  13.751  13.765   7.191
64348SOL     OW94876   3.833   9.317  13.185
64348SOL    HW194877   3.811   9.409  13.168
64348SOL    HW294878   3.792   9.298  13.269
64349SOL     OW94879  14.416  13.824  11.298
64349SOL    HW194880  14.422  13.900  11.356
64349SOL    HW294881  14.499  13.825  11.250
64350SOL     OW94882   6.230   4.231   7.020
64350SOL    HW194883   6.255   4.312   6.975
64350SOL    HW294884   6.302   4.171   7.002
64351SOL     OW94885  13.638   6.673   4.642
64351SOL    HW194886  13.728   6.644   4.661
64351SOL    HW294887  13.601   6.692   4.728
64352SOL     OW94888   9.136  12.522   9.065
64352SOL    HW194889   9.060  12.575   9.040
64352SOL    HW294890   9.115  12.488   9.152
64353SOL     OW94891   9.959   5.004   6.479
64353SOL    HW194892   9.908   4.940   6.529
64353SOL    HW294893   9.907   5.019   6.399
64354SOL     OW94894  13.359  12.192   4.038
64354SOL    HW194895  13.332  12.274   4.078
64354SOL    HW294896  13.296  12.178   3.967
64355SOL     OW94897   7.616  13.096   4.637
64355SOL    HW194898   7.664  13.138   4.709
64355SOL    HW294899   7.608  13.165   4.570
64356SOL     OW94900   5.116   6.660   1.458
64356SOL    HW194901   5.086   6.627   1.374
64356SOL    HW294902   5.040   6.651   1.515
64357SOL     OW94903  11.743  14.303  14.723
64357SOL    HW194904  11.817  14.352  14.757
64357SOL    HW294905  11.731  14.231  14.784
64358SOL     OW94906   7.822  13.733   4.004
64358SOL    HW194907   7.752  13.772   4.056
64358SOL    HW294908   7.875  13.685   4.068
64359SOL     OW94909   7.139   5.606   1.803
64359SOL    HW194910   7.072   5.669   1.776
64359SOL    HW294911   7.152   5.551   1.726
64360SOL     OW94912  14.763  12.470   5.330
64360SOL    HW194913  14.755  12.443   5.238
64360SOL    HW294914  14.694  12.422   5.375
64361SOL     OW94915  12.713   3.230  13.371
64361SOL    HW194916  12.670   3.314  13.350
64361SOL    HW294917  12.654   3.189  13.434
64362SOL     OW94918  12.570   6.900   3.191
64362SOL    HW194919  12.599   6.990   3.180
64362SOL    HW294920  12.650   6.851   3.213
64363SOL     OW94921   6.890  11.664   0.130
64363SOL    HW194922   6.928  11.723   0.196
64363SOL    HW294923   6.924  11.696   0.047
64364SOL     OW94924   7.233   0.914   9.251
64364SOL    HW194925   7.144   0.940   9.229
64364SOL    HW294926   7.237   0.821   9.228
64365SOL     OW94927  10.753   3.064  11.619
64365SOL    HW194928  10.827   3.018  11.659
64365SOL    HW294929  10.724   3.007  11.549
64366SOL     OW94930   6.157   4.165   1.442
64366SOL    HW194931   6.243   4.136   1.413
64366SOL    HW294932   6.173   4.219   1.519
64367SOL     OW94933   1.647   4.428   1.122
64367SOL    HW194934   1.682   4.338   1.125
64367SOL    HW294935   1.723   4.483   1.142
64368SOL     OW94936   3.876   8.521  11.832
64368SOL    HW194937   3.940   8.451  11.822
64368SOL    HW294938   3.903   8.587  11.767
64369SOL     OW94939   9.642   5.565   8.420
64369SOL    HW194940   9.583   5.618   8.366
64369SOL    HW294941   9.686   5.628   8.477
64370SOL     OW94942  10.149   3.209  12.569
64370SOL    HW194943  10.154   3.117  12.594
64370SOL    HW294944  10.202   3.214  12.489
64371SOL     OW94945  14.247   4.716   6.504
64371SOL    HW194946  14.165   4.690   6.547
64371SOL    HW294947  14.273   4.797   6.548
64372SOL     OW94948   8.700   7.254  12.998
64372SOL    HW194949   8.686   7.209  12.914
64372SOL    HW294950   8.795   7.251  13.011
64373SOL     OW94951   9.609   8.879   7.258
64373SOL    HW194952   9.641   8.800   7.214
64373SOL    HW294953   9.561   8.847   7.334
64374SOL     OW94954   7.239  10.909  11.112
64374SOL    HW194955   7.275  10.906  11.023
64374SOL    HW294956   7.309  10.874  11.167
64375SOL     OW94957  12.144  10.363  12.462
64375SOL    HW194958  12.134  10.429  12.530
64375SOL    HW294959  12.238  10.352  12.453
64376SOL     OW94960  10.255  12.036   1.612
64376SOL    HW194961  10.201  11.957   1.614
64376SOL    HW294962  10.191  12.108   1.609
64377SOL     OW94963   2.829   8.571   5.443
64377SOL    HW194964   2.878   8.519   5.508
64377SOL    HW294965   2.739   8.541   5.452
64378SOL     OW94966   6.137   8.957   6.686
64378SOL    HW194967   6.109   8.947   6.595
64378SOL    HW294968   6.232   8.960   6.682
64379SOL     OW94969   2.459  13.629   1.116
64379SOL    HW194970   2.399  13.573   1.067
64379SOL    HW294971   2.544  13.617   1.073
64380SOL     OW94972   1.760  14.685   4.875
64380SOL    HW194973   1.717  14.769   4.889
64380SOL    HW294974   1.692  14.620   4.893
64381SOL     OW94975   0.328   7.196  12.365
64381SOL    HW194976   0.275   7.150  12.431
64381SOL    HW294977   0.328   7.287  12.395
64382SOL     OW94978  12.108  14.004  14.752
64382SOL    HW194979  12.059  13.925  14.725
64382SOL    HW294980  12.181  14.008  14.691
64383SOL     OW94981  12.223   4.131   0.379
64383SOL    HW194982  12.132   4.107   0.365
64383SOL    HW294983  12.273   4.065   0.331
64384SOL     OW94984   7.339  10.382   3.854
64384SOL    HW194985   7.350  10.293   3.821
64384SOL    HW294986   7.248  10.386   3.882
64385SOL     OW94987   5.039   7.321  10.621
64385SOL    HW194988   5.132   7.339  10.603
64385SOL    HW294989   5.037   7.291  10.711
64386SOL     OW94990  11.850  12.451   5.922
64386SOL    HW194991  11.784  12.510   5.885
64386SOL    HW294992  11.799  12.387   5.971
64387SOL     OW94993   8.167   4.885  12.343
64387SOL    HW194994   8.245   4.902  12.394
64387SOL    HW294995   8.180   4.934  12.262
64388SOL     OW94996   0.781  13.644   7.905
64388SOL    HW194997   0.718  13.667   7.837
64388SOL    HW294998   0.838  13.578   7.865
64389SOL     OW94999  13.279   0.039  13.949
64389SOL    HW195000  13.221   0.072  13.880
64389SOL    HW295001  13.252  14.826  13.960
64390SOL     OW95002   6.628   6.889   4.542
64390SOL    HW195003   6.666   6.859   4.625
64390SOL    HW295004   6.647   6.983   4.540
64391SOL     OW95005  10.696  11.535   7.490
64391SOL    HW195006  10.715  11.457   7.437
64391SOL    HW295007  10.625  11.579   7.444
64392SOL     OW95008   4.860   4.324  13.950
64392SOL    HW195009   4.887   4.383  13.880
64392SOL    HW295010   4.776   4.360  13.981
64393SOL     OW95011   6.645   4.020   2.711
64393SOL    HW195012   6.700   4.048   2.638
64393SOL    HW295013   6.703   3.969   2.766
64394SOL     OW95014   5.097  11.221  11.066
64394SOL    HW195015   5.016  11.220  11.014
64394SOL    HW295016   5.155  11.160  11.020
64395SOL     OW95017   5.573   4.731  10.048
64395SOL    HW195018   5.665   4.722  10.025
64395SOL    HW295019   5.572   4.785  10.127
64396SOL     OW95020   8.467   2.896   0.441
64396SOL    HW195021   8.406   2.877   0.512
64396SOL    HW295022   8.544   2.843   0.460
64397SOL     OW95023   6.970  13.311  10.173
64397SOL    HW195024   6.946  13.252  10.243
64397SOL    HW295025   6.910  13.385  10.182
64398SOL     OW95026  11.057   5.167   7.528
64398SOL    HW195027  11.106   5.163   7.609
64398SOL    HW295028  11.030   5.076   7.512
64399SOL     OW95029  12.273   9.747  10.042
64399SOL    HW195030  12.195   9.785  10.001
64399SOL    HW295031  12.324   9.712   9.969
64400SOL     OW95032   2.848   2.278   4.685
64400SOL    HW195033   2.818   2.188   4.695
64400SOL    HW295034   2.898   2.279   4.604
64401SOL     OW95035  12.553   5.397   4.082
64401SOL    HW195036  12.499   5.472   4.056
64401SOL    HW295037  12.577   5.355   4.000
64402SOL     OW95038   3.994  10.500  14.471
64402SOL    HW195039   3.974  10.515  14.563
64402SOL    HW295040   3.996  10.404  14.462
64403SOL     OW95041  14.825   2.917   1.665
64403SOL    HW195042  14.854   2.922   1.757
64403SOL    HW295043   0.026   2.893   1.617
64404SOL     OW95044  10.746   6.654   1.339
64404SOL    HW195045  10.658   6.621   1.318
64404SOL    HW295046  10.748   6.658   1.435
64405SOL     OW95047   8.352   3.751  14.444
64405SOL    HW195048   8.314   3.834  14.475
64405SOL    HW295049   8.292   3.723  14.375
64406SOL     OW95050  12.238   8.365  12.707
64406SOL    HW195051  12.242   8.435  12.642
64406SOL    HW295052  12.286   8.293  12.667
64407SOL     OW95053   4.484   5.200  10.299
64407SOL    HW195054   4.422   5.156  10.357
64407SOL    HW295055   4.567   5.155  10.313
64408SOL     OW95056   2.280   6.847   2.638
64408SOL    HW195057   2.327   6.765   2.620
64408SOL    HW295058   2.204   6.844   2.581
64409SOL     OW95059  10.250   5.235   7.320
64409SOL    HW195060  10.203   5.232   7.404
64409SOL    HW295061  10.285   5.324   7.316
64410SOL     OW95062   7.061   8.916   8.345
64410SOL    HW195063   7.138   8.860   8.336
64410SOL    HW295064   7.024   8.920   8.257
64411SOL     OW95065   0.648   4.148  13.980
64411SOL    HW195066   0.651   4.232  13.934
64411SOL    HW295067   0.611   4.169  14.066
64412SOL     OW95068  13.496   9.336   8.032
64412SOL    HW195069  13.481   9.345   8.126
64412SOL    HW295070  13.569   9.395   8.014
64413SOL     OW95071   1.830  10.648  11.953
64413SOL    HW195072   1.901  10.602  11.998
64413SOL    HW295073   1.834  10.614  11.863
64414SOL     OW95074   2.206   6.010  13.160
64414SOL    HW195075   2.130   5.967  13.200
64414SOL    HW295076   2.265   5.938  13.138
64415SOL     OW95077   3.173   0.912  11.697
64415SOL    HW195078   3.198   0.926  11.788
64415SOL    HW295079   3.161   0.818  11.689
64416SOL     OW95080   7.334   5.568   6.702
64416SOL    HW195081   7.265   5.530   6.648
64416SOL    HW295082   7.345   5.506   6.775
64417SOL     OW95083   0.100  10.908  13.303
64417SOL    HW195084   0.141  10.911  13.389
64417SOL    HW295085   0.159  10.958  13.246
64418SOL     OW95086  11.931   8.118   1.644
64418SOL    HW195087  11.997   8.060   1.682
64418SOL    HW295088  11.943   8.110   1.550
64419SOL     OW95089  12.709  14.820  10.151
64419SOL    HW195090  12.750   0.001  10.088
64419SOL    HW295091  12.627  14.795  10.110
64420SOL     OW95092  14.367   9.716  10.234
64420SOL    HW195093  14.292   9.724  10.293
64420SOL    HW295094  14.433   9.668  10.285
64421SOL     OW95095   1.062   1.865   6.879
64421SOL    HW195096   1.134   1.882   6.940
64421SOL    HW295097   0.992   1.924   6.907
64422SOL     OW95098   3.115   7.685   7.699
64422SOL    HW195099   3.159   7.742   7.762
64422SOL    HW295100   3.057   7.743   7.651
64423SOL     OW95101  12.610   2.611   5.081
64423SOL    HW195102  12.656   2.533   5.050
64423SOL    HW295103  12.667   2.648   5.147
64424SOL     OW95104   3.023   0.374   2.361
64424SOL    HW195105   3.089   0.313   2.393
64424SOL    HW295106   3.054   0.460   2.389
64425SOL     OW95107   4.814   8.912   1.999
64425SOL    HW195108   4.775   8.931   1.914
64425SOL    HW295109   4.832   8.818   1.997
64426SOL     OW95110  11.215  14.706  11.770
64426SOL    HW195111  11.218  14.612  11.790
64426SOL    HW295112  11.244  14.711  11.679
64427SOL     OW95113   4.426   9.956   6.511
64427SOL    HW195114   4.499   9.901   6.483
64427SOL    HW295115   4.458  10.046   6.504
64428SOL     OW95116   1.270   1.979   8.589
64428SOL    HW195117   1.296   2.066   8.561
64428SOL    HW295118   1.175   1.984   8.601
64429SOL     OW95119  12.705   2.558  14.613
64429SOL    HW195120  12.714   2.480  14.559
64429SOL    HW295121  12.794   2.592  14.621
64430SOL     OW95122   2.146   3.037   0.167
64430SOL    HW195123   2.078   3.064   0.229
64430SOL    HW295124   2.198   2.973   0.215
64431SOL     OW95125  11.656   6.795   3.276
64431SOL    HW195126  11.682   6.734   3.345
64431SOL    HW295127  11.697   6.878   3.301
64432SOL     OW95128   0.330   7.722  10.095
64432SOL    HW195129   0.352   7.779  10.022
64432SOL    HW295130   0.243   7.688  10.075
64433SOL     OW95131  14.174  12.918  12.121
64433SOL    HW195132  14.160  12.911  12.026
64433SOL    HW295133  14.263  12.887  12.134
64434SOL     OW95134   9.440   7.239   5.125
64434SOL    HW195135   9.448   7.151   5.162
64434SOL    HW295136   9.472   7.297   5.195
64435SOL     OW95137   0.249   9.697   1.073
64435SOL    HW195138   0.218   9.725   0.987
64435SOL    HW295139   0.257   9.602   1.066
64436SOL     OW95140  14.215  14.600  14.662
64436SOL    HW195141  14.249  14.617  14.574
64436SOL    HW295142  14.142  14.661  14.671
64437SOL     OW95143   1.894   0.349   6.244
64437SOL    HW195144   1.893   0.298   6.162
64437SOL    HW295145   1.897   0.440   6.215
64438SOL     OW95146   2.143  11.187   8.157
64438SOL    HW195147   2.183  11.140   8.084
64438SOL    HW295148   2.183  11.148   8.235
64439SOL     OW95149   1.431   7.512  10.779
64439SOL    HW195150   1.349   7.505  10.730
64439SOL    HW295151   1.404   7.525  10.870
64440SOL     OW95152   2.298   1.447  13.171
64440SOL    HW195153   2.391   1.452  13.194
64440SOL    HW295154   2.284   1.522  13.113
64441SOL     OW95155   5.185   1.678  12.594
64441SOL    HW195156   5.174   1.626  12.514
64441SOL    HW295157   5.272   1.656  12.625
64442SOL     OW95158   7.174   5.493  14.380
64442SOL    HW195159   7.141   5.522  14.465
64442SOL    HW295160   7.096   5.483  14.326
64443SOL     OW95161  10.590   0.943   1.969
64443SOL    HW195162  10.607   1.030   1.934
64443SOL    HW295163  10.625   0.945   2.058
64444SOL     OW95164   5.643  10.453   9.016
64444SOL    HW195165   5.708  10.502   9.067
64444SOL    HW295166   5.687  10.371   8.994
64445SOL     OW95167   5.094   4.557   7.735
64445SOL    HW195168   5.052   4.637   7.767
64445SOL    HW295169   5.022   4.504   7.701
64446SOL     OW95170   0.731   4.251  14.820
64446SOL    HW195171   0.770   4.338  14.830
64446SOL    HW295172   0.752   4.206   0.023
64447SOL     OW95173  13.400  11.939   5.920
64447SOL    HW195174  13.472  11.988   5.959
64447SOL    HW295175  13.398  11.969   5.829
64448SOL     OW95176   4.389   2.980  10.374
64448SOL    HW195177   4.436   3.056  10.339
64448SOL    HW295178   4.381   2.921  10.298
64449SOL     OW95179   9.161  14.574  14.310
64449SOL    HW195180   9.146  14.624  14.390
64449SOL    HW295181   9.084  14.517  14.304
64450SOL     OW95182   2.801   5.185   1.461
64450SOL    HW195183   2.756   5.259   1.422
64450SOL    HW295184   2.865   5.158   1.396
64451SOL     OW95185   8.129  11.001   0.628
64451SOL    HW195186   8.054  10.978   0.574
64451SOL    HW295187   8.176  10.918   0.640
64452SOL     OW95188  13.302  12.241   0.805
64452SOL    HW195189  13.259  12.296   0.739
64452SOL    HW295190  13.231  12.189   0.843
64453SOL     OW95191  12.057   2.625   7.218
64453SOL    HW195192  12.091   2.536   7.231
64453SOL    HW295193  11.971   2.612   7.179
64454SOL     OW95194   4.721   7.803   3.465
64454SOL    HW195195   4.735   7.726   3.520
64454SOL    HW295196   4.637   7.787   3.421
64455SOL     OW95197   9.725   5.839   3.899
64455SOL    HW195198   9.775   5.758   3.891
64455SOL    HW295199   9.643   5.821   3.854
64456SOL     OW95200   1.778   2.440   3.985
64456SOL    HW195201   1.853   2.380   3.993
64456SOL    HW295202   1.814   2.526   4.008
64457SOL     OW95203   0.359   3.761   2.511
64457SOL    HW195204   0.352   3.856   2.516
64457SOL    HW295205   0.444   3.741   2.549
64458SOL     OW95206  10.529   6.969  13.348
64458SOL    HW195207  10.461   6.918  13.306
64458SOL    HW295208  10.611   6.935  13.312
64459SOL     OW95209  10.378   1.349   0.952
64459SOL    HW195210  10.401   1.437   0.921
64459SOL    HW295211  10.438   1.333   1.025
64460SOL     OW95212  10.166   1.420  10.956
64460SOL    HW195213  10.128   1.508  10.955
64460SOL    HW295214  10.103   1.366  10.909
64461SOL     OW95215   8.906   4.328  12.166
64461SOL    HW195216   8.934   4.254  12.219
64461SOL    HW295217   8.984   4.353  12.116
64462SOL     OW95218  13.422   0.205   7.622
64462SOL    HW195219  13.343   0.227   7.573
64462SOL    HW295220  13.494   0.240   7.570
64463SOL     OW95221   0.116  11.204  10.825
64463SOL    HW195222   0.140  11.120  10.786
64463SOL    HW295223   0.026  11.219  10.796
64464SOL     OW95224  10.524   8.743  13.131
64464SOL    HW195225  10.538   8.838  13.133
64464SOL    HW295226  10.534   8.715  13.222
64465SOL     OW95227   7.305  13.208   6.318
64465SOL    HW195228   7.210  13.203   6.327
64465SOL    HW295229   7.338  13.203   6.408
64466SOL     OW95230   1.223   2.227   2.525
64466SOL    HW195231   1.212   2.305   2.470
64466SOL    HW295232   1.297   2.249   2.582
64467SOL     OW95233   9.018  11.360   1.649
64467SOL    HW195234   8.976  11.287   1.695
64467SOL    HW295235   9.105  11.366   1.687
64468SOL     OW95236  12.159   3.509   1.959
64468SOL    HW195237  12.080   3.488   1.909
64468SOL    HW295238  12.131   3.503   2.050
64469SOL     OW95239  12.009   6.895   5.573
64469SOL    HW195240  11.988   6.803   5.558
64469SOL    HW295241  12.055   6.922   5.494
64470SOL     OW95242  10.304  10.241  13.971
64470SOL    HW195243  10.266  10.165  14.015
64470SOL    HW295244  10.229  10.298  13.954
64471SOL     OW95245   2.747   8.972  10.121
64471SOL    HW195246   2.705   8.966  10.035
64471SOL    HW295247   2.819   9.034  10.108
64472SOL     OW95248  14.598   8.660  12.721
64472SOL    HW195249  14.505   8.680  12.718
64472SOL    HW295250  14.621   8.668  12.814
64473SOL     OW95251   2.704   5.863   1.225
64473SOL    HW195252   2.690   5.881   1.132
64473SOL    HW295253   2.745   5.777   1.226
64474SOL     OW95254  10.946   5.071   9.812
64474SOL    HW195255  11.018   5.038   9.866
64474SOL    HW295256  10.919   5.152   9.855
64475SOL     OW95257   0.580  10.410   7.923
64475SOL    HW195258   0.536  10.346   7.980
64475SOL    HW295259   0.630  10.465   7.984
64476SOL     OW95260  14.762  13.486  10.268
64476SOL    HW195261  14.707  13.534  10.331
64476SOL    HW295262  14.729  13.512  10.182
64477SOL     OW95263   5.643   9.181   8.139
64477SOL    HW195264   5.640   9.265   8.184
64477SOL    HW295265   5.697   9.197   8.061
64478SOL     OW95266   3.614   3.102   2.806
64478SOL    HW195267   3.591   3.175   2.863
64478SOL    HW295268   3.709   3.092   2.816
64479SOL     OW95269   0.405   6.017  14.030
64479SOL    HW195270   0.401   5.960  13.953
64479SOL    HW295271   0.330   6.076  14.021
64480SOL     OW95272   8.731   4.196   2.077
64480SOL    HW195273   8.806   4.190   2.136
64480SOL    HW295274   8.655   4.190   2.134
64481SOL     OW95275   7.787   1.669  11.910
64481SOL    HW195276   7.725   1.720  11.963
64481SOL    HW295277   7.731   1.611  11.857
64482SOL     OW95278   6.169  11.199   8.707
64482SOL    HW195279   6.174  11.155   8.792
64482SOL    HW295280   6.248  11.171   8.661
64483SOL     OW95281   7.720  12.742  10.036
64483SOL    HW195282   7.699  12.792   9.958
64483SOL    HW295283   7.814  12.722  10.028
64484SOL     OW95284  13.338  10.595  11.064
64484SOL    HW195285  13.345  10.559  11.152
64484SOL    HW295286  13.304  10.684  11.077
64485SOL     OW95287   4.978   1.742   7.947
64485SOL    HW195288   4.913   1.772   8.010
64485SOL    HW295289   5.036   1.818   7.934
64486SOL     OW95290   6.103   2.431  13.604
64486SOL    HW195291   6.010   2.450  13.589
64486SOL    HW295292   6.111   2.424  13.699
64487SOL     OW95293  14.092   4.101   5.942
64487SOL    HW195294  14.026   4.045   5.982
64487SOL    HW295295  14.145   4.131   6.016
64488SOL     OW95296   9.268  14.790  11.023
64488SOL    HW195297   9.361  14.783  11.006
64488SOL    HW295298   9.261  14.802  11.118
64489SOL     OW95299   9.351   5.476  13.381
64489SOL    HW195300   9.446   5.484  13.390
64489SOL    HW295301   9.335   5.486  13.287
64490SOL     OW95302   6.075  12.299   5.484
64490SOL    HW195303   6.160  12.315   5.444
64490SOL    HW295304   6.061  12.205   5.475
64491SOL     OW95305   9.569   3.431   2.965
64491SOL    HW195306   9.567   3.510   2.912
64491SOL    HW295307   9.582   3.461   3.054
64492SOL     OW95308   1.867  14.851   7.643
64492SOL    HW195309   1.834   0.049   7.690
64492SOL    HW295310   1.788  14.801   7.621
64493SOL     OW95311  10.328   8.931   4.122
64493SOL    HW195312  10.362   8.978   4.198
64493SOL    HW295313  10.325   8.839   4.149
64494SOL     OW95314  11.989   5.388   3.233
64494SOL    HW195315  11.993   5.472   3.187
64494SOL    HW295316  11.966   5.412   3.323
64495SOL     OW95317  13.316   6.900  12.594
64495SOL    HW195318  13.345   6.879  12.505
64495SOL    HW295319  13.313   6.995  12.597
64496SOL     OW95320   1.515  11.249   4.426
64496SOL    HW195321   1.525  11.154   4.419
64496SOL    HW295322   1.450  11.271   4.360
64497SOL     OW95323   2.821   3.724   1.572
64497SOL    HW195324   2.879   3.787   1.615
64497SOL    HW295325   2.733   3.751   1.599
64498SOL     OW95326   4.818  12.845   0.905
64498SOL    HW195327   4.858  12.759   0.893
64498SOL    HW295328   4.866  12.883   0.979
64499SOL     OW95329   4.282   1.785  12.092
64499SOL    HW195330   4.240   1.717  12.039
64499SOL    HW295331   4.228   1.791  12.170
64500SOL     OW95332   8.108   8.099   0.486
64500SOL    HW195333   8.178   8.163   0.477
64500SOL    HW295334   8.152   8.017   0.508
64501SOL     OW95335   0.794  12.412   4.969
64501SOL    HW195336   0.832  12.343   4.915
64501SOL    HW295337   0.700  12.411   4.947
64502SOL     OW95338   9.000   1.237   4.444
64502SOL    HW195339   8.931   1.171   4.436
64502SOL    HW295340   9.059   1.202   4.511
64503SOL     OW95341   5.761   0.819   2.285
64503SOL    HW195342   5.854   0.817   2.260
64503SOL    HW295343   5.725   0.893   2.236
64504SOL     OW95344  13.553  14.065   3.213
64504SOL    HW195345  13.619  14.120   3.254
64504SOL    HW295346  13.525  14.005   3.282
64505SOL     OW95347   8.533   6.251   6.125
64505SOL    HW195348   8.551   6.290   6.040
64505SOL    HW295349   8.618   6.246   6.168
64506SOL     OW95350   2.719   3.028  12.001
64506SOL    HW195351   2.751   2.995  11.916
64506SOL    HW295352   2.696   3.119  11.985
64507SOL     OW95353   5.559   7.803   5.084
64507SOL    HW195354   5.470   7.777   5.060
64507SOL    HW295355   5.569   7.773   5.174
64508SOL     OW95356   2.778   0.220   6.363
64508SOL    HW195357   2.711   0.153   6.350
64508SOL    HW295358   2.784   0.265   6.279
64509SOL     OW95359  14.562  12.845  14.761
64509SOL    HW195360  14.636  12.890  14.718
64509SOL    HW295361  14.550  12.765  14.710
64510SOL     OW95362   6.824   4.737  11.680
64510SOL    HW195363   6.761   4.668  11.701
64510SOL    HW295364   6.899   4.690  11.644
64511SOL     OW95365  13.992  13.335  11.179
64511SOL    HW195366  14.031  13.363  11.097
64511SOL    HW295367  13.900  13.319  11.157
64512SOL     OW95368   2.988   3.687   6.222
64512SOL    HW195369   3.031   3.726   6.298
64512SOL    HW295370   2.897   3.677   6.249
64513SOL     OW95371  13.309   7.212   3.239
64513SOL    HW195372  13.329   7.118   3.232
64513SOL    HW295373  13.326   7.246   3.151
64514SOL     OW95374   4.728  12.286   6.433
64514SOL    HW195375   4.697  12.212   6.485
64514SOL    HW295376   4.822  12.272   6.425
64515SOL     OW95377   5.032   4.576   1.861
64515SOL    HW195378   4.938   4.586   1.848
64515SOL    HW295379   5.044   4.485   1.888
64516SOL     OW95380   1.966   9.090  11.943
64516SOL    HW195381   2.028   9.089  12.016
64516SOL    HW295382   1.950   8.997  11.925
64517SOL     OW95383   2.808   5.663   5.529
64517SOL    HW195384   2.819   5.757   5.521
64517SOL    HW295385   2.737   5.652   5.592
64518SOL     OW95386  10.201  11.204  12.136
64518SOL    HW195387  10.259  11.181  12.209
64518SOL    HW295388  10.115  11.217  12.177
64519SOL     OW95389  12.500   9.512  10.394
64519SOL    HW195390  12.494   9.587  10.452
64519SOL    HW295391  12.593   9.505  10.373
64520SOL     OW95392  12.531   3.325   3.849
64520SOL    HW195393  12.488   3.277   3.920
64520SOL    HW295394  12.610   3.275   3.832
64521SOL     OW95395  10.847   1.692  12.868
64521SOL    HW195396  10.817   1.612  12.910
64521SOL    HW295397  10.866   1.667  12.777
64522SOL     OW95398  13.344   4.298   5.949
64522SOL    HW195399  13.326   4.205   5.934
64522SOL    HW295400  13.434   4.310   5.920
64523SOL     OW95401   6.090   6.346   8.805
64523SOL    HW195402   6.094   6.441   8.802
64523SOL    HW295403   6.051   6.320   8.722
64524SOL     OW95404   7.796   7.281   2.013
64524SOL    HW195405   7.722   7.336   2.038
64524SOL    HW295406   7.868   7.313   2.067
64525SOL     OW95407   7.958   0.991  13.172
64525SOL    HW195408   7.969   1.079  13.137
64525SOL    HW295409   7.980   0.999  13.265
64526SOL     OW95410   1.437   0.835   1.598
64526SOL    HW195411   1.425   0.882   1.680
64526SOL    HW295412   1.454   0.744   1.624
64527SOL     OW95413  14.057  14.594   5.140
64527SOL    HW195414  14.082  14.664   5.201
64527SOL    HW295415  13.977  14.557   5.177
64528SOL     OW95416   1.310   2.356   3.814
64528SOL    HW195417   1.300   2.292   3.743
64528SOL    HW295418   1.331   2.303   3.891
64529SOL     OW95419   4.965   2.207   0.507
64529SOL    HW195420   5.015   2.286   0.485
64529SOL    HW295421   4.887   2.213   0.453
64530SOL     OW95422   1.681   9.280   9.530
64530SOL    HW195423   1.605   9.239   9.489
64530SOL    HW295424   1.750   9.278   9.464
64531SOL     OW95425   3.967  14.447   6.921
64531SOL    HW195426   4.004  14.526   6.883
64531SOL    HW295427   3.917  14.407   6.850
64532SOL     OW95428   6.243  14.140  12.391
64532SOL    HW195429   6.216  14.165  12.479
64532SOL    HW295430   6.253  14.045  12.394
64533SOL     OW95431   4.346   8.166  11.031
64533SOL    HW195432   4.353   8.261  11.022
64533SOL    HW295433   4.269   8.143  10.979
64534SOL     OW95434   1.106  12.853  10.858
64534SOL    HW195435   1.144  12.928  10.904
64534SOL    HW295436   1.180  12.808  10.818
64535SOL     OW95437   1.890   8.423   1.078
64535SOL    HW195438   1.817   8.459   1.028
64535SOL    HW295439   1.958   8.408   1.012
64536SOL     OW95440   1.520   8.560  12.861
64536SOL    HW195441   1.432   8.597  12.866
64536SOL    HW295442   1.550   8.557  12.952
64537SOL     OW95443  12.872   6.050   8.750
64537SOL    HW195444  12.887   6.054   8.845
64537SOL    HW295445  12.936   6.112   8.714
64538SOL     OW95446   3.219   0.452   4.256
64538SOL    HW195447   3.193   0.365   4.225
64538SOL    HW295448   3.315   0.450   4.257
64539SOL     OW95449  11.782  12.981   5.274
64539SOL    HW195450  11.813  13.050   5.333
64539SOL    HW295451  11.734  12.921   5.331
64540SOL     OW95452  12.242   0.701   4.689
64540SOL    HW195453  12.325   0.730   4.651
64540SOL    HW295454  12.252   0.606   4.699
64541SOL     OW95455   1.226  13.035   4.832
64541SOL    HW195456   1.183  12.950   4.836
64541SOL    HW295457   1.174  13.091   4.891
64542SOL     OW95458   2.857   5.127  12.011
64542SOL    HW195459   2.934   5.083  11.974
64542SOL    HW295460   2.811   5.058  12.058
64543SOL     OW95461   5.993  12.178  12.782
64543SOL    HW195462   6.085  12.173  12.756
64543SOL    HW295463   5.971  12.271  12.778
64544SOL     OW95464   1.730   1.175   5.093
64544SOL    HW195465   1.757   1.157   5.003
64544SOL    HW295466   1.691   1.263   5.089
64545SOL     OW95467   4.994   4.909   9.322
64545SOL    HW195468   5.055   4.969   9.279
64545SOL    HW295469   4.923   4.897   9.260
64546SOL     OW95470  10.352  14.529  14.678
64546SOL    HW195471  10.346  14.511  14.584
64546SOL    HW295472  10.443  14.555  14.692
64547SOL     OW95473   4.180   4.725  12.532
64547SOL    HW195474   4.107   4.674  12.499
64547SOL    HW295475   4.186   4.801  12.474
64548SOL     OW95476  11.965  12.013   9.576
64548SOL    HW195477  11.952  11.940   9.515
64548SOL    HW295478  12.055  12.002   9.607
64549SOL     OW95479  13.922   9.417  11.675
64549SOL    HW195480  13.980   9.367  11.732
64549SOL    HW295481  13.886   9.352  11.614
64550SOL     OW95482   4.010   3.199   0.764
64550SOL    HW195483   4.018   3.194   0.859
64550SOL    HW295484   3.979   3.112   0.738
64551SOL     OW95485   5.442   4.150  11.149
64551SOL    HW195486   5.353   4.116  11.143
64551SOL    HW295487   5.440   4.231  11.098
64552SOL     OW95488   4.036   3.723   0.932
64552SOL    HW195489   4.008   3.638   0.964
64552SOL    HW295490   4.080   3.705   0.849
64553SOL     OW95491  13.735   1.337   0.883
64553SOL    HW195492  13.681   1.372   0.953
64553SOL    HW295493  13.808   1.399   0.875
64554SOL     OW95494   4.129   9.515  12.048
64554SOL    HW195495   4.131   9.439  11.990
64554SOL    HW295496   4.083   9.582  11.997
64555SOL     OW95497   7.624   5.943  13.280
64555SOL    HW195498   7.577   5.957  13.198
64555SOL    HW295499   7.587   5.862  13.315
64556SOL     OW95500  13.806  11.747  14.517
64556SOL    HW195501  13.896  11.729  14.545
64556SOL    HW295502  13.753  11.733  14.595
64557SOL     OW95503   0.184   2.448  13.278
64557SOL    HW195504   0.167   2.481  13.366
64557SOL    HW295505   0.161   2.521  13.220
64558SOL     OW95506  12.900   9.800  10.208
64558SOL    HW195507  12.924   9.796  10.115
64558SOL    HW295508  12.845   9.879  10.215
64559SOL     OW95509   6.855  12.156  10.193
64559SOL    HW195510   6.806  12.198  10.122
64559SOL    HW295511   6.878  12.228  10.252
64560SOL     OW95512  12.387   7.036   7.900
64560SOL    HW195513  12.364   7.025   7.992
64560SOL    HW295514  12.336   7.111   7.871
64561SOL     OW95515  13.218  13.745   6.399
64561SOL    HW195516  13.165  13.713   6.326
64561SOL    HW295517  13.255  13.666   6.437
64562SOL     OW95518   9.662   0.808   0.123
64562SOL    HW195519   9.657   0.841   0.033
64562SOL    HW295520   9.637   0.882   0.177
64563SOL     OW95521  11.129  11.673   3.827
64563SOL    HW195522  11.097  11.666   3.917
64563SOL    HW295523  11.170  11.759   3.823
64564SOL     OW95524   3.740   2.654  10.775
64564SOL    HW195525   3.735   2.696  10.861
64564SOL    HW295526   3.726   2.561  10.793
64565SOL     OW95527   6.223   5.099   4.824
64565SOL    HW195528   6.274   5.124   4.901
64565SOL    HW295529   6.152   5.044   4.858
64566SOL     OW95530  10.549   5.828   9.512
64566SOL    HW195531  10.467   5.862   9.547
64566SOL    HW295532  10.611   5.836   9.585
64567SOL     OW95533   8.505   4.420   8.469
64567SOL    HW195534   8.561   4.386   8.538
64567SOL    HW295535   8.534   4.510   8.457
64568SOL     OW95536  11.355  10.667  14.170
64568SOL    HW195537  11.328  10.738  14.112
64568SOL    HW295538  11.276  10.615  14.183
64569SOL     OW95539  12.577   4.572   2.200
64569SOL    HW195540  12.673   4.575   2.199
64569SOL    HW295541  12.555   4.486   2.165
64570SOL     OW95542   3.234   9.643  12.827
64570SOL    HW195543   3.261   9.734  12.821
64570SOL    HW295544   3.160   9.636  12.766
64571SOL     OW95545   5.190  11.849   1.633
64571SOL    HW195546   5.099  11.818   1.628
64571SOL    HW295547   5.196  11.889   1.720
64572SOL     OW95548   4.433  10.628  10.538
64572SOL    HW195549   4.512  10.603  10.489
64572SOL    HW295550   4.412  10.715  10.505
64573SOL     OW95551   0.245  10.243   3.952
64573SOL    HW195552   0.283  10.330   3.945
64573SOL    HW295553   0.198  10.230   3.870
64574SOL     OW95554   3.620  11.529  10.384
64574SOL    HW195555   3.632  11.565  10.472
64574SOL    HW295556   3.588  11.439  10.399
64575SOL     OW95557   4.517   9.001   7.716
64575SOL    HW195558   4.464   9.020   7.793
64575SOL    HW295559   4.472   9.044   7.644
64576SOL     OW95560   2.583   4.795   6.672
64576SOL    HW195561   2.657   4.790   6.611
64576SOL    HW295562   2.578   4.887   6.696
64577SOL     OW95563  13.722   1.863  14.563
64577SOL    HW195564  13.628   1.853  14.547
64577SOL    HW295565  13.762   1.793  14.511
64578SOL     OW95566   1.609  14.722  14.657
64578SOL    HW195567   1.552  14.660  14.703
64578SOL    HW295568   1.623  14.682  14.571
64579SOL     OW95569   1.246  14.574   4.934
64579SOL    HW195570   1.213  14.518   5.005
64579SOL    HW295571   1.318  14.623   4.973
64580SOL     OW95572   6.788   6.300   6.309
64580SOL    HW195573   6.780   6.205   6.315
64580SOL    HW295574   6.848   6.324   6.379
64581SOL     OW95575  11.935   3.854  12.562
64581SOL    HW195576  11.931   3.941  12.603
64581SOL    HW295577  11.914   3.871  12.470
64582SOL     OW95578   0.017   1.212   2.592
64582SOL    HW195579   0.023   1.306   2.609
64582SOL    HW295580  14.834   1.205   2.519
64583SOL     OW95581  13.374  12.031  12.505
64583SOL    HW195582  13.447  12.044  12.444
64583SOL    HW295583  13.318  11.966  12.462
64584SOL     OW95584  13.374  10.736  12.530
64584SOL    HW195585  13.381  10.819  12.482
64584SOL    HW295586  13.362  10.670  12.462
64585SOL     OW95587  13.034  10.360  13.855
64585SOL    HW195588  13.086  10.343  13.933
64585SOL    HW295589  12.954  10.310  13.868
64586SOL     OW95590   9.394   9.336  10.241
64586SOL    HW195591   9.384   9.373  10.153
64586SOL    HW295592   9.466   9.386  10.280
64587SOL     OW95593   4.472  11.096  11.175
64587SOL    HW195594   4.539  11.162  11.195
64587SOL    HW295595   4.520  11.013  11.175
64588SOL     OW95596  12.943   8.144   1.918
64588SOL    HW195597  12.992   8.171   1.840
64588SOL    HW295598  12.966   8.052   1.930
64589SOL     OW95599  10.162   5.207   9.035
64589SOL    HW195600  10.069   5.229   9.035
64589SOL    HW295601  10.204   5.280   8.990
64590SOL     OW95602   1.199  11.715  11.824
64590SOL    HW195603   1.147  11.731  11.746
64590SOL    HW295604   1.139  11.672  11.885
64591SOL     OW95605   7.849  11.318   4.867
64591SOL    HW195606   7.770  11.288   4.821
64591SOL    HW295607   7.913  11.247   4.853
64592SOL     OW95608  11.898   4.503   8.877
64592SOL    HW195609  11.807   4.480   8.860
64592SOL    HW295610  11.926   4.548   8.797
64593SOL     OW95611   8.324   8.830   9.367
64593SOL    HW195612   8.251   8.775   9.398
64593SOL    HW295613   8.316   8.829   9.272
64594SOL     OW95614   7.127  12.046   3.097
64594SOL    HW195615   7.055  12.029   3.157
64594SOL    HW295616   7.149  11.959   3.061
64595SOL     OW95617  11.766   6.196  13.982
64595SOL    HW195618  11.799   6.161  13.900
64595SOL    HW295619  11.769   6.122  14.043
64596SOL     OW95620   9.051   5.077   4.661
64596SOL    HW195621   9.049   5.172   4.653
64596SOL    HW295622   8.963   5.049   4.635
64597SOL     OW95623   6.291   3.922   0.285
64597SOL    HW195624   6.262   3.964   0.366
64597SOL    HW295625   6.264   3.831   0.293
64598SOL     OW95626   1.072   8.516   5.581
64598SOL    HW195627   1.162   8.548   5.594
64598SOL    HW295628   1.017   8.593   5.597
64599SOL     OW95629   6.475   3.702  14.067
64599SOL    HW195630   6.424   3.782  14.073
64599SOL    HW295631   6.482   3.671  14.157
64600SOL     OW95632   6.172  11.367   1.889
64600SOL    HW195633   6.189  11.413   1.807
64600SOL    HW295634   6.077  11.369   1.898
64601SOL     OW95635   3.302   6.157   1.411
64601SOL    HW195636   3.229   6.206   1.372
64601SOL    HW295637   3.334   6.214   1.481
64602SOL     OW95638   2.453   5.514   6.989
64602SOL    HW195639   2.420   5.604   6.991
64602SOL    HW295640   2.546   5.523   6.965
64603SOL     OW95641  14.220   6.266   2.373
64603SOL    HW195642  14.213   6.296   2.282
64603SOL    HW295643  14.131   6.238   2.395
64604SOL     OW95644   4.490   6.410  14.114
64604SOL    HW195645   4.458   6.328  14.152
64604SOL    HW295646   4.579   6.391  14.086
64605SOL     OW95647  13.621   3.637   9.696
64605SOL    HW195648  13.576   3.558   9.667
64605SOL    HW295649  13.707   3.633   9.655
64606SOL     OW95650   7.372   9.531   7.816
64606SOL    HW195651   7.434   9.482   7.870
64606SOL    HW295652   7.304   9.559   7.878
64607SOL     OW95653  11.403   5.856   0.522
64607SOL    HW195654  11.454   5.917   0.575
64607SOL    HW295655  11.441   5.861   0.435
64608SOL     OW95656   3.067   0.491   1.915
64608SOL    HW195657   3.017   0.414   1.941
64608SOL    HW295658   3.080   0.540   1.996
64609SOL     OW95659   0.312   2.736   4.586
64609SOL    HW195660   0.353   2.800   4.645
64609SOL    HW295661   0.315   2.777   4.500
64610SOL     OW95662  10.712   9.022  10.127
64610SOL    HW195663  10.689   9.073  10.050
64610SOL    HW295664  10.763   8.949  10.094
64611SOL     OW95665   3.739   8.592   3.149
64611SOL    HW195666   3.652   8.553   3.138
64611SOL    HW295667   3.770   8.607   3.060
64612SOL     OW95668  12.471  14.800  14.223
64612SOL    HW195669  12.454   0.010  14.193
64612SOL    HW295670  12.393  14.776  14.273
64613SOL     OW95671  10.145   3.756  14.155
64613SOL    HW195672  10.073   3.762  14.093
64613SOL    HW295673  10.222   3.783  14.106
64614SOL     OW95674   6.895   0.544   7.750
64614SOL    HW195675   6.878   0.489   7.673
64614SOL    HW295676   6.966   0.602   7.723
64615SOL     OW95677  11.927   0.632   0.442
64615SOL    HW195678  11.948   0.550   0.487
64615SOL    HW295679  11.956   0.618   0.352
64616SOL     OW95680   2.174   8.376  10.532
64616SOL    HW195681   2.238   8.408  10.596
64616SOL    HW295682   2.098   8.352  10.585
64617SOL     OW95683  10.201  11.715   9.568
64617SOL    HW195684  10.247  11.642   9.525
64617SOL    HW295685  10.117  11.719   9.523
64618SOL     OW95686   8.861   2.611   0.127
64618SOL    HW195687   8.937   2.640   0.076
64618SOL    HW295688   8.891   2.534   0.175
64619SOL     OW95689   8.962   8.309   4.618
64619SOL    HW195690   8.894   8.241   4.613
64619SOL    HW295691   8.977   8.334   4.527
64620SOL     OW95692  11.824  12.187   7.897
64620SOL    HW195693  11.829  12.278   7.870
64620SOL    HW295694  11.913  12.154   7.890
64621SOL     OW95695   4.869   3.025   4.361
64621SOL    HW195696   4.804   3.093   4.379
64621SOL    HW295697   4.912   3.054   4.281
64622SOL     OW95698   6.082  14.817  14.115
64622SOL    HW195699   6.034  14.762  14.177
64622SOL    HW295700   6.173  14.809  14.142
64623SOL     OW95701   5.756  13.030   0.352
64623SOL    HW195702   5.782  13.087   0.281
64623SOL    HW295703   5.825  13.039   0.417
64624SOL     OW95704  12.771   5.730   5.920
64624SOL    HW195705  12.856   5.690   5.901
64624SOL    HW295706  12.776   5.757   6.011
64625SOL     OW95707   4.695   7.164   6.292
64625SOL    HW195708   4.677   7.230   6.225
64625SOL    HW295709   4.753   7.101   6.249
64626SOL     OW95710   7.642   9.112   3.418
64626SOL    HW195711   7.568   9.166   3.445
64626SOL    HW295712   7.629   9.029   3.464
64627SOL     OW95713   6.568  10.545   9.913
64627SOL    HW195714   6.515  10.590   9.980
64627SOL    HW295715   6.506  10.526   9.843
64628SOL     OW95716   1.423   8.675   8.272
64628SOL    HW195717   1.336   8.714   8.264
64628SOL    HW295718   1.430   8.618   8.196
64629SOL     OW95719   2.997  14.631   9.186
64629SOL    HW195720   2.950  14.568   9.240
64629SOL    HW295721   3.036  14.692   9.249
64630SOL     OW95722  11.498   4.168  13.988
64630SOL    HW195723  11.406   4.165  13.963
64630SOL    HW295724  11.504   4.243  14.048
64631SOL     OW95725  13.063   8.281  12.964
64631SOL    HW195726  13.101   8.340  13.029
64631SOL    HW295727  13.136   8.229  12.932
64632SOL     OW95728   8.670  10.194  14.685
64632SOL    HW195729   8.658  10.230  14.597
64632SOL    HW295730   8.586  10.209  14.729
64633SOL     OW95731  14.155   1.275  12.359
64633SOL    HW195732  14.243   1.307  12.380
64633SOL    HW295733  14.100   1.312  12.428
64634SOL     OW95734   9.980   5.343   8.560
64634SOL    HW195735  10.015   5.399   8.490
64634SOL    HW295736   9.955   5.404   8.629
64635SOL     OW95737   9.006   0.569   0.689
64635SOL    HW195738   8.934   0.621   0.725
64635SOL    HW295739   8.966   0.485   0.665
64636SOL     OW95740   4.113   8.737   8.782
64636SOL    HW195741   4.189   8.752   8.838
64636SOL    HW295742   4.109   8.813   8.725
64637SOL     OW95743   1.102  11.438   5.469
64637SOL    HW195744   1.154  11.458   5.547
64637SOL    HW295745   1.109  11.517   5.415
64638SOL     OW95746   4.494   8.397   1.460
64638SOL    HW195747   4.512   8.420   1.552
64638SOL    HW295748   4.455   8.477   1.424
64639SOL     OW95749   0.144   3.490  12.685
64639SOL    HW195750   0.167   3.398  12.692
64639SOL    HW295751   0.134   3.505  12.591
64640SOL     OW95752   7.280  11.077  13.012
64640SOL    HW195753   7.204  11.038  13.056
64640SOL    HW295754   7.341  11.097  13.083
64641SOL     OW95755   4.699   3.694   2.738
64641SOL    HW195756   4.622   3.642   2.759
64641SOL    HW295757   4.664   3.778   2.709
64642SOL     OW95758   9.182   4.582   1.617
64642SOL    HW195759   9.162   4.490   1.633
64642SOL    HW295760   9.226   4.583   1.532
64643SOL     OW95761  13.989   5.296   6.268
64643SOL    HW195762  14.027   5.375   6.306
64643SOL    HW295763  13.898   5.296   6.298
64644SOL     OW95764   8.423   2.183  10.071
64644SOL    HW195765   8.511   2.145  10.074
64644SOL    HW295766   8.428   2.259  10.129
64645SOL     OW95767   6.979   9.418   5.525
64645SOL    HW195768   7.067   9.453   5.514
64645SOL    HW295769   6.944   9.412   5.437
64646SOL     OW95770  13.760   5.529  13.038
64646SOL    HW195771  13.714   5.492  12.963
64646SOL    HW295772  13.791   5.452  13.086
64647SOL     OW95773   6.348  12.862   2.730
64647SOL    HW195774   6.369  12.952   2.703
64647SOL    HW295775   6.317  12.820   2.650
64648SOL     OW95776   0.274   7.004   0.922
64648SOL    HW195777   0.257   6.920   0.880
64648SOL    HW295778   0.346   6.986   0.984
64649SOL     OW95779  10.531   9.576  10.560
64649SOL    HW195780  10.528   9.566  10.655
64649SOL    HW295781  10.540   9.670  10.547
64650SOL     OW95782   5.245   3.084   4.529
64650SOL    HW195783   5.157   3.112   4.508
64650SOL    HW295784   5.302   3.138   4.473
64651SOL     OW95785   2.006   9.437   1.381
64651SOL    HW195786   2.007   9.404   1.471
64651SOL    HW295787   2.096   9.463   1.364
64652SOL     OW95788   6.061  13.847   2.875
64652SOL    HW195789   6.082  13.839   2.968
64652SOL    HW295790   6.072  13.940   2.855
64653SOL     OW95791  12.595  13.893   4.274
64653SOL    HW195792  12.596  13.917   4.367
64653SOL    HW295793  12.583  13.976   4.228
64654SOL     OW95794   9.148   4.215  14.742
64654SOL    HW195795   9.102   4.262  14.811
64654SOL    HW295796   9.082   4.157  14.703
64655SOL     OW95797   0.696  13.626   3.946
64655SOL    HW195798   0.681  13.622   3.852
64655SOL    HW295799   0.616  13.665   3.982
64656SOL     OW95800   3.038  14.201  12.735
64656SOL    HW195801   3.101  14.141  12.696
64656SOL    HW295802   3.053  14.194  12.830
64657SOL     OW95803   8.859   5.335   1.914
64657SOL    HW195804   8.873   5.317   2.007
64657SOL    HW295805   8.786   5.396   1.912
64658SOL     OW95806  13.512  10.786   3.746
64658SOL    HW195807  13.456  10.864   3.749
64658SOL    HW295808  13.466  10.722   3.800
64659SOL     OW95809   2.335  12.329  11.897
64659SOL    HW195810   2.363  12.238  11.891
64659SOL    HW295811   2.366  12.358  11.983
64660SOL     OW95812   0.092   1.470   2.653
64660SOL    HW195813   0.160   1.527   2.617
64660SOL    HW295814   0.123   1.447   2.741
64661SOL     OW95815   0.277   0.244   1.233
64661SOL    HW195816   0.205   0.186   1.209
64661SOL    HW295817   0.337   0.241   1.158
64662SOL     OW95818  13.740   2.558   3.660
64662SOL    HW195819  13.819   2.548   3.714
64662SOL    HW295820  13.695   2.474   3.669
64663SOL     OW95821   1.221  13.600   5.205
64663SOL    HW195822   1.133  13.638   5.194
64663SOL    HW295823   1.258  13.647   5.279
64664SOL     OW95824  12.302   4.991   5.479
64664SOL    HW195825  12.345   5.077   5.479
64664SOL    HW295826  12.234   4.998   5.545
64665SOL     OW95827  11.928   8.144   3.386
64665SOL    HW195828  11.881   8.105   3.459
64665SOL    HW295829  11.927   8.238   3.403
64666SOL     OW95830  13.192   0.628   1.831
64666SOL    HW195831  13.151   0.607   1.915
64666SOL    HW295832  13.118   0.648   1.773
64667SOL     OW95833   4.915   8.331   0.236
64667SOL    HW195834   4.974   8.282   0.178
64667SOL    HW295835   4.855   8.265   0.271
64668SOL     OW95836   5.854  13.311   7.408
64668SOL    HW195837   5.872  13.294   7.316
64668SOL    HW295838   5.806  13.234   7.438
64669SOL     OW95839   2.277  13.911   6.169
64669SOL    HW195840   2.304  13.994   6.210
64669SOL    HW295841   2.311  13.844   6.228
64670SOL     OW95842  12.177   6.717   2.388
64670SOL    HW195843  12.213   6.657   2.323
64670SOL    HW295844  12.252   6.739   2.444
64671SOL     OW95845  10.110  12.999   7.436
64671SOL    HW195846  10.157  13.032   7.512
64671SOL    HW295847  10.078  13.077   7.391
64672SOL     OW95848   0.700   8.488   8.315
64672SOL    HW195849   0.672   8.567   8.269
64672SOL    HW295850   0.690   8.509   8.407
64673SOL     OW95851  14.718   9.038  11.623
64673SOL    HW195852  14.765   9.022  11.704
64673SOL    HW295853  14.653   8.968  11.618
64674SOL     OW95854  14.008   0.946  13.317
64674SOL    HW195855  14.040   0.870  13.366
64674SOL    HW295856  13.913   0.932  13.312
64675SOL     OW95857  12.712  12.267  14.165
64675SOL    HW195858  12.751  12.179  14.166
64675SOL    HW295859  12.624  12.254  14.200
64676SOL     OW95860   4.485  13.018   8.254
64676SOL    HW195861   4.438  13.004   8.337
64676SOL    HW295862   4.454  13.103   8.224
64677SOL     OW95863  11.462   9.893   0.988
64677SOL    HW195864  11.399   9.918   1.057
64677SOL    HW295865  11.428   9.810   0.955
64678SOL     OW95866   3.564   6.212  12.183
64678SOL    HW195867   3.616   6.287  12.213
64678SOL    HW295868   3.531   6.171  12.263
64679SOL     OW95869   3.327   2.276  13.891
64679SOL    HW195870   3.412   2.265  13.934
64679SOL    HW295871   3.349   2.288  13.799
64680SOL     OW95872   0.663   9.380   3.267
64680SOL    HW195873   0.748   9.343   3.243
64680SOL    HW295874   0.684   9.462   3.311
64681SOL     OW95875  14.484   6.832  11.649
64681SOL    HW195876  14.551   6.839  11.718
64681SOL    HW295877  14.406   6.801  11.695
64682SOL     OW95878   3.171  14.657   0.984
64682SOL    HW195879   3.147  14.733   1.037
64682SOL    HW295880   3.090  14.607   0.976
64683SOL     OW95881   6.845  12.743  11.785
64683SOL    HW195882   6.843  12.648  11.794
64683SOL    HW295883   6.906  12.758  11.713
64684SOL     OW95884  10.728   6.321   5.290
64684SOL    HW195885  10.683   6.403   5.270
64684SOL    HW295886  10.741   6.322   5.385
64685SOL     OW95887   5.149  12.363   6.656
64685SOL    HW195888   5.143  12.407   6.571
64685SOL    HW295889   5.060  12.369   6.692
64686SOL     OW95890  10.671   0.905  13.737
64686SOL    HW195891  10.589   0.883  13.782
64686SOL    HW295892  10.732   0.927  13.807
64687SOL     OW95893  13.287   7.892  13.277
64687SOL    HW195894  13.232   7.966  13.252
64687SOL    HW295895  13.225   7.824  13.305
64688SOL     OW95896   9.799  13.258  13.398
64688SOL    HW195897   9.769  13.349  13.399
64688SOL    HW295898   9.719  13.206  13.390
64689SOL     OW95899   4.312   0.841  10.921
64689SOL    HW195900   4.299   0.920  10.974
64689SOL    HW295901   4.356   0.872  10.842
64690SOL     OW95902  12.592   2.619   7.184
64690SOL    HW195903  12.568   2.679   7.113
64690SOL    HW295904  12.594   2.673   7.262
64691SOL     OW95905   9.471   5.504   3.526
64691SOL    HW195906   9.522   5.584   3.534
64691SOL    HW295907   9.459   5.473   3.616
64692SOL     OW95908   5.345   5.444   0.344
64692SOL    HW195909   5.368   5.507   0.276
64692SOL    HW295910   5.273   5.486   0.392
64693SOL     OW95911   9.667  12.175   5.896
64693SOL    HW195912   9.691  12.134   5.813
64693SOL    HW295913   9.725  12.134   5.960
64694SOL     OW95914  13.481   2.219   5.626
64694SOL    HW195915  13.444   2.287   5.570
64694SOL    HW295916  13.546   2.175   5.570
64695SOL     OW95917   4.273  12.977  12.603
64695SOL    HW195918   4.236  13.045  12.546
64695SOL    HW295919   4.337  12.933  12.548
64696SOL     OW95920  11.559   7.849  10.926
64696SOL    HW195921  11.602   7.897  10.856
64696SOL    HW295922  11.480   7.900  10.945
64697SOL     OW95923  14.712   6.860  11.831
64697SOL    HW195924  14.725   6.939  11.777
64697SOL    HW295925  14.801   6.836  11.859
64698SOL     OW95926  12.968  12.148   1.699
64698SOL    HW195927  12.949  12.224   1.644
64698SOL    HW295928  13.061  12.130   1.684
64699SOL     OW95929   4.168   9.347   9.860
64699SOL    HW195930   4.087   9.397   9.872
64699SOL    HW295931   4.140   9.256   9.857
64700SOL     OW95932   6.058   4.185   2.739
64700SOL    HW195933   6.061   4.278   2.716
64700SOL    HW295934   6.009   4.183   2.821
64701SOL     OW95935   0.966   9.556   8.474
64701SOL    HW195936   0.949   9.553   8.569
64701SOL    HW295937   0.987   9.648   8.456
64702SOL     OW95938   0.061   3.794   5.241
64702SOL    HW195939   0.033   3.752   5.322
64702SOL    HW295940   0.017   3.745   5.172
64703SOL     OW95941  11.072   1.998  14.526
64703SOL    HW195942  10.994   1.943  14.516
64703SOL    HW295943  11.064   2.035  14.614
64704SOL     OW95944  12.454   9.312  14.234
64704SOL    HW195945  12.538   9.353  14.250
64704SOL    HW295946  12.454   9.292  14.140
64705SOL     OW95947   5.248   9.749  11.610
64705SOL    HW195948   5.167   9.706  11.584
64705SOL    HW295949   5.309   9.678  11.629
64706SOL     OW95950  14.578   7.632  12.123
64706SOL    HW195951  14.500   7.596  12.079
64706SOL    HW295952  14.646   7.567  12.109
64707SOL     OW95953  14.206   8.213   8.585
64707SOL    HW195954  14.232   8.247   8.499
64707SOL    HW295955  14.223   8.119   8.579
64708SOL     OW95956   4.990   2.035  14.449
64708SOL    HW195957   5.046   1.994  14.514
64708SOL    HW295958   4.904   2.041  14.492
64709SOL     OW95959  11.687  10.393  12.164
64709SOL    HW195960  11.671  10.421  12.074
64709SOL    HW295961  11.752  10.324  12.157
64710SOL     OW95962  13.450  14.374  12.389
64710SOL    HW195963  13.387  14.336  12.450
64710SOL    HW295964  13.419  14.463  12.374
64711SOL     OW95965   6.182  12.132   0.434
64711SOL    HW195966   6.134  12.212   0.455
64711SOL    HW295967   6.236  12.116   0.510
64712SOL     OW95968  13.633   7.193   3.341
64712SOL    HW195969  13.563   7.159   3.285
64712SOL    HW295970  13.712   7.150   3.308
64713SOL     OW95971   2.439  13.348  11.805
64713SOL    HW195972   2.390  13.418  11.762
64713SOL    HW295973   2.519  13.341  11.754
64714SOL     OW95974  12.015   6.877   3.203
64714SOL    HW195975  11.957   6.911   3.272
64714SOL    HW295976  12.071   6.814   3.248
64715SOL     OW95977   4.128   9.063   5.989
64715SOL    HW195978   4.073   8.987   6.010
64715SOL    HW295979   4.212   9.043   6.029
64716SOL     OW95980   0.272  11.243   9.195
64716SOL    HW195981   0.339  11.228   9.129
64716SOL    HW295982   0.322  11.264   9.275
64717SOL     OW95983  13.076   9.802  11.074
64717SOL    HW195984  13.057   9.842  11.158
64717SOL    HW295985  13.142   9.736  11.092
64718SOL     OW95986   1.862   4.380  12.074
64718SOL    HW195987   1.947   4.338  12.066
64718SOL    HW295988   1.803   4.310  12.102
64719SOL     OW95989   1.447   3.746   6.643
64719SOL    HW195990   1.373   3.693   6.671
64719SOL    HW295991   1.523   3.704   6.684
64720SOL     OW95992   3.059   2.656  12.597
64720SOL    HW195993   3.069   2.614  12.512
64720SOL    HW295994   3.145   2.694  12.615
64721SOL     OW95995   7.746   6.657   6.533
64721SOL    HW195996   7.804   6.732   6.519
64721SOL    HW295997   7.672   6.673   6.474
64722SOL     OW95998   7.853   1.247   8.223
64722SOL    HW195999   7.822   1.226   8.135
64722SOL    HW296000   7.777   1.231   8.279
64723SOL     OW96001   6.553   3.294   2.744
64723SOL    HW196002   6.468   3.262   2.713
64723SOL    HW296003   6.594   3.219   2.786
64724SOL     OW96004  10.571  11.341   7.100
64724SOL    HW196005  10.634  11.404   7.066
64724SOL    HW296006  10.487  11.368   7.061
64725SOL     OW96007   1.986  10.228   3.277
64725SOL    HW196008   2.023  10.317   3.279
64725SOL    HW296009   1.916  10.232   3.213
64726SOL     OW96010   8.369   9.344   4.515
64726SOL    HW196011   8.446   9.386   4.555
64726SOL    HW296012   8.298   9.406   4.529
64727SOL     OW96013  12.056   0.378  11.203
64727SOL    HW196014  12.103   0.318  11.144
64727SOL    HW296015  11.965   0.372  11.176
64728SOL     OW96016   5.711   3.906  12.244
64728SOL    HW196017   5.744   3.995  12.235
64728SOL    HW296018   5.646   3.897  12.174
64729SOL     OW96019  10.935   0.967   0.100
64729SOL    HW196020  10.903   0.924   0.020
64729SOL    HW296021  10.998   0.904   0.137
64730SOL     OW96022  13.068  13.093   5.989
64730SOL    HW196023  13.118  13.156   6.040
64730SOL    HW296024  13.000  13.062   6.048
64731SOL     OW96025  12.074   6.063   9.526
64731SOL    HW196026  12.152   6.104   9.489
64731SOL    HW296027  12.042   6.005   9.457
64732SOL     OW96028   9.860   5.739   8.497
64732SOL    HW196029   9.894   5.650   8.508
64732SOL    HW296030   9.913   5.793   8.556
64733SOL     OW96031   9.796   6.709   8.396
64733SOL    HW196032   9.760   6.794   8.371
64733SOL    HW296033   9.812   6.716   8.490
64734SOL     OW96034   8.650  13.731   9.980
64734SOL    HW196035   8.722  13.792   9.993
64734SOL    HW296036   8.690  13.645   9.994
64735SOL     OW96037   7.395   7.383  10.214
64735SOL    HW196038   7.353   7.409  10.133
64735SOL    HW296039   7.459   7.316  10.188
64736SOL     OW96040   8.816  13.228   4.339
64736SOL    HW196041   8.797  13.296   4.274
64736SOL    HW296042   8.732  13.187   4.356
64737SOL     OW96043   8.505   9.445   8.131
64737SOL    HW196044   8.409   9.447   8.124
64737SOL    HW296045   8.532   9.376   8.070
64738SOL     OW96046  13.202   5.534   6.035
64738SOL    HW196047  13.241   5.453   6.070
64738SOL    HW296048  13.152   5.505   5.959
64739SOL     OW96049  14.490   1.841   9.749
64739SOL    HW196050  14.449   1.787   9.682
64739SOL    HW296051  14.584   1.829   9.735
64740SOL     OW96052   4.110  14.605   8.574
64740SOL    HW196053   4.075  14.681   8.528
64740SOL    HW296054   4.196  14.632   8.605
64741SOL     OW96055   6.515   8.616  14.780
64741SOL    HW196056   6.484   8.653  14.698
64741SOL    HW296057   6.601   8.579  14.759
64742SOL     OW96058   9.598  12.952  12.509
64742SOL    HW196059   9.575  12.934  12.601
64742SOL    HW296060   9.544  12.891  12.459
64743SOL     OW96061   0.533  13.147   7.318
64743SOL    HW196062   0.512  13.094   7.242
64743SOL    HW296063   0.478  13.225   7.310
64744SOL     OW96064  11.433   7.433  12.514
64744SOL    HW196065  11.484   7.382  12.450
64744SOL    HW296066  11.460   7.398  12.599
64745SOL     OW96067  11.691   7.731  10.299
64745SOL    HW196068  11.678   7.812  10.349
64745SOL    HW296069  11.786   7.719  10.298
64746SOL     OW96070   7.569   0.637   1.256
64746SOL    HW196071   7.602   0.547   1.266
64746SOL    HW296072   7.510   0.632   1.181
64747SOL     OW96073  10.745  13.271  11.214
64747SOL    HW196074  10.658  13.303  11.239
64747SOL    HW296075  10.761  13.196  11.271
64748SOL     OW96076  10.982   5.824   4.835
64748SOL    HW196077  10.985   5.791   4.924
64748SOL    HW296078  10.903   5.877   4.831
64749SOL     OW96079   3.400   7.112  11.307
64749SOL    HW196080   3.456   7.154  11.241
64749SOL    HW296081   3.323   7.083  11.257
64750SOL     OW96082   1.544   5.795   7.191
64750SOL    HW196083   1.550   5.889   7.207
64750SOL    HW296084   1.465   5.786   7.137
64751SOL     OW96085   1.615   0.148   1.794
64751SOL    HW196086   1.578   0.061   1.777
64751SOL    HW296087   1.662   0.138   1.877
64752SOL     OW96088   4.733   8.749   3.619
64752SOL    HW196089   4.801   8.713   3.561
64752SOL    HW296090   4.778   8.814   3.672
64753SOL     OW96091   6.409  11.922   2.175
64753SOL    HW196092   6.502  11.900   2.177
64753SOL    HW296093   6.369  11.862   2.238
64754SOL     OW96094  10.576  10.251  13.932
64754SOL    HW196095  10.487  10.245  13.966
64754SOL    HW296096  10.568  10.237  13.838
64755SOL     OW96097  12.382  13.985   5.908
64755SOL    HW196098  12.429  14.068   5.901
64755SOL    HW296099  12.291  14.010   5.925
64756SOL     OW96100   1.313   5.229   9.535
64756SOL    HW196101   1.352   5.154   9.490
64756SOL    HW296102   1.262   5.190   9.606
64757SOL     OW96103   1.073  11.727   8.427
64757SOL    HW196104   1.079  11.744   8.521
64757SOL    HW296105   0.979  11.720   8.410
64758SOL     OW96106  13.870  10.605   9.827
64758SOL    HW196107  13.809  10.653   9.883
64758SOL    HW296108  13.849  10.513   9.841
64759SOL     OW96109   5.975   1.685  10.937
64759SOL    HW196110   5.960   1.609  10.880
64759SOL    HW296111   5.944   1.760  10.886
64760SOL     OW96112  10.156   0.315   3.546
64760SOL    HW196113  10.219   0.368   3.497
64760SOL    HW296114  10.072   0.333   3.504
64761SOL     OW96115  11.569   2.491   8.628
64761SOL    HW196116  11.519   2.467   8.550
64761SOL    HW296117  11.508   2.476   8.701
64762SOL     OW96118   6.657   9.338  11.030
64762SOL    HW196119   6.662   9.323  10.936
64762SOL    HW296120   6.740   9.379  11.053
64763SOL     OW96121  14.073  10.372  12.934
64763SOL    HW196122  14.024  10.441  12.890
64763SOL    HW296123  14.066  10.296  12.875
64764SOL     OW96124  11.174   8.614   5.972
64764SOL    HW196125  11.221   8.696   5.958
64764SOL    HW296126  11.164   8.609   6.067
64765SOL     OW96127  14.402   7.840  13.614
64765SOL    HW196128  14.352   7.832  13.533
64765SOL    HW296129  14.395   7.933  13.638
64766SOL     OW96130   0.305   8.973   9.150
64766SOL    HW196131   0.284   9.014   9.234
64766SOL    HW296132   0.290   9.042   9.085
64767SOL     OW96133   3.043   8.516   6.028
64767SOL    HW196134   3.044   8.445   5.964
64767SOL    HW296135   3.004   8.590   5.981
64768SOL     OW96136   2.610  11.966   8.584
64768SOL    HW196137   2.540  11.912   8.545
64768SOL    HW296138   2.613  11.938   8.675
64769SOL     OW96139  13.970   3.340  14.852
64769SOL    HW196140  13.931   3.295   0.048
64769SOL    HW296141  13.903   3.333  14.783
64770SOL     OW96142  10.368   5.963  14.487
64770SOL    HW196143  10.410   6.043  14.455
64770SOL    HW296144  10.297   5.994  14.543
64771SOL     OW96145   9.755   5.579   9.448
64771SOL    HW196146   9.732   5.659   9.401
64771SOL    HW296147   9.671   5.544   9.478
64772SOL     OW96148   3.017  13.135   1.302
64772SOL    HW196149   3.066  13.217   1.305
64772SOL    HW296150   2.926  13.160   1.291
64773SOL     OW96151  11.970  12.683  11.334
64773SOL    HW196152  11.975  12.599  11.380
64773SOL    HW296153  12.021  12.670  11.254
64774SOL     OW96154   9.383   9.577  12.156
64774SOL    HW196155   9.342   9.491  12.168
64774SOL    HW296156   9.310   9.636  12.135
64775SOL     OW96157  12.906  10.021   2.875
64775SOL    HW196158  12.974   9.963   2.841
64775SOL    HW296159  12.870  10.064   2.797
64776SOL     OW96160  11.925   9.568  12.512
64776SOL    HW196161  12.006   9.522  12.491
64776SOL    HW296162  11.912   9.628  12.438
64777SOL     OW96163   4.568  14.753   8.444
64777SOL    HW196164   4.509  14.747   8.368
64777SOL    HW296165   4.564  14.845   8.470
64778SOL     OW96166   7.267   5.676  12.769
64778SOL    HW196167   7.236   5.679  12.678
64778SOL    HW296168   7.343   5.734  12.770
64779SOL     OW96169   8.737   9.095   7.413
64779SOL    HW196170   8.772   9.048   7.489
64779SOL    HW296171   8.642   9.086   7.422
64780SOL     OW96172   2.290   3.983   5.338
64780SOL    HW196173   2.224   3.971   5.406
64780SOL    HW296174   2.244   4.025   5.266
64781SOL     OW96175   9.051   3.731   1.784
64781SOL    HW196176   8.992   3.747   1.711
64781SOL    HW296177   9.106   3.659   1.756
64782SOL     OW96178   2.644  14.504  11.746
64782SOL    HW196179   2.631  14.415  11.780
64782SOL    HW296180   2.715  14.496  11.683
64783SOL     OW96181   8.944  12.080  10.878
64783SOL    HW196182   8.897  12.147  10.829
64783SOL    HW296183   9.001  12.038  10.814
64784SOL     OW96184  14.671   5.969   8.788
64784SOL    HW196185  14.755   6.011   8.808
64784SOL    HW296186  14.639   5.939   8.873
64785SOL     OW96187  10.017   2.429   7.545
64785SOL    HW196188  10.001   2.520   7.568
64785SOL    HW296189   9.930   2.390   7.540
64786SOL     OW96190   4.598   6.883  13.991
64786SOL    HW196191   4.518   6.895  13.940
64786SOL    HW296192   4.618   6.971  14.024
64787SOL     OW96193   9.242  11.601   5.104
64787SOL    HW196194   9.320  11.548   5.121
64787SOL    HW296195   9.169  11.541   5.116
64788SOL     OW96196  13.280   6.621  14.384
64788SOL    HW196197  13.252   6.686  14.319
64788SOL    HW296198  13.319   6.551  14.332
64789SOL     OW96199   4.274   3.570   0.469
64789SOL    HW196200   4.341   3.565   0.400
64789SOL    HW296201   4.193   3.544   0.425
64790SOL     OW96202  14.798   3.890   0.171
64790SOL    HW196203  14.717   3.839   0.171
64790SOL    HW296204  14.808   3.918   0.080
64791SOL     OW96205   0.398  10.005   6.096
64791SOL    HW196206   0.485   9.997   6.058
64791SOL    HW296207   0.359  10.080   6.051
64792SOL     OW96208   4.685   9.796   9.114
64792SOL    HW196209   4.638   9.857   9.171
64792SOL    HW296210   4.675   9.711   9.158
64793SOL     OW96211  13.972   9.728   7.445
64793SOL    HW196212  13.954   9.721   7.539
64793SOL    HW296213  13.985   9.637   7.416
64794SOL     OW96214   7.817  14.655   3.130
64794SOL    HW196215   7.894  14.710   3.113
64794SOL    HW296216   7.825  14.582   3.068
64795SOL     OW96217   8.500  14.625  11.703
64795SOL    HW196218   8.583  14.628  11.750
64795SOL    HW296219   8.467  14.714  11.705
64796SOL     OW96220  12.588  13.236  12.953
64796SOL    HW196221  12.540  13.181  12.892
64796SOL    HW296222  12.597  13.320  12.907
64797SOL     OW96223  12.240   2.471  10.385
64797SOL    HW196224  12.284   2.466  10.470
64797SOL    HW296225  12.173   2.403  10.388
64798SOL     OW96226  12.670   2.238   4.167
64798SOL    HW196227  12.585   2.220   4.127
64798SOL    HW296228  12.651   2.247   4.260
64799SOL     OW96229  13.079  11.897   9.067
64799SOL    HW196230  13.076  11.842   9.145
64799SOL    HW296231  13.046  11.982   9.096
64800SOL     OW96232   8.468  13.090  14.104
64800SOL    HW196233   8.381  13.049  14.098
64800SOL    HW296234   8.491  13.085  14.197
64801SOL     OW96235  10.417  14.543   1.606
64801SOL    HW196236  10.406  14.637   1.602
64801SOL    HW296237  10.365  14.516   1.682
64802SOL     OW96238   4.811  12.318   3.340
64802SOL    HW196239   4.829  12.317   3.435
64802SOL    HW296240   4.864  12.390   3.307
64803SOL     OW96241  14.803   7.724  11.689
64803SOL    HW196242  14.803   7.629  11.701
64803SOL    HW296243  14.778   7.737  11.598
64804SOL     OW96244   5.795  11.301  10.023
64804SOL    HW196245   5.799  11.217   9.978
64804SOL    HW296246   5.782  11.278  10.115
64805SOL     OW96247  10.740   2.592  10.610
64805SOL    HW196248  10.648   2.604  10.633
64805SOL    HW296249  10.782   2.565  10.692
64806SOL     OW96250   8.652   4.371   5.618
64806SOL    HW196251   8.691   4.287   5.642
64806SOL    HW296252   8.578   4.381   5.677
64807SOL     OW96253   8.505  12.451  11.371
64807SOL    HW196254   8.451  12.374  11.390
64807SOL    HW296255   8.566  12.422  11.303
64808SOL     OW96256  10.460  12.915   1.708
64808SOL    HW196257  10.401  12.850   1.668
64808SOL    HW296258  10.450  12.901   1.802
64809SOL     OW96259  14.827  14.759   4.907
64809SOL    HW196260  14.863  14.730   4.991
64809SOL    HW296261  14.772  14.686   4.878
64810SOL     OW96262   3.919   5.843   4.812
64810SOL    HW196263   3.938   5.928   4.772
64810SOL    HW296264   3.987   5.785   4.778
64811SOL     OW96265  10.763   5.842   2.214
64811SOL    HW196266  10.702   5.773   2.240
64811SOL    HW296267  10.721   5.923   2.243
64812SOL     OW96268  12.048   7.954   0.634
64812SOL    HW196269  12.048   7.908   0.718
64812SOL    HW296270  12.064   7.885   0.569
64813SOL     OW96271   1.513   8.505   4.835
64813SOL    HW196272   1.509   8.540   4.746
64813SOL    HW296273   1.513   8.410   4.824
64814SOL     OW96274   2.733   3.604   1.864
64814SOL    HW196275   2.662   3.542   1.844
64814SOL    HW296276   2.689   3.675   1.910
64815SOL     OW96277  13.256   1.074  10.273
64815SOL    HW196278  13.288   1.111  10.191
64815SOL    HW296279  13.323   1.010  10.298
64816SOL     OW96280  13.232   8.507  12.677
64816SOL    HW196281  13.166   8.568  12.709
64816SOL    HW296282  13.213   8.425  12.722
64817SOL     OW96283   8.648   7.213   0.394
64817SOL    HW196284   8.607   7.145   0.447
64817SOL    HW296285   8.593   7.219   0.316
64818SOL     OW96286   6.207   4.780   0.929
64818SOL    HW196287   6.203   4.777   1.025
64818SOL    HW296288   6.184   4.870   0.906
64819SOL     OW96289   8.858   6.005   5.613
64819SOL    HW196290   8.891   5.950   5.541
64819SOL    HW296291   8.932   6.013   5.673
64820SOL     OW96292   0.059  14.052   9.395
64820SOL    HW196293  14.862  14.084   9.443
64820SOL    HW296294   0.068  13.960   9.422
64821SOL     OW96295  14.567  11.364  12.733
64821SOL    HW196296  14.635  11.315  12.779
64821SOL    HW296297  14.565  11.449  12.778
64822SOL     OW96298   9.206  11.542   3.130
64822SOL    HW196299   9.240  11.577   3.212
64822SOL    HW296300   9.272  11.563   3.065
64823SOL     OW96301   7.502   3.818   8.840
64823SOL    HW196302   7.519   3.854   8.753
64823SOL    HW296303   7.451   3.738   8.823
64824SOL     OW96304   2.172   5.105   8.049
64824SOL    HW196305   2.079   5.115   8.028
64824SOL    HW296306   2.199   5.027   8.001
64825SOL     OW96307   6.093   0.457   0.934
64825SOL    HW196308   6.052   0.511   0.867
64825SOL    HW296309   6.066   0.496   1.017
64826SOL     OW96310   6.270   8.595   2.306
64826SOL    HW196311   6.321   8.513   2.305
64826SOL    HW296312   6.316   8.652   2.244
64827SOL     OW96313   4.203   4.813   2.167
64827SOL    HW196314   4.125   4.819   2.113
64827SOL    HW296315   4.185   4.740   2.227
64828SOL     OW96316   7.446   3.842   5.769
64828SOL    HW196317   7.404   3.855   5.684
64828SOL    HW296318   7.374   3.845   5.832
64829SOL     OW96319  10.530   8.522  12.351
64829SOL    HW196320  10.530   8.553  12.442
64829SOL    HW296321  10.538   8.427  12.359
64830SOL     OW96322   1.930   1.433   1.840
64830SOL    HW196323   1.888   1.368   1.897
64830SOL    HW296324   1.890   1.418   1.754
64831SOL     OW96325   2.256  12.127   9.075
64831SOL    HW196326   2.234  12.212   9.112
64831SOL    HW296327   2.192  12.067   9.112
64832SOL     OW96328   9.864   7.655  12.049
64832SOL    HW196329   9.879   7.700  12.132
64832SOL    HW296330   9.933   7.589  12.044
64833SOL     OW96331   5.472   5.820   6.508
64833SOL    HW196332   5.537   5.845   6.574
64833SOL    HW296333   5.428   5.744   6.545
64834SOL     OW96334   3.851  11.196   8.618
64834SOL    HW196335   3.782  11.263   8.616
64834SOL    HW296336   3.875  11.190   8.711
64835SOL     OW96337   0.173   1.217  13.161
64835SOL    HW196338   0.161   1.297  13.211
64835SOL    HW296339   0.172   1.245  13.069
64836SOL     OW96340   4.062   4.947  14.434
64836SOL    HW196341   4.092   4.980  14.349
64836SOL    HW296342   4.087   5.014  14.497
64837SOL     OW96343  13.778  11.381  10.101
64837SOL    HW196344  13.691  11.365  10.065
64837SOL    HW296345  13.833  11.314  10.060
64838SOL     OW96346  13.321  10.582   9.747
64838SOL    HW196347  13.390  10.542   9.800
64838SOL    HW296348  13.278  10.644   9.807
64839SOL     OW96349   3.278   9.564   7.534
64839SOL    HW196350   3.334   9.520   7.469
64839SOL    HW296351   3.262   9.497   7.601
64840SOL     OW96352  13.614  10.250   3.725
64840SOL    HW196353  13.685  10.313   3.717
64840SOL    HW296354  13.540  10.292   3.681
64841SOL     OW96355   7.736  14.745  11.993
64841SOL    HW196356   7.781  14.677  12.043
64841SOL    HW296357   7.691  14.797  12.059
64842SOL     OW96358   4.487   7.180   2.498
64842SOL    HW196359   4.478   7.205   2.590
64842SOL    HW296360   4.542   7.102   2.500
64843SOL     OW96361   8.540  10.854   8.996
64843SOL    HW196362   8.584  10.804   9.065
64843SOL    HW296363   8.610  10.880   8.937
64844SOL     OW96364  14.184   0.847   0.224
64844SOL    HW196365  14.187   0.857   0.129
64844SOL    HW296366  14.165   0.754   0.237
64845SOL     OW96367   2.728   1.133  11.235
64845SOL    HW196368   2.777   1.065  11.281
64845SOL    HW296369   2.748   1.118  11.143
64846SOL     OW96370   4.434   4.892   9.622
64846SOL    HW196371   4.353   4.889   9.570
64846SOL    HW296372   4.421   4.826   9.690
64847SOL     OW96373   7.108   4.300  14.050
64847SOL    HW196374   7.134   4.264  14.135
64847SOL    HW296375   7.012   4.297  14.052
64848SOL     OW96376   5.035  11.130   0.876
64848SOL    HW196377   5.115  11.141   0.825
64848SOL    HW296378   4.995  11.050   0.842
64849SOL     OW96379  11.201   7.716  11.782
64849SOL    HW196380  11.235   7.629  11.759
64849SOL    HW296381  11.153   7.702  11.864
64850SOL     OW96382  11.277  11.746  11.529
64850SOL    HW196383  11.240  11.710  11.609
64850SOL    HW296384  11.250  11.685  11.461
64851SOL     OW96385   1.483  10.831  12.399
64851SOL    HW196386   1.502  10.739  12.382
64851SOL    HW296387   1.485  10.872  12.313
64852SOL     OW96388   6.863   4.723   0.969
64852SOL    HW196389   6.841   4.724   1.062
64852SOL    HW296390   6.785   4.759   0.926
64853SOL     OW96391  11.336  10.089   7.970
64853SOL    HW196392  11.330  10.014   7.911
64853SOL    HW296393  11.342  10.050   8.057
64854SOL     OW96394   3.949   4.325   0.410
64854SOL    HW196395   3.895   4.295   0.337
64854SOL    HW296396   4.006   4.251   0.429
64855SOL     OW96397   6.048  10.539  10.215
64855SOL    HW196398   6.021  10.575  10.299
64855SOL    HW296399   6.076  10.615  10.164
64856SOL     OW96400   9.718  14.771   3.640
64856SOL    HW196401   9.768  14.851   3.625
64856SOL    HW296402   9.635  14.785   3.594
64857SOL     OW96403   1.872  13.175  13.761
64857SOL    HW196404   1.933  13.239  13.723
64857SOL    HW296405   1.786  13.200  13.727
64858SOL     OW96406  12.635  13.962   1.743
64858SOL    HW196407  12.660  13.922   1.827
64858SOL    HW296408  12.708  13.940   1.684
64859SOL     OW96409   2.634   9.351   7.433
64859SOL    HW196410   2.605   9.443   7.429
64859SOL    HW296411   2.728   9.357   7.452
64860SOL     OW96412   4.313  12.713   7.668
64860SOL    HW196413   4.253  12.755   7.729
64860SOL    HW296414   4.396  12.706   7.716
64861SOL     OW96415  14.643  13.170  14.153
64861SOL    HW196416  14.550  13.187  14.162
64861SOL    HW296417  14.686  13.246  14.192
64862SOL     OW96418   8.447   2.858   0.040
64862SOL    HW196419   8.535   2.873   0.074
64862SOL    HW296420   8.423   2.771   0.073
64863SOL     OW96421   0.806  13.526  12.525
64863SOL    HW196422   0.865  13.601  12.521
64863SOL    HW296423   0.863  13.450  12.533
64864SOL     OW96424   5.321   3.164   2.043
64864SOL    HW196425   5.291   3.252   2.019
64864SOL    HW296426   5.414   3.175   2.062
64865SOL     OW96427   8.461   3.386   8.412
64865SOL    HW196428   8.372   3.383   8.375
64865SOL    HW296429   8.447   3.394   8.506
64866SOL     OW96430   8.443   6.872   2.062
64866SOL    HW196431   8.427   6.963   2.087
64866SOL    HW296432   8.497   6.837   2.133
64867SOL     OW96433  13.954  12.047  10.810
64867SOL    HW196434  13.895  12.029  10.883
64867SOL    HW296435  13.937  12.139  10.789
64868SOL     OW96436   5.329  12.877   8.067
64868SOL    HW196437   5.248  12.851   8.110
64868SOL    HW296438   5.315  12.969   8.044
64869SOL     OW96439   6.277   9.448  13.858
64869SOL    HW196440   6.248   9.386  13.925
64869SOL    HW296441   6.263   9.403  13.775
64870SOL     OW96442   4.027   7.774   2.314
64870SOL    HW196443   4.081   7.735   2.246
64870SOL    HW296444   4.068   7.746   2.396
64871SOL     OW96445  11.369  12.497  11.917
64871SOL    HW196446  11.309  12.443  11.968
64871SOL    HW296447  11.322  12.580  11.905
64872SOL     OW96448   6.128  13.012   9.274
64872SOL    HW196449   6.136  12.958   9.195
64872SOL    HW296450   6.055  13.070   9.255
64873SOL     OW96451   7.271  10.995   8.006
64873SOL    HW196452   7.262  11.035   8.092
64873SOL    HW296453   7.317  10.913   8.022
64874SOL     OW96454   1.422  14.208   4.623
64874SOL    HW196455   1.375  14.207   4.707
64874SOL    HW296456   1.468  14.292   4.623
64875SOL     OW96457  11.456  11.685  10.155
64875SOL    HW196458  11.418  11.759  10.203
64875SOL    HW296459  11.383  11.648  10.107
64876SOL     OW96460   3.185   3.430   5.334
64876SOL    HW196461   3.113   3.486   5.305
64876SOL    HW296462   3.184   3.436   5.429
64877SOL     OW96463  12.144   5.628  14.874
64877SOL    HW196464  12.133   5.565  14.802
64877SOL    HW296465  12.112   5.581   0.072
64878SOL     OW96466  13.458  14.165   1.444
64878SOL    HW196467  13.380  14.200   1.485
64878SOL    HW296468  13.530  14.190   1.502
64879SOL     OW96469   4.605   3.479   7.949
64879SOL    HW196470   4.648   3.399   7.979
64879SOL    HW296471   4.674   3.546   7.950
64880SOL     OW96472  13.929  14.361   6.389
64880SOL    HW196473  13.932  14.346   6.294
64880SOL    HW296474  13.873  14.291   6.422
64881SOL     OW96475  12.161  10.955   9.798
64881SOL    HW196476  12.105  11.029   9.775
64881SOL    HW296477  12.100  10.883   9.817
64882SOL     OW96478   1.923  12.820  13.700
64882SOL    HW196479   2.009  12.816  13.658
64882SOL    HW296480   1.916  12.738  13.750
64883SOL     OW96481   1.380   1.865   3.655
64883SOL    HW196482   1.426   1.875   3.738
64883SOL    HW296483   1.449   1.847   3.591
64884SOL     OW96484   9.804   7.625   6.142
64884SOL    HW196485   9.888   7.656   6.174
64884SOL    HW296486   9.783   7.549   6.198
64885SOL     OW96487   1.501  12.622   8.598
64885SOL    HW196488   1.567  12.620   8.667
64885SOL    HW296489   1.519  12.544   8.545
64886SOL     OW96490   4.840  13.012   1.387
64886SOL    HW196491   4.928  13.047   1.376
64886SOL    HW296492   4.820  13.024   1.480
64887SOL     OW96493  14.232  10.962  12.097
64887SOL    HW196494  14.290  10.994  12.166
64887SOL    HW296495  14.145  10.994  12.122
64888SOL     OW96496   4.670   3.508   6.190
64888SOL    HW196497   4.594   3.546   6.235
64888SOL    HW296498   4.734   3.580   6.186
64889SOL     OW96499   7.636   5.788  12.465
64889SOL    HW196500   7.620   5.739  12.384
64889SOL    HW296501   7.616   5.878  12.442
64890SOL     OW96502   0.895   5.044   5.712
64890SOL    HW196503   0.871   4.985   5.641
64890SOL    HW296504   0.897   5.131   5.671
64891SOL     OW96505  14.125   8.264  13.130
64891SOL    HW196506  14.031   8.281  13.136
64891SOL    HW296507  14.141   8.197  13.197
64892SOL     OW96508  10.143   8.137   4.900
64892SOL    HW196509  10.154   8.059   4.953
64892SOL    HW296510  10.128   8.208   4.963
64893SOL     OW96511  14.135   0.295   3.003
64893SOL    HW196512  14.216   0.264   3.043
64893SOL    HW296513  14.066   0.246   3.048
64894SOL     OW96514   2.540   3.657   5.534
64894SOL    HW196515   2.476   3.653   5.464
64894SOL    HW296516   2.596   3.732   5.512
64895SOL     OW96517  11.798   6.287   2.898
64895SOL    HW196518  11.707   6.285   2.868
64895SOL    HW296519  11.795   6.335   2.982
64896SOL     OW96520   8.503  13.850  14.345
64896SOL    HW196521   8.546  13.766  14.359
64896SOL    HW296522   8.430  13.830  14.286
64897SOL     OW96523   6.905  10.910   6.264
64897SOL    HW196524   6.987  10.862   6.248
64897SOL    HW296525   6.843  10.871   6.202
64898SOL     OW96526   0.979   2.517   1.175
64898SOL    HW196527   0.959   2.464   1.252
64898SOL    HW296528   1.046   2.468   1.128
64899SOL     OW96529   6.944   1.083   6.947
64899SOL    HW196530   7.032   1.060   6.975
64899SOL    HW296531   6.892   1.086   7.028
64900SOL     OW96532   4.117  14.210  12.993
64900SOL    HW196533   4.080  14.289  13.034
64900SOL    HW296534   4.073  14.203  12.909
64901SOL     OW96535   3.763   3.831  12.901
64901SOL    HW196536   3.800   3.886  12.971
64901SOL    HW296537   3.838   3.782  12.867
64902SOL     OW96538   0.768  14.374   7.144
64902SOL    HW196539   0.809  14.451   7.105
64902SOL    HW296540   0.836  14.337   7.199
64903SOL     OW96541   6.391   1.162   7.415
64903SOL    HW196542   6.316   1.114   7.380
64903SOL    HW296543   6.358   1.202   7.496
64904SOL     OW96544   7.931   5.659  11.817
64904SOL    HW196545   7.852   5.706  11.790
64904SOL    HW296546   7.983   5.725  11.862
64905SOL     OW96547   9.928   1.132   9.093
64905SOL    HW196548   9.926   1.038   9.110
64905SOL    HW296549   9.837   1.155   9.071
64906SOL     OW96550  11.772   4.002   1.208
64906SOL    HW196551  11.728   4.086   1.221
64906SOL    HW296552  11.729   3.943   1.270
64907SOL     OW96553  13.912  14.846  12.987
64907SOL    HW196554  13.969  14.807  13.054
64907SOL    HW296555  13.941   0.058  12.981
64908SOL     OW96556   0.582  14.064  13.062
64908SOL    HW196557   0.676  14.060  13.079
64908SOL    HW296558   0.572  14.022  12.977
64909SOL     OW96559   8.513   5.405  10.658
64909SOL    HW196560   8.507   5.481  10.715
64909SOL    HW296561   8.446   5.419  10.592
64910SOL     OW96562   1.744   4.702   2.062
64910SOL    HW196563   1.804   4.632   2.035
64910SOL    HW296564   1.665   4.686   2.012
64911SOL     OW96565   3.352  14.264  13.218
64911SOL    HW196566   3.432  14.252  13.270
64911SOL    HW296567   3.281  14.254  13.281
64912SOL     OW96568   8.782   0.602   8.253
64912SOL    HW196569   8.708   0.661   8.265
64912SOL    HW296570   8.854   0.644   8.300
64913SOL     OW96571  10.700   7.245  13.701
64913SOL    HW196572  10.753   7.293  13.637
64913SOL    HW296573  10.763   7.191  13.749
64914SOL     OW96574   1.999   4.645   9.937
64914SOL    HW196575   2.014   4.738   9.922
64914SOL    HW296576   2.045   4.601   9.865
64915SOL     OW96577  11.196   7.594  10.200
64915SOL    HW196578  11.216   7.501  10.191
64915SOL    HW296579  11.281   7.638  10.200
64916SOL     OW96580   4.383  13.627  12.955
64916SOL    HW196581   4.423  13.590  13.033
64916SOL    HW296582   4.335  13.555  12.915
64917SOL     OW96583   8.802   9.114   2.616
64917SOL    HW196584   8.879   9.064   2.642
64917SOL    HW296585   8.795   9.183   2.681
64918SOL     OW96586   9.710  10.083   5.201
64918SOL    HW196587   9.700  10.177   5.184
64918SOL    HW296588   9.768  10.053   5.131
64919SOL     OW96589   3.029   0.880   9.390
64919SOL    HW196590   3.081   0.835   9.323
64919SOL    HW296591   3.016   0.815   9.459
64920SOL     OW96592   3.702   9.871   5.818
64920SOL    HW196593   3.632   9.925   5.854
64920SOL    HW296594   3.708   9.797   5.878
64921SOL     OW96595   2.213  11.020   4.068
64921SOL    HW196596   2.284  10.959   4.051
64921SOL    HW296597   2.256  11.104   4.081
64922SOL     OW96598   5.075  11.968   8.948
64922SOL    HW196599   5.087  12.055   8.986
64922SOL    HW296600   5.163  11.940   8.923
64923SOL     OW96601  11.295   7.565   1.188
64923SOL    HW196602  11.379   7.565   1.141
64923SOL    HW296603  11.290   7.651   1.229
64924SOL     OW96604   3.234   1.436   1.259
64924SOL    HW196605   3.308   1.375   1.261
64924SOL    HW296606   3.262   1.504   1.197
64925SOL     OW96607  13.835   5.143   7.459
64925SOL    HW196608  13.852   5.173   7.548
64925SOL    HW296609  13.882   5.205   7.403
64926SOL     OW96610   3.435  14.145   8.567
64926SOL    HW196611   3.404  14.161   8.656
64926SOL    HW296612   3.399  14.059   8.544
64927SOL     OW96613   2.853   9.888   3.431
64927SOL    HW196614   2.919   9.912   3.366
64927SOL    HW296615   2.889   9.810   3.473
64928SOL     OW96616   1.449   1.004   9.797
64928SOL    HW196617   1.540   1.025   9.818
64928SOL    HW296618   1.413   0.969   9.879
64929SOL     OW96619   0.661  12.734  11.726
64929SOL    HW196620   0.742  12.696  11.761
64929SOL    HW296621   0.673  12.734  11.631
64930SOL     OW96622   1.555  13.399   2.402
64930SOL    HW196623   1.519  13.349   2.474
64930SOL    HW296624   1.629  13.447   2.440
64931SOL     OW96625   2.464   4.219   8.621
64931SOL    HW196626   2.422   4.269   8.692
64931SOL    HW296627   2.450   4.272   8.543
64932SOL     OW96628  11.586  14.593   4.661
64932SOL    HW196629  11.599  14.535   4.736
64932SOL    HW296630  11.628  14.548   4.588
64933SOL     OW96631  10.857  12.695  10.350
64933SOL    HW196632  10.852  12.773  10.293
64933SOL    HW296633  10.926  12.717  10.413
64934SOL     OW96634  14.824   8.209   4.542
64934SOL    HW196635  14.877   8.147   4.592
64934SOL    HW296636  14.846   8.295   4.579
64935SOL     OW96637   2.441   4.232  10.963
64935SOL    HW196638   2.357   4.190  10.981
64935SOL    HW296639   2.497   4.208  11.037
64936SOL     OW96640   4.135  13.954  14.708
64936SOL    HW196641   4.134  14.048  14.695
64936SOL    HW296642   4.181  13.942  14.791
64937SOL     OW96643   2.304  10.020   6.181
64937SOL    HW196644   2.227  10.077   6.175
64937SOL    HW296645   2.269   9.932   6.189
64938SOL     OW96646  11.376   5.342  13.097
64938SOL    HW196647  11.319   5.274  13.061
64938SOL    HW296648  11.404   5.308  13.182
64939SOL     OW96649   9.195   0.429  14.737
64939SOL    HW196650   9.225   0.347  14.698
64939SOL    HW296651   9.249   0.497  14.697
64940SOL     OW96652   8.106   9.926   8.980
64940SOL    HW196653   8.071   9.979   9.052
64940SOL    HW296654   8.086   9.835   9.006
64941SOL     OW96655   5.079   1.993   3.733
64941SOL    HW196656   5.054   2.070   3.681
64941SOL    HW296657   5.080   1.921   3.670
64942SOL     OW96658   8.669  11.715   7.211
64942SOL    HW196659   8.640  11.803   7.185
64942SOL    HW296660   8.627  11.656   7.148
64943SOL     OW96661   3.894   5.698   3.152
64943SOL    HW196662   3.981   5.692   3.192
64943SOL    HW296663   3.881   5.613   3.110
64944SOL     OW96664   4.648   6.292   6.983
64944SOL    HW196665   4.687   6.228   6.924
64944SOL    HW296666   4.667   6.377   6.943
64945SOL     OW96667   1.782   7.960   6.754
64945SOL    HW196668   1.840   7.897   6.796
64945SOL    HW296669   1.722   7.906   6.702
64946SOL     OW96670   0.693  11.467   3.108
64946SOL    HW196671   0.709  11.383   3.065
64946SOL    HW296672   0.598  11.471   3.117
64947SOL     OW96673   8.777  12.750   8.054
64947SOL    HW196674   8.814  12.810   8.119
64947SOL    HW296675   8.757  12.805   7.979
64948SOL     OW96676   4.647  14.091  12.551
64948SOL    HW196677   4.672  14.158  12.487
64948SOL    HW296678   4.724  14.079  12.606
64949SOL     OW96679   0.244   0.358   0.625
64949SOL    HW196680   0.183   0.355   0.551
64949SOL    HW296681   0.233   0.445   0.662
64950SOL     OW96682  14.111   0.636   0.015
64950SOL    HW196683  14.029   0.684   0.002
64950SOL    HW296684  14.114   0.618   0.109
64951SOL     OW96685   3.864   8.915   5.092
64951SOL    HW196686   3.861   8.820   5.104
64951SOL    HW296687   3.887   8.949   5.178
64952SOL     OW96688   2.545   2.046   2.025
64952SOL    HW196689   2.487   1.998   2.085
64952SOL    HW296690   2.610   2.087   2.083
64953SOL     OW96691  12.886   1.610  13.335
64953SOL    HW196692  12.965   1.556  13.325
64953SOL    HW296693  12.831   1.560  13.395
64954SOL     OW96694   6.563   8.551   8.654
64954SOL    HW196695   6.652   8.517   8.659
64954SOL    HW296696   6.564   8.612   8.580
64955SOL     OW96697   7.258   8.952   4.032
64955SOL    HW196698   7.325   8.883   4.033
64955SOL    HW296699   7.270   8.997   4.116
64956SOL     OW96700   6.677   9.989   5.424
64956SOL    HW196701   6.715   9.910   5.463
64956SOL    HW296702   6.746  10.023   5.368
64957SOL     OW96703   0.251  12.741   7.823
64957SOL    HW196704   0.159  12.716   7.835
64957SOL    HW296705   0.259  12.757   7.729
64958SOL     OW96706   6.909   1.455   1.550
64958SOL    HW196707   6.862   1.537   1.533
64958SOL    HW296708   6.999   1.473   1.522
64959SOL     OW96709   7.088   4.399   9.718
64959SOL    HW196710   7.051   4.328   9.770
64959SOL    HW296711   7.153   4.356   9.662
64960SOL     OW96712   1.719  10.241  10.304
64960SOL    HW196713   1.722  10.333  10.329
64960SOL    HW296714   1.695  10.242  10.211
64961SOL     OW96715   9.256  12.776  13.052
64961SOL    HW196716   9.314  12.812  13.120
64961SOL    HW296717   9.176  12.754  13.099
64962SOL     OW96718   5.550   9.497   9.560
64962SOL    HW196719   5.507   9.574   9.597
64962SOL    HW296720   5.626   9.532   9.513
64963SOL     OW96721   6.112   6.708   8.037
64963SOL    HW196722   6.115   6.780   8.100
64963SOL    HW296723   6.049   6.737   7.971
64964SOL     OW96724  10.268   4.512   4.858
64964SOL    HW196725  10.194   4.540   4.804
64964SOL    HW296726  10.277   4.581   4.924
64965SOL     OW96727   7.706   0.115  11.480
64965SOL    HW196728   7.618   0.078  11.487
64965SOL    HW296729   7.753   0.081  11.556
64966SOL     OW96730   6.320   6.013   6.974
64966SOL    HW196731   6.403   6.019   7.021
64966SOL    HW296732   6.342   5.976   6.889
64967SOL     OW96733   4.702   6.217   2.511
64967SOL    HW196734   4.753   6.273   2.453
64967SOL    HW296735   4.749   6.134   2.512
64968SOL     OW96736   7.434   6.255   4.310
64968SOL    HW196737   7.470   6.332   4.266
64968SOL    HW296738   7.498   6.186   4.293
64969SOL     OW96739   3.202  14.540  10.125
64969SOL    HW196740   3.187  14.463  10.179
64969SOL    HW296741   3.245  14.506  10.046
64970SOL     OW96742   6.253   8.470   3.624
64970SOL    HW196743   6.308   8.448   3.700
64970SOL    HW296744   6.314   8.476   3.551
64971SOL     OW96745   4.875  11.828  14.556
64971SOL    HW196746   4.789  11.820  14.515
64971SOL    HW296747   4.856  11.830  14.650
64972SOL     OW96748   9.028   3.521  14.779
64972SOL    HW196749   8.997   3.431  14.783
64972SOL    HW296750   9.028   3.543  14.686
64973SOL     OW96751  13.375  12.599  12.266
64973SOL    HW196752  13.421  12.679  12.291
64973SOL    HW296753  13.286  12.628  12.246
64974SOL     OW96754   0.154  13.045   6.585
64974SOL    HW196755   0.205  13.013   6.659
64974SOL    HW296756   0.120  12.966   6.543
64975SOL     OW96757  11.381  10.677   0.595
64975SOL    HW196758  11.316  10.609   0.576
64975SOL    HW296759  11.366  10.743   0.527
64976SOL     OW96760   0.215  13.862   3.119
64976SOL    HW196761   0.288  13.819   3.076
64976SOL    HW296762   0.206  13.817   3.203
64977SOL     OW96763   9.474   4.269   0.943
64977SOL    HW196764   9.525   4.335   0.990
64977SOL    HW296765   9.439   4.316   0.867
64978SOL     OW96766  12.757  12.910  12.876
64978SOL    HW196767  12.780  12.971  12.946
64978SOL    HW296768  12.841  12.871  12.850
64979SOL     OW96769   0.523   6.599   3.995
64979SOL    HW196770   0.608   6.570   3.961
64979SOL    HW296771   0.461   6.531   3.967
64980SOL     OW96772  12.797   4.672  11.979
64980SOL    HW196773  12.777   4.626  12.060
64980SOL    HW296774  12.725   4.734  11.968
64981SOL     OW96775  11.521   8.968  13.414
64981SOL    HW196776  11.437   8.923  13.403
64981SOL    HW296777  11.585   8.897  13.421
64982SOL     OW96778   3.019   3.532  14.618
64982SOL    HW196779   2.958   3.459  14.629
64982SOL    HW296780   3.105   3.490  14.614
64983SOL     OW96781   9.871  12.564   1.422
64983SOL    HW196782   9.929  12.630   1.385
64983SOL    HW296783   9.785  12.606   1.423
64984SOL     OW96784  10.631   2.097   0.254
64984SOL    HW196785  10.575   2.174   0.270
64984SOL    HW296786  10.668   2.077   0.340
64985SOL     OW96787   5.046   5.430   5.410
64985SOL    HW196788   5.135   5.411   5.440
64985SOL    HW296789   5.042   5.392   5.322
64986SOL     OW96790   0.938   6.547   9.328
64986SOL    HW196791   0.977   6.633   9.343
64986SOL    HW296792   0.907   6.550   9.238
64987SOL     OW96793   9.006   0.139  14.554
64987SOL    HW196794   8.927   0.189  14.577
64987SOL    HW296795   8.994   0.115  14.462
64988SOL     OW96796  14.141   8.014  11.620
64988SOL    HW196797  14.183   7.928  11.617
64988SOL    HW296798  14.213   8.076  11.605
64989SOL     OW96799   7.081   1.608   4.115
64989SOL    HW196800   7.036   1.563   4.043
64989SOL    HW296801   7.154   1.652   4.072
64990SOL     OW96802   2.788   0.813   4.140
64990SOL    HW196803   2.826   0.809   4.052
64990SOL    HW296804   2.700   0.776   4.129
64991SOL     OW96805   0.037   4.101   7.181
64991SOL    HW196806  14.833   4.128   7.143
64991SOL    HW296807   0.033   4.005   7.183
64992SOL     OW96808  12.560  11.550  10.767
64992SOL    HW196809  12.591  11.460  10.770
64992SOL    HW296810  12.584  11.587  10.853
64993SOL     OW96811  12.709   0.051   2.577
64993SOL    HW196812  12.712   0.001   2.495
64993SOL    HW296813  12.695  14.864   2.645
64994SOL     OW96814   0.060   3.189   4.480
64994SOL    HW196815   0.007   3.219   4.405
64994SOL    HW296816   0.061   3.093   4.471
64995SOL     OW96817  12.876  12.789  11.410
64995SOL    HW196818  12.848  12.740  11.333
64995SOL    HW296819  12.892  12.723  11.477
64996SOL     OW96820   7.759   7.813  13.984
64996SOL    HW196821   7.795   7.901  13.976
64996SOL    HW296822   7.808   7.773  14.056
64997SOL     OW96823   9.393  13.454   7.902
64997SOL    HW196824   9.397  13.407   7.985
64997SOL    HW296825   9.325  13.408   7.852
64998SOL     OW96826  13.871   0.142   8.855
64998SOL    HW196827  13.784   0.118   8.824
64998SOL    HW296828  13.928   0.071   8.825
64999SOL     OW96829  13.046   2.850  11.015
64999SOL    HW196830  13.117   2.832  11.077
64999SOL    HW296831  13.085   2.834  10.929
65000SOL     OW96832  13.089   5.576   9.086
65000SOL    HW196833  13.064   5.538   9.170
65000SOL    HW296834  13.080   5.504   9.024
65001SOL     OW96835   1.209   9.784   8.747
65001SOL    HW196836   1.122   9.810   8.777
65001SOL    HW296837   1.202   9.690   8.731
65002SOL     OW96838   0.119   9.494  11.643
65002SOL    HW196839   0.026   9.511  11.631
65002SOL    HW296840   0.161   9.535  11.567
65003SOL     OW96841  11.422   5.342   2.998
65003SOL    HW196842  11.495   5.388   2.956
65003SOL    HW296843  11.426   5.369   3.090
65004SOL     OW96844   0.153   5.763   3.905
65004SOL    HW196845   0.225   5.799   3.853
65004SOL    HW296846   0.157   5.811   3.988
65005SOL     OW96847   9.068   8.909  11.656
65005SOL    HW196848   9.105   8.896  11.744
65005SOL    HW296849   9.027   8.995  11.660
65006SOL     OW96850  10.101   5.609   8.962
65006SOL    HW196851  10.036   5.660   8.914
65006SOL    HW296852  10.064   5.600   9.050
65007SOL     OW96853   9.008   0.387   6.096
65007SOL    HW196854   9.002   0.317   6.162
65007SOL    HW296855   9.102   0.393   6.077
65008SOL     OW96856   2.077   1.709   5.636
65008SOL    HW196857   2.054   1.633   5.582
65008SOL    HW296858   2.123   1.768   5.576
65009SOL     OW96859  13.220   2.360   8.124
65009SOL    HW196860  13.165   2.351   8.202
65009SOL    HW296861  13.263   2.275   8.115
65010SOL     OW96862   4.092  11.933  14.714
65010SOL    HW196863   4.144  11.854  14.728
65010SOL    HW296864   4.011  11.918  14.764
65011SOL     OW96865   0.920  12.305  10.227
65011SOL    HW196866   0.865  12.348  10.162
65011SOL    HW296867   1.002  12.354  10.224
65012SOL     OW96868   8.908   1.059   0.123
65012SOL    HW196869   8.819   1.039   0.096
65012SOL    HW296870   8.898   1.118   0.198
65013SOL     OW96871   1.477   6.993  14.001
65013SOL    HW196872   1.391   7.001  13.960
65013SOL    HW296873   1.477   7.057  14.071
65014SOL     OW96874  13.898   3.324   2.194
65014SOL    HW196875  13.984   3.284   2.180
65014SOL    HW296876  13.866   3.284   2.275
65015SOL     OW96877   2.761   2.013  13.211
65015SOL    HW196878   2.766   1.982  13.301
65015SOL    HW296879   2.809   1.946  13.161
65016SOL     OW96880   7.004   8.708  13.191
65016SOL    HW196881   7.042   8.622  13.207
65016SOL    HW296882   7.059   8.746  13.122
65017SOL     OW96883   1.972   8.257   0.513
65017SOL    HW196884   1.962   8.205   0.433
65017SOL    HW296885   1.884   8.264   0.549
65018SOL     OW96886   1.652   0.742  10.473
65018SOL    HW196887   1.649   0.837  10.474
65018SOL    HW296888   1.563   0.714  10.494
65019SOL     OW96889   2.102   9.743  10.859
65019SOL    HW196890   2.176   9.768  10.804
65019SOL    HW296891   2.049   9.823  10.867
65020SOL     OW96892  13.421   7.877  10.418
65020SOL    HW196893  13.500   7.847  10.463
65020SOL    HW296894  13.442   7.868  10.325
65021SOL     OW96895   5.341   0.710  11.351
65021SOL    HW196896   5.418   0.766  11.365
65021SOL    HW296897   5.342   0.693  11.257
65022SOL     OW96898  11.970   7.309   5.925
65022SOL    HW196899  11.963   7.249   6.000
65022SOL    HW296900  11.901   7.280   5.865
65023SOL     OW96901  10.565   8.340   3.353
65023SOL    HW196902  10.523   8.360   3.436
65023SOL    HW296903  10.540   8.249   3.334
65024SOL     OW96904   2.519   0.982   4.240
65024SOL    HW196905   2.518   0.931   4.321
65024SOL    HW296906   2.504   1.072   4.268
65025SOL     OW96907   8.860  13.960   2.778
65025SOL    HW196908   8.779  13.949   2.829
65025SOL    HW296909   8.900  13.873   2.778
65026SOL     OW96910  14.239  13.433   5.906
65026SOL    HW196911  14.330  13.404   5.904
65026SOL    HW296912  14.193  13.371   5.849
65027SOL     OW96913   2.029  10.476  10.443
65027SOL    HW196914   2.041  10.540  10.513
65027SOL    HW296915   1.992  10.399  10.486
65028SOL     OW96916  13.669   4.321  10.778
65028SOL    HW196917  13.659   4.351  10.688
65028SOL    HW296918  13.633   4.232  10.778
65029SOL     OW96919  10.622  12.764  14.486
65029SOL    HW196920  10.659  12.766  14.575
65029SOL    HW296921  10.634  12.853  14.453
65030SOL     OW96922   3.078  10.720   0.526
65030SOL    HW196923   3.033  10.637   0.508
65030SOL    HW296924   3.157  10.695   0.573
65031SOL     OW96925   3.829   2.803   0.910
65031SOL    HW196926   3.767   2.730   0.919
65031SOL    HW296927   3.912   2.767   0.943
65032SOL     OW96928  10.896  10.327   1.564
65032SOL    HW196929  10.884  10.304   1.656
65032SOL    HW296930  10.868  10.418   1.558
65033SOL     OW96931   1.816   1.211   1.933
65033SOL    HW196932   1.822   1.169   1.847
65033SOL    HW296933   1.888   1.174   1.983
65034SOL     OW96934   5.510   3.351   9.106
65034SOL    HW196935   5.443   3.289   9.078
65034SOL    HW296936   5.475   3.437   9.079
65035SOL     OW96937  11.923   4.619   3.625
65035SOL    HW196938  12.017   4.624   3.606
65035SOL    HW296939  11.882   4.670   3.555
65036SOL     OW96940   7.478   7.514   2.236
65036SOL    HW196941   7.393   7.545   2.203
65036SOL    HW296942   7.513   7.460   2.166
65037SOL     OW96943   2.591   5.002  11.775
65037SOL    HW196944   2.668   4.976  11.826
65037SOL    HW296945   2.591   5.097  11.777
65038SOL     OW96946  12.276   4.040  11.483
65038SOL    HW196947  12.270   4.075  11.572
65038SOL    HW296948  12.252   3.947  11.492
65039SOL     OW96949   3.686   2.407   5.321
65039SOL    HW196950   3.631   2.333   5.345
65039SOL    HW296951   3.706   2.393   5.229
65040SOL     OW96952  11.760   7.352   8.807
65040SOL    HW196953  11.850   7.344   8.840
65040SOL    HW296954  11.757   7.293   8.732
65041SOL     OW96955   1.113   1.795   9.836
65041SOL    HW196956   1.029   1.776   9.795
65041SOL    HW296957   1.166   1.717   9.820
65042SOL     OW96958   7.793   1.482  13.358
65042SOL    HW196959   7.832   1.564  13.389
65042SOL    HW296960   7.835   1.466  13.274
65043SOL     OW96961   1.814  13.838   1.779
65043SOL    HW196962   1.751  13.884   1.723
65043SOL    HW296963   1.818  13.890   1.859
65044SOL     OW96964   0.193   7.500   1.683
65044SOL    HW196965   0.121   7.467   1.628
65044SOL    HW296966   0.262   7.524   1.621
65045SOL     OW96967   0.657   1.864  11.993
65045SOL    HW196968   0.579   1.809  11.996
65045SOL    HW296969   0.684   1.864  11.901
65046SOL     OW96970   5.329   8.942   2.575
65046SOL    HW196971   5.344   9.022   2.525
65046SOL    HW296972   5.406   8.888   2.557
65047SOL     OW96973  10.466   6.659  13.999
65047SOL    HW196974  10.470   6.628  13.909
65047SOL    HW296975  10.432   6.748  13.992
65048SOL     OW96976  11.683   0.221   3.099
65048SOL    HW196977  11.666   0.135   3.060
65048SOL    HW296978  11.672   0.283   3.027
65049SOL     OW96979  10.786  11.373   6.553
65049SOL    HW196980  10.721  11.365   6.624
65049SOL    HW296981  10.821  11.285   6.542
65050SOL     OW96982   5.832   4.460  14.116
65050SOL    HW196983   5.845   4.494  14.205
65050SOL    HW296984   5.782   4.529  14.072
65051SOL     OW96985  14.640  12.708   2.523
65051SOL    HW196986  14.704  12.674   2.460
65051SOL    HW296987  14.561  12.722   2.472
65052SOL     OW96988   6.849  10.494  12.165
65052SOL    HW196989   6.881  10.508  12.255
65052SOL    HW296990   6.883  10.569  12.116
65053SOL     OW96991  13.936   0.583   1.643
65053SOL    HW196992  13.917   0.641   1.569
65053SOL    HW296993  13.928   0.495   1.607
65054SOL     OW96994   3.351  14.455   7.573
65054SOL    HW196995   3.311  14.541   7.560
65054SOL    HW296996   3.414  14.447   7.501
65055SOL     OW96997   6.342   2.960   3.983
65055SOL    HW196998   6.396   2.977   3.906
65055SOL    HW296999   6.349   2.865   3.997
65056SOL     OW97000  10.901   3.592   9.310
65056SOL    HW197001  10.978   3.642   9.337
65056SOL    HW297002  10.832   3.657   9.303
65057SOL     OW97003   2.315   9.726  13.257
65057SOL    HW197004   2.369   9.784  13.202
65057SOL    HW297005   2.228   9.730  13.217
65058SOL     OW97006   1.712   3.833   6.143
65058SOL    HW197007   1.646   3.778   6.100
65058SOL    HW297008   1.680   3.843   6.233
65059SOL     OW97009   6.578  10.143   5.833
65059SOL    HW197010   6.628  10.195   5.896
65059SOL    HW297011   6.496  10.122   5.879
65060SOL     OW97012   5.377  12.230   5.236
65060SOL    HW197013   5.359  12.303   5.176
65060SOL    HW297014   5.304  12.233   5.299
65061SOL     OW97015  14.120   9.545  10.070
65061SOL    HW197016  14.047   9.560  10.130
65061SOL    HW297017  14.147   9.455  10.088
65062SOL     OW97018  14.048  12.775   8.606
65062SOL    HW197019  13.957  12.799   8.625
65062SOL    HW297020  14.061  12.804   8.516
65063SOL     OW97021  14.513  14.593   8.314
65063SOL    HW197022  14.557  14.580   8.398
65063SOL    HW297023  14.531  14.684   8.291
65064SOL     OW97024   9.606   9.746  13.346
65064SOL    HW197025   9.530   9.702  13.383
65064SOL    HW297026   9.575   9.834  13.326
65065SOL     OW97027   0.969  14.438   2.167
65065SOL    HW197028   1.021  14.517   2.154
65065SOL    HW297029   0.919  14.429   2.085
65066SOL     OW97030  11.897  11.709   9.152
65066SOL    HW197031  11.841  11.716   9.075
65066SOL    HW297032  11.973  11.659   9.122
65067SOL     OW97033   4.201   9.472   1.600
65067SOL    HW197034   4.210   9.407   1.530
65067SOL    HW297035   4.192   9.555   1.555
65068SOL     OW97036  10.213   2.302   6.792
65068SOL    HW197037  10.118   2.305   6.795
65068SOL    HW297038  10.235   2.307   6.699
65069SOL     OW97039   0.929  11.849   6.333
65069SOL    HW197040   1.024  11.856   6.345
65069SOL    HW297041   0.892  11.900   6.405
65070SOL     OW97042   8.626   7.768   0.410
65070SOL    HW197043   8.670   7.713   0.476
65070SOL    HW297044   8.697   7.817   0.369
65071SOL     OW97045   5.212  10.591   6.936
65071SOL    HW197046   5.212  10.677   6.978
65071SOL    HW297047   5.304  10.564   6.936
65072SOL     OW97048  12.047  12.230   6.556
65072SOL    HW197049  12.073  12.156   6.610
65072SOL    HW297050  12.080  12.307   6.603
65073SOL     OW97051  10.922  14.559   6.373
65073SOL    HW197052  10.898  14.636   6.322
65073SOL    HW297053  11.018  14.559   6.373
65074SOL     OW97054   3.671   2.260   5.794
65074SOL    HW197055   3.685   2.200   5.721
65074SOL    HW297056   3.613   2.212   5.854
65075SOL     OW97057  11.342  11.041   3.010
65075SOL    HW197058  11.436  11.056   3.014
65075SOL    HW297059  11.321  11.043   2.917
65076SOL     OW97060   4.094   5.157   2.872
65076SOL    HW197061   4.187   5.154   2.894
65076SOL    HW297062   4.088   5.116   2.786
65077SOL     OW97063   9.582   6.029  14.634
65077SOL    HW197064   9.677   6.038  14.634
65077SOL    HW297065   9.559   6.022  14.726
65078SOL     OW97066   3.584   3.345   2.968
65078SOL    HW197067   3.629   3.339   3.053
65078SOL    HW297068   3.520   3.415   2.980
65079SOL     OW97069  14.365  14.651   1.509
65079SOL    HW197070  14.386  14.576   1.453
65079SOL    HW297071  14.330  14.717   1.448
65080SOL     OW97072   3.613   1.858   9.586
65080SOL    HW197073   3.607   1.902   9.502
65080SOL    HW297074   3.693   1.892   9.626
65081SOL     OW97075   1.662   8.817   7.315
65081SOL    HW197076   1.704   8.738   7.282
65081SOL    HW297077   1.657   8.875   7.239
65082SOL     OW97078   5.753   8.282  13.931
65082SOL    HW197079   5.697   8.360  13.939
65082SOL    HW297080   5.724   8.226  14.003
65083SOL     OW97081   8.380  11.789   1.552
65083SOL    HW197082   8.393  11.718   1.489
65083SOL    HW297083   8.307  11.759   1.606
65084SOL     OW97084   5.344   6.667   2.612
65084SOL    HW197085   5.280   6.721   2.566
65084SOL    HW297086   5.313   6.577   2.603
65085SOL     OW97087  11.924   5.165   6.171
65085SOL    HW197088  11.921   5.101   6.242
65085SOL    HW297089  11.839   5.209   6.174
65086SOL     OW97090   3.464   1.612   7.262
65086SOL    HW197091   3.476   1.520   7.239
65086SOL    HW297092   3.500   1.620   7.350
65087SOL     OW97093   8.848  12.144  13.277
65087SOL    HW197094   8.941  12.166  13.284
65087SOL    HW297095   8.847  12.058  13.235
65088SOL     OW97096  12.883  12.097  12.751
65088SOL    HW197097  12.860  12.190  12.749
65088SOL    HW297098  12.884  12.070  12.659
65089SOL     OW97099   1.815   7.601  13.448
65089SOL    HW197100   1.722   7.613  13.465
65089SOL    HW297101   1.821   7.581  13.355
65090SOL     OW97102   0.894   8.152  13.977
65090SOL    HW197103   0.961   8.085  13.958
65090SOL    HW297104   0.841   8.113  14.046
65091SOL     OW97105  13.934   3.547   4.365
65091SOL    HW197106  13.911   3.607   4.436
65091SOL    HW297107  14.019   3.580   4.334
65092SOL     OW97108   0.144  11.491   7.219
65092SOL    HW197109   0.138  11.484   7.314
65092SOL    HW297110   0.196  11.570   7.204
65093SOL     OW97111   0.757  10.775  13.142
65093SOL    HW197112   0.821  10.837  13.177
65093SOL    HW297113   0.673  10.818  13.153
65094SOL     OW97114  10.868   7.455  12.848
65094SOL    HW197115  10.815   7.415  12.917
65094SOL    HW297116  10.850   7.402  12.770
65095SOL     OW97117  13.083  12.171  11.263
65095SOL    HW197118  13.062  12.085  11.299
65095SOL    HW297119  13.114  12.154  11.174
65096SOL     OW97120   8.985   9.634   7.604
65096SOL    HW197121   8.918   9.698   7.580
65096SOL    HW297122   8.958   9.602   7.690
65097SOL     OW97123   7.068  11.606   7.979
65097SOL    HW197124   7.031  11.632   8.063
65097SOL    HW297125   7.085  11.512   7.988
65098SOL     OW97126   1.533   9.378  10.941
65098SOL    HW197127   1.496   9.445  10.883
65098SOL    HW297128   1.479   9.300  10.924
65099SOL     OW97129   3.102   0.196   9.636
65099SOL    HW197130   3.173   0.230   9.581
65099SOL    HW297131   3.071   0.272   9.685
65100SOL     OW97132  11.582  11.555   2.085
65100SOL    HW197133  11.601  11.484   2.023
65100SOL    HW297134  11.656  11.616   2.074
65101SOL     OW97135   6.115  11.910   9.065
65101SOL    HW197136   6.122  11.825   9.109
65101SOL    HW297137   6.065  11.891   8.986
65102SOL     OW97138   5.992  13.252  10.679
65102SOL    HW197139   5.898  13.249  10.698
65102SOL    HW297140   5.999  13.216  10.591
65103SOL     OW97141   4.704   8.096   1.293
65103SOL    HW197142   4.637   8.055   1.239
65103SOL    HW297143   4.780   8.038   1.285
65104SOL     OW97144  12.657   9.116  12.207
65104SOL    HW197145  12.563   9.110  12.187
65104SOL    HW297146  12.661   9.114  12.303
65105SOL     OW97147   3.379   7.488  12.612
65105SOL    HW197148   3.443   7.420  12.591
65105SOL    HW297149   3.321   7.490  12.535
65106SOL     OW97150  13.381  10.377   8.343
65106SOL    HW197151  13.371  10.288   8.311
65106SOL    HW297152  13.296  10.418   8.329
65107SOL     OW97153   7.130   5.361   0.884
65107SOL    HW197154   7.124   5.332   0.975
65107SOL    HW297155   7.222   5.387   0.874
65108SOL     OW97156   1.547   1.763  10.362
65108SOL    HW197157   1.496   1.720  10.293
65108SOL    HW297158   1.520   1.854  10.358
65109SOL     OW97159   8.336  10.804  13.287
65109SOL    HW197160   8.406  10.837  13.231
65109SOL    HW297161   8.337  10.862  13.363
65110SOL     OW97162  11.307   5.569  14.630
65110SOL    HW197163  11.281   5.483  14.600
65110SOL    HW297164  11.266   5.578  14.717
65111SOL     OW97165   8.515   1.003   6.963
65111SOL    HW197166   8.576   0.963   7.025
65111SOL    HW297167   8.496   0.932   6.900
65112SOL     OW97168   5.690   5.841   3.203
65112SOL    HW197169   5.769   5.839   3.257
65112SOL    HW297170   5.618   5.838   3.266
65113SOL     OW97171   5.589  11.623   2.551
65113SOL    HW197172   5.622  11.693   2.607
65113SOL    HW297173   5.655  11.615   2.482
65114SOL     OW97174   1.360   7.999   1.966
65114SOL    HW197175   1.450   8.030   1.954
65114SOL    HW297176   1.331   8.039   2.048
65115SOL     OW97177   7.038   4.213   9.924
65115SOL    HW197178   7.032   4.251  10.012
65115SOL    HW297179   6.971   4.145   9.923
65116SOL     OW97180  11.738  10.930   4.516
65116SOL    HW197181  11.773  10.917   4.428
65116SOL    HW297182  11.796  10.996   4.555
65117SOL     OW97183   2.568   0.391   7.052
65117SOL    HW197184   2.613   0.311   7.079
65117SOL    HW297185   2.503   0.407   7.121
65118SOL     OW97186   3.171   6.357   9.242
65118SOL    HW197187   3.123   6.302   9.305
65118SOL    HW297188   3.245   6.303   9.214
65119SOL     OW97189   9.357  12.091   4.369
65119SOL    HW197190   9.316  12.005   4.367
65119SOL    HW297191   9.450  12.075   4.350
65120SOL     OW97192   3.440   6.325  13.355
65120SOL    HW197193   3.376   6.368  13.411
65120SOL    HW297194   3.495   6.275  13.415
65121SOL     OW97195  10.414   5.862  12.851
65121SOL    HW197196  10.506   5.835  12.860
65121SOL    HW297197  10.409   5.901  12.764
65122SOL     OW97198   4.980  12.510   8.060
65122SOL    HW197199   5.001  12.498   7.967
65122SOL    HW297200   4.886  12.495   8.065
65123SOL     OW97201  14.368   2.991   7.447
65123SOL    HW197202  14.447   2.992   7.502
65123SOL    HW297203  14.392   3.044   7.371
65124SOL     OW97204   9.244   7.077   0.734
65124SOL    HW197205   9.287   7.162   0.746
65124SOL    HW297206   9.189   7.088   0.656
65125SOL     OW97207   7.815  12.628  11.929
65125SOL    HW197208   7.730  12.592  11.906
65125SOL    HW297209   7.878  12.562  11.899
65126SOL     OW97210  12.656   5.765   2.946
65126SOL    HW197211  12.567   5.750   2.978
65126SOL    HW297212  12.649   5.846   2.895
65127SOL     OW97213   9.890   2.054   5.053
65127SOL    HW197214   9.897   1.973   5.104
65127SOL    HW297215   9.854   2.118   5.115
65128SOL     OW97216   3.746  11.917   9.824
65128SOL    HW197217   3.816  11.904   9.761
65128SOL    HW297218   3.697  11.835   9.823
65129SOL     OW97219  12.666  11.929   5.766
65129SOL    HW197220  12.653  11.930   5.671
65129SOL    HW297221  12.608  11.998   5.799
65130SOL     OW97222   1.262  14.655  13.663
65130SOL    HW197223   1.348  14.648  13.704
65130SOL    HW297224   1.207  14.695  13.729
65131SOL     OW97225  10.284  12.448   1.615
65131SOL    HW197226  10.223  12.490   1.676
65131SOL    HW297227  10.370  12.477   1.644
65132SOL     OW97228  11.584  14.205   3.750
65132SOL    HW197229  11.676  14.178   3.741
65132SOL    HW297230  11.534  14.127   3.725
65133SOL     OW97231   9.806   2.435  14.750
65133SOL    HW197232   9.799   2.530  14.742
65133SOL    HW297233   9.880   2.421  14.809
65134SOL     OW97234   5.782   5.832   8.248
65134SOL    HW197235   5.816   5.786   8.326
65134SOL    HW297236   5.727   5.902   8.284
65135SOL     OW97237   5.009   9.671   2.498
65135SOL    HW197238   4.975   9.718   2.421
65135SOL    HW297239   4.949   9.597   2.509
65136SOL     OW97240   4.007   4.139  13.450
65136SOL    HW197241   4.024   4.190  13.371
65136SOL    HW297242   3.914   4.153  13.467
65137SOL     OW97243   9.466   8.883  13.249
65137SOL    HW197244   9.511   8.909  13.329
65137SOL    HW297245   9.515   8.807  13.218
65138SOL     OW97246   3.643   9.451  10.033
65138SOL    HW197247   3.727   9.478   9.996
65138SOL    HW297248   3.594   9.533  10.042
65139SOL     OW97249  13.507   8.597  12.726
65139SOL    HW197250  13.420   8.571  12.695
65139SOL    HW297251  13.522   8.683  12.687
65140SOL     OW97252   9.622  12.161   6.437
65140SOL    HW197253   9.609  12.085   6.494
65140SOL    HW297254   9.538  12.173   6.394
65141SOL     OW97255   6.174   6.920  14.551
65141SOL    HW197256   6.088   6.962  14.539
65141SOL    HW297257   6.178   6.852  14.485
65142SOL     OW97258   6.286   7.131   6.281
65142SOL    HW197259   6.271   7.042   6.250
65142SOL    HW297260   6.264   7.128   6.374
65143SOL     OW97261  12.413   2.757   0.967
65143SOL    HW197262  12.417   2.787   1.058
65143SOL    HW297263  12.324   2.780   0.939
65144SOL     OW97264   8.737   5.239   8.033
65144SOL    HW197265   8.694   5.308   7.981
65144SOL    HW297266   8.827   5.237   8.000
65145SOL     OW97267   4.178   9.312   1.014
65145SOL    HW197268   4.233   9.302   0.937
65145SOL    HW297269   4.226   9.266   1.084
65146SOL     OW97270   5.256  10.045   6.328
65146SOL    HW197271   5.176  10.093   6.349
65146SOL    HW297272   5.242  10.011   6.240
65147SOL     OW97273   8.598   6.822   5.486
65147SOL    HW197274   8.589   6.875   5.565
65147SOL    HW297275   8.692   6.802   5.481
65148SOL     OW97276  11.781   3.258   5.733
65148SOL    HW197277  11.778   3.352   5.755
65148SOL    HW297278  11.698   3.223   5.765
65149SOL     OW97279   1.838   4.939   0.278
65149SOL    HW197280   1.915   4.952   0.334
65149SOL    HW297281   1.872   4.949   0.189
65150SOL     OW97282   6.520   0.779   4.805
65150SOL    HW197283   6.521   0.827   4.722
65150SOL    HW297284   6.433   0.792   4.840
65151SOL     OW97285   0.039  12.192  12.723
65151SOL    HW197286   0.049  12.272  12.776
65151SOL    HW297287   0.123  12.181  12.679
65152SOL     OW97288   1.790   0.902  12.887
65152SOL    HW197289   1.792   0.851  12.968
65152SOL    HW297290   1.882   0.922  12.869
65153SOL     OW97291   5.886  12.049   9.252
65153SOL    HW197292   5.914  11.976   9.307
65153SOL    HW297293   5.961  12.067   9.196
65154SOL     OW97294   2.301  10.969   1.519
65154SOL    HW197295   2.348  11.046   1.486
65154SOL    HW297296   2.278  10.920   1.440
65155SOL     OW97297   6.842   7.582  11.971
65155SOL    HW197298   6.888   7.665  11.961
65155SOL    HW297299   6.770   7.587  11.908
65156SOL     OW97300   0.631   0.902  10.398
65156SOL    HW197301   0.562   0.836  10.389
65156SOL    HW297302   0.625   0.954  10.318
65157SOL     OW97303   3.689  12.165   4.956
65157SOL    HW197304   3.709  12.256   4.977
65157SOL    HW297305   3.757  12.139   4.893
65158SOL     OW97306   4.540   0.242   8.767
65158SOL    HW197307   4.498   0.306   8.710
65158SOL    HW297308   4.633   0.248   8.745
65159SOL     OW97309   0.656   6.670   6.270
65159SOL    HW197310   0.719   6.737   6.296
65159SOL    HW297311   0.576   6.718   6.250
65160SOL     OW97312  10.508   2.063   9.922
65160SOL    HW197313  10.491   2.156   9.905
65160SOL    HW297314  10.531   2.027   9.836
65161SOL     OW97315   7.482  10.412   4.166
65161SOL    HW197316   7.525  10.496   4.152
65161SOL    HW297317   7.515  10.356   4.096
65162SOL     OW97318   5.886   0.886  11.628
65162SOL    HW197319   5.815   0.825  11.613
65162SOL    HW297320   5.852   0.971  11.598
65163SOL     OW97321  11.388   5.702  12.297
65163SOL    HW197322  11.375   5.797  12.291
65163SOL    HW297323  11.417   5.688  12.387
65164SOL     OW97324  12.699   4.203   2.647
65164SOL    HW197325  12.713   4.262   2.573
65164SOL    HW297326  12.620   4.236   2.690
65165SOL     OW97327  13.558  11.018   6.178
65165SOL    HW197328  13.579  10.925   6.165
65165SOL    HW297329  13.622  11.048   6.242
65166SOL     OW97330   4.196   3.433   4.135
65166SOL    HW197331   4.168   3.391   4.216
65166SOL    HW297332   4.121   3.487   4.110
65167SOL     OW97333   0.635   9.916   8.454
65167SOL    HW197334   0.706   9.902   8.517
65167SOL    HW297335   0.583   9.835   8.459
65168SOL     OW97336   1.617   8.003   5.817
65168SOL    HW197337   1.567   7.972   5.892
65168SOL    HW297338   1.551   8.033   5.754
65169SOL     OW97339   4.809   7.638   3.688
65169SOL    HW197340   4.869   7.563   3.685
65169SOL    HW297341   4.825   7.677   3.774
65170SOL     OW97342   4.976   0.490   4.605
65170SOL    HW197343   4.938   0.576   4.587
65170SOL    HW297344   4.958   0.475   4.698
65171SOL     OW97345   6.722  12.369   3.071
65171SOL    HW197346   6.788  12.329   3.014
65171SOL    HW297347   6.644  12.378   3.015
65172SOL     OW97348   9.489   5.536   8.755
65172SOL    HW197349   9.436   5.616   8.755
65172SOL    HW297350   9.426   5.467   8.774
65173SOL     OW97351   4.755   4.208   0.495
65173SOL    HW197352   4.829   4.160   0.532
65173SOL    HW297353   4.728   4.267   0.565
65174SOL     OW97354   1.492   4.656   1.926
65174SOL    HW197355   1.491   4.609   1.842
65174SOL    HW297356   1.441   4.735   1.909
65175SOL     OW97357  11.083  11.494   8.269
65175SOL    HW197358  11.038  11.577   8.256
65175SOL    HW297359  11.103  11.492   8.363
65176SOL     OW97360   2.962   0.803  13.149
65176SOL    HW197361   2.933   0.712  13.139
65176SOL    HW297362   2.981   0.812  13.243
65177SOL     OW97363   2.132   3.913   9.474
65177SOL    HW197364   2.169   3.909   9.562
65177SOL    HW297365   2.061   3.977   9.481
65178SOL     OW97366   2.580   7.452   5.634
65178SOL    HW197367   2.668   7.431   5.666
65178SOL    HW297368   2.541   7.504   5.703
65179SOL     OW97369   2.014   0.267   6.009
65179SOL    HW197370   2.035   0.201   5.943
65179SOL    HW297371   1.974   0.339   5.961
65180SOL     OW97372  10.767  11.446   2.458
65180SOL    HW197373  10.838  11.503   2.488
65180SOL    HW297374  10.710  11.437   2.534
65181SOL     OW97375   4.392   8.460   5.168
65181SOL    HW197376   4.304   8.467   5.131
65181SOL    HW297377   4.379   8.449   5.262
65182SOL     OW97378   1.332   5.044   2.861
65182SOL    HW197379   1.299   4.971   2.808
65182SOL    HW297380   1.399   5.085   2.806
65183SOL     OW97381  10.931   4.515   4.187
65183SOL    HW197382  10.846   4.484   4.219
65183SOL    HW297383  10.981   4.534   4.266
65184SOL     OW97384   1.939  13.551   3.912
65184SOL    HW197385   1.853  13.593   3.911
65184SOL    HW297386   1.921  13.457   3.910
65185SOL     OW97387   6.742  10.711  14.631
65185SOL    HW197388   6.773  10.627  14.596
65185SOL    HW297389   6.772  10.711  14.722
65186SOL     OW97390   0.926   3.513   4.645
65186SOL    HW197391   0.917   3.457   4.721
65186SOL    HW297392   0.904   3.601   4.676
65187SOL     OW97393  10.343   0.099   7.144
65187SOL    HW197394  10.402   0.037   7.186
65187SOL    HW297395  10.274   0.114   7.208
65188SOL     OW97396   2.805   8.498   0.499
65188SOL    HW197397   2.897   8.494   0.526
65188SOL    HW297398   2.797   8.580   0.451
65189SOL     OW97399  10.600   1.122   3.109
65189SOL    HW197400  10.675   1.063   3.106
65189SOL    HW297401  10.523   1.065   3.112
65190SOL     OW97402  10.486  12.435   2.633
65190SOL    HW197403  10.459  12.386   2.556
65190SOL    HW297404  10.561  12.387   2.667
65191SOL     OW97405  11.954  11.924  14.635
65191SOL    HW197406  11.931  11.934  14.727
65191SOL    HW297407  11.871  11.932  14.588
65192SOL     OW97408   6.799   1.096   7.182
65192SOL    HW197409   6.783   1.157   7.254
65192SOL    HW297410   6.853   1.027   7.220
65193SOL     OW97411  12.168   9.422   6.816
65193SOL    HW197412  12.236   9.461   6.871
65193SOL    HW297413  12.086   9.448   6.857
65194SOL     OW97414   5.030   5.158  14.431
65194SOL    HW197415   4.977   5.178  14.355
65194SOL    HW297416   5.069   5.073  14.411
65195SOL     OW97417   0.946  10.488   1.942
65195SOL    HW197418   0.959  10.527   2.028
65195SOL    HW297419   1.013  10.528   1.886
65196SOL     OW97420   8.208   4.679  14.510
65196SOL    HW197421   8.289   4.711  14.470
65196SOL    HW297422   8.141   4.694  14.443
65197SOL     OW97423   3.148   2.577   9.942
65197SOL    HW197424   3.134   2.672   9.940
65197SOL    HW297425   3.097   2.546  10.016
65198SOL     OW97426   6.467  10.790   9.108
65198SOL    HW197427   6.484  10.705   9.067
65198SOL    HW297428   6.384  10.777   9.154
65199SOL     OW97429  14.198   5.393   2.716
65199SOL    HW197430  14.238   5.475   2.747
65199SOL    HW297431  14.266   5.352   2.663
65200SOL     OW97432   2.840  12.000  13.903
65200SOL    HW197433   2.890  11.991  13.984
65200SOL    HW297434   2.767  12.058  13.926
65201SOL     OW97435  13.629   0.023   8.328
65201SOL    HW197436  13.625   0.002   8.234
65201SOL    HW297437  13.642  14.817   8.371
65202SOL     OW97438   7.162   5.132  12.688
65202SOL    HW197439   7.116   5.076  12.751
65202SOL    HW297440   7.195   5.072  12.622
65203SOL     OW97441   5.127   2.189   6.471
65203SOL    HW197442   5.222   2.176   6.465
65203SOL    HW297443   5.114   2.240   6.551
65204SOL     OW97444  14.448   5.190  10.165
65204SOL    HW197445  14.457   5.107  10.119
65204SOL    HW297446  14.519   5.189  10.230
65205SOL     OW97447  10.546   4.744  14.832
65205SOL    HW197448  10.545   4.662  14.783
65205SOL    HW297449  10.603   4.727   0.028
65206SOL     OW97450   6.111   6.915   5.088
65206SOL    HW197451   6.124   6.886   5.178
65206SOL    HW297452   6.177   6.867   5.038
65207SOL     OW97453  13.715   2.969   9.942
65207SOL    HW197454  13.807   2.987   9.961
65207SOL    HW297455  13.708   2.980   9.847
65208SOL     OW97456   6.391   4.674   6.886
65208SOL    HW197457   6.422   4.724   6.811
65208SOL    HW297458   6.456   4.605   6.898
65209SOL     OW97459  14.639   8.079   6.773
65209SOL    HW197460  14.717   8.116   6.732
65209SOL    HW297461  14.592   8.036   6.702
65210SOL     OW97462  13.395  11.073   3.568
65210SOL    HW197463  13.490  11.077   3.566
65210SOL    HW297464  13.373  11.070   3.661
65211SOL     OW97465  11.222   8.297  14.202
65211SOL    HW197466  11.310   8.274  14.172
65211SOL    HW297467  11.233   8.380  14.249
65212SOL     OW97468   1.152   3.047  12.428
65212SOL    HW197469   1.056   3.044  12.429
65212SOL    HW297470   1.172   3.139  12.448
65213SOL     OW97471   0.193  12.388  10.744
65213SOL    HW197472   0.131  12.411  10.675
65213SOL    HW297473   0.191  12.292  10.746
65214SOL     OW97474   4.923   8.430   9.268
65214SOL    HW197475   4.974   8.385   9.201
65214SOL    HW297476   4.986   8.451   9.337
65215SOL     OW97477   5.311   3.654   1.183
65215SOL    HW197478   5.251   3.605   1.240
65215SOL    HW297479   5.342   3.727   1.238
65216SOL     OW97480   0.176   5.405   9.546
65216SOL    HW197481   0.154   5.432   9.457
65216SOL    HW297482   0.243   5.467   9.574
65217SOL     OW97483   6.038   3.772  11.288
65217SOL    HW197484   6.074   3.685  11.272
65217SOL    HW297485   6.111   3.832  11.272
65218SOL     OW97486  13.877   1.367  12.418
65218SOL    HW197487  13.846   1.310  12.347
65218SOL    HW297488  13.799   1.383  12.471
65219SOL     OW97489   7.335   7.360  12.686
65219SOL    HW197490   7.295   7.447  12.693
65219SOL    HW297491   7.308   7.327  12.601
65220SOL     OW97492   4.774   8.201   5.194
65220SOL    HW197493   4.808   8.290   5.186
65220SOL    HW297494   4.685   8.207   5.159
65221SOL     OW97495  12.921   1.335  12.468
65221SOL    HW197496  12.970   1.279  12.408
65221SOL    HW297497  12.989   1.376  12.523
65222SOL     OW97498  13.256   7.848   2.381
65222SOL    HW197499  13.326   7.900   2.339
65222SOL    HW297500  13.181   7.907   2.381
65223SOL     OW97501  10.158  14.233   3.093
65223SOL    HW197502  10.138  14.225   3.186
65223SOL    HW297503  10.246  14.271   3.090
65224SOL     OW97504  12.456   1.437  10.228
65224SOL    HW197505  12.403   1.400  10.298
65224SOL    HW297506  12.529   1.375  10.218
65225SOL     OW97507  12.428  11.475   7.197
65225SOL    HW197508  12.512  11.431   7.208
65225SOL    HW297509  12.365  11.404   7.184
65226SOL     OW97510   9.796   5.881   8.257
65226SOL    HW197511   9.885   5.900   8.228
65226SOL    HW297512   9.807   5.843   8.344
65227SOL     OW97513   7.957   2.442  11.299
65227SOL    HW197514   7.921   2.403  11.378
65227SOL    HW297515   8.042   2.476  11.325
65228SOL     OW97516  11.347   9.558   6.981
65228SOL    HW197517  11.343   9.468   6.950
65228SOL    HW297518  11.345   9.611   6.901
65229SOL     OW97519   1.613   5.672   4.349
65229SOL    HW197520   1.600   5.738   4.418
65229SOL    HW297521   1.640   5.593   4.396
65230SOL     OW97522   3.685   9.169   0.804
65230SOL    HW197523   3.700   9.209   0.890
65230SOL    HW297524   3.727   9.229   0.742
65231SOL     OW97525  11.662   4.721   6.360
65231SOL    HW197526  11.696   4.751   6.444
65231SOL    HW297527  11.681   4.627   6.358
65232SOL     OW97528   3.360   0.832   6.789
65232SOL    HW197529   3.338   0.867   6.702
65232SOL    HW297530   3.322   0.895   6.850
65233SOL     OW97531   6.684   6.824  13.695
65233SOL    HW197532   6.722   6.903  13.655
65233SOL    HW297533   6.746   6.755  13.674
65234SOL     OW97534   2.665  12.801  11.018
65234SOL    HW197535   2.661  12.706  11.008
65234SOL    HW297536   2.680  12.814  11.112
65235SOL     OW97537  12.889  10.407  10.768
65235SOL    HW197538  12.899  10.442  10.679
65235SOL    HW297539  12.978  10.404  10.803
65236SOL     OW97540  12.146   9.563  13.524
65236SOL    HW197541  12.071   9.506  13.506
65236SOL    HW297542  12.111   9.652  13.518
65237SOL     OW97543   9.262  12.740  12.779
65237SOL    HW197544   9.285  12.718  12.869
65237SOL    HW297545   9.253  12.656  12.735
65238SOL     OW97546   3.412  12.177   2.596
65238SOL    HW197547   3.427  12.243   2.663
65238SOL    HW297548   3.335  12.129   2.626
65239SOL     OW97549  10.876  10.337   1.840
65239SOL    HW197550  10.864  10.243   1.849
65239SOL    HW297551  10.790  10.369   1.811
65240SOL     OW97552  12.963   5.496  14.195
65240SOL    HW197553  12.977   5.402  14.210
65240SOL    HW297554  13.043   5.525  14.151
65241SOL     OW97555   5.488   5.023  11.593
65241SOL    HW197556   5.411   4.982  11.554
65241SOL    HW297557   5.560   4.999  11.535
65242SOL     OW97558   4.854   7.178   9.344
65242SOL    HW197559   4.914   7.146   9.277
65242SOL    HW297560   4.843   7.105   9.404
65243SOL     OW97561  13.471   6.930   4.523
65243SOL    HW197562  13.422   6.849   4.533
65243SOL    HW297563  13.496   6.955   4.612
65244SOL     OW97564   3.595  12.229  14.171
65244SOL    HW197565   3.504  12.246  14.146
65244SOL    HW297566   3.597  12.135  14.190
65245SOL     OW97567   4.707  10.394   5.324
65245SOL    HW197568   4.744  10.463   5.269
65245SOL    HW297569   4.769  10.322   5.318
65246SOL     OW97570   3.977   5.494   8.643
65246SOL    HW197571   3.917   5.495   8.718
65246SOL    HW297572   3.991   5.401   8.625
65247SOL     OW97573   4.879   3.457  11.404
65247SOL    HW197574   4.796   3.499  11.383
65247SOL    HW297575   4.921   3.517  11.466
65248SOL     OW97576  12.496   6.270  14.796
65248SOL    HW197577  12.507   6.205  14.726
65248SOL    HW297578  12.508   6.354  14.751
65249SOL     OW97579   4.693  11.209  14.245
65249SOL    HW197580   4.627  11.155  14.288
65249SOL    HW297581   4.705  11.167  14.159
65250SOL     OW97582  10.958   1.651   1.157
65250SOL    HW197583  10.889   1.602   1.201
65250SOL    HW297584  11.038   1.602   1.177
65251SOL     OW97585  11.158  11.601   3.562
65251SOL    HW197586  11.209  11.522   3.580
65251SOL    HW297587  11.153  11.646   3.647
65252SOL     OW97588   0.989   2.686   8.024
65252SOL    HW197589   0.943   2.765   8.000
65252SOL    HW297590   1.050   2.670   7.952
65253SOL     OW97591   8.802   5.491  12.933
65253SOL    HW197592   8.783   5.408  12.889
65253SOL    HW297593   8.882   5.521  12.891
65254SOL     OW97594   9.736   8.970   2.193
65254SOL    HW197595   9.714   8.973   2.286
65254SOL    HW297596   9.729   8.877   2.170
65255SOL     OW97597   9.557  13.773   4.041
65255SOL    HW197598   9.601  13.688   4.036
65255SOL    HW297599   9.593  13.814   4.120
65256SOL     OW97600   1.041   0.567   5.881
65256SOL    HW197601   0.973   0.513   5.841
65256SOL    HW297602   1.022   0.656   5.851
65257SOL     OW97603   1.948   0.431   6.670
65257SOL    HW197604   1.997   0.505   6.706
65257SOL    HW297605   1.886   0.407   6.739
65258SOL     OW97606  11.133   4.389  12.325
65258SOL    HW197607  11.052   4.440  12.316
65258SOL    HW297608  11.198   4.454  12.352
65259SOL     OW97609   7.739  13.274   5.409
65259SOL    HW197610   7.797  13.242   5.340
65259SOL    HW297611   7.673  13.326   5.362
65260SOL     OW97612   5.022   1.253  12.573
65260SOL    HW197613   5.033   1.210  12.488
65260SOL    HW297614   5.081   1.205  12.632
65261SOL     OW97615   1.608   4.873  12.280
65261SOL    HW197616   1.590   4.963  12.252
65261SOL    HW297617   1.599   4.821  12.200
65262SOL     OW97618   7.422  13.003   0.132
65262SOL    HW197619   7.457  13.089   0.153
65262SOL    HW297620   7.332  13.006   0.165
65263SOL     OW97621  14.046   3.721  12.015
65263SOL    HW197622  14.071   3.667  12.089
65263SOL    HW297623  14.062   3.811  12.044
65264SOL     OW97624   7.580   7.377   0.784
65264SOL    HW197625   7.667   7.340   0.799
65264SOL    HW297626   7.562   7.360   0.691
65265SOL     OW97627   6.086   2.007   3.161
65265SOL    HW197628   6.094   2.009   3.066
65265SOL    HW297629   6.161   2.058   3.192
65266SOL     OW97630  13.139  14.524   8.299
65266SOL    HW197631  13.106  14.466   8.366
65266SOL    HW297632  13.085  14.505   8.222
65267SOL     OW97633   3.657  12.054  14.443
65267SOL    HW197634   3.580  12.020  14.398
65267SOL    HW297635   3.729  11.997  14.416
65268SOL     OW97636  12.991   1.838  10.820
65268SOL    HW197637  13.073   1.815  10.864
65268SOL    HW297638  12.929   1.854  10.892
65269SOL     OW97639   3.876   5.462  10.347
65269SOL    HW197640   3.940   5.406  10.390
65269SOL    HW297641   3.825   5.403  10.291
65270SOL     OW97642  13.040  14.045  10.260
65270SOL    HW197643  12.993  14.101  10.198
65270SOL    HW297644  13.020  13.956  10.231
65271SOL     OW97645   9.985   7.501   8.915
65271SOL    HW197646   9.922   7.461   8.854
65271SOL    HW297647  10.056   7.531   8.859
65272SOL     OW97648   5.434  14.095  11.166
65272SOL    HW197649   5.463  14.060  11.251
65272SOL    HW297650   5.514  14.132  11.128
65273SOL     OW97651   8.971  11.601   0.210
65273SOL    HW197652   8.937  11.532   0.153
65273SOL    HW297653   9.061  11.574   0.229
65274SOL     OW97654  11.146   6.711   2.135
65274SOL    HW197655  11.166   6.618   2.143
65274SOL    HW297656  11.109   6.735   2.220
65275SOL     OW97657  11.944  12.130   4.897
65275SOL    HW197658  11.922  12.078   4.974
65275SOL    HW297659  11.905  12.082   4.824
65276SOL     OW97660   7.999  13.918  11.028
65276SOL    HW197661   7.939  13.892  10.959
65276SOL    HW297662   8.062  13.846  11.033
65277SOL     OW97663   0.697   0.808   4.966
65277SOL    HW197664   0.749   0.887   4.953
65277SOL    HW297665   0.733   0.768   5.045
65278SOL     OW97666   3.207  14.724  12.416
65278SOL    HW197667   3.120  14.714  12.455
65278SOL    HW297668   3.200  14.679  12.331
65279SOL     OW97669  12.019   1.583   0.409
65279SOL    HW197670  12.043   1.624   0.326
65279SOL    HW297671  11.939   1.534   0.389
65280SOL     OW97672  11.513   8.857  11.713
65280SOL    HW197673  11.607   8.874  11.725
65280SOL    HW297674  11.510   8.782  11.654
65281SOL     OW97675  13.197   7.898   1.656
65281SOL    HW197676  13.241   7.955   1.720
65281SOL    HW297677  13.198   7.948   1.575
65282SOL     OW97678   5.971   3.115  10.415
65282SOL    HW197679   5.938   3.030  10.388
65282SOL    HW297680   5.988   3.106  10.509
65283SOL     OW97681   3.318   2.584   3.885
65283SOL    HW197682   3.284   2.669   3.913
65283SOL    HW297683   3.328   2.535   3.967
65284SOL     OW97684   5.591   0.867   5.621
65284SOL    HW197685   5.683   0.889   5.636
65284SOL    HW297686   5.545   0.949   5.638
65285SOL     OW97687   7.420   5.713   1.490
65285SOL    HW197688   7.480   5.639   1.490
65285SOL    HW297689   7.471   5.785   1.528
65286SOL     OW97690  10.444  12.064  14.555
65286SOL    HW197691  10.443  11.969  14.567
65286SOL    HW297692  10.498  12.097  14.627
65287SOL     OW97693   0.516   3.530   6.950
65287SOL    HW197694   0.544   3.595   7.015
65287SOL    HW297695   0.442   3.486   6.992
65288SOL     OW97696  12.563   1.160  12.975
65288SOL    HW197697  12.565   1.237  12.919
65288SOL    HW297698  12.472   1.155  13.006
65289SOL     OW97699   2.441   8.335  10.339
65289SOL    HW197700   2.489   8.286  10.405
65289SOL    HW297701   2.349   8.325  10.364
65290SOL     OW97702  13.760  13.392   3.872
65290SOL    HW197703  13.818  13.438   3.932
65290SOL    HW297704  13.684  13.370   3.925
65291SOL     OW97705   6.517   6.437   3.847
65291SOL    HW197706   6.556   6.400   3.926
65291SOL    HW297707   6.589   6.486   3.806
65292SOL     OW97708  13.374   7.701   0.132
65292SOL    HW197709  13.360   7.716   0.225
65292SOL    HW297710  13.454   7.648   0.127
65293SOL     OW97711   6.487   4.098   0.600
65293SOL    HW197712   6.397   4.085   0.572
65293SOL    HW297713   6.531   4.016   0.580
65294SOL     OW97714   0.639  11.349   7.143
65294SOL    HW197715   0.569  11.325   7.205
65294SOL    HW297716   0.616  11.303   7.062
65295SOL     OW97717   8.792  12.453  13.177
65295SOL    HW197718   8.751  12.426  13.259
65295SOL    HW297719   8.737  12.524  13.144
65296SOL     OW97720   8.430  13.349   8.426
65296SOL    HW197721   8.379  13.426   8.450
65296SOL    HW297722   8.426  13.292   8.502
65297SOL     OW97723   8.678  10.322  11.955
65297SOL    HW197724   8.737  10.383  11.999
65297SOL    HW297725   8.644  10.267  12.026
65298SOL     OW97726  14.742  13.781   4.979
65298SOL    HW197727  14.816  13.785   5.040
65298SOL    HW297728  14.666  13.803   5.033
65299SOL     OW97729   8.655   3.981   6.389
65299SOL    HW197730   8.723   4.030   6.435
65299SOL    HW297731   8.675   3.889   6.407
65300SOL     OW97732  12.429   0.943   1.324
65300SOL    HW197733  12.515   0.962   1.363
65300SOL    HW297734  12.382   1.027   1.329
65301SOL     OW97735   4.181   8.096   0.431
65301SOL    HW197736   4.223   8.170   0.476
65301SOL    HW297737   4.166   8.031   0.500
65302SOL     OW97738   8.076   1.670   7.327
65302SOL    HW197739   8.146   1.663   7.263
65302SOL    HW297740   8.105   1.615   7.401
65303SOL     OW97741  12.735   1.308   4.545
65303SOL    HW197742  12.787   1.233   4.576
65303SOL    HW297743  12.644   1.282   4.560
65304SOL     OW97744  14.729   6.755   0.576
65304SOL    HW197745  14.771   6.766   0.491
65304SOL    HW297746  14.660   6.820   0.578
65305SOL     OW97747  11.946   9.242   1.899
65305SOL    HW197748  11.869   9.235   1.843
65305SOL    HW297749  11.974   9.333   1.891
65306SOL     OW97750   7.832  14.592   4.707
65306SOL    HW197751   7.766  14.544   4.657
65306SOL    HW297752   7.799  14.592   4.797
65307SOL     OW97753   0.780   4.009   2.505
65307SOL    HW197754   0.689   4.030   2.486
65307SOL    HW297755   0.781   3.989   2.599
65308SOL     OW97756  11.241  12.788   3.029
65308SOL    HW197757  11.325  12.801   2.985
65308SOL    HW297758  11.253  12.710   3.083
65309SOL     OW97759   3.878  10.364   7.286
65309SOL    HW197760   3.926  10.291   7.326
65309SOL    HW297761   3.813  10.388   7.351
65310SOL     OW97762   3.667   0.123   1.961
65310SOL    HW197763   3.705   0.210   1.971
65310SOL    HW297764   3.573   0.137   1.960
65311SOL     OW97765   2.729   0.189   3.519
65311SOL    HW197766   2.697   0.275   3.546
65311SOL    HW297767   2.741   0.196   3.424
65312SOL     OW97768  13.561  10.311  12.462
65312SOL    HW197769  13.505  10.382  12.494
65312SOL    HW297770  13.524  10.288  12.377
65313SOL     OW97771   6.498   0.086   8.785
65313SOL    HW197772   6.436   0.024   8.823
65313SOL    HW297773   6.584   0.051   8.810
65314SOL     OW97774   6.550   8.882  14.541
65314SOL    HW197775   6.501   8.800  14.534
65314SOL    HW297776   6.485   8.946  14.568
65315SOL     OW97777   5.794   0.664  14.783
65315SOL    HW197778   5.873   0.706  14.817
65315SOL    HW297779   5.737   0.737  14.758
65316SOL     OW97780   3.841  11.721   7.263
65316SOL    HW197781   3.895  11.794   7.232
65316SOL    HW297782   3.826  11.740   7.356
65317SOL     OW97783  11.806   6.416   7.713
65317SOL    HW197784  11.847   6.436   7.797
65317SOL    HW297785  11.713   6.413   7.732
65318SOL     OW97786  12.323  12.262   8.394
65318SOL    HW197787  12.245  12.229   8.440
65318SOL    HW297788  12.332  12.352   8.425
65319SOL     OW97789  13.898   9.409   5.278
65319SOL    HW197790  13.826   9.466   5.251
65319SOL    HW297791  13.889   9.403   5.374
65320SOL     OW97792   9.012   9.580   2.622
65320SOL    HW197793   8.976   9.647   2.681
65320SOL    HW297794   9.104   9.602   2.615
65321SOL     OW97795   0.864   1.544   7.338
65321SOL    HW197796   0.933   1.549   7.404
65321SOL    HW297797   0.861   1.452   7.312
65322SOL     OW97798   4.771   8.653   6.140
65322SOL    HW197799   4.792   8.577   6.086
65322SOL    HW297800   4.856   8.686   6.169
65323SOL     OW97801   9.148   7.756   2.029
65323SOL    HW197802   9.112   7.842   2.049
65323SOL    HW297803   9.151   7.711   2.114
65324SOL     OW97804   2.451  14.012   3.005
65324SOL    HW197805   2.521  13.999   2.941
65324SOL    HW297806   2.414  13.924   3.018
65325SOL     OW97807   9.973   4.126  11.178
65325SOL    HW197808  10.008   4.186  11.112
65325SOL    HW297809   9.994   4.166  11.262
65326SOL     OW97810  11.636   6.003   6.302
65326SOL    HW197811  11.562   5.974   6.354
65326SOL    HW297812  11.712   5.987   6.359
65327SOL     OW97813  14.404   7.624   4.417
65327SOL    HW197814  14.493   7.610   4.451
65327SOL    HW297815  14.388   7.549   4.360
65328SOL     OW97816  14.403   1.689  12.689
65328SOL    HW197817  14.328   1.747  12.678
65328SOL    HW297818  14.473   1.730  12.638
65329SOL     OW97819  10.759  12.944   2.797
65329SOL    HW197820  10.709  12.950   2.716
65329SOL    HW297821  10.698  12.907   2.861
65330SOL     OW97822   4.198   6.293   1.896
65330SOL    HW197823   4.158   6.379   1.885
65330SOL    HW297824   4.162   6.260   1.979
65331SOL     OW97825  10.449   9.209   2.632
65331SOL    HW197826  10.505   9.141   2.669
65331SOL    HW297827  10.375   9.214   2.692
65332SOL     OW97828   5.399   0.609   2.013
65332SOL    HW197829   5.478   0.573   1.971
65332SOL    HW297830   5.432   0.675   2.073
65333SOL     OW97831   3.350   5.220  10.434
65333SOL    HW197832   3.296   5.209  10.356
65333SOL    HW297833   3.333   5.310  10.463
65334SOL     OW97834   7.189  13.203  13.789
65334SOL    HW197835   7.105  13.246  13.777
65334SOL    HW297836   7.171  13.110  13.776
65335SOL     OW97837  10.800   6.178   8.712
65335SOL    HW197838  10.751   6.211   8.637
65335SOL    HW297839  10.734   6.135   8.767
65336SOL     OW97840  12.701   6.816   8.738
65336SOL    HW197841  12.763   6.835   8.667
65336SOL    HW297842  12.757   6.794   8.813
65337SOL     OW97843  11.372   1.845  10.016
65337SOL    HW197844  11.293   1.825  10.066
65337SOL    HW297845  11.383   1.939  10.025
65338SOL     OW97846   7.664   2.689   3.446
65338SOL    HW197847   7.725   2.730   3.508
65338SOL    HW297848   7.580   2.729   3.465
65339SOL     OW97849  10.257   3.664  11.661
65339SOL    HW197850  10.283   3.696  11.575
65339SOL    HW297851  10.324   3.600  11.684
65340SOL     OW97852   2.285   4.442   3.127
65340SOL    HW197853   2.353   4.488   3.177
65340SOL    HW297854   2.320   4.439   3.037
65341SOL     OW97855   1.215   8.244   7.975
65341SOL    HW197856   1.245   8.177   7.913
65341SOL    HW297857   1.154   8.298   7.924
65342SOL     OW97858   8.952  11.046   5.551
65342SOL    HW197859   8.935  11.000   5.633
65342SOL    HW297860   8.867  11.048   5.507
65343SOL     OW97861   5.440   7.782  11.606
65343SOL    HW197862   5.465   7.739  11.688
65343SOL    HW297863   5.350   7.811  11.622
65344SOL     OW97864   0.889   4.031  14.178
65344SOL    HW197865   0.872   4.009  14.270
65344SOL    HW297866   0.956   3.969  14.150
65345SOL     OW97867   8.613   3.698   0.127
65345SOL    HW197868   8.696   3.737   0.154
65345SOL    HW297869   8.548   3.737   0.186
65346SOL     OW97870   8.586   5.952  14.107
65346SOL    HW197871   8.565   5.866  14.144
65346SOL    HW297872   8.539   5.954  14.024
65347SOL     OW97873   0.448   1.952   1.545
65347SOL    HW197874   0.435   1.956   1.450
65347SOL    HW297875   0.500   1.873   1.559
65348SOL     OW97876  13.790  10.305  11.786
65348SOL    HW197877  13.715  10.273  11.735
65348SOL    HW297878  13.822  10.380  11.736
65349SOL     OW97879  14.190   3.727  14.871
65349SOL    HW197880  14.270   3.702  14.824
65349SOL    HW297881  14.188   3.822  14.867
65350SOL     OW97882   0.254   2.390  12.043
65350SOL    HW197883   0.204   2.312  12.020
65350SOL    HW297884   0.336   2.381  11.996
65351SOL     OW97885   6.934   6.012   4.339
65351SOL    HW197886   6.960   5.926   4.307
65351SOL    HW297887   6.876   5.994   4.413
65352SOL     OW97888   8.645   5.052   8.207
65352SOL    HW197889   8.613   4.988   8.142
65352SOL    HW297890   8.683   5.122   8.154
65353SOL     OW97891   0.870   0.332  14.679
65353SOL    HW197892   0.918   0.314  14.599
65353SOL    HW297893   0.791   0.378  14.650
65354SOL     OW97894  11.290  13.146   7.481
65354SOL    HW197895  11.302  13.069   7.537
65354SOL    HW297896  11.304  13.113   7.392
65355SOL     OW97897  13.417   9.993  11.871
65355SOL    HW197898  13.421   9.939  11.792
65355SOL    HW297899  13.325   9.995  11.894
65356SOL     OW97900   9.844  11.978   2.578
65356SOL    HW197901   9.842  11.901   2.520
65356SOL    HW297902   9.840  11.941   2.666
65357SOL     OW97903   0.308   9.322   2.835
65357SOL    HW197904   0.350   9.346   2.918
65357SOL    HW297905   0.323   9.228   2.828
65358SOL     OW97906   6.532   4.382   4.062
65358SOL    HW197907   6.497   4.448   4.123
65358SOL    HW297908   6.523   4.299   4.109
65359SOL     OW97909   9.540  10.019   1.318
65359SOL    HW197910   9.454   9.975   1.316
65359SOL    HW297911   9.547  10.053   1.407
65360SOL     OW97912   1.766  14.649   5.706
65360SOL    HW197913   1.742  14.557   5.697
65360SOL    HW297914   1.840  14.649   5.767
65361SOL     OW97915   7.556   8.279   3.188
65361SOL    HW197916   7.510   8.362   3.174
65361SOL    HW297917   7.506   8.235   3.256
65362SOL     OW97918   7.160   5.164  11.050
65362SOL    HW197919   7.136   5.244  11.096
65362SOL    HW297920   7.184   5.102  11.119
65363SOL     OW97921   4.273  14.104   9.140
65363SOL    HW197922   4.359  14.103   9.097
65363SOL    HW297923   4.253  14.196   9.151
65364SOL     OW97924  10.224  12.873   4.993
65364SOL    HW197925  10.246  12.950   4.940
65364SOL    HW297926  10.265  12.890   5.077
65365SOL     OW97927  11.544   2.162   1.209
65365SOL    HW197928  11.528   2.072   1.183
65365SOL    HW297929  11.471   2.184   1.267
65366SOL     OW97930   6.764   9.332   6.061
65366SOL    HW197931   6.693   9.372   6.010
65366SOL    HW297932   6.832   9.399   6.062
65367SOL     OW97933  10.826  11.012  14.428
65367SOL    HW197934  10.773  11.077  14.381
65367SOL    HW297935  10.869  11.063  14.497
65368SOL     OW97936   7.166  11.532   8.662
65368SOL    HW197937   7.154  11.627   8.660
65368SOL    HW297938   7.141  11.506   8.750
65369SOL     OW97939  10.062  12.376  13.613
65369SOL    HW197940   9.976  12.417  13.614
65369SOL    HW297941  10.045  12.283  13.602
65370SOL     OW97942   5.102   6.393   2.880
65370SOL    HW197943   5.072   6.417   2.792
65370SOL    HW297944   5.038   6.434   2.939
65371SOL     OW97945  10.260   3.844   3.930
65371SOL    HW197946  10.258   3.782   3.857
65371SOL    HW297947  10.172   3.839   3.968
65372SOL     OW97948   2.313  12.332   0.401
65372SOL    HW197949   2.311  12.396   0.472
65372SOL    HW297950   2.220  12.312   0.384
65373SOL     OW97951   6.629   9.432  11.373
65373SOL    HW197952   6.684   9.471  11.305
65373SOL    HW297953   6.551   9.488  11.376
65374SOL     OW97954   0.416   0.346  10.091
65374SOL    HW197955   0.507   0.324  10.112
65374SOL    HW297956   0.419   0.372   9.999
65375SOL     OW97957  13.824  10.627   6.612
65375SOL    HW197958  13.854  10.609   6.523
65375SOL    HW297959  13.736  10.662   6.601
65376SOL     OW97960  14.182  13.147  12.834
65376SOL    HW197961  14.183  13.212  12.904
65376SOL    HW297962  14.114  13.085  12.860
65377SOL     OW97963   1.304  10.106   7.627
65377SOL    HW197964   1.348  10.102   7.712
65377SOL    HW297965   1.284  10.015   7.606
65378SOL     OW97966   2.932  14.192  12.500
65378SOL    HW197967   3.008  14.197  12.559
65378SOL    HW297968   2.871  14.258  12.535
65379SOL     OW97969  10.611   6.252  13.560
65379SOL    HW197970  10.669   6.178  13.580
65379SOL    HW297971  10.523   6.215  13.557
65380SOL     OW97972   1.500   6.595   3.887
65380SOL    HW197973   1.515   6.520   3.945
65380SOL    HW297974   1.553   6.576   3.810
65381SOL     OW97975   5.031   4.039   0.170
65381SOL    HW197976   5.053   4.093   0.246
65381SOL    HW297977   5.087   4.072   0.100
65382SOL     OW97978   9.680   2.978  12.400
65382SOL    HW197979   9.669   3.063  12.357
65382SOL    HW297980   9.773   2.974  12.423
65383SOL     OW97981  10.419   6.012  13.219
65383SOL    HW197982  10.482   5.941  13.233
65383SOL    HW297983  10.472   6.085  13.185
65384SOL     OW97984   1.320   2.900   1.144
65384SOL    HW197985   1.298   2.897   1.050
65384SOL    HW297986   1.399   2.846   1.151
65385SOL     OW97987  11.869  14.769   1.874
65385SOL    HW197988  11.881  14.674   1.884
65385SOL    HW297989  11.827  14.797   1.955
65386SOL     OW97990   1.327  14.486   8.235
65386SOL    HW197991   1.311  14.397   8.267
65386SOL    HW297992   1.419  14.503   8.257
65387SOL     OW97993  12.722  12.101   2.963
65387SOL    HW197994  12.684  12.113   3.051
65387SOL    HW297995  12.647  12.078   2.908
65388SOL     OW97996   8.764   7.730  11.840
65388SOL    HW197997   8.777   7.641  11.872
65388SOL    HW297998   8.674   7.751  11.863
65389SOL     OW97999   5.118   8.305   5.459
65389SOL    HW198000   5.188   8.261   5.411
65389SOL    HW298001   5.043   8.247   5.450
65390SOL     OW98002   8.264  13.560   1.874
65390SOL    HW198003   8.192  13.515   1.829
65390SOL    HW298004   8.338  13.500   1.867
65391SOL     OW98005   0.306  12.120  12.654
65391SOL    HW198006   0.261  12.071  12.722
65391SOL    HW298007   0.388  12.072  12.640
65392SOL     OW98008  14.092  11.451   9.570
65392SOL    HW198009  14.026  11.520   9.566
65392SOL    HW298010  14.090  11.412   9.482
65393SOL     OW98011   5.393  12.751   7.829
65393SOL    HW198012   5.462  12.688   7.850
65393SOL    HW298013   5.382  12.802   7.909
65394SOL     OW98014   4.325   6.545  10.373
65394SOL    HW198015   4.338   6.457  10.339
65394SOL    HW298016   4.413   6.573  10.401
65395SOL     OW98017  13.498   4.876  10.855
65395SOL    HW198018  13.430   4.942  10.867
65395SOL    HW298019  13.580   4.924  10.863
65396SOL     OW98020  14.758  12.858   7.962
65396SOL    HW198021  14.713  12.780   7.994
65396SOL    HW298022  14.764  12.845   7.867
65397SOL     OW98023   9.127   0.751   8.393
65397SOL    HW198024   9.211   0.728   8.432
65397SOL    HW298025   9.110   0.682   8.329
65398SOL     OW98026   6.197   0.404   1.869
65398SOL    HW198027   6.166   0.493   1.886
65398SOL    HW298028   6.183   0.392   1.775
65399SOL     OW98029   3.363   8.855  12.955
65399SOL    HW198030   3.371   8.780  12.897
65399SOL    HW298031   3.317   8.921  12.904
65400SOL     OW98032   5.142   9.776  13.022
65400SOL    HW198033   5.061   9.770  13.072
65400SOL    HW298034   5.121   9.835  12.950
65401SOL     OW98035  10.672   5.819   8.671
65401SOL    HW198036  10.615   5.822   8.748
65401SOL    HW298037  10.640   5.743   8.621
65402SOL     OW98038  14.542   8.504   1.426
65402SOL    HW198039  14.545   8.453   1.344
65402SOL    HW298040  14.612   8.466   1.479
65403SOL     OW98041  12.397   5.188   3.205
65403SOL    HW198042  12.408   5.233   3.121
65403SOL    HW298043  12.307   5.156   3.204
65404SOL     OW98044  13.269   3.899   4.028
65404SOL    HW198045  13.216   3.921   4.105
65404SOL    HW298046  13.289   3.984   3.988
65405SOL     OW98047  12.711  10.275  14.040
65405SOL    HW198048  12.768  10.323  14.100
65405SOL    HW298049  12.672  10.343  13.985
65406SOL     OW98050  10.543   5.345  12.035
65406SOL    HW198051  10.516   5.378  11.950
65406SOL    HW298052  10.636   5.324  12.024
65407SOL     OW98053   2.619   7.687   2.875
65407SOL    HW198054   2.652   7.600   2.849
65407SOL    HW298055   2.524   7.680   2.864
65408SOL     OW98056   8.928  14.219   0.532
65408SOL    HW198057   8.923  14.287   0.465
65408SOL    HW298058   8.997  14.248   0.592
65409SOL     OW98059   5.737  12.824   3.399
65409SOL    HW198060   5.672  12.772   3.350
65409SOL    HW298061   5.690  12.855   3.476
65410SOL     OW98062   9.982   1.894   6.327
65410SOL    HW198063  10.038   1.852   6.393
65410SOL    HW298064   9.971   1.828   6.259
65411SOL     OW98065   4.602   6.483  12.473
65411SOL    HW198066   4.664   6.501  12.544
65411SOL    HW298067   4.518   6.516  12.505
65412SOL     OW98068  10.548  11.414  14.511
65412SOL    HW198069  10.554  11.501  14.471
65412SOL    HW298070  10.554  11.353  14.437
65413SOL     OW98071  11.905   5.316   5.100
65413SOL    HW198072  11.845   5.262   5.150
65413SOL    HW298073  11.991   5.296   5.136
65414SOL     OW98074   3.738   0.089   0.810
65414SOL    HW198075   3.781   0.154   0.754
65414SOL    HW298076   3.799   0.016   0.813
65415SOL     OW98077   4.767   3.550  11.880
65415SOL    HW198078   4.738   3.615  11.944
65415SOL    HW298079   4.699   3.549  11.814
65416SOL     OW98080   6.533   5.339  12.276
65416SOL    HW198081   6.508   5.431  12.277
65416SOL    HW298082   6.607   5.335  12.215
65417SOL     OW98083   1.762   6.312   8.871
65417SOL    HW198084   1.796   6.239   8.921
65417SOL    HW298085   1.741   6.275   8.785
65418SOL     OW98086   8.479   4.556   6.685
65418SOL    HW198087   8.419   4.567   6.611
65418SOL    HW298088   8.548   4.499   6.652
65419SOL     OW98089   4.290   5.856   5.961
65419SOL    HW198090   4.259   5.778   5.916
65419SOL    HW298091   4.374   5.876   5.920
65420SOL     OW98092   4.602  11.610   3.230
65420SOL    HW198093   4.661  11.557   3.284
65420SOL    HW298094   4.515  11.598   3.270
65421SOL     OW98095   9.649  12.870   3.195
65421SOL    HW198096   9.712  12.942   3.199
65421SOL    HW298097   9.576  12.906   3.144
65422SOL     OW98098  12.357   4.380   1.021
65422SOL    HW198099  12.266   4.362   1.047
65422SOL    HW298100  12.400   4.295   1.025
65423SOL     OW98101   2.175   6.332   5.360
65423SOL    HW198102   2.134   6.398   5.416
65423SOL    HW298103   2.144   6.353   5.272
65424SOL     OW98104  12.698   1.420  10.676
65424SOL    HW198105  12.761   1.371  10.730
65424SOL    HW298106  12.752   1.461  10.608
65425SOL     OW98107  12.440   9.949   0.425
65425SOL    HW198108  12.378   9.971   0.495
65425SOL    HW298109  12.450  10.030   0.376
65426SOL     OW98110   0.503   3.611   0.136
65426SOL    HW198111   0.588   3.632   0.174
65426SOL    HW298112   0.505   3.516   0.124
65427SOL     OW98113   5.664   3.118   9.794
65427SOL    HW198114   5.638   3.194   9.845
65427SOL    HW298115   5.755   3.135   9.770
65428SOL     OW98116   5.261   6.325  12.632
65428SOL    HW198117   5.225   6.246  12.591
65428SOL    HW298118   5.347   6.335  12.591
65429SOL     OW98119  10.582   0.136   1.105
65429SOL    HW198120  10.579   0.096   1.192
65429SOL    HW298121  10.667   0.111   1.069
65430SOL     OW98122   0.374   6.625  12.669
65430SOL    HW198123   0.313   6.607  12.597
65430SOL    HW298124   0.415   6.708  12.645
65431SOL     OW98125   2.252  12.015  12.707
65431SOL    HW198126   2.276  12.032  12.798
65431SOL    HW298127   2.160  11.987  12.712
65432SOL     OW98128  11.686   9.452   9.845
65432SOL    HW198129  11.693   9.534   9.894
65432SOL    HW298130  11.777   9.421   9.839
65433SOL     OW98131   3.858  13.496   0.193
65433SOL    HW198132   3.899  13.489   0.107
65433SOL    HW298133   3.902  13.429   0.246
65434SOL     OW98134  10.915   7.516   7.973
65434SOL    HW198135  10.950   7.584   8.031
65434SOL    HW298136  10.827   7.548   7.950
65435SOL     OW98137   8.119   3.789   1.661
65435SOL    HW198138   8.059   3.860   1.638
65435SOL    HW298139   8.140   3.748   1.577
65436SOL     OW98140   5.112  10.967   2.480
65436SOL    HW198141   5.102  10.999   2.391
65436SOL    HW298142   5.029  10.990   2.523
65437SOL     OW98143  10.609  13.860  10.624
65437SOL    HW198144  10.679  13.849  10.559
65437SOL    HW298145  10.628  13.794  10.691
65438SOL     OW98146   7.294   9.785  12.205
65438SOL    HW198147   7.279   9.761  12.297
65438SOL    HW298148   7.240   9.725  12.155
65439SOL     OW98149  13.513  11.040  12.692
65439SOL    HW198150  13.517  11.099  12.616
65439SOL    HW298151  13.430  11.062  12.735
65440SOL     OW98152   8.609  12.480   9.545
65440SOL    HW198153   8.649  12.403   9.588
65440SOL    HW298154   8.544  12.443   9.486
65441SOL     OW98155   4.508  13.177  14.161
65441SOL    HW198156   4.561  13.134  14.094
65441SOL    HW298157   4.435  13.117  14.176
65442SOL     OW98158   4.351  12.476  11.648
65442SOL    HW198159   4.270  12.486  11.698
65442SOL    HW298160   4.380  12.565  11.630
65443SOL     OW98161   2.919   3.258  10.031
65443SOL    HW198162   2.867   3.188   9.992
65443SOL    HW298163   2.864   3.293  10.101
65444SOL     OW98164  11.896  10.943   5.980
65444SOL    HW198165  11.826  10.958   6.043
65444SOL    HW298166  11.852  10.901   5.906
65445SOL     OW98167   9.325   7.065   8.029
65445SOL    HW198168   9.398   7.020   8.072
65445SOL    HW298169   9.345   7.060   7.936
65446SOL     OW98170  10.597   8.997  13.093
65446SOL    HW198171  10.602   9.035  13.181
65446SOL    HW298172  10.636   9.064  13.037
65447SOL     OW98173   3.017  13.545   1.939
65447SOL    HW198174   3.039  13.485   1.868
65447SOL    HW298175   3.007  13.630   1.897
65448SOL     OW98176   4.568  13.685  11.663
65448SOL    HW198177   4.580  13.761  11.719
65448SOL    HW298178   4.564  13.611  11.724
65449SOL     OW98179  10.813   8.894  12.163
65449SOL    HW198180  10.814   8.952  12.238
65449SOL    HW298181  10.895   8.845  12.169
65450SOL     OW98182  11.985   5.262   9.783
65450SOL    HW198183  11.988   5.342   9.730
65450SOL    HW298184  12.030   5.285   9.864
65451SOL     OW98185   1.414  12.709   7.613
65451SOL    HW198186   1.433  12.645   7.544
65451SOL    HW298187   1.319  12.705   7.624
65452SOL     OW98188   6.500   1.300   1.470
65452SOL    HW198189   6.566   1.341   1.415
65452SOL    HW298190   6.432   1.271   1.409
65453SOL     OW98191   5.586  10.484   1.346
65453SOL    HW198192   5.599  10.509   1.437
65453SOL    HW298193   5.666  10.512   1.302
65454SOL     OW98194  13.723  13.322  11.144
65454SOL    HW198195  13.717  13.329  11.048
65454SOL    HW298196  13.694  13.232  11.162
65455SOL     OW98197  11.266   0.625   4.875
65455SOL    HW198198  11.340   0.623   4.813
65455SOL    HW298199  11.220   0.706   4.854
65456SOL     OW98200  10.985  13.508  12.520
65456SOL    HW198201  11.013  13.496  12.429
65456SOL    HW298202  10.986  13.603  12.533
65457SOL     OW98203  13.369   9.637   0.160
65457SOL    HW198204  13.341   9.551   0.128
65457SOL    HW298205  13.385   9.688   0.081
65458SOL     OW98206   8.955  12.875  13.855
65458SOL    HW198207   8.970  12.792  13.811
65458SOL    HW298208   8.916  12.852  13.939
65459SOL     OW98209   3.117   3.528  13.048
65459SOL    HW198210   3.029   3.490  13.049
65459SOL    HW298211   3.162   3.484  13.120
65460SOL     OW98212   3.383   5.665  11.696
65460SOL    HW198213   3.310   5.670  11.758
65460SOL    HW298214   3.459   5.694  11.746
65461SOL     OW98215  11.940  14.668   9.685
65461SOL    HW198216  11.988  14.729   9.741
65461SOL    HW298217  12.008  14.622   9.636
65462SOL     OW98218   8.159   4.404   3.756
65462SOL    HW198219   8.226   4.423   3.822
65462SOL    HW298220   8.094   4.474   3.766
65463SOL     OW98221   7.218   9.990   1.320
65463SOL    HW198222   7.154   9.967   1.252
65463SOL    HW298223   7.181   9.954   1.401
65464SOL     OW98224  10.606   9.423   3.987
65464SOL    HW198225  10.699   9.404   3.976
65464SOL    HW298226  10.567   9.408   3.900
65465SOL     OW98227  13.550   0.628   9.444
65465SOL    HW198228  13.587   0.697   9.389
65465SOL    HW298229  13.502   0.675   9.513
65466SOL     OW98230   4.234   4.863  14.670
65466SOL    HW198231   4.219   4.958  14.667
65466SOL    HW298232   4.315   4.853  14.720
65467SOL     OW98233   6.968   2.916   0.488
65467SOL    HW198234   6.960   2.886   0.398
65467SOL    HW298235   7.058   2.946   0.496
65468SOL     OW98236   2.513  12.584   6.929
65468SOL    HW198237   2.514  12.513   6.864
65468SOL    HW298238   2.495  12.539   7.012
65469SOL     OW98239   5.539   0.040   8.459
65469SOL    HW198240   5.634   0.039   8.445
65469SOL    HW298241   5.515  14.827   8.471
65470SOL     OW98242   8.630   8.486   5.072
65470SOL    HW198243   8.705   8.543   5.054
65470SOL    HW298244   8.666   8.397   5.068
65471SOL     OW98245  13.138   6.900   0.431
65471SOL    HW198246  13.189   6.819   0.428
65471SOL    HW298247  13.203   6.969   0.441
65472SOL     OW98248  14.067   1.943   3.999
65472SOL    HW198249  13.978   1.979   4.009
65472SOL    HW298250  14.053   1.853   3.970
65473SOL     OW98251  11.761  14.110   8.264
65473SOL    HW198252  11.847  14.094   8.225
65473SOL    HW298253  11.757  14.050   8.339
65474SOL     OW98254   6.313   5.888   4.643
65474SOL    HW198255   6.373   5.854   4.709
65474SOL    HW298256   6.257   5.814   4.621
65475SOL     OW98257   5.608   6.188   8.506
65475SOL    HW198258   5.580   6.118   8.446
65475SOL    HW298259   5.559   6.265   8.477
65476SOL     OW98260  10.740   7.914   1.670
65476SOL    HW198261  10.667   7.886   1.615
65476SOL    HW298262  10.813   7.928   1.609
65477SOL     OW98263   5.644   2.126   3.221
65477SOL    HW198264   5.693   2.090   3.296
65477SOL    HW298265   5.601   2.050   3.182
65478SOL     OW98266  13.836  10.556   3.210
65478SOL    HW198267  13.856  10.610   3.287
65478SOL    HW298268  13.817  10.619   3.141
65479SOL     OW98269   2.040  14.751  10.655
65479SOL    HW198270   1.976  14.785  10.717
65479SOL    HW298271   2.125  14.777  10.690
65480SOL     OW98272   2.005   2.202   2.909
65480SOL    HW198273   1.960   2.127   2.869
65480SOL    HW298274   2.002   2.270   2.842
65481SOL     OW98275   1.549   8.657  11.422
65481SOL    HW198276   1.483   8.598  11.386
65481SOL    HW298277   1.561   8.724  11.355
65482SOL     OW98278   0.865   7.173   5.957
65482SOL    HW198279   0.944   7.224   5.941
65482SOL    HW298280   0.819   7.221   6.026
65483SOL     OW98281   9.442   8.346   5.931
65483SOL    HW198282   9.456   8.264   5.978
65483SOL    HW298283   9.448   8.413   5.999
65484SOL     OW98284  10.245  10.868  10.354
65484SOL    HW198285  10.337  10.841  10.352
65484SOL    HW298286  10.209  10.823  10.430
65485SOL     OW98287   7.958   9.629   4.796
65485SOL    HW198288   7.974   9.683   4.719
65485SOL    HW298289   7.864   9.613   4.795
65486SOL     OW98290   3.433  10.076  11.752
65486SOL    HW198291   3.351  10.026  11.746
65486SOL    HW298292   3.404  10.166  11.764
65487SOL     OW98293  14.209   5.763   1.701
65487SOL    HW198294  14.225   5.771   1.607
65487SOL    HW298295  14.220   5.852   1.736
65488SOL     OW98296   5.093   1.559  11.299
65488SOL    HW198297   5.044   1.641  11.309
65488SOL    HW298298   5.106   1.528  11.389
65489SOL     OW98299   3.723   0.650   4.507
65489SOL    HW198300   3.628   0.658   4.508
65489SOL    HW298301   3.752   0.719   4.447
65490SOL     OW98302  14.615  14.169   2.671
65490SOL    HW198303  14.582  14.163   2.761
65490SOL    HW298304  14.709  14.150   2.680
65491SOL     OW98305  11.088  12.969   9.493
65491SOL    HW198306  11.066  12.950   9.584
65491SOL    HW298307  11.008  12.947   9.445
65492SOL     OW98308   7.005   7.879  12.383
65492SOL    HW198309   6.963   7.865  12.468
65492SOL    HW298310   6.934   7.908  12.326
65493SOL     OW98311  11.374   5.816  10.591
65493SOL    HW198312  11.393   5.772  10.508
65493SOL    HW298313  11.280   5.831  10.589
65494SOL     OW98314   0.140   6.138  11.037
65494SOL    HW198315   0.060   6.160  10.990
65494SOL    HW298316   0.144   6.201  11.108
65495SOL     OW98317   6.775   6.300   8.705
65495SOL    HW198318   6.841   6.273   8.641
65495SOL    HW298319   6.713   6.354   8.655
65496SOL     OW98320   9.377   1.010   5.849
65496SOL    HW198321   9.380   1.104   5.834
65496SOL    HW298322   9.384   0.972   5.761
65497SOL     OW98323   5.027   1.434  12.871
65497SOL    HW198324   5.020   1.377  12.948
65497SOL    HW298325   5.112   1.411  12.833
65498SOL     OW98326  12.130   2.299   6.729
65498SOL    HW198327  12.213   2.312   6.774
65498SOL    HW298328  12.073   2.258   6.794
65499SOL     OW98329  14.558   8.426   3.075
65499SOL    HW198330  14.612   8.350   3.052
65499SOL    HW298331  14.515   8.450   2.993
65500SOL     OW98332   4.080  14.243  11.593
65500SOL    HW198333   4.009  14.184  11.566
65500SOL    HW298334   4.139  14.188  11.644
65501SOL     OW98335   9.346   7.072   7.145
65501SOL    HW198336   9.276   7.136   7.152
65501SOL    HW298337   9.387   7.090   7.060
65502SOL     OW98338   8.264   0.453   9.898
65502SOL    HW198339   8.233   0.534   9.937
65502SOL    HW298340   8.187   0.416   9.855
65503SOL     OW98341   4.843   7.665  11.981
65503SOL    HW198342   4.783   7.598  12.014
65503SOL    HW298343   4.787   7.725  11.932
65504SOL     OW98344   3.145   0.412   6.499
65504SOL    HW198345   3.240   0.421   6.513
65504SOL    HW298346   3.108   0.496   6.526
65505SOL     OW98347   1.033   2.633   5.928
65505SOL    HW198348   0.949   2.624   5.973
65505SOL    HW298349   1.095   2.655   5.998
65506SOL     OW98350   3.126   0.725  10.128
65506SOL    HW198351   3.125   0.713  10.033
65506SOL    HW298352   3.128   0.636  10.164
65507SOL     OW98353   9.462  10.745   9.618
65507SOL    HW198354   9.432  10.834   9.636
65507SOL    HW298355   9.383  10.691   9.627
65508SOL     OW98356   0.230  13.425   7.908
65508SOL    HW198357   0.177  13.350   7.881
65508SOL    HW298358   0.260  13.403   7.996
65509SOL     OW98359   8.256  13.247  11.285
65509SOL    HW198360   8.182  13.307  11.294
65509SOL    HW298361   8.332  13.300  11.308
65510SOL     OW98362   9.778   3.718   4.259
65510SOL    HW198363   9.802   3.688   4.347
65510SOL    HW298364   9.855   3.765   4.227
65511SOL     OW98365  12.651   2.458   1.462
65511SOL    HW198366  12.585   2.401   1.424
65511SOL    HW298367  12.735   2.421   1.434
65512SOL     OW98368   4.375   0.118   8.517
65512SOL    HW198369   4.370   0.032   8.559
65512SOL    HW298370   4.469   0.131   8.501
65513SOL     OW98371   8.957  10.057  14.778
65513SOL    HW198372   8.903  10.135  14.784
65513SOL    HW298373   8.977  10.048  14.685
65514SOL     OW98374   1.764  11.677  10.367
65514SOL    HW198375   1.712  11.756  10.378
65514SOL    HW298376   1.711  11.621  10.310
65515SOL     OW98377   2.849   2.639  14.366
65515SOL    HW198378   2.923   2.699  14.369
65515SOL    HW298379   2.821   2.631  14.457
65516SOL     OW98380  13.442  11.767  14.119
65516SOL    HW198381  13.355  11.770  14.078
65516SOL    HW298382  13.499  11.808  14.054
65517SOL     OW98383  14.722   0.559   4.385
65517SOL    HW198384  14.684   0.643   4.359
65517SOL    HW298385  14.648   0.499   4.388
65518SOL     OW98386   5.783   1.771  11.867
65518SOL    HW198387   5.721   1.700  11.853
65518SOL    HW298388   5.741   1.828  11.931
65519SOL     OW98389   3.052   7.382   6.587
65519SOL    HW198390   2.961   7.362   6.566
65519SOL    HW298391   3.067   7.340   6.671
65520SOL     OW98392  13.304   3.347   5.233
65520SOL    HW198393  13.352   3.343   5.151
65520SOL    HW298394  13.296   3.256   5.262
65521SOL     OW98395   8.476   6.457   2.783
65521SOL    HW198396   8.537   6.448   2.856
65521SOL    HW298397   8.391   6.475   2.824
65522SOL     OW98398   5.144   5.257  10.942
65522SOL    HW198399   5.196   5.331  10.910
65522SOL    HW298400   5.129   5.277  11.034
65523SOL     OW98401   0.179  10.542   0.070
65523SOL    HW198402   0.098  10.573   0.110
65523SOL    HW298403   0.228  10.622   0.051
65524SOL     OW98404   2.724   3.717  11.447
65524SOL    HW198405   2.708   3.644  11.506
65524SOL    HW298406   2.760   3.676  11.368
65525SOL     OW98407   3.662  12.630   9.547
65525SOL    HW198408   3.715  12.676   9.482
65525SOL    HW298409   3.721  12.564   9.584
65526SOL     OW98410   9.163   3.394  10.959
65526SOL    HW198411   9.257   3.411  10.962
65526SOL    HW298412   9.128   3.441  11.035
65527SOL     OW98413   7.703  11.794   4.378
65527SOL    HW198414   7.730  11.722   4.321
65527SOL    HW298415   7.683  11.752   4.462
65528SOL     OW98416   6.478  12.683   5.417
65528SOL    HW198417   6.410  12.734   5.461
65528SOL    HW298418   6.516  12.629   5.486
65529SOL     OW98419   0.090   1.080  13.379
65529SOL    HW198420   0.152   1.099  13.308
65529SOL    HW298421   0.056   0.993  13.358
65530SOL     OW98422   4.141  12.514  11.825
65530SOL    HW198423   4.058  12.475  11.853
65530SOL    HW298424   4.149  12.594  11.877
65531SOL     OW98425   2.259  12.280   5.083
65531SOL    HW198426   2.198  12.279   5.157
65531SOL    HW298427   2.286  12.371   5.076
65532SOL     OW98428   4.488   9.316  10.902
65532SOL    HW198429   4.504   9.395  10.953
65532SOL    HW298430   4.432   9.345  10.830
65533SOL     OW98431  14.207  13.970   9.087
65533SOL    HW198432  14.199  14.047   9.031
65533SOL    HW298433  14.293  13.934   9.066
65534SOL     OW98434   0.105   9.899   5.037
65534SOL    HW198435   0.035   9.904   5.101
65534SOL    HW298436   0.184   9.883   5.089
65535SOL     OW98437   1.326  11.200   5.669
65535SOL    HW198438   1.388  11.194   5.741
65535SOL    HW298439   1.381  11.198   5.590
65536SOL     OW98440  11.140  10.103  14.470
65536SOL    HW198441  11.080  10.086  14.543
65536SOL    HW298442  11.100  10.175  14.422
65537SOL     OW98443   2.318   9.264   0.828
65537SOL    HW198444   2.305   9.285   0.735
65537SOL    HW298445   2.230   9.268   0.865
65538SOL     OW98446   5.138   5.706  13.366
65538SOL    HW198447   5.167   5.631  13.418
65538SOL    HW298448   5.151   5.679  13.275
65539SOL     OW98449  10.891   1.871  11.560
65539SOL    HW198450  10.851   1.893  11.476
65539SOL    HW298451  10.984   1.857  11.540
65540SOL     OW98452   8.363   0.507   7.417
65540SOL    HW198453   8.362   0.519   7.322
65540SOL    HW298454   8.272   0.518   7.444
65541SOL     OW98455   8.054   6.557  12.094
65541SOL    HW198456   8.127   6.519  12.045
65541SOL    HW298457   8.024   6.486  12.151
65542SOL     OW98458  12.867  12.606   9.351
65542SOL    HW198459  12.798  12.574   9.410
65542SOL    HW298460  12.823  12.671   9.296
65543SOL     OW98461   8.772   7.125  13.801
65543SOL    HW198462   8.865   7.121  13.778
65543SOL    HW298463   8.757   7.048  13.856
65544SOL     OW98464   2.291   7.721   4.162
65544SOL    HW198465   2.223   7.658   4.188
65544SOL    HW298466   2.242   7.795   4.126
65545SOL     OW98467  13.462  10.745   0.008
65545SOL    HW198468  13.487  10.772   0.097
65545SOL    HW298469  13.366  10.748   0.008
65546SOL     OW98470   5.305   9.991   5.654
65546SOL    HW198471   5.390   9.971   5.693
65546SOL    HW298472   5.308   9.952   5.567
65547SOL     OW98473   3.449   6.319   3.482
65547SOL    HW198474   3.497   6.370   3.547
65547SOL    HW298475   3.517   6.282   3.426
65548SOL     OW98476   8.414   0.187  13.968
65548SOL    HW198477   8.507   0.200  13.954
65548SOL    HW298478   8.395   0.101  13.932
65549SOL     OW98479   1.306  11.115   7.821
65549SOL    HW198480   1.255  11.194   7.834
65549SOL    HW298481   1.336  11.091   7.909
65550SOL     OW98482   8.774   1.637   9.309
65550SOL    HW198483   8.725   1.716   9.333
65550SOL    HW298484   8.774   1.584   9.388
65551SOL     OW98485   9.713   8.284  10.201
65551SOL    HW198486   9.697   8.268  10.108
65551SOL    HW298487   9.711   8.198  10.242
65552SOL     OW98488   9.202  12.857   9.437
65552SOL    HW198489   9.206  12.774   9.389
65552SOL    HW298490   9.271  12.911   9.399
65553SOL     OW98491   0.774  14.816   3.695
65553SOL    HW198492   0.734  14.732   3.672
65553SOL    HW298493   0.856  14.818   3.646
65554SOL     OW98494   1.610   7.800   6.612
65554SOL    HW198495   1.564   7.846   6.542
65554SOL    HW298496   1.655   7.727   6.569
65555SOL     OW98497  13.063   0.967  14.443
65555SOL    HW198498  13.059   1.021  14.522
65555SOL    HW298499  13.073   1.030  14.372
65556SOL     OW98500   3.870   1.917   6.210
65556SOL    HW198501   3.952   1.867   6.216
65556SOL    HW298502   3.898   2.008   6.203
65557SOL     OW98503   8.208   1.099  14.630
65557SOL    HW198504   8.279   1.102  14.566
65557SOL    HW298505   8.252   1.108  14.715
65558SOL     OW98506   9.246  12.229   8.833
65558SOL    HW198507   9.270  12.139   8.854
65558SOL    HW298508   9.289  12.281   8.901
65559SOL     OW98509   8.466  11.637   2.838
65559SOL    HW198510   8.486  11.574   2.907
65559SOL    HW298511   8.498  11.721   2.873
65560SOL     OW98512  14.192  14.337  13.128
65560SOL    HW198513  14.117  14.376  13.086
65560SOL    HW298514  14.156  14.292  13.205
65561SOL     OW98515  13.990   3.876   7.462
65561SOL    HW198516  14.048   3.923   7.402
65561SOL    HW298517  14.031   3.791   7.473
65562SOL     OW98518   8.531  10.134  12.445
65562SOL    HW198519   8.449  10.156  12.400
65562SOL    HW298520   8.563  10.218  12.477
65563SOL     OW98521   5.598  11.131   7.732
65563SOL    HW198522   5.572  11.055   7.680
65563SOL    HW298523   5.536  11.200   7.707
65564SOL     OW98524   8.116   4.387   5.853
65564SOL    HW198525   8.205   4.415   5.874
65564SOL    HW298526   8.095   4.321   5.920
65565SOL     OW98527   4.827   5.449   6.995
65565SOL    HW198528   4.796   5.539   6.994
65565SOL    HW298529   4.748   5.396   6.982
65566SOL     OW98530  13.950  11.224   7.490
65566SOL    HW198531  13.985  11.205   7.576
65566SOL    HW298532  14.005  11.173   7.430
65567SOL     OW98533   9.242  14.507  10.382
65567SOL    HW198534   9.210  14.500  10.291
65567SOL    HW298535   9.171  14.552  10.428
65568SOL     OW98536  10.452   5.043   3.746
65568SOL    HW198537  10.423   4.953   3.760
65568SOL    HW298538  10.405   5.071   3.668
65569SOL     OW98539   5.757  10.113   1.082
65569SOL    HW198540   5.821  10.181   1.100
65569SOL    HW298541   5.808  10.040   1.046
65570SOL     OW98542  10.295  10.680   4.703
65570SOL    HW198543  10.232  10.732   4.653
65570SOL    HW298544  10.317  10.607   4.645
65571SOL     OW98545   9.981   1.163   6.781
65571SOL    HW198546  10.023   1.141   6.697
65571SOL    HW298547   9.998   1.256   6.793
65572SOL     OW98548   0.370  10.710  10.454
65572SOL    HW198549   0.362  10.797  10.494
65572SOL    HW298550   0.386  10.728  10.361
65573SOL     OW98551   4.949  11.801   1.030
65573SOL    HW198552   5.029  11.852   1.022
65573SOL    HW298553   4.944  11.779   1.123
65574SOL     OW98554   4.909   5.843   6.222
65574SOL    HW198555   4.986   5.831   6.277
65574SOL    HW298556   4.838   5.862   6.283
65575SOL     OW98557   9.088   5.112   7.145
65575SOL    HW198558   9.136   5.030   7.149
65575SOL    HW298559   9.044   5.110   7.060
65576SOL     OW98560   4.010   9.877   7.936
65576SOL    HW198561   4.026   9.854   7.845
65576SOL    HW298562   4.097   9.900   7.971
65577SOL     OW98563   9.691   4.166   9.299
65577SOL    HW198564   9.623   4.232   9.308
65577SOL    HW298565   9.663   4.094   9.355
65578SOL     OW98566  12.529  11.700   0.126
65578SOL    HW198567  12.519  11.732   0.216
65578SOL    HW298568  12.530  11.780   0.073
65579SOL     OW98569   8.780   3.933  10.133
65579SOL    HW198570   8.849   3.999  10.125
65579SOL    HW298571   8.701   3.984  10.151
65580SOL     OW98572   8.716   6.228   2.631
65580SOL    HW198573   8.708   6.321   2.613
65580SOL    HW298574   8.642   6.188   2.585
65581SOL     OW98575   1.214   0.619   7.070
65581SOL    HW198576   1.298   0.654   7.100
65581SOL    HW298577   1.233   0.582   6.983
65582SOL     OW98578  11.920   6.194   5.624
65582SOL    HW198579  11.892   6.266   5.679
65582SOL    HW298580  11.841   6.140   5.613
65583SOL     OW98581   2.162   6.456   7.972
65583SOL    HW198582   2.127   6.520   8.034
65583SOL    HW298583   2.135   6.371   8.006
65584SOL     OW98584   9.798   7.748  12.313
65584SOL    HW198585   9.802   7.699  12.396
65584SOL    HW298586   9.705   7.759  12.296
65585SOL     OW98587   3.818   1.281   6.534
65585SOL    HW198588   3.742   1.336   6.556
65585SOL    HW298589   3.801   1.199   6.581
65586SOL     OW98590  12.702  12.995  10.834
65586SOL    HW198591  12.786  13.026  10.801
65586SOL    HW298592  12.701  13.022  10.926
65587SOL     OW98593  10.720   0.947  11.479
65587SOL    HW198594  10.694   1.027  11.433
65587SOL    HW298595  10.664   0.879  11.441
65588SOL     OW98596   2.468  12.776  10.407
65588SOL    HW198597   2.483  12.815  10.493
65588SOL    HW298598   2.555  12.751  10.376
65589SOL     OW98599  11.646  11.359   7.311
65589SOL    HW198600  11.715  11.402   7.260
65589SOL    HW298601  11.628  11.420   7.383
65590SOL     OW98602   9.669  14.233   2.158
65590SOL    HW198603   9.755  14.250   2.197
65590SOL    HW298604   9.686  14.165   2.092
65591SOL     OW98605   7.297   7.044   1.419
65591SOL    HW198606   7.292   6.968   1.362
65591SOL    HW298607   7.207   7.056   1.450
65592SOL     OW98608   5.432   0.163   7.674
65592SOL    HW198609   5.374   0.212   7.616
65592SOL    HW298610   5.388   0.078   7.686
65593SOL     OW98611   9.676   5.635   0.622
65593SOL    HW198612   9.668   5.577   0.698
65593SOL    HW298613   9.768   5.627   0.596
65594SOL     OW98614   7.067   9.755   2.900
65594SOL    HW198615   7.070   9.819   2.971
65594SOL    HW298616   6.980   9.763   2.863
65595SOL     OW98617  13.154  14.199  10.676
65595SOL    HW198618  13.088  14.224  10.611
65595SOL    HW298619  13.152  14.103  10.675
65596SOL     OW98620   6.364   8.559   6.973
65596SOL    HW198621   6.304   8.497   6.932
65596SOL    HW298622   6.307   8.626   7.011
65597SOL     OW98623   1.315   2.335   0.798
65597SOL    HW198624   1.227   2.372   0.811
65597SOL    HW298625   1.362   2.403   0.750
65598SOL     OW98626  12.317   0.406   8.861
65598SOL    HW198627  12.399   0.421   8.909
65598SOL    HW298628  12.334   0.442   8.773
65599SOL     OW98629   8.629   4.254   1.301
65599SOL    HW198630   8.572   4.230   1.375
65599SOL    HW298631   8.683   4.177   1.287
65600SOL     OW98632   0.107   3.734  10.333
65600SOL    HW198633   0.126   3.782  10.252
65600SOL    HW298634   0.131   3.795  10.403
65601SOL     OW98635  10.121   1.751  12.170
65601SOL    HW198636  10.169   1.673  12.143
65601SOL    HW298637  10.102   1.737  12.262
65602SOL     OW98638  11.844   7.372   6.252
65602SOL    HW198639  11.863   7.428   6.327
65602SOL    HW298640  11.929   7.339   6.223
65603SOL     OW98641   2.952   1.233   6.103
65603SOL    HW198642   3.023   1.273   6.052
65603SOL    HW298643   2.954   1.277   6.187
65604SOL     OW98644   0.633   2.472   9.842
65604SOL    HW198645   0.625   2.392   9.895
65604SOL    HW298646   0.702   2.452   9.779
65605SOL     OW98647   0.688  14.051  11.481
65605SOL    HW198648   0.673  13.967  11.523
65605SOL    HW298649   0.704  14.112  11.553
65606SOL     OW98650   1.518  14.701  10.611
65606SOL    HW198651   1.500  14.729  10.700
65606SOL    HW298652   1.577  14.767  10.576
65607SOL     OW98653   3.820   5.180   9.961
65607SOL    HW198654   3.802   5.217  10.047
65607SOL    HW298655   3.781   5.243   9.900
65608SOL     OW98656   7.851  11.861   3.205
65608SOL    HW198657   7.789  11.824   3.268
65608SOL    HW298658   7.937  11.849   3.247
65609SOL     OW98659   3.284   2.026   8.282
65609SOL    HW198660   3.379   2.016   8.277
65609SOL    HW298661   3.270   2.120   8.289
65610SOL     OW98662   1.209   3.585  14.166
65610SOL    HW198663   1.251   3.577  14.081
65610SOL    HW298664   1.119   3.555  14.151
65611SOL     OW98665   7.286   7.474   4.492
65611SOL    HW198666   7.210   7.529   4.475
65611SOL    HW298667   7.345   7.529   4.544
65612SOL     OW98668  13.809   4.767   5.044
65612SOL    HW198669  13.846   4.732   4.964
65612SOL    HW298670  13.724   4.804   5.018
65613SOL     OW98671   8.704   6.139  13.470
65613SOL    HW198672   8.783   6.190  13.487
65613SOL    HW298673   8.720   6.055  13.513
65614SOL     OW98674   9.459  14.513   9.893
65614SOL    HW198675   9.409  14.506   9.811
65614SOL    HW298676   9.541  14.468   9.874
65615SOL     OW98677  13.158   2.190  11.347
65615SOL    HW198678  13.249   2.166  11.361
65615SOL    HW298679  13.124   2.123  11.287
65616SOL     OW98680  10.019  11.673   8.987
65616SOL    HW198681  10.022  11.586   9.025
65616SOL    HW298682   9.926  11.695   8.983
65617SOL     OW98683   9.252   2.824  10.090
65617SOL    HW198684   9.182   2.813  10.026
65617SOL    HW298685   9.207   2.819  10.175
65618SOL     OW98686   1.670   2.963  10.989
65618SOL    HW198687   1.586   2.923  11.011
65618SOL    HW298688   1.704   2.909  10.918
65619SOL     OW98689   8.014  10.929   9.488
65619SOL    HW198690   7.937  10.886   9.451
65619SOL    HW298691   7.983  10.971   9.568
65620SOL     OW98692   3.541  13.360   7.715
65620SOL    HW198693   3.634  13.383   7.709
65620SOL    HW298694   3.512  13.398   7.798
65621SOL     OW98695   3.358   2.836  14.237
65621SOL    HW198696   3.398   2.758  14.197
65621SOL    HW298697   3.285   2.858  14.179
65622SOL     OW98698   6.287   4.014   3.628
65622SOL    HW198699   6.351   4.085   3.634
65622SOL    HW298700   6.236   4.035   3.549
65623SOL     OW98701  10.334   2.032   8.564
65623SOL    HW198702  10.390   2.074   8.499
65623SOL    HW298703  10.395   1.993   8.627
65624SOL     OW98704   7.805  10.840   9.736
65624SOL    HW198705   7.894  10.826   9.767
65624SOL    HW298706   7.778  10.922   9.779
65625SOL     OW98707   8.887   5.994   3.726
65625SOL    HW198708   8.945   6.068   3.742
65625SOL    HW298709   8.943   5.927   3.688
65626SOL     OW98710   0.656   3.988  11.564
65626SOL    HW198711   0.740   3.967  11.522
65626SOL    HW298712   0.654   3.932  11.641
65627SOL     OW98713   3.615   4.655   6.224
65627SOL    HW198714   3.657   4.671   6.309
65627SOL    HW298715   3.550   4.587   6.241
65628SOL     OW98716   8.064   4.297   4.914
65628SOL    HW198717   8.066   4.337   4.827
65628SOL    HW298718   8.012   4.358   4.967
65629SOL     OW98719   1.058  13.437   5.490
65629SOL    HW198720   1.050  13.376   5.417
65629SOL    HW298721   0.968  13.456   5.515
65630SOL     OW98722   2.074   8.664  14.523
65630SOL    HW198723   2.036   8.689  14.607
65630SOL    HW298724   2.012   8.599  14.488
65631SOL     OW98725   9.154   9.138   9.800
65631SOL    HW198726   9.212   9.070   9.766
65631SOL    HW298727   9.078   9.136   9.741
65632SOL     OW98728  13.673   2.714   6.366
65632SOL    HW198729  13.701   2.647   6.303
65632SOL    HW298730  13.746   2.723   6.426
65633SOL     OW98731   1.412   4.581   6.936
65633SOL    HW198732   1.418   4.520   7.009
65633SOL    HW298733   1.386   4.527   6.862
65634SOL     OW98734   7.721   5.982   0.937
65634SOL    HW198735   7.754   5.938   0.859
65634SOL    HW298736   7.795   5.983   0.998
65635SOL     OW98737   5.365   9.424   0.586
65635SOL    HW198738   5.425   9.441   0.659
65635SOL    HW298739   5.374   9.331   0.570
65636SOL     OW98740   2.270   8.779   0.209
65636SOL    HW198741   2.265   8.684   0.199
65636SOL    HW298742   2.207   8.799   0.279
65637SOL     OW98743   3.950   4.746   6.232
65637SOL    HW198744   4.022   4.764   6.172
65637SOL    HW298745   3.874   4.731   6.176
65638SOL     OW98746   5.733   6.996  12.135
65638SOL    HW198747   5.792   6.922  12.120
65638SOL    HW298748   5.726   7.001  12.230
65639SOL     OW98749  11.780  11.368   4.090
65639SOL    HW198750  11.847  11.300   4.097
65639SOL    HW298751  11.810  11.424   4.018
65640SOL     OW98752   5.451   7.184   3.098
65640SOL    HW198753   5.451   7.093   3.127
65640SOL    HW298754   5.401   7.183   3.016
65641SOL     OW98755  11.456  10.326   8.591
65641SOL    HW198756  11.433  10.242   8.632
65641SOL    HW298757  11.440  10.312   8.498
65642SOL     OW98758   2.891   3.916   4.705
65642SOL    HW198759   2.951   3.869   4.647
65642SOL    HW298760   2.804   3.891   4.676
65643SOL     OW98761   5.049   0.477   4.055
65643SOL    HW198762   4.979   0.459   4.118
65643SOL    HW298763   5.130   0.456   4.102
65644SOL     OW98764  11.165   6.926   1.703
65644SOL    HW198765  11.201   6.853   1.753
65644SOL    HW298766  11.219   6.930   1.624
65645SOL     OW98767   3.260   1.073  11.976
65645SOL    HW198768   3.346   1.040  12.002
65645SOL    HW298769   3.278   1.154  11.929
65646SOL     OW98770  12.318   8.574   2.486
65646SOL    HW198771  12.247   8.591   2.423
65646SOL    HW298772  12.277   8.522   2.554
65647SOL     OW98773  12.055   7.943   2.358
65647SOL    HW198774  11.976   7.966   2.406
65647SOL    HW298775  12.027   7.881   2.291
65648SOL     OW98776  12.596   1.597   9.280
65648SOL    HW198777  12.682   1.558   9.292
65648SOL    HW298778  12.558   1.550   9.206
65649SOL     OW98779  12.780  10.620   0.414
65649SOL    HW198780  12.685  10.609   0.418
65649SOL    HW298781  12.798  10.691   0.476
65650SOL     OW98782   5.259   9.374   7.955
65650SOL    HW198783   5.262   9.338   8.044
65650SOL    HW298784   5.166   9.383   7.936
65651SOL     OW98785   5.786   5.655  12.936
65651SOL    HW198786   5.816   5.574  12.895
65651SOL    HW298787   5.827   5.655  13.022
65652SOL     OW98788   5.269   1.416   5.360
65652SOL    HW198789   5.277   1.390   5.451
65652SOL    HW298790   5.230   1.341   5.316
65653SOL     OW98791   9.473   6.630  11.509
65653SOL    HW198792   9.489   6.536  11.512
65653SOL    HW298793   9.538   6.663  11.447
65654SOL     OW98794   1.298   6.170   5.153
65654SOL    HW198795   1.387   6.145   5.128
65654SOL    HW298796   1.284   6.255   5.113
65655SOL     OW98797   2.025  10.512  12.084
65655SOL    HW198798   2.076  10.432  12.074
65655SOL    HW298799   2.064  10.556  12.159
65656SOL     OW98800  14.389  13.948   6.456
65656SOL    HW198801  14.357  13.858   6.465
65656SOL    HW298802  14.483  13.938   6.442
65657SOL     OW98803  10.290  13.787   9.368
65657SOL    HW198804  10.313  13.837   9.289
65657SOL    HW298805  10.264  13.854   9.431
65658SOL     OW98806   0.075  13.379   4.952
65658SOL    HW198807   0.109  13.291   4.971
65658SOL    HW298808   0.139  13.438   4.991
65659SOL     OW98809  11.442   3.367  12.397
65659SOL    HW198810  11.459   3.278  12.364
65659SOL    HW298811  11.363   3.395  12.350
65660SOL     OW98812   8.472   8.683   0.741
65660SOL    HW198813   8.554   8.705   0.698
65660SOL    HW298814   8.455   8.592   0.716
65661SOL     OW98815  10.807  11.652  13.969
65661SOL    HW198816  10.756  11.722  13.927
65661SOL    HW298817  10.844  11.693  14.047
65662SOL     OW98818  13.321   2.014   1.567
65662SOL    HW198819  13.259   2.053   1.506
65662SOL    HW298820  13.268   1.963   1.627
65663SOL     OW98821   3.042  11.238   4.648
65663SOL    HW198822   2.994  11.294   4.587
65663SOL    HW298823   2.986  11.233   4.725
65664SOL     OW98824   1.323  12.057   4.172
65664SOL    HW198825   1.360  12.000   4.240
65664SOL    HW298826   1.342  12.012   4.090
65665SOL     OW98827  11.491  10.591   7.694
65665SOL    HW198828  11.457  10.621   7.609
65665SOL    HW298829  11.436  10.517   7.717
65666SOL     OW98830   3.316   5.573  12.511
65666SOL    HW198831   3.257   5.647  12.528
65666SOL    HW298832   3.280   5.532  12.432
65667SOL     OW98833   8.583   5.813   8.348
65667SOL    HW198834   8.613   5.890   8.300
65667SOL    HW298835   8.648   5.801   8.417
65668SOL     OW98836   5.474   5.996   8.772
65668SOL    HW198837   5.474   6.006   8.677
65668SOL    HW298838   5.434   5.910   8.788
65669SOL     OW98839   7.186  13.834   5.600
65669SOL    HW198840   7.140  13.918   5.610
65669SOL    HW298841   7.223  13.838   5.512
65670SOL     OW98842   8.609   6.641  10.404
65670SOL    HW198843   8.616   6.724  10.357
65670SOL    HW298844   8.585   6.577  10.336
65671SOL     OW98845  11.474   3.714  10.551
65671SOL    HW198846  11.544   3.777  10.537
65671SOL    HW298847  11.518   3.634  10.578
65672SOL     OW98848   7.695  14.366  13.593
65672SOL    HW198849   7.709  14.288  13.539
65672SOL    HW298850   7.784  14.398  13.612
65673SOL     OW98851   6.686   4.457  11.692
65673SOL    HW198852   6.656   4.383  11.745
65673SOL    HW298853   6.673   4.428  11.601
65674SOL     OW98854   2.897   7.989   1.391
65674SOL    HW198855   2.846   7.908   1.397
65674SOL    HW298856   2.879   8.035   1.473
65675SOL     OW98857  14.284  10.439  13.317
65675SOL    HW198858  14.306  10.389  13.238
65675SOL    HW298859  14.204  10.399  13.350
65676SOL     OW98860  14.481  12.465  14.398
65676SOL    HW198861  14.544  12.432  14.463
65676SOL    HW298862  14.527  12.458  14.314
65677SOL     OW98863   0.331   0.291   2.915
65677SOL    HW198864   0.324   0.197   2.933
65677SOL    HW298865   0.415   0.316   2.953
65678SOL     OW98866  11.097   9.045   8.234
65678SOL    HW198867  11.109   9.037   8.140
65678SOL    HW298868  11.064   8.960   8.262
65679SOL     OW98869   1.842   6.975  10.837
65679SOL    HW198870   1.858   6.892  10.882
65679SOL    HW298871   1.818   6.949  10.748
65680SOL     OW98872   9.223   6.195   8.347
65680SOL    HW198873   9.269   6.157   8.422
65680SOL    HW298874   9.290   6.248   8.303
65681SOL     OW98875   5.496   7.328   1.544
65681SOL    HW198876   5.434   7.291   1.607
65681SOL    HW298877   5.540   7.253   1.505
65682SOL     OW98878  11.649   3.903   2.442
65682SOL    HW198879  11.557   3.928   2.433
65682SOL    HW298880  11.694   3.985   2.462
65683SOL     OW98881   3.378   4.112   2.087
65683SOL    HW198882   3.334   4.050   2.144
65683SOL    HW298883   3.422   4.173   2.147
65684SOL     OW98884   1.243   9.301  14.244
65684SOL    HW198885   1.241   9.219  14.196
65684SOL    HW298886   1.151   9.321  14.262
65685SOL     OW98887   5.985  12.944   7.037
65685SOL    HW198888   6.010  12.865   7.085
65685SOL    HW298889   6.002  13.015   7.099
65686SOL     OW98890   1.996  14.588   9.706
65686SOL    HW198891   1.905  14.607   9.684
65686SOL    HW298892   2.046  14.626   9.633
65687SOL     OW98893   3.915   6.000   3.682
65687SOL    HW198894   3.998   5.964   3.714
65687SOL    HW298895   3.923   6.094   3.693
65688SOL     OW98896   5.297   9.550   8.349
65688SOL    HW198897   5.368   9.537   8.412
65688SOL    HW298898   5.331   9.517   8.266
65689SOL     OW98899   6.523  14.361   3.709
65689SOL    HW198900   6.535  14.430   3.775
65689SOL    HW298901   6.445  14.314   3.738
65690SOL     OW98902   3.190   1.864   0.810
65690SOL    HW198903   3.254   1.852   0.740
65690SOL    HW298904   3.158   1.776   0.828
65691SOL     OW98905   0.051   2.953  13.478
65691SOL    HW198906   0.031   2.912  13.394
65691SOL    HW298907   0.034   3.046  13.464
65692SOL     OW98908  13.527   1.086  14.841
65692SOL    HW198909  13.602   1.027  14.843
65692SOL    HW298910  13.500   1.087  14.749
65693SOL     OW98911  14.823  14.546   6.572
65693SOL    HW198912   0.028  14.550   6.527
65693SOL    HW298913  14.807  14.452   6.585
65694SOL     OW98914   3.142  11.820   5.611
65694SOL    HW198915   3.167  11.758   5.679
65694SOL    HW298916   3.189  11.900   5.633
65695SOL     OW98917   6.780  11.476  11.144
65695SOL    HW198918   6.745  11.411  11.205
65695SOL    HW298919   6.710  11.489  11.079
65696SOL     OW98920   7.547  11.605  11.239
65696SOL    HW198921   7.570  11.599  11.331
65696SOL    HW298922   7.457  11.574  11.234
65697SOL     OW98923   0.032   9.507   7.095
65697SOL    HW198924   0.029   9.411   7.094
65697SOL    HW298925   0.095   9.529   7.163
65698SOL     OW98926   8.076   3.519   2.217
65698SOL    HW198927   8.035   3.574   2.150
65698SOL    HW298928   8.170   3.536   2.208
65699SOL     OW98929   7.435   8.291  10.733
65699SOL    HW198930   7.356   8.262  10.687
65699SOL    HW298931   7.505   8.236  10.698
65700SOL     OW98932   2.086   7.724   1.126
65700SOL    HW198933   2.116   7.691   1.210
65700SOL    HW298934   2.146   7.795   1.104
65701SOL     OW98935  12.715  14.810  11.079
65701SOL    HW198936  12.625  14.778  11.072
65701SOL    HW298937  12.728  14.823  11.173
65702SOL     OW98938   6.685  13.804  10.951
65702SOL    HW198939   6.672  13.790  11.045
65702SOL    HW298940   6.616  13.753  10.909
65703SOL     OW98941   0.237   9.684  14.679
65703SOL    HW198942   0.197   9.768  14.656
65703SOL    HW298943   0.241   9.636  14.597
65704SOL     OW98944   6.364   7.322   3.915
65704SOL    HW198945   6.312   7.325   3.996
65704SOL    HW298946   6.431   7.256   3.932
65705SOL     OW98947  11.599   5.849  14.231
65705SOL    HW198948  11.566   5.773  14.279
65705SOL    HW298949  11.579   5.923  14.289
65706SOL     OW98950   9.919   9.592   7.104
65706SOL    HW198951   9.939   9.663   7.043
65706SOL    HW298952  10.005   9.560   7.132
65707SOL     OW98953   0.302   6.685  11.176
65707SOL    HW198954   0.290   6.770  11.134
65707SOL    HW298955   0.213   6.651  11.187
65708SOL     OW98956  12.074   5.744   2.264
65708SOL    HW198957  12.016   5.747   2.340
65708SOL    HW298958  12.157   5.711   2.299
65709SOL     OW98959   8.915  12.194  11.681
65709SOL    HW198960   8.912  12.263  11.615
65709SOL    HW298961   8.990  12.140  11.655
65710SOL     OW98962  14.111  11.434   6.658
65710SOL    HW198963  14.168  11.433   6.735
65710SOL    HW298964  14.029  11.395   6.688
65711SOL     OW98965   2.515   8.548   5.577
65711SOL    HW198966   2.460   8.619   5.608
65711SOL    HW298967   2.565   8.521   5.655
65712SOL     OW98968   1.843  10.696   8.447
65712SOL    HW198969   1.835  10.602   8.466
65712SOL    HW298970   1.782  10.737   8.509
65713SOL     OW98971   0.104  13.662  12.603
65713SOL    HW198972   0.039  13.728  12.578
65713SOL    HW298973   0.114  13.607  12.525
65714SOL     OW98974   9.731   1.208   0.093
65714SOL    HW198975   9.820   1.226   0.124
65714SOL    HW298976   9.730   1.240   0.003
65715SOL     OW98977  14.726   4.986   0.328
65715SOL    HW198978  14.775   4.993   0.409
65715SOL    HW298979  14.703   4.893   0.322
65716SOL     OW98980   9.597   0.690  10.193
65716SOL    HW198981   9.506   0.673  10.168
65716SOL    HW298982   9.600   0.785  10.206
65717SOL     OW98983  14.082   5.847   2.167
65717SOL    HW198984  13.988   5.831   2.178
65717SOL    HW298985  14.120   5.760   2.157
65718SOL     OW98986   6.023  11.993   4.445
65718SOL    HW198987   6.029  11.966   4.353
65718SOL    HW298988   6.096  11.948   4.488
65719SOL     OW98989   1.782  10.161  10.857
65719SOL    HW198990   1.816  10.239  10.901
65719SOL    HW298991   1.706  10.193  10.808
65720SOL     OW98992   4.376   7.865  13.193
65720SOL    HW198993   4.312   7.888  13.261
65720SOL    HW298994   4.325   7.814  13.129
65721SOL     OW98995   2.561   1.071   6.593
65721SOL    HW198996   2.480   1.045   6.549
65721SOL    HW298997   2.544   1.159   6.627
65722SOL     OW98998   7.988   1.820   6.207
65722SOL    HW198999   8.051   1.749   6.214
65722SOL    HW299000   8.035   1.898   6.237
65723SOL     OW99001  11.325   7.373  13.816
65723SOL    HW199002  11.248   7.343  13.768
65723SOL    HW299003  11.386   7.402  13.748
65724SOL     OW99004   9.323   2.219  13.031
65724SOL    HW199005   9.230   2.201  13.025
65724SOL    HW299006   9.337   2.292  12.971
65725SOL     OW99007  12.562   7.666   9.624
65725SOL    HW199008  12.645   7.714   9.633
65725SOL    HW299009  12.569   7.595   9.687
65726SOL     OW99010   9.466   6.826  11.274
65726SOL    HW199011   9.477   6.770  11.197
65726SOL    HW299012   9.549   6.819  11.322
65727SOL     OW99013  14.042   8.415   8.341
65727SOL    HW199014  14.058   8.327   8.305
65727SOL    HW299015  14.082   8.474   8.277
65728SOL     OW99016   3.386   0.477  13.904
65728SOL    HW199017   3.442   0.535  13.853
65728SOL    HW299018   3.437   0.397  13.915
65729SOL     OW99019   6.423  14.585   0.530
65729SOL    HW199020   6.468  14.639   0.465
65729SOL    HW299021   6.493  14.555   0.588
65730SOL     OW99022   5.252   3.781  14.513
65730SOL    HW199023   5.284   3.698  14.548
65730SOL    HW299024   5.211   3.824  14.588
65731SOL     OW99025  13.114   7.254  12.237
65731SOL    HW199026  13.031   7.281  12.278
65731SOL    HW299027  13.102   7.162  12.216
65732SOL     OW99028   1.871   8.751  10.433
65732SOL    HW199029   1.809   8.782  10.368
65732SOL    HW299030   1.936   8.701  10.384
65733SOL     OW99031   6.983   6.777   1.293
65733SOL    HW199032   7.003   6.853   1.347
65733SOL    HW299033   6.906   6.737   1.335
65734SOL     OW99034   1.152   6.457  13.710
65734SOL    HW199035   1.119   6.377  13.752
65734SOL    HW299036   1.079   6.519  13.715
65735SOL     OW99037   9.654  13.673   0.545
65735SOL    HW199038   9.596  13.653   0.471
65735SOL    HW299039   9.739  13.636   0.520
65736SOL     OW99040   3.405  10.048   1.357
65736SOL    HW199041   3.374  10.136   1.379
65736SOL    HW299042   3.367  10.030   1.271
65737SOL     OW99043   9.232   1.789   0.224
65737SOL    HW199044   9.301   1.851   0.202
65737SOL    HW299045   9.224   1.733   0.147
65738SOL     OW99046   8.839   7.142  10.172
65738SOL    HW199047   8.821   7.052  10.197
65738SOL    HW299048   8.757   7.189  10.188
65739SOL     OW99049  11.875  11.254   6.551
65739SOL    HW199050  11.820  11.300   6.614
65739SOL    HW299051  11.831  11.265   6.467
65740SOL     OW99052   8.932   5.865   5.372
65740SOL    HW199053   8.906   5.923   5.300
65740SOL    HW299054   8.872   5.791   5.366
65741SOL     OW99055  14.459   6.052   8.635
65741SOL    HW199056  14.542   6.017   8.665
65741SOL    HW299057  14.400   5.976   8.633
65742SOL     OW99058  10.924   4.124   3.112
65742SOL    HW199059  10.904   4.180   3.037
65742SOL    HW299060  10.913   4.181   3.188
65743SOL     OW99061  11.861   9.938  10.081
65743SOL    HW199062  11.940   9.983  10.111
65743SOL    HW299063  11.798   9.950  10.152
65744SOL     OW99064  13.571   9.844  13.136
65744SOL    HW199065  13.482   9.881  13.142
65744SOL    HW299066  13.581   9.820  13.044
65745SOL     OW99067  11.996   6.021  11.569
65745SOL    HW199068  11.956   6.072  11.498
65745SOL    HW299069  11.929   6.020  11.638
65746SOL     OW99070   1.284   7.306  10.349
65746SOL    HW199071   1.242   7.259  10.277
65746SOL    HW299072   1.329   7.379  10.306
65747SOL     OW99073  14.293  10.434   5.028
65747SOL    HW199074  14.363  10.496   5.010
65747SOL    HW299075  14.262  10.405   4.942
65748SOL     OW99076  14.742   7.062  12.649
65748SOL    HW199077  14.726   7.022  12.564
65748SOL    HW299078  14.764   7.153  12.630
65749SOL     OW99079   7.450   2.588   6.456
65749SOL    HW199080   7.361   2.562   6.435
65749SOL    HW299081   7.465   2.555   6.545
65750SOL     OW99082  11.694   9.395   7.088
65750SOL    HW199083  11.605   9.361   7.084
65750SOL    HW299084  11.723   9.376   7.177
65751SOL     OW99085   0.139   9.119   8.233
65751SOL    HW199086   0.153   9.160   8.319
65751SOL    HW299087   0.167   9.029   8.244
65752SOL     OW99088   4.015   2.971   2.531
65752SOL    HW199089   3.939   2.922   2.563
65752SOL    HW299090   4.084   2.951   2.594
65753SOL     OW99091   6.037   4.581  10.320
65753SOL    HW199092   6.060   4.559  10.410
65753SOL    HW299093   5.973   4.515  10.294
65754SOL     OW99094   7.962   8.641   0.567
65754SOL    HW199095   8.041   8.640   0.622
65754SOL    HW299096   7.961   8.556   0.525
65755SOL     OW99097   0.557  14.690   0.478
65755SOL    HW199098   0.542  14.669   0.571
65755SOL    HW299099   0.473  14.726   0.448
65756SOL     OW99100   6.076  14.853   1.284
65756SOL    HW199101   6.037  14.798   1.216
65756SOL    HW299102   6.163  14.815   1.298
65757SOL     OW99103  12.658   7.869   2.537
65757SOL    HW199104  12.714   7.796   2.561
65757SOL    HW299105  12.718   7.936   2.505
65758SOL     OW99106   4.501   1.848  10.184
65758SOL    HW199107   4.406   1.851  10.180
65758SOL    HW299108   4.524   1.762  10.148
65759SOL     OW99109   5.658   0.648   3.587
65759SOL    HW199110   5.650   0.553   3.593
65759SOL    HW299111   5.685   0.675   3.675
65760SOL     OW99112  13.278   6.716  12.078
65760SOL    HW199113  13.192   6.720  12.119
65760SOL    HW299114  13.297   6.622  12.072
65761SOL     OW99115   3.905  14.039   8.261
65761SOL    HW199116   3.898  14.022   8.167
65761SOL    HW299117   3.891  13.953   8.301
65762SOL     OW99118   6.251   9.869   3.384
65762SOL    HW199119   6.159   9.896   3.382
65762SOL    HW299120   6.297   9.938   3.337
65763SOL     OW99121  13.182  13.120   7.574
65763SOL    HW199122  13.245  13.149   7.508
65763SOL    HW299123  13.104  13.097   7.524
65764SOL     OW99124  14.170   0.017  13.891
65764SOL    HW199125  14.166   0.063  13.807
65764SOL    HW299126  14.079  14.877  13.913
65765SOL     OW99127   7.580   1.447   2.059
65765SOL    HW199128   7.499   1.490   2.032
65765SOL    HW299129   7.626   1.428   1.978
65766SOL     OW99130   2.354  13.987  11.192
65766SOL    HW199131   2.339  13.934  11.114
65766SOL    HW299132   2.284  14.052  11.192
65767SOL     OW99133   0.631   6.963   5.301
65767SOL    HW199134   0.640   6.921   5.387
65767SOL    HW299135   0.603   6.893   5.243
65768SOL     OW99136  13.642  12.415   3.027
65768SOL    HW199137  13.735  12.411   3.007
65768SOL    HW299138  13.638  12.427   3.122
65769SOL     OW99139   0.372   9.439   7.811
65769SOL    HW199140   0.321   9.401   7.740
65769SOL    HW299141   0.311   9.498   7.855
65770SOL     OW99142   4.087  14.428  13.168
65770SOL    HW199143   4.069  14.398  13.257
65770SOL    HW299144   4.183  14.422  13.160
65771SOL     OW99145   7.852   6.357   3.219
65771SOL    HW199146   7.820   6.337   3.131
65771SOL    HW299147   7.852   6.452   3.223
65772SOL     OW99148  12.592   1.674  10.378
65772SOL    HW199149  12.536   1.602  10.351
65772SOL    HW299150  12.534   1.750  10.380
65773SOL     OW99151   1.350  14.190  13.300
65773SOL    HW199152   1.335  14.284  13.305
65773SOL    HW299153   1.293  14.160  13.229
65774SOL     OW99154   7.488  13.436  13.810
65774SOL    HW199155   7.546  13.453  13.884
65774SOL    HW299156   7.500  13.342  13.792
65775SOL     OW99157  14.804   4.634   9.391
65775SOL    HW199158  14.788   4.716   9.438
65775SOL    HW299159   0.020   4.622   9.394
65776SOL     OW99160   9.834  13.201  11.179
65776SOL    HW199161   9.928  13.194  11.193
65776SOL    HW299162   9.796  13.128  11.228
65777SOL     OW99163   8.531   6.321   0.549
65777SOL    HW199164   8.440   6.343   0.529
65777SOL    HW299165   8.526   6.258   0.621
65778SOL     OW99166   6.341   8.161  12.420
65778SOL    HW199167   6.366   8.237  12.474
65778SOL    HW299168   6.272   8.118  12.472
65779SOL     OW99169   9.526   5.395   5.541
65779SOL    HW199170   9.529   5.370   5.634
65779SOL    HW299171   9.438   5.431   5.529
65780SOL     OW99172  14.481   3.398   9.163
65780SOL    HW199173  14.497   3.349   9.083
65780SOL    HW299174  14.554   3.375   9.221
65781SOL     OW99175   7.530   3.430   8.919
65781SOL    HW199176   7.562   3.512   8.957
65781SOL    HW299177   7.594   3.408   8.852
65782SOL     OW99178   9.411   7.492   4.503
65782SOL    HW199179   9.329   7.477   4.549
65782SOL    HW299180   9.385   7.530   4.419
65783SOL     OW99181   7.724  11.986   4.684
65783SOL    HW199182   7.794  11.987   4.619
65783SOL    HW299183   7.724  11.896   4.718
65784SOL     OW99184  10.576   3.247   6.256
65784SOL    HW199185  10.510   3.178   6.251
65784SOL    HW299186  10.633   3.220   6.328
65785SOL     OW99187  14.075   7.929   1.416
65785SOL    HW199188  14.048   7.982   1.492
65785SOL    HW299189  14.156   7.887   1.445
65786SOL     OW99190   5.751  12.434   1.554
65786SOL    HW199191   5.835  12.455   1.512
65786SOL    HW299192   5.712  12.367   1.499
65787SOL     OW99193   4.134   0.137  14.342
65787SOL    HW199194   4.094   0.107  14.423
65787SOL    HW299195   4.197   0.204  14.369
65788SOL     OW99196   7.054  14.822  12.879
65788SOL    HW199197   7.032  14.747  12.824
65788SOL    HW299198   7.108  14.785  12.949
65789SOL     OW99199   5.303   7.751   2.043
65789SOL    HW199200   5.367   7.727   2.110
65789SOL    HW299201   5.284   7.669   1.997
65790SOL     OW99202  13.991   5.842   8.203
65790SOL    HW199203  13.945   5.925   8.214
65790SOL    HW299204  14.022   5.820   8.291
65791SOL     OW99205  10.468   6.019   0.148
65791SOL    HW199206  10.457   6.026   0.053
65791SOL    HW299207  10.509   5.934   0.161
65792SOL     OW99208   1.500  11.017   3.567
65792SOL    HW199209   1.503  10.982   3.478
65792SOL    HW299210   1.409  11.004   3.594
65793SOL     OW99211   3.571   9.205   5.468
65793SOL    HW199212   3.559   9.142   5.396
65793SOL    HW299213   3.485   9.211   5.509
65794SOL     OW99214   3.537  12.333  12.284
65794SOL    HW199215   3.517  12.254  12.233
65794SOL    HW299216   3.632  12.330  12.296
65795SOL     OW99217   5.641   7.754  14.317
65795SOL    HW199218   5.670   7.685  14.257
65795SOL    HW299219   5.685   7.734  14.400
65796SOL     OW99220  11.887  13.386   9.129
65796SOL    HW199221  11.833  13.340   9.192
65796SOL    HW299222  11.876  13.479   9.151
65797SOL     OW99223   1.086   4.794   5.074
65797SOL    HW199224   1.053   4.883   5.057
65797SOL    HW299225   1.013   4.750   5.119
65798SOL     OW99226   7.683   5.722   9.570
65798SOL    HW199227   7.634   5.648   9.607
65798SOL    HW299228   7.724   5.764   9.646
65799SOL     OW99229  14.333   6.135  13.041
65799SOL    HW199230  14.284   6.056  13.022
65799SOL    HW299231  14.266   6.200  13.063
65800SOL     OW99232   1.843  14.775  10.349
65800SOL    HW199233   1.762  14.798  10.304
65800SOL    HW299234   1.856  14.682  10.330
65801SOL     OW99235   6.881  11.685   2.050
65801SOL    HW199236   6.896  11.748   1.979
65801SOL    HW299237   6.969  11.657   2.075
65802SOL     OW99238   7.714  14.525   5.341
65802SOL    HW199239   7.716  14.441   5.296
65802SOL    HW299240   7.803  14.536   5.374
65803SOL     OW99241   7.890  11.018   1.451
65803SOL    HW199242   7.866  10.932   1.417
65803SOL    HW299243   7.924  11.066   1.376
65804SOL     OW99244  14.488   0.262  11.507
65804SOL    HW199245  14.432   0.189  11.480
65804SOL    HW299246  14.569   0.221  11.537
65805SOL     OW99247   3.572   9.269   3.466
65805SOL    HW199248   3.589   9.196   3.526
65805SOL    HW299249   3.513   9.233   3.401
65806SOL     OW99250   8.311   8.785  12.749
65806SOL    HW199251   8.338   8.811  12.661
65806SOL    HW299252   8.346   8.854  12.806
65807SOL     OW99253   6.575  10.899  13.531
65807SOL    HW199254   6.657  10.858  13.504
65807SOL    HW299255   6.569  10.880  13.625
65808SOL     OW99256   3.592   8.688  11.742
65808SOL    HW199257   3.593   8.596  11.717
65808SOL    HW299258   3.602   8.687  11.837
65809SOL     OW99259   8.309   4.178   8.501
65809SOL    HW199260   8.380   4.151   8.561
65809SOL    HW299261   8.353   4.229   8.433
65810SOL     OW99262   5.571   2.107   2.333
65810SOL    HW199263   5.650   2.077   2.288
65810SOL    HW299264   5.532   2.027   2.368
65811SOL     OW99265   4.592   3.143   1.091
65811SOL    HW199266   4.668   3.169   1.144
65811SOL    HW299267   4.523   3.128   1.156
65812SOL     OW99268  14.384   4.694   3.615
65812SOL    HW199269  14.349   4.608   3.638
65812SOL    HW299270  14.352   4.710   3.526
65813SOL     OW99271   9.244  14.721  12.779
65813SOL    HW199272   9.246  14.685  12.868
65813SOL    HW299273   9.157  14.762  12.771
65814SOL     OW99274   6.268   6.400  14.748
65814SOL    HW199275   6.288   6.492  14.766
65814SOL    HW299276   6.311   6.351  14.818
65815SOL     OW99277   3.966   4.191   7.420
65815SOL    HW199278   4.040   4.136   7.400
65815SOL    HW299279   3.919   4.201   7.337
65816SOL     OW99280   7.525   0.637   9.972
65816SOL    HW199281   7.533   0.607   9.881
65816SOL    HW299282   7.433   0.663   9.979
65817SOL     OW99283  10.478   9.233  11.773
65817SOL    HW199284  10.468   9.163  11.709
65817SOL    HW299285  10.541   9.293  11.734
65818SOL     OW99286   4.346  14.700   2.139
65818SOL    HW199287   4.332  14.789   2.170
65818SOL    HW299288   4.257  14.666   2.124
65819SOL     OW99289   4.649   4.480   8.927
65819SOL    HW199290   4.593   4.463   8.851
65819SOL    HW299291   4.595   4.456   9.002
65820SOL     OW99292   8.201   0.144  13.295
65820SOL    HW199293   8.265   0.073  13.289
65820SOL    HW299294   8.131   0.117  13.236
65821SOL     OW99295  14.164  13.378  10.895
65821SOL    HW199296  14.126  13.370  10.807
65821SOL    HW299297  14.257  13.394  10.879
65822SOL     OW99298   7.387  11.404  11.876
65822SOL    HW199299   7.344  11.444  11.801
65822SOL    HW299300   7.478  11.391  11.847
65823SOL     OW99301   5.974   7.764   3.622
65823SOL    HW199302   5.886   7.746   3.655
65823SOL    HW299303   5.978   7.715   3.540
65824SOL     OW99304   5.895   8.681  13.968
65824SOL    HW199305   5.857   8.766  13.987
65824SOL    HW299306   5.929   8.690  13.878
65825SOL     OW99307   7.294   6.158   8.929
65825SOL    HW199308   7.383   6.154   8.965
65825SOL    HW299309   7.278   6.070   8.895
65826SOL     OW99310   4.387   6.039  14.574
65826SOL    HW199311   4.307   5.995  14.601
65826SOL    HW299312   4.390   6.119  14.627
65827SOL     OW99313   8.646  13.360   9.512
65827SOL    HW199314   8.714  13.318   9.565
65827SOL    HW299315   8.602  13.420   9.572
65828SOL     OW99316   3.414   5.801   0.036
65828SOL    HW199317   3.425   5.855   0.114
65828SOL    HW299318   3.497   5.809  14.867
65829SOL     OW99319  10.580   4.223   7.888
65829SOL    HW199320  10.529   4.284   7.835
65829SOL    HW299321  10.637   4.280   7.941
65830SOL     OW99322   6.988   6.754   9.116
65830SOL    HW199323   7.058   6.790   9.063
65830SOL    HW299324   6.923   6.724   9.053
65831SOL     OW99325   2.947   1.839  14.344
65831SOL    HW199326   2.890   1.910  14.315
65831SOL    HW299327   3.031   1.857  14.303
65832SOL     OW99328  11.985   1.720  13.930
65832SOL    HW199329  11.994   1.628  13.952
65832SOL    HW299330  11.932   1.757  14.000
65833SOL     OW99331   4.849  12.914   0.533
65833SOL    HW199332   4.820  12.825   0.555
65833SOL    HW299333   4.803  12.935   0.452
65834SOL     OW99334   9.338   0.855   3.919
65834SOL    HW199335   9.399   0.917   3.960
65834SOL    HW299336   9.381   0.829   3.838
65835SOL     OW99337  11.054  12.930   1.028
65835SOL    HW199338  11.028  13.021   1.041
65835SOL    HW299339  10.986  12.879   1.072
65836SOL     OW99340   6.091   2.630   6.869
65836SOL    HW199341   6.012   2.676   6.898
65836SOL    HW299342   6.123   2.586   6.947
65837SOL     OW99343   4.554   2.875  11.309
65837SOL    HW199344   4.608   2.918  11.375
65837SOL    HW299345   4.589   2.907  11.225
65838SOL     OW99346   1.544  10.442   8.290
65838SOL    HW199347   1.572  10.376   8.355
65838SOL    HW299348   1.553  10.397   8.206
65839SOL     OW99349  10.996   3.659   8.843
65839SOL    HW199350  10.963   3.615   8.922
65839SOL    HW299351  11.028   3.743   8.874
65840SOL     OW99352   4.903   4.456   3.855
65840SOL    HW199353   4.996   4.469   3.839
65840SOL    HW299354   4.862   4.466   3.769
65841SOL     OW99355   8.768   3.134   7.816
65841SOL    HW199356   8.710   3.059   7.830
65841SOL    HW299357   8.730   3.181   7.742
65842SOL     OW99358   3.393   0.912   3.506
65842SOL    HW199359   3.413   0.972   3.578
65842SOL    HW299360   3.298   0.918   3.495
65843SOL     OW99361   7.328   0.787  10.177
65843SOL    HW199362   7.373   0.729  10.238
65843SOL    HW299363   7.276   0.728  10.122
65844SOL     OW99364   3.690   8.697   0.099
65844SOL    HW199365   3.767   8.752   0.116
65844SOL    HW299366   3.615   8.756   0.112
65845SOL     OW99367  13.720   6.552  12.249
65845SOL    HW199368  13.809   6.566  12.218
65845SOL    HW299369  13.724   6.568  12.344
65846SOL     OW99370  13.498   4.060   1.977
65846SOL    HW199371  13.455   4.137   2.012
65846SOL    HW299372  13.527   4.011   2.055
65847SOL     OW99373   4.084   2.582   0.704
65847SOL    HW199374   4.173   2.595   0.673
65847SOL    HW299375   4.074   2.646   0.775
65848SOL     OW99376   1.919   7.317   6.721
65848SOL    HW199377   1.932   7.241   6.778
65848SOL    HW299378   2.007   7.339   6.689
65849SOL     OW99379  10.028   9.886   7.061
65849SOL    HW199380  10.091   9.816   7.047
65849SOL    HW299381  10.049   9.951   6.993
65850SOL     OW99382  14.597   1.981   7.279
65850SOL    HW199383  14.690   2.002   7.274
65850SOL    HW299384  14.568   1.978   7.188
65851SOL     OW99385  11.478   7.763   7.894
65851SOL    HW199386  11.446   7.768   7.804
65851SOL    HW299387  11.573   7.750   7.885
65852SOL     OW99388   5.508   1.948  11.867
65852SOL    HW199389   5.515   1.986  11.955
65852SOL    HW299390   5.586   1.979  11.821
65853SOL     OW99391   8.721  12.931   1.037
65853SOL    HW199392   8.656  12.943   0.968
65853SOL    HW299393   8.788  12.996   1.017
65854SOL     OW99394   8.702  14.043   1.358
65854SOL    HW199395   8.726  14.108   1.423
65854SOL    HW299396   8.785  14.018   1.318
65855SOL     OW99397  14.033   7.335  10.226
65855SOL    HW199398  14.077   7.402  10.174
65855SOL    HW299399  13.946   7.327  10.186
65856SOL     OW99400   7.698   3.116   7.687
65856SOL    HW199401   7.762   3.054   7.651
65856SOL    HW299402   7.685   3.180   7.617
65857SOL     OW99403   1.373   1.129   6.626
65857SOL    HW199404   1.388   1.065   6.695
65857SOL    HW299405   1.438   1.107   6.558
65858SOL     OW99406   6.260  14.801   6.587
65858SOL    HW199407   6.239  14.839   6.502
65858SOL    HW299408   6.344  14.758   6.574
65859SOL     OW99409  14.083   5.748   2.466
65859SOL    HW199410  14.129   5.727   2.385
65859SOL    HW299411  14.132   5.822   2.503
65860SOL     OW99412  12.267   0.925   4.843
65860SOL    HW199413  12.185   0.975   4.848
65860SOL    HW299414  12.249   0.855   4.780
65861SOL     OW99415  14.623   7.838   3.052
65861SOL    HW199416  14.707   7.811   3.089
65861SOL    HW299417  14.641   7.922   3.009
65862SOL     OW99418  12.735  10.240   2.103
65862SOL    HW199419  12.716  10.176   2.171
65862SOL    HW299420  12.718  10.325   2.145
65863SOL     OW99421  14.553  13.097  10.208
65863SOL    HW199422  14.556  13.057  10.121
65863SOL    HW299423  14.629  13.155  10.210
65864SOL     OW99424   2.135  12.822  10.006
65864SOL    HW199425   2.196  12.839  10.078
65864SOL    HW299426   2.071  12.893  10.013
65865SOL     OW99427   8.018   3.876  12.943
65865SOL    HW199428   8.034   3.905  13.033
65865SOL    HW299429   8.082   3.924  12.891
65866SOL     OW99430   8.519   7.611   4.209
65866SOL    HW199431   8.503   7.526   4.169
65866SOL    HW299432   8.551   7.591   4.297
65867SOL     OW99433   2.879  14.437   5.468
65867SOL    HW199434   2.970  14.459   5.448
65867SOL    HW299435   2.832  14.520   5.461
65868SOL     OW99436   0.031   5.894   6.353
65868SOL    HW199437  14.817   5.896   6.376
65868SOL    HW299438   0.066   5.977   6.387
65869SOL     OW99439   4.408   5.318  14.132
65869SOL    HW199440   4.392   5.243  14.075
65869SOL    HW299441   4.323   5.338  14.171
65870SOL     OW99442   1.478  11.190   9.738
65870SOL    HW199443   1.441  11.271   9.703
65870SOL    HW299444   1.417  11.122   9.711
65871SOL     OW99445  12.225  11.134   0.545
65871SOL    HW199446  12.248  11.168   0.632
65871SOL    HW299447  12.188  11.209   0.499
65872SOL     OW99448  12.757   8.723   4.028
65872SOL    HW199449  12.803   8.775   4.093
65872SOL    HW299450  12.700   8.665   4.079
65873SOL     OW99451  12.172   7.030  13.093
65873SOL    HW199452  12.267   7.024  13.089
65873SOL    HW299453  12.148   7.079  13.014
65874SOL     OW99454  12.537   0.209   7.554
65874SOL    HW199455  12.517   0.256   7.635
65874SOL    HW299456  12.632   0.197   7.555
65875SOL     OW99457  12.392   9.728   7.065
65875SOL    HW199458  12.406   9.742   6.971
65875SOL    HW299459  12.325   9.660   7.069
65876SOL     OW99460  14.845  11.918   6.581
65876SOL    HW199461   0.023  11.851   6.543
65876SOL    HW299462  14.791  11.871   6.645
65877SOL     OW99463  12.271  12.089  14.176
65877SOL    HW199464  12.273  12.018  14.111
65877SOL    HW299465  12.191  12.074  14.226
65878SOL     OW99466  11.359   1.546  11.062
65878SOL    HW199467  11.389   1.484  11.128
65878SOL    HW299468  11.366   1.497  10.979
65879SOL     OW99469  11.518   3.698   7.072
65879SOL    HW199470  11.507   3.792   7.082
65879SOL    HW299471  11.525   3.684   6.977
65880SOL     OW99472  12.867   9.443   7.468
65880SOL    HW199473  12.858   9.408   7.557
65880SOL    HW299474  12.860   9.538   7.479
65881SOL     OW99475   8.284  10.880   7.838
65881SOL    HW199476   8.214  10.822   7.866
65881SOL    HW299477   8.364  10.834   7.863
65882SOL     OW99478  10.994  10.554   4.353
65882SOL    HW199479  10.928  10.512   4.299
65882SOL    HW299480  10.947  10.627   4.395
65883SOL     OW99481   8.756   3.066   1.086
65883SOL    HW199482   8.669   3.106   1.076
65883SOL    HW299483   8.795   3.070   0.999
65884SOL     OW99484   3.688   8.535   7.394
65884SOL    HW199485   3.754   8.500   7.335
65884SOL    HW299486   3.606   8.532   7.344
65885SOL     OW99487   2.714  10.800   3.939
65885SOL    HW199488   2.723  10.827   4.030
65885SOL    HW299489   2.684  10.878   3.893
65886SOL     OW99490   0.273   3.801  12.836
65886SOL    HW199491   0.269   3.885  12.791
65886SOL    HW299492   0.346   3.755  12.795
65887SOL     OW99493   7.986   0.310  10.904
65887SOL    HW199494   8.015   0.401  10.894
65887SOL    HW299495   8.030   0.280  10.983
65888SOL     OW99496   5.495   5.722   7.023
65888SOL    HW199497   5.443   5.716   7.104
65888SOL    HW299498   5.586   5.731   7.053
65889SOL     OW99499   3.049   7.115   0.742
65889SOL    HW199500   3.090   7.062   0.810
65889SOL    HW299501   2.955   7.101   0.754
65890SOL     OW99502   4.277   5.572   1.783
65890SOL    HW199503   4.256   5.478   1.777
65890SOL    HW299504   4.196   5.616   1.757
65891SOL     OW99505  14.392  11.605   8.115
65891SOL    HW199506  14.428  11.530   8.162
65891SOL    HW299507  14.385  11.673   8.181
65892SOL     OW99508   0.842   6.527   2.599
65892SOL    HW199509   0.845   6.577   2.517
65892SOL    HW299510   0.870   6.588   2.666
65893SOL     OW99511  14.187  12.933  14.528
65893SOL    HW199512  14.186  12.935  14.432
65893SOL    HW299513  14.276  12.906  14.551
65894SOL     OW99514   8.892  12.934  11.327
65894SOL    HW199515   8.811  12.934  11.275
65894SOL    HW299516   8.940  13.011  11.296
65895SOL     OW99517   8.601   1.409   2.633
65895SOL    HW199518   8.621   1.439   2.544
65895SOL    HW299519   8.684   1.413   2.679
65896SOL     OW99520   4.305   9.931   5.692
65896SOL    HW199521   4.343   9.900   5.774
65896SOL    HW299522   4.380   9.948   5.635
65897SOL     OW99523   8.464   3.595   1.767
65897SOL    HW199524   8.455   3.514   1.717
65897SOL    HW299525   8.374   3.621   1.787
65898SOL     OW99526   8.749   3.687  11.236
65898SOL    HW199527   8.726   3.610  11.184
65898SOL    HW299528   8.696   3.758  11.199
65899SOL     OW99529  11.125   8.781  11.692
65899SOL    HW199530  11.123   8.706  11.633
65899SOL    HW299531  11.043   8.774  11.742
65900SOL     OW99532  14.720   0.705  14.609
65900SOL    HW199533  14.640   0.661  14.581
65900SOL    HW299534  14.754   0.747  14.529
65901SOL     OW99535  10.428  12.477   1.137
65901SOL    HW199536  10.411  12.511   1.050
65901SOL    HW299537  10.350  12.499   1.188
65902SOL     OW99538   7.669   2.580  10.706
65902SOL    HW199539   7.666   2.541  10.793
65902SOL    HW299540   7.606   2.530  10.655
65903SOL     OW99541  13.659   6.163   6.973
65903SOL    HW199542  13.568   6.178   6.946
65903SOL    HW299543  13.661   6.072   7.001
65904SOL     OW99544   0.474   6.533   2.375
65904SOL    HW199545   0.521   6.616   2.382
65904SOL    HW299546   0.432   6.537   2.289
65905SOL     OW99547   6.323  11.998  12.902
65905SOL    HW199548   6.391  12.002  12.835
65905SOL    HW299549   6.246  11.963  12.856
65906SOL     OW99550  13.412   0.924  11.912
65906SOL    HW199551  13.453   1.010  11.901
65906SOL    HW299552  13.381   0.924  12.003
65907SOL     OW99553   7.057  12.956   7.648
65907SOL    HW199554   7.089  12.956   7.558
65907SOL    HW299555   6.963  12.940   7.640
65908SOL     OW99556   9.720  12.854  10.187
65908SOL    HW199557   9.676  12.934  10.159
65908SOL    HW299558   9.810  12.882  10.205
65909SOL     OW99559   8.487  12.580   7.726
65909SOL    HW199560   8.550  12.520   7.766
65909SOL    HW299561   8.408  12.527   7.713
65910SOL     OW99562  13.937   6.732  10.120
65910SOL    HW199563  13.850   6.752  10.085
65910SOL    HW299564  13.924   6.722  10.214
65911SOL     OW99565   9.979   0.493   8.718
65911SOL    HW199566   9.971   0.427   8.648
65911SOL    HW299567   9.988   0.576   8.671
65912SOL     OW99568   0.808   5.466   4.006
65912SOL    HW199569   0.772   5.505   3.927
65912SOL    HW299570   0.892   5.509   4.019
65913SOL     OW99571   1.725   5.734  12.316
65913SOL    HW199572   1.754   5.825  12.315
65913SOL    HW299573   1.670   5.727  12.393
65914SOL     OW99574  10.038   3.910   2.111
65914SOL    HW199575   9.960   3.939   2.064
65914SOL    HW299576  10.110   3.926   2.049
65915SOL     OW99577   7.352   1.356   1.043
65915SOL    HW199578   7.354   1.306   1.124
65915SOL    HW299579   7.266   1.398   1.043
65916SOL     OW99580   9.618  10.892  11.686
65916SOL    HW199581   9.654  10.921  11.602
65916SOL    HW299582   9.638  10.798  11.689
65917SOL     OW99583   4.359  14.672   8.705
65917SOL    HW199584   4.387  14.600   8.761
65917SOL    HW299585   4.435  14.729   8.698
65918SOL     OW99586   1.764  10.023  12.070
65918SOL    HW199587   1.732   9.937  12.045
65918SOL    HW299588   1.708  10.048  12.144
65919SOL     OW99589   8.600   3.035   3.787
65919SOL    HW199590   8.633   2.992   3.708
65919SOL    HW299591   8.630   2.980   3.859
65920SOL     OW99592   2.044   7.614   6.230
65920SOL    HW199593   2.064   7.706   6.248
65920SOL    HW299594   2.125   7.578   6.194
65921SOL     OW99595   4.234  14.245   4.583
65921SOL    HW199596   4.214  14.216   4.494
65921SOL    HW299597   4.257  14.166   4.630
65922SOL     OW99598   5.350   2.627   6.899
65922SOL    HW199599   5.282   2.688   6.871
65922SOL    HW299600   5.410   2.681   6.951
65923SOL     OW99601   7.899  10.827   7.759
65923SOL    HW199602   7.964  10.801   7.824
65923SOL    HW299603   7.857  10.905   7.796
65924SOL     OW99604   5.939   0.196   2.804
65924SOL    HW199605   5.877   0.214   2.733
65924SOL    HW299606   5.884   0.186   2.882
65925SOL     OW99607   3.658  10.578  14.554
65925SOL    HW199608   3.623  10.506  14.502
65925SOL    HW299609   3.582  10.610  14.603
65926SOL     OW99610   7.474   5.347   6.370
65926SOL    HW199611   7.468   5.320   6.461
65926SOL    HW299612   7.384   5.370   6.346
65927SOL     OW99613   7.863  12.915   2.772
65927SOL    HW199614   7.886  12.951   2.858
65927SOL    HW299615   7.799  12.847   2.791
65928SOL     OW99616   0.488  11.755   8.771
65928SOL    HW199617   0.573  11.796   8.783
65928SOL    HW299618   0.425  11.825   8.789
65929SOL     OW99619   4.026  14.670  13.919
65929SOL    HW199620   4.001  14.614  13.846
65929SOL    HW299621   3.987  14.755  13.899
65930SOL     OW99622  11.161  10.121  13.644
65930SOL    HW199623  11.158  10.045  13.702
65930SOL    HW299624  11.250  10.121  13.610
65931SOL     OW99625   3.853   7.847  12.296
65931SOL    HW199626   3.814   7.933  12.314
65931SOL    HW299627   3.793   7.806  12.234
65932SOL     OW99628  14.262  12.493   1.810
65932SOL    HW199629  14.211  12.458   1.737
65932SOL    HW299630  14.197  12.536   1.865
65933SOL     OW99631  11.814   7.419   4.648
65933SOL    HW199632  11.795   7.435   4.555
65933SOL    HW299633  11.795   7.503   4.691
65934SOL     OW99634   6.775   6.041   4.085
65934SOL    HW199635   6.719   5.981   4.134
65934SOL    HW299636   6.863   6.026   4.119
65935SOL     OW99637  13.639   0.734  11.485
65935SOL    HW199638  13.612   0.791  11.413
65935SOL    HW299639  13.627   0.645  11.451
65936SOL     OW99640   2.823   4.384   0.752
65936SOL    HW199641   2.912   4.378   0.786
65936SOL    HW299642   2.823   4.464   0.699
65937SOL     OW99643   2.475   1.935  13.869
65937SOL    HW199644   2.446   1.849  13.840
65937SOL    HW299645   2.463   1.991  13.792
65938SOL     OW99646   9.405   1.593  11.839
65938SOL    HW199647   9.319   1.621  11.808
65938SOL    HW299648   9.463   1.667  11.820
65939SOL     OW99649  12.880   2.890   6.159
65939SOL    HW199650  12.872   2.938   6.077
65939SOL    HW299651  12.948   2.824   6.143
65940SOL     OW99652   0.634   3.600   9.627
65940SOL    HW199653   0.560   3.625   9.571
65940SOL    HW299654   0.603   3.615   9.716
65941SOL     OW99655  12.040   8.614   3.249
65941SOL    HW199656  11.971   8.584   3.190
65941SOL    HW299657  12.110   8.550   3.239
65942SOL     OW99658  14.106   1.033   1.455
65942SOL    HW199659  14.162   1.101   1.418
65942SOL    HW299660  14.060   1.076   1.527
65943SOL     OW99661  14.115   9.971  12.414
65943SOL    HW199662  14.041   9.931  12.367
65943SOL    HW299663  14.105  10.065  12.398
65944SOL     OW99664   4.102  13.467   0.612
65944SOL    HW199665   4.051  13.546   0.596
65944SOL    HW299666   4.192  13.499   0.627
65945SOL     OW99667  12.107   2.592   8.819
65945SOL    HW199668  12.015   2.600   8.792
65945SOL    HW299669  12.151   2.554   8.743
65946SOL     OW99670   5.721  12.196   9.921
65946SOL    HW199671   5.782  12.250   9.870
65946SOL    HW299672   5.727  12.109   9.882
65947SOL     OW99673   3.286   9.934  12.519
65947SOL    HW199674   3.376   9.962  12.534
65947SOL    HW299675   3.233  10.012  12.540
65948SOL     OW99676   4.988   3.271   5.184
65948SOL    HW199677   5.053   3.339   5.167
65948SOL    HW299678   4.904   3.312   5.165
65949SOL     OW99679   9.769   7.571   5.561
65949SOL    HW199680   9.774   7.505   5.491
65949SOL    HW299681   9.803   7.651   5.521
65950SOL     OW99682   5.060   8.212   2.357
65950SOL    HW199683   5.019   8.179   2.277
65950SOL    HW299684   5.011   8.170   2.428
65951SOL     OW99685   1.251   1.679  13.717
65951SOL    HW199686   1.328   1.716  13.674
65951SOL    HW299687   1.177   1.729  13.682
65952SOL     OW99688  12.525  10.869   1.784
65952SOL    HW199689  12.441  10.831   1.761
65952SOL    HW299690  12.582  10.849   1.710
65953SOL     OW99691   0.833   0.489  10.917
65953SOL    HW199692   0.862   0.400  10.894
65953SOL    HW299693   0.850   0.541  10.838
65954SOL     OW99694   3.884   9.592   9.102
65954SOL    HW199695   3.818   9.524   9.104
65954SOL    HW299696   3.932   9.583   9.184
65955SOL     OW99697  11.507  10.848   5.956
65955SOL    HW199698  11.550  10.805   6.030
65955SOL    HW299699  11.445  10.783   5.924
65956SOL     OW99700   4.740   5.083   8.082
65956SOL    HW199701   4.793   5.136   8.022
65956SOL    HW299702   4.650   5.101   8.056
65957SOL     OW99703   8.329   8.646  14.427
65957SOL    HW199704   8.306   8.607  14.343
65957SOL    HW299705   8.250   8.690  14.457
65958SOL     OW99706   3.715   1.063   0.127
65958SOL    HW199707   3.717   1.153   0.159
65958SOL    HW299708   3.724   1.009   0.206
65959SOL     OW99709   2.906  11.994   2.912
65959SOL    HW199710   2.925  12.002   3.005
65959SOL    HW299711   2.884  12.083   2.884
65960SOL     OW99712   3.450   4.862   7.752
65960SOL    HW199713   3.366   4.894   7.719
65960SOL    HW299714   3.431   4.830   7.840
65961SOL     OW99715   6.484   2.295   1.318
65961SOL    HW199716   6.539   2.368   1.289
65961SOL    HW299717   6.451   2.257   1.236
65962SOL     OW99718   2.155   5.396   4.254
65962SOL    HW199719   2.219   5.409   4.184
65962SOL    HW299720   2.206   5.403   4.335
65963SOL     OW99721   2.357  12.825  12.596
65963SOL    HW199722   2.326  12.877  12.670
65963SOL    HW299723   2.395  12.746  12.636
65964SOL     OW99724   8.770   3.173   1.375
65964SOL    HW199725   8.705   3.143   1.311
65964SOL    HW299726   8.828   3.230   1.324
65965SOL     OW99727  13.653  12.805  10.097
65965SOL    HW199728  13.732  12.782  10.046
65965SOL    HW299729  13.582  12.803  10.033
65966SOL     OW99730   6.250  14.153  12.671
65966SOL    HW199731   6.293  14.201  12.741
65966SOL    HW299732   6.291  14.066  12.672
65967SOL     OW99733   1.882  11.995  10.644
65967SOL    HW199734   1.819  12.062  10.620
65967SOL    HW299735   1.831  11.913  10.643
65968SOL     OW99736   1.793  14.498   9.009
65968SOL    HW199737   1.859  14.561   9.039
65968SOL    HW299738   1.712  14.549   9.007
65969SOL     OW99739   7.901   6.418   0.732
65969SOL    HW199740   7.857   6.410   0.647
65969SOL    HW299741   7.938   6.332   0.748
65970SOL     OW99742  11.609  11.367   5.365
65970SOL    HW199743  11.535  11.325   5.320
65970SOL    HW299744  11.570  11.407   5.442
65971SOL     OW99745   2.829   3.025  12.861
65971SOL    HW199746   2.848   3.112  12.828
65971SOL    HW299747   2.750   3.037  12.914
65972SOL     OW99748   6.452  14.317  11.967
65972SOL    HW199749   6.455  14.319  12.063
65972SOL    HW299750   6.514  14.386  11.940
65973SOL     OW99751   4.341   5.881   3.029
65973SOL    HW199752   4.422   5.834   3.050
65973SOL    HW299753   4.360   5.972   3.053
65974SOL     OW99754   0.692   2.164  14.667
65974SOL    HW199755   0.664   2.197  14.752
65974SOL    HW299756   0.716   2.243  14.618
65975SOL     OW99757  11.628  11.368   8.383
65975SOL    HW199758  11.682  11.430   8.431
65975SOL    HW299759  11.565  11.336   8.447
65976SOL     OW99760   3.843   1.914   7.281
65976SOL    HW199761   3.882   1.937   7.197
65976SOL    HW299762   3.893   1.838   7.311
65977SOL     OW99763   8.954   6.123  12.496
65977SOL    HW199764   8.909   6.038  12.491
65977SOL    HW299765   8.951   6.147  12.588
65978SOL     OW99766   9.299   2.191  14.186
65978SOL    HW199767   9.218   2.152  14.152
65978SOL    HW299768   9.270   2.255  14.251
65979SOL     OW99769  13.726   5.807  10.339
65979SOL    HW199770  13.813   5.841  10.360
65979SOL    HW299771  13.738   5.757  10.259
65980SOL     OW99772   5.697  13.989   2.004
65980SOL    HW199773   5.682  14.083   1.998
65980SOL    HW299774   5.783  13.975   1.965
65981SOL     OW99775  14.189   3.884   9.118
65981SOL    HW199776  14.236   3.813   9.074
65981SOL    HW299777  14.160   3.845   9.201
65982SOL     OW99778   6.514   6.519   4.458
65982SOL    HW199779   6.513   6.599   4.407
65982SOL    HW299780   6.425   6.513   4.494
65983SOL     OW99781  12.404  13.305  12.007
65983SOL    HW199782  12.496  13.328  12.003
65983SOL    HW299783  12.370  13.326  11.920
65984SOL     OW99784   0.438   6.303   0.751
65984SOL    HW199785   0.453   6.388   0.710
65984SOL    HW299786   0.377   6.259   0.692
65985SOL     OW99787   1.093   8.291   5.954
65985SOL    HW199788   1.187   8.308   5.945
65985SOL    HW299789   1.060   8.288   5.865
65986SOL     OW99790  10.600  14.285  14.400
65986SOL    HW199791  10.679  14.340  14.401
65986SOL    HW299792  10.544  14.322  14.468
65987SOL     OW99793   0.447  10.459   0.067
65987SOL    HW199794   0.369  10.513   0.068
65987SOL    HW299795   0.491  10.478   0.151
65988SOL     OW99796  12.950  12.610   8.022
65988SOL    HW199797  12.901  12.648   8.095
65988SOL    HW299798  12.928  12.666   7.948
65989SOL     OW99799  12.923   3.659   3.413
65989SOL    HW199800  12.955   3.570   3.428
65989SOL    HW299801  12.867   3.678   3.488
65990SOL     OW99802   7.330  11.056   3.154
65990SOL    HW199803   7.272  11.131   3.169
65990SOL    HW299804   7.274  10.989   3.116
65991SOL     OW99805   7.301   1.311   1.319
65991SOL    HW199806   7.249   1.262   1.383
65991SOL    HW299807   7.390   1.281   1.332
65992SOL     OW99808  11.114   7.338   7.872
65992SOL    HW199809  11.167   7.389   7.933
65992SOL    HW299810  11.027   7.378   7.877
65993SOL     OW99811  11.051  12.775   7.989
65993SOL    HW199812  11.056  12.717   8.066
65993SOL    HW299813  11.042  12.716   7.915
65994SOL     OW99814   5.236   1.932   8.061
65994SOL    HW199815   5.307   1.955   8.122
65994SOL    HW299816   5.281   1.893   7.986
65995SOL     OW99817  11.076   3.324   0.548
65995SOL    HW199818  10.980   3.322   0.555
65995SOL    HW299819  11.093   3.374   0.468
65996SOL     OW99820   4.263   4.676  10.039
65996SOL    HW199821   4.266   4.729  10.119
65996SOL    HW299822   4.326   4.606  10.054
65997SOL     OW99823  13.821   6.264  11.389
65997SOL    HW199824  13.891   6.319  11.354
65997SOL    HW299825  13.766   6.325  11.438
65998SOL     OW99826   6.891   4.225   5.823
65998SOL    HW199827   6.874   4.179   5.904
65998SOL    HW299828   6.931   4.160   5.765
65999SOL     OW99829   0.357   9.831   1.745
65999SOL    HW199830   0.328   9.888   1.817
65999SOL    HW299831   0.280   9.823   1.689
66000SOL     OW99832  11.102   8.395   7.193
66000SOL    HW199833  11.037   8.456   7.157
66000SOL    HW299834  11.141   8.354   7.116
66001SOL     OW99835   7.633   1.627  10.304
66001SOL    HW199836   7.552   1.661  10.266
66001SOL    HW299837   7.611   1.608  10.395
66002SOL     OW99838   8.933   8.082  13.912
66002SOL    HW199839   8.848   8.044  13.933
66002SOL    HW299840   8.966   8.116  13.995
66003SOL     OW99841   2.748  10.391   1.134
66003SOL    HW199842   2.714  10.330   1.199
66003SOL    HW299843   2.695  10.374   1.056
66004SOL     OW99844  13.430   4.877   6.404
66004SOL    HW199845  13.382   4.956   6.427
66004SOL    HW299846  13.479   4.900   6.325
66005SOL     OW99847  12.290   8.962   4.101
66005SOL    HW199848  12.319   8.961   4.192
66005SOL    HW299849  12.197   8.983   4.106
66006SOL     OW99850  10.168   3.142   3.550
66006SOL    HW199851  10.259   3.127   3.525
66006SOL    HW299852  10.165   3.121   3.643
66007SOL     OW99853  14.149   0.942  14.854
66007SOL    HW199854  14.117   0.899  14.775
66007SOL    HW299855  14.091   1.017  14.866
66008SOL     OW99856  14.866   5.887   3.674
66008SOL    HW199857  14.771   5.890   3.663
66008SOL    HW299858   0.002   5.816   3.737
66009SOL     OW99859  12.753  13.360   4.311
66009SOL    HW199860  12.793  13.370   4.225
66009SOL    HW299861  12.707  13.442   4.326
66010SOL     OW99862   4.971   3.699   5.704
66010SOL    HW199863   4.965   3.604   5.702
66010SOL    HW299864   4.924   3.725   5.783
66011SOL     OW99865   6.621   3.796   9.734
66011SOL    HW199866   6.529   3.810   9.713
66011SOL    HW299867   6.664   3.788   9.650
66012SOL     OW99868  14.784   9.561   0.940
66012SOL    HW199869  14.849   9.629   0.922
66012SOL    HW299870  14.786   9.550   1.035
66013SOL     OW99871   1.820  13.494   1.228
66013SOL    HW199872   1.865  13.465   1.148
66013SOL    HW299873   1.773  13.573   1.202
66014SOL     OW99874   4.606  13.942   7.427
66014SOL    HW199875   4.684  13.893   7.454
66014SOL    HW299876   4.624  13.967   7.336
66015SOL     OW99877   9.195   7.152   5.809
66015SOL    HW199878   9.269   7.163   5.750
66015SOL    HW299879   9.189   7.235   5.856
66016SOL     OW99880  10.236  11.192   3.742
66016SOL    HW199881  10.309  11.248   3.715
66016SOL    HW299882  10.277  11.108   3.762
66017SOL     OW99883  11.412  12.077  13.505
66017SOL    HW199884  11.409  12.066  13.410
66017SOL    HW299885  11.388  11.991  13.539
66018SOL     OW99886  10.843  11.161   6.897
66018SOL    HW199887  10.790  11.112   6.961
66018SOL    HW299888  10.784  11.174   6.823
66019SOL     OW99889  13.140   5.197  12.390
66019SOL    HW199890  13.114   5.143  12.316
66019SOL    HW299891  13.058   5.228  12.428
66020SOL     OW99892  11.164  10.988   9.899
66020SOL    HW199893  11.203  10.955   9.818
66020SOL    HW299894  11.239  11.025   9.947
66021SOL     OW99895  13.400   6.161   0.181
66021SOL    HW199896  13.436   6.134   0.096
66021SOL    HW299897  13.307   6.177   0.164
66022SOL     OW99898  14.260  11.545  12.949
66022SOL    HW199899  14.301  11.609  13.007
66022SOL    HW299900  14.169  11.541  12.978
66023SOL     OW99901  10.875  11.302   4.268
66023SOL    HW199902  10.937  11.329   4.201
66023SOL    HW299903  10.790  11.333   4.235
66024SOL     OW99904  11.648   6.222   7.987
66024SOL    HW199905  11.694   6.234   7.904
66024SOL    HW299906  11.560   6.254   7.970
66025SOL     OW99907   3.604  10.132   0.847
66025SOL    HW199908   3.511  10.124   0.827
66025SOL    HW299909   3.612  10.216   0.893
66026SOL     OW99910   2.742  11.552   9.933
66026SOL    HW199911   2.802  11.479   9.948
66026SOL    HW299912   2.762  11.581   9.844
66027SOL     OW99913  11.521   4.826   7.997
66027SOL    HW199914  11.586   4.820   7.927
66027SOL    HW299915  11.570   4.857   8.073
66028SOL     OW99916   9.462  14.185   8.852
66028SOL    HW199917   9.504  14.100   8.840
66028SOL    HW299918   9.408  14.197   8.774
66029SOL     OW99919  11.280  10.380   7.610
66029SOL    HW199920  11.326  10.338   7.682
66029SOL    HW299921  11.190  10.349   7.618
66030SOL     OW99922  12.596   8.034   6.485
66030SOL    HW199923  12.677   8.054   6.533
66030SOL    HW299924  12.527   8.039   6.552
66031SOL     OW99925   8.083   9.657   1.135
66031SOL    HW199926   7.995   9.639   1.102
66031SOL    HW299927   8.099   9.749   1.114
66032SOL     OW99928  10.645   4.488   0.296
66032SOL    HW199929  10.695   4.421   0.342
66032SOL    HW299930  10.554   4.469   0.316
66033SOL     OW99931  13.255   3.092   0.708
66033SOL    HW199932  13.169   3.077   0.668
66033SOL    HW299933  13.245   3.060   0.798
66034SOL     OW99934   5.479   0.868  10.470
66034SOL    HW199935   5.502   0.786  10.514
66034SOL    HW299936   5.493   0.850  10.377
66035SOL     OW99937   2.342  10.355  14.834
66035SOL    HW199938   2.407  10.386   0.018
66035SOL    HW299939   2.260  10.352   0.005
66036SOL     OW99940   9.323  12.972   5.256
66036SOL    HW199941   9.325  13.063   5.229
66036SOL    HW299942   9.244  12.937   5.215
66037SOL     OW99943  13.204  10.701  10.729
66037SOL    HW199944  13.164  10.671  10.810
66037SOL    HW299945  13.235  10.621  10.686
66038SOL     OW99946   5.321  11.305  12.482
66038SOL    HW199947   5.325  11.394  12.447
66038SOL    HW299948   5.309  11.249  12.405
66039SOL     OW99949  11.624  13.102   5.054
66039SOL    HW199950  11.703  13.100   5.107
66039SOL    HW299951  11.605  13.011   5.035
66040SOL     OW99952   0.031  10.131   6.224
66040SOL    HW199953   0.023  10.208   6.167
66040SOL    HW299954  14.868  10.060   6.175
66041SOL     OW99955   2.898  13.282   0.733
66041SOL    HW199956   2.802  13.288   0.731
66041SOL    HW299957   2.917  13.197   0.694
66042SOL     OW99958  14.146   9.288   8.039
66042SOL    HW199959  14.090   9.356   8.001
66042SOL    HW299960  14.198   9.335   8.104
66043SOL     OW99961   3.941   8.093   2.694
66043SOL    HW199962   3.950   8.186   2.718
66043SOL    HW299963   3.955   8.091   2.600
66044SOL     OW99964   1.568  11.665   0.347
66044SOL    HW199965   1.481  11.644   0.314
66044SOL    HW299966   1.616  11.582   0.341
66045SOL     OW99967   3.129   0.353  13.692
66045SOL    HW199968   3.181   0.310  13.624
66045SOL    HW299969   3.193   0.376  13.760
66046SOL     OW99970  11.064   2.791   2.965
66046SOL    HW199971  11.096   2.855   2.901
66046SOL    HW299972  10.970   2.785   2.948
66047SOL     OW99973   0.740   4.042  13.007
66047SOL    HW199974   0.719   3.969  13.065
66047SOL    HW299975   0.819   4.014  12.961
66048SOL     OW99976   6.994   8.359   1.352
66048SOL    HW199977   7.019   8.269   1.369
66048SOL    HW299978   6.903   8.353   1.322
66049SOL     OW99979  10.303   2.604   3.835
66049SOL    HW199980  10.398   2.596   3.829
66049SOL    HW299981  10.286   2.630   3.926
66050SOL     OW99982   8.599   6.049   1.374
66050SOL    HW199983   8.505   6.061   1.358
66050SOL    HW299984   8.627   6.132   1.413
66051SOL     OW99985   3.707   0.934  13.583
66051SOL    HW199986   3.783   0.987  13.606
66051SOL    HW299987   3.724   0.904  13.494
66052SOL     OW99988  14.163  13.059   6.430
66052SOL    HW199989  14.219  12.994   6.387
66052SOL    HW299990  14.174  13.139   6.377
66053SOL     OW99991   6.343   6.869   3.225
66053SOL    HW199992   6.247   6.873   3.218
66053SOL    HW299993   6.373   6.850   3.137
66054SOL     OW99994   8.783   5.625   1.390
66054SOL    HW199995   8.843   5.592   1.322
66054SOL    HW299996   8.776   5.552   1.452
66055SOL     OW99997  12.424  10.337  12.439
66055SOL    HW199998  12.477  10.327  12.359
66055SOL    HW299999  12.445  10.260  12.491
66056SOL     OW    0  12.348   8.189   3.417
66056SOL    HW1    1  12.398   8.113   3.386
66056SOL    HW2    2  12.389   8.264   3.374
66057SOL     OW    3   7.144  12.112   0.892
66057SOL    HW1    4   7.124  12.174   0.963
66057SOL    HW2    5   7.196  12.043   0.935
66058SOL     OW    6   5.778   5.043   9.545
66058SOL    HW1    7   5.682   5.043   9.537
66058SOL    HW2    8   5.809   5.061   9.456
66059SOL     OW    9   5.434   7.316  13.317
66059SOL    HW1   10   5.490   7.389  13.343
66059SOL    HW2   11   5.347   7.354  13.308
66060SOL     OW   12   9.061   7.535  12.974
66060SOL    HW1   13   9.068   7.442  12.954
66060SOL    HW2   14   8.971   7.547  13.005
66061SOL     OW   15   0.912   0.410  10.046
66061SOL    HW1   16   0.880   0.378   9.962
66061SOL    HW2   17   0.979   0.346  10.072
66062SOL     OW   18   7.154   9.231   3.868
66062SOL    HW1   19   7.155   9.290   3.943
66062SOL    HW2   20   7.070   9.185   3.874
66063SOL     OW   21  11.336   9.938   7.031
66063SOL    HW1   22  11.379   9.983   7.103
66063SOL    HW2   23  11.396   9.947   6.957
66064SOL     OW   24   3.964   3.775   6.750
66064SOL    HW1   25   3.891   3.816   6.796
66064SOL    HW2   26   4.019   3.740   6.820
66065SOL     OW   27   3.643   0.140  11.946
66065SOL    HW1   28   3.646   0.045  11.958
66065SOL    HW2   29   3.698   0.156  11.869
66066SOL     OW   30   5.440   2.217  14.286
66066SOL    HW1   31   5.504   2.152  14.317
66066SOL    HW2   32   5.479   2.253  14.206
66067SOL     OW   33  14.203   1.243  14.620
66067SOL    HW1   34  14.253   1.297  14.559
66067SOL    HW2   35  14.236   1.154  14.605
66068SOL     OW   36   6.848   2.186   9.585
66068SOL    HW1   37   6.826   2.105   9.537
66068SOL    HW2   38   6.764   2.232   9.594
66069SOL     OW   39  10.856   7.149   9.682
66069SOL    HW1   40  10.773   7.109   9.656
66069SOL    HW2   41  10.834   7.239   9.703
66070SOL     OW   42  13.424   7.775   8.253
66070SOL    HW1   43  13.422   7.688   8.212
66070SOL    HW2   44  13.345   7.778   8.305
66071SOL     OW   45  12.264   2.648  13.210
66071SOL    HW1   46  12.319   2.570  13.212
66071SOL    HW2   47  12.286   2.692  13.127
66072SOL     OW   48   1.941   2.635   3.431
66072SOL    HW1   49   2.015   2.592   3.473
66072SOL    HW2   50   1.958   2.729   3.442
66073SOL     OW   51   2.910  14.123   4.151
66073SOL    HW1   52   2.818  14.096   4.154
66073SOL    HW2   53   2.918  14.172   4.069
66074SOL     OW   54   3.568   7.578  13.953
66074SOL    HW1   55   3.586   7.532  13.871
66074SOL    HW2   56   3.641   7.640  13.962
66075SOL     OW   57   5.989   2.342   6.337
66075SOL    HW1   58   6.038   2.424   6.341
66075SOL    HW2   59   6.044   2.280   6.385
66076SOL     OW   60   6.045   4.225   7.221
66076SOL    HW1   61   6.114   4.205   7.158
66076SOL    HW2   62   6.091   4.237   7.304
66077SOL     OW   63   4.723  14.539  11.156
66077SOL    HW1   64   4.634  14.528  11.123
66077SOL    HW2   65   4.777  14.484  11.100
66078SOL     OW   66   4.884   4.477   6.190
66078SOL    HW1   67   4.957   4.524   6.229
66078SOL    HW2   68   4.806   4.526   6.219
66079SOL     OW   69   0.926   4.102   1.399
66079SOL    HW1   70   0.936   4.196   1.388
66079SOL    HW2   71   0.832   4.089   1.416
66080SOL     OW   72  11.420   5.644   4.751
66080SOL    HW1   73  11.408   5.552   4.725
66080SOL    HW2   74  11.357   5.692   4.697
66081SOL     OW   75   3.071  12.788   4.865
66081SOL    HW1   76   3.138  12.854   4.845
66081SOL    HW2   77   3.076  12.777   4.960
66082SOL     OW   78  14.645   0.985   4.710
66082SOL    HW1   79  14.639   0.890   4.700
66082SOL    HW2   80  14.728   0.999   4.756
66083SOL     OW   81  12.974   0.680   6.930
66083SOL    HW1   82  12.895   0.723   6.965
66083SOL    HW2   83  12.942   0.628   6.856
66084SOL     OW   84   6.532  13.902   5.645
66084SOL    HW1   85   6.601  13.938   5.701
66084SOL    HW2   86   6.562  13.920   5.556
66085SOL     OW   87  12.172  12.291  13.975
66085SOL    HW1   88  12.256  12.257  14.005
66085SOL    HW2   89  12.114  12.283  14.051
66086SOL     OW   90   2.771  11.149   0.049
66086SOL    HW1   91   2.866  11.157   0.039
66086SOL    HW2   92   2.736  11.167  14.840
66087SOL     OW   93  14.368   5.070   0.799
66087SOL    HW1   94  14.410   5.072   0.713
66087SOL    HW2   95  14.393   4.985   0.835
66088SOL     OW   96   6.845   6.941  11.423
66088SOL    HW1   97   6.787   7.017  11.418
66088SOL    HW2   98   6.869   6.922  11.332
66089SOL     OW   99   3.701   0.702  10.256
66089SOL    HW1  100   3.728   0.735  10.342
66089SOL    HW2  101   3.616   0.662  10.271
66090SOL     OW  102  12.240   2.026  12.200
66090SOL    HW1  103  12.277   2.068  12.123
66090SOL    HW2  104  12.168   2.084  12.227
66091SOL     OW  105   4.842   2.002   7.664
66091SOL    HW1  106   4.910   1.966   7.607
66091SOL    HW2  107   4.820   1.930   7.723
66092SOL     OW  108   7.437   9.005   6.867
66092SOL    HW1  109   7.506   8.956   6.912
66092SOL    HW2  110   7.441   8.975   6.776
66093SOL     OW  111   4.038   7.724   1.850
66093SOL    HW1  112   4.091   7.682   1.782
66093SOL    HW2  113   4.048   7.818   1.834
66094SOL     OW  114  12.241   9.067   2.614
66094SOL    HW1  115  12.178   9.107   2.674
66094SOL    HW2  116  12.209   9.089   2.527
66095SOL     OW  117   5.586  11.090   1.705
66095SOL    HW1  118   5.567  11.071   1.797
66095SOL    HW2  119   5.578  11.185   1.697
66096SOL     OW  120   6.233  11.256   3.440
66096SOL    HW1  121   6.269  11.247   3.529
66096SOL    HW2  122   6.138  11.250   3.452
66097SOL     OW  123   2.792  13.334   1.333
66097SOL    HW1  124   2.812  13.402   1.398
66097SOL    HW2  125   2.697  13.322   1.340
66098SOL     OW  126   1.564   3.970  11.871
66098SOL    HW1  127   1.644   3.934  11.832
66098SOL    HW2  128   1.522   3.896  11.913
66099SOL     OW  129   1.833  11.020   7.318
66099SOL    HW1  130   1.824  11.054   7.408
66099SOL    HW2  131   1.883  11.088   7.273
66100SOL     OW  132   5.828   8.594   3.059
66100SOL    HW1  133   5.799   8.515   3.104
66100SOL    HW2  134   5.813   8.664   3.123
66101SOL     OW  135  14.575   4.722   6.586
66101SOL    HW1  136  14.666   4.721   6.615
66101SOL    HW2  137  14.531   4.662   6.646
66102SOL     OW  138   7.315  12.989   1.990
66102SOL    HW1  139   7.383  13.055   2.003
66102SOL    HW2  140   7.362  12.911   1.963
66103SOL     OW  141  13.062  11.028  12.461
66103SOL    HW1  142  13.087  11.089  12.531
66103SOL    HW2  143  12.970  11.007  12.478
66104SOL     OW  144   9.215   6.045  11.785
66104SOL    HW1  145   9.280   5.993  11.832
66104SOL    HW2  146   9.140   6.050  11.845
66105SOL     OW  147   2.619   5.104   7.644
66105SOL    HW1  148   2.712   5.082   7.641
66105SOL    HW2  149   2.598   5.104   7.738
66106SOL     OW  150  11.791   7.803   8.161
66106SOL    HW1  151  11.785   7.721   8.210
66106SOL    HW2  152  11.703   7.840   8.167
66107SOL     OW  153  10.204   4.251   9.964
66107SOL    HW1  154  10.195   4.210   9.878
66107SOL    HW2  155  10.177   4.342   9.950
66108SOL     OW  156  10.726   9.047   6.164
66108SOL    HW1  157  10.655   8.983   6.164
66108SOL    HW2  158  10.805   8.996   6.150
66109SOL     OW  159   7.567   1.402  14.757
66109SOL    HW1  160   7.627   1.476  14.756
66109SOL    HW2  161   7.583   1.359  14.840
66110SOL     OW  162  11.946   8.365   2.815
66110SOL    HW1  163  12.014   8.427   2.790
66110SOL    HW2  164  11.913   8.330   2.732
66111SOL     OW  165   6.116  12.132  11.787
66111SOL    HW1  166   6.158  12.135  11.873
66111SOL    HW2  167   6.083  12.043  11.780
66112SOL     OW  168   1.385   8.532  10.462
66112SOL    HW1  169   1.357   8.559  10.375
66112SOL    HW2  170   1.473   8.496  10.449
66113SOL     OW  171   4.339   6.542  13.563
66113SOL    HW1  172   4.381   6.597  13.629
66113SOL    HW2  173   4.342   6.594  13.482
66114SOL     OW  174   3.631  14.410   9.075
66114SOL    HW1  175   3.711  14.393   9.024
66114SOL    HW2  176   3.603  14.324   9.105
66115SOL     OW  177   7.290   8.425  14.679
66115SOL    HW1  178   7.306   8.501  14.623
66115SOL    HW2  179   7.360   8.427  14.744
66116SOL     OW  180   7.162  12.391   7.226
66116SOL    HW1  181   7.164  12.363   7.318
66116SOL    HW2  182   7.230  12.458   7.220
66117SOL     OW  183   1.941   6.848   1.486
66117SOL    HW1  184   1.881   6.871   1.558
66117SOL    HW2  185   1.883   6.836   1.411
66118SOL     OW  186   5.558  11.146   3.270
66118SOL    HW1  187   5.632  11.206   3.275
66118SOL    HW2  188   5.491  11.194   3.221
66119SOL     OW  189   1.564   0.469   2.029
66119SOL    HW1  190   1.629   0.466   1.959
66119SOL    HW2  191   1.530   0.558   2.027
66120SOL     OW  192  13.562   1.648   9.538
66120SOL    HW1  193  13.627   1.652   9.608
66120SOL    HW2  194  13.590   1.576   9.482
66121SOL     OW  195   7.118  10.099   9.877
66121SOL    HW1  196   7.074  10.066   9.799
66121SOL    HW2  197   7.051  10.097   9.945
66122SOL     OW  198  13.797   3.986   3.720
66122SOL    HW1  199  13.799   3.929   3.643
66122SOL    HW2  200  13.726   3.951   3.773
66123SOL     OW  201   8.029  11.435   6.686
66123SOL    HW1  202   7.954  11.379   6.705
66123SOL    HW2  203   8.069  11.452   6.771
66124SOL     OW  204   1.490   0.243   8.106
66124SOL    HW1  205   1.446   0.293   8.037
66124SOL    HW2  206   1.581   0.273   8.105
66125SOL     OW  207   2.397   8.821   5.654
66125SOL    HW1  208   2.423   8.808   5.746
66125SOL    HW2  209   2.306   8.851   5.659
66126SOL     OW  210   6.481   3.670   3.684
66126SOL    HW1  211   6.479   3.634   3.773
66126SOL    HW2  212   6.390   3.696   3.667
66127SOL     OW  213  14.341  13.420   6.923
66127SOL    HW1  214  14.345  13.359   6.996
66127SOL    HW2  215  14.338  13.365   6.845
66128SOL     OW  216  13.001  11.024  13.416
66128SOL    HW1  217  12.907  11.013  13.403
66128SOL    HW2  218  13.032  10.937  13.443
66129SOL     OW  219   7.030   4.225   4.872
66129SOL    HW1  220   6.935   4.213   4.866
66129SOL    HW2  221   7.042   4.320   4.873
66130SOL     OW  222   9.285   5.439   8.920
66130SOL    HW1  223   9.225   5.509   8.894
66130SOL    HW2  224   9.308   5.459   9.011
66131SOL     OW  225   2.920   6.819   1.903
66131SOL    HW1  226   2.908   6.875   1.826
66131SOL    HW2  227   3.014   6.799   1.902
66132SOL     OW  228  13.303   4.909   0.423
66132SOL    HW1  229  13.265   4.861   0.350
66132SOL    HW2  230  13.376   4.958   0.384
66133SOL     OW  231   5.162   9.283   2.664
66133SOL    HW1  232   5.228   9.321   2.722
66133SOL    HW2  233   5.129   9.207   2.712
66134SOL     OW  234   1.835  10.450  11.769
66134SOL    HW1  235   1.800  10.361  11.776
66134SOL    HW2  236   1.909  10.441  11.709
66135SOL     OW  237   3.376   1.292   7.814
66135SOL    HW1  238   3.405   1.203   7.832
66135SOL    HW2  239   3.307   1.309   7.879
66136SOL     OW  240  12.079   0.435   9.421
66136SOL    HW1  241  12.039   0.381   9.489
66136SOL    HW2  242  12.050   0.396   9.339
66137SOL     OW  243  10.992   2.277   9.213
66137SOL    HW1  244  10.994   2.259   9.119
66137SOL    HW2  245  10.912   2.233   9.244
66138SOL     OW  246   1.610  12.736   4.733
66138SOL    HW1  247   1.573  12.819   4.760
66138SOL    HW2  248   1.534  12.680   4.715
66139SOL     OW  249   3.827   4.881   0.507
66139SOL    HW1  250   3.922   4.871   0.515
66139SOL    HW2  251   3.794   4.791   0.497
66140SOL     OW  252   6.977  13.054   5.945
66140SOL    HW1  253   6.980  13.095   5.859
66140SOL    HW2  254   6.978  13.128   6.006
66141SOL     OW  255  13.051   6.940  10.193
66141SOL    HW1  256  12.983   6.980  10.247
66141SOL    HW2  257  13.023   6.957  10.103
66142SOL     OW  258   1.851   7.746   9.242
66142SOL    HW1  259   1.922   7.802   9.208
66142SOL    HW2  260   1.783   7.751   9.174
66143SOL     OW  261   0.614   9.705  12.598
66143SOL    HW1  262   0.633   9.793  12.629
66143SOL    HW2  263   0.626   9.649  12.675
66144SOL     OW  264   4.579   9.373   6.443
66144SOL    HW1  265   4.492   9.341   6.462
66144SOL    HW2  266   4.599   9.341   6.355
66145SOL     OW  267   0.063  10.661  13.202
66145SOL    HW1  268  14.849  10.682  13.197
66145SOL    HW2  269   0.105  10.744  13.225
66146SOL     OW  270  14.219  10.148  11.723
66146SOL    HW1  271  14.183  10.224  11.679
66146SOL    HW2  272  14.197  10.161  11.815
66147SOL     OW  273   5.295   6.034   6.461
66147SOL    HW1  274   5.355   5.963   6.439
66147SOL    HW2  275   5.351   6.111   6.471
66148SOL     OW  276  10.361   4.301   3.572
66148SOL    HW1  277  10.323   4.241   3.508
66148SOL    HW2  278  10.364   4.385   3.527
66149SOL     OW  279   2.231  10.979  13.632
66149SOL    HW1  280   2.261  11.061  13.592
66149SOL    HW2  281   2.169  10.942  13.569
66150SOL     OW  282   4.006   7.420   0.382
66150SOL    HW1  283   4.006   7.332   0.344
66150SOL    HW2  284   4.069   7.414   0.454
66151SOL     OW  285   8.251  10.961   8.461
66151SOL    HW1  286   8.234  11.040   8.410
66151SOL    HW2  287   8.329  10.923   8.420
66152SOL     OW  288   5.315   4.677   1.519
66152SOL    HW1  289   5.274   4.755   1.481
66152SOL    HW2  290   5.243   4.614   1.528
66153SOL     OW  291   6.864   5.224   4.221
66153SOL    HW1  292   6.902   5.153   4.273
66153SOL    HW2  293   6.876   5.198   4.130
66154SOL     OW  294  10.690  13.916  11.800
66154SOL    HW1  295  10.722  13.826  11.793
66154SOL    HW2  296  10.595  13.908  11.791
66155SOL     OW  297   9.676   9.300   3.961
66155SOL    HW1  298   9.713   9.342   4.038
66155SOL    HW2  299   9.729   9.221   3.949
66156SOL     OW  300   7.411   4.373  10.562
66156SOL    HW1  301   7.451   4.459  10.577
66156SOL    HW2  302   7.436   4.350  10.473
66157SOL     OW  303   7.513   2.539   2.822
66157SOL    HW1  304   7.589   2.562   2.876
66157SOL    HW2  305   7.482   2.456   2.858
66158SOL     OW  306   0.178   0.185   2.525
66158SOL    HW1  307   0.258   0.213   2.481
66158SOL    HW2  308   0.156   0.101   2.484
66159SOL     OW  309  11.962  14.470  14.529
66159SOL    HW1  310  11.879  14.483  14.485
66159SOL    HW2  311  11.957  14.527  14.607
66160SOL     OW  312   2.816  14.535   5.751
66160SOL    HW1  313   2.795  14.511   5.661
66160SOL    HW2  314   2.742  14.504   5.803
66161SOL     OW  315   8.911  10.231   8.526
66161SOL    HW1  316   8.946  10.191   8.446
66161SOL    HW2  317   8.922  10.325   8.513
66162SOL     OW  318   9.596   9.403   0.879
66162SOL    HW1  319   9.595   9.422   0.973
66162SOL    HW2  320   9.688   9.380   0.861
66163SOL     OW  321  10.334  13.627   6.317
66163SOL    HW1  322  10.289  13.564   6.261
66163SOL    HW2  323  10.421  13.637   6.278
66164SOL     OW  324   5.738   7.562  12.146
66164SOL    HW1  325   5.670   7.499  12.123
66164SOL    HW2  326   5.812   7.508  12.174
66165SOL     OW  327   3.881  10.092   5.788
66165SOL    HW1  328   3.822  10.017   5.790
66165SOL    HW2  329   3.959  10.060   5.744
66166SOL     OW  330  14.512  14.648   0.795
66166SOL    HW1  331  14.497  14.657   0.701
66166SOL    HW2  332  14.426  14.624   0.831
66167SOL     OW  333   4.303  11.436   4.606
66167SOL    HW1  334   4.239  11.473   4.667
66167SOL    HW2  335   4.309  11.501   4.536
66168SOL     OW  336   3.283  11.569   4.188
66168SOL    HW1  337   3.251  11.539   4.273
66168SOL    HW2  338   3.248  11.505   4.126
66169SOL     OW  339  10.065  11.109   2.990
66169SOL    HW1  340   9.980  11.094   2.948
66169SOL    HW2  341  10.045  11.167   3.063
66170SOL     OW  342   7.849   6.953  10.580
66170SOL    HW1  343   7.761   6.977  10.608
66170SOL    HW2  344   7.842   6.860  10.556
66171SOL     OW  345   8.435   4.936   7.957
66171SOL    HW1  346   8.506   4.952   7.895
66171SOL    HW2  347   8.421   5.020   8.001
66172SOL     OW  348   8.550   1.821   1.412
66172SOL    HW1  349   8.584   1.777   1.490
66172SOL    HW2  350   8.590   1.908   1.414
66173SOL     OW  351  13.828   0.474   6.349
66173SOL    HW1  352  13.913   0.430   6.359
66173SOL    HW2  353  13.764   0.407   6.373
66174SOL     OW  354   9.842   0.341   1.201
66174SOL    HW1  355   9.783   0.291   1.145
66174SOL    HW2  356   9.925   0.344   1.153
66175SOL     OW  357   1.355   6.405  14.265
66175SOL    HW1  358   1.362   6.311  14.245
66175SOL    HW2  359   1.315   6.443  14.187
66176SOL     OW  360   6.110  13.520   1.004
66176SOL    HW1  361   6.134  13.573   1.080
66176SOL    HW2  362   6.166  13.553   0.933
66177SOL     OW  363  14.426   5.254   6.310
66177SOL    HW1  364  14.520   5.265   6.327
66177SOL    HW2  365  14.389   5.229   6.395
66178SOL     OW  366   9.863  13.374   9.364
66178SOL    HW1  367   9.831  13.444   9.307
66178SOL    HW2  368   9.788  13.317   9.376
66179SOL     OW  369  10.086   6.205   3.105
66179SOL    HW1  370  10.108   6.289   3.144
66179SOL    HW2  371  10.049   6.226   3.020
66180SOL     OW  372   3.474   8.285   1.354
66180SOL    HW1  373   3.558   8.273   1.311
66180SOL    HW2  374   3.417   8.322   1.285
66181SOL     OW  375   4.217   5.928   5.278
66181SOL    HW1  376   4.242   5.853   5.224
66181SOL    HW2  377   4.259   6.003   5.237
66182SOL     OW  378   2.259  13.841  10.026
66182SOL    HW1  379   2.327  13.871  10.087
66182SOL    HW2  380   2.305  13.833   9.942
66183SOL     OW  381   2.609   7.595  12.474
66183SOL    HW1  382   2.618   7.501  12.490
66183SOL    HW2  383   2.661   7.636  12.542
66184SOL     OW  384  10.713   4.981   1.457
66184SOL    HW1  385  10.777   4.911   1.470
66184SOL    HW2  386  10.709   5.025   1.542
66185SOL     OW  387  12.021   4.389   0.283
66185SOL    HW1  388  11.986   4.303   0.308
66185SOL    HW2  389  12.071   4.418   0.359
66186SOL     OW  390   4.737   8.923   1.712
66186SOL    HW1  391   4.657   8.974   1.695
66186SOL    HW2  392   4.729   8.846   1.655
66187SOL     OW  393   6.093   0.250   8.244
66187SOL    HW1  394   6.053   0.285   8.323
66187SOL    HW2  395   6.131   0.166   8.271
66188SOL     OW  396   0.092   9.312   8.058
66188SOL    HW1  397   0.138   9.242   8.104
66188SOL    HW2  398   0.082   9.281   7.968
66189SOL     OW  399  10.267   2.620  13.704
66189SOL    HW1  400  10.211   2.657  13.773
66189SOL    HW2  401  10.310   2.545  13.746
66190SOL     OW  402   8.507   4.102   6.775
66190SOL    HW1  403   8.530   4.042   6.704
66190SOL    HW2  404   8.508   4.188   6.734
66191SOL     OW  405   7.655  12.152   6.915
66191SOL    HW1  406   7.710  12.129   6.840
66191SOL    HW2  407   7.571  12.111   6.896
66192SOL     OW  408   1.919  12.461   6.873
66192SOL    HW1  409   1.959  12.380   6.841
66192SOL    HW2  410   1.925  12.454   6.968
66193SOL     OW  411   8.328  11.643   0.983
66193SOL    HW1  412   8.268  11.707   1.021
66193SOL    HW2  413   8.374  11.605   1.058
66194SOL     OW  414  12.493   3.412   0.429
66194SOL    HW1  415  12.456   3.382   0.512
66194SOL    HW2  416  12.435   3.483   0.401
66195SOL     OW  417   9.699   6.892   3.412
66195SOL    HW1  418   9.761   6.963   3.394
66195SOL    HW2  419   9.674   6.859   3.325
66196SOL     OW  420  13.488   6.069   8.275
66196SOL    HW1  421  13.419   6.128   8.306
66196SOL    HW2  422  13.441   5.994   8.239
66197SOL     OW  423   0.821   8.515   0.898
66197SOL    HW1  424   0.899   8.562   0.925
66197SOL    HW2  425   0.830   8.506   0.803
66198SOL     OW  426   1.374   7.599   7.835
66198SOL    HW1  427   1.350   7.670   7.775
66198SOL    HW2  428   1.405   7.529   7.778
66199SOL     OW  429   6.049   7.155  12.626
66199SOL    HW1  430   6.105   7.089  12.667
66199SOL    HW2  431   6.100   7.236  12.630
66200SOL     OW  432  13.459   3.003   1.636
66200SOL    HW1  433  13.538   3.009   1.582
66200SOL    HW2  434  13.386   3.016   1.574
66201SOL     OW  435  10.976   4.931   4.810
66201SOL    HW1  436  10.952   5.018   4.779
66201SOL    HW2  437  10.906   4.874   4.778
66202SOL     OW  438  13.940  11.562   6.226
66202SOL    HW1  439  13.975  11.646   6.196
66202SOL    HW2  440  13.919  11.514   6.145
66203SOL     OW  441  10.092   8.737   6.950
66203SOL    HW1  442  10.069   8.693   7.031
66203SOL    HW2  443  10.016   8.793   6.931
66204SOL     OW  444  10.533   8.773   3.426
66204SOL    HW1  445  10.493   8.719   3.358
66204SOL    HW2  446  10.465   8.783   3.492
66205SOL     OW  447   3.517  13.291   0.215
66205SOL    HW1  448   3.597  13.254   0.177
66205SOL    HW2  449   3.470  13.215   0.249
66206SOL     OW  450   0.697   5.597   0.882
66206SOL    HW1  451   0.660   5.511   0.861
66206SOL    HW2  452   0.680   5.650   0.804
66207SOL     OW  453   8.564  10.125   4.882
66207SOL    HW1  454   8.657  10.114   4.902
66207SOL    HW2  455   8.519  10.104   4.964
66208SOL     OW  456  10.094   5.841  11.519
66208SOL    HW1  457  10.038   5.907  11.478
66208SOL    HW2  458  10.105   5.774  11.451
66209SOL     OW  459  11.868   0.498   4.072
66209SOL    HW1  460  11.932   0.462   4.011
66209SOL    HW2  461  11.905   0.582   4.099
66210SOL     OW  462   2.065   2.165   8.917
66210SOL    HW1  463   2.088   2.153   9.009
66210SOL    HW2  464   1.970   2.179   8.918
66211SOL     OW  465  10.621  11.330  13.169
66211SOL    HW1  466  10.644  11.240  13.146
66211SOL    HW2  467  10.631  11.380  13.088
66212SOL     OW  468  14.713   5.478   9.213
66212SOL    HW1  469  14.624   5.505   9.236
66212SOL    HW2  470  14.704   5.428   9.133
66213SOL     OW  471   4.716  11.871  13.454
66213SOL    HW1  472   4.671  11.792  13.424
66213SOL    HW2  473   4.683  11.940  13.397
66214SOL     OW  474   3.152   5.053   6.895
66214SOL    HW1  475   3.083   5.032   6.831
66214SOL    HW2  476   3.219   4.985   6.880
66215SOL     OW  477   0.134   4.594  13.412
66215SOL    HW1  478   0.157   4.574  13.502
66215SOL    HW2  479   0.045   4.560  13.402
66216SOL     OW  480  14.298   5.322   8.663
66216SOL    HW1  481  14.286   5.350   8.572
66216SOL    HW2  482  14.283   5.228   8.661
66217SOL     OW  483  14.848   2.696   4.312
66217SOL    HW1  484  14.814   2.637   4.380
66217SOL    HW2  485  14.788   2.771   4.313
66218SOL     OW  486   9.258   4.806   5.091
66218SOL    HW1  487   9.328   4.778   5.151
66218SOL    HW2  488   9.192   4.845   5.147
66219SOL     OW  489   4.859   8.451   4.512
66219SOL    HW1  490   4.851   8.443   4.608
66219SOL    HW2  491   4.950   8.431   4.494
66220SOL     OW  492   5.422  13.302   4.764
66220SOL    HW1  493   5.461  13.285   4.678
66220SOL    HW2  494   5.361  13.230   4.777
66221SOL     OW  495   1.997   6.215   6.194
66221SOL    HW1  496   2.023   6.130   6.229
66221SOL    HW2  497   2.077   6.269   6.200
66222SOL     OW  498  10.282   8.352  11.077
66222SOL    HW1  499  10.276   8.334  10.983
66222SOL    HW2  500  10.376   8.343  11.097
66223SOL     OW  501  12.980   6.713   2.738
66223SOL    HW1  502  13.053   6.749   2.687
66223SOL    HW2  503  12.902   6.753   2.700
66224SOL     OW  504   9.960  14.393   1.288
66224SOL    HW1  505   9.932  14.441   1.366
66224SOL    HW2  506  10.056  14.397   1.290
66225SOL     OW  507   3.904  12.340  11.831
66225SOL    HW1  508   3.948  12.270  11.880
66225SOL    HW2  509   3.919  12.317  11.739
66226SOL     OW  510  10.282   4.783   7.064
66226SOL    HW1  511  10.293   4.852   7.130
66226SOL    HW2  512  10.219   4.723   7.103
66227SOL     OW  513   0.806   2.380   2.677
66227SOL    HW1  514   0.897   2.354   2.693
66227SOL    HW2  515   0.806   2.475   2.685
66228SOL     OW  516  10.797   7.393   8.407
66228SOL    HW1  517  10.724   7.423   8.461
66228SOL    HW2  518  10.858   7.353   8.469
66229SOL     OW  519  10.978   7.431  12.043
66229SOL    HW1  520  11.036   7.412  12.116
66229SOL    HW2  521  10.992   7.524  12.025
66230SOL     OW  522  12.773   1.798   1.348
66230SOL    HW1  523  12.734   1.841   1.272
66230SOL    HW2  524  12.825   1.726   1.311
66231SOL     OW  525   4.543  10.002   6.767
66231SOL    HW1  526   4.582   9.994   6.854
66231SOL    HW2  527   4.489   9.923   6.757
66232SOL     OW  528   0.628   0.445   5.394
66232SOL    HW1  529   0.647   0.536   5.373
66232SOL    HW2  530   0.541   0.429   5.358
66233SOL     OW  531   7.245   3.504  10.139
66233SOL    HW1  532   7.199   3.584  10.115
66233SOL    HW2  533   7.335   3.531  10.152
66234SOL     OW  534  14.660  14.740   2.356
66234SOL    HW1  535  14.719  14.807   2.321
66234SOL    HW2  536  14.573  14.782   2.354
66235SOL     OW  537   6.661   3.483   0.139
66235SOL    HW1  538   6.643   3.502   0.231
66235SOL    HW2  539   6.654   3.568   0.096
66236SOL     OW  540   0.278   3.907  14.557
66236SOL    HW1  541   0.203   3.925  14.614
66236SOL    HW2  542   0.352   3.898  14.617
66237SOL     OW  543   0.137  14.226  10.570
66237SOL    HW1  544   0.232  14.234  10.581
66237SOL    HW2  545   0.117  14.283  10.496
66238SOL     OW  546  13.188   0.911   4.302
66238SOL    HW1  547  13.149   0.908   4.215
66238SOL    HW2  548  13.127   0.964   4.354
66239SOL     OW  549   0.403  11.896  10.686
66239SOL    HW1  550   0.423  11.929  10.598
66239SOL    HW2  551   0.310  11.918  10.699
66240SOL     OW  552   9.509  10.201   7.599
66240SOL    HW1  553   9.584  10.260   7.607
66240SOL    HW2  554   9.540  10.118   7.634
66241SOL     OW  555   6.881  14.835  12.009
66241SOL    HW1  556   6.826   0.026  12.044
66241SOL    HW2  557   6.830  14.755  12.022
66242SOL     OW  558  13.646   1.623   5.218
66242SOL    HW1  559  13.601   1.547   5.255
66242SOL    HW2  560  13.739   1.605   5.235
66243SOL     OW  561  11.732   8.931  10.515
66243SOL    HW1  562  11.731   8.916  10.609
66243SOL    HW2  563  11.672   8.866  10.479
66244SOL     OW  564  12.628   3.399  10.509
66244SOL    HW1  565  12.590   3.335  10.450
66244SOL    HW2  566  12.720   3.372  10.518
66245SOL     OW  567   4.257   7.355   2.232
66245SOL    HW1  568   4.300   7.301   2.167
66245SOL    HW2  569   4.227   7.293   2.299
66246SOL     OW  570   7.374  12.905   1.562
66246SOL    HW1  571   7.345  12.857   1.485
66246SOL    HW2  572   7.297  12.911   1.618
66247SOL     OW  573   4.108   2.833   8.856
66247SOL    HW1  574   4.061   2.905   8.898
66247SOL    HW2  575   4.075   2.755   8.900
66248SOL     OW  576  13.099   3.983  10.160
66248SOL    HW1  577  13.068   4.036  10.087
66248SOL    HW2  578  13.190   3.962  10.137
66249SOL     OW  579  13.665  13.658   7.015
66249SOL    HW1  580  13.636  13.731   6.960
66249SOL    HW2  581  13.739  13.620   6.968
66250SOL     OW  582  10.051  12.050   8.203
66250SOL    HW1  583  10.058  12.065   8.109
66250SOL    HW2  584   9.971  11.999   8.214
66251SOL     OW  585   1.096  11.424   7.466
66251SOL    HW1  586   1.003  11.406   7.458
66251SOL    HW2  587   1.111  11.428   7.561
66252SOL     OW  588   3.121  11.189  14.062
66252SOL    HW1  589   3.166  11.127  14.005
66252SOL    HW2  590   3.071  11.244  14.002
66253SOL     OW  591   2.716   0.060   9.534
66253SOL    HW1  592   2.803   0.028   9.511
66253SOL    HW2  593   2.669  14.860   9.564
66254SOL     OW  594   0.020   7.218   0.229
66254SOL    HW1  595   0.106   7.180   0.247
66254SOL    HW2  596  14.859   7.159   0.165
66255SOL     OW  597   1.316   9.896  11.670
66255SOL    HW1  598   1.236   9.917  11.623
66255SOL    HW2  599   1.303   9.807  11.702
66256SOL     OW  600   1.356   4.089   2.494
66256SOL    HW1  601   1.361   4.082   2.590
66256SOL    HW2  602   1.262   4.097   2.476
66257SOL     OW  603  14.588   6.261  13.648
66257SOL    HW1  604  14.623   6.228  13.565
66257SOL    HW2  605  14.515   6.202  13.668
66258SOL     OW  606  14.305   9.899  13.469
66258SOL    HW1  607  14.363   9.825  13.453
66258SOL    HW2  608  14.237   9.864  13.526
66259SOL     OW  609   5.085   0.610  14.770
66259SOL    HW1  610   5.006   0.660  14.749
66259SOL    HW2  611   5.150   0.638  14.705
66260SOL     OW  612   5.931  12.463  13.127
66260SOL    HW1  613   5.863  12.436  13.188
66260SOL    HW2  614   5.967  12.381  13.093
66261SOL     OW  615  14.001   0.067   2.303
66261SOL    HW1  616  14.006  14.857   2.339
66261SOL    HW2  617  14.048   0.122   2.365
66262SOL     OW  618  11.110   8.928   5.261
66262SOL    HW1  619  11.161   8.853   5.292
66262SOL    HW2  620  11.081   8.903   5.173
66263SOL     OW  621   1.797   1.200   8.739
66263SOL    HW1  622   1.739   1.276   8.747
66263SOL    HW2  623   1.777   1.148   8.817
66264SOL     OW  624  13.598   9.862   1.099
66264SOL    HW1  625  13.610   9.862   1.004
66264SOL    HW2  626  13.550   9.782   1.118
66265SOL     OW  627  11.842  14.377   9.675
66265SOL    HW1  628  11.871  14.468   9.682
66265SOL    HW2  629  11.824  14.364   9.582
66266SOL     OW  630  14.387   4.317   6.238
66266SOL    HW1  631  14.410   4.352   6.323
66266SOL    HW2  632  14.459   4.259   6.215
66267SOL     OW  633   6.976   4.778   8.686
66267SOL    HW1  634   6.969   4.702   8.628
66267SOL    HW2  635   6.894   4.825   8.674
66268SOL     OW  636   6.706   9.573   7.552
66268SOL    HW1  637   6.730   9.481   7.562
66268SOL    HW2  638   6.641   9.574   7.482
66269SOL     OW  639  11.751  14.631   0.083
66269SOL    HW1  640  11.771  14.635  14.868
66269SOL    HW2  641  11.710  14.546   0.096
66270SOL     OW  642  12.297   8.877  13.713
66270SOL    HW1  643  12.269   8.967  13.730
66270SOL    HW2  644  12.218   8.824  13.727
66271SOL     OW  645   1.819   7.763  14.472
66271SOL    HW1  646   1.791   7.828  14.537
66271SOL    HW2  647   1.887   7.713  14.517
66272SOL     OW  648   9.699  13.475   4.507
66272SOL    HW1  649   9.635  13.545   4.497
66272SOL    HW2  650   9.647  13.395   4.509
66273SOL     OW  651   2.771  13.990   3.070
66273SOL    HW1  652   2.814  13.916   3.114
66273SOL    HW2  653   2.693  13.952   3.029
66274SOL     OW  654   7.492   6.871   9.585
66274SOL    HW1  655   7.585   6.885   9.602
66274SOL    HW2  656   7.448   6.899   9.665
66275SOL     OW  657  13.112  13.318   7.782
66275SOL    HW1  658  13.109  13.236   7.732
66275SOL    HW2  659  13.142  13.383   7.719
66276SOL     OW  660   3.108   6.609  12.925
66276SOL    HW1  661   3.192   6.638  12.890
66276SOL    HW2  662   3.095   6.522  12.888
66277SOL     OW  663  12.516   3.514   9.635
66277SOL    HW1  664  12.605   3.500   9.667
66277SOL    HW2  665  12.468   3.547   9.711
66278SOL     OW  666  12.610   9.630   1.006
66278SOL    HW1  667  12.595   9.538   1.023
66278SOL    HW2  668  12.652   9.664   1.085
66279SOL     OW  669  14.101   9.724   8.138
66279SOL    HW1  670  14.125   9.808   8.098
66279SOL    HW2  671  14.097   9.743   8.232
66280SOL     OW  672   5.970   6.416   7.701
66280SOL    HW1  673   5.905   6.357   7.740
66280SOL    HW2  674   5.928   6.449   7.622
66281SOL     OW  675  12.297   2.701   7.314
66281SOL    HW1  676  12.216   2.687   7.264
66281SOL    HW2  677  12.312   2.617   7.357
66282SOL     OW  678   3.358  11.094   5.245
66282SOL    HW1  679   3.266  11.072   5.259
66282SOL    HW2  680   3.371  11.085   5.150
66283SOL     OW  681   1.046  11.984   1.982
66283SOL    HW1  682   1.038  12.079   1.985
66283SOL    HW2  683   1.117  11.964   2.044
66284SOL     OW  684  12.505   7.321   7.448
66284SOL    HW1  685  12.554   7.308   7.530
66284SOL    HW2  686  12.422   7.360   7.476
66285SOL     OW  687  14.249  14.009   1.817
66285SOL    HW1  688  14.209  13.990   1.732
66285SOL    HW2  689  14.187  14.068   1.860
66286SOL     OW  690  14.862   2.452   2.142
66286SOL    HW1  691   0.046   2.417   2.205
66286SOL    HW2  692  14.787   2.478   2.195
66287SOL     OW  693  12.460  10.710   6.661
66287SOL    HW1  694  12.373  10.701   6.699
66287SOL    HW2  695  12.451  10.673   6.573
66288SOL     OW  696   1.109   9.318   1.881
66288SOL    HW1  697   1.070   9.392   1.834
66288SOL    HW2  698   1.066   9.318   1.966
66289SOL     OW  699   8.656   7.452   8.391
66289SOL    HW1  700   8.580   7.421   8.439
66289SOL    HW2  701   8.704   7.372   8.369
66290SOL     OW  702   2.818   6.450   9.971
66290SOL    HW1  703   2.739   6.497   9.946
66290SOL    HW2  704   2.849   6.409   9.890
66291SOL     OW  705  12.968   4.881   1.832
66291SOL    HW1  706  13.044   4.833   1.799
66291SOL    HW2  707  12.974   4.876   1.927
66292SOL     OW  708  14.688   2.624   6.401
66292SOL    HW1  709  14.638   2.614   6.320
66292SOL    HW2  710  14.778   2.636   6.372
66293SOL     OW  711   5.646  13.153   3.258
66293SOL    HW1  712   5.656  13.221   3.324
66293SOL    HW2  713   5.693  13.078   3.293
66294SOL     OW  714   5.846  11.677   1.030
66294SOL    HW1  715   5.788  11.707   0.961
66294SOL    HW2  716   5.786  11.643   1.098
66295SOL     OW  717   4.685  14.345   2.359
66295SOL    HW1  718   4.760  14.399   2.384
66295SOL    HW2  719   4.666  14.293   2.438
66296SOL     OW  720   4.967   7.797  10.780
66296SOL    HW1  721   5.046   7.800  10.727
66296SOL    HW2  722   4.945   7.704  10.785
66297SOL     OW  723   9.225   5.433   2.287
66297SOL    HW1  724   9.234   5.424   2.192
66297SOL    HW2  725   9.130   5.439   2.301
66298SOL     OW  726   4.023   8.973   2.663
66298SOL    HW1  727   3.941   9.010   2.697
66298SOL    HW2  728   4.071   8.947   2.742
66299SOL     OW  729   4.222   5.447  11.267
66299SOL    HW1  730   4.199   5.474  11.356
66299SOL    HW2  731   4.138   5.427  11.225
66300SOL     OW  732  11.237  12.135   7.754
66300SOL    HW1  733  11.301  12.065   7.746
66300SOL    HW2  734  11.237  12.157   7.847
66301SOL     OW  735   1.497   4.971   1.719
66301SOL    HW1  736   1.518   4.978   1.812
66301SOL    HW2  737   1.465   5.057   1.694
66302SOL     OW  738   9.029   2.291   2.696
66302SOL    HW1  739   9.052   2.351   2.767
66302SOL    HW2  740   9.108   2.238   2.684
66303SOL     OW  741   7.537   2.939   9.645
66303SOL    HW1  742   7.506   3.008   9.587
66303SOL    HW2  743   7.462   2.881   9.655
66304SOL     OW  744   7.365   0.939   8.090
66304SOL    HW1  745   7.340   0.966   8.178
66304SOL    HW2  746   7.317   0.858   8.075
66305SOL     OW  747   6.359   3.970   9.765
66305SOL    HW1  748   6.391   3.933   9.847
66305SOL    HW2  749   6.315   4.051   9.792
66306SOL     OW  750   5.755   7.094  11.336
66306SOL    HW1  751   5.742   7.187  11.318
66306SOL    HW2  752   5.747   7.088  11.432
66307SOL     OW  753   1.978   5.611   1.558
66307SOL    HW1  754   1.929   5.647   1.631
66307SOL    HW2  755   2.008   5.688   1.508
66308SOL     OW  756   7.118   1.402   6.520
66308SOL    HW1  757   7.105   1.450   6.602
66308SOL    HW2  758   7.213   1.391   6.515
66309SOL     OW  759   6.560   4.043  14.452
66309SOL    HW1  760   6.585   4.045  14.360
66309SOL    HW2  761   6.514   4.126  14.467
66310SOL     OW  762  12.798   5.857   3.842
66310SOL    HW1  763  12.743   5.913   3.896
66310SOL    HW2  764  12.738   5.795   3.801
66311SOL     OW  765  12.425  12.200   5.440
66311SOL    HW1  766  12.335  12.192   5.410
66311SOL    HW2  767  12.459  12.275   5.393
66312SOL     OW  768   6.635   1.071   7.757
66312SOL    HW1  769   6.559   1.082   7.815
66312SOL    HW2  770   6.619   1.131   7.684
66313SOL     OW  771  10.267   4.465   3.174
66313SOL    HW1  772  10.200   4.447   3.108
66313SOL    HW2  773  10.339   4.504   3.124
66314SOL     OW  774   4.259   7.397   0.703
66314SOL    HW1  775   4.167   7.415   0.684
66314SOL    HW2  776   4.267   7.301   0.698
66315SOL     OW  777   3.164   6.160   4.605
66315SOL    HW1  778   3.078   6.148   4.566
66315SOL    HW2  779   3.150   6.224   4.676
66316SOL     OW  780   6.995   0.698   9.105
66316SOL    HW1  781   6.937   0.633   9.066
66316SOL    HW2  782   7.039   0.739   9.030
66317SOL     OW  783   7.360   4.222   0.848
66317SOL    HW1  784   7.398   4.135   0.836
66317SOL    HW2  785   7.265   4.206   0.849
66318SOL     OW  786   9.787  13.343  10.053
66318SOL    HW1  787   9.787  13.248  10.043
66318SOL    HW2  788   9.706  13.363  10.099
66319SOL     OW  789  14.139   6.059  12.678
66319SOL    HW1  790  14.048   6.088  12.669
66319SOL    HW2  791  14.147   5.985  12.618
66320SOL     OW  792   5.472  13.004   4.426
66320SOL    HW1  793   5.542  12.944   4.399
66320SOL    HW2  794   5.391  12.962   4.398
66321SOL     OW  795   5.053  13.061  11.855
66321SOL    HW1  796   5.091  13.065  11.943
66321SOL    HW2  797   4.977  13.004  11.864
66322SOL     OW  798   9.306   3.640  10.707
66322SOL    HW1  799   9.234   3.693  10.741
66322SOL    HW2  800   9.293   3.638  10.613
66323SOL     OW  801   9.816   2.305   1.869
66323SOL    HW1  802   9.819   2.296   1.964
66323SOL    HW2  803   9.725   2.328   1.850
66324SOL     OW  804  14.636   7.277   3.319
66324SOL    HW1  805  14.680   7.360   3.300
66324SOL    HW2  806  14.707   7.213   3.318
66325SOL     OW  807  13.220   5.158  11.826
66325SOL    HW1  808  13.166   5.079  11.826
66325SOL    HW2  809  13.303   5.131  11.786
66326SOL     OW  810   3.551   6.970   0.908
66326SOL    HW1  811   3.569   6.891   0.959
66326SOL    HW2  812   3.517   7.033   0.973
66327SOL     OW  813   2.924   6.179   0.237
66327SOL    HW1  814   2.859   6.115   0.208
66327SOL    HW2  815   2.968   6.136   0.311
66328SOL     OW  816   0.491  11.747   7.866
66328SOL    HW1  817   0.576  11.789   7.878
66328SOL    HW2  818   0.511  11.662   7.827
66329SOL     OW  819  14.641   0.287   7.632
66329SOL    HW1  820  14.632   0.369   7.682
66329SOL    HW2  821  14.626   0.313   7.541
66330SOL     OW  822   4.686   0.617   7.480
66330SOL    HW1  823   4.607   0.656   7.443
66330SOL    HW2  824   4.722   0.564   7.410
66331SOL     OW  825   0.428  12.583   0.705
66331SOL    HW1  826   0.369  12.557   0.634
66331SOL    HW2  827   0.376  12.645   0.757
66332SOL     OW  828  12.331  12.897   9.587
66332SOL    HW1  829  12.359  12.968   9.529
66332SOL    HW2  830  12.342  12.818   9.534
66333SOL     OW  831   2.499   5.532   0.672
66333SOL    HW1  832   2.517   5.625   0.688
66333SOL    HW2  833   2.482   5.527   0.578
66334SOL     OW  834   5.007   9.828   1.072
66334SOL    HW1  835   5.056   9.874   1.140
66334SOL    HW2  836   5.026   9.736   1.087
66335SOL     OW  837   4.977  11.833   4.908
66335SOL    HW1  838   5.000  11.800   4.995
66335SOL    HW2  839   5.062  11.848   4.866
66336SOL     OW  840  13.307   1.193  12.742
66336SOL    HW1  841  13.260   1.112  12.761
66336SOL    HW2  842  13.282   1.252  12.813
66337SOL     OW  843   2.658   0.695   8.025
66337SOL    HW1  844   2.619   0.718   7.941
66337SOL    HW2  845   2.607   0.621   8.056
66338SOL     OW  846   5.476   3.940   1.023
66338SOL    HW1  847   5.415   3.996   1.072
66338SOL    HW2  848   5.421   3.870   0.988
66339SOL     OW  849  10.144   1.344   6.018
66339SOL    HW1  850  10.055   1.317   6.042
66339SOL    HW2  851  10.132   1.406   5.946
66340SOL     OW  852  10.222   1.876   9.356
66340SOL    HW1  853  10.264   1.912   9.434
66340SOL    HW2  854  10.187   1.952   9.310
66341SOL     OW  855  14.268  11.935  10.122
66341SOL    HW1  856  14.302  12.019  10.154
66341SOL    HW2  857  14.174  11.940  10.136
66342SOL     OW  858   9.295   1.187  13.674
66342SOL    HW1  859   9.373   1.231  13.707
66342SOL    HW2  860   9.301   1.195  13.579
66343SOL     OW  861   6.324   0.198   8.610
66343SOL    HW1  862   6.380   0.230   8.539
66343SOL    HW2  863   6.381   0.143   8.663
66344SOL     OW  864   6.519  11.090   8.015
66344SOL    HW1  865   6.502  11.174   7.972
66344SOL    HW2  866   6.609  11.069   7.989
66345SOL     OW  867   2.300  12.148   8.305
66345SOL    HW1  868   2.301  12.082   8.375
66345SOL    HW2  869   2.323  12.229   8.350
66346SOL     OW  870  12.663  12.769   6.967
66346SOL    HW1  871  12.601  12.754   7.039
66346SOL    HW2  872  12.717  12.690   6.966
66347SOL     OW  873  11.710   8.429  14.222
66347SOL    HW1  874  11.622   8.452  14.190
66347SOL    HW2  875  11.761   8.416  14.142
66348SOL     OW  876  12.953   6.262   5.313
66348SOL    HW1  877  12.861   6.245   5.292
66348SOL    HW2  878  12.965   6.355   5.296
66349SOL     OW  879   3.806   3.606   3.298
66349SOL    HW1  880   3.789   3.520   3.261
66349SOL    HW2  881   3.901   3.613   3.302
66350SOL     OW  882  11.494  10.045   7.235
66350SOL    HW1  883  11.457  10.097   7.307
66350SOL    HW2  884  11.545  10.108   7.184
66351SOL     OW  885   7.192   4.703   0.671
66351SOL    HW1  886   7.233   4.638   0.614
66351SOL    HW2  887   7.265   4.736   0.724
66352SOL     OW  888  13.460  14.657  11.303
66352SOL    HW1  889  13.453  14.742  11.259
66352SOL    HW2  890  13.554  14.647  11.319
66353SOL     OW  891   9.363   1.753   8.907
66353SOL    HW1  892   9.375   1.785   8.997
66353SOL    HW2  893   9.287   1.695   8.912
66354SOL     OW  894   4.674   6.952   5.596
66354SOL    HW1  895   4.722   7.034   5.588
66354SOL    HW2  896   4.604   6.959   5.530
66355SOL     OW  897  10.708  10.539  14.412
66355SOL    HW1  898  10.715  10.457  14.461
66355SOL    HW2  899  10.755  10.522  14.331
66356SOL     OW  900   2.991   8.692   8.449
66356SOL    HW1  901   2.951   8.685   8.536
66356SOL    HW2  902   3.080   8.657   8.461
66357SOL     OW  903   0.008   4.948   7.048
66357SOL    HW1  904   0.063   4.945   6.970
66357SOL    HW2  905   0.040   5.023   7.098
66358SOL     OW  906  10.679   8.405   2.682
66358SOL    HW1  907  10.585   8.388   2.685
66358SOL    HW2  908  10.712   8.347   2.613
66359SOL     OW  909   6.918   9.014  12.789
66359SOL    HW1  910   6.906   8.948  12.720
66359SOL    HW2  911   6.833   9.019  12.832
66360SOL     OW  912   3.083  11.106   1.733
66360SOL    HW1  913   3.175  11.130   1.720
66360SOL    HW2  914   3.083  11.047   1.808
66361SOL     OW  915  14.017  10.254   5.333
66361SOL    HW1  916  14.106  10.231   5.308
66361SOL    HW2  917  14.023  10.344   5.363
66362SOL     OW  918  14.292   5.383   1.750
66362SOL    HW1  919  14.357   5.340   1.806
66362SOL    HW2  920  14.344   5.424   1.681
66363SOL     OW  921   6.348   1.466  13.226
66363SOL    HW1  922   6.285   1.474  13.297
66363SOL    HW2  923   6.324   1.536  13.165
66364SOL     OW  924   4.205   8.529  12.099
66364SOL    HW1  925   4.241   8.472  12.031
66364SOL    HW2  926   4.180   8.469  12.169
66365SOL     OW  927   3.518   4.299  14.127
66365SOL    HW1  928   3.426   4.305  14.152
66365SOL    HW2  929   3.564   4.283  14.210
66366SOL     OW  930   4.512   6.092  10.892
66366SOL    HW1  931   4.531   6.004  10.860
66366SOL    HW2  932   4.523   6.086  10.987
66367SOL     OW  933   2.557   3.768   4.398
66367SOL    HW1  934   2.546   3.863   4.405
66367SOL    HW2  935   2.478   3.732   4.438
66368SOL     OW  936  12.622   3.480  13.323
66368SOL    HW1  937  12.702   3.534  13.318
66368SOL    HW2  938  12.554   3.541  13.350
66369SOL     OW  939  12.395   4.691   0.962
66369SOL    HW1  940  12.309   4.691   1.004
66369SOL    HW2  941  12.421   4.599   0.962
66370SOL     OW  942   4.226   0.021   4.770
66370SOL    HW1  943   4.251   0.073   4.846
66370SOL    HW2  944   4.152  14.847   4.801
66371SOL     OW  945   9.312  10.466   5.207
66371SOL    HW1  946   9.401  10.497   5.187
66371SOL    HW2  947   9.262  10.485   5.127
66372SOL     OW  948   0.193   5.786  13.635
66372SOL    HW1  949   0.178   5.745  13.720
66372SOL    HW2  950   0.145   5.868  13.639
66373SOL     OW  951   2.214   7.057   4.384
66373SOL    HW1  952   2.164   7.025   4.309
66373SOL    HW2  953   2.270   6.983   4.409
66374SOL     OW  954   0.028   3.188   4.779
66374SOL    HW1  955   0.054   3.171   4.688
66374SOL    HW2  956  14.817   3.156   4.784
66375SOL     OW  957   2.482   7.768   3.911
66375SOL    HW1  958   2.424   7.695   3.932
66375SOL    HW2  959   2.505   7.805   3.996
66376SOL     OW  960   4.811   5.646   0.079
66376SOL    HW1  961   4.843   5.734   0.099
66376SOL    HW2  962   4.848   5.625  14.873
66377SOL     OW  963   6.037   1.383   2.385
66377SOL    HW1  964   6.099   1.325   2.428
66377SOL    HW2  965   5.988   1.425   2.456
66378SOL     OW  966   6.515   5.806  10.021
66378SOL    HW1  967   6.604   5.793   9.987
66378SOL    HW2  968   6.526   5.860  10.099
66379SOL     OW  969   3.003  14.726  11.707
66379SOL    HW1  970   3.073  14.732  11.642
66379SOL    HW2  971   2.933  14.780  11.671
66380SOL     OW  972  14.125  11.901   8.588
66380SOL    HW1  973  14.180  11.863   8.519
66380SOL    HW2  974  14.083  11.977   8.546
66381SOL     OW  975  10.595   6.397   3.781
66381SOL    HW1  976  10.617   6.481   3.741
66381SOL    HW2  977  10.649   6.333   3.734
66382SOL     OW  978   7.654   5.793   9.009
66382SOL    HW1  979   7.734   5.845   9.010
66382SOL    HW2  980   7.584   5.857   8.994
66383SOL     OW  981   9.657  13.303   0.056
66383SOL    HW1  982   9.618  13.229   0.011
66383SOL    HW2  983   9.584  13.364   0.070
66384SOL     OW  984  10.713   2.941  12.014
66384SOL    HW1  985  10.636   2.990  12.040
66384SOL    HW2  986  10.783   3.006  12.009
66385SOL     OW  987   5.264   4.780   6.817
66385SOL    HW1  988   5.322   4.786   6.741
66385SOL    HW2  989   5.320   4.746   6.887
66386SOL     OW  990   9.410   6.088   9.851
66386SOL    HW1  991   9.352   6.028   9.897
66386SOL    HW2  992   9.478   6.110   9.915
66387SOL     OW  993  13.609   8.982   5.331
66387SOL    HW1  994  13.657   8.978   5.248
66387SOL    HW2  995  13.518   8.993   5.304
66388SOL     OW  996   8.893   9.343   4.886
66388SOL    HW1  997   8.913   9.426   4.929
66388SOL    HW2  998   8.893   9.279   4.956
66389SOL     OW  999  12.571   4.419   6.944
66389SOL    HW1 1000  12.616   4.451   6.866
66389SOL    HW2 1001  12.641   4.388   7.001
66390SOL     OW 1002   3.022   8.011  13.133
66390SOL    HW1 1003   2.994   8.084  13.078
66390SOL    HW2 1004   2.968   8.016  13.211
66391SOL     OW 1005   3.092  14.070   1.104
66391SOL    HW1 1006   3.180  14.102   1.083
66391SOL    HW2 1007   3.045  14.147   1.136
66392SOL     OW 1008   4.902  11.548   4.664
66392SOL    HW1 1009   4.832  11.520   4.723
66392SOL    HW2 1010   4.971  11.483   4.676
66393SOL     OW 1011  10.127  14.782   2.206
66393SOL    HW1 1012  10.140  14.877   2.197
66393SOL    HW2 1013  10.034  14.773   2.227
66394SOL     OW 1014  11.864   6.374  12.222
66394SOL    HW1 1015  11.789   6.335  12.267
66394SOL    HW2 1016  11.917   6.411  12.292
66395SOL     OW 1017  12.266   6.216   0.569
66395SOL    HW1 1018  12.236   6.304   0.592
66395SOL    HW2 1019  12.197   6.158   0.603
66396SOL     OW 1020   0.208  12.132   8.404
66396SOL    HW1 1021   0.146  12.186   8.452
66396SOL    HW2 1022   0.289  12.182   8.404
66397SOL     OW 1023   2.165  13.282   3.936
66397SOL    HW1 1024   2.089  13.257   3.988
66397SOL    HW2 1025   2.239  13.239   3.980
66398SOL     OW 1026   5.524   5.421   4.914
66398SOL    HW1 1027   5.536   5.433   5.009
66398SOL    HW2 1028   5.587   5.481   4.875
66399SOL     OW 1029   8.336   0.498   4.854
66399SOL    HW1 1030   8.431   0.495   4.852
66399SOL    HW2 1031   8.315   0.587   4.881
66400SOL     OW 1032  14.618   1.120   9.006
66400SOL    HW1 1033  14.655   1.155   9.087
66400SOL    HW2 1034  14.655   1.175   8.937
66401SOL     OW 1035   1.343   7.227  11.508
66401SOL    HW1 1036   1.313   7.257  11.422
66401SOL    HW2 1037   1.438   7.236  11.505
66402SOL     OW 1038   0.227  14.518  14.129
66402SOL    HW1 1039   0.249  14.608  14.102
66402SOL    HW2 1040   0.139  14.504  14.096
66403SOL     OW 1041   9.256  11.682   7.257
66403SOL    HW1 1042   9.177  11.678   7.310
66403SOL    HW2 1043   9.261  11.772   7.225
66404SOL     OW 1044  12.823  10.392   7.796
66404SOL    HW1 1045  12.755  10.325   7.793
66404SOL    HW2 1046  12.886  10.360   7.861
66405SOL     OW 1047   8.883   2.771   9.749
66405SOL    HW1 1048   8.796   2.762   9.710
66405SOL    HW2 1049   8.936   2.809   9.679
66406SOL     OW 1050   2.073  13.230   5.988
66406SOL    HW1 1051   2.008  13.160   5.999
66406SOL    HW2 1052   2.020  13.309   5.972
66407SOL     OW 1053   2.573   8.322  14.175
66407SOL    HW1 1054   2.606   8.289  14.091
66407SOL    HW2 1055   2.648   8.365  14.216
66408SOL     OW 1056  13.309   0.898   1.778
66408SOL    HW1 1057  13.336   0.810   1.803
66408SOL    HW2 1058  13.389   0.939   1.745
66409SOL     OW 1059   7.957   2.672   8.174
66409SOL    HW1 1060   7.916   2.599   8.220
66409SOL    HW2 1061   8.030   2.633   8.126
66410SOL     OW 1062  10.609   3.685   3.703
66410SOL    HW1 1063  10.656   3.747   3.759
66410SOL    HW2 1064  10.667   3.609   3.699
66411SOL     OW 1065  11.486   7.556   0.972
66411SOL    HW1 1066  11.438   7.477   0.945
66411SOL    HW2 1067  11.461   7.623   0.909
66412SOL     OW 1068   4.380   9.282   0.796
66412SOL    HW1 1069   4.434   9.361   0.797
66412SOL    HW2 1070   4.442   9.210   0.804
66413SOL     OW 1071   2.025   8.770   8.454
66413SOL    HW1 1072   2.014   8.769   8.549
66413SOL    HW2 1073   2.018   8.678   8.429
66414SOL     OW 1074   1.743  12.877  14.268
66414SOL    HW1 1075   1.831  12.839  14.268
66414SOL    HW2 1076   1.723  12.889  14.175
66415SOL     OW 1077   5.208  13.134   0.604
66415SOL    HW1 1078   5.183  13.074   0.674
66415SOL    HW2 1079   5.125  13.157   0.562
66416SOL     OW 1080  10.143   4.662  14.466
66416SOL    HW1 1081  10.078   4.719  14.425
66416SOL    HW2 1082  10.127   4.575  14.428
66417SOL     OW 1083   7.214  12.382   8.590
66417SOL    HW1 1084   7.150  12.318   8.561
66417SOL    HW2 1085   7.262  12.407   8.511
66418SOL     OW 1086   2.295   9.204   8.940
66418SOL    HW1 1087   2.327   9.114   8.932
66418SOL    HW2 1088   2.354   9.245   9.004
66419SOL     OW 1089   8.080  14.716  11.549
66419SOL    HW1 1090   7.993  14.682  11.529
66419SOL    HW2 1091   8.135  14.686  11.477
66420SOL     OW 1092  11.933  11.368   9.088
66420SOL    HW1 1093  11.914  11.306   9.159
66420SOL    HW2 1094  11.901  11.325   9.009
66421SOL     OW 1095   3.744   4.477   9.040
66421SOL    HW1 1096   3.751   4.403   8.980
66421SOL    HW2 1097   3.754   4.554   8.984
66422SOL     OW 1098   7.880   7.168   3.997
66422SOL    HW1 1099   7.866   7.075   3.978
66422SOL    HW2 1100   7.959   7.170   4.052
66423SOL     OW 1101   3.546  14.572   0.529
66423SOL    HW1 1102   3.526  14.568   0.435
66423SOL    HW2 1103   3.507  14.655   0.558
66424SOL     OW 1104  14.629   6.596   1.448
66424SOL    HW1 1105  14.597   6.669   1.502
66424SOL    HW2 1106  14.721   6.586   1.473
66425SOL     OW 1107   3.622  12.734  13.336
66425SOL    HW1 1108   3.713  12.724  13.307
66425SOL    HW2 1109   3.609  12.829  13.340
66426SOL     OW 1110   2.229  11.252   9.288
66426SOL    HW1 1111   2.268  11.252   9.201
66426SOL    HW2 1112   2.239  11.161   9.318
66427SOL     OW 1113  11.587  12.798   3.757
66427SOL    HW1 1114  11.573  12.892   3.766
66427SOL    HW2 1115  11.604  12.768   3.846
66428SOL     OW 1116   9.928  11.821   7.970
66428SOL    HW1 1117   9.833  11.813   7.971
66428SOL    HW2 1118   9.959  11.741   8.012
66429SOL     OW 1119  10.898  13.776   6.165
66429SOL    HW1 1120  10.901  13.818   6.251
66429SOL    HW2 1121  10.898  13.682   6.183
66430SOL     OW 1122   8.168   0.751   9.367
66430SOL    HW1 1123   8.165   0.809   9.444
66430SOL    HW2 1124   8.174   0.811   9.293
66431SOL     OW 1125   5.624   8.016  10.996
66431SOL    HW1 1126   5.571   8.044  10.922
66431SOL    HW2 1127   5.591   7.928  11.017
66432SOL     OW 1128   1.238   7.518  13.985
66432SOL    HW1 1129   1.277   7.479  14.063
66432SOL    HW2 1130   1.312   7.536  13.927
66433SOL     OW 1131   6.626  11.664   0.405
66433SOL    HW1 1132   6.631  11.570   0.385
66433SOL    HW2 1133   6.631  11.707   0.319
66434SOL     OW 1134   4.636   1.797   8.200
66434SOL    HW1 1135   4.552   1.780   8.244
66434SOL    HW2 1136   4.612   1.845   8.121
66435SOL     OW 1137   0.282   1.396  10.663
66435SOL    HW1 1138   0.215   1.418  10.599
66435SOL    HW2 1139   0.353   1.458  10.646
66436SOL     OW 1140   4.056   9.612   0.642
66436SOL    HW1 1141   4.061   9.667   0.720
66436SOL    HW2 1142   4.018   9.670   0.575
66437SOL     OW 1143  11.999   9.626   3.276
66437SOL    HW1 1144  12.035   9.555   3.222
66437SOL    HW2 1145  11.907   9.601   3.290
66438SOL     OW 1146   0.274   8.030  11.976
66438SOL    HW1 1147   0.223   7.949  11.977
66438SOL    HW2 1148   0.262   8.067  12.064
66439SOL     OW 1149   6.924  10.701  11.318
66439SOL    HW1 1150   6.965  10.726  11.236
66439SOL    HW2 1151   6.952  10.768  11.381
66440SOL     OW 1152  12.379   6.448   9.362
66440SOL    HW1 1153  12.298   6.399   9.348
66440SOL    HW2 1154  12.443   6.408   9.303
66441SOL     OW 1155   1.011   8.710   2.897
66441SOL    HW1 1156   1.047   8.624   2.873
66441SOL    HW2 1157   1.025   8.716   2.991
66442SOL     OW 1158  12.295   8.506   9.439
66442SOL    HW1 1159  12.282   8.411   9.438
66442SOL    HW2 1160  12.322   8.528   9.350
66443SOL     OW 1161   6.878   3.430   3.053
66443SOL    HW1 1162   6.932   3.352   3.067
66443SOL    HW2 1163   6.934   3.491   3.006
66444SOL     OW 1164   9.845   3.054   9.171
66444SOL    HW1 1165   9.873   3.142   9.144
66444SOL    HW2 1166   9.926   3.011   9.197
66445SOL     OW 1167   3.590  14.858   7.913
66445SOL    HW1 1168   3.633   0.044   7.858
66445SOL    HW2 1169   3.611  14.774   7.873
66446SOL     OW 1170   0.561   5.336  10.834
66446SOL    HW1 1171   0.588   5.428  10.837
66446SOL    HW2 1172   0.478   5.336  10.786
66447SOL     OW 1173   4.531   3.701   1.769
66447SOL    HW1 1174   4.514   3.636   1.700
66447SOL    HW2 1175   4.572   3.651   1.839
66448SOL     OW 1176   3.192  11.458  12.819
66448SOL    HW1 1177   3.173  11.387  12.756
66448SOL    HW2 1178   3.134  11.529  12.793
66449SOL     OW 1179   1.108   4.349   1.959
66449SOL    HW1 1180   1.065   4.271   1.994
66449SOL    HW2 1181   1.051   4.421   1.986
66450SOL     OW 1182  14.357   9.802   4.753
66450SOL    HW1 1183  14.390   9.725   4.800
66450SOL    HW2 1184  14.408   9.805   4.672
66451SOL     OW 1185   1.502   5.833   5.973
66451SOL    HW1 1186   1.517   5.833   5.878
66451SOL    HW2 1187   1.410   5.857   5.982
66452SOL     OW 1188   6.068   1.222  11.963
66452SOL    HW1 1189   6.078   1.294  12.025
66452SOL    HW2 1190   5.985   1.181  11.986
66453SOL     OW 1191   7.642   9.622   0.811
66453SOL    HW1 1192   7.610   9.683   0.745
66453SOL    HW2 1193   7.564   9.597   0.861
66454SOL     OW 1194   8.606   5.637   8.052
66454SOL    HW1 1195   8.522   5.679   8.071
66454SOL    HW2 1196   8.670   5.707   8.058
66455SOL     OW 1197   9.321  12.042   8.589
66455SOL    HW1 1198   9.345  11.965   8.640
66455SOL    HW2 1199   9.227  12.035   8.578
66456SOL     OW 1200   4.962  10.603   4.768
66456SOL    HW1 1201   5.025  10.531   4.767
66456SOL    HW2 1202   5.013  10.680   4.794
66457SOL     OW 1203   9.248   4.447   9.397
66457SOL    HW1 1204   9.269   4.539   9.411
66457SOL    HW2 1205   9.333   4.402   9.400
66458SOL     OW 1206   6.014  12.079   7.095
66458SOL    HW1 1207   5.934  12.034   7.069
66458SOL    HW2 1208   6.059  12.017   7.153
66459SOL     OW 1209  13.079   3.668  11.122
66459SOL    HW1 1210  13.172   3.687  11.134
66459SOL    HW2 1211  13.059   3.602  11.188
66460SOL     OW 1212   3.798   0.382   6.838
66460SOL    HW1 1213   3.851   0.450   6.879
66460SOL    HW2 1214   3.763   0.331   6.910
66461SOL     OW 1215  13.322   5.453  10.887
66461SOL    HW1 1216  13.270   5.489  10.959
66461SOL    HW2 1217  13.338   5.527  10.829
66462SOL     OW 1218   5.020  10.070   5.499
66462SOL    HW1 1219   4.969   9.992   5.521
66462SOL    HW2 1220   5.109  10.036   5.486
66463SOL     OW 1221  12.558  12.936   0.251
66463SOL    HW1 1222  12.557  13.012   0.192
66463SOL    HW2 1223  12.564  12.861   0.193
66464SOL     OW 1224   5.455  12.207  11.195
66464SOL    HW1 1225   5.404  12.259  11.257
66464SOL    HW2 1226   5.545  12.217  11.224
66465SOL     OW 1227   3.716   9.522   6.497
66465SOL    HW1 1228   3.646   9.486   6.443
66465SOL    HW2 1229   3.677   9.600   6.538
66466SOL     OW 1230   9.260   1.533  10.798
66466SOL    HW1 1231   9.274   1.495  10.884
66466SOL    HW2 1232   9.314   1.612  10.798
66467SOL     OW 1233  13.508   0.705   4.836
66467SOL    HW1 1234  13.570   0.679   4.768
66467SOL    HW2 1235  13.478   0.792   4.810
66468SOL     OW 1236   3.765   7.488   6.632
66468SOL    HW1 1237   3.682   7.522   6.666
66468SOL    HW2 1238   3.773   7.401   6.671
66469SOL     OW 1239  14.333   3.397  10.039
66469SOL    HW1 1240  14.399   3.427  10.102
66469SOL    HW2 1241  14.249   3.425  10.077
66470SOL     OW 1242   5.454  10.694  13.563
66470SOL    HW1 1243   5.400  10.627  13.523
66470SOL    HW2 1244   5.537  10.689  13.516
66471SOL     OW 1245   3.925   2.485   4.029
66471SOL    HW1 1246   3.912   2.391   4.036
66471SOL    HW2 1247   3.996   2.495   3.966
66472SOL     OW 1248  13.282   2.021  13.796
66472SOL    HW1 1249  13.276   2.067  13.712
66472SOL    HW2 1250  13.192   1.997  13.816
66473SOL     OW 1251  11.112   4.348  13.592
66473SOL    HW1 1252  11.167   4.275  13.565
66473SOL    HW2 1253  11.065   4.316  13.669
66474SOL     OW 1254   9.554   3.879   8.299
66474SOL    HW1 1255   9.647   3.874   8.319
66474SOL    HW2 1256   9.515   3.805   8.344
66475SOL     OW 1257   1.279   7.130  11.034
66475SOL    HW1 1258   1.197   7.080  11.026
66475SOL    HW2 1259   1.346   7.073  10.995
66476SOL     OW 1260  13.289   5.340  13.717
66476SOL    HW1 1261  13.349   5.404  13.756
66476SOL    HW2 1262  13.252   5.385  13.641
66477SOL     OW 1263   3.193   9.825   4.422
66477SOL    HW1 1264   3.170   9.898   4.364
66477SOL    HW2 1265   3.254   9.772   4.370
66478SOL     OW 1266   3.607   0.710   3.588
66478SOL    HW1 1267   3.566   0.772   3.528
66478SOL    HW2 1268   3.701   0.719   3.572
66479SOL     OW 1269   5.859  10.576   9.110
66479SOL    HW1 1270   5.927  10.639   9.088
66479SOL    HW2 1271   5.900  10.491   9.099
66480SOL     OW 1272   0.581   0.025   9.162
66480SOL    HW1 1273   0.668   0.053   9.131
66480SOL    HW2 1274   0.545   0.104   9.202
66481SOL     OW 1275  10.869   7.401  11.810
66481SOL    HW1 1276  10.913   7.404  11.895
66481SOL    HW2 1277  10.904   7.323  11.768
66482SOL     OW 1278   6.732  12.705  13.620
66482SOL    HW1 1279   6.726  12.611  13.604
66482SOL    HW2 1280   6.644  12.730  13.650
66483SOL     OW 1281   8.927   0.410   5.319
66483SOL    HW1 1282   8.981   0.452   5.252
66483SOL    HW2 1283   8.852   0.468   5.329
66484SOL     OW 1284  11.507   1.083   6.375
66484SOL    HW1 1285  11.472   1.042   6.296
66484SOL    HW2 1286  11.519   1.175   6.352
66485SOL     OW 1287   3.649   1.099   9.049
66485SOL    HW1 1288   3.710   1.128   9.117
66485SOL    HW2 1289   3.684   1.016   9.018
66486SOL     OW 1290  14.771   2.967   8.711
66486SOL    HW1 1291  14.809   3.054   8.712
66486SOL    HW2 1292  14.814   2.921   8.783
66487SOL     OW 1293  13.193   5.789  12.571
66487SOL    HW1 1294  13.113   5.790  12.518
66487SOL    HW2 1295  13.201   5.878  12.604
66488SOL     OW 1296   6.019   4.153  12.569
66488SOL    HW1 1297   6.103   4.189  12.539
66488SOL    HW2 1298   5.955   4.184  12.505
66489SOL     OW 1299  12.430   1.933  12.540
66489SOL    HW1 1300  12.355   1.939  12.600
66489SOL    HW2 1301  12.392   1.899  12.459
66490SOL     OW 1302  14.342   7.672   9.188
66490SOL    HW1 1303  14.327   7.577   9.192
66490SOL    HW2 1304  14.398   7.684   9.112
66491SOL     OW 1305   9.363   4.787   3.228
66491SOL    HW1 1306   9.294   4.731   3.193
66491SOL    HW2 1307   9.319   4.868   3.252
66492SOL     OW 1308   9.349   4.548   5.530
66492SOL    HW1 1309   9.373   4.461   5.497
66492SOL    HW2 1310   9.279   4.577   5.471
66493SOL     OW 1311   4.850  12.662   7.836
66493SOL    HW1 1312   4.848  12.573   7.872
66493SOL    HW2 1313   4.899  12.653   7.754
66494SOL     OW 1314   0.817   1.066   3.713
66494SOL    HW1 1315   0.794   1.150   3.674
66494SOL    HW2 1316   0.860   1.088   3.796
66495SOL     OW 1317   4.104   8.794  12.379
66495SOL    HW1 1318   4.101   8.867  12.442
66495SOL    HW2 1319   4.074   8.718  12.429
66496SOL     OW 1320  12.874   5.342   4.252
66496SOL    HW1 1321  12.791   5.294   4.256
66496SOL    HW2 1322  12.882   5.384   4.338
66497SOL     OW 1323  12.429   4.193   7.968
66497SOL    HW1 1324  12.518   4.214   7.939
66497SOL    HW2 1325  12.433   4.099   7.989
66498SOL     OW 1326   1.755   2.819  10.779
66498SOL    HW1 1327   1.705   2.795  10.701
66498SOL    HW2 1328   1.846   2.821  10.749
66499SOL     OW 1329   0.646  13.178   1.661
66499SOL    HW1 1330   0.719  13.196   1.720
66499SOL    HW2 1331   0.686  13.128   1.589
66500SOL     OW 1332   0.894   6.986   7.819
66500SOL    HW1 1333   0.835   7.031   7.758
66500SOL    HW2 1334   0.840   6.917   7.858
66501SOL     OW 1335   6.124   7.413   2.848
66501SOL    HW1 1336   6.119   7.317   2.851
66501SOL    HW2 1337   6.213   7.431   2.817
66502SOL     OW 1338   0.018   3.905   2.814
66502SOL    HW1 1339   0.046   3.911   2.906
66502SOL    HW2 1340   0.047   3.818   2.786
66503SOL     OW 1341   6.887   5.961   0.836
66503SOL    HW1 1342   6.941   6.040   0.844
66503SOL    HW2 1343   6.805   5.985   0.880
66504SOL     OW 1344  11.291  10.512   3.944
66504SOL    HW1 1345  11.292  10.551   4.031
66504SOL    HW2 1346  11.224  10.561   3.896
66505SOL     OW 1347   7.497   2.161   7.824
66505SOL    HW1 1348   7.589   2.161   7.797
66505SOL    HW2 1349   7.459   2.237   7.779
66506SOL     OW 1350   8.240   3.629   7.614
66506SOL    HW1 1351   8.246   3.534   7.601
66506SOL    HW2 1352   8.286   3.644   7.697
66507SOL     OW 1353  12.466   4.010  12.562
66507SOL    HW1 1354  12.389   4.029  12.507
66507SOL    HW2 1355  12.504   3.931  12.524
66508SOL     OW 1356   2.230  11.226   8.587
66508SOL    HW1 1357   2.297  11.228   8.519
66508SOL    HW2 1358   2.213  11.133   8.602
66509SOL     OW 1359  14.616   4.824   6.086
66509SOL    HW1 1360  14.679   4.756   6.111
66509SOL    HW2 1361  14.647   4.902   6.133
66510SOL     OW 1362  11.549  12.339  11.528
66510SOL    HW1 1363  11.529  12.263  11.582
66510SOL    HW2 1364  11.582  12.404  11.589
66511SOL     OW 1365   7.186   9.222  14.230
66511SOL    HW1 1366   7.215   9.258  14.146
66511SOL    HW2 1367   7.264   9.181  14.267
66512SOL     OW 1368  12.304   7.835   7.478
66512SOL    HW1 1369  12.296   7.919   7.433
66512SOL    HW2 1370  12.354   7.780   7.418
66513SOL     OW 1371  12.785   1.165  12.085
66513SOL    HW1 1372  12.726   1.177  12.010
66513SOL    HW2 1373  12.746   1.219  12.154
66514SOL     OW 1374   7.376   8.280   5.061
66514SOL    HW1 1375   7.325   8.229   5.124
66514SOL    HW2 1376   7.316   8.351   5.035
66515SOL     OW 1377   4.954  12.587   3.132
66515SOL    HW1 1378   4.991  12.499   3.119
66515SOL    HW2 1379   4.946  12.622   3.044
66516SOL     OW 1380  13.320  13.535   3.707
66516SOL    HW1 1381  13.338  13.629   3.698
66516SOL    HW2 1382  13.301  13.506   3.618
66517SOL     OW 1383   9.392   0.698  12.424
66517SOL    HW1 1384   9.378   0.647  12.503
66517SOL    HW2 1385   9.461   0.652  12.377
66518SOL     OW 1386   4.022  13.119   5.371
66518SOL    HW1 1387   4.091  13.092   5.431
66518SOL    HW2 1388   3.967  13.177   5.423
66519SOL     OW 1389   4.800  12.216   7.146
66519SOL    HW1 1390   4.713  12.214   7.104
66519SOL    HW2 1391   4.862  12.211   7.073
66520SOL     OW 1392   9.088   3.678   4.886
66520SOL    HW1 1393   9.127   3.600   4.846
66520SOL    HW2 1394   8.997   3.677   4.857
66521SOL     OW 1395   7.423  14.817  14.793
66521SOL    HW1 1396   7.327  14.818  14.792
66521SOL    HW2 1397   7.448   0.027  14.818
66522SOL     OW 1398   5.550   7.963   9.163
66522SOL    HW1 1399   5.614   8.010   9.109
66522SOL    HW2 1400   5.465   7.997   9.134
66523SOL     OW 1401   2.506  12.746   9.654
66523SOL    HW1 1402   2.513  12.734   9.749
66523SOL    HW2 1403   2.584  12.706   9.618
66524SOL     OW 1404   8.164   5.412  14.591
66524SOL    HW1 1405   8.113   5.365  14.525
66524SOL    HW2 1406   8.177   5.499  14.554
66525SOL     OW 1407   0.209   2.892   2.163
66525SOL    HW1 1408   0.240   2.820   2.218
66525SOL    HW2 1409   0.241   2.870   2.075
66526SOL     OW 1410  14.178   3.310  10.612
66526SOL    HW1 1411  14.209   3.394  10.578
66526SOL    HW2 1412  14.169   3.255  10.534
66527SOL     OW 1413  13.459   9.342  13.367
66527SOL    HW1 1414  13.554   9.356  13.357
66527SOL    HW2 1415  13.437   9.279  13.299
66528SOL     OW 1416  11.474  13.530  13.103
66528SOL    HW1 1417  11.422  13.517  13.024
66528SOL    HW2 1418  11.537  13.458  13.103
66529SOL     OW 1419  10.960   1.941   2.157
66529SOL    HW1 1420  10.877   1.966   2.198
66529SOL    HW2 1421  11.015   2.020   2.164
66530SOL     OW 1422   3.033   0.637   8.762
66530SOL    HW1 1423   3.039   0.725   8.726
66530SOL    HW2 1424   3.120   0.599   8.748
66531SOL     OW 1425   9.207  11.069  11.797
66531SOL    HW1 1426   9.219  11.059  11.891
66531SOL    HW2 1427   9.274  11.131  11.771
66532SOL     OW 1428  11.087   6.994   8.076
66532SOL    HW1 1429  11.144   7.071   8.085
66532SOL    HW2 1430  11.137   6.923   8.114
66533SOL     OW 1431   5.137   2.955   5.414
66533SOL    HW1 1432   5.223   2.971   5.376
66533SOL    HW2 1433   5.139   2.863   5.440
66534SOL     OW 1434  10.583   0.673   2.837
66534SOL    HW1 1435  10.637   0.625   2.900
66534SOL    HW2 1436  10.528   0.606   2.796
66535SOL     OW 1437   3.286  12.656   3.241
66535SOL    HW1 1438   3.257  12.590   3.303
66535SOL    HW2 1439   3.361  12.699   3.284
66536SOL     OW 1440  14.618   3.426   3.712
66536SOL    HW1 1441  14.534   3.467   3.691
66536SOL    HW2 1442  14.619   3.423   3.808
66537SOL     OW 1443   7.350  10.502   2.598
66537SOL    HW1 1444   7.393  10.529   2.517
66537SOL    HW2 1445   7.313  10.416   2.578
66538SOL     OW 1446  13.163   9.397  11.936
66538SOL    HW1 1447  13.201   9.310  11.931
66538SOL    HW2 1448  13.199   9.444  11.860
66539SOL     OW 1449   3.813   4.822   9.237
66539SOL    HW1 1450   3.800   4.864   9.322
66539SOL    HW2 1451   3.764   4.739   9.243
66540SOL     OW 1452  11.830  11.699   1.691
66540SOL    HW1 1453  11.872  11.639   1.629
66540SOL    HW2 1454  11.832  11.784   1.647
66541SOL     OW 1455   2.797   6.927  14.620
66541SOL    HW1 1456   2.744   6.953  14.696
66541SOL    HW2 1457   2.745   6.861  14.575
66542SOL     OW 1458  13.125   3.635   5.673
66542SOL    HW1 1459  13.184   3.677   5.610
66542SOL    HW2 1460  13.072   3.706   5.708
66543SOL     OW 1461   2.247   1.878  11.989
66543SOL    HW1 1462   2.296   1.938  12.046
66543SOL    HW2 1463   2.206   1.935  11.924
66544SOL     OW 1464   0.995   9.497   9.707
66544SOL    HW1 1465   1.087   9.474   9.717
66544SOL    HW2 1466   0.954   9.419   9.670
66545SOL     OW 1467  13.481   7.514   8.167
66545SOL    HW1 1468  13.514   7.469   8.244
66545SOL    HW2 1469  13.398   7.472   8.147
66546SOL     OW 1470   3.406   9.772   1.780
66546SOL    HW1 1471   3.478   9.801   1.723
66546SOL    HW2 1472   3.421   9.678   1.789
66547SOL     OW 1473   2.772  11.806  11.518
66547SOL    HW1 1474   2.855  11.779  11.559
66547SOL    HW2 1475   2.799  11.852  11.438
66548SOL     OW 1476   9.695  10.576  12.129
66548SOL    HW1 1477   9.601  10.565  12.143
66548SOL    HW2 1478   9.727  10.609  12.213
66549SOL     OW 1479  14.436  12.599  11.762
66549SOL    HW1 1480  14.345  12.571  11.759
66549SOL    HW2 1481  14.458  12.598  11.855
66550SOL     OW 1482   9.085   7.898  14.304
66550SOL    HW1 1483   9.178   7.920  14.296
66550SOL    HW2 1484   9.052   7.959  14.369
66551SOL     OW 1485   2.704   0.486   9.801
66551SOL    HW1 1486   2.624   0.435   9.785
66551SOL    HW2 1487   2.687   0.530   9.884
66552SOL     OW 1488   5.858  13.526   2.657
66552SOL    HW1 1489   5.876  13.484   2.574
66552SOL    HW2 1490   5.787  13.587   2.639
66553SOL     OW 1491   1.105   5.504   2.147
66553SOL    HW1 1492   1.177   5.518   2.209
66553SOL    HW2 1493   1.094   5.409   2.145
66554SOL     OW 1494   7.430   9.918   9.128
66554SOL    HW1 1495   7.417   9.971   9.207
66554SOL    HW2 1496   7.415   9.980   9.056
66555SOL     OW 1497   4.753   6.851   8.943
66555SOL    HW1 1498   4.687   6.899   8.893
66555SOL    HW2 1499   4.836   6.886   8.913
66556SOL     OW 1500   5.600   2.876  13.200
66556SOL    HW1 1501   5.537   2.804  13.207
66556SOL    HW2 1502   5.667   2.843  13.140
66557SOL     OW 1503  12.260  10.934   2.688
66557SOL    HW1 1504  12.182  10.901   2.734
66557SOL    HW2 1505  12.251  10.900   2.599
66558SOL     OW 1506   4.609  14.626   4.660
66558SOL    HW1 1507   4.560  14.591   4.735
66558SOL    HW2 1508   4.543  14.674   4.609
66559SOL     OW 1509   0.560   1.208   4.407
66559SOL    HW1 1510   0.587   1.116   4.414
66559SOL    HW2 1511   0.532   1.232   4.495
66560SOL     OW 1512  10.793   2.626  13.297
66560SOL    HW1 1513  10.858   2.696  13.292
66560SOL    HW2 1514  10.753   2.637  13.384
66561SOL     OW 1515   8.043   7.890   3.056
66561SOL    HW1 1516   7.994   7.972   3.062
66561SOL    HW2 1517   8.125   7.909   3.103
66562SOL     OW 1518  10.322   6.478  12.595
66562SOL    HW1 1519  10.229   6.479  12.618
66562SOL    HW2 1520  10.364   6.533  12.661
66563SOL     OW 1521   7.708  12.375  10.300
66563SOL    HW1 1522   7.731  12.386  10.393
66563SOL    HW2 1523   7.694  12.464  10.268
66564SOL     OW 1524   8.922  11.935   3.154
66564SOL    HW1 1525   8.871  11.857   3.175
66564SOL    HW2 1526   8.907  11.949   3.060
66565SOL     OW 1527  12.645   6.754  10.344
66565SOL    HW1 1528  12.668   6.774  10.435
66565SOL    HW2 1529  12.556   6.788  10.334
66566SOL     OW 1530  14.506   6.828   7.624
66566SOL    HW1 1531  14.593   6.838   7.585
66566SOL    HW2 1532  14.449   6.808   7.550
66567SOL     OW 1533   1.105   5.379  12.822
66567SOL    HW1 1534   1.013   5.373  12.846
66567SOL    HW2 1535   1.105   5.372  12.726
66568SOL     OW 1536   6.558   7.939   1.537
66568SOL    HW1 1537   6.469   7.913   1.512
66568SOL    HW2 1538   6.613   7.865   1.512
66569SOL     OW 1539  11.524  10.255   3.832
66569SOL    HW1 1540  11.544  10.317   3.903
66569SOL    HW2 1541  11.477  10.184   3.875
66570SOL     OW 1542   4.675   5.827  11.923
66570SOL    HW1 1543   4.658   5.835  11.829
66570SOL    HW2 1544   4.648   5.911  11.959
66571SOL     OW 1545   2.788  14.164   9.041
66571SOL    HW1 1546   2.842  14.155   8.963
66571SOL    HW2 1547   2.741  14.247   9.029
66572SOL     OW 1548   7.524  13.302   7.120
66572SOL    HW1 1549   7.566  13.383   7.148
66572SOL    HW2 1550   7.593  13.252   7.076
66573SOL     OW 1551   9.394   4.090   5.122
66573SOL    HW1 1552   9.384   4.073   5.215
66573SOL    HW2 1553   9.478   4.051   5.099
66574SOL     OW 1554  13.140   7.824   8.082
66574SOL    HW1 1555  13.079   7.752   8.064
66574SOL    HW2 1556  13.087   7.889   8.128
66575SOL     OW 1557   3.926   3.624   0.479
66575SOL    HW1 1558   3.876   3.696   0.519
66575SOL    HW2 1559   3.925   3.556   0.546
66576SOL     OW 1560   5.676  11.376   0.784
66576SOL    HW1 1561   5.582  11.389   0.766
66576SOL    HW2 1562   5.719  11.446   0.736
66577SOL     OW 1563  10.520   4.343  12.860
66577SOL    HW1 1564  10.590   4.325  12.797
66577SOL    HW2 1565  10.507   4.438  12.854
66578SOL     OW 1566   0.510   7.092  11.233
66578SOL    HW1 1567   0.588   7.100  11.178
66578SOL    HW2 1568   0.508   7.000  11.260
66579SOL     OW 1569   4.922   7.489   6.856
66579SOL    HW1 1570   4.881   7.523   6.935
66579SOL    HW2 1571   4.849   7.454   6.804
66580SOL     OW 1572   2.010   4.369   2.442
66580SOL    HW1 1573   1.934   4.395   2.494
66580SOL    HW2 1574   2.054   4.304   2.495
66581SOL     OW 1575   2.259  10.135   5.643
66581SOL    HW1 1576   2.216  10.078   5.707
66581SOL    HW2 1577   2.339  10.164   5.688
66582SOL     OW 1578  12.682   5.926   7.964
66582SOL    HW1 1579  12.679   6.018   7.991
66582SOL    HW2 1580  12.624   5.881   8.025
66583SOL     OW 1581   5.961   4.750  10.670
66583SOL    HW1 1582   6.057   4.739  10.670
66583SOL    HW2 1583   5.945   4.820  10.734
66584SOL     OW 1584   6.788  12.439   8.665
66584SOL    HW1 1585   6.739  12.508   8.620
66584SOL    HW2 1586   6.840  12.486   8.731
66585SOL     OW 1587   9.466   8.134   6.111
66585SOL    HW1 1588   9.426   8.049   6.091
66585SOL    HW2 1589   9.427   8.160   6.194
66586SOL     OW 1590  10.009   0.547   1.838
66586SOL    HW1 1591   9.958   0.600   1.899
66586SOL    HW2 1592   9.957   0.546   1.758
66587SOL     OW 1593   4.881  14.658  10.578
66587SOL    HW1 1594   4.940  14.701  10.640
66587SOL    HW2 1595   4.884  14.713  10.500
66588SOL     OW 1596   3.810   7.659   5.136
66588SOL    HW1 1597   3.860   7.609   5.072
66588SOL    HW2 1598   3.872   7.680   5.205
66589SOL     OW 1599   6.804  10.390   5.303
66589SOL    HW1 1600   6.827  10.391   5.396
66589SOL    HW2 1601   6.726  10.446   5.298
66590SOL     OW 1602   1.704  10.358   9.088
66590SOL    HW1 1603   1.728  10.269   9.113
66590SOL    HW2 1604   1.626  10.348   9.034
66591SOL     OW 1605   5.273  13.370   1.318
66591SOL    HW1 1606   5.205  13.379   1.385
66591SOL    HW2 1607   5.337  13.311   1.356
66592SOL     OW 1608   4.424   1.329  10.027
66592SOL    HW1 1609   4.365   1.323  10.102
66592SOL    HW2 1610   4.376   1.380   9.962
66593SOL     OW 1611  10.008  13.427   1.566
66593SOL    HW1 1612  10.076  13.400   1.505
66593SOL    HW2 1613   9.950  13.483   1.515
66594SOL     OW 1614   9.088   0.381   5.645
66594SOL    HW1 1615   9.160   0.340   5.597
66594SOL    HW2 1616   9.097   0.475   5.628
66595SOL     OW 1617  12.829  10.649  11.168
66595SOL    HW1 1618  12.780  10.712  11.116
66595SOL    HW2 1619  12.789  10.565  11.148
66596SOL     OW 1620  14.167  10.598   9.854
66596SOL    HW1 1621  14.080  10.630   9.878
66596SOL    HW2 1622  14.149  10.527   9.791
66597SOL     OW 1623   0.950  10.156   2.602
66597SOL    HW1 1624   0.897  10.076   2.592
66597SOL    HW2 1625   0.891  10.227   2.577
66598SOL     OW 1626  10.748   0.874   9.938
66598SOL    HW1 1627  10.671   0.912   9.896
66598SOL    HW2 1628  10.719   0.853  10.027
66599SOL     OW 1629  12.846   2.513   7.651
66599SOL    HW1 1630  12.839   2.419   7.635
66599SOL    HW2 1631  12.837   2.522   7.746
66600SOL     OW 1632  13.744   7.240   4.387
66600SOL    HW1 1633  13.710   7.327   4.410
66600SOL    HW2 1634  13.780   7.251   4.299
66601SOL     OW 1635  14.429   6.343   9.905
66601SOL    HW1 1636  14.449   6.264   9.855
66601SOL    HW2 1637  14.385   6.311   9.984
66602SOL     OW 1638   2.401   8.106  11.007
66602SOL    HW1 1639   2.386   8.045  10.935
66602SOL    HW2 1640   2.477   8.157  10.980
66603SOL     OW 1641   1.863  14.262  13.946
66603SOL    HW1 1642   1.834  14.247  14.036
66603SOL    HW2 1643   1.959  14.253  13.950
66604SOL     OW 1644   9.672   7.686   5.794
66604SOL    HW1 1645   9.720   7.705   5.714
66604SOL    HW2 1646   9.584   7.665   5.765
66605SOL     OW 1647   3.373   9.549   4.428
66605SOL    HW1 1648   3.360   9.533   4.334
66605SOL    HW2 1649   3.301   9.501   4.470
66606SOL     OW 1650  13.018   2.940   0.113
66606SOL    HW1 1651  13.059   2.868   0.064
66606SOL    HW2 1652  13.050   3.019   0.071
66607SOL     OW 1653   7.683  14.204   4.685
66607SOL    HW1 1654   7.677  14.115   4.718
66607SOL    HW2 1655   7.770  14.210   4.646
66608SOL     OW 1656   0.619  12.004  10.521
66608SOL    HW1 1657   0.567  11.971  10.448
66608SOL    HW2 1658   0.699  11.950  10.519
66609SOL     OW 1659  13.270  12.928  10.837
66609SOL    HW1 1660  13.200  12.879  10.881
66609SOL    HW2 1661  13.294  12.997  10.899
66610SOL     OW 1662   3.263  13.372  12.333
66610SOL    HW1 1663   3.251  13.375  12.428
66610SOL    HW2 1664   3.211  13.298  12.304
66611SOL     OW 1665  10.847   4.224   5.198
66611SOL    HW1 1666  10.914   4.256   5.138
66611SOL    HW2 1667  10.888   4.227   5.284
66612SOL     OW 1668   1.557  11.874   7.989
66612SOL    HW1 1669   1.537  11.956   7.944
66612SOL    HW2 1670   1.641  11.891   8.033
66613SOL     OW 1671   8.746  13.382  12.389
66613SOL    HW1 1672   8.724  13.386  12.482
66613SOL    HW2 1673   8.761  13.473  12.364
66614SOL     OW 1674   4.638   0.513   4.702
66614SOL    HW1 1675   4.543   0.520   4.713
66614SOL    HW2 1676   4.674   0.566   4.773
66615SOL     OW 1677   7.513  10.203  12.271
66615SOL    HW1 1678   7.591  10.151  12.253
66615SOL    HW2 1679   7.479  10.168  12.353
66616SOL     OW 1680  12.189   2.246   8.538
66616SOL    HW1 1681  12.100   2.278   8.524
66616SOL    HW2 1682  12.187   2.155   8.507
66617SOL     OW 1683   8.382   6.695   1.586
66617SOL    HW1 1684   8.426   6.712   1.669
66617SOL    HW2 1685   8.399   6.773   1.533
66618SOL     OW 1686   5.549   7.749  11.089
66618SOL    HW1 1687   5.620   7.702  11.044
66618SOL    HW2 1688   5.582   7.761  11.178
66619SOL     OW 1689   2.298  12.259   1.207
66619SOL    HW1 1690   2.344  12.317   1.147
66619SOL    HW2 1691   2.292  12.175   1.160
66620SOL     OW 1692   5.964   1.215  13.020
66620SOL    HW1 1693   5.966   1.298  12.973
66620SOL    HW2 1694   5.875   1.182  13.007
66621SOL     OW 1695   6.180   2.356  12.505
66621SOL    HW1 1696   6.130   2.280  12.536
66621SOL    HW2 1697   6.129   2.431  12.535
66622SOL     OW 1698   0.919   5.829  13.821
66622SOL    HW1 1699   0.899   5.803  13.910
66622SOL    HW2 1700   0.840   5.809  13.771
66623SOL     OW 1701   7.368   5.010   4.952
66623SOL    HW1 1702   7.280   5.032   4.923
66623SOL    HW2 1703   7.386   4.926   4.910
66624SOL     OW 1704  13.168   7.619   1.602
66624SOL    HW1 1705  13.222   7.688   1.640
66624SOL    HW2 1706  13.104   7.665   1.548
66625SOL     OW 1707   0.949   6.317  11.404
66625SOL    HW1 1708   0.948   6.225  11.430
66625SOL    HW2 1709   1.042   6.339  11.398
66626SOL     OW 1710   1.674   8.302  14.406
66626SOL    HW1 1711   1.653   8.257  14.488
66626SOL    HW2 1712   1.710   8.233  14.350
66627SOL     OW 1713  14.445  10.406  13.079
66627SOL    HW1 1714  14.420  10.458  13.003
66627SOL    HW2 1715  14.417  10.317  13.057
66628SOL     OW 1716   4.568  10.771   4.531
66628SOL    HW1 1717   4.577  10.829   4.455
66628SOL    HW2 1718   4.658  10.754   4.559
66629SOL     OW 1719   9.529   8.510   2.813
66629SOL    HW1 1720   9.464   8.450   2.850
66629SOL    HW2 1721   9.607   8.496   2.867
66630SOL     OW 1722   5.752  11.154   5.179
66630SOL    HW1 1723   5.795  11.077   5.140
66630SOL    HW2 1724   5.736  11.213   5.105
66631SOL     OW 1725   0.095  13.430   6.109
66631SOL    HW1 1726   0.185  13.457   6.091
66631SOL    HW2 1727   0.072  13.373   6.037
66632SOL     OW 1728   2.490   7.575  10.730
66632SOL    HW1 1729   2.571   7.626  10.726
66632SOL    HW2 1730   2.464   7.578  10.822
66633SOL     OW 1731   5.994   0.002   8.970
66633SOL    HW1 1732   6.070  14.874   9.028
66633SOL    HW2 1733   5.927  14.826   9.012
66634SOL     OW 1734  10.705   7.708   9.310
66634SOL    HW1 1735  10.724   7.705   9.404
66634SOL    HW2 1736  10.619   7.750   9.304
66635SOL     OW 1737  11.729   8.927   1.205
66635SOL    HW1 1738  11.656   8.961   1.257
66635SOL    HW2 1739  11.750   8.997   1.144
66636SOL     OW 1740  14.499   7.315   2.930
66636SOL    HW1 1741  14.511   7.267   2.848
66636SOL    HW2 1742  14.433   7.381   2.911
66637SOL     OW 1743   5.370   1.341  11.857
66637SOL    HW1 1744   5.465   1.344  11.871
66637SOL    HW2 1745   5.342   1.258  11.896
66638SOL     OW 1746  12.070   1.109   6.904
66638SOL    HW1 1747  12.153   1.083   6.865
66638SOL    HW2 1748  12.040   1.182   6.850
66639SOL     OW 1749   2.445   2.775  11.138
66639SOL    HW1 1750   2.390   2.746  11.065
66639SOL    HW2 1751   2.413   2.863  11.159
66640SOL     OW 1752  14.499   2.087   2.492
66640SOL    HW1 1753  14.470   2.114   2.405
66640SOL    HW2 1754  14.489   2.166   2.546
66641SOL     OW 1755  12.209   1.841   9.554
66641SOL    HW1 1756  12.222   1.749   9.530
66641SOL    HW2 1757  12.162   1.879   9.480
66642SOL     OW 1758  14.036   2.837  12.547
66642SOL    HW1 1759  14.066   2.780  12.617
66642SOL    HW2 1760  13.968   2.787  12.502
66643SOL     OW 1761   4.397   3.517   8.946
66643SOL    HW1 1762   4.469   3.544   9.003
66643SOL    HW2 1763   4.389   3.423   8.961
66644SOL     OW 1764  12.023  14.622   3.292
66644SOL    HW1 1765  12.033  14.717   3.284
66644SOL    HW2 1766  12.062  14.601   3.377
66645SOL     OW 1767   0.284  11.529  14.619
66645SOL    HW1 1768   0.190  11.520  14.630
66645SOL    HW2 1769   0.294  11.581  14.539
66646SOL     OW 1770  11.058   4.762   8.358
66646SOL    HW1 1771  11.043   4.773   8.452
66646SOL    HW2 1772  10.972   4.780   8.318
66647SOL     OW 1773   9.637   8.349  10.721
66647SOL    HW1 1774   9.652   8.345  10.626
66647SOL    HW2 1775   9.554   8.397  10.729
66648SOL     OW 1776   0.744   4.019  12.480
66648SOL    HW1 1777   0.674   4.024  12.415
66648SOL    HW2 1778   0.737   3.931  12.517
66649SOL     OW 1779   4.604   2.990   9.141
66649SOL    HW1 1780   4.509   2.991   9.124
66649SOL    HW2 1781   4.616   2.916   9.201
66650SOL     OW 1782   5.828   4.809   5.912
66650SOL    HW1 1783   5.811   4.902   5.893
66650SOL    HW2 1784   5.922   4.806   5.929
66651SOL     OW 1785   2.884   9.567   4.862
66651SOL    HW1 1786   2.809   9.560   4.920
66651SOL    HW2 1787   2.905   9.660   4.860
66652SOL     OW 1788   1.212  12.111   3.036
66652SOL    HW1 1789   1.179  12.076   2.953
66652SOL    HW2 1790   1.176  12.052   3.103
66653SOL     OW 1791  10.353   0.968  14.495
66653SOL    HW1 1792  10.327   0.914  14.420
66653SOL    HW2 1793  10.303   0.932  14.569
66654SOL     OW 1794  10.917  10.842   5.359
66654SOL    HW1 1795  10.826  10.860   5.383
66654SOL    HW2 1796  10.965  10.847   5.442
66655SOL     OW 1797   6.774   6.135   9.632
66655SOL    HW1 1798   6.681   6.153   9.642
66655SOL    HW2 1799   6.817   6.219   9.648
66656SOL     OW 1800   4.391   1.987   8.483
66656SOL    HW1 1801   4.352   2.037   8.412
66656SOL    HW2 1802   4.384   2.045   8.559
66657SOL     OW 1803  13.561   4.179   5.567
66657SOL    HW1 1804  13.535   4.224   5.486
66657SOL    HW2 1805  13.499   4.210   5.633
66658SOL     OW 1806   7.319   2.416   0.808
66658SOL    HW1 1807   7.336   2.449   0.720
66658SOL    HW2 1808   7.231   2.377   0.803
66659SOL     OW 1809  13.707   1.326   6.656
66659SOL    HW1 1810  13.687   1.420   6.649
66659SOL    HW2 1811  13.721   1.312   6.750
66660SOL     OW 1812  12.999  10.786   8.839
66660SOL    HW1 1813  12.953  10.759   8.918
66660SOL    HW2 1814  13.089  10.801   8.868
66661SOL     OW 1815   7.517   4.578   0.548
66661SOL    HW1 1816   7.558   4.492   0.559
66661SOL    HW2 1817   7.430   4.559   0.513
66662SOL     OW 1818   5.812  13.380  13.369
66662SOL    HW1 1819   5.796  13.468  13.403
66662SOL    HW2 1820   5.907  13.367  13.377
66663SOL     OW 1821  13.037  14.565   6.344
66663SOL    HW1 1822  13.092  14.530   6.414
66663SOL    HW2 1823  13.090  14.555   6.264
66664SOL     OW 1824   3.516   3.643   3.280
66664SOL    HW1 1825   3.471   3.610   3.202
66664SOL    HW2 1826   3.607   3.653   3.251
66665SOL     OW 1827  12.104   1.938  10.635
66665SOL    HW1 1828  12.046   1.944  10.559
66665SOL    HW2 1829  12.122   2.029  10.659
66666SOL     OW 1830   6.503  11.552   9.962
66666SOL    HW1 1831   6.538  11.464   9.973
66666SOL    HW2 1832   6.445  11.544   9.886
66667SOL     OW 1833  12.562  14.081   9.480
66667SOL    HW1 1834  12.551  14.176   9.481
66667SOL    HW2 1835  12.482  14.048   9.438
66668SOL     OW 1836  10.374   9.977   6.877
66668SOL    HW1 1837  10.410  10.011   6.959
66668SOL    HW2 1838  10.300  10.034   6.858
66669SOL     OW 1839  13.530  11.036   2.438
66669SOL    HW1 1840  13.471  10.983   2.491
66669SOL    HW2 1841  13.475  11.071   2.368
66670SOL     OW 1842   8.648   7.745  10.161
66670SOL    HW1 1843   8.640   7.740  10.066
66670SOL    HW2 1844   8.741   7.757  10.177
66671SOL     OW 1845  10.352   3.156  12.354
66671SOL    HW1 1846  10.436   3.147  12.399
66671SOL    HW2 1847  10.362   3.107  12.273
66672SOL     OW 1848   7.214   6.837   7.242
66672SOL    HW1 1849   7.217   6.927   7.211
66672SOL    HW2 1850   7.153   6.792   7.184
66673SOL     OW 1851  11.057   1.385   6.736
66673SOL    HW1 1852  10.995   1.456   6.720
66673SOL    HW2 1853  11.143   1.422   6.716
66674SOL     OW 1854   3.669   1.768  11.270
66674SOL    HW1 1855   3.674   1.815  11.187
66674SOL    HW2 1856   3.625   1.829  11.330
66675SOL     OW 1857  11.819   8.897   0.432
66675SOL    HW1 1858  11.743   8.839   0.426
66675SOL    HW2 1859  11.862   8.871   0.513
66676SOL     OW 1860   9.683   8.045  13.522
66676SOL    HW1 1861   9.774   8.041  13.492
66676SOL    HW2 1862   9.664   8.139  13.526
66677SOL     OW 1863   8.112  10.250   9.542
66677SOL    HW1 1864   8.154  10.312   9.483
66677SOL    HW2 1865   8.152  10.267   9.627
66678SOL     OW 1866   1.395  10.975   8.028
66678SOL    HW1 1867   1.384  10.881   8.016
66678SOL    HW2 1868   1.486  10.985   8.057
66679SOL     OW 1869  10.891   8.718  13.592
66679SOL    HW1 1870  10.911   8.680  13.507
66679SOL    HW2 1871  10.974   8.719  13.639
66680SOL     OW 1872  11.182   0.926   2.068
66680SOL    HW1 1873  11.255   0.866   2.084
66680SOL    HW2 1874  11.171   0.973   2.151
66681SOL     OW 1875   8.670   5.915  13.657
66681SOL    HW1 1876   8.712   5.913  13.742
66681SOL    HW2 1877   8.641   5.825  13.642
66682SOL     OW 1878  10.326   7.027   3.165
66682SOL    HW1 1879  10.339   7.121   3.154
66682SOL    HW2 1880  10.377   7.004   3.243
66683SOL     OW 1881  10.382   4.862   4.055
66683SOL    HW1 1882  10.373   4.798   3.985
66683SOL    HW2 1883  10.296   4.904   4.060
66684SOL     OW 1884   4.327   6.673   4.414
66684SOL    HW1 1885   4.335   6.592   4.464
66684SOL    HW2 1886   4.381   6.658   4.336
66685SOL     OW 1887  10.892   3.760   5.227
66685SOL    HW1 1888  10.892   3.739   5.133
66685SOL    HW2 1889  10.953   3.698   5.266
66686SOL     OW 1890   0.717   5.160   4.595
66686SOL    HW1 1891   0.765   5.230   4.550
66686SOL    HW2 1892   0.760   5.080   4.566
66687SOL     OW 1893  11.185  14.004   3.346
66687SOL    HW1 1894  11.227  13.965   3.270
66687SOL    HW2 1895  11.104  13.954   3.357
66688SOL     OW 1896  11.234  11.564   6.931
66688SOL    HW1 1897  11.186  11.566   6.848
66688SOL    HW2 1898  11.230  11.473   6.959
66689SOL     OW 1899   6.037   5.970  12.203
66689SOL    HW1 1900   5.950   6.009  12.209
66689SOL    HW2 1901   6.097   6.040  12.226
66690SOL     OW 1902   9.435   1.341   6.551
66690SOL    HW1 1903   9.443   1.272   6.617
66690SOL    HW2 1904   9.507   1.325   6.490
66691SOL     OW 1905  14.467   7.712   8.937
66691SOL    HW1 1906  14.434   7.663   8.862
66691SOL    HW2 1907  14.542   7.761   8.903
66692SOL     OW 1908   3.514   5.720   8.782
66692SOL    HW1 1909   3.602   5.758   8.777
66692SOL    HW2 1910   3.529   5.626   8.780
66693SOL     OW 1911  13.398  12.661   1.105
66693SOL    HW1 1912  13.442  12.745   1.112
66693SOL    HW2 1913  13.390  12.631   1.195
66694SOL     OW 1914   6.366  10.962   4.757
66694SOL    HW1 1915   6.449  10.913   4.759
66694SOL    HW2 1916   6.327  10.938   4.673
66695SOL     OW 1917  12.680   6.708   0.701
66695SOL    HW1 1918  12.771   6.736   0.710
66695SOL    HW2 1919  12.685   6.619   0.668
66696SOL     OW 1920   7.859   3.819   9.627
66696SOL    HW1 1921   7.785   3.856   9.676
66696SOL    HW2 1922   7.862   3.871   9.546
66697SOL     OW 1923   4.300  10.932  12.000
66697SOL    HW1 1924   4.385  10.977  12.001
66697SOL    HW2 1925   4.257  10.964  11.921
66698SOL     OW 1926  11.353   7.901  13.767
66698SOL    HW1 1927  11.265   7.903  13.807
66698SOL    HW2 1928  11.369   7.992  13.741
66699SOL     OW 1929  14.526   2.884   1.454
66699SOL    HW1 1930  14.436   2.906   1.431
66699SOL    HW2 1931  14.534   2.911   1.546
66700SOL     OW 1932   2.958  11.872   7.561
66700SOL    HW1 1933   3.002  11.951   7.529
66700SOL    HW2 1934   2.959  11.882   7.657
66701SOL     OW 1935   8.402  10.226  13.997
66701SOL    HW1 1936   8.445  10.301  13.957
66701SOL    HW2 1937   8.355  10.263  14.072
66702SOL     OW 1938   3.350  13.735   0.614
66702SOL    HW1 1939   3.311  13.687   0.687
66702SOL    HW2 1940   3.440  13.704   0.610
66703SOL     OW 1941   0.276   5.274  14.272
66703SOL    HW1 1942   0.370   5.255  14.269
66703SOL    HW2 1943   0.238   5.200  14.319
66704SOL     OW 1944   3.376   8.473   0.856
66704SOL    HW1 1945   3.283   8.480   0.878
66704SOL    HW2 1946   3.405   8.563   0.841
66705SOL     OW 1947   3.122   5.137   1.485
66705SOL    HW1 1948   3.132   5.233   1.483
66705SOL    HW2 1949   3.130   5.110   1.394
66706SOL     OW 1950   5.386   0.604  13.454
66706SOL    HW1 1951   5.309   0.579  13.402
66706SOL    HW2 1952   5.368   0.570  13.541
66707SOL     OW 1953  11.253  11.731  13.203
66707SOL    HW1 1954  11.170  11.686  13.188
66707SOL    HW2 1955  11.320  11.662  13.196
66708SOL     OW 1956  11.549   4.912   7.706
66708SOL    HW1 1957  11.468   4.962   7.696
66708SOL    HW2 1958  11.616   4.967   7.667
66709SOL     OW 1959   6.120  13.905   5.363
66709SOL    HW1 1960   6.158  13.866   5.284
66709SOL    HW2 1961   6.057  13.969   5.330
66710SOL     OW 1962  10.010   6.720  12.541
66710SOL    HW1 1963   9.949   6.710  12.614
66710SOL    HW2 1964  10.083   6.662  12.563
66711SOL     OW 1965   7.409   1.367   5.574
66711SOL    HW1 1966   7.504   1.355   5.571
66711SOL    HW2 1967   7.383   1.337   5.660
66712SOL     OW 1968  13.648  11.788  10.535
66712SOL    HW1 1969  13.593  11.866  10.530
66712SOL    HW2 1970  13.632  11.753  10.622
66713SOL     OW 1971   0.254   9.087  11.796
66713SOL    HW1 1972   0.309   9.009  11.788
66713SOL    HW2 1973   0.310   9.160  11.771
66714SOL     OW 1974   9.497  13.587  12.323
66714SOL    HW1 1975   9.444  13.507  12.326
66714SOL    HW2 1976   9.454  13.642  12.256
66715SOL     OW 1977  11.722  12.985  14.194
66715SOL    HW1 1978  11.783  12.920  14.159
66715SOL    HW2 1979  11.681  12.941  14.268
66716SOL     OW 1980   7.864  11.823  10.746
66716SOL    HW1 1981   7.803  11.896  10.747
66716SOL    HW2 1982   7.815  11.751  10.707
66717SOL     OW 1983   3.394   7.385   3.032
66717SOL    HW1 1984   3.372   7.454   3.095
66717SOL    HW2 1985   3.479   7.352   3.062
66718SOL     OW 1986  12.201   0.883  13.459
66718SOL    HW1 1987  12.176   0.793  13.436
66718SOL    HW2 1988  12.143   0.906  13.532
66719SOL     OW 1989   3.904  11.744   9.168
66719SOL    HW1 1990   3.818  11.742   9.209
66719SOL    HW2 1991   3.940  11.830   9.190
66720SOL     OW 1992   1.522  14.727   7.166
66720SOL    HW1 1993   1.579  14.688   7.100
66720SOL    HW2 1994   1.524  14.665   7.239
66721SOL     OW 1995   1.726   0.454   2.551
66721SOL    HW1 1996   1.787   0.484   2.484
66721SOL    HW2 1997   1.641   0.487   2.522
66722SOL     OW 1998  10.000   2.918   0.103
66722SOL    HW1 1999   9.973   2.891   0.015
66722SOL    HW2 2000   9.962   3.005   0.115
66723SOL     OW 2001  11.806   4.851   7.397
66723SOL    HW1 2002  11.778   4.763   7.419
66723SOL    HW2 2003  11.818   4.850   7.302
66724SOL     OW 2004  11.534   4.205   7.557
66724SOL    HW1 2005  11.524   4.217   7.652
66724SOL    HW2 2006  11.495   4.284   7.519
66725SOL     OW 2007   2.331   2.877  12.342
66725SOL    HW1 2008   2.403   2.931  12.309
66725SOL    HW2 2009   2.296   2.834  12.265
66726SOL     OW 2010   1.570  11.346   8.545
66726SOL    HW1 2011   1.522  11.424   8.574
66726SOL    HW2 2012   1.617  11.375   8.467
66727SOL     OW 2013   3.475   3.505   1.370
66727SOL    HW1 2014   3.385   3.514   1.339
66727SOL    HW2 2015   3.514   3.439   1.313
66728SOL     OW 2016   6.506  12.509   2.743
66728SOL    HW1 2017   6.457  12.550   2.672
66728SOL    HW2 2018   6.560  12.442   2.700
66729SOL     OW 2019   8.251  12.537  13.376
66729SOL    HW1 2020   8.210  12.469  13.428
66729SOL    HW2 2021   8.190  12.611  13.379
66730SOL     OW 2022  14.291   1.661  12.944
66730SOL    HW1 2023  14.380   1.670  12.976
66730SOL    HW2 2024  14.301   1.648  12.849
66731SOL     OW 2025   2.334   1.422  13.804
66731SOL    HW1 2026   2.322   1.371  13.884
66731SOL    HW2 2027   2.245   1.450  13.780
66732SOL     OW 2028  10.783  14.460  10.930
66732SOL    HW1 2029  10.805  14.551  10.910
66732SOL    HW2 2030  10.818  14.411  10.856
66733SOL     OW 2031   3.304   7.807   9.025
66733SOL    HW1 2032   3.353   7.777   9.102
66733SOL    HW2 2033   3.260   7.887   9.054
66734SOL     OW 2034   8.681  10.196   8.912
66734SOL    HW1 2035   8.610  10.229   8.858
66734SOL    HW2 2036   8.654  10.106   8.934
66735SOL     OW 2037  14.535   0.613   3.417
66735SOL    HW1 2038  14.610   0.644   3.468
66735SOL    HW2 2039  14.560   0.525   3.389
66736SOL     OW 2040  12.208   0.260  10.998
66736SOL    HW1 2041  12.143   0.281  10.931
66736SOL    HW2 2042  12.292   0.283  10.959
66737SOL     OW 2043  13.824  13.463   1.842
66737SOL    HW1 2044  13.919  13.469   1.830
66737SOL    HW2 2045  13.788  13.480   1.755
66738SOL     OW 2046  13.693   2.657   2.881
66738SOL    HW1 2047  13.703   2.633   2.789
66738SOL    HW2 2048  13.745   2.737   2.891
66739SOL     OW 2049   4.853   6.933  10.357
66739SOL    HW1 2050   4.894   6.872  10.296
66739SOL    HW2 2051   4.909   7.010  10.355
66740SOL     OW 2052   9.424   0.919   6.334
66740SOL    HW1 2053   9.438   0.940   6.426
66740SOL    HW2 2054   9.339   0.877   6.331
66741SOL     OW 2055  12.851  12.116   8.722
66741SOL    HW1 2056  12.890  12.203   8.714
66741SOL    HW2 2057  12.758  12.129   8.704
66742SOL     OW 2058  14.228  13.318   4.887
66742SOL    HW1 2059  14.303  13.275   4.928
66742SOL    HW2 2060  14.204  13.260   4.814
66743SOL     OW 2061   2.475  10.728   7.036
66743SOL    HW1 2062   2.458  10.666   7.107
66743SOL    HW2 2063   2.570  10.733   7.030
66744SOL     OW 2064   4.271  11.306  11.508
66744SOL    HW1 2065   4.225  11.325  11.426
66744SOL    HW2 2066   4.362  11.327  11.489
66745SOL     OW 2067   4.484  14.257   4.724
66745SOL    HW1 2068   4.418  14.261   4.654
66745SOL    HW2 2069   4.433  14.249   4.805
66746SOL     OW 2070   6.845  14.112   7.813
66746SOL    HW1 2071   6.909  14.176   7.783
66746SOL    HW2 2072   6.800  14.155   7.886
66747SOL     OW 2073   6.438   5.910  13.168
66747SOL    HW1 2074   6.503   5.934  13.102
66747SOL    HW2 2075   6.356   5.947  13.136
66748SOL     OW 2076   1.741   3.881   7.255
66748SOL    HW1 2077   1.818   3.919   7.298
66748SOL    HW2 2078   1.699   3.828   7.322
66749SOL     OW 2079   0.148   2.741   2.890
66749SOL    HW1 2080   0.167   2.834   2.877
66749SOL    HW2 2081   0.077   2.740   2.954
66750SOL     OW 2082   3.072   6.764   1.197
66750SOL    HW1 2083   3.137   6.700   1.169
66750SOL    HW2 2084   2.991   6.714   1.206
66751SOL     OW 2085   1.128   6.619   6.844
66751SOL    HW1 2086   1.159   6.544   6.894
66751SOL    HW2 2087   1.169   6.695   6.886
66752SOL     OW 2088   9.142   1.308  13.292
66752SOL    HW1 2089   9.219   1.254  13.307
66752SOL    HW2 2090   9.125   1.349  13.377
66753SOL     OW 2091   6.603   9.712   8.523
66753SOL    HW1 2092   6.603   9.729   8.617
66753SOL    HW2 2093   6.676   9.763   8.488
66754SOL     OW 2094   9.897   6.043  12.939
66754SOL    HW1 2095   9.961   5.974  12.918
66754SOL    HW2 2096   9.813   6.005  12.915
66755SOL     OW 2097   2.687  12.156  11.311
66755SOL    HW1 2098   2.732  12.072  11.303
66755SOL    HW2 2099   2.664  12.179  11.220
66756SOL     OW 2100   2.022   6.922   0.458
66756SOL    HW1 2101   1.941   6.971   0.471
66756SOL    HW2 2102   2.067   6.928   0.542
66757SOL     OW 2103   3.054   2.586   5.658
66757SOL    HW1 2104   3.129   2.575   5.599
66757SOL    HW2 2105   3.081   2.654   5.720
66758SOL     OW 2106  12.047   0.055   9.419
66758SOL    HW1 2107  11.990   0.115   9.371
66758SOL    HW2 2108  12.074   0.105   9.497
66759SOL     OW 2109  11.278  14.787   8.643
66759SOL    HW1 2110  11.246  14.789   8.553
66759SOL    HW2 2111  11.249  14.702   8.677
66760SOL     OW 2112  12.110   3.875   6.673
66760SOL    HW1 2113  12.145   3.938   6.736
66760SOL    HW2 2114  12.015   3.886   6.678
66761SOL     OW 2115  12.345   1.624   2.457
66761SOL    HW1 2116  12.439   1.636   2.445
66761SOL    HW2 2117  12.334   1.529   2.469
66762SOL     OW 2118  11.221  11.121   3.965
66762SOL    HW1 2119  11.171  11.190   4.009
66762SOL    HW2 2120  11.193  11.040   4.007
66763SOL     OW 2121   7.606   3.831   1.684
66763SOL    HW1 2122   7.570   3.914   1.717
66763SOL    HW2 2123   7.551   3.764   1.723
66764SOL     OW 2124  13.020   7.794   0.285
66764SOL    HW1 2125  13.036   7.745   0.366
66764SOL    HW2 2126  13.035   7.885   0.309
66765SOL     OW 2127  12.624   7.119  10.569
66765SOL    HW1 2128  12.683   7.120  10.644
66765SOL    HW2 2129  12.537   7.109  10.606
66766SOL     OW 2130   6.800   5.962   2.087
66766SOL    HW1 2131   6.822   6.051   2.114
66766SOL    HW2 2132   6.875   5.909   2.114
66767SOL     OW 2133   6.205   0.877   0.073
66767SOL    HW1 2134   6.186   0.797   0.024
66767SOL    HW2 2135   6.284   0.856   0.124
66768SOL     OW 2136  10.693   0.351   0.270
66768SOL    HW1 2137  10.785   0.358   0.297
66768SOL    HW2 2138  10.692   0.278   0.207
66769SOL     OW 2139   6.536  11.899  10.607
66769SOL    HW1 2140   6.527  11.994  10.612
66769SOL    HW2 2141   6.563  11.882  10.517
66770SOL     OW 2142   1.934   0.423  10.203
66770SOL    HW1 2143   1.881   0.416  10.283
66770SOL    HW2 2144   1.932   0.334  10.166
66771SOL     OW 2145   3.011   6.937  12.819
66771SOL    HW1 2146   3.076   6.933  12.889
66771SOL    HW2 2147   2.962   7.017  12.837
66772SOL     OW 2148  10.852   8.984  11.166
66772SOL    HW1 2149  10.771   8.949  11.128
66772SOL    HW2 2150  10.887   8.911  11.218
66773SOL     OW 2151   1.197   3.266  12.583
66773SOL    HW1 2152   1.232   3.354  12.595
66773SOL    HW2 2153   1.206   3.224  12.668
66774SOL     OW 2154   1.595   0.590  14.709
66774SOL    HW1 2155   1.530   0.646  14.751
66774SOL    HW2 2156   1.668   0.587  14.771
66775SOL     OW 2157   3.599   5.015   4.975
66775SOL    HW1 2158   3.514   4.989   5.011
66775SOL    HW2 2159   3.641   5.064   5.046
66776SOL     OW 2160   8.328   6.069   2.220
66776SOL    HW1 2161   8.331   5.975   2.239
66776SOL    HW2 2162   8.241   6.083   2.182
66777SOL     OW 2163  11.437   9.757   3.502
66777SOL    HW1 2164  11.374   9.792   3.439
66777SOL    HW2 2165  11.478   9.834   3.541
66778SOL     OW 2166   3.723  11.674   2.092
66778SOL    HW1 2167   3.693  11.746   2.147
66778SOL    HW2 2168   3.645  11.620   2.078
66779SOL     OW 2169   0.821  14.651   2.591
66779SOL    HW1 2170   0.777  14.578   2.547
66779SOL    HW2 2171   0.830  14.717   2.522
66780SOL     OW 2172   0.033  12.258   8.630
66780SOL    HW1 2173   0.080  12.341   8.639
66780SOL    HW2 2174   0.095  12.192   8.661
66781SOL     OW 2175   2.793   2.499   4.334
66781SOL    HW1 2176   2.704   2.467   4.347
66781SOL    HW2 2177   2.785   2.594   4.340
66782SOL     OW 2178   0.777   7.034  11.765
66782SOL    HW1 2179   0.801   7.112  11.714
66782SOL    HW2 2180   0.833   7.038  11.843
66783SOL     OW 2181   2.923   2.996  12.174
66783SOL    HW1 2182   2.866   3.023  12.247
66783SOL    HW2 2183   2.867   3.004  12.097
66784SOL     OW 2184   8.957  10.462   5.652
66784SOL    HW1 2185   9.029  10.482   5.592
66784SOL    HW2 2186   8.908  10.544   5.659
66785SOL     OW 2187   6.189   6.333   9.632
66785SOL    HW1 2188   6.147   6.288   9.706
66785SOL    HW2 2189   6.270   6.367   9.668
66786SOL     OW 2190   5.395   8.137   6.232
66786SOL    HW1 2191   5.385   8.131   6.137
66786SOL    HW2 2192   5.435   8.053   6.258
66787SOL     OW 2193   5.199   3.521  12.346
66787SOL    HW1 2194   5.166   3.443  12.392
66787SOL    HW2 2195   5.130   3.542  12.283
66788SOL     OW 2196  12.898   1.020   0.293
66788SOL    HW1 2197  12.940   1.084   0.236
66788SOL    HW2 2198  12.942   1.030   0.378
66789SOL     OW 2199   1.340  12.676   1.668
66789SOL    HW1 2200   1.321  12.707   1.580
66789SOL    HW2 2201   1.371  12.754   1.715
66790SOL     OW 2202  14.540   1.638   8.620
66790SOL    HW1 2203  14.555   1.671   8.531
66790SOL    HW2 2204  14.543   1.716   8.675
66791SOL     OW 2205   7.456  10.321   4.455
66791SOL    HW1 2206   7.500  10.332   4.370
66791SOL    HW2 2207   7.439  10.227   4.461
66792SOL     OW 2208  13.403   1.887   9.276
66792SOL    HW1 2209  13.412   1.830   9.200
66792SOL    HW2 2210  13.396   1.827   9.350
66793SOL     OW 2211   7.017   1.446  10.558
66793SOL    HW1 2212   6.976   1.464  10.643
66793SOL    HW2 2213   6.945   1.419  10.502
66794SOL     OW 2214   3.909   1.314   5.134
66794SOL    HW1 2215   3.842   1.366   5.179
66794SOL    HW2 2216   3.879   1.310   5.043
66795SOL     OW 2217   0.248   8.679   5.684
66795SOL    HW1 2218   0.185   8.611   5.708
66795SOL    HW2 2219   0.261   8.668   5.590
66796SOL     OW 2220   2.393  14.655   1.024
66796SOL    HW1 2221   2.482  14.687   1.038
66796SOL    HW2 2222   2.371  14.610   1.106
66797SOL     OW 2223   8.710   3.917   9.439
66797SOL    HW1 2224   8.789   3.967   9.418
66797SOL    HW2 2225   8.657   3.977   9.491
66798SOL     OW 2226   8.608   5.205   0.502
66798SOL    HW1 2227   8.672   5.260   0.457
66798SOL    HW2 2228   8.589   5.135   0.440
66799SOL     OW 2229   2.432   3.634   0.317
66799SOL    HW1 2230   2.485   3.639   0.237
66799SOL    HW2 2231   2.493   3.605   0.384
66800SOL     OW 2232  13.339   3.816   8.069
66800SOL    HW1 2233  13.259   3.851   8.108
66800SOL    HW2 2234  13.318   3.724   8.051
66801SOL     OW 2235   0.173   1.910   7.939
66801SOL    HW1 2236   0.235   1.839   7.956
66801SOL    HW2 2237   0.197   1.979   8.000
66802SOL     OW 2238   1.911   1.529   8.160
66802SOL    HW1 2239   1.913   1.475   8.239
66802SOL    HW2 2240   1.856   1.480   8.099
66803SOL     OW 2241   6.457   3.565   5.707
66803SOL    HW1 2242   6.376   3.547   5.660
66803SOL    HW2 2243   6.468   3.490   5.766
66804SOL     OW 2244   5.192   8.685   0.294
66804SOL    HW1 2245   5.102   8.669   0.322
66804SOL    HW2 2246   5.218   8.764   0.341
66805SOL     OW 2247   7.158  13.193   4.641
66805SOL    HW1 2248   7.113  13.156   4.565
66805SOL    HW2 2249   7.233  13.136   4.655
66806SOL     OW 2250   5.166   2.216  14.760
66806SOL    HW1 2251   5.149   2.126  14.785
66806SOL    HW2 2252   5.166   2.215  14.664
66807SOL     OW 2253  12.194   1.370   9.402
66807SOL    HW1 2254  12.174   1.285   9.363
66807SOL    HW2 2255  12.157   1.366   9.490
66808SOL     OW 2256   2.291  13.036   6.071
66808SOL    HW1 2257   2.243  12.990   6.141
66808SOL    HW2 2258   2.223  13.080   6.021
66809SOL     OW 2259  10.344   4.695   5.053
66809SOL    HW1 2260  10.348   4.659   5.142
66809SOL    HW2 2261  10.279   4.765   5.059
66810SOL     OW 2262   8.835   0.156   1.146
66810SOL    HW1 2263   8.775   0.087   1.175
66810SOL    HW2 2264   8.865   0.196   1.227
66811SOL     OW 2265   8.434   6.469   0.026
66811SOL    HW1 2266   8.412   6.508   0.110
66811SOL    HW2 2267   8.404   6.532  14.840
66812SOL     OW 2268  11.677   0.925   9.047
66812SOL    HW1 2269  11.644   0.841   9.014
66812SOL    HW2 2270  11.684   0.980   8.969
66813SOL     OW 2271  13.474   7.142   5.046
66813SOL    HW1 2272  13.471   7.235   5.025
66813SOL    HW2 2273  13.503   7.139   5.137
66814SOL     OW 2274   4.536  11.072  11.923
66814SOL    HW1 2275   4.520  11.100  11.833
66814SOL    HW2 2276   4.577  11.148  11.965
66815SOL     OW 2277  14.363  11.963   9.336
66815SOL    HW1 2278  14.287  11.994   9.286
66815SOL    HW2 2279  14.385  11.879   9.296
66816SOL     OW 2280  10.083   6.564   2.418
66816SOL    HW1 2281  10.014   6.525   2.472
66816SOL    HW2 2282  10.143   6.492   2.399
66817SOL     OW 2283   2.368   7.399  14.217
66817SOL    HW1 2284   2.421   7.321  14.230
66817SOL    HW2 2285   2.431   7.471  14.217
66818SOL     OW 2286   6.472   3.440  10.401
66818SOL    HW1 2287   6.517   3.400  10.327
66818SOL    HW2 2288   6.401   3.380  10.422
66819SOL     OW 2289   1.730  14.226  11.886
66819SOL    HW1 2290   1.751  14.254  11.975
66819SOL    HW2 2291   1.782  14.284  11.830
66820SOL     OW 2292  13.679   0.224  14.096
66820SOL    HW1 2293  13.732   0.167  14.151
66820SOL    HW2 2294  13.599   0.239  14.147
66821SOL     OW 2295  10.342   2.850   3.124
66821SOL    HW1 2296  10.282   2.851   3.199
66821SOL    HW2 2297  10.409   2.786   3.149
66822SOL     OW 2298  13.727   0.493   7.960
66822SOL    HW1 2299  13.753   0.405   7.986
66822SOL    HW2 2300  13.635   0.486   7.938
66823SOL     OW 2301   7.226   0.899   3.171
66823SOL    HW1 2302   7.206   0.846   3.094
66823SOL    HW2 2303   7.194   0.986   3.148
66824SOL     OW 2304   5.997   0.020   6.691
66824SOL    HW1 2305   6.078  14.854   6.665
66824SOL    HW2 2306   5.979   0.080   6.618
66825SOL     OW 2307   1.663   6.424   1.529
66825SOL    HW1 2308   1.647   6.436   1.622
66825SOL    HW2 2309   1.755   6.448   1.517
66826SOL     OW 2310   6.301  10.373  13.207
66826SOL    HW1 2311   6.240  10.378  13.281
66826SOL    HW2 2312   6.353  10.453  13.212
66827SOL     OW 2313   4.930   6.650   6.787
66827SOL    HW1 2314   5.004   6.590   6.773
66827SOL    HW2 2315   4.970   6.727   6.827
66828SOL     OW 2316   3.728  14.800  11.550
66828SOL    HW1 2317   3.773  14.840  11.624
66828SOL    HW2 2318   3.755  14.708  11.553
66829SOL     OW 2319   1.359  10.840  14.205
66829SOL    HW1 2320   1.317  10.868  14.287
66829SOL    HW2 2321   1.449  10.871  14.213
66830SOL     OW 2322  10.499   7.877   4.888
66830SOL    HW1 2323  10.517   7.788   4.860
66830SOL    HW2 2324  10.448   7.916   4.817
66831SOL     OW 2325  14.664   4.139   7.077
66831SOL    HW1 2326  14.606   4.064   7.065
66831SOL    HW2 2327  14.654   4.162   7.170
66832SOL     OW 2328   7.810   9.321  13.382
66832SOL    HW1 2329   7.864   9.247  13.412
66832SOL    HW2 2330   7.780   9.363  13.462
66833SOL     OW 2331   8.008  11.917   0.509
66833SOL    HW1 2332   7.914  11.905   0.495
66833SOL    HW2 2333   8.048  11.837   0.478
66834SOL     OW 2334  12.888   3.266   7.152
66834SOL    HW1 2335  12.873   3.198   7.218
66834SOL    HW2 2336  12.920   3.219   7.075
66835SOL     OW 2337   0.180   2.823   1.544
66835SOL    HW1 2338   0.256   2.832   1.601
66835SOL    HW2 2339   0.206   2.756   1.480
66836SOL     OW 2340  13.562  12.243   6.524
66836SOL    HW1 2341  13.607  12.198   6.595
66836SOL    HW2 2342  13.553  12.176   6.456
66837SOL     OW 2343   4.537   4.125   3.364
66837SOL    HW1 2344   4.515   4.164   3.449
66837SOL    HW2 2345   4.458   4.137   3.311
66838SOL     OW 2346   2.870  11.872   3.406
66838SOL    HW1 2347   2.795  11.813   3.405
66838SOL    HW2 2348   2.837  11.952   3.446
66839SOL     OW 2349   0.676   8.146  12.078
66839SOL    HW1 2350   0.636   8.129  11.993
66839SOL    HW2 2351   0.743   8.212  12.061
66840SOL     OW 2352   8.220   0.529   4.567
66840SOL    HW1 2353   8.309   0.562   4.554
66840SOL    HW2 2354   8.231   0.445   4.611
66841SOL     OW 2355   2.984  12.195  13.461
66841SOL    HW1 2356   2.975  12.123  13.523
66841SOL    HW2 2357   2.894  12.220  13.440
66842SOL     OW 2358   5.630  14.205   5.724
66842SOL    HW1 2359   5.643  14.238   5.635
66842SOL    HW2 2360   5.718  14.184   5.755
66843SOL     OW 2361   7.520  11.147   7.855
66843SOL    HW1 2362   7.501  11.127   7.763
66843SOL    HW2 2363   7.463  11.222   7.875
66844SOL     OW 2364   4.287   1.321  14.726
66844SOL    HW1 2365   4.246   1.254  14.670
66844SOL    HW2 2366   4.359   1.355  14.674
66845SOL     OW 2367   2.157   7.338   5.077
66845SOL    HW1 2368   2.073   7.294   5.064
66845SOL    HW2 2369   2.187   7.309   5.163
66846SOL     OW 2370   2.121   3.149   2.220
66846SOL    HW1 2371   2.168   3.075   2.180
66846SOL    HW2 2372   2.184   3.187   2.281
66847SOL     OW 2373   2.980   4.743   2.334
66847SOL    HW1 2374   3.026   4.783   2.260
66847SOL    HW2 2375   2.937   4.817   2.378
66848SOL     OW 2376   3.005   2.712   6.324
66848SOL    HW1 2377   3.065   2.658   6.272
66848SOL    HW2 2378   2.945   2.749   6.260
66849SOL     OW 2379   5.117   0.757  13.573
66849SOL    HW1 2380   5.091   0.837  13.526
66849SOL    HW2 2381   5.083   0.686  13.519
66850SOL     OW 2382   0.228  13.965   6.438
66850SOL    HW1 2383   0.193  14.038   6.385
66850SOL    HW2 2384   0.200  13.985   6.527
66851SOL     OW 2385   7.263   2.318  11.713
66851SOL    HW1 2386   7.187   2.353  11.668
66851SOL    HW2 2387   7.331   2.314  11.646
66852SOL     OW 2388   5.411  10.881   4.695
66852SOL    HW1 2389   5.412  10.886   4.790
66852SOL    HW2 2390   5.362  10.959   4.667
66853SOL     OW 2391  14.790  12.152   7.387
66853SOL    HW1 2392  14.702  12.119   7.368
66853SOL    HW2 2393  14.783  12.189   7.475
66854SOL     OW 2394  11.709   4.401   0.197
66854SOL    HW1 2395  11.724   4.410   0.103
66854SOL    HW2 2396  11.795   4.385   0.234
66855SOL     OW 2397  12.383   4.206   6.818
66855SOL    HW1 2398  12.326   4.161   6.880
66855SOL    HW2 2399  12.434   4.267   6.871
66856SOL     OW 2400  10.180   1.500   3.746
66856SOL    HW1 2401  10.130   1.460   3.675
66856SOL    HW2 2402  10.230   1.570   3.704
66857SOL     OW 2403   9.718   2.203  12.786
66857SOL    HW1 2404   9.810   2.210  12.809
66857SOL    HW2 2405   9.697   2.287  12.744
66858SOL     OW 2406   6.416   0.460   4.859
66858SOL    HW1 2407   6.450   0.443   4.947
66858SOL    HW2 2408   6.474   0.411   4.801
66859SOL     OW 2409   6.557   0.110   8.004
66859SOL    HW1 2410   6.506   0.151   8.074
66859SOL    HW2 2411   6.510   0.133   7.924
66860SOL     OW 2412   5.239   2.822   6.031
66860SOL    HW1 2413   5.299   2.821   6.106
66860SOL    HW2 2414   5.218   2.729   6.017
66861SOL     OW 2415   0.465   4.778   2.356
66861SOL    HW1 2416   0.388   4.721   2.351
66861SOL    HW2 2417   0.431   4.862   2.386
66862SOL     OW 2418   4.162   8.004   7.435
66862SOL    HW1 2419   4.155   7.993   7.530
66862SOL    HW2 2420   4.190   7.918   7.403
66863SOL     OW 2421  11.381  12.459   6.758
66863SOL    HW1 2422  11.414  12.386   6.705
66863SOL    HW2 2423  11.404  12.537   6.707
66864SOL     OW 2424   8.272  13.575   3.720
66864SOL    HW1 2425   8.289  13.524   3.799
66864SOL    HW2 2426   8.340  13.547   3.659
66865SOL     OW 2427   9.049   6.459   5.488
66865SOL    HW1 2428   9.009   6.424   5.409
66865SOL    HW2 2429   9.118   6.517   5.457
66866SOL     OW 2430   1.680   8.207   1.695
66866SOL    HW1 2431   1.585   8.202   1.689
66866SOL    HW2 2432   1.704   8.144   1.763
66867SOL     OW 2433  12.136   7.092   4.841
66867SOL    HW1 2434  12.172   7.149   4.908
66867SOL    HW2 2435  12.066   7.043   4.886
66868SOL     OW 2436  10.621  13.958   5.233
66868SOL    HW1 2437  10.697  13.901   5.224
66868SOL    HW2 2438  10.589  13.940   5.322
66869SOL     OW 2439  14.271  10.435   9.216
66869SOL    HW1 2440  14.290  10.481   9.135
66869SOL    HW2 2441  14.308  10.491   9.284
66870SOL     OW 2442   4.866   9.094  14.627
66870SOL    HW1 2443   4.951   9.075  14.587
66870SOL    HW2 2444   4.882   9.088  14.721
66871SOL     OW 2445  10.457   6.045   2.609
66871SOL    HW1 2446  10.465   5.957   2.645
66871SOL    HW2 2447  10.439   6.100   2.685
66872SOL     OW 2448   1.111  13.081   2.955
66872SOL    HW1 2449   1.183  13.125   2.909
66872SOL    HW2 2450   1.128  12.988   2.942
66873SOL     OW 2451   9.312   8.718   0.450
66873SOL    HW1 2452   9.308   8.639   0.503
66873SOL    HW2 2453   9.262   8.697   0.371
66874SOL     OW 2454   9.472   3.016   8.343
66874SOL    HW1 2455   9.434   2.944   8.394
66874SOL    HW2 2456   9.396   3.068   8.317
66875SOL     OW 2457   9.377   0.712   0.055
66875SOL    HW1 2458   9.422   0.785   0.013
66875SOL    HW2 2459   9.444   0.645   0.068
66876SOL     OW 2460  11.925  11.411  13.815
66876SOL    HW1 2461  11.851  11.447  13.863
66876SOL    HW2 2462  11.932  11.320  13.846
66877SOL     OW 2463   7.234   5.349   4.073
66877SOL    HW1 2464   7.184   5.400   4.136
66877SOL    HW2 2465   7.324   5.382   4.080
66878SOL     OW 2466   8.361   4.806   8.390
66878SOL    HW1 2467   8.350   4.892   8.349
66878SOL    HW2 2468   8.308   4.747   8.336
66879SOL     OW 2469   1.001   8.934  13.371
66879SOL    HW1 2470   1.054   9.013  13.364
66879SOL    HW2 2471   0.983   8.926  13.465
66880SOL     OW 2472   3.944  13.532  14.808
66880SOL    HW1 2473   3.953  13.614  14.857
66880SOL    HW2 2474   4.034  13.508  14.787
66881SOL     OW 2475   6.221  12.987   6.910
66881SOL    HW1 2476   6.154  12.969   6.976
66881SOL    HW2 2477   6.302  12.999   6.960
66882SOL     OW 2478   7.377   4.373  14.655
66882SOL    HW1 2479   7.405   4.383  14.746
66882SOL    HW2 2480   7.295   4.323  14.660
66883SOL     OW 2481  10.691   6.739  11.436
66883SOL    HW1 2482  10.657   6.791  11.509
66883SOL    HW2 2483  10.722   6.804  11.373
66884SOL     OW 2484   9.152   6.120   2.340
66884SOL    HW1 2485   9.080   6.175   2.370
66884SOL    HW2 2486   9.117   6.031   2.342
66885SOL     OW 2487   4.746  11.166  14.704
66885SOL    HW1 2488   4.756  11.259  14.682
66885SOL    HW2 2489   4.793  11.120  14.635
66886SOL     OW 2490  10.688  13.132   7.718
66886SOL    HW1 2491  10.743  13.082   7.778
66886SOL    HW2 2492  10.746  13.157   7.646
66887SOL     OW 2493   1.383  12.108   9.565
66887SOL    HW1 2494   1.333  12.048   9.621
66887SOL    HW2 2495   1.320  12.174   9.538
66888SOL     OW 2496   7.702  13.867  13.634
66888SOL    HW1 2497   7.668  13.903  13.716
66888SOL    HW2 2498   7.623  13.844  13.583
66889SOL     OW 2499   8.371   1.082   0.983
66889SOL    HW1 2500   8.411   1.042   1.061
66889SOL    HW2 2501   8.309   1.146   1.019
66890SOL     OW 2502   1.155   3.429   5.088
66890SOL    HW1 2503   1.107   3.511   5.081
66890SOL    HW2 2504   1.242   3.448   5.052
66891SOL     OW 2505   1.432   2.567   5.855
66891SOL    HW1 2506   1.433   2.472   5.869
66891SOL    HW2 2507   1.405   2.578   5.764
66892SOL     OW 2508   5.813   3.575  10.361
66892SOL    HW1 2509   5.873   3.627  10.415
66892SOL    HW2 2510   5.842   3.484  10.374
66893SOL     OW 2511   2.846  12.117   4.979
66893SOL    HW1 2512   2.843  12.131   5.074
66893SOL    HW2 2513   2.763  12.072   4.959
66894SOL     OW 2514  10.335  14.265   4.643
66894SOL    HW1 2515  10.359  14.180   4.604
66894SOL    HW2 2516  10.240  14.270   4.632
66895SOL     OW 2517   4.167  13.410  11.032
66895SOL    HW1 2518   4.177  13.392  11.125
66895SOL    HW2 2519   4.140  13.326  10.994
66896SOL     OW 2520   8.685   8.359   4.436
66896SOL    HW1 2521   8.708   8.366   4.528
66896SOL    HW2 2522   8.744   8.292   4.402
66897SOL     OW 2523   7.740   4.780   8.297
66897SOL    HW1 2524   7.704   4.698   8.331
66897SOL    HW2 2525   7.822   4.792   8.345
66898SOL     OW 2526   2.074   5.377   0.593
66898SOL    HW1 2527   2.109   5.400   0.679
66898SOL    HW2 2528   2.132   5.421   0.530
66899SOL     OW 2529   7.573   4.553  11.254
66899SOL    HW1 2530   7.659   4.553  11.213
66899SOL    HW2 2531   7.547   4.461  11.258
66900SOL     OW 2532  12.102   3.213   2.464
66900SOL    HW1 2533  12.104   3.128   2.421
66900SOL    HW2 2534  12.009   3.232   2.475
66901SOL     OW 2535   8.124   4.488  10.281
66901SOL    HW1 2536   8.215   4.515  10.269
66901SOL    HW2 2537   8.101   4.522  10.368
66902SOL     OW 2538   9.354   3.404   2.377
66902SOL    HW1 2539   9.371   3.361   2.294
66902SOL    HW2 2540   9.426   3.375   2.434
66903SOL     OW 2541   6.133  13.711  11.255
66903SOL    HW1 2542   6.110  13.619  11.269
66903SOL    HW2 2543   6.144  13.719  11.160
66904SOL     OW 2544   1.673  12.388  11.838
66904SOL    HW1 2545   1.723  12.463  11.807
66904SOL    HW2 2546   1.587  12.397  11.796
66905SOL     OW 2547   9.985   0.994  14.837
66905SOL    HW1 2548   9.948   1.051   0.025
66905SOL    HW2 2549   9.915   0.983  14.773
66906SOL     OW 2550   8.366   1.436   9.397
66906SOL    HW1 2551   8.346   1.509   9.338
66906SOL    HW2 2552   8.307   1.448   9.471
66907SOL     OW 2553   9.105   8.722   7.033
66907SOL    HW1 2554   9.063   8.683   7.109
66907SOL    HW2 2555   9.077   8.667   6.959
66908SOL     OW 2556  11.569   7.497   2.004
66908SOL    HW1 2557  11.634   7.508   1.933
66908SOL    HW2 2558  11.546   7.404   2.000
66909SOL     OW 2559   3.484   8.140   4.986
66909SOL    HW1 2560   3.435   8.104   4.912
66909SOL    HW2 2561   3.491   8.233   4.967
66910SOL     OW 2562   4.077   9.128   7.027
66910SOL    HW1 2563   4.140   9.056   7.034
66910SOL    HW2 2564   4.068   9.142   6.932
66911SOL     OW 2565   5.074  14.457  11.331
66911SOL    HW1 2566   4.993  14.465  11.381
66911SOL    HW2 2567   5.139  14.505  11.383
66912SOL     OW 2568  10.385   3.464   8.915
66912SOL    HW1 2569  10.344   3.488   8.998
66912SOL    HW2 2570  10.477   3.490   8.925
66913SOL     OW 2571  14.087   4.193   7.864
66913SOL    HW1 2572  14.158   4.256   7.856
66913SOL    HW2 2573  14.121   4.127   7.925
66914SOL     OW 2574   6.967  13.485  13.467
66914SOL    HW1 2575   6.882  13.510  13.502
66914SOL    HW2 2576   6.974  13.534  13.384
66915SOL     OW 2577   9.275   4.351  13.516
66915SOL    HW1 2578   9.204   4.311  13.467
66915SOL    HW2 2579   9.350   4.293  13.500
66916SOL     OW 2580   4.264   7.213   8.131
66916SOL    HW1 2581   4.333   7.262   8.085
66916SOL    HW2 2582   4.192   7.209   8.068
66917SOL     OW 2583   2.006   8.333   2.608
66917SOL    HW1 2584   2.060   8.410   2.590
66917SOL    HW2 2585   2.059   8.280   2.669
66918SOL     OW 2586   2.978   6.259   6.242
66918SOL    HW1 2587   2.884   6.261   6.263
66918SOL    HW2 2588   2.986   6.312   6.163
66919SOL     OW 2589  13.061   9.001   4.934
66919SOL    HW1 2590  13.077   9.086   4.976
66919SOL    HW2 2591  13.032   8.944   5.005
66920SOL     OW 2592   8.903   7.489   2.050
66920SOL    HW1 2593   8.923   7.531   2.134
66920SOL    HW2 2594   8.905   7.395   2.070
66921SOL     OW 2595  10.505   1.601   7.576
66921SOL    HW1 2596  10.473   1.653   7.650
66921SOL    HW2 2597  10.450   1.523   7.576
66922SOL     OW 2598   7.440   0.002  10.738
66922SOL    HW1 2599   7.476  14.834  10.813
66922SOL    HW2 2600   7.393   0.076  10.777
66923SOL     OW 2601  14.525  10.518  11.868
66923SOL    HW1 2602  14.612  10.558  11.868
66923SOL    HW2 2603  14.484  10.548  11.949
66924SOL     OW 2604  11.802   2.400   2.113
66924SOL    HW1 2605  11.723   2.453   2.105
66924SOL    HW2 2606  11.771   2.313   2.140
66925SOL     OW 2607  11.206   0.551   6.754
66925SOL    HW1 2608  11.286   0.501   6.771
66925SOL    HW2 2609  11.139   0.509   6.808
66926SOL     OW 2610   6.567  13.533  12.934
66926SOL    HW1 2611   6.519  13.602  12.887
66926SOL    HW2 2612   6.659  13.555  12.921
66927SOL     OW 2613   0.984  11.803   9.441
66927SOL    HW1 2614   0.935  11.740   9.389
66927SOL    HW2 2615   1.067  11.814   9.395
66928SOL     OW 2616   6.152  12.642  13.746
66928SOL    HW1 2617   6.156  12.548  13.762
66928SOL    HW2 2618   6.118  12.678  13.828
66929SOL     OW 2619  10.678   6.055   1.192
66929SOL    HW1 2620  10.587   6.026   1.195
66929SOL    HW2 2621  10.675   6.134   1.137
66930SOL     OW 2622  12.561   1.318  14.513
66930SOL    HW1 2623  12.522   1.260  14.578
66930SOL    HW2 2624  12.501   1.316  14.439
66931SOL     OW 2625  13.927  13.708   1.450
66931SOL    HW1 2626  14.011  13.663   1.463
66931SOL    HW2 2627  13.951  13.799   1.434
66932SOL     OW 2628   2.250   2.172  10.655
66932SOL    HW1 2629   2.237   2.134  10.742
66932SOL    HW2 2630   2.283   2.100  10.602
66933SOL     OW 2631   6.233   8.961   3.024
66933SOL    HW1 2632   6.291   9.012   2.967
66933SOL    HW2 2633   6.179   9.027   3.068
66934SOL     OW 2634   5.784   5.542  12.315
66934SOL    HW1 2635   5.818   5.453  12.304
66934SOL    HW2 2636   5.856   5.599  12.288
66935SOL     OW 2637   6.039  10.126  10.926
66935SOL    HW1 2638   6.065  10.211  10.963
66935SOL    HW2 2639   5.946  10.118  10.949
66936SOL     OW 2640   2.542   3.042   9.791
66936SOL    HW1 2641   2.630   3.050   9.753
66936SOL    HW2 2642   2.546   3.093   9.872
66937SOL     OW 2643   8.052   8.895   1.300
66937SOL    HW1 2644   8.008   8.873   1.383
66937SOL    HW2 2645   8.146   8.891   1.321
66938SOL     OW 2646   3.979   2.268   8.412
66938SOL    HW1 2647   3.945   2.347   8.371
66938SOL    HW2 2648   4.009   2.214   8.338
66939SOL     OW 2649   9.747   7.360   1.249
66939SOL    HW1 2650   9.735   7.390   1.159
66939SOL    HW2 2651   9.667   7.313   1.270
66940SOL     OW 2652   7.128  11.085  12.340
66940SOL    HW1 2653   7.176  11.027  12.400
66940SOL    HW2 2654   7.173  11.169  12.347
66941SOL     OW 2655   6.716  11.761   7.513
66941SOL    HW1 2656   6.632  11.804   7.530
66941SOL    HW2 2657   6.765  11.771   7.595
66942SOL     OW 2658  13.898   5.212   5.814
66942SOL    HW1 2659  13.947   5.206   5.732
66942SOL    HW2 2660  13.912   5.127   5.856
66943SOL     OW 2661  14.688  13.144  12.136
66943SOL    HW1 2662  14.769  13.113  12.178
66943SOL    HW2 2663  14.668  13.077  12.071
66944SOL     OW 2664   8.337   3.414  10.612
66944SOL    HW1 2665   8.260   3.407  10.555
66944SOL    HW2 2666   8.407   3.370  10.563
66945SOL     OW 2667   1.556   1.940   8.925
66945SOL    HW1 2668   1.542   1.974   9.014
66945SOL    HW2 2669   1.539   2.014   8.868
66946SOL     OW 2670   5.986   4.771   2.598
66946SOL    HW1 2671   5.930   4.720   2.657
66946SOL    HW2 2672   6.071   4.775   2.643
66947SOL     OW 2673  14.737   9.548  11.227
66947SOL    HW1 2674  14.710   9.601  11.152
66947SOL    HW2 2675  14.781   9.609  11.286
66948SOL     OW 2676   5.071   1.015   1.039
66948SOL    HW1 2677   4.999   1.075   1.060
66948SOL    HW2 2678   5.109   0.994   1.124
66949SOL     OW 2679  13.610   8.458  13.825
66949SOL    HW1 2680  13.567   8.508  13.895
66949SOL    HW2 2681  13.537   8.419  13.776
66950SOL     OW 2682  11.828  14.019   9.669
66950SOL    HW1 2683  11.830  14.053   9.580
66950SOL    HW2 2684  11.737  14.030   9.697
66951SOL     OW 2685  12.436   1.445   8.313
66951SOL    HW1 2686  12.514   1.435   8.259
66951SOL    HW2 2687  12.383   1.511   8.267
66952SOL     OW 2688   4.910   9.487   3.613
66952SOL    HW1 2689   4.908   9.470   3.519
66952SOL    HW2 2690   4.968   9.562   3.623
66953SOL     OW 2691  13.866   4.965   1.192
66953SOL    HW1 2692  13.958   4.974   1.217
66953SOL    HW2 2693  13.864   4.885   1.138
66954SOL     OW 2694  10.623   0.585   6.153
66954SOL    HW1 2695  10.594   0.500   6.187
66954SOL    HW2 2696  10.716   0.589   6.176
66955SOL     OW 2697  14.761   2.972   0.842
66955SOL    HW1 2698  14.847   3.015   0.837
66955SOL    HW2 2699  14.712   3.008   0.769
66956SOL     OW 2700   3.455   7.043   5.629
66956SOL    HW1 2701   3.536   7.016   5.673
66956SOL    HW2 2702   3.418   6.961   5.596
66957SOL     OW 2703   5.640   3.807   9.518
66957SOL    HW1 2704   5.731   3.793   9.544
66957SOL    HW2 2705   5.645   3.861   9.439
66958SOL     OW 2706  13.103   6.160   9.988
66958SOL    HW1 2707  13.115   6.077   9.942
66958SOL    HW2 2708  13.060   6.217   9.924
66959SOL     OW 2709   0.610  13.006  10.259
66959SOL    HW1 2710   0.589  13.017  10.352
66959SOL    HW2 2711   0.636  12.915  10.250
66960SOL     OW 2712   0.793   2.061   9.967
66960SOL    HW1 2713   0.831   2.055   9.880
66960SOL    HW2 2714   0.743   2.143   9.967
66961SOL     OW 2715  11.800   3.252   2.426
66961SOL    HW1 2716  11.729   3.260   2.489
66961SOL    HW2 2717  11.771   3.303   2.350
66962SOL     OW 2718   3.725   3.897   9.392
66962SOL    HW1 2719   3.790   3.833   9.422
66962SOL    HW2 2720   3.681   3.855   9.319
66963SOL     OW 2721  12.815  10.564   4.100
66963SOL    HW1 2722  12.779  10.648   4.126
66963SOL    HW2 2723  12.759  10.499   4.143
66964SOL     OW 2724   8.944   3.947  11.921
66964SOL    HW1 2725   8.876   3.936  11.855
66964SOL    HW2 2726   9.026   3.945  11.871
66965SOL     OW 2727   6.117   4.461   9.884
66965SOL    HW1 2728   6.035   4.413   9.900
66965SOL    HW2 2729   6.123   4.522   9.957
66966SOL     OW 2730  14.876   1.028   4.852
66966SOL    HW1 2731  14.861   1.087   4.926
66966SOL    HW2 2732   0.060   0.964   4.885
66967SOL     OW 2733   4.950  10.894   8.382
66967SOL    HW1 2734   4.895  10.824   8.416
66967SOL    HW2 2735   5.039  10.860   8.390
66968SOL     OW 2736   2.821  13.236   2.358
66968SOL    HW1 2737   2.866  13.287   2.291
66968SOL    HW2 2738   2.763  13.299   2.401
66969SOL     OW 2739   1.658   5.562   7.978
66969SOL    HW1 2740   1.666   5.478   8.024
66969SOL    HW2 2741   1.672   5.628   8.046
66970SOL     OW 2742   6.119  13.850   7.313
66970SOL    HW1 2743   6.126  13.942   7.288
66970SOL    HW2 2744   6.121  13.851   7.409
66971SOL     OW 2745  11.760  14.095   5.861
66971SOL    HW1 2746  11.670  14.124   5.876
66971SOL    HW2 2747  11.752  14.020   5.802
66972SOL     OW 2748   3.134   4.501   4.322
66972SOL    HW1 2749   3.146   4.506   4.417
66972SOL    HW2 2750   3.222   4.493   4.287
66973SOL     OW 2751  14.029   7.713   5.413
66973SOL    HW1 2752  13.987   7.649   5.355
66973SOL    HW2 2753  14.073   7.774   5.354
66974SOL     OW 2754   3.972   9.028   5.331
66974SOL    HW1 2755   4.059   9.043   5.369
66974SOL    HW2 2756   3.945   9.113   5.298
66975SOL     OW 2757   2.351   9.850   2.482
66975SOL    HW1 2758   2.393   9.924   2.437
66975SOL    HW2 2759   2.423   9.792   2.504
66976SOL     OW 2760   4.079   0.664   0.564
66976SOL    HW1 2761   4.028   0.594   0.523
66976SOL    HW2 2762   4.033   0.745   0.540
66977SOL     OW 2763  13.139  13.737   4.441
66977SOL    HW1 2764  13.134  13.786   4.358
66977SOL    HW2 2765  13.142  13.805   4.508
66978SOL     OW 2766   1.018  10.344   7.734
66978SOL    HW1 2767   0.999  10.266   7.681
66978SOL    HW2 2768   0.983  10.417   7.682
66979SOL     OW 2769   1.698  13.190   8.197
66979SOL    HW1 2770   1.637  13.246   8.244
66979SOL    HW2 2771   1.765  13.250   8.164
66980SOL     OW 2772   0.778   4.758   0.342
66980SOL    HW1 2773   0.725   4.685   0.374
66980SOL    HW2 2774   0.729   4.794   0.268
66981SOL     OW 2775   7.737   3.008   5.497
66981SOL    HW1 2776   7.832   2.998   5.485
66981SOL    HW2 2777   7.708   2.924   5.532
66982SOL     OW 2778  10.616  13.029   1.077
66982SOL    HW1 2779  10.531  13.013   1.119
66982SOL    HW2 2780  10.678  13.033   1.150
66983SOL     OW 2781   1.598   9.513   3.929
66983SOL    HW1 2782   1.517   9.512   3.981
66983SOL    HW2 2783   1.583   9.579   3.862
66984SOL     OW 2784   5.899  12.363   9.788
66984SOL    HW1 2785   5.993  12.376   9.802
66984SOL    HW2 2786   5.880  12.411   9.708
66985SOL     OW 2787  13.865   7.991   8.390
66985SOL    HW1 2788  13.912   8.051   8.448
66985SOL    HW2 2789  13.791   7.962   8.442
66986SOL     OW 2790   0.992  10.702   3.258
66986SOL    HW1 2791   0.982  10.611   3.286
66986SOL    HW2 2792   0.977  10.700   3.164
66987SOL     OW 2793  14.727   1.842   1.733
66987SOL    HW1 2794  14.795   1.903   1.702
66987SOL    HW2 2795  14.721   1.859   1.827
66988SOL     OW 2796   5.854   8.351   1.031
66988SOL    HW1 2797   5.845   8.401   0.950
66988SOL    HW2 2798   5.791   8.279   1.022
66989SOL     OW 2799  12.121   3.450   7.347
66989SOL    HW1 2800  12.106   3.530   7.398
66989SOL    HW2 2801  12.195   3.471   7.290
66990SOL     OW 2802   3.511   6.668   8.017
66990SOL    HW1 2803   3.484   6.734   7.953
66990SOL    HW2 2804   3.534   6.719   8.095
66991SOL     OW 2805  12.275   1.307   2.330
66991SOL    HW1 2806  12.238   1.296   2.418
66991SOL    HW2 2807  12.216   1.257   2.273
66992SOL     OW 2808   3.084  14.733   1.358
66992SOL    HW1 2809   3.177  14.709   1.364
66992SOL    HW2 2810   3.039  14.667   1.410
66993SOL     OW 2811   8.187   1.273   7.927
66993SOL    HW1 2812   8.152   1.197   7.974
66993SOL    HW2 2813   8.259   1.304   7.982
66994SOL     OW 2814  11.057   5.405  11.871
66994SOL    HW1 2815  11.022   5.430  11.956
66994SOL    HW2 2816  11.000   5.449  11.808
66995SOL     OW 2817   1.906   8.619   2.663
66995SOL    HW1 2818   1.844   8.613   2.590
66995SOL    HW2 2819   1.895   8.536   2.709
66996SOL     OW 2820   9.037  10.831   0.667
66996SOL    HW1 2821   9.123  10.832   0.625
66996SOL    HW2 2822   9.054  10.862   0.756
66997SOL     OW 2823  12.173  12.119  12.993
66997SOL    HW1 2824  12.157  12.121  13.087
66997SOL    HW2 2825  12.139  12.202  12.961
66998SOL     OW 2826   4.878  14.414   6.971
66998SOL    HW1 2827   4.823  14.385   6.899
66998SOL    HW2 2828   4.962  14.370   6.957
66999SOL     OW 2829   2.471  10.129  13.098
66999SOL    HW1 2830   2.442  10.171  13.017
66999SOL    HW2 2831   2.539  10.187  13.132
67000SOL     OW 2832   0.357   6.974   2.042
67000SOL    HW1 2833   0.355   6.924   1.960
67000SOL    HW2 2834   0.450   6.981   2.063
67001SOL     OW 2835  14.818   3.447   4.657
67001SOL    HW1 2836  14.832   3.371   4.713
67001SOL    HW2 2837   0.026   3.485   4.644
67002SOL     OW 2838  11.712   9.697   5.131
67002SOL    HW1 2839  11.649   9.730   5.195
67002SOL    HW2 2840  11.773   9.644   5.183
67003SOL     OW 2841  13.354   9.534  12.784
67003SOL    HW1 2842  13.311   9.451  12.805
67003SOL    HW2 2843  13.373   9.573  12.870
67004SOL     OW 2844  14.108   5.817   7.481
67004SOL    HW1 2845  14.029   5.792   7.433
67004SOL    HW2 2846  14.081   5.892   7.535
67005SOL     OW 2847  10.565  14.278  12.277
67005SOL    HW1 2848  10.484  14.256  12.323
67005SOL    HW2 2849  10.539  14.346  12.215
67006SOL     OW 2850  12.346   2.576   6.078
67006SOL    HW1 2851  12.370   2.620   6.160
67006SOL    HW2 2852  12.422   2.520   6.058
67007SOL     OW 2853  13.588   3.371  11.887
67007SOL    HW1 2854  13.563   3.463  11.877
67007SOL    HW2 2855  13.606   3.342  11.797
67008SOL     OW 2856   8.049   6.581   6.570
67008SOL    HW1 2857   8.004   6.641   6.630
67008SOL    HW2 2858   8.121   6.633   6.535
67009SOL     OW 2859   9.335   0.014   2.966
67009SOL    HW1 2860   9.345  14.806   2.927
67009SOL    HW2 2861   9.340  14.878   3.060
67010SOL     OW 2862   8.692  11.458  12.841
67010SOL    HW1 2863   8.662  11.367  12.835
67010SOL    HW2 2864   8.669  11.485  12.931
67011SOL     OW 2865  12.120   2.511  14.494
67011SOL    HW1 2866  12.178   2.454  14.443
67011SOL    HW2 2867  12.063   2.552  14.429
67012SOL     OW 2868   1.711   7.760   2.905
67012SOL    HW1 2869   1.686   7.747   2.814
67012SOL    HW2 2870   1.794   7.714   2.914
67013SOL     OW 2871   6.267   1.228   5.752
67013SOL    HW1 2872   6.272   1.286   5.676
67013SOL    HW2 2873   6.187   1.254   5.797
67014SOL     OW 2874   0.759   6.226   2.231
67014SOL    HW1 2875   0.687   6.256   2.287
67014SOL    HW2 2876   0.800   6.306   2.200
67015SOL     OW 2877  11.176   6.028   0.669
67015SOL    HW1 2878  11.255   5.988   0.705
67015SOL    HW2 2879  11.140   6.079   0.742
67016SOL     OW 2880  11.035  10.462   7.259
67016SOL    HW1 2881  11.083  10.386   7.290
67016SOL    HW2 2882  11.095  10.507   7.201
67017SOL     OW 2883   7.946   4.353  14.391
67017SOL    HW1 2884   7.944   4.322  14.482
67017SOL    HW2 2885   7.876   4.305  14.347
67018SOL     OW 2886   4.043   4.361  13.825
67018SOL    HW1 2887   4.003   4.275  13.824
67018SOL    HW2 2888   4.058   4.380  13.918
67019SOL     OW 2889   9.935   5.569  10.702
67019SOL    HW1 2890   9.905   5.492  10.750
67019SOL    HW2 2891   9.901   5.557  10.613
67020SOL     OW 2892   7.075  11.000   9.375
67020SOL    HW1 2893   7.100  11.043   9.294
67020SOL    HW2 2894   7.143  11.025   9.438
67021SOL     OW 2895   2.868   2.742   2.278
67021SOL    HW1 2896   2.859   2.836   2.263
67021SOL    HW2 2897   2.963   2.728   2.284
67022SOL     OW 2898   2.348   9.065   9.824
67022SOL    HW1 2899   2.361   9.037   9.915
67022SOL    HW2 2900   2.389   8.997   9.772
67023SOL     OW 2901   5.117   7.641   1.122
67023SOL    HW1 2902   5.148   7.602   1.040
67023SOL    HW2 2903   5.087   7.729   1.096
67024SOL     OW 2904   6.679   3.151  14.535
67024SOL    HW1 2905   6.673   3.073  14.481
67024SOL    HW2 2906   6.606   3.143  14.596
67025SOL     OW 2907   7.544   0.093   1.507
67025SOL    HW1 2908   7.560   0.036   1.432
67025SOL    HW2 2909   7.453   0.076   1.531
67026SOL     OW 2910  11.092  11.687  11.746
67026SOL    HW1 2911  11.019  11.689  11.684
67026SOL    HW2 2912  11.082  11.767  11.797
67027SOL     OW 2913   8.936   6.273  13.979
67027SOL    HW1 2914   8.963   6.288  14.070
67027SOL    HW2 2915   8.967   6.350  13.932
67028SOL     OW 2916   1.700   0.594   9.515
67028SOL    HW1 2917   1.739   0.673   9.551
67028SOL    HW2 2918   1.608   0.599   9.538
67029SOL     OW 2919   2.644   1.893   3.923
67029SOL    HW1 2920   2.700   1.921   3.850
67029SOL    HW2 2921   2.670   1.802   3.939
67030SOL     OW 2922   6.801   3.986  11.082
67030SOL    HW1 2923   6.719   4.000  11.128
67030SOL    HW2 2924   6.828   3.897  11.106
67031SOL     OW 2925   4.367  11.115   2.408
67031SOL    HW1 2926   4.298  11.170   2.445
67031SOL    HW2 2927   4.322  11.055   2.350
67032SOL     OW 2928   1.461   3.760   4.426
67032SOL    HW1 2929   1.466   3.674   4.386
67032SOL    HW2 2930   1.550   3.778   4.456
67033SOL     OW 2931   7.558  12.829  10.309
67033SOL    HW1 2932   7.619  12.797  10.242
67033SOL    HW2 2933   7.604  12.901  10.351
67034SOL     OW 2934  13.239   1.513  10.139
67034SOL    HW1 2935  13.327   1.545  10.154
67034SOL    HW2 2936  13.247   1.417  10.144
67035SOL     OW 2937   7.470   1.749   9.175
67035SOL    HW1 2938   7.471   1.815   9.106
67035SOL    HW2 2939   7.441   1.796   9.253
67036SOL     OW 2940  10.714   3.301   8.188
67036SOL    HW1 2941  10.654   3.376   8.198
67036SOL    HW2 2942  10.732   3.273   8.278
67037SOL     OW 2943   7.895  10.575  13.150
67037SOL    HW1 2944   7.910  10.550  13.241
67037SOL    HW2 2945   7.965  10.530  13.102
67038SOL     OW 2946  10.178  10.161   9.285
67038SOL    HW1 2947  10.110  10.223   9.313
67038SOL    HW2 2948  10.195  10.185   9.194
67039SOL     OW 2949   0.622  10.571   0.297
67039SOL    HW1 2950   0.570  10.621   0.360
67039SOL    HW2 2951   0.705  10.554   0.343
67040SOL     OW 2952  10.468   2.939   1.147
67040SOL    HW1 2953  10.510   2.855   1.129
67040SOL    HW2 2954  10.407   2.921   1.219
67041SOL     OW 2955  13.282   2.331  13.972
67041SOL    HW1 2956  13.240   2.368  14.050
67041SOL    HW2 2957  13.356   2.280  14.006
67042SOL     OW 2958   4.942   9.828   1.845
67042SOL    HW1 2959   4.948   9.854   1.753
67042SOL    HW2 2960   4.976   9.904   1.893
67043SOL     OW 2961   5.813   3.190  14.020
67043SOL    HW1 2962   5.807   3.135  13.942
67043SOL    HW2 2963   5.902   3.224  14.019
67044SOL     OW 2964   4.721   9.011   2.226
67044SOL    HW1 2965   4.790   9.029   2.290
67044SOL    HW2 2966   4.768   8.988   2.146
67045SOL     OW 2967   2.847   7.184  14.424
67045SOL    HW1 2968   2.841   7.132  14.343
67045SOL    HW2 2969   2.825   7.122  14.493
67046SOL     OW 2970  12.896  10.083   0.555
67046SOL    HW1 2971  12.922  10.173   0.574
67046SOL    HW2 2972  12.964  10.029   0.596
67047SOL     OW 2973   2.202   0.133  12.737
67047SOL    HW1 2974   2.114   0.101  12.757
67047SOL    HW2 2975   2.261   0.069  12.777
67048SOL     OW 2976   8.136   9.179   1.312
67048SOL    HW1 2977   8.198   9.160   1.383
67048SOL    HW2 2978   8.054   9.138   1.340
67049SOL     OW 2979   8.652  11.837   9.274
67049SOL    HW1 2980   8.696  11.801   9.197
67049SOL    HW2 2981   8.566  11.795   9.275
67050SOL     OW 2982   4.520   5.567  10.575
67050SOL    HW1 2983   4.446   5.593  10.520
67050SOL    HW2 2984   4.485   5.566  10.664
67051SOL     OW 2985   2.201   6.360   3.045
67051SOL    HW1 2986   2.229   6.444   3.082
67051SOL    HW2 2987   2.201   6.374   2.950
67052SOL     OW 2988  14.599   3.963   0.920
67052SOL    HW1 2989  14.521   4.007   0.885
67052SOL    HW2 2990  14.616   3.891   0.859
67053SOL     OW 2991   0.978   1.972   2.845
67053SOL    HW1 2992   1.055   1.916   2.858
67053SOL    HW2 2993   0.907   1.910   2.826
67054SOL     OW 2994   2.793   8.106   7.688
67054SOL    HW1 2995   2.754   8.175   7.634
67054SOL    HW2 2996   2.884   8.132   7.699
67055SOL     OW 2997   7.635   9.941   4.298
67055SOL    HW1 2998   7.699   9.894   4.351
67055SOL    HW2 2999   7.612   9.880   4.228
67056SOL     OW 3000  11.254  11.911   3.797
67056SOL    HW1 3001  11.259  11.930   3.891
67056SOL    HW2 3002  11.322  11.966   3.758
67057SOL     OW 3003   9.136   9.618   8.492
67057SOL    HW1 3004   9.191   9.563   8.547
67057SOL    HW2 3005   9.048   9.582   8.502
67058SOL     OW 3006   8.772   0.571   4.470
67058SOL    HW1 3007   8.822   0.575   4.388
67058SOL    HW2 3008   8.692   0.524   4.446
67059SOL     OW 3009   0.903   4.873   6.882
67059SOL    HW1 3010   0.935   4.956   6.917
67059SOL    HW2 3011   0.980   4.815   6.882
67060SOL     OW 3012   8.616  13.407   0.060
67060SOL    HW1 3013   8.546  13.455   0.016
67060SOL    HW2 3014   8.582  13.318   0.069
67061SOL     OW 3015   7.978   5.417   0.257
67061SOL    HW1 3016   7.942   5.397   0.171
67061SOL    HW2 3017   8.048   5.481   0.240
67062SOL     OW 3018  14.219  13.031   7.599
67062SOL    HW1 3019  14.207  12.979   7.678
67062SOL    HW2 3020  14.216  12.967   7.527
67063SOL     OW 3021   4.823   0.413  11.378
67063SOL    HW1 3022   4.905   0.384  11.418
67063SOL    HW2 3023   4.767   0.436  11.452
67064SOL     OW 3024   5.028  10.550   2.804
67064SOL    HW1 3025   5.015  10.596   2.720
67064SOL    HW2 3026   4.940  10.543   2.841
67065SOL     OW 3027   4.830  14.673  12.039
67065SOL    HW1 3028   4.789  14.697  12.122
67065SOL    HW2 3029   4.834  14.577  12.042
67066SOL     OW 3030   5.564   8.368   6.141
67066SOL    HW1 3031   5.509   8.292   6.124
67066SOL    HW2 3032   5.569   8.374   6.236
67067SOL     OW 3033  14.555   4.764   8.274
67067SOL    HW1 3034  14.599   4.810   8.204
67067SOL    HW2 3035  14.487   4.713   8.231
67068SOL     OW 3036  14.411   3.088   8.114
67068SOL    HW1 3037  14.321   3.054   8.113
67068SOL    HW2 3038  14.412   3.151   8.186
67069SOL     OW 3039   1.616   5.121   7.555
67069SOL    HW1 3040   1.698   5.089   7.591
67069SOL    HW2 3041   1.626   5.111   7.460
67070SOL     OW 3042   3.385  10.819   3.064
67070SOL    HW1 3043   3.330  10.875   3.009
67070SOL    HW2 3044   3.474  10.844   3.042
67071SOL     OW 3045  13.855  14.258  10.498
67071SOL    HW1 3046  13.826  14.220  10.581
67071SOL    HW2 3047  13.777  14.303  10.464
67072SOL     OW 3048   1.618  14.872   1.013
67072SOL    HW1 3049   1.547   0.032   0.963
67072SOL    HW2 3050   1.684   0.063   1.019
67073SOL     OW 3051  10.551   6.379   1.559
67073SOL    HW1 3052  10.589   6.291   1.564
67073SOL    HW2 3053  10.618   6.436   1.595
67074SOL     OW 3054  10.328   3.015   5.652
67074SOL    HW1 3055  10.238   3.013   5.620
67074SOL    HW2 3056  10.331   3.094   5.708
67075SOL     OW 3057   7.676   6.817   2.827
67075SOL    HW1 3058   7.678   6.755   2.753
67075SOL    HW2 3059   7.692   6.763   2.904
67076SOL     OW 3060   3.408  10.300   6.081
67076SOL    HW1 3061   3.364  10.360   6.020
67076SOL    HW2 3062   3.388  10.213   6.048
67077SOL     OW 3063  14.259  11.781  14.790
67077SOL    HW1 3064  14.285  11.873  14.787
67077SOL    HW2 3065  14.187  11.774  14.727
67078SOL     OW 3066   2.293  10.223   4.844
67078SOL    HW1 3067   2.267  10.261   4.761
67078SOL    HW2 3068   2.210  10.206   4.890
67079SOL     OW 3069   2.489   9.306   9.716
67079SOL    HW1 3070   2.477   9.214   9.694
67079SOL    HW2 3071   2.497   9.308   9.811
67080SOL     OW 3072   7.846  13.327  13.381
67080SOL    HW1 3073   7.774  13.337  13.320
67080SOL    HW2 3074   7.813  13.363  13.463
67081SOL     OW 3075   6.862   0.947   7.837
67081SOL    HW1 3076   6.833   0.856   7.846
67081SOL    HW2 3077   6.784   0.996   7.812
67082SOL     OW 3078  11.953  11.145  13.909
67082SOL    HW1 3079  11.937  11.051  13.916
67082SOL    HW2 3080  12.035  11.158  13.958
67083SOL     OW 3081  10.730   0.534   3.770
67083SOL    HW1 3082  10.821   0.504   3.779
67083SOL    HW2 3083  10.737   0.626   3.747
67084SOL     OW 3084   8.259   9.299  14.729
67084SOL    HW1 3085   8.228   9.226  14.783
67084SOL    HW2 3086   8.258   9.265  14.640
67085SOL     OW 3087   8.432   2.955  13.952
67085SOL    HW1 3088   8.400   3.018  14.017
67085SOL    HW2 3089   8.517   2.990  13.925
67086SOL     OW 3090  14.079   3.244   5.195
67086SOL    HW1 3091  14.063   3.311   5.129
67086SOL    HW2 3092  13.992   3.221   5.227
67087SOL     OW 3093   6.227  12.314   0.753
67087SOL    HW1 3094   6.255  12.225   0.731
67087SOL    HW2 3095   6.189  12.306   0.841
67088SOL     OW 3096   6.131  13.897   8.374
67088SOL    HW1 3097   6.212  13.864   8.335
67088SOL    HW2 3098   6.148  13.897   8.468
67089SOL     OW 3099  13.365   8.945   5.002
67089SOL    HW1 3100  13.351   8.958   5.096
67089SOL    HW2 3101  13.327   9.023   4.962
67090SOL     OW 3102   9.514   3.460  13.765
67090SOL    HW1 3103   9.531   3.412  13.684
67090SOL    HW2 3104   9.460   3.534  13.738
67091SOL     OW 3105  10.897  12.973   8.170
67091SOL    HW1 3106  10.869  12.889   8.132
67091SOL    HW2 3107  10.992  12.966   8.176
67092SOL     OW 3108   7.774  11.349   5.158
67092SOL    HW1 3109   7.700  11.347   5.098
67092SOL    HW2 3110   7.804  11.258   5.162
67093SOL     OW 3111  13.316   8.937  10.945
67093SOL    HW1 3112  13.340   8.921  11.037
67093SOL    HW2 3113  13.380   8.886  10.895
67094SOL     OW 3114  14.791  11.177   0.867
67094SOL    HW1 3115  14.827  11.259   0.831
67094SOL    HW2 3116  14.726  11.150   0.802
67095SOL     OW 3117  13.866  12.650  13.493
67095SOL    HW1 3118  13.873  12.680  13.403
67095SOL    HW2 3119  13.821  12.720  13.539
67096SOL     OW 3120  10.891   7.770   4.184
67096SOL    HW1 3121  10.939   7.698   4.145
67096SOL    HW2 3122  10.957   7.819   4.234
67097SOL     OW 3123   4.542   6.881  11.698
67097SOL    HW1 3124   4.586   6.965  11.682
67097SOL    HW2 3125   4.449   6.904  11.704
67098SOL     OW 3126   2.601  12.980   6.729
67098SOL    HW1 3127   2.683  12.932   6.738
67098SOL    HW2 3128   2.574  12.966   6.639
67099SOL     OW 3129   7.191   0.554   3.382
67099SOL    HW1 3130   7.120   0.613   3.356
67099SOL    HW2 3131   7.203   0.571   3.475
67100SOL     OW 3132   6.988   9.627   2.058
67100SOL    HW1 3133   6.935   9.601   2.134
67100SOL    HW2 3134   6.976   9.557   1.995
67101SOL     OW 3135   7.468   0.197   6.829
67101SOL    HW1 3136   7.473   0.102   6.845
67101SOL    HW2 3137   7.555   0.220   6.799
67102SOL     OW 3138  14.805   0.961   0.041
67102SOL    HW1 3139  14.812   1.017  14.842
67102SOL    HW2 3140  14.716   0.927   0.038
67103SOL     OW 3141   2.522   4.362  14.012
67103SOL    HW1 3142   2.503   4.456  14.018
67103SOL    HW2 3143   2.526   4.345  13.918
67104SOL     OW 3144  12.386  13.202   7.037
67104SOL    HW1 3145  12.474  13.218   7.002
67104SOL    HW2 3146  12.384  13.108   7.054
67105SOL     OW 3147   0.633   7.611   8.975
67105SOL    HW1 3148   0.680   7.627   8.894
67105SOL    HW2 3149   0.559   7.555   8.949
67106SOL     OW 3150   7.121   5.517   4.734
67106SOL    HW1 3151   7.032   5.482   4.727
67106SOL    HW2 3152   7.175   5.441   4.756
67107SOL     OW 3153   3.826  12.880  10.216
67107SOL    HW1 3154   3.853  12.889  10.308
67107SOL    HW2 3155   3.882  12.810  10.182
67108SOL     OW 3156  11.904   7.711   6.272
67108SOL    HW1 3157  11.918   7.735   6.363
67108SOL    HW2 3158  11.938   7.785   6.222
67109SOL     OW 3159  11.919   8.490   1.875
67109SOL    HW1 3160  11.930   8.405   1.918
67109SOL    HW2 3161  11.907   8.468   1.782
67110SOL     OW 3162  14.573  12.186   8.212
67110SOL    HW1 3163  14.590  12.235   8.293
67110SOL    HW2 3164  14.659  12.173   8.173
67111SOL     OW 3165   6.511   5.787   4.809
67111SOL    HW1 3166   6.468   5.718   4.860
67111SOL    HW2 3167   6.556   5.740   4.739
67112SOL     OW 3168  12.463  11.680   9.257
67112SOL    HW1 3169  12.509  11.724   9.186
67112SOL    HW2 3170  12.418  11.750   9.304
67113SOL     OW 3171  11.543   3.289  12.920
67113SOL    HW1 3172  11.631   3.265  12.948
67113SOL    HW2 3173  11.537   3.383  12.938
67114SOL     OW 3174   7.306   4.131   9.905
67114SOL    HW1 3175   7.323   4.094   9.818
67114SOL    HW2 3176   7.213   4.156   9.902
67115SOL     OW 3177  14.239   0.436   5.283
67115SOL    HW1 3178  14.254   0.375   5.210
67115SOL    HW2 3179  14.204   0.381   5.353
67116SOL     OW 3180   4.277   2.113   5.990
67116SOL    HW1 3181   4.360   2.161   5.993
67116SOL    HW2 3182   4.220   2.169   5.936
67117SOL     OW 3183  12.316  14.192   1.983
67117SOL    HW1 3184  12.243  14.151   1.936
67117SOL    HW2 3185  12.320  14.281   1.948
67118SOL     OW 3186   5.088   2.585   7.187
67118SOL    HW1 3187   5.099   2.627   7.272
67118SOL    HW2 3188   5.031   2.644   7.138
67119SOL     OW 3189  13.398  11.843  10.979
67119SOL    HW1 3190  13.431  11.923  10.937
67119SOL    HW2 3191  13.472  11.783  10.976
67120SOL     OW 3192   5.985   1.286   0.297
67120SOL    HW1 3193   6.059   1.306   0.241
67120SOL    HW2 3194   5.923   1.240   0.241
67121SOL     OW 3195  14.596  10.939   0.198
67121SOL    HW1 3196  14.527  10.990   0.242
67121SOL    HW2 3197  14.568  10.848   0.206
67122SOL     OW 3198  12.560  11.057   2.150
67122SOL    HW1 3199  12.506  10.982   2.126
67122SOL    HW2 3200  12.608  11.028   2.228
67123SOL     OW 3201   7.649   2.681  14.403
67123SOL    HW1 3202   7.558   2.651  14.405
67123SOL    HW2 3203   7.659   2.733  14.483
67124SOL     OW 3204   6.820   0.877   4.517
67124SOL    HW1 3205   6.744   0.932   4.535
67124SOL    HW2 3206   6.826   0.874   4.422
67125SOL     OW 3207   5.153   9.003  13.063
67125SOL    HW1 3208   5.077   9.036  13.112
67125SOL    HW2 3209   5.115   8.958  12.987
67126SOL     OW 3210  11.574   1.341   8.754
67126SOL    HW1 3211  11.597   1.379   8.839
67126SOL    HW2 3212  11.522   1.409   8.711
67127SOL     OW 3213  11.551   1.624  10.006
67127SOL    HW1 3214  11.481   1.687  10.025
67127SOL    HW2 3215  11.583   1.598  10.093
67128SOL     OW 3216  10.282   1.599  12.790
67128SOL    HW1 3217  10.238   1.682  12.772
67128SOL    HW2 3218  10.217   1.532  12.767
67129SOL     OW 3219  14.818   4.943   8.357
67129SOL    HW1 3220   0.021   4.895   8.347
67129SOL    HW2 3221  14.771   4.898   8.426
67130SOL     OW 3222   7.092   2.691   4.558
67130SOL    HW1 3223   7.135   2.723   4.478
67130SOL    HW2 3224   7.000   2.683   4.534
67131SOL     OW 3225   5.207   8.342   7.926
67131SOL    HW1 3226   5.250   8.386   7.999
67131SOL    HW2 3227   5.271   8.276   7.898
67132SOL     OW 3228   7.496   2.958   3.201
67132SOL    HW1 3229   7.416   2.982   3.154
67132SOL    HW2 3230   7.490   2.863   3.211
67133SOL     OW 3231  11.268   9.769   3.131
67133SOL    HW1 3232  11.296   9.812   3.050
67133SOL    HW2 3233  11.228   9.839   3.183
67134SOL     OW 3234  14.679  14.826   8.305
67134SOL    HW1 3235  14.716   0.019   8.253
67134SOL    HW2 3236  14.666  14.864   8.392
67135SOL     OW 3237   8.490  10.576   4.034
67135SOL    HW1 3238   8.563  10.628   3.999
67135SOL    HW2 3239   8.455  10.530   3.958
67136SOL     OW 3240  10.126   3.048   9.224
67136SOL    HW1 3241  10.208   3.051   9.174
67136SOL    HW2 3242  10.118   3.136   9.262
67137SOL     OW 3243   0.937  13.581  14.493
67137SOL    HW1 3244   0.960  13.515  14.428
67137SOL    HW2 3245   1.016  13.590  14.547
67138SOL     OW 3246   2.424   9.475  13.042
67138SOL    HW1 3247   2.343   9.526  13.047
67138SOL    HW2 3248   2.490   9.531  13.082
67139SOL     OW 3249   2.818   6.963   6.139
67139SOL    HW1 3250   2.772   7.028   6.087
67139SOL    HW2 3251   2.898   7.006   6.167
67140SOL     OW 3252   3.752   6.854   7.201
67140SOL    HW1 3253   3.798   6.870   7.118
67140SOL    HW2 3254   3.820   6.824   7.261
67141SOL     OW 3255  12.858   6.554   4.685
67141SOL    HW1 3256  12.852   6.622   4.618
67141SOL    HW2 3257  12.886   6.600   4.764
67142SOL     OW 3258   8.523  12.088  10.896
67142SOL    HW1 3259   8.563  12.079  10.810
67142SOL    HW2 3260   8.482  12.174  10.895
67143SOL     OW 3261   0.035   6.816   8.385
67143SOL    HW1 3262   0.003   6.906   8.393
67143SOL    HW2 3263   0.042   6.802   8.291
67144SOL     OW 3264   5.754  11.188  13.125
67144SOL    HW1 3265   5.813  11.263  13.126
67144SOL    HW2 3266   5.669  11.224  13.150
67145SOL     OW 3267   2.429  10.327  10.526
67145SOL    HW1 3268   2.474  10.364  10.450
67145SOL    HW2 3269   2.499  10.309  10.589
67146SOL     OW 3270   7.567  11.897   6.743
67146SOL    HW1 3271   7.659  11.893   6.768
67146SOL    HW2 3272   7.544  11.807   6.720
67147SOL     OW 3273   8.032   0.321  14.742
67147SOL    HW1 3274   8.108   0.367  14.706
67147SOL    HW2 3275   8.045   0.324  14.837
67148SOL     OW 3276   8.400  12.517   2.795
67148SOL    HW1 3277   8.402  12.513   2.890
67148SOL    HW2 3278   8.424  12.429   2.766
67149SOL     OW 3279  11.415   0.707   6.901
67149SOL    HW1 3280  11.423   0.689   6.994
67149SOL    HW2 3281  11.364   0.789   6.897
67150SOL     OW 3282   6.454   7.488  12.312
67150SOL    HW1 3283   6.531   7.489  12.255
67150SOL    HW2 3284   6.465   7.411  12.367
67151SOL     OW 3285  12.516  11.378   1.092
67151SOL    HW1 3286  12.569  11.317   1.040
67151SOL    HW2 3287  12.515  11.340   1.180
67152SOL     OW 3288   6.545   9.599   4.340
67152SOL    HW1 3289   6.530   9.561   4.427
67152SOL    HW2 3290   6.611   9.667   4.355
67153SOL     OW 3291   6.871  12.633  11.168
67153SOL    HW1 3292   6.805  12.685  11.121
67153SOL    HW2 3293   6.941  12.619  11.104
67154SOL     OW 3294  10.193   6.498   0.464
67154SOL    HW1 3295  10.114   6.501   0.410
67154SOL    HW2 3296  10.209   6.405   0.476
67155SOL     OW 3297   0.219   5.723  11.635
67155SOL    HW1 3298   0.158   5.795  11.646
67155SOL    HW2 3299   0.280   5.752  11.568
67156SOL     OW 3300   9.229   2.632   1.806
67156SOL    HW1 3301   9.145   2.666   1.774
67156SOL    HW2 3302   9.251   2.688   1.880
67157SOL     OW 3303  10.880  10.812   2.676
67157SOL    HW1 3304  10.886  10.816   2.771
67157SOL    HW2 3305  10.921  10.894   2.646
67158SOL     OW 3306   0.758   7.356   9.694
67158SOL    HW1 3307   0.795   7.294   9.758
67158SOL    HW2 3308   0.669   7.324   9.679
67159SOL     OW 3309   7.308  12.265  13.155
67159SOL    HW1 3310   7.238  12.330  13.154
67159SOL    HW2 3311   7.302  12.225  13.242
67160SOL     OW 3312   7.272  12.100   4.471
67160SOL    HW1 3313   7.315  12.165   4.527
67160SOL    HW2 3314   7.238  12.035   4.532
67161SOL     OW 3315   4.529   5.950  14.368
67161SOL    HW1 3316   4.509   5.861  14.340
67161SOL    HW2 3317   4.480   5.962  14.449
67162SOL     OW 3318   4.419   8.212   9.869
67162SOL    HW1 3319   4.434   8.234   9.777
67162SOL    HW2 3320   4.386   8.122   9.867
67163SOL     OW 3321   7.108   0.018  11.892
67163SOL    HW1 3322   7.020   0.000  11.926
67163SOL    HW2 3323   7.167  14.849  11.952
67164SOL     OW 3324   0.077   8.900   0.065
67164SOL    HW1 3325   0.141   8.835   0.095
67164SOL    HW2 3326   0.033   8.858  14.870
67165SOL     OW 3327   0.550   1.102  10.557
67165SOL    HW1 3328   0.471   1.059  10.590
67165SOL    HW2 3329   0.592   1.037  10.502
67166SOL     OW 3330  14.450   0.079   9.999
67166SOL    HW1 3331  14.486   0.150   9.946
67166SOL    HW2 3332  14.442   0.006   9.937
67167SOL     OW 3333  11.276   0.709  14.824
67167SOL    HW1 3334  11.211   0.644  14.800
67167SOL    HW2 3335  11.358   0.676  14.787
67168SOL     OW 3336  13.611   2.700  12.590
67168SOL    HW1 3337  13.614   2.638  12.663
67168SOL    HW2 3338  13.663   2.774  12.620
67169SOL     OW 3339   5.889  10.758   8.232
67169SOL    HW1 3340   5.943  10.778   8.308
67169SOL    HW2 3341   5.947  10.772   8.157
67170SOL     OW 3342  10.149   2.190   2.577
67170SOL    HW1 3343  10.135   2.217   2.668
67170SOL    HW2 3344  10.073   2.136   2.556
67171SOL     OW 3345   8.085   2.676  10.540
67171SOL    HW1 3346   8.124   2.759  10.515
67171SOL    HW2 3347   8.023   2.699  10.610
67172SOL     OW 3348  10.189  10.055  12.392
67172SOL    HW1 3349  10.180  10.131  12.449
67172SOL    HW2 3350  10.121   9.995  12.421
67173SOL     OW 3351   6.182   6.185  13.486
67173SOL    HW1 3352   6.264   6.181  13.437
67173SOL    HW2 3353   6.169   6.278  13.504
67174SOL     OW 3354  13.750   5.701  11.693
67174SOL    HW1 3355  13.679   5.724  11.752
67174SOL    HW2 3356  13.739   5.607  11.678
67175SOL     OW 3357   1.009   9.670  12.955
67175SOL    HW1 3358   0.975   9.756  12.977
67175SOL    HW2 3359   1.104   9.682  12.949
67176SOL     OW 3360   7.172   9.824   0.932
67176SOL    HW1 3361   7.267   9.821   0.940
67176SOL    HW2 3362   7.151   9.766   0.860
67177SOL     OW 3363   8.965   1.844  10.035
67177SOL    HW1 3364   8.887   1.823   9.983
67177SOL    HW2 3365   8.995   1.927  10.000
67178SOL     OW 3366   2.080  11.553   0.824
67178SOL    HW1 3367   2.071  11.637   0.870
67178SOL    HW2 3368   2.133  11.573   0.748
67179SOL     OW 3369   4.645  14.608  11.783
67179SOL    HW1 3370   4.631  14.624  11.690
67179SOL    HW2 3371   4.668  14.694  11.819
67180SOL     OW 3372   4.118  13.218  14.473
67180SOL    HW1 3373   4.162  13.220  14.388
67180SOL    HW2 3374   4.076  13.132  14.475
67181SOL     OW 3375   9.390  11.081   0.340
67181SOL    HW1 3376   9.391  11.128   0.423
67181SOL    HW2 3377   9.352  11.142   0.278
67182SOL     OW 3378   0.610   3.238   6.116
67182SOL    HW1 3379   0.554   3.257   6.041
67182SOL    HW2 3380   0.550   3.236   6.191
67183SOL     OW 3381   7.120   4.937   5.428
67183SOL    HW1 3382   7.044   4.880   5.418
67183SOL    HW2 3383   7.136   4.941   5.522
67184SOL     OW 3384  14.654   4.217  10.232
67184SOL    HW1 3385  14.634   4.304  10.198
67184SOL    HW2 3386  14.647   4.227  10.327
67185SOL     OW 3387   5.970   7.131   4.585
67185SOL    HW1 3388   5.967   7.200   4.652
67185SOL    HW2 3389   5.906   7.067   4.615
67186SOL     OW 3390   7.370   2.900  12.027
67186SOL    HW1 3391   7.381   2.967  12.095
67186SOL    HW2 3392   7.367   2.949  11.945
67187SOL     OW 3393   9.826   9.405   1.867
67187SOL    HW1 3394   9.895   9.462   1.902
67187SOL    HW2 3395   9.815   9.337   1.934
67188SOL     OW 3396   3.657   2.795  11.033
67188SOL    HW1 3397   3.657   2.889  11.046
67188SOL    HW2 3398   3.645   2.758  11.120
67189SOL     OW 3399   3.020   0.769   1.270
67189SOL    HW1 3400   3.053   0.689   1.230
67189SOL    HW2 3401   3.079   0.785   1.344
67190SOL     OW 3402   7.219  10.584   7.439
67190SOL    HW1 3403   7.178  10.633   7.367
67190SOL    HW2 3404   7.279  10.647   7.479
67191SOL     OW 3405   3.888  13.048  11.402
67191SOL    HW1 3406   3.816  12.987  11.416
67191SOL    HW2 3407   3.908  13.083  11.489
67192SOL     OW 3408  12.406   8.595   7.853
67192SOL    HW1 3409  12.426   8.513   7.807
67192SOL    HW2 3410  12.415   8.663   7.786
67193SOL     OW 3411   3.890   9.069  10.025
67193SOL    HW1 3412   3.876   9.139  10.089
67193SOL    HW2 3413   3.803   9.054   9.987
67194SOL     OW 3414  11.247   4.578   0.875
67194SOL    HW1 3415  11.290   4.656   0.910
67194SOL    HW2 3416  11.283   4.505   0.925
67195SOL     OW 3417   2.300   3.953   9.729
67195SOL    HW1 3418   2.336   4.033   9.768
67195SOL    HW2 3419   2.280   3.897   9.804
67196SOL     OW 3420   7.136   6.232   1.836
67196SOL    HW1 3421   7.135   6.137   1.840
67196SOL    HW2 3422   7.123   6.252   1.743
67197SOL     OW 3423   9.940   1.718   0.506
67197SOL    HW1 3424   9.911   1.785   0.444
67197SOL    HW2 3425   9.924   1.757   0.592
67198SOL     OW 3426  12.457   3.756   2.736
67198SOL    HW1 3427  12.511   3.727   2.662
67198SOL    HW2 3428  12.373   3.711   2.723
67199SOL     OW 3429   3.769   6.124  14.077
67199SOL    HW1 3430   3.773   6.214  14.108
67199SOL    HW2 3431   3.837   6.079  14.127
67200SOL     OW 3432   9.481  14.846   4.917
67200SOL    HW1 3433   9.552  14.821   4.976
67200SOL    HW2 3434   9.496   0.060   4.900
67201SOL     OW 3435  11.911   8.785   1.346
67201SOL    HW1 3436  11.875   8.721   1.407
67201SOL    HW2 3437  11.835   8.829   1.308
67202SOL     OW 3438  11.668   2.167  14.792
67202SOL    HW1 3439  11.590   2.210  14.758
67202SOL    HW2 3440  11.739   2.228  14.773
67203SOL     OW 3441  14.735   9.699  10.477
67203SOL    HW1 3442  14.665   9.642  10.442
67203SOL    HW2 3443  14.748   9.668  10.566
67204SOL     OW 3444  12.233   9.316   4.929
67204SOL    HW1 3445  12.276   9.343   4.848
67204SOL    HW2 3446  12.244   9.221   4.932
67205SOL     OW 3447   5.499  14.068   6.881
67205SOL    HW1 3448   5.538  14.144   6.838
67205SOL    HW2 3449   5.407  14.071   6.855
67206SOL     OW 3450  11.800  11.810  10.420
67206SOL    HW1 3451  11.866  11.855  10.472
67206SOL    HW2 3452  11.718  11.823  10.468
67207SOL     OW 3453   7.481   4.644  10.648
67207SOL    HW1 3454   7.533   4.723  10.663
67207SOL    HW2 3455   7.521   4.578  10.704
67208SOL     OW 3456   2.181   8.207   2.852
67208SOL    HW1 3457   2.182   8.116   2.823
67208SOL    HW2 3458   2.272   8.226   2.875
67209SOL     OW 3459   2.478   1.526   1.962
67209SOL    HW1 3460   2.508   1.448   2.008
67209SOL    HW2 3461   2.527   1.598   2.002
67210SOL     OW 3462   7.653   8.839  13.895
67210SOL    HW1 3463   7.617   8.766  13.944
67210SOL    HW2 3464   7.587   8.860  13.829
67211SOL     OW 3465   0.395   7.366   4.347
67211SOL    HW1 3466   0.318   7.337   4.394
67211SOL    HW2 3467   0.411   7.455   4.379
67212SOL     OW 3468   7.499  13.300   1.712
67212SOL    HW1 3469   7.542  13.385   1.722
67212SOL    HW2 3470   7.484  13.291   1.618
67213SOL     OW 3471   8.251  11.613   8.544
67213SOL    HW1 3472   8.313  11.678   8.509
67213SOL    HW2 3473   8.177  11.666   8.575
67214SOL     OW 3474  10.001   5.569   9.552
67214SOL    HW1 3475   9.914   5.577   9.513
67214SOL    HW2 3476  10.011   5.475   9.569
67215SOL     OW 3477   1.195   5.348   7.968
67215SOL    HW1 3478   1.107   5.323   7.939
67215SOL    HW2 3479   1.246   5.353   7.887
67216SOL     OW 3480  13.644  10.190  13.217
67216SOL    HW1 3481  13.569  10.147  13.178
67216SOL    HW2 3482  13.661  10.265  13.160
67217SOL     OW 3483   8.031   3.666   9.217
67217SOL    HW1 3484   7.991   3.612   9.285
67217SOL    HW2 3485   7.974   3.654   9.141
67218SOL     OW 3486   0.508   4.588  13.963
67218SOL    HW1 3487   0.561   4.529  13.910
67218SOL    HW2 3488   0.423   4.589  13.921
67219SOL     OW 3489   7.849   6.290   2.141
67219SOL    HW1 3490   7.755   6.277   2.131
67219SOL    HW2 3491   7.887   6.243   2.067
67220SOL     OW 3492   0.541   0.006   4.720
67220SOL    HW1 3493   0.496   0.003   4.635
67220SOL    HW2 3494   0.508  14.808   4.767
67221SOL     OW 3495  13.910   5.320   4.652
67221SOL    HW1 3496  13.919   5.394   4.712
67221SOL    HW2 3497  13.841   5.346   4.592
67222SOL     OW 3498   2.323   4.355   9.271
67222SOL    HW1 3499   2.399   4.412   9.280
67222SOL    HW2 3500   2.359   4.270   9.244
67223SOL     OW 3501   8.098  12.846  10.893
67223SOL    HW1 3502   8.124  12.916  10.833
67223SOL    HW2 3503   8.096  12.767  10.838
67224SOL     OW 3504   6.416   1.304   8.695
67224SOL    HW1 3505   6.445   1.224   8.739
67224SOL    HW2 3506   6.486   1.368   8.712
67225SOL     OW 3507   1.545  11.958   3.765
67225SOL    HW1 3508   1.502  11.946   3.680
67225SOL    HW2 3509   1.572  12.050   3.765
67226SOL     OW 3510   8.404  12.433  13.584
67226SOL    HW1 3511   8.486  12.388  13.566
67226SOL    HW2 3512   8.393  12.492  13.510
67227SOL     OW 3513  12.944   2.341   4.253
67227SOL    HW1 3514  12.950   2.435   4.273
67227SOL    HW2 3515  12.851   2.327   4.233
67228SOL     OW 3516  12.862  12.576  10.802
67228SOL    HW1 3517  12.820  12.594  10.886
67228SOL    HW2 3518  12.846  12.482  10.787
67229SOL     OW 3519   4.689  13.236  11.697
67229SOL    HW1 3520   4.628  13.182  11.747
67229SOL    HW2 3521   4.635  13.306  11.660
67230SOL     OW 3522   8.595  14.869  11.418
67230SOL    HW1 3523   8.596   0.027  11.507
67230SOL    HW2 3524   8.686  14.846  11.400
67231SOL     OW 3525   6.191   2.034   2.595
67231SOL    HW1 3526   6.173   1.999   2.682
67231SOL    HW2 3527   6.279   2.004   2.575
67232SOL     OW 3528   7.555   7.203   5.551
67232SOL    HW1 3529   7.469   7.233   5.524
67232SOL    HW2 3530   7.580   7.261   5.623
67233SOL     OW 3531   5.374   2.094   7.509
67233SOL    HW1 3532   5.461   2.061   7.487
67233SOL    HW2 3533   5.336   2.027   7.565
67234SOL     OW 3534   5.493   5.422   6.098
67234SOL    HW1 3535   5.548   5.364   6.046
67234SOL    HW2 3536   5.529   5.510   6.084
67235SOL     OW 3537   7.531   4.320   7.429
67235SOL    HW1 3538   7.544   4.245   7.371
67235SOL    HW2 3539   7.437   4.318   7.450
67236SOL     OW 3540  12.817  13.956   5.026
67236SOL    HW1 3541  12.759  14.022   4.988
67236SOL    HW2 3542  12.759  13.902   5.080
67237SOL     OW 3543  10.942  14.077  14.662
67237SOL    HW1 3544  11.016  14.050  14.715
67237SOL    HW2 3545  10.908  14.155  14.706
67238SOL     OW 3546   8.883   7.038   7.652
67238SOL    HW1 3547   8.857   6.949   7.626
67238SOL    HW2 3548   8.966   7.027   7.698
67239SOL     OW 3549  12.434   5.241  11.211
67239SOL    HW1 3550  12.437   5.262  11.305
67239SOL    HW2 3551  12.369   5.172  11.204
67240SOL     OW 3552   6.914   7.440   8.761
67240SOL    HW1 3553   6.884   7.464   8.848
67240SOL    HW2 3554   6.874   7.354   8.745
67241SOL     OW 3555  12.536  13.733   4.809
67241SOL    HW1 3556  12.627  13.757   4.792
67241SOL    HW2 3557  12.525  13.649   4.764
67242SOL     OW 3558   1.677   6.143  14.344
67242SOL    HW1 3559   1.683   6.133  14.249
67242SOL    HW2 3560   1.695   6.056  14.379
67243SOL     OW 3561   6.974   0.822   6.196
67243SOL    HW1 3562   6.891   0.867   6.179
67243SOL    HW2 3563   7.041   0.886   6.171
67244SOL     OW 3564   7.233   9.414  10.375
67244SOL    HW1 3565   7.298   9.468  10.330
67244SOL    HW2 3566   7.280   9.333  10.396
67245SOL     OW 3567  13.615  14.600   3.997
67245SOL    HW1 3568  13.550  14.650   4.047
67245SOL    HW2 3569  13.699  14.625   4.035
67246SOL     OW 3570   6.280   5.518   5.335
67246SOL    HW1 3571   6.277   5.427   5.305
67246SOL    HW2 3572   6.356   5.521   5.394
67247SOL     OW 3573   2.692   1.555   4.860
67247SOL    HW1 3574   2.655   1.549   4.948
67247SOL    HW2 3575   2.700   1.464   4.832
67248SOL     OW 3576  12.869   7.750   9.565
67248SOL    HW1 3577  12.904   7.673   9.609
67248SOL    HW2 3578  12.815   7.716   9.495
67249SOL     OW 3579   7.302   9.384   6.505
67249SOL    HW1 3580   7.368   9.375   6.574
67249SOL    HW2 3581   7.344   9.349   6.426
67250SOL     OW 3582  12.902  12.395   6.702
67250SOL    HW1 3583  12.995  12.389   6.725
67250SOL    HW2 3584  12.894  12.474   6.650
67251SOL     OW 3585   0.774   2.057   5.078
67251SOL    HW1 3586   0.682   2.078   5.093
67251SOL    HW2 3587   0.821   2.109   5.144
67252SOL     OW 3588   8.707   1.747  12.956
67252SOL    HW1 3589   8.676   1.794  12.878
67252SOL    HW2 3590   8.801   1.739  12.944
67253SOL     OW 3591   6.815   5.179  10.305
67253SOL    HW1 3592   6.800   5.108  10.242
67253SOL    HW2 3593   6.858   5.248  10.254
67254SOL     OW 3594  11.516  12.998  13.709
67254SOL    HW1 3595  11.554  12.912  13.694
67254SOL    HW2 3596  11.579  13.043  13.766
67255SOL     OW 3597  10.366   3.360  10.513
67255SOL    HW1 3598  10.305   3.426  10.547
67255SOL    HW2 3599  10.445   3.410  10.493
67256SOL     OW 3600   3.111  13.504   8.035
67256SOL    HW1 3601   3.095  13.445   7.961
67256SOL    HW2 3602   3.024  13.537   8.059
67257SOL     OW 3603   7.786   0.725   6.462
67257SOL    HW1 3604   7.733   0.734   6.383
67257SOL    HW2 3605   7.801   0.814   6.492
67258SOL     OW 3606  10.503   6.195   3.216
67258SOL    HW1 3607  10.520   6.112   3.172
67258SOL    HW2 3608  10.463   6.250   3.148
67259SOL     OW 3609   6.751   9.763   7.750
67259SOL    HW1 3610   6.746   9.826   7.678
67259SOL    HW2 3611   6.743   9.677   7.707
67260SOL     OW 3612   9.835   1.445  13.614
67260SOL    HW1 3613   9.793   1.438  13.528
67260SOL    HW2 3614   9.814   1.534  13.643
67261SOL     OW 3615   1.791  10.367   3.116
67261SOL    HW1 3616   1.762  10.457   3.132
67261SOL    HW2 3617   1.716  10.325   3.075
67262SOL     OW 3618  13.130   5.177   5.536
67262SOL    HW1 3619  13.102   5.163   5.627
67262SOL    HW2 3620  13.157   5.091   5.506
67263SOL     OW 3621   5.994  11.399   8.194
67263SOL    HW1 3622   5.986  11.314   8.236
67263SOL    HW2 3623   6.082  11.400   8.157
67264SOL     OW 3624   0.127   1.483   3.278
67264SOL    HW1 3625   0.053   1.496   3.218
67264SOL    HW2 3626   0.177   1.412   3.239
67265SOL     OW 3627   8.489  10.080   5.836
67265SOL    HW1 3628   8.564  10.027   5.807
67265SOL    HW2 3629   8.421  10.065   5.770
67266SOL     OW 3630  13.558   3.015   4.087
67266SOL    HW1 3631  13.548   3.107   4.111
67266SOL    HW2 3632  13.491   3.000   4.020
67267SOL     OW 3633   1.042  10.812   4.306
67267SOL    HW1 3634   1.096  10.772   4.238
67267SOL    HW2 3635   0.953  10.786   4.284
67268SOL     OW 3636  10.602   8.031   0.644
67268SOL    HW1 3637  10.507   8.029   0.646
67268SOL    HW2 3638  10.627   8.072   0.727
67269SOL     OW 3639   9.107  13.610   8.862
67269SOL    HW1 3640   9.198  13.632   8.846
67269SOL    HW2 3641   9.058  13.661   8.796
67270SOL     OW 3642   7.270   3.084   9.249
67270SOL    HW1 3643   7.268   3.095   9.345
67270SOL    HW2 3644   7.352   3.125   9.223
67271SOL     OW 3645   4.350   3.971  11.997
67271SOL    HW1 3646   4.289   3.950  11.927
67271SOL    HW2 3647   4.366   3.888  12.041
67272SOL     OW 3648  14.831  11.767   4.662
67272SOL    HW1 3649   0.004  11.729   4.592
67272SOL    HW2 3650  14.828  11.699   4.730
67273SOL     OW 3651  10.694  10.452   6.834
67273SOL    HW1 3652  10.671  10.359   6.823
67273SOL    HW2 3653  10.731  10.457   6.922
67274SOL     OW 3654   3.669  12.674   8.956
67274SOL    HW1 3655   3.697  12.693   8.866
67274SOL    HW2 3656   3.613  12.748   8.979
67275SOL     OW 3657  12.820   5.275   1.092
67275SOL    HW1 3658  12.819   5.341   1.161
67275SOL    HW2 3659  12.860   5.319   1.017
67276SOL     OW 3660   7.188   6.335   6.667
67276SOL    HW1 3661   7.209   6.277   6.740
67276SOL    HW2 3662   7.196   6.279   6.590
67277SOL     OW 3663   5.149   3.421   9.090
67277SOL    HW1 3664   5.179   3.476   9.163
67277SOL    HW2 3665   5.212   3.349   9.088
67278SOL     OW 3666   2.124  14.336   6.382
67278SOL    HW1 3667   2.104  14.426   6.408
67278SOL    HW2 3668   2.039  14.295   6.368
67279SOL     OW 3669  14.224   6.623   3.118
67279SOL    HW1 3670  14.296   6.571   3.082
67279SOL    HW2 3671  14.150   6.562   3.123
67280SOL     OW 3672   8.109   5.670   1.501
67280SOL    HW1 3673   8.176   5.736   1.482
67280SOL    HW2 3674   8.146   5.588   1.470
67281SOL     OW 3675  11.147   2.943   3.426
67281SOL    HW1 3676  11.154   2.982   3.339
67281SOL    HW2 3677  11.079   2.995   3.469
67282SOL     OW 3678   1.488  11.314   9.423
67282SOL    HW1 3679   1.447  11.361   9.496
67282SOL    HW2 3680   1.456  11.224   9.431
67283SOL     OW 3681  12.773  11.956   6.939
67283SOL    HW1 3682  12.752  11.883   6.997
67283SOL    HW2 3683  12.737  12.033   6.983
67284SOL     OW 3684   7.157   9.292   0.919
67284SOL    HW1 3685   7.188   9.379   0.892
67284SOL    HW2 3686   7.212   9.271   0.995
67285SOL     OW 3687  12.673  11.685   3.127
67285SOL    HW1 3688  12.604  11.747   3.102
67285SOL    HW2 3689  12.703  11.716   3.212
67286SOL     OW 3690  13.442   1.514   4.740
67286SOL    HW1 3691  13.432   1.477   4.827
67286SOL    HW2 3692  13.536   1.510   4.722
67287SOL     OW 3693   4.641   8.673   1.193
67287SOL    HW1 3694   4.719   8.662   1.248
67287SOL    HW2 3695   4.632   8.590   1.147
67288SOL     OW 3696   3.522   6.279   7.189
67288SOL    HW1 3697   3.495   6.362   7.229
67288SOL    HW2 3698   3.578   6.238   7.255
67289SOL     OW 3699  13.422   0.703   8.186
67289SOL    HW1 3700  13.399   0.642   8.116
67289SOL    HW2 3701  13.511   0.732   8.164
67290SOL     OW 3702  14.424   3.978   7.842
67290SOL    HW1 3703  14.333   3.978   7.810
67290SOL    HW2 3704  14.440   4.069   7.866
67291SOL     OW 3705   7.975   2.967   7.699
67291SOL    HW1 3706   7.972   2.874   7.679
67291SOL    HW2 3707   8.053   2.999   7.653
67292SOL     OW 3708   9.585  13.910   7.449
67292SOL    HW1 3709   9.542  13.832   7.416
67292SOL    HW2 3710   9.631  13.947   7.373
67293SOL     OW 3711  10.521  14.489   4.824
67293SOL    HW1 3712  10.572  14.537   4.889
67293SOL    HW2 3713  10.462  14.555   4.786
67294SOL     OW 3714  11.417  10.404  10.666
67294SOL    HW1 3715  11.488  10.460  10.697
67294SOL    HW2 3716  11.456  10.317  10.662
67295SOL     OW 3717  14.042   7.452   3.379
67295SOL    HW1 3718  14.045   7.358   3.364
67295SOL    HW2 3719  13.954   7.469   3.414
67296SOL     OW 3720   3.199  14.710  13.730
67296SOL    HW1 3721   3.130  14.644  13.725
67296SOL    HW2 3722   3.259  14.677  13.797
67297SOL     OW 3723  14.518   8.016   3.326
67297SOL    HW1 3724  14.464   8.094   3.338
67297SOL    HW2 3725  14.606   8.049   3.313
67298SOL     OW 3726  14.078  11.836   2.835
67298SOL    HW1 3727  14.026  11.847   2.756
67298SOL    HW2 3728  14.031  11.884   2.903
67299SOL     OW 3729   2.304   7.408  12.156
67299SOL    HW1 3730   2.359   7.469  12.206
67299SOL    HW2 3731   2.285   7.455  12.075
67300SOL     OW 3732   7.359  13.875   2.958
67300SOL    HW1 3733   7.275  13.921   2.962
67300SOL    HW2 3734   7.424  13.943   2.976
67301SOL     OW 3735   9.238   0.987   2.042
67301SOL    HW1 3736   9.207   0.971   2.132
67301SOL    HW2 3737   9.329   1.014   2.052
67302SOL     OW 3738   5.395   0.971   9.076
67302SOL    HW1 3739   5.381   0.876   9.073
67302SOL    HW2 3740   5.390   0.993   9.169
67303SOL     OW 3741   9.834   3.518   8.007
67303SOL    HW1 3742   9.928   3.509   7.987
67303SOL    HW2 3743   9.814   3.609   7.986
67304SOL     OW 3744  12.903  12.828   4.391
67304SOL    HW1 3745  12.836  12.859   4.330
67304SOL    HW2 3746  12.889  12.880   4.470
67305SOL     OW 3747   9.897  10.541   9.056
67305SOL    HW1 3748   9.836  10.611   9.079
67305SOL    HW2 3749   9.869  10.467   9.108
67306SOL     OW 3750   8.997   2.771  11.693
67306SOL    HW1 3751   8.902   2.777  11.686
67306SOL    HW2 3752   9.021   2.842  11.752
67307SOL     OW 3753  11.027   0.141  14.605
67307SOL    HW1 3754  11.100   0.146  14.543
67307SOL    HW2 3755  11.042   0.061  14.655
67308SOL     OW 3756   3.906  14.558   0.613
67308SOL    HW1 3757   3.821  14.599   0.598
67308SOL    HW2 3758   3.901  14.522   0.701
67309SOL     OW 3759   8.907   7.806  10.165
67309SOL    HW1 3760   8.955   7.816  10.248
67309SOL    HW2 3761   8.950   7.733  10.121
67310SOL     OW 3762   6.281   8.426  13.184
67310SOL    HW1 3763   6.290   8.336  13.153
67310SOL    HW2 3764   6.189   8.447  13.172
67311SOL     OW 3765  13.309  12.395  11.994
67311SOL    HW1 3766  13.338  12.324  12.052
67311SOL    HW2 3767  13.356  12.472  12.027
67312SOL     OW 3768   3.461  12.028   4.925
67312SOL    HW1 3769   3.418  12.001   5.006
67312SOL    HW2 3770   3.543  12.068   4.952
67313SOL     OW 3771   4.606  12.487   4.904
67313SOL    HW1 3772   4.548  12.549   4.859
67313SOL    HW2 3773   4.563  12.402   4.893
67314SOL     OW 3774   8.786   2.366  12.307
67314SOL    HW1 3775   8.708   2.311  12.319
67314SOL    HW2 3776   8.806   2.359  12.214
67315SOL     OW 3777   2.738   6.829   6.429
67315SOL    HW1 3778   2.789   6.909   6.436
67315SOL    HW2 3779   2.803   6.758   6.431
67316SOL     OW 3780   0.221  11.018   6.382
67316SOL    HW1 3781   0.186  11.102   6.351
67316SOL    HW2 3782   0.297  11.041   6.434
67317SOL     OW 3783   6.242   3.355   3.932
67317SOL    HW1 3784   6.258   3.300   4.009
67317SOL    HW2 3785   6.148   3.371   3.933
67318SOL     OW 3786  13.014  10.770  12.383
67318SOL    HW1 3787  13.013  10.865  12.373
67318SOL    HW2 3788  13.018  10.756  12.478
67319SOL     OW 3789   7.509  12.172   6.242
67319SOL    HW1 3790   7.544  12.255   6.210
67319SOL    HW2 3791   7.416  12.190   6.260
67320SOL     OW 3792  10.465   0.816   9.534
67320SOL    HW1 3793  10.487   0.728   9.505
67320SOL    HW2 3794  10.382   0.835   9.490
67321SOL     OW 3795   2.747   2.648   9.414
67321SOL    HW1 3796   2.674   2.711   9.417
67321SOL    HW2 3797   2.804   2.674   9.487
67322SOL     OW 3798   7.477   1.696   1.570
67322SOL    HW1 3799   7.528   1.774   1.593
67322SOL    HW2 3800   7.524   1.659   1.495
67323SOL     OW 3801   1.772   9.769   5.489
67323SOL    HW1 3802   1.705   9.726   5.542
67323SOL    HW2 3803   1.785   9.854   5.530
67324SOL     OW 3804   8.392  12.222   2.064
67324SOL    HW1 3805   8.389  12.253   1.974
67324SOL    HW2 3806   8.344  12.138   2.062
67325SOL     OW 3807   2.604  14.445  14.117
67325SOL    HW1 3808   2.596  14.350  14.104
67325SOL    HW2 3809   2.558  14.462  14.199
67326SOL     OW 3810  12.890  12.633   3.555
67326SOL    HW1 3811  12.861  12.636   3.464
67326SOL    HW2 3812  12.809  12.632   3.606
67327SOL     OW 3813   0.074  11.456   0.972
67327SOL    HW1 3814   0.016  11.480   1.044
67327SOL    HW2 3815   0.107  11.539   0.938
67328SOL     OW 3816   1.791   3.596  10.841
67328SOL    HW1 3817   1.852   3.649  10.789
67328SOL    HW2 3818   1.741   3.660  10.891
67329SOL     OW 3819   5.521   2.339   2.480
67329SOL    HW1 3820   5.554   2.421   2.445
67329SOL    HW2 3821   5.542   2.274   2.413
67330SOL     OW 3822  14.642   2.137   4.050
67330SOL    HW1 3823  14.605   2.178   3.971
67330SOL    HW2 3824  14.719   2.090   4.018
67331SOL     OW 3825   7.646   3.032  13.529
67331SOL    HW1 3826   7.639   3.127  13.532
67331SOL    HW2 3827   7.600   3.002  13.607
67332SOL     OW 3828   8.097  11.042   6.939
67332SOL    HW1 3829   8.115  11.085   6.855
67332SOL    HW2 3830   8.076  10.952   6.916
67333SOL     OW 3831   3.647   2.094   8.077
67333SOL    HW1 3832   3.714   2.105   8.009
67333SOL    HW2 3833   3.589   2.026   8.043
67334SOL     OW 3834  13.616   3.085   2.457
67334SOL    HW1 3835  13.575   3.169   2.436
67334SOL    HW2 3836  13.569   3.021   2.403
67335SOL     OW 3837  13.490  11.332   5.292
67335SOL    HW1 3838  13.410  11.347   5.242
67335SOL    HW2 3839  13.462  11.336   5.384
67336SOL     OW 3840  13.550   4.349  11.809
67336SOL    HW1 3841  13.493   4.299  11.866
67336SOL    HW2 3842  13.538   4.310  11.722
67337SOL     OW 3843  12.708   2.757  13.125
67337SOL    HW1 3844  12.690   2.716  13.041
67337SOL    HW2 3845  12.683   2.691  13.190
67338SOL     OW 3846   3.899  12.741   2.799
67338SOL    HW1 3847   3.837  12.712   2.732
67338SOL    HW2 3848   3.984  12.712   2.766
67339SOL     OW 3849   9.304  11.353   5.550
67339SOL    HW1 3850   9.306  11.310   5.464
67339SOL    HW2 3851   9.211  11.367   5.568
67340SOL     OW 3852   6.576   6.899   0.296
67340SOL    HW1 3853   6.573   6.878   0.203
67340SOL    HW2 3854   6.669   6.916   0.313
67341SOL     OW 3855   5.502   9.027  12.042
67341SOL    HW1 3856   5.528   9.110  12.004
67341SOL    HW2 3857   5.563   9.014  12.116
67342SOL     OW 3858   0.216   8.084   5.707
67342SOL    HW1 3859   0.311   8.071   5.705
67342SOL    HW2 3860   0.188   8.040   5.787
67343SOL     OW 3861  12.123  11.797   4.786
67343SOL    HW1 3862  12.069  11.723   4.813
67343SOL    HW2 3863  12.206  11.758   4.758
67344SOL     OW 3864  13.640   4.567   3.505
67344SOL    HW1 3865  13.735   4.552   3.509
67344SOL    HW2 3866  13.603   4.499   3.562
67345SOL     OW 3867   5.896  11.363   5.610
67345SOL    HW1 3868   5.844  11.322   5.679
67345SOL    HW2 3869   5.902  11.296   5.542
67346SOL     OW 3870   5.281  10.403   2.093
67346SOL    HW1 3871   5.326  10.338   2.038
67346SOL    HW2 3872   5.352  10.447   2.141
67347SOL     OW 3873   7.664  12.698   0.388
67347SOL    HW1 3874   7.637  12.700   0.296
67347SOL    HW2 3875   7.707  12.782   0.402
67348SOL     OW 3876   9.136   8.261   5.277
67348SOL    HW1 3877   9.112   8.348   5.310
67348SOL    HW2 3878   9.092   8.200   5.336
67349SOL     OW 3879  12.153   0.671   8.973
67349SOL    HW1 3880  12.208   0.737   9.015
67349SOL    HW2 3881  12.202   0.590   8.981
67350SOL     OW 3882   7.070   9.404  14.611
67350SOL    HW1 3883   7.105   9.320  14.583
67350SOL    HW2 3884   7.031   9.386  14.696
67351SOL     OW 3885   5.059   5.497   5.108
67351SOL    HW1 3886   4.983   5.455   5.067
67351SOL    HW2 3887   5.134   5.447   5.077
67352SOL     OW 3888   3.214  12.863   2.415
67352SOL    HW1 3889   3.276  12.890   2.347
67352SOL    HW2 3890   3.261  12.876   2.497
67353SOL     OW 3891  12.459  11.417   2.983
67353SOL    HW1 3892  12.546  11.457   2.988
67353SOL    HW2 3893  12.417  11.442   3.065
67354SOL     OW 3894   0.079   0.602   1.578
67354SOL    HW1 3895   0.054   0.673   1.637
67354SOL    HW2 3896   0.084   0.642   1.492
67355SOL     OW 3897   2.521   2.273   3.109
67355SOL    HW1 3898   2.538   2.366   3.094
67355SOL    HW2 3899   2.447   2.253   3.053
67356SOL     OW 3900   1.026   1.178  10.786
67356SOL    HW1 3901   0.973   1.223  10.852
67356SOL    HW2 3902   0.962   1.142  10.724
67357SOL     OW 3903  10.205   9.191  13.523
67357SOL    HW1 3904  10.290   9.146  13.529
67357SOL    HW2 3905  10.150   9.132  13.472
67358SOL     OW 3906  10.585  13.024   5.719
67358SOL    HW1 3907  10.585  12.997   5.810
67358SOL    HW2 3908  10.584  12.942   5.669
67359SOL     OW 3909   7.921  11.621   5.892
67359SOL    HW1 3910   7.947  11.668   5.813
67359SOL    HW2 3911   7.936  11.529   5.870
67360SOL     OW 3912   2.083   3.961   9.053
67360SOL    HW1 3913   2.149   3.914   9.104
67360SOL    HW2 3914   2.130   3.994   8.976
67361SOL     OW 3915   6.838  11.076  12.381
67361SOL    HW1 3916   6.930  11.071  12.408
67361SOL    HW2 3917   6.812  10.984  12.370
67362SOL     OW 3918   3.973  14.075   7.297
67362SOL    HW1 3919   4.068  14.068   7.308
67362SOL    HW2 3920   3.948  14.148   7.353
67363SOL     OW 3921  13.572   7.605   1.602
67363SOL    HW1 3922  13.541   7.691   1.573
67363SOL    HW2 3923  13.616   7.623   1.685
67364SOL     OW 3924   2.308   3.817   4.776
67364SOL    HW1 3925   2.348   3.903   4.770
67364SOL    HW2 3926   2.239   3.827   4.842
67365SOL     OW 3927   8.985  13.404   4.064
67365SOL    HW1 3928   8.910  13.453   4.098
67365SOL    HW2 3929   8.950  13.355   3.990
67366SOL     OW 3930  11.020  14.436  11.142
67366SOL    HW1 3931  11.012  14.375  11.216
67366SOL    HW2 3932  11.114  14.455  11.138
67367SOL     OW 3933  13.499   7.811   4.424
67367SOL    HW1 3934  13.449   7.753   4.481
67367SOL    HW2 3935  13.563   7.852   4.482
67368SOL     OW 3936  10.060  10.766   6.630
67368SOL    HW1 3937  10.140  10.814   6.655
67368SOL    HW2 3938  10.001  10.779   6.704
67369SOL     OW 3939  10.824   3.171  14.384
67369SOL    HW1 3940  10.730   3.178  14.365
67369SOL    HW2 3941  10.865   3.235  14.325
67370SOL     OW 3942   2.868  12.102   4.633
67370SOL    HW1 3943   2.820  12.183   4.652
67370SOL    HW2 3944   2.916  12.084   4.713
67371SOL     OW 3945   2.151   3.648   9.366
67371SOL    HW1 3946   2.086   3.647   9.296
67371SOL    HW2 3947   2.138   3.732   9.410
67372SOL     OW 3948  10.368   5.836   1.689
67372SOL    HW1 3949  10.391   5.869   1.602
67372SOL    HW2 3950  10.391   5.743   1.685
67373SOL     OW 3951   4.770  12.423   1.305
67373SOL    HW1 3952   4.698  12.377   1.261
67373SOL    HW2 3953   4.849  12.376   1.278
67374SOL     OW 3954   9.771   2.465  13.858
67374SOL    HW1 3955   9.683   2.440  13.886
67374SOL    HW2 3956   9.802   2.524  13.926
67375SOL     OW 3957   2.953   3.259   0.811
67375SOL    HW1 3958   2.945   3.167   0.787
67375SOL    HW2 3959   2.899   3.269   0.889
67376SOL     OW 3960   4.308   6.783   7.381
67376SOL    HW1 3961   4.240   6.849   7.372
67376SOL    HW2 3962   4.378   6.827   7.430
67377SOL     OW 3963  12.439   1.417  10.731
67377SOL    HW1 3964  12.443   1.404  10.825
67377SOL    HW2 3965  12.526   1.394  10.699
67378SOL     OW 3966  11.218   7.186  12.897
67378SOL    HW1 3967  11.159   7.114  12.877
67378SOL    HW2 3968  11.259   7.162  12.980
67379SOL     OW 3969   2.764   7.266   8.243
67379SOL    HW1 3970   2.808   7.212   8.308
67379SOL    HW2 3971   2.772   7.355   8.276
67380SOL     OW 3972  11.160   8.570   7.474
67380SOL    HW1 3973  11.220   8.513   7.522
67380SOL    HW2 3974  11.075   8.555   7.515
67381SOL     OW 3975   3.869  10.657   7.149
67381SOL    HW1 3976   3.959  10.627   7.134
67381SOL    HW2 3977   3.844  10.616   7.232
67382SOL     OW 3978   1.865   0.376   3.657
67382SOL    HW1 3979   1.804   0.302   3.663
67382SOL    HW2 3980   1.837   0.423   3.579
67383SOL     OW 3981   5.764   1.545   6.388
67383SOL    HW1 3982   5.783   1.498   6.469
67383SOL    HW2 3983   5.701   1.488   6.342
67384SOL     OW 3984   6.956  11.552   5.364
67384SOL    HW1 3985   6.958  11.647   5.354
67384SOL    HW2 3986   6.872  11.535   5.408
67385SOL     OW 3987  11.199   2.778   5.310
67385SOL    HW1 3988  11.248   2.709   5.357
67385SOL    HW2 3989  11.109   2.745   5.306
67386SOL     OW 3990   8.193  11.742  10.918
67386SOL    HW1 3991   8.167  11.833  10.927
67386SOL    HW2 3992   8.267  11.744  10.857
67387SOL     OW 3993  10.112   9.094   8.436
67387SOL    HW1 3994  10.026   9.108   8.475
67387SOL    HW2 3995  10.131   9.002   8.453
67388SOL     OW 3996  11.681  11.261  12.557
67388SOL    HW1 3997  11.694  11.187  12.498
67388SOL    HW2 3998  11.624  11.227  12.626
67389SOL     OW 3999   8.508   8.476   2.492
67389SOL    HW1 4000   8.479   8.455   2.403
67389SOL    HW2 4001   8.443   8.540   2.523
67390SOL     OW 4002  12.715   5.565  14.475
67390SOL    HW1 4003  12.780   5.498  14.453
67390SOL    HW2 4004  12.767   5.638  14.509
67391SOL     OW 4005   8.025  13.379   8.603
67391SOL    HW1 4006   7.995  13.368   8.693
67391SOL    HW2 4007   7.958  13.336   8.550
67392SOL     OW 4008   8.978  10.057   6.669
67392SOL    HW1 4009   8.985  10.121   6.740
67392SOL    HW2 4010   8.936   9.981   6.710
67393SOL     OW 4011   7.726  10.151   3.858
67393SOL    HW1 4012   7.642  10.161   3.812
67393SOL    HW2 4013   7.703  10.159   3.951
67394SOL     OW 4014   5.952   9.812   5.480
67394SOL    HW1 4015   5.962   9.872   5.406
67394SOL    HW2 4016   5.981   9.862   5.556
67395SOL     OW 4017   3.747   2.617   6.613
67395SOL    HW1 4018   3.664   2.589   6.574
67395SOL    HW2 4019   3.720   2.676   6.685
67396SOL     OW 4020  10.815  12.643   4.139
67396SOL    HW1 4021  10.851  12.571   4.088
67396SOL    HW2 4022  10.849  12.629   4.228
67397SOL     OW 4023   5.552   7.210   9.130
67397SOL    HW1 4024   5.553   7.283   9.067
67397SOL    HW2 4025   5.557   7.253   9.215
67398SOL     OW 4026   0.540  10.070   1.880
67398SOL    HW1 4027   0.590  10.113   1.948
67398SOL    HW2 4028   0.451  10.065   1.914
67399SOL     OW 4029   7.925   9.441   2.320
67399SOL    HW1 4030   7.891   9.380   2.386
67399SOL    HW2 4031   7.851   9.495   2.296
67400SOL     OW 4032  10.786   9.808   4.299
67400SOL    HW1 4033  10.709   9.864   4.308
67400SOL    HW2 4034  10.787   9.755   4.379
67401SOL     OW 4035   2.349   9.285  13.559
67401SOL    HW1 4036   2.407   9.211  13.544
67401SOL    HW2 4037   2.357   9.338  13.479
67402SOL     OW 4038   9.255   0.297   7.360
67402SOL    HW1 4039   9.298   0.214   7.336
67402SOL    HW2 4040   9.243   0.342   7.276
67403SOL     OW 4041  11.312   7.662   9.544
67403SOL    HW1 4042  11.286   7.578   9.583
67403SOL    HW2 4043  11.229   7.710   9.533
67404SOL     OW 4044  14.290  14.403   5.113
67404SOL    HW1 4045  14.307  14.497   5.117
67404SOL    HW2 4046  14.198  14.395   5.137
67405SOL     OW 4047  11.960   6.631   9.804
67405SOL    HW1 4048  12.003   6.554   9.767
67405SOL    HW2 4049  11.926   6.678   9.728
67406SOL     OW 4050   9.015   4.569   6.380
67406SOL    HW1 4051   9.058   4.639   6.429
67406SOL    HW2 4052   9.058   4.571   6.294
67407SOL     OW 4053   7.431   8.656   0.741
67407SOL    HW1 4054   7.437   8.710   0.820
67407SOL    HW2 4055   7.441   8.718   0.669
67408SOL     OW 4056   4.156   8.947   5.070
67408SOL    HW1 4057   4.067   8.912   5.061
67408SOL    HW2 4058   4.170   9.000   4.992
67409SOL     OW 4059   2.529   0.244  14.428
67409SOL    HW1 4060   2.496   0.334  14.439
67409SOL    HW2 4061   2.562   0.243  14.338
67410SOL     OW 4062   7.691   2.681   8.513
67410SOL    HW1 4063   7.654   2.653   8.596
67410SOL    HW2 4064   7.619   2.671   8.450
67411SOL     OW 4065   9.986   1.708  11.339
67411SOL    HW1 4066   9.931   1.752  11.404
67411SOL    HW2 4067   9.960   1.616  11.345
67412SOL     OW 4068   2.471   7.992   6.272
67412SOL    HW1 4069   2.468   8.075   6.320
67412SOL    HW2 4070   2.385   7.987   6.229
67413SOL     OW 4071   0.727  14.569  10.211
67413SOL    HW1 4072   0.719  14.559  10.306
67413SOL    HW2 4073   0.642  14.606  10.184
67414SOL     OW 4074  11.755   5.636   4.319
67414SOL    HW1 4075  11.779   5.544   4.307
67414SOL    HW2 4076  11.820   5.684   4.268
67415SOL     OW 4077   0.509   1.911   4.036
67415SOL    HW1 4078   0.574   1.948   4.096
67415SOL    HW2 4079   0.500   1.977   3.967
67416SOL     OW 4080   5.773   7.558   8.240
67416SOL    HW1 4081   5.718   7.488   8.275
67416SOL    HW2 4082   5.860   7.540   8.275
67417SOL     OW 4083   2.254   0.559   7.009
67417SOL    HW1 4084   2.265   0.502   7.085
67417SOL    HW2 4085   2.296   0.641   7.035
67418SOL     OW 4086  12.919   8.660   5.534
67418SOL    HW1 4087  12.952   8.688   5.448
67418SOL    HW2 4088  12.825   8.680   5.531
67419SOL     OW 4089   4.676   2.345  10.971
67419SOL    HW1 4090   4.691   2.328  11.064
67419SOL    HW2 4091   4.649   2.261  10.935
67420SOL     OW 4092  11.941   1.742   5.625
67420SOL    HW1 4093  11.941   1.722   5.531
67420SOL    HW2 4094  11.994   1.822   5.632
67421SOL     OW 4095   7.598   2.730  12.313
67421SOL    HW1 4096   7.692   2.746  12.321
67421SOL    HW2 4097   7.568   2.715  12.403
67422SOL     OW 4098   3.200   6.168  13.543
67422SOL    HW1 4099   3.179   6.255  13.510
67422SOL    HW2 4100   3.268   6.184  13.609
67423SOL     OW 4101   2.426   1.039   2.977
67423SOL    HW1 4102   2.331   1.024   2.983
67423SOL    HW2 4103   2.464   0.952   2.993
67424SOL     OW 4104   7.272   3.042   4.174
67424SOL    HW1 4105   7.337   3.094   4.127
67424SOL    HW2 4106   7.276   2.956   4.131
67425SOL     OW 4107  10.305   7.740  14.834
67425SOL    HW1 4108  10.221   7.699  14.811
67425SOL    HW2 4109  10.367   7.707  14.768
67426SOL     OW 4110   7.702   7.094  11.301
67426SOL    HW1 4111   7.673   7.004  11.314
67426SOL    HW2 4112   7.663   7.143  11.373
67427SOL     OW 4113  11.680   5.313   6.274
67427SOL    HW1 4114  11.656   5.233   6.320
67427SOL    HW2 4115  11.723   5.367   6.341
67428SOL     OW 4116  12.587  13.726  12.426
67428SOL    HW1 4117  12.567  13.732  12.332
67428SOL    HW2 4118  12.666  13.779  12.437
67429SOL     OW 4119   7.182   5.672  13.248
67429SOL    HW1 4120   7.191   5.640  13.158
67429SOL    HW2 4121   7.090   5.662  13.268
67430SOL     OW 4122   7.174   1.872  10.096
67430SOL    HW1 4123   7.202   1.814  10.025
67430SOL    HW2 4124   7.198   1.960  10.067
67431SOL     OW 4125  14.757   7.952   8.438
67431SOL    HW1 4126  14.807   7.994   8.508
67431SOL    HW2 4127  14.704   8.022   8.400
67432SOL     OW 4128   4.841  13.262  13.164
67432SOL    HW1 4129   4.755  13.232  13.194
67432SOL    HW2 4130   4.824  13.350  13.129
67433SOL     OW 4131  12.619   6.903   9.100
67433SOL    HW1 4132  12.584   6.844   9.168
67433SOL    HW2 4133  12.698   6.859   9.069
67434SOL     OW 4134  13.804   6.262   5.243
67434SOL    HW1 4135  13.723   6.295   5.282
67434SOL    HW2 4136  13.867   6.261   5.315
67435SOL     OW 4137  13.195   9.524   6.797
67435SOL    HW1 4138  13.245   9.470   6.858
67435SOL    HW2 4139  13.224   9.497   6.710
67436SOL     OW 4140   1.678   4.118   8.792
67436SOL    HW1 4141   1.686   4.189   8.855
67436SOL    HW2 4142   1.761   4.117   8.745
67437SOL     OW 4143   2.229  10.088   3.990
67437SOL    HW1 4144   2.275  10.012   3.954
67437SOL    HW2 4145   2.223  10.071   4.084
67438SOL     OW 4146   3.087   8.071  13.902
67438SOL    HW1 4147   3.059   8.105  13.987
67438SOL    HW2 4148   3.167   8.022  13.921
67439SOL     OW 4149  14.131   0.822   9.324
67439SOL    HW1 4150  14.080   0.801   9.402
67439SOL    HW2 4151  14.178   0.902   9.348
67440SOL     OW 4152   9.027   5.024   2.194
67440SOL    HW1 4153   9.067   4.951   2.241
67440SOL    HW2 4154   9.032   4.999   2.102
67441SOL     OW 4155   6.494  13.870   8.449
67441SOL    HW1 4156   6.479  13.876   8.355
67441SOL    HW2 4157   6.588  13.881   8.460
67442SOL     OW 4158  11.994   5.906   9.329
67442SOL    HW1 4159  11.906   5.877   9.356
67442SOL    HW2 4160  12.006   5.867   9.242
67443SOL     OW 4161  14.570  10.834  12.075
67443SOL    HW1 4162  14.528  10.908  12.118
67443SOL    HW2 4163  14.663  10.857  12.076
67444SOL     OW 4164  10.021  12.918   6.069
67444SOL    HW1 4165  10.021  12.829   6.033
67444SOL    HW2 4166   9.998  12.907   6.162
67445SOL     OW 4167   4.689   1.561  10.715
67445SOL    HW1 4168   4.767   1.585  10.665
67445SOL    HW2 4169   4.722   1.509  10.788
67446SOL     OW 4170   6.608  10.075   5.077
67446SOL    HW1 4171   6.552  10.116   5.143
67446SOL    HW2 4172   6.570   9.988   5.065
67447SOL     OW 4173   1.687   0.795   6.193
67447SOL    HW1 4174   1.763   0.853   6.197
67447SOL    HW2 4175   1.653   0.794   6.282
67448SOL     OW 4176   2.326   9.226   6.758
67448SOL    HW1 4177   2.361   9.162   6.697
67448SOL    HW2 4178   2.236   9.197   6.775
67449SOL     OW 4179   8.311   5.268   5.988
67449SOL    HW1 4180   8.338   5.360   5.976
67449SOL    HW2 4181   8.242   5.272   6.054
67450SOL     OW 4182  10.638   8.250  14.803
67450SOL    HW1 4183  10.670   8.218  14.718
67450SOL    HW2 4184  10.656   8.344  14.801
67451SOL     OW 4185  14.585   0.374   9.625
67451SOL    HW1 4186  14.530   0.379   9.548
67451SOL    HW2 4187  14.589   0.464   9.658
67452SOL     OW 4188   3.520  11.610   2.409
67452SOL    HW1 4189   3.509  11.525   2.364
67452SOL    HW2 4190   3.607  11.606   2.447
67453SOL     OW 4191   3.186  10.771  10.065
67453SOL    HW1 4192   3.177  10.677  10.083
67453SOL    HW2 4193   3.162  10.813  10.147
67454SOL     OW 4194   6.187   4.275   4.430
67454SOL    HW1 4195   6.233   4.277   4.346
67454SOL    HW2 4196   6.206   4.360   4.470
67455SOL     OW 4197   7.463  11.627   3.651
67455SOL    HW1 4198   7.514  11.584   3.583
67455SOL    HW2 4199   7.373  11.627   3.618
67456SOL     OW 4200   9.972   2.109   0.386
67456SOL    HW1 4201   9.964   2.172   0.314
67456SOL    HW2 4202   9.982   2.163   0.464
67457SOL     OW 4203  14.043  10.689   0.948
67457SOL    HW1 4204  14.048  10.779   0.980
67457SOL    HW2 4205  14.048  10.696   0.853
67458SOL     OW 4206   3.661   1.067  13.174
67458SOL    HW1 4207   3.689   1.153  13.203
67458SOL    HW2 4208   3.568   1.063  13.194
67459SOL     OW 4209   3.151  13.572   3.631
67459SOL    HW1 4210   3.100  13.514   3.574
67459SOL    HW2 4211   3.137  13.537   3.719
67460SOL     OW 4212  14.122   7.990   3.635
67460SOL    HW1 4213  14.124   7.907   3.683
67460SOL    HW2 4214  14.201   8.036   3.663
67461SOL     OW 4215   0.887   8.279   6.834
67461SOL    HW1 4216   0.793   8.262   6.837
67461SOL    HW2 4217   0.926   8.196   6.805
67462SOL     OW 4218  12.791   1.131   1.184
67462SOL    HW1 4219  12.720   1.189   1.158
67462SOL    HW2 4220  12.773   1.049   1.138
67463SOL     OW 4221   9.753   7.237  11.811
67463SOL    HW1 4222   9.764   7.323  11.854
67463SOL    HW2 4223   9.661   7.216  11.825
67464SOL     OW 4224  14.078  13.966  10.886
67464SOL    HW1 4225  14.145  13.921  10.936
67464SOL    HW2 4226  14.108  13.963  10.796
67465SOL     OW 4227   2.664  14.380  10.709
67465SOL    HW1 4228   2.615  14.434  10.648
67465SOL    HW2 4229   2.602  14.363  10.781
67466SOL     OW 4230   3.559   3.684   1.574
67466SOL    HW1 4231   3.541   3.621   1.504
67466SOL    HW2 4232   3.607   3.755   1.532
67467SOL     OW 4233   1.928   6.470   1.514
67467SOL    HW1 4234   1.958   6.506   1.430
67467SOL    HW2 4235   1.987   6.508   1.579
67468SOL     OW 4236   9.518  11.626   8.556
67468SOL    HW1 4237   9.456  11.569   8.601
67468SOL    HW2 4238   9.502  11.712   8.594
67469SOL     OW 4239   5.228   9.318   2.218
67469SOL    HW1 4240   5.150   9.319   2.273
67469SOL    HW2 4241   5.200   9.355   2.135
67470SOL     OW 4242   2.459   4.109   1.271
67470SOL    HW1 4243   2.384   4.130   1.215
67470SOL    HW2 4244   2.435   4.144   1.357
67471SOL     OW 4245  10.892  13.015   6.362
67471SOL    HW1 4246  10.916  12.923   6.355
67471SOL    HW2 4247  10.806  13.015   6.405
67472SOL     OW 4248   1.649   1.592   1.273
67472SOL    HW1 4249   1.586   1.627   1.210
67472SOL    HW2 4250   1.595   1.550   1.341
67473SOL     OW 4251   4.414  14.011  13.631
67473SOL    HW1 4252   4.324  13.980  13.620
67473SOL    HW2 4253   4.453  13.948  13.692
67474SOL     OW 4254   8.456   3.845   7.257
67474SOL    HW1 4255   8.450   3.919   7.197
67474SOL    HW2 4256   8.466   3.769   7.201
67475SOL     OW 4257  11.647   4.334   9.916
67475SOL    HW1 4258  11.613   4.424   9.920
67475SOL    HW2 4259  11.726   4.336   9.971
67476SOL     OW 4260   9.212   0.382  11.289
67476SOL    HW1 4261   9.236   0.312  11.349
67476SOL    HW2 4262   9.278   0.379  11.220
67477SOL     OW 4263   7.702  11.158  12.580
67477SOL    HW1 4264   7.663  11.223  12.638
67477SOL    HW2 4265   7.795  11.181  12.577
67478SOL     OW 4266  10.452  11.060   6.083
67478SOL    HW1 4267  10.415  10.998   6.146
67478SOL    HW2 4268  10.483  11.133   6.137
67479SOL     OW 4269  11.416   9.551   1.032
67479SOL    HW1 4270  11.403   9.544   0.938
67479SOL    HW2 4271  11.479   9.483   1.054
67480SOL     OW 4272  10.983  13.756   4.901
67480SOL    HW1 4273  11.078  13.749   4.898
67480SOL    HW2 4274  10.956  13.690   4.965
67481SOL     OW 4275   8.618   4.733   1.448
67481SOL    HW1 4276   8.553   4.753   1.380
67481SOL    HW2 4277   8.695   4.706   1.399
67482SOL     OW 4278   3.337   7.702   5.657
67482SOL    HW1 4279   3.344   7.662   5.570
67482SOL    HW2 4280   3.344   7.796   5.641
67483SOL     OW 4281   9.650   5.806  12.150
67483SOL    HW1 4282   9.689   5.892  12.164
67483SOL    HW2 4283   9.676   5.754  12.226
67484SOL     OW 4284   3.485   9.480  13.801
67484SOL    HW1 4285   3.465   9.573  13.801
67484SOL    HW2 4286   3.491   9.456  13.893
67485SOL     OW 4287  12.738   1.922   5.498
67485SOL    HW1 4288  12.748   1.912   5.404
67485SOL    HW2 4289  12.828   1.925   5.532
67486SOL     OW 4290   8.694   0.263   8.805
67486SOL    HW1 4291   8.713   0.355   8.822
67486SOL    HW2 4292   8.777   0.218   8.821
67487SOL     OW 4293  13.142  12.785   3.292
67487SOL    HW1 4294  13.093  12.717   3.339
67487SOL    HW2 4295  13.168  12.744   3.210
67488SOL     OW 4296   4.213  11.434  11.143
67488SOL    HW1 4297   4.137  11.429  11.201
67488SOL    HW2 4298   4.203  11.518  11.098
67489SOL     OW 4299  11.630   8.418   6.866
67489SOL    HW1 4300  11.548   8.421   6.817
67489SOL    HW2 4301  11.697   8.440   6.802
67490SOL     OW 4302   1.098   1.299  10.018
67490SOL    HW1 4303   1.145   1.381  10.033
67490SOL    HW2 4304   1.139   1.262   9.939
67491SOL     OW 4305   6.580  12.044   6.771
67491SOL    HW1 4306   6.660  12.007   6.732
67491SOL    HW2 4307   6.512  12.028   6.705
67492SOL     OW 4308   8.188   9.600   4.346
67492SOL    HW1 4309   8.111   9.548   4.322
67492SOL    HW2 4310   8.188   9.602   4.441
67493SOL     OW 4311   4.072  10.508   5.063
67493SOL    HW1 4312   4.137  10.572   5.034
67493SOL    HW2 4313   4.003  10.512   4.997
67494SOL     OW 4314   1.316  11.686  13.892
67494SOL    HW1 4315   1.275  11.773  13.890
67494SOL    HW2 4316   1.361  11.678  13.808
67495SOL     OW 4317   5.990  14.500   3.494
67495SOL    HW1 4318   5.934  14.442   3.546
67495SOL    HW2 4319   6.019  14.446   3.421
67496SOL     OW 4320   1.633   2.669  12.672
67496SOL    HW1 4321   1.700   2.713  12.724
67496SOL    HW2 4322   1.676   2.590  12.640
67497SOL     OW 4323  14.411   4.527   8.389
67497SOL    HW1 4324  14.372   4.579   8.319
67497SOL    HW2 4325  14.366   4.556   8.468
67498SOL     OW 4326  13.968   6.322   1.164
67498SOL    HW1 4327  13.939   6.251   1.108
67498SOL    HW2 4328  13.926   6.304   1.249
67499SOL     OW 4329  10.832  12.266  12.974
67499SOL    HW1 4330  10.895  12.195  12.974
67499SOL    HW2 4331  10.751  12.227  12.940
67500SOL     OW 4332   7.320   0.527  10.567
67500SOL    HW1 4333   7.276   0.445  10.586
67500SOL    HW2 4334   7.392   0.531  10.630
67501SOL     OW 4335   8.285   5.904   4.433
67501SOL    HW1 4336   8.197   5.911   4.468
67501SOL    HW2 4337   8.293   5.812   4.408
67502SOL     OW 4338   6.899   4.095   7.750
67502SOL    HW1 4339   6.860   4.068   7.832
67502SOL    HW2 4340   6.984   4.131   7.774
67503SOL     OW 4341  12.429   9.240  12.641
67503SOL    HW1 4342  12.448   9.193  12.722
67503SOL    HW2 4343  12.333   9.243  12.637
67504SOL     OW 4344   2.043   8.926   9.039
67504SOL    HW1 4345   2.017   8.965   9.123
67504SOL    HW2 4346   2.020   8.992   8.974
67505SOL     OW 4347   2.968   4.914  10.048
67505SOL    HW1 4348   3.006   4.921   9.960
67505SOL    HW2 4349   3.043   4.898  10.105
67506SOL     OW 4350  10.705   4.765   4.329
67506SOL    HW1 4351  10.677   4.766   4.420
67506SOL    HW2 4352  10.623   4.765   4.279
67507SOL     OW 4353   7.779   9.477   1.201
67507SOL    HW1 4354   7.758   9.568   1.221
67507SOL    HW2 4355   7.851   9.456   1.260
67508SOL     OW 4356  14.019  13.554  13.795
67508SOL    HW1 4357  14.019  13.608  13.874
67508SOL    HW2 4358  14.065  13.473  13.821
67509SOL     OW 4359   5.568  10.385   7.917
67509SOL    HW1 4360   5.609  10.467   7.945
67509SOL    HW2 4361   5.501  10.368   7.983
67510SOL     OW 4362  10.066  12.433  12.318
67510SOL    HW1 4363  10.152  12.471  12.303
67510SOL    HW2 4364  10.069  12.400  12.408
67511SOL     OW 4365   9.615  11.702   6.059
67511SOL    HW1 4366   9.578  11.785   6.028
67511SOL    HW2 4367   9.573  11.687   6.143
67512SOL     OW 4368  11.029   4.860   0.797
67512SOL    HW1 4369  11.002   4.899   0.880
67512SOL    HW2 4370  10.995   4.771   0.799
67513SOL     OW 4371  14.539  13.562   1.069
67513SOL    HW1 4372  14.598  13.626   1.030
67513SOL    HW2 4373  14.496  13.609   1.141
67514SOL     OW 4374   4.989   7.519   4.713
67514SOL    HW1 4375   4.937   7.515   4.793
67514SOL    HW2 4376   5.002   7.613   4.697
67515SOL     OW 4377   0.693  14.077   9.576
67515SOL    HW1 4378   0.721  14.001   9.629
67515SOL    HW2 4379   0.604  14.055   9.549
67516SOL     OW 4380   1.269   4.832   1.821
67516SOL    HW1 4381   1.313   4.877   1.749
67516SOL    HW2 4382   1.209   4.771   1.778
67517SOL     OW 4383  12.392   4.343  14.523
67517SOL    HW1 4384  12.404   4.255  14.559
67517SOL    HW2 4385  12.334   4.386  14.586
67518SOL     OW 4386   2.373  12.373  13.516
67518SOL    HW1 4387   2.340  12.300  13.463
67518SOL    HW2 4388   2.432  12.332  13.579
67519SOL     OW 4389   1.815  11.244   2.354
67519SOL    HW1 4390   1.747  11.191   2.311
67519SOL    HW2 4391   1.836  11.195   2.434
67520SOL     OW 4392  11.763   1.932   3.744
67520SOL    HW1 4393  11.747   1.974   3.660
67520SOL    HW2 4394  11.696   1.864   3.750
67521SOL     OW 4395   9.505   7.985  10.830
67521SOL    HW1 4396   9.560   7.948  10.899
67521SOL    HW2 4397   9.416   7.961  10.855
67522SOL     OW 4398   2.664   2.756   8.368
67522SOL    HW1 4399   2.652   2.772   8.462
67522SOL    HW2 4400   2.758   2.743   8.358
67523SOL     OW 4401  12.807   7.207  12.100
67523SOL    HW1 4402  12.825   7.254  12.182
67523SOL    HW2 4403  12.881   7.231  12.043
67524SOL     OW 4404  11.105   3.556  13.602
67524SOL    HW1 4405  11.100   3.503  13.523
67524SOL    HW2 4406  11.015   3.584  13.619
67525SOL     OW 4407   2.104  11.069   4.733
67525SOL    HW1 4408   2.173  11.008   4.707
67525SOL    HW2 4409   2.109  11.140   4.669
67526SOL     OW 4410  12.644   7.135   2.424
67526SOL    HW1 4411  12.625   7.093   2.340
67526SOL    HW2 4412  12.610   7.224   2.414
67527SOL     OW 4413   9.933   0.049   0.881
67527SOL    HW1 4414   9.885   0.027   0.801
67527SOL    HW2 4415   9.912  14.856   0.941
67528SOL     OW 4416   6.778  13.975   5.750
67528SOL    HW1 4417   6.825  14.050   5.785
67528SOL    HW2 4418   6.833  13.944   5.678
67529SOL     OW 4419  13.424   6.599   6.031
67529SOL    HW1 4420  13.424   6.512   5.992
67529SOL    HW2 4421  13.339   6.637   6.009
67530SOL     OW 4422  10.425  14.721   8.642
67530SOL    HW1 4423  10.435  14.806   8.683
67530SOL    HW2 4424  10.508  14.705   8.597
67531SOL     OW 4425  14.266   0.515   3.417
67531SOL    HW1 4426  14.272   0.472   3.503
67531SOL    HW2 4427  14.345   0.570   3.413
67532SOL     OW 4428   2.279  14.538  11.427
67532SOL    HW1 4429   2.299  14.445  11.425
67532SOL    HW2 4430   2.344  14.575  11.487
67533SOL     OW 4431  13.989   2.345   4.244
67533SOL    HW1 4432  13.987   2.326   4.151
67533SOL    HW2 4433  14.036   2.271   4.283
67534SOL     OW 4434  11.504   0.655   0.554
67534SOL    HW1 4435  11.568   0.585   0.538
67534SOL    HW2 4436  11.496   0.658   0.650
67535SOL     OW 4437  11.469   2.554   9.518
67535SOL    HW1 4438  11.511   2.563   9.433
67535SOL    HW2 4439  11.537   2.517   9.575
67536SOL     OW 4440   4.152   7.178  14.789
67536SOL    HW1 4441   4.245   7.170  14.767
67536SOL    HW2 4442   4.124   7.089  14.808
67537SOL     OW 4443  11.685   1.654   0.409
67537SOL    HW1 4444  11.625   1.592   0.450
67537SOL    HW2 4445  11.651   1.665   0.320
67538SOL     OW 4446   2.477   2.381   3.499
67538SOL    HW1 4447   2.571   2.368   3.512
67538SOL    HW2 4448   2.437   2.347   3.578
67539SOL     OW 4449   3.492   2.246   7.813
67539SOL    HW1 4450   3.516   2.158   7.843
67539SOL    HW2 4451   3.489   2.299   7.893
67540SOL     OW 4452   6.518   4.190   3.894
67540SOL    HW1 4453   6.485   4.226   3.811
67540SOL    HW2 4454   6.512   4.263   3.955
67541SOL     OW 4455   3.493   0.073  10.828
67541SOL    HW1 4456   3.542   0.100  10.905
67541SOL    HW2 4457   3.500   0.146  10.767
67542SOL     OW 4458   1.840   1.500   8.437
67542SOL    HW1 4459   1.753   1.529   8.409
67542SOL    HW2 4460   1.833   1.495   8.532
67543SOL     OW 4461  14.292   7.412  11.789
67543SOL    HW1 4462  14.199   7.391  11.795
67543SOL    HW2 4463  14.337   7.333  11.817
67544SOL     OW 4464   7.620  11.747  13.044
67544SOL    HW1 4465   7.572  11.830  13.040
67544SOL    HW2 4466   7.649  11.741  13.135
67545SOL     OW 4467   4.027   2.401   9.258
67545SOL    HW1 4468   3.969   2.333   9.292
67545SOL    HW2 4469   4.056   2.368   9.173
67546SOL     OW 4470   9.133   8.543   2.861
67546SOL    HW1 4471   9.213   8.564   2.813
67546SOL    HW2 4472   9.153   8.567   2.952
67547SOL     OW 4473   4.650  14.050   9.450
67547SOL    HW1 4474   4.674  14.097   9.530
67547SOL    HW2 4475   4.581  14.104   9.410
67548SOL     OW 4476   4.076   3.670   8.040
67548SOL    HW1 4477   4.105   3.642   7.953
67548SOL    HW2 4478   4.154   3.664   8.094
67549SOL     OW 4479   2.925   1.619   7.288
67549SOL    HW1 4480   2.910   1.704   7.328
67549SOL    HW2 4481   2.880   1.557   7.345
67550SOL     OW 4482   4.995   6.454   9.535
67550SOL    HW1 4483   5.070   6.416   9.581
67550SOL    HW2 4484   5.034   6.509   9.467
67551SOL     OW 4485   2.500  10.378  11.180
67551SOL    HW1 4486   2.557  10.376  11.257
67551SOL    HW2 4487   2.536  10.448  11.125
67552SOL     OW 4488   2.985   0.868   7.817
67552SOL    HW1 4489   3.075   0.876   7.849
67552SOL    HW2 4490   2.993   0.850   7.724
67553SOL     OW 4491   4.776   4.610   1.699
67553SOL    HW1 4492   4.827   4.688   1.719
67553SOL    HW2 4493   4.750   4.620   1.607
67554SOL     OW 4494   4.722  12.334   9.717
67554SOL    HW1 4495   4.764  12.404   9.768
67554SOL    HW2 4496   4.792  12.270   9.704
67555SOL     OW 4497   3.145   6.876   6.084
67555SOL    HW1 4498   3.162   6.870   5.990
67555SOL    HW2 4499   3.119   6.787   6.109
67556SOL     OW 4500   8.903  10.612  13.942
67556SOL    HW1 4501   8.952  10.615  13.860
67556SOL    HW2 4502   8.820  10.654  13.922
67557SOL     OW 4503   4.032  12.586   0.051
67557SOL    HW1 4504   4.023  12.495   0.081
67557SOL    HW2 4505   3.962  12.633   0.097
67558SOL     OW 4506   8.578   6.940   4.322
67558SOL    HW1 4507   8.617   6.920   4.408
67558SOL    HW2 4508   8.543   7.029   4.332
67559SOL     OW 4509   6.043   3.389   0.591
67559SOL    HW1 4510   6.014   3.462   0.647
67559SOL    HW2 4511   6.127   3.418   0.556
67560SOL     OW 4512   7.511  14.410   8.188
67560SOL    HW1 4513   7.470  14.472   8.127
67560SOL    HW2 4514   7.601  14.443   8.198
67561SOL     OW 4515   8.742   9.454   9.012
67561SOL    HW1 4516   8.663   9.502   8.986
67561SOL    HW2 4517   8.737   9.450   9.107
67562SOL     OW 4518   6.174   2.487   5.954
67562SOL    HW1 4519   6.236   2.437   6.007
67562SOL    HW2 4520   6.221   2.507   5.874
67563SOL     OW 4521  10.153   7.377  11.162
67563SOL    HW1 4522  10.198   7.293  11.156
67563SOL    HW2 4523  10.081   7.362  11.223
67564SOL     OW 4524  14.559  13.415   0.568
67564SOL    HW1 4525  14.626  13.429   0.635
67564SOL    HW2 4526  14.528  13.503   0.547
67565SOL     OW 4527   2.323   1.717   1.090
67565SOL    HW1 4528   2.321   1.736   0.997
67565SOL    HW2 4529   2.404   1.757   1.122
67566SOL     OW 4530   4.658  11.074   4.625
67566SOL    HW1 4531   4.696  11.154   4.661
67566SOL    HW2 4532   4.564  11.084   4.638
67567SOL     OW 4533   6.108   2.944   4.797
67567SOL    HW1 4534   6.044   3.005   4.759
67567SOL    HW2 4535   6.193   2.987   4.784
67568SOL     OW 4536  13.771  12.944  14.813
67568SOL    HW1 4537  13.864  12.948  14.838
67568SOL    HW2 4538  13.735  13.027  14.844
67569SOL     OW 4539   1.255  13.951   3.342
67569SOL    HW1 4540   1.206  14.033   3.335
67569SOL    HW2 4541   1.235  13.904   3.261
67570SOL     OW 4542   9.805  11.108  13.286
67570SOL    HW1 4543   9.713  11.123  13.307
67570SOL    HW2 4544   9.825  11.173  13.219
67571SOL     OW 4545  14.864  12.956   5.529
67571SOL    HW1 4546  14.863  12.872   5.576
67571SOL    HW2 4547   0.008  12.933   5.439
67572SOL     OW 4548   5.317   6.351   9.315
67572SOL    HW1 4549   5.231   6.384   9.290
67572SOL    HW2 4550   5.305   6.314   9.403
67573SOL     OW 4551  11.181   6.737   8.717
67573SOL    HW1 4552  11.194   6.831   8.731
67573SOL    HW2 4553  11.086   6.726   8.720
67574SOL     OW 4554   2.711   1.628  13.189
67574SOL    HW1 4555   2.658   1.551  13.209
67574SOL    HW2 4556   2.749   1.609  13.103
67575SOL     OW 4557   8.686  12.523   6.535
67575SOL    HW1 4558   8.771  12.479   6.543
67575SOL    HW2 4559   8.702  12.595   6.474
67576SOL     OW 4560   9.227   0.972   3.600
67576SOL    HW1 4561   9.179   0.952   3.519
67576SOL    HW2 4562   9.318   0.957   3.578
67577SOL     OW 4563  12.792   3.875   6.819
67577SOL    HW1 4564  12.771   3.805   6.757
67577SOL    HW2 4565  12.751   3.953   6.782
67578SOL     OW 4566  10.728   1.607   4.279
67578SOL    HW1 4567  10.663   1.548   4.241
67578SOL    HW2 4568  10.676   1.679   4.315
67579SOL     OW 4569   3.425  13.931   6.834
67579SOL    HW1 4570   3.440  14.015   6.791
67579SOL    HW2 4571   3.377  13.879   6.771
67580SOL     OW 4572  14.188   9.824  12.100
67580SOL    HW1 4573  14.239   9.899  12.132
67580SOL    HW2 4574  14.244   9.748  12.118
67581SOL     OW 4575  11.380   0.613  13.608
67581SOL    HW1 4576  11.373   0.527  13.651
67581SOL    HW2 4577  11.291   0.634  13.581
67582SOL     OW 4578   7.039   7.610  11.559
67582SOL    HW1 4579   7.071   7.678  11.618
67582SOL    HW2 4580   6.944   7.619  11.560
67583SOL     OW 4581   7.595   1.390   6.746
67583SOL    HW1 4582   7.536   1.315   6.751
67583SOL    HW2 4583   7.588   1.431   6.832
67584SOL     OW 4584   3.557   8.969  10.126
67584SOL    HW1 4585   3.586   8.994  10.214
67584SOL    HW2 4586   3.467   8.939  10.139
67585SOL     OW 4587   8.444  11.238   3.851
67585SOL    HW1 4588   8.382  11.290   3.800
67585SOL    HW2 4589   8.444  11.279   3.938
67586SOL     OW 4590   2.420   9.546   3.510
67586SOL    HW1 4591   2.369   9.489   3.567
67586SOL    HW2 4592   2.389   9.526   3.421
67587SOL     OW 4593  12.817   8.029   3.245
67587SOL    HW1 4594  12.805   7.994   3.157
67587SOL    HW2 4595  12.886   8.094   3.236
67588SOL     OW 4596   9.210   9.506   0.354
67588SOL    HW1 4597   9.256   9.589   0.343
67588SOL    HW2 4598   9.212   9.490   0.448
67589SOL     OW 4599  13.518   6.259   1.367
67589SOL    HW1 4600  13.459   6.273   1.293
67589SOL    HW2 4601  13.477   6.306   1.439
67590SOL     OW 4602  10.231   9.944   1.069
67590SOL    HW1 4603  10.146   9.980   1.091
67590SOL    HW2 4604  10.292  10.017   1.078
67591SOL     OW 4605  11.168   9.031   9.819
67591SOL    HW1 4606  11.115   9.056   9.895
67591SOL    HW2 4607  11.142   8.940   9.802
67592SOL     OW 4608   6.417   1.134   7.908
67592SOL    HW1 4609   6.469   1.138   7.988
67592SOL    HW2 4610   6.327   1.125   7.939
67593SOL     OW 4611   2.690  13.324  11.703
67593SOL    HW1 4612   2.706  13.418  11.695
67593SOL    HW2 4613   2.769  13.283  11.670
67594SOL     OW 4614   9.552   7.832   8.087
67594SOL    HW1 4615   9.559   7.737   8.076
67594SOL    HW2 4616   9.469   7.844   8.133
67595SOL     OW 4617   0.809   9.875   2.298
67595SOL    HW1 4618   0.863   9.953   2.289
67595SOL    HW2 4619   0.813   9.854   2.391
67596SOL     OW 4620   5.467   3.252  12.880
67596SOL    HW1 4621   5.473   3.157  12.884
67596SOL    HW2 4622   5.488   3.275  12.790
67597SOL     OW 4623   0.868   3.575  14.490
67597SOL    HW1 4624   0.856   3.508  14.423
67597SOL    HW2 4625   0.870   3.527  14.572
67598SOL     OW 4626   9.027   8.092   1.017
67598SOL    HW1 4627   9.091   8.144   0.967
67598SOL    HW2 4628   9.074   8.013   1.041
67599SOL     OW 4629  14.336   3.536   4.007
67599SOL    HW1 4630  14.338   3.604   3.939
67599SOL    HW2 4631  14.307   3.457   3.961
67600SOL     OW 4632   9.802  10.828   1.579
67600SOL    HW1 4633   9.855  10.749   1.569
67600SOL    HW2 4634   9.743  10.807   1.652
67601SOL     OW 4635  10.394  13.389   6.471
67601SOL    HW1 4636  10.390  13.481   6.445
67601SOL    HW2 4637  10.444  13.347   6.402
67602SOL     OW 4638   2.250   0.141   1.848
67602SOL    HW1 4639   2.197   0.062   1.837
67602SOL    HW2 4640   2.187   0.211   1.863
67603SOL     OW 4641  11.489   3.194   9.374
67603SOL    HW1 4642  11.495   3.140   9.453
67603SOL    HW2 4643  11.559   3.162   9.318
67604SOL     OW 4644  10.775  11.887   7.455
67604SOL    HW1 4645  10.776  11.830   7.378
67604SOL    HW2 4646  10.834  11.959   7.432
67605SOL     OW 4647   1.948   9.164   2.904
67605SOL    HW1 4648   1.931   9.112   2.825
67605SOL    HW2 4649   2.013   9.228   2.877
67606SOL     OW 4650  11.941  12.874   5.076
67606SOL    HW1 4651  11.882  12.898   5.146
67606SOL    HW2 4652  11.985  12.956   5.052
67607SOL     OW 4653   5.550   9.484  13.127
67607SOL    HW1 4654   5.607   9.461  13.054
67607SOL    HW2 4655   5.599   9.458  13.205
67608SOL     OW 4656   8.142   6.997   9.910
67608SOL    HW1 4657   8.227   7.024   9.877
67608SOL    HW2 4658   8.123   6.915   9.863
67609SOL     OW 4659   9.831  13.300  13.675
67609SOL    HW1 4660   9.817  13.255  13.591
67609SOL    HW2 4661   9.887  13.241  13.724
67610SOL     OW 4662  11.909   0.008   3.844
67610SOL    HW1 4663  11.814  14.876   3.843
67610SOL    HW2 4664  11.943  14.798   3.842
67611SOL     OW 4665  10.412  12.333  11.623
67611SOL    HW1 4666  10.324  12.307  11.594
67611SOL    HW2 4667  10.421  12.293  11.710
67612SOL     OW 4668   3.175   7.421   1.758
67612SOL    HW1 4669   3.196   7.499   1.810
67612SOL    HW2 4670   3.260   7.381   1.739
67613SOL     OW 4671  13.877  14.083  11.514
67613SOL    HW1 4672  13.834  14.155  11.466
67613SOL    HW2 4673  13.841  14.004  11.474
67614SOL     OW 4674   8.986  12.102   8.996
67614SOL    HW1 4675   9.067  12.080   9.042
67614SOL    HW2 4676   8.969  12.193   9.021
67615SOL     OW 4677  10.289  13.006   1.519
67615SOL    HW1 4678  10.313  12.917   1.493
67615SOL    HW2 4679  10.230  12.994   1.594
67616SOL     OW 4680  14.165   8.679   1.921
67616SOL    HW1 4681  14.073   8.693   1.943
67616SOL    HW2 4682  14.192   8.605   1.975
67617SOL     OW 4683   4.914  13.374   4.278
67617SOL    HW1 4684   4.936  13.398   4.188
67617SOL    HW2 4685   4.965  13.294   4.294
67618SOL     OW 4686   5.342  11.753  14.448
67618SOL    HW1 4687   5.410  11.710  14.500
67618SOL    HW2 4688   5.272  11.773  14.510
67619SOL     OW 4689  12.437   2.339   0.503
67619SOL    HW1 4690  12.526   2.304   0.509
67619SOL    HW2 4691  12.449   2.434   0.497
67620SOL     OW 4692   9.089   5.005   9.151
67620SOL    HW1 4693   9.033   5.046   9.217
67620SOL    HW2 4694   9.175   4.998   9.192
67621SOL     OW 4695   1.689   7.501   8.104
67621SOL    HW1 4696   1.665   7.456   8.185
67621SOL    HW2 4697   1.678   7.435   8.035
67622SOL     OW 4698   4.398   0.788  10.086
67622SOL    HW1 4699   4.336   0.743  10.029
67622SOL    HW2 4700   4.351   0.864  10.119
67623SOL     OW 4701   8.175   7.885  12.993
67623SOL    HW1 4702   8.113   7.872  12.921
67623SOL    HW2 4703   8.234   7.953  12.962
67624SOL     OW 4704   0.460   6.171   9.605
67624SOL    HW1 4705   0.549   6.136   9.606
67624SOL    HW2 4706   0.469   6.258   9.568
67625SOL     OW 4707   3.532   0.734   9.838
67625SOL    HW1 4708   3.592   0.718   9.910
67625SOL    HW2 4709   3.537   0.828   9.822
67626SOL     OW 4710   6.176  11.558   0.687
67626SOL    HW1 4711   6.165  11.472   0.646
67626SOL    HW2 4712   6.141  11.547   0.775
67627SOL     OW 4713   8.056  14.636   7.493
67627SOL    HW1 4714   8.018  14.676   7.571
67627SOL    HW2 4715   7.995  14.657   7.423
67628SOL     OW 4716   8.259  10.753   9.552
67628SOL    HW1 4717   8.289  10.809   9.481
67628SOL    HW2 4718   8.172  10.725   9.525
67629SOL     OW 4719  11.407   0.063  13.672
67629SOL    HW1 4720  11.398   0.078  13.578
67629SOL    HW2 4721  11.489   0.013  13.681
67630SOL     OW 4722   1.435   2.606   1.160
67630SOL    HW1 4723   1.451   2.650   1.243
67630SOL    HW2 4724   1.376   2.534   1.182
67631SOL     OW 4725   1.807   1.360  10.460
67631SOL    HW1 4726   1.730   1.391  10.507
67631SOL    HW2 4727   1.877   1.420  10.486
67632SOL     OW 4728  10.062   0.598  11.155
67632SOL    HW1 4729  10.049   0.605  11.061
67632SOL    HW2 4730  10.016   0.518  11.180
67633SOL     OW 4731   4.873  14.195   2.980
67633SOL    HW1 4732   4.963  14.183   3.010
67633SOL    HW2 4733   4.823  14.126   3.024
67634SOL     OW 4734   8.843   3.397   4.616
67634SOL    HW1 4735   8.884   3.431   4.536
67634SOL    HW2 4736   8.767   3.348   4.585
67635SOL     OW 4737   7.731  14.679   3.987
67635SOL    HW1 4738   7.776  14.756   3.953
67635SOL    HW2 4739   7.718  14.698   4.079
67636SOL     OW 4740  10.816  11.091  10.205
67636SOL    HW1 4741  10.803  11.157  10.136
67636SOL    HW2 4742  10.802  11.008  10.161
67637SOL     OW 4743   9.861  11.872  12.287
67637SOL    HW1 4744   9.852  11.963  12.258
67637SOL    HW2 4745   9.889  11.825  12.209
67638SOL     OW 4746  10.919   7.409   2.332
67638SOL    HW1 4747  10.989   7.347   2.351
67638SOL    HW2 4748  10.957   7.471   2.270
67639SOL     OW 4749  11.651  13.637  12.018
67639SOL    HW1 4750  11.641  13.604  12.107
67639SOL    HW2 4751  11.742  13.618  11.995
67640SOL     OW 4752   1.031  12.305  12.384
67640SOL    HW1 4753   0.952  12.345  12.346
67640SOL    HW2 4754   1.024  12.322  12.478
67641SOL     OW 4755  11.786  11.705   1.332
67641SOL    HW1 4756  11.757  11.795   1.317
67641SOL    HW2 4757  11.708  11.659   1.362
67642SOL     OW 4758   6.353   5.256   1.860
67642SOL    HW1 4759   6.342   5.346   1.889
67642SOL    HW2 4760   6.409   5.262   1.782
67643SOL     OW 4761   6.320   0.270   4.540
67643SOL    HW1 4762   6.274   0.310   4.613
67643SOL    HW2 4763   6.254   0.261   4.471
67644SOL     OW 4764   1.502  13.311   7.974
67644SOL    HW1 4765   1.415  13.329   8.009
67644SOL    HW2 4766   1.550  13.273   8.047
67645SOL     OW 4767   2.769  12.344   1.282
67645SOL    HW1 4768   2.773  12.252   1.309
67645SOL    HW2 4769   2.808  12.392   1.355
67646SOL     OW 4770   3.462  10.497  14.832
67646SOL    HW1 4771   3.417  10.501   0.037
67646SOL    HW2 4772   3.417  10.562  14.777
67647SOL     OW 4773   3.861   8.389  11.028
67647SOL    HW1 4774   3.808   8.309  11.035
67647SOL    HW2 4775   3.948   8.363  11.058
67648SOL     OW 4776   5.393   6.644   0.037
67648SOL    HW1 4777   5.475   6.693   0.038
67648SOL    HW2 4778   5.418   6.557   0.007
67649SOL     OW 4779  10.954   6.029  14.236
67649SOL    HW1 4780  10.927   6.078  14.314
67649SOL    HW2 4781  10.928   5.938  14.254
67650SOL     OW 4782   6.286   3.258  14.705
67650SOL    HW1 4783   6.235   3.198  14.760
67650SOL    HW2 4784   6.243   3.342  14.714
67651SOL     OW 4785   4.767   8.044   3.066
67651SOL    HW1 4786   4.711   8.032   2.989
67651SOL    HW2 4787   4.849   7.999   3.044
67652SOL     OW 4788   8.474  11.732   8.148
67652SOL    HW1 4789   8.547  11.680   8.183
67652SOL    HW2 4790   8.420  11.668   8.101
67653SOL     OW 4791   7.971  14.108  12.900
67653SOL    HW1 4792   7.911  14.115  12.974
67653SOL    HW2 4793   7.916  14.083  12.826
67654SOL     OW 4794   1.523   6.724  10.210
67654SOL    HW1 4795   1.541   6.663  10.138
67654SOL    HW2 4796   1.435   6.757  10.192
67655SOL     OW 4797   1.783   1.148   8.407
67655SOL    HW1 4798   1.858   1.153   8.467
67655SOL    HW2 4799   1.729   1.223   8.431
67656SOL     OW 4800  14.840   4.935  12.819
67656SOL    HW1 4801   0.015   4.942  12.898
67656SOL    HW2 4802   0.001   4.997  12.758
67657SOL     OW 4803  10.104   1.346   3.234
67657SOL    HW1 4804  10.174   1.323   3.295
67657SOL    HW2 4805  10.138   1.320   3.148
67658SOL     OW 4806   2.397   8.486   6.455
67658SOL    HW1 4807   2.331   8.500   6.523
67658SOL    HW2 4808   2.475   8.530   6.488
67659SOL     OW 4809  12.165   6.255   5.527
67659SOL    HW1 4810  12.183   6.325   5.590
67659SOL    HW2 4811  12.077   6.225   5.549
67660SOL     OW 4812   5.761   0.521  11.459
67660SOL    HW1 4813   5.840   0.498  11.410
67660SOL    HW2 4814   5.692   0.467  11.420
67661SOL     OW 4815   0.125   8.868  11.669
67661SOL    HW1 4816   0.088   8.929  11.734
67661SOL    HW2 4817   0.169   8.801  11.722
67662SOL     OW 4818  14.823  11.206   9.151
67662SOL    HW1 4819  14.795  11.150   9.223
67662SOL    HW2 4820   0.034  11.230   9.174
67663SOL     OW 4821   3.466   8.813   3.039
67663SOL    HW1 4822   3.396   8.765   3.083
67663SOL    HW2 4823   3.433   8.903   3.034
67664SOL     OW 4824  10.108   9.077  11.768
67664SOL    HW1 4825  10.053   9.155  11.768
67664SOL    HW2 4826  10.073   9.023  11.697
67665SOL     OW 4827   1.987  13.832  10.836
67665SOL    HW1 4828   1.923  13.850  10.766
67665SOL    HW2 4829   2.029  13.917  10.852
67666SOL     OW 4830   2.283  10.898   6.403
67666SOL    HW1 4831   2.359  10.901   6.344
67666SOL    HW2 4832   2.284  10.983   6.447
67667SOL     OW 4833   5.076  10.870  12.040
67667SOL    HW1 4834   5.128  10.810  12.093
67667SOL    HW2 4835   5.034  10.814  11.975
67668SOL     OW 4836  11.498   6.988   0.659
67668SOL    HW1 4837  11.463   6.899   0.666
67668SOL    HW2 4838  11.446   7.029   0.590
67669SOL     OW 4839   8.478  13.489   6.370
67669SOL    HW1 4840   8.419  13.439   6.427
67669SOL    HW2 4841   8.546  13.522   6.429
67670SOL     OW 4842   9.647  13.238   9.513
67670SOL    HW1 4843   9.659  13.144   9.498
67670SOL    HW2 4844   9.554  13.254   9.494
67671SOL     OW 4845   8.925  13.024  10.902
67671SOL    HW1 4846   8.872  13.102  10.888
67671SOL    HW2 4847   8.907  12.998  10.993
67672SOL     OW 4848   4.932   1.200   6.984
67672SOL    HW1 4849   4.902   1.139   6.917
67672SOL    HW2 4850   4.888   1.171   7.064
67673SOL     OW 4851  10.403   2.781  13.511
67673SOL    HW1 4852  10.365   2.721  13.575
67673SOL    HW2 4853  10.368   2.867  13.535
67674SOL     OW 4854   7.776   9.005   7.772
67674SOL    HW1 4855   7.811   9.084   7.733
67674SOL    HW2 4856   7.681   9.013   7.761
67675SOL     OW 4857   2.941  10.732   8.274
67675SOL    HW1 4858   2.898  10.806   8.231
67675SOL    HW2 4859   2.879  10.660   8.266
67676SOL     OW 4860   8.829   4.008   0.738
67676SOL    HW1 4861   8.897   4.060   0.781
67676SOL    HW2 4862   8.826   4.042   0.649
67677SOL     OW 4863   0.345   4.142   5.607
67677SOL    HW1 4864   0.284   4.207   5.573
67677SOL    HW2 4865   0.335   4.067   5.549
67678SOL     OW 4866   6.621   1.912   0.160
67678SOL    HW1 4867   6.584   1.917   0.248
67678SOL    HW2 4868   6.560   1.959   0.104
67679SOL     OW 4869  14.216  14.618   9.105
67679SOL    HW1 4870  14.249  14.670   9.178
67679SOL    HW2 4871  14.156  14.555   9.145
67680SOL     OW 4872  14.450  13.812   6.711
67680SOL    HW1 4873  14.424  13.831   6.621
67680SOL    HW2 4874  14.451  13.716   6.716
67681SOL     OW 4875   4.469   6.108   4.891
67681SOL    HW1 4876   4.424   6.192   4.903
67681SOL    HW2 4877   4.505   6.114   4.802
67682SOL     OW 4878   7.524   5.135  11.352
67682SOL    HW1 4879   7.606   5.140  11.304
67682SOL    HW2 4880   7.549   5.108  11.441
67683SOL     OW 4881  10.200   6.948  10.675
67683SOL    HW1 4882  10.207   6.853  10.674
67683SOL    HW2 4883  10.269   6.978  10.617
67684SOL     OW 4884   3.325   7.691   5.393
67684SOL    HW1 4885   3.249   7.741   5.365
67684SOL    HW2 4886   3.393   7.712   5.328
67685SOL     OW 4887   2.116   9.118  14.471
67685SOL    HW1 4888   2.041   9.106  14.529
67685SOL    HW2 4889   2.081   9.166  14.396
67686SOL     OW 4890   4.882  11.175   1.680
67686SOL    HW1 4891   4.972  11.171   1.649
67686SOL    HW2 4892   4.844  11.090   1.657
67687SOL     OW 4893   7.438   2.574   9.550
67687SOL    HW1 4894   7.532   2.585   9.537
67687SOL    HW2 4895   7.421   2.482   9.529
67688SOL     OW 4896   3.558   4.846  12.325
67688SOL    HW1 4897   3.485   4.803  12.280
67688SOL    HW2 4898   3.518   4.923  12.367
67689SOL     OW 4899  12.028   7.791  12.918
67689SOL    HW1 4900  12.080   7.716  12.890
67689SOL    HW2 4901  12.010   7.776  13.011
67690SOL     OW 4902  12.442  12.307  11.161
67690SOL    HW1 4903  12.455  12.267  11.247
67690SOL    HW2 4904  12.491  12.251  11.101
67691SOL     OW 4905   0.616   7.409   3.614
67691SOL    HW1 4906   0.647   7.451   3.694
67691SOL    HW2 4907   0.596   7.319   3.640
67692SOL     OW 4908   0.237  12.867  13.042
67692SOL    HW1 4909   0.177  12.935  13.074
67692SOL    HW2 4910   0.292  12.911  12.977
67693SOL     OW 4911  12.873  13.969  13.299
67693SOL    HW1 4912  12.877  14.043  13.239
67693SOL    HW2 4913  12.929  13.902  13.260
67694SOL     OW 4914   5.161   2.797   9.246
67694SOL    HW1 4915   5.160   2.702   9.257
67694SOL    HW2 4916   5.163   2.831   9.336
67695SOL     OW 4917   2.431   9.529   3.039
67695SOL    HW1 4918   2.401   9.463   3.102
67695SOL    HW2 4919   2.521   9.549   3.066
67696SOL     OW 4920  12.935  10.492   5.675
67696SOL    HW1 4921  12.916  10.543   5.753
67696SOL    HW2 4922  12.856  10.500   5.621
67697SOL     OW 4923   0.772  11.016   4.082
67697SOL    HW1 4924   0.683  11.029   4.115
67697SOL    HW2 4925   0.787  10.922   4.089
67698SOL     OW 4926   2.122   0.279   4.306
67698SOL    HW1 4927   2.204   0.243   4.340
67698SOL    HW2 4928   2.107   0.358   4.357
67699SOL     OW 4929  10.310   2.414   8.111
67699SOL    HW1 4930  10.332   2.329   8.073
67699SOL    HW2 4931  10.290   2.394   8.203
67700SOL     OW 4932   0.528   0.237  11.836
67700SOL    HW1 4933   0.537   0.317  11.888
67700SOL    HW2 4934   0.482   0.175  11.894
67701SOL     OW 4935   4.847   5.535  12.464
67701SOL    HW1 4936   4.860   5.626  12.490
67701SOL    HW2 4937   4.762   5.534  12.421
67702SOL     OW 4938  12.381   3.633   5.727
67702SOL    HW1 4939  12.437   3.630   5.804
67702SOL    HW2 4940  12.440   3.649   5.654
67703SOL     OW 4941   5.288   0.670  14.339
67703SOL    HW1 4942   5.270   0.738  14.274
67703SOL    HW2 4943   5.384   0.669  14.346
67704SOL     OW 4944   4.787   9.484   6.552
67704SOL    HW1 4945   4.847   9.478   6.478
67704SOL    HW2 4946   4.700   9.467   6.514
67705SOL     OW 4947   1.397   0.797  10.281
67705SOL    HW1 4948   1.404   0.712  10.325
67705SOL    HW2 4949   1.346   0.850  10.342
67706SOL     OW 4950   9.103   9.452   5.727
67706SOL    HW1 4951   9.094   9.457   5.822
67706SOL    HW2 4952   9.198   9.453   5.712
67707SOL     OW 4953   0.933  12.117  11.390
67707SOL    HW1 4954   0.928  12.210  11.368
67707SOL    HW2 4955   1.015  12.109  11.439
67708SOL     OW 4956   3.018  12.992  13.740
67708SOL    HW1 4957   3.060  12.942  13.670
67708SOL    HW2 4958   2.989  13.073  13.698
67709SOL     OW 4959   4.153   8.378   0.532
67709SOL    HW1 4960   4.182   8.432   0.459
67709SOL    HW2 4961   4.233   8.337   0.565
67710SOL     OW 4962  11.899   7.573   6.006
67710SOL    HW1 4963  11.929   7.482   6.014
67710SOL    HW2 4964  11.884   7.602   6.095
67711SOL     OW 4965   5.398   7.357  12.793
67711SOL    HW1 4966   5.456   7.281  12.801
67711SOL    HW2 4967   5.454   7.426  12.755
67712SOL     OW 4968   0.251   0.853   3.165
67712SOL    HW1 4969   0.272   0.933   3.213
67712SOL    HW2 4970   0.256   0.784   3.231
67713SOL     OW 4971   8.681  11.305   0.371
67713SOL    HW1 4972   8.605  11.338   0.323
67713SOL    HW2 4973   8.657  11.215   0.393
67714SOL     OW 4974   8.327   2.453   4.247
67714SOL    HW1 4975   8.234   2.435   4.235
67714SOL    HW2 4976   8.351   2.506   4.171
67715SOL     OW 4977   5.317   4.691  13.724
67715SOL    HW1 4978   5.308   4.598  13.701
67715SOL    HW2 4979   5.316   4.691  13.820
67716SOL     OW 4980   6.623   0.655   3.725
67716SOL    HW1 4981   6.593   0.745   3.740
67716SOL    HW2 4982   6.542   0.604   3.719
67717SOL     OW 4983   1.857   6.371  10.441
67717SOL    HW1 4984   1.928   6.433  10.457
67717SOL    HW2 4985   1.781   6.425  10.420
67718SOL     OW 4986  14.148   8.184   1.586
67718SOL    HW1 4987  14.160   8.276   1.608
67718SOL    HW2 4988  14.171   8.136   1.665
67719SOL     OW 4989   2.446   8.221  11.603
67719SOL    HW1 4990   2.435   8.140  11.554
67719SOL    HW2 4991   2.494   8.196  11.682
67720SOL     OW 4992  11.317   6.641  12.322
67720SOL    HW1 4993  11.376   6.577  12.283
67720SOL    HW2 4994  11.258   6.665  12.252
67721SOL     OW 4995   9.803   9.643  10.773
67721SOL    HW1 4996   9.851   9.698  10.711
67721SOL    HW2 4997   9.740   9.595  10.719
67722SOL     OW 4998   1.561   9.700   5.098
67722SOL    HW1 4999   1.528   9.790   5.093
67722SOL    HW2 5000   1.613   9.698   5.178
67723SOL     OW 5001  12.400   0.318   1.975
67723SOL    HW1 5002  12.492   0.330   1.996
67723SOL    HW2 5003  12.356   0.312   2.060
67724SOL     OW 5004   7.211  10.699  10.380
67724SOL    HW1 5005   7.273  10.716  10.451
67724SOL    HW2 5006   7.255  10.732  10.302
67725SOL     OW 5007   4.413   6.417   2.085
67725SOL    HW1 5008   4.381   6.490   2.031
67725SOL    HW2 5009   4.374   6.432   2.171
67726SOL     OW 5010   5.713   6.925   0.838
67726SOL    HW1 5011   5.640   6.949   0.780
67726SOL    HW2 5012   5.790   6.964   0.796
67727SOL     OW 5013   4.678   7.806  12.788
67727SOL    HW1 5014   4.759   7.848  12.819
67727SOL    HW2 5015   4.707   7.721  12.756
67728SOL     OW 5016   9.697  11.196   3.800
67728SOL    HW1 5017   9.755  11.127   3.767
67728SOL    HW2 5018   9.641  11.218   3.726
67729SOL     OW 5019  10.847  13.262   8.207
67729SOL    HW1 5020  10.866  13.178   8.165
67729SOL    HW2 5021  10.786  13.305   8.146
67730SOL     OW 5022   6.999   8.997  14.221
67730SOL    HW1 5023   7.020   9.083  14.258
67730SOL    HW2 5024   6.977   9.015  14.130
67731SOL     OW 5025  11.178  13.664   9.817
67731SOL    HW1 5026  11.088  13.642   9.791
67731SOL    HW2 5027  11.203  13.594   9.878
67732SOL     OW 5028  13.732   3.793  11.424
67732SOL    HW1 5029  13.787   3.737  11.480
67732SOL    HW2 5030  13.671   3.733  11.382
67733SOL     OW 5031   4.967   5.158  12.648
67733SOL    HW1 5032   4.914   5.144  12.570
67733SOL    HW2 5033   4.930   5.099  12.714
67734SOL     OW 5034   7.183  11.844  13.450
67734SOL    HW1 5035   7.190  11.857  13.355
67734SOL    HW2 5036   7.260  11.888  13.486
67735SOL     OW 5037  10.295  10.437  11.960
67735SOL    HW1 5038  10.254  10.368  11.909
67735SOL    HW2 5039  10.241  10.444  12.039
67736SOL     OW 5040   1.876   0.941   0.553
67736SOL    HW1 5041   1.817   1.016   0.547
67736SOL    HW2 5042   1.844   0.892   0.628
67737SOL     OW 5043  13.903   8.032  12.618
67737SOL    HW1 5044  13.861   8.094  12.677
67737SOL    HW2 5045  13.891   8.070  12.531
67738SOL     OW 5046   3.458  13.573  11.295
67738SOL    HW1 5047   3.485  13.484  11.314
67738SOL    HW2 5048   3.417  13.604  11.376
67739SOL     OW 5049  11.223   1.528   8.727
67739SOL    HW1 5050  11.285   1.514   8.655
67739SOL    HW2 5051  11.278   1.533   8.805
67740SOL     OW 5052   8.139  10.694   3.798
67740SOL    HW1 5053   8.117  10.725   3.886
67740SOL    HW2 5054   8.092  10.752   3.739
67741SOL     OW 5055   3.826   9.438   3.931
67741SOL    HW1 5056   3.911   9.403   3.959
67741SOL    HW2 5057   3.800   9.498   4.001
67742SOL     OW 5058   7.771   4.915   0.338
67742SOL    HW1 5059   7.805   5.004   0.340
67742SOL    HW2 5060   7.778   4.889   0.246
67743SOL     OW 5061   7.988   2.977   6.920
67743SOL    HW1 5062   7.912   3.033   6.902
67743SOL    HW2 5063   8.023   3.011   7.002
67744SOL     OW 5064  11.900   9.542  11.257
67744SOL    HW1 5065  11.906   9.613  11.193
67744SOL    HW2 5066  11.857   9.471  11.210
67745SOL     OW 5067   5.915   1.318   9.644
67745SOL    HW1 5068   5.840   1.360   9.685
67745SOL    HW2 5069   5.909   1.342   9.552
67746SOL     OW 5070  11.730   1.375   1.211
67746SOL    HW1 5071  11.757   1.285   1.196
67746SOL    HW2 5072  11.803   1.428   1.179
67747SOL     OW 5073   5.209   2.425  13.945
67747SOL    HW1 5074   5.121   2.410  13.909
67747SOL    HW2 5075   5.235   2.341  13.982
67748SOL     OW 5076   7.624  14.435   6.030
67748SOL    HW1 5077   7.634  14.380   5.952
67748SOL    HW2 5078   7.531  14.458   6.031
67749SOL     OW 5079   1.684   0.406  11.390
67749SOL    HW1 5080   1.651   0.445  11.471
67749SOL    HW2 5081   1.762   0.357  11.417
67750SOL     OW 5082  11.094   6.245   3.128
67750SOL    HW1 5083  11.165   6.277   3.184
67750SOL    HW2 5084  11.125   6.161   3.096
67751SOL     OW 5085   9.286   9.505  14.306
67751SOL    HW1 5086   9.230   9.528  14.232
67751SOL    HW2 5087   9.297   9.587  14.354
67752SOL     OW 5088  12.901   2.345  13.479
67752SOL    HW1 5089  12.936   2.409  13.416
67752SOL    HW2 5090  12.911   2.261  13.435
67753SOL     OW 5091   2.348   3.992   8.215
67753SOL    HW1 5092   2.267   4.013   8.169
67753SOL    HW2 5093   2.404   4.068   8.201
67754SOL     OW 5094   5.143   1.498   4.240
67754SOL    HW1 5095   5.071   1.531   4.292
67754SOL    HW2 5096   5.158   1.409   4.272
67755SOL     OW 5097   6.003   9.606  11.502
67755SOL    HW1 5098   5.985   9.622  11.595
67755SOL    HW2 5099   6.067   9.536  11.502
67756SOL     OW 5100   1.291  10.994   7.078
67756SOL    HW1 5101   1.349  10.988   7.002
67756SOL    HW2 5102   1.351  11.002   7.153
67757SOL     OW 5103  13.359  14.258  13.545
67757SOL    HW1 5104  13.441  14.307  13.537
67757SOL    HW2 5105  13.291  14.324  13.537
67758SOL     OW 5106  10.014  12.556  14.317
67758SOL    HW1 5107  10.109  12.557  14.321
67758SOL    HW2 5108   9.994  12.563  14.224
67759SOL     OW 5109   2.019  13.955  13.940
67759SOL    HW1 5110   1.945  13.953  14.001
67759SOL    HW2 5111   2.083  14.013  13.981
67760SOL     OW 5112   3.155   7.782   9.906
67760SOL    HW1 5113   3.088   7.802   9.972
67760SOL    HW2 5114   3.140   7.691   9.882
67761SOL     OW 5115   7.634   7.187   5.298
67761SOL    HW1 5116   7.606   7.276   5.280
67761SOL    HW2 5117   7.635   7.180   5.394
67762SOL     OW 5118   7.801   9.244   7.641
67762SOL    HW1 5119   7.766   9.309   7.701
67762SOL    HW2 5120   7.896   9.257   7.644
67763SOL     OW 5121   0.039   5.157   3.994
67763SOL    HW1 5122  14.854   5.097   4.033
67763SOL    HW2 5123   0.120   5.107   3.989
67764SOL     OW 5124   7.050  13.320   0.466
67764SOL    HW1 5125   7.046  13.378   0.390
67764SOL    HW2 5126   7.140  13.287   0.465
67765SOL     OW 5127   9.990   2.956  10.012
67765SOL    HW1 5128   9.938   2.932   9.935
67765SOL    HW2 5129  10.068   2.901  10.007
67766SOL     OW 5130   8.825   5.225   3.312
67766SOL    HW1 5131   8.784   5.291   3.369
67766SOL    HW2 5132   8.917   5.228   3.335
67767SOL     OW 5133   8.519  14.849   5.868
67767SOL    HW1 5134   8.589   0.029   5.897
67767SOL    HW2 5135   8.562  14.791   5.805
67768SOL     OW 5136   6.178  11.682   9.263
67768SOL    HW1 5137   6.155  11.678   9.355
67768SOL    HW2 5138   6.273  11.668   9.261
67769SOL     OW 5139   8.278   0.132   0.020
67769SOL    HW1 5140   8.360   0.149  14.852
67769SOL    HW2 5141   8.296   0.054   0.073
67770SOL     OW 5142   5.682   9.711  10.992
67770SOL    HW1 5143   5.676   9.654  10.915
67770SOL    HW2 5144   5.717   9.654  11.061
67771SOL     OW 5145   8.397   3.375   7.303
67771SOL    HW1 5146   8.362   3.430   7.232
67771SOL    HW2 5147   8.481   3.415   7.324
67772SOL     OW 5148   8.178  12.299   8.607
67772SOL    HW1 5149   8.237  12.374   8.600
67772SOL    HW2 5150   8.109  12.317   8.544
67773SOL     OW 5151  13.787   7.715   1.466
67773SOL    HW1 5152  13.862   7.658   1.447
67773SOL    HW2 5153  13.714   7.655   1.480
67774SOL     OW 5154  11.971   7.247   2.472
67774SOL    HW1 5155  11.928   7.207   2.397
67774SOL    HW2 5156  11.914   7.227   2.546
67775SOL     OW 5157   1.736   6.044   1.562
67775SOL    HW1 5158   1.683   6.097   1.622
67775SOL    HW2 5159   1.672   5.989   1.516
67776SOL     OW 5160   5.598   7.296  12.241
67776SOL    HW1 5161   5.573   7.265  12.154
67776SOL    HW2 5162   5.530   7.264  12.299
67777SOL     OW 5163   0.261  10.767   2.300
67777SOL    HW1 5164   0.182  10.732   2.341
67777SOL    HW2 5165   0.243  10.761   2.206
67778SOL     OW 5166   1.417   5.294  12.647
67778SOL    HW1 5167   1.421   5.275  12.553
67778SOL    HW2 5168   1.323   5.301  12.666
67779SOL     OW 5169   6.013   7.717   9.644
67779SOL    HW1 5170   6.099   7.746   9.612
67779SOL    HW2 5171   6.029   7.630   9.680
67780SOL     OW 5172   2.605  14.432   5.884
67780SOL    HW1 5173   2.577  14.402   5.971
67780SOL    HW2 5174   2.523  14.451   5.838
67781SOL     OW 5175   3.425  14.347   7.309
67781SOL    HW1 5176   3.435  14.352   7.214
67781SOL    HW2 5177   3.400  14.256   7.325
67782SOL     OW 5178   0.349  12.659   3.219
67782SOL    HW1 5179   0.431  12.691   3.182
67782SOL    HW2 5180   0.375  12.593   3.283
67783SOL     OW 5181   8.516  11.012   6.174
67783SOL    HW1 5182   8.544  10.923   6.154
67783SOL    HW2 5183   8.543  11.063   6.097
67784SOL     OW 5184   7.192   2.450   6.490
67784SOL    HW1 5185   7.133   2.510   6.535
67784SOL    HW2 5186   7.186   2.368   6.540
67785SOL     OW 5187   0.310  11.416   6.993
67785SOL    HW1 5188   0.389  11.401   7.044
67785SOL    HW2 5189   0.248  11.454   7.056
67786SOL     OW 5190   9.682   5.746   8.751
67786SOL    HW1 5191   9.628   5.820   8.723
67786SOL    HW2 5192   9.619   5.679   8.777
67787SOL     OW 5193  13.121  14.641  11.764
67787SOL    HW1 5194  13.134  14.733  11.743
67787SOL    HW2 5195  13.116  14.597  11.679
67788SOL     OW 5196  13.574   7.990   4.723
67788SOL    HW1 5197  13.530   8.075   4.735
67788SOL    HW2 5198  13.583   7.955   4.811
67789SOL     OW 5199   9.808  11.563   3.581
67789SOL    HW1 5200   9.713  11.557   3.595
67789SOL    HW2 5201   9.821  11.530   3.492
67790SOL     OW 5202   5.509   7.461   3.145
67790SOL    HW1 5203   5.463   7.379   3.127
67790SOL    HW2 5204   5.483   7.519   3.074
67791SOL     OW 5205  12.670   4.465   4.056
67791SOL    HW1 5206  12.620   4.392   4.020
67791SOL    HW2 5207  12.752   4.426   4.085
67792SOL     OW 5208  14.271   7.003   4.268
67792SOL    HW1 5209  14.206   7.067   4.241
67792SOL    HW2 5210  14.223   6.920   4.272
67793SOL     OW 5211   7.010  10.343  14.244
67793SOL    HW1 5212   6.969  10.258  14.256
67793SOL    HW2 5213   7.098  10.333  14.281
67794SOL     OW 5214   6.099   4.710   3.470
67794SOL    HW1 5215   6.071   4.800   3.484
67794SOL    HW2 5216   6.195   4.715   3.472
67795SOL     OW 5217   0.714   5.801   5.181
67795SOL    HW1 5218   0.658   5.845   5.245
67795SOL    HW2 5219   0.656   5.742   5.133
67796SOL     OW 5220  12.944  10.114  12.033
67796SOL    HW1 5221  12.967  10.188  12.089
67796SOL    HW2 5222  12.969  10.143  11.945
67797SOL     OW 5223  12.897   5.186   0.060
67797SOL    HW1 5224  12.878   5.228   0.144
67797SOL    HW2 5225  12.990   5.166   0.064
67798SOL     OW 5226   3.156   8.239  10.704
67798SOL    HW1 5227   3.204   8.177  10.650
67798SOL    HW2 5228   3.110   8.295  10.642
67799SOL     OW 5229   4.841  10.993   2.671
67799SOL    HW1 5230   4.871  10.999   2.761
67799SOL    HW2 5231   4.746  11.007   2.675
67800SOL     OW 5232   5.842   3.661  14.142
67800SOL    HW1 5233   5.859   3.612  14.222
67800SOL    HW2 5234   5.817   3.593  14.078
67801SOL     OW 5235  13.997   8.071   6.104
67801SOL    HW1 5236  14.037   8.071   6.191
67801SOL    HW2 5237  14.071   8.062   6.044
67802SOL     OW 5238   2.196   8.711   8.927
67802SOL    HW1 5239   2.186   8.805   8.942
67802SOL    HW2 5240   2.190   8.672   9.015
67803SOL     OW 5241  14.813   4.334   6.179
67803SOL    HW1 5242  14.735   4.297   6.220
67803SOL    HW2 5243   0.005   4.276   6.205
67804SOL     OW 5244  10.312  14.441   5.886
67804SOL    HW1 5245  10.293  14.530   5.857
67804SOL    HW2 5246  10.328  14.392   5.805
67805SOL     OW 5247   4.630  13.467   0.638
67805SOL    HW1 5248   4.694  13.474   0.709
67805SOL    HW2 5249   4.680  13.438   0.562
67806SOL     OW 5250   2.994  12.356   7.613
67806SOL    HW1 5251   2.962  12.440   7.581
67806SOL    HW2 5252   2.946  12.342   7.695
67807SOL     OW 5253   2.153   7.451  12.521
67807SOL    HW1 5254   2.103   7.514  12.469
67807SOL    HW2 5255   2.154   7.372  12.469
67808SOL     OW 5256   9.839   7.727   3.097
67808SOL    HW1 5257   9.904   7.658   3.091
67808SOL    HW2 5258   9.888   7.808   3.083
67809SOL     OW 5259   6.212  14.035  14.278
67809SOL    HW1 5260   6.131  14.051  14.327
67809SOL    HW2 5261   6.187  14.037  14.186
67810SOL     OW 5262  13.312  11.952  11.753
67810SOL    HW1 5263  13.318  11.865  11.714
67810SOL    HW2 5264  13.284  12.008  11.680
67811SOL     OW 5265   0.020  13.800   6.164
67811SOL    HW1 5266   0.016  13.815   6.258
67811SOL    HW2 5267   0.003  13.706   6.154
67812SOL     OW 5268   2.430  10.559  11.693
67812SOL    HW1 5269   2.414  10.477  11.740
67812SOL    HW2 5270   2.441  10.625  11.763
67813SOL     OW 5271   6.558  14.484   2.604
67813SOL    HW1 5272   6.489  14.421   2.585
67813SOL    HW2 5273   6.637  14.432   2.611
67814SOL     OW 5274  14.168  14.473   4.783
67814SOL    HW1 5275  14.168  14.500   4.875
67814SOL    HW2 5276  14.260  14.457   4.763
67815SOL     OW 5277  14.237   5.104   8.478
67815SOL    HW1 5278  14.160   5.048   8.471
67815SOL    HW2 5279  14.234   5.158   8.398
67816SOL     OW 5280   5.411   8.223   4.045
67816SOL    HW1 5281   5.338   8.262   3.997
67816SOL    HW2 5282   5.419   8.135   4.009
67817SOL     OW 5283   8.223   6.454   1.505
67817SOL    HW1 5284   8.243   6.537   1.548
67817SOL    HW2 5285   8.297   6.439   1.446
67818SOL     OW 5286   5.466   2.986  12.850
67818SOL    HW1 5287   5.426   2.975  12.764
67818SOL    HW2 5288   5.425   2.919  12.904
67819SOL     OW 5289   8.240  13.029   5.418
67819SOL    HW1 5290   8.323  12.997   5.454
67819SOL    HW2 5291   8.202  13.083   5.487
67820SOL     OW 5292   0.794   2.992  13.056
67820SOL    HW1 5293   0.730   3.051  13.015
67820SOL    HW2 5294   0.763   2.982  13.146
67821SOL     OW 5295  12.312  11.494   2.316
67821SOL    HW1 5296  12.283  11.552   2.246
67821SOL    HW2 5297  12.382  11.442   2.277
67822SOL     OW 5298  13.821  10.088   1.830
67822SOL    HW1 5299  13.827  10.011   1.774
67822SOL    HW2 5300  13.860  10.059   1.913
67823SOL     OW 5301   5.120   4.327   4.399
67823SOL    HW1 5302   5.126   4.233   4.380
67823SOL    HW2 5303   5.026   4.346   4.398
67824SOL     OW 5304   3.794   5.303   9.726
67824SOL    HW1 5305   3.705   5.307   9.693
67824SOL    HW2 5306   3.842   5.253   9.659
67825SOL     OW 5307  12.155  10.902   5.932
67825SOL    HW1 5308  12.194  10.935   6.012
67825SOL    HW2 5309  12.060  10.903   5.949
67826SOL     OW 5310   8.092  13.764   1.916
67826SOL    HW1 5311   8.057  13.789   1.831
67826SOL    HW2 5312   8.156  13.695   1.896
67827SOL     OW 5313   2.969   2.023   4.140
67827SOL    HW1 5314   2.979   1.936   4.102
67827SOL    HW2 5315   2.884   2.054   4.108
67828SOL     OW 5316   2.944   8.690   7.679
67828SOL    HW1 5317   2.896   8.765   7.713
67828SOL    HW2 5318   3.035   8.719   7.673
67829SOL     OW 5319  11.493   8.135   6.177
67829SOL    HW1 5320  11.576   8.178   6.158
67829SOL    HW2 5321  11.487   8.063   6.114
67830SOL     OW 5322   2.871  14.128  10.964
67830SOL    HW1 5323   2.946  14.085  11.004
67830SOL    HW2 5324   2.796  14.102  11.018
67831SOL     OW 5325  12.735   2.628  14.285
67831SOL    HW1 5326  12.815   2.582  14.311
67831SOL    HW2 5327  12.766   2.697  14.227
67832SOL     OW 5328   6.137   5.285   8.258
67832SOL    HW1 5329   6.116   5.378   8.263
67832SOL    HW2 5330   6.145   5.257   8.349
67833SOL     OW 5331   0.915  12.855   6.448
67833SOL    HW1 5332   0.878  12.900   6.524
67833SOL    HW2 5333   0.864  12.774   6.441
67834SOL     OW 5334   0.334  12.848  10.153
67834SOL    HW1 5335   0.345  12.885  10.241
67834SOL    HW2 5336   0.289  12.917  10.104
67835SOL     OW 5337   3.447  11.353   5.255
67835SOL    HW1 5338   3.426  11.262   5.278
67835SOL    HW2 5339   3.406  11.365   5.169
67836SOL     OW 5340   5.639   4.165   0.258
67836SOL    HW1 5341   5.629   4.131   0.169
67836SOL    HW2 5342   5.573   4.233   0.266
67837SOL     OW 5343  13.964   4.350  11.733
67837SOL    HW1 5344  14.029   4.368  11.800
67837SOL    HW2 5345  14.010   4.363  11.650
67838SOL     OW 5346   0.608   3.787   7.525
67838SOL    HW1 5347   0.526   3.834   7.507
67838SOL    HW2 5348   0.644   3.831   7.602
67839SOL     OW 5349   5.144   6.781   7.995
67839SOL    HW1 5350   5.228   6.737   8.011
67839SOL    HW2 5351   5.164   6.852   7.935
67840SOL     OW 5352   6.673   5.271  10.560
67840SOL    HW1 5353   6.697   5.225  10.479
67840SOL    HW2 5354   6.745   5.333  10.574
67841SOL     OW 5355  10.446   1.415   2.751
67841SOL    HW1 5356  10.368   1.435   2.699
67841SOL    HW2 5357  10.449   1.320   2.754
67842SOL     OW 5358   5.626   2.945   9.088
67842SOL    HW1 5359   5.629   2.956   8.993
67842SOL    HW2 5360   5.533   2.940   9.109
67843SOL     OW 5361   4.479   3.520   3.935
67843SOL    HW1 5362   4.546   3.578   3.899
67843SOL    HW2 5363   4.410   3.578   3.964
67844SOL     OW 5364   5.434  13.501   0.748
67844SOL    HW1 5365   5.500  13.488   0.816
67844SOL    HW2 5366   5.473  13.565   0.688
67845SOL     OW 5367  13.063   8.389   2.912
67845SOL    HW1 5368  13.026   8.332   2.845
67845SOL    HW2 5369  13.157   8.389   2.895
67846SOL     OW 5370   6.059  13.188  11.099
67846SOL    HW1 5371   6.108  13.129  11.043
67846SOL    HW2 5372   6.041  13.136  11.178
67847SOL     OW 5373   3.377   8.578   6.902
67847SOL    HW1 5374   3.372   8.665   6.861
67847SOL    HW2 5375   3.449   8.586   6.965
67848SOL     OW 5376   2.347   4.253   6.146
67848SOL    HW1 5377   2.311   4.255   6.234
67848SOL    HW2 5378   2.305   4.327   6.101
67849SOL     OW 5379   2.160   1.439   4.790
67849SOL    HW1 5380   2.098   1.410   4.857
67849SOL    HW2 5381   2.117   1.515   4.749
67850SOL     OW 5382   3.037  10.778   4.006
67850SOL    HW1 5383   2.996  10.820   3.931
67850SOL    HW2 5384   3.108  10.837   4.031
67851SOL     OW 5385  13.689  11.179  13.215
67851SOL    HW1 5386  13.742  11.216  13.285
67851SOL    HW2 5387  13.752  11.146  13.151
67852SOL     OW 5388   2.268  13.249  12.585
67852SOL    HW1 5389   2.179  13.272  12.557
67852SOL    HW2 5390   2.324  13.312  12.540
67853SOL     OW 5391  11.399   2.242   6.526
67853SOL    HW1 5392  11.308   2.254   6.554
67853SOL    HW2 5393  11.447   2.227   6.607
67854SOL     OW 5394   0.835   2.170   7.769
67854SOL    HW1 5395   0.913   2.139   7.816
67854SOL    HW2 5396   0.869   2.203   7.686
67855SOL     OW 5397   4.387  11.388   6.777
67855SOL    HW1 5398   4.328  11.313   6.779
67855SOL    HW2 5399   4.450  11.367   6.709
67856SOL     OW 5400   6.796  13.164  13.838
67856SOL    HW1 5401   6.730  13.100  13.809
67856SOL    HW2 5402   6.850  13.178  13.760
67857SOL     OW 5403  11.013   2.394   8.780
67857SOL    HW1 5404  10.931   2.394   8.731
67857SOL    HW2 5405  11.057   2.476   8.754
67858SOL     OW 5406   7.477   3.121   5.509
67858SOL    HW1 5407   7.530   3.197   5.532
67858SOL    HW2 5408   7.540   3.055   5.480
67859SOL     OW 5409  13.757  13.079   1.740
67859SOL    HW1 5410  13.663  13.069   1.754
67859SOL    HW2 5411  13.792  13.099   1.827
67860SOL     OW 5412   5.397   2.367  10.560
67860SOL    HW1 5413   5.462   2.340  10.625
67860SOL    HW2 5414   5.344   2.433  10.605
67861SOL     OW 5415   1.226  14.747  10.286
67861SOL    HW1 5416   1.137  14.719  10.266
67861SOL    HW2 5417   1.264  14.671  10.331
67862SOL     OW 5418   7.984   0.148   5.794
67862SOL    HW1 5419   7.947   0.081   5.852
67862SOL    HW2 5420   8.078   0.142   5.807
67863SOL     OW 5421   3.130   2.423   3.770
67863SOL    HW1 5422   3.056   2.482   3.780
67863SOL    HW2 5423   3.204   2.471   3.805
67864SOL     OW 5424   9.867   2.763   1.364
67864SOL    HW1 5425   9.948   2.721   1.394
67864SOL    HW2 5426   9.896   2.822   1.294
67865SOL     OW 5427  10.865   6.671   2.609
67865SOL    HW1 5428  10.824   6.743   2.656
67865SOL    HW2 5429  10.928   6.712   2.551
67866SOL     OW 5430  13.737   4.195  13.139
67866SOL    HW1 5431  13.819   4.218  13.095
67866SOL    HW2 5432  13.702   4.122  13.087
67867SOL     OW 5433   0.217   3.055   2.365
67867SOL    HW1 5434   0.176   3.139   2.346
67867SOL    HW2 5435   0.222   3.011   2.280
67868SOL     OW 5436  11.343   0.844  11.551
67868SOL    HW1 5437  11.267   0.890  11.516
67868SOL    HW2 5438  11.397   0.913  11.589
67869SOL     OW 5439  12.128  13.182   7.955
67869SOL    HW1 5440  12.126  13.129   7.875
67869SOL    HW2 5441  12.207  13.236   7.947
67870SOL     OW 5442  11.037   8.786  12.496
67870SOL    HW1 5443  11.016   8.823  12.582
67870SOL    HW2 5444  11.059   8.862  12.442
67871SOL     OW 5445   3.291  13.785   9.526
67871SOL    HW1 5446   3.246  13.818   9.603
67871SOL    HW2 5447   3.226  13.794   9.455
67872SOL     OW 5448  11.332   0.861   1.636
67872SOL    HW1 5449  11.251   0.884   1.682
67872SOL    HW2 5450  11.313   0.879   1.544
67873SOL     OW 5451  12.720   6.034  10.180
67873SOL    HW1 5452  12.780   6.109  10.188
67873SOL    HW2 5453  12.752   5.971  10.244
67874SOL     OW 5454  10.169   1.952  10.395
67874SOL    HW1 5455  10.112   1.875  10.394
67874SOL    HW2 5456  10.162   1.987  10.306
67875SOL     OW 5457   7.879  10.505  10.210
67875SOL    HW1 5458   7.930  10.586  10.218
67875SOL    HW2 5459   7.857  10.482  10.300
67876SOL     OW 5460   3.271  14.031  14.060
67876SOL    HW1 5461   3.256  14.050  13.967
67876SOL    HW2 5462   3.247  13.939  14.069
67877SOL     OW 5463   1.840  12.546   0.846
67877SOL    HW1 5464   1.885  12.540   0.931
67877SOL    HW2 5465   1.904  12.515   0.782
67878SOL     OW 5466   6.937   9.369   5.784
67878SOL    HW1 5467   6.857   9.317   5.783
67878SOL    HW2 5468   6.948   9.398   5.694
67879SOL     OW 5469   8.417  13.380   0.409
67879SOL    HW1 5470   8.465  13.442   0.465
67879SOL    HW2 5471   8.341  13.430   0.379
67880SOL     OW 5472   2.094   3.188  10.627
67880SOL    HW1 5473   2.153   3.154  10.693
67880SOL    HW2 5474   2.009   3.195  10.671
67881SOL     OW 5475   9.422   4.069  14.435
67881SOL    HW1 5476   9.355   4.136  14.421
67881SOL    HW2 5477   9.422   4.017  14.355
67882SOL     OW 5478   1.264   0.235   7.044
67882SOL    HW1 5479   1.215   0.292   7.103
67882SOL    HW2 5480   1.226   0.253   6.958
67883SOL     OW 5481   7.985   8.149   3.093
67883SOL    HW1 5482   8.036   8.211   3.144
67883SOL    HW2 5483   7.924   8.204   3.043
67884SOL     OW 5484   5.602   9.956   6.632
67884SOL    HW1 5485   5.597   9.872   6.677
67884SOL    HW2 5486   5.641  10.015   6.697
67885SOL     OW 5487  10.602   7.750   1.035
67885SOL    HW1 5488  10.531   7.687   1.020
67885SOL    HW2 5489  10.623   7.741   1.128
67886SOL     OW 5490   8.691   8.744   3.113
67886SOL    HW1 5491   8.726   8.715   3.197
67886SOL    HW2 5492   8.667   8.836   3.127
67887SOL     OW 5493  10.047   2.640   5.621
67887SOL    HW1 5494  10.141   2.643   5.639
67887SOL    HW2 5495  10.040   2.623   5.527
67888SOL     OW 5496  10.222  11.419   4.991
67888SOL    HW1 5497  10.237  11.366   5.069
67888SOL    HW2 5498  10.174  11.496   5.023
67889SOL     OW 5499  10.333   6.433  11.516
67889SOL    HW1 5500  10.348   6.487  11.439
67889SOL    HW2 5501  10.246   6.396  11.504
67890SOL     OW 5502  12.687   8.443  11.900
67890SOL    HW1 5503  12.668   8.524  11.947
67890SOL    HW2 5504  12.780   8.451  11.876
67891SOL     OW 5505  10.930  13.146  12.339
67891SOL    HW1 5506  10.914  13.065  12.290
67891SOL    HW2 5507  11.019  13.171  12.315
67892SOL     OW 5508   1.558  11.635  14.827
67892SOL    HW1 5509   1.527  11.575   0.017
67892SOL    HW2 5510   1.627  11.586  14.782
67893SOL     OW 5511  13.610  12.979   3.678
67893SOL    HW1 5512  13.647  12.969   3.765
67893SOL    HW2 5513  13.522  13.016   3.693
67894SOL     OW 5514   6.038   8.358   3.547
67894SOL    HW1 5515   6.011   8.299   3.617
67894SOL    HW2 5516   6.117   8.400   3.581
67895SOL     OW 5517   7.520   1.256   5.176
67895SOL    HW1 5518   7.514   1.163   5.154
67895SOL    HW2 5519   7.598   1.263   5.231
67896SOL     OW 5520   4.271  12.204  14.398
67896SOL    HW1 5521   4.211  12.179  14.469
67896SOL    HW2 5522   4.215  12.213  14.322
67897SOL     OW 5523  12.155   5.508  13.681
67897SOL    HW1 5524  12.167   5.473  13.593
67897SOL    HW2 5525  12.060   5.514  13.691
67898SOL     OW 5526  11.515  12.646   1.578
67898SOL    HW1 5527  11.521  12.592   1.499
67898SOL    HW2 5528  11.438  12.700   1.565
67899SOL     OW 5529   2.326   1.550   1.447
67899SOL    HW1 5530   2.347   1.488   1.517
67899SOL    HW2 5531   2.344   1.502   1.366
67900SOL     OW 5532  11.187  13.086  10.790
67900SOL    HW1 5533  11.206  13.092  10.697
67900SOL    HW2 5534  11.093  13.104  10.796
67901SOL     OW 5535   4.460   8.725   2.943
67901SOL    HW1 5536   4.437   8.813   2.974
67901SOL    HW2 5537   4.534   8.699   2.997
67902SOL     OW 5538   4.101  11.402  13.819
67902SOL    HW1 5539   4.173  11.367  13.870
67902SOL    HW2 5540   4.063  11.470  13.874
67903SOL     OW 5541   1.422  10.117   2.501
67903SOL    HW1 5542   1.357  10.181   2.530
67903SOL    HW2 5543   1.502  10.168   2.491
67904SOL     OW 5544   1.447  10.697  12.152
67904SOL    HW1 5545   1.452  10.642  12.073
67904SOL    HW2 5546   1.356  10.690  12.180
67905SOL     OW 5547  13.264   2.690   9.485
67905SOL    HW1 5548  13.236   2.689   9.394
67905SOL    HW2 5549  13.241   2.603   9.518
67906SOL     OW 5550   8.555   9.214   3.294
67906SOL    HW1 5551   8.480   9.223   3.352
67906SOL    HW2 5552   8.554   9.293   3.240
67907SOL     OW 5553   9.826   4.352   0.673
67907SOL    HW1 5554   9.814   4.403   0.593
67907SOL    HW2 5555   9.763   4.281   0.665
67908SOL     OW 5556   2.491   5.728   3.150
67908SOL    HW1 5557   2.507   5.647   3.199
67908SOL    HW2 5558   2.453   5.698   3.068
67909SOL     OW 5559   0.149  12.945   2.954
67909SOL    HW1 5560   0.162  12.859   2.994
67909SOL    HW2 5561   0.082  12.930   2.887
67910SOL     OW 5562   7.284   6.610  12.851
67910SOL    HW1 5563   7.271   6.655  12.768
67910SOL    HW2 5564   7.357   6.550  12.835
67911SOL     OW 5565  13.703  13.074  12.956
67911SOL    HW1 5566  13.796  13.051  12.963
67911SOL    HW2 5567  13.702  13.169  12.964
67912SOL     OW 5568   6.322   1.201   0.804
67912SOL    HW1 5569   6.408   1.167   0.775
67912SOL    HW2 5570   6.324   1.294   0.781
67913SOL     OW 5571  13.567   7.891  13.282
67913SOL    HW1 5572  13.471   7.891  13.274
67913SOL    HW2 5573  13.584   7.945  13.360
67914SOL     OW 5574   6.135   8.036  14.724
67914SOL    HW1 5575   6.223   8.072  14.738
67914SOL    HW2 5576   6.148   7.941  14.720
67915SOL     OW 5577  13.526   2.989   5.103
67915SOL    HW1 5578  13.543   2.906   5.147
67915SOL    HW2 5579  13.431   2.998   5.105
67916SOL     OW 5580   6.568   5.637  10.344
67916SOL    HW1 5581   6.481   5.600  10.333
67916SOL    HW2 5582   6.553   5.730  10.361
67917SOL     OW 5583  12.429   6.643   6.437
67917SOL    HW1 5584  12.410   6.576   6.372
67917SOL    HW2 5585  12.498   6.605   6.492
67918SOL     OW 5586  10.327   7.390   2.821
67918SOL    HW1 5587  10.321   7.472   2.870
67918SOL    HW2 5588  10.408   7.349   2.851
67919SOL     OW 5589  12.069   7.776  11.444
67919SOL    HW1 5590  12.160   7.784  11.471
67919SOL    HW2 5591  12.024   7.742  11.521
67920SOL     OW 5592  14.183  12.538   8.372
67920SOL    HW1 5593  14.136  12.473   8.319
67920SOL    HW2 5594  14.166  12.513   8.462
67921SOL     OW 5595  14.699   2.407   0.937
67921SOL    HW1 5596  14.641   2.415   1.012
67921SOL    HW2 5597  14.729   2.496   0.919
67922SOL     OW 5598   0.355  10.676   5.130
67922SOL    HW1 5599   0.309  10.599   5.095
67922SOL    HW2 5600   0.446  10.662   5.105
67923SOL     OW 5601  14.223  11.397  11.537
67923SOL    HW1 5602  14.217  11.457  11.611
67923SOL    HW2 5603  14.216  11.309  11.576
67924SOL     OW 5604   6.533   7.218   1.615
67924SOL    HW1 5605   6.542   7.170   1.697
67924SOL    HW2 5606   6.524   7.310   1.641
67925SOL     OW 5607   6.594   1.855  13.673
67925SOL    HW1 5608   6.556   1.941  13.654
67925SOL    HW2 5609   6.527   1.809  13.724
67926SOL     OW 5610   4.526  13.887  10.323
67926SOL    HW1 5611   4.516  13.796  10.298
67926SOL    HW2 5612   4.504  13.936  10.244
67927SOL     OW 5613   2.265   7.440   9.952
67927SOL    HW1 5614   2.214   7.391  10.017
67927SOL    HW2 5615   2.352   7.399   9.955
67928SOL     OW 5616  12.162   7.025   5.343
67928SOL    HW1 5617  12.234   7.032   5.406
67928SOL    HW2 5618  12.141   7.116   5.321
67929SOL     OW 5619  10.316   4.165  10.821
67929SOL    HW1 5620  10.390   4.121  10.779
67929SOL    HW2 5621  10.347   4.185  10.910
67930SOL     OW 5622   2.638   2.138   8.160
67930SOL    HW1 5623   2.706   2.185   8.112
67930SOL    HW2 5624   2.592   2.205   8.210
67931SOL     OW 5625   9.109  12.845   2.332
67931SOL    HW1 5626   9.188  12.861   2.281
67931SOL    HW2 5627   9.044  12.816   2.268
67932SOL     OW 5628  12.011   1.953  11.857
67932SOL    HW1 5629  12.010   2.040  11.898
67932SOL    HW2 5630  12.042   1.895  11.926
67933SOL     OW 5631   0.221   3.351   9.852
67933SOL    HW1 5632   0.136   3.311   9.837
67933SOL    HW2 5633   0.209   3.443   9.827
67934SOL     OW 5634  14.843  14.187   4.398
67934SOL    HW1 5635   0.015  14.207   4.319
67934SOL    HW2 5636  14.769  14.135   4.367
67935SOL     OW 5637   7.879  13.980  10.541
67935SOL    HW1 5638   7.876  14.003  10.634
67935SOL    HW2 5639   7.838  14.055  10.498
67936SOL     OW 5640   9.442  10.129  11.907
67936SOL    HW1 5641   9.525  10.147  11.952
67936SOL    HW2 5642   9.397  10.066  11.963
67937SOL     OW 5643   9.987   8.226   5.832
67937SOL    HW1 5644   9.913   8.166   5.829
67937SOL    HW2 5645   9.958   8.298   5.888
67938SOL     OW 5646  12.689   4.867  13.870
67938SOL    HW1 5647  12.691   4.955  13.909
67938SOL    HW2 5648  12.619   4.872  13.804
67939SOL     OW 5649  14.320   6.838  14.017
67939SOL    HW1 5650  14.369   6.900  13.964
67939SOL    HW2 5651  14.293   6.887  14.094
67940SOL     OW 5652   0.640   9.320   7.331
67940SOL    HW1 5653   0.599   9.248   7.283
67940SOL    HW2 5654   0.611   9.399   7.285
67941SOL     OW 5655   3.274   2.533   5.450
67941SOL    HW1 5656   3.326   2.544   5.370
67941SOL    HW2 5657   3.338   2.505   5.516
67942SOL     OW 5658   4.069  11.075   1.776
67942SOL    HW1 5659   4.032  10.989   1.795
67942SOL    HW2 5660   4.017  11.109   1.703
67943SOL     OW 5661   1.041  11.902   7.229
67943SOL    HW1 5662   1.037  11.862   7.316
67943SOL    HW2 5663   1.025  11.830   7.168
67944SOL     OW 5664  13.796  14.635  10.092
67944SOL    HW1 5665  13.712  14.628  10.046
67944SOL    HW2 5666  13.852  14.684  10.032
67945SOL     OW 5667   7.702   9.407   7.833
67945SOL    HW1 5668   7.768   9.426   7.900
67945SOL    HW2 5669   7.621   9.395   7.883
67946SOL     OW 5670   6.231   7.414   4.141
67946SOL    HW1 5671   6.149   7.370   4.120
67946SOL    HW2 5672   6.209   7.507   4.141
67947SOL     OW 5673  12.133  14.400  11.295
67947SOL    HW1 5674  12.038  14.392  11.289
67947SOL    HW2 5675  12.165  14.382  11.207
67948SOL     OW 5676   1.650  11.571   5.559
67948SOL    HW1 5677   1.616  11.661   5.558
67948SOL    HW2 5678   1.655  11.547   5.466
67949SOL     OW 5679   3.046  14.812   8.464
67949SOL    HW1 5680   3.091  14.835   8.546
67949SOL    HW2 5681   2.998  14.731   8.485
67950SOL     OW 5682   1.749   7.818  13.655
67950SOL    HW1 5683   1.749   7.808  13.750
67950SOL    HW2 5684   1.827   7.771  13.626
67951SOL     OW 5685   2.310  12.917  12.923
67951SOL    HW1 5686   2.233  12.861  12.927
67951SOL    HW2 5687   2.324  12.945  13.013
67952SOL     OW 5688   5.471  12.045  14.538
67952SOL    HW1 5689   5.407  12.081  14.476
67952SOL    HW2 5690   5.549  12.028  14.485
67953SOL     OW 5691   6.024   0.536  12.730
67953SOL    HW1 5692   6.039   0.598  12.801
67953SOL    HW2 5693   6.008   0.591  12.653
67954SOL     OW 5694   5.405   8.930   3.181
67954SOL    HW1 5695   5.392   8.860   3.117
67954SOL    HW2 5696   5.459   8.994   3.135
67955SOL     OW 5697   3.132   1.412  10.036
67955SOL    HW1 5698   3.225   1.420  10.015
67955SOL    HW2 5699   3.131   1.383  10.128
67956SOL     OW 5700  12.484   5.611   9.806
67956SOL    HW1 5701  12.433   5.591   9.727
67956SOL    HW2 5702  12.575   5.610   9.777
67957SOL     OW 5703   9.668  12.052   8.865
67957SOL    HW1 5704   9.692  12.127   8.810
67957SOL    HW2 5705   9.747  11.999   8.870
67958SOL     OW 5706  10.956   3.562   7.504
67958SOL    HW1 5707  10.956   3.657   7.487
67958SOL    HW2 5708  11.001   3.525   7.428
67959SOL     OW 5709   3.002  11.600   6.245
67959SOL    HW1 5710   2.936  11.597   6.314
67959SOL    HW2 5711   3.025  11.508   6.229
67960SOL     OW 5712   7.184   5.343   9.959
67960SOL    HW1 5713   7.089   5.329   9.950
67960SOL    HW2 5714   7.222   5.287   9.891
67961SOL     OW 5715   2.229   7.965   2.607
67961SOL    HW1 5716   2.266   7.885   2.644
67961SOL    HW2 5717   2.303   8.026   2.601
67962SOL     OW 5718  14.613   2.142  12.544
67962SOL    HW1 5719  14.694   2.094  12.561
67962SOL    HW2 5720  14.641   2.222  12.498
67963SOL     OW 5721   5.534   2.050  10.561
67963SOL    HW1 5722   5.540   1.976  10.622
67963SOL    HW2 5723   5.600   2.112  10.591
67964SOL     OW 5724   1.995   7.786   7.121
67964SOL    HW1 5725   2.059   7.856   7.135
67964SOL    HW2 5726   1.967   7.761   7.209
67965SOL     OW 5727   4.002  13.164  13.978
67965SOL    HW1 5728   3.935  13.113  14.024
67965SOL    HW2 5729   3.955  13.241  13.946
67966SOL     OW 5730   4.709   5.158   8.386
67966SOL    HW1 5731   4.727   5.125   8.298
67966SOL    HW2 5732   4.619   5.130   8.404
67967SOL     OW 5733  12.225  10.296   2.695
67967SOL    HW1 5734  12.133  10.316   2.679
67967SOL    HW2 5735  12.224  10.222   2.754
67968SOL     OW 5736   3.530   5.295   4.543
67968SOL    HW1 5737   3.504   5.356   4.612
67968SOL    HW2 5738   3.489   5.330   4.464
67969SOL     OW 5739   6.467   4.600   4.624
67969SOL    HW1 5740   6.523   4.589   4.547
67969SOL    HW2 5741   6.465   4.694   4.639
67970SOL     OW 5742   1.901  11.782   6.783
67970SOL    HW1 5743   1.837  11.720   6.818
67970SOL    HW2 5744   1.986  11.745   6.807
67971SOL     OW 5745   0.516  14.816   1.058
67971SOL    HW1 5746   0.555  14.733   1.086
67971SOL    HW2 5747   0.566   0.004   1.105
67972SOL     OW 5748   2.268  13.985   3.895
67972SOL    HW1 5749   2.353  14.028   3.905
67972SOL    HW2 5750   2.206  14.045   3.937
67973SOL     OW 5751   7.495  10.063   4.876
67973SOL    HW1 5752   7.468   9.971   4.879
67973SOL    HW2 5753   7.432  10.105   4.818
67974SOL     OW 5754  12.301   0.870   5.119
67974SOL    HW1 5755  12.309   0.905   5.031
67974SOL    HW2 5756  12.280   0.946   5.174
67975SOL     OW 5757   2.174   6.438   4.819
67975SOL    HW1 5758   2.217   6.381   4.883
67975SOL    HW2 5759   2.101   6.386   4.785
67976SOL     OW 5760   2.237  12.082  11.008
67976SOL    HW1 5761   2.311  12.023  11.018
67976SOL    HW2 5762   2.185  12.044  10.938
67977SOL     OW 5763   7.873   9.300   6.758
67977SOL    HW1 5764   7.857   9.286   6.851
67977SOL    HW2 5765   7.867   9.213   6.719
67978SOL     OW 5766  12.773   7.759  11.786
67978SOL    HW1 5767  12.752   7.852  11.772
67978SOL    HW2 5768  12.708   7.712  11.733
67979SOL     OW 5769   6.278  10.141  13.050
67979SOL    HW1 5770   6.292  10.073  13.115
67979SOL    HW2 5771   6.291  10.223  13.099
67980SOL     OW 5772  12.740   5.120   2.022
67980SOL    HW1 5773  12.743   5.117   1.927
67980SOL    HW2 5774  12.813   5.065   2.050
67981SOL     OW 5775   1.692   2.632   6.187
67981SOL    HW1 5776   1.779   2.614   6.222
67981SOL    HW2 5777   1.632   2.591   6.249
67982SOL     OW 5778  14.237   1.276   1.425
67982SOL    HW1 5779  14.202   1.351   1.475
67982SOL    HW2 5780  14.332   1.286   1.432
67983SOL     OW 5781   3.808  13.342  13.936
67983SOL    HW1 5782   3.818  13.424  13.984
67983SOL    HW2 5783   3.765  13.368  13.854
67984SOL     OW 5784   0.436   3.545   1.637
67984SOL    HW1 5785   0.499   3.609   1.604
67984SOL    HW2 5786   0.373   3.533   1.566
67985SOL     OW 5787  14.597  12.303  13.321
67985SOL    HW1 5788  14.687  12.283  13.298
67985SOL    HW2 5789  14.603  12.384  13.372
67986SOL     OW 5790  12.773  14.355   9.393
67986SOL    HW1 5791  12.734  14.322   9.312
67986SOL    HW2 5792  12.857  14.309   9.399
67987SOL     OW 5793  12.942   8.980   7.466
67987SOL    HW1 5794  12.993   9.056   7.437
67987SOL    HW2 5795  12.996   8.905   7.442
67988SOL     OW 5796   0.790   4.232   1.770
67988SOL    HW1 5797   0.771   4.261   1.859
67988SOL    HW2 5798   0.704   4.209   1.734
67989SOL     OW 5799   0.943   8.683  12.633
67989SOL    HW1 5800   1.031   8.675  12.597
67989SOL    HW2 5801   0.947   8.641  12.718
67990SOL     OW 5802   2.665   8.376   6.676
67990SOL    HW1 5803   2.603   8.309   6.707
67990SOL    HW2 5804   2.732   8.326   6.629
67991SOL     OW 5805   6.051   3.262  10.222
67991SOL    HW1 5806   5.975   3.271  10.164
67991SOL    HW2 5807   6.013   3.230  10.304
67992SOL     OW 5808  12.422  12.535   0.058
67992SOL    HW1 5809  12.351  12.554   0.119
67992SOL    HW2 5810  12.380  12.537  14.851
67993SOL     OW 5811   2.848   8.149  10.752
67993SOL    HW1 5812   2.882   8.220  10.807
67993SOL    HW2 5813   2.871   8.069  10.800
67994SOL     OW 5814   8.737   0.962   6.020
67994SOL    HW1 5815   8.757   0.876   5.982
67994SOL    HW2 5816   8.670   0.945   6.086
67995SOL     OW 5817   5.873  11.007  10.561
67995SOL    HW1 5818   5.854  11.097  10.537
67995SOL    HW2 5819   5.918  10.971  10.485
67996SOL     OW 5820   1.964   4.218   9.002
67996SOL    HW1 5821   1.985   4.143   9.058
67996SOL    HW2 5822   1.974   4.294   9.059
67997SOL     OW 5823  13.662   7.253  12.765
67997SOL    HW1 5824  13.754   7.262  12.789
67997SOL    HW2 5825  13.653   7.306  12.685
67998SOL     OW 5826   2.431   8.817  11.270
67998SOL    HW1 5827   2.340   8.826  11.298
67998SOL    HW2 5828   2.427   8.772  11.186
67999SOL     OW 5829   8.277   3.784  11.714
67999SOL    HW1 5830   8.312   3.807  11.628
67999SOL    HW2 5831   8.354   3.780  11.771
68000SOL     OW 5832  11.993  13.572  12.911
68000SOL    HW1 5833  11.957  13.590  12.825
68000SOL    HW2 5834  12.068  13.514  12.894
68001SOL     OW 5835   0.694   8.431  10.379
68001SOL    HW1 5836   0.777   8.390  10.404
68001SOL    HW2 5837   0.639   8.422  10.457
68002SOL     OW 5838  12.564  13.635   3.602
68002SOL    HW1 5839  12.563  13.615   3.696
68002SOL    HW2 5840  12.473  13.629   3.575
68003SOL     OW 5841   3.116   7.907   4.330
68003SOL    HW1 5842   3.152   7.976   4.385
68003SOL    HW2 5843   3.115   7.943   4.242
68004SOL     OW 5844   6.853  10.447  13.656
68004SOL    HW1 5845   6.795  10.372  13.657
68004SOL    HW2 5846   6.795  10.522  13.641
68005SOL     OW 5847   1.746  11.004  10.401
68005SOL    HW1 5848   1.824  10.962  10.365
68005SOL    HW2 5849   1.726  11.075  10.340
68006SOL     OW 5850  12.215   8.714   0.499
68006SOL    HW1 5851  12.235   8.803   0.531
68006SOL    HW2 5852  12.262   8.708   0.416
68007SOL     OW 5853   8.792  11.168  14.851
68007SOL    HW1 5854   8.740  11.100   0.016
68007SOL    HW2 5855   8.878  11.162   0.013
68008SOL     OW 5856   0.798  10.346   6.603
68008SOL    HW1 5857   0.816  10.439   6.615
68008SOL    HW2 5858   0.706  10.342   6.578
68009SOL     OW 5859   5.977   3.722   8.901
68009SOL    HW1 5860   6.006   3.707   8.991
68009SOL    HW2 5861   6.016   3.806   8.878
68010SOL     OW 5862  13.671   2.489  14.210
68010SOL    HW1 5863  13.667   2.444  14.126
68010SOL    HW2 5864  13.764   2.495  14.230
68011SOL     OW 5865  10.882   1.329  11.773
68011SOL    HW1 5866  10.942   1.255  11.773
68011SOL    HW2 5867  10.795   1.290  11.779
68012SOL     OW 5868   5.535   6.905   0.552
68012SOL    HW1 5869   5.557   6.866   0.467
68012SOL    HW2 5870   5.512   6.995   0.532
68013SOL     OW 5871   2.754   2.472   2.995
68013SOL    HW1 5872   2.774   2.538   2.928
68013SOL    HW2 5873   2.703   2.520   3.061
68014SOL     OW 5874   2.682   9.136   5.588
68014SOL    HW1 5875   2.642   9.149   5.501
68014SOL    HW2 5876   2.717   9.047   5.585
68015SOL     OW 5877  13.404   8.526   8.959
68015SOL    HW1 5878  13.475   8.499   8.902
68015SOL    HW2 5879  13.431   8.500   9.047
68016SOL     OW 5880   4.337  10.562   2.693
68016SOL    HW1 5881   4.432  10.562   2.678
68016SOL    HW2 5882   4.316  10.470   2.708
68017SOL     OW 5883   7.808   4.212   5.901
68017SOL    HW1 5884   7.713   4.203   5.886
68017SOL    HW2 5885   7.843   4.124   5.886
68018SOL     OW 5886   9.336  14.152   7.359
68018SOL    HW1 5887   9.309  14.070   7.400
68018SOL    HW2 5888   9.284  14.219   7.403
68019SOL     OW 5889   9.419  11.726   0.700
68019SOL    HW1 5890   9.328  11.699   0.712
68019SOL    HW2 5891   9.466  11.683   0.771
68020SOL     OW 5892   0.614   4.261  10.969
68020SOL    HW1 5893   0.611   4.178  10.920
68020SOL    HW2 5894   0.626   4.328  10.901
68021SOL     OW 5895  13.919   0.621  11.295
68021SOL    HW1 5896  13.891   0.712  11.285
68021SOL    HW2 5897  14.014   0.626  11.299
68022SOL     OW 5898   1.221   7.672  11.942
68022SOL    HW1 5899   1.270   7.751  11.964
68022SOL    HW2 5900   1.200   7.632  12.027
68023SOL     OW 5901   3.778   1.916   4.147
68023SOL    HW1 5902   3.767   1.963   4.064
68023SOL    HW2 5903   3.863   1.946   4.181
68024SOL     OW 5904  13.307   4.572  12.307
68024SOL    HW1 5905  13.279   4.663  12.319
68024SOL    HW2 5906  13.295   4.556  12.213
68025SOL     OW 5907   5.217   3.580  11.172
68025SOL    HW1 5908   5.165   3.655  11.201
68025SOL    HW2 5909   5.257   3.609  11.090
68026SOL     OW 5910  13.718   7.625  10.079
68026SOL    HW1 5911  13.623   7.620  10.091
68026SOL    HW2 5912  13.736   7.561  10.009
68027SOL     OW 5913   8.842   4.375  14.027
68027SOL    HW1 5914   8.894   4.299  14.003
68027SOL    HW2 5915   8.898   4.450  14.010
68028SOL     OW 5916   5.011   3.650   1.882
68028SOL    HW1 5917   5.007   3.669   1.788
68028SOL    HW2 5918   5.030   3.735   1.923
68029SOL     OW 5919   5.410   9.357  12.899
68029SOL    HW1 5920   5.340   9.322  12.844
68029SOL    HW2 5921   5.435   9.439  12.856
68030SOL     OW 5922   1.798  10.389   5.818
68030SOL    HW1 5923   1.802  10.484   5.830
68030SOL    HW2 5924   1.841  10.374   5.733
68031SOL     OW 5925   7.683  11.996   2.773
68031SOL    HW1 5926   7.759  11.944   2.747
68031SOL    HW2 5927   7.608  11.938   2.760
68032SOL     OW 5928  11.958  11.334   9.532
68032SOL    HW1 5929  11.965  11.267   9.599
68032SOL    HW2 5930  12.044  11.376   9.531
68033SOL     OW 5931  12.515   1.618  12.146
68033SOL    HW1 5932  12.507   1.713  12.155
68033SOL    HW2 5933  12.444   1.582  12.199
68034SOL     OW 5934   9.874   4.819   0.362
68034SOL    HW1 5935   9.866   4.914   0.371
68034SOL    HW2 5936   9.938   4.806   0.293
68035SOL     OW 5937  13.562   6.925   9.635
68035SOL    HW1 5938  13.650   6.944   9.667
68035SOL    HW2 5939  13.504   6.980   9.688
68036SOL     OW 5940   6.505   5.744   0.078
68036SOL    HW1 5941   6.596   5.769   0.062
68036SOL    HW2 5942   6.468   5.732  14.870
68037SOL     OW 5943   7.061   3.837   8.331
68037SOL    HW1 5944   7.000   3.911   8.328
68037SOL    HW2 5945   7.135   3.864   8.276
68038SOL     OW 5946   4.135   7.959   5.063
68038SOL    HW1 5947   4.110   7.915   4.981
68038SOL    HW2 5948   4.210   7.908   5.095
68039SOL     OW 5949  13.460   9.301  11.045
68039SOL    HW1 5950  13.445   9.313  10.951
68039SOL    HW2 5951  13.396   9.234  11.071
68040SOL     OW 5952   5.705  13.325  14.227
68040SOL    HW1 5953   5.684  13.271  14.303
68040SOL    HW2 5954   5.665  13.409  14.246
68041SOL     OW 5955   9.021   6.612   6.614
68041SOL    HW1 5956   9.028   6.524   6.577
68041SOL    HW2 5957   9.034   6.600   6.708
68042SOL     OW 5958   1.420  12.675   0.808
68042SOL    HW1 5959   1.329  12.681   0.838
68042SOL    HW2 5960   1.459  12.608   0.863
68043SOL     OW 5961   4.900   4.447   8.861
68043SOL    HW1 5962   4.826   4.484   8.909
68043SOL    HW2 5963   4.892   4.352   8.874
68044SOL     OW 5964   6.235  12.682   5.844
68044SOL    HW1 5965   6.315  12.698   5.795
68044SOL    HW2 5966   6.169  12.663   5.777
68045SOL     OW 5967  13.751   4.008   0.475
68045SOL    HW1 5968  13.812   4.043   0.409
68045SOL    HW2 5969  13.807   3.957   0.534
68046SOL     OW 5970   5.031   1.284  10.208
68046SOL    HW1 5971   5.012   1.202  10.161
68046SOL    HW2 5972   5.119   1.308  10.180
68047SOL     OW 5973   4.771   0.909   1.615
68047SOL    HW1 5974   4.863   0.904   1.640
68047SOL    HW2 5975   4.725   0.931   1.696
68048SOL     OW 5976   7.066  13.229   1.960
68048SOL    HW1 5977   7.029  13.224   1.872
68048SOL    HW2 5978   7.058  13.140   1.994
68049SOL     OW 5979  10.289   1.785  10.713
68049SOL    HW1 5980  10.318   1.796  10.804
68049SOL    HW2 5981  10.351   1.723  10.675
68050SOL     OW 5982   7.381  14.747   9.083
68050SOL    HW1 5983   7.470  14.745   9.049
68050SOL    HW2 5984   7.353  14.838   9.072
68051SOL     OW 5985  12.021  10.069   4.095
68051SOL    HW1 5986  11.952  10.005   4.074
68051SOL    HW2 5987  12.098  10.015   4.114
68052SOL     OW 5988   5.430  12.966   0.126
68052SOL    HW1 5989   5.485  12.989   0.051
68052SOL    HW2 5990   5.392  13.049   0.154
68053SOL     OW 5991  10.268  11.321  11.455
68053SOL    HW1 5992  10.183  11.357  11.430
68053SOL    HW2 5993  10.264  11.230  11.426
68054SOL     OW 5994   5.909   7.824   3.923
68054SOL    HW1 5995   5.875   7.895   3.868
68054SOL    HW2 5996   5.900   7.857   4.013
68055SOL     OW 5997   8.205   0.484  14.619
68055SOL    HW1 5998   8.293   0.505  14.650
68055SOL    HW2 5999   8.169   0.568  14.590
68056SOL     OW 6000   7.939   1.122   1.725
68056SOL    HW1 6001   7.990   1.145   1.802
68056SOL    HW2 6002   7.989   1.051   1.684
68057SOL     OW 6003  12.660   7.693  10.224
68057SOL    HW1 6004  12.624   7.683  10.136
68057SOL    HW2 6005  12.688   7.604  10.249
68058SOL     OW 6006   7.224   9.586   8.025
68058SOL    HW1 6007   7.191   9.675   8.014
68058SOL    HW2 6008   7.146   9.534   8.044
68059SOL     OW 6009   2.572  11.610  11.427
68059SOL    HW1 6010   2.630  11.684  11.445
68059SOL    HW2 6011   2.626  11.548  11.378
68060SOL     OW 6012  14.200   9.953   8.076
68060SOL    HW1 6013  14.289   9.982   8.095
68060SOL    HW2 6014  14.168  10.016   8.011
68061SOL     OW 6015  12.285   3.292   6.265
68061SOL    HW1 6016  12.317   3.304   6.355
68061SOL    HW2 6017  12.316   3.206   6.240
68062SOL     OW 6018   5.730  10.249   8.284
68062SOL    HW1 6019   5.774  10.329   8.254
68062SOL    HW2 6020   5.785  10.178   8.252
68063SOL     OW 6021   3.953   1.119  12.028
68063SOL    HW1 6022   4.013   1.067  12.082
68063SOL    HW2 6023   3.881   1.142  12.087
68064SOL     OW 6024  10.553  14.238   1.748
68064SOL    HW1 6025  10.494  14.270   1.816
68064SOL    HW2 6026  10.522  14.151   1.726
68065SOL     OW 6027   8.677   8.726   3.605
68065SOL    HW1 6028   8.670   8.783   3.528
68065SOL    HW2 6029   8.603   8.667   3.598
68066SOL     OW 6030   6.454  12.583   0.273
68066SOL    HW1 6031   6.416  12.531   0.344
68066SOL    HW2 6032   6.391  12.653   0.258
68067SOL     OW 6033   3.597  13.352   6.029
68067SOL    HW1 6034   3.620  13.277   6.084
68067SOL    HW2 6035   3.570  13.420   6.091
68068SOL     OW 6036   0.994   7.061   3.406
68068SOL    HW1 6037   0.994   6.978   3.358
68068SOL    HW2 6038   0.942   7.043   3.485
68069SOL     OW 6039   8.808   6.934   0.534
68069SOL    HW1 6040   8.783   6.901   0.448
68069SOL    HW2 6041   8.868   7.006   0.516
68070SOL     OW 6042   3.916   2.191   6.223
68070SOL    HW1 6043   3.941   2.169   6.313
68070SOL    HW2 6044   3.868   2.274   6.232
68071SOL     OW 6045  13.332   9.593  10.862
68071SOL    HW1 6046  13.330   9.504  10.827
68071SOL    HW2 6047  13.318   9.581  10.956
68072SOL     OW 6048   2.034   3.413   7.852
68072SOL    HW1 6049   2.042   3.488   7.794
68072SOL    HW2 6050   2.056   3.448   7.939
68073SOL     OW 6051  14.284   0.749   0.915
68073SOL    HW1 6052  14.288   0.678   0.979
68073SOL    HW2 6053  14.341   0.817   0.950
68074SOL     OW 6054   6.727   6.289   4.584
68074SOL    HW1 6055   6.645   6.257   4.546
68074SOL    HW2 6056   6.776   6.325   4.510
68075SOL     OW 6057  14.503   6.980  13.833
68075SOL    HW1 6058  14.489   7.050  13.769
68075SOL    HW2 6059  14.567   6.922  13.790
68076SOL     OW 6060   7.918   3.748  11.807
68076SOL    HW1 6061   7.958   3.664  11.783
68076SOL    HW2 6062   7.832   3.724  11.840
68077SOL     OW 6063   2.615   1.333  12.605
68077SOL    HW1 6064   2.660   1.255  12.571
68077SOL    HW2 6065   2.681   1.402  12.600
68078SOL     OW 6066   7.787  13.493   9.322
68078SOL    HW1 6067   7.734  13.566   9.355
68078SOL    HW2 6068   7.818  13.448   9.401
68079SOL     OW 6069  10.996   0.634   5.671
68079SOL    HW1 6070  10.998   0.643   5.575
68079SOL    HW2 6071  10.960   0.717   5.702
68080SOL     OW 6072  11.779   2.625   7.034
68080SOL    HW1 6073  11.736   2.668   6.960
68080SOL    HW2 6074  11.746   2.670   7.111
68081SOL     OW 6075   5.629  10.492  13.789
68081SOL    HW1 6076   5.619  10.577  13.832
68081SOL    HW2 6077   5.540  10.458  13.782
68082SOL     OW 6078   6.247   2.348   0.169
68082SOL    HW1 6079   6.275   2.392   0.088
68082SOL    HW2 6080   6.168   2.300   0.144
68083SOL     OW 6081  14.877   2.062  11.049
68083SOL    HW1 6082  14.784   2.079  11.042
68083SOL    HW2 6083   0.006   2.003  11.125
68084SOL     OW 6084   4.137  10.994   8.593
68084SOL    HW1 6085   4.167  11.014   8.681
68084SOL    HW2 6086   4.063  10.935   8.604
68085SOL     OW 6087   4.447   8.548   4.087
68085SOL    HW1 6088   4.431   8.565   4.180
68085SOL    HW2 6089   4.529   8.593   4.069
68086SOL     OW 6090  13.966  10.524   2.746
68086SOL    HW1 6091  14.037  10.561   2.798
68086SOL    HW2 6092  14.007  10.497   2.664
68087SOL     OW 6093  13.993   7.862  10.473
68087SOL    HW1 6094  14.058   7.877  10.542
68087SOL    HW2 6095  14.042   7.870  10.391
68088SOL     OW 6096  11.878   9.127  11.287
68088SOL    HW1 6097  11.868   9.217  11.256
68088SOL    HW2 6098  11.968   9.124  11.321
68089SOL     OW 6099   8.587  13.107  11.349
68089SOL    HW1 6100   8.588  13.178  11.285
68089SOL    HW2 6101   8.579  13.150  11.434
68090SOL     OW 6102   2.081   9.627  11.099
68090SOL    HW1 6103   2.072   9.665  11.012
68090SOL    HW2 6104   2.122   9.695  11.152
68091SOL     OW 6105  12.964   2.563  10.720
68091SOL    HW1 6106  12.883   2.579  10.671
68091SOL    HW2 6107  13.029   2.543  10.652
68092SOL     OW 6108   6.337   7.484   9.955
68092SOL    HW1 6109   6.359   7.485   9.861
68092SOL    HW2 6110   6.358   7.572   9.985
68093SOL     OW 6111  12.792  14.736   4.478
68093SOL    HW1 6112  12.727  14.673   4.509
68093SOL    HW2 6113  12.833  14.770   4.558
68094SOL     OW 6114  10.710   4.553  11.554
68094SOL    HW1 6115  10.682   4.629  11.606
68094SOL    HW2 6116  10.765   4.590  11.485
68095SOL     OW 6117  12.081  12.455  10.037
68095SOL    HW1 6118  12.060  12.363  10.052
68095SOL    HW2 6119  12.048  12.473   9.949
68096SOL     OW 6120   8.414   3.662   9.784
68096SOL    HW1 6121   8.507   3.668   9.808
68096SOL    HW2 6122   8.367   3.690   9.862
68097SOL     OW 6123   1.003   9.328   2.627
68097SOL    HW1 6124   0.932   9.265   2.630
68097SOL    HW2 6125   0.960   9.414   2.624
68098SOL     OW 6126   9.452   2.165   1.606
68098SOL    HW1 6127   9.435   2.072   1.615
68098SOL    HW2 6128   9.390   2.207   1.666
68099SOL     OW 6129  13.308   7.849   2.662
68099SOL    HW1 6130  13.398   7.827   2.687
68099SOL    HW2 6131  13.304   7.828   2.568
68100SOL     OW 6132  12.249  10.358   6.860
68100SOL    HW1 6133  12.212  10.338   6.774
68100SOL    HW2 6134  12.259  10.453   6.861
68101SOL     OW 6135   5.889   7.991  11.774
68101SOL    HW1 6136   5.816   7.930  11.768
68101SOL    HW2 6137   5.897   8.009  11.868
68102SOL     OW 6138  12.058  10.198  12.993
68102SOL    HW1 6139  12.131  10.251  12.963
68102SOL    HW2 6140  12.064  10.117  12.942
68103SOL     OW 6141   5.152  14.267  14.587
68103SOL    HW1 6142   5.212  14.228  14.651
68103SOL    HW2 6143   5.163  14.214  14.508
68104SOL     OW 6144   5.924   1.808   6.444
68104SOL    HW1 6145   5.885   1.724   6.421
68104SOL    HW2 6146   6.007   1.810   6.397
68105SOL     OW 6147   8.327   4.864   5.853
68105SOL    HW1 6148   8.340   4.813   5.933
68105SOL    HW2 6149   8.377   4.945   5.868
68106SOL     OW 6150   7.560   1.552  13.817
68106SOL    HW1 6151   7.562   1.457  13.821
68106SOL    HW2 6152   7.524   1.579  13.902
68107SOL     OW 6153  10.463   8.838  13.801
68107SOL    HW1 6154  10.411   8.819  13.723
68107SOL    HW2 6155  10.550   8.804  13.780
68108SOL     OW 6156  12.783  10.107   1.606
68108SOL    HW1 6157  12.750  10.084   1.693
68108SOL    HW2 6158  12.837  10.185   1.620
68109SOL     OW 6159   6.518   8.301   4.453
68109SOL    HW1 6160   6.517   8.396   4.468
68109SOL    HW2 6161   6.519   8.263   4.541
68110SOL     OW 6162   2.324   5.278   3.246
68110SOL    HW1 6163   2.302   5.194   3.287
68110SOL    HW2 6164   2.361   5.254   3.162
68111SOL     OW 6165  13.329   3.649  12.097
68111SOL    HW1 6166  13.272   3.712  12.053
68111SOL    HW2 6167  13.406   3.643  12.040
68112SOL     OW 6168  11.151   7.745   5.979
68112SOL    HW1 6169  11.141   7.752   5.884
68112SOL    HW2 6170  11.092   7.674   6.004
68113SOL     OW 6171   1.605   0.781  11.696
68113SOL    HW1 6172   1.604   0.831  11.777
68113SOL    HW2 6173   1.517   0.792  11.660
68114SOL     OW 6174  13.722  10.521  13.835
68114SOL    HW1 6175  13.638  10.490  13.868
68114SOL    HW2 6176  13.728  10.484  13.747
68115SOL     OW 6177   7.325   1.807   5.146
68115SOL    HW1 6178   7.399   1.865   5.166
68115SOL    HW2 6179   7.354   1.721   5.176
68116SOL     OW 6180   6.882  13.902   3.058
68116SOL    HW1 6181   6.820  13.850   3.109
68116SOL    HW2 6182   6.827  13.957   3.002
68117SOL     OW 6183   1.044   6.140  14.861
68117SOL    HW1 6184   1.133   6.175  14.864
68117SOL    HW2 6185   1.014   6.143   0.073
68118SOL     OW 6186   9.708   7.472   3.969
68118SOL    HW1 6187   9.686   7.508   4.055
68118SOL    HW2 6188   9.804   7.472   3.967
68119SOL     OW 6189  13.408   2.509   3.511
68119SOL    HW1 6190  13.433   2.601   3.517
68119SOL    HW2 6191  13.451   2.478   3.431
68120SOL     OW 6192   8.660  10.771   1.583
68120SOL    HW1 6193   8.650  10.692   1.530
68120SOL    HW2 6194   8.755  10.779   1.596
68121SOL     OW 6195  13.612   5.115   2.978
68121SOL    HW1 6196  13.694   5.157   2.951
68121SOL    HW2 6197  13.546   5.152   2.920
68122SOL     OW 6198   1.584   8.207   4.455
68122SOL    HW1 6199   1.514   8.264   4.422
68122SOL    HW2 6200   1.645   8.268   4.497
68123SOL     OW 6201   3.592   4.372  14.389
68123SOL    HW1 6202   3.573   4.454  14.345
68123SOL    HW2 6203   3.580   4.390  14.482
68124SOL     OW 6204  12.120   5.799   6.801
68124SOL    HW1 6205  12.134   5.891   6.780
68124SOL    HW2 6206  12.141   5.752   6.721
68125SOL     OW 6207   4.522  12.122   9.845
68125SOL    HW1 6208   4.568  12.191   9.797
68125SOL    HW2 6209   4.562  12.121   9.931
68126SOL     OW 6210  12.354  10.956  12.970
68126SOL    HW1 6211  12.290  10.957  13.041
68126SOL    HW2 6212  12.301  10.946  12.891
68127SOL     OW 6213   3.472   7.121   4.224
68127SOL    HW1 6214   3.485   7.153   4.314
68127SOL    HW2 6215   3.463   7.201   4.172
68128SOL     OW 6216   5.188  10.799   8.336
68128SOL    HW1 6217   5.270  10.839   8.307
68128SOL    HW2 6218   5.193  10.709   8.305
68129SOL     OW 6219   7.770  14.048   9.518
68129SOL    HW1 6220   7.776  13.974   9.579
68129SOL    HW2 6221   7.860  14.065   9.492
68130SOL     OW 6222   8.567   1.188   8.110
68130SOL    HW1 6223   8.592   1.186   8.018
68130SOL    HW2 6224   8.548   1.280   8.128
68131SOL     OW 6225   0.247  13.342   8.508
68131SOL    HW1 6226   0.241  13.249   8.488
68131SOL    HW2 6227   0.334  13.368   8.479
68132SOL     OW 6228   9.812  14.656   8.372
68132SOL    HW1 6229   9.792  14.741   8.335
68132SOL    HW2 6230   9.899  14.635   8.339
68133SOL     OW 6231  10.045  12.394  11.246
68133SOL    HW1 6232  10.043  12.445  11.165
68133SOL    HW2 6233  10.058  12.304  11.216
68134SOL     OW 6234   5.948   6.527   4.141
68134SOL    HW1 6235   6.043   6.530   4.148
68134SOL    HW2 6236   5.929   6.438   4.111
68135SOL     OW 6237  11.407   8.045  14.512
68135SOL    HW1 6238  11.319   8.055  14.549
68135SOL    HW2 6239  11.395   7.983  14.439
68136SOL     OW 6240  12.171   0.530   1.439
68136SOL    HW1 6241  12.156   0.551   1.531
68136SOL    HW2 6242  12.195   0.614   1.399
68137SOL     OW 6243  14.274   1.595   6.740
68137SOL    HW1 6244  14.303   1.601   6.649
68137SOL    HW2 6245  14.286   1.683   6.775
68138SOL     OW 6246  12.488  14.004  12.544
68138SOL    HW1 6247  12.441  13.950  12.481
68138SOL    HW2 6248  12.558  14.045  12.494
68139SOL     OW 6249  11.729  14.383   8.859
68139SOL    HW1 6250  11.701  14.450   8.797
68139SOL    HW2 6251  11.648  14.351   8.897
68140SOL     OW 6252  10.485   3.473   0.047
68140SOL    HW1 6253  10.503   3.383   0.076
68140SOL    HW2 6254  10.569   3.518   0.055
68141SOL     OW 6255  10.752   9.494   6.586
68141SOL    HW1 6256  10.727   9.418   6.639
68141SOL    HW2 6257  10.832   9.466   6.542
68142SOL     OW 6258  13.247   3.906   7.819
68142SOL    HW1 6259  13.330   3.891   7.774
68142SOL    HW2 6260  13.269   3.900   7.912
68143SOL     OW 6261   8.628  13.296   7.588
68143SOL    HW1 6262   8.586  13.210   7.583
68143SOL    HW2 6263   8.621  13.320   7.681
68144SOL     OW 6264  14.178  13.634  13.161
68144SOL    HW1 6265  14.165  13.719  13.119
68144SOL    HW2 6266  14.259  13.600  13.123
68145SOL     OW 6267  11.810   2.777   7.295
68145SOL    HW1 6268  11.866   2.819   7.360
68145SOL    HW2 6269  11.781   2.697   7.337
68146SOL     OW 6270   9.296   7.664   0.844
68146SOL    HW1 6271   9.269   7.579   0.880
68146SOL    HW2 6272   9.300   7.649   0.750
68147SOL     OW 6273  13.966  14.025   8.706
68147SOL    HW1 6274  13.988  13.962   8.774
68147SOL    HW2 6275  14.030  14.095   8.716
68148SOL     OW 6276   3.524  10.221  13.209
68148SOL    HW1 6277   3.439  10.178  13.216
68148SOL    HW2 6278   3.504  10.311  13.184
68149SOL     OW 6279  10.314   8.103   0.829
68149SOL    HW1 6280  10.333   8.043   0.901
68149SOL    HW2 6281  10.221   8.122   0.837
68150SOL     OW 6282   9.708   7.539   6.579
68150SOL    HW1 6283   9.626   7.551   6.530
68150SOL    HW2 6284   9.773   7.588   6.529
68151SOL     OW 6285   2.694   0.513   7.763
68151SOL    HW1 6286   2.654   0.501   7.849
68151SOL    HW2 6287   2.782   0.476   7.773
68152SOL     OW 6288   4.538   9.507  14.167
68152SOL    HW1 6289   4.614   9.487  14.221
68152SOL    HW2 6290   4.468   9.452  14.202
68153SOL     OW 6291   3.534   4.485   8.225
68153SOL    HW1 6292   3.506   4.395   8.243
68153SOL    HW2 6293   3.454   4.537   8.233
68154SOL     OW 6294   2.712   9.600  13.491
68154SOL    HW1 6295   2.715   9.659  13.567
68154SOL    HW2 6296   2.741   9.655  13.418
68155SOL     OW 6297  14.816  13.730   1.578
68155SOL    HW1 6298  14.820  13.634   1.582
68155SOL    HW2 6299  14.827  13.751   1.486
68156SOL     OW 6300  12.772  11.796   2.809
68156SOL    HW1 6301  12.824  11.877   2.813
68156SOL    HW2 6302  12.688  11.820   2.850
68157SOL     OW 6303   1.111  10.406   0.163
68157SOL    HW1 6304   1.026  10.382   0.200
68157SOL    HW2 6305   1.152  10.459   0.232
68158SOL     OW 6306  12.982   9.507  12.971
68158SOL    HW1 6307  13.022   9.470  13.050
68158SOL    HW2 6308  12.965   9.431  12.915
68159SOL     OW 6309   9.969   6.719   7.771
68159SOL    HW1 6310   9.902   6.652   7.787
68159SOL    HW2 6311   9.972   6.726   7.676
68160SOL     OW 6312  11.535  14.849  11.093
68160SOL    HW1 6313  11.457   0.025  11.104
68160SOL    HW2 6314  11.574  14.845  11.180
68161SOL     OW 6315   1.733   8.370   2.760
68161SOL    HW1 6316   1.755   8.285   2.721
68161SOL    HW2 6317   1.791   8.377   2.836
68162SOL     OW 6318  13.459   7.838   6.944
68162SOL    HW1 6319  13.535   7.849   6.886
68162SOL    HW2 6320  13.384   7.839   6.885
68163SOL     OW 6321   0.689  11.096  12.858
68163SOL    HW1 6322   0.652  11.098  12.770
68163SOL    HW2 6323   0.710  11.004  12.874
68164SOL     OW 6324   8.667   1.847   8.066
68164SOL    HW1 6325   8.626   1.761   8.069
68164SOL    HW2 6326   8.598   1.905   8.034
68165SOL     OW 6327  11.383   4.467   2.149
68165SOL    HW1 6328  11.451   4.453   2.215
68165SOL    HW2 6329  11.425   4.524   2.084
68166SOL     OW 6330   8.250   1.844   9.807
68166SOL    HW1 6331   8.218   1.920   9.856
68166SOL    HW2 6332   8.267   1.778   9.874
68167SOL     OW 6333   2.340   3.298  11.416
68167SOL    HW1 6334   2.258   3.274  11.458
68167SOL    HW2 6335   2.394   3.219  11.420
68168SOL     OW 6336   0.267   2.559  14.758
68168SOL    HW1 6337   0.233   2.475  14.790
68168SOL    HW2 6338   0.227   2.570  14.672
68169SOL     OW 6339   7.719   3.292   6.059
68169SOL    HW1 6340   7.802   3.256   6.090
68169SOL    HW2 6341   7.742   3.378   6.023
68170SOL     OW 6342   0.246   3.312   8.638
68170SOL    HW1 6343   0.190   3.368   8.692
68170SOL    HW2 6344   0.210   3.224   8.651
68171SOL     OW 6345  11.760  10.390   4.940
68171SOL    HW1 6346  11.725  10.479   4.933
68171SOL    HW2 6347  11.685  10.333   4.922
68172SOL     OW 6348  12.660  12.432   2.235
68172SOL    HW1 6349  12.596  12.410   2.168
68172SOL    HW2 6350  12.743  12.398   2.202
68173SOL     OW 6351   5.483   9.382  14.120
68173SOL    HW1 6352   5.508   9.448  14.056
68173SOL    HW2 6353   5.412   9.333  14.078
68174SOL     OW 6354   8.584   7.219   0.097
68174SOL    HW1 6355   8.520   7.197   0.030
68174SOL    HW2 6356   8.607   7.310   0.079
68175SOL     OW 6357   8.726  13.523   1.032
68175SOL    HW1 6358   8.782  13.590   1.073
68175SOL    HW2 6359   8.660  13.574   0.984
68176SOL     OW 6360   4.788   2.055   5.102
68176SOL    HW1 6361   4.796   2.151   5.105
68176SOL    HW2 6362   4.779   2.029   5.194
68177SOL     OW 6363   3.081  14.843   3.650
68177SOL    HW1 6364   3.157  14.785   3.651
68177SOL    HW2 6365   3.049  14.838   3.559
68178SOL     OW 6366  13.182   5.203  11.263
68178SOL    HW1 6367  13.255   5.242  11.216
68178SOL    HW2 6368  13.108   5.209  11.202
68179SOL     OW 6369  13.853   5.786   2.772
68179SOL    HW1 6370  13.896   5.740   2.844
68179SOL    HW2 6371  13.920   5.846   2.739
68180SOL     OW 6372   7.277   8.881   2.974
68180SOL    HW1 6373   7.218   8.850   2.905
68180SOL    HW2 6374   7.271   8.977   2.968
68181SOL     OW 6375   2.162   8.013   3.605
68181SOL    HW1 6376   2.160   8.091   3.549
68181SOL    HW2 6377   2.219   7.952   3.559
68182SOL     OW 6378   2.395   3.875  13.527
68182SOL    HW1 6379   2.377   3.836  13.441
68182SOL    HW2 6380   2.325   3.842  13.584
68183SOL     OW 6381   5.605   0.861   2.536
68183SOL    HW1 6382   5.601   0.847   2.631
68183SOL    HW2 6383   5.698   0.873   2.517
68184SOL     OW 6384  13.669  12.295   7.052
68184SOL    HW1 6385  13.626  12.214   7.023
68184SOL    HW2 6386  13.610  12.364   7.022
68185SOL     OW 6387  10.678   1.949   1.154
68185SOL    HW1 6388  10.757   1.919   1.109
68185SOL    HW2 6389  10.709   2.013   1.218
68186SOL     OW 6390  13.294   3.910  14.381
68186SOL    HW1 6391  13.274   3.817  14.388
68186SOL    HW2 6392  13.347   3.918  14.301
68187SOL     OW 6393  10.695   6.566   4.561
68187SOL    HW1 6394  10.660   6.639   4.612
68187SOL    HW2 6395  10.777   6.544   4.605
68188SOL     OW 6396   1.725   1.059  11.007
68188SOL    HW1 6397   1.664   1.062  11.080
68188SOL    HW2 6398   1.773   1.142  11.011
68189SOL     OW 6399   9.293  14.425   8.244
68189SOL    HW1 6400   9.369  14.480   8.263
68189SOL    HW2 6401   9.285  14.427   8.149
68190SOL     OW 6402   1.545  14.730   1.733
68190SOL    HW1 6403   1.467  14.754   1.684
68190SOL    HW2 6404   1.617  14.738   1.670
68191SOL     OW 6405   2.322   6.133  12.918
68191SOL    HW1 6406   2.260   6.106  12.851
68191SOL    HW2 6407   2.283   6.211  12.957
68192SOL     OW 6408  11.576  13.708   4.025
68192SOL    HW1 6409  11.540  13.625   3.994
68192SOL    HW2 6410  11.538  13.719   4.112
68193SOL     OW 6411   0.794   7.712  11.687
68193SOL    HW1 6412   0.830   7.631  11.649
68193SOL    HW2 6413   0.808   7.778  11.619
68194SOL     OW 6414   0.741  14.314   1.790
68194SOL    HW1 6415   0.757  14.219   1.795
68194SOL    HW2 6416   0.646  14.322   1.793
68195SOL     OW 6417  12.306  13.942   3.926
68195SOL    HW1 6418  12.328  13.972   4.014
68195SOL    HW2 6419  12.232  13.882   3.939
68196SOL     OW 6420  13.036   5.853  11.718
68196SOL    HW1 6421  13.095   5.924  11.694
68196SOL    HW2 6422  12.980   5.841  11.642
68197SOL     OW 6423   6.846   3.954   0.109
68197SOL    HW1 6424   6.857   3.878   0.053
68197SOL    HW2 6425   6.855   4.029   0.051
68198SOL     OW 6426   1.299   3.982   4.347
68198SOL    HW1 6427   1.282   3.976   4.253
68198SOL    HW2 6428   1.367   3.916   4.363
68199SOL     OW 6429   8.489  12.258   2.697
68199SOL    HW1 6430   8.411  12.237   2.646
68199SOL    HW2 6431   8.560  12.214   2.650
68200SOL     OW 6432  13.936   8.348   6.140
68200SOL    HW1 6433  13.843   8.344   6.160
68200SOL    HW2 6434  13.957   8.262   6.102
68201SOL     OW 6435   2.617   9.004   6.893
68201SOL    HW1 6436   2.691   8.958   6.933
68201SOL    HW2 6437   2.611   9.086   6.941
68202SOL     OW 6438   5.870   7.433   1.234
68202SOL    HW1 6439   5.901   7.378   1.161
68202SOL    HW2 6440   5.929   7.411   1.307
68203SOL     OW 6441   5.415   6.269   6.466
68203SOL    HW1 6442   5.493   6.286   6.518
68203SOL    HW2 6443   5.407   6.345   6.409
68204SOL     OW 6444   1.440   6.885   4.649
68204SOL    HW1 6445   1.520   6.834   4.662
68204SOL    HW2 6446   1.469   6.965   4.606
68205SOL     OW 6447   1.346   6.741  10.566
68205SOL    HW1 6448   1.287   6.793  10.510
68205SOL    HW2 6449   1.363   6.797  10.641
68206SOL     OW 6450   2.296   9.364   3.326
68206SOL    HW1 6451   2.343   9.283   3.347
68206SOL    HW2 6452   2.216   9.335   3.283
68207SOL     OW 6453  13.218  11.643   0.788
68207SOL    HW1 6454  13.240  11.731   0.756
68207SOL    HW2 6455  13.159  11.659   0.862
68208SOL     OW 6456   7.539  11.529   7.286
68208SOL    HW1 6457   7.537  11.510   7.380
68208SOL    HW2 6458   7.631  11.547   7.267
68209SOL     OW 6459   4.750   2.957   1.426
68209SOL    HW1 6460   4.760   3.012   1.349
68209SOL    HW2 6461   4.771   3.014   1.500
68210SOL     OW 6462   2.545  11.751   4.789
68210SOL    HW1 6463   2.451  11.767   4.792
68210SOL    HW2 6464   2.575  11.798   4.711
68211SOL     OW 6465   7.951  14.451   9.724
68211SOL    HW1 6466   7.935  14.358   9.739
68211SOL    HW2 6467   8.029  14.471   9.776
68212SOL     OW 6468  12.528   1.514   0.815
68212SOL    HW1 6469  12.527   1.458   0.893
68212SOL    HW2 6470  12.440   1.506   0.779
68213SOL     OW 6471   1.941   4.847   4.293
68213SOL    HW1 6472   1.940   4.926   4.238
68213SOL    HW2 6473   2.018   4.799   4.263
68214SOL     OW 6474  13.033   4.195   8.081
68214SOL    HW1 6475  13.127   4.181   8.089
68214SOL    HW2 6476  13.002   4.118   8.032
68215SOL     OW 6477  10.058  13.295   1.106
68215SOL    HW1 6478  10.094  13.288   1.195
68215SOL    HW2 6479  10.115  13.239   1.053
68216SOL     OW 6480   9.132   3.787   7.721
68216SOL    HW1 6481   9.132   3.820   7.630
68216SOL    HW2 6482   9.087   3.856   7.771
68217SOL     OW 6483   5.466   2.051   4.737
68217SOL    HW1 6484   5.420   1.977   4.776
68217SOL    HW2 6485   5.411   2.079   4.664
68218SOL     OW 6486   3.423  14.334   8.375
68218SOL    HW1 6487   3.503  14.302   8.333
68218SOL    HW2 6488   3.392  14.260   8.427
68219SOL     OW 6489   2.628   4.937  10.936
68219SOL    HW1 6490   2.678   5.017  10.953
68219SOL    HW2 6491   2.667   4.901  10.856
68220SOL     OW 6492   3.993  12.237   2.934
68220SOL    HW1 6493   4.067  12.251   2.875
68220SOL    HW2 6494   3.916  12.254   2.880
68221SOL     OW 6495   2.136   5.468   3.204
68221SOL    HW1 6496   2.106   5.390   3.157
68221SOL    HW2 6497   2.222   5.443   3.239
68222SOL     OW 6498  10.315   5.308  11.576
68222SOL    HW1 6499  10.368   5.228  11.587
68222SOL    HW2 6500  10.224   5.278  11.585
68223SOL     OW 6501   2.412   1.118   7.885
68223SOL    HW1 6502   2.471   1.078   7.948
68223SOL    HW2 6503   2.468   1.175   7.832
68224SOL     OW 6504   6.339   2.315   8.503
68224SOL    HW1 6505   6.338   2.220   8.498
68224SOL    HW2 6506   6.247   2.340   8.507
68225SOL     OW 6507   2.888  10.931   6.737
68225SOL    HW1 6508   2.835  11.006   6.763
68225SOL    HW2 6509   2.978  10.956   6.760
68226SOL     OW 6510   9.902   1.039   1.044
68226SOL    HW1 6511   9.811   1.030   1.073
68226SOL    HW2 6512   9.896   1.067   0.953
68227SOL     OW 6513   7.969  13.433  11.866
68227SOL    HW1 6514   7.892  13.400  11.819
68227SOL    HW2 6515   7.935  13.500  11.924
68228SOL     OW 6516   3.898  11.057   2.587
68228SOL    HW1 6517   3.877  11.138   2.633
68228SOL    HW2 6518   3.893  10.989   2.654
68229SOL     OW 6519   3.554   5.389   9.619
68229SOL    HW1 6520   3.491   5.444   9.573
68229SOL    HW2 6521   3.500   5.333   9.675
68230SOL     OW 6522   3.015  11.306   6.923
68230SOL    HW1 6523   3.017  11.215   6.954
68230SOL    HW2 6524   2.923  11.331   6.928
68231SOL     OW 6525  10.278   9.843   3.050
68231SOL    HW1 6526  10.252   9.859   2.959
68231SOL    HW2 6527  10.237   9.914   3.099
68232SOL     OW 6528  14.415   0.220  12.181
68232SOL    HW1 6529  14.380   0.308  12.168
68232SOL    HW2 6530  14.432   0.214  12.275
68233SOL     OW 6531   2.962  14.631   9.796
68233SOL    HW1 6532   2.939  14.688   9.870
68233SOL    HW2 6533   2.988  14.549   9.837
68234SOL     OW 6534   6.396   7.054   4.799
68234SOL    HW1 6535   6.313   7.097   4.816
68234SOL    HW2 6536   6.438   7.047   4.885
68235SOL     OW 6537   4.357   9.299  12.059
68235SOL    HW1 6538   4.393   9.213  12.040
68235SOL    HW2 6539   4.331   9.334  11.974
68236SOL     OW 6540  14.668   9.937  10.908
68236SOL    HW1 6541  14.634   9.993  10.838
68236SOL    HW2 6542  14.722   9.873  10.863
68237SOL     OW 6543   0.395   9.038   9.846
68237SOL    HW1 6544   0.437   9.091   9.778
68237SOL    HW2 6545   0.338   9.099   9.892
68238SOL     OW 6546   1.049  13.104  13.345
68238SOL    HW1 6547   1.059  13.059  13.261
68238SOL    HW2 6548   1.067  13.037  13.411
68239SOL     OW 6549   7.896   0.711  14.467
68239SOL    HW1 6550   7.891   0.646  14.538
68239SOL    HW2 6551   7.912   0.659  14.388
68240SOL     OW 6552   7.755   6.819   0.514
68240SOL    HW1 6553   7.801   6.778   0.441
68240SOL    HW2 6554   7.820   6.821   0.584
68241SOL     OW 6555  12.043   7.255   3.003
68241SOL    HW1 6556  11.969   7.211   2.963
68241SOL    HW2 6557  12.007   7.336   3.039
68242SOL     OW 6558   8.728  11.934  14.464
68242SOL    HW1 6559   8.767  11.906  14.381
68242SOL    HW2 6560   8.644  11.889  14.468
68243SOL     OW 6561   5.382   7.924   1.753
68243SOL    HW1 6562   5.456   7.866   1.769
68243SOL    HW2 6563   5.334   7.883   1.680
68244SOL     OW 6564   7.673   9.495   8.961
68244SOL    HW1 6565   7.586   9.457   8.949
68244SOL    HW2 6566   7.672   9.530   9.050
68245SOL     OW 6567   4.512  10.082  14.015
68245SOL    HW1 6568   4.442  10.074  14.079
68245SOL    HW2 6569   4.468  10.108  13.934
68246SOL     OW 6570  13.099   8.276   1.743
68246SOL    HW1 6571  13.179   8.319   1.713
68246SOL    HW2 6572  13.034   8.296   1.676
68247SOL     OW 6573   3.543   6.537   3.619
68247SOL    HW1 6574   3.598   6.497   3.687
68247SOL    HW2 6575   3.603   6.594   3.571
68248SOL     OW 6576   8.142   0.196   5.015
68248SOL    HW1 6577   8.223   0.203   5.065
68248SOL    HW2 6578   8.126   0.101   5.009
68249SOL     OW 6579   8.865   0.863   9.407
68249SOL    HW1 6580   8.910   0.830   9.485
68249SOL    HW2 6581   8.883   0.957   9.407
68250SOL     OW 6582  11.365  13.738   3.691
68250SOL    HW1 6583  11.313  13.736   3.772
68250SOL    HW2 6584  11.302  13.718   3.622
68251SOL     OW 6585  14.199   7.933  14.003
68251SOL    HW1 6586  14.104   7.935  14.015
68251SOL    HW2 6587  14.214   7.978  13.920
68252SOL     OW 6588   8.503   9.637   4.173
68252SOL    HW1 6589   8.595   9.642   4.148
68252SOL    HW2 6590   8.504   9.643   4.269
68253SOL     OW 6591   4.793   3.150   1.655
68253SOL    HW1 6592   4.885   3.135   1.675
68253SOL    HW2 6593   4.746   3.118   1.732
68254SOL     OW 6594   2.529   8.651  12.629
68254SOL    HW1 6595   2.450   8.620  12.585
68254SOL    HW2 6596   2.579   8.696  12.560
68255SOL     OW 6597   9.167  14.073   0.395
68255SOL    HW1 6598   9.145  14.078   0.488
68255SOL    HW2 6599   9.158  13.981   0.373
68256SOL     OW 6600  14.357   1.610   5.524
68256SOL    HW1 6601  14.447   1.641   5.536
68256SOL    HW2 6602  14.331   1.645   5.439
68257SOL     OW 6603  10.987  11.036  13.478
68257SOL    HW1 6604  11.025  11.073  13.399
68257SOL    HW2 6605  10.893  11.046  13.466
68258SOL     OW 6606   0.881  11.098  14.445
68258SOL    HW1 6607   0.915  11.174  14.492
68258SOL    HW2 6608   0.813  11.062  14.503
68259SOL     OW 6609  11.057   3.829   8.365
68259SOL    HW1 6610  11.135   3.852   8.416
68259SOL    HW2 6611  11.053   3.895   8.296
68260SOL     OW 6612  10.347  14.555   4.548
68260SOL    HW1 6613  10.361  14.462   4.569
68260SOL    HW2 6614  10.318  14.594   4.631
68261SOL     OW 6615   5.702  13.788   9.341
68261SOL    HW1 6616   5.774  13.729   9.366
68261SOL    HW2 6617   5.654  13.801   9.423
68262SOL     OW 6618   4.074  14.413  12.615
68262SOL    HW1 6619   4.144  14.374  12.668
68262SOL    HW2 6620   4.107  14.409  12.525
68263SOL     OW 6621  12.561  12.687   2.612
68263SOL    HW1 6622  12.648  12.682   2.651
68263SOL    HW2 6623  12.576  12.674   2.518
68264SOL     OW 6624   6.216  14.537   2.735
68264SOL    HW1 6625   6.182  14.554   2.823
68264SOL    HW2 6626   6.217  14.623   2.692
68265SOL     OW 6627   3.047  13.655   0.144
68265SOL    HW1 6628   3.091  13.737   0.119
68265SOL    HW2 6629   3.058  13.649   0.238
68266SOL     OW 6630  13.748   5.337   6.474
68266SOL    HW1 6631  13.703   5.255   6.496
68266SOL    HW2 6632  13.837   5.324   6.505
68267SOL     OW 6633  11.225   3.693   2.763
68267SOL    HW1 6634  11.237   3.624   2.698
68267SOL    HW2 6635  11.228   3.647   2.847
68268SOL     OW 6636   0.433  11.500   9.046
68268SOL    HW1 6637   0.506  11.536   8.996
68268SOL    HW2 6638   0.445  11.405   9.041
68269SOL     OW 6639   5.249  13.420   1.685
68269SOL    HW1 6640   5.259  13.439   1.779
68269SOL    HW2 6641   5.239  13.325   1.681
68270SOL     OW 6642  10.933  14.095   1.898
68270SOL    HW1 6643  10.992  14.053   1.960
68270SOL    HW2 6644  10.858  14.123   1.951
68271SOL     OW 6645   9.384   8.239   0.537
68271SOL    HW1 6646   9.415   8.149   0.549
68271SOL    HW2 6647   9.314   8.249   0.602
68272SOL     OW 6648  13.871   8.633  10.578
68272SOL    HW1 6649  13.781   8.618  10.608
68272SOL    HW2 6650  13.903   8.545  10.556
68273SOL     OW 6651  13.420   1.920   5.862
68273SOL    HW1 6652  13.422   1.923   5.766
68273SOL    HW2 6653  13.497   1.870   5.886
68274SOL     OW 6654  10.211   5.176   6.253
68274SOL    HW1 6655  10.218   5.084   6.228
68274SOL    HW2 6656  10.175   5.175   6.341
68275SOL     OW 6657   7.094   5.700   4.024
68275SOL    HW1 6658   7.037   5.637   3.979
68275SOL    HW2 6659   7.084   5.782   3.975
68276SOL     OW 6660   6.597  10.839   7.748
68276SOL    HW1 6661   6.647  10.915   7.780
68276SOL    HW2 6662   6.505  10.863   7.764
68277SOL     OW 6663  11.581   3.524   3.702
68277SOL    HW1 6664  11.513   3.456   3.705
68277SOL    HW2 6665  11.661   3.477   3.678
68278SOL     OW 6666   9.881   7.399  12.941
68278SOL    HW1 6667   9.881   7.465  12.872
68278SOL    HW2 6668   9.924   7.442  13.015
68279SOL     OW 6669   9.194  11.549   3.939
68279SOL    HW1 6670   9.133  11.524   4.009
68279SOL    HW2 6671   9.140  11.597   3.876
68280SOL     OW 6672   9.670   1.362   2.230
68280SOL    HW1 6673   9.597   1.423   2.220
68280SOL    HW2 6674   9.627   1.277   2.244
68281SOL     OW 6675  14.347   3.647  10.165
68281SOL    HW1 6676  14.266   3.695  10.151
68281SOL    HW2 6677  14.393   3.653  10.081
68282SOL     OW 6678   0.679  10.168   0.738
68282SOL    HW1 6679   0.605  10.206   0.785
68282SOL    HW2 6680   0.655  10.076   0.726
68283SOL     OW 6681   5.376   9.528   4.038
68283SOL    HW1 6682   5.315   9.504   4.108
68283SOL    HW2 6683   5.330   9.505   3.958
68284SOL     OW 6684  14.465  10.243   7.757
68284SOL    HW1 6685  14.504  10.284   7.680
68284SOL    HW2 6686  14.380  10.211   7.726
68285SOL     OW 6687   8.055   5.647  13.016
68285SOL    HW1 6688   8.150   5.633  13.011
68285SOL    HW2 6689   8.018   5.559  13.011
68286SOL     OW 6690   8.503   9.670  13.321
68286SOL    HW1 6691   8.564   9.682  13.394
68286SOL    HW2 6692   8.428   9.724  13.344
68287SOL     OW 6693   6.348   5.034  10.144
68287SOL    HW1 6694   6.300   5.109  10.107
68287SOL    HW2 6695   6.366   4.977  10.069
68288SOL     OW 6696  11.859  14.395   0.354
68288SOL    HW1 6697  11.786  14.385   0.293
68288SOL    HW2 6698  11.820  14.429   0.434
68289SOL     OW 6699  13.138   1.480  13.355
68289SOL    HW1 6700  13.213   1.444  13.402
68289SOL    HW2 6701  13.136   1.434  13.271
68290SOL     OW 6702   0.859   7.718   4.811
68290SOL    HW1 6703   0.877   7.795   4.866
68290SOL    HW2 6704   0.860   7.752   4.722
68291SOL     OW 6705   7.460  11.953  11.052
68291SOL    HW1 6706   7.504  12.027  11.092
68291SOL    HW2 6707   7.409  11.991  10.981
68292SOL     OW 6708   0.431  14.185   6.793
68292SOL    HW1 6709   0.514  14.179   6.841
68292SOL    HW2 6710   0.389  14.263   6.828
68293SOL     OW 6711   9.712   9.610  14.258
68293SOL    HW1 6712   9.642   9.675  14.264
68293SOL    HW2 6713   9.690   9.545  14.325
68294SOL     OW 6714   3.507  14.091   0.760
68294SOL    HW1 6715   3.570  14.020   0.755
68294SOL    HW2 6716   3.532  14.151   0.690
68295SOL     OW 6717  12.475   3.089   3.288
68295SOL    HW1 6718  12.555   3.137   3.309
68295SOL    HW2 6719  12.506   3.007   3.248
68296SOL     OW 6720   3.616   7.096   8.168
68296SOL    HW1 6721   3.603   7.172   8.224
68296SOL    HW2 6722   3.711   7.089   8.158
68297SOL     OW 6723   1.673   6.527   9.453
68297SOL    HW1 6724   1.631   6.522   9.367
68297SOL    HW2 6725   1.612   6.577   9.506
68298SOL     OW 6726   8.683   0.148  12.824
68298SOL    HW1 6727   8.759   0.195  12.861
68298SOL    HW2 6728   8.607   0.192  12.862
68299SOL     OW 6729   0.734   9.041   9.426
68299SOL    HW1 6730   0.665   9.106   9.415
68299SOL    HW2 6731   0.755   9.043   9.519
68300SOL     OW 6732   1.445   3.869   0.874
68300SOL    HW1 6733   1.426   3.802   0.940
68300SOL    HW2 6734   1.534   3.898   0.893
68301SOL     OW 6735   3.551   9.792   5.561
68301SOL    HW1 6736   3.608   9.806   5.637
68301SOL    HW2 6737   3.610   9.799   5.486
68302SOL     OW 6738   7.500   1.350  14.312
68302SOL    HW1 6739   7.477   1.264  14.278
68302SOL    HW2 6740   7.466   1.350  14.402
68303SOL     OW 6741   1.994   3.638   6.657
68303SOL    HW1 6742   2.055   3.701   6.618
68303SOL    HW2 6743   2.050   3.581   6.709
68304SOL     OW 6744   6.303   7.479   8.654
68304SOL    HW1 6745   6.274   7.388   8.660
68304SOL    HW2 6746   6.392   7.473   8.618
68305SOL     OW 6747   3.930   7.889  13.802
68305SOL    HW1 6748   4.023   7.868  13.804
68305SOL    HW2 6749   3.924   7.973  13.847
68306SOL     OW 6750  13.530   1.400   7.982
68306SOL    HW1 6751  13.567   1.432   8.064
68306SOL    HW2 6752  13.494   1.314   8.004
68307SOL     OW 6753   9.556  11.338  14.873
68307SOL    HW1 6754   9.611  11.261  14.856
68307SOL    HW2 6755   9.546  11.379  14.787
68308SOL     OW 6756  11.904  12.591   3.802
68308SOL    HW1 6757  11.967  12.557   3.865
68308SOL    HW2 6758  11.818  12.563   3.836
68309SOL     OW 6759   2.848  12.875   6.672
68309SOL    HW1 6760   2.941  12.875   6.695
68309SOL    HW2 6761   2.845  12.842   6.583
68310SOL     OW 6762   3.998  13.805  13.821
68310SOL    HW1 6763   3.945  13.854  13.884
68310SOL    HW2 6764   3.992  13.714  13.850
68311SOL     OW 6765  13.766  14.498  11.054
68311SOL    HW1 6766  13.747  14.539  11.139
68311SOL    HW2 6767  13.713  14.419  11.053
68312SOL     OW 6768  10.318   3.173   0.218
68312SOL    HW1 6769  10.302   3.104   0.283
68312SOL    HW2 6770  10.282   3.137   0.137
68313SOL     OW 6771   2.977  13.703  14.086
68313SOL    HW1 6772   3.057  13.654  14.108
68313SOL    HW2 6773   2.970  13.697  13.991
68314SOL     OW 6774  12.319  12.218  10.140
68314SOL    HW1 6775  12.316  12.307  10.175
68314SOL    HW2 6776  12.315  12.162  10.218
68315SOL     OW 6777   6.985   9.514  10.872
68315SOL    HW1 6778   7.015   9.429  10.903
68315SOL    HW2 6779   7.040   9.577  10.918
68316SOL     OW 6780  12.406  12.270   4.597
68316SOL    HW1 6781  12.317  12.261   4.565
68316SOL    HW2 6782  12.399  12.324   4.676
68317SOL     OW 6783   3.218   3.236  13.406
68317SOL    HW1 6784   3.186   3.239  13.496
68317SOL    HW2 6785   3.150   3.188  13.358
68318SOL     OW 6786  10.504   9.544  10.845
68318SOL    HW1 6787  10.489   9.451  10.829
68318SOL    HW2 6788  10.592   9.548  10.883
68319SOL     OW 6789  10.585   5.731  11.991
68319SOL    HW1 6790  10.642   5.720  11.915
68319SOL    HW2 6791  10.505   5.772  11.956
68320SOL     OW 6792   5.147   7.176   3.050
68320SOL    HW1 6793   5.174   7.108   3.112
68320SOL    HW2 6794   5.095   7.237   3.103
68321SOL     OW 6795   7.423   1.693   0.147
68321SOL    HW1 6796   7.506   1.645   0.150
68321SOL    HW2 6797   7.414   1.719   0.055
68322SOL     OW 6798   2.395   3.586  12.890
68322SOL    HW1 6799   2.456   3.533  12.839
68322SOL    HW2 6800   2.363   3.527  12.958
68323SOL     OW 6801   4.673   9.155  13.466
68323SOL    HW1 6802   4.639   9.083  13.520
68323SOL    HW2 6803   4.609   9.164  13.395
68324SOL     OW 6804   8.576   8.345   2.725
68324SOL    HW1 6805   8.567   8.392   2.642
68324SOL    HW2 6806   8.486   8.339   2.758
68325SOL     OW 6807   5.840   6.913  13.669
68325SOL    HW1 6808   5.869   6.824  13.650
68325SOL    HW2 6809   5.745   6.912  13.655
68326SOL     OW 6810  11.338  14.036   2.208
68326SOL    HW1 6811  11.309  14.115   2.161
68326SOL    HW2 6812  11.328  14.058   2.300
68327SOL     OW 6813   5.844  12.528  12.121
68327SOL    HW1 6814   5.861  12.519  12.027
68327SOL    HW2 6815   5.805  12.615  12.131
68328SOL     OW 6816  11.126   2.201   4.196
68328SOL    HW1 6817  11.165   2.234   4.115
68328SOL    HW2 6818  11.089   2.279   4.238
68329SOL     OW 6819  11.909   5.250  14.445
68329SOL    HW1 6820  11.980   5.292  14.396
68329SOL    HW2 6821  11.952   5.179  14.493
68330SOL     OW 6822   6.119   7.182  11.437
68330SOL    HW1 6823   6.044   7.218  11.484
68330SOL    HW2 6824   6.135   7.098  11.480
68331SOL     OW 6825   9.014   1.755  13.686
68331SOL    HW1 6826   9.005   1.717  13.599
68331SOL    HW2 6827   9.093   1.715  13.722
68332SOL     OW 6828  12.188  14.575  14.012
68332SOL    HW1 6829  12.268  14.547  14.056
68332SOL    HW2 6830  12.118  14.533  14.062
68333SOL     OW 6831   8.257  11.921  14.354
68333SOL    HW1 6832   8.326  11.921  14.421
68333SOL    HW2 6833   8.195  11.855  14.384
68334SOL     OW 6834  14.167  13.648  10.140
68334SOL    HW1 6835  14.239  13.696  10.180
68334SOL    HW2 6836  14.095  13.710  10.138
68335SOL     OW 6837   6.655   3.252   5.440
68335SOL    HW1 6838   6.746   3.281   5.435
68335SOL    HW2 6839   6.654   3.168   5.394
68336SOL     OW 6840   6.355  12.746  11.387
68336SOL    HW1 6841   6.278  12.692  11.373
68336SOL    HW2 6842   6.400  12.705  11.461
68337SOL     OW 6843   7.187   1.240   2.979
68337SOL    HW1 6844   7.228   1.163   2.941
68337SOL    HW2 6845   7.146   1.285   2.905
68338SOL     OW 6846   1.810   3.676   1.878
68338SOL    HW1 6847   1.783   3.733   1.806
68338SOL    HW2 6848   1.852   3.602   1.834
68339SOL     OW 6849  12.574  13.546  14.361
68339SOL    HW1 6850  12.533  13.485  14.422
68339SOL    HW2 6851  12.537  13.522  14.276
68340SOL     OW 6852   5.886   8.156   8.568
68340SOL    HW1 6853   5.905   8.237   8.614
68340SOL    HW2 6854   5.899   8.176   8.476
68341SOL     OW 6855   1.974  10.049   8.422
68341SOL    HW1 6856   2.013  10.120   8.371
68341SOL    HW2 6857   1.881  10.051   8.398
68342SOL     OW 6858   7.035   6.155   9.282
68342SOL    HW1 6859   7.109   6.118   9.331
68342SOL    HW2 6860   6.958   6.115   9.321
68343SOL     OW 6861   0.971   0.191   1.530
68343SOL    HW1 6862   0.896   0.140   1.559
68343SOL    HW2 6863   0.992   0.247   1.604
68344SOL     OW 6864   1.292   4.605   3.312
68344SOL    HW1 6865   1.320   4.566   3.395
68344SOL    HW2 6866   1.201   4.578   3.302
68345SOL     OW 6867  14.515   1.639  10.788
68345SOL    HW1 6868  14.500   1.603  10.701
68345SOL    HW2 6869  14.607   1.664  10.789
68346SOL     OW 6870   1.463   5.415   2.147
68346SOL    HW1 6871   1.551   5.378   2.141
68346SOL    HW2 6872   1.433   5.420   2.056
68347SOL     OW 6873   9.424   7.323   9.836
68347SOL    HW1 6874   9.348   7.276   9.873
68347SOL    HW2 6875   9.498   7.290   9.886
68348SOL     OW 6876   5.767   0.146  13.002
68348SOL    HW1 6877   5.807   0.062  12.980
68348SOL    HW2 6878   5.802   0.207  12.937
68349SOL     OW 6879   5.554   8.716   9.908
68349SOL    HW1 6880   5.595   8.662   9.840
68349SOL    HW2 6881   5.574   8.671   9.990
68350SOL     OW 6882  12.254   6.683   3.202
68350SOL    HW1 6883  12.251   6.707   3.295
68350SOL    HW2 6884  12.343   6.651   3.188
68351SOL     OW 6885  10.846  13.725   3.239
68351SOL    HW1 6886  10.794  13.711   3.160
68351SOL    HW2 6887  10.926  13.767   3.207
68352SOL     OW 6888   0.745  11.616  11.889
68352SOL    HW1 6889   0.655  11.598  11.861
68352SOL    HW2 6890   0.738  11.691  11.948
68353SOL     OW 6891  12.500  11.414   6.532
68353SOL    HW1 6892  12.465  11.354   6.598
68353SOL    HW2 6893  12.579  11.450   6.572
68354SOL     OW 6894   2.258   9.550  12.219
68354SOL    HW1 6895   2.333   9.577  12.167
68354SOL    HW2 6896   2.275   9.584  12.306
68355SOL     OW 6897  14.285   0.583   9.722
68355SOL    HW1 6898  14.204   0.606   9.768
68355SOL    HW2 6899  14.257   0.565   9.633
68356SOL     OW 6900   5.371   2.886  10.646
68356SOL    HW1 6901   5.278   2.866  10.641
68356SOL    HW2 6902   5.395   2.869  10.737
68357SOL     OW 6903   3.441  12.881   5.451
68357SOL    HW1 6904   3.441  12.795   5.492
68357SOL    HW2 6905   3.348  12.903   5.441
68358SOL     OW 6906  13.799   0.693   4.968
68358SOL    HW1 6907  13.805   0.787   4.950
68358SOL    HW2 6908  13.715   0.667   4.929
68359SOL     OW 6909   5.438  13.672   6.147
68359SOL    HW1 6910   5.426  13.611   6.074
68359SOL    HW2 6911   5.526  13.708   6.135
68360SOL     OW 6912   7.075   1.397   3.921
68360SOL    HW1 6913   7.167   1.382   3.900
68360SOL    HW2 6914   7.029   1.379   3.839
68361SOL     OW 6915   8.262   6.737   6.499
68361SOL    HW1 6916   8.275   6.818   6.450
68361SOL    HW2 6917   8.261   6.763   6.591
68362SOL     OW 6918   7.406   1.965  11.333
68362SOL    HW1 6919   7.468   2.016  11.385
68362SOL    HW2 6920   7.375   2.025  11.265
68363SOL     OW 6921  10.210   5.687   5.189
68363SOL    HW1 6922  10.289   5.665   5.140
68363SOL    HW2 6923  10.224   5.777   5.218
68364SOL     OW 6924  12.994   3.356   0.110
68364SOL    HW1 6925  13.004   3.263   0.090
68364SOL    HW2 6926  12.964   3.395   0.027
68365SOL     OW 6927   4.807   7.519   5.446
68365SOL    HW1 6928   4.843   7.534   5.359
68365SOL    HW2 6929   4.719   7.485   5.431
68366SOL     OW 6930  14.192   3.303   2.537
68366SOL    HW1 6931  14.219   3.327   2.449
68366SOL    HW2 6932  14.274   3.297   2.586
68367SOL     OW 6933   6.831   0.289   1.943
68367SOL    HW1 6934   6.764   0.224   1.922
68367SOL    HW2 6935   6.897   0.241   1.994
68368SOL     OW 6936   5.906   4.167   3.000
68368SOL    HW1 6937   5.820   4.205   2.983
68368SOL    HW2 6938   5.943   4.221   3.069
68369SOL     OW 6939   3.316   9.108   8.403
68369SOL    HW1 6940   3.301   9.054   8.325
68369SOL    HW2 6941   3.259   9.184   8.391
68370SOL     OW 6942  10.199  14.833   6.107
68370SOL    HW1 6943  10.219  14.877   6.190
68370SOL    HW2 6944  10.116  14.872   6.079
68371SOL     OW 6945   2.033   3.256   4.125
68371SOL    HW1 6946   2.089   3.237   4.049
68371SOL    HW2 6947   1.946   3.225   4.100
68372SOL     OW 6948   2.764   9.475   6.008
68372SOL    HW1 6949   2.738   9.418   6.080
68372SOL    HW2 6950   2.774   9.416   5.933
68373SOL     OW 6951  14.348   9.733   2.806
68373SOL    HW1 6952  14.397   9.797   2.754
68373SOL    HW2 6953  14.370   9.649   2.767
68374SOL     OW 6954  13.156   8.797   0.683
68374SOL    HW1 6955  13.201   8.808   0.767
68374SOL    HW2 6956  13.110   8.713   0.690
68375SOL     OW 6957   3.106   4.448   0.077
68375SOL    HW1 6958   3.110   4.534   0.036
68375SOL    HW2 6959   3.177   4.399   0.037
68376SOL     OW 6960   9.963  13.302  14.343
68376SOL    HW1 6961   9.976  13.388  14.302
68376SOL    HW2 6962   9.910  13.320  14.420
68377SOL     OW 6963  12.543   4.727  10.352
68377SOL    HW1 6964  12.564   4.766  10.437
68377SOL    HW2 6965  12.494   4.795  10.306
68378SOL     OW 6966   8.431   6.584  12.009
68378SOL    HW1 6967   8.436   6.607  11.916
68378SOL    HW2 6968   8.512   6.535  12.025
68379SOL     OW 6969  14.800  10.560   8.612
68379SOL    HW1 6970  14.789  10.525   8.523
68379SOL    HW2 6971  14.762  10.648   8.607
68380SOL     OW 6972   4.129  12.657   7.446
68380SOL    HW1 6973   4.081  12.740   7.442
68380SOL    HW2 6974   4.175  12.661   7.530
68381SOL     OW 6975  12.680   1.378   3.304
68381SOL    HW1 6976  12.774   1.359   3.315
68381SOL    HW2 6977  12.678   1.451   3.242
68382SOL     OW 6978   0.632   6.962   2.068
68382SOL    HW1 6979   0.708   6.999   2.024
68382SOL    HW2 6980   0.668   6.897   2.129
68383SOL     OW 6981   7.719   4.630   8.624
68383SOL    HW1 6982   7.796   4.686   8.618
68383SOL    HW2 6983   7.671   4.663   8.700
68384SOL     OW 6984   7.397   2.613   5.339
68384SOL    HW1 6985   7.382   2.644   5.429
68384SOL    HW2 6986   7.310   2.593   5.306
68385SOL     OW 6987  11.656   8.411   4.808
68385SOL    HW1 6988  11.724   8.476   4.791
68385SOL    HW2 6989  11.597   8.418   4.732
68386SOL     OW 6990   6.618   4.738   1.157
68386SOL    HW1 6991   6.582   4.657   1.122
68386SOL    HW2 6992   6.552   4.805   1.135
68387SOL     OW 6993   9.197   5.070  14.571
68387SOL    HW1 6994   9.244   5.149  14.598
68387SOL    HW2 6995   9.183   5.021  14.652
68388SOL     OW 6996   1.289   7.947  12.719
68388SOL    HW1 6997   1.214   7.895  12.746
68388SOL    HW2 6998   1.252   8.013  12.660
68389SOL     OW 6999   2.655   3.875  13.648
68389SOL    HW1 7000   2.657   3.783  13.624
68389SOL    HW2 7001   2.568   3.905  13.621
68390SOL     OW 7002   0.504   1.288   4.682
68390SOL    HW1 7003   0.449   1.365   4.692
68390SOL    HW2 7004   0.462   1.221   4.736
68391SOL     OW 7005   8.140  10.061   1.904
68391SOL    HW1 7006   8.095   9.981   1.933
68391SOL    HW2 7007   8.226  10.057   1.946
68392SOL     OW 7008   8.767  14.135  10.727
68392SOL    HW1 7009   8.776  14.044  10.698
68392SOL    HW2 7010   8.856  14.163  10.747
68393SOL     OW 7011   6.612   6.514   1.315
68393SOL    HW1 7012   6.658   6.592   1.283
68393SOL    HW2 7013   6.520   6.533   1.300
68394SOL     OW 7014   0.629  13.119   7.889
68394SOL    HW1 7015   0.603  13.208   7.867
68394SOL    HW2 7016   0.713  13.128   7.934
68395SOL     OW 7017   2.288   2.798   3.357
68395SOL    HW1 7018   2.209   2.849   3.374
68395SOL    HW2 7019   2.273   2.759   3.271
68396SOL     OW 7020  12.171   5.478   2.513
68396SOL    HW1 7021  12.131   5.391   2.517
68396SOL    HW2 7022  12.114   5.532   2.568
68397SOL     OW 7023   4.261  10.463   8.787
68397SOL    HW1 7024   4.226  10.393   8.733
68397SOL    HW2 7025   4.184  10.508   8.822
68398SOL     OW 7026   9.349   3.387  10.295
68398SOL    HW1 7027   9.337   3.367  10.388
68398SOL    HW2 7028   9.261   3.382  10.257
68399SOL     OW 7029   7.441  12.489  10.931
68399SOL    HW1 7030   7.381  12.496  10.857
68399SOL    HW2 7031   7.489  12.572  10.932
68400SOL     OW 7032  13.896  13.985   6.313
68400SOL    HW1 7033  13.931  13.962   6.399
68400SOL    HW2 7034  13.822  14.043   6.332
68401SOL     OW 7035  14.345   2.752   3.725
68401SOL    HW1 7036  14.363   2.753   3.631
68401SOL    HW2 7037  14.430   2.735   3.766
68402SOL     OW 7038   2.907   3.871   8.642
68402SOL    HW1 7039   2.955   3.910   8.569
68402SOL    HW2 7040   2.868   3.792   8.606
68403SOL     OW 7041   7.054  11.037   0.053
68403SOL    HW1 7042   7.080  11.098  14.863
68403SOL    HW2 7043   6.958  11.045   0.056
68404SOL     OW 7044   9.195   6.155  13.315
68404SOL    HW1 7045   9.250   6.100  13.260
68404SOL    HW2 7046   9.127   6.096  13.348
68405SOL     OW 7047   3.566   4.950  12.698
68405SOL    HW1 7048   3.531   4.955  12.787
68405SOL    HW2 7049   3.527   4.871  12.662
68406SOL     OW 7050  14.068  12.904   6.698
68406SOL    HW1 7051  13.994  12.903   6.638
68406SOL    HW2 7052  14.144  12.883   6.644
68407SOL     OW 7053   9.064   2.881  12.429
68407SOL    HW1 7054   9.111   2.812  12.382
68407SOL    HW2 7055   9.042   2.945  12.361
68408SOL     OW 7056  11.586   3.497   0.614
68408SOL    HW1 7057  11.494   3.514   0.593
68408SOL    HW2 7058  11.583   3.425   0.677
68409SOL     OW 7059  13.708   0.743   8.098
68409SOL    HW1 7060  13.777   0.764   8.161
68409SOL    HW2 7061  13.729   0.654   8.070
68410SOL     OW 7062  12.255  12.363  10.911
68410SOL    HW1 7063  12.331  12.333  10.961
68410SOL    HW2 7064  12.288  12.435  10.858
68411SOL     OW 7065   0.887   2.315   3.208
68411SOL    HW1 7066   0.819   2.380   3.192
68411SOL    HW2 7067   0.967   2.354   3.172
68412SOL     OW 7068  11.302   9.755   6.636
68412SOL    HW1 7069  11.290   9.788   6.546
68412SOL    HW2 7070  11.229   9.794   6.685
68413SOL     OW 7071   6.324   4.632  12.650
68413SOL    HW1 7072   6.381   4.556  12.657
68413SOL    HW2 7073   6.322   4.653  12.557
68414SOL     OW 7074  12.720   1.362   0.144
68414SOL    HW1 7075  12.748   1.333   0.231
68414SOL    HW2 7076  12.682   1.284   0.104
68415SOL     OW 7077   2.235   9.573  11.416
68415SOL    HW1 7078   2.302   9.584  11.483
68415SOL    HW2 7079   2.268   9.502  11.360
68416SOL     OW 7080   0.725   4.646   3.119
68416SOL    HW1 7081   0.693   4.556   3.116
68416SOL    HW2 7082   0.729   4.673   3.027
68417SOL     OW 7083  11.880  11.181   9.273
68417SOL    HW1 7084  11.787  11.171   9.251
68417SOL    HW2 7085  11.880  11.199   9.367
68418SOL     OW 7086  13.400   1.395  12.381
68418SOL    HW1 7087  13.417   1.489  12.390
68418SOL    HW2 7088  13.481   1.353  12.412
68419SOL     OW 7089   4.626   3.377   3.005
68419SOL    HW1 7090   4.562   3.423   2.950
68419SOL    HW2 7091   4.610   3.284   2.988
68420SOL     OW 7092   1.442   3.346   2.285
68420SOL    HW1 7093   1.480   3.272   2.333
68420SOL    HW2 7094   1.508   3.415   2.289
68421SOL     OW 7095  11.720  10.521  11.646
68421SOL    HW1 7096  11.649  10.577  11.616
68421SOL    HW2 7097  11.796  10.548  11.595
68422SOL     OW 7098  13.847   5.161  13.505
68422SOL    HW1 7099  13.757   5.179  13.533
68422SOL    HW2 7100  13.901   5.205  13.570
68423SOL     OW 7101   0.599   1.966   1.096
68423SOL    HW1 7102   0.561   2.020   1.027
68423SOL    HW2 7103   0.692   1.989   1.097
68424SOL     OW 7104   6.514   7.576   8.247
68424SOL    HW1 7105   6.581   7.508   8.239
68424SOL    HW2 7106   6.511   7.617   8.161
68425SOL     OW 7107   3.422  11.793   6.857
68425SOL    HW1 7108   3.490  11.800   6.923
68425SOL    HW2 7109   3.343  11.825   6.900
68426SOL     OW 7110   3.858  14.857   9.584
68426SOL    HW1 7111   3.935  14.850   9.641
68426SOL    HW2 7112   3.790   0.015   9.640
68427SOL     OW 7113   9.641   5.072   7.106
68427SOL    HW1 7114   9.655   5.027   7.023
68427SOL    HW2 7115   9.647   5.165   7.085
68428SOL     OW 7116   5.894   3.646   9.347
68428SOL    HW1 7117   5.854   3.716   9.295
68428SOL    HW2 7118   5.837   3.570   9.332
68429SOL     OW 7119   4.835   6.712  13.959
68429SOL    HW1 7120   4.750   6.755  13.960
68429SOL    HW2 7121   4.830   6.650  13.887
68430SOL     OW 7122   9.255   9.293   0.655
68430SOL    HW1 7123   9.321   9.257   0.713
68430SOL    HW2 7124   9.297   9.294   0.569
68431SOL     OW 7125  14.564   2.548   8.421
68431SOL    HW1 7126  14.576   2.518   8.331
68431SOL    HW2 7127  14.523   2.634   8.413
68432SOL     OW 7128   5.232   0.349   5.475
68432SOL    HW1 7129   5.302   0.285   5.490
68432SOL    HW2 7130   5.234   0.404   5.553
68433SOL     OW 7131   8.073  10.420  12.688
68433SOL    HW1 7132   8.100  10.398  12.599
68433SOL    HW2 7133   8.032  10.340  12.722
68434SOL     OW 7134   1.952  13.994   5.165
68434SOL    HW1 7135   1.930  13.907   5.198
68434SOL    HW2 7136   2.034  13.983   5.117
68435SOL     OW 7137   9.951   3.337  14.877
68435SOL    HW1 7138   9.930   3.396   0.070
68435SOL    HW2 7139   9.977   3.255   0.040
68436SOL     OW 7140  12.853   9.702  11.456
68436SOL    HW1 7141  12.823   9.627  11.405
68436SOL    HW2 7142  12.897   9.759  11.392
68437SOL     OW 7143  13.422  11.796  11.410
68437SOL    HW1 7144  13.433  11.885  11.377
68437SOL    HW2 7145  13.489  11.788  11.479
68438SOL     OW 7146   6.607  11.574   6.185
68438SOL    HW1 7147   6.651  11.591   6.102
68438SOL    HW2 7148   6.677  11.569   6.249
68439SOL     OW 7149  10.839  10.361   9.869
68439SOL    HW1 7150  10.860  10.271   9.844
68439SOL    HW2 7151  10.881  10.415   9.802
68440SOL     OW 7152  13.526   9.039  11.298
68440SOL    HW1 7153  13.451   9.026  11.356
68440SOL    HW2 7154  13.527   9.133  11.281
68441SOL     OW 7155   4.824   7.367   3.464
68441SOL    HW1 7156   4.730   7.352   3.466
68441SOL    HW2 7157   4.840   7.433   3.531
68442SOL     OW 7158   2.315   5.554  13.215
68442SOL    HW1 7159   2.233   5.552  13.263
68442SOL    HW2 7160   2.372   5.492  13.262
68443SOL     OW 7161  14.598   9.662  11.013
68443SOL    HW1 7162  14.564   9.601  10.947
68443SOL    HW2 7163  14.559   9.747  10.990
68444SOL     OW 7164   8.076   1.973   0.045
68444SOL    HW1 7165   8.154   1.923   0.022
68444SOL    HW2 7166   8.034   1.992  14.840
68445SOL     OW 7167   4.182  10.462  12.338
68445SOL    HW1 7168   4.253  10.525  12.330
68445SOL    HW2 7169   4.103  10.511  12.317
68446SOL     OW 7170   5.355   5.877  13.450
68446SOL    HW1 7171   5.331   5.829  13.371
68446SOL    HW2 7172   5.351   5.969  13.424
68447SOL     OW 7173  10.260   8.825  13.986
68447SOL    HW1 7174  10.324   8.820  13.915
68447SOL    HW2 7175  10.272   8.744  14.035
68448SOL     OW 7176   6.022   9.965  12.108
68448SOL    HW1 7177   6.022   9.869  12.102
68448SOL    HW2 7178   5.949   9.985  12.166
68449SOL     OW 7179   2.763   4.777   6.481
68449SOL    HW1 7180   2.845   4.799   6.436
68449SOL    HW2 7181   2.695   4.816   6.426
68450SOL     OW 7182   4.136   3.080   5.388
68450SOL    HW1 7183   4.062   3.030   5.422
68450SOL    HW2 7184   4.152   3.147   5.455
68451SOL     OW 7185   1.015   2.112   5.869
68451SOL    HW1 7186   0.987   2.144   5.955
68451SOL    HW2 7187   1.004   2.188   5.811
68452SOL     OW 7188   2.566   0.722   2.568
68452SOL    HW1 7189   2.555   0.722   2.473
68452SOL    HW2 7190   2.485   0.761   2.601
68453SOL     OW 7191   0.657  10.000  14.051
68453SOL    HW1 7192   0.719   9.956  14.109
68453SOL    HW2 7193   0.649  10.088  14.086
68454SOL     OW 7194   9.336  14.546   2.469
68454SOL    HW1 7195   9.304  14.571   2.555
68454SOL    HW2 7196   9.422  14.508   2.485
68455SOL     OW 7197  12.290   8.702  10.174
68455SOL    HW1 7198  12.329   8.776  10.221
68455SOL    HW2 7199  12.359   8.672  10.114
68456SOL     OW 7200   6.290   1.354   3.845
68456SOL    HW1 7201   6.304   1.425   3.783
68456SOL    HW2 7202   6.263   1.397   3.926
68457SOL     OW 7203   3.639   1.348   0.874
68457SOL    HW1 7204   3.640   1.401   0.954
68457SOL    HW2 7205   3.675   1.407   0.806
68458SOL     OW 7206  11.047   4.012  12.474
68458SOL    HW1 7207  11.003   3.927  12.472
68458SOL    HW2 7208  11.140   3.991  12.463
68459SOL     OW 7209   7.195   6.219   8.261
68459SOL    HW1 7210   7.284   6.211   8.225
68459SOL    HW2 7211   7.209   6.238   8.354
68460SOL     OW 7212   7.701  11.453   8.211
68460SOL    HW1 7213   7.777  11.453   8.269
68460SOL    HW2 7214   7.636  11.400   8.257
68461SOL     OW 7215   6.005   3.953   7.167
68461SOL    HW1 7216   6.004   4.049   7.158
68461SOL    HW2 7217   5.914   3.927   7.150
68462SOL     OW 7218  14.653   5.274   0.435
68462SOL    HW1 7219  14.614   5.331   0.369
68462SOL    HW2 7220  14.666   5.191   0.390
68463SOL     OW 7221   1.658   5.055   6.791
68463SOL    HW1 7222   1.746   5.051   6.753
68463SOL    HW2 7223   1.615   4.976   6.760
68464SOL     OW 7224   2.647   5.433   6.428
68464SOL    HW1 7225   2.584   5.363   6.408
68464SOL    HW2 7226   2.661   5.426   6.523
68465SOL     OW 7227   9.565   2.332  10.776
68465SOL    HW1 7228   9.646   2.329  10.725
68465SOL    HW2 7229   9.591   2.366  10.861
68466SOL     OW 7230  13.739   7.967   3.954
68466SOL    HW1 7231  13.754   7.920   4.036
68466SOL    HW2 7232  13.693   7.905   3.898
68467SOL     OW 7233   5.173   2.612   3.380
68467SOL    HW1 7234   5.223   2.584   3.456
68467SOL    HW2 7235   5.114   2.679   3.413
68468SOL     OW 7236   1.520   8.276   1.282
68468SOL    HW1 7237   1.537   8.182   1.284
68468SOL    HW2 7238   1.539   8.302   1.192
68469SOL     OW 7239   7.066  11.167  10.870
68469SOL    HW1 7240   7.104  11.250  10.840
68469SOL    HW2 7241   7.098  11.158  10.960
68470SOL     OW 7242  13.738   4.537  11.794
68470SOL    HW1 7243  13.804   4.467  11.793
68470SOL    HW2 7244  13.655   4.491  11.802
68471SOL     OW 7245   4.297   1.947   2.019
68471SOL    HW1 7246   4.227   2.010   2.034
68471SOL    HW2 7247   4.362   1.967   2.087
68472SOL     OW 7248   2.952   5.210  12.557
68472SOL    HW1 7249   2.973   5.116  12.556
68472SOL    HW2 7250   3.031   5.251  12.594
68473SOL     OW 7251   7.280   5.100   6.363
68473SOL    HW1 7252   7.338   5.045   6.415
68473SOL    HW2 7253   7.290   5.068   6.273
68474SOL     OW 7254  14.464  14.134   2.929
68474SOL    HW1 7255  14.500  14.077   2.997
68474SOL    HW2 7256  14.444  14.216   2.974
68475SOL     OW 7257   8.260   9.266   5.592
68475SOL    HW1 7258   8.268   9.307   5.506
68475SOL    HW2 7259   8.171   9.287   5.621
68476SOL     OW 7260  12.409  11.705   5.170
68476SOL    HW1 7261  12.492  11.670   5.138
68476SOL    HW2 7262  12.384  11.770   5.105
68477SOL     OW 7263   4.599   5.236   7.303
68477SOL    HW1 7264   4.553   5.319   7.292
68477SOL    HW2 7265   4.533   5.176   7.337
68478SOL     OW 7266   2.409   0.640   7.790
68478SOL    HW1 7267   2.383   0.616   7.878
68478SOL    HW2 7268   2.458   0.722   7.801
68479SOL     OW 7269   9.146  12.795   5.102
68479SOL    HW1 7270   9.142  12.862   5.033
68479SOL    HW2 7271   9.127  12.713   5.055
68480SOL     OW 7272   5.313   6.591  10.618
68480SOL    HW1 7273   5.244   6.633  10.566
68480SOL    HW2 7274   5.299   6.498  10.605
68481SOL     OW 7275   5.496   7.103  10.748
68481SOL    HW1 7276   5.571   7.043  10.748
68481SOL    HW2 7277   5.420   7.046  10.752
68482SOL     OW 7278   8.833   2.587   8.003
68482SOL    HW1 7279   8.770   2.638   7.953
68482SOL    HW2 7280   8.824   2.618   8.093
68483SOL     OW 7281   5.672   6.611   7.663
68483SOL    HW1 7282   5.622   6.537   7.696
68483SOL    HW2 7283   5.726   6.574   7.592
68484SOL     OW 7284   1.680   7.330   0.685
68484SOL    HW1 7285   1.731   7.251   0.666
68484SOL    HW2 7286   1.670   7.373   0.600
68485SOL     OW 7287  11.566   5.566   5.116
68485SOL    HW1 7288  11.480   5.604   5.101
68485SOL    HW2 7289  11.559   5.476   5.085
68486SOL     OW 7290  13.528  11.225  11.727
68486SOL    HW1 7291  13.554  11.235  11.635
68486SOL    HW2 7292  13.453  11.166  11.724
68487SOL     OW 7293   9.714  11.246  10.100
68487SOL    HW1 7294   9.775  11.290  10.158
68487SOL    HW2 7295   9.690  11.166  10.146
68488SOL     OW 7296   6.734  10.198  11.200
68488SOL    HW1 7297   6.723  10.224  11.291
68488SOL    HW2 7298   6.650  10.218  11.159
68489SOL     OW 7299   9.141  10.098   2.085
68489SOL    HW1 7300   9.195  10.156   2.031
68489SOL    HW2 7301   9.087  10.050   2.022
68490SOL     OW 7302   9.353   0.314   1.405
68490SOL    HW1 7303   9.419   0.355   1.349
68490SOL    HW2 7304   9.337   0.229   1.365
68491SOL     OW 7305   9.614  10.079  13.218
68491SOL    HW1 7306   9.518  10.080  13.218
68491SOL    HW2 7307   9.638  10.130  13.141
68492SOL     OW 7308  13.109   1.930   3.967
68492SOL    HW1 7309  13.049   1.987   4.014
68492SOL    HW2 7310  13.172   1.990   3.925
68493SOL     OW 7311   2.560   6.451   7.515
68493SOL    HW1 7312   2.465   6.460   7.521
68493SOL    HW2 7313   2.586   6.413   7.600
68494SOL     OW 7314   2.277   4.466   5.267
68494SOL    HW1 7315   2.215   4.523   5.222
68494SOL    HW2 7316   2.292   4.394   5.205
68495SOL     OW 7317   1.512   6.158   4.018
68495SOL    HW1 7318   1.586   6.209   4.052
68495SOL    HW2 7319   1.435   6.202   4.053
68496SOL     OW 7320   4.835   3.371   2.264
68496SOL    HW1 7321   4.839   3.466   2.273
68496SOL    HW2 7322   4.921   3.346   2.230
68497SOL     OW 7323  10.060   0.286   1.034
68497SOL    HW1 7324  10.151   0.272   1.058
68497SOL    HW2 7325  10.036   0.210   0.981
68498SOL     OW 7326   2.773  10.705   3.620
68498SOL    HW1 7327   2.836  10.676   3.686
68498SOL    HW2 7328   2.814  10.783   3.582
68499SOL     OW 7329   0.667   8.472   8.588
68499SOL    HW1 7330   0.672   8.377   8.587
68499SOL    HW2 7331   0.671   8.495   8.680
68500SOL     OW 7332   0.206  12.598   8.879
68500SOL    HW1 7333   0.159  12.515   8.884
68500SOL    HW2 7334   0.137  12.665   8.880
68501SOL     OW 7335   8.704   2.942   8.045
68501SOL    HW1 7336   8.778   2.890   8.079
68501SOL    HW2 7337   8.718   3.029   8.081
68502SOL     OW 7338   1.913  13.955   9.156
68502SOL    HW1 7339   1.868  13.932   9.075
68502SOL    HW2 7340   1.880  13.892   9.220
68503SOL     OW 7341   9.725   8.696   2.116
68503SOL    HW1 7342   9.785   8.628   2.086
68503SOL    HW2 7343   9.641   8.672   2.078
68504SOL     OW 7344  14.396   6.697   0.820
68504SOL    HW1 7345  14.380   6.643   0.897
68504SOL    HW2 7346  14.443   6.773   0.853
68505SOL     OW 7347  13.198   0.574   3.010
68505SOL    HW1 7348  13.156   0.493   3.037
68505SOL    HW2 7349  13.290   0.563   3.034
68506SOL     OW 7350   9.171   9.112   5.304
68506SOL    HW1 7351   9.141   9.191   5.348
68506SOL    HW2 7352   9.106   9.046   5.328
68507SOL     OW 7353  10.738   6.037  11.639
68507SOL    HW1 7354  10.788   6.002  11.565
68507SOL    HW2 7355  10.659   6.073  11.600
68508SOL     OW 7356   7.510   6.721  10.512
68508SOL    HW1 7357   7.542   6.631  10.518
68508SOL    HW2 7358   7.415   6.713  10.519
68509SOL     OW 7359  11.314   1.117   7.340
68509SOL    HW1 7360  11.259   1.040   7.324
68509SOL    HW2 7361  11.264   1.169   7.404
68510SOL     OW 7362   8.253   2.362  14.031
68510SOL    HW1 7363   8.175   2.307  14.037
68510SOL    HW2 7364   8.260   2.383  13.938
68511SOL     OW 7365   7.001   6.630  10.750
68511SOL    HW1 7366   7.015   6.570  10.677
68511SOL    HW2 7367   7.023   6.579  10.828
68512SOL     OW 7368   2.016   8.036   3.067
68512SOL    HW1 7369   1.936   8.016   3.019
68512SOL    HW2 7370   2.083   7.983   3.025
68513SOL     OW 7371   9.921   4.368   1.905
68513SOL    HW1 7372   9.988   4.411   1.959
68513SOL    HW2 7373   9.857   4.438   1.887
68514SOL     OW 7374   6.913  12.410   0.030
68514SOL    HW1 7375   6.819  12.424   0.020
68514SOL    HW2 7376   6.950  12.499   0.031
68515SOL     OW 7377   7.230   8.502   7.127
68515SOL    HW1 7378   7.269   8.562   7.064
68515SOL    HW2 7379   7.207   8.425   7.074
68516SOL     OW 7380   8.226  12.233   5.933
68516SOL    HW1 7381   8.143  12.271   5.905
68516SOL    HW2 7382   8.291  12.301   5.915
68517SOL     OW 7383  13.222   5.829   6.669
68517SOL    HW1 7384  13.272   5.799   6.593
68517SOL    HW2 7385  13.170   5.753   6.694
68518SOL     OW 7386  10.208  12.962  12.603
68518SOL    HW1 7387  10.227  13.017  12.527
68518SOL    HW2 7388  10.275  12.894  12.600
68519SOL     OW 7389   2.796  13.636  10.279
68519SOL    HW1 7390   2.746  13.566  10.238
68519SOL    HW2 7391   2.848  13.674  10.208
68520SOL     OW 7392  10.724   8.932  11.719
68520SOL    HW1 7393  10.700   8.923  11.627
68520SOL    HW2 7394  10.647   8.901  11.767
68521SOL     OW 7395   4.617   8.485   7.775
68521SOL    HW1 7396   4.617   8.443   7.690
68521SOL    HW2 7397   4.708   8.482   7.804
68522SOL     OW 7398   1.252  11.560  14.831
68522SOL    HW1 7399   1.166  11.558  14.790
68522SOL    HW2 7400   1.304  11.618  14.776
68523SOL     OW 7401  13.914   4.489   0.521
68523SOL    HW1 7402  13.834   4.441   0.539
68523SOL    HW2 7403  13.917   4.496   0.425
68524SOL     OW 7404   8.196  13.514  10.978
68524SOL    HW1 7405   8.142  13.535  11.053
68524SOL    HW2 7406   8.139  13.527  10.902
68525SOL     OW 7407   8.611   7.940   2.208
68525SOL    HW1 7408   8.542   7.953   2.143
68525SOL    HW2 7409   8.566   7.897   2.281
68526SOL     OW 7410   0.303   3.331   2.614
68526SOL    HW1 7411   0.350   3.248   2.604
68526SOL    HW2 7412   0.253   3.341   2.533
68527SOL     OW 7413   9.308  11.401   7.255
68527SOL    HW1 7414   9.345  11.485   7.282
68527SOL    HW2 7415   9.220  11.422   7.223
68528SOL     OW 7416  14.531   8.021  12.815
68528SOL    HW1 7417  14.497   8.089  12.758
68528SOL    HW2 7418  14.464   7.953  12.815
68529SOL     OW 7419  13.352   6.530   9.367
68529SOL    HW1 7420  13.333   6.585   9.443
68529SOL    HW2 7421  13.315   6.444   9.391
68530SOL     OW 7422  14.667   9.487   4.010
68530SOL    HW1 7423  14.576   9.513   3.997
68530SOL    HW2 7424  14.718   9.564   3.984
68531SOL     OW 7425   1.947  10.256  10.573
68531SOL    HW1 7426   1.892  10.217  10.641
68531SOL    HW2 7427   1.947  10.191  10.503
68532SOL     OW 7428  13.894   6.165   6.097
68532SOL    HW1 7429  13.939   6.239   6.057
68532SOL    HW2 7430  13.955   6.134   6.165
68533SOL     OW 7431   5.984   4.910  12.309
68533SOL    HW1 7432   6.079   4.921  12.312
68533SOL    HW2 7433   5.950   4.995  12.281
68534SOL     OW 7434   2.691  12.946  12.465
68534SOL    HW1 7435   2.663  12.958  12.374
68534SOL    HW2 7436   2.634  12.876  12.498
68535SOL     OW 7437   1.592  12.361  13.088
68535SOL    HW1 7438   1.657  12.390  13.152
68535SOL    HW2 7439   1.641  12.350  13.007
68536SOL     OW 7440   7.830   0.964   5.900
68536SOL    HW1 7441   7.783   1.047   5.896
68536SOL    HW2 7442   7.856   0.956   5.992
68537SOL     OW 7443   0.548   5.120  12.049
68537SOL    HW1 7444   0.511   5.187  12.107
68537SOL    HW2 7445   0.571   5.168  11.969
68538SOL     OW 7446   1.011   9.536  10.540
68538SOL    HW1 7447   1.106   9.544  10.543
68538SOL    HW2 7448   0.984   9.537  10.632
68539SOL     OW 7449   7.691   0.594  10.521
68539SOL    HW1 7450   7.693   0.508  10.563
68539SOL    HW2 7451   7.772   0.599  10.470
68540SOL     OW 7452   0.430   7.807  12.731
68540SOL    HW1 7453   0.421   7.901  12.751
68540SOL    HW2 7454   0.340   7.776  12.721
68541SOL     OW 7455   5.856   1.055  14.774
68541SOL    HW1 7456   5.908   0.994  14.721
68541SOL    HW2 7457   5.765   1.038  14.750
68542SOL     OW 7458   3.448   1.214   0.774
68542SOL    HW1 7459   3.515   1.258   0.827
68542SOL    HW2 7460   3.490   1.197   0.690
68543SOL     OW 7461  11.655   2.968   2.923
68543SOL    HW1 7462  11.657   2.878   2.954
68543SOL    HW2 7463  11.563   2.983   2.901
68544SOL     OW 7464  11.754   8.743   5.420
68544SOL    HW1 7465  11.766   8.666   5.366
68544SOL    HW2 7466  11.664   8.771   5.404
68545SOL     OW 7467   8.184   4.236   4.530
68545SOL    HW1 7468   8.102   4.280   4.550
68545SOL    HW2 7469   8.188   4.235   4.434
68546SOL     OW 7470   3.665  11.318   6.200
68546SOL    HW1 7471   3.616  11.236   6.193
68546SOL    HW2 7472   3.598  11.385   6.218
68547SOL     OW 7473   8.030  12.291  14.273
68547SOL    HW1 7474   8.112  12.338  14.262
68547SOL    HW2 7475   7.964  12.347  14.233
68548SOL     OW 7476  10.623   1.563   6.876
68548SOL    HW1 7477  10.550   1.577   6.936
68548SOL    HW2 7478  10.667   1.484   6.909
68549SOL     OW 7479  12.479  10.506  13.446
68549SOL    HW1 7480  12.470  10.480  13.538
68549SOL    HW2 7481  12.390  10.525  13.417
68550SOL     OW 7482   5.305  12.592   3.543
68550SOL    HW1 7483   5.280  12.555   3.458
68550SOL    HW2 7484   5.398  12.572   3.552
68551SOL     OW 7485  11.470   2.571  10.308
68551SOL    HW1 7486  11.398   2.579  10.245
68551SOL    HW2 7487  11.449   2.493  10.359
68552SOL     OW 7488   1.597  13.326  12.417
68552SOL    HW1 7489   1.507  13.299  12.398
68552SOL    HW2 7490   1.621  13.279  12.496
68553SOL     OW 7491  12.365   9.296   3.462
68553SOL    HW1 7492  12.423   9.365   3.432
68553SOL    HW2 7493  12.297   9.341   3.511
68554SOL     OW 7494   9.893   8.668   9.439
68554SOL    HW1 7495   9.851   8.682   9.355
68554SOL    HW2 7496   9.820   8.651   9.500
68555SOL     OW 7497  11.230   3.902  11.388
68555SOL    HW1 7498  11.154   3.935  11.340
68555SOL    HW2 7499  11.302   3.906  11.325
68556SOL     OW 7500   0.981   1.434   7.050
68556SOL    HW1 7501   0.948   1.403   7.134
68556SOL    HW2 7502   0.963   1.361   6.989
68557SOL     OW 7503   4.176   3.612   6.424
68557SOL    HW1 7504   4.139   3.700   6.421
68557SOL    HW2 7505   4.107   3.557   6.460
68558SOL     OW 7506   8.735   3.698  12.522
68558SOL    HW1 7507   8.669   3.644  12.477
68558SOL    HW2 7508   8.684   3.755  12.579
68559SOL     OW 7509  12.152  14.047   2.838
68559SOL    HW1 7510  12.132  14.091   2.921
68559SOL    HW2 7511  12.086  13.978   2.831
68560SOL     OW 7512   5.342  11.079  14.078
68560SOL    HW1 7513   5.353  11.113  13.989
68560SOL    HW2 7514   5.279  11.138  14.119
68561SOL     OW 7515  14.807   0.703   9.567
68561SOL    HW1 7516  14.754   0.695   9.646
68561SOL    HW2 7517  14.749   0.744   9.503
68562SOL     OW 7518  14.234   6.715  11.735
68562SOL    HW1 7519  14.205   6.801  11.705
68562SOL    HW2 7520  14.204   6.655  11.668
68563SOL     OW 7521  13.363   2.236  11.010
68563SOL    HW1 7522  13.397   2.302  11.069
68563SOL    HW2 7523  13.273   2.263  10.992
68564SOL     OW 7524  11.268   3.142   9.199
68564SOL    HW1 7525  11.279   3.163   9.106
68564SOL    HW2 7526  11.351   3.166   9.239
68565SOL     OW 7527  12.604   6.503   5.319
68565SOL    HW1 7528  12.623   6.461   5.235
68565SOL    HW2 7529  12.555   6.582   5.295
68566SOL     OW 7530  11.360   9.374   2.190
68566SOL    HW1 7531  11.436   9.321   2.168
68566SOL    HW2 7532  11.300   9.313   2.233
68567SOL     OW 7533   1.900   3.537  12.660
68567SOL    HW1 7534   1.953   3.492  12.594
68567SOL    HW2 7535   1.950   3.616  12.681
68568SOL     OW 7536   4.156  12.723   3.034
68568SOL    HW1 7537   4.062  12.713   3.048
68568SOL    HW2 7538   4.185  12.637   3.003
68569SOL     OW 7539   7.133   4.204   3.946
68569SOL    HW1 7540   7.139   4.161   3.861
68569SOL    HW2 7541   7.212   4.177   3.993
68570SOL     OW 7542   8.609  14.711   5.135
68570SOL    HW1 7543   8.540  14.646   5.116
68570SOL    HW2 7544   8.658  14.718   5.053
68571SOL     OW 7545   9.733  12.333   3.577
68571SOL    HW1 7546   9.734  12.371   3.665
68571SOL    HW2 7547   9.655  12.276   3.576
68572SOL     OW 7548  11.164   6.059   9.925
68572SOL    HW1 7549  11.123   6.108   9.996
68572SOL    HW2 7550  11.101   6.063   9.854
68573SOL     OW 7551   9.404  14.123  11.362
68573SOL    HW1 7552   9.486  14.092  11.325
68573SOL    HW2 7553   9.424  14.211  11.394
68574SOL     OW 7554   4.410   1.032   2.235
68574SOL    HW1 7555   4.405   0.955   2.179
68574SOL    HW2 7556   4.429   0.997   2.323
68575SOL     OW 7557   8.688  14.329   7.129
68575SOL    HW1 7558   8.651  14.262   7.071
68575SOL    HW2 7559   8.614  14.358   7.182
68576SOL     OW 7560   5.908   3.855   4.556
68576SOL    HW1 7561   5.856   3.909   4.496
68576SOL    HW2 7562   5.987   3.907   4.572
68577SOL     OW 7563   8.094   0.274   3.856
68577SOL    HW1 7564   8.162   0.254   3.790
68577SOL    HW2 7565   8.024   0.211   3.838
68578SOL     OW 7566  12.031   8.459   6.025
68578SOL    HW1 7567  12.107   8.495   6.070
68578SOL    HW2 7568  11.956   8.495   6.073
68579SOL     OW 7569   1.690   8.338  11.928
68579SOL    HW1 7570   1.739   8.351  12.009
68579SOL    HW2 7571   1.660   8.247  11.931
68580SOL     OW 7572  14.310   0.754   6.489
68580SOL    HW1 7573  14.359   0.737   6.409
68580SOL    HW2 7574  14.250   0.824   6.466
68581SOL     OW 7575   2.652   0.254  10.873
68581SOL    HW1 7576   2.564   0.232  10.843
68581SOL    HW2 7577   2.654   0.350  10.872
68582SOL     OW 7578   8.024   6.290   9.569
68582SOL    HW1 7579   7.966   6.278   9.494
68582SOL    HW2 7580   8.091   6.222   9.558
68583SOL     OW 7581   7.565   7.657   3.484
68583SOL    HW1 7582   7.646   7.640   3.435
68583SOL    HW2 7583   7.565   7.751   3.499
68584SOL     OW 7584   8.274   4.986   6.991
68584SOL    HW1 7585   8.341   4.931   6.951
68584SOL    HW2 7586   8.223   5.020   6.917
68585SOL     OW 7587  13.719  12.682  11.757
68585SOL    HW1 7588  13.742  12.693  11.849
68585SOL    HW2 7589  13.722  12.770  11.720
68586SOL     OW 7590  11.609   8.664  12.837
68586SOL    HW1 7591  11.604   8.703  12.924
68586SOL    HW2 7592  11.521   8.632  12.819
68587SOL     OW 7593   8.756   0.016   8.112
68587SOL    HW1 7594   8.749  14.872   8.205
68587SOL    HW2 7595   8.843  14.864   8.087
68588SOL     OW 7596  11.762   0.041  13.464
68588SOL    HW1 7597  11.754   0.025  13.558
68588SOL    HW2 7598  11.695   0.107  13.445
68589SOL     OW 7599  10.601   5.373   8.986
68589SOL    HW1 7600  10.589   5.341   8.896
68589SOL    HW2 7601  10.547   5.451   8.992
68590SOL     OW 7602   8.002   7.436   2.919
68590SOL    HW1 7603   7.926   7.483   2.885
68590SOL    HW2 7604   7.967   7.351   2.945
68591SOL     OW 7605   0.936   7.008  13.928
68591SOL    HW1 7606   0.875   6.969  13.991
68591SOL    HW2 7607   0.938   7.101  13.951
68592SOL     OW 7608   3.801  10.775  12.834
68592SOL    HW1 7609   3.811  10.847  12.772
68592SOL    HW2 7610   3.721  10.730  12.807
68593SOL     OW 7611   7.483   3.928   0.865
68593SOL    HW1 7612   7.489   3.837   0.835
68593SOL    HW2 7613   7.519   3.926   0.954
68594SOL     OW 7614   3.897   4.454   9.974
68594SOL    HW1 7615   3.821   4.508   9.950
68594SOL    HW2 7616   3.956   4.514  10.019
68595SOL     OW 7617   2.239   1.055  11.593
68595SOL    HW1 7618   2.197   1.083  11.512
68595SOL    HW2 7619   2.296   1.128  11.617
68596SOL     OW 7620   0.490   5.897   5.302
68596SOL    HW1 7621   0.457   5.810   5.323
68596SOL    HW2 7622   0.425   5.957   5.338
68597SOL     OW 7623   6.694   1.506   7.252
68597SOL    HW1 7624   6.717   1.451   7.327
68597SOL    HW2 7625   6.610   1.472   7.222
68598SOL     OW 7626  13.146   1.895   2.097
68598SOL    HW1 7627  13.197   1.897   2.178
68598SOL    HW2 7628  13.209   1.913   2.027
68599SOL     OW 7629  13.261  12.076  14.608
68599SOL    HW1 7630  13.169  12.071  14.634
68599SOL    HW2 7631  13.293  12.156  14.649
68600SOL     OW 7632   3.727  14.171  14.424
68600SOL    HW1 7633   3.672  14.204  14.353
68600SOL    HW2 7634   3.817  14.179  14.391
68601SOL     OW 7635  10.932   2.782   0.846
68601SOL    HW1 7636  11.008   2.748   0.894
68601SOL    HW2 7637  10.884   2.833   0.910
68602SOL     OW 7638   6.413   3.372   6.314
68602SOL    HW1 7639   6.395   3.290   6.359
68602SOL    HW2 7640   6.474   3.349   6.244
68603SOL     OW 7641  13.138   4.415  10.032
68603SOL    HW1 7642  13.169   4.328  10.059
68603SOL    HW2 7643  13.169   4.473  10.102
68604SOL     OW 7644   1.620  11.803   7.076
68604SOL    HW1 7645   1.559  11.852   7.019
68604SOL    HW2 7646   1.581  11.809   7.163
68605SOL     OW 7647   6.234  14.805   4.783
68605SOL    HW1 7648   6.315  14.851   4.760
68605SOL    HW2 7649   6.229  14.812   4.878
68606SOL     OW 7650   4.325   3.020  14.002
68606SOL    HW1 7651   4.384   2.990  14.070
68606SOL    HW2 7652   4.284   3.099  14.038
68607SOL     OW 7653   3.514  12.908   9.047
68607SOL    HW1 7654   3.575  12.931   9.116
68607SOL    HW2 7655   3.452  12.848   9.089
68608SOL     OW 7656  12.143  11.693   4.207
68608SOL    HW1 7657  12.189  11.645   4.276
68608SOL    HW2 7658  12.080  11.748   4.254
68609SOL     OW 7659   1.939  10.053   5.393
68609SOL    HW1 7660   2.013   9.992   5.397
68609SOL    HW2 7661   1.898  10.047   5.480
68610SOL     OW 7662  12.180   6.005   6.040
68610SOL    HW1 7663  12.214   5.929   5.994
68610SOL    HW2 7664  12.251   6.069   6.036
68611SOL     OW 7665  13.156   0.999  12.916
68611SOL    HW1 7666  13.160   0.919  12.865
68611SOL    HW2 7667  13.065   1.004  12.946
68612SOL     OW 7668   0.820   8.141  14.470
68612SOL    HW1 7669   0.757   8.181  14.530
68612SOL    HW2 7670   0.817   8.047  14.490
68613SOL     OW 7671   5.569   1.528   3.441
68613SOL    HW1 7672   5.562   1.513   3.535
68613SOL    HW2 7673   5.624   1.457   3.409
68614SOL     OW 7674  12.921  14.384   1.039
68614SOL    HW1 7675  12.946  14.364   0.949
68614SOL    HW2 7676  12.953  14.309   1.090
68615SOL     OW 7677   5.502   4.792  12.656
68615SOL    HW1 7678   5.473   4.882  12.640
68615SOL    HW2 7679   5.597   4.795  12.646
68616SOL     OW 7680   3.474  14.560   9.918
68616SOL    HW1 7681   3.441  14.575   9.830
68616SOL    HW2 7682   3.490  14.647   9.954
68617SOL     OW 7683   5.777  10.607   0.875
68617SOL    HW1 7684   5.871  10.609   0.855
68617SOL    HW2 7685   5.735  10.613   0.789
68618SOL     OW 7686   0.272  12.308  14.656
68618SOL    HW1 7687   0.226  12.224  14.660
68618SOL    HW2 7688   0.332  12.299  14.582
68619SOL     OW 7689   1.441  11.872   1.801
68619SOL    HW1 7690   1.401  11.928   1.867
68619SOL    HW2 7691   1.374  11.807   1.781
68620SOL     OW 7692   4.578   1.438  10.367
68620SOL    HW1 7693   4.632   1.412  10.293
68620SOL    HW2 7694   4.541   1.522  10.341
68621SOL     OW 7695   4.993   2.172   7.897
68621SOL    HW1 7696   5.019   2.205   7.811
68621SOL    HW2 7697   5.073   2.176   7.949
68622SOL     OW 7698   1.982  11.423   5.647
68622SOL    HW1 7699   2.008  11.474   5.570
68622SOL    HW2 7700   1.948  11.488   5.709
68623SOL     OW 7701  14.365  12.172   3.452
68623SOL    HW1 7702  14.271  12.173   3.440
68623SOL    HW2 7703  14.380  12.226   3.530
68624SOL     OW 7704   9.305   7.113  14.630
68624SOL    HW1 7705   9.231   7.096  14.689
68624SOL    HW2 7706   9.318   7.208  14.635
68625SOL     OW 7707  10.312   0.400  14.011
68625SOL    HW1 7708  10.260   0.399  14.091
68625SOL    HW2 7709  10.306   0.311  13.977
68626SOL     OW 7710   7.724  13.428  10.399
68626SOL    HW1 7711   7.804  13.431  10.346
68626SOL    HW2 7712   7.752  13.455  10.486
68627SOL     OW 7713   0.978   7.594   3.823
68627SOL    HW1 7714   1.021   7.649   3.889
68627SOL    HW2 7715   1.042   7.525   3.804
68628SOL     OW 7716  11.895   9.722   2.537
68628SOL    HW1 7717  11.859   9.774   2.465
68628SOL    HW2 7718  11.819   9.680   2.577
68629SOL     OW 7719   5.392   4.593   0.533
68629SOL    HW1 7720   5.440   4.674   0.517
68629SOL    HW2 7721   5.383   4.589   0.629
68630SOL     OW 7722  10.069  11.092   9.736
68630SOL    HW1 7723  10.028  11.179   9.728
68630SOL    HW2 7724  10.008  11.032   9.693
68631SOL     OW 7725   5.450   6.739   4.705
68631SOL    HW1 7726   5.497   6.693   4.635
68631SOL    HW2 7727   5.359   6.736   4.679
68632SOL     OW 7728  11.299  14.090   8.550
68632SOL    HW1 7729  11.221  14.137   8.521
68632SOL    HW2 7730  11.316  14.124   8.638
68633SOL     OW 7731   5.783   4.038   0.035
68633SOL    HW1 7732   5.837   3.988   0.096
68633SOL    HW2 7733   5.698   3.993   0.035
68634SOL     OW 7734   3.570   7.663   0.463
68634SOL    HW1 7735   3.519   7.582   0.456
68634SOL    HW2 7736   3.537   7.704   0.543
68635SOL     OW 7737  10.178   8.565   6.080
68635SOL    HW1 7738  10.214   8.506   6.014
68635SOL    HW2 7739  10.119   8.511   6.131
68636SOL     OW 7740   2.571   0.819   9.139
68636SOL    HW1 7741   2.571   0.724   9.151
68636SOL    HW2 7742   2.654   0.838   9.095
68637SOL     OW 7743   5.743   7.977   8.937
68637SOL    HW1 7744   5.750   8.072   8.937
68637SOL    HW2 7745   5.726   7.954   8.845
68638SOL     OW 7746   1.443   2.627   2.013
68638SOL    HW1 7747   1.394   2.637   1.932
68638SOL    HW2 7748   1.385   2.661   2.081
68639SOL     OW 7749   9.262  13.049   2.031
68639SOL    HW1 7750   9.302  13.132   2.057
68639SOL    HW2 7751   9.174  13.073   2.001
68640SOL     OW 7752  13.733  11.242  14.274
68640SOL    HW1 7753  13.703  11.301  14.205
68640SOL    HW2 7754  13.761  11.300  14.344
68641SOL     OW 7755  10.875  12.193  10.542
68641SOL    HW1 7756  10.832  12.272  10.508
68641SOL    HW2 7757  10.898  12.215  10.632
68642SOL     OW 7758   0.887   5.960  11.875
68642SOL    HW1 7759   0.907   5.879  11.828
68642SOL    HW2 7760   0.795   5.951  11.900
68643SOL     OW 7761  13.571  14.354   9.579
68643SOL    HW1 7762  13.606  14.273   9.616
68643SOL    HW2 7763  13.560  14.336   9.486
68644SOL     OW 7764   6.122   5.724  10.757
68644SOL    HW1 7765   6.125   5.712  10.662
68644SOL    HW2 7766   6.065   5.800  10.770
68645SOL     OW 7767   2.583  13.008   3.660
68645SOL    HW1 7768   2.513  13.073   3.659
68645SOL    HW2 7769   2.552  12.939   3.719
68646SOL     OW 7770   2.143   0.786  14.513
68646SOL    HW1 7771   2.148   0.877  14.542
68646SOL    HW2 7772   2.060   0.781  14.465
68647SOL     OW 7773   8.057   9.199   1.055
68647SOL    HW1 7774   8.131   9.173   1.000
68647SOL    HW2 7775   8.092   9.200   1.144
68648SOL     OW 7776   3.526  13.086   9.475
68648SOL    HW1 7777   3.489  13.062   9.560
68648SOL    HW2 7778   3.601  13.141   9.497
68649SOL     OW 7779  12.151   9.262   0.432
68649SOL    HW1 7780  12.089   9.231   0.498
68649SOL    HW2 7781  12.202   9.185   0.409
68650SOL     OW 7782   7.536  11.127  11.480
68650SOL    HW1 7783   7.487  11.112  11.561
68650SOL    HW2 7784   7.470  11.157  11.418
68651SOL     OW 7785  12.252   2.893  14.451
68651SOL    HW1 7786  12.330   2.838  14.444
68651SOL    HW2 7787  12.196   2.848  14.513
68652SOL     OW 7788  10.886   4.239  12.207
68652SOL    HW1 7789  10.841   4.278  12.132
68652SOL    HW2 7790  10.972   4.215  12.174
68653SOL     OW 7791   4.940   9.286   9.264
68653SOL    HW1 7792   5.030   9.268   9.293
68653SOL    HW2 7793   4.899   9.325   9.341
68654SOL     OW 7794   9.756  10.589   2.259
68654SOL    HW1 7795   9.675  10.559   2.301
68654SOL    HW2 7796   9.798  10.644   2.325
68655SOL     OW 7797  11.829   2.296   2.555
68655SOL    HW1 7798  11.873   2.357   2.496
68655SOL    HW2 7799  11.858   2.209   2.524
68656SOL     OW 7800   0.844  12.445   5.249
68656SOL    HW1 7801   0.757  12.440   5.288
68656SOL    HW2 7802   0.832  12.411   5.160
68657SOL     OW 7803  13.859  11.043   5.075
68657SOL    HW1 7804  13.887  11.044   5.166
68657SOL    HW2 7805  13.901  10.967   5.037
68658SOL     OW 7806   7.914   4.541   7.670
68658SOL    HW1 7807   8.001   4.536   7.708
68658SOL    HW2 7808   7.918   4.481   7.595
68659SOL     OW 7809   3.685   2.561   7.984
68659SOL    HW1 7810   3.654   2.624   7.919
68659SOL    HW2 7811   3.775   2.589   8.004
68660SOL     OW 7812   7.823   7.997   1.367
68660SOL    HW1 7813   7.794   8.065   1.306
68660SOL    HW2 7814   7.806   8.033   1.453
68661SOL     OW 7815   9.694   1.968   2.678
68661SOL    HW1 7816   9.722   1.902   2.742
68661SOL    HW2 7817   9.600   1.952   2.667
68662SOL     OW 7818  12.065  12.068  14.384
68662SOL    HW1 7819  11.996  12.132  14.372
68662SOL    HW2 7820  12.033  12.011  14.455
68663SOL     OW 7821   7.358   7.482   8.617
68663SOL    HW1 7822   7.389   7.391   8.618
68663SOL    HW2 7823   7.435   7.535   8.635
68664SOL     OW 7824   8.237   1.011   5.615
68664SOL    HW1 7825   8.267   0.939   5.670
68664SOL    HW2 7826   8.159   1.045   5.660
68665SOL     OW 7827   5.951   6.270  13.060
68665SOL    HW1 7828   6.022   6.331  13.080
68665SOL    HW2 7829   5.878   6.325  13.033
68666SOL     OW 7830   4.107  12.940  13.066
68666SOL    HW1 7831   4.170  12.984  13.123
68666SOL    HW2 7832   4.040  13.006  13.050
68667SOL     OW 7833   5.642   6.610  11.272
68667SOL    HW1 7834   5.586   6.546  11.227
68667SOL    HW2 7835   5.729   6.593  11.237
68668SOL     OW 7836   4.636   8.881  11.105
68668SOL    HW1 7837   4.624   8.959  11.050
68668SOL    HW2 7838   4.562   8.824  11.082
68669SOL     OW 7839   0.709   8.392   2.483
68669SOL    HW1 7840   0.766   8.438   2.422
68669SOL    HW2 7841   0.727   8.299   2.467
68670SOL     OW 7842   1.831   4.740   5.838
68670SOL    HW1 7843   1.761   4.805   5.832
68670SOL    HW2 7844   1.844   4.709   5.749
68671SOL     OW 7845   5.577  12.983   0.683
68671SOL    HW1 7846   5.566  12.939   0.599
68671SOL    HW2 7847   5.528  13.065   0.673
68672SOL     OW 7848   1.986  12.469  12.202
68672SOL    HW1 7849   1.974  12.539  12.265
68672SOL    HW2 7850   1.897  12.441  12.180
68673SOL     OW 7851  13.993   3.696   5.543
68673SOL    HW1 7852  13.971   3.789   5.548
68673SOL    HW2 7853  13.913   3.654   5.511
68674SOL     OW 7854   8.105   4.252   8.660
68674SOL    HW1 7855   8.168   4.236   8.591
68674SOL    HW2 7856   8.042   4.180   8.652
68675SOL     OW 7857  11.341   5.666  14.088
68675SOL    HW1 7858  11.374   5.615  14.161
68675SOL    HW2 7859  11.323   5.752  14.125
68676SOL     OW 7860   1.016   5.999   4.392
68676SOL    HW1 7861   0.938   5.986   4.338
68676SOL    HW2 7862   1.066   5.918   4.382
68677SOL     OW 7863   2.586   5.257   6.023
68677SOL    HW1 7864   2.665   5.216   6.059
68677SOL    HW2 7865   2.523   5.254   6.095
68678SOL     OW 7866   2.210   2.231   0.462
68678SOL    HW1 7867   2.196   2.325   0.449
68678SOL    HW2 7868   2.244   2.200   0.378
68679SOL     OW 7869   9.880   7.087   4.022
68679SOL    HW1 7870   9.850   7.041   4.100
68679SOL    HW2 7871   9.869   7.024   3.951
68680SOL     OW 7872  12.057   6.698  14.630
68680SOL    HW1 7873  12.135   6.659  14.591
68680SOL    HW2 7874  12.068   6.792  14.616
68681SOL     OW 7875   1.014  10.349   9.309
68681SOL    HW1 7876   0.926  10.343   9.346
68681SOL    HW2 7877   1.015  10.283   9.239
68682SOL     OW 7878   6.907  12.649  14.053
68682SOL    HW1 7879   6.887  12.703  13.976
68682SOL    HW2 7880   6.864  12.565  14.035
68683SOL     OW 7881  10.686   8.070  14.049
68683SOL    HW1 7882  10.762   8.066  13.991
68683SOL    HW2 7883  10.705   8.144  14.108
68684SOL     OW 7884  12.458   1.515   8.751
68684SOL    HW1 7885  12.380   1.504   8.805
68684SOL    HW2 7886  12.529   1.534   8.813
68685SOL     OW 7887  13.268   4.105   9.597
68685SOL    HW1 7888  13.334   4.043   9.566
68685SOL    HW2 7889  13.214   4.055   9.658
68686SOL     OW 7890   1.390  11.129   2.668
68686SOL    HW1 7891   1.297  11.144   2.651
68686SOL    HW2 7892   1.436  11.194   2.615
68687SOL     OW 7893  11.349  12.348   9.730
68687SOL    HW1 7894  11.430  12.313   9.768
68687SOL    HW2 7895  11.289  12.274   9.728
68688SOL     OW 7896  14.281  14.032   4.896
68688SOL    HW1 7897  14.351  14.054   4.836
68688SOL    HW2 7898  14.265  13.938   4.881
68689SOL     OW 7899   2.510  12.599   0.986
68689SOL    HW1 7900   2.594  12.616   0.942
68689SOL    HW2 7901   2.532  12.599   1.079
68690SOL     OW 7902   9.998   9.330  12.725
68690SOL    HW1 7903  10.073   9.384  12.749
68690SOL    HW2 7904  10.000   9.327  12.630
68691SOL     OW 7905   7.424  14.092  11.867
68691SOL    HW1 7906   7.389  14.044  11.793
68691SOL    HW2 7907   7.422  14.184  11.840
68692SOL     OW 7908   8.400   2.611   6.812
68692SOL    HW1 7909   8.448   2.675   6.865
68692SOL    HW2 7910   8.326   2.584   6.867
68693SOL     OW 7911  14.006   9.112  10.480
68693SOL    HW1 7912  13.963   9.050  10.540
68693SOL    HW2 7913  13.940   9.129  10.413
68694SOL     OW 7914   6.577   1.493  14.569
68694SOL    HW1 7915   6.483   1.511  14.576
68694SOL    HW2 7916   6.600   1.456  14.654
68695SOL     OW 7917  10.214  12.791   9.431
68695SOL    HW1 7918  10.150  12.794   9.502
68695SOL    HW2 7919  10.299  12.792   9.474
68696SOL     OW 7920   8.329   7.254   0.743
68696SOL    HW1 7921   8.242   7.223   0.770
68696SOL    HW2 7922   8.378   7.261   0.825
68697SOL     OW 7923  11.979  11.852   5.688
68697SOL    HW1 7924  11.993  11.812   5.602
68697SOL    HW2 7925  11.929  11.786   5.737
68698SOL     OW 7926  11.888   0.027  10.683
68698SOL    HW1 7927  11.901   0.098  10.620
68698SOL    HW2 7928  11.827   0.064  10.748
68699SOL     OW 7929   1.005  12.086   1.305
68699SOL    HW1 7930   0.969  12.095   1.393
68699SOL    HW2 7931   0.993  11.994   1.282
68700SOL     OW 7932  10.911   8.141  12.459
68700SOL    HW1 7933  10.818   8.124  12.442
68700SOL    HW2 7934  10.956   8.088  12.394
68701SOL     OW 7935   3.092   8.712   1.208
68701SOL    HW1 7936   3.072   8.775   1.138
68701SOL    HW2 7937   3.048   8.748   1.285
68702SOL     OW 7938   1.520   8.427   3.073
68702SOL    HW1 7939   1.467   8.506   3.086
68702SOL    HW2 7940   1.609   8.455   3.096
68703SOL     OW 7941   6.928   6.372   1.880
68703SOL    HW1 7942   6.862   6.309   1.851
68703SOL    HW2 7943   7.012   6.332   1.856
68704SOL     OW 7944   6.558   2.773  12.034
68704SOL    HW1 7945   6.537   2.727  11.953
68704SOL    HW2 7946   6.608   2.849  12.006
68705SOL     OW 7947   9.487   7.387   6.442
68705SOL    HW1 7948   9.464   7.367   6.533
68705SOL    HW2 7949   9.418   7.446   6.412
68706SOL     OW 7950   6.044   2.361  11.191
68706SOL    HW1 7951   6.057   2.310  11.271
68706SOL    HW2 7952   6.132   2.386  11.164
68707SOL     OW 7953  13.313   1.016  13.137
68707SOL    HW1 7954  13.253   1.057  13.200
68707SOL    HW2 7955  13.264   1.013  13.055
68708SOL     OW 7956   5.837   1.443   3.861
68708SOL    HW1 7957   5.764   1.484   3.908
68708SOL    HW2 7958   5.878   1.516   3.814
68709SOL     OW 7959   5.486  14.446  11.202
68709SOL    HW1 7960   5.456  14.528  11.163
68709SOL    HW2 7961   5.430  14.434  11.278
68710SOL     OW 7962   1.754  14.523  14.147
68710SOL    HW1 7963   1.689  14.531  14.216
68710SOL    HW2 7964   1.735  14.438  14.107
68711SOL     OW 7965  14.576  12.355   0.440
68711SOL    HW1 7966  14.481  12.348   0.446
68711SOL    HW2 7967  14.602  12.279   0.388
68712SOL     OW 7968  14.363  12.328   9.129
68712SOL    HW1 7969  14.402  12.336   9.042
68712SOL    HW2 7970  14.395  12.405   9.177
68713SOL     OW 7971   6.349   6.220  14.551
68713SOL    HW1 7972   6.333   6.157  14.621
68713SOL    HW2 7973   6.315   6.303  14.584
68714SOL     OW 7974  12.370   0.212   3.499
68714SOL    HW1 7975  12.386   0.159   3.420
68714SOL    HW2 7976  12.389   0.302   3.472
68715SOL     OW 7977   9.076  14.038  10.425
68715SOL    HW1 7978   9.088  14.020  10.332
68715SOL    HW2 7979   9.137  14.108  10.445
68716SOL     OW 7980  13.888  14.532   7.545
68716SOL    HW1 7981  13.859  14.623   7.560
68716SOL    HW2 7982  13.808  14.480   7.555
68717SOL     OW 7983   3.178   3.366   1.654
68717SOL    HW1 7984   3.261   3.344   1.695
68717SOL    HW2 7985   3.112   3.323   1.709
68718SOL     OW 7986   8.772   7.318   6.305
68718SOL    HW1 7987   8.864   7.328   6.330
68718SOL    HW2 7988   8.727   7.304   6.388
68719SOL     OW 7989   0.684   2.427   5.185
68719SOL    HW1 7990   0.731   2.457   5.107
68719SOL    HW2 7991   0.612   2.489   5.196
68720SOL     OW 7992  10.513  11.079  10.187
68720SOL    HW1 7993  10.427  11.048  10.215
68720SOL    HW2 7994  10.514  11.172  10.208
68721SOL     OW 7995  11.769   6.332   4.812
68721SOL    HW1 7996  11.843   6.369   4.859
68721SOL    HW2 7997  11.807   6.263   4.757
68722SOL     OW 7998   2.080   6.415   0.052
68722SOL    HW1 7999   2.011   6.417   0.118
68722SOL    HW2 8000   2.070   6.330   0.009
68723SOL     OW 8001   4.457   7.482  14.827
68723SOL    HW1 8002   4.523   7.415  14.810
68723SOL    HW2 8003   4.464   7.498   0.043
68724SOL     OW 8004   4.206   0.980   2.844
68724SOL    HW1 8005   4.161   1.027   2.774
68724SOL    HW2 8006   4.144   0.913   2.872
68725SOL     OW 8007  10.869   7.709   5.038
68725SOL    HW1 8008  10.957   7.677   5.019
68725SOL    HW2 8009  10.853   7.685   5.130
68726SOL     OW 8010   6.632   4.983   7.922
68726SOL    HW1 8011   6.580   4.994   8.002
68726SOL    HW2 8012   6.634   4.889   7.907
68727SOL     OW 8013   4.844   8.594   1.389
68727SOL    HW1 8014   4.930   8.585   1.431
68727SOL    HW2 8015   4.803   8.509   1.402
68728SOL     OW 8016   0.043  10.052   5.769
68728SOL    HW1 8017   0.077   9.984   5.826
68728SOL    HW2 8018   0.120  10.101   5.740
68729SOL     OW 8019   6.046   5.876   6.987
68729SOL    HW1 8020   6.114   5.939   6.963
68729SOL    HW2 8021   6.088   5.791   6.977
68730SOL     OW 8022   9.586   5.963   9.605
68730SOL    HW1 8023   9.618   5.992   9.691
68730SOL    HW2 8024   9.604   6.036   9.547
68731SOL     OW 8025   0.881   2.335   0.606
68731SOL    HW1 8026   0.877   2.259   0.548
68731SOL    HW2 8027   0.904   2.408   0.548
68732SOL     OW 8028   9.999   2.285  13.154
68732SOL    HW1 8029  10.023   2.196  13.127
68732SOL    HW2 8030  10.078   2.337  13.138
68733SOL     OW 8031  14.522   5.837  13.943
68733SOL    HW1 8032  14.469   5.757  13.943
68733SOL    HW2 8033  14.611   5.806  13.928
68734SOL     OW 8034   2.971   4.576   0.359
68734SOL    HW1 8035   3.054   4.613   0.329
68734SOL    HW2 8036   2.947   4.514   0.290
68735SOL     OW 8037  12.888  12.542   8.849
68735SOL    HW1 8038  12.914  12.486   8.776
68735SOL    HW2 8039  12.809  12.585   8.819
68736SOL     OW 8040   2.507   4.145   5.922
68736SOL    HW1 8041   2.462   4.165   6.004
68736SOL    HW2 8042   2.439   4.109   5.866
68737SOL     OW 8043  14.536  13.840   5.159
68737SOL    HW1 8044  14.534  13.824   5.254
68737SOL    HW2 8045  14.451  13.809   5.128
68738SOL     OW 8046  11.275   1.647   1.428
68738SOL    HW1 8047  11.369   1.657   1.415
68738SOL    HW2 8048  11.258   1.688   1.513
68739SOL     OW 8049   2.877   7.037   7.258
68739SOL    HW1 8050   2.791   7.014   7.293
68739SOL    HW2 8051   2.915   6.953   7.230
68740SOL     OW 8052   8.372   4.845   8.977
68740SOL    HW1 8053   8.388   4.872   9.068
68740SOL    HW2 8054   8.420   4.762   8.968
68741SOL     OW 8055   8.545   3.852  12.654
68741SOL    HW1 8056   8.485   3.778  12.664
68741SOL    HW2 8057   8.500   3.926  12.694
68742SOL     OW 8058   7.928   4.614   4.793
68742SOL    HW1 8059   7.862   4.651   4.734
68742SOL    HW2 8060   7.990   4.685   4.808
68743SOL     OW 8061   5.922  14.447  13.752
68743SOL    HW1 8062   5.897  14.356  13.767
68743SOL    HW2 8063   5.869  14.474  13.676
68744SOL     OW 8064  14.205   2.565  12.339
68744SOL    HW1 8065  14.242   2.481  12.311
68744SOL    HW2 8066  14.223   2.568  12.434
68745SOL     OW 8067   6.413   0.787   0.233
68745SOL    HW1 8068   6.460   0.711   0.199
68745SOL    HW2 8069   6.476   0.831   0.289
68746SOL     OW 8070   9.017   9.619   9.750
68746SOL    HW1 8071   8.993   9.596   9.840
68746SOL    HW2 8072   8.993   9.711   9.741
68747SOL     OW 8073   8.480   4.740   5.585
68747SOL    HW1 8074   8.443   4.828   5.596
68747SOL    HW2 8075   8.544   4.750   5.514
68748SOL     OW 8076   1.409   5.813  10.574
68748SOL    HW1 8077   1.378   5.768  10.495
68748SOL    HW2 8078   1.370   5.764  10.646
68749SOL     OW 8079   8.306  11.968  13.005
68749SOL    HW1 8080   8.228  11.914  13.016
68749SOL    HW2 8081   8.370  11.909  12.966
68750SOL     OW 8082   1.403   8.522   1.067
68750SOL    HW1 8083   1.351   8.601   1.079
68750SOL    HW2 8084   1.372   8.484   0.985
68751SOL     OW 8085  10.654  11.374   3.834
68751SOL    HW1 8086  10.708  11.439   3.789
68751SOL    HW2 8087  10.565  11.393   3.806
68752SOL     OW 8088   1.509   1.496  13.611
68752SOL    HW1 8089   1.429   1.476  13.564
68752SOL    HW2 8090   1.517   1.592  13.604
68753SOL     OW 8091   9.944   8.184   2.550
68753SOL    HW1 8092  10.033   8.151   2.567
68753SOL    HW2 8093   9.903   8.186   2.636
68754SOL     OW 8094   8.893   0.300   1.381
68754SOL    HW1 8095   8.837   0.333   1.452
68754SOL    HW2 8096   8.941   0.377   1.350
68755SOL     OW 8097   8.122   7.859   0.292
68755SOL    HW1 8098   8.182   7.853   0.366
68755SOL    HW2 8099   8.128   7.950   0.263
68756SOL     OW 8100   1.422   8.196   4.111
68756SOL    HW1 8101   1.329   8.217   4.100
68756SOL    HW2 8102   1.424   8.136   4.186
68757SOL     OW 8103   3.083   2.430  14.352
68757SOL    HW1 8104   3.134   2.360  14.393
68757SOL    HW2 8105   3.091   2.504  14.412
68758SOL     OW 8106   5.577   5.788   0.792
68758SOL    HW1 8107   5.550   5.703   0.757
68758SOL    HW2 8108   5.668   5.797   0.765
68759SOL     OW 8109   0.985  13.997   9.411
68759SOL    HW1 8110   0.998  14.034   9.498
68759SOL    HW2 8111   1.063  14.025   9.361
68760SOL     OW 8112  14.413   1.201   8.372
68760SOL    HW1 8113  14.348   1.214   8.304
68760SOL    HW2 8114  14.367   1.151   8.440
68761SOL     OW 8115  10.175   4.791  13.921
68761SOL    HW1 8116  10.243   4.823  13.861
68761SOL    HW2 8117  10.093   4.809  13.876
68762SOL     OW 8118   1.209  14.627  11.382
68762SOL    HW1 8119   1.136  14.686  11.365
68762SOL    HW2 8120   1.205  14.609  11.476
68763SOL     OW 8121   7.276   4.764  12.211
68763SOL    HW1 8122   7.356   4.815  12.219
68763SOL    HW2 8123   7.206   4.830  12.210
68764SOL     OW 8124  11.191   4.057  10.004
68764SOL    HW1 8125  11.267   4.019   9.960
68764SOL    HW2 8126  11.122   4.056   9.938
68765SOL     OW 8127   8.982  11.076  12.810
68765SOL    HW1 8128   8.951  10.991  12.842
68765SOL    HW2 8129   9.008  11.059  12.720
68766SOL     OW 8130   8.802   4.881  13.583
68766SOL    HW1 8131   8.708   4.890  13.570
68766SOL    HW2 8132   8.836   4.970  13.581
68767SOL     OW 8133   2.670   4.542   8.792
68767SOL    HW1 8134   2.685   4.519   8.700
68767SOL    HW2 8135   2.626   4.466   8.829
68768SOL     OW 8136  12.020   1.494   2.610
68768SOL    HW1 8137  12.071   1.573   2.630
68768SOL    HW2 8138  11.962   1.483   2.685
68769SOL     OW 8139  11.138  10.172  11.730
68769SOL    HW1 8140  11.159  10.263  11.752
68769SOL    HW2 8141  11.221  10.133  11.705
68770SOL     OW 8142   1.628  10.593   7.248
68770SOL    HW1 8143   1.536  10.569   7.239
68770SOL    HW2 8144   1.627  10.682   7.283
68771SOL     OW 8145  11.153   2.922  10.051
68771SOL    HW1 8146  11.141   2.990   9.984
68771SOL    HW2 8147  11.161   2.970  10.133
68772SOL     OW 8148   1.264   7.781   7.285
68772SOL    HW1 8149   1.198   7.842   7.317
68772SOL    HW2 8150   1.341   7.797   7.341
68773SOL     OW 8151   8.903  13.465  14.757
68773SOL    HW1 8152   8.875  13.426  14.674
68773SOL    HW2 8153   8.962  13.400  14.795
68774SOL     OW 8154  10.203   4.318   5.151
68774SOL    HW1 8155  10.279   4.261   5.142
68774SOL    HW2 8156  10.234   4.390   5.206
68775SOL     OW 8157   7.906   2.943   7.364
68775SOL    HW1 8158   7.883   2.887   7.290
68775SOL    HW2 8159   7.883   2.891   7.441
68776SOL     OW 8160  13.639  11.232   0.817
68776SOL    HW1 8161  13.653  11.303   0.881
68776SOL    HW2 8162  13.679  11.155   0.858
68777SOL     OW 8163  12.011  12.626  10.768
68777SOL    HW1 8164  11.953  12.697  10.739
68777SOL    HW2 8165  12.045  12.588  10.687
68778SOL     OW 8166   1.948  11.974   1.369
68778SOL    HW1 8167   1.865  12.004   1.332
68778SOL    HW2 8168   1.923  11.927   1.448
68779SOL     OW 8169   3.965  12.016   5.726
68779SOL    HW1 8170   3.990  11.924   5.716
68779SOL    HW2 8171   4.028  12.051   5.790
68780SOL     OW 8172   9.521  14.487  10.176
68780SOL    HW1 8173   9.609  14.517  10.200
68780SOL    HW2 8174   9.486  14.558  10.123
68781SOL     OW 8175   2.672   5.916   7.122
68781SOL    HW1 8176   2.767   5.925   7.107
68781SOL    HW2 8177   2.654   5.972   7.197
68782SOL     OW 8178   6.892   2.048   0.166
68782SOL    HW1 8179   6.947   1.988   0.115
68782SOL    HW2 8180   6.810   2.000   0.178
68783SOL     OW 8181   0.724  13.431   5.105
68783SOL    HW1 8182   0.738  13.498   5.171
68783SOL    HW2 8183   0.636  13.448   5.071
68784SOL     OW 8184  14.520  12.304   1.685
68784SOL    HW1 8185  14.592  12.340   1.737
68784SOL    HW2 8186  14.556  12.299   1.596
68785SOL     OW 8187   3.669  11.744  10.945
68785SOL    HW1 8188   3.672  11.723  11.039
68785SOL    HW2 8189   3.600  11.810  10.938
68786SOL     OW 8190   6.698  10.065  10.790
68786SOL    HW1 8191   6.643  10.046  10.866
68786SOL    HW2 8192   6.683   9.993  10.730
68787SOL     OW 8193   6.939  12.228   2.955
68787SOL    HW1 8194   6.977  12.310   2.986
68787SOL    HW2 8195   7.003  12.161   2.980
68788SOL     OW 8196   6.759   0.168   8.216
68788SOL    HW1 8197   6.783   0.142   8.127
68788SOL    HW2 8198   6.739   0.085   8.261
68789SOL     OW 8199  12.091   6.904  12.535
68789SOL    HW1 8200  12.030   6.965  12.493
68789SOL    HW2 8201  12.040   6.824  12.547
68790SOL     OW 8202   2.089   9.490   5.981
68790SOL    HW1 8203   2.055   9.413   6.025
68790SOL    HW2 8204   2.182   9.471   5.968
68791SOL     OW 8205   7.129   0.705   3.935
68791SOL    HW1 8206   7.176   0.744   4.009
68791SOL    HW2 8207   7.037   0.727   3.950
68792SOL     OW 8208   7.647   8.291  14.519
68792SOL    HW1 8209   7.727   8.326  14.478
68792SOL    HW2 8210   7.635   8.345  14.597
68793SOL     OW 8211  12.679   6.008  10.824
68793SOL    HW1 8212  12.693   6.045  10.737
68793SOL    HW2 8213  12.767   5.997  10.860
68794SOL     OW 8214   3.221   4.195   3.081
68794SOL    HW1 8215   3.292   4.131   3.077
68794SOL    HW2 8216   3.255   4.263   3.140
68795SOL     OW 8217  11.158   8.148   9.752
68795SOL    HW1 8218  11.193   8.128   9.839
68795SOL    HW2 8219  11.208   8.092   9.693
68796SOL     OW 8220  14.008  13.453   4.026
68796SOL    HW1 8221  13.991  13.522   4.089
68796SOL    HW2 8222  14.103  13.457   4.011
68797SOL     OW 8223   0.498  10.739   1.387
68797SOL    HW1 8224   0.434  10.811   1.389
68797SOL    HW2 8225   0.580  10.781   1.360
68798SOL     OW 8226   4.095   7.300   9.243
68798SOL    HW1 8227   4.004   7.293   9.213
68798SOL    HW2 8228   4.107   7.393   9.261
68799SOL     OW 8229   1.431   9.681   4.760
68799SOL    HW1 8230   1.485   9.614   4.802
68799SOL    HW2 8231   1.491   9.753   4.742
68800SOL     OW 8232   1.897   7.691   6.461
68800SOL    HW1 8233   1.974   7.708   6.515
68800SOL    HW2 8234   1.930   7.642   6.386
68801SOL     OW 8235   1.639   1.459   2.443
68801SOL    HW1 8236   1.600   1.473   2.529
68801SOL    HW2 8237   1.706   1.527   2.435
68802SOL     OW 8238   7.070  11.553   2.545
68802SOL    HW1 8239   7.061  11.563   2.640
68802SOL    HW2 8240   7.030  11.632   2.508
68803SOL     OW 8241   6.504   9.548   7.742
68803SOL    HW1 8242   6.460   9.465   7.756
68803SOL    HW2 8243   6.545   9.539   7.656
68804SOL     OW 8244   0.926  10.581  11.606
68804SOL    HW1 8245   1.005  10.534  11.633
68804SOL    HW2 8246   0.883  10.605  11.688
68805SOL     OW 8247   9.415  14.768  12.574
68805SOL    HW1 8248   9.341  14.755  12.633
68805SOL    HW2 8249   9.416  14.863  12.558
68806SOL     OW 8250   5.387  14.672  14.691
68806SOL    HW1 8251   5.447  14.601  14.715
68806SOL    HW2 8252   5.301  14.640  14.716
68807SOL     OW 8253   7.009   3.964  14.753
68807SOL    HW1 8254   6.919   3.956  14.721
68807SOL    HW2 8255   7.048   4.032  14.698
68808SOL     OW 8256   2.466   9.643   5.401
68808SOL    HW1 8257   2.477   9.736   5.419
68808SOL    HW2 8258   2.552   9.614   5.369
68809SOL     OW 8259  11.462   7.859  10.634
68809SOL    HW1 8260  11.413   7.803  10.694
68809SOL    HW2 8261  11.494   7.799  10.566
68810SOL     OW 8262   5.182   1.335   9.803
68810SOL    HW1 8263   5.106   1.374   9.760
68810SOL    HW2 8264   5.252   1.398   9.791
68811SOL     OW 8265   9.418   5.171  12.812
68811SOL    HW1 8266   9.435   5.217  12.730
68811SOL    HW2 8267   9.503   5.172  12.857
68812SOL     OW 8268   8.627   3.099  13.125
68812SOL    HW1 8269   8.537   3.083  13.096
68812SOL    HW2 8270   8.659   3.167  13.066
68813SOL     OW 8271   0.825  13.771   4.321
68813SOL    HW1 8272   0.840  13.692   4.269
68813SOL    HW2 8273   0.749  13.750   4.375
68814SOL     OW 8274  10.944  11.135   1.511
68814SOL    HW1 8275  10.973  11.227   1.508
68814SOL    HW2 8276  11.026  11.085   1.519
68815SOL     OW 8277   7.356  13.388  13.398
68815SOL    HW1 8278   7.335  13.424  13.484
68815SOL    HW2 8279   7.273  13.384  13.352
68816SOL     OW 8280   9.094   8.032  13.453
68816SOL    HW1 8281   9.087   7.937  13.467
68816SOL    HW2 8282   9.067   8.044  13.362
68817SOL     OW 8283  13.783   1.874  11.366
68817SOL    HW1 8284  13.736   1.798  11.401
68817SOL    HW2 8285  13.783   1.938  11.437
68818SOL     OW 8286   2.071   7.474  13.543
68818SOL    HW1 8287   1.981   7.492  13.519
68818SOL    HW2 8288   2.115   7.457  13.459
68819SOL     OW 8289   1.445   8.458   0.145
68819SOL    HW1 8290   1.502   8.452   0.068
68819SOL    HW2 8291   1.499   8.501   0.211
68820SOL     OW 8292   4.280   1.015  13.382
68820SOL    HW1 8293   4.290   1.034  13.288
68820SOL    HW2 8294   4.297   0.921  13.389
68821SOL     OW 8295   7.617   8.668  14.366
68821SOL    HW1 8296   7.669   8.717  14.303
68821SOL    HW2 8297   7.601   8.583  14.324
68822SOL     OW 8298   9.848  10.668  12.317
68822SOL    HW1 8299   9.848  10.629  12.405
68822SOL    HW2 8300   9.816  10.757  12.331
68823SOL     OW 8301   5.755  13.140   4.271
68823SOL    HW1 8302   5.684  13.199   4.246
68823SOL    HW2 8303   5.755  13.073   4.202
68824SOL     OW 8304   4.471   5.438   2.494
68824SOL    HW1 8305   4.417   5.509   2.530
68824SOL    HW2 8306   4.409   5.370   2.471
68825SOL     OW 8307  14.287   4.767   3.887
68825SOL    HW1 8308  14.221   4.772   3.956
68825SOL    HW2 8309  14.326   4.854   3.884
68826SOL     OW 8310   1.935   8.500  12.722
68826SOL    HW1 8311   1.894   8.587  12.714
68826SOL    HW2 8312   2.017   8.517  12.769
68827SOL     OW 8313   6.193   3.554  11.259
68827SOL    HW1 8314   6.242   3.494  11.202
68827SOL    HW2 8315   6.221   3.532  11.347
68828SOL     OW 8316  12.219   1.817  12.372
68828SOL    HW1 8317  12.236   1.891  12.313
68828SOL    HW2 8318  12.127   1.794  12.356
68829SOL     OW 8319   0.760  11.497   9.002
68829SOL    HW1 8320   0.784  11.531   8.916
68829SOL    HW2 8321   0.782  11.404   8.998
68830SOL     OW 8322   9.790  10.286   3.379
68830SOL    HW1 8323   9.760  10.376   3.367
68830SOL    HW2 8324   9.720  10.244   3.429
68831SOL     OW 8325  13.762   1.129  10.805
68831SOL    HW1 8326  13.787   1.208  10.853
68831SOL    HW2 8327  13.686   1.095  10.851
68832SOL     OW 8328  10.934   0.427  11.828
68832SOL    HW1 8329  10.940   0.435  11.923
68832SOL    HW2 8330  10.875   0.353  11.814
68833SOL     OW 8331   2.544   1.993   3.617
68833SOL    HW1 8332   2.547   2.038   3.532
68833SOL    HW2 8333   2.569   2.060   3.680
68834SOL     OW 8334   1.205   8.929   7.980
68834SOL    HW1 8335   1.211   8.998   7.914
68834SOL    HW2 8336   1.265   8.861   7.949
68835SOL     OW 8337   9.251   9.207  11.971
68835SOL    HW1 8338   9.182   9.188  12.034
68835SOL    HW2 8339   9.332   9.190  12.020
68836SOL     OW 8340   5.544   4.741   6.650
68836SOL    HW1 8341   5.566   4.771   6.561
68836SOL    HW2 8342   5.552   4.819   6.704
68837SOL     OW 8343  13.232  11.872  11.189
68837SOL    HW1 8344  13.292  11.863  11.115
68837SOL    HW2 8345  13.282  11.839  11.264
68838SOL     OW 8346   2.944   9.772  13.618
68838SOL    HW1 8347   2.870   9.814  13.573
68838SOL    HW2 8348   3.021   9.815  13.582
68839SOL     OW 8349   5.364  11.322   3.472
68839SOL    HW1 8350   5.269  11.330   3.465
68839SOL    HW2 8351   5.384  11.349   3.561
68840SOL     OW 8352   1.474   6.307   1.341
68840SOL    HW1 8353   1.438   6.237   1.395
68840SOL    HW2 8354   1.546   6.343   1.393
68841SOL     OW 8355   3.790   3.889   6.913
68841SOL    HW1 8356   3.722   3.952   6.890
68841SOL    HW2 8357   3.857   3.941   6.956
68842SOL     OW 8358   2.545   6.911   2.708
68842SOL    HW1 8359   2.599   6.849   2.659
68842SOL    HW2 8360   2.455   6.881   2.694
68843SOL     OW 8361   2.555  13.994  12.034
68843SOL    HW1 8362   2.560  14.085  12.006
68843SOL    HW2 8363   2.520  13.998  12.123
68844SOL     OW 8364  13.385   6.325  10.395
68844SOL    HW1 8365  13.469   6.328  10.350
68844SOL    HW2 8366  13.335   6.258  10.349
68845SOL     OW 8367   2.317   7.463  12.785
68845SOL    HW1 8368   2.260   7.500  12.718
68845SOL    HW2 8369   2.358   7.538  12.827
68846SOL     OW 8370   0.222   8.065  13.775
68846SOL    HW1 8371   0.143   8.100  13.816
68846SOL    HW2 8372   0.251   8.133  13.715
68847SOL     OW 8373   6.135  12.406  12.176
68847SOL    HW1 8374   6.050  12.448  12.158
68847SOL    HW2 8375   6.189  12.477  12.210
68848SOL     OW 8376  10.982  10.598  10.598
68848SOL    HW1 8377  11.064  10.550  10.608
68848SOL    HW2 8378  10.928  10.570  10.672
68849SOL     OW 8379   2.675  10.555   1.797
68849SOL    HW1 8380   2.665  10.516   1.710
68849SOL    HW2 8381   2.646  10.646   1.786
68850SOL     OW 8382  10.056   7.945   8.526
68850SOL    HW1 8383   9.971   7.916   8.493
68850SOL    HW2 8384  10.040   7.970   8.617
68851SOL     OW 8385  14.630   6.563  11.611
68851SOL    HW1 8386  14.688   6.639  11.606
68851SOL    HW2 8387  14.689   6.490  11.630
68852SOL     OW 8388   0.643   7.379   9.997
68852SOL    HW1 8389   0.626   7.300   9.947
68852SOL    HW2 8390   0.652   7.349  10.087
68853SOL     OW 8391  12.797  10.317   3.613
68853SOL    HW1 8392  12.709  10.280   3.618
68853SOL    HW2 8393  12.784  10.404   3.576
68854SOL     OW 8394  11.935   6.952   4.978
68854SOL    HW1 8395  11.850   6.944   4.933
68854SOL    HW2 8396  11.931   6.886   5.048
68855SOL     OW 8397   1.487   4.201   8.565
68855SOL    HW1 8398   1.464   4.146   8.489
68855SOL    HW2 8399   1.543   4.145   8.618
68856SOL     OW 8400  10.757   6.598  13.643
68856SOL    HW1 8401  10.668   6.609  13.611
68856SOL    HW2 8402  10.811   6.643  13.578
68857SOL     OW 8403  14.447  12.932   2.021
68857SOL    HW1 8404  14.480  13.011   1.977
68857SOL    HW2 8405  14.377  12.900   1.964
68858SOL     OW 8406  12.963   2.051   9.012
68858SOL    HW1 8407  12.963   1.990   9.086
68858SOL    HW2 8408  12.926   2.001   8.939
68859SOL     OW 8409   4.032  13.254  11.281
68859SOL    HW1 8410   4.021  13.215  11.194
68859SOL    HW2 8411   3.986  13.194  11.340
68860SOL     OW 8412   8.142   5.982   9.775
68860SOL    HW1 8413   8.151   5.898   9.820
68860SOL    HW2 8414   8.085   5.964   9.701
68861SOL     OW 8415   9.920  14.428   8.086
68861SOL    HW1 8416  10.002  14.416   8.037
68861SOL    HW2 8417   9.911  14.523   8.095
68862SOL     OW 8418   8.038  14.795   4.360
68862SOL    HW1 8419   8.019   0.009   4.378
68862SOL    HW2 8420   8.045  14.791   4.264
68863SOL     OW 8421   3.708   6.784   2.708
68863SOL    HW1 8422   3.623   6.746   2.729
68863SOL    HW2 8423   3.703   6.804   2.614
68864SOL     OW 8424  14.723  11.666   8.720
68864SOL    HW1 8425  14.775  11.588   8.703
68864SOL    HW2 8426  14.668  11.643   8.795
68865SOL     OW 8427  11.396   0.288  13.835
68865SOL    HW1 8428  11.365   0.210  13.789
68865SOL    HW2 8429  11.491   0.275  13.843
68866SOL     OW 8430  13.806   4.053  10.468
68866SOL    HW1 8431  13.750   3.978  10.486
68866SOL    HW2 8432  13.820   4.050  10.373
68867SOL     OW 8433   9.713   0.102   7.382
68867SOL    HW1 8434   9.648   0.120   7.450
68867SOL    HW2 8435   9.713   0.007   7.374
68868SOL     OW 8436   8.307  13.295   8.675
68868SOL    HW1 8437   8.371  13.347   8.723
68868SOL    HW2 8438   8.231  13.353   8.666
68869SOL     OW 8439  13.187   6.838  14.216
68869SOL    HW1 8440  13.132   6.853  14.140
68869SOL    HW2 8441  13.157   6.903  14.280
68870SOL     OW 8442   6.166  14.113   2.945
68870SOL    HW1 8443   6.112  14.180   2.903
68870SOL    HW2 8444   6.116  14.086   3.022
68871SOL     OW 8445   9.707  11.247   2.662
68871SOL    HW1 8446   9.711  11.332   2.705
68871SOL    HW2 8447   9.623  11.247   2.616
68872SOL     OW 8448   1.238   1.126  14.063
68872SOL    HW1 8449   1.279   1.065  14.125
68872SOL    HW2 8450   1.279   1.211  14.083
68873SOL     OW 8451   0.414  11.826   8.232
68873SOL    HW1 8452   0.505  11.798   8.245
68873SOL    HW2 8453   0.375  11.822   8.320
68874SOL     OW 8454   0.162   2.113   9.945
68874SOL    HW1 8455   0.173   2.072  10.031
68874SOL    HW2 8456   0.116   2.195   9.964
68875SOL     OW 8457   0.471   6.954   0.503
68875SOL    HW1 8458   0.412   6.988   0.570
68875SOL    HW2 8459   0.558   6.962   0.542
68876SOL     OW 8460  10.930   5.666   0.686
68876SOL    HW1 8461  10.901   5.574   0.681
68876SOL    HW2 8462  10.849   5.717   0.681
68877SOL     OW 8463  10.353  12.749  11.034
68877SOL    HW1 8464  10.412  12.823  11.051
68877SOL    HW2 8465  10.407  12.672  11.049
68878SOL     OW 8466   8.757   7.212   2.453
68878SOL    HW1 8467   8.744   7.165   2.535
68878SOL    HW2 8468   8.708   7.162   2.388
68879SOL     OW 8469  11.723   8.593   6.658
68879SOL    HW1 8470  11.728   8.572   6.565
68879SOL    HW2 8471  11.630   8.605   6.675
68880SOL     OW 8472   6.634   0.439  14.755
68880SOL    HW1 8473   6.720   0.450  14.714
68880SOL    HW2 8474   6.572   0.461  14.686
68881SOL     OW 8475   0.705   4.249   0.231
68881SOL    HW1 8476   0.678   4.341   0.232
68881SOL    HW2 8477   0.791   4.249   0.272
68882SOL     OW 8478   6.828  10.667   1.865
68882SOL    HW1 8479   6.906  10.640   1.815
68882SOL    HW2 8480   6.828  10.762   1.860
68883SOL     OW 8481   0.296   0.681   4.222
68883SOL    HW1 8482   0.301   0.776   4.207
68883SOL    HW2 8483   0.223   0.671   4.283
68884SOL     OW 8484   6.566   4.221  13.639
68884SOL    HW1 8485   6.569   4.314  13.662
68884SOL    HW2 8486   6.617   4.178  13.708
68885SOL     OW 8487  13.705   2.954   6.143
68885SOL    HW1 8488  13.611   2.939   6.137
68885SOL    HW2 8489  13.743   2.898   6.076
68886SOL     OW 8490  10.815   0.543  13.611
68886SOL    HW1 8491  10.750   0.479  13.580
68886SOL    HW2 8492  10.851   0.581  13.531
68887SOL     OW 8493   3.155  13.489   6.205
68887SOL    HW1 8494   3.231  13.546   6.213
68887SOL    HW2 8495   3.124  13.502   6.115
68888SOL     OW 8496   5.554  12.662  10.966
68888SOL    HW1 8497   5.642  12.699  10.976
68888SOL    HW2 8498   5.568  12.568  10.956
68889SOL     OW 8499   2.935   7.629  11.911
68889SOL    HW1 8500   2.964   7.650  11.822
68889SOL    HW2 8501   2.977   7.696  11.966
68890SOL     OW 8502   2.446   1.435  10.029
68890SOL    HW1 8503   2.535   1.403  10.017
68890SOL    HW2 8504   2.444   1.471  10.117
68891SOL     OW 8505   7.496   6.296  10.267
68891SOL    HW1 8506   7.569   6.239  10.294
68891SOL    HW2 8507   7.529   6.342  10.190
68892SOL     OW 8508  13.382  13.884   2.640
68892SOL    HW1 8509  13.326  13.962   2.638
68892SOL    HW2 8510  13.471  13.920   2.646
68893SOL     OW 8511   3.450   2.176   4.279
68893SOL    HW1 8512   3.489   2.241   4.222
68893SOL    HW2 8513   3.478   2.092   4.243
68894SOL     OW 8514   6.213   6.002   2.387
68894SOL    HW1 8515   6.192   6.069   2.451
68894SOL    HW2 8516   6.154   6.019   2.313
68895SOL     OW 8517  12.311  12.628   1.400
68895SOL    HW1 8518  12.318  12.534   1.415
68895SOL    HW2 8519  12.296  12.636   1.305
68896SOL     OW 8520   5.485  14.153   9.989
68896SOL    HW1 8521   5.427  14.143   9.913
68896SOL    HW2 8522   5.444  14.100  10.058
68897SOL     OW 8523  10.625   6.482  13.207
68897SOL    HW1 8524  10.564   6.526  13.149
68897SOL    HW2 8525  10.705   6.535  13.203
68898SOL     OW 8526   7.674  11.396   9.289
68898SOL    HW1 8527   7.704  11.306   9.279
68898SOL    HW2 8528   7.743  11.439   9.339
68899SOL     OW 8529   8.622   4.128   7.493
68899SOL    HW1 8530   8.711   4.108   7.461
68899SOL    HW2 8531   8.600   4.055   7.550
68900SOL     OW 8532  13.473   9.398   3.210
68900SOL    HW1 8533  13.429   9.476   3.175
68900SOL    HW2 8534  13.542   9.379   3.146
68901SOL     OW 8535   4.218   4.670   9.120
68901SOL    HW1 8536   4.289   4.711   9.071
68901SOL    HW2 8537   4.192   4.595   9.066
68902SOL     OW 8538  11.851  12.333   8.846
68902SOL    HW1 8539  11.759  12.336   8.874
68902SOL    HW2 8540  11.848  12.296   8.758
68903SOL     OW 8541   5.564  11.960   5.271
68903SOL    HW1 8542   5.506  11.885   5.255
68903SOL    HW2 8543   5.510  12.036   5.248
68904SOL     OW 8544  12.528  11.445   0.236
68904SOL    HW1 8545  12.554  11.522   0.184
68904SOL    HW2 8546  12.480  11.481   0.310
68905SOL     OW 8547   4.715   3.626   1.960
68905SOL    HW1 8548   4.800   3.609   1.920
68905SOL    HW2 8549   4.718   3.719   1.983
68906SOL     OW 8550   2.430   9.391   5.029
68906SOL    HW1 8551   2.396   9.301   5.022
68906SOL    HW2 8552   2.436   9.407   5.123
68907SOL     OW 8553   7.080   5.300   1.138
68907SOL    HW1 8554   6.987   5.302   1.161
68907SOL    HW2 8555   7.121   5.250   1.209
68908SOL     OW 8556  10.644  13.465  10.388
68908SOL    HW1 8557  10.614  13.384  10.429
68908SOL    HW2 8558  10.591  13.534  10.427
68909SOL     OW 8559   1.628  14.179   3.327
68909SOL    HW1 8560   1.624  14.271   3.354
68909SOL    HW2 8561   1.541  14.145   3.347
68910SOL     OW 8562  13.194   5.528   0.045
68910SOL    HW1 8563  13.158   5.531  14.835
68910SOL    HW2 8564  13.118   5.529   0.102
68911SOL     OW 8565   1.602   7.352   8.700
68911SOL    HW1 8566   1.558   7.271   8.674
68911SOL    HW2 8567   1.652   7.329   8.778
68912SOL     OW 8568   8.752  13.128   3.372
68912SOL    HW1 8569   8.692  13.172   3.433
68912SOL    HW2 8570   8.775  13.196   3.309
68913SOL     OW 8571   9.812   0.905   7.341
68913SOL    HW1 8572   9.744   0.960   7.380
68913SOL    HW2 8573   9.841   0.848   7.412
68914SOL     OW 8574  11.276  12.770   9.445
68914SOL    HW1 8575  11.204  12.833   9.449
68914SOL    HW2 8576  11.349  12.819   9.407
68915SOL     OW 8577   5.435  10.927   8.229
68915SOL    HW1 8578   5.509  10.944   8.287
68915SOL    HW2 8579   5.470  10.941   8.141
68916SOL     OW 8580   7.236   2.313   7.061
68916SOL    HW1 8581   7.242   2.289   7.153
68916SOL    HW2 8582   7.179   2.247   7.022
68917SOL     OW 8583   2.426   2.595  10.682
68917SOL    HW1 8584   2.351   2.536  10.681
68917SOL    HW2 8585   2.437   2.620  10.590
68918SOL     OW 8586  10.906   8.743  11.858
68918SOL    HW1 8587  10.847   8.798  11.807
68918SOL    HW2 8588  10.904   8.781  11.946
68919SOL     OW 8589   9.254   8.758   5.803
68919SOL    HW1 8590   9.214   8.712   5.877
68919SOL    HW2 8591   9.250   8.695   5.731
68920SOL     OW 8592   9.003  11.557  13.022
68920SOL    HW1 8593   8.987  11.472  12.981
68920SOL    HW2 8594   9.058  11.537  13.097
68921SOL     OW 8595   1.506   2.390   9.597
68921SOL    HW1 8596   1.515   2.297   9.620
68921SOL    HW2 8597   1.501   2.391   9.501
68922SOL     OW 8598   0.461   6.050   9.317
68922SOL    HW1 8599   0.506   6.095   9.388
68922SOL    HW2 8600   0.411   5.981   9.359
68923SOL     OW 8601   4.124   4.515   0.060
68923SOL    HW1 8602   4.172   4.516   0.143
68923SOL    HW2 8603   4.146   4.430   0.021
68924SOL     OW 8604   7.927  13.144   4.383
68924SOL    HW1 8605   7.958  13.138   4.473
68924SOL    HW2 8606   7.951  13.233   4.355
68925SOL     OW 8607   7.773   4.235   1.085
68925SOL    HW1 8608   7.812   4.312   1.127
68925SOL    HW2 8609   7.846   4.193   1.040
68926SOL     OW 8610   0.167  12.653   3.003
68926SOL    HW1 8611   0.227  12.627   3.072
68926SOL    HW2 8612   0.144  12.571   2.958
68927SOL     OW 8613   0.405   8.651  10.284
68927SOL    HW1 8614   0.464   8.618  10.216
68927SOL    HW2 8615   0.411   8.747  10.276
68928SOL     OW 8616   4.174  11.661   8.219
68928SOL    HW1 8617   4.121  11.698   8.148
68928SOL    HW2 8618   4.133  11.577   8.238
68929SOL     OW 8619   7.904  10.784   2.289
68929SOL    HW1 8620   7.919  10.740   2.206
68929SOL    HW2 8621   7.954  10.866   2.283
68930SOL     OW 8622   9.496   4.660  14.424
68930SOL    HW1 8623   9.427   4.724  14.410
68930SOL    HW2 8624   9.565   4.710  14.469
68931SOL     OW 8625  10.970   1.604   8.647
68931SOL    HW1 8626  11.052   1.558   8.665
68931SOL    HW2 8627  10.993   1.671   8.584
68932SOL     OW 8628   5.604   3.896   4.192
68932SOL    HW1 8629   5.633   3.838   4.122
68932SOL    HW2 8630   5.508   3.890   4.191
68933SOL     OW 8631   0.608   1.944   0.346
68933SOL    HW1 8632   0.569   1.989   0.270
68933SOL    HW2 8633   0.575   1.993   0.421
68934SOL     OW 8634   7.302  12.374   3.511
68934SOL    HW1 8635   7.384  12.410   3.480
68934SOL    HW2 8636   7.267  12.324   3.437
68935SOL     OW 8637   2.664   0.098   0.515
68935SOL    HW1 8638   2.587   0.041   0.519
68935SOL    HW2 8639   2.677   0.115   0.422
68936SOL     OW 8640   8.539   8.040   2.612
68936SOL    HW1 8641   8.564   8.132   2.616
68936SOL    HW2 8642   8.472   8.029   2.679
68937SOL     OW 8643   0.104  12.278   0.703
68937SOL    HW1 8644   0.029  12.221   0.689
68937SOL    HW2 8645   0.173  12.241   0.649
68938SOL     OW 8646  11.988   6.130   7.847
68938SOL    HW1 8647  11.972   6.048   7.801
68938SOL    HW2 8648  12.080   6.151   7.829
68939SOL     OW 8649   9.748   8.830  10.092
68939SOL    HW1 8650   9.770   8.773  10.166
68939SOL    HW2 8651   9.652   8.825  10.085
68940SOL     OW 8652   3.186  14.091   9.046
68940SOL    HW1 8653   3.174  14.052   8.959
68940SOL    HW2 8654   3.143  14.177   9.039
68941SOL     OW 8655  11.238   9.840  10.497
68941SOL    HW1 8656  11.317   9.855  10.548
68941SOL    HW2 8657  11.173   9.810  10.561
68942SOL     OW 8658   5.798   0.615   2.458
68942SOL    HW1 8659   5.778   0.678   2.388
68942SOL    HW2 8660   5.724   0.554   2.456
68943SOL     OW 8661   5.787  11.404   8.548
68943SOL    HW1 8662   5.700  11.414   8.587
68943SOL    HW2 8663   5.837  11.354   8.612
68944SOL     OW 8664   3.238  12.458  10.840
68944SOL    HW1 8665   3.312  12.426  10.893
68944SOL    HW2 8666   3.236  12.400  10.764
68945SOL     OW 8667   9.132   3.405   6.711
68945SOL    HW1 8668   9.195   3.422   6.641
68945SOL    HW2 8669   9.180   3.353   6.775
68946SOL     OW 8670   7.693   4.622  12.900
68946SOL    HW1 8671   7.617   4.624  12.842
68946SOL    HW2 8672   7.764   4.584  12.847
68947SOL     OW 8673   8.814   2.075   9.769
68947SOL    HW1 8674   8.837   2.117   9.687
68947SOL    HW2 8675   8.898   2.046   9.806
68948SOL     OW 8676   6.747   2.780   4.035
68948SOL    HW1 8677   6.713   2.721   3.967
68948SOL    HW2 8678   6.752   2.865   3.993
68949SOL     OW 8679  11.078  13.129   0.775
68949SOL    HW1 8680  11.099  13.086   0.858
68949SOL    HW2 8681  10.991  13.167   0.789
68950SOL     OW 8682   1.442  12.563   5.085
68950SOL    HW1 8683   1.448  12.525   5.172
68950SOL    HW2 8684   1.359  12.530   5.049
68951SOL     OW 8685  10.911  13.143  11.460
68951SOL    HW1 8686  10.936  13.226  11.501
68951SOL    HW2 8687  10.886  13.086  11.534
68952SOL     OW 8688  11.950   5.763   4.128
68952SOL    HW1 8689  11.989   5.851   4.120
68952SOL    HW2 8690  12.019   5.710   4.167
68953SOL     OW 8691  13.282  10.666  13.914
68953SOL    HW1 8692  13.227  10.652  13.991
68953SOL    HW2 8693  13.332  10.746  13.934
68954SOL     OW 8694   1.459   2.786   9.779
68954SOL    HW1 8695   1.416   2.852   9.833
68954SOL    HW2 8696   1.403   2.709   9.786
68955SOL     OW 8697   6.274   5.118   7.868
68955SOL    HW1 8698   6.199   5.118   7.808
68955SOL    HW2 8699   6.258   5.191   7.928
68956SOL     OW 8700  10.577   1.676  13.853
68956SOL    HW1 8701  10.515   1.616  13.896
68956SOL    HW2 8702  10.648   1.620  13.822
68957SOL     OW 8703  13.058   7.370  13.127
68957SOL    HW1 8704  12.964   7.352  13.130
68957SOL    HW2 8705  13.096   7.310  13.191
68958SOL     OW 8706   1.277   9.573   6.204
68958SOL    HW1 8707   1.229   9.539   6.128
68958SOL    HW2 8708   1.212   9.620   6.255
68959SOL     OW 8709  14.109   8.006  13.518
68959SOL    HW1 8710  14.132   7.935  13.458
68959SOL    HW2 8711  14.162   7.989  13.596
68960SOL     OW 8712  11.047   4.853  12.301
68960SOL    HW1 8713  11.022   4.777  12.353
68960SOL    HW2 8714  10.973   4.912  12.308
68961SOL     OW 8715   6.806  12.122  10.529
68961SOL    HW1 8716   6.899  12.099  10.524
68961SOL    HW2 8717   6.801  12.212  10.497
68962SOL     OW 8718   0.069   9.360  12.504
68962SOL    HW1 8719   0.138   9.412  12.545
68962SOL    HW2 8720   0.115   9.310  12.435
68963SOL     OW 8721   8.796   2.378  10.957
68963SOL    HW1 8722   8.753   2.378  11.043
68963SOL    HW2 8723   8.822   2.470  10.944
68964SOL     OW 8724   0.326   1.649  11.468
68964SOL    HW1 8725   0.401   1.699  11.501
68964SOL    HW2 8726   0.318   1.575  11.529
68965SOL     OW 8727   3.101   1.533   5.361
68965SOL    HW1 8728   3.016   1.577   5.348
68965SOL    HW2 8729   3.151   1.595   5.416
68966SOL     OW 8730   9.079  10.405   0.359
68966SOL    HW1 8731   9.008  10.345   0.338
68966SOL    HW2 8732   9.155  10.368   0.314
68967SOL     OW 8733   0.594  10.454   9.139
68967SOL    HW1 8734   0.676  10.430   9.095
68967SOL    HW2 8735   0.575  10.380   9.197
68968SOL     OW 8736  12.442  13.003   5.400
68968SOL    HW1 8737  12.451  12.908   5.407
68968SOL    HW2 8738  12.523  13.032   5.359
68969SOL     OW 8739  11.081   9.107  14.381
68969SOL    HW1 8740  11.024   9.182  14.401
68969SOL    HW2 8741  11.021   9.039  14.351
68970SOL     OW 8742   0.864  12.139  11.731
68970SOL    HW1 8743   0.947  12.115  11.772
68970SOL    HW2 8744   0.879  12.227  11.695
68971SOL     OW 8745   5.281   0.336  13.038
68971SOL    HW1 8746   5.373   0.312  13.046
68971SOL    HW2 8747   5.263   0.333  12.944
68972SOL     OW 8748   7.469   0.491  10.772
68972SOL    HW1 8749   7.426   0.505  10.856
68972SOL    HW2 8750   7.525   0.415  10.786
68973SOL     OW 8751   4.822   7.497  14.878
68973SOL    HW1 8752   4.771   7.416  14.869
68973SOL    HW2 8753   4.836   7.506   0.093
68974SOL     OW 8754   6.359   5.554   7.973
68974SOL    HW1 8755   6.284   5.612   7.980
68974SOL    HW2 8756   6.403   5.581   7.893
68975SOL     OW 8757   2.206  13.928  13.211
68975SOL    HW1 8758   2.257  14.007  13.227
68975SOL    HW2 8759   2.250  13.885  13.137
68976SOL     OW 8760  12.555   1.014  11.653
68976SOL    HW1 8761  12.484   1.007  11.588
68976SOL    HW2 8762  12.594   0.927  11.656
68977SOL     OW 8763  14.506  12.211  13.926
68977SOL    HW1 8764  14.558  12.213  13.845
68977SOL    HW2 8765  14.565  12.244  13.993
68978SOL     OW 8766   5.228   7.584   4.057
68978SOL    HW1 8767   5.313   7.615   4.025
68978SOL    HW2 8768   5.208   7.508   4.002
68979SOL     OW 8769  12.819   0.847   4.974
68979SOL    HW1 8770  12.807   0.934   4.936
68979SOL    HW2 8771  12.793   0.857   5.066
68980SOL     OW 8772   6.822   2.287   0.285
68980SOL    HW1 8773   6.826   2.262   0.378
68980SOL    HW2 8774   6.831   2.205   0.238
68981SOL     OW 8775  14.145  12.006  14.230
68981SOL    HW1 8776  14.049  12.007  14.223
68981SOL    HW2 8777  14.175  12.051  14.151
68982SOL     OW 8778  13.763   0.054   3.080
68982SOL    HW1 8779  13.689  14.874   3.095
68982SOL    HW2 8780  13.733   0.113   3.010
68983SOL     OW 8781   6.926   0.259   6.606
68983SOL    HW1 8782   6.881   0.322   6.549
68983SOL    HW2 8783   6.858   0.227   6.665
68984SOL     OW 8784   1.949  13.277  13.078
68984SOL    HW1 8785   1.900  13.274  13.160
68984SOL    HW2 8786   2.026  13.330  13.098
68985SOL     OW 8787  14.192   4.027   8.048
68985SOL    HW1 8788  14.120   3.996   8.103
68985SOL    HW2 8789  14.268   4.026   8.106
68986SOL     OW 8790  14.810  11.161   2.412
68986SOL    HW1 8791   0.011  11.163   2.466
68986SOL    HW2 8792  14.739  11.175   2.475
68987SOL     OW 8793  14.113  12.690  11.627
68987SOL    HW1 8794  14.091  12.609  11.674
68987SOL    HW2 8795  14.029  12.726  11.599
68988SOL     OW 8796   4.915   0.618  10.670
68988SOL    HW1 8797   4.862   0.671  10.730
68988SOL    HW2 8798   4.917   0.532  10.710
68989SOL     OW 8799   4.363   3.354   7.099
68989SOL    HW1 8800   4.308   3.416   7.147
68989SOL    HW2 8801   4.440   3.403   7.074
68990SOL     OW 8802  13.649   5.151   3.467
68990SOL    HW1 8803  13.619   5.206   3.539
68990SOL    HW2 8804  13.652   5.209   3.391
68991SOL     OW 8805  12.062   8.829  11.636
68991SOL    HW1 8806  12.086   8.823  11.728
68991SOL    HW2 8807  12.097   8.749  11.597
68992SOL     OW 8808   3.212   0.432  14.832
68992SOL    HW1 8809   3.157   0.354  14.838
68992SOL    HW2 8810   3.215   0.466   0.043
68993SOL     OW 8811  11.107   6.601   3.255
68993SOL    HW1 8812  11.176   6.536   3.260
68993SOL    HW2 8813  11.095   6.617   3.161
68994SOL     OW 8814  11.738  14.026   7.987
68994SOL    HW1 8815  11.721  14.083   8.062
68994SOL    HW2 8816  11.652  14.013   7.946
68995SOL     OW 8817  14.506   9.436  13.020
68995SOL    HW1 8818  14.596   9.411  13.003
68995SOL    HW2 8819  14.512   9.525  13.055
68996SOL     OW 8820   8.750  12.706  11.893
68996SOL    HW1 8821   8.691  12.779  11.915
68996SOL    HW2 8822   8.835  12.747  11.878
68997SOL     OW 8823   3.175   3.448   7.129
68997SOL    HW1 8824   3.112   3.390   7.172
68997SOL    HW2 8825   3.217   3.392   7.063
68998SOL     OW 8826  11.819  11.578   9.513
68998SOL    HW1 8827  11.820  11.611   9.603
68998SOL    HW2 8828  11.855  11.490   9.519
68999SOL     OW 8829   0.794  11.305   0.205
68999SOL    HW1 8830   0.762  11.375   0.263
68999SOL    HW2 8831   0.843  11.352   0.137
69000SOL     OW 8832   1.340  10.153   2.101
69000SOL    HW1 8833   1.374  10.162   2.012
69000SOL    HW2 8834   1.413  10.182   2.157
69001SOL     OW 8835   2.729   4.014   7.124
69001SOL    HW1 8836   2.670   3.963   7.068
69001SOL    HW2 8837   2.706   4.105   7.106
69002SOL     OW 8838  14.840  11.604   4.883
69002SOL    HW1 8839   0.020  11.530   4.901
69002SOL    HW2 8840  14.755  11.575   4.915
69003SOL     OW 8841   7.710   5.360  12.024
69003SOL    HW1 8842   7.641   5.358  11.958
69003SOL    HW2 8843   7.690   5.438  12.076
69004SOL     OW 8844  10.504   8.596   8.701
69004SOL    HW1 8845  10.538   8.510   8.676
69004SOL    HW2 8846  10.412   8.581   8.721
69005SOL     OW 8847   8.232  10.661   6.751
69005SOL    HW1 8848   8.189  10.674   6.666
69005SOL    HW2 8849   8.319  10.628   6.730
69006SOL     OW 8850   2.955   4.596  12.572
69006SOL    HW1 8851   2.872   4.622  12.532
69006SOL    HW2 8852   3.003   4.679  12.583
69007SOL     OW 8853   7.585  13.860   4.173
69007SOL    HW1 8854   7.588  13.941   4.224
69007SOL    HW2 8855   7.495  13.853   4.143
69008SOL     OW 8856   5.983   1.663  14.645
69008SOL    HW1 8857   5.943   1.748  14.663
69008SOL    HW2 8858   5.914   1.599  14.663
69009SOL     OW 8859   2.452   8.473   5.289
69009SOL    HW1 8860   2.430   8.515   5.372
69009SOL    HW2 8861   2.495   8.391   5.314
69010SOL     OW 8862   3.548   8.401   0.372
69010SOL    HW1 8863   3.644   8.403   0.376
69010SOL    HW2 8864   3.521   8.377   0.460
69011SOL     OW 8865  10.116  14.559   3.265
69011SOL    HW1 8866  10.024  14.553   3.291
69011SOL    HW2 8867  10.126  14.649   3.235
69012SOL     OW 8868   6.973   0.576  13.101
69012SOL    HW1 8869   6.995   0.483  13.112
69012SOL    HW2 8870   6.917   0.596  13.176
69013SOL     OW 8871  12.796   2.219   7.620
69013SOL    HW1 8872  12.811   2.132   7.657
69013SOL    HW2 8873  12.716   2.211   7.569
69014SOL     OW 8874   1.014  11.639   6.044
69014SOL    HW1 8875   0.954  11.570   6.071
69014SOL    HW2 8876   1.085  11.636   6.109
69015SOL     OW 8877   8.164  11.125  14.504
69015SOL    HW1 8878   8.187  11.069  14.578
69015SOL    HW2 8879   8.222  11.201  14.512
69016SOL     OW 8880  10.097   2.409   8.853
69016SOL    HW1 8881  10.187   2.380   8.840
69016SOL    HW2 8882  10.088   2.486   8.797
69017SOL     OW 8883   9.599   4.950   2.168
69017SOL    HW1 8884   9.674   4.891   2.174
69017SOL    HW2 8885   9.631   5.032   2.205
69018SOL     OW 8886  10.616   2.656   8.400
69018SOL    HW1 8887  10.539   2.711   8.385
69018SOL    HW2 8888  10.677   2.712   8.448
69019SOL     OW 8889  14.677  11.585   9.721
69019SOL    HW1 8890  14.624  11.579   9.800
69019SOL    HW2 8891  14.625  11.636   9.660
69020SOL     OW 8892   3.826   5.372  13.223
69020SOL    HW1 8893   3.890   5.378  13.152
69020SOL    HW2 8894   3.791   5.283  13.216
69021SOL     OW 8895   1.185  11.660   2.287
69021SOL    HW1 8896   1.180  11.747   2.248
69021SOL    HW2 8897   1.270  11.626   2.260
69022SOL     OW 8898   8.328  10.932   1.389
69022SOL    HW1 8899   8.423  10.946   1.387
69022SOL    HW2 8900   8.306  10.909   1.299
69023SOL     OW 8901   0.020   5.152   3.390
69023SOL    HW1 8902  14.863   5.183   3.473
69023SOL    HW2 8903   0.112   5.132   3.409
69024SOL     OW 8904   4.651   1.267   2.890
69024SOL    HW1 8905   4.671   1.196   2.951
69024SOL    HW2 8906   4.630   1.342   2.946
69025SOL     OW 8907   7.067  12.444   3.048
69025SOL    HW1 8908   7.161  12.441   3.031
69025SOL    HW2 8909   7.059  12.471   3.139
69026SOL     OW 8910   5.572  13.245   9.781
69026SOL    HW1 8911   5.565  13.179   9.712
69026SOL    HW2 8912   5.525  13.321   9.746
69027SOL     OW 8913   2.593   4.713   5.698
69027SOL    HW1 8914   2.681   4.691   5.668
69027SOL    HW2 8915   2.555   4.763   5.626
69028SOL     OW 8916   8.241   3.088   0.330
69028SOL    HW1 8917   8.229   3.076   0.236
69028SOL    HW2 8918   8.325   3.046   0.349
69029SOL     OW 8919   5.614   1.013   0.766
69029SOL    HW1 8920   5.534   1.066   0.769
69029SOL    HW2 8921   5.582   0.923   0.766
69030SOL     OW 8922   4.937   9.512   6.311
69030SOL    HW1 8923   5.007   9.544   6.254
69030SOL    HW2 8924   4.915   9.426   6.275
69031SOL     OW 8925   6.655   4.988  12.085
69031SOL    HW1 8926   6.709   4.941  12.021
69031SOL    HW2 8927   6.565   4.975  12.056
69032SOL     OW 8928   5.670   3.373   4.038
69032SOL    HW1 8929   5.695   3.280   4.042
69032SOL    HW2 8930   5.704   3.402   3.953
69033SOL     OW 8931   9.897   8.110   4.320
69033SOL    HW1 8932   9.826   8.171   4.299
69033SOL    HW2 8933   9.897   8.105   4.415
69034SOL     OW 8934  10.004   9.419  13.220
69034SOL    HW1 8935   9.947   9.342  13.213
69034SOL    HW2 8936   9.949   9.486  13.259
69035SOL     OW 8937  11.591   5.767   0.041
69035SOL    HW1 8938  11.662   5.829   0.058
69035SOL    HW2 8939  11.609   5.732  14.833
69036SOL     OW 8940  14.451   0.161   6.713
69036SOL    HW1 8941  14.460   0.093   6.780
69036SOL    HW2 8942  14.366   0.201   6.730
69037SOL     OW 8943  10.932   5.843  13.478
69037SOL    HW1 8944  10.943   5.921  13.533
69037SOL    HW2 8945  10.837   5.832  13.472
69038SOL     OW 8946   3.668   2.871  12.086
69038SOL    HW1 8947   3.637   2.926  12.014
69038SOL    HW2 8948   3.589   2.851  12.136
69039SOL     OW 8949   3.366   9.465   0.821
69039SOL    HW1 8950   3.448   9.500   0.785
69039SOL    HW2 8951   3.310   9.542   0.832
69040SOL     OW 8952  13.744  12.260   2.562
69040SOL    HW1 8953  13.656  12.278   2.593
69040SOL    HW2 8954  13.788  12.345   2.563
69041SOL     OW 8955   4.581   9.779  14.010
69041SOL    HW1 8956   4.548   9.703  14.058
69041SOL    HW2 8957   4.538   9.854  14.051
69042SOL     OW 8958   2.885  10.641  12.804
69042SOL    HW1 8959   2.814  10.586  12.772
69042SOL    HW2 8960   2.842  10.719  12.839
69043SOL     OW 8961  13.841  10.319  13.373
69043SOL    HW1 8962  13.784  10.250  13.340
69043SOL    HW2 8963  13.795  10.352  13.451
69044SOL     OW 8964   0.629  13.291   8.974
69044SOL    HW1 8965   0.585  13.211   8.945
69044SOL    HW2 8966   0.721  13.265   8.986
69045SOL     OW 8967   2.637  10.087   9.818
69045SOL    HW1 8968   2.658  10.152   9.885
69045SOL    HW2 8969   2.714  10.086   9.761
69046SOL     OW 8970   2.805   4.324   4.817
69046SOL    HW1 8971   2.811   4.285   4.729
69046SOL    HW2 8972   2.880   4.288   4.864
69047SOL     OW 8973   6.820  10.105   5.220
69047SOL    HW1 8974   6.814  10.197   5.244
69047SOL    HW2 8975   6.758  10.095   5.147
69048SOL     OW 8976   8.796  13.678   7.091
69048SOL    HW1 8977   8.760  13.677   7.180
69048SOL    HW2 8978   8.889  13.659   7.103
69049SOL     OW 8979   2.530   6.487  12.125
69049SOL    HW1 8980   2.490   6.530  12.049
69049SOL    HW2 8981   2.475   6.515  12.199
69050SOL     OW 8982  10.971   2.971   7.413
69050SOL    HW1 8983  10.985   2.999   7.504
69050SOL    HW2 8984  11.059   2.951   7.381
69051SOL     OW 8985  13.122   5.538   7.438
69051SOL    HW1 8986  13.075   5.505   7.362
69051SOL    HW2 8987  13.057   5.540   7.508
69052SOL     OW 8988   9.412   1.550   5.092
69052SOL    HW1 8989   9.359   1.481   5.132
69052SOL    HW2 8990   9.348   1.611   5.055
69053SOL     OW 8991   1.734   3.193   6.066
69053SOL    HW1 8992   1.793   3.196   5.990
69053SOL    HW2 8993   1.728   3.284   6.095
69054SOL     OW 8994   9.418   8.703   7.353
69054SOL    HW1 8995   9.347   8.743   7.302
69054SOL    HW2 8996   9.436   8.621   7.308
69055SOL     OW 8997   0.512  12.731   2.295
69055SOL    HW1 8998   0.440  12.791   2.277
69055SOL    HW2 8999   0.541  12.700   2.209
69056SOL     OW 9000   4.946   6.502   0.244
69056SOL    HW1 9001   5.034   6.510   0.280
69056SOL    HW2 9002   4.903   6.439   0.302
69057SOL     OW 9003  13.181   2.833   1.293
69057SOL    HW1 9004  13.197   2.895   1.222
69057SOL    HW2 9005  13.230   2.754   1.267
69058SOL     OW 9006  13.609   6.974   8.373
69058SOL    HW1 9007  13.605   7.045   8.309
69058SOL    HW2 9008  13.662   7.009   8.445
69059SOL     OW 9009   7.830   1.680   7.246
69059SOL    HW1 9010   7.920   1.682   7.279
69059SOL    HW2 9011   7.806   1.772   7.234
69060SOL     OW 9012  10.566  10.084   2.910
69060SOL    HW1 9013  10.645  10.133   2.933
69060SOL    HW2 9014  10.527  10.134   2.838
69061SOL     OW 9015   0.231   7.402  14.168
69061SOL    HW1 9016   0.305   7.360  14.124
69061SOL    HW2 9017   0.239   7.495  14.145
69062SOL     OW 9018   5.677   6.256  11.701
69062SOL    HW1 9019   5.752   6.274  11.758
69062SOL    HW2 9020   5.653   6.166  11.721
69063SOL     OW 9021   4.990  13.757  14.003
69063SOL    HW1 9022   5.044  13.834  13.984
69063SOL    HW2 9023   4.907  13.793  14.035
69064SOL     OW 9024   0.636   3.066   2.990
69064SOL    HW1 9025   0.625   3.149   3.036
69064SOL    HW2 9026   0.685   3.090   2.911
69065SOL     OW 9027   9.223  11.100   1.533
69065SOL    HW1 9028   9.175  11.106   1.615
69065SOL    HW2 9029   9.298  11.044   1.553
69066SOL     OW 9030   9.352   1.799   2.623
69066SOL    HW1 9031   9.390   1.714   2.645
69066SOL    HW2 9032   9.273   1.805   2.677
69067SOL     OW 9033  13.008  13.818   0.142
69067SOL    HW1 9034  13.007  13.907   0.175
69067SOL    HW2 9035  12.978  13.764   0.215
69068SOL     OW 9036   3.550   5.989   6.831
69068SOL    HW1 9037   3.460   5.981   6.801
69068SOL    HW2 9038   3.588   5.902   6.819
69069SOL     OW 9039  12.590  11.955   9.476
69069SOL    HW1 9040  12.557  12.019   9.539
69069SOL    HW2 9041  12.639  11.892   9.528
69070SOL     OW 9042   9.127  13.291   2.976
69070SOL    HW1 9043   9.063  13.223   2.998
69070SOL    HW2 9044   9.212  13.249   2.993
69071SOL     OW 9045  12.150   4.603  14.861
69071SOL    HW1 9046  12.209   4.675   0.004
69071SOL    HW2 9047  12.149   4.549   0.061
69072SOL     OW 9048   2.723   0.830  11.967
69072SOL    HW1 9049   2.730   0.736  11.950
69072SOL    HW2 9050   2.788   0.847  12.035
69073SOL     OW 9051   1.768   3.539  13.688
69073SOL    HW1 9052   1.733   3.468  13.742
69073SOL    HW2 9053   1.837   3.577  13.742
69074SOL     OW 9054   0.501   6.564  10.864
69074SOL    HW1 9055   0.575   6.533  10.916
69074SOL    HW2 9056   0.516   6.658  10.855
69075SOL     OW 9057   5.197   8.432  14.821
69075SOL    HW1 9058   5.136   8.429  14.747
69075SOL    HW2 9059   5.278   8.468  14.784
69076SOL     OW 9060  12.803  10.036   8.317
69076SOL    HW1 9061  12.820  10.047   8.411
69076SOL    HW2 9062  12.791  10.125   8.284
69077SOL     OW 9063   1.087  11.301  11.769
69077SOL    HW1 9064   1.046  11.387  11.766
69077SOL    HW2 9065   1.170  11.316  11.816
69078SOL     OW 9066  14.601   4.863   4.360
69078SOL    HW1 9067  14.615   4.861   4.454
69078SOL    HW2 9068  14.678   4.909   4.325
69079SOL     OW 9069  10.655   2.274   5.405
69079SOL    HW1 9070  10.706   2.328   5.466
69079SOL    HW2 9071  10.570   2.319   5.400
69080SOL     OW 9072   7.911  10.202   7.005
69080SOL    HW1 9073   7.866  10.221   6.923
69080SOL    HW2 9074   7.841  10.186   7.068
69081SOL     OW 9075   0.449   2.927   4.459
69081SOL    HW1 9076   0.535   2.897   4.488
69081SOL    HW2 9077   0.458   3.022   4.450
69082SOL     OW 9078   7.340  13.046  13.305
69082SOL    HW1 9079   7.287  12.967  13.297
69082SOL    HW2 9080   7.276  13.117  13.311
69083SOL     OW 9081   8.563   7.235  10.837
69083SOL    HW1 9082   8.644   7.262  10.793
69083SOL    HW2 9083   8.592   7.175  10.906
69084SOL     OW 9084   5.424   0.590  10.275
69084SOL    HW1 9085   5.387   0.656  10.216
69084SOL    HW2 9086   5.519   0.600  10.264
69085SOL     OW 9087  12.224   1.622   4.544
69085SOL    HW1 9088  12.206   1.647   4.454
69085SOL    HW2 9089  12.187   1.534   4.553
69086SOL     OW 9090   7.265   1.370   2.121
69086SOL    HW1 9091   7.310   1.338   2.043
69086SOL    HW2 9092   7.186   1.412   2.088
69087SOL     OW 9093  10.968  13.937   7.263
69087SOL    HW1 9094  11.054  13.947   7.304
69087SOL    HW2 9095  10.953  13.842   7.261
69088SOL     OW 9096  10.990   6.307   4.330
69088SOL    HW1 9097  10.950   6.390   4.305
69088SOL    HW2 9098  10.960   6.245   4.263
69089SOL     OW 9099   7.445  11.435  10.472
69089SOL    HW1 9100   7.384  11.476  10.411
69089SOL    HW2 9101   7.466  11.351  10.431
69090SOL     OW 9102  13.536   8.038   3.110
69090SOL    HW1 9103  13.560   8.073   3.025
69090SOL    HW2 9104  13.611   7.984   3.136
69091SOL     OW 9105  12.781  14.316  13.664
69091SOL    HW1 9106  12.785  14.332  13.570
69091SOL    HW2 9107  12.757  14.224  13.672
69092SOL     OW 9108   9.463  11.236  10.788
69092SOL    HW1 9109   9.545  11.232  10.739
69092SOL    HW2 9110   9.475  11.173  10.859
69093SOL     OW 9111  10.094   0.115  10.061
69093SOL    HW1 9112  10.142   0.036  10.037
69093SOL    HW2 9113  10.100   0.171   9.984
69094SOL     OW 9114   7.790   1.500  10.715
69094SOL    HW1 9115   7.780   1.529  10.806
69094SOL    HW2 9116   7.705   1.520  10.674
69095SOL     OW 9117   6.298   9.235   6.801
69095SOL    HW1 9118   6.333   9.164   6.747
69095SOL    HW2 9119   6.220   9.265   6.754
69096SOL     OW 9120  14.234  13.929  13.143
69096SOL    HW1 9121  14.268  13.949  13.056
69096SOL    HW2 9122  14.150  13.975  13.147
69097SOL     OW 9123   3.647   8.779   7.061
69097SOL    HW1 9124   3.691   8.863   7.049
69097SOL    HW2 9125   3.719   8.716   7.071
69098SOL     OW 9126   4.563  12.837   0.000
69098SOL    HW1 9127   4.486  12.889  14.857
69098SOL    HW2 9128   4.620  12.843  14.802
69099SOL     OW 9129   3.306   6.818  10.919
69099SOL    HW1 9130   3.224   6.785  10.881
69099SOL    HW2 9131   3.302   6.913  10.905
69100SOL     OW 9132  14.595  11.653   4.060
69100SOL    HW1 9133  14.585  11.603   3.979
69100SOL    HW2 9134  14.536  11.728   4.050
69101SOL     OW 9135   5.501   0.734   0.776
69101SOL    HW1 9136   5.461   0.652   0.745
69101SOL    HW2 9137   5.573   0.750   0.715
69102SOL     OW 9138   4.572   8.095  14.849
69102SOL    HW1 9139   4.655   8.142  14.859
69102SOL    HW2 9140   4.530   8.104   0.056
69103SOL     OW 9141   1.012   6.213   1.273
69103SOL    HW1 9142   1.072   6.160   1.221
69103SOL    HW2 9143   0.942   6.237   1.213
69104SOL     OW 9144   7.459   9.743   1.011
69104SOL    HW1 9145   7.455   9.791   1.094
69104SOL    HW2 9146   7.543   9.770   0.972
69105SOL     OW 9147   8.552   3.806   4.855
69105SOL    HW1 9148   8.619   3.827   4.919
69105SOL    HW2 9149   8.539   3.887   4.806
69106SOL     OW 9150   6.269   0.357   0.654
69106SOL    HW1 9151   6.317   0.431   0.617
69106SOL    HW2 9152   6.284   0.363   0.748
69107SOL     OW 9153   5.041  10.230   3.294
69107SOL    HW1 9154   4.960  10.190   3.326
69107SOL    HW2 9155   5.056  10.305   3.352
69108SOL     OW 9156   0.873   3.625   6.072
69108SOL    HW1 9157   0.967   3.630   6.088
69108SOL    HW2 9158   0.850   3.535   6.093
69109SOL     OW 9159   9.536   7.754   6.490
69109SOL    HW1 9160   9.586   7.835   6.496
69109SOL    HW2 9161   9.478   7.755   6.566
69110SOL     OW 9162  12.021   7.126  13.315
69110SOL    HW1 9163  11.930   7.135  13.287
69110SOL    HW2 9164  12.059   7.065  13.252
69111SOL     OW 9165   0.941   0.628  12.238
69111SOL    HW1 9166   0.856   0.590  12.214
69111SOL    HW2 9167   1.003   0.587  12.178
69112SOL     OW 9168  13.080   1.050  13.306
69112SOL    HW1 9169  13.059   1.079  13.394
69112SOL    HW2 9170  13.028   1.106  13.249
69113SOL     OW 9171  12.773   5.408   3.771
69113SOL    HW1 9172  12.691   5.367   3.795
69113SOL    HW2 9173  12.792   5.375   3.683
69114SOL     OW 9174  14.506  11.040   5.788
69114SOL    HW1 9175  14.424  11.068   5.829
69114SOL    HW2 9176  14.566  11.113   5.803
69115SOL     OW 9177  10.461   0.457   3.737
69115SOL    HW1 9178  10.438   0.507   3.658
69115SOL    HW2 9179  10.551   0.482   3.756
69116SOL     OW 9180  10.310  11.558   0.049
69116SOL    HW1 9181  10.290  11.507   0.128
69116SOL    HW2 9182  10.378  11.507   0.004
69117SOL     OW 9183  11.359   5.583   3.889
69117SOL    HW1 9184  11.423   5.543   3.830
69117SOL    HW2 9185  11.412   5.627   3.955
69118SOL     OW 9186  13.680  14.231   1.603
69118SOL    HW1 9187  13.774  14.245   1.610
69118SOL    HW2 9188  13.669  14.136   1.615
69119SOL     OW 9189   0.866   6.495   9.045
69119SOL    HW1 9190   0.888   6.477   8.954
69119SOL    HW2 9191   0.832   6.412   9.078
69120SOL     OW 9192  11.599   3.910   6.860
69120SOL    HW1 9193  11.534   3.867   6.805
69120SOL    HW2 9194  11.559   3.994   6.882
69121SOL     OW 9195   0.647   3.829   3.518
69121SOL    HW1 9196   0.553   3.815   3.530
69121SOL    HW2 9197   0.672   3.885   3.591
69122SOL     OW 9198   5.755   2.978   6.741
69122SOL    HW1 9199   5.691   3.020   6.683
69122SOL    HW2 9200   5.828   2.955   6.683
69123SOL     OW 9201   5.594   5.856   5.568
69123SOL    HW1 9202   5.668   5.851   5.507
69123SOL    HW2 9203   5.559   5.944   5.557
69124SOL     OW 9204   8.218   5.823   3.432
69124SOL    HW1 9205   8.310   5.796   3.436
69124SOL    HW2 9206   8.219   5.915   3.456
69125SOL     OW 9207  12.895   8.066   9.896
69125SOL    HW1 9208  12.816   8.096   9.940
69125SOL    HW2 9209  12.946   8.023   9.965
69126SOL     OW 9210   3.673  11.799   9.331
69126SOL    HW1 9211   3.632  11.847   9.403
69126SOL    HW2 9212   3.655  11.853   9.254
69127SOL     OW 9213  11.806  13.779   3.723
69127SOL    HW1 9214  11.806  13.734   3.808
69127SOL    HW2 9215  11.779  13.713   3.660
69128SOL     OW 9216   3.467   2.126   3.434
69128SOL    HW1 9217   3.449   2.034   3.453
69128SOL    HW2 9218   3.497   2.127   3.343
69129SOL     OW 9219  12.204   8.229  13.093
69129SOL    HW1 9220  12.231   8.175  13.019
69129SOL    HW2 9221  12.129   8.278  13.061
69130SOL     OW 9222   8.295   8.896  12.088
69130SOL    HW1 9223   8.250   8.876  12.006
69130SOL    HW2 9224   8.298   8.992  12.090
69131SOL     OW 9225   6.723   3.948   6.202
69131SOL    HW1 9226   6.672   3.867   6.209
69131SOL    HW2 9227   6.713   3.976   6.111
69132SOL     OW 9228   6.968   1.486   6.259
69132SOL    HW1 9229   7.039   1.473   6.322
69132SOL    HW2 9230   6.927   1.568   6.287
69133SOL     OW 9231  11.625   0.733  14.630
69133SOL    HW1 9232  11.662   0.816  14.660
69133SOL    HW2 9233  11.664   0.719  14.544
69134SOL     OW 9234   3.373  10.216   2.934
69134SOL    HW1 9235   3.452  10.260   2.968
69134SOL    HW2 9236   3.300  10.263   2.974
69135SOL     OW 9237   4.568   1.805   2.504
69135SOL    HW1 9238   4.650   1.774   2.465
69135SOL    HW2 9239   4.583   1.798   2.598
69136SOL     OW 9240   1.620  12.576   2.957
69136SOL    HW1 9241   1.575  12.527   2.888
69136SOL    HW2 9242   1.553  12.590   3.024
69137SOL     OW 9243  14.582   9.783   6.402
69137SOL    HW1 9244  14.669   9.755   6.375
69137SOL    HW2 9245  14.595   9.816   6.492
69138SOL     OW 9246   1.437   2.485   3.154
69138SOL    HW1 9247   1.342   2.486   3.142
69138SOL    HW2 9248   1.451   2.530   3.237
69139SOL     OW 9249  13.799   5.552   8.789
69139SOL    HW1 9250  13.879   5.599   8.766
69139SOL    HW2 9251  13.732   5.619   8.795
69140SOL     OW 9252   7.493   7.901  11.884
69140SOL    HW1 9253   7.586   7.905  11.909
69140SOL    HW2 9254   7.483   7.970  11.819
69141SOL     OW 9255  14.178  13.740   7.917
69141SOL    HW1 9256  14.190  13.835   7.911
69141SOL    HW2 9257  14.084  13.728   7.926
69142SOL     OW 9258   7.585  13.377  11.980
69142SOL    HW1 9259   7.536  13.401  11.902
69142SOL    HW2 9260   7.640  13.304  11.952
69143SOL     OW 9261   9.012   9.695  12.981
69143SOL    HW1 9262   9.103   9.672  12.962
69143SOL    HW2 9263   9.018   9.777  13.030
69144SOL     OW 9264   3.417   5.271   6.789
69144SOL    HW1 9265   3.367   5.335   6.737
69144SOL    HW2 9266   3.508   5.284   6.761
69145SOL     OW 9267  12.262   0.879   8.435
69145SOL    HW1 9268  12.341   0.914   8.476
69145SOL    HW2 9269  12.217   0.831   8.504
69146SOL     OW 9270  12.201  10.560   3.930
69146SOL    HW1 9271  12.293  10.569   3.905
69146SOL    HW2 9272  12.204  10.515   4.014
69147SOL     OW 9273   1.300   9.752   3.589
69147SOL    HW1 9274   1.205   9.769   3.589
69147SOL    HW2 9275   1.338   9.834   3.558
69148SOL     OW 9276   4.207  11.739   3.060
69148SOL    HW1 9277   4.115  11.754   3.039
69148SOL    HW2 9278   4.251  11.742   2.975
69149SOL     OW 9279   2.970   6.633   7.479
69149SOL    HW1 9280   2.986   6.710   7.425
69149SOL    HW2 9281   3.005   6.654   7.565
69150SOL     OW 9282  13.005   5.107   6.455
69150SOL    HW1 9283  13.001   5.167   6.529
69150SOL    HW2 9284  13.096   5.110   6.426
69151SOL     OW 9285   2.748  13.539   2.247
69151SOL    HW1 9286   2.683  13.592   2.201
69151SOL    HW2 9287   2.785  13.597   2.314
69152SOL     OW 9288   4.079  10.188   5.078
69152SOL    HW1 9289   4.164  10.227   5.061
69152SOL    HW2 9290   4.016  10.257   5.055
69153SOL     OW 9291  10.484   0.626  14.361
69153SOL    HW1 9292  10.509   0.581  14.442
69153SOL    HW2 9293  10.559   0.614  14.302
69154SOL     OW 9294   1.062   6.167  13.098
69154SOL    HW1 9295   1.114   6.241  13.068
69154SOL    HW2 9296   1.043   6.186  13.190
69155SOL     OW 9297   7.552  11.897   6.350
69155SOL    HW1 9298   7.457  11.891   6.360
69155SOL    HW2 9299   7.568  11.988   6.325
69156SOL     OW 9300   8.674   1.773  12.144
69156SOL    HW1 9301   8.589   1.739  12.170
69156SOL    HW2 9302   8.736   1.730  12.202
69157SOL     OW 9303  10.711   5.753   0.875
69157SOL    HW1 9304  10.768   5.830   0.875
69157SOL    HW2 9305  10.639   5.776   0.933
69158SOL     OW 9306   1.201  11.050   3.585
69158SOL    HW1 9307   1.190  11.125   3.527
69158SOL    HW2 9308   1.136  10.987   3.555
69159SOL     OW 9309   7.005   9.070   2.573
69159SOL    HW1 9310   6.982   9.135   2.508
69159SOL    HW2 9311   6.971   9.105   2.655
69160SOL     OW 9312  14.281  14.787   3.120
69160SOL    HW1 9313  14.292  14.768   3.213
69160SOL    HW2 9314  14.191  14.759   3.101
69161SOL     OW 9315  13.484  13.904   0.201
69161SOL    HW1 9316  13.420  13.965   0.165
69161SOL    HW2 9317  13.569  13.943   0.179
69162SOL     OW 9318  11.773  11.034   1.647
69162SOL    HW1 9319  11.694  11.075   1.682
69162SOL    HW2 9320  11.740  10.976   1.578
69163SOL     OW 9321   0.484   6.165   8.824
69163SOL    HW1 9322   0.433   6.087   8.804
69163SOL    HW2 9323   0.494   6.164   8.919
69164SOL     OW 9324  10.316  11.515   8.041
69164SOL    HW1 9325  10.393  11.459   8.046
69164SOL    HW2 9326  10.247  11.457   8.007
69165SOL     OW 9327   0.615   2.196  10.347
69165SOL    HW1 9328   0.538   2.187  10.290
69165SOL    HW2 9329   0.689   2.173  10.291
69166SOL     OW 9330   7.284   4.639   6.780
69166SOL    HW1 9331   7.344   4.593   6.721
69166SOL    HW2 9332   7.334   4.715   6.809
69167SOL     OW 9333  13.558  12.454   9.283
69167SOL    HW1 9334  13.587  12.534   9.327
69167SOL    HW2 9335  13.488  12.421   9.339
69168SOL     OW 9336   7.846   4.624   2.242
69168SOL    HW1 9337   7.855   4.653   2.152
69168SOL    HW2 9338   7.917   4.667   2.289
69169SOL     OW 9339  14.343  12.437  12.139
69169SOL    HW1 9340  14.282  12.506  12.168
69169SOL    HW2 9341  14.286  12.368  12.106
69170SOL     OW 9342  12.891   7.261   7.218
69170SOL    HW1 9343  12.914   7.245   7.126
69170SOL    HW2 9344  12.819   7.325   7.214
69171SOL     OW 9345   2.858   0.291   1.310
69171SOL    HW1 9346   2.782   0.319   1.259
69171SOL    HW2 9347   2.859   0.196   1.302
69172SOL     OW 9348   4.769  12.017   2.094
69172SOL    HW1 9349   4.854  12.050   2.065
69172SOL    HW2 9350   4.788  11.929   2.128
69173SOL     OW 9351   5.001  12.264   6.379
69173SOL    HW1 9352   5.027  12.355   6.393
69173SOL    HW2 9353   4.991  12.257   6.284
69174SOL     OW 9354  14.180   0.784   0.686
69174SOL    HW1 9355  14.131   0.708   0.654
69174SOL    HW2 9356  14.211   0.758   0.772
69175SOL     OW 9357   5.791   7.971  14.864
69175SOL    HW1 9358   5.706   7.949  14.826
69175SOL    HW2 9359   5.788   8.065  14.879
69176SOL     OW 9360   2.978  14.728   2.634
69176SOL    HW1 9361   3.061  14.741   2.681
69176SOL    HW2 9362   2.925  14.676   2.694
69177SOL     OW 9363   7.949  11.532   9.831
69177SOL    HW1 9364   7.972  11.603   9.771
69177SOL    HW2 9365   8.032  11.485   9.844
69178SOL     OW 9366   4.697   1.204   7.650
69178SOL    HW1 9367   4.635   1.186   7.579
69178SOL    HW2 9368   4.641   1.219   7.727
69179SOL     OW 9369   6.139   7.164   3.481
69179SOL    HW1 9370   6.139   7.247   3.528
69179SOL    HW2 9371   6.174   7.101   3.545
69180SOL     OW 9372   4.325   8.212   5.818
69180SOL    HW1 9373   4.390   8.194   5.885
69180SOL    HW2 9374   4.289   8.298   5.840
69181SOL     OW 9375   2.590   0.994   1.388
69181SOL    HW1 9376   2.623   0.909   1.362
69181SOL    HW2 9377   2.648   1.057   1.345
69182SOL     OW 9378  12.943   5.915   4.865
69182SOL    HW1 9379  12.977   5.860   4.795
69182SOL    HW2 9380  12.869   5.961   4.826
69183SOL     OW 9381   7.444   9.295   9.241
69183SOL    HW1 9382   7.450   9.219   9.183
69183SOL    HW2 9383   7.510   9.356   9.208
69184SOL     OW 9384   9.465   4.357   4.343
69184SOL    HW1 9385   9.449   4.348   4.437
69184SOL    HW2 9386   9.378   4.370   4.305
69185SOL     OW 9387   5.513  13.542   9.479
69185SOL    HW1 9388   5.567  13.615   9.510
69185SOL    HW2 9389   5.476  13.504   9.558
69186SOL     OW 9390   5.729   1.410  12.146
69186SOL    HW1 9391   5.733   1.431  12.240
69186SOL    HW2 9392   5.794   1.467  12.106
69187SOL     OW 9393   6.643   9.170  11.275
69187SOL    HW1 9394   6.627   9.178  11.181
69187SOL    HW2 9395   6.628   9.258  11.309
69188SOL     OW 9396   9.900  13.210   8.023
69188SOL    HW1 9397   9.892  13.305   8.013
69188SOL    HW2 9398   9.906  13.177   7.934
69189SOL     OW 9399  11.359  13.663   3.398
69189SOL    HW1 9400  11.351  13.700   3.309
69189SOL    HW2 9401  11.277  13.688   3.441
69190SOL     OW 9402   2.141   9.281  14.035
69190SOL    HW1 9403   2.167   9.199  14.076
69190SOL    HW2 9404   2.046   9.284  14.046
69191SOL     OW 9405   4.283   0.470   0.047
69191SOL    HW1 9406   4.267   0.408  14.855
69191SOL    HW2 9407   4.227   0.545   0.027
69192SOL     OW 9408  14.841   9.893  11.559
69192SOL    HW1 9409  14.783   9.946  11.504
69192SOL    HW2 9410   0.002   9.955  11.620
69193SOL     OW 9411  10.870   5.136   0.816
69193SOL    HW1 9412  10.810   5.122   0.889
69193SOL    HW2 9413  10.843   5.071   0.750
69194SOL     OW 9414   8.544   8.073   6.671
69194SOL    HW1 9415   8.554   8.114   6.586
69194SOL    HW2 9416   8.631   8.079   6.711
69195SOL     OW 9417  12.270  11.569   0.056
69195SOL    HW1 9418  12.282  11.493  14.879
69195SOL    HW2 9419  12.358  11.602   0.072
69196SOL     OW 9420  10.091   7.212   6.600
69196SOL    HW1 9421  10.167   7.256   6.636
69196SOL    HW2 9422  10.127   7.146   6.540
69197SOL     OW 9423   0.164   4.684   5.971
69197SOL    HW1 9424   0.127   4.712   6.055
69197SOL    HW2 9425   0.123   4.599   5.954
69198SOL     OW 9426  11.013   2.170  14.803
69198SOL    HW1 9427  11.065   2.154   0.003
69198SOL    HW2 9428  10.923   2.150  14.829
69199SOL     OW 9429   7.798   4.941   5.751
69199SOL    HW1 9430   7.780   4.912   5.840
69199SOL    HW2 9431   7.888   4.973   5.753
69200SOL     OW 9432  14.623  13.868   4.502
69200SOL    HW1 9433  14.592  13.880   4.592
69200SOL    HW2 9434  14.679  13.791   4.506
69201SOL     OW 9435   4.832   9.851  11.695
69201SOL    HW1 9436   4.858   9.772  11.742
69201SOL    HW2 9437   4.741   9.834  11.669
69202SOL     OW 9438   4.766   6.706   0.840
69202SOL    HW1 9439   4.849   6.717   0.795
69202SOL    HW2 9440   4.754   6.612   0.846
69203SOL     OW 9441  11.845   9.694   4.905
69203SOL    HW1 9442  11.784   9.685   4.978
69203SOL    HW2 9443  11.806   9.761   4.849
69204SOL     OW 9444  12.071  10.185   2.137
69204SOL    HW1 9445  12.132  10.130   2.087
69204SOL    HW2 9446  12.034  10.244   2.072
69205SOL     OW 9447   2.310  13.259   1.227
69205SOL    HW1 9448   2.224  13.222   1.247
69205SOL    HW2 9449   2.372  13.192   1.258
69206SOL     OW 9450  11.881   9.565  11.515
69206SOL    HW1 9451  11.875   9.545  11.421
69206SOL    HW2 9452  11.857   9.658  11.521
69207SOL     OW 9453  12.980  12.239   4.003
69207SOL    HW1 9454  13.012  12.202   4.085
69207SOL    HW2 9455  13.005  12.331   4.006
69208SOL     OW 9456   3.770   4.882   2.975
69208SOL    HW1 9457   3.771   4.898   2.881
69208SOL    HW2 9458   3.817   4.799   2.986
69209SOL     OW 9459  12.078   9.395   3.100
69209SOL    HW1 9460  12.015   9.323   3.108
69209SOL    HW2 9461  12.164   9.352   3.098
69210SOL     OW 9462   3.351   2.437  11.285
69210SOL    HW1 9463   3.273   2.489  11.267
69210SOL    HW2 9464   3.319   2.347  11.292
69211SOL     OW 9465  10.480   8.942   4.751
69211SOL    HW1 9466  10.533   8.945   4.830
69211SOL    HW2 9467  10.396   8.980   4.777
69212SOL     OW 9468  13.031  13.404   1.114
69212SOL    HW1 9469  13.066  13.421   1.201
69212SOL    HW2 9470  13.037  13.309   1.104
69213SOL     OW 9471   0.543  11.560   0.816
69213SOL    HW1 9472   0.615  11.618   0.791
69213SOL    HW2 9473   0.543  11.492   0.749
69214SOL     OW 9474  10.596   3.897   9.248
69214SOL    HW1 9475  10.509   3.905   9.210
69214SOL    HW2 9476  10.638   3.981   9.229
69215SOL     OW 9477  14.400   4.949   6.654
69215SOL    HW1 9478  14.472   4.948   6.592
69215SOL    HW2 9479  14.437   4.916   6.736
69216SOL     OW 9480   1.065   5.771  10.204
69216SOL    HW1 9481   0.979   5.813  10.203
69216SOL    HW2 9482   1.082   5.753  10.296
69217SOL     OW 9483  10.586   2.502  11.454
69217SOL    HW1 9484  10.677   2.473  11.455
69217SOL    HW2 9485  10.590   2.597  11.443
69218SOL     OW 9486   3.506   2.507  13.441
69218SOL    HW1 9487   3.478   2.456  13.365
69218SOL    HW2 9488   3.426   2.521  13.491
69219SOL     OW 9489  11.592  14.607   1.117
69219SOL    HW1 9490  11.515  14.651   1.153
69219SOL    HW2 9491  11.625  14.554   1.189
69220SOL     OW 9492   0.177   7.802  12.866
69220SOL    HW1 9493   0.260   7.806  12.913
69220SOL    HW2 9494   0.111   7.815  12.934
69221SOL     OW 9495  11.565   2.086   5.902
69221SOL    HW1 9496  11.621   2.015   5.872
69221SOL    HW2 9497  11.495   2.043   5.950
69222SOL     OW 9498   9.600   0.948  10.251
69222SOL    HW1 9499   9.520   0.991  10.280
69222SOL    HW2 9500   9.667   1.017  10.254
69223SOL     OW 9501   1.519   3.483   1.770
69223SOL    HW1 9502   1.461   3.423   1.723
69223SOL    HW2 9503   1.483   3.570   1.753
69224SOL     OW 9504  13.533   2.801   8.019
69224SOL    HW1 9505  13.456   2.751   8.047
69224SOL    HW2 9506  13.518   2.889   8.053
69225SOL     OW 9507  12.115  14.063   6.541
69225SOL    HW1 9508  12.188  14.122   6.560
69225SOL    HW2 9509  12.127  13.990   6.602
69226SOL     OW 9510  14.842  10.778  12.574
69226SOL    HW1 9511  14.766  10.731  12.610
69226SOL    HW2 9512   0.005  10.714  12.515
69227SOL     OW 9513   0.963   9.993  12.992
69227SOL    HW1 9514   0.999   9.967  12.907
69227SOL    HW2 9515   0.991  10.084  13.003
69228SOL     OW 9516   3.004  10.130  12.579
69228SOL    HW1 9517   2.915  10.107  12.553
69228SOL    HW2 9518   3.051  10.142  12.497
69229SOL     OW 9519   3.829   7.387  10.959
69229SOL    HW1 9520   3.915   7.416  10.929
69229SOL    HW2 9521   3.767   7.449  10.920
69230SOL     OW 9522   1.615  11.534  11.400
69230SOL    HW1 9523   1.564  11.569  11.327
69230SOL    HW2 9524   1.703  11.521  11.365
69231SOL     OW 9525   1.736   3.738   4.810
69231SOL    HW1 9526   1.785   3.815   4.782
69231SOL    HW2 9527   1.722   3.688   4.730
69232SOL     OW 9528   4.993   0.637   8.182
69232SOL    HW1 9529   5.038   0.553   8.185
69232SOL    HW2 9530   4.975   0.652   8.089
69233SOL     OW 9531   0.226   2.754   1.898
69233SOL    HW1 9532   0.295   2.689   1.910
69233SOL    HW2 9533   0.147   2.702   1.879
69234SOL     OW 9534   5.571   1.914  13.987
69234SOL    HW1 9535   5.532   1.905  13.901
69234SOL    HW2 9536   5.535   1.842  14.038
69235SOL     OW 9537   5.327   1.812   4.858
69235SOL    HW1 9538   5.241   1.846   4.834
69235SOL    HW2 9539   5.331   1.818   4.953
69236SOL     OW 9540   1.580   0.691   3.009
69236SOL    HW1 9541   1.517   0.759   2.983
69236SOL    HW2 9542   1.534   0.640   3.075
69237SOL     OW 9543   6.923  13.983   4.584
69237SOL    HW1 9544   6.835  14.012   4.561
69237SOL    HW2 9545   6.943  13.915   4.520
69238SOL     OW 9546  13.573   8.800   8.679
69238SOL    HW1 9547  13.646   8.761   8.728
69238SOL    HW2 9548  13.571   8.751   8.596
69239SOL     OW 9549   9.712   5.052   1.897
69239SOL    HW1 9550   9.702   5.136   1.853
69239SOL    HW2 9551   9.698   5.071   1.990
69240SOL     OW 9552  11.010  14.133   4.094
69240SOL    HW1 9553  10.943  14.113   4.029
69240SOL    HW2 9554  11.055  14.050   4.110
69241SOL     OW 9555   6.515  10.900  13.253
69241SOL    HW1 9556   6.515  10.881  13.347
69241SOL    HW2 9557   6.461  10.979  13.244
69242SOL     OW 9558   2.972   2.226  13.452
69242SOL    HW1 9559   2.879   2.236  13.434
69242SOL    HW2 9560   3.009   2.194  13.369
69243SOL     OW 9561   5.726   3.884   2.430
69243SOL    HW1 9562   5.815   3.857   2.452
69243SOL    HW2 9563   5.678   3.880   2.513
69244SOL     OW 9564  10.538  11.636   9.710
69244SOL    HW1 9565  10.449  11.603   9.698
69244SOL    HW2 9566  10.531  11.731   9.699
69245SOL     OW 9567   6.288   4.450   5.076
69245SOL    HW1 9568   6.373   4.463   5.119
69245SOL    HW2 9569   6.254   4.539   5.064
69246SOL     OW 9570   4.946   0.377   1.441
69246SOL    HW1 9571   4.969   0.337   1.525
69246SOL    HW2 9572   4.945   0.304   1.379
69247SOL     OW 9573   1.927   7.441   3.135
69247SOL    HW1 9574   1.887   7.406   3.215
69247SOL    HW2 9575   1.947   7.364   3.082
69248SOL     OW 9576  13.401  12.739   5.844
69248SOL    HW1 9577  13.452  12.669   5.884
69248SOL    HW2 9578  13.381  12.799   5.916
69249SOL     OW 9579   3.388   7.351   3.877
69249SOL    HW1 9580   3.351   7.436   3.856
69249SOL    HW2 9581   3.425   7.361   3.965
69250SOL     OW 9582   3.625  11.677   8.779
69250SOL    HW1 9583   3.670  11.609   8.729
69250SOL    HW2 9584   3.659  11.668   8.868
69251SOL     OW 9585   5.933  13.784  14.766
69251SOL    HW1 9586   5.955  13.703  14.719
69251SOL    HW2 9587   6.016  13.814  14.803
69252SOL     OW 9588   4.890  13.069   3.719
69252SOL    HW1 9589   4.821  13.104   3.663
69252SOL    HW2 9590   4.847  13.002   3.772
69253SOL     OW 9591  10.302   2.372  13.317
69253SOL    HW1 9592  10.236   2.427  13.359
69253SOL    HW2 9593  10.370   2.362  13.383
69254SOL     OW 9594   9.071   4.851   5.373
69254SOL    HW1 9595   9.069   4.867   5.467
69254SOL    HW2 9596   9.091   4.758   5.365
69255SOL     OW 9597  14.044  12.886   0.481
69255SOL    HW1 9598  14.137  12.908   0.489
69255SOL    HW2 9599  14.009  12.953   0.423
69256SOL     OW 9600  13.884   9.212   8.253
69256SOL    HW1 9601  13.954   9.181   8.196
69256SOL    HW2 9602  13.930   9.248   8.329
69257SOL     OW 9603   5.649   9.821   1.421
69257SOL    HW1 9604   5.636   9.727   1.406
69257SOL    HW2 9605   5.740   9.837   1.393
69258SOL     OW 9606  11.016   1.352  12.788
69258SOL    HW1 9607  11.088   1.414  12.796
69258SOL    HW2 9608  11.006   1.338  12.694
69259SOL     OW 9609  14.502  11.011   2.484
69259SOL    HW1 9610  14.420  10.992   2.439
69259SOL    HW2 9611  14.570  10.970   2.430
69260SOL     OW 9612   0.855   9.345   5.816
69260SOL    HW1 9613   0.795   9.420   5.806
69260SOL    HW2 9614   0.865   9.311   5.727
69261SOL     OW 9615   7.125  10.090   6.764
69261SOL    HW1 9616   7.050  10.047   6.805
69261SOL    HW2 9617   7.179  10.019   6.731
69262SOL     OW 9618   6.490  14.267   4.381
69262SOL    HW1 9619   6.556  14.308   4.326
69262SOL    HW2 9620   6.436  14.339   4.413
69263SOL     OW 9621  12.462   4.204   3.012
69263SOL    HW1 9622  12.493   4.114   3.016
69263SOL    HW2 9623  12.458   4.224   2.919
69264SOL     OW 9624   9.977   1.371  12.057
69264SOL    HW1 9625   9.925   1.291  12.060
69264SOL    HW2 9626  10.065   1.342  12.035
69265SOL     OW 9627   1.379   1.234  10.171
69265SOL    HW1 9628   1.317   1.205  10.103
69265SOL    HW2 9629   1.464   1.230  10.128
69266SOL     OW 9630   6.441   0.133   7.044
69266SOL    HW1 9631   6.462   0.076   7.118
69266SOL    HW2 9632   6.348   0.154   7.056
69267SOL     OW 9633   4.702   8.717  10.658
69267SOL    HW1 9634   4.789   8.697  10.623
69267SOL    HW2 9635   4.644   8.655  10.613
69268SOL     OW 9636   1.785   3.456   2.594
69268SOL    HW1 9637   1.849   3.443   2.524
69268SOL    HW2 9638   1.837   3.456   2.674
69269SOL     OW 9639   6.457   6.586  12.209
69269SOL    HW1 9640   6.380   6.631  12.174
69269SOL    HW2 9641   6.425   6.541  12.288
69270SOL     OW 9642   8.892   7.360   7.893
69270SOL    HW1 9643   8.889   7.356   7.988
69270SOL    HW2 9644   8.879   7.269   7.865
69271SOL     OW 9645   3.751   9.068  11.764
69271SOL    HW1 9646   3.827   9.016  11.791
69271SOL    HW2 9647   3.787   9.141  11.714
69272SOL     OW 9648   1.073  13.135   4.004
69272SOL    HW1 9649   1.119  13.113   4.085
69272SOL    HW2 9650   1.062  13.230   4.008
69273SOL     OW 9651   5.661   0.697  13.586
69273SOL    HW1 9652   5.724   0.641  13.540
69273SOL    HW2 9653   5.576   0.656  13.568
69274SOL     OW 9654   4.371   1.064  12.007
69274SOL    HW1 9655   4.394   1.042  11.917
69274SOL    HW2 9656   4.455   1.068  12.052
69275SOL     OW 9657  10.983  12.831   3.642
69275SOL    HW1 9658  10.977  12.817   3.547
69275SOL    HW2 9659  11.070  12.867   3.656
69276SOL     OW 9660   2.328  11.866   2.245
69276SOL    HW1 9661   2.370  11.808   2.308
69276SOL    HW2 9662   2.323  11.815   2.164
69277SOL     OW 9663  10.475   7.775   6.574
69277SOL    HW1 9664  10.554   7.738   6.613
69277SOL    HW2 9665  10.407   7.762   6.641
69278SOL     OW 9666   9.020   2.929   4.014
69278SOL    HW1 9667   9.030   3.022   3.995
69278SOL    HW2 9668   9.084   2.886   3.956
69279SOL     OW 9669   0.226   2.891  13.696
69279SOL    HW1 9670   0.288   2.964  13.687
69279SOL    HW2 9671   0.176   2.892  13.614
69280SOL     OW 9672   4.116  13.703   9.474
69280SOL    HW1 9673   4.059  13.629   9.498
69280SOL    HW2 9674   4.177  13.710   9.548
69281SOL     OW 9675   8.282   5.996   7.026
69281SOL    HW1 9676   8.235   6.016   7.108
69281SOL    HW2 9677   8.235   6.046   6.959
69282SOL     OW 9678   2.879   6.191  10.628
69282SOL    HW1 9679   2.856   6.274  10.585
69282SOL    HW2 9680   2.940   6.217  10.697
69283SOL     OW 9681   0.855  11.169   1.605
69283SOL    HW1 9682   0.877  11.089   1.558
69283SOL    HW2 9683   0.933  11.224   1.597
69284SOL     OW 9684   3.326   8.339   1.799
69284SOL    HW1 9685   3.318   8.300   1.712
69284SOL    HW2 9686   3.283   8.424   1.792
69285SOL     OW 9687   4.824   2.826  12.631
69285SOL    HW1 9688   4.821   2.921  12.633
69285SOL    HW2 9689   4.837   2.805  12.538
69286SOL     OW 9690  14.794  13.500   5.174
69286SOL    HW1 9691  14.784  13.452   5.092
69286SOL    HW2 9692   0.004  13.536   5.169
69287SOL     OW 9693   2.161  13.428  14.118
69287SOL    HW1 9694   2.084  13.454  14.168
69287SOL    HW2 9695   2.218  13.505  14.120
69288SOL     OW 9696  12.750   8.555   2.672
69288SOL    HW1 9697  12.698   8.619   2.720
69288SOL    HW2 9698  12.798   8.608   2.607
69289SOL     OW 9699   3.191   4.183  11.941
69289SOL    HW1 9700   3.239   4.162  11.860
69289SOL    HW2 9701   3.105   4.141  11.929
69290SOL     OW 9702   6.146  12.569   5.339
69290SOL    HW1 9703   6.139  12.538   5.430
69290SOL    HW2 9704   6.057  12.592   5.314
69291SOL     OW 9705   5.666   5.283  11.109
69291SOL    HW1 9706   5.702   5.238  11.185
69291SOL    HW2 9707   5.741   5.294  11.050
69292SOL     OW 9708  12.133   2.448   4.503
69292SOL    HW1 9709  12.176   2.363   4.495
69292SOL    HW2 9710  12.122   2.461   4.597
69293SOL     OW 9711   8.902  11.319   1.180
69293SOL    HW1 9712   8.850  11.384   1.227
69293SOL    HW2 9713   8.985  11.315   1.228
69294SOL     OW 9714   5.179   3.074   9.513
69294SOL    HW1 9715   5.158   3.158   9.553
69294SOL    HW2 9716   5.258   3.045   9.559
69295SOL     OW 9717   3.553   2.790   0.319
69295SOL    HW1 9718   3.589   2.773   0.232
69295SOL    HW2 9719   3.565   2.884   0.333
69296SOL     OW 9720  11.776  13.762   5.342
69296SOL    HW1 9721  11.708  13.736   5.404
69296SOL    HW2 9722  11.733  13.758   5.256
69297SOL     OW 9723   8.735   5.021   9.565
69297SOL    HW1 9724   8.734   5.036   9.660
69297SOL    HW2 9725   8.660   4.965   9.549
69298SOL     OW 9726   0.951   5.045   5.334
69298SOL    HW1 9727   0.999   5.113   5.288
69298SOL    HW2 9728   0.971   5.060   5.426
69299SOL     OW 9729  11.652   7.777  13.594
69299SOL    HW1 9730  11.719   7.800  13.530
69299SOL    HW2 9731  11.573   7.820  13.562
69300SOL     OW 9732  14.233  13.343   8.940
69300SOL    HW1 9733  14.294  13.384   9.000
69300SOL    HW2 9734  14.147  13.373   8.969
69301SOL     OW 9735   6.523   1.444   2.182
69301SOL    HW1 9736   6.492   1.521   2.134
69301SOL    HW2 9737   6.483   1.370   2.136
69302SOL     OW 9738   5.490   6.963  10.059
69302SOL    HW1 9739   5.487   6.931   9.969
69302SOL    HW2 9740   5.583   6.958  10.083
69303SOL     OW 9741  11.280   5.166   6.522
69303SOL    HW1 9742  11.221   5.091   6.518
69303SOL    HW2 9743  11.366   5.130   6.500
69304SOL     OW 9744   2.824  11.850   4.550
69304SOL    HW1 9745   2.848  11.941   4.563
69304SOL    HW2 9746   2.901  11.809   4.510
69305SOL     OW 9747  14.415   3.627   6.826
69305SOL    HW1 9748  14.404   3.719   6.802
69305SOL    HW2 9749  14.483   3.594   6.767
69306SOL     OW 9750  14.842  13.661  11.650
69306SOL    HW1 9751  14.844  13.654  11.745
69306SOL    HW2 9752  14.864  13.573  11.619
69307SOL     OW 9753   4.610   3.320  11.641
69307SOL    HW1 9754   4.517   3.340  11.649
69307SOL    HW2 9755   4.615   3.257  11.570
69308SOL     OW 9756   7.147   4.972   6.098
69308SOL    HW1 9757   7.142   4.939   6.008
69308SOL    HW2 9758   7.199   4.906   6.145
69309SOL     OW 9759   7.597  11.972   3.766
69309SOL    HW1 9760   7.519  12.003   3.812
69309SOL    HW2 9761   7.611  11.883   3.801
69310SOL     OW 9762   3.724   1.803   5.958
69310SOL    HW1 9763   3.752   1.804   6.050
69310SOL    HW2 9764   3.799   1.766   5.911
69311SOL     OW 9765   9.779   7.492   2.047
69311SOL    HW1 9766   9.777   7.565   2.109
69311SOL    HW2 9767   9.718   7.518   1.978
69312SOL     OW 9768  12.897   0.627  14.272
69312SOL    HW1 9769  12.909   0.597  14.362
69312SOL    HW2 9770  12.844   0.706  14.280
69313SOL     OW 9771   9.147  12.946  13.581
69313SOL    HW1 9772   9.075  12.994  13.621
69313SOL    HW2 9773   9.213  13.013  13.562
69314SOL     OW 9774   3.320   0.608  12.381
69314SOL    HW1 9775   3.360   0.532  12.338
69314SOL    HW2 9776   3.227   0.586  12.387
69315SOL     OW 9777   0.720  10.434   0.550
69315SOL    HW1 9778   0.746  10.348   0.582
69315SOL    HW2 9779   0.676  10.475   0.624
69316SOL     OW 9780   7.519   4.916   3.491
69316SOL    HW1 9781   7.432   4.953   3.503
69316SOL    HW2 9782   7.571   4.950   3.563
69317SOL     OW 9783   0.064   6.203   1.366
69317SOL    HW1 9784  14.859   6.174   1.403
69317SOL    HW2 9785   0.126   6.135   1.391
69318SOL     OW 9786  14.646   3.611  11.398
69318SOL    HW1 9787  14.585   3.546  11.364
69318SOL    HW2 9788  14.612   3.631  11.486
69319SOL     OW 9789   4.980   6.604   7.170
69319SOL    HW1 9790   4.991   6.518   7.130
69319SOL    HW2 9791   5.012   6.665   7.104
69320SOL     OW 9792   7.468  13.141  12.865
69320SOL    HW1 9793   7.489  13.057  12.906
69320SOL    HW2 9794   7.405  13.181  12.925
69321SOL     OW 9795   0.288  11.988  11.930
69321SOL    HW1 9796   0.277  11.897  11.959
69321SOL    HW2 9797   0.364  11.986  11.872
69322SOL     OW 9798   3.727   8.553  13.333
69322SOL    HW1 9799   3.651   8.554  13.274
69322SOL    HW2 9800   3.742   8.645  13.354
69323SOL     OW 9801   6.272   7.791   0.632
69323SOL    HW1 9802   6.330   7.831   0.697
69323SOL    HW2 9803   6.254   7.703   0.667
69324SOL     OW 9804   7.728   3.581   4.413
69324SOL    HW1 9805   7.667   3.615   4.348
69324SOL    HW2 9806   7.682   3.587   4.496
69325SOL     OW 9807   8.330   6.238   7.464
69325SOL    HW1 9808   8.280   6.318   7.446
69325SOL    HW2 9809   8.331   6.231   7.559
69326SOL     OW 9810  13.158   9.973   1.256
69326SOL    HW1 9811  13.145   9.941   1.167
69326SOL    HW2 9812  13.074  10.013   1.279
69327SOL     OW 9813   6.895   2.433   9.783
69327SOL    HW1 9814   6.902   2.348   9.740
69327SOL    HW2 9815   6.883   2.495   9.712
69328SOL     OW 9816   9.781   2.943   9.578
69328SOL    HW1 9817   9.869   2.981   9.573
69328SOL    HW2 9818   9.730   2.993   9.514
69329SOL     OW 9819   9.140   1.464   2.642
69329SOL    HW1 9820   9.094   1.404   2.583
69329SOL    HW2 9821   9.188   1.523   2.583
69330SOL     OW 9822   6.215  10.366  12.137
69330SOL    HW1 9823   6.244  10.425  12.206
69330SOL    HW2 9824   6.237  10.411  12.056
69331SOL     OW 9825   8.352   9.137  10.031
69331SOL    HW1 9826   8.366   9.225  10.067
69331SOL    HW2 9827   8.284   9.148   9.965
69332SOL     OW 9828   1.090   1.243   3.943
69332SOL    HW1 9829   1.118   1.275   4.029
69332SOL    HW2 9830   1.018   1.183   3.962
69333SOL     OW 9831   7.317   5.878   4.454
69333SOL    HW1 9832   7.245   5.815   4.459
69333SOL    HW2 9833   7.293   5.936   4.382
69334SOL     OW 9834   5.177   1.325   1.479
69334SOL    HW1 9835   5.125   1.403   1.499
69334SOL    HW2 9836   5.267   1.350   1.499
69335SOL     OW 9837  11.395   1.620  14.342
69335SOL    HW1 9838  11.419   1.697  14.393
69335SOL    HW2 9839  11.436   1.634  14.257
69336SOL     OW 9840   8.747  14.149   7.731
69336SOL    HW1 9841   8.820  14.209   7.747
69336SOL    HW2 9842   8.788  14.063   7.724
69337SOL     OW 9843   4.697   5.397   2.899
69337SOL    HW1 9844   4.735   5.313   2.874
69337SOL    HW2 9845   4.718   5.456   2.827
69338SOL     OW 9846  13.727  11.788   5.669
69338SOL    HW1 9847  13.774  11.713   5.633
69338SOL    HW2 9848  13.686  11.830   5.593
69339SOL     OW 9849   3.684   2.949   2.291
69339SOL    HW1 9850   3.722   2.934   2.204
69339SOL    HW2 9851   3.745   3.009   2.333
69340SOL     OW 9852   9.394   7.742   6.723
69340SOL    HW1 9853   9.329   7.807   6.747
69340SOL    HW2 9854   9.432   7.714   6.807
69341SOL     OW 9855   0.262  11.972   7.184
69341SOL    HW1 9856   0.211  11.997   7.260
69341SOL    HW2 9857   0.242  12.038   7.118
69342SOL     OW 9858   4.872  12.749  14.480
69342SOL    HW1 9859   4.842  12.662  14.504
69342SOL    HW2 9860   4.966  12.740  14.467
69343SOL     OW 9861   2.279   2.198  12.333
69343SOL    HW1 9862   2.199   2.248  12.347
69343SOL    HW2 9863   2.288   2.193  12.238
69344SOL     OW 9864  13.883  13.080   2.709
69344SOL    HW1 9865  13.974  13.089   2.681
69344SOL    HW2 9866  13.853  13.170   2.720
69345SOL     OW 9867   3.281   1.962   1.057
69345SOL    HW1 9868   3.267   1.896   1.125
69345SOL    HW2 9869   3.250   1.921   0.977
69346SOL     OW 9870   5.467   3.205   6.392
69346SOL    HW1 9871   5.477   3.296   6.366
69346SOL    HW2 9872   5.382   3.179   6.355
69347SOL     OW 9873   3.074   8.260   1.401
69347SOL    HW1 9874   3.124   8.322   1.349
69347SOL    HW2 9875   3.050   8.191   1.339
69348SOL     OW 9876   3.692   7.294   8.569
69348SOL    HW1 9877   3.667   7.318   8.480
69348SOL    HW2 9878   3.610   7.268   8.611
69349SOL     OW 9879  11.929   3.713   8.453
69349SOL    HW1 9880  11.976   3.731   8.534
69349SOL    HW2 9881  11.996   3.681   8.392
69350SOL     OW 9882   0.366   8.531  10.526
69350SOL    HW1 9883   0.294   8.594  10.522
69350SOL    HW2 9884   0.397   8.524  10.435
69351SOL     OW 9885   0.964   2.662   3.612
69351SOL    HW1 9886   0.889   2.605   3.598
69351SOL    HW2 9887   1.016   2.618   3.680
69352SOL     OW 9888   0.485   7.700   0.127
69352SOL    HW1 9889   0.403   7.734   0.162
69352SOL    HW2 9890   0.520   7.771   0.072
69353SOL     OW 9891   6.905  11.897   1.561
69353SOL    HW1 9892   6.814  11.924   1.558
69353SOL    HW2 9893   6.955  11.978   1.562
69354SOL     OW 9894  13.068   8.430   8.592
69354SOL    HW1 9895  12.993   8.415   8.534
69354SOL    HW2 9896  13.100   8.343   8.613
69355SOL     OW 9897   5.699   9.738   9.817
69355SOL    HW1 9898   5.620   9.737   9.764
69355SOL    HW2 9899   5.670   9.767   9.904
69356SOL     OW 9900  10.137  13.437  10.157
69356SOL    HW1 9901  10.073  13.471  10.094
69356SOL    HW2 9902  10.113  13.345  10.169
69357SOL     OW 9903   5.141  13.412   1.993
69357SOL    HW1 9904   5.080  13.359   2.044
69357SOL    HW2 9905   5.222  13.412   2.044
69358SOL     OW 9906   8.764  13.693   0.458
69358SOL    HW1 9907   8.825  13.766   0.466
69358SOL    HW2 9908   8.756  13.679   0.364
69359SOL     OW 9909   4.667   5.977   2.858
69359SOL    HW1 9910   4.594   5.915   2.860
69359SOL    HW2 9911   4.736   5.934   2.808
69360SOL     OW 9912  10.921   5.935   9.271
69360SOL    HW1 9913  10.956   5.864   9.217
69360SOL    HW2 9914  10.853   5.976   9.217
69361SOL     OW 9915   0.107   6.225  12.827
69361SOL    HW1 9916   0.066   6.294  12.775
69361SOL    HW2 9917   0.188   6.205  12.781
69362SOL     OW 9918   0.863   1.197   5.927
69362SOL    HW1 9919   0.818   1.281   5.928
69362SOL    HW2 9920   0.955   1.219   5.915
69363SOL     OW 9921  10.341   4.428   0.819
69363SOL    HW1 9922  10.287   4.350   0.834
69363SOL    HW2 9923  10.287   4.485   0.764
69364SOL     OW 9924   4.328   3.409   8.041
69364SOL    HW1 9925   4.312   3.319   8.011
69364SOL    HW2 9926   4.420   3.425   8.019
69365SOL     OW 9927   9.665  13.767   9.870
69365SOL    HW1 9928   9.654  13.686   9.819
69365SOL    HW2 9929   9.758  13.771   9.889
69366SOL     OW 9930  12.512   9.402   9.375
69366SOL    HW1 9931  12.512   9.307   9.365
69366SOL    HW2 9932  12.490   9.436   9.288
69367SOL     OW 9933   3.893  12.188   3.205
69367SOL    HW1 9934   3.941  12.231   3.135
69367SOL    HW2 9935   3.881  12.256   3.271
69368SOL     OW 9936   2.414   0.566  13.439
69368SOL    HW1 9937   2.430   0.482  13.396
69368SOL    HW2 9938   2.454   0.630  13.381
69369SOL     OW 9939   7.177   2.044   5.956
69369SOL    HW1 9940   7.259   2.090   5.942
69369SOL    HW2 9941   7.181   2.013   6.046
69370SOL     OW 9942   0.511  13.211   5.243
69370SOL    HW1 9943   0.515  13.248   5.331
69370SOL    HW2 9944   0.601  13.182   5.226
69371SOL     OW 9945   7.243  14.086   9.680
69371SOL    HW1 9946   7.269  14.000   9.715
69371SOL    HW2 9947   7.228  14.070   9.586
69372SOL     OW 9948   8.452  10.953   4.600
69372SOL    HW1 9949   8.510  10.892   4.556
69372SOL    HW2 9950   8.498  11.037   4.598
69373SOL     OW 9951  14.558   9.997  14.310
69373SOL    HW1 9952  14.583  10.046  14.231
69373SOL    HW2 9953  14.571   9.905  14.287
69374SOL     OW 9954  11.589  13.569   8.035
69374SOL    HW1 9955  11.599  13.649   7.984
69374SOL    HW2 9956  11.675  13.528   8.033
69375SOL     OW 9957  11.610  13.199  13.352
69375SOL    HW1 9958  11.682  13.137  13.364
69375SOL    HW2 9959  11.625  13.267  13.417
69376SOL     OW 9960  12.681   2.924   4.437
69376SOL    HW1 9961  12.683   3.020   4.432
69376SOL    HW2 9962  12.771   2.897   4.423
69377SOL     OW 9963  11.844   6.287   0.399
69377SOL    HW1 9964  11.889   6.219   0.349
69377SOL    HW2 9965  11.790   6.333   0.335
69378SOL     OW 9966   5.463   0.999   4.320
69378SOL    HW1 9967   5.486   1.073   4.377
69378SOL    HW2 9968   5.546   0.974   4.279
69379SOL     OW 9969  11.611  14.736   7.190
69379SOL    HW1 9970  11.532  14.780   7.158
69379SOL    HW2 9971  11.588  14.643   7.191
69380SOL     OW 9972  13.228   9.425   1.659
69380SOL    HW1 9973  13.210   9.345   1.708
69380SOL    HW2 9974  13.306   9.461   1.701
69381SOL     OW 9975   0.360  14.197   7.115
69381SOL    HW1 9976   0.360  14.283   7.075
69381SOL    HW2 9977   0.451  14.182   7.141
69382SOL     OW 9978   3.937   0.275  14.222
69382SOL    HW1 9979   4.018   0.244  14.263
69382SOL    HW2 9980   3.889   0.195  14.201
69383SOL     OW 9981   6.188   2.974  13.814
69383SOL    HW1 9982   6.138   3.047  13.850
69383SOL    HW2 9983   6.244   3.014  13.747
69384SOL     OW 9984   3.417   8.134   3.108
69384SOL    HW1 9985   3.466   8.055   3.086
69384SOL    HW2 9986   3.328   8.104   3.124
69385SOL     OW 9987   1.867   5.321   3.872
69385SOL    HW1 9988   1.875   5.349   3.781
69385SOL    HW2 9989   1.789   5.265   3.873
69386SOL     OW 9990   7.604   0.382   8.285
69386SOL    HW1 9991   7.637   0.446   8.222
69386SOL    HW2 9992   7.571   0.434   8.358
69387SOL     OW 9993  11.500   1.077  12.240
69387SOL    HW1 9994  11.522   1.102  12.330
69387SOL    HW2 9995  11.584   1.062  12.199
69388SOL     OW 9996  13.001   1.367   1.923
69388SOL    HW1 9997  13.092   1.389   1.906
69388SOL    HW2 9998  12.954   1.397   1.845
69389SOL     OW 9999   8.911  10.422  14.154
69389SOL    HW110000   8.820  10.409  14.181
69389SOL    HW210001   8.907  10.493  14.090
69390SOL     OW10002   2.803   9.589   7.582
69390SOL    HW110003   2.866   9.621   7.646
69390SOL    HW210004   2.737   9.658   7.576
69391SOL     OW10005  13.858  13.756  11.197
69391SOL    HW110006  13.912  13.834  11.201
69391SOL    HW210007  13.893  13.698  11.265
69392SOL     OW10008   8.210   1.066  10.400
69392SOL    HW110009   8.115   1.068  10.407
69392SOL    HW210010   8.229   1.107  10.316
69393SOL     OW10011   4.130  13.851   5.204
69393SOL    HW110012   4.176  13.924   5.246
69393SOL    HW210013   4.053  13.837   5.259
69394SOL     OW10014   5.429  11.580   3.009
69394SOL    HW110015   5.451  11.499   3.055
69394SOL    HW210016   5.372  11.552   2.937
69395SOL     OW10017  11.039  10.553   4.768
69395SOL    HW110018  10.979  10.616   4.728
69395SOL    HW210019  11.056  10.489   4.699
69396SOL     OW10020  11.831  13.890   3.298
69396SOL    HW110021  11.811  13.938   3.217
69396SOL    HW210022  11.747  13.886   3.344
69397SOL     OW10023   1.641  13.258  10.503
69397SOL    HW110024   1.548  13.247  10.481
69397SOL    HW210025   1.669  13.170  10.530
69398SOL     OW10026  14.786   0.779   1.215
69398SOL    HW110027  14.853   0.724   1.256
69398SOL    HW210028  14.819   0.797   1.127
69399SOL     OW10029   2.023  14.231  11.534
69399SOL    HW110030   2.024  14.285  11.456
69399SOL    HW210031   2.110  14.190  11.536
69400SOL     OW10032   3.171   6.959   6.378
69400SOL    HW110033   3.220   7.041   6.387
69400SOL    HW210034   3.200   6.922   6.295
69401SOL     OW10035   2.070  10.610   6.797
69401SOL    HW110036   2.107  10.652   6.875
69401SOL    HW210037   2.086  10.672   6.726
69402SOL     OW10038  10.338  12.221   1.232
69402SOL    HW110039  10.393  12.284   1.186
69402SOL    HW210040  10.383  12.206   1.315
69403SOL     OW10041   5.334   3.712   6.134
69403SOL    HW110042   5.311   3.631   6.089
69403SOL    HW210043   5.317   3.781   6.069
69404SOL     OW10044   2.009   2.919   2.398
69404SOL    HW110045   2.011   2.865   2.319
69404SOL    HW210046   2.044   3.003   2.371
69405SOL     OW10047   2.663  13.424   0.730
69405SOL    HW110048   2.657  13.404   0.823
69405SOL    HW210049   2.601  13.364   0.689
69406SOL     OW10050   2.128   1.397   6.729
69406SOL    HW110051   2.212   1.441   6.715
69406SOL    HW210052   2.066   1.445   6.673
69407SOL     OW10053   8.835  10.532  12.036
69407SOL    HW110054   8.910  10.562  12.088
69407SOL    HW210055   8.841  10.582  11.955
69408SOL     OW10056   3.038   4.524   3.380
69408SOL    HW110057   3.029   4.527   3.475
69408SOL    HW210058   3.051   4.616   3.354
69409SOL     OW10059   6.431   4.383   0.336
69409SOL    HW110060   6.436   4.420   0.424
69409SOL    HW210061   6.340   4.355   0.327
69410SOL     OW10062  11.484   2.781   1.784
69410SOL    HW110063  11.540   2.845   1.742
69410SOL    HW210064  11.410   2.832   1.819
69411SOL     OW10065  11.148   1.613   4.533
69411SOL    HW110066  11.087   1.604   4.460
69411SOL    HW210067  11.234   1.594   4.496
69412SOL     OW10068   3.681   5.358  14.026
69412SOL    HW110069   3.630   5.439  14.023
69412SOL    HW210070   3.736   5.360  13.948
69413SOL     OW10071   6.680  11.906   2.233
69413SOL    HW110072   6.694  11.840   2.301
69413SOL    HW210073   6.732  11.876   2.159
69414SOL     OW10074   4.219  11.133  14.175
69414SOL    HW110075   4.178  11.142  14.089
69414SOL    HW210076   4.297  11.189  14.170
69415SOL     OW10077   3.274   2.846   9.685
69415SOL    HW110078   3.292   2.835   9.592
69415SOL    HW210079   3.341   2.795   9.729
69416SOL     OW10080   2.022  14.305   0.340
69416SOL    HW110081   2.045  14.395   0.315
69416SOL    HW210082   1.927  14.305   0.344
69417SOL     OW10083   2.880  13.571  10.536
69417SOL    HW110084   2.856  13.565  10.443
69417SOL    HW210085   2.846  13.657  10.563
69418SOL     OW10086   1.508  13.640   4.640
69418SOL    HW110087   1.586  13.680   4.679
69418SOL    HW210088   1.532  13.625   4.549
69419SOL     OW10089   6.174   9.292   9.337
69419SOL    HW110090   6.170   9.381   9.303
69419SOL    HW210091   6.267   9.270   9.337
69420SOL     OW10092  10.510  12.989   4.020
69420SOL    HW110093  10.578  13.003   4.086
69420SOL    HW210094  10.548  12.927   3.958
69421SOL     OW10095  14.533   6.013  13.216
69421SOL    HW110096  14.481   6.074  13.165
69421SOL    HW210097  14.570   5.953  13.152
69422SOL     OW10098   7.955   2.888   5.857
69422SOL    HW110099   7.885   2.907   5.920
69422SOL    HW210100   7.930   2.938   5.779
69423SOL     OW10101  12.561  10.598   4.688
69423SOL    HW110102  12.656  10.592   4.699
69423SOL    HW210103  12.529  10.509   4.699
69424SOL     OW10104   0.114   4.222   8.715
69424SOL    HW110105   0.142   4.197   8.803
69424SOL    HW210106   0.027   4.183   8.705
69425SOL     OW10107  14.017   0.822   0.960
69425SOL    HW110108  13.991   0.834   0.869
69425SOL    HW210109  14.113   0.819   0.958
69426SOL     OW10110  12.392  13.992  14.686
69426SOL    HW110111  12.407  14.015  14.777
69426SOL    HW210112  12.476  14.008  14.643
69427SOL     OW10113  11.111   0.434  13.591
69427SOL    HW110114  11.124   0.341  13.570
69427SOL    HW210115  11.042   0.462  13.531
69428SOL     OW10116   9.096  10.572   0.134
69428SOL    HW110117   9.146  10.648   0.166
69428SOL    HW210118   9.128  10.499   0.187
69429SOL     OW10119  11.949  10.456  11.149
69429SOL    HW110120  11.906  10.471  11.065
69429SOL    HW210121  12.035  10.497  11.140
69430SOL     OW10122   2.906   7.393   6.139
69430SOL    HW110123   2.889   7.321   6.078
69430SOL    HW210124   2.995   7.379   6.170
69431SOL     OW10125   0.169   1.411   3.541
69431SOL    HW110126   0.151   1.463   3.462
69431SOL    HW210127   0.193   1.475   3.608
69432SOL     OW10128  11.506   2.759  13.751
69432SOL    HW110129  11.553   2.687  13.709
69432SOL    HW210130  11.505   2.736  13.844
69433SOL     OW10131   6.486  10.173   5.564
69433SOL    HW110132   6.504  10.203   5.653
69433SOL    HW210133   6.569  10.136   5.534
69434SOL     OW10134  10.112  11.562   3.610
69434SOL    HW110135  10.159  11.604   3.538
69434SOL    HW210136  10.022  11.554   3.578
69435SOL     OW10137   1.310   1.972   9.158
69435SOL    HW110138   1.251   2.046   9.177
69435SOL    HW210139   1.259   1.915   9.101
69436SOL     OW10140   8.612  14.098   5.741
69436SOL    HW110141   8.565  14.110   5.659
69436SOL    HW210142   8.555  14.039   5.792
69437SOL     OW10143  12.524  12.900   4.514
69437SOL    HW110144  12.496  12.863   4.598
69437SOL    HW210145  12.467  12.975   4.501
69438SOL     OW10146  14.091   4.101  11.310
69438SOL    HW110147  14.155   4.137  11.249
69438SOL    HW210148  14.020   4.165  11.310
69439SOL     OW10149  10.419   8.736   7.144
69439SOL    HW110150  10.495   8.692   7.182
69439SOL    HW210151  10.398   8.684   7.066
69440SOL     OW10152   4.696   7.147  13.946
69440SOL    HW110153   4.686   7.239  13.921
69440SOL    HW210154   4.758   7.148  14.020
69441SOL     OW10155   7.863   2.649   6.580
69441SOL    HW110156   7.802   2.701   6.528
69441SOL    HW210157   7.814   2.572   6.605
69442SOL     OW10158  13.879   4.118   4.891
69442SOL    HW110159  13.919   4.156   4.812
69442SOL    HW210160  13.792   4.159   4.895
69443SOL     OW10161   7.941   2.148  12.809
69443SOL    HW110162   7.894   2.157  12.892
69443SOL    HW210163   7.949   2.237  12.775
69444SOL     OW10164   2.991   8.895   4.359
69444SOL    HW110165   3.069   8.933   4.320
69444SOL    HW210166   2.934   8.969   4.377
69445SOL     OW10167  10.788   8.661  12.401
69445SOL    HW110168  10.858   8.700  12.454
69445SOL    HW210169  10.721   8.635  12.464
69446SOL     OW10170  11.431   0.333   6.983
69446SOL    HW110171  11.422   0.354   6.891
69446SOL    HW210172  11.509   0.277   6.987
69447SOL     OW10173   8.595  14.695   9.755
69447SOL    HW110174   8.570  14.613   9.712
69447SOL    HW210175   8.656  14.668   9.824
69448SOL     OW10176   3.429   3.433   2.170
69448SOL    HW110177   3.412   3.343   2.140
69448SOL    HW210178   3.500   3.424   2.233
69449SOL     OW10179   6.009  13.795   1.596
69449SOL    HW110180   5.932  13.765   1.549
69449SOL    HW210181   6.065  13.717   1.602
69450SOL     OW10182  11.895  12.786   4.183
69450SOL    HW110183  11.897  12.876   4.150
69450SOL    HW210184  11.958  12.785   4.255
69451SOL     OW10185   9.005  11.010   8.673
69451SOL    HW110186   8.987  11.069   8.599
69451SOL    HW210187   8.954  11.048   8.745
69452SOL     OW10188   2.881   5.763  14.609
69452SOL    HW110189   2.868   5.678  14.651
69452SOL    HW210190   2.926   5.743  14.527
69453SOL     OW10191  13.849   7.862   7.187
69453SOL    HW110192  13.761   7.846   7.152
69453SOL    HW210193  13.904   7.797   7.145
69454SOL     OW10194   4.262  13.300   1.224
69454SOL    HW110195   4.280  13.383   1.269
69454SOL    HW210196   4.226  13.325   1.139
69455SOL     OW10197   1.139   4.366   6.213
69455SOL    HW110198   1.058   4.315   6.218
69455SOL    HW210199   1.125   4.427   6.140
69456SOL     OW10200  10.937   3.188  13.480
69456SOL    HW110201  11.000   3.119  13.503
69456SOL    HW210202  10.873   3.144  13.424
69457SOL     OW10203   1.137   9.735  13.380
69457SOL    HW110204   1.188   9.654  13.375
69457SOL    HW210205   1.064   9.713  13.438
69458SOL     OW10206   3.335   7.804   5.048
69458SOL    HW110207   3.306   7.771   4.963
69458SOL    HW210208   3.260   7.854   5.081
69459SOL     OW10209   4.802   6.091   5.692
69459SOL    HW110210   4.739   6.024   5.668
69459SOL    HW210211   4.834   6.063   5.778
69460SOL     OW10212   0.277  10.298  12.397
69460SOL    HW110213   0.236  10.319  12.313
69460SOL    HW210214   0.271  10.203  12.403
69461SOL     OW10215   8.671   5.713   7.524
69461SOL    HW110216   8.726   5.766   7.466
69461SOL    HW210217   8.699   5.737   7.612
69462SOL     OW10218  13.763   9.782   1.831
69462SOL    HW110219  13.776   9.702   1.779
69462SOL    HW210220  13.707   9.837   1.776
69463SOL     OW10221   3.721  12.529   6.006
69463SOL    HW110222   3.742  12.449   5.958
69463SOL    HW210223   3.729  12.504   6.098
69464SOL     OW10224   4.366   6.926   4.466
69464SOL    HW110225   4.320   6.842   4.476
69464SOL    HW210226   4.338   6.957   4.380
69465SOL     OW10227   0.304  12.260   9.478
69465SOL    HW110228   0.393  12.273   9.446
69465SOL    HW210229   0.293  12.165   9.483
69466SOL     OW10230  13.353  13.107   3.681
69466SOL    HW110231  13.353  13.182   3.740
69466SOL    HW210232  13.298  13.042   3.724
69467SOL     OW10233  10.795   7.904  11.136
69467SOL    HW110234  10.782   7.962  11.211
69467SOL    HW210235  10.846   7.831  11.170
69468SOL     OW10236  11.524   0.417   4.910
69468SOL    HW110237  11.525   0.492   4.851
69468SOL    HW210238  11.579   0.352   4.867
69469SOL     OW10239   2.368  11.742   9.611
69469SOL    HW110240   2.328  11.717   9.528
69469SOL    HW210241   2.295  11.765   9.668
69470SOL     OW10242  14.409   6.127  12.546
69470SOL    HW110243  14.320   6.125  12.582
69470SOL    HW210244  14.434   6.035  12.536
69471SOL     OW10245   1.764   9.627  10.526
69471SOL    HW110246   1.839   9.640  10.584
69471SOL    HW210247   1.738   9.716  10.501
69472SOL     OW10248   3.641  11.142   5.754
69472SOL    HW110249   3.729  11.115   5.782
69472SOL    HW210250   3.581  11.095   5.812
69473SOL     OW10251   8.666  12.100   3.546
69473SOL    HW110252   8.739  12.124   3.603
69473SOL    HW210253   8.645  12.010   3.571
69474SOL     OW10254   1.101   5.457  11.738
69474SOL    HW110255   1.152   5.432  11.815
69474SOL    HW210256   1.070   5.374  11.701
69475SOL     OW10257   5.778   9.489  10.235
69475SOL    HW110258   5.846   9.549  10.205
69475SOL    HW210259   5.792   9.410  10.182
69476SOL     OW10260  14.548   9.009   5.606
69476SOL    HW110261  14.636   9.045   5.620
69476SOL    HW210262  14.536   8.946   5.677
69477SOL     OW10263  14.069  13.904   9.309
69477SOL    HW110264  14.125  13.883   9.384
69477SOL    HW210265  14.130  13.921   9.238
69478SOL     OW10266   2.168  13.321  12.181
69478SOL    HW110267   2.122  13.405  12.183
69478SOL    HW210268   2.098  13.256  12.190
69479SOL     OW10269   7.527  12.033   8.691
69479SOL    HW110270   7.548  11.947   8.729
69479SOL    HW210271   7.538  12.094   8.764
69480SOL     OW10272   8.013   6.369   4.171
69480SOL    HW110273   7.993   6.275   4.167
69480SOL    HW210274   7.929   6.410   4.192
69481SOL     OW10275  11.340   6.249  10.155
69481SOL    HW110276  11.365   6.316  10.219
69481SOL    HW210277  11.252   6.223  10.182
69482SOL     OW10278  14.110   2.927   7.539
69482SOL    HW110279  14.108   2.997   7.604
69482SOL    HW210280  14.202   2.909   7.525
69483SOL     OW10281  13.928   4.952   5.902
69483SOL    HW110282  14.003   4.899   5.876
69483SOL    HW210283  13.947   4.976   5.993
69484SOL     OW10284   9.465  12.255  14.662
69484SOL    HW110285   9.450  12.235  14.754
69484SOL    HW210286   9.439  12.176  14.615
69485SOL     OW10287   6.891   5.004  12.776
69485SOL    HW110288   6.908   4.921  12.733
69485SOL    HW210289   6.799   4.999  12.804
69486SOL     OW10290   3.430  11.558  12.956
69486SOL    HW110291   3.476  11.491  12.906
69486SOL    HW210292   3.342  11.523  12.968
69487SOL     OW10293  10.101  13.642   8.734
69487SOL    HW110294  10.019  13.608   8.770
69487SOL    HW210295  10.163  13.640   8.807
69488SOL     OW10296  13.576   7.838   2.750
69488SOL    HW110297  13.669   7.820   2.733
69488SOL    HW210298  13.576   7.922   2.797
69489SOL     OW10299  11.830   2.031   2.471
69489SOL    HW110300  11.847   2.000   2.560
69489SOL    HW210301  11.807   1.952   2.422
69490SOL     OW10302   3.065   1.801  12.263
69490SOL    HW110303   3.058   1.897  12.264
69490SOL    HW210304   2.974   1.771  12.261
69491SOL     OW10305  11.254   5.044   5.877
69491SOL    HW110306  11.263   5.049   5.781
69491SOL    HW210307  11.292   5.125   5.909
69492SOL     OW10308   7.650   2.747   4.451
69492SOL    HW110309   7.682   2.665   4.414
69492SOL    HW210310   7.555   2.744   4.438
69493SOL     OW10311   3.353  13.830   8.210
69493SOL    HW110312   3.299  13.897   8.168
69493SOL    HW210313   3.338  13.751   8.159
69494SOL     OW10314   2.325  11.055   2.212
69494SOL    HW110315   2.416  11.029   2.222
69494SOL    HW210316   2.275  10.988   2.259
69495SOL     OW10317   7.998   4.522   8.567
69495SOL    HW110318   7.987   4.431   8.595
69495SOL    HW210319   8.090   4.529   8.544
69496SOL     OW10320  11.932   0.431  11.828
69496SOL    HW110321  12.018   0.442  11.788
69496SOL    HW210322  11.887   0.368  11.773
69497SOL     OW10323  10.427  13.105   1.945
69497SOL    HW110324  10.456  13.196   1.955
69497SOL    HW210325  10.356  13.096   2.009
69498SOL     OW10326   2.706   3.523  10.750
69498SOL    HW110327   2.617   3.505  10.720
69498SOL    HW210328   2.718   3.617  10.734
69499SOL     OW10329  12.207   5.312   5.159
69499SOL    HW110330  12.210   5.354   5.073
69499SOL    HW210331  12.201   5.385   5.221
69500SOL     OW10332   5.578   0.339   9.737
69500SOL    HW110333   5.522   0.374   9.667
69500SOL    HW210334   5.589   0.413   9.797
69501SOL     OW10335  11.759  13.440   1.463
69501SOL    HW110336  11.777  13.362   1.515
69501SOL    HW210337  11.758  13.409   1.373
69502SOL     OW10338   1.565  12.354   2.755
69502SOL    HW110339   1.612  12.313   2.827
69502SOL    HW210340   1.630  12.364   2.686
69503SOL     OW10341  12.207  11.265   7.448
69503SOL    HW110342  12.206  11.174   7.480
69503SOL    HW210343  12.297  11.293   7.459
69504SOL     OW10344   2.838   9.386  13.530
69504SOL    HW110345   2.767   9.450  13.524
69504SOL    HW210346   2.871   9.395  13.619
69505SOL     OW10347   5.359  13.050  14.148
69505SOL    HW110348   5.397  13.115  14.089
69505SOL    HW210349   5.284  13.015  14.100
69506SOL     OW10350   7.115   8.436   8.745
69506SOL    HW110351   7.150   8.349   8.766
69506SOL    HW210352   7.157   8.495   8.807
69507SOL     OW10353   2.846   4.932   6.948
69507SOL    HW110354   2.782   4.868   6.978
69507SOL    HW210355   2.918   4.880   6.913
69508SOL     OW10356  13.391  10.056   1.836
69508SOL    HW110357  13.417   9.967   1.860
69508SOL    HW210358  13.297  10.051   1.819
69509SOL     OW10359  10.156   1.782   1.306
69509SOL    HW110360  10.136   1.845   1.237
69509SOL    HW210361  10.161   1.698   1.261
69510SOL     OW10362  13.416   1.606  13.464
69510SOL    HW110363  13.501   1.617  13.506
69510SOL    HW210364  13.392   1.515  13.481
69511SOL     OW10365   7.543   2.086   6.801
69511SOL    HW110366   7.568   2.165   6.849
69511SOL    HW210367   7.498   2.033   6.866
69512SOL     OW10368   7.572  12.899   6.695
69512SOL    HW110369   7.493  12.908   6.643
69512SOL    HW210370   7.581  12.805   6.709
69513SOL     OW10371   7.101   0.399   6.981
69513SOL    HW110372   7.123   0.446   6.900
69513SOL    HW210373   7.184   0.391   7.027
69514SOL     OW10374  12.670   1.913   3.544
69514SOL    HW110375  12.594   1.953   3.503
69514SOL    HW210376  12.675   1.955   3.630
69515SOL     OW10377  10.132   2.991   8.885
69515SOL    HW110378  10.080   2.932   8.939
69515SOL    HW210379  10.182   3.043   8.948
69516SOL     OW10380   4.611   7.057   9.626
69516SOL    HW110381   4.545   6.993   9.602
69516SOL    HW210382   4.694   7.018   9.597
69517SOL     OW10383   5.825  14.412   4.750
69517SOL    HW110384   5.790  14.324   4.737
69517SOL    HW210385   5.909  14.397   4.795
69518SOL     OW10386   1.551   0.316   4.821
69518SOL    HW110387   1.491   0.247   4.793
69518SOL    HW210388   1.520   0.341   4.908
69519SOL     OW10389   4.428   6.440  10.636
69519SOL    HW110390   4.373   6.480  10.570
69519SOL    HW210391   4.395   6.474  10.719
69520SOL     OW10392  12.263   0.052  10.213
69520SOL    HW110393  12.330   0.119  10.201
69520SOL    HW210394  12.225   0.071  10.298
69521SOL     OW10395  12.436   6.561  11.216
69521SOL    HW110396  12.342   6.556  11.199
69521SOL    HW210397  12.476   6.506  11.149
69522SOL     OW10398   0.678  12.411   4.272
69522SOL    HW110399   0.622  12.395   4.196
69522SOL    HW210400   0.763  12.434   4.234
69523SOL     OW10401   8.652   9.178   1.816
69523SOL    HW110402   8.694   9.117   1.877
69523SOL    HW210403   8.669   9.141   1.730
69524SOL     OW10404  11.047  10.375   2.326
69524SOL    HW110405  11.124  10.432   2.335
69524SOL    HW210406  11.021  10.356   2.416
69525SOL     OW10407   2.058   2.149   1.746
69525SOL    HW110408   2.025   2.062   1.724
69525SOL    HW210409   2.139   2.133   1.795
69526SOL     OW10410   9.661  14.113  13.204
69526SOL    HW110411   9.755  14.126  13.207
69526SOL    HW210412   9.638  14.080  13.291
69527SOL     OW10413   2.403   1.874   3.304
69527SOL    HW110414   2.480   1.846   3.254
69527SOL    HW210415   2.333   1.879   3.238
69528SOL     OW10416  14.029   2.900   1.398
69528SOL    HW110417  14.114   2.868   1.426
69528SOL    HW210418  14.015   2.859   1.312
69529SOL     OW10419   1.340  13.814  13.112
69529SOL    HW110420   1.266  13.775  13.159
69529SOL    HW210421   1.330  13.908  13.126
69530SOL     OW10422   8.550   2.838   4.773
69530SOL    HW110423   8.494   2.900   4.726
69530SOL    HW210424   8.635   2.883   4.779
69531SOL     OW10425  10.571   2.135  10.196
69531SOL    HW110426  10.542   2.079  10.267
69531SOL    HW210427  10.513   2.114  10.123
69532SOL     OW10428  12.689   4.526  10.504
69532SOL    HW110429  12.656   4.614  10.520
69532SOL    HW210430  12.625   4.469  10.548
69533SOL     OW10431   1.035  10.198   0.605
69533SOL    HW110432   0.995  10.280   0.574
69533SOL    HW210433   1.058  10.215   0.696
69534SOL     OW10434   6.539   0.290   2.833
69534SOL    HW110435   6.518   0.217   2.774
69534SOL    HW210436   6.512   0.259   2.920
69535SOL     OW10437  13.317  11.145   9.590
69535SOL    HW110438  13.259  11.144   9.514
69535SOL    HW210439  13.278  11.209   9.650
69536SOL     OW10440  13.084  12.254   3.615
69536SOL    HW110441  13.029  12.272   3.539
69536SOL    HW210442  13.089  12.338   3.661
69537SOL     OW10443   9.956  11.974  11.970
69537SOL    HW110444   9.977  11.885  11.999
69537SOL    HW210445  10.022  11.993  11.903
69538SOL     OW10446   0.733  14.330   9.710
69538SOL    HW110447   0.735  14.240   9.678
69538SOL    HW210448   0.671  14.328   9.782
69539SOL     OW10449   2.305   7.464   9.251
69539SOL    HW110450   2.339   7.522   9.182
69539SOL    HW210451   2.356   7.487   9.329
69540SOL     OW10452  14.380   3.590   1.610
69540SOL    HW110453  14.427   3.660   1.564
69540SOL    HW210454  14.327   3.548   1.543
69541SOL     OW10455   3.146   2.726   5.039
69541SOL    HW110456   3.089   2.723   5.116
69541SOL    HW210457   3.114   2.801   4.988
69542SOL     OW10458   1.831   0.684   6.909
69542SOL    HW110459   1.895   0.635   6.857
69542SOL    HW210460   1.834   0.643   6.995
69543SOL     OW10461   6.393  12.551   0.790
69543SOL    HW110462   6.369  12.459   0.781
69543SOL    HW210463   6.472  12.551   0.844
69544SOL     OW10464   9.355   5.142  13.704
69544SOL    HW110465   9.386   5.231  13.686
69544SOL    HW210466   9.420   5.107  13.766
69545SOL     OW10467   5.829   2.213  13.182
69545SOL    HW110468   5.904   2.154  13.191
69545SOL    HW210469   5.864   2.299  13.202
69546SOL     OW10470   3.750  11.387  12.520
69546SOL    HW110471   3.728  11.312  12.465
69546SOL    HW210472   3.843  11.377  12.540
69547SOL     OW10473   1.579  12.986  12.687
69547SOL    HW110474   1.517  12.997  12.759
69547SOL    HW210475   1.565  12.896  12.657
69548SOL     OW10476   2.860   4.783  14.000
69548SOL    HW110477   2.876   4.817  13.912
69548SOL    HW210478   2.866   4.688  13.990
69549SOL     OW10479   5.280   8.129   0.397
69549SOL    HW110480   5.254   8.214   0.362
69549SOL    HW210481   5.355   8.102   0.343
69550SOL     OW10482   2.641  10.753   9.609
69550SOL    HW110483   2.702  10.702   9.555
69550SOL    HW210484   2.686  10.765   9.692
69551SOL     OW10485   5.606  13.132   1.635
69551SOL    HW110486   5.622  13.046   1.674
69551SOL    HW210487   5.603  13.192   1.710
69552SOL     OW10488   9.997   4.602   4.356
69552SOL    HW110489   9.941   4.633   4.427
69552SOL    HW210490   9.950   4.527   4.319
69553SOL     OW10491   8.738   5.711   1.738
69553SOL    HW110492   8.695   5.634   1.774
69553SOL    HW210493   8.693   5.727   1.654
69554SOL     OW10494   9.367   4.124   2.924
69554SOL    HW110495   9.340   4.043   2.882
69554SOL    HW210496   9.462   4.128   2.912
69555SOL     OW10497  12.367   1.498  13.950
69555SOL    HW110498  12.351   1.507  13.856
69555SOL    HW210499  12.280   1.481  13.987
69556SOL     OW10500   1.124   3.440  12.274
69556SOL    HW110501   1.191   3.503  12.303
69556SOL    HW210502   1.172   3.378  12.220
69557SOL     OW10503   3.342   4.775   5.514
69557SOL    HW110504   3.402   4.849   5.522
69557SOL    HW210505   3.398   4.702   5.485
69558SOL     OW10506   2.795  11.595  14.349
69558SOL    HW110507   2.778  11.501  14.355
69558SOL    HW210508   2.709  11.636  14.358
69559SOL     OW10509   4.630   4.686   3.183
69559SOL    HW110510   4.539   4.716   3.179
69559SOL    HW210511   4.674   4.732   3.112
69560SOL     OW10512   0.167   2.313  14.853
69560SOL    HW110513   0.098   2.252  14.830
69560SOL    HW210514   0.142   2.349   0.059
69561SOL     OW10515  10.232  10.177   3.445
69561SOL    HW110516  10.223  10.272   3.449
69561SOL    HW210517  10.301  10.156   3.508
69562SOL     OW10518   4.585  14.651   1.354
69562SOL    HW110519   4.494  14.681   1.351
69562SOL    HW210520   4.586  14.587   1.426
69563SOL     OW10521  10.521  11.089   9.866
69563SOL    HW110522  10.429  11.100   9.889
69563SOL    HW210523  10.558  11.038   9.938
69564SOL     OW10524   6.482   4.828  13.640
69564SOL    HW110525   6.536   4.834  13.718
69564SOL    HW210526   6.518   4.753  13.592
69565SOL     OW10527   7.762   0.056   0.823
69565SOL    HW110528   7.693   0.012   0.872
69565SOL    HW210529   7.811   0.106   0.890
69566SOL     OW10530  13.794   5.459   3.087
69566SOL    HW110531  13.827   5.547   3.067
69566SOL    HW210532  13.782   5.418   3.001
69567SOL     OW10533  14.785   6.105   7.443
69567SOL    HW110534  14.776   6.010   7.430
69567SOL    HW210535  14.869   6.114   7.488
69568SOL     OW10536  14.455   6.440   8.524
69568SOL    HW110537  14.394   6.501   8.483
69568SOL    HW210538  14.542   6.478   8.509
69569SOL     OW10539   2.442   6.920  13.527
69569SOL    HW110540   2.431   6.825  13.535
69569SOL    HW210541   2.490   6.932  13.445
69570SOL     OW10542   7.831  12.011  10.387
69570SOL    HW110543   7.897  11.941  10.394
69570SOL    HW210544   7.817  12.040  10.477
69571SOL     OW10545  12.586  11.213  12.878
69571SOL    HW110546  12.653  11.202  12.811
69571SOL    HW210547  12.505  11.181  12.838
69572SOL     OW10548   7.294   2.254   7.314
69572SOL    HW110549   7.231   2.201   7.363
69572SOL    HW210550   7.371   2.258   7.371
69573SOL     OW10551  14.508   8.438  14.398
69573SOL    HW110552  14.579   8.416  14.459
69573SOL    HW210553  14.442   8.370  14.413
69574SOL     OW10554   7.629   0.369   1.389
69574SOL    HW110555   7.540   0.362   1.357
69574SOL    HW210556   7.621   0.366   1.485
69575SOL     OW10557   5.602   7.054  14.140
69575SOL    HW110558   5.549   6.976  14.154
69575SOL    HW210559   5.538   7.125  14.133
69576SOL     OW10560   5.132   1.674   8.580
69576SOL    HW110561   5.102   1.753   8.625
69576SOL    HW210562   5.137   1.607   8.648
69577SOL     OW10563  13.846   9.299   3.668
69577SOL    HW110564  13.760   9.323   3.635
69577SOL    HW210565  13.882   9.241   3.601
69578SOL     OW10566   5.658  10.190   9.553
69578SOL    HW110567   5.721  10.127   9.589
69578SOL    HW210568   5.693  10.213   9.467
69579SOL     OW10569   1.156   7.066   2.305
69579SOL    HW110570   1.244   7.093   2.329
69579SOL    HW210571   1.108   7.149   2.293
69580SOL     OW10572  14.109  11.285  13.693
69580SOL    HW110573  14.158  11.335  13.628
69580SOL    HW210574  14.149  11.309  13.776
69581SOL     OW10575   7.951   8.160  14.523
69581SOL    HW110576   7.865   8.137  14.488
69581SOL    HW210577   7.994   8.076  14.537
69582SOL     OW10578   3.153  11.481   0.880
69582SOL    HW110579   3.197  11.535   0.814
69582SOL    HW210580   3.203  11.496   0.961
69583SOL     OW10581   1.645  13.652  11.038
69583SOL    HW110582   1.633  13.591  11.110
69583SOL    HW210583   1.739  13.658  11.027
69584SOL     OW10584  13.288  14.656   4.641
69584SOL    HW110585  13.255  14.703   4.718
69584SOL    HW210586  13.353  14.596   4.676
69585SOL     OW10587  12.255   1.164  13.329
69585SOL    HW110588  12.219   1.076  13.342
69585SOL    HW210589  12.281   1.166  13.237
69586SOL     OW10590   5.416   6.252  13.888
69586SOL    HW110591   5.502   6.289  13.864
69586SOL    HW210592   5.434   6.159  13.902
69587SOL     OW10593  12.415   1.908   2.947
69587SOL    HW110594  12.420   1.828   3.000
69587SOL    HW210595  12.475   1.893   2.874
69588SOL     OW10596  11.594   7.750  12.790
69588SOL    HW110597  11.500   7.769  12.801
69588SOL    HW210598  11.604   7.739  12.695
69589SOL     OW10599   5.981   2.810   9.570
69589SOL    HW110600   6.002   2.733   9.622
69589SOL    HW210601   5.966   2.776   9.482
69590SOL     OW10602   5.774  13.759   7.657
69590SOL    HW110603   5.708  13.824   7.680
69590SOL    HW210604   5.823  13.800   7.585
69591SOL     OW10605   1.956   8.648   9.786
69591SOL    HW110606   1.974   8.724   9.841
69591SOL    HW210607   1.942   8.684   9.698
69592SOL     OW10608   2.793   9.735   4.347
69592SOL    HW110609   2.765   9.643   4.339
69592SOL    HW210610   2.787   9.769   4.258
69593SOL     OW10611  10.417   1.131   1.290
69593SOL    HW110612  10.443   1.087   1.209
69593SOL    HW210613  10.321   1.137   1.284
69594SOL     OW10614   1.942  12.337   3.564
69594SOL    HW110615   1.995  12.370   3.636
69594SOL    HW210616   2.006  12.307   3.499
69595SOL     OW10617  10.548   2.017   7.415
69595SOL    HW110618  10.512   1.928   7.407
69595SOL    HW210619  10.517   2.048   7.500
69596SOL     OW10620   0.182   2.653  12.130
69596SOL    HW110621   0.221   2.568  12.110
69596SOL    HW210622   0.107   2.660  12.070
69597SOL     OW10623  10.020   6.054  12.204
69597SOL    HW110624  10.095   6.113  12.198
69597SOL    HW210625  10.059   5.969  12.224
69598SOL     OW10626   4.072   7.671   9.009
69598SOL    HW110627   4.124   7.725   8.950
69598SOL    HW210628   4.110   7.583   9.001
69599SOL     OW10629   5.023   4.485   7.444
69599SOL    HW110630   5.118   4.473   7.441
69599SOL    HW210631   5.012   4.578   7.464
69600SOL     OW10632   8.797  12.115   0.499
69600SOL    HW110633   8.846  12.120   0.417
69600SOL    HW210634   8.865  12.116   0.567
69601SOL     OW10635   6.468   1.388  14.780
69601SOL    HW110636   6.482   1.465  14.835
69601SOL    HW210637   6.451   1.317  14.841
69602SOL     OW10638   2.319   9.142   4.990
69602SOL    HW110639   2.225   9.152   5.003
69602SOL    HW210640   2.327   9.071   4.927
69603SOL     OW10641   6.860   8.495  12.421
69603SOL    HW110642   6.828   8.413  12.458
69603SOL    HW210643   6.817   8.563  12.474
69604SOL     OW10644   8.762  10.677   4.250
69604SOL    HW110645   8.758  10.589   4.215
69604SOL    HW210646   8.729  10.733   4.180
69605SOL     OW10647   3.610  10.738  13.286
69605SOL    HW110648   3.546  10.673  13.312
69605SOL    HW210649   3.679  10.689  13.242
69606SOL     OW10650   2.052   9.279  13.367
69606SOL    HW110651   2.112   9.214  13.403
69606SOL    HW210652   2.019   9.240  13.286
69607SOL     OW10653   3.063   4.126  13.477
69607SOL    HW110654   3.096   4.042  13.445
69607SOL    HW210655   3.135   4.161  13.529
69608SOL     OW10656   7.902   0.417  12.184
69608SOL    HW110657   7.963   0.462  12.242
69608SOL    HW210658   7.845   0.486  12.149
69609SOL     OW10659   9.384   5.036   7.290
69609SOL    HW110660   9.478   5.019   7.297
69609SOL    HW210661   9.376   5.131   7.302
69610SOL     OW10662  13.741   1.351   2.698
69610SOL    HW110663  13.786   1.280   2.745
69610SOL    HW210664  13.749   1.427   2.757
69611SOL     OW10665   6.474   9.182   8.707
69611SOL    HW110666   6.490   9.104   8.653
69611SOL    HW210667   6.411   9.234   8.656
69612SOL     OW10668   7.172  14.658   9.955
69612SOL    HW110669   7.096  14.639   9.901
69612SOL    HW210670   7.245  14.619   9.907
69613SOL     OW10671   5.708   2.013   6.546
69613SOL    HW110672   5.667   1.940   6.500
69613SOL    HW210673   5.703   2.086   6.484
69614SOL     OW10674   7.344   1.775   2.856
69614SOL    HW110675   7.382   1.689   2.876
69614SOL    HW210676   7.256   1.771   2.894
69615SOL     OW10677  12.279   0.674  11.579
69615SOL    HW110678  12.206   0.657  11.519
69615SOL    HW210679  12.355   0.683  11.522
69616SOL     OW10680   7.352  13.260   2.662
69616SOL    HW110681   7.394  13.238   2.578
69616SOL    HW210682   7.425  13.284   2.719
69617SOL     OW10683   7.207  14.735  13.745
69617SOL    HW110684   7.131  14.719  13.689
69617SOL    HW210685   7.224  14.651  13.788
69618SOL     OW10686   2.915   3.941  13.057
69618SOL    HW110687   2.848   3.992  13.102
69618SOL    HW210688   2.963   4.005  13.006
69619SOL     OW10689   2.304   4.582   0.110
69619SOL    HW110690   2.224   4.529   0.104
69619SOL    HW210691   2.370   4.532   0.063
69620SOL     OW10692  13.032   0.775   1.057
69620SOL    HW110693  13.124   0.781   1.031
69620SOL    HW210694  13.010   0.683   1.044
69621SOL     OW10695   4.789   1.892  11.650
69621SOL    HW110696   4.795   1.921  11.741
69621SOL    HW210697   4.849   1.818  11.645
69622SOL     OW10698  13.822   4.166   8.087
69622SOL    HW110699  13.737   4.156   8.046
69622SOL    HW210700  13.854   4.077   8.098
69623SOL     OW10701   6.372   0.523  12.875
69623SOL    HW110702   6.281   0.547  12.855
69623SOL    HW210703   6.425   0.582  12.822
69624SOL     OW10704   9.313   0.986   0.743
69624SOL    HW110705   9.327   0.900   0.702
69624SOL    HW210706   9.344   1.049   0.679
69625SOL     OW10707   4.556  14.845   7.204
69625SOL    HW110708   4.476   0.009   7.175
69625SOL    HW210709   4.605  14.829   7.123
69626SOL     OW10710  14.563   3.970   7.491
69626SOL    HW110711  14.648   3.996   7.527
69626SOL    HW210712  14.539   3.893   7.542
69627SOL     OW10713   3.329   1.635  12.789
69627SOL    HW110714   3.328   1.633  12.694
69627SOL    HW210715   3.422   1.635  12.813
69628SOL     OW10716   5.783   3.958  10.053
69628SOL    HW110717   5.704   3.923  10.093
69628SOL    HW210718   5.752   4.030   9.998
69629SOL     OW10719   9.993  12.503  10.969
69629SOL    HW110720   9.937  12.546  10.904
69629SOL    HW210721  10.082  12.517  10.937
69630SOL     OW10722   1.034   5.095   6.942
69630SOL    HW110723   1.065   5.185   6.951
69630SOL    HW210724   1.095   5.055   6.880
69631SOL     OW10725   7.293   9.022  11.309
69631SOL    HW110726   7.249   8.970  11.376
69631SOL    HW210727   7.224   9.042  11.245
69632SOL     OW10728   3.201  13.612  13.339
69632SOL    HW110729   3.285  13.606  13.294
69632SOL    HW210730   3.218  13.578  13.427
69633SOL     OW10731  12.739   6.668  11.523
69633SOL    HW110732  12.760   6.761  11.522
69633SOL    HW210733  12.644   6.665  11.514
69634SOL     OW10734  12.119  11.721   6.361
69634SOL    HW110735  12.208  11.734   6.392
69634SOL    HW210736  12.066  11.722   6.441
69635SOL     OW10737  14.376   5.706   0.097
69635SOL    HW110738  14.402   5.765   0.026
69635SOL    HW210739  14.318   5.759   0.152
69636SOL     OW10740   3.888   9.391   0.793
69636SOL    HW110741   3.929   9.477   0.788
69636SOL    HW210742   3.950   9.332   0.751
69637SOL     OW10743   8.751  10.269  13.425
69637SOL    HW110744   8.675  10.211  13.420
69637SOL    HW210745   8.820  10.223  13.376
69638SOL     OW10746   1.716   4.196   3.935
69638SOL    HW110747   1.623   4.180   3.953
69638SOL    HW210748   1.732   4.284   3.969
69639SOL     OW10749  14.322   4.875   0.280
69639SOL    HW110750  14.228   4.863   0.267
69639SOL    HW210751  14.343   4.823   0.357
69640SOL     OW10752   1.825   6.924   2.462
69640SOL    HW110753   1.814   7.016   2.486
69640SOL    HW210754   1.749   6.880   2.500
69641SOL     OW10755  11.719   1.740   7.458
69641SOL    HW110756  11.680   1.786   7.533
69641SOL    HW210757  11.746   1.810   7.399
69642SOL     OW10758   8.856  12.124  12.911
69642SOL    HW110759   8.854  12.198  12.850
69642SOL    HW210760   8.793  12.061  12.875
69643SOL     OW10761  13.168   6.442   4.259
69643SOL    HW110762  13.222   6.518   4.239
69643SOL    HW210763  13.091   6.479   4.303
69644SOL     OW10764   5.985  10.154  10.464
69644SOL    HW110765   6.052  10.212  10.426
69644SOL    HW210766   5.918  10.148  10.396
69645SOL     OW10767   0.398   6.261   1.767
69645SOL    HW110768   0.338   6.267   1.693
69645SOL    HW210769   0.346   6.291   1.842
69646SOL     OW10770   5.299   9.888  13.684
69646SOL    HW110771   5.373   9.855  13.634
69646SOL    HW210772   5.291   9.980  13.657
69647SOL     OW10773   1.824   9.994   6.215
69647SOL    HW110774   1.733   9.966   6.221
69647SOL    HW210775   1.871   9.917   6.183
69648SOL     OW10776  10.019  11.359  11.379
69648SOL    HW110777   9.984  11.273  11.402
69648SOL    HW210778   9.971  11.420  11.436
69649SOL     OW10779   9.425   1.508   9.056
69649SOL    HW110780   9.420   1.413   9.059
69649SOL    HW210781   9.349   1.534   9.003
69650SOL     OW10782   2.429  12.888  13.875
69650SOL    HW110783   2.488  12.828  13.829
69650SOL    HW210784   2.431  12.968  13.823
69651SOL     OW10785   9.505   9.796   6.584
69651SOL    HW110786   9.454   9.862   6.630
69651SOL    HW210787   9.548   9.745   6.653
69652SOL     OW10788   1.197   2.832  11.720
69652SOL    HW110789   1.280   2.869  11.689
69652SOL    HW210790   1.131   2.896  11.693
69653SOL     OW10791   7.420   0.317  13.304
69653SOL    HW110792   7.370   0.282  13.231
69653SOL    HW210793   7.393   0.265  13.380
69654SOL     OW10794   7.844   2.804   3.238
69654SOL    HW110795   7.819   2.781   3.149
69654SOL    HW210796   7.769   2.778   3.292
69655SOL     OW10797  10.620   0.568  10.657
69655SOL    HW110798  10.647   0.481  10.627
69655SOL    HW210799  10.670   0.582  10.737
69656SOL     OW10800  10.648   8.284  10.093
69656SOL    HW110801  10.573   8.315  10.043
69656SOL    HW210802  10.721   8.338  10.061
69657SOL     OW10803   3.642  10.621   5.985
69657SOL    HW110804   3.574  10.637   5.919
69657SOL    HW210805   3.594  10.601   6.065
69658SOL     OW10806   1.015   3.970  11.556
69658SOL    HW110807   1.087   3.915  11.525
69658SOL    HW210808   0.981   4.011  11.476
69659SOL     OW10809  10.390   3.858  10.642
69659SOL    HW110810  10.451   3.822  10.706
69659SOL    HW210811  10.439   3.928  10.598
69660SOL     OW10812   5.597   6.187   9.348
69660SOL    HW110813   5.610   6.199   9.254
69660SOL    HW210814   5.623   6.096   9.364
69661SOL     OW10815   4.002   3.616  10.843
69661SOL    HW110816   4.088   3.617  10.801
69661SOL    HW210817   4.011   3.557  10.917
69662SOL     OW10818   8.973   9.396   4.360
69662SOL    HW110819   8.936   9.450   4.430
69662SOL    HW210820   9.014   9.458   4.301
69663SOL     OW10821  10.098   2.945  10.972
69663SOL    HW110822  10.102   2.984  11.060
69663SOL    HW210823  10.110   2.851  10.988
69664SOL     OW10824   3.731   0.673  13.204
69664SOL    HW110825   3.719   0.696  13.112
69664SOL    HW210826   3.645   0.687  13.244
69665SOL     OW10827   5.629  13.383   8.894
69665SOL    HW110828   5.660  13.453   8.952
69665SOL    HW210829   5.677  13.397   8.812
69666SOL     OW10830   0.483  11.929   0.695
69666SOL    HW110831   0.463  11.843   0.731
69666SOL    HW210832   0.527  11.975   0.767
69667SOL     OW10833   9.713  13.978  13.974
69667SOL    HW110834   9.716  14.073  13.967
69667SOL    HW210835   9.772  13.947  13.906
69668SOL     OW10836   3.654  12.789  14.656
69668SOL    HW110837   3.702  12.706  14.651
69668SOL    HW210838   3.647  12.818  14.565
69669SOL     OW10839   3.005   7.577   0.781
69669SOL    HW110840   2.978   7.667   0.798
69669SOL    HW210841   3.069   7.584   0.710
69670SOL     OW10842  12.733  10.030  10.237
69670SOL    HW110843  12.654   9.994  10.197
69670SOL    HW210844  12.701  10.086  10.307
69671SOL     OW10845   8.442   5.328   3.236
69671SOL    HW110846   8.473   5.253   3.185
69671SOL    HW210847   8.490   5.402   3.200
69672SOL     OW10848   7.552   4.699   4.340
69672SOL    HW110849   7.489   4.680   4.270
69672SOL    HW210850   7.601   4.617   4.351
69673SOL     OW10851   8.297   0.749   4.222
69673SOL    HW110852   8.314   0.805   4.146
69673SOL    HW210853   8.206   0.769   4.245
69674SOL     OW10854   7.807   0.619   1.928
69674SOL    HW110855   7.821   0.704   1.888
69674SOL    HW210856   7.742   0.634   1.997
69675SOL     OW10857   5.077   7.784   4.617
69675SOL    HW110858   5.089   7.876   4.594
69675SOL    HW210859   5.165   7.747   4.618
69676SOL     OW10860  10.229   8.883   6.275
69676SOL    HW110861  10.224   8.883   6.371
69676SOL    HW210862  10.196   8.969   6.249
69677SOL     OW10863   1.526  14.460   5.557
69677SOL    HW110864   1.533  14.368   5.530
69677SOL    HW210865   1.503  14.456   5.650
69678SOL     OW10866  12.988   4.249  10.636
69678SOL    HW110867  12.977   4.181  10.703
69678SOL    HW210868  12.984   4.331  10.685
69679SOL     OW10869  10.217   7.859   6.475
69679SOL    HW110870  10.295   7.863   6.530
69679SOL    HW210871  10.210   7.947   6.437
69680SOL     OW10872   6.866  14.007   7.131
69680SOL    HW110873   6.855  13.913   7.122
69680SOL    HW210874   6.925  14.031   7.059
69681SOL     OW10875  11.826  11.385   0.666
69681SOL    HW110876  11.848  11.341   0.748
69681SOL    HW210877  11.759  11.449   0.689
69682SOL     OW10878   0.103   1.530   5.547
69682SOL    HW110879   0.102   1.435   5.534
69682SOL    HW210880   0.165   1.543   5.619
69683SOL     OW10881   5.793  12.563  14.454
69683SOL    HW110882   5.776  12.603  14.539
69683SOL    HW210883   5.766  12.472  14.465
69684SOL     OW10884   5.285   7.411   3.604
69684SOL    HW110885   5.326   7.497   3.607
69684SOL    HW210886   5.290   7.386   3.511
69685SOL     OW10887   9.749  11.371   2.944
69685SOL    HW110888   9.691  11.304   2.981
69685SOL    HW210889   9.696  11.413   2.876
69686SOL     OW10890   7.124   5.555   2.979
69686SOL    HW110891   7.172   5.631   3.010
69686SOL    HW210892   7.187   5.483   2.981
69687SOL     OW10893   8.310   6.417  12.630
69687SOL    HW110894   8.379   6.479  12.653
69687SOL    HW210895   8.272   6.391  12.714
69688SOL     OW10896  10.095   2.052  13.510
69688SOL    HW110897  10.143   1.971  13.493
69688SOL    HW210898  10.164   2.116  13.528
69689SOL     OW10899   4.502   7.137   0.229
69689SOL    HW110900   4.453   7.075   0.175
69689SOL    HW210901   4.576   7.163   0.174
69690SOL     OW10902   2.510   7.436   3.757
69690SOL    HW110903   2.494   7.343   3.771
69690SOL    HW210904   2.437   7.480   3.801
69691SOL     OW10905  13.122   1.381  11.648
69691SOL    HW110906  13.176   1.301  11.649
69691SOL    HW210907  13.043   1.357  11.696
69692SOL     OW10908  13.340   1.784   9.895
69692SOL    HW110909  13.258   1.736   9.886
69692SOL    HW210910  13.345   1.838   9.815
69693SOL     OW10911   4.419  12.451  10.046
69693SOL    HW110912   4.460  12.369  10.072
69693SOL    HW210913   4.434  12.510  10.120
69694SOL     OW10914   7.416   9.311  11.786
69694SOL    HW110915   7.500   9.283  11.750
69694SOL    HW210916   7.366   9.230  11.794
69695SOL     OW10917  11.723  11.951  14.154
69695SOL    HW110918  11.666  11.992  14.089
69695SOL    HW210919  11.811  11.957  14.116
69696SOL     OW10920  11.345   5.734   5.159
69696SOL    HW110921  11.327   5.770   5.072
69696SOL    HW210922  11.270   5.761   5.212
69697SOL     OW10923   8.408   1.140   6.543
69697SOL    HW110924   8.392   1.046   6.553
69697SOL    HW210925   8.329   1.173   6.498
69698SOL     OW10926   2.498   0.046   9.329
69698SOL    HW110927   2.578   0.060   9.379
69698SOL    HW210928   2.526  14.874   9.252
69699SOL     OW10929  11.652   1.189  10.316
69699SOL    HW110930  11.608   1.195  10.231
69699SOL    HW210931  11.595   1.238  10.376
69700SOL     OW10932   2.551  10.664  12.164
69700SOL    HW110933   2.519  10.575  12.180
69700SOL    HW210934   2.507  10.691  12.083
69701SOL     OW10935   3.353   7.446   0.143
69701SOL    HW110936   3.448   7.453   0.135
69701SOL    HW210937   3.338   7.412   0.231
69702SOL     OW10938   3.024   1.287  13.433
69702SOL    HW110939   3.059   1.266  13.520
69702SOL    HW210940   2.929   1.290  13.446
69703SOL     OW10941  11.541  14.714   3.621
69703SOL    HW110942  11.512  14.768   3.547
69703SOL    HW210943  11.543  14.625   3.587
69704SOL     OW10944  14.036  13.444   0.146
69704SOL    HW110945  13.983  13.427   0.224
69704SOL    HW210946  13.981  13.413   0.073
69705SOL     OW10947   0.502  14.318   0.642
69705SOL    HW110948   0.419  14.351   0.607
69705SOL    HW210949   0.569  14.351   0.583
69706SOL     OW10950   7.142   5.659  11.948
69706SOL    HW110951   7.177   5.590  12.004
69706SOL    HW210952   7.093   5.612  11.880
69707SOL     OW10953   0.548   3.734  11.085
69707SOL    HW110954   0.533   3.815  11.134
69707SOL    HW210955   0.637   3.741  11.052
69708SOL     OW10956   1.116   7.283   0.446
69708SOL    HW110957   1.140   7.261   0.536
69708SOL    HW210958   1.141   7.374   0.435
69709SOL     OW10959   6.065  14.644   7.852
69709SOL    HW110960   6.056  14.723   7.906
69709SOL    HW210961   6.143  14.601   7.886
69710SOL     OW10962  11.379   2.971   2.257
69710SOL    HW110963  11.395   2.902   2.193
69710SOL    HW210964  11.423   2.940   2.336
69711SOL     OW10965   9.116   0.079   9.352
69711SOL    HW110966   9.126   0.171   9.378
69711SOL    HW210967   9.092   0.034   9.432
69712SOL     OW10968  14.242   1.065   6.719
69712SOL    HW110969  14.278   1.128   6.780
69712SOL    HW210970  14.311   1.052   6.654
69713SOL     OW10971   4.540   9.681   6.060
69713SOL    HW110972   4.510   9.664   5.970
69713SOL    HW210973   4.596   9.758   6.053
69714SOL     OW10974   3.218   5.108   1.946
69714SOL    HW110975   3.250   5.061   1.869
69714SOL    HW210976   3.134   5.144   1.918
69715SOL     OW10977  12.759  10.241   4.454
69715SOL    HW110978  12.783  10.301   4.524
69715SOL    HW210979  12.829  10.176   4.452
69716SOL     OW10980   7.206  11.977   1.943
69716SOL    HW110981   7.165  11.908   1.890
69716SOL    HW210982   7.142  11.996   2.011
69717SOL     OW10983  10.129  10.496   8.388
69717SOL    HW110984  10.072  10.459   8.321
69717SOL    HW210985  10.218  10.481   8.354
69718SOL     OW10986   5.523  10.324   7.482
69718SOL    HW110987   5.460  10.341   7.412
69718SOL    HW210988   5.584  10.398   7.477
69719SOL     OW10989   8.561   6.985   9.893
69719SOL    HW110990   8.651   6.963   9.871
69719SOL    HW210991   8.514   6.902   9.892
69720SOL     OW10992   6.865   2.441  10.413
69720SOL    HW110993   6.878   2.501  10.487
69720SOL    HW210994   6.801   2.486  10.358
69721SOL     OW10995   2.422  10.145  12.752
69721SOL    HW110996   2.391  10.149  12.661
69721SOL    HW210997   2.489  10.078  12.752
69722SOL     OW10998   1.840   0.263   0.552
69722SOL    HW110999   1.861   0.240   0.642
69722SOL    HW211000   1.902   0.333   0.530
69723SOL     OW11001  10.568  12.763   4.467
69723SOL    HW111002  10.494  12.781   4.409
69723SOL    HW211003  10.596  12.674   4.442
69724SOL     OW11004   9.746  14.069   7.155
69724SOL    HW111005   9.714  14.111   7.075
69724SOL    HW211006   9.700  13.985   7.158
69725SOL     OW11007  12.007   3.226  10.379
69725SOL    HW111008  12.012   3.221  10.283
69725SOL    HW211009  12.034   3.316  10.399
69726SOL     OW11010   3.443   8.239  11.783
69726SOL    HW111011   3.484   8.166  11.829
69726SOL    HW211012   3.511   8.306  11.778
69727SOL     OW11013   3.042  11.459   5.016
69727SOL    HW111014   2.994  11.509   5.082
69727SOL    HW211015   2.981  11.450   4.943
69728SOL     OW11016  10.535   1.594  11.332
69728SOL    HW111017  10.466   1.530  11.316
69728SOL    HW211018  10.615   1.551  11.301
69729SOL     OW11019  12.408  12.612   3.123
69729SOL    HW111020  12.393  12.674   3.052
69729SOL    HW211021  12.490  12.568   3.099
69730SOL     OW11022  14.460  10.815  14.110
69730SOL    HW111023  14.367  10.796  14.125
69730SOL    HW211024  14.493  10.839  14.197
69731SOL     OW11025  12.950  13.425   5.318
69731SOL    HW111026  12.959  13.421   5.413
69731SOL    HW211027  12.866  13.467   5.303
69732SOL     OW11028  11.909   4.352  10.044
69732SOL    HW111029  11.970   4.299  10.095
69732SOL    HW211030  11.898   4.432  10.095
69733SOL     OW11031  11.841  13.552  12.683
69733SOL    HW111032  11.838  13.459  12.659
69733SOL    HW211033  11.879  13.595  12.606
69734SOL     OW11034   5.935   0.253   1.649
69734SOL    HW111035   5.857   0.305   1.632
69734SOL    HW211036   6.008   0.313   1.632
69735SOL     OW11037   3.490   9.834   4.769
69735SOL    HW111038   3.491   9.873   4.857
69735SOL    HW211039   3.580   9.804   4.755
69736SOL     OW11040   9.285  13.924   8.718
69736SOL    HW111041   9.347  13.919   8.646
69736SOL    HW211042   9.207  13.879   8.686
69737SOL     OW11043   7.382   3.767   4.892
69737SOL    HW111044   7.449   3.828   4.923
69737SOL    HW211045   7.397   3.763   4.798
69738SOL     OW11046  10.674  11.407   0.734
69738SOL    HW111047  10.752  11.358   0.760
69738SOL    HW211048  10.661  11.470   0.805
69739SOL     OW11049  13.518  12.457   1.997
69739SOL    HW111050  13.524  12.412   2.082
69739SOL    HW211051  13.560  12.542   2.013
69740SOL     OW11052   6.637  13.757   0.155
69740SOL    HW111053   6.694  13.740   0.230
69740SOL    HW211054   6.661  13.845   0.126
69741SOL     OW11055  13.564   1.727   2.284
69741SOL    HW111056  13.545   1.661   2.351
69741SOL    HW211057  13.583   1.676   2.205
69742SOL     OW11058   2.676   2.460   8.835
69742SOL    HW111059   2.647   2.370   8.822
69742SOL    HW211060   2.596   2.510   8.851
69743SOL     OW11061   3.073   7.559   8.192
69743SOL    HW111062   3.020   7.487   8.158
69743SOL    HW211063   3.031   7.582   8.275
69744SOL     OW11064   5.030  13.599  12.803
69744SOL    HW111065   5.056  13.623  12.714
69744SOL    HW211066   4.939  13.570  12.794
69745SOL     OW11067   4.188  13.295   8.056
69745SOL    HW111068   4.161  13.255   7.973
69745SOL    HW211069   4.280  13.270   8.065
69746SOL     OW11070  12.262   4.782   3.200
69746SOL    HW111071  12.184   4.836   3.214
69746SOL    HW211072  12.334   4.833   3.238
69747SOL     OW11073   3.648   1.877  14.058
69747SOL    HW111074   3.635   1.917  13.973
69747SOL    HW211075   3.614   1.787  14.048
69748SOL     OW11076   9.246   5.797  13.535
69748SOL    HW111077   9.285   5.802  13.448
69748SOL    HW211078   9.195   5.716  13.535
69749SOL     OW11079   8.740   2.012  12.497
69749SOL    HW111080   8.673   2.047  12.438
69749SOL    HW211081   8.800   1.964  12.440
69750SOL     OW11082   1.401   7.436   8.239
69750SOL    HW111083   1.453   7.395   8.308
69750SOL    HW211084   1.372   7.362   8.185
69751SOL     OW11085   4.936   8.307   7.867
69751SOL    HW111086   5.017   8.336   7.908
69751SOL    HW211087   4.918   8.222   7.907
69752SOL     OW11088   4.543  13.905   1.284
69752SOL    HW111089   4.615  13.920   1.346
69752SOL    HW211090   4.587  13.893   1.200
69753SOL     OW11091  13.860   1.290  10.595
69753SOL    HW111092  13.803   1.247  10.658
69753SOL    HW211093  13.853   1.236  10.516
69754SOL     OW11094   0.828   9.707  10.772
69754SOL    HW111095   0.766   9.780  10.765
69754SOL    HW211096   0.912   9.744  10.746
69755SOL     OW11097  13.643  13.272   7.080
69755SOL    HW111098  13.657  13.191   7.128
69755SOL    HW211099  13.655  13.341   7.146
69756SOL     OW11100   0.830   0.853   1.176
69756SOL    HW111101   0.907   0.874   1.228
69756SOL    HW211102   0.865   0.821   1.093
69757SOL     OW11103  11.084   0.148  11.906
69757SOL    HW111104  11.118   0.077  11.961
69757SOL    HW211105  11.051   0.213  11.969
69758SOL     OW11106   1.811  11.644   8.630
69758SOL    HW111107   1.733  11.621   8.580
69758SOL    HW211108   1.825  11.569   8.688
69759SOL     OW11109   6.141   7.585   3.741
69759SOL    HW111110   6.122   7.676   3.719
69759SOL    HW211111   6.094   7.571   3.824
69760SOL     OW11112  12.846  11.264  14.268
69760SOL    HW111113  12.928  11.313  14.259
69760SOL    HW211114  12.813  11.258  14.178
69761SOL     OW11115   8.208  10.136  12.943
69761SOL    HW111116   8.229  10.043  12.943
69761SOL    HW211117   8.197  10.158  13.036
69762SOL     OW11118  12.183   9.596   8.242
69762SOL    HW111119  12.157   9.656   8.171
69762SOL    HW211120  12.139   9.631   8.320
69763SOL     OW11121  12.912  12.994   3.468
69763SOL    HW111122  12.835  13.041   3.437
69763SOL    HW211123  12.881  12.905   3.484
69764SOL     OW11124   9.841   2.848   9.825
69764SOL    HW111125   9.914   2.797   9.790
69764SOL    HW211126   9.797   2.882   9.747
69765SOL     OW11127   6.405   4.944  12.025
69765SOL    HW111128   6.356   4.973  11.948
69765SOL    HW211129   6.390   4.849  12.028
69766SOL     OW11130   9.065   6.803   3.885
69766SOL    HW111131   9.035   6.889   3.913
69766SOL    HW211132   9.111   6.767   3.961
69767SOL     OW11133   3.490   3.260  13.392
69767SOL    HW111134   3.529   3.174  13.372
69767SOL    HW211135   3.397   3.241  13.406
69768SOL     OW11136  11.205  14.629   2.764
69768SOL    HW111137  11.193  14.716   2.725
69768SOL    HW211138  11.158  14.634   2.848
69769SOL     OW11139  10.170  11.773  12.440
69769SOL    HW111140  10.151  11.864  12.419
69769SOL    HW211141  10.242  11.750  12.382
69770SOL     OW11142   7.578   8.619   9.519
69770SOL    HW111143   7.658   8.639   9.567
69770SOL    HW211144   7.607   8.573   9.441
69771SOL     OW11145  12.837   1.392   5.507
69771SOL    HW111146  12.789   1.373   5.588
69771SOL    HW211147  12.779   1.451   5.459
69772SOL     OW11148   1.929   8.766  14.743
69772SOL    HW111149   1.961   8.855  14.759
69772SOL    HW211150   1.853   8.757  14.800
69773SOL     OW11151   8.347   3.439   2.836
69773SOL    HW111152   8.391   3.376   2.779
69773SOL    HW211153   8.264   3.458   2.791
69774SOL     OW11154   2.684   1.414   5.969
69774SOL    HW111155   2.722   1.463   5.897
69774SOL    HW211156   2.721   1.326   5.960
69775SOL     OW11157  12.340   0.697   6.136
69775SOL    HW111158  12.415   0.693   6.194
69775SOL    HW211159  12.338   0.612   6.092
69776SOL     OW11160   6.204   5.659   9.276
69776SOL    HW111161   6.287   5.698   9.246
69776SOL    HW211162   6.231   5.589   9.336
69777SOL     OW11163   2.229   5.942   8.866
69777SOL    HW111164   2.251   6.005   8.799
69777SOL    HW211165   2.313   5.915   8.903
69778SOL     OW11166  11.206  13.229  12.920
69778SOL    HW111167  11.225  13.202  12.830
69778SOL    HW211168  11.129  13.179  12.945
69779SOL     OW11169  11.462  11.781  14.631
69779SOL    HW111170  11.423  11.784  14.544
69779SOL    HW211171  11.476  11.872  14.654
69780SOL     OW11172   9.230   6.792  11.470
69780SOL    HW111173   9.237   6.864  11.408
69780SOL    HW211174   9.314   6.748  11.466
69781SOL     OW11175  13.513   4.116   1.704
69781SOL    HW111176  13.605   4.132   1.683
69781SOL    HW211177  13.512   4.109   1.800
69782SOL     OW11178   0.335   4.501   6.737
69782SOL    HW111179   0.322   4.424   6.682
69782SOL    HW211180   0.266   4.562   6.709
69783SOL     OW11181   3.890  13.983   6.793
69783SOL    HW111182   3.804  13.945   6.779
69783SOL    HW211183   3.886  14.023   6.880
69784SOL     OW11184   5.276   6.783   0.290
69784SOL    HW111185   5.320   6.866   0.308
69784SOL    HW211186   5.330   6.741   0.223
69785SOL     OW11187   0.094   6.852   3.028
69785SOL    HW111188   0.006   6.854   3.066
69785SOL    HW211189   0.121   6.944   3.024
69786SOL     OW11190  11.379   3.706   9.198
69786SOL    HW111191  11.453   3.746   9.152
69786SOL    HW211192  11.411   3.692   9.287
69787SOL     OW11193   1.112   2.251   0.035
69787SOL    HW111194   1.056   2.199   0.093
69787SOL    HW211195   1.075   2.238  14.826
69788SOL     OW11196   9.706   6.819  11.415
69788SOL    HW111197   9.767   6.792  11.346
69788SOL    HW211198   9.760   6.866  11.478
69789SOL     OW11199   4.757  13.942   2.926
69789SOL    HW111200   4.663  13.930   2.912
69789SOL    HW211201   4.765  13.952   3.021
69790SOL     OW11202  10.838  11.680   6.035
69790SOL    HW111203  10.753  11.644   6.010
69790SOL    HW211204  10.818  11.742   6.105
69791SOL     OW11205   5.105  12.659  11.979
69791SOL    HW111206   5.151  12.713  12.043
69791SOL    HW211207   5.026  12.708  11.957
69792SOL     OW11208   4.386   8.122   4.493
69792SOL    HW111209   4.376   8.173   4.413
69792SOL    HW211210   4.352   8.036   4.472
69793SOL     OW11211  10.498  12.800   9.560
69793SOL    HW111212  10.438  12.807   9.634
69793SOL    HW211213  10.547  12.882   9.560
69794SOL     OW11214   5.314   4.267   3.160
69794SOL    HW111215   5.274   4.322   3.093
69794SOL    HW211216   5.240   4.221   3.200
69795SOL     OW11217  10.352  12.738   4.104
69795SOL    HW111218  10.340  12.746   4.199
69795SOL    HW211219  10.340  12.827   4.071
69796SOL     OW11220   0.863   1.670   6.627
69796SOL    HW111221   0.929   1.637   6.565
69796SOL    HW211222   0.891   1.634   6.712
69797SOL     OW11223   8.534  12.822  12.388
69797SOL    HW111224   8.447  12.855  12.409
69797SOL    HW211225   8.558  12.767  12.462
69798SOL     OW11226  13.546   0.155   1.586
69798SOL    HW111227  13.572   0.244   1.562
69798SOL    HW211228  13.523   0.160   1.678
69799SOL     OW11229  13.476   0.263   4.575
69799SOL    HW111230  13.401   0.204   4.569
69799SOL    HW211231  13.467   0.306   4.659
69800SOL     OW11232   1.996   8.328   1.313
69800SOL    HW111233   1.952   8.380   1.246
69800SOL    HW211234   1.929   8.311   1.378
69801SOL     OW11235  11.066  11.363   6.500
69801SOL    HW111236  11.026  11.286   6.459
69801SOL    HW211237  11.013  11.380   6.577
69802SOL     OW11238   3.740  11.106  11.442
69802SOL    HW111239   3.810  11.170  11.432
69802SOL    HW211240   3.694  11.108  11.358
69803SOL     OW11241   8.152  11.187   5.713
69803SOL    HW111242   8.168  11.108   5.764
69803SOL    HW211243   8.075  11.167   5.661
69804SOL     OW11244   4.971  14.018   7.687
69804SOL    HW111245   4.907  13.960   7.728
69804SOL    HW211246   4.922  14.066   7.621
69805SOL     OW11247  13.659  12.048   8.269
69805SOL    HW111248  13.712  12.039   8.348
69805SOL    HW211249  13.598  12.119   8.290
69806SOL     OW11250   2.290   3.255   6.044
69806SOL    HW111251   2.287   3.182   5.983
69806SOL    HW211252   2.380   3.288   6.037
69807SOL     OW11253   4.533  12.767   7.888
69807SOL    HW111254   4.565  12.847   7.846
69807SOL    HW211255   4.611  12.718   7.910
69808SOL     OW11256   7.941  11.297   3.075
69808SOL    HW111257   7.905  11.378   3.113
69808SOL    HW211258   8.000  11.263   3.141
69809SOL     OW11259   9.946   8.340  12.053
69809SOL    HW111260   9.939   8.247  12.072
69809SOL    HW211261   9.977   8.344  11.962
69810SOL     OW11262   1.623   5.738   0.050
69810SOL    HW111263   1.707   5.782   0.063
69810SOL    HW211264   1.623   5.667   0.114
69811SOL     OW11265  13.148  12.237   7.310
69811SOL    HW111266  13.229  12.190   7.289
69811SOL    HW211267  13.079  12.184   7.271
69812SOL     OW11268  10.775   2.777   8.633
69812SOL    HW111269  10.758   2.867   8.662
69812SOL    HW211270  10.827   2.788   8.554
69813SOL     OW11271  14.078   0.477   5.884
69813SOL    HW111272  14.093   0.554   5.829
69813SOL    HW211273  14.160   0.428   5.880
69814SOL     OW11274   3.524   4.327   1.756
69814SOL    HW111275   3.531   4.232   1.751
69814SOL    HW211276   3.611   4.359   1.734
69815SOL     OW11277  12.542   3.622   4.196
69815SOL    HW111278  12.554   3.533   4.229
69815SOL    HW211279  12.552   3.678   4.274
69816SOL     OW11280   2.446  12.862  13.527
69816SOL    HW111281   2.421  12.942  13.479
69816SOL    HW211282   2.541  12.867  13.534
69817SOL     OW11283   7.618   1.972   9.682
69817SOL    HW111284   7.571   1.939   9.759
69817SOL    HW211285   7.636   2.063   9.702
69818SOL     OW11286  13.503   7.701  11.666
69818SOL    HW111287  13.549   7.731  11.588
69818SOL    HW211288  13.445   7.631  11.635
69819SOL     OW11289  10.437   1.166   2.865
69819SOL    HW111290  10.504   1.168   2.933
69819SOL    HW211291  10.423   1.074   2.846
69820SOL     OW11292   2.777  13.715   5.378
69820SOL    HW111293   2.773  13.628   5.338
69820SOL    HW211294   2.836  13.705   5.453
69821SOL     OW11295  11.659   0.724  11.772
69821SOL    HW111296  11.593   0.656  11.757
69821SOL    HW211297  11.742   0.676  11.775
69822SOL     OW11298   4.299  10.989   8.351
69822SOL    HW111299   4.257  11.067   8.315
69822SOL    HW211300   4.238  10.956   8.416
69823SOL     OW11301   6.028   9.364   1.713
69823SOL    HW111302   6.056   9.452   1.737
69823SOL    HW211303   6.040   9.313   1.793
69824SOL     OW11304   7.306   8.282  14.071
69824SOL    HW111305   7.243   8.336  14.119
69824SOL    HW211306   7.314   8.202  14.122
69825SOL     OW11307   0.019   5.034   5.872
69825SOL    HW111308  14.874   5.034   5.779
69825SOL    HW211309   0.114   5.027   5.873
69826SOL     OW11310   6.548   1.351  11.088
69826SOL    HW111311   6.573   1.416  11.022
69826SOL    HW211312   6.557   1.267  11.044
69827SOL     OW11313   1.354  10.919   3.019
69827SOL    HW111314   1.285  10.921   3.085
69827SOL    HW211315   1.368  11.011   2.996
69828SOL     OW11316  12.576   5.864  13.421
69828SOL    HW111317  12.614   5.950  13.439
69828SOL    HW211318  12.515   5.849  13.492
69829SOL     OW11319  10.458  11.906   5.010
69829SOL    HW111320  10.444  11.879   5.100
69829SOL    HW211321  10.443  11.827   4.958
69830SOL     OW11322   6.771   6.502  11.550
69830SOL    HW111323   6.716   6.496  11.628
69830SOL    HW211324   6.720   6.459  11.481
69831SOL     OW11325  12.283  10.683   7.641
69831SOL    HW111326  12.259  10.607   7.587
69831SOL    HW211327  12.206  10.699   7.695
69832SOL     OW11328   0.188   4.235   7.363
69832SOL    HW111329   0.133   4.166   7.324
69832SOL    HW211330   0.256   4.251   7.297
69833SOL     OW11331  10.646   3.781   8.644
69833SOL    HW111332  10.555   3.784   8.616
69833SOL    HW211333  10.649   3.713   8.711
69834SOL     OW11334   6.584   3.597  11.986
69834SOL    HW111335   6.562   3.690  11.988
69834SOL    HW211336   6.679   3.595  11.992
69835SOL     OW11337   7.512   0.363  13.923
69835SOL    HW111338   7.511   0.440  13.979
69835SOL    HW211339   7.562   0.298  13.973
69836SOL     OW11340  12.556   9.543   8.883
69836SOL    HW111341  12.539   9.599   8.807
69836SOL    HW211342  12.649   9.521   8.877
69837SOL     OW11343   9.170  14.387   6.338
69837SOL    HW111344   9.139  14.304   6.374
69837SOL    HW211345   9.115  14.402   6.261
69838SOL     OW11346   8.596   6.732   7.475
69838SOL    HW111347   8.691   6.726   7.485
69838SOL    HW211348   8.579   6.824   7.457
69839SOL     OW11349  11.090  13.954  13.228
69839SOL    HW111350  11.177  13.937  13.263
69839SOL    HW211351  11.105  13.984  13.138
69840SOL     OW11352   3.117  14.534   0.654
69840SOL    HW111353   3.197  14.557   0.606
69840SOL    HW211354   3.053  14.516   0.585
69841SOL     OW11355  11.541   3.967   2.949
69841SOL    HW111356  11.576   3.890   2.992
69841SOL    HW211357  11.495   3.932   2.872
69842SOL     OW11358   7.899   3.973  10.786
69842SOL    HW111359   7.898   3.881  10.811
69842SOL    HW211360   7.814   4.007  10.814
69843SOL     OW11361   0.676   2.450   3.080
69843SOL    HW111362   0.725   2.467   2.999
69843SOL    HW211363   0.634   2.533   3.100
69844SOL     OW11364   2.592   7.706   2.454
69844SOL    HW111365   2.617   7.735   2.366
69844SOL    HW211366   2.658   7.641   2.477
69845SOL     OW11367   6.126  11.154   7.541
69845SOL    HW111368   6.048  11.166   7.595
69845SOL    HW211369   6.107  11.077   7.488
69846SOL     OW11370  13.471   7.380   0.203
69846SOL    HW111371  13.513   7.360   0.287
69846SOL    HW211372  13.381   7.404   0.226
69847SOL     OW11373   3.320  10.277   7.926
69847SOL    HW111374   3.291  10.310   7.841
69847SOL    HW211375   3.415  10.266   7.917
69848SOL     OW11376  11.866  10.968   4.878
69848SOL    HW111377  11.878  11.032   4.949
69848SOL    HW211378  11.782  10.992   4.838
69849SOL     OW11379  10.564   1.238   9.716
69849SOL    HW111380  10.542   1.144   9.719
69849SOL    HW211381  10.582   1.261   9.807
69850SOL     OW11382   7.997  13.941   4.826
69850SOL    HW111383   8.061  13.870   4.828
69850SOL    HW211384   7.914  13.899   4.850
69851SOL     OW11385  10.523   9.764   2.217
69851SOL    HW111386  10.567   9.770   2.302
69851SOL    HW211387  10.590   9.783   2.152
69852SOL     OW11388   4.635   9.021   2.644
69852SOL    HW111389   4.655   8.964   2.569
69852SOL    HW211390   4.716   9.021   2.695
69853SOL     OW11391   6.840  11.881  10.781
69853SOL    HW111392   6.795  11.940  10.719
69853SOL    HW211393   6.910  11.934  10.818
69854SOL     OW11394   5.289   8.151   2.692
69854SOL    HW111395   5.280   8.062   2.661
69854SOL    HW211396   5.374   8.181   2.658
69855SOL     OW11397   3.388  10.839   9.211
69855SOL    HW111398   3.367  10.887   9.291
69855SOL    HW211399   3.310  10.787   9.193
69856SOL     OW11400   9.446  14.690   0.455
69856SOL    HW111401   9.479  14.755   0.516
69856SOL    HW211402   9.505  14.615   0.465
69857SOL     OW11403  11.727   1.356   7.561
69857SOL    HW111404  11.646   1.359   7.611
69857SOL    HW211405  11.795   1.377   7.624
69858SOL     OW11406   8.649   6.292  10.266
69858SOL    HW111407   8.629   6.272  10.174
69858SOL    HW211408   8.724   6.351  10.261
69859SOL     OW11409   3.148  13.836   9.214
69859SOL    HW111410   3.205  13.912   9.202
69859SOL    HW211411   3.150  13.790   9.130
69860SOL     OW11412  11.808   8.129   2.136
69860SOL    HW111413  11.897   8.101   2.117
69860SOL    HW211414  11.788   8.090   2.222
69861SOL     OW11415  10.480   0.164   2.800
69861SOL    HW111416  10.422   0.128   2.733
69861SOL    HW211417  10.485   0.095   2.867
69862SOL     OW11418  12.558  11.124   0.322
69862SOL    HW111419  12.541  11.187   0.392
69862SOL    HW211420  12.477  11.121   0.272
69863SOL     OW11421   4.801  14.033   2.535
69863SOL    HW111422   4.745  14.102   2.568
69863SOL    HW211423   4.832  14.065   2.450
69864SOL     OW11424  10.896   6.280   4.578
69864SOL    HW111425  10.980   6.280   4.623
69864SOL    HW211426  10.918   6.274   4.485
69865SOL     OW11427  12.635   6.190   3.589
69865SOL    HW111428  12.575   6.164   3.659
69865SOL    HW211429  12.677   6.108   3.563
69866SOL     OW11430  10.000   0.065   6.427
69866SOL    HW111431  10.081   0.117   6.421
69866SOL    HW211432   9.986   0.054   6.521
69867SOL     OW11433  11.717  14.810   8.881
69867SOL    HW111434  11.628  14.798   8.912
69867SOL    HW211435  11.719   0.021   8.847
69868SOL     OW11436   9.670   7.051   6.214
69868SOL    HW111437   9.597   7.111   6.197
69868SOL    HW211438   9.702   7.027   6.127
69869SOL     OW11439  14.485   7.445   0.523
69869SOL    HW111440  14.451   7.356   0.519
69869SOL    HW211441  14.573   7.439   0.485
69870SOL     OW11442   0.657   1.286  10.707
69870SOL    HW111443   0.705   1.330  10.637
69870SOL    HW211444   0.623   1.206  10.667
69871SOL     OW11445   5.113  10.894   3.202
69871SOL    HW111446   5.029  10.939   3.213
69871SOL    HW211447   5.125  10.888   3.107
69872SOL     OW11448   3.319   5.338  14.435
69872SOL    HW111449   3.348   5.430  14.439
69872SOL    HW211450   3.394   5.292  14.398
69873SOL     OW11451   2.817   7.870   9.837
69873SOL    HW111452   2.793   7.842   9.926
69873SOL    HW211453   2.767   7.813   9.780
69874SOL     OW11454   9.226  12.362   1.181
69874SOL    HW111455   9.215  12.413   1.101
69874SOL    HW211456   9.280  12.418   1.237
69875SOL     OW11457  13.603   0.236   6.876
69875SOL    HW111458  13.631   0.325   6.898
69875SOL    HW211459  13.673   0.180   6.910
69876SOL     OW11460   5.094   8.717   2.918
69876SOL    HW111461   5.031   8.687   2.852
69876SOL    HW211462   5.178   8.717   2.874
69877SOL     OW11463   7.518  11.764   8.837
69877SOL    HW111464   7.466  11.684   8.839
69877SOL    HW211465   7.518  11.794   8.928
69878SOL     OW11466  13.119   6.962   5.502
69878SOL    HW111467  13.132   7.055   5.516
69878SOL    HW211468  13.081   6.930   5.584
69879SOL     OW11469   2.878   2.627   6.750
69879SOL    HW111470   2.849   2.541   6.780
69879SOL    HW211471   2.857   2.687   6.822
69880SOL     OW11472   8.072   8.572   5.946
69880SOL    HW111473   8.013   8.626   5.998
69880SOL    HW211474   8.019   8.496   5.920
69881SOL     OW11475   5.038   5.256   2.816
69881SOL    HW111476   5.106   5.200   2.853
69881SOL    HW211477   5.047   5.340   2.862
69882SOL     OW11478   9.727   8.288  10.488
69882SOL    HW111479   9.702   8.297  10.396
69882SOL    HW211480   9.822   8.279  10.486
69883SOL     OW11481   0.946   7.689   5.586
69883SOL    HW111482   1.039   7.689   5.564
69883SOL    HW211483   0.944   7.698   5.681
69884SOL     OW11484   3.864   1.320   5.908
69884SOL    HW111485   3.849   1.331   5.814
69884SOL    HW211486   3.778   1.293   5.942
69885SOL     OW11487  12.545   0.667   6.313
69885SOL    HW111488  12.539   0.581   6.355
69885SOL    HW211489  12.519   0.729   6.382
69886SOL     OW11490   6.594  13.175   0.458
69886SOL    HW111491   6.543  13.094   0.455
69886SOL    HW211492   6.685  13.146   0.456
69887SOL     OW11493   2.524   4.898   8.217
69887SOL    HW111494   2.606   4.904   8.265
69887SOL    HW211495   2.483   4.984   8.228
69888SOL     OW11496   5.608   7.150  12.597
69888SOL    HW111497   5.571   7.235  12.574
69888SOL    HW211498   5.533   7.090  12.595
69889SOL     OW11499   4.545  12.172   3.447
69889SOL    HW111500   4.555  12.103   3.381
69889SOL    HW211501   4.616  12.234   3.428
69890SOL     OW11502   2.000   5.322  10.256
69890SOL    HW111503   1.979   5.408  10.218
69890SOL    HW211504   1.996   5.261  10.182
69891SOL     OW11505  13.089   4.661   8.170
69891SOL    HW111506  13.181   4.638   8.157
69891SOL    HW211507  13.051   4.585   8.215
69892SOL     OW11508  12.294  11.888   4.512
69892SOL    HW111509  12.327  11.862   4.598
69892SOL    HW211510  12.221  11.947   4.531
69893SOL     OW11511  14.219   6.677  12.014
69893SOL    HW111512  14.219   6.682  11.919
69893SOL    HW211513  14.215   6.584  12.033
69894SOL     OW11514   7.257   7.566   1.654
69894SOL    HW111515   7.185   7.515   1.618
69894SOL    HW211516   7.328   7.503   1.665
69895SOL     OW11517  11.554  11.746   4.344
69895SOL    HW111518  11.634  11.695   4.333
69895SOL    HW211519  11.493  11.710   4.280
69896SOL     OW11520   2.144   1.852   0.694
69896SOL    HW111521   2.098   1.932   0.720
69896SOL    HW211522   2.085   1.781   0.719
69897SOL     OW11523   8.849   7.088   0.074
69897SOL    HW111524   8.887   7.136   0.148
69897SOL    HW211525   8.756   7.112   0.076
69898SOL     OW11526  14.541   0.492   5.715
69898SOL    HW111527  14.586   0.548   5.778
69898SOL    HW211528  14.457   0.471   5.757
69899SOL     OW11529   5.796   4.274   7.320
69899SOL    HW111530   5.878   4.241   7.284
69899SOL    HW211531   5.728   4.229   7.271
69900SOL     OW11532   9.652   0.637   3.448
69900SOL    HW111533   9.725   0.698   3.447
69900SOL    HW211534   9.609   0.652   3.533
69901SOL     OW11535  13.985   8.175  11.442
69901SOL    HW111536  14.018   8.147  11.528
69901SOL    HW211537  14.040   8.128  11.379
69902SOL     OW11538  12.649   3.871   8.534
69902SOL    HW111539  12.737   3.845   8.507
69902SOL    HW211540  12.660   3.901   8.624
69903SOL     OW11541   0.929  13.270   5.276
69903SOL    HW111542   0.872  13.244   5.348
69903SOL    HW211543   0.873  13.322   5.218
69904SOL     OW11544   2.806   3.786   5.203
69904SOL    HW111545   2.739   3.826   5.258
69904SOL    HW211546   2.813   3.844   5.127
69905SOL     OW11547   3.648   9.408  14.046
69905SOL    HW111548   3.729   9.382  14.089
69905SOL    HW211549   3.670   9.413  13.953
69906SOL     OW11550   4.573   4.819  13.302
69906SOL    HW111551   4.661   4.856  13.308
69906SOL    HW211552   4.585   4.738  13.252
69907SOL     OW11553   2.578  11.142  13.013
69907SOL    HW111554   2.510  11.184  13.066
69907SOL    HW211555   2.553  11.049  13.011
69908SOL     OW11556   7.255   7.340  10.506
69908SOL    HW111557   7.172   7.302  10.535
69908SOL    HW211558   7.247   7.343  10.410
69909SOL     OW11559  11.645   3.125   2.637
69909SOL    HW111560  11.584   3.064   2.595
69909SOL    HW211561  11.599   3.155   2.715
69910SOL     OW11562  14.801   0.291   8.356
69910SOL    HW111563  14.810   0.294   8.452
69910SOL    HW211564  14.851   0.367   8.325
69911SOL     OW11565   7.807   0.217   0.125
69911SOL    HW111566   7.899   0.244   0.121
69911SOL    HW211567   7.803   0.138   0.070
69912SOL     OW11568   9.295  13.320   2.116
69912SOL    HW111569   9.383  13.338   2.084
69912SOL    HW211570   9.292  13.361   2.203
69913SOL     OW11571  12.217  11.849  14.777
69913SOL    HW111572  12.145  11.844  14.714
69913SOL    HW211573  12.193  11.786  14.845
69914SOL     OW11574   8.741  13.199   5.618
69914SOL    HW111575   8.737  13.112   5.580
69914SOL    HW211576   8.764  13.185   5.709
69915SOL     OW11577   4.445   2.593   6.417
69915SOL    HW111578   4.366   2.621   6.371
69915SOL    HW211579   4.516   2.619   6.359
69916SOL     OW11580  12.859  12.375   1.233
69916SOL    HW111581  12.825  12.447   1.180
69916SOL    HW211582  12.954  12.378   1.219
69917SOL     OW11583  10.527   0.797   5.054
69917SOL    HW111584  10.460   0.790   4.986
69917SOL    HW211585  10.490   0.751   5.129
69918SOL     OW11586  13.174   4.658   3.178
69918SOL    HW111587  13.189   4.565   3.160
69918SOL    HW211588  13.252   4.702   3.145
69919SOL     OW11589   8.910   0.579   0.246
69919SOL    HW111590   8.922   0.549   0.156
69919SOL    HW211591   8.995   0.564   0.287
69920SOL     OW11592   0.635   4.188   8.640
69920SOL    HW111593   0.632   4.108   8.693
69920SOL    HW211594   0.543   4.217   8.634
69921SOL     OW11595   7.913   0.222  11.940
69921SOL    HW111596   7.895   0.298  11.885
69921SOL    HW211597   7.947   0.258  12.022
69922SOL     OW11598   8.258  10.723   7.518
69922SOL    HW111599   8.162  10.717   7.520
69922SOL    HW211600   8.277  10.815   7.535
69923SOL     OW11601   5.382  10.767  11.234
69923SOL    HW111602   5.407  10.856  11.212
69923SOL    HW211603   5.451  10.712  11.197
69924SOL     OW11604   6.628   1.304   0.297
69924SOL    HW111605   6.693   1.341   0.238
69924SOL    HW211606   6.679   1.260   0.365
69925SOL     OW11607   8.053  14.324   5.365
69925SOL    HW111608   8.017  14.327   5.276
69925SOL    HW211609   8.005  14.392   5.412
69926SOL     OW11610  14.765   3.620   4.451
69926SOL    HW111611  14.808   3.699   4.483
69926SOL    HW211612  14.787   3.553   4.516
69927SOL     OW11613  13.294   6.642   8.431
69927SOL    HW111614  13.383   6.665   8.454
69927SOL    HW211615  13.303   6.570   8.369
69928SOL     OW11616   9.137   6.381  13.066
69928SOL    HW111617   9.227   6.388  13.034
69928SOL    HW211618   9.089   6.337  12.996
69929SOL     OW11619   7.611   4.416   2.017
69929SOL    HW111620   7.700   4.407   1.983
69929SOL    HW211621   7.579   4.499   1.980
69930SOL     OW11622   4.454  12.054   8.263
69930SOL    HW111623   4.468  12.097   8.348
69930SOL    HW211624   4.540  12.054   8.222
69931SOL     OW11625  11.340  13.783   2.750
69931SOL    HW111626  11.363  13.871   2.721
69931SOL    HW211627  11.353  13.785   2.845
69932SOL     OW11628  13.207   7.696   8.410
69932SOL    HW111629  13.263   7.621   8.434
69932SOL    HW211630  13.145   7.660   8.347
69933SOL     OW11631  13.383   4.939   1.887
69933SOL    HW111632  13.368   4.942   1.792
69933SOL    HW211633  13.316   4.879   1.920
69934SOL     OW11634   4.842   4.548  11.062
69934SOL    HW111635   4.853   4.631  11.015
69934SOL    HW211636   4.855   4.571  11.154
69935SOL     OW11637   0.758   2.330   4.742
69935SOL    HW111638   0.798   2.248   4.714
69935SOL    HW211639   0.789   2.395   4.680
69936SOL     OW11640   6.601  11.486   9.625
69936SOL    HW111641   6.591  11.436   9.705
69936SOL    HW211642   6.653  11.562   9.651
69937SOL     OW11643  13.944  14.335  14.850
69937SOL    HW111644  13.859  14.338  14.807
69937SOL    HW211645  13.954  14.422   0.010
69938SOL     OW11646   2.795  13.203   7.848
69938SOL    HW111647   2.878  13.225   7.890
69938SOL    HW211648   2.818  13.186   7.757
69939SOL     OW11649  11.710  12.385   3.768
69939SOL    HW111650  11.778  12.319   3.768
69939SOL    HW211651  11.682  12.392   3.860
69940SOL     OW11652  10.130  12.602   7.627
69940SOL    HW111653  10.208  12.643   7.590
69940SOL    HW211654  10.164  12.537   7.689
69941SOL     OW11655   5.728   1.747   0.335
69941SOL    HW111656   5.654   1.704   0.377
69941SOL    HW211657   5.797   1.681   0.334
69942SOL     OW11658   7.046   1.522  11.943
69942SOL    HW111659   6.999   1.460  11.888
69942SOL    HW211660   7.015   1.503  12.032
69943SOL     OW11661  14.566   3.440   2.317
69943SOL    HW111662  14.647   3.423   2.365
69943SOL    HW211663  14.524   3.512   2.365
69944SOL     OW11664   7.961  13.775   3.563
69944SOL    HW111665   7.946  13.765   3.469
69944SOL    HW211666   7.879  13.749   3.604
69945SOL     OW11667   1.331   9.342   1.017
69945SOL    HW111668   1.334   9.267   1.076
69945SOL    HW211669   1.240   9.346   0.987
69946SOL     OW11670   1.168   2.963  10.986
69946SOL    HW111671   1.073   2.964  10.971
69946SOL    HW211672   1.196   3.052  10.965
69947SOL     OW11673   8.516  13.975  10.538
69947SOL    HW111674   8.445  14.034  10.562
69947SOL    HW211675   8.561  13.957  10.621
69948SOL     OW11676   0.409   5.854   3.822
69948SOL    HW111677   0.484   5.861   3.763
69948SOL    HW211678   0.446   5.865   3.910
69949SOL     OW11679  10.671  14.568  11.477
69949SOL    HW111680  10.672  14.589  11.384
69949SOL    HW211681  10.597  14.617  11.512
69950SOL     OW11682   6.777   5.614   0.400
69950SOL    HW111683   6.724   5.668   0.460
69950SOL    HW211684   6.867   5.636   0.422
69951SOL     OW11685  11.065   5.836  13.232
69951SOL    HW111686  11.099   5.757  13.274
69951SOL    HW211687  11.020   5.883  13.302
69952SOL     OW11688   9.086  13.755   8.609
69952SOL    HW111689   9.062  13.727   8.521
69952SOL    HW211690   9.014  13.811   8.637
69953SOL     OW11691   9.137   5.711   6.526
69953SOL    HW111692   9.125   5.779   6.460
69953SOL    HW211693   9.134   5.629   6.477
69954SOL     OW11694   8.074   0.891   9.992
69954SOL    HW111695   7.983   0.921   9.985
69954SOL    HW211696   8.068   0.796  10.001
69955SOL     OW11697   3.298   8.368  11.584
69955SOL    HW111698   3.344   8.394  11.505
69955SOL    HW211699   3.354   8.300  11.623
69956SOL     OW11700   8.824   5.742   9.816
69956SOL    HW111701   8.878   5.816   9.844
69956SOL    HW211702   8.736   5.763   9.845
69957SOL     OW11703  10.359   1.714   0.247
69957SOL    HW111704  10.376   1.622   0.269
69957SOL    HW211705  10.278   1.735   0.294
69958SOL     OW11706  13.751   4.264   0.258
69958SOL    HW111707  13.687   4.307   0.202
69958SOL    HW211708  13.730   4.293   0.346
69959SOL     OW11709   3.822   0.918   2.456
69959SOL    HW111710   3.856   0.845   2.506
69959SOL    HW211711   3.752   0.954   2.510
69960SOL     OW11712  10.786  13.481   7.118
69960SOL    HW111713  10.708  13.528   7.150
69960SOL    HW211714  10.823  13.441   7.196
69961SOL     OW11715  13.997  12.762   7.953
69961SOL    HW111716  13.919  12.776   8.007
69961SOL    HW211717  13.964  12.718   7.874
69962SOL     OW11718  14.659  13.945   0.813
69962SOL    HW111719  14.619  13.979   0.732
69962SOL    HW211720  14.713  14.017   0.845
69963SOL     OW11721   3.326   9.958   7.119
69963SOL    HW111722   3.304   9.865   7.116
69963SOL    HW211723   3.369   9.975   7.036
69964SOL     OW11724  11.245   0.893   8.562
69964SOL    HW111725  11.175   0.830   8.545
69964SOL    HW211726  11.200   0.970   8.597
69965SOL     OW11727   5.016  11.339   2.192
69965SOL    HW111728   5.046  11.363   2.104
69965SOL    HW211729   5.073  11.389   2.251
69966SOL     OW11730   8.763  13.415   6.878
69966SOL    HW111731   8.790  13.432   6.968
69966SOL    HW211732   8.842  13.429   6.826
69967SOL     OW11733   3.255   1.818   8.962
69967SOL    HW111734   3.305   1.788   8.886
69967SOL    HW211735   3.314   1.880   9.006
69968SOL     OW11736   3.450   1.096   5.615
69968SOL    HW111737   3.356   1.103   5.634
69968SOL    HW211738   3.464   1.004   5.595
69969SOL     OW11739  10.289   9.802   5.407
69969SOL    HW111740  10.249   9.756   5.481
69969SOL    HW211741  10.369   9.753   5.388
69970SOL     OW11742  11.015  14.317   6.442
69970SOL    HW111743  11.025  14.292   6.350
69970SOL    HW211744  10.956  14.393   6.440
69971SOL     OW11745   6.608  11.322   7.724
69971SOL    HW111746   6.691  11.347   7.765
69971SOL    HW211747   6.628  11.316   7.630
69972SOL     OW11748   3.949   1.975   3.528
69972SOL    HW111749   3.896   2.035   3.581
69972SOL    HW211750   3.922   1.993   3.438
69973SOL     OW11751   3.080  11.712   3.370
69973SOL    HW111752   3.034  11.637   3.408
69973SOL    HW211753   3.016  11.783   3.370
69974SOL     OW11754   7.310   5.303  13.288
69974SOL    HW111755   7.325   5.397  13.297
69974SOL    HW211756   7.357   5.278  13.209
69975SOL     OW11757  14.568   4.600   7.313
69975SOL    HW111758  14.623   4.633   7.243
69975SOL    HW211759  14.481   4.634   7.293
69976SOL     OW11760  12.490   7.295  11.208
69976SOL    HW111761  12.544   7.358  11.257
69976SOL    HW211762  12.549   7.259  11.142
69977SOL     OW11763  14.300  13.156   6.068
69977SOL    HW111764  14.358  13.216   6.022
69977SOL    HW211765  14.217  13.164   6.021
69978SOL     OW11766  12.094  11.127   8.811
69978SOL    HW111767  12.076  11.117   8.905
69978SOL    HW211768  12.045  11.206   8.786
69979SOL     OW11769  11.908  14.235   2.101
69979SOL    HW111770  11.836  14.198   2.049
69979SOL    HW211771  11.986  14.196   2.063
69980SOL     OW11772   9.376  11.668   6.313
69980SOL    HW111773   9.326  11.609   6.370
69980SOL    HW211774   9.457  11.685   6.361
69981SOL     OW11775   7.952  10.375   7.996
69981SOL    HW111776   7.920  10.445   8.052
69981SOL    HW211777   7.931  10.404   7.907
69982SOL     OW11778   2.318   9.139  12.505
69982SOL    HW111779   2.403   9.098  12.488
69982SOL    HW211780   2.254   9.070  12.487
69983SOL     OW11781   2.718   6.717  11.684
69983SOL    HW111782   2.698   6.786  11.747
69983SOL    HW211783   2.813   6.718  11.676
69984SOL     OW11784   3.514   6.472   4.027
69984SOL    HW111785   3.597   6.494   4.070
69984SOL    HW211786   3.448   6.521   4.075
69985SOL     OW11787   9.675   5.053   9.321
69985SOL    HW111788   9.747   5.089   9.373
69985SOL    HW211789   9.650   5.124   9.262
69986SOL     OW11790   4.093  10.740  10.361
69986SOL    HW111791   3.998  10.726  10.359
69986SOL    HW211792   4.105  10.825  10.318
69987SOL     OW11793   5.116   8.169   3.367
69987SOL    HW111794   5.120   8.263   3.385
69987SOL    HW211795   5.036   8.140   3.411
69988SOL     OW11796   2.891   9.729   2.985
69988SOL    HW111797   2.949   9.652   2.983
69988SOL    HW211798   2.945   9.800   2.950
69989SOL     OW11799  13.704   4.561   9.476
69989SOL    HW111800  13.736   4.608   9.552
69989SOL    HW211801  13.686   4.473   9.508
69990SOL     OW11802  14.277  14.373   2.288
69990SOL    HW111803  14.229  14.371   2.371
69990SOL    HW211804  14.223  14.428   2.231
69991SOL     OW11805  14.554   7.369   6.042
69991SOL    HW111806  14.623   7.371   6.108
69991SOL    HW211807  14.475   7.343   6.090
69992SOL     OW11808   8.689  10.981   5.886
69992SOL    HW111809   8.616  11.036   5.858
69992SOL    HW211810   8.753  11.042   5.922
69993SOL     OW11811   3.649   3.866   0.569
69993SOL    HW111812   3.717   3.855   0.637
69993SOL    HW211813   3.677   3.943   0.521
69994SOL     OW11814  12.736   7.127   2.032
69994SOL    HW111815  12.659   7.119   2.088
69994SOL    HW211816  12.798   7.063   2.066
69995SOL     OW11817  14.792   3.268  13.693
69995SOL    HW111818  14.804   3.250  13.600
69995SOL    HW211819  14.697   3.272  13.705
69996SOL     OW11820  11.459  10.779   0.186
69996SOL    HW111821  11.493  10.715   0.122
69996SOL    HW211822  11.364  10.773   0.177
69997SOL     OW11823  13.252   3.183   3.736
69997SOL    HW111824  13.321   3.248   3.743
69997SOL    HW211825  13.227   3.164   3.827
69998SOL     OW11826  12.702   8.081  13.128
69998SOL    HW111827  12.726   8.135  13.054
69998SOL    HW211828  12.670   8.142  13.194
69999SOL     OW11829  12.145  12.927  10.491
69999SOL    HW111830  12.138  13.020  10.472
69999SOL    HW211831  12.151  12.885  10.405
70000SOL     OW11832   8.981   6.375   7.726
70000SOL    HW111833   9.033   6.360   7.805
70000SOL    HW211834   9.004   6.464   7.699
70001SOL     OW11835   0.828   6.226   9.138
70001SOL    HW111836   0.923   6.237   9.134
70001SOL    HW211837   0.815   6.164   9.210
70002SOL     OW11838   8.016   4.190   0.349
70002SOL    HW111839   7.951   4.253   0.380
70002SOL    HW211840   7.966   4.133   0.290
70003SOL     OW11841   7.019   8.879   9.053
70003SOL    HW111842   7.062   8.936   9.116
70003SOL    HW211843   6.972   8.938   8.994
70004SOL     OW11844   9.945   1.413  11.355
70004SOL    HW111845  10.017   1.389  11.414
70004SOL    HW211846   9.951   1.349  11.283
70005SOL     OW11847   0.418  13.933   1.497
70005SOL    HW111848   0.391  13.845   1.473
70005SOL    HW211849   0.360  13.957   1.570
70006SOL     OW11850   1.488  11.162  13.814
70006SOL    HW111851   1.574  11.129  13.843
70006SOL    HW211852   1.425  11.102  13.853
70007SOL     OW11853  10.588   3.642   8.310
70007SOL    HW111854  10.678   3.673   8.319
70007SOL    HW211855  10.535   3.709   8.354
70008SOL     OW11856  10.504   5.316  12.311
70008SOL    HW111857  10.420   5.341  12.350
70008SOL    HW211858  10.492   5.334  12.217
70009SOL     OW11859   2.063  11.302   7.371
70009SOL    HW111860   2.149  11.264   7.388
70009SOL    HW211861   2.047  11.360   7.446
70010SOL     OW11862   4.072   6.965   3.376
70010SOL    HW111863   3.976   6.958   3.368
70010SOL    HW211864   4.102   6.977   3.286
70011SOL     OW11865  13.528   1.083   9.048
70011SOL    HW111866  13.592   1.037   8.993
70011SOL    HW211867  13.521   1.170   9.008
70012SOL     OW11868  14.712   6.901   3.109
70012SOL    HW111869  14.659   6.866   3.038
70012SOL    HW211870  14.706   6.996   3.099
70013SOL     OW11871   9.364  14.847   9.270
70013SOL    HW111872   9.340  14.820   9.182
70013SOL    HW211873   9.305   0.041   9.290
70014SOL     OW11874   6.150   2.098   4.548
70014SOL    HW111875   6.155   2.186   4.509
70014SOL    HW211876   6.066   2.063   4.517
70015SOL     OW11877   5.778  11.834  10.721
70015SOL    HW111878   5.751  11.783  10.644
70015SOL    HW211879   5.869  11.809  10.736
70016SOL     OW11880   3.802   3.475   1.379
70016SOL    HW111881   3.872   3.419   1.411
70016SOL    HW211882   3.748   3.418   1.324
70017SOL     OW11883   8.486   8.307  11.304
70017SOL    HW111884   8.501   8.294  11.210
70017SOL    HW211885   8.395   8.281  11.317
70018SOL     OW11886   6.186   1.206   9.116
70018SOL    HW111887   6.170   1.112   9.110
70018SOL    HW211888   6.282   1.214   9.116
70019SOL     OW11889  14.157  13.216   7.414
70019SOL    HW111890  14.077  13.167   7.430
70019SOL    HW211891  14.227  13.151   7.421
70020SOL     OW11892   5.877   0.537  13.750
70020SOL    HW111893   5.906   0.628  13.738
70020SOL    HW211894   5.791   0.544  13.793
70021SOL     OW11895   5.863   9.088   3.239
70021SOL    HW111896   5.830   9.122   3.322
70021SOL    HW211897   5.803   9.122   3.173
70022SOL     OW11898   2.308   7.359  13.743
70022SOL    HW111899   2.228   7.362  13.691
70022SOL    HW211900   2.374   7.325  13.683
70023SOL     OW11901   6.876   7.563   1.869
70023SOL    HW111902   6.910   7.590   1.955
70023SOL    HW211903   6.904   7.473   1.859
70024SOL     OW11904   2.503   2.599  10.001
70024SOL    HW111905   2.435   2.531   9.994
70024SOL    HW211906   2.521   2.606  10.095
70025SOL     OW11907   3.660   5.456   8.380
70025SOL    HW111908   3.576   5.468   8.425
70025SOL    HW211909   3.701   5.542   8.381
70026SOL     OW11910   1.701   4.436   4.057
70026SOL    HW111911   1.614   4.456   4.023
70026SOL    HW211912   1.684   4.385   4.137
70027SOL     OW11913   4.749   0.774   3.139
70027SOL    HW111914   4.719   0.683   3.134
70027SOL    HW211915   4.703   0.818   3.067
70028SOL     OW11916   5.003   5.131  10.281
70028SOL    HW111917   5.066   5.201  10.264
70028SOL    HW211918   4.948   5.165  10.352
70029SOL     OW11919   0.142  11.267   6.272
70029SOL    HW111920   0.116  11.337   6.332
70029SOL    HW211921   0.234  11.285   6.253
70030SOL     OW11922   1.293   0.759   4.309
70030SOL    HW111923   1.299   0.666   4.291
70030SOL    HW211924   1.320   0.768   4.401
70031SOL     OW11925   7.983   1.782  13.944
70031SOL    HW111926   8.046   1.801  14.013
70031SOL    HW211927   7.926   1.715  13.981
70032SOL     OW11928   0.321   3.312  10.995
70032SOL    HW111929   0.304   3.229  10.950
70032SOL    HW211930   0.416   3.321  10.994
70033SOL     OW11931  11.266   5.853  14.497
70033SOL    HW111932  11.260   5.925  14.560
70033SOL    HW211933  11.309   5.782  14.545
70034SOL     OW11934  13.022  11.306  13.443
70034SOL    HW111935  13.013  11.212  13.461
70034SOL    HW211936  12.968  11.320  13.365
70035SOL     OW11937  13.419   5.489  12.013
70035SOL    HW111938  13.328   5.505  11.987
70035SOL    HW211939  13.412   5.455  12.102
70036SOL     OW11940   1.069   4.676   4.815
70036SOL    HW111941   1.132   4.737   4.775
70036SOL    HW211942   1.072   4.696   4.908
70037SOL     OW11943   5.618   7.967  13.432
70037SOL    HW111944   5.534   7.944  13.470
70037SOL    HW211945   5.679   7.900  13.465
70038SOL     OW11946  12.596  14.734   7.760
70038SOL    HW111947  12.507  14.710   7.733
70038SOL    HW211948  12.651  14.708   7.687
70039SOL     OW11949   7.308   4.510   5.043
70039SOL    HW111950   7.270   4.569   5.108
70039SOL    HW211951   7.315   4.426   5.089
70040SOL     OW11952  12.970  11.205   0.268
70040SOL    HW111953  13.001  11.147   0.198
70040SOL    HW211954  12.880  11.227   0.243
70041SOL     OW11955   1.580   2.121   9.198
70041SOL    HW111956   1.630   2.063   9.257
70041SOL    HW211957   1.496   2.131   9.242
70042SOL     OW11958  14.446   6.864   4.465
70042SOL    HW111959  14.356   6.874   4.433
70042SOL    HW211960  14.500   6.873   4.387
70043SOL     OW11961   0.608   0.909  14.675
70043SOL    HW111962   0.657   0.938  14.598
70043SOL    HW211963   0.517   0.926  14.654
70044SOL     OW11964   1.230  11.770  10.988
70044SOL    HW111965   1.204  11.786  11.079
70044SOL    HW211966   1.323  11.751  10.994
70045SOL     OW11967  12.139   4.546  12.862
70045SOL    HW111968  12.100   4.476  12.811
70045SOL    HW211969  12.138   4.514  12.952
70046SOL     OW11970  12.872   9.260   7.261
70046SOL    HW111971  12.941   9.194   7.258
70046SOL    HW211972  12.886   9.305   7.344
70047SOL     OW11973  12.308   7.659   8.553
70047SOL    HW111974  12.265   7.719   8.492
70047SOL    HW211975  12.387   7.631   8.506
70048SOL     OW11976  10.008   4.550   1.535
70048SOL    HW111977   9.981   4.624   1.481
70048SOL    HW211978  10.092   4.523   1.498
70049SOL     OW11979  14.650   3.919  12.982
70049SOL    HW111980  14.599   3.931  13.062
70049SOL    HW211981  14.728   3.870  13.010
70050SOL     OW11982  10.039   8.657  13.357
70050SOL    HW111983  10.039   8.709  13.277
70050SOL    HW211984  10.123   8.610  13.356
70051SOL     OW11985  11.936   7.529   0.331
70051SOL    HW111986  11.843   7.509   0.335
70051SOL    HW211987  11.942   7.622   0.356
70052SOL     OW11988   2.953  14.547   0.865
70052SOL    HW111989   3.007  14.534   0.787
70052SOL    HW211990   2.881  14.485   0.855
70053SOL     OW11991  10.365   7.441  12.869
70053SOL    HW111992  10.313   7.396  12.803
70053SOL    HW211993  10.455   7.411  12.853
70054SOL     OW11994   3.353  13.134   3.086
70054SOL    HW111995   3.412  13.064   3.115
70054SOL    HW211996   3.337  13.186   3.164
70055SOL     OW11997  11.319  12.111   6.568
70055SOL    HW111998  11.328  12.134   6.661
70055SOL    HW211999  11.250  12.168   6.536
70056SOL     OW12000   5.289   1.261  10.506
70056SOL    HW112001   5.298   1.265  10.601
70056SOL    HW212002   5.239   1.339  10.484
70057SOL     OW12003   0.162   6.148  14.474
70057SOL    HW112004   0.072   6.153  14.509
70057SOL    HW212005   0.214   6.116  14.548
70058SOL     OW12006   7.087  10.385   3.930
70058SOL    HW112007   7.025  10.412   3.998
70058SOL    HW212008   7.095  10.461   3.872
70059SOL     OW12009   8.220   6.042  13.392
70059SOL    HW112010   8.260   6.103  13.330
70059SOL    HW212011   8.152   6.093  13.435
70060SOL     OW12012   3.734   3.636   1.100
70060SOL    HW112013   3.750   3.631   1.006
70060SOL    HW212014   3.786   3.565   1.137
70061SOL     OW12015   7.315   0.560  13.095
70061SOL    HW112016   7.287   0.468  13.094
70061SOL    HW212017   7.406   0.557  13.067
70062SOL     OW12018  11.771  13.071   8.141
70062SOL    HW112019  11.831  13.145   8.139
70062SOL    HW212020  11.687  13.106   8.112
70063SOL     OW12021  11.029  11.438   1.484
70063SOL    HW112022  11.070  11.523   1.495
70063SOL    HW212023  10.935  11.456   1.483
70064SOL     OW12024  13.540   0.255   5.805
70064SOL    HW112025  13.604   0.326   5.798
70064SOL    HW212026  13.458   0.298   5.830
70065SOL     OW12027   4.862  10.804   2.447
70065SOL    HW112028   4.943  10.781   2.490
70065SOL    HW212029   4.825  10.874   2.500
70066SOL     OW12030   9.051  12.555   7.906
70066SOL    HW112031   9.087  12.470   7.881
70066SOL    HW212032   9.055  12.556   8.002
70067SOL     OW12033   8.103   5.065   0.239
70067SOL    HW112034   8.124   5.004   0.168
70067SOL    HW212035   8.057   5.136   0.195
70068SOL     OW12036   7.182   6.155  14.790
70068SOL    HW112037   7.107   6.115  14.834
70068SOL    HW212038   7.256   6.139  14.848
70069SOL     OW12039  13.212   2.071   0.167
70069SOL    HW112040  13.201   2.165   0.184
70069SOL    HW212041  13.296   2.065   0.122
70070SOL     OW12042   3.204  10.770  12.433
70070SOL    HW112043   3.284  10.718  12.433
70070SOL    HW212044   3.213  10.829  12.508
70071SOL     OW12045   8.915   2.624  14.628
70071SOL    HW112046   8.901   2.584  14.542
70071SOL    HW212047   8.859   2.701  14.628
70072SOL     OW12048  10.769   0.329  10.658
70072SOL    HW112049  10.771   0.339  10.563
70072SOL    HW212050  10.854   0.291  10.680
70073SOL     OW12051   1.421   8.086  13.970
70073SOL    HW112052   1.394   8.004  13.928
70073SOL    HW212053   1.342   8.117  14.015
70074SOL     OW12054  10.835   9.994   0.436
70074SOL    HW112055  10.905  10.043   0.481
70074SOL    HW212056  10.879   9.953   0.362
70075SOL     OW12057  11.177   1.876   4.115
70075SOL    HW112058  11.246   1.911   4.171
70075SOL    HW212059  11.114   1.948   4.107
70076SOL     OW12060  13.734   2.838   1.976
70076SOL    HW112061  13.733   2.804   1.886
70076SOL    HW212062  13.707   2.929   1.967
70077SOL     OW12063   0.668   0.192   8.778
70077SOL    HW112064   0.724   0.140   8.721
70077SOL    HW212065   0.655   0.274   8.731
70078SOL     OW12066   0.807   6.685   4.553
70078SOL    HW112067   0.787   6.769   4.593
70078SOL    HW212068   0.900   6.671   4.572
70079SOL     OW12069   5.214  12.677  11.521
70079SOL    HW112070   5.136  12.659  11.469
70079SOL    HW212071   5.250  12.758  11.486
70080SOL     OW12072   5.916   8.509  14.187
70080SOL    HW112073   5.951   8.584  14.139
70080SOL    HW212074   5.928   8.435  14.128
70081SOL     OW12075   0.061  13.823   1.124
70081SOL    HW112076   0.026  13.892   1.180
70081SOL    HW212077   0.119  13.868   1.063
70082SOL     OW12078   2.988  10.827   7.947
70082SOL    HW112079   2.951  10.841   8.034
70082SOL    HW212080   3.075  10.792   7.964
70083SOL     OW12081   1.380   1.563   4.565
70083SOL    HW112082   1.355   1.545   4.656
70083SOL    HW212083   1.472   1.592   4.571
70084SOL     OW12084   7.080   8.945   3.826
70084SOL    HW112085   7.009   8.895   3.866
70084SOL    HW212086   7.142   8.961   3.897
70085SOL     OW12087  14.389   8.369   6.558
70085SOL    HW112088  14.349   8.428   6.494
70085SOL    HW212089  14.474   8.407   6.577
70086SOL     OW12090   6.763   2.968  11.170
70086SOL    HW112091   6.694   2.964  11.104
70086SOL    HW212092   6.798   3.057  11.165
70087SOL     OW12093   3.761   3.023  14.866
70087SOL    HW112094   3.677   3.038   0.031
70087SOL    HW212095   3.808   3.106  14.875
70088SOL     OW12096   2.559   9.979   4.259
70088SOL    HW112097   2.527   9.910   4.317
70088SOL    HW212098   2.644   9.949   4.229
70089SOL     OW12099  10.325  11.748   6.190
70089SOL    HW112100  10.381  11.688   6.240
70089SOL    HW212101  10.270  11.691   6.136
70090SOL     OW12102   5.505   4.124   0.728
70090SOL    HW112103   5.493   4.032   0.702
70090SOL    HW212104   5.599   4.139   0.722
70091SOL     OW12105  10.691   8.391  12.097
70091SOL    HW112106  10.638   8.466  12.124
70091SOL    HW212107  10.780   8.415  12.121
70092SOL     OW12108  13.682   5.513   2.675
70092SOL    HW112109  13.643   5.533   2.590
70092SOL    HW212110  13.764   5.563   2.676
70093SOL     OW12111  11.110  14.674  14.566
70093SOL    HW112112  11.178  14.735  14.595
70093SOL    HW212113  11.126  14.662  14.472
70094SOL     OW12114   0.640  10.530   7.648
70094SOL    HW112115   0.662  10.437   7.653
70094SOL    HW212116   0.630  10.557   7.739
70095SOL     OW12117  11.407  14.441   3.516
70095SOL    HW112118  11.342  14.430   3.447
70095SOL    HW212119  11.366  14.500   3.579
70096SOL     OW12120   9.684   7.821   1.359
70096SOL    HW112121   9.739   7.887   1.316
70096SOL    HW212122   9.738   7.742   1.362
70097SOL     OW12123  12.523   8.468   8.274
70097SOL    HW112124  12.554   8.529   8.206
70097SOL    HW212125  12.520   8.383   8.231
70098SOL     OW12126   7.553  13.419   5.260
70098SOL    HW112127   7.544  13.340   5.206
70098SOL    HW212128   7.587  13.485   5.200
70099SOL     OW12129  10.006   6.174  13.297
70099SOL    HW112130  10.013   6.166  13.392
70099SOL    HW212131   9.955   6.254  13.283
70100SOL     OW12132  10.926   6.670   1.148
70100SOL    HW112133  10.944   6.576   1.152
70100SOL    HW212134  10.846   6.680   1.201
70101SOL     OW12135   2.707  13.589  13.016
70101SOL    HW112136   2.636  13.566  12.956
70101SOL    HW212137   2.768  13.515  13.011
70102SOL     OW12138   1.028  10.950   0.169
70102SOL    HW112139   0.937  10.927   0.188
70102SOL    HW212140   1.037  10.936   0.075
70103SOL     OW12141   8.939   5.469   8.120
70103SOL    HW112142   8.855   5.488   8.163
70103SOL    HW212143   8.999   5.534   8.155
70104SOL     OW12144   2.090  14.104   0.614
70104SOL    HW112145   2.003  14.121   0.648
70104SOL    HW212146   2.103  14.172   0.547
70105SOL     OW12147   2.229   0.968   0.245
70105SOL    HW112148   2.169   0.982   0.318
70105SOL    HW212149   2.308   0.931   0.284
70106SOL     OW12150  14.054   9.821   6.759
70106SOL    HW112151  13.996   9.746   6.774
70106SOL    HW212152  13.996   9.892   6.734
70107SOL     OW12153  10.479   7.937   1.505
70107SOL    HW112154  10.415   7.937   1.434
70107SOL    HW212155  10.435   7.892   1.578
70108SOL     OW12156   7.932   0.438   9.529
70108SOL    HW112157   7.849   0.404   9.495
70108SOL    HW212158   7.927   0.532   9.512
70109SOL     OW12159   8.242  10.232   8.270
70109SOL    HW112160   8.267  10.304   8.327
70109SOL    HW212161   8.243  10.154   8.326
70110SOL     OW12162   9.513   7.195  11.384
70110SOL    HW112163   9.547   7.150  11.306
70110SOL    HW212164   9.453   7.261  11.349
70111SOL     OW12165   0.840  11.655  12.218
70111SOL    HW112166   0.884  11.572  12.198
70111SOL    HW212167   0.910  11.720  12.220
70112SOL     OW12168  10.143   6.518   2.913
70112SOL    HW112169  10.107   6.606   2.927
70112SOL    HW212170  10.070   6.460   2.932
70113SOL     OW12171  10.605  10.396   2.378
70113SOL    HW112172  10.581  10.444   2.458
70113SOL    HW212173  10.693  10.427   2.356
70114SOL     OW12174   9.314   8.116   1.929
70114SOL    HW112175   9.377   8.090   1.996
70114SOL    HW212176   9.322   8.048   1.861
70115SOL     OW12177   5.843   6.882  14.862
70115SOL    HW112178   5.871   6.833  14.785
70115SOL    HW212179   5.859   6.823   0.057
70116SOL     OW12180  14.379   4.558  13.021
70116SOL    HW112181  14.440   4.501  12.973
70116SOL    HW212182  14.431   4.633  13.047
70117SOL     OW12183   5.342  14.317  13.994
70117SOL    HW112184   5.276  14.295  13.927
70117SOL    HW212185   5.413  14.359  13.945
70118SOL     OW12186   2.527   4.418  11.204
70118SOL    HW112187   2.611   4.418  11.251
70118SOL    HW212188   2.538   4.351  11.137
70119SOL     OW12189   4.518   2.779   0.589
70119SOL    HW112190   4.499   2.872   0.603
70119SOL    HW212191   4.596   2.762   0.641
70120SOL     OW12192   6.988   7.436  13.363
70120SOL    HW112193   6.972   7.450  13.456
70120SOL    HW212194   7.040   7.511  13.335
70121SOL     OW12195   2.705   8.082   3.757
70121SOL    HW112196   2.759   8.149   3.714
70121SOL    HW212197   2.728   8.089   3.850
70122SOL     OW12198   1.296   5.851  13.168
70122SOL    HW112199   1.210   5.867  13.130
70122SOL    HW212200   1.337   5.788  13.108
70123SOL     OW12201   9.889   6.696  12.287
70123SOL    HW112202   9.891   6.601  12.290
70123SOL    HW212203   9.930   6.724  12.369
70124SOL     OW12204  14.752   7.632   9.087
70124SOL    HW112205  14.672   7.678   9.062
70124SOL    HW212206  14.730   7.539   9.079
70125SOL     OW12207  10.225   3.129  10.483
70125SOL    HW112208  10.148   3.150  10.430
70125SOL    HW212209  10.280   3.207  10.478
70126SOL     OW12210  11.099   2.746   4.404
70126SOL    HW112211  11.103   2.785   4.491
70126SOL    HW212212  11.117   2.819   4.345
70127SOL     OW12213   8.727   6.681  13.415
70127SOL    HW112214   8.715   6.730  13.496
70127SOL    HW212215   8.771   6.601  13.442
70128SOL     OW12216  12.331  12.665   6.028
70128SOL    HW112217  12.324  12.647   6.121
70128SOL    HW212218  12.257  12.617   5.989
70129SOL     OW12219   0.335   9.285   0.155
70129SOL    HW112220   0.345   9.364   0.103
70129SOL    HW212221   0.250   9.249   0.130
70130SOL     OW12222   4.104  10.511   1.458
70130SOL    HW112223   4.033  10.448   1.463
70130SOL    HW212224   4.099  10.562   1.539
70131SOL     OW12225   1.744   0.208  14.348
70131SOL    HW112226   1.759   0.213  14.443
70131SOL    HW212227   1.810   0.267  14.311
70132SOL     OW12228   6.695  12.572  12.406
70132SOL    HW112229   6.651  12.525  12.335
70132SOL    HW212230   6.704  12.662  12.374
70133SOL     OW12231  13.626  14.465  12.651
70133SOL    HW112232  13.635  14.536  12.589
70133SOL    HW212233  13.545  14.484  12.698
70134SOL     OW12234  14.307  11.819  13.540
70134SOL    HW112235  14.282  11.794  13.630
70134SOL    HW212236  14.341  11.738  13.502
70135SOL     OW12237   8.520  10.183   4.048
70135SOL    HW112238   8.507  10.089   4.036
70135SOL    HW212239   8.595  10.189   4.107
70136SOL     OW12240  12.145  13.895   6.775
70136SOL    HW112241  12.196  13.923   6.851
70136SOL    HW212242  12.055  13.892   6.807
70137SOL     OW12243   1.242   5.716   3.839
70137SOL    HW112244   1.212   5.807   3.842
70137SOL    HW212245   1.257   5.699   3.746
70138SOL     OW12246   9.944   2.135  13.753
70138SOL    HW112247   9.964   2.093  13.670
70138SOL    HW212248   9.921   2.225  13.730
70139SOL     OW12249   0.636   3.696   1.530
70139SOL    HW112250   0.722   3.713   1.569
70139SOL    HW212251   0.634   3.750   1.451
70140SOL     OW12252   9.202   5.421   6.567
70140SOL    HW112253   9.171   5.344   6.615
70140SOL    HW212254   9.292   5.432   6.597
70141SOL     OW12255   6.199  12.868   9.007
70141SOL    HW112256   6.294  12.863   8.999
70141SOL    HW212257   6.169  12.781   8.980
70142SOL     OW12258   5.526   5.026   1.660
70142SOL    HW112259   5.567   5.107   1.629
70142SOL    HW212260   5.546   5.023   1.753
70143SOL     OW12261   2.472   5.894   5.965
70143SOL    HW112262   2.387   5.850   5.961
70143SOL    HW212263   2.535   5.823   5.979
70144SOL     OW12264  10.360   8.994  11.076
70144SOL    HW112265  10.276   8.952  11.094
70144SOL    HW212266  10.348   9.035  10.990
70145SOL     OW12267   6.494   0.589   0.067
70145SOL    HW112268   6.569   0.542   0.031
70145SOL    HW212269   6.418   0.537   0.040
70146SOL     OW12270   5.743   2.906  10.885
70146SOL    HW112271   5.812   2.908  10.952
70146SOL    HW212272   5.750   2.990  10.840
70147SOL     OW12273   8.863   8.311   6.684
70147SOL    HW112274   8.832   8.252   6.753
70147SOL    HW212275   8.785   8.353   6.650
70148SOL     OW12276   8.024   8.332   4.354
70148SOL    HW112277   8.088   8.262   4.370
70148SOL    HW212278   7.995   8.359   4.441
70149SOL     OW12279   2.941   4.070   5.404
70149SOL    HW112280   3.001   4.141   5.425
70149SOL    HW212281   2.981   4.026   5.329
70150SOL     OW12282   2.911  13.440   9.413
70150SOL    HW112283   2.917  13.525   9.368
70150SOL    HW212284   2.847  13.391   9.361
70151SOL     OW12285   0.632   5.626   9.457
70151SOL    HW112286   0.726   5.629   9.440
70151SOL    HW212287   0.623   5.564   9.529
70152SOL     OW12288   9.497  14.536   4.406
70152SOL    HW112289   9.534  14.448   4.404
70152SOL    HW212290   9.572  14.595   4.401
70153SOL     OW12291   4.752  13.679   8.873
70153SOL    HW112292   4.697  13.753   8.896
70153SOL    HW212293   4.699  13.627   8.812
70154SOL     OW12294  13.950   6.686  12.168
70154SOL    HW112295  13.982   6.727  12.088
70154SOL    HW212296  14.025   6.636  12.201
70155SOL     OW12297   1.730  10.068   9.135
70155SOL    HW112298   1.760  10.006   9.068
70155SOL    HW212299   1.684  10.014   9.199
70156SOL     OW12300   1.768   2.887   3.508
70156SOL    HW112301   1.723   2.959   3.552
70156SOL    HW212302   1.733   2.888   3.419
70157SOL     OW12303   7.468   4.774   0.748
70157SOL    HW112304   7.478   4.737   0.660
70157SOL    HW212305   7.545   4.745   0.795
70158SOL     OW12306   3.267   8.162  13.478
70158SOL    HW112307   3.285   8.254  13.500
70158SOL    HW212308   3.221   8.165  13.395
70159SOL     OW12309   7.540  11.873  14.691
70159SOL    HW112310   7.618  11.902  14.643
70159SOL    HW212311   7.565  11.789  14.728
70160SOL     OW12312   8.889   3.768   9.880
70160SOL    HW112313   8.796   3.746   9.880
70160SOL    HW212314   8.919   3.744   9.967
70161SOL     OW12315  13.813  10.148   6.910
70161SOL    HW112316  13.888  10.134   6.968
70161SOL    HW212317  13.736  10.129   6.965
70162SOL     OW12318   1.925   9.921  11.239
70162SOL    HW112319   1.841   9.883  11.213
70162SOL    HW212320   1.967   9.943  11.156
70163SOL     OW12321  12.603   1.941   6.752
70163SOL    HW112322  12.672   1.882   6.782
70163SOL    HW212323  12.539   1.884   6.710
70164SOL     OW12324   1.134   3.250   9.242
70164SOL    HW112325   1.148   3.334   9.198
70164SOL    HW212326   1.143   3.270   9.335
70165SOL     OW12327   7.711   6.847   3.360
70165SOL    HW112328   7.632   6.816   3.405
70165SOL    HW212329   7.688   6.935   3.330
70166SOL     OW12330  10.256  10.964  12.572
70166SOL    HW112331  10.275  11.016  12.494
70166SOL    HW212332  10.176  10.915  12.550
70167SOL     OW12333   5.729   7.892   8.352
70167SOL    HW112334   5.810   7.916   8.396
70167SOL    HW212335   5.740   7.799   8.330
70168SOL     OW12336  10.413  12.277  11.886
70168SOL    HW112337  10.329  12.275  11.932
70168SOL    HW212338  10.471  12.225  11.941
70169SOL     OW12339  10.460   2.337   9.935
70169SOL    HW112340  10.428   2.363   9.848
70169SOL    HW212341  10.402   2.382   9.996
70170SOL     OW12342   8.935   4.958  11.197
70170SOL    HW112343   8.954   4.865  11.183
70170SOL    HW212344   8.839   4.964  11.190
70171SOL     OW12345   8.171  11.065   8.856
70171SOL    HW112346   8.102  11.081   8.791
70171SOL    HW212347   8.157  11.134   8.922
70172SOL     OW12348   5.839   9.178  12.017
70172SOL    HW112349   5.837   9.114  12.089
70172SOL    HW212350   5.766   9.152  11.961
70173SOL     OW12351  11.738  13.310   5.540
70173SOL    HW112352  11.815  13.364   5.558
70173SOL    HW212353  11.756  13.226   5.582
70174SOL     OW12354   2.054   2.898   3.479
70174SOL    HW112355   2.002   2.941   3.546
70174SOL    HW212356   2.012   2.922   3.396
70175SOL     OW12357   6.355   8.139   7.596
70175SOL    HW112358   6.385   8.211   7.540
70175SOL    HW212359   6.430   8.080   7.602
70176SOL     OW12360   1.297   3.376   6.105
70176SOL    HW112361   1.267   3.288   6.124
70176SOL    HW212362   1.381   3.384   6.151
70177SOL     OW12363  10.020   2.374   5.680
70177SOL    HW112364   9.989   2.464   5.668
70177SOL    HW212365  10.106   2.372   5.639
70178SOL     OW12366   0.595   2.738   9.821
70178SOL    HW112367   0.585   2.649   9.855
70178SOL    HW212368   0.672   2.733   9.765
70179SOL     OW12369   2.531   3.575   3.731
70179SOL    HW112370   2.515   3.663   3.764
70179SOL    HW212371   2.494   3.517   3.798
70180SOL     OW12372   1.922   8.170   8.250
70180SOL    HW112373   1.884   8.118   8.180
70180SOL    HW212374   1.991   8.115   8.288
70181SOL     OW12375  11.350  13.853  14.116
70181SOL    HW112376  11.444  13.858  14.133
70181SOL    HW212377  11.311  13.912  14.181
70182SOL     OW12378  14.061   6.941   0.842
70182SOL    HW112379  14.126   6.914   0.907
70182SOL    HW212380  13.992   6.984   0.892
70183SOL     OW12381  11.683  14.497  13.677
70183SOL    HW112382  11.769  14.530  13.703
70183SOL    HW212383  11.689  14.402  13.688
70184SOL     OW12384  14.122   7.409   4.905
70184SOL    HW112385  14.136   7.316   4.886
70184SOL    HW212386  14.028   7.416   4.924
70185SOL     OW12387   8.153  14.192   8.642
70185SOL    HW112388   8.165  14.142   8.722
70185SOL    HW212389   8.062  14.224   8.647
70186SOL     OW12390   1.051   6.383   2.932
70186SOL    HW112391   1.070   6.374   3.026
70186SOL    HW212392   1.050   6.478   2.917
70187SOL     OW12393  10.926   7.940   9.695
70187SOL    HW112394  10.970   7.907   9.773
70187SOL    HW212395  10.924   8.035   9.707
70188SOL     OW12396   3.544   5.738   0.475
70188SOL    HW112397   3.520   5.830   0.460
70188SOL    HW212398   3.494   5.689   0.410
70189SOL     OW12399   1.508   2.522   6.379
70189SOL    HW112400   1.418   2.537   6.348
70189SOL    HW212401   1.504   2.543   6.473
70190SOL     OW12402   1.392   7.582   2.278
70190SOL    HW112403   1.313   7.546   2.319
70190SOL    HW212404   1.359   7.643   2.212
70191SOL     OW12405  10.039   5.984   8.256
70191SOL    HW112406  10.064   6.024   8.339
70191SOL    HW212407  10.123   5.961   8.215
70192SOL     OW12408  14.185  13.011   8.674
70192SOL    HW112409  14.146  13.087   8.629
70192SOL    HW212410  14.141  12.935   8.636
70193SOL     OW12411   8.175   5.746   0.382
70193SOL    HW112412   8.241   5.791   0.434
70193SOL    HW212413   8.182   5.654   0.409
70194SOL     OW12414   6.432   7.960   0.820
70194SOL    HW112415   6.466   7.950   0.731
70194SOL    HW212416   6.511   7.968   0.874
70195SOL     OW12417  10.727  14.385  10.286
70195SOL    HW112418  10.777  14.321  10.336
70195SOL    HW212419  10.777  14.466  10.292
70196SOL     OW12420   5.614  10.871   3.817
70196SOL    HW112421   5.555  10.865   3.892
70196SOL    HW212422   5.558  10.858   3.741
70197SOL     OW12423  10.762   0.477  12.683
70197SOL    HW112424  10.818   0.461  12.759
70197SOL    HW212425  10.817   0.455  12.608
70198SOL     OW12426   3.577   0.426   2.315
70198SOL    HW112427   3.494   0.404   2.273
70198SOL    HW212428   3.557   0.501   2.371
70199SOL     OW12429  12.168   0.859   0.080
70199SOL    HW112430  12.148   0.912   0.157
70199SOL    HW212431  12.141   0.770   0.104
70200SOL     OW12432  11.058   1.041   7.859
70200SOL    HW112433  11.075   0.948   7.846
70200SOL    HW212434  10.963   1.047   7.869
70201SOL     OW12435   5.789   3.862  11.172
70201SOL    HW112436   5.785   3.931  11.239
70201SOL    HW212437   5.854   3.801  11.205
70202SOL     OW12438   8.936   6.992   5.855
70202SOL    HW112439   9.001   7.062   5.850
70202SOL    HW212440   8.940   6.950   5.769
70203SOL     OW12441  13.301   4.306   1.069
70203SOL    HW112442  13.297   4.211   1.062
70203SOL    HW212443  13.210   4.335   1.061
70204SOL     OW12444   4.287   1.730   7.981
70204SOL    HW112445   4.346   1.654   7.982
70204SOL    HW212446   4.281   1.756   8.073
70205SOL     OW12447   0.237   1.256   5.051
70205SOL    HW112448   0.306   1.313   5.085
70205SOL    HW212449   0.280   1.204   4.982
70206SOL     OW12450   4.257   0.092  11.921
70206SOL    HW112451   4.164   0.074  11.936
70206SOL    HW212452   4.284   0.142  11.997
70207SOL     OW12453   0.990   7.816   9.606
70207SOL    HW112454   1.032   7.853   9.683
70207SOL    HW212455   0.970   7.725   9.630
70208SOL     OW12456  13.367   6.211  13.556
70208SOL    HW112457  13.324   6.139  13.602
70208SOL    HW212458  13.300   6.280  13.552
70209SOL     OW12459  10.432  10.803   7.418
70209SOL    HW112460  10.436  10.768   7.329
70209SOL    HW212461  10.345  10.843   7.424
70210SOL     OW12462   3.531   5.514   4.724
70210SOL    HW112463   3.564   5.598   4.692
70210SOL    HW212464   3.436   5.523   4.720
70211SOL     OW12465   3.310   4.881  12.581
70211SOL    HW112466   3.257   4.887  12.501
70211SOL    HW212467   3.299   4.790  12.609
70212SOL     OW12468  10.116   1.360  11.562
70212SOL    HW112469  10.131   1.391  11.651
70212SOL    HW212470  10.180   1.290  11.549
70213SOL     OW12471   2.797   2.982   6.652
70213SOL    HW112472   2.776   2.898   6.695
70213SOL    HW212473   2.836   3.035   6.722
70214SOL     OW12474   4.665  11.277   7.015
70214SOL    HW112475   4.695  11.270   6.925
70214SOL    HW212476   4.663  11.371   7.032
70215SOL     OW12477  13.640   9.570   5.374
70215SOL    HW112478  13.621   9.648   5.426
70215SOL    HW212479  13.652   9.500   5.439
70216SOL     OW12480   4.406   9.145   2.723
70216SOL    HW112481   4.412   9.232   2.683
70216SOL    HW212482   4.479   9.096   2.685
70217SOL     OW12483   3.533  12.254   7.379
70217SOL    HW112484   3.603  12.208   7.426
70217SOL    HW212485   3.574  12.284   7.298
70218SOL     OW12486   7.799   1.402   7.154
70218SOL    HW112487   7.816   1.494   7.174
70218SOL    HW212488   7.704   1.393   7.158
70219SOL     OW12489   8.918   1.618   4.264
70219SOL    HW112490   9.008   1.588   4.277
70219SOL    HW212491   8.921   1.670   4.184
70220SOL     OW12492   5.961   6.236   9.473
70220SOL    HW112493   6.027   6.291   9.514
70220SOL    HW212494   5.973   6.149   9.512
70221SOL     OW12495  10.599   8.972  14.685
70221SOL    HW112496  10.593   9.059  14.725
70221SOL    HW212497  10.508   8.943  14.679
70222SOL     OW12498   0.187  10.390   4.335
70222SOL    HW112499   0.195  10.363   4.426
70222SOL    HW212500   0.094  10.377   4.313
70223SOL     OW12501  14.008   8.207   7.988
70223SOL    HW112502  14.046   8.251   8.064
70223SOL    HW212503  14.073   8.142   7.962
70224SOL     OW12504  11.233   4.597   7.034
70224SOL    HW112505  11.146   4.637   7.031
70224SOL    HW212506  11.240   4.549   6.951
70225SOL     OW12507   6.660  11.389  14.467
70225SOL    HW112508   6.688  11.302  14.437
70225SOL    HW212509   6.598  11.418  14.400
70226SOL     OW12510   0.995  10.035   3.949
70226SOL    HW112511   0.944  10.024   4.029
70226SOL    HW212512   1.086  10.042   3.980
70227SOL     OW12513  11.728   6.659   9.266
70227SOL    HW112514  11.648   6.702   9.234
70227SOL    HW212515  11.732   6.577   9.218
70228SOL     OW12516   2.177   8.511  11.966
70228SOL    HW112517   2.116   8.438  11.953
70228SOL    HW212518   2.227   8.516  11.885
70229SOL     OW12519  13.283  11.822  13.458
70229SOL    HW112520  13.369  11.849  13.427
70229SOL    HW212521  13.275  11.731  13.430
70230SOL     OW12522  13.161   6.316   9.427
70230SOL    HW112523  13.174   6.272   9.510
70230SOL    HW212524  13.090   6.379   9.444
70231SOL     OW12525   8.257   3.054   3.757
70231SOL    HW112526   8.203   3.027   3.683
70231SOL    HW212527   8.342   3.075   3.718
70232SOL     OW12528   3.547  13.026   1.431
70232SOL    HW112529   3.523  12.937   1.454
70232SOL    HW212530   3.464  13.074   1.429
70233SOL     OW12531  14.257  11.210   1.230
70233SOL    HW112532  14.164  11.193   1.247
70233SOL    HW212533  14.265  11.306   1.234
70234SOL     OW12534   0.839  13.647   3.550
70234SOL    HW112535   0.920  13.604   3.522
70234SOL    HW212536   0.868  13.721   3.604
70235SOL     OW12537   0.016   9.011   0.889
70235SOL    HW112538   0.005   9.043   0.800
70235SOL    HW212539  14.851   9.076   0.944
70236SOL     OW12540   4.519   5.191   7.973
70236SOL    HW112541   4.509   5.280   8.005
70236SOL    HW212542   4.451   5.183   7.906
70237SOL     OW12543   5.926   1.467  10.784
70237SOL    HW112544   5.851   1.421  10.823
70237SOL    HW212545   6.000   1.408  10.799
70238SOL     OW12546   0.881  14.486   4.028
70238SOL    HW112547   0.841  14.407   3.990
70238SOL    HW212548   0.949  14.510   3.965
70239SOL     OW12549   6.635  14.412   8.775
70239SOL    HW112550   6.624  14.488   8.832
70239SOL    HW212551   6.556  14.412   8.720
70240SOL     OW12552  11.935   6.832   7.539
70240SOL    HW112553  11.950   6.926   7.533
70240SOL    HW212554  12.004   6.793   7.484
70241SOL     OW12555  13.764   2.760   7.703
70241SOL    HW112556  13.816   2.710   7.641
70241SOL    HW212557  13.676   2.761   7.666
70242SOL     OW12558   0.279   7.810   6.989
70242SOL    HW112559   0.339   7.825   6.916
70242SOL    HW212560   0.193   7.803   6.949
70243SOL     OW12561   3.993   1.932   0.593
70243SOL    HW112562   3.972   1.878   0.517
70243SOL    HW212563   4.051   1.878   0.646
70244SOL     OW12564   6.826   5.742   2.357
70244SOL    HW112565   6.910   5.785   2.345
70244SOL    HW212566   6.780   5.797   2.421
70245SOL     OW12567   5.941  10.755   2.822
70245SOL    HW112568   5.914  10.727   2.909
70245SOL    HW212569   5.978  10.842   2.835
70246SOL     OW12570   6.240  10.118  10.191
70246SOL    HW112571   6.274  10.119  10.281
70246SOL    HW212572   6.239  10.026  10.166
70247SOL     OW12573   1.067   8.084  12.582
70247SOL    HW112574   1.033   8.101  12.495
70247SOL    HW212575   1.029   8.000  12.607
70248SOL     OW12576   5.347  11.012   2.647
70248SOL    HW112577   5.280  11.032   2.582
70248SOL    HW212578   5.317  11.057   2.726
70249SOL     OW12579   0.362   4.084   9.012
70249SOL    HW112580   0.415   4.129   9.078
70249SOL    HW212581   0.350   4.149   8.943
70250SOL     OW12582   8.974  10.816   9.489
70250SOL    HW112583   8.891  10.838   9.446
70250SOL    HW212584   8.948  10.787   9.577
70251SOL     OW12585   2.950   4.793  14.282
70251SOL    HW112586   3.001   4.868  14.312
70251SOL    HW212587   2.929   4.813  14.191
70252SOL     OW12588   6.334   1.004   1.818
70252SOL    HW112589   6.342   1.003   1.723
70252SOL    HW212590   6.340   1.097   1.842
70253SOL     OW12591   2.833  12.345   5.835
70253SOL    HW112592   2.897  12.372   5.900
70253SOL    HW212593   2.770  12.292   5.883
70254SOL     OW12594   4.568   0.306   0.815
70254SOL    HW112595   4.663   0.302   0.819
70254SOL    HW212596   4.545   0.261   0.734
70255SOL     OW12597  13.014   0.057   4.012
70255SOL    HW112598  12.983   0.129   4.068
70255SOL    HW212599  12.970  14.858   4.047
70256SOL     OW12600   7.845   1.078   8.519
70256SOL    HW112601   7.796   1.125   8.586
70256SOL    HW212602   7.915   1.139   8.494
70257SOL     OW12603   7.523   9.330   4.755
70257SOL    HW112604   7.602   9.275   4.762
70257SOL    HW212605   7.537   9.382   4.677
70258SOL     OW12606   0.318   1.427  11.989
70258SOL    HW112607   0.355   1.351  11.944
70258SOL    HW212608   0.341   1.415  12.081
70259SOL     OW12609   3.203   9.474   9.917
70259SOL    HW112610   3.256   9.431   9.984
70259SOL    HW212611   3.114   9.477   9.954
70260SOL     OW12612   3.417   0.869  12.407
70260SOL    HW112613   3.389   0.778  12.409
70260SOL    HW212614   3.506   0.868  12.441
70261SOL     OW12615  12.237  12.405  13.737
70261SOL    HW112616  12.190  12.386  13.819
70261SOL    HW212617  12.306  12.339  13.733
70262SOL     OW12618   2.600   5.050   5.213
70262SOL    HW112619   2.567   5.059   5.303
70262SOL    HW212620   2.550   4.978   5.176
70263SOL     OW12621  14.660   8.067   2.089
70263SOL    HW112622  14.637   8.091   2.179
70263SOL    HW212623  14.751   8.096   2.079
70264SOL     OW12624   3.405  11.511  13.224
70264SOL    HW112625   3.311  11.514  13.209
70264SOL    HW212626   3.440  11.584  13.173
70265SOL     OW12627   6.936  11.619   8.218
70265SOL    HW112628   6.863  11.621   8.279
70265SOL    HW212629   7.014  11.628   8.273
70266SOL     OW12630   1.620   3.815   9.695
70266SOL    HW112631   1.556   3.782   9.758
70266SOL    HW212632   1.700   3.765   9.713
70267SOL     OW12633   7.287  11.619   3.858
70267SOL    HW112634   7.278  11.524   3.862
70267SOL    HW212635   7.364  11.633   3.803
70268SOL     OW12636  13.183   8.739   2.742
70268SOL    HW112637  13.155   8.687   2.818
70268SOL    HW212638  13.277   8.752   2.756
70269SOL     OW12639  12.415   0.175   5.972
70269SOL    HW112640  12.505   0.151   5.953
70269SOL    HW212641  12.407   0.164   6.067
70270SOL     OW12642  11.235  11.277   0.847
70270SOL    HW112643  11.226  11.313   0.936
70270SOL    HW212644  11.195  11.343   0.790
70271SOL     OW12645  13.535   5.260   8.481
70271SOL    HW112646  13.455   5.278   8.530
70271SOL    HW212647  13.604   5.304   8.530
70272SOL     OW12648   1.907   3.138  12.215
70272SOL    HW112649   1.974   3.069  12.223
70272SOL    HW212650   1.851   3.108  12.143
70273SOL     OW12651  14.070  10.068  14.503
70273SOL    HW112652  14.014  10.092  14.576
70273SOL    HW212653  14.013  10.073  14.426
70274SOL     OW12654   4.660   1.809  11.283
70274SOL    HW112655   4.729   1.844  11.225
70274SOL    HW212656   4.613   1.746  11.229
70275SOL     OW12657   9.751   4.862  13.938
70275SOL    HW112658   9.718   4.947  13.966
70275SOL    HW212659   9.737   4.861  13.843
70276SOL     OW12660  10.085   2.980   1.570
70276SOL    HW112661  10.155   2.921   1.597
70276SOL    HW212662  10.031   2.991   1.648
70277SOL     OW12663  14.618  13.403  12.005
70277SOL    HW112664  14.608  13.391  11.911
70277SOL    HW212665  14.642  13.317  12.038
70278SOL     OW12666  12.525  11.940   0.277
70278SOL    HW112667  12.557  11.935   0.367
70278SOL    HW212668  12.585  12.001   0.233
70279SOL     OW12669   4.219   3.367   6.084
70279SOL    HW112670   4.238   3.457   6.112
70279SOL    HW212671   4.142   3.376   6.027
70280SOL     OW12672   2.416  14.687   8.658
70280SOL    HW112673   2.498  14.733   8.640
70280SOL    HW212674   2.349  14.754   8.654
70281SOL     OW12675   2.436   1.816  10.810
70281SOL    HW112676   2.493   1.890  10.830
70281SOL    HW212677   2.487   1.739  10.835
70282SOL     OW12678   2.925   7.465   8.415
70282SOL    HW112679   2.884   7.527   8.475
70282SOL    HW212680   2.937   7.386   8.467
70283SOL     OW12681   2.121   4.822  13.127
70283SOL    HW112682   2.044   4.852  13.079
70283SOL    HW212683   2.168   4.767  13.065
70284SOL     OW12684   8.506   0.045   4.648
70284SOL    HW112685   8.561   0.092   4.710
70284SOL    HW212686   8.564  14.858   4.610
70285SOL     OW12687  11.963  11.151   4.107
70285SOL    HW112688  12.037  11.176   4.163
70285SOL    HW212689  11.999  11.148   4.019
70286SOL     OW12690   7.034   8.872   8.060
70286SOL    HW112691   7.040   8.819   7.980
70286SOL    HW212692   7.032   8.963   8.029
70287SOL     OW12693   9.225  10.503   1.168
70287SOL    HW112694   9.260  10.426   1.212
70287SOL    HW212695   9.211  10.475   1.077
70288SOL     OW12696   0.092   1.797   6.561
70288SOL    HW112697   0.065   1.889   6.553
70288SOL    HW212698   0.116   1.770   6.473
70289SOL     OW12699   4.959   0.369   8.772
70289SOL    HW112700   5.018   0.397   8.703
70289SOL    HW212701   5.013   0.368   8.851
70290SOL     OW12702  12.397   8.469   4.428
70290SOL    HW112703  12.380   8.556   4.464
70290SOL    HW212704  12.468   8.482   4.366
70291SOL     OW12705   0.905   7.302   0.851
70291SOL    HW112706   0.985   7.260   0.817
70291SOL    HW212707   0.936   7.383   0.891
70292SOL     OW12708   2.245  13.445  12.764
70292SOL    HW112709   2.242  13.366  12.817
70292SOL    HW212710   2.259  13.413  12.675
70293SOL     OW12711   8.555  11.643   0.113
70293SOL    HW112712   8.634  11.698   0.111
70293SOL    HW212713   8.585  11.557   0.084
70294SOL     OW12714   2.421   2.052   5.687
70294SOL    HW112715   2.446   2.103   5.610
70294SOL    HW212716   2.502   2.044   5.737
70295SOL     OW12717   3.640   0.100   9.173
70295SOL    HW112718   3.650   0.154   9.094
70295SOL    HW212719   3.703   0.029   9.162
70296SOL     OW12720   3.461  13.103  10.186
70296SOL    HW112721   3.518  13.090  10.262
70296SOL    HW212722   3.401  13.029  10.188
70297SOL     OW12723   1.163   9.377  13.127
70297SOL    HW112724   1.085   9.367  13.072
70297SOL    HW212725   1.154   9.463  13.166
70298SOL     OW12726   0.717   9.423  14.559
70298SOL    HW112727   0.786   9.381  14.508
70298SOL    HW212728   0.654   9.353  14.575
70299SOL     OW12729   1.457   0.396   6.308
70299SOL    HW112730   1.392   0.466   6.308
70299SOL    HW212731   1.531   0.432   6.358
70300SOL     OW12732   3.707  10.477   2.078
70300SOL    HW112733   3.784  10.524   2.049
70300SOL    HW212734   3.735  10.433   2.159
70301SOL     OW12735   1.819   8.076  14.314
70301SOL    HW112736   1.906   8.103  14.345
70301SOL    HW212737   1.813   7.983  14.337
70302SOL     OW12738   7.034  10.849   0.768
70302SOL    HW112739   6.973  10.900   0.821
70302SOL    HW212740   7.077  10.913   0.712
70303SOL     OW12741   6.193   0.037  12.985
70303SOL    HW112742   6.265   0.076  12.936
70303SOL    HW212743   6.233  14.844  13.034
70304SOL     OW12744   4.058   5.703   1.676
70304SOL    HW112745   4.101   5.655   1.605
70304SOL    HW212746   4.036   5.788   1.638
70305SOL     OW12747   6.009   1.407   5.436
70305SOL    HW112748   6.011   1.311   5.436
70305SOL    HW212749   5.929   1.429   5.389
70306SOL     OW12750  13.818   0.633   8.538
70306SOL    HW112751  13.864   0.553   8.561
70306SOL    HW212752  13.729   0.620   8.570
70307SOL     OW12753  12.313   0.538   9.143
70307SOL    HW112754  12.261   0.577   9.212
70307SOL    HW212755  12.350   0.459   9.182
70308SOL     OW12756  12.328  13.977  12.929
70308SOL    HW112757  12.350  13.969  13.022
70308SOL    HW212758  12.246  14.027  12.928
70309SOL     OW12759  13.718   1.918  12.203
70309SOL    HW112760  13.675   1.989  12.250
70309SOL    HW212761  13.649   1.882  12.147
70310SOL     OW12762   5.531   6.110   2.344
70310SOL    HW112763   5.476   6.062   2.406
70310SOL    HW212764   5.485   6.102   2.260
70311SOL     OW12765  12.530   5.909  14.855
70311SOL    HW112766  12.454   5.894  14.799
70311SOL    HW212767  12.521   5.843   0.046
70312SOL     OW12768   0.245   3.490  13.584
70312SOL    HW112769   0.247   3.576  13.542
70312SOL    HW212770   0.197   3.435  13.522
70313SOL     OW12771  11.267   6.988   8.752
70313SOL    HW112772  11.278   7.004   8.659
70313SOL    HW212773  11.224   7.068   8.785
70314SOL     OW12774   8.286   6.981  12.692
70314SOL    HW112775   8.343   6.910  12.722
70314SOL    HW212776   8.228   6.939  12.628
70315SOL     OW12777  12.649  12.673  11.834
70315SOL    HW112778  12.576  12.727  11.802
70315SOL    HW212779  12.607  12.604  11.885
70316SOL     OW12780   3.452   8.233  12.684
70316SOL    HW112781   3.363   8.265  12.693
70316SOL    HW212782   3.445   8.138  12.691
70317SOL     OW12783   6.503   5.672   6.467
70317SOL    HW112784   6.420   5.627   6.480
70317SOL    HW212785   6.557   5.610   6.417
70318SOL     OW12786   6.025   3.039   8.022
70318SOL    HW112787   5.947   3.002   7.980
70318SOL    HW212788   6.085   3.058   7.950
70319SOL     OW12789   6.049   3.067   1.379
70319SOL    HW112790   5.999   3.146   1.403
70319SOL    HW212791   6.078   3.084   1.290
70320SOL     OW12792   4.308   8.813   4.485
70320SOL    HW112793   4.355   8.896   4.483
70320SOL    HW212794   4.281   8.802   4.576
70321SOL     OW12795   1.132  12.039  12.440
70321SOL    HW112796   1.191  11.985  12.388
70321SOL    HW212797   1.093  12.100  12.378
70322SOL     OW12798  14.138   3.643  12.643
70322SOL    HW112799  14.220   3.677  12.679
70322SOL    HW212800  14.071   3.668  12.707
70323SOL     OW12801   4.893   8.779  13.177
70323SOL    HW112802   4.810   8.737  13.156
70323SOL    HW212803   4.957   8.735  13.123
70324SOL     OW12804  10.289  12.784   7.785
70324SOL    HW112805  10.241  12.705   7.810
70324SOL    HW212806  10.324  12.764   7.698
70325SOL     OW12807  14.224   3.587  12.964
70325SOL    HW112808  14.293   3.596  12.899
70325SOL    HW212809  14.230   3.666  13.017
70326SOL     OW12810  11.316  13.286  11.535
70326SOL    HW112811  11.312  13.255  11.445
70326SOL    HW212812  11.366  13.367  11.530
70327SOL     OW12813   8.967   9.239   6.323
70327SOL    HW112814   9.063   9.238   6.321
70327SOL    HW212815   8.941   9.171   6.260
70328SOL     OW12816   9.840   0.082   1.378
70328SOL    HW112817   9.766   0.097   1.437
70328SOL    HW212818   9.832   0.150   1.312
70329SOL     OW12819   9.018   4.302  11.709
70329SOL    HW112820   9.111   4.279  11.711
70329SOL    HW212821   9.015   4.393  11.738
70330SOL     OW12822  10.345   1.111   0.757
70330SOL    HW112823  10.361   1.195   0.713
70330SOL    HW212824  10.282   1.131   0.826
70331SOL     OW12825   0.446   8.767  13.772
70331SOL    HW112826   0.538   8.783  13.794
70331SOL    HW212827   0.397   8.827  13.829
70332SOL     OW12828   0.908   2.442   0.327
70332SOL    HW112829   0.983   2.468   0.380
70332SOL    HW212830   0.912   2.346   0.326
70333SOL     OW12831   7.781   6.821  10.055
70333SOL    HW112832   7.762   6.797   9.965
70333SOL    HW212833   7.701   6.801  10.103
70334SOL     OW12834   5.905  13.145   0.141
70334SOL    HW112835   5.989  13.126   0.100
70334SOL    HW212836   5.843  13.152   0.068
70335SOL     OW12837  14.608   3.144  12.421
70335SOL    HW112838  14.606   3.062  12.371
70335SOL    HW212839  14.588   3.212  12.357
70336SOL     OW12840  12.218  11.131   4.907
70336SOL    HW112841  12.310  11.142   4.930
70336SOL    HW212842  12.182  11.075   4.977
70337SOL     OW12843  11.528   3.360   1.146
70337SOL    HW112844  11.612   3.324   1.119
70337SOL    HW212845  11.545   3.453   1.163
70338SOL     OW12846   3.763   8.094   0.278
70338SOL    HW112847   3.831   8.102   0.210
70338SOL    HW212848   3.729   8.006   0.268
70339SOL     OW12849   3.796   2.760   1.608
70339SOL    HW112850   3.748   2.830   1.564
70339SOL    HW212851   3.795   2.687   1.546
70340SOL     OW12852   5.150   1.199  11.040
70340SOL    HW112853   5.197   1.154  11.110
70340SOL    HW212854   5.097   1.131  10.998
70341SOL     OW12855   4.066   1.798   9.666
70341SOL    HW112856   4.050   1.741   9.741
70341SOL    HW212857   4.023   1.880   9.688
70342SOL     OW12858  13.573   1.928   3.847
70342SOL    HW112859  13.589   2.019   3.822
70342SOL    HW212860  13.586   1.878   3.765
70343SOL     OW12861   7.828   0.732  12.321
70343SOL    HW112862   7.909   0.746  12.370
70343SOL    HW212863   7.856   0.725  12.230
70344SOL     OW12864   3.391   1.762  13.882
70344SOL    HW112865   3.393   1.858  13.887
70344SOL    HW212866   3.337   1.735  13.956
70345SOL     OW12867   8.580   6.501   4.006
70345SOL    HW112868   8.536   6.553   4.073
70345SOL    HW212869   8.641   6.446   4.054
70346SOL     OW12870   3.703   9.302   0.023
70346SOL    HW112871   3.612   9.277   0.037
70346SOL    HW212872   3.698   9.383  14.851
70347SOL     OW12873   7.535  14.539   3.882
70347SOL    HW112874   7.485  14.536   3.964
70347SOL    HW212875   7.620  14.576   3.907
70348SOL     OW12876   5.890   4.271   4.778
70348SOL    HW112877   5.964   4.323   4.808
70348SOL    HW212878   5.884   4.287   4.684
70349SOL     OW12879   0.926   6.190   5.520
70349SOL    HW112880   1.008   6.171   5.474
70349SOL    HW212881   0.894   6.270   5.477
70350SOL     OW12882   9.013   6.689  10.663
70350SOL    HW112883   9.081   6.675  10.597
70350SOL    HW212884   9.018   6.783  10.683
70351SOL     OW12885   7.700  14.352  10.510
70351SOL    HW112886   7.724  14.432  10.464
70351SOL    HW212887   7.741  14.360  10.596
70352SOL     OW12888   7.675   1.331   9.685
70352SOL    HW112889   7.622   1.375   9.752
70352SOL    HW212890   7.676   1.392   9.611
70353SOL     OW12891   6.055  11.844  10.751
70353SOL    HW112892   6.088  11.907  10.815
70353SOL    HW212893   6.072  11.886  10.666
70354SOL     OW12894   6.625   2.148   1.495
70354SOL    HW112895   6.698   2.204   1.522
70354SOL    HW212896   6.575   2.201   1.434
70355SOL     OW12897   6.253   4.841  11.619
70355SOL    HW112898   6.182   4.813  11.561
70355SOL    HW212899   6.316   4.769  11.616
70356SOL     OW12900   5.500   5.192   9.131
70356SOL    HW112901   5.431   5.194   9.065
70356SOL    HW212902   5.456   5.213   9.213
70357SOL     OW12903  11.718   3.388  10.046
70357SOL    HW112904  11.696   3.480  10.031
70357SOL    HW212905  11.636   3.348  10.076
70358SOL     OW12906  12.654  11.875   9.995
70358SOL    HW112907  12.738  11.918  10.010
70358SOL    HW212908  12.640  11.823  10.074
70359SOL     OW12909  13.298   8.741   5.419
70359SOL    HW112910  13.217   8.701   5.387
70359SOL    HW212911  13.365   8.712   5.357
70360SOL     OW12912  13.079  14.742   1.376
70360SOL    HW112913  13.023  14.691   1.435
70360SOL    HW212914  13.133  14.676   1.332
70361SOL     OW12915  12.683  11.501   5.661
70361SOL    HW112916  12.609  11.496   5.721
70361SOL    HW212917  12.643  11.508   5.574
70362SOL     OW12918   1.827  10.751   2.739
70362SOL    HW112919   1.862  10.699   2.667
70362SOL    HW212920   1.743  10.710   2.759
70363SOL     OW12921   2.069   7.708  10.630
70363SOL    HW112922   2.072   7.693  10.724
70363SOL    HW212923   2.088   7.622  10.592
70364SOL     OW12924  14.704   1.762  12.114
70364SOL    HW112925  14.707   1.669  12.140
70364SOL    HW212926  14.701   1.760  12.019
70365SOL     OW12927   0.150   5.366   3.799
70365SOL    HW112928   0.236   5.394   3.828
70365SOL    HW212929   0.114   5.319   3.874
70366SOL     OW12930   5.428  11.166  13.818
70366SOL    HW112931   5.502  11.227  13.807
70366SOL    HW212932   5.416  11.127  13.731
70367SOL     OW12933  14.288   9.672   4.289
70367SOL    HW112934  14.195   9.684   4.308
70367SOL    HW212935  14.301   9.577   4.291
70368SOL     OW12936   3.759   9.091   3.315
70368SOL    HW112937   3.843   9.134   3.332
70368SOL    HW212938   3.778   8.997   3.325
70369SOL     OW12939   5.112   6.421  13.531
70369SOL    HW112940   5.126   6.475  13.609
70369SOL    HW212941   5.072   6.341  13.565
70370SOL     OW12942   0.613   6.033   3.933
70370SOL    HW112943   0.642   6.107   3.880
70370SOL    HW212944   0.693   5.981   3.946
70371SOL     OW12945   8.648   7.069   2.708
70371SOL    HW112946   8.624   6.998   2.768
70371SOL    HW212947   8.577   7.133   2.717
70372SOL     OW12948   1.949  14.875  11.577
70372SOL    HW112949   1.988  14.788  11.574
70372SOL    HW212950   1.886  14.870  11.649
70373SOL     OW12951  12.535   8.296   8.480
70373SOL    HW112952  12.509   8.304   8.572
70373SOL    HW212953  12.531   8.386   8.446
70374SOL     OW12954   3.013  12.815   1.205
70374SOL    HW112955   3.038  12.774   1.289
70374SOL    HW212956   2.929  12.774   1.183
70375SOL     OW12957   7.224   8.479  11.645
70375SOL    HW112958   7.142   8.519  11.616
70375SOL    HW212959   7.281   8.552  11.666
70376SOL     OW12960   5.065  11.874   9.582
70376SOL    HW112961   5.102  11.930   9.513
70376SOL    HW212962   5.140  11.824   9.615
70377SOL     OW12963  12.455  13.784   2.577
70377SOL    HW112964  12.404  13.865   2.573
70377SOL    HW212965  12.390  13.715   2.589
70378SOL     OW12966   1.480   7.510   2.555
70378SOL    HW112967   1.445   7.541   2.472
70378SOL    HW212968   1.414   7.533   2.620
70379SOL     OW12969   9.927   0.684   5.844
70379SOL    HW112970   9.954   0.729   5.924
70379SOL    HW212971   9.971   0.599   5.848
70380SOL     OW12972   9.384   7.367  10.789
70380SOL    HW112973   9.321   7.300  10.817
70380SOL    HW212974   9.397   7.421  10.868
70381SOL     OW12975  13.086   4.721   7.814
70381SOL    HW112976  13.142   4.749   7.742
70381SOL    HW212977  13.144   4.717   7.890
70382SOL     OW12978  14.035   6.284   5.374
70382SOL    HW112979  14.087   6.360   5.347
70382SOL    HW212980  14.092   6.209   5.358
70383SOL     OW12981  12.796  11.204  12.662
70383SOL    HW112982  12.802  11.117  12.621
70383SOL    HW212983  12.865  11.255  12.620
70384SOL     OW12984  10.581   2.693   3.849
70384SOL    HW112985  10.598   2.617   3.906
70384SOL    HW212986  10.618   2.767   3.896
70385SOL     OW12987   3.605   9.071   1.743
70385SOL    HW112988   3.653   9.098   1.821
70385SOL    HW212989   3.541   9.141   1.728
70386SOL     OW12990   6.417  14.051   9.695
70386SOL    HW112991   6.417  14.065   9.601
70386SOL    HW212992   6.487  13.987   9.711
70387SOL     OW12993  12.421  11.623   8.547
70387SOL    HW112994  12.355  11.673   8.595
70387SOL    HW212995  12.395  11.532   8.557
70388SOL     OW12996   3.195   9.367  13.860
70388SOL    HW112997   3.184   9.423  13.783
70388SOL    HW212998   3.149   9.286  13.837
70389SOL     OW12999   4.604   8.075  12.939
70389SOL    HW113000   4.699   8.072  12.948
70389SOL    HW213001   4.589   8.084  12.845
70390SOL     OW13002   2.337   8.710  14.520
70390SOL    HW113003   2.369   8.629  14.481
70390SOL    HW213004   2.242   8.698  14.525
70391SOL     OW13005   0.342   1.975  13.898
70391SOL    HW113006   0.281   2.045  13.923
70391SOL    HW213007   0.417   2.021  13.860
70392SOL     OW13008  13.837   3.425   5.713
70392SOL    HW113009  13.794   3.380   5.640
70392SOL    HW213010  13.804   3.515   5.709
70393SOL     OW13011   0.773   1.764   6.095
70393SOL    HW113012   0.693   1.724   6.127
70393SOL    HW213013   0.840   1.697   6.108
70394SOL     OW13014   9.935   0.682   6.988
70394SOL    HW113015   9.905   0.626   6.917
70394SOL    HW213016   9.965   0.762   6.944
70395SOL     OW13017   3.684   1.668   8.525
70395SOL    HW113018   3.606   1.612   8.529
70395SOL    HW213019   3.704   1.689   8.616
70396SOL     OW13020  14.097   1.403  10.363
70396SOL    HW113021  14.180   1.390  10.410
70396SOL    HW213022  14.091   1.327  10.305
70397SOL     OW13023   2.133   4.342   7.412
70397SOL    HW113024   2.076   4.419   7.400
70397SOL    HW213025   2.205   4.356   7.352
70398SOL     OW13026   7.769   1.405   3.765
70398SOL    HW113027   7.841   1.354   3.726
70398SOL    HW213028   7.690   1.360   3.737
70399SOL     OW13029   3.453   7.346   2.667
70399SOL    HW113030   3.507   7.344   2.588
70399SOL    HW213031   3.473   7.264   2.712
70400SOL     OW13032   8.006  14.164  13.371
70400SOL    HW113033   8.036  14.185  13.283
70400SOL    HW213034   7.926  14.112  13.357
70401SOL     OW13035   8.465   4.212   0.536
70401SOL    HW113036   8.394   4.207   0.600
70401SOL    HW213037   8.485   4.121   0.515
70402SOL     OW13038  13.861   5.268   1.667
70402SOL    HW113039  13.847   5.197   1.604
70402SOL    HW213040  13.845   5.229   1.752
70403SOL     OW13041   3.289   8.022   6.795
70403SOL    HW113042   3.306   7.986   6.882
70403SOL    HW213043   3.370   8.068   6.772
70404SOL     OW13044  10.886   2.979   9.299
70404SOL    HW113045  10.923   3.066   9.313
70404SOL    HW213046  10.901   2.933   9.381
70405SOL     OW13047  10.058  11.124   6.704
70405SOL    HW113048  10.120  11.052   6.709
70405SOL    HW213049   9.997  11.099   6.634
70406SOL     OW13050   2.643   0.597  10.022
70406SOL    HW113051   2.640   0.520  10.078
70406SOL    HW213052   2.693   0.661  10.074
70407SOL     OW13053  10.391  14.782  10.963
70407SOL    HW113054  10.348  14.748  11.041
70407SOL    HW213055  10.331  14.849  10.929
70408SOL     OW13056  14.803  10.941   5.487
70408SOL    HW113057  14.808  10.959   5.581
70408SOL    HW213058   0.016  10.943   5.458
70409SOL     OW13059   5.373   9.374   3.138
70409SOL    HW113060   5.451   9.420   3.170
70409SOL    HW213061   5.314   9.373   3.214
70410SOL     OW13062  12.790   8.884   4.503
70410SOL    HW113063  12.799   8.810   4.443
70410SOL    HW213064  12.879   8.919   4.512
70411SOL     OW13065   2.400   1.236   7.047
70411SOL    HW113066   2.360   1.162   7.093
70411SOL    HW213067   2.394   1.213   6.954
70412SOL     OW13068  11.732  13.765   0.594
70412SOL    HW113069  11.776  13.825   0.535
70412SOL    HW213070  11.771  13.680   0.576
70413SOL     OW13071   9.481  11.620   7.369
70413SOL    HW113072   9.404  11.636   7.314
70413SOL    HW213073   9.498  11.704   7.411
70414SOL     OW13074   5.876   1.885  11.641
70414SOL    HW113075   5.956   1.838  11.619
70414SOL    HW213076   5.849   1.849  11.725
70415SOL     OW13077  14.765   0.465  10.322
70415SOL    HW113078  14.745   0.385  10.372
70415SOL    HW213079  14.831   0.437  10.259
70416SOL     OW13080  14.868   1.137   7.382
70416SOL    HW113081   0.084   1.132   7.399
70416SOL    HW213082  14.853   1.229   7.359
70417SOL     OW13083   3.487  10.781   3.310
70417SOL    HW113084   3.401  10.762   3.348
70417SOL    HW213085   3.469  10.811   3.221
70418SOL     OW13086  12.984  10.590  13.549
70418SOL    HW113087  13.041  10.635  13.486
70418SOL    HW213088  12.951  10.514  13.502
70419SOL     OW13089   0.877  12.345   5.561
70419SOL    HW113090   0.929  12.424   5.579
70419SOL    HW213091   0.893  12.328   5.468
70420SOL     OW13092  13.725   1.420  12.671
70420SOL    HW113093  13.762   1.444  12.756
70420SOL    HW213094  13.670   1.495  12.647
70421SOL     OW13095   9.019   2.403   1.916
70421SOL    HW113096   8.978   2.318   1.928
70421SOL    HW213097   8.947   2.461   1.892
70422SOL     OW13098   3.927   2.686  12.293
70422SOL    HW113099   3.912   2.778  12.312
70422SOL    HW213100   3.944   2.683  12.199
70423SOL     OW13101  11.345  14.679   9.780
70423SOL    HW113102  11.355  14.763   9.826
70423SOL    HW213103  11.403  14.686   9.704
70424SOL     OW13104  11.794  14.693   9.414
70424SOL    HW113105  11.838  14.725   9.493
70424SOL    HW213106  11.778  14.771   9.362
70425SOL     OW13107   6.108  10.955   9.837
70425SOL    HW113108   6.149  10.890   9.779
70425SOL    HW213109   6.182  11.007   9.869
70426SOL     OW13110   5.445   2.777  11.664
70426SOL    HW113111   5.482   2.833  11.732
70426SOL    HW213112   5.435   2.692  11.705
70427SOL     OW13113  14.685   6.435  12.679
70427SOL    HW113114  14.658   6.384  12.602
70427SOL    HW213115  14.653   6.386  12.754
70428SOL     OW13116   5.406   5.961   3.190
70428SOL    HW113117   5.353   5.959   3.110
70428SOL    HW213118   5.486   6.006   3.165
70429SOL     OW13119  11.061   9.041  13.593
70429SOL    HW113120  11.033   9.087  13.672
70429SOL    HW213121  11.073   8.951  13.622
70430SOL     OW13122  13.101   5.076   9.893
70430SOL    HW113123  13.017   5.051   9.930
70430SOL    HW213124  13.164   5.015   9.932
70431SOL     OW13125   7.781  11.057   3.323
70431SOL    HW113126   7.720  10.997   3.364
70431SOL    HW213127   7.815  11.009   3.248
70432SOL     OW13128  13.687   7.237  11.797
70432SOL    HW113129  13.674   7.234  11.892
70432SOL    HW213130  13.660   7.325  11.771
70433SOL     OW13131   6.175   1.205   2.033
70433SOL    HW113132   6.118   1.128   2.034
70433SOL    HW213133   6.116   1.279   2.046
70434SOL     OW13134  13.214   5.763   8.616
70434SOL    HW113135  13.183   5.726   8.533
70434SOL    HW213136  13.144   5.744   8.678
70435SOL     OW13137   9.542   5.882  11.763
70435SOL    HW113138   9.570   5.808  11.817
70435SOL    HW213139   9.579   5.865  11.677
70436SOL     OW13140   7.640   7.243   0.283
70436SOL    HW113141   7.671   7.236   0.374
70436SOL    HW213142   7.716   7.218   0.230
70437SOL     OW13143  11.958   2.691   3.424
70437SOL    HW113144  11.885   2.634   3.399
70437SOL    HW213145  12.025   2.675   3.358
70438SOL     OW13146   1.766  12.898   8.474
70438SOL    HW113147   1.689  12.896   8.416
70438SOL    HW213148   1.743  12.962   8.542
70439SOL     OW13149   8.204   4.952  10.984
70439SOL    HW113150   8.138   4.996  11.038
70439SOL    HW213151   8.231   5.018  10.920
70440SOL     OW13152   9.680   7.642   7.755
70440SOL    HW113153   9.746   7.641   7.685
70440SOL    HW213154   9.669   7.734   7.776
70441SOL     OW13155   5.322   9.800   2.387
70441SOL    HW113156   5.302   9.821   2.479
70441SOL    HW213157   5.388   9.731   2.392
70442SOL     OW13158  12.162   6.714   4.303
70442SOL    HW113159  12.172   6.713   4.398
70442SOL    HW213160  12.240   6.760   4.271
70443SOL     OW13161   6.563  12.880   8.133
70443SOL    HW113162   6.624  12.822   8.179
70443SOL    HW213163   6.619  12.943   8.088
70444SOL     OW13164   4.577   4.867   6.631
70444SOL    HW113165   4.590   4.955   6.595
70444SOL    HW213166   4.490   4.842   6.600
70445SOL     OW13167   3.418   1.631   8.521
70445SOL    HW113168   3.374   1.715   8.515
70445SOL    HW213169   3.383   1.580   8.448
70446SOL     OW13170   6.656  12.174   2.852
70446SOL    HW113171   6.662  12.217   2.767
70446SOL    HW213172   6.746  12.168   2.883
70447SOL     OW13173  13.095   7.455  12.880
70447SOL    HW113174  13.044   7.457  12.961
70447SOL    HW213175  13.112   7.362  12.865
70448SOL     OW13176   6.183   8.851   9.586
70448SOL    HW113177   6.184   8.946   9.575
70448SOL    HW213178   6.093   8.830   9.608
70449SOL     OW13179  10.429   7.303   5.462
70449SOL    HW113180  10.472   7.218   5.476
70449SOL    HW213181  10.491   7.367   5.494
70450SOL     OW13182  13.761   7.347   4.125
70450SOL    HW113183  13.794   7.305   4.046
70450SOL    HW213184  13.703   7.416   4.094
70451SOL     OW13185   2.653  13.179  10.213
70451SOL    HW113186   2.638  13.111  10.146
70451SOL    HW213187   2.595  13.154  10.284
70452SOL     OW13188   0.226   1.821   6.818
70452SOL    HW113189   0.144   1.827   6.770
70452SOL    HW213190   0.232   1.903   6.866
70453SOL     OW13191   3.897   3.568  10.412
70453SOL    HW113192   3.895   3.513  10.490
70453SOL    HW213193   3.813   3.550  10.369
70454SOL     OW13194   9.268   6.330  10.339
70454SOL    HW113195   9.297   6.242  10.362
70454SOL    HW213196   9.280   6.381  10.418
70455SOL     OW13197   2.110   6.156   7.966
70455SOL    HW113198   2.015   6.168   7.964
70455SOL    HW213199   2.132   6.132   7.876
70456SOL     OW13200   1.665   4.115  12.498
70456SOL    HW113201   1.749   4.152  12.523
70456SOL    HW213202   1.619   4.102  12.581
70457SOL     OW13203  13.515   3.024   3.191
70457SOL    HW113204  13.607   3.008   3.212
70457SOL    HW213205  13.494   2.961   3.123
70458SOL     OW13206   6.841   8.699   9.205
70458SOL    HW113207   6.914   8.715   9.264
70458SOL    HW213208   6.837   8.777   9.150
70459SOL     OW13209   2.087   0.018   0.073
70459SOL    HW113210   2.126  14.835   0.011
70459SOL    HW213211   2.014   0.057   0.024
70460SOL     OW13212   8.585   4.315  13.007
70460SOL    HW113213   8.602   4.313  12.913
70460SOL    HW213214   8.636   4.242  13.042
70461SOL     OW13215   8.034   0.342   4.118
70461SOL    HW113216   7.958   0.400   4.110
70461SOL    HW213217   8.048   0.308   4.030
70462SOL     OW13218  12.677   3.341  13.760
70462SOL    HW113219  12.650   3.378  13.844
70462SOL    HW213220  12.649   3.405  13.695
70463SOL     OW13221   3.123  13.450   2.499
70463SOL    HW113222   3.155  13.401   2.424
70463SOL    HW213223   3.185  13.431   2.569
70464SOL     OW13224   5.048  13.739   5.992
70464SOL    HW113225   4.997  13.818   5.977
70464SOL    HW213226   5.079  13.747   6.082
70465SOL     OW13227   3.192   0.490   0.220
70465SOL    HW113228   3.115   0.461   0.268
70465SOL    HW213229   3.214   0.575   0.258
70466SOL     OW13230   9.776   4.399   3.950
70466SOL    HW113231   9.716   4.427   4.020
70466SOL    HW213232   9.863   4.409   3.989
70467SOL     OW13233   6.186   9.769   9.075
70467SOL    HW113234   6.162   9.712   9.002
70467SOL    HW213235   6.281   9.773   9.072
70468SOL     OW13236   4.670  12.057   1.015
70468SOL    HW113237   4.700  11.996   1.082
70468SOL    HW213238   4.745  12.115   1.000
70469SOL     OW13239   6.375   6.046   9.270
70469SOL    HW113240   6.451   6.079   9.318
70469SOL    HW213241   6.342   6.122   9.222
70470SOL     OW13242   0.277   8.547  14.801
70470SOL    HW113243   0.218   8.510  14.736
70470SOL    HW213244   0.274   8.642  14.785
70471SOL     OW13245   5.893   6.264   4.090
70471SOL    HW113246   5.874   6.201   4.160
70471SOL    HW213247   5.945   6.215   4.026
70472SOL     OW13248   3.573   1.475   3.688
70472SOL    HW113249   3.580   1.383   3.662
70472SOL    HW213250   3.545   1.472   3.779
70473SOL     OW13251   2.669   1.776   1.450
70473SOL    HW113252   2.666   1.761   1.356
70473SOL    HW213253   2.707   1.863   1.459
70474SOL     OW13254   2.703   0.819  10.605
70474SOL    HW113255   2.639   0.890  10.612
70474SOL    HW213256   2.680   0.775  10.523
70475SOL     OW13257   2.271   6.170  11.541
70475SOL    HW113258   2.235   6.083  11.524
70475SOL    HW213259   2.315   6.163  11.625
70476SOL     OW13260  10.356   0.777   5.483
70476SOL    HW113261  10.298   0.782   5.559
70476SOL    HW213262  10.322   0.842   5.421
70477SOL     OW13263   3.849   3.397  13.566
70477SOL    HW113264   3.833   3.403  13.472
70477SOL    HW213265   3.903   3.318  13.576
70478SOL     OW13266  13.462  12.456  11.439
70478SOL    HW113267  13.425  12.402  11.509
70478SOL    HW213268  13.469  12.396  11.365
70479SOL     OW13269  10.195  13.964   0.830
70479SOL    HW113270  10.238  13.930   0.751
70479SOL    HW213271  10.259  14.025   0.867
70480SOL     OW13272   2.646   2.735   7.088
70480SOL    HW113273   2.657   2.701   7.177
70480SOL    HW213274   2.582   2.675   7.048
70481SOL     OW13275   0.452  10.269   8.133
70481SOL    HW113276   0.500  10.257   8.215
70481SOL    HW213277   0.390  10.340   8.152
70482SOL     OW13278  12.520   2.387   6.005
70482SOL    HW113279  12.606   2.363   5.971
70482SOL    HW213280  12.494   2.313   6.060
70483SOL     OW13281  12.784   4.937  13.567
70483SOL    HW113282  12.720   4.984  13.621
70483SOL    HW213283  12.820   4.870  13.625
70484SOL     OW13284   0.942   3.517   2.471
70484SOL    HW113285   0.934   3.611   2.452
70484SOL    HW213286   1.007   3.485   2.408
70485SOL     OW13287   1.286   4.850   8.758
70485SOL    HW113288   1.348   4.916   8.725
70485SOL    HW213289   1.200   4.889   8.745
70486SOL     OW13290   7.174   6.978   5.560
70486SOL    HW113291   7.182   6.982   5.465
70486SOL    HW213292   7.157   6.886   5.579
70487SOL     OW13293  12.783   9.093  10.567
70487SOL    HW113294  12.720   9.044  10.514
70487SOL    HW213295  12.865   9.089  10.518
70488SOL     OW13296   4.277   6.148   9.751
70488SOL    HW113297   4.237   6.105   9.826
70488SOL    HW213298   4.213   6.213   9.724
70489SOL     OW13299   7.956  14.000   3.318
70489SOL    HW113300   7.875  13.955   3.342
70489SOL    HW213301   7.950  14.085   3.362
70490SOL     OW13302   6.046  12.106   8.067
70490SOL    HW113303   6.105  12.119   8.141
70490SOL    HW213304   6.054  12.186   8.016
70491SOL     OW13305   2.209   8.652  11.437
70491SOL    HW113306   2.151   8.618  11.368
70491SOL    HW213307   2.206   8.747  11.426
70492SOL     OW13308   2.632   1.584  10.559
70492SOL    HW113309   2.658   1.564  10.469
70492SOL    HW213310   2.695   1.649  10.589
70493SOL     OW13311  14.154   4.576   7.649
70493SOL    HW113312  14.110   4.515   7.708
70493SOL    HW213313  14.217   4.522   7.602
70494SOL     OW13314   2.100   5.800   6.116
70494SOL    HW113315   2.086   5.887   6.079
70494SOL    HW213316   2.012   5.763   6.127
70495SOL     OW13317   2.346  13.128   8.710
70495SOL    HW113318   2.307  13.086   8.787
70495SOL    HW213319   2.278  13.125   8.644
70496SOL     OW13320   0.945   5.352  13.696
70496SOL    HW113321   0.963   5.338  13.603
70496SOL    HW213322   1.006   5.421  13.722
70497SOL     OW13323   5.787   0.838  14.458
70497SOL    HW113324   5.838   0.803  14.531
70497SOL    HW213325   5.769   0.929  14.483
70498SOL     OW13326  12.478  13.194   1.426
70498SOL    HW113327  12.548  13.132   1.447
70498SOL    HW213328  12.480  13.258   1.497
70499SOL     OW13329  10.692  13.133   7.276
70499SOL    HW113330  10.698  13.228   7.276
70499SOL    HW213331  10.755  13.105   7.342
70500SOL     OW13332  11.307  10.532   8.229
70500SOL    HW113333  11.284  10.439   8.236
70500SOL    HW213334  11.365  10.549   8.303
70501SOL     OW13335  13.896  14.849   9.945
70501SOL    HW113336  13.967   0.034   9.954
70501SOL    HW213337  13.819   0.023   9.923
70502SOL     OW13338  13.270   0.517   7.608
70502SOL    HW113339  13.187   0.564   7.597
70502SOL    HW213340  13.246   0.425   7.611
70503SOL     OW13341   3.800  10.432  10.290
70503SOL    HW113342   3.791  10.382  10.209
70503SOL    HW213343   3.759  10.376  10.357
70504SOL     OW13344   4.100   8.774   7.382
70504SOL    HW113345   4.097   8.814   7.469
70504SOL    HW213346   4.032   8.819   7.332
70505SOL     OW13347   8.652  11.771   8.569
70505SOL    HW113348   8.578  11.769   8.629
70505SOL    HW213349   8.694  11.856   8.586
70506SOL     OW13350   2.764   3.695  14.138
70506SOL    HW113351   2.723   3.747  14.068
70506SOL    HW213352   2.690   3.660  14.188
70507SOL     OW13353   5.140  14.084  10.897
70507SOL    HW113354   5.160  14.154  10.960
70507SOL    HW213355   5.045  14.070  10.907
70508SOL     OW13356   5.169   5.377   5.791
70508SOL    HW113357   5.166   5.463   5.749
70508SOL    HW213358   5.191   5.396   5.882
70509SOL     OW13359  12.051   2.169   0.736
70509SOL    HW113360  11.993   2.103   0.773
70509SOL    HW213361  12.093   2.210   0.812
70510SOL     OW13362   1.608   8.878  11.865
70510SOL    HW113363   1.535   8.818  11.855
70510SOL    HW213364   1.570   8.955  11.908
70511SOL     OW13365  14.177   7.621  13.423
70511SOL    HW113366  14.202   7.559  13.492
70511SOL    HW213367  14.091   7.652  13.448
70512SOL     OW13368   4.055  12.225   0.813
70512SOL    HW113369   4.073  12.148   0.867
70512SOL    HW213370   3.970  12.257   0.845
70513SOL     OW13371   7.261   0.448   7.631
70513SOL    HW113372   7.203   0.418   7.561
70513SOL    HW213373   7.329   0.381   7.635
70514SOL     OW13374   2.974  10.804   3.235
70514SOL    HW113375   2.980  10.869   3.165
70514SOL    HW213376   2.932  10.728   3.195
70515SOL     OW13377   0.099   7.936  10.928
70515SOL    HW113378   0.157   8.012  10.937
70515SOL    HW213379   0.136   7.870  10.986
70516SOL     OW13380  11.682  13.571  10.906
70516SOL    HW113381  11.652  13.569  10.997
70516SOL    HW213382  11.765  13.617  10.910
70517SOL     OW13383   3.752  13.439   3.178
70517SOL    HW113384   3.811  13.385   3.126
70517SOL    HW213385   3.726  13.510   3.120
70518SOL     OW13386   6.908   5.291   9.857
70518SOL    HW113387   6.885   5.212   9.907
70518SOL    HW213388   6.955   5.258   9.781
70519SOL     OW13389   9.056  14.666   9.968
70519SOL    HW113390   9.140  14.682   9.925
70519SOL    HW213391   9.072  14.684  10.060
70520SOL     OW13392   1.406  10.698   7.094
70520SOL    HW113393   1.397  10.732   7.182
70520SOL    HW213394   1.326  10.647   7.080
70521SOL     OW13395   0.623  11.112   1.297
70521SOL    HW113396   0.613  11.079   1.386
70521SOL    HW213397   0.688  11.055   1.257
70522SOL     OW13398   6.892  10.144   8.602
70522SOL    HW113399   6.906  10.152   8.508
70522SOL    HW213400   6.953  10.206   8.641
70523SOL     OW13401  13.246  12.144   0.318
70523SOL    HW113402  13.297  12.224   0.304
70523SOL    HW213403  13.305  12.073   0.291
70524SOL     OW13404  10.544   9.008   6.744
70524SOL    HW113405  10.449   9.000   6.749
70524SOL    HW213406  10.576   8.967   6.824
70525SOL     OW13407   2.961  12.020  10.672
70525SOL    HW113408   3.051  12.018  10.640
70525SOL    HW213409   2.908  12.038  10.594
70526SOL     OW13410  14.064   9.821   1.528
70526SOL    HW113411  14.076   9.842   1.620
70526SOL    HW213412  14.153   9.819   1.492
70527SOL     OW13413   8.667   9.176   3.998
70527SOL    HW113414   8.679   9.244   4.065
70527SOL    HW213415   8.671   9.094   4.046
70528SOL     OW13416  10.092   0.536   7.539
70528SOL    HW113417  10.128   0.487   7.465
70528SOL    HW213418  10.007   0.496   7.555
70529SOL     OW13419  14.072   5.829  11.890
70529SOL    HW113420  13.991   5.842  11.938
70529SOL    HW213421  14.125   5.772  11.947
70530SOL     OW13422   2.603  11.123   7.430
70530SOL    HW113423   2.562  11.051   7.382
70530SOL    HW213424   2.630  11.184   7.362
70531SOL     OW13425   6.265  14.300  10.808
70531SOL    HW113426   6.277  14.260  10.722
70531SOL    HW213427   6.215  14.380  10.791
70532SOL     OW13428   3.428   6.011   6.396
70532SOL    HW113429   3.472   6.090   6.426
70532SOL    HW213430   3.387   6.035   6.313
70533SOL     OW13431   9.621   4.438   9.063
70533SOL    HW113432   9.555   4.381   9.102
70533SOL    HW213433   9.705   4.398   9.086
70534SOL     OW13434   1.992   1.242  13.736
70534SOL    HW113435   1.936   1.165  13.741
70534SOL    HW213436   2.018   1.260  13.826
70535SOL     OW13437   7.963   9.662  11.545
70535SOL    HW113438   7.881   9.691  11.502
70535SOL    HW213439   7.959   9.702  11.632
70536SOL     OW13440   2.014   0.160   2.870
70536SOL    HW113441   1.976   0.141   2.784
70536SOL    HW213442   2.010   0.255   2.877
70537SOL     OW13443   2.279   0.619   3.454
70537SOL    HW113444   2.193   0.651   3.426
70537SOL    HW213445   2.274   0.615   3.550
70538SOL     OW13446   1.119   9.910  12.446
70538SOL    HW113447   1.098  10.003  12.439
70538SOL    HW213448   1.066   9.868  12.378
70539SOL     OW13449  11.535   5.167   4.843
70539SOL    HW113450  11.619   5.141   4.880
70539SOL    HW213451  11.469   5.123   4.897
70540SOL     OW13452   3.528   6.719   7.089
70540SOL    HW113453   3.613   6.741   7.128
70540SOL    HW213454   3.542   6.727   6.995
70541SOL     OW13455  10.482  12.278   4.657
70541SOL    HW113456  10.514  12.309   4.741
70541SOL    HW213457  10.555  12.228   4.620
70542SOL     OW13458   7.856  10.148   1.076
70542SOL    HW113459   7.882  10.100   1.155
70542SOL    HW213460   7.790  10.091   1.036
70543SOL     OW13461   7.691   4.462   4.340
70543SOL    HW113462   7.656   4.374   4.336
70543SOL    HW213463   7.786   4.450   4.342
70544SOL     OW13464   2.166  10.936   7.193
70544SOL    HW113465   2.149  11.015   7.244
70544SOL    HW213466   2.084  10.917   7.149
70545SOL     OW13467  12.277   5.058   0.333
70545SOL    HW113468  12.228   5.014   0.401
70545SOL    HW213469  12.211   5.087   0.270
70546SOL     OW13470   9.621   2.232   2.859
70546SOL    HW113471   9.587   2.142   2.852
70546SOL    HW213472   9.687   2.227   2.928
70547SOL     OW13473   5.009   6.241   2.450
70547SOL    HW113474   4.978   6.328   2.475
70547SOL    HW213475   5.067   6.256   2.376
70548SOL     OW13476  10.531   7.187  14.222
70548SOL    HW113477  10.586   7.237  14.283
70548SOL    HW213478  10.512   7.248  14.151
70549SOL     OW13479   7.377   8.241   3.948
70549SOL    HW113480   7.316   8.315   3.953
70549SOL    HW213481   7.330   8.169   3.990
70550SOL     OW13482   6.839   3.571  10.114
70550SOL    HW113483   6.907   3.638  10.109
70550SOL    HW213484   6.858   3.525  10.196
70551SOL     OW13485   6.229   1.436   9.389
70551SOL    HW113486   6.319   1.466   9.391
70551SOL    HW213487   6.184   1.496   9.330
70552SOL     OW13488   4.736  11.429   3.430
70552SOL    HW113489   4.831  11.420   3.418
70552SOL    HW213490   4.719  11.384   3.513
70553SOL     OW13491  11.580   4.120  13.394
70553SOL    HW113492  11.512   4.186  13.406
70553SOL    HW213493  11.606   4.129  13.302
70554SOL     OW13494  12.248   2.612  13.819
70554SOL    HW113495  12.337   2.589  13.848
70554SOL    HW213496  12.218   2.535  13.772
70555SOL     OW13497  13.442  13.652   4.184
70555SOL    HW113498  13.426  13.643   4.278
70555SOL    HW213499  13.365  13.697   4.151
70556SOL     OW13500   7.953   6.590   3.358
70556SOL    HW113501   7.883   6.590   3.423
70556SOL    HW213502   8.034   6.590   3.409
70557SOL     OW13503   6.863   9.893   4.573
70557SOL    HW113504   6.779   9.912   4.532
70557SOL    HW213505   6.872   9.798   4.569
70558SOL     OW13506   8.862   6.114   0.069
70558SOL    HW113507   8.777   6.149   0.095
70558SOL    HW213508   8.873   6.144  14.858
70559SOL     OW13509   4.123   7.664   3.753
70559SOL    HW113510   4.117   7.642   3.660
70559SOL    HW213511   4.128   7.760   3.755
70560SOL     OW13512  12.939   9.473  10.808
70560SOL    HW113513  12.969   9.407  10.745
70560SOL    HW213514  12.975   9.555  10.776
70561SOL     OW13515   8.826   3.455   9.789
70561SOL    HW113516   8.919   3.443   9.810
70561SOL    HW213517   8.825   3.470   9.694
70562SOL     OW13518  13.823  14.469   8.790
70562SOL    HW113519  13.741  14.519   8.786
70562SOL    HW213520  13.853  14.466   8.699
70563SOL     OW13521   2.509   5.393  13.354
70563SOL    HW113522   2.570   5.463  13.333
70563SOL    HW213523   2.564   5.318  13.378
70564SOL     OW13524   6.110  12.626  13.257
70564SOL    HW113525   6.050  12.566  13.213
70564SOL    HW213526   6.072  12.713  13.243
70565SOL     OW13527   8.329   4.953   1.895
70565SOL    HW113528   8.330   4.895   1.819
70565SOL    HW213529   8.420   4.980   1.906
70566SOL     OW13530  12.590   7.167   3.986
70566SOL    HW113531  12.657   7.195   4.049
70566SOL    HW213532  12.580   7.073   4.000
70567SOL     OW13533   7.515   5.192  14.312
70567SOL    HW113534   7.483   5.260  14.253
70567SOL    HW213535   7.579   5.143  14.261
70568SOL     OW13536   3.312   5.962   5.370
70568SOL    HW113537   3.365   5.953   5.449
70568SOL    HW213538   3.222   5.970   5.402
70569SOL     OW13539  14.418   0.862  14.185
70569SOL    HW113540  14.451   0.919  14.116
70569SOL    HW213541  14.452   0.900  14.266
70570SOL     OW13542  14.827   3.990   9.374
70570SOL    HW113543  14.764   4.059   9.354
70570SOL    HW213544   0.033   4.025   9.344
70571SOL     OW13545  12.746   9.031   5.531
70571SOL    HW113546  12.739   9.008   5.623
70571SOL    HW213547  12.830   9.077   5.524
70572SOL     OW13548   8.399   0.115   9.268
70572SOL    HW113549   8.422   0.022   9.271
70572SOL    HW213550   8.403   0.137   9.175
70573SOL     OW13551  14.281   5.414   6.123
70573SOL    HW113552  14.216   5.449   6.185
70573SOL    HW213553  14.324   5.343   6.171
70574SOL     OW13554   4.277   2.464   1.736
70574SOL    HW113555   4.367   2.476   1.765
70574SOL    HW213556   4.237   2.551   1.742
70575SOL     OW13557  12.219   3.844  12.729
70575SOL    HW113558  12.227   3.794  12.648
70575SOL    HW213559  12.131   3.824  12.761
70576SOL     OW13560   0.722  12.948   9.110
70576SOL    HW113561   0.749  13.016   9.048
70576SOL    HW213562   0.701  12.873   9.055
70577SOL     OW13563   3.057  11.084   4.405
70577SOL    HW113564   3.062  11.100   4.499
70577SOL    HW213565   3.015  10.999   4.397
70578SOL     OW13566   6.374   4.996  10.921
70578SOL    HW113567   6.414   4.950  10.848
70578SOL    HW213568   6.445   5.050  10.957
70579SOL     OW13569   7.023  13.532   0.999
70579SOL    HW113570   7.084  13.605   0.993
70579SOL    HW213571   7.031  13.486   0.915
70580SOL     OW13572   0.625   7.675   1.453
70580SOL    HW113573   0.683   7.635   1.388
70580SOL    HW213574   0.617   7.766   1.426
70581SOL     OW13575   2.510   9.959  12.042
70581SOL    HW113576   2.438   9.936  11.983
70581SOL    HW213577   2.575  10.001  11.985
70582SOL     OW13578   7.296   1.880   1.887
70582SOL    HW113579   7.240   1.853   1.813
70582SOL    HW213580   7.320   1.970   1.867
70583SOL     OW13581  10.817  11.030  11.888
70583SOL    HW113582  10.770  11.020  11.806
70583SOL    HW213583  10.909  11.029  11.863
70584SOL     OW13584  13.996   9.727   4.230
70584SOL    HW113585  13.958   9.801   4.182
70584SOL    HW213586  13.970   9.650   4.179
70585SOL     OW13587   7.568  13.754  11.755
70585SOL    HW113588   7.527  13.684  11.805
70585SOL    HW213589   7.654  13.765  11.795
70586SOL     OW13590   2.028  11.779  11.029
70586SOL    HW113591   1.951  11.831  11.007
70586SOL    HW213592   2.051  11.734  10.947
70587SOL     OW13593   0.795   4.468  11.211
70587SOL    HW113594   0.708   4.441  11.240
70587SOL    HW213595   0.781   4.499  11.121
70588SOL     OW13596  10.831   4.372   4.465
70588SOL    HW113597  10.884   4.300   4.499
70588SOL    HW213598  10.865   4.450   4.509
70589SOL     OW13599   3.962   0.869  10.032
70589SOL    HW113600   3.968   0.962  10.051
70589SOL    HW213601   3.998   0.860   9.943
70590SOL     OW13602   7.907   0.165   1.016
70590SOL    HW113603   7.931   0.257   1.017
70590SOL    HW213604   7.926   0.134   1.105
70591SOL     OW13605   2.344  14.334   2.839
70591SOL    HW113606   2.383  14.278   2.772
70591SOL    HW213607   2.250  14.318   2.832
70592SOL     OW13608   4.089  14.362   7.765
70592SOL    HW113609   4.136  14.308   7.829
70592SOL    HW213610   4.094  14.451   7.801
70593SOL     OW13611   0.743  13.000   5.165
70593SOL    HW113612   0.683  12.926   5.163
70593SOL    HW213613   0.795  12.988   5.245
70594SOL     OW13614   8.852   8.411   3.621
70594SOL    HW113615   8.908   8.449   3.688
70594SOL    HW213616   8.873   8.460   3.541
70595SOL     OW13617   9.888  12.459   0.396
70595SOL    HW113618   9.949  12.487   0.329
70595SOL    HW213619   9.932  12.386   0.440
70596SOL     OW13620   9.331   1.639  12.082
70596SOL    HW113621   9.350   1.639  11.988
70596SOL    HW213622   9.387   1.708  12.118
70597SOL     OW13623   5.542   2.628   9.732
70597SOL    HW113624   5.587   2.711   9.750
70597SOL    HW213625   5.581   2.597   9.650
70598SOL     OW13626  11.780  13.799   6.169
70598SOL    HW113627  11.810  13.889   6.155
70598SOL    HW213628  11.704  13.790   6.113
70599SOL     OW13629   4.142   1.605   4.818
70599SOL    HW113630   4.054   1.623   4.784
70599SOL    HW213631   4.199   1.666   4.772
70600SOL     OW13632  13.680   5.293  14.219
70600SOL    HW113633  13.694   5.212  14.170
70600SOL    HW213634  13.767   5.319  14.248
70601SOL     OW13635   1.425  12.704   2.074
70601SOL    HW113636   1.490  12.722   2.142
70601SOL    HW213637   1.347  12.677   2.123
70602SOL     OW13638  14.065   9.054  14.506
70602SOL    HW113639  14.130   9.038  14.575
70602SOL    HW213640  14.011   8.975  14.504
70603SOL     OW13641   0.312   8.060   0.742
70603SOL    HW113642   0.301   8.037   0.649
70603SOL    HW213643   0.226   8.043   0.781
70604SOL     OW13644  12.550  12.652   0.999
70604SOL    HW113645  12.615  12.678   1.064
70604SOL    HW213646  12.599  12.601   0.935
70605SOL     OW13647  10.150  10.473   1.618
70605SOL    HW113648  10.059  10.473   1.588
70605SOL    HW213649  10.157  10.550   1.674
70606SOL     OW13650   1.488  10.244   5.989
70606SOL    HW113651   1.435  10.202   6.057
70606SOL    HW213652   1.467  10.337   5.995
70607SOL     OW13653   7.614   4.171  10.996
70607SOL    HW113654   7.542   4.233  11.006
70607SOL    HW213655   7.589   4.117  10.920
70608SOL     OW13656   6.061  13.445  11.160
70608SOL    HW113657   5.971  13.455  11.189
70608SOL    HW213658   6.072  13.351  11.145
70609SOL     OW13659   7.158   7.780  10.232
70609SOL    HW113660   7.120   7.847  10.175
70609SOL    HW213661   7.198   7.718  10.171
70610SOL     OW13662   3.440  12.175   0.387
70610SOL    HW113663   3.397  12.175   0.301
70610SOL    HW213664   3.455  12.083   0.406
70611SOL     OW13665   3.958  12.075  12.024
70611SOL    HW113666   3.893  12.015  11.986
70611SOL    HW213667   4.037  12.059  11.973
70612SOL     OW13668   5.041  11.580   5.407
70612SOL    HW113669   5.086  11.521   5.468
70612SOL    HW213670   5.082  11.665   5.422
70613SOL     OW13671  14.573   1.026  14.041
70613SOL    HW113672  14.627   1.065  14.109
70613SOL    HW213673  14.635   0.984  13.982
70614SOL     OW13674   6.938   9.006   1.766
70614SOL    HW113675   7.023   9.025   1.804
70614SOL    HW213676   6.954   8.939   1.700
70615SOL     OW13677   5.795   9.884  13.106
70615SOL    HW113678   5.739   9.962  13.108
70615SOL    HW213679   5.884   9.919  13.100
70616SOL     OW13680  10.943   6.066   3.410
70616SOL    HW113681  10.919   6.074   3.318
70616SOL    HW213682  10.894   5.989   3.441
70617SOL     OW13683   2.475   3.424   5.242
70617SOL    HW113684   2.466   3.516   5.216
70617SOL    HW213685   2.427   3.418   5.325
70618SOL     OW13686  12.591   5.916  12.893
70618SOL    HW113687  12.609   5.833  12.850
70618SOL    HW213688  12.670   5.968  12.878
70619SOL     OW13689   9.903  12.062   1.801
70619SOL    HW113690   9.930  12.099   1.717
70619SOL    HW213691   9.968  11.995   1.819
70620SOL     OW13692   7.413  11.179  10.310
70620SOL    HW113693   7.327  11.209  10.341
70620SOL    HW213694   7.427  11.226  10.228
70621SOL     OW13695   3.485  12.463  11.516
70621SOL    HW113696   3.464  12.382  11.561
70621SOL    HW213697   3.570  12.489  11.550
70622SOL     OW13698   0.752   3.807  10.515
70622SOL    HW113699   0.739   3.727  10.465
70622SOL    HW213700   0.673   3.815  10.569
70623SOL     OW13701   7.954   0.247  14.051
70623SOL    HW113702   7.948   0.238  13.956
70623SOL    HW213703   7.865   0.268  14.080
70624SOL     OW13704   3.876  12.934  13.572
70624SOL    HW113705   3.911  13.005  13.520
70624SOL    HW213706   3.805  12.897  13.518
70625SOL     OW13707  12.853   6.781   8.977
70625SOL    HW113708  12.883   6.710   8.920
70625SOL    HW213709  12.934   6.828   8.999
70626SOL     OW13710   0.293   2.355  11.248
70626SOL    HW113711   0.289   2.447  11.220
70626SOL    HW213712   0.378   2.348  11.291
70627SOL     OW13713   2.169  13.141   3.700
70627SOL    HW113714   2.262  13.159   3.687
70627SOL    HW213715   2.149  13.180   3.785
70628SOL     OW13716   0.682   8.933   5.735
70628SOL    HW113717   0.672   8.875   5.660
70628SOL    HW213718   0.622   9.006   5.717
70629SOL     OW13719   5.792  10.336   9.953
70629SOL    HW113720   5.860  10.315  10.016
70629SOL    HW213721   5.752  10.416   9.986
70630SOL     OW13722  11.829  11.371  12.045
70630SOL    HW113723  11.802  11.456  12.009
70630SOL    HW213724  11.924  11.369  12.034
70631SOL     OW13725   0.491  11.264  11.301
70631SOL    HW113726   0.514  11.356  11.298
70631SOL    HW213727   0.439  11.254  11.381
70632SOL     OW13728   1.502  10.086   7.331
70632SOL    HW113729   1.589  10.060   7.300
70632SOL    HW213730   1.488  10.033   7.410
70633SOL     OW13731  12.360   3.686   9.067
70633SOL    HW113732  12.364   3.606   9.016
70633SOL    HW213733  12.402   3.664   9.150
70634SOL     OW13734   4.848   6.178   6.793
70634SOL    HW113735   4.941   6.189   6.810
70634SOL    HW213736   4.830   6.236   6.719
70635SOL     OW13737   3.701   8.844   2.902
70635SOL    HW113738   3.628   8.815   2.957
70635SOL    HW213739   3.669   8.923   2.858
70636SOL     OW13740   3.323   7.800   0.179
70636SOL    HW113741   3.350   7.785   0.088
70636SOL    HW213742   3.260   7.872   0.174
70637SOL     OW13743   6.726   0.986   3.412
70637SOL    HW113744   6.753   0.922   3.345
70637SOL    HW213745   6.778   0.962   3.488
70638SOL     OW13746  11.838  11.184  11.062
70638SOL    HW113747  11.884  11.208  11.142
70638SOL    HW213748  11.889  11.112  11.025
70639SOL     OW13749  12.239   5.131  14.233
70639SOL    HW113750  12.262   5.039  14.246
70639SOL    HW213751  12.157   5.128  14.182
70640SOL     OW13752   5.063   5.079   4.466
70640SOL    HW113753   5.139   5.078   4.408
70640SOL    HW213754   5.082   5.149   4.529
70641SOL     OW13755  14.029   7.168   3.329
70641SOL    HW113756  14.025   7.104   3.399
70641SOL    HW213757  14.062   7.120   3.254
70642SOL     OW13758   8.966   4.378   6.537
70642SOL    HW113759   9.048   4.332   6.548
70642SOL    HW213760   8.988   4.454   6.483
70643SOL     OW13761   1.488  12.897  10.770
70643SOL    HW113762   1.483  12.993  10.777
70643SOL    HW213763   1.551  12.872  10.837
70644SOL     OW13764   7.883  12.883   2.137
70644SOL    HW113765   7.804  12.934   2.118
70644SOL    HW213766   7.930  12.878   2.054
70645SOL     OW13767   3.649  10.722   8.580
70645SOL    HW113768   3.645  10.631   8.610
70645SOL    HW213769   3.706  10.719   8.503
70646SOL     OW13770   0.643   0.933   1.916
70646SOL    HW113771   0.723   0.979   1.941
70646SOL    HW213772   0.622   0.878   1.991
70647SOL     OW13773   6.589  13.766   6.162
70647SOL    HW113774   6.666  13.797   6.114
70647SOL    HW213775   6.532  13.843   6.167
70648SOL     OW13776   6.312   7.624   3.416
70648SOL    HW113777   6.349   7.536   3.409
70648SOL    HW213778   6.218   7.612   3.401
70649SOL     OW13779   4.158   7.866   9.347
70649SOL    HW113780   4.098   7.938   9.324
70649SOL    HW213781   4.188   7.888   9.435
70650SOL     OW13782  12.993   7.162   1.316
70650SOL    HW113783  13.041   7.197   1.391
70650SOL    HW213784  12.916   7.218   1.309
70651SOL     OW13785   2.406   5.728  14.658
70651SOL    HW113786   2.359   5.796  14.609
70651SOL    HW213787   2.477   5.702  14.599
70652SOL     OW13788  12.321  10.965   4.198
70652SOL    HW113789  12.287  10.982   4.111
70652SOL    HW213790  12.342  10.872   4.198
70653SOL     OW13791   7.319  10.074   0.560
70653SOL    HW113792   7.272  10.073   0.644
70653SOL    HW213793   7.249  10.083   0.495
70654SOL     OW13794   4.005   0.672   1.276
70654SOL    HW113795   4.078   0.678   1.214
70654SOL    HW213796   3.944   0.740   1.248
70655SOL     OW13797   6.565  11.531   1.805
70655SOL    HW113798   6.640  11.587   1.783
70655SOL    HW213799   6.497  11.591   1.833
70656SOL     OW13800  13.730  10.449  14.803
70656SOL    HW113801  13.780  10.443  14.721
70656SOL    HW213802  13.641  10.471  14.774
70657SOL     OW13803   6.177   3.375   5.930
70657SOL    HW113804   6.273   3.384   5.931
70657SOL    HW213805   6.146   3.447   5.984
70658SOL     OW13806  10.875   7.621   3.399
70658SOL    HW113807  10.798   7.565   3.405
70658SOL    HW213808  10.846   7.695   3.345
70659SOL     OW13809  13.844   9.843  10.182
70659SOL    HW113810  13.930   9.827  10.141
70659SOL    HW213811  13.797   9.761  10.171
70660SOL     OW13812   5.928   6.620   9.175
70660SOL    HW113813   6.017   6.590   9.158
70660SOL    HW213814   5.915   6.694   9.116
70661SOL     OW13815   1.457   1.580  12.492
70661SOL    HW113816   1.552   1.579  12.480
70661SOL    HW213817   1.445   1.616  12.580
70662SOL     OW13818  12.410   1.802   5.724
70662SOL    HW113819  12.504   1.794   5.741
70662SOL    HW213820  12.381   1.870   5.785
70663SOL     OW13821  13.716   7.669   6.186
70663SOL    HW113822  13.697   7.762   6.199
70663SOL    HW213823  13.724   7.659   6.092
70664SOL     OW13824  10.978   6.203   1.388
70664SOL    HW113825  11.058   6.177   1.434
70664SOL    HW213826  10.920   6.128   1.395
70665SOL     OW13827   7.323   8.661   0.143
70665SOL    HW113828   7.340   8.724   0.074
70665SOL    HW213829   7.374   8.583   0.120
70666SOL     OW13830   3.255   5.526   1.816
70666SOL    HW113831   3.281   5.563   1.732
70666SOL    HW213832   3.235   5.602   1.871
70667SOL     OW13833   1.859   5.461  11.760
70667SOL    HW113834   1.924   5.391  11.757
70667SOL    HW213835   1.779   5.419  11.791
70668SOL     OW13836   3.510  13.665   9.112
70668SOL    HW113837   3.594  13.644   9.154
70668SOL    HW213838   3.488  13.752   9.146
70669SOL     OW13839  12.408   1.571  12.877
70669SOL    HW113840  12.492   1.615  12.892
70669SOL    HW213841  12.431   1.493  12.826
70670SOL     OW13842  14.407   6.819   6.248
70670SOL    HW113843  14.473   6.749   6.245
70670SOL    HW213844  14.381   6.824   6.340
70671SOL     OW13845   1.781  14.741  11.077
70671SOL    HW113846   1.795  14.647  11.077
70671SOL    HW213847   1.810  14.769  11.164
70672SOL     OW13848   4.880   2.774   9.715
70672SOL    HW113849   4.920   2.753   9.630
70672SOL    HW213850   4.951   2.815   9.765
70673SOL     OW13851   5.266   4.360   7.335
70673SOL    HW113852   5.201   4.311   7.285
70673SOL    HW213853   5.344   4.358   7.280
70674SOL     OW13854   6.097  11.492  10.659
70674SOL    HW113855   6.043  11.537  10.724
70674SOL    HW213856   6.168  11.453  10.710
70675SOL     OW13857   1.134   2.409  11.619
70675SOL    HW113858   1.175   2.326  11.645
70675SOL    HW213859   1.200   2.451  11.564
70676SOL     OW13860  11.357   6.485   0.758
70676SOL    HW113861  11.418   6.539   0.809
70676SOL    HW213862  11.404   6.465   0.678
70677SOL     OW13863  11.294   7.716  14.403
70677SOL    HW113864  11.227   7.725  14.335
70677SOL    HW213865  11.277   7.630  14.443
70678SOL     OW13866  14.399   0.111   8.174
70678SOL    HW113867  14.419   0.040   8.113
70678SOL    HW213868  14.381   0.066   8.257
70679SOL     OW13869  13.015  10.609   9.966
70679SOL    HW113870  12.998  10.658  10.045
70679SOL    HW213871  12.930  10.600   9.923
70680SOL     OW13872  11.335   7.609  11.182
70680SOL    HW113873  11.304   7.583  11.269
70680SOL    HW213874  11.299   7.542  11.124
70681SOL     OW13875  11.497   7.794   0.758
70681SOL    HW113876  11.448   7.846   0.822
70681SOL    HW213877  11.510   7.853   0.684
70682SOL     OW13878  11.702   8.882  14.574
70682SOL    HW113879  11.618   8.920  14.548
70682SOL    HW213880  11.692   8.788  14.557
70683SOL     OW13881   5.012   5.023   3.069
70683SOL    HW113882   5.026   4.948   3.126
70683SOL    HW213883   4.946   4.994   3.006
70684SOL     OW13884   5.734   9.259   4.033
70684SOL    HW113885   5.746   9.215   4.117
70684SOL    HW213886   5.793   9.214   3.973
70685SOL     OW13887   7.946  12.760   4.433
70685SOL    HW113888   7.866  12.812   4.437
70685SOL    HW213889   7.955  12.736   4.341
70686SOL     OW13890  13.402   3.925   0.058
70686SOL    HW113891  13.437   3.962   0.139
70686SOL    HW213892  13.324   3.978   0.040
70687SOL     OW13893   1.861   9.458  10.308
70687SOL    HW113894   1.825   9.533  10.355
70687SOL    HW213895   1.953   9.481  10.293
70688SOL     OW13896   9.173   1.290  11.948
70688SOL    HW113897   9.171   1.342  12.028
70688SOL    HW213898   9.254   1.240  11.953
70689SOL     OW13899  14.371   4.153   0.928
70689SOL    HW113900  14.276   4.157   0.938
70689SOL    HW213901  14.390   4.206   0.851
70690SOL     OW13902   4.897  10.316   9.345
70690SOL    HW113903   4.950  10.237   9.349
70690SOL    HW213904   4.807  10.285   9.347
70691SOL     OW13905   4.969  13.922   6.926
70691SOL    HW113906   5.018  13.839   6.934
70691SOL    HW213907   4.938  13.939   7.015
70692SOL     OW13908  10.158   1.037  13.637
70692SOL    HW113909  10.227   1.075  13.691
70692SOL    HW213910  10.185   0.946  13.625
70693SOL     OW13911   1.015   9.603   7.913
70693SOL    HW113912   0.947   9.669   7.898
70693SOL    HW213913   1.017   9.592   8.008
70694SOL     OW13914  11.660   7.721   4.204
70694SOL    HW113915  11.630   7.640   4.246
70694SOL    HW213916  11.642   7.789   4.269
70695SOL     OW13917  10.379  14.346   8.402
70695SOL    HW113918  10.349  14.406   8.334
70695SOL    HW213919  10.474  14.362   8.408
70696SOL     OW13920   0.264  10.750   3.212
70696SOL    HW113921   0.253  10.839   3.244
70696SOL    HW213922   0.256  10.695   3.290
70697SOL     OW13923   2.635   2.052   6.729
70697SOL    HW113924   2.634   2.047   6.633
70697SOL    HW213925   2.727   2.047   6.753
70698SOL     OW13926  12.426  14.628   5.956
70698SOL    HW113927  12.462  14.657   5.873
70698SOL    HW213928  12.338  14.665   5.959
70699SOL     OW13929   2.662   4.257   7.077
70699SOL    HW113930   2.706   4.333   7.116
70699SOL    HW213931   2.577   4.291   7.050
70700SOL     OW13932   4.847  12.984   4.158
70700SOL    HW113933   4.832  12.912   4.096
70700SOL    HW213934   4.760  13.019   4.175
70701SOL     OW13935  14.861   0.267  13.652
70701SOL    HW113936   0.028   0.183  13.658
70701SOL    HW213937   0.043   0.324  13.604
70702SOL     OW13938   5.432   4.586   9.005
70702SOL    HW113939   5.479   4.654   8.957
70702SOL    HW213940   5.457   4.504   8.964
70703SOL     OW13941  13.340  11.807  12.265
70703SOL    HW113942  13.429  11.805  12.301
70703SOL    HW213943  13.334  11.726  12.214
70704SOL     OW13944   8.930   2.613  10.691
70704SOL    HW113945   8.844   2.654  10.703
70704SOL    HW213946   8.992   2.675  10.730
70705SOL     OW13947   1.177  10.467  12.045
70705SOL    HW113948   1.238  10.413  12.096
70705SOL    HW213949   1.233  10.531  12.001
70706SOL     OW13950   5.415  10.627   6.433
70706SOL    HW113951   5.402  10.532   6.439
70706SOL    HW213952   5.419  10.656   6.524
70707SOL     OW13953  10.669  13.630  10.053
70707SOL    HW113954  10.617  13.650  10.131
70707SOL    HW213955  10.608  13.640   9.980
70708SOL     OW13956   8.578  13.431   5.811
70708SOL    HW113957   8.638  13.373   5.858
70708SOL    HW213958   8.563  13.504   5.871
70709SOL     OW13959   0.568   7.829  11.824
70709SOL    HW113960   0.616   7.780  11.758
70709SOL    HW213961   0.619   7.817  11.904
70710SOL     OW13962   1.343   8.636   2.048
70710SOL    HW113963   1.373   8.705   1.988
70710SOL    HW213964   1.357   8.555   2.000
70711SOL     OW13965   1.041  14.001   0.782
70711SOL    HW113966   1.127  14.032   0.753
70711SOL    HW213967   1.018  13.933   0.720
70712SOL     OW13968  10.679   4.916   3.400
70712SOL    HW113969  10.763   4.958   3.419
70712SOL    HW213970  10.652   4.877   3.483
70713SOL     OW13971   1.150  10.548   7.071
70713SOL    HW113972   1.097  10.486   7.020
70713SOL    HW213973   1.097  10.566   7.148
70714SOL     OW13974  13.402   8.025   3.888
70714SOL    HW113975  13.357   8.045   3.806
70714SOL    HW213976  13.441   7.939   3.874
70715SOL     OW13977   2.535   0.160   1.911
70715SOL    HW113978   2.459   0.127   1.864
70715SOL    HW213979   2.576   0.222   1.851
70716SOL     OW13980  13.629   0.239   7.408
70716SOL    HW113981  13.718   0.214   7.432
70716SOL    HW213982  13.634   0.333   7.395
70717SOL     OW13983  13.325   7.007   1.520
70717SOL    HW113984  13.324   6.923   1.474
70717SOL    HW213985  13.242   7.008   1.568
70718SOL     OW13986   1.170   6.308  11.793
70718SOL    HW113987   1.095   6.363  11.814
70718SOL    HW213988   1.232   6.368  11.751
70719SOL     OW13989   9.085  14.168   5.562
70719SOL    HW113990   9.132  14.234   5.510
70719SOL    HW213991   9.021  14.218   5.612
70720SOL     OW13992   0.670   2.495   0.786
70720SOL    HW113993   0.636   2.518   0.872
70720SOL    HW213994   0.626   2.557   0.726
70721SOL     OW13995  10.367   1.464  12.478
70721SOL    HW113996  10.331   1.447  12.390
70721SOL    HW213997  10.357   1.559  12.489
70722SOL     OW13998   9.177   5.363   5.095
70722SOL    HW113999   9.176   5.311   5.015
70722SOL    HW214000   9.087   5.391   5.108
70723SOL     OW14001   0.176  12.314  10.306
70723SOL    HW114002   0.111  12.284  10.243
70723SOL    HW214003   0.199  12.402  10.277
70724SOL     OW14004  11.716   3.041  12.320
70724SOL    HW114005  11.766   3.040  12.239
70724SOL    HW214006  11.639   3.095  12.302
70725SOL     OW14007  11.994   1.628  11.152
70725SOL    HW114008  12.010   1.680  11.073
70725SOL    HW214009  11.965   1.543  11.119
70726SOL     OW14010   1.859   3.215   2.145
70726SOL    HW114011   1.954   3.228   2.155
70726SOL    HW214012   1.823   3.237   2.231
70727SOL     OW14013  13.131   9.486   3.295
70727SOL    HW114014  13.197   9.442   3.349
70727SOL    HW214015  13.181   9.548   3.242
70728SOL     OW14016   3.607   5.089  11.049
70728SOL    HW114017   3.602   5.058  10.959
70728SOL    HW214018   3.590   5.012  11.103
70729SOL     OW14019   1.362  13.469  10.896
70729SOL    HW114020   1.277  13.427  10.904
70729SOL    HW214021   1.390  13.487  10.986
70730SOL     OW14022  10.199  10.157   3.829
70730SOL    HW114023  10.245  10.117   3.756
70730SOL    HW214024  10.171  10.243   3.797
70731SOL     OW14025   0.805   0.044   4.654
70731SOL    HW114026   0.713   0.040   4.678
70731SOL    HW214027   0.815   0.130   4.611
70732SOL     OW14028  11.565  14.444   5.847
70732SOL    HW114029  11.570  14.470   5.755
70732SOL    HW214030  11.639  14.383   5.859
70733SOL     OW14031  11.046   2.555  13.541
70733SOL    HW114032  11.007   2.607  13.471
70733SOL    HW214033  11.139   2.551  13.519
70734SOL     OW14034   2.053   5.767  14.819
70734SOL    HW114035   2.147   5.769  14.839
70734SOL    HW214036   2.049   5.778  14.724
70735SOL     OW14037   3.072   5.602   5.398
70735SOL    HW114038   3.050   5.616   5.306
70735SOL    HW214039   2.991   5.623   5.445
70736SOL     OW14040   6.222   6.888  11.465
70736SOL    HW114041   6.149   6.853  11.517
70736SOL    HW214042   6.197   6.871  11.374
70737SOL     OW14043   3.395   3.505   6.698
70737SOL    HW114044   3.488   3.492   6.679
70737SOL    HW214045   3.394   3.550   6.783
70738SOL     OW14046   4.732  10.655   3.093
70738SOL    HW114047   4.755  10.626   3.004
70738SOL    HW214048   4.639  10.636   3.101
70739SOL     OW14049   8.980  11.214   6.248
70739SOL    HW114050   8.994  11.244   6.338
70739SOL    HW214051   8.921  11.140   6.257
70740SOL     OW14052   1.532  12.666   0.073
70740SOL    HW114053   1.611  12.630   0.114
70740SOL    HW214054   1.545  12.761   0.076
70741SOL     OW14055  13.519   9.227   5.452
70741SOL    HW114056  13.584   9.238   5.521
70741SOL    HW214057  13.569   9.234   5.371
70742SOL     OW14058  10.405   4.335   8.810
70742SOL    HW114059  10.499   4.325   8.790
70742SOL    HW214060  10.403   4.364   8.901
70743SOL     OW14061  11.053   5.787  10.328
70743SOL    HW114062  10.976   5.745  10.290
70743SOL    HW214063  11.123   5.722  10.319
70744SOL     OW14064   6.072   8.903   1.798
70744SOL    HW114065   6.094   8.980   1.746
70744SOL    HW214066   6.084   8.829   1.738
70745SOL     OW14067   9.167   5.286   3.353
70745SOL    HW114068   9.095   5.347   3.342
70745SOL    HW214069   9.205   5.276   3.265
70746SOL     OW14070   7.388  10.704   5.861
70746SOL    HW114071   7.348  10.665   5.783
70746SOL    HW214072   7.469  10.654   5.874
70747SOL     OW14073   9.664  13.502  13.449
70747SOL    HW114074   9.646  13.578  13.393
70747SOL    HW214075   9.655  13.535  13.538
70748SOL     OW14076   9.229  14.599   7.144
70748SOL    HW114077   9.185  14.587   7.228
70748SOL    HW214078   9.180  14.543   7.083
70749SOL     OW14079  12.884   5.292   0.339
70749SOL    HW114080  12.852   5.218   0.390
70749SOL    HW214081  12.838   5.368   0.376
70750SOL     OW14082   8.314  13.878   9.616
70750SOL    HW114083   8.299  13.790   9.580
70750SOL    HW214084   8.401  13.874   9.654
70751SOL     OW14085   9.816   0.130  10.074
70751SOL    HW114086   9.825   0.211  10.023
70751SOL    HW214087   9.905   0.103  10.093
70752SOL     OW14088  13.570  14.622   2.584
70752SOL    HW114089  13.652  14.578   2.559
70752SOL    HW214090  13.572  14.706   2.537
70753SOL     OW14091   9.811   4.347  13.125
70753SOL    HW114092   9.851   4.434  13.127
70753SOL    HW214093   9.749   4.351  13.051
70754SOL     OW14094  12.772   8.031  11.853
70754SOL    HW114095  12.710   8.096  11.820
70754SOL    HW214096  12.751   8.023  11.946
70755SOL     OW14097   5.658   4.996   7.735
70755SOL    HW114098   5.630   5.058   7.668
70755SOL    HW214099   5.590   4.929   7.736
70756SOL     OW14100   7.769   3.148   6.903
70756SOL    HW114101   7.793   3.240   6.919
70756SOL    HW214102   7.722   3.122   6.983
70757SOL     OW14103   5.011   9.283   2.412
70757SOL    HW114104   5.009   9.291   2.508
70757SOL    HW214105   5.046   9.196   2.396
70758SOL     OW14106   6.044   9.082  10.974
70758SOL    HW114107   5.973   9.031  10.936
70758SOL    HW214108   6.016   9.100  11.063
70759SOL     OW14109   3.288   5.410   0.754
70759SOL    HW114110   3.210   5.360   0.780
70759SOL    HW214111   3.253   5.486   0.708
70760SOL     OW14112  12.368   1.067   0.868
70760SOL    HW114113  12.383   1.047   0.776
70760SOL    HW214114  12.455   1.081   0.905
70761SOL     OW14115  10.853  13.946   1.618
70761SOL    HW114116  10.797  14.013   1.580
70761SOL    HW214117  10.853  13.965   1.712
70762SOL     OW14118  12.068   9.880   2.681
70762SOL    HW114119  12.028   9.812   2.627
70762SOL    HW214120  12.123   9.833   2.743
70763SOL     OW14121  11.261   4.248   1.469
70763SOL    HW114122  11.315   4.312   1.423
70763SOL    HW214123  11.324   4.191   1.514
70764SOL     OW14124   0.919   4.366   0.344
70764SOL    HW114125   0.864   4.377   0.422
70764SOL    HW214126   0.984   4.436   0.350
70765SOL     OW14127   6.793   3.382   8.637
70765SOL    HW114128   6.813   3.471   8.609
70765SOL    HW214129   6.735   3.392   8.712
70766SOL     OW14130   7.768   3.508  11.298
70766SOL    HW114131   7.729   3.505  11.385
70766SOL    HW214132   7.776   3.602  11.279
70767SOL     OW14133   3.775  12.137   3.621
70767SOL    HW114134   3.866  12.125   3.593
70767SOL    HW214135   3.731  12.057   3.594
70768SOL     OW14136  10.639   3.159   5.581
70768SOL    HW114137  10.730   3.155   5.610
70768SOL    HW214138  10.616   3.068   5.563
70769SOL     OW14139  14.324   3.302   2.260
70769SOL    HW114140  14.400   3.359   2.275
70769SOL    HW214141  14.357   3.214   2.275
70770SOL     OW14142   4.932  14.865   7.800
70770SOL    HW114143   4.976  14.780   7.803
70770SOL    HW214144   4.846  14.849   7.838
70771SOL     OW14145   4.334   0.850   5.074
70771SOL    HW114146   4.239   0.843   5.065
70771SOL    HW214147   4.349   0.851   5.169
70772SOL     OW14148   8.433   8.985   6.165
70772SOL    HW114149   8.480   8.903   6.180
70772SOL    HW214150   8.391   9.005   6.249
70773SOL     OW14151   4.923  13.656   7.636
70773SOL    HW114152   4.845  13.696   7.675
70773SOL    HW214153   4.928  13.570   7.677
70774SOL     OW14154   7.908   4.704   9.525
70774SOL    HW114155   7.993   4.693   9.569
70774SOL    HW214156   7.931   4.721   9.434
70775SOL     OW14157  10.399   6.726  10.890
70775SOL    HW114158  10.303   6.726  10.882
70775SOL    HW214159  10.429   6.671  10.818
70776SOL     OW14160   0.566   9.435   6.800
70776SOL    HW114161   0.572   9.529   6.817
70776SOL    HW214162   0.614   9.395   6.873
70777SOL     OW14163   4.060  13.179  12.415
70777SOL    HW114164   4.036  13.142  12.500
70777SOL    HW214165   4.122  13.117  12.378
70778SOL     OW14166   0.293  11.501  13.330
70778SOL    HW114167   0.272  11.421  13.378
70778SOL    HW214168   0.343  11.554  13.392
70779SOL     OW14169   7.630  11.026   3.835
70779SOL    HW114170   7.573  11.091   3.794
70779SOL    HW214171   7.591  10.942   3.812
70780SOL     OW14172  11.481  11.646  13.461
70780SOL    HW114173  11.420  11.589  13.415
70780SOL    HW214174  11.429  11.682  13.534
70781SOL     OW14175   0.506   1.481   8.033
70781SOL    HW114176   0.532   1.455   8.122
70781SOL    HW214177   0.588   1.484   7.984
70782SOL     OW14178   3.797  13.121   1.666
70782SOL    HW114179   3.787  13.108   1.572
70782SOL    HW214180   3.753  13.205   1.683
70783SOL     OW14181   4.884   8.301  11.724
70783SOL    HW114182   4.856   8.305  11.632
70783SOL    HW214183   4.926   8.386  11.739
70784SOL     OW14184   1.716  13.779  12.980
70784SOL    HW114185   1.689  13.719  12.911
70784SOL    HW214186   1.732  13.723  13.056
70785SOL     OW14187   9.487   4.637   9.668
70785SOL    HW114188   9.515   4.549   9.694
70785SOL    HW214189   9.503   4.690   9.746
70786SOL     OW14190   8.233   5.596   6.558
70786SOL    HW114191   8.280   5.669   6.518
70786SOL    HW214192   8.239   5.612   6.653
70787SOL     OW14193  10.951   7.542  14.511
70787SOL    HW114194  10.897   7.579  14.441
70787SOL    HW214195  11.038   7.532  14.472
70788SOL     OW14196   5.756  13.601   6.034
70788SOL    HW114197   5.760  13.541   5.960
70788SOL    HW214198   5.795  13.683   6.002
70789SOL     OW14199   1.079  13.345  11.075
70789SOL    HW114200   1.096  13.256  11.045
70789SOL    HW214201   1.011  13.335  11.142
70790SOL     OW14202   4.460   0.193   4.656
70790SOL    HW114203   4.409   0.265   4.620
70790SOL    HW214204   4.401   0.118   4.653
70791SOL     OW14205   0.033   9.630   0.565
70791SOL    HW114206   0.094   9.566   0.601
70791SOL    HW214207  14.833   9.579   0.546
70792SOL     OW14208   4.948   4.439   9.826
70792SOL    HW114209   4.999   4.371   9.869
70792SOL    HW214210   4.940   4.409   9.735
70793SOL     OW14211   8.105   5.170  12.744
70793SOL    HW114212   8.096   5.147  12.652
70793SOL    HW214213   8.157   5.250  12.745
70794SOL     OW14214  14.724   1.291   3.089
70794SOL    HW114215  14.713   1.294   2.994
70794SOL    HW214216  14.730   1.382   3.116
70795SOL     OW14217   5.453  12.046   8.113
70795SOL    HW114218   5.532  12.061   8.062
70795SOL    HW214219   5.381  12.053   8.050
70796SOL     OW14220  10.780   5.636   9.163
70796SOL    HW114221  10.842   5.704   9.137
70796SOL    HW214222  10.758   5.591   9.081
70797SOL     OW14223  13.561  13.014  11.443
70797SOL    HW114224  13.632  13.001  11.506
70797SOL    HW214225  13.539  12.926  11.413
70798SOL     OW14226   8.986  13.244   1.218
70798SOL    HW114227   9.027  13.305   1.157
70798SOL    HW214228   8.908  13.212   1.173
70799SOL     OW14229   9.743  13.116   8.756
70799SOL    HW114230   9.725  13.027   8.727
70799SOL    HW214231   9.717  13.118   8.848
70800SOL     OW14232  11.856   7.394  10.984
70800SOL    HW114233  11.950   7.398  11.002
70800SOL    HW214234  11.848   7.423  10.893
70801SOL     OW14235   7.640   5.000   3.718
70801SOL    HW114236   7.630   4.979   3.811
70801SOL    HW214237   7.652   5.095   3.715
70802SOL     OW14238   9.620  11.668   6.410
70802SOL    HW114239   9.619  11.693   6.503
70802SOL    HW214240   9.668  11.586   6.408
70803SOL     OW14241   7.552   9.938   6.815
70803SOL    HW114242   7.510  10.007   6.866
70803SOL    HW214243   7.628   9.913   6.866
70804SOL     OW14244  14.277   2.766  11.946
70804SOL    HW114245  14.345   2.713  11.989
70804SOL    HW214246  14.314   2.786  11.860
70805SOL     OW14247   0.985  13.033   2.195
70805SOL    HW114248   1.024  12.975   2.260
70805SOL    HW214249   0.926  13.090   2.245
70806SOL     OW14250   5.582  12.433   9.832
70806SOL    HW114251   5.531  12.368   9.879
70806SOL    HW214252   5.536  12.516   9.848
70807SOL     OW14253   1.231   0.363   8.830
70807SOL    HW114254   1.240   0.342   8.923
70807SOL    HW214255   1.222   0.458   8.827
70808SOL     OW14256  13.046   3.726   8.170
70808SOL    HW114257  13.018   3.809   8.133
70808SOL    HW214258  12.966   3.687   8.206
70809SOL     OW14259  13.921   4.895   3.354
70809SOL    HW114260  13.872   4.917   3.433
70809SOL    HW214261  13.854   4.868   3.291
70810SOL     OW14262  10.290   8.947  10.641
70810SOL    HW114263  10.254   9.036  10.645
70810SOL    HW214264  10.329   8.941  10.554
70811SOL     OW14265  14.595   9.121   0.691
70811SOL    HW114266  14.563   9.036   0.659
70811SOL    HW214267  14.678   9.134   0.645
70812SOL     OW14268   5.822   1.422   1.694
70812SOL    HW114269   5.836   1.355   1.627
70812SOL    HW214270   5.728   1.435   1.696
70813SOL     OW14271  10.621   9.839   1.668
70813SOL    HW114272  10.694   9.778   1.656
70813SOL    HW214273  10.601   9.870   1.579
70814SOL     OW14274   7.828   5.234   1.819
70814SOL    HW114275   7.897   5.250   1.883
70814SOL    HW214276   7.850   5.290   1.745
70815SOL     OW14277   4.828   9.251   9.521
70815SOL    HW114278   4.871   9.304   9.588
70815SOL    HW214279   4.828   9.162   9.557
70816SOL     OW14280   9.508   2.829   1.870
70816SOL    HW114281   9.537   2.873   1.950
70816SOL    HW214282   9.572   2.855   1.804
70817SOL     OW14283   8.901   3.813   4.191
70817SOL    HW114284   8.964   3.767   4.136
70817SOL    HW214285   8.952   3.878   4.238
70818SOL     OW14286   5.986  11.836  11.818
70818SOL    HW114287   6.028  11.826  11.733
70818SOL    HW214288   5.938  11.754  11.831
70819SOL     OW14289   6.010   3.073   7.308
70819SOL    HW114290   6.010   3.099   7.216
70819SOL    HW214291   5.932   3.114   7.345
70820SOL     OW14292   1.214   1.337   2.339
70820SOL    HW114293   1.195   1.423   2.377
70820SOL    HW214294   1.293   1.352   2.286
70821SOL     OW14295  12.840   0.213   4.863
70821SOL    HW114296  12.887   0.247   4.787
70821SOL    HW214297  12.775   0.280   4.883
70822SOL     OW14298   7.598   7.562   4.476
70822SOL    HW114299   7.645   7.625   4.530
70822SOL    HW214300   7.655   7.485   4.473
70823SOL     OW14301   3.992  14.732   6.877
70823SOL    HW114302   4.026  14.761   6.962
70823SOL    HW214303   3.925  14.797   6.856
70824SOL     OW14304   2.628   6.401   2.869
70824SOL    HW114305   2.607   6.333   2.932
70824SOL    HW214306   2.688   6.360   2.808
70825SOL     OW14307  14.831   8.373   9.887
70825SOL    HW114308  14.819   8.445   9.948
70825SOL    HW214309  14.797   8.296   9.933
70826SOL     OW14310   5.169   5.712  13.900
70826SOL    HW114311   5.122   5.640  13.857
70826SOL    HW214312   5.238   5.736  13.839
70827SOL     OW14313   7.406   4.011  12.413
70827SOL    HW114314   7.450   3.963  12.484
70827SOL    HW214315   7.352   4.076  12.458
70828SOL     OW14316   3.402   4.750   7.990
70828SOL    HW114317   3.385   4.804   8.068
70828SOL    HW214318   3.356   4.668   8.007
70829SOL     OW14319  11.232  14.167   7.137
70829SOL    HW114320  11.307  14.114   7.108
70829SOL    HW214321  11.241  14.249   7.089
70830SOL     OW14322   4.887  11.733  12.800
70830SOL    HW114323   4.893  11.638  12.789
70830SOL    HW214324   4.800  11.756  12.768
70831SOL     OW14325   8.170   5.658  14.040
70831SOL    HW114326   8.100   5.714  14.006
70831SOL    HW214327   8.130   5.571  14.048
70832SOL     OW14328   3.309   9.983   2.577
70832SOL    HW114329   3.285   9.914   2.515
70832SOL    HW214330   3.382  10.028   2.536
70833SOL     OW14331   7.181  11.677   9.358
70833SOL    HW114332   7.270  11.648   9.378
70833SOL    HW214333   7.145  11.608   9.301
70834SOL     OW14334   9.019   5.202   6.616
70834SOL    HW114335   8.938   5.253   6.609
70834SOL    HW214336   9.016   5.142   6.542
70835SOL     OW14337   8.338   2.043  12.290
70835SOL    HW114338   8.310   1.956  12.262
70835SOL    HW214339   8.327   2.098  12.212
70836SOL     OW14340   3.990   5.230   1.485
70836SOL    HW114341   3.997   5.186   1.400
70836SOL    HW214342   3.961   5.161   1.544
70837SOL     OW14343   7.700   2.406   4.862
70837SOL    HW114344   7.635   2.446   4.920
70837SOL    HW214345   7.663   2.319   4.842
70838SOL     OW14346   2.410   2.539   3.081
70838SOL    HW114347   2.342   2.601   3.110
70838SOL    HW214348   2.492   2.581   3.104
70839SOL     OW14349   2.341   5.604   1.435
70839SOL    HW114350   2.376   5.543   1.370
70839SOL    HW214351   2.380   5.688   1.412
70840SOL     OW14352   5.950   5.554   4.601
70840SOL    HW114353   5.954   5.500   4.680
70840SOL    HW214354   5.875   5.520   4.553
70841SOL     OW14355  13.121   4.003   1.641
70841SOL    HW114356  13.088   4.067   1.704
70841SOL    HW214357  13.132   3.923   1.692
70842SOL     OW14358  10.004   8.569   8.663
70842SOL    HW114359  10.019   8.580   8.569
70842SOL    HW214360  10.024   8.477   8.680
70843SOL     OW14361  10.152  13.602  10.384
70843SOL    HW114362  10.201  13.549  10.320
70843SOL    HW214363  10.063  13.569  10.379
70844SOL     OW14364   1.749  14.762   1.366
70844SOL    HW114365   1.784  14.746   1.279
70844SOL    HW214366   1.800  14.706   1.424
70845SOL     OW14367  12.629   3.325   0.976
70845SOL    HW114368  12.641   3.231   0.962
70845SOL    HW214369  12.694   3.366   0.919
70846SOL     OW14370   9.242   1.938  10.667
70846SOL    HW114371   9.194   1.940  10.750
70846SOL    HW214372   9.324   1.983  10.685
70847SOL     OW14373  13.480   0.925   6.202
70847SOL    HW114374  13.455   0.977   6.278
70847SOL    HW214375  13.574   0.940   6.192
70848SOL     OW14376  11.740  14.855   3.433
70848SOL    HW114377  11.733  14.768   3.473
70848SOL    HW214378  11.823  14.853   3.387
70849SOL     OW14379  11.728   9.126  10.053
70849SOL    HW114380  11.752   9.197  10.113
70849SOL    HW214381  11.632   9.130  10.049
70850SOL     OW14382   9.958   1.303  10.844
70850SOL    HW114383   9.916   1.227  10.886
70850SOL    HW214384   9.886   1.351  10.803
70851SOL     OW14385   2.268  14.641   1.958
70851SOL    HW114386   2.280  14.717   2.015
70851SOL    HW214387   2.341  14.645   1.896
70852SOL     OW14388  12.377   6.140   9.595
70852SOL    HW114389  12.341   6.218   9.638
70852SOL    HW214390  12.382   6.163   9.503
70853SOL     OW14391   7.094   4.179   4.556
70853SOL    HW114392   7.107   4.241   4.628
70853SOL    HW214393   7.007   4.142   4.571
70854SOL     OW14394   3.822  11.822   8.469
70854SOL    HW114395   3.869  11.837   8.551
70854SOL    HW214396   3.866  11.879   8.405
70855SOL     OW14397  13.497  10.962   7.783
70855SOL    HW114398  13.502  11.040   7.728
70855SOL    HW214399  13.443  10.989   7.858
70856SOL     OW14400   3.510   4.505   2.731
70856SOL    HW114401   3.442   4.572   2.728
70856SOL    HW214402   3.466   4.427   2.765
70857SOL     OW14403  13.565  10.744   6.498
70857SOL    HW114404  13.612  10.760   6.416
70857SOL    HW214405  13.543  10.651   6.496
70858SOL     OW14406   5.632  10.820   8.966
70858SOL    HW114407   5.617  10.726   8.978
70858SOL    HW214408   5.692  10.825   8.891
70859SOL     OW14409   7.475  11.883  12.334
70859SOL    HW114410   7.426  11.928  12.403
70859SOL    HW214411   7.488  11.794  12.368
70860SOL     OW14412   4.015   0.815   7.296
70860SOL    HW114413   3.934   0.835   7.249
70860SOL    HW214414   4.005   0.857   7.381
70861SOL     OW14415   7.254  10.453   7.169
70861SOL    HW114416   7.216  10.385   7.225
70861SOL    HW214417   7.213  10.439   7.084
70862SOL     OW14418   5.412   5.048   7.241
70862SOL    HW114419   5.317   5.045   7.232
70862SOL    HW214420   5.428   5.123   7.298
70863SOL     OW14421  12.625  12.612   8.761
70863SOL    HW114422  12.636  12.632   8.668
70863SOL    HW214423  12.543  12.563   8.765
70864SOL     OW14424   8.794  14.387   5.507
70864SOL    HW114425   8.710  14.354   5.475
70864SOL    HW214426   8.823  14.448   5.439
70865SOL     OW14427   7.256   9.357   2.800
70865SOL    HW114428   7.331   9.417   2.794
70865SOL    HW214429   7.254   9.313   2.716
70866SOL     OW14430   3.173   7.121   1.377
70866SOL    HW114431   3.168   7.188   1.445
70866SOL    HW214432   3.194   7.169   1.297
70867SOL     OW14433  13.722   2.220  10.361
70867SOL    HW114434  13.646   2.181  10.405
70867SOL    HW214435  13.688   2.248  10.276
70868SOL     OW14436  14.010  10.441   2.462
70868SOL    HW114437  13.983  10.349   2.472
70868SOL    HW214438  13.935  10.483   2.419
70869SOL     OW14439   6.054  13.951   2.593
70869SOL    HW114440   6.006  13.926   2.514
70869SOL    HW214441   6.075  13.868   2.636
70870SOL     OW14442  14.537  11.988   3.336
70870SOL    HW114443  14.457  12.016   3.380
70870SOL    HW214444  14.592  12.066   3.333
70871SOL     OW14445   5.414   4.185   6.020
70871SOL    HW114446   5.343   4.247   6.003
70871SOL    HW214447   5.486   4.214   5.964
70872SOL     OW14448   9.246   2.523   9.988
70872SOL    HW114449   9.173   2.462   9.981
70872SOL    HW214450   9.228   2.590   9.921
70873SOL     OW14451  12.165  14.425   1.245
70873SOL    HW114452  12.088  14.369   1.251
70873SOL    HW214453  12.144  14.489   1.177
70874SOL     OW14454   1.062   2.921   7.642
70874SOL    HW114455   1.030   2.898   7.554
70874SOL    HW214456   1.144   2.967   7.626
70875SOL     OW14457  14.206   6.996   3.148
70875SOL    HW114458  14.263   6.920   3.158
70875SOL    HW214459  14.262   7.071   3.166
70876SOL     OW14460   7.897  12.101  14.409
70876SOL    HW114461   7.965  12.163  14.382
70876SOL    HW214462   7.897  12.033  14.341
70877SOL     OW14463   1.205  10.709   3.524
70877SOL    HW114464   1.240  10.707   3.613
70877SOL    HW214465   1.266  10.655   3.474
70878SOL     OW14466   3.247   1.397   7.013
70878SOL    HW114467   3.228   1.428   7.101
70878SOL    HW214468   3.165   1.357   6.983
70879SOL     OW14469   4.944  13.526   2.338
70879SOL    HW114470   4.948  13.620   2.321
70879SOL    HW214471   4.851  13.509   2.354
70880SOL     OW14472  12.602  14.396   4.476
70880SOL    HW114473  12.608  14.489   4.498
70880SOL    HW214474  12.546  14.359   4.545
70881SOL     OW14475   0.559   1.051  14.415
70881SOL    HW114476   0.555   1.118  14.483
70881SOL    HW214477   0.468   1.043  14.385
70882SOL     OW14478   1.988  14.579  12.271
70882SOL    HW114479   2.027  14.524  12.340
70882SOL    HW214480   1.987  14.667  12.308
70883SOL     OW14481   2.788  12.164   4.367
70883SOL    HW114482   2.842  12.203   4.436
70883SOL    HW214483   2.827  12.196   4.285
70884SOL     OW14484  10.084   8.261   5.140
70884SOL    HW114485  10.123   8.337   5.184
70884SOL    HW214486  10.079   8.194   5.208
70885SOL     OW14487  11.649   2.487   9.704
70885SOL    HW114488  11.632   2.432   9.781
70885SOL    HW214489  11.719   2.442   9.658
70886SOL     OW14490  14.098  13.174  13.788
70886SOL    HW114491  14.031  13.109  13.767
70886SOL    HW214492  14.083  13.245  13.726
70887SOL     OW14493  13.936   6.137  13.062
70887SOL    HW114494  13.994   6.068  13.094
70887SOL    HW214495  13.980   6.218  13.087
70888SOL     OW14496   8.460   4.601   3.436
70888SOL    HW114497   8.540   4.575   3.391
70888SOL    HW214498   8.463   4.696   3.437
70889SOL     OW14499  14.100   2.139   1.410
70889SOL    HW114500  14.120   2.232   1.414
70889SOL    HW214501  14.167   2.097   1.465
70890SOL     OW14502   0.203  11.704  11.220
70890SOL    HW114503   0.184  11.636  11.156
70890SOL    HW214504   0.227  11.780  11.168
70891SOL     OW14505  10.213   1.140   8.959
70891SOL    HW114506  10.220   1.168   9.050
70891SOL    HW214507  10.220   1.045   8.962
70892SOL     OW14508  12.762   1.085  10.923
70892SOL    HW114509  12.666   1.079  10.920
70892SOL    HW214510  12.784   1.144  10.851
70893SOL     OW14511   5.229  12.837   4.357
70893SOL    HW114512   5.186  12.752   4.350
70893SOL    HW214513   5.172  12.888   4.413
70894SOL     OW14514   4.736  13.525   3.214
70894SOL    HW114515   4.645  13.552   3.231
70894SOL    HW214516   4.776  13.523   3.301
70895SOL     OW14517  12.415   9.201   1.039
70895SOL    HW114518  12.487   9.258   1.066
70895SOL    HW214519  12.456   9.115   1.026
70896SOL     OW14520  12.537   2.071   8.500
70896SOL    HW114521  12.491   2.067   8.416
70896SOL    HW214522  12.619   2.024   8.485
70897SOL     OW14523   8.909   2.207  10.390
70897SOL    HW114524   8.879   2.296  10.371
70897SOL    HW214525   8.853   2.178  10.463
70898SOL     OW14526   2.782  10.166   0.785
70898SOL    HW114527   2.780  10.099   0.717
70898SOL    HW214528   2.847  10.136   0.848
70899SOL     OW14529   0.546   9.757  10.573
70899SOL    HW114530   0.565   9.665  10.554
70899SOL    HW214531   0.525   9.758  10.667
70900SOL     OW14532   4.340  10.834   6.585
70900SOL    HW114533   4.400  10.865   6.518
70900SOL    HW214534   4.345  10.738   6.580
70901SOL     OW14535   8.679   8.990  13.587
70901SOL    HW114536   8.712   8.945  13.510
70901SOL    HW214537   8.740   8.965  13.657
70902SOL     OW14538   9.564   4.703   7.899
70902SOL    HW114539   9.507   4.778   7.916
70902SOL    HW214540   9.641   4.718   7.953
70903SOL     OW14541   6.066   0.647   1.664
70903SOL    HW114542   6.056   0.702   1.742
70903SOL    HW214543   6.160   0.644   1.649
70904SOL     OW14544   4.862   2.221   0.093
70904SOL    HW114545   4.904   2.305   0.077
70904SOL    HW214546   4.823   2.230   0.180
70905SOL     OW14547   9.556  12.511   7.897
70905SOL    HW114548   9.635  12.537   7.850
70905SOL    HW214549   9.496  12.584   7.885
70906SOL     OW14550   3.884   6.675   4.330
70906SOL    HW114551   3.801   6.703   4.291
70906SOL    HW214552   3.940   6.652   4.256
70907SOL     OW14553   0.953   9.151   0.381
70907SOL    HW114554   0.902   9.122   0.305
70907SOL    HW214555   0.974   9.243   0.362
70908SOL     OW14556   7.485   6.669  14.265
70908SOL    HW114557   7.491   6.578  14.294
70908SOL    HW214558   7.487   6.664  14.170
70909SOL     OW14559   2.415  10.112  11.661
70909SOL    HW114560   2.404  10.017  11.648
70909SOL    HW214561   2.363  10.151  11.590
70910SOL     OW14562   3.821  10.695   8.331
70910SOL    HW114563   3.869  10.754   8.273
70910SOL    HW214564   3.797  10.620   8.276
70911SOL     OW14565   7.532   1.606  10.554
70911SOL    HW114566   7.440   1.596  10.579
70911SOL    HW214567   7.555   1.695  10.583
70912SOL     OW14568   1.658   8.718  12.626
70912SOL    HW114569   1.635   8.625  12.628
70912SOL    HW214570   1.576   8.764  12.641
70913SOL     OW14571  10.214  14.276   1.166
70913SOL    HW114572  10.250  14.310   1.084
70913SOL    HW214573  10.202  14.183   1.150
70914SOL     OW14574  12.477   7.394  13.929
70914SOL    HW114575  12.392   7.433  13.946
70914SOL    HW214576  12.483   7.321  13.991
70915SOL     OW14577   8.955   1.468  10.812
70915SOL    HW114578   8.949   1.502  10.722
70915SOL    HW214579   9.049   1.456  10.827
70916SOL     OW14580   7.800   6.381   1.207
70916SOL    HW114581   7.831   6.291   1.198
70916SOL    HW214582   7.851   6.417   1.280
70917SOL     OW14583   3.010  11.294   5.250
70917SOL    HW114584   2.989  11.353   5.178
70917SOL    HW214585   2.975  11.209   5.222
70918SOL     OW14586  12.348  12.941   9.083
70918SOL    HW114587  12.393  12.986   9.155
70918SOL    HW214588  12.354  13.001   9.009
70919SOL     OW14589  10.928   5.056   6.347
70919SOL    HW114590  10.895   5.029   6.432
70919SOL    HW214591  11.021   5.037   6.350
70920SOL     OW14592   8.877   9.311   8.482
70920SOL    HW114593   8.807   9.278   8.539
70920SOL    HW214594   8.877   9.251   8.407
70921SOL     OW14595  14.044   7.706   7.054
70921SOL    HW114596  13.984   7.631   7.058
70921SOL    HW214597  14.128   7.667   7.028
70922SOL     OW14598  12.710   2.742  12.028
70922SOL    HW114599  12.641   2.807  12.038
70922SOL    HW214600  12.776   2.766  12.093
70923SOL     OW14601   9.797   2.654  12.821
70923SOL    HW114602   9.702   2.665  12.832
70923SOL    HW214603   9.824   2.604  12.898
70924SOL     OW14604  12.758   2.581  11.538
70924SOL    HW114605  12.746   2.489  11.516
70924SOL    HW214606  12.679   2.624  11.505
70925SOL     OW14607   4.348  11.543   3.359
70925SOL    HW114608   4.277  11.538   3.423
70925SOL    HW214609   4.320  11.486   3.288
70926SOL     OW14610  12.040   4.996  11.559
70926SOL    HW114611  12.030   4.908  11.596
70926SOL    HW214612  11.972   5.002  11.492
70927SOL     OW14613   3.773   0.025  14.058
70927SOL    HW114614   3.720  14.871  13.986
70927SOL    HW214615   3.858   0.043  14.018
70928SOL     OW14616   3.753   1.850   4.443
70928SOL    HW114617   3.824   1.796   4.478
70928SOL    HW214618   3.748   1.824   4.350
70929SOL     OW14619  13.603   5.651   6.786
70929SOL    HW114620  13.617   5.703   6.707
70929SOL    HW214621  13.677   5.590   6.789
70930SOL     OW14622  10.946   9.846  10.690
70930SOL    HW114623  10.972   9.755  10.674
70930SOL    HW214624  11.026   9.889  10.722
70931SOL     OW14625   2.209   4.321  14.618
70931SOL    HW114626   2.165   4.385  14.563
70931SOL    HW214627   2.171   4.333  14.705
70932SOL     OW14628   3.729   8.336   2.354
70932SOL    HW114629   3.642   8.334   2.314
70932SOL    HW214630   3.758   8.245   2.352
70933SOL     OW14631   3.566  13.895   9.738
70933SOL    HW114632   3.550  13.804   9.762
70933SOL    HW214633   3.608  13.933   9.815
70934SOL     OW14634   8.123   3.636  10.177
70934SOL    HW114635   8.208   3.594  10.185
70934SOL    HW214636   8.139   3.727  10.204
70935SOL     OW14637   0.159  10.736  11.424
70935SOL    HW114638   0.085  10.767  11.372
70935SOL    HW214639   0.203  10.816  11.454
70936SOL     OW14640  13.136  11.129   6.951
70936SOL    HW114641  13.192  11.200   6.921
70936SOL    HW214642  13.181  11.049   6.922
70937SOL     OW14643  14.851   2.916  13.893
70937SOL    HW114644  14.868   2.932  13.986
70937SOL    HW214645   0.051   2.947  13.848
70938SOL     OW14646   3.736   7.969   1.695
70938SOL    HW114647   3.781   7.915   1.630
70938SOL    HW214648   3.653   7.993   1.653
70939SOL     OW14649   5.070  12.609   4.376
70939SOL    HW114650   5.116  12.529   4.401
70939SOL    HW214651   4.999  12.579   4.319
70940SOL     OW14652  11.474   9.817   7.767
70940SOL    HW114653  11.540   9.886   7.755
70940SOL    HW214654  11.525   9.736   7.766
70941SOL     OW14655   5.669   3.338  11.229
70941SOL    HW114656   5.720   3.416  11.212
70941SOL    HW214657   5.589   3.370  11.271
70942SOL     OW14658   2.189  14.066   9.314
70942SOL    HW114659   2.214  13.973   9.318
70942SOL    HW214660   2.152  14.084   9.400
70943SOL     OW14661   3.017  11.375   2.246
70943SOL    HW114662   3.034  11.374   2.151
70943SOL    HW214663   2.925  11.402   2.253
70944SOL     OW14664   9.256   9.149  10.815
70944SOL    HW114665   9.308   9.109  10.885
70944SOL    HW214666   9.195   9.080  10.788
70945SOL     OW14667   3.995   4.789   5.372
70945SOL    HW114668   3.902   4.807   5.385
70945SOL    HW214669   4.031   4.787   5.461
70946SOL     OW14670   9.844   8.998   8.428
70946SOL    HW114671   9.791   9.049   8.367
70946SOL    HW214672   9.780   8.962   8.490
70947SOL     OW14673   4.145  13.999   4.978
70947SOL    HW114674   4.133  13.953   5.062
70947SOL    HW214675   4.058  13.999   4.938
70948SOL     OW14676   8.450   0.259  10.168
70948SOL    HW114677   8.532   0.247  10.216
70948SOL    HW214678   8.446   0.352  10.149
70949SOL     OW14679   4.773   9.274   0.430
70949SOL    HW114680   4.787   9.369   0.428
70949SOL    HW214681   4.686   9.262   0.391
70950SOL     OW14682   9.185   4.348  10.606
70950SOL    HW114683   9.200   4.426  10.553
70950SOL    HW214684   9.169   4.381  10.694
70951SOL     OW14685   6.574   0.371  12.964
70951SOL    HW114686   6.495   0.416  12.934
70951SOL    HW214687   6.646   0.421  12.926
70952SOL     OW14688   7.657   9.196   0.084
70952SOL    HW114689   7.722   9.180   0.015
70952SOL    HW214690   7.656   9.115   0.135
70953SOL     OW14691   2.050   5.884  13.324
70953SOL    HW114692   2.112   5.853  13.391
70953SOL    HW214693   1.964   5.860  13.358
70954SOL     OW14694   3.782   0.538  10.948
70954SOL    HW114695   3.758   0.602  11.016
70954SOL    HW214696   3.751   0.577  10.867
70955SOL     OW14697   0.971  13.595   1.840
70955SOL    HW114698   0.990  13.688   1.853
70955SOL    HW214699   0.925  13.569   1.920
70956SOL     OW14700   6.028   7.071   8.965
70956SOL    HW114701   5.935   7.086   8.949
70956SOL    HW214702   6.066   7.158   8.971
70957SOL     OW14703  11.758   9.696   1.158
70957SOL    HW114704  11.717   9.767   1.109
70957SOL    HW214705  11.687   9.659   1.210
70958SOL     OW14706   9.615   0.575   8.156
70958SOL    HW114707   9.663   0.658   8.153
70958SOL    HW214708   9.586   0.561   8.066
70959SOL     OW14709  14.282  11.214   4.875
70959SOL    HW114710  14.253  11.146   4.814
70959SOL    HW214711  14.336  11.273   4.823
70960SOL     OW14712   2.141   9.251   3.129
70960SOL    HW114713   2.161   9.291   3.044
70960SOL    HW214714   2.051   9.277   3.147
70961SOL     OW14715   6.829   0.550   5.903
70961SOL    HW114716   6.767   0.623   5.908
70961SOL    HW214717   6.836   0.532   5.809
70962SOL     OW14718   0.382  13.698  10.003
70962SOL    HW114719   0.330  13.774  10.028
70962SOL    HW214720   0.337  13.661   9.927
70963SOL     OW14721   5.141   4.309  14.030
70963SOL    HW114722   5.163   4.217  14.016
70963SOL    HW214723   5.045   4.312  14.020
70964SOL     OW14724   4.090   8.788   9.854
70964SOL    HW114725   4.093   8.823   9.943
70964SOL    HW214726   4.142   8.708   9.857
70965SOL     OW14727  10.119   6.437   6.584
70965SOL    HW114728  10.213   6.444   6.598
70965SOL    HW214729  10.081   6.486   6.657
70966SOL     OW14730  11.209   7.472  11.710
70966SOL    HW114731  11.227   7.394  11.656
70966SOL    HW214732  11.143   7.443  11.773
70967SOL     OW14733   2.373  11.480   6.522
70967SOL    HW114734   2.406  11.484   6.433
70967SOL    HW214735   2.286  11.442   6.514
70968SOL     OW14736   1.721  13.400   5.492
70968SOL    HW114737   1.727  13.409   5.587
70968SOL    HW214738   1.799  13.444   5.459
70969SOL     OW14739   5.367   8.505   9.433
70969SOL    HW114740   5.367   8.422   9.387
70969SOL    HW214741   5.457   8.517   9.462
70970SOL     OW14742   9.489   6.151   3.371
70970SOL    HW114743   9.535   6.224   3.331
70970SOL    HW214744   9.396   6.169   3.356
70971SOL     OW14745   0.174   6.871   7.707
70971SOL    HW114746   0.137   6.904   7.788
70971SOL    HW214747   0.268   6.861   7.726
70972SOL     OW14748   4.973   7.006   5.484
70972SOL    HW114749   4.898   7.063   5.472
70972SOL    HW214750   5.018   7.007   5.399
70973SOL     OW14751  14.580   8.264   7.652
70973SOL    HW114752  14.584   8.177   7.614
70973SOL    HW214753  14.659   8.272   7.705
70974SOL     OW14754   9.556   5.561   6.082
70974SOL    HW114755   9.587   5.624   6.146
70974SOL    HW214756   9.629   5.550   6.021
70975SOL     OW14757  12.440   0.900   3.640
70975SOL    HW114758  12.524   0.864   3.669
70975SOL    HW214759  12.437   0.988   3.677
70976SOL     OW14760  14.588  14.808  12.185
70976SOL    HW114761  14.529  14.758  12.240
70976SOL    HW214762  14.554   0.019  12.187
70977SOL     OW14763   3.948  10.187  13.958
70977SOL    HW114764   3.914  10.147  13.878
70977SOL    HW214765   3.942  10.118  14.024
70978SOL     OW14766   1.413   2.795   7.837
70978SOL    HW114767   1.388   2.867   7.780
70978SOL    HW214768   1.470   2.740   7.784
70979SOL     OW14769  13.993  11.080   3.890
70979SOL    HW114770  13.904  11.049   3.877
70979SOL    HW214771  14.044  11.036   3.822
70980SOL     OW14772   4.577   0.640  13.888
70980SOL    HW114773   4.539   0.570  13.942
70980SOL    HW214774   4.640   0.683  13.946
70981SOL     OW14775   4.927   6.267  12.086
70981SOL    HW114776   4.896   6.178  12.102
70981SOL    HW214777   5.006   6.276  12.138
70982SOL     OW14778   0.510   3.182   7.117
70982SOL    HW114779   0.543   3.272   7.120
70982SOL    HW214780   0.515   3.151   7.207
70983SOL     OW14781  14.460  13.682  13.843
70983SOL    HW114782  14.473  13.770  13.805
70983SOL    HW214783  14.542  13.636  13.826
70984SOL     OW14784   2.038  14.535   7.424
70984SOL    HW114785   1.951  14.533   7.464
70984SOL    HW214786   2.064  14.627   7.429
70985SOL     OW14787  13.927  12.259   6.911
70985SOL    HW114788  13.838  12.289   6.928
70985SOL    HW214789  13.983  12.334   6.931
70986SOL     OW14790   7.184   9.839  10.222
70986SOL    HW114791   7.162   9.924  10.259
70986SOL    HW214792   7.147   9.776  10.284
70987SOL     OW14793   3.442  11.383   0.292
70987SOL    HW114794   3.470  11.303   0.249
70987SOL    HW214795   3.386  11.354   0.364
70988SOL     OW14796   1.659   4.134   0.161
70988SOL    HW114797   1.675   4.165   0.250
70988SOL    HW214798   1.572   4.166   0.139
70989SOL     OW14799   4.850  14.805  14.178
70989SOL    HW114800   4.759  14.788  14.203
70989SOL    HW214801   4.893  14.828  14.260
70990SOL     OW14802  11.258  14.004   7.768
70990SOL    HW114803  11.268  13.986   7.861
70990SOL    HW214804  11.193  14.074   7.764
70991SOL     OW14805  14.762  11.069   1.757
70991SOL    HW114806  14.750  11.152   1.711
70991SOL    HW214807  14.679  11.055   1.803
70992SOL     OW14808   5.344   3.893   3.372
70992SOL    HW114809   5.288   3.914   3.447
70992SOL    HW214810   5.407   3.829   3.405
70993SOL     OW14811   4.684   8.827   9.428
70993SOL    HW114812   4.774   8.861   9.425
70993SOL    HW214813   4.674   8.779   9.346
70994SOL     OW14814  10.886  12.604  14.090
70994SOL    HW114815  10.857  12.610  14.181
70994SOL    HW214816  10.826  12.661  14.042
70995SOL     OW14817   5.224  14.827   3.322
70995SOL    HW114818   5.220  14.790   3.410
70995SOL    HW214819   5.203  14.754   3.264
70996SOL     OW14820  12.094  11.578   9.792
70996SOL    HW114821  12.165  11.609   9.849
70996SOL    HW214822  12.134  11.571   9.705
70997SOL     OW14823   9.532   2.523   3.603
70997SOL    HW114824   9.485   2.511   3.686
70997SOL    HW214825   9.505   2.610   3.573
70998SOL     OW14826  11.748   4.495   0.531
70998SOL    HW114827  11.711   4.464   0.614
70998SOL    HW214828  11.754   4.590   0.541
70999SOL     OW14829   7.594   7.792  13.707
70999SOL    HW114830   7.667   7.747  13.663
70999SOL    HW214831   7.635   7.864  13.754
71000SOL     OW14832  10.077  12.204  10.817
71000SOL    HW114833  10.015  12.241  10.755
71000SOL    HW214834  10.164  12.228  10.783
71001SOL     OW14835  12.497   1.050   4.806
71001SOL    HW114836  12.407   1.018   4.813
71001SOL    HW214837  12.492   1.121   4.742
71002SOL     OW14838  11.176   1.889  11.512
71002SOL    HW114839  11.189   1.813  11.456
71002SOL    HW214840  11.255   1.892  11.567
71003SOL     OW14841   0.474  10.675  12.681
71003SOL    HW114842   0.408  10.661  12.613
71003SOL    HW214843   0.476  10.594  12.731
71004SOL     OW14844   1.895  13.430   7.768
71004SOL    HW114845   1.940  13.514   7.776
71004SOL    HW214846   1.942  13.384   7.698
71005SOL     OW14847   6.037   7.692  10.684
71005SOL    HW114848   5.942   7.692  10.673
71005SOL    HW214849   6.071   7.661  10.601
71006SOL     OW14850  10.497   9.050  11.580
71006SOL    HW114851  10.420   9.056  11.523
71006SOL    HW214852  10.567   9.019  11.523
71007SOL     OW14853  12.441  12.195   4.909
71007SOL    HW114854  12.364  12.152   4.874
71007SOL    HW214855  12.515  12.142   4.876
71008SOL     OW14856  10.712  13.460   2.157
71008SOL    HW114857  10.752  13.505   2.083
71008SOL    HW214858  10.776  13.469   2.228
71009SOL     OW14859   8.831   0.181  12.594
71009SOL    HW114860   8.765   0.184  12.663
71009SOL    HW214861   8.789   0.223  12.519
71010SOL     OW14862  12.601   4.511   8.121
71010SOL    HW114863  12.613   4.600   8.089
71010SOL    HW214864  12.513   4.487   8.093
71011SOL     OW14865   1.423   4.448   0.509
71011SOL    HW114866   1.369   4.369   0.502
71011SOL    HW214867   1.362   4.520   0.491
71012SOL     OW14868   1.671  14.217  10.014
71012SOL    HW114869   1.607  14.190  10.079
71012SOL    HW214870   1.620  14.261   9.946
71013SOL     OW14871   7.995   8.386  12.714
71013SOL    HW114872   8.039   8.310  12.674
71013SOL    HW214873   7.902   8.363  12.712
71014SOL     OW14874  10.093   0.896   3.918
71014SOL    HW114875  10.055   0.886   4.005
71014SOL    HW214876  10.169   0.837   3.917
71015SOL     OW14877  11.862   2.471  11.118
71015SOL    HW114878  11.847   2.553  11.070
71015SOL    HW214879  11.775   2.433  11.129
71016SOL     OW14880   8.389   7.749   3.398
71016SOL    HW114881   8.464   7.688   3.396
71016SOL    HW214882   8.342   7.726   3.478
71017SOL     OW14883   6.375  10.278   6.674
71017SOL    HW114884   6.410  10.279   6.585
71017SOL    HW214885   6.297  10.221   6.669
71018SOL     OW14886  10.628  13.638   0.693
71018SOL    HW114887  10.654  13.577   0.623
71018SOL    HW214888  10.574  13.585   0.751
71019SOL     OW14889   9.577  12.206   4.092
71019SOL    HW114890   9.657  12.232   4.137
71019SOL    HW214891   9.537  12.288   4.065
71020SOL     OW14892   8.245  14.702   9.562
71020SOL    HW114893   8.303  14.739   9.629
71020SOL    HW214894   8.204  14.779   9.521
71021SOL     OW14895   2.956   8.536   4.628
71021SOL    HW114896   2.980   8.456   4.675
71021SOL    HW214897   2.915   8.591   4.694
71022SOL     OW14898   1.550   1.905   6.562
71022SOL    HW114899   1.630   1.853   6.555
71022SOL    HW214900   1.484   1.843   6.593
71023SOL     OW14901   8.041   4.741   0.969
71023SOL    HW114902   8.022   4.793   0.891
71023SOL    HW214903   8.136   4.730   0.968
71024SOL     OW14904   6.315   2.318  13.408
71024SOL    HW114905   6.241   2.361  13.450
71024SOL    HW214906   6.389   2.376  13.425
71025SOL     OW14907   4.926   2.716   8.183
71025SOL    HW114908   4.944   2.688   8.272
71025SOL    HW214909   4.939   2.637   8.130
71026SOL     OW14910  12.233   6.789   9.508
71026SOL    HW114911  12.144   6.759   9.495
71026SOL    HW214912  12.247   6.855   9.440
71027SOL     OW14913   4.788  13.755  12.428
71027SOL    HW114914   4.704  13.762  12.383
71027SOL    HW214915   4.849  13.727  12.361
71028SOL     OW14916  13.500   5.682   1.402
71028SOL    HW114917  13.485   5.631   1.481
71028SOL    HW214918  13.444   5.758   1.411
71029SOL     OW14919   0.316  12.167  10.963
71029SOL    HW114920   0.400  12.212  10.955
71029SOL    HW214921   0.280  12.198  11.046
71030SOL     OW14922   9.604  12.444   5.184
71030SOL    HW114923   9.593  12.539   5.182
71030SOL    HW214924   9.603  12.421   5.277
71031SOL     OW14925   6.360   5.342  13.760
71031SOL    HW114926   6.410   5.328  13.679
71031SOL    HW214927   6.272   5.362  13.729
71032SOL     OW14928   6.563   8.415  10.698
71032SOL    HW114929   6.611   8.337  10.727
71032SOL    HW214930   6.631   8.478  10.673
71033SOL     OW14931   4.029   6.359  12.449
71033SOL    HW114932   4.066   6.294  12.388
71033SOL    HW214933   4.057   6.443  12.413
71034SOL     OW14934   8.120   8.028  12.119
71034SOL    HW114935   8.102   7.937  12.145
71034SOL    HW214936   8.147   8.021  12.028
71035SOL     OW14937   5.553   2.554   3.140
71035SOL    HW114938   5.480   2.599   3.182
71035SOL    HW214939   5.584   2.492   3.205
71036SOL     OW14940  14.066  10.884   8.714
71036SOL    HW114941  13.996  10.869   8.778
71036SOL    HW214942  14.140  10.834   8.747
71037SOL     OW14943  10.715   3.442   2.172
71037SOL    HW114944  10.710   3.537   2.159
71037SOL    HW214945  10.651   3.406   2.109
71038SOL     OW14946   4.998   5.827   6.765
71038SOL    HW114947   5.051   5.893   6.808
71038SOL    HW214948   4.966   5.869   6.686
71039SOL     OW14949   7.556  10.807   3.460
71039SOL    HW114950   7.546  10.834   3.552
71039SOL    HW214951   7.547  10.712   3.462
71040SOL     OW14952   1.071   4.051   2.482
71040SOL    HW114953   1.043   3.965   2.515
71040SOL    HW214954   0.997   4.082   2.430
71041SOL     OW14955   0.132   7.237   2.608
71041SOL    HW114956   0.144   7.325   2.643
71041SOL    HW214957   0.045   7.238   2.570
71042SOL     OW14958   2.314   8.261  11.905
71042SOL    HW114959   2.396   8.277  11.859
71042SOL    HW214960   2.248   8.255  11.836
71043SOL     OW14961   6.980   5.025   4.368
71043SOL    HW114962   7.075   5.035   4.379
71043SOL    HW214963   6.955   4.963   4.437
71044SOL     OW14964   1.078   4.728   8.354
71044SOL    HW114965   1.153   4.786   8.339
71044SOL    HW214966   1.117   4.644   8.377
71045SOL     OW14967   8.069  11.475   1.494
71045SOL    HW114968   8.116  11.404   1.540
71045SOL    HW214969   8.025  11.431   1.422
71046SOL     OW14970   8.642   3.693   5.164
71046SOL    HW114971   8.565   3.659   5.117
71046SOL    HW214972   8.660   3.777   5.122
71047SOL     OW14973   4.098  12.479  14.482
71047SOL    HW114974   4.080  12.404  14.426
71047SOL    HW214975   4.134  12.441  14.562
71048SOL     OW14976   3.402   1.044   7.135
71048SOL    HW114977   3.308   1.044   7.153
71048SOL    HW214978   3.437   0.975   7.192
71049SOL     OW14979   8.393  10.857   5.604
71049SOL    HW114980   8.462  10.795   5.581
71049SOL    HW214981   8.335  10.808   5.662
71050SOL     OW14982   0.733   7.414  11.825
71050SOL    HW114983   0.815   7.375  11.795
71050SOL    HW214984   0.684   7.432  11.744
71051SOL     OW14985   3.127   8.791   2.026
71051SOL    HW114986   3.087   8.715   1.984
71051SOL    HW214987   3.221   8.780   2.010
71052SOL     OW14988  11.191   8.577   4.588
71052SOL    HW114989  11.201   8.631   4.509
71052SOL    HW214990  11.096   8.572   4.601
71053SOL     OW14991   7.623   9.132   5.374
71053SOL    HW114992   7.562   9.080   5.322
71053SOL    HW214993   7.644   9.077   5.449
71054SOL     OW14994   7.938   9.747   8.471
71054SOL    HW114995   7.918   9.703   8.389
71054SOL    HW214996   8.029   9.725   8.489
71055SOL     OW14997   7.723   7.557  13.293
71055SOL    HW114998   7.630   7.557  13.319
71055SOL    HW214999   7.757   7.474  13.326
71056SOL     OW15000   3.917  14.823  12.957
71056SOL    HW115001   3.894  14.878  12.881
71056SOL    HW215002   3.920  14.734  12.922
71057SOL     OW15003  12.554   3.781   8.853
71057SOL    HW115004  12.499   3.745   8.923
71057SOL    HW215005  12.570   3.872   8.880
71058SOL     OW15006   3.194   9.709   9.220
71058SOL    HW115007   3.255   9.742   9.286
71058SOL    HW215008   3.173   9.786   9.167
71059SOL     OW15009   1.283  11.555   8.439
71059SOL    HW115010   1.203  11.606   8.427
71059SOL    HW215011   1.322  11.550   8.352
71060SOL     OW15012   3.648   7.244   8.963
71060SOL    HW115013   3.717   7.281   8.908
71060SOL    HW215014   3.628   7.159   8.923
71061SOL     OW15015  13.910  12.040  13.100
71061SOL    HW115016  13.892  11.947  13.115
71061SOL    HW215017  13.864  12.060  13.018
71062SOL     OW15018  11.860   8.024   7.730
71062SOL    HW115019  11.801   8.056   7.798
71062SOL    HW215020  11.948   8.036   7.767
71063SOL     OW15021  11.551   2.543   9.246
71063SOL    HW115022  11.549   2.451   9.223
71063SOL    HW215023  11.461   2.574   9.231
71064SOL     OW15024   7.500  13.014  12.426
71064SOL    HW115025   7.512  13.103  12.394
71064SOL    HW215026   7.580  12.967  12.399
71065SOL     OW15027   4.026  13.228  10.921
71065SOL    HW115028   3.999  13.145  10.960
71065SOL    HW215029   3.945  13.279  10.913
71066SOL     OW15030  13.126   2.334  12.806
71066SOL    HW115031  13.144   2.399  12.874
71066SOL    HW215032  13.106   2.254  12.854
71067SOL     OW15033  10.380   6.786  10.070
71067SOL    HW115034  10.374   6.694  10.047
71067SOL    HW215035  10.354   6.790  10.162
71068SOL     OW15036   5.706   6.898  10.721
71068SOL    HW115037   5.633   6.841  10.748
71068SOL    HW215038   5.780   6.868  10.774
71069SOL     OW15039   1.686   5.407  10.055
71069SOL    HW115040   1.647   5.379  10.137
71069SOL    HW215041   1.758   5.464  10.080
71070SOL     OW15042  11.506  11.119   4.000
71070SOL    HW115043  11.540  11.056   3.937
71070SOL    HW215044  11.416  11.136   3.972
71071SOL     OW15045   7.684   6.703   5.640
71071SOL    HW115046   7.596   6.675   5.663
71071SOL    HW215047   7.675   6.797   5.620
71072SOL     OW15048  11.294   6.548  11.212
71072SOL    HW115049  11.319   6.474  11.157
71072SOL    HW215050  11.375   6.598  11.224
71073SOL     OW15051   9.402   0.659   2.843
71073SOL    HW115052   9.326   0.685   2.791
71073SOL    HW215053   9.426   0.573   2.810
71074SOL     OW15054   6.024  14.555   8.188
71074SOL    HW115055   6.084  14.535   8.116
71074SOL    HW215056   5.985  14.470   8.210
71075SOL     OW15057   2.499  12.445   6.234
71075SOL    HW115058   2.443  12.470   6.308
71075SOL    HW215059   2.527  12.528   6.197
71076SOL     OW15060  11.119  10.106   4.416
71076SOL    HW115061  11.087  10.053   4.343
71076SOL    HW215062  11.194  10.154   4.379
71077SOL     OW15063   9.142  10.738   4.805
71077SOL    HW115064   9.145  10.731   4.709
71077SOL    HW215065   9.176  10.825   4.824
71078SOL     OW15066  11.019   2.520   6.123
71078SOL    HW115067  11.057   2.557   6.203
71078SOL    HW215068  11.026   2.590   6.059
71079SOL     OW15069   1.912   5.413  11.169
71079SOL    HW115070   1.861   5.492  11.149
71079SOL    HW215071   1.989   5.446  11.216
71080SOL     OW15072  12.905   5.217  13.822
71080SOL    HW115073  12.844   5.289  13.839
71080SOL    HW215074  12.896   5.200  13.729
71081SOL     OW15075   9.429   3.817   3.400
71081SOL    HW115076   9.376   3.865   3.464
71081SOL    HW215077   9.373   3.811   3.323
71082SOL     OW15078  14.243  14.487   0.808
71082SOL    HW115079  14.281  14.450   0.729
71082SOL    HW215080  14.285  14.440   0.880
71083SOL     OW15081  10.989   5.142  11.872
71083SOL    HW115082  11.022   5.218  11.823
71083SOL    HW215083  11.044   5.069  11.843
71084SOL     OW15084   9.973  12.120  13.715
71084SOL    HW115085   9.995  12.054  13.781
71084SOL    HW215086   9.908  12.077  13.659
71085SOL     OW15087   2.636  14.269  10.157
71085SOL    HW115088   2.632  14.229  10.070
71085SOL    HW215089   2.603  14.358  10.144
71086SOL     OW15090   7.927  11.218   7.073
71086SOL    HW115091   7.990  11.178   7.013
71086SOL    HW215092   7.846  11.224   7.022
71087SOL     OW15093   2.047   6.213   0.425
71087SOL    HW115094   2.126   6.267   0.436
71087SOL    HW215095   2.062   6.166   0.343
71088SOL     OW15096   9.133   3.089   2.402
71088SOL    HW115097   9.190   3.051   2.470
71088SOL    HW215098   9.191   3.146   2.352
71089SOL     OW15099  10.671  13.531   3.089
71089SOL    HW115100  10.626  13.460   3.136
71089SOL    HW215101  10.601  13.580   3.047
71090SOL     OW15102   7.361   2.928   1.911
71090SOL    HW115103   7.363   3.023   1.925
71090SOL    HW215104   7.443   2.909   1.866
71091SOL     OW15105   4.246  13.711  13.886
71091SOL    HW115106   4.206  13.647  13.945
71091SOL    HW215107   4.171  13.760  13.851
71092SOL     OW15108   6.232  13.265  14.188
71092SOL    HW115109   6.144  13.303  14.194
71092SOL    HW215110   6.264  13.264  14.278
71093SOL     OW15111   5.169  14.115   8.291
71093SOL    HW115112   5.148  14.156   8.207
71093SOL    HW215113   5.152  14.183   8.356
71094SOL     OW15114   6.178   8.709   2.826
71094SOL    HW115115   6.132   8.780   2.783
71094SOL    HW215116   6.250   8.752   2.872
71095SOL     OW15117  13.433   2.682  12.857
71095SOL    HW115118  13.343   2.713  12.868
71095SOL    HW215119  13.487   2.760  12.866
71096SOL     OW15120  10.911   0.494   8.505
71096SOL    HW115121  10.936   0.462   8.418
71096SOL    HW215122  10.820   0.523   8.495
71097SOL     OW15123  14.330   8.017   3.096
71097SOL    HW115124  14.308   8.061   3.178
71097SOL    HW215125  14.420   7.986   3.109
71098SOL     OW15126  14.332   5.180   2.133
71098SOL    HW115127  14.376   5.150   2.053
71098SOL    HW215128  14.245   5.206   2.104
71099SOL     OW15129   3.641  14.676   9.283
71099SOL    HW115130   3.622  14.635   9.199
71099SOL    HW215131   3.733  14.703   9.277
71100SOL     OW15132   9.195   6.403   1.745
71100SOL    HW115133   9.287   6.420   1.765
71100SOL    HW215134   9.187   6.308   1.753
71101SOL     OW15135   2.212   1.556   7.275
71101SOL    HW115136   2.136   1.497   7.272
71101SOL    HW215137   2.189   1.629   7.218
71102SOL     OW15138  14.021   2.263   6.781
71102SOL    HW115139  14.081   2.290   6.850
71102SOL    HW215140  13.944   2.318   6.792
71103SOL     OW15141  12.346  13.102   8.869
71103SOL    HW115142  12.268  13.122   8.818
71103SOL    HW215143  12.419  13.126   8.812
71104SOL     OW15144  14.609   0.697   3.027
71104SOL    HW115145  14.678   0.680   3.091
71104SOL    HW215146  14.544   0.628   3.044
71105SOL     OW15147  14.412  14.330   4.427
71105SOL    HW115148  14.428  14.236   4.426
71105SOL    HW215149  14.352  14.345   4.353
71106SOL     OW15150   1.650   5.317  10.770
71106SOL    HW115151   1.735   5.358  10.754
71106SOL    HW215152   1.671   5.226  10.789
71107SOL     OW15153  12.977   9.811   7.715
71107SOL    HW115154  12.992   9.905   7.720
71107SOL    HW215155  12.921   9.791   7.790
71108SOL     OW15156  10.821   4.361   1.811
71108SOL    HW115157  10.765   4.393   1.741
71108SOL    HW215158  10.907   4.352   1.771
71109SOL     OW15159   0.808   9.679   4.920
71109SOL    HW115160   0.717   9.651   4.911
71109SOL    HW215161   0.803   9.759   4.973
71110SOL     OW15162  12.544   3.751  10.469
71110SOL    HW115163  12.589   3.832  10.494
71110SOL    HW215164  12.597   3.714  10.399
71111SOL     OW15165   1.984  10.656  13.270
71111SOL    HW115166   1.922  10.690  13.206
71111SOL    HW215167   1.943  10.577  13.304
71112SOL     OW15168   7.179  11.333  11.659
71112SOL    HW115169   7.206  11.420  11.630
71112SOL    HW215170   7.096  11.348  11.704
71113SOL     OW15171   7.746   7.454  11.584
71113SOL    HW115172   7.757   7.549  11.578
71113SOL    HW215173   7.666   7.437  11.535
71114SOL     OW15174   6.833   2.489   3.125
71114SOL    HW115175   6.765   2.421   3.123
71114SOL    HW215176   6.860   2.498   3.033
71115SOL     OW15177   3.796   6.182   0.586
71115SOL    HW115178   3.882   6.215   0.613
71115SOL    HW215179   3.799   6.088   0.605
71116SOL     OW15180  13.856   2.603  13.292
71116SOL    HW115181  13.764   2.627  13.276
71116SOL    HW215182  13.889   2.577  13.206
71117SOL     OW15183   8.650  10.018   4.262
71117SOL    HW115184   8.614  10.056   4.342
71117SOL    HW215185   8.682   9.932   4.288
71118SOL     OW15186  13.447   9.357  10.734
71118SOL    HW115187  13.441   9.447  10.704
71118SOL    HW215188  13.539   9.332  10.721
71119SOL     OW15189   4.797   5.481   4.695
71119SOL    HW115190   4.856   5.541   4.650
71119SOL    HW215191   4.790   5.405   4.636
71120SOL     OW15192   5.324   4.414   8.520
71120SOL    HW115193   5.312   4.452   8.607
71120SOL    HW215194   5.283   4.327   8.526
71121SOL     OW15195   4.151   5.282   4.037
71121SOL    HW115196   4.126   5.203   3.990
71121SOL    HW215197   4.234   5.261   4.079
71122SOL     OW15198   5.694   6.210   9.763
71122SOL    HW115199   5.650   6.262   9.830
71122SOL    HW215200   5.786   6.207   9.790
71123SOL     OW15201   7.422  14.280   4.178
71123SOL    HW115202   7.515  14.255   4.179
71123SOL    HW215203   7.421  14.369   4.143
71124SOL     OW15204   0.449   9.352   0.885
71124SOL    HW115205   0.531   9.365   0.931
71124SOL    HW215206   0.462   9.272   0.834
71125SOL     OW15207   6.614  10.843   5.457
71125SOL    HW115208   6.592  10.756   5.424
71125SOL    HW215209   6.564  10.850   5.539
71126SOL     OW15210   4.186   8.396   1.651
71126SOL    HW115211   4.245   8.327   1.622
71126SOL    HW215212   4.107   8.383   1.600
71127SOL     OW15213  10.902  13.207   3.316
71127SOL    HW115214  10.934  13.168   3.397
71127SOL    HW215215  10.840  13.274   3.345
71128SOL     OW15216   5.450  10.305  10.022
71128SOL    HW115217   5.414  10.260  10.099
71128SOL    HW215218   5.484  10.234   9.968
71129SOL     OW15219   2.132  14.135  10.414
71129SOL    HW115220   2.047  14.096  10.437
71129SOL    HW215221   2.188  14.117  10.489
71130SOL     OW15222   1.457  14.385  11.706
71130SOL    HW115223   1.530  14.341  11.662
71130SOL    HW215224   1.499  14.437  11.776
71131SOL     OW15225   9.347   2.517  10.303
71131SOL    HW115226   9.337   2.535  10.210
71131SOL    HW215227   9.262   2.537  10.342
71132SOL     OW15228  11.789   1.868  12.493
71132SOL    HW115229  11.828   1.949  12.524
71132SOL    HW215230  11.730   1.895  12.422
71133SOL     OW15231   4.511   0.072   4.903
71133SOL    HW115232   4.471   0.116   4.977
71133SOL    HW215233   4.483   0.123   4.827
71134SOL     OW15234   8.797   4.828   9.806
71134SOL    HW115235   8.804   4.765   9.879
71134SOL    HW215236   8.726   4.794   9.752
71135SOL     OW15237  12.736   3.765   6.581
71135SOL    HW115238  12.718   3.718   6.499
71135SOL    HW215239  12.658   3.819   6.594
71136SOL     OW15240  12.550   1.826   8.032
71136SOL    HW115241  12.606   1.786   7.965
71136SOL    HW215242  12.612   1.869   8.091
71137SOL     OW15243  12.878  13.165  12.189
71137SOL    HW115244  12.800  13.174  12.244
71137SOL    HW215245  12.850  13.108  12.118
71138SOL     OW15246   3.416   4.222   4.796
71138SOL    HW115247   3.392   4.205   4.887
71138SOL    HW215248   3.338   4.200   4.746
71139SOL     OW15249  13.613   4.092   7.939
71139SOL    HW115250  13.595   4.094   7.845
71139SOL    HW215251  13.614   3.999   7.962
71140SOL     OW15252   2.973   4.597   3.644
71140SOL    HW115253   2.942   4.688   3.639
71140SOL    HW215254   2.892   4.545   3.646
71141SOL     OW15255  10.778  10.318   4.535
71141SOL    HW115256  10.867  10.315   4.568
71141SOL    HW215257  10.739  10.395   4.576
71142SOL     OW15258   2.097  10.662  11.821
71142SOL    HW115259   2.154  10.703  11.756
71142SOL    HW215260   2.076  10.576  11.784
71143SOL     OW15261  10.986   4.921  13.610
71143SOL    HW115262  10.934   4.841  13.620
71143SOL    HW215263  11.075   4.895  13.634
71144SOL     OW15264   8.648   7.347  13.633
71144SOL    HW115265   8.645   7.329  13.539
71144SOL    HW215266   8.669   7.263  13.673
71145SOL     OW15267  12.143  12.777   9.295
71145SOL    HW115268  12.076  12.789   9.228
71145SOL    HW215269  12.189  12.862   9.299
71146SOL     OW15270   8.773  13.148   8.476
71146SOL    HW115271   8.800  13.132   8.566
71146SOL    HW215272   8.801  13.238   8.458
71147SOL     OW15273   7.941   9.427   2.712
71147SOL    HW115274   7.984   9.510   2.693
71147SOL    HW215275   8.010   9.371   2.748
71148SOL     OW15276   0.127  10.506   0.694
71148SOL    HW115277   0.047  10.479   0.739
71148SOL    HW215278   0.097  10.536   0.608
71149SOL     OW15279   6.640   2.744   4.326
71149SOL    HW115280   6.679   2.757   4.240
71149SOL    HW215281   6.711   2.757   4.388
71150SOL     OW15282  11.424  11.184   7.777
71150SOL    HW115283  11.461  11.198   7.864
71150SOL    HW215284  11.359  11.254   7.767
71151SOL     OW15285  10.592  13.308   5.350
71151SOL    HW115286  10.668  13.273   5.305
71151SOL    HW215287  10.628  13.371   5.413
71152SOL     OW15288   1.617   7.171   7.426
71152SOL    HW115289   1.557   7.104   7.393
71152SOL    HW215290   1.703   7.142   7.398
71153SOL     OW15291  12.431  11.376   9.619
71153SOL    HW115292  12.371  11.319   9.570
71153SOL    HW215293  12.412  11.464   9.587
71154SOL     OW15294   3.762   7.793   2.611
71154SOL    HW115295   3.850   7.757   2.615
71154SOL    HW215296   3.762   7.863   2.676
71155SOL     OW15297   9.554   1.555   7.299
71155SOL    HW115298   9.582   1.591   7.215
71155SOL    HW215299   9.611   1.597   7.364
71156SOL     OW15300   8.778   9.084   1.592
71156SOL    HW115301   8.808   8.995   1.611
71156SOL    HW215302   8.758   9.082   1.499
71157SOL     OW15303  11.320   6.299   5.473
71157SOL    HW115304  11.346   6.231   5.411
71157SOL    HW215305  11.224   6.301   5.467
71158SOL     OW15306   5.689   6.598  13.763
71158SOL    HW115307   5.711   6.643  13.845
71158SOL    HW215308   5.605   6.555  13.781
71159SOL     OW15309   3.805   5.807  10.789
71159SOL    HW115310   3.772   5.763  10.867
71159SOL    HW215311   3.844   5.888  10.822
71160SOL     OW15312   6.860  13.385   6.445
71160SOL    HW115313   6.948  13.422   6.442
71160SOL    HW215314   6.803  13.461   6.449
71161SOL     OW15315   0.130   8.850   2.337
71161SOL    HW115316   0.181   8.864   2.256
71161SOL    HW215317   0.077   8.929   2.346
71162SOL     OW15318   8.373   3.388  13.449
71162SOL    HW115319   8.405   3.299  13.460
71162SOL    HW215320   8.285   3.387  13.488
71163SOL     OW15321   7.785   1.841  14.370
71163SOL    HW115322   7.870   1.831  14.328
71163SOL    HW215323   7.725   1.861  14.299
71164SOL     OW15324  14.055  14.707  13.156
71164SOL    HW115325  14.025  14.634  13.210
71164SOL    HW215326  14.150  14.695  13.150
71165SOL     OW15327  12.659   2.381  14.848
71165SOL    HW115328  12.597   2.421   0.030
71165SOL    HW215329  12.671   2.447  14.779
71166SOL     OW15330  14.425   9.337  10.537
71166SOL    HW115331  14.436   9.287  10.618
71166SOL    HW215332  14.345   9.301  10.497
71167SOL     OW15333   7.473   6.624   6.630
71167SOL    HW115334   7.495   6.606   6.538
71167SOL    HW215335   7.445   6.716   6.630
71168SOL     OW15336   5.284  12.357   8.060
71168SOL    HW115337   5.319  12.300   7.992
71168SOL    HW215338   5.223  12.415   8.015
71169SOL     OW15339  13.280  13.597   7.287
71169SOL    HW115340  13.238  13.682   7.293
71169SOL    HW215341  13.310  13.590   7.197
71170SOL     OW15342   6.911   6.474   6.639
71170SOL    HW115343   6.923   6.456   6.546
71170SOL    HW215344   6.985   6.431   6.682
71171SOL     OW15345   0.079   9.842  10.343
71171SOL    HW115346   0.002   9.785  10.350
71171SOL    HW215347   0.152   9.782  10.327
71172SOL     OW15348   7.152  13.022   3.453
71172SOL    HW115349   7.059  13.011   3.473
71172SOL    HW215350   7.161  13.114   3.427
71173SOL     OW15351   7.236  14.871   7.421
71173SOL    HW115352   7.171  14.825   7.473
71173SOL    HW215353   7.294  14.802   7.388
71174SOL     OW15354   9.888  10.692  13.863
71174SOL    HW115355   9.966  10.731  13.903
71174SOL    HW215356   9.846  10.765  13.817
71175SOL     OW15357   0.649   1.410   3.966
71175SOL    HW115358   0.594   1.383   3.893
71175SOL    HW215359   0.738   1.402   3.933
71176SOL     OW15360  11.000   6.224   6.983
71176SOL    HW115361  11.009   6.149   6.925
71176SOL    HW215362  11.062   6.207   7.054
71177SOL     OW15363  14.686   7.597   4.489
71177SOL    HW115364  14.764   7.564   4.444
71177SOL    HW215365  14.720   7.665   4.547
71178SOL     OW15366  12.394  14.342   4.638
71178SOL    HW115367  12.331  14.275   4.612
71178SOL    HW215368  12.348  14.425   4.625
71179SOL     OW15369   9.307   2.128   8.293
71179SOL    HW115370   9.299   2.188   8.367
71179SOL    HW215371   9.343   2.181   8.222
71180SOL     OW15372   8.244   9.857   5.915
71180SOL    HW115373   8.151   9.836   5.925
71180SOL    HW215374   8.256   9.871   5.821
71181SOL     OW15375   7.148  13.454  12.473
71181SOL    HW115376   7.085  13.488  12.409
71181SOL    HW215377   7.100  13.384  12.518
71182SOL     OW15378   0.009   8.102   8.631
71182SOL    HW115379   0.030   8.069   8.718
71182SOL    HW215380  14.850   8.189   8.646
71183SOL     OW15381  13.749  14.555  14.344
71183SOL    HW115382  13.784  14.469  14.320
71183SOL    HW215383  13.755  14.556  14.440
71184SOL     OW15384   3.908  13.101   3.579
71184SOL    HW115385   3.844  13.062   3.638
71184SOL    HW215386   3.992  13.081   3.618
71185SOL     OW15387   2.541  13.251  10.776
71185SOL    HW115388   2.499  13.261  10.690
71185SOL    HW215389   2.531  13.337  10.817
71186SOL     OW15390   9.861  12.657   3.587
71186SOL    HW115391   9.883  12.623   3.500
71186SOL    HW215392   9.766  12.655   3.591
71187SOL     OW15393  14.121   6.901   3.945
71187SOL    HW115394  14.115   6.980   3.998
71187SOL    HW215395  14.048   6.847   3.974
71188SOL     OW15396   2.310   2.410   4.212
71188SOL    HW115397   2.221   2.405   4.246
71188SOL    HW215398   2.332   2.503   4.214
71189SOL     OW15399   8.294  10.684   4.189
71189SOL    HW115400   8.252  10.603   4.220
71189SOL    HW215401   8.352  10.655   4.119
71190SOL     OW15402   4.931   7.023   8.768
71190SOL    HW115403   4.952   7.033   8.675
71190SOL    HW215404   4.883   7.102   8.791
71191SOL     OW15405   8.766  13.947   9.916
71191SOL    HW115406   8.683  13.993   9.903
71191SOL    HW215407   8.808  13.950   9.831
71192SOL     OW15408   7.111  10.781   7.259
71192SOL    HW115409   7.117  10.835   7.337
71192SOL    HW215410   7.019  10.788   7.232
71193SOL     OW15411   1.262   8.255   1.344
71193SOL    HW115412   1.235   8.341   1.375
71193SOL    HW215413   1.356   8.265   1.326
71194SOL     OW15414   6.361   2.282   8.852
71194SOL    HW115415   6.414   2.254   8.927
71194SOL    HW215416   6.316   2.360   8.882
71195SOL     OW15417  13.449   6.640   0.245
71195SOL    HW115418  13.409   6.662   0.329
71195SOL    HW215419  13.387   6.672   0.180
71196SOL     OW15420   4.369   4.786   5.576
71196SOL    HW115421   4.350   4.770   5.484
71196SOL    HW215422   4.395   4.700   5.610
71197SOL     OW15423   6.492   6.789  13.024
71197SOL    HW115424   6.545   6.724  13.069
71197SOL    HW215425   6.545   6.816  12.949
71198SOL     OW15426   1.721  14.829  11.728
71198SOL    HW115427   1.686  14.792  11.809
71198SOL    HW215428   1.730  14.753  11.669
71199SOL     OW15429  14.003   9.452   7.352
71199SOL    HW115430  13.989   9.366   7.392
71199SOL    HW215431  14.022   9.432   7.260
71200SOL     OW15432  14.099  11.727   4.999
71200SOL    HW115433  14.123  11.641   4.964
71200SOL    HW215434  14.137  11.789   4.938
71201SOL     OW15435  14.199  14.654   8.519
71201SOL    HW115436  14.164  14.742   8.511
71201SOL    HW215437  14.193  14.617   8.431
71202SOL     OW15438  11.402   7.325   3.283
71202SOL    HW115439  11.358   7.243   3.259
71202SOL    HW215440  11.467   7.339   3.214
71203SOL     OW15441   0.216   5.098   1.935
71203SOL    HW115442   0.187   5.143   1.855
71203SOL    HW215443   0.229   5.168   1.999
71204SOL     OW15444   0.684  10.420   9.970
71204SOL    HW115445   0.616  10.485   9.988
71204SOL    HW215446   0.762  10.473   9.951
71205SOL     OW15447  14.719   9.994   3.365
71205SOL    HW115448  14.779   9.922   3.381
71205SOL    HW215449  14.753  10.036   3.286
71206SOL     OW15450   4.847  13.057  10.372
71206SOL    HW115451   4.812  13.078  10.459
71206SOL    HW215452   4.771  13.027  10.323
71207SOL     OW15453   1.671   4.796   6.267
71207SOL    HW115454   1.649   4.878   6.311
71207SOL    HW215455   1.753   4.768   6.308
71208SOL     OW15456  11.833   8.423  11.227
71208SOL    HW115457  11.918   8.410  11.187
71208SOL    HW215458  11.842   8.391  11.316
71209SOL     OW15459   9.927   8.219  14.572
71209SOL    HW115460   9.934   8.187  14.662
71209SOL    HW215461   9.953   8.310  14.577
71210SOL     OW15462  13.257  10.639   0.996
71210SOL    HW115463  13.191  10.663   1.061
71210SOL    HW215464  13.320  10.710   1.000
71211SOL     OW15465   7.865   5.467   1.097
71211SOL    HW115466   7.853   5.372   1.087
71211SOL    HW215467   7.920   5.476   1.175
71212SOL     OW15468   9.315   4.248   7.886
71212SOL    HW115469   9.348   4.174   7.834
71212SOL    HW215470   9.381   4.316   7.875
71213SOL     OW15471   0.038   4.075   6.790
71213SOL    HW115472   0.056   4.101   6.700
71213SOL    HW215473   0.022   3.980   6.785
71214SOL     OW15474  10.455  13.101   9.110
71214SOL    HW115475  10.455  13.131   9.019
71214SOL    HW215476  10.368  13.063   9.122
71215SOL     OW15477  14.079   0.939   7.007
71215SOL    HW115478  14.129   1.002   6.954
71215SOL    HW215479  13.997   0.984   7.026
71216SOL     OW15480   5.410  13.392   6.169
71216SOL    HW115481   5.381  13.438   6.247
71216SOL    HW215482   5.501  13.417   6.159
71217SOL     OW15483   8.096   8.806   8.538
71217SOL    HW115484   8.006   8.775   8.537
71217SOL    HW215485   8.110   8.837   8.627
71218SOL     OW15486   3.445   3.000   9.307
71218SOL    HW115487   3.375   2.935   9.295
71218SOL    HW215488   3.430   3.064   9.237
71219SOL     OW15489   1.363   2.007   4.408
71219SOL    HW115490   1.320   1.929   4.444
71219SOL    HW215491   1.313   2.081   4.442
71220SOL     OW15492   1.361   2.024   6.071
71220SOL    HW115493   1.428   1.979   6.020
71220SOL    HW215494   1.381   2.001   6.162
71221SOL     OW15495  14.049   8.001   3.968
71221SOL    HW115496  14.031   7.934   3.901
71221SOL    HW215497  13.963   8.033   3.994
71222SOL     OW15498   3.260   9.287   8.654
71222SOL    HW115499   3.249   9.192   8.644
71222SOL    HW215500   3.297   9.298   8.741
71223SOL     OW15501   2.871   8.150  14.153
71223SOL    HW115502   2.817   8.078  14.187
71223SOL    HW215503   2.811   8.199  14.096
71224SOL     OW15504   2.277  12.407   7.650
71224SOL    HW115505   2.187  12.403   7.617
71224SOL    HW215506   2.294  12.319   7.683
71225SOL     OW15507  11.984   8.851  13.478
71225SOL    HW115508  11.988   8.852  13.383
71225SOL    HW215509  12.069   8.815  13.505
71226SOL     OW15510  10.471   3.172  14.292
71226SOL    HW115511  10.421   3.091  14.292
71226SOL    HW215512  10.499   3.183  14.202
71227SOL     OW15513   0.733   2.842   6.185
71227SOL    HW115514   0.755   2.877   6.271
71227SOL    HW215515   0.641   2.818   6.191
71228SOL     OW15516   3.460  13.285  13.814
71228SOL    HW115517   3.385  13.299  13.871
71228SOL    HW215518   3.516  13.225  13.864
71229SOL     OW15519   1.325   9.354   8.577
71229SOL    HW115520   1.335   9.410   8.500
71229SOL    HW215521   1.323   9.265   8.541
71230SOL     OW15522   8.429   8.578   3.602
71230SOL    HW115523   8.425   8.644   3.532
71230SOL    HW215524   8.398   8.498   3.560
71231SOL     OW15525   3.866   6.230  11.458
71231SOL    HW115526   3.862   6.255  11.366
71231SOL    HW215527   3.865   6.134  11.457
71232SOL     OW15528   2.772  11.053   2.452
71232SOL    HW115529   2.850  10.998   2.462
71232SOL    HW215530   2.704  11.007   2.502
71233SOL     OW15531   4.031   8.226   7.352
71233SOL    HW115532   4.091   8.161   7.390
71233SOL    HW215533   4.028   8.296   7.418
71234SOL     OW15534   2.875  14.777   3.412
71234SOL    HW115535   2.870  14.692   3.369
71234SOL    HW215536   2.788  14.789   3.451
71235SOL     OW15537  10.985   5.627  10.550
71235SOL    HW115538  10.910   5.577  10.519
71235SOL    HW215539  11.022   5.574  10.621
71236SOL     OW15540   8.820   1.376   2.792
71236SOL    HW115541   8.859   1.447   2.842
71236SOL    HW215542   8.765   1.329   2.855
71237SOL     OW15543   2.066   0.626   4.021
71237SOL    HW115544   1.999   0.633   4.089
71237SOL    HW215545   2.017   0.627   3.939
71238SOL     OW15546   8.511   6.891   0.066
71238SOL    HW115547   8.458   6.811   0.067
71238SOL    HW215548   8.598   6.863   0.039
71239SOL     OW15549  13.708   2.803   5.713
71239SOL    HW115550  13.749   2.832   5.632
71239SOL    HW215551  13.733   2.869   5.777
71240SOL     OW15552   9.720   4.246   7.864
71240SOL    HW115553   9.640   4.296   7.879
71240SOL    HW215554   9.787   4.291   7.915
71241SOL     OW15555   5.185  10.507  14.310
71241SOL    HW115556   5.144  10.507  14.223
71241SOL    HW215557   5.189  10.600  14.334
71242SOL     OW15558   3.972  10.478   9.155
71242SOL    HW115559   4.008  10.486   9.244
71242SOL    HW215560   3.988  10.564   9.116
71243SOL     OW15561   6.832   9.525  11.191
71243SOL    HW115562   6.865   9.613  11.174
71243SOL    HW215563   6.904   9.480  11.235
71244SOL     OW15564  10.875   3.802   7.354
71244SOL    HW115565  10.790   3.766   7.331
71244SOL    HW215566  10.866   3.832   7.444
71245SOL     OW15567   3.728   2.771   9.872
71245SOL    HW115568   3.772   2.734   9.948
71245SOL    HW215569   3.634   2.759   9.890
71246SOL     OW15570   9.603  10.036  12.540
71246SOL    HW115571   9.643   9.950  12.548
71246SOL    HW215572   9.524  10.021  12.488
71247SOL     OW15573  13.964  10.742  12.169
71247SOL    HW115574  13.871  10.733  12.150
71247SOL    HW215575  13.972  10.826  12.215
71248SOL     OW15576   0.323  11.649  12.374
71248SOL    HW115577   0.335  11.733  12.329
71248SOL    HW215578   0.412  11.615  12.385
71249SOL     OW15579   7.415   0.894   3.893
71249SOL    HW115580   7.452   0.809   3.869
71249SOL    HW215581   7.355   0.875   3.965
71250SOL     OW15582   6.930   2.173  13.600
71250SOL    HW115583   6.891   2.173  13.687
71250SOL    HW215584   6.884   2.241  13.552
71251SOL     OW15585   2.453   6.193   8.239
71251SOL    HW115586   2.493   6.214   8.323
71251SOL    HW215587   2.478   6.264   8.181
71252SOL     OW15588   8.791  12.012   0.090
71252SOL    HW115589   8.775  12.067   0.013
71252SOL    HW215590   8.766  11.924   0.064
71253SOL     OW15591   6.073  13.442   2.182
71253SOL    HW115592   6.106  13.393   2.106
71253SOL    HW215593   6.076  13.534   2.154
71254SOL     OW15594   3.114  13.888  11.402
71254SOL    HW115595   3.111  13.811  11.458
71254SOL    HW215596   3.202  13.886  11.364
71255SOL     OW15597   9.732  11.098   7.693
71255SOL    HW115598   9.692  11.178   7.727
71255SOL    HW215599   9.734  11.038   7.768
71256SOL     OW15600   3.059   6.191   2.625
71256SOL    HW115601   3.116   6.179   2.548
71256SOL    HW215602   3.119   6.212   2.696
71257SOL     OW15603   1.902   6.223  12.191
71257SOL    HW115604   1.814   6.186  12.189
71257SOL    HW215605   1.892   6.310  12.151
71258SOL     OW15606  10.898  12.032   1.206
71258SOL    HW115607  10.910  12.127   1.214
71258SOL    HW215608  10.931  11.997   1.289
71259SOL     OW15609   1.923   0.828   5.470
71259SOL    HW115610   1.927   0.745   5.518
71259SOL    HW215611   1.868   0.885   5.524
71260SOL     OW15612   9.247  13.815   3.962
71260SOL    HW115613   9.155  13.814   3.987
71260SOL    HW215614   9.282  13.732   3.995
71261SOL     OW15615   7.363   0.658  11.045
71261SOL    HW115616   7.364   0.679  10.952
71261SOL    HW215617   7.271   0.663  11.070
71262SOL     OW15618   4.458   8.220   2.025
71262SOL    HW115619   4.520   8.191   1.958
71262SOL    HW215620   4.404   8.143   2.043
71263SOL     OW15621   3.332   3.166   3.375
71263SOL    HW115622   3.382   3.205   3.447
71263SOL    HW215623   3.275   3.102   3.417
71264SOL     OW15624   2.694   5.600   4.084
71264SOL    HW115625   2.602   5.622   4.096
71264SOL    HW215626   2.714   5.539   4.154
71265SOL     OW15627   6.839   5.057  12.308
71265SOL    HW115628   6.799   5.047  12.221
71265SOL    HW215629   6.785   5.123  12.351
71266SOL     OW15630   6.263  10.795   9.264
71266SOL    HW115631   6.226  10.708   9.247
71266SOL    HW215632   6.187  10.853   9.271
71267SOL     OW15633  12.378   7.757  12.996
71267SOL    HW115634  12.447   7.695  12.971
71267SOL    HW215635  12.309   7.744  12.931
71268SOL     OW15636  10.318  12.020  10.866
71268SOL    HW115637  10.368  11.981  10.938
71268SOL    HW215638  10.330  12.115  10.876
71269SOL     OW15639  11.573  10.213   6.852
71269SOL    HW115640  11.612  10.232   6.767
71269SOL    HW215641  11.557  10.119   6.850
71270SOL     OW15642   9.449   0.826   8.881
71270SOL    HW115643   9.447   0.848   8.974
71270SOL    HW215644   9.444   0.910   8.836
71271SOL     OW15645   3.536   8.126   5.258
71271SOL    HW115646   3.566   8.035   5.269
71271SOL    HW215647   3.495   8.126   5.171
71272SOL     OW15648   8.352   4.453   4.657
71272SOL    HW115649   8.291   4.492   4.720
71272SOL    HW215650   8.303   4.381   4.617
71273SOL     OW15651   7.542   4.882  12.099
71273SOL    HW115652   7.491   4.821  12.046
71273SOL    HW215653   7.530   4.967  12.057
71274SOL     OW15654   3.890  10.922  10.523
71274SOL    HW115655   3.972  10.937  10.476
71274SOL    HW215656   3.845  10.855  10.472
71275SOL     OW15657   3.014   2.273   6.189
71275SOL    HW115658   3.080   2.339   6.166
71275SOL    HW215659   3.019   2.208   6.119
71276SOL     OW15660   3.016   7.844   9.148
71276SOL    HW115661   3.056   7.931   9.157
71276SOL    HW215662   2.995   7.837   9.054
71277SOL     OW15663  12.897   5.943  14.118
71277SOL    HW115664  12.992   5.933  14.125
71277SOL    HW215665  12.862   5.871  14.171
71278SOL     OW15666   5.263   9.273  13.971
71278SOL    HW115667   5.275   9.193  13.920
71278SOL    HW215668   5.216   9.332  13.911
71279SOL     OW15669   7.127   1.341  14.626
71279SOL    HW115670   7.102   1.361  14.536
71279SOL    HW215671   7.063   1.275  14.654
71280SOL     OW15672  11.120  11.446   2.624
71280SOL    HW115673  11.061  11.492   2.565
71280SOL    HW215674  11.071  11.437   2.705
71281SOL     OW15675  14.600  13.452   8.911
71281SOL    HW115676  14.539  13.417   8.846
71281SOL    HW215677  14.681  13.402   8.898
71282SOL     OW15678  11.626   7.198  14.562
71282SOL    HW115679  11.624   7.265  14.493
71282SOL    HW215680  11.717   7.199  14.593
71283SOL     OW15681   5.179   0.391   2.267
71283SOL    HW115682   5.108   0.423   2.211
71283SOL    HW215683   5.165   0.434   2.351
71284SOL     OW15684   1.140  11.768   5.850
71284SOL    HW115685   1.091  11.718   5.784
71284SOL    HW215686   1.109  11.733   5.934
71285SOL     OW15687   5.152   7.759  11.904
71285SOL    HW115688   5.220   7.732  11.966
71285SOL    HW215689   5.073   7.766  11.957
71286SOL     OW15690   7.555   6.699  13.049
71286SOL    HW115691   7.566   6.606  13.065
71286SOL    HW215692   7.466   6.718  13.079
71287SOL     OW15693   2.428   2.289   0.949
71287SOL    HW115694   2.377   2.218   0.989
71287SOL    HW215695   2.386   2.369   0.979
71288SOL     OW15696   4.633  12.692   5.394
71288SOL    HW115697   4.612  12.636   5.320
71288SOL    HW215698   4.729  12.702   5.391
71289SOL     OW15699  10.898   9.228   8.027
71289SOL    HW115700  10.980   9.246   8.072
71289SOL    HW215701  10.833   9.220   8.096
71290SOL     OW15702   3.637   8.887  11.573
71290SOL    HW115703   3.694   8.947  11.621
71290SOL    HW215704   3.626   8.813  11.632
71291SOL     OW15705   4.366   2.388  14.727
71291SOL    HW115706   4.420   2.415  14.801
71291SOL    HW215707   4.285   2.356  14.766
71292SOL     OW15708  11.675   4.133  11.928
71292SOL    HW115709  11.610   4.203  11.922
71292SOL    HW215710  11.636   4.069  11.987
71293SOL     OW15711   9.127   5.646   1.120
71293SOL    HW115712   9.049   5.699   1.108
71293SOL    HW215713   9.190   5.704   1.162
71294SOL     OW15714  11.180   8.913   1.287
71294SOL    HW115715  11.157   8.945   1.200
71294SOL    HW215716  11.097   8.883   1.325
71295SOL     OW15717   9.825   8.081  13.995
71295SOL    HW115718   9.846   8.012  13.932
71295SOL    HW215719   9.773   8.144  13.944
71296SOL     OW15720   1.780   5.623   4.858
71296SOL    HW115721   1.793   5.702   4.909
71296SOL    HW215722   1.822   5.640   4.774
71297SOL     OW15723   6.993   5.564   3.393
71297SOL    HW115724   7.019   5.572   3.485
71297SOL    HW215725   6.913   5.512   3.395
71298SOL     OW15726  10.131   9.087   6.946
71298SOL    HW115727  10.040   9.058   6.950
71298SOL    HW215728  10.132   9.151   6.875
71299SOL     OW15729  14.322   6.650   8.722
71299SOL    HW115730  14.388   6.624   8.786
71299SOL    HW215731  14.240   6.615   8.758
71300SOL     OW15732   0.515   5.448   4.410
71300SOL    HW115733   0.456   5.512   4.450
71300SOL    HW215734   0.487   5.364   4.448
71301SOL     OW15735   7.508   9.798   7.657
71301SOL    HW115736   7.451   9.721   7.651
71301SOL    HW215737   7.539   9.798   7.748
71302SOL     OW15738   2.443  10.157   3.649
71302SOL    HW115739   2.473  10.212   3.721
71302SOL    HW215740   2.350  10.178   3.639
71303SOL     OW15741   0.435  13.547   8.235
71303SOL    HW115742   0.504  13.506   8.182
71303SOL    HW215743   0.363  13.484   8.233
71304SOL     OW15744  13.465  13.043   8.921
71304SOL    HW115745  13.514  13.072   8.999
71304SOL    HW215746  13.455  12.949   8.932
71305SOL     OW15747   4.538   2.650   0.302
71305SOL    HW115748   4.507   2.671   0.390
71305SOL    HW215749   4.624   2.610   0.316
71306SOL     OW15750  12.800   3.635   6.317
71306SOL    HW115751  12.799   3.717   6.268
71306SOL    HW215752  12.737   3.579   6.272
71307SOL     OW15753   3.255   9.334   0.073
71307SOL    HW115754   3.330   9.288   0.110
71307SOL    HW215755   3.212   9.269   0.017
71308SOL     OW15756  13.895   9.336   8.571
71308SOL    HW115757  13.912   9.299   8.658
71308SOL    HW215758  13.803   9.317   8.555
71309SOL     OW15759  13.854   1.459  10.249
71309SOL    HW115760  13.859   1.379  10.196
71309SOL    HW215761  13.928   1.452  10.309
71310SOL     OW15762   7.014   4.852  11.117
71310SOL    HW115763   7.109   4.852  11.127
71310SOL    HW215764   6.999   4.887  11.030
71311SOL     OW15765   0.881  14.517   2.929
71311SOL    HW115766   0.916  14.588   2.984
71311SOL    HW215767   0.802  14.554   2.891
71312SOL     OW15768   7.235   7.227  11.736
71312SOL    HW115769   7.255   7.301  11.679
71312SOL    HW215770   7.320   7.184  11.749
71313SOL     OW15771   6.437  12.165   2.489
71313SOL    HW115772   6.345  12.140   2.482
71313SOL    HW215773   6.443  12.247   2.439
71314SOL     OW15774  11.730  13.590  10.590
71314SOL    HW115775  11.667  13.519  10.601
71314SOL    HW215776  11.815  13.549  10.605
71315SOL     OW15777   2.924   1.841   3.239
71315SOL    HW115778   3.013   1.830   3.207
71315SOL    HW215779   2.914   1.936   3.248
71316SOL     OW15780   3.422   0.032   3.378
71316SOL    HW115781   3.342  14.859   3.378
71316SOL    HW215782   3.434   0.060   3.287
71317SOL     OW15783  13.088   7.269   7.429
71317SOL    HW115784  13.065   7.177   7.444
71317SOL    HW215785  13.011   7.307   7.387
71318SOL     OW15786   4.376   7.670  12.302
71318SOL    HW115787   4.408   7.614  12.372
71318SOL    HW215788   4.328   7.739  12.347
71319SOL     OW15789   2.975   3.327   9.700
71319SOL    HW115790   3.060   3.354   9.736
71319SOL    HW215791   2.984   3.341   9.606
71320SOL     OW15792  13.827   0.210  12.461
71320SOL    HW115793  13.820   0.271  12.535
71320SOL    HW215794  13.879   0.259  12.396
71321SOL     OW15795   7.452   5.062   0.552
71321SOL    HW115796   7.357   5.046   0.556
71321SOL    HW215797   7.489   4.981   0.518
71322SOL     OW15798   6.012   4.228  13.326
71322SOL    HW115799   6.038   4.308  13.373
71322SOL    HW215800   5.999   4.163  13.395
71323SOL     OW15801   5.358   4.302  14.597
71323SOL    HW115802   5.437   4.326  14.548
71323SOL    HW215803   5.362   4.206  14.603
71324SOL     OW15804   3.381   6.131   9.222
71324SOL    HW115805   3.286   6.127   9.207
71324SOL    HW215806   3.414   6.047   9.192
71325SOL     OW15807  10.462  14.540   7.119
71325SOL    HW115808  10.389  14.570   7.173
71325SOL    HW215809  10.448  14.446   7.110
71326SOL     OW15810   8.021   7.399   2.232
71326SOL    HW115811   8.010   7.375   2.324
71326SOL    HW215812   8.114   7.386   2.214
71327SOL     OW15813   9.051   0.306   8.172
71327SOL    HW115814   9.146   0.292   8.175
71327SOL    HW215815   9.029   0.303   8.079
71328SOL     OW15816   7.628   0.634   5.456
71328SOL    HW115817   7.640   0.689   5.379
71328SOL    HW215818   7.586   0.692   5.520
71329SOL     OW15819  13.192  11.551   7.421
71329SOL    HW115820  13.258  11.502   7.371
71329SOL    HW215821  13.111  11.503   7.406
71330SOL     OW15822  14.426   3.288   6.589
71330SOL    HW115823  14.482   3.353   6.548
71330SOL    HW215824  14.481   3.209   6.595
71331SOL     OW15825   2.894  13.646   8.281
71331SOL    HW115826   2.871  13.590   8.207
71331SOL    HW215827   2.817  13.646   8.337
71332SOL     OW15828   5.142  14.524   9.777
71332SOL    HW115829   5.132  14.615   9.807
71332SOL    HW215830   5.227  14.497   9.811
71333SOL     OW15831   0.901   6.153   3.154
71333SOL    HW115832   0.837   6.211   3.195
71333SOL    HW215833   0.850   6.102   3.090
71334SOL     OW15834  12.745  10.657   1.874
71334SOL    HW115835  12.658  10.619   1.887
71334SOL    HW215836  12.732  10.719   1.802
71335SOL     OW15837   2.777   5.443   9.248
71335SOL    HW115838   2.799   5.362   9.204
71335SOL    HW215839   2.684   5.457   9.230
71336SOL     OW15840  12.709  12.737  13.791
71336SOL    HW115841  12.640  12.759  13.729
71336SOL    HW215842  12.667  12.679  13.855
71337SOL     OW15843   1.348   5.381  12.302
71337SOL    HW115844   1.373   5.289  12.289
71337SOL    HW215845   1.396   5.428  12.234
71338SOL     OW15846   8.078   5.241   7.683
71338SOL    HW115847   8.068   5.231   7.588
71338SOL    HW215848   8.152   5.301   7.692
71339SOL     OW15849   5.695   6.561   9.688
71339SOL    HW115850   5.726   6.512   9.612
71339SOL    HW215851   5.599   6.551   9.685
71340SOL     OW15852  14.408  10.589  12.885
71340SOL    HW115853  14.346  10.578  12.813
71340SOL    HW215854  14.485  10.628  12.844
71341SOL     OW15855  11.470  10.096   9.239
71341SOL    HW115856  11.466  10.000   9.241
71341SOL    HW215857  11.427  10.120   9.157
71342SOL     OW15858   1.877  12.476   8.375
71342SOL    HW115859   1.887  12.501   8.467
71342SOL    HW215860   1.950  12.417   8.358
71343SOL     OW15861   6.303  10.431  13.796
71343SOL    HW115862   6.383  10.479  13.815
71343SOL    HW215863   6.292  10.437  13.701
71344SOL     OW15864   8.508   7.570  11.751
71344SOL    HW115865   8.597   7.536  11.758
71344SOL    HW215866   8.463   7.539  11.829
71345SOL     OW15867  14.440   5.453   1.203
71345SOL    HW115868  14.418   5.399   1.127
71345SOL    HW215869  14.471   5.535   1.167
71346SOL     OW15870   0.951  13.541  12.227
71346SOL    HW115871   0.921  13.616  12.277
71346SOL    HW215872   1.043  13.531  12.251
71347SOL     OW15873   5.192   1.764   3.199
71347SOL    HW115874   5.267   1.751   3.141
71347SOL    HW215875   5.167   1.856   3.185
71348SOL     OW15876   5.390   8.095   5.474
71348SOL    HW115877   5.399   8.101   5.569
71348SOL    HW215878   5.309   8.045   5.461
71349SOL     OW15879  13.490  13.933  14.167
71349SOL    HW115880  13.450  13.906  14.085
71349SOL    HW215881  13.446  13.880  14.234
71350SOL     OW15882   7.150   8.627   6.458
71350SOL    HW115883   7.234   8.644   6.415
71350SOL    HW215884   7.112   8.553   6.411
71351SOL     OW15885   6.122  10.206   1.683
71351SOL    HW115886   6.047  10.250   1.642
71351SOL    HW215887   6.176  10.277   1.717
71352SOL     OW15888   8.667   6.901  10.300
71352SOL    HW115889   8.626   6.968  10.245
71352SOL    HW215890   8.649   6.929  10.390
71353SOL     OW15891   6.286   4.906   4.344
71353SOL    HW115892   6.272   4.954   4.426
71353SOL    HW215893   6.249   4.964   4.277
71354SOL     OW15894   9.030   4.708   9.480
71354SOL    HW115895   9.118   4.712   9.442
71354SOL    HW215896   8.974   4.748   9.413
71355SOL     OW15897   8.479   2.403  10.250
71355SOL    HW115898   8.572   2.422  10.241
71355SOL    HW215899   8.469   2.371  10.339
71356SOL     OW15900   4.340   7.751  14.120
71356SOL    HW115901   4.394   7.715  14.191
71356SOL    HW215902   4.288   7.819  14.161
71357SOL     OW15903   5.213   0.868  10.460
71357SOL    HW115904   5.182   0.907  10.379
71357SOL    HW215905   5.302   0.902  10.470
71358SOL     OW15906   3.415   6.938   1.641
71358SOL    HW115907   3.496   6.889   1.647
71358SOL    HW215908   3.433   7.007   1.577
71359SOL     OW15909   9.239   2.793  14.093
71359SOL    HW115910   9.168   2.751  14.141
71359SOL    HW215911   9.316   2.737  14.110
71360SOL     OW15912  12.782  14.738  10.399
71360SOL    HW115913  12.869  14.701  10.388
71360SOL    HW215914  12.761  14.775  10.313
71361SOL     OW15915   7.994   0.690   5.012
71361SOL    HW115916   8.032   0.703   4.925
71361SOL    HW215917   8.017   0.600   5.034
71362SOL     OW15918   6.546   3.438   3.568
71362SOL    HW115919   6.523   3.522   3.608
71362SOL    HW215920   6.462   3.399   3.545
71363SOL     OW15921   3.268  11.517  11.797
71363SOL    HW115922   3.358  11.490  11.780
71363SOL    HW215923   3.271  11.612  11.794
71364SOL     OW15924  14.333   3.847   9.758
71364SOL    HW115925  14.309   3.808   9.674
71364SOL    HW215926  14.258   3.901   9.782
71365SOL     OW15927   5.915  12.310  13.957
71365SOL    HW115928   5.982  12.245  13.979
71365SOL    HW215929   5.862  12.318  14.036
71366SOL     OW15930   3.005  13.276  14.301
71366SOL    HW115931   3.080  13.243  14.351
71366SOL    HW215932   3.000  13.369  14.325
71367SOL     OW15933   5.938  10.477   4.503
71367SOL    HW115934   5.868  10.411   4.498
71367SOL    HW215935   5.964  10.477   4.595
71368SOL     OW15936   9.027   3.511   5.968
71368SOL    HW115937   9.018   3.416   5.975
71368SOL    HW215938   8.938   3.544   5.976
71369SOL     OW15939   5.199   6.539   0.355
71369SOL    HW115940   5.258   6.463   0.353
71369SOL    HW215941   5.251   6.611   0.319
71370SOL     OW15942   7.032   1.508   3.090
71370SOL    HW115943   7.055   1.424   3.053
71370SOL    HW215944   7.106   1.531   3.147
71371SOL     OW15945   0.334  14.328  12.342
71371SOL    HW115946   0.373  14.311  12.256
71371SOL    HW215947   0.384  14.272  12.402
71372SOL     OW15948   9.891  12.301  10.673
71372SOL    HW115949   9.819  12.333  10.728
71372SOL    HW215950   9.850  12.280  10.589
71373SOL     OW15951  11.829  11.255   0.923
71373SOL    HW115952  11.734  11.241   0.924
71373SOL    HW215953  11.846  11.307   1.002
71374SOL     OW15954  13.914   9.443   6.345
71374SOL    HW115955  13.994   9.395   6.325
71374SOL    HW215956  13.940   9.507   6.410
71375SOL     OW15957   5.454   6.489   4.056
71375SOL    HW115958   5.366   6.452   4.065
71375SOL    HW215959   5.485   6.456   3.971
71376SOL     OW15960  11.341   0.583  14.248
71376SOL    HW115961  11.247   0.593  14.240
71376SOL    HW215962  11.372   0.666  14.286
71377SOL     OW15963   6.607   2.496  10.269
71377SOL    HW115964   6.630   2.407  10.243
71377SOL    HW215965   6.511   2.497  10.268
71378SOL     OW15966   9.364   5.562   5.866
71378SOL    HW115967   9.414   5.614   5.803
71378SOL    HW215968   9.400   5.587   5.952
71379SOL     OW15969   6.291  11.201   4.936
71379SOL    HW115970   6.321  11.118   4.898
71379SOL    HW215971   6.326  11.268   4.877
71380SOL     OW15972  14.019   8.502   3.736
71380SOL    HW115973  13.966   8.484   3.659
71380SOL    HW215974  14.031   8.417   3.778
71381SOL     OW15975   9.615   5.807   4.381
71381SOL    HW115976   9.697   5.805   4.331
71381SOL    HW215977   9.551   5.765   4.325
71382SOL     OW15978  13.600   2.020   3.031
71382SOL    HW115979  13.639   2.069   3.103
71382SOL    HW215980  13.635   1.931   3.041
71383SOL     OW15981   0.005   3.555   5.055
71383SOL    HW115982  14.814   3.513   5.004
71383SOL    HW215983   0.073   3.576   4.991
71384SOL     OW15984   3.236   0.555   7.831
71384SOL    HW115985   3.214   0.594   7.915
71384SOL    HW215986   3.316   0.505   7.847
71385SOL     OW15987  11.197   2.920   4.222
71385SOL    HW115988  11.191   2.884   4.134
71385SOL    HW215989  11.177   3.013   4.212
71386SOL     OW15990  13.652   9.670  11.387
71386SOL    HW115991  13.592   9.620  11.332
71386SOL    HW215992  13.713   9.710  11.325
71387SOL     OW15993  12.132  10.079  14.320
71387SOL    HW115994  12.073  10.139  14.366
71387SOL    HW215995  12.158  10.015  14.386
71388SOL     OW15996   0.708   9.315   1.032
71388SOL    HW115997   0.782   9.256   1.015
71388SOL    HW215998   0.724   9.349   1.119
71389SOL     OW15999  13.984   0.072   0.654
71389SOL    HW116000  14.014   0.113   0.735
71389SOL    HW216001  14.007  14.858   0.664
71390SOL     OW16002   3.863  14.749   0.269
71390SOL    HW116003   3.953  14.746   0.300
71390SOL    HW216004   3.860  14.684   0.198
71391SOL     OW16005  10.017   3.826   7.749
71391SOL    HW116006   9.954   3.808   7.819
71391SOL    HW216007  10.008   3.921   7.734
71392SOL     OW16008  12.055  13.050   5.895
71392SOL    HW116009  12.020  13.112   5.959
71392SOL    HW216010  12.130  13.010   5.940
71393SOL     OW16011  14.838   2.622   7.035
71393SOL    HW116012   0.043   2.590   7.003
71393SOL    HW216013  14.817   2.566   7.109
71394SOL     OW16014   1.064  12.578   9.702
71394SOL    HW116015   1.149  12.546   9.732
71394SOL    HW216016   1.074  12.587   9.607
71395SOL     OW16017  14.369   5.640   8.392
71395SOL    HW116018  14.303   5.571   8.389
71395SOL    HW216019  14.403   5.644   8.303
71396SOL     OW16020   9.171   0.775   5.341
71396SOL    HW116021   9.263   0.798   5.353
71396SOL    HW216022   9.132   0.853   5.301
71397SOL     OW16023   0.517   0.055   1.663
71397SOL    HW116024   0.454   0.116   1.701
71397SOL    HW216025   0.512   0.072   1.569
71398SOL     OW16026   7.262   4.344   7.520
71398SOL    HW116027   7.260   4.428   7.566
71398SOL    HW216028   7.231   4.281   7.585
71399SOL     OW16029   1.719  12.306  12.855
71399SOL    HW116030   1.684  12.395  12.849
71399SOL    HW216031   1.804  12.310  12.811
71400SOL     OW16032   0.275   6.817   0.101
71400SOL    HW116033   0.332   6.755   0.146
71400SOL    HW216034   0.330   6.857   0.034
71401SOL     OW16035   4.088   9.014  13.690
71401SOL    HW116036   4.121   9.102  13.707
71401SOL    HW216037   4.024   9.026  13.620
71402SOL     OW16038  12.814   3.460   1.624
71402SOL    HW116039  12.741   3.401   1.606
71402SOL    HW216040  12.780   3.547   1.606
71403SOL     OW16041  11.927   2.208   1.888
71403SOL    HW116042  11.931   2.223   1.794
71403SOL    HW216043  11.842   2.242   1.915
71404SOL     OW16044   4.820   5.103   4.801
71404SOL    HW116045   4.796   5.010   4.801
71404SOL    HW216046   4.793   5.134   4.715
71405SOL     OW16047  10.384   8.423   2.191
71405SOL    HW116048  10.387   8.328   2.184
71405SOL    HW216049  10.294   8.447   2.170
71406SOL     OW16050   7.338  12.261   2.627
71406SOL    HW116051   7.400  12.240   2.697
71406SOL    HW216052   7.252  12.246   2.665
71407SOL     OW16053   9.341  10.384  11.316
71407SOL    HW116054   9.270  10.395  11.380
71407SOL    HW216055   9.319  10.304  11.269
71408SOL     OW16056   9.687   9.319  13.122
71408SOL    HW116057   9.754   9.254  13.143
71408SOL    HW216058   9.716   9.358  13.040
71409SOL     OW16059  12.491  14.835   5.068
71409SOL    HW116060  12.458   0.040   5.099
71409SOL    HW216061  12.464  14.831   4.976
71410SOL     OW16062   0.284   3.426   0.856
71410SOL    HW116063   0.223   3.498   0.873
71410SOL    HW216064   0.240   3.349   0.892
71411SOL     OW16065   4.623   0.855   4.567
71411SOL    HW116066   4.577   0.869   4.650
71411SOL    HW216067   4.715   0.871   4.587
71412SOL     OW16068  13.725  10.302  12.971
71412SOL    HW116069  13.647  10.270  12.925
71412SOL    HW216070  13.712  10.397  12.976
71413SOL     OW16071   0.090   6.572   1.982
71413SOL    HW116072   0.062   6.659   2.008
71413SOL    HW216073   0.106   6.578   1.888
71414SOL     OW16074  14.654   2.763   7.172
71414SOL    HW116075  14.725   2.726   7.120
71414SOL    HW216076  14.696   2.831   7.225
71415SOL     OW16077   0.661  10.007  11.681
71415SOL    HW116078   0.702   9.922  11.668
71415SOL    HW216079   0.734  10.069  11.686
71416SOL     OW16080   5.061  10.706   7.318
71416SOL    HW116081   5.038  10.617   7.294
71416SOL    HW216082   5.068  10.704   7.414
71417SOL     OW16083   4.660   9.611   9.742
71417SOL    HW116084   4.580   9.570   9.708
71417SOL    HW216085   4.629   9.675   9.806
71418SOL     OW16086  12.137  14.755  13.688
71418SOL    HW116087  12.186  14.678  13.717
71418SOL    HW216088  12.177  14.779  13.604
71419SOL     OW16089   0.243   0.051   9.862
71419SOL    HW116090   0.150   0.075   9.863
71419SOL    HW216091   0.247  14.850   9.810
71420SOL     OW16092  14.877   5.589   3.571
71420SOL    HW116093   0.057   5.526   3.613
71420SOL    HW216094  14.804   5.536   3.538
71421SOL     OW16095   6.798  11.744   9.271
71421SOL    HW116096   6.783  11.800   9.348
71421SOL    HW216097   6.711  11.738   9.230
71422SOL     OW16098   7.574   6.823   3.959
71422SOL    HW116099   7.544   6.733   3.947
71422SOL    HW216100   7.539   6.849   4.044
71423SOL     OW16101   9.640   8.992   3.975
71423SOL    HW116102   9.564   8.990   4.033
71423SOL    HW216103   9.611   8.946   3.896
71424SOL     OW16104   0.151   9.513   6.773
71424SOL    HW116105   0.067   9.468   6.781
71424SOL    HW216106   0.135   9.584   6.712
71425SOL     OW16107  12.489  11.862  12.632
71425SOL    HW116108  12.447  11.902  12.708
71425SOL    HW216109  12.502  11.771  12.658
71426SOL     OW16110  13.424   3.284   1.393
71426SOL    HW116111  13.487   3.277   1.464
71426SOL    HW216112  13.382   3.198   1.389
71427SOL     OW16113  10.104  14.316   6.958
71427SOL    HW116114  10.060  14.256   6.898
71427SOL    HW216115  10.038  14.340   7.023
71428SOL     OW16116   5.766   2.038  13.750
71428SOL    HW116117   5.802   2.091  13.821
71428SOL    HW216118   5.840   1.983  13.722
71429SOL     OW16119   6.623   2.934  13.470
71429SOL    HW116120   6.597   2.888  13.391
71429SOL    HW216121   6.672   3.010  13.439
71430SOL     OW16122  11.487  12.878   2.949
71430SOL    HW116123  11.577  12.890   2.979
71430SOL    HW216124  11.495  12.829   2.867
71431SOL     OW16125  11.487   9.259   9.804
71431SOL    HW116126  11.561   9.317   9.789
71431SOL    HW216127  11.464   9.274   9.896
71432SOL     OW16128   0.903  13.585   4.108
71432SOL    HW116129   0.967  13.613   4.043
71432SOL    HW216130   0.819  13.591   4.063
71433SOL     OW16131  10.655  12.410   2.946
71433SOL    HW116132  10.679  12.351   3.017
71433SOL    HW216133  10.621  12.352   2.877
71434SOL     OW16134  12.425   2.173   6.177
71434SOL    HW116135  12.366   2.123   6.234
71434SOL    HW216136  12.500   2.194   6.233
71435SOL     OW16137   5.215   7.630   5.278
71435SOL    HW116138   5.209   7.671   5.192
71435SOL    HW216139   5.230   7.537   5.260
71436SOL     OW16140   0.155   3.352   8.085
71436SOL    HW116141   0.076   3.334   8.034
71436SOL    HW216142   0.131   3.427   8.140
71437SOL     OW16143   8.406   6.346   2.131
71437SOL    HW116144   8.431   6.416   2.190
71437SOL    HW216145   8.409   6.266   2.184
71438SOL     OW16146   8.956   9.268   9.033
71438SOL    HW116147   8.992   9.221   8.958
71438SOL    HW216148   8.920   9.349   8.995
71439SOL     OW16149  14.778  13.758   5.527
71439SOL    HW116150  14.804  13.667   5.541
71439SOL    HW216151  14.860  13.808   5.530
71440SOL     OW16152   1.626   4.830  11.080
71440SOL    HW116153   1.621   4.862  10.991
71440SOL    HW216154   1.669   4.900  11.129
71441SOL     OW16155  12.658   4.628   3.630
71441SOL    HW116156  12.751   4.608   3.621
71441SOL    HW216157  12.613   4.544   3.618
71442SOL     OW16158  13.675   4.430   0.930
71442SOL    HW116159  13.621   4.437   1.009
71442SOL    HW216160  13.639   4.494   0.870
71443SOL     OW16161   7.698   0.245   5.178
71443SOL    HW116162   7.762   0.174   5.189
71443SOL    HW216163   7.744   0.323   5.208
71444SOL     OW16164  12.411   7.375   3.085
71444SOL    HW116165  12.381   7.311   3.149
71444SOL    HW216166  12.337   7.434   3.074
71445SOL     OW16167   7.802  13.774   9.622
71445SOL    HW116168   7.885  13.752   9.580
71445SOL    HW216169   7.736  13.730   9.570
71446SOL     OW16170  14.064   6.882   1.748
71446SOL    HW116171  14.147   6.834   1.742
71446SOL    HW216172  14.021   6.846   1.826
71447SOL     OW16173   9.008  11.338   9.735
71447SOL    HW116174   9.007  11.248   9.701
71447SOL    HW216175   9.095  11.371   9.712
71448SOL     OW16176   7.688   8.676   8.059
71448SOL    HW116177   7.700   8.601   8.002
71448SOL    HW216178   7.702   8.643   8.147
71449SOL     OW16179  12.006   8.363   0.951
71449SOL    HW116180  12.031   8.294   1.012
71449SOL    HW216181  12.045   8.337   0.867
71450SOL     OW16182  10.017  13.336   2.146
71450SOL    HW116183  10.080  13.388   2.096
71450SOL    HW216184  10.044  13.347   2.237
71451SOL     OW16185  12.068   8.553  11.841
71451SOL    HW116186  11.975   8.535  11.850
71451SOL    HW216187  12.108   8.509  11.916
71452SOL     OW16188  13.986  11.886   0.143
71452SOL    HW116189  13.899  11.879   0.104
71452SOL    HW216190  14.035  11.942   0.083
71453SOL     OW16191   4.373   1.278   4.250
71453SOL    HW116192   4.337   1.314   4.169
71453SOL    HW216193   4.327   1.195   4.262
71454SOL     OW16194   7.335   7.734   1.895
71454SOL    HW116195   7.294   7.680   1.963
71454SOL    HW216196   7.385   7.671   1.843
71455SOL     OW16197  11.066   2.460   0.768
71455SOL    HW116198  10.972   2.474   0.780
71455SOL    HW216199  11.086   2.381   0.818
71456SOL     OW16200  11.576   9.334   8.426
71456SOL    HW116201  11.607   9.254   8.466
71456SOL    HW216202  11.650   9.366   8.374
71457SOL     OW16203  14.564  10.430  10.254
71457SOL    HW116204  14.624  10.356  10.243
71457SOL    HW216205  14.532  10.448  10.166
71458SOL     OW16206  11.658   9.561   8.617
71458SOL    HW116207  11.739   9.602   8.587
71458SOL    HW216208  11.642   9.490   8.555
71459SOL     OW16209   3.230   7.159   5.731
71459SOL    HW116210   3.304   7.158   5.670
71459SOL    HW216211   3.268   7.189   5.814
71460SOL     OW16212   4.881   0.398   2.484
71460SOL    HW116213   4.871   0.331   2.416
71460SOL    HW216214   4.796   0.441   2.489
71461SOL     OW16215   3.227   0.204  12.493
71461SOL    HW116216   3.152   0.152  12.465
71461SOL    HW216217   3.292   0.140  12.523
71462SOL     OW16218   8.482  13.708   8.537
71462SOL    HW116219   8.554  13.765   8.565
71462SOL    HW216220   8.500  13.690   8.445
71463SOL     OW16221   8.465  13.582  11.978
71463SOL    HW116222   8.495  13.652  11.920
71463SOL    HW216223   8.474  13.502  11.925
71464SOL     OW16224   0.759   8.992   3.522
71464SOL    HW116225   0.716   8.910   3.546
71464SOL    HW216226   0.734   9.006   3.431
71465SOL     OW16227   7.366  13.159   1.428
71465SOL    HW116228   7.406  13.079   1.463
71465SOL    HW216229   7.277  13.157   1.463
71466SOL     OW16230   2.227  11.053  10.524
71466SOL    HW116231   2.233  11.107  10.446
71466SOL    HW216232   2.255  11.110  10.595
71467SOL     OW16233   6.355   2.529   5.736
71467SOL    HW116234   6.381   2.612   5.696
71467SOL    HW216235   6.433   2.499   5.782
71468SOL     OW16236   3.381   1.238   1.058
71468SOL    HW116237   3.377   1.332   1.041
71468SOL    HW216238   3.291   1.208   1.046
71469SOL     OW16239   0.752   0.903   4.109
71469SOL    HW116240   0.693   0.828   4.115
71469SOL    HW216241   0.694   0.977   4.089
71470SOL     OW16242   2.018  14.229   9.094
71470SOL    HW116243   2.102  14.192   9.066
71470SOL    HW216244   1.968  14.155   9.127
71471SOL     OW16245  13.603   5.444  14.771
71471SOL    HW116246  13.528   5.495  14.802
71471SOL    HW216247  13.638   5.496  14.699
71472SOL     OW16248  12.007   7.050  12.129
71472SOL    HW116249  12.000   6.966  12.084
71472SOL    HW216250  11.961   7.112  12.072
71473SOL     OW16251   1.591   7.887   9.967
71473SOL    HW116252   1.673   7.917   9.929
71473SOL    HW216253   1.569   7.954  10.032
71474SOL     OW16254   7.652  14.287   9.492
71474SOL    HW116255   7.683  14.197   9.490
71474SOL    HW216256   7.651  14.310   9.586
71475SOL     OW16257   4.570   6.132  11.402
71475SOL    HW116258   4.530   6.058  11.448
71475SOL    HW216259   4.563   6.205  11.464
71476SOL     OW16260   3.449  11.273  14.066
71476SOL    HW116261   3.535  11.246  14.095
71476SOL    HW216262   3.433  11.222  13.986
71477SOL     OW16263   5.208   0.907  12.556
71477SOL    HW116264   5.144   0.861  12.609
71477SOL    HW216265   5.179   0.894  12.466
71478SOL     OW16266  12.744   9.268  12.704
71478SOL    HW116267  12.773   9.340  12.648
71478SOL    HW216268  12.802   9.196  12.682
71479SOL     OW16269   6.584   9.628   1.684
71479SOL    HW116270   6.598   9.663   1.596
71479SOL    HW216271   6.500   9.666   1.711
71480SOL     OW16272   5.399  10.604   9.562
71480SOL    HW116273   5.333  10.632   9.626
71480SOL    HW216274   5.408  10.678   9.502
71481SOL     OW16275   3.168  13.625   9.911
71481SOL    HW116276   3.254  13.630   9.953
71481SOL    HW216277   3.165  13.537   9.873
71482SOL     OW16278  11.022   7.604   2.163
71482SOL    HW116279  11.113   7.586   2.184
71482SOL    HW216280  10.997   7.535   2.101
71483SOL     OW16281  14.380   5.584  10.500
71483SOL    HW116282  14.371   5.636  10.420
71483SOL    HW216283  14.291   5.560  10.524
71484SOL     OW16284   0.065   9.611   8.735
71484SOL    HW116285   0.014   9.675   8.784
71484SOL    HW216286   0.019   9.528   8.747
71485SOL     OW16287  10.645   9.846   7.113
71485SOL    HW116288  10.731   9.805   7.119
71485SOL    HW216289  10.662   9.932   7.074
71486SOL     OW16290  12.990   9.334  13.899
71486SOL    HW116291  13.035   9.281  13.965
71486SOL    HW216292  13.060   9.374  13.848
71487SOL     OW16293  10.973   1.261   4.231
71487SOL    HW116294  11.050   1.318   4.232
71487SOL    HW216295  10.934   1.273   4.317
71488SOL     OW16296   5.452   8.244   1.679
71488SOL    HW116297   5.432   8.260   1.587
71488SOL    HW216298   5.415   8.158   1.698
71489SOL     OW16299   6.561   8.560   4.489
71489SOL    HW116300   6.627   8.621   4.456
71489SOL    HW216301   6.531   8.599   4.571
71490SOL     OW16302   4.131  11.975  14.130
71490SOL    HW116303   4.141  12.002  14.039
71490SOL    HW216304   4.073  12.041  14.169
71491SOL     OW16305   8.291  14.834  11.741
71491SOL    HW116306   8.218  14.775  11.721
71491SOL    HW216307   8.287   0.022  11.673
71492SOL     OW16308   4.165   7.952   3.737
71492SOL    HW116309   4.133   7.965   3.826
71492SOL    HW216310   4.224   8.025   3.722
71493SOL     OW16311  12.030   8.367   9.573
71493SOL    HW116312  12.100   8.305   9.595
71493SOL    HW216313  11.950   8.323   9.600
71494SOL     OW16314  13.327   1.269   6.833
71494SOL    HW116315  13.373   1.198   6.788
71494SOL    HW216316  13.302   1.330   6.763
71495SOL     OW16317  10.125   4.494  13.500
71495SOL    HW116318  10.106   4.588  13.502
71495SOL    HW216319  10.106   4.464  13.589
71496SOL     OW16320   2.855  11.812   5.599
71496SOL    HW116321   2.949  11.806   5.617
71496SOL    HW216322   2.847  11.883   5.535
71497SOL     OW16323   2.705   1.540   0.728
71497SOL    HW116324   2.628   1.553   0.673
71497SOL    HW216325   2.671   1.495   0.806
71498SOL     OW16326   5.396   0.157   8.253
71498SOL    HW116327   5.425   0.094   8.319
71498SOL    HW216328   5.362   0.231   8.303
71499SOL     OW16329   4.932   7.128   2.851
71499SOL    HW116330   4.982   7.051   2.825
71499SOL    HW216331   4.988   7.174   2.914
71500SOL     OW16332  14.269   2.230   8.610
71500SOL    HW116333  14.276   2.325   8.604
71500SOL    HW216334  14.182   2.210   8.574
71501SOL     OW16335  11.466  12.789  12.577
71501SOL    HW116336  11.406  12.851  12.618
71501SOL    HW216337  11.535  12.776  12.642
71502SOL     OW16338   1.048   1.930  10.899
71502SOL    HW116339   1.019   1.856  10.952
71502SOL    HW216340   1.120   1.969  10.949
71503SOL     OW16341   8.576  12.939   3.293
71503SOL    HW116342   8.527  12.905   3.368
71503SOL    HW216343   8.645  12.993   3.332
71504SOL     OW16344  12.177  11.115  12.158
71504SOL    HW116345  12.119  11.049  12.119
71504SOL    HW216346  12.240  11.064  12.208
71505SOL     OW16347   2.920   4.237   3.547
71505SOL    HW116348   2.957   4.248   3.635
71505SOL    HW216349   2.928   4.143   3.530
71506SOL     OW16350   0.427  13.580   8.518
71506SOL    HW116351   0.464  13.566   8.431
71506SOL    HW216352   0.482  13.529   8.576
71507SOL     OW16353   0.238   7.190  14.608
71507SOL    HW116354   0.305   7.157  14.548
71507SOL    HW216355   0.287   7.232  14.679
71508SOL     OW16356   1.795   9.768  12.898
71508SOL    HW116357   1.890   9.754  12.889
71508SOL    HW216358   1.764   9.687  12.940
71509SOL     OW16359   6.220   8.185  11.277
71509SOL    HW116360   6.152   8.239  11.317
71509SOL    HW216361   6.281   8.247  11.237
71510SOL     OW16362   6.330   3.478   9.094
71510SOL    HW116363   6.396   3.431   9.146
71510SOL    HW216364   6.303   3.415   9.028
71511SOL     OW16365   2.381   6.797   3.661
71511SOL    HW116366   2.333   6.869   3.619
71511SOL    HW216367   2.413   6.834   3.743
71512SOL     OW16368   2.169   5.469   5.128
71512SOL    HW116369   2.264   5.477   5.126
71512SOL    HW216370   2.145   5.492   5.218
71513SOL     OW16371   5.620  12.095   2.505
71513SOL    HW116372   5.670  12.038   2.446
71513SOL    HW216373   5.615  12.179   2.458
71514SOL     OW16374   0.718   3.356   3.325
71514SOL    HW116375   0.716   3.381   3.233
71514SOL    HW216376   0.635   3.311   3.340
71515SOL     OW16377  14.819   1.180   0.673
71515SOL    HW116378  14.752   1.132   0.721
71515SOL    HW216379  14.821   1.267   0.714
71516SOL     OW16380  11.773   3.792   8.854
71516SOL    HW116381  11.748   3.881   8.829
71516SOL    HW216382  11.868   3.790   8.841
71517SOL     OW16383   0.540   8.081   9.022
71517SOL    HW116384   0.486   8.149   8.981
71517SOL    HW216385   0.558   8.019   8.951
71518SOL     OW16386  10.524   8.317  14.294
71518SOL    HW116387  10.540   8.408  14.319
71518SOL    HW216388  10.483   8.322  14.208
71519SOL     OW16389  11.621   3.351  13.891
71519SOL    HW116390  11.604   3.436  13.850
71519SOL    HW216391  11.535   3.321  13.921
71520SOL     OW16392  13.704   3.738  14.465
71520SOL    HW116393  13.767   3.724  14.535
71520SOL    HW216394  13.623   3.700  14.497
71521SOL     OW16395   7.385   9.420  12.126
71521SOL    HW116396   7.306   9.470  12.146
71521SOL    HW216397   7.353   9.334  12.101
71522SOL     OW16398   6.535   8.761   7.337
71522SOL    HW116399   6.514   8.725   7.423
71522SOL    HW216400   6.482   8.840   7.331
71523SOL     OW16401   2.572   8.158   6.830
71523SOL    HW116402   2.660   8.125   6.810
71523SOL    HW216403   2.571   8.166   6.925
71524SOL     OW16404   2.165   6.393   8.486
71524SOL    HW116405   2.114   6.453   8.541
71524SOL    HW216406   2.251   6.434   8.479
71525SOL     OW16407   9.714   2.527  13.439
71525SOL    HW116408   9.626   2.565  13.444
71525SOL    HW216409   9.767   2.597  13.402
71526SOL     OW16410  13.052   0.642   5.257
71526SOL    HW116411  12.984   0.617   5.195
71526SOL    HW216412  13.119   0.684   5.204
71527SOL     OW16413   9.994   7.333   3.730
71527SOL    HW116414   9.989   7.361   3.822
71527SOL    HW216415  10.063   7.388   3.693
71528SOL     OW16416   9.490   9.999   3.049
71528SOL    HW116417   9.585   9.990   3.047
71528SOL    HW216418   9.465  10.006   2.956
71529SOL     OW16419   1.037   4.100   2.103
71529SOL    HW116420   1.009   4.009   2.091
71529SOL    HW216421   0.985   4.130   2.178
71530SOL     OW16422  10.233   0.462  12.677
71530SOL    HW116423  10.317   0.507  12.665
71530SOL    HW216424  10.237   0.388  12.618
71531SOL     OW16425  13.469   7.602  12.236
71531SOL    HW116426  13.536   7.583  12.170
71531SOL    HW216427  13.472   7.697  12.246
71532SOL     OW16428   6.671   9.599   5.638
71532SOL    HW116429   6.643   9.657   5.568
71532SOL    HW216430   6.755   9.635   5.668
71533SOL     OW16431   6.752  14.513   7.985
71533SOL    HW116432   6.782  14.600   7.957
71533SOL    HW216433   6.706  14.529   8.067
71534SOL     OW16434  13.726   2.770   6.683
71534SOL    HW116435  13.648   2.723   6.712
71534SOL    HW216436  13.708   2.862   6.706
71535SOL     OW16437   3.656   0.117   3.154
71535SOL    HW116438   3.625   0.027   3.152
71535SOL    HW216439   3.577   0.170   3.143
71536SOL     OW16440  14.101  10.767   4.659
71536SOL    HW116441  14.054  10.744   4.580
71536SOL    HW216442  14.044  10.830   4.704
71537SOL     OW16443  12.259   7.809  13.786
71537SOL    HW116444  12.324   7.869  13.822
71537SOL    HW216445  12.274   7.727  13.834
71538SOL     OW16446  14.673   5.254  13.903
71538SOL    HW116447  14.583   5.237  13.928
71538SOL    HW216448  14.723   5.251  13.985
71539SOL     OW16449  14.714   7.552  11.277
71539SOL    HW116450  14.722   7.457  11.268
71539SOL    HW216451  14.754   7.587  11.198
71540SOL     OW16452   8.188  13.581  11.990
71540SOL    HW116453   8.144  13.573  12.075
71540SOL    HW216454   8.281  13.588  12.011
71541SOL     OW16455   1.573   5.591  10.818
71541SOL    HW116456   1.645   5.628  10.767
71541SOL    HW216457   1.597   5.499  10.829
71542SOL     OW16458   4.859   0.406   3.847
71542SOL    HW116459   4.914   0.478   3.815
71542SOL    HW216460   4.880   0.400   3.940
71543SOL     OW16461   0.673   8.733   3.622
71543SOL    HW116462   0.668   8.656   3.679
71543SOL    HW216463   0.698   8.805   3.679
71544SOL     OW16464   8.784   6.436  11.672
71544SOL    HW116465   8.746   6.361  11.626
71544SOL    HW216466   8.842   6.477  11.608
71545SOL     OW16467  10.747   2.920   8.357
71545SOL    HW116468  10.776   3.002   8.398
71545SOL    HW216469  10.696   2.948   8.281
71546SOL     OW16470   8.647   1.614   3.823
71546SOL    HW116471   8.568   1.604   3.875
71546SOL    HW216472   8.695   1.532   3.837
71547SOL     OW16473   3.952  12.347  11.544
71547SOL    HW116474   3.904  12.422  11.508
71547SOL    HW216475   3.901  12.271  11.520
71548SOL     OW16476  13.495   2.069   0.069
71548SOL    HW116477  13.539   1.989   0.097
71548SOL    HW216478  13.557   2.139   0.092
71549SOL     OW16479   3.859   8.713   0.429
71549SOL    HW116480   3.830   8.623   0.416
71549SOL    HW216481   3.927   8.727   0.362
71550SOL     OW16482   1.602   8.068   7.594
71550SOL    HW116483   1.614   8.002   7.662
71550SOL    HW216484   1.685   8.116   7.591
71551SOL     OW16485   5.748   5.124   2.240
71551SOL    HW116486   5.759   5.029   2.226
71551SOL    HW216487   5.837   5.157   2.246
71552SOL     OW16488   4.894   8.772  12.287
71552SOL    HW116489   4.845   8.854  12.292
71552SOL    HW216490   4.892   8.738  12.377
71553SOL     OW16491   7.116  14.029  11.648
71553SOL    HW116492   7.197  13.979  11.655
71553SOL    HW216493   7.145  14.117  11.622
71554SOL     OW16494  11.460  13.426   4.542
71554SOL    HW116495  11.424  13.512   4.561
71554SOL    HW216496  11.437  13.410   4.450
71555SOL     OW16497   6.583   6.350  12.130
71555SOL    HW116498   6.555   6.438  12.156
71555SOL    HW216499   6.679   6.356  12.125
71556SOL     OW16500   5.962   4.625   2.366
71556SOL    HW116501   6.032   4.641   2.303
71556SOL    HW216502   5.981   4.684   2.439
71557SOL     OW16503  10.924  14.852   8.141
71557SOL    HW116504  10.925   0.066   8.120
71557SOL    HW216505  10.978  14.811   8.072
71558SOL     OW16506  13.240  10.120  14.291
71558SOL    HW116507  13.207  10.169  14.215
71558SOL    HW216508  13.230  10.028  14.266
71559SOL     OW16509   3.830   8.413  10.612
71559SOL    HW116510   3.869   8.479  10.669
71559SOL    HW216511   3.770   8.365  10.669
71560SOL     OW16512  11.884   4.909   9.241
71560SOL    HW116513  11.876   4.999   9.271
71560SOL    HW216514  11.866   4.856   9.318
71561SOL     OW16515  11.321   0.270   5.429
71561SOL    HW116516  11.306   0.335   5.498
71561SOL    HW216517  11.271   0.303   5.354
71562SOL     OW16518   0.955   0.181  12.855
71562SOL    HW116519   1.004   0.259  12.881
71562SOL    HW216520   0.880   0.178  12.915
71563SOL     OW16521   8.611   8.775   7.532
71563SOL    HW116522   8.674   8.721   7.485
71563SOL    HW216523   8.549   8.804   7.465
71564SOL     OW16524  11.944   6.650   0.462
71564SOL    HW116525  11.851   6.645   0.438
71564SOL    HW216526  11.948   6.721   0.526
71565SOL     OW16527   5.740   1.051   5.170
71565SOL    HW116528   5.728   1.098   5.087
71565SOL    HW216529   5.741   0.959   5.145
71566SOL     OW16530   2.232   2.732   2.824
71566SOL    HW116531   2.292   2.801   2.796
71566SOL    HW216532   2.172   2.721   2.750
71567SOL     OW16533   8.006  11.913   1.424
71567SOL    HW116534   7.931  11.890   1.480
71567SOL    HW216535   8.065  11.961   1.482
71568SOL     OW16536   2.036  12.631  11.894
71568SOL    HW116537   2.125  12.635  11.930
71568SOL    HW216538   1.979  12.635  11.971
71569SOL     OW16539   9.000  12.797  11.912
71569SOL    HW116540   9.010  12.718  11.964
71569SOL    HW216541   9.042  12.866  11.964
71570SOL     OW16542   1.988  12.189   6.721
71570SOL    HW116543   2.040  12.188   6.641
71570SOL    HW216544   1.902  12.155   6.693
71571SOL     OW16545   1.680  11.432   0.282
71571SOL    HW116546   1.768  11.420   0.246
71571SOL    HW216547   1.628  11.363   0.241
71572SOL     OW16548  14.367   3.508   3.639
71572SOL    HW116549  14.365   3.470   3.551
71572SOL    HW216550  14.313   3.587   3.632
71573SOL     OW16551   2.002  10.094  11.705
71573SOL    HW116552   1.985  10.094  11.610
71573SOL    HW216553   2.004  10.001  11.729
71574SOL     OW16554  10.337  11.066   1.802
71574SOL    HW116555  10.381  11.036   1.882
71574SOL    HW216556  10.407  11.076   1.738
71575SOL     OW16557   2.194  11.336   2.466
71575SOL    HW116558   2.140  11.408   2.498
71575SOL    HW216559   2.151  11.257   2.500
71576SOL     OW16560   8.289   8.140  11.002
71576SOL    HW116561   8.323   8.071  11.059
71576SOL    HW216562   8.198   8.151  11.029
71577SOL     OW16563   9.077  10.983  12.557
71577SOL    HW116564   9.043  11.072  12.552
71577SOL    HW216565   9.047  10.942  12.476
71578SOL     OW16566   0.036   2.999   9.356
71578SOL    HW116567   0.037   3.014   9.262
71578SOL    HW216568  14.823   3.010   9.381
71579SOL     OW16569   3.246  10.823  12.105
71579SOL    HW116570   3.194  10.801  12.028
71579SOL    HW216571   3.185  10.817  12.178
71580SOL     OW16572   1.881   1.190  12.183
71580SOL    HW116573   1.838   1.246  12.247
71580SOL    HW216574   1.837   1.209  12.100
71581SOL     OW16575   8.181   5.758   4.066
71581SOL    HW116576   8.228   5.677   4.084
71581SOL    HW216577   8.119   5.766   4.138
71582SOL     OW16578   7.771  12.147   5.705
71582SOL    HW116579   7.832  12.110   5.640
71582SOL    HW216580   7.760  12.238   5.678
71583SOL     OW16581   7.194   1.278  12.050
71583SOL    HW116582   7.263   1.301  11.988
71583SOL    HW216583   7.215   1.328  12.129
71584SOL     OW16584   3.757   4.422  12.479
71584SOL    HW116585   3.739   4.496  12.421
71584SOL    HW216586   3.852   4.421  12.488
71585SOL     OW16587   3.384   9.238   1.665
71585SOL    HW116588   3.388   9.320   1.616
71585SOL    HW216589   3.315   9.253   1.730
71586SOL     OW16590   0.321   6.615  14.282
71586SOL    HW116591   0.332   6.533  14.235
71586SOL    HW216592   0.228   6.636  14.273
71587SOL     OW16593  10.292   4.838  14.869
71587SOL    HW116594  10.272   4.882  14.787
71587SOL    HW216595  10.384   4.810  14.860
71588SOL     OW16596   1.021   2.919  12.698
71588SOL    HW116597   1.045   2.939  12.789
71588SOL    HW216598   1.105   2.904  12.655
71589SOL     OW16599  10.757  12.020   9.378
71589SOL    HW116600  10.814  12.096   9.369
71589SOL    HW216601  10.797  11.968   9.448
71590SOL     OW16602   9.544   4.048   6.251
71590SOL    HW116603   9.544   4.030   6.345
71590SOL    HW216604   9.478   3.989   6.215
71591SOL     OW16605   9.298   8.205   4.222
71591SOL    HW116606   9.286   8.299   4.208
71591SOL    HW216607   9.362   8.179   4.156
71592SOL     OW16608   8.140   4.809   3.598
71592SOL    HW116609   8.152   4.729   3.548
71592SOL    HW216610   8.052   4.803   3.633
71593SOL     OW16611   3.274   7.436   8.462
71593SOL    HW116612   3.256   7.465   8.373
71593SOL    HW216613   3.268   7.340   8.458
71594SOL     OW16614   8.294   7.769  11.697
71594SOL    HW116615   8.383   7.779  11.731
71594SOL    HW216616   8.302   7.702  11.629
71595SOL     OW16617   5.592   9.184   1.841
71595SOL    HW116618   5.655   9.252   1.865
71595SOL    HW216619   5.639   9.102   1.855
71596SOL     OW16620  13.284   3.394  14.871
71596SOL    HW116621  13.379   3.395   0.000
71596SOL    HW216622  13.265   3.458  14.802
71597SOL     OW16623   8.454   9.373   6.784
71597SOL    HW116624   8.464   9.302   6.720
71597SOL    HW216625   8.382   9.343   6.840
71598SOL     OW16626   6.611   6.870   4.047
71598SOL    HW116627   6.685   6.873   3.986
71598SOL    HW216628   6.587   6.777   4.050
71599SOL     OW16629   9.177   5.897  10.441
71599SOL    HW116630   9.184   5.841  10.364
71599SOL    HW216631   9.254   5.953  10.437
71600SOL     OW16632   3.306   9.070  13.474
71600SOL    HW116633   3.346   9.150  13.507
71600SOL    HW216634   3.283   9.090  13.383
71601SOL     OW16635   3.708  11.576   8.488
71601SOL    HW116636   3.643  11.601   8.422
71601SOL    HW216637   3.762  11.654   8.499
71602SOL     OW16638  14.043   2.040  11.814
71602SOL    HW116639  13.999   1.959  11.839
71602SOL    HW216640  14.002   2.107  11.869
71603SOL     OW16641  12.323   2.851   4.773
71603SOL    HW116642  12.233   2.829   4.798
71603SOL    HW216643  12.317   2.938   4.733
71604SOL     OW16644  11.170   9.727  13.627
71604SOL    HW116645  11.188   9.808  13.675
71604SOL    HW216646  11.075   9.727  13.615
71605SOL     OW16647   2.879   2.404  12.478
71605SOL    HW116648   2.965   2.364  12.490
71605SOL    HW216649   2.892   2.465  12.405
71606SOL     OW16650  13.789  10.271   9.521
71606SOL    HW116651  13.803  10.346   9.464
71606SOL    HW216652  13.805  10.304   9.609
71607SOL     OW16653  11.002   5.516  10.019
71607SOL    HW116654  11.077   5.549  10.068
71607SOL    HW216655  11.040   5.460   9.951
71608SOL     OW16656   5.132   2.810   4.841
71608SOL    HW116657   5.132   2.794   4.935
71608SOL    HW216658   5.040   2.816   4.817
71609SOL     OW16659  13.686  10.835   5.564
71609SOL    HW116660  13.597  10.868   5.553
71609SOL    HW216661  13.675  10.740   5.577
71610SOL     OW16662   0.445   6.159   7.540
71610SOL    HW116663   0.513   6.097   7.514
71610SOL    HW216664   0.431   6.141   7.633
71611SOL     OW16665  13.223  11.133   5.410
71611SOL    HW116666  13.176  11.193   5.467
71611SOL    HW216667  13.163  11.115   5.338
71612SOL     OW16668   6.086   8.548   8.491
71612SOL    HW116669   6.036   8.512   8.417
71612SOL    HW216670   6.068   8.642   8.487
71613SOL     OW16671   6.056   2.654   0.466
71613SOL    HW116672   6.141   2.610   0.459
71613SOL    HW216673   5.992   2.583   0.469
71614SOL     OW16674   1.647  12.357   6.879
71614SOL    HW116675   1.683  12.446   6.877
71614SOL    HW216676   1.642  12.331   6.787
71615SOL     OW16677  14.193   3.579  11.112
71615SOL    HW116678  14.204   3.674  11.116
71615SOL    HW216679  14.101   3.564  11.131
71616SOL     OW16680  13.653  14.864  13.500
71616SOL    HW116681  13.649  14.787  13.442
71616SOL    HW216682  13.562  14.879  13.526
71617SOL     OW16683   5.694   1.987   7.008
71617SOL    HW116684   5.658   2.044   6.940
71617SOL    HW216685   5.782   2.022   7.024
71618SOL     OW16686   9.884   5.166   9.447
71618SOL    HW116687   9.962   5.200   9.403
71618SOL    HW216688   9.861   5.234   9.510
71619SOL     OW16689   2.815  10.397  11.559
71619SOL    HW116690   2.909  10.388  11.543
71619SOL    HW216691   2.789  10.313  11.598
71620SOL     OW16692   5.783   2.532   4.757
71620SOL    HW116693   5.811   2.616   4.793
71620SOL    HW216694   5.687   2.532   4.767
71621SOL     OW16695   9.415  14.094   9.595
71621SOL    HW116696   9.442  14.177   9.555
71621SOL    HW216697   9.345  14.119   9.655
71622SOL     OW16698   0.647   3.301   1.927
71622SOL    HW116699   0.571   3.264   1.971
71622SOL    HW216700   0.722   3.259   1.969
71623SOL     OW16701   7.774   6.533  10.266
71623SOL    HW116702   7.801   6.624  10.256
71623SOL    HW216703   7.856   6.485  10.279
71624SOL     OW16704   4.094   1.431   4.500
71624SOL    HW116705   4.074   1.392   4.585
71624SOL    HW216706   4.047   1.376   4.437
71625SOL     OW16707   4.878   7.565   4.971
71625SOL    HW116708   4.883   7.518   5.055
71625SOL    HW216709   4.794   7.611   4.975
71626SOL     OW16710  13.412   1.464   3.800
71626SOL    HW116711  13.327   1.457   3.845
71626SOL    HW216712  13.414   1.554   3.768
71627SOL     OW16713  10.623   3.305   6.930
71627SOL    HW116714  10.680   3.275   6.859
71627SOL    HW216715  10.581   3.225   6.962
71628SOL     OW16716   1.705   5.162  14.261
71628SOL    HW116717   1.651   5.238  14.280
71628SOL    HW216718   1.690   5.145  14.168
71629SOL     OW16719   9.934  12.700   4.471
71629SOL    HW116720   9.882  12.780   4.478
71629SOL    HW216721   9.936  12.664   4.560
71630SOL     OW16722   2.581  12.296   0.899
71630SOL    HW116723   2.585  12.373   0.957
71630SOL    HW216724   2.661  12.301   0.847
71631SOL     OW16725   4.785  11.779   6.707
71631SOL    HW116726   4.725  11.774   6.634
71631SOL    HW216727   4.731  11.808   6.781
71632SOL     OW16728  11.798  14.702  14.142
71632SOL    HW116729  11.705  14.691  14.165
71632SOL    HW216730  11.806  14.660  14.056
71633SOL     OW16731  12.822   8.643   7.297
71633SOL    HW116732  12.896   8.679   7.248
71633SOL    HW216733  12.834   8.549   7.293
71634SOL     OW16734   1.693   9.859   8.675
71634SOL    HW116735   1.636   9.910   8.731
71634SOL    HW216736   1.639   9.836   8.599
71635SOL     OW16737   3.535   9.794   5.223
71635SOL    HW116738   3.451   9.800   5.269
71635SOL    HW216739   3.598   9.835   5.283
71636SOL     OW16740  10.572  10.436   1.991
71636SOL    HW116741  10.650  10.427   2.045
71636SOL    HW216742  10.500  10.444   2.054
71637SOL     OW16743   1.789   4.433   7.569
71637SOL    HW116744   1.754   4.499   7.509
71637SOL    HW216745   1.791   4.352   7.518
71638SOL     OW16746   1.948   8.333  10.233
71638SOL    HW116747   2.023   8.276  10.214
71638SOL    HW216748   1.943   8.393  10.160
71639SOL     OW16749   8.170   5.460   5.083
71639SOL    HW116750   8.081   5.430   5.100
71639SOL    HW216751   8.159   5.543   5.037
71640SOL     OW16752  12.822   5.878   6.134
71640SOL    HW116753  12.863   5.928   6.204
71640SOL    HW216754  12.728   5.895   6.143
71641SOL     OW16755   6.074   1.335   3.305
71641SOL    HW116756   6.116   1.333   3.219
71641SOL    HW216757   5.982   1.355   3.286
71642SOL     OW16758   0.026  11.759   6.977
71642SOL    HW116759   0.061  11.748   7.066
71642SOL    HW216760   0.090  11.717   6.920
71643SOL     OW16761   4.101   2.635   2.935
71643SOL    HW116762   4.100   2.594   3.021
71643SOL    HW216763   4.111   2.728   2.952
71644SOL     OW16764   5.377   6.804   3.893
71644SOL    HW116765   5.472   6.804   3.881
71644SOL    HW216766   5.346   6.727   3.844
71645SOL     OW16767  11.291  11.691   6.129
71645SOL    HW116768  11.351  11.635   6.080
71645SOL    HW216769  11.237  11.629   6.179
71646SOL     OW16770  14.826  13.690   4.557
71646SOL    HW116771  14.875  13.615   4.524
71646SOL    HW216772  14.788  13.660   4.640
71647SOL     OW16773  13.063   6.660  11.070
71647SOL    HW116774  13.063   6.752  11.045
71647SOL    HW216775  13.003   6.618  11.009
71648SOL     OW16776  10.936   5.530  14.355
71648SOL    HW116777  11.002   5.462  14.369
71648SOL    HW216778  10.909   5.556  14.443
71649SOL     OW16779  10.303   3.700  11.401
71649SOL    HW116780  10.264   3.750  11.330
71649SOL    HW216781  10.364   3.640  11.357
71650SOL     OW16782   2.929  10.357  11.284
71650SOL    HW116783   2.879  10.285  11.322
71650SOL    HW216784   2.961  10.407  11.359
71651SOL     OW16785  11.770   9.809   5.510
71651SOL    HW116786  11.809   9.739   5.456
71651SOL    HW216787  11.743   9.875   5.446
71652SOL     OW16788   8.940   7.280   9.087
71652SOL    HW116789   9.031   7.267   9.060
71652SOL    HW216790   8.898   7.195   9.071
71653SOL     OW16791  12.537   8.461   2.965
71653SOL    HW116792  12.615   8.424   2.924
71653SOL    HW216793  12.523   8.544   2.919
71654SOL     OW16794   2.813   3.770   1.065
71654SOL    HW116795   2.822   3.692   1.120
71654SOL    HW216796   2.820   3.843   1.126
71655SOL     OW16797  11.638   9.848   4.327
71655SOL    HW116798  11.654   9.756   4.349
71655SOL    HW216799  11.705   9.868   4.260
71656SOL     OW16800   2.551   2.875   5.792
71656SOL    HW116801   2.560   2.971   5.795
71656SOL    HW216802   2.640   2.842   5.797
71657SOL     OW16803  12.987   4.217   6.832
71657SOL    HW116804  12.932   4.177   6.764
71657SOL    HW216805  13.076   4.190   6.810
71658SOL     OW16806   4.477   9.922   3.562
71658SOL    HW116807   4.552   9.865   3.544
71658SOL    HW216808   4.476   9.983   3.488
71659SOL     OW16809   5.922  13.306   8.974
71659SOL    HW116810   5.985  13.362   9.021
71659SOL    HW216811   5.940  13.218   9.006
71660SOL     OW16812   7.244   5.485   2.615
71660SOL    HW116813   7.173   5.516   2.672
71660SOL    HW216814   7.304   5.439   2.674
71661SOL     OW16815  12.873   0.753  12.392
71661SOL    HW116816  12.792   0.714  12.426
71661SOL    HW216817  12.859   0.847  12.402
71662SOL     OW16818   4.851   4.675   5.484
71662SOL    HW116819   4.874   4.582   5.472
71662SOL    HW216820   4.925   4.723   5.448
71663SOL     OW16821   8.957   2.295  11.573
71663SOL    HW116822   8.866   2.289  11.545
71663SOL    HW216823   9.000   2.346  11.505
71664SOL     OW16824   2.311   0.590   6.137
71664SOL    HW116825   2.343   0.502   6.159
71664SOL    HW216826   2.235   0.575   6.081
71665SOL     OW16827   9.484   8.599   4.094
71665SOL    HW116828   9.570   8.614   4.133
71665SOL    HW216829   9.500   8.594   4.000
71666SOL     OW16830   7.772   1.290  12.624
71666SOL    HW116831   7.780   1.202  12.660
71666SOL    HW216832   7.832   1.343  12.677
71667SOL     OW16833   4.792   7.657   9.125
71667SOL    HW116834   4.731   7.706   9.180
71667SOL    HW216835   4.753   7.570   9.117
71668SOL     OW16836   5.262  14.166   6.585
71668SOL    HW116837   5.260  14.110   6.508
71668SOL    HW216838   5.209  14.120   6.650
71669SOL     OW16839  13.932   5.161  14.352
71669SOL    HW116840  13.988   5.126  14.283
71669SOL    HW216841  13.878   5.087  14.380
71670SOL     OW16842   1.617   5.912   8.361
71670SOL    HW116843   1.555   5.982   8.344
71670SOL    HW216844   1.598   5.884   8.450
71671SOL     OW16845   0.962   9.499   8.185
71671SOL    HW116846   0.893   9.565   8.177
71671SOL    HW216847   0.973   9.488   8.280
71672SOL     OW16848  13.642  10.871  14.679
71672SOL    HW116849  13.584  10.847  14.751
71672SOL    HW216850  13.589  10.931  14.626
71673SOL     OW16851   6.996   2.936   1.127
71673SOL    HW116852   7.087   2.928   1.156
71673SOL    HW216853   6.951   2.863   1.169
71674SOL     OW16854   1.279   4.946   6.856
71674SOL    HW116855   1.242   4.858   6.851
71674SOL    HW216856   1.371   4.931   6.881
71675SOL     OW16857   4.514   5.746   2.044
71675SOL    HW116858   4.516   5.839   2.020
71675SOL    HW216859   4.423   5.728   2.067
71676SOL     OW16860   7.821   1.582  14.016
71676SOL    HW116861   7.880   1.538  14.077
71676SOL    HW216862   7.802   1.517  13.949
71677SOL     OW16863  11.767  11.099   1.233
71677SOL    HW116864  11.690  11.043   1.242
71677SOL    HW216865  11.811  11.067   1.154
71678SOL     OW16866   1.061   8.909  11.714
71678SOL    HW116867   1.087   8.820  11.692
71678SOL    HW216868   1.143   8.958  11.718
71679SOL     OW16869  13.000   6.971  12.193
71679SOL    HW116870  13.025   6.914  12.266
71679SOL    HW216871  12.910   6.946  12.172
71680SOL     OW16872  10.150   8.256  13.688
71680SOL    HW116873  10.237   8.287  13.666
71680SOL    HW216874  10.096   8.280  13.612
71681SOL     OW16875   0.759  10.019   8.231
71681SOL    HW116876   0.717   9.992   8.313
71681SOL    HW216877   0.836  10.069   8.259
71682SOL     OW16878   5.661   0.148  10.360
71682SOL    HW116879   5.598   0.172  10.428
71682SOL    HW216880   5.690   0.232  10.324
71683SOL     OW16881  13.571  12.937   3.396
71683SOL    HW116882  13.583  12.961   3.488
71683SOL    HW216883  13.479  12.956   3.378
71684SOL     OW16884   9.774   5.836  10.674
71684SOL    HW116885   9.805   5.755  10.713
71684SOL    HW216886   9.851   5.894  10.674
71685SOL     OW16887   1.743  11.287   4.208
71685SOL    HW116888   1.682  11.274   4.281
71685SOL    HW216889   1.712  11.366   4.164
71686SOL     OW16890   9.929   6.183   4.148
71686SOL    HW116891   9.966   6.095   4.141
71686SOL    HW216892   9.876   6.193   4.069
71687SOL     OW16893  12.393   8.677   0.257
71687SOL    HW116894  12.336   8.632   0.195
71687SOL    HW216895  12.442   8.739   0.203
71688SOL     OW16896   4.294   0.985   3.714
71688SOL    HW116897   4.219   0.950   3.666
71688SOL    HW216898   4.370   0.939   3.677
71689SOL     OW16899  13.799   7.890   3.198
71689SOL    HW116900  13.801   7.918   3.290
71689SOL    HW216901  13.830   7.799   3.201
71690SOL     OW16902   8.584   6.579  13.678
71690SOL    HW116903   8.521   6.563  13.607
71690SOL    HW216904   8.543   6.537  13.755
71691SOL     OW16905   3.310   5.218   5.215
71691SOL    HW116906   3.338   5.207   5.124
71691SOL    HW216907   3.364   5.289   5.249
71692SOL     OW16908   0.857   1.827  12.724
71692SOL    HW116909   0.889   1.771  12.795
71692SOL    HW216910   0.833   1.909  12.767
71693SOL     OW16911   2.397   9.334  11.967
71693SOL    HW116912   2.414   9.277  12.042
71693SOL    HW216913   2.440   9.417  11.988
71694SOL     OW16914   4.242   0.467   3.600
71694SOL    HW116915   4.223   0.412   3.524
71694SOL    HW216916   4.296   0.412   3.657
71695SOL     OW16917   0.250  10.078  12.977
71695SOL    HW116918   0.297  10.025  12.912
71695SOL    HW216919   0.202  10.142  12.924
71696SOL     OW16920   6.968  10.073   9.432
71696SOL    HW116921   6.973  10.083   9.337
71696SOL    HW216922   7.025   9.998   9.452
71697SOL     OW16923   9.871   2.106   2.522
71697SOL    HW116924   9.819   2.046   2.576
71697SOL    HW216925   9.840   2.193   2.547
71698SOL     OW16926   5.677  12.083   7.973
71698SOL    HW116927   5.730  12.158   8.000
71698SOL    HW216928   5.732  12.007   7.993
71699SOL     OW16929   3.326   4.768  13.263
71699SOL    HW116930   3.243   4.743  13.222
71699SOL    HW216931   3.301   4.797  13.351
71700SOL     OW16932   7.390   4.511   7.833
71700SOL    HW116933   7.477   4.476   7.813
71700SOL    HW216934   7.355   4.539   7.748
71701SOL     OW16935   1.736   5.792   9.483
71701SOL    HW116936   1.818   5.780   9.530
71701SOL    HW216937   1.762   5.798   9.391
71702SOL     OW16938  14.654   0.537   7.750
71702SOL    HW116939  14.656   0.587   7.669
71702SOL    HW216940  14.567   0.553   7.786
71703SOL     OW16941   8.409   5.950   1.931
71703SOL    HW116942   8.413   5.863   1.972
71703SOL    HW216943   8.501   5.971   1.912
71704SOL     OW16944  12.395  12.268   1.202
71704SOL    HW116945  12.419  12.312   1.284
71704SOL    HW216946  12.478  12.234   1.169
71705SOL     OW16947   5.452   1.688  12.648
71705SOL    HW116948   5.492   1.621  12.592
71705SOL    HW216949   5.488   1.771  12.617
71706SOL     OW16950  10.884  14.769   9.901
71706SOL    HW116951  10.909  14.692   9.850
71706SOL    HW216952  10.816  14.811   9.849
71707SOL     OW16953  14.482  11.330  13.899
71707SOL    HW116954  14.517  11.263  13.840
71707SOL    HW216955  14.391  11.306  13.911
71708SOL     OW16956   2.412  13.075  11.600
71708SOL    HW116957   2.391  13.082  11.693
71708SOL    HW216958   2.412  13.165  11.568
71709SOL     OW16959  10.597  13.080   5.007
71709SOL    HW116960  10.562  13.060   4.920
71709SOL    HW216961  10.538  13.035   5.068
71710SOL     OW16962   7.802  13.331   2.473
71710SOL    HW116963   7.800  13.377   2.557
71710SOL    HW216964   7.713  13.299   2.461
71711SOL     OW16965   6.660   6.490   4.789
71711SOL    HW116966   6.726   6.525   4.730
71711SOL    HW216967   6.615   6.422   4.738
71712SOL     OW16968  12.528   8.199  11.849
71712SOL    HW116969  12.549   8.291  11.838
71712SOL    HW216970  12.506   8.190  11.941
71713SOL     OW16971   5.133  11.859   6.466
71713SOL    HW116972   5.055  11.808   6.442
71713SOL    HW216973   5.176  11.877   6.382
71714SOL     OW16974  10.974   6.011   5.071
71714SOL    HW116975  10.982   6.049   4.984
71714SOL    HW216976  10.985   6.086   5.130
71715SOL     OW16977  13.884   6.391  12.498
71715SOL    HW116978  13.828   6.326  12.542
71715SOL    HW216979  13.923   6.441  12.570
71716SOL     OW16980   7.635   4.195   8.730
71716SOL    HW116981   7.708   4.255   8.746
71716SOL    HW216982   7.558   4.241   8.764
71717SOL     OW16983  12.355   0.529   7.838
71717SOL    HW116984  12.401   0.447   7.852
71717SOL    HW216985  12.282   0.527   7.900
71718SOL     OW16986   5.790   8.945   3.737
71718SOL    HW116987   5.846   9.022   3.737
71718SOL    HW216988   5.702   8.979   3.722
71719SOL     OW16989   7.402   0.262   9.948
71719SOL    HW116990   7.379   0.179   9.989
71719SOL    HW216991   7.416   0.322  10.021
71720SOL     OW16992   8.310  12.881  12.647
71720SOL    HW116993   8.307  12.873  12.552
71720SOL    HW216994   8.314  12.975  12.663
71721SOL     OW16995   6.327   0.298   6.469
71721SOL    HW116996   6.408   0.250   6.487
71721SOL    HW216997   6.351   0.363   6.404
71722SOL     OW16998   5.597   2.458   3.689
71722SOL    HW116999   5.536   2.385   3.687
71722SOL    HW217000   5.542   2.536   3.691
71723SOL     OW17001   3.640   5.469  14.790
71723SOL    HW117002   3.689   5.505  14.864
71723SOL    HW217003   3.701   5.474  14.717
71724SOL     OW17004   2.524  13.591  11.543
71724SOL    HW117005   2.436  13.589  11.581
71724SOL    HW217006   2.521  13.661  11.479
71725SOL     OW17007   3.769   4.609   2.812
71725SOL    HW117008   3.833   4.543   2.785
71725SOL    HW217009   3.687   4.560   2.822
71726SOL     OW17010   2.613  12.252   5.938
71726SOL    HW117011   2.599  12.236   6.032
71726SOL    HW217012   2.552  12.193   5.894
71727SOL     OW17013  12.372   1.282   2.044
71727SOL    HW117014  12.408   1.197   2.018
71727SOL    HW217015  12.283   1.262   2.073
71728SOL     OW17016  12.292  10.195  12.761
71728SOL    HW117017  12.378  10.187  12.719
71728SOL    HW217018  12.298  10.277  12.810
71729SOL     OW17019   6.767  14.504   4.500
71729SOL    HW117020   6.832  14.443   4.535
71729SOL    HW217021   6.722  14.454   4.432
71730SOL     OW17022   6.337  12.493   0.492
71730SOL    HW117023   6.366  12.504   0.583
71730SOL    HW217024   6.251  12.453   0.499
71731SOL     OW17025   6.204   6.159   4.994
71731SOL    HW117026   6.218   6.180   4.902
71731SOL    HW217027   6.124   6.107   4.995
71732SOL     OW17028   7.308   1.643   3.975
71732SOL    HW117029   7.328   1.735   3.992
71732SOL    HW217030   7.341   1.628   3.886
71733SOL     OW17031   6.118   9.048   1.548
71733SOL    HW117032   6.037   9.089   1.519
71733SOL    HW217033   6.164   9.026   1.467
71734SOL     OW17034  10.063  13.400   9.583
71734SOL    HW117035  10.020  13.377   9.500
71734SOL    HW217036  10.145  13.442   9.557
71735SOL     OW17037   4.276  11.269   9.961
71735SOL    HW117038   4.267  11.296  10.052
71735SOL    HW217039   4.340  11.331   9.924
71736SOL     OW17040   0.937   7.455   7.228
71736SOL    HW117041   1.006   7.403   7.269
71736SOL    HW217042   0.983   7.522   7.178
71737SOL     OW17043  14.716   6.906   1.865
71737SOL    HW117044  14.781   6.892   1.934
71737SOL    HW217045  14.756   6.867   1.787
71738SOL     OW17046   8.472   4.656  14.158
71738SOL    HW117047   8.543   4.593  14.167
71738SOL    HW217048   8.452   4.657  14.064
71739SOL     OW17049   2.282  13.038   3.385
71739SOL    HW117050   2.352  13.098   3.412
71739SOL    HW217051   2.218  13.041   3.457
71740SOL     OW17052   0.137   8.746   7.700
71740SOL    HW117053   0.063   8.695   7.732
71740SOL    HW217054   0.203   8.741   7.769
71741SOL     OW17055   6.636   1.553   8.011
71741SOL    HW117056   6.719   1.514   7.983
71741SOL    HW217057   6.630   1.530   8.104
71742SOL     OW17058   0.446   4.110  13.181
71742SOL    HW117059   0.486   4.024  13.171
71742SOL    HW217060   0.521   4.171  13.185
71743SOL     OW17061   5.542  10.400   6.692
71743SOL    HW117062   5.447  10.402   6.704
71743SOL    HW217063   5.572  10.485   6.724
71744SOL     OW17064   9.280   1.092  13.041
71744SOL    HW117065   9.287   1.090  13.137
71744SOL    HW217066   9.187   1.077  13.023
71745SOL     OW17067   3.193  13.593   1.556
71745SOL    HW117068   3.130  13.665   1.549
71745SOL    HW217069   3.167  13.546   1.635
71746SOL     OW17070   3.938   4.626   1.043
71746SOL    HW117071   3.947   4.613   0.948
71746SOL    HW217072   3.923   4.538   1.078
71747SOL     OW17073   8.358   8.785   9.109
71747SOL    HW117074   8.318   8.857   9.060
71747SOL    HW217075   8.381   8.720   9.043
71748SOL     OW17076  11.178   5.984   8.608
71748SOL    HW117077  11.174   6.065   8.658
71748SOL    HW217078  11.087   5.954   8.604
71749SOL     OW17079   0.563   1.645  11.190
71749SOL    HW117080   0.562   1.723  11.134
71749SOL    HW217081   0.573   1.680  11.279
71750SOL     OW17082   3.172   3.107  11.173
71750SOL    HW117083   3.097   3.131  11.118
71750SOL    HW217084   3.239   3.172  11.151
71751SOL     OW17085   4.842  10.463  10.750
71751SOL    HW117086   4.796  10.517  10.687
71751SOL    HW217087   4.900  10.525  10.795
71752SOL     OW17088   5.511  10.656   7.231
71752SOL    HW117089   5.579  10.717   7.202
71752SOL    HW217090   5.548  10.616   7.310
71753SOL     OW17091   4.195  12.261   0.576
71753SOL    HW117092   4.138  12.247   0.651
71753SOL    HW217093   4.166  12.344   0.539
71754SOL     OW17094   2.875  11.126   7.569
71754SOL    HW117095   2.895  11.039   7.604
71754SOL    HW217096   2.786  11.118   7.536
71755SOL     OW17097   5.355  11.733   3.343
71755SOL    HW117098   5.416  11.769   3.407
71755SOL    HW217099   5.386  11.644   3.327
71756SOL     OW17100  13.974  13.844   0.800
71756SOL    HW117101  13.893  13.799   0.822
71756SOL    HW217102  13.948  13.936   0.792
71757SOL     OW17103   5.108   4.107   3.545
71757SOL    HW117104   5.179   4.142   3.598
71757SOL    HW217105   5.036   4.095   3.607
71758SOL     OW17106   4.231   8.035   0.846
71758SOL    HW117107   4.231   7.984   0.765
71758SOL    HW217108   4.300   8.100   0.833
71759SOL     OW17109  12.565   7.317   6.244
71759SOL    HW117110  12.493   7.256   6.229
71759SOL    HW217111  12.526   7.403   6.232
71760SOL     OW17112  13.362   2.921  13.458
71760SOL    HW117113  13.341   2.886  13.372
71760SOL    HW217114  13.390   3.011  13.441
71761SOL     OW17115   0.440   7.165  13.311
71761SOL    HW117116   0.454   7.118  13.393
71761SOL    HW217117   0.470   7.254  13.329
71762SOL     OW17118  12.802   0.856   8.873
71762SOL    HW117119  12.837   0.835   8.786
71762SOL    HW217120  12.723   0.802   8.880
71763SOL     OW17121   0.039   5.201   2.153
71763SOL    HW117122   0.102   5.262   2.114
71763SOL    HW217123   0.051   5.121   2.103
71764SOL     OW17124   0.304   5.601   1.197
71764SOL    HW117125   0.364   5.675   1.192
71764SOL    HW217126   0.348   5.538   1.254
71765SOL     OW17127  13.160  11.804   5.121
71765SOL    HW117128  13.083  11.823   5.067
71765SOL    HW217129  13.229  11.859   5.085
71766SOL     OW17130   5.529   1.133  10.474
71766SOL    HW117131   5.440   1.169  10.469
71766SOL    HW217132   5.515   1.041  10.497
71767SOL     OW17133   1.106   0.524   9.781
71767SOL    HW117134   1.095   0.581   9.858
71767SOL    HW217135   1.080   0.578   9.707
71768SOL     OW17136   3.806  10.398   2.759
71768SOL    HW117137   3.736  10.440   2.709
71768SOL    HW217138   3.887  10.438   2.726
71769SOL     OW17139  12.137   5.803  11.597
71769SOL    HW117140  12.083   5.727  11.575
71769SOL    HW217141  12.075   5.876  11.597
71770SOL     OW17142   3.899  12.880   9.927
71770SOL    HW117143   3.805  12.895   9.937
71770SOL    HW217144   3.906  12.803   9.871
71771SOL     OW17145  13.678   0.454  11.855
71771SOL    HW117146  13.612   0.513  11.818
71771SOL    HW217147  13.628   0.379  11.885
71772SOL     OW17148   4.504   3.311   4.160
71772SOL    HW117149   4.451   3.361   4.097
71772SOL    HW217150   4.578   3.279   4.108
71773SOL     OW17151   3.062   9.203   4.584
71773SOL    HW117152   3.098   9.260   4.651
71773SOL    HW217153   3.081   9.246   4.502
71774SOL     OW17154   9.726  13.655   7.108
71774SOL    HW117155   9.685  13.715   7.046
71774SOL    HW217156   9.661  13.586   7.122
71775SOL     OW17157   4.122   7.209  12.430
71775SOL    HW117158   4.111   7.285  12.487
71775SOL    HW217159   4.217   7.192  12.432
71776SOL     OW17160   3.268  14.589   3.287
71776SOL    HW117161   3.279  14.620   3.377
71776SOL    HW217162   3.209  14.514   3.295
71777SOL     OW17163   2.513   2.745   4.423
71777SOL    HW117164   2.591   2.780   4.466
71777SOL    HW217165   2.452   2.727   4.495
71778SOL     OW17166   3.705   6.562  11.841
71778SOL    HW117167   3.685   6.645  11.798
71778SOL    HW217168   3.706   6.497  11.770
71779SOL     OW17169  12.037  10.650  13.027
71779SOL    HW117170  12.090  10.660  13.106
71779SOL    HW217171  11.949  10.631  13.059
71780SOL     OW17172  11.839  10.897   0.228
71780SOL    HW117173  11.854  10.909   0.134
71780SOL    HW217174  11.905  10.953   0.270
71781SOL     OW17175   9.823   1.222  10.524
71781SOL    HW117176   9.823   1.130  10.549
71781SOL    HW217177   9.775   1.266  10.594
71782SOL     OW17178   5.431  12.937   9.832
71782SOL    HW117179   5.433  12.995   9.908
71782SOL    HW217180   5.515  12.892   9.834
71783SOL     OW17181   5.296   7.078  13.148
71783SOL    HW117182   5.363   7.043  13.207
71783SOL    HW217183   5.258   7.151  13.197
71784SOL     OW17184   8.067  14.245   1.211
71784SOL    HW117185   8.130  14.263   1.142
71784SOL    HW217186   8.075  14.319   1.271
71785SOL     OW17187   0.668   9.608   4.621
71785SOL    HW117188   0.591   9.609   4.565
71785SOL    HW217189   0.674   9.697   4.656
71786SOL     OW17190   0.300   2.405   4.942
71786SOL    HW117191   0.334   2.387   5.030
71786SOL    HW217192   0.305   2.501   4.934
71787SOL     OW17193  13.716   2.129  11.849
71787SOL    HW117194  13.753   2.212  11.878
71787SOL    HW217195  13.700   2.080  11.929
71788SOL     OW17196   0.866  10.764  14.157
71788SOL    HW117197   0.788  10.751  14.103
71788SOL    HW217198   0.939  10.735  14.102
71789SOL     OW17199   8.164   9.775  11.286
71789SOL    HW117200   8.091   9.718  11.264
71789SOL    HW217201   8.134   9.826  11.361
71790SOL     OW17202   7.928   8.492   1.256
71790SOL    HW117203   7.895   8.562   1.199
71790SOL    HW217204   8.022   8.490   1.239
71791SOL     OW17205   0.196   3.591   4.866
71791SOL    HW117206   0.238   3.565   4.784
71791SOL    HW217207   0.216   3.684   4.876
71792SOL     OW17208   2.127   8.106  14.129
71792SOL    HW117209   2.120   8.181  14.189
71792SOL    HW217210   2.178   8.139  14.055
71793SOL     OW17211   7.237   4.723   4.808
71793SOL    HW117212   7.190   4.768   4.878
71793SOL    HW217213   7.264   4.640   4.846
71794SOL     OW17214   6.673   1.593  10.950
71794SOL    HW117215   6.658   1.648  10.873
71794SOL    HW217216   6.734   1.643  11.004
71795SOL     OW17217   6.740  10.060   0.270
71795SOL    HW117218   6.743  10.140   0.217
71795SOL    HW217219   6.681  10.002   0.223
71796SOL     OW17220  14.633  10.535   1.152
71796SOL    HW117221  14.693  10.531   1.226
71796SOL    HW217222  14.572  10.606   1.174
71797SOL     OW17223   0.140   9.342   6.426
71797SOL    HW117224   0.216   9.342   6.484
71797SOL    HW217225   0.132   9.250   6.399
71798SOL     OW17226   9.783   6.472   7.205
71798SOL    HW117227   9.825   6.410   7.145
71798SOL    HW217228   9.848   6.540   7.219
71799SOL     OW17229   1.670   8.393  10.859
71799SOL    HW117230   1.673   8.336  10.782
71799SOL    HW217231   1.612   8.465  10.833
71800SOL     OW17232   7.881   6.574   0.272
71800SOL    HW117233   7.952   6.518   0.303
71800SOL    HW217234   7.925   6.639   0.217
71801SOL     OW17235   7.651   3.452   4.998
71801SOL    HW117236   7.605   3.426   4.918
71801SOL    HW217237   7.653   3.373   5.051
71802SOL     OW17238   3.565  10.623   0.876
71802SOL    HW117239   3.475  10.633   0.845
71802SOL    HW217240   3.569  10.534   0.911
71803SOL     OW17241   0.870   1.491  14.461
71803SOL    HW117242   0.829   1.442  14.390
71803SOL    HW217243   0.895   1.575  14.421
71804SOL     OW17244   9.020  14.109   6.025
71804SOL    HW117245   8.957  14.057   5.976
71804SOL    HW217246   9.094  14.121   5.965
71805SOL     OW17247   4.253   5.542  12.283
71805SOL    HW117248   4.232   5.585  12.199
71805SOL    HW217249   4.308   5.467  12.258
71806SOL     OW17250   3.863   9.407   6.222
71806SOL    HW117251   3.874   9.314   6.205
71806SOL    HW217252   3.780   9.413   6.269
71807SOL     OW17253  14.081  12.382   2.770
71807SOL    HW117254  14.133  12.450   2.812
71807SOL    HW217255  13.993  12.418   2.766
71808SOL     OW17256  14.852   2.689   3.646
71808SOL    HW117257  14.802   2.613   3.677
71808SOL    HW217258   0.022   2.655   3.570
71809SOL     OW17259   6.101   3.888   5.330
71809SOL    HW117260   6.048   3.808   5.322
71809SOL    HW217261   6.182   3.859   5.372
71810SOL     OW17262   4.040  12.921   5.183
71810SOL    HW117263   4.022  12.982   5.255
71810SOL    HW217264   4.129  12.891   5.198
71811SOL     OW17265  12.792  12.474   4.705
71811SOL    HW117266  12.723  12.434   4.652
71811SOL    HW217267  12.864  12.411   4.701
71812SOL     OW17268   3.656   4.184  10.023
71812SOL    HW117269   3.711   4.121  10.070
71812SOL    HW217270   3.711   4.214   9.951
71813SOL     OW17271   8.205  11.861   1.116
71813SOL    HW117272   8.111  11.877   1.125
71813SOL    HW217273   8.246  11.929   1.169
71814SOL     OW17274   2.726  10.010   6.537
71814SOL    HW117275   2.687  10.021   6.623
71814SOL    HW217276   2.688   9.929   6.503
71815SOL     OW17277   3.977   5.687   7.656
71815SOL    HW117278   4.057   5.719   7.614
71815SOL    HW217279   3.937   5.764   7.694
71816SOL     OW17280   2.687  10.527  14.203
71816SOL    HW117281   2.623  10.544  14.134
71816SOL    HW217282   2.751  10.468  14.162
71817SOL     OW17283   8.192   5.785   8.591
71817SOL    HW117284   8.254   5.759   8.523
71817SOL    HW217285   8.245   5.830   8.656
71818SOL     OW17286  11.926  13.778   2.418
71818SOL    HW117287  11.946  13.853   2.362
71818SOL    HW217288  11.996  13.777   2.484
71819SOL     OW17289   5.115  13.300   2.385
71819SOL    HW117290   5.139  13.352   2.461
71819SOL    HW217291   5.050  13.353   2.339
71820SOL     OW17292   4.094   9.632  14.362
71820SOL    HW117293   4.120   9.632  14.270
71820SOL    HW217294   4.082   9.725  14.384
71821SOL     OW17295   2.569   4.361   0.650
71821SOL    HW117296   2.653   4.376   0.694
71821SOL    HW217297   2.508   4.418   0.695
71822SOL     OW17298  12.394   9.157   4.621
71822SOL    HW117299  12.432   9.226   4.675
71822SOL    HW217300  12.299   9.166   4.633
71823SOL     OW17301   8.458   8.549   3.105
71823SOL    HW117302   8.446   8.476   3.045
71823SOL    HW217303   8.542   8.588   3.080
71824SOL     OW17304   5.664  13.543  11.747
71824SOL    HW117305   5.597  13.493  11.793
71824SOL    HW217306   5.624  13.566  11.664
71825SOL     OW17307  13.045   0.156  10.868
71825SOL    HW117308  13.122   0.105  10.893
71825SOL    HW217309  13.055   0.239  10.915
71826SOL     OW17310   7.512   8.857  11.881
71826SOL    HW117311   7.587   8.801  11.863
71826SOL    HW217312   7.452   8.802  11.930
71827SOL     OW17313   9.507   8.529   6.118
71827SOL    HW117314   9.454   8.530   6.198
71827SOL    HW217315   9.598   8.528   6.150
71828SOL     OW17316   6.819   0.037  12.301
71828SOL    HW117317   6.732   0.015  12.267
71828SOL    HW217318   6.813   0.018  12.394
71829SOL     OW17319  13.500   1.797   5.382
71829SOL    HW117320  13.578   1.786   5.328
71829SOL    HW217321  13.439   1.845   5.327
71830SOL     OW17322  11.945   7.001  11.475
71830SOL    HW117323  11.971   6.915  11.442
71830SOL    HW217324  11.948   6.992  11.571
71831SOL     OW17325   3.137  12.144   6.663
71831SOL    HW117326   3.090  12.158   6.581
71831SOL    HW217327   3.084  12.078   6.709
71832SOL     OW17328  13.153   5.735   5.715
71832SOL    HW117329  13.163   5.794   5.641
71832SOL    HW217330  13.242   5.722   5.747
71833SOL     OW17331   0.981   1.857   1.667
71833SOL    HW117332   0.973   1.906   1.585
71833SOL    HW217333   0.908   1.888   1.721
71834SOL     OW17334  11.997   9.745  12.725
71834SOL    HW117335  12.029   9.764  12.637
71834SOL    HW217336  12.036   9.660  12.746
71835SOL     OW17337  11.898  13.874   5.748
71835SOL    HW117338  11.928  13.811   5.683
71835SOL    HW217339  11.974  13.890   5.804
71836SOL     OW17340   4.600   2.423   0.095
71836SOL    HW117341   4.662   2.472   0.040
71836SOL    HW217342   4.565   2.489   0.155
71837SOL     OW17343   8.711   4.589   3.902
71837SOL    HW117344   8.801   4.601   3.872
71837SOL    HW217345   8.664   4.561   3.824
71838SOL     OW17346   4.450   2.186  12.055
71838SOL    HW117347   4.535   2.215  12.088
71838SOL    HW217348   4.461   2.092  12.040
71839SOL     OW17349   3.312   6.455   6.351
71839SOL    HW117350   3.283   6.535   6.396
71839SOL    HW217351   3.304   6.386   6.418
71840SOL     OW17352   4.203  13.686   3.212
71840SOL    HW117353   4.245  13.772   3.207
71840SOL    HW217354   4.116  13.701   3.175
71841SOL     OW17355  10.447  14.063   5.804
71841SOL    HW117356  10.519  14.104   5.852
71841SOL    HW217357  10.387  14.135   5.786
71842SOL     OW17358   7.244  14.607   9.603
71842SOL    HW117359   7.325  14.651   9.630
71842SOL    HW217360   7.178  14.641   9.664
71843SOL     OW17361  13.684   8.401   2.595
71843SOL    HW117362  13.683   8.347   2.674
71843SOL    HW217363  13.606   8.456   2.602
71844SOL     OW17364   9.957   9.145   7.991
71844SOL    HW117365   9.931   9.235   8.010
71844SOL    HW217366  10.051   9.144   8.009
71845SOL     OW17367   6.694   8.518   4.101
71845SOL    HW117368   6.695   8.479   4.189
71845SOL    HW217369   6.629   8.588   4.107
71846SOL     OW17370  14.113   5.761   1.294
71846SOL    HW117371  14.191   5.817   1.297
71846SOL    HW217372  14.145   5.674   1.317
71847SOL     OW17373  12.649  13.104  11.380
71847SOL    HW117374  12.577  13.099  11.442
71847SOL    HW217375  12.712  13.038  11.410
71848SOL     OW17376   8.784   2.620   3.660
71848SOL    HW117377   8.717   2.689   3.661
71848SOL    HW217378   8.808   2.611   3.568
71849SOL     OW17379   4.419   9.354   3.948
71849SOL    HW117380   4.438   9.268   3.913
71849SOL    HW217381   4.477   9.363   4.024
71850SOL     OW17382  13.765  12.008   2.484
71850SOL    HW117383  13.763  12.103   2.481
71850SOL    HW217384  13.720  11.985   2.565
71851SOL     OW17385   1.238   9.765   2.907
71851SOL    HW117386   1.299   9.700   2.941
71851SOL    HW217387   1.213   9.733   2.821
71852SOL     OW17388   9.043   1.923   0.045
71852SOL    HW117389   9.013   2.002   0.000
71852SOL    HW217390   9.069   1.952   0.132
71853SOL     OW17391   5.357  10.295   9.584
71853SOL    HW117392   5.394  10.378   9.552
71853SOL    HW217393   5.419  10.228   9.555
71854SOL     OW17394   7.394   0.697   2.247
71854SOL    HW117395   7.367   0.788   2.256
71854SOL    HW217396   7.353   0.668   2.165
71855SOL     OW17397  10.925   9.108   3.219
71855SOL    HW117398  10.911   9.111   3.313
71855SOL    HW217399  10.896   9.194   3.187
71856SOL     OW17400  11.918  10.035   7.570
71856SOL    HW117401  11.944  10.046   7.478
71856SOL    HW217402  12.001  10.038   7.619
71857SOL     OW17403   4.158   3.301  11.947
71857SOL    HW117404   4.174   3.207  11.936
71857SOL    HW217405   4.090   3.322  11.883
71858SOL     OW17406   6.154   1.440   1.486
71858SOL    HW117407   6.211   1.365   1.472
71858SOL    HW217408   6.162   1.492   1.406
71859SOL     OW17409  11.316   7.780   1.354
71859SOL    HW117410  11.364   7.848   1.401
71859SOL    HW217411  11.229   7.779   1.394
71860SOL     OW17412   0.896   5.715  13.076
71860SOL    HW117413   0.959   5.666  13.023
71860SOL    HW217414   0.929   5.805  13.076
71861SOL     OW17415   8.648  13.678   7.711
71861SOL    HW117416   8.740  13.693   7.693
71861SOL    HW217417   8.601  13.741   7.656
71862SOL     OW17418   7.929  13.226  13.993
71862SOL    HW117419   7.896  13.228  14.083
71862SOL    HW217420   7.930  13.318  13.966
71863SOL     OW17421   4.049   8.902   6.817
71863SOL    HW117422   4.049   8.998   6.823
71863SOL    HW217423   4.070   8.884   6.726
71864SOL     OW17424   0.744  11.974   5.741
71864SOL    HW117425   0.838  11.994   5.749
71864SOL    HW217426   0.739  11.912   5.668
71865SOL     OW17427   5.369  12.687  14.689
71865SOL    HW117428   5.432  12.672  14.759
71865SOL    HW217429   5.422  12.711  14.614
71866SOL     OW17430   4.990   8.359   8.413
71866SOL    HW117431   5.052   8.342   8.484
71866SOL    HW217432   5.036   8.331   8.334
71867SOL     OW17433   5.467   2.406   9.557
71867SOL    HW117434   5.535   2.346   9.527
71867SOL    HW217435   5.448   2.379   9.646
71868SOL     OW17436   8.368   1.430   1.436
71868SOL    HW117437   8.411   1.384   1.365
71868SOL    HW217438   8.274   1.418   1.419
71869SOL     OW17439   6.331  10.218   4.097
71869SOL    HW117440   6.311  10.195   4.187
71869SOL    HW217441   6.280  10.156   4.044
71870SOL     OW17442  10.999   3.779   4.051
71870SOL    HW117443  11.009   3.874   4.052
71870SOL    HW217444  11.062   3.747   4.117
71871SOL     OW17445  13.995  12.280   3.528
71871SOL    HW117446  13.921  12.341   3.531
71871SOL    HW217447  13.986  12.228   3.608
71872SOL     OW17448   1.996   9.833   7.156
71872SOL    HW117449   1.913   9.807   7.115
71872SOL    HW217450   2.020   9.757   7.210
71873SOL     OW17451  10.714  10.421   5.976
71873SOL    HW117452  10.751  10.337   6.003
71873SOL    HW217453  10.649  10.399   5.909
71874SOL     OW17454   1.986   7.102   9.055
71874SOL    HW117455   2.034   7.176   9.092
71874SOL    HW217456   1.894   7.129   9.057
71875SOL     OW17457   6.597   5.327   4.038
71875SOL    HW117458   6.508   5.327   4.073
71875SOL    HW217459   6.631   5.240   4.059
71876SOL     OW17460  10.425   0.266   0.864
71876SOL    HW117461  10.382   0.183   0.842
71876SOL    HW217462  10.508   0.240   0.903
71877SOL     OW17463   6.434  11.401  14.294
71877SOL    HW117464   6.413  11.477  14.240
71877SOL    HW217465   6.443  11.329  14.230
71878SOL     OW17466   2.801   4.664   2.917
71878SOL    HW117467   2.867   4.708   2.863
71878SOL    HW217468   2.833   4.674   3.006
71879SOL     OW17469   2.235   6.064  13.471
71879SOL    HW117470   2.183   6.062  13.390
71879SOL    HW217471   2.288   6.143  13.463
71880SOL     OW17472  10.945  12.413  11.113
71880SOL    HW117473  11.023  12.417  11.058
71880SOL    HW217474  10.961  12.478  11.182
71881SOL     OW17475   0.287   0.982  10.561
71881SOL    HW117476   0.206   0.939  10.533
71881SOL    HW217477   0.302   0.950  10.649
71882SOL     OW17478   8.146  13.732   1.415
71882SOL    HW117479   8.221  13.709   1.360
71882SOL    HW217480   8.070  13.722   1.356
71883SOL     OW17481   8.210  12.512   8.173
71883SOL    HW117482   8.172  12.427   8.194
71883SOL    HW217483   8.288  12.492   8.120
71884SOL     OW17484   3.576   9.362   6.318
71884SOL    HW117485   3.571   9.270   6.343
71884SOL    HW217486   3.520   9.370   6.241
71885SOL     OW17487   7.191   5.320   1.955
71885SOL    HW117488   7.205   5.263   2.030
71885SOL    HW217489   7.244   5.398   1.973
71886SOL     OW17490  14.001  14.758   3.046
71886SOL    HW117491  13.986  14.707   2.966
71886SOL    HW217492  13.914  14.792   3.069
71887SOL     OW17493  14.438  13.494  10.897
71887SOL    HW117494  14.400  13.542  10.970
71887SOL    HW217495  14.525  13.467  10.928
71888SOL     OW17496   8.848   0.215   5.492
71888SOL    HW117497   8.923   0.180   5.539
71888SOL    HW217498   8.882   0.292   5.447
71889SOL     OW17499   7.083   7.642   9.287
71889SOL    HW117500   7.142   7.606   9.221
71889SOL    HW217501   7.128   7.721   9.318
71890SOL     OW17502   5.462  13.509  12.467
71890SOL    HW117503   5.453  13.566  12.544
71890SOL    HW217504   5.497  13.566  12.399
71891SOL     OW17505  12.024   4.583   4.211
71891SOL    HW117506  12.034   4.566   4.305
71891SOL    HW217507  11.937   4.551   4.190
71892SOL     OW17508  10.978   5.318   2.772
71892SOL    HW117509  10.951   5.268   2.695
71892SOL    HW217510  10.990   5.407   2.740
71893SOL     OW17511  14.206   6.777   1.044
71893SOL    HW117512  14.149   6.704   1.023
71893SOL    HW217513  14.269   6.742   1.107
71894SOL     OW17514  13.354   0.412   2.098
71894SOL    HW117515  13.421   0.478   2.079
71894SOL    HW217516  13.365   0.392   2.191
71895SOL     OW17517   6.297  11.938   5.319
71895SOL    HW117518   6.354  11.969   5.249
71895SOL    HW217519   6.216  11.913   5.275
71896SOL     OW17520   4.555   2.475  11.723
71896SOL    HW117521   4.569   2.387  11.758
71896SOL    HW217522   4.509   2.521  11.793
71897SOL     OW17523   3.351   3.406   0.243
71897SOL    HW117524   3.291   3.425   0.171
71897SOL    HW217525   3.432   3.379   0.200
71898SOL     OW17526   3.805   8.264   7.857
71898SOL    HW117527   3.886   8.313   7.844
71898SOL    HW217528   3.739   8.312   7.808
71899SOL     OW17529   1.800  11.489  14.762
71899SOL    HW117530   1.814  11.456  14.673
71899SOL    HW217531   1.756  11.417  14.807
71900SOL     OW17532   0.023   1.832   6.210
71900SOL    HW117533  14.807   1.841   6.224
71900SOL    HW217534   0.047   1.754   6.260
71901SOL     OW17535   8.945   8.245  10.395
71901SOL    HW117536   8.946   8.286  10.309
71901SOL    HW217537   8.888   8.168  10.385
71902SOL     OW17538   7.371  11.911   9.806
71902SOL    HW117539   7.401  11.901   9.896
71902SOL    HW217540   7.286  11.954   9.814
71903SOL     OW17541   9.729   8.183   1.024
71903SOL    HW117542   9.757   8.125   1.095
71903SOL    HW217543   9.781   8.155   0.949
71904SOL     OW17544  10.065   3.386   4.637
71904SOL    HW117545  10.023   3.358   4.555
71904SOL    HW217546  10.118   3.462   4.612
71905SOL     OW17547   1.562   7.652  14.442
71905SOL    HW117548   1.575   7.576  14.385
71905SOL    HW217549   1.651   7.677  14.468
71906SOL     OW17550   2.051   1.524   5.440
71906SOL    HW117551   2.018   1.472   5.367
71906SOL    HW217552   2.072   1.461   5.508
71907SOL     OW17553   5.052   9.396   8.398
71907SOL    HW117554   5.120   9.445   8.352
71907SOL    HW217555   4.970   9.423   8.357
71908SOL     OW17556   8.079   6.879   0.816
71908SOL    HW117557   8.111   6.864   0.727
71908SOL    HW217558   8.094   6.972   0.832
71909SOL     OW17559  11.913   2.249   1.619
71909SOL    HW117560  11.853   2.292   1.558
71909SOL    HW217561  11.983   2.214   1.563
71910SOL     OW17562   6.231   5.258   5.287
71910SOL    HW117563   6.260   5.194   5.222
71910SOL    HW217564   6.302   5.261   5.351
71911SOL     OW17565  14.556   2.896   3.531
71911SOL    HW117566  14.529   2.975   3.577
71911SOL    HW217567  14.476   2.866   3.487
71912SOL     OW17568   7.823   3.274  13.258
71912SOL    HW117569   7.763   3.243  13.190
71912SOL    HW217570   7.890   3.206  13.263
71913SOL     OW17571  13.215   4.946  12.067
71913SOL    HW117572  13.182   4.925  11.979
71913SOL    HW217573  13.306   4.972  12.053
71914SOL     OW17574   9.523   4.934  14.384
71914SOL    HW117575   9.589   5.000  14.403
71914SOL    HW217576   9.515   4.934  14.289
71915SOL     OW17577   7.763   9.595   0.470
71915SOL    HW117578   7.825   9.650   0.421
71915SOL    HW217579   7.806   9.509   0.476
71916SOL     OW17580   6.290  13.048   1.713
71916SOL    HW117581   6.336  12.994   1.777
71916SOL    HW217582   6.357  13.072   1.649
71917SOL     OW17583  12.184   3.632   3.050
71917SOL    HW117584  12.190   3.727   3.062
71917SOL    HW217585  12.091   3.613   3.052
71918SOL     OW17586  14.788   4.116   1.343
71918SOL    HW117587  14.756   4.189   1.396
71918SOL    HW217588  14.804   4.155   1.257
71919SOL     OW17589  11.051   3.229   6.466
71919SOL    HW117590  11.008   3.311   6.489
71919SOL    HW217591  11.137   3.234   6.507
71920SOL     OW17592   3.997   2.901  13.595
71920SOL    HW117593   3.938   2.976  13.588
71920SOL    HW217594   4.002   2.884  13.689
71921SOL     OW17595   3.991   7.444   0.668
71921SOL    HW117596   3.935   7.521   0.675
71921SOL    HW217597   3.929   7.370   0.666
71922SOL     OW17598   0.826   6.344  13.598
71922SOL    HW117599   0.838   6.305  13.685
71922SOL    HW217600   0.736   6.376  13.598
71923SOL     OW17601  10.391  11.205   7.286
71923SOL    HW117602  10.457  11.227   7.221
71923SOL    HW217603  10.313  11.184   7.234
71924SOL     OW17604   6.759   4.319   1.728
71924SOL    HW117605   6.809   4.312   1.810
71924SOL    HW217606   6.758   4.413   1.708
71925SOL     OW17607  14.338  10.031  10.721
71925SOL    HW117608  14.339   9.940  10.752
71925SOL    HW217609  14.274  10.031  10.650
71926SOL     OW17610  11.523  11.469   9.669
71926SOL    HW117611  11.478  11.385   9.667
71926SOL    HW217612  11.609  11.450   9.632
71927SOL     OW17613   5.443   8.149   2.236
71927SOL    HW117614   5.419   8.112   2.151
71927SOL    HW217615   5.537   8.166   2.229
71928SOL     OW17616   1.408   8.699   6.869
71928SOL    HW117617   1.392   8.648   6.949
71928SOL    HW217618   1.326   8.691   6.819
71929SOL     OW17619   2.504   3.108   9.035
71929SOL    HW117620   2.541   3.034   9.083
71929SOL    HW217621   2.431   3.138   9.088
71930SOL     OW17622   4.459   3.704   7.598
71930SOL    HW117623   4.440   3.785   7.551
71930SOL    HW217624   4.408   3.637   7.552
71931SOL     OW17625   4.966   1.419   9.683
71931SOL    HW117626   4.876   1.420   9.716
71931SOL    HW217627   4.990   1.511   9.673
71932SOL     OW17628   1.827   3.271   0.940
71932SOL    HW117629   1.789   3.330   0.875
71932SOL    HW217630   1.767   3.196   0.943
71933SOL     OW17631   6.703  11.820  12.843
71933SOL    HW117632   6.764  11.883  12.881
71933SOL    HW217633   6.634  11.811  12.909
71934SOL     OW17634   0.427  12.950   2.919
71934SOL    HW117635   0.424  13.042   2.893
71934SOL    HW217636   0.336  12.927   2.937
71935SOL     OW17637   3.981  14.037   3.660
71935SOL    HW117638   3.974  13.944   3.639
71935SOL    HW217639   3.945  14.044   3.749
71936SOL     OW17640   4.064   2.761   9.220
71936SOL    HW117641   4.108   2.845   9.220
71936SOL    HW217642   4.075   2.727   9.308
71937SOL     OW17643   1.719  10.704  10.933
71937SOL    HW117644   1.658  10.776  10.949
71937SOL    HW217645   1.731  10.703  10.838
71938SOL     OW17646  10.776   4.842  10.461
71938SOL    HW117647  10.806   4.921  10.506
71938SOL    HW217648  10.750   4.872  10.374
71939SOL     OW17649   0.121   9.645  13.841
71939SOL    HW117650   0.155   9.727  13.879
71939SOL    HW217651   0.063   9.673  13.771
71940SOL     OW17652   2.520   2.573   2.814
71940SOL    HW117653   2.480   2.592   2.899
71940SOL    HW217654   2.513   2.478   2.805
71941SOL     OW17655  12.662   7.312  13.449
71941SOL    HW117656  12.666   7.284  13.541
71941SOL    HW217657  12.577   7.282  13.419
71942SOL     OW17658   9.061   6.014  11.398
71942SOL    HW117659   9.081   5.925  11.428
71942SOL    HW217660   9.131   6.068  11.436
71943SOL     OW17661  12.667   1.970   3.803
71943SOL    HW117662  12.701   1.906   3.865
71943SOL    HW217663  12.618   2.032   3.856
71944SOL     OW17664  14.649  14.832  14.417
71944SOL    HW117665  14.596  14.787  14.352
71944SOL    HW217666  14.586  14.873  14.476
71945SOL     OW17667   3.954  13.735   0.896
71945SOL    HW117668   4.026  13.706   0.952
71945SOL    HW217669   3.887  13.765   0.958
71946SOL     OW17670   1.218   7.562   9.805
71946SOL    HW117671   1.311   7.551   9.824
71946SOL    HW217672   1.173   7.506   9.868
71947SOL     OW17673  10.735   5.284   3.687
71947SOL    HW117674  10.749   5.267   3.780
71947SOL    HW217675  10.641   5.301   3.679
71948SOL     OW17676  10.051   7.154   8.226
71948SOL    HW117677   9.990   7.226   8.239
71948SOL    HW217678  10.087   7.169   8.139
71949SOL     OW17679   4.174   5.968  10.371
71949SOL    HW117680   4.212   5.896  10.320
71949SOL    HW217681   4.083   5.973  10.342
71950SOL     OW17682  11.145  10.505   2.967
71950SOL    HW117683  11.215  10.539   3.023
71950SOL    HW217684  11.130  10.417   2.999
71951SOL     OW17685   4.639  11.097   2.867
71951SOL    HW117686   4.567  11.062   2.815
71951SOL    HW217687   4.598  11.157   2.929
71952SOL     OW17688   8.455   7.362   5.068
71952SOL    HW117689   8.472   7.439   5.123
71952SOL    HW217690   8.412   7.300   5.128
71953SOL     OW17691  14.031  11.641   0.272
71953SOL    HW117692  14.015  11.726   0.230
71953SOL    HW217693  14.055  11.663   0.362
71954SOL     OW17694  10.957  12.336   4.715
71954SOL    HW117695  10.877  12.387   4.704
71954SOL    HW217696  10.927  12.248   4.736
71955SOL     OW17697  13.307   4.975   1.621
71955SOL    HW117698  13.360   5.032   1.565
71955SOL    HW217699  13.217   4.993   1.596
71956SOL     OW17700  11.614   1.707   6.708
71956SOL    HW117701  11.551   1.669   6.648
71956SOL    HW217702  11.581   1.795   6.725
71957SOL     OW17703   8.028   5.000  13.358
71957SOL    HW117704   7.958   5.024  13.297
71957SOL    HW217705   7.989   5.013  13.445
71958SOL     OW17706   3.949   7.928   6.256
71958SOL    HW117707   3.963   7.836   6.234
71958SOL    HW217708   4.007   7.945   6.330
71959SOL     OW17709   5.927   5.811   2.357
71959SOL    HW117710   5.925   5.799   2.452
71959SOL    HW217711   6.006   5.765   2.329
71960SOL     OW17712   2.717  11.175   5.986
71960SOL    HW117713   2.743  11.262   6.017
71960SOL    HW217714   2.644  11.192   5.927
71961SOL     OW17715   2.157   5.812   8.206
71961SOL    HW117716   2.203   5.798   8.124
71961SOL    HW217717   2.166   5.906   8.223
71962SOL     OW17718  11.999   7.451   5.157
71962SOL    HW117719  12.054   7.378   5.128
71962SOL    HW217720  11.965   7.489   5.076
71963SOL     OW17721   4.373   1.451   5.049
71963SOL    HW117722   4.306   1.435   5.116
71963SOL    HW217723   4.327   1.440   4.966
71964SOL     OW17724  11.244  10.969   5.721
71964SOL    HW117725  11.254  10.895   5.781
71964SOL    HW217726  11.333  10.992   5.697
71965SOL     OW17727   4.584   1.702  11.879
71965SOL    HW117728   4.670   1.676  11.911
71965SOL    HW217729   4.529   1.625  11.894
71966SOL     OW17730   7.773   6.401   2.942
71966SOL    HW117731   7.679   6.410   2.933
71966SOL    HW217732   7.805   6.490   2.959
71967SOL     OW17733  11.195   5.851  11.125
71967SOL    HW117734  11.217   5.759  11.110
71967SOL    HW217735  11.185   5.859  11.220
71968SOL     OW17736  14.635   5.292   5.391
71968SOL    HW117737  14.584   5.229   5.442
71968SOL    HW217738  14.718   5.248   5.374
71969SOL     OW17739  13.204   8.164  11.741
71969SOL    HW117740  13.181   8.111  11.817
71969SOL    HW217741  13.262   8.232  11.777
71970SOL     OW17742  14.173   1.560   9.390
71970SOL    HW117743  14.207   1.616   9.320
71970SOL    HW217744  14.219   1.477   9.380
71971SOL     OW17745   9.760   2.725  14.658
71971SOL    HW117746   9.822   2.785  14.616
71971SOL    HW217747   9.676   2.744  14.616
71972SOL     OW17748  12.655  11.558  13.018
71972SOL    HW117749  12.643  11.466  13.039
71972SOL    HW217750  12.634  11.604  13.100
71973SOL     OW17751   9.707   5.383   6.300
71973SOL    HW117752   9.689   5.467   6.342
71973SOL    HW217753   9.797   5.390   6.268
71974SOL     OW17754  12.320   6.974   9.729
71974SOL    HW117755  12.295   6.904   9.669
71974SOL    HW217756  12.401   6.943   9.770
71975SOL     OW17757  12.979   0.826  10.174
71975SOL    HW117758  12.990   0.845  10.267
71975SOL    HW217759  13.067   0.806  10.143
71976SOL     OW17760  10.140   3.300   2.080
71976SOL    HW117761  10.188   3.267   2.004
71976SOL    HW217762  10.130   3.394   2.062
71977SOL     OW17763   6.061  12.366   0.513
71977SOL    HW117764   5.965  12.370   0.513
71977SOL    HW217765   6.084  12.353   0.605
71978SOL     OW17766  14.398   8.048  13.193
71978SOL    HW117767  14.371   8.102  13.267
71978SOL    HW217768  14.485   8.079  13.171
71979SOL     OW17769   6.938  10.407   7.766
71979SOL    HW117770   6.958  10.329   7.818
71979SOL    HW217771   6.846  10.397   7.743
71980SOL     OW17772   4.430   3.731  13.249
71980SOL    HW117773   4.526   3.726  13.242
71980SOL    HW217774   4.412   3.821  13.276
71981SOL     OW17775   8.882   1.990   9.244
71981SOL    HW117776   8.907   1.972   9.334
71981SOL    HW217777   8.912   2.079   9.227
71982SOL     OW17778   0.856  10.979   7.117
71982SOL    HW117779   0.850  10.892   7.077
71982SOL    HW217780   0.766  11.006   7.129
71983SOL     OW17781  14.819  12.857   4.648
71983SOL    HW117782  14.862  12.775   4.669
71983SOL    HW217783   0.003  12.925   4.672
71984SOL     OW17784   0.127   0.435   2.350
71984SOL    HW117785   0.062   0.366   2.362
71984SOL    HW217786   0.081   0.516   2.372
71985SOL     OW17787   3.711   9.794   8.627
71985SOL    HW117788   3.777   9.840   8.575
71985SOL    HW217789   3.730   9.819   8.718
71986SOL     OW17790  10.668  11.875  13.921
71986SOL    HW117791  10.626  11.857  14.005
71986SOL    HW217792  10.755  11.908  13.945
71987SOL     OW17793   5.873   7.451   9.280
71987SOL    HW117794   5.895   7.481   9.192
71987SOL    HW217795   5.954   7.412   9.313
71988SOL     OW17796  12.964   8.174   7.501
71988SOL    HW117797  13.015   8.101   7.466
71988SOL    HW217798  13.012   8.202   7.579
71989SOL     OW17799  14.872  10.146  11.703
71989SOL    HW117800  14.830  10.229  11.728
71989SOL    HW217801   0.066  10.173  11.647
71990SOL     OW17802  12.741   8.850  13.960
71990SOL    HW117803  12.752   8.809  13.874
71990SOL    HW217804  12.692   8.786  14.012
71991SOL     OW17805   5.284  11.678  12.671
71991SOL    HW117806   5.220  11.728  12.618
71991SOL    HW217807   5.235  11.653  12.749
71992SOL     OW17808  11.145   8.790  13.669
71992SOL    HW117809  11.209   8.719  13.666
71992SOL    HW217810  11.118   8.795  13.761
71993SOL     OW17811   2.021   0.029   4.385
71993SOL    HW117812   1.934   0.038   4.423
71993SOL    HW217813   2.039   0.115   4.346
71994SOL     OW17814   5.991  10.797   7.088
71994SOL    HW117815   5.986  10.822   6.996
71994SOL    HW217816   6.070  10.839   7.121
71995SOL     OW17817   1.370   3.233  11.690
71995SOL    HW117818   1.343   3.317  11.727
71995SOL    HW217819   1.349   3.240  11.597
71996SOL     OW17820   6.725  10.260  11.463
71996SOL    HW117821   6.687  10.174  11.481
71996SOL    HW217822   6.811  10.257  11.506
71997SOL     OW17823   3.878   6.777  13.728
71997SOL    HW117824   3.959   6.748  13.686
71997SOL    HW217825   3.827   6.697  13.740
71998SOL     OW17826   3.950   3.973   2.694
71998SOL    HW117827   3.994   3.893   2.722
71998SOL    HW217828   3.891   3.944   2.624
71999SOL     OW17829   2.058   3.360   0.414
71999SOL    HW117830   2.119   3.415   0.367
71999SOL    HW217831   2.112   3.313   0.478
72000SOL     OW17832  14.536   2.791   6.603
72000SOL    HW117833  14.540   2.736   6.681
72000SOL    HW217834  14.575   2.737   6.534
72001SOL     OW17835   4.326   9.637   0.521
72001SOL    HW117836   4.319   9.641   0.426
72001SOL    HW217837   4.244   9.596   0.549
72002SOL     OW17838   6.035  12.873  11.818
72002SOL    HW117839   6.043  12.896  11.911
72002SOL    HW217840   5.948  12.905  11.793
72003SOL     OW17841  11.145   0.307   1.770
72003SOL    HW117842  11.213   0.361   1.729
72003SOL    HW217843  11.190   0.226   1.793
72004SOL     OW17844   5.442   6.227   4.910
72004SOL    HW117845   5.487   6.293   4.858
72004SOL    HW217846   5.368   6.273   4.949
72005SOL     OW17847   6.788   0.993   1.044
72005SOL    HW117848   6.862   0.966   0.990
72005SOL    HW217849   6.740   1.057   0.991
72006SOL     OW17850  12.885   6.385   6.657
72006SOL    HW117851  12.969   6.430   6.651
72006SOL    HW217852  12.864   6.360   6.567
72007SOL     OW17853  14.006  12.245  12.317
72007SOL    HW117854  14.020  12.152  12.331
72007SOL    HW217855  14.086  12.287  12.349
72008SOL     OW17856   7.811  11.408  13.592
72008SOL    HW117857   7.765  11.423  13.510
72008SOL    HW217858   7.904  11.416  13.569
72009SOL     OW17859   5.383   0.526   2.584
72009SOL    HW117860   5.360   0.587   2.654
72009SOL    HW217861   5.303   0.476   2.568
72010SOL     OW17862   8.823  12.797  12.873
72010SOL    HW117863   8.818  12.702  12.878
72010SOL    HW217864   8.732  12.825  12.858
72011SOL     OW17865   5.668   7.533   0.522
72011SOL    HW117866   5.603   7.584   0.473
72011SOL    HW217867   5.626   7.515   0.607
72012SOL     OW17868  13.855   8.029   4.320
72012SOL    HW117869  13.909   8.095   4.365
72012SOL    HW217870  13.767   8.067   4.319
72013SOL     OW17871  11.938   9.513   8.503
72013SOL    HW117872  11.917   9.577   8.435
72013SOL    HW217873  11.923   9.428   8.463
72014SOL     OW17874   4.650   4.734  11.957
72014SOL    HW117875   4.699   4.813  11.978
72014SOL    HW217876   4.607   4.710  12.039
72015SOL     OW17877   1.553   1.653   0.114
72015SOL    HW117878   1.556   1.648   0.210
72015SOL    HW217879   1.611   1.726   0.092
72016SOL     OW17880   7.480   4.303  12.921
72016SOL    HW117881   7.511   4.218  12.951
72016SOL    HW217882   7.491   4.301  12.826
72017SOL     OW17883   8.508   0.671   3.291
72017SOL    HW117884   8.497   0.728   3.215
72017SOL    HW217885   8.437   0.695   3.349
72018SOL     OW17886  13.200   6.193   4.839
72018SOL    HW117887  13.110   6.224   4.828
72018SOL    HW217888  13.193   6.122   4.902
72019SOL     OW17889  12.204   6.982   6.043
72019SOL    HW117890  12.129   6.938   6.083
72019SOL    HW217891  12.190   6.972   5.949
72020SOL     OW17892   4.272   6.472  10.892
72020SOL    HW117893   4.211   6.413  10.937
72020SOL    HW217894   4.358   6.448  10.926
72021SOL     OW17895  10.336   6.552   4.113
72021SOL    HW117896  10.419   6.506   4.100
72021SOL    HW217897  10.273   6.483   4.134
72022SOL     OW17898   8.519   5.113   2.574
72022SOL    HW117899   8.499   5.073   2.489
72022SOL    HW217900   8.444   5.089   2.629
72023SOL     OW17901   8.558  13.982   2.644
72023SOL    HW117902   8.577  13.989   2.737
72023SOL    HW217903   8.568  14.071   2.610
72024SOL     OW17904  14.151   9.679   0.726
72024SOL    HW117905  14.224   9.742   0.723
72024SOL    HW217906  14.171   9.625   0.803
72025SOL     OW17907   6.339   6.804   1.698
72025SOL    HW117908   6.376   6.837   1.780
72025SOL    HW217909   6.328   6.882   1.644
72026SOL     OW17910  11.784   2.414   5.312
72026SOL    HW117911  11.815   2.469   5.241
72026SOL    HW217912  11.847   2.342   5.316
72027SOL     OW17913   0.545  13.363   7.857
72027SOL    HW117914   0.579  13.398   7.939
72027SOL    HW217915   0.496  13.435   7.818
72028SOL     OW17916   5.131   2.848   9.827
72028SOL    HW117917   5.204   2.787   9.836
72028SOL    HW217918   5.161   2.912   9.762
72029SOL     OW17919  14.421  14.315   1.684
72029SOL    HW117920  14.442  14.352   1.599
72029SOL    HW217921  14.501  14.271   1.712
72030SOL     OW17922   8.366   8.363   7.492
72030SOL    HW117923   8.332   8.275   7.475
72030SOL    HW217924   8.290   8.420   7.482
72031SOL     OW17925   5.461  10.197   5.091
72031SOL    HW117926   5.537  10.141   5.109
72031SOL    HW217927   5.490  10.254   5.020
72032SOL     OW17928  10.981   3.272   7.391
72032SOL    HW117929  10.943   3.218   7.322
72032SOL    HW217930  10.925   3.257   7.467
72033SOL     OW17931   1.536   9.576   8.755
72033SOL    HW117932   1.547   9.646   8.820
72033SOL    HW217933   1.580   9.609   8.677
72034SOL     OW17934  11.376  14.566  11.272
72034SOL    HW117935  11.469  14.563  11.293
72034SOL    HW217936  11.342  14.482  11.302
72035SOL     OW17937  13.934  14.010   6.956
72035SOL    HW117938  14.008  14.044   6.906
72035SOL    HW217939  13.975  13.959   7.026
72036SOL     OW17940   4.500   0.272  14.724
72036SOL    HW117941   4.417   0.254  14.681
72036SOL    HW217942   4.537   0.186  14.742
72037SOL     OW17943   5.376   8.947  11.621
72037SOL    HW117944   5.320   9.025  11.623
72037SOL    HW217945   5.359   8.904  11.704
72038SOL     OW17946  14.150   3.109   9.653
72038SOL    HW117947  14.209   3.156   9.593
72038SOL    HW217948  14.208   3.054   9.705
72039SOL     OW17949   3.844   7.830   9.417
72039SOL    HW117950   3.765   7.777   9.426
72039SOL    HW217951   3.875   7.815   9.328
72040SOL     OW17952   9.756   8.926   7.863
72040SOL    HW117953   9.841   8.969   7.873
72040SOL    HW217954   9.742   8.921   7.769
72041SOL     OW17955   5.424  13.522   7.093
72041SOL    HW117956   5.496  13.482   7.143
72041SOL    HW217957   5.415  13.609   7.130
72042SOL     OW17958  11.114  13.900   2.080
72042SOL    HW117959  11.176  13.962   2.117
72042SOL    HW217960  11.165  13.821   2.062
72043SOL     OW17961   8.971   2.106  10.142
72043SOL    HW117962   8.937   2.132  10.228
72043SOL    HW217963   9.039   2.041  10.162
72044SOL     OW17964   7.578   5.248  13.948
72044SOL    HW117965   7.517   5.300  14.000
72044SOL    HW217966   7.626   5.312  13.895
72045SOL     OW17967  14.610   5.813   9.340
72045SOL    HW117968  14.659   5.894   9.356
72045SOL    HW217969  14.665   5.744   9.378
72046SOL     OW17970   5.190   0.045   0.720
72046SOL    HW117971   5.166  14.844   0.674
72046SOL    HW217972   5.275   0.069   0.683
72047SOL     OW17973  12.385   4.703  13.514
72047SOL    HW117974  12.299   4.670  13.541
72047SOL    HW217975  12.419   4.636  13.455
72048SOL     OW17976   8.373  13.889   7.258
72048SOL    HW117977   8.373  13.860   7.167
72048SOL    HW217978   8.301  13.952   7.264
72049SOL     OW17979   3.595   8.176  13.616
72049SOL    HW117980   3.656   8.241  13.649
72049SOL    HW217981   3.606   8.179  13.521
72050SOL     OW17982   1.936   9.884   7.552
72050SOL    HW117983   1.925   9.882   7.648
72050SOL    HW217984   2.027   9.911   7.539
72051SOL     OW17985   1.961  14.457   8.479
72051SOL    HW117986   1.938  14.471   8.571
72051SOL    HW217987   1.893  14.504   8.430
72052SOL     OW17988   1.369   7.506   0.981
72052SOL    HW117989   1.365   7.594   0.942
72052SOL    HW217990   1.280   7.491   1.015
72053SOL     OW17991   5.931  10.262  12.833
72053SOL    HW117992   5.881  10.198  12.883
72053SOL    HW217993   5.924  10.233  12.742
72054SOL     OW17994  12.855  11.216   8.744
72054SOL    HW117995  12.782  11.273   8.718
72054SOL    HW217996  12.903  11.201   8.662
72055SOL     OW17997   9.905  11.607   0.855
72055SOL    HW117998   9.948  11.529   0.820
72055SOL    HW217999   9.972  11.648   0.910
72056SOL     OW18000  14.831   8.466   7.035
72056SOL    HW118001  14.827   8.544   7.091
72056SOL    HW218002  14.848   8.394   7.096
72057SOL     OW18003   7.955   1.034   6.531
72057SOL    HW118004   7.868   1.051   6.497
72057SOL    HW218005   7.986   1.119   6.562
72058SOL     OW18006   6.597   2.444   7.305
72058SOL    HW118007   6.509   2.406   7.312
72058SOL    HW218008   6.628   2.418   7.219
72059SOL     OW18009   6.078   4.210  13.073
72059SOL    HW118010   6.044   4.187  13.159
72059SOL    HW218011   6.167   4.175  13.072
72060SOL     OW18012  12.863   2.266   3.164
72060SOL    HW118013  12.820   2.204   3.106
72060SOL    HW218014  12.809   2.268   3.243
72061SOL     OW18015  11.637   8.262  12.425
72061SOL    HW118016  11.564   8.288  12.482
72061SOL    HW218017  11.636   8.166  12.427
72062SOL     OW18018   0.096  13.847  14.756
72062SOL    HW118019   0.111  13.935  14.722
72062SOL    HW218020   0.029  13.809  14.699
72063SOL     OW18021   3.890   5.622   9.024
72063SOL    HW118022   3.957   5.554   9.029
72063SOL    HW218023   3.808   5.574   9.016
72064SOL     OW18024  12.078   6.791   7.818
72064SOL    HW118025  12.020   6.756   7.750
72064SOL    HW218026  12.059   6.884   7.821
72065SOL     OW18027   3.364   7.392   8.142
72065SOL    HW118028   3.385   7.314   8.090
72065SOL    HW218029   3.342   7.459   8.077
72066SOL     OW18030  13.755   8.638   3.053
72066SOL    HW118031  13.729   8.704   3.118
72066SOL    HW218032  13.817   8.684   2.996
72067SOL     OW18033  13.906   6.712   2.504
72067SOL    HW118034  13.861   6.787   2.463
72067SOL    HW218035  13.890   6.640   2.444
72068SOL     OW18036   0.584   8.630   6.982
72068SOL    HW118037   0.519   8.618   7.052
72068SOL    HW218038   0.556   8.710   6.937
72069SOL     OW18039   2.590   6.423  12.638
72069SOL    HW118040   2.508   6.387  12.605
72069SOL    HW218041   2.623   6.477  12.567
72070SOL     OW18042   9.641   4.013   1.142
72070SOL    HW118043   9.705   4.037   1.209
72070SOL    HW218044   9.622   3.921   1.160
72071SOL     OW18045  11.570   3.863   9.066
72071SOL    HW118046  11.620   3.887   9.144
72071SOL    HW218047  11.632   3.816   9.010
72072SOL     OW18048   7.281   6.536   4.777
72072SOL    HW118049   7.301   6.446   4.803
72072SOL    HW218050   7.351   6.588   4.816
72073SOL     OW18051   8.038   0.179   4.545
72073SOL    HW118052   8.014   0.135   4.627
72073SOL    HW218053   8.105   0.242   4.571
72074SOL     OW18054   2.834  13.054   4.687
72074SOL    HW118055   2.928  13.055   4.703
72074SOL    HW218056   2.803  13.137   4.721
72075SOL     OW18057   8.697  12.679   3.834
72075SOL    HW118058   8.721  12.643   3.748
72075SOL    HW218059   8.743  12.623   3.897
72076SOL     OW18060   7.459  11.497   2.749
72076SOL    HW118061   7.536  11.447   2.775
72076SOL    HW218062   7.396  11.431   2.720
72077SOL     OW18063   8.419  11.235   1.378
72077SOL    HW118064   8.468  11.156   1.357
72077SOL    HW218065   8.486  11.303   1.388
72078SOL     OW18066  14.339   6.331   7.055
72078SOL    HW118067  14.400   6.259   7.069
72078SOL    HW218068  14.256   6.288   7.036
72079SOL     OW18069  14.849   0.964   7.157
72079SOL    HW118070   0.044   0.928   7.208
72079SOL    HW218071  14.823   1.042   7.207
72080SOL     OW18072   8.012   2.162   4.478
72080SOL    HW118073   7.942   2.101   4.498
72080SOL    HW218074   8.082   2.140   4.540
72081SOL     OW18075   8.366   1.239   5.537
72081SOL    HW118076   8.314   1.302   5.486
72081SOL    HW218077   8.309   1.162   5.544
72082SOL     OW18078   9.698   0.730   4.026
72082SOL    HW118079   9.702   0.669   4.100
72082SOL    HW218080   9.633   0.796   4.054
72083SOL     OW18081   2.523   7.588   1.243
72083SOL    HW118082   2.492   7.679   1.237
72083SOL    HW218083   2.542   7.575   1.336
72084SOL     OW18084  14.806   3.526   4.144
72084SOL    HW118085  14.767   3.549   4.228
72084SOL    HW218086   0.019   3.508   4.164
72085SOL     OW18087  11.993   3.186   1.279
72085SOL    HW118088  12.026   3.272   1.252
72085SOL    HW218089  11.936   3.160   1.207
72086SOL     OW18090   1.813   5.873   4.968
72086SOL    HW118091   1.866   5.880   4.889
72086SOL    HW218092   1.852   5.935   5.029
72087SOL     OW18093   0.222   2.444  12.484
72087SOL    HW118094   0.286   2.378  12.456
72087SOL    HW218095   0.273   2.524  12.494
72088SOL     OW18096   2.928   2.581   8.979
72088SOL    HW118097   2.871   2.505   8.974
72088SOL    HW218098   2.875   2.649   9.020
72089SOL     OW18099  10.932  12.692  13.518
72089SOL    HW118100  10.994  12.730  13.456
72089SOL    HW218101  10.913  12.605  13.483
72090SOL     OW18102   3.638   1.152   7.324
72090SOL    HW118103   3.602   1.067   7.300
72090SOL    HW218104   3.597   1.213   7.262
72091SOL     OW18105   0.039   5.948  12.899
72091SOL    HW118106   0.122   5.906  12.919
72091SOL    HW218107   0.061   6.039  12.881
72092SOL     OW18108   3.630  13.000   5.816
72092SOL    HW118109   3.702  12.998   5.879
72092SOL    HW218110   3.551  12.988   5.869
72093SOL     OW18111   1.859   7.134   1.227
72093SOL    HW118112   1.860   7.041   1.254
72093SOL    HW218113   1.843   7.182   1.308
72094SOL     OW18114   1.992   3.626   6.260
72094SOL    HW118115   1.999   3.720   6.244
72094SOL    HW218116   2.061   3.607   6.323
72095SOL     OW18117  12.181  11.776   9.484
72095SOL    HW118118  12.100  11.798   9.438
72095SOL    HW218119  12.248  11.831   9.442
72096SOL     OW18120  10.538   7.499   1.163
72096SOL    HW118121  10.536   7.477   1.256
72096SOL    HW218122  10.451   7.474   1.131
72097SOL     OW18123   9.996   9.912  14.655
72097SOL    HW118124  10.080   9.914  14.609
72097SOL    HW218125   9.969  10.004  14.660
72098SOL     OW18126   8.949   4.446  10.341
72098SOL    HW118127   8.948   4.434  10.246
72098SOL    HW218128   9.028   4.496  10.359
72099SOL     OW18129   7.527   9.512   1.863
72099SOL    HW118130   7.592   9.518   1.933
72099SOL    HW218131   7.558   9.440   1.808
72100SOL     OW18132   7.621   9.473  12.892
72100SOL    HW118133   7.636   9.562  12.860
72100SOL    HW218134   7.661   9.416  12.826
72101SOL     OW18135   1.635   6.068   2.890
72101SOL    HW118136   1.721   6.026   2.897
72101SOL    HW218137   1.588   6.038   2.969
72102SOL     OW18138   1.508  12.152   8.245
72102SOL    HW118139   1.454  12.203   8.185
72102SOL    HW218140   1.598  12.171   8.219
72103SOL     OW18141   0.221   5.479  14.836
72103SOL    HW118142   0.311   5.505  14.816
72103SOL    HW218143   0.189   5.435  14.757
72104SOL     OW18144   4.181  11.735  11.368
72104SOL    HW118145   4.253  11.690  11.413
72104SOL    HW218146   4.187  11.704  11.278
72105SOL     OW18147  11.370   0.245   4.580
72105SOL    HW118148  11.341   0.164   4.540
72105SOL    HW218149  11.403   0.219   4.667
72106SOL     OW18150   6.521   9.591   2.147
72106SOL    HW118151   6.573   9.566   2.070
72106SOL    HW218152   6.495   9.507   2.186
72107SOL     OW18153   2.284   1.851   4.521
72107SOL    HW118154   2.310   1.873   4.432
72107SOL    HW218155   2.362   1.815   4.561
72108SOL     OW18156   1.906  14.518   1.507
72108SOL    HW118157   1.899  14.591   1.568
72108SOL    HW218158   1.963  14.551   1.437
72109SOL     OW18159   9.418   2.914   2.951
72109SOL    HW118160   9.469   2.923   2.871
72109SOL    HW218161   9.427   2.822   2.976
72110SOL     OW18162  12.479   1.088  12.248
72110SOL    HW118163  12.446   1.008  12.207
72110SOL    HW218164  12.459   1.157  12.185
72111SOL     OW18165   6.925  14.602   6.358
72111SOL    HW118166   6.944  14.648   6.440
72111SOL    HW218167   6.830  14.607   6.350
72112SOL     OW18168   5.197   6.683   9.755
72112SOL    HW118169   5.172   6.590   9.755
72112SOL    HW218170   5.185   6.711   9.846
72113SOL     OW18171   8.892   0.393   8.562
72113SOL    HW118172   8.960   0.326   8.570
72113SOL    HW218173   8.863   0.388   8.470
72114SOL     OW18174  11.453   8.607   6.577
72114SOL    HW118175  11.363   8.581   6.553
72114SOL    HW218176  11.509   8.552   6.522
72115SOL     OW18177   9.608   8.818   9.321
72115SOL    HW118178   9.569   8.742   9.365
72115SOL    HW218179   9.556   8.892   9.351
72116SOL     OW18180   0.733   3.535   2.252
72116SOL    HW118181   0.766   3.596   2.318
72116SOL    HW218182   0.656   3.496   2.291
72117SOL     OW18183   9.320   5.102   5.264
72117SOL    HW118184   9.316   5.073   5.355
72117SOL    HW218185   9.407   5.142   5.255
72118SOL     OW18186   2.896   7.634   6.323
72118SOL    HW118187   2.943   7.607   6.401
72118SOL    HW218188   2.822   7.574   6.316
72119SOL     OW18189   6.247   5.718   7.081
72119SOL    HW118190   6.221   5.798   7.125
72119SOL    HW218191   6.343   5.724   7.075
72120SOL     OW18192  14.853   1.795   2.205
72120SOL    HW118193  14.853   1.784   2.300
72120SOL    HW218194   0.026   1.721   2.173
72121SOL     OW18195   2.437   6.251  13.442
72121SOL    HW118196   2.410   6.282  13.355
72121SOL    HW218197   2.532   6.243  13.436
72122SOL     OW18198  12.114   6.355   2.292
72122SOL    HW118199  12.197   6.397   2.269
72122SOL    HW218200  12.138   6.265   2.312
72123SOL     OW18201  12.201   9.634   5.797
72123SOL    HW118202  12.120   9.637   5.848
72123SOL    HW218203  12.212   9.541   5.776
72124SOL     OW18204   7.986  14.298   5.658
72124SOL    HW118205   7.892  14.282   5.655
72124SOL    HW218206   7.997  14.359   5.731
72125SOL     OW18207   2.493   9.289  14.728
72125SOL    HW118208   2.417   9.295  14.671
72125SOL    HW218209   2.559   9.344  14.687
72126SOL     OW18210  12.631  13.485   6.537
72126SOL    HW118211  12.622  13.410   6.477
72126SOL    HW218212  12.563  13.546   6.509
72127SOL     OW18213   4.282   4.915  10.754
72127SOL    HW118214   4.366   4.872  10.742
72127SOL    HW218215   4.218   4.855  10.715
72128SOL     OW18216   1.310  10.275  12.984
72128SOL    HW118217   1.311  10.367  13.011
72128SOL    HW218218   1.363  10.273  12.905
72129SOL     OW18219   9.341   4.497   3.374
72129SOL    HW118220   9.317   4.503   3.282
72129SOL    HW218221   9.358   4.404   3.389
72130SOL     OW18222   1.733  13.027  14.720
72130SOL    HW118223   1.794  13.099  14.705
72130SOL    HW218224   1.669  13.034  14.649
72131SOL     OW18225   8.754   2.021  13.921
72131SOL    HW118226   8.785   2.048  13.834
72131SOL    HW218227   8.659   2.021  13.913
72132SOL     OW18228  14.025  14.214   6.182
72132SOL    HW118229  14.115  14.228   6.210
72132SOL    HW218230  14.028  14.138   6.124
72133SOL     OW18231  10.704   9.165   8.256
72133SOL    HW118232  10.708   9.091   8.315
72133SOL    HW218233  10.782   9.217   8.276
72134SOL     OW18234   5.310   3.750  12.755
72134SOL    HW118235   5.334   3.689  12.685
72134SOL    HW218236   5.232   3.711  12.794
72135SOL     OW18237   7.100   7.671   4.420
72135SOL    HW118238   7.031   7.656   4.484
72135SOL    HW218239   7.128   7.762   4.436
72136SOL     OW18240   5.813   8.437  12.999
72136SOL    HW118241   5.811   8.495  12.922
72136SOL    HW218242   5.848   8.354  12.966
72137SOL     OW18243   0.707   9.601   5.796
72137SOL    HW118244   0.725   9.691   5.820
72137SOL    HW218245   0.704   9.601   5.700
72138SOL     OW18246   2.179   2.009  11.744
72138SOL    HW118247   2.112   2.067  11.780
72138SOL    HW218248   2.249   2.067  11.716
72139SOL     OW18249   0.317   6.256  10.765
72139SOL    HW118250   0.395   6.234  10.713
72139SOL    HW218251   0.351   6.271  10.853
72140SOL     OW18252   6.228   3.705   9.936
72140SOL    HW118253   6.304   3.758   9.959
72140SOL    HW218254   6.156   3.768   9.932
72141SOL     OW18255   4.351   6.602   5.175
72141SOL    HW118256   4.423   6.647   5.131
72141SOL    HW218257   4.279   6.665   5.175
72142SOL     OW18258   9.356  13.094   7.051
72142SOL    HW118259   9.402  13.072   7.132
72142SOL    HW218260   9.291  13.024   7.041
72143SOL     OW18261   8.192  10.334  11.587
72143SOL    HW118262   8.220  10.281  11.661
72143SOL    HW218263   8.135  10.276  11.536
72144SOL     OW18264   7.163  10.447  12.658
72144SOL    HW118265   7.128  10.359  12.644
72144SOL    HW218266   7.085  10.503  12.663
72145SOL     OW18267   7.305   0.493  11.823
72145SOL    HW118268   7.231   0.443  11.858
72145SOL    HW218269   7.380   0.434  11.828
72146SOL     OW18270   4.326  13.455  14.278
72146SOL    HW118271   4.399  13.485  14.224
72146SOL    HW218272   4.299  13.372  14.237
72147SOL     OW18273   6.974  14.177  10.113
72147SOL    HW118274   7.037  14.131  10.167
72147SOL    HW218275   7.003  14.161  10.023
72148SOL     OW18276  12.210   1.186   3.337
72148SOL    HW118277  12.246   1.274   3.329
72148SOL    HW218278  12.182   1.163   3.249
72149SOL     OW18279   4.472   3.893  13.756
72149SOL    HW118280   4.518   3.819  13.715
72149SOL    HW218281   4.525   3.970  13.732
72150SOL     OW18282   5.480   6.735  10.810
72150SOL    HW118283   5.537   6.670  10.769
72150SOL    HW218284   5.397   6.727  10.763
72151SOL     OW18285   7.034   3.710  10.722
72151SOL    HW118286   7.026   3.805  10.712
72151SOL    HW218287   7.067   3.681  10.637
72152SOL     OW18288   7.122   7.596  10.639
72152SOL    HW118289   7.199   7.624  10.689
72152SOL    HW218290   7.065   7.555  10.705
72153SOL     OW18291  13.611  13.086  14.031
72153SOL    HW118292  13.618  13.030  14.108
72153SOL    HW218293  13.702  13.108  14.009
72154SOL     OW18294   7.505   6.118  12.077
72154SOL    HW118295   7.552   6.035  12.079
72154SOL    HW218296   7.460   6.119  11.992
72155SOL     OW18297   1.271   6.000   5.878
72155SOL    HW118298   1.195   6.048   5.846
72155SOL    HW218299   1.268   6.012   5.973
72156SOL     OW18300   4.994  13.804  13.003
72156SOL    HW118301   5.014  13.758  13.085
72156SOL    HW218302   4.994  13.736  12.936
72157SOL     OW18303   2.313  10.461  14.605
72157SOL    HW118304   2.302  10.433  14.696
72157SOL    HW218305   2.236  10.427  14.560
72158SOL     OW18306  14.536  11.926   5.380
72158SOL    HW118307  14.442  11.937   5.371
72158SOL    HW218308  14.552  11.835   5.355
72159SOL     OW18309   3.926  10.259  11.680
72159SOL    HW118310   3.997  10.257  11.744
72159SOL    HW218311   3.847  10.265  11.734
72160SOL     OW18312  13.647   6.661   9.708
72160SOL    HW118313  13.714   6.687   9.645
72160SOL    HW218314  13.609   6.744   9.737
72161SOL     OW18315   6.131   7.164   2.806
72161SOL    HW118316   6.066   7.096   2.818
72161SOL    HW218317   6.215   7.121   2.825
72162SOL     OW18318   2.459  14.641  10.376
72162SOL    HW118319   2.554  14.643  10.391
72162SOL    HW218320   2.435  14.734  10.368
72163SOL     OW18321   8.881   9.167  10.819
72163SOL    HW118322   8.946   9.210  10.875
72163SOL    HW218323   8.835   9.240  10.776
72164SOL     OW18324  14.827  10.628   0.259
72164SOL    HW118325  14.766  10.674   0.317
72164SOL    HW218326  14.806  10.661   0.171
72165SOL     OW18327   9.234   9.366   2.284
72165SOL    HW118328   9.212   9.307   2.355
72165SOL    HW218329   9.294   9.316   2.229
72166SOL     OW18330  11.672   7.191   4.754
72166SOL    HW118331  11.721   7.253   4.700
72166SOL    HW218332  11.587   7.232   4.769
72167SOL     OW18333   9.060  11.791  11.001
72167SOL    HW118334   8.987  11.771  10.943
72167SOL    HW218335   9.030  11.766  11.088
72168SOL     OW18336  13.506  11.816   9.488
72168SOL    HW118337  13.537  11.884   9.548
72168SOL    HW218338  13.514  11.855   9.401
72169SOL     OW18339  13.140   5.088  14.681
72169SOL    HW118340  13.093   5.085  14.765
72169SOL    HW218341  13.103   5.015  14.631
72170SOL     OW18342  11.719  11.972   4.370
72170SOL    HW118343  11.651  11.905   4.364
72170SOL    HW218344  11.671  12.054   4.380
72171SOL     OW18345   8.537   9.250  13.028
72171SOL    HW118346   8.507   9.340  13.015
72171SOL    HW218347   8.565   9.247  13.119
72172SOL     OW18348   7.227   0.423   2.878
72172SOL    HW118349   7.281   0.367   2.933
72172SOL    HW218350   7.163   0.363   2.839
72173SOL     OW18351   5.287   4.399   1.125
72173SOL    HW118352   5.261   4.347   1.201
72173SOL    HW218353   5.381   4.385   1.118
72174SOL     OW18354   6.869   0.774   0.353
72174SOL    HW118355   6.814   0.703   0.320
72174SOL    HW218356   6.947   0.730   0.388
72175SOL     OW18357  11.710  12.349   5.175
72175SOL    HW118358  11.661  12.341   5.257
72175SOL    HW218359  11.647  12.385   5.113
72176SOL     OW18360   5.872   0.862   9.332
72176SOL    HW118361   5.812   0.838   9.261
72176SOL    HW218362   5.922   0.935   9.297
72177SOL     OW18363   2.766   2.562  11.066
72177SOL    HW118364   2.858   2.558  11.038
72177SOL    HW218365   2.736   2.648  11.039
72178SOL     OW18366  11.901  14.105  11.384
72178SOL    HW118367  11.882  14.012  11.394
72178SOL    HW218368  11.996  14.113  11.397
72179SOL     OW18369  12.838  14.594   8.861
72179SOL    HW118370  12.831  14.512   8.911
72179SOL    HW218371  12.905  14.644   8.908
72180SOL     OW18372   7.361   6.127   7.161
72180SOL    HW118373   7.449   6.154   7.189
72180SOL    HW218374   7.304   6.149   7.235
72181SOL     OW18375   4.630   1.388   5.153
72181SOL    HW118376   4.582   1.369   5.234
72181SOL    HW218377   4.562   1.414   5.090
72182SOL     OW18378   3.628   8.733  14.014
72182SOL    HW118379   3.613   8.638  14.016
72182SOL    HW218380   3.543   8.770  13.989
72183SOL     OW18381   9.696  12.796  14.502
72183SOL    HW118382   9.685  12.859  14.431
72183SOL    HW218383   9.607  12.775  14.529
72184SOL     OW18384  14.311  13.978  12.626
72184SOL    HW118385  14.348  14.066  12.631
72184SOL    HW218386  14.285  13.968  12.535
72185SOL     OW18387  11.051   4.113   6.440
72185SOL    HW118388  11.123   4.168   6.410
72185SOL    HW218389  10.974   4.169   6.437
72186SOL     OW18390  14.790   5.341   1.645
72186SOL    HW118391  14.791   5.435   1.662
72186SOL    HW218392  14.776   5.334   1.551
72187SOL     OW18393  14.617  12.547   7.700
72187SOL    HW118394  14.643  12.622   7.645
72187SOL    HW218395  14.522  12.546   7.696
72188SOL     OW18396   7.331   5.120   7.305
72188SOL    HW118397   7.403   5.153   7.251
72188SOL    HW218398   7.262   5.099   7.243
72189SOL     OW18399  14.827   8.727   5.689
72189SOL    HW118400  14.796   8.656   5.632
72189SOL    HW218401   0.031   8.754   5.650
72190SOL     OW18402   1.945   4.528   2.006
72190SOL    HW118403   1.976   4.457   2.061
72190SOL    HW218404   2.018   4.591   2.006
72191SOL     OW18405   6.233   0.726   7.342
72191SOL    HW118406   6.284   0.723   7.423
72191SOL    HW218407   6.189   0.641   7.338
72192SOL     OW18408  12.105   9.683   4.816
72192SOL    HW118409  12.095   9.653   4.726
72192SOL    HW218410  12.017   9.677   4.853
72193SOL     OW18411   3.030   8.819   6.337
72193SOL    HW118412   3.061   8.821   6.247
72193SOL    HW218413   2.996   8.730   6.349
72194SOL     OW18414  10.335  13.110  10.892
72194SOL    HW118415  10.342  13.202  10.917
72194SOL    HW218416  10.425  13.085  10.868
72195SOL     OW18417   0.539  12.292   0.435
72195SOL    HW118418   0.633  12.311   0.431
72195SOL    HW218419   0.499  12.372   0.467
72196SOL     OW18420   9.374  12.232   2.525
72196SOL    HW118421   9.293  12.194   2.559
72196SOL    HW218422   9.441  12.167   2.545
72197SOL     OW18423   1.303  10.262   3.945
72197SOL    HW118424   1.214  10.292   3.927
72197SOL    HW218425   1.352  10.343   3.962
72198SOL     OW18426  14.454   7.237   8.979
72198SOL    HW118427  14.433   7.155   9.023
72198SOL    HW218428  14.550   7.237   8.973
72199SOL     OW18429   5.665   6.266   9.081
72199SOL    HW118430   5.758   6.279   9.099
72199SOL    HW218431   5.654   6.297   8.991
72200SOL     OW18432   2.180   8.851  13.808
72200SOL    HW118433   2.117   8.802  13.860
72200SOL    HW218434   2.263   8.840  13.854
72201SOL     OW18435  11.455   5.875   2.917
72201SOL    HW118436  11.433   5.818   2.991
72201SOL    HW218437  11.543   5.908   2.938
72202SOL     OW18438   0.834  14.716   1.410
72202SOL    HW118439   0.791  14.778   1.351
72202SOL    HW218440   0.762  14.669   1.453
72203SOL     OW18441   7.439   1.723  12.388
72203SOL    HW118442   7.414   1.803  12.434
72203SOL    HW218443   7.534   1.731  12.375
72204SOL     OW18444   4.144   3.227  14.095
72204SOL    HW118445   4.117   3.209  14.185
72204SOL    HW218446   4.065   3.213  14.043
72205SOL     OW18447  13.404   1.150   8.003
72205SOL    HW118448  13.332   1.162   8.064
72205SOL    HW218449  13.388   1.064   7.964
72206SOL     OW18450  12.296  13.248   2.021
72206SOL    HW118451  12.266  13.298   1.945
72206SOL    HW218452  12.259  13.161   2.009
72207SOL     OW18453   0.933   3.407  11.805
72207SOL    HW118454   0.966   3.322  11.835
72207SOL    HW218455   0.912   3.454  11.886
72208SOL     OW18456   7.417   7.976   2.241
72208SOL    HW118457   7.365   8.023   2.176
72208SOL    HW218458   7.358   7.964   2.315
72209SOL     OW18459   8.363   7.068   5.831
72209SOL    HW118460   8.312   7.030   5.902
72209SOL    HW218461   8.391   7.153   5.865
72210SOL     OW18462   7.199   9.058   5.130
72210SOL    HW118463   7.156   9.039   5.214
72210SOL    HW218464   7.147   9.011   5.065
72211SOL     OW18465  11.601  12.481  11.792
72211SOL    HW118466  11.507  12.468  11.807
72211SOL    HW218467  11.634  12.393  11.772
72212SOL     OW18468   3.464   4.216  13.100
72212SOL    HW118469   3.518   4.295  13.103
72212SOL    HW218470   3.512   4.152  13.154
72213SOL     OW18471   0.366   5.166   9.410
72213SOL    HW118472   0.346   5.227   9.340
72213SOL    HW218473   0.443   5.202   9.453
72214SOL     OW18474   3.818   0.429  10.050
72214SOL    HW118475   3.907   0.445  10.079
72214SOL    HW218476   3.785   0.515  10.023
72215SOL     OW18477   1.375   4.346   8.759
72215SOL    HW118478   1.410   4.283   8.696
72215SOL    HW218479   1.337   4.292   8.828
72216SOL     OW18480  12.149   3.737  14.284
72216SOL    HW118481  12.072   3.684  14.307
72216SOL    HW218482  12.193   3.686  14.216
72217SOL     OW18483   4.357   1.936  12.922
72217SOL    HW118484   4.334   1.927  12.830
72217SOL    HW218485   4.449   1.962  12.923
72218SOL     OW18486   9.022  13.447  13.557
72218SOL    HW118487   9.034  13.368  13.504
72218SOL    HW218488   9.003  13.516  13.493
72219SOL     OW18489  13.927   5.592   5.924
72219SOL    HW118490  13.851   5.535   5.914
72219SOL    HW218491  14.001   5.538   5.896
72220SOL     OW18492  10.518   3.835   5.555
72220SOL    HW118493  10.594   3.818   5.499
72220SOL    HW218494  10.443   3.830   5.495
72221SOL     OW18495   7.109   9.317   1.640
72221SOL    HW118496   7.125   9.223   1.643
72221SOL    HW218497   7.119   9.340   1.548
72222SOL     OW18498   9.392   3.801   3.928
72222SOL    HW118499   9.441   3.741   3.984
72222SOL    HW218500   9.455   3.830   3.862
72223SOL     OW18501   5.963   9.389   9.052
72223SOL    HW118502   6.010   9.441   9.117
72223SOL    HW218503   6.018   9.392   8.974
72224SOL     OW18504   2.358  11.730   1.987
72224SOL    HW118505   2.301  11.664   1.947
72224SOL    HW218506   2.438  11.682   2.010
72225SOL     OW18507  13.851   0.494   2.551
72225SOL    HW118508  13.833   0.543   2.471
72225SOL    HW218509  13.943   0.469   2.543
72226SOL     OW18510   0.457  12.330  10.508
72226SOL    HW118511   0.517  12.310  10.435
72226SOL    HW218512   0.371  12.338  10.467
72227SOL     OW18513   4.660  10.869   4.860
72227SOL    HW118514   4.657  10.953   4.907
72227SOL    HW218515   4.572  10.858   4.825
72228SOL     OW18516  12.157   0.680   9.329
72228SOL    HW118517  12.151   0.595   9.373
72228SOL    HW218518  12.077   0.726   9.355
72229SOL     OW18519   3.144   0.910   6.254
72229SOL    HW118520   3.182   0.845   6.313
72229SOL    HW218521   3.069   0.945   6.303
72230SOL     OW18522   3.807  10.636  14.141
72230SOL    HW118523   3.888  10.593  14.114
72230SOL    HW218524   3.833  10.695  14.212
72231SOL     OW18525   3.755   0.173   6.228
72231SOL    HW118526   3.677   0.229   6.232
72231SOL    HW218527   3.776   0.156   6.320
72232SOL     OW18528   1.069   6.097   3.592
72232SOL    HW118529   1.072   6.015   3.543
72232SOL    HW218530   1.155   6.137   3.576
72233SOL     OW18531   4.900   4.752   8.690
72233SOL    HW118532   4.971   4.743   8.625
72233SOL    HW218533   4.942   4.730   8.773
72234SOL     OW18534   3.223   9.569  10.878
72234SOL    HW118535   3.179   9.505  10.822
72234SOL    HW218536   3.152   9.621  10.916
72235SOL     OW18537   1.408  14.073   1.010
72235SOL    HW118538   1.360  13.991   1.021
72235SOL    HW218539   1.352  14.128   0.955
72236SOL     OW18540   9.806   3.243   6.947
72236SOL    HW118541   9.861   3.185   6.894
72236SOL    HW218542   9.866   3.311   6.977
72237SOL     OW18543  12.326   0.335   8.534
72237SOL    HW118544  12.243   0.383   8.529
72237SOL    HW218545  12.344   0.311   8.443
72238SOL     OW18546   6.205  12.205   2.843
72238SOL    HW118547   6.230  12.296   2.827
72238SOL    HW218548   6.110  12.208   2.854
72239SOL     OW18549  13.678   2.407  11.000
72239SOL    HW118550  13.692   2.502  11.003
72239SOL    HW218551  13.653   2.383  11.089
72240SOL     OW18552  13.924   9.543   2.380
72240SOL    HW118553  13.989   9.495   2.431
72240SOL    HW218554  13.902   9.483   2.308
72241SOL     OW18555   3.706   4.434   7.399
72241SOL    HW118556   3.693   4.360   7.459
72241SOL    HW218557   3.651   4.504   7.436
72242SOL     OW18558  13.590   7.257  13.502
72242SOL    HW118559  13.507   7.216  13.526
72242SOL    HW218560  13.570   7.351  13.498
72243SOL     OW18561  13.478   2.467  10.783
72243SOL    HW118562  13.516   2.553  10.766
72243SOL    HW218563  13.547   2.419  10.828
72244SOL     OW18564   1.245   6.411  10.140
72244SOL    HW118565   1.240   6.426  10.046
72244SOL    HW218566   1.178   6.345  10.158
72245SOL     OW18567   5.405   0.316   3.454
72245SOL    HW118568   5.319   0.358   3.456
72245SOL    HW218569   5.395   0.242   3.393
72246SOL     OW18570   8.695   9.732   5.833
72246SOL    HW118571   8.643   9.740   5.913
72246SOL    HW218572   8.705   9.822   5.802
72247SOL     OW18573   3.933   7.194   2.824
72247SOL    HW118574   3.985   7.151   2.756
72247SOL    HW218575   3.874   7.253   2.775
72248SOL     OW18576   1.893   1.283  14.263
72248SOL    HW118577   1.930   1.275  14.351
72248SOL    HW218578   1.860   1.195  14.243
72249SOL     OW18579   4.746  11.155   5.916
72249SOL    HW118580   4.764  11.246   5.941
72249SOL    HW218581   4.655  11.141   5.940
72250SOL     OW18582  12.148   2.430   9.726
72250SOL    HW118583  12.209   2.376   9.675
72250SOL    HW218584  12.180   2.520   9.713
72251SOL     OW18585   9.008  12.886   0.528
72251SOL    HW118586   9.009  12.812   0.468
72251SOL    HW218587   8.946  12.861   0.596
72252SOL     OW18588   4.914   6.312  11.812
72252SOL    HW118589   4.954   6.252  11.749
72252SOL    HW218590   4.945   6.280  11.897
72253SOL     OW18591   3.042  12.950   5.753
72253SOL    HW118592   3.095  13.026   5.728
72253SOL    HW218593   2.977  12.985   5.814
72254SOL     OW18594  12.649  10.166  10.445
72254SOL    HW118595  12.720  10.151  10.507
72254SOL    HW218596  12.603  10.242  10.480
72255SOL     OW18597  13.914   8.704  13.464
72255SOL    HW118598  13.842   8.757  13.499
72255SOL    HW218599  13.959   8.763  13.403
72256SOL     OW18600  10.438   1.644   9.660
72256SOL    HW118601  10.514   1.585   9.653
72256SOL    HW218602  10.477   1.731   9.666
72257SOL     OW18603  12.898   5.419   0.826
72257SOL    HW118604  12.893   5.499   0.878
72257SOL    HW218605  12.982   5.426   0.780
72258SOL     OW18606   1.399   6.734   9.347
72258SOL    HW118607   1.387   6.747   9.253
72258SOL    HW218608   1.340   6.663   9.369
72259SOL     OW18609  13.809   4.833   3.971
72259SOL    HW118610  13.755   4.781   3.911
72259SOL    HW218611  13.870   4.880   3.914
72260SOL     OW18612  11.639   7.577   1.279
72260SOL    HW118613  11.623   7.622   1.362
72260SOL    HW218614  11.647   7.485   1.302
72261SOL     OW18615   9.127   7.958   6.168
72261SOL    HW118616   9.206   7.909   6.145
72261SOL    HW218617   9.108   7.932   6.258
72262SOL     OW18618   6.345   6.501  11.563
72262SOL    HW118619   6.406   6.482  11.492
72262SOL    HW218620   6.260   6.511  11.519
72263SOL     OW18621  10.718   6.385   3.109
72263SOL    HW118622  10.675   6.337   3.180
72263SOL    HW218623  10.650   6.442   3.073
72264SOL     OW18624   7.507   8.328   1.339
72264SOL    HW118625   7.456   8.409   1.330
72264SOL    HW218626   7.496   8.303   1.431
72265SOL     OW18627   9.216   8.776  13.313
72265SOL    HW118628   9.169   8.822  13.383
72265SOL    HW218629   9.276   8.841  13.277
72266SOL     OW18630   4.289  10.505   3.704
72266SOL    HW118631   4.355  10.514   3.635
72266SOL    HW218632   4.208  10.537   3.664
72267SOL     OW18633  10.150   4.558  13.011
72267SOL    HW118634  10.055   4.566  13.003
72267SOL    HW218635  10.163   4.510  13.093
72268SOL     OW18636   4.974   5.729   7.443
72268SOL    HW118637   5.050   5.690   7.487
72268SOL    HW218638   5.012   5.798   7.388
72269SOL     OW18639   9.704  14.296   8.951
72269SOL    HW118640   9.717  14.260   9.039
72269SOL    HW218641   9.616  14.266   8.926
72270SOL     OW18642   1.619   6.833  12.751
72270SOL    HW118643   1.582   6.754  12.789
72270SOL    HW218644   1.645   6.887  12.826
72271SOL     OW18645   2.003   5.235   4.767
72271SOL    HW118646   1.955   5.267   4.843
72271SOL    HW218647   1.955   5.270   4.692
72272SOL     OW18648  11.096  13.440  12.293
72272SOL    HW118649  11.172  13.387  12.320
72272SOL    HW218650  11.135  13.518  12.252
72273SOL     OW18651  11.634   4.780   9.206
72273SOL    HW118652  11.573   4.814   9.271
72273SOL    HW218653  11.703   4.846   9.201
72274SOL     OW18654   8.315  14.520   0.143
72274SOL    HW118655   8.244  14.542   0.203
72274SOL    HW218656   8.272  14.496   0.061
72275SOL     OW18657   3.960   7.295  13.412
72275SOL    HW118658   4.005   7.241  13.346
72275SOL    HW218659   3.890   7.239  13.445
72276SOL     OW18660   4.242  11.611   4.346
72276SOL    HW118661   4.148  11.617   4.364
72276SOL    HW218662   4.259  11.684   4.286
72277SOL     OW18663  12.623   3.234  12.897
72277SOL    HW118664  12.562   3.168  12.928
72277SOL    HW218665  12.595   3.315  12.939
72278SOL     OW18666  11.557   5.910  14.599
72278SOL    HW118667  11.527   5.956  14.521
72278SOL    HW218668  11.625   5.966  14.636
72279SOL     OW18669   0.241   2.534   6.501
72279SOL    HW118670   0.223   2.583   6.581
72279SOL    HW218671   0.215   2.593   6.430
72280SOL     OW18672   2.895   2.359   3.331
72280SOL    HW118673   2.989   2.372   3.318
72280SOL    HW218674   2.886   2.266   3.351
72281SOL     OW18675  11.500  10.222   6.302
72281SOL    HW118676  11.456  10.141   6.277
72281SOL    HW218677  11.472  10.238   6.392
72282SOL     OW18678   5.797   2.937   1.328
72282SOL    HW118679   5.781   3.008   1.265
72282SOL    HW218680   5.865   2.971   1.386
72283SOL     OW18681  12.195  13.207   6.699
72283SOL    HW118682  12.131  13.279   6.699
72283SOL    HW218683  12.157  13.141   6.641
72284SOL     OW18684   2.385   2.541  12.965
72284SOL    HW118685   2.445   2.580  13.028
72284SOL    HW218686   2.310   2.513  13.017
72285SOL     OW18687   3.268   9.212   3.784
72285SOL    HW118688   3.277   9.238   3.876
72285SOL    HW218689   3.281   9.292   3.735
72286SOL     OW18690  14.025  12.019   4.310
72286SOL    HW118691  14.080  11.977   4.376
72286SOL    HW218692  13.959  11.952   4.288
72287SOL     OW18693   9.040   3.175  11.179
72287SOL    HW118694   9.055   3.238  11.249
72287SOL    HW218695   8.952   3.194  11.147
72288SOL     OW18696   6.261   5.069   4.551
72288SOL    HW118697   6.238   5.079   4.643
72288SOL    HW218698   6.330   5.134   4.536
72289SOL     OW18699   7.864   4.099   8.955
72289SOL    HW118700   7.955   4.102   8.983
72289SOL    HW218701   7.852   4.178   8.902
72290SOL     OW18702   8.206   9.583  11.806
72290SOL    HW118703   8.188   9.677  11.796
72290SOL    HW218704   8.120   9.542  11.807
72291SOL     OW18705   2.222   7.520  14.765
72291SOL    HW118706   2.205   7.428  14.745
72291SOL    HW218707   2.296   7.519  14.825
72292SOL     OW18708   4.962  13.880   1.758
72292SOL    HW118709   4.951  13.893   1.852
72292SOL    HW218710   4.983  13.967   1.725
72293SOL     OW18711   9.045   9.467  11.261
72293SOL    HW118712   8.973   9.421  11.305
72293SOL    HW218713   9.058   9.546  11.312
72294SOL     OW18714   9.613   0.181   2.920
72294SOL    HW118715   9.604   0.266   2.877
72294SOL    HW218716   9.527   0.139   2.909
72295SOL     OW18717   4.847   6.709  13.214
72295SOL    HW118718   4.911   6.694  13.144
72295SOL    HW218719   4.899   6.745  13.286
72296SOL     OW18720  12.730   5.285  10.059
72296SOL    HW118721  12.777   5.203  10.048
72296SOL    HW218722  12.766   5.323  10.139
72297SOL     OW18723  13.686   6.527   3.995
72297SOL    HW118724  13.736   6.530   4.076
72297SOL    HW218725  13.708   6.608   3.950
72298SOL     OW18726   5.504  14.029   3.216
72298SOL    HW118727   5.583  13.998   3.261
72298SOL    HW218728   5.536  14.063   3.132
72299SOL     OW18729   5.023   0.502   7.501
72299SOL    HW118730   4.939   0.477   7.463
72299SOL    HW218731   5.002   0.536   7.588
72300SOL     OW18732   2.658  11.670   0.066
72300SOL    HW118733   2.700  11.654  14.860
72300SOL    HW218734   2.731  11.669   0.128
72301SOL     OW18735  11.183   0.958   6.382
72301SOL    HW118736  11.124   1.034   6.379
72301SOL    HW218737  11.154   0.909   6.459
72302SOL     OW18738  13.737   7.866   4.537
72302SOL    HW118739  13.702   7.938   4.589
72302SOL    HW218740  13.791   7.907   4.470
72303SOL     OW18741  12.270   8.659  10.572
72303SOL    HW118742  12.224   8.731  10.614
72303SOL    HW218743  12.335   8.631  10.637
72304SOL     OW18744  11.104   9.528   8.735
72304SOL    HW118745  11.010   9.542   8.746
72304SOL    HW218746  11.121   9.445   8.779
72305SOL     OW18747   0.969   4.772   9.634
72305SOL    HW118748   0.975   4.678   9.619
72305SOL    HW218749   0.974   4.782   9.729
72306SOL     OW18750   8.030   2.349   5.270
72306SOL    HW118751   7.966   2.353   5.341
72306SOL    HW218752   7.984   2.304   5.199
72307SOL     OW18753  14.485  12.541   4.772
72307SOL    HW118754  14.446  12.468   4.725
72307SOL    HW218755  14.429  12.616   4.752
72308SOL     OW18756  12.243   3.366  11.346
72308SOL    HW118757  12.235   3.320  11.263
72308SOL    HW218758  12.228   3.458  11.325
72309SOL     OW18759   4.161  14.666   0.993
72309SOL    HW118760   4.092  14.643   1.055
72309SOL    HW218761   4.203  14.742   1.031
72310SOL     OW18762  11.208  12.562   9.658
72310SOL    HW118763  11.213  12.570   9.563
72310SOL    HW218764  11.296  12.533   9.683
72311SOL     OW18765  14.154   0.134   0.351
72311SOL    HW118766  14.086   0.096   0.406
72311SOL    HW218767  14.219   0.167   0.412
72312SOL     OW18768   2.118   3.737  14.855
72312SOL    HW118769   2.196   3.791  14.868
72312SOL    HW218770   2.096   3.751  14.763
72313SOL     OW18771  10.306   1.916   4.772
72313SOL    HW118772  10.399   1.924   4.791
72313SOL    HW218773  10.295   1.957   4.686
72314SOL     OW18774   6.488  13.264   3.608
72314SOL    HW118775   6.481  13.170   3.626
72314SOL    HW218776   6.399  13.297   3.622
72315SOL     OW18777   9.908   6.306   6.408
72315SOL    HW118778   9.975   6.363   6.447
72315SOL    HW218779   9.826   6.354   6.418
72316SOL     OW18780   6.819   6.251   2.722
72316SOL    HW118781   6.767   6.257   2.642
72316SOL    HW218782   6.907   6.280   2.696
72317SOL     OW18783  13.569  11.791   1.033
72317SOL    HW118784  13.496  11.732   1.014
72317SOL    HW218785  13.569  11.799   1.128
72318SOL     OW18786   0.821   3.175  13.445
72318SOL    HW118787   0.875   3.195  13.368
72318SOL    HW218788   0.777   3.093  13.423
72319SOL     OW18789   2.261   1.751   3.504
72319SOL    HW118790   2.307   1.815   3.450
72319SOL    HW218791   2.330   1.692   3.535
72320SOL     OW18792   7.016   4.110  10.959
72320SOL    HW118793   6.967   4.039  11.001
72320SOL    HW218794   6.959   4.139  10.888
72321SOL     OW18795  12.116   2.946   3.171
72321SOL    HW118796  12.211   2.936   3.179
72321SOL    HW218797  12.087   2.966   3.260
72322SOL     OW18798  10.779   1.234   8.937
72322SOL    HW118799  10.752   1.226   8.846
72322SOL    HW218800  10.717   1.295   8.976
72323SOL     OW18801   0.233  14.714   4.625
72323SOL    HW118802   0.165  14.647   4.620
72323SOL    HW218803   0.240  14.733   4.718
72324SOL     OW18804  11.215   1.980  11.810
72324SOL    HW118805  11.197   2.044  11.741
72324SOL    HW218806  11.299   1.941  11.786
72325SOL     OW18807  10.824   6.426   7.939
72325SOL    HW118808  10.878   6.370   7.884
72325SOL    HW218809  10.757   6.367   7.973
72326SOL     OW18810  13.617  14.076  12.428
72326SOL    HW118811  13.622  14.127  12.347
72326SOL    HW218812  13.532  14.101  12.466
72327SOL     OW18813   6.429  13.239  11.210
72327SOL    HW118814   6.514  13.266  11.245
72327SOL    HW218815   6.367  13.255  11.282
72328SOL     OW18816   2.877   9.628  10.066
72328SOL    HW118817   2.841   9.709  10.102
72328SOL    HW218818   2.861   9.562  10.134
72329SOL     OW18819   8.487   3.075   8.380
72329SOL    HW118820   8.483   2.981   8.394
72329SOL    HW218821   8.578   3.098   8.401
72330SOL     OW18822   6.012  10.271  11.257
72330SOL    HW118823   5.930  10.311  11.228
72330SOL    HW218824   6.077  10.298  11.192
72331SOL     OW18825   2.370   7.991   4.292
72331SOL    HW118826   2.449   7.968   4.245
72331SOL    HW218827   2.300   7.982   4.227
72332SOL     OW18828  10.974  12.869  12.240
72332SOL    HW118829  11.035  12.812  12.192
72332SOL    HW218830  11.019  12.890  12.321
72333SOL     OW18831   0.698   0.290   9.479
72333SOL    HW118832   0.764   0.225   9.505
72333SOL    HW218833   0.701   0.356   9.549
72334SOL     OW18834   0.642   6.219   6.381
72334SOL    HW118835   0.674   6.139   6.340
72334SOL    HW218836   0.720   6.273   6.392
72335SOL     OW18837   4.476   6.028   9.570
72335SOL    HW118838   4.508   5.953   9.620
72335SOL    HW218839   4.399   6.058   9.618
72336SOL     OW18840   5.900   1.446   4.353
72336SOL    HW118841   5.882   1.454   4.447
72336SOL    HW218842   5.995   1.451   4.345
72337SOL     OW18843   4.489  14.725   0.908
72337SOL    HW118844   4.535  14.797   0.951
72337SOL    HW218845   4.467  14.664   0.979
72338SOL     OW18846   1.437  10.323  13.854
72338SOL    HW118847   1.434  10.228  13.853
72338SOL    HW218848   1.345  10.350  13.850
72339SOL     OW18849   7.170   2.781   0.762
72339SOL    HW118850   7.111   2.725   0.711
72339SOL    HW218851   7.145   2.766   0.853
72340SOL     OW18852   3.806   4.412   1.745
72340SOL    HW118853   3.883   4.400   1.800
72340SOL    HW218854   3.760   4.487   1.783
72341SOL     OW18855   1.502   1.201   4.125
72341SOL    HW118856   1.500   1.156   4.210
72341SOL    HW218857   1.416   1.243   4.119
72342SOL     OW18858  13.596   0.958   3.367
72342SOL    HW118859  13.512   0.911   3.358
72342SOL    HW218860  13.630   0.962   3.278
72343SOL     OW18861   9.322   2.393   4.652
72343SOL    HW118862   9.303   2.379   4.745
72343SOL    HW218863   9.367   2.477   4.649
72344SOL     OW18864   2.386  13.669  13.588
72344SOL    HW118865   2.306  13.719  13.572
72344SOL    HW218866   2.455  13.720  13.546
72345SOL     OW18867   9.332  11.232  11.392
72345SOL    HW118868   9.252  11.284  11.383
72345SOL    HW218869   9.376  11.241  11.308
72346SOL     OW18870   8.631  10.732   5.206
72346SOL    HW118871   8.607  10.641   5.185
72346SOL    HW218872   8.549  10.780   5.199
72347SOL     OW18873   9.422  12.374  13.191
72347SOL    HW118874   9.496  12.320  13.161
72347SOL    HW218875   9.454  12.464  13.183
72348SOL     OW18876   1.709   4.171  13.856
72348SOL    HW118877   1.632   4.171  13.912
72348SOL    HW218878   1.758   4.092  13.882
72349SOL     OW18879   2.316   4.624   5.637
72349SOL    HW118880   2.400   4.589   5.667
72349SOL    HW218881   2.330   4.718   5.631
72350SOL     OW18882   8.742   0.247   0.351
72350SOL    HW118883   8.677   0.179   0.371
72350SOL    HW218884   8.779   0.220   0.267
72351SOL     OW18885   0.434   0.215  13.506
72351SOL    HW118886   0.525   0.197  13.486
72351SOL    HW218887   0.419   0.304  13.474
72352SOL     OW18888  14.690   0.632   8.905
72352SOL    HW118889  14.596   0.646   8.895
72352SOL    HW218890  14.702   0.611   8.998
72353SOL     OW18891   4.775   1.144   3.154
72353SOL    HW118892   4.751   1.063   3.199
72353SOL    HW218893   4.753   1.213   3.217
72354SOL     OW18894   4.406   0.800   2.762
72354SOL    HW118895   4.352   0.875   2.788
72354SOL    HW218896   4.348   0.744   2.711
72355SOL     OW18897   2.023   9.670  12.368
72355SOL    HW118898   2.081   9.594  12.365
72355SOL    HW218899   1.955   9.652  12.303
72356SOL     OW18900   7.681  14.011  11.512
72356SOL    HW118901   7.708  14.031  11.602
72356SOL    HW218902   7.685  14.095  11.466
72357SOL     OW18903   4.902  11.269  13.955
72357SOL    HW118904   4.910  11.191  14.010
72357SOL    HW218905   4.866  11.336  14.013
72358SOL     OW18906   1.992   3.212   1.389
72358SOL    HW118907   2.053   3.140   1.403
72358SOL    HW218908   2.024   3.283   1.446
72359SOL     OW18909  11.284   9.944   4.623
72359SOL    HW118910  11.286  10.027   4.577
72359SOL    HW218911  11.291   9.967   4.715
72360SOL     OW18912   7.612  14.205  14.378
72360SOL    HW118913   7.561  14.282  14.403
72360SOL    HW218914   7.660  14.232  14.300
72361SOL     OW18915  14.309   0.587   9.441
72361SOL    HW118916  14.359   0.552   9.367
72361SOL    HW218917  14.306   0.681   9.426
72362SOL     OW18918  10.638  14.076   9.000
72362SOL    HW118919  10.654  14.162   8.962
72362SOL    HW218920  10.686  14.016   8.944
72363SOL     OW18921  11.967   0.873   6.982
72363SOL    HW118922  11.901   0.845   6.919
72363SOL    HW218923  11.992   0.961   6.953
72364SOL     OW18924   8.562   7.661   5.088
72364SOL    HW118925   8.516   7.714   5.023
72364SOL    HW218926   8.641   7.631   5.043
72365SOL     OW18927   2.873   2.700  11.650
72365SOL    HW118928   2.889   2.663  11.563
72365SOL    HW218929   2.783   2.676  11.671
72366SOL     OW18930  14.657   7.706  14.848
72366SOL    HW118931  14.687   7.638  14.789
72366SOL    HW218932  14.737   7.743   0.006
72367SOL     OW18933  14.417   6.432   3.010
72367SOL    HW118934  14.359   6.392   2.945
72367SOL    HW218935  14.459   6.358   3.053
72368SOL     OW18936  10.222  11.718   7.580
72368SOL    HW118937  10.270  11.636   7.595
72368SOL    HW218938  10.257  11.751   7.498
72369SOL     OW18939   3.348   9.689   1.108
72369SOL    HW118940   3.257   9.660   1.112
72369SOL    HW218941   3.372   9.678   1.016
72370SOL     OW18942  13.388  10.340  13.023
72370SOL    HW118943  13.342  10.382  12.951
72370SOL    HW218944  13.411  10.253  12.990
72371SOL     OW18945  12.323   0.605   1.883
72371SOL    HW118946  12.338   0.512   1.899
72371SOL    HW218947  12.399   0.633   1.832
72372SOL     OW18948   9.327  10.388   4.443
72372SOL    HW118949   9.324  10.412   4.536
72372SOL    HW218950   9.236  10.394   4.414
72373SOL     OW18951   3.743  13.994   5.583
72373SOL    HW118952   3.673  13.992   5.517
72373SOL    HW218953   3.707  13.945   5.657
72374SOL     OW18954  11.120   1.084  11.593
72374SOL    HW118955  11.103   1.087  11.687
72374SOL    HW218956  11.059   1.018  11.559
72375SOL     OW18957  10.655   5.774   7.262
72375SOL    HW118958  10.635   5.784   7.355
72375SOL    HW218959  10.576   5.733   7.225
72376SOL     OW18960   2.954  12.823   2.521
72376SOL    HW118961   2.907  12.894   2.564
72376SOL    HW218962   3.025  12.867   2.473
72377SOL     OW18963   6.503  13.639  12.222
72377SOL    HW118964   6.571  13.705  12.235
72377SOL    HW218965   6.451  13.671  12.149
72378SOL     OW18966   3.214   9.596   5.267
72378SOL    HW118967   3.200   9.659   5.197
72378SOL    HW218968   3.308   9.580   5.267
72379SOL     OW18969  13.798  10.357   7.426
72379SOL    HW118970  13.751  10.441   7.429
72379SOL    HW218971  13.871  10.373   7.366
72380SOL     OW18972   1.641   6.435  13.856
72380SOL    HW118973   1.682   6.358  13.817
72380SOL    HW218974   1.549   6.412  13.866
72381SOL     OW18975   2.664   6.256   8.988
72381SOL    HW118976   2.614   6.337   8.991
72381SOL    HW218977   2.720   6.259   9.066
72382SOL     OW18978   0.898  11.054   8.498
72382SOL    HW118979   0.834  11.032   8.431
72382SOL    HW218980   0.968  11.098   8.451
72383SOL     OW18981   1.106  14.251   7.826
72383SOL    HW118982   1.074  14.187   7.889
72383SOL    HW218983   1.164  14.308   7.876
72384SOL     OW18984   1.620   5.016   3.927
72384SOL    HW118985   1.580   5.101   3.913
72384SOL    HW218986   1.555   4.953   3.897
72385SOL     OW18987   1.147   7.340  12.751
72385SOL    HW118988   1.057   7.352  12.778
72385SOL    HW218989   1.193   7.417  12.785
72386SOL     OW18990  12.925   3.388  10.175
72386SOL    HW118991  12.945   3.466  10.125
72386SOL    HW218992  12.960   3.405  10.262
72387SOL     OW18993   9.775   9.909   7.125
72387SOL    HW118994   9.736   9.822   7.126
72387SOL    HW218995   9.859   9.898   7.081
72388SOL     OW18996   4.387   3.222   1.472
72388SOL    HW118997   4.438   3.223   1.552
72388SOL    HW218998   4.325   3.294   1.482
72389SOL     OW18999   6.676   1.595  14.327
72389SOL    HW119000   6.681   1.684  14.361
72389SOL    HW219001   6.657   1.541  14.403
72390SOL     OW19002  12.135  12.987   8.141
72390SOL    HW119003  12.224  13.010   8.165
72390SOL    HW219004  12.115  13.041   8.065
72391SOL     OW19005   7.593   4.645  13.337
72391SOL    HW119006   7.680   4.626  13.301
72391SOL    HW219007   7.532   4.601  13.278
72392SOL     OW19008   0.733   8.076   4.071
72392SOL    HW119009   0.708   8.141   4.005
72392SOL    HW219010   0.650   8.048   4.110
72393SOL     OW19011   6.897   3.914   4.205
72393SOL    HW119012   6.942   3.952   4.281
72393SOL    HW219013   6.808   3.895   4.236
72394SOL     OW19014   9.416   9.709   2.853
72394SOL    HW119015   9.415   9.719   2.948
72394SOL    HW219016   9.473   9.634   2.838
72395SOL     OW19017   8.695   3.683  11.992
72395SOL    HW119018   8.787   3.660  11.985
72395SOL    HW219019   8.684   3.757  11.932
72396SOL     OW19020  10.575   4.015   7.273
72396SOL    HW119021  10.607   3.934   7.233
72396SOL    HW219022  10.498   4.039   7.220
72397SOL     OW19023   5.482   7.642  10.389
72397SOL    HW119024   5.396   7.622  10.352
72397SOL    HW219025   5.526   7.558  10.393
72398SOL     OW19026  11.109  10.176   5.408
72398SOL    HW119027  11.079  10.087   5.427
72398SOL    HW219028  11.177  10.192   5.474
72399SOL     OW19029  13.388  12.576   7.909
72399SOL    HW119030  13.422  12.488   7.922
72399SOL    HW219031  13.343  12.597   7.990
72400SOL     OW19032   1.623   2.570  13.180
72400SOL    HW119033   1.657   2.652  13.215
72400SOL    HW219034   1.533   2.591  13.154
72401SOL     OW19035  10.104   2.114   4.885
72401SOL    HW119036  10.176   2.056   4.910
72401SOL    HW219037  10.033   2.091   4.944
72402SOL     OW19038   9.858  13.049   5.669
72402SOL    HW119039   9.863  13.017   5.579
72402SOL    HW219040   9.825  12.974   5.720
72403SOL     OW19041   9.353   1.727   0.780
72403SOL    HW119042   9.279   1.786   0.791
72403SOL    HW219043   9.337   1.683   0.697
72404SOL     OW19044   5.086   3.705   9.702
72404SOL    HW119045   5.055   3.775   9.758
72404SOL    HW219046   5.174   3.732   9.677
72405SOL     OW19047  14.229   6.737   7.765
72405SOL    HW119048  14.301   6.769   7.820
72405SOL    HW219049  14.268   6.726   7.678
72406SOL     OW19050   8.727   2.805  13.141
72406SOL    HW119051   8.692   2.772  13.223
72406SOL    HW219052   8.672   2.880  13.120
72407SOL     OW19053   9.381   5.056   5.535
72407SOL    HW119054   9.413   5.120   5.598
72407SOL    HW219055   9.289   5.043   5.557
72408SOL     OW19056  12.140  11.045   5.165
72408SOL    HW119057  12.137  11.128   5.213
72408SOL    HW219058  12.220  11.002   5.194
72409SOL     OW19059   9.847   2.338  11.760
72409SOL    HW119060   9.768   2.387  11.739
72409SOL    HW219061   9.892   2.391  11.826
72410SOL     OW19062  13.043  12.106   1.969
72410SOL    HW119063  13.013  12.123   1.880
72410SOL    HW219064  13.069  12.014   1.968
72411SOL     OW19065   6.404   3.096   1.209
72411SOL    HW119066   6.454   3.093   1.128
72411SOL    HW219067   6.471   3.105   1.277
72412SOL     OW19068   6.579   1.374   5.305
72412SOL    HW119069   6.572   1.461   5.344
72412SOL    HW219070   6.605   1.317   5.378
72413SOL     OW19071   5.615  11.485   7.062
72413SOL    HW119072   5.622  11.464   6.969
72413SOL    HW219073   5.683  11.432   7.103
72414SOL     OW19074   0.972   2.902   4.361
72414SOL    HW119075   1.022   2.931   4.437
72414SOL    HW219076   1.009   2.817   4.338
72415SOL     OW19077   8.532   1.881  14.228
72415SOL    HW119078   8.570   1.968  14.219
72415SOL    HW219079   8.539   1.843  14.140
72416SOL     OW19080   5.298   7.347  10.582
72416SOL    HW119081   5.380   7.373  10.625
72416SOL    HW219082   5.326   7.299  10.505
72417SOL     OW19083   1.595   2.193   9.894
72417SOL    HW119084   1.502   2.211   9.909
72417SOL    HW219085   1.634   2.191   9.981
72418SOL     OW19086   7.409   9.722  13.126
72418SOL    HW119087   7.464   9.799  13.113
72418SOL    HW219088   7.322   9.757  13.143
72419SOL     OW19089   1.084   9.367   9.457
72419SOL    HW119090   1.010   9.346   9.399
72419SOL    HW219091   1.057   9.447   9.502
72420SOL     OW19092   7.067   4.919  14.101
72420SOL    HW119093   6.979   4.925  14.063
72420SOL    HW219094   7.052   4.899  14.193
72421SOL     OW19095  11.060   2.359   9.453
72421SOL    HW119096  11.055   2.320   9.365
72421SOL    HW219097  11.037   2.288   9.512
72422SOL     OW19098   6.468   4.324   9.112
72422SOL    HW119099   6.385   4.362   9.142
72422SOL    HW219100   6.501   4.388   9.049
72423SOL     OW19101  13.687  10.987  12.269
72423SOL    HW119102  13.624  10.952  12.206
72423SOL    HW219103  13.682  10.927  12.344
72424SOL     OW19104   2.544   3.129  11.460
72424SOL    HW119105   2.535   3.034  11.471
72424SOL    HW219106   2.638   3.143  11.448
72425SOL     OW19107  11.234   0.178   9.199
72425SOL    HW119108  11.187   0.257   9.226
72425SOL    HW219109  11.294   0.208   9.131
72426SOL     OW19110   7.426   0.015   3.929
72426SOL    HW119111   7.344   0.065   3.927
72426SOL    HW219112   7.435  14.867   4.020
72427SOL     OW19113  12.730   7.166   1.756
72427SOL    HW119114  12.669   7.217   1.702
72427SOL    HW219115  12.688   7.161   1.841
72428SOL     OW19116   7.919   0.429   3.324
72428SOL    HW119117   7.825   0.448   3.321
72428SOL    HW219118   7.924   0.343   3.367
72429SOL     OW19119  14.441   2.161   4.519
72429SOL    HW119120  14.469   2.252   4.509
72429SOL    HW219121  14.522   2.113   4.530
72430SOL     OW19122   9.359   9.832  12.475
72430SOL    HW119123   9.420   9.759  12.474
72430SOL    HW219124   9.279   9.796  12.514
72431SOL     OW19125   0.408   5.977   7.233
72431SOL    HW119126   0.438   6.061   7.197
72431SOL    HW219127   0.486   5.922   7.233
72432SOL     OW19128  11.939   3.926  10.559
72432SOL    HW119129  12.022   3.902  10.599
72432SOL    HW219130  11.914   4.007  10.603
72433SOL     OW19131  13.052   0.953   9.263
72433SOL    HW119132  13.136   0.954   9.218
72433SOL    HW219133  12.989   0.983   9.197
72434SOL     OW19134  12.701  13.044   2.989
72434SOL    HW119135  12.780  13.096   3.001
72434SOL    HW219136  12.712  13.003   2.903
72435SOL     OW19137  14.677   5.498  12.653
72435SOL    HW119138  14.717   5.544  12.727
72435SOL    HW219139  14.586   5.527  12.653
72436SOL     OW19140   6.342   6.666   1.448
72436SOL    HW119141   6.402   6.729   1.410
72436SOL    HW219142   6.314   6.706   1.530
72437SOL     OW19143  13.981   3.122   7.371
72437SOL    HW119144  14.050   3.070   7.412
72437SOL    HW219145  13.908   3.118   7.432
72438SOL     OW19146   1.625  11.404   7.853
72438SOL    HW119147   1.699  11.463   7.841
72438SOL    HW219148   1.554  11.443   7.802
72439SOL     OW19149   4.156   2.271  10.172
72439SOL    HW119150   4.119   2.245  10.256
72439SOL    HW219151   4.125   2.361  10.159
72440SOL     OW19152   2.928  10.007   2.771
72440SOL    HW119153   2.926  10.013   2.676
72440SOL    HW219154   2.836  10.013   2.798
72441SOL     OW19155   5.816   2.548   1.009
72441SOL    HW119156   5.777   2.575   0.926
72441SOL    HW219157   5.788   2.615   1.071
72442SOL     OW19158   5.094   6.052   9.592
72442SOL    HW119159   5.073   5.969   9.548
72442SOL    HW219160   5.030   6.114   9.557
72443SOL     OW19161   8.674   8.755   2.825
72443SOL    HW119162   8.703   8.721   2.909
72443SOL    HW219163   8.741   8.726   2.763
72444SOL     OW19164   7.952   4.110  11.229
72444SOL    HW119165   7.947   4.205  11.231
72444SOL    HW219166   7.984   4.089  11.142
72445SOL     OW19167  14.675   3.268   9.487
72445SOL    HW119168  14.650   3.197   9.428
72445SOL    HW219169  14.653   3.237   9.574
72446SOL     OW19170   8.515  14.392   3.132
72446SOL    HW119171   8.585  14.394   3.197
72446SOL    HW219172   8.465  14.472   3.149
72447SOL     OW19173   2.997   2.981   7.748
72447SOL    HW119174   2.966   3.027   7.670
72447SOL    HW219175   2.924   2.924   7.772
72448SOL     OW19176   6.768   9.618   3.666
72448SOL    HW119177   6.678   9.615   3.698
72448SOL    HW219178   6.822   9.596   3.743
72449SOL     OW19179   3.628   3.863   1.350
72449SOL    HW119180   3.552   3.866   1.293
72449SOL    HW219181   3.688   3.801   1.307
72450SOL     OW19182   8.092   1.416   1.385
72450SOL    HW119183   8.039   1.435   1.463
72450SOL    HW219184   8.044   1.459   1.314
72451SOL     OW19185   6.486   1.660   2.819
72451SOL    HW119186   6.452   1.658   2.908
72451SOL    HW219187   6.458   1.577   2.780
72452SOL     OW19188   4.455   9.995   9.277
72452SOL    HW119189   4.382  10.028   9.329
72452SOL    HW219190   4.414   9.953   9.202
72453SOL     OW19191   1.386   3.371   9.894
72453SOL    HW119192   1.427   3.428   9.829
72453SOL    HW219193   1.448   3.369   9.967
72454SOL     OW19194   8.483   7.686  13.309
72454SOL    HW119195   8.405   7.680  13.253
72454SOL    HW219196   8.523   7.599  13.303
72455SOL     OW19197   0.503  14.710  13.073
72455SOL    HW119198   0.470  14.793  13.109
72455SOL    HW219199   0.484  14.645  13.141
72456SOL     OW19200   3.293   3.797  13.155
72456SOL    HW119201   3.387   3.779  13.154
72456SOL    HW219202   3.254   3.717  13.192
72457SOL     OW19203   3.719   3.025   3.870
72457SOL    HW119204   3.686   3.114   3.883
72457SOL    HW219205   3.646   2.968   3.894
72458SOL     OW19206  11.195  12.379   5.299
72458SOL    HW119207  11.238  12.395   5.215
72458SOL    HW219208  11.158  12.291   5.290
72459SOL     OW19209   4.341   8.180   3.677
72459SOL    HW119210   4.344   8.128   3.596
72459SOL    HW219211   4.327   8.269   3.646
72460SOL     OW19212   0.549   4.389  10.285
72460SOL    HW119213   0.612   4.452  10.250
72460SOL    HW219214   0.541   4.322  10.217
72461SOL     OW19215   9.725   6.137   3.955
72461SOL    HW119216   9.686   6.172   4.035
72461SOL    HW219217   9.706   6.043   3.959
72462SOL     OW19218  14.442   1.884  11.451
72462SOL    HW119219  14.441   1.846  11.363
72462SOL    HW219220  14.532   1.912  11.465
72463SOL     OW19221   8.385   1.584   7.701
72463SOL    HW119222   8.423   1.670   7.682
72463SOL    HW219223   8.426   1.559   7.785
72464SOL     OW19224  12.078  11.356  12.009
72464SOL    HW119225  12.120  11.298  12.073
72464SOL    HW219226  12.137  11.356  11.934
72465SOL     OW19227   8.185  10.265   3.423
72465SOL    HW119228   8.185  10.357   3.450
72465SOL    HW219229   8.248  10.223   3.482
72466SOL     OW19230  11.088   6.327  14.210
72466SOL    HW119231  11.154   6.339  14.278
72466SOL    HW219232  11.005   6.345  14.254
72467SOL     OW19233   7.948  12.018   4.522
72467SOL    HW119234   7.910  12.016   4.434
72467SOL    HW219235   7.989  12.104   4.528
72468SOL     OW19236   2.387   4.621  14.048
72468SOL    HW119237   2.398   4.715  14.061
72468SOL    HW219238   2.369   4.611  13.955
72469SOL     OW19239   1.805   0.071   3.768
72469SOL    HW119240   1.805   0.138   3.836
72469SOL    HW219241   1.893   0.075   3.730
72470SOL     OW19242   8.711   3.809  13.451
72470SOL    HW119243   8.726   3.724  13.493
72470SOL    HW219244   8.743   3.873  13.515
72471SOL     OW19245   2.232   8.131   9.638
72471SOL    HW119246   2.311   8.121   9.584
72471SOL    HW219247   2.176   8.058   9.613
72472SOL     OW19248   7.710   6.161   2.797
72472SOL    HW119249   7.752   6.222   2.857
72472SOL    HW219250   7.651   6.110   2.851
72473SOL     OW19251  11.708  10.027   4.540
72473SOL    HW119252  11.741  10.095   4.481
72473SOL    HW219253  11.680   9.957   4.482
72474SOL     OW19254   9.892   9.249  13.883
72474SOL    HW119255   9.861   9.159  13.895
72474SOL    HW219256   9.812   9.299  13.867
72475SOL     OW19257   7.750   5.536   2.562
72475SOL    HW119258   7.713   5.624   2.553
72475SOL    HW219259   7.693   5.480   2.510
72476SOL     OW19260   9.763  10.810   6.915
72476SOL    HW119261   9.671  10.789   6.901
72476SOL    HW219262   9.767  10.905   6.912
72477SOL     OW19263   6.825   5.795  12.209
72477SOL    HW119264   6.834   5.746  12.291
72477SOL    HW219265   6.843   5.731  12.140
72478SOL     OW19266   3.312  10.133   8.136
72478SOL    HW119267   3.332  10.049   8.096
72478SOL    HW219268   3.317  10.196   8.063
72479SOL     OW19269   0.753   2.776  11.610
72479SOL    HW119270   0.803   2.697  11.589
72479SOL    HW219271   0.813   2.830  11.660
72480SOL     OW19272   7.162   8.070  11.729
72480SOL    HW119273   7.203   8.087  11.644
72480SOL    HW219274   7.109   8.148  11.746
72481SOL     OW19275   8.024  11.908   3.527
72481SOL    HW119276   7.959  11.869   3.586
72481SOL    HW219277   8.037  11.842   3.459
72482SOL     OW19278  14.421   5.228   6.583
72482SOL    HW119279  14.401   5.144   6.625
72482SOL    HW219280  14.481   5.272   6.643
72483SOL     OW19281   3.613  13.271  11.683
72483SOL    HW119282   3.606  13.302  11.773
72483SOL    HW219283   3.674  13.332  11.641
72484SOL     OW19284   0.131  10.136   2.493
72484SOL    HW119285   0.182  10.203   2.449
72484SOL    HW219286   0.072  10.185   2.550
72485SOL     OW19287  11.582   4.739   8.290
72485SOL    HW119288  11.496   4.698   8.296
72485SOL    HW219289  11.639   4.683   8.344
72486SOL     OW19290  10.142  12.274  14.221
72486SOL    HW119291  10.083  12.203  14.245
72486SOL    HW219292  10.153  12.325  14.301
72487SOL     OW19293  12.861   4.717  10.012
72487SOL    HW119294  12.893   4.668  10.088
72487SOL    HW219295  12.920   4.691   9.941
72488SOL     OW19296   8.559   3.616   3.130
72488SOL    HW119297   8.552   3.649   3.220
72488SOL    HW219298   8.482   3.562   3.119
72489SOL     OW19299   4.544  10.218   0.786
72489SOL    HW119300   4.485  10.285   0.752
72489SOL    HW219301   4.560  10.159   0.713
72490SOL     OW19302   3.423  10.921  14.545
72490SOL    HW119303   3.447  10.976  14.620
72490SOL    HW219304   3.426  10.981  14.470
72491SOL     OW19305   4.724   7.353   7.540
72491SOL    HW119306   4.668   7.372   7.616
72491SOL    HW219307   4.670   7.377   7.464
72492SOL     OW19308   8.038   2.480   4.403
72492SOL    HW119309   7.943   2.474   4.389
72492SOL    HW219310   8.058   2.409   4.463
72493SOL     OW19311   7.474   7.493  13.426
72493SOL    HW119312   7.443   7.437  13.355
72493SOL    HW219313   7.398   7.545  13.450
72494SOL     OW19314  11.622   3.646   5.949
72494SOL    HW119315  11.567   3.715   5.912
72494SOL    HW219316  11.661   3.602   5.873
72495SOL     OW19317  10.006   8.876   4.848
72495SOL    HW119318   9.979   8.787   4.824
72495SOL    HW219319   9.951   8.899   4.923
72496SOL     OW19320   5.573   4.820   6.376
72496SOL    HW119321   5.618   4.800   6.294
72496SOL    HW219322   5.482   4.831   6.351
72497SOL     OW19323   0.117  12.732   3.585
72497SOL    HW119324   0.067  12.809   3.612
72497SOL    HW219325   0.060  12.688   3.522
72498SOL     OW19326   4.797  12.705   3.689
72498SOL    HW119327   4.891  12.684   3.692
72498SOL    HW219328   4.788  12.761   3.612
72499SOL     OW19329  11.445   7.714  10.192
72499SOL    HW119330  11.537   7.693  10.203
72499SOL    HW219331  11.445   7.799  10.147
72500SOL     OW19332  14.713  12.848   0.195
72500SOL    HW119333  14.622  12.831   0.171
72500SOL    HW219334  14.740  12.769   0.244
72501SOL     OW19335   9.772  14.405   5.790
72501SOL    HW119336   9.828  14.467   5.837
72501SOL    HW219337   9.763  14.442   5.702
72502SOL     OW19338  12.666   7.861  13.449
72502SOL    HW119339  12.596   7.856  13.383
72502SOL    HW219340  12.641   7.795  13.514
72503SOL     OW19341   8.601   8.489   9.500
72503SOL    HW119342   8.662   8.459   9.567
72503SOL    HW219343   8.549   8.558   9.543
72504SOL     OW19344   5.070   1.925   8.270
72504SOL    HW119345   5.145   1.884   8.315
72504SOL    HW219346   5.106   1.957   8.188
72505SOL     OW19347  13.378  10.571  14.432
72505SOL    HW119348  13.378  10.541  14.522
72505SOL    HW219349  13.389  10.666  14.438
72506SOL     OW19350   5.771  13.392   6.769
72506SOL    HW119351   5.804  13.321   6.823
72506SOL    HW219352   5.749  13.351   6.685
72507SOL     OW19353   9.276   9.110  13.440
72507SOL    HW119354   9.211   9.151  13.383
72507SOL    HW219355   9.358   9.156  13.421
72508SOL     OW19356   8.655   8.582   5.783
72508SOL    HW119357   8.643   8.659   5.727
72508SOL    HW219358   8.582   8.585   5.845
72509SOL     OW19359   4.409   4.742   5.984
72509SOL    HW119360   4.473   4.677   5.956
72509SOL    HW219361   4.349   4.693   6.041
72510SOL     OW19362  12.309   7.622  10.449
72510SOL    HW119363  12.317   7.609  10.544
72510SOL    HW219364  12.347   7.709  10.434
72511SOL     OW19365   7.445   5.511  13.143
72511SOL    HW119366   7.489   5.469  13.069
72511SOL    HW219367   7.372   5.559  13.103
72512SOL     OW19368   9.951   0.103   8.516
72512SOL    HW119369   9.989   0.021   8.548
72512SOL    HW219370   9.857   0.095   8.533
72513SOL     OW19371  10.230   7.301   8.920
72513SOL    HW119372  10.175   7.305   8.841
72513SOL    HW219373  10.214   7.384   8.964
72514SOL     OW19374   8.674   4.162   5.274
72514SOL    HW119375   8.752   4.205   5.308
72514SOL    HW219376   8.645   4.218   5.202
72515SOL     OW19377  13.215   9.979  12.847
72515SOL    HW119378  13.220   9.917  12.774
72515SOL    HW219379  13.183  10.060  12.807
72516SOL     OW19380   1.692   3.660   4.265
72516SOL    HW119381   1.786   3.651   4.248
72516SOL    HW219382   1.651   3.596   4.207
72517SOL     OW19383  12.164  11.695   8.394
72517SOL    HW119384  12.074  11.727   8.389
72517SOL    HW219385  12.212  11.765   8.437
72518SOL     OW19386   6.855   5.419   4.698
72518SOL    HW119387   6.820   5.486   4.756
72518SOL    HW219388   6.861   5.462   4.613
72519SOL     OW19389   9.585   4.140  10.956
72519SOL    HW119390   9.643   4.211  10.927
72519SOL    HW219391   9.498   4.181  10.958
72520SOL     OW19392  10.712   2.649   9.898
72520SOL    HW119393  10.748   2.581   9.954
72520SOL    HW219394  10.785   2.676   9.842
72521SOL     OW19395   9.951  13.815   9.013
72521SOL    HW119396   9.916  13.884   9.070
72521SOL    HW219397   9.906  13.829   8.930
72522SOL     OW19398   7.057   6.744   4.265
72522SOL    HW119399   6.984   6.761   4.324
72522SOL    HW219400   7.131   6.790   4.304
72523SOL     OW19401   0.055   6.312   5.954
72523SOL    HW119402   0.037   6.320   6.048
72523SOL    HW219403   0.125   6.376   5.938
72524SOL     OW19404   7.459   9.803   6.410
72524SOL    HW119405   7.424   9.792   6.322
72524SOL    HW219406   7.515   9.881   6.404
72525SOL     OW19407   7.515   7.378   1.994
72525SOL    HW119408   7.463   7.300   1.977
72525SOL    HW219409   7.514   7.425   1.911
72526SOL     OW19410  11.769   1.158   1.771
72526SOL    HW119411  11.819   1.163   1.690
72526SOL    HW219412  11.703   1.091   1.755
72527SOL     OW19413  10.203   4.929  13.673
72527SOL    HW119414  10.272   4.981  13.632
72527SOL    HW219415  10.149   4.992  13.719
72528SOL     OW19416   3.300   6.554   6.699
72528SOL    HW119417   3.251   6.607   6.637
72528SOL    HW219418   3.337   6.617   6.761
72529SOL     OW19419   3.470   5.937  14.569
72529SOL    HW119420   3.391   5.976  14.606
72529SOL    HW219421   3.477   5.978  14.482
72530SOL     OW19422   6.985  13.894   9.777
72530SOL    HW119423   7.055  13.932   9.830
72530SOL    HW219424   7.013  13.804   9.762
72531SOL     OW19425  12.126   3.703   5.434
72531SOL    HW119426  12.178   3.752   5.370
72531SOL    HW219427  12.061   3.765   5.465
72532SOL     OW19428  12.165   8.894  10.998
72532SOL    HW119429  12.213   8.823  11.041
72532SOL    HW219430  12.076   8.887  11.030
72533SOL     OW19431   5.055   8.673   1.798
72533SOL    HW119432   5.066   8.579   1.813
72533SOL    HW219433   5.098   8.714   1.873
72534SOL     OW19434   3.598   3.391   2.660
72534SOL    HW119435   3.685   3.351   2.661
72534SOL    HW219436   3.572   3.393   2.752
72535SOL     OW19437   7.395  14.045   1.924
72535SOL    HW119438   7.414  13.996   2.004
72535SOL    HW219439   7.356  13.980   1.865
72536SOL     OW19440  12.972   2.592   1.010
72536SOL    HW119441  12.983   2.669   0.955
72536SOL    HW219442  12.933   2.626   1.091
72537SOL     OW19443   6.156   2.948   3.169
72537SOL    HW119444   6.067   2.978   3.148
72537SOL    HW219445   6.156   2.855   3.147
72538SOL     OW19446  10.552   8.771  12.031
72538SOL    HW119447  10.631   8.821  12.051
72538SOL    HW219448  10.534   8.789  11.939
72539SOL     OW19449   9.769   0.340  11.600
72539SOL    HW119450   9.828   0.413  11.581
72539SOL    HW219451   9.823   0.277  11.647
72540SOL     OW19452  14.516  10.981   2.788
72540SOL    HW119453  14.550  10.994   2.700
72540SOL    HW219454  14.421  10.971   2.776
72541SOL     OW19455  13.162   6.182  13.291
72541SOL    HW119456  13.169   6.237  13.369
72541SOL    HW219457  13.086   6.126  13.308
72542SOL     OW19458   6.635   5.680  11.064
72542SOL    HW119459   6.696   5.685  10.990
72542SOL    HW219460   6.582   5.759  11.056
72543SOL     OW19461   4.294  14.356  13.546
72543SOL    HW119462   4.346  14.429  13.580
72543SOL    HW219463   4.342  14.326  13.469
72544SOL     OW19464  14.822   6.965   1.403
72544SOL    HW119465  14.854   6.897   1.344
72544SOL    HW219466  14.749   7.005   1.357
72545SOL     OW19467   8.076   8.794  10.984
72545SOL    HW119468   8.165   8.825  10.973
72545SOL    HW219469   8.059   8.802  11.078
72546SOL     OW19470   3.619  14.083   2.917
72546SOL    HW119471   3.538  14.105   2.871
72546SOL    HW219472   3.663  14.167   2.931
72547SOL     OW19473   7.665  10.907   0.197
72547SOL    HW119474   7.681  10.970   0.267
72547SOL    HW219475   7.596  10.850   0.232
72548SOL     OW19476  14.828   8.329  12.799
72548SOL    HW119477  14.739   8.364  12.794
72548SOL    HW219478  14.868   8.378  12.871
72549SOL     OW19479  13.162  13.042  10.051
72549SOL    HW119480  13.224  13.035  10.124
72549SOL    HW219481  13.096  13.105  10.082
72550SOL     OW19482   3.393   3.901  14.170
72550SOL    HW119483   3.409   3.977  14.115
72550SOL    HW219484   3.314   3.924  14.221
72551SOL     OW19485   4.429   0.891   1.433
72551SOL    HW119486   4.508   0.837   1.420
72551SOL    HW219487   4.381   0.882   1.351
72552SOL     OW19488  13.889  10.060   2.871
72552SOL    HW119489  13.956  10.073   2.938
72552SOL    HW219490  13.868  10.148   2.840
72553SOL     OW19491   4.597   0.901   3.541
72553SOL    HW119492   4.665   0.908   3.474
72553SOL    HW219493   4.526   0.957   3.510
72554SOL     OW19494   4.593   9.508  10.247
72554SOL    HW119495   4.659   9.521  10.315
72554SOL    HW219496   4.640   9.524  10.165
72555SOL     OW19497   8.286  11.045   2.139
72555SOL    HW119498   8.252  11.109   2.202
72555SOL    HW219499   8.297  10.965   2.190
72556SOL     OW19500  11.475   4.448   8.506
72556SOL    HW119501  11.555   4.484   8.468
72556SOL    HW219502  11.503   4.410   8.589
72557SOL     OW19503  10.432  12.312   9.570
72557SOL    HW119504  10.491  12.245   9.537
72557SOL    HW219505  10.455  12.391   9.522
72558SOL     OW19506   8.344  14.775   0.156
72558SOL    HW119507   8.424  14.793   0.108
72558SOL    HW219508   8.350  14.682   0.179
72559SOL     OW19509   6.317   5.814  14.404
72559SOL    HW119510   6.229   5.777  14.398
72559SOL    HW219511   6.330   5.858  14.319
72560SOL     OW19512   3.517   5.134  11.393
72560SOL    HW119513   3.443   5.163  11.340
72560SOL    HW219514   3.594   5.162  11.344
72561SOL     OW19515  13.873  14.406  11.395
72561SOL    HW119516  13.956  14.360  11.386
72561SOL    HW219517  13.825  14.355  11.460
72562SOL     OW19518   2.683   4.246  11.492
72562SOL    HW119519   2.716   4.157  11.499
72562SOL    HW219520   2.759   4.298  11.464
72563SOL     OW19521   1.044   2.765  10.061
72563SOL    HW119522   0.950   2.760  10.080
72563SOL    HW219523   1.083   2.794  10.143
72564SOL     OW19524   7.590   2.842   3.938
72564SOL    HW119525   7.659   2.887   3.889
72564SOL    HW219526   7.610   2.749   3.929
72565SOL     OW19527  11.155  13.921   6.105
72565SOL    HW119528  11.059  13.919   6.103
72565SOL    HW219529  11.178  13.907   6.196
72566SOL     OW19530   0.750   8.494   7.618
72566SOL    HW119531   0.816   8.556   7.651
72566SOL    HW219532   0.752   8.421   7.679
72567SOL     OW19533   9.176  11.485   2.199
72567SOL    HW119534   9.082  11.481   2.180
72567SOL    HW219535   9.204  11.570   2.165
72568SOL     OW19536   6.703   9.677  14.390
72568SOL    HW119537   6.635   9.737  14.421
72568SOL    HW219538   6.785   9.723  14.406
72569SOL     OW19539  14.121   9.051   9.153
72569SOL    HW119540  14.034   9.055   9.192
72569SOL    HW219541  14.109   9.003   9.071
72570SOL     OW19542  10.501  13.747  10.263
72570SOL    HW119543  10.478  13.839  10.278
72570SOL    HW219544  10.449  13.699  10.327
72571SOL     OW19545   4.387   3.351   4.551
72571SOL    HW119546   4.481   3.341   4.566
72571SOL    HW219547   4.350   3.359   4.639
72572SOL     OW19548   7.600   0.006  13.957
72572SOL    HW119549   7.664   0.054  14.009
72572SOL    HW219550   7.559  14.824  14.018
72573SOL     OW19551  10.893   4.295   3.336
72573SOL    HW119552  10.881   4.390   3.332
72573SOL    HW219553  10.961   4.282   3.401
72574SOL     OW19554   9.286  13.902  11.473
72574SOL    HW119555   9.191  13.908  11.463
72574SOL    HW219556   9.319  13.987  11.446
72575SOL     OW19557   6.435   2.919  13.676
72575SOL    HW119558   6.502   2.928  13.609
72575SOL    HW219559   6.390   2.837  13.654
72576SOL     OW19560  13.075  11.142   6.463
72576SOL    HW119561  13.130  11.153   6.385
72576SOL    HW219562  13.117  11.195   6.530
72577SOL     OW19563   1.208  14.119   0.530
72577SOL    HW119564   1.258  14.196   0.504
72577SOL    HW219565   1.264  14.074   0.594
72578SOL     OW19566   6.654  14.739  11.734
72578SOL    HW119567   6.644  14.806  11.801
72578SOL    HW219568   6.675  14.788  11.654
72579SOL     OW19569  10.913  11.495  10.730
72579SOL    HW119570  10.972  11.564  10.701
72579SOL    HW219571  10.863  11.535  10.801
72580SOL     OW19572  12.839   9.160   2.514
72580SOL    HW119573  12.797   9.119   2.438
72580SOL    HW219574  12.846   9.090   2.579
72581SOL     OW19575   5.260   2.401   5.803
72581SOL    HW119576   5.321   2.336   5.837
72581SOL    HW219577   5.176   2.355   5.798
72582SOL     OW19578   5.471   0.412  12.178
72582SOL    HW119579   5.424   0.402  12.096
72582SOL    HW219580   5.466   0.325  12.219
72583SOL     OW19581  10.385   5.368   8.151
72583SOL    HW119582  10.320   5.438   8.145
72583SOL    HW219583  10.345   5.304   8.210
72584SOL     OW19584   8.042   9.635  13.848
72584SOL    HW119585   8.100   9.641  13.772
72584SOL    HW219586   8.008   9.546  13.846
72585SOL     OW19587  11.776  11.389   2.861
72585SOL    HW119588  11.812  11.390   2.772
72585SOL    HW219589  11.780  11.480   2.890
72586SOL     OW19590  12.590   7.615   0.349
72586SOL    HW119591  12.603   7.520   0.349
72586SOL    HW219592  12.653   7.647   0.414
72587SOL     OW19593   5.744  11.848   8.317
72587SOL    HW119594   5.785  11.761   8.312
72587SOL    HW219595   5.783  11.896   8.244
72588SOL     OW19596   2.469  13.602  13.224
72588SOL    HW119597   2.472  13.585  13.130
72588SOL    HW219598   2.396  13.549  13.256
72589SOL     OW19599   8.688   4.492  14.220
72589SOL    HW119600   8.748   4.438  14.168
72589SOL    HW219601   8.675   4.442  14.301
72590SOL     OW19602   8.343  13.822   9.253
72590SOL    HW119603   8.274  13.868   9.205
72590SOL    HW219604   8.305  13.738   9.276
72591SOL     OW19605  11.792   0.190   6.506
72591SOL    HW119606  11.827   0.179   6.594
72591SOL    HW219607  11.811   0.281   6.484
72592SOL     OW19608   8.372   4.166   0.970
72592SOL    HW119609   8.462   4.199   0.967
72592SOL    HW219610   8.322   4.230   0.919
72593SOL     OW19611   6.133   4.751   7.171
72593SOL    HW119612   6.085   4.746   7.089
72593SOL    HW219613   6.082   4.810   7.226
72594SOL     OW19614   7.728   7.203   8.759
72594SOL    HW119615   7.723   7.165   8.671
72594SOL    HW219616   7.806   7.163   8.798
72595SOL     OW19617   7.842  10.545   0.357
72595SOL    HW119618   7.848  10.571   0.266
72595SOL    HW219619   7.932  10.544   0.389
72596SOL     OW19620  11.671   9.699   6.014
72596SOL    HW119621  11.669   9.731   5.923
72596SOL    HW219622  11.708   9.772   6.064
72597SOL     OW19623  12.790  13.937   1.082
72597SOL    HW119624  12.778  13.856   1.133
72597SOL    HW219625  12.793  13.907   0.991
72598SOL     OW19626  12.683   4.211   7.694
72598SOL    HW119627  12.693   4.229   7.787
72598SOL    HW219628  12.590   4.196   7.681
72599SOL     OW19629   5.247   6.880  10.726
72599SOL    HW119630   5.204   6.921  10.800
72599SOL    HW219631   5.177   6.865  10.662
72600SOL     OW19632  10.247   6.625   1.828
72600SOL    HW119633  10.224   6.579   1.909
72600SOL    HW219634  10.341   6.615   1.820
72601SOL     OW19635   6.287   4.255  14.005
72601SOL    HW119636   6.283   4.268  14.100
72601SOL    HW219637   6.376   4.281  13.981
72602SOL     OW19638   7.753   1.791  13.499
72602SOL    HW119639   7.710   1.876  13.487
72602SOL    HW219640   7.769   1.786  13.593
72603SOL     OW19641  12.460   6.775   1.031
72603SOL    HW119642  12.529   6.722   1.070
72603SOL    HW219643  12.420   6.821   1.105
72604SOL     OW19644   1.432   5.351  13.704
72604SOL    HW119645   1.487   5.417  13.661
72604SOL    HW219646   1.402   5.295  13.633
72605SOL     OW19647   1.531   1.924   3.872
72605SOL    HW119648   1.541   1.915   3.967
72605SOL    HW219649   1.614   1.894   3.836
72606SOL     OW19650   7.765   1.910   0.953
72606SOL    HW119651   7.682   1.955   0.970
72606SOL    HW219652   7.753   1.822   0.989
72607SOL     OW19653  12.790   9.241   5.268
72607SOL    HW119654  12.779   9.314   5.329
72607SOL    HW219655  12.858   9.187   5.307
72608SOL     OW19656  13.967   2.427  13.881
72608SOL    HW119657  14.056   2.404  13.854
72608SOL    HW219658  13.977   2.501  13.940
72609SOL     OW19659   2.529   1.923   8.290
72609SOL    HW119660   2.577   1.974   8.225
72609SOL    HW219661   2.447   1.899   8.245
72610SOL     OW19662  13.616  13.223  10.250
72610SOL    HW119663  13.562  13.268  10.315
72610SOL    HW219664  13.569  13.235  10.167
72611SOL     OW19665  11.984  12.031   0.830
72611SOL    HW119666  11.958  12.002   0.917
72611SOL    HW219667  12.035  11.957   0.794
72612SOL     OW19668  10.572   7.062   1.616
72612SOL    HW119669  10.484   7.034   1.589
72612SOL    HW219670  10.624   7.061   1.536
72613SOL     OW19671  12.290  13.440   8.765
72613SOL    HW119672  12.211  13.419   8.815
72613SOL    HW219673  12.264  13.511   8.708
72614SOL     OW19674  11.341  10.896  14.006
72614SOL    HW119675  11.377  10.894  13.917
72614SOL    HW219676  11.389  10.967  14.049
72615SOL     OW19677  10.654  12.987  14.361
72615SOL    HW119678  10.690  12.951  14.280
72615SOL    HW219679  10.577  13.036  14.333
72616SOL     OW19680   0.973   5.589   6.941
72616SOL    HW119681   0.939   5.514   6.989
72616SOL    HW219682   1.066   5.570   6.930
72617SOL     OW19683   7.340  11.677  13.035
72617SOL    HW119684   7.315  11.595  13.079
72617SOL    HW219685   7.431  11.663  13.009
72618SOL     OW19686  10.487   3.828   1.609
72618SOL    HW119687  10.410   3.863   1.563
72618SOL    HW219688  10.547   3.902   1.613
72619SOL     OW19689   2.108   6.751   6.381
72619SOL    HW119690   2.046   6.750   6.309
72619SOL    HW219691   2.064   6.800   6.451
72620SOL     OW19692  13.691   2.734  11.828
72620SOL    HW119693  13.611   2.778  11.854
72620SOL    HW219694  13.672   2.699  11.741
72621SOL     OW19695   5.364   3.615  12.547
72621SOL    HW119696   5.306   3.622  12.472
72621SOL    HW219697   5.376   3.521  12.560
72622SOL     OW19698  11.794  13.579  14.369
72622SOL    HW119699  11.806  13.576  14.274
72622SOL    HW219700  11.874  13.620  14.402
72623SOL     OW19701  14.790   3.642   3.616
72623SOL    HW119702  14.734   3.570   3.646
72623SOL    HW219703  14.736   3.720   3.627
72624SOL     OW19704   6.255  10.935   1.859
72624SOL    HW119705   6.331  10.913   1.913
72624SOL    HW219706   6.187  10.957   1.922
72625SOL     OW19707   7.490  12.643  14.606
72625SOL    HW119708   7.434  12.572  14.576
72625SOL    HW219709   7.429  12.707  14.644
72626SOL     OW19710  10.031   7.451  13.282
72626SOL    HW119711   9.997   7.364  13.305
72626SOL    HW219712  10.098   7.434  13.216
72627SOL     OW19713   2.563   9.206   4.364
72627SOL    HW119714   2.504   9.204   4.288
72627SOL    HW219715   2.519   9.152   4.430
72628SOL     OW19716   8.354   0.254   4.499
72628SOL    HW119717   8.415   0.325   4.481
72628SOL    HW219718   8.405   0.189   4.547
72629SOL     OW19719   9.365   5.769  13.287
72629SOL    HW119720   9.427   5.715  13.239
72629SOL    HW219721   9.309   5.807  13.220
72630SOL     OW19722  14.420   3.692  14.743
72630SOL    HW119723  14.479   3.631  14.698
72630SOL    HW219724  14.434   3.776  14.699
72631SOL     OW19725   8.742  13.414  14.023
72631SOL    HW119726   8.811  13.398  13.958
72631SOL    HW219727   8.778  13.381  14.105
72632SOL     OW19728   2.032   7.126   3.318
72632SOL    HW119729   1.989   7.154   3.399
72632SOL    HW219730   1.966   7.142   3.250
72633SOL     OW19731  12.347   1.750  11.606
72633SOL    HW119732  12.426   1.735  11.554
72633SOL    HW219733  12.301   1.666  11.603
72634SOL     OW19734   3.785   8.639   2.668
72634SOL    HW119735   3.762   8.721   2.710
72634SOL    HW219736   3.798   8.662   2.576
72635SOL     OW19737   0.347   9.747   3.978
72635SOL    HW119738   0.361   9.839   3.999
72635SOL    HW219739   0.435   9.710   3.972
72636SOL     OW19740   4.537   3.879   4.711
72636SOL    HW119741   4.532   3.898   4.805
72636SOL    HW219742   4.629   3.857   4.696
72637SOL     OW19743   3.144  14.843   5.961
72637SOL    HW119744   3.109   0.047   5.993
72637SOL    HW219745   3.072  14.805   5.910
72638SOL     OW19746   0.701   8.397   3.135
72638SOL    HW119747   0.792   8.366   3.131
72638SOL    HW219748   0.708   8.489   3.157
72639SOL     OW19749   9.890   2.670   4.922
72639SOL    HW119750   9.946   2.594   4.907
72639SOL    HW219751   9.810   2.651   4.873
72640SOL     OW19752   8.925   0.810  13.193
72640SOL    HW119753   8.912   0.865  13.271
72640SOL    HW219754   8.978   0.864  13.135
72641SOL     OW19755  12.023   4.990   8.492
72641SOL    HW119756  12.089   4.936   8.449
72641SOL    HW219757  11.987   4.934   8.561
72642SOL     OW19758   2.458  13.601  10.184
72642SOL    HW119759   2.388  13.577  10.124
72642SOL    HW219760   2.534  13.550  10.154
72643SOL     OW19761   8.286   2.605   4.486
72643SOL    HW119762   8.297   2.557   4.404
72643SOL    HW219763   8.192   2.616   4.495
72644SOL     OW19764  10.765   2.486   2.797
72644SOL    HW119765  10.809   2.411   2.755
72644SOL    HW219766  10.679   2.452   2.822
72645SOL     OW19767  10.639   7.592  11.281
72645SOL    HW119768  10.616   7.632  11.365
72645SOL    HW219769  10.571   7.620  11.221
72646SOL     OW19770  10.069   4.621   7.116
72646SOL    HW119771   9.989   4.601   7.165
72646SOL    HW219772  10.111   4.536   7.105
72647SOL     OW19773   9.049  11.074   4.933
72647SOL    HW119774   9.080  11.102   4.846
72647SOL    HW219775   9.011  11.152   4.971
72648SOL     OW19776   2.765   6.610  13.952
72648SOL    HW119777   2.806   6.684  13.996
72648SOL    HW219778   2.781   6.535  14.009
72649SOL     OW19779   9.275  12.145   5.314
72649SOL    HW119780   9.310  12.232   5.335
72649SOL    HW219781   9.226  12.119   5.392
72650SOL     OW19782   0.503   5.984   5.649
72650SOL    HW119783   0.468   6.065   5.685
72650SOL    HW219784   0.555   6.011   5.574
72651SOL     OW19785  11.388  12.537   2.038
72651SOL    HW119786  11.441  12.579   2.107
72651SOL    HW219787  11.431  12.563   1.957
72652SOL     OW19788  14.655   8.432  10.348
72652SOL    HW119789  14.699   8.479  10.419
72652SOL    HW219790  14.585   8.383  10.392
72653SOL     OW19791  13.613   3.705  13.429
72653SOL    HW119792  13.586   3.636  13.368
72653SOL    HW219793  13.633   3.780  13.374
72654SOL     OW19794   5.984   3.749   6.392
72654SOL    HW119795   6.041   3.672   6.396
72654SOL    HW219796   5.899   3.719   6.423
72655SOL     OW19797  10.210  10.273  12.829
72655SOL    HW119798  10.209  10.186  12.789
72655SOL    HW219799  10.291  10.275  12.880
72656SOL     OW19800   4.335   2.435  11.490
72656SOL    HW119801   4.418   2.401  11.525
72656SOL    HW219802   4.359   2.516  11.445
72657SOL     OW19803   1.626   5.476   8.547
72657SOL    HW119804   1.566   5.417   8.502
72657SOL    HW219805   1.674   5.519   8.476
72658SOL     OW19806   3.982  13.753   3.047
72658SOL    HW119807   3.998  13.668   3.008
72658SOL    HW219808   3.929  13.800   2.983
72659SOL     OW19809   0.780   7.954   8.264
72659SOL    HW119810   0.842   7.970   8.193
72659SOL    HW219811   0.729   8.034   8.269
72660SOL     OW19812  10.833   8.301   4.639
72660SOL    HW119813  10.841   8.385   4.593
72660SOL    HW219814  10.897   8.245   4.597
72661SOL     OW19815   4.027   6.641   8.253
72661SOL    HW119816   4.061   6.553   8.267
72661SOL    HW219817   4.038   6.656   8.159
72662SOL     OW19818   2.128  12.628   2.595
72662SOL    HW119819   2.038  12.604   2.615
72662SOL    HW219820   2.151  12.577   2.518
72663SOL     OW19821  12.958  13.622   9.288
72663SOL    HW119822  12.964  13.563   9.213
72663SOL    HW219823  13.038  13.674   9.284
72664SOL     OW19824   6.097  13.251   1.302
72664SOL    HW119825   6.113  13.342   1.327
72664SOL    HW219826   6.001  13.243   1.302
72665SOL     OW19827   6.888   5.556   3.898
72665SOL    HW119828   6.850   5.490   3.839
72665SOL    HW219829   6.813   5.604   3.932
72666SOL     OW19830   3.074  11.133  10.583
72666SOL    HW119831   3.048  11.119  10.673
72666SOL    HW219832   3.170  11.138  10.587
72667SOL     OW19833  10.221   4.335   9.533
72667SOL    HW119834  10.207   4.377   9.448
72667SOL    HW219835  10.133   4.310   9.562
72668SOL     OW19836  11.176  12.818  13.392
72668SOL    HW119837  11.138  12.861  13.315
72668SOL    HW219838  11.198  12.891  13.451
72669SOL     OW19839   3.200   6.577  11.756
72669SOL    HW119840   3.288   6.548  11.732
72669SOL    HW219841   3.164   6.504  11.807
72670SOL     OW19842   6.169   9.157   9.559
72670SOL    HW119843   6.138   9.210   9.486
72670SOL    HW219844   6.140   9.204   9.637
72671SOL     OW19845   4.643  10.024   7.031
72671SOL    HW119846   4.624  10.090   7.097
72671SOL    HW219847   4.594   9.947   7.059
72672SOL     OW19848   5.293   1.236  10.780
72672SOL    HW119849   5.236   1.268  10.849
72672SOL    HW219850   5.307   1.144  10.801
72673SOL     OW19851   3.184  13.535  11.233
72673SOL    HW119852   3.148  13.604  11.177
72673SOL    HW219853   3.278  13.538  11.218
72674SOL     OW19854   7.060  14.363   4.417
72674SOL    HW119855   7.031  14.323   4.499
72674SOL    HW219856   7.065  14.457   4.436
72675SOL     OW19857   4.021   3.483   5.390
72675SOL    HW119858   3.971   3.497   5.470
72675SOL    HW219859   3.969   3.422   5.339
72676SOL     OW19860   1.584  13.996   8.007
72676SOL    HW119861   1.617  13.982   8.095
72676SOL    HW219862   1.604  13.914   7.960
72677SOL     OW19863  14.634   7.808   6.028
72677SOL    HW119864  14.621   7.884   5.972
72677SOL    HW219865  14.578   7.741   5.991
72678SOL     OW19866  10.632  12.797   2.454
72678SOL    HW119867  10.555  12.836   2.496
72678SOL    HW219868  10.597  12.756   2.374
72679SOL     OW19869   7.997   7.375   4.805
72679SOL    HW119870   7.903   7.377   4.821
72679SOL    HW219871   8.036   7.355   4.890
72680SOL     OW19872  14.658   6.741   2.618
72680SOL    HW119873  14.673   6.647   2.612
72680SOL    HW219874  14.722   6.771   2.684
72681SOL     OW19875  13.081   1.627   9.264
72681SOL    HW119876  13.156   1.620   9.323
72681SOL    HW219877  13.117   1.607   9.177
72682SOL     OW19878   7.319  12.688  14.318
72682SOL    HW119879   7.386  12.753  14.340
72682SOL    HW219880   7.319  12.685  14.223
72683SOL     OW19881   2.110   8.381   8.185
72683SOL    HW119882   2.019   8.358   8.165
72683SOL    HW219883   2.124   8.351   8.275
72684SOL     OW19884   5.240   0.876   0.806
72684SOL    HW119885   5.197   0.879   0.891
72684SOL    HW219886   5.314   0.816   0.819
72685SOL     OW19887   0.475  12.722   1.571
72685SOL    HW119888   0.476  12.697   1.478
72685SOL    HW219889   0.565  12.707   1.600
72686SOL     OW19890   7.912   4.340   1.914
72686SOL    HW119891   7.952   4.348   2.001
72686SOL    HW219892   7.943   4.416   1.865
72687SOL     OW19893   2.140   8.852  11.112
72687SOL    HW119894   2.133   8.932  11.060
72687SOL    HW219895   2.088   8.870  11.190
72688SOL     OW19896  11.093   5.674  13.633
72688SOL    HW119897  11.044   5.739  13.582
72688SOL    HW219898  11.095   5.596  13.577
72689SOL     OW19899   1.285   4.145   5.021
72689SOL    HW119900   1.211   4.133   5.081
72689SOL    HW219901   1.280   4.070   4.962
72690SOL     OW19902   4.060   8.891   7.638
72690SOL    HW119903   3.978   8.929   7.608
72690SOL    HW219904   4.098   8.958   7.695
72691SOL     OW19905   7.819   3.241  11.833
72691SOL    HW119906   7.742   3.185  11.821
72691SOL    HW219907   7.893   3.184  11.815
72692SOL     OW19908  11.452  10.122  10.645
72692SOL    HW119909  11.423  10.155  10.560
72692SOL    HW219910  11.469  10.029  10.630
72693SOL     OW19911   0.744  12.416   3.239
72693SOL    HW119912   0.694  12.336   3.255
72693SOL    HW219913   0.678  12.485   3.234
72694SOL     OW19914   2.452   3.981  12.939
72694SOL    HW119915   2.395   3.904  12.926
72694SOL    HW219916   2.539   3.950  12.915
72695SOL     OW19917  10.863   6.008  11.382
72695SOL    HW119918  10.892   6.098  11.392
72695SOL    HW219919  10.803   6.010  11.307
72696SOL     OW19920  12.277   1.239   4.428
72696SOL    HW119921  12.351   1.265   4.374
72696SOL    HW219922  12.204   1.233   4.368
72697SOL     OW19923   9.315  10.157   9.110
72697SOL    HW119924   9.262  10.163   9.031
72697SOL    HW219925   9.401  10.127   9.079
72698SOL     OW19926  12.911  13.495   0.870
72698SOL    HW119927  12.924  13.430   0.939
72698SOL    HW219928  12.831  13.468   0.826
72699SOL     OW19929   7.483   5.549   9.248
72699SOL    HW119930   7.451   5.632   9.284
72699SOL    HW219931   7.404   5.498   9.232
72700SOL     OW19932   3.997   4.206   6.292
72700SOL    HW119933   4.038   4.254   6.363
72700SOL    HW219934   3.948   4.272   6.243
72701SOL     OW19935   3.796  11.569   8.992
72701SOL    HW119936   3.822  11.651   9.035
72701SOL    HW219937   3.873  11.544   8.941
72702SOL     OW19938   4.322  13.589   7.281
72702SOL    HW119939   4.318  13.650   7.354
72702SOL    HW219940   4.252  13.527   7.298
72703SOL     OW19941   1.275   0.313  10.437
72703SOL    HW119942   1.229   0.337  10.518
72703SOL    HW219943   1.245   0.224  10.419
72704SOL     OW19944  11.786  12.277  10.347
72704SOL    HW119945  11.707  12.231  10.319
72704SOL    HW219946  11.755  12.342  10.410
72705SOL     OW19947   7.335   2.682   5.598
72705SOL    HW119948   7.397   2.638   5.656
72705SOL    HW219949   7.252   2.636   5.613
72706SOL     OW19950   8.467   4.907   9.675
72706SOL    HW119951   8.433   4.995   9.687
72706SOL    HW219952   8.433   4.857   9.749
72707SOL     OW19953   2.192  12.343  12.305
72707SOL    HW119954   2.124  12.391  12.259
72707SOL    HW219955   2.145  12.279  12.358
72708SOL     OW19956   3.970  12.651   6.249
72708SOL    HW119957   4.009  12.576   6.204
72708SOL    HW219958   3.947  12.712   6.179
72709SOL     OW19959   4.946  11.907  11.621
72709SOL    HW119960   4.983  11.819  11.622
72709SOL    HW219961   4.853  11.894  11.602
72710SOL     OW19962  12.271   3.617  13.035
72710SOL    HW119963  12.300   3.577  13.117
72710SOL    HW219964  12.261   3.710  13.055
72711SOL     OW19965   7.616  10.179  14.061
72711SOL    HW119966   7.641  10.210  13.973
72711SOL    HW219967   7.619  10.258  14.115
72712SOL     OW19968   5.236  12.753  12.218
72712SOL    HW119969   5.318  12.792  12.188
72712SOL    HW219970   5.263  12.687  12.282
72713SOL     OW19971   1.240  10.164   1.054
72713SOL    HW119972   1.239  10.087   0.998
72713SOL    HW219973   1.188  10.229   1.006
72714SOL     OW19974   7.330   1.883   4.428
72714SOL    HW119975   7.238   1.908   4.420
72714SOL    HW219976   7.327   1.798   4.471
72715SOL     OW19977   9.426   7.851  14.637
72715SOL    HW119978   9.429   7.874  14.545
72715SOL    HW219979   9.387   7.927  14.680
72716SOL     OW19980   5.412   6.843  10.481
72716SOL    HW119981   5.414   6.747  10.483
72716SOL    HW219982   5.374   6.868  10.565
72717SOL     OW19983  10.616   4.130  14.636
72717SOL    HW119984  10.706   4.131  14.670
72717SOL    HW219985  10.576   4.052  14.675
72718SOL     OW19986   7.318  12.640   1.646
72718SOL    HW119987   7.225  12.650   1.665
72718SOL    HW219988   7.356  12.726   1.666
72719SOL     OW19989   2.845  14.233   3.212
72719SOL    HW119990   2.818  14.147   3.179
72719SOL    HW219991   2.767  14.268   3.255
72720SOL     OW19992  14.830   2.273   6.103
72720SOL    HW119993   0.010   2.199   6.087
72720SOL    HW219994  14.867   2.344   6.052
72721SOL     OW19995   5.531  14.553   2.660
72721SOL    HW119996   5.522  14.636   2.708
72721SOL    HW219997   5.470  14.562   2.587
72722SOL     OW19998  10.719  11.155   0.235
72722SOL    HW119999  10.789  11.112   0.187
72722SOL    HW220000  10.764  11.213   0.296
72723SOL     OW20001   9.342  13.504   7.153
72723SOL    HW120002   9.275  13.440   7.127
72723SOL    HW220003   9.418  13.451   7.175
72724SOL     OW20004   2.868   0.566   0.659
72724SOL    HW120005   2.832   0.575   0.747
72724SOL    HW220006   2.871   0.656   0.625
72725SOL     OW20007  12.025  11.924   8.690
72725SOL    HW120008  12.019  11.947   8.597
72725SOL    HW220009  12.047  12.005   8.734
72726SOL     OW20010   2.511  10.342   2.905
72726SOL    HW120011   2.494  10.435   2.894
72726SOL    HW220012   2.591  10.337   2.957
72727SOL     OW20013  13.521  10.874   0.259
72727SOL    HW120014  13.494  10.795   0.305
72727SOL    HW220015  13.616  10.867   0.254
72728SOL     OW20016   2.693  13.898  10.684
72728SOL    HW120017   2.675  13.871  10.594
72728SOL    HW220018   2.715  13.991  10.678
72729SOL     OW20019   0.965   5.073  10.481
72729SOL    HW120020   0.926   4.990  10.510
72729SOL    HW220021   0.958   5.071  10.386
72730SOL     OW20022   1.354  11.977   1.336
72730SOL    HW120023   1.384  11.902   1.386
72730SOL    HW220024   1.345  12.047   1.400
72731SOL     OW20025   7.717   0.988  10.219
72731SOL    HW120026   7.651   1.054  10.200
72731SOL    HW220027   7.798   1.038  10.233
72732SOL     OW20028  11.237  11.532   3.095
72732SOL    HW120029  11.197  11.447   3.080
72732SOL    HW220030  11.230  11.577   3.012
72733SOL     OW20031   1.707   4.147   8.157
72733SOL    HW120032   1.666   4.201   8.089
72733SOL    HW220033   1.781   4.198   8.187
72734SOL     OW20034   7.266  13.811   4.347
72734SOL    HW120035   7.331  13.742   4.333
72734SOL    HW220036   7.313  13.880   4.393
72735SOL     OW20037  14.075  11.612   2.184
72735SOL    HW120038  14.028  11.590   2.265
72735SOL    HW220039  14.069  11.707   2.178
72736SOL     OW20040  10.819  12.756  11.968
72736SOL    HW120041  10.911  12.734  11.980
72736SOL    HW220042  10.772  12.694  12.024
72737SOL     OW20043  11.936  10.686   1.839
72737SOL    HW120044  11.843  10.703   1.826
72737SOL    HW220045  11.949  10.693   1.934
72738SOL     OW20046  11.472   5.217   3.641
72738SOL    HW120047  11.391   5.234   3.689
72738SOL    HW220048  11.467   5.125   3.615
72739SOL     OW20049   0.553  10.998  11.487
72739SOL    HW120050   0.631  10.949  11.515
72739SOL    HW220051   0.574  11.030  11.400
72740SOL     OW20052   1.186  10.874   0.761
72740SOL    HW120053   1.221  10.963   0.765
72740SOL    HW220054   1.224  10.830   0.838
72741SOL     OW20055   2.035   0.769  10.674
72741SOL    HW120056   1.976   0.696  10.658
72741SOL    HW220057   1.979   0.839  10.707
72742SOL     OW20058   5.072   6.951   8.483
72742SOL    HW120059   5.013   6.878   8.464
72742SOL    HW220060   5.110   6.974   8.398
72743SOL     OW20061  13.284   2.518   0.153
72743SOL    HW120062  13.229   2.596   0.154
72743SOL    HW220063  13.300   2.502   0.060
72744SOL     OW20064   1.711   8.666  13.431
72744SOL    HW120065   1.770   8.741  13.423
72744SOL    HW220066   1.765   8.597  13.469
72745SOL     OW20067   3.402   1.852   3.464
72745SOL    HW120068   3.314   1.889   3.474
72745SOL    HW220069   3.426   1.823   3.552
72746SOL     OW20070   7.362   9.492   8.299
72746SOL    HW120071   7.331   9.418   8.248
72746SOL    HW220072   7.451   9.509   8.266
72747SOL     OW20073   2.512  13.694   3.251
72747SOL    HW120074   2.524  13.621   3.312
72747SOL    HW220075   2.520  13.772   3.305
72748SOL     OW20076  11.607  12.323   4.312
72748SOL    HW120077  11.654  12.299   4.232
72748SOL    HW220078  11.545  12.390   4.285
72749SOL     OW20079   8.588  13.187   1.775
72749SOL    HW120080   8.574  13.282   1.785
72749SOL    HW220081   8.614  13.158   1.863
72750SOL     OW20082  13.860   5.852  13.403
72750SOL    HW120083  13.903   5.794  13.340
72750SOL    HW220084  13.861   5.938  13.360
72751SOL     OW20085   9.506   1.153   2.291
72751SOL    HW120086   9.514   1.087   2.222
72751SOL    HW220087   9.568   1.126   2.358
72752SOL     OW20088   4.474  12.156   0.833
72752SOL    HW120089   4.395  12.102   0.833
72752SOL    HW220090   4.532  12.112   0.895
72753SOL     OW20091   9.001  12.824   0.940
72753SOL    HW120092   9.080  12.878   0.937
72753SOL    HW220093   9.016  12.765   1.015
72754SOL     OW20094   5.132  13.904   5.652
72754SOL    HW120095   5.165  13.988   5.682
72754SOL    HW220096   5.048  13.924   5.611
72755SOL     OW20097   9.675   1.816  12.960
72755SOL    HW120098   9.629   1.736  12.931
72755SOL    HW220099   9.613   1.887  12.942
72756SOL     OW20100   5.358   2.068  13.273
72756SOL    HW120101   5.318   2.026  13.348
72756SOL    HW220102   5.410   2.000  13.232
72757SOL     OW20103  10.662   1.646   3.574
72757SOL    HW120104  10.573   1.653   3.609
72757SOL    HW220105  10.713   1.708   3.627
72758SOL     OW20106   2.979   6.277  10.136
72758SOL    HW120107   2.952   6.313  10.052
72758SOL    HW220108   3.004   6.353  10.189
72759SOL     OW20109   5.886   5.152  11.220
72759SOL    HW120110   5.979   5.172  11.202
72759SOL    HW220111   5.872   5.066  11.181
72760SOL     OW20112   3.001   5.287   2.871
72760SOL    HW120113   2.981   5.194   2.880
72760SOL    HW220114   3.083   5.298   2.920
72761SOL     OW20115   2.595   8.772  13.635
72761SOL    HW120116   2.536   8.815  13.696
72761SOL    HW220117   2.683   8.795  13.665
72762SOL     OW20118   7.718  14.141  13.428
72762SOL    HW120119   7.741  14.052  13.453
72762SOL    HW220120   7.624  14.139  13.411
72763SOL     OW20121   8.753  12.347  14.158
72763SOL    HW120122   8.721  12.276  14.213
72763SOL    HW220123   8.838  12.371  14.195
72764SOL     OW20124   2.014   7.139   8.691
72764SOL    HW120125   2.028   7.216   8.747
72764SOL    HW220126   2.053   7.067   8.740
72765SOL     OW20127   0.492   4.960   9.107
72765SOL    HW120128   0.410   5.008   9.109
72765SOL    HW220129   0.554   5.019   9.064
72766SOL     OW20130   3.269  11.636   8.065
72766SOL    HW120131   3.260  11.669   7.976
72766SOL    HW220132   3.335  11.567   8.060
72767SOL     OW20133   1.789   3.573   7.687
72767SOL    HW120134   1.872   3.574   7.639
72767SOL    HW220135   1.777   3.481   7.712
72768SOL     OW20136  12.658   7.370   0.478
72768SOL    HW120137  12.747   7.388   0.447
72768SOL    HW220138  12.662   7.384   0.572
72769SOL     OW20139   1.458   7.331   9.628
72769SOL    HW120140   1.444   7.404   9.568
72769SOL    HW220141   1.374   7.285   9.630
72770SOL     OW20142  10.919   8.544  12.189
72770SOL    HW120143  10.970   8.618  12.156
72770SOL    HW220144  10.880   8.575  12.270
72771SOL     OW20145   4.699   1.808  12.611
72771SOL    HW120146   4.762   1.763  12.555
72771SOL    HW220147   4.632   1.742  12.629
72772SOL     OW20148   1.707  14.415  10.773
72772SOL    HW120149   1.644  14.392  10.705
72772SOL    HW220150   1.654  14.459  10.840
72773SOL     OW20151   8.930  12.113  14.067
72773SOL    HW120152   8.967  12.157  14.143
72773SOL    HW220153   9.005  12.077  14.020
72774SOL     OW20154  13.101   2.726   0.710
72774SOL    HW120155  13.008   2.739   0.692
72774SOL    HW220156  13.141   2.711   0.624
72775SOL     OW20157   1.401   9.092   1.659
72775SOL    HW120158   1.474   9.104   1.720
72775SOL    HW220159   1.438   9.108   1.572
72776SOL     OW20160   0.100   4.386  12.043
72776SOL    HW120161   0.150   4.466  12.062
72776SOL    HW220162   0.166   4.320  12.022
72777SOL     OW20163   3.152  10.814  14.698
72777SOL    HW120164   3.179  10.860  14.778
72777SOL    HW220165   3.140  10.723  14.727
72778SOL     OW20166   9.141   4.729  12.788
72778SOL    HW120167   9.193   4.677  12.848
72778SOL    HW220168   9.204   4.787  12.745
72779SOL     OW20169   2.926  13.199   1.760
72779SOL    HW120170   2.853  13.242   1.717
72779SOL    HW220171   3.004  13.236   1.718
72780SOL     OW20172  11.696  12.134   9.548
72780SOL    HW120173  11.691  12.169   9.637
72780SOL    HW220174  11.773  12.078   9.549
72781SOL     OW20175  11.080  12.354   6.044
72781SOL    HW120176  11.011  12.287   6.039
72781SOL    HW220177  11.158  12.309   6.012
72782SOL     OW20178   8.628   5.877   0.984
72782SOL    HW120179   8.574   5.948   0.951
72782SOL    HW220180   8.710   5.919   1.011
72783SOL     OW20181   0.282  12.189  13.296
72783SOL    HW120182   0.277  12.095  13.311
72783SOL    HW220183   0.312  12.199  13.206
72784SOL     OW20184   4.628  10.860  11.251
72784SOL    HW120185   4.566  10.827  11.317
72784SOL    HW220186   4.652  10.783  11.201
72785SOL     OW20187   7.134   3.725   5.256
72785SOL    HW120188   7.177   3.788   5.314
72785SOL    HW220189   7.204   3.668   5.226
72786SOL     OW20190  13.006  14.567  10.356
72786SOL    HW120191  13.051  14.556  10.273
72786SOL    HW220192  13.048  14.643  10.396
72787SOL     OW20193   1.090   7.988  13.864
72787SOL    HW120194   1.072   7.898  13.890
72787SOL    HW220195   1.175   7.984  13.819
72788SOL     OW20196  12.748  13.973   5.813
72788SOL    HW120197  12.719  13.970   5.722
72788SOL    HW220198  12.746  14.066   5.836
72789SOL     OW20199   4.469   3.742  14.808
72789SOL    HW120200   4.420   3.664  14.782
72789SOL    HW220201   4.540   3.710  14.863
72790SOL     OW20202  10.487  13.366   1.362
72790SOL    HW120203  10.498  13.291   1.420
72790SOL    HW220204  10.551  13.351   1.292
72791SOL     OW20205   1.233  13.896  10.732
72791SOL    HW120206   1.309  13.844  10.707
72791SOL    HW220207   1.218  13.953  10.656
72792SOL     OW20208  11.198   0.579   2.542
72792SOL    HW120209  11.254   0.655   2.558
72792SOL    HW220210  11.148   0.601   2.464
72793SOL     OW20211   5.726  14.498   0.605
72793SOL    HW120212   5.715  14.471   0.696
72793SOL    HW220213   5.638  14.516   0.574
72794SOL     OW20214   8.054   9.454   3.997
72794SOL    HW120215   8.099   9.383   4.044
72794SOL    HW220216   8.120   9.522   3.986
72795SOL     OW20217   6.269   9.699   7.290
72795SOL    HW120218   6.220   9.625   7.328
72795SOL    HW220219   6.204   9.746   7.238
72796SOL     OW20220   9.087   1.858   6.181
72796SOL    HW120221   9.161   1.801   6.159
72796SOL    HW220222   9.029   1.851   6.105
72797SOL     OW20223   4.280   1.512   9.535
72797SOL    HW120224   4.237   1.496   9.451
72797SOL    HW220225   4.287   1.608   9.541
72798SOL     OW20226  13.676   5.636   9.137
72798SOL    HW120227  13.732   5.560   9.150
72798SOL    HW220228  13.649   5.631   9.046
72799SOL     OW20229   7.223   6.835  13.925
72799SOL    HW120230   7.153   6.769  13.925
72799SOL    HW220231   7.226   6.866  13.834
72800SOL     OW20232   6.425   7.793   2.099
72800SOL    HW120233   6.446   7.886   2.104
72800SOL    HW220234   6.372   7.777   2.177
72801SOL     OW20235   5.225   9.875   4.826
72801SOL    HW120236   5.133   9.880   4.852
72801SOL    HW220237   5.258   9.964   4.838
72802SOL     OW20238  14.253   6.952   7.532
72802SOL    HW120239  14.297   7.032   7.560
72802SOL    HW220240  14.251   6.957   7.437
72803SOL     OW20241   6.054  13.806   3.823
72803SOL    HW120242   6.050  13.891   3.780
72803SOL    HW220243   6.022  13.822   3.912
72804SOL     OW20244   1.554   6.790   8.376
72804SOL    HW120245   1.488   6.816   8.313
72804SOL    HW220246   1.505   6.751   8.448
72805SOL     OW20247  10.614   7.636   4.789
72805SOL    HW120248  10.709   7.640   4.792
72805SOL    HW220249  10.594   7.544   4.770
72806SOL     OW20250   5.034   6.817  10.559
72806SOL    HW120251   5.086   6.756  10.507
72806SOL    HW220252   4.943   6.795  10.538
72807SOL     OW20253   8.693  14.723   5.407
72807SOL    HW120254   8.656  14.810   5.393
72807SOL    HW220255   8.655  14.669   5.337
72808SOL     OW20256  11.680   2.045   1.614
72808SOL    HW120257  11.597   2.072   1.653
72808SOL    HW220258  11.746   2.067   1.679
72809SOL     OW20259  11.582  12.281  11.272
72809SOL    HW120260  11.637  12.350  11.236
72809SOL    HW220261  11.572  12.303  11.365
72810SOL     OW20262   4.032   5.053   0.813
72810SOL    HW120263   4.080   5.123   0.858
72810SOL    HW220264   3.943   5.087   0.804
72811SOL     OW20265  11.386  10.846   8.423
72811SOL    HW120266  11.359  10.755   8.436
72811SOL    HW220267  11.419  10.873   8.509
72812SOL     OW20268  13.761  14.793   7.539
72812SOL    HW120269  13.696  14.781   7.469
72812SOL    HW220270  13.811  14.870   7.512
72813SOL     OW20271   6.481   7.050  11.550
72813SOL    HW120272   6.536   6.974  11.570
72813SOL    HW220273   6.405   7.013  11.506
72814SOL     OW20274  10.548   1.378   3.793
72814SOL    HW120275  10.620   1.318   3.774
72814SOL    HW220276  10.563   1.405   3.884
72815SOL     OW20277   1.203   6.674   3.766
72815SOL    HW120278   1.208   6.590   3.720
72815SOL    HW220279   1.209   6.652   3.859
72816SOL     OW20280   4.016   2.511  11.213
72816SOL    HW120281   4.081   2.571  11.176
72816SOL    HW220282   3.952   2.498  11.143
72817SOL     OW20283   4.845   2.506   1.180
72817SOL    HW120284   4.889   2.562   1.115
72817SOL    HW220285   4.883   2.532   1.264
72818SOL     OW20286   1.944  11.071   7.816
72818SOL    HW120287   1.966  10.991   7.863
72818SOL    HW220288   1.874  11.110   7.868
72819SOL     OW20289   9.826   5.917   6.634
72819SOL    HW120290   9.816   5.912   6.729
72819SOL    HW220291   9.919   5.899   6.619
72820SOL     OW20292   2.121   7.922  12.479
72820SOL    HW120293   2.198   7.879  12.442
72820SOL    HW220294   2.155   7.980  12.546
72821SOL     OW20295  12.228  10.965   3.944
72821SOL    HW120296  12.149  10.917   3.918
72821SOL    HW220297  12.226  11.045   3.892
72822SOL     OW20298   1.191   3.928   4.843
72822SOL    HW120299   1.098   3.912   4.858
72822SOL    HW220300   1.194   3.980   4.763
72823SOL     OW20301   2.851   4.958   5.160
72823SOL    HW120302   2.817   4.893   5.099
72823SOL    HW220303   2.774   4.990   5.207
72824SOL     OW20304   3.208   3.799   0.330
72824SOL    HW120305   3.130   3.779   0.383
72824SOL    HW220306   3.231   3.889   0.356
72825SOL     OW20307   5.063  11.431   8.783
72825SOL    HW120308   5.093  11.404   8.696
72825SOL    HW220309   5.099  11.519   8.795
72826SOL     OW20310   3.755   7.317  12.213
72826SOL    HW120311   3.735   7.262  12.289
72826SOL    HW220312   3.848   7.300  12.195
72827SOL     OW20313   8.861   4.893   7.478
72827SOL    HW120314   8.807   4.831   7.428
72827SOL    HW220315   8.875   4.967   7.418
72828SOL     OW20316  12.197   9.814  12.524
72828SOL    HW120317  12.291   9.804  12.542
72828SOL    HW220318  12.172   9.894  12.570
72829SOL     OW20319   6.180   9.072   9.097
72829SOL    HW120320   6.094   9.093   9.135
72829SOL    HW220321   6.224   9.157   9.091
72830SOL     OW20322   1.810   7.953   8.068
72830SOL    HW120323   1.776   7.881   8.121
72830SOL    HW220324   1.900   7.927   8.048
72831SOL     OW20325   1.310   3.536   0.289
72831SOL    HW120326   1.354   3.525   0.373
72831SOL    HW220327   1.360   3.605   0.244
72832SOL     OW20328   6.163  11.861   7.235
72832SOL    HW120329   6.190  11.866   7.327
72832SOL    HW220330   6.243  11.878   7.185
72833SOL     OW20331  12.721  14.844   3.791
72833SOL    HW120332  12.647  14.865   3.847
72833SOL    HW220333  12.697  14.761   3.750
72834SOL     OW20334   1.179   5.967  14.384
72834SOL    HW120335   1.145   5.891  14.431
72834SOL    HW220336   1.266   5.982  14.422
72835SOL     OW20337  11.477  12.470  10.213
72835SOL    HW120338  11.534  12.437  10.282
72835SOL    HW220339  11.397  12.496  10.259
72836SOL     OW20340   5.693   1.370   8.148
72836SOL    HW120341   5.763   1.407   8.201
72836SOL    HW220342   5.705   1.275   8.156
72837SOL     OW20343  11.034  12.038   6.889
72837SOL    HW120344  10.964  12.073   6.944
72837SOL    HW220345  11.026  11.943   6.899
72838SOL     OW20346   7.935   9.043  12.124
72838SOL    HW120347   7.891   9.118  12.085
72838SOL    HW220348   8.011   9.080  12.168
72839SOL     OW20349  13.467   3.286   9.259
72839SOL    HW120350  13.425   3.341   9.193
72839SOL    HW220351  13.394   3.253   9.312
72840SOL     OW20352  14.544   6.301   1.175
72840SOL    HW120353  14.494   6.373   1.213
72840SOL    HW220354  14.573   6.335   1.090
72841SOL     OW20355   4.687  10.139   7.824
72841SOL    HW120356   4.704  10.233   7.824
72841SOL    HW220357   4.725  10.107   7.906
72842SOL     OW20358  14.715   4.714   1.346
72842SOL    HW120359  14.776   4.643   1.368
72842SOL    HW220360  14.645   4.705   1.411
72843SOL     OW20361  10.775   2.504   5.541
72843SOL    HW120362  10.749   2.521   5.632
72843SOL    HW220363  10.868   2.526   5.537
72844SOL     OW20364  10.727   2.966   9.662
72844SOL    HW120365  10.694   2.903   9.598
72844SOL    HW220366  10.694   2.934   9.746
72845SOL     OW20367  10.925  11.085   9.833
72845SOL    HW120368  10.906  11.029   9.758
72845SOL    HW220369  11.016  11.065   9.857
72846SOL     OW20370   1.865  10.890   6.656
72846SOL    HW120371   1.925  10.825   6.620
72846SOL    HW220372   1.790  10.839   6.687
72847SOL     OW20373  12.970   5.001   0.846
72847SOL    HW120374  13.027   5.014   0.922
72847SOL    HW220375  13.019   5.040   0.773
72848SOL     OW20376   6.086   6.503   1.115
72848SOL    HW120377   6.017   6.548   1.164
72848SOL    HW220378   6.095   6.554   1.034
72849SOL     OW20379   9.552   6.030  13.108
72849SOL    HW120380   9.641   6.033  13.145
72849SOL    HW220381   9.495   6.029  13.185
72850SOL     OW20382   4.026   8.689   3.145
72850SOL    HW120383   3.964   8.621   3.116
72850SOL    HW220384   4.014   8.760   3.083
72851SOL     OW20385  10.803  12.290   3.501
72851SOL    HW120386  10.852  12.242   3.568
72851SOL    HW220387  10.722  12.239   3.490
72852SOL     OW20388  14.081   5.725  13.540
72852SOL    HW120389  14.040   5.794  13.592
72852SOL    HW220390  14.008   5.670  13.512
72853SOL     OW20391   8.421  11.549  11.946
72853SOL    HW120392   8.423  11.586  12.034
72853SOL    HW220393   8.486  11.598  11.897
72854SOL     OW20394  13.847   2.764   9.741
72854SOL    HW120395  13.873   2.715   9.663
72854SOL    HW220396  13.754   2.745   9.752
72855SOL     OW20397   5.959   9.729   6.353
72855SOL    HW120398   5.932   9.806   6.403
72855SOL    HW220399   6.023   9.763   6.290
72856SOL     OW20400   7.813  14.357   7.792
72856SOL    HW120401   7.896  14.311   7.779
72856SOL    HW220402   7.769  14.307   7.861
72857SOL     OW20403   4.611  14.198   6.868
72857SOL    HW120404   4.525  14.162   6.847
72857SOL    HW220405   4.673  14.134   6.832
72858SOL     OW20406   3.980  12.699   5.962
72858SOL    HW120407   4.049  12.644   5.923
72858SOL    HW220408   3.901  12.646   5.956
72859SOL     OW20409  11.832   3.273   7.403
72859SOL    HW120410  11.877   3.239   7.325
72859SOL    HW220411  11.901   3.318   7.452
72860SOL     OW20412   5.632   2.715  12.017
72860SOL    HW120413   5.617   2.774  11.943
72860SOL    HW220414   5.549   2.715  12.065
72861SOL     OW20415  11.071   6.185  10.161
72861SOL    HW120416  11.011   6.141  10.220
72861SOL    HW220417  11.044   6.277  10.164
72862SOL     OW20418  11.325  11.535   2.398
72862SOL    HW120419  11.401  11.482   2.422
72862SOL    HW220420  11.270  11.536   2.477
72863SOL     OW20421   1.889   9.454   3.900
72863SOL    HW120422   1.900   9.367   3.862
72863SOL    HW220423   1.805   9.451   3.946
72864SOL     OW20424  13.499  11.232  13.990
72864SOL    HW120425  13.555  11.247  13.913
72864SOL    HW220426  13.425  11.292  13.977
72865SOL     OW20427  14.396   7.515   4.900
72865SOL    HW120428  14.403   7.583   4.834
72865SOL    HW220429  14.307   7.480   4.889
72866SOL     OW20430   9.371   4.759   4.212
72866SOL    HW120431   9.439   4.816   4.247
72866SOL    HW220432   9.339   4.709   4.287
72867SOL     OW20433   2.311  14.232   0.336
72867SOL    HW120434   2.356  14.242   0.252
72867SOL    HW220435   2.241  14.169   0.317
72868SOL     OW20436   7.856   0.881   1.511
72868SOL    HW120437   7.770   0.840   1.506
72868SOL    HW220438   7.882   0.893   1.419
72869SOL     OW20439  14.146   4.455   7.261
72869SOL    HW120440  14.152   4.510   7.183
72869SOL    HW220441  14.190   4.374   7.237
72870SOL     OW20442   8.711   8.425  14.834
72870SOL    HW120443   8.725   8.366   0.030
72870SOL    HW220444   8.645   8.382  14.781
72871SOL     OW20445   1.840   5.971   8.188
72871SOL    HW120446   1.777   5.942   8.254
72871SOL    HW220447   1.908   6.016   8.238
72872SOL     OW20448  10.299   5.231  11.876
72872SOL    HW120449  10.394   5.225  11.879
72872SOL    HW220450  10.268   5.143  11.899
72873SOL     OW20451  14.405   7.419   4.238
72873SOL    HW120452  14.417   7.331   4.273
72873SOL    HW220453  14.317   7.418   4.201
72874SOL     OW20454   8.903   1.785   5.663
72874SOL    HW120455   8.886   1.693   5.646
72874SOL    HW220456   8.823   1.830   5.636
72875SOL     OW20457   5.083  11.983  14.860
72875SOL    HW120458   5.004  12.012  14.815
72875SOL    HW220459   5.139  12.060  14.864
72876SOL     OW20460  12.786  10.740   2.731
72876SOL    HW120461  12.701  10.784   2.722
72876SOL    HW220462  12.812  10.758   2.822
72877SOL     OW20463   3.628  12.985  11.648
72877SOL    HW120464   3.723  12.970  11.652
72877SOL    HW220465   3.619  13.079  11.636
72878SOL     OW20466   9.944  12.656   6.953
72878SOL    HW120467   9.911  12.666   7.042
72878SOL    HW220468  10.036  12.633   6.964
72879SOL     OW20469  13.085   1.045   4.084
72879SOL    HW120470  13.061   1.136   4.070
72879SOL    HW220471  13.020   0.994   4.035
72880SOL     OW20472   9.871  12.593   8.652
72880SOL    HW120473   9.922  12.633   8.582
72880SOL    HW220474   9.818  12.526   8.608
72881SOL     OW20475   8.858   9.063   6.156
72881SOL    HW120476   8.785   9.123   6.138
72881SOL    HW220477   8.816   8.987   6.196
72882SOL     OW20478   4.689   0.728  10.092
72882SOL    HW120479   4.693   0.638  10.126
72882SOL    HW220480   4.600   0.757  10.111
72883SOL     OW20481   3.621   2.225   3.204
72883SOL    HW120482   3.568   2.172   3.144
72883SOL    HW220483   3.588   2.314   3.193
72884SOL     OW20484   7.771   5.132  12.795
72884SOL    HW120485   7.773   5.041  12.824
72884SOL    HW220486   7.863   5.158  12.791
72885SOL     OW20487  13.893  11.846   8.347
72885SOL    HW120488  13.940  11.927   8.368
72885SOL    HW220489  13.961  11.785   8.320
72886SOL     OW20490   1.495   0.385   5.101
72886SOL    HW120491   1.410   0.352   5.130
72886SOL    HW220492   1.531   0.430   5.178
72887SOL     OW20493   3.743   4.574   4.245
72887SOL    HW120494   3.712   4.650   4.197
72887SOL    HW220495   3.828   4.554   4.205
72888SOL     OW20496   5.168  11.335  12.709
72888SOL    HW120497   5.087  11.345  12.659
72888SOL    HW220498   5.236  11.327  12.642
72889SOL     OW20499   3.252   9.049   5.974
72889SOL    HW120500   3.293   9.115   6.028
72889SOL    HW220501   3.298   9.054   5.890
72890SOL     OW20502  14.004   3.941  14.265
72890SOL    HW120503  13.950   4.007  14.222
72890SOL    HW220504  13.968   3.858  14.236
72891SOL     OW20505   1.377   8.584   9.020
72891SOL    HW120506   1.355   8.596   9.112
72891SOL    HW220507   1.468   8.612   9.014
72892SOL     OW20508  11.249  13.796   7.177
72892SOL    HW120509  11.311  13.822   7.245
72892SOL    HW220510  11.303  13.752   7.111
72893SOL     OW20511   8.768   6.609  13.016
72893SOL    HW120512   8.731   6.521  13.025
72893SOL    HW220513   8.693   6.668  13.019
72894SOL     OW20514  13.324   8.815   6.491
72894SOL    HW120515  13.379   8.790   6.417
72894SOL    HW220516  13.338   8.746   6.556
72895SOL     OW20517   0.638   2.951   7.007
72895SOL    HW120518   0.576   3.018   7.036
72895SOL    HW220519   0.629   2.881   7.071
72896SOL     OW20520  13.458  10.712   9.375
72896SOL    HW120521  13.519  10.719   9.449
72896SOL    HW220522  13.501  10.652   9.315
72897SOL     OW20523   1.899   0.895  11.819
72897SOL    HW120524   1.958   0.918  11.892
72897SOL    HW220525   1.813   0.888  11.859
72898SOL     OW20526  11.609   2.884   3.328
72898SOL    HW120527  11.645   2.796   3.320
72898SOL    HW220528  11.514   2.872   3.318
72899SOL     OW20529   7.063  13.208  12.600
72899SOL    HW120530   6.999  13.187  12.532
72899SOL    HW220531   7.130  13.141  12.592
72900SOL     OW20532   4.465   2.266   0.381
72900SOL    HW120533   4.453   2.278   0.287
72900SOL    HW220534   4.431   2.179   0.399
72901SOL     OW20535  11.947  11.574   4.822
72901SOL    HW120536  11.853  11.588   4.834
72901SOL    HW220537  11.962  11.488   4.863
72902SOL     OW20538   5.536  11.120   1.988
72902SOL    HW120539   5.615  11.152   2.032
72902SOL    HW220540   5.506  11.048   2.043
72903SOL     OW20541   4.199   1.809   2.732
72903SOL    HW120542   4.247   1.732   2.703
72903SOL    HW220543   4.265   1.876   2.745
72904SOL     OW20544   8.936   4.531   0.819
72904SOL    HW120545   8.947   4.603   0.881
72904SOL    HW220546   8.889   4.464   0.869
72905SOL     OW20547   1.544   0.358  11.093
72905SOL    HW120548   1.580   0.370  11.181
72905SOL    HW220549   1.576   0.271  11.066
72906SOL     OW20550   4.593   9.530  13.664
72906SOL    HW120551   4.656   9.483  13.609
72906SOL    HW220552   4.637   9.612  13.686
72907SOL     OW20553  11.742  11.550   6.147
72907SOL    HW120554  11.832  11.543   6.178
72907SOL    HW220555  11.694  11.484   6.197
72908SOL     OW20556   6.251  14.034  11.217
72908SOL    HW120557   6.285  13.950  11.186
72908SOL    HW220558   6.290  14.044  11.304
72909SOL     OW20559   8.332  11.591   5.465
72909SOL    HW120560   8.396  11.637   5.520
72909SOL    HW220561   8.300  11.520   5.520
72910SOL     OW20562   0.222   0.721   7.237
72910SOL    HW120563   0.273   0.803   7.240
72910SOL    HW220564   0.282   0.655   7.270
72911SOL     OW20565   3.274   7.067  12.425
72911SOL    HW120566   3.356   7.058  12.375
72911SOL    HW220567   3.205   7.055  12.360
72912SOL     OW20568   7.263   0.689  14.831
72912SOL    HW120569   7.326   0.686   0.025
72912SOL    HW220570   7.308   0.740  14.763
72913SOL     OW20571   6.743   6.737   6.394
72913SOL    HW120572   6.698   6.819   6.376
72913SOL    HW220573   6.802   6.725   6.320
72914SOL     OW20574   1.161  11.075  10.301
72914SOL    HW120575   1.089  11.022  10.334
72914SOL    HW220576   1.234  11.056  10.359
72915SOL     OW20577  14.737   7.537   2.718
72915SOL    HW120578  14.691   7.605   2.669
72915SOL    HW220579  14.741   7.570   2.808
72916SOL     OW20580   4.966   0.490   2.131
72916SOL    HW120581   4.881   0.447   2.139
72916SOL    HW220582   4.997   0.466   2.044
72917SOL     OW20583  11.930  11.850  13.286
72917SOL    HW120584  11.950  11.925  13.343
72917SOL    HW220585  11.842  11.870  13.251
72918SOL     OW20586   2.641  10.311  13.232
72918SOL    HW120587   2.670  10.399  13.255
72918SOL    HW220588   2.698  10.253  13.281
72919SOL     OW20589  11.090  13.419   1.606
72919SOL    HW120590  11.128  13.492   1.556
72919SOL    HW220591  11.165  13.377   1.647
72920SOL     OW20592  10.707  13.522   5.504
72920SOL    HW120593  10.795  13.559   5.501
72920SOL    HW220594  10.650  13.598   5.517
72921SOL     OW20595   4.384   6.592   3.451
72921SOL    HW120596   4.454   6.636   3.499
72921SOL    HW220597   4.306   6.603   3.507
72922SOL     OW20598   0.978  10.139   6.568
72922SOL    HW120599   0.907  10.203   6.559
72922SOL    HW220600   0.975  10.113   6.660
72923SOL     OW20601  14.550  14.729  13.361
72923SOL    HW120602  14.568  14.739  13.267
72923SOL    HW220603  14.567  14.815  13.398
72924SOL     OW20604   8.291  14.215   8.411
72924SOL    HW120605   8.347  14.146   8.447
72924SOL    HW220606   8.234  14.241   8.483
72925SOL     OW20607   4.405  11.959   6.810
72925SOL    HW120608   4.457  11.879   6.814
72925SOL    HW220609   4.321  11.935   6.850
72926SOL     OW20610   3.878   0.545   6.143
72926SOL    HW120611   3.914   0.634   6.144
72926SOL    HW220612   3.933   0.497   6.204
72927SOL     OW20613  13.363   9.865   8.076
72927SOL    HW120614  13.284   9.815   8.099
72927SOL    HW220615  13.394   9.824   7.996
72928SOL     OW20616   5.602   7.982  12.526
72928SOL    HW120617   5.655   8.021  12.457
72928SOL    HW220618   5.615   7.888  12.517
72929SOL     OW20619  14.876   9.187   3.907
72929SOL    HW120620  14.825   9.242   3.848
72929SOL    HW220621   0.088   9.215   3.894
72930SOL     OW20622   0.648   8.769  11.743
72930SOL    HW120623   0.723   8.778  11.802
72930SOL    HW220624   0.641   8.675  11.727
72931SOL     OW20625  14.740  14.643   7.438
72931SOL    HW120626  14.688  14.721   7.421
72931SOL    HW220627  14.826  14.677   7.465
72932SOL     OW20628   9.439   6.466   6.090
72932SOL    HW120629   9.487   6.402   6.036
72932SOL    HW220630   9.493   6.545   6.086
72933SOL     OW20631   0.986   9.810  12.235
72933SOL    HW120632   0.983   9.758  12.154
72933SOL    HW220633   0.916   9.775  12.289
72934SOL     OW20634   8.777   9.712  14.154
72934SOL    HW120635   8.717   9.781  14.125
72934SOL    HW220636   8.838   9.757  14.212
72935SOL     OW20637   4.094   2.491  14.454
72935SOL    HW120638   4.133   2.419  14.503
72935SOL    HW220639   4.150   2.501  14.377
72936SOL     OW20640  12.161  12.049   2.055
72936SOL    HW120641  12.203  12.043   1.969
72936SOL    HW220642  12.229  12.084   2.113
72937SOL     OW20643   3.781   2.981   9.690
72937SOL    HW120644   3.789   3.047   9.759
72937SOL    HW220645   3.769   2.899   9.736
72938SOL     OW20646   9.293  12.063  14.516
72938SOL    HW120647   9.313  12.096  14.428
72938SOL    HW220648   9.228  12.124  14.551
72939SOL     OW20649   5.456   9.623  11.745
72939SOL    HW120650   5.454   9.642  11.839
72939SOL    HW220651   5.544   9.649  11.718
72940SOL     OW20652   6.922   5.673   0.870
72940SOL    HW120653   7.012   5.662   0.838
72940SOL    HW220654   6.902   5.765   0.853
72941SOL     OW20655   4.163   6.395   6.587
72941SOL    HW120656   4.087   6.443   6.620
72941SOL    HW220657   4.226   6.396   6.659
72942SOL     OW20658   6.158  12.734  14.462
72942SOL    HW120659   6.124  12.678  14.532
72942SOL    HW220660   6.142  12.823  14.492
72943SOL     OW20661  12.698   4.500   5.673
72943SOL    HW120662  12.623   4.559   5.669
72943SOL    HW220663  12.664   4.417   5.640
72944SOL     OW20664   0.240   7.004   3.289
72944SOL    HW120665   0.156   6.958   3.282
72944SOL    HW220666   0.297   6.944   3.336
72945SOL     OW20667  13.154  12.224   2.301
72945SOL    HW120668  13.160  12.254   2.392
72945SOL    HW220669  13.060  12.223   2.283
72946SOL     OW20670   5.370   9.023   0.732
72946SOL    HW120671   5.430   9.081   0.779
72946SOL    HW220672   5.289   9.026   0.781
72947SOL     OW20673   5.693   5.572   0.143
72947SOL    HW120674   5.737   5.602   0.064
72947SOL    HW220675   5.667   5.482   0.123
72948SOL     OW20676   2.145  10.297   7.250
72948SOL    HW120677   2.155  10.202   7.261
72948SOL    HW220678   2.057  10.316   7.281
72949SOL     OW20679  10.562  12.117  13.110
72949SOL    HW120680  10.583  12.039  13.058
72949SOL    HW220681  10.601  12.099  13.196
72950SOL     OW20682   0.097   2.038  12.906
72950SOL    HW120683   0.168   2.100  12.888
72950SOL    HW220684   0.061   2.066  12.990
72951SOL     OW20685   6.284  12.684  14.778
72951SOL    HW120686   6.278  12.594  14.809
72951SOL    HW220687   6.205  12.697  14.725
72952SOL     OW20688  14.250   1.105   6.100
72952SOL    HW120689  14.313   1.106   6.173
72952SOL    HW220690  14.300   1.137   6.025
72953SOL     OW20691  10.435  10.630   3.318
72953SOL    HW120692  10.366  10.646   3.381
72953SOL    HW220693  10.436  10.536   3.305
72954SOL     OW20694  10.929   2.073  14.099
72954SOL    HW120695  10.853   2.048  14.152
72954SOL    HW220696  10.980   1.992  14.091
72955SOL     OW20697   4.744   6.628  12.258
72955SOL    HW120698   4.748   6.556  12.196
72955SOL    HW220699   4.698   6.592  12.334
72956SOL     OW20700   9.976   7.133   0.677
72956SOL    HW120701  10.058   7.095   0.645
72956SOL    HW220702   9.967   7.099   0.766
72957SOL     OW20703   1.833  12.203  13.239
72957SOL    HW120704   1.820  12.292  13.207
72957SOL    HW220705   1.886  12.213  13.319
72958SOL     OW20706   6.053   4.625  12.764
72958SOL    HW120707   6.062   4.576  12.845
72958SOL    HW220708   6.139   4.619  12.723
72959SOL     OW20709   9.101  11.301  14.324
72959SOL    HW120710   9.177  11.244  14.335
72959SOL    HW220711   9.082  11.298  14.230
72960SOL     OW20712   5.502  11.116   1.057
72960SOL    HW120713   5.577  11.085   1.005
72960SOL    HW220714   5.439  11.045   1.053
72961SOL     OW20715   8.280   6.921   2.410
72961SOL    HW120716   8.216   6.948   2.476
72961SOL    HW220717   8.231   6.920   2.328
72962SOL     OW20718   5.103   9.619   7.208
72962SOL    HW120719   5.074   9.528   7.211
72962SOL    HW220720   5.043   9.665   7.267
72963SOL     OW20721   1.348   3.511   1.388
72963SOL    HW120722   1.341   3.606   1.390
72963SOL    HW220723   1.273   3.482   1.337
72964SOL     OW20724   7.497   5.730   7.839
72964SOL    HW120725   7.493   5.688   7.925
72964SOL    HW220726   7.588   5.756   7.828
72965SOL     OW20727   1.497  10.826   6.486
72965SOL    HW120728   1.584  10.839   6.450
72965SOL    HW220729   1.510  10.776   6.566
72966SOL     OW20730   8.061  13.057   8.879
72966SOL    HW120731   8.072  12.997   8.953
72966SOL    HW220732   8.149  13.065   8.842
72967SOL     OW20733   9.535   1.127   7.059
72967SOL    HW120734   9.583   1.186   7.117
72967SOL    HW220735   9.522   1.048   7.112
72968SOL     OW20736   3.512   2.914   6.039
72968SOL    HW120737   3.495   2.863   6.118
72968SOL    HW220738   3.431   2.964   6.026
72969SOL     OW20739   5.068   8.865  10.092
72969SOL    HW120740   5.001   8.856  10.024
72969SOL    HW220741   5.151   8.859  10.045
72970SOL     OW20742  13.550   9.250  12.392
72970SOL    HW120743  13.558   9.293  12.477
72970SOL    HW220744  13.554   9.322  12.328
72971SOL     OW20745   7.549  10.341   1.294
72971SOL    HW120746   7.515  10.364   1.207
72971SOL    HW220747   7.612  10.409   1.314
72972SOL     OW20748   3.522  14.765   1.216
72972SOL    HW120749   3.502  14.854   1.186
72972SOL    HW220750   3.489  14.708   1.146
72973SOL     OW20751   7.427   4.001   7.218
72973SOL    HW120752   7.491   3.940   7.254
72973SOL    HW220753   7.345   3.977   7.259
72974SOL     OW20754  14.754   6.434   3.265
72974SOL    HW120755  14.675   6.475   3.302
72974SOL    HW220756  14.825   6.492   3.292
72975SOL     OW20757   6.099   3.834   7.812
72975SOL    HW120758   6.013   3.876   7.798
72975SOL    HW220759   6.106   3.771   7.740
72976SOL     OW20760  14.517  12.605   1.491
72976SOL    HW120761  14.469  12.652   1.422
72976SOL    HW220762  14.606  12.638   1.485
72977SOL     OW20763   8.137   0.823   3.827
72977SOL    HW120764   8.218   0.781   3.797
72977SOL    HW220765   8.080   0.822   3.750
72978SOL     OW20766   1.963   4.017   1.040
72978SOL    HW120767   2.025   3.987   0.973
72978SOL    HW220768   1.894   4.061   0.990
72979SOL     OW20769  10.433   1.324  10.945
72979SOL    HW120770  10.365   1.388  10.967
72979SOL    HW220771  10.510   1.377  10.926
72980SOL     OW20772  12.230  13.356   9.297
72980SOL    HW120773  12.285  13.428   9.325
72980SOL    HW220774  12.275  13.320   9.220
72981SOL     OW20775   0.012   4.719  11.042
72981SOL    HW120776   0.102   4.707  11.012
72981SOL    HW220777   0.016   4.710  11.137
72982SOL     OW20778   1.557   5.241   8.920
72982SOL    HW120779   1.592   5.169   8.973
72982SOL    HW220780   1.464   5.219   8.908
72983SOL     OW20781   6.859   5.368  13.058
72983SOL    HW120782   6.922   5.297  13.042
72983SOL    HW220783   6.871   5.391  13.150
72984SOL     OW20784   7.196  13.435  10.748
72984SOL    HW120785   7.237  13.384  10.677
72984SOL    HW220786   7.111  13.392  10.761
72985SOL     OW20787   1.453   9.244  14.743
72985SOL    HW120788   1.407   9.315  14.789
72985SOL    HW220789   1.498   9.288  14.671
72986SOL     OW20790  11.799   0.810   1.535
72986SOL    HW120791  11.826   0.887   1.585
72986SOL    HW220792  11.853   0.812   1.456
72987SOL     OW20793   2.464  10.351   8.309
72987SOL    HW120794   2.525  10.385   8.375
72987SOL    HW220795   2.489  10.259   8.300
72988SOL     OW20796   5.649   3.183   4.558
72988SOL    HW120797   5.632   3.127   4.482
72988SOL    HW220798   5.654   3.272   4.521
72989SOL     OW20799   3.793   6.461   9.440
72989SOL    HW120800   3.885   6.489   9.443
72989SOL    HW220801   3.775   6.450   9.347
72990SOL     OW20802   0.705   0.727   5.636
72990SOL    HW120803   0.659   0.811   5.645
72990SOL    HW220804   0.727   0.721   5.543
72991SOL     OW20805   4.760  10.488  14.486
72991SOL    HW120806   4.774  10.551  14.416
72991SOL    HW220807   4.667  10.496  14.507
72992SOL     OW20808   1.940   4.264  10.762
72992SOL    HW120809   1.949   4.209  10.839
72992SOL    HW220810   1.953   4.353  10.794
72993SOL     OW20811   5.443  10.431   5.582
72993SOL    HW120812   5.479  10.450   5.495
72993SOL    HW220813   5.471  10.341   5.600
72994SOL     OW20814   5.624  13.813   5.714
72994SOL    HW120815   5.693  13.836   5.776
72994SOL    HW220816   5.557  13.879   5.727
72995SOL     OW20817   8.110   3.862   3.251
72995SOL    HW120818   8.027   3.909   3.245
72995SOL    HW220819   8.131   3.839   3.160
72996SOL     OW20820   6.841  14.200   9.206
72996SOL    HW120821   6.799  14.261   9.145
72996SOL    HW220822   6.893  14.256   9.264
72997SOL     OW20823   4.729   0.655  13.361
72997SOL    HW120824   4.662   0.621  13.301
72997SOL    HW220825   4.732   0.592  13.432
72998SOL     OW20826   6.741  10.992   6.475
72998SOL    HW120827   6.703  10.908   6.451
72998SOL    HW220828   6.813  11.005   6.414
72999SOL     OW20829   5.833   1.714   4.264
72999SOL    HW120830   5.839   1.624   4.295
72999SOL    HW220831   5.921   1.735   4.233
73000SOL     OW20832  14.870   6.040   1.645
73000SOL    HW120833   0.016   6.104   1.711
73000SOL    HW220834  14.791   5.999   1.679
73001SOL     OW20835  11.503  10.902   9.303
73001SOL    HW120836  11.581  10.852   9.326
73001SOL    HW220837  11.469  10.933   9.387
73002SOL     OW20838   1.354  10.334   5.618
73002SOL    HW120839   1.284  10.397   5.601
73002SOL    HW220840   1.410  10.378   5.683
73003SOL     OW20841   9.343   2.651  10.644
73003SOL    HW120842   9.439   2.647  10.637
73003SOL    HW220843   9.314   2.562  10.625
73004SOL     OW20844   5.178  12.108   7.015
73004SOL    HW120845   5.226  12.115   6.932
73004SOL    HW220846   5.091  12.077   6.990
73005SOL     OW20847   0.558   7.723   2.933
73005SOL    HW120848   0.563   7.813   2.901
73005SOL    HW220849   0.591   7.670   2.861
73006SOL     OW20850   4.616   3.002   4.714
73006SOL    HW120851   4.546   2.999   4.649
73006SOL    HW220852   4.603   2.923   4.766
73007SOL     OW20853   9.945   9.351  10.724
73007SOL    HW120854  10.026   9.384  10.762
73007SOL    HW220855   9.881   9.358  10.794
73008SOL     OW20856  14.071   8.235   7.588
73008SOL    HW120857  14.055   8.327   7.570
73008SOL    HW220858  13.994   8.205   7.636
73009SOL     OW20859   5.041  11.883  10.564
73009SOL    HW120860   5.029  11.831  10.484
73009SOL    HW220861   4.990  11.836  10.630
73010SOL     OW20862   9.909  10.568   9.455
73010SOL    HW120863   9.828  10.612   9.480
73010SOL    HW220864   9.965  10.639   9.422
73011SOL     OW20865   6.172   5.127   2.048
73011SOL    HW120866   6.233   5.055   2.060
73011SOL    HW220867   6.214   5.185   1.984
73012SOL     OW20868   4.616  12.541   3.415
73012SOL    HW120869   4.579  12.625   3.440
73012SOL    HW220870   4.706  12.543   3.449
73013SOL     OW20871   1.914   3.051  13.600
73013SOL    HW120872   1.864   3.054  13.519
73013SOL    HW220873   1.932   3.143  13.621
73014SOL     OW20874  13.884   9.037   4.342
73014SOL    HW120875  13.878   8.959   4.286
73014SOL    HW220876  13.977   9.060   4.340
73015SOL     OW20877   6.692   1.511  10.195
73015SOL    HW120878   6.739   1.590  10.169
73015SOL    HW220879   6.601   1.539  10.201
73016SOL     OW20880   6.898   0.611   9.668
73016SOL    HW120881   6.867   0.521   9.664
73016SOL    HW220882   6.931   0.622   9.757
73017SOL     OW20883   5.900  11.899  12.552
73017SOL    HW120884   5.939  11.957  12.486
73017SOL    HW220885   5.873  11.822  12.503
73018SOL     OW20886  14.064   6.698   2.911
73018SOL    HW120887  14.087   6.632   2.845
73018SOL    HW220888  14.122   6.679   2.985
73019SOL     OW20889   2.819   4.799   8.539
73019SOL    HW120890   2.852   4.722   8.493
73019SOL    HW220891   2.803   4.863   8.471
73020SOL     OW20892   2.956   3.304   1.864
73020SOL    HW120893   2.865   3.276   1.851
73020SOL    HW220894   2.987   3.252   1.938
73021SOL     OW20895   7.264   6.899   0.472
73021SOL    HW120896   7.238   6.828   0.414
73021SOL    HW220897   7.346   6.868   0.512
73022SOL     OW20898  11.012  11.910   8.668
73022SOL    HW120899  11.093  11.960   8.678
73022SOL    HW220900  11.036  11.838   8.610
73023SOL     OW20901   7.581   1.147   3.171
73023SOL    HW120902   7.665   1.102   3.172
73023SOL    HW220903   7.517   1.078   3.154
73024SOL     OW20904   7.610   6.328   0.972
73024SOL    HW120905   7.538   6.266   0.972
73024SOL    HW220906   7.659   6.308   1.052
73025SOL     OW20907   4.752  12.096  11.992
73025SOL    HW120908   4.813  12.166  12.014
73025SOL    HW220909   4.707  12.127  11.913
73026SOL     OW20910   8.195  14.117   5.400
73026SOL    HW120911   8.284  14.127   5.366
73026SOL    HW220912   8.153  14.200   5.379
73027SOL     OW20913  12.409   4.233   6.184
73027SOL    HW120914  12.373   4.275   6.106
73027SOL    HW220915  12.494   4.199   6.157
73028SOL     OW20916  13.303   6.086   7.865
73028SOL    HW120917  13.345   6.168   7.892
73028SOL    HW220918  13.372   6.037   7.820
73029SOL     OW20919   7.994   6.782   4.491
73029SOL    HW120920   7.957   6.808   4.406
73029SOL    HW220921   8.088   6.778   4.476
73030SOL     OW20922  14.544  12.658  11.426
73030SOL    HW120923  14.534  12.739  11.477
73030SOL    HW220924  14.610  12.608  11.474
73031SOL     OW20925  10.061   6.310  11.471
73031SOL    HW120926  10.074   6.399  11.438
73031SOL    HW220927  10.084   6.254  11.397
73032SOL     OW20928   7.552   7.201  10.486
73032SOL    HW120929   7.521   7.286  10.456
73032SOL    HW220930   7.548   7.146  10.408
73033SOL     OW20931  13.489   1.121   5.260
73033SOL    HW120932  13.444   1.038   5.249
73033SOL    HW220933  13.571   1.112   5.210
73034SOL     OW20934   4.350   8.932  11.616
73034SOL    HW120935   4.305   8.955  11.535
73034SOL    HW220936   4.280   8.906  11.677
73035SOL     OW20937   9.305  10.157   8.625
73035SOL    HW120938   9.257  10.235   8.653
73035SOL    HW220939   9.324  10.172   8.532
73036SOL     OW20940   2.833  13.856  14.471
73036SOL    HW120941   2.810  13.842  14.563
73036SOL    HW220942   2.929  13.852  14.469
73037SOL     OW20943   3.385  12.886   5.921
73037SOL    HW120944   3.383  12.979   5.945
73037SOL    HW220945   3.437  12.845   5.990
73038SOL     OW20946   3.857   7.135  13.055
73038SOL    HW120947   3.817   7.220  13.072
73038SOL    HW220948   3.938   7.136  13.106
73039SOL     OW20949  14.757   7.531   3.261
73039SOL    HW120950  14.706   7.611   3.272
73039SOL    HW220951  14.847   7.556   3.282
73040SOL     OW20952   8.403   2.319  12.751
73040SOL    HW120953   8.346   2.326  12.827
73040SOL    HW220954   8.358   2.257  12.693
73041SOL     OW20955   8.646   3.960   8.317
73041SOL    HW120956   8.610   3.981   8.231
73041SOL    HW220957   8.569   3.950   8.373
73042SOL     OW20958   2.227   0.577   1.090
73042SOL    HW120959   2.301   0.623   1.131
73042SOL    HW220960   2.197   0.636   1.021
73043SOL     OW20961  11.508  11.749  10.498
73043SOL    HW120962  11.513  11.668  10.448
73043SOL    HW220963  11.446  11.731  10.568
73044SOL     OW20964  13.010   1.422  14.023
73044SOL    HW120965  13.083   1.483  14.015
73044SOL    HW220966  12.952   1.444  13.950
73045SOL     OW20967  14.513   0.143   6.441
73045SOL    HW120968  14.542   0.057   6.472
73045SOL    HW220969  14.466   0.180   6.515
73046SOL     OW20970  14.093   3.582  14.362
73046SOL    HW120971  14.081   3.615  14.451
73046SOL    HW220972  14.083   3.487  14.370
73047SOL     OW20973   3.948   3.625  12.966
73047SOL    HW120974   4.008   3.687  12.924
73047SOL    HW220975   3.957   3.642  13.060
73048SOL     OW20976  11.099   1.446  14.516
73048SOL    HW120977  11.191   1.435  14.494
73048SOL    HW220978  11.097   1.518  14.579
73049SOL     OW20979   4.162   3.564   8.448
73049SOL    HW120980   4.226   3.558   8.518
73049SOL    HW220981   4.153   3.474   8.416
73050SOL     OW20982  13.747   7.549   0.482
73050SOL    HW120983  13.820   7.600   0.448
73050SOL    HW220984  13.707   7.605   0.548
73051SOL     OW20985   9.085  13.301  12.995
73051SOL    HW120986   9.069  13.395  12.986
73051SOL    HW220987   8.999  13.263  13.013
73052SOL     OW20988   1.759  11.664  13.992
73052SOL    HW120989   1.679  11.689  14.039
73052SOL    HW220990   1.788  11.745  13.949
73053SOL     OW20991   1.871   0.470   8.920
73053SOL    HW120992   1.803   0.414   8.883
73053SOL    HW220993   1.861   0.461   9.015
73054SOL     OW20994   5.512   3.889  13.783
73054SOL    HW120995   5.574   3.853  13.846
73054SOL    HW220996   5.538   3.981  13.773
73055SOL     OW20997  14.271   0.779  10.342
73055SOL    HW120998  14.218   0.851  10.376
73055SOL    HW220999  14.347   0.775  10.400
73056SOL     OW21000   0.453   0.918   8.492
73056SOL    HW121001   0.490   1.000   8.462
73056SOL    HW221002   0.486   0.853   8.430
73057SOL     OW21003   1.929   7.143   2.195
73057SOL    HW121004   1.975   7.214   2.238
73057SOL    HW221005   1.856   7.122   2.254
73058SOL     OW21006   2.814   6.287  13.107
73058SOL    HW121007   2.739   6.274  13.049
73058SOL    HW221008   2.875   6.217  13.083
73059SOL     OW21009   3.787   0.252   2.173
73059SOL    HW121010   3.820   0.173   2.216
73059SOL    HW221011   3.720   0.286   2.232
73060SOL     OW21012  11.459  13.617  13.350
73060SOL    HW121013  11.543  13.587  13.384
73060SOL    HW221014  11.466  13.604  13.255
73061SOL     OW21015   9.505  12.355   7.567
73061SOL    HW121016   9.591  12.394   7.585
73061SOL    HW221017   9.509  12.333   7.474
73062SOL     OW21018   3.767   8.363   3.353
73062SOL    HW121019   3.758   8.419   3.276
73062SOL    HW221020   3.813   8.418   3.417
73063SOL     OW21021   9.518   6.534   0.668
73063SOL    HW121022   9.487   6.587   0.595
73063SOL    HW221023   9.613   6.531   0.657
73064SOL     OW21024  12.977   9.811   9.908
73064SOL    HW121025  12.904   9.800   9.847
73064SOL    HW221026  13.023   9.888   9.877
73065SOL     OW21027   3.136   9.943   9.837
73065SOL    HW121028   3.045   9.939   9.866
73065SOL    HW221029   3.147  10.032   9.803
73066SOL     OW21030   8.310   5.451   8.266
73066SOL    HW121031   8.221   5.437   8.299
73066SOL    HW221032   8.366   5.414   8.334
73067SOL     OW21033   5.425   6.115  11.354
73067SOL    HW121034   5.437   6.151  11.266
73067SOL    HW221035   5.372   6.036  11.340
73068SOL     OW21036   1.578   9.973   0.767
73068SOL    HW121037   1.639   9.942   0.700
73068SOL    HW221038   1.499   9.997   0.719
73069SOL     OW21039   7.473   2.529   9.822
73069SOL    HW121040   7.415   2.579   9.765
73069SOL    HW221041   7.413   2.486   9.884
73070SOL     OW21042   0.473   6.076  10.368
73070SOL    HW121043   0.479   5.981  10.378
73070SOL    HW221044   0.485   6.110  10.457
73071SOL     OW21045  12.877  10.512   5.074
73071SOL    HW121046  12.795  10.557   5.096
73071SOL    HW221047  12.849  10.426   5.042
73072SOL     OW21048  10.033   2.664   7.313
73072SOL    HW121049  10.020   2.663   7.408
73072SOL    HW221050   9.959   2.614   7.278
73073SOL     OW21051  14.226  12.863   1.849
73073SOL    HW121052  14.156  12.846   1.786
73073SOL    HW221053  14.303  12.880   1.794
73074SOL     OW21054  12.151   8.058  11.541
73074SOL    HW121055  12.133   8.023  11.454
73074SOL    HW221056  12.234   8.016  11.567
73075SOL     OW21057   8.984   7.926   7.358
73075SOL    HW121058   8.974   7.983   7.435
73075SOL    HW221059   8.931   7.968   7.290
73076SOL     OW21060  13.545  14.530   5.575
73076SOL    HW121061  13.585  14.443   5.573
73076SOL    HW221062  13.512  14.539   5.665
73077SOL     OW21063   2.281  14.764  10.833
73077SOL    HW121064   2.206  14.766  10.894
73077SOL    HW221065   2.355  14.740  10.888
73078SOL     OW21066  14.785  10.477   8.350
73078SOL    HW121067  14.799  10.549   8.289
73078SOL    HW221068  14.694  10.452   8.337
73079SOL     OW21069   0.925   7.092  12.780
73079SOL    HW121070   0.991   7.065  12.844
73079SOL    HW221071   0.919   7.187  12.791
73080SOL     OW21072   5.836   1.783   8.927
73080SOL    HW121073   5.912   1.837   8.906
73080SOL    HW221074   5.865   1.727   8.999
73081SOL     OW21075  12.980  14.091   0.182
73081SOL    HW121076  12.963  14.105   0.089
73081SOL    HW221077  13.015  14.174   0.213
73082SOL     OW21078   0.609   2.388  12.401
73082SOL    HW121079   0.605   2.419  12.492
73082SOL    HW221080   0.546   2.316  12.398
73083SOL     OW21081   9.226   0.715   6.863
73083SOL    HW121082   9.304   0.659   6.863
73083SOL    HW221083   9.236   0.770   6.941
73084SOL     OW21084   8.433  12.505   8.021
73084SOL    HW121085   8.476  12.584   8.053
73084SOL    HW221086   8.489  12.476   7.948
73085SOL     OW21087  14.800  11.367  10.645
73085SOL    HW121088  14.730  11.419  10.684
73085SOL    HW221089  14.760  11.327  10.568
73086SOL     OW21090   2.584  10.680   6.701
73086SOL    HW121091   2.516  10.619   6.672
73086SOL    HW221092   2.565  10.762   6.655
73087SOL     OW21093   7.336   3.014   3.583
73087SOL    HW121094   7.267   3.041   3.521
73087SOL    HW221095   7.400   3.085   3.579
73088SOL     OW21096   6.639  14.361   5.933
73088SOL    HW121097   6.605  14.277   5.962
73088SOL    HW221098   6.561  14.413   5.915
73089SOL     OW21099   8.843  12.144  12.325
73089SOL    HW121100   8.807  12.133  12.237
73089SOL    HW221101   8.929  12.183  12.312
73090SOL     OW21102   7.461   3.134  11.055
73090SOL    HW121103   7.392   3.128  11.121
73090SOL    HW221104   7.542   3.146  11.106
73091SOL     OW21105   2.948   9.970   5.606
73091SOL    HW121106   3.020   9.995   5.548
73091SOL    HW221107   2.881  10.037   5.592
73092SOL     OW21108  14.063  12.375   0.231
73092SOL    HW121109  13.983  12.323   0.236
73092SOL    HW221110  14.032  12.466   0.226
73093SOL     OW21111  11.400   8.414   8.757
73093SOL    HW121112  11.378   8.345   8.821
73093SOL    HW221113  11.471   8.376   8.705
73094SOL     OW21114  12.739  13.397   9.258
73094SOL    HW121115  12.688  13.478   9.265
73094SOL    HW221116  12.746  13.381   9.164
73095SOL     OW21117   2.578  11.892   0.276
73095SOL    HW121118   2.660  11.909   0.323
73095SOL    HW221119   2.533  11.827   0.330
73096SOL     OW21120   0.909   2.299   5.164
73096SOL    HW121121   0.975   2.361   5.193
73096SOL    HW221122   0.826   2.334   5.197
73097SOL     OW21123   0.940  14.511   8.862
73097SOL    HW121124   0.948  14.424   8.823
73097SOL    HW221125   0.970  14.500   8.952
73098SOL     OW21126  12.143   9.076  12.002
73098SOL    HW121127  12.135   8.992  11.957
73098SOL    HW221128  12.098   9.139  11.945
73099SOL     OW21129   2.669  13.592   1.885
73099SOL    HW121130   2.636  13.554   1.803
73099SOL    HW221131   2.743  13.647   1.858
73100SOL     OW21132   6.973  10.056   3.469
73100SOL    HW121133   6.886  10.065   3.509
73100SOL    HW221134   6.981   9.962   3.452
73101SOL     OW21135   4.904   8.446  12.106
73101SOL    HW121136   4.845   8.467  12.178
73101SOL    HW221137   4.961   8.522  12.098
73102SOL     OW21138   5.984   4.948   3.570
73102SOL    HW121139   5.903   4.944   3.519
73102SOL    HW221140   5.956   4.967   3.659
73103SOL     OW21141  14.244   7.621   1.535
73103SOL    HW121142  14.258   7.714   1.518
73103SOL    HW221143  14.313   7.597   1.596
73104SOL     OW21144   4.075   0.500   2.338
73104SOL    HW121145   4.052   0.465   2.252
73104SOL    HW221146   3.991   0.515   2.382
73105SOL     OW21147   8.315   9.778   9.414
73105SOL    HW121148   8.342   9.743   9.499
73105SOL    HW221149   8.242   9.722   9.387
73106SOL     OW21150   7.129   7.157  12.110
73106SOL    HW121151   7.143   7.246  12.143
73106SOL    HW221152   7.216   7.118  12.108
73107SOL     OW21153   4.713   3.816  13.988
73107SOL    HW121154   4.773   3.801  14.061
73107SOL    HW221155   4.739   3.900  13.952
73108SOL     OW21156  13.786  12.920   3.897
73108SOL    HW121157  13.841  12.885   3.827
73108SOL    HW221158  13.847  12.954   3.962
73109SOL     OW21159   7.396   2.557   3.999
73109SOL    HW121160   7.386   2.573   3.905
73109SOL    HW221161   7.490   2.547   4.012
73110SOL     OW21162  12.366   8.842  11.814
73110SOL    HW121163  12.377   8.823  11.720
73110SOL    HW221164  12.412   8.925  11.827
73111SOL     OW21165   3.880   4.587   8.579
73111SOL    HW121166   3.848   4.588   8.489
73111SOL    HW221167   3.866   4.497   8.609
73112SOL     OW21168  13.070  12.368   9.453
73112SOL    HW121169  13.061  12.426   9.378
73112SOL    HW221170  12.980  12.350   9.480
73113SOL     OW21171   1.375  11.081  10.916
73113SOL    HW121172   1.298  11.060  10.863
73113SOL    HW221173   1.397  11.171  10.890
73114SOL     OW21174   1.183   5.718  12.035
73114SOL    HW121175   1.218   5.807  12.029
73114SOL    HW221176   1.260   5.662  12.037
73115SOL     OW21177   3.450   7.394   4.158
73115SOL    HW121178   3.367   7.434   4.184
73115SOL    HW221179   3.517   7.453   4.193
73116SOL     OW21180  10.933  11.800   6.967
73116SOL    HW121181  11.001  11.757   6.915
73116SOL    HW221182  10.952  11.773   7.057
73117SOL     OW21183  10.990  11.030  10.409
73117SOL    HW121184  10.960  10.969  10.476
73117SOL    HW221185  10.911  11.056  10.362
73118SOL     OW21186  13.017  11.087   7.478
73118SOL    HW121187  13.058  11.021   7.533
73118SOL    HW221188  13.084  11.155   7.469
73119SOL     OW21189  14.816  14.670   0.131
73119SOL    HW121190  14.743  14.631   0.179
73119SOL    HW221191  14.779  14.696   0.047
73120SOL     OW21192  12.975   0.862   8.315
73120SOL    HW121193  12.882   0.860   8.340
73120SOL    HW221194  12.999   0.955   8.320
73121SOL     OW21195   3.270  11.359  10.206
73121SOL    HW121196   3.242  11.417  10.135
73121SOL    HW221197   3.190  11.339  10.254
73122SOL     OW21198   9.136   8.510   7.376
73122SOL    HW121199   9.206   8.448   7.357
73122SOL    HW221200   9.134   8.515   7.471
73123SOL     OW21201  11.152  12.211   5.757
73123SOL    HW121202  11.083  12.266   5.794
73123SOL    HW221203  11.134  12.123   5.791
73124SOL     OW21204  10.030  12.844   1.406
73124SOL    HW121205  10.054  12.793   1.329
73124SOL    HW221206   9.993  12.925   1.370
73125SOL     OW21207  13.805   6.415  10.768
73125SOL    HW121208  13.794   6.327  10.804
73125SOL    HW221209  13.900   6.425  10.761
73126SOL     OW21210  10.766   6.428  11.464
73126SOL    HW121211  10.757   6.519  11.436
73126SOL    HW221212  10.686   6.386  11.432
73127SOL     OW21213   3.743   3.608   3.942
73127SOL    HW121214   3.663   3.570   3.978
73127SOL    HW221215   3.721   3.699   3.923
73128SOL     OW21216   5.534  13.292  10.943
73128SOL    HW121217   5.542  13.322  11.034
73128SOL    HW221218   5.537  13.371  10.891
73129SOL     OW21219   0.485   2.344   8.666
73129SOL    HW121220   0.465   2.436   8.646
73129SOL    HW221221   0.448   2.295   8.593
73130SOL     OW21222   2.849   7.791   4.279
73130SOL    HW121223   2.937   7.827   4.294
73130SOL    HW221224   2.853   7.755   4.190
73131SOL     OW21225  11.672   2.924   4.194
73131SOL    HW121226  11.726   3.002   4.178
73131SOL    HW221227  11.600   2.956   4.248
73132SOL     OW21228   1.133  11.098  14.770
73132SOL    HW121229   1.085  11.180  14.766
73132SOL    HW221230   1.082  11.037  14.716
73133SOL     OW21231  12.452   4.549   1.563
73133SOL    HW121232  12.470   4.594   1.481
73133SOL    HW221233  12.525   4.488   1.574
73134SOL     OW21234   9.894   4.918   7.197
73134SOL    HW121235   9.953   4.889   7.266
73134SOL    HW221236   9.922   5.006   7.175
73135SOL     OW21237   4.224   5.741   5.082
73135SOL    HW121238   4.262   5.665   5.038
73135SOL    HW221239   4.139   5.711   5.114
73136SOL     OW21240   4.740   5.766   9.506
73136SOL    HW121241   4.796   5.712   9.450
73136SOL    HW221242   4.652   5.729   9.495
73137SOL     OW21243   5.621   7.232   9.580
73137SOL    HW121244   5.646   7.192   9.497
73137SOL    HW221245   5.591   7.320   9.555
73138SOL     OW21246   4.852   9.972  14.341
73138SOL    HW121247   4.855   9.883  14.376
73138SOL    HW221248   4.911  10.022  14.397
73139SOL     OW21249   9.172  12.956  12.110
73139SOL    HW121250   9.169  13.014  12.034
73139SOL    HW221251   9.240  12.891  12.088
73140SOL     OW21252   9.223   9.260  14.444
73140SOL    HW121253   9.265   9.339  14.410
73140SOL    HW221254   9.130   9.282  14.449
73141SOL     OW21255  12.217   0.426   5.743
73141SOL    HW121256  12.146   0.377   5.784
73141SOL    HW221257  12.263   0.467   5.815
73142SOL     OW21258   3.550  13.205  10.733
73142SOL    HW121259   3.562  13.113  10.709
73142SOL    HW221260   3.455  13.217  10.732
73143SOL     OW21261   9.445  14.775   6.499
73143SOL    HW121262   9.425  14.833   6.573
73143SOL    HW221263   9.359  14.748   6.466
73144SOL     OW21264   7.183   8.359  12.690
73144SOL    HW121265   7.253   8.295  12.703
73144SOL    HW221266   7.145   8.337  12.605
73145SOL     OW21267   1.519   3.400   7.805
73145SOL    HW121268   1.609   3.387   7.774
73145SOL    HW221269   1.510   3.494   7.815
73146SOL     OW21270   6.647   1.064  12.381
73146SOL    HW121271   6.650   0.970  12.399
73146SOL    HW221272   6.734   1.085  12.347
73147SOL     OW21273   7.232  11.924   2.695
73147SOL    HW121274   7.323  11.898   2.705
73147SOL    HW221275   7.183  11.867   2.754
73148SOL     OW21276  11.129   5.499   2.035
73148SOL    HW121277  11.093   5.433   2.094
73148SOL    HW221278  11.093   5.475   1.949
73149SOL     OW21279   9.909   2.056  11.831
73149SOL    HW121280   9.864   2.082  11.912
73149SOL    HW221281   9.913   2.137  11.779
73150SOL     OW21282   0.091  12.627   6.919
73150SOL    HW121283   0.099  12.712   6.875
73150SOL    HW221284   0.060  12.568   6.850
73151SOL     OW21285   8.775   2.560   1.943
73151SOL    HW121286   8.709   2.569   1.874
73151SOL    HW221287   8.801   2.650   1.963
73152SOL     OW21288   7.823   8.993   6.809
73152SOL    HW121289   7.815   8.938   6.887
73152SOL    HW221290   7.733   9.003   6.777
73153SOL     OW21291   1.824   1.704   2.412
73153SOL    HW121292   1.851   1.665   2.329
73153SOL    HW221293   1.905   1.715   2.461
73154SOL     OW21294   8.086   3.752   1.135
73154SOL    HW121295   8.144   3.822   1.108
73154SOL    HW221296   8.117   3.675   1.087
73155SOL     OW21297  10.768   8.514  14.275
73155SOL    HW121298  10.794   8.514  14.367
73155SOL    HW221299  10.758   8.607  14.254
73156SOL     OW21300  13.136  14.603   6.071
73156SOL    HW121301  13.157  14.695   6.087
73156SOL    HW221302  13.137  14.594   5.976
73157SOL     OW21303   3.362   8.922  14.771
73157SOL    HW121304   3.436   8.944  14.715
73157SOL    HW221305   3.401   8.904  14.857
73158SOL     OW21306   0.793   8.721   2.542
73158SOL    HW121307   0.795   8.700   2.449
73158SOL    HW221308   0.778   8.816   2.544
73159SOL     OW21309   0.546   8.905   6.179
73159SOL    HW121310   0.637   8.923   6.202
73159SOL    HW221311   0.551   8.860   6.095
73160SOL     OW21312  13.428  13.151  12.642
73160SOL    HW121313  13.448  13.241  12.616
73160SOL    HW221314  13.389  13.111  12.564
73161SOL     OW21315  12.482   9.727  12.534
73161SOL    HW121316  12.499   9.652  12.478
73161SOL    HW221317  12.479   9.690  12.623
73162SOL     OW21318   2.549   3.790   3.484
73162SOL    HW121319   2.459   3.769   3.505
73162SOL    HW221320   2.559   3.882   3.511
73163SOL     OW21321  14.127   4.034  11.594
73163SOL    HW121322  14.083   4.101  11.542
73163SOL    HW221323  14.212   4.023  11.553
73164SOL     OW21324  11.103   7.786  10.433
73164SOL    HW121325  11.029   7.754  10.485
73164SOL    HW221326  11.068   7.794  10.344
73165SOL     OW21327   0.291  10.729   7.734
73165SOL    HW121328   0.387  10.736   7.742
73165SOL    HW221329   0.259  10.815   7.759
73166SOL     OW21330   1.833   9.176   6.442
73166SOL    HW121331   1.869   9.088   6.457
73166SOL    HW221332   1.778   9.192   6.518
73167SOL     OW21333   7.102   9.541  13.944
73167SOL    HW121334   7.097   9.461  13.893
73167SOL    HW221335   7.014   9.553  13.980
73168SOL     OW21336   2.448   7.860   5.134
73168SOL    HW121337   2.465   7.787   5.075
73168SOL    HW221338   2.431   7.934   5.076
73169SOL     OW21339   6.110   7.353   9.356
73169SOL    HW121340   6.157   7.378   9.436
73169SOL    HW221341   6.166   7.382   9.284
73170SOL     OW21342   8.443  13.799   4.222
73170SOL    HW121343   8.495  13.722   4.198
73170SOL    HW221344   8.485  13.871   4.174
73171SOL     OW21345  10.755   5.483   9.692
73171SOL    HW121346  10.675   5.487   9.639
73171SOL    HW221347  10.725   5.500   9.782
73172SOL     OW21348   0.197   7.554  12.782
73172SOL    HW121349   0.178   7.647  12.799
73172SOL    HW221350   0.111   7.515  12.768
73173SOL     OW21351   8.657  13.815   3.715
73173SOL    HW121352   8.696  13.893   3.675
73173SOL    HW221353   8.609  13.773   3.644
73174SOL     OW21354   0.841  11.390   5.574
73174SOL    HW121355   0.917  11.378   5.517
73174SOL    HW221356   0.857  11.330   5.647
73175SOL     OW21357   4.318  13.362  13.408
73175SOL    HW121358   4.253  13.356  13.338
73175SOL    HW221359   4.305  13.450  13.444
73176SOL     OW21360   0.135  11.302  13.755
73176SOL    HW121361   0.064  11.324  13.816
73176SOL    HW221362   0.091  11.260  13.682
73177SOL     OW21363   8.600  11.071   6.945
73177SOL    HW121364   8.522  11.118   6.974
73177SOL    HW221365   8.599  10.989   6.994
73178SOL     OW21366  10.754   8.143   7.725
73178SOL    HW121367  10.767   8.136   7.820
73178SOL    HW221368  10.661   8.167   7.716
73179SOL     OW21369   3.305   6.935  12.666
73179SOL    HW121370   3.216   6.920  12.700
73179SOL    HW221371   3.292   6.960  12.574
73180SOL     OW21372  11.007  14.456   3.574
73180SOL    HW121373  10.997  14.458   3.479
73180SOL    HW221374  10.947  14.387   3.603
73181SOL     OW21375   2.020  14.397  11.081
73181SOL    HW121376   2.004  14.455  11.007
73181SOL    HW221377   1.970  14.318  11.062
73182SOL     OW21378   6.249   5.699  10.529
73182SOL    HW121379   6.262   5.631  10.463
73182SOL    HW221380   6.325   5.756  10.518
73183SOL     OW21381   6.385  11.642   2.252
73183SOL    HW121382   6.478  11.627   2.238
73183SOL    HW221383   6.342  11.592   2.182
73184SOL     OW21384   6.179   4.819  10.330
73184SOL    HW121385   6.114   4.749  10.329
73184SOL    HW221386   6.256   4.780  10.289
73185SOL     OW21387  14.051   2.134   3.557
73185SOL    HW121388  14.124   2.072   3.563
73185SOL    HW221389  14.053   2.165   3.467
73186SOL     OW21390   7.166  14.778   3.499
73186SOL    HW121391   7.090  14.733   3.460
73186SOL    HW221392   7.240  14.749   3.446
73187SOL     OW21393   9.517   4.586   5.745
73187SOL    HW121394   9.480   4.561   5.661
73187SOL    HW221395   9.570   4.511   5.771
73188SOL     OW21396   2.137   6.671   3.705
73188SOL    HW121397   2.205   6.717   3.656
73188SOL    HW221398   2.055   6.697   3.663
73189SOL     OW21399   1.197   7.242   8.405
73189SOL    HW121400   1.145   7.308   8.358
73189SOL    HW221401   1.223   7.285   8.486
73190SOL     OW21402   1.529   0.398   9.088
73190SOL    HW121403   1.576   0.473   9.125
73190SOL    HW221404   1.593   0.327   9.088
73191SOL     OW21405   0.889  12.636  12.905
73191SOL    HW121406   0.916  12.560  12.957
73191SOL    HW221407   0.876  12.601  12.816
73192SOL     OW21408  11.395   8.773  11.972
73192SOL    HW121409  11.341   8.847  11.999
73192SOL    HW221410  11.401   8.781  11.876
73193SOL     OW21411   9.879   2.816   6.039
73193SOL    HW121412   9.942   2.888   6.031
73193SOL    HW221413   9.842   2.806   5.952
73194SOL     OW21414   9.211   3.741   0.809
73194SOL    HW121415   9.288   3.780   0.768
73194SOL    HW221416   9.143   3.745   0.742
73195SOL     OW21417  12.050  13.267  11.459
73195SOL    HW121418  12.095  13.348  11.435
73195SOL    HW221419  12.106  13.228  11.527
73196SOL     OW21420  12.629   0.748   4.032
73196SOL    HW121421  12.577   0.789   3.963
73196SOL    HW221422  12.607   0.797   4.111
73197SOL     OW21423   1.588  13.622  12.807
73197SOL    HW121424   1.602  13.535  12.843
73197SOL    HW221425   1.579  13.609  12.713
73198SOL     OW21426   0.236   0.696   8.687
73198SOL    HW121427   0.167   0.708   8.752
73198SOL    HW221428   0.193   0.651   8.614
73199SOL     OW21429   9.378   4.381   1.955
73199SOL    HW121430   9.405   4.357   1.866
73199SOL    HW221431   9.310   4.447   1.942
73200SOL     OW21432  11.063   2.751   5.935
73200SOL    HW121433  11.158   2.744   5.930
73200SOL    HW221434  11.038   2.785   5.849
73201SOL     OW21435   5.960   3.833   0.165
73201SOL    HW121436   5.886   3.780   0.195
73201SOL    HW221437   6.037   3.791   0.202
73202SOL     OW21438   6.706   9.969  13.258
73202SOL    HW121439   6.635  10.033  13.265
73202SOL    HW221440   6.696   9.931  13.170
73203SOL     OW21441  13.485   7.118  11.659
73203SOL    HW121442  13.481   7.166  11.576
73203SOL    HW221443  13.563   7.152  11.703
73204SOL     OW21444   9.194   7.235  12.846
73204SOL    HW121445   9.268   7.256  12.903
73204SOL    HW221446   9.224   7.161  12.793
73205SOL     OW21447   9.802   4.774  14.446
73205SOL    HW121448   9.832   4.838  14.382
73205SOL    HW221449   9.833   4.690  14.412
73206SOL     OW21450   6.858   6.775   8.775
73206SOL    HW121451   6.786   6.775   8.712
73206SOL    HW221452   6.900   6.690   8.764
73207SOL     OW21453  12.985  11.992  13.086
73207SOL    HW121454  13.071  11.961  13.114
73207SOL    HW221455  12.923  11.931  13.127
73208SOL     OW21456  12.410   2.892  14.766
73208SOL    HW121457  12.411   2.796  14.764
73208SOL    HW221458  12.435   2.914  14.856
73209SOL     OW21459   9.688  14.408   3.888
73209SOL    HW121460   9.645  14.366   3.963
73209SOL    HW221461   9.628  14.478   3.863
73210SOL     OW21462  14.528   6.061   1.981
73210SOL    HW121463  14.482   6.020   2.054
73210SOL    HW221464  14.543   6.151   2.008
73211SOL     OW21465   0.347   9.445   0.452
73211SOL    HW121466   0.391   9.481   0.375
73211SOL    HW221467   0.271   9.399   0.416
73212SOL     OW21468  11.390   1.141   7.063
73212SOL    HW121469  11.394   1.146   7.158
73212SOL    HW221470  11.404   1.231   7.033
73213SOL     OW21471   0.146  13.187  13.888
73213SOL    HW121472   0.124  13.270  13.930
73213SOL    HW221473   0.067  13.134  13.898
73214SOL     OW21474   9.751  14.092   8.589
73214SOL    HW121475   9.794  14.013   8.554
73214SOL    HW221476   9.659  14.067   8.596
73215SOL     OW21477   5.633   9.280   5.310
73215SOL    HW121478   5.658   9.190   5.331
73215SOL    HW221479   5.689   9.334   5.367
73216SOL     OW21480   6.980   6.875   0.152
73216SOL    HW121481   6.930   6.845   0.228
73216SOL    HW221482   6.930   6.843   0.077
73217SOL     OW21483   8.776   5.562   8.852
73217SOL    HW121484   8.798   5.553   8.759
73217SOL    HW221485   8.745   5.652   8.861
73218SOL     OW21486  13.648   5.210   8.006
73218SOL    HW121487  13.660   5.115   8.014
73218SOL    HW221488  13.586   5.232   8.076
73219SOL     OW21489   2.390   6.628   9.660
73219SOL    HW121490   2.317   6.605   9.604
73219SOL    HW221491   2.349   6.656   9.742
73220SOL     OW21492   9.333  13.823   2.573
73220SOL    HW121493   9.279  13.804   2.495
73220SOL    HW221494   9.415  13.777   2.557
73221SOL     OW21495   1.629   9.796  13.419
73221SOL    HW121496   1.640   9.819  13.327
73221SOL    HW221497   1.536   9.809  13.436
73222SOL     OW21498   0.060  10.409   5.585
73222SOL    HW121499   0.102  10.398   5.670
73222SOL    HW221500   0.015  10.494   5.591
73223SOL     OW21501  12.176  10.955   9.468
73223SOL    HW121502  12.149  10.986   9.554
73223SOL    HW221503  12.247  11.013   9.442
73224SOL     OW21504  14.724  10.220   1.884
73224SOL    HW121505  14.683  10.302   1.856
73224SOL    HW221506  14.687  10.203   1.970
73225SOL     OW21507   6.058   6.670   0.025
73225SOL    HW121508   6.086   6.720   0.101
73225SOL    HW221509   6.139   6.655  14.854
73226SOL     OW21510   3.256  12.888   6.474
73226SOL    HW121511   3.215  12.853   6.554
73226SOL    HW221512   3.244  12.983   6.481
73227SOL     OW21513   1.018  13.291  13.631
73227SOL    HW121514   0.959  13.249  13.569
73227SOL    HW221515   1.083  13.335  13.576
73228SOL     OW21516   6.359   7.407   2.241
73228SOL    HW121517   6.330   7.331   2.291
73228SOL    HW221518   6.454   7.411   2.254
73229SOL     OW21519   5.638  10.259  12.690
73229SOL    HW121520   5.664  10.191  12.752
73229SOL    HW221521   5.635  10.213  12.606
73230SOL     OW21522  12.582  11.783   1.591
73230SOL    HW121523  12.558  11.768   1.682
73230SOL    HW221524  12.672  11.814   1.594
73231SOL     OW21525   4.697  12.214  11.323
73231SOL    HW121526   4.625  12.220  11.260
73231SOL    HW221527   4.655  12.226  11.408
73232SOL     OW21528  10.077  11.364  10.032
73232SOL    HW121529  10.134  11.287  10.025
73232SOL    HW221530  10.133  11.432  10.070
73233SOL     OW21531   7.397  14.575   0.060
73233SOL    HW121532   7.386  14.494   0.010
73233SOL    HW221533   7.429  14.639  14.875
73234SOL     OW21534   6.623   1.720   7.110
73234SOL    HW121535   6.659   1.651   7.166
73234SOL    HW221536   6.650   1.802   7.151
73235SOL     OW21537   3.679   2.688  14.651
73235SOL    HW121538   3.706   2.601  14.622
73235SOL    HW221539   3.756   2.743  14.639
73236SOL     OW21540  11.248   3.512  14.730
73236SOL    HW121541  11.325   3.569  14.731
73236SOL    HW221542  11.253   3.466  14.646
73237SOL     OW21543   3.604   0.729   4.145
73237SOL    HW121544   3.655   0.651   4.124
73237SOL    HW221545   3.653   0.773   4.214
73238SOL     OW21546   9.684   7.260   6.682
73238SOL    HW121547   9.765   7.236   6.726
73238SOL    HW221548   9.685   7.356   6.680
73239SOL     OW21549  12.296   9.158   5.948
73239SOL    HW121550  12.361   9.206   5.999
73239SOL    HW221551  12.346   9.094   5.897
73240SOL     OW21552  11.851   7.780   8.508
73240SOL    HW121553  11.835   7.712   8.573
73240SOL    HW221554  11.883   7.855   8.558
73241SOL     OW21555   1.127  11.249   0.541
73241SOL    HW121556   1.147  11.323   0.484
73241SOL    HW221557   1.032  11.254   0.554
73242SOL     OW21558   2.021   8.903   5.616
73242SOL    HW121559   2.097   8.954   5.646
73242SOL    HW221560   1.945   8.955   5.641
73243SOL     OW21561   9.441   5.661   9.379
73243SOL    HW121562   9.411   5.688   9.466
73243SOL    HW221563   9.402   5.726   9.320
73244SOL     OW21564  10.445   9.685   7.176
73244SOL    HW121565  10.388   9.693   7.099
73244SOL    HW221566  10.515   9.748   7.159
73245SOL     OW21567  13.552  12.897   6.378
73245SOL    HW121568  13.461  12.923   6.391
73245SOL    HW221569  13.565  12.825   6.440
73246SOL     OW21570   2.574   0.447   2.206
73246SOL    HW121571   2.627   0.488   2.274
73246SOL    HW221572   2.500   0.506   2.194
73247SOL     OW21573   0.935   3.850   2.105
73247SOL    HW121574   0.902   3.789   2.039
73247SOL    HW221575   0.977   3.793   2.170
73248SOL     OW21576   0.440   0.483  13.460
73248SOL    HW121577   0.524   0.509  13.499
73248SOL    HW221578   0.427   0.545  13.388
73249SOL     OW21579   6.897  13.515   9.062
73249SOL    HW121580   6.806  13.504   9.088
73249SOL    HW221581   6.892  13.554   8.974
73250SOL     OW21582   8.161   4.529  11.043
73250SOL    HW121583   8.247   4.569  11.030
73250SOL    HW221584   8.106   4.569  10.976
73251SOL     OW21585   4.951   1.425  11.103
73251SOL    HW121586   4.993   1.359  11.158
73251SOL    HW221587   4.970   1.508  11.147
73252SOL     OW21588  11.940  11.824   4.349
73252SOL    HW121589  11.876  11.754   4.361
73252SOL    HW221590  11.886  11.901   4.329
73253SOL     OW21591   7.612   2.262   0.821
73253SOL    HW121592   7.567   2.338   0.857
73253SOL    HW221593   7.602   2.194   0.887
73254SOL     OW21594  13.705   8.799  13.814
73254SOL    HW121595  13.692   8.832  13.902
73254SOL    HW221596  13.632   8.739  13.799
73255SOL     OW21597  10.115   9.240   2.419
73255SOL    HW121598  10.208   9.217   2.420
73255SOL    HW221599  10.070   9.156   2.417
73256SOL     OW21600  13.319   2.079   8.091
73256SOL    HW121601  13.264   2.015   8.136
73256SOL    HW221602  13.408   2.051   8.111
73257SOL     OW21603   3.267  13.865   0.125
73257SOL    HW121604   3.331  13.935   0.140
73257SOL    HW221605   3.308  13.787   0.163
73258SOL     OW21606   5.146  13.447   9.612
73258SOL    HW121607   5.146  13.510   9.540
73258SOL    HW221608   5.137  13.362   9.571
73259SOL     OW21609   1.446   8.468  11.897
73259SOL    HW121610   1.535   8.434  11.903
73259SOL    HW221611   1.390   8.394  11.919
73260SOL     OW21612   9.091   4.724  14.206
73260SOL    HW121613   9.163   4.763  14.255
73260SOL    HW221614   9.020   4.716  14.270
73261SOL     OW21615   0.105   2.078   1.211
73261SOL    HW121616   0.057   2.004   1.248
73261SOL    HW221617   0.064   2.093   1.126
73262SOL     OW21618  10.111   3.777  11.884
73262SOL    HW121619  10.104   3.691  11.925
73262SOL    HW221620  10.184   3.768  11.823
73263SOL     OW21621   3.805   3.281   5.807
73263SOL    HW121622   3.890   3.289   5.851
73263SOL    HW221623   3.766   3.202   5.844
73264SOL     OW21624   3.378   2.848   5.393
73264SOL    HW121625   3.315   2.802   5.338
73264SOL    HW221626   3.438   2.780   5.423
73265SOL     OW21627   9.686   9.779  12.521
73265SOL    HW121628   9.766   9.780  12.469
73265SOL    HW221629   9.631   9.713  12.479
73266SOL     OW21630  11.138   3.312   2.121
73266SOL    HW121631  11.049   3.337   2.144
73266SOL    HW221632  11.147   3.222   2.153
73267SOL     OW21633   7.088   2.258  10.818
73267SOL    HW121634   7.029   2.194  10.779
73267SOL    HW221635   7.039   2.340  10.816
73268SOL     OW21636   4.141  10.583  13.632
73268SOL    HW121637   4.182  10.523  13.569
73268SOL    HW221638   4.166  10.670  13.602
73269SOL     OW21639   9.467   7.561  14.202
73269SOL    HW121640   9.394   7.558  14.141
73269SOL    HW221641   9.537   7.607  14.155
73270SOL     OW21642  11.825   4.398  10.625
73270SOL    HW121643  11.781   4.391  10.540
73270SOL    HW221644  11.842   4.307  10.650
73271SOL     OW21645   6.560   9.641   2.977
73271SOL    HW121646   6.629   9.707   2.973
73271SOL    HW221647   6.490   9.676   2.922
73272SOL     OW21648  12.904   5.322  12.947
73272SOL    HW121649  12.962   5.365  12.883
73272SOL    HW221650  12.839   5.276  12.893
73273SOL     OW21651   3.936   4.195   9.201
73273SOL    HW121652   3.978   4.109   9.202
73273SOL    HW221653   4.006   4.256   9.179
73274SOL     OW21654   6.734   5.417  12.470
73274SOL    HW121655   6.642   5.389  12.470
73274SOL    HW221656   6.779   5.351  12.522
73275SOL     OW21657   7.950   8.157   1.619
73275SOL    HW121658   7.918   8.131   1.706
73275SOL    HW221659   8.030   8.108   1.607
73276SOL     OW21660   6.920  10.015  10.950
73276SOL    HW121661   6.840  10.054  10.916
73276SOL    HW221662   6.906   9.921  10.947
73277SOL     OW21663   5.112  10.092   3.054
73277SOL    HW121664   5.099  10.168   3.112
73277SOL    HW221665   5.163  10.031   3.107
73278SOL     OW21666   2.403   8.305   9.211
73278SOL    HW121667   2.317   8.345   9.199
73278SOL    HW221668   2.411   8.244   9.137
73279SOL     OW21669  12.981  14.629   4.916
73279SOL    HW121670  12.897  14.652   4.956
73279SOL    HW221671  13.004  14.545   4.955
73280SOL     OW21672   3.572   3.039   1.181
73280SOL    HW121673   3.573   2.947   1.152
73280SOL    HW221674   3.524   3.085   1.112
73281SOL     OW21675  13.245   3.062   1.452
73281SOL    HW121676  13.218   2.981   1.408
73281SOL    HW221677  13.168   3.090   1.501
73282SOL     OW21678  13.775   9.477   8.338
73282SOL    HW121679  13.705   9.413   8.329
73282SOL    HW221680  13.836   9.437   8.400
73283SOL     OW21681   9.286   6.928   4.968
73283SOL    HW121682   9.366   6.876   4.977
73283SOL    HW221683   9.279   6.975   5.051
73284SOL     OW21684  12.239   0.072   5.790
73284SOL    HW121685  12.279   0.156   5.815
73284SOL    HW221686  12.242   0.019   5.869
73285SOL     OW21687   0.945  12.728   2.904
73285SOL    HW121688   0.927  12.656   2.964
73285SOL    HW221689   0.874  12.791   2.920
73286SOL     OW21690   3.316  12.680  10.215
73286SOL    HW121691   3.252  12.620  10.252
73286SOL    HW221692   3.363  12.629  10.150
73287SOL     OW21693  11.831  13.678  11.587
73287SOL    HW121694  11.851  13.615  11.517
73287SOL    HW221695  11.756  13.727  11.554
73288SOL     OW21696   7.927   9.583   7.387
73288SOL    HW121697   7.992   9.517   7.413
73288SOL    HW221698   7.862   9.582   7.457
73289SOL     OW21699   0.485   7.057   8.313
73289SOL    HW121700   0.437   7.139   8.304
73289SOL    HW221701   0.432   6.993   8.265
73290SOL     OW21702   7.081  14.548   4.064
73290SOL    HW121703   7.080  14.581   3.974
73290SOL    HW221704   7.042  14.618   4.116
73291SOL     OW21705  13.419  11.202   9.959
73291SOL    HW121706  13.356  11.225   9.890
73291SOL    HW221707  13.488  11.268   9.951
73292SOL     OW21708  10.022   3.273  10.382
73292SOL    HW121709   9.967   3.320  10.445
73292SOL    HW221710  10.052   3.341  10.322
73293SOL     OW21711   1.756  13.984  11.752
73293SOL    HW121712   1.804  13.986  11.669
73293SOL    HW221713   1.759  14.074  11.784
73294SOL     OW21714   6.427  10.813   9.507
73294SOL    HW121715   6.370  10.775   9.574
73294SOL    HW221716   6.382  10.797   9.424
73295SOL     OW21717   5.223  14.471  13.313
73295SOL    HW121718   5.247  14.529  13.386
73295SOL    HW221719   5.250  14.384  13.341
73296SOL     OW21720   4.072  10.075  10.576
73296SOL    HW121721   3.988  10.029  10.566
73296SOL    HW221722   4.061  10.156  10.527
73297SOL     OW21723  13.747   4.456  13.952
73297SOL    HW121724  13.749   4.484  14.043
73297SOL    HW221725  13.797   4.374  13.950
73298SOL     OW21726   8.086  12.439   9.207
73298SOL    HW121727   8.004  12.392   9.218
73298SOL    HW221728   8.115  12.417   9.119
73299SOL     OW21729   1.299  13.064  10.386
73299SOL    HW121730   1.288  12.985  10.439
73299SOL    HW221731   1.222  13.117  10.404
73300SOL     OW21732   1.593   0.961  12.727
73300SOL    HW121733   1.668   0.953  12.785
73300SOL    HW221734   1.561   1.050  12.741
73301SOL     OW21735   8.487   1.170  11.121
73301SOL    HW121736   8.539   1.124  11.055
73301SOL    HW221737   8.400   1.178  11.082
73302SOL     OW21738  11.157   6.189  12.435
73302SOL    HW121739  11.173   6.279  12.405
73302SOL    HW221740  11.061   6.182  12.436
73303SOL     OW21741  12.856   3.825   5.562
73303SOL    HW121742  12.861   3.887   5.634
73303SOL    HW221743  12.763   3.800   5.559
73304SOL     OW21744   9.425  10.321   2.650
73304SOL    HW121745   9.357  10.316   2.717
73304SOL    HW221746   9.410  10.244   2.594
73305SOL     OW21747   8.780   0.624   1.790
73305SOL    HW121748   8.788   0.629   1.694
73305SOL    HW221749   8.796   0.532   1.810
73306SOL     OW21750   1.552  11.833   5.591
73306SOL    HW121751   1.518  11.837   5.680
73306SOL    HW221752   1.609  11.910   5.583
73307SOL     OW21753   6.585   5.930   6.099
73307SOL    HW121754   6.491   5.911   6.091
73307SOL    HW221755   6.625   5.883   6.026
73308SOL     OW21756   0.603   3.925   4.246
73308SOL    HW121757   0.661   3.984   4.196
73308SOL    HW221758   0.515   3.961   4.231
73309SOL     OW21759  12.161   2.322   7.412
73309SOL    HW121760  12.125   2.320   7.324
73309SOL    HW221761  12.146   2.411   7.443
73310SOL     OW21762   2.460  12.256   7.304
73310SOL    HW121763   2.499  12.174   7.274
73310SOL    HW221764   2.367  12.247   7.287
73311SOL     OW21765   2.123   4.896   7.604
73311SOL    HW121766   2.111   4.806   7.636
73311SOL    HW221767   2.124   4.949   7.684
73312SOL     OW21768   4.336   3.670   1.191
73312SOL    HW121769   4.429   3.668   1.215
73312SOL    HW221770   4.323   3.755   1.151
73313SOL     OW21771   0.992  12.974   8.407
73313SOL    HW121772   1.068  12.931   8.366
73313SOL    HW221773   0.949  12.904   8.456
73314SOL     OW21774  13.330   4.697   1.600
73314SOL    HW121775  13.352   4.789   1.612
73314SOL    HW221776  13.299   4.691   1.509
73315SOL     OW21777   5.763   3.858  11.816
73315SOL    HW121778   5.721   3.866  11.730
73315SOL    HW221779   5.730   3.776  11.851
73316SOL     OW21780  11.093   7.238   0.420
73316SOL    HW121781  11.077   7.153   0.380
73316SOL    HW221782  11.054   7.232   0.507
73317SOL     OW21783   8.718   0.737   0.066
73317SOL    HW121784   8.789   0.691   0.110
73317SOL    HW221785   8.753   0.824   0.048
73318SOL     OW21786   2.658   9.674   2.816
73318SOL    HW121787   2.631   9.759   2.851
73318SOL    HW221788   2.733   9.650   2.870
73319SOL     OW21789   8.517   0.987   3.294
73319SOL    HW121790   8.604   0.949   3.299
73319SOL    HW221791   8.486   0.965   3.206
73320SOL     OW21792   3.016   3.226   4.155
73320SOL    HW121793   2.935   3.264   4.121
73320SOL    HW221794   3.086   3.277   4.115
73321SOL     OW21795   1.424   5.486   6.226
73321SOL    HW121796   1.410   5.452   6.138
73321SOL    HW221797   1.475   5.565   6.213
73322SOL     OW21798   4.470   0.319   9.576
73322SOL    HW121799   4.553   0.271   9.574
73322SOL    HW221800   4.469   0.370   9.495
73323SOL     OW21801   2.106  10.625  10.040
73323SOL    HW121802   2.142  10.713  10.026
73323SOL    HW221803   2.145  10.596  10.122
73324SOL     OW21804  10.467   6.851   7.733
73324SOL    HW121805  10.474   6.804   7.815
73324SOL    HW221806  10.558   6.871   7.709
73325SOL     OW21807  14.716   1.549   0.366
73325SOL    HW121808  14.793   1.519   0.415
73325SOL    HW221809  14.742   1.633   0.329
73326SOL     OW21810   7.949  14.009   1.284
73326SOL    HW121811   7.882  14.061   1.329
73326SOL    HW221812   8.003  14.073   1.239
73327SOL     OW21813   9.675   9.096   6.295
73327SOL    HW121814   9.694   9.021   6.240
73327SOL    HW221815   9.676   9.171   6.236
73328SOL     OW21816   2.328   6.593   9.121
73328SOL    HW121817   2.382   6.548   9.056
73328SOL    HW221818   2.255   6.630   9.071
73329SOL     OW21819   8.785  13.305   5.961
73329SOL    HW121820   8.834  13.384   5.941
73329SOL    HW221821   8.753  13.319   6.051
73330SOL     OW21822   4.228   1.684   1.359
73330SOL    HW121823   4.230   1.588   1.368
73330SOL    HW221824   4.205   1.715   1.447
73331SOL     OW21825  11.287   8.770   8.819
73331SOL    HW121826  11.251   8.856   8.840
73331SOL    HW221827  11.213   8.723   8.780
73332SOL     OW21828  13.481   1.039  12.345
73332SOL    HW121829  13.499   1.092  12.423
73332SOL    HW221830  13.563   1.042  12.296
73333SOL     OW21831   2.037   8.754   2.428
73333SOL    HW121832   1.943   8.766   2.415
73333SOL    HW221833   2.044   8.679   2.487
73334SOL     OW21834   9.261  11.579  12.471
73334SOL    HW121835   9.243  11.547  12.382
73334SOL    HW221836   9.344  11.626  12.463
73335SOL     OW21837   8.650   7.164   8.128
73335SOL    HW121838   8.713   7.101   8.162
73335SOL    HW221839   8.667   7.167   8.034
73336SOL     OW21840   8.053  11.208   3.316
73336SOL    HW121841   8.145  11.227   3.338
73336SOL    HW221842   8.052  11.114   3.296
73337SOL     OW21843   3.984   5.996   6.290
73337SOL    HW121844   3.890   5.996   6.305
73337SOL    HW221845   4.010   6.088   6.300
73338SOL     OW21846   8.812  13.987   6.608
73338SOL    HW121847   8.829  13.948   6.693
73338SOL    HW221848   8.895  13.980   6.561
73339SOL     OW21849  11.906  12.842   9.865
73339SOL    HW121850  11.934  12.922   9.910
73339SOL    HW221851  11.987  12.805   9.830
73340SOL     OW21852  13.782   8.310   7.621
73340SOL    HW121853  13.747   8.257   7.693
73340SOL    HW221854  13.736   8.277   7.544
73341SOL     OW21855  14.826   8.121  11.444
73341SOL    HW121856   0.021   8.103  11.503
73341SOL    HW221857  14.773   8.185  11.492
73342SOL     OW21858   5.899   5.721   4.951
73342SOL    HW121859   5.980   5.680   4.921
73342SOL    HW221860   5.874   5.670   5.029
73343SOL     OW21861  12.227   1.605   6.894
73343SOL    HW121862  12.261   1.644   6.814
73343SOL    HW221863  12.237   1.510   6.881
73344SOL     OW21864   5.536  10.937  14.618
73344SOL    HW121865   5.571  10.864  14.568
73344SOL    HW221866   5.457  10.902  14.659
73345SOL     OW21867   2.100   1.519   6.042
73345SOL    HW121868   2.118   1.567   6.123
73345SOL    HW221869   2.134   1.431   6.059
73346SOL     OW21870   5.346   9.195  10.428
73346SOL    HW121871   5.299   9.117  10.398
73346SOL    HW221872   5.420   9.204  10.369
73347SOL     OW21873   2.416   0.142  10.761
73347SOL    HW121874   2.354   0.145  10.688
73347SOL    HW221875   2.390   0.064  10.811
73348SOL     OW21876  14.118   2.318   7.625
73348SOL    HW121877  14.028   2.286   7.627
73348SOL    HW221878  14.125   2.374   7.703
73349SOL     OW21879   3.880  10.730  13.526
73349SOL    HW121880   3.936  10.765  13.457
73349SOL    HW221881   3.867  10.638  13.503
73350SOL     OW21882   4.888   8.996   2.695
73350SOL    HW121883   4.964   8.974   2.748
73350SOL    HW221884   4.903   8.952   2.611
73351SOL     OW21885  12.008  11.694   3.460
73351SOL    HW121886  12.088  11.649   3.487
73351SOL    HW221887  11.974  11.641   3.388
73352SOL     OW21888   4.866   4.831  14.505
73352SOL    HW121889   4.928   4.828  14.578
73352SOL    HW221890   4.916   4.868  14.433
73353SOL     OW21891  10.246   1.644   6.415
73353SOL    HW121892  10.297   1.567   6.439
73353SOL    HW221893  10.202   1.619   6.333
73354SOL     OW21894  12.323   8.992  10.104
73354SOL    HW121895  12.252   9.056  10.107
73354SOL    HW221896  12.391   9.034  10.052
73355SOL     OW21897   2.213   7.142  11.812
73355SOL    HW121898   2.225   7.075  11.745
73355SOL    HW221899   2.297   7.145  11.858
73356SOL     OW21900  10.398   9.638   6.026
73356SOL    HW121901  10.310   9.607   6.005
73356SOL    HW221902  10.444   9.561   6.058
73357SOL     OW21903   6.970  10.488  13.998
73357SOL    HW121904   6.893  10.431  13.988
73357SOL    HW221905   7.015  10.454  14.074
73358SOL     OW21906   7.597  13.999   1.421
73358SOL    HW121907   7.662  14.068   1.436
73358SOL    HW221908   7.567  14.013   1.332
73359SOL     OW21909   6.394   1.066   4.310
73359SOL    HW121910   6.447   1.016   4.248
73359SOL    HW221911   6.405   1.021   4.394
73360SOL     OW21912   0.911  14.073  11.682
73360SOL    HW121913   0.920  14.159  11.723
73360SOL    HW221914   0.969  14.077  11.606
73361SOL     OW21915   2.847  12.715   1.531
73361SOL    HW121916   2.849  12.754   1.618
73361SOL    HW221917   2.928  12.744   1.489
73362SOL     OW21918   1.398   9.163   9.704
73362SOL    HW121919   1.406   9.235   9.767
73362SOL    HW221920   1.475   9.109   9.719
73363SOL     OW21921   6.397   9.831  10.511
73363SOL    HW121922   6.313   9.837  10.557
73363SOL    HW221923   6.405   9.916  10.466
73364SOL     OW21924   6.671   0.992   2.180
73364SOL    HW121925   6.612   0.918   2.166
73364SOL    HW221926   6.626   1.067   2.142
73365SOL     OW21927   2.590   4.608   9.413
73365SOL    HW121928   2.526   4.678   9.427
73365SOL    HW221929   2.632   4.596   9.499
73366SOL     OW21930   0.182   1.220   3.958
73366SOL    HW121931   0.107   1.162   3.967
73366SOL    HW221932   0.144   1.308   3.957
73367SOL     OW21933   8.827  13.701  13.995
73367SOL    HW121934   8.794  13.773  13.942
73367SOL    HW221935   8.780  13.624  13.962
73368SOL     OW21936   2.421   3.089   1.634
73368SOL    HW121937   2.514   3.077   1.613
73368SOL    HW221938   2.408   3.183   1.631
73369SOL     OW21939   0.054   4.472   2.722
73369SOL    HW121940   0.076   4.564   2.732
73369SOL    HW221941   0.134   4.425   2.745
73370SOL     OW21942  10.551  10.158   9.836
73370SOL    HW121943  10.543  10.099   9.911
73370SOL    HW221944  10.521  10.243   9.869
73371SOL     OW21945   9.424   2.246  13.744
73371SOL    HW121946   9.425   2.337  13.715
73371SOL    HW221947   9.457   2.196  13.669
73372SOL     OW21948  11.979  10.065   2.394
73372SOL    HW121949  12.022  10.065   2.479
73372SOL    HW221950  12.038  10.113   2.336
73373SOL     OW21951   2.369  12.179  13.260
73373SOL    HW121952   2.412  12.103  13.297
73373SOL    HW221953   2.279  12.151  13.245
73374SOL     OW21954   0.756  11.661  12.487
73374SOL    HW121955   0.827  11.725  12.495
73374SOL    HW221956   0.723  11.673  12.398
73375SOL     OW21957  13.043  10.642  10.969
73375SOL    HW121958  12.992  10.672  11.045
73375SOL    HW221959  13.067  10.552  10.991
73376SOL     OW21960   0.816   5.788   7.480
73376SOL    HW121961   0.857   5.850   7.540
73376SOL    HW221962   0.875   5.712   7.479
73377SOL     OW21963   9.518  14.698  14.069
73377SOL    HW121964   9.480  14.649  14.142
73377SOL    HW221965   9.452  14.766  14.049
73378SOL     OW21966  10.313  13.427  10.761
73378SOL    HW121967  10.272  13.382  10.687
73378SOL    HW221968  10.403  13.395  10.761
73379SOL     OW21969  11.609   9.419   4.405
73379SOL    HW121970  11.527   9.443   4.447
73379SOL    HW221971  11.628   9.331   4.437
73380SOL     OW21972   7.203   0.786   5.985
73380SOL    HW121973   7.267   0.774   6.055
73380SOL    HW221974   7.174   0.697   5.965
73381SOL     OW21975   5.344   7.271   4.455
73381SOL    HW121976   5.266   7.320   4.483
73381SOL    HW221977   5.348   7.284   4.360
73382SOL     OW21978   0.133  10.267   0.103
73382SOL    HW121979   0.128  10.251   0.197
73382SOL    HW221980   0.170  10.355   0.096
73383SOL     OW21981  14.704   4.584   6.126
73383SOL    HW121982  14.641   4.536   6.180
73383SOL    HW221983  14.761   4.517   6.089
73384SOL     OW21984   3.087   6.335  11.893
73384SOL    HW121985   3.121   6.264  11.838
73384SOL    HW221986   3.113   6.310  11.982
73385SOL     OW21987  10.653   8.518   4.753
73385SOL    HW121988  10.627   8.427   4.739
73385SOL    HW221989  10.571   8.568   4.748
73386SOL     OW21990  11.502  14.746   9.578
73386SOL    HW121991  11.545  14.680   9.524
73386SOL    HW221992  11.464  14.808   9.515
73387SOL     OW21993   5.093  12.822  13.661
73387SOL    HW121994   5.075  12.789  13.573
73387SOL    HW221995   5.169  12.772  13.691
73388SOL     OW21996   9.151  10.855  12.317
73388SOL    HW121997   9.109  10.844  12.232
73388SOL    HW221998   9.221  10.918  12.301
73389SOL     OW21999   4.202   0.194   2.990
73389SOL    HW122000   4.247   0.114   2.964
73389SOL    HW222001   4.131   0.165   3.046
73390SOL     OW22002   7.144  13.706   7.326
73390SOL    HW122003   7.062  13.737   7.288
73390SOL    HW222004   7.190  13.666   7.253
73391SOL     OW22005   1.642  11.017  11.290
73391SOL    HW122006   1.580  10.957  11.247
73391SOL    HW222007   1.681  10.965  11.359
73392SOL     OW22008  13.846   1.304  14.284
73392SOL    HW122009  13.775   1.262  14.234
73392SOL    HW222010  13.806   1.327  14.368
73393SOL     OW22011  11.998  11.815  11.906
73393SOL    HW122012  12.012  11.811  12.001
73393SOL    HW222013  12.010  11.724  11.877
73394SOL     OW22014  12.542   8.364   1.320
73394SOL    HW122015  12.507   8.298   1.381
73394SOL    HW222016  12.464   8.409   1.286
73395SOL     OW22017  11.196   3.727  12.628
73395SOL    HW122018  11.171   3.775  12.707
73395SOL    HW222019  11.233   3.794  12.570
73396SOL     OW22020   4.300   3.059   6.898
73396SOL    HW122021   4.336   3.145   6.920
73396SOL    HW222022   4.359   3.026   6.830
73397SOL     OW22023   0.327  11.108   3.569
73397SOL    HW122024   0.235  11.117   3.544
73397SOL    HW222025   0.346  11.188   3.618
73398SOL     OW22026   6.619  10.132  14.643
73398SOL    HW122027   6.564  10.091  14.711
73398SOL    HW222028   6.622  10.225  14.668
73399SOL     OW22029   0.065   0.979  12.937
73399SOL    HW122030   0.151   0.968  12.977
73399SOL    HW222031   0.081   1.030  12.858
73400SOL     OW22032   9.558   6.518  12.024
73400SOL    HW122033   9.500   6.444  12.007
73400SOL    HW222034   9.581   6.510  12.117
73401SOL     OW22035  14.749  13.828   4.207
73401SOL    HW122036  14.668  13.864   4.168
73401SOL    HW222037  14.742  13.850   4.300
73402SOL     OW22038   6.159   9.887  11.587
73402SOL    HW122039   6.096   9.925  11.526
73402SOL    HW222040   6.133   9.920  11.673
73403SOL     OW22041   3.856   4.457   7.803
73403SOL    HW122042   3.940   4.419   7.777
73403SOL    HW222043   3.813   4.389   7.854
73404SOL     OW22044  10.531   6.239   0.771
73404SOL    HW122045  10.538   6.293   0.692
73404SOL    HW222046  10.614   6.193   0.777
73405SOL     OW22047  12.110   1.240  14.578
73405SOL    HW122048  12.024   1.201  14.595
73405SOL    HW222049  12.091   1.320  14.529
73406SOL     OW22050   4.231   6.918  13.518
73406SOL    HW122051   4.143   6.949  13.496
73406SOL    HW222052   4.289   6.984  13.481
73407SOL     OW22053   3.953   3.052   3.158
73407SOL    HW122054   3.967   3.120   3.225
73407SOL    HW222055   3.859   3.034   3.163
73408SOL     OW22056  13.312   4.242   2.984
73408SOL    HW122057  13.303   4.237   2.889
73408SOL    HW222058  13.383   4.182   3.005
73409SOL     OW22059  12.790   3.290   4.794
73409SOL    HW122060  12.871   3.243   4.815
73409SOL    HW222061  12.804   3.323   4.706
73410SOL     OW22062   2.802   0.843   9.005
73410SOL    HW122063   2.847   0.927   9.013
73410SOL    HW222064   2.771   0.841   8.915
73411SOL     OW22065   1.443  11.131  12.253
73411SOL    HW122066   1.428  11.151  12.161
73411SOL    HW222067   1.519  11.073  12.253
73412SOL     OW22068   4.398   3.196   0.164
73412SOL    HW122069   4.404   3.120   0.222
73412SOL    HW222070   4.481   3.196   0.116
73413SOL     OW22071  13.545   6.426  11.930
73413SOL    HW122072  13.523   6.382  11.848
73413SOL    HW222073  13.471   6.484  11.948
73414SOL     OW22074  12.278   5.362   6.469
73414SOL    HW122075  12.216   5.323   6.408
73414SOL    HW222076  12.225   5.422   6.521
73415SOL     OW22077  14.452   2.438   2.934
73415SOL    HW122078  14.370   2.390   2.928
73415SOL    HW222079  14.500   2.414   2.854
73416SOL     OW22080   9.043  12.411   4.635
73416SOL    HW122081   9.117  12.363   4.670
73416SOL    HW222082   9.055  12.409   4.540
73417SOL     OW22083  11.875  14.782   5.295
73417SOL    HW122084  11.805  14.843   5.274
73417SOL    HW222085  11.954  14.823   5.260
73418SOL     OW22086   9.180   0.334   8.965
73418SOL    HW122087   9.156   0.395   9.035
73418SOL    HW222088   9.275   0.328   8.971
73419SOL     OW22089   0.043   9.364  11.103
73419SOL    HW122090   0.049   9.285  11.157
73419SOL    HW222091  14.867   9.424  11.154
73420SOL     OW22092   5.582  14.260  13.001
73420SOL    HW122093   5.575  14.353  13.024
73420SOL    HW222094   5.505  14.243  12.948
73421SOL     OW22095   0.153  14.180   6.244
73421SOL    HW122096   0.190  14.134   6.168
73421SOL    HW222097   0.224  14.238   6.274
73422SOL     OW22098   8.003  12.554   0.821
73422SOL    HW122099   8.092  12.519   0.810
73422SOL    HW222100   7.965  12.552   0.733
73423SOL     OW22101   5.565  14.420  11.893
73423SOL    HW122102   5.530  14.507  11.910
73423SOL    HW222103   5.649  14.435  11.851
73424SOL     OW22104   1.757  11.138   9.714
73424SOL    HW122105   1.666  11.166   9.725
73424SOL    HW222106   1.757  11.045   9.735
73425SOL     OW22107  14.478   4.760   6.986
73425SOL    HW122108  14.410   4.734   7.048
73425SOL    HW222109  14.560   4.755   7.035
73426SOL     OW22110   5.026   6.106   7.487
73426SOL    HW122111   5.108   6.096   7.535
73426SOL    HW222112   4.958   6.092   7.553
73427SOL     OW22113   1.161   3.674   3.206
73427SOL    HW122114   1.195   3.700   3.292
73427SOL    HW222115   1.238   3.666   3.151
73428SOL     OW22116  11.610  10.393   3.159
73428SOL    HW122117  11.646  10.305   3.170
73428SOL    HW222118  11.522  10.379   3.125
73429SOL     OW22119   2.415   0.775   6.577
73429SOL    HW122120   2.482   0.707   6.577
73429SOL    HW222121   2.353   0.749   6.509
73430SOL     OW22122   1.653   5.268  11.805
73430SOL    HW122123   1.575   5.312  11.772
73430SOL    HW222124   1.620   5.203  11.866
73431SOL     OW22125   7.271   5.104   8.344
73431SOL    HW122126   7.230   5.177   8.390
73431SOL    HW222127   7.258   5.123   8.251
73432SOL     OW22128   3.739   0.734  14.775
73432SOL    HW122129   3.733   0.652  14.725
73432SOL    HW222130   3.666   0.729  14.837
73433SOL     OW22131   4.779  11.471   5.574
73433SOL    HW122132   4.844  11.416   5.529
73433SOL    HW222133   4.793  11.558   5.538
73434SOL     OW22134  10.032   2.463   0.367
73434SOL    HW122135  10.026   2.540   0.311
73434SOL    HW222136   9.946   2.459   0.410
73435SOL     OW22137  11.184  14.222   2.080
73435SOL    HW122138  11.246  14.295   2.089
73435SOL    HW222139  11.110  14.260   2.032
73436SOL     OW22140  11.817   4.039   7.341
73436SOL    HW122141  11.886   4.006   7.400
73436SOL    HW222142  11.788   4.121   7.382
73437SOL     OW22143   4.274   5.535   2.659
73437SOL    HW122144   4.281   5.445   2.689
73437SOL    HW222145   4.345   5.581   2.703
73438SOL     OW22146   1.700   0.102  13.244
73438SOL    HW122147   1.789   0.108  13.211
73438SOL    HW222148   1.698   0.160  13.320
73439SOL     OW22149   2.606   5.993   8.614
73439SOL    HW122150   2.646   6.013   8.530
73439SOL    HW222151   2.595   5.898   8.614
73440SOL     OW22152   8.668   7.921   4.488
73440SOL    HW122153   8.591   7.952   4.440
73440SOL    HW222154   8.684   7.833   4.453
73441SOL     OW22155   8.893  10.484  12.490
73441SOL    HW122156   8.977  10.519  12.462
73441SOL    HW222157   8.871  10.417  12.425
73442SOL     OW22158   5.597   1.548   6.798
73442SOL    HW122159   5.591   1.584   6.886
73442SOL    HW222160   5.618   1.622   6.742
73443SOL     OW22161   8.387  10.891   2.984
73443SOL    HW122162   8.381  10.887   2.889
73443SOL    HW222163   8.457  10.954   3.001
73444SOL     OW22164   5.987   8.284   8.346
73444SOL    HW122165   6.075   8.247   8.344
73444SOL    HW222166   5.933   8.218   8.303
73445SOL     OW22167  13.056  13.396   8.025
73445SOL    HW122168  13.071  13.382   7.932
73445SOL    HW222169  13.122  13.459   8.051
73446SOL     OW22170  13.470  12.691   7.384
73446SOL    HW122171  13.545  12.633   7.375
73446SOL    HW222172  13.440  12.679   7.474
73447SOL     OW22173   4.591  12.234  12.905
73447SOL    HW122174   4.665  12.206  12.959
73447SOL    HW222175   4.522  12.257  12.967
73448SOL     OW22176   9.763  14.525   2.711
73448SOL    HW122177   9.787  14.493   2.798
73448SOL    HW222178   9.716  14.606   2.727
73449SOL     OW22179   9.026  13.748  10.089
73449SOL    HW122180   8.949  13.709  10.131
73449SOL    HW222181   9.099  13.720  10.144
73450SOL     OW22182   9.650   1.756   3.224
73450SOL    HW122183   9.676   1.834   3.273
73450SOL    HW222184   9.728   1.732   3.174
73451SOL     OW22185   2.986   3.934   2.157
73451SOL    HW122186   2.989   3.978   2.072
73451SOL    HW222187   3.055   3.976   2.208
73452SOL     OW22188  10.014  12.349   5.510
73452SOL    HW122189  10.082  12.395   5.560
73452SOL    HW222190  10.062  12.303   5.441
73453SOL     OW22191  12.060  10.540   1.626
73453SOL    HW122192  12.056  10.455   1.671
73453SOL    HW222193  12.028  10.603   1.690
73454SOL     OW22194  10.431   6.983   3.402
73454SOL    HW122195  10.448   6.905   3.456
73454SOL    HW222196  10.461   7.056   3.456
73455SOL     OW22197   0.970  14.430   9.406
73455SOL    HW122198   1.036  14.369   9.373
73455SOL    HW222199   0.973  14.419   9.501
73456SOL     OW22200   5.762   5.758   2.964
73456SOL    HW122201   5.811   5.834   2.933
73456SOL    HW222202   5.725   5.787   3.048
73457SOL     OW22203   4.549   1.722  14.215
73457SOL    HW122204   4.565   1.800  14.267
73457SOL    HW222205   4.576   1.650  14.272
73458SOL     OW22206   5.493   5.454   3.268
73458SOL    HW122207   5.439   5.390   3.222
73458SOL    HW222208   5.583   5.423   3.257
73459SOL     OW22209   7.059  14.791  14.626
73459SOL    HW122210   6.977  14.807  14.674
73459SOL    HW222211   7.037  14.725  14.561
73460SOL     OW22212   2.567   9.681   2.555
73460SOL    HW122213   2.583   9.684   2.650
73460SOL    HW222214   2.653   9.688   2.516
73461SOL     OW22215   2.956   3.794  12.604
73461SOL    HW122216   3.040   3.799  12.557
73461SOL    HW222217   2.978   3.752  12.688
73462SOL     OW22218  14.377  10.967  10.681
73462SOL    HW122219  14.444  10.900  10.665
73462SOL    HW222220  14.294  10.919  10.683
73463SOL     OW22221  14.847  12.056   6.988
73463SOL    HW122222  14.838  11.960   6.989
73463SOL    HW222223   0.062  12.071   6.974
73464SOL     OW22224   7.801   6.375   6.908
73464SOL    HW122225   7.889   6.408   6.894
73464SOL    HW222226   7.749   6.416   6.839
73465SOL     OW22227   6.874   1.573  12.848
73465SOL    HW122228   6.780   1.578  12.865
73465SOL    HW222229   6.881   1.554  12.755
73466SOL     OW22230   9.313  10.228   1.644
73466SOL    HW122231   9.398  10.189   1.624
73466SOL    HW222232   9.249  10.167   1.608
73467SOL     OW22233  13.620  12.477   3.294
73467SOL    HW122234  13.531  12.481   3.330
73467SOL    HW222235  13.677  12.467   3.370
73468SOL     OW22236   0.096   4.507   8.711
73468SOL    HW122237   0.173   4.550   8.673
73468SOL    HW222238   0.113   4.413   8.701
73469SOL     OW22239   4.838  13.525  13.689
73469SOL    HW122240   4.919  13.554  13.732
73469SOL    HW222241   4.845  13.430  13.684
73470SOL     OW22242   3.175   6.750   6.556
73470SOL    HW122243   3.194   6.777   6.646
73470SOL    HW222244   3.157   6.831   6.510
73471SOL     OW22245  11.687   0.374   4.295
73471SOL    HW122246  11.697   0.446   4.234
73471SOL    HW222247  11.776   0.351   4.320
73472SOL     OW22248   5.689   7.338   8.705
73472SOL    HW122249   5.681   7.246   8.733
73472SOL    HW222250   5.606   7.378   8.731
73473SOL     OW22251   4.520  13.288   7.370
73473SOL    HW122252   4.586  13.306   7.304
73473SOL    HW222253   4.525  13.194   7.385
73474SOL     OW22254  10.018   8.595   4.852
73474SOL    HW122255   9.983   8.520   4.900
73474SOL    HW222256  10.103   8.612   4.891
73475SOL     OW22257   9.129   5.683   8.834
73475SOL    HW122258   9.065   5.705   8.767
73475SOL    HW222259   9.211   5.720   8.802
73476SOL     OW22260  10.212   5.918   2.541
73476SOL    HW122261  10.266   5.983   2.585
73476SOL    HW222262  10.183   5.859   2.611
73477SOL     OW22263   5.712  10.725  13.485
73477SOL    HW122264   5.739  10.790  13.421
73477SOL    HW222265   5.727  10.768  13.570
73478SOL     OW22266   2.315   4.322   2.212
73478SOL    HW122267   2.264   4.287   2.139
73478SOL    HW222268   2.331   4.245   2.268
73479SOL     OW22269  14.710  10.807   5.951
73479SOL    HW122270  14.718  10.803   6.046
73479SOL    HW222271  14.695  10.717   5.924
73480SOL     OW22272   4.543   6.583   6.624
73480SOL    HW122273   4.516   6.675   6.622
73480SOL    HW222274   4.573   6.566   6.535
73481SOL     OW22275   5.167  13.044   4.531
73481SOL    HW122276   5.248  13.075   4.572
73481SOL    HW222277   5.113  13.012   4.604
73482SOL     OW22278  10.816   0.094  14.026
73482SOL    HW122279  10.747   0.083  14.091
73482SOL    HW222280  10.779   0.157  13.963
73483SOL     OW22281   0.360   8.672   8.589
73483SOL    HW122282   0.322   8.612   8.525
73483SOL    HW222283   0.438   8.627   8.622
73484SOL     OW22284   5.501   9.772   5.970
73484SOL    HW122285   5.596   9.765   5.961
73484SOL    HW222286   5.472   9.683   5.989
73485SOL     OW22287  12.742   9.283   5.006
73485SOL    HW122288  12.704   9.200   4.977
73485SOL    HW222289  12.761   9.271   5.099
73486SOL     OW22290   7.770   9.305   4.991
73486SOL    HW122291   7.813   9.239   5.045
73486SOL    HW222292   7.676   9.287   5.002
73487SOL     OW22293  11.707  11.308  13.612
73487SOL    HW122294  11.682  11.261  13.532
73487SOL    HW222295  11.778  11.367  13.583
73488SOL     OW22296   9.997   9.528   0.015
73488SOL    HW122297   9.960   9.580  14.822
73488SOL    HW222298   9.973   9.577   0.094
73489SOL     OW22299   2.787   1.861   9.700
73489SOL    HW122300   2.796   1.873   9.605
73489SOL    HW222301   2.740   1.779   9.709
73490SOL     OW22302   5.098   0.755   4.067
73490SOL    HW122303   5.090   0.670   4.023
73490SOL    HW222304   5.019   0.802   4.042
73491SOL     OW22305  10.182   1.066   7.749
73491SOL    HW122306  10.236   1.016   7.687
73491SOL    HW222307  10.154   1.002   7.813
73492SOL     OW22308   5.403   5.265   8.752
73492SOL    HW122309   5.328   5.246   8.810
73492SOL    HW222310   5.370   5.244   8.665
73493SOL     OW22311   6.227  12.906  10.092
73493SOL    HW122312   6.209  12.940  10.180
73493SOL    HW222313   6.316  12.934  10.073
73494SOL     OW22314   9.685   5.450   4.953
73494SOL    HW122315   9.614   5.404   4.997
73494SOL    HW222316   9.650   5.537   4.934
73495SOL     OW22317   0.194  12.936  14.081
73495SOL    HW122318   0.108  12.978  14.084
73495SOL    HW222319   0.202  12.891  14.166
73496SOL     OW22320   0.603   3.622   5.275
73496SOL    HW122321   0.570   3.598   5.361
73496SOL    HW222322   0.524   3.639   5.222
73497SOL     OW22323  12.308   3.465   3.616
73497SOL    HW122324  12.348   3.391   3.570
73497SOL    HW222325  12.380   3.505   3.665
73498SOL     OW22326   0.667   1.949  13.253
73498SOL    HW122327   0.583   1.907  13.236
73498SOL    HW222328   0.708   1.956  13.167
73499SOL     OW22329   1.754  10.408   5.233
73499SOL    HW122330   1.690  10.448   5.174
73499SOL    HW222331   1.709  10.399   5.316
73500SOL     OW22332   6.745   0.336   6.026
73500SOL    HW122333   6.799   0.407   5.991
73500SOL    HW222334   6.657   0.353   5.993
73501SOL     OW22335   3.918   7.440   7.232
73501SOL    HW122336   3.901   7.355   7.273
73501SOL    HW222337   3.850   7.448   7.165
73502SOL     OW22338   3.560   4.909  13.824
73502SOL    HW122339   3.591   4.998  13.810
73502SOL    HW222340   3.630   4.865  13.872
73503SOL     OW22341   0.739  14.205   2.670
73503SOL    HW122342   0.792  14.239   2.742
73503SOL    HW222343   0.658  14.175   2.712
73504SOL     OW22344   2.388   2.996   2.810
73504SOL    HW122345   2.470   3.045   2.800
73504SOL    HW222346   2.348   2.999   2.723
73505SOL     OW22347   7.632   9.025   3.740
73505SOL    HW122348   7.537   9.032   3.743
73505SOL    HW222349   7.649   8.968   3.664
73506SOL     OW22350   5.542   5.630   6.755
73506SOL    HW122351   5.528   5.626   6.849
73506SOL    HW222352   5.547   5.723   6.734
73507SOL     OW22353   1.755  14.617   8.351
73507SOL    HW122354   1.703  14.538   8.339
73507SOL    HW222355   1.697  14.678   8.396
73508SOL     OW22356   5.128  12.425   7.351
73508SOL    HW122357   5.131  12.379   7.267
73508SOL    HW222358   5.076  12.369   7.408
73509SOL     OW22359   4.742   3.229   4.771
73509SOL    HW122360   4.688   3.155   4.744
73509SOL    HW222361   4.810   3.189   4.826
73510SOL     OW22362  10.274   4.534   5.298
73510SOL    HW122363  10.276   4.610   5.356
73510SOL    HW222364  10.327   4.468   5.342
73511SOL     OW22365  12.451   4.607   5.669
73511SOL    HW122366  12.380   4.603   5.606
73511SOL    HW222367  12.418   4.664   5.739
73512SOL     OW22368  11.788   1.782  13.407
73512SOL    HW122369  11.875   1.761  13.440
73512SOL    HW222370  11.742   1.819  13.482
73513SOL     OW22371   5.199   9.213   8.677
73513SOL    HW122372   5.133   9.152   8.644
73513SOL    HW222373   5.160   9.248   8.758
73514SOL     OW22374  10.923   7.079   8.798
73514SOL    HW122375  10.917   7.022   8.721
73514SOL    HW222376  10.834   7.081   8.833
73515SOL     OW22377  11.462   5.780   0.270
73515SOL    HW122378  11.497   5.786   0.181
73515SOL    HW222379  11.369   5.760   0.257
73516SOL     OW22380   6.729  11.099  13.812
73516SOL    HW122381   6.672  11.023  13.819
73516SOL    HW222382   6.669  11.173  13.801
73517SOL     OW22383   8.231  14.742   5.479
73517SOL    HW122384   8.233  14.744   5.384
73517SOL    HW222385   8.269  14.825   5.506
73518SOL     OW22386   5.005  12.781   9.274
73518SOL    HW122387   5.061  12.707   9.248
73518SOL    HW222388   4.980  12.762   9.364
73519SOL     OW22389   3.620   3.833   3.898
73519SOL    HW122390   3.568   3.835   3.978
73519SOL    HW222391   3.603   3.918   3.856
73520SOL     OW22392   9.059   2.371   8.329
73520SOL    HW122393   9.155   2.381   8.330
73520SOL    HW222394   9.041   2.331   8.244
73521SOL     OW22395   8.597   4.668  13.460
73521SOL    HW122396   8.555   4.730  13.519
73521SOL    HW222397   8.581   4.704  13.373
73522SOL     OW22398   3.485  10.450  10.215
73522SOL    HW122399   3.410  10.484  10.263
73522SOL    HW222400   3.484  10.356  10.233
73523SOL     OW22401   0.613   3.050   4.946
73523SOL    HW122402   0.652   2.968   4.976
73523SOL    HW222403   0.676   3.086   4.884
73524SOL     OW22404   4.406  12.652   3.680
73524SOL    HW122405   4.406  12.563   3.643
73524SOL    HW222406   4.395  12.638   3.775
73525SOL     OW22407  13.970   2.731   6.599
73525SOL    HW122408  13.885   2.743   6.639
73525SOL    HW222409  14.031   2.728   6.672
73526SOL     OW22410  13.853   3.598  13.890
73526SOL    HW122411  13.852   3.558  13.803
73526SOL    HW222412  13.861   3.692  13.873
73527SOL     OW22413   9.208   6.938  11.879
73527SOL    HW122414   9.302   6.947  11.864
73527SOL    HW222415   9.197   6.851  11.917
73528SOL     OW22416   2.102  13.042  11.524
73528SOL    HW122417   2.189  13.081  11.533
73528SOL    HW222418   2.095  12.981  11.597
73529SOL     OW22419  10.397   3.050  13.476
73529SOL    HW122420  10.434   3.138  13.479
73529SOL    HW222421  10.326   3.055  13.413
73530SOL     OW22422   1.712   5.166   9.495
73530SOL    HW122423   1.679   5.077   9.482
73530SOL    HW222424   1.807   5.157   9.483
73531SOL     OW22425  10.949   2.954   2.392
73531SOL    HW122426  10.857   2.952   2.420
73531SOL    HW222427  10.994   2.893   2.451
73532SOL     OW22428   4.246  12.824   6.705
73532SOL    HW122429   4.187  12.755   6.675
73532SOL    HW222430   4.199  12.866   6.778
73533SOL     OW22431  12.203  11.712   7.645
73533SOL    HW122432  12.271  11.732   7.710
73533SOL    HW222433  12.252  11.702   7.563
73534SOL     OW22434  14.096  11.469   4.881
73534SOL    HW122435  14.178  11.436   4.845
73534SOL    HW222436  14.029  11.436   4.822
73535SOL     OW22437  10.605   9.277   9.430
73535SOL    HW122438  10.610   9.251   9.338
73535SOL    HW222439  10.561   9.203   9.473
73536SOL     OW22440   6.388   6.651   5.916
73536SOL    HW122441   6.462   6.709   5.893
73536SOL    HW222442   6.423   6.595   5.985
73537SOL     OW22443   6.046   4.179  14.593
73537SOL    HW122444   6.102   4.137  14.527
73537SOL    HW222445   5.959   4.144  14.576
73538SOL     OW22446   8.651   6.676   2.662
73538SOL    HW122447   8.607   6.743   2.715
73538SOL    HW222448   8.619   6.593   2.697
73539SOL     OW22449   8.886   4.704   8.599
73539SOL    HW122450   8.923   4.774   8.545
73539SOL    HW222451   8.792   4.706   8.579
73540SOL     OW22452   2.764   1.981   6.177
73540SOL    HW122453   2.856   2.003   6.187
73540SOL    HW222454   2.723   2.009   6.259
73541SOL     OW22455  11.357  10.375   0.419
73541SOL    HW122456  11.394  10.330   0.342
73541SOL    HW222457  11.433  10.396   0.473
73542SOL     OW22458  10.042  11.620   0.404
73542SOL    HW122459  10.048  11.692   0.468
73542SOL    HW222460  10.104  11.555   0.435
73543SOL     OW22461   0.951  12.268   6.540
73543SOL    HW122462   0.905  12.268   6.457
73543SOL    HW222463   0.980  12.359   6.551
73544SOL     OW22464   5.972   8.904   2.196
73544SOL    HW122465   5.972   8.928   2.288
73544SOL    HW222466   6.042   8.957   2.157
73545SOL     OW22467   0.289  11.424   1.142
73545SOL    HW122468   0.338  11.346   1.116
73545SOL    HW222469   0.206  11.418   1.094
73546SOL     OW22470   2.639   6.120  14.818
73546SOL    HW122471   2.642   6.190  14.753
73546SOL    HW222472   2.640   6.039  14.767
73547SOL     OW22473   9.587   6.894   4.368
73547SOL    HW122474   9.644   6.945   4.426
73547SOL    HW222475   9.610   6.923   4.280
73548SOL     OW22476   1.695   2.533   6.844
73548SOL    HW122477   1.788   2.520   6.827
73548SOL    HW222478   1.677   2.485   6.925
73549SOL     OW22479  14.522   9.876   2.677
73549SOL    HW122480  14.583   9.936   2.634
73549SOL    HW222481  14.576   9.801   2.702
73550SOL     OW22482   7.303   9.271   9.463
73550SOL    HW122483   7.385   9.277   9.413
73550SOL    HW222484   7.241   9.323   9.413
73551SOL     OW22485  11.068  10.748   3.581
73551SOL    HW122486  11.117  10.680   3.534
73551SOL    HW222487  11.117  10.829   3.562
73552SOL     OW22488  13.036   8.418   2.329
73552SOL    HW122489  13.039   8.421   2.234
73552SOL    HW222490  12.949   8.449   2.352
73553SOL     OW22491  13.295   4.043   8.437
73553SOL    HW122492  13.209   4.045   8.395
73553SOL    HW222493  13.348   4.105   8.387
73554SOL     OW22494  12.801   1.464   0.765
73554SOL    HW122495  12.806   1.503   0.678
73554SOL    HW222496  12.707   1.459   0.784
73555SOL     OW22497   9.203  10.191   3.312
73555SOL    HW122498   9.108  10.187   3.326
73555SOL    HW222499   9.228  10.101   3.289
73556SOL     OW22500  11.773   1.767   3.185
73556SOL    HW122501  11.709   1.820   3.232
73556SOL    HW222502  11.776   1.684   3.233
73557SOL     OW22503  14.412   1.000  10.193
73557SOL    HW122504  14.382   0.910  10.208
73557SOL    HW222505  14.486   0.991  10.133
73558SOL     OW22506   5.698   7.685   6.344
73558SOL    HW122507   5.676   7.645   6.260
73558SOL    HW222508   5.789   7.714   6.333
73559SOL     OW22509   9.037   5.791   3.644
73559SOL    HW122510   9.075   5.773   3.730
73559SOL    HW222511   9.101   5.757   3.582
73560SOL     OW22512   3.398   1.107  10.425
73560SOL    HW122513   3.436   1.193  10.409
73560SOL    HW222514   3.384   1.070  10.337
73561SOL     OW22515   7.142   5.034   7.535
73561SOL    HW122516   7.207   5.045   7.466
73561SOL    HW222517   7.190   4.998   7.609
73562SOL     OW22518   0.135   9.978   8.509
73562SOL    HW122519   0.053  10.026   8.499
73562SOL    HW222520   0.153   9.942   8.422
73563SOL     OW22521  11.140   9.779   2.695
73563SOL    HW122522  11.197   9.703   2.701
73563SOL    HW222523  11.081   9.771   2.770
73564SOL     OW22524   3.452   1.027  13.788
73564SOL    HW122525   3.487   1.053  13.874
73564SOL    HW222526   3.511   1.069  13.725
73565SOL     OW22527  14.360  11.071   8.550
73565SOL    HW122528  14.354  11.126   8.629
73565SOL    HW222529  14.274  11.029   8.544
73566SOL     OW22530   7.453  11.466  13.556
73566SOL    HW122531   7.448  11.380  13.596
73566SOL    HW222532   7.480  11.525  13.627
73567SOL     OW22533  14.776   5.985   5.731
73567SOL    HW122534  14.756   5.951   5.819
73567SOL    HW222535  14.782   6.079   5.743
73568SOL     OW22536   2.290   8.991   2.810
73568SOL    HW122537   2.374   9.014   2.771
73568SOL    HW222538   2.225   9.028   2.751
73569SOL     OW22539  14.769  14.861   1.504
73569SOL    HW122540  14.795   0.058   1.453
73569SOL    HW222541  14.829  14.860   1.578
73570SOL     OW22542   7.602   2.288  10.296
73570SOL    HW122543   7.518   2.246  10.275
73570SOL    HW222544   7.667   2.218  10.284
73571SOL     OW22545   1.181   7.809   2.349
73571SOL    HW122546   1.198   7.902   2.329
73571SOL    HW222547   1.108   7.811   2.411
73572SOL     OW22548  10.220   0.627  14.430
73572SOL    HW122549  10.311   0.637  14.402
73572SOL    HW222550  10.223   0.631  14.526
73573SOL     OW22551   3.436   6.312   7.784
73573SOL    HW122552   3.490   6.358   7.848
73573SOL    HW222553   3.351   6.303   7.826
73574SOL     OW22554   9.673   8.903   3.204
73574SOL    HW122555   9.754   8.913   3.253
73574SOL    HW222556   9.695   8.843   3.133
73575SOL     OW22557  13.180   3.175   2.414
73575SOL    HW122558  13.133   3.130   2.345
73575SOL    HW222559  13.172   3.118   2.491
73576SOL     OW22560   2.116   3.704   8.102
73576SOL    HW122561   2.075   3.618   8.109
73576SOL    HW222562   2.129   3.717   8.008
73577SOL     OW22563   9.025   3.409   7.458
73577SOL    HW122564   8.988   3.341   7.401
73577SOL    HW222565   9.096   3.365   7.504
73578SOL     OW22566   0.834   0.605   4.241
73578SOL    HW122567   0.831   0.609   4.337
73578SOL    HW222568   0.792   0.522   4.219
73579SOL     OW22569   3.005  11.090   9.602
73579SOL    HW122570   3.033  11.030   9.671
73579SOL    HW222571   2.950  11.038   9.545
73580SOL     OW22572   5.769   4.512   0.761
73580SOL    HW122573   5.831   4.439   0.762
73580SOL    HW222574   5.821   4.589   0.783
73581SOL     OW22575   2.986   4.592   7.499
73581SOL    HW122576   3.073   4.620   7.524
73581SOL    HW222577   2.953   4.662   7.442
73582SOL     OW22578   8.320   6.424  11.174
73582SOL    HW122579   8.290   6.502  11.127
73582SOL    HW222580   8.369   6.375  11.108
73583SOL     OW22581   0.717  13.420  14.611
73583SOL    HW122582   0.717  13.485  14.541
73583SOL    HW222583   0.632  13.376  14.603
73584SOL     OW22584  11.846   9.202   5.831
73584SOL    HW122585  11.794   9.217   5.911
73584SOL    HW222586  11.794   9.242   5.762
73585SOL     OW22587  14.376  11.996   7.613
73585SOL    HW122588  14.364  12.072   7.555
73585SOL    HW222589  14.383  12.034   7.700
73586SOL     OW22590  11.147   9.732   4.490
73586SOL    HW122591  11.218   9.781   4.531
73586SOL    HW222592  11.068   9.782   4.508
73587SOL     OW22593   0.445  11.212   1.101
73587SOL    HW122594   0.399  11.130   1.085
73587SOL    HW222595   0.511  11.189   1.167
73588SOL     OW22596   2.604   8.779   3.962
73588SOL    HW122597   2.555   8.775   3.880
73588SOL    HW222598   2.693   8.803   3.937
73589SOL     OW22599   7.146   2.630  10.375
73589SOL    HW122600   7.089   2.707  10.381
73589SOL    HW222601   7.225   2.655  10.423
73590SOL     OW22602  10.550   4.103  10.690
73590SOL    HW122603  10.642   4.084  10.674
73590SOL    HW222604  10.539   4.195  10.665
73591SOL     OW22605   6.637   8.994   2.764
73591SOL    HW122606   6.726   9.029   2.763
73591SOL    HW222607   6.625   8.955   2.677
73592SOL     OW22608   1.068   0.626   8.230
73592SOL    HW122609   1.157   0.593   8.218
73592SOL    HW222610   1.079   0.720   8.243
73593SOL     OW22611   1.115  13.496   8.819
73593SOL    HW122612   1.056  13.567   8.796
73593SOL    HW222613   1.194  13.539   8.850
73594SOL     OW22614   9.737   2.133   7.757
73594SOL    HW122615   9.696   2.191   7.821
73594SOL    HW222616   9.669   2.118   7.691
73595SOL     OW22617   8.727  10.667  10.247
73595SOL    HW122618   8.749  10.579  10.217
73595SOL    HW222619   8.694  10.654  10.336
73596SOL     OW22620   3.247  10.192  12.063
73596SOL    HW122621   3.266  10.238  11.982
73596SOL    HW222622   3.273  10.102  12.047
73597SOL     OW22623   8.106  10.929   3.192
73597SOL    HW122624   8.174  10.862   3.181
73597SOL    HW222625   8.028  10.890   3.151
73598SOL     OW22626   5.185   7.102   6.872
73598SOL    HW122627   5.212   7.173   6.815
73598SOL    HW222628   5.258   7.091   6.933
73599SOL     OW22629  13.296  13.088  10.413
73599SOL    HW122630  13.383  13.050  10.415
73599SOL    HW222631  13.239  13.020  10.451
73600SOL     OW22632   8.628   5.036  13.011
73600SOL    HW122633   8.644   5.001  12.923
73600SOL    HW222634   8.591   4.963  13.060
73601SOL     OW22635  14.863   6.797   2.768
73601SOL    HW122636   0.039   6.720   2.774
73601SOL    HW222637   0.011   6.852   2.842
73602SOL     OW22638  14.036   2.572   2.941
73602SOL    HW122639  13.997   2.506   2.882
73602SOL    HW222640  14.019   2.655   2.898
73603SOL     OW22641  11.292  13.907   0.332
73603SOL    HW122642  11.270  13.838   0.270
73603SOL    HW222643  11.208  13.945   0.357
73604SOL     OW22644   1.601  13.520   7.780
73604SOL    HW122645   1.547  13.471   7.842
73604SOL    HW222646   1.679  13.466   7.766
73605SOL     OW22647   1.747   8.017   2.933
73605SOL    HW122648   1.669   8.061   2.966
73605SOL    HW222649   1.726   7.924   2.938
73606SOL     OW22650   9.211   5.875   7.769
73606SOL    HW122651   9.267   5.811   7.724
73606SOL    HW222652   9.268   5.915   7.834
73607SOL     OW22653  11.890   2.618   1.673
73607SOL    HW122654  11.814   2.565   1.696
73607SOL    HW222655  11.901   2.604   1.579
73608SOL     OW22656  14.210  10.513   7.449
73608SOL    HW122657  14.166  10.597   7.461
73608SOL    HW222658  14.143  10.457   7.409
73609SOL     OW22659   8.136  12.721   7.630
73609SOL    HW122660   8.167  12.630   7.628
73609SOL    HW222661   8.043  12.714   7.648
73610SOL     OW22662   2.603   4.654  13.601
73610SOL    HW122663   2.681   4.600  13.593
73610SOL    HW222664   2.563   4.629  13.684
73611SOL     OW22665   4.541   2.573  10.029
73611SOL    HW122666   4.554   2.657   9.986
73611SOL    HW222667   4.626   2.551  10.066
73612SOL     OW22668   5.013   6.462   6.417
73612SOL    HW122669   4.945   6.526   6.442
73612SOL    HW222670   5.078   6.467   6.487
73613SOL     OW22671   4.050  12.145   3.545
73613SOL    HW122672   4.138  12.111   3.562
73613SOL    HW222673   4.062  12.207   3.473
73614SOL     OW22674   5.030   7.847   6.548
73614SOL    HW122675   4.965   7.854   6.477
73614SOL    HW222676   5.027   7.755   6.573
73615SOL     OW22677  12.013   9.838  13.413
73615SOL    HW122678  11.937   9.794  13.375
73615SOL    HW222679  11.978   9.919  13.450
73616SOL     OW22680   4.794  10.608   3.967
73616SOL    HW122681   4.704  10.586   3.944
73616SOL    HW222682   4.816  10.548   4.038
73617SOL     OW22683   6.879   1.981  10.064
73617SOL    HW122684   6.788   1.996  10.090
73617SOL    HW222685   6.918   2.068  10.064
73618SOL     OW22686  12.702  11.776   8.770
73618SOL    HW122687  12.671  11.823   8.692
73618SOL    HW222688  12.777  11.827   8.800
73619SOL     OW22689  10.368   5.027   8.931
73619SOL    HW122690  10.315   5.041   8.853
73619SOL    HW222691  10.337   5.093   8.993
73620SOL     OW22692  13.362  11.715   5.619
73620SOL    HW122693  13.377  11.810   5.613
73620SOL    HW222694  13.385  11.694   5.710
73621SOL     OW22695   5.326   3.787   9.302
73621SOL    HW122696   5.309   3.693   9.295
73621SOL    HW222697   5.290   3.813   9.387
73622SOL     OW22698  14.289   1.311   1.789
73622SOL    HW122699  14.306   1.401   1.762
73622SOL    HW222700  14.203   1.314   1.831
73623SOL     OW22701   0.788   4.438   6.668
73623SOL    HW122702   0.788   4.448   6.573
73623SOL    HW222703   0.831   4.353   6.683
73624SOL     OW22704  14.804  10.275   1.240
73624SOL    HW122705  14.852  10.272   1.323
73624SOL    HW222706  14.859  10.326   1.181
73625SOL     OW22707  12.170  11.140  14.521
73625SOL    HW122708  12.196  11.052  14.548
73625SOL    HW222709  12.190  11.144  14.428
73626SOL     OW22710   0.419   9.283   9.941
73626SOL    HW122711   0.410   9.335  10.021
73626SOL    HW222712   0.359   9.325   9.879
73627SOL     OW22713   5.983   3.958   4.817
73627SOL    HW122714   6.023   3.994   4.738
73627SOL    HW222715   5.891   3.944   4.794
73628SOL     OW22716   1.605   7.375   5.889
73628SOL    HW122717   1.611   7.470   5.897
73628SOL    HW222718   1.514   7.355   5.909
73629SOL     OW22719   8.683   3.567   2.499
73629SOL    HW122720   8.624   3.522   2.560
73629SOL    HW222721   8.643   3.553   2.413
73630SOL     OW22722   5.237   3.649  10.845
73630SOL    HW122723   5.164   3.634  10.785
73630SOL    HW222724   5.315   3.625  10.795
73631SOL     OW22725  10.473   7.546   3.280
73631SOL    HW122726  10.549   7.587   3.238
73631SOL    HW222727  10.422   7.620   3.312
73632SOL     OW22728   6.233   4.162   2.408
73632SOL    HW122729   6.216   4.218   2.484
73632SOL    HW222730   6.314   4.116   2.429
73633SOL     OW22731  11.969   5.762   1.445
73633SOL    HW122732  12.047   5.785   1.394
73633SOL    HW222733  12.004   5.727   1.527
73634SOL     OW22734   5.458  11.040   2.253
73634SOL    HW122735   5.465  11.135   2.257
73634SOL    HW222736   5.496  11.010   2.336
73635SOL     OW22737   2.188   5.215   5.896
73635SOL    HW122738   2.182   5.281   5.965
73635SOL    HW222739   2.151   5.136   5.936
73636SOL     OW22740  12.260   3.996  11.181
73636SOL    HW122741  12.246   3.902  11.183
73636SOL    HW222742  12.272   4.021  11.273
73637SOL     OW22743   9.876   4.847   2.214
73637SOL    HW122744   9.937   4.899   2.266
73637SOL    HW222745   9.881   4.759   2.252
73638SOL     OW22746  12.201   9.854   9.006
73638SOL    HW122747  12.238   9.772   8.974
73638SOL    HW222748  12.128   9.827   9.061
73639SOL     OW22749   3.684   5.016  10.330
73639SOL    HW122750   3.689   5.060  10.415
73639SOL    HW222751   3.754   4.950  10.333
73640SOL     OW22752   2.353   2.113   0.256
73640SOL    HW122753   2.431   2.089   0.306
73640SOL    HW222754   2.387   2.153   0.176
73641SOL     OW22755   8.393  11.821   8.399
73641SOL    HW122756   8.409  11.795   8.308
73641SOL    HW222757   8.473  11.867   8.424
73642SOL     OW22758   8.993  12.434   3.464
73642SOL    HW122759   9.011  12.420   3.557
73642SOL    HW222760   9.050  12.507   3.439
73643SOL     OW22761  12.106  11.704   0.428
73643SOL    HW122762  12.030  11.709   0.371
73643SOL    HW222763  12.084  11.760   0.502
73644SOL     OW22764   0.131   8.644  13.327
73644SOL    HW122765   0.130   8.689  13.242
73644SOL    HW222766   0.127   8.714  13.392
73645SOL     OW22767   5.661   0.370   1.689
73645SOL    HW122768   5.639   0.450   1.641
73645SOL    HW222769   5.594   0.307   1.664
73646SOL     OW22770   5.931  12.077   1.754
73646SOL    HW122771   5.876  12.110   1.684
73646SOL    HW222772   6.016  12.060   1.713
73647SOL     OW22773  10.155  11.679   7.263
73647SOL    HW122774  10.109  11.596   7.258
73647SOL    HW222775  10.093  11.743   7.228
73648SOL     OW22776   5.429   4.479   6.558
73648SOL    HW122777   5.493   4.420   6.517
73648SOL    HW222778   5.483   4.540   6.609
73649SOL     OW22779  11.539   1.526  13.486
73649SOL    HW122780  11.509   1.566  13.405
73649SOL    HW222781  11.635   1.534  13.483
73650SOL     OW22782   8.977   9.679   3.094
73650SOL    HW122783   8.959   9.688   3.000
73650SOL    HW222784   9.069   9.705   3.103
73651SOL     OW22785   8.249   3.041   6.210
73651SOL    HW122786   8.214   3.075   6.127
73651SOL    HW222787   8.230   2.947   6.207
73652SOL     OW22788   2.119   2.738   9.967
73652SOL    HW122789   2.151   2.806  10.027
73652SOL    HW222790   2.025   2.754   9.960
73653SOL     OW22791   7.120   5.135   7.149
73653SOL    HW122792   7.098   5.117   7.057
73653SOL    HW222793   7.047   5.188   7.181
73654SOL     OW22794  11.171   3.435   7.643
73654SOL    HW122795  11.196   3.372   7.576
73654SOL    HW222796  11.092   3.477   7.609
73655SOL     OW22797   0.404   2.152  13.420
73655SOL    HW122798   0.387   2.106  13.338
73655SOL    HW222799   0.319   2.186  13.447
73656SOL     OW22800  13.579   3.457  10.016
73656SOL    HW122801  13.561   3.365   9.996
73656SOL    HW222802  13.672   3.468   9.998
73657SOL     OW22803  14.350   1.262  10.882
73657SOL    HW122804  14.419   1.279  10.818
73657SOL    HW222805  14.282   1.218  10.832
73658SOL     OW22806   0.281   6.593   3.052
73658SOL    HW122807   0.324   6.608   3.136
73658SOL    HW222808   0.223   6.669   3.041
73659SOL     OW22809  14.856   9.620   5.602
73659SOL    HW122810  14.816   9.702   5.629
73659SOL    HW222811  14.808   9.553   5.650
73660SOL     OW22812  13.887   9.117   6.065
73660SOL    HW122813  13.922   9.094   5.979
73660SOL    HW222814  13.842   9.037   6.094
73661SOL     OW22815   6.241   1.961   6.605
73661SOL    HW122816   6.254   1.889   6.544
73661SOL    HW222817   6.170   2.013   6.567
73662SOL     OW22818  13.287   8.217   7.957
73662SOL    HW122819  13.359   8.277   7.940
73662SOL    HW222820  13.303   8.185   8.046
73663SOL     OW22821   8.748   3.904   2.010
73663SOL    HW122822   8.774   3.996   2.018
73663SOL    HW222823   8.829   3.855   2.025
73664SOL     OW22824  12.834  10.815   2.984
73664SOL    HW122825  12.832  10.910   2.995
73664SOL    HW222826  12.747  10.786   3.010
73665SOL     OW22827  11.715   9.115   8.555
73665SOL    HW122828  11.806   9.141   8.541
73665SOL    HW222829  11.703   9.039   8.498
73666SOL     OW22830  13.584   1.574   6.565
73666SOL    HW122831  13.604   1.666   6.584
73666SOL    HW222832  13.610   1.562   6.474
73667SOL     OW22833   0.075  10.184   7.080
73667SOL    HW122834   0.149  10.222   7.032
73667SOL    HW222835   0.102  10.185   7.171
73668SOL     OW22836   9.364   6.941  14.152
73668SOL    HW122837   9.409   6.860  14.126
73668SOL    HW222838   9.271   6.916  14.157
73669SOL     OW22839   0.108   3.378   3.782
73669SOL    HW122840   0.048   3.453   3.780
73669SOL    HW222841   0.053   3.303   3.763
73670SOL     OW22842   8.585  11.600   2.365
73670SOL    HW122843   8.658  11.610   2.427
73670SOL    HW222844   8.611  11.651   2.289
73671SOL     OW22845  11.469  10.538   0.005
73671SOL    HW122846  11.491  10.471   0.069
73671SOL    HW222847  11.447  10.489  14.804
73672SOL     OW22848   6.882   2.722  14.486
73672SOL    HW122849   6.910   2.755  14.571
73672SOL    HW222850   6.790   2.749  14.479
73673SOL     OW22851   5.639  14.340  12.162
73673SOL    HW122852   5.588  14.374  12.089
73673SOL    HW222853   5.724  14.384  12.155
73674SOL     OW22854   9.771   9.060   5.817
73674SOL    HW122855   9.821   9.043   5.737
73674SOL    HW222856   9.681   9.039   5.794
73675SOL     OW22857   5.917   8.714   0.068
73675SOL    HW122858   5.931   8.766  14.868
73675SOL    HW222859   5.926   8.623   0.039
73676SOL     OW22860  10.110   6.209   7.796
73676SOL    HW122861  10.036   6.250   7.752
73676SOL    HW222862  10.186   6.258   7.766
73677SOL     OW22863   2.099   9.517   8.109
73677SOL    HW122864   2.126   9.427   8.094
73677SOL    HW222865   2.166   9.569   8.064
73678SOL     OW22866   8.277  11.592   3.520
73678SOL    HW122867   8.221  11.629   3.588
73678SOL    HW222868   8.244  11.630   3.439
73679SOL     OW22869   5.996   3.094   9.573
73679SOL    HW122870   5.966   3.003   9.566
73679SOL    HW222871   5.916   3.146   9.573
73680SOL     OW22872  11.240   5.572  13.238
73680SOL    HW122873  11.241   5.504  13.170
73680SOL    HW222874  11.310   5.632  13.211
73681SOL     OW22875  12.388   8.972  14.416
73681SOL    HW122876  12.322   8.903  14.423
73681SOL    HW222877  12.460   8.942  14.472
73682SOL     OW22878   8.837   5.068   2.651
73682SOL    HW122879   8.794   5.069   2.565
73682SOL    HW222880   8.888   4.987   2.651
73683SOL     OW22881   9.750   1.825  12.069
73683SOL    HW122882   9.806   1.887  12.115
73683SOL    HW222883   9.793   1.741  12.079
73684SOL     OW22884   5.220  11.484   2.797
73684SOL    HW122885   5.184  11.525   2.875
73684SOL    HW222886   5.239  11.557   2.738
73685SOL     OW22887   5.558  12.481   3.623
73685SOL    HW122888   5.593  12.398   3.657
73685SOL    HW222889   5.585  12.547   3.687
73686SOL     OW22890   6.132   3.034   0.018
73686SOL    HW122891   6.092   2.981   0.087
73686SOL    HW222892   6.215   3.065   0.057
73687SOL     OW22893   2.756  11.210  11.772
73687SOL    HW122894   2.711  11.279  11.722
73687SOL    HW222895   2.789  11.150  11.705
73688SOL     OW22896   1.662   3.478   7.415
73688SOL    HW122897   1.718   3.499   7.490
73688SOL    HW222898   1.578   3.519   7.437
73689SOL     OW22899   9.233  11.543   8.335
73689SOL    HW122900   9.201  11.548   8.425
73689SOL    HW222901   9.282  11.461   8.331
73690SOL     OW22902  11.481   4.489  12.192
73690SOL    HW122903  11.503   4.413  12.139
73690SOL    HW222904  11.553   4.551  12.177
73691SOL     OW22905   8.714  14.743  13.730
73691SOL    HW122906   8.622  14.732  13.707
73691SOL    HW222907   8.715  14.814  13.795
73692SOL     OW22908  10.622   1.747   8.676
73692SOL    HW122909  10.565   1.800   8.732
73692SOL    HW222910  10.699   1.802   8.662
73693SOL     OW22911   3.891  11.049  10.906
73693SOL    HW122912   3.904  11.115  10.837
73693SOL    HW222913   3.799  11.023  10.897
73694SOL     OW22914  10.945   5.547   6.267
73694SOL    HW122915  11.020   5.577   6.319
73694SOL    HW222916  10.940   5.453   6.285
73695SOL     OW22917   2.225   6.061   8.188
73695SOL    HW122918   2.168   6.094   8.118
73695SOL    HW222919   2.284   6.134   8.206
73696SOL     OW22920   8.645  14.164   9.674
73696SOL    HW122921   8.730  14.169   9.718
73696SOL    HW222922   8.617  14.255   9.667
73697SOL     OW22923   6.879   5.181   5.039
73697SOL    HW122924   6.877   5.277   5.036
73697SOL    HW222925   6.971   5.159   5.026
73698SOL     OW22926   2.551   7.308   8.583
73698SOL    HW122927   2.583   7.225   8.618
73698SOL    HW222928   2.496   7.284   8.509
73699SOL     OW22929  10.078  14.310   0.445
73699SOL    HW122930  10.009  14.261   0.490
73699SOL    HW222931  10.123  14.245   0.392
73700SOL     OW22932   0.606   6.908  12.080
73700SOL    HW122933   0.513   6.889  12.073
73700SOL    HW222934   0.618   6.935  12.171
73701SOL     OW22935  14.192  14.129   8.826
73701SOL    HW122936  14.275  14.124   8.780
73701SOL    HW222937  14.178  14.223   8.842
73702SOL     OW22938   9.955   0.465   4.781
73702SOL    HW122939  10.030   0.516   4.809
73702SOL    HW222940   9.963   0.460   4.686
73703SOL     OW22941  11.339   2.662   7.359
73703SOL    HW122942  11.311   2.752   7.374
73703SOL    HW222943  11.267   2.622   7.310
73704SOL     OW22944   0.975   0.230   0.700
73704SOL    HW122945   1.011   0.146   0.672
73704SOL    HW222946   0.938   0.268   0.620
73705SOL     OW22947  13.567  10.753  12.105
73705SOL    HW122948  13.565  10.836  12.057
73705SOL    HW222949  13.598  10.689  12.040
73706SOL     OW22950   6.754  10.169   4.882
73706SOL    HW122951   6.698  10.126   4.947
73706SOL    HW222952   6.693  10.201   4.816
73707SOL     OW22953   1.014  12.543   2.083
73707SOL    HW122954   1.093  12.490   2.090
73707SOL    HW222955   1.003  12.583   2.170
73708SOL     OW22956   3.253   9.448  10.473
73708SOL    HW122957   3.322   9.500  10.515
73708SOL    HW222958   3.297   9.368  10.445
73709SOL     OW22959   6.258   2.254  11.701
73709SOL    HW122960   6.345   2.288  11.722
73709SOL    HW222961   6.259   2.163  11.733
73710SOL     OW22962   1.516   0.672   1.223
73710SOL    HW122963   1.477   0.633   1.144
73710SOL    HW222964   1.527   0.765   1.201
73711SOL     OW22965   2.811  11.611   8.051
73711SOL    HW122966   2.861  11.689   8.075
73711SOL    HW222967   2.845  11.543   8.109
73712SOL     OW22968  11.649  10.001   7.658
73712SOL    HW122969  11.736  10.033   7.637
73712SOL    HW222970  11.592  10.078   7.652
73713SOL     OW22971   6.689  12.676   2.546
73713SOL    HW122972   6.615  12.616   2.546
73713SOL    HW222973   6.682  12.723   2.630
73714SOL     OW22974   5.668   1.715  12.830
73714SOL    HW122975   5.665   1.630  12.873
73714SOL    HW222976   5.577   1.746  12.832
73715SOL     OW22977  10.916   8.053  11.892
73715SOL    HW122978  10.871   7.972  11.915
73715SOL    HW222979  10.848   8.120  11.895
73716SOL     OW22980   0.887   0.428   1.342
73716SOL    HW122981   0.966   0.483   1.342
73716SOL    HW222982   0.911   0.351   1.393
73717SOL     OW22983   5.900   2.294   4.146
73717SOL    HW122984   5.852   2.282   4.228
73717SOL    HW222985   5.915   2.389   4.140
73718SOL     OW22986   0.426  11.876   1.500
73718SOL    HW122987   0.498  11.833   1.455
73718SOL    HW222988   0.378  11.922   1.430
73719SOL     OW22989   4.556  14.365   2.120
73719SOL    HW122990   4.463  14.386   2.109
73719SOL    HW222991   4.572  14.377   2.214
73720SOL     OW22992   2.201   7.589   5.829
73720SOL    HW122993   2.214   7.547   5.744
73720SOL    HW222994   2.183   7.516   5.888
73721SOL     OW22995   4.417   7.817  12.913
73721SOL    HW122996   4.371   7.862  12.842
73721SOL    HW222997   4.509   7.820  12.888
73722SOL     OW22998   5.741  11.801   2.698
73722SOL    HW122999   5.826  11.818   2.738
73722SOL    HW223000   5.721  11.881   2.650
73723SOL     OW23001  10.235   8.716   8.748
73723SOL    HW123002  10.154   8.666   8.763
73723SOL    HW223003  10.281   8.711   8.832
73724SOL     OW23004  10.438   4.172   0.980
73724SOL    HW123005  10.353   4.199   1.015
73724SOL    HW223006  10.421   4.148   0.889
73725SOL     OW23007   7.151   0.345   6.235
73725SOL    HW123008   7.107   0.419   6.192
73725SOL    HW223009   7.080   0.294   6.273
73726SOL     OW23010   9.725   6.825   3.123
73726SOL    HW123011   9.737   6.919   3.116
73726SOL    HW223012   9.642   6.808   3.079
73727SOL     OW23013   7.224   3.651   9.404
73727SOL    HW123014   7.141   3.690   9.377
73727SOL    HW223015   7.212   3.630   9.497
73728SOL     OW23016   0.361   8.881   7.920
73728SOL    HW123017   0.378   8.807   7.978
73728SOL    HW223018   0.270   8.904   7.936
73729SOL     OW23019  12.308   6.521   8.864
73729SOL    HW123020  12.291   6.589   8.799
73729SOL    HW223021  12.387   6.477   8.832
73730SOL     OW23022  12.022  12.035   3.230
73730SOL    HW123023  12.068  12.052   3.148
73730SOL    HW223024  11.960  12.107   3.239
73731SOL     OW23025   4.328  14.205   4.933
73731SOL    HW123026   4.281  14.126   4.960
73731SOL    HW223027   4.394  14.218   5.001
73732SOL     OW23028  12.587   0.011  14.652
73732SOL    HW123029  12.510   0.044  14.605
73732SOL    HW223030  12.598  14.800  14.622
73733SOL     OW23031   3.870   7.834   4.906
73733SOL    HW123032   3.792   7.847   4.961
73733SOL    HW223033   3.906   7.751   4.936
73734SOL     OW23034  14.688   9.522   9.185
73734SOL    HW123035  14.637   9.562   9.115
73734SOL    HW223036  14.623   9.477   9.239
73735SOL     OW23037   0.629   7.796  14.296
73735SOL    HW123038   0.594   7.766  14.380
73735SOL    HW223039   0.556   7.841  14.254
73736SOL     OW23040   7.413   1.027   0.042
73736SOL    HW123041   7.348   1.038  14.851
73736SOL    HW223042   7.464   0.951   0.015
73737SOL     OW23043   2.435   6.610  12.368
73737SOL    HW123044   2.471   6.660  12.441
73737SOL    HW223045   2.344   6.637  12.362
73738SOL     OW23046  12.209  10.460   6.603
73738SOL    HW123047  12.218  10.532   6.540
73738SOL    HW223048  12.272  10.394   6.573
73739SOL     OW23049  13.653  13.171   6.412
73739SOL    HW123050  13.690  13.173   6.501
73739SOL    HW223051  13.612  13.085   6.406
73740SOL     OW23052   1.511  11.678   3.511
73740SOL    HW123053   1.480  11.613   3.448
73740SOL    HW223054   1.522  11.628   3.593
73741SOL     OW23055  10.899   4.479  10.311
73741SOL    HW123056  10.974   4.534  10.332
73741SOL    HW223057  10.856   4.464  10.396
73742SOL     OW23058   5.964   5.060   3.856
73742SOL    HW123059   5.920   5.132   3.901
73742SOL    HW223060   5.909   4.983   3.873
73743SOL     OW23061   9.704  14.562   1.159
73743SOL    HW123062   9.763  14.509   1.214
73743SOL    HW223063   9.618  14.550   1.200
73744SOL     OW23064   1.913  10.180   5.146
73744SOL    HW123065   1.889  10.268   5.174
73744SOL    HW223066   1.909  10.127   5.225
73745SOL     OW23067   8.147   7.715   9.240
73745SOL    HW123068   8.088   7.642   9.260
73745SOL    HW223069   8.229   7.692   9.284
73746SOL     OW23070   2.581  11.591   5.626
73746SOL    HW123071   2.606  11.631   5.544
73746SOL    HW223072   2.586  11.497   5.609
73747SOL     OW23073   6.854   6.131   5.349
73747SOL    HW123074   6.843   6.225   5.330
73747SOL    HW223075   6.842   6.088   5.265
73748SOL     OW23076   8.815   5.630  10.537
73748SOL    HW123077   8.787   5.646  10.447
73748SOL    HW223078   8.800   5.536  10.550
73749SOL     OW23079   6.293   2.175   7.718
73749SOL    HW123080   6.284   2.107   7.651
73749SOL    HW223081   6.382   2.165   7.751
73750SOL     OW23082   8.565   5.374  14.264
73750SOL    HW123083   8.486   5.342  14.308
73750SOL    HW223084   8.538   5.387  14.173
73751SOL     OW23085   4.654   3.823  10.795
73751SOL    HW123086   4.667   3.907  10.751
73751SOL    HW223087   4.604   3.844  10.873
73752SOL     OW23088   8.231   7.940  13.741
73752SOL    HW123089   8.162   7.983  13.791
73752SOL    HW223090   8.229   7.849  13.771
73753SOL     OW23091   2.134   9.492  13.226
73753SOL    HW123092   2.201   9.526  13.286
73753SOL    HW223093   2.109   9.408  13.265
73754SOL     OW23094   8.425   1.206   7.091
73754SOL    HW123095   8.448   1.137   7.028
73754SOL    HW223096   8.476   1.186   7.169
73755SOL     OW23097   6.580  10.575   1.895
73755SOL    HW123098   6.522  10.618   1.832
73755SOL    HW223099   6.659  10.628   1.895
73756SOL     OW23100   2.584  14.013   9.425
73756SOL    HW123101   2.660  14.063   9.455
73756SOL    HW223102   2.555  14.058   9.346
73757SOL     OW23103   7.795   5.131   2.416
73757SOL    HW123104   7.823   5.118   2.507
73757SOL    HW223105   7.857   5.080   2.365
73758SOL     OW23106   6.347   8.703  14.561
73758SOL    HW123107   6.279   8.753  14.605
73758SOL    HW223108   6.300   8.636  14.511
73759SOL     OW23109  11.188   4.564   3.766
73759SOL    HW123110  11.208   4.656   3.782
73759SOL    HW223111  11.270   4.526   3.734
73760SOL     OW23112  10.056  14.770   1.296
73760SOL    HW123113  10.004  14.834   1.345
73760SOL    HW223114  10.112  14.729   1.362
73761SOL     OW23115  12.412   5.050  12.606
73761SOL    HW123116  12.372   5.056  12.693
73761SOL    HW223117  12.379   5.126  12.559
73762SOL     OW23118  13.032   5.794   9.746
73762SOL    HW123119  13.104   5.854   9.765
73762SOL    HW223120  12.956   5.834   9.789
73763SOL     OW23121   1.351  13.669   6.917
73763SOL    HW123122   1.275  13.712   6.877
73763SOL    HW223123   1.417  13.669   6.848
73764SOL     OW23124   8.297   0.820   8.383
73764SOL    HW123125   8.331   0.734   8.357
73764SOL    HW223126   8.360   0.882   8.348
73765SOL     OW23127   9.054   7.303   6.376
73765SOL    HW123128   9.032   7.230   6.435
73765SOL    HW223129   9.093   7.369   6.433
73766SOL     OW23130   5.099   1.946  12.540
73766SOL    HW123131   5.141   1.861  12.555
73766SOL    HW223132   5.140   1.978  12.460
73767SOL     OW23133   9.680  14.710  12.478
73767SOL    HW123134   9.592  14.685  12.506
73767SOL    HW223135   9.706  14.779  12.539
73768SOL     OW23136   8.360  14.677   6.865
73768SOL    HW123137   8.439  14.712   6.825
73768SOL    HW223138   8.356  14.586   6.836
73769SOL     OW23139   1.742   7.051   6.652
73769SOL    HW123140   1.719   7.038   6.745
73769SOL    HW223141   1.690   7.127   6.626
73770SOL     OW23142  13.423   7.423   2.330
73770SOL    HW123143  13.430   7.418   2.234
73770SOL    HW223144  13.498   7.476   2.356
73771SOL     OW23145   4.466  13.281  11.249
73771SOL    HW123146   4.448  13.315  11.337
73771SOL    HW223147   4.412  13.203  11.242
73772SOL     OW23148   8.721   7.775   2.606
73772SOL    HW123149   8.644   7.806   2.558
73772SOL    HW223150   8.724   7.680   2.589
73773SOL     OW23151   5.131   7.477   2.144
73773SOL    HW123152   5.163   7.496   2.232
73773SOL    HW223153   5.036   7.475   2.153
73774SOL     OW23154   8.275  10.568   4.827
73774SOL    HW123155   8.328  10.489   4.814
73774SOL    HW223156   8.238  10.586   4.741
73775SOL     OW23157   6.009  14.292   0.215
73775SOL    HW123158   6.010  14.237   0.137
73775SOL    HW223159   5.942  14.358   0.197
73776SOL     OW23160   8.189   3.473   4.224
73776SOL    HW123161   8.172   3.557   4.265
73776SOL    HW223162   8.212   3.415   4.296
73777SOL     OW23163   3.949  11.912   7.580
73777SOL    HW123164   4.026  11.867   7.614
73777SOL    HW223165   3.971  11.932   7.489
73778SOL     OW23166   1.845   9.348   6.858
73778SOL    HW123167   1.866   9.264   6.899
73778SOL    HW223168   1.916   9.406   6.884
73779SOL     OW23169   7.069   7.621   0.088
73779SOL    HW123170   7.063   7.528   0.111
73779SOL    HW223171   7.017   7.665   0.156
73780SOL     OW23172   5.049   0.005  10.101
73780SOL    HW123173   5.136   0.006  10.062
73780SOL    HW223174   5.033  14.793  10.126
73781SOL     OW23175  13.792   4.336  14.767
73781SOL    HW123176  13.838   4.305  14.689
73781SOL    HW223177  13.757   4.257  14.807
73782SOL     OW23178   0.179   7.219  10.282
73782SOL    HW123179   0.226   7.302  10.276
73782SOL    HW223180   0.088   7.243  10.298
73783SOL     OW23181   6.641   1.473  13.233
73783SOL    HW123182   6.662   1.428  13.151
73783SOL    HW223183   6.553   1.442  13.256
73784SOL     OW23184   6.895  12.499   8.913
73784SOL    HW123185   6.854  12.584   8.899
73784SOL    HW223186   6.869  12.474   9.002
73785SOL     OW23187   7.684  11.901  13.816
73785SOL    HW123188   7.615  11.956  13.780
73785SOL    HW223189   7.762  11.926  13.767
73786SOL     OW23190   3.638   6.893   3.121
73786SOL    HW123191   3.565   6.952   3.105
73786SOL    HW223192   3.696   6.904   3.046
73787SOL     OW23193  13.659   1.500   3.933
73787SOL    HW123194  13.653   1.517   4.027
73787SOL    HW223195  13.572   1.522   3.899
73788SOL     OW23196  14.660  12.736   6.364
73788SOL    HW123197  14.666  12.808   6.426
73788SOL    HW223198  14.706  12.663   6.406
73789SOL     OW23199   5.392   5.170   9.750
73789SOL    HW123200   5.387   5.207   9.839
73789SOL    HW223201   5.443   5.090   9.761
73790SOL     OW23202   6.076   4.234   9.196
73790SOL    HW123203   6.078   4.139   9.186
73790SOL    HW223204   6.156   4.255   9.245
73791SOL     OW23205  10.990   2.197   7.955
73791SOL    HW123206  11.028   2.266   7.901
73791SOL    HW223207  10.989   2.120   7.899
73792SOL     OW23208  10.011   1.603   4.229
73792SOL    HW123209   9.929   1.585   4.274
73792SOL    HW223210   9.995   1.578   4.138
73793SOL     OW23211   0.550   7.795   8.086
73793SOL    HW123212   0.463   7.817   8.121
73793SOL    HW223213   0.607   7.796   8.162
73794SOL     OW23214   2.928   8.617  13.507
73794SOL    HW123215   2.927   8.661  13.592
73794SOL    HW223216   2.879   8.676  13.449
73795SOL     OW23217  14.664   9.653   7.532
73795SOL    HW123218  14.758   9.664   7.514
73795SOL    HW223219  14.634   9.591   7.465
73796SOL     OW23220   4.302   0.385  14.356
73796SOL    HW123221   4.246   0.459  14.378
73796SOL    HW223222   4.391   0.418  14.364
73797SOL     OW23223  14.165   2.503   0.422
73797SOL    HW123224  14.093   2.482   0.481
73797SOL    HW223225  14.135   2.474   0.336
73798SOL     OW23226   6.411   5.276  12.658
73798SOL    HW123227   6.459   5.295  12.738
73798SOL    HW223228   6.374   5.360  12.632
73799SOL     OW23229   5.457   6.066   4.164
73799SOL    HW123230   5.461   6.099   4.253
73799SOL    HW223231   5.523   6.117   4.116
73800SOL     OW23232  13.878  13.419   7.305
73800SOL    HW123233  13.807  13.465   7.262
73800SOL    HW223234  13.852  13.414   7.397
73801SOL     OW23235   9.543   8.460   4.391
73801SOL    HW123236   9.542   8.556   4.393
73801SOL    HW223237   9.460   8.435   4.432
73802SOL     OW23238  12.719  12.655   6.355
73802SOL    HW123239  12.660  12.583   6.335
73802SOL    HW223240  12.699  12.721   6.289
73803SOL     OW23241   9.248   3.440   4.142
73803SOL    HW123242   9.232   3.512   4.203
73803SOL    HW223243   9.229   3.477   4.056
73804SOL     OW23244  10.684  12.636   6.922
73804SOL    HW123245  10.596  12.651   6.957
73804SOL    HW223246  10.742  12.659   6.994
73805SOL     OW23247   1.762   3.879   6.785
73805SOL    HW123248   1.693   3.919   6.838
73805SOL    HW223249   1.761   3.787   6.810
73806SOL     OW23250   5.926   8.716  11.788
73806SOL    HW123251   5.925   8.757  11.701
73806SOL    HW223252   5.946   8.624  11.771
73807SOL     OW23253   7.257   5.929  13.834
73807SOL    HW123254   7.352   5.922  13.827
73807SOL    HW223255   7.236   5.888  13.917
73808SOL     OW23256   8.343   2.704  13.841
73808SOL    HW123257   8.355   2.795  13.865
73808SOL    HW223258   8.390   2.694  13.757
73809SOL     OW23259  13.043   7.288  14.569
73809SOL    HW123260  13.066   7.378  14.544
73809SOL    HW223261  13.118   7.236  14.541
73810SOL     OW23262  14.487   6.024  10.458
73810SOL    HW123263  14.522   5.936  10.443
73810SOL    HW223264  14.505   6.041  10.551
73811SOL     OW23265   4.972   4.624   1.378
73811SOL    HW123266   5.016   4.709   1.380
73811SOL    HW223267   5.005   4.578   1.456
73812SOL     OW23268   9.826   0.858  13.817
73812SOL    HW123269   9.867   0.943  13.836
73812SOL    HW223270   9.739   0.864  13.857
73813SOL     OW23271   1.719   4.125   0.959
73813SOL    HW123272   1.679   4.045   0.993
73813SOL    HW223273   1.662   4.152   0.887
73814SOL     OW23274  12.656  13.432  14.757
73814SOL    HW123275  12.726  13.447  14.821
73814SOL    HW223276  12.604  13.361  14.794
73815SOL     OW23277   7.939   1.278  13.560
73815SOL    HW123278   7.948   1.185  13.538
73815SOL    HW223279   7.915   1.320  13.477
73816SOL     OW23280  12.636   7.293  14.372
73816SOL    HW123281  12.705   7.359  14.378
73816SOL    HW223282  12.671   7.217  14.418
73817SOL     OW23283   5.306  12.848   9.074
73817SOL    HW123284   5.252  12.856   9.153
73817SOL    HW223285   5.270  12.915   9.014
73818SOL     OW23286   4.392  13.658  13.470
73818SOL    HW123287   4.466  13.717  13.483
73818SOL    HW223288   4.393  13.601  13.547
73819SOL     OW23289   5.432   9.038   8.989
73819SOL    HW123290   5.509   9.091   9.009
73819SOL    HW223291   5.358   9.096   9.009
73820SOL     OW23292  12.450   8.770  13.940
73820SOL    HW123293  12.403   8.783  13.857
73820SOL    HW223294  12.503   8.850  13.950
73821SOL     OW23295  14.766   9.412   2.683
73821SOL    HW123296  14.786   9.352   2.755
73821SOL    HW223297  14.832   9.393   2.616
73822SOL     OW23298   1.604  13.386  13.094
73822SOL    HW123299   1.681  13.436  13.119
73822SOL    HW223300   1.537  13.412  13.157
73823SOL     OW23301   0.449  13.906   7.854
73823SOL    HW123302   0.413  13.894   7.942
73823SOL    HW223303   0.473  13.817   7.827
73824SOL     OW23304   4.313   7.579   2.045
73824SOL    HW123305   4.337   7.540   1.960
73824SOL    HW223306   4.311   7.505   2.105
73825SOL     OW23307   6.802   2.459   8.483
73825SOL    HW123308   6.800   2.551   8.457
73825SOL    HW223309   6.718   2.445   8.528
73826SOL     OW23310   2.766   7.064   9.941
73826SOL    HW123311   2.846   7.025   9.904
73826SOL    HW223312   2.766   7.154   9.909
73827SOL     OW23313  12.761  13.882   2.122
73827SOL    HW123314  12.775  13.976   2.127
73827SOL    HW223315  12.669  13.870   2.143
73828SOL     OW23316   7.315   0.002   5.808
73828SOL    HW123317   7.297   0.035   5.720
73828SOL    HW223318   7.297   0.077   5.865
73829SOL     OW23319   3.001  10.799   2.572
73829SOL    HW123320   3.002  10.711   2.534
73829SOL    HW223321   3.071  10.845   2.526
73830SOL     OW23322   7.782  12.438   9.852
73830SOL    HW123323   7.804  12.484   9.772
73830SOL    HW223324   7.806  12.347   9.834
73831SOL     OW23325   3.856   1.587  11.226
73831SOL    HW123326   3.810   1.668  11.205
73831SOL    HW223327   3.920   1.612  11.293
73832SOL     OW23328   2.188  11.376   9.539
73832SOL    HW123329   2.179  11.324   9.619
73832SOL    HW223330   2.207  11.312   9.470
73833SOL     OW23331   1.928  14.334  10.039
73833SOL    HW123332   1.968  14.303   9.958
73833SOL    HW223333   1.841  14.294  10.039
73834SOL     OW23334   4.747   7.854   8.564
73834SOL    HW123335   4.706   7.809   8.490
73834SOL    HW223336   4.757   7.787   8.631
73835SOL     OW23337   7.457   9.284   3.560
73835SOL    HW123338   7.439   9.375   3.580
73835SOL    HW223339   7.437   9.237   3.641
73836SOL     OW23340   8.484  10.081   9.780
73836SOL    HW123341   8.417  10.149   9.793
73836SOL    HW223342   8.435   9.999   9.784
73837SOL     OW23343   6.952   9.900   5.985
73837SOL    HW123344   6.984   9.835   6.048
73837SOL    HW223345   6.870   9.863   5.952
73838SOL     OW23346  10.786   5.500   1.000
73838SOL    HW123347  10.741   5.418   0.978
73838SOL    HW223348  10.736   5.568   0.955
73839SOL     OW23349  12.346   4.886   2.477
73839SOL    HW123350  12.388   4.965   2.444
73839SOL    HW223351  12.288   4.917   2.547
73840SOL     OW23352   0.910   5.233  10.215
73840SOL    HW123353   0.962   5.311  10.195
73840SOL    HW223354   0.822   5.253  10.181
73841SOL     OW23355   8.696   1.864   0.753
73841SOL    HW123356   8.639   1.855   0.830
73841SOL    HW223357   8.785   1.861   0.787
73842SOL     OW23358   9.626   3.890  10.941
73842SOL    HW123359   9.540   3.848  10.940
73842SOL    HW223360   9.608   3.984  10.941
73843SOL     OW23361   4.049   5.053   3.891
73843SOL    HW123362   4.017   5.038   3.981
73843SOL    HW223363   4.126   4.997   3.884
73844SOL     OW23364   1.673   1.327  13.446
73844SOL    HW123365   1.613   1.381  13.497
73844SOL    HW223366   1.684   1.375  13.364
73845SOL     OW23367  12.645   2.962  11.122
73845SOL    HW123368  12.723   2.996  11.166
73845SOL    HW223369  12.583   3.035  11.124
73846SOL     OW23370  11.972   3.728  10.326
73846SOL    HW123371  11.890   3.729  10.277
73846SOL    HW223372  11.960   3.796  10.392
73847SOL     OW23373   1.642   7.306  10.027
73847SOL    HW123374   1.639   7.210  10.037
73847SOL    HW223375   1.732   7.324  10.001
73848SOL     OW23376   0.927  10.451   3.424
73848SOL    HW123377   0.921  10.465   3.519
73848SOL    HW223378   1.015  10.416   3.411
73849SOL     OW23379   2.396   3.344   9.689
73849SOL    HW123380   2.409   3.249   9.698
73849SOL    HW223381   2.328   3.353   9.623
73850SOL     OW23382   7.845   5.605  10.963
73850SOL    HW123383   7.883   5.517  10.965
73850SOL    HW223384   7.882   5.646  10.885
73851SOL     OW23385   1.987  13.309  12.633
73851SOL    HW123386   1.895  13.309  12.608
73851SOL    HW223387   1.986  13.327  12.727
73852SOL     OW23388   3.527   7.085   2.057
73852SOL    HW123389   3.565   7.099   1.971
73852SOL    HW223390   3.432   7.091   2.043
73853SOL     OW23391   4.697  11.688   6.264
73853SOL    HW123392   4.686  11.596   6.285
73853SOL    HW223393   4.627  11.708   6.202
73854SOL     OW23394   4.819  12.676  12.099
73854SOL    HW123395   4.861  12.724  12.171
73854SOL    HW223396   4.858  12.589  12.101
73855SOL     OW23397   4.976   3.977   6.427
73855SOL    HW123398   4.997   4.069   6.411
73855SOL    HW223399   5.011   3.960   6.514
73856SOL     OW23400  14.686   6.342   7.170
73856SOL    HW123401  14.725   6.344   7.257
73856SOL    HW223402  14.615   6.406   7.173
73857SOL     OW23403   6.900   6.071  12.419
73857SOL    HW123404   6.881   6.046  12.510
73857SOL    HW223405   6.980   6.124  12.426
73858SOL     OW23406   8.739   2.759   7.291
73858SOL    HW123407   8.655   2.799   7.314
73858SOL    HW223408   8.790   2.764   7.371
73859SOL     OW23409   8.094  13.014  11.114
73859SOL    HW123410   8.064  12.976  11.031
73859SOL    HW223411   8.183  13.043  11.096
73860SOL     OW23412  13.779  13.983  13.894
73860SOL    HW123413  13.770  13.888  13.884
73860SOL    HW223414  13.729  14.020  13.821
73861SOL     OW23415  12.702   6.406   6.861
73861SOL    HW123416  12.763   6.367   6.798
73861SOL    HW223417  12.642   6.458   6.807
73862SOL     OW23418   5.233   7.100   4.782
73862SOL    HW123419   5.254   7.021   4.733
73862SOL    HW223420   5.259   7.172   4.723
73863SOL     OW23421  11.758   0.061   0.831
73863SOL    HW123422  11.830   0.079   0.893
73863SOL    HW223423  11.774  14.850   0.801
73864SOL     OW23424   0.860  12.009   4.830
73864SOL    HW123425   0.872  12.092   4.783
73864SOL    HW223426   0.836  12.035   4.918
73865SOL     OW23427  14.420   7.990  10.434
73865SOL    HW123428  14.356   7.972  10.365
73865SOL    HW223429  14.480   7.916  10.431
73866SOL     OW23430  12.445   3.443  12.916
73866SOL    HW123431  12.455   3.456  12.821
73866SOL    HW223432  12.389   3.516  12.944
73867SOL     OW23433   7.858   8.667   5.756
73867SOL    HW123434   7.820   8.593   5.804
73867SOL    HW223435   7.829   8.744   5.804
73868SOL     OW23436  12.696   0.892   9.630
73868SOL    HW123437  12.716   0.812   9.679
73868SOL    HW223438  12.617   0.872   9.580
73869SOL     OW23439   3.891   6.192   4.486
73869SOL    HW123440   3.919   6.150   4.567
73869SOL    HW223441   3.841   6.268   4.515
73870SOL     OW23442  13.106   6.651   9.870
73870SOL    HW123443  13.058   6.688   9.944
73870SOL    HW223444  13.168   6.719   9.844
73871SOL     OW23445   6.205  14.817   9.615
73871SOL    HW123446   6.184  14.727   9.641
73871SOL    HW223447   6.123  14.852   9.580
73872SOL     OW23448  11.560  14.460   3.881
73872SOL    HW123449  11.582  14.545   3.843
73872SOL    HW223450  11.576  14.398   3.810
73873SOL     OW23451   1.541   3.082   4.929
73873SOL    HW123452   1.636   3.095   4.927
73873SOL    HW223453   1.525   3.016   4.861
73874SOL     OW23454   4.558   7.472   7.348
73874SOL    HW123455   4.465   7.451   7.359
73874SOL    HW223456   4.560   7.567   7.342
73875SOL     OW23457   6.274   3.239  10.449
73875SOL    HW123458   6.198   3.246  10.391
73875SOL    HW223459   6.236   3.216  10.534
73876SOL     OW23460  11.324  13.615   0.178
73876SOL    HW123461  11.233  13.636   0.200
73876SOL    HW223462  11.318  13.530   0.134
73877SOL     OW23463   0.644   5.639   0.612
73877SOL    HW123464   0.582   5.582   0.658
73877SOL    HW223465   0.655   5.599   0.526
73878SOL     OW23466   4.735   9.410  10.760
73878SOL    HW123467   4.771   9.333  10.716
73878SOL    HW223468   4.649   9.383  10.790
73879SOL     OW23469   4.347   8.606   1.028
73879SOL    HW123470   4.438   8.619   1.002
73879SOL    HW223471   4.301   8.684   0.997
73880SOL     OW23472  13.173   9.550   6.451
73880SOL    HW123473  13.090   9.568   6.495
73880SOL    HW223474  13.155   9.565   6.358
73881SOL     OW23475   9.904  11.034   6.485
73881SOL    HW123476   9.959  10.961   6.456
73881SOL    HW223477   9.818  11.014   6.448
73882SOL     OW23478   1.527  13.040   5.312
73882SOL    HW123479   1.613  13.028   5.272
73882SOL    HW223480   1.465  13.029   5.240
73883SOL     OW23481  11.976   2.253  10.175
73883SOL    HW123482  12.026   2.227  10.098
73883SOL    HW223483  11.886   2.256  10.145
73884SOL     OW23484  13.403   4.076  13.073
73884SOL    HW123485  13.401   4.142  13.003
73884SOL    HW223486  13.317   4.081  13.114
73885SOL     OW23487   4.880   1.149   6.011
73885SOL    HW123488   4.839   1.210   6.072
73885SOL    HW223489   4.814   1.081   5.998
73886SOL     OW23490   9.779  12.221   4.287
73886SOL    HW123491   9.789  12.247   4.378
73886SOL    HW223492   9.798  12.301   4.237
73887SOL     OW23493  14.718   3.257   5.712
73887SOL    HW123494  14.624   3.244   5.703
73887SOL    HW223495  14.732   3.349   5.687
73888SOL     OW23496  11.999   4.498   1.055
73888SOL    HW123497  11.923   4.527   1.106
73888SOL    HW223498  11.993   4.402   1.055
73889SOL     OW23499   9.527   4.831   5.528
73889SOL    HW123500   9.492   4.767   5.590
73889SOL    HW223501   9.470   4.907   5.538
73890SOL     OW23502   3.652   2.096   1.267
73890SOL    HW123503   3.654   2.034   1.194
73890SOL    HW223504   3.679   2.179   1.227
73891SOL     OW23505  10.249   9.840  13.889
73891SOL    HW123506  10.189   9.908  13.858
73891SOL    HW223507  10.245   9.772  13.823
73892SOL     OW23508  14.558   3.806   3.594
73892SOL    HW123509  14.466   3.780   3.588
73892SOL    HW223510  14.581   3.836   3.506
73893SOL     OW23511   9.704  14.828   7.963
73893SOL    HW123512   9.774  14.785   7.915
73893SOL    HW223513   9.624  14.783   7.936
73894SOL     OW23514   8.751   1.720  14.589
73894SOL    HW123515   8.684   1.652  14.588
73894SOL    HW223516   8.786   1.717  14.678
73895SOL     OW23517   8.375  12.726   4.883
73895SOL    HW123518   8.293  12.766   4.912
73895SOL    HW223519   8.352  12.636   4.861
73896SOL     OW23520   3.313   9.741   8.873
73896SOL    HW123521   3.387   9.719   8.930
73896SOL    HW223522   3.249   9.671   8.888
73897SOL     OW23523  12.225   6.123  11.417
73897SOL    HW123524  12.184   6.055  11.470
73897SOL    HW223525  12.310   6.085  11.392
73898SOL     OW23526  12.960   2.210   4.993
73898SOL    HW123527  12.983   2.179   4.905
73898SOL    HW223528  12.910   2.138   5.031
73899SOL     OW23529   1.166   5.378  10.466
73899SOL    HW123530   1.253   5.368  10.505
73899SOL    HW223531   1.123   5.294  10.482
73900SOL     OW23532   2.116  14.075   0.238
73900SOL    HW123533   2.084  14.164   0.251
73900SOL    HW223534   2.046  14.032   0.188
73901SOL     OW23535   0.847   2.077   6.610
73901SOL    HW123536   0.880   2.139   6.545
73901SOL    HW223537   0.808   2.006   6.558
73902SOL     OW23538   2.815   5.534  11.475
73902SOL    HW123539   2.809   5.546  11.380
73902SOL    HW223540   2.792   5.620  11.512
73903SOL     OW23541  12.108   4.887   0.913
73903SOL    HW123542  12.195   4.881   0.875
73903SOL    HW223543  12.109   4.825   0.986
73904SOL     OW23544   0.596   1.208   3.325
73904SOL    HW123545   0.646   1.256   3.390
73904SOL    HW223546   0.602   1.262   3.246
73905SOL     OW23547   8.130   5.823  11.927
73905SOL    HW123548   8.207   5.770  11.905
73905SOL    HW223549   8.145   5.907  11.882
73906SOL     OW23550   7.677   6.127   5.868
73906SOL    HW123551   7.715   6.041   5.854
73906SOL    HW223552   7.747   6.189   5.848
73907SOL     OW23553   9.840  12.397   7.123
73907SOL    HW123554   9.825  12.424   7.033
73907SOL    HW223555   9.759  12.421   7.169
73908SOL     OW23556  13.521  10.520   2.945
73908SOL    HW123557  13.570  10.495   3.023
73908SOL    HW223558  13.579  10.498   2.871
73909SOL     OW23559   1.300  14.313   3.790
73909SOL    HW123560   1.375  14.322   3.849
73909SOL    HW223561   1.330  14.253   3.722
73910SOL     OW23562   1.884   7.214  13.345
73910SOL    HW123563   1.911   7.144  13.404
73910SOL    HW223564   1.926   7.194  13.262
73911SOL     OW23565   4.681   9.296   2.609
73911SOL    HW123566   4.677   9.202   2.623
73911SOL    HW223567   4.591   9.321   2.588
73912SOL     OW23568  12.605  12.965   0.522
73912SOL    HW123569  12.596  12.963   0.427
73912SOL    HW223570  12.521  12.998   0.553
73913SOL     OW23571   6.252   7.469   8.278
73913SOL    HW123572   6.296   7.547   8.310
73913SOL    HW223573   6.321   7.404   8.266
73914SOL     OW23574   1.182   0.095   2.936
73914SOL    HW123575   1.238   0.026   2.972
73914SOL    HW223576   1.099   0.051   2.916
73915SOL     OW23577   5.432   2.074  14.720
73915SOL    HW123578   5.427   1.980  14.737
73915SOL    HW223579   5.345   2.098  14.687
73916SOL     OW23580   7.895   3.087   0.318
73916SOL    HW123581   7.895   2.992   0.330
73916SOL    HW223582   7.984   3.108   0.291
73917SOL     OW23583  12.939   3.597   9.009
73917SOL    HW123584  12.931   3.659   9.082
73917SOL    HW223585  12.938   3.511   9.051
73918SOL     OW23586  13.935  11.170   9.729
73918SOL    HW123587  13.922  11.244   9.787
73918SOL    HW223588  13.877  11.186   9.655
73919SOL     OW23589   0.858   2.243  12.775
73919SOL    HW123590   0.902   2.158  12.774
73919SOL    HW223591   0.925   2.306  12.749
73920SOL     OW23592   6.049   8.869   8.934
73920SOL    HW123593   6.104   8.939   8.971
73920SOL    HW223594   6.112   8.812   8.888
73921SOL     OW23595   9.199   1.969   9.339
73921SOL    HW123596   9.175   2.047   9.390
73921SOL    HW223597   9.237   2.004   9.259
73922SOL     OW23598  11.299  14.404   5.940
73922SOL    HW123599  11.245  14.474   5.901
73922SOL    HW223600  11.381  14.407   5.890
73923SOL     OW23601   9.916  10.470  12.862
73923SOL    HW123602   9.923  10.376  12.852
73923SOL    HW223603   9.983  10.506  12.803
73924SOL     OW23604   6.870   6.210   9.965
73924SOL    HW123605   6.874   6.131  10.018
73924SOL    HW223606   6.941   6.201   9.902
73925SOL     OW23607   2.608  14.604  12.941
73925SOL    HW123608   2.625  14.698  12.946
73925SOL    HW223609   2.617  14.583  12.848
73926SOL     OW23610   1.648  12.916   0.084
73926SOL    HW123611   1.680  12.944  14.877
73926SOL    HW223612   1.588  12.985   0.111
73927SOL     OW23613  11.896   5.739  14.646
73927SOL    HW123614  11.885   5.740  14.551
73927SOL    HW223615  11.956   5.812  14.664
73928SOL     OW23616  14.055   3.445  12.487
73928SOL    HW123617  14.122   3.391  12.444
73928SOL    HW223618  14.106   3.513  12.533
73929SOL     OW23619   2.297   0.899  12.928
73929SOL    HW123620   2.362   0.839  12.892
73929SOL    HW223621   2.347   0.964  12.977
73930SOL     OW23622   0.984   0.149  11.686
73930SOL    HW123623   0.894   0.131  11.660
73930SOL    HW223624   0.979   0.172  11.779
73931SOL     OW23625   3.822  13.151   7.555
73931SOL    HW123626   3.733  13.116   7.549
73931SOL    HW223627   3.824  13.224   7.493
73932SOL     OW23628   3.870   4.365   5.329
73932SOL    HW123629   3.827   4.280   5.341
73932SOL    HW223630   3.810   4.415   5.273
73933SOL     OW23631   2.094   7.939   9.835
73933SOL    HW123632   2.066   7.896   9.754
73933SOL    HW223633   2.117   7.867   9.893
73934SOL     OW23634   2.709  10.336   3.071
73934SOL    HW123635   2.799  10.369   3.079
73934SOL    HW223636   2.679  10.328   3.162
73935SOL     OW23637   2.790   8.472   0.090
73935SOL    HW123638   2.863   8.464   0.151
73935SOL    HW223639   2.712   8.455   0.143
73936SOL     OW23640   8.584   1.674  10.940
73936SOL    HW123641   8.599   1.768  10.949
73936SOL    HW223642   8.609   1.655  10.849
73937SOL     OW23643   8.662   7.205   5.042
73937SOL    HW123644   8.583   7.259   5.039
73937SOL    HW223645   8.706   7.223   4.959
73938SOL     OW23646  13.469   6.291   3.369
73938SOL    HW123647  13.554   6.253   3.390
73938SOL    HW223648  13.477   6.321   3.279
73939SOL     OW23649   9.277  10.848   1.980
73939SOL    HW123650   9.354  10.904   1.972
73939SOL    HW223651   9.207  10.906   2.011
73940SOL     OW23652  13.649  14.113  13.688
73940SOL    HW123653  13.601  14.077  13.613
73940SOL    HW223654  13.610  14.198  13.703
73941SOL     OW23655   1.627  12.425   6.330
73941SOL    HW123656   1.714  12.385   6.328
73941SOL    HW223657   1.573  12.368   6.275
73942SOL     OW23658   4.564   8.600   0.262
73942SOL    HW123659   4.622   8.554   0.202
73942SOL    HW223660   4.617   8.672   0.297
73943SOL     OW23661   9.008   3.016   0.593
73943SOL    HW123662   9.073   3.038   0.660
73943SOL    HW223663   8.941   3.084   0.601
73944SOL     OW23664   4.197   5.989   4.929
73944SOL    HW123665   4.195   5.918   4.993
73944SOL    HW223666   4.282   6.031   4.941
73945SOL     OW23667  10.140   9.190  12.041
73945SOL    HW123668  10.126   9.106  11.997
73945SOL    HW223669  10.129   9.256  11.973
73946SOL     OW23670   1.283   5.303   4.398
73946SOL    HW123671   1.365   5.274   4.437
73946SOL    HW223672   1.214   5.260   4.449
73947SOL     OW23673  10.526   0.914  12.691
73947SOL    HW123674  10.577   0.957  12.623
73947SOL    HW223675  10.503   0.984  12.751
73948SOL     OW23676   7.148   0.568  13.904
73948SOL    HW123677   7.172   0.486  13.860
73948SOL    HW223678   7.054   0.561  13.919
73949SOL     OW23679   3.414   7.418  13.291
73949SOL    HW123680   3.370   7.348  13.242
73949SOL    HW223681   3.346   7.451  13.350
73950SOL     OW23682   5.109   8.433   5.744
73950SOL    HW123683   5.153   8.504   5.698
73950SOL    HW223684   5.077   8.376   5.674
73951SOL     OW23685   5.788  10.286   6.640
73951SOL    HW123686   5.739  10.257   6.717
73951SOL    HW223687   5.759  10.377   6.627
73952SOL     OW23688  13.809  11.069   2.467
73952SOL    HW123689  13.729  11.050   2.417
73952SOL    HW223690  13.851  10.984   2.478
73953SOL     OW23691   2.489   8.158   2.532
73953SOL    HW123692   2.504   8.095   2.602
73953SOL    HW223693   2.561   8.220   2.538
73954SOL     OW23694   4.028   8.131   1.513
73954SOL    HW123695   4.014   8.060   1.449
73954SOL    HW223696   4.121   8.123   1.536
73955SOL     OW23697  12.939   6.652  14.693
73955SOL    HW123698  12.989   6.733  14.678
73955SOL    HW223699  12.918   6.654  14.786
73956SOL     OW23700   2.564   4.419   6.312
73956SOL    HW123701   2.498   4.469   6.360
73956SOL    HW223702   2.525   4.332   6.301
73957SOL     OW23703   7.591  10.476   6.202
73957SOL    HW123704   7.682  10.448   6.206
73957SOL    HW223705   7.561  10.473   6.293
73958SOL     OW23706   8.777   6.939   7.324
73958SOL    HW123707   8.740   7.014   7.370
73958SOL    HW223708   8.780   6.966   7.232
73959SOL     OW23709   1.721   6.412   7.247
73959SOL    HW123710   1.674   6.336   7.281
73959SOL    HW223711   1.716   6.403   7.152
73960SOL     OW23712   6.439   5.801  11.591
73960SOL    HW123713   6.483   5.727  11.548
73960SOL    HW223714   6.510   5.853  11.627
73961SOL     OW23715   9.405  13.420   0.658
73961SOL    HW123716   9.378  13.508   0.684
73961SOL    HW223717   9.343  13.362   0.702
73962SOL     OW23718  14.090  13.323   0.538
73962SOL    HW123719  14.170  13.276   0.517
73962SOL    HW223720  14.106  13.359   0.626
73963SOL     OW23721  12.221  12.855  13.519
73963SOL    HW123722  12.242  12.763  13.503
73963SOL    HW223723  12.307  12.897  13.532
73964SOL     OW23724   3.701  10.937   1.631
73964SOL    HW123725   3.783  10.888   1.627
73964SOL    HW223726   3.696  10.983   1.547
73965SOL     OW23727  12.893   5.647   3.024
73965SOL    HW123728  12.965   5.707   3.042
73965SOL    HW223729  12.820   5.703   2.998
73966SOL     OW23730   4.512   4.947   1.364
73966SOL    HW123731   4.504   4.977   1.454
73966SOL    HW223732   4.448   4.999   1.315
73967SOL     OW23733   3.610  12.597  10.620
73967SOL    HW123734   3.686  12.545  10.592
73967SOL    HW223735   3.635  12.688  10.601
73968SOL     OW23736   0.546   7.173   6.129
73968SOL    HW123737   0.452   7.164   6.119
73968SOL    HW223738   0.581   7.086   6.108
73969SOL     OW23739  13.394  11.055   4.913
73969SOL    HW123740  13.375  11.135   4.962
73969SOL    HW223741  13.469  11.017   4.959
73970SOL     OW23742   7.077   2.237  12.323
73970SOL    HW123743   7.115   2.324  12.308
73970SOL    HW223744   7.107   2.213  12.411
73971SOL     OW23745  10.060  13.506   6.979
73971SOL    HW123746  10.106  13.493   6.896
73971SOL    HW223747   9.977  13.461   6.967
73972SOL     OW23748   2.691   3.091   1.590
73972SOL    HW123749   2.666   3.174   1.630
73972SOL    HW223750   2.699   3.112   1.497
73973SOL     OW23751   3.301   3.043   5.981
73973SOL    HW123752   3.311   3.085   5.896
73973SOL    HW223753   3.265   3.112   6.037
73974SOL     OW23754  13.112   3.245  10.965
73974SOL    HW123755  13.171   3.238  11.041
73974SOL    HW223756  13.139   3.325  10.921
73975SOL     OW23757  10.287  13.712   7.142
73975SOL    HW123758  10.344  13.782   7.109
73975SOL    HW223759  10.199  13.749   7.139
73976SOL     OW23760   1.935  14.574  12.822
73976SOL    HW123761   1.860  14.595  12.878
73976SOL    HW223762   1.964  14.489  12.853
73977SOL     OW23763   1.532   9.111   3.173
73977SOL    HW123764   1.624   9.126   3.152
73977SOL    HW223765   1.526   9.017   3.187
73978SOL     OW23766  10.923  14.848   2.313
73978SOL    HW123767  10.995   0.019   2.276
73978SOL    HW223768  10.933  14.759   2.278
73979SOL     OW23769  12.268  14.767   8.341
73979SOL    HW123770  12.282  14.761   8.246
73979SOL    HW223771  12.180  14.803   8.350
73980SOL     OW23772  13.404   3.444   3.827
73980SOL    HW123773  13.428   3.455   3.735
73980SOL    HW223774  13.350   3.521   3.847
73981SOL     OW23775  13.716   2.341  12.408
73981SOL    HW123776  13.771   2.270  12.439
73981SOL    HW223777  13.772   2.391  12.349
73982SOL     OW23778   9.717   2.411   3.444
73982SOL    HW123779   9.781   2.365   3.499
73982SOL    HW223780   9.649   2.438   3.505
73983SOL     OW23781   1.178  10.604   8.020
73983SOL    HW123782   1.203  10.526   7.969
73983SOL    HW223783   1.254  10.662   8.012
73984SOL     OW23784   6.301   8.949  14.040
73984SOL    HW123785   6.284   9.036  14.074
73984SOL    HW223786   6.341   8.901  14.112
73985SOL     OW23787  11.366  10.417  12.644
73985SOL    HW123788  11.328  10.493  12.688
73985SOL    HW223789  11.403  10.365  12.716
73986SOL     OW23790   3.217  12.880   7.542
73986SOL    HW123791   3.245  12.877   7.451
73986SOL    HW223792   3.297  12.864   7.592
73987SOL     OW23793  10.412  11.700   3.856
73987SOL    HW123794  10.387  11.787   3.824
73987SOL    HW223795  10.330  11.661   3.886
73988SOL     OW23796   3.444   5.582   5.899
73988SOL    HW123797   3.481   5.593   5.812
73988SOL    HW223798   3.382   5.655   5.909
73989SOL     OW23799  10.593   0.285   4.075
73989SOL    HW123800  10.589   0.298   3.980
73989SOL    HW223801  10.560   0.196   4.089
73990SOL     OW23802   6.602   2.738  14.656
73990SOL    HW123803   6.552   2.670  14.701
73990SOL    HW223804   6.536   2.805  14.634
73991SOL     OW23805   7.676   8.625   3.173
73991SOL    HW123806   7.739   8.579   3.228
73991SOL    HW223807   7.606   8.562   3.159
73992SOL     OW23808   4.484  12.511   8.235
73992SOL    HW123809   4.563  12.478   8.191
73992SOL    HW223810   4.506  12.600   8.261
73993SOL     OW23811  11.287   5.151   1.168
73993SOL    HW123812  11.316   5.240   1.188
73993SOL    HW223813  11.218   5.162   1.102
73994SOL     OW23814   4.029  14.606   6.147
73994SOL    HW123815   4.065  14.629   6.232
73994SOL    HW223816   4.054  14.678   6.090
73995SOL     OW23817   7.715   7.733  11.567
73995SOL    HW123818   7.692   7.824  11.580
73995SOL    HW223819   7.806   7.726  11.598
73996SOL     OW23820   6.343  11.003   6.042
73996SOL    HW123821   6.278  10.963   6.101
73996SOL    HW223822   6.412  11.033   6.100
73997SOL     OW23823   5.869   3.035   8.764
73997SOL    HW123824   5.776   3.048   8.781
73997SOL    HW223825   5.886   2.945   8.793
73998SOL     OW23826   7.070   6.419   3.581
73998SOL    HW123827   7.161   6.390   3.571
73998SOL    HW223828   7.029   6.350   3.634
73999SOL     OW23829   4.812   8.112   8.126
73999SOL    HW123830   4.804   8.075   8.214
73999SOL    HW223831   4.896   8.158   8.126
74000SOL     OW23832  10.854   0.247   3.777
74000SOL    HW123833  10.761   0.233   3.794
74000SOL    HW223834  10.867   0.217   3.687
74001SOL     OW23835   3.407   4.328  12.693
74001SOL    HW123836   3.386   4.334  12.600
74001SOL    HW223837   3.484   4.270  12.697
74002SOL     OW23838   1.432  13.909   3.038
74002SOL    HW123839   1.519  13.949   3.031
74002SOL    HW223840   1.446  13.816   3.017
74003SOL     OW23841   0.339  10.210   7.210
74003SOL    HW123842   0.389  10.154   7.269
74003SOL    HW223843   0.356  10.299   7.242
74004SOL     OW23844   7.885   0.968   2.032
74004SOL    HW123845   7.894   0.990   1.939
74004SOL    HW223846   7.967   0.925   2.054
74005SOL     OW23847   6.302   7.055   1.562
74005SOL    HW123848   6.306   7.101   1.478
74005SOL    HW223849   6.338   7.116   1.625
74006SOL     OW23850   5.307  11.781   9.585
74006SOL    HW123851   5.369  11.757   9.516
74006SOL    HW223852   5.304  11.705   9.643
74007SOL     OW23853   1.214  10.326   7.465
74007SOL    HW123854   1.250  10.261   7.526
74007SOL    HW223855   1.149  10.278   7.415
74008SOL     OW23856  13.018   4.661   1.670
74008SOL    HW123857  13.012   4.708   1.587
74008SOL    HW223858  13.065   4.580   1.649
74009SOL     OW23859   0.114   8.636  12.901
74009SOL    HW123860   0.134   8.553  12.944
74009SOL    HW223861   0.148   8.703  12.962
74010SOL     OW23862  14.190   6.589  14.242
74010SOL    HW123863  14.198   6.516  14.180
74010SOL    HW223864  14.245   6.562  14.316
74011SOL     OW23865   2.283   6.980  13.066
74011SOL    HW123866   2.264   7.008  12.976
74011SOL    HW223867   2.299   6.886  13.058
74012SOL     OW23868   1.001   7.389  12.191
74012SOL    HW123869   0.995   7.358  12.101
74012SOL    HW223870   1.006   7.309  12.244
74013SOL     OW23871   2.946   2.125   7.822
74013SOL    HW123872   2.887   2.145   7.749
74013SOL    HW223873   3.032   2.152   7.791
74014SOL     OW23874   9.087   3.234   6.187
74014SOL    HW123875   9.121   3.302   6.244
74014SOL    HW223876   9.067   3.161   6.247
74015SOL     OW23877   0.114   2.441   5.953
74015SOL    HW123878   0.046   2.503   5.981
74015SOL    HW223879   0.089   2.417   5.864
74016SOL     OW23880   5.167   4.120  11.623
74016SOL    HW123881   5.146   4.213  11.608
74016SOL    HW223882   5.109   4.073  11.563
74017SOL     OW23883   6.093   1.593   3.479
74017SOL    HW123884   6.067   1.647   3.405
74017SOL    HW223885   6.082   1.503   3.449
74018SOL     OW23886   3.913   1.082  14.033
74018SOL    HW123887   3.980   1.024  13.996
74018SOL    HW223888   3.936   1.169  13.999
74019SOL     OW23889  13.165   0.152  11.235
74019SOL    HW123890  13.108   0.217  11.194
74019SOL    HW223891  13.104   0.088  11.273
74020SOL     OW23892   6.516   7.408   4.913
74020SOL    HW123893   6.423   7.423   4.893
74020SOL    HW223894   6.518   7.392   5.007
74021SOL     OW23895  10.044   9.123   4.157
74021SOL    HW123896  10.109   9.097   4.091
74021SOL    HW223897  10.059   9.216   4.169
74022SOL     OW23898   4.900   5.605  11.878
74022SOL    HW123899   4.828   5.668  11.883
74022SOL    HW223900   4.960   5.644  11.814
74023SOL     OW23901   5.560   2.660   5.473
74023SOL    HW123902   5.538   2.571   5.498
74023SOL    HW223903   5.510   2.677   5.394
74024SOL     OW23904   4.581   0.153  11.124
74024SOL    HW123905   4.661   0.202  11.143
74024SOL    HW223906   4.521   0.179  11.194
74025SOL     OW23907   1.530   5.700  11.548
74025SOL    HW123908   1.591   5.766  11.580
74025SOL    HW223909   1.520   5.720  11.455
74026SOL     OW23910   0.654   2.884  12.274
74026SOL    HW123911   0.660   2.925  12.188
74026SOL    HW223912   0.567   2.844  12.275
74027SOL     OW23913   7.425  13.526   3.948
74027SOL    HW123914   7.509  13.520   3.993
74027SOL    HW223915   7.447  13.525   3.855
74028SOL     OW23916   6.587   0.399  10.330
74028SOL    HW123917   6.636   0.321  10.358
74028SOL    HW223918   6.521   0.366  10.269
74029SOL     OW23919   5.604  12.278   2.712
74029SOL    HW123920   5.513  12.270   2.738
74029SOL    HW223921   5.620  12.202   2.655
74030SOL     OW23922  10.580   7.616  12.001
74030SOL    HW123923  10.508   7.582  11.948
74030SOL    HW223924  10.614   7.540  12.048
74031SOL     OW23925  14.201   5.840  12.499
74031SOL    HW123926  14.247   5.851  12.416
74031SOL    HW223927  14.132   5.777  12.480
74032SOL     OW23928  13.157   8.432   6.165
74032SOL    HW123929  13.230   8.473   6.118
74032SOL    HW223930  13.183   8.341   6.174
74033SOL     OW23931   0.712  13.901   2.783
74033SOL    HW123932   0.650  13.968   2.753
74033SOL    HW223933   0.663  13.819   2.781
74034SOL     OW23934   6.839  14.642   3.713
74034SOL    HW123935   6.799  14.578   3.654
74034SOL    HW223936   6.789  14.633   3.794
74035SOL     OW23937  14.786   4.938  10.898
74035SOL    HW123938  14.795   4.860  10.953
74035SOL    HW223939  14.874   4.953  10.864
74036SOL     OW23940   8.422  11.211   9.612
74036SOL    HW123941   8.394  11.173   9.528
74036SOL    HW223942   8.490  11.274   9.588
74037SOL     OW23943   0.854   1.774   5.019
74037SOL    HW123944   0.901   1.777   5.102
74037SOL    HW223945   0.840   1.865   4.995
74038SOL     OW23946  10.734  10.378   4.265
74038SOL    HW123947  10.768  10.338   4.345
74038SOL    HW223948  10.639  10.383   4.280
74039SOL     OW23949  13.148  12.760  14.145
74039SOL    HW123950  13.077  12.800  14.094
74039SOL    HW223951  13.228  12.794  14.105
74040SOL     OW23952  10.240   1.061   9.262
74040SOL    HW123953  10.327   1.040   9.229
74040SOL    HW223954  10.239   1.157   9.267
74041SOL     OW23955  13.479   2.492  12.281
74041SOL    HW123956  13.510   2.467  12.368
74041SOL    HW223957  13.551   2.544  12.244
74042SOL     OW23958   2.768   1.920   0.180
74042SOL    HW123959   2.771   1.825   0.167
74042SOL    HW223960   2.758   1.956   0.092
74043SOL     OW23961  12.334   5.198  13.231
74043SOL    HW123962  12.281   5.238  13.161
74043SOL    HW223963  12.280   5.126  13.263
74044SOL     OW23964   0.212   2.626   1.362
74044SOL    HW123965   0.164   2.551   1.396
74044SOL    HW223966   0.148   2.676   1.312
74045SOL     OW23967   0.827   2.144  10.910
74045SOL    HW123968   0.774   2.153  10.830
74045SOL    HW223969   0.876   2.063  10.898
74046SOL     OW23970  10.586  14.661  14.686
74046SOL    HW123971  10.639  14.625  14.757
74046SOL    HW223972  10.559  14.747  14.717
74047SOL     OW23973  10.560   6.531   7.686
74047SOL    HW123974  10.476   6.549   7.730
74047SOL    HW223975  10.626   6.565   7.746
74048SOL     OW23976  14.394   5.589   2.439
74048SOL    HW123977  14.321   5.580   2.378
74048SOL    HW223978  14.464   5.626   2.386
74049SOL     OW23979   1.723  10.191  10.020
74049SOL    HW123980   1.641  10.205   9.972
74049SOL    HW223981   1.791  10.217   9.958
74050SOL     OW23982   0.200  12.900  11.291
74050SOL    HW123983   0.134  12.832  11.276
74050SOL    HW223984   0.208  12.904  11.387
74051SOL     OW23985   7.153  13.946   9.976
74051SOL    HW123986   7.239  13.930  10.014
74051SOL    HW223987   7.099  13.872  10.004
74052SOL     OW23988   8.350  13.437   1.062
74052SOL    HW123989   8.259  13.443   1.092
74052SOL    HW223990   8.392  13.379   1.126
74053SOL     OW23991   0.658   2.204  10.709
74053SOL    HW123992   0.570   2.180  10.682
74053SOL    HW223993   0.709   2.204  10.627
74054SOL     OW23994   9.383   8.317   8.814
74054SOL    HW123995   9.358   8.322   8.722
74054SOL    HW223996   9.454   8.381   8.824
74055SOL     OW23997   0.294  11.087   6.979
74055SOL    HW123998   0.231  11.018   6.999
74055SOL    HW223999   0.257  11.134   6.905
74056SOL     OW24000   5.163  11.289  14.420
74056SOL    HW124001   5.205  11.354  14.364
74056SOL    HW224002   5.234  11.232  14.449
74057SOL     OW24003   0.376   0.281   1.764
74057SOL    HW124004   0.377   0.351   1.699
74057SOL    HW224005   0.328   0.317   1.838
74058SOL     OW24006  14.412   8.195   9.780
74058SOL    HW124007  14.507   8.196   9.785
74058SOL    HW224008  14.383   8.155   9.862
74059SOL     OW24009  12.052  13.447  12.385
74059SOL    HW124010  12.057  13.469  12.292
74059SOL    HW224011  12.051  13.531  12.430
74060SOL     OW24012  13.755   8.317   4.900
74060SOL    HW124013  13.729   8.298   4.990
74060SOL    HW224014  13.845   8.351   4.908
74061SOL     OW24015  11.991   3.401  12.536
74061SOL    HW124016  11.919   3.380  12.595
74061SOL    HW224017  12.026   3.315  12.510
74062SOL     OW24018   5.410   7.059  13.410
74062SOL    HW124019   5.415   7.152  13.386
74062SOL    HW224020   5.325   7.050  13.453
74063SOL     OW24021   5.988   8.647   9.239
74063SOL    HW124022   6.068   8.664   9.190
74063SOL    HW224023   5.961   8.733   9.272
74064SOL     OW24024   1.859   4.918   6.051
74064SOL    HW124025   1.893   4.852   5.990
74064SOL    HW224026   1.777   4.880   6.083
74065SOL     OW24027  11.773  10.896  13.603
74065SOL    HW124028  11.707  10.890  13.534
74065SOL    HW224029  11.723  10.918  13.682
74066SOL     OW24030  13.969   4.015  14.536
74066SOL    HW124031  13.878   4.044  14.543
74066SOL    HW224032  13.977   3.983  14.446
74067SOL     OW24033   4.158   0.849   6.519
74067SOL    HW124034   4.134   0.932   6.477
74067SOL    HW224035   4.105   0.783   6.474
74068SOL     OW24036   4.590   1.212  14.098
74068SOL    HW124037   4.552   1.250  14.019
74068SOL    HW224038   4.517   1.210  14.160
74069SOL     OW24039  11.865  13.887  14.359
74069SOL    HW124040  11.899  13.856  14.275
74069SOL    HW224041  11.853  13.981  14.348
74070SOL     OW24042   4.518   5.349   4.523
74070SOL    HW124043   4.427   5.366   4.501
74070SOL    HW224044   4.517   5.333   4.618
74071SOL     OW24045   9.022  13.184  13.405
74071SOL    HW124046   9.107  13.155  13.372
74071SOL    HW224047   9.000  13.122  13.474
74072SOL     OW24048  10.161   1.981   7.446
74072SOL    HW124049  10.213   2.020   7.375
74072SOL    HW224050  10.225   1.963   7.515
74073SOL     OW24051   0.577   9.993   4.373
74073SOL    HW124052   0.484  10.000   4.353
74073SOL    HW224053   0.612  10.079   4.349
74074SOL     OW24054  11.818   5.576   7.361
74074SOL    HW124055  11.809   5.635   7.286
74074SOL    HW224056  11.808   5.488   7.324
74075SOL     OW24057   9.611   7.073  12.620
74075SOL    HW124058   9.653   7.087  12.535
74075SOL    HW224059   9.572   7.158  12.642
74076SOL     OW24060   5.399   7.827  14.875
74076SOL    HW124061   5.447   7.864  14.801
74076SOL    HW224062   5.313   7.804  14.839
74077SOL     OW24063   3.200   8.352  14.500
74077SOL    HW124064   3.119   8.304  14.482
74077SOL    HW224065   3.205   8.418  14.431
74078SOL     OW24066   1.462   9.595   1.014
74078SOL    HW124067   1.420   9.513   1.042
74078SOL    HW224068   1.391   9.643   0.970
74079SOL     OW24069   2.602   2.648  14.226
74079SOL    HW124070   2.689   2.635  14.264
74079SOL    HW224071   2.544   2.657  14.301
74080SOL     OW24072   0.093   8.071  11.661
74080SOL    HW124073   0.161   8.022  11.707
74080SOL    HW224074   0.012   8.046  11.706
74081SOL     OW24075   1.526   3.088   4.626
74081SOL    HW124076   1.615   3.057   4.612
74081SOL    HW224077   1.531   3.140   4.707
74082SOL     OW24078   4.936   5.481   0.247
74082SOL    HW124079   4.994   5.428   0.192
74082SOL    HW224080   4.888   5.535   0.185
74083SOL     OW24081   1.984   7.165  14.320
74083SOL    HW124082   1.945   7.135  14.238
74083SOL    HW224083   2.057   7.105  14.336
74084SOL     OW24084   4.500   3.325   5.118
74084SOL    HW124085   4.537   3.239   5.097
74084SOL    HW224086   4.405   3.309   5.120
74085SOL     OW24087   9.271   1.998  12.074
74085SOL    HW124088   9.337   1.931  12.093
74085SOL    HW224089   9.213   1.998  12.151
74086SOL     OW24090   4.836   4.881   2.712
74086SOL    HW124091   4.811   4.802   2.664
74086SOL    HW224092   4.928   4.896   2.689
74087SOL     OW24093   9.517  14.644   6.093
74087SOL    HW124094   9.422  14.643   6.086
74087SOL    HW224095   9.544  14.552   6.088
74088SOL     OW24096  12.667  13.841   9.509
74088SOL    HW124097  12.649  13.935   9.502
74088SOL    HW224098  12.723  13.834   9.586
74089SOL     OW24099   8.013   8.160   1.205
74089SOL    HW124100   7.930   8.201   1.180
74089SOL    HW224101   7.992   8.067   1.212
74090SOL     OW24102   1.250   0.454   8.414
74090SOL    HW124103   1.161   0.487   8.426
74090SOL    HW224104   1.240   0.384   8.349
74091SOL     OW24105   2.822   1.494   2.301
74091SOL    HW124106   2.740   1.454   2.330
74091SOL    HW224107   2.890   1.443   2.343
74092SOL     OW24108   9.798   1.767   8.406
74092SOL    HW124109   9.762   1.810   8.484
74092SOL    HW224110   9.764   1.678   8.410
74093SOL     OW24111   5.882   9.435   2.187
74093SOL    HW124112   5.895   9.451   2.094
74093SOL    HW224113   5.925   9.510   2.230
74094SOL     OW24114  13.758   7.362   0.698
74094SOL    HW124115  13.799   7.335   0.616
74094SOL    HW224116  13.738   7.455   0.686
74095SOL     OW24117  11.383  12.610   8.765
74095SOL    HW124118  11.396  12.522   8.729
74095SOL    HW224119  11.472  12.646   8.772
74096SOL     OW24120   1.005   3.633   7.811
74096SOL    HW124121   1.097   3.646   7.831
74096SOL    HW224122   0.979   3.556   7.862
74097SOL     OW24123   5.707   2.208   3.536
74097SOL    HW124124   5.776   2.153   3.573
74097SOL    HW224125   5.754   2.277   3.490
74098SOL     OW24126   6.152  11.444  13.746
74098SOL    HW124127   6.221  11.503  13.776
74098SOL    HW224128   6.075  11.500  13.737
74099SOL     OW24129   7.197   2.848  11.090
74099SOL    HW124130   7.227   2.781  11.152
74099SOL    HW224131   7.204   2.930  11.139
74100SOL     OW24132   3.119   4.226   6.386
74100SOL    HW124133   3.214   4.232   6.377
74100SOL    HW224134   3.094   4.307   6.430
74101SOL     OW24135   2.052  11.912   8.267
74101SOL    HW124136   2.065  11.830   8.315
74101SOL    HW224137   1.985  11.959   8.316
74102SOL     OW24138   5.608   6.230   5.150
74102SOL    HW124139   5.533   6.235   5.091
74102SOL    HW224140   5.645   6.143   5.134
74103SOL     OW24141   7.475   4.454   9.614
74103SOL    HW124142   7.408   4.390   9.591
74103SOL    HW224143   7.500   4.430   9.704
74104SOL     OW24144   7.722   7.572  10.726
74104SOL    HW124145   7.738   7.525  10.808
74104SOL    HW224146   7.794   7.546  10.669
74105SOL     OW24147   2.890   2.532   1.784
74105SOL    HW124148   2.862   2.547   1.694
74105SOL    HW224149   2.815   2.561   1.837
74106SOL     OW24150   5.790  14.747   3.597
74106SOL    HW124151   5.851  14.685   3.556
74106SOL    HW224152   5.747  14.696   3.665
74107SOL     OW24153  13.020   5.724   7.166
74107SOL    HW124154  13.034   5.787   7.096
74107SOL    HW224155  13.059   5.764   7.244
74108SOL     OW24156  11.093   0.019   4.209
74108SOL    HW124157  11.158  14.827   4.210
74108SOL    HW224158  11.061   0.020   4.119
74109SOL     OW24159   2.353   4.125   7.555
74109SOL    HW124160   2.333   4.103   7.463
74109SOL    HW224161   2.442   4.159   7.552
74110SOL     OW24162   8.572  11.267  10.113
74110SOL    HW124163   8.608  11.210  10.045
74110SOL    HW224164   8.575  11.214  10.192
74111SOL     OW24165   6.446   6.784   1.961
74111SOL    HW124166   6.476   6.812   2.048
74111SOL    HW224167   6.525   6.760   1.914
74112SOL     OW24168   8.162  14.483   0.591
74112SOL    HW124169   8.158  14.556   0.654
74112SOL    HW224170   8.183  14.407   0.645
74113SOL     OW24171  14.221  14.021  12.362
74113SOL    HW124172  14.152  13.980  12.310
74113SOL    HW224173  14.175  14.087  12.414
74114SOL     OW24174   8.786   0.345  11.890
74114SOL    HW124175   8.810   0.288  11.817
74114SOL    HW224176   8.703   0.385  11.863
74115SOL     OW24177   2.039   7.300   0.675
74115SOL    HW124178   1.978   7.227   0.658
74115SOL    HW224179   1.991   7.358   0.734
74116SOL     OW24180  10.379   8.852  14.868
74116SOL    HW124181  10.340   8.874   0.074
74116SOL    HW224182  10.435   8.777   0.007
74117SOL     OW24183  10.064  10.443   3.455
74117SOL    HW124184   9.986  10.412   3.409
74117SOL    HW224185  10.049  10.536   3.468
74118SOL     OW24186   9.697   1.571   4.912
74118SOL    HW124187   9.626   1.541   4.969
74118SOL    HW224188   9.661   1.644   4.863
74119SOL     OW24189   9.537  13.524   5.213
74119SOL    HW124190   9.627  13.523   5.245
74119SOL    HW224191   9.504  13.436   5.231
74120SOL     OW24192   3.739  13.114  10.064
74120SOL    HW124193   3.696  13.081   9.986
74120SOL    HW224194   3.763  13.036  10.113
74121SOL     OW24195   4.736  11.615   1.472
74121SOL    HW124196   4.794  11.668   1.418
74121SOL    HW224197   4.779  11.530   1.479
74122SOL     OW24198  12.667   1.370   4.079
74122SOL    HW124199  12.717   1.384   3.999
74122SOL    HW224200  12.712   1.421   4.146
74123SOL     OW24201   7.004  11.163   2.489
74123SOL    HW124202   7.024  11.242   2.539
74123SOL    HW224203   7.090  11.132   2.458
74124SOL     OW24204   7.912   8.520   4.611
74124SOL    HW124205   7.905   8.426   4.627
74124SOL    HW224206   7.830   8.544   4.568
74125SOL     OW24207  11.340  14.606   5.639
74125SOL    HW124208  11.274  14.639   5.700
74125SOL    HW224209  11.311  14.518   5.616
74126SOL     OW24210  13.286   8.468  10.198
74126SOL    HW124211  13.295   8.403  10.268
74126SOL    HW224212  13.221   8.530  10.231
74127SOL     OW24213  14.702   0.037  11.948
74127SOL    HW124214  14.672  14.875  12.029
74127SOL    HW224215  14.685  14.851  11.880
74128SOL     OW24216   1.029  10.767   2.495
74128SOL    HW124217   1.030  10.691   2.437
74128SOL    HW224218   1.110  10.759   2.546
74129SOL     OW24219   9.639  13.100  10.133
74129SOL    HW124220   9.628  13.176  10.190
74129SOL    HW224221   9.563  13.101  10.076
74130SOL     OW24222  11.803   9.644  13.362
74130SOL    HW124223  11.840   9.565  13.401
74130SOL    HW224224  11.718   9.616  13.327
74131SOL     OW24225   2.192   7.532   6.958
74131SOL    HW124226   2.209   7.561   6.869
74131SOL    HW224227   2.187   7.437   6.952
74132SOL     OW24228   1.059   8.954   1.201
74132SOL    HW124229   1.041   8.986   1.289
74132SOL    HW224230   1.146   8.916   1.206
74133SOL     OW24231   1.582  11.586   1.857
74133SOL    HW124232   1.646  11.586   1.786
74133SOL    HW224233   1.556  11.677   1.867
74134SOL     OW24234   6.749   0.602  14.176
74134SOL    HW124235   6.660   0.635  14.185
74134SOL    HW224236   6.803   0.667  14.220
74135SOL     OW24237   7.647   6.233   6.149
74135SOL    HW124238   7.667   6.217   6.056
74135SOL    HW224239   7.706   6.175   6.196
74136SOL     OW24240   5.541  12.173   1.675
74136SOL    HW124241   5.541  12.177   1.579
74136SOL    HW224242   5.521  12.262   1.703
74137SOL     OW24243  14.389  11.627  10.706
74137SOL    HW124244  14.324  11.691  10.733
74137SOL    HW224245  14.388  11.630  10.611
74138SOL     OW24246   9.705   3.095  14.775
74138SOL    HW124247   9.636   3.049  14.824
74138SOL    HW224248   9.658   3.165  14.729
74139SOL     OW24249   2.209   0.510  11.669
74139SOL    HW124250   2.264   0.467  11.734
74139SOL    HW224251   2.237   0.601  11.671
74140SOL     OW24252   6.304   1.903   4.704
74140SOL    HW124253   6.223   1.934   4.663
74140SOL    HW224254   6.334   1.977   4.757
74141SOL     OW24255  11.755   4.618   2.871
74141SOL    HW124256  11.676   4.565   2.886
74141SOL    HW224257  11.827   4.559   2.893
74142SOL     OW24258  11.266  14.205   4.274
74142SOL    HW124259  11.184  14.246   4.246
74142SOL    HW224260  11.248  14.111   4.270
74143SOL     OW24261  10.962   8.086   1.540
74143SOL    HW124262  10.988   8.177   1.554
74143SOL    HW224263  10.989   8.041   1.620
74144SOL     OW24264  10.232   1.750   8.949
74144SOL    HW124265  10.189   1.732   8.865
74144SOL    HW224266  10.185   1.694   9.011
74145SOL     OW24267  11.803   8.470   8.155
74145SOL    HW124268  11.867   8.541   8.159
74145SOL    HW224269  11.789   8.445   8.246
74146SOL     OW24270   1.029  13.464   6.721
74146SOL    HW124271   1.064  13.547   6.755
74146SOL    HW224272   0.954  13.444   6.778
74147SOL     OW24273   4.179   7.431  13.227
74147SOL    HW124274   4.101   7.475  13.192
74147SOL    HW224275   4.211   7.490  13.296
74148SOL     OW24276  14.834   5.772  10.179
74148SOL    HW124277  14.770   5.768  10.108
74148SOL    HW224278   0.001   5.855  10.165
74149SOL     OW24279   8.757   0.863   3.282
74149SOL    HW124280   8.801   0.912   3.350
74149SOL    HW224281   8.823   0.849   3.214
74150SOL     OW24282   4.470  13.773   9.469
74150SOL    HW124283   4.410  13.706   9.501
74150SOL    HW224284   4.557  13.735   9.480
74151SOL     OW24285   5.103   1.439   8.740
74151SOL    HW124286   5.161   1.409   8.670
74151SOL    HW224287   5.061   1.359   8.772
74152SOL     OW24288   5.292   2.336   2.268
74152SOL    HW124289   5.245   2.417   2.291
74152SOL    HW224290   5.346   2.318   2.345
74153SOL     OW24291   9.342  12.997  13.934
74153SOL    HW124292   9.291  12.948  13.998
74153SOL    HW224293   9.406  12.934  13.900
74154SOL     OW24294   6.858  10.450  14.648
74154SOL    HW124295   6.915  10.444  14.724
74154SOL    HW224296   6.878  10.372  14.597
74155SOL     OW24297   9.530  11.170   5.035
74155SOL    HW124298   9.614  11.159   5.080
74155SOL    HW224299   9.499  11.256   5.063
74156SOL     OW24300   8.556   9.256   9.020
74156SOL    HW124301   8.631   9.311   9.001
74156SOL    HW224302   8.534   9.215   8.936
74157SOL     OW24303   1.021  12.706   2.646
74157SOL    HW124304   0.964  12.633   2.624
74157SOL    HW224305   1.008  12.720   2.740
74158SOL     OW24306   5.486  14.642   7.568
74158SOL    HW124307   5.562  14.641   7.626
74158SOL    HW224308   5.415  14.676   7.622
74159SOL     OW24309   7.513   9.526  10.288
74159SOL    HW124310   7.536   9.592  10.222
74159SOL    HW224311   7.564   9.551  10.365
74160SOL     OW24312  13.082   3.119   3.521
74160SOL    HW124313  13.100   3.027   3.504
74160SOL    HW224314  13.121   3.135   3.607
74161SOL     OW24315   7.874   9.180   7.056
74161SOL    HW124316   7.794   9.208   7.101
74161SOL    HW224317   7.866   9.085   7.050
74162SOL     OW24318   5.945   6.448   9.824
74162SOL    HW124319   5.879   6.474   9.759
74162SOL    HW224320   6.018   6.509   9.810
74163SOL     OW24321   7.077  10.924   1.670
74163SOL    HW124322   7.108  10.931   1.580
74163SOL    HW224323   7.006  10.988   1.676
74164SOL     OW24324  13.076  12.797  10.988
74164SOL    HW124325  13.097  12.706  11.011
74164SOL    HW224326  13.002  12.819  11.045
74165SOL     OW24327   0.938  10.227   6.181
74165SOL    HW124328   0.919  10.191   6.094
74165SOL    HW224329   0.853  10.256   6.214
74166SOL     OW24330  10.112   6.976   9.161
74166SOL    HW124331  10.020   6.953   9.172
74166SOL    HW224332  10.160   6.909   9.210
74167SOL     OW24333   9.010  12.749   6.485
74167SOL    HW124334   9.009  12.803   6.564
74167SOL    HW224335   9.030  12.661   6.516
74168SOL     OW24336  14.421   9.415   5.089
74168SOL    HW124337  14.326   9.402   5.095
74168SOL    HW224338  14.451   9.413   5.180
74169SOL     OW24339   1.690   5.885   2.426
74169SOL    HW124340   1.754   5.954   2.441
74169SOL    HW224341   1.629   5.921   2.362
74170SOL     OW24342   5.674   1.561  10.090
74170SOL    HW124343   5.580   1.550  10.108
74170SOL    HW224344   5.717   1.516  10.163
74171SOL     OW24345   9.591  12.304  12.352
74171SOL    HW124346   9.669  12.344  12.314
74171SOL    HW224347   9.569  12.232  12.291
74172SOL     OW24348   0.376  12.909   3.404
74172SOL    HW124349   0.307  12.907   3.470
74172SOL    HW224350   0.338  12.867   3.327
74173SOL     OW24351   8.931  10.343   8.938
74173SOL    HW124352   8.860  10.279   8.944
74173SOL    HW224353   9.008  10.290   8.916
74174SOL     OW24354  11.059   5.166   9.163
74174SOL    HW124355  10.972   5.206   9.163
74174SOL    HW224356  11.046   5.082   9.119
74175SOL     OW24357   4.273   2.033  12.412
74175SOL    HW124358   4.279   2.113  12.360
74175SOL    HW224359   4.209   1.978  12.366
74176SOL     OW24360   2.738   9.458   9.282
74176SOL    HW124361   2.692   9.523   9.229
74176SOL    HW224362   2.698   9.465   9.369
74177SOL     OW24363  10.110   3.648   6.331
74177SOL    HW124364  10.057   3.655   6.252
74177SOL    HW224365  10.131   3.739   6.353
74178SOL     OW24366   2.456  12.132   2.757
74178SOL    HW124367   2.458  12.072   2.682
74178SOL    HW224368   2.472  12.075   2.833
74179SOL     OW24369  14.496   0.384   4.415
74179SOL    HW124370  14.551   0.346   4.483
74179SOL    HW224371  14.445   0.451   4.459
74180SOL     OW24372  10.517   1.761   5.626
74180SOL    HW124373  10.552   1.845   5.597
74180SOL    HW224374  10.587   1.698   5.608
74181SOL     OW24375  10.487  13.889   4.984
74181SOL    HW124376  10.490  13.961   5.047
74181SOL    HW224377  10.510  13.930   4.901
74182SOL     OW24378   0.226   4.251   0.212
74182SOL    HW124379   0.201   4.221   0.299
74182SOL    HW224380   0.298   4.192   0.186
74183SOL     OW24381  12.950   5.842  12.442
74183SOL    HW124382  12.895   5.768  12.469
74183SOL    HW224383  12.888   5.911  12.420
74184SOL     OW24384   3.477   4.405   6.326
74184SOL    HW124385   3.541   4.370   6.388
74184SOL    HW224386   3.442   4.327   6.281
74185SOL     OW24387   2.418   8.586  13.560
74185SOL    HW124388   2.501   8.617  13.597
74185SOL    HW224389   2.437   8.497  13.531
74186SOL     OW24390   1.882   2.277   6.858
74186SOL    HW124391   1.809   2.220   6.882
74186SOL    HW224392   1.900   2.256   6.767
74187SOL     OW24393   1.789   1.699   1.737
74187SOL    HW124394   1.780   1.611   1.699
74187SOL    HW224395   1.700   1.724   1.761
74188SOL     OW24396   6.432  14.155   3.485
74188SOL    HW124397   6.466  14.222   3.545
74188SOL    HW224398   6.502  14.140   3.422
74189SOL     OW24399   8.867   1.792   2.880
74189SOL    HW124400   8.929   1.761   2.946
74189SOL    HW224401   8.864   1.886   2.893
74190SOL     OW24402   9.589   7.374  13.757
74190SOL    HW124403   9.674   7.335  13.776
74190SOL    HW224404   9.595   7.400  13.665
74191SOL     OW24405   1.588   5.004   0.080
74191SOL    HW124406   1.592   4.911   0.102
74191SOL    HW224407   1.519   5.039   0.137
74192SOL     OW24408   1.819  11.836   2.328
74192SOL    HW124409   1.850  11.779   2.257
74192SOL    HW224410   1.896  11.889   2.351
74193SOL     OW24411   3.457  13.721   1.446
74193SOL    HW124412   3.381  13.733   1.389
74193SOL    HW224413   3.421  13.727   1.535
74194SOL     OW24414   8.401   6.963  10.723
74194SOL    HW124415   8.432   7.033  10.780
74194SOL    HW224416   8.309   6.984  10.707
74195SOL     OW24417   2.843   4.476   6.743
74195SOL    HW124418   2.813   4.501   6.656
74195SOL    HW224419   2.818   4.383   6.752
74196SOL     OW24420   0.611  13.730  12.201
74196SOL    HW124421   0.630  13.638  12.221
74196SOL    HW224422   0.516  13.732  12.190
74197SOL     OW24423  12.029   6.000   5.788
74197SOL    HW124424  12.102   6.031   5.841
74197SOL    HW224425  12.013   6.071   5.726
74198SOL     OW24426   9.326   8.063  11.348
74198SOL    HW124427   9.318   8.066  11.443
74198SOL    HW224428   9.236   8.072  11.316
74199SOL     OW24429  12.653   5.413   8.424
74199SOL    HW124430  12.609   5.491   8.457
74199SOL    HW224431  12.582   5.359   8.389
74200SOL     OW24432   0.170   3.105   8.786
74200SOL    HW124433   0.152   3.069   8.873
74200SOL    HW224434   0.258   3.073   8.765
74201SOL     OW24435  11.151   3.281  10.037
74201SOL    HW124436  11.136   3.375  10.026
74201SOL    HW224437  11.064   3.241  10.030
74202SOL     OW24438  12.586   8.036   7.774
74202SOL    HW124439  12.501   8.004   7.744
74202SOL    HW224440  12.615   7.970   7.837
74203SOL     OW24441   1.456   0.351   2.758
74203SOL    HW124442   1.415   0.431   2.792
74203SOL    HW224443   1.546   0.355   2.789
74204SOL     OW24444   6.209   6.184   9.935
74204SOL    HW124445   6.297   6.153   9.957
74204SOL    HW224446   6.179   6.230  10.013
74205SOL     OW24447   1.601   0.175  12.341
74205SOL    HW124448   1.640   0.112  12.279
74205SOL    HW224449   1.515   0.195  12.303
74206SOL     OW24450   8.071   9.570   7.873
74206SOL    HW124451   8.143   9.512   7.847
74206SOL    HW224452   8.104   9.658   7.856
74207SOL     OW24453   3.243   6.859   6.793
74207SOL    HW124454   3.198   6.940   6.770
74207SOL    HW224455   3.327   6.887   6.828
74208SOL     OW24456  10.530   2.755   9.618
74208SOL    HW124457  10.555   2.748   9.526
74208SOL    HW224458  10.545   2.668   9.654
74209SOL     OW24459   5.679   2.151   6.769
74209SOL    HW124460   5.646   2.218   6.708
74209SOL    HW224461   5.693   2.074   6.714
74210SOL     OW24462   8.361  10.848   5.305
74210SOL    HW124463   8.329  10.920   5.360
74210SOL    HW224464   8.281  10.812   5.265
74211SOL     OW24465  12.033   2.997   6.286
74211SOL    HW124466  12.101   3.013   6.351
74211SOL    HW224467  12.016   2.903   6.291
74212SOL     OW24468   8.920   6.874  12.187
74212SOL    HW124469   9.005   6.863  12.230
74212SOL    HW224470   8.941   6.913  12.102
74213SOL     OW24471  10.468   4.610  10.726
74213SOL    HW124472  10.543   4.648  10.772
74213SOL    HW224473  10.500   4.527  10.691
74214SOL     OW24474   9.296  13.862   5.177
74214SOL    HW124475   9.255  13.913   5.106
74214SOL    HW224476   9.222  13.829   5.228
74215SOL     OW24477   9.354  10.706   3.003
74215SOL    HW124478   9.361  10.642   3.074
74215SOL    HW224479   9.444  10.719   2.974
74216SOL     OW24480   4.412   9.106  14.182
74216SOL    HW124481   4.349   9.058  14.129
74216SOL    HW224482   4.495   9.097  14.135
74217SOL     OW24483   9.734   3.573  10.281
74217SOL    HW124484   9.772   3.656  10.252
74217SOL    HW224485   9.785   3.549  10.358
74218SOL     OW24486   7.266   0.208   8.719
74218SOL    HW124487   7.283   0.256   8.799
74218SOL    HW224488   7.349   0.209   8.672
74219SOL     OW24489   3.003   8.712   1.722
74219SOL    HW124490   3.001   8.629   1.769
74219SOL    HW224491   2.922   8.756   1.748
74220SOL     OW24492  14.059  14.174   4.842
74220SOL    HW124493  14.141  14.126   4.857
74220SOL    HW224494  14.087  14.262   4.816
74221SOL     OW24495   5.806   4.297   5.552
74221SOL    HW124496   5.880   4.321   5.609
74221SOL    HW224497   5.832   4.212   5.515
74222SOL     OW24498   3.851  10.370  10.791
74222SOL    HW124499   3.944  10.349  10.789
74222SOL    HW224500   3.817  10.339  10.707
74223SOL     OW24501  13.967   5.651   9.269
74223SOL    HW124502  13.943   5.560   9.254
74223SOL    HW224503  13.971   5.689   9.181
74224SOL     OW24504  10.906   8.406  10.976
74224SOL    HW124505  10.874   8.371  10.893
74224SOL    HW224506  10.829   8.444  11.017
74225SOL     OW24507  13.615   6.775  10.654
74225SOL    HW124508  13.644   6.737  10.737
74225SOL    HW224509  13.555   6.710  10.618
74226SOL     OW24510  11.476   8.948  13.093
74226SOL    HW124511  11.414   9.018  13.108
74226SOL    HW224512  11.423   8.876  13.057
74227SOL     OW24513  13.236  11.562  13.403
74227SOL    HW124514  13.185  11.540  13.325
74227SOL    HW224515  13.200  11.507  13.472
74228SOL     OW24516   0.444   7.524   7.762
74228SOL    HW124517   0.413   7.455   7.821
74228SOL    HW224518   0.364   7.561   7.725
74229SOL     OW24519   7.227   0.711   2.974
74229SOL    HW124520   7.289   0.648   2.937
74229SOL    HW224521   7.144   0.689   2.933
74230SOL     OW24522   6.713  10.376  14.007
74230SOL    HW124523   6.693  10.283  14.015
74230SOL    HW224524   6.653  10.407  13.939
74231SOL     OW24525   7.706   7.970   4.878
74231SOL    HW124526   7.701   8.052   4.829
74231SOL    HW224527   7.678   7.994   4.967
74232SOL     OW24528   4.220   6.177  13.971
74232SOL    HW124529   4.140   6.184  14.023
74232SOL    HW224530   4.289   6.159  14.034
74233SOL     OW24531   1.909  13.556  10.956
74233SOL    HW124532   1.883  13.504  10.879
74233SOL    HW224533   1.954  13.632  10.919
74234SOL     OW24534   5.584  14.023  14.315
74234SOL    HW124535   5.514  14.071  14.272
74234SOL    HW224536   5.655  14.086  14.324
74235SOL     OW24537  13.501   2.862  10.119
74235SOL    HW124538  13.526   2.777  10.156
74235SOL    HW224539  13.549   2.867  10.036
74236SOL     OW24540   3.766  12.268   9.261
74236SOL    HW124541   3.844  12.324   9.264
74236SOL    HW224542   3.710  12.309   9.194
74237SOL     OW24543   7.477   8.998  10.172
74237SOL    HW124544   7.425   9.007  10.093
74237SOL    HW224545   7.513   9.086  10.188
74238SOL     OW24546   1.722   9.938  10.477
74238SOL    HW124547   1.818   9.930  10.473
74238SOL    HW224548   1.693   9.933  10.386
74239SOL     OW24549   8.302   0.372   8.971
74239SOL    HW124550   8.308   0.401   9.062
74239SOL    HW224551   8.210   0.386   8.947
74240SOL     OW24552   4.939  13.553   4.950
74240SOL    HW124553   4.866  13.512   4.904
74240SOL    HW224554   5.017  13.519   4.907
74241SOL     OW24555   1.723   8.192   0.463
74241SOL    HW124556   1.783   8.139   0.410
74241SOL    HW224557   1.638   8.149   0.454
74242SOL     OW24558   7.270   0.321  13.814
74242SOL    HW124559   7.288   0.299  13.722
74242SOL    HW224560   7.352   0.355  13.847
74243SOL     OW24561   3.648   0.687   5.396
74243SOL    HW124562   3.600   0.607   5.376
74243SOL    HW224563   3.620   0.750   5.330
74244SOL     OW24564  12.900  10.028   1.374
74244SOL    HW124565  12.858  10.067   1.450
74244SOL    HW224566  12.836  10.038   1.303
74245SOL     OW24567  10.215   1.984  13.794
74245SOL    HW124568  10.126   2.019  13.786
74245SOL    HW224569  10.267   2.058  13.826
74246SOL     OW24570   8.729   0.422   3.881
74246SOL    HW124571   8.810   0.414   3.933
74246SOL    HW224572   8.752   0.482   3.810
74247SOL     OW24573  14.100   6.444   4.186
74247SOL    HW124574  14.168   6.418   4.124
74247SOL    HW224575  14.085   6.365   4.239
74248SOL     OW24576   0.374   0.266   8.129
74248SOL    HW124577   0.407   0.239   8.215
74248SOL    HW224578   0.371   0.361   8.132
74249SOL     OW24579  13.971   0.740  12.078
74249SOL    HW124580  13.990   0.654  12.039
74249SOL    HW224581  13.938   0.792  12.005
74250SOL     OW24582   5.933  12.013  10.340
74250SOL    HW124583   5.841  11.995  10.358
74250SOL    HW224584   5.931  12.089  10.281
74251SOL     OW24585  12.219   0.994   4.025
74251SOL    HW124586  12.251   0.913   3.985
74251SOL    HW224587  12.244   1.063   3.963
74252SOL     OW24588   1.755   1.336   1.198
74252SOL    HW124589   1.760   1.426   1.228
74252SOL    HW224590   1.756   1.283   1.278
74253SOL     OW24591   4.671   1.411  11.204
74253SOL    HW124592   4.765   1.397  11.193
74253SOL    HW224593   4.651   1.375  11.290
74254SOL     OW24594  14.764   5.073   6.100
74254SOL    HW124595  14.810   5.069   6.016
74254SOL    HW224596  14.711   5.153   6.095
74255SOL     OW24597   3.722  14.007  12.489
74255SOL    HW124598   3.673  14.089  12.482
74255SOL    HW224599   3.813  14.031  12.470
74256SOL     OW24600  13.647  12.344   7.814
74256SOL    HW124601  13.677  12.413   7.873
74256SOL    HW224602  13.631  12.269   7.870
74257SOL     OW24603   8.451   9.714   6.014
74257SOL    HW124604   8.503   9.777   6.063
74257SOL    HW224605   8.378   9.766   5.979
74258SOL     OW24606   9.068  10.453   8.166
74258SOL    HW124607   9.140  10.391   8.151
74258SOL    HW224608   9.103  10.538   8.140
74259SOL     OW24609   0.476  13.728  13.713
74259SOL    HW124610   0.510  13.684  13.791
74259SOL    HW224611   0.454  13.657  13.653
74260SOL     OW24612   5.040   7.602  10.037
74260SOL    HW124613   5.089   7.520  10.045
74260SOL    HW224614   4.976   7.584   9.968
74261SOL     OW24615  10.660  14.240   4.737
74261SOL    HW124616  10.730  14.237   4.672
74261SOL    HW224617  10.628  14.330   4.733
74262SOL     OW24618  12.584  12.602  13.984
74262SOL    HW124619  12.642  12.603  14.060
74262SOL    HW224620  12.496  12.605  14.021
74263SOL     OW24621  11.163   3.339   3.840
74263SOL    HW124622  11.179   3.367   3.930
74263SOL    HW224623  11.243   3.363   3.793
74264SOL     OW24624   8.785  11.592   3.375
74264SOL    HW124625   8.696  11.591   3.340
74264SOL    HW224626   8.841  11.607   3.299
74265SOL     OW24627   9.147   6.248   0.459
74265SOL    HW124628   9.196   6.263   0.539
74265SOL    HW224629   9.135   6.335   0.422
74266SOL     OW24630   4.745  12.834   3.399
74266SOL    HW124631   4.835  12.836   3.365
74266SOL    HW224632   4.690  12.851   3.322
74267SOL     OW24633   0.268  11.707   4.082
74267SOL    HW124634   0.311  11.692   4.166
74267SOL    HW224635   0.339  11.726   4.022
74268SOL     OW24636   6.554   7.948  10.831
74268SOL    HW124637   6.603   7.902  10.898
74268SOL    HW224638   6.620   7.997  10.782
74269SOL     OW24639   4.245   4.431   0.996
74269SOL    HW124640   4.264   4.345   1.033
74269SOL    HW224641   4.155   4.424   0.963
74270SOL     OW24642   6.457   4.591   4.216
74270SOL    HW124643   6.468   4.683   4.191
74270SOL    HW224644   6.368   4.586   4.252
74271SOL     OW24645   0.615  13.703   5.179
74271SOL    HW124646   0.529  13.668   5.203
74271SOL    HW224647   0.596  13.775   5.119
74272SOL     OW24648  14.021  11.745   0.865
74272SOL    HW124649  13.932  11.779   0.862
74272SOL    HW224650  14.042  11.741   0.959
74273SOL     OW24651  10.518   1.713   1.130
74273SOL    HW124652  10.587   1.776   1.107
74273SOL    HW224653  10.482   1.747   1.212
74274SOL     OW24654  12.618   8.675   0.608
74274SOL    HW124655  12.662   8.672   0.693
74274SOL    HW224656  12.554   8.746   0.616
74275SOL     OW24657   8.553   5.278   8.371
74275SOL    HW124658   8.510   5.243   8.449
74275SOL    HW224659   8.594   5.202   8.330
74276SOL     OW24660   1.584  11.249   1.590
74276SOL    HW124661   1.652  11.191   1.622
74276SOL    HW224662   1.621  11.288   1.511
74277SOL     OW24663   7.880   2.202   5.105
74277SOL    HW124664   7.887   2.233   5.015
74277SOL    HW224665   7.790   2.172   5.113
74278SOL     OW24666   1.675   2.606  10.214
74278SOL    HW124667   1.648   2.589  10.124
74278SOL    HW224668   1.600   2.580  10.267
74279SOL     OW24669   0.369  14.669  12.817
74279SOL    HW124670   0.433  14.703  12.879
74279SOL    HW224671   0.337  14.588  12.858
74280SOL     OW24672  11.155   8.077  11.349
74280SOL    HW124673  11.186   8.012  11.285
74280SOL    HW224674  11.091   8.030  11.402
74281SOL     OW24675   7.906  10.816   3.543
74281SOL    HW124676   7.849  10.806   3.466
74281SOL    HW224677   7.991  10.839   3.507
74282SOL     OW24678   9.687   5.993   4.601
74282SOL    HW124679   9.720   6.016   4.515
74282SOL    HW224680   9.718   5.904   4.616
74283SOL     OW24681   7.966  10.155  10.536
74283SOL    HW124682   7.953  10.064  10.565
74283SOL    HW224683   8.056  10.175  10.561
74284SOL     OW24684  13.417   0.286   4.180
74284SOL    HW124685  13.457   0.327   4.103
74284SOL    HW224686  13.346   0.346   4.205
74285SOL     OW24687   4.901   8.768  13.463
74285SOL    HW124688   4.891   8.785  13.369
74285SOL    HW224689   4.902   8.672  13.469
74286SOL     OW24690  11.286   3.339   1.869
74286SOL    HW124691  11.238   3.329   1.952
74286SOL    HW224692  11.374   3.366   1.896
74287SOL     OW24693   2.229  13.538   6.497
74287SOL    HW124694   2.168  13.474   6.534
74287SOL    HW224695   2.218  13.530   6.403
74288SOL     OW24696   3.747   8.394   9.195
74288SOL    HW124697   3.781   8.454   9.129
74288SOL    HW224698   3.734   8.311   9.149
74289SOL     OW24699   4.907   1.985   1.792
74289SOL    HW124700   4.832   1.997   1.850
74289SOL    HW224701   4.982   2.020   1.841
74290SOL     OW24702  13.689   0.465   7.572
74290SOL    HW124703  13.743   0.415   7.634
74290SOL    HW224704  13.628   0.514   7.627
74291SOL     OW24705   9.023  13.597  13.028
74291SOL    HW124706   9.100  13.647  13.056
74291SOL    HW224707   8.957  13.616  13.094
74292SOL     OW24708   9.184   0.459  13.260
74292SOL    HW124709   9.249   0.390  13.274
74292SOL    HW224710   9.232   0.540  13.274
74293SOL     OW24711   8.487   5.889  12.498
74293SOL    HW124712   8.457   5.979  12.490
74293SOL    HW224713   8.416   5.836  12.462
74294SOL     OW24714   8.773  13.725   1.881
74294SOL    HW124715   8.819  13.784   1.821
74294SOL    HW224716   8.680  13.740   1.863
74295SOL     OW24717   4.116   0.992  11.770
74295SOL    HW124718   4.022   1.006  11.777
74295SOL    HW224719   4.155   1.079  11.777
74296SOL     OW24720  14.707   7.518   1.603
74296SOL    HW124721  14.726   7.499   1.511
74296SOL    HW224722  14.736   7.439   1.650
74297SOL     OW24723   9.902  14.540   1.534
74297SOL    HW124724   9.993  14.532   1.562
74297SOL    HW224725   9.875  14.626   1.565
74298SOL     OW24726   0.316  10.288   9.541
74298SOL    HW124727   0.253  10.230   9.499
74298SOL    HW224728   0.382  10.307   9.474
74299SOL     OW24729   9.045  12.195  14.837
74299SOL    HW124730   9.016  12.253   0.029
74299SOL    HW224731   8.982  12.124  14.836
74300SOL     OW24732   8.496   9.351   7.105
74300SOL    HW124733   8.579   9.339   7.059
74300SOL    HW224734   8.463   9.262   7.117
74301SOL     OW24735   3.350   0.081   6.156
74301SOL    HW124736   3.281   0.042   6.102
74301SOL    HW224737   3.377   0.010   6.215
74302SOL     OW24738  13.494   9.077   8.390
74302SOL    HW124739  13.577   9.033   8.371
74302SOL    HW224740  13.434   9.006   8.415
74303SOL     OW24741  13.442   3.181   7.687
74303SOL    HW124742  13.449   3.211   7.596
74303SOL    HW224743  13.418   3.089   7.681
74304SOL     OW24744  13.747   1.682  10.116
74304SOL    HW124745  13.697   1.639  10.047
74304SOL    HW224746  13.796   1.611  10.158
74305SOL     OW24747   9.755   7.900  12.028
74305SOL    HW124748   9.708   7.881  12.109
74305SOL    HW224749   9.809   7.822  12.012
74306SOL     OW24750   3.474   6.729   9.642
74306SOL    HW124751   3.520   6.696   9.565
74306SOL    HW224752   3.385   6.746   9.610
74307SOL     OW24753   4.854   6.957   0.826
74307SOL    HW124754   4.852   6.980   0.734
74307SOL    HW224755   4.832   6.864   0.828
74308SOL     OW24756   8.071   3.284  12.184
74308SOL    HW124757   8.019   3.209  12.157
74308SOL    HW224758   8.143   3.247  12.236
74309SOL     OW24759  12.488  13.438  14.069
74309SOL    HW124760  12.448  13.414  13.986
74309SOL    HW224761  12.582  13.435  14.051
74310SOL     OW24762   4.802   0.622   8.580
74310SOL    HW124763   4.886   0.583   8.555
74310SOL    HW224764   4.826   0.700   8.631
74311SOL     OW24765   6.989   7.595  14.568
74311SOL    HW124766   6.923   7.605  14.499
74311SOL    HW224767   6.975   7.507  14.602
74312SOL     OW24768   3.224   0.313  10.636
74312SOL    HW124769   3.286   0.318  10.563
74312SOL    HW224770   3.223   0.221  10.660
74313SOL     OW24771   8.897   4.326   1.857
74313SOL    HW124772   8.880   4.404   1.804
74313SOL    HW224773   8.851   4.343   1.940
74314SOL     OW24774   0.358   6.107  11.517
74314SOL    HW124775   0.369   6.079  11.607
74314SOL    HW224776   0.313   6.035  11.474
74315SOL     OW24777  12.080   5.202  11.031
74315SOL    HW124778  12.026   5.267  10.987
74315SOL    HW224779  12.022   5.126  11.042
74316SOL     OW24780  11.118   8.554   3.372
74316SOL    HW124781  11.211   8.559   3.346
74316SOL    HW224782  11.081   8.489   3.312
74317SOL     OW24783  13.809  12.137   0.715
74317SOL    HW124784  13.743  12.156   0.649
74317SOL    HW224785  13.804  12.210   0.776
74318SOL     OW24786  11.298   2.983   4.611
74318SOL    HW124787  11.365   3.050   4.623
74318SOL    HW224788  11.330   2.930   4.538
74319SOL     OW24789   1.314  10.073   5.571
74319SOL    HW124790   1.226  10.065   5.533
74319SOL    HW224791   1.326  10.167   5.583
74320SOL     OW24792  13.296   0.575   1.226
74320SOL    HW124793  13.299   0.574   1.322
74320SOL    HW224794  13.387   0.586   1.199
74321SOL     OW24795   0.054   5.429   5.934
74321SOL    HW124796   0.094   5.371   5.998
74321SOL    HW224797   0.107   5.509   5.936
74322SOL     OW24798   2.763   5.306   2.708
74322SOL    HW124799   2.716   5.232   2.746
74322SOL    HW224800   2.832   5.325   2.772
74323SOL     OW24801  10.397  12.419   7.413
74323SOL    HW124802  10.475  12.475   7.408
74323SOL    HW224803  10.371  12.423   7.505
74324SOL     OW24804   7.647   2.186   7.476
74324SOL    HW124805   7.595   2.109   7.501
74324SOL    HW224806   7.737   2.160   7.492
74325SOL     OW24807   7.732   8.287   9.043
74325SOL    HW124808   7.712   8.201   9.005
74325SOL    HW224809   7.791   8.267   9.116
74326SOL     OW24810   3.218  13.371  11.798
74326SOL    HW124811   3.205  13.456  11.756
74326SOL    HW224812   3.131  13.344  11.824
74327SOL     OW24813   7.014   8.034   8.987
74327SOL    HW124814   7.053   7.949   8.967
74327SOL    HW224815   6.921   8.024   8.963
74328SOL     OW24816   7.298   3.554  14.455
74328SOL    HW124817   7.321   3.494  14.525
74328SOL    HW224818   7.226   3.607  14.492
74329SOL     OW24819   1.843   0.839   4.916
74329SOL    HW124820   1.910   0.771   4.921
74329SOL    HW224821   1.882   0.915   4.959
74330SOL     OW24822  11.091   8.175  10.957
74330SOL    HW124823  11.081   8.269  10.937
74330SOL    HW224824  11.090   8.133  10.871
74331SOL     OW24825   7.649  14.051   4.386
74331SOL    HW124826   7.658  14.133   4.338
74331SOL    HW224827   7.736  14.011   4.382
74332SOL     OW24828   7.431   1.857  11.978
74332SOL    HW124829   7.346   1.816  11.961
74332SOL    HW224830   7.410   1.929  12.039
74333SOL     OW24831  11.094  12.009  10.494
74333SOL    HW124832  11.037  12.082  10.517
74333SOL    HW224833  11.147  11.994  10.572
74334SOL     OW24834   0.932   0.751  13.773
74334SOL    HW124835   0.974   0.835  13.790
74334SOL    HW224836   0.844   0.760  13.810
74335SOL     OW24837  13.247  12.856   7.295
74335SOL    HW124838  13.314  12.799   7.333
74335SOL    HW224839  13.290  12.941   7.286
74336SOL     OW24840   5.103   8.106   1.642
74336SOL    HW124841   5.100   8.152   1.558
74336SOL    HW224842   5.101   8.013   1.618
74337SOL     OW24843   3.684  11.481   9.621
74337SOL    HW124844   3.741  11.457   9.694
74337SOL    HW224845   3.742  11.520   9.556
74338SOL     OW24846   5.254   1.268  14.035
74338SOL    HW124847   5.192   1.338  14.017
74338SOL    HW224848   5.222   1.193  13.985
74339SOL     OW24849   2.360   6.740  14.350
74339SOL    HW124850   2.327   6.744  14.261
74339SOL    HW224851   2.425   6.670  14.349
74340SOL     OW24852   7.482   9.445   0.964
74340SOL    HW124853   7.527   9.361   0.955
74340SOL    HW224854   7.514   9.481   1.047
74341SOL     OW24855  12.150   2.000   1.218
74341SOL    HW124856  12.125   2.089   1.243
74341SOL    HW224857  12.207   1.971   1.289
74342SOL     OW24858   1.431   5.536  13.914
74342SOL    HW124859   1.482   5.587  13.851
74342SOL    HW224860   1.415   5.452  13.871
74343SOL     OW24861   3.901   9.534   7.634
74343SOL    HW124862   3.978   9.496   7.676
74343SOL    HW224863   3.889   9.483   7.554
74344SOL     OW24864   5.531   9.972   8.111
74344SOL    HW124865   5.506  10.023   8.034
74344SOL    HW224866   5.448   9.938   8.144
74345SOL     OW24867  12.617   8.547   4.653
74345SOL    HW124868  12.548   8.605   4.621
74345SOL    HW224869  12.649   8.503   4.575
74346SOL     OW24870   5.445   2.790   2.897
74346SOL    HW124871   5.402   2.772   2.981
74346SOL    HW224872   5.534   2.815   2.921
74347SOL     OW24873   8.680  10.048   2.180
74347SOL    HW124874   8.680  10.072   2.088
74347SOL    HW224875   8.771  10.028   2.200
74348SOL     OW24876  11.848   5.797   2.961
74348SOL    HW124877  11.892   5.881   2.974
74348SOL    HW224878  11.908   5.733   2.999
74349SOL     OW24879   2.004  12.160   7.006
74349SOL    HW124880   1.918  12.121   7.021
74349SOL    HW224881   2.019  12.152   6.912
74350SOL     OW24882   4.114   6.881   4.039
74350SOL    HW124883   4.182   6.937   4.075
74350SOL    HW224884   4.047   6.943   4.007
74351SOL     OW24885   9.419  12.996   6.743
74351SOL    HW124886   9.385  13.033   6.661
74351SOL    HW224887   9.341  12.960   6.786
74352SOL     OW24888   8.573  10.958  11.023
74352SOL    HW124889   8.559  11.044  10.985
74352SOL    HW224890   8.657  10.929  10.986
74353SOL     OW24891   1.901  13.195  12.298
74353SOL    HW124892   1.817  13.193  12.344
74353SOL    HW224893   1.959  13.140  12.351
74354SOL     OW24894   0.439   9.994  10.452
74354SOL    HW124895   0.474   9.994  10.363
74354SOL    HW224896   0.490   9.928  10.498
74355SOL     OW24897   3.622   2.759  13.774
74355SOL    HW124898   3.590   2.673  13.798
74355SOL    HW224899   3.637   2.804  13.857
74356SOL     OW24900   0.504   1.956   5.350
74356SOL    HW124901   0.470   2.007   5.424
74356SOL    HW224902   0.507   2.018   5.278
74357SOL     OW24903   6.561  14.745   5.418
74357SOL    HW124904   6.551  14.731   5.324
74357SOL    HW224905   6.655  14.747   5.432
74358SOL     OW24906   0.029   4.158   2.755
74358SOL    HW124907   0.043   4.066   2.776
74358SOL    HW224908   0.114   4.199   2.766
74359SOL     OW24909   2.757  11.323   7.291
74359SOL    HW124910   2.820  11.272   7.239
74359SOL    HW224911   2.798  11.330   7.378
74360SOL     OW24912   9.743  14.219  12.853
74360SOL    HW124913   9.668  14.203  12.910
74360SOL    HW224914   9.764  14.312  12.866
74361SOL     OW24915  11.789   8.574   5.214
74361SOL    HW124916  11.727   8.618   5.154
74361SOL    HW224917  11.875   8.604   5.186
74362SOL     OW24918   3.099   7.967   8.794
74362SOL    HW124919   3.155   8.037   8.828
74362SOL    HW224920   3.141   7.939   8.713
74363SOL     OW24921   3.308   4.005  12.687
74363SOL    HW124922   3.317   4.022  12.781
74363SOL    HW224923   3.372   3.937  12.668
74364SOL     OW24924   9.497   8.267  14.563
74364SOL    HW124925   9.494   8.359  14.537
74364SOL    HW224926   9.480   8.269  14.657
74365SOL     OW24927   5.488   8.546  11.447
74365SOL    HW124928   5.448   8.631  11.431
74365SOL    HW224929   5.548   8.533  11.373
74366SOL     OW24930   6.298   5.962   8.389
74366SOL    HW124931   6.354   5.974   8.313
74366SOL    HW224932   6.355   5.979   8.464
74367SOL     OW24933  11.568  13.360   0.692
74367SOL    HW124934  11.491  13.304   0.689
74367SOL    HW224935  11.537  13.446   0.665
74368SOL     OW24936   1.439  12.178   1.783
74368SOL    HW124937   1.487  12.159   1.864
74368SOL    HW224938   1.466  12.266   1.759
74369SOL     OW24939   2.883   5.803  12.386
74369SOL    HW124940   2.971   5.821  12.352
74369SOL    HW224941   2.886   5.711  12.412
74370SOL     OW24942   5.053  13.319  12.249
74370SOL    HW124943   5.141  13.299  12.282
74370SOL    HW224944   5.067  13.388  12.184
74371SOL     OW24945   8.867   1.830  10.682
74371SOL    HW124946   8.903   1.747  10.653
74371SOL    HW224947   8.852   1.879  10.601
74372SOL     OW24948   8.555   8.820   0.459
74372SOL    HW124949   8.616   8.884   0.496
74372SOL    HW224950   8.545   8.847   0.368
74373SOL     OW24951  14.695   1.534  13.275
74373SOL    HW124952  14.600   1.519  13.269
74373SOL    HW224953  14.703   1.611  13.331
74374SOL     OW24954   3.133  14.357   3.400
74374SOL    HW124955   3.215  14.314   3.375
74374SOL    HW224956   3.082  14.288   3.443
74375SOL     OW24957   0.438  13.668   8.774
74375SOL    HW124958   0.444  13.673   8.678
74375SOL    HW224959   0.345  13.673   8.792
74376SOL     OW24960   0.732   3.042   4.276
74376SOL    HW124961   0.681   3.094   4.338
74376SOL    HW224962   0.801   3.002   4.330
74377SOL     OW24963   0.230   0.427  11.379
74377SOL    HW124964   0.135   0.432  11.388
74377SOL    HW224965   0.264   0.456  11.464
74378SOL     OW24966   3.596  10.884  10.934
74378SOL    HW124967   3.531  10.901  10.866
74378SOL    HW224968   3.569  10.800  10.972
74379SOL     OW24969  12.666   9.216  10.774
74379SOL    HW124970  12.727   9.162  10.723
74379SOL    HW224971  12.598   9.241  10.712
74380SOL     OW24972   2.921   3.859   9.754
74380SOL    HW124973   2.897   3.875   9.845
74380SOL    HW224974   2.839   3.834   9.712
74381SOL     OW24975   6.938   2.032   7.644
74381SOL    HW124976   6.861   2.071   7.602
74381SOL    HW224977   6.902   1.967   7.705
74382SOL     OW24978  12.346   8.735   1.657
74382SOL    HW124979  12.392   8.702   1.580
74382SOL    HW224980  12.339   8.829   1.642
74383SOL     OW24981  10.032   0.045   7.058
74383SOL    HW124982  10.060   0.125   7.013
74383SOL    HW224983  10.083  14.855   7.016
74384SOL     OW24984  11.081  10.341   0.112
74384SOL    HW124985  11.154  10.317   0.169
74384SOL    HW224986  11.121  10.356   0.027
74385SOL     OW24987   2.341   7.621   6.698
74385SOL    HW124988   2.324   7.615   6.604
74385SOL    HW224989   2.384   7.538   6.719
74386SOL     OW24990   9.700   5.943   4.872
74386SOL    HW124991   9.694   5.848   4.857
74386SOL    HW224992   9.676   5.982   4.788
74387SOL     OW24993  10.867  12.220  14.752
74387SOL    HW124994  10.787  12.168  14.765
74387SOL    HW224995  10.839  12.292  14.695
74388SOL     OW24996   5.718   5.977   5.035
74388SOL    HW124997   5.694   5.915   5.104
74388SOL    HW224998   5.669   5.947   4.958
74389SOL     OW24999   4.235  10.804   8.828
74389SOL    HW125000   4.254  10.897   8.842
74389SOL    HW225001   4.295  10.777   8.759
74390SOL     OW25002   4.685   4.730   0.588
74390SOL    HW125003   4.599   4.691   0.601
74390SOL    HW225004   4.734   4.664   0.538
74391SOL     OW25005  11.491   9.147  10.764
74391SOL    HW125006  11.487   9.077  10.830
74391SOL    HW225007  11.483   9.228  10.814
74392SOL     OW25008   0.021  12.729   8.607
74392SOL    HW125009  14.828  12.723   8.545
74392SOL    HW225010   0.097  12.751   8.553
74393SOL     OW25011  10.985   4.467   1.223
74393SOL    HW125012  10.937   4.426   1.296
74393SOL    HW225013  11.025   4.393   1.177
74394SOL     OW25014   3.645   9.282  12.101
74394SOL    HW125015   3.737   9.261  12.086
74394SOL    HW225016   3.598   9.237  12.031
74395SOL     OW25017  10.536   4.478   9.892
74395SOL    HW125018  10.613   4.507   9.842
74395SOL    HW225019  10.474   4.550   9.885
74396SOL     OW25020   3.485   5.133   2.810
74396SOL    HW125021   3.521   5.197   2.750
74396SOL    HW225022   3.391   5.134   2.793
74397SOL     OW25023  13.692  11.368   7.700
74397SOL    HW125024  13.787  11.360   7.692
74397SOL    HW225025  13.673  11.458   7.671
74398SOL     OW25026   3.096  13.154  12.321
74398SOL    HW125027   3.083  13.140  12.227
74398SOL    HW225028   3.053  13.080  12.363
74399SOL     OW25029  10.002   7.483   2.459
74399SOL    HW125030   9.965   7.421   2.522
74399SOL    HW225031   9.993   7.440   2.374
74400SOL     OW25032  10.089   4.513  10.229
74400SOL    HW125033  10.005   4.558  10.235
74400SOL    HW225034  10.097   4.487  10.137
74401SOL     OW25035   2.939  14.426  10.713
74401SOL    HW125036   2.845  14.437  10.723
74401SOL    HW225037   2.968  14.389  10.797
74402SOL     OW25038   0.022   0.010   1.728
74402SOL    HW125039   0.027  14.802   1.769
74402SOL    HW225040   0.034   0.071   1.800
74403SOL     OW25041   0.613   8.760   0.657
74403SOL    HW125042   0.570   8.764   0.742
74403SOL    HW225043   0.646   8.848   0.641
74404SOL     OW25044   7.957   9.179  13.011
74404SOL    HW125045   7.889   9.146  12.951
74404SOL    HW225046   7.916   9.255  13.053
74405SOL     OW25047   5.049   7.849   2.590
74405SOL    HW125048   5.142   7.834   2.574
74405SOL    HW225049   5.010   7.762   2.588
74406SOL     OW25050   1.046   2.662   2.643
74406SOL    HW125051   1.000   2.746   2.656
74406SOL    HW225052   1.104   2.655   2.718
74407SOL     OW25053  11.742   7.485   8.027
74407SOL    HW125054  11.690   7.405   8.037
74407SOL    HW225055  11.702   7.547   8.087
74408SOL     OW25056   5.793   7.774   5.436
74408SOL    HW125057   5.799   7.705   5.501
74408SOL    HW225058   5.701   7.774   5.408
74409SOL     OW25059  12.171   8.326   7.668
74409SOL    HW125060  12.116   8.384   7.615
74409SOL    HW225061  12.147   8.238   7.640
74410SOL     OW25062  10.557  11.969  11.424
74410SOL    HW125063  10.632  11.937  11.375
74410SOL    HW225064  10.591  11.984  11.512
74411SOL     OW25065  13.684   8.347  11.900
74411SOL    HW125066  13.693   8.432  11.942
74411SOL    HW225067  13.665   8.367  11.808
74412SOL     OW25068   0.736  13.729  13.463
74412SOL    HW125069   0.805  13.773  13.414
74412SOL    HW225070   0.664  13.720  13.401
74413SOL     OW25071  13.882   2.336  10.836
74413SOL    HW125072  13.968   2.375  10.850
74413SOL    HW225073  13.833   2.358  10.916
74414SOL     OW25074  13.258   1.320  14.559
74414SOL    HW125075  13.189   1.346  14.621
74414SOL    HW225076  13.244   1.377  14.483
74415SOL     OW25077   0.761   0.594   8.379
74415SOL    HW125078   0.783   0.561   8.292
74415SOL    HW225079   0.756   0.515   8.434
74416SOL     OW25080  12.384  10.526   1.815
74416SOL    HW125081  12.319  10.596   1.806
74416SOL    HW225082  12.384  10.505   1.908
74417SOL     OW25083  14.565  12.028  10.716
74417SOL    HW125084  14.621  12.053  10.789
74417SOL    HW225085  14.479  12.012  10.755
74418SOL     OW25086   9.003  11.080  11.271
74418SOL    HW125087   8.968  11.009  11.324
74418SOL    HW225088   9.061  11.037  11.209
74419SOL     OW25089  13.288  14.627   0.940
74419SOL    HW125090  13.274  14.681   1.017
74419SOL    HW225091  13.206  14.634   0.891
74420SOL     OW25092   8.446  14.536   7.835
74420SOL    HW125093   8.362  14.571   7.807
74420SOL    HW225094   8.488  14.608   7.883
74421SOL     OW25095   1.050  13.679   8.423
74421SOL    HW125096   1.037  13.770   8.397
74421SOL    HW225097   0.962  13.643   8.429
74422SOL     OW25098   6.257  11.919   5.810
74422SOL    HW125099   6.286  11.997   5.858
74422SOL    HW225100   6.236  11.952   5.723
74423SOL     OW25101   1.150   3.614   6.172
74423SOL    HW125102   1.221   3.636   6.233
74423SOL    HW225103   1.174   3.528   6.138
74424SOL     OW25104  12.581   4.707   9.918
74424SOL    HW125105  12.664   4.674   9.954
74424SOL    HW225106  12.596   4.800   9.904
74425SOL     OW25107   6.421   1.834  11.998
74425SOL    HW125108   6.456   1.893  12.065
74425SOL    HW225109   6.487   1.832  11.930
74426SOL     OW25110  11.287   8.224   3.705
74426SOL    HW125111  11.330   8.165   3.643
74426SOL    HW225112  11.199   8.236   3.670
74427SOL     OW25113   1.614   8.868   6.825
74427SOL    HW125114   1.579   8.927   6.759
74427SOL    HW225115   1.553   8.795   6.827
74428SOL     OW25116  14.645   5.331  12.398
74428SOL    HW125117  14.581   5.309  12.466
74428SOL    HW225118  14.712   5.380  12.445
74429SOL     OW25119   7.424  10.443  11.694
74429SOL    HW125120   7.421  10.523  11.641
74429SOL    HW225121   7.333  10.425  11.716
74430SOL     OW25122   0.984  10.712  12.263
74430SOL    HW125123   0.990  10.669  12.177
74430SOL    HW225124   0.930  10.790  12.247
74431SOL     OW25125  13.855  14.195  12.469
74431SOL    HW125126  13.799  14.251  12.416
74431SOL    HW225127  13.815  14.108  12.464
74432SOL     OW25128  14.462  10.819  11.776
74432SOL    HW125129  14.470  10.759  11.850
74432SOL    HW225130  14.552  10.848  11.759
74433SOL     OW25131   4.251  11.124   3.796
74433SOL    HW125132   4.236  11.128   3.890
74433SOL    HW225133   4.173  11.164   3.758
74434SOL     OW25134   7.697  14.779  12.632
74434SOL    HW125135   7.785  14.756  12.661
74434SOL    HW225136   7.672  14.706  12.575
74435SOL     OW25137  14.636   2.172   2.880
74435SOL    HW125138  14.715   2.136   2.839
74435SOL    HW225139  14.614   2.249   2.826
74436SOL     OW25140   4.525   4.517   9.175
74436SOL    HW125141   4.510   4.479   9.262
74436SOL    HW225142   4.475   4.461   9.116
74437SOL     OW25143  13.739   5.614   9.707
74437SOL    HW125144  13.784   5.666   9.640
74437SOL    HW225145  13.767   5.524   9.691
74438SOL     OW25146   4.140  11.028  12.319
74438SOL    HW125147   4.072  10.994  12.260
74438SOL    HW225148   4.218  10.979  12.297
74439SOL     OW25149  10.990   7.166  12.392
74439SOL    HW125150  11.007   7.073  12.407
74439SOL    HW225151  10.918   7.167  12.328
74440SOL     OW25152  10.643   2.980   3.579
74440SOL    HW125153  10.643   2.886   3.562
74440SOL    HW225154  10.590   2.989   3.658
74441SOL     OW25155  12.558  13.681  14.644
74441SOL    HW125156  12.474  13.650  14.609
74441SOL    HW225157  12.597  13.603  14.684
74442SOL     OW25158   4.991   0.071   7.532
74442SOL    HW125159   4.922   0.136   7.548
74442SOL    HW225160   4.948  14.865   7.543
74443SOL     OW25161   4.890   9.304   1.752
74443SOL    HW125162   4.833   9.323   1.826
74443SOL    HW225163   4.967   9.359   1.767
74444SOL     OW25164   7.008   0.816   7.114
74444SOL    HW125165   7.047   0.745   7.063
74444SOL    HW225166   6.916   0.792   7.121
74445SOL     OW25167   4.199   7.876  12.365
74445SOL    HW125168   4.121   7.853  12.416
74445SOL    HW225169   4.167   7.937  12.298
74446SOL     OW25170   1.968   6.745   3.067
74446SOL    HW125171   1.985   6.685   2.993
74446SOL    HW225172   1.992   6.831   3.034
74447SOL     OW25173   7.793  13.222   8.145
74447SOL    HW125174   7.701  13.249   8.139
74447SOL    HW225175   7.811  13.183   8.059
74448SOL     OW25176   9.160   2.774   5.880
74448SOL    HW125177   9.236   2.746   5.830
74448SOL    HW225178   9.196   2.830   5.949
74449SOL     OW25179   3.617  12.010   9.150
74449SOL    HW125180   3.555  12.069   9.193
74449SOL    HW225181   3.635  12.051   9.065
74450SOL     OW25182  11.188   0.341   8.032
74450SOL    HW125183  11.264   0.320   7.978
74450SOL    HW225184  11.220   0.337   8.122
74451SOL     OW25185   5.170   6.756   4.673
74451SOL    HW125186   5.190   6.822   4.607
74451SOL    HW225187   5.076   6.738   4.662
74452SOL     OW25188   5.125  13.498  13.721
74452SOL    HW125189   5.162  13.415  13.691
74452SOL    HW225190   5.116  13.488  13.816
74453SOL     OW25191   8.403   1.165   9.271
74453SOL    HW125192   8.367   1.195   9.187
74453SOL    HW225193   8.397   1.242   9.328
74454SOL     OW25194  11.175   8.378  12.236
74454SOL    HW125195  11.151   8.296  12.194
74454SOL    HW225196  11.092   8.423  12.252
74455SOL     OW25197   7.590  11.745   8.399
74455SOL    HW125198   7.524  11.693   8.445
74455SOL    HW225199   7.580  11.833   8.434
74456SOL     OW25200   1.367  12.395   6.723
74456SOL    HW125201   1.315  12.340   6.664
74456SOL    HW225202   1.302  12.441   6.777
74457SOL     OW25203  14.793   1.967   9.071
74457SOL    HW125204  14.743   1.953   9.152
74457SOL    HW225205  14.731   2.010   9.012
74458SOL     OW25206   2.047   7.089  12.514
74458SOL    HW125207   1.989   7.091  12.438
74458SOL    HW225208   2.129   7.128  12.482
74459SOL     OW25209   4.569   1.434  13.650
74459SOL    HW125210   4.609   1.520  13.642
74459SOL    HW225211   4.542   1.411  13.561
74460SOL     OW25212   8.385   2.199  13.442
74460SOL    HW125213   8.344   2.183  13.527
74460SOL    HW225214   8.375   2.293  13.427
74461SOL     OW25215   3.313  10.221  14.242
74461SOL    HW125216   3.393  10.170  14.237
74461SOL    HW225217   3.246  10.165  14.203
74462SOL     OW25218  10.286   0.632   8.580
74462SOL    HW125219  10.202   0.677   8.593
74462SOL    HW225220  10.270   0.573   8.506
74463SOL     OW25221   3.003   2.693  11.881
74463SOL    HW125222   2.968   2.729  11.799
74463SOL    HW225223   2.936   2.632  11.911
74464SOL     OW25224   2.852  13.888  11.267
74464SOL    HW125225   2.855  13.850  11.179
74464SOL    HW225226   2.939  13.871  11.303
74465SOL     OW25227   5.943  13.725   9.095
74465SOL    HW125228   5.888  13.766   9.029
74465SOL    HW225229   6.008  13.791   9.117
74466SOL     OW25230   3.557  14.348   7.729
74466SOL    HW125231   3.476  14.384   7.692
74466SOL    HW225232   3.620  14.354   7.657
74467SOL     OW25233   5.174   6.640  10.385
74467SOL    HW125234   5.214   6.679  10.307
74467SOL    HW225235   5.118   6.570  10.351
74468SOL     OW25236   2.636  11.749   7.692
74468SOL    HW125237   2.648  11.812   7.621
74468SOL    HW225238   2.604  11.801   7.766
74469SOL     OW25239  12.957   6.637   7.311
74469SOL    HW125240  12.912   6.578   7.371
74469SOL    HW225241  12.951   6.594   7.226
74470SOL     OW25242   3.254   2.994  11.748
74470SOL    HW125243   3.263   2.899  11.761
74470SOL    HW225244   3.241   3.004  11.654
74471SOL     OW25245   6.960   7.323   7.500
74471SOL    HW125246   6.893   7.281   7.553
74471SOL    HW225247   7.033   7.336   7.560
74472SOL     OW25248  11.640   0.262   2.246
74472SOL    HW125249  11.641   0.357   2.234
74472SOL    HW225250  11.710   0.245   2.309
74473SOL     OW25251   8.153   1.696   1.091
74473SOL    HW125252   8.225   1.740   1.136
74473SOL    HW225253   8.151   1.736   1.004
74474SOL     OW25254  10.226  13.210  14.382
74474SOL    HW125255  10.247  13.282  14.441
74474SOL    HW225256  10.139  13.231  14.348
74475SOL     OW25257   4.061   1.513  11.443
74475SOL    HW125258   4.013   1.483  11.520
74475SOL    HW225259   4.140   1.553  11.479
74476SOL     OW25260   3.137  12.777   6.685
74476SOL    HW125261   3.218  12.800   6.730
74476SOL    HW225262   3.085  12.731   6.751
74477SOL     OW25263   0.791   1.856   0.749
74477SOL    HW125264   0.831   1.825   0.830
74477SOL    HW225265   0.792   1.952   0.756
74478SOL     OW25266  13.642  11.555  10.988
74478SOL    HW125267  13.556  11.523  11.016
74478SOL    HW225268  13.699  11.479  10.995
74479SOL     OW25269  11.920  14.063  10.478
74479SOL    HW125270  11.889  13.996  10.417
74479SOL    HW225271  11.845  14.081  10.534
74480SOL     OW25272   4.062   3.218  13.553
74480SOL    HW125273   4.116   3.293  13.530
74480SOL    HW225274   4.104   3.144  13.509
74481SOL     OW25275  10.667   4.470   4.227
74481SOL    HW125276  10.648   4.482   4.320
74481SOL    HW225277  10.593   4.420   4.194
74482SOL     OW25278  13.877   2.783  13.853
74482SOL    HW125279  13.887   2.746  13.941
74482SOL    HW225280  13.786   2.813  13.850
74483SOL     OW25281   0.559   6.261   3.202
74483SOL    HW125282   0.587   6.219   3.284
74483SOL    HW225283   0.466   6.277   3.214
74484SOL     OW25284  12.150   2.800  11.158
74484SOL    HW125285  12.166   2.883  11.202
74484SOL    HW225286  12.226   2.787  11.102
74485SOL     OW25287   3.712   6.625  14.736
74485SOL    HW125288   3.740   6.634  14.644
74485SOL    HW225289   3.793   6.634  14.786
74486SOL     OW25290   4.917  14.003   6.021
74486SOL    HW125291   4.913  14.089   6.064
74486SOL    HW225292   4.893  14.021   5.930
74487SOL     OW25293  13.370   5.734  12.914
74487SOL    HW125294  13.369   5.656  12.859
74487SOL    HW225295  13.321   5.709  12.993
74488SOL     OW25296   0.066  11.479   0.082
74488SOL    HW125297   0.068  11.481  14.866
74488SOL    HW225298   0.018  11.558   0.107
74489SOL     OW25299  13.009   1.866   8.665
74489SOL    HW125300  12.942   1.930   8.688
74489SOL    HW225301  12.967   1.807   8.603
74490SOL     OW25302   8.903   2.189  13.715
74490SOL    HW125303   8.849   2.179  13.636
74490SOL    HW225304   8.984   2.141  13.694
74491SOL     OW25305   1.187  14.223  10.744
74491SOL    HW125306   1.251  14.285  10.781
74491SOL    HW225307   1.167  14.164  10.817
74492SOL     OW25308   8.890  14.422   3.422
74492SOL    HW125309   8.881  14.360   3.350
74492SOL    HW225310   8.960  14.481   3.395
74493SOL     OW25311   5.290  12.591  13.720
74493SOL    HW125312   5.308  12.497  13.716
74493SOL    HW225313   5.330  12.620  13.802
74494SOL     OW25314   7.653   4.738   9.614
74494SOL    HW125315   7.589   4.705   9.550
74494SOL    HW225316   7.737   4.731   9.569
74495SOL     OW25317  12.547  10.196   2.840
74495SOL    HW125318  12.576  10.287   2.848
74495SOL    HW225319  12.536  10.182   2.746
74496SOL     OW25320   8.951   2.290   6.437
74496SOL    HW125321   8.870   2.326   6.400
74496SOL    HW225322   8.998   2.366   6.469
74497SOL     OW25323   3.566   3.761  13.086
74497SOL    HW125324   3.609   3.686  13.128
74497SOL    HW225325   3.618   3.779  13.008
74498SOL     OW25326   1.557   2.072   5.157
74498SOL    HW125327   1.463   2.056   5.154
74498SOL    HW225328   1.582   2.085   5.065
74499SOL     OW25329  10.508   9.491  14.485
74499SOL    HW125330  10.453   9.457  14.555
74499SOL    HW225331  10.478   9.446  14.406
74500SOL     OW25332  10.365   9.431   0.640
74500SOL    HW125333  10.365   9.421   0.735
74500SOL    HW225334  10.458   9.439   0.617
74501SOL     OW25335   7.713   2.922   2.983
74501SOL    HW125336   7.758   3.006   2.985
74501SOL    HW225337   7.634   2.936   3.035
74502SOL     OW25338   9.407   0.280  13.228
74502SOL    HW125339   9.347   0.208  13.248
74502SOL    HW225340   9.491   0.251  13.261
74503SOL     OW25341   8.412   2.424   0.903
74503SOL    HW125342   8.412   2.348   0.845
74503SOL    HW225343   8.464   2.396   0.979
74504SOL     OW25344   5.972   6.930   2.719
74504SOL    HW125345   5.977   6.837   2.744
74504SOL    HW225346   5.881   6.954   2.736
74505SOL     OW25347  11.688  14.048   9.997
74505SOL    HW125348  11.614  14.028   9.940
74505SOL    HW225349  11.706  14.141   9.981
74506SOL     OW25350   2.926   5.773   1.754
74506SOL    HW125351   2.892   5.702   1.699
74506SOL    HW225352   3.014   5.746   1.777
74507SOL     OW25353   9.550   3.058   7.983
74507SOL    HW125354   9.616   3.053   7.914
74507SOL    HW225355   9.574   2.987   8.044
74508SOL     OW25356   9.804   8.638  13.701
74508SOL    HW125357   9.807   8.543  13.685
74508SOL    HW225358   9.731   8.669  13.648
74509SOL     OW25359   0.461   8.777   8.817
74509SOL    HW125360   0.488   8.866   8.795
74509SOL    HW225361   0.386   8.760   8.760
74510SOL     OW25362  12.784   8.649   9.749
74510SOL    HW125363  12.803   8.740   9.772
74510SOL    HW225364  12.688   8.644   9.748
74511SOL     OW25365   3.018   8.348  11.504
74511SOL    HW125366   2.951   8.366  11.571
74511SOL    HW225367   3.096   8.324  11.554
74512SOL     OW25368   5.844  10.644  11.834
74512SOL    HW125369   5.910  10.635  11.766
74512SOL    HW225370   5.771  10.589  11.804
74513SOL     OW25371  10.041  13.090   9.360
74513SOL    HW125372  10.040  13.072   9.454
74513SOL    HW225373  10.050  13.004   9.319
74514SOL     OW25374   2.230   5.770  13.778
74514SOL    HW125375   2.174   5.817  13.839
74514SOL    HW225376   2.312   5.756  13.826
74515SOL     OW25377   3.970   3.413   1.582
74515SOL    HW125378   4.049   3.466   1.585
74515SOL    HW225379   3.929   3.425   1.668
74516SOL     OW25380  11.955  14.068   0.094
74516SOL    HW125381  12.016  14.130   0.134
74516SOL    HW225382  12.003  14.033   0.019
74517SOL     OW25383   9.753  14.367   3.124
74517SOL    HW125384   9.715  14.428   3.062
74517SOL    HW225385   9.848  14.374   3.109
74518SOL     OW25386   6.942   4.948   0.715
74518SOL    HW125387   7.026   4.993   0.728
74518SOL    HW225388   6.959   4.888   0.641
74519SOL     OW25389  14.683   9.719   8.271
74519SOL    HW125390  14.772   9.708   8.237
74519SOL    HW225391  14.694   9.720   8.366
74520SOL     OW25392  10.478   0.218   9.512
74520SOL    HW125393  10.508   0.128   9.525
74520SOL    HW225394  10.494   0.261   9.596
74521SOL     OW25395   9.064  10.403   1.754
74521SOL    HW125396   9.122  10.337   1.792
74521SOL    HW225397   8.976  10.373   1.776
74522SOL     OW25398  13.522  11.515   2.713
74522SOL    HW125399  13.515  11.490   2.621
74522SOL    HW225400  13.592  11.460   2.749
74523SOL     OW25401   7.396   3.100   3.876
74523SOL    HW125402   7.325   3.141   3.826
74523SOL    HW225403   7.436   3.039   3.815
74524SOL     OW25404   3.642   1.363  11.902
74524SOL    HW125405   3.603   1.450  11.888
74524SOL    HW225406   3.625   1.316  11.820
74525SOL     OW25407   8.956   1.167  11.215
74525SOL    HW125408   8.944   1.255  11.178
74525SOL    HW225409   8.883   1.157  11.277
74526SOL     OW25410  11.382  14.797  14.591
74526SOL    HW125411  11.367  14.872  14.534
74526SOL    HW225412  11.462  14.756  14.557
74527SOL     OW25413   6.697  11.962   1.210
74527SOL    HW125414   6.784  12.002   1.215
74527SOL    HW225415   6.646  12.022   1.156
74528SOL     OW25416   0.559  11.363   0.648
74528SOL    HW125417   0.582  11.334   0.560
74528SOL    HW225418   0.584  11.291   0.705
74529SOL     OW25419   5.144   3.278  12.107
74529SOL    HW125420   5.112   3.213  12.170
74529SOL    HW225421   5.073   3.288  12.045
74530SOL     OW25422  13.275   6.607   7.372
74530SOL    HW125423  13.335   6.604   7.298
74530SOL    HW225424  13.195   6.645   7.337
74531SOL     OW25425   2.516   9.906  10.020
74531SOL    HW125426   2.465   9.845   9.966
74531SOL    HW225427   2.556   9.966   9.956
74532SOL     OW25428   2.090   1.367   9.318
74532SOL    HW125429   2.064   1.323   9.237
74532SOL    HW225430   2.120   1.453   9.290
74533SOL     OW25431   5.159   3.284   5.657
74533SOL    HW125432   5.069   3.295   5.627
74533SOL    HW225433   5.160   3.323   5.745
74534SOL     OW25434   5.099  10.715   7.884
74534SOL    HW125435   5.061  10.769   7.953
74534SOL    HW225436   5.179  10.761   7.859
74535SOL     OW25437  13.855  13.564   5.934
74535SOL    HW125438  13.880  13.504   5.864
74535SOL    HW225439  13.922  13.553   6.001
74536SOL     OW25440   2.495   5.651   4.497
74536SOL    HW125441   2.590   5.655   4.483
74536SOL    HW225442   2.484   5.680   4.588
74537SOL     OW25443   2.134   6.071   3.503
74537SOL    HW125444   2.209   6.011   3.500
74537SOL    HW225445   2.090   6.059   3.419
74538SOL     OW25446   2.701   4.465  10.914
74538SOL    HW125447   2.731   4.374  10.909
74538SOL    HW225448   2.606   4.459  10.910
74539SOL     OW25449  13.536   4.265   6.694
74539SOL    HW125450  13.467   4.199   6.695
74539SOL    HW225451  13.540   4.295   6.603
74540SOL     OW25452  13.494  11.693  12.643
74540SOL    HW125453  13.511  11.679  12.550
74540SOL    HW225454  13.532  11.780  12.661
74541SOL     OW25455   4.964   8.206  13.195
74541SOL    HW125456   4.933   8.296  13.191
74541SOL    HW225457   4.954   8.174  13.105
74542SOL     OW25458   1.904  10.736   7.966
74542SOL    HW125459   1.857  10.690   8.035
74542SOL    HW225460   1.835  10.772   7.910
74543SOL     OW25461   1.766   9.705  10.026
74543SOL    HW125462   1.740   9.734   9.939
74543SOL    HW225463   1.738   9.613  10.030
74544SOL     OW25464   0.258   9.365  11.400
74544SOL    HW125465   0.166   9.380  11.420
74544SOL    HW225466   0.293   9.453  11.384
74545SOL     OW25467  12.458   4.490   4.423
74545SOL    HW125468  12.526   4.556   4.435
74545SOL    HW225469  12.432   4.466   4.512
74546SOL     OW25470  14.718   7.065   5.079
74546SOL    HW125471  14.684   7.051   5.167
74546SOL    HW225472  14.641   7.072   5.023
74547SOL     OW25473   3.849   7.723  14.836
74547SOL    HW125474   3.778   7.786  14.825
74547SOL    HW225475   3.857   7.712   0.052
74548SOL     OW25476  12.690   5.989   4.052
74548SOL    HW125477  12.697   5.913   4.109
74548SOL    HW225478  12.636   6.051   4.100
74549SOL     OW25479   2.630   1.652   6.583
74549SOL    HW125480   2.687   1.591   6.538
74549SOL    HW225481   2.683   1.687   6.655
74550SOL     OW25482   1.476  14.013   4.446
74550SOL    HW125483   1.572  14.011   4.444
74550SOL    HW225484   1.455  14.090   4.497
74551SOL     OW25485  13.184   4.366   9.471
74551SOL    HW125486  13.210   4.274   9.465
74551SOL    HW225487  13.095   4.364   9.506
74552SOL     OW25488   1.034  12.954   9.687
74552SOL    HW125489   0.961  12.938   9.628
74552SOL    HW225490   1.010  13.033   9.734
74553SOL     OW25491   6.273   6.839  10.718
74553SOL    HW125492   6.217   6.777  10.765
74553SOL    HW225493   6.362   6.819  10.748
74554SOL     OW25494   9.033   1.432  14.157
74554SOL    HW125495   9.105   1.438  14.093
74554SOL    HW225496   8.962   1.483  14.117
74555SOL     OW25497  13.754   8.973   5.599
74555SOL    HW125498  13.841   8.953   5.565
74555SOL    HW225499  13.701   8.986   5.521
74556SOL     OW25500   5.645  11.345   0.475
74556SOL    HW125501   5.710  11.314   0.539
74556SOL    HW225502   5.691  11.340   0.391
74557SOL     OW25503   9.107   6.713   2.279
74557SOL    HW125504   9.027   6.766   2.291
74557SOL    HW225505   9.102   6.646   2.348
74558SOL     OW25506   6.351  12.861  12.292
74558SOL    HW125507   6.412  12.917  12.339
74558SOL    HW225508   6.297  12.821  12.360
74559SOL     OW25509  10.164   4.126  10.184
74559SOL    HW125510  10.192   4.035  10.178
74559SOL    HW225511  10.200   4.167  10.105
74560SOL     OW25512  12.101   1.544   8.146
74560SOL    HW125513  12.085   1.565   8.054
74560SOL    HW225514  12.176   1.599   8.171
74561SOL     OW25515   3.154  10.671  12.820
74561SOL    HW125516   3.165  10.612  12.746
74561SOL    HW225517   3.060  10.672  12.837
74562SOL     OW25518  10.668   2.250  12.025
74562SOL    HW125519  10.713   2.203  12.095
74562SOL    HW225520  10.706   2.215  11.945
74563SOL     OW25521  14.657   6.417   9.193
74563SOL    HW125522  14.678   6.327   9.218
74563SOL    HW225523  14.708   6.432   9.114
74564SOL     OW25524   5.807   6.400  13.577
74564SOL    HW125525   5.746   6.409  13.504
74564SOL    HW225526   5.766   6.447  13.649
74565SOL     OW25527   5.901  12.703   3.911
74565SOL    HW125528   5.946  12.674   3.990
74565SOL    HW225529   5.931  12.644   3.842
74566SOL     OW25530   7.481   9.316  12.482
74566SOL    HW125531   7.512   9.235  12.442
74566SOL    HW225532   7.399   9.336  12.437
74567SOL     OW25533   4.290  14.769   3.439
74567SOL    HW125534   4.246  14.707   3.498
74567SOL    HW225535   4.310  14.844   3.494
74568SOL     OW25536   9.213   5.974   3.091
74568SOL    HW125537   9.293   5.990   3.041
74568SOL    HW225538   9.162   6.055   3.082
74569SOL     OW25539   3.229   5.745   5.861
74569SOL    HW125540   3.178   5.795   5.924
74569SOL    HW225541   3.180   5.753   5.779
74570SOL     OW25542  12.453   7.966   9.797
74570SOL    HW125543  12.419   7.938   9.712
74570SOL    HW225544  12.547   7.949   9.793
74571SOL     OW25545  14.620  11.236  10.462
74571SOL    HW125546  14.526  11.221  10.472
74571SOL    HW225547  14.655  11.152  10.432
74572SOL     OW25548   4.214   4.200   7.865
74572SOL    HW125549   4.202   4.284   7.909
74572SOL    HW225550   4.142   4.196   7.801
74573SOL     OW25551   5.763   3.053   0.880
74573SOL    HW125552   5.669   3.071   0.885
74573SOL    HW225553   5.796   3.114   0.813
74574SOL     OW25554   6.030   6.714   7.395
74574SOL    HW125555   6.110   6.743   7.350
74574SOL    HW225556   6.018   6.779   7.465
74575SOL     OW25557   1.305   4.515   6.342
74575SOL    HW125558   1.393   4.495   6.309
74575SOL    HW225559   1.249   4.449   6.302
74576SOL     OW25560   6.299  11.455   3.002
74576SOL    HW125561   6.288  11.511   3.079
74576SOL    HW225562   6.238  11.383   3.016
74577SOL     OW25563   8.020   3.703   6.820
74577SOL    HW125564   7.986   3.650   6.892
74577SOL    HW225565   8.091   3.650   6.783
74578SOL     OW25566  11.816   8.365   7.687
74578SOL    HW125567  11.847   8.450   7.658
74578SOL    HW225568  11.846   8.304   7.620
74579SOL     OW25569   5.951   4.473   8.215
74579SOL    HW125570   5.894   4.414   8.165
74579SOL    HW225571   5.925   4.560   8.186
74580SOL     OW25572   3.137   5.635  10.141
74580SOL    HW125573   3.112   5.615  10.231
74580SOL    HW225574   3.060   5.679  10.104
74581SOL     OW25575   1.415   5.740   0.608
74581SOL    HW125576   1.412   5.716   0.701
74581SOL    HW225577   1.420   5.836   0.608
74582SOL     OW25578  11.653   1.726   2.128
74582SOL    HW125579  11.742   1.735   2.160
74582SOL    HW225580  11.603   1.793   2.174
74583SOL     OW25581   7.352   9.067   2.228
74583SOL    HW125582   7.261   9.041   2.215
74583SOL    HW225583   7.400   8.985   2.241
74584SOL     OW25584  10.021  13.686   1.749
74584SOL    HW125585  10.042  13.601   1.710
74584SOL    HW225586  10.068  13.750   1.695
74585SOL     OW25587  12.265   7.481   7.606
74585SOL    HW125588  12.182   7.521   7.582
74585SOL    HW225589  12.294   7.530   7.683
74586SOL     OW25590   9.194   1.674   1.479
74586SOL    HW125591   9.277   1.634   1.451
74586SOL    HW225592   9.170   1.625   1.558
74587SOL     OW25593   0.647   9.725   7.085
74587SOL    HW125594   0.710   9.788   7.051
74587SOL    HW225595   0.572   9.778   7.113
74588SOL     OW25596   9.588   4.972   3.159
74588SOL    HW125597   9.523   4.904   3.173
74588SOL    HW225598   9.671   4.926   3.155
74589SOL     OW25599   0.937   8.250  12.850
74589SOL    HW125600   1.015   8.251  12.794
74589SOL    HW225601   0.897   8.164  12.834
74590SOL     OW25602  13.122   9.472   2.124
74590SOL    HW125603  13.079   9.420   2.192
74590SOL    HW225604  13.080   9.444   2.043
74591SOL     OW25605   1.119   7.774  14.303
74591SOL    HW125606   1.035   7.748  14.265
74591SOL    HW225607   1.128   7.866  14.279
74592SOL     OW25608  13.160   2.686   9.244
74592SOL    HW125609  13.162   2.615   9.180
74592SOL    HW225610  13.071   2.723   9.236
74593SOL     OW25611   9.718   6.069   6.398
74593SOL    HW125612   9.744   6.160   6.416
74593SOL    HW225613   9.785   6.016   6.440
74594SOL     OW25614  11.892   9.507   5.583
74594SOL    HW125615  11.978   9.505   5.625
74594SOL    HW225616  11.897   9.442   5.513
74595SOL     OW25617  13.955  12.528   4.276
74595SOL    HW125618  13.919  12.440   4.270
74595SOL    HW225619  13.892  12.577   4.329
74596SOL     OW25620   0.367   1.378  12.680
74596SOL    HW125621   0.304   1.435  12.724
74596SOL    HW225622   0.407   1.433  12.613
74597SOL     OW25623   4.115  12.512   6.626
74597SOL    HW125624   4.072  12.499   6.710
74597SOL    HW225625   4.122  12.424   6.589
74598SOL     OW25626  10.697  12.648   1.668
74598SOL    HW125627  10.716  12.690   1.753
74598SOL    HW225628  10.632  12.705   1.627
74599SOL     OW25629  13.039   4.189   6.521
74599SOL    HW125630  13.116   4.153   6.476
74599SOL    HW225631  13.046   4.283   6.508
74600SOL     OW25632   0.956   5.857  11.522
74600SOL    HW125633   0.954   5.908  11.603
74600SOL    HW225634   0.987   5.771  11.550
74601SOL     OW25635  10.590   1.732  12.234
74601SOL    HW125636  10.580   1.816  12.190
74601SOL    HW225637  10.558   1.667  12.172
74602SOL     OW25638   9.193   7.572  11.656
74602SOL    HW125639   9.119   7.539  11.706
74602SOL    HW225640   9.269   7.525  11.692
74603SOL     OW25641   6.786   7.444   4.310
74603SOL    HW125642   6.693   7.460   4.324
74603SOL    HW225643   6.790   7.361   4.262
74604SOL     OW25644   7.277   4.951  12.518
74604SOL    HW125645   7.198   4.898  12.526
74604SOL    HW225646   7.347   4.887  12.506
74605SOL     OW25647  13.240   0.707  10.238
74605SOL    HW125648  13.205   0.654  10.310
74605SOL    HW225649  13.299   0.770  10.281
74606SOL     OW25650   8.850   4.121  13.031
74606SOL    HW125651   8.878   4.035  12.998
74606SOL    HW225652   8.901   4.184  12.981
74607SOL     OW25653   5.341  14.482   3.571
74607SOL    HW125654   5.425  14.527   3.574
74607SOL    HW225655   5.332  14.442   3.658
74608SOL     OW25656   5.242   8.622   1.228
74608SOL    HW125657   5.288   8.540   1.213
74608SOL    HW225658   5.285   8.660   1.305
74609SOL     OW25659   8.919   1.695  14.800
74609SOL    HW125660   8.981   1.637  14.755
74609SOL    HW225661   8.970   1.774  14.818
74610SOL     OW25662   6.305   1.717   8.100
74610SOL    HW125663   6.350   1.739   8.181
74610SOL    HW225664   6.292   1.622   8.104
74611SOL     OW25665  13.976   6.285   1.871
74611SOL    HW125666  14.026   6.204   1.883
74611SOL    HW225667  14.040   6.347   1.837
74612SOL     OW25668   9.602  13.925   2.240
74612SOL    HW125669   9.514  13.960   2.225
74612SOL    HW225670   9.637  13.909   2.152
74613SOL     OW25671  11.157  10.220   3.488
74613SOL    HW125672  11.185  10.249   3.576
74613SOL    HW225673  11.062  10.223   3.491
74614SOL     OW25674   1.554   6.913  11.782
74614SOL    HW125675   1.523   6.928  11.871
74614SOL    HW225676   1.473   6.901  11.731
74615SOL     OW25677   7.441   6.815   7.647
74615SOL    HW125678   7.372   6.844   7.587
74615SOL    HW225679   7.424   6.862   7.728
74616SOL     OW25680  10.853   4.577   3.352
74616SOL    HW125681  10.942   4.594   3.384
74616SOL    HW225682  10.796   4.602   3.425
74617SOL     OW25683   9.304   9.993  13.197
74617SOL    HW125684   9.327  10.025  13.285
74617SOL    HW225685   9.256   9.912  13.213
74618SOL     OW25686   8.769   7.476   5.421
74618SOL    HW125687   8.752   7.382   5.415
74618SOL    HW225688   8.840   7.491   5.358
74619SOL     OW25689   6.933  13.601   8.783
74619SOL    HW125690   7.003  13.537   8.796
74619SOL    HW225691   6.901  13.584   8.694
74620SOL     OW25692   1.965  10.665   5.735
74620SOL    HW125693   2.046  10.650   5.785
74620SOL    HW225694   1.899  10.684   5.802
74621SOL     OW25695  12.181   9.730  12.101
74621SOL    HW125696  12.248   9.743  12.168
74621SOL    HW225697  12.229   9.735  12.018
74622SOL     OW25698   3.313  10.046   8.993
74622SOL    HW125699   3.359  10.106   9.052
74622SOL    HW225700   3.382   9.998   8.948
74623SOL     OW25701   7.287   6.717   9.498
74623SOL    HW125702   7.374   6.736   9.532
74623SOL    HW225703   7.277   6.775   9.422
74624SOL     OW25704  11.823   1.555   9.339
74624SOL    HW125705  11.820   1.618   9.411
74624SOL    HW225706  11.767   1.483   9.368
74625SOL     OW25707   2.903  12.030   1.594
74625SOL    HW125708   2.846  11.958   1.622
74625SOL    HW225709   2.889  12.098   1.661
74626SOL     OW25710  11.564  12.880   4.536
74626SOL    HW125711  11.600  12.802   4.496
74626SOL    HW225712  11.571  12.947   4.468
74627SOL     OW25713   4.863  10.886   6.564
74627SOL    HW125714   4.942  10.836   6.585
74627SOL    HW225715   4.810  10.825   6.512
74628SOL     OW25716   8.612  11.255  10.716
74628SOL    HW125717   8.524  11.274  10.685
74628SOL    HW225718   8.669  11.295  10.649
74629SOL     OW25719   4.862   7.105   4.627
74629SOL    HW125720   4.924   7.114   4.555
74629SOL    HW225721   4.798   7.041   4.595
74630SOL     OW25722   3.472  11.126  14.381
74630SOL    HW125723   3.398  11.179  14.350
74630SOL    HW225724   3.546  11.156  14.328
74631SOL     OW25725   4.183  11.326  10.216
74631SOL    HW125726   4.093  11.333  10.249
74631SOL    HW225727   4.236  11.369  10.283
74632SOL     OW25728  12.732   7.048   9.308
74632SOL    HW125729  12.693   7.008   9.231
74632SOL    HW225730  12.800   7.106   9.274
74633SOL     OW25731  13.458  12.206   8.964
74633SOL    HW125732  13.388  12.140   8.959
74633SOL    HW225733  13.438  12.267   8.893
74634SOL     OW25734   5.908   4.900   1.282
74634SOL    HW125735   5.835   4.875   1.225
74634SOL    HW225736   5.876   4.884   1.371
74635SOL     OW25737  10.403  11.950   8.484
74635SOL    HW125738  10.388  11.941   8.578
74635SOL    HW225739  10.316  11.936   8.445
74636SOL     OW25740  13.291   0.031   3.861
74636SOL    HW125741  13.234   0.096   3.902
74636SOL    HW225742  13.318  14.852   3.932
74637SOL     OW25743   5.977   8.744  13.239
74637SOL    HW125744   5.907   8.787  13.189
74637SOL    HW225745   5.966   8.651  13.219
74638SOL     OW25746  11.267  12.232  10.852
74638SOL    HW125747  11.354  12.262  10.876
74638SOL    HW225748  11.222  12.218  10.936
74639SOL     OW25749  13.359   3.137   8.469
74639SOL    HW125750  13.349   3.104   8.380
74639SOL    HW225751  13.361   3.057   8.523
74640SOL     OW25752  13.652  12.784   3.194
74640SOL    HW125753  13.629  12.826   3.277
74640SOL    HW225754  13.666  12.692   3.217
74641SOL     OW25755  10.017   6.376   5.487
74641SOL    HW125756   9.993   6.361   5.579
74641SOL    HW225757  10.112   6.359   5.485
74642SOL     OW25758  11.990  10.881  14.567
74642SOL    HW125759  12.023  10.797  14.601
74642SOL    HW225760  11.997  10.873  14.472
74643SOL     OW25761  10.426  13.576  10.499
74643SOL    HW125762  10.387  13.495  10.532
74643SOL    HW225763  10.373  13.646  10.536
74644SOL     OW25764   4.850  12.881  12.308
74644SOL    HW125765   4.934  12.927  12.306
74644SOL    HW225766   4.802  12.916  12.233
74645SOL     OW25767   7.125   8.777  10.167
74645SOL    HW125768   7.205   8.733  10.138
74645SOL    HW225769   7.126   8.766  10.263
74646SOL     OW25770   6.565  11.923   8.978
74646SOL    HW125771   6.641  11.967   9.015
74646SOL    HW225772   6.503  11.994   8.961
74647SOL     OW25773   4.258  10.184  14.641
74647SOL    HW125774   4.251  10.090  14.623
74647SOL    HW225775   4.214  10.196  14.725
74648SOL     OW25776   3.326   7.841   2.703
74648SOL    HW125777   3.415   7.804   2.705
74648SOL    HW225778   3.339   7.935   2.710
74649SOL     OW25779  10.512  11.494  10.207
74649SOL    HW125780  10.560  11.422  10.250
74649SOL    HW225781  10.470  11.541  10.279
74650SOL     OW25782  14.810  12.082  11.167
74650SOL    HW125783  14.734  12.025  11.179
74650SOL    HW225784  14.876  12.045  11.227
74651SOL     OW25785   3.151   3.689   9.774
74651SOL    HW125786   3.107   3.774   9.771
74651SOL    HW225787   3.209   3.690   9.698
74652SOL     OW25788   7.247   3.376   4.107
74652SOL    HW125789   7.303   3.336   4.173
74652SOL    HW225790   7.283   3.347   4.023
74653SOL     OW25791  14.453   9.101   8.854
74653SOL    HW125792  14.417   9.032   8.797
74653SOL    HW225793  14.500   9.053   8.923
74654SOL     OW25794   7.522   9.602   0.119
74654SOL    HW125795   7.449   9.569   0.066
74654SOL    HW225796   7.544   9.529   0.177
74655SOL     OW25797   0.034  13.871   8.800
74655SOL    HW125798  14.835  13.817   8.804
74655SOL    HW225799   0.050  13.896   8.891
74656SOL     OW25800   5.343  10.246  13.823
74656SOL    HW125801   5.279  10.219  13.758
74656SOL    HW225802   5.304  10.323  13.865
74657SOL     OW25803   0.114   6.128   9.351
74657SOL    HW125804   0.120   6.156   9.442
74657SOL    HW225805   0.121   6.032   9.354
74658SOL     OW25806  11.735  12.146   6.989
74658SOL    HW125807  11.783  12.214   7.037
74658SOL    HW225808  11.688  12.098   7.056
74659SOL     OW25809   2.346  10.857   5.184
74659SOL    HW125810   2.406  10.816   5.247
74659SOL    HW225811   2.273  10.795   5.179
74660SOL     OW25812  11.748   5.967   0.234
74660SOL    HW125813  11.748   5.877   0.267
74660SOL    HW225814  11.832   6.003   0.262
74661SOL     OW25815   2.781   5.817  11.541
74661SOL    HW125816   2.702   5.843  11.493
74661SOL    HW225817   2.852   5.864  11.498
74662SOL     OW25818   8.659   8.881   8.873
74662SOL    HW125819   8.630   8.876   8.782
74662SOL    HW225820   8.670   8.790   8.900
74663SOL     OW25821  10.649   0.506   6.580
74663SOL    HW125822  10.715   0.550   6.526
74663SOL    HW225823  10.648   0.555   6.662
74664SOL     OW25824   2.385  10.321  11.858
74664SOL    HW125825   2.292  10.319  11.883
74664SOL    HW225826   2.402  10.235  11.822
74665SOL     OW25827   5.104  10.211   8.837
74665SOL    HW125828   5.015  10.205   8.803
74665SOL    HW225829   5.119  10.305   8.848
74666SOL     OW25830   7.586   7.329  14.575
74666SOL    HW125831   7.504   7.377  14.565
74666SOL    HW225832   7.615   7.350  14.663
74667SOL     OW25833  10.302  11.957  14.314
74667SOL    HW125834  10.357  11.973  14.390
74667SOL    HW225835  10.222  12.008  14.330
74668SOL     OW25836  14.321   5.162  11.670
74668SOL    HW125837  14.369   5.245  11.667
74668SOL    HW225838  14.389   5.096  11.662
74669SOL     OW25839  13.209   4.312   8.930
74669SOL    HW125840  13.183   4.296   9.021
74669SOL    HW225841  13.211   4.226   8.889
74670SOL     OW25842   2.580   0.677  14.352
74670SOL    HW125843   2.639   0.633  14.292
74670SOL    HW225844   2.552   0.608  14.413
74671SOL     OW25845   4.352  10.114  13.419
74671SOL    HW125846   4.447  10.118  13.429
74671SOL    HW225847   4.320  10.194  13.461
74672SOL     OW25848   9.466   9.740  13.751
74672SOL    HW125849   9.422   9.736  13.666
74672SOL    HW225850   9.401   9.705  13.813
74673SOL     OW25851   9.205   7.381   0.296
74673SOL    HW125852   9.201   7.476   0.305
74673SOL    HW225853   9.232   7.366   0.205
74674SOL     OW25854   7.003   7.637  12.252
74674SOL    HW125855   6.928   7.629  12.193
74674SOL    HW225856   7.006   7.730  12.275
74675SOL     OW25857   1.274  11.279  14.374
74675SOL    HW125858   1.324  11.254  14.452
74675SOL    HW225859   1.200  11.329  14.408
74676SOL     OW25860  10.049  12.206   0.901
74676SOL    HW125861  10.045  12.117   0.866
74676SOL    HW225862  10.128  12.207   0.955
74677SOL     OW25863  11.387   5.371   4.744
74677SOL    HW125864  11.443   5.313   4.795
74677SOL    HW225865  11.385   5.332   4.656
74678SOL     OW25866  12.924   7.722   6.005
74678SOL    HW125867  12.861   7.734   6.076
74678SOL    HW225868  12.911   7.631   5.976
74679SOL     OW25869   0.643   5.798   7.252
74679SOL    HW125870   0.711   5.809   7.318
74679SOL    HW225871   0.640   5.704   7.237
74680SOL     OW25872  12.282  11.404  13.260
74680SOL    HW125873  12.313  11.493  13.279
74680SOL    HW225874  12.271  11.403  13.165
74681SOL     OW25875   8.079   2.529   9.526
74681SOL    HW125876   8.005   2.533   9.464
74681SOL    HW225877   8.051   2.582   9.600
74682SOL     OW25878  11.372   6.986   7.462
74682SOL    HW125879  11.385   7.075   7.432
74682SOL    HW225880  11.345   6.995   7.554
74683SOL     OW25881   5.659   0.487  14.506
74683SOL    HW125882   5.638   0.395  14.492
74683SOL    HW225883   5.647   0.500  14.600
74684SOL     OW25884  14.256  11.043   2.681
74684SOL    HW125885  14.252  11.010   2.591
74684SOL    HW225886  14.170  11.023   2.718
74685SOL     OW25887  11.148   5.984  12.090
74685SOL    HW125888  11.058   5.998  12.060
74685SOL    HW225889  11.169   5.895  12.063
74686SOL     OW25890   9.263   8.938  11.441
74686SOL    HW125891   9.222   8.933  11.527
74686SOL    HW225892   9.346   8.983  11.456
74687SOL     OW25893   2.454  11.574  13.728
74687SOL    HW125894   2.408  11.592  13.810
74687SOL    HW225895   2.547  11.576  13.751
74688SOL     OW25896   2.691  10.963   0.833
74688SOL    HW125897   2.609  10.931   0.796
74688SOL    HW225898   2.758  10.903   0.799
74689SOL     OW25899   6.626   4.383   9.526
74689SOL    HW125900   6.559   4.450   9.539
74689SOL    HW225901   6.585   4.319   9.468
74690SOL     OW25902   0.630   6.651   9.683
74690SOL    HW125903   0.604   6.668   9.592
74690SOL    HW225904   0.547   6.647   9.731
74691SOL     OW25905   6.620   1.151   3.726
74691SOL    HW125906   6.715   1.135   3.726
74691SOL    HW225907   6.582   1.067   3.699
74692SOL     OW25908  12.590  14.662   3.303
74692SOL    HW125909  12.573  14.592   3.366
74692SOL    HW225910  12.679  14.692   3.324
74693SOL     OW25911  13.807   1.471  13.333
74693SOL    HW125912  13.736   1.447  13.274
74693SOL    HW225913  13.864   1.528  13.281
74694SOL     OW25914   3.814   3.284   6.388
74694SOL    HW125915   3.838   3.292   6.296
74694SOL    HW225916   3.884   3.233   6.428
74695SOL     OW25917   7.841  11.216  14.226
74695SOL    HW125918   7.825  11.297  14.177
74695SOL    HW225919   7.937  11.209  14.229
74696SOL     OW25920   8.478   0.234   7.725
74696SOL    HW125921   8.532   0.220   7.802
74696SOL    HW225922   8.419   0.305   7.749
74697SOL     OW25923   8.837  14.143  11.119
74697SOL    HW125924   8.860  14.213  11.179
74697SOL    HW225925   8.753  14.170  11.081
74698SOL     OW25926   1.590  11.011   2.404
74698SOL    HW125927   1.581  10.929   2.355
74698SOL    HW225928   1.545  10.996   2.487
74699SOL     OW25929  13.550   6.607   2.570
74699SOL    HW125930  13.531   6.701   2.576
74699SOL    HW225931  13.625   6.594   2.628
74700SOL     OW25932  10.314   2.823  12.362
74700SOL    HW125933  10.300   2.896  12.423
74700SOL    HW225934  10.285   2.746  12.411
74701SOL     OW25935  11.265   9.827  12.801
74701SOL    HW125936  11.320   9.748  12.797
74701SOL    HW225937  11.306   9.880  12.870
74702SOL     OW25938  10.202  13.400   1.342
74702SOL    HW125939  10.296  13.384   1.350
74702SOL    HW225940  10.194  13.496   1.340
74703SOL     OW25941  14.548   7.137   9.828
74703SOL    HW125942  14.637   7.154   9.798
74703SOL    HW225943  14.541   7.041   9.827
74704SOL     OW25944  13.969   9.025  12.214
74704SOL    HW125945  14.032   8.955  12.229
74704SOL    HW225946  14.008   9.102  12.255
74705SOL     OW25947   9.502   9.045   2.420
74705SOL    HW125948   9.484   9.110   2.488
74705SOL    HW225949   9.416   9.021   2.385
74706SOL     OW25950   7.467   0.683   3.321
74706SOL    HW125951   7.472   0.681   3.416
74706SOL    HW225952   7.392   0.627   3.299
74707SOL     OW25953   2.452   1.082  13.013
74707SOL    HW125954   2.512   1.077  13.087
74707SOL    HW225955   2.508   1.076  12.936
74708SOL     OW25956   9.111  14.711  11.789
74708SOL    HW125957   9.034  14.731  11.842
74708SOL    HW225958   9.153  14.638  11.834
74709SOL     OW25959  14.870   7.083   8.406
74709SOL    HW125960  14.785   7.080   8.450
74709SOL    HW225961   0.040   7.150   8.455
74710SOL     OW25962   6.909  13.242   1.118
74710SOL    HW125963   6.938  13.321   1.165
74710SOL    HW225964   6.882  13.274   1.032
74711SOL     OW25965   0.729   4.788   3.350
74711SOL    HW125966   0.690   4.710   3.311
74711SOL    HW225967   0.803   4.754   3.402
74712SOL     OW25968   5.384   0.178   1.620
74712SOL    HW125969   5.305   0.173   1.566
74712SOL    HW225970   5.376   0.104   1.680
74713SOL     OW25971  14.107   2.100   5.270
74713SOL    HW125972  14.067   2.173   5.224
74713SOL    HW225973  14.034   2.056   5.314
74714SOL     OW25974   9.803  10.365   5.531
74714SOL    HW125975   9.862  10.440   5.523
74714SOL    HW225976   9.733  10.383   5.468
74715SOL     OW25977  10.529   7.452  14.777
74715SOL    HW125978  10.506   7.511  14.705
74715SOL    HW225979  10.465   7.472  14.845
74716SOL     OW25980   0.159   6.095   7.525
74716SOL    HW125981   0.189   6.013   7.564
74716SOL    HW225982   0.234   6.126   7.474
74717SOL     OW25983  14.294   2.285   5.859
74717SOL    HW125984  14.267   2.367   5.818
74717SOL    HW225985  14.384   2.302   5.888
74718SOL     OW25986   3.398  14.705  13.344
74718SOL    HW125987   3.336  14.712  13.272
74718SOL    HW225988   3.448  14.625  13.325
74719SOL     OW25989   8.941   0.372   6.914
74719SOL    HW125990   8.973   0.433   6.847
74719SOL    HW225991   9.011   0.369   6.979
74720SOL     OW25992   5.156   5.236   3.893
74720SOL    HW125993   5.113   5.153   3.873
74720SOL    HW225994   5.085   5.297   3.911
74721SOL     OW25995   2.971  10.286  13.063
74721SOL    HW125996   2.999  10.302  12.973
74721SOL    HW225997   2.906  10.216  13.056
74722SOL     OW25998  13.642  13.459   0.071
74722SOL    HW125999  13.629  13.443   0.164
74722SOL    HW226000  13.587  13.536   0.052
74723SOL     OW26001   4.120  11.468   2.290
74723SOL    HW126002   4.124  11.374   2.302
74723SOL    HW226003   4.066  11.481   2.212
74724SOL     OW26004   1.926  11.987   0.467
74724SOL    HW126005   1.849  11.933   0.446
74724SOL    HW226006   1.996  11.950   0.414
74725SOL     OW26007   0.397   0.746  11.064
74725SOL    HW126008   0.439   0.676  11.113
74725SOL    HW226009   0.466   0.810  11.049
74726SOL     OW26010   9.770   9.883   6.466
74726SOL    HW126011   9.730   9.834   6.394
74726SOL    HW226012   9.702   9.885   6.534
74727SOL     OW26013   7.295   8.604   1.943
74727SOL    HW126014   7.205   8.592   1.974
74727SOL    HW226015   7.311   8.698   1.950
74728SOL     OW26016   2.474   9.355   8.358
74728SOL    HW126017   2.397   9.410   8.346
74728SOL    HW226018   2.504   9.376   8.447
74729SOL     OW26019   7.066   4.643  11.291
74729SOL    HW126020   7.011   4.706  11.245
74729SOL    HW226021   7.134   4.620  11.227
74730SOL     OW26022   5.795   8.880   1.551
74730SOL    HW126023   5.863   8.847   1.492
74730SOL    HW226024   5.732   8.923   1.493
74731SOL     OW26025   8.800   3.242   4.192
74731SOL    HW126026   8.768   3.154   4.173
74731SOL    HW226027   8.885   3.228   4.235
74732SOL     OW26028   9.693   2.846   8.095
74732SOL    HW126029   9.681   2.815   8.185
74732SOL    HW226030   9.779   2.812   8.069
74733SOL     OW26031  14.022  11.114   0.688
74733SOL    HW126032  14.097  11.172   0.702
74733SOL    HW226033  13.970  11.122   0.768
74734SOL     OW26034  13.749   7.018   2.200
74734SOL    HW126035  13.778   7.109   2.215
74734SOL    HW226036  13.758   7.006   2.106
74735SOL     OW26037   2.477   4.094   3.512
74735SOL    HW126038   2.509   4.133   3.431
74735SOL    HW226039   2.552   4.101   3.572
74736SOL     OW26040   5.841   3.455  14.346
74736SOL    HW126041   5.867   3.411  14.428
74736SOL    HW226042   5.748   3.434  14.336
74737SOL     OW26043   5.143   0.692  11.034
74737SOL    HW126044   5.236   0.680  11.056
74737SOL    HW226045   5.115   0.765  11.088
74738SOL     OW26046   3.176   9.642  13.995
74738SOL    HW126047   3.186   9.548  14.006
74738SOL    HW226048   3.082   9.655  13.983
74739SOL     OW26049  12.667  13.026   5.812
74739SOL    HW126050  12.684  12.938   5.844
74739SOL    HW226051  12.640  13.075   5.890
74740SOL     OW26052   5.023   7.985   7.436
74740SOL    HW126053   5.108   8.027   7.424
74740SOL    HW226054   5.041   7.909   7.492
74741SOL     OW26055  12.447   0.724  10.268
74741SOL    HW126056  12.385   0.771  10.324
74741SOL    HW226057  12.532   0.763  10.288
74742SOL     OW26058  11.504   3.230  14.786
74742SOL    HW126059  11.447   3.285  14.841
74742SOL    HW226060  11.491   3.142  14.820
74743SOL     OW26061   9.671   3.880   0.874
74743SOL    HW126062   9.730   3.927   0.814
74743SOL    HW226063   9.670   3.934   0.953
74744SOL     OW26064  13.298  11.619   9.479
74744SOL    HW126065  13.247  11.644   9.557
74744SOL    HW226066  13.368  11.684   9.475
74745SOL     OW26067   2.198   6.881   1.220
74745SOL    HW126068   2.142   6.946   1.178
74745SOL    HW226069   2.229   6.924   1.299
74746SOL     OW26070   7.609   3.004   8.679
74746SOL    HW126071   7.640   3.008   8.589
74746SOL    HW226072   7.553   3.081   8.689
74747SOL     OW26073   5.456   5.415   7.674
74747SOL    HW126074   5.548   5.406   7.697
74747SOL    HW226075   5.409   5.383   7.752
74748SOL     OW26076   3.706   6.575   4.868
74748SOL    HW126077   3.770   6.646   4.871
74748SOL    HW226078   3.694   6.548   4.959
74749SOL     OW26079   4.449  12.267   4.866
74749SOL    HW126080   4.393  12.288   4.792
74749SOL    HW226081   4.388  12.242   4.936
74750SOL     OW26082   8.714   0.192   1.811
74750SOL    HW126083   8.652   0.252   1.853
74750SOL    HW226084   8.704   0.110   1.859
74751SOL     OW26085   8.146  13.256   5.149
74751SOL    HW126086   8.209  13.315   5.109
74751SOL    HW226087   8.193  13.219   5.224
74752SOL     OW26088   5.838   3.232  10.049
74752SOL    HW126089   5.807   3.142  10.053
74752SOL    HW226090   5.759   3.284  10.032
74753SOL     OW26091   8.971   0.176   3.542
74753SOL    HW126092   8.935   0.131   3.618
74753SOL    HW226093   9.042   0.230   3.578
74754SOL     OW26094   5.401   7.896   7.599
74754SOL    HW126095   5.339   7.953   7.553
74754SOL    HW226096   5.485   7.912   7.555
74755SOL     OW26097  11.654  12.393   6.669
74755SOL    HW126098  11.700  12.309   6.660
74755SOL    HW226099  11.603  12.400   6.588
74756SOL     OW26100   1.356   8.869   6.268
74756SOL    HW126101   1.416   8.934   6.304
74756SOL    HW226102   1.407   8.788   6.266
74757SOL     OW26103  12.972   6.492   3.444
74757SOL    HW126104  13.055   6.450   3.421
74757SOL    HW226105  12.947   6.541   3.366
74758SOL     OW26106   9.993   4.544   5.301
74758SOL    HW126107   9.982   4.527   5.394
74758SOL    HW226108  10.088   4.535   5.285
74759SOL     OW26109  13.279   3.138   7.085
74759SOL    HW126110  13.200   3.088   7.064
74759SOL    HW226111  13.316   3.094   7.162
74760SOL     OW26112   1.763   5.644   7.745
74760SOL    HW126113   1.733   5.571   7.690
74760SOL    HW226114   1.733   5.621   7.833
74761SOL     OW26115  13.536  11.925   9.231
74761SOL    HW126116  13.490  11.908   9.148
74761SOL    HW226117  13.564  12.016   9.225
74762SOL     OW26118  14.817  10.672  12.920
74762SOL    HW126119  14.746  10.676  12.857
74762SOL    HW226120  14.789  10.607  12.984
74763SOL     OW26121   3.065   4.295   4.103
74763SOL    HW126122   3.082   4.357   4.174
74763SOL    HW226123   3.119   4.219   4.124
74764SOL     OW26124   6.866   9.508   9.358
74764SOL    HW126125   6.850   9.570   9.429
74764SOL    HW226126   6.890   9.427   9.403
74765SOL     OW26127   6.707   9.329  11.866
74765SOL    HW126128   6.679   9.369  11.784
74765SOL    HW226129   6.633   9.340  11.925
74766SOL     OW26130   9.372  12.810  10.928
74766SOL    HW126131   9.295  12.829  10.873
74766SOL    HW226132   9.335  12.774  11.009
74767SOL     OW26133   2.763   2.162  10.359
74767SOL    HW126134   2.687   2.106  10.344
74767SOL    HW226135   2.760   2.226  10.288
74768SOL     OW26136   9.153   1.096   9.720
74768SOL    HW126137   9.099   1.048   9.783
74768SOL    HW226138   9.130   1.188   9.733
74769SOL     OW26139  14.028  11.627  12.491
74769SOL    HW126140  14.078  11.675  12.425
74769SOL    HW226141  14.088  11.560  12.523
74770SOL     OW26142  14.223  11.671   7.718
74770SOL    HW126143  14.307  11.716   7.718
74770SOL    HW226144  14.177  11.705   7.795
74771SOL     OW26145   2.417  14.645   9.798
74771SOL    HW126146   2.426  14.661   9.892
74771SOL    HW226147   2.390  14.554   9.791
74772SOL     OW26148   2.450   0.075   8.931
74772SOL    HW126149   2.477  14.874   8.976
74772SOL    HW226150   2.475   0.146   8.990
74773SOL     OW26151   1.385  11.615   8.052
74773SOL    HW126152   1.433  11.532   8.051
74773SOL    HW226153   1.453  11.681   8.067
74774SOL     OW26154   9.185   7.492   3.861
74774SOL    HW126155   9.218   7.546   3.789
74774SOL    HW226156   9.103   7.455   3.827
74775SOL     OW26157   5.052   8.807  13.780
74775SOL    HW126158   5.112   8.828  13.852
74775SOL    HW226159   4.992   8.882  13.777
74776SOL     OW26160  12.237  12.860   0.028
74776SOL    HW126161  12.221  12.767   0.039
74776SOL    HW226162  12.210  12.899   0.112
74777SOL     OW26163   1.849   5.492   5.354
74777SOL    HW126164   1.799   5.505   5.274
74777SOL    HW226165   1.919   5.557   5.350
74778SOL     OW26166  11.774   7.792   0.129
74778SOL    HW126167  11.805   7.734   0.059
74778SOL    HW226168  11.680   7.778   0.131
74779SOL     OW26169   3.095  10.385   8.421
74779SOL    HW126170   3.082  10.385   8.326
74779SOL    HW226171   3.132  10.299   8.440
74780SOL     OW26172   9.194   3.909   1.476
74780SOL    HW126173   9.143   3.936   1.553
74780SOL    HW226174   9.267   3.971   1.474
74781SOL     OW26175  12.540   9.583  11.712
74781SOL    HW126176  12.473   9.515  11.703
74781SOL    HW226177  12.545   9.624  11.625
74782SOL     OW26178   1.084   3.564   0.935
74782SOL    HW126179   1.058   3.532   0.849
74782SOL    HW226180   1.008   3.615   0.964
74783SOL     OW26181   2.681   0.821   6.348
74783SOL    HW126182   2.590   0.834   6.320
74783SOL    HW226183   2.697   0.728   6.335
74784SOL     OW26184   0.118  10.110   8.773
74784SOL    HW126185   0.087  10.048   8.706
74784SOL    HW226186   0.045  10.169   8.787
74785SOL     OW26187   4.849   5.814   1.725
74785SOL    HW126188   4.855   5.741   1.787
74785SOL    HW226189   4.935   5.817   1.683
74786SOL     OW26190   5.950   2.078   5.395
74786SOL    HW126191   6.014   2.033   5.450
74786SOL    HW226192   5.938   2.020   5.320
74787SOL     OW26193  11.336   7.195   2.707
74787SOL    HW126194  11.388   7.265   2.746
74787SOL    HW226195  11.396   7.152   2.646
74788SOL     OW26196   7.745   3.129  10.444
74788SOL    HW126197   7.690   3.059  10.410
74788SOL    HW226198   7.758   3.189  10.370
74789SOL     OW26199   4.756   1.882   2.935
74789SOL    HW126200   4.810   1.873   2.857
74789SOL    HW226201   4.810   1.850   3.007
74790SOL     OW26202   7.469  12.015   5.069
74790SOL    HW126203   7.471  12.097   5.021
74790SOL    HW226204   7.534  11.960   5.026
74791SOL     OW26205  10.305  12.171   0.672
74791SOL    HW126206  10.367  12.103   0.646
74791SOL    HW226207  10.269  12.140   0.756
74792SOL     OW26208  11.385  13.811  12.817
74792SOL    HW126209  11.308  13.754  12.826
74792SOL    HW226210  11.459  13.752  12.828
74793SOL     OW26211   0.662  13.158  12.911
74793SOL    HW126212   0.644  13.182  12.820
74793SOL    HW226213   0.756  13.139  12.912
74794SOL     OW26214   0.790  12.503   2.589
74794SOL    HW126215   0.701  12.506   2.554
74794SOL    HW226216   0.778  12.498   2.684
74795SOL     OW26217   3.356   3.717  10.885
74795SOL    HW126218   3.377   3.740  10.975
74795SOL    HW226219   3.357   3.801  10.838
74796SOL     OW26220   9.684   6.027   7.572
74796SOL    HW126221   9.726   5.951   7.532
74796SOL    HW226222   9.721   6.102   7.526
74797SOL     OW26223  11.285  13.995  14.332
74797SOL    HW126224  11.199  14.022  14.365
74797SOL    HW226225  11.304  13.914  14.379
74798SOL     OW26226   1.603   4.316  11.467
74798SOL    HW126227   1.559   4.379  11.524
74798SOL    HW226228   1.683   4.362  11.440
74799SOL     OW26229   4.772   6.848   5.811
74799SOL    HW126230   4.737   6.887   5.731
74799SOL    HW226231   4.852   6.803   5.783
74800SOL     OW26232   3.260   0.478   8.793
74800SOL    HW126233   3.336   0.477   8.851
74800SOL    HW226234   3.199   0.415   8.832
74801SOL     OW26235   3.681   9.093  12.331
74801SOL    HW126236   3.677   9.167  12.270
74801SOL    HW226237   3.766   9.103  12.375
74802SOL     OW26238   9.349  13.826  10.318
74802SOL    HW126239   9.283  13.880  10.274
74802SOL    HW226240   9.346  13.853  10.409
74803SOL     OW26241   5.558   4.145   1.257
74803SOL    HW126242   5.628   4.175   1.199
74803SOL    HW226243   5.486   4.123   1.198
74804SOL     OW26244  13.275   6.263   3.714
74804SOL    HW126245  13.247   6.342   3.761
74804SOL    HW226246  13.247   6.278   3.624
74805SOL     OW26247   5.666  11.108   4.841
74805SOL    HW126248   5.662  11.079   4.750
74805SOL    HW226249   5.710  11.036   4.887
74806SOL     OW26250  10.279   8.543   2.415
74806SOL    HW126251  10.198   8.583   2.383
74806SOL    HW226252  10.331   8.528   2.336
74807SOL     OW26253   9.937   0.741   4.556
74807SOL    HW126254   9.986   0.821   4.534
74807SOL    HW226255   9.903   0.758   4.644
74808SOL     OW26256   9.564   2.034   2.271
74808SOL    HW126257   9.498   2.088   2.227
74808SOL    HW226258   9.513   1.980   2.331
74809SOL     OW26259  11.039   5.434  13.047
74809SOL    HW126260  10.987   5.354  13.051
74809SOL    HW226261  11.109   5.414  12.984
74810SOL     OW26262   5.896   9.192  12.632
74810SOL    HW126263   5.915   9.271  12.683
74810SOL    HW226264   5.928   9.212  12.544
74811SOL     OW26265   1.540   3.253   8.482
74811SOL    HW126266   1.561   3.168   8.445
74811SOL    HW226267   1.552   3.243   8.576
74812SOL     OW26268   3.252  10.157  11.199
74812SOL    HW126269   3.211  10.237  11.166
74812SOL    HW226270   3.251  10.167  11.294
74813SOL     OW26271   4.225   9.464   6.889
74813SOL    HW126272   4.174   9.425   6.818
74813SOL    HW226273   4.222   9.558   6.871
74814SOL     OW26274   4.188  14.285  12.003
74814SOL    HW126275   4.119  14.323  12.058
74814SOL    HW226276   4.202  14.350  11.934
74815SOL     OW26277  10.177  14.809  14.303
74815SOL    HW126278  10.255  14.802  14.357
74815SOL    HW226279  10.107  14.768  14.354
74816SOL     OW26280   4.624   2.618   4.458
74816SOL    HW126281   4.661   2.531   4.474
74816SOL    HW226282   4.693   2.678   4.482
74817SOL     OW26283  12.042  12.425   7.379
74817SOL    HW126284  12.048  12.520   7.387
74817SOL    HW226285  12.093  12.405   7.301
74818SOL     OW26286   2.698   7.598   3.677
74818SOL    HW126287   2.648   7.532   3.724
74818SOL    HW226288   2.644   7.677   3.682
74819SOL     OW26289  13.845   6.797  10.464
74819SOL    HW126290  13.783   6.797  10.536
74819SOL    HW226291  13.837   6.885  10.425
74820SOL     OW26292   2.679   3.838   0.832
74820SOL    HW126293   2.727   3.826   0.913
74820SOL    HW226294   2.678   3.933   0.818
74821SOL     OW26295   8.532   7.411   8.050
74821SOL    HW126296   8.565   7.334   8.097
74821SOL    HW226297   8.440   7.418   8.077
74822SOL     OW26298   9.441   6.931  12.395
74822SOL    HW126299   9.418   6.858  12.452
74822SOL    HW226300   9.490   6.891  12.323
74823SOL     OW26301   6.251   7.014   5.926
74823SOL    HW126302   6.307   7.059   5.863
74823SOL    HW226303   6.178   7.074   5.941
74824SOL     OW26304   7.675   1.278   7.562
74824SOL    HW126305   7.701   1.252   7.474
74824SOL    HW226306   7.735   1.229   7.619
74825SOL     OW26307  13.358   5.440   7.515
74825SOL    HW126308  13.352   5.346   7.504
74825SOL    HW226309  13.276   5.474   7.481
74826SOL     OW26310   0.346  14.421   6.920
74826SOL    HW126311   0.392  14.504   6.934
74826SOL    HW226312   0.255  14.447   6.905
74827SOL     OW26313  10.088   6.256   0.994
74827SOL    HW126314  10.073   6.162   0.998
74827SOL    HW226315  10.001   6.295   0.996
74828SOL     OW26316   6.892  10.680   7.992
74828SOL    HW126317   6.859  10.640   7.911
74828SOL    HW226318   6.919  10.605   8.045
74829SOL     OW26319  12.114   5.416  14.266
74829SOL    HW126320  12.140   5.496  14.311
74829SOL    HW226321  12.190   5.393  14.212
74830SOL     OW26322   6.786   5.313   1.877
74830SOL    HW126323   6.733   5.271   1.945
74830SOL    HW226324   6.738   5.393   1.855
74831SOL     OW26325   2.034   6.122   5.480
74831SOL    HW126326   2.055   6.030   5.494
74831SOL    HW226327   2.118   6.163   5.459
74832SOL     OW26328   9.225   7.876   7.468
74832SOL    HW126329   9.146   7.904   7.423
74832SOL    HW226330   9.262   7.808   7.412
74833SOL     OW26331  13.771   5.145   5.002
74833SOL    HW126332  13.789   5.124   4.910
74833SOL    HW226333  13.840   5.100   5.050
74834SOL     OW26334  10.613   9.876  13.249
74834SOL    HW126335  10.573   9.880  13.335
74834SOL    HW226336  10.575   9.798  13.208
74835SOL     OW26337   3.581   0.906   5.224
74835SOL    HW126338   3.497   0.951   5.227
74835SOL    HW226339   3.592   0.881   5.133
74836SOL     OW26340   1.527   1.244  12.670
74836SOL    HW126341   1.439   1.281  12.661
74836SOL    HW226342   1.583   1.319  12.687
74837SOL     OW26343   1.477   7.028   1.705
74837SOL    HW126344   1.427   6.984   1.774
74837SOL    HW226345   1.467   7.121   1.724
74838SOL     OW26346   3.998   1.134  10.168
74838SOL    HW126347   4.052   1.196  10.119
74838SOL    HW226348   4.025   1.145  10.259
74839SOL     OW26349   7.408  11.813   9.150
74839SOL    HW126350   7.386  11.814   9.243
74839SOL    HW226351   7.352  11.880   9.112
74840SOL     OW26352   5.184  11.713   0.350
74840SOL    HW126353   5.154  11.798   0.382
74840SOL    HW226354   5.198  11.726   0.257
74841SOL     OW26355   1.169   5.619  14.016
74841SOL    HW126356   1.157   5.699  14.066
74841SOL    HW226357   1.261   5.595  14.031
74842SOL     OW26358   9.167  10.198  10.863
74842SOL    HW126359   9.132  10.201  10.952
74842SOL    HW226360   9.096  10.161  10.811
74843SOL     OW26361   8.574   2.063   8.824
74843SOL    HW126362   8.603   2.148   8.791
74843SOL    HW226363   8.629   2.047   8.901
74844SOL     OW26364   9.761   4.921  13.680
74844SOL    HW126365   9.754   4.986  13.610
74844SOL    HW226366   9.774   4.838  13.635
74845SOL     OW26367  11.790  12.243   3.261
74845SOL    HW126368  11.741  12.175   3.307
74845SOL    HW226369  11.724  12.307   3.235
74846SOL     OW26370  13.805   6.194  10.933
74846SOL    HW126371  13.713   6.169  10.926
74846SOL    HW226372  13.809   6.246  11.014
74847SOL     OW26373   9.013  10.742   3.692
74847SOL    HW126374   9.033  10.690   3.770
74847SOL    HW226375   8.978  10.679   3.629
74848SOL     OW26376   1.159  10.257   4.804
74848SOL    HW126377   1.096  10.240   4.734
74848SOL    HW226378   1.144  10.187   4.868
74849SOL     OW26379  10.340   2.112   3.363
74849SOL    HW126380  10.335   2.069   3.448
74849SOL    HW226381  10.410   2.176   3.371
74850SOL     OW26382   7.648  14.648   1.566
74850SOL    HW126383   7.659  14.723   1.508
74850SOL    HW226384   7.685  14.676   1.649
74851SOL     OW26385  14.848   9.784   2.989
74851SOL    HW126386   0.032   9.857   2.983
74851SOL    HW226387   0.001   9.731   3.063
74852SOL     OW26388   8.124  11.181  10.997
74852SOL    HW126389   8.043  11.203  11.043
74852SOL    HW226390   8.178  11.259  11.006
74853SOL     OW26391   3.403   4.542   5.724
74853SOL    HW126392   3.408   4.593   5.805
74853SOL    HW226393   3.466   4.583   5.665
74854SOL     OW26394  11.475  12.377   1.397
74854SOL    HW126395  11.436  12.315   1.334
74854SOL    HW226396  11.526  12.322   1.456
74855SOL     OW26397  12.848   4.209   7.236
74855SOL    HW126398  12.827   4.253   7.319
74855SOL    HW226399  12.856   4.117   7.260
74856SOL     OW26400   7.118   0.622  13.613
74856SOL    HW126401   7.093   0.540  13.656
74856SOL    HW226402   7.147   0.596  13.526
74857SOL     OW26403   4.745   7.701  14.546
74857SOL    HW126404   4.780   7.731  14.630
74857SOL    HW226405   4.682   7.633  14.570
74858SOL     OW26406   0.251  11.136   5.301
74858SOL    HW126407   0.323  11.085   5.337
74858SOL    HW226408   0.293  11.205   5.251
74859SOL     OW26409  11.964   1.125   4.572
74859SOL    HW126410  11.997   1.045   4.613
74859SOL    HW226411  11.894   1.095   4.514
74860SOL     OW26412   5.193   7.293   5.209
74860SOL    HW126413   5.272   7.275   5.157
74860SOL    HW226414   5.175   7.211   5.254
74861SOL     OW26415   5.846   9.760  13.446
74861SOL    HW126416   5.826   9.685  13.503
74861SOL    HW226417   5.762   9.784  13.407
74862SOL     OW26418   5.328  13.735  13.597
74862SOL    HW126419   5.233  13.748  13.590
74862SOL    HW226420   5.365  13.820  13.573
74863SOL     OW26421  13.019   9.817   0.666
74863SOL    HW126422  13.060   9.900   0.689
74863SOL    HW226423  12.929   9.825   0.695
74864SOL     OW26424   6.893  10.438  11.604
74864SOL    HW126425   6.821  10.466  11.660
74864SOL    HW226426   6.886  10.493  11.526
74865SOL     OW26427   2.307  11.731   9.078
74865SOL    HW126428   2.276  11.796   9.015
74865SOL    HW226429   2.262  11.650   9.054
74866SOL     OW26430  12.277  14.481   2.171
74866SOL    HW126431  12.182  14.485   2.162
74866SOL    HW226432  12.311  14.542   2.105
74867SOL     OW26433  14.242   5.339  11.457
74867SOL    HW126434  14.174   5.274  11.448
74867SOL    HW226435  14.320   5.299  11.418
74868SOL     OW26436  13.294   7.940  12.473
74868SOL    HW126437  13.342   7.885  12.535
74868SOL    HW226438  13.345   7.935  12.392
74869SOL     OW26439   0.704   9.697   6.126
74869SOL    HW126440   0.781   9.676   6.074
74869SOL    HW226441   0.647   9.621   6.115
74870SOL     OW26442  14.597   7.141  10.190
74870SOL    HW126443  14.530   7.083  10.153
74870SOL    HW226444  14.550   7.198  10.250
74871SOL     OW26445   8.597  14.508   2.190
74871SOL    HW126446   8.624  14.556   2.112
74871SOL    HW226447   8.580  14.419   2.160
74872SOL     OW26448   9.581   0.155  11.257
74872SOL    HW126449   9.670   0.120  11.266
74872SOL    HW226450   9.556   0.180  11.346
74873SOL     OW26451   1.081  12.510   7.962
74873SOL    HW126452   1.105  12.579   7.899
74873SOL    HW226453   1.164  12.480   7.998
74874SOL     OW26454   9.122   6.374  11.044
74874SOL    HW126455   9.181   6.437  11.085
74874SOL    HW226456   9.179   6.323  10.986
74875SOL     OW26457   1.404   1.784   2.308
74875SOL    HW126458   1.499   1.775   2.314
74875SOL    HW226459   1.390   1.863   2.256
74876SOL     OW26460   5.796  11.650  14.040
74876SOL    HW126461   5.809  11.588  14.113
74876SOL    HW226462   5.777  11.595  13.965
74877SOL     OW26463  13.165  14.695   7.680
74877SOL    HW126464  13.189  14.758   7.748
74877SOL    HW226465  13.216  14.721   7.603
74878SOL     OW26466  10.080   1.139   5.305
74878SOL    HW126467  10.135   1.217   5.292
74878SOL    HW226468  10.084   1.123   5.399
74879SOL     OW26469   1.303  14.797  12.251
74879SOL    HW126470   1.332   0.005  12.222
74879SOL    HW226471   1.233  14.815  12.314
74880SOL     OW26472  12.864  12.660  12.324
74880SOL    HW126473  12.919  12.603  12.269
74880SOL    HW226474  12.785  12.675  12.272
74881SOL     OW26475   2.046   6.912   8.539
74881SOL    HW126476   2.043   7.008   8.540
74881SOL    HW226477   1.963   6.886   8.500
74882SOL     OW26478   6.250   9.072   0.267
74882SOL    HW126479   6.277   8.981   0.281
74882SOL    HW226480   6.156   9.071   0.282
74883SOL     OW26481   1.568  13.294   8.866
74883SOL    HW126482   1.657  13.295   8.831
74883SOL    HW226483   1.537  13.205   8.852
74884SOL     OW26484  11.524   1.010   5.048
74884SOL    HW126485  11.493   0.927   5.083
74884SOL    HW226486  11.619   1.003   5.049
74885SOL     OW26487  12.813  12.296  13.889
74885SOL    HW126488  12.791  12.305  13.981
74885SOL    HW226489  12.737  12.334  13.843
74886SOL     OW26490  10.380   5.970  12.573
74886SOL    HW126491  10.474   5.982  12.563
74886SOL    HW226492  10.349   5.946  12.486
74887SOL     OW26493   7.238   4.639   8.220
74887SOL    HW126494   7.323   4.649   8.177
74887SOL    HW226495   7.230   4.717   8.275
74888SOL     OW26496   0.947  10.280   4.611
74888SOL    HW126497   0.987  10.361   4.582
74888SOL    HW226498   0.944  10.224   4.533
74889SOL     OW26499  12.160   7.618  13.476
74889SOL    HW126500  12.167   7.711  13.499
74889SOL    HW226501  12.171   7.617  13.381
74890SOL     OW26502  12.913   8.155   3.794
74890SOL    HW126503  12.839   8.152   3.855
74890SOL    HW226504  12.912   8.244   3.759
74891SOL     OW26505  10.283  12.978   8.146
74891SOL    HW126506  10.249  12.989   8.057
74891SOL    HW226507  10.340  12.901   8.140
74892SOL     OW26508  12.098   5.221   0.552
74892SOL    HW126509  12.010   5.189   0.534
74892SOL    HW226510  12.111   5.205   0.645
74893SOL     OW26511   9.079  13.570  11.808
74893SOL    HW126512   9.044  13.631  11.874
74893SOL    HW226513   9.092  13.488  11.856
74894SOL     OW26514   7.208  10.186   7.183
74894SOL    HW126515   7.177  10.099   7.209
74894SOL    HW226516   7.300  10.188   7.211
74895SOL     OW26517   6.056  13.321   5.713
74895SOL    HW126518   6.030  13.347   5.625
74895SOL    HW226519   6.137  13.271   5.701
74896SOL     OW26520   7.873   3.707   2.568
74896SOL    HW126521   7.782   3.737   2.570
74896SOL    HW226522   7.921   3.778   2.525
74897SOL     OW26523   3.333   8.909  13.228
74897SOL    HW126524   3.331   8.882  13.136
74897SOL    HW226525   3.243   8.896  13.258
74898SOL     OW26526  14.237  14.826   8.911
74898SOL    HW126527  14.168  14.826   8.845
74898SOL    HW226528  14.201  14.772   8.982
74899SOL     OW26529  10.982   0.808  12.714
74899SOL    HW126530  10.904   0.819  12.769
74899SOL    HW226531  11.051   0.858  12.759
74900SOL     OW26532   3.209   6.021   3.134
74900SOL    HW126533   3.235   5.975   3.054
74900SOL    HW226534   3.288   6.023   3.187
74901SOL     OW26535   6.450   3.493  13.289
74901SOL    HW126536   6.392   3.563  13.259
74901SOL    HW226537   6.507   3.476  13.214
74902SOL     OW26538  12.743  10.683   9.616
74902SOL    HW126539  12.751  10.677   9.521
74902SOL    HW226540  12.650  10.696   9.632
74903SOL     OW26541   8.311  14.824   8.681
74903SOL    HW126542   8.291  14.871   8.599
74903SOL    HW226543   8.341  14.738   8.652
74904SOL     OW26544  12.509   3.500  11.979
74904SOL    HW126545  12.600   3.515  11.952
74904SOL    HW226546  12.516   3.470  12.069
74905SOL     OW26547   2.740   2.066  14.541
74905SOL    HW126548   2.697   1.989  14.503
74905SOL    HW226549   2.679   2.138  14.523
74906SOL     OW26550   3.377   8.722   2.625
74906SOL    HW126551   3.425   8.686   2.551
74906SOL    HW226552   3.344   8.806   2.593
74907SOL     OW26553   4.409   4.819   2.917
74907SOL    HW126554   4.343   4.766   2.874
74907SOL    HW226555   4.395   4.804   3.010
74908SOL     OW26556   4.508   9.271   0.313
74908SOL    HW126557   4.506   9.236   0.224
74908SOL    HW226558   4.433   9.330   0.318
74909SOL     OW26559  12.947   6.519   5.239
74909SOL    HW126560  12.983   6.597   5.281
74909SOL    HW226561  12.855   6.539   5.225
74910SOL     OW26562  13.984   5.115   0.179
74910SOL    HW126563  14.046   5.108   0.106
74910SOL    HW226564  13.908   5.160   0.142
74911SOL     OW26565   1.361  14.009   0.718
74911SOL    HW126566   1.356  13.913   0.719
74911SOL    HW226567   1.431  14.029   0.781
74912SOL     OW26568  10.188   5.793   2.024
74912SOL    HW126569  10.244   5.815   1.950
74912SOL    HW226570  10.145   5.875   2.048
74913SOL     OW26571   2.665   9.579   5.044
74913SOL    HW126572   2.616   9.498   5.029
74913SOL    HW226573   2.598   9.645   5.059
74914SOL     OW26574   2.264  14.263   5.364
74914SOL    HW126575   2.305  14.198   5.308
74914SOL    HW226576   2.226  14.327   5.304
74915SOL     OW26577  13.743  11.706   7.815
74915SOL    HW126578  13.721  11.768   7.884
74915SOL    HW226579  13.793  11.638   7.860
74916SOL     OW26580   3.087  12.648   1.418
74916SOL    HW126581   3.112  12.556   1.418
74916SOL    HW226582   3.125  12.684   1.499
74917SOL     OW26583   5.147   7.250   0.241
74917SOL    HW126584   5.107   7.239   0.155
74917SOL    HW226585   5.233   7.288   0.222
74918SOL     OW26586  13.716  14.571   3.626
74918SOL    HW126587  13.793  14.551   3.678
74918SOL    HW226588  13.681  14.485   3.601
74919SOL     OW26589  13.904  11.589   2.932
74919SOL    HW126590  13.850  11.650   2.882
74919SOL    HW226591  13.842  11.547   2.993
74920SOL     OW26592   8.383   3.423  11.820
74920SOL    HW126593   8.461   3.455  11.775
74920SOL    HW226594   8.381   3.473  11.902
74921SOL     OW26595   4.600   9.966   5.628
74921SOL    HW126596   4.600   9.931   5.539
74921SOL    HW226597   4.585   9.890   5.684
74922SOL     OW26598   3.877   3.097  11.814
74922SOL    HW126599   3.918   3.172  11.771
74922SOL    HW226600   3.951   3.047  11.849
74923SOL     OW26601  12.609   6.164   7.694
74923SOL    HW126602  12.627   6.070   7.696
74923SOL    HW226603  12.557   6.177   7.615
74924SOL     OW26604   4.766   7.544   6.447
74924SOL    HW126605   4.686   7.554   6.500
74924SOL    HW226606   4.790   7.634   6.424
74925SOL     OW26607  10.221  14.046   9.476
74925SOL    HW126608  10.253  14.127   9.517
74925SOL    HW226609  10.188  13.994   9.549
74926SOL     OW26610   9.165  10.822   0.259
74926SOL    HW126611   9.225  10.839   0.331
74926SOL    HW226612   9.084  10.867   0.283
74927SOL     OW26613   2.515  10.926   8.242
74927SOL    HW126614   2.573  10.926   8.166
74927SOL    HW226615   2.474  10.840   8.241
74928SOL     OW26616   6.012   5.974  13.048
74928SOL    HW126617   6.029   5.954  13.140
74928SOL    HW226618   6.007   6.070  13.045
74929SOL     OW26619  13.244   3.611   3.098
74929SOL    HW126620  13.293   3.659   3.030
74929SOL    HW226621  13.175   3.672   3.125
74930SOL     OW26622   1.939  13.019  10.028
74930SOL    HW126623   1.875  13.063  10.084
74930SOL    HW226624   1.954  13.080   9.956
74931SOL     OW26625   7.806   5.002   1.550
74931SOL    HW126626   7.711   5.003   1.555
74931SOL    HW226627   7.830   5.087   1.513
74932SOL     OW26628  13.419  14.438  11.779
74932SOL    HW126629  13.454  14.429  11.690
74932SOL    HW226630  13.359  14.513  11.773
74933SOL     OW26631   4.069   0.273  13.127
74933SOL    HW126632   3.995   0.304  13.074
74933SOL    HW226633   4.051   0.181  13.142
74934SOL     OW26634   0.075   1.427   6.735
74934SOL    HW126635   0.154   1.471   6.766
74934SOL    HW226636   0.049   1.371   6.808
74935SOL     OW26637  14.092   5.963  13.243
74935SOL    HW126638  14.122   5.875  13.221
74935SOL    HW226639  14.135   5.983  13.327
74936SOL     OW26640   4.497   2.596   3.071
74936SOL    HW126641   4.465   2.514   3.110
74936SOL    HW226642   4.585   2.607   3.108
74937SOL     OW26643  14.211  14.706   9.878
74937SOL    HW126644  14.133  14.670   9.835
74937SOL    HW226645  14.184  14.719   9.969
74938SOL     OW26646   9.447  10.181   0.792
74938SOL    HW126647   9.391  10.160   0.718
74938SOL    HW226648   9.438  10.276   0.803
74939SOL     OW26649   3.792   0.592  12.240
74939SOL    HW126650   3.811   0.645  12.162
74939SOL    HW226651   3.744   0.517  12.207
74940SOL     OW26652  11.534  11.267   2.171
74940SOL    HW126653  11.602  11.327   2.202
74940SOL    HW226654  11.583  11.198   2.125
74941SOL     OW26655   3.367  13.932   3.289
74941SOL    HW126656   3.310  13.868   3.331
74941SOL    HW226657   3.454  13.892   3.293
74942SOL     OW26658  13.124   0.393   6.229
74942SOL    HW126659  13.146   0.479   6.265
74942SOL    HW226660  13.048   0.409   6.174
74943SOL     OW26661   1.643   2.362   0.073
74943SOL    HW126662   1.706   2.315   0.126
74943SOL    HW226663   1.617   2.437   0.126
74944SOL     OW26664  12.841   5.633   6.590
74944SOL    HW126665  12.895   5.672   6.658
74944SOL    HW226666  12.754   5.625   6.630
74945SOL     OW26667   4.812  12.840   9.112
74945SOL    HW126668   4.809  12.758   9.062
74945SOL    HW226669   4.883  12.827   9.175
74946SOL     OW26670   6.197   4.473   4.616
74946SOL    HW126671   6.286   4.502   4.638
74946SOL    HW226672   6.161   4.443   4.699
74947SOL     OW26673   6.343   5.437   9.423
74947SOL    HW126674   6.313   5.358   9.379
74947SOL    HW226675   6.435   5.421   9.443
74948SOL     OW26676  10.631   6.499  12.114
74948SOL    HW126677  10.621   6.456  12.199
74948SOL    HW226678  10.602   6.433  12.051
74949SOL     OW26679   7.557   6.044  12.413
74949SOL    HW126680   7.487   6.075  12.356
74949SOL    HW226681   7.626   6.110  12.405
74950SOL     OW26682   4.670   6.946   8.537
74950SOL    HW126683   4.611   6.952   8.612
74950SOL    HW226684   4.690   6.853   8.530
74951SOL     OW26685  11.392   4.547   3.079
74951SOL    HW126686  11.309   4.506   3.101
74951SOL    HW226687  11.374   4.641   3.080
74952SOL     OW26688   1.281   9.959   5.173
74952SOL    HW126689   1.264  10.037   5.226
74952SOL    HW226690   1.301   9.891   5.238
74953SOL     OW26691   2.469  10.407  13.785
74953SOL    HW126692   2.444  10.329  13.834
74953SOL    HW226693   2.390  10.462  13.787
74954SOL     OW26694   6.245   2.239  10.940
74954SOL    HW126695   6.265   2.178  11.010
74954SOL    HW226696   6.169   2.201  10.896
74955SOL     OW26697   2.551  12.533   1.283
74955SOL    HW126698   2.614  12.469   1.317
74955SOL    HW226699   2.470  12.513   1.329
74956SOL     OW26700   9.831   8.928  11.169
74956SOL    HW126701   9.827   8.854  11.109
74956SOL    HW226702   9.841   9.005  11.113
74957SOL     OW26703   6.542   2.327  10.781
74957SOL    HW126704   6.467   2.383  10.763
74957SOL    HW226705   6.505   2.241  10.800
74958SOL     OW26706  13.945   7.278   7.625
74958SOL    HW126707  13.933   7.184   7.633
74958SOL    HW226708  14.033   7.287   7.589
74959SOL     OW26709   8.924   2.281  13.168
74959SOL    HW126710   8.969   2.230  13.101
74959SOL    HW226711   8.848   2.317  13.124
74960SOL     OW26712   6.712   6.926   2.082
74960SOL    HW126713   6.648   6.915   2.152
74960SOL    HW226714   6.756   7.009   2.103
74961SOL     OW26715   4.483   3.106   6.406
74961SOL    HW126716   4.572   3.132   6.429
74961SOL    HW226717   4.475   3.129   6.313
74962SOL     OW26718  11.516  12.419   4.987
74962SOL    HW126719  11.430  12.460   4.983
74962SOL    HW226720  11.566  12.461   4.917
74963SOL     OW26721  13.383   0.776   3.310
74963SOL    HW126722  13.389   0.693   3.261
74963SOL    HW226723  13.332   0.755   3.388
74964SOL     OW26724   5.641  12.487  13.929
74964SOL    HW126725   5.721  12.478  13.877
74964SOL    HW226726   5.659  12.559  13.989
74965SOL     OW26727   0.431   9.931  12.364
74965SOL    HW126728   0.458   9.929  12.456
74965SOL    HW226729   0.509   9.959  12.317
74966SOL     OW26730   8.197   0.897   1.653
74966SOL    HW126731   8.257   0.967   1.678
74966SOL    HW226732   8.219   0.877   1.562
74967SOL     OW26733  11.906   1.048   8.462
74967SOL    HW126734  11.984   1.015   8.506
74967SOL    HW226735  11.939   1.100   8.389
74968SOL     OW26736   8.920   0.273  12.979
74968SOL    HW126737   8.935   0.338  13.048
74968SOL    HW226738   8.906   0.191  13.026
74969SOL     OW26739   5.857   2.376   5.011
74969SOL    HW126740   5.766   2.407   5.006
74969SOL    HW226741   5.876   2.344   4.923
74970SOL     OW26742   4.413   3.314   8.516
74970SOL    HW126743   4.499   3.301   8.476
74970SOL    HW226744   4.351   3.303   8.444
74971SOL     OW26745   0.141  14.570  13.805
74971SOL    HW126746   0.222  14.519  13.801
74971SOL    HW226747   0.085  14.530  13.739
74972SOL     OW26748   5.988   2.523   1.340
74972SOL    HW126749   5.985   2.431   1.366
74972SOL    HW226750   5.922   2.566   1.395
74973SOL     OW26751   9.039  14.393   4.103
74973SOL    HW126752   9.017  14.394   4.010
74973SOL    HW226753   8.993  14.469   4.139
74974SOL     OW26754   4.688   7.348  11.820
74974SOL    HW126755   4.623   7.383  11.880
74974SOL    HW226756   4.722   7.424  11.773
74975SOL     OW26757   6.183   9.583   4.940
74975SOL    HW126758   6.114   9.557   5.002
74975SOL    HW226759   6.265   9.558   4.983
74976SOL     OW26760  13.215  14.356   0.046
74976SOL    HW126761  13.178  14.439   0.073
74976SOL    HW226762  13.141  14.306   0.012
74977SOL     OW26763  11.326   1.924   5.985
74977SOL    HW126764  11.333   1.857   5.918
74977SOL    HW226765  11.270   1.885   6.053
74978SOL     OW26766  14.699   2.384   0.095
74978SOL    HW126767  14.791   2.387   0.121
74978SOL    HW226768  14.675   2.292   0.105
74979SOL     OW26769  11.788   9.483  12.733
74979SOL    HW126770  11.851   9.532  12.679
74979SOL    HW226771  11.780   9.534  12.813
74980SOL     OW26772   4.243  13.531   1.477
74980SOL    HW126773   4.167  13.587   1.459
74980SOL    HW226774   4.310  13.562   1.417
74981SOL     OW26775   2.821   4.152   4.594
74981SOL    HW126776   2.878   4.082   4.625
74981SOL    HW226777   2.796   4.126   4.505
74982SOL     OW26778  13.879   0.355  13.645
74982SOL    HW126779  13.819   0.358  13.571
74982SOL    HW226780  13.832   0.306  13.712
74983SOL     OW26781   4.489   1.613  11.030
74983SOL    HW126782   4.557   1.554  11.062
74983SOL    HW226783   4.420   1.607  11.096
74984SOL     OW26784   0.035  12.952  10.193
74984SOL    HW126785   0.068  12.880  10.247
74984SOL    HW226786  14.842  12.989  10.244
74985SOL     OW26787  13.034  10.335   1.326
74985SOL    HW126788  12.985  10.354   1.406
74985SOL    HW226789  13.074  10.250   1.342
74986SOL     OW26790   9.023  10.723   1.106
74986SOL    HW126791   9.081  10.648   1.116
74986SOL    HW226792   8.954  10.709   1.171
74987SOL     OW26793   1.968   4.364  12.842
74987SOL    HW126794   1.998   4.448  12.806
74987SOL    HW226795   2.009   4.298  12.786
74988SOL     OW26796   9.909   9.042   6.050
74988SOL    HW126797   9.931   8.949   6.045
74988SOL    HW226798   9.858   9.058   5.970
74989SOL     OW26799   8.922   0.838   6.569
74989SOL    HW126800   8.841   0.797   6.538
74989SOL    HW226801   8.932   0.916   6.514
74990SOL     OW26802  10.675  13.067  12.910
74990SOL    HW126803  10.637  12.988  12.873
74990SOL    HW226804  10.684  13.048  13.003
74991SOL     OW26805   1.869   4.968   7.117
74991SOL    HW126806   1.816   4.889   7.105
74991SOL    HW226807   1.959   4.936   7.119
74992SOL     OW26808   3.639  14.186   0.344
74992SOL    HW126809   3.642  14.188   0.248
74992SOL    HW226810   3.613  14.096   0.365
74993SOL     OW26811  10.706   7.196   3.178
74993SOL    HW126812  10.793   7.237   3.173
74993SOL    HW226813  10.714   7.131   3.248
74994SOL     OW26814   4.328  10.413  11.314
74994SOL    HW126815   4.331  10.452  11.227
74994SOL    HW226816   4.419  10.416  11.345
74995SOL     OW26817  12.363   4.542   5.167
74995SOL    HW126818  12.364   4.636   5.187
74995SOL    HW226819  12.372   4.538   5.072
74996SOL     OW26820   7.919   6.498  10.753
74996SOL    HW126821   7.998   6.541  10.787
74996SOL    HW226822   7.942   6.405  10.750
74997SOL     OW26823   0.526  11.671   0.328
74997SOL    HW126824   0.562  11.755   0.357
74997SOL    HW226825   0.448  11.659   0.381
74998SOL     OW26826  13.732   1.281  13.874
74998SOL    HW126827  13.694   1.201  13.839
74998SOL    HW226828  13.771   1.255  13.958
74999SOL     OW26829  14.173   6.900   3.663
74999SOL    HW126830  14.115   6.829   3.635
74999SOL    HW226831  14.162   6.904   3.758
75000SOL     OW26832   5.006   7.024  13.697
75000SOL    HW126833   5.022   6.983  13.782
75000SOL    HW226834   4.914   7.004  13.679
75001SOL     OW26835  10.998  14.099   0.929
75001SOL    HW126836  10.918  14.080   0.978
75001SOL    HW226837  10.983  14.062   0.842
75002SOL     OW26838   8.745  13.613   4.649
75002SOL    HW126839   8.662  13.614   4.698
75002SOL    HW226840   8.798  13.547   4.694
75003SOL     OW26841  10.382   7.510   6.415
75003SOL    HW126842  10.336   7.524   6.497
75003SOL    HW226843  10.466   7.555   6.426
75004SOL     OW26844   7.484  12.607   5.539
75004SOL    HW126845   7.472  12.648   5.453
75004SOL    HW226846   7.446  12.520   5.529
75005SOL     OW26847  12.496  11.896  11.465
75005SOL    HW126848  12.530  11.891  11.555
75005SOL    HW226849  12.401  11.898  11.475
75006SOL     OW26850  10.248   2.706   2.381
75006SOL    HW126851  10.324   2.762   2.367
75006SOL    HW226852  10.283   2.629   2.426
75007SOL     OW26853  13.235   2.092   8.716
75007SOL    HW126854  13.146   2.086   8.682
75007SOL    HW226855  13.227   2.079   8.810
75008SOL     OW26856  13.259  14.283  12.575
75008SOL    HW126857  13.330  14.235  12.617
75008SOL    HW226858  13.188  14.284  12.640
75009SOL     OW26859  14.061   4.768   8.280
75009SOL    HW126860  13.968   4.762   8.257
75009SOL    HW226861  14.104   4.801   8.202
75010SOL     OW26862   7.806  10.871   7.023
75010SOL    HW126863   7.841  10.883   7.111
75010SOL    HW226864   7.881  10.844   6.970
75011SOL     OW26865   2.171  13.764   6.995
75011SOL    HW126866   2.122  13.822   7.053
75011SOL    HW226867   2.250  13.813   6.974
75012SOL     OW26868  13.377   4.554   8.136
75012SOL    HW126869  13.374   4.459   8.125
75012SOL    HW226870  13.440   4.583   8.070
75013SOL     OW26871   1.277   0.881   1.008
75013SOL    HW126872   1.203   0.937   1.031
75013SOL    HW226873   1.249   0.793   1.032
75014SOL     OW26874   1.083   8.080  11.748
75014SOL    HW126875   1.132   8.035  11.678
75014SOL    HW226876   1.012   8.019  11.768
75015SOL     OW26877   0.615   4.328   3.152
75015SOL    HW126878   0.660   4.292   3.076
75015SOL    HW226879   0.522   4.323   3.130
75016SOL     OW26880   7.774  13.816  10.886
75016SOL    HW126881   7.705  13.770  10.839
75016SOL    HW226882   7.743  13.820  10.976
75017SOL     OW26883   1.843  13.695   8.477
75017SOL    HW126884   1.866  13.760   8.411
75017SOL    HW226885   1.926  13.665   8.512
75018SOL     OW26886  12.878   2.780  12.275
75018SOL    HW126887  12.900   2.817  12.360
75018SOL    HW226888  12.962   2.772  12.230
75019SOL     OW26889  12.996  12.517  12.553
75019SOL    HW126890  13.083  12.480  12.535
75019SOL    HW226891  12.998  12.602  12.510
75020SOL     OW26892   1.223   2.656   8.178
75020SOL    HW126893   1.138   2.669   8.137
75020SOL    HW226894   1.202   2.639   8.270
75021SOL     OW26895   7.138   6.704   5.578
75021SOL    HW126896   7.089   6.721   5.659
75021SOL    HW226897   7.071   6.689   5.512
75022SOL     OW26898   9.084   6.616   7.616
75022SOL    HW126899   9.112   6.633   7.706
75022SOL    HW226900   9.165   6.603   7.568
75023SOL     OW26901   7.689   1.103   6.450
75023SOL    HW126902   7.711   1.192   6.477
75023SOL    HW226903   7.620   1.075   6.510
75024SOL     OW26904   5.212  11.095   5.879
75024SOL    HW126905   5.285  11.155   5.865
75024SOL    HW226906   5.141  11.130   5.826
75025SOL     OW26907   7.473   4.985   5.406
75025SOL    HW126908   7.403   4.959   5.466
75025SOL    HW226909   7.497   4.904   5.361
75026SOL     OW26910   8.466   7.572  12.924
75026SOL    HW126911   8.458   7.653  12.874
75026SOL    HW226912   8.420   7.506  12.871
75027SOL     OW26913   5.475   2.485  11.467
75027SOL    HW126914   5.495   2.535  11.387
75027SOL    HW226915   5.503   2.542  11.538
75028SOL     OW26916   6.378   3.366  14.467
75028SOL    HW126917   6.361   3.351  14.560
75028SOL    HW226918   6.303   3.327  14.422
75029SOL     OW26919   4.256   9.226   1.731
75029SOL    HW126920   4.231   9.307   1.687
75029SOL    HW226921   4.342   9.245   1.769
75030SOL     OW26922   5.049  13.462   7.214
75030SOL    HW126923   4.955  13.472   7.227
75030SOL    HW226924   5.088  13.540   7.252
75031SOL     OW26925   4.679   2.377   3.234
75031SOL    HW126926   4.637   2.354   3.151
75031SOL    HW226927   4.646   2.311   3.296
75032SOL     OW26928  10.419   6.773   3.586
75032SOL    HW126929  10.389   6.733   3.667
75032SOL    HW226930  10.509   6.741   3.575
75033SOL     OW26931   8.206   3.777   8.891
75033SOL    HW126932   8.156   3.824   8.958
75033SOL    HW226933   8.294   3.816   8.895
75034SOL     OW26934  13.134   5.102   3.235
75034SOL    HW126935  13.220   5.113   3.195
75034SOL    HW226936  13.108   5.013   3.211
75035SOL     OW26937   9.784  14.467   5.079
75035SOL    HW126938   9.860  14.472   5.138
75035SOL    HW226939   9.774  14.374   5.061
75036SOL     OW26940   2.421   6.679   5.305
75036SOL    HW126941   2.354   6.705   5.242
75036SOL    HW226942   2.371   6.645   5.380
75037SOL     OW26943   4.127   6.334   6.071
75037SOL    HW126944   4.058   6.267   6.069
75037SOL    HW226945   4.160   6.337   5.981
75038SOL     OW26946  12.495   3.405   7.493
75038SOL    HW126947  12.504   3.426   7.586
75038SOL    HW226948  12.487   3.491   7.450
75039SOL     OW26949  10.389   5.399  13.383
75039SOL    HW126950  10.341   5.316  13.381
75039SOL    HW226951  10.396   5.420  13.477
75040SOL     OW26952   8.810   9.623   8.597
75040SOL    HW126953   8.861   9.682   8.652
75040SOL    HW226954   8.823   9.655   8.508
75041SOL     OW26955   9.231   6.866   5.599
75041SOL    HW126956   9.207   6.873   5.692
75041SOL    HW226957   9.188   6.940   5.557
75042SOL     OW26958  12.712   9.254   9.637
75042SOL    HW126959  12.807   9.271   9.632
75042SOL    HW226960  12.674   9.340   9.657
75043SOL     OW26961  11.187   3.931   4.408
75043SOL    HW126962  11.154   3.994   4.344
75043SOL    HW226963  11.280   3.924   4.389
75044SOL     OW26964   4.280   4.332  10.117
75044SOL    HW126965   4.321   4.396  10.176
75044SOL    HW226966   4.190   4.324  10.149
75045SOL     OW26967  10.250   7.261   7.553
75045SOL    HW126968  10.294   7.181   7.524
75045SOL    HW226969  10.321   7.317   7.583
75046SOL     OW26970   2.822   6.587   1.723
75046SOL    HW126971   2.850   6.677   1.738
75046SOL    HW226972   2.804   6.552   1.810
75047SOL     OW26973  12.305   9.976   1.717
75047SOL    HW126974  12.281  10.052   1.663
75047SOL    HW226975  12.316  10.012   1.805
75048SOL     OW26976   6.540  12.729  14.702
75048SOL    HW126977   6.559  12.658  14.641
75048SOL    HW226978   6.447  12.719  14.721
75049SOL     OW26979  12.462  12.456   5.303
75049SOL    HW126980  12.446  12.482   5.212
75049SOL    HW226981  12.463  12.538   5.352
75050SOL     OW26982   2.944  13.407  13.024
75050SOL    HW126983   3.006  13.480  13.033
75050SOL    HW226984   2.968  13.365  12.941
75051SOL     OW26985   1.863   2.629   5.310
75051SOL    HW126986   1.802   2.648   5.381
75051SOL    HW226987   1.898   2.715   5.285
75052SOL     OW26988  12.400   3.408   2.849
75052SOL    HW126989  12.481   3.448   2.881
75052SOL    HW226990  12.381   3.338   2.912
75053SOL     OW26991   3.167   3.827  13.761
75053SOL    HW126992   3.083   3.814  13.717
75053SOL    HW226993   3.153   3.903  13.817
75054SOL     OW26994   3.520   8.205   4.160
75054SOL    HW126995   3.495   8.276   4.101
75054SOL    HW226996   3.616   8.209   4.163
75055SOL     OW26997  11.343  11.482  14.553
75055SOL    HW126998  11.406  11.438  14.610
75055SOL    HW226999  11.395  11.547  14.505
75056SOL     OW27000   8.088   1.809   0.419
75056SOL    HW127001   7.999   1.775   0.418
75056SOL    HW227002   8.129   1.771   0.341
75057SOL     OW27003   2.068   9.960  10.132
75057SOL    HW127004   2.055   9.877  10.086
75057SOL    HW227005   2.144   9.945  10.188
75058SOL     OW27006   8.235   8.889  13.281
75058SOL    HW127007   8.204   8.844  13.203
75058SOL    HW227008   8.164   8.880  13.344
75059SOL     OW27009   3.300   0.296  12.943
75059SOL    HW127010   3.355   0.326  13.015
75059SOL    HW227011   3.303   0.200  12.949
75060SOL     OW27012  13.368   2.733   8.391
75060SOL    HW127013  13.318   2.791   8.333
75060SOL    HW227014  13.456   2.731   8.353
75061SOL     OW27015  14.037   2.818   4.377
75061SOL    HW127016  14.035   2.722   4.379
75061SOL    HW227017  14.018   2.844   4.467
75062SOL     OW27018   5.277   5.862   2.964
75062SOL    HW127019   5.215   5.864   2.892
75062SOL    HW227020   5.300   5.769   2.973
75063SOL     OW27021   3.380   3.959   8.440
75063SOL    HW127022   3.326   3.927   8.513
75063SOL    HW227023   3.323   3.955   8.364
75064SOL     OW27024   5.386   5.326   9.389
75064SOL    HW127025   5.295   5.325   9.416
75064SOL    HW227026   5.432   5.367   9.463
75065SOL     OW27027  11.653   2.206  14.058
75065SOL    HW127028  11.573   2.250  14.086
75065SOL    HW227029  11.716   2.276  14.045
75066SOL     OW27030  12.055   1.565   4.806
75066SOL    HW127031  12.032   1.529   4.721
75066SOL    HW227032  11.971   1.589   4.846
75067SOL     OW27033  10.852   9.638  14.573
75067SOL    HW127034  10.830   9.618  14.482
75067SOL    HW227035  10.825   9.561  14.622
75068SOL     OW27036   3.906   1.516   7.658
75068SOL    HW127037   4.001   1.513   7.660
75068SOL    HW227038   3.878   1.449   7.719
75069SOL     OW27039   3.255   7.377   4.899
75069SOL    HW127040   3.318   7.424   4.845
75069SOL    HW227041   3.240   7.295   4.852
75070SOL     OW27042  14.416   7.197   3.200
75070SOL    HW127043  14.450   7.227   3.116
75070SOL    HW227044  14.486   7.217   3.263
75071SOL     OW27045  14.389   5.981   0.938
75071SOL    HW127046  14.437   6.064   0.938
75071SOL    HW227047  14.305   6.003   0.977
75072SOL     OW27048   0.923  13.677   9.220
75072SOL    HW127049   0.972  13.733   9.160
75072SOL    HW227050   0.969  13.684   9.303
75073SOL     OW27051   3.596   7.847   0.262
75073SOL    HW127052   3.504   7.860   0.238
75073SOL    HW227053   3.593   7.783   0.333
75074SOL     OW27054  13.812   6.430  13.348
75074SOL    HW127055  13.725   6.434  13.389
75074SOL    HW227056  13.848   6.346  13.377
75075SOL     OW27057   0.367  13.719   2.896
75075SOL    HW127058   0.436  13.701   2.832
75075SOL    HW227059   0.285  13.698   2.851
75076SOL     OW27060   1.413   6.832  13.321
75076SOL    HW127061   1.335   6.792  13.361
75076SOL    HW227062   1.455   6.760  13.273
75077SOL     OW27063  13.105  11.546   1.923
75077SOL    HW127064  13.119  11.590   2.008
75077SOL    HW227065  13.015  11.571   1.898
75078SOL     OW27066   2.342   2.681   1.992
75078SOL    HW127067   2.374   2.621   1.925
75078SOL    HW227068   2.301   2.752   1.943
75079SOL     OW27069   1.613   2.551   9.951
75079SOL    HW127070   1.652   2.497   9.882
75079SOL    HW227071   1.541   2.597   9.908
75080SOL     OW27072  10.584   8.034  10.187
75080SOL    HW127073  10.658   7.976  10.167
75080SOL    HW227074  10.610   8.119  10.152
75081SOL     OW27075   8.342  12.241  11.403
75081SOL    HW127076   8.360  12.147  11.407
75081SOL    HW227077   8.247  12.248  11.400
75082SOL     OW27078   8.196  10.915   4.524
75082SOL    HW127079   8.291  10.918   4.538
75082SOL    HW227080   8.159  10.912   4.613
75083SOL     OW27081   7.192   8.907  11.607
75083SOL    HW127082   7.097   8.910  11.617
75083SOL    HW227083   7.219   8.831  11.658
75084SOL     OW27084   0.553   7.943  12.238
75084SOL    HW127085   0.578   7.996  12.162
75084SOL    HW227086   0.497   8.001  12.289
75085SOL     OW27087   3.636   7.334   3.140
75085SOL    HW127088   3.717   7.301   3.102
75085SOL    HW227089   3.620   7.278   3.216
75086SOL     OW27090   6.025   4.221   5.689
75086SOL    HW127091   6.082   4.276   5.743
75086SOL    HW227092   6.002   4.148   5.747
75087SOL     OW27093   9.714   2.852   0.385
75087SOL    HW127094   9.657   2.919   0.348
75087SOL    HW227095   9.781   2.838   0.318
75088SOL     OW27096   7.413   3.077  13.221
75088SOL    HW127097   7.437   3.109  13.308
75088SOL    HW227098   7.321   3.101  13.211
75089SOL     OW27099   4.547   2.844   1.545
75089SOL    HW127100   4.546   2.878   1.634
75089SOL    HW227101   4.614   2.896   1.500
75090SOL     OW27102   0.242   6.136   9.104
75090SOL    HW127103   0.331   6.102   9.092
75090SOL    HW227104   0.216   6.106   9.191
75091SOL     OW27105   7.876   2.227   5.673
75091SOL    HW127106   7.918   2.152   5.630
75091SOL    HW227107   7.844   2.281   5.601
75092SOL     OW27108   4.666  11.588  11.543
75092SOL    HW127109   4.697  11.656  11.603
75092SOL    HW227110   4.741  11.572  11.485
75093SOL     OW27111   3.818   2.565   0.233
75093SOL    HW127112   3.822   2.660   0.244
75093SOL    HW227113   3.853   2.530   0.315
75094SOL     OW27114   5.374   9.721   7.008
75094SOL    HW127115   5.355   9.637   6.965
75094SOL    HW227116   5.391   9.697   7.099
75095SOL     OW27117   1.282   5.899  11.423
75095SOL    HW127118   1.244   5.953  11.492
75095SOL    HW227119   1.368   5.872  11.457
75096SOL     OW27120   1.972   4.860  11.840
75096SOL    HW127121   1.931   4.920  11.779
75096SOL    HW227122   2.020   4.798  11.784
75097SOL     OW27123   0.417  11.829  13.909
75097SOL    HW127124   0.375  11.753  13.868
75097SOL    HW227125   0.345  11.891  13.921
75098SOL     OW27126  11.790   6.614   2.374
75098SOL    HW127127  11.752   6.571   2.297
75098SOL    HW227128  11.867   6.562   2.395
75099SOL     OW27129   2.525   3.116   0.172
75099SOL    HW127130   2.592   3.170   0.213
75099SOL    HW227131   2.515   3.041   0.231
75100SOL     OW27132   4.532   2.300  13.660
75100SOL    HW127133   4.547   2.342  13.744
75100SOL    HW227134   4.448   2.257  13.669
75101SOL     OW27135   9.519  13.866   7.134
75101SOL    HW127136   9.480  13.861   7.046
75101SOL    HW227137   9.454  13.913   7.186
75102SOL     OW27138   0.629  11.545   5.477
75102SOL    HW127139   0.589  11.495   5.406
75102SOL    HW227140   0.707  11.495   5.501
75103SOL     OW27141  12.119   0.021   4.004
75103SOL    HW127142  12.050   0.022   4.071
75103SOL    HW227143  12.074   0.043   3.922
75104SOL     OW27144  13.564  14.126   2.016
75104SOL    HW127145  13.646  14.173   2.001
75104SOL    HW227146  13.584  14.036   1.993
75105SOL     OW27147  10.824   1.103   7.258
75105SOL    HW127148  10.852   1.012   7.263
75105SOL    HW227149  10.759   1.104   7.187
75106SOL     OW27150  11.461  14.479   1.471
75106SOL    HW127151  11.545  14.492   1.427
75106SOL    HW227152  11.480  14.490   1.564
75107SOL     OW27153  13.724   8.218   0.936
75107SOL    HW127154  13.809   8.180   0.960
75107SOL    HW227155  13.670   8.142   0.912
75108SOL     OW27156   3.688  13.611   2.949
75108SOL    HW127157   3.714  13.658   2.870
75108SOL    HW227158   3.663  13.524   2.917
75109SOL     OW27159  13.996   4.480  14.861
75109SOL    HW127160  13.923   4.426  14.831
75109SOL    HW227161  14.074   4.426  14.844
75110SOL     OW27162   1.919   6.698   0.350
75110SOL    HW127163   1.907   6.729   0.260
75110SOL    HW227164   1.987   6.755   0.386
75111SOL     OW27165   5.811  14.418   3.670
75111SOL    HW127166   5.856  14.439   3.752
75111SOL    HW227167   5.720  14.444   3.684
75112SOL     OW27168   1.523   0.691   6.778
75112SOL    HW127169   1.558   0.732   6.857
75112SOL    HW227170   1.599   0.684   6.719
75113SOL     OW27171   5.334  11.396  14.246
75113SOL    HW127172   5.418  11.435  14.271
75113SOL    HW227173   5.288  11.466  14.200
75114SOL     OW27174  14.810   4.045   6.026
75114SOL    HW127175  14.840   4.107   5.959
75114SOL    HW227176  14.809   3.960   5.983
75115SOL     OW27177   2.948  10.410   4.214
75115SOL    HW127178   2.994  10.475   4.268
75115SOL    HW227179   2.886  10.460   4.162
75116SOL     OW27180   5.716   5.483  13.508
75116SOL    HW127181   5.671   5.543  13.447
75116SOL    HW227182   5.671   5.400  13.495
75117SOL     OW27183   4.767  11.502   4.912
75117SOL    HW127184   4.691  11.559   4.903
75117SOL    HW227185   4.829  11.554   4.964
75118SOL     OW27186   9.558  11.783  11.134
75118SOL    HW127187   9.482  11.831  11.101
75118SOL    HW227188   9.521  11.703  11.172
75119SOL     OW27189  11.911   7.934  14.078
75119SOL    HW127190  11.818   7.958  14.077
75119SOL    HW227191  11.940   7.956  14.166
75120SOL     OW27192   5.627   0.535   9.233
75120SOL    HW127193   5.609   0.441   9.226
75120SOL    HW227194   5.656   0.561   9.146
75121SOL     OW27195   1.032   6.921  10.915
75121SOL    HW127196   1.024   6.897  10.823
75121SOL    HW227197   1.087   6.853  10.953
75122SOL     OW27198   1.069   3.110  10.217
75122SOL    HW127199   1.154   3.132  10.178
75122SOL    HW227200   1.012   3.092  10.142
75123SOL     OW27201   4.622   5.573   7.396
75123SOL    HW127202   4.698   5.537   7.350
75123SOL    HW227203   4.547   5.546   7.343
75124SOL     OW27204   9.813   4.013   0.682
75124SOL    HW127205   9.890   4.010   0.625
75124SOL    HW227206   9.752   4.071   0.637
75125SOL     OW27207  11.126   1.114   2.832
75125SOL    HW127208  11.048   1.060   2.845
75125SOL    HW227209  11.188   1.055   2.789
75126SOL     OW27210  12.007   9.219   3.500
75126SOL    HW127211  12.056   9.295   3.467
75126SOL    HW227212  12.068   9.175   3.559
75127SOL     OW27213  12.238   1.229   7.307
75127SOL    HW127214  12.223   1.209   7.400
75127SOL    HW227215  12.203   1.317   7.296
75128SOL     OW27216   7.571   4.648   1.114
75128SOL    HW127217   7.481   4.668   1.142
75128SOL    HW227218   7.563   4.566   1.065
75129SOL     OW27219   4.007  13.657   1.436
75129SOL    HW127220   3.979  13.655   1.345
75129SOL    HW227221   4.048  13.743   1.447
75130SOL     OW27222  11.580  14.734   6.791
75130SOL    HW127223  11.559  14.823   6.821
75130SOL    HW227224  11.539  14.677   6.855
75131SOL     OW27225   0.762   8.235   0.893
75131SOL    HW127226   0.740   8.328   0.885
75131SOL    HW227227   0.852   8.229   0.862
75132SOL     OW27228   6.311   7.443  14.344
75132SOL    HW127229   6.229   7.452  14.296
75132SOL    HW227230   6.285   7.404  14.428
75133SOL     OW27231   4.152  13.276   0.023
75133SOL    HW127232   4.177  13.185   0.040
75133SOL    HW227233   4.084  13.295   0.087
75134SOL     OW27234   6.114   0.874   6.869
75134SOL    HW127235   6.022   0.899   6.873
75134SOL    HW227236   6.149   0.927   6.797
75135SOL     OW27237   5.739   5.893  13.541
75135SOL    HW127238   5.810   5.900  13.605
75135SOL    HW227239   5.662   5.928  13.585
75136SOL     OW27240  10.270   2.060   0.531
75136SOL    HW127241  10.200   1.996   0.545
75136SOL    HW227242  10.255   2.127   0.598
75137SOL     OW27243  14.204  10.315   1.323
75137SOL    HW127244  14.295  10.318   1.292
75137SOL    HW227245  14.203  10.246   1.389
75138SOL     OW27246   2.536  14.548   0.237
75138SOL    HW127247   2.474  14.583   0.301
75138SOL    HW227248   2.481  14.517   0.165
75139SOL     OW27249  10.086  14.701   9.708
75139SOL    HW127250  10.130  14.770   9.758
75139SOL    HW227251  10.108  14.720   9.617
75140SOL     OW27252  14.603   6.933  11.252
75140SOL    HW127253  14.576   7.001  11.191
75140SOL    HW227254  14.682   6.896  11.214
75141SOL     OW27255  12.245   1.195   6.578
75141SOL    HW127256  12.206   1.249   6.509
75141SOL    HW227257  12.339   1.212   6.572
75142SOL     OW27258   1.454   6.746   5.393
75142SOL    HW127259   1.387   6.695   5.439
75142SOL    HW227260   1.479   6.690   5.319
75143SOL     OW27261   2.057   9.125  13.785
75143SOL    HW127262   2.130   9.064  13.780
75143SOL    HW227263   2.090   9.200  13.834
75144SOL     OW27264  12.522   2.158  14.828
75144SOL    HW127265  12.578   2.234  14.812
75144SOL    HW227266  12.514   2.154   0.044
75145SOL     OW27267  11.463   6.945   4.662
75145SOL    HW127268  11.527   7.016   4.669
75145SOL    HW227269  11.422   6.941   4.748
75146SOL     OW27270  11.008   8.190   5.917
75146SOL    HW127271  11.062   8.123   5.957
75146SOL    HW227272  10.962   8.145   5.846
75147SOL     OW27273  12.521  13.844  11.902
75147SOL    HW127274  12.471  13.913  11.858
75147SOL    HW227275  12.603  13.886  11.926
75148SOL     OW27276   2.354  12.531   6.454
75148SOL    HW127277   2.259  12.521   6.457
75148SOL    HW227278   2.373  12.610   6.504
75149SOL     OW27279  11.950   8.910   1.030
75149SOL    HW127280  12.036   8.949   1.015
75149SOL    HW227281  11.940   8.911   1.125
75150SOL     OW27282  11.585   0.180  14.657
75150SOL    HW127283  11.662   0.233  14.676
75150SOL    HW227284  11.523   0.241  14.617
75151SOL     OW27285   9.047   2.503   5.775
75151SOL    HW127286   9.095   2.567   5.827
75151SOL    HW227287   8.995   2.557   5.714
75152SOL     OW27288  10.854  12.992   5.113
75152SOL    HW127289  10.767  13.030   5.100
75152SOL    HW227290  10.861  12.924   5.047
75153SOL     OW27291   4.744   0.774  12.518
75153SOL    HW127292   4.822   0.718  12.509
75153SOL    HW227293   4.778   0.855  12.554
75154SOL     OW27294  13.882   2.285   7.104
75154SOL    HW127295  13.809   2.226   7.087
75154SOL    HW227296  13.874   2.354   7.039
75155SOL     OW27297   9.883   1.339   7.033
75155SOL    HW127298   9.869   1.245   7.040
75155SOL    HW227299   9.853   1.362   6.945
75156SOL     OW27300   0.359  13.382   2.650
75156SOL    HW127301   0.328  13.386   2.560
75156SOL    HW227302   0.284  13.408   2.702
75157SOL     OW27303   7.025  11.107  13.172
75157SOL    HW127304   6.969  11.175  13.211
75157SOL    HW227305   6.969  11.029  13.168
75158SOL     OW27306   8.654  10.323  11.691
75158SOL    HW127307   8.673  10.331  11.784
75158SOL    HW227308   8.559  10.329  11.684
75159SOL     OW27309  13.042   5.144  10.817
75159SOL    HW127310  13.031   5.079  10.748
75159SOL    HW227311  12.986   5.217  10.790
75160SOL     OW27312   0.383   5.357   5.099
75160SOL    HW127313   0.330   5.309   5.035
75160SOL    HW227314   0.328   5.363   5.177
75161SOL     OW27315  12.980  13.109  10.976
75161SOL    HW127316  12.916  13.073  11.036
75161SOL    HW227317  13.056  13.130  11.030
75162SOL     OW27318  12.961   1.301  13.176
75162SOL    HW127319  12.878   1.310  13.223
75162SOL    HW227320  12.938   1.263  13.091
75163SOL     OW27321   8.863   3.045   2.365
75163SOL    HW127322   8.819   3.114   2.316
75163SOL    HW227323   8.956   3.069   2.361
75164SOL     OW27324   9.545  11.856   7.486
75164SOL    HW127325   9.548  11.890   7.576
75164SOL    HW227326   9.509  11.928   7.434
75165SOL     OW27327   1.671  13.357   4.621
75165SOL    HW127328   1.631  13.279   4.584
75165SOL    HW227329   1.617  13.430   4.590
75166SOL     OW27330  13.286  10.866  14.110
75166SOL    HW127331  13.204  10.831  14.145
75166SOL    HW227332  13.303  10.944  14.164
75167SOL     OW27333   1.843   2.281   0.245
75167SOL    HW127334   1.885   2.322   0.320
75167SOL    HW227335   1.910   2.284   0.176
75168SOL     OW27336  10.559   9.542   4.289
75168SOL    HW127337  10.605   9.529   4.207
75168SOL    HW227338  10.627   9.544   4.356
75169SOL     OW27339  14.011  14.339  11.095
75169SOL    HW127340  13.999  14.342  11.190
75169SOL    HW227341  13.960  14.412  11.062
75170SOL     OW27342  12.833   4.290   5.015
75170SOL    HW127343  12.761   4.308   5.076
75170SOL    HW227344  12.862   4.377   4.987
75171SOL     OW27345  14.075   3.280   8.789
75171SOL    HW127346  14.089   3.374   8.784
75171SOL    HW227347  13.994   3.270   8.839
75172SOL     OW27348   4.534  13.712   5.487
75172SOL    HW127349   4.488  13.692   5.406
75172SOL    HW227350   4.482  13.781   5.528
75173SOL     OW27351   2.415   0.322  14.860
75173SOL    HW127352   2.407   0.414   0.006
75173SOL    HW227353   2.348   0.278   0.034
75174SOL     OW27354   3.039   8.656   3.316
75174SOL    HW127355   2.978   8.612   3.256
75174SOL    HW227356   3.032   8.749   3.293
75175SOL     OW27357   5.918  12.592   9.565
75175SOL    HW127358   5.881  12.626   9.483
75175SOL    HW227359   6.012  12.600   9.555
75176SOL     OW27360   9.834   2.211   5.282
75176SOL    HW127361   9.899   2.276   5.309
75176SOL    HW227362   9.755   2.235   5.331
75177SOL     OW27363   5.226   8.748  13.569
75177SOL    HW127364   5.243   8.654  13.575
75177SOL    HW227365   5.157   8.764  13.633
75178SOL     OW27366  14.472   3.861   6.269
75178SOL    HW127367  14.521   3.826   6.343
75178SOL    HW227368  14.508   3.816   6.193
75179SOL     OW27369   7.819   4.567  14.727
75179SOL    HW127370   7.890   4.513  14.693
75179SOL    HW227371   7.760   4.580  14.653
75180SOL     OW27372   8.447   0.630   2.370
75180SOL    HW127373   8.379   0.670   2.316
75180SOL    HW227374   8.425   0.537   2.371
75181SOL     OW27375  13.891   3.831   0.634
75181SOL    HW127376  13.960   3.875   0.684
75181SOL    HW227377  13.863   3.759   0.690
75182SOL     OW27378   6.223   0.390   7.112
75182SOL    HW127379   6.182   0.360   7.031
75182SOL    HW227380   6.151   0.427   7.163
75183SOL     OW27381   4.807   5.341   6.205
75183SOL    HW127382   4.809   5.395   6.283
75183SOL    HW227383   4.745   5.385   6.146
75184SOL     OW27384   4.537  11.325   5.662
75184SOL    HW127385   4.552  11.393   5.596
75184SOL    HW227386   4.620  11.278   5.668
75185SOL     OW27387   1.513  14.435   7.284
75185SOL    HW127388   1.504  14.406   7.193
75185SOL    HW227389   1.438  14.396   7.329
75186SOL     OW27390   0.706  13.980   1.523
75186SOL    HW127391   0.738  14.007   1.437
75186SOL    HW227392   0.611  13.984   1.516
75187SOL     OW27393   3.885  12.609  11.006
75187SOL    HW127394   3.877  12.698  10.969
75187SOL    HW227395   3.975  12.604  11.037
75188SOL     OW27396   3.588   5.348  10.979
75188SOL    HW127397   3.591   5.256  11.006
75188SOL    HW227398   3.560   5.345  10.887
75189SOL     OW27399   9.849   4.608  10.582
75189SOL    HW127400   9.862   4.694  10.542
75189SOL    HW227401   9.923   4.556  10.552
75190SOL     OW27402   4.821   7.650   0.711
75190SOL    HW127403   4.829   7.565   0.756
75190SOL    HW227404   4.911   7.673   0.688
75191SOL     OW27405  10.029  14.779  10.586
75191SOL    HW127406   9.987  14.776  10.500
75191SOL    HW227407  10.119  14.754  10.569
75192SOL     OW27408   9.264  13.312   7.483
75192SOL    HW127409   9.216  13.243   7.528
75192SOL    HW227410   9.224  13.315   7.396
75193SOL     OW27411   1.193   9.447  12.113
75193SOL    HW127412   1.181   9.462  12.207
75193SOL    HW227413   1.276   9.398  12.108
75194SOL     OW27414   5.545  14.076   5.227
75194SOL    HW127415   5.464  14.046   5.269
75194SOL    HW227416   5.608  14.007   5.245
75195SOL     OW27417   7.173   4.062   0.342
75195SOL    HW127418   7.084   4.097   0.350
75195SOL    HW227419   7.164   3.982   0.291
75196SOL     OW27420   5.806   3.723   4.837
75196SOL    HW127421   5.880   3.709   4.897
75196SOL    HW227422   5.846   3.741   4.752
75197SOL     OW27423   6.922  12.206   5.292
75197SOL    HW127424   6.956  12.247   5.371
75197SOL    HW227425   6.977  12.242   5.221
75198SOL     OW27426   1.632   4.565   2.812
75198SOL    HW127427   1.637   4.473   2.836
75198SOL    HW227428   1.539   4.587   2.819
75199SOL     OW27429   6.161   8.033  10.224
75199SOL    HW127430   6.097   7.990  10.281
75199SOL    HW227431   6.220   8.078  10.283
75200SOL     OW27432  12.231  14.053   8.774
75200SOL    HW127433  12.257  14.007   8.854
75200SOL    HW227434  12.257  14.144   8.789
75201SOL     OW27435   3.071   8.795   9.310
75201SOL    HW127436   3.112   8.733   9.250
75201SOL    HW227437   3.029   8.740   9.376
75202SOL     OW27438   1.528   9.503   3.233
75202SOL    HW127439   1.532   9.462   3.319
75202SOL    HW227440   1.579   9.584   3.243
75203SOL     OW27441   0.187   3.951  10.467
75203SOL    HW127442   0.138   4.014  10.414
75203SOL    HW227443   0.167   3.974  10.557
75204SOL     OW27444   3.279  10.512  10.374
75204SOL    HW127445   3.224  10.508  10.453
75204SOL    HW227446   3.218  10.498  10.302
75205SOL     OW27447  11.406  11.391   9.976
75205SOL    HW127448  11.376  11.473   9.937
75205SOL    HW227449  11.499  11.387   9.954
75206SOL     OW27450  12.945   8.228  12.525
75206SOL    HW127451  12.949   8.283  12.446
75206SOL    HW227452  13.036   8.223  12.555
75207SOL     OW27453   8.622   8.544  13.924
75207SOL    HW127454   8.592   8.459  13.958
75207SOL    HW227455   8.694   8.522  13.866
75208SOL     OW27456   6.190  13.424   9.556
75208SOL    HW127457   6.236  13.482   9.495
75208SOL    HW227458   6.143  13.483   9.614
75209SOL     OW27459   9.553  14.112   9.216
75209SOL    HW127460   9.602  14.191   9.236
75209SOL    HW227461   9.596  14.043   9.268
75210SOL     OW27462   7.267   5.324   9.193
75210SOL    HW127463   7.265   5.250   9.254
75210SOL    HW227464   7.196   5.381   9.221
75211SOL     OW27465   4.833   3.841   5.489
75211SOL    HW127466   4.841   3.746   5.491
75211SOL    HW227467   4.923   3.873   5.496
75212SOL     OW27468  13.819   7.871  14.195
75212SOL    HW127469  13.861   7.803  14.142
75212SOL    HW227470  13.821   7.949  14.141
75213SOL     OW27471   6.537  10.905  13.817
75213SOL    HW127472   6.446  10.894  13.791
75213SOL    HW227473   6.551  10.839  13.886
75214SOL     OW27474   8.025   3.825  14.673
75214SOL    HW127475   8.018   3.743  14.624
75214SOL    HW227476   8.099   3.812  14.732
75215SOL     OW27477   9.033  11.887  13.509
75215SOL    HW127478   9.005  11.796  13.500
75215SOL    HW227479   9.128  11.884  13.500
75216SOL     OW27480  11.781   9.017  12.518
75216SOL    HW127481  11.802   9.098  12.470
75216SOL    HW227482  11.862   8.996  12.564
75217SOL     OW27483   3.949   9.996  14.150
75217SOL    HW127484   3.945   9.920  14.092
75217SOL    HW227485   4.006   9.969  14.222
75218SOL     OW27486  11.582  11.716   3.116
75218SOL    HW127487  11.601  11.716   3.210
75218SOL    HW227488  11.586  11.624   3.091
75219SOL     OW27489   0.116   4.744   2.669
75219SOL    HW127490   0.133   4.809   2.601
75219SOL    HW227491   0.123   4.793   2.751
75220SOL     OW27492   2.032   3.231   7.567
75220SOL    HW127493   2.051   3.284   7.644
75220SOL    HW227494   2.087   3.266   7.498
75221SOL     OW27495   7.212   4.115   2.455
75221SOL    HW127496   7.158   4.183   2.496
75221SOL    HW227497   7.152   4.068   2.397
75222SOL     OW27498   5.009   7.138   6.637
75222SOL    HW127499   5.039   7.156   6.548
75222SOL    HW227500   5.034   7.216   6.687
75223SOL     OW27501   2.732   3.296   4.985
75223SOL    HW127502   2.763   3.206   4.973
75223SOL    HW227503   2.747   3.315   5.077
75224SOL     OW27504  10.865   0.626   6.911
75224SOL    HW127505  10.952   0.603   6.945
75224SOL    HW227506  10.868   0.721   6.899
75225SOL     OW27507   6.972   3.497   9.847
75225SOL    HW127508   6.919   3.494   9.927
75225SOL    HW227509   6.958   3.412   9.806
75226SOL     OW27510   7.855  12.773  12.160
75226SOL    HW127511   7.842  12.728  12.076
75226SOL    HW227512   7.946  12.755  12.184
75227SOL     OW27513   7.805  13.089   7.858
75227SOL    HW127514   7.837  13.125   7.776
75227SOL    HW227515   7.764  13.006   7.834
75228SOL     OW27516  14.004   7.272   9.764
75228SOL    HW127517  13.966   7.199   9.714
75228SOL    HW227518  14.021   7.340   9.698
75229SOL     OW27519   5.632   0.675  12.961
75229SOL    HW127520   5.574   0.641  12.893
75229SOL    HW227521   5.574   0.725  13.019
75230SOL     OW27522   4.322   2.300   1.952
75230SOL    HW127523   4.280   2.354   1.884
75230SOL    HW227524   4.250   2.265   2.004
75231SOL     OW27525  10.710   5.542   4.611
75231SOL    HW127526  10.745   5.592   4.537
75231SOL    HW227527  10.652   5.603   4.655
75232SOL     OW27528   3.953   8.856   5.964
75232SOL    HW127529   3.890   8.785   5.978
75232SOL    HW227530   3.951   8.872   5.870
75233SOL     OW27531   6.269  12.108   4.904
75233SOL    HW127532   6.259  12.140   4.814
75233SOL    HW227533   6.348  12.054   4.901
75234SOL     OW27534   6.642   1.366  11.480
75234SOL    HW127535   6.736   1.346  11.480
75234SOL    HW227536   6.600   1.280  11.488
75235SOL     OW27537  13.260  10.242   7.313
75235SOL    HW127538  13.222  10.157   7.332
75235SOL    HW227539  13.312  10.229   7.234
75236SOL     OW27540   3.995   6.387  10.326
75236SOL    HW127541   4.060   6.316  10.322
75236SOL    HW227542   3.922   6.350  10.374
75237SOL     OW27543  10.235  13.342  11.195
75237SOL    HW127544  10.199  13.378  11.114
75237SOL    HW227545  10.191  13.390  11.265
75238SOL     OW27546  14.254   5.989   5.534
75238SOL    HW127547  14.309   5.915   5.508
75238SOL    HW227548  14.296   6.024   5.612
75239SOL     OW27549  14.681   6.688   8.223
75239SOL    HW127550  14.716   6.777   8.220
75239SOL    HW227551  14.736   6.639   8.162
75240SOL     OW27552   6.938   8.557   4.539
75240SOL    HW127553   6.902   8.590   4.621
75240SOL    HW227554   6.997   8.626   4.509
75241SOL     OW27555  12.911   0.508  14.034
75241SOL    HW127556  12.900   0.556  14.116
75241SOL    HW227557  12.956   0.427  14.060
75242SOL     OW27558   3.365   2.518   8.997
75242SOL    HW127559   3.384   2.510   8.903
75242SOL    HW227560   3.273   2.545   9.000
75243SOL     OW27561   1.692   7.535   3.902
75243SOL    HW127562   1.716   7.568   3.989
75243SOL    HW227563   1.644   7.454   3.920
75244SOL     OW27564   6.976   5.246  13.567
75244SOL    HW127565   7.020   5.208  13.643
75244SOL    HW227566   6.887   5.263  13.598
75245SOL     OW27567   9.656   5.876  13.500
75245SOL    HW127568   9.738   5.919  13.525
75245SOL    HW227569   9.683   5.799  13.449
75246SOL     OW27570   6.333  10.902   7.742
75246SOL    HW127571   6.268  10.972   7.749
75246SOL    HW227572   6.292  10.827   7.785
75247SOL     OW27573   2.879  10.051  10.449
75247SOL    HW127574   2.973  10.060  10.467
75247SOL    HW227575   2.857   9.965  10.484
75248SOL     OW27576   0.693   0.270   5.089
75248SOL    HW127577   0.728   0.234   5.171
75248SOL    HW227578   0.765   0.262   5.027
75249SOL     OW27579  11.424  12.161  11.683
75249SOL    HW127580  11.381  12.153  11.768
75249SOL    HW227581  11.367  12.111  11.624
75250SOL     OW27582   5.329   8.303   7.586
75250SOL    HW127583   5.371   8.274   7.667
75250SOL    HW227584   5.364   8.390   7.570
75251SOL     OW27585   5.203   1.159   6.946
75251SOL    HW127586   5.257   1.194   7.018
75251SOL    HW227587   5.114   1.184   6.970
75252SOL     OW27588  12.346   3.410   9.453
75252SOL    HW127589  12.423   3.437   9.501
75252SOL    HW227590  12.273   3.424   9.513
75253SOL     OW27591   7.222   1.594   8.145
75253SOL    HW127592   7.250   1.611   8.235
75253SOL    HW227593   7.299   1.612   8.092
75254SOL     OW27594  11.175   4.614   4.060
75254SOL    HW127595  11.098   4.579   4.104
75254SOL    HW227596  11.221   4.537   4.026
75255SOL     OW27597   4.590  12.782   9.631
75255SOL    HW127598   4.635  12.715   9.580
75255SOL    HW227599   4.548  12.733   9.703
75256SOL     OW27600   2.014  11.667   4.376
75256SOL    HW127601   1.993  11.737   4.314
75256SOL    HW227602   1.982  11.587   4.334
75257SOL     OW27603   5.906   8.682   2.015
75257SOL    HW127604   5.942   8.754   2.066
75257SOL    HW227605   5.977   8.658   1.955
75258SOL     OW27606  12.300  13.861   6.316
75258SOL    HW127607  12.211  13.872   6.349
75258SOL    HW227608  12.339  13.948   6.326
75259SOL     OW27609  14.014  10.618   6.893
75259SOL    HW127610  13.972  10.535   6.870
75259SOL    HW227611  14.035  10.658   6.808
75260SOL     OW27612  12.017   3.871  12.971
75260SOL    HW127613  12.074   3.859  13.048
75260SOL    HW227614  11.990   3.962  12.975
75261SOL     OW27615  10.280   0.930  13.148
75261SOL    HW127616  10.267   0.839  13.176
75261SOL    HW227617  10.311   0.923  13.057
75262SOL     OW27618  14.447   7.975   5.768
75262SOL    HW127619  14.431   7.893   5.721
75262SOL    HW227620  14.540   7.971   5.792
75263SOL     OW27621   6.984   5.436  12.327
75263SOL    HW127622   6.897   5.406  12.356
75263SOL    HW227623   6.965   5.496  12.255
75264SOL     OW27624   5.326   8.252   5.271
75264SOL    HW127625   5.399   8.313   5.259
75264SOL    HW227626   5.360   8.183   5.327
75265SOL     OW27627   2.816   1.447   7.454
75265SOL    HW127628   2.769   1.365   7.442
75265SOL    HW227629   2.763   1.496   7.517
75266SOL     OW27630  13.829   9.235   1.185
75266SOL    HW127631  13.917   9.202   1.166
75266SOL    HW227632  13.798   9.179   1.257
75267SOL     OW27633   1.085   5.107   0.638
75267SOL    HW127634   1.066   5.197   0.612
75267SOL    HW227635   1.042   5.053   0.572
75268SOL     OW27636  14.658  11.991  12.470
75268SOL    HW127637  14.666  12.082  12.442
75268SOL    HW227638  14.662  11.995  12.565
75269SOL     OW27639   6.787  14.020  11.482
75269SOL    HW127640   6.765  14.097  11.430
75269SOL    HW227641   6.792  13.948  11.419
75270SOL     OW27642   4.148   9.036   5.578
75270SOL    HW127643   4.123   8.959   5.629
75270SOL    HW227644   4.241   9.023   5.559
75271SOL     OW27645   1.480   2.768   6.063
75271SOL    HW127646   1.464   2.702   5.996
75271SOL    HW227647   1.571   2.754   6.090
75272SOL     OW27648   5.319   2.561   8.537
75272SOL    HW127649   5.341   2.468   8.535
75272SOL    HW227650   5.326   2.586   8.630
75273SOL     OW27651   7.413  14.561   4.725
75273SOL    HW127652   7.420  14.618   4.801
75273SOL    HW227653   7.392  14.619   4.653
75274SOL     OW27654  14.860  11.976  13.975
75274SOL    HW127655  14.816  12.005  14.055
75274SOL    HW227656  14.791  11.937  13.923
75275SOL     OW27657   0.079   4.111   6.261
75275SOL    HW127658   0.018   4.084   6.193
75275SOL    HW227659   0.157   4.057   6.247
75276SOL     OW27660  13.916   3.880   2.328
75276SOL    HW127661  14.008   3.867   2.305
75276SOL    HW227662  13.910   3.855   2.421
75277SOL     OW27663   8.259   9.811  14.086
75277SOL    HW127664   8.233   9.724  14.115
75277SOL    HW227665   8.203   9.829  14.011
75278SOL     OW27666   2.254   9.673  13.716
75278SOL    HW127667   2.230   9.583  13.740
75278SOL    HW227668   2.176   9.725  13.734
75279SOL     OW27669   1.105  14.703   2.675
75279SOL    HW127670   1.177  14.726   2.616
75279SOL    HW227671   1.032  14.681   2.616
75280SOL     OW27672   0.984   1.001   3.965
75280SOL    HW127673   1.075   0.973   3.977
75280SOL    HW227674   0.933   0.938   4.015
75281SOL     OW27675   4.736   2.890  10.758
75281SOL    HW127676   4.644   2.912  10.745
75281SOL    HW227677   4.783   2.942  10.692
75282SOL     OW27678   7.222   6.182   7.384
75282SOL    HW127679   7.194   6.145   7.467
75282SOL    HW227680   7.240   6.274   7.403
75283SOL     OW27681  12.973   0.967   9.509
75283SOL    HW127682  12.900   0.905   9.511
75283SOL    HW227683  13.002   0.967   9.418
75284SOL     OW27684   0.379   8.067   2.594
75284SOL    HW127685   0.405   7.978   2.619
75284SOL    HW227686   0.361   8.111   2.677
75285SOL     OW27687   2.563   8.434   0.225
75285SOL    HW127688   2.479   8.450   0.182
75285SOL    HW227689   2.575   8.510   0.282
75286SOL     OW27690  11.011   3.226  10.962
75286SOL    HW127691  11.035   3.269  10.880
75286SOL    HW227692  10.939   3.279  10.996
75287SOL     OW27693  12.741   3.353   5.260
75287SOL    HW127694  12.735   3.397   5.176
75287SOL    HW227695  12.821   3.388   5.300
75288SOL     OW27696   8.442   1.483  12.509
75288SOL    HW127697   8.443   1.423  12.435
75288SOL    HW227698   8.381   1.552  12.483
75289SOL     OW27699   4.420   7.043   3.430
75289SOL    HW127700   4.482   6.985   3.474
75289SOL    HW227701   4.338   7.032   3.478
75290SOL     OW27702  13.318   1.115  10.806
75290SOL    HW127703  13.241   1.158  10.844
75290SOL    HW227704  13.342   1.170  10.731
75291SOL     OW27705   5.757   6.825  14.251
75291SOL    HW127706   5.695   6.889  14.285
75291SOL    HW227707   5.843   6.858  14.277
75292SOL     OW27708   5.541   7.131   4.585
75292SOL    HW127709   5.582   7.212   4.615
75292SOL    HW227710   5.471   7.160   4.526
75293SOL     OW27711   8.146   4.363  12.938
75293SOL    HW127712   8.103   4.319  13.011
75293SOL    HW227713   8.229   4.395  12.974
75294SOL     OW27714   9.527   5.090   4.164
75294SOL    HW127715   9.604   5.132   4.202
75294SOL    HW227716   9.473   5.067   4.239
75295SOL     OW27717   0.716   5.216   7.791
75295SOL    HW127718   0.779   5.257   7.850
75295SOL    HW227719   0.708   5.126   7.822
75296SOL     OW27720   9.596   4.370   5.973
75296SOL    HW127721   9.623   4.434   6.039
75296SOL    HW227722   9.665   4.304   5.975
75297SOL     OW27723   7.525   4.709   9.999
75297SOL    HW127724   7.588   4.781   9.993
75297SOL    HW227725   7.550   4.650   9.928
75298SOL     OW27726  13.547  12.499  10.169
75298SOL    HW127727  13.606  12.537  10.235
75298SOL    HW227728  13.509  12.575  10.126
75299SOL     OW27729   3.495   0.790   3.281
75299SOL    HW127730   3.459   0.826   3.200
75299SOL    HW227731   3.457   0.844   3.350
75300SOL     OW27732   5.704  13.714   6.284
75300SOL    HW127733   5.733  13.655   6.215
75300SOL    HW227734   5.725  13.668   6.366
75301SOL     OW27735  13.170   3.402  12.156
75301SOL    HW127736  13.212   3.322  12.187
75301SOL    HW227737  13.243   3.460  12.134
75302SOL     OW27738   1.791   8.224   1.446
75302SOL    HW127739   1.747   8.152   1.402
75302SOL    HW227740   1.765   8.215   1.538
75303SOL     OW27741   5.280   1.396  10.054
75303SOL    HW127742   5.356   1.353  10.015
75303SOL    HW227743   5.208   1.379   9.992
75304SOL     OW27744  14.189   4.729  10.811
75304SOL    HW127745  14.270   4.713  10.860
75304SOL    HW227746  14.167   4.644  10.774
75305SOL     OW27747   5.614   4.161   9.948
75305SOL    HW127748   5.558   4.172   9.870
75305SOL    HW227749   5.587   4.232  10.006
75306SOL     OW27750   0.924   0.364  10.451
75306SOL    HW127751   0.921   0.275  10.486
75306SOL    HW227752   0.839   0.377  10.409
75307SOL     OW27753   3.480   3.667   1.128
75307SOL    HW127754   3.575   3.653   1.134
75307SOL    HW227755   3.447   3.586   1.091
75308SOL     OW27756  13.507   1.204   7.592
75308SOL    HW127757  13.479   1.270   7.655
75308SOL    HW227758  13.428   1.182   7.544
75309SOL     OW27759   8.127   6.132   8.639
75309SOL    HW127760   8.194   6.072   8.671
75309SOL    HW227761   8.044   6.089   8.659
75310SOL     OW27762   6.773  12.084   9.068
75310SOL    HW127763   6.757  12.131   8.986
75310SOL    HW227764   6.737  12.142   9.136
75311SOL     OW27765  14.752  10.260   0.456
75311SOL    HW127766  14.752  10.354   0.476
75311SOL    HW227767  14.660  10.234   0.462
75312SOL     OW27768   5.742   6.180   6.011
75312SOL    HW127769   5.770   6.093   6.039
75312SOL    HW227770   5.662   6.163   5.961
75313SOL     OW27771  13.634  13.172  14.860
75313SOL    HW127772  13.570  13.172  14.790
75313SOL    HW227773  13.633  13.262   0.015
75314SOL     OW27774  12.706  11.768   2.531
75314SOL    HW127775  12.617  11.738   2.513
75314SOL    HW227776  12.707  11.787   2.624
75315SOL     OW27777   0.231   3.319  14.661
75315SOL    HW127778   0.241   3.309  14.566
75315SOL    HW227779   0.175   3.396  14.671
75316SOL     OW27780   2.575  11.817  12.076
75316SOL    HW127781   2.633  11.795  12.150
75316SOL    HW227782   2.632  11.862  12.014
75317SOL     OW27783   7.891   3.664   0.342
75317SOL    HW127784   7.877   3.699   0.254
75317SOL    HW227785   7.862   3.735   0.401
75318SOL     OW27786   2.272   9.593   1.321
75318SOL    HW127787   2.273   9.556   1.233
75318SOL    HW227788   2.347   9.653   1.322
75319SOL     OW27789   7.075   8.861   2.731
75319SOL    HW127790   6.994   8.811   2.725
75319SOL    HW227791   7.047   8.952   2.731
75320SOL     OW27792   6.897   0.521   1.848
75320SOL    HW127793   6.893   0.425   1.843
75320SOL    HW227794   6.942   0.538   1.931
75321SOL     OW27795  11.695   3.051   2.284
75321SOL    HW127796  11.744   3.122   2.326
75321SOL    HW227797  11.636   3.095   2.223
75322SOL     OW27798   3.379  14.661   4.225
75322SOL    HW127799   3.320  14.643   4.152
75322SOL    HW227800   3.464  14.675   4.184
75323SOL     OW27801   4.067   9.512   8.132
75323SOL    HW127802   4.111   9.588   8.169
75323SOL    HW227803   4.000   9.489   8.196
75324SOL     OW27804   1.840   4.627   1.571
75324SOL    HW127805   1.827   4.549   1.517
75324SOL    HW227806   1.765   4.683   1.549
75325SOL     OW27807   9.821   3.468   8.412
75325SOL    HW127808   9.826   3.409   8.336
75325SOL    HW227809   9.904   3.515   8.411
75326SOL     OW27810   2.185  10.700  14.039
75326SOL    HW127811   2.115  10.744  13.990
75326SOL    HW227812   2.138  10.642  14.100
75327SOL     OW27813   4.096  10.393  10.664
75327SOL    HW127814   4.113  10.354  10.578
75327SOL    HW227815   4.112  10.487  10.652
75328SOL     OW27816   7.911   5.338  10.976
75328SOL    HW127817   7.945   5.276  11.040
75328SOL    HW227818   7.984   5.355  10.916
75329SOL     OW27819   1.068   0.985  14.457
75329SOL    HW127820   1.055   1.045  14.384
75329SOL    HW227821   1.009   1.018  14.525
75330SOL     OW27822   8.661  14.194  11.345
75330SOL    HW127823   8.575  14.207  11.305
75330SOL    HW227824   8.646  14.126  11.410
75331SOL     OW27825   9.301   8.313  10.023
75331SOL    HW127826   9.288   8.406  10.042
75331SOL    HW227827   9.255   8.267  10.093
75332SOL     OW27828   8.228   5.339  14.834
75332SOL    HW127829   8.211   5.369  14.745
75332SOL    HW227830   8.151   5.287  14.858
75333SOL     OW27831  12.899  14.587  13.977
75333SOL    HW127832  12.978  14.641  13.982
75333SOL    HW227833  12.930  14.502  13.948
75334SOL     OW27834   0.241   9.166   0.991
75334SOL    HW127835   0.190   9.088   0.969
75334SOL    HW227836   0.306   9.172   0.921
75335SOL     OW27837   8.607  10.941   7.458
75335SOL    HW127838   8.694  10.979   7.468
75335SOL    HW227839   8.596  10.930   7.363
75336SOL     OW27840  10.608   7.320   4.736
75336SOL    HW127841  10.670   7.303   4.665
75336SOL    HW227842  10.582   7.232   4.765
75337SOL     OW27843  10.977   0.761  12.421
75337SOL    HW127844  10.982   0.772  12.516
75337SOL    HW227845  10.987   0.667  12.407
75338SOL     OW27846   1.999   6.739   4.539
75338SOL    HW127847   1.974   6.781   4.457
75338SOL    HW227848   1.929   6.676   4.556
75339SOL     OW27849   2.722   1.990   1.124
75339SOL    HW127850   2.630   1.979   1.148
75339SOL    HW227851   2.763   2.026   1.203
75340SOL     OW27852   3.733   2.570   0.971
75340SOL    HW127853   3.785   2.526   0.903
75340SOL    HW227854   3.694   2.499   1.021
75341SOL     OW27855   2.534   7.475   0.363
75341SOL    HW127856   2.622   7.459   0.397
75341SOL    HW227857   2.491   7.390   0.366
75342SOL     OW27858  14.754  14.431   4.492
75342SOL    HW127859  14.743  14.461   4.402
75342SOL    HW227860  14.776  14.338   4.484
75343SOL     OW27861  12.496  11.061   9.706
75343SOL    HW127862  12.463  11.143   9.669
75343SOL    HW227863  12.449  11.052   9.789
75344SOL     OW27864   7.456   4.807  10.414
75344SOL    HW127865   7.449   4.734  10.475
75344SOL    HW227866   7.402   4.781  10.339
75345SOL     OW27867   0.353   2.413   1.736
75345SOL    HW127868   0.395   2.334   1.700
75345SOL    HW227869   0.260   2.390   1.742
75346SOL     OW27870   3.212  13.803  10.766
75346SOL    HW127871   3.180  13.822  10.678
75346SOL    HW227872   3.255  13.884  10.793
75347SOL     OW27873   0.582   6.242  11.704
75347SOL    HW127874   0.493   6.278  11.709
75347SOL    HW227875   0.597   6.231  11.610
75348SOL     OW27876  13.629  13.791  12.463
75348SOL    HW127877  13.637  13.785  12.558
75348SOL    HW227878  13.629  13.885  12.444
75349SOL     OW27879  11.628  14.874   0.151
75349SOL    HW127880  11.650  14.784   0.127
75349SOL    HW227881  11.532  14.873   0.160
75350SOL     OW27882   2.907   5.332  12.912
75350SOL    HW127883   2.837   5.310  12.973
75350SOL    HW227884   2.981   5.277  12.940
75351SOL     OW27885   5.246   6.331  10.529
75351SOL    HW127886   5.263   6.352  10.437
75351SOL    HW227887   5.293   6.249  10.544
75352SOL     OW27888  14.712   9.462  12.376
75352SOL    HW127889  14.778   9.408  12.420
75352SOL    HW227890  14.645   9.399  12.348
75353SOL     OW27891   2.843   1.038   4.312
75353SOL    HW127892   2.762   1.085   4.330
75353SOL    HW227893   2.816   0.966   4.254
75354SOL     OW27894  14.537  14.543   2.767
75354SOL    HW127895  14.574  14.537   2.679
75354SOL    HW227896  14.448  14.576   2.754
75355SOL     OW27897   6.716  12.356   4.002
75355SOL    HW127898   6.785  12.290   4.013
75355SOL    HW227899   6.763  12.436   3.981
75356SOL     OW27900  11.314   6.919   9.564
75356SOL    HW127901  11.338   6.827   9.567
75356SOL    HW227902  11.220   6.920   9.579
75357SOL     OW27903   2.062   0.659  12.593
75357SOL    HW127904   2.144   0.692  12.555
75357SOL    HW227905   2.049   0.574  12.552
75358SOL     OW27906  10.325  13.363  13.680
75358SOL    HW127907  10.336  13.453  13.649
75358SOL    HW227908  10.249  13.330  13.630
75359SOL     OW27909   1.171   2.122   6.675
75359SOL    HW127910   1.132   2.078   6.750
75359SOL    HW227911   1.136   2.076   6.599
75360SOL     OW27912   1.661   7.104   3.771
75360SOL    HW127913   1.696   7.065   3.851
75360SOL    HW227914   1.593   7.163   3.801
75361SOL     OW27915   0.855   9.418   2.922
75361SOL    HW127916   0.829   9.335   2.882
75361SOL    HW227917   0.902   9.392   3.002
75362SOL     OW27918   9.386   9.929  12.100
75362SOL    HW127919   9.401   9.967  12.186
75362SOL    HW227920   9.466   9.881  12.080
75363SOL     OW27921  12.835   6.708   0.068
75363SOL    HW127922  12.781   6.654   0.125
75363SOL    HW227923  12.839   6.793   0.112
75364SOL     OW27924   0.571  11.586   7.499
75364SOL    HW127925   0.500  11.644   7.526
75364SOL    HW227926   0.593  11.614   7.410
75365SOL     OW27927   5.231   7.522  13.410
75365SOL    HW127928   5.312   7.547  13.455
75365SOL    HW227929   5.167   7.586  13.440
75366SOL     OW27930  11.366   7.691   1.997
75366SOL    HW127931  11.430   7.624   1.973
75366SOL    HW227932  11.343   7.672   2.087
75367SOL     OW27933  14.435   9.521   2.670
75367SOL    HW127934  14.344   9.499   2.648
75367SOL    HW227935  14.478   9.532   2.586
75368SOL     OW27936   0.811  11.034  14.181
75368SOL    HW127937   0.838  11.058  14.269
75368SOL    HW227938   0.844  10.944  14.169
75369SOL     OW27939  13.020   2.122  13.332
75369SOL    HW127940  13.098   2.170  13.305
75369SOL    HW227941  13.012   2.051  13.268
75370SOL     OW27942   3.039   2.095  13.217
75370SOL    HW127943   2.981   2.040  13.164
75370SOL    HW227944   3.127   2.065  13.195
75371SOL     OW27945   0.513  11.213   9.050
75371SOL    HW127946   0.504  11.122   9.078
75371SOL    HW227947   0.589  11.213   8.992
75372SOL     OW27948  14.867   0.615  11.544
75372SOL    HW127949  14.808   0.576  11.479
75372SOL    HW227950  14.819   0.610  11.627
75373SOL     OW27951  10.351  13.387   7.592
75373SOL    HW127952  10.432  13.437   7.601
75373SOL    HW227953  10.294  13.422   7.660
75374SOL     OW27954   3.141   7.930   0.912
75374SOL    HW127955   3.134   7.995   0.981
75374SOL    HW227956   3.091   7.966   0.839
75375SOL     OW27957  13.677  14.245   0.143
75375SOL    HW127958  13.686  14.150   0.139
75375SOL    HW227959  13.594  14.263   0.098
75376SOL     OW27960   1.571   8.434   6.721
75376SOL    HW127961   1.560   8.487   6.800
75376SOL    HW227962   1.579   8.499   6.651
75377SOL     OW27963   0.674   6.458   7.062
75377SOL    HW127964   0.753   6.431   7.016
75377SOL    HW227965   0.604   6.450   6.998
75378SOL     OW27966  10.816   6.320  12.829
75378SOL    HW127967  10.829   6.352  12.740
75378SOL    HW227968  10.721   6.316  12.839
75379SOL     OW27969   5.627  12.912   7.919
75379SOL    HW127970   5.614  12.997   7.961
75379SOL    HW227971   5.686  12.930   7.845
75380SOL     OW27972  11.640   9.569   6.564
75380SOL    HW127973  11.646   9.519   6.646
75380SOL    HW227974  11.585   9.515   6.507
75381SOL     OW27975   6.193   7.028   7.371
75381SOL    HW127976   6.099   7.017   7.354
75381SOL    HW227977   6.216   6.952   7.425
75382SOL     OW27978  11.005   9.581  10.557
75382SOL    HW127979  11.010   9.487  10.539
75382SOL    HW227980  10.926   9.611  10.513
75383SOL     OW27981  13.223   7.378   5.919
75383SOL    HW127982  13.235   7.444   5.851
75383SOL    HW227983  13.274   7.303   5.888
75384SOL     OW27984  12.988   8.095  11.120
75384SOL    HW127985  13.004   8.164  11.185
75384SOL    HW227986  13.058   8.032  11.134
75385SOL     OW27987  11.510   6.467   5.974
75385SOL    HW127988  11.522   6.480   5.880
75385SOL    HW227989  11.420   6.496   5.991
75386SOL     OW27990  10.767  10.843   3.814
75386SOL    HW127991  10.780  10.881   3.728
75386SOL    HW227992  10.693  10.890   3.851
75387SOL     OW27993   0.788  12.524   0.198
75387SOL    HW127994   0.804  12.463   0.270
75387SOL    HW227995   0.699  12.556   0.212
75388SOL     OW27996  11.331  14.292  11.339
75388SOL    HW127997  11.336  14.271  11.246
75388SOL    HW227998  11.255  14.349  11.347
75389SOL     OW27999   4.516   6.138   0.506
75389SOL    HW128000   4.586   6.104   0.562
75389SOL    HW228001   4.518   6.232   0.518
75390SOL     OW28002   3.478   9.777   0.866
75390SOL    HW128003   3.471   9.829   0.786
75390SOL    HW228004   3.538   9.706   0.843
75391SOL     OW28005   8.867   2.938   1.483
75391SOL    HW128006   8.956   2.916   1.456
75391SOL    HW228007   8.845   3.016   1.431
75392SOL     OW28008   6.309   5.046   2.891
75392SOL    HW128009   6.379   4.984   2.907
75392SOL    HW228010   6.349   5.132   2.903
75393SOL     OW28011   5.280   0.220  12.784
75393SOL    HW128012   5.272   0.143  12.841
75393SOL    HW228013   5.369   0.215  12.749
75394SOL     OW28014  12.558  11.326   4.118
75394SOL    HW128015  12.565  11.263   4.047
75394SOL    HW228016  12.491  11.388   4.088
75395SOL     OW28017  14.049   0.341  13.349
75395SOL    HW128018  13.982   0.382  13.404
75395SOL    HW228019  14.052   0.250  13.378
75396SOL     OW28020   7.493   0.982  13.790
75396SOL    HW128021   7.469   0.889  13.788
75396SOL    HW228022   7.468   1.015  13.704
75397SOL     OW28023   4.510   3.937   1.928
75397SOL    HW128024   4.509   3.874   1.855
75397SOL    HW228025   4.601   3.963   1.936
75398SOL     OW28026  10.143   1.745  12.473
75398SOL    HW128027  10.123   1.788  12.556
75398SOL    HW228028  10.238   1.756  12.463
75399SOL     OW28029   4.671  13.281  13.947
75399SOL    HW128030   4.721  13.205  13.976
75399SOL    HW228031   4.711  13.355  13.991
75400SOL     OW28032   1.040   9.704   5.174
75400SOL    HW128033   1.010   9.626   5.220
75400SOL    HW228034   1.130   9.683   5.148
75401SOL     OW28035  10.839  10.589   4.088
75401SOL    HW128036  10.777  10.526   4.125
75401SOL    HW228037  10.830  10.578   3.993
75402SOL     OW28038  10.889   2.622   6.950
75402SOL    HW128039  10.875   2.625   6.855
75402SOL    HW228040  10.955   2.555   6.962
75403SOL     OW28041   2.121  11.254   0.049
75403SOL    HW128042   2.100  11.160   0.051
75403SOL    HW228043   2.190  11.261  14.862
75404SOL     OW28044   4.214   2.565  10.829
75404SOL    HW128045   4.262   2.544  10.908
75404SOL    HW228046   4.127   2.593  10.860
75405SOL     OW28047  13.305  14.100   7.810
75405SOL    HW128048  13.386  14.097   7.861
75405SOL    HW228049  13.281  14.193   7.810
75406SOL     OW28050   6.375  13.035   3.700
75406SOL    HW128051   6.351  12.966   3.638
75406SOL    HW228052   6.304  13.099   3.692
75407SOL     OW28053   8.520  12.904   0.086
75407SOL    HW128054   8.548  12.854   0.009
75407SOL    HW228055   8.463  12.844   0.133
75408SOL     OW28056   1.431   6.725   0.656
75408SOL    HW128057   1.422   6.777   0.576
75408SOL    HW228058   1.519   6.744   0.688
75409SOL     OW28059   3.552  11.600   4.576
75409SOL    HW128060   3.591  11.681   4.542
75409SOL    HW228061   3.525  11.551   4.499
75410SOL     OW28062   9.317   1.434   7.278
75410SOL    HW128063   9.387   1.497   7.298
75410SOL    HW228064   9.253   1.485   7.228
75411SOL     OW28065  14.517   4.279   8.289
75411SOL    HW128066  14.609   4.282   8.316
75411SOL    HW228067  14.484   4.367   8.309
75412SOL     OW28068  10.147   9.561  12.553
75412SOL    HW128069  10.126   9.614  12.476
75412SOL    HW228070  10.115   9.474  12.531
75413SOL     OW28071   2.456   6.791   6.700
75413SOL    HW128072   2.533   6.843   6.723
75413SOL    HW228073   2.453   6.794   6.604
75414SOL     OW28074  11.839   2.869   5.497
75414SOL    HW128075  11.802   2.949   5.459
75414SOL    HW228076  11.782   2.849   5.571
75415SOL     OW28077   6.337   1.598   3.028
75415SOL    HW128078   6.272   1.647   2.979
75415SOL    HW228079   6.340   1.641   3.114
75416SOL     OW28080  10.175  13.771   4.059
75416SOL    HW128081  10.163  13.865   4.071
75416SOL    HW228082  10.120  13.731   4.126
75417SOL     OW28083   1.926  13.757   4.308
75417SOL    HW128084   1.860  13.825   4.297
75417SOL    HW228085   1.971  13.754   4.224
75418SOL     OW28086  12.499   0.903   9.435
75418SOL    HW128087  12.467   0.815   9.413
75418SOL    HW228088  12.424   0.946   9.476
75419SOL     OW28089   7.061   1.880   2.346
75419SOL    HW128090   7.114   1.918   2.276
75419SOL    HW228091   7.118   1.882   2.423
75420SOL     OW28092   7.948   3.144   2.758
75420SOL    HW128093   7.897   3.155   2.838
75420SOL    HW228094   7.882   3.125   2.691
75421SOL     OW28095  13.684   0.446   8.287
75421SOL    HW128096  13.742   0.470   8.214
75421SOL    HW228097  13.687   0.521   8.346
75422SOL     OW28098  12.069   7.124   0.160
75422SOL    HW128099  11.989   7.071   0.161
75422SOL    HW228100  12.069   7.169   0.244
75423SOL     OW28101  14.272   2.909   6.378
75423SOL    HW128102  14.365   2.909   6.356
75423SOL    HW228103  14.244   2.819   6.362
75424SOL     OW28104  12.808   3.010   5.521
75424SOL    HW128105  12.721   3.040   5.493
75424SOL    HW228106  12.868   3.076   5.486
75425SOL     OW28107  12.632   8.406  14.542
75425SOL    HW128108  12.539   8.426  14.550
75425SOL    HW228109  12.676   8.479  14.585
75426SOL     OW28110  12.517  13.744  12.159
75426SOL    HW128111  12.529  13.725  12.066
75426SOL    HW228112  12.495  13.837  12.162
75427SOL     OW28113  12.975   8.583   0.683
75427SOL    HW128114  12.963   8.493   0.653
75427SOL    HW228115  12.895   8.604   0.730
75428SOL     OW28116   0.935  13.253   7.610
75428SOL    HW128117   0.844  13.262   7.582
75428SOL    HW228118   0.980  13.219   7.533
75429SOL     OW28119  13.191  13.160   5.149
75429SOL    HW128120  13.213  13.095   5.083
75429SOL    HW228121  13.254  13.231   5.137
75430SOL     OW28122   9.263   4.080   2.032
75430SOL    HW128123   9.331   4.045   1.974
75430SOL    HW228124   9.290   4.170   2.050
75431SOL     OW28125   9.005   2.238  14.107
75431SOL    HW128126   9.071   2.301  14.077
75431SOL    HW228127   8.931   2.251  14.048
75432SOL     OW28128   4.471  12.953   5.380
75432SOL    HW128129   4.549  13.003   5.357
75432SOL    HW228130   4.502  12.863   5.389
75433SOL     OW28131  11.597   7.913  11.619
75433SOL    HW128132  11.570   7.866  11.697
75433SOL    HW228133  11.691   7.894  11.611
75434SOL     OW28134  13.163   5.291   1.759
75434SOL    HW128135  13.120   5.216   1.718
75434SOL    HW228136  13.136   5.289   1.850
75435SOL     OW28137   9.151   1.130   4.649
75435SOL    HW128138   9.122   1.038   4.647
75435SOL    HW228139   9.159   1.150   4.742
75436SOL     OW28140   2.823   3.528   8.214
75436SOL    HW128141   2.825   3.620   8.187
75436SOL    HW228142   2.906   3.516   8.261
75437SOL     OW28143   5.426  13.754  10.650
75437SOL    HW128144   5.336  13.737  10.624
75437SOL    HW228145   5.423  13.837  10.697
75438SOL     OW28146   9.698   0.911   5.962
75438SOL    HW128147   9.689   0.816   5.966
75438SOL    HW228148   9.650   0.936   5.883
75439SOL     OW28149   7.954   8.495   1.832
75439SOL    HW128150   8.044   8.478   1.860
75439SOL    HW228151   7.957   8.581   1.791
75440SOL     OW28152   0.983  13.767   7.423
75440SOL    HW128153   0.995  13.857   7.451
75440SOL    HW228154   1.043  13.716   7.477
75441SOL     OW28155  12.569  14.139   2.403
75441SOL    HW128156  12.519  14.205   2.452
75441SOL    HW228157  12.549  14.056   2.447
75442SOL     OW28158   5.363  13.818   1.616
75442SOL    HW128159   5.371  13.913   1.624
75442SOL    HW228160   5.427  13.795   1.549
75443SOL     OW28161   8.073  12.156   1.238
75443SOL    HW128162   8.031  12.217   1.177
75443SOL    HW228163   8.041  12.183   1.324
75444SOL     OW28164   1.142   6.915   3.643
75444SOL    HW128165   1.177   6.861   3.573
75444SOL    HW228166   1.171   6.872   3.724
75445SOL     OW28167   6.609   2.246  11.094
75445SOL    HW128168   6.606   2.319  11.156
75445SOL    HW228169   6.523   2.203  11.103
75446SOL     OW28170  10.689   4.569  10.485
75446SOL    HW128171  10.719   4.660  10.495
75446SOL    HW228172  10.634   4.570  10.407
75447SOL     OW28173   0.013   2.299   0.643
75447SOL    HW128174  14.846   2.232   0.693
75447SOL    HW228175  14.837   2.314   0.566
75448SOL     OW28176   7.091  11.209   3.561
75448SOL    HW128177   7.183  11.235   3.558
75448SOL    HW228178   7.057  11.230   3.475
75449SOL     OW28179   1.750   1.307   5.491
75449SOL    HW128180   1.776   1.289   5.581
75449SOL    HW228181   1.664   1.265   5.481
75450SOL     OW28182  14.154   5.957   4.647
75450SOL    HW128183  14.094   5.948   4.722
75450SOL    HW228184  14.096   5.965   4.571
75451SOL     OW28185  10.543   8.498   7.509
75451SOL    HW128186  10.450   8.483   7.526
75451SOL    HW228187  10.555   8.475   7.418
75452SOL     OW28188   6.525   3.453   9.966
75452SOL    HW128189   6.439   3.485   9.994
75452SOL    HW228190   6.588   3.499  10.021
75453SOL     OW28191  11.500   7.990   9.778
75453SOL    HW128192  11.459   8.020   9.697
75453SOL    HW228193  11.451   8.034   9.847
75454SOL     OW28194  10.184   4.291   4.715
75454SOL    HW128195  10.181   4.366   4.775
75454SOL    HW228196  10.259   4.239   4.746
75455SOL     OW28197  11.810   3.796  14.798
75455SOL    HW128198  11.843   3.756  14.718
75455SOL    HW228199  11.858   3.752  14.868
75456SOL     OW28200  11.128  12.678   8.495
75456SOL    HW128201  11.180  12.675   8.576
75456SOL    HW228202  11.044  12.639   8.519
75457SOL     OW28203   5.664   4.090  13.307
75457SOL    HW128204   5.688   4.102  13.399
75457SOL    HW228205   5.670   4.178  13.269
75458SOL     OW28206   2.840  10.060  14.816
75458SOL    HW128207   2.900   9.998  14.857
75458SOL    HW228208   2.892  10.140  14.805
75459SOL     OW28209   2.395   5.733   1.036
75459SOL    HW128210   2.424   5.823   1.044
75459SOL    HW228211   2.307   5.739   0.999
75460SOL     OW28212   7.531   0.303   8.622
75460SOL    HW128213   7.596   0.234   8.607
75460SOL    HW228214   7.564   0.352   8.697
75461SOL     OW28215   9.078   8.203   3.620
75461SOL    HW128216   8.984   8.182   3.623
75461SOL    HW228217   9.100   8.225   3.710
75462SOL     OW28218  14.107  10.042   0.454
75462SOL    HW128219  14.139   9.952   0.450
75462SOL    HW228220  14.178  10.091   0.496
75463SOL     OW28221   4.532  12.711  12.144
75463SOL    HW128222   4.618  12.680  12.114
75463SOL    HW228223   4.471  12.645  12.113
75464SOL     OW28224   7.461   6.075   1.716
75464SOL    HW128225   7.501   6.053   1.800
75464SOL    HW228226   7.516   6.031   1.651
75465SOL     OW28227  13.399   9.267  10.084
75465SOL    HW128228  13.390   9.353  10.043
75465SOL    HW228229  13.398   9.285  10.178
75466SOL     OW28230   6.905   0.752   7.415
75466SOL    HW128231   6.866   0.744   7.328
75466SOL    HW228232   6.840   0.714   7.474
75467SOL     OW28233   5.193  14.642   2.873
75467SOL    HW128234   5.231  14.729   2.857
75467SOL    HW228235   5.197  14.632   2.968
75468SOL     OW28236  10.001   3.391   3.856
75468SOL    HW128237   9.976   3.462   3.797
75468SOL    HW228238  10.089   3.414   3.886
75469SOL     OW28239   5.932  14.320   2.021
75469SOL    HW128240   5.855  14.280   1.980
75469SOL    HW228241   5.943  14.274   2.104
75470SOL     OW28242  12.904   7.538   7.417
75470SOL    HW128243  12.835   7.516   7.355
75470SOL    HW228244  12.925   7.629   7.398
75471SOL     OW28245   6.681  13.235  14.114
75471SOL    HW128246   6.599  13.231  14.065
75471SOL    HW228247   6.749  13.219  14.048
75472SOL     OW28248   5.472  11.638   9.442
75472SOL    HW128249   5.495  11.628   9.350
75472SOL    HW228250   5.430  11.555   9.465
75473SOL     OW28251  12.080   8.066  10.252
75473SOL    HW128252  12.155   8.079  10.194
75473SOL    HW228253  12.025   8.143  10.239
75474SOL     OW28254  13.571  13.935   4.097
75474SOL    HW128255  13.578  14.031   4.096
75474SOL    HW228256  13.573  13.912   4.189
75475SOL     OW28257   8.409  13.159   6.651
75475SOL    HW128258   8.422  13.139   6.558
75475SOL    HW228259   8.355  13.087   6.683
75476SOL     OW28260   6.970   6.329   9.728
75476SOL    HW128261   7.027   6.398   9.761
75476SOL    HW228262   7.021   6.287   9.659
75477SOL     OW28263   6.679   7.702   0.331
75477SOL    HW128264   6.683   7.616   0.290
75477SOL    HW228265   6.596   7.702   0.378
75478SOL     OW28266   2.201   5.556   3.781
75478SOL    HW128267   2.148   5.636   3.789
75478SOL    HW228268   2.179   5.505   3.859
75479SOL     OW28269   0.576   6.743   5.102
75479SOL    HW128270   0.502   6.773   5.049
75479SOL    HW228271   0.596   6.656   5.067
75480SOL     OW28272   0.292   7.118   7.502
75480SOL    HW128273   0.261   7.096   7.413
75480SOL    HW228274   0.339   7.039   7.530
75481SOL     OW28275  10.987   9.252  10.652
75481SOL    HW128276  10.910   9.309  10.651
75481SOL    HW228277  10.987   9.213  10.739
75482SOL     OW28278   6.937  12.906   0.592
75482SOL    HW128279   7.007  12.842   0.593
75482SOL    HW228280   6.935  12.939   0.502
75483SOL     OW28281  14.661   5.281   5.032
75483SOL    HW128282  14.702   5.337   4.966
75483SOL    HW228283  14.600   5.339   5.078
75484SOL     OW28284  13.940   1.463   1.581
75484SOL    HW128285  14.035   1.468   1.571
75484SOL    HW228286  13.906   1.466   1.491
75485SOL     OW28287   8.229   6.068  11.835
75485SOL    HW128288   8.260   6.031  11.753
75485SOL    HW228289   8.267   6.155  11.839
75486SOL     OW28290   4.004  13.445  11.959
75486SOL    HW128291   3.961  13.500  11.894
75486SOL    HW228292   3.986  13.487  12.043
75487SOL     OW28293   7.465   3.464   2.836
75487SOL    HW128294   7.463   3.399   2.766
75487SOL    HW228295   7.375   3.469   2.867
75488SOL     OW28296   0.197  10.969   7.794
75488SOL    HW128297   0.175  11.037   7.729
75488SOL    HW228298   0.265  11.009   7.848
75489SOL     OW28299   9.384  11.308   7.619
75489SOL    HW128300   9.460  11.304   7.678
75489SOL    HW228301   9.368  11.402   7.608
75490SOL     OW28302  13.778   6.653  14.645
75490SOL    HW128303  13.737   6.568  14.624
75490SOL    HW228304  13.707   6.716  14.635
75491SOL     OW28305   7.518   2.411  12.853
75491SOL    HW128306   7.527   2.319  12.880
75491SOL    HW228307   7.464   2.451  12.920
75492SOL     OW28308   8.053  13.806   0.205
75492SOL    HW128309   8.060  13.750   0.127
75492SOL    HW228310   8.007  13.884   0.173
75493SOL     OW28311   0.291   8.508   6.951
75493SOL    HW128312   0.316   8.525   7.042
75493SOL    HW228313   0.373   8.512   6.902
75494SOL     OW28314   6.365   4.467  11.822
75494SOL    HW128315   6.350   4.377  11.793
75494SOL    HW228316   6.279   4.509  11.814
75495SOL     OW28317   1.738   7.279   8.913
75495SOL    HW128318   1.811   7.262   8.854
75495SOL    HW228319   1.777   7.325   8.987
75496SOL     OW28320   9.623   9.592   5.561
75496SOL    HW128321   9.617   9.687   5.549
75496SOL    HW228322   9.716   9.572   5.551
75497SOL     OW28323   5.267   1.399  12.763
75497SOL    HW128324   5.346   1.421  12.712
75497SOL    HW228325   5.240   1.314  12.729
75498SOL     OW28326   6.902  13.783   6.544
75498SOL    HW128327   6.812  13.754   6.528
75498SOL    HW228328   6.944  13.779   6.458
75499SOL     OW28329  11.400  14.452  10.610
75499SOL    HW128330  11.351  14.418  10.534
75499SOL    HW228331  11.482  14.485  10.572
75500SOL     OW28332   7.738   6.424   9.151
75500SOL    HW128333   7.684   6.458   9.080
75500SOL    HW228334   7.763   6.501   9.202
75501SOL     OW28335   4.302   4.134  10.861
75501SOL    HW128336   4.276   4.177  10.942
75501SOL    HW228337   4.383   4.088  10.883
75502SOL     OW28338   5.668   8.692  13.339
75502SOL    HW128339   5.730   8.640  13.390
75502SOL    HW228340   5.615   8.627  13.292
75503SOL     OW28341   4.211   8.087   0.156
75503SOL    HW128342   4.168   8.154   0.103
75503SOL    HW228343   4.180   8.103   0.245
75504SOL     OW28344   2.436  10.603   2.865
75504SOL    HW128345   2.492  10.680   2.858
75504SOL    HW228346   2.381  10.606   2.787
75505SOL     OW28347   2.758   1.645   4.283
75505SOL    HW128348   2.724   1.731   4.258
75505SOL    HW228349   2.792   1.657   4.372
75506SOL     OW28350   8.225  14.504  11.392
75506SOL    HW128351   8.297  14.490  11.454
75506SOL    HW228352   8.265  14.549  11.318
75507SOL     OW28353  14.186  11.123   1.617
75507SOL    HW128354  14.254  11.162   1.562
75507SOL    HW228355  14.212  11.144   1.706
75508SOL     OW28356   5.337   7.154   2.857
75508SOL    HW128357   5.259   7.156   2.911
75508SOL    HW228358   5.323   7.223   2.792
75509SOL     OW28359  14.444  14.289  10.887
75509SOL    HW128360  14.411  14.378  10.876
75509SOL    HW228361  14.366  14.235  10.894
75510SOL     OW28362   3.724   9.530   0.213
75510SOL    HW128363   3.639   9.500   0.246
75510SOL    HW228364   3.775   9.451   0.201
75511SOL     OW28365   8.694  12.668   0.478
75511SOL    HW128366   8.699  12.762   0.459
75511SOL    HW228367   8.633  12.661   0.551
75512SOL     OW28368   2.802  10.538  13.227
75512SOL    HW128369   2.872  10.564  13.287
75512SOL    HW228370   2.788  10.615  13.172
75513SOL     OW28371   8.345   5.062  14.136
75513SOL    HW128372   8.351   5.128  14.204
75513SOL    HW228373   8.402   5.094  14.066
75514SOL     OW28374  11.248   9.173   8.688
75514SOL    HW128375  11.341   9.182   8.707
75514SOL    HW228376  11.245   9.145   8.596
75515SOL     OW28377   0.828   6.531  14.047
75515SOL    HW128378   0.831   6.441  14.082
75515SOL    HW228379   0.838   6.587  14.124
75516SOL     OW28380   4.390  13.779  11.460
75516SOL    HW128381   4.417  13.789  11.369
75516SOL    HW228382   4.469  13.749  11.506
75517SOL     OW28383   8.838  12.405   6.019
75517SOL    HW128384   8.832  12.461   5.942
75517SOL    HW228385   8.796  12.456   6.089
75518SOL     OW28386   0.464   6.865  12.592
75518SOL    HW128387   0.530   6.934  12.604
75518SOL    HW228388   0.410   6.896  12.519
75519SOL     OW28389  14.531   0.352   8.309
75519SOL    HW128390  14.616   0.309   8.292
75519SOL    HW228391  14.467   0.294   8.268
75520SOL     OW28392  13.594   9.402  14.773
75520SOL    HW128393  13.573   9.495  14.763
75520SOL    HW228394  13.618   9.373  14.685
75521SOL     OW28395  11.149  11.400   4.694
75521SOL    HW128396  11.157  11.323   4.637
75521SOL    HW228397  11.055  11.417   4.696
75522SOL     OW28398   6.019   0.756  13.699
75522SOL    HW128399   6.028   0.847  13.729
75522SOL    HW228400   6.098   0.739  13.648
75523SOL     OW28401   3.861   7.824   1.475
75523SOL    HW128402   3.801   7.882   1.428
75523SOL    HW228403   3.941   7.825   1.423
75524SOL     OW28404  12.633   7.809  11.225
75524SOL    HW128405  12.676   7.841  11.145
75524SOL    HW228406  12.608   7.889  11.273
75525SOL     OW28407  10.297   7.724   1.603
75525SOL    HW128408  10.265   7.638   1.575
75525SOL    HW228409  10.323   7.711   1.694
75526SOL     OW28410  12.167   0.159   0.744
75526SOL    HW128411  12.173   0.089   0.808
75526SOL    HW228412  12.087   0.206   0.766
75527SOL     OW28413  13.975   2.082   6.434
75527SOL    HW128414  13.937   2.037   6.358
75527SOL    HW228415  14.054   2.033   6.455
75528SOL     OW28416   9.610   2.734   9.876
75528SOL    HW128417   9.557   2.790   9.934
75528SOL    HW228418   9.700   2.763   9.892
75529SOL     OW28419   3.411   0.354   7.881
75529SOL    HW128420   3.491   0.385   7.924
75529SOL    HW228421   3.375   0.288   7.941
75530SOL     OW28422  14.226   9.875   6.950
75530SOL    HW128423  14.178   9.895   6.869
75530SOL    HW228424  14.212   9.782   6.963
75531SOL     OW28425   5.564   8.824   9.076
75531SOL    HW128426   5.514   8.896   9.037
75531SOL    HW228427   5.650   8.831   9.036
75532SOL     OW28428   8.137  14.267   6.924
75532SOL    HW128429   8.126  14.211   6.847
75532SOL    HW228430   8.225  14.245   6.956
75533SOL     OW28431   0.337   1.184  13.882
75533SOL    HW128432   0.381   1.218  13.805
75533SOL    HW228433   0.379   1.229  13.956
75534SOL     OW28434   3.892   9.255   5.213
75534SOL    HW128435   3.835   9.314   5.163
75534SOL    HW228436   3.980   9.273   5.180
75535SOL     OW28437   4.937  13.885   3.654
75535SOL    HW128438   5.031  13.876   3.672
75535SOL    HW228439   4.925  13.979   3.639
75536SOL     OW28440  11.708   6.455   2.173
75536SOL    HW128441  11.691   6.511   2.098
75536SOL    HW228442  11.771   6.391   2.142
75537SOL     OW28443   4.403  10.904  14.593
75537SOL    HW128444   4.435  10.951  14.671
75537SOL    HW228445   4.398  10.813  14.621
75538SOL     OW28446   4.962   5.040   0.975
75538SOL    HW128447   4.938   5.110   1.035
75538SOL    HW228448   4.908   5.054   0.897
75539SOL     OW28449  11.448  14.795  13.051
75539SOL    HW128450  11.383  14.839  12.996
75539SOL    HW228451  11.528  14.845  13.039
75540SOL     OW28452  13.195   1.203   3.809
75540SOL    HW128453  13.207   1.123   3.758
75540SOL    HW228454  13.175   1.270   3.743
75541SOL     OW28455  10.169  13.130  14.045
75541SOL    HW128456  10.205  13.211  14.010
75541SOL    HW228457  10.081  13.125  14.009
75542SOL     OW28458   4.591  14.556  12.940
75542SOL    HW128459   4.573  14.643  12.976
75542SOL    HW228460   4.619  14.573  12.850
75543SOL     OW28461   9.985   2.251   0.657
75543SOL    HW128462   9.930   2.328   0.649
75543SOL    HW228463   9.933   2.188   0.707
75544SOL     OW28464   1.504   0.365  14.559
75544SOL    HW128465   1.515   0.272  14.578
75544SOL    HW228466   1.572   0.408  14.611
75545SOL     OW28467  12.735   0.315   9.240
75545SOL    HW128468  12.670   0.266   9.189
75545SOL    HW228469  12.807   0.331   9.180
75546SOL     OW28470  14.813   3.643   0.792
75546SOL    HW128471  14.813   3.717   0.731
75546SOL    HW228472  14.731   3.651   0.840
75547SOL     OW28473  12.482  10.646   2.510
75547SOL    HW128474  12.411  10.624   2.571
75547SOL    HW228475  12.561  10.647   2.565
75548SOL     OW28476   2.028   8.112   7.401
75548SOL    HW128477   2.025   8.204   7.374
75548SOL    HW228478   1.971   8.068   7.339
75549SOL     OW28479   7.596  12.938   7.501
75549SOL    HW128480   7.661  12.987   7.450
75549SOL    HW228481   7.536  13.005   7.534
75550SOL     OW28482   8.120  11.122   6.692
75550SOL    HW128483   8.109  11.044   6.636
75550SOL    HW228484   8.158  11.187   6.633
75551SOL     OW28485   2.406   9.618  11.703
75551SOL    HW128486   2.468   9.605  11.775
75551SOL    HW228487   2.425   9.547  11.642
75552SOL     OW28488   5.309  11.756   8.506
75552SOL    HW128489   5.380  11.819   8.502
75552SOL    HW228490   5.335  11.686   8.447
75553SOL     OW28491   7.098  10.477   6.159
75553SOL    HW128492   7.175  10.528   6.136
75553SOL    HW228493   7.132  10.404   6.210
75554SOL     OW28494   5.558   5.108  10.161
75554SOL    HW128495   5.592   5.025  10.195
75554SOL    HW228496   5.476   5.084  10.118
75555SOL     OW28497  11.994   0.108   8.800
75555SOL    HW128498  12.003   0.020   8.836
75555SOL    HW228499  12.007   0.167   8.874
75556SOL     OW28500   1.358  13.523   3.155
75556SOL    HW128501   1.319  13.436   3.158
75556SOL    HW228502   1.396  13.535   3.242
75557SOL     OW28503   2.523  12.410   7.528
75557SOL    HW128504   2.494  12.384   7.440
75557SOL    HW228505   2.442  12.416   7.579
75558SOL     OW28506   4.076   5.715   0.833
75558SOL    HW128507   4.111   5.782   0.775
75558SOL    HW228508   4.072   5.636   0.779
75559SOL     OW28509   9.360   4.037   4.686
75559SOL    HW128510   9.313   4.075   4.761
75559SOL    HW228511   9.357   3.943   4.702
75560SOL     OW28512  10.125   7.789   0.184
75560SOL    HW128513  10.188   7.760   0.118
75560SOL    HW228514  10.039   7.773   0.144
75561SOL     OW28515   5.679  12.422   1.103
75561SOL    HW128516   5.696  12.422   1.009
75561SOL    HW228517   5.723  12.500   1.135
75562SOL     OW28518   1.241   2.119   4.690
75562SOL    HW128519   1.318   2.063   4.678
75562SOL    HW228520   1.184   2.098   4.615
75563SOL     OW28521   1.731   1.370   7.121
75563SOL    HW128522   1.664   1.318   7.166
75563SOL    HW228523   1.761   1.314   7.050
75564SOL     OW28524  14.549   5.013   2.348
75564SOL    HW128525  14.561   5.046   2.259
75564SOL    HW228526  14.638   4.990   2.378
75565SOL     OW28527   0.918  11.574   3.846
75565SOL    HW128528   0.980  11.620   3.902
75565SOL    HW228529   0.884  11.503   3.900
75566SOL     OW28530  12.147   7.386   1.141
75566SOL    HW128531  12.081   7.449   1.115
75566SOL    HW228532  12.204   7.434   1.201
75567SOL     OW28533   3.296   6.845  13.148
75567SOL    HW128534   3.315   6.895  13.228
75567SOL    HW228535   3.373   6.857  13.093
75568SOL     OW28536   1.714  10.095   8.350
75568SOL    HW128537   1.648  10.139   8.404
75568SOL    HW228538   1.738  10.160   8.285
75569SOL     OW28539   4.895   0.005   9.735
75569SOL    HW128540   4.853  14.803   9.766
75569SOL    HW228541   4.988  14.870   9.753
75570SOL     OW28542   3.928  13.908   6.097
75570SOL    HW128543   3.954  13.954   6.177
75570SOL    HW228544   3.836  13.932   6.084
75571SOL     OW28545   1.592  10.849  11.958
75571SOL    HW128546   1.682  10.817  11.958
75571SOL    HW228547   1.556  10.822  12.043
75572SOL     OW28548  10.958   0.607  13.842
75572SOL    HW128549  10.911   0.606  13.758
75572SOL    HW228550  11.008   0.525  13.842
75573SOL     OW28551   9.456  14.676  10.454
75573SOL    HW128552   9.471  14.639  10.367
75573SOL    HW228553   9.376  14.632  10.484
75574SOL     OW28554   0.837   8.285   0.483
75574SOL    HW128555   0.920   8.295   0.530
75574SOL    HW228556   0.850   8.334   0.401
75575SOL     OW28557   1.996   5.354   3.597
75575SOL    HW128558   1.918   5.389   3.553
75575SOL    HW228559   2.067   5.412   3.570
75576SOL     OW28560   1.035  12.952   6.201
75576SOL    HW128561   1.048  13.045   6.219
75576SOL    HW228562   1.005  12.915   6.284
75577SOL     OW28563   8.303   3.379   5.988
75577SOL    HW128564   8.372   3.438   5.958
75577SOL    HW228565   8.345   3.293   5.990
75578SOL     OW28566   0.358   0.710   6.987
75578SOL    HW128567   0.345   0.804   6.977
75578SOL    HW228568   0.297   0.685   7.057
75579SOL     OW28569   3.788  12.322   2.739
75579SOL    HW128570   3.777  12.417   2.738
75579SOL    HW228571   3.809  12.299   2.648
75580SOL     OW28572  14.679   5.019  10.201
75580SOL    HW128573  14.767   5.057  10.202
75580SOL    HW228574  14.651   5.021  10.293
75581SOL     OW28575  10.576   4.459   2.036
75581SOL    HW128576  10.572   4.553   2.018
75581SOL    HW228577  10.646   4.449   2.100
75582SOL     OW28578   9.769   8.658   8.766
75582SOL    HW128579   9.859   8.642   8.738
75582SOL    HW228580   9.737   8.725   8.706
75583SOL     OW28581   0.373   8.331   8.705
75583SOL    HW128582   0.365   8.342   8.800
75583SOL    HW228583   0.340   8.414   8.669
75584SOL     OW28584  14.353  14.101   0.460
75584SOL    HW128585  14.363  14.079   0.367
75584SOL    HW228586  14.261  14.127   0.468
75585SOL     OW28587   5.353   1.394   2.225
75585SOL    HW128588   5.414   1.374   2.153
75585SOL    HW228589   5.266   1.389   2.184
75586SOL     OW28590  10.800   9.866   8.637
75586SOL    HW128591  10.745   9.853   8.560
75586SOL    HW228592  10.745   9.917   8.697
75587SOL     OW28593  10.090   6.585  13.084
75587SOL    HW128594  10.007   6.590  13.130
75587SOL    HW228595  10.068   6.545  13.000
75588SOL     OW28596   1.816  14.010   2.011
75588SOL    HW128597   1.813  14.106   2.013
75588SOL    HW228598   1.849  13.986   2.098
75589SOL     OW28599   7.622   0.772   5.219
75589SOL    HW128600   7.698   0.793   5.164
75589SOL    HW228601   7.576   0.855   5.229
75590SOL     OW28602  14.583  14.281   1.123
75590SOL    HW128603  14.553  14.278   1.032
75590SOL    HW228604  14.664  14.232   1.123
75591SOL     OW28605   8.680  13.543   3.795
75591SOL    HW128606   8.678  13.639   3.792
75591SOL    HW228607   8.597  13.518   3.834
75592SOL     OW28608  12.719  14.682  11.827
75592SOL    HW128609  12.688  14.592  11.835
75592SOL    HW228610  12.646  14.735  11.859
75593SOL     OW28611   7.387   7.158   1.899
75593SOL    HW128612   7.464   7.133   1.847
75593SOL    HW228613   7.317   7.103   1.864
75594SOL     OW28614   4.074   4.709  14.124
75594SOL    HW128615   4.146   4.738  14.181
75594SOL    HW228616   4.095   4.747  14.039
75595SOL     OW28617  12.291  12.834  11.504
75595SOL    HW128618  12.218  12.833  11.566
75595SOL    HW228619  12.362  12.789  11.550
75596SOL     OW28620  10.440   3.447  11.719
75596SOL    HW128621  10.381   3.378  11.751
75596SOL    HW228622  10.527   3.406  11.720
75597SOL     OW28623   4.086  11.565   9.717
75597SOL    HW128624   4.002  11.541   9.755
75597SOL    HW228625   4.151  11.524   9.775
75598SOL     OW28626   7.179   9.073  10.726
75598SOL    HW128627   7.166   9.073  10.631
75598SOL    HW228628   7.105   9.023  10.760
75599SOL     OW28629   9.274  11.751   6.079
75599SOL    HW128630   9.329  11.725   6.154
75599SOL    HW228631   9.226  11.828   6.109
75600SOL     OW28632   3.296   3.288  10.629
75600SOL    HW128633   3.363   3.243  10.578
75600SOL    HW228634   3.219   3.291  10.573
75601SOL     OW28635   7.822   9.297   2.510
75601SOL    HW128636   7.736   9.276   2.545
75601SOL    HW228637   7.856   9.365   2.568
75602SOL     OW28638   1.464   9.819  10.270
75602SOL    HW128639   1.434   9.904  10.302
75602SOL    HW228640   1.550   9.836  10.232
75603SOL     OW28641  14.274   6.202   4.195
75603SOL    HW128642  14.360   6.239   4.172
75603SOL    HW228643  14.282   6.178   4.287
75604SOL     OW28644  13.314   3.435   7.078
75604SOL    HW128645  13.318   3.436   6.982
75604SOL    HW228646  13.297   3.343   7.100
75605SOL     OW28647  12.204  10.690   8.342
75605SOL    HW128648  12.155  10.725   8.267
75605SOL    HW228649  12.282  10.650   8.303
75606SOL     OW28650   1.248  13.679   4.546
75606SOL    HW128651   1.311  13.655   4.614
75606SOL    HW228652   1.302  13.720   4.478
75607SOL     OW28653  10.458  11.798  11.848
75607SOL    HW128654  10.508  11.717  11.840
75607SOL    HW228655  10.498  11.844  11.922
75608SOL     OW28656   8.098   0.297   0.109
75608SOL    HW128657   8.170   0.236   0.091
75608SOL    HW228658   8.142   0.378   0.136
75609SOL     OW28659   2.345  13.464   6.060
75609SOL    HW128660   2.376  13.531   6.000
75609SOL    HW228661   2.419  13.446   6.117
75610SOL     OW28662   6.404   0.129   1.209
75610SOL    HW128663   6.486   0.082   1.224
75610SOL    HW228664   6.359   0.126   1.293
75611SOL     OW28665   9.499   8.738   5.923
75611SOL    HW128666   9.411   8.751   5.886
75611SOL    HW228667   9.488   8.670   5.989
75612SOL     OW28668  12.170   8.041  13.275
75612SOL    HW128669  12.170   8.114  13.212
75612SOL    HW228670  12.202   8.080  13.356
75613SOL     OW28671  11.278   3.570  10.398
75613SOL    HW128672  11.358   3.614  10.424
75613SOL    HW228673  11.279   3.573  10.302
75614SOL     OW28674   3.339   7.646   2.967
75614SOL    HW128675   3.376   7.560   2.986
75614SOL    HW228676   3.383   7.673   2.886
75615SOL     OW28677   1.444  11.979   8.903
75615SOL    HW128678   1.354  11.967   8.933
75615SOL    HW228679   1.440  12.056   8.846
75616SOL     OW28680  12.842   6.347   7.457
75616SOL    HW128681  12.937   6.343   7.446
75616SOL    HW228682  12.808   6.356   7.368
75617SOL     OW28683  10.995   6.913   7.789
75617SOL    HW128684  11.086   6.938   7.804
75617SOL    HW228685  10.970   6.863   7.866
75618SOL     OW28686  11.604  11.038   5.061
75618SOL    HW128687  11.567  10.951   5.047
75618SOL    HW228688  11.584  11.086   4.980
75619SOL     OW28689   8.281   8.756  11.381
75619SOL    HW128690   8.341   8.803  11.439
75619SOL    HW228691   8.336   8.728  11.308
75620SOL     OW28692   6.514   6.220   6.092
75620SOL    HW128693   6.532   6.126   6.089
75620SOL    HW228694   6.495   6.244   6.001
75621SOL     OW28695   6.572   6.837   0.557
75621SOL    HW128696   6.563   6.837   0.461
75621SOL    HW228697   6.534   6.920   0.584
75622SOL     OW28698  12.131  12.438  11.670
75622SOL    HW128699  12.112  12.394  11.753
75622SOL    HW228700  12.107  12.373  11.603
75623SOL     OW28701   0.744   4.761  13.166
75623SOL    HW128702   0.838   4.760  13.185
75623SOL    HW228703   0.736   4.814  13.086
75624SOL     OW28704   0.108  11.698   3.586
75624SOL    HW128705   0.192  11.652   3.577
75624SOL    HW228706   0.078  11.710   3.495
75625SOL     OW28707   7.785   8.902  10.703
75625SOL    HW128708   7.761   8.961  10.775
75625SOL    HW228709   7.702   8.861  10.677
75626SOL     OW28710  10.982  14.249   2.812
75626SOL    HW128711  10.905  14.290   2.771
75626SOL    HW228712  10.950  14.164   2.842
75627SOL     OW28713   7.657   6.317   5.622
75627SOL    HW128714   7.581   6.373   5.640
75627SOL    HW228715   7.714   6.330   5.698
75628SOL     OW28716   0.916  13.835   3.738
75628SOL    HW128717   0.952  13.792   3.815
75628SOL    HW228718   0.884  13.919   3.770
75629SOL     OW28719   7.159   5.377   3.274
75629SOL    HW128720   7.218   5.431   3.221
75629SOL    HW228721   7.100   5.440   3.317
75630SOL     OW28722  14.487  13.425  14.118
75630SOL    HW128723  14.447  13.511  14.111
75630SOL    HW228724  14.534  13.414  14.035
75631SOL     OW28725   5.931  10.803   7.818
75631SOL    HW128726   6.008  10.749   7.799
75631SOL    HW228727   5.965  10.892   7.821
75632SOL     OW28728  14.556   0.971  14.396
75632SOL    HW128729  14.481   1.009  14.441
75632SOL    HW228730  14.632   1.003  14.445
75633SOL     OW28731   3.655   0.349   8.235
75633SOL    HW128732   3.633   0.268   8.281
75633SOL    HW228733   3.725   0.388   8.287
75634SOL     OW28734  14.141   5.154   7.613
75634SOL    HW128735  14.125   5.246   7.596
75634SOL    HW228736  14.154   5.115   7.527
75635SOL     OW28737   0.569   7.912   6.870
75635SOL    HW128738   0.570   7.973   6.944
75635SOL    HW228739   0.571   7.969   6.793
75636SOL     OW28740   1.824   9.389  14.544
75636SOL    HW128741   1.842   9.416  14.634
75636SOL    HW228742   1.730   9.369  14.544
75637SOL     OW28743  11.655   5.424  13.461
75637SOL    HW128744  11.717   5.372  13.513
75637SOL    HW228745  11.661   5.512  13.497
75638SOL     OW28746  11.684  13.401   0.940
75638SOL    HW128747  11.634  13.360   0.870
75638SOL    HW228748  11.762  13.435   0.898
75639SOL     OW28749   0.939  11.710  13.486
75639SOL    HW128750   0.911  11.797  13.514
75639SOL    HW228751   1.009  11.687  13.547
75640SOL     OW28752  10.403   5.018   3.165
75640SOL    HW128753  10.392   5.015   3.070
75640SOL    HW228754  10.492   5.050   3.179
75641SOL     OW28755   2.547  13.450   6.239
75641SOL    HW128756   2.565  13.502   6.318
75641SOL    HW228757   2.622  13.466   6.182
75642SOL     OW28758   1.135   0.614   5.569
75642SOL    HW128759   1.131   0.659   5.484
75642SOL    HW228760   1.098   0.676   5.631
75643SOL     OW28761   1.940   1.728   1.225
75643SOL    HW128762   2.010   1.665   1.211
75643SOL    HW228763   1.868   1.676   1.263
75644SOL     OW28764   8.312   7.926   0.511
75644SOL    HW128765   8.352   7.839   0.521
75644SOL    HW228766   8.359   7.982   0.573
75645SOL     OW28767   1.419  11.574   5.917
75645SOL    HW128768   1.370  11.648   5.881
75645SOL    HW228769   1.505  11.611   5.939
75646SOL     OW28770  11.021   5.570   0.333
75646SOL    HW128771  11.075   5.645   0.308
75646SOL    HW228772  11.018   5.516   0.254
75647SOL     OW28773  12.415   0.239   7.304
75647SOL    HW128774  12.452   0.256   7.390
75647SOL    HW228775  12.378   0.323   7.276
75648SOL     OW28776   6.642  11.203   4.851
75648SOL    HW128777   6.632  11.144   4.925
75648SOL    HW228778   6.629  11.148   4.774
75649SOL     OW28779  11.418  10.665  12.917
75649SOL    HW128780  11.356  10.681  12.846
75649SOL    HW228781  11.402  10.735  12.980
75650SOL     OW28782  11.358   8.139   4.864
75650SOL    HW128783  11.422   8.068   4.861
75650SOL    HW228784  11.400   8.207   4.917
75651SOL     OW28785   2.852   0.028   1.370
75651SOL    HW128786   2.848  14.867   1.457
75651SOL    HW228787   2.886  14.837   1.314
75652SOL     OW28788  13.571   8.166   7.503
75652SOL    HW128789  13.496   8.179   7.446
75652SOL    HW228790  13.608   8.081   7.476
75653SOL     OW28791   8.255   8.149   7.350
75653SOL    HW128792   8.308   8.073   7.374
75653SOL    HW228793   8.181   8.112   7.302
75654SOL     OW28794   3.419  12.524   1.702
75654SOL    HW128795   3.495  12.469   1.722
75654SOL    HW228796   3.361  12.514   1.777
75655SOL     OW28797   6.011  11.826  12.126
75655SOL    HW128798   5.997  11.833  12.032
75655SOL    HW228799   6.088  11.769  12.135
75656SOL     OW28800   3.405   8.904   7.082
75656SOL    HW128801   3.368   8.863   7.004
75656SOL    HW228802   3.490   8.864   7.092
75657SOL     OW28803  10.396  10.186   7.435
75657SOL    HW128804  10.350  10.106   7.408
75657SOL    HW228805  10.417  10.171   7.527
75658SOL     OW28806   5.465   1.550   5.211
75658SOL    HW128807   5.401   1.510   5.269
75658SOL    HW228808   5.550   1.535   5.254
75659SOL     OW28809  12.739   2.195   5.885
75659SOL    HW128810  12.786   2.115   5.910
75659SOL    HW228811  12.721   2.185   5.792
75660SOL     OW28812  14.019   6.466   6.037
75660SOL    HW128813  13.963   6.520   5.980
75660SOL    HW228814  14.101   6.515   6.042
75661SOL     OW28815   1.490  11.086   0.928
75661SOL    HW128816   1.579  11.090   0.891
75661SOL    HW228817   1.433  11.084   0.851
75662SOL     OW28818   2.752   8.408   9.587
75662SOL    HW128819   2.736   8.339   9.523
75662SOL    HW228820   2.709   8.378   9.667
75663SOL     OW28821   1.777   9.903  14.496
75663SOL    HW128822   1.867   9.907  14.464
75663SOL    HW228823   1.729   9.856  14.427
75664SOL     OW28824  12.427  14.802  13.670
75664SOL    HW128825  12.437  14.811  13.576
75664SOL    HW228826  12.502  14.749  13.698
75665SOL     OW28827   3.667   9.246   4.152
75665SOL    HW128828   3.712   9.283   4.076
75665SOL    HW228829   3.607   9.315   4.180
75666SOL     OW28830   9.468   7.899  12.978
75666SOL    HW128831   9.497   7.968  12.919
75666SOL    HW228832   9.425   7.946  13.050
75667SOL     OW28833  11.507  10.349   8.920
75667SOL    HW128834  11.443  10.348   8.849
75667SOL    HW228835  11.533  10.441   8.928
75668SOL     OW28836  14.047  13.099   0.750
75668SOL    HW128837  14.098  13.102   0.670
75668SOL    HW228838  14.087  13.165   0.807
75669SOL     OW28839   0.462   9.720   3.017
75669SOL    HW128840   0.506   9.789   3.065
75669SOL    HW228841   0.509   9.640   3.041
75670SOL     OW28842  13.659  12.332  14.229
75670SOL    HW128843  13.634  12.422  14.248
75670SOL    HW228844  13.615  12.280  14.296
75671SOL     OW28845  11.338   1.803   6.392
75671SOL    HW128846  11.342   1.710   6.414
75671SOL    HW228847  11.428   1.834   6.400
75672SOL     OW28848   0.045   4.885   8.691
75672SOL    HW128849  14.852   4.947   8.681
75672SOL    HW228850   0.002   4.800   8.699
75673SOL     OW28851   0.930   4.805   9.898
75673SOL    HW128852   0.876   4.731   9.928
75673SOL    HW228853   0.880   4.883   9.920
75674SOL     OW28854   1.826   3.305  10.113
75674SOL    HW128855   1.833   3.243  10.185
75674SOL    HW228856   1.862   3.387  10.148
75675SOL     OW28857   3.019   7.209   8.912
75675SOL    HW128858   2.944   7.151   8.927
75675SOL    HW228859   3.010   7.278   8.978
75676SOL     OW28860   6.456  12.680  13.700
75676SOL    HW128861   6.362  12.699  13.703
75676SOL    HW228862   6.479  12.659  13.791
75677SOL     OW28863   2.162   7.325  11.414
75677SOL    HW128864   2.168   7.266  11.339
75677SOL    HW228865   2.127   7.407  11.377
75678SOL     OW28866   1.694   6.674   0.811
75678SOL    HW128867   1.647   6.670   0.894
75678SOL    HW228868   1.770   6.617   0.824
75679SOL     OW28869   4.962  13.553   5.241
75679SOL    HW128870   4.977  13.471   5.287
75679SOL    HW228871   4.936  13.527   5.153
75680SOL     OW28872   4.299   4.860  10.310
75680SOL    HW128873   4.277   4.934  10.366
75680SOL    HW228874   4.302   4.785  10.368
75681SOL     OW28875   4.004   9.338   4.864
75681SOL    HW128876   3.998   9.405   4.797
75681SOL    HW228877   3.918   9.297   4.866
75682SOL     OW28878   7.711   5.193  11.605
75682SOL    HW128879   7.638   5.252  11.587
75682SOL    HW228880   7.732   5.207  11.697
75683SOL     OW28881  14.009   4.860  10.958
75683SOL    HW128882  14.055   4.892  11.035
75683SOL    HW228883  14.076   4.818  10.905
75684SOL     OW28884   7.885   4.042  13.728
75684SOL    HW128885   7.871   4.127  13.768
75684SOL    HW228886   7.950   4.057  13.659
75685SOL     OW28887   0.174   9.007   3.782
75685SOL    HW128888   0.166   9.015   3.877
75685SOL    HW228889   0.111   8.939   3.758
75686SOL     OW28890   9.022  11.299  11.812
75686SOL    HW128891   9.041  11.222  11.865
75686SOL    HW228892   9.008  11.264  11.724
75687SOL     OW28893  14.514   9.305   0.327
75687SOL    HW128894  14.469   9.222   0.345
75687SOL    HW228895  14.443   9.366   0.308
75688SOL     OW28896   5.698   8.294  13.204
75688SOL    HW128897   5.782   8.312  13.248
75688SOL    HW228898   5.710   8.327  13.115
75689SOL     OW28899   5.146  10.314  14.507
75689SOL    HW128900   5.140  10.367  14.428
75689SOL    HW228901   5.178  10.375  14.575
75690SOL     OW28902   2.544  14.784  10.047
75690SOL    HW128903   2.507  14.871  10.062
75690SOL    HW228904   2.612  14.775  10.114
75691SOL     OW28905   3.319   7.853   3.662
75691SOL    HW128906   3.353   7.865   3.751
75691SOL    HW228907   3.247   7.915   3.656
75692SOL     OW28908   0.863   7.448   3.029
75692SOL    HW128909   0.902   7.417   3.110
75692SOL    HW228910   0.838   7.538   3.047
75693SOL     OW28911   4.381   7.122  11.768
75693SOL    HW128912   4.473   7.148  11.771
75693SOL    HW228913   4.345   7.171  11.694
75694SOL     OW28914  13.792   1.083   1.828
75694SOL    HW128915  13.857   1.029   1.873
75694SOL    HW228916  13.845   1.141   1.772
75695SOL     OW28917   8.817   4.445  13.405
75695SOL    HW128918   8.890   4.486  13.358
75695SOL    HW228919   8.769   4.519  13.442
75696SOL     OW28920  12.842   8.583   0.109
75696SOL    HW128921  12.817   8.675   0.116
75696SOL    HW228922  12.864   8.571   0.016
75697SOL     OW28923   6.897   8.408  10.815
75697SOL    HW128924   6.931   8.452  10.893
75697SOL    HW228925   6.915   8.469  10.744
75698SOL     OW28926   5.164   2.352  13.168
75698SOL    HW128927   5.132   2.439  13.190
75698SOL    HW228928   5.252   2.367  13.133
75699SOL     OW28929  12.101  14.494   6.272
75699SOL    HW128930  12.085  14.436   6.198
75699SOL    HW228931  12.064  14.578   6.244
75700SOL     OW28932   5.866  10.592  14.578
75700SOL    HW128933   5.895  10.542  14.654
75700SOL    HW228934   5.791  10.543  14.544
75701SOL     OW28935   1.711  14.556   7.453
75701SOL    HW128936   1.678  14.646   7.464
75701SOL    HW228937   1.656  14.519   7.384
75702SOL     OW28938   5.495  12.949   6.167
75702SOL    HW128939   5.417  12.896   6.153
75702SOL    HW228940   5.541  12.905   6.238
75703SOL     OW28941   1.653   0.737   5.345
75703SOL    HW128942   1.645   0.817   5.293
75703SOL    HW228943   1.701   0.764   5.424
75704SOL     OW28944  14.588   8.818   3.427
75704SOL    HW128945  14.526   8.793   3.358
75704SOL    HW228946  14.551   8.899   3.463
75705SOL     OW28947  14.645   5.865   9.041
75705SOL    HW128948  14.558   5.886   9.074
75705SOL    HW228949  14.668   5.783   9.086
75706SOL     OW28950  14.429   4.504  11.775
75706SOL    HW128951  14.493   4.467  11.715
75706SOL    HW228952  14.441   4.457  11.857
75707SOL     OW28953  11.736   9.103   1.712
75707SOL    HW128954  11.814   9.049   1.697
75707SOL    HW228955  11.700   9.116   1.625
75708SOL     OW28956  11.764   7.500   7.476
75708SOL    HW128957  11.704   7.507   7.551
75708SOL    HW228958  11.777   7.406   7.464
75709SOL     OW28959  13.310  12.460   9.132
75709SOL    HW128960  13.400  12.429   9.144
75709SOL    HW228961  13.312  12.505   9.047
75710SOL     OW28962  10.404   9.118   0.293
75710SOL    HW128963  10.469   9.122   0.224
75710SOL    HW228964  10.344   9.191   0.275
75711SOL     OW28965  10.612   4.702   8.862
75711SOL    HW128966  10.692   4.705   8.915
75711SOL    HW228967  10.541   4.699   8.927
75712SOL     OW28968   2.433   5.867  10.006
75712SOL    HW128969   2.343   5.870   9.974
75712SOL    HW228970   2.459   5.958  10.013
75713SOL     OW28971   8.525   9.094  12.349
75713SOL    HW128972   8.465   9.153  12.305
75713SOL    HW228973   8.599   9.086  12.290
75714SOL     OW28974   3.645  13.969   7.813
75714SOL    HW128975   3.603  13.886   7.790
75714SOL    HW228976   3.578  14.017   7.862
75715SOL     OW28977   9.324   2.824   9.612
75715SOL    HW128978   9.299   2.859   9.526
75715SOL    HW228979   9.353   2.901   9.661
75716SOL     OW28980   8.890   4.416   5.052
75716SOL    HW128981   8.848   4.466   4.981
75716SOL    HW228982   8.829   4.421   5.125
75717SOL     OW28983  10.509  10.069   6.449
75717SOL    HW128984  10.477  10.037   6.364
75717SOL    HW228985  10.525   9.989   6.500
75718SOL     OW28986   6.756  10.574   4.916
75718SOL    HW128987   6.821  10.507   4.938
75718SOL    HW228988   6.785  10.609   4.832
75719SOL     OW28989  12.950   9.256   9.952
75719SOL    HW128990  13.030   9.220   9.913
75719SOL    HW228991  12.941   9.343   9.913
75720SOL     OW28992   6.192  10.610   6.086
75720SOL    HW128993   6.250  10.534   6.083
75720SOL    HW228994   6.210  10.651   6.171
75721SOL     OW28995   0.554   5.672   6.817
75721SOL    HW128996   0.545   5.600   6.755
75721SOL    HW228997   0.620   5.642   6.880
75722SOL     OW28998   7.415   5.334   0.544
75722SOL    HW128999   7.410   5.244   0.577
75722SOL    HW229000   7.326   5.368   0.553
75723SOL     OW29001  13.927  10.703   3.434
75723SOL    HW129002  13.975  10.780   3.404
75723SOL    HW229003  13.853  10.738   3.483
75724SOL     OW29004   5.634  10.601   4.638
75724SOL    HW129005   5.600  10.538   4.575
75724SOL    HW229006   5.557  10.649   4.669
75725SOL     OW29007  14.685   5.822   8.069
75725SOL    HW129008  14.712   5.746   8.017
75725SOL    HW229009  14.644   5.881   8.005
75726SOL     OW29010  10.910   6.382  13.568
75726SOL    HW129011  10.843   6.440  13.606
75726SOL    HW229012  10.862   6.302  13.546
75727SOL     OW29013  12.509   8.548  10.000
75727SOL    HW129014  12.534   8.606   9.928
75727SOL    HW229015  12.423   8.514   9.973
75728SOL     OW29016   2.714   3.374   7.487
75728SOL    HW129017   2.695   3.455   7.535
75728SOL    HW229018   2.662   3.307   7.532
75729SOL     OW29019  11.946   3.871   3.922
75729SOL    HW129020  11.977   3.781   3.926
75729SOL    HW229021  12.023   3.923   3.946
75730SOL     OW29022  14.729  10.648   5.359
75730SOL    HW129023  14.744  10.680   5.448
75730SOL    HW229024  14.800  10.584   5.345
75731SOL     OW29025   7.870   5.912   4.830
75731SOL    HW129026   7.867   5.863   4.912
75731SOL    HW229027   7.790   5.966   4.831
75732SOL     OW29028   7.962  14.669   9.325
75732SOL    HW129029   7.948  14.697   9.235
75732SOL    HW229030   8.040  14.717   9.353
75733SOL     OW29031   7.110   1.474   4.369
75733SOL    HW129032   7.112   1.506   4.279
75733SOL    HW229033   7.195   1.499   4.405
75734SOL     OW29034   1.495   3.183  13.861
75734SOL    HW129035   1.485   3.089  13.844
75734SOL    HW229036   1.436   3.201  13.933
75735SOL     OW29037   2.901   6.731   8.320
75735SOL    HW129038   2.876   6.802   8.261
75735SOL    HW229039   2.984   6.699   8.284
75736SOL     OW29040   6.474  14.536   9.670
75736SOL    HW129041   6.445  14.539   9.579
75736SOL    HW229042   6.402  14.494   9.717
75737SOL     OW29043  13.161   1.484   3.938
75737SOL    HW129044  13.093   1.416   3.939
75737SOL    HW229045  13.118   1.561   3.901
75738SOL     OW29046   5.222   9.584  14.228
75738SOL    HW129047   5.167   9.661  14.242
75738SOL    HW229048   5.311   9.613  14.252
75739SOL     OW29049  11.731  13.304   9.336
75739SOL    HW129050  11.675  13.230   9.313
75739SOL    HW229051  11.723  13.310   9.432
75740SOL     OW29052   9.515   4.742  12.784
75740SOL    HW129053   9.540   4.814  12.841
75740SOL    HW229054   9.453   4.691  12.836
75741SOL     OW29055   2.596  14.866   1.087
75741SOL    HW129056   2.545   0.052   1.039
75741SOL    HW229057   2.597   0.019   1.177
75742SOL     OW29058   0.374   6.056   0.878
75742SOL    HW129059   0.307   6.124   0.888
75742SOL    HW229060   0.354   6.016   0.793
75743SOL     OW29061   7.635   3.790  11.600
75743SOL    HW129062   7.704   3.848  11.632
75743SOL    HW229063   7.586   3.843  11.537
75744SOL     OW29064   7.770   6.175   8.320
75744SOL    HW129065   7.721   6.093   8.325
75744SOL    HW229066   7.735   6.220   8.243
75745SOL     OW29067  13.656   6.171   4.853
75745SOL    HW129068  13.715   6.126   4.913
75745SOL    HW229069  13.671   6.264   4.871
75746SOL     OW29070   3.690   0.699   0.672
75746SOL    HW129071   3.678   0.605   0.682
75746SOL    HW229072   3.657   0.718   0.584
75747SOL     OW29073   7.935   0.817   1.769
75747SOL    HW129074   8.029   0.834   1.764
75747SOL    HW229075   7.904   0.819   1.678
75748SOL     OW29076  12.024  13.479   5.876
75748SOL    HW129077  11.978  13.523   5.947
75748SOL    HW229078  12.110  13.458   5.913
75749SOL     OW29079   5.182   6.564   7.789
75749SOL    HW129080   5.272   6.590   7.766
75749SOL    HW229081   5.164   6.609   7.871
75750SOL     OW29082   2.691   4.734   4.432
75750SOL    HW129083   2.764   4.684   4.469
75750SOL    HW229084   2.723   4.824   4.428
75751SOL     OW29085  14.100   8.724   3.489
75751SOL    HW129086  14.010   8.702   3.513
75751SOL    HW229087  14.154   8.664   3.540
75752SOL     OW29088   0.488   1.041  12.351
75752SOL    HW129089   0.539   1.110  12.309
75752SOL    HW229090   0.553   0.979  12.383
75753SOL     OW29091  12.950  12.223   0.755
75753SOL    HW129092  13.012  12.196   0.688
75753SOL    HW229093  13.004  12.256   0.827
75754SOL     OW29094  13.778  14.479   2.164
75754SOL    HW129095  13.823  14.395   2.152
75754SOL    HW229096  13.735  14.495   2.080
75755SOL     OW29097   9.629  10.974  13.054
75755SOL    HW129098   9.705  10.920  13.078
75755SOL    HW229099   9.576  10.976  13.134
75756SOL     OW29100   6.261  10.437   8.954
75756SOL    HW129101   6.272  10.342   8.958
75756SOL    HW229102   6.349  10.472   8.966
75757SOL     OW29103   2.392   2.519  11.603
75757SOL    HW129104   2.323   2.584  11.614
75757SOL    HW229105   2.416   2.525  11.511
75758SOL     OW29106  13.352   5.905   2.628
75758SOL    HW129107  13.343   5.981   2.570
75758SOL    HW229108  13.363   5.942   2.715
75759SOL     OW29109  10.365   3.547  14.675
75759SOL    HW129110  10.389   3.559  14.767
75759SOL    HW229111  10.420   3.475  14.645
75760SOL     OW29112   8.556   4.011   4.674
75760SOL    HW129113   8.479   4.000   4.619
75760SOL    HW229114   8.586   4.100   4.655
75761SOL     OW29115   3.030  10.292   1.667
75761SOL    HW129116   3.006  10.200   1.673
75761SOL    HW229117   3.050  10.305   1.574
75762SOL     OW29118   1.245   6.356   8.213
75762SOL    HW129119   1.339   6.339   8.215
75762SOL    HW229120   1.208   6.298   8.280
75763SOL     OW29121   0.107  14.700   7.492
75763SOL    HW129122   0.159  14.640   7.546
75763SOL    HW229123   0.170  14.744   7.437
75764SOL     OW29124  13.205   0.829   7.400
75764SOL    HW129125  13.221   0.839   7.493
75764SOL    HW229126  13.288   0.799   7.364
75765SOL     OW29127  13.953  11.324  12.662
75765SOL    HW129128  14.029  11.380  12.671
75765SOL    HW229129  13.987  11.245  12.620
75766SOL     OW29130  10.127   4.396   5.713
75766SOL    HW129131  10.098   4.329   5.775
75766SOL    HW229132  10.171   4.347   5.644
75767SOL     OW29133   4.526   6.415   3.289
75767SOL    HW129134   4.459   6.460   3.341
75767SOL    HW229135   4.491   6.414   3.200
75768SOL     OW29136  11.245  10.509   5.707
75768SOL    HW129137  11.168  10.455   5.693
75768SOL    HW229138  11.303  10.487   5.634
75769SOL     OW29139   7.947   9.996  14.168
75769SOL    HW129140   7.906   9.950  14.095
75769SOL    HW229141   7.897   9.968  14.245
75770SOL     OW29142  11.757   7.176   6.432
75770SOL    HW129143  11.786   7.256   6.388
75770SOL    HW229144  11.704   7.131   6.366
75771SOL     OW29145   1.037   8.282   7.702
75771SOL    HW129146   1.126   8.252   7.723
75771SOL    HW229147   0.996   8.297   7.787
75772SOL     OW29148   3.200   1.269   3.287
75772SOL    HW129149   3.124   1.324   3.270
75772SOL    HW229150   3.169   1.205   3.351
75773SOL     OW29151   8.807   9.506  12.362
75773SOL    HW129152   8.715   9.534  12.364
75773SOL    HW229153   8.849   9.567  12.301
75774SOL     OW29154  11.705   6.858   1.292
75774SOL    HW129155  11.699   6.887   1.383
75774SOL    HW229156  11.636   6.907   1.247
75775SOL     OW29157   4.948   6.940   1.661
75775SOL    HW129158   4.866   6.985   1.679
75775SOL    HW229159   4.923   6.848   1.651
75776SOL     OW29160   2.903   9.395   6.917
75776SOL    HW129161   2.959   9.330   6.959
75776SOL    HW229162   2.858   9.438   6.990
75777SOL     OW29163   6.932  12.758  14.515
75777SOL    HW129164   6.872  12.752  14.441
75777SOL    HW229165   6.961  12.850  14.515
75778SOL     OW29166   4.140  11.434   3.781
75778SOL    HW129167   4.233  11.422   3.759
75778SOL    HW229168   4.136  11.426   3.876
75779SOL     OW29169  14.864  14.230   2.428
75779SOL    HW129170   0.008  14.137   2.437
75779SOL    HW229171  14.844  14.241   2.335
75780SOL     OW29172  12.355  13.504   2.942
75780SOL    HW129173  12.341  13.598   2.937
75780SOL    HW229174  12.299  13.467   2.874
75781SOL     OW29175  13.795   0.998   0.127
75781SOL    HW129176  13.731   1.034   0.188
75781SOL    HW229177  13.857   1.070   0.112
75782SOL     OW29178  11.685  14.332   6.798
75782SOL    HW129179  11.614  14.334   6.862
75782SOL    HW229180  11.643  14.352   6.715
75783SOL     OW29181   0.760   0.218  13.066
75783SOL    HW129182   0.666   0.236  13.061
75783SOL    HW229183   0.765   0.125  13.087
75784SOL     OW29184   6.730  10.692   3.461
75784SOL    HW129185   6.717  10.626   3.394
75784SOL    HW229186   6.821  10.720   3.450
75785SOL     OW29187   7.169   6.100   2.660
75785SOL    HW129188   7.086   6.105   2.613
75785SOL    HW229189   7.168   6.176   2.718
75786SOL     OW29190  11.756   8.200  14.353
75786SOL    HW129191  11.714   8.282  14.326
75786SOL    HW229192  11.786   8.216  14.442
75787SOL     OW29193   3.179   1.015  13.783
75787SOL    HW129194   3.272   1.027  13.801
75787SOL    HW229195   3.145   0.972  13.862
75788SOL     OW29196   6.562   7.359  13.972
75788SOL    HW129197   6.555   7.420  14.045
75788SOL    HW229198   6.485   7.303  13.979
75789SOL     OW29199  13.488   4.010   5.972
75789SOL    HW129200  13.416   3.973   5.920
75789SOL    HW229201  13.566   3.995   5.918
75790SOL     OW29202   6.782   1.483   0.143
75790SOL    HW129203   6.820   1.543   0.079
75790SOL    HW229204   6.810   1.517   0.227
75791SOL     OW29205   0.220  11.587   9.339
75791SOL    HW129206   0.147  11.536   9.305
75791SOL    HW229207   0.292  11.523   9.347
75792SOL     OW29208  11.993  14.678   6.107
75792SOL    HW129209  12.036  14.764   6.099
75792SOL    HW229210  11.899  14.699   6.110
75793SOL     OW29211   6.850  10.327   0.203
75793SOL    HW129212   6.778  10.378   0.239
75793SOL    HW229213   6.909  10.391   0.165
75794SOL     OW29214   4.679  10.804   6.094
75794SOL    HW129215   4.604  10.748   6.078
75794SOL    HW229216   4.739  10.787   6.022
75795SOL     OW29217  14.408   3.834   1.471
75795SOL    HW129218  14.499   3.829   1.499
75795SOL    HW229219  14.383   3.925   1.489
75796SOL     OW29220   2.465   0.156  10.103
75796SOL    HW129221   2.445   0.233  10.049
75796SOL    HW229222   2.409   0.166  10.180
75797SOL     OW29223  14.005   4.356   2.003
75797SOL    HW129224  14.003   4.281   2.063
75797SOL    HW229225  13.957   4.425   2.048
75798SOL     OW29226   2.273   8.410  10.963
75798SOL    HW129227   2.362   8.439  10.984
75798SOL    HW229228   2.285   8.343  10.896
75799SOL     OW29229   4.334   9.647  13.599
75799SOL    HW129230   4.419   9.613  13.625
75799SOL    HW229231   4.345   9.672  13.507
75800SOL     OW29232  10.661   8.826   6.435
75800SOL    HW129233  10.676   8.736   6.465
75800SOL    HW229234  10.619   8.816   6.349
75801SOL     OW29235   5.206   9.932  12.073
75801SOL    HW129236   5.154   9.905  11.997
75801SOL    HW229237   5.255  10.008  12.043
75802SOL     OW29238  11.783   5.397   4.056
75802SOL    HW129239  11.878   5.385   4.053
75802SOL    HW229240  11.752   5.367   3.970
75803SOL     OW29241   6.590   8.071   4.801
75803SOL    HW129242   6.530   8.142   4.777
75803SOL    HW229243   6.533   8.000   4.831
75804SOL     OW29244   2.199  13.309   8.936
75804SOL    HW129245   2.236  13.224   8.912
75804SOL    HW229246   2.175  13.299   9.028
75805SOL     OW29247  13.192  12.334  10.408
75805SOL    HW129248  13.228  12.422  10.422
75805SOL    HW229249  13.101  12.340  10.437
75806SOL     OW29250   5.235   7.045   8.682
75806SOL    HW129251   5.166   7.002   8.632
75806SOL    HW229252   5.309   7.051   8.621
75807SOL     OW29253  12.049  14.105   1.912
75807SOL    HW129254  12.014  14.015   1.908
75807SOL    HW229255  12.024  14.143   1.828
75808SOL     OW29256  14.236   7.685   5.062
75808SOL    HW129257  14.197   7.655   5.144
75808SOL    HW229258  14.272   7.606   5.021
75809SOL     OW29259   9.384  11.976   6.889
75809SOL    HW129260   9.479  11.971   6.879
75809SOL    HW229261   9.357  11.887   6.913
75810SOL     OW29262  12.738  11.138   0.106
75810SOL    HW129263  12.668  11.132   0.171
75810SOL    HW229264  12.740  11.231   0.082
75811SOL     OW29265  11.805   7.260   5.000
75811SOL    HW129266  11.758   7.229   4.923
75811SOL    HW229267  11.894   7.225   4.990
75812SOL     OW29268  10.071   9.158   3.894
75812SOL    HW129269  10.068   9.250   3.919
75812SOL    HW229270   9.990   9.144   3.845
75813SOL     OW29271   2.630  14.135  13.648
75813SOL    HW129272   2.567  14.145  13.720
75813SOL    HW229273   2.595  14.064  13.594
75814SOL     OW29274  13.645  11.168   6.813
75814SOL    HW129275  13.715  11.126   6.861
75814SOL    HW229276  13.630  11.111   6.737
75815SOL     OW29277   0.245   8.263  10.743
75815SOL    HW129278   0.282   8.213  10.815
75815SOL    HW229279   0.223   8.348  10.781
75816SOL     OW29280  13.988   3.911  13.010
75816SOL    HW129281  14.054   3.896  12.942
75816SOL    HW229282  14.010   3.995  13.048
75817SOL     OW29283   7.705  12.850  11.677
75817SOL    HW129284   7.682  12.795  11.602
75817SOL    HW229285   7.665  12.807  11.752
75818SOL     OW29286  11.959   9.698   3.986
75818SOL    HW129287  12.014   9.692   4.064
75818SOL    HW229288  11.902   9.773   4.003
75819SOL     OW29289  11.989   8.477   6.523
75819SOL    HW129290  12.076   8.488   6.560
75819SOL    HW229291  11.977   8.554   6.468
75820SOL     OW29292   6.441   2.041  12.715
75820SOL    HW129293   6.501   2.008  12.781
75820SOL    HW229294   6.357   2.050  12.761
75821SOL     OW29295  12.507   0.706   2.672
75821SOL    HW129296  12.505   0.646   2.746
75821SOL    HW229297  12.600   0.715   2.651
75822SOL     OW29298   8.396  13.949   3.240
75822SOL    HW129299   8.482  13.990   3.229
75822SOL    HW229300   8.357  13.951   3.153
75823SOL     OW29301   1.061   0.490   5.262
75823SOL    HW129302   1.142   0.455   5.223
75823SOL    HW229303   1.052   0.443   5.344
75824SOL     OW29304  11.294  12.870   5.649
75824SOL    HW129305  11.282  12.822   5.730
75824SOL    HW229306  11.388  12.884   5.642
75825SOL     OW29307  13.558   6.385   8.136
75825SOL    HW129308  13.584   6.445   8.206
75825SOL    HW229309  13.583   6.431   8.056
75826SOL     OW29310  12.807  11.855   5.101
75826SOL    HW129311  12.767  11.895   5.178
75826SOL    HW229312  12.866  11.922   5.067
75827SOL     OW29313  12.686   1.185   1.732
75827SOL    HW129314  12.632   1.262   1.714
75827SOL    HW229315  12.685   1.176   1.827
75828SOL     OW29316   5.951  10.667  10.422
75828SOL    HW129317   6.022  10.676  10.486
75828SOL    HW229318   5.894  10.600  10.460
75829SOL     OW29319   7.649  12.622   1.890
75829SOL    HW129320   7.575  12.565   1.867
75829SOL    HW229321   7.622  12.709   1.859
75830SOL     OW29322   5.156   5.837  11.035
75830SOL    HW129323   5.189   5.912  10.987
75830SOL    HW229324   5.100   5.791  10.972
75831SOL     OW29325  12.846   8.364   4.138
75831SOL    HW129326  12.905   8.439   4.134
75831SOL    HW229327  12.902   8.289   4.117
75832SOL     OW29328   7.597   9.795   4.895
75832SOL    HW129329   7.511   9.758   4.917
75832SOL    HW229330   7.652   9.719   4.877
75833SOL     OW29331   0.749   2.577   7.862
75833SOL    HW129332   0.720   2.511   7.926
75833SOL    HW229333   0.842   2.589   7.882
75834SOL     OW29334   5.861   7.361  13.052
75834SOL    HW129335   5.830   7.357  12.962
75834SOL    HW229336   5.889   7.451  13.064
75835SOL     OW29337  14.752  11.195   6.615
75835SOL    HW129338  14.701  11.115   6.628
75835SOL    HW229339  14.691  11.266   6.634
75836SOL     OW29340   2.962   0.409  14.059
75836SOL    HW129341   2.985   0.332  14.007
75836SOL    HW229342   3.046   0.450  14.080
75837SOL     OW29343   1.646   8.913   5.914
75837SOL    HW129344   1.673   8.828   5.950
75837SOL    HW229345   1.647   8.972   5.990
75838SOL     OW29346   8.785  14.206  14.182
75838SOL    HW129347   8.880  14.193  14.185
75838SOL    HW229348   8.771  14.291  14.224
75839SOL     OW29349   8.070  12.320   6.926
75839SOL    HW129350   7.996  12.381   6.929
75839SOL    HW229351   8.132  12.354   6.991
75840SOL     OW29352  12.534   6.202  11.015
75840SOL    HW129353  12.607   6.155  10.976
75840SOL    HW229354  12.485   6.135  11.063
75841SOL     OW29355   5.073  12.338  13.026
75841SOL    HW129356   5.033  12.415  13.066
75841SOL    HW229357   5.148  12.318  13.083
75842SOL     OW29358  10.041   5.894   0.765
75842SOL    HW129359  10.114   5.953   0.785
75842SOL    HW229360   9.965   5.952   0.760
75843SOL     OW29361  11.548   1.910   2.278
75843SOL    HW129362  11.457   1.882   2.267
75843SOL    HW229363  11.541   2.000   2.311
75844SOL     OW29364  13.973   0.078   5.837
75844SOL    HW129365  13.931   0.162   5.856
75844SOL    HW229366  14.002   0.086   5.746
75845SOL     OW29367  11.527   4.487   2.860
75845SOL    HW129368  11.503   4.394   2.860
75845SOL    HW229369  11.468   4.525   2.925
75846SOL     OW29370   5.840  11.960  12.847
75846SOL    HW129371   5.830  11.914  12.763
75846SOL    HW229372   5.914  12.019  12.833
75847SOL     OW29373   9.716   4.174   9.722
75847SOL    HW129374   9.628   4.209   9.704
75847SOL    HW229375   9.701   4.081   9.742
75848SOL     OW29376  11.747   2.714  13.331
75848SOL    HW129377  11.809   2.684  13.264
75848SOL    HW229378  11.693   2.637  13.350
75849SOL     OW29379   6.368   9.356  10.985
75849SOL    HW129380   6.461   9.336  10.982
75849SOL    HW229381   6.327   9.292  10.926
75850SOL     OW29382   0.456   5.280  12.535
75850SOL    HW129383   0.375   5.327  12.555
75850SOL    HW229384   0.464   5.216  12.605
75851SOL     OW29385   2.301   5.945  10.898
75851SOL    HW129386   2.335   5.876  10.955
75851SOL    HW229387   2.206   5.935  10.903
75852SOL     OW29388   5.567   1.044   7.024
75852SOL    HW129389   5.570   1.101   6.947
75852SOL    HW229390   5.656   1.048   7.059
75853SOL     OW29391  14.392   0.364  11.737
75853SOL    HW129392  14.419   0.286  11.784
75853SOL    HW229393  14.451   0.367  11.661
75854SOL     OW29394  11.944   1.329  10.094
75854SOL    HW129395  11.969   1.331  10.001
75854SOL    HW229396  12.027   1.314  10.140
75855SOL     OW29397   7.893   7.557  14.866
75855SOL    HW129398   7.913   7.464  14.861
75855SOL    HW229399   7.911   7.581   0.078
75856SOL     OW29400  13.852   4.216   3.579
75856SOL    HW129401  13.843   4.143   3.640
75856SOL    HW229402  13.768   4.220   3.533
75857SOL     OW29403   2.859   4.503  14.280
75857SOL    HW129404   2.840   4.544  14.364
75857SOL    HW229405   2.938   4.547  14.249
75858SOL     OW29406   2.571  12.188   3.424
75858SOL    HW129407   2.524  12.133   3.486
75858SOL    HW229408   2.520  12.269   3.422
75859SOL     OW29409  14.144   2.893   0.739
75859SOL    HW129410  14.157   2.940   0.656
75859SOL    HW229411  14.049   2.891   0.750
75860SOL     OW29412   9.287  11.228  12.043
75860SOL    HW129413   9.317  11.301  11.990
75860SOL    HW229414   9.365  11.196  12.088
75861SOL     OW29415  14.386   4.919   1.153
75861SOL    HW129416  14.332   4.841   1.160
75861SOL    HW229417  14.422   4.915   1.064
75862SOL     OW29418   0.845  11.065  10.637
75862SOL    HW129419   0.756  11.100  10.647
75862SOL    HW229420   0.879  11.058  10.726
75863SOL     OW29421  10.091   4.149   7.104
75863SOL    HW129422  10.037   4.191   7.170
75863SOL    HW229423  10.098   4.213   7.033
75864SOL     OW29424  11.510   2.055   9.738
75864SOL    HW129425  11.590   2.074   9.787
75864SOL    HW229426  11.462   2.138   9.737
75865SOL     OW29427   1.164   3.320  13.699
75865SOL    HW129428   1.183   3.235  13.660
75865SOL    HW229429   1.171   3.382  13.627
75866SOL     OW29430  10.463   3.617   9.644
75866SOL    HW129431  10.456   3.673   9.721
75866SOL    HW229432  10.545   3.642   9.602
75867SOL     OW29433   5.474   9.836   0.691
75867SOL    HW129434   5.506   9.904   0.751
75867SOL    HW229435   5.459   9.882   0.608
75868SOL     OW29436   6.563   6.312   7.554
75868SOL    HW129437   6.632   6.298   7.489
75868SOL    HW229438   6.602   6.285   7.637
75869SOL     OW29439  10.963  10.960   4.871
75869SOL    HW129440  10.996  10.950   4.960
75869SOL    HW229441  10.960  11.055   4.857
75870SOL     OW29442   9.663  10.977   6.383
75870SOL    HW129443   9.627  10.930   6.308
75870SOL    HW229444   9.657  10.914   6.455
75871SOL     OW29445  13.600   7.593   7.938
75871SOL    HW129446  13.545   7.607   8.015
75871SOL    HW229447  13.549   7.536   7.881
75872SOL     OW29448   1.230  12.132   4.950
75872SOL    HW129449   1.153  12.091   4.990
75872SOL    HW229450   1.291  12.145   5.023
75873SOL     OW29451  12.868   1.535   1.265
75873SOL    HW129452  12.862   1.449   1.305
75873SOL    HW229453  12.778   1.556   1.239
75874SOL     OW29454   9.400  11.679   2.120
75874SOL    HW129455   9.437  11.604   2.168
75874SOL    HW229456   9.395  11.649   2.029
75875SOL     OW29457  11.127   4.933  11.766
75875SOL    HW129458  11.220   4.951  11.749
75875SOL    HW229459  11.099   4.879  11.692
75876SOL     OW29460  10.402  13.142  12.900
75876SOL    HW129461  10.372  13.118  12.813
75876SOL    HW229462  10.498  13.136  12.895
75877SOL     OW29463  14.372   4.407  10.209
75877SOL    HW129464  14.301   4.443  10.154
75877SOL    HW229465  14.342   4.422  10.299
75878SOL     OW29466   0.403  10.910   0.313
75878SOL    HW129467   0.326  10.855   0.329
75878SOL    HW229468   0.470  10.873   0.371
75879SOL     OW29469  13.888   0.422   3.611
75879SOL    HW129470  13.903   0.514   3.633
75879SOL    HW229471  13.863   0.423   3.518
75880SOL     OW29472   3.938   5.979  11.172
75880SOL    HW129473   3.929   5.937  11.087
75880SOL    HW229474   3.978   6.064  11.153
75881SOL     OW29475   5.729   8.079   6.410
75881SOL    HW129476   5.761   8.115   6.493
75881SOL    HW229477   5.801   8.090   6.349
75882SOL     OW29478   7.365  14.488  13.406
75882SOL    HW129479   7.282  14.440  13.405
75882SOL    HW229480   7.423  14.435  13.461
75883SOL     OW29481   9.074   9.972   2.986
75883SOL    HW129482   9.126   9.891   2.980
75883SOL    HW229483   9.138  10.039   3.012
75884SOL     OW29484  14.538   1.698   3.084
75884SOL    HW129485  14.568   1.765   3.024
75884SOL    HW229486  14.573   1.724   3.169
75885SOL     OW29487   4.945  12.179   4.443
75885SOL    HW129488   4.918  12.146   4.529
75885SOL    HW229489   4.900  12.123   4.380
75886SOL     OW29490   4.999   9.133  14.206
75886SOL    HW129491   4.995   9.227  14.217
75886SOL    HW229492   5.005   9.098  14.294
75887SOL     OW29493  11.160   1.211   4.677
75887SOL    HW129494  11.194   1.198   4.589
75887SOL    HW229495  11.072   1.175   4.675
75888SOL     OW29496   5.809   3.895   1.329
75888SOL    HW129497   5.732   3.876   1.382
75888SOL    HW229498   5.789   3.976   1.284
75889SOL     OW29499   6.872   9.637  11.700
75889SOL    HW129500   6.795   9.581  11.692
75889SOL    HW229501   6.862   9.700  11.628
75890SOL     OW29502   0.329   0.079  10.124
75890SOL    HW129503   0.350   0.172  10.110
75890SOL    HW229504   0.270   0.057  10.052
75891SOL     OW29505   5.848   5.804  11.771
75891SOL    HW129506   5.913   5.874  11.764
75891SOL    HW229507   5.859   5.753  11.690
75892SOL     OW29508   1.698   1.140  14.558
75892SOL    HW129509   1.761   1.201  14.597
75892SOL    HW229510   1.634   1.197  14.514
75893SOL     OW29511   4.195  14.189   1.068
75893SOL    HW129512   4.264  14.244   1.031
75893SOL    HW229513   4.230  14.100   1.063
75894SOL     OW29514  12.135  11.437   0.547
75894SOL    HW129515  12.127  11.507   0.482
75894SOL    HW229516  12.047  11.431   0.585
75895SOL     OW29517   6.178  13.204   2.429
75895SOL    HW129518   6.131  13.157   2.360
75895SOL    HW229519   6.131  13.184   2.509
75896SOL     OW29520   5.918   0.886   2.605
75896SOL    HW129521   5.973   0.849   2.535
75896SOL    HW229522   5.952   0.848   2.685
75897SOL     OW29523  11.296   2.203   6.064
75897SOL    HW129524  11.376   2.242   6.099
75897SOL    HW229525  11.309   2.109   6.074
75898SOL     OW29526  11.502   7.112   9.138
75898SOL    HW129527  11.557   7.122   9.215
75898SOL    HW229528  11.412   7.120   9.171
75899SOL     OW29529  13.860   8.315  13.069
75899SOL    HW129530  13.782   8.275  13.106
75899SOL    HW229531  13.858   8.291  12.976
75900SOL     OW29532   1.546   0.385   7.040
75900SOL    HW129533   1.521   0.468   7.082
75900SOL    HW229534   1.475   0.325   7.062
75901SOL     OW29535   0.128   7.677   5.909
75901SOL    HW129536   0.077   7.605   5.871
75901SOL    HW229537   0.148   7.648   5.998
75902SOL     OW29538  14.167  12.215   1.925
75902SOL    HW129539  14.120  12.294   1.897
75902SOL    HW229540  14.253  12.248   1.954
75903SOL     OW29541  12.461  12.233   0.079
75903SOL    HW129542  12.447  12.325   0.103
75903SOL    HW229543  12.544  12.234   0.032
75904SOL     OW29544  13.616   7.001   0.368
75904SOL    HW129545  13.624   6.922   0.422
75904SOL    HW229546  13.688   6.996   0.306
75905SOL     OW29547   0.587   1.835  12.948
75905SOL    HW129548   0.554   1.746  12.961
75905SOL    HW229549   0.678   1.823  12.921
75906SOL     OW29550  11.150  12.365  14.312
75906SOL    HW129551  11.060  12.383  14.341
75906SOL    HW229552  11.151  12.395  14.221
75907SOL     OW29553   4.368   3.482  11.245
75907SOL    HW129554   4.294   3.447  11.295
75907SOL    HW229555   4.345   3.465  11.153
75908SOL     OW29556   1.667   4.138  14.283
75908SOL    HW129557   1.673   4.147  14.378
75908SOL    HW229558   1.644   4.047  14.268
75909SOL     OW29559   7.497  14.567   2.016
75909SOL    HW129560   7.475  14.476   2.039
75909SOL    HW229561   7.502  14.612   2.100
75910SOL     OW29562  13.997  13.198   3.905
75910SOL    HW129563  13.993  13.287   3.938
75910SOL    HW229564  13.967  13.204   3.814
75911SOL     OW29565   3.741   3.101  13.491
75911SOL    HW129566   3.784   3.176  13.451
75911SOL    HW229567   3.681   3.068  13.424
75912SOL     OW29568   2.981  14.703  10.073
75912SOL    HW129569   3.067  14.663  10.062
75912SOL    HW229570   2.936  14.647  10.137
75913SOL     OW29571  13.288   4.214   1.585
75913SOL    HW129572  13.375   4.187   1.616
75913SOL    HW229573  13.240   4.132   1.573
75914SOL     OW29574  14.425  11.558   5.851
75914SOL    HW129575  14.519  11.543   5.836
75914SOL    HW229576  14.422  11.626   5.919
75915SOL     OW29577   5.958  14.862  12.849
75915SOL    HW129578   6.017   0.050  12.884
75915SOL    HW229579   5.995  14.779  12.877
75916SOL     OW29580  11.927   8.064  13.095
75916SOL    HW129581  11.959   7.986  13.140
75916SOL    HW229582  11.844   8.037  13.056
75917SOL     OW29583   7.160  13.538   8.574
75917SOL    HW129584   7.245  13.579   8.592
75917SOL    HW229585   7.131  13.505   8.659
75918SOL     OW29586   1.725   9.685  14.037
75918SOL    HW129587   1.672   9.764  14.029
75918SOL    HW229588   1.782   9.686  13.959
75919SOL     OW29589   3.536   6.377  13.940
75919SOL    HW129590   3.474   6.337  14.000
75919SOL    HW229591   3.620   6.336  13.960
75920SOL     OW29592   2.970  12.981   7.420
75920SOL    HW129593   3.037  12.940   7.476
75920SOL    HW229594   2.992  12.952   7.332
75921SOL     OW29595   1.408  13.378  11.209
75921SOL    HW129596   1.338  13.440  11.224
75921SOL    HW229597   1.447  13.364  11.295
75922SOL     OW29598   6.065   8.359  13.979
75922SOL    HW129599   6.050   8.369  13.885
75922SOL    HW229600   6.156   8.385  13.992
75923SOL     OW29601  12.981   7.686   3.611
75923SOL    HW129602  12.939   7.768   3.585
75923SOL    HW229603  12.949   7.670   3.700
75924SOL     OW29604   0.118  13.365  13.570
75924SOL    HW129605   0.072  13.313  13.636
75924SOL    HW229606   0.163  13.433  13.620
75925SOL     OW29607   3.687   5.350   6.696
75925SOL    HW129608   3.680   5.316   6.607
75925SOL    HW229609   3.677   5.445   6.687
75926SOL     OW29610  12.986   6.625   4.920
75926SOL    HW129611  13.051   6.565   4.956
75926SOL    HW229612  13.003   6.708   4.966
75927SOL     OW29613   1.179   7.551   7.397
75927SOL    HW129614   1.173   7.548   7.493
75927SOL    HW229615   1.225   7.633   7.379
75928SOL     OW29616   0.648   8.830   9.640
75928SOL    HW129617   0.704   8.906   9.658
75928SOL    HW229618   0.700   8.775   9.582
75929SOL     OW29619   0.490  13.267   8.395
75929SOL    HW129620   0.520  13.189   8.350
75929SOL    HW229621   0.549  13.276   8.470
75930SOL     OW29622   3.933  13.391   5.883
75930SOL    HW129623   3.961  13.479   5.859
75930SOL    HW229624   3.851  13.404   5.931
75931SOL     OW29625   0.816   6.680   8.140
75931SOL    HW129626   0.749   6.659   8.205
75931SOL    HW229627   0.887   6.617   8.157
75932SOL     OW29628  12.705   3.630   9.411
75932SOL    HW129629  12.784   3.630   9.358
75932SOL    HW229630  12.733   3.594   9.496
75933SOL     OW29631  11.801   0.439  10.466
75933SOL    HW129632  11.808   0.499  10.541
75933SOL    HW229633  11.798   0.497  10.390
75934SOL     OW29634   7.127  14.598  10.953
75934SOL    HW129635   7.139  14.537  10.881
75934SOL    HW229636   7.038  14.581  10.984
75935SOL     OW29637  14.402  13.147  12.157
75935SOL    HW129638  14.494  13.140  12.182
75935SOL    HW229639  14.382  13.062  12.118
75936SOL     OW29640   9.248  12.478  12.678
75936SOL    HW129641   9.194  12.406  12.645
75936SOL    HW229642   9.304  12.502  12.604
75937SOL     OW29643  11.758   0.814   0.561
75937SOL    HW129644  11.681   0.760   0.580
75937SOL    HW229645  11.819   0.754   0.519
75938SOL     OW29646   9.007  13.629   2.651
75938SOL    HW129647   9.022  13.559   2.588
75938SOL    HW229648   9.088  13.633   2.703
75939SOL     OW29649  14.738   3.336   8.994
75939SOL    HW129650  14.795   3.259   8.998
75939SOL    HW229651  14.653   3.302   8.965
75940SOL     OW29652   9.912   8.852   6.294
75940SOL    HW129653   9.831   8.852   6.243
75940SOL    HW229654   9.979   8.823   6.233
75941SOL     OW29655   9.670   7.813   0.794
75941SOL    HW129656   9.758   7.844   0.813
75941SOL    HW229657   9.633   7.790   0.879
75942SOL     OW29658   7.445   4.216  13.308
75942SOL    HW129659   7.396   4.181  13.234
75942SOL    HW229660   7.381   4.216  13.380
75943SOL     OW29661   6.702  13.934  14.643
75943SOL    HW129662   6.652  13.952  14.563
75943SOL    HW229663   6.690  13.840  14.658
75944SOL     OW29664  13.108   6.285   5.835
75944SOL    HW129665  13.197   6.297   5.801
75944SOL    HW229666  13.052   6.327   5.770
75945SOL     OW29667   1.472   6.065  14.741
75945SOL    HW129668   1.499   5.987  14.791
75945SOL    HW229669   1.414   6.113  14.800
75946SOL     OW29670  14.045   1.456   6.650
75946SOL    HW129671  14.046   1.361   6.664
75946SOL    HW229672  14.123   1.488   6.695
75947SOL     OW29673   5.138   7.883  12.934
75947SOL    HW129674   5.234   7.883  12.928
75947SOL    HW229675   5.109   7.846  12.851
75948SOL     OW29676  12.155   8.595   8.273
75948SOL    HW129677  12.137   8.511   8.232
75948SOL    HW229678  12.249   8.609   8.260
75949SOL     OW29679  14.431   3.265   1.965
75949SOL    HW129680  14.501   3.302   2.018
75949SOL    HW229681  14.475   3.230   1.888
75950SOL     OW29682   7.765   1.341   0.549
75950SOL    HW129683   7.728   1.302   0.628
75950SOL    HW229684   7.689   1.380   0.504
75951SOL     OW29685   8.097   6.384   0.285
75951SOL    HW129686   8.100   6.294   0.318
75951SOL    HW229687   8.114   6.376   0.191
75952SOL     OW29688   7.887  10.243   7.487
75952SOL    HW129689   7.907  10.300   7.413
75952SOL    HW229690   7.946  10.273   7.557
75953SOL     OW29691   5.423   3.161   0.950
75953SOL    HW129692   5.358   3.125   0.890
75953SOL    HW229693   5.431   3.253   0.924
75954SOL     OW29694   3.668   9.236   6.961
75954SOL    HW129695   3.653   9.270   7.049
75954SOL    HW229696   3.615   9.292   6.904
75955SOL     OW29697   0.951  14.848  14.724
75955SOL    HW129698   0.884  14.876  14.661
75955SOL    HW229699   0.931  14.756  14.741
75956SOL     OW29700  12.130   8.661   2.861
75956SOL    HW129701  12.164   8.704   2.940
75956SOL    HW229702  12.036   8.674   2.866
75957SOL     OW29703  11.992   1.322  10.360
75957SOL    HW129704  12.044   1.402  10.361
75957SOL    HW229705  11.923   1.339  10.296
75958SOL     OW29706   2.178  13.135  10.259
75958SOL    HW129707   2.118  13.138  10.334
75958SOL    HW229708   2.140  13.197  10.196
75959SOL     OW29709   9.461  12.697   1.229
75959SOL    HW129710   9.445  12.616   1.277
75959SOL    HW229711   9.537  12.677   1.175
75960SOL     OW29712  14.744  10.041   9.577
75960SOL    HW129713  14.697  10.064   9.657
75960SOL    HW229714  14.809   9.976   9.605
75961SOL     OW29715   9.460  12.689  14.582
75961SOL    HW129716   9.436  12.729  14.498
75961SOL    HW229717   9.376  12.659  14.619
75962SOL     OW29718   7.451   4.820   4.033
75962SOL    HW129719   7.424   4.746   4.087
75962SOL    HW229720   7.405   4.895   4.070
75963SOL     OW29721   5.149  11.169   1.591
75963SOL    HW129722   5.181  11.187   1.502
75963SOL    HW229723   5.159  11.252   1.637
75964SOL     OW29724   8.234   0.156   1.822
75964SOL    HW129725   8.296   0.100   1.869
75964SOL    HW229726   8.149   0.114   1.837
75965SOL     OW29727   1.150  14.362  11.225
75965SOL    HW129728   1.067  14.326  11.257
75965SOL    HW229729   1.152  14.451  11.261
75966SOL     OW29730   8.811   4.209  10.289
75966SOL    HW129731   8.769   4.201  10.375
75966SOL    HW229732   8.866   4.287  10.296
75967SOL     OW29733  13.118   1.651   5.269
75967SOL    HW129734  13.150   1.600   5.344
75967SOL    HW229735  13.194   1.701   5.239
75968SOL     OW29736  10.608   9.618   1.092
75968SOL    HW129737  10.533   9.587   1.042
75968SOL    HW229738  10.571   9.681   1.154
75969SOL     OW29739  11.873   0.755  10.084
75969SOL    HW129740  11.881   0.848  10.103
75969SOL    HW229741  11.835   0.717  10.164
75970SOL     OW29742   8.344   9.934   0.923
75970SOL    HW129743   8.283   9.863   0.903
75970SOL    HW229744   8.288  10.011   0.932
75971SOL     OW29745   1.540   4.276   3.667
75971SOL    HW129746   1.568   4.233   3.747
75971SOL    HW229747   1.582   4.226   3.597
75972SOL     OW29748   8.974   9.814  14.297
75972SOL    HW129749   8.920   9.798  14.375
75972SOL    HW229750   8.966   9.908  14.282
75973SOL     OW29751   4.831   9.992   8.681
75973SOL    HW129752   4.823   9.963   8.772
75973SOL    HW229753   4.832  10.087   8.686
75974SOL     OW29754   2.258   9.888   7.595
75974SOL    HW129755   2.319   9.852   7.658
75974SOL    HW229756   2.292   9.860   7.510
75975SOL     OW29757  14.027  14.344   3.880
75975SOL    HW129758  14.033  14.428   3.833
75975SOL    HW229759  14.116  14.328   3.912
75976SOL     OW29760   9.066   6.505  14.168
75976SOL    HW129761   9.091   6.482  14.257
75976SOL    HW229762   9.135   6.466  14.113
75977SOL     OW29763   9.031  13.712   3.288
75977SOL    HW129764   9.076  13.666   3.359
75977SOL    HW229765   8.938  13.698   3.306
75978SOL     OW29766   1.073   3.485   0.660
75978SOL    HW129767   1.040   3.552   0.600
75978SOL    HW229768   1.116   3.421   0.603
75979SOL     OW29769   8.560   9.825  11.578
75979SOL    HW129770   8.616   9.748  11.583
75979SOL    HW229771   8.500   9.807  11.505
75980SOL     OW29772   5.643  11.934   9.291
75980SOL    HW129773   5.738  11.935   9.293
75980SOL    HW229774   5.617  11.998   9.358
75981SOL     OW29775  11.056   5.626   8.645
75981SOL    HW129776  11.146   5.637   8.616
75981SOL    HW229777  11.027   5.546   8.602
75982SOL     OW29778   8.833   5.811   6.396
75982SOL    HW129779   8.912   5.864   6.389
75982SOL    HW229780   8.763   5.874   6.414
75983SOL     OW29781  11.730  12.619  10.671
75983SOL    HW129782  11.743  12.711  10.692
75983SOL    HW229783  11.798  12.599  10.606
75984SOL     OW29784   0.907   1.207  13.397
75984SOL    HW129785   0.941   1.266  13.464
75984SOL    HW229786   0.920   1.119  13.433
75985SOL     OW29787   9.379   8.234   1.661
75985SOL    HW129788   9.460   8.187   1.638
75985SOL    HW229789   9.370   8.221   1.756
75986SOL     OW29790  13.939  11.839   9.305
75986SOL    HW129791  13.874  11.788   9.257
75986SOL    HW229792  13.889  11.912   9.342
75987SOL     OW29793   0.407  14.018   7.603
75987SOL    HW129794   0.479  14.056   7.554
75987SOL    HW229795   0.428  14.034   7.695
75988SOL     OW29796   1.887  12.000   3.629
75988SOL    HW129797   1.823  12.067   3.653
75988SOL    HW229798   1.844  11.950   3.559
75989SOL     OW29799  10.522   1.622  10.604
75989SOL    HW129800  10.573   1.631  10.685
75989SOL    HW229801  10.531   1.530  10.580
75990SOL     OW29802  12.296   9.992   5.309
75990SOL    HW129803  12.261   9.979   5.397
75990SOL    HW229804  12.233  10.051   5.266
75991SOL     OW29805   1.345   2.164   3.570
75991SOL    HW129806   1.372   2.085   3.616
75991SOL    HW229807   1.290   2.133   3.498
75992SOL     OW29808   7.830   2.248   5.939
75992SOL    HW129809   7.845   2.218   5.850
75992SOL    HW229810   7.817   2.167   5.989
75993SOL     OW29811   2.826   0.069  10.835
75993SOL    HW129812   2.773   0.004  10.788
75993SOL    HW229813   2.768   0.144  10.846
75994SOL     OW29814   7.699  12.143   4.971
75994SOL    HW129815   7.740  12.207   4.913
75994SOL    HW229816   7.753  12.064   4.961
75995SOL     OW29817  10.248   4.054   0.010
75995SOL    HW129818  10.235   3.959   0.002
75995SOL    HW229819  10.175   4.092  14.840
75996SOL     OW29820  11.321   1.558   6.945
75996SOL    HW129821  11.270   1.521   7.017
75996SOL    HW229822  11.371   1.483   6.911
75997SOL     OW29823   7.017  11.385   1.927
75997SOL    HW129824   7.090  11.431   1.885
75997SOL    HW229825   7.031  11.398   2.021
75998SOL     OW29826   3.637   6.128  14.846
75998SOL    HW129827   3.621   6.034  14.850
75998SOL    HW229828   3.570   6.162  14.788
75999SOL     OW29829   5.386   7.693   3.845
75999SOL    HW129830   5.406   7.691   3.751
75999SOL    HW229831   5.455   7.639   3.885
76000SOL     OW29832   0.834   3.804   1.771
76000SOL    HW129833   0.823   3.745   1.846
76000SOL    HW229834   0.746   3.838   1.753
76001SOL     OW29835   2.591   6.967   0.422
76001SOL    HW129836   2.563   6.989   0.511
76001SOL    HW229837   2.680   6.933   0.433
76002SOL     OW29838   4.869   8.192   5.448
76002SOL    HW129839   4.819   8.194   5.366
76002SOL    HW229840   4.824   8.127   5.502
76003SOL     OW29841  14.757   1.021  12.176
76003SOL    HW129842  14.732   0.928  12.168
76003SOL    HW229843  14.844   1.026  12.137
76004SOL     OW29844   4.526   6.435   0.530
76004SOL    HW129845   4.508   6.459   0.621
76004SOL    HW229846   4.579   6.507   0.497
76005SOL     OW29847   0.588   3.190  10.931
76005SOL    HW129848   0.681   3.184  10.953
76005SOL    HW229849   0.572   3.115  10.875
76006SOL     OW29850  10.383  10.064   3.649
76006SOL    HW129851  10.386   9.968   3.644
76006SOL    HW229852  10.462  10.088   3.697
76007SOL     OW29853   6.369   5.020   8.598
76007SOL    HW129854   6.329   5.102   8.627
76007SOL    HW229855   6.455   5.020   8.640
76008SOL     OW29856  10.638   1.143   8.037
76008SOL    HW129857  10.552   1.156   7.996
76008SOL    HW229858  10.658   1.228   8.078
76009SOL     OW29859   8.436   2.875   8.113
76009SOL    HW129860   8.463   2.785   8.125
76009SOL    HW229861   8.517   2.923   8.097
76010SOL     OW29862  13.710   2.280   4.429
76010SOL    HW129863  13.767   2.345   4.469
76010SOL    HW229864  13.630   2.328   4.408
76011SOL     OW29865   2.909  14.553   1.404
76011SOL    HW129866   2.895  14.616   1.334
76011SOL    HW229867   2.822  14.517   1.423
76012SOL     OW29868   9.199   4.744   8.302
76012SOL    HW129869   9.279   4.691   8.300
76012SOL    HW229870   9.188   4.766   8.395
76013SOL     OW29871  12.841  11.027   3.304
76013SOL    HW129872  12.863  11.040   3.211
76013SOL    HW229873  12.828  10.933   3.312
76014SOL     OW29874   2.496   5.141   6.477
76014SOL    HW129875   2.549   5.133   6.556
76014SOL    HW229876   2.425   5.079   6.489
76015SOL     OW29877   9.521   5.522   1.359
76015SOL    HW129878   9.449   5.503   1.299
76015SOL    HW229879   9.598   5.531   1.302
76016SOL     OW29880   0.333   5.604   9.651
76016SOL    HW129881   0.265   5.620   9.717
76016SOL    HW229882   0.412   5.585   9.701
76017SOL     OW29883   9.929   8.718   5.425
76017SOL    HW129884   9.858   8.775   5.457
76017SOL    HW229885  10.001   8.733   5.487
76018SOL     OW29886   0.578   3.536   5.571
76018SOL    HW129887   0.496   3.488   5.586
76018SOL    HW229888   0.587   3.593   5.648
76019SOL     OW29889   3.971  11.898   0.856
76019SOL    HW129890   3.935  11.899   0.944
76019SOL    HW229891   3.967  11.806   0.828
76020SOL     OW29892   7.164  10.685   0.580
76020SOL    HW129893   7.134  10.744   0.649
76020SOL    HW229894   7.252  10.716   0.559
76021SOL     OW29895   4.411   5.123   2.566
76021SOL    HW129896   4.472   5.112   2.493
76021SOL    HW229897   4.465   5.110   2.644
76022SOL     OW29898  13.453   8.697  11.761
76022SOL    HW129899  13.369   8.673  11.722
76022SOL    HW229900  13.513   8.701  11.687
76023SOL     OW29901   3.647   9.669  12.466
76023SOL    HW129902   3.742   9.681  12.458
76023SOL    HW229903   3.627   9.696  12.555
76024SOL     OW29904  11.624  13.340  13.954
76024SOL    HW129905  11.649  13.248  13.955
76024SOL    HW229906  11.564  13.350  14.028
76025SOL     OW29907   2.264   3.257   2.442
76025SOL    HW129908   2.235   3.323   2.505
76025SOL    HW229909   2.356   3.241   2.463
76026SOL     OW29910  13.967   6.933   7.168
76026SOL    HW129911  13.972   6.871   7.094
76026SOL    HW229912  13.881   6.973   7.159
76027SOL     OW29913   4.603   7.684   5.012
76027SOL    HW129914   4.560   7.677   4.927
76027SOL    HW229915   4.558   7.755   5.057
76028SOL     OW29916  10.129   3.657   7.116
76028SOL    HW129917  10.094   3.693   7.197
76028SOL    HW229918  10.219   3.633   7.138
76029SOL     OW29919   0.636   2.511   4.465
76029SOL    HW129920   0.722   2.483   4.496
76029SOL    HW229921   0.651   2.538   4.375
76030SOL     OW29922   5.839   5.659   6.262
76030SOL    HW129923   5.925   5.699   6.249
76030SOL    HW229924   5.816   5.681   6.352
76031SOL     OW29925  12.633   7.774   1.893
76031SOL    HW129926  12.689   7.837   1.939
76031SOL    HW229927  12.549   7.819   1.885
76032SOL     OW29928  14.778  14.566   4.253
76032SOL    HW129929  14.825  14.548   4.172
76032SOL    HW229930  14.846  14.584   4.317
76033SOL     OW29931  11.293   0.966   9.666
76033SOL    HW129932  11.289   1.042   9.607
76033SOL    HW229933  11.386   0.957   9.688
76034SOL     OW29934   4.701   4.004   6.233
76034SOL    HW129935   4.751   3.939   6.283
76034SOL    HW229936   4.764   4.073   6.213
76035SOL     OW29937  14.391  10.187   1.797
76035SOL    HW129938  14.436  10.261   1.839
76035SOL    HW229939  14.325  10.228   1.742
76036SOL     OW29940  14.231  11.346   6.894
76036SOL    HW129941  14.168  11.305   6.953
76036SOL    HW229942  14.283  11.273   6.861
76037SOL     OW29943   6.484   4.550  14.331
76037SOL    HW129944   6.446   4.627  14.374
76037SOL    HW229945   6.410   4.508  14.287
76038SOL     OW29946   1.418  14.453   5.274
76038SOL    HW129947   1.340  14.502   5.248
76038SOL    HW229948   1.424  14.466   5.369
76039SOL     OW29949  10.371   1.767  10.996
76039SOL    HW129950  10.312   1.759  11.071
76039SOL    HW229951  10.407   1.856  11.003
76040SOL     OW29952  13.375   3.189   3.357
76040SOL    HW129953  13.300   3.203   3.298
76040SOL    HW229954  13.448   3.172   3.298
76041SOL     OW29955   7.697   2.571   1.684
76041SOL    HW129956   7.667   2.661   1.667
76041SOL    HW229957   7.629   2.534   1.741
76042SOL     OW29958   1.294  13.241   9.746
76042SOL    HW129959   1.227  13.287   9.795
76042SOL    HW229960   1.335  13.183   9.810
76043SOL     OW29961   4.828  11.768  14.814
76043SOL    HW129962   4.865  11.834  14.872
76043SOL    HW229963   4.840  11.686  14.861
76044SOL     OW29964   1.927   8.866   2.765
76044SOL    HW129965   1.975   8.872   2.847
76044SOL    HW229966   1.936   8.775   2.738
76045SOL     OW29967   3.193   6.379   5.172
76045SOL    HW129968   3.237   6.409   5.093
76045SOL    HW229969   3.177   6.286   5.156
76046SOL     OW29970   3.678   7.555   3.271
76046SOL    HW129971   3.748   7.597   3.219
76046SOL    HW229972   3.655   7.477   3.220
76047SOL     OW29973  13.841   2.724   8.041
76047SOL    HW129974  13.925   2.739   8.084
76047SOL    HW229975  13.782   2.788   8.080
76048SOL     OW29976   1.493   9.075   6.406
76048SOL    HW129977   1.455   9.162   6.415
76048SOL    HW229978   1.542   9.062   6.487
76049SOL     OW29979  13.766  10.879  11.660
76049SOL    HW129980  13.681  10.868  11.618
76049SOL    HW229981  13.825  10.904  11.589
76050SOL     OW29982   4.100   6.734  13.162
76050SOL    HW129983   4.131   6.821  13.140
76050SOL    HW229984   4.178   6.688  13.193
76051SOL     OW29985   6.551  11.916   2.871
76051SOL    HW129986   6.630  11.880   2.832
76051SOL    HW229987   6.559  12.011   2.860
76052SOL     OW29988   4.836   2.106   6.780
76052SOL    HW129989   4.829   2.199   6.761
76052SOL    HW229990   4.927   2.084   6.762
76053SOL     OW29991   3.188   6.875   5.430
76053SOL    HW129992   3.257   6.823   5.472
76053SOL    HW229993   3.109   6.857   5.481
76054SOL     OW29994  10.603   4.334  12.077
76054SOL    HW129995  10.577   4.426  12.070
76054SOL    HW229996  10.606   4.317  12.171
76055SOL     OW29997  11.420   5.995   8.762
76055SOL    HW129998  11.502   5.947   8.747
76055SOL    HW229999  11.364   5.970   8.689
76056SOL     OW30000   5.822   1.074   1.139
76056SOL    HW130001   5.781   0.990   1.122
76056SOL    HW230002   5.750   1.137   1.135
76057SOL     OW30003   6.069   3.095   6.384
76057SOL    HW130004   6.026   3.169   6.343
76057SOL    HW230005   6.143   3.075   6.327
76058SOL     OW30006   0.685  10.691   0.732
76058SOL    HW130007   0.671  10.713   0.825
76058SOL    HW230008   0.764  10.739   0.708
76059SOL     OW30009   3.280  12.634   3.886
76059SOL    HW130010   3.297  12.693   3.813
76059SOL    HW230011   3.217  12.682   3.941
76060SOL     OW30012   6.216   7.674  13.964
76060SOL    HW130013   6.249   7.638  13.882
76060SOL    HW230014   6.192   7.597  14.016
76061SOL     OW30015  13.047   8.283  14.652
76061SOL    HW130016  13.132   8.238  14.664
76061SOL    HW230017  13.056   8.364  14.703
76062SOL     OW30018   6.338  13.185   9.227
76062SOL    HW130019   6.281  13.115   9.258
76062SOL    HW230020   6.414  13.182   9.285
76063SOL     OW30021  14.326   3.258   9.525
76063SOL    HW130022  14.276   3.331   9.487
76063SOL    HW230023  14.351   3.289   9.612
76064SOL     OW30024  11.176   5.510   7.448
76064SOL    HW130025  11.198   5.438   7.508
76064SOL    HW230026  11.203   5.479   7.362
76065SOL     OW30027  13.202   2.645   1.740
76065SOL    HW130028  13.260   2.574   1.768
76065SOL    HW230029  13.197   2.636   1.645
76066SOL     OW30030   6.861   6.064   0.419
76066SOL    HW130031   6.872   6.091   0.328
76066SOL    HW230032   6.853   6.146   0.468
76067SOL     OW30033   7.236   4.620   9.857
76067SOL    HW130034   7.213   4.544   9.805
76067SOL    HW230035   7.319   4.597   9.899
76068SOL     OW30036  14.363   6.604   4.382
76068SOL    HW130037  14.393   6.622   4.293
76068SOL    HW230038  14.409   6.669   4.436
76069SOL     OW30039  12.716  10.214   9.302
76069SOL    HW130040  12.811  10.202   9.301
76069SOL    HW230041  12.683  10.141   9.355
76070SOL     OW30042   0.555  10.847   7.776
76070SOL    HW130043   0.518  10.903   7.843
76070SOL    HW230044   0.605  10.906   7.720
76071SOL     OW30045   0.672   8.340   7.865
76071SOL    HW130046   0.658   8.251   7.834
76071SOL    HW230047   0.619   8.346   7.945
76072SOL     OW30048   6.514  10.926   6.815
76072SOL    HW130049   6.445  10.887   6.762
76072SOL    HW230050   6.468  10.967   6.888
76073SOL     OW30051   9.433   0.949   9.492
76073SOL    HW130052   9.438   0.863   9.535
76073SOL    HW230053   9.498   1.002   9.537
76074SOL     OW30054   3.216   6.035   8.390
76074SOL    HW130055   3.287   5.999   8.338
76074SOL    HW230056   3.250   6.036   8.480
76075SOL     OW30057  13.010  12.661   8.338
76075SOL    HW130058  13.053  12.576   8.347
76075SOL    HW230059  13.072  12.723   8.378
76076SOL     OW30060   0.883   7.349   1.631
76076SOL    HW130061   0.968   7.374   1.668
76076SOL    HW230062   0.819   7.403   1.677
76077SOL     OW30063   8.181  13.510   8.413
76077SOL    HW130064   8.175  13.481   8.322
76077SOL    HW230065   8.122  13.452   8.461
76078SOL     OW30066   8.721   2.389  13.040
76078SOL    HW130067   8.689   2.476  13.018
76078SOL    HW230068   8.704   2.336  12.962
76079SOL     OW30069   8.973   7.264   1.572
76079SOL    HW130070   8.986   7.223   1.657
76079SOL    HW230071   9.060   7.295   1.546
76080SOL     OW30072   8.673   1.006   0.040
76080SOL    HW130073   8.644   0.966  14.837
76080SOL    HW230074   8.594   1.044   0.078
76081SOL     OW30075   9.762   9.093   4.788
76081SOL    HW130076   9.755   9.006   4.748
76081SOL    HW230077   9.702   9.148   4.738
76082SOL     OW30078   3.430   1.250   1.348
76082SOL    HW130079   3.373   1.175   1.331
76082SOL    HW230080   3.490   1.252   1.274
76083SOL     OW30081  13.602   6.370   5.630
76083SOL    HW130082  13.657   6.325   5.695
76083SOL    HW230083  13.607   6.462   5.655
76084SOL     OW30084   5.507   9.764  13.514
76084SOL    HW130085   5.461   9.680  13.517
76084SOL    HW230086   5.531   9.775  13.422
76085SOL     OW30087  14.806   4.970   1.429
76085SOL    HW130088  14.878   4.970   1.366
76085SOL    HW230089  14.749   4.899   1.401
76086SOL     OW30090   3.573   1.594   1.357
76086SOL    HW130091   3.584   1.515   1.411
76086SOL    HW230092   3.479   1.610   1.356
76087SOL     OW30093  14.540   0.827  12.131
76087SOL    HW130094  14.487   0.896  12.171
76087SOL    HW230095  14.530   0.751  12.188
76088SOL     OW30096  12.562   0.898   6.888
76088SOL    HW130097  12.540   0.814   6.848
76088SOL    HW230098  12.629   0.877   6.953
76089SOL     OW30099  10.307   1.863   6.189
76089SOL    HW130100  10.239   1.838   6.125
76089SOL    HW230101  10.322   1.784   6.240
76090SOL     OW30102   3.513   9.638   8.106
76090SOL    HW130103   3.575   9.648   8.034
76090SOL    HW230104   3.439   9.693   8.083
76091SOL     OW30105  12.587   8.135   2.317
76091SOL    HW130106  12.622   8.167   2.400
76091SOL    HW230107  12.647   8.170   2.250
76092SOL     OW30108   0.653  14.517   1.145
76092SOL    HW130109   0.659  14.528   1.051
76092SOL    HW230110   0.721  14.453   1.166
76093SOL     OW30111   6.590   7.688  13.748
76093SOL    HW130112   6.633   7.732  13.675
76093SOL    HW230113   6.644   7.709  13.824
76094SOL     OW30114  12.239   4.584  12.310
76094SOL    HW130115  12.267   4.659  12.362
76094SOL    HW230116  12.285   4.509  12.349
76095SOL     OW30117   1.893   0.867   2.626
76095SOL    HW130118   1.862   0.839   2.540
76095SOL    HW230119   1.887   0.789   2.680
76096SOL     OW30120   0.953   7.366  11.072
76096SOL    HW130121   0.869   7.345  11.113
76096SOL    HW230122   0.960   7.306  10.998
76097SOL     OW30123   3.989   1.846  11.360
76097SOL    HW130124   3.960   1.791  11.287
76097SOL    HW230125   4.084   1.852  11.348
76098SOL     OW30126   7.911   6.568   6.240
76098SOL    HW130127   7.980   6.596   6.300
76098SOL    HW230128   7.916   6.473   6.240
76099SOL     OW30129   0.776  14.344   5.909
76099SOL    HW130130   0.772  14.416   5.972
76099SOL    HW230131   0.858  14.299   5.928
76100SOL     OW30132   6.823   0.616   1.148
76100SOL    HW130133   6.744   0.561   1.144
76100SOL    HW230134   6.839   0.642   1.057
76101SOL     OW30135   4.916   3.655   0.973
76101SOL    HW130136   4.850   3.594   1.006
76101SOL    HW230137   4.873   3.741   0.975
76102SOL     OW30138  11.008   8.980  14.104
76102SOL    HW130139  10.946   8.956  14.173
76102SOL    HW230140  11.000   9.075  14.098
76103SOL     OW30141   8.207   1.403   0.734
76103SOL    HW130142   8.242   1.491   0.720
76103SOL    HW230143   8.285   1.347   0.738
76104SOL     OW30144   3.875  12.914  12.358
76104SOL    HW130145   3.953  12.885  12.310
76104SOL    HW230146   3.804  12.903  12.296
76105SOL     OW30147  10.760   6.533   6.627
76105SOL    HW130148  10.852   6.522   6.603
76105SOL    HW230149  10.743   6.465   6.692
76106SOL     OW30150   3.667  13.394   0.732
76106SOL    HW130151   3.754  13.371   0.765
76106SOL    HW230152   3.629  13.310   0.706
76107SOL     OW30153  13.660   9.173   8.996
76107SOL    HW130154  13.709   9.198   8.918
76107SOL    HW230155  13.719   9.114   9.043
76108SOL     OW30156  13.201   4.977   9.263
76108SOL    HW130157  13.111   4.994   9.234
76108SOL    HW230158  13.230   4.905   9.207
76109SOL     OW30159   8.149  13.384  12.872
76109SOL    HW130160   8.186  13.312  12.922
76109SOL    HW230161   8.085  13.343  12.814
76110SOL     OW30162  12.719   1.362  11.470
76110SOL    HW130163  12.651   1.398  11.526
76110SOL    HW230164  12.799   1.368  11.521
76111SOL     OW30165   9.529  14.683  10.857
76111SOL    HW130166   9.618  14.683  10.820
76111SOL    HW230167   9.542  14.709  10.949
76112SOL     OW30168   9.773   2.050   4.816
76112SOL    HW130169   9.816   2.051   4.901
76112SOL    HW230170   9.747   2.140   4.801
76113SOL     OW30171   6.627   8.334   9.079
76113SOL    HW130172   6.586   8.368   9.000
76113SOL    HW230173   6.603   8.241   9.081
76114SOL     OW30174   9.040   6.579   5.992
76114SOL    HW130175   9.049   6.600   5.899
76114SOL    HW230176   8.993   6.654   6.029
76115SOL     OW30177   6.354   3.519   1.311
76115SOL    HW130178   6.322   3.436   1.348
76115SOL    HW230179   6.420   3.493   1.247
76116SOL     OW30180   0.623   1.310   9.353
76116SOL    HW130181   0.668   1.309   9.438
76116SOL    HW230182   0.580   1.395   9.349
76117SOL     OW30183  11.006   5.887   5.825
76117SOL    HW130184  11.063   5.843   5.889
76117SOL    HW230185  10.927   5.909   5.875
76118SOL     OW30186  14.473  12.503   3.170
76118SOL    HW130187  14.551  12.485   3.223
76118SOL    HW230188  14.401  12.503   3.233
76119SOL     OW30189  11.191   2.589   9.494
76119SOL    HW130190  11.287   2.584   9.491
76119SOL    HW230191  11.162   2.498   9.481
76120SOL     OW30192   8.952  10.653  10.897
76120SOL    HW130193   9.023  10.666  10.834
76120SOL    HW230194   8.936  10.559  10.896
76121SOL     OW30195   9.864   6.651  11.268
76121SOL    HW130196   9.855   6.574  11.211
76121SOL    HW230197   9.862   6.615  11.357
76122SOL     OW30198   2.104   3.211  13.846
76122SOL    HW130199   2.034   3.177  13.900
76122SOL    HW230200   2.176   3.227  13.907
76123SOL     OW30201   3.672   4.952   3.226
76123SOL    HW130202   3.709   4.928   3.141
76123SOL    HW230203   3.579   4.967   3.208
76124SOL     OW30204   9.708   2.386   6.980
76124SOL    HW130205   9.670   2.302   6.954
76124SOL    HW230206   9.636   2.448   6.973
76125SOL     OW30207   7.764  10.565   9.655
76125SOL    HW130208   7.689  10.535   9.707
76125SOL    HW230209   7.774  10.657   9.680
76126SOL     OW30210   8.391   4.253  13.901
76126SOL    HW130211   8.483   4.260  13.873
76126SOL    HW230212   8.370   4.340  13.935
76127SOL     OW30213   7.013   8.877   2.088
76127SOL    HW130214   7.105   8.861   2.069
76127SOL    HW230215   7.005   8.868   2.183
76128SOL     OW30216  11.091  13.780   8.580
76128SOL    HW130217  11.088  13.863   8.627
76128SOL    HW230218  11.000  13.752   8.575
76129SOL     OW30219   3.870   4.061  10.177
76129SOL    HW130220   3.883   4.014  10.259
76129SOL    HW230221   3.926   4.016  10.114
76130SOL     OW30222   9.340  10.802   1.010
76130SOL    HW130223   9.332  10.719   0.963
76130SOL    HW230224   9.278  10.861   0.967
76131SOL     OW30225   5.673  10.186   1.418
76131SOL    HW130226   5.712  10.164   1.333
76131SOL    HW230227   5.629  10.270   1.403
76132SOL     OW30228  12.095  13.861  13.845
76132SOL    HW130229  12.031  13.792  13.829
76132SOL    HW230230  12.147  13.865  13.764
76133SOL     OW30231  10.490   1.269  13.316
76133SOL    HW130232  10.453   1.355  13.294
76133SOL    HW230233  10.522   1.279  13.405
76134SOL     OW30234   9.193   6.212   4.777
76134SOL    HW130235   9.239   6.296   4.781
76134SOL    HW230236   9.255   6.152   4.737
76135SOL     OW30237   2.687   9.322   6.734
76135SOL    HW130238   2.768   9.363   6.765
76135SOL    HW230239   2.648   9.284   6.812
76136SOL     OW30240   4.716   7.958   5.503
76136SOL    HW130241   4.734   7.878   5.554
76136SOL    HW230242   4.658   8.009   5.559
76137SOL     OW30243   9.959   6.957   7.915
76137SOL    HW130244   9.875   6.920   7.942
76137SOL    HW230245   9.991   6.897   7.848
76138SOL     OW30246   6.822   4.592   4.608
76138SOL    HW130247   6.767   4.561   4.536
76138SOL    HW230248   6.765   4.589   4.685
76139SOL     OW30249   4.681   7.371  11.125
76139SOL    HW130250   4.696   7.376  11.219
76139SOL    HW230251   4.668   7.278  11.107
76140SOL     OW30252   5.331   9.862  10.636
76140SOL    HW130253   5.349   9.773  10.665
76140SOL    HW230254   5.401   9.882  10.575
76141SOL     OW30255   2.773   9.488   4.637
76141SOL    HW130256   2.718   9.421   4.679
76141SOL    HW230257   2.818   9.531   4.710
76142SOL     OW30258   2.194  14.173   9.569
76142SOL    HW130259   2.288  14.165   9.556
76142SOL    HW230260   2.176  14.119   9.646
76143SOL     OW30261  12.399  14.635   3.635
76143SOL    HW130262  12.313  14.623   3.677
76143SOL    HW230263  12.423  14.725   3.656
76144SOL     OW30264   3.996   0.419   4.891
76144SOL    HW130265   3.963   0.444   4.805
76144SOL    HW230266   4.079   0.467   4.900
76145SOL     OW30267  10.681   7.584  14.414
76145SOL    HW130268  10.674   7.612  14.323
76145SOL    HW230269  10.682   7.488  14.410
76146SOL     OW30270   2.590   1.874   2.319
76146SOL    HW130271   2.570   1.854   2.410
76146SOL    HW230272   2.529   1.944   2.296
76147SOL     OW30273  13.130  11.686   1.081
76147SOL    HW130274  13.175  11.754   1.130
76147SOL    HW230275  13.132  11.609   1.138
76148SOL     OW30276  13.828  14.297  14.328
76148SOL    HW130277  13.861  14.217  14.371
76148SOL    HW230278  13.841  14.281  14.235
76149SOL     OW30279  12.052   2.816   4.777
76149SOL    HW130280  12.038   2.897   4.826
76149SOL    HW230281  11.970   2.767   4.786
76150SOL     OW30282   7.415  13.895  11.398
76150SOL    HW130283   7.510  13.892  11.402
76150SOL    HW230284   7.389  13.804  11.381
76151SOL     OW30285   9.829  12.223  11.048
76151SOL    HW130286   9.874  12.301  11.016
76151SOL    HW230287   9.899  12.162  11.070
76152SOL     OW30288  14.299   6.537  10.905
76152SOL    HW130289  14.302   6.515  10.812
76152SOL    HW230290  14.242   6.470  10.943
76153SOL     OW30291  12.592  14.116  14.483
76153SOL    HW130292  12.636  14.059  14.546
76153SOL    HW230293  12.662  14.163  14.439
76154SOL     OW30294   8.125  13.023  14.800
76154SOL    HW130295   8.120  13.017   0.017
76154SOL    HW230296   8.151  12.936  14.772
76155SOL     OW30297   2.939   2.506   7.108
76155SOL    HW130298   2.875   2.476   7.044
76155SOL    HW230299   2.892   2.504   7.191
76156SOL     OW30300   7.743   6.419  13.565
76156SOL    HW130301   7.706   6.457  13.645
76156SOL    HW230302   7.837   6.434  13.573
76157SOL     OW30303  10.101   8.964   5.771
76157SOL    HW130304  10.076   8.914   5.849
76157SOL    HW230305  10.115   8.898   5.703
76158SOL     OW30306   3.872   0.225   2.856
76158SOL    HW130307   3.873   0.197   2.948
76158SOL    HW230308   3.836   0.314   2.859
76159SOL     OW30309   3.856   0.656   8.553
76159SOL    HW130310   3.878   0.652   8.460
76159SOL    HW230311   3.941   0.668   8.597
76160SOL     OW30312   2.899  12.008  12.535
76160SOL    HW130313   2.902  11.913  12.548
76160SOL    HW230314   2.971  12.042  12.588
76161SOL     OW30315   7.951  13.359   0.819
76161SOL    HW130316   7.936  13.268   0.792
76161SOL    HW230317   7.957  13.408   0.738
76162SOL     OW30318   3.144   1.390   0.205
76162SOL    HW130319   3.229   1.376   0.249
76162SOL    HW230320   3.166   1.439   0.126
76163SOL     OW30321   1.512  10.658   6.055
76163SOL    HW130322   1.432  10.607   6.040
76163SOL    HW230323   1.547  10.624   6.137
76164SOL     OW30324   0.051   4.708  13.055
76164SOL    HW130325   0.052   4.630  13.111
76164SOL    HW230326   0.015   4.678  12.972
76165SOL     OW30327   8.325   2.269   4.625
76165SOL    HW130328   8.317   2.348   4.679
76165SOL    HW230329   8.306   2.197   4.685
76166SOL     OW30330   1.999   0.429   2.878
76166SOL    HW130331   2.007   0.514   2.836
76166SOL    HW230332   2.016   0.446   2.971
76167SOL     OW30333   3.286  12.779   9.116
76167SOL    HW130334   3.312  12.778   9.208
76167SOL    HW230335   3.213  12.718   9.110
76168SOL     OW30336   9.156   4.039   9.198
76168SOL    HW130337   9.187   3.960   9.153
76168SOL    HW230338   9.111   4.089   9.129
76169SOL     OW30339   3.875   9.832   0.235
76169SOL    HW130340   3.910   9.744   0.220
76169SOL    HW230341   3.813   9.846   0.164
76170SOL     OW30342  10.810   1.506  13.783
76170SOL    HW130343  10.853   1.493  13.867
76170SOL    HW230344  10.868   1.565  13.735
76171SOL     OW30345  12.709  13.285   8.974
76171SOL    HW130346  12.652  13.360   8.954
76171SOL    HW230347  12.650  13.209   8.971
76172SOL     OW30348  13.724  14.079   0.422
76172SOL    HW130349  13.758  14.168   0.424
76172SOL    HW230350  13.765  14.040   0.344
76173SOL     OW30351   5.058   9.430  14.487
76173SOL    HW130352   5.121   9.490  14.528
76173SOL    HW230353   5.092   9.343  14.507
76174SOL     OW30354   2.855   0.472  14.503
76174SOL    HW130355   2.878   0.530  14.575
76174SOL    HW230356   2.938   0.446  14.464
76175SOL     OW30357  12.114  13.714   5.590
76175SOL    HW130358  12.132  13.701   5.683
76175SOL    HW230359  12.142  13.633   5.548
76176SOL     OW30360   7.032  13.032   5.670
76176SOL    HW130361   6.945  13.006   5.639
76176SOL    HW230362   7.091  13.011   5.597
76177SOL     OW30363   2.487  11.146   8.822
76177SOL    HW130364   2.487  11.200   8.743
76177SOL    HW230365   2.518  11.061   8.793
76178SOL     OW30366  11.164   2.845   2.567
76178SOL    HW130367  11.163   2.753   2.594
76178SOL    HW230368  11.252   2.858   2.531
76179SOL     OW30369   3.595   9.524  12.010
76179SOL    HW130370   3.540   9.564  12.077
76179SOL    HW230371   3.605   9.433  12.038
76180SOL     OW30372   0.659  13.530   9.213
76180SOL    HW130373   0.753  13.551   9.217
76180SOL    HW230374   0.649  13.457   9.274
76181SOL     OW30375  11.960   2.688   1.415
76181SOL    HW130376  12.001   2.775   1.415
76181SOL    HW230377  12.023   2.632   1.371
76182SOL     OW30378   2.623  13.495  10.941
76182SOL    HW130379   2.584  13.566  10.890
76182SOL    HW230380   2.713  13.490  10.909
76183SOL     OW30381  14.568   6.363   7.779
76183SOL    HW130382  14.525   6.396   7.700
76183SOL    HW230383  14.508   6.297   7.812
76184SOL     OW30384   0.810  14.435  14.114
76184SOL    HW130385   0.731  14.423  14.166
76184SOL    HW230386   0.833  14.347  14.083
76185SOL     OW30387  10.086  12.096   1.220
76185SOL    HW130388  10.082  12.141   1.305
76185SOL    HW230389  10.157  12.139   1.173
76186SOL     OW30390   1.830   2.906   2.767
76186SOL    HW130391   1.803   2.854   2.691
76186SOL    HW230392   1.915   2.942   2.742
76187SOL     OW30393   7.981   8.819   9.263
76187SOL    HW130394   7.901   8.873   9.260
76187SOL    HW230395   8.049   8.876   9.227
76188SOL     OW30396   5.351  12.277  14.354
76188SOL    HW130397   5.336  12.367  14.382
76188SOL    HW230398   5.410  12.285  14.279
76189SOL     OW30399   3.325   0.032  13.012
76189SOL    HW130400   3.290  14.827  13.042
76189SOL    HW230401   3.407   0.043  13.061
76190SOL     OW30402   0.007   5.809  14.563
76190SOL    HW130403  14.875   5.796  14.657
76190SOL    HW230404   0.097   5.781  14.545
76191SOL     OW30405  14.427   3.132  10.043
76191SOL    HW130406  14.411   3.226  10.056
76191SOL    HW230407  14.522   3.124  10.042
76192SOL     OW30408   2.945  11.913   7.825
76192SOL    HW130409   2.965  11.863   7.905
76192SOL    HW230410   2.868  11.965   7.849
76193SOL     OW30411   7.532   2.164  14.183
76193SOL    HW130412   7.536   2.213  14.265
76193SOL    HW230413   7.517   2.231  14.116
76194SOL     OW30414   0.003   4.133   4.830
76194SOL    HW130415  14.864   4.171   4.744
76194SOL    HW230416  14.796   4.117   4.867
76195SOL     OW30417   8.425   6.270   3.590
76195SOL    HW130418   8.367   6.195   3.601
76195SOL    HW230419   8.390   6.336   3.649
76196SOL     OW30420   6.865   7.436  10.434
76196SOL    HW130421   6.902   7.524  10.425
76196SOL    HW230422   6.772   7.447  10.417
76197SOL     OW30423  12.776   3.671   3.160
76197SOL    HW130424  12.830   3.674   3.081
76197SOL    HW230425  12.834   3.636   3.227
76198SOL     OW30426  14.393   1.838   9.005
76198SOL    HW130427  14.389   1.927   9.040
76198SOL    HW230428  14.310   1.828   8.957
76199SOL     OW30429   5.359   6.286   3.527
76199SOL    HW130430   5.288   6.302   3.588
76199SOL    HW230431   5.362   6.363   3.471
76200SOL     OW30432   4.804   3.763   3.237
76200SOL    HW130433   4.806   3.859   3.240
76200SOL    HW230434   4.893   3.737   3.216
76201SOL     OW30435  12.644   9.018   0.996
76201SOL    HW130436  12.708   9.030   0.925
76201SOL    HW230437  12.692   9.040   1.076
76202SOL     OW30438  13.969   2.366   8.820
76202SOL    HW130439  13.988   2.452   8.858
76202SOL    HW230440  13.880   2.347   8.847
76203SOL     OW30441   9.532  10.428  11.903
76203SOL    HW130442   9.587  10.433  11.981
76203SOL    HW230443   9.531  10.335  11.880
76204SOL     OW30444   8.411   3.118   2.549
76204SOL    HW130445   8.352   3.066   2.495
76204SOL    HW230446   8.429   3.064   2.625
76205SOL     OW30447   1.057  10.364   6.856
76205SOL    HW130448   1.065  10.392   6.765
76205SOL    HW230449   1.147  10.367   6.890
76206SOL     OW30450   8.745   8.031   0.729
76206SOL    HW130451   8.713   7.988   0.808
76206SOL    HW230452   8.824   7.984   0.706
76207SOL     OW30453   2.901   1.010   6.336
76207SOL    HW130454   2.827   0.950   6.325
76207SOL    HW230455   2.867   1.080   6.392
76208SOL     OW30456  11.819   9.650   8.296
76208SOL    HW130457  11.753   9.626   8.230
76208SOL    HW230458  11.811   9.746   8.303
76209SOL     OW30459   1.017   5.860   9.214
76209SOL    HW130460   0.985   5.775   9.184
76209SOL    HW230461   1.060   5.898   9.137
76210SOL     OW30462   5.740   4.766   5.577
76210SOL    HW130463   5.775   4.758   5.666
76210SOL    HW230464   5.763   4.684   5.534
76211SOL     OW30465   0.917   5.162   5.988
76211SOL    HW130466   0.975   5.107   6.040
76211SOL    HW230467   0.907   5.116   5.906
76212SOL     OW30468   2.183   6.371  12.958
76212SOL    HW130469   2.096   6.397  12.989
76212SOL    HW230470   2.232   6.453  12.953
76213SOL     OW30471   5.844   1.893   9.267
76213SOL    HW130472   5.758   1.857   9.245
76213SOL    HW230473   5.905   1.840   9.216
76214SOL     OW30474   8.277  13.830   1.007
76214SOL    HW130475   8.269  13.923   0.987
76214SOL    HW230476   8.372  13.814   1.008
76215SOL     OW30477  10.087   5.238   2.391
76215SOL    HW130478  10.157   5.226   2.456
76215SOL    HW230479  10.049   5.323   2.412
76216SOL     OW30480  12.997  14.661   1.079
76216SOL    HW130481  12.980  14.566   1.078
76216SOL    HW230482  13.034  14.678   1.166
76217SOL     OW30483   7.835  10.466   6.653
76217SOL    HW130484   7.786  10.412   6.714
76217SOL    HW230485   7.906  10.503   6.706
76218SOL     OW30486   9.094   1.336  11.510
76218SOL    HW130487   9.057   1.339  11.422
76218SOL    HW230488   9.176   1.385  11.503
76219SOL     OW30489  11.785   0.279   4.963
76219SOL    HW130490  11.744   0.248   5.044
76219SOL    HW230491  11.795   0.373   4.975
76220SOL     OW30492   3.464   5.065  14.549
76220SOL    HW130493   3.532   5.089  14.486
76220SOL    HW230494   3.494   5.102  14.632
76221SOL     OW30495   8.884   3.163   9.217
76221SOL    HW130496   8.847   3.247   9.243
76221SOL    HW230497   8.978   3.176   9.221
76222SOL     OW30498   2.490  10.270  14.414
76222SOL    HW130499   2.525  10.236  14.496
76222SOL    HW230500   2.404  10.305  14.436
76223SOL     OW30501  14.434  12.866   3.289
76223SOL    HW130502  14.389  12.951   3.296
76223SOL    HW230503  14.380  12.807   3.342
76224SOL     OW30504  11.121   4.562   4.364
76224SOL    HW130505  11.211   4.540   4.385
76224SOL    HW230506  11.077   4.570   4.449
76225SOL     OW30507   0.412  10.740  12.944
76225SOL    HW130508   0.326  10.730  12.903
76225SOL    HW230509   0.474  10.727  12.872
76226SOL     OW30510   1.670   8.667  12.051
76226SOL    HW130511   1.655   8.755  12.016
76226SOL    HW230512   1.597   8.615  12.017
76227SOL     OW30513  12.026   0.440   6.693
76227SOL    HW130514  12.074   0.515   6.656
76227SOL    HW230515  11.978   0.404   6.619
76228SOL     OW30516   7.014  10.263  10.493
76228SOL    HW130517   7.085  10.266  10.557
76228SOL    HW230518   6.938  10.299  10.539
76229SOL     OW30519   5.311   0.434   3.046
76229SOL    HW130520   5.325   0.492   2.971
76229SOL    HW230521   5.266   0.488   3.110
76230SOL     OW30522   1.808   8.014   2.174
76230SOL    HW130523   1.833   8.106   2.180
76230SOL    HW230524   1.835   7.976   2.258
76231SOL     OW30525   5.396  14.201  14.243
76231SOL    HW130526   5.365  14.220  14.155
76231SOL    HW230527   5.316  14.179  14.292
76232SOL     OW30528   8.301   3.939   8.019
76232SOL    HW130529   8.267   3.910   8.104
76232SOL    HW230530   8.224   3.971   7.973
76233SOL     OW30531  10.437   4.131   1.994
76233SOL    HW130532  10.430   4.220   2.029
76233SOL    HW230533  10.528   4.106   2.009
76234SOL     OW30534   1.706   4.165   0.640
76234SOL    HW130535   1.618   4.187   0.669
76234SOL    HW230536   1.720   4.220   0.562
76235SOL     OW30537   4.377   9.022   4.784
76235SOL    HW130538   4.368   8.927   4.791
76235SOL    HW230539   4.372   9.039   4.690
76236SOL     OW30540  11.681   4.136   5.585
76236SOL    HW130541  11.737   4.208   5.557
76236SOL    HW230542  11.727   4.096   5.659
76237SOL     OW30543   6.904   6.042  14.115
76237SOL    HW130544   6.919   6.128  14.077
76237SOL    HW230545   6.845   6.059  14.189
76238SOL     OW30546  13.853   6.812  13.092
76238SOL    HW130547  13.880   6.821  13.183
76238SOL    HW230548  13.934   6.821  13.042
76239SOL     OW30549  10.216   3.642   4.911
76239SOL    HW130550  10.253   3.729   4.901
76239SOL    HW230551  10.261   3.589   4.845
76240SOL     OW30552   8.573  13.433  13.787
76240SOL    HW130553   8.643  13.421  13.852
76240SOL    HW230554   8.554  13.526  13.789
76241SOL     OW30555   0.336  12.897  13.864
76241SOL    HW130556   0.272  12.918  13.931
76241SOL    HW230557   0.417  12.937  13.895
76242SOL     OW30558   4.547   0.050   2.669
76242SOL    HW130559   4.475   0.075   2.612
76242SOL    HW230560   4.624   0.090   2.631
76243SOL     OW30561  13.762   3.314   5.486
76243SOL    HW130562  13.722   3.253   5.423
76243SOL    HW230563  13.768   3.397   5.438
76244SOL     OW30564  10.332   0.167   2.347
76244SOL    HW130565  10.394   0.123   2.288
76244SOL    HW230566  10.387   0.205   2.415
76245SOL     OW30567   0.232   9.983   5.474
76245SOL    HW130568   0.223   9.921   5.401
76245SOL    HW230569   0.148  10.030   5.476
76246SOL     OW30570   8.103  14.089   6.714
76246SOL    HW130571   8.055  14.063   6.635
76246SOL    HW230572   8.191  14.111   6.682
76247SOL     OW30573   6.339   9.868  13.535
76247SOL    HW130574   6.344   9.773  13.521
76247SOL    HW230575   6.285   9.877  13.613
76248SOL     OW30576   8.874   7.448   2.503
76248SOL    HW130577   8.932   7.429   2.577
76248SOL    HW230578   8.836   7.364   2.480
76249SOL     OW30579   0.362   3.116  13.658
76249SOL    HW130580   0.340   3.140  13.568
76249SOL    HW230581   0.420   3.186  13.688
76250SOL     OW30582  10.067   6.796   0.788
76250SOL    HW130583  10.107   6.843   0.715
76250SOL    HW230584  10.068   6.859   0.860
76251SOL     OW30585  10.823   9.804   7.870
76251SOL    HW130586  10.794   9.875   7.813
76251SOL    HW230587  10.904   9.772   7.830
76252SOL     OW30588   3.858   5.634  13.171
76252SOL    HW130589   3.948   5.652  13.197
76252SOL    HW230590   3.836   5.551  13.214
76253SOL     OW30591   2.375   7.612  11.955
76253SOL    HW130592   2.408   7.645  12.038
76253SOL    HW230593   2.453   7.602  11.900
76254SOL     OW30594   5.723   7.405   6.786
76254SOL    HW130595   5.817   7.423   6.780
76254SOL    HW230596   5.693   7.402   6.695
76255SOL     OW30597   0.912   5.613   9.453
76255SOL    HW130598   0.925   5.701   9.416
76255SOL    HW230599   0.999   5.573   9.450
76256SOL     OW30600   3.931   0.063   8.819
76256SOL    HW130601   4.021   0.098   8.822
76256SOL    HW230602   3.929   0.011   8.739
76257SOL     OW30603   3.716  14.860  14.754
76257SOL    HW130604   3.737  14.772  14.783
76257SOL    HW230605   3.630  14.852  14.713
76258SOL     OW30606   1.824   1.801  10.254
76258SOL    HW130607   1.731   1.788  10.272
76258SOL    HW230608   1.825   1.860  10.179
76259SOL     OW30609  11.465  12.708   2.739
76259SOL    HW130610  11.396  12.721   2.674
76259SOL    HW230611  11.458  12.616   2.765
76260SOL     OW30612  13.469   2.376  11.210
76260SOL    HW130613  13.489   2.453  11.262
76260SOL    HW230614  13.458   2.306  11.273
76261SOL     OW30615   2.338  11.291   3.465
76261SOL    HW130616   2.408  11.244   3.510
76261SOL    HW230617   2.262  11.233   3.472
76262SOL     OW30618   4.125   3.346   4.975
76262SOL    HW130619   4.138   3.302   5.059
76262SOL    HW230620   4.070   3.421   4.996
76263SOL     OW30621   6.426  13.895   1.549
76263SOL    HW130622   6.416  13.986   1.521
76263SOL    HW230623   6.407  13.844   1.470
76264SOL     OW30624   0.534   1.465   7.370
76264SOL    HW130625   0.502   1.380   7.398
76264SOL    HW230626   0.529   1.463   7.274
76265SOL     OW30627   3.923   1.779  10.118
76265SOL    HW130628   3.829   1.789  10.133
76265SOL    HW230629   3.946   1.854  10.063
76266SOL     OW30630  11.839   3.203  10.921
76266SOL    HW130631  11.886   3.125  10.891
76266SOL    HW230632  11.908   3.267  10.939
76267SOL     OW30633   8.438   6.563   5.683
76267SOL    HW130634   8.531   6.581   5.698
76267SOL    HW230635   8.393   6.640   5.718
76268SOL     OW30636   4.875   2.503   0.759
76268SOL    HW130637   4.923   2.498   0.842
76268SOL    HW230638   4.943   2.514   0.692
76269SOL     OW30639  13.187  10.683  11.578
76269SOL    HW130640  13.189  10.601  11.530
76269SOL    HW230641  13.138  10.663  11.658
76270SOL     OW30642   3.521  11.468   8.124
76270SOL    HW130643   3.467  11.428   8.056
76270SOL    HW230644   3.552  11.394   8.176
76271SOL     OW30645   5.877   7.962  13.096
76271SOL    HW130646   5.783   7.976  13.081
76271SOL    HW230647   5.914   7.947  13.009
76272SOL     OW30648   7.401   1.600   1.904
76272SOL    HW130649   7.348   1.660   1.851
76272SOL    HW230650   7.375   1.513   1.874
76273SOL     OW30651   9.008   3.911   1.050
76273SOL    HW130652   8.946   3.920   1.123
76273SOL    HW230653   9.087   3.876   1.090
76274SOL     OW30654  14.112   6.123   6.637
76274SOL    HW130655  14.152   6.178   6.570
76274SOL    HW230656  14.025   6.102   6.602
76275SOL     OW30657  13.749   8.616   8.170
76275SOL    HW130658  13.720   8.699   8.131
76275SOL    HW230659  13.844   8.622   8.171
76276SOL     OW30660   1.761   2.502   9.685
76276SOL    HW130661   1.740   2.595   9.692
76276SOL    HW230662   1.677   2.460   9.664
76277SOL     OW30663   9.525   1.320  13.507
76277SOL    HW130664   9.619   1.316  13.486
76277SOL    HW230665   9.518   1.389  13.572
76278SOL     OW30666   2.702   4.590   7.042
76278SOL    HW130667   2.637   4.550   6.984
76278SOL    HW230668   2.755   4.517   7.073
76279SOL     OW30669   6.488   9.202  10.614
76279SOL    HW130670   6.418   9.137  10.617
76279SOL    HW230671   6.535   9.183  10.533
76280SOL     OW30672   5.872   8.310   9.768
76280SOL    HW130673   5.953   8.356   9.791
76280SOL    HW230674   5.862   8.327   9.674
76281SOL     OW30675  12.179   6.955   5.778
76281SOL    HW130676  12.237   7.010   5.725
76281SOL    HW230677  12.101   6.942   5.724
76282SOL     OW30678   8.805  12.345   7.629
76282SOL    HW130679   8.787  12.260   7.591
76282SOL    HW230680   8.730  12.362   7.687
76283SOL     OW30681   6.666   3.632   0.685
76283SOL    HW130682   6.589   3.589   0.722
76283SOL    HW230683   6.714   3.664   0.762
76284SOL     OW30684   5.207  10.753  12.263
76284SOL    HW130685   5.297  10.775  12.238
76284SOL    HW230686   5.212  10.728  12.355
76285SOL     OW30687  13.990  14.807   6.551
76285SOL    HW130688  13.965  14.852   6.631
76285SOL    HW230689  13.942  14.853   6.481
76286SOL     OW30690  11.740  11.103   8.651
76286SOL    HW130691  11.811  11.123   8.591
76286SOL    HW230692  11.745  11.008   8.664
76287SOL     OW30693   4.370   1.428  13.058
76287SOL    HW130694   4.374   1.483  12.980
76287SOL    HW230695   4.436   1.464  13.117
76288SOL     OW30696   8.026  12.284   8.148
76288SOL    HW130697   7.953  12.296   8.087
76288SOL    HW230698   8.089  12.230   8.100
76289SOL     OW30699  12.794   5.346   2.186
76289SOL    HW130700  12.867   5.405   2.170
76289SOL    HW230701  12.801   5.280   2.117
76290SOL     OW30702  11.561   7.469   3.920
76290SOL    HW130703  11.496   7.532   3.951
76290SOL    HW230704  11.538   7.387   3.964
76291SOL     OW30705   8.996  13.583  12.609
76291SOL    HW130706   9.082  13.623  12.598
76291SOL    HW230707   9.006  13.493  12.578
76292SOL     OW30708   5.460   3.728   8.459
76292SOL    HW130709   5.545   3.772   8.453
76292SOL    HW230710   5.417   3.748   8.375
76293SOL     OW30711   3.618  12.107   3.100
76293SOL    HW130712   3.536  12.068   3.127
76293SOL    HW230713   3.685  12.056   3.145
76294SOL     OW30714  10.243   7.566   6.646
76294SOL    HW130715  10.171   7.612   6.687
76294SOL    HW230716  10.259   7.490   6.703
76295SOL     OW30717   6.927   6.794   5.331
76295SOL    HW130718   6.891   6.737   5.399
76295SOL    HW230719   7.008   6.750   5.304
76296SOL     OW30720   1.437   1.956   1.517
76296SOL    HW130721   1.512   1.913   1.558
76296SOL    HW230722   1.443   1.932   1.424
76297SOL     OW30723   4.211   2.919   6.032
76297SOL    HW130724   4.118   2.912   6.013
76297SOL    HW230725   4.254   2.877   5.957
76298SOL     OW30726   1.969   0.711  10.188
76298SOL    HW130727   1.884   0.755  10.193
76298SOL    HW230728   1.947   0.618  10.183
76299SOL     OW30729   6.847   7.688   4.149
76299SOL    HW130730   6.776   7.697   4.086
76299SOL    HW230731   6.820   7.617   4.207
76300SOL     OW30732   0.207   1.925  13.569
76300SOL    HW130733   0.197   2.020  13.574
76300SOL    HW230734   0.254   1.902  13.649
76301SOL     OW30735   0.787   3.207  13.712
76301SOL    HW130736   0.809   3.209  13.619
76301SOL    HW230737   0.696   3.237  13.716
76302SOL     OW30738  10.008  14.143   7.688
76302SOL    HW130739   9.985  14.073   7.749
76302SOL    HW230740   9.965  14.221   7.724
76303SOL     OW30741   9.451  12.746  10.259
76303SOL    HW130742   9.435  12.721  10.168
76303SOL    HW230743   9.529  12.801  10.255
76304SOL     OW30744   0.886  14.706  10.656
76304SOL    HW130745   0.970  14.668  10.684
76304SOL    HW230746   0.830  14.698  10.733
76305SOL     OW30747   6.641   3.942   7.922
76305SOL    HW130748   6.560   3.962   7.874
76305SOL    HW230749   6.677   4.028   7.943
76306SOL     OW30750   0.203   0.123   1.546
76306SOL    HW130751   0.155   0.083   1.618
76306SOL    HW230752   0.207   0.216   1.569
76307SOL     OW30753   4.242  14.794   6.994
76307SOL    HW130754   4.315  14.856   6.987
76307SOL    HW230755   4.282  14.708   6.978
76308SOL     OW30756  12.249   6.239  12.511
76308SOL    HW130757  12.262   6.146  12.494
76308SOL    HW230758  12.294   6.255  12.594
76309SOL     OW30759  10.749   4.981   7.553
76309SOL    HW130760  10.806   5.008   7.626
76309SOL    HW230761  10.805   4.987   7.476
76310SOL     OW30762  13.650  10.008  10.288
76310SOL    HW130763  13.644   9.942  10.356
76310SOL    HW230764  13.726   9.982  10.236
76311SOL     OW30765   2.441  14.640  11.665
76311SOL    HW130766   2.516  14.584  11.682
76311SOL    HW230767   2.395  14.644  11.749
76312SOL     OW30768   1.681   7.449  14.212
76312SOL    HW130769   1.768   7.489  14.211
76312SOL    HW230770   1.625   7.511  14.166
76313SOL     OW30771   8.589  14.247   4.879
76313SOL    HW130772   8.564  14.155   4.883
76313SOL    HW230773   8.618  14.268   4.968
76314SOL     OW30774  12.677   4.586   9.116
76314SOL    HW130775  12.726   4.644   9.175
76314SOL    HW230776  12.729   4.584   9.036
76315SOL     OW30777   4.762   0.990  12.944
76315SOL    HW130778   4.814   0.909  12.943
76315SOL    HW230779   4.671   0.960  12.953
76316SOL     OW30780  10.908  10.370  12.664
76316SOL    HW130781  10.929  10.440  12.725
76316SOL    HW230782  10.932  10.290  12.710
76317SOL     OW30783   2.921   9.710  11.735
76317SOL    HW130784   2.988   9.687  11.800
76317SOL    HW230785   2.971   9.745  11.661
76318SOL     OW30786   9.811   9.266   2.944
76318SOL    HW130787   9.876   9.214   2.992
76318SOL    HW230788   9.836   9.357   2.962
76319SOL     OW30789  14.099   3.803   3.199
76319SOL    HW130790  14.011   3.775   3.225
76319SOL    HW230791  14.127   3.737   3.135
76320SOL     OW30792   0.521   5.252   0.991
76320SOL    HW130793   0.576   5.287   1.060
76320SOL    HW230794   0.570   5.177   0.956
76321SOL     OW30795   1.200   5.688   1.677
76321SOL    HW130796   1.141   5.646   1.740
76321SOL    HW230797   1.285   5.688   1.719
76322SOL     OW30798   8.704  10.900   0.091
76322SOL    HW130799   8.615  10.883   0.060
76322SOL    HW230800   8.741  10.813   0.106
76323SOL     OW30801  10.683   9.084   1.560
76323SOL    HW130802  10.659   9.085   1.653
76323SOL    HW230803  10.726   9.168   1.546
76324SOL     OW30804   6.216   0.411  12.571
76324SOL    HW130805   6.173   0.435  12.488
76324SOL    HW230806   6.172   0.465  12.637
76325SOL     OW30807   3.472  13.258   9.213
76325SOL    HW130808   3.508  13.169   9.214
76325SOL    HW230809   3.506  13.299   9.292
76326SOL     OW30810   9.646   4.461  10.486
76326SOL    HW130811   9.634   4.377  10.530
76326SOL    HW230812   9.710   4.507  10.539
76327SOL     OW30813  11.111  10.082   7.533
76327SOL    HW130814  11.089  10.156   7.590
76327SOL    HW230815  11.124  10.009   7.593
76328SOL     OW30816  11.938   2.821  12.427
76328SOL    HW130817  11.847   2.852  12.425
76328SOL    HW230818  11.989   2.892  12.388
76329SOL     OW30819   9.127   3.178  14.215
76329SOL    HW130820   9.148   3.269  14.190
76329SOL    HW230821   9.172   3.125  14.150
76330SOL     OW30822   6.107  11.309   7.155
76330SOL    HW130823   6.107  11.402   7.175
76330SOL    HW230824   6.191  11.277   7.190
76331SOL     OW30825  11.783   5.372   8.468
76331SOL    HW130826  11.809   5.461   8.491
76331SOL    HW230827  11.762   5.376   8.375
76332SOL     OW30828   5.578   2.272  14.055
76332SOL    HW130829   5.541   2.310  13.975
76332SOL    HW230830   5.584   2.178  14.035
76333SOL     OW30831  10.194   6.918   0.586
76333SOL    HW130832  10.175   6.970   0.507
76333SOL    HW230833  10.261   6.968   0.632
76334SOL     OW30834  13.355   6.257   1.122
76334SOL    HW130835  13.396   6.249   1.036
76334SOL    HW230836  13.264   6.231   1.109
76335SOL     OW30837  11.334   2.028   4.303
76335SOL    HW130838  11.356   2.080   4.380
76335SOL    HW230839  11.282   2.086   4.248
76336SOL     OW30840  13.025  11.930  11.551
76336SOL    HW130841  13.040  11.838  11.534
76336SOL    HW230842  13.108  11.973  11.529
76337SOL     OW30843   0.367  10.012  14.400
76337SOL    HW130844   0.352  10.100  14.366
76337SOL    HW230845   0.294   9.997  14.461
76338SOL     OW30846  10.984   0.046   8.901
76338SOL    HW130847  11.080   0.051   8.904
76338SOL    HW230848  10.956   0.094   8.979
76339SOL     OW30849  11.254  12.718   2.584
76339SOL    HW130850  11.209  12.695   2.666
76339SOL    HW230851  11.191  12.774   2.538
76340SOL     OW30852   7.408  12.269   4.908
76340SOL    HW130853   7.469  12.326   4.956
76340SOL    HW230854   7.400  12.309   4.822
76341SOL     OW30855  14.294   0.189   9.507
76341SOL    HW130856  14.275   0.226   9.421
76341SOL    HW230857  14.339   0.107   9.488
76342SOL     OW30858   5.867   8.839  11.539
76342SOL    HW130859   5.793   8.890  11.506
76342SOL    HW230860   5.887   8.778  11.468
76343SOL     OW30861   1.825   1.686   6.273
76343SOL    HW130862   1.761   1.743   6.315
76343SOL    HW230863   1.800   1.598   6.300
76344SOL     OW30864  13.149   6.091   6.031
76344SOL    HW130865  13.061   6.107   6.065
76344SOL    HW230866  13.151   6.139   5.948
76345SOL     OW30867   3.083   6.526   0.170
76345SOL    HW130868   2.995   6.496   0.195
76345SOL    HW230869   3.082   6.526   0.074
76346SOL     OW30870   2.791  11.045   8.681
76346SOL    HW130871   2.715  11.104   8.675
76346SOL    HW230872   2.787  11.010   8.770
76347SOL     OW30873   5.061   5.501   9.056
76347SOL    HW130874   5.144   5.489   9.102
76347SOL    HW230875   5.087   5.525   8.967
76348SOL     OW30876   7.511  11.998  14.069
76348SOL    HW130877   7.575  11.989  13.998
76348SOL    HW230878   7.435  12.038  14.027
76349SOL     OW30879   5.286   7.569   1.684
76349SOL    HW130880   5.330   7.496   1.639
76349SOL    HW230881   5.291   7.547   1.777
76350SOL     OW30882   8.866  14.263   1.532
76350SOL    HW130883   8.937  14.200   1.532
76350SOL    HW230884   8.882  14.319   1.607
76351SOL     OW30885   9.567   3.092  12.090
76351SOL    HW130886   9.567   3.134  12.177
76351SOL    HW230887   9.575   3.165  12.029
76352SOL     OW30888   5.955   7.701   6.608
76352SOL    HW130889   5.899   7.757   6.662
76352SOL    HW230890   6.043   7.734   6.622
76353SOL     OW30891   3.992   7.332  14.200
76353SOL    HW130892   4.073   7.381  14.215
76353SOL    HW230893   4.008   7.247  14.241
76354SOL     OW30894  10.613   7.263  14.479
76354SOL    HW130895  10.547   7.222  14.534
76354SOL    HW230896  10.694   7.259  14.530
76355SOL     OW30897   0.016   4.344   9.407
76355SOL    HW130898  14.834   4.328   9.335
76355SOL    HW230899   0.046   4.434   9.393
76356SOL     OW30900  13.686  13.337   6.829
76356SOL    HW130901  13.667  13.316   6.921
76356SOL    HW230902  13.723  13.425   6.832
76357SOL     OW30903   5.629   9.682   0.847
76357SOL    HW130904   5.557   9.721   0.798
76357SOL    HW230905   5.617   9.587   0.836
76358SOL     OW30906   1.361  10.649   4.698
76358SOL    HW130907   1.394  10.615   4.615
76358SOL    HW230908   1.435  10.698   4.734
76359SOL     OW30909   4.818  13.003   7.877
76359SOL    HW130910   4.914  13.001   7.873
76359SOL    HW230911   4.790  13.013   7.786
76360SOL     OW30912   7.942   9.660   6.220
76360SOL    HW130913   7.906   9.591   6.164
76360SOL    HW230914   8.035   9.662   6.199
76361SOL     OW30915  13.327  12.051   5.046
76361SOL    HW130916  13.293  12.137   5.068
76361SOL    HW230917  13.416  12.068   5.014
76362SOL     OW30918  11.426   1.553   6.514
76362SOL    HW130919  11.509   1.542   6.468
76362SOL    HW230920  11.398   1.464   6.536
76363SOL     OW30921  10.128   4.273  14.729
76363SOL    HW130922  10.163   4.361  14.742
76363SOL    HW230923  10.034   4.282  14.744
76364SOL     OW30924  13.658   9.925  11.537
76364SOL    HW130925  13.717   9.895  11.467
76364SOL    HW230926  13.701   9.896  11.618
76365SOL     OW30927   0.644  11.388   6.152
76365SOL    HW130928   0.603  11.468   6.119
76365SOL    HW230929   0.707  11.363   6.085
76366SOL     OW30930   3.038   5.462   9.828
76366SOL    HW130931   3.106   5.405   9.791
76366SOL    HW230932   3.078   5.549   9.829
76367SOL     OW30933   2.826   0.312   4.264
76367SOL    HW130934   2.759   0.361   4.311
76367SOL    HW230935   2.892   0.291   4.331
76368SOL     OW30936  13.691  11.178   4.426
76368SOL    HW130937  13.612  11.214   4.386
76368SOL    HW230938  13.659  11.111   4.487
76369SOL     OW30939   5.033   7.102   4.420
76369SOL    HW130940   5.041   7.112   4.325
76369SOL    HW230941   5.119   7.073   4.449
76370SOL     OW30942   2.819   3.537   3.774
76370SOL    HW130943   2.725   3.536   3.756
76370SOL    HW230944   2.859   3.502   3.694
76371SOL     OW30945   0.727   9.436   2.149
76371SOL    HW130946   0.668   9.402   2.082
76371SOL    HW230947   0.693   9.523   2.169
76372SOL     OW30948   1.909   0.590   2.382
76372SOL    HW130949   1.941   0.652   2.318
76372SOL    HW230950   1.926   0.504   2.344
76373SOL     OW30951  13.760   6.086  12.279
76373SOL    HW130952  13.847   6.080  12.317
76373SOL    HW230953  13.708   6.132  12.345
76374SOL     OW30954   5.595   3.895   2.708
76374SOL    HW130955   5.668   3.887   2.770
76374SOL    HW230956   5.531   3.830   2.739
76375SOL     OW30957  12.834  10.250   0.809
76375SOL    HW130958  12.803  10.193   0.880
76375SOL    HW230959  12.758  10.259   0.751
76376SOL     OW30960  14.211   6.519   9.878
76376SOL    HW130961  14.266   6.597   9.882
76376SOL    HW230962  14.273   6.447   9.864
76377SOL     OW30963   2.819   1.317  11.998
76377SOL    HW130964   2.852   1.230  11.975
76377SOL    HW230965   2.873   1.344  12.072
76378SOL     OW30966   2.544  11.310   5.271
76378SOL    HW130967   2.630  11.312   5.227
76378SOL    HW230968   2.494  11.244   5.222
76379SOL     OW30969  12.138  13.320   1.491
76379SOL    HW130970  12.186  13.287   1.415
76379SOL    HW230971  12.131  13.415   1.474
76380SOL     OW30972   4.499   3.602  12.785
76380SOL    HW130973   4.466   3.516  12.760
76380SOL    HW230974   4.589   3.586  12.815
76381SOL     OW30975   4.972  11.840   6.954
76381SOL    HW130976   5.002  11.853   6.864
76381SOL    HW230977   4.878  11.822   6.946
76382SOL     OW30978  12.011   8.289  12.853
76382SOL    HW130979  11.996   8.194  12.848
76382SOL    HW230980  12.089   8.303  12.800
76383SOL     OW30981  13.652   4.047   1.337
76383SOL    HW130982  13.695   4.051   1.422
76383SOL    HW230983  13.706   3.988   1.285
76384SOL     OW30984   6.592   0.479   1.908
76384SOL    HW130985   6.587   0.572   1.929
76384SOL    HW230986   6.675   0.451   1.945
76385SOL     OW30987   2.056   5.714   2.705
76385SOL    HW130988   2.078   5.695   2.796
76385SOL    HW230989   2.140   5.720   2.660
76386SOL     OW30990   9.001   3.230  13.644
76386SOL    HW130991   9.085   3.274  13.631
76386SOL    HW230992   9.024   3.144  13.679
76387SOL     OW30993   1.862   7.995  11.951
76387SOL    HW130994   1.887   8.031  11.866
76387SOL    HW230995   1.854   7.901  11.935
76388SOL     OW30996  14.532  10.447   8.265
76388SOL    HW130997  14.514  10.412   8.178
76388SOL    HW230998  14.449  10.484   8.294
76389SOL     OW30999   4.708  14.105   3.606
76389SOL    HW131000   4.739  14.158   3.533
76389SOL    HW231001   4.688  14.168   3.675
76390SOL     OW31002  10.981   9.239  14.054
76390SOL    HW131003  11.033   9.314  14.082
76390SOL    HW231004  10.893   9.275  14.042
76391SOL     OW31005   8.420  10.069   3.539
76391SOL    HW131006   8.400   9.978   3.516
76391SOL    HW231007   8.370  10.085   3.619
76392SOL     OW31008   3.581  12.786  14.159
76392SOL    HW131009   3.606  12.717  14.221
76392SOL    HW231010   3.508  12.749  14.111
76393SOL     OW31011   0.145   4.668   1.133
76393SOL    HW131012   0.204   4.682   1.059
76393SOL    HW231013   0.203   4.643   1.205
76394SOL     OW31014   3.715   8.442   1.387
76394SOL    HW131015   3.710   8.530   1.348
76394SOL    HW231016   3.654   8.445   1.461
76395SOL     OW31017   9.567  13.605   9.347
76395SOL    HW131018   9.513  13.541   9.300
76395SOL    HW231019   9.536  13.690   9.316
76396SOL     OW31020   9.405  13.442   4.675
76396SOL    HW131021   9.468  13.464   4.744
76396SOL    HW231022   9.364  13.525   4.652
76397SOL     OW31023  13.482  14.476   4.775
76397SOL    HW131024  13.515  14.550   4.827
76397SOL    HW231025  13.561  14.425   4.755
76398SOL     OW31026   6.918  14.730   5.716
76398SOL    HW131027   6.868  14.800   5.675
76398SOL    HW231028   6.855  14.660   5.731
76399SOL     OW31029  14.142   5.566   7.272
76399SOL    HW131030  14.120   5.534   7.184
76399SOL    HW231031  14.150   5.661   7.261
76400SOL     OW31032   6.511   1.524   1.651
76400SOL    HW131033   6.422   1.532   1.684
76400SOL    HW231034   6.510   1.447   1.594
76401SOL     OW31035   3.502   4.569   0.820
76401SOL    HW131036   3.570   4.610   0.875
76401SOL    HW231037   3.550   4.504   0.768
76402SOL     OW31038   5.686  14.359   0.107
76402SOL    HW131039   5.647  14.275   0.084
76402SOL    HW231040   5.623  14.424   0.074
76403SOL     OW31041   3.421  14.565  11.457
76403SOL    HW131042   3.475  14.616  11.396
76403SOL    HW231043   3.396  14.487  11.409
76404SOL     OW31044   7.168  10.749   1.946
76404SOL    HW131045   7.213  10.716   1.869
76404SOL    HW231046   7.169  10.845   1.936
76405SOL     OW31047   0.083  12.544  10.970
76405SOL    HW131048  14.867  12.527  10.967
76405SOL    HW231049   0.119  12.489  10.900
76406SOL     OW31050  10.580   9.968   0.569
76406SOL    HW131051  10.566   9.927   0.654
76406SOL    HW231052  10.675   9.971   0.559
76407SOL     OW31053  12.309   6.932  14.441
76407SOL    HW131054  12.372   6.989  14.486
76407SOL    HW231055  12.346   6.844  14.451
76408SOL     OW31056   5.118   9.655   1.416
76408SOL    HW131057   5.088   9.589   1.479
76408SOL    HW231058   5.078   9.736   1.447
76409SOL     OW31059   6.024   2.967  13.149
76409SOL    HW131060   5.941   2.920  13.147
76409SOL    HW231061   6.073   2.928  13.221
76410SOL     OW31062  14.190   2.262   2.699
76410SOL    HW131063  14.220   2.334   2.643
76410SOL    HW231064  14.210   2.290   2.788
76411SOL     OW31065  10.112  12.522   9.032
76411SOL    HW131066  10.092  12.578   8.957
76411SOL    HW231067  10.203  12.543   9.053
76412SOL     OW31068  11.317   4.025  14.384
76412SOL    HW131069  11.308   4.046  14.291
76412SOL    HW231070  11.401   3.979  14.389
76413SOL     OW31071  13.581  11.883   1.660
76413SOL    HW131072  13.609  11.799   1.625
76413SOL    HW231073  13.653  11.911   1.717
76414SOL     OW31074   3.341   5.689   7.150
76414SOL    HW131075   3.430   5.667   7.180
76414SOL    HW231076   3.343   5.673   7.056
76415SOL     OW31077  10.211  14.059   8.304
76415SOL    HW131078  10.156  14.136   8.317
76415SOL    HW231079  10.300  14.094   8.296
76416SOL     OW31080   0.773   2.836  14.473
76416SOL    HW131081   0.716   2.822  14.397
76416SOL    HW231082   0.757   2.926  14.499
76417SOL     OW31083  12.341   2.293   4.068
76417SOL    HW131084  12.304   2.229   4.129
76417SOL    HW231085  12.278   2.365   4.067
76418SOL     OW31086   5.442   1.402   8.222
76418SOL    HW131087   5.530   1.406   8.186
76418SOL    HW231088   5.422   1.308   8.226
76419SOL     OW31089   9.655   6.684  14.479
76419SOL    HW131090   9.665   6.661  14.386
76419SOL    HW231091   9.744   6.685  14.513
76420SOL     OW31092   2.616   1.472   4.122
76420SOL    HW131093   2.650   1.509   4.040
76420SOL    HW231094   2.664   1.518   4.191
76421SOL     OW31095   5.469  14.278   2.499
76421SOL    HW131096   5.415  14.317   2.567
76421SOL    HW231097   5.416  14.206   2.465
76422SOL     OW31098   4.135  12.902  11.434
76422SOL    HW131099   4.051  12.940  11.408
76422SOL    HW231100   4.196  12.927  11.364
76423SOL     OW31101   3.070  14.492   6.879
76423SOL    HW131102   3.114  14.575   6.900
76423SOL    HW231103   2.977  14.513   6.882
76424SOL     OW31104   6.710  10.798   5.085
76424SOL    HW131105   6.759  10.795   5.167
76424SOL    HW231106   6.710  10.708   5.054
76425SOL     OW31107   4.822   2.346   3.760
76425SOL    HW131108   4.871   2.337   3.841
76425SOL    HW231109   4.744   2.397   3.784
76426SOL     OW31110   4.389   9.201   3.266
76426SOL    HW131111   4.374   9.212   3.172
76426SOL    HW231112   4.411   9.108   3.276
76427SOL     OW31113   2.084   1.403  13.314
76427SOL    HW131114   2.001   1.396  13.268
76427SOL    HW231115   2.150   1.398  13.245
76428SOL     OW31116  10.481   4.308   8.435
76428SOL    HW131117  10.536   4.365   8.489
76428SOL    HW231118  10.483   4.349   8.348
76429SOL     OW31119  13.951  10.061   6.290
76429SOL    HW131120  13.893   9.985   6.281
76429SOL    HW231121  14.011  10.054   6.215
76430SOL     OW31122   0.877  11.291  12.949
76430SOL    HW131123   0.918  11.318  12.867
76430SOL    HW231124   0.794  11.251  12.923
76431SOL     OW31125   6.899  11.405   5.728
76431SOL    HW131126   6.809  11.404   5.760
76431SOL    HW231127   6.903  11.480   5.669
76432SOL     OW31128  12.581  14.271   5.485
76432SOL    HW131129  12.497  14.270   5.439
76432SOL    HW231130  12.605  14.178   5.493
76433SOL     OW31131  12.936   2.510  11.248
76433SOL    HW131132  12.942   2.533  11.155
76433SOL    HW231133  12.892   2.585  11.288
76434SOL     OW31134   2.676   6.300  14.640
76434SOL    HW131135   2.731   6.363  14.687
76434SOL    HW231136   2.628   6.353  14.576
76435SOL     OW31137  10.369  11.175  10.506
76435SOL    HW131138  10.301  11.237  10.478
76435SOL    HW231139  10.440  11.190  10.444
76436SOL     OW31140  12.996   5.913   0.038
76436SOL    HW131141  12.933   5.982   0.016
76436SOL    HW231142  12.984   5.899   0.132
76437SOL     OW31143   4.003  12.782   1.929
76437SOL    HW131144   4.092  12.815   1.915
76437SOL    HW231145   4.014  12.688   1.942
76438SOL     OW31146  14.830   6.405   7.390
76438SOL    HW131147  14.873   6.322   7.409
76438SOL    HW231148  14.793   6.433   7.473
76439SOL     OW31149  12.243   1.130   5.991
76439SOL    HW131150  12.241   1.117   6.086
76439SOL    HW231151  12.262   1.223   5.980
76440SOL     OW31152  10.739   9.659  11.557
76440SOL    HW131153  10.672   9.693  11.616
76440SOL    HW231154  10.692   9.636  11.477
76441SOL     OW31155   5.922   0.627   3.384
76441SOL    HW131156   5.866   0.595   3.454
76441SOL    HW231157   5.898   0.719   3.373
76442SOL     OW31158   5.213  12.383   2.538
76442SOL    HW131159   5.239  12.380   2.446
76442SOL    HW231160   5.266  12.454   2.575
76443SOL     OW31161  10.869  14.821   4.945
76443SOL    HW131162  10.818  14.865   4.877
76443SOL    HW231163  10.945  14.787   4.898
76444SOL     OW31164  14.651   3.091   4.473
76444SOL    HW131165  14.622   3.006   4.439
76444SOL    HW231166  14.663   3.145   4.395
76445SOL     OW31167   9.765   1.528   4.342
76445SOL    HW131168   9.775   1.622   4.354
76445SOL    HW231169   9.681   1.507   4.382
76446SOL     OW31170   1.079   3.419  12.820
76446SOL    HW131171   1.171   3.422  12.843
76446SOL    HW231172   1.065   3.331  12.787
76447SOL     OW31173   8.206  10.340  11.177
76447SOL    HW131174   8.220  10.320  11.084
76447SOL    HW231175   8.113  10.359  11.184
76448SOL     OW31176  12.299   3.081   4.649
76448SOL    HW131177  12.252   3.153   4.691
76448SOL    HW231178  12.378   3.122   4.613
76449SOL     OW31179   8.448  13.730   3.515
76449SOL    HW131180   8.437  13.683   3.432
76449SOL    HW231181   8.495  13.810   3.492
76450SOL     OW31182  12.630   4.115   6.709
76450SOL    HW131183  12.554   4.155   6.751
76450SOL    HW231184  12.679   4.189   6.672
76451SOL     OW31185  13.075   2.451  11.467
76451SOL    HW131186  13.111   2.384  11.410
76451SOL    HW231187  12.999   2.485  11.419
76452SOL     OW31188  12.209   8.507   8.641
76452SOL    HW131189  12.129   8.536   8.684
76452SOL    HW231190  12.265   8.585   8.637
76453SOL     OW31191  10.713   7.053   2.169
76453SOL    HW131192  10.674   7.076   2.085
76453SOL    HW231193  10.803   7.086   2.164
76454SOL     OW31194   5.130  14.820   9.695
76454SOL    HW131195   5.118  14.751   9.631
76454SOL    HW231196   5.219  14.851   9.681
76455SOL     OW31197  12.912   7.289   4.447
76455SOL    HW131198  12.974   7.244   4.390
76455SOL    HW231199  12.861   7.344   4.388
76456SOL     OW31200  13.589   8.175   4.089
76456SOL    HW131201  13.496   8.199   4.090
76456SOL    HW231202  13.590   8.083   4.061
76457SOL     OW31203   4.417  10.899   2.105
76457SOL    HW131204   4.422  10.949   2.023
76457SOL    HW231205   4.340  10.933   2.150
76458SOL     OW31206  11.194   9.877   6.145
76458SOL    HW131207  11.230   9.862   6.057
76458SOL    HW231208  11.121   9.938   6.130
76459SOL     OW31209   2.379   9.839  14.606
76459SOL    HW131210   2.372   9.865  14.515
76459SOL    HW231211   2.295   9.798  14.627
76460SOL     OW31212   6.406   5.220  10.599
76460SOL    HW131213   6.501   5.229  10.585
76460SOL    HW231214   6.377   5.166  10.525
76461SOL     OW31215  13.788   0.227   8.410
76461SOL    HW131216  13.737   0.152   8.381
76461SOL    HW231217  13.743   0.303   8.373
76462SOL     OW31218   6.024   6.419   3.710
76462SOL    HW131219   6.104   6.368   3.717
76462SOL    HW231220   5.956   6.362   3.746
76463SOL     OW31221  11.533   7.913   8.122
76463SOL    HW131222  11.485   7.842   8.080
76463SOL    HW231223  11.467   7.960   8.172
76464SOL     OW31224   1.973  12.219  13.468
76464SOL    HW131225   1.964  12.152  13.535
76464SOL    HW231226   2.013  12.293  13.514
76465SOL     OW31227  12.972   9.374   1.898
76465SOL    HW131228  12.949   9.462   1.866
76465SOL    HW231229  12.943   9.316   1.828
76466SOL     OW31230  12.925   6.204   6.168
76466SOL    HW131231  12.847   6.214   6.113
76466SOL    HW231232  12.898   6.145   6.238
76467SOL     OW31233   5.742  12.692  14.113
76467SOL    HW131234   5.791  12.651  14.184
76467SOL    HW231235   5.689  12.759  14.157
76468SOL     OW31236   6.629   3.533   5.284
76468SOL    HW131237   6.662   3.522   5.373
76468SOL    HW231238   6.649   3.625   5.263
76469SOL     OW31239   3.819   1.251  10.800
76469SOL    HW131240   3.872   1.320  10.760
76469SOL    HW231241   3.819   1.272  10.893
76470SOL     OW31242  14.607   4.289  12.492
76470SOL    HW131243  14.552   4.335  12.429
76470SOL    HW231244  14.697   4.306  12.463
76471SOL     OW31245  13.764   1.344   4.746
76471SOL    HW131246  13.712   1.263   4.742
76471SOL    HW231247  13.734   1.387   4.826
76472SOL     OW31248   3.538   0.294  14.656
76472SOL    HW131249   3.446   0.314  14.643
76472SOL    HW231250   3.549   0.293  14.751
76473SOL     OW31251  11.902  10.934   3.887
76473SOL    HW131252  11.858  11.019   3.898
76473SOL    HW231253  11.894  10.915   3.794
76474SOL     OW31254  14.758  14.685   3.978
76474SOL    HW131255  14.843  14.699   4.021
76474SOL    HW231256  14.735  14.771   3.943
76475SOL     OW31257   6.984  10.882  11.768
76475SOL    HW131258   7.078  10.868  11.756
76475SOL    HW231259   6.955  10.921  11.686
76476SOL     OW31260   0.425   4.234   4.573
76476SOL    HW131261   0.338   4.270   4.592
76476SOL    HW231262   0.442   4.260   4.482
76477SOL     OW31263   1.789   2.563   1.834
76477SOL    HW131264   1.743   2.647   1.837
76477SOL    HW231265   1.873   2.583   1.792
76478SOL     OW31266   1.545   7.327  10.605
76478SOL    HW131267   1.502   7.396  10.657
76478SOL    HW231268   1.628   7.366  10.578
76479SOL     OW31269  12.918  14.786   7.894
76479SOL    HW131270  12.977  14.861   7.897
76479SOL    HW231271  12.886  14.785   7.803
76480SOL     OW31272  14.819   3.834   0.575
76480SOL    HW131273  14.740   3.864   0.531
76480SOL    HW231274   0.011   3.855   0.514
76481SOL     OW31275  14.537   4.368   6.464
76481SOL    HW131276  14.596   4.318   6.520
76481SOL    HW231277  14.491   4.427   6.524
76482SOL     OW31278   9.701   6.656   8.797
76482SOL    HW131279   9.772   6.605   8.836
76482SOL    HW231280   9.708   6.742   8.839
76483SOL     OW31281   3.137  14.561   4.950
76483SOL    HW131282   3.089  14.534   5.028
76483SOL    HW231283   3.229  14.556   4.976
76484SOL     OW31284   4.675  13.006  13.487
76484SOL    HW131285   4.754  12.988  13.435
76484SOL    HW231286   4.683  12.948  13.563
76485SOL     OW31287  10.382   3.886  14.046
76485SOL    HW131288  10.445   3.820  14.019
76485SOL    HW231289  10.422   3.928  14.122
76486SOL     OW31290   5.914   2.031   9.483
76486SOL    HW131291   5.954   2.091   9.420
76486SOL    HW231292   5.886   1.956   9.431
76487SOL     OW31293   1.490  13.401  11.457
76487SOL    HW131294   1.526  13.475  11.506
76487SOL    HW231295   1.446  13.348  11.523
76488SOL     OW31296  12.112  14.507  12.024
76488SOL    HW131297  12.073  14.486  12.109
76488SOL    HW231298  12.062  14.455  11.961
76489SOL     OW31299  10.879  12.347   8.151
76489SOL    HW131300  10.789  12.379   8.142
76489SOL    HW231301  10.909  12.331   8.062
76490SOL     OW31302  11.020   9.086  10.049
76490SOL    HW131303  10.941   9.047  10.088
76490SOL    HW231304  11.025   9.173  10.088
76491SOL     OW31305   7.241   1.654   7.397
76491SOL    HW131306   7.190   1.622   7.323
76491SOL    HW231307   7.221   1.593   7.468
76492SOL     OW31308  11.991  13.887   6.371
76492SOL    HW131309  12.006  13.965   6.424
76492SOL    HW231310  11.897  13.889   6.353
76493SOL     OW31311   8.453  12.573   7.304
76493SOL    HW131312   8.543  12.545   7.290
76493SOL    HW231313   8.461  12.661   7.340
76494SOL     OW31314   7.372  14.308  11.311
76494SOL    HW131315   7.330  14.292  11.227
76494SOL    HW231316   7.359  14.401  11.327
76495SOL     OW31317  11.202   9.052   4.501
76495SOL    HW131318  11.154   8.986   4.452
76495SOL    HW231319  11.135   9.101   4.548
76496SOL     OW31320   4.944  12.900   1.151
76496SOL    HW131321   4.872  12.865   1.203
76496SOL    HW231322   4.988  12.962   1.209
76497SOL     OW31323   8.572   1.314   6.165
76497SOL    HW131324   8.514   1.386   6.140
76497SOL    HW231325   8.613   1.343   6.247
76498SOL     OW31326   7.398   5.516  12.394
76498SOL    HW131327   7.332   5.448  12.409
76498SOL    HW231328   7.474   5.489  12.445
76499SOL     OW31329  11.065   8.421  13.583
76499SOL    HW131330  11.115   8.502  13.573
76499SOL    HW231331  11.131   8.352  13.575
76500SOL     OW31332   9.964   4.678   1.939
76500SOL    HW131333   9.922   4.740   1.999
76500SOL    HW231334   9.958   4.720   1.853
76501SOL     OW31335  11.936  11.193   5.617
76501SOL    HW131336  11.984  11.134   5.674
76501SOL    HW231337  12.000  11.258   5.590
76502SOL     OW31338   9.779  12.602  10.115
76502SOL    HW131339   9.757  12.694  10.127
76502SOL    HW231340   9.797  12.594  10.021
76503SOL     OW31341   5.685  10.110   2.647
76503SOL    HW131342   5.655  10.107   2.737
76503SOL    HW231343   5.713  10.021   2.627
76504SOL     OW31344   2.398   7.204   2.044
76504SOL    HW131345   2.396   7.299   2.057
76504SOL    HW231346   2.325   7.186   1.986
76505SOL     OW31347   8.415   7.532   2.432
76505SOL    HW131348   8.384   7.622   2.427
76505SOL    HW231349   8.504   7.535   2.396
76506SOL     OW31350   2.086   7.216  12.821
76506SOL    HW131351   2.063   7.303  12.789
76506SOL    HW231352   2.092   7.162  12.742
76507SOL     OW31353   0.984   6.511   9.675
76507SOL    HW131354   0.904   6.516   9.624
76507SOL    HW231355   1.002   6.417   9.683
76508SOL     OW31356   6.245  14.114   4.979
76508SOL    HW131357   6.261  14.043   5.042
76508SOL    HW231358   6.161  14.152   5.006
76509SOL     OW31359   2.072   4.445   6.702
76509SOL    HW131360   2.041   4.437   6.612
76509SOL    HW231361   1.995   4.472   6.752
76510SOL     OW31362   8.783  14.251   3.646
76510SOL    HW131363   8.838  14.292   3.579
76510SOL    HW231364   8.843  14.194   3.694
76511SOL     OW31365   8.094   9.691   9.303
76511SOL    HW131366   8.136   9.616   9.261
76511SOL    HW231367   8.010   9.657   9.334
76512SOL     OW31368   7.602   8.224  11.462
76512SOL    HW131369   7.530   8.280  11.434
76512SOL    HW231370   7.670   8.239  11.397
76513SOL     OW31371   2.509   8.775   4.221
76513SOL    HW131372   2.589   8.804   4.265
76513SOL    HW231373   2.532   8.772   4.129
76514SOL     OW31374   6.811   8.249  11.870
76514SOL    HW131375   6.831   8.160  11.842
76514SOL    HW231376   6.851   8.305  11.803
76515SOL     OW31377   7.285  12.643   7.761
76515SOL    HW131378   7.214  12.593   7.720
76515SOL    HW231379   7.245  12.727   7.783
76516SOL     OW31380   1.255  10.126   1.432
76516SOL    HW131381   1.208  10.054   1.474
76516SOL    HW231382   1.197  10.153   1.361
76517SOL     OW31383  13.791   5.232  12.689
76517SOL    HW131384  13.852   5.257  12.620
76517SOL    HW231385  13.847   5.205  12.762
76518SOL     OW31386   0.056   6.282  10.679
76518SOL    HW131387   0.065   6.376  10.665
76518SOL    HW231388   0.143   6.253  10.705
76519SOL     OW31389   3.938  13.713  10.541
76519SOL    HW131390   3.969  13.732  10.629
76519SOL    HW231391   3.844  13.730  10.544
76520SOL     OW31392   9.385  13.617   9.086
76520SOL    HW131393   9.384  13.712   9.074
76520SOL    HW231394   9.399  13.582   8.998
76521SOL     OW31395   5.212   4.154  12.994
76521SOL    HW131396   5.167   4.209  12.930
76521SOL    HW231397   5.226   4.212  13.069
76522SOL     OW31398   8.456  14.023  10.293
76522SOL    HW131399   8.488  14.013  10.383
76522SOL    HW231400   8.511  14.093  10.256
76523SOL     OW31401   8.121   6.714   8.730
76523SOL    HW131402   8.138   6.805   8.753
76523SOL    HW231403   8.063   6.718   8.654
76524SOL     OW31404  12.440   0.985   0.040
76524SOL    HW131405  12.387   1.061   0.014
76524SOL    HW231406  12.376   0.918   0.063
76525SOL     OW31407   1.784   8.477   3.846
76525SOL    HW131408   1.755   8.565   3.873
76525SOL    HW231409   1.721   8.450   3.779
76526SOL     OW31410  11.560   8.217   2.478
76526SOL    HW131411  11.496   8.276   2.519
76526SOL    HW231412  11.516   8.187   2.398
76527SOL     OW31413   6.223   7.980  11.081
76527SOL    HW131414   6.191   8.038  11.151
76527SOL    HW231415   6.144   7.944  11.041
76528SOL     OW31416   1.850  13.691   2.433
76528SOL    HW131417   1.764  13.715   2.397
76528SOL    HW231418   1.867  13.757   2.500
76529SOL     OW31419   3.572   4.444  14.834
76529SOL    HW131420   3.525   4.417  14.756
76529SOL    HW231421   3.657   4.401  14.827
76530SOL     OW31422   9.364   7.980   8.247
76530SOL    HW131423   9.372   8.022   8.161
76530SOL    HW231424   9.295   7.915   8.235
76531SOL     OW31425  13.075   6.044   6.620
76531SOL    HW131426  13.128   6.082   6.690
76531SOL    HW231427  13.095   5.950   6.623
76532SOL     OW31428  12.608   9.775   8.395
76532SOL    HW131429  12.538   9.772   8.330
76532SOL    HW231430  12.664   9.701   8.373
76533SOL     OW31431   3.524   9.418  12.385
76533SOL    HW131432   3.595   9.480  12.370
76533SOL    HW231433   3.554   9.365  12.459
76534SOL     OW31434   8.882  10.948   7.556
76534SOL    HW131435   8.894  10.885   7.485
76534SOL    HW231436   8.937  11.022   7.533
76535SOL     OW31437  13.158  14.668   8.670
76535SOL    HW131438  13.188  14.579   8.653
76535SOL    HW231439  13.096  14.685   8.599
76536SOL     OW31440  11.134   4.176   5.727
76536SOL    HW131441  11.052   4.130   5.747
76536SOL    HW231442  11.167   4.133   5.648
76537SOL     OW31443   3.254   5.130   9.135
76537SOL    HW131444   3.274   5.222   9.157
76537SOL    HW231445   3.278   5.081   9.213
76538SOL     OW31446   8.825   4.341   2.419
76538SOL    HW131447   8.897   4.315   2.477
76538SOL    HW231448   8.839   4.434   2.403
76539SOL     OW31449  13.648  11.806   5.374
76539SOL    HW131450  13.581  11.782   5.310
76539SOL    HW231451  13.682  11.722   5.405
76540SOL     OW31452   3.324   7.477  11.501
76540SOL    HW131453   3.267   7.417  11.452
76540SOL    HW231454   3.315   7.450  11.592
76541SOL     OW31455   9.722  12.409   4.857
76541SOL    HW131456   9.697  12.322   4.825
76541SOL    HW231457   9.655  12.431   4.922
76542SOL     OW31458   0.266   6.658  11.998
76542SOL    HW131459   0.195   6.702  12.045
76542SOL    HW231460   0.271   6.704  11.914
76543SOL     OW31461   6.770  10.503   1.126
76543SOL    HW131462   6.815  10.559   1.190
76543SOL    HW231463   6.837  10.444   1.094
76544SOL     OW31464   1.574  12.121  10.248
76544SOL    HW131465   1.572  12.141  10.155
76544SOL    HW231466   1.542  12.031  10.255
76545SOL     OW31467   6.317   6.377   6.822
76545SOL    HW131468   6.316   6.471   6.806
76545SOL    HW231469   6.409   6.352   6.810
76546SOL     OW31470  10.821  10.596   5.791
76546SOL    HW131471  10.760  10.536   5.834
76546SOL    HW231472  10.770  10.677   5.781
76547SOL     OW31473   1.105   2.113  12.251
76547SOL    HW131474   1.059   2.037  12.216
76547SOL    HW231475   1.104   2.176  12.179
76548SOL     OW31476   4.699   1.712   1.686
76548SOL    HW131477   4.616   1.753   1.661
76548SOL    HW231478   4.763   1.751   1.626
76549SOL     OW31479  12.817   1.162   9.633
76549SOL    HW131480  12.873   1.153   9.556
76549SOL    HW231481  12.755   1.089   9.627
76550SOL     OW31482   6.122  11.826   6.709
76550SOL    HW131483   6.087  11.793   6.792
76550SOL    HW231484   6.199  11.877   6.734
76551SOL     OW31485   7.508  13.889  13.207
76551SOL    HW131486   7.453  13.811  13.207
76551SOL    HW231487   7.583  13.866  13.152
76552SOL     OW31488  13.586   1.974   2.392
76552SOL    HW131489  13.568   2.022   2.311
76552SOL    HW231490  13.588   1.882   2.365
76553SOL     OW31491   5.341   5.236  13.075
76553SOL    HW131492   5.334   5.152  13.122
76553SOL    HW231493   5.394   5.291  13.132
76554SOL     OW31494  13.116   3.333  13.129
76554SOL    HW131495  13.035   3.384  13.123
76554SOL    HW231496  13.121   3.286  13.047
76555SOL     OW31497   1.116   5.690   4.959
76555SOL    HW131498   1.071   5.755   5.012
76555SOL    HW231499   1.174   5.742   4.902
76556SOL     OW31500   9.590   3.332   5.931
76556SOL    HW131501   9.619   3.341   5.840
76556SOL    HW231502   9.494   3.328   5.925
76557SOL     OW31503   8.577   9.324   2.875
76557SOL    HW131504   8.554   9.336   2.782
76557SOL    HW231505   8.584   9.229   2.885
76558SOL     OW31506   3.287   5.449  10.553
76558SOL    HW131507   3.216   5.473  10.493
76558SOL    HW231508   3.289   5.520  10.618
76559SOL     OW31509  14.474  14.805   0.073
76559SOL    HW131510  14.475  14.807  14.856
76559SOL    HW231511  14.383  14.783   0.096
76560SOL     OW31512   4.565  12.541   6.075
76560SOL    HW131513   4.569  12.625   6.121
76560SOL    HW231514   4.542  12.565   5.985
76561SOL     OW31515  13.230  13.476   6.522
76561SOL    HW131516  13.247  13.382   6.529
76561SOL    HW231517  13.135  13.484   6.527
76562SOL     OW31518   6.081   7.256  10.596
76562SOL    HW131519   6.078   7.259  10.500
76562SOL    HW231520   6.052   7.168  10.618
76563SOL     OW31521  14.452  10.105   2.824
76563SOL    HW131522  14.452  10.014   2.794
76563SOL    HW231523  14.364  10.117   2.860
76564SOL     OW31524   0.183   6.827   7.004
76564SOL    HW131525   0.272   6.856   6.984
76564SOL    HW231526   0.194   6.750   7.059
76565SOL     OW31527   1.047   0.305   0.231
76565SOL    HW131528   1.027   0.260   0.149
76565SOL    HW231529   1.143   0.315   0.230
76566SOL     OW31530  10.280   2.007  14.481
76566SOL    HW131531  10.234   1.922  14.479
76566SOL    HW231532  10.336   2.002  14.558
76567SOL     OW31533   3.891  12.972  12.616
76567SOL    HW131534   3.898  12.971  12.520
76567SOL    HW231535   3.798  12.989  12.633
76568SOL     OW31536   5.830  10.582   7.171
76568SOL    HW131537   5.846  10.500   7.124
76568SOL    HW231538   5.885  10.646   7.127
76569SOL     OW31539  11.450   0.406  10.576
76569SOL    HW131540  11.523   0.362  10.534
76569SOL    HW231541  11.484   0.434  10.661
76570SOL     OW31542   0.721  12.514   9.390
76570SOL    HW131543   0.646  12.573   9.404
76570SOL    HW231544   0.722  12.458   9.468
76571SOL     OW31545   6.873   0.405  11.904
76571SOL    HW131546   6.839   0.327  11.862
76571SOL    HW231547   6.813   0.421  11.977
76572SOL     OW31548   1.927   5.202  13.589
76572SOL    HW131549   1.916   5.249  13.507
76572SOL    HW231550   1.953   5.113  13.562
76573SOL     OW31551   3.489   2.983   8.658
76573SOL    HW131552   3.474   2.965   8.565
76573SOL    HW231553   3.566   2.930   8.680
76574SOL     OW31554  13.417  11.368   4.376
76574SOL    HW131555  13.370  11.284   4.383
76574SOL    HW231556  13.409  11.407   4.463
76575SOL     OW31557   6.168  12.428   9.812
76575SOL    HW131558   6.255  12.396   9.837
76575SOL    HW231559   6.186  12.502   9.754
76576SOL     OW31560   6.981   0.935   0.146
76576SOL    HW131561   7.057   0.877   0.141
76576SOL    HW231562   6.924   0.896   0.213
76577SOL     OW31563  11.770  13.750  10.367
76577SOL    HW131564  11.863  13.739  10.349
76577SOL    HW231565  11.755  13.708  10.451
76578SOL     OW31566   9.161   1.141   8.650
76578SOL    HW131567   9.070   1.155   8.677
76578SOL    HW231568   9.181   1.217   8.596
76579SOL     OW31569  11.009   7.917   6.593
76579SOL    HW131570  10.990   7.850   6.660
76579SOL    HW231571  10.976   7.998   6.631
76580SOL     OW31572   9.590   3.659  11.867
76580SOL    HW131573   9.672   3.634  11.825
76580SOL    HW231574   9.613   3.733  11.923
76581SOL     OW31575   9.149  13.208  11.594
76581SOL    HW131576   9.089  13.262  11.543
76581SOL    HW231577   9.214  13.269  11.627
76582SOL     OW31578   4.397   9.093   4.505
76582SOL    HW131579   4.359   9.181   4.512
76582SOL    HW231580   4.492   9.108   4.507
76583SOL     OW31581   6.963   0.050   0.850
76583SOL    HW131582   7.001   0.054   0.762
76583SOL    HW231583   6.914   0.131   0.859
76584SOL     OW31584   3.162   7.138  12.126
76584SOL    HW131585   3.159   7.083  12.048
76584SOL    HW231586   3.095   7.103  12.184
76585SOL     OW31587  11.116   1.909   1.291
76585SOL    HW131588  11.145   1.822   1.263
76585SOL    HW231589  11.055   1.937   1.223
76586SOL     OW31590  13.852   3.582   7.069
76586SOL    HW131591  13.874   3.491   7.050
76586SOL    HW231592  13.799   3.609   6.994
76587SOL     OW31593   1.430  13.987   6.143
76587SOL    HW131594   1.387  13.903   6.130
76587SOL    HW231595   1.413  14.009   6.235
76588SOL     OW31596   1.729   5.471  11.439
76588SOL    HW131597   1.755   5.499  11.351
76588SOL    HW231598   1.697   5.551  11.481
76589SOL     OW31599   1.428   3.424  12.545
76589SOL    HW131600   1.390   3.497  12.497
76589SOL    HW231601   1.522   3.434  12.534
76590SOL     OW31602  13.537  11.265   9.135
76590SOL    HW131603  13.498  11.285   9.220
76590SOL    HW231604  13.558  11.350   9.097
76591SOL     OW31605  13.247   7.353   1.008
76591SOL    HW131606  13.181   7.284   1.012
76591SOL    HW231607  13.302   7.339   1.085
76592SOL     OW31608   5.616  13.865   6.545
76592SOL    HW131609   5.591  13.773   6.538
76592SOL    HW231610   5.633  13.878   6.638
76593SOL     OW31611   9.312  10.642  12.399
76593SOL    HW131612   9.255  10.702  12.352
76593SOL    HW231613   9.345  10.693  12.473
76594SOL     OW31614   6.745   8.469  10.300
76594SOL    HW131615   6.806   8.407  10.340
76594SOL    HW231616   6.733   8.538  10.365
76595SOL     OW31617  14.657   9.677   5.957
76595SOL    HW131618  14.633   9.634   6.039
76595SOL    HW231619  14.741   9.638   5.934
76596SOL     OW31620   6.624   8.853   1.229
76596SOL    HW131621   6.627   8.820   1.140
76596SOL    HW231622   6.715   8.872   1.252
76597SOL     OW31623   3.012  10.543   3.531
76597SOL    HW131624   2.927  10.540   3.487
76597SOL    HW231625   2.991  10.564   3.622
76598SOL     OW31626   9.493  13.588   6.653
76598SOL    HW131627   9.585  13.598   6.680
76598SOL    HW231628   9.472  13.497   6.670
76599SOL     OW31629  10.699   1.429  13.049
76599SOL    HW131630  10.676   1.336  13.057
76599SOL    HW231631  10.673   1.453  12.961
76600SOL     OW31632  10.513   1.015   1.036
76600SOL    HW131633  10.596   1.064   1.037
76600SOL    HW231634  10.519   0.961   0.957
76601SOL     OW31635   8.779   2.417   2.169
76601SOL    HW131636   8.831   2.447   2.244
76601SOL    HW231637   8.793   2.485   2.102
76602SOL     OW31638   1.574  11.294  14.285
76602SOL    HW131639   1.609  11.381  14.265
76602SOL    HW231640   1.483  11.297  14.254
76603SOL     OW31641   1.355   4.062  12.484
76603SOL    HW131642   1.372   4.135  12.424
76603SOL    HW231643   1.310   4.103  12.559
76604SOL     OW31644   6.451  13.888   3.637
76604SOL    HW131645   6.437  13.972   3.593
76604SOL    HW231646   6.463  13.912   3.729
76605SOL     OW31647   2.842   9.501   2.271
76605SOL    HW131648   2.782   9.536   2.206
76605SOL    HW231649   2.923   9.483   2.223
76606SOL     OW31650  14.140   7.872   4.883
76606SOL    HW131651  14.136   7.813   4.808
76606SOL    HW231652  14.167   7.816   4.956
76607SOL     OW31653   7.314   1.618   4.507
76607SOL    HW131654   7.298   1.609   4.601
76607SOL    HW231655   7.409   1.609   4.498
76608SOL     OW31656  11.153  12.904   0.497
76608SOL    HW131657  11.248  12.919   0.502
76608SOL    HW231658  11.120  12.982   0.453
76609SOL     OW31659  10.677   2.979   7.331
76609SOL    HW131660  10.650   3.026   7.410
76609SOL    HW231661  10.771   2.964   7.344
76610SOL     OW31662   3.692  10.511   7.435
76610SOL    HW131663   3.614  10.562   7.456
76610SOL    HW231664   3.760  10.548   7.492
76611SOL     OW31665   2.749  13.441   6.069
76611SOL    HW131666   2.830  13.395   6.092
76611SOL    HW231667   2.728  13.410   5.981
76612SOL     OW31668   0.926   5.720   5.877
76612SOL    HW131669   0.910   5.693   5.786
76612SOL    HW231670   0.935   5.637   5.925
76613SOL     OW31671   9.362   9.809   4.953
76613SOL    HW131672   9.269   9.794   4.940
76613SOL    HW231673   9.371   9.827   5.046
76614SOL     OW31674  11.548  12.998   6.113
76614SOL    HW131675  11.555  13.083   6.155
76614SOL    HW231676  11.568  12.935   6.183
76615SOL     OW31677   5.810   1.691  12.613
76615SOL    HW131678   5.760   1.630  12.558
76615SOL    HW231679   5.748   1.718  12.681
76616SOL     OW31680  10.021  11.473  10.936
76616SOL    HW131681   9.951  11.409  10.951
76616SOL    HW231682  10.081  11.459  11.010
76617SOL     OW31683  11.995   0.822  10.472
76617SOL    HW131684  11.975   0.771  10.550
76617SOL    HW231685  11.918   0.877  10.459
76618SOL     OW31686   2.386   3.589  13.439
76618SOL    HW131687   2.344   3.503  13.433
76618SOL    HW231688   2.343   3.631  13.514
76619SOL     OW31689  10.217  13.278  12.332
76619SOL    HW131690  10.146  13.245  12.388
76619SOL    HW231691  10.279  13.318  12.392
76620SOL     OW31692   4.369   1.131  10.952
76620SOL    HW131693   4.411   1.135  11.038
76620SOL    HW231694   4.438   1.098  10.893
76621SOL     OW31695   7.152   2.499   8.234
76621SOL    HW131696   7.217   2.555   8.190
76621SOL    HW231697   7.147   2.534   8.323
76622SOL     OW31698  12.108   4.068   4.472
76622SOL    HW131699  12.172   4.011   4.429
76622SOL    HW231700  12.035   4.072   4.411
76623SOL     OW31701  11.515  12.961  13.253
76623SOL    HW131702  11.434  12.943  13.300
76623SOL    HW231703  11.536  13.052  13.274
76624SOL     OW31704  11.206  14.221  10.013
76624SOL    HW131705  11.300  14.203  10.021
76624SOL    HW231706  11.164  14.146  10.054
76625SOL     OW31707   0.864   7.086   0.111
76625SOL    HW131708   0.774   7.053   0.117
76625SOL    HW231709   0.913   7.015   0.069
76626SOL     OW31710  13.170   9.952  11.586
76626SOL    HW131711  13.262   9.929  11.580
76626SOL    HW231712  13.132   9.885  11.643
76627SOL     OW31713  10.421   7.980   7.173
76627SOL    HW131714  10.418   7.963   7.267
76627SOL    HW231715  10.452   7.898   7.135
76628SOL     OW31716   5.638   2.694   8.385
76628SOL    HW131717   5.552   2.668   8.353
76628SOL    HW231718   5.700   2.659   8.321
76629SOL     OW31719   6.017   3.634   6.764
76629SOL    HW131720   5.929   3.667   6.749
76629SOL    HW231721   6.051   3.687   6.836
76630SOL     OW31722  14.618   8.016   1.811
76630SOL    HW131723  14.663   7.934   1.792
76630SOL    HW231724  14.676   8.061   1.873
76631SOL     OW31725   6.231  14.642  14.330
76631SOL    HW131726   6.269  14.644  14.418
76631SOL    HW231727   6.269  14.718  14.286
76632SOL     OW31728   5.283   5.567   1.373
76632SOL    HW131729   5.207   5.542   1.321
76632SOL    HW231730   5.253   5.560   1.464
76633SOL     OW31731   4.587   6.028  13.947
76633SOL    HW131732   4.664   5.995  13.993
76633SOL    HW231733   4.533   6.067  14.016
76634SOL     OW31734   3.675   6.213   3.669
76634SOL    HW131735   3.588   6.237   3.703
76634SOL    HW231736   3.694   6.129   3.710
76635SOL     OW31737   2.546  13.991   0.389
76635SOL    HW131738   2.499  14.072   0.409
76635SOL    HW231739   2.525  13.972   0.298
76636SOL     OW31740   3.221  13.892  12.903
76636SOL    HW131741   3.191  13.935  12.983
76636SOL    HW231742   3.151  13.831  12.880
76637SOL     OW31743   9.889   0.970  13.210
76637SOL    HW131744   9.918   0.890  13.253
76637SOL    HW231745   9.936   1.040  13.255
76638SOL     OW31746   4.246   7.730   7.221
76638SOL    HW131747   4.202   7.656   7.262
76638SOL    HW231748   4.331   7.735   7.266
76639SOL     OW31749   1.557   6.545  12.790
76639SOL    HW131750   1.483   6.485  12.794
76639SOL    HW231751   1.631   6.494  12.821
76640SOL     OW31752   3.825   2.360  12.067
76640SOL    HW131753   3.842   2.277  12.021
76640SOL    HW231754   3.855   2.344  12.156
76641SOL     OW31755  11.282   7.549  12.317
76641SOL    HW131756  11.335   7.507  12.384
76641SOL    HW231757  11.221   7.481  12.288
76642SOL     OW31758   0.763   2.884   3.160
76642SOL    HW131759   0.699   2.814   3.176
76642SOL    HW231760   0.719   2.943   3.099
76643SOL     OW31761   0.316  11.921   8.921
76643SOL    HW131762   0.255  11.969   8.977
76643SOL    HW231763   0.307  11.830   8.948
76644SOL     OW31764   9.650   0.335   4.047
76644SOL    HW131765   9.615   0.413   4.090
76644SOL    HW231766   9.707   0.369   3.978
76645SOL     OW31767  13.033  13.159  14.848
76645SOL    HW131768  13.029  13.130  14.757
76645SOL    HW231769  13.046  13.254  14.843
76646SOL     OW31770  10.240   9.730   9.598
76646SOL    HW131771  10.220   9.723   9.505
76646SOL    HW231772  10.335   9.739   9.602
76647SOL     OW31773   0.970  11.716   0.001
76647SOL    HW131774   0.924  11.774  14.819
76647SOL    HW231775   1.003  11.774   0.069
76648SOL     OW31776  12.349   2.045  10.998
76648SOL    HW131777  12.371   1.971  11.054
76648SOL    HW231778  12.387   2.121  11.043
76649SOL     OW31779   3.580  10.667  10.531
76649SOL    HW131780   3.520  10.658  10.458
76649SOL    HW231781   3.533  10.628  10.605
76650SOL     OW31782   1.723  10.972   1.581
76650SOL    HW131783   1.711  10.944   1.490
76650SOL    HW231784   1.798  11.032   1.578
76651SOL     OW31785   7.592   3.349  10.324
76651SOL    HW131786   7.654   3.334  10.253
76651SOL    HW231787   7.581   3.263  10.365
76652SOL     OW31788  13.077   2.750   7.989
76652SOL    HW131789  12.999   2.745   8.044
76652SOL    HW231790  13.110   2.839   8.002
76653SOL     OW31791   4.778   6.382   5.689
76653SOL    HW131792   4.781   6.286   5.692
76653SOL    HW231793   4.869   6.409   5.690
76654SOL     OW31794   9.822  13.080   3.799
76654SOL    HW131795   9.776  13.074   3.883
76654SOL    HW231796   9.858  13.169   3.798
76655SOL     OW31797  14.226   0.386   6.760
76655SOL    HW131798  14.230   0.427   6.847
76655SOL    HW231799  14.140   0.410   6.726
76656SOL     OW31800   2.494   3.628   8.921
76656SOL    HW131801   2.462   3.579   8.996
76656SOL    HW231802   2.417   3.643   8.867
76657SOL     OW31803   0.986  12.889  13.803
76657SOL    HW131804   1.033  12.805  13.799
76657SOL    HW231805   0.939  12.886  13.886
76658SOL     OW31806  14.794  11.422  13.480
76658SOL    HW131807   0.004  11.457  13.488
76658SOL    HW231808  14.795  11.342  13.532
76659SOL     OW31809   3.745   2.415   9.914
76659SOL    HW131810   3.695   2.455   9.843
76659SOL    HW231811   3.767   2.488   9.972
76660SOL     OW31812   8.167  12.639   1.391
76660SOL    HW131813   8.088  12.584   1.392
76660SOL    HW231814   8.193  12.643   1.483
76661SOL     OW31815   2.418  14.244   5.610
76661SOL    HW131816   2.503  14.207   5.587
76661SOL    HW231817   2.377  14.263   5.525
76662SOL     OW31818  13.867  14.813   4.834
76662SOL    HW131819  13.861  14.725   4.872
76662SOL    HW231820  13.957  14.819   4.801
76663SOL     OW31821  12.864  13.695   2.573
76663SOL    HW131822  12.898  13.688   2.484
76663SOL    HW231823  12.916  13.764   2.613
76664SOL     OW31824  14.544  11.146   5.392
76664SOL    HW131825  14.482  11.137   5.464
76664SOL    HW231826  14.537  11.063   5.344
76665SOL     OW31827  14.680   3.586   9.721
76665SOL    HW131828  14.678   3.681   9.709
76665SOL    HW231829  14.767   3.568   9.756
76666SOL     OW31830  10.940   2.245  12.613
76666SOL    HW131831  10.907   2.309  12.550
76666SOL    HW231832  11.024   2.218  12.576
76667SOL     OW31833   6.051   4.766   9.611
76667SOL    HW131834   5.958   4.787   9.621
76667SOL    HW231835   6.093   4.850   9.592
76668SOL     OW31836   2.111  13.494   1.298
76668SOL    HW131837   2.168  13.417   1.292
76668SOL    HW231838   2.066  13.498   1.214
76669SOL     OW31839   8.686   2.671   8.409
76669SOL    HW131840   8.622   2.613   8.369
76669SOL    HW231841   8.714   2.624   8.488
76670SOL     OW31842   6.755   0.321   8.912
76670SOL    HW131843   6.841   0.280   8.899
76670SOL    HW231844   6.715   0.321   8.825
76671SOL     OW31845   4.704   5.121   9.784
76671SOL    HW131846   4.629   5.113   9.725
76671SOL    HW231847   4.779   5.100   9.730
76672SOL     OW31848   7.824  12.167   3.966
76672SOL    HW131849   7.902  12.180   3.913
76672SOL    HW231850   7.763  12.122   3.907
76673SOL     OW31851   6.267   3.649   4.760
76673SOL    HW131852   6.226   3.713   4.818
76673SOL    HW231853   6.300   3.581   4.818
76674SOL     OW31854  12.342   8.365   5.831
76674SOL    HW131855  12.414   8.361   5.894
76674SOL    HW231856  12.329   8.458   5.814
76675SOL     OW31857   6.882   3.661  11.078
76675SOL    HW131858   6.808   3.630  11.130
76675SOL    HW231859   6.853   3.654  10.987
76676SOL     OW31860  13.079  10.105  14.517
76676SOL    HW131861  13.127  10.118  14.435
76676SOL    HW231862  13.130  10.040  14.564
76677SOL     OW31863  11.363   6.028   5.885
76677SOL    HW131864  11.324   5.958   5.937
76677SOL    HW231865  11.425   6.070   5.945
76678SOL     OW31866   1.024  12.488   5.997
76678SOL    HW131867   1.084  12.529   5.934
76678SOL    HW231868   0.976  12.423   5.946
76679SOL     OW31869   9.719  11.009   0.249
76679SOL    HW131870   9.807  10.977   0.229
76679SOL    HW231871   9.716  11.097   0.212
76680SOL     OW31872  13.210   9.383   8.441
76680SOL    HW131873  13.201   9.434   8.522
76680SOL    HW231874  13.172   9.297   8.464
76681SOL     OW31875   7.915   0.046   5.233
76681SOL    HW131876   7.864  14.852   5.269
76681SOL    HW231877   7.970   0.075   5.305
76682SOL     OW31878  13.867  11.237   3.037
76682SOL    HW131879  13.807  11.309   3.019
76682SOL    HW231880  13.945  11.257   2.985
76683SOL     OW31881  13.461  12.916   7.057
76683SOL    HW131882  13.371  12.892   7.037
76683SOL    HW231883  13.455  12.972   7.135
76684SOL     OW31884  12.872   5.176   3.339
76684SOL    HW131885  12.960   5.178   3.302
76684SOL    HW231886  12.869   5.097   3.392
76685SOL     OW31887   7.224   3.860   6.164
76685SOL    HW131888   7.304   3.822   6.199
76685SOL    HW231889   7.165   3.866   6.240
76686SOL     OW31890  11.353   7.100   5.747
76686SOL    HW131891  11.327   7.048   5.823
76686SOL    HW231892  11.391   7.180   5.785
76687SOL     OW31893   7.368   2.637  14.448
76687SOL    HW131894   7.310   2.633  14.524
76687SOL    HW231895   7.314   2.608  14.375
76688SOL     OW31896  12.191   9.275   3.826
76688SOL    HW131897  12.204   9.357   3.778
76688SOL    HW231898  12.201   9.299   3.918
76689SOL     OW31899  13.279   8.141  12.884
76689SOL    HW131900  13.312   8.052  12.899
76689SOL    HW231901  13.341   8.197  12.932
76690SOL     OW31902   3.809  13.760   3.558
76690SOL    HW131903   3.884  13.708   3.583
76690SOL    HW231904   3.796  13.742   3.465
76691SOL     OW31905   6.909   3.716  14.067
76691SOL    HW131906   7.000   3.730  14.041
76691SOL    HW231907   6.887   3.629  14.034
76692SOL     OW31908   4.897  11.219  12.370
76692SOL    HW131909   4.849  11.160  12.312
76692SOL    HW231910   4.985  11.182  12.375
76693SOL     OW31911  13.597   3.514  12.714
76693SOL    HW131912  13.656   3.501  12.641
76693SOL    HW231913  13.574   3.426  12.743
76694SOL     OW31914   1.305  11.252   7.368
76694SOL    HW131915   1.262  11.311   7.429
76694SOL    HW231916   1.234  11.220   7.312
76695SOL     OW31917   8.772   1.072  14.453
76695SOL    HW131918   8.854   1.062  14.404
76695SOL    HW231919   8.793   1.134  14.523
76696SOL     OW31920   2.718   0.122   9.940
76696SOL    HW131921   2.694   0.175   9.864
76696SOL    HW231922   2.639   0.072   9.960
76697SOL     OW31923   4.701   1.879   9.146
76697SOL    HW131924   4.756   1.884   9.068
76697SOL    HW231925   4.613   1.862   9.112
76698SOL     OW31926   6.613   7.239  14.721
76698SOL    HW131927   6.574   7.152  14.725
76698SOL    HW231928   6.637   7.258  14.812
76699SOL     OW31929  10.508   1.549   4.950
76699SOL    HW131930  10.550   1.625   4.910
76699SOL    HW231931  10.455   1.512   4.879
76700SOL     OW31932   0.562   4.687  11.486
76700SOL    HW131933   0.489   4.714  11.432
76700SOL    HW231934   0.632   4.749  11.466
76701SOL     OW31935   5.400  10.795   0.694
76701SOL    HW131936   5.327  10.738   0.719
76701SOL    HW231937   5.360  10.863   0.640
76702SOL     OW31938   6.638  10.834   8.874
76702SOL    HW131939   6.556  10.842   8.826
76702SOL    HW231940   6.614  10.846   8.966
76703SOL     OW31941   0.037   4.925  13.236
76703SOL    HW131942   0.038   4.871  13.156
76703SOL    HW231943  14.844   4.889  13.288
76704SOL     OW31944   8.627  14.409   5.257
76704SOL    HW131945   8.715  14.376   5.238
76704SOL    HW231946   8.587  14.422   5.171
76705SOL     OW31947   8.101   8.378  14.024
76705SOL    HW131948   8.065   8.306  14.076
76705SOL    HW231949   8.029   8.442  14.021
76706SOL     OW31950   8.666   2.645   5.618
76706SOL    HW131951   8.618   2.562   5.623
76706SOL    HW231952   8.647   2.679   5.531
76707SOL     OW31953  14.303   6.729   9.536
76707SOL    HW131954  14.271   6.758   9.622
76707SOL    HW231955  14.295   6.634   9.538
76708SOL     OW31956  10.344   7.918   6.783
76708SOL    HW131957  10.418   7.960   6.827
76708SOL    HW231958  10.270   7.975   6.802
76709SOL     OW31959   1.446  10.250   3.530
76709SOL    HW131960   1.436  10.321   3.594
76709SOL    HW231961   1.529  10.268   3.486
76710SOL     OW31962   1.465   9.607   7.643
76710SOL    HW131963   1.384   9.578   7.686
76710SOL    HW231964   1.535   9.565   7.693
76711SOL     OW31965  14.108  14.835   7.930
76711SOL    HW131966  14.024  14.819   7.974
76711SOL    HW231967  14.089  14.823   7.837
76712SOL     OW31968   5.750  14.824   4.012
76712SOL    HW131969   5.816  14.760   4.039
76712SOL    HW231970   5.748   0.008   4.085
76713SOL     OW31971   3.417  11.678   3.114
76713SOL    HW131972   3.425  11.622   3.037
76713SOL    HW231973   3.323  11.696   3.122
76714SOL     OW31974   2.276   1.403  11.751
76714SOL    HW131975   2.251   1.461  11.823
76714SOL    HW231976   2.282   1.316  11.791
76715SOL     OW31977   9.088   8.948   8.353
76715SOL    HW131978   9.103   8.863   8.313
76715SOL    HW231979   8.993   8.952   8.366
76716SOL     OW31980  13.260   5.284   9.953
76716SOL    HW131981  13.344   5.250   9.983
76716SOL    HW231982  13.205   5.207   9.944
76717SOL     OW31983   9.651   0.743  14.411
76717SOL    HW131984   9.746   0.741  14.415
76717SOL    HW231985   9.628   0.835  14.427
76718SOL     OW31986   1.345   1.658   5.988
76718SOL    HW131987   1.359   1.752   5.994
76718SOL    HW231988   1.425   1.625   5.945
76719SOL     OW31989   1.359   5.023  13.801
76719SOL    HW131990   1.409   4.967  13.861
76719SOL    HW231991   1.406   5.106  13.801
76720SOL     OW31992   4.867  10.255   7.986
76720SOL    HW131993   4.932  10.196   8.023
76720SOL    HW231994   4.916  10.333   7.961
76721SOL     OW31995   3.853   3.158   2.272
76721SOL    HW131996   3.885   3.246   2.293
76721SOL    HW231997   3.887   3.141   2.184
76722SOL     OW31998   6.727  14.726   4.661
76722SOL    HW131999   6.649  14.760   4.617
76722SOL    HW232000   6.748  14.645   4.615
76723SOL     OW32001   9.575  10.630   1.485
76723SOL    HW132002   9.651  10.579   1.512
76723SOL    HW232003   9.502  10.568   1.490
76724SOL     OW32004   8.550   6.248   1.754
76724SOL    HW132005   8.637   6.264   1.716
76724SOL    HW232006   8.518   6.334   1.779
76725SOL     OW32007   2.835   2.748   6.087
76725SOL    HW132008   2.743   2.742   6.114
76725SOL    HW232009   2.845   2.680   6.020
76726SOL     OW32010   1.535   9.030  11.415
76726SOL    HW132011   1.516   8.965  11.346
76726SOL    HW232012   1.629   9.020  11.431
76727SOL     OW32013  13.171  11.192   2.693
76727SOL    HW132014  13.177  11.278   2.735
76727SOL    HW232015  13.261  11.158   2.695
76728SOL     OW32016   0.640   5.273  10.094
76728SOL    HW132017   0.666   5.263  10.002
76728SOL    HW232018   0.642   5.184  10.129
76729SOL     OW32019   2.139   5.331   9.868
76729SOL    HW132020   2.225   5.362   9.897
76729SOL    HW232021   2.111   5.396   9.804
76730SOL     OW32022   7.061   9.041  11.157
76730SOL    HW132023   7.005   9.106  11.115
76730SOL    HW232024   7.004   8.966  11.172
76731SOL     OW32025   0.816   3.101   9.596
76731SOL    HW132026   0.735   3.096   9.647
76731SOL    HW232027   0.885   3.088   9.660
76732SOL     OW32028   8.609   5.606   2.220
76732SOL    HW132029   8.605   5.586   2.313
76732SOL    HW232030   8.672   5.678   2.214
76733SOL     OW32031  13.326   9.598   2.694
76733SOL    HW132032  13.399   9.547   2.660
76733SOL    HW232033  13.283   9.541   2.757
76734SOL     OW32034   1.119  12.172  11.825
76734SOL    HW132035   1.155  12.259  11.807
76734SOL    HW232036   1.182  12.133  11.887
76735SOL     OW32037   4.752   3.718   4.664
76735SOL    HW132038   4.787   3.647   4.716
76735SOL    HW232039   4.711   3.675   4.589
76736SOL     OW32040  10.534   7.946   5.821
76736SOL    HW132041  10.548   8.038   5.843
76736SOL    HW232042  10.479   7.949   5.743
76737SOL     OW32043  10.380   3.663  10.224
76737SOL    HW132044  10.320   3.589  10.212
76737SOL    HW232045  10.431   3.640  10.302
76738SOL     OW32046   2.561   2.340   5.884
76738SOL    HW132047   2.532   2.257   5.923
76738SOL    HW232048   2.604   2.387   5.956
76739SOL     OW32049   1.374   0.557  12.074
76739SOL    HW132050   1.390   0.468  12.042
76739SOL    HW232051   1.461   0.592  12.090
76740SOL     OW32052   6.444  13.082   2.611
76740SOL    HW132053   6.416  13.148   2.548
76740SOL    HW232054   6.520  13.121   2.654
76741SOL     OW32055  11.480  10.868   2.009
76741SOL    HW132056  11.399  10.841   1.965
76741SOL    HW232057  11.451  10.928   2.078
76742SOL     OW32058  14.741  11.676  13.772
76742SOL    HW132059  14.763  11.660  13.680
76742SOL    HW232060  14.704  11.764  13.772
76743SOL     OW32061  11.681   7.348   2.441
76743SOL    HW132062  11.688   7.284   2.369
76743SOL    HW232063  11.745   7.416   2.419
76744SOL     OW32064   8.989   0.118   4.678
76744SOL    HW132065   9.075   0.107   4.718
76744SOL    HW232066   8.964   0.030   4.649
76745SOL     OW32067   4.494   9.823   7.185
76745SOL    HW132068   4.483   9.850   7.276
76745SOL    HW232069   4.433   9.750   7.173
76746SOL     OW32070  12.188   3.854   0.704
76746SOL    HW132071  12.096   3.840   0.724
76746SOL    HW232072  12.192   3.859   0.608
76747SOL     OW32073   8.926   7.253   2.168
76747SOL    HW132074   8.928   7.183   2.103
76747SOL    HW232075   8.995   7.230   2.231
76748SOL     OW32076  14.414   7.629   8.150
76748SOL    HW132077  14.506   7.620   8.123
76748SOL    HW232078  14.378   7.694   8.090
76749SOL     OW32079   9.919  10.021   4.044
76749SOL    HW132080   9.889  10.076   4.117
76749SOL    HW232081  10.001   9.983   4.075
76750SOL     OW32082   1.300   8.661  12.089
76750SOL    HW132083   1.335   8.572  12.093
76750SOL    HW232084   1.297   8.681  11.996
76751SOL     OW32085   6.579   8.634  12.096
76751SOL    HW132086   6.614   8.708  12.047
76751SOL    HW232087   6.647   8.567  12.091
76752SOL     OW32088   8.144  13.688  11.755
76752SOL    HW132089   8.097  13.621  11.705
76752SOL    HW232090   8.149  13.653  11.844
76753SOL     OW32091   9.166   5.736   0.065
76753SOL    HW132092   9.082   5.773   0.092
76753SOL    HW232093   9.213   5.809   0.025
76754SOL     OW32094   3.974  14.133  12.764
76754SOL    HW132095   3.975  14.163  12.673
76754SOL    HW232096   3.884  14.105  12.780
76755SOL     OW32097   3.716  14.097   7.566
76755SOL    HW132098   3.702  14.089   7.661
76755SOL    HW232099   3.713  14.191   7.550
76756SOL     OW32100   7.849   5.314   0.749
76756SOL    HW132101   7.920   5.313   0.685
76756SOL    HW232102   7.893   5.320   0.834
76757SOL     OW32103   4.894  10.073  11.518
76757SOL    HW132104   4.880  10.024  11.437
76757SOL    HW232105   4.877  10.010  11.588
76758SOL     OW32106   2.708   7.920  14.239
76758SOL    HW132107   2.715   7.897  14.331
76758SOL    HW232108   2.696   7.836  14.194
76759SOL     OW32109   7.632   6.427   8.479
76759SOL    HW132110   7.686   6.352   8.452
76759SOL    HW232111   7.689   6.478   8.537
76760SOL     OW32112   6.171   4.774   1.198
76760SOL    HW132113   6.191   4.705   1.261
76760SOL    HW232114   6.094   4.819   1.235
76761SOL     OW32115   0.696   9.098   1.314
76761SOL    HW132116   0.763   9.165   1.309
76761SOL    HW232117   0.702   9.064   1.403
76762SOL     OW32118  14.245   3.338  14.836
76762SOL    HW132119  14.150   3.341  14.835
76762SOL    HW232120  14.267   3.252  14.801
76763SOL     OW32121   4.816  12.677  10.299
76763SOL    HW132122   4.770  12.754  10.331
76763SOL    HW232123   4.870  12.710  10.227
76764SOL     OW32124   5.607   8.412  12.316
76764SOL    HW132125   5.540   8.425  12.249
76764SOL    HW232126   5.567   8.445  12.397
76765SOL     OW32127  12.605   6.199   7.173
76765SOL    HW132128  12.659   6.121   7.171
76765SOL    HW232129  12.538   6.184   7.107
76766SOL     OW32130   2.479   3.661   6.839
76766SOL    HW132131   2.471   3.578   6.886
76766SOL    HW232132   2.427   3.648   6.759
76767SOL     OW32133   6.049  13.584  14.062
76767SOL    HW132134   6.103  13.661  14.045
76767SOL    HW232135   5.977  13.591  14.000
76768SOL     OW32136   9.293   3.348   3.019
76768SOL    HW132137   9.373   3.379   2.977
76768SOL    HW232138   9.304   3.372   3.111
76769SOL     OW32139   7.119  12.383  14.659
76769SOL    HW132140   7.044  12.401  14.715
76769SOL    HW232141   7.119  12.454  14.595
76770SOL     OW32142   6.286  10.794  12.606
76770SOL    HW132143   6.216  10.765  12.547
76770SOL    HW232144   6.246  10.791  12.693
76771SOL     OW32145  11.471   4.501   3.675
76771SOL    HW132146  11.537   4.570   3.683
76771SOL    HW232147  11.487   4.444   3.750
76772SOL     OW32148   7.665   1.323   5.516
76772SOL    HW132149   7.728   1.393   5.533
76772SOL    HW232150   7.706   1.270   5.447
76773SOL     OW32151   8.935   2.920  13.398
76773SOL    HW132152   9.013   2.871  13.423
76773SOL    HW232153   8.967   3.009  13.384
76774SOL     OW32154   2.338   6.877  11.298
76774SOL    HW132155   2.294   6.843  11.220
76774SOL    HW232156   2.374   6.800  11.341
76775SOL     OW32157   7.937  12.939   0.663
76775SOL    HW132158   7.941  12.895   0.748
76775SOL    HW232159   7.897  13.024   0.682
76776SOL     OW32160   6.922   8.237  13.431
76776SOL    HW132161   6.850   8.191  13.388
76776SOL    HW232162   6.913   8.214  13.524
76777SOL     OW32163   8.648  12.072   6.538
76777SOL    HW132164   8.554  12.059   6.525
76777SOL    HW232165   8.689  12.003   6.487
76778SOL     OW32166  11.929  12.630  10.172
76778SOL    HW132167  11.976  12.561  10.124
76778SOL    HW232168  11.848  12.642  10.123
76779SOL     OW32169  12.470   6.639   2.912
76779SOL    HW132170  12.548   6.692   2.929
76779SOL    HW232171  12.476   6.568   2.976
76780SOL     OW32172  12.958   1.560   5.875
76780SOL    HW132173  12.893   1.597   5.935
76780SOL    HW232174  13.003   1.636   5.838
76781SOL     OW32175   8.457  11.539   4.830
76781SOL    HW132176   8.532  11.482   4.848
76781SOL    HW232177   8.422  11.507   4.747
76782SOL     OW32178   1.326   4.759  12.433
76782SOL    HW132179   1.325   4.685  12.373
76782SOL    HW232180   1.415   4.761  12.468
76783SOL     OW32181   8.691   5.451  12.338
76783SOL    HW132182   8.719   5.534  12.377
76783SOL    HW232183   8.726   5.454  12.249
76784SOL     OW32184  14.561   4.892   2.633
76784SOL    HW132185  14.479   4.848   2.608
76784SOL    HW232186  14.573   4.959   2.566
76785SOL     OW32187   1.460   6.997   3.330
76785SOL    HW132188   1.393   6.966   3.269
76785SOL    HW232189   1.484   7.084   3.298
76786SOL     OW32190   6.515  14.669   2.827
76786SOL    HW132191   6.464  14.640   2.902
76786SOL    HW232192   6.499  14.602   2.760
76787SOL     OW32193   8.531   5.077   0.871
76787SOL    HW132194   8.609   5.026   0.850
76787SOL    HW232195   8.557   5.132   0.945
76788SOL     OW32196  10.864  14.780   1.446
76788SOL    HW132197  10.851  14.729   1.526
76788SOL    HW232198  10.899  14.717   1.383
76789SOL     OW32199   2.891   4.112   4.299
76789SOL    HW132200   2.984   4.103   4.278
76789SOL    HW232201   2.864   4.191   4.250
76790SOL     OW32202   2.076   2.586   9.745
76790SOL    HW132203   2.075   2.651   9.816
76790SOL    HW232204   2.082   2.638   9.665
76791SOL     OW32205  10.049   1.434  13.843
76791SOL    HW132206  10.065   1.425  13.749
76791SOL    HW232207   9.982   1.502  13.849
76792SOL     OW32208   8.437   8.950  13.945
76792SOL    HW132209   8.344   8.929  13.944
76792SOL    HW232210   8.448   9.017  13.877
76793SOL     OW32211   2.484   4.654  14.602
76793SOL    HW132212   2.484   4.562  14.630
76793SOL    HW232213   2.492   4.649  14.506
76794SOL     OW32214   7.707  10.310   2.096
76794SOL    HW132215   7.615  10.315   2.122
76794SOL    HW232216   7.714  10.369   2.021
76795SOL     OW32217  11.784   3.655  14.042
76795SOL    HW132218  11.824   3.735  14.007
76795SOL    HW232219  11.705   3.644  13.990
76796SOL     OW32220   7.455   2.273   8.082
76796SOL    HW132221   7.476   2.211   8.012
76796SOL    HW232222   7.447   2.358   8.038
76797SOL     OW32223  14.027   7.637   1.780
76797SOL    HW132224  14.025   7.585   1.700
76797SOL    HW232225  14.075   7.583   1.842
76798SOL     OW32226   4.252   2.347   2.931
76798SOL    HW132227   4.224   2.281   2.868
76798SOL    HW232228   4.171   2.385   2.964
76799SOL     OW32229   2.203  13.547  10.031
76799SOL    HW132230   2.225  13.549   9.938
76799SOL    HW232231   2.186  13.638  10.054
76800SOL     OW32232   3.815  13.008   8.786
76800SOL    HW132233   3.823  13.011   8.881
76800SOL    HW232234   3.721  12.995   8.770
76801SOL     OW32235   9.104  11.976   6.131
76801SOL    HW132236   9.010  11.960   6.126
76801SOL    HW232237   9.117  12.057   6.082
76802SOL     OW32238   4.346  11.741   5.148
76802SOL    HW132239   4.340  11.831   5.180
76802SOL    HW232240   4.271  11.730   5.090
76803SOL     OW32241   6.807   5.779   5.991
76803SOL    HW132242   6.877   5.717   5.974
76803SOL    HW232243   6.827   5.815   6.077
76804SOL     OW32244   0.987  13.151  14.644
76804SOL    HW132245   1.033  13.227  14.609
76804SOL    HW232246   1.057  13.094  14.677
76805SOL     OW32247   9.543  12.982   6.318
76805SOL    HW132248   9.557  13.062   6.370
76805SOL    HW232249   9.504  12.920   6.379
76806SOL     OW32250  10.015   8.115   9.263
76806SOL    HW132251   9.942   8.166   9.299
76806SOL    HW232252  10.041   8.058   9.334
76807SOL     OW32253  13.719  13.700   9.610
76807SOL    HW132254  13.783  13.765   9.639
76807SOL    HW232255  13.639  13.723   9.657
76808SOL     OW32256   5.204   9.084   1.959
76808SOL    HW132257   5.229   9.111   1.870
76808SOL    HW232258   5.211   8.988   1.958
76809SOL     OW32259   5.973   5.969  11.082
76809SOL    HW132260   5.880   5.957  11.101
76809SOL    HW232261   5.999   6.044  11.135
76810SOL     OW32262   0.616   9.196   2.330
76810SOL    HW132263   0.542   9.250   2.359
76810SOL    HW232264   0.684   9.259   2.308
76811SOL     OW32265   5.779  13.237   5.699
76811SOL    HW132266   5.849  13.199   5.752
76811SOL    HW232267   5.771  13.327   5.730
76812SOL     OW32268   4.838  14.614   6.507
76812SOL    HW132269   4.813  14.706   6.500
76812SOL    HW232270   4.929  14.616   6.535
76813SOL     OW32271   4.272  11.076   8.850
76813SOL    HW132272   4.239  11.101   8.936
76813SOL    HW232273   4.320  11.153   8.819
76814SOL     OW32274   6.240   6.526  13.904
76814SOL    HW132275   6.253   6.613  13.865
76814SOL    HW232276   6.307   6.472  13.864
76815SOL     OW32277   9.319   2.657  10.935
76815SOL    HW132278   9.223   2.667  10.931
76815SOL    HW232279   9.349   2.676  10.846
76816SOL     OW32280   0.838  11.369   6.692
76816SOL    HW132281   0.823  11.275   6.680
76816SOL    HW232282   0.922  11.374   6.738
76817SOL     OW32283   9.891   1.426   6.257
76817SOL    HW132284   9.798   1.440   6.239
76817SOL    HW232285   9.898   1.433   6.352
76818SOL     OW32286  11.427   6.210  12.259
76818SOL    HW132287  11.511   6.178  12.225
76818SOL    HW232288  11.423   6.176  12.349
76819SOL     OW32289   4.046   7.914  14.445
76819SOL    HW132290   4.086   7.837  14.484
76819SOL    HW232291   4.044   7.978  14.516
76820SOL     OW32292  13.993  12.753  12.546
76820SOL    HW132293  13.987  12.790  12.634
76820SOL    HW232294  14.087  12.739  12.533
76821SOL     OW32295   8.019  12.298  10.538
76821SOL    HW132296   8.031  12.211  10.499
76821SOL    HW232297   8.047  12.287  10.629
76822SOL     OW32298   9.362   5.828   9.582
76822SOL    HW132299   9.449   5.862   9.605
76822SOL    HW232300   9.304   5.904   9.586
76823SOL     OW32301  11.728   3.968  14.046
76823SOL    HW132302  11.740   3.953  14.140
76823SOL    HW232303  11.664   4.038  14.040
76824SOL     OW32304   3.084  10.778   0.980
76824SOL    HW132305   3.056  10.693   1.013
76824SOL    HW232306   3.118  10.824   1.057
76825SOL     OW32307   7.114   6.153  10.448
76825SOL    HW132308   7.184   6.208  10.412
76825SOL    HW232309   7.036   6.178  10.400
76826SOL     OW32310   5.647   1.904   5.477
76826SOL    HW132311   5.657   1.989   5.520
76826SOL    HW232312   5.553   1.891   5.469
76827SOL     OW32313  10.621  11.883  12.090
76827SOL    HW132314  10.552  11.894  12.155
76827SOL    HW232315  10.679  11.816  12.128
76828SOL     OW32316   5.022   2.674   8.454
76828SOL    HW132317   5.052   2.637   8.537
76828SOL    HW232318   5.057   2.763   8.452
76829SOL     OW32319   0.714   6.483  11.946
76829SOL    HW132320   0.672   6.474  12.031
76829SOL    HW232321   0.679   6.565  11.911
76830SOL     OW32322   5.216  11.313  13.500
76830SOL    HW132323   5.160  11.363  13.441
76830SOL    HW232324   5.250  11.378  13.562
76831SOL     OW32325   4.131  12.435   3.974
76831SOL    HW132326   4.218  12.403   3.995
76831SOL    HW232327   4.119  12.414   3.881
76832SOL     OW32328  13.933   3.267   8.507
76832SOL    HW132329  13.922   3.356   8.539
76832SOL    HW232330  13.960   3.277   8.416
76833SOL     OW32331   2.630  10.994   9.240
76833SOL    HW132332   2.593  10.995   9.329
76833SOL    HW232333   2.627  11.085   9.213
76834SOL     OW32334   6.494  14.864  11.106
76834SOL    HW132335   6.537   0.062  11.145
76834SOL    HW232336   6.401   0.007  11.106
76835SOL     OW32337   1.878   5.340  14.102
76835SOL    HW132338   1.826   5.393  14.042
76835SOL    HW232339   1.820   5.269  14.129
76836SOL     OW32340   8.901   4.257  14.479
76836SOL    HW132341   8.875   4.286  14.566
76836SOL    HW232342   8.827   4.279  14.423
76837SOL     OW32343   1.055   4.180  10.609
76837SOL    HW132344   1.032   4.220  10.525
76837SOL    HW232345   1.117   4.111  10.587
76838SOL     OW32346   3.836   8.239   5.027
76838SOL    HW132347   3.919   8.262   4.985
76838SOL    HW232348   3.795   8.323   5.048
76839SOL     OW32349  10.253  10.357   4.959
76839SOL    HW132350  10.192  10.357   4.886
76839SOL    HW232351  10.314  10.286   4.940
76840SOL     OW32352  13.983  13.020   4.679
76840SOL    HW132353  13.940  13.035   4.595
76840SOL    HW232354  13.957  13.095   4.732
76841SOL     OW32355   7.043   6.199   0.800
76841SOL    HW132356   6.974   6.266   0.799
76841SOL    HW232357   7.106   6.229   0.734
76842SOL     OW32358   1.818  11.390   3.011
76842SOL    HW132359   1.857  11.478   3.019
76842SOL    HW232360   1.763  11.382   3.089
76843SOL     OW32361   2.875   6.209   2.128
76843SOL    HW132362   2.840   6.291   2.162
76843SOL    HW232363   2.797   6.158   2.106
76844SOL     OW32364   2.982  11.630   1.254
76844SOL    HW132365   3.038  11.576   1.309
76844SOL    HW232366   3.035  11.706   1.232
76845SOL     OW32367  12.913   8.762  10.490
76845SOL    HW132368  12.903   8.783  10.582
76845SOL    HW232369  12.826   8.775  10.453
76846SOL     OW32370  13.581   8.824  11.130
76846SOL    HW132371  13.563   8.884  11.202
76846SOL    HW232372  13.506   8.763  11.130
76847SOL     OW32373  12.459   5.776   0.954
76847SOL    HW132374  12.523   5.847   0.957
76847SOL    HW232375  12.503   5.705   0.907
76848SOL     OW32376   4.627   5.848   4.039
76848SOL    HW132377   4.603   5.770   3.989
76848SOL    HW232378   4.592   5.921   3.988
76849SOL     OW32379   4.497   8.361   5.568
76849SOL    HW132380   4.544   8.412   5.502
76849SOL    HW232381   4.404   8.382   5.553
76850SOL     OW32382   1.557  12.522   9.621
76850SOL    HW132383   1.607  12.466   9.562
76850SOL    HW232384   1.623  12.565   9.675
76851SOL     OW32385  10.988   0.447  11.433
76851SOL    HW132386  10.952   0.363  11.460
76851SOL    HW232387  10.911   0.500  11.412
76852SOL     OW32388   2.585   3.402  14.044
76852SOL    HW132389   2.518   3.339  14.070
76852SOL    HW232390   2.647   3.352  13.991
76853SOL     OW32391   2.533   3.234   0.545
76853SOL    HW132392   2.504   3.320   0.574
76853SOL    HW232393   2.462   3.202   0.489
76854SOL     OW32394   5.630   2.063  11.251
76854SOL    HW132395   5.651   2.067  11.345
76854SOL    HW232396   5.626   1.969  11.232
76855SOL     OW32397   1.953  12.653  10.872
76855SOL    HW132398   1.954  12.679  10.780
76855SOL    HW232399   1.944  12.558  10.871
76856SOL     OW32400   8.513   5.041  11.509
76856SOL    HW132401   8.423   5.008  11.511
76856SOL    HW232402   8.567   4.963  11.516
76857SOL     OW32403   8.255   7.211  12.205
76857SOL    HW132404   8.336   7.173  12.169
76857SOL    HW232405   8.185   7.162  12.162
76858SOL     OW32406   4.035   6.567   5.544
76858SOL    HW132407   4.106   6.528   5.595
76858SOL    HW232408   3.964   6.502   5.548
76859SOL     OW32409  10.262  14.793   9.922
76859SOL    HW132410  10.288  14.734   9.993
76859SOL    HW232411  10.329  14.782   9.855
76860SOL     OW32412   6.697   1.931   8.426
76860SOL    HW132413   6.709   1.958   8.335
76860SOL    HW232414   6.675   2.012   8.473
76861SOL     OW32415   6.919   4.226   7.486
76861SOL    HW132416   6.826   4.210   7.501
76861SOL    HW232417   6.962   4.197   7.567
76862SOL     OW32418   4.495   6.054   2.508
76862SOL    HW132419   4.561   6.124   2.513
76862SOL    HW232420   4.466   6.041   2.598
76863SOL     OW32421   6.909  11.508   4.197
76863SOL    HW132422   6.962  11.533   4.272
76863SOL    HW232423   6.957  11.542   4.121
76864SOL     OW32424   5.918   3.536   0.093
76864SOL    HW132425   5.895   3.600   0.026
76864SOL    HW232426   5.834   3.504   0.125
76865SOL     OW32427   3.028   1.029   8.993
76865SOL    HW132428   3.007   1.049   8.902
76865SOL    HW232429   3.062   1.112   9.028
76866SOL     OW32430  14.455  12.670   1.191
76866SOL    HW132431  14.417  12.615   1.122
76866SOL    HW232432  14.546  12.642   1.197
76867SOL     OW32433   6.020   4.483  11.172
76867SOL    HW132434   6.055   4.560  11.128
76867SOL    HW232435   5.977   4.517  11.251
76868SOL     OW32436   3.408  12.419   0.520
76868SOL    HW132437   3.495  12.457   0.516
76868SOL    HW232438   3.419  12.330   0.486
76869SOL     OW32439   9.480   5.708   1.878
76869SOL    HW132440   9.426   5.761   1.936
76869SOL    HW232441   9.447   5.727   1.790
76870SOL     OW32442   9.346   3.691  12.800
76870SOL    HW132443   9.316   3.705  12.890
76870SOL    HW232444   9.434   3.730  12.797
76871SOL     OW32445  10.483   1.658   8.451
76871SOL    HW132446  10.529   1.664   8.535
76871SOL    HW232447  10.428   1.580   8.458
76872SOL     OW32448  12.277  10.009   0.643
76872SOL    HW132449  12.239  10.074   0.703
76872SOL    HW232450  12.204   9.983   0.586
76873SOL     OW32451   8.617   1.575   3.566
76873SOL    HW132452   8.625   1.596   3.659
76873SOL    HW232453   8.670   1.640   3.522
76874SOL     OW32454  11.599  11.915  12.625
76874SOL    HW132455  11.572  11.849  12.689
76874SOL    HW232456  11.694  11.910  12.624
76875SOL     OW32457   5.109  10.970  14.293
76875SOL    HW132458   5.094  11.046  14.237
76875SOL    HW232459   5.037  10.911  14.274
76876SOL     OW32460   4.271   4.879   7.628
76876SOL    HW132461   4.239   4.965   7.601
76876SOL    HW232462   4.234   4.865   7.715
76877SOL     OW32463   1.977   1.801   8.423
76877SOL    HW132464   1.948   1.732   8.482
76877SOL    HW232465   2.034   1.857   8.477
76878SOL     OW32466  13.017   7.890   1.926
76878SOL    HW132467  13.077   7.880   1.852
76878SOL    HW232468  13.005   7.801   1.959
76879SOL     OW32469   2.997  10.125   6.432
76879SOL    HW132470   2.930  10.172   6.383
76879SOL    HW232471   2.947  10.064   6.487
76880SOL     OW32472   5.461   9.320  12.258
76880SOL    HW132473   5.483   9.232  12.288
76880SOL    HW232474   5.538   9.349  12.210
76881SOL     OW32475  14.383  14.262   2.045
76881SOL    HW132476  14.419  14.173   2.043
76881SOL    HW232477  14.345  14.271   2.132
76882SOL     OW32478   2.069   5.425   8.764
76882SOL    HW132479   2.040   5.374   8.840
76882SOL    HW232480   2.089   5.512   8.799
76883SOL     OW32481  12.840   1.673  13.078
76883SOL    HW132482  12.827   1.662  13.172
76883SOL    HW232483  12.752   1.688  13.043
76884SOL     OW32484   1.942  10.765   3.661
76884SOL    HW132485   1.917  10.673   3.657
76884SOL    HW232486   1.864  10.810   3.695
76885SOL     OW32487   0.702   2.698  11.993
76885SOL    HW132488   0.718   2.618  11.943
76885SOL    HW232489   0.635   2.673  12.057
76886SOL     OW32490   4.303   5.478   3.046
76886SOL    HW132491   4.321   5.389   3.015
76886SOL    HW232492   4.374   5.497   3.106
76887SOL     OW32493  13.047  14.191   4.663
76887SOL    HW132494  13.123  14.249   4.661
76887SOL    HW232495  12.976  14.244   4.699
76888SOL     OW32496  14.285  12.169  10.272
76888SOL    HW132497  14.336  12.162  10.353
76888SOL    HW232498  14.202  12.125  10.292
76889SOL     OW32499   5.686  13.183   7.026
76889SOL    HW132500   5.753  13.251   7.034
76889SOL    HW232501   5.603  13.228   7.042
76890SOL     OW32502   2.833   6.027  10.070
76890SOL    HW132503   2.886   6.102  10.095
76890SOL    HW232504   2.857   6.009   9.979
76891SOL     OW32505   0.819  14.174   8.673
76891SOL    HW132506   0.793  14.132   8.755
76891SOL    HW232507   0.764  14.252   8.667
76892SOL     OW32508  11.888   7.223  14.569
76892SOL    HW132509  11.971   7.179  14.585
76892SOL    HW232510  11.897   7.262  14.482
76893SOL     OW32511   1.153  11.646  10.315
76893SOL    HW132512   1.219  11.582  10.289
76893SOL    HW232513   1.090  11.595  10.366
76894SOL     OW32514   1.570   2.035   1.207
76894SOL    HW132515   1.536   2.059   1.121
76894SOL    HW232516   1.659   2.070   1.208
76895SOL     OW32517   0.668  13.136   4.948
76895SOL    HW132518   0.687  13.082   5.025
76895SOL    HW232519   0.685  13.225   4.978
76896SOL     OW32520  14.341   7.341   6.203
76896SOL    HW132521  14.383   7.348   6.289
76896SOL    HW232522  14.270   7.278   6.216
76897SOL     OW32523   1.186   1.370   8.959
76897SOL    HW132524   1.171   1.459   8.990
76897SOL    HW232525   1.126   1.359   8.885
76898SOL     OW32526   5.931  13.638  10.051
76898SOL    HW132527   5.914  13.718  10.101
76898SOL    HW232528   5.890  13.568  10.102
76899SOL     OW32529  13.000   5.829  13.538
76899SOL    HW132530  13.016   5.735  13.543
76899SOL    HW232531  13.087   5.868  13.540
76900SOL     OW32532  14.554   1.807   4.736
76900SOL    HW132533  14.567   1.723   4.693
76900SOL    HW232534  14.471   1.797   4.782
76901SOL     OW32535  12.789  14.847   9.482
76901SOL    HW132536  12.694  14.861   9.474
76901SOL    HW232537  12.812  14.794   9.405
76902SOL     OW32538  13.964   7.339   8.329
76902SOL    HW132539  14.031   7.386   8.278
76902SOL    HW232540  13.947   7.397   8.403
76903SOL     OW32541   7.744   3.226   3.968
76903SOL    HW132542   7.819   3.267   4.010
76903SOL    HW232543   7.778   3.191   3.886
76904SOL     OW32544   0.531  11.057   4.170
76904SOL    HW132545   0.521  10.971   4.210
76904SOL    HW232546   0.441  11.089   4.160
76905SOL     OW32547   9.054   8.616   1.236
76905SOL    HW132548   9.055   8.682   1.167
76905SOL    HW232549   9.031   8.535   1.191
76906SOL     OW32550   9.150   8.335   0.124
76906SOL    HW132551   9.242   8.357   0.133
76906SOL    HW232552   9.110   8.362   0.207
76907SOL     OW32553  13.517  12.388   0.877
76907SOL    HW132554  13.513  12.465   0.935
76907SOL    HW232555  13.427  12.356   0.875
76908SOL     OW32556   1.578   2.285   5.328
76908SOL    HW132557   1.580   2.211   5.268
76908SOL    HW232558   1.667   2.320   5.325
76909SOL     OW32559  11.045   8.287  10.122
76909SOL    HW132560  10.983   8.319  10.057
76909SOL    HW232561  11.131   8.306  10.085
76910SOL     OW32562   1.026   8.541  10.238
76910SOL    HW132563   1.017   8.465  10.180
76910SOL    HW232564   1.119   8.562  10.235
76911SOL     OW32565   5.284  13.297   2.188
76911SOL    HW132566   5.214  13.284   2.251
76911SOL    HW232567   5.364  13.296   2.240
76912SOL     OW32568   9.668   3.135   1.865
76912SOL    HW132569   9.635   3.095   1.946
76912SOL    HW232570   9.736   3.196   1.894
76913SOL     OW32571   0.120   4.702   5.116
76913SOL    HW132572   0.048   4.653   5.077
76913SOL    HW232573   0.198   4.650   5.097
76914SOL     OW32574   5.050   0.303   3.548
76914SOL    HW132575   5.038   0.232   3.611
76914SOL    HW232576   5.093   0.263   3.473
76915SOL     OW32577   3.996  13.489  10.344
76915SOL    HW132578   4.060  13.518  10.279
76915SOL    HW232579   4.001  13.556  10.413
76916SOL     OW32580   4.109  11.437  12.380
76916SOL    HW132581   4.184  11.459  12.435
76916SOL    HW232582   4.056  11.377  12.433
76917SOL     OW32583   0.210  14.176   7.497
76917SOL    HW132584   0.269  14.105   7.521
76917SOL    HW232585   0.147  14.136   7.438
76918SOL     OW32586  11.656   0.081  11.977
76918SOL    HW132587  11.751   0.087  11.966
76918SOL    HW232588  11.624   0.059  11.889
76919SOL     OW32589   1.812  13.936   6.324
76919SOL    HW132590   1.821  13.958   6.416
76919SOL    HW232591   1.893  13.890   6.301
76920SOL     OW32592   6.518  13.770   8.893
76920SOL    HW132593   6.483  13.780   8.805
76920SOL    HW232594   6.525  13.860   8.926
76921SOL     OW32595  10.820   7.504   0.860
76921SOL    HW132596  10.908   7.506   0.897
76921SOL    HW232597  10.798   7.596   0.845
76922SOL     OW32598   7.763  11.704  11.480
76922SOL    HW132599   7.844  11.754  11.479
76922SOL    HW232600   7.702  11.755  11.426
76923SOL     OW32601   2.841  10.637   5.659
76923SOL    HW132602   2.855  10.643   5.565
76923SOL    HW232603   2.817  10.546   5.675
76924SOL     OW32604   7.551   6.058  11.378
76924SOL    HW132605   7.495   6.084  11.305
76924SOL    HW232606   7.622   6.122  11.377
76925SOL     OW32607  12.379   6.791  10.585
76925SOL    HW132608  12.375   6.878  10.624
76925SOL    HW232609  12.384   6.808  10.490
76926SOL     OW32610   2.098   5.886   6.836
76926SOL    HW132611   2.128   5.945   6.905
76926SOL    HW232612   2.099   5.939   6.756
76927SOL     OW32613   1.496  10.250   4.699
76927SOL    HW132614   1.404  10.234   4.724
76927SOL    HW232615   1.538  10.277   4.781
76928SOL     OW32616   6.034  12.314   7.875
76928SOL    HW132617   6.100  12.381   7.891
76928SOL    HW232618   6.082  12.242   7.835
76929SOL     OW32619   7.902  14.688   7.268
76929SOL    HW132620   7.974  14.704   7.207
76929SOL    HW232621   7.834  14.750   7.242
76930SOL     OW32622   4.857  13.513   3.463
76930SOL    HW132623   4.842  13.420   3.480
76930SOL    HW232624   4.942  13.531   3.503
76931SOL     OW32625   0.820   4.305   1.031
76931SOL    HW132626   0.739   4.305   1.082
76931SOL    HW232627   0.807   4.372   0.964
76932SOL     OW32628   2.193   0.730   8.521
76932SOL    HW132629   2.155   0.810   8.485
76932SOL    HW232630   2.162   0.660   8.463
76933SOL     OW32631   1.021   3.803  10.570
76933SOL    HW132632   1.027   3.774  10.661
76933SOL    HW232633   0.929   3.828  10.560
76934SOL     OW32634   6.710   1.794  12.133
76934SOL    HW132635   6.775   1.819  12.198
76934SOL    HW232636   6.630   1.840  12.159
76935SOL     OW32637  11.191  14.144   9.241
76935SOL    HW132638  11.124  14.212   9.239
76935SOL    HW232639  11.195  14.117   9.333
76936SOL     OW32640   1.892  11.141   7.564
76936SOL    HW132641   1.977  11.182   7.546
76936SOL    HW232642   1.889  11.133   7.659
76937SOL     OW32643  13.971  13.120  14.570
76937SOL    HW132644  14.035  13.051  14.555
76937SOL    HW232645  14.005  13.169  14.646
76938SOL     OW32646  13.730   1.705   9.736
76938SOL    HW132647  13.822   1.687   9.756
76938SOL    HW232648  13.706   1.776   9.796
76939SOL     OW32649   8.363   2.418   3.290
76939SOL    HW132650   8.302   2.437   3.362
76939SOL    HW232651   8.350   2.325   3.272
76940SOL     OW32652   4.218   4.091  13.640
76940SOL    HW132653   4.176   4.050  13.716
76940SOL    HW232654   4.145   4.128  13.590
76941SOL     OW32655   3.111   4.099  13.888
76941SOL    HW132656   3.042   4.145  13.936
76941SOL    HW232657   3.193   4.130  13.928
76942SOL     OW32658  11.796   5.784   5.224
76942SOL    HW132659  11.835   5.722   5.287
76942SOL    HW232660  11.769   5.858   5.278
76943SOL     OW32661   6.883   7.601   4.556
76943SOL    HW132662   6.895   7.523   4.503
76943SOL    HW232663   6.791   7.597   4.584
76944SOL     OW32664   7.511   6.768   7.160
76944SOL    HW132665   7.457   6.846   7.167
76944SOL    HW232666   7.554   6.760   7.245
76945SOL     OW32667   1.141  13.793  12.226
76945SOL    HW132668   1.138  13.800  12.130
76945SOL    HW232669   1.232  13.814  12.248
76946SOL     OW32670   5.950   0.023   4.486
76946SOL    HW132671   5.938   0.086   4.557
76946SOL    HW232672   5.924  14.818   4.523
76947SOL     OW32673   1.187   1.336   6.706
76947SOL    HW132674   1.242   1.269   6.666
76947SOL    HW232675   1.248   1.393   6.753
76948SOL     OW32676   3.625   9.919   2.262
76948SOL    HW132677   3.565   9.944   2.333
76948SOL    HW232678   3.710   9.908   2.305
76949SOL     OW32679   2.121   8.445   5.507
76949SOL    HW132680   2.152   8.459   5.418
76949SOL    HW232681   2.094   8.353   5.510
76950SOL     OW32682   9.739  10.361   4.915
76950SOL    HW132683   9.765  10.393   5.001
76950SOL    HW232684   9.647  10.337   4.924
76951SOL     OW32685  11.229   2.573   8.771
76951SOL    HW132686  11.149   2.620   8.794
76951SOL    HW232687  11.289   2.642   8.741
76952SOL     OW32688   7.895   0.532   3.797
76952SOL    HW132689   7.991   0.530   3.799
76952SOL    HW232690   7.868   0.494   3.880
76953SOL     OW32691   1.858   2.810   9.974
76953SOL    HW132692   1.802   2.781   9.902
76953SOL    HW232693   1.802   2.807  10.052
76954SOL     OW32694   3.177   3.364  12.816
76954SOL    HW132695   3.207   3.358  12.907
76954SOL    HW232696   3.224   3.439  12.781
76955SOL     OW32697   3.580   8.843  10.951
76955SOL    HW132698   3.512   8.881  10.895
76955SOL    HW232699   3.567   8.886  11.036
76956SOL     OW32700   4.320  11.592   1.774
76956SOL    HW132701   4.364  11.557   1.696
76956SOL    HW232702   4.382  11.654   1.812
76957SOL     OW32703   0.568   6.461  13.939
76957SOL    HW132704   0.562   6.554  13.920
76957SOL    HW232705   0.653   6.451  13.983
76958SOL     OW32706  14.344   0.505   0.735
76958SOL    HW132707  14.320   0.583   0.784
76958SOL    HW232708  14.303   0.433   0.782
76959SOL     OW32709   4.835   4.931   4.023
76959SOL    HW132710   4.791   5.007   4.061
76959SOL    HW232711   4.764   4.877   3.989
76960SOL     OW32712  14.506   4.591   1.486
76960SOL    HW132713  14.517   4.569   1.579
76960SOL    HW232714  14.434   4.654   1.485
76961SOL     OW32715  12.464  14.816   2.430
76961SOL    HW132716  12.449  14.810   2.335
76961SOL    HW232717  12.445  14.728   2.462
76962SOL     OW32718  12.218  12.009   7.636
76962SOL    HW132719  12.212  12.026   7.730
76962SOL    HW232720  12.299  11.959   7.625
76963SOL     OW32721  10.207   1.815   6.604
76963SOL    HW132722  10.228   1.742   6.547
76963SOL    HW232723  10.285   1.871   6.602
76964SOL     OW32724   2.111  10.354   1.495
76964SOL    HW132725   2.177  10.293   1.465
76964SOL    HW232726   2.129  10.435   1.448
76965SOL     OW32727   8.560  13.628   4.850
76965SOL    HW132728   8.478  13.658   4.892
76965SOL    HW232729   8.593  13.560   4.909
76966SOL     OW32730   1.582   7.123   8.458
76966SOL    HW132731   1.543   7.061   8.396
76966SOL    HW232732   1.551   7.093   8.544
76967SOL     OW32733   6.047   4.223  12.073
76967SOL    HW132734   6.009   4.292  12.128
76967SOL    HW232735   5.971   4.178  12.037
76968SOL     OW32736   4.881  10.299  11.041
76968SOL    HW132737   4.973  10.272  11.034
76968SOL    HW232738   4.860  10.333  10.954
76969SOL     OW32739   3.895   9.232  12.178
76969SOL    HW132740   3.981   9.207  12.213
76969SOL    HW232741   3.881   9.321  12.210
76970SOL     OW32742   6.903   7.357   9.925
76970SOL    HW132743   6.837   7.405   9.876
76970SOL    HW232744   6.896   7.391  10.014
76971SOL     OW32745   8.283   5.795   9.299
76971SOL    HW132746   8.224   5.854   9.253
76971SOL    HW232747   8.368   5.841   9.300
76972SOL     OW32748   7.892   1.335   9.822
76972SOL    HW132749   7.952   1.261   9.833
76972SOL    HW232750   7.817   1.298   9.777
76973SOL     OW32751  14.817   8.822  14.724
76973SOL    HW132752  14.752   8.893  14.721
76973SOL    HW232753  14.877   8.841  14.652
76974SOL     OW32754   5.110   1.803   8.984
76974SOL    HW132755   5.092   1.714   9.013
76974SOL    HW232756   5.042   1.822   8.919
76975SOL     OW32757   9.081  12.900   3.603
76975SOL    HW132758   9.173  12.926   3.602
76975SOL    HW232759   9.082  12.809   3.575
76976SOL     OW32760   5.619   1.787  11.157
76976SOL    HW132761   5.668   1.769  11.076
76976SOL    HW232762   5.584   1.702  11.182
76977SOL     OW32763  14.375   2.341   7.741
76977SOL    HW132764  14.291   2.327   7.698
76977SOL    HW232765  14.365   2.302   7.828
76978SOL     OW32766   5.574  12.502  11.317
76978SOL    HW132767   5.600  12.412  11.294
76978SOL    HW232768   5.486  12.493  11.352
76979SOL     OW32769   0.062   9.232   7.804
76979SOL    HW132770   0.054   9.143   7.769
76979SOL    HW232771   0.107   9.280   7.735
76980SOL     OW32772   4.551   8.059   2.865
76980SOL    HW132773   4.502   7.981   2.839
76980SOL    HW232774   4.483   8.123   2.885
76981SOL     OW32775   0.843   7.057  12.038
76981SOL    HW132776   0.765   7.006  12.060
76981SOL    HW232777   0.915   7.009  12.077
76982SOL     OW32778   3.606   5.129  12.441
76982SOL    HW132779   3.628   5.107  12.532
76982SOL    HW232780   3.688   5.118  12.393
76983SOL     OW32781   5.532  10.683  13.983
76983SOL    HW132782   5.458  10.723  14.028
76983SOL    HW232783   5.609  10.723  14.023
76984SOL     OW32784  12.575   9.435  12.831
76984SOL    HW132785  12.549   9.394  12.913
76984SOL    HW232786  12.631   9.371  12.789
76985SOL     OW32787  11.755  11.495  12.741
76985SOL    HW132788  11.736  11.443  12.663
76985SOL    HW232789  11.848  11.483  12.756
76986SOL     OW32790   8.926   8.602  13.427
76986SOL    HW132791   8.861   8.533  13.417
76986SOL    HW232792   8.927   8.622  13.520
76987SOL     OW32793   6.741   3.264  10.516
76987SOL    HW132794   6.674   3.288  10.453
76987SOL    HW232795   6.811   3.226  10.463
76988SOL     OW32796  10.276   7.028   7.216
76988SOL    HW132797  10.196   6.977   7.232
76988SOL    HW232798  10.302   7.058   7.303
76989SOL     OW32799  12.252  12.658   7.038
76989SOL    HW132800  12.304  12.739   7.044
76989SOL    HW232801  12.243  12.642   6.944
76990SOL     OW32802  10.747  14.772   7.508
76990SOL    HW132803  10.800  14.777   7.429
76990SOL    HW232804  10.806  14.801   7.578
76991SOL     OW32805   1.733   3.578   0.260
76991SOL    HW132806   1.819   3.591   0.219
76991SOL    HW232807   1.749   3.511   0.327
76992SOL     OW32808  11.446   2.468   4.100
76992SOL    HW132809  11.504   2.392   4.090
76992SOL    HW232810  11.417   2.486   4.010
76993SOL     OW32811   6.936   5.553   5.373
76993SOL    HW132812   6.876   5.618   5.337
76993SOL    HW232813   7.011   5.604   5.404
76994SOL     OW32814   2.094  10.580   5.316
76994SOL    HW132815   2.149  10.583   5.394
76994SOL    HW232816   2.153  10.555   5.245
76995SOL     OW32817  13.380  12.402   5.580
76995SOL    HW132818  13.449  12.374   5.640
76995SOL    HW232819  13.304  12.352   5.606
76996SOL     OW32820  10.420   1.957   3.168
76996SOL    HW132821  10.507   1.932   3.200
76996SOL    HW232822  10.381   2.005   3.240
76997SOL     OW32823   7.410   4.287   2.879
76997SOL    HW132824   7.357   4.279   2.800
76997SOL    HW232825   7.470   4.360   2.861
76998SOL     OW32826   6.378   2.755  13.952
76998SOL    HW132827   6.348   2.750  13.862
76998SOL    HW232828   6.301   2.778  14.003
76999SOL     OW32829  10.307  12.423   5.145
76999SOL    HW132830  10.334  12.489   5.082
76999SOL    HW232831  10.345  12.341   5.113
77000SOL     OW32832  12.525   4.689   4.157
77000SOL    HW132833  12.606   4.702   4.205
77000SOL    HW232834  12.541   4.612   4.102
77001SOL     OW32835   0.670  11.974  13.394
77001SOL    HW132836   0.753  11.971  13.442
77001SOL    HW232837   0.609  12.018  13.453
77002SOL     OW32838   9.116   5.340  14.696
77002SOL    HW132839   9.083   5.328  14.785
77002SOL    HW232840   9.038   5.337  14.640
77003SOL     OW32841   9.369   0.291   7.811
77003SOL    HW132842   9.391   0.253   7.727
77003SOL    HW232843   9.274   0.280   7.819
77004SOL     OW32844  11.019   4.086  14.262
77004SOL    HW132845  11.098   4.045  14.228
77004SOL    HW232846  10.960   4.090  14.187
77005SOL     OW32847  11.459   7.884   6.992
77005SOL    HW132848  11.373   7.842   6.992
77005SOL    HW232849  11.454   7.949   6.922
77006SOL     OW32850   8.453   1.755  11.861
77006SOL    HW132851   8.366   1.717  11.851
77006SOL    HW232852   8.496   1.700  11.927
77007SOL     OW32853   1.006   3.699   6.960
77007SOL    HW132854   0.977   3.790   6.954
77007SOL    HW232855   0.939   3.649   6.913
77008SOL     OW32856   2.904  14.189   7.550
77008SOL    HW132857   2.974  14.240   7.508
77008SOL    HW232858   2.867  14.248   7.616
77009SOL     OW32859   0.124   9.295   2.594
77009SOL    HW132860   0.177   9.319   2.670
77009SOL    HW232861   0.187   9.261   2.531
77010SOL     OW32862  13.963   5.673  12.439
77010SOL    HW132863  13.901   5.730  12.396
77010SOL    HW232864  13.922   5.650  12.523
77011SOL     OW32865  10.028   0.992   4.574
77011SOL    HW132866   9.953   1.038   4.537
77011SOL    HW232867  10.058   1.049   4.644
77012SOL     OW32868   2.516   3.432  14.764
77012SOL    HW132869   2.596   3.394  14.726
77012SOL    HW232870   2.478   3.483  14.693
77013SOL     OW32871   1.416   2.667  14.859
77013SOL    HW132872   1.327   2.634  14.851
77013SOL    HW232873   1.442   2.691  14.770
77014SOL     OW32874   1.329   8.938   8.739
77014SOL    HW132875   1.274   8.860   8.743
77014SOL    HW232876   1.305   8.988   8.817
77015SOL     OW32877   2.937   3.865  13.610
77015SOL    HW132878   2.936   3.820  13.526
77015SOL    HW232879   2.847   3.893  13.624
77016SOL     OW32880   4.034   6.278   0.618
77016SOL    HW132881   4.088   6.357   0.612
77016SOL    HW232882   4.098   6.206   0.614
77017SOL     OW32883   8.216   0.580  11.553
77017SOL    HW132884   8.186   0.611  11.638
77017SOL    HW232885   8.305   0.547  11.569
77018SOL     OW32886   2.054  10.409   8.019
77018SOL    HW132887   2.049  10.459   8.100
77018SOL    HW232888   1.988  10.449   7.962
77019SOL     OW32889  10.456   8.873  11.808
77019SOL    HW132890  10.456   8.928  11.729
77019SOL    HW232891  10.365   8.847  11.819
77020SOL     OW32892  13.972   8.972   8.950
77020SOL    HW132893  13.965   8.931   8.864
77020SOL    HW232894  13.887   8.956   8.991
77021SOL     OW32895  11.972  11.525   1.518
77021SOL    HW132896  11.931  11.451   1.474
77021SOL    HW232897  12.051  11.490   1.559
77022SOL     OW32898  14.164   5.575  13.057
77022SOL    HW132899  14.183   5.632  13.132
77022SOL    HW232900  14.246   5.527  13.042
77023SOL     OW32901   5.128  10.230  12.652
77023SOL    HW132902   5.158  10.265  12.568
77023SOL    HW232903   5.064  10.163  12.628
77024SOL     OW32904  13.043   2.162   5.994
77024SOL    HW132905  13.091   2.236   5.957
77024SOL    HW232906  12.983   2.202   6.057
77025SOL     OW32907  10.275  10.955   2.562
77025SOL    HW132908  10.264  11.041   2.519
77025SOL    HW232909  10.196  10.945   2.616
77026SOL     OW32910   0.922   1.114  12.842
77026SOL    HW132911   0.919   1.073  12.928
77026SOL    HW232912   0.847   1.076  12.795
77027SOL     OW32913   4.404  10.011   1.651
77027SOL    HW132914   4.391  10.076   1.582
77027SOL    HW232915   4.489   9.972   1.630
77028SOL     OW32916   5.637  12.929  14.226
77028SOL    HW132917   5.706  12.981  14.267
77028SOL    HW232918   5.571  12.993  14.200
77029SOL     OW32919   7.543   1.889   4.878
77029SOL    HW132920   7.593   1.819   4.920
77029SOL    HW232921   7.511   1.851   4.797
77030SOL     OW32922   3.186   7.155  14.801
77030SOL    HW132923   3.097   7.188  14.793
77030SOL    HW232924   3.188   7.112   0.008
77031SOL     OW32925   9.251   6.744   6.749
77031SOL    HW132926   9.253   6.649   6.747
77031SOL    HW232927   9.320   6.771   6.687
77032SOL     OW32928   0.818   7.063   0.656
77032SOL    HW132929   0.828   7.093   0.566
77032SOL    HW232930   0.835   7.141   0.709
77033SOL     OW32931  14.595  10.070   7.912
77033SOL    HW132932  14.588  10.144   7.853
77033SOL    HW232933  14.557   9.997   7.863
77034SOL     OW32934   7.136   5.920   6.775
77034SOL    HW132935   7.150   6.007   6.812
77034SOL    HW232936   7.221   5.895   6.739
77035SOL     OW32937   3.862   2.690  11.774
77035SOL    HW132938   3.826   2.778  11.758
77035SOL    HW232939   3.835   2.639  11.698
77036SOL     OW32940   9.625   1.581   7.684
77036SOL    HW132941   9.673   1.632   7.619
77036SOL    HW232942   9.537   1.571   7.647
77037SOL     OW32943  10.813   5.287   6.255
77037SOL    HW132944  10.855   5.201   6.256
77037SOL    HW232945  10.790   5.301   6.163
77038SOL     OW32946   4.328   9.664   3.698
77038SOL    HW132947   4.275   9.734   3.660
77038SOL    HW232948   4.379   9.630   3.625
77039SOL     OW32949   9.354   6.625   2.759
77039SOL    HW132950   9.270   6.658   2.729
77039SOL    HW232951   9.413   6.638   2.685
77040SOL     OW32952  14.501   7.466   8.746
77040SOL    HW132953  14.539   7.382   8.718
77040SOL    HW232954  14.426   7.441   8.800
77041SOL     OW32955  10.135   5.427   3.973
77041SOL    HW132956  10.195   5.353   3.977
77041SOL    HW232957  10.086   5.423   4.056
77042SOL     OW32958   1.230   8.589   5.162
77042SOL    HW132959   1.264   8.666   5.116
77042SOL    HW232960   1.193   8.535   5.093
77043SOL     OW32961  13.546   5.062   7.065
77043SOL    HW132962  13.459   5.074   7.102
77043SOL    HW232963  13.600   5.033   7.139
77044SOL     OW32964  13.118   2.757   6.328
77044SOL    HW132965  13.120   2.852   6.337
77044SOL    HW232966  13.203   2.728   6.361
77045SOL     OW32967   7.849  14.712  13.492
77045SOL    HW132968   7.788  14.774  13.452
77045SOL    HW232969   7.867  14.750  13.578
77046SOL     OW32970  10.455   4.637   3.013
77046SOL    HW132971  10.476   4.717   3.062
77046SOL    HW232972  10.390   4.665   2.949
77047SOL     OW32973   4.852   8.268  12.743
77047SOL    HW132974   4.877   8.249  12.834
77047SOL    HW232975   4.913   8.216  12.690
77048SOL     OW32976   5.304  11.448   7.948
77048SOL    HW132977   5.298  11.374   7.888
77048SOL    HW232978   5.301  11.525   7.892
77049SOL     OW32979   8.034  12.615  12.457
77049SOL    HW132980   8.040  12.709  12.436
77049SOL    HW232981   8.111  12.598  12.511
77050SOL     OW32982   8.447  13.597  14.734
77050SOL    HW132983   8.538  13.626  14.746
77050SOL    HW232984   8.413  13.589  14.823
77051SOL     OW32985  10.766   5.307   8.320
77051SOL    HW132986  10.826   5.382   8.314
77051SOL    HW232987  10.731   5.312   8.409
77052SOL     OW32988  13.127   3.947   1.364
77052SOL    HW132989  13.179   3.866   1.365
77052SOL    HW232990  13.125   3.975   1.455
77053SOL     OW32991   2.397  13.249   3.617
77053SOL    HW132992   2.358  13.317   3.671
77053SOL    HW232993   2.454  13.296   3.557
77054SOL     OW32994   8.976  12.500   0.908
77054SOL    HW132995   9.044  12.552   0.865
77054SOL    HW232996   8.971  12.535   0.996
77055SOL     OW32997   1.838   0.273   3.943
77055SOL    HW132998   1.932   0.265   3.960
77055SOL    HW232999   1.804   0.324   4.016
77056SOL     OW33000  10.560  10.423   9.875
77056SOL    HW133001  10.654  10.409   9.881
77056SOL    HW233002  10.550  10.488   9.805
77057SOL     OW33003   5.343   9.993   1.038
77057SOL    HW133004   5.405   9.923   1.061
77057SOL    HW233005   5.298   9.960   0.960
77058SOL     OW33006   5.339   0.133   4.719
77058SOL    HW133007   5.254   0.123   4.761
77058SOL    HW233008   5.335   0.076   4.642
77059SOL     OW33009  11.856   5.135  13.834
77059SOL    HW133010  11.783   5.147  13.895
77059SOL    HW233011  11.822   5.164  13.749
77060SOL     OW33012  11.613   5.868  11.964
77060SOL    HW133013  11.591   5.823  11.883
77060SOL    HW233014  11.584   5.810  12.034
77061SOL     OW33015   8.198   4.674  12.036
77061SOL    HW133016   8.267   4.733  12.004
77061SOL    HW233017   8.225   4.587  12.005
77062SOL     OW33018  11.193   3.533   2.541
77062SOL    HW133019  11.278   3.509   2.504
77062SOL    HW233020  11.141   3.559   2.465
77063SOL     OW33021  14.464  13.647   0.458
77063SOL    HW133022  14.479  13.699   0.378
77063SOL    HW233023  14.387  13.593   0.437
77064SOL     OW33024   6.246   2.023   6.268
77064SOL    HW133025   6.251   2.071   6.351
77064SOL    HW233026   6.291   2.080   6.205
77065SOL     OW33027  11.599  14.830  10.479
77065SOL    HW133028  11.660  14.765  10.515
77065SOL    HW233029  11.531  14.837  10.545
77066SOL     OW33030   3.739   5.035  13.190
77066SOL    HW133031   3.782   4.967  13.242
77066SOL    HW233032   3.652   5.000  13.172
77067SOL     OW33033  10.030   1.618  10.650
77067SOL    HW133034  10.011   1.633  10.743
77067SOL    HW233035  10.126   1.620  10.645
77068SOL     OW33036   2.261   7.905  12.119
77068SOL    HW133037   2.299   7.902  12.207
77068SOL    HW233038   2.194   7.837  12.119
77069SOL     OW33039   0.650  12.639   3.120
77069SOL    HW133040   0.690  12.709   3.171
77069SOL    HW233041   0.627  12.680   3.037
77070SOL     OW33042   1.412  13.476  14.521
77070SOL    HW133043   1.455  13.390  14.517
77070SOL    HW233044   1.405  13.504  14.430
77071SOL     OW33045   9.979   0.638   8.002
77071SOL    HW133046   9.951   0.572   8.066
77071SOL    HW233047   9.903   0.696   7.993
77072SOL     OW33048  10.709   5.425  13.657
77072SOL    HW133049  10.705   5.444  13.563
77072SOL    HW233050  10.785   5.366  13.666
77073SOL     OW33051   3.037   5.656   5.131
77073SOL    HW133052   2.953   5.655   5.084
77073SOL    HW233053   3.103   5.648   5.063
77074SOL     OW33054   7.231   8.224   9.592
77074SOL    HW133055   7.298   8.155   9.591
77074SOL    HW233056   7.231   8.257   9.682
77075SOL     OW33057  13.319  13.284   3.253
77075SOL    HW133058  13.403  13.294   3.209
77075SOL    HW233059  13.318  13.194   3.285
77076SOL     OW33060  10.844   1.702  12.022
77076SOL    HW133061  10.921   1.657  11.988
77076SOL    HW233062  10.795   1.727  11.944
77077SOL     OW33063   3.065   0.623   9.529
77077SOL    HW133064   3.060   0.567   9.606
77077SOL    HW233065   3.137   0.588   9.477
77078SOL     OW33066  11.844   7.577  13.356
77078SOL    HW133067  11.861   7.536  13.441
77078SOL    HW233068  11.748   7.584  13.352
77079SOL     OW33069   4.495   9.575  10.988
77079SOL    HW133070   4.431   9.632  10.946
77079SOL    HW233071   4.526   9.626  11.064
77080SOL     OW33072   9.601   9.763   7.820
77080SOL    HW133073   9.559   9.677   7.821
77080SOL    HW233074   9.694   9.743   7.816
77081SOL     OW33075   8.955   3.643  13.017
77081SOL    HW133076   8.991   3.554  13.013
77081SOL    HW233077   8.899   3.642  13.095
77082SOL     OW33078   6.610   4.483   2.772
77082SOL    HW133079   6.612   4.391   2.798
77082SOL    HW233080   6.677   4.490   2.704
77083SOL     OW33081   2.758   9.197   1.526
77083SOL    HW133082   2.716   9.283   1.531
77083SOL    HW233083   2.831   9.210   1.466
77084SOL     OW33084   0.729  12.435   5.814
77084SOL    HW133085   0.776  12.514   5.788
77084SOL    HW233086   0.776  12.363   5.772
77085SOL     OW33087  14.501   7.105   6.404
77085SOL    HW133088  14.567   7.102   6.473
77085SOL    HW233089  14.493   7.198   6.383
77086SOL     OW33090   7.284   3.874  11.992
77086SOL    HW133091   7.326   3.886  12.077
77086SOL    HW233092   7.314   3.789  11.962
77087SOL     OW33093   3.251   1.752   3.862
77087SOL    HW133094   3.279   1.815   3.929
77087SOL    HW233095   3.320   1.754   3.796
77088SOL     OW33096   7.898   8.707   6.095
77088SOL    HW133097   7.826   8.743   6.043
77088SOL    HW233098   7.891   8.750   6.180
77089SOL     OW33099   4.183  14.786   5.977
77089SOL    HW133100   4.250  14.717   5.971
77089SOL    HW233101   4.169  14.814   5.887
77090SOL     OW33102   7.303   0.191   4.118
77090SOL    HW133103   7.223   0.143   4.140
77090SOL    HW233104   7.273   0.279   4.097
77091SOL     OW33105   5.981   7.389   2.431
77091SOL    HW133106   6.059   7.344   2.461
77091SOL    HW233107   5.938   7.419   2.511
77092SOL     OW33108   4.654  12.616   7.555
77092SOL    HW133109   4.599  12.554   7.603
77092SOL    HW233110   4.743  12.581   7.563
77093SOL     OW33111   1.993   4.306  10.348
77093SOL    HW133112   1.992   4.393  10.388
77093SOL    HW233113   1.926   4.309  10.280
77094SOL     OW33114   7.627   8.402  11.947
77094SOL    HW133115   7.562   8.465  11.978
77094SOL    HW233116   7.637   8.422  11.854
77095SOL     OW33117  11.078  11.607   9.174
77095SOL    HW133118  11.113  11.683   9.128
77095SOL    HW233119  10.997  11.638   9.214
77096SOL     OW33120   8.586   1.327   4.470
77096SOL    HW133121   8.676   1.360   4.466
77096SOL    HW233122   8.546   1.354   4.387
77097SOL     OW33123   5.115   8.495   9.443
77097SOL    HW133124   5.207   8.517   9.424
77097SOL    HW233125   5.120   8.427   9.509
77098SOL     OW33126   0.639  13.381   4.759
77098SOL    HW133127   0.729  13.353   4.773
77098SOL    HW233128   0.620  13.356   4.669
77099SOL     OW33129   2.998   9.285   9.068
77099SOL    HW133130   2.965   9.223   9.134
77099SOL    HW233131   2.989   9.371   9.109
77100SOL     OW33132   4.136  10.903   3.160
77100SOL    HW133133   4.073  10.880   3.228
77100SOL    HW233134   4.163  10.820   3.122
77101SOL     OW33135  14.357   8.044   2.440
77101SOL    HW133136  14.444   8.080   2.458
77101SOL    HW233137  14.368   7.949   2.445
77102SOL     OW33138  12.601  11.859  11.718
77102SOL    HW133139  12.548  11.889  11.792
77102SOL    HW233140  12.691  11.878  11.743
77103SOL     OW33141   2.382   9.482   0.181
77103SOL    HW133142   2.287   9.483   0.193
77103SOL    HW233143   2.401   9.558   0.125
77104SOL     OW33144   2.145   0.505   3.227
77104SOL    HW133145   2.089   0.433   3.255
77104SOL    HW233146   2.211   0.512   3.297
77105SOL     OW33147   4.015   5.584   5.183
77105SOL    HW133148   4.022   5.500   5.229
77105SOL    HW233149   3.936   5.625   5.219
77106SOL     OW33150  12.327   4.838  11.570
77106SOL    HW133151  12.316   4.879  11.484
77106SOL    HW233152  12.245   4.793  11.586
77107SOL     OW33153   8.851  11.736   5.727
77107SOL    HW133154   8.810  11.725   5.813
77107SOL    HW233155   8.896  11.821   5.733
77108SOL     OW33156  13.857   0.893  12.931
77108SOL    HW133157  13.903   0.811  12.917
77108SOL    HW233158  13.810   0.909  12.849
77109SOL     OW33159   4.660   7.522   9.390
77109SOL    HW133160   4.622   7.475   9.464
77109SOL    HW233161   4.691   7.453   9.331
77110SOL     OW33162   6.216   4.150  12.312
77110SOL    HW133163   6.124   4.159  12.287
77110SOL    HW233164   6.259   4.112  12.235
77111SOL     OW33165   4.863   6.802  11.584
77111SOL    HW133166   4.834   6.813  11.675
77111SOL    HW233167   4.925   6.873  11.570
77112SOL     OW33168  10.462   9.259   6.350
77112SOL    HW133169  10.448   9.214   6.267
77112SOL    HW233170  10.498   9.192   6.408
77113SOL     OW33171   6.714   4.429  14.749
77113SOL    HW133172   6.671   4.390  14.825
77113SOL    HW233173   6.675   4.516  14.741
77114SOL     OW33174   5.846  10.834   4.426
77114SOL    HW133175   5.784  10.786   4.372
77114SOL    HW233176   5.791  10.890   4.481
77115SOL     OW33177   9.392   0.608   2.139
77115SOL    HW133178   9.323   0.616   2.074
77115SOL    HW233179   9.364   0.535   2.195
77116SOL     OW33180   2.996  11.601   9.574
77116SOL    HW133181   2.935  11.673   9.558
77116SOL    HW233182   2.993  11.550   9.493
77117SOL     OW33183   6.695  11.254   0.821
77117SOL    HW133184   6.700  11.341   0.784
77117SOL    HW233185   6.621  11.258   0.882
77118SOL     OW33186  11.050   9.572   9.884
77118SOL    HW133187  10.955   9.584   9.881
77118SOL    HW233188  11.065   9.485   9.848
77119SOL     OW33189   1.948  13.561   6.778
77119SOL    HW133190   1.889  13.524   6.713
77119SOL    HW233191   1.905  13.543   6.862
77120SOL     OW33192   5.434   4.439  10.516
77120SOL    HW133193   5.412   4.531  10.531
77120SOL    HW233194   5.459   4.407  10.603
77121SOL     OW33195  10.762   3.606   6.686
77121SOL    HW133196  10.750   3.588   6.779
77121SOL    HW233197  10.764   3.519   6.645
77122SOL     OW33198  12.249   1.993   3.502
77122SOL    HW133199  12.191   1.992   3.426
77122SOL    HW233200  12.197   2.034   3.571
77123SOL     OW33201   3.142   5.005   7.403
77123SOL    HW133202   3.115   5.090   7.369
77123SOL    HW233203   3.101   4.941   7.345
77124SOL     OW33204  13.459   3.077   0.526
77124SOL    HW133205  13.468   2.982   0.517
77124SOL    HW233206  13.395   3.088   0.596
77125SOL     OW33207  13.106   5.942  11.197
77125SOL    HW133208  13.107   5.902  11.284
77125SOL    HW233209  13.115   6.036  11.213
77126SOL     OW33210   5.235   0.128   2.309
77126SOL    HW133211   5.225   0.222   2.293
77126SOL    HW233212   5.275   0.123   2.396
77127SOL     OW33213   4.733   9.219  12.147
77127SOL    HW133214   4.682   9.299  12.163
77127SOL    HW233215   4.740   9.214  12.052
77128SOL     OW33216  14.243   8.641   7.172
77128SOL    HW133217  14.320   8.663   7.119
77128SOL    HW233218  14.207   8.563   7.131
77129SOL     OW33219  13.382   9.600  13.518
77129SOL    HW133220  13.288   9.594  13.501
77129SOL    HW233221  13.418   9.519  13.481
77130SOL     OW33222   3.645   3.702   7.053
77130SOL    HW133223   3.707   3.762   7.013
77130SOL    HW233224   3.679   3.615   7.032
77131SOL     OW33225  11.300   3.417   0.685
77131SOL    HW133226  11.359   3.345   0.661
77131SOL    HW233227  11.225   3.407   0.626
77132SOL     OW33228   8.355   6.892   2.960
77132SOL    HW133229   8.264   6.892   2.931
77132SOL    HW233230   8.356   6.833   3.035
77133SOL     OW33231   4.184   7.644   4.606
77133SOL    HW133232   4.134   7.578   4.653
77133SOL    HW233233   4.223   7.698   4.675
77134SOL     OW33234   2.421  11.260  13.203
77134SOL    HW133235   2.411  11.327  13.271
77134SOL    HW233236   2.332  11.243  13.173
77135SOL     OW33237   2.455   4.586  12.573
77135SOL    HW133238   2.423   4.665  12.529
77135SOL    HW233239   2.541   4.570  12.535
77136SOL     OW33240   3.682  12.657   5.767
77136SOL    HW133241   3.693  12.609   5.850
77136SOL    HW233242   3.752  12.721   5.767
77137SOL     OW33243  12.752  14.524   8.224
77137SOL    HW133244  12.833  14.485   8.192
77137SOL    HW233245  12.731  14.474   8.303
77138SOL     OW33246   6.209   0.154  11.643
77138SOL    HW133247   6.167   0.230  11.603
77138SOL    HW233248   6.176   0.154  11.733
77139SOL     OW33249   4.122  10.846   9.715
77139SOL    HW133250   4.137  10.901   9.791
77139SOL    HW233251   4.209  10.827   9.681
77140SOL     OW33252  13.547   2.266   8.958
77140SOL    HW133253  13.581   2.297   9.042
77140SOL    HW233254  13.539   2.346   8.905
77141SOL     OW33255   4.129  10.435   0.347
77141SOL    HW133256   4.131  10.348   0.385
77141SOL    HW233257   4.040  10.467   0.362
77142SOL     OW33258  13.971   6.991   2.354
77142SOL    HW133259  13.894   7.005   2.299
77142SOL    HW233260  13.963   7.055   2.424
77143SOL     OW33261   1.101   5.205  12.318
77143SOL    HW133262   1.095   5.135  12.253
77143SOL    HW233263   1.150   5.165  12.390
77144SOL     OW33264  10.061   1.756   0.104
77144SOL    HW133265  10.063   1.793   0.192
77144SOL    HW233266  10.097   1.824   0.048
77145SOL     OW33267   3.700   6.180   2.955
77145SOL    HW133268   3.688   6.110   2.891
77145SOL    HW233269   3.747   6.139   3.027
77146SOL     OW33270   6.783  13.577  12.794
77146SOL    HW133271   6.750  13.492  12.764
77146SOL    HW233272   6.760  13.637  12.723
77147SOL     OW33273   0.776   0.334   3.972
77147SOL    HW133274   0.869   0.346   3.954
77147SOL    HW233275   0.742   0.288   3.896
77148SOL     OW33276   1.720   1.808   2.023
77148SOL    HW133277   1.644   1.857   2.053
77148SOL    HW233278   1.684   1.728   1.985
77149SOL     OW33279  11.914  12.258   9.720
77149SOL    HW133280  11.940  12.173   9.684
77149SOL    HW233281  11.832  12.240   9.766
77150SOL     OW33282   1.094   7.801   9.133
77150SOL    HW133283   1.047   7.819   9.051
77150SOL    HW233284   1.186   7.814   9.111
77151SOL     OW33285   8.533   6.646   3.771
77151SOL    HW133286   8.624   6.671   3.760
77151SOL    HW233287   8.533   6.588   3.848
77152SOL     OW33288  14.875   6.122   1.051
77152SOL    HW133289   0.013   6.212   1.079
77152SOL    HW233290  14.786   6.104   1.081
77153SOL     OW33291   3.831   8.643   9.804
77153SOL    HW133292   3.917   8.683   9.818
77153SOL    HW233293   3.769   8.715   9.815
77154SOL     OW33294   9.936  13.567  14.820
77154SOL    HW133295   9.881  13.526   0.008
77154SOL    HW233296   9.921  13.661  14.829
77155SOL     OW33297   9.783  10.240  11.573
77155SOL    HW133298   9.753  10.175  11.510
77155SOL    HW233299   9.704  10.286  11.600
77156SOL     OW33300   7.009   1.808   1.018
77156SOL    HW133301   6.991   1.898   1.045
77156SOL    HW233302   7.091   1.814   0.969
77157SOL     OW33303  10.045   4.215  14.301
77157SOL    HW133304  10.067   4.183  14.389
77157SOL    HW233305  10.102   4.290  14.288
77158SOL     OW33306  14.303   3.478  12.002
77158SOL    HW133307  14.296   3.383  11.989
77158SOL    HW233308  14.219   3.503  12.039
77159SOL     OW33309   1.896   1.937  14.273
77159SOL    HW133310   1.840   1.945  14.350
77159SOL    HW233311   1.985   1.936  14.308
77160SOL     OW33312   0.889   0.311  13.318
77160SOL    HW133313   0.972   0.332  13.360
77160SOL    HW233314   0.910   0.307  13.225
77161SOL     OW33315   7.428   1.673   6.229
77161SOL    HW133316   7.409   1.706   6.141
77161SOL    HW233317   7.519   1.646   6.226
77162SOL     OW33318   3.761   9.046   4.028
77162SOL    HW133319   3.711   9.104   4.085
77162SOL    HW233320   3.701   8.974   4.008
77163SOL     OW33321   6.057  11.190   6.895
77163SOL    HW133322   6.103  11.256   6.948
77163SOL    HW233323   6.105  11.188   6.813
77164SOL     OW33324  13.354  12.430   1.258
77164SOL    HW133325  13.416  12.369   1.219
77164SOL    HW233326  13.390  12.449   1.345
77165SOL     OW33327   4.001   0.226  12.173
77165SOL    HW133328   3.964   0.299  12.223
77165SOL    HW233329   4.096   0.234  12.184
77166SOL     OW33330  14.727   2.693   1.471
77166SOL    HW133331  14.786   2.760   1.508
77166SOL    HW233332  14.644   2.739   1.460
77167SOL     OW33333   3.427   8.538   8.381
77167SOL    HW133334   3.426   8.602   8.452
77167SOL    HW233335   3.511   8.493   8.390
77168SOL     OW33336   4.930   3.285  11.939
77168SOL    HW133337   4.835   3.296  11.934
77168SOL    HW233338   4.960   3.298  11.849
77169SOL     OW33339  13.103   1.436   3.157
77169SOL    HW133340  13.167   1.500   3.186
77169SOL    HW233341  13.154   1.360   3.130
77170SOL     OW33342   3.139  13.018   5.391
77170SOL    HW133343   3.162  13.100   5.348
77170SOL    HW233344   3.048  13.002   5.365
77171SOL     OW33345   6.754   3.174  10.773
77171SOL    HW133346   6.754   3.224  10.692
77171SOL    HW233347   6.845   3.149  10.786
77172SOL     OW33348   5.171  13.183   9.848
77172SOL    HW133349   5.245  13.199   9.907
77172SOL    HW233350   5.163  13.088   9.843
77173SOL     OW33351  11.563   0.681   0.856
77173SOL    HW133352  11.568   0.619   0.929
77173SOL    HW233353  11.621   0.752   0.882
77174SOL     OW33354  13.882   9.712  10.499
77174SOL    HW133355  13.809   9.663  10.461
77174SOL    HW233356  13.869   9.704  10.594
77175SOL     OW33357   0.256   6.949  10.347
77175SOL    HW133358   0.183   6.909  10.395
77175SOL    HW233359   0.227   7.038  10.329
77176SOL     OW33360  11.938   9.312   9.924
77176SOL    HW133361  11.924   9.217   9.925
77176SOL    HW233362  12.033   9.322   9.936
77177SOL     OW33363  14.169   6.859   2.255
77177SOL    HW133364  14.203   6.822   2.336
77177SOL    HW233365  14.094   6.913   2.282
77178SOL     OW33366   5.308   2.600  12.336
77178SOL    HW133367   5.388   2.590  12.387
77178SOL    HW233368   5.238   2.573  12.396
77179SOL     OW33369   5.629   9.364   2.482
77179SOL    HW133370   5.543   9.325   2.468
77179SOL    HW233371   5.687   9.315   2.424
77180SOL     OW33372   0.663  13.611   5.963
77180SOL    HW133373   0.606  13.544   6.000
77180SOL    HW233374   0.611  13.692   5.969
77181SOL     OW33375  13.440   1.039  13.491
77181SOL    HW133376  13.373   0.973  13.511
77181SOL    HW233377  13.499   0.995  13.430
77182SOL     OW33378   3.338   4.225   6.581
77182SOL    HW133379   3.359   4.152   6.523
77182SOL    HW233380   3.421   4.249   6.622
77183SOL     OW33381   2.540   7.102  13.727
77183SOL    HW133382   2.508   7.025  13.679
77183SOL    HW233383   2.526   7.175  13.668
77184SOL     OW33384   6.280   9.217  14.087
77184SOL    HW133385   6.249   9.280  14.152
77184SOL    HW233386   6.375   9.212  14.101
77185SOL     OW33387   0.814  13.889  12.129
77185SOL    HW133388   0.868  13.864  12.204
77185SOL    HW233389   0.737  13.833  12.135
77186SOL     OW33390   4.176  13.169   7.260
77186SOL    HW133391   4.240  13.122   7.207
77186SOL    HW233392   4.132  13.227   7.199
77187SOL     OW33393   5.669   8.371   4.776
77187SOL    HW133394   5.673   8.420   4.694
77187SOL    HW233395   5.704   8.431   4.842
77188SOL     OW33396   3.433   4.062  10.007
77188SOL    HW133397   3.500   4.130  10.014
77188SOL    HW233398   3.416   4.055   9.913
77189SOL     OW33399  10.171   5.877   7.514
77189SOL    HW133400  10.123   5.959   7.502
77189SOL    HW233401  10.249   5.902   7.564
77190SOL     OW33402  12.006   1.548  11.528
77190SOL    HW133403  12.027   1.458  11.553
77190SOL    HW233404  11.931   1.539  11.468
77191SOL     OW33405   4.302  11.928  14.362
77191SOL    HW133406   4.304  12.018  14.394
77191SOL    HW233407   4.268  11.935  14.273
77192SOL     OW33408  14.816   5.947   6.786
77192SOL    HW133409  14.770   5.871   6.752
77192SOL    HW233410   0.025   5.942   6.748
77193SOL     OW33411  14.775   2.699   0.809
77193SOL    HW133412  14.753   2.791   0.816
77193SOL    HW233413  14.788   2.684   0.715
77194SOL     OW33414  13.277  11.484   3.575
77194SOL    HW133415  13.257  11.576   3.556
77194SOL    HW233416  13.369  11.474   3.554
77195SOL     OW33417   7.387   8.190  12.373
77195SOL    HW133418   7.427   8.130  12.310
77195SOL    HW233419   7.367   8.136  12.449
77196SOL     OW33420  12.887   1.666   3.324
77196SOL    HW133421  12.981   1.665   3.308
77196SOL    HW233422  12.873   1.744   3.378
77197SOL     OW33423   4.403   0.544   5.057
77197SOL    HW133424   4.349   0.578   5.129
77197SOL    HW233425   4.470   0.611   5.044
77198SOL     OW33426   2.624   8.926   9.351
77198SOL    HW133427   2.642   8.857   9.415
77198SOL    HW233428   2.655   8.891   9.268
77199SOL     OW33429   1.095   0.285   7.749
77199SOL    HW133430   1.144   0.208   7.722
77199SOL    HW233431   1.025   0.293   7.684
77200SOL     OW33432   6.464  11.155  11.114
77200SOL    HW133433   6.492  11.223  11.175
77200SOL    HW233434   6.417  11.092  11.169
77201SOL     OW33435   1.916   9.584  10.748
77201SOL    HW133436   1.872   9.516  10.798
77201SOL    HW233437   1.989   9.611  10.803
77202SOL     OW33438   1.771   5.864   0.327
77202SOL    HW133439   1.797   5.880   0.237
77202SOL    HW233440   1.681   5.832   0.321
77203SOL     OW33441   7.904   6.183  10.133
77203SOL    HW133442   7.971   6.115  10.145
77203SOL    HW233443   7.944   6.262  10.170
77204SOL     OW33444   0.364   5.170   4.199
77204SOL    HW133445   0.397   5.248   4.154
77204SOL    HW233446   0.394   5.179   4.289
77205SOL     OW33447  11.131   3.715  10.888
77205SOL    HW133448  11.109   3.808  10.881
77205SOL    HW233449  11.096   3.676  10.808
77206SOL     OW33450  14.479  11.621  13.465
77206SOL    HW133451  14.528  11.580  13.536
77206SOL    HW233452  14.541  11.684  13.427
77207SOL     OW33453   1.769   0.459  13.995
77207SOL    HW133454   1.692   0.404  13.978
77207SOL    HW233455   1.733   0.537  14.037
77208SOL     OW33456   4.282  11.810  13.067
77208SOL    HW133457   4.328  11.750  13.008
77208SOL    HW233458   4.279  11.893  13.019
77209SOL     OW33459   2.549   5.821   9.540
77209SOL    HW133460   2.559   5.801   9.633
77209SOL    HW233461   2.463   5.864   9.534
77210SOL     OW33462  14.530   2.995  14.843
77210SOL    HW133463  14.479   2.914  14.850
77210SOL    HW233464  14.612   2.968  14.803
77211SOL     OW33465  14.161   6.296   3.399
77211SOL    HW133466  14.145   6.388   3.377
77211SOL    HW233467  14.154   6.293   3.495
77212SOL     OW33468   8.202   7.494  11.104
77212SOL    HW133469   8.166   7.566  11.052
77212SOL    HW233470   8.235   7.432  11.039
77213SOL     OW33471   8.481   1.393   8.263
77213SOL    HW133472   8.391   1.423   8.251
77213SOL    HW233473   8.482   1.349   8.348
77214SOL     OW33474   0.555   4.795   8.765
77214SOL    HW133475   0.464   4.782   8.791
77214SOL    HW233476   0.573   4.887   8.785
77215SOL     OW33477   8.523  13.966   5.961
77215SOL    HW133478   8.577  13.976   6.039
77215SOL    HW233479   8.433  13.979   5.993
77216SOL     OW33480   6.422   4.750   8.028
77216SOL    HW133481   6.417   4.698   7.948
77216SOL    HW233482   6.378   4.697   8.094
77217SOL     OW33483   8.008   8.901  14.096
77217SOL    HW133484   8.057   8.860  14.167
77217SOL    HW233485   8.074   8.948  14.046
77218SOL     OW33486   7.491  12.585   1.181
77218SOL    HW133487   7.464  12.527   1.253
77218SOL    HW233488   7.468  12.673   1.212
77219SOL     OW33489   5.335   5.818   5.854
77219SOL    HW133490   5.274   5.769   5.909
77219SOL    HW233491   5.387   5.869   5.916
77220SOL     OW33492   3.390   7.753   6.523
77220SOL    HW133493   3.455   7.815   6.556
77220SOL    HW233494   3.345   7.801   6.453
77221SOL     OW33495   0.185   7.847   7.253
77221SOL    HW133496   0.203   7.940   7.263
77221SOL    HW233497   0.229   7.823   7.171
77222SOL     OW33498   2.849   5.312   0.192
77222SOL    HW133499   2.784   5.333   0.259
77222SOL    HW233500   2.798   5.273   0.121
77223SOL     OW33501   9.963   9.241   1.191
77223SOL    HW133502   9.955   9.275   1.280
77223SOL    HW233503   9.985   9.317   1.137
77224SOL     OW33504   0.536   2.541  14.491
77224SOL    HW133505   0.557   2.553  14.584
77224SOL    HW233506   0.539   2.629  14.454
77225SOL     OW33507   4.891  10.768   5.896
77225SOL    HW133508   4.909  10.861   5.911
77225SOL    HW233509   4.871  10.762   5.803
77226SOL     OW33510   5.087   0.431   9.549
77226SOL    HW133511   5.162   0.431   9.608
77226SOL    HW233512   5.089   0.518   9.508
77227SOL     OW33513  13.893   4.132   4.462
77227SOL    HW133514  13.822   4.076   4.492
77227SOL    HW233515  13.852   4.196   4.404
77228SOL     OW33516   0.998  13.769   5.565
77228SOL    HW133517   0.940  13.743   5.493
77228SOL    HW233518   0.958  13.731   5.643
77229SOL     OW33519   0.612   6.381   2.754
77229SOL    HW133520   0.614   6.286   2.744
77229SOL    HW233521   0.676   6.414   2.691
77230SOL     OW33522  12.546   7.543   8.770
77230SOL    HW133523  12.632   7.583   8.754
77230SOL    HW233524  12.483   7.614   8.755
77231SOL     OW33525   2.751   0.277   8.869
77231SOL    HW133526   2.830   0.304   8.916
77231SOL    HW233527   2.783   0.220   8.799
77232SOL     OW33528   7.008   3.439  11.417
77232SOL    HW133529   7.050   3.387  11.349
77232SOL    HW233530   7.037   3.399  11.499
77233SOL     OW33531   3.710   3.198   8.912
77233SOL    HW133532   3.722   3.225   8.821
77233SOL    HW233533   3.695   3.279   8.960
77234SOL     OW33534   6.427  10.206   7.864
77234SOL    HW133535   6.390  10.133   7.816
77234SOL    HW233536   6.489  10.247   7.803
77235SOL     OW33537   2.576  13.019   4.854
77235SOL    HW133538   2.646  13.058   4.801
77235SOL    HW233539   2.588  12.924   4.843
77236SOL     OW33540   2.816  13.509   8.848
77236SOL    HW133541   2.828  13.421   8.813
77236SOL    HW233542   2.847  13.503   8.939
77237SOL     OW33543   4.208   2.969   3.542
77237SOL    HW133544   4.128   2.944   3.496
77237SOL    HW233545   4.205   2.920   3.624
77238SOL     OW33546  14.693  11.158  11.205
77238SOL    HW133547  14.695  11.254  11.202
77238SOL    HW233548  14.784  11.132  11.192
77239SOL     OW33549  11.441   7.173   3.524
77239SOL    HW133550  11.423   7.241   3.460
77239SOL    HW233551  11.418   7.091   3.479
77240SOL     OW33552   1.182   3.888   6.812
77240SOL    HW133553   1.138   3.811   6.775
77240SOL    HW233554   1.113   3.933   6.861
77241SOL     OW33555   6.399   4.752  14.633
77241SOL    HW133556   6.311   4.783  14.614
77241SOL    HW233557   6.454   4.791  14.565
77242SOL     OW33558   7.231   6.149  14.058
77242SOL    HW133559   7.308   6.140  14.002
77242SOL    HW233560   7.211   6.060  14.087
77243SOL     OW33561   2.050  13.075  13.934
77243SOL    HW133562   1.995  13.118  13.869
77243SOL    HW233563   2.139  13.104  13.913
77244SOL     OW33564  14.404  14.712   1.147
77244SOL    HW133565  14.360  14.638   1.106
77244SOL    HW233566  14.488  14.676   1.177
77245SOL     OW33567   4.082   1.846   9.248
77245SOL    HW133568   4.157   1.802   9.208
77245SOL    HW233569   4.047   1.782   9.310
77246SOL     OW33570   1.974   4.116   5.620
77246SOL    HW133571   1.921   4.188   5.654
77246SOL    HW233572   1.989   4.139   5.528
77247SOL     OW33573   6.602   9.473  10.389
77247SOL    HW133574   6.564   9.457  10.302
77247SOL    HW233575   6.633   9.386  10.417
77248SOL     OW33576   2.872  13.936   2.380
77248SOL    HW133577   2.925  13.888   2.317
77248SOL    HW233578   2.902  13.905   2.466
77249SOL     OW33579   2.761  14.319   4.336
77249SOL    HW133580   2.831  14.282   4.281
77249SOL    HW233581   2.736  14.247   4.394
77250SOL     OW33582   9.504  12.681  12.151
77250SOL    HW133583   9.442  12.633  12.095
77250SOL    HW233584   9.586  12.680  12.102
77251SOL     OW33585   4.552   5.363  10.049
77251SOL    HW133586   4.550   5.335  10.141
77251SOL    HW233587   4.644   5.366  10.026
77252SOL     OW33588   8.892   3.457   0.222
77252SOL    HW133589   8.798   3.445   0.225
77252SOL    HW233590   8.920   3.409   0.144
77253SOL     OW33591  14.440   6.262   1.727
77253SOL    HW133592  14.512   6.260   1.665
77253SOL    HW233593  14.390   6.340   1.705
77254SOL     OW33594   1.109   1.794   3.659
77254SOL    HW133595   1.191   1.840   3.638
77254SOL    HW233596   1.135   1.702   3.669
77255SOL     OW33597   5.113   6.626  13.729
77255SOL    HW133598   5.033   6.576  13.745
77255SOL    HW233599   5.097   6.711  13.770
77256SOL     OW33600   9.169   2.168   5.898
77256SOL    HW133601   9.093   2.207   5.943
77256SOL    HW233602   9.133   2.092   5.853
77257SOL     OW33603   7.403   7.639   5.979
77257SOL    HW133604   7.343   7.598   5.916
77257SOL    HW233605   7.366   7.726   5.992
77258SOL     OW33606  11.645   6.166  10.579
77258SOL    HW133607  11.619   6.201  10.664
77258SOL    HW233608  11.573   6.189  10.521
77259SOL     OW33609   5.579   4.884  10.334
77259SOL    HW133610   5.667   4.858  10.362
77259SOL    HW233611   5.555   4.956  10.392
77260SOL     OW33612   9.533   1.620  10.513
77260SOL    HW133613   9.573   1.618  10.601
77260SOL    HW233614   9.522   1.713  10.494
77261SOL     OW33615   2.201   2.002   1.947
77261SOL    HW133616   2.260   1.930   1.968
77261SOL    HW233617   2.113   1.964   1.958
77262SOL     OW33618   3.595  12.718   7.466
77262SOL    HW133619   3.561  12.703   7.554
77262SOL    HW233620   3.541  12.662   7.410
77263SOL     OW33621   5.306   3.722  12.219
77263SOL    HW133622   5.225   3.772  12.218
77263SOL    HW233623   5.280   3.634  12.246
77264SOL     OW33624   5.724   5.150   1.021
77264SOL    HW133625   5.660   5.188   1.081
77264SOL    HW233626   5.736   5.060   1.052
77265SOL     OW33627   3.171   2.016   1.898
77265SOL    HW133628   3.143   1.942   1.844
77265SOL    HW233629   3.263   1.998   1.918
77266SOL     OW33630  13.232  13.622  14.381
77266SOL    HW133631  13.218  13.612  14.286
77266SOL    HW233632  13.283  13.546  14.406
77267SOL     OW33633  13.077   5.873   2.713
77267SOL    HW133634  13.167   5.885   2.682
77267SOL    HW233635  13.024   5.879   2.634
77268SOL     OW33636   3.950   9.858   0.525
77268SOL    HW133637   3.936   9.855   0.430
77268SOL    HW233638   3.908   9.940   0.553
77269SOL     OW33639  12.344   3.542   7.207
77269SOL    HW133640  12.301   3.554   7.122
77269SOL    HW233641  12.389   3.625   7.222
77270SOL     OW33642  14.141   4.570   1.906
77270SOL    HW133643  14.139   4.606   1.995
77270SOL    HW233644  14.076   4.500   1.906
77271SOL     OW33645   1.441  13.803   5.398
77271SOL    HW133646   1.477  13.862   5.332
77271SOL    HW233647   1.348  13.826   5.403
77272SOL     OW33648   1.399   0.734   2.068
77272SOL    HW133649   1.342   0.675   2.118
77272SOL    HW233650   1.394   0.702   1.978
77273SOL     OW33651   5.036   1.105   1.504
77273SOL    HW133652   4.997   1.109   1.591
77273SOL    HW233653   5.080   1.190   1.493
77274SOL     OW33654   2.239   2.505   0.429
77274SOL    HW133655   2.273   2.566   0.364
77274SOL    HW233656   2.265   2.543   0.513
77275SOL     OW33657   5.838   5.266   6.929
77275SOL    HW133658   5.847   5.294   6.838
77275SOL    HW233659   5.813   5.345   6.976
77276SOL     OW33660   6.618   3.554   2.761
77276SOL    HW133661   6.713   3.556   2.775
77276SOL    HW233662   6.598   3.462   2.746
77277SOL     OW33663  10.055   7.528   7.594
77277SOL    HW133664  10.067   7.493   7.682
77277SOL    HW233665  10.120   7.483   7.540
77278SOL     OW33666   2.937   9.005   5.877
77278SOL    HW133667   3.027   9.030   5.856
77278SOL    HW233668   2.915   9.055   5.955
77279SOL     OW33669  12.523   1.965  13.914
77279SOL    HW133670  12.489   1.897  13.972
77279SOL    HW233671  12.532   1.923  13.829
77280SOL     OW33672   9.627   0.451  13.823
77280SOL    HW133673   9.568   0.466  13.750
77280SOL    HW233674   9.694   0.518  13.814
77281SOL     OW33675   5.839  14.020   0.232
77281SOL    HW133676   5.919  13.998   0.279
77281SOL    HW233677   5.815  14.107   0.264
77282SOL     OW33678   9.575   2.324   4.837
77282SOL    HW133679   9.480   2.316   4.826
77282SOL    HW233680   9.587   2.335   4.932
77283SOL     OW33681  11.272   2.260  13.881
77283SOL    HW133682  11.283   2.192  13.947
77283SOL    HW233683  11.184   2.247  13.847
77284SOL     OW33684   5.668  10.152  12.092
77284SOL    HW133685   5.735  10.214  12.062
77284SOL    HW233686   5.609  10.143  12.018
77285SOL     OW33687   1.990   2.728   4.391
77285SOL    HW133688   1.972   2.760   4.479
77285SOL    HW233689   2.064   2.781   4.361
77286SOL     OW33690   1.404   7.068   4.237
77286SOL    HW133691   1.448   7.140   4.192
77286SOL    HW233692   1.345   7.031   4.172
77287SOL     OW33693   1.103  14.661  13.421
77287SOL    HW133694   1.049  14.740  13.425
77287SOL    HW233695   1.174  14.677  13.484
77288SOL     OW33696   1.919   1.906   5.761
77288SOL    HW133697   2.012   1.884   5.761
77288SOL    HW233698   1.895   1.912   5.853
77289SOL     OW33699   2.802   7.941   4.503
77289SOL    HW133700   2.815   8.032   4.477
77289SOL    HW233701   2.813   7.891   4.422
77290SOL     OW33702  10.802  10.876  10.044
77290SOL    HW133703  10.866  10.815  10.080
77290SOL    HW233704  10.852  10.931   9.983
77291SOL     OW33705   0.092   7.974   9.910
77291SOL    HW133706   0.146   8.053   9.905
77291SOL    HW233707   0.121   7.920   9.836
77292SOL     OW33708   8.434  14.576   6.554
77292SOL    HW133709   8.369  14.538   6.614
77292SOL    HW233710   8.490  14.503   6.529
77293SOL     OW33711   8.451   5.369  11.458
77293SOL    HW133712   8.514   5.439  11.443
77293SOL    HW233713   8.503   5.298  11.496
77294SOL     OW33714   3.408   9.114   8.125
77294SOL    HW133715   3.392   9.208   8.118
77294SOL    HW233716   3.494   9.107   8.167
77295SOL     OW33717   3.530   3.429  12.260
77295SOL    HW133718   3.526   3.366  12.187
77295SOL    HW233719   3.506   3.377  12.337
77296SOL     OW33720  11.375  14.137   8.255
77296SOL    HW133721  11.294  14.169   8.215
77296SOL    HW233722  11.346  14.073   8.320
77297SOL     OW33723   6.832   3.282   0.213
77297SOL    HW133724   6.792   3.365   0.188
77297SOL    HW233725   6.850   3.292   0.307
77298SOL     OW33726  14.808  13.427  13.203
77298SOL    HW133727  14.779  13.434  13.294
77298SOL    HW233728   0.009  13.373  13.208
77299SOL     OW33729   2.103  12.039  10.297
77299SOL    HW133730   2.027  12.095  10.314
77299SOL    HW233731   2.167  12.097  10.255
77300SOL     OW33732  10.134   4.301   2.737
77300SOL    HW133733  10.067   4.369   2.726
77300SOL    HW233734  10.112   4.235   2.672
77301SOL     OW33735   3.331  12.023  13.205
77301SOL    HW133736   3.374  11.958  13.259
77301SOL    HW233737   3.395  12.094  13.196
77302SOL     OW33738   2.540   2.745   9.762
77302SOL    HW133739   2.574   2.827   9.796
77302SOL    HW233740   2.509   2.697   9.839
77303SOL     OW33741   6.866  12.040  13.136
77303SOL    HW133742   6.851  12.078  13.050
77303SOL    HW233743   6.863  11.945  13.121
77304SOL     OW33744  13.598   0.411   1.466
77304SOL    HW133745  13.624   0.492   1.423
77304SOL    HW233746  13.539   0.439   1.537
77305SOL     OW33747   0.945  13.345   0.902
77305SOL    HW133748   1.001  13.269   0.918
77305SOL    HW233749   0.875  13.337   0.966
77306SOL     OW33750   7.904   2.220   4.787
77306SOL    HW133751   7.910   2.312   4.759
77306SOL    HW233752   7.811   2.199   4.780
77307SOL     OW33753   0.866   5.863   6.963
77307SOL    HW133754   0.884   5.770   6.945
77307SOL    HW233755   0.860   5.904   6.877
77308SOL     OW33756   7.493   3.671  13.002
77308SOL    HW133757   7.443   3.593  12.977
77308SOL    HW233758   7.427   3.740  13.013
77309SOL     OW33759  10.790  10.418  14.188
77309SOL    HW133760  10.808  10.435  14.095
77309SOL    HW233761  10.726  10.347  14.188
77310SOL     OW33762  12.456  11.059  13.748
77310SOL    HW133763  12.379  11.063  13.692
77310SOL    HW233764  12.422  11.031  13.833
77311SOL     OW33765   3.044   0.824   5.508
77311SOL    HW133766   3.126   0.784   5.480
77311SOL    HW233767   3.068   0.879   5.583
77312SOL     OW33768   4.734  10.076  13.050
77312SOL    HW133769   4.647  10.108  13.074
77312SOL    HW233770   4.725  10.052  12.958
77313SOL     OW33771   4.146   8.956  10.600
77313SOL    HW133772   4.078   8.945  10.667
77313SOL    HW233773   4.180   8.868  10.586
77314SOL     OW33774  11.681   4.289   0.917
77314SOL    HW133775  11.617   4.245   0.972
77314SOL    HW233776  11.641   4.375   0.898
77315SOL     OW33777   6.913  10.535   5.992
77315SOL    HW133778   6.934  10.624   5.965
77315SOL    HW233779   6.985  10.511   6.051
77316SOL     OW33780  13.044   8.083   1.286
77316SOL    HW133781  13.138   8.064   1.278
77316SOL    HW233782  13.026   8.142   1.212
77317SOL     OW33783   3.396   7.202  12.731
77317SOL    HW133784   3.473   7.219  12.676
77317SOL    HW233785   3.363   7.117  12.701
77318SOL     OW33786  11.844   2.193  12.607
77318SOL    HW133787  11.777   2.193  12.675
77318SOL    HW233788  11.913   2.250  12.641
77319SOL     OW33789   8.340  11.382  14.593
77319SOL    HW133790   8.368  11.443  14.524
77319SOL    HW233791   8.403  11.396  14.664
77320SOL     OW33792   5.351   3.962   3.808
77320SOL    HW133793   5.287   3.958   3.879
77320SOL    HW233794   5.328   3.889   3.751
77321SOL     OW33795  14.806   1.306  13.975
77321SOL    HW133796   0.003   1.349  13.933
77321SOL    HW233797  14.745   1.291  13.903
77322SOL     OW33798   8.846   6.941  14.222
77322SOL    HW133799   8.863   7.001  14.294
77322SOL    HW233800   8.814   6.997  14.151
77323SOL     OW33801   3.656   8.949   1.302
77323SOL    HW133802   3.735   9.001   1.288
77323SOL    HW233803   3.687   8.870   1.348
77324SOL     OW33804  12.869   4.894  12.407
77324SOL    HW133805  12.780   4.922  12.429
77324SOL    HW233806  12.891   4.944  12.328
77325SOL     OW33807   2.917   0.980  11.351
77325SOL    HW133808   2.897   0.887  11.361
77325SOL    HW233809   2.996   0.982  11.296
77326SOL     OW33810  10.649   6.168   2.131
77326SOL    HW133811  10.617   6.087   2.090
77326SOL    HW233812  10.652   6.148   2.224
77327SOL     OW33813   2.759  11.387   7.033
77327SOL    HW133814   2.738  11.478   7.011
77327SOL    HW233815   2.759  11.386   7.129
77328SOL     OW33816  11.847   9.900   0.540
77328SOL    HW133817  11.788   9.899   0.465
77328SOL    HW233818  11.856   9.993   0.562
77329SOL     OW33819  10.203   2.054   8.080
77329SOL    HW133820  10.169   1.965   8.077
77329SOL    HW233821  10.152   2.097   8.149
77330SOL     OW33822   7.368   8.949   8.319
77330SOL    HW133823   7.317   8.983   8.245
77330SOL    HW233824   7.380   9.024   8.376
77331SOL     OW33825   9.625   9.451  10.633
77331SOL    HW133826   9.531   9.455  10.611
77331SOL    HW233827   9.663   9.397  10.564
77332SOL     OW33828  10.050  10.605   5.718
77332SOL    HW133829  10.126  10.641   5.763
77332SOL    HW233830  10.087  10.548   5.650
77333SOL     OW33831   4.042   5.867   5.468
77333SOL    HW133832   3.953   5.899   5.449
77333SOL    HW233833   4.094   5.893   5.392
77334SOL     OW33834  10.971   0.853  13.435
77334SOL    HW133835  10.876   0.858  13.434
77334SOL    HW233836  10.999   0.906  13.360
77335SOL     OW33837   5.923   3.489   1.996
77335SOL    HW133838   5.888   3.495   2.085
77335SOL    HW233839   5.918   3.579   1.962
77336SOL     OW33840  11.811   9.928   8.257
77336SOL    HW133841  11.888   9.985   8.256
77336SOL    HW233842  11.775   9.935   8.169
77337SOL     OW33843   2.415   2.506  13.788
77337SOL    HW133844   2.415   2.587  13.737
77337SOL    HW233845   2.506   2.478  13.789
77338SOL     OW33846   9.898   2.442  12.031
77338SOL    HW133847   9.829   2.470  12.092
77338SOL    HW233848   9.935   2.523  11.997
77339SOL     OW33849  14.537  11.780  12.835
77339SOL    HW133850  14.607  11.845  12.839
77339SOL    HW233851  14.458  11.830  12.853
77340SOL     OW33852   3.174  11.899   1.907
77340SOL    HW133853   3.177  11.970   1.842
77340SOL    HW233854   3.162  11.944   1.990
77341SOL     OW33855   3.369   7.936  10.245
77341SOL    HW133856   3.440   7.938  10.182
77341SOL    HW233857   3.306   8.002  10.213
77342SOL     OW33858  14.219   3.115  10.260
77342SOL    HW133859  14.228   3.050  10.329
77342SOL    HW233860  14.304   3.113  10.215
77343SOL     OW33861   7.528   6.069   9.254
77343SOL    HW133862   7.544   6.117   9.173
77343SOL    HW233863   7.609   6.079   9.304
77344SOL     OW33864  10.451   1.171  13.591
77344SOL    HW133865  10.377   1.166  13.653
77344SOL    HW233866  10.520   1.215  13.641
77345SOL     OW33867  13.438   5.678   9.304
77345SOL    HW133868  13.455   5.684   9.398
77345SOL    HW233869  13.490   5.603   9.275
77346SOL     OW33870   8.610   5.370   7.836
77346SOL    HW133871   8.642   5.443   7.783
77346SOL    HW233872   8.539   5.408   7.888
77347SOL     OW33873   4.951   0.840  13.358
77347SOL    HW133874   4.867   0.801  13.381
77347SOL    HW233875   4.970   0.805  13.270
77348SOL     OW33876   3.167  14.787   9.743
77348SOL    HW133877   3.143  14.875   9.715
77348SOL    HW233878   3.086  14.737   9.739
77349SOL     OW33879  12.387   0.798  14.008
77349SOL    HW133880  12.353   0.887  14.009
77349SOL    HW233881  12.457   0.799  14.074
77350SOL     OW33882   6.755   6.406   0.235
77350SOL    HW133883   6.746   6.426   0.141
77350SOL    HW233884   6.832   6.456   0.262
77351SOL     OW33885   0.786   8.672   5.300
77351SOL    HW133886   0.727   8.685   5.374
77351SOL    HW233887   0.823   8.585   5.314
77352SOL     OW33888  12.704  10.101   7.895
77352SOL    HW133889  12.693  10.047   7.974
77352SOL    HW233890  12.798  10.110   7.886
77353SOL     OW33891   1.960   3.008   3.246
77353SOL    HW133892   1.975   3.017   3.152
77353SOL    HW233893   1.867   3.025   3.257
77354SOL     OW33894   7.212   7.363   7.440
77354SOL    HW133895   7.208   7.347   7.534
77354SOL    HW233896   7.123   7.344   7.409
77355SOL     OW33897   4.655  12.163   0.617
77355SOL    HW133898   4.594  12.185   0.688
77355SOL    HW233899   4.652  12.239   0.559
77356SOL     OW33900  11.573   8.582   0.226
77356SOL    HW133901  11.573   8.534   0.143
77356SOL    HW233902  11.481   8.589   0.249
77357SOL     OW33903  12.225   9.280   8.165
77357SOL    HW133904  12.221   9.348   8.233
77357SOL    HW233905  12.184   9.204   8.206
77358SOL     OW33906  11.309   7.403  11.015
77358SOL    HW133907  11.400   7.393  10.989
77358SOL    HW233908  11.273   7.314  11.013
77359SOL     OW33909   8.862   8.644   5.032
77359SOL    HW133910   8.916   8.717   5.003
77359SOL    HW233911   8.901   8.567   4.991
77360SOL     OW33912   4.993  14.848   2.597
77360SOL    HW133913   5.081  14.834   2.632
77360SOL    HW233914   5.006  14.858   2.503
77361SOL     OW33915   9.203   4.258   6.507
77361SOL    HW133916   9.273   4.321   6.526
77361SOL    HW233917   9.240   4.173   6.527
77362SOL     OW33918  14.100   7.205   4.432
77362SOL    HW133919  14.108   7.295   4.465
77362SOL    HW233920  14.006   7.189   4.427
77363SOL     OW33921  12.833   3.493   5.845
77363SOL    HW133922  12.801   3.490   5.755
77363SOL    HW233923  12.857   3.585   5.859
77364SOL     OW33924   4.215  14.003  11.128
77364SOL    HW133925   4.275  14.032  11.197
77364SOL    HW233926   4.225  13.908  11.125
77365SOL     OW33927  10.068   2.380   4.927
77365SOL    HW133928  10.135   2.434   4.886
77365SOL    HW233929  10.091   2.290   4.902
77366SOL     OW33930   9.986   6.875   0.249
77366SOL    HW133931  10.042   6.928   0.307
77366SOL    HW233932   9.938   6.817   0.308
77367SOL     OW33933   2.838   0.498   0.208
77367SOL    HW133934   2.792   0.464   0.131
77367SOL    HW233935   2.860   0.588   0.184
77368SOL     OW33936   5.683   5.224   1.427
77368SOL    HW133937   5.760   5.207   1.481
77368SOL    HW233938   5.672   5.320   1.430
77369SOL     OW33939   0.599  12.639   7.582
77369SOL    HW133940   0.559  12.698   7.518
77369SOL    HW233941   0.627  12.563   7.530
77370SOL     OW33942  13.147  13.114   8.315
77370SOL    HW133943  13.142  13.087   8.406
77370SOL    HW233944  13.219  13.063   8.278
77371SOL     OW33945   6.460   2.575   5.274
77371SOL    HW133946   6.428   2.658   5.308
77371SOL    HW233947   6.392   2.512   5.298
77372SOL     OW33948   3.471  11.329   2.233
77372SOL    HW133949   3.402  11.263   2.224
77372SOL    HW233950   3.512  11.309   2.317
77373SOL     OW33951   0.178   1.755   5.985
77373SOL    HW133952   0.134   1.813   6.047
77373SOL    HW233953   0.149   1.667   6.009
77374SOL     OW33954   1.883   8.662  12.226
77374SOL    HW133955   1.800   8.668  12.179
77374SOL    HW233956   1.884   8.739  12.283
77375SOL     OW33957   5.034  10.163   5.037
77375SOL    HW133958   5.084  10.242   5.016
77375SOL    HW233959   4.980  10.190   5.112
77376SOL     OW33960   5.935   9.754   8.692
77376SOL    HW133961   5.903   9.793   8.611
77376SOL    HW233962   5.875   9.681   8.709
77377SOL     OW33963   8.529   5.742   5.571
77377SOL    HW133964   8.482   5.809   5.621
77377SOL    HW233965   8.460   5.695   5.525
77378SOL     OW33966   1.132   4.616   0.719
77378SOL    HW133967   1.218   4.633   0.757
77378SOL    HW233968   1.107   4.530   0.752
77379SOL     OW33969   2.488   2.521   5.715
77379SOL    HW133970   2.395   2.500   5.725
77379SOL    HW233971   2.533   2.465   5.779
77380SOL     OW33972   0.306   5.752   7.870
77380SOL    HW133973   0.239   5.814   7.899
77380SOL    HW233974   0.288   5.673   7.921
77381SOL     OW33975   0.443  11.265   1.981
77381SOL    HW133976   0.463  11.327   1.910
77381SOL    HW233977   0.528  11.236   2.012
77382SOL     OW33978  13.592   8.599   3.953
77382SOL    HW133979  13.513   8.549   3.934
77382SOL    HW233980  13.637   8.548   4.020
77383SOL     OW33981   9.078   2.770   7.076
77383SOL    HW133982   9.068   2.863   7.055
77383SOL    HW233983   9.171   2.752   7.063
77384SOL     OW33984   8.634  12.347   7.844
77384SOL    HW133985   8.663  12.256   7.849
77384SOL    HW233986   8.693  12.394   7.904
77385SOL     OW33987   6.833   8.279   0.575
77385SOL    HW133988   6.784   8.239   0.647
77385SOL    HW233989   6.914   8.309   0.615
77386SOL     OW33990   2.471   3.450   8.070
77386SOL    HW133991   2.448   3.414   8.155
77386SOL    HW233992   2.453   3.544   8.078
77387SOL     OW33993   3.490   1.697   0.017
77387SOL    HW133994   3.404   1.738   0.010
77387SOL    HW233995   3.532   1.716  14.812
77388SOL     OW33996   0.066   3.865  14.718
77388SOL    HW133997   0.089   3.889  14.808
77388SOL    HW233998   0.009   3.936  14.688
77389SOL     OW33999  12.504  12.688   7.227
77389SOL    HW134000  12.468  12.627   7.291
77389SOL    HW234001  12.593  12.705   7.259
77390SOL     OW34002   7.487   3.968  11.409
77390SOL    HW134003   7.554   4.015  11.360
77390SOL    HW234004   7.453   4.032  11.471
77391SOL     OW34005  11.942   2.270   5.854
77391SOL    HW134006  12.021   2.311   5.890
77391SOL    HW234007  11.904   2.222   5.928
77392SOL     OW34008   2.247  14.055   5.955
77392SOL    HW134009   2.261  13.984   6.018
77392SOL    HW234010   2.152  14.063   5.950
77393SOL     OW34011   7.113   4.389   0.036
77393SOL    HW134012   7.098   4.468  14.862
77393SOL    HW234013   7.105   4.419   0.127
77394SOL     OW34014  11.079   5.270   0.651
77394SOL    HW134015  11.109   5.350   0.693
77394SOL    HW234016  10.988   5.260   0.681
77395SOL     OW34017   5.425  13.293   5.825
77395SOL    HW134018   5.450  13.386   5.820
77395SOL    HW234019   5.491  13.254   5.883
77396SOL     OW34020  14.363  12.838   0.386
77396SOL    HW134021  14.402  12.862   0.301
77396SOL    HW234022  14.417  12.764   0.416
77397SOL     OW34023  14.683   9.000   7.017
77397SOL    HW134024  14.699   9.087   6.982
77397SOL    HW234025  14.675   8.944   6.939
77398SOL     OW34026   6.774   3.714   0.309
77398SOL    HW134027   6.696   3.680   0.352
77398SOL    HW234028   6.746   3.797   0.270
77399SOL     OW34029   4.411  12.292   3.679
77399SOL    HW134030   4.439  12.250   3.598
77399SOL    HW234031   4.487  12.343   3.707
77400SOL     OW34032   7.502   4.032   3.620
77400SOL    HW134033   7.586   4.048   3.578
77400SOL    HW234034   7.481   3.941   3.599
77401SOL     OW34035  11.981   3.042   7.850
77401SOL    HW134036  12.026   3.078   7.774
77401SOL    HW234037  12.036   2.969   7.878
77402SOL     OW34038   7.407   6.683   5.729
77402SOL    HW134039   7.409   6.733   5.810
77402SOL    HW234040   7.331   6.717   5.682
77403SOL     OW34041  12.763   0.368   0.615
77403SOL    HW134042  12.747   0.307   0.543
77403SOL    HW234043  12.859   0.375   0.620
77404SOL     OW34044   5.944   5.695   8.809
77404SOL    HW134045   5.897   5.626   8.855
77404SOL    HW234046   5.877   5.741   8.759
77405SOL     OW34047   2.901   2.717   1.548
77405SOL    HW134048   2.842   2.765   1.606
77405SOL    HW234049   2.953   2.785   1.505
77406SOL     OW34050   8.973  12.510  11.126
77406SOL    HW134051   9.015  12.593  11.147
77406SOL    HW234052   9.018  12.445  11.180
77407SOL     OW34053   3.003   4.013   7.164
77407SOL    HW134054   2.909   4.029   7.179
77407SOL    HW234055   3.022   4.062   7.084
77408SOL     OW34056  10.939   3.535  10.741
77408SOL    HW134057  10.971   3.445  10.742
77408SOL    HW234058  10.968   3.571  10.657
77409SOL     OW34059  14.371   0.595   4.572
77409SOL    HW134060  14.280   0.606   4.601
77409SOL    HW234061  14.422   0.654   4.628
77410SOL     OW34062   3.420   6.026   4.986
77410SOL    HW134063   3.410   6.007   4.893
77410SOL    HW234064   3.344   6.079   5.008
77411SOL     OW34065  13.410   5.650  13.274
77411SOL    HW134066  13.365   5.734  13.280
77411SOL    HW234067  13.498   5.668  13.307
77412SOL     OW34068   1.036  11.630   9.764
77412SOL    HW134069   1.055  11.629   9.670
77412SOL    HW234070   1.033  11.538   9.789
77413SOL     OW34071   6.519  14.723   9.949
77413SOL    HW134072   6.613  14.738   9.943
77413SOL    HW234073   6.499  14.665   9.875
77414SOL     OW34074   9.060  13.764   0.921
77414SOL    HW134075   9.110  13.792   0.998
77414SOL    HW234076   9.013  13.842   0.893
77415SOL     OW34077   2.656   2.064   8.826
77415SOL    HW134078   2.617   2.035   8.743
77415SOL    HW234079   2.596   2.032   8.893
77416SOL     OW34080   6.219   6.640   9.951
77416SOL    HW134081   6.198   6.680   9.867
77416SOL    HW234082   6.269   6.707   9.998
77417SOL     OW34083   5.968   3.982   2.036
77417SOL    HW134084   6.039   4.030   1.994
77417SOL    HW234085   5.983   3.995   2.130
77418SOL     OW34086   3.781  11.091   1.851
77418SOL    HW134087   3.825  11.038   1.917
77418SOL    HW234088   3.728  11.029   1.801
77419SOL     OW34089   7.339   8.051   8.364
77419SOL    HW134090   7.258   8.039   8.316
77419SOL    HW234091   7.329   8.135   8.408
77420SOL     OW34092   7.552   2.856   0.445
77420SOL    HW134093   7.626   2.795   0.448
77420SOL    HW234094   7.578   2.928   0.503
77421SOL     OW34095   1.086   7.244   6.192
77421SOL    HW134096   1.040   7.228   6.275
77421SOL    HW234097   1.038   7.317   6.152
77422SOL     OW34098   0.241   2.776   7.152
77422SOL    HW134099   0.182   2.820   7.213
77422SOL    HW234100   0.239   2.684   7.177
77423SOL     OW34101   4.165   2.591  10.373
77423SOL    HW134102   4.192   2.553  10.457
77423SOL    HW234103   4.242   2.639  10.343
77424SOL     OW34104  12.520   5.924   2.022
77424SOL    HW134105  12.432   5.892   2.005
77424SOL    HW234106  12.570   5.899   1.945
77425SOL     OW34107   5.935   8.424   6.964
77425SOL    HW134108   5.949   8.397   6.873
77425SOL    HW234109   5.919   8.342   7.011
77426SOL     OW34110   2.335   1.497   5.856
77426SOL    HW134111   2.243   1.514   5.877
77426SOL    HW234112   2.369   1.581   5.827
77427SOL     OW34113   0.159   4.089   1.118
77427SOL    HW134114   0.168   4.052   1.205
77427SOL    HW234115   0.097   4.162   1.128
77428SOL     OW34116   1.344   2.198  14.193
77428SOL    HW134117   1.289   2.121  14.177
77428SOL    HW234118   1.387   2.179  14.276
77429SOL     OW34119  11.659   8.128   1.624
77429SOL    HW134120  11.627   8.217   1.638
77429SOL    HW234121  11.754   8.134   1.634
77430SOL     OW34122   9.650   9.116   8.868
77430SOL    HW134123   9.644   9.103   8.963
77430SOL    HW234124   9.735   9.158   8.856
77431SOL     OW34125  10.422   8.484   3.576
77431SOL    HW134126  10.348   8.467   3.634
77431SOL    HW234127  10.383   8.507   3.492
77432SOL     OW34128  10.429  13.170  13.415
77432SOL    HW134129  10.349  13.218  13.438
77432SOL    HW234130  10.397  13.091  13.371
77433SOL     OW34131  11.803   6.834  10.870
77433SOL    HW134132  11.762   6.920  10.868
77433SOL    HW234133  11.780   6.794  10.786
77434SOL     OW34134   8.518  14.073   7.625
77434SOL    HW134135   8.605  14.094   7.659
77434SOL    HW234136   8.473  14.157   7.620
77435SOL     OW34137  13.542  13.828  11.659
77435SOL    HW134138  13.623  13.811  11.610
77435SOL    HW234139  13.502  13.742  11.669
77436SOL     OW34140   5.362   4.133  13.272
77436SOL    HW134141   5.453   4.154  13.292
77436SOL    HW234142   5.361   4.037  13.262
77437SOL     OW34143   1.605   9.760   8.948
77437SOL    HW134144   1.657   9.739   9.025
77437SOL    HW234145   1.666   9.802   8.888
77438SOL     OW34146   3.685   7.953   3.713
77438SOL    HW134147   3.699   7.868   3.670
77438SOL    HW234148   3.701   8.018   3.644
77439SOL     OW34149  10.860  10.116   5.741
77439SOL    HW134150  10.781  10.169   5.731
77439SOL    HW234151  10.831  10.035   5.782
77440SOL     OW34152   1.051   2.143  11.782
77440SOL    HW134153   1.086   2.057  11.761
77440SOL    HW234154   1.121   2.188  11.829
77441SOL     OW34155  14.282   1.945   5.110
77441SOL    HW134156  14.327   2.018   5.069
77441SOL    HW234157  14.204   1.983   5.150
77442SOL     OW34158   1.166   0.566   7.672
77442SOL    HW134159   1.195   0.477   7.689
77442SOL    HW234160   1.106   0.587   7.744
77443SOL     OW34161   1.056  14.385   1.641
77443SOL    HW134162   1.064  14.467   1.593
77443SOL    HW234163   1.037  14.320   1.574
77444SOL     OW34164  11.914   9.243  12.812
77444SOL    HW134165  11.892   9.252  12.905
77444SOL    HW234166  11.862   9.310  12.768
77445SOL     OW34167   4.998  11.244   8.021
77445SOL    HW134168   4.978  11.202   8.104
77445SOL    HW234169   5.052  11.180   7.974
77446SOL     OW34170   4.218  13.280  12.747
77446SOL    HW134171   4.238  13.301  12.838
77446SOL    HW234172   4.132  13.240  12.750
77447SOL     OW34173   9.866   2.932  12.786
77447SOL    HW134174   9.820   2.965  12.863
77447SOL    HW234175   9.858   2.837  12.791
77448SOL     OW34176   4.943  12.721   0.248
77448SOL    HW134177   4.945  12.681   0.335
77448SOL    HW234178   5.030  12.760   0.237
77449SOL     OW34179   8.169   8.526  12.880
77449SOL    HW134180   8.107   8.470  12.834
77449SOL    HW234181   8.233   8.466  12.918
77450SOL     OW34182   5.554  11.903   8.512
77450SOL    HW134183   5.619  11.861   8.456
77450SOL    HW234184   5.510  11.966   8.455
77451SOL     OW34185   2.061  10.758   8.796
77451SOL    HW134186   2.124  10.728   8.861
77451SOL    HW234187   2.003  10.683   8.782
77452SOL     OW34188   3.826   1.711  10.394
77452SOL    HW134189   3.867   1.778  10.449
77452SOL    HW234190   3.895   1.682  10.335
77453SOL     OW34191   7.838  10.072   2.452
77453SOL    HW134192   7.789  10.037   2.378
77453SOL    HW234193   7.785  10.050   2.529
77454SOL     OW34194   6.556   4.107  14.164
77454SOL    HW134195   6.544   4.145  14.077
77454SOL    HW234196   6.639   4.058  14.157
77455SOL     OW34197  12.922   1.117   8.404
77455SOL    HW134198  12.894   1.136   8.493
77455SOL    HW234199  12.988   1.183   8.384
77456SOL     OW34200  10.193   3.130   5.001
77456SOL    HW134201  10.196   3.086   4.916
77456SOL    HW234202  10.108   3.105   5.038
77457SOL     OW34203   3.335  14.145   0.054
77457SOL    HW134204   3.271  14.101  14.877
77457SOL    HW234205   3.391  14.192  14.871
77458SOL     OW34206   4.673  11.949  10.824
77458SOL    HW134207   4.682  11.948  10.920
77458SOL    HW234208   4.600  11.889  10.806
77459SOL     OW34209  12.999  10.041  14.816
77459SOL    HW134210  13.007  10.135  14.829
77459SOL    HW234211  12.934  10.013   0.001
77460SOL     OW34212   2.174  10.330   4.645
77460SOL    HW134213   2.105  10.264   4.647
77460SOL    HW234214   2.130  10.412   4.623
77461SOL     OW34215  11.425   2.667   3.869
77461SOL    HW134216  11.399   2.578   3.847
77461SOL    HW234217  11.456   2.705   3.787
77462SOL     OW34218   6.340   3.888  13.242
77462SOL    HW134219   6.293   3.861  13.320
77462SOL    HW234220   6.418   3.833  13.241
77463SOL     OW34221   6.053  11.012   7.319
77463SOL    HW134222   6.115  10.980   7.254
77463SOL    HW234223   6.024  11.096   7.285
77464SOL     OW34224  11.558  14.241   1.297
77464SOL    HW134225  11.489  14.287   1.346
77464SOL    HW234226  11.632  14.302   1.298
77465SOL     OW34227   0.011   0.312   9.312
77465SOL    HW134228   0.064   0.293   9.235
77465SOL    HW234229  14.835   0.234   9.324
77466SOL     OW34230   4.562   7.922   1.115
77466SOL    HW134231   4.630   7.910   1.049
77466SOL    HW234232   4.485   7.877   1.079
77467SOL     OW34233   4.209   7.873  14.693
77467SOL    HW134234   4.198   7.833  14.779
77467SOL    HW234235   4.299   7.853  14.669
77468SOL     OW34236   3.324   1.339  11.884
77468SOL    HW134237   3.252   1.400  11.868
77468SOL    HW234238   3.400   1.382  11.845
77469SOL     OW34239  10.919  10.989  10.883
77469SOL    HW134240  10.932  11.084  10.888
77469SOL    HW234241  10.861  10.977  10.808
77470SOL     OW34242  13.333   5.021  13.217
77470SOL    HW134243  13.347   4.927  13.205
77470SOL    HW234244  13.264   5.044  13.154
77471SOL     OW34245   1.521  12.918   2.303
77471SOL    HW134246   1.539  12.904   2.396
77471SOL    HW234247   1.607  12.932   2.264
77472SOL     OW34248  13.941   3.447   0.982
77472SOL    HW134249  13.906   3.376   0.929
77472SOL    HW234250  13.925   3.420   1.073
77473SOL     OW34251   3.154  11.600   8.326
77473SOL    HW134252   3.074  11.550   8.336
77473SOL    HW234253   3.144  11.647   8.243
77474SOL     OW34254   1.097  11.117   1.877
77474SOL    HW134255   1.162  11.054   1.848
77474SOL    HW234256   1.021  11.064   1.902
77475SOL     OW34257  12.072   9.208  14.226
77475SOL    HW134258  12.108   9.194  14.139
77475SOL    HW234259  12.004   9.142  14.235
77476SOL     OW34260  13.483   3.402  11.468
77476SOL    HW134261  13.487   3.325  11.525
77476SOL    HW234262  13.403   3.388  11.416
77477SOL     OW34263   2.543   4.530  12.167
77477SOL    HW134264   2.620   4.576  12.133
77477SOL    HW234265   2.472   4.593  12.157
77478SOL     OW34266   7.559   9.776   0.606
77478SOL    HW134267   7.614   9.716   0.557
77478SOL    HW234268   7.511   9.825   0.538
77479SOL     OW34269   9.357   5.034   4.430
77479SOL    HW134270   9.381   5.053   4.521
77479SOL    HW234271   9.262   5.021   4.432
77480SOL     OW34272   4.049   8.929  13.034
77480SOL    HW134273   4.136   8.935  12.994
77480SOL    HW234274   3.996   8.993  12.985
77481SOL     OW34275   3.483   6.042  14.320
77481SOL    HW134276   3.416   5.981  14.290
77481SOL    HW234277   3.548   6.043  14.250
77482SOL     OW34278   8.881   5.331  12.137
77482SOL    HW134279   8.913   5.242  12.151
77482SOL    HW234280   8.953   5.376  12.092
77483SOL     OW34281   7.215   4.434   6.989
77483SOL    HW134282   7.225   4.441   7.084
77483SOL    HW234283   7.235   4.522   6.956
77484SOL     OW34284   7.650  11.604  14.744
77484SOL    HW134285   7.671  11.565  14.660
77484SOL    HW234286   7.566  11.564  14.768
77485SOL     OW34287   4.425   7.210   2.769
77485SOL    HW134288   4.380   7.264   2.833
77485SOL    HW234289   4.513   7.199   2.805
77486SOL     OW34290  10.551  14.662  13.296
77486SOL    HW134291  10.629  14.639  13.346
77486SOL    HW234292  10.549  14.758  13.297
77487SOL     OW34293   2.838   9.806  13.317
77487SOL    HW134294   2.758   9.835  13.273
77487SOL    HW234295   2.880   9.887  13.347
77488SOL     OW34296   2.510   0.000   0.049
77488SOL    HW134297   2.581  14.830   0.008
77488SOL    HW234298   2.451   0.022  14.855
77489SOL     OW34299   2.247   3.967  12.259
77489SOL    HW134300   2.241   3.875  12.231
77489SOL    HW234301   2.335   3.994  12.234
77490SOL     OW34302   6.191   5.523  11.640
77490SOL    HW134303   6.216   5.583  11.710
77490SOL    HW234304   6.096   5.520  11.644
77491SOL     OW34305   3.587  14.842   3.598
77491SOL    HW134306   3.537  14.873   3.521
77491SOL    HW234307   3.672   0.007   3.590
77492SOL     OW34308   9.102   6.394   7.092
77492SOL    HW134309   9.037   6.453   7.053
77492SOL    HW234310   9.132   6.340   7.019
77493SOL     OW34311   4.133   5.081  13.150
77493SOL    HW134312   4.165   5.009  13.205
77493SOL    HW234313   4.131   5.157  13.207
77494SOL     OW34314  10.678  10.509   4.713
77494SOL    HW134315  10.626  10.526   4.791
77494SOL    HW234316  10.706  10.596   4.683
77495SOL     OW34317   3.976   1.519  12.482
77495SOL    HW134318   3.922   1.477  12.415
77495SOL    HW234319   4.049   1.556  12.434
77496SOL     OW34320   9.032   1.221  10.548
77496SOL    HW134321   8.963   1.210  10.613
77496SOL    HW234322   9.019   1.310  10.515
77497SOL     OW34323   4.480   6.993   5.286
77497SOL    HW134324   4.441   6.962   5.368
77497SOL    HW234325   4.530   6.918   5.253
77498SOL     OW34326   5.700  12.986   9.521
77498SOL    HW134327   5.664  12.907   9.562
77498SOL    HW234328   5.784  12.999   9.565
77499SOL     OW34329  10.977   7.844  11.518
77499SOL    HW134330  11.048   7.795  11.476
77499SOL    HW234331  10.983   7.821  11.610
77500SOL     OW34332  11.427   0.418  11.980
77500SOL    HW134333  11.484   0.393  12.053
77500SOL    HW234334  11.349   0.364  11.991
77501SOL     OW34335  10.539   2.600  11.827
77501SOL    HW134336  10.570   2.531  11.885
77501SOL    HW234337  10.482   2.555  11.764
77502SOL     OW34338   8.984   7.617   2.285
77502SOL    HW134339   8.952   7.557   2.353
77502SOL    HW234340   8.965   7.704   2.319
77503SOL     OW34341   6.473  14.655  11.383
77503SOL    HW134342   6.417  14.708  11.440
77503SOL    HW234343   6.453  14.685  11.295
77504SOL     OW34344  13.598   3.714   2.217
77504SOL    HW134345  13.542   3.638   2.234
77504SOL    HW234346  13.679   3.694   2.265
77505SOL     OW34347  10.932  12.703   7.589
77505SOL    HW134348  11.022  12.730   7.607
77505SOL    HW234349  10.910  12.644   7.661
77506SOL     OW34350   5.646  14.083  12.054
77506SOL    HW134351   5.604  14.029  12.121
77506SOL    HW234352   5.647  14.171  12.093
77507SOL     OW34353   8.192  11.745   1.747
77507SOL    HW134354   8.188  11.689   1.825
77507SOL    HW234355   8.115  11.720   1.696
77508SOL     OW34356  13.031  11.779   0.506
77508SOL    HW134357  13.008  11.686   0.505
77508SOL    HW234358  13.114  11.784   0.459
77509SOL     OW34359   0.169   7.928   5.502
77509SOL    HW134360   0.186   7.982   5.579
77509SOL    HW234361   0.125   7.851   5.536
77510SOL     OW34362   5.378  13.980   2.913
77510SOL    HW134363   5.409  13.898   2.952
77510SOL    HW234364   5.297  13.955   2.868
77511SOL     OW34365   1.996  13.537  14.475
77511SOL    HW134366   1.963  13.528  14.386
77511SOL    HW234367   2.073  13.481  14.478
77512SOL     OW34368   5.942   7.700   4.322
77512SOL    HW134369   5.938   7.778   4.268
77512SOL    HW234370   5.982   7.729   4.404
77513SOL     OW34371   4.623   3.521  11.318
77513SOL    HW134372   4.650   3.554  11.232
77513SOL    HW234373   4.530   3.504  11.309
77514SOL     OW34374   2.312   7.332   4.718
77514SOL    HW134375   2.275   7.419   4.737
77514SOL    HW234376   2.349   7.341   4.630
77515SOL     OW34377   1.632   6.151   1.780
77515SOL    HW134378   1.725   6.171   1.796
77515SOL    HW234379   1.585   6.203   1.846
77516SOL     OW34380  12.939   1.823  11.350
77516SOL    HW134381  12.906   1.803  11.438
77516SOL    HW234382  12.998   1.751  11.330
77517SOL     OW34383  13.178  13.209   4.022
77517SOL    HW134384  13.176  13.297   4.058
77517SOL    HW234385  13.186  13.221   3.927
77518SOL     OW34386  12.215   1.174  14.224
77518SOL    HW134387  12.285   1.229  14.258
77518SOL    HW234388  12.259   1.115  14.162
77519SOL     OW34389   7.540   0.708  11.236
77519SOL    HW134390   7.621   0.671  11.200
77519SOL    HW234391   7.475   0.691  11.168
77520SOL     OW34392  12.618  10.649  10.850
77520SOL    HW134393  12.562  10.719  10.883
77520SOL    HW234394  12.704  10.690  10.842
77521SOL     OW34395   5.403   6.981   3.650
77521SOL    HW134396   5.320   6.959   3.608
77521SOL    HW234397   5.405   6.925   3.728
77522SOL     OW34398   7.236  13.386  10.160
77522SOL    HW134399   7.147  13.386  10.195
77522SOL    HW234400   7.255  13.294  10.142
77523SOL     OW34401   7.097   8.612   9.719
77523SOL    HW134402   7.151   8.605   9.640
77523SOL    HW234403   7.012   8.641   9.687
77524SOL     OW34404   6.641   8.059   5.298
77524SOL    HW134405   6.688   8.044   5.381
77524SOL    HW234406   6.692   8.011   5.233
77525SOL     OW34407  11.819   4.482   2.229
77525SOL    HW134408  11.835   4.391   2.202
77525SOL    HW234409  11.790   4.526   2.150
77526SOL     OW34410   1.042  12.008   4.243
77526SOL    HW134411   1.135  12.001   4.219
77526SOL    HW234412   1.019  11.920   4.272
77527SOL     OW34413  11.703   0.548   9.641
77527SOL    HW134414  11.648   0.472   9.662
77527SOL    HW234415  11.687   0.563   9.548
77528SOL     OW34416   9.506   7.775   4.201
77528SOL    HW134417   9.472   7.807   4.117
77528SOL    HW234418   9.451   7.700   4.223
77529SOL     OW34419   5.216  14.470   0.441
77529SOL    HW134420   5.138  14.417   0.428
77529SOL    HW234421   5.215  14.532   0.367
77530SOL     OW34422   2.182   8.533   7.621
77530SOL    HW134423   2.218   8.445   7.606
77530SOL    HW234424   2.128   8.523   7.699
77531SOL     OW34425   3.928   2.243   5.946
77531SOL    HW134426   3.924   2.179   6.017
77531SOL    HW234427   3.843   2.239   5.904
77532SOL     OW34428   4.627  13.215  14.840
77532SOL    HW134429   4.675  13.200  14.759
77532SOL    HW234430   4.687  13.265   0.016
77533SOL     OW34431   9.269   5.523   4.837
77533SOL    HW134432   9.214   5.601   4.826
77533SOL    HW234433   9.346   5.555   4.883
77534SOL     OW34434   0.616  10.703   4.412
77534SOL    HW134435   0.524  10.701   4.387
77534SOL    HW234436   0.620  10.766   4.483
77535SOL     OW34437   1.395   7.858   9.740
77535SOL    HW134438   1.457   7.837   9.671
77535SOL    HW234439   1.447   7.860   9.820
77536SOL     OW34440   2.069   6.765   9.280
77536SOL    HW134441   1.989   6.817   9.271
77536SOL    HW234442   2.086   6.730   9.193
77537SOL     OW34443  11.737   3.102   5.174
77537SOL    HW134444  11.758   3.144   5.091
77537SOL    HW234445  11.738   3.008   5.154
77538SOL     OW34446   0.534  10.232   4.619
77538SOL    HW134447   0.550  10.213   4.526
77538SOL    HW234448   0.495  10.152   4.654
77539SOL     OW34449   0.374  10.499  13.762
77539SOL    HW134450   0.365  10.411  13.725
77539SOL    HW234451   0.437  10.543  13.705
77540SOL     OW34452   5.755  11.459  13.845
77540SOL    HW134453   5.808  11.390  13.804
77540SOL    HW234454   5.760  11.532  13.783
77541SOL     OW34455   7.175   1.019   7.121
77541SOL    HW134456   7.100   0.960   7.125
77541SOL    HW234457   7.251   0.961   7.116
77542SOL     OW34458   0.223   1.016   2.118
77542SOL    HW134459   0.138   0.973   2.126
77542SOL    HW234460   0.253   0.993   2.030
77543SOL     OW34461   0.568   0.951   9.507
77543SOL    HW134462   0.605   1.037   9.526
77543SOL    HW234463   0.517   0.963   9.427
77544SOL     OW34464   7.884   5.320  14.872
77544SOL    HW134465   7.789   5.327  14.872
77544SOL    HW234466   7.907   5.315  14.779
77545SOL     OW34467   1.982  14.651  14.193
77545SOL    HW134468   1.951  14.740  14.175
77545SOL    HW234469   1.906  14.596  14.174
77546SOL     OW34470  10.130   9.332   4.522
77546SOL    HW134471  10.091   9.298   4.441
77546SOL    HW234472  10.103   9.270   4.590
77547SOL     OW34473   7.593  10.808  13.560
77547SOL    HW134474   7.590  10.904  13.552
77547SOL    HW234475   7.546  10.790  13.641
77548SOL     OW34476  14.210  11.373  10.091
77548SOL    HW134477  14.145  11.438  10.120
77548SOL    HW234478  14.211  11.381   9.996
77549SOL     OW34479  12.100   4.903   3.853
77549SOL    HW134480  12.151   4.876   3.929
77549SOL    HW234481  12.021   4.850   3.857
77550SOL     OW34482   4.462   5.912   8.856
77550SOL    HW134483   4.471   5.963   8.776
77550SOL    HW234484   4.455   5.821   8.826
77551SOL     OW34485   2.394   9.891   3.863
77551SOL    HW134486   2.428   9.858   3.780
77551SOL    HW234487   2.443   9.971   3.880
77552SOL     OW34488   1.077  14.232   7.541
77552SOL    HW134489   1.038  14.145   7.551
77552SOL    HW234490   1.094  14.261   7.631
77553SOL     OW34491   4.558   4.824   5.199
77553SOL    HW134492   4.621   4.869   5.257
77553SOL    HW234493   4.561   4.874   5.118
77554SOL     OW34494   2.587   3.416   6.978
77554SOL    HW134495   2.642   3.338   6.982
77554SOL    HW234496   2.527   3.407   7.052
77555SOL     OW34497  13.062   0.923   2.673
77555SOL    HW134498  13.049   1.010   2.711
77555SOL    HW234499  13.109   0.940   2.591
77556SOL     OW34500   3.129   3.007   4.492
77556SOL    HW134501   3.129   3.052   4.577
77556SOL    HW234502   3.109   2.916   4.513
77557SOL     OW34503  10.780   2.176  10.972
77557SOL    HW134504  10.721   2.232  10.921
77557SOL    HW234505  10.757   2.192  11.063
77558SOL     OW34506   1.923   1.710   0.758
77558SOL    HW134507   1.856   1.661   0.709
77558SOL    HW234508   1.874   1.763   0.820
77559SOL     OW34509   8.449  14.609   8.288
77559SOL    HW134510   8.542  14.596   8.269
77559SOL    HW234511   8.406  14.535   8.245
77560SOL     OW34512   7.694   6.373   4.708
77560SOL    HW134513   7.734   6.406   4.788
77560SOL    HW234514   7.635   6.303   4.737
77561SOL     OW34515  10.021  11.598   8.046
77561SOL    HW134516  10.030  11.541   7.970
77561SOL    HW234517   9.998  11.538   8.118
77562SOL     OW34518  10.446  12.881   5.166
77562SOL    HW134519  10.431  12.903   5.258
77562SOL    HW234520  10.522  12.823   5.168
77563SOL     OW34521   8.785   8.957  11.888
77563SOL    HW134522   8.762   8.876  11.933
77563SOL    HW234523   8.877   8.971  11.908
77564SOL     OW34524   0.375  13.516   6.051
77564SOL    HW134525   0.393  13.551   6.138
77564SOL    HW234526   0.411  13.427   6.053
77565SOL     OW34527  12.009   1.137  14.862
77565SOL    HW134528  11.963   1.184  14.792
77565SOL    HW234529  11.992   1.045  14.844
77566SOL     OW34530   8.988   3.124   3.665
77566SOL    HW134531   8.972   3.123   3.570
77566SOL    HW234532   9.076   3.163   3.673
77567SOL     OW34533   1.278   6.314   6.470
77567SOL    HW134534   1.254   6.395   6.515
77567SOL    HW234535   1.366   6.329   6.437
77568SOL     OW34536  13.066  13.897   6.567
77568SOL    HW134537  12.980  13.857   6.579
77568SOL    HW234538  13.119  13.828   6.526
77569SOL     OW34539  14.186   1.334   5.401
77569SOL    HW134540  14.100   1.294   5.405
77569SOL    HW234541  14.196   1.363   5.311
77570SOL     OW34542   4.006   9.586   8.838
77570SOL    HW134543   3.934   9.642   8.809
77570SOL    HW234544   3.989   9.571   8.931
77571SOL     OW34545   1.953  11.278  10.803
77571SOL    HW134546   1.951  11.201  10.860
77571SOL    HW234547   1.902  11.253  10.727
77572SOL     OW34548   8.013   8.080  13.851
77572SOL    HW134549   7.924   8.070  13.817
77572SOL    HW234550   8.008   8.158  13.906
77573SOL     OW34551  11.965   0.994  11.723
77573SOL    HW134552  11.956   0.902  11.748
77573SOL    HW234553  11.938   0.997  11.632
77574SOL     OW34554  12.914   2.015   1.985
77574SOL    HW134555  12.944   2.105   1.974
77574SOL    HW234556  12.989   1.968   2.021
77575SOL     OW34557   7.646   4.299   5.503
77575SOL    HW134558   7.692   4.228   5.548
77575SOL    HW234559   7.576   4.325   5.563
77576SOL     OW34560   7.101  11.808   2.946
77576SOL    HW134561   7.027  11.785   3.003
77576SOL    HW234562   7.167  11.741   2.966
77577SOL     OW34563  13.192  10.909   4.029
77577SOL    HW134564  13.157  10.986   4.075
77577SOL    HW234565  13.218  10.849   4.099
77578SOL     OW34566  12.167  14.362   8.120
77578SOL    HW134567  12.129  14.291   8.172
77578SOL    HW234568  12.092  14.401   8.075
77579SOL     OW34569   5.534   0.837   7.906
77579SOL    HW134570   5.528   0.925   7.942
77579SOL    HW234571   5.491   0.842   7.821
77580SOL     OW34572   7.038   7.819   4.696
77580SOL    HW134573   7.060   7.859   4.612
77580SOL    HW234574   6.980   7.746   4.673
77581SOL     OW34575   5.739  14.210   9.918
77581SOL    HW134576   5.766  14.302   9.926
77581SOL    HW234577   5.656  14.205   9.964
77582SOL     OW34578  10.236  10.879   4.397
77582SOL    HW134579  10.303  10.932   4.441
77582SOL    HW234580  10.280  10.796   4.379
77583SOL     OW34581   4.043   0.656   4.358
77583SOL    HW134582   4.031   0.561   4.367
77583SOL    HW234583   4.040   0.671   4.263
77584SOL     OW34584   6.869   7.068  13.390
77584SOL    HW134585   6.776   7.079  13.412
77584SOL    HW234586   6.913   7.062  13.475
77585SOL     OW34587  14.775   2.198  13.653
77585SOL    HW134588  14.748   2.256  13.582
77585SOL    HW234589  14.734   2.236  13.731
77586SOL     OW34590  11.484   2.405   5.315
77586SOL    HW134591  11.576   2.404   5.289
77586SOL    HW234592  11.437   2.376   5.237
77587SOL     OW34593   6.280   7.622  11.886
77587SOL    HW134594   6.193   7.634  11.925
77587SOL    HW234595   6.300   7.706  11.845
77588SOL     OW34596  14.861  10.810  13.616
77588SOL    HW134597  14.865  10.719  13.644
77588SOL    HW234598  14.849  10.860  13.697
77589SOL     OW34599   5.917  11.274  13.751
77589SOL    HW134600   5.889  11.198  13.700
77589SOL    HW234601   5.983  11.317  13.697
77590SOL     OW34602   4.026  14.820   1.986
77590SOL    HW134603   3.954  14.840   1.926
77590SOL    HW234604   4.050   0.025   2.024
77591SOL     OW34605   7.703   3.064   9.276
77591SOL    HW134606   7.635   3.089   9.213
77591SOL    HW234607   7.716   2.970   9.261
77592SOL     OW34608   0.779   2.005   9.582
77592SOL    HW134609   0.707   2.056   9.620
77592SOL    HW234610   0.830   2.069   9.532
77593SOL     OW34611   8.439   2.744  11.047
77593SOL    HW134612   8.439   2.839  11.051
77593SOL    HW234613   8.357   2.721  11.003
77594SOL     OW34614   9.136   3.081  11.718
77594SOL    HW134615   9.161   3.013  11.655
77594SOL    HW234616   9.177   3.161  11.686
77595SOL     OW34617   2.969   9.778   6.871
77595SOL    HW134618   2.938   9.795   6.960
77595SOL    HW234619   2.901   9.724   6.832
77596SOL     OW34620   3.321   4.288   5.038
77596SOL    HW134621   3.326   4.291   5.133
77596SOL    HW234622   3.289   4.375   5.013
77597SOL     OW34623  14.465   7.402  11.253
77597SOL    HW134624  14.395   7.453  11.212
77597SOL    HW234625  14.418   7.337  11.307
77598SOL     OW34626   2.299   1.114  14.509
77598SOL    HW134627   2.341   1.029  14.525
77598SOL    HW234628   2.315   1.164  14.590
77599SOL     OW34629   6.899   6.754   7.651
77599SOL    HW134630   6.892   6.809   7.573
77599SOL    HW234631   6.960   6.801   7.708
77600SOL     OW34632  12.271   1.929   1.470
77600SOL    HW134633  12.329   1.854   1.479
77600SOL    HW234634  12.200   1.913   1.533
77601SOL     OW34635  12.945  10.071   9.192
77601SOL    HW134636  12.976  10.117   9.114
77601SOL    HW234637  12.879  10.011   9.159
77602SOL     OW34638  14.073   5.483  12.764
77602SOL    HW134639  14.077   5.557  12.825
77602SOL    HW234640  14.147   5.427  12.790
77603SOL     OW34641   4.107   6.934   9.152
77603SOL    HW134642   4.131   6.846   9.181
77603SOL    HW234643   4.100   6.986   9.232
77604SOL     OW34644   8.267  13.925   2.407
77604SOL    HW134645   8.300  14.014   2.424
77604SOL    HW234646   8.345  13.877   2.378
77605SOL     OW34647  12.693   3.592   7.757
77605SOL    HW134648  12.781   3.580   7.722
77605SOL    HW234649  12.659   3.504   7.768
77606SOL     OW34650  13.316   3.532   3.365
77606SOL    HW134651  13.308   3.532   3.269
77606SOL    HW234652  13.231   3.500   3.395
77607SOL     OW34653  13.101   9.226   7.420
77607SOL    HW134654  13.188   9.190   7.440
77607SOL    HW234655  13.119   9.313   7.383
77608SOL     OW34656   9.487   9.098  13.042
77608SOL    HW134657   9.430   9.053  13.104
77608SOL    HW234658   9.518   9.175  13.090
77609SOL     OW34659  12.966   3.889  11.015
77609SOL    HW134660  12.879   3.904  11.052
77609SOL    HW234661  12.994   3.806  11.053
77610SOL     OW34662  12.685   1.799   0.581
77610SOL    HW134663  12.716   1.888   0.594
77610SOL    HW234664  12.602   1.809   0.535
77611SOL     OW34665   7.691   5.965   3.992
77611SOL    HW134666   7.627   5.997   3.928
77611SOL    HW234667   7.737   5.894   3.947
77612SOL     OW34668  13.976   6.408  14.859
77612SOL    HW134669  14.001   6.404   0.073
77612SOL    HW234670  14.005   6.495  14.831
77613SOL     OW34671   0.045   6.511   9.478
77613SOL    HW134672   0.017   6.473   9.561
77613SOL    HW234673  14.872   6.464   9.412
77614SOL     OW34674   5.864   9.430   1.337
77614SOL    HW134675   5.816   9.388   1.409
77614SOL    HW234676   5.914   9.359   1.298
77615SOL     OW34677   9.122   4.051   8.727
77615SOL    HW134678   9.209   4.080   8.754
77615SOL    HW234679   9.063   4.121   8.755
77616SOL     OW34680  11.654   4.424   3.168
77616SOL    HW134681  11.617   4.377   3.244
77616SOL    HW234682  11.579   4.438   3.110
77617SOL     OW34683   6.604   1.757   8.665
77617SOL    HW134684   6.669   1.686   8.662
77617SOL    HW234685   6.609   1.798   8.579
77618SOL     OW34686   5.367  14.490  10.793
77618SOL    HW134687   5.441  14.544  10.820
77618SOL    HW234688   5.358  14.506  10.699
77619SOL     OW34689   4.817  11.549   3.715
77619SOL    HW134690   4.911  11.567   3.721
77619SOL    HW234691   4.783  11.616   3.657
77620SOL     OW34692   2.620   1.830  11.194
77620SOL    HW134693   2.538   1.876  11.207
77620SOL    HW234694   2.688   1.898  11.201
77621SOL     OW34695   4.751   2.467   4.698
77621SOL    HW134696   4.832   2.500   4.737
77621SOL    HW234697   4.779   2.420   4.620
77622SOL     OW34698   8.499   2.887   8.894
77622SOL    HW134699   8.452   2.832   8.958
77622SOL    HW234700   8.509   2.830   8.817
77623SOL     OW34701  14.501   9.870   7.752
77623SOL    HW134702  14.563   9.797   7.743
77623SOL    HW234703  14.441   9.859   7.678
77624SOL     OW34704   8.498   8.989  10.398
77624SOL    HW134705   8.425   9.009  10.457
77624SOL    HW234706   8.540   8.913  10.438
77625SOL     OW34707   5.271  12.196  10.784
77625SOL    HW134708   5.364  12.212  10.799
77625SOL    HW234709   5.231  12.201  10.870
77626SOL     OW34710   7.448   2.206   9.857
77626SOL    HW134711   7.453   2.223   9.763
77626SOL    HW234712   7.539   2.207   9.887
77627SOL     OW34713   3.287  12.332   7.708
77627SOL    HW134714   3.255  12.345   7.619
77627SOL    HW234715   3.236  12.257   7.740
77628SOL     OW34716   9.046  11.320   5.557
77628SOL    HW134717   8.996  11.401   5.560
77628SOL    HW234718   8.981  11.250   5.566
77629SOL     OW34719   2.832   1.577  12.940
77629SOL    HW134720   2.923   1.556  12.920
77629SOL    HW234721   2.799   1.618  12.860
77630SOL     OW34722   1.103  12.707   0.573
77630SOL    HW134723   1.101  12.788   0.522
77630SOL    HW234724   1.107  12.638   0.506
77631SOL     OW34725   3.122   4.164  12.534
77631SOL    HW134726   3.058   4.100  12.502
77631SOL    HW234727   3.156   4.125  12.615
77632SOL     OW34728   5.599  11.929  11.923
77632SOL    HW134729   5.610  11.957  12.014
77632SOL    HW234730   5.621  12.007  11.871
77633SOL     OW34731  13.126  14.209  12.792
77633SOL    HW134732  13.097  14.137  12.736
77633SOL    HW234733  13.124  14.173  12.881
77634SOL     OW34734  14.084  13.349  13.559
77634SOL    HW134735  14.138  13.420  13.593
77634SOL    HW234736  14.126  13.326  13.476
77635SOL     OW34737   2.346   2.711   4.164
77635SOL    HW134738   2.319   2.781   4.104
77635SOL    HW234739   2.442   2.714   4.161
77636SOL     OW34740  13.710   4.906  13.004
77636SOL    HW134741  13.799   4.930  13.032
77636SOL    HW234742  13.670   4.868  13.083
77637SOL     OW34743   1.586   7.291  11.102
77637SOL    HW134744   1.554   7.380  11.091
77637SOL    HW234745   1.593   7.257  11.013
77638SOL     OW34746   3.135   5.878  14.868
77638SOL    HW134747   3.210   5.875  14.809
77638SOL    HW234748   3.082   5.951  14.837
77639SOL     OW34749   1.252  11.540   6.272
77639SOL    HW134750   1.241  11.475   6.203
77639SOL    HW234751   1.181  11.521   6.334
77640SOL     OW34752   6.272   7.156   1.313
77640SOL    HW134753   6.207   7.090   1.291
77640SOL    HW234754   6.222   7.230   1.346
77641SOL     OW34755  12.795   4.053   5.793
77641SOL    HW134756  12.827   4.101   5.870
77641SOL    HW234757  12.702   4.076   5.787
77642SOL     OW34758   2.745   7.828   7.679
77642SOL    HW134759   2.780   7.800   7.594
77642SOL    HW234760   2.764   7.921   7.683
77643SOL     OW34761   3.604   3.039  11.869
77643SOL    HW134762   3.581   2.994  11.788
77643SOL    HW234763   3.684   3.088  11.847
77644SOL     OW34764   7.634   1.828  10.697
77644SOL    HW134765   7.582   1.869  10.766
77644SOL    HW234766   7.716   1.805  10.740
77645SOL     OW34767   1.217  10.880   6.216
77645SOL    HW134768   1.184  10.896   6.305
77645SOL    HW234769   1.262  10.795   6.223
77646SOL     OW34770   3.899   0.751   5.336
77646SOL    HW134771   3.815   0.737   5.380
77646SOL    HW234772   3.957   0.783   5.405
77647SOL     OW34773  14.222   1.910  12.642
77647SOL    HW134774  14.258   1.999  12.636
77647SOL    HW234775  14.168   1.901  12.563
77648SOL     OW34776   2.369   1.853   8.730
77648SOL    HW134777   2.400   1.883   8.815
77648SOL    HW234778   2.436   1.882   8.668
77649SOL     OW34779   8.379  12.778   7.514
77649SOL    HW134780   8.320  12.743   7.581
77649SOL    HW234781   8.462  12.790   7.560
77650SOL     OW34782  11.128  11.949  14.702
77650SOL    HW134783  11.139  12.001  14.623
77650SOL    HW234784  11.077  11.873  14.674
77651SOL     OW34785   3.544   8.496   6.608
77651SOL    HW134786   3.593   8.544   6.675
77651SOL    HW234787   3.575   8.533   6.525
77652SOL     OW34788  12.627   6.159   8.813
77652SOL    HW134789  12.714   6.134   8.781
77652SOL    HW234790  12.613   6.102   8.889
77653SOL     OW34791   9.451  14.444  12.160
77653SOL    HW134792   9.483  14.392  12.086
77653SOL    HW234793   9.464  14.388  12.236
77654SOL     OW34794   9.386   1.911   1.654
77654SOL    HW134795   9.434   1.828   1.663
77654SOL    HW234796   9.306   1.898   1.706
77655SOL     OW34797  11.848   8.511   3.076
77655SOL    HW134798  11.911   8.479   3.011
77655SOL    HW234799  11.780   8.554   3.025
77656SOL     OW34800   3.407  12.616   5.161
77656SOL    HW134801   3.398  12.524   5.135
77656SOL    HW234802   3.319  12.642   5.189
77657SOL     OW34803   3.068  13.327   3.286
77657SOL    HW134804   3.023  13.254   3.244
77657SOL    HW234805   3.150  13.290   3.317
77658SOL     OW34806   6.375  11.593   3.423
77658SOL    HW134807   6.433  11.551   3.359
77658SOL    HW234808   6.329  11.520   3.464
77659SOL     OW34809   1.187   3.010   7.165
77659SOL    HW134810   1.146   3.086   7.123
77659SOL    HW234811   1.115   2.966   7.210
77660SOL     OW34812   0.110   3.699  12.452
77660SOL    HW134813   0.063   3.621  12.423
77660SOL    HW234814   0.195   3.667  12.481
77661SOL     OW34815  11.384   1.066  10.902
77661SOL    HW134816  11.356   1.152  10.870
77661SOL    HW234817  11.311   1.008  10.883
77662SOL     OW34818  10.995   0.560   0.765
77662SOL    HW134819  11.019   0.628   0.829
77662SOL    HW234820  11.003   0.478   0.814
77663SOL     OW34821   8.559  14.679  14.004
77663SOL    HW134822   8.627  14.647  13.945
77663SOL    HW234823   8.496  14.723  13.946
77664SOL     OW34824   9.181  11.435  11.333
77664SOL    HW134825   9.175  11.505  11.398
77664SOL    HW234826   9.091  11.424  11.301
77665SOL     OW34827   9.819   4.519  11.840
77665SOL    HW134828   9.829   4.424  11.835
77665SOL    HW234829   9.899   4.549  11.882
77666SOL     OW34830   4.853  12.956  10.923
77666SOL    HW134831   4.929  12.907  10.889
77666SOL    HW234832   4.847  13.032  10.866
77667SOL     OW34833  14.195   2.146  10.116
77667SOL    HW134834  14.115   2.169  10.164
77667SOL    HW234835  14.207   2.052  10.133
77668SOL     OW34836   3.542   1.929   7.887
77668SOL    HW134837   3.453   1.908   7.859
77668SOL    HW234838   3.597   1.867   7.841
77669SOL     OW34839   5.606  14.626   0.287
77669SOL    HW134840   5.542  14.629   0.216
77669SOL    HW234841   5.565  14.571   0.353
77670SOL     OW34842   0.033   4.290  14.549
77670SOL    HW134843   0.000   4.203  14.530
77670SOL    HW234844  14.834   4.343  14.562
77671SOL     OW34845   1.159   3.379   1.165
77671SOL    HW134846   1.116   3.373   1.080
77671SOL    HW234847   1.089   3.399   1.226
77672SOL     OW34848  11.202   8.849   7.546
77672SOL    HW134849  11.153   8.886   7.471
77672SOL    HW234850  11.287   8.826   7.510
77673SOL     OW34851   6.797  13.872   1.184
77673SOL    HW134852   6.856  13.859   1.258
77673SOL    HW234853   6.767  13.963   1.192
77674SOL     OW34854   4.920   0.940  12.133
77674SOL    HW134855   4.993   0.918  12.076
77674SOL    HW234856   4.885   0.856  12.162
77675SOL     OW34857   8.028   6.670  10.147
77675SOL    HW134858   7.970   6.747  10.149
77675SOL    HW234859   8.115   6.706  10.165
77676SOL     OW34860  14.623  10.393   9.274
77676SOL    HW134861  14.630  10.297   9.276
77676SOL    HW234862  14.557  10.413   9.341
77677SOL     OW34863   1.385  12.774  13.781
77677SOL    HW134864   1.398  12.737  13.693
77677SOL    HW234865   1.456  12.837  13.791
77678SOL     OW34866   0.088  13.440   7.030
77678SOL    HW134867   0.043  13.524   7.033
77678SOL    HW234868   0.023  13.378   6.996
77679SOL     OW34869   5.388   7.939  13.550
77679SOL    HW134870   5.318   7.922  13.614
77679SOL    HW234871   5.357   8.016  13.502
77680SOL     OW34872   0.400   0.032   6.723
77680SOL    HW134873   0.375  14.868   6.641
77680SOL    HW234874   0.495   0.039   6.718
77681SOL     OW34875   5.136   5.552   1.583
77681SOL    HW134876   5.106   5.632   1.627
77681SOL    HW234877   5.124   5.483   1.648
77682SOL     OW34878  14.071   4.772  12.672
77682SOL    HW134879  13.995   4.827  12.650
77682SOL    HW234880  14.124   4.773  12.593
77683SOL     OW34881   1.343  12.616  12.900
77683SOL    HW134882   1.337  12.550  12.969
77683SOL    HW234883   1.428  12.659  12.915
77684SOL     OW34884   8.542   4.204   4.252
77684SOL    HW134885   8.525   4.173   4.163
77684SOL    HW234886   8.595   4.135   4.291
77685SOL     OW34887  13.771  10.482   3.735
77685SOL    HW134888  13.828  10.483   3.812
77685SOL    HW234889  13.717  10.561   3.744
77686SOL     OW34890   2.661   7.772   5.607
77686SOL    HW134891   2.615   7.744   5.528
77686SOL    HW234892   2.644   7.703   5.671
77687SOL     OW34893   2.249   0.159   0.850
77687SOL    HW134894   2.299   0.180   0.770
77687SOL    HW234895   2.180   0.100   0.820
77688SOL     OW34896  10.623   6.347   0.511
77688SOL    HW134897  10.715   6.323   0.524
77688SOL    HW234898  10.598   6.304   0.429
77689SOL     OW34899  12.767   2.103   2.971
77689SOL    HW134900  12.835   2.036   2.956
77689SOL    HW234901  12.693   2.075   2.917
77690SOL     OW34902   9.951   3.392  13.870
77690SOL    HW134903   9.864   3.392  13.910
77690SOL    HW234904  10.011   3.408  13.944
77691SOL     OW34905   7.290   8.589   9.498
77691SOL    HW134906   7.378   8.624   9.515
77691SOL    HW234907   7.305   8.501   9.463
77692SOL     OW34908  14.048   9.958   2.658
77692SOL    HW134909  13.979   9.986   2.718
77692SOL    HW234910  14.105  10.035   2.649
77693SOL     OW34911   9.569  14.380   7.933
77693SOL    HW134912   9.489  14.354   7.886
77693SOL    HW234913   9.637  14.322   7.899
77694SOL     OW34914   2.603   6.924  10.181
77694SOL    HW134915   2.634   6.973  10.105
77694SOL    HW234916   2.590   6.990  10.249
77695SOL     OW34917   1.988   2.972   3.796
77695SOL    HW134918   1.988   3.039   3.727
77695SOL    HW234919   1.898   2.972   3.830
77696SOL     OW34920  12.395   9.329   5.262
77696SOL    HW134921  12.460   9.259   5.255
77696SOL    HW234922  12.312   9.287   5.237
77697SOL     OW34923   3.249   6.908   7.983
77697SOL    HW134924   3.224   6.924   8.074
77697SOL    HW234925   3.275   6.994   7.950
77698SOL     OW34926   3.261   5.406   6.347
77698SOL    HW134927   3.208   5.326   6.354
77698SOL    HW234928   3.211   5.463   6.290
77699SOL     OW34929  14.099   5.863   3.219
77699SOL    HW134930  14.180   5.893   3.260
77699SOL    HW234931  14.036   5.933   3.235
77700SOL     OW34932   4.884   0.135   5.116
77700SOL    HW134933   4.837   0.217   5.132
77700SOL    HW234934   4.968   0.148   5.161
77701SOL     OW34935   2.708   3.368   1.629
77701SOL    HW134936   2.788   3.419   1.621
77701SOL    HW234937   2.653   3.398   1.558
77702SOL     OW34938  12.943   7.484   1.759
77702SOL    HW134939  12.886   7.455   1.830
77702SOL    HW234940  12.929   7.578   1.754
77703SOL     OW34941  11.833  11.658   9.772
77703SOL    HW134942  11.790  11.661   9.858
77703SOL    HW234943  11.926  11.661   9.792
77704SOL     OW34944   8.656   6.071  11.229
77704SOL    HW134945   8.719   6.135  11.199
77704SOL    HW234946   8.695   5.986  11.206
77705SOL     OW34947   6.909  13.397  11.777
77705SOL    HW134948   6.935  13.317  11.731
77705SOL    HW234949   6.815  13.403  11.763
77706SOL     OW34950  14.018   0.553   5.563
77706SOL    HW134951  14.075   0.615   5.608
77706SOL    HW234952  13.970   0.607   5.500
77707SOL     OW34953   8.623   1.972  11.049
77707SOL    HW134954   8.716   1.995  11.054
77707SOL    HW234955   8.583   2.045  11.002
77708SOL     OW34956   0.513   4.227   2.632
77708SOL    HW134957   0.523   4.224   2.537
77708SOL    HW234958   0.602   4.240   2.664
77709SOL     OW34959   8.002  12.304   2.550
77709SOL    HW134960   7.942  12.259   2.490
77709SOL    HW234961   7.945  12.357   2.605
77710SOL     OW34962   6.036   0.336   6.926
77710SOL    HW134963   5.968   0.271   6.907
77710SOL    HW234964   6.079   0.352   6.842
77711SOL     OW34965   2.102  10.734   5.014
77711SOL    HW134966   2.140  10.720   4.928
77711SOL    HW234967   2.072  10.825   5.013
77712SOL     OW34968  12.637  14.170   0.159
77712SOL    HW134969  12.687  14.249   0.141
77712SOL    HW234970  12.680  14.102   0.107
77713SOL     OW34971   0.186  11.549   8.938
77713SOL    HW134972   0.274  11.532   8.974
77713SOL    HW234973   0.193  11.524   8.846
77714SOL     OW34974   5.560   6.238  10.189
77714SOL    HW134975   5.647   6.263  10.159
77714SOL    HW234976   5.507   6.232  10.110
77715SOL     OW34977   6.724   9.540   9.125
77715SOL    HW134978   6.789   9.539   9.195
77715SOL    HW234979   6.640   9.539   9.171
77716SOL     OW34980  10.847   3.095  10.627
77716SOL    HW134981  10.832   3.012  10.583
77716SOL    HW234982  10.901   3.073  10.703
77717SOL     OW34983   0.017  13.056  12.389
77717SOL    HW134984   0.038  12.973  12.347
77717SOL    HW234985   0.093  13.076  12.443
77718SOL     OW34986   0.898   7.170  10.886
77718SOL    HW134987   0.968   7.107  10.901
77718SOL    HW234988   0.849   7.133  10.812
77719SOL     OW34989  12.469   1.135  10.819
77719SOL    HW134990  12.427   1.130  10.733
77719SOL    HW234991  12.443   1.221  10.853
77720SOL     OW34992  13.372   0.633  13.278
77720SOL    HW134993  13.369   0.681  13.195
77720SOL    HW234994  13.295   0.575  13.275
77721SOL     OW34995   8.328   4.014   9.154
77721SOL    HW134996   8.340   4.075   9.226
77721SOL    HW234997   8.416   4.004   9.116
77722SOL     OW34998   5.706  11.979   6.061
77722SOL    HW134999   5.777  12.031   6.099
77722SOL    HW235000   5.724  11.981   5.967
77723SOL     OW35001  14.585   5.205   8.983
77723SOL    HW135002  14.581   5.278   8.921
77723SOL    HW235003  14.542   5.239   9.062
77724SOL     OW35004   2.558  11.273   9.771
77724SOL    HW135005   2.528  11.362   9.753
77724SOL    HW235006   2.643  11.266   9.727
77725SOL     OW35007  13.744  14.618  11.296
77725SOL    HW135008  13.791  14.541  11.327
77725SOL    HW235009  13.806  14.690  11.304
77726SOL     OW35010   6.933  13.470   7.745
77726SOL    HW135011   6.894  13.397   7.696
77726SOL    HW235012   6.970  13.527   7.677
77727SOL     OW35013   8.852   0.933  13.421
77727SOL    HW135014   8.768   0.893  13.445
77727SOL    HW235015   8.844   1.024  13.451
77728SOL     OW35016   5.696   6.269   2.535
77728SOL    HW135017   5.733   6.353   2.508
77728SOL    HW235018   5.647   6.239   2.459
77729SOL     OW35019   6.596   8.354   7.750
77729SOL    HW135020   6.550   8.427   7.708
77729SOL    HW235021   6.622   8.298   7.678
77730SOL     OW35022   9.785  13.759   6.546
77730SOL    HW135023   9.870  13.748   6.503
77730SOL    HW235024   9.723  13.768   6.474
77731SOL     OW35025  12.817   1.087   5.217
77731SOL    HW135026  12.809   1.127   5.130
77731SOL    HW235027  12.883   1.140   5.262
77732SOL     OW35028   3.190   7.527  14.813
77732SOL    HW135029   3.241   7.607  14.803
77732SOL    HW235030   3.236   7.477   0.001
77733SOL     OW35031   1.276   0.802   1.364
77733SOL    HW135032   1.328   0.810   1.443
77733SOL    HW235033   1.339   0.782   1.295
77734SOL     OW35034   5.218  14.201  12.219
77734SOL    HW135035   5.162  14.144  12.273
77734SOL    HW235036   5.165  14.218  12.141
77735SOL     OW35037   4.681   9.166   6.195
77735SOL    HW135038   4.596   9.123   6.207
77735SOL    HW235039   4.658   9.253   6.161
77736SOL     OW35040   5.799   3.228   3.366
77736SOL    HW135041   5.756   3.194   3.287
77736SOL    HW235042   5.872   3.168   3.382
77737SOL     OW35043   7.065  11.824   6.597
77737SOL    HW135044   6.980  11.822   6.640
77737SOL    HW235045   7.095  11.733   6.599
77738SOL     OW35046   2.082   7.967   9.293
77738SOL    HW135047   2.020   8.039   9.283
77738SOL    HW235048   2.121   7.956   9.207
77739SOL     OW35049   0.959   1.297   8.814
77739SOL    HW135050   0.870   1.292   8.851
77739SOL    HW235051   0.991   1.206   8.816
77740SOL     OW35052  14.577   2.481   7.405
77740SOL    HW135053  14.661   2.492   7.360
77740SOL    HW235054  14.544   2.396   7.373
77741SOL     OW35055   0.138  11.438   1.845
77741SOL    HW135056   0.234  11.443   1.842
77741SOL    HW235057   0.117  11.356   1.802
77742SOL     OW35058  12.477   2.736  14.438
77742SOL    HW135059  12.531   2.664  14.469
77742SOL    HW235060  12.483   2.732  14.343
77743SOL     OW35061  13.591  12.373   4.243
77743SOL    HW135062  13.601  12.325   4.326
77743SOL    HW235063  13.677  12.369   4.202
77744SOL     OW35064   0.363   7.139   9.403
77744SOL    HW135065   0.351   7.065   9.462
77744SOL    HW235066   0.315   7.211   9.444
77745SOL     OW35067   9.200   2.029   7.981
77745SOL    HW135068   9.190   2.008   7.888
77745SOL    HW235069   9.290   2.060   7.989
77746SOL     OW35070   2.917  13.260   7.253
77746SOL    HW135071   2.998  13.213   7.232
77746SOL    HW235072   2.939  13.311   7.331
77747SOL     OW35073   9.579   0.679   6.051
77747SOL    HW135074   9.491   0.698   6.019
77747SOL    HW235075   9.579   0.711   6.142
77748SOL     OW35076   3.196   1.962   2.781
77748SOL    HW135077   3.153   1.901   2.721
77748SOL    HW235078   3.131   2.031   2.795
77749SOL     OW35079   3.271  12.084   5.633
77749SOL    HW135080   3.212  12.122   5.698
77749SOL    HW235081   3.346  12.143   5.630
77750SOL     OW35082   4.904   2.930   7.353
77750SOL    HW135083   4.929   2.840   7.373
77750SOL    HW235084   4.977   2.963   7.300
77751SOL     OW35085   0.967  11.159   3.208
77751SOL    HW135086   0.883  11.124   3.177
77751SOL    HW235087   0.949  11.252   3.226
77752SOL     OW35088  10.604   8.119   2.269
77752SOL    HW135089  10.628   8.034   2.307
77752SOL    HW235090  10.682   8.148   2.223
77753SOL     OW35091   9.302  12.086   6.303
77753SOL    HW135092   9.378  12.085   6.245
77753SOL    HW235093   9.233  12.043   6.252
77754SOL     OW35094  11.844   0.663   2.440
77754SOL    HW135095  11.773   0.724   2.460
77754SOL    HW235096  11.915   0.719   2.409
77755SOL     OW35097  14.253   4.159   6.619
77755SOL    HW135098  14.255   4.116   6.533
77755SOL    HW235099  14.295   4.244   6.603
77756SOL     OW35100   3.083  13.382   5.421
77756SOL    HW135101   2.995  13.359   5.449
77756SOL    HW235102   3.078  13.385   5.325
77757SOL     OW35103   9.083  10.164  10.310
77757SOL    HW135104   9.109  10.165  10.217
77757SOL    HW235105   9.151  10.213  10.355
77758SOL     OW35106  12.389  14.758  12.654
77758SOL    HW135107  12.310  14.761  12.600
77758SOL    HW235108  12.387  14.670  12.693
77759SOL     OW35109   8.458   5.091  10.611
77759SOL    HW135110   8.465   5.046  10.527
77759SOL    HW235111   8.545   5.127  10.627
77760SOL     OW35112  14.751   9.510   9.977
77760SOL    HW135113  14.667   9.473  10.004
77760SOL    HW235114  14.748   9.601  10.009
77761SOL     OW35115   3.242   2.301   7.986
77761SOL    HW135116   3.198   2.223   7.952
77761SOL    HW235117   3.258   2.354   7.908
77762SOL     OW35118   6.338   2.027  10.275
77762SOL    HW135119   6.263   2.075  10.239
77762SOL    HW235120   6.339   1.944  10.227
77763SOL     OW35121   4.733   1.478  12.999
77763SOL    HW135122   4.784   1.539  12.945
77763SOL    HW235123   4.654   1.527  13.023
77764SOL     OW35124   1.829  13.009   8.733
77764SOL    HW135125   1.899  13.004   8.798
77764SOL    HW235126   1.860  13.075   8.670
77765SOL     OW35127   2.829   5.272  11.595
77765SOL    HW135128   2.816   5.358  11.554
77765SOL    HW235129   2.818   5.287  11.688
77766SOL     OW35130   8.828   9.878  12.852
77766SOL    HW135131   8.864   9.791  12.835
77766SOL    HW235132   8.904   9.936  12.855
77767SOL     OW35133  12.425  14.493   2.765
77767SOL    HW135134  12.435  14.400   2.743
77767SOL    HW235135  12.342  14.519   2.725
77768SOL     OW35136  14.159   9.089   4.320
77768SOL    HW135137  14.205   9.138   4.389
77768SOL    HW235138  14.213   9.102   4.242
77769SOL     OW35139   0.640   4.752  11.173
77769SOL    HW135140   0.671   4.822  11.231
77769SOL    HW235141   0.720   4.707  11.147
77770SOL     OW35142  12.804   9.986   6.391
77770SOL    HW135143  12.788   9.892   6.392
77770SOL    HW235144  12.717  10.025   6.391
77771SOL     OW35145   4.420   9.407   5.891
77771SOL    HW135146   4.330   9.418   5.921
77771SOL    HW235147   4.415   9.411   5.795
77772SOL     OW35148   1.177   2.514   0.034
77772SOL    HW135149   1.150   2.423   0.025
77772SOL    HW235150   1.157   2.554  14.828
77773SOL     OW35151   3.010   2.212   6.938
77773SOL    HW135152   2.975   2.215   7.027
77773SOL    HW235153   3.103   2.189   6.949
77774SOL     OW35154   8.133   3.562  11.710
77774SOL    HW135155   8.188   3.640  11.708
77774SOL    HW235156   8.187   3.494  11.750
77775SOL     OW35157   0.056   5.619   5.023
77775SOL    HW135158   0.064   5.682   4.952
77775SOL    HW235159   0.105   5.657   5.096
77776SOL     OW35160  14.820   7.810   2.103
77776SOL    HW135161  14.742   7.865   2.096
77776SOL    HW235162  14.792   7.724   2.071
77777SOL     OW35163  14.764  10.583  11.064
77777SOL    HW135164  14.704  10.511  11.045
77777SOL    HW235165  14.720  10.661  11.031
77778SOL     OW35166   1.626   1.496   3.571
77778SOL    HW135167   1.563   1.477   3.641
77778SOL    HW235168   1.589   1.571   3.525
77779SOL     OW35169   0.255   5.419  13.016
77779SOL    HW135170   0.267   5.399  13.109
77779SOL    HW235171   0.300   5.349  12.971
77780SOL     OW35172  14.819  13.069   2.383
77780SOL    HW135173  14.751  13.111   2.437
77780SOL    HW235174  14.770  13.027   2.312
77781SOL     OW35175   5.478   4.235   0.987
77781SOL    HW135176   5.468   4.144   0.958
77781SOL    HW235177   5.488   4.285   0.906
77782SOL     OW35178  12.411  12.290   7.666
77782SOL    HW135179  12.364  12.275   7.584
77782SOL    HW235180  12.480  12.223   7.666
77783SOL     OW35181   0.626   7.874   7.545
77783SOL    HW135182   0.603   7.797   7.493
77783SOL    HW235183   0.605   7.849   7.635
77784SOL     OW35184  14.440   9.511   2.224
77784SOL    HW135185  14.449   9.426   2.267
77784SOL    HW235186  14.527   9.529   2.188
77785SOL     OW35187   9.065   2.838  12.685
77785SOL    HW135188   9.039   2.861  12.596
77785SOL    HW235189   9.145   2.787  12.674
77786SOL     OW35190  10.312   8.018  13.460
77786SOL    HW135191  10.362   7.965  13.399
77786SOL    HW235192  10.226   7.977  13.463
77787SOL     OW35193  12.696  12.042   2.096
77787SOL    HW135194  12.763  11.982   2.129
77787SOL    HW235195  12.646  11.991   2.032
77788SOL     OW35196   2.657  10.764   5.848
77788SOL    HW135197   2.628  10.836   5.792
77788SOL    HW235198   2.709  10.709   5.789
77789SOL     OW35199   9.628   9.134   8.325
77789SOL    HW135200   9.584   9.218   8.333
77789SOL    HW235201   9.582   9.089   8.254
77790SOL     OW35202   7.488  12.044   3.081
77790SOL    HW135203   7.562  11.986   3.065
77790SOL    HW235204   7.426  12.023   3.011
77791SOL     OW35205   7.798   2.264  13.056
77791SOL    HW135206   7.715   2.262  13.008
77791SOL    HW235207   7.777   2.225  13.141
77792SOL     OW35208  11.799   7.160   7.843
77792SOL    HW135209  11.889   7.129   7.835
77792SOL    HW235210  11.756   7.130   7.763
77793SOL     OW35211   7.880   3.910   1.601
77793SOL    HW135212   7.804   3.852   1.614
77793SOL    HW235213   7.885   3.922   1.507
77794SOL     OW35214   5.907   3.612  13.293
77794SOL    HW135215   5.974   3.620  13.360
77794SOL    HW235216   5.875   3.522  13.301
77795SOL     OW35217   9.404  10.024  11.094
77795SOL    HW135218   9.312   9.997  11.099
77795SOL    HW235219   9.444   9.991  11.174
77796SOL     OW35220  10.737   2.008  14.274
77796SOL    HW135221  10.643   1.991  14.272
77796SOL    HW235222  10.746   2.089  14.325
77797SOL     OW35223   4.813  12.939   0.092
77797SOL    HW135224   4.780  12.970   0.177
77797SOL    HW235225   4.735  12.906   0.047
77798SOL     OW35226   9.868  12.611   7.751
77798SOL    HW135227   9.957  12.613   7.716
77798SOL    HW235228   9.879  12.637   7.843
77799SOL     OW35229   5.865  10.375   0.546
77799SOL    HW135230   5.853  10.327   0.628
77799SOL    HW235231   5.959  10.365   0.527
77800SOL     OW35232   6.075   8.123   2.122
77800SOL    HW135233   5.991   8.168   2.112
77800SOL    HW235234   6.139   8.194   2.129
77801SOL     OW35235  11.286  13.130  13.886
77801SOL    HW135236  11.234  13.210  13.889
77801SOL    HW235237  11.356  13.148  13.824
77802SOL     OW35238  11.209   6.541  13.694
77802SOL    HW135239  11.299   6.509  13.696
77802SOL    HW235240  11.155   6.465  13.715
77803SOL     OW35241   7.664   5.838   1.334
77803SOL    HW135242   7.686   5.788   1.256
77803SOL    HW235243   7.746   5.877   1.362
77804SOL     OW35244   5.386  13.940  10.957
77804SOL    HW135245   5.409  13.995  11.033
77804SOL    HW235246   5.299  13.970  10.931
77805SOL     OW35247   9.555   7.058   1.522
77805SOL    HW135248   9.526   6.987   1.465
77805SOL    HW235249   9.522   7.137   1.481
77806SOL     OW35250   8.512   1.456   9.960
77806SOL    HW135251   8.552   1.444  10.046
77806SOL    HW235252   8.575   1.508   9.911
77807SOL     OW35253   3.148   0.954   5.750
77807SOL    HW135254   3.109   0.975   5.834
77807SOL    HW235255   3.147   1.036   5.702
77808SOL     OW35256  10.646   4.113   5.366
77808SOL    HW135257  10.708   4.166   5.316
77808SOL    HW235258  10.584   4.081   5.300
77809SOL     OW35259   0.810   6.734  11.246
77809SOL    HW135260   0.748   6.754  11.316
77809SOL    HW235261   0.790   6.797  11.177
77810SOL     OW35262   8.988  11.127   2.767
77810SOL    HW135263   8.984  11.095   2.677
77810SOL    HW235264   8.971  11.050   2.821
77811SOL     OW35265   2.687   0.021   5.631
77811SOL    HW135266   2.693   0.052   5.721
77811SOL    HW235267   2.594   0.003   5.617
77812SOL     OW35268   4.310  13.263   3.244
77812SOL    HW135269   4.313  13.217   3.160
77812SOL    HW235270   4.316  13.194   3.310
77813SOL     OW35271   9.940   2.370   8.483
77813SOL    HW135272   9.976   2.299   8.536
77813SOL    HW235273   9.891   2.325   8.413
77814SOL     OW35274   6.833   4.482   9.091
77814SOL    HW135275   6.857   4.488   9.183
77814SOL    HW235276   6.818   4.388   9.076
77815SOL     OW35277   5.255   2.709   2.162
77815SOL    HW135278   5.272   2.687   2.070
77815SOL    HW235279   5.342   2.725   2.198
77816SOL     OW35280   6.275   5.190   9.923
77816SOL    HW135281   6.332   5.210   9.848
77816SOL    HW235282   6.269   5.272   9.972
77817SOL     OW35283   1.156   5.574   5.271
77817SOL    HW135284   1.250   5.569   5.288
77817SOL    HW235285   1.146   5.650   5.213
77818SOL     OW35286   5.478   4.084   8.474
77818SOL    HW135287   5.461   4.054   8.385
77818SOL    HW235288   5.538   4.158   8.463
77819SOL     OW35289   1.512  13.947   1.947
77819SOL    HW135290   1.576  13.883   1.977
77819SOL    HW235291   1.461  13.901   1.879
77820SOL     OW35292   5.438   7.946   0.621
77820SOL    HW135293   5.521   7.923   0.663
77820SOL    HW235294   5.433   8.041   0.628
77821SOL     OW35295  14.594   0.293   7.354
77821SOL    HW135296  14.559   0.317   7.268
77821SOL    HW235297  14.679   0.254   7.335
77822SOL     OW35298  12.963   3.666   7.738
77822SOL    HW135299  13.055   3.650   7.756
77822SOL    HW235300  12.932   3.719   7.812
77823SOL     OW35301   9.762   3.811   9.325
77823SOL    HW135302   9.705   3.856   9.388
77823SOL    HW235303   9.763   3.868   9.248
77824SOL     OW35304  12.102  10.270   0.039
77824SOL    HW135305  12.176  10.229   0.084
77824SOL    HW235306  12.077  10.344   0.094
77825SOL     OW35307   1.460   0.100   2.653
77825SOL    HW135308   1.435   0.170   2.714
77825SOL    HW235309   1.524   0.048   2.702
77826SOL     OW35310  10.732   1.474   8.678
77826SOL    HW135311  10.824   1.489   8.656
77826SOL    HW235312  10.696   1.561   8.690
77827SOL     OW35313   7.641   5.435  10.027
77827SOL    HW135314   7.553   5.423  10.062
77827SOL    HW235315   7.678   5.347  10.024
77828SOL     OW35316  13.294  14.089   0.996
77828SOL    HW135317  13.227  14.027   0.967
77828SOL    HW235318  13.285  14.164   0.937
77829SOL     OW35319   9.264  12.208   9.861
77829SOL    HW135320   9.268  12.293   9.817
77829SOL    HW235321   9.354  12.189   9.885
77830SOL     OW35322   5.694  12.383  12.812
77830SOL    HW135323   5.674  12.298  12.852
77830SOL    HW235324   5.654  12.447  12.872
77831SOL     OW35325   0.234  10.900   4.426
77831SOL    HW135326   0.283  10.945   4.494
77831SOL    HW235327   0.290  10.828   4.399
77832SOL     OW35328   3.740   8.602   4.124
77832SOL    HW135329   3.660   8.625   4.172
77832SOL    HW235330   3.809   8.651   4.169
77833SOL     OW35331   9.187   1.988   6.558
77833SOL    HW135332   9.221   1.898   6.553
77833SOL    HW235333   9.214   2.028   6.476
77834SOL     OW35334   3.644  12.802   0.818
77834SOL    HW135335   3.624  12.860   0.744
77834SOL    HW235336   3.560  12.761   0.839
77835SOL     OW35337   7.347  14.596  11.372
77835SOL    HW135338   7.296  14.676  11.367
77835SOL    HW235339   7.401  14.606  11.450
77836SOL     OW35340   0.660   0.208  10.097
77836SOL    HW135341   0.751   0.187  10.077
77836SOL    HW235342   0.612   0.129  10.073
77837SOL     OW35343  10.493   8.592   4.394
77837SOL    HW135344  10.580   8.618   4.363
77837SOL    HW235345  10.491   8.497   4.383
77838SOL     OW35346   8.544   8.860   7.067
77838SOL    HW135347   8.632   8.830   7.089
77838SOL    HW235348   8.507   8.788   7.016
77839SOL     OW35349  10.284   6.477  13.343
77839SOL    HW135350  10.359   6.488  13.402
77839SOL    HW235351  10.289   6.551  13.283
77840SOL     OW35352   6.176  10.802   5.720
77840SOL    HW135353   6.250  10.743   5.710
77840SOL    HW235354   6.108  10.765   5.664
77841SOL     OW35355   8.335   1.948   3.477
77841SOL    HW135356   8.275   1.881   3.506
77841SOL    HW235357   8.421   1.919   3.509
77842SOL     OW35358   2.315   1.772   7.908
77842SOL    HW135359   2.392   1.775   7.966
77842SOL    HW235360   2.252   1.718   7.955
77843SOL     OW35361  10.807  14.690  11.985
77843SOL    HW135362  10.854  14.614  12.017
77843SOL    HW235363  10.817  14.756  12.054
77844SOL     OW35364  14.532   9.411  10.101
77844SOL    HW135365  14.527   9.316  10.115
77844SOL    HW235366  14.492   9.424  10.014
77845SOL     OW35367   4.826   3.941   2.935
77845SOL    HW135368   4.918   3.961   2.953
77845SOL    HW235369   4.827   3.852   2.899
77846SOL     OW35370   6.816   3.695   3.648
77846SOL    HW135371   6.845   3.615   3.691
77846SOL    HW235372   6.720   3.688   3.646
77847SOL     OW35373   5.045   0.264   7.197
77847SOL    HW135374   4.986   0.190   7.206
77847SOL    HW235375   5.127   0.235   7.238
77848SOL     OW35376   0.919   0.122  10.008
77848SOL    HW135377   0.979   0.143  10.080
77848SOL    HW235378   0.971   0.132   9.929
77849SOL     OW35379   4.660   3.595  12.222
77849SOL    HW135380   4.688   3.505  12.207
77849SOL    HW235381   4.672   3.609  12.316
77850SOL     OW35382   0.630   8.246   9.462
77850SOL    HW135383   0.718   8.212   9.446
77850SOL    HW235384   0.574   8.195   9.403
77851SOL     OW35385  14.630  13.869  11.140
77851SOL    HW135386  14.684  13.806  11.092
77851SOL    HW235387  14.677  13.952  11.131
77852SOL     OW35388   8.988   0.952   8.506
77852SOL    HW135389   9.048   0.970   8.579
77852SOL    HW235390   9.015   0.866   8.474
77853SOL     OW35391   1.310   1.129  14.630
77853SOL    HW135392   1.220   1.163  14.628
77853SOL    HW235393   1.362   1.199  14.591
77854SOL     OW35394   3.198   9.755   3.968
77854SOL    HW135395   3.216   9.713   4.052
77854SOL    HW235396   3.283   9.755   3.923
77855SOL     OW35397   9.843   5.960  13.197
77855SOL    HW135398   9.908   6.020  13.234
77855SOL    HW235399   9.845   5.977  13.103
77856SOL     OW35400   1.628   7.611  12.808
77856SOL    HW135401   1.543   7.583  12.775
77856SOL    HW235402   1.612   7.698  12.845
77857SOL     OW35403   8.970   1.650   9.138
77857SOL    HW135404   8.884   1.635   9.177
77857SOL    HW235405   8.999   1.733   9.176
77858SOL     OW35406   4.559  10.198   4.170
77858SOL    HW135407   4.560  10.252   4.249
77858SOL    HW235408   4.529  10.112   4.201
77859SOL     OW35409   4.796  14.139   8.408
77859SOL    HW135410   4.758  14.055   8.434
77859SOL    HW235411   4.724  14.186   8.367
77860SOL     OW35412  14.250   1.717   5.937
77860SOL    HW135413  14.320   1.737   6.000
77860SOL    HW235414  14.230   1.801   5.896
77861SOL     OW35415   3.113   6.720  12.188
77861SOL    HW135416   3.172   6.745  12.118
77861SOL    HW235417   3.065   6.645  12.153
77862SOL     OW35418   6.741  13.720   0.960
77862SOL    HW135419   6.823  13.693   0.919
77862SOL    HW235420   6.768  13.765   1.040
77863SOL     OW35421   3.662  10.991   8.714
77863SOL    HW135422   3.655  10.904   8.674
77863SOL    HW235423   3.727  11.037   8.661
77864SOL     OW35424  13.967   0.377  12.233
77864SOL    HW135425  13.957   0.392  12.139
77864SOL    HW235426  14.036   0.438  12.260
77865SOL     OW35427   2.428   6.358  10.102
77865SOL    HW135428   2.489   6.295  10.066
77865SOL    HW235429   2.346   6.343  10.054
77866SOL     OW35430  13.445   6.079  13.016
77866SOL    HW135431  13.351   6.061  13.011
77866SOL    HW235432  13.482   6.004  13.061
77867SOL     OW35433   5.170   0.291   6.334
77867SOL    HW135434   5.129   0.353   6.274
77867SOL    HW235435   5.120   0.210   6.322
77868SOL     OW35436   0.100   2.526   3.439
77868SOL    HW135437   0.092   2.501   3.347
77868SOL    HW235438   0.187   2.565   3.446
77869SOL     OW35439   6.199   6.378   1.610
77869SOL    HW135440   6.256   6.448   1.641
77869SOL    HW235441   6.194   6.316   1.683
77870SOL     OW35442   3.717   7.795  14.119
77870SOL    HW135443   3.784   7.749  14.171
77870SOL    HW235444   3.642   7.801  14.177
77871SOL     OW35445   9.432   3.718   6.898
77871SOL    HW135446   9.432   3.734   6.992
77871SOL    HW235447   9.464   3.628   6.888
77872SOL     OW35448   6.234   4.806  13.064
77872SOL    HW135449   6.274   4.783  12.980
77872SOL    HW235450   6.175   4.879  13.043
77873SOL     OW35451   2.838  12.490   7.267
77873SOL    HW135452   2.930  12.497   7.295
77873SOL    HW235453   2.787  12.513   7.345
77874SOL     OW35454   1.216   7.568  13.144
77874SOL    HW135455   1.254   7.576  13.056
77874SOL    HW235456   1.215   7.473  13.161
77875SOL     OW35457   0.357  13.760  11.538
77875SOL    HW135458   0.396  13.755  11.451
77875SOL    HW235459   0.265  13.778  11.523
77876SOL     OW35460   5.614   1.422   0.708
77876SOL    HW135461   5.638   1.445   0.797
77876SOL    HW235462   5.652   1.335   0.694
77877SOL     OW35463   0.621   4.785   3.950
77877SOL    HW135464   0.567   4.838   3.892
77877SOL    HW235465   0.607   4.823   4.037
77878SOL     OW35466   4.763   2.943   5.252
77878SOL    HW135467   4.791   2.864   5.206
77878SOL    HW235468   4.832   2.959   5.317
77879SOL     OW35469   0.878   1.772   9.671
77879SOL    HW135470   0.841   1.858   9.648
77879SOL    HW235471   0.854   1.716   9.597
77880SOL     OW35472   1.177  13.600  12.687
77880SOL    HW135473   1.097  13.642  12.718
77880SOL    HW235474   1.245  13.632  12.746
77881SOL     OW35475   6.424   3.809   1.268
77881SOL    HW135476   6.419   3.714   1.282
77881SOL    HW235477   6.455   3.819   1.178
77882SOL     OW35478   7.238   2.686   2.539
77882SOL    HW135479   7.152   2.686   2.497
77882SOL    HW235480   7.266   2.777   2.536
77883SOL     OW35481   0.403  11.401   9.383
77883SOL    HW135482   0.492  11.399   9.349
77883SOL    HW235483   0.402  11.333   9.451
77884SOL     OW35484   8.248  13.556   3.139
77884SOL    HW135485   8.158  13.526   3.146
77884SOL    HW235486   8.266  13.556   3.045
77885SOL     OW35487  14.588   5.725  12.061
77885SOL    HW135488  14.620   5.813  12.041
77885SOL    HW235489  14.517   5.710  11.997
77886SOL     OW35490   6.769   5.287   3.416
77886SOL    HW135491   6.760   5.338   3.497
77886SOL    HW235492   6.680   5.260   3.395
77887SOL     OW35493   9.638  11.513   2.162
77887SOL    HW135494   9.613  11.422   2.145
77887SOL    HW235495   9.690  11.509   2.242
77888SOL     OW35496  13.046  10.432   1.074
77888SOL    HW135497  13.092  10.513   1.095
77888SOL    HW235498  13.041  10.385   1.157
77889SOL     OW35499   7.415  13.912   3.744
77889SOL    HW135500   7.416  13.922   3.839
77889SOL    HW235501   7.322  13.921   3.720
77890SOL     OW35502  11.468   3.209   7.732
77890SOL    HW135503  11.527   3.270   7.687
77890SOL    HW235504  11.522   3.131   7.748
77891SOL     OW35505  14.154  13.824   3.308
77891SOL    HW135506  14.183  13.779   3.228
77891SOL    HW235507  14.096  13.761   3.351
77892SOL     OW35508   3.861   7.559   1.541
77892SOL    HW135509   3.846   7.652   1.525
77892SOL    HW235510   3.883   7.523   1.455
77893SOL     OW35511  14.477  11.733   7.876
77893SOL    HW135512  14.542  11.803   7.877
77893SOL    HW235513  14.485  11.691   7.961
77894SOL     OW35514   6.836   9.553  13.140
77894SOL    HW135515   6.816   9.596  13.224
77894SOL    HW235516   6.888   9.477  13.165
77895SOL     OW35517   4.058   0.117  13.946
77895SOL    HW135518   4.094   0.116  13.858
77895SOL    HW235519   4.030   0.208  13.960
77896SOL     OW35520  14.598   8.354   1.890
77896SOL    HW135521  14.505   8.353   1.912
77896SOL    HW235522  14.640   8.389   1.969
77897SOL     OW35523   4.036   1.001   7.518
77897SOL    HW135524   3.961   1.049   7.481
77897SOL    HW235525   4.052   1.044   7.602
77898SOL     OW35526   1.454   3.438   2.949
77898SOL    HW135527   1.444   3.344   2.935
77898SOL    HW235528   1.484   3.472   2.864
77899SOL     OW35529   2.799  13.502  11.289
77899SOL    HW135530   2.712  13.467  11.270
77899SOL    HW235531   2.858  13.429  11.275
77900SOL     OW35532   0.547  11.812   1.256
77900SOL    HW135533   0.534  11.748   1.186
77900SOL    HW235534   0.620  11.866   1.224
77901SOL     OW35535   5.070   3.564  10.607
77901SOL    HW135536   5.099   3.548  10.518
77901SOL    HW235537   4.982   3.527  10.611
77902SOL     OW35538   1.437   1.360   5.947
77902SOL    HW135539   1.421   1.444   5.990
77902SOL    HW235540   1.489   1.383   5.869
77903SOL     OW35541   8.652   4.762   4.113
77903SOL    HW135542   8.653   4.699   4.186
77903SOL    HW235543   8.662   4.709   4.035
77904SOL     OW35544   1.787   5.296   6.069
77904SOL    HW135545   1.695   5.273   6.057
77904SOL    HW235546   1.807   5.353   5.994
77905SOL     OW35547   1.870  14.071   3.308
77905SOL    HW135548   1.905  14.075   3.219
77905SOL    HW235549   1.778  14.098   3.299
77906SOL     OW35550   3.477   0.394   7.621
77906SOL    HW135551   3.440   0.383   7.709
77906SOL    HW235552   3.507   0.307   7.596
77907SOL     OW35553   6.597  11.057   3.089
77907SOL    HW135554   6.600  11.148   3.060
77907SOL    HW235555   6.538  11.057   3.164
77908SOL     OW35556  14.185   6.566  14.709
77908SOL    HW135557  14.171   6.646  14.760
77908SOL    HW235558  14.268   6.531  14.741
77909SOL     OW35559   0.836  14.203   0.725
77909SOL    HW135560   0.877  14.130   0.771
77909SOL    HW235561   0.769  14.236   0.786
77910SOL     OW35562   4.806   7.321   2.681
77910SOL    HW135563   4.842   7.323   2.593
77910SOL    HW235564   4.875   7.281   2.734
77911SOL     OW35565   7.610  12.602   4.740
77911SOL    HW135566   7.630  12.555   4.659
77911SOL    HW235567   7.650  12.550   4.809
77912SOL     OW35568   2.432  12.179   9.830
77912SOL    HW135569   2.512  12.206   9.784
77912SOL    HW235570   2.439  12.083   9.836
77913SOL     OW35571   1.152   8.609   4.543
77913SOL    HW135572   1.246   8.594   4.552
77913SOL    HW235573   1.146   8.682   4.481
77914SOL     OW35574  10.013  12.163  11.741
77914SOL    HW135575  10.091  12.110  11.755
77914SOL    HW235576   9.952  12.105  11.694
77915SOL     OW35577   9.195  11.481   3.488
77915SOL    HW135578   9.238  11.567   3.490
77915SOL    HW235579   9.249  11.428   3.430
77916SOL     OW35580  13.779  13.814   9.272
77916SOL    HW135581  13.850  13.857   9.321
77916SOL    HW235582  13.788  13.721   9.293
77917SOL     OW35583   5.287   4.240  10.380
77917SOL    HW135584   5.316   4.327  10.408
77917SOL    HW235585   5.303   4.184  10.455
77918SOL     OW35586   8.766  14.854   6.608
77918SOL    HW135587   8.821  14.780   6.580
77918SOL    HW235588   8.817   0.053   6.587
77919SOL     OW35589  10.562  10.955   8.358
77919SOL    HW135590  10.598  10.879   8.313
77919SOL    HW235591  10.559  10.928   8.450
77920SOL     OW35592  13.712   8.873   4.072
77920SOL    HW135593  13.688   8.783   4.050
77920SOL    HW235594  13.791   8.865   4.126
77921SOL     OW35595   3.677   0.438   1.452
77921SOL    HW135596   3.704   0.524   1.483
77921SOL    HW235597   3.635   0.454   1.368
77922SOL     OW35598   4.871  11.325  10.204
77922SOL    HW135599   4.929  11.358  10.273
77922SOL    HW235600   4.825  11.403  10.172
77923SOL     OW35601   2.660   2.675   2.433
77923SOL    HW135602   2.592   2.688   2.368
77923SOL    HW235603   2.741   2.699   2.388
77924SOL     OW35604   9.963  13.883   1.302
77924SOL    HW135605   9.991  13.914   1.217
77924SOL    HW235606   9.952  13.788   1.291
77925SOL     OW35607   1.470   5.572   7.626
77925SOL    HW135608   1.555   5.540   7.593
77925SOL    HW235609   1.423   5.600   7.548
77926SOL     OW35610   6.446   0.076   4.687
77926SOL    HW135611   6.393   0.144   4.646
77926SOL    HW235612   6.493   0.121   4.758
77927SOL     OW35613   4.289   7.458   6.578
77927SOL    HW135614   4.243   7.425   6.500
77927SOL    HW235615   4.376   7.419   6.572
77928SOL     OW35616   3.646   8.288   6.365
77928SOL    HW135617   3.705   8.318   6.435
77928SOL    HW235618   3.640   8.194   6.378
77929SOL     OW35619  13.040   0.680   0.485
77929SOL    HW135620  13.107   0.692   0.418
77929SOL    HW235621  13.058   0.749   0.550
77930SOL     OW35622  10.219   2.433  13.052
77930SOL    HW135623  10.283   2.443  13.122
77930SOL    HW235624  10.220   2.517  13.006
77931SOL     OW35625  11.780   5.374   4.331
77931SOL    HW135626  11.765   5.386   4.238
77931SOL    HW235627  11.820   5.287   4.338
77932SOL     OW35628   7.925  11.048   2.068
77932SOL    HW135629   7.948  10.979   2.007
77932SOL    HW235630   7.844  11.016   2.110
77933SOL     OW35631  13.016   7.501   3.111
77933SOL    HW135632  13.032   7.564   3.040
77933SOL    HW235633  13.040   7.548   3.191
77934SOL     OW35634   3.527   0.585   2.964
77934SOL    HW135635   3.473   0.561   2.888
77934SOL    HW235636   3.605   0.624   2.926
77935SOL     OW35637   6.824   2.493  11.784
77935SOL    HW135638   6.821   2.412  11.733
77935SOL    HW235639   6.812   2.464  11.874
77936SOL     OW35640   7.703   0.730  10.152
77936SOL    HW135641   7.697   0.825  10.157
77936SOL    HW235642   7.638   0.705  10.087
77937SOL     OW35643   7.451   8.106   4.311
77937SOL    HW135644   7.538   8.065   4.312
77937SOL    HW235645   7.391   8.034   4.289
77938SOL     OW35646   7.520  14.777  14.546
77938SOL    HW135647   7.441  14.756  14.496
77938SOL    HW235648   7.490  14.781  14.637
77939SOL     OW35649   4.229  11.477   0.021
77939SOL    HW135650   4.274  11.547  14.851
77939SOL    HW235651   4.136  11.495   0.008
77940SOL     OW35652   1.338   4.715   9.703
77940SOL    HW135653   1.302   4.739   9.789
77940SOL    HW235654   1.421   4.672   9.723
77941SOL     OW35655   1.012   6.360   0.891
77941SOL    HW135656   1.033   6.375   0.799
77941SOL    HW235657   0.948   6.428   0.913
77942SOL     OW35658   9.084  12.699   1.392
77942SOL    HW135659   9.134  12.708   1.473
77942SOL    HW235660   8.993  12.711   1.420
77943SOL     OW35661   1.295  14.298   7.403
77943SOL    HW135662   1.208  14.291   7.441
77943SOL    HW235663   1.341  14.220   7.435
77944SOL     OW35664  11.891  12.537  13.599
77944SOL    HW135665  11.813  12.509  13.549
77944SOL    HW235666  11.889  12.483  13.677
77945SOL     OW35667  13.134   0.046   2.161
77945SOL    HW135668  13.106   0.089   2.241
77945SOL    HW235669  13.213  14.878   2.185
77946SOL     OW35670  11.762   3.763  11.363
77946SOL    HW135671  11.668   3.748  11.351
77946SOL    HW235672  11.797   3.772  11.274
77947SOL     OW35673   8.783   1.146  13.027
77947SOL    HW135674   8.721   1.160  12.956
77947SOL    HW235675   8.737   1.089  13.088
77948SOL     OW35676  13.638   3.793   4.934
77948SOL    HW135677  13.649   3.887   4.953
77948SOL    HW235678  13.672   3.749   5.011
77949SOL     OW35679   9.096   3.136  13.391
77949SOL    HW135680   9.045   3.217  13.400
77949SOL    HW235681   9.155   3.154  13.318
77950SOL     OW35682   4.598   4.487   4.170
77950SOL    HW135683   4.579   4.396   4.193
77950SOL    HW235684   4.512   4.528   4.160
77951SOL     OW35685   1.636   7.035  10.614
77951SOL    HW135686   1.672   6.987  10.539
77951SOL    HW235687   1.581   7.103  10.574
77952SOL     OW35688  10.422   4.414  13.473
77952SOL    HW135689  10.457   4.497  13.505
77952SOL    HW235690  10.359   4.439  13.405
77953SOL     OW35691  13.678   9.414   9.932
77953SOL    HW135692  13.707   9.326   9.958
77953SOL    HW235693  13.738   9.439   9.862
77954SOL     OW35694   7.506   1.213  11.384
77954SOL    HW135695   7.569   1.227  11.313
77954SOL    HW235696   7.429   1.263  11.358
77955SOL     OW35697  13.177  13.469  12.694
77955SOL    HW135698  13.270  13.449  12.683
77955SOL    HW235699  13.147  13.495  12.607
77956SOL     OW35700   8.584   3.149   0.358
77956SOL    HW135701   8.604   3.155   0.265
77956SOL    HW235702   8.542   3.063   0.368
77957SOL     OW35703   7.842   1.542   3.997
77957SOL    HW135704   7.755   1.575   4.016
77957SOL    HW235705   7.830   1.484   3.921
77958SOL     OW35706   1.685   0.953  11.386
77958SOL    HW135707   1.665   0.867  11.423
77958SOL    HW235708   1.777   0.967  11.406
77959SOL     OW35709  12.557  12.422   9.986
77959SOL    HW135710  12.483  12.378   9.946
77959SOL    HW235711  12.595  12.474   9.914
77960SOL     OW35712   6.391   1.859   2.511
77960SOL    HW135713   6.320   1.798   2.493
77960SOL    HW235714   6.432   1.824   2.591
77961SOL     OW35715   1.388  12.293   7.217
77961SOL    HW135716   1.478  12.284   7.248
77961SOL    HW235717   1.357  12.203   7.204
77962SOL     OW35718  13.539  11.730  13.258
77962SOL    HW135719  13.534  11.800  13.192
77962SOL    HW235720  13.529  11.649  13.208
77963SOL     OW35721   9.045   4.996  10.036
77963SOL    HW135722   9.065   5.001  10.129
77963SOL    HW235723   9.111   4.937  10.000
77964SOL     OW35724   2.591   2.031   0.832
77964SOL    HW135725   2.652   2.078   0.774
77964SOL    HW235726   2.641   2.017   0.912
77965SOL     OW35727  12.245   5.495   5.963
77965SOL    HW135728  12.155   5.494   5.930
77965SOL    HW235729  12.295   5.447   5.897
77966SOL     OW35730   7.884   2.220   6.996
77966SOL    HW135731   7.854   2.190   6.910
77966SOL    HW235732   7.842   2.161   7.058
77967SOL     OW35733  10.764   6.746  13.884
77967SOL    HW135734  10.792   6.685  13.815
77967SOL    HW235735  10.710   6.811  13.838
77968SOL     OW35736   7.124  14.086  10.368
77968SOL    HW135737   7.193  14.021  10.359
77968SOL    HW235738   7.078  14.062  10.448
77969SOL     OW35739  10.051   1.554   5.852
77969SOL    HW135740   9.978   1.601   5.892
77969SOL    HW235741  10.039   1.566   5.758
77970SOL     OW35742   5.152   4.137   5.051
77970SOL    HW135743   5.105   4.062   5.016
77970SOL    HW235744   5.212   4.163   4.981
77971SOL     OW35745   0.996   3.899   0.700
77971SOL    HW135746   0.971   3.946   0.620
77971SOL    HW235747   0.982   3.963   0.770
77972SOL     OW35748  11.713  13.867  11.434
77972SOL    HW135749  11.659  13.875  11.355
77972SOL    HW235750  11.695  13.947  11.483
77973SOL     OW35751  14.119   9.634  12.950
77973SOL    HW135752  14.086   9.561  12.898
77973SOL    HW235753  14.052   9.702  12.941
77974SOL     OW35754   7.931   9.117   8.623
77974SOL    HW135755   8.007   9.144   8.572
77974SOL    HW235756   7.965   9.098   8.710
77975SOL     OW35757   4.995   0.351   4.858
77975SOL    HW135758   4.918   0.295   4.848
77975SOL    HW235759   5.051   0.304   4.920
77976SOL     OW35760   6.447   8.853  10.423
77976SOL    HW135761   6.519   8.842  10.362
77976SOL    HW235762   6.375   8.802  10.385
77977SOL     OW35763   5.488  13.893  14.587
77977SOL    HW135764   5.527  13.979  14.605
77977SOL    HW235765   5.509  13.876  14.495
77978SOL     OW35766   5.491   2.362   3.330
77978SOL    HW135767   5.420   2.334   3.272
77978SOL    HW235768   5.563   2.301   3.311
77979SOL     OW35769   7.338  13.284   2.264
77979SOL    HW135770   7.275  13.351   2.293
77979SOL    HW235771   7.370  13.316   2.180
77980SOL     OW35772   4.928  14.007   7.228
77980SOL    HW135773   4.972  14.070   7.285
77980SOL    HW235774   4.913  13.931   7.284
77981SOL     OW35775  10.214   3.334   9.296
77981SOL    HW135776  10.229   3.397   9.366
77981SOL    HW235777  10.161   3.381   9.231
77982SOL     OW35778  12.999   1.201   6.892
77982SOL    HW135779  13.070   1.144   6.922
77982SOL    HW235780  12.921   1.169   6.938
77983SOL     OW35781   6.841  13.149   4.758
77983SOL    HW135782   6.891  13.107   4.829
77983SOL    HW235783   6.864  13.241   4.764
77984SOL     OW35784   6.221   6.431   4.160
77984SOL    HW135785   6.232   6.389   4.245
77984SOL    HW235786   6.234   6.360   4.096
77985SOL     OW35787   7.057  11.564  11.444
77985SOL    HW135788   7.141  11.608  11.455
77985SOL    HW235789   7.062  11.525  11.357
77986SOL     OW35790   4.561  12.256   9.503
77986SOL    HW135791   4.498  12.323   9.531
77986SOL    HW235792   4.626  12.254   9.572
77987SOL     OW35793   2.992   5.011   3.372
77987SOL    HW135794   3.022   5.041   3.458
77987SOL    HW235795   2.937   5.082   3.340
77988SOL     OW35796   1.535   1.348   4.969
77988SOL    HW135797   1.557   1.431   4.928
77988SOL    HW235798   1.441   1.354   4.987
77989SOL     OW35799  13.184   2.213   1.361
77989SOL    HW135800  13.095   2.185   1.340
77989SOL    HW235801  13.221   2.239   1.277
77990SOL     OW35802   9.635   5.475   0.857
77990SOL    HW135803   9.539   5.475   0.863
77990SOL    HW235804   9.664   5.522   0.935
77991SOL     OW35805   8.466  11.528   1.189
77991SOL    HW135806   8.558  11.542   1.210
77991SOL    HW235807   8.423  11.519   1.274
77992SOL     OW35808   8.404  14.659   9.014
77992SOL    HW135809   8.382  14.574   8.975
77992SOL    HW235810   8.334  14.717   8.986
77993SOL     OW35811   7.935   8.564   7.775
77993SOL    HW135812   7.938   8.499   7.704
77993SOL    HW235813   7.875   8.526   7.839
77994SOL     OW35814   0.925  12.429   4.154
77994SOL    HW135815   0.961  12.513   4.125
77994SOL    HW235816   1.001  12.375   4.174
77995SOL     OW35817   2.938   4.286  13.235
77995SOL    HW135818   3.005   4.261  13.171
77995SOL    HW235819   2.967   4.246  13.317
77996SOL     OW35820   7.519  12.028   8.411
77996SOL    HW135821   7.593  12.083   8.384
77996SOL    HW235822   7.519  12.032   8.506
77997SOL     OW35823   4.528   6.750   5.066
77997SOL    HW135824   4.623   6.748   5.060
77997SOL    HW235825   4.499   6.774   4.978
77998SOL     OW35826  10.619  10.788   8.114
77998SOL    HW135827  10.598  10.720   8.051
77998SOL    HW235828  10.564  10.862   8.090
77999SOL     OW35829  12.226   4.411   3.294
77999SOL    HW135830  12.184   4.363   3.222
77999SOL    HW235831  12.318   4.385   3.289
78000SOL     OW35832  10.592   2.427  10.220
78000SOL    HW135833  10.520   2.465  10.270
78000SOL    HW235834  10.584   2.333  10.234
78001SOL     OW35835   5.013  11.803   4.608
78001SOL    HW135836   4.992  11.713   4.632
78001SOL    HW235837   5.022  11.802   4.513
78002SOL     OW35838  10.873   7.550   3.826
78002SOL    HW135839  10.836   7.462   3.817
78002SOL    HW235840  10.925   7.545   3.906
78003SOL     OW35841  12.717   4.457   1.173
78003SOL    HW135842  12.715   4.417   1.086
78003SOL    HW235843  12.743   4.547   1.157
78004SOL     OW35844   9.055  14.036  14.189
78004SOL    HW135845   9.064  14.014  14.097
78004SOL    HW235846   9.079  14.128  14.195
78005SOL     OW35847   5.908  11.544   3.459
78005SOL    HW135848   5.936  11.500   3.540
78005SOL    HW235849   5.973  11.613   3.445
78006SOL     OW35850  12.287  14.031   7.495
78006SOL    HW135851  12.265  14.073   7.578
78006SOL    HW235852  12.371  14.071   7.469
78007SOL     OW35853   9.113   6.514  14.678
78007SOL    HW135854   9.178   6.445  14.660
78007SOL    HW235855   9.121   6.574  14.604
78008SOL     OW35856  10.879   7.838   2.152
78008SOL    HW135857  10.838   7.826   2.066
78008SOL    HW235858  10.920   7.754   2.171
78009SOL     OW35859   1.231   1.137   5.221
78009SOL    HW135860   1.278   1.151   5.303
78009SOL    HW235861   1.247   1.046   5.199
78010SOL     OW35862   3.489  12.363  13.436
78010SOL    HW135863   3.563  12.339  13.493
78010SOL    HW235864   3.469  12.453  13.460
78011SOL     OW35865  14.020   3.193  14.082
78011SOL    HW135866  14.061   3.271  14.046
78011SOL    HW235867  13.971   3.155  14.009
78012SOL     OW35868   9.632   9.658   8.243
78012SOL    HW135869   9.555   9.638   8.190
78012SOL    HW235870   9.598   9.678   8.330
78013SOL     OW35871   6.651   3.991  13.060
78013SOL    HW135872   6.641   3.925  13.129
78013SOL    HW235873   6.608   3.952  12.984
78014SOL     OW35874  14.732   0.678   0.424
78014SOL    HW135875  14.794   0.610   0.451
78014SOL    HW235876  14.646   0.642   0.445
78015SOL     OW35877  10.767  10.370   1.173
78015SOL    HW135878  10.713  10.405   1.102
78015SOL    HW235879  10.755  10.433   1.245
78016SOL     OW35880   7.660   3.532   6.672
78016SOL    HW135881   7.569   3.512   6.653
78016SOL    HW235882   7.660   3.566   6.761
78017SOL     OW35883   0.985   8.998   7.381
78017SOL    HW135884   0.949   9.024   7.466
78017SOL    HW235885   1.062   8.946   7.402
78018SOL     OW35886  14.696   6.129  11.146
78018SOL    HW135887  14.694   6.035  11.164
78018SOL    HW235888  14.729   6.136  11.057
78019SOL     OW35889   8.591   5.039   4.424
78019SOL    HW135890   8.574   5.033   4.331
78019SOL    HW235891   8.620   5.129   4.438
78020SOL     OW35892   7.557   9.832   0.309
78020SOL    HW135893   7.558   9.925   0.289
78020SOL    HW235894   7.614   9.793   0.243
78021SOL     OW35895   8.352  14.856   0.565
78021SOL    HW135896   8.309   0.036   0.503
78021SOL    HW235897   8.344  14.769   0.526
78022SOL     OW35898  12.199   9.015   1.078
78022SOL    HW135899  12.162   9.013   1.166
78022SOL    HW235900  12.255   9.092   1.077
78023SOL     OW35901   8.014   2.810   2.149
78023SOL    HW135902   8.075   2.737   2.161
78023SOL    HW235903   7.928   2.773   2.170
78024SOL     OW35904   9.065   5.077  14.306
78024SOL    HW135905   8.969   5.072  14.309
78024SOL    HW235906   9.091   5.076  14.399
78025SOL     OW35907   0.292  13.158  11.933
78025SOL    HW135908   0.239  13.091  11.976
78025SOL    HW235909   0.371  13.164  11.987
78026SOL     OW35910   7.000   1.317   7.385
78026SOL    HW135911   6.949   1.310   7.466
78026SOL    HW235912   6.985   1.234   7.341
78027SOL     OW35913   1.135   3.973  13.322
78027SOL    HW135914   1.128   3.909  13.393
78027SOL    HW235915   1.227   3.970  13.297
78028SOL     OW35916  12.654   1.245  10.137
78028SOL    HW135917  12.607   1.163  10.152
78028SOL    HW235918  12.697   1.232  10.053
78029SOL     OW35919  12.592   3.879   5.901
78029SOL    HW135920  12.588   3.791   5.939
78029SOL    HW235921  12.637   3.866   5.817
78030SOL     OW35922   2.678   4.301   0.974
78030SOL    HW135923   2.702   4.334   0.887
78030SOL    HW235924   2.657   4.380   1.024
78031SOL     OW35925   7.714  13.150   1.498
78031SOL    HW135926   7.711  13.242   1.522
78031SOL    HW235927   7.777  13.146   1.425
78032SOL     OW35928   2.433  13.464   5.146
78032SOL    HW135929   2.428  13.369   5.139
78032SOL    HW235930   2.526  13.484   5.139
78033SOL     OW35931  14.334   7.040  10.152
78033SOL    HW135932  14.273   6.968  10.133
78033SOL    HW235933  14.314   7.106  10.085
78034SOL     OW35934   8.923   2.199   5.549
78034SOL    HW135935   8.987   2.141   5.590
78034SOL    HW235936   8.856   2.213   5.617
78035SOL     OW35937   8.247   9.112   5.197
78035SOL    HW135938   8.189   9.075   5.263
78035SOL    HW235939   8.214   9.201   5.183
78036SOL     OW35940   1.574  13.157   4.195
78036SOL    HW135941   1.662  13.175   4.162
78036SOL    HW235942   1.518  13.218   4.148
78037SOL     OW35943   5.991   0.333   8.490
78037SOL    HW135944   5.902   0.333   8.525
78037SOL    HW235945   6.044   0.373   8.559
78038SOL     OW35946   6.002   2.337   9.873
78038SOL    HW135947   6.044   2.281   9.808
78038SOL    HW235948   5.908   2.326   9.856
78039SOL     OW35949  12.309  10.704  13.174
78039SOL    HW135950  12.247  10.777  13.163
78039SOL    HW235951  12.265  10.645  13.235
78040SOL     OW35952   3.523   5.204   3.764
78040SOL    HW135953   3.428   5.210   3.749
78040SOL    HW235954   3.549   5.295   3.780
78041SOL     OW35955   1.745   7.477  10.422
78041SOL    HW135956   1.787   7.521  10.348
78041SOL    HW235957   1.659   7.518  10.428
78042SOL     OW35958   0.986  11.404  12.155
78042SOL    HW135959   0.905  11.355  12.138
78042SOL    HW235960   1.030  11.355  12.224
78043SOL     OW35961   7.693   5.908   7.252
78043SOL    HW135962   7.757   5.952   7.197
78043SOL    HW235963   7.696   5.956   7.335
78044SOL     OW35964  12.114   0.764   1.835
78044SOL    HW135965  12.180   0.697   1.849
78044SOL    HW235966  12.159   0.831   1.784
78045SOL     OW35967   4.975   3.720   7.449
78045SOL    HW135968   5.066   3.697   7.469
78045SOL    HW235969   4.969   3.715   7.354
78046SOL     OW35970   3.590   1.453   5.227
78046SOL    HW135971   3.601   1.370   5.273
78046SOL    HW235972   3.640   1.516   5.279
78047SOL     OW35973   0.538  12.186   3.605
78047SOL    HW135974   0.583  12.264   3.637
78047SOL    HW235975   0.597  12.148   3.541
78048SOL     OW35976  11.507   9.226   8.748
78048SOL    HW135977  11.532   9.298   8.806
78048SOL    HW235978  11.590   9.196   8.710
78049SOL     OW35979   7.143  12.228   5.705
78049SOL    HW135980   7.096  12.186   5.778
78049SOL    HW235981   7.074  12.262   5.648
78050SOL     OW35982   3.000   8.459   0.712
78050SOL    HW135983   3.057   8.423   0.644
78050SOL    HW235984   3.059   8.507   0.770
78051SOL     OW35985  12.225  14.083   4.617
78051SOL    HW135986  12.307  14.043   4.646
78051SOL    HW235987  12.174  14.010   4.583
78052SOL     OW35988   0.700  10.092   5.707
78052SOL    HW135989   0.646  10.140   5.769
78052SOL    HW235990   0.640  10.064   5.638
78053SOL     OW35991   9.970   3.444   9.212
78053SOL    HW135992   9.892   3.478   9.256
78053SOL    HW235993   9.935   3.399   9.134
78054SOL     OW35994  12.127  14.205   8.464
78054SOL    HW135995  12.170  14.271   8.519
78054SOL    HW235996  12.193  14.137   8.452
78055SOL     OW35997  13.504   7.704   4.851
78055SOL    HW135998  13.438   7.741   4.909
78055SOL    HW235999  13.581   7.760   4.862
78056SOL     OW36000   3.654   7.926   8.303
78056SOL    HW136001   3.730   7.909   8.248
78056SOL    HW236002   3.681   7.998   8.360
78057SOL     OW36003   7.855  14.339   0.502
78057SOL    HW136004   7.864  14.428   0.536
78057SOL    HW236005   7.812  14.349   0.417
78058SOL     OW36006   6.439  11.672   5.407
78058SOL    HW136007   6.348  11.672   5.376
78058SOL    HW236008   6.435  11.633   5.494
78059SOL     OW36009   2.868   9.803   7.120
78059SOL    HW136010   2.888   9.721   7.165
78059SOL    HW236011   2.921   9.869   7.166
78060SOL     OW36012   6.385   1.494   0.415
78060SOL    HW136013   6.348   1.544   0.342
78060SOL    HW236014   6.457   1.444   0.375
78061SOL     OW36015   1.678   7.043   0.133
78061SOL    HW136016   1.668   7.062   0.039
78061SOL    HW236017   1.606   7.088   0.175
78062SOL     OW36018  10.219   0.114  10.911
78062SOL    HW136019  10.211   0.209  10.922
78062SOL    HW236020  10.162   0.094  10.838
78063SOL     OW36021   1.978  14.580   4.439
78063SOL    HW136022   2.072  14.569   4.423
78063SOL    HW236023   1.952  14.655   4.386
78064SOL     OW36024   1.134   8.944  10.810
78064SOL    HW136025   1.074   8.869  10.816
78064SOL    HW236026   1.196   8.920  10.742
78065SOL     OW36027   3.710  13.414   8.286
78065SOL    HW136028   3.698  13.329   8.245
78065SOL    HW236029   3.803  13.418   8.307
78066SOL     OW36030   0.344  11.558   2.718
78066SOL    HW136031   0.357  11.650   2.696
78066SOL    HW236032   0.254  11.539   2.689
78067SOL     OW36033   6.045   5.846   6.591
78067SOL    HW136034   5.973   5.897   6.553
78067SOL    HW236035   6.119   5.905   6.592
78068SOL     OW36036   6.476   5.139   9.499
78068SOL    HW136037   6.428   5.058   9.481
78068SOL    HW236038   6.568   5.116   9.484
78069SOL     OW36039   5.908   4.075   5.901
78069SOL    HW136040   5.890   4.164   5.931
78069SOL    HW236041   5.966   4.039   5.968
78070SOL     OW36042  11.570   9.555  13.238
78070SOL    HW136043  11.509   9.527  13.306
78070SOL    HW236044  11.561   9.489  13.169
78071SOL     OW36045   4.363   8.640  13.245
78071SOL    HW136046   4.350   8.548  13.222
78071SOL    HW236047   4.279   8.668  13.282
78072SOL     OW36048   2.471   3.796   3.856
78072SOL    HW136049   2.482   3.828   3.945
78072SOL    HW236050   2.408   3.856   3.816
78073SOL     OW36051   0.773   9.249  13.345
78073SOL    HW136052   0.751   9.297  13.425
78073SOL    HW236053   0.689   9.236  13.301
78074SOL     OW36054   8.952   9.567   1.392
78074SOL    HW136055   8.914   9.529   1.471
78074SOL    HW236056   9.046   9.563   1.407
78075SOL     OW36057   6.723  14.809  11.477
78075SOL    HW136058   6.786  14.745  11.443
78075SOL    HW236059   6.657  14.817  11.408
78076SOL     OW36060  14.398   0.338  10.736
78076SOL    HW136061  14.342   0.261  10.745
78076SOL    HW236062  14.404   0.373  10.825
78077SOL     OW36063   5.101  11.501  13.021
78077SOL    HW136064   5.086  11.591  13.051
78077SOL    HW236065   5.028  11.483  12.962
78078SOL     OW36066  13.936  12.318   7.248
78078SOL    HW136067  13.894  12.237   7.220
78078SOL    HW236068  13.900  12.385   7.190
78079SOL     OW36069   2.822  13.207   3.127
78079SOL    HW136070   2.795  13.205   3.035
78079SOL    HW236071   2.795  13.293   3.158
78080SOL     OW36072  14.219   4.604  14.521
78080SOL    HW136073  14.224   4.510  14.508
78080SOL    HW236074  14.308   4.635  14.504
78081SOL     OW36075   5.528  13.779  13.209
78081SOL    HW136076   5.469  13.710  13.238
78081SOL    HW236077   5.595  13.734  13.157
78082SOL     OW36078  10.642   3.029   0.861
78082SOL    HW136079  10.633   3.124   0.870
78082SOL    HW236080  10.552   2.995   0.866
78083SOL     OW36081   3.812   9.179  14.631
78083SOL    HW136082   3.738   9.122  14.613
78083SOL    HW236083   3.775   9.267  14.632
78084SOL     OW36084  13.302  14.202   8.405
78084SOL    HW136085  13.235  14.204   8.473
78084SOL    HW236086  13.365  14.270   8.431
78085SOL     OW36087   4.779  13.270  14.286
78085SOL    HW136088   4.733  13.195  14.247
78085SOL    HW236089   4.714  13.310  14.344
78086SOL     OW36090   9.548  11.289   8.550
78086SOL    HW136091   9.512  11.305   8.463
78086SOL    HW236092   9.471  11.268   8.604
78087SOL     OW36093   8.179   6.464   2.950
78087SOL    HW136094   8.095   6.422   2.968
78087SOL    HW236095   8.243   6.405   2.990
78088SOL     OW36096  10.225   5.142   0.954
78088SOL    HW136097  10.131   5.127   0.944
78088SOL    HW236098  10.264   5.055   0.951
78089SOL     OW36099  11.792   6.155   0.770
78089SOL    HW136100  11.751   6.233   0.808
78089SOL    HW236101  11.864   6.188   0.718
78090SOL     OW36102   5.439   4.047  14.632
78090SOL    HW136103   5.465   3.961  14.664
78090SOL    HW236104   5.445   4.039  14.536
78091SOL     OW36105   7.287   6.652   3.898
78091SOL    HW136106   7.202   6.610   3.911
78091SOL    HW236107   7.271   6.745   3.912
78092SOL     OW36108   4.125   0.775   9.421
78092SOL    HW136109   4.031   0.791   9.410
78092SOL    HW236110   4.131   0.683   9.445
78093SOL     OW36111  13.134   9.357   3.874
78093SOL    HW136112  13.051   9.315   3.896
78093SOL    HW236113  13.193   9.331   3.944
78094SOL     OW36114   8.926  10.170   5.905
78094SOL    HW136115   9.012  10.195   5.872
78094SOL    HW236116   8.945  10.121   5.985
78095SOL     OW36117  10.041   8.999  13.366
78095SOL    HW136118  10.092   8.943  13.308
78095SOL    HW236119  10.039   8.953  13.449
78096SOL     OW36120  12.295   0.513  14.703
78096SOL    HW136121  12.329   0.602  14.715
78096SOL    HW236122  12.321   0.490  14.613
78097SOL     OW36123  11.010   8.478   5.232
78097SOL    HW136124  11.048   8.448   5.149
78097SOL    HW236125  11.008   8.399   5.287
78098SOL     OW36126   7.143  13.418   2.432
78098SOL    HW136127   7.219  13.453   2.478
78098SOL    HW236128   7.087  13.384   2.501
78099SOL     OW36129   8.340  12.465   4.878
78099SOL    HW136130   8.368  12.408   4.806
78099SOL    HW236131   8.414  12.465   4.938
78100SOL     OW36132  14.002   1.778   8.450
78100SOL    HW136133  14.033   1.842   8.386
78100SOL    HW236134  14.059   1.702   8.437
78101SOL     OW36135  11.958  10.735   4.073
78101SOL    HW136136  11.927  10.819   4.039
78101SOL    HW236137  12.006  10.696   4.000
78102SOL     OW36138   8.278   2.138   8.878
78102SOL    HW136139   8.364   2.171   8.850
78102SOL    HW236140   8.228   2.217   8.901
78103SOL     OW36141   4.792   6.973   6.524
78103SOL    HW136142   4.842   7.034   6.579
78103SOL    HW236143   4.825   6.988   6.435
78104SOL     OW36144   1.745   4.369   9.561
78104SOL    HW136145   1.662   4.326   9.585
78104SOL    HW236146   1.798   4.364   9.641
78105SOL     OW36147   6.232  13.366   3.163
78105SOL    HW136148   6.202  13.275   3.161
78105SOL    HW236149   6.317  13.363   3.207
78106SOL     OW36150   5.158  11.971   5.092
78106SOL    HW136151   5.097  11.943   5.160
78106SOL    HW236152   5.243  11.937   5.120
78107SOL     OW36153   4.580   8.768  10.105
78107SOL    HW136154   4.498   8.813  10.084
78107SOL    HW236155   4.611   8.809  10.186
78108SOL     OW36156  12.144   8.116   3.587
78108SOL    HW136157  12.063   8.118   3.535
78108SOL    HW236158  12.214   8.128   3.522
78109SOL     OW36159   7.796   4.371   6.216
78109SOL    HW136160   7.874   4.404   6.260
78109SOL    HW236161   7.760   4.306   6.276
78110SOL     OW36162  12.576   1.235   9.107
78110SOL    HW136163  12.535   1.158   9.068
78110SOL    HW236164  12.573   1.219   9.201
78111SOL     OW36165  10.499   5.264   7.602
78111SOL    HW136166  10.548   5.252   7.684
78111SOL    HW236167  10.407   5.251   7.628
78112SOL     OW36168   2.718   9.868   7.396
78112SOL    HW136169   2.774   9.942   7.373
78112SOL    HW236170   2.748   9.842   7.484
78113SOL     OW36171   6.356   0.473   0.901
78113SOL    HW136172   6.260   0.467   0.905
78113SOL    HW236173   6.378   0.548   0.955
78114SOL     OW36174  11.523  12.144  12.488
78114SOL    HW136175  11.585  12.212  12.515
78114SOL    HW236176  11.552  12.065  12.534
78115SOL     OW36177  14.296  10.324   4.355
78115SOL    HW136178  14.309  10.348   4.446
78115SOL    HW236179  14.370  10.267   4.334
78116SOL     OW36180   6.342  13.915   9.954
78116SOL    HW136181   6.311  13.894   9.866
78116SOL    HW236182   6.384  14.000   9.946
78117SOL     OW36183  14.564   7.445   2.402
78117SOL    HW136184  14.472   7.428   2.423
78117SOL    HW236185  14.568   7.539   2.386
78118SOL     OW36186  13.068   9.064  12.323
78118SOL    HW136187  13.116   9.128  12.270
78118SOL    HW236188  13.008   9.117  12.376
78119SOL     OW36189   9.393   4.968   8.599
78119SOL    HW136190   9.363   5.022   8.526
78119SOL    HW236191   9.326   4.901   8.609
78120SOL     OW36192   0.217   3.663   0.414
78120SOL    HW136193   0.228   3.568   0.411
78120SOL    HW236194   0.283   3.692   0.477
78121SOL     OW36195  13.655  13.721  10.780
78121SOL    HW136196  13.725  13.726  10.845
78121SOL    HW236197  13.618  13.809  10.777
78122SOL     OW36198  14.308   5.495   4.293
78122SOL    HW136199  14.305   5.590   4.288
78122SOL    HW236200  14.219   5.466   4.273
78123SOL     OW36201  12.761   7.446  10.229
78123SOL    HW136202  12.718   7.417  10.149
78123SOL    HW236203  12.731   7.384  10.296
78124SOL     OW36204   5.947   4.221   8.638
78124SOL    HW136205   5.964   4.239   8.545
78124SOL    HW236206   5.952   4.307   8.680
78125SOL     OW36207   9.864  14.485   3.347
78125SOL    HW136208   9.815  14.433   3.283
78125SOL    HW236209   9.831  14.457   3.432
78126SOL     OW36210   2.488   6.884   3.908
78126SOL    HW136211   2.570   6.836   3.921
78126SOL    HW236212   2.483   6.945   3.981
78127SOL     OW36213  11.496   6.400  14.724
78127SOL    HW136214  11.585   6.410  14.757
78127SOL    HW236215  11.476   6.485  14.685
78128SOL     OW36216   3.470   2.327  12.487
78128SOL    HW136217   3.494   2.419  12.480
78128SOL    HW236218   3.524   2.283  12.421
78129SOL     OW36219   4.871   5.989   3.280
78129SOL    HW136220   4.787   6.030   3.258
78129SOL    HW236221   4.931   6.021   3.213
78130SOL     OW36222   7.878  12.360   6.374
78130SOL    HW136223   7.853  12.416   6.300
78130SOL    HW236224   7.945  12.302   6.337
78131SOL     OW36225   9.093   7.350   4.322
78131SOL    HW136226   9.064   7.426   4.272
78131SOL    HW236227   9.149   7.386   4.391
78132SOL     OW36228   1.282   7.540  10.520
78132SOL    HW136229   1.309   7.461  10.474
78132SOL    HW236230   1.199   7.565  10.478
78133SOL     OW36231   3.592   3.194   4.167
78133SOL    HW136232   3.504   3.199   4.205
78133SOL    HW236233   3.644   3.256   4.218
78134SOL     OW36234   2.070   2.047   4.142
78134SOL    HW136235   2.163   2.067   4.155
78134SOL    HW236236   2.056   2.061   4.048
78135SOL     OW36237   1.466   3.986   8.906
78135SOL    HW136238   1.536   4.023   8.854
78135SOL    HW236239   1.475   3.891   8.894
78136SOL     OW36240  10.838  12.510  10.755
78136SOL    HW136241  10.862  12.552  10.837
78136SOL    HW236242  10.902  12.541  10.692
78137SOL     OW36243  11.572  11.178   0.937
78137SOL    HW136244  11.544  11.098   0.893
78137SOL    HW236245  11.540  11.169   1.027
78138SOL     OW36246  14.290   6.895   0.224
78138SOL    HW136247  14.214   6.878   0.279
78138SOL    HW236248  14.257   6.887   0.134
78139SOL     OW36249   4.064   9.815  11.575
78139SOL    HW136250   4.058   9.720  11.578
78139SOL    HW236251   4.147   9.832  11.531
78140SOL     OW36252   6.942   2.929   7.924
78140SOL    HW136253   6.913   2.838   7.929
78140SOL    HW236254   6.874   2.972   7.872
78141SOL     OW36255   6.021  14.727   6.367
78141SOL    HW136256   6.068  14.809   6.352
78141SOL    HW236257   5.932  14.755   6.391
78142SOL     OW36258   3.901  14.219  14.150
78142SOL    HW136259   3.980  14.267  14.125
78142SOL    HW236260   3.830  14.260  14.100
78143SOL     OW36261   2.093   0.428  14.424
78143SOL    HW136262   2.058   0.462  14.507
78143SOL    HW236263   2.019   0.431  14.364
78144SOL     OW36264   4.588   7.184  12.903
78144SOL    HW136265   4.652   7.152  12.840
78144SOL    HW236266   4.635   7.185  12.987
78145SOL     OW36267   2.321   6.256   5.620
78145SOL    HW136268   2.249   6.249   5.557
78145SOL    HW236269   2.292   6.322   5.682
78146SOL     OW36270   7.510   9.108  11.173
78146SOL    HW136271   7.506   9.094  11.078
78146SOL    HW236272   7.428   9.071  11.206
78147SOL     OW36273  14.784   5.584   3.222
78147SOL    HW136274  14.729   5.650   3.264
78147SOL    HW236275  14.873   5.618   3.229
78148SOL     OW36276   2.852   3.923   4.064
78148SOL    HW136277   2.864   3.963   3.978
78148SOL    HW236278   2.927   3.954   4.115
78149SOL     OW36279   7.367  11.499   6.541
78149SOL    HW136280   7.354  11.566   6.474
78149SOL    HW236281   7.341  11.417   6.499
78150SOL     OW36282  12.272  13.305  12.380
78150SOL    HW136283  12.192  13.350  12.409
78150SOL    HW236284  12.313  13.366  12.318
78151SOL     OW36285   5.923  13.423   0.798
78151SOL    HW136286   6.002  13.406   0.748
78151SOL    HW236287   5.954  13.459   0.881
78152SOL     OW36288   9.893   5.131   1.364
78152SOL    HW136289   9.953   5.059   1.382
78152SOL    HW236290   9.886   5.178   1.447
78153SOL     OW36291   7.736  13.784  11.369
78153SOL    HW136292   7.720  13.869  11.411
78153SOL    HW236293   7.728  13.721  11.440
78154SOL     OW36294   4.673  14.368  10.404
78154SOL    HW136295   4.748  14.309  10.406
78154SOL    HW236296   4.615  14.335  10.473
78155SOL     OW36297   8.339  10.223  11.829
78155SOL    HW136298   8.364  10.139  11.789
78155SOL    HW236299   8.300  10.199  11.913
78156SOL     OW36300  10.967  12.661   5.747
78156SOL    HW136301  10.994  12.690   5.660
78156SOL    HW236302  11.007  12.723   5.807
78157SOL     OW36303   1.539   0.952  10.801
78157SOL    HW136304   1.558   1.012  10.873
78157SOL    HW236305   1.473   0.893  10.836
78158SOL     OW36306   6.758  10.438   6.949
78158SOL    HW136307   6.730  10.530   6.940
78158SOL    HW236308   6.852  10.440   6.933
78159SOL     OW36309   7.751   3.314  12.151
78159SOL    HW136310   7.786   3.266  12.076
78159SOL    HW236311   7.829   3.341  12.200
78160SOL     OW36312  11.343   7.265   4.429
78160SOL    HW136313  11.390   7.340   4.394
78160SOL    HW236314  11.258   7.300   4.457
78161SOL     OW36315   9.972   9.787   0.199
78161SOL    HW136316   9.909   9.822   0.262
78161SOL    HW236317   9.960   9.840   0.120
78162SOL     OW36318   1.887   9.048  10.984
78162SOL    HW136319   1.953   9.104  11.023
78162SOL    HW236320   1.810   9.105  10.973
78163SOL     OW36321   0.238   0.763  10.059
78163SOL    HW136322   0.313   0.705  10.047
78163SOL    HW236323   0.165   0.716  10.017
78164SOL     OW36324   9.435   7.522   8.448
78164SOL    HW136325   9.500   7.494   8.512
78164SOL    HW236326   9.352   7.521   8.496
78165SOL     OW36327   1.831   9.064  14.600
78165SOL    HW136328   1.771   8.996  14.629
78165SOL    HW236329   1.803   9.086  14.511
78166SOL     OW36330   5.265   9.778   7.964
78166SOL    HW136331   5.296   9.859   7.923
78166SOL    HW236332   5.255   9.800   8.056
78167SOL     OW36333   8.033   6.035   0.057
78167SOL    HW136334   8.064   5.949   0.084
78167SOL    HW236335   8.087   6.096   0.107
78168SOL     OW36336   4.318  14.152  14.487
78168SOL    HW136337   4.403  14.109  14.474
78168SOL    HW236338   4.254  14.084  14.465
78169SOL     OW36339   7.088   6.591  14.811
78169SOL    HW136340   7.136   6.648  14.871
78169SOL    HW236341   7.152   6.565  14.745
78170SOL     OW36342   1.520   6.376   5.262
78170SOL    HW136343   1.495   6.459   5.221
78170SOL    HW236344   1.451   6.359   5.326
78171SOL     OW36345   6.895   6.519  10.101
78171SOL    HW136346   6.828   6.479  10.046
78171SOL    HW236347   6.968   6.536  10.041
78172SOL     OW36348  13.708   1.832  12.826
78172SOL    HW136349  13.723   1.926  12.818
78172SOL    HW236350  13.730   1.796  12.740
78173SOL     OW36351   0.329  12.383   1.483
78173SOL    HW136352   0.389  12.415   1.551
78173SOL    HW236353   0.339  12.288   1.485
78174SOL     OW36354  13.111   7.292   5.633
78174SOL    HW136355  13.203   7.269   5.620
78174SOL    HW236356  13.111   7.387   5.638
78175SOL     OW36357  12.339   8.985  12.425
78175SOL    HW136358  12.329   8.905  12.374
78175SOL    HW236359  12.434   8.992  12.440
78176SOL     OW36360   5.038   6.055   3.097
78176SOL    HW136361   5.010   6.112   3.026
78176SOL    HW236362   5.108   6.103   3.140
78177SOL     OW36363   5.263   0.470  11.616
78177SOL    HW136364   5.288   0.387  11.656
78177SOL    HW236365   5.173   0.484  11.644
78178SOL     OW36366   2.879   3.690   2.252
78178SOL    HW136367   2.916   3.770   2.214
78178SOL    HW236368   2.883   3.626   2.182
78179SOL     OW36369   8.198  14.717   7.792
78179SOL    HW136370   8.107  14.747   7.785
78179SOL    HW236371   8.246  14.772   7.730
78180SOL     OW36372   1.701  10.731   4.578
78180SOL    HW136373   1.730  10.677   4.651
78180SOL    HW236374   1.696  10.820   4.613
78181SOL     OW36375   9.073  13.662   7.986
78181SOL    HW136376   9.034  13.739   8.026
78181SOL    HW236377   9.126  13.622   8.055
78182SOL     OW36378   7.029   7.492  14.153
78182SOL    HW136379   7.099   7.553  14.129
78182SOL    HW236380   7.053   7.463  14.242
78183SOL     OW36381   0.192   5.850   7.355
78183SOL    HW136382   0.263   5.868   7.293
78183SOL    HW236383   0.233   5.856   7.441
78184SOL     OW36384   5.891  10.623   5.567
78184SOL    HW136385   5.978  10.595   5.596
78184SOL    HW236386   5.832  10.594   5.637
78185SOL     OW36387   5.496  10.571   1.021
78185SOL    HW136388   5.450  10.491   0.996
78185SOL    HW236389   5.582  10.564   0.979
78186SOL     OW36390   6.396  11.152   7.540
78186SOL    HW136391   6.301  11.160   7.547
78186SOL    HW236392   6.420  11.084   7.604
78187SOL     OW36393   8.798   5.941  13.931
78187SOL    HW136394   8.741   5.962  14.005
78187SOL    HW236395   8.885   5.930  13.970
78188SOL     OW36396   4.924   7.800  12.198
78188SOL    HW136397   4.913   7.894  12.213
78188SOL    HW236398   4.903   7.788  12.106
78189SOL     OW36399  14.204  13.481  12.552
78189SOL    HW136400  14.210  13.551  12.487
78189SOL    HW236401  14.225  13.401  12.503
78190SOL     OW36402   7.579   4.509   3.675
78190SOL    HW136403   7.542   4.594   3.652
78190SOL    HW236404   7.504   4.449   3.675
78191SOL     OW36405   0.737   6.245   8.744
78191SOL    HW136406   0.652   6.203   8.759
78191SOL    HW236407   0.800   6.188   8.788
78192SOL     OW36408  11.816  12.907  12.662
78192SOL    HW136409  11.795  12.827  12.710
78192SOL    HW236410  11.861  12.877  12.583
78193SOL     OW36411   7.904  10.316   5.001
78193SOL    HW136412   7.842  10.384   4.975
78193SOL    HW236413   7.869  10.236   4.962
78194SOL     OW36414  14.150  11.674   6.891
78194SOL    HW136415  14.207  11.598   6.897
78194SOL    HW236416  14.062  11.639   6.901
78195SOL     OW36417   8.234  12.907   6.319
78195SOL    HW136418   8.217  12.875   6.408
78195SOL    HW236419   8.242  12.828   6.266
78196SOL     OW36420  11.495   9.201  10.194
78196SOL    HW136421  11.461   9.231  10.278
78196SOL    HW236422  11.462   9.265  10.130
78197SOL     OW36423   7.701  12.411   3.324
78197SOL    HW136424   7.644  12.336   3.309
78197SOL    HW236425   7.642  12.484   3.342
78198SOL     OW36426  11.929  11.971   9.964
78198SOL    HW136427  12.011  11.951   9.918
78198SOL    HW236428  11.902  11.889  10.004
78199SOL     OW36429  13.480   5.736   5.117
78199SOL    HW136430  13.403   5.685   5.144
78199SOL    HW236431  13.546   5.670   5.095
78200SOL     OW36432  12.416  14.169  11.121
78200SOL    HW136433  12.455  14.104  11.062
78200SOL    HW236434  12.471  14.246  11.111
78201SOL     OW36435   2.709   5.128   6.240
78201SOL    HW136436   2.654   5.184   6.295
78201SOL    HW236437   2.674   5.040   6.254
78202SOL     OW36438   9.096  13.035   9.054
78202SOL    HW136439   9.048  12.981   8.991
78202SOL    HW236440   9.167  12.979   9.085
78203SOL     OW36441  12.873   5.210   7.790
78203SOL    HW136442  12.897   5.118   7.775
78203SOL    HW236443  12.824   5.209   7.872
78204SOL     OW36444   3.459   7.003  13.631
78204SOL    HW136445   3.542   6.969  13.600
78204SOL    HW236446   3.433   6.945  13.702
78205SOL     OW36447   8.841   5.019  10.444
78205SOL    HW136448   8.923   5.067  10.445
78205SOL    HW236449   8.783   5.073  10.389
78206SOL     OW36450   4.196   8.055   8.482
78206SOL    HW136451   4.240   7.981   8.524
78206SOL    HW236452   4.179   8.026   8.392
78207SOL     OW36453   0.558   1.602  12.147
78207SOL    HW136454   0.643   1.607  12.192
78207SOL    HW236455   0.494   1.597  12.217
78208SOL     OW36456   3.726  12.517   6.272
78208SOL    HW136457   3.814  12.553   6.282
78208SOL    HW236458   3.718  12.451   6.341
78209SOL     OW36459  11.070   5.810   5.218
78209SOL    HW136460  11.050   5.888   5.165
78209SOL    HW236461  11.007   5.814   5.290
78210SOL     OW36462  11.225   8.606   6.239
78210SOL    HW136463  11.235   8.702   6.240
78210SOL    HW236464  11.206   8.583   6.330
78211SOL     OW36465   0.883   1.701   0.559
78211SOL    HW136466   0.853   1.727   0.472
78211SOL    HW236467   0.836   1.759   0.619
78212SOL     OW36468  10.082   5.909   1.505
78212SOL    HW136469  10.137   5.967   1.558
78212SOL    HW236470  10.037   5.854   1.569
78213SOL     OW36471   2.193   0.150   2.322
78213SOL    HW136472   2.264   0.161   2.258
78213SOL    HW236473   2.161   0.061   2.307
78214SOL     OW36474   1.038   4.598  14.115
78214SOL    HW136475   1.045   4.673  14.056
78214SOL    HW236476   1.048   4.634  14.202
78215SOL     OW36477   1.001   5.166   8.967
78215SOL    HW136478   1.013   5.071   8.955
78215SOL    HW236479   0.959   5.174   9.053
78216SOL     OW36480  11.788   8.189  14.013
78216SOL    HW136481  11.790   8.258  13.946
78216SOL    HW236482  11.747   8.114  13.970
78217SOL     OW36483  11.060  14.657   3.010
78217SOL    HW136484  11.051  14.702   3.095
78217SOL    HW236485  10.993  14.698   2.955
78218SOL     OW36486   0.035  14.562  14.371
78218SOL    HW136487   0.119  14.527  14.400
78218SOL    HW236488   0.052  14.656  14.361
78219SOL     OW36489  11.005   1.304   7.736
78219SOL    HW136490  10.912   1.301   7.714
78219SOL    HW236491  11.028   1.213   7.756
78220SOL     OW36492  11.540  13.751  11.641
78220SOL    HW136493  11.568  13.798  11.562
78220SOL    HW236494  11.457  13.710  11.616
78221SOL     OW36495  13.911   0.699   3.649
78221SOL    HW136496  13.850   0.773   3.642
78221SOL    HW236497  13.997   0.739   3.652
78222SOL     OW36498   5.137  10.341  12.369
78222SOL    HW136499   5.070  10.349  12.301
78222SOL    HW236500   5.219  10.357  12.322
78223SOL     OW36501   0.728   1.914  13.774
78223SOL    HW136502   0.714   1.975  13.846
78223SOL    HW236503   0.810   1.942  13.733
78224SOL     OW36504  11.099  12.298   2.217
78224SOL    HW136505  11.069  12.208   2.226
78224SOL    HW236506  11.120  12.307   2.124
78225SOL     OW36507  10.638   9.839   3.548
78225SOL    HW136508  10.590   9.757   3.556
78225SOL    HW236509  10.655   9.866   3.638
78226SOL     OW36510   6.375   5.440   4.177
78226SOL    HW136511   6.408   5.528   4.157
78226SOL    HW236512   6.294   5.433   4.127
78227SOL     OW36513   8.428  11.812   8.714
78227SOL    HW136514   8.399  11.897   8.681
78227SOL    HW236515   8.351  11.775   8.757
78228SOL     OW36516  14.310   0.319  12.910
78228SOL    HW136517  14.247   0.290  12.844
78228SOL    HW236518  14.277   0.285  12.992
78229SOL     OW36519   2.821  11.391   0.720
78229SOL    HW136520   2.885  11.324   0.696
78229SOL    HW236521   2.741  11.342   0.738
78230SOL     OW36522   6.109   5.514  13.855
78230SOL    HW136523   6.038   5.496  13.794
78230SOL    HW236524   6.180   5.457  13.826
78231SOL     OW36525   7.725   7.349  11.833
78231SOL    HW136526   7.680   7.433  11.844
78231SOL    HW236527   7.728   7.335  11.739
78232SOL     OW36528  11.470   3.366  10.170
78232SOL    HW136529  11.390   3.315  10.155
78232SOL    HW236530  11.443   3.457  10.163
78233SOL     OW36531   6.648  11.212  11.559
78233SOL    HW136532   6.616  11.296  11.591
78233SOL    HW236533   6.681  11.168  11.638
78234SOL     OW36534   0.239   9.021  10.841
78234SOL    HW136535   0.260   9.102  10.888
78234SOL    HW236536   0.181   9.049  10.770
78235SOL     OW36537   3.250   3.382   9.760
78235SOL    HW136538   3.257   3.305   9.816
78235SOL    HW236539   3.319   3.441   9.792
78236SOL     OW36540   3.151  12.516   3.448
78236SOL    HW136541   3.194  12.502   3.533
78236SOL    HW236542   3.068  12.558   3.470
78237SOL     OW36543  10.234   4.410   3.790
78237SOL    HW136544  10.272   4.354   3.722
78237SOL    HW236545  10.147   4.373   3.806
78238SOL     OW36546   3.337   2.923  10.602
78238SOL    HW136547   3.407   2.911  10.667
78238SOL    HW236548   3.297   2.836  10.594
78239SOL     OW36549  13.339   8.505   2.005
78239SOL    HW136550  13.314   8.442   2.073
78239SOL    HW236551  13.308   8.589   2.038
78240SOL     OW36552  14.167   6.569  13.602
78240SOL    HW136553  14.127   6.583  13.517
78240SOL    HW236554  14.260   6.552  13.582
78241SOL     OW36555   4.519  14.650   9.888
78241SOL    HW136556   4.462  14.668   9.963
78241SOL    HW236557   4.492  14.563   9.858
78242SOL     OW36558  12.229  13.934   1.716
78242SOL    HW136559  12.180  13.918   1.796
78242SOL    HW236560  12.163  13.964   1.653
78243SOL     OW36561  10.089   3.668   1.171
78243SOL    HW136562  10.063   3.753   1.138
78243SOL    HW236563  10.029   3.606   1.129
78244SOL     OW36564  12.792   1.792   6.284
78244SOL    HW136565  12.715   1.845   6.301
78244SOL    HW236566  12.847   1.805   6.361
78245SOL     OW36567   1.001   9.634  12.023
78245SOL    HW136568   1.003   9.640  11.927
78245SOL    HW236569   1.075   9.577  12.045
78246SOL     OW36570  11.295   6.363   1.116
78246SOL    HW136571  11.267   6.319   1.196
78246SOL    HW236572  11.307   6.455   1.142
78247SOL     OW36573   3.758   9.617   0.530
78247SOL    HW136574   3.780   9.602   0.438
78247SOL    HW236575   3.802   9.698   0.553
78248SOL     OW36576   8.454   8.122   0.670
78248SOL    HW136577   8.449   8.084   0.758
78248SOL    HW236578   8.541   8.099   0.638
78249SOL     OW36579  12.695  10.756   6.891
78249SOL    HW136580  12.691  10.689   6.959
78249SOL    HW236581  12.682  10.708   6.809
78250SOL     OW36582   8.999  13.592   5.469
78250SOL    HW136583   8.969  13.637   5.390
78250SOL    HW236584   9.094  13.603   5.468
78251SOL     OW36585   9.215   0.437   2.380
78251SOL    HW136586   9.184   0.405   2.465
78251SOL    HW236587   9.155   0.508   2.358
78252SOL     OW36588   0.175   3.134  10.367
78252SOL    HW136589   0.089   3.174  10.374
78252SOL    HW236590   0.175   3.066  10.435
78253SOL     OW36591   4.080   7.919   3.989
78253SOL    HW136592   4.108   7.976   4.060
78253SOL    HW236593   3.988   7.900   4.007
78254SOL     OW36594  14.227   1.109  11.112
78254SOL    HW136595  14.226   1.142  11.022
78254SOL    HW236596  14.216   1.187  11.166
78255SOL     OW36597  11.798   0.971   5.067
78255SOL    HW136598  11.847   0.930   4.995
78255SOL    HW236599  11.854   0.960   5.144
78256SOL     OW36600   5.596   5.653  12.149
78256SOL    HW136601   5.653   5.723  12.181
78256SOL    HW236602   5.642   5.573  12.172
78257SOL     OW36603   5.727   6.805  14.563
78257SOL    HW136604   5.680   6.740  14.616
78257SOL    HW236605   5.662   6.837  14.501
78258SOL     OW36606  13.812   9.085   2.185
78258SOL    HW136607  13.842   8.996   2.170
78258SOL    HW236608  13.826   9.101   2.278
78259SOL     OW36609  13.606   4.306   5.852
78259SOL    HW136610  13.664   4.245   5.806
78259SOL    HW236611  13.658   4.386   5.861
78260SOL     OW36612  14.644   3.092   5.395
78260SOL    HW136613  14.636   3.186   5.379
78260SOL    HW236614  14.724   3.084   5.448
78261SOL     OW36615   3.765   8.485   9.558
78261SOL    HW136616   3.780   8.540   9.635
78261SOL    HW236617   3.695   8.529   9.510
78262SOL     OW36618   6.494   4.388  10.021
78262SOL    HW136619   6.468   4.465  10.071
78262SOL    HW236620   6.553   4.422   9.954
78263SOL     OW36621  10.492   3.984  11.761
78263SOL    HW136622  10.540   4.065  11.747
78263SOL    HW236623  10.428   3.981  11.690
78264SOL     OW36624   7.620   6.908   0.139
78264SOL    HW136625   7.703   6.957   0.138
78264SOL    HW236626   7.590   6.910   0.048
78265SOL     OW36627   1.335   1.557  11.022
78265SOL    HW136628   1.292   1.499  11.085
78265SOL    HW236629   1.352   1.637  11.070
78266SOL     OW36630   2.651   1.246  12.278
78266SOL    HW136631   2.649   1.189  12.201
78266SOL    HW236632   2.560   1.256  12.303
78267SOL     OW36633  10.888  11.983   0.941
78267SOL    HW136634  10.912  11.893   0.965
78267SOL    HW236635  10.878  12.028   1.025
78268SOL     OW36636   9.589  14.389   0.956
78268SOL    HW136637   9.639  14.329   0.901
78268SOL    HW236638   9.639  14.395   1.038
78269SOL     OW36639   5.959   6.843  11.559
78269SOL    HW136640   5.913   6.925  11.543
78269SOL    HW236641   5.896   6.775  11.537
78270SOL     OW36642   7.529  14.503  13.737
78270SOL    HW136643   7.585  14.442  13.688
78270SOL    HW236644   7.570  14.589  13.725
78271SOL     OW36645   7.551   5.690   8.096
78271SOL    HW136646   7.640   5.717   8.119
78271SOL    HW236647   7.533   5.616   8.154
78272SOL     OW36648  10.821   5.651   1.902
78272SOL    HW136649  10.733   5.657   1.941
78272SOL    HW236650  10.805   5.615   1.814
78273SOL     OW36651   7.786  12.669   1.481
78273SOL    HW136652   7.819  12.722   1.554
78273SOL    HW236653   7.691  12.680   1.485
78274SOL     OW36654   0.521  10.918  14.545
78274SOL    HW136655   0.612  10.894  14.565
78274SOL    HW236656   0.505  10.995  14.600
78275SOL     OW36657   0.852   3.393   5.849
78275SOL    HW136658   0.829   3.404   5.757
78275SOL    HW236659   0.948   3.386   5.849
78276SOL     OW36660  11.931   5.351   2.228
78276SOL    HW136661  11.986   5.351   2.150
78276SOL    HW236662  11.960   5.274   2.277
78277SOL     OW36663   4.753   2.985  13.422
78277SOL    HW136664   4.689   3.051  13.446
78277SOL    HW236665   4.835   3.017  13.459
78278SOL     OW36666   0.951   0.782   5.749
78278SOL    HW136667   0.867   0.757   5.709
78278SOL    HW236668   0.956   0.877   5.737
78279SOL     OW36669   8.356  11.590   6.853
78279SOL    HW136670   8.415  11.629   6.788
78279SOL    HW236671   8.291  11.657   6.870
78280SOL     OW36672   7.527  10.397   9.271
78280SOL    HW136673   7.537  10.472   9.329
78280SOL    HW236674   7.610  10.390   9.224
78281SOL     OW36675  11.885  14.322   6.533
78281SOL    HW136676  11.916  14.238   6.568
78281SOL    HW236677  11.964  14.376   6.528
78282SOL     OW36678   1.925  12.400   1.558
78282SOL    HW136679   1.924  12.439   1.471
78282SOL    HW236680   1.967  12.314   1.545
78283SOL     OW36681  11.840   1.265  12.867
78283SOL    HW136682  11.902   1.194  12.886
78283SOL    HW236683  11.875   1.305  12.787
78284SOL     OW36684   4.943   3.763  10.797
78284SOL    HW136685   4.989   3.722  10.725
78284SOL    HW236686   4.852   3.767  10.768
78285SOL     OW36687  11.485   2.655   4.289
78285SOL    HW136688  11.541   2.602   4.346
78285SOL    HW236689  11.463   2.598   4.216
78286SOL     OW36690  10.574   7.129   6.674
78286SOL    HW136691  10.542   7.046   6.707
78286SOL    HW236692  10.510   7.155   6.608
78287SOL     OW36693   0.052   4.561   1.508
78287SOL    HW136694   0.092   4.544   1.593
78287SOL    HW236695   0.126   4.575   1.449
78288SOL     OW36696  11.473   2.385  14.746
78288SOL    HW136697  11.487   2.476  14.775
78288SOL    HW236698  11.472   2.391  14.650
78289SOL     OW36699   8.159  13.645   3.414
78289SOL    HW136700   8.174  13.560   3.372
78289SOL    HW236701   8.075  13.674   3.379
78290SOL     OW36702   3.241  13.935  13.455
78290SOL    HW136703   3.289  13.877  13.396
78290SOL    HW236704   3.187  13.876  13.508
78291SOL     OW36705  13.280   2.156   9.562
78291SOL    HW136706  13.208   2.110   9.520
78291SOL    HW236707  13.277   2.128   9.653
78292SOL     OW36708   3.410  14.596   8.834
78292SOL    HW136709   3.496  14.634   8.853
78292SOL    HW236710   3.371  14.583   8.920
78293SOL     OW36711  11.917   7.630  14.858
78293SOL    HW136712  11.935   7.575  14.782
78293SOL    HW236713  11.996   7.623   0.033
78294SOL     OW36714   7.574   9.357   4.233
78294SOL    HW136715   7.514   9.310   4.174
78294SOL    HW236716   7.640   9.395   4.175
78295SOL     OW36717   3.461   5.894  12.588
78295SOL    HW136718   3.497   5.817  12.631
78295SOL    HW236719   3.404   5.934  12.654
78296SOL     OW36720   7.481   8.454   4.107
78296SOL    HW136721   7.479   8.409   4.023
78296SOL    HW236722   7.549   8.409   4.157
78297SOL     OW36723   8.065   3.593  11.166
78297SOL    HW136724   8.008   3.626  11.236
78297SOL    HW236725   8.036   3.638  11.087
78298SOL     OW36726   0.169  14.001   1.982
78298SOL    HW136727   0.075  14.012   1.994
78298SOL    HW236728   0.196  14.079   1.933
78299SOL     OW36729   0.131   4.474   6.342
78299SOL    HW136730   0.045   4.448   6.309
78299SOL    HW236731   0.112   4.531   6.416
78300SOL     OW36732   6.913   4.799   4.189
78300SOL    HW136733   6.968   4.763   4.259
78300SOL    HW236734   6.903   4.891   4.212
78301SOL     OW36735  13.273   2.305  11.671
78301SOL    HW136736  13.281   2.340  11.759
78301SOL    HW236737  13.288   2.380  11.614
78302SOL     OW36738   4.971  10.453  12.181
78302SOL    HW136739   5.023  10.512  12.126
78302SOL    HW236740   4.883  10.459  12.144
78303SOL     OW36741   5.754   7.221  12.008
78303SOL    HW136742   5.838   7.247  12.047
78303SOL    HW236743   5.732   7.139  12.051
78304SOL     OW36744   8.782   9.567   2.850
78304SOL    HW136745   8.691   9.536   2.850
78304SOL    HW236746   8.776   9.657   2.818
78305SOL     OW36747   9.761   0.033  13.547
78305SOL    HW136748   9.689  14.849  13.543
78305SOL    HW236749   9.772   0.052  13.640
78306SOL     OW36750   8.716   5.678   5.152
78306SOL    HW136751   8.708   5.582   5.154
78306SOL    HW236752   8.718   5.704   5.244
78307SOL     OW36753   9.809   6.605   8.103
78307SOL    HW136754   9.808   6.560   8.018
78307SOL    HW236755   9.787   6.696   8.082
78308SOL     OW36756   1.509   8.440   8.441
78308SOL    HW136757   1.468   8.508   8.387
78308SOL    HW236758   1.522   8.481   8.526
78309SOL     OW36759   1.897   9.897   0.838
78309SOL    HW136760   1.917   9.824   0.779
78309SOL    HW236761   1.836   9.861   0.902
78310SOL     OW36762  11.177   3.279   2.971
78310SOL    HW136763  11.145   3.368   2.980
78310SOL    HW236764  11.146   3.251   2.885
78311SOL     OW36765   7.066   0.260   5.823
78311SOL    HW136766   7.158   0.253   5.847
78311SOL    HW236767   7.022   0.191   5.874
78312SOL     OW36768   8.688   2.359   3.035
78312SOL    HW136769   8.741   2.410   3.096
78312SOL    HW236770   8.739   2.280   3.018
78313SOL     OW36771  12.925   5.613   0.514
78313SOL    HW136772  12.939   5.662   0.594
78313SOL    HW236773  12.984   5.537   0.522
78314SOL     OW36774   5.294   0.124  10.058
78314SOL    HW136775   5.383   0.094  10.077
78314SOL    HW236776   5.284   0.203  10.110
78315SOL     OW36777   6.065   7.493  14.146
78315SOL    HW136778   5.983   7.530  14.177
78315SOL    HW236779   6.042   7.407  14.112
78316SOL     OW36780   2.460  11.228   7.935
78316SOL    HW136781   2.445  11.209   7.843
78316SOL    HW236782   2.400  11.171   7.982
78317SOL     OW36783   9.269  13.428   2.742
78317SOL    HW136784   9.206  13.395   2.678
78317SOL    HW236785   9.262  13.368   2.816
78318SOL     OW36786  10.602   5.753   7.566
78318SOL    HW136787  10.531   5.691   7.584
78318SOL    HW236788  10.661   5.745   7.641
78319SOL     OW36789  13.390  11.295   8.520
78319SOL    HW136790  13.312  11.344   8.543
78319SOL    HW236791  13.379  11.275   8.427
78320SOL     OW36792   0.956   4.065   0.034
78320SOL    HW136793   1.019   4.087   0.103
78320SOL    HW236794   0.891   4.011   0.078
78321SOL     OW36795  13.976  10.475  13.926
78321SOL    HW136796  13.898  10.511  13.884
78321SOL    HW236797  14.019  10.424  13.857
78322SOL     OW36798  13.927  13.381   8.861
78322SOL    HW136799  13.974  13.369   8.778
78322SOL    HW236800  13.855  13.318   8.857
78323SOL     OW36801   5.306  14.412   0.799
78323SOL    HW136802   5.232  14.381   0.747
78323SOL    HW236803   5.372  14.342   0.792
78324SOL     OW36804   7.283   2.953   1.175
78324SOL    HW136805   7.361   2.903   1.198
78324SOL    HW236806   7.303   2.991   1.089
78325SOL     OW36807   5.760  14.440  14.145
78325SOL    HW136808   5.853  14.443  14.168
78325SOL    HW236809   5.730  14.530  14.152
78326SOL     OW36810  10.441  11.051   0.136
78326SOL    HW136811  10.454  11.076   0.045
78326SOL    HW236812  10.520  11.083   0.181
78327SOL     OW36813   4.035  11.776   1.472
78327SOL    HW136814   4.128  11.796   1.464
78327SOL    HW236815   4.019  11.708   1.407
78328SOL     OW36816   7.791   7.810   6.464
78328SOL    HW136817   7.729   7.878   6.437
78328SOL    HW236818   7.737   7.745   6.510
78329SOL     OW36819   2.729   3.017   3.949
78329SOL    HW136820   2.640   3.045   3.925
78329SOL    HW236821   2.743   3.056   4.035
78330SOL     OW36822   7.015   2.240  10.078
78330SOL    HW136823   7.106   2.215  10.064
78330SOL    HW236824   7.020   2.330  10.111
78331SOL     OW36825   7.570   1.505  12.903
78331SOL    HW136826   7.483   1.486  12.939
78331SOL    HW236827   7.601   1.421  12.870
78332SOL     OW36828   5.448  12.514   4.619
78332SOL    HW136829   5.503  12.478   4.549
78332SOL    HW236830   5.507  12.530   4.692
78333SOL     OW36831   7.076   8.404   8.317
78333SOL    HW136832   7.085   8.480   8.260
78333SOL    HW236833   7.054   8.332   8.258
78334SOL     OW36834   0.177  10.758  12.754
78334SOL    HW136835   0.146  10.763  12.663
78334SOL    HW236836   0.105  10.717  12.802
78335SOL     OW36837   5.367   9.148   0.489
78335SOL    HW136838   5.384   9.095   0.411
78335SOL    HW236839   5.367   9.086   0.561
78336SOL     OW36840   2.365  14.677   0.721
78336SOL    HW136841   2.456  14.651   0.736
78336SOL    HW236842   2.342  14.730   0.797
78337SOL     OW36843   2.566   4.067   0.668
78337SOL    HW136844   2.604   4.151   0.643
78337SOL    HW236845   2.480   4.088   0.703
78338SOL     OW36846  10.507   0.584  12.662
78338SOL    HW136847  10.586   0.530  12.657
78338SOL    HW236848  10.527   0.661  12.608
78339SOL     OW36849  14.865  10.608   8.111
78339SOL    HW136850  14.868  10.686   8.055
78339SOL    HW236851   0.077  10.596   8.140
78340SOL     OW36852  12.252  13.053   4.647
78340SOL    HW136853  12.315  12.997   4.693
78340SOL    HW236854  12.280  13.051   4.555
78341SOL     OW36855   6.125   2.060  12.368
78341SOL    HW136856   6.040   2.031  12.402
78341SOL    HW236857   6.140   2.003  12.292
78342SOL     OW36858   7.068   1.238   8.300
78342SOL    HW136859   7.131   1.167   8.317
78342SOL    HW236860   7.108   1.315   8.339
78343SOL     OW36861   8.374   0.019   5.044
78343SOL    HW136862   8.441   0.013   5.112
78343SOL    HW236863   8.421   0.051   4.967
78344SOL     OW36864   7.762   3.475   9.964
78344SOL    HW136865   7.738   3.382   9.960
78344SOL    HW236866   7.853   3.477   9.933
78345SOL     OW36867   7.832   0.947  14.599
78345SOL    HW136868   7.845   0.868  14.547
78345SOL    HW236869   7.875   1.016  14.547
78346SOL     OW36870  10.040  10.307   7.238
78346SOL    HW136871  10.047  10.346   7.326
78346SOL    HW236872  10.125  10.321   7.198
78347SOL     OW36873   5.341   4.470   4.458
78347SOL    HW136874   5.266   4.418   4.429
78347SOL    HW236875   5.391   4.486   4.377
78348SOL     OW36876   1.216  14.703   8.383
78348SOL    HW136877   1.266  14.646   8.325
78348SOL    HW236878   1.268  14.706   8.464
78349SOL     OW36879   4.554   5.056   4.658
78349SOL    HW136880   4.600   4.976   4.630
78349SOL    HW236881   4.470   5.025   4.690
78350SOL     OW36882  11.401   0.926   4.561
78350SOL    HW136883  11.313   0.888   4.567
78350SOL    HW236884  11.406   0.986   4.635
78351SOL     OW36885   7.667   0.554   8.089
78351SOL    HW136886   7.757   0.587   8.092
78351SOL    HW236887   7.638   0.573   8.000
78352SOL     OW36888   1.364   5.333  14.804
78352SOL    HW136889   1.396   5.290   0.004
78352SOL    HW236890   1.377   5.427  14.820
78353SOL     OW36891   3.790   5.534   4.221
78353SOL    HW136892   3.851   5.568   4.156
78353SOL    HW236893   3.712   5.510   4.171
78354SOL     OW36894  13.811   1.434   1.349
78354SOL    HW136895  13.723   1.396   1.354
78354SOL    HW236896  13.800   1.511   1.293
78355SOL     OW36897   6.836   5.441   7.927
78355SOL    HW136898   6.809   5.394   8.006
78355SOL    HW236899   6.921   5.402   7.904
78356SOL     OW36900  13.941   0.583   7.453
78356SOL    HW136901  13.861   0.591   7.504
78356SOL    HW236902  13.967   0.674   7.435
78357SOL     OW36903  10.774   5.392  12.390
78357SOL    HW136904  10.699   5.375  12.333
78357SOL    HW236905  10.843   5.420  12.330
78358SOL     OW36906   8.864   2.562   6.472
78358SOL    HW136907   8.800   2.629   6.448
78358SOL    HW236908   8.947   2.596   6.440
78359SOL     OW36909   8.878   1.477   2.234
78359SOL    HW136910   8.884   1.465   2.139
78359SOL    HW236911   8.807   1.540   2.245
78360SOL     OW36912   8.860   0.641   8.661
78360SOL    HW136913   8.844   0.550   8.634
78360SOL    HW236914   8.956   0.649   8.659
78361SOL     OW36915   7.750   9.616  11.358
78361SOL    HW136916   7.728   9.533  11.401
78361SOL    HW236917   7.822   9.594  11.299
78362SOL     OW36918   2.046   3.100   2.662
78362SOL    HW136919   2.066   3.185   2.701
78362SOL    HW236920   2.131   3.057   2.653
78363SOL     OW36921   1.435   0.918   4.544
78363SOL    HW136922   1.481   0.944   4.624
78363SOL    HW236923   1.480   0.839   4.515
78364SOL     OW36924   5.217  13.671   5.332
78364SOL    HW136925   5.123  13.684   5.324
78364SOL    HW236926   5.233  13.672   5.426
78365SOL     OW36927   6.821  11.430   2.311
78365SOL    HW136928   6.844  11.363   2.376
78365SOL    HW236929   6.754  11.389   2.257
78366SOL     OW36930   5.490  11.422  10.083
78366SOL    HW136931   5.510  11.332  10.110
78366SOL    HW236932   5.551  11.440  10.012
78367SOL     OW36933   1.535   0.087  13.981
78367SOL    HW136934   1.513   0.141  14.056
78367SOL    HW236935   1.631   0.087  13.978
78368SOL     OW36936   0.361   7.660   2.088
78368SOL    HW136937   0.321   7.713   2.158
78368SOL    HW236938   0.365   7.571   2.125
78369SOL     OW36939  11.798   2.454   8.295
78369SOL    HW136940  11.728   2.510   8.331
78369SOL    HW236941  11.760   2.420   8.213
78370SOL     OW36942   6.208   7.648   8.857
78370SOL    HW136943   6.223   7.600   8.775
78370SOL    HW236944   6.291   7.695   8.872
78371SOL     OW36945   2.870   3.397  13.080
78371SOL    HW136946   2.833   3.359  13.160
78371SOL    HW236947   2.800   3.453  13.046
78372SOL     OW36948   4.362   3.903  14.225
78372SOL    HW136949   4.352   3.938  14.314
78372SOL    HW236950   4.273   3.905  14.189
78373SOL     OW36951  12.545  13.388   8.108
78373SOL    HW136952  12.619  13.331   8.086
78373SOL    HW236953  12.585  13.471   8.132
78374SOL     OW36954   8.383   4.431  10.220
78374SOL    HW136955   8.419   4.430  10.131
78374SOL    HW236956   8.460   4.437  10.277
78375SOL     OW36957   8.999   4.714   0.116
78375SOL    HW136958   9.049   4.698   0.196
78375SOL    HW236959   8.926   4.769   0.144
78376SOL     OW36960  11.807   2.266   4.670
78376SOL    HW136961  11.888   2.242   4.715
78376SOL    HW236962  11.804   2.208   4.594
78377SOL     OW36963   4.398  14.157   6.093
78377SOL    HW136964   4.342  14.115   6.027
78377SOL    HW236965   4.462  14.090   6.117
78378SOL     OW36966   9.885   3.327   4.834
78378SOL    HW136967   9.941   3.348   4.759
78378SOL    HW236968   9.943   3.336   4.910
78379SOL     OW36969   4.374   3.651   4.283
78379SOL    HW136970   4.385   3.561   4.252
78379SOL    HW236971   4.316   3.692   4.219
78380SOL     OW36972   1.941   5.680  14.006
78380SOL    HW136973   1.967   5.645  14.091
78380SOL    HW236974   1.846   5.666  14.002
78381SOL     OW36975   7.539   6.486   7.846
78381SOL    HW136976   7.484   6.501   7.923
78381SOL    HW236977   7.628   6.495   7.879
78382SOL     OW36978  11.951  11.844  14.075
78382SOL    HW136979  11.939  11.784  14.149
78382SOL    HW236980  12.045  11.840  14.057
78383SOL     OW36981  14.370  14.668   3.682
78383SOL    HW136982  14.395  14.735   3.618
78383SOL    HW236983  14.398  14.586   3.642
78384SOL     OW36984   6.132   8.925  12.918
78384SOL    HW136985   6.067   8.984  12.957
78384SOL    HW236986   6.081   8.848  12.893
78385SOL     OW36987   9.961   3.558   0.143
78385SOL    HW136988   9.959   3.626   0.076
78385SOL    HW236989  10.055   3.542   0.158
78386SOL     OW36990  11.520   6.164  11.672
78386SOL    HW136991  11.607   6.204  11.670
78386SOL    HW236992  11.528   6.083  11.622
78387SOL     OW36993  14.395   8.496   3.915
78387SOL    HW136994  14.340   8.452   3.980
78387SOL    HW236995  14.453   8.552   3.967
78388SOL     OW36996  12.888   6.564   6.341
78388SOL    HW136997  12.976   6.526   6.350
78388SOL    HW236998  12.829   6.492   6.365
78389SOL     OW36999  12.042   5.613   7.506
78389SOL    HW137000  11.960   5.604   7.456
78389SOL    HW237001  12.079   5.525   7.506
78390SOL     OW37002   0.788   0.753  14.822
78390SOL    HW137003   0.733   0.809  14.768
78390SOL    HW237004   0.802   0.802   0.024
78391SOL     OW37005   2.210  14.205   0.979
78391SOL    HW137006   2.186  14.139   0.914
78391SOL    HW237007   2.300  14.229   0.956
78392SOL     OW37008  11.600   7.360   9.044
78392SOL    HW137009  11.646   7.357   8.960
78392SOL    HW237010  11.588   7.268   9.068
78393SOL     OW37011   5.387   5.556   2.965
78393SOL    HW137012   5.446   5.520   2.899
78393SOL    HW237013   5.348   5.480   3.007
78394SOL     OW37014   6.566   0.584   5.714
78394SOL    HW137015   6.640   0.640   5.691
78394SOL    HW237016   6.543   0.539   5.632
78395SOL     OW37017   9.669   6.014  10.884
78395SOL    HW137018   9.762   6.037  10.876
78395SOL    HW237019   9.656   5.998  10.977
78396SOL     OW37020   6.597   4.232  11.837
78396SOL    HW137021   6.560   4.157  11.791
78396SOL    HW237022   6.673   4.196  11.884
78397SOL     OW37023   0.137   0.344   2.745
78397SOL    HW137024   0.195   0.327   2.819
78397SOL    HW237025   0.152   0.271   2.685
78398SOL     OW37026  11.478   8.610  11.570
78398SOL    HW137027  11.449   8.560  11.647
78398SOL    HW237028  11.553   8.561  11.537
78399SOL     OW37029   1.759   4.244   5.815
78399SOL    HW137030   1.758   4.277   5.905
78399SOL    HW237031   1.704   4.166   5.817
78400SOL     OW37032   3.495  12.279  11.237
78400SOL    HW137033   3.478  12.326  11.319
78400SOL    HW237034   3.574  12.319  11.202
78401SOL     OW37035   6.790   4.888  13.729
78401SOL    HW137036   6.791   4.900  13.634
78401SOL    HW237037   6.838   4.807  13.744
78402SOL     OW37038   7.136   3.663  12.856
78402SOL    HW137039   7.163   3.716  12.931
78402SOL    HW237040   7.152   3.573  12.883
78403SOL     OW37041  10.690   4.366   7.546
78403SOL    HW137042  10.740   4.284   7.552
78403SOL    HW237043  10.712   4.413   7.626
78404SOL     OW37044   0.678   8.797   0.272
78404SOL    HW137045   0.646   8.709   0.286
78404SOL    HW237046   0.649   8.819   0.183
78405SOL     OW37047  11.768   2.746   3.042
78405SOL    HW137048  11.860   2.770   3.035
78405SOL    HW237049  11.762   2.699   3.125
78406SOL     OW37050   2.431   6.792   1.611
78406SOL    HW137051   2.516   6.818   1.645
78406SOL    HW237052   2.420   6.702   1.640
78407SOL     OW37053   2.540   8.429  10.117
78407SOL    HW137054   2.597   8.499  10.149
78407SOL    HW237055   2.514   8.381  10.195
78408SOL     OW37056  13.012   9.526  11.611
78408SOL    HW137057  12.956   9.526  11.689
78408SOL    HW237058  12.950   9.527  11.537
78409SOL     OW37059   3.530  12.848  13.792
78409SOL    HW137060   3.493  12.769  13.830
78409SOL    HW237061   3.625  12.839  13.805
78410SOL     OW37062   9.640   2.392   8.622
78410SOL    HW137063   9.706   2.346   8.673
78410SOL    HW237064   9.636   2.345   8.539
78411SOL     OW37065   7.418  13.432   9.278
78411SOL    HW137066   7.336  13.440   9.229
78411SOL    HW237067   7.486  13.437   9.211
78412SOL     OW37068   0.038  14.806  10.511
78412SOL    HW137069  14.875   0.007  10.546
78412SOL    HW237070   0.116  14.838  10.467
78413SOL     OW37071   7.761  11.984   8.984
78413SOL    HW137072   7.803  11.996   9.069
78413SOL    HW237073   7.681  12.037   8.990
78414SOL     OW37074   2.287   9.706   7.287
78414SOL    HW137075   2.243   9.660   7.215
78414SOL    HW237076   2.331   9.780   7.245
78415SOL     OW37077   6.327   5.323  11.726
78415SOL    HW137078   6.271   5.383  11.678
78415SOL    HW237079   6.266   5.257  11.761
78416SOL     OW37080  10.973   8.449   3.142
78416SOL    HW137081  10.994   8.356   3.139
78416SOL    HW237082  10.896   8.458   3.086
78417SOL     OW37083  10.828   7.660   7.398
78417SOL    HW137084  10.836   7.753   7.377
78417SOL    HW237085  10.735   7.639   7.383
78418SOL     OW37086   2.906   9.676  13.871
78418SOL    HW137087   2.933   9.690  13.781
78418SOL    HW237088   2.850   9.598  13.868
78419SOL     OW37089   2.482   0.131   4.110
78419SOL    HW137090   2.389   0.110   4.120
78419SOL    HW237091   2.526   0.066   4.165
78420SOL     OW37092  11.940   5.425  10.483
78420SOL    HW137093  11.852   5.461  10.474
78420SOL    HW237094  11.984   5.484  10.545
78421SOL     OW37095   2.996   9.141  10.614
78421SOL    HW137096   2.912   9.114  10.653
78421SOL    HW237097   2.991   9.112  10.523
78422SOL     OW37098   2.895   4.444   9.637
78422SOL    HW137099   2.914   4.498   9.561
78422SOL    HW237100   2.874   4.506   9.706
78423SOL     OW37101   6.670   8.691  14.277
78423SOL    HW137102   6.643   8.605  14.308
78423SOL    HW237103   6.724   8.673  14.199
78424SOL     OW37104   0.450  13.152  14.192
78424SOL    HW137105   0.453  13.181  14.101
78424SOL    HW237106   0.537  13.119  14.210
78425SOL     OW37107   1.246  10.686   2.631
78425SOL    HW137108   1.280  10.605   2.594
78425SOL    HW237109   1.320  10.747   2.628
78426SOL     OW37110  11.036  13.000   4.546
78426SOL    HW137111  11.054  12.952   4.466
78426SOL    HW237112  10.949  12.971   4.573
78427SOL     OW37113   0.229   7.658   8.659
78427SOL    HW137114   0.134   7.661   8.647
78427SOL    HW237115   0.253   7.749   8.678
78428SOL     OW37116   3.846   2.947   8.944
78428SOL    HW137117   3.792   3.025   8.934
78428SOL    HW237118   3.877   2.949   9.034
78429SOL     OW37119  13.910   4.867   0.724
78429SOL    HW137120  13.970   4.933   0.758
78429SOL    HW237121  13.966   4.791   0.704
78430SOL     OW37122   6.500   1.097  10.990
78430SOL    HW137123   6.479   1.019  11.041
78430SOL    HW237124   6.473   1.075  10.901
78431SOL     OW37125  12.724   5.683   6.894
78431SOL    HW137126  12.689   5.667   6.806
78431SOL    HW237127  12.646   5.693   6.949
78432SOL     OW37128  12.412   8.266   4.657
78432SOL    HW137129  12.415   8.178   4.621
78432SOL    HW237130  12.414   8.323   4.580
78433SOL     OW37131   3.390  10.912   0.626
78433SOL    HW137132   3.362  10.986   0.573
78433SOL    HW237133   3.447  10.951   0.693
78434SOL     OW37134  13.379   8.326  14.315
78434SOL    HW137135  13.320   8.382  14.365
78434SOL    HW237136  13.338   8.239  14.317
78435SOL     OW37137   2.635   6.122   2.055
78435SOL    HW137138   2.617   6.028   2.060
78435SOL    HW237139   2.562   6.164   2.100
78436SOL     OW37140  11.308   7.364   1.827
78436SOL    HW137141  11.304   7.454   1.794
78436SOL    HW237142  11.216   7.334   1.828
78437SOL     OW37143   4.609   0.043  14.822
78437SOL    HW137144   4.535  14.870  14.854
78437SOL    HW237145   4.676  14.857  14.801
78438SOL     OW37146   7.430   0.175   9.500
78438SOL    HW137147   7.362   0.208   9.441
78438SOL    HW237148   7.445   0.085   9.471
78439SOL     OW37149  14.318   6.273   5.082
78439SOL    HW137150  14.297   6.220   5.159
78439SOL    HW237151  14.330   6.209   5.011
78440SOL     OW37152   6.592  10.599   0.492
78440SOL    HW137153   6.636  10.670   0.446
78440SOL    HW237154   6.536  10.643   0.556
78441SOL     OW37155   0.750   5.522   4.868
78441SOL    HW137156   0.693   5.591   4.835
78441SOL    HW237157   0.702   5.482   4.939
78442SOL     OW37158   8.569  10.702   3.803
78442SOL    HW137159   8.485  10.657   3.794
78442SOL    HW237160   8.628  10.653   3.745
78443SOL     OW37161  12.895  11.722  10.882
78443SOL    HW137162  12.971  11.771  10.852
78443SOL    HW237163  12.822  11.757  10.831
78444SOL     OW37164   8.612   6.856   2.889
78444SOL    HW137165   8.524   6.863   2.926
78444SOL    HW237166   8.665   6.821   2.960
78445SOL     OW37167   1.402   6.962   9.503
78445SOL    HW137168   1.405   6.880   9.453
78445SOL    HW237169   1.382   6.934   9.593
78446SOL     OW37170   7.242   9.015   9.477
78446SOL    HW137171   7.281   9.102   9.486
78446SOL    HW237172   7.313   8.954   9.501
78447SOL     OW37173   1.960  12.459   5.827
78447SOL    HW137174   1.929  12.550   5.823
78447SOL    HW237175   1.933  12.429   5.914
78448SOL     OW37176   6.890   5.731   8.813
78448SOL    HW137177   6.894   5.789   8.889
78448SOL    HW237178   6.797   5.718   8.797
78449SOL     OW37179   6.035  11.955   0.881
78449SOL    HW137180   5.949  11.997   0.879
78449SOL    HW237181   6.039  11.902   0.801
78450SOL     OW37182   7.335  13.578  13.634
78450SOL    HW137183   7.389  13.633  13.578
78450SOL    HW237184   7.397  13.521  13.680
78451SOL     OW37185  10.323   1.402   7.574
78451SOL    HW137186  10.264   1.375   7.645
78451SOL    HW237187  10.286   1.360   7.496
78452SOL     OW37188  14.230   1.960  14.157
78452SOL    HW137189  14.249   1.986  14.247
78452SOL    HW237190  14.276   1.877  14.146
78453SOL     OW37191   2.829   8.205  11.990
78453SOL    HW137192   2.838   8.266  12.064
78453SOL    HW237193   2.917   8.198  11.953
78454SOL     OW37194   1.425   3.608  10.997
78454SOL    HW137195   1.434   3.702  11.008
78454SOL    HW237196   1.515   3.575  11.003
78455SOL     OW37197  14.154   5.439   5.876
78455SOL    HW137198  14.215   5.407   5.810
78455SOL    HW237199  14.185   5.402   5.958
78456SOL     OW37200   0.909  13.355   4.828
78456SOL    HW137201   0.879  13.408   4.901
78456SOL    HW237202   1.004  13.366   4.827
78457SOL     OW37203   5.536   3.322   7.616
78457SOL    HW137204   5.544   3.230   7.643
78457SOL    HW237205   5.474   3.359   7.678
78458SOL     OW37206   4.237   6.268  13.670
78458SOL    HW137207   4.207   6.243  13.757
78458SOL    HW237208   4.246   6.363  13.674
78459SOL     OW37209   2.340   7.141  10.552
78459SOL    HW137210   2.374   7.211  10.607
78459SOL    HW237211   2.257   7.115  10.592
78460SOL     OW37212   3.476   4.458   3.453
78460SOL    HW137213   3.487   4.549   3.479
78460SOL    HW237214   3.550   4.440   3.395
78461SOL     OW37215   9.216   0.248   5.053
78461SOL    HW137216   9.165   0.327   5.033
78461SOL    HW237217   9.276   0.276   5.123
78462SOL     OW37218   5.681   9.414  12.127
78462SOL    HW137219   5.727   9.333  12.105
78462SOL    HW237220   5.720   9.480  12.070
78463SOL     OW37221  13.047   9.146   0.405
78463SOL    HW137222  13.117   9.200   0.443
78463SOL    HW237223  13.021   9.194   0.326
78464SOL     OW37224   6.551   5.880   1.698
78464SOL    HW137225   6.456   5.875   1.708
78464SOL    HW237226   6.585   5.862   1.785
78465SOL     OW37227   6.471   8.731  10.046
78465SOL    HW137228   6.454   8.639  10.063
78465SOL    HW237229   6.544   8.731   9.984
78466SOL     OW37230   2.875   0.801   2.783
78466SOL    HW137231   2.960   0.807   2.826
78466SOL    HW237232   2.824   0.744   2.840
78467SOL     OW37233   7.593   0.465   2.866
78467SOL    HW137234   7.532   0.455   2.940
78467SOL    HW237235   7.550   0.421   2.793
78468SOL     OW37236   8.622  12.834   8.812
78468SOL    HW137237   8.696  12.864   8.757
78468SOL    HW237238   8.634  12.881   8.895
78469SOL     OW37239  11.618   7.049   8.861
78469SOL    HW137240  11.541   7.084   8.905
78469SOL    HW237241  11.687   7.052   8.927
78470SOL     OW37242   7.441   0.981   5.108
78470SOL    HW137243   7.383   0.961   5.035
78470SOL    HW237244   7.387   0.966   5.186
78471SOL     OW37245  13.267   9.268  12.219
78471SOL    HW137246  13.270   9.353  12.176
78471SOL    HW237247  13.306   9.282  12.305
78472SOL     OW37248  12.154   6.149  14.495
78472SOL    HW137249  12.228   6.171  14.438
78472SOL    HW237250  12.082   6.131  14.434
78473SOL     OW37251  11.399  10.734  10.338
78473SOL    HW137252  11.349  10.810  10.308
78473SOL    HW237253  11.470  10.725  10.274
78474SOL     OW37254  10.696  14.528   3.082
78474SOL    HW137255  10.788  14.502   3.072
78474SOL    HW237256  10.652  14.487   3.008
78475SOL     OW37257   5.298   0.602   4.787
78475SOL    HW137258   5.217   0.579   4.741
78475SOL    HW237259   5.318   0.525   4.841
78476SOL     OW37260   3.268   5.767   8.918
78476SOL    HW137261   3.338   5.769   8.852
78476SOL    HW237262   3.271   5.854   8.958
78477SOL     OW37263   0.700   6.957   9.245
78477SOL    HW137264   0.697   6.873   9.199
78477SOL    HW237265   0.779   7.000   9.211
78478SOL     OW37266   6.917   0.855  13.349
78478SOL    HW137267   6.848   0.922  13.351
78478SOL    HW237268   6.877   0.781  13.303
78479SOL     OW37269  11.186   4.191  13.061
78479SOL    HW137270  11.153   4.101  13.057
78479SOL    HW237271  11.109   4.245  13.080
78480SOL     OW37272   0.463   8.520   7.571
78480SOL    HW137273   0.462   8.452   7.502
78480SOL    HW237274   0.551   8.515   7.607
78481SOL     OW37275   3.165  14.023   1.379
78481SOL    HW137276   3.129  14.066   1.301
78481SOL    HW237277   3.091  14.018   1.440
78482SOL     OW37278  12.061   6.912  10.902
78482SOL    HW137279  11.972   6.898  10.869
78482SOL    HW237280  12.091   6.825  10.929
78483SOL     OW37281  11.462   8.443   4.623
78483SOL    HW137282  11.373   8.469   4.645
78483SOL    HW237283  11.456   8.408   4.534
78484SOL     OW37284  13.205  12.920   9.818
78484SOL    HW137285  13.145  12.852   9.789
78484SOL    HW237286  13.172  12.946   9.904
78485SOL     OW37287   3.899   0.505   3.117
78485SOL    HW137288   3.987   0.528   3.087
78485SOL    HW237289   3.908   0.415   3.148
78486SOL     OW37290   2.707  10.664  11.731
78486SOL    HW137291   2.636  10.613  11.691
78486SOL    HW237292   2.668  10.749  11.751
78487SOL     OW37293  13.625  13.781   8.017
78487SOL    HW137294  13.586  13.720   7.954
78487SOL    HW237295  13.690  13.729   8.064
78488SOL     OW37296   3.485   4.013   7.770
78488SOL    HW137297   3.446   4.100   7.766
78488SOL    HW237298   3.564   4.018   7.717
78489SOL     OW37299  10.845   2.935   3.135
78489SOL    HW137300  10.798   2.872   3.080
78489SOL    HW237301  10.835   2.901   3.224
78490SOL     OW37302   9.733   4.401  10.930
78490SOL    HW137303   9.711   4.485  10.891
78490SOL    HW237304   9.782   4.424  11.009
78491SOL     OW37305  14.790   4.503   5.810
78491SOL    HW137306  14.790   4.495   5.715
78491SOL    HW237307  14.718   4.562   5.829
78492SOL     OW37308   2.781   5.149   9.189
78492SOL    HW137309   2.717   5.162   9.119
78492SOL    HW237310   2.860   5.118   9.145
78493SOL     OW37311  11.899   0.434   6.451
78493SOL    HW137312  11.818   0.484   6.453
78493SOL    HW237313  11.943   0.463   6.371
78494SOL     OW37314   6.665   8.408   5.394
78494SOL    HW137315   6.601   8.381   5.461
78494SOL    HW237316   6.649   8.502   5.383
78495SOL     OW37317   8.248   7.998  11.860
78495SOL    HW137318   8.269   7.920  11.809
78495SOL    HW237319   8.329   8.019  11.907
78496SOL     OW37320   7.575   1.784   1.989
78496SOL    HW137321   7.523   1.862   1.974
78496SOL    HW237322   7.523   1.713   1.951
78497SOL     OW37323  13.471   9.390   8.957
78497SOL    HW137324  13.531   9.316   8.966
78497SOL    HW237325  13.468   9.407   8.863
78498SOL     OW37326  13.510   1.858  13.695
78498SOL    HW137327  13.583   1.856  13.757
78498SOL    HW237328  13.435   1.888  13.746
78499SOL     OW37329   4.379  10.444   5.844
78499SOL    HW137330   4.392  10.361   5.799
78499SOL    HW237331   4.402  10.510   5.779
78500SOL     OW37332  10.946   4.388   7.880
78500SOL    HW137333  11.014   4.368   7.815
78500SOL    HW237334  10.897   4.460   7.841
78501SOL     OW37335  13.492   9.985  11.119
78501SOL    HW137336  13.422   9.969  11.056
78501SOL    HW237337  13.560   9.921  11.095
78502SOL     OW37338   3.612   5.340   4.096
78502SOL    HW137339   3.648   5.271   4.040
78502SOL    HW237340   3.517   5.332   4.086
78503SOL     OW37341   3.221  10.978   8.278
78503SOL    HW137342   3.275  10.968   8.357
78503SOL    HW237343   3.219  10.890   8.240
78504SOL     OW37344   2.250   1.172   8.282
78504SOL    HW137345   2.214   1.089   8.312
78504SOL    HW237346   2.195   1.238   8.324
78505SOL     OW37347  13.078   8.603   0.273
78505SOL    HW137348  13.164   8.561   0.274
78505SOL    HW237349  13.019   8.536   0.238
78506SOL     OW37350   4.542  10.360   6.712
78506SOL    HW137351   4.571  10.288   6.657
78506SOL    HW237352   4.577  10.340   6.799
78507SOL     OW37353   5.371   8.504   6.728
78507SOL    HW137354   5.276   8.505   6.719
78507SOL    HW237355   5.395   8.594   6.748
78508SOL     OW37356  10.789   8.084   6.351
78508SOL    HW137357  10.815   8.004   6.305
78508SOL    HW237358  10.696   8.069   6.372
78509SOL     OW37359   4.223  12.406   8.168
78509SOL    HW137360   4.192  12.315   8.172
78509SOL    HW237361   4.306  12.404   8.217
78510SOL     OW37362   9.999   0.644  12.402
78510SOL    HW137363   9.943   0.645  12.480
78510SOL    HW237364  10.088   0.654  12.436
78511SOL     OW37365  11.202   5.126   3.287
78511SOL    HW137366  11.192   5.040   3.328
78511SOL    HW237367  11.285   5.160   3.322
78512SOL     OW37368   3.004   0.477   8.391
78512SOL    HW137369   3.075   0.541   8.384
78512SOL    HW237370   3.048   0.394   8.411
78513SOL     OW37371   5.122  11.889  13.950
78513SOL    HW137372   5.211  11.858  13.967
78513SOL    HW237373   5.071  11.859  14.026
78514SOL     OW37374   2.541  11.381   1.889
78514SOL    HW137375   2.575  11.365   1.801
78514SOL    HW237376   2.497  11.299   1.912
78515SOL     OW37377  13.396   1.559   2.747
78515SOL    HW137378  13.414   1.607   2.828
78515SOL    HW237379  13.306   1.581   2.725
78516SOL     OW37380   9.420  12.216  12.594
78516SOL    HW137381   9.424  12.148  12.527
78516SOL    HW237382   9.501  12.266  12.583
78517SOL     OW37383   6.167   6.185   6.587
78517SOL    HW137384   6.211   6.173   6.671
78517SOL    HW237385   6.087   6.233   6.608
78518SOL     OW37386   5.236   7.666  12.675
78518SOL    HW137387   5.306   7.729  12.691
78518SOL    HW237388   5.243   7.604  12.748
78519SOL     OW37389   4.597  10.197   7.254
78519SOL    HW137390   4.591  10.280   7.302
78519SOL    HW237391   4.596  10.130   7.323
78520SOL     OW37392   8.385  13.134  13.579
78520SOL    HW137393   8.306  13.090  13.548
78520SOL    HW237394   8.371  13.144  13.673
78521SOL     OW37395  14.810   3.521  13.183
78521SOL    HW137396  14.793   3.472  13.264
78521SOL    HW237397  14.729   3.511  13.132
78522SOL     OW37398   6.259   7.116   8.708
78522SOL    HW137399   6.215   7.201   8.702
78522SOL    HW237400   6.340   7.135   8.756
78523SOL     OW37401   2.948  10.208  14.430
78523SOL    HW137402   2.875  10.219  14.370
78523SOL    HW237403   2.958  10.113  14.439
78524SOL     OW37404  14.614  14.735   0.532
78524SOL    HW137405  14.630  14.829   0.540
78524SOL    HW237406  14.687  14.695   0.579
78525SOL     OW37407  14.602   3.037  14.171
78525SOL    HW137408  14.521   3.075  14.139
78525SOL    HW237409  14.671   3.080  14.120
78526SOL     OW37410   0.769   5.485   2.723
78526SOL    HW137411   0.816   5.553   2.676
78526SOL    HW237412   0.789   5.404   2.675
78527SOL     OW37413   8.089   6.122  12.678
78527SOL    HW137414   8.157   6.187  12.696
78527SOL    HW237415   8.009   6.174  12.664
78528SOL     OW37416   5.058   2.703   7.436
78528SOL    HW137417   5.144   2.679   7.471
78528SOL    HW237418   4.998   2.639   7.474
78529SOL     OW37419  13.861   9.238   6.709
78529SOL    HW137420  13.881   9.145   6.701
78529SOL    HW237421  13.793   9.254   6.644
78530SOL     OW37422   1.092   3.714   5.705
78530SOL    HW137423   1.076   3.781   5.771
78530SOL    HW237424   1.005   3.691   5.673
78531SOL     OW37425   4.408  11.393   7.872
78531SOL    HW137426   4.386  11.464   7.812
78531SOL    HW237427   4.443  11.324   7.816
78532SOL     OW37428   1.638  10.992  10.918
78532SOL    HW137429   1.686  11.075  10.917
78532SOL    HW237430   1.546  11.018  10.924
78533SOL     OW37431   1.097  14.000  11.883
78533SOL    HW137432   1.145  14.064  11.831
78533SOL    HW237433   1.006  14.011  11.856
78534SOL     OW37434   6.079   9.606   2.733
78534SOL    HW137435   6.070   9.538   2.666
78534SOL    HW237436   6.111   9.560   2.810
78535SOL     OW37437   4.202   5.313   1.669
78535SOL    HW137438   4.114   5.326   1.633
78535SOL    HW237439   4.199   5.226   1.708
78536SOL     OW37440   0.880   2.557  11.569
78536SOL    HW137441   0.956   2.596  11.525
78536SOL    HW237442   0.895   2.462  11.563
78537SOL     OW37443  14.483  12.361  13.015
78537SOL    HW137444  14.402  12.412  13.028
78537SOL    HW237445  14.518  12.349  13.104
78538SOL     OW37446  13.778   9.770  11.723
78538SOL    HW137447  13.852   9.738  11.774
78538SOL    HW237448  13.731   9.692  11.695
78539SOL     OW37449   9.833   0.206   4.493
78539SOL    HW137450   9.814   0.201   4.400
78539SOL    HW237451   9.867   0.295   4.506
78540SOL     OW37452   8.225   9.450   2.640
78540SOL    HW137453   8.309   9.485   2.669
78540SOL    HW237454   8.174   9.527   2.614
78541SOL     OW37455   3.778  11.581  13.965
78541SOL    HW137456   3.686  11.565  13.986
78541SOL    HW237457   3.791  11.542  13.879
78542SOL     OW37458   9.825   2.042   2.269
78542SOL    HW137459   9.847   2.060   2.360
78542SOL    HW237460   9.730   2.031   2.268
78543SOL     OW37461   0.396  13.417  14.534
78543SOL    HW137462   0.428  13.474  14.464
78543SOL    HW237463   0.378  13.334  14.490
78544SOL     OW37464   9.258  10.801  14.702
78544SOL    HW137465   9.176  10.831  14.741
78544SOL    HW237466   9.231  10.745  14.629
78545SOL     OW37467   4.002  14.486   9.576
78545SOL    HW137468   3.957  14.529   9.649
78545SOL    HW237469   3.931  14.444   9.527
78546SOL     OW37470  13.862   4.990   2.524
78546SOL    HW137471  13.892   5.071   2.484
78546SOL    HW237472  13.940   4.951   2.563
78547SOL     OW37473   3.554   7.738   5.223
78547SOL    HW137474   3.525   7.778   5.141
78547SOL    HW237475   3.650   7.741   5.218
78548SOL     OW37476   8.645   9.337  11.572
78548SOL    HW137477   8.666   9.298  11.657
78548SOL    HW237478   8.552   9.321  11.560
78549SOL     OW37479  10.559   4.548   1.210
78549SOL    HW137480  10.621   4.488   1.251
78549SOL    HW237481  10.511   4.587   1.283
78550SOL     OW37482   8.252  14.860  12.016
78550SOL    HW137483   8.285  14.841  11.929
78550SOL    HW237484   8.330  14.864  12.071
78551SOL     OW37485  13.065   0.520   2.447
78551SOL    HW137486  13.069   0.425   2.459
78551SOL    HW237487  12.988   0.547   2.497
78552SOL     OW37488   3.188  14.654  10.407
78552SOL    HW137489   3.150  14.598  10.340
78552SOL    HW237490   3.165  14.743  10.380
78553SOL     OW37491   1.057   8.769  13.158
78553SOL    HW137492   1.057   8.835  13.228
78553SOL    HW237493   1.133   8.714  13.178
78554SOL     OW37494  11.161   6.596   9.500
78554SOL    HW137495  11.099   6.565   9.434
78554SOL    HW237496  11.115   6.666   9.546
78555SOL     OW37497   2.505   1.411   3.430
78555SOL    HW137498   2.521   1.472   3.502
78555SOL    HW237499   2.417   1.376   3.447
78556SOL     OW37500   3.421   7.774  13.232
78556SOL    HW137501   3.430   7.849  13.291
78556SOL    HW237502   3.497   7.781  13.173
78557SOL     OW37503   7.553   5.536   0.437
78557SOL    HW137504   7.527   5.449   0.467
78557SOL    HW237505   7.566   5.586   0.518
78558SOL     OW37506   2.107  10.454  11.621
78558SOL    HW137507   2.086  10.382  11.562
78558SOL    HW237508   2.160  10.514  11.569
78559SOL     OW37509  12.912   9.146   9.334
78559SOL    HW137510  12.893   9.240   9.340
78559SOL    HW237511  12.885   9.122   9.245
78560SOL     OW37512   3.049   1.954  11.338
78560SOL    HW137513   3.134   1.928  11.373
78560SOL    HW237514   3.013   1.875  11.299
78561SOL     OW37515  11.915   0.515  14.243
78561SOL    HW137516  11.856   0.444  14.265
78561SOL    HW237517  11.959   0.537  14.325
78562SOL     OW37518   1.962   5.995  10.244
78562SOL    HW137519   1.935   5.926  10.183
78562SOL    HW237520   1.903   6.068  10.226
78563SOL     OW37521  14.521   5.058   5.078
78563SOL    HW137522  14.435   5.079   5.116
78563SOL    HW237523  14.565   5.142   5.071
78564SOL     OW37524   1.730   3.685  14.741
78564SOL    HW137525   1.804   3.654  14.688
78564SOL    HW237526   1.768   3.752  14.798
78565SOL     OW37527   0.940  13.171  11.575
78565SOL    HW137528   0.969  13.182  11.485
78565SOL    HW237529   0.950  13.258  11.615
78566SOL     OW37530  12.435   7.054  10.130
78566SOL    HW137531  12.424   6.969  10.087
78566SOL    HW237532  12.378   7.113  10.081
78567SOL     OW37533   7.270   9.538   0.818
78567SOL    HW137534   7.345   9.560   0.874
78567SOL    HW237535   7.309   9.495   0.741
78568SOL     OW37536   1.963   5.384   7.922
78568SOL    HW137537   2.012   5.416   7.998
78568SOL    HW237538   1.924   5.463   7.885
78569SOL     OW37539  10.933  12.304   1.274
78569SOL    HW137540  10.849  12.331   1.311
78569SOL    HW237541  10.937  12.350   1.190
78570SOL     OW37542  10.455  10.193   4.465
78570SOL    HW137543  10.515  10.128   4.428
78570SOL    HW237544  10.369  10.151   4.462
78571SOL     OW37545   6.525  12.577   6.554
78571SOL    HW137546   6.539  12.626   6.473
78571SOL    HW237547   6.430  12.575   6.565
78572SOL     OW37548  13.031   4.748   6.519
78572SOL    HW137549  12.972   4.822   6.504
78572SOL    HW237550  13.111   4.787   6.555
78573SOL     OW37551   8.977   4.462   8.665
78573SOL    HW137552   9.057   4.514   8.678
78573SOL    HW237553   8.919   4.519   8.615
78574SOL     OW37554   3.363  14.585   8.550
78574SOL    HW137555   3.396  14.564   8.637
78574SOL    HW237556   3.282  14.534   8.542
78575SOL     OW37557   5.693   5.984  10.411
78575SOL    HW137558   5.701   5.950  10.322
78575SOL    HW237559   5.685   5.906  10.466
78576SOL     OW37560   3.842   6.173  13.694
78576SOL    HW137561   3.915   6.200  13.638
78576SOL    HW237562   3.831   6.245  13.756
78577SOL     OW37563  10.656  12.838   3.026
78577SOL    HW137564  10.625  12.898   3.093
78577SOL    HW237565  10.714  12.778   3.073
78578SOL     OW37566   6.802   9.658   9.604
78578SOL    HW137567   6.850   9.635   9.684
78578SOL    HW237568   6.767   9.745   9.621
78579SOL     OW37569   8.079   8.136  14.202
78579SOL    HW137570   8.057   8.044  14.211
78579SOL    HW237571   8.174   8.140  14.216
78580SOL     OW37572   4.744  14.804   5.029
78580SOL    HW137573   4.795   0.005   5.041
78580SOL    HW237574   4.660  14.834   4.993
78581SOL     OW37575  14.731  13.861   6.389
78581SOL    HW137576  14.756  13.846   6.480
78581SOL    HW237577  14.699  13.776   6.358
78582SOL     OW37578   3.939  12.477  13.296
78582SOL    HW137579   3.919  12.439  13.211
78582SOL    HW237580   3.991  12.555  13.276
78583SOL     OW37581   7.259  12.724   6.038
78583SOL    HW137582   7.280  12.713   6.130
78583SOL    HW237583   7.254  12.819   6.026
78584SOL     OW37584   4.280  10.580  12.654
78584SOL    HW137585   4.370  10.570  12.685
78584SOL    HW237586   4.227  10.531  12.716
78585SOL     OW37587   2.333   1.479   8.489
78585SOL    HW137588   2.239   1.496   8.479
78585SOL    HW237589   2.352   1.504   8.580
78586SOL     OW37590  14.638  11.759   5.648
78586SOL    HW137591  14.726  11.792   5.667
78586SOL    HW237592  14.583  11.795   5.718
78587SOL     OW37593   1.677   6.779   0.286
78587SOL    HW137594   1.715   6.810   0.204
78587SOL    HW237595   1.748   6.730   0.328
78588SOL     OW37596   4.845   1.490   8.093
78588SOL    HW137597   4.928   1.460   8.056
78588SOL    HW237598   4.868   1.566   8.146
78589SOL     OW37599  13.783   8.551   7.407
78589SOL    HW137600  13.688   8.540   7.412
78589SOL    HW237601  13.813   8.478   7.352
78590SOL     OW37602   8.952   4.031   9.422
78590SOL    HW137603   9.027   3.988   9.381
78590SOL    HW237604   8.990   4.098   9.478
78591SOL     OW37605  11.193  12.309   2.880
78591SOL    HW137606  11.276  12.334   2.839
78591SOL    HW237607  11.174  12.379   2.942
78592SOL     OW37608   5.391  11.961  13.564
78592SOL    HW137609   5.454  11.947  13.635
78592SOL    HW237610   5.343  11.878  13.560
78593SOL     OW37611   7.183  14.685   6.272
78593SOL    HW137612   7.227  14.600   6.284
78593SOL    HW237613   7.094  14.670   6.304
78594SOL     OW37614  13.021   4.413   8.258
78594SOL    HW137615  13.036   4.341   8.197
78594SOL    HW237616  12.931   4.403   8.286
78595SOL     OW37617   4.849  13.219  10.807
78595SOL    HW137618   4.933  13.258  10.831
78595SOL    HW237619   4.783  13.282  10.838
78596SOL     OW37620   8.586   3.126   8.807
78596SOL    HW137621   8.513   3.178   8.776
78596SOL    HW237622   8.546   3.045   8.840
78597SOL     OW37623   4.695   4.649   6.268
78597SOL    HW137624   4.600   4.640   6.257
78597SOL    HW237625   4.708   4.637   6.362
78598SOL     OW37626  11.361  14.695  12.671
78598SOL    HW137627  11.337  14.769  12.725
78598SOL    HW237628  11.425  14.646  12.724
78599SOL     OW37629   2.859   7.821   0.785
78599SOL    HW137630   2.883   7.857   0.700
78599SOL    HW237631   2.783   7.874   0.812
78600SOL     OW37632   7.021  13.063  12.006
78600SOL    HW137633   7.112  13.034  12.005
78600SOL    HW237634   7.002  13.087  11.916
78601SOL     OW37635   8.331  13.504  11.499
78601SOL    HW137636   8.255  13.465  11.542
78601SOL    HW237637   8.359  13.574  11.558
78602SOL     OW37638   3.054   1.756  12.548
78602SOL    HW137639   3.039   1.784  12.457
78602SOL    HW237640   3.149   1.756  12.558
78603SOL     OW37641  14.282  11.323   4.068
78603SOL    HW137642  14.334  11.266   4.011
78603SOL    HW237643  14.224  11.371   4.007
78604SOL     OW37644   5.750   1.934   7.272
78604SOL    HW137645   5.712   1.918   7.185
78604SOL    HW237646   5.773   2.027   7.271
78605SOL     OW37647   0.656  12.097  11.471
78605SOL    HW137648   0.655  12.060  11.559
78605SOL    HW237649   0.749  12.104  11.449
78606SOL     OW37650   9.200  11.880  12.169
78606SOL    HW137651   9.225  11.969  12.146
78606SOL    HW237652   9.116  11.866  12.126
78607SOL     OW37653   3.654   8.936  14.569
78607SOL    HW137654   3.701   8.867  14.617
78607SOL    HW237655   3.645   8.901  14.480
78608SOL     OW37656  10.465   3.218   8.943
78608SOL    HW137657  10.516   3.223   9.024
78608SOL    HW237658  10.432   3.307   8.930
78609SOL     OW37659   8.808   2.213   0.588
78609SOL    HW137660   8.821   2.291   0.533
78609SOL    HW237661   8.837   2.241   0.675
78610SOL     OW37662   0.650   9.962  14.466
78610SOL    HW137663   0.655   9.999  14.554
78610SOL    HW237664   0.567   9.995  14.431
78611SOL     OW37665   1.545   7.384   9.104
78611SOL    HW137666   1.462   7.393   9.151
78611SOL    HW237667   1.520   7.348   9.019
78612SOL     OW37668  13.500   9.803  14.037
78612SOL    HW137669  13.510   9.728  14.096
78612SOL    HW237670  13.572   9.861  14.060
78613SOL     OW37671  13.937   5.175   2.358
78613SOL    HW137672  13.854   5.181   2.311
78613SOL    HW237673  13.986   5.107   2.311
78614SOL     OW37674   3.503   7.113   2.813
78614SOL    HW137675   3.592   7.080   2.819
78614SOL    HW237676   3.469   7.108   2.903
78615SOL     OW37677   8.149   2.952   2.763
78615SOL    HW137678   8.064   2.994   2.753
78615SOL    HW237679   8.169   2.916   2.677
78616SOL     OW37680  10.229   4.990   0.680
78616SOL    HW137681  10.276   4.944   0.610
78616SOL    HW237682  10.227   5.081   0.651
78617SOL     OW37683   3.470  12.047  13.615
78617SOL    HW137684   3.520  12.127  13.597
78617SOL    HW237685   3.441  12.056  13.705
78618SOL     OW37686  14.323   1.481   7.601
78618SOL    HW137687  14.387   1.433   7.549
78618SOL    HW237688  14.254   1.504   7.539
78619SOL     OW37689   3.124   1.375  10.325
78619SOL    HW137690   3.218   1.378  10.341
78619SOL    HW237691   3.088   1.335  10.405
78620SOL     OW37692   7.363   9.033   2.572
78620SOL    HW137693   7.294   8.968   2.579
78620SOL    HW237694   7.428   8.993   2.514
78621SOL     OW37695   4.088   2.730   9.927
78621SOL    HW137696   4.017   2.678   9.965
78621SOL    HW237697   4.154   2.666   9.901
78622SOL     OW37698   2.205   4.962   4.688
78622SOL    HW137699   2.175   5.004   4.607
78622SOL    HW237700   2.133   4.976   4.750
78623SOL     OW37701   9.956   2.448   5.143
78623SOL    HW137702   9.865   2.418   5.153
78623SOL    HW237703   9.982   2.417   5.057
78624SOL     OW37704   7.959  10.723  10.328
78624SOL    HW137705   7.935  10.736  10.420
78624SOL    HW237706   7.941  10.807  10.286
78625SOL     OW37707   0.088   6.924  14.344
78625SOL    HW137708   0.065   6.990  14.279
78625SOL    HW237709   0.061   6.841  14.305
78626SOL     OW37710  12.096   2.912   5.917
78626SOL    HW137711  12.102   2.882   5.826
78626SOL    HW237712  12.012   2.956   5.922
78627SOL     OW37713   1.177   6.748  12.554
78627SOL    HW137714   1.183   6.710  12.641
78627SOL    HW237715   1.121   6.687  12.505
78628SOL     OW37716   4.636   0.547   2.516
78628SOL    HW137717   4.670   0.611   2.579
78628SOL    HW237718   4.607   0.601   2.442
78629SOL     OW37719  14.320   3.958   1.148
78629SOL    HW137720  14.354   4.004   1.224
78629SOL    HW237721  14.328   4.020   1.076
78630SOL     OW37722   4.988   0.996   2.638
78630SOL    HW137723   4.903   1.035   2.656
78630SOL    HW237724   5.040   1.067   2.600
78631SOL     OW37725   2.293  12.141   1.446
78631SOL    HW137726   2.330  12.060   1.408
78631SOL    HW237727   2.291  12.202   1.373
78632SOL     OW37728   3.692  11.840  13.745
78632SOL    HW137729   3.647  11.921  13.719
78632SOL    HW237730   3.735  11.861  13.827
78633SOL     OW37731   6.745   0.801   8.769
78633SOL    HW137732   6.704   0.792   8.683
78633SOL    HW237733   6.839   0.794   8.752
78634SOL     OW37734   6.798   5.198  14.174
78634SOL    HW137735   6.821   5.155  14.091
78634SOL    HW237736   6.750   5.131  14.223
78635SOL     OW37737   1.258   9.233   4.793
78635SOL    HW137738   1.264   9.320   4.753
78635SOL    HW237739   1.218   9.178   4.726
78636SOL     OW37740  13.009   7.928  12.790
78636SOL    HW137741  13.053   8.012  12.802
78636SOL    HW237742  13.079   7.866  12.770
78637SOL     OW37743   8.878   8.614   2.715
78637SOL    HW137744   8.901   8.592   2.625
78637SOL    HW237745   8.955   8.592   2.766
78638SOL     OW37746   7.913  11.781   1.883
78638SOL    HW137747   7.842  11.741   1.933
78638SOL    HW237748   7.910  11.736   1.798
78639SOL     OW37749   8.946   6.712   4.185
78639SOL    HW137750   8.866   6.680   4.228
78639SOL    HW237751   9.013   6.649   4.210
78640SOL     OW37752  12.492  10.896  10.905
78640SOL    HW137753  12.426  10.881  10.838
78640SOL    HW237754  12.442  10.925  10.982
78641SOL     OW37755   5.710   0.351   0.189
78641SOL    HW137756   5.800   0.335   0.216
78641SOL    HW237757   5.681   0.425   0.243
78642SOL     OW37758   9.514  10.225  13.487
78642SOL    HW137759   9.476  10.247  13.403
78642SOL    HW237760   9.606  10.208  13.468
78643SOL     OW37761   1.038  10.845   7.665
78643SOL    HW137762   1.133  10.847   7.678
78643SOL    HW237763   1.019  10.925   7.617
78644SOL     OW37764   4.598   8.285  13.618
78644SOL    HW137765   4.563   8.279  13.707
78644SOL    HW237766   4.539   8.347  13.574
78645SOL     OW37767  10.659   4.892  13.432
78645SOL    HW137768  10.667   4.938  13.515
78645SOL    HW237769  10.659   4.961  13.366
78646SOL     OW37770   5.616  12.776   7.620
78646SOL    HW137771   5.617  12.714   7.693
78646SOL    HW237772   5.523  12.797   7.609
78647SOL     OW37773   5.000   8.631  10.246
78647SOL    HW137774   4.908   8.651  10.233
78647SOL    HW237775   5.045   8.714  10.227
78648SOL     OW37776   9.518   4.515   2.546
78648SOL    HW137777   9.566   4.592   2.517
78648SOL    HW237778   9.585   4.448   2.559
78649SOL     OW37779   7.036   2.147   9.277
78649SOL    HW137780   7.129   2.142   9.258
78649SOL    HW237781   7.015   2.241   9.271
78650SOL     OW37782   4.676   2.254  10.360
78650SOL    HW137783   4.676   2.195  10.284
78650SOL    HW237784   4.726   2.330  10.331
78651SOL     OW37785   3.652   7.388   1.158
78651SOL    HW137786   3.622   7.319   1.098
78651SOL    HW237787   3.629   7.355   1.245
78652SOL     OW37788   0.196   1.206   2.314
78652SOL    HW137789   0.223   1.157   2.236
78652SOL    HW237790   0.101   1.202   2.313
78653SOL     OW37791   7.984   6.043   6.624
78653SOL    HW137792   7.930   6.086   6.557
78653SOL    HW237793   7.929   5.971   6.656
78654SOL     OW37794  10.660  11.878   5.883
78654SOL    HW137795  10.703  11.922   5.809
78654SOL    HW237796  10.622  11.799   5.845
78655SOL     OW37797  12.191   6.253   5.852
78655SOL    HW137798  12.268   6.261   5.908
78655SOL    HW237799  12.117   6.263   5.912
78656SOL     OW37800   5.310   5.069   4.359
78656SOL    HW137801   5.277   5.051   4.271
78656SOL    HW237802   5.352   5.154   4.352
78657SOL     OW37803   0.937   8.373   8.221
78657SOL    HW137804   0.987   8.450   8.249
78657SOL    HW237805   0.851   8.385   8.259
78658SOL     OW37806  13.112   5.919  14.677
78658SOL    HW137807  13.060   5.905  14.756
78658SOL    HW237808  13.158   6.001  14.693
78659SOL     OW37809  13.264   2.798  11.176
78659SOL    HW137810  13.257   2.727  11.239
78659SOL    HW237811  13.309   2.759  11.101
78660SOL     OW37812   4.989   8.275  14.251
78660SOL    HW137813   5.055   8.342  14.268
78660SOL    HW237814   5.037   8.203  14.210
78661SOL     OW37815  10.258   1.350  14.380
78661SOL    HW137816  10.278   1.333  14.472
78661SOL    HW237817  10.288   1.272  14.334
78662SOL     OW37818   8.291   9.213   3.461
78662SOL    HW137819   8.257   9.295   3.426
78662SOL    HW237820   8.242   9.199   3.542
78663SOL     OW37821   2.478   1.850   6.869
78663SOL    HW137822   2.544   1.781   6.879
78663SOL    HW237823   2.520   1.914   6.812
78664SOL     OW37824   3.535   6.858  11.830
78664SOL    HW137825   3.601   6.900  11.774
78664SOL    HW237826   3.451   6.882  11.792
78665SOL     OW37827   5.782   3.417   7.042
78665SOL    HW137828   5.787   3.376   6.955
78665SOL    HW237829   5.692   3.451   7.047
78666SOL     OW37830  13.627   5.613   1.900
78666SOL    HW137831  13.596   5.607   1.990
78666SOL    HW237832  13.550   5.593   1.847
78667SOL     OW37833   1.286   4.130   6.297
78667SOL    HW137834   1.337   4.173   6.365
78667SOL    HW237835   1.218   4.193   6.273
78668SOL     OW37836   3.269  10.881   5.759
78668SOL    HW137837   3.192  10.824   5.753
78668SOL    HW237838   3.276  10.921   5.673
78669SOL     OW37839   0.919  12.653   5.404
78669SOL    HW137840   0.841  12.709   5.402
78669SOL    HW237841   0.886  12.565   5.389
78670SOL     OW37842   4.795  11.071  10.684
78670SOL    HW137843   4.875  11.029  10.653
78670SOL    HW237844   4.785  11.039  10.774
78671SOL     OW37845   2.929  10.293   4.617
78671SOL    HW137846   2.877  10.225   4.575
78671SOL    HW237847   3.005  10.246   4.652
78672SOL     OW37848   1.975  11.048  11.795
78672SOL    HW137849   2.046  11.057  11.858
78672SOL    HW237850   1.903  11.100  11.831
78673SOL     OW37851   3.916   0.423   9.475
78673SOL    HW137852   3.892   0.506   9.517
78673SOL    HW237853   3.838   0.369   9.480
78674SOL     OW37854   0.591   4.842  13.807
78674SOL    HW137855   0.551   4.929  13.814
78674SOL    HW237856   0.627   4.839  13.718
78675SOL     OW37857   1.413  13.523   0.956
78675SOL    HW137858   1.495  13.567   0.977
78675SOL    HW237859   1.437  13.433   0.938
78676SOL     OW37860   0.427  11.001   2.299
78676SOL    HW137861   0.366  10.928   2.301
78676SOL    HW237862   0.377  11.074   2.262
78677SOL     OW37863   0.167  13.946   0.907
78677SOL    HW137864   0.237  14.008   0.885
78677SOL    HW237865   0.173  13.879   0.839
78678SOL     OW37866  14.595   2.722  13.105
78678SOL    HW137867  14.597   2.789  13.036
78678SOL    HW237868  14.516   2.670  13.085
78679SOL     OW37869  13.186   3.169  10.228
78679SOL    HW137870  13.093   3.164  10.251
78679SOL    HW237871  13.216   3.079  10.231
78680SOL     OW37872  10.601   0.652   2.453
78680SOL    HW137873  10.673   0.613   2.503
78680SOL    HW237874  10.578   0.585   2.388
78681SOL     OW37875   6.226   0.104   7.681
78681SOL    HW137876   6.314   0.074   7.702
78681SOL    HW237877   6.239   0.189   7.640
78682SOL     OW37878   8.756  12.155   5.884
78682SOL    HW137879   8.665  12.135   5.902
78682SOL    HW237880   8.775  12.235   5.933
78683SOL     OW37881   7.891   2.554   9.319
78683SOL    HW137882   7.871   2.572   9.227
78683SOL    HW237883   7.809   2.571   9.365
78684SOL     OW37884  14.300   2.981   9.832
78684SOL    HW137885  14.333   3.033   9.905
78684SOL    HW237886  14.294   2.892   9.867
78685SOL     OW37887   6.093  11.227   1.306
78685SOL    HW137888   6.122  11.195   1.391
78685SOL    HW237889   6.118  11.319   1.305
78686SOL     OW37890  10.566   4.741   9.587
78686SOL    HW137891  10.540   4.651   9.603
78686SOL    HW237892  10.547   4.787   9.669
78687SOL     OW37893  14.700  13.182   2.823
78687SOL    HW137894  14.772  13.198   2.762
78687SOL    HW237895  14.675  13.091   2.807
78688SOL     OW37896   8.162   8.967   2.229
78688SOL    HW137897   8.178   8.971   2.323
78688SOL    HW237898   8.244   8.997   2.189
78689SOL     OW37899   9.694  13.610   8.664
78689SOL    HW137900   9.693  13.515   8.658
78689SOL    HW237901   9.607  13.637   8.633
78690SOL     OW37902   2.470   6.814   8.307
78690SOL    HW137903   2.475   6.879   8.236
78690SOL    HW237904   2.466   6.867   8.387
78691SOL     OW37905   7.172  14.688  12.426
78691SOL    HW137906   7.195  14.739  12.504
78691SOL    HW237907   7.166  14.752  12.356
78692SOL     OW37908   2.934   5.575   8.624
78692SOL    HW137909   2.848   5.580   8.664
78692SOL    HW237910   2.990   5.629   8.679
78693SOL     OW37911  14.350   7.273  12.483
78693SOL    HW137912  14.342   7.368  12.476
78693SOL    HW237913  14.281   7.239  12.426
78694SOL     OW37914   1.973  13.055   9.676
78694SOL    HW137915   2.045  13.012   9.629
78694SOL    HW237916   2.016  13.099   9.749
78695SOL     OW37917   5.419   0.256  10.477
78695SOL    HW137918   5.347   0.277  10.537
78695SOL    HW237919   5.384   0.277  10.390
78696SOL     OW37920  13.681   2.604   7.179
78696SOL    HW137921  13.607   2.546   7.197
78696SOL    HW237922  13.747   2.580   7.244
78697SOL     OW37923   0.526  12.124  12.285
78697SOL    HW137924   0.619  12.119  12.306
78697SOL    HW237925   0.489  12.185  12.349
78698SOL     OW37926   2.476   1.928   8.964
78698SOL    HW137927   2.410   1.966   9.023
78698SOL    HW237928   2.523   1.864   9.018
78699SOL     OW37929   9.367   9.941   2.504
78699SOL    HW137930   9.355   9.869   2.443
78699SOL    HW237931   9.309  10.010   2.472
78700SOL     OW37932   7.975   3.183   4.495
78700SOL    HW137933   8.062   3.210   4.465
78700SOL    HW237934   7.973   3.088   4.481
78701SOL     OW37935   4.339  12.939   9.014
78701SOL    HW137936   4.282  12.886   9.069
78701SOL    HW237937   4.421  12.944   9.062
78702SOL     OW37938  12.441  11.327  14.475
78702SOL    HW137939  12.470  11.410  14.436
78702SOL    HW237940  12.522  11.284  14.502
78703SOL     OW37941  10.005   4.233   9.267
78703SOL    HW137942   9.947   4.227   9.342
78703SOL    HW237943  10.038   4.143   9.255
78704SOL     OW37944   3.934   8.387  13.223
78704SOL    HW137945   3.974   8.338  13.295
78704SOL    HW237946   3.850   8.415  13.257
78705SOL     OW37947  11.034  14.156   5.292
78705SOL    HW137948  11.060  14.195   5.208
78705SOL    HW237949  10.939  14.147   5.284
78706SOL     OW37950   5.903   5.319   6.113
78706SOL    HW137951   5.866   5.327   6.025
78706SOL    HW237952   5.958   5.397   6.122
78707SOL     OW37953   9.381   1.001  12.353
78707SOL    HW137954   9.320   0.947  12.302
78707SOL    HW237955   9.374   0.968  12.442
78708SOL     OW37956  12.920   7.904  12.483
78708SOL    HW137957  12.866   7.941  12.552
78708SOL    HW237958  12.953   7.979  12.435
78709SOL     OW37959  10.495   2.381   0.896
78709SOL    HW137960  10.461   2.292   0.883
78709SOL    HW237961  10.528   2.381   0.986
78710SOL     OW37962   3.726   1.052   4.906
78710SOL    HW137963   3.774   1.132   4.925
78710SOL    HW237964   3.737   0.998   4.984
78711SOL     OW37965   2.179   0.139   6.939
78711SOL    HW137966   2.155   0.116   6.850
78711SOL    HW237967   2.268   0.174   6.932
78712SOL     OW37968  14.779   5.378   4.189
78712SOL    HW137969  14.687   5.375   4.164
78712SOL    HW237970  14.822   5.317   4.130
78713SOL     OW37971  13.699   0.147  13.213
78713SOL    HW137972  13.636   0.077  13.197
78713SOL    HW237973  13.720   0.181  13.126
78714SOL     OW37974   0.261   9.623   3.520
78714SOL    HW137975   0.265   9.710   3.479
78714SOL    HW237976   0.293   9.563   3.452
78715SOL     OW37977  14.751  10.812   0.515
78715SOL    HW137978  14.812  10.886   0.508
78715SOL    HW237979  14.665  10.850   0.495
78716SOL     OW37980   4.738   0.701   0.664
78716SOL    HW137981   4.761   0.794   0.664
78716SOL    HW237982   4.806   0.659   0.716
78717SOL     OW37983   4.320  13.826   7.440
78717SOL    HW137984   4.282  13.891   7.499
78717SOL    HW237985   4.402  13.867   7.410
78718SOL     OW37986   2.224   0.137   3.294
78718SOL    HW137987   2.195   0.088   3.217
78718SOL    HW237988   2.181   0.222   3.286
78719SOL     OW37989   5.242   3.233  13.740
78719SOL    HW137990   5.323   3.275  13.712
78719SOL    HW237991   5.259   3.139  13.734
78720SOL     OW37992   5.641   5.755   5.230
78720SOL    HW137993   5.550   5.783   5.225
78720SOL    HW237994   5.681   5.814   5.294
78721SOL     OW37995   6.475   5.937  11.118
78721SOL    HW137996   6.388   5.939  11.078
78721SOL    HW237997   6.468   5.994  11.194
78722SOL     OW37998  12.390   3.210   7.783
78722SOL    HW137999  12.303   3.194   7.746
78722SOL    HW238000  12.374   3.261   7.862
78723SOL     OW38001   8.601   4.152  10.142
78723SOL    HW138002   8.679   4.191  10.183
78723SOL    HW238003   8.573   4.218  10.078
78724SOL     OW38004   6.863   2.030   5.057
78724SOL    HW138005   6.778   2.073   5.067
78724SOL    HW238006   6.847   1.939   5.084
78725SOL     OW38007   0.612  11.797  14.126
78725SOL    HW138008   0.694  11.756  14.099
78725SOL    HW238009   0.576  11.834  14.046
78726SOL     OW38010  12.899   4.352  12.089
78726SOL    HW138011  12.817   4.384  12.051
78726SOL    HW238012  12.883   4.349  12.183
78727SOL     OW38013  10.671   4.929  14.004
78727SOL    HW138014  10.634   4.982  14.075
78727SOL    HW238015  10.600   4.922  13.940
78728SOL     OW38016   0.643  12.138  14.412
78728SOL    HW138017   0.668  12.169  14.325
78728SOL    HW238018   0.724  12.099  14.447
78729SOL     OW38019  10.500   5.049   4.753
78729SOL    HW138020  10.563   4.988   4.716
78729SOL    HW238021  10.470   5.102   4.679
78730SOL     OW38022   3.418   4.083  14.552
78730SOL    HW138023   3.508   4.079  14.519
78730SOL    HW238024   3.372   4.017  14.500
78731SOL     OW38025   8.001   2.959   5.381
78731SOL    HW138026   8.081   3.009   5.398
78731SOL    HW238027   8.012   2.879   5.432
78732SOL     OW38028  10.367  10.328   2.261
78732SOL    HW138029  10.291  10.367   2.304
78732SOL    HW238030  10.442  10.361   2.311
78733SOL     OW38031   7.358  14.528  12.601
78733SOL    HW138032   7.291  14.593  12.580
78733SOL    HW238033   7.338  14.454  12.543
78734SOL     OW38034   1.598   8.547  10.203
78734SOL    HW138035   1.615   8.464  10.247
78734SOL    HW238036   1.682   8.593  10.206
78735SOL     OW38037  11.266   0.179   2.539
78735SOL    HW138038  11.355   0.170   2.572
78735SOL    HW238039  11.276   0.221   2.454
78736SOL     OW38040  13.473   5.959  14.540
78736SOL    HW138041  13.379   5.965  14.523
78736SOL    HW238042  13.498   5.871  14.512
78737SOL     OW38043   8.810   4.177   5.706
78737SOL    HW138044   8.782   4.173   5.797
78737SOL    HW238045   8.782   4.093   5.669
78738SOL     OW38046  13.579   6.434   8.544
78738SOL    HW138047  13.491   6.435   8.584
78738SOL    HW238048  13.633   6.385   8.606
78739SOL     OW38049   0.051  11.574   3.875
78739SOL    HW138050  14.877  11.543   3.949
78739SOL    HW238051   0.065  11.667   3.893
78740SOL     OW38052   3.515   1.285  12.499
78740SOL    HW138053   3.478   1.267  12.585
78740SOL    HW238054   3.566   1.365  12.511
78741SOL     OW38055  12.758   9.078  12.949
78741SOL    HW138056  12.783   8.999  12.901
78741SOL    HW238057  12.787   9.151  12.894
78742SOL     OW38058   5.648   0.799   1.698
78742SOL    HW138059   5.555   0.816   1.684
78742SOL    HW238060   5.656   0.783   1.792
78743SOL     OW38061  11.783   6.146   1.377
78743SOL    HW138062  11.714   6.212   1.384
78743SOL    HW238063  11.736   6.062   1.383
78744SOL     OW38064  10.443   0.499  11.323
78744SOL    HW138065  10.471   0.519  11.234
78744SOL    HW238066  10.482   0.414  11.342
78745SOL     OW38067   8.837   7.916   8.192
78745SOL    HW138068   8.929   7.918   8.166
78745SOL    HW238069   8.790   7.890   8.113
78746SOL     OW38070   0.160   2.381   7.468
78746SOL    HW138071   0.235   2.406   7.415
78746SOL    HW238072   0.131   2.462   7.509
78747SOL     OW38073   1.152   5.565   6.031
78747SOL    HW138074   1.230   5.528   5.989
78747SOL    HW238075   1.079   5.535   5.976
78748SOL     OW38076   7.520   7.705  12.872
78748SOL    HW138077   7.473   7.786  12.849
78748SOL    HW238078   7.605   7.735  12.905
78749SOL     OW38079  11.177   9.106  12.870
78749SOL    HW138080  11.127   9.060  12.802
78749SOL    HW238081  11.239   9.041  12.902
78750SOL     OW38082   3.908  11.380  10.288
78750SOL    HW138083   3.873  11.379  10.199
78750SOL    HW238084   3.856  11.315  10.335
78751SOL     OW38085   0.491  14.040  14.788
78751SOL    HW138086   0.560  13.985  14.824
78751SOL    HW238087   0.482  14.011  14.697
78752SOL     OW38088  13.310   4.393   5.379
78752SOL    HW138089  13.319   4.381   5.474
78752SOL    HW238090  13.315   4.305   5.344
78753SOL     OW38091   6.645   0.250   7.373
78753SOL    HW138092   6.577   0.194   7.333
78753SOL    HW238093   6.717   0.190   7.391
78754SOL     OW38094  11.272   6.189   6.336
78754SOL    HW138095  11.361   6.199   6.301
78754SOL    HW238096  11.257   6.094   6.334
78755SOL     OW38097  10.312   5.166   8.302
78755SOL    HW138098  10.277   5.080   8.281
78755SOL    HW238099  10.306   5.173   8.397
78756SOL     OW38100   8.639  12.026   8.355
78756SOL    HW138101   8.667  12.014   8.446
78756SOL    HW238102   8.721  12.032   8.305
78757SOL     OW38103  11.152   6.246   1.750
78757SOL    HW138104  11.193   6.189   1.685
78757SOL    HW238105  11.070   6.274   1.710
78758SOL     OW38106   1.828   1.790   0.034
78758SOL    HW138107   1.773   1.861   0.066
78758SOL    HW238108   1.907   1.833   0.002
78759SOL     OW38109   3.486   6.975   4.878
78759SOL    HW138110   3.545   6.933   4.816
78759SOL    HW238111   3.533   6.975   4.961
78760SOL     OW38112   3.745  11.600   2.823
78760SOL    HW138113   3.818  11.579   2.881
78760SOL    HW238114   3.761  11.691   2.798
78761SOL     OW38115   4.542   8.450  11.475
78761SOL    HW138116   4.631   8.419  11.460
78761SOL    HW238117   4.547   8.545  11.465
78762SOL     OW38118  14.549   8.794   1.635
78762SOL    HW138119  14.467   8.760   1.671
78762SOL    HW238120  14.533   8.801   1.541
78763SOL     OW38121  10.706   9.610  12.242
78763SOL    HW138122  10.711   9.699  12.277
78763SOL    HW238123  10.712   9.554  12.320
78764SOL     OW38124  12.610   9.890  14.828
78764SOL    HW138125  12.629   9.941  14.749
78764SOL    HW238126  12.668   9.927   0.016
78765SOL     OW38127  12.400   4.420  11.615
78765SOL    HW138128  12.473   4.358  11.617
78765SOL    HW238129  12.440   4.502  11.583
78766SOL     OW38130   1.487  11.422   4.990
78766SOL    HW138131   1.459  11.503   5.032
78766SOL    HW238132   1.413  11.395   4.936
78767SOL     OW38133   7.305   2.675   6.097
78767SOL    HW138134   7.294   2.717   6.012
78767SOL    HW238135   7.236   2.712   6.152
78768SOL     OW38136   2.320   0.429  11.408
78768SOL    HW138137   2.357   0.382  11.483
78768SOL    HW238138   2.283   0.509  11.445
78769SOL     OW38139   6.841  13.312   3.959
78769SOL    HW138140   6.861  13.305   4.052
78769SOL    HW238141   6.746  13.326   3.955
78770SOL     OW38142   7.260   3.874   3.555
78770SOL    HW138143   7.219   3.824   3.485
78770SOL    HW238144   7.331   3.818   3.587
78771SOL     OW38145  14.693  13.843   0.433
78771SOL    HW138146  14.667  13.857   0.524
78771SOL    HW238147  14.614  13.858   0.382
78772SOL     OW38148   8.374   4.639   5.257
78772SOL    HW138149   8.451   4.656   5.204
78772SOL    HW238150   8.405   4.578   5.325
78773SOL     OW38151   3.171  11.549   1.420
78773SOL    HW138152   3.227  11.621   1.450
78773SOL    HW238153   3.127  11.519   1.500
78774SOL     OW38154   5.940  13.733  11.639
78774SOL    HW138155   5.906  13.652  11.678
78774SOL    HW238156   5.862  13.785  11.620
78775SOL     OW38157  10.426   2.498  12.742
78775SOL    HW138158  10.484   2.538  12.677
78775SOL    HW238159  10.484   2.443  12.795
78776SOL     OW38160   8.086  12.880   5.849
78776SOL    HW138161   8.096  12.786   5.838
78776SOL    HW238162   8.152  12.903   5.915
78777SOL     OW38163  11.328   9.583   2.671
78777SOL    HW138164  11.334   9.490   2.650
78777SOL    HW238165  11.418   9.613   2.673
78778SOL     OW38166   4.827   0.205   2.329
78778SOL    HW138167   4.876   0.129   2.297
78778SOL    HW238168   4.736   0.185   2.309
78779SOL     OW38169   5.696   1.614   4.026
78779SOL    HW138170   5.761   1.683   4.012
78779SOL    HW238171   5.667   1.626   4.116
78780SOL     OW38172   1.498   6.785   6.953
78780SOL    HW138173   1.480   6.789   6.859
78780SOL    HW238174   1.586   6.746   6.958
78781SOL     OW38175  14.446   3.638   8.277
78781SOL    HW138176  14.517   3.640   8.341
78781SOL    HW238177  14.486   3.605   8.197
78782SOL     OW38178   0.398   5.676  12.539
78782SOL    HW138179   0.428   5.760  12.503
78782SOL    HW238180   0.474   5.640  12.585
78783SOL     OW38181   5.182   6.556  12.766
78783SOL    HW138182   5.197   6.498  12.841
78783SOL    HW238183   5.197   6.500  12.690
78784SOL     OW38184   8.894  13.440   7.977
78784SOL    HW138185   8.921  13.532   7.979
78784SOL    HW238186   8.934  13.401   8.055
78785SOL     OW38187   8.365   3.027  13.150
78785SOL    HW138188   8.330   2.959  13.208
78785SOL    HW238189   8.360   2.988  13.063
78786SOL     OW38190  10.143  12.503   3.529
78786SOL    HW138191  10.202  12.548   3.589
78786SOL    HW238192  10.103  12.434   3.582
78787SOL     OW38193   2.137   8.450   2.222
78787SOL    HW138194   2.180   8.470   2.305
78787SOL    HW238195   2.127   8.535   2.179
78788SOL     OW38196  10.796  13.199  14.777
78788SOL    HW138197  10.827  13.189  14.687
78788SOL    HW238198  10.722  13.139  14.784
78789SOL     OW38199  11.960   9.479   8.804
78789SOL    HW138200  11.893   9.448   8.743
78789SOL    HW238201  11.950   9.574   8.805
78790SOL     OW38202  14.604   1.678   6.612
78790SOL    HW138203  14.524   1.638   6.581
78790SOL    HW238204  14.671   1.653   6.548
78791SOL     OW38205  11.179  11.032   0.731
78791SOL    HW138206  11.208  11.118   0.760
78791SOL    HW238207  11.224  11.019   0.647
78792SOL     OW38208  10.514  11.923   1.627
78792SOL    HW138209  10.574  11.952   1.558
78792SOL    HW238210  10.433  11.970   1.610
78793SOL     OW38211   4.134   1.921   7.507
78793SOL    HW138212   4.147   1.937   7.601
78793SOL    HW238213   4.103   1.830   7.503
78794SOL     OW38214  12.689  11.161   6.609
78794SOL    HW138215  12.777  11.158   6.648
78794SOL    HW238216  12.637  11.101   6.662
78795SOL     OW38217  13.319   5.305   0.035
78795SOL    HW138218  13.353   5.315  14.825
78795SOL    HW238219  13.263   5.382   0.048
78796SOL     OW38220   7.084  12.974  14.418
78796SOL    HW138221   7.106  12.913  14.349
78796SOL    HW238222   7.114  13.059  14.386
78797SOL     OW38223   5.922  14.051   5.248
78797SOL    HW138224   5.837  14.056   5.293
78797SOL    HW238225   5.901  14.065   5.156
78798SOL     OW38226   6.757   2.512   2.763
78798SOL    HW138227   6.822   2.502   2.693
78798SOL    HW238228   6.796   2.469   2.839
78799SOL     OW38229   0.567  13.463   0.376
78799SOL    HW138230   0.617  13.518   0.316
78799SOL    HW238231   0.476  13.477   0.352
78800SOL     OW38232   0.364   8.374   0.419
78800SOL    HW138233   0.327   8.424   0.346
78800SOL    HW238234   0.288   8.338   0.464
78801SOL     OW38235   5.869   0.278  12.108
78801SOL    HW138236   5.912   0.233  12.181
78801SOL    HW238237   5.781   0.243  12.106
78802SOL     OW38238   2.594   0.809   2.993
78802SOL    HW138239   2.612   0.775   3.081
78802SOL    HW238240   2.558   0.735   2.945
78803SOL     OW38241   2.752  12.668   9.525
78803SOL    HW138242   2.759  12.696   9.434
78803SOL    HW238243   2.830  12.703   9.567
78804SOL     OW38244   9.684   4.167  11.246
78804SOL    HW138245   9.771   4.133  11.223
78804SOL    HW238246   9.628   4.141  11.173
78805SOL     OW38247   3.224   5.265   9.469
78805SOL    HW138248   3.200   5.259   9.562
78805SOL    HW238249   3.198   5.353   9.443
78806SOL     OW38250   5.668   8.962   9.840
78806SOL    HW138251   5.628   9.031   9.895
78806SOL    HW238252   5.635   8.881   9.878
78807SOL     OW38253   9.717  11.103  14.766
78807SOL    HW138254   9.704  11.114  14.671
78807SOL    HW238255   9.657  11.033  14.790
78808SOL     OW38256  10.996  11.164   3.474
78808SOL    HW138257  11.075  11.181   3.525
78808SOL    HW238258  11.026  11.114   3.398
78809SOL     OW38259  14.314   0.353   5.827
78809SOL    HW138260  14.332   0.263   5.852
78809SOL    HW238261  14.315   0.352   5.731
78810SOL     OW38262   2.288  11.009   8.006
78810SOL    HW138263   2.228  10.952   8.053
78810SOL    HW238264   2.335  10.951   7.946
78811SOL     OW38265   4.645   7.992   1.534
78811SOL    HW138266   4.674   8.050   1.463
78811SOL    HW238267   4.566   7.951   1.499
78812SOL     OW38268   7.335   1.242  13.305
78812SOL    HW138269   7.366   1.332  13.310
78812SOL    HW238270   7.294   1.235  13.218
78813SOL     OW38271  14.279   5.142  13.164
78813SOL    HW138272  14.279   5.055  13.124
78813SOL    HW238273  14.338   5.133  13.240
78814SOL     OW38274   9.487   3.970   1.507
78814SOL    HW138275   9.489   3.896   1.568
78814SOL    HW238276   9.552   3.949   1.441
78815SOL     OW38277   6.659   3.767  10.762
78815SOL    HW138278   6.661   3.679  10.725
78815SOL    HW238279   6.595   3.763  10.833
78816SOL     OW38280   0.014   0.169   1.946
78816SOL    HW138281  14.862   0.258   1.928
78816SOL    HW238282  14.834   0.138   2.015
78817SOL     OW38283  14.467   3.369   8.692
78817SOL    HW138284  14.531   3.437   8.670
78817SOL    HW238285  14.389   3.393   8.642
78818SOL     OW38286   5.537  10.100   7.236
78818SOL    HW138287   5.526  10.032   7.302
78818SOL    HW238288   5.482  10.172   7.266
78819SOL     OW38289  13.707   3.568   7.824
78819SOL    HW138290  13.668   3.482   7.811
78819SOL    HW238291  13.743   3.591   7.738
78820SOL     OW38292   4.002  11.838   4.272
78820SOL    HW138293   3.922  11.847   4.220
78820SOL    HW238294   4.067  11.805   4.211
78821SOL     OW38295  12.790   4.123  11.829
78821SOL    HW138296  12.697   4.120  11.852
78821SOL    HW238297  12.801   4.206  11.784
78822SOL     OW38298   4.444  13.122   7.127
78822SOL    HW138299   4.511  13.141   7.062
78822SOL    HW238300   4.461  13.184   7.198
78823SOL     OW38301   5.653   8.214   1.154
78823SOL    HW138302   5.657   8.239   1.246
78823SOL    HW238303   5.708   8.137   1.148
78824SOL     OW38304   0.203   3.092  13.241
78824SOL    HW138305   0.208   2.997  13.254
78824SOL    HW238306   0.260   3.129  13.307
78825SOL     OW38307   8.087   2.549   7.452
78825SOL    HW138308   8.035   2.512   7.380
78825SOL    HW238309   8.163   2.491   7.459
78826SOL     OW38310  12.794  13.447   2.149
78826SOL    HW138311  12.804  13.354   2.130
78826SOL    HW238312  12.700  13.465   2.135
78827SOL     OW38313   9.910   9.536   5.602
78827SOL    HW138314   9.946   9.507   5.519
78827SOL    HW238315   9.886   9.455   5.647
78828SOL     OW38316   8.129   4.483   6.968
78828SOL    HW138317   8.151   4.391   6.952
78828SOL    HW238318   8.112   4.519   6.881
78829SOL     OW38319   1.776   9.707   4.102
78829SOL    HW138320   1.710   9.768   4.070
78829SOL    HW238321   1.850   9.718   4.042
78830SOL     OW38322  13.868  10.200  12.059
78830SOL    HW138323  13.879  10.252  11.979
78830SOL    HW238324  13.817  10.124  12.031
78831SOL     OW38325   5.709   3.789   0.955
78831SOL    HW138326   5.639   3.841   0.995
78831SOL    HW238327   5.780   3.791   1.019
78832SOL     OW38328  12.392   5.069   0.077
78832SOL    HW138329  12.487   5.080   0.078
78832SOL    HW238330  12.367   5.072   0.169
78833SOL     OW38331  12.929   5.787  10.123
78833SOL    HW138332  12.845   5.749  10.148
78833SOL    HW238333  12.917   5.815  10.032
78834SOL     OW38334   2.015  14.557   4.924
78834SOL    HW138335   1.927  14.587   4.900
78834SOL    HW238336   2.072  14.629   4.896
78835SOL     OW38337   9.075   1.058   4.224
78835SOL    HW138338   9.014   1.058   4.298
78835SOL    HW238339   9.024   1.095   4.151
78836SOL     OW38340  12.481   8.810   9.471
78836SOL    HW138341  12.419   8.769   9.532
78836SOL    HW238342  12.425   8.849   9.404
78837SOL     OW38343  11.815  13.927  12.485
78837SOL    HW138344  11.744  13.926  12.421
78837SOL    HW238345  11.789  13.993  12.549
78838SOL     OW38346  10.857   2.111   9.978
78838SOL    HW138347  10.777   2.059   9.987
78838SOL    HW238348  10.906   2.067   9.908
78839SOL     OW38349  11.378   1.780   0.929
78839SOL    HW138350  11.393   1.791   1.022
78839SOL    HW238351  11.390   1.687   0.913
78840SOL     OW38352   6.768  12.967   9.004
78840SOL    HW138353   6.812  12.976   9.088
78840SOL    HW238354   6.676  12.987   9.023
78841SOL     OW38355   0.576  10.331   5.789
78841SOL    HW138356   0.610  10.330   5.878
78841SOL    HW238357   0.622  10.402   5.745
78842SOL     OW38358   7.530   2.475   6.743
78842SOL    HW138359   7.504   2.412   6.810
78842SOL    HW238360   7.616   2.444   6.714
78843SOL     OW38361   5.253   3.448   3.922
78843SOL    HW138362   5.306   3.426   3.845
78843SOL    HW238363   5.175   3.489   3.886
78844SOL     OW38364   4.475   4.927   3.547
78844SOL    HW138365   4.542   4.876   3.503
78844SOL    HW238366   4.513   4.948   3.632
78845SOL     OW38367  12.337   8.821   2.716
78845SOL    HW138368  12.266   8.759   2.732
78845SOL    HW238369  12.294   8.899   2.682
78846SOL     OW38370   9.330  10.733  11.538
78846SOL    HW138371   9.390  10.739  11.612
78846SOL    HW238372   9.314  10.824  11.513
78847SOL     OW38373   9.732  11.063  14.482
78847SOL    HW138374   9.763  11.072  14.391
78847SOL    HW238375   9.733  10.969  14.498
78848SOL     OW38376   4.153   3.358  12.240
78848SOL    HW138377   4.125   3.446  12.263
78848SOL    HW238378   4.158   3.359  12.144
78849SOL     OW38379   1.815  13.230   0.474
78849SOL    HW138380   1.900  13.221   0.432
78849SOL    HW238381   1.784  13.140   0.486
78850SOL     OW38382  12.524   8.692   6.442
78850SOL    HW138383  12.485   8.775   6.414
78850SOL    HW238384  12.579   8.717   6.517
78851SOL     OW38385   0.469   4.558   9.423
78851SOL    HW138386   0.550   4.506   9.427
78851SOL    HW238387   0.491   4.632   9.368
78852SOL     OW38388   2.167  10.588   3.589
78852SOL    HW138389   2.073  10.577   3.601
78852SOL    HW238390   2.201  10.498   3.582
78853SOL     OW38391   8.069   6.871   2.963
78853SOL    HW138392   8.014   6.948   2.979
78853SOL    HW238393   8.080   6.831   3.050
78854SOL     OW38394   3.687   6.902   1.311
78854SOL    HW138395   3.683   6.876   1.403
78854SOL    HW238396   3.597   6.927   1.290
78855SOL     OW38397   6.859   9.510  10.186
78855SOL    HW138398   6.865   9.438  10.248
78855SOL    HW238399   6.913   9.580  10.225
78856SOL     OW38400  11.312   8.693  10.930
78856SOL    HW138401  11.250   8.631  10.969
78856SOL    HW238402  11.333   8.754  11.000
78857SOL     OW38403   0.596   2.571   1.811
78857SOL    HW138404   0.558   2.509   1.749
78857SOL    HW238405   0.552   2.551   1.894
78858SOL     OW38406   9.987   6.209   5.745
78858SOL    HW138407   9.929   6.220   5.820
78858SOL    HW238408  10.053   6.147   5.776
78859SOL     OW38409   5.892   6.950   3.399
78859SOL    HW138410   5.986   6.967   3.394
78859SOL    HW238411   5.855   6.998   3.325
78860SOL     OW38412   1.088   7.957   9.353
78860SOL    HW138413   1.065   7.890   9.418
78860SOL    HW238414   1.081   7.911   9.269
78861SOL     OW38415  10.774  14.392  13.595
78861SOL    HW138416  10.705  14.454  13.621
78861SOL    HW238417  10.730  14.307  13.591
78862SOL     OW38418  11.662  14.086  12.838
78862SOL    HW138419  11.671  14.154  12.905
78862SOL    HW238420  11.745  14.089  12.789
78863SOL     OW38421   8.635  12.599   1.445
78863SOL    HW138422   8.568  12.531   1.458
78863SOL    HW238423   8.587  12.674   1.411
78864SOL     OW38424  13.766  11.254   8.347
78864SOL    HW138425  13.720  11.301   8.417
78864SOL    HW238426  13.732  11.165   8.352
78865SOL     OW38427   3.040   0.510  13.488
78865SOL    HW138428   3.053   0.484  13.579
78865SOL    HW238429   3.101   0.455  13.438
78866SOL     OW38430   7.369   7.408  14.215
78866SOL    HW138431   7.427   7.349  14.263
78866SOL    HW238432   7.397   7.496  14.239
78867SOL     OW38433  13.787   7.940  11.905
78867SOL    HW138434  13.698   7.972  11.917
78867SOL    HW238435  13.841   8.019  11.907
78868SOL     OW38436   5.464   4.735  11.771
78868SOL    HW138437   5.378   4.711  11.735
78868SOL    HW238438   5.450   4.822  11.808
78869SOL     OW38439  11.524   4.694   1.208
78869SOL    HW138440  11.519   4.784   1.239
78869SOL    HW238441  11.486   4.697   1.120
78870SOL     OW38442   6.641  13.374  11.351
78870SOL    HW138443   6.634  13.350  11.444
78870SOL    HW238444   6.702  13.447  11.350
78871SOL     OW38445  11.352   2.968  14.001
78871SOL    HW138446  11.388   3.052  13.972
78871SOL    HW238447  11.269   2.960  13.955
78872SOL     OW38448  13.158   8.784  10.641
78872SOL    HW138449  13.211   8.844  10.589
78872SOL    HW238450  13.093   8.749  10.580
78873SOL     OW38451   1.485   9.414   7.121
78873SOL    HW138452   1.390   9.414   7.109
78873SOL    HW238453   1.500   9.470   7.197
78874SOL     OW38454  14.376   5.500   6.488
78874SOL    HW138455  14.449   5.441   6.475
78874SOL    HW238456  14.318   5.454   6.549
78875SOL     OW38457  14.385   4.319   1.680
78875SOL    HW138458  14.347   4.275   1.756
78875SOL    HW238459  14.315   4.322   1.616
78876SOL     OW38460   3.263   5.377  12.294
78876SOL    HW138461   3.195   5.390  12.227
78876SOL    HW238462   3.248   5.289  12.328
78877SOL     OW38463  12.425   7.231   5.383
78877SOL    HW138464  12.473   7.311   5.364
78877SOL    HW238465  12.427   7.181   5.301
78878SOL     OW38466  13.540  13.139   9.362
78878SOL    HW138467  13.618  13.090   9.388
78878SOL    HW238468  13.469  13.074   9.365
78879SOL     OW38469   0.712  10.933   4.564
78879SOL    HW138470   0.746  11.008   4.516
78879SOL    HW238471   0.673  10.971   4.643
78880SOL     OW38472   8.163   1.221   6.393
78880SOL    HW138473   8.132   1.273   6.319
78880SOL    HW238474   8.089   1.165   6.415
78881SOL     OW38475   4.322  10.630   2.391
78881SOL    HW138476   4.349  10.545   2.427
78881SOL    HW238477   4.328  10.691   2.465
78882SOL     OW38478   0.232   5.476   7.612
78882SOL    HW138479   0.271   5.491   7.526
78882SOL    HW238480   0.307   5.467   7.671
78883SOL     OW38481   9.074   4.742   0.948
78883SOL    HW138482   9.149   4.687   0.971
78883SOL    HW238483   9.099   4.784   0.865
78884SOL     OW38484  13.670  12.215   0.486
78884SOL    HW138485  13.652  12.303   0.520
78884SOL    HW238486  13.719  12.229   0.405
78885SOL     OW38487  14.227  10.260   5.651
78885SOL    HW138488  14.288  10.313   5.599
78885SOL    HW238489  14.147  10.312   5.655
78886SOL     OW38490   7.258   3.363   2.994
78886SOL    HW138491   7.186   3.307   3.024
78886SOL    HW238492   7.321   3.361   3.066
78887SOL     OW38493  10.744   7.653   6.219
78887SOL    HW138494  10.791   7.730   6.188
78887SOL    HW238495  10.656   7.684   6.237
78888SOL     OW38496   5.901   4.076   5.428
78888SOL    HW138497   5.837   4.082   5.357
78888SOL    HW238498   5.950   3.996   5.408
78889SOL     OW38499   7.471   0.224  10.980
78889SOL    HW138500   7.443   0.275  11.056
78889SOL    HW238501   7.558   0.258  10.959
78890SOL     OW38502   9.637   2.733  13.666
78890SOL    HW138503   9.731   2.744  13.678
78890SOL    HW238504   9.623   2.754  13.573
78891SOL     OW38505   0.095   7.242   9.927
78891SOL    HW138506   0.078   7.148   9.928
78891SOL    HW238507   0.190   7.249   9.938
78892SOL     OW38508   4.370  11.405   5.418
78892SOL    HW138509   4.276  11.424   5.407
78892SOL    HW238510   4.411  11.491   5.417
78893SOL     OW38511  11.948   8.277   7.922
78893SOL    HW138512  11.893   8.323   7.859
78893SOL    HW238513  11.887   8.230   7.979
78894SOL     OW38514   3.859   1.730   5.088
78894SOL    HW138515   3.926   1.677   5.133
78894SOL    HW238516   3.909   1.800   5.046
78895SOL     OW38517  13.618   9.937   4.558
78895SOL    HW138518  13.603   9.843   4.561
78895SOL    HW238519  13.531   9.975   4.546
78896SOL     OW38520   7.550   3.952  14.840
78896SOL    HW138521   7.579   4.016  14.775
78896SOL    HW238522   7.480   3.997   0.009
78897SOL     OW38523   3.354   5.980  13.248
78897SOL    HW138524   3.443   5.986  13.282
78897SOL    HW238525   3.301   6.027  13.312
78898SOL     OW38526   2.937   7.205  12.811
78898SOL    HW138527   3.017   7.211  12.863
78898SOL    HW238528   2.965   7.169  12.726
78899SOL     OW38529  11.465  13.337  14.185
78899SOL    HW138530  11.413  13.405  14.227
78899SOL    HW238531  11.449  13.259  14.238
78900SOL     OW38532   0.298   0.649   7.926
78900SOL    HW138533   0.215   0.630   7.883
78900SOL    HW238534   0.277   0.654   8.019
78901SOL     OW38535  14.203  13.663  14.348
78901SOL    HW138536  14.138  13.644  14.416
78901SOL    HW238537  14.276  13.605  14.369
78902SOL     OW38538   2.214   1.967  10.875
78902SOL    HW138539   2.150   1.914  10.827
78902SOL    HW238540   2.299   1.934  10.845
78903SOL     OW38541   0.838   1.911   7.857
78903SOL    HW138542   0.806   2.001   7.860
78903SOL    HW238543   0.843   1.885   7.949
78904SOL     OW38544   5.826   4.423   6.981
78904SOL    HW138545   5.825   4.484   6.908
78904SOL    HW238546   5.845   4.477   7.058
78905SOL     OW38547   5.025   3.522   2.480
78905SOL    HW138548   4.935   3.550   2.493
78905SOL    HW238549   5.067   3.598   2.439
78906SOL     OW38550   0.448   3.323   7.704
78906SOL    HW138551   0.463   3.390   7.771
78906SOL    HW238552   0.385   3.362   7.644
78907SOL     OW38553   0.414  14.816   3.546
78907SOL    HW138554   0.488  14.781   3.595
78907SOL    HW238555   0.411  14.763   3.466
78908SOL     OW38556   3.270  11.706   8.944
78908SOL    HW138557   3.190  11.654   8.941
78908SOL    HW238558   3.335  11.648   8.983
78909SOL     OW38559   1.711  12.248   3.719
78909SOL    HW138560   1.637  12.299   3.686
78909SOL    HW238561   1.787  12.281   3.671
78910SOL     OW38562   6.718   7.128   4.590
78910SOL    HW138563   6.634   7.173   4.597
78910SOL    HW238564   6.783   7.196   4.608
78911SOL     OW38565   4.550  10.603   9.747
78911SOL    HW138566   4.521  10.685   9.707
78911SOL    HW238567   4.612  10.566   9.684
78912SOL     OW38568   6.439   1.534   6.186
78912SOL    HW138569   6.420   1.440   6.191
78912SOL    HW238570   6.385   1.566   6.115
78913SOL     OW38571   5.065  13.869   5.022
78913SOL    HW138572   5.076  13.926   5.098
78913SOL    HW238573   4.974  13.840   5.027
78914SOL     OW38574   3.371  12.920   7.164
78914SOL    HW138575   3.431  12.953   7.231
78914SOL    HW238576   3.361  12.993   7.103
78915SOL     OW38577  13.699   0.025  12.178
78915SOL    HW138578  13.697   0.121  12.173
78915SOL    HW238579  13.791   0.002  12.167
78916SOL     OW38580   5.429  10.556   8.891
78916SOL    HW138581   5.514  10.518   8.911
78916SOL    HW238582   5.398  10.509   8.814
78917SOL     OW38583  13.708  10.636   4.478
78917SOL    HW138584  13.760  10.648   4.398
78917SOL    HW238585  13.736  10.550   4.512
78918SOL     OW38586   7.852   6.396  12.217
78918SOL    HW138587   7.903   6.317  12.197
78918SOL    HW238588   7.778   6.392  12.157
78919SOL     OW38589  13.758   9.136  14.651
78919SOL    HW138590  13.668   9.161  14.631
78919SOL    HW238591  13.750   9.050  14.693
78920SOL     OW38592   8.077   4.303   3.284
78920SOL    HW138593   8.116   4.288   3.370
78920SOL    HW238594   7.983   4.310   3.301
78921SOL     OW38595  10.093   5.584  12.937
78921SOL    HW138596  10.124   5.661  12.986
78921SOL    HW238597  10.153   5.578  12.862
78922SOL     OW38598   9.529   0.887   0.352
78922SOL    HW138599   9.499   0.797   0.365
78922SOL    HW238600   9.449   0.939   0.356
78923SOL     OW38601  11.944  13.103  11.221
78923SOL    HW138602  11.989  13.160  11.283
78923SOL    HW238603  11.935  13.155  11.141
78924SOL     OW38604   8.570   3.845   2.990
78924SOL    HW138605   8.482   3.857   2.954
78924SOL    HW238606   8.561   3.774   3.053
78925SOL     OW38607   5.053   3.680   3.127
78925SOL    HW138608   4.995   3.632   3.067
78925SOL    HW238609   5.134   3.692   3.077
78926SOL     OW38610   5.745   6.657  11.537
78926SOL    HW138611   5.692   6.696  11.606
78926SOL    HW238612   5.681   6.625  11.473
78927SOL     OW38613  10.829   6.572   5.986
78927SOL    HW138614  10.878   6.651   6.011
78927SOL    HW238615  10.756   6.569   6.048
78928SOL     OW38616   2.911   7.607   1.673
78928SOL    HW138617   2.921   7.514   1.654
78928SOL    HW238618   2.946   7.618   1.761
78929SOL     OW38619  13.598  10.387   2.222
78929SOL    HW138620  13.585  10.333   2.144
78929SOL    HW238621  13.524  10.447   2.223
78930SOL     OW38622   7.357   2.154   4.682
78930SOL    HW138623   7.429   2.114   4.632
78930SOL    HW238624   7.280   2.137   4.629
78931SOL     OW38625   8.496   0.960   8.264
78931SOL    HW138626   8.536   1.026   8.208
78931SOL    HW238627   8.570   0.906   8.294
78932SOL     OW38628   4.658   8.657  13.130
78932SOL    HW138629   4.629   8.625  13.216
78932SOL    HW238630   4.600   8.614  13.067
78933SOL     OW38631   3.084  13.977   3.736
78933SOL    HW138632   3.169  13.965   3.777
78933SOL    HW238633   3.076  13.906   3.673
78934SOL     OW38634   8.722   0.832   8.386
78934SOL    HW138635   8.791   0.893   8.413
78934SOL    HW238636   8.697   0.786   8.466
78935SOL     OW38637   2.716  14.655   5.453
78935SOL    HW138638   2.650  14.605   5.405
78935SOL    HW238639   2.722  14.739   5.407
78936SOL     OW38640   5.781   4.186  14.119
78936SOL    HW138641   5.688   4.168  14.109
78936SOL    HW238642   5.787   4.281  14.122
78937SOL     OW38643   9.301   1.100   7.750
78937SOL    HW138644   9.241   1.054   7.809
78937SOL    HW238645   9.254   1.179   7.723
78938SOL     OW38646   2.122  13.779   9.580
78938SOL    HW138647   2.123  13.846   9.648
78938SOL    HW238648   2.211  13.779   9.545
78939SOL     OW38649   9.854   2.748  13.332
78939SOL    HW138650   9.856   2.818  13.268
78939SOL    HW238651   9.942   2.709  13.328
78940SOL     OW38652   7.560  11.962   7.301
78940SOL    HW138653   7.576  12.056   7.311
78940SOL    HW238654   7.549  11.931   7.391
78941SOL     OW38655   8.352   3.950   1.775
78941SOL    HW138656   8.296   3.902   1.714
78941SOL    HW238657   8.431   3.969   1.724
78942SOL     OW38658  10.403  13.319   6.178
78942SOL    HW138659  10.408  13.363   6.093
78942SOL    HW238660  10.493  13.318   6.210
78943SOL     OW38661  11.115   1.613   8.357
78943SOL    HW138662  11.085   1.641   8.270
78943SOL    HW238663  11.145   1.693   8.399
78944SOL     OW38664   4.330   4.145   9.719
78944SOL    HW138665   4.255   4.113   9.769
78944SOL    HW238666   4.352   4.229   9.759
78945SOL     OW38667   2.470   8.804   2.393
78945SOL    HW138668   2.388   8.844   2.421
78945SOL    HW238669   2.510   8.771   2.474
78946SOL     OW38670   1.114  10.535  10.002
78946SOL    HW138671   1.110  10.568  10.092
78946SOL    HW238672   1.205  10.506   9.991
78947SOL     OW38673   7.285   2.163   1.758
78947SOL    HW138674   7.190   2.159   1.746
78947SOL    HW238675   7.320   2.170   1.669
78948SOL     OW38676   5.477   1.124   6.737
78948SOL    HW138677   5.395   1.075   6.744
78948SOL    HW238678   5.460   1.190   6.669
78949SOL     OW38679   2.603   9.147   7.620
78949SOL    HW138680   2.619   9.063   7.576
78949SOL    HW238681   2.613   9.212   7.551
78950SOL     OW38682  11.073   9.519  10.867
78950SOL    HW138683  11.129   9.545  10.794
78950SOL    HW238684  11.112   9.440  10.902
78951SOL     OW38685  13.343   6.942   6.259
78951SOL    HW138686  13.315   6.944   6.167
78951SOL    HW238687  13.426   6.991   6.259
78952SOL     OW38688   5.772  11.428   7.693
78952SOL    HW138689   5.693  11.442   7.641
78952SOL    HW238690   5.743  11.435   7.784
78953SOL     OW38691  10.814   2.675   4.066
78953SOL    HW138692  10.899   2.635   4.046
78953SOL    HW238693  10.803   2.662   4.160
78954SOL     OW38694  10.501  12.687   0.253
78954SOL    HW138695  10.441  12.615   0.234
78954SOL    HW238696  10.447  12.751   0.301
78955SOL     OW38697   8.202  10.698  12.299
78955SOL    HW138698   8.138  10.769  12.307
78955SOL    HW238699   8.247  10.697  12.384
78956SOL     OW38700  14.367   6.861   8.522
78956SOL    HW138701  14.338   6.798   8.456
78956SOL    HW238702  14.388   6.807   8.599
78957SOL     OW38703   7.376   8.357   9.374
78957SOL    HW138704   7.350   8.279   9.422
78957SOL    HW238705   7.470   8.345   9.357
78958SOL     OW38706  13.650  12.400   8.210
78958SOL    HW138707  13.652  12.473   8.149
78958SOL    HW238708  13.715  12.338   8.176
78959SOL     OW38709  11.876   8.165  11.405
78959SOL    HW138710  11.931   8.110  11.349
78959SOL    HW238711  11.791   8.123  11.404
78960SOL     OW38712  14.484  12.221   9.971
78960SOL    HW138713  14.559  12.221   9.911
78960SOL    HW238714  14.518  12.261  10.051
78961SOL     OW38715   6.322   8.554   1.411
78961SOL    HW138716   6.271   8.477   1.383
78961SOL    HW238717   6.261   8.604   1.466
78962SOL     OW38718  14.087   1.222   9.318
78962SOL    HW138719  14.145   1.251   9.247
78962SOL    HW238720  14.017   1.174   9.274
78963SOL     OW38721  11.408   9.844   5.000
78963SOL    HW138722  11.390   9.911   5.066
78963SOL    HW238723  11.503   9.845   4.991
78964SOL     OW38724   0.935  10.280   7.968
78964SOL    HW138725   0.962  10.299   7.879
78964SOL    HW238726   0.861  10.220   7.958
78965SOL     OW38727   1.561   2.247   3.144
78965SOL    HW138728   1.608   2.281   3.220
78965SOL    HW238729   1.524   2.324   3.102
78966SOL     OW38730   9.441   0.066   0.621
78966SOL    HW138731   9.373   0.110   0.672
78966SOL    HW238732   9.435   0.106   0.534
78967SOL     OW38733   4.697  11.246  12.050
78967SOL    HW138734   4.765  11.195  12.094
78967SOL    HW238735   4.694  11.329  12.096
78968SOL     OW38736  14.564  14.400  10.365
78968SOL    HW138737  14.488  14.447  10.399
78968SOL    HW238738  14.630  14.406  10.435
78969SOL     OW38739   5.584   9.437   8.608
78969SOL    HW138740   5.541   9.354   8.590
78969SOL    HW238741   5.520   9.503   8.582
78970SOL     OW38742  12.888  13.679   2.288
78970SOL    HW138743  12.833  13.614   2.245
78970SOL    HW238744  12.843  13.762   2.274
78971SOL     OW38745   5.576   3.604   8.087
78971SOL    HW138746   5.660   3.636   8.053
78971SOL    HW238747   5.517   3.607   8.011
78972SOL     OW38748   0.834  10.245  12.599
78972SOL    HW138749   0.787  10.317  12.557
78972SOL    HW238750   0.809  10.250  12.691
78973SOL     OW38751   1.879  14.659   1.147
78973SOL    HW138752   1.839  14.633   1.064
78973SOL    HW238753   1.967  14.689   1.123
78974SOL     OW38754   2.796   9.224   0.009
78974SOL    HW138755   2.781   9.255  14.798
78974SOL    HW238756   2.716   9.248   0.056
78975SOL     OW38757   6.581   7.472   3.664
78975SOL    HW138758   6.653   7.438   3.611
78975SOL    HW238759   6.507   7.414   3.645
78976SOL     OW38760  14.804  10.936  12.964
78976SOL    HW138761  14.718  10.951  13.002
78976SOL    HW238762  14.811  10.841  12.956
78977SOL     OW38763   6.212  11.256   4.051
78977SOL    HW138764   6.198  11.200   3.974
78977SOL    HW238765   6.295  11.301   4.033
78978SOL     OW38766   8.610  10.186   4.477
78978SOL    HW138767   8.567  10.263   4.439
78978SOL    HW238768   8.697  10.216   4.500
78979SOL     OW38769  13.458   4.396   8.642
78979SOL    HW138770  13.521   4.415   8.572
78979SOL    HW238771  13.506   4.339   8.702
78980SOL     OW38772   2.031   2.316  10.067
78980SOL    HW138773   1.981   2.338   9.988
78980SOL    HW238774   2.070   2.231  10.048
78981SOL     OW38775   5.553  14.821   9.100
78981SOL    HW138776   5.564  14.810   9.005
78981SOL    HW238777   5.460  14.802   9.115
78982SOL     OW38778   0.234   2.647   7.624
78982SOL    HW138779   0.192   2.611   7.702
78982SOL    HW238780   0.326   2.622   7.632
78983SOL     OW38781  13.213  11.208   8.302
78983SOL    HW138782  13.197  11.289   8.254
78983SOL    HW238783  13.188  11.139   8.240
78984SOL     OW38784   5.137  14.257   3.060
78984SOL    HW138785   5.218  14.222   3.025
78984SOL    HW238786   5.162  14.298   3.142
78985SOL     OW38787   7.550   4.719   8.824
78985SOL    HW138788   7.588   4.732   8.911
78985SOL    HW238789   7.456   4.733   8.837
78986SOL     OW38790   2.351   4.079  12.712
78986SOL    HW138791   2.399   4.035  12.641
78986SOL    HW238792   2.391   4.045  12.792
78987SOL     OW38793  13.922   5.306  12.223
78987SOL    HW138794  13.868   5.276  12.150
78987SOL    HW238795  13.995   5.244  12.226
78988SOL     OW38796  12.742   0.385  13.814
78988SOL    HW138797  12.762   0.438  13.738
78988SOL    HW238798  12.790   0.426  13.886
78989SOL     OW38799   5.030   2.833   3.884
78989SOL    HW138800   5.095   2.886   3.837
78989SOL    HW238801   5.000   2.769   3.820
78990SOL     OW38802   4.575   6.252  10.498
78990SOL    HW138803   4.606   6.178  10.550
78990SOL    HW238804   4.526   6.306  10.559
78991SOL     OW38805   3.424   0.778   4.921
78991SOL    HW138806   3.498   0.742   4.873
78991SOL    HW238807   3.378   0.833   4.857
78992SOL     OW38808   6.195   1.121  10.010
78992SOL    HW138809   6.234   1.137   9.924
78992SOL    HW238810   6.238   1.040  10.040
78993SOL     OW38811   6.702  10.795  11.076
78993SOL    HW138812   6.747  10.879  11.083
78993SOL    HW238813   6.746  10.738  11.140
78994SOL     OW38814   1.109   3.164   5.175
78994SOL    HW138815   1.201   3.143   5.156
78994SOL    HW238816   1.099   3.255   5.145
78995SOL     OW38817   0.185  12.567   5.741
78995SOL    HW138818   0.281  12.564   5.746
78995SOL    HW238819   0.156  12.482   5.774
78996SOL     OW38820   3.865   8.575   9.032
78996SOL    HW138821   3.944   8.539   8.991
78996SOL    HW238822   3.816   8.614   8.959
78997SOL     OW38823   7.559   0.592   9.363
78997SOL    HW138824   7.540   0.611   9.272
78997SOL    HW238825   7.474   0.593   9.406
78998SOL     OW38826  13.633  10.938   0.878
78998SOL    HW138827  13.539  10.945   0.892
78998SOL    HW238828  13.651  10.844   0.885
78999SOL     OW38829  14.425   1.478   5.774
78999SOL    HW138830  14.378   1.476   5.690
78999SOL    HW238831  14.383   1.548   5.823
79000SOL     OW38832   1.931  11.208   8.825
79000SOL    HW138833   2.002  11.219   8.762
79000SOL    HW238834   1.875  11.285   8.813
79001SOL     OW38835   3.705   5.060   0.670
79001SOL    HW138836   3.655   5.044   0.750
79001SOL    HW238837   3.722   4.972   0.635
79002SOL     OW38838   4.123   1.539   2.563
79002SOL    HW138839   4.070   1.552   2.485
79002SOL    HW238840   4.203   1.589   2.547
79003SOL     OW38841  13.441  12.379   8.736
79003SOL    HW138842  13.461  12.406   8.647
79003SOL    HW238843  13.409  12.458   8.779
79004SOL     OW38844   0.640   0.639  11.404
79004SOL    HW138845   0.551   0.674  11.407
79004SOL    HW238846   0.658   0.631  11.310
79005SOL     OW38847   5.630   5.638   1.229
79005SOL    HW138848   5.630   5.582   1.151
79005SOL    HW238849   5.637   5.577   1.302
79006SOL     OW38850   3.062   0.070  10.329
79006SOL    HW138851   3.011   0.095  10.406
79006SOL    HW238852   3.017   0.113  10.256
79007SOL     OW38853   8.998  13.311  12.503
79007SOL    HW138854   8.979  13.237  12.560
79007SOL    HW238855   8.924  13.315  12.443
79008SOL     OW38856  12.973  10.087   7.874
79008SOL    HW138857  12.974  10.104   7.780
79008SOL    HW238858  13.064  10.064   7.895
79009SOL     OW38859   6.082   2.426   9.159
79009SOL    HW138860   6.146   2.464   9.219
79009SOL    HW238861   6.118   2.444   9.072
79010SOL     OW38862  13.219   0.597   6.420
79010SOL    HW138863  13.260   0.558   6.497
79010SOL    HW238864  13.146   0.648   6.455
79011SOL     OW38865   3.914  10.914   0.554
79011SOL    HW138866   3.947  10.908   0.644
79011SOL    HW238867   3.899  11.007   0.539
79012SOL     OW38868  10.778   8.553   6.764
79012SOL    HW138869  10.727   8.585   6.690
79012SOL    HW238870  10.837   8.488   6.727
79013SOL     OW38871   8.667   8.908   3.392
79013SOL    HW138872   8.701   8.992   3.362
79013SOL    HW238873   8.572   8.918   3.389
79014SOL     OW38874  14.406   9.333   8.718
79014SOL    HW138875  14.487   9.383   8.727
79014SOL    HW238876  14.423   9.252   8.768
79015SOL     OW38877   5.711  11.924  10.072
79015SOL    HW138878   5.682  11.995  10.129
79015SOL    HW238879   5.788  11.888  10.116
79016SOL     OW38880   2.679  14.107   9.924
79016SOL    HW138881   2.629  14.043   9.871
79016SOL    HW238882   2.763  14.065   9.939
79017SOL     OW38883   3.874  11.872   1.168
79017SOL    HW138884   3.966  11.857   1.189
79017SOL    HW238885   3.832  11.786   1.177
79018SOL     OW38886  13.402   7.938   6.134
79018SOL    HW138887  13.343   7.866   6.112
79018SOL    HW238888  13.374   7.967   6.221
79019SOL     OW38889   2.877   6.694   5.202
79019SOL    HW138890   2.964   6.735   5.197
79019SOL    HW238891   2.835   6.738   5.276
79020SOL     OW38892   9.392  11.693   0.196
79020SOL    HW138893   9.385  11.706   0.102
79020SOL    HW238894   9.462  11.628   0.206
79021SOL     OW38895  13.681   3.481   5.994
79021SOL    HW138896  13.667   3.408   6.054
79021SOL    HW238897  13.705   3.439   5.911
79022SOL     OW38898   5.765   5.713  13.952
79022SOL    HW138899   5.784   5.651  13.882
79022SOL    HW238900   5.847   5.719  14.002
79023SOL     OW38901  10.623   2.151   1.725
79023SOL    HW138902  10.626   2.069   1.676
79023SOL    HW238903  10.533   2.182   1.715
79024SOL     OW38904  13.004   0.306  11.659
79024SOL    HW138905  12.959   0.227  11.690
79024SOL    HW238906  13.042   0.281  11.575
79025SOL     OW38907   7.676  10.562  10.043
79025SOL    HW138908   7.740  10.514  10.094
79025SOL    HW238909   7.669  10.647  10.087
79026SOL     OW38910   2.598   2.135  14.832
79026SOL    HW138911   2.512   2.098  14.817
79026SOL    HW238912   2.658   2.060  14.831
79027SOL     OW38913   4.699   3.533  13.331
79027SOL    HW138914   4.790   3.554  13.310
79027SOL    HW238915   4.686   3.445  13.297
79028SOL     OW38916  14.064  11.737   1.139
79028SOL    HW138917  14.102  11.680   1.206
79028SOL    HW238918  14.117  11.817   1.142
79029SOL     OW38919   9.749  12.307   0.140
79029SOL    HW138920   9.720  12.218   0.119
79029SOL    HW238921   9.758  12.307   0.235
79030SOL     OW38922  10.898   0.946   6.914
79030SOL    HW138923  10.818   0.993   6.939
79030SOL    HW238924  10.969   1.006   6.936
79031SOL     OW38925   1.344  14.614   3.461
79031SOL    HW138926   1.321  14.696   3.505
79031SOL    HW238927   1.439  14.610   3.466
79032SOL     OW38928   6.185  11.829  10.119
79032SOL    HW138929   6.214  11.911  10.160
79032SOL    HW238930   6.188  11.848  10.025
79033SOL     OW38931   2.021   3.565   9.936
79033SOL    HW138932   2.070   3.643   9.913
79033SOL    HW238933   2.087   3.501   9.964
79034SOL     OW38934   0.762  13.023   5.767
79034SOL    HW138935   0.692  12.966   5.735
79034SOL    HW238936   0.775  12.995   5.858
79035SOL     OW38937   9.909   0.176   1.893
79035SOL    HW138938   9.987   0.195   1.841
79035SOL    HW238939   9.845   0.242   1.866
79036SOL     OW38940   0.543   6.176   1.142
79036SOL    HW138941   0.595   6.105   1.180
79036SOL    HW238942   0.457   6.138   1.129
79037SOL     OW38943  12.068  13.986   9.827
79037SOL    HW138944  11.996  14.010   9.769
79037SOL    HW238945  12.060  13.891   9.837
79038SOL     OW38946   3.112   2.883   5.302
79038SOL    HW138947   3.087   2.849   5.389
79038SOL    HW238948   3.029   2.910   5.263
79039SOL     OW38949   4.299   8.741   0.496
79039SOL    HW138950   4.233   8.755   0.427
79039SOL    HW238951   4.253   8.760   0.577
79040SOL     OW38952   2.922  13.035   0.061
79040SOL    HW138953   2.871  13.108   0.024
79040SOL    HW238954   2.865  12.999   0.129
79041SOL     OW38955   9.780  14.517  12.784
79041SOL    HW138956   9.812  14.603  12.758
79041SOL    HW238957   9.858  14.472  12.818
79042SOL     OW38958  13.769   8.631   5.198
79042SOL    HW138959  13.802   8.698   5.137
79042SOL    HW238960  13.829   8.636   5.273
79043SOL     OW38961   9.885   7.961   3.339
79043SOL    HW138962   9.913   8.013   3.264
79043SOL    HW238963   9.923   7.874   3.324
79044SOL     OW38964   4.494  12.693   1.827
79044SOL    HW138965   4.545  12.734   1.756
79044SOL    HW238966   4.498  12.599   1.807
79045SOL     OW38967   0.584  12.801   0.415
79045SOL    HW138968   0.657  12.845   0.459
79045SOL    HW238969   0.510  12.861   0.426
79046SOL     OW38970   3.734   9.977   7.545
79046SOL    HW138971   3.640   9.962   7.536
79046SOL    HW238972   3.745  10.072   7.533
79047SOL     OW38973  13.211  14.525   5.398
79047SOL    HW138974  13.125  14.560   5.421
79047SOL    HW238975  13.204  14.431   5.414
79048SOL     OW38976  13.193  13.849   2.104
79048SOL    HW138977  13.263  13.797   2.145
79048SOL    HW238978  13.127  13.784   2.079
79049SOL     OW38979   8.642   2.113  14.161
79049SOL    HW138980   8.696   2.117  14.240
79049SOL    HW238981   8.704   2.088  14.092
79050SOL     OW38982   6.463   1.893   7.403
79050SOL    HW138983   6.387   1.937   7.440
79050SOL    HW238984   6.429   1.839   7.332
79051SOL     OW38985   1.555  12.680  11.438
79051SOL    HW138986   1.483  12.703  11.380
79051SOL    HW238987   1.564  12.585  11.429
79052SOL     OW38988  11.708   8.682   2.633
79052SOL    HW138989  11.626   8.635   2.615
79052SOL    HW238990  11.698   8.767   2.591
79053SOL     OW38991   0.431   6.768   4.824
79053SOL    HW138992   0.509   6.714   4.833
79053SOL    HW238993   0.446   6.820   4.746
79054SOL     OW38994  13.344   4.830   7.860
79054SOL    HW138995  13.357   4.866   7.948
79054SOL    HW238996  13.413   4.870   7.808
79055SOL     OW38997   9.552   5.120  11.770
79055SOL    HW138998   9.493   5.093  11.840
79055SOL    HW238999   9.498   5.171  11.710
79056SOL     OW39000  12.989   7.430   2.278
79056SOL    HW139001  13.003   7.340   2.309
79056SOL    HW239002  13.075   7.472   2.286
79057SOL     OW39003   4.014   5.795   9.215
79057SOL    HW139004   4.106   5.780   9.197
79057SOL    HW239005   3.968   5.758   9.140
79058SOL     OW39006  12.906   9.487   7.806
79058SOL    HW139007  12.849   9.564   7.807
79058SOL    HW239008  12.992   9.520   7.831
79059SOL     OW39009   7.106   8.625   8.123
79059SOL    HW139010   7.193   8.650   8.091
79059SOL    HW239011   7.057   8.708   8.123
79060SOL     OW39012   1.930   2.620  12.100
79060SOL    HW139013   1.883   2.679  12.041
79060SOL    HW239014   1.889   2.534  12.086
79061SOL     OW39015  10.005   8.125  12.708
79061SOL    HW139016   9.985   8.062  12.638
79061SOL    HW239017  10.011   8.209  12.663
79062SOL     OW39018  14.307  13.449  11.421
79062SOL    HW139019  14.378  13.491  11.470
79062SOL    HW239020  14.350  13.376  11.375
79063SOL     OW39021   0.526  12.119   4.327
79063SOL    HW139022   0.603  12.171   4.352
79063SOL    HW239023   0.451  12.175   4.350
79064SOL     OW39024   8.973   5.600  13.698
79064SOL    HW139025   8.983   5.545  13.776
79064SOL    HW239026   9.033   5.561  13.633
79065SOL     OW39027   8.501  13.708   6.228
79065SOL    HW139028   8.566  13.746   6.287
79065SOL    HW239029   8.470  13.630   6.273
79066SOL     OW39030  14.312   4.174   4.633
79066SOL    HW139031  14.315   4.078   4.641
79066SOL    HW239032  14.364   4.192   4.555
79067SOL     OW39033  13.585   6.309  13.001
79067SOL    HW139034  13.547   6.222  13.016
79067SOL    HW239035  13.562   6.359  13.079
79068SOL     OW39036   4.720   0.362  13.804
79068SOL    HW139037   4.760   0.277  13.791
79068SOL    HW239038   4.640   0.343  13.854
79069SOL     OW39039   4.533  13.872   5.784
79069SOL    HW139040   4.557  13.878   5.877
79069SOL    HW239041   4.584  13.940   5.741
79070SOL     OW39042   3.267  13.608   5.041
79070SOL    HW139043   3.276  13.652   4.957
79070SOL    HW239044   3.177  13.627   5.068
79071SOL     OW39045   6.482  10.675  14.588
79071SOL    HW139046   6.566  10.710  14.616
79071SOL    HW239047   6.505  10.614  14.518
79072SOL     OW39048   7.059   5.792   2.104
79072SOL    HW139049   7.024   5.704   2.091
79072SOL    HW239050   7.148   5.787   2.070
79073SOL     OW39051  14.416   0.169  11.903
79073SOL    HW139052  14.424   0.179  11.998
79073SOL    HW239053  14.421   0.075  11.887
79074SOL     OW39054  11.363   8.842  12.358
79074SOL    HW139055  11.443   8.878  12.319
79074SOL    HW239056  11.357   8.885  12.443
79075SOL     OW39057   8.713  10.471   9.729
79075SOL    HW139058   8.728  10.401   9.793
79075SOL    HW239059   8.745  10.550   9.772
79076SOL     OW39060  12.914   7.019  14.861
79076SOL    HW139061  12.928   7.002   0.076
79076SOL    HW239062  12.995   6.993  14.819
79077SOL     OW39063   7.625   6.096   7.903
79077SOL    HW139064   7.671   6.015   7.922
79077SOL    HW239065   7.679   6.164   7.943
79078SOL     OW39066   0.713  10.240   7.608
79078SOL    HW139067   0.797  10.207   7.641
79078SOL    HW239068   0.660  10.161   7.595
79079SOL     OW39069   8.317   3.837  14.853
79079SOL    HW139070   8.386   3.791  14.805
79079SOL    HW239071   8.364   3.890   0.038
79080SOL     OW39072  12.976   8.806  14.416
79080SOL    HW139073  13.055   8.773  14.373
79080SOL    HW239074  12.963   8.893  14.379
79081SOL     OW39075   1.116   2.287   1.054
79081SOL    HW139076   1.124   2.199   1.019
79081SOL    HW239077   1.060   2.334   0.993
79082SOL     OW39078  11.245   4.399   4.644
79082SOL    HW139079  11.302   4.445   4.582
79082SOL    HW239080  11.218   4.467   4.706
79083SOL     OW39081   4.144   3.004  13.407
79083SOL    HW139082   4.098   2.940  13.463
79083SOL    HW239083   4.155   2.958  13.324
79084SOL     OW39084   6.687  14.274  11.760
79084SOL    HW139085   6.779  14.282  11.783
79084SOL    HW239086   6.646  14.353  11.796
79085SOL     OW39087  13.614  14.011   2.737
79085SOL    HW139088  13.553  14.028   2.809
79085SOL    HW239089  13.690  13.971   2.780
79086SOL     OW39090  10.614  14.174  13.731
79086SOL    HW139091  10.542  14.127  13.774
79086SOL    HW239092  10.661  14.217  13.803
79087SOL     OW39093  12.742   0.730   6.157
79087SOL    HW139094  12.676   0.707   6.222
79087SOL    HW239095  12.755   0.824   6.168
79088SOL     OW39096   6.519   0.461   5.468
79088SOL    HW139097   6.597   0.488   5.420
79088SOL    HW239098   6.520   0.365   5.463
79089SOL     OW39099   4.819   2.510   2.923
79089SOL    HW139100   4.835   2.438   2.983
79089SOL    HW239101   4.756   2.475   2.860
79090SOL     OW39102   4.738   4.189   7.774
79090SOL    HW139103   4.789   4.255   7.820
79090SOL    HW239104   4.781   4.180   7.689
79091SOL     OW39105   0.985   5.003   9.491
79091SOL    HW139106   0.991   4.920   9.539
79091SOL    HW239107   1.070   5.013   9.450
79092SOL     OW39108   3.635   4.939   1.775
79092SOL    HW139109   3.707   4.999   1.793
79092SOL    HW239110   3.628   4.938   1.679
79093SOL     OW39111  11.586   3.710   1.938
79093SOL    HW139112  11.626   3.753   1.862
79093SOL    HW239113  11.530   3.777   1.977
79094SOL     OW39114   3.192   6.583   6.115
79094SOL    HW139115   3.270   6.563   6.168
79094SOL    HW239116   3.126   6.521   6.145
79095SOL     OW39117  11.308  12.157   8.542
79095SOL    HW139118  11.228  12.143   8.592
79095SOL    HW239119  11.280  12.158   8.451
79096SOL     OW39120   7.321   0.581   9.499
79096SOL    HW139121   7.320   0.657   9.557
79096SOL    HW239122   7.310   0.506   9.557
79097SOL     OW39123   3.682   6.029   2.372
79097SOL    HW139124   3.646   6.009   2.286
79097SOL    HW239125   3.769   5.990   2.371
79098SOL     OW39126  12.105   8.007  14.793
79098SOL    HW139127  12.119   8.022   0.008
79098SOL    HW239128  12.128   7.915  14.780
79099SOL     OW39129   6.614   1.489  12.164
79099SOL    HW139130   6.612   1.584  12.159
79099SOL    HW239131   6.570   1.468  12.246
79100SOL     OW39132  10.902   1.489   0.558
79100SOL    HW139133  10.837   1.434   0.601
79100SOL    HW239134  10.986   1.452   0.583
79101SOL     OW39135   9.546  14.793  11.129
79101SOL    HW139136   9.531  14.865  11.190
79101SOL    HW239137   9.570  14.719  11.184
79102SOL     OW39138   8.192   3.382   8.349
79102SOL    HW139139   8.170   3.456   8.406
79102SOL    HW239140   8.174   3.304   8.403
79103SOL     OW39141  13.152   6.257   0.132
79103SOL    HW139142  13.129   6.348   0.109
79103SOL    HW239143  13.092   6.204   0.079
79104SOL     OW39144   2.196  12.914   6.305
79104SOL    HW139145   2.119  12.928   6.361
79104SOL    HW239146   2.230  12.829   6.332
79105SOL     OW39147   0.517  10.145   6.561
79105SOL    HW139148   0.506  10.059   6.601
79105SOL    HW239149   0.452  10.147   6.491
79106SOL     OW39150   0.164  12.102  10.744
79106SOL    HW139151   0.101  12.033  10.764
79106SOL    HW239152   0.215  12.112  10.824
79107SOL     OW39153  14.414   0.035   7.513
79107SOL    HW139154  14.369   0.083   7.443
79107SOL    HW239155  14.424   0.099   7.583
79108SOL     OW39156   8.094   7.634   6.208
79108SOL    HW139157   8.049   7.551   6.221
79108SOL    HW239158   8.032   7.689   6.161
79109SOL     OW39159   7.772   5.155   9.222
79109SOL    HW139160   7.727   5.224   9.270
79109SOL    HW239161   7.739   5.162   9.133
79110SOL     OW39162  10.634  12.459   0.835
79110SOL    HW139163  10.701  12.462   0.904
79110SOL    HW239164  10.564  12.407   0.874
79111SOL     OW39165  13.516   6.967   2.855
79111SOL    HW139166  13.594   6.997   2.809
79111SOL    HW239167  13.547   6.896   2.911
79112SOL     OW39168   5.328   1.038  13.250
79112SOL    HW139169   5.422   1.039  13.232
79112SOL    HW239170   5.300   1.128  13.230
79113SOL     OW39171   1.845   1.553   5.863
79113SOL    HW139172   1.914   1.526   5.803
79113SOL    HW239173   1.888   1.557   5.949
79114SOL     OW39174   5.703   1.057   5.816
79114SOL    HW139175   5.776   1.058   5.754
79114SOL    HW239176   5.700   0.966   5.847
79115SOL     OW39177   3.287  12.517  13.723
79115SOL    HW139178   3.257  12.433  13.688
79115SOL    HW239179   3.328  12.560  13.649
79116SOL     OW39180   1.341  13.985  14.285
79116SOL    HW139181   1.274  14.048  14.259
79116SOL    HW239182   1.338  13.986  14.381
79117SOL     OW39183   5.370   1.785  12.879
79117SOL    HW139184   5.291   1.755  12.925
79117SOL    HW239185   5.378   1.726  12.804
79118SOL     OW39186   5.549   6.709   0.912
79118SOL    HW139187   5.630   6.760   0.900
79118SOL    HW239188   5.560   6.668   0.998
79119SOL     OW39189  11.707  11.018   7.932
79119SOL    HW139190  11.631  10.967   7.905
79119SOL    HW239191  11.778  10.986   7.876
79120SOL     OW39192   6.358  13.484   5.564
79120SOL    HW139193   6.293  13.434   5.514
79120SOL    HW239194   6.316  13.569   5.578
79121SOL     OW39195  11.349  13.758  14.480
79121SOL    HW139196  11.439  13.768  14.449
79121SOL    HW239197  11.351  13.681  14.536
79122SOL     OW39198  12.934  12.910   0.561
79122SOL    HW139199  13.015  12.928   0.512
79122SOL    HW239200  12.879  12.987   0.543
79123SOL     OW39201   2.420  11.760  10.459
79123SOL    HW139202   2.344  11.743  10.404
79123SOL    HW239203   2.388  11.749  10.549
79124SOL     OW39204  12.324   8.733  12.301
79124SOL    HW139205  12.374   8.728  12.220
79124SOL    HW239206  12.265   8.658  12.299
79125SOL     OW39207  11.235   2.648   8.464
79125SOL    HW139208  11.216   2.584   8.395
79125SOL    HW239209  11.160   2.707   8.464
79126SOL     OW39210   6.752   4.173   3.779
79126SOL    HW139211   6.670   4.188   3.826
79126SOL    HW239212   6.803   4.116   3.837
79127SOL     OW39213   2.031  10.481   8.717
79127SOL    HW139214   1.955  10.447   8.670
79127SOL    HW239215   2.101  10.480   8.652
79128SOL     OW39216  11.195  12.566   0.421
79128SOL    HW139217  11.112  12.606   0.396
79128SOL    HW239218  11.234  12.538   0.338
79129SOL     OW39219   3.120   4.956  14.411
79129SOL    HW139220   3.084   5.002  14.486
79129SOL    HW239221   3.181   5.019  14.371
79130SOL     OW39222   7.434   1.106  13.568
79130SOL    HW139223   7.463   1.193  13.596
79130SOL    HW239224   7.396   1.121  13.481
79131SOL     OW39225  11.504  14.701   2.720
79131SOL    HW139226  11.453  14.775   2.688
79131SOL    HW239227  11.474  14.627   2.666
79132SOL     OW39228   7.427  10.794   7.468
79132SOL    HW139229   7.502  10.811   7.525
79132SOL    HW239230   7.390  10.881   7.451
79133SOL     OW39231   4.664   0.973   6.372
79133SOL    HW139232   4.573   1.000   6.368
79133SOL    HW239233   4.713   1.049   6.341
79134SOL     OW39234   4.738   9.996  12.793
79134SOL    HW139235   4.769  10.044  12.716
79134SOL    HW239236   4.661   9.949  12.762
79135SOL     OW39237  12.023   8.674   1.680
79135SOL    HW139238  12.091   8.616   1.647
79135SOL    HW239239  11.991   8.631   1.759
79136SOL     OW39240  11.753   3.129   6.652
79136SOL    HW139241  11.745   3.034   6.647
79136SOL    HW239242  11.760   3.157   6.561
79137SOL     OW39243   2.637   7.651   4.506
79137SOL    HW139244   2.668   7.600   4.581
79137SOL    HW239245   2.716   7.674   4.458
79138SOL     OW39246   3.440   5.034   3.078
79138SOL    HW139247   3.442   4.938   3.081
79138SOL    HW239248   3.473   5.056   2.991
79139SOL     OW39249   0.860  14.062  13.048
79139SOL    HW139250   0.916  14.004  13.100
79139SOL    HW239251   0.915  14.090  12.975
79140SOL     OW39252   1.430  12.361  13.676
79140SOL    HW139253   1.478  12.328  13.752
79140SOL    HW239254   1.346  12.316  13.680
79141SOL     OW39255  11.659   5.416   2.220
79141SOL    HW139256  11.651   5.488   2.283
79141SOL    HW239257  11.753   5.412   2.201
79142SOL     OW39258  10.134   2.189   6.239
79142SOL    HW139259  10.141   2.097   6.263
79142SOL    HW239260  10.148   2.191   6.144
79143SOL     OW39261   4.947   9.092  10.268
79143SOL    HW139262   4.939   9.165  10.329
79143SOL    HW239263   4.864   9.044  10.277
79144SOL     OW39264  11.018   5.051  12.597
79144SOL    HW139265  11.091   5.068  12.537
79144SOL    HW239266  11.056   5.061  12.684
79145SOL     OW39267  12.292   6.408  10.299
79145SOL    HW139268  12.287   6.406  10.395
79145SOL    HW239269  12.386   6.408  10.280
79146SOL     OW39270   5.356   0.545   6.027
79146SOL    HW139271   5.349   0.563   5.933
79146SOL    HW239272   5.391   0.456   6.032
79147SOL     OW39273  12.419   2.250   3.241
79147SOL    HW139274  12.456   2.284   3.322
79147SOL    HW239275  12.460   2.303   3.172
79148SOL     OW39276   0.414   8.840  13.321
79148SOL    HW139277   0.334   8.854  13.371
79148SOL    HW239278   0.483   8.836  13.387
79149SOL     OW39279  10.906   4.833   9.647
79149SOL    HW139280  10.892   4.907   9.706
79149SOL    HW239281  10.819   4.795   9.635
79150SOL     OW39282   4.302  13.418   6.047
79150SOL    HW139283   4.281  13.487   5.984
79150SOL    HW239284   4.247  13.345   6.022
79151SOL     OW39285   9.989   5.130   1.841
79151SOL    HW139286  10.027   5.167   1.920
79151SOL    HW239287   9.912   5.081   1.871
79152SOL     OW39288   8.814   0.077   2.729
79152SOL    HW139289   8.779   0.166   2.728
79152SOL    HW239290   8.778   0.037   2.808
79153SOL     OW39291  13.533   6.112  10.021
79153SOL    HW139292  13.592   6.038  10.004
79153SOL    HW239293  13.457   6.072  10.065
79154SOL     OW39294   4.818   9.058   1.178
79154SOL    HW139295   4.765   9.012   1.113
79154SOL    HW239296   4.818   9.000   1.254
79155SOL     OW39297  10.697  13.200   6.695
79155SOL    HW139298  10.670  13.115   6.728
79155SOL    HW239299  10.666  13.263   6.760
79156SOL     OW39300   6.793  13.553  14.399
79156SOL    HW139301   6.764  13.591  14.317
79156SOL    HW239302   6.882  13.587  14.412
79157SOL     OW39303   2.494   2.763   2.628
79157SOL    HW139304   2.539   2.729   2.551
79157SOL    HW239305   2.502   2.694   2.694
79158SOL     OW39306   7.025   6.759  13.189
79158SOL    HW139307   6.941   6.804  13.186
79158SOL    HW239308   7.012   6.688  13.252
79159SOL     OW39309   4.002  12.944   7.535
79159SOL    HW139310   3.950  13.024   7.541
79159SOL    HW239311   3.991  12.901   7.619
79160SOL     OW39312   3.716  13.657  10.016
79160SOL    HW139313   3.710  13.736  10.069
79160SOL    HW239314   3.712  13.585  10.078
79161SOL     OW39315   6.739  12.269   9.985
79161SOL    HW139316   6.693  12.316   9.915
79161SOL    HW239317   6.674  12.260  10.055
79162SOL     OW39318   7.942   3.225  12.950
79162SOL    HW139319   7.916   3.167  13.022
79162SOL    HW239320   8.037   3.213  12.942
79163SOL     OW39321   6.643  12.428   9.792
79163SOL    HW139322   6.706  12.500   9.786
79163SOL    HW239323   6.605  12.422   9.704
79164SOL     OW39324  11.040  11.444  10.255
79164SOL    HW139325  11.005  11.408  10.337
79164SOL    HW239326  10.994  11.396  10.186
79165SOL     OW39327  13.863   5.408   9.223
79165SOL    HW139328  13.810   5.362   9.288
79165SOL    HW239329  13.916   5.340   9.183
79166SOL     OW39330  12.752  11.040   5.061
79166SOL    HW139331  12.800  11.084   4.991
79166SOL    HW239332  12.789  10.951   5.062
79167SOL     OW39333  12.869   7.830   0.584
79167SOL    HW139334  12.792   7.814   0.638
79167SOL    HW239335  12.901   7.915   0.613
79168SOL     OW39336  14.622   2.014   8.398
79168SOL    HW139337  14.581   2.087   8.443
79168SOL    HW239338  14.687   1.981   8.459
79169SOL     OW39339   8.827  14.125   9.455
79169SOL    HW139340   8.874  14.118   9.372
79169SOL    HW239341   8.737  14.105   9.433
79170SOL     OW39342   7.898  11.098  13.016
79170SOL    HW139343   7.936  11.145  13.090
79170SOL    HW239344   7.966  11.097  12.950
79171SOL     OW39345   5.338  10.847  10.081
79171SOL    HW139346   5.378  10.770  10.041
79171SOL    HW239347   5.261  10.813  10.126
79172SOL     OW39348   6.747   1.612  13.768
79172SOL    HW139349   6.687   1.618  13.693
79172SOL    HW239350   6.833   1.598  13.728
79173SOL     OW39351   8.176   6.117  13.004
79173SOL    HW139352   8.122   6.196  13.001
79173SOL    HW239353   8.120   6.052  13.047
79174SOL     OW39354  13.512   0.368  11.106
79174SOL    HW139355  13.470   0.454  11.098
79174SOL    HW239356  13.602   0.389  11.134
79175SOL     OW39357  11.922   2.319  13.226
79175SOL    HW139358  11.909   2.251  13.292
79175SOL    HW239359  11.959   2.393  13.274
79176SOL     OW39360   2.744   0.164  13.203
79176SOL    HW139361   2.730   0.132  13.293
79176SOL    HW239362   2.839   0.161  13.191
79177SOL     OW39363   8.391   2.050  13.116
79177SOL    HW139364   8.336   2.046  13.194
79177SOL    HW239365   8.461   2.111  13.140
79178SOL     OW39366  12.687   9.978   8.855
79178SOL    HW139367  12.706   9.951   8.945
79178SOL    HW239368  12.593   9.996   8.855
79179SOL     OW39369   1.264   0.255  11.625
79179SOL    HW139370   1.308   0.249  11.540
79179SOL    HW239371   1.175   0.224  11.608
79180SOL     OW39372   3.703  11.935  12.958
79180SOL    HW139373   3.778  11.881  12.932
79180SOL    HW239374   3.636  11.915  12.893
79181SOL     OW39375   7.635  11.358   1.195
79181SOL    HW139376   7.632  11.337   1.102
79181SOL    HW239377   7.580  11.436   1.204
79182SOL     OW39378   7.856  11.957  11.158
79182SOL    HW139379   7.881  11.930  11.246
79182SOL    HW239380   7.817  11.879  11.119
79183SOL     OW39381  13.984   9.303   5.678
79183SOL    HW139382  13.954   9.220   5.715
79183SOL    HW239383  14.075   9.310   5.706
79184SOL     OW39384  12.147  13.718  10.540
79184SOL    HW139385  12.103  13.781  10.597
79184SOL    HW239386  12.102  13.727  10.456
79185SOL     OW39387   9.056   9.223   5.525
79185SOL    HW139388   8.969   9.194   5.552
79185SOL    HW239389   9.075   9.299   5.581
79186SOL     OW39390   6.659  14.776   4.907
79186SOL    HW139391   6.672  14.751   4.816
79186SOL    HW239392   6.611  14.858   4.903
79187SOL     OW39393  12.575   8.009   2.966
79187SOL    HW139394  12.595   7.917   2.949
79187SOL    HW239395  12.660   8.053   2.966
79188SOL     OW39396  14.162   6.902   4.993
79188SOL    HW139397  14.190   6.881   4.904
79188SOL    HW239398  14.080   6.853   5.005
79189SOL     OW39399  10.120  11.657  10.106
79189SOL    HW139400  10.204  11.661  10.061
79189SOL    HW239401  10.141  11.667  10.199
79190SOL     OW39402  11.841   1.901   6.103
79190SOL    HW139403  11.865   1.990   6.078
79190SOL    HW239404  11.870   1.847   6.029
79191SOL     OW39405   1.890  14.861   8.405
79191SOL    HW139406   1.853  14.773   8.396
79191SOL    HW239407   1.908   0.010   8.315
79192SOL     OW39408   3.059  13.767   7.276
79192SOL    HW139409   2.998  13.839   7.293
79192SOL    HW239410   3.028  13.728   7.194
79193SOL     OW39411   7.350   7.074   7.108
79193SOL    HW139412   7.276   7.105   7.055
79193SOL    HW239413   7.415   7.047   7.043
79194SOL     OW39414  14.550   0.981   5.148
79194SOL    HW139415  14.582   1.065   5.113
79194SOL    HW239416  14.455   0.985   5.135
79195SOL     OW39417   9.835   7.995   9.013
79195SOL    HW139418   9.818   7.902   9.030
79195SOL    HW239419   9.815   8.037   9.097
79196SOL     OW39420  10.167  11.769  14.783
79196SOL    HW139421  10.073  11.774  14.799
79196SOL    HW239422  10.201  11.716  14.856
79197SOL     OW39423  11.362   6.720  10.320
79197SOL    HW139424  11.293   6.657  10.336
79197SOL    HW239425  11.328   6.775  10.249
79198SOL     OW39426  12.706   7.020  13.485
79198SOL    HW139427  12.745   7.023  13.398
79198SOL    HW239428  12.614   7.041  13.471
79199SOL     OW39429   4.210  12.228  12.259
79199SOL    HW139430   4.228  12.188  12.174
79199SOL    HW239431   4.121  12.263  12.251
79200SOL     OW39432   1.696  11.101   2.911
79200SOL    HW139433   1.611  11.145   2.919
79200SOL    HW239434   1.744  11.153   2.848
79201SOL     OW39435   0.024   6.565  11.199
79201SOL    HW139436   0.094   6.501  11.184
79201SOL    HW239437  14.845   6.522  11.261
79202SOL     OW39438   9.644   2.790   1.517
79202SOL    HW139439   9.674   2.746   1.596
79202SOL    HW239440   9.716   2.780   1.455
79203SOL     OW39441   2.784   7.966   8.625
79203SOL    HW139442   2.742   8.033   8.572
79203SOL    HW239443   2.867   8.006   8.651
79204SOL     OW39444   4.009  13.711   0.639
79204SOL    HW139445   3.987  13.799   0.609
79204SOL    HW239446   3.990  13.712   0.733
79205SOL     OW39447   1.283  11.535   4.848
79205SOL    HW139448   1.304  11.463   4.788
79205SOL    HW239449   1.189  11.550   4.835
79206SOL     OW39450  14.703  14.008  13.946
79206SOL    HW139451  14.703  14.026  14.040
79206SOL    HW239452  14.759  14.076  13.909
79207SOL     OW39453   5.479  12.136   4.838
79207SOL    HW139454   5.452  12.044   4.832
79207SOL    HW239455   5.538  12.139   4.913
79208SOL     OW39456  11.196   5.416   4.110
79208SOL    HW139457  11.236   5.395   4.194
79208SOL    HW239458  11.260   5.471   4.066
79209SOL     OW39459   1.558  14.549   4.968
79209SOL    HW139460   1.544  14.563   5.062
79209SOL    HW239461   1.546  14.455   4.955
79210SOL     OW39462  11.634   8.251   5.258
79210SOL    HW139463  11.594   8.191   5.322
79210SOL    HW239464  11.727   8.252   5.281
79211SOL     OW39465  10.179   4.617   0.294
79211SOL    HW139466  10.250   4.604   0.232
79211SOL    HW239467  10.149   4.706   0.278
79212SOL     OW39468   0.767   8.292  11.623
79212SOL    HW139469   0.694   8.354  11.623
79212SOL    HW239470   0.813   8.309  11.705
79213SOL     OW39471  10.117   0.743  12.953
79213SOL    HW139472  10.046   0.806  12.939
79213SOL    HW239473  10.164   0.741  12.869
79214SOL     OW39474   9.630   8.125   1.627
79214SOL    HW139475   9.673   8.118   1.711
79214SOL    HW239476   9.688   8.180   1.574
79215SOL     OW39477   2.577   4.985   3.387
79215SOL    HW139478   2.565   4.900   3.344
79215SOL    HW239479   2.513   4.984   3.459
79216SOL     OW39480   4.196   1.562  11.920
79216SOL    HW139481   4.118   1.508  11.933
79216SOL    HW239482   4.187   1.597  11.832
79217SOL     OW39483  13.550   1.748  13.198
79217SOL    HW139484  13.625   1.709  13.152
79217SOL    HW239485  13.559   1.717  13.288
79218SOL     OW39486   4.574   9.105  14.678
79218SOL    HW139487   4.652   9.119  14.625
79218SOL    HW239488   4.501   9.125  14.620
79219SOL     OW39489   9.184  11.547   1.063
79219SOL    HW139490   9.147  11.464   1.034
79219SOL    HW239491   9.135  11.613   1.014
79220SOL     OW39492  11.417   1.182   8.522
79220SOL    HW139493  11.400   1.177   8.617
79220SOL    HW239494  11.504   1.144   8.512
79221SOL     OW39495  11.771   8.013  10.790
79221SOL    HW139496  11.846   7.954  10.793
79221SOL    HW239497  11.789   8.071  10.717
79222SOL     OW39498   0.959   3.458  10.970
79222SOL    HW139499   1.054   3.450  10.976
79222SOL    HW239500   0.940   3.441  10.878
79223SOL     OW39501  13.651  12.735   0.031
79223SOL    HW139502  13.701  12.809  14.878
79223SOL    HW239503  13.581  12.774   0.083
79224SOL     OW39504  10.778  11.710   8.929
79224SOL    HW139505  10.775  11.700   9.024
79224SOL    HW239506  10.765  11.803   8.914
79225SOL     OW39507  11.048   3.914   2.792
79225SOL    HW139508  11.005   3.921   2.877
79225SOL    HW239509  11.083   3.825   2.789
79226SOL     OW39510  10.743  12.339   9.914
79226SOL    HW139511  10.761  12.412   9.974
79226SOL    HW239512  10.828  12.322   9.872
79227SOL     OW39513   8.287  13.438   1.504
79227SOL    HW139514   8.383  13.440   1.502
79227SOL    HW239515   8.261  13.512   1.449
79228SOL     OW39516   4.572  14.279   8.296
79228SOL    HW139517   4.518  14.310   8.368
79228SOL    HW239518   4.650  14.335   8.298
79229SOL     OW39519   5.211   3.109  13.186
79229SOL    HW139520   5.249   3.195  13.168
79229SOL    HW239521   5.275   3.065  13.242
79230SOL     OW39522  14.402   6.466   7.587
79230SOL    HW139523  14.361   6.547   7.559
79230SOL    HW239524  14.340   6.398   7.562
79231SOL     OW39525   7.781   3.083   6.605
79231SOL    HW139526   7.766   3.167   6.562
79231SOL    HW239527   7.788   3.105   6.698
79232SOL     OW39528   4.363   3.900   0.489
79232SOL    HW139529   4.285   3.849   0.463
79232SOL    HW239530   4.413   3.908   0.408
79233SOL     OW39531   3.248  10.282  11.802
79233SOL    HW139532   3.254  10.371  11.768
79233SOL    HW239533   3.157  10.256  11.785
79234SOL     OW39534   4.932   3.424   5.679
79234SOL    HW139535   4.881   3.408   5.599
79234SOL    HW239536   4.884   3.378   5.748
79235SOL     OW39537  13.196   7.940  14.533
79235SOL    HW139538  13.207   8.008  14.599
79235SOL    HW239539  13.117   7.894  14.559
79236SOL     OW39540  11.173   4.650   2.154
79236SOL    HW139541  11.236   4.722   2.161
79236SOL    HW239542  11.211   4.579   2.206
79237SOL     OW39543   2.411  13.087  11.915
79237SOL    HW139544   2.396  13.097  12.009
79237SOL    HW239545   2.420  13.176  11.883
79238SOL     OW39546   6.792  12.526  12.667
79238SOL    HW139547   6.747  12.543  12.584
79238SOL    HW239548   6.881  12.502  12.642
79239SOL     OW39549   4.690   9.517   5.017
79239SOL    HW139550   4.729   9.452   5.076
79239SOL    HW239551   4.618   9.554   5.067
79240SOL     OW39552  11.283   3.368   1.024
79240SOL    HW139553  11.330   3.398   0.946
79240SOL    HW239554  11.350   3.361   1.092
79241SOL     OW39555   9.487   8.101  10.152
79241SOL    HW139556   9.564   8.070  10.200
79241SOL    HW239557   9.416   8.044  10.181
79242SOL     OW39558   0.369   8.717   1.801
79242SOL    HW139559   0.375   8.642   1.742
79242SOL    HW239560   0.433   8.698   1.870
79243SOL     OW39561   3.382  14.118   6.613
79243SOL    HW139562   3.343  14.146   6.530
79243SOL    HW239563   3.436  14.191   6.640
79244SOL     OW39564  10.964  11.619   4.097
79244SOL    HW139565  10.986  11.712   4.100
79244SOL    HW239566  10.870  11.617   4.078
79245SOL     OW39567  13.879   2.245   9.119
79245SOL    HW139568  13.955   2.275   9.169
79245SOL    HW239569  13.808   2.303   9.146
79246SOL     OW39570   1.868  12.042   2.506
79246SOL    HW139571   1.853  12.013   2.596
79246SOL    HW239572   1.953  12.087   2.510
79247SOL     OW39573  13.515   6.420  10.997
79247SOL    HW139574  13.434   6.391  11.039
79247SOL    HW239575  13.584   6.390  11.055
79248SOL     OW39576   1.852  12.088  14.192
79248SOL    HW139577   1.764  12.065  14.163
79248SOL    HW239578   1.857  12.183  14.183
79249SOL     OW39579  12.431  14.068   1.545
79249SOL    HW139580  12.487  13.997   1.514
79249SOL    HW239581  12.362  14.025   1.596
79250SOL     OW39582   2.134  10.406  10.717
79250SOL    HW139583   2.110  10.498  10.706
79250SOL    HW239584   2.062  10.358  10.675
79251SOL     OW39585   1.029   5.302   7.689
79251SOL    HW139586   1.117   5.334   7.667
79251SOL    HW239587   1.042   5.209   7.707
79252SOL     OW39588  13.275  13.152  11.724
79252SOL    HW139589  13.231  13.154  11.638
79252SOL    HW239590  13.227  13.217  11.776
79253SOL     OW39591  10.015   0.013  13.430
79253SOL    HW139592  10.102   0.025  13.469
79253SOL    HW239593   9.955   0.053  13.492
79254SOL     OW39594  12.092   8.512  14.500
79254SOL    HW139595  12.041   8.446  14.454
79254SOL    HW239596  12.080   8.492  14.593
79255SOL     OW39597  13.562   9.864   0.802
79255SOL    HW139598  13.597   9.775   0.797
79255SOL    HW239599  13.468   9.855   0.789
79256SOL     OW39600  12.161   0.197   2.766
79256SOL    HW139601  12.248   0.160   2.752
79256SOL    HW239602  12.102   0.122   2.763
79257SOL     OW39603  12.601  13.381   6.773
79257SOL    HW139604  12.659  13.427   6.834
79257SOL    HW239605  12.605  13.434   6.693
79258SOL     OW39606   7.829   4.377   0.427
79258SOL    HW139607   7.740   4.347   0.447
79258SOL    HW239608   7.820   4.471   0.414
79259SOL     OW39609   4.688   2.363   8.249
79259SOL    HW139610   4.672   2.380   8.156
79259SOL    HW239611   4.718   2.272   8.252
79260SOL     OW39612  13.213   0.209   5.900
79260SOL    HW139613  13.253   0.244   5.820
79260SOL    HW239614  13.216   0.282   5.962
79261SOL     OW39615   9.113  12.958   2.841
79261SOL    HW139616   9.104  12.967   2.936
79261SOL    HW239617   9.049  12.890   2.817
79262SOL     OW39618  13.526   9.989   0.522
79262SOL    HW139619  13.546   9.934   0.598
79262SOL    HW239620  13.522   9.928   0.448
79263SOL     OW39621  10.146   4.379   6.147
79263SOL    HW139622  10.101   4.332   6.077
79263SOL    HW239623  10.155   4.468   6.113
79264SOL     OW39624  14.466   2.471  10.767
79264SOL    HW139625  14.426   2.411  10.830
79264SOL    HW239626  14.392   2.519  10.730
79265SOL     OW39627   1.960   9.221  12.923
79265SOL    HW139628   1.901   9.256  12.857
79265SOL    HW239629   1.914   9.233  13.006
79266SOL     OW39630  11.804  14.038   1.541
79266SOL    HW139631  11.809  13.958   1.592
79266SOL    HW239632  11.736  14.090   1.584
79267SOL     OW39633   3.326   9.692   2.676
79267SOL    HW139634   3.343   9.674   2.584
79267SOL    HW239635   3.241   9.735   2.677
79268SOL     OW39636  13.876   6.968  13.930
79268SOL    HW139637  13.958   6.920  13.927
79268SOL    HW239638  13.808   6.901  13.925
79269SOL     OW39639  14.315   4.803  10.022
79269SOL    HW139640  14.356   4.724   9.985
79269SOL    HW239641  14.266   4.840   9.949
79270SOL     OW39642   6.884   9.585   9.867
79270SOL    HW139643   6.894   9.504   9.915
79270SOL    HW239644   6.971   9.626   9.870
79271SOL     OW39645  13.182   7.948   0.116
79271SOL    HW139646  13.116   7.881   0.135
79271SOL    HW239647  13.266   7.906   0.136
79272SOL     OW39648  10.663   7.829   2.302
79272SOL    HW139649  10.737   7.841   2.242
79272SOL    HW239650  10.657   7.734   2.314
79273SOL     OW39651   7.734  12.150   6.651
79273SOL    HW139652   7.816  12.133   6.605
79273SOL    HW239653   7.666  12.131   6.587
79274SOL     OW39654  14.791  10.486  12.462
79274SOL    HW139655  14.730  10.530  12.402
79274SOL    HW239656  14.763  10.395  12.463
79275SOL     OW39657   1.568   2.717  11.628
79275SOL    HW139658   1.533   2.805  11.642
79275SOL    HW239659   1.622   2.700  11.705
79276SOL     OW39660  10.682  13.870   2.640
79276SOL    HW139661  10.675  13.944   2.579
79276SOL    HW239662  10.775  13.868   2.663
79277SOL     OW39663   9.176  11.646   8.072
79277SOL    HW139664   9.172  11.735   8.107
79277SOL    HW239665   9.192  11.590   8.148
79278SOL     OW39666  10.464  14.107   9.230
79278SOL    HW139667  10.551  14.113   9.190
79278SOL    HW239668  10.419  14.187   9.202
79279SOL     OW39669   7.685  14.756   9.023
79279SOL    HW139670   7.768  14.723   8.989
79279SOL    HW239671   7.647  14.806   8.950
79280SOL     OW39672   0.117   7.627   1.918
79280SOL    HW139673   0.194   7.623   1.975
79280SOL    HW239674   0.142   7.576   1.841
79281SOL     OW39675   2.666  14.797  14.129
79281SOL    HW139676   2.624  14.718  14.164
79281SOL    HW239677   2.600  14.835  14.070
79282SOL     OW39678   4.669  10.376   7.633
79282SOL    HW139679   4.689  10.459   7.677
79282SOL    HW239680   4.638  10.402   7.546
79283SOL     OW39681   2.608   3.530   9.632
79283SOL    HW139682   2.546   3.469   9.671
79283SOL    HW239683   2.575   3.617   9.656
79284SOL     OW39684   4.721   9.472   1.076
79284SOL    HW139685   4.696   9.397   1.130
79284SOL    HW239686   4.663   9.468   1.000
79285SOL     OW39687   3.950  13.341   0.800
79285SOL    HW139688   3.995  13.388   0.730
79285SOL    HW239689   4.005  13.266   0.818
79286SOL     OW39690   8.237   0.519   0.542
79286SOL    HW139691   8.269   0.494   0.455
79286SOL    HW239692   8.153   0.475   0.550
79287SOL     OW39693  11.498   4.544  10.159
79287SOL    HW139694  11.525   4.558  10.068
79287SOL    HW239695  11.404   4.525  10.153
79288SOL     OW39696  14.361   6.401   6.318
79288SOL    HW139697  14.284   6.456   6.332
79288SOL    HW239698  14.425   6.459   6.277
79289SOL     OW39699   0.647   3.106  14.026
79289SOL    HW139700   0.732   3.082  14.062
79289SOL    HW239701   0.632   3.043  13.956
79290SOL     OW39702   1.427   0.953   2.489
79290SOL    HW139703   1.427   1.040   2.528
79290SOL    HW239704   1.339   0.919   2.505
79291SOL     OW39705  14.483  14.411   0.380
79291SOL    HW139706  14.481  14.350   0.306
79291SOL    HW239707  14.539  14.483   0.351
79292SOL     OW39708   4.957   4.590   6.863
79292SOL    HW139709   4.975   4.523   6.929
79292SOL    HW239710   5.038   4.642   6.860
79293SOL     OW39711   1.686   0.591   9.228
79293SOL    HW139712   1.678   0.603   9.323
79293SOL    HW239713   1.769   0.544   9.217
79294SOL     OW39714  14.705  12.834  13.875
79294SOL    HW139715  14.612  12.840  13.851
79294SOL    HW239716  14.718  12.742  13.899
79295SOL     OW39717   3.134   6.713   4.595
79295SOL    HW139718   3.177   6.763   4.526
79295SOL    HW239719   3.185   6.733   4.674
79296SOL     OW39720  10.717  13.109   6.963
79296SOL    HW139721  10.693  13.098   7.055
79296SOL    HW239722  10.733  13.202   6.953
79297SOL     OW39723  11.097   5.745  12.820
79297SOL    HW139724  11.074   5.757  12.728
79297SOL    HW239725  11.076   5.653  12.838
79298SOL     OW39726   9.718   9.506   8.716
79298SOL    HW139727   9.761   9.444   8.775
79298SOL    HW239728   9.788   9.535   8.657
79299SOL     OW39729   8.932  11.520   7.915
79299SOL    HW139730   9.016  11.564   7.930
79299SOL    HW239731   8.918  11.467   7.993
79300SOL     OW39732   7.150  14.386   2.862
79300SOL    HW139733   7.186  14.437   2.790
79300SOL    HW239734   7.058  14.375   2.839
79301SOL     OW39735   7.810   8.466  10.538
79301SOL    HW139736   7.854   8.424  10.612
79301SOL    HW239737   7.808   8.399  10.470
79302SOL     OW39738   5.433   4.962  11.981
79302SOL    HW139739   5.345   4.953  12.020
79302SOL    HW239740   5.448   5.056  11.979
79303SOL     OW39741   8.097   0.437  10.247
79303SOL    HW139742   8.043   0.435  10.325
79303SOL    HW239743   8.077   0.355  10.202
79304SOL     OW39744   1.763   8.495   8.021
79304SOL    HW139745   1.738   8.549   8.096
79304SOL    HW239746   1.857   8.510   8.011
79305SOL     OW39747  11.390   6.208   2.669
79305SOL    HW139748  11.475   6.165   2.670
79305SOL    HW239749  11.333   6.149   2.718
79306SOL     OW39750   8.250   9.181  14.453
79306SOL    HW139751   8.260   9.185  14.358
79306SOL    HW239752   8.156   9.178  14.468
79307SOL     OW39753   2.632   5.251   0.451
79307SOL    HW139754   2.613   5.335   0.410
79307SOL    HW239755   2.641   5.270   0.544
79308SOL     OW39756   0.336  12.379   7.294
79308SOL    HW139757   0.241  12.366   7.303
79308SOL    HW239758   0.346  12.423   7.210
79309SOL     OW39759   1.804   4.444   1.777
79309SOL    HW139760   1.812   4.500   1.699
79309SOL    HW239761   1.860   4.486   1.842
79310SOL     OW39762  11.257   0.721   1.081
79310SOL    HW139763  11.173   0.677   1.091
79310SOL    HW239764  11.260   0.745   0.989
79311SOL     OW39765   3.263   3.707   7.162
79311SOL    HW139766   3.200   3.747   7.222
79311SOL    HW239767   3.256   3.613   7.180
79312SOL     OW39768  13.233   1.807  12.091
79312SOL    HW139769  13.216   1.733  12.148
79312SOL    HW239770  13.199   1.883  12.139
79313SOL     OW39771   9.441  12.421   0.212
79313SOL    HW139772   9.519  12.378   0.248
79313SOL    HW239773   9.375  12.352   0.209
79314SOL     OW39774  10.710  13.802  13.797
79314SOL    HW139775  10.738  13.820  13.708
79314SOL    HW239776  10.762  13.727  13.825
79315SOL     OW39777   3.701  13.327   7.370
79315SOL    HW139778   3.606  13.325   7.377
79315SOL    HW239779   3.718  13.370   7.286
79316SOL     OW39780   7.931   5.938   2.499
79316SOL    HW139781   7.925   6.022   2.453
79316SOL    HW239782   7.921   5.872   2.431
79317SOL     OW39783  11.562   3.597   7.573
79317SOL    HW139784  11.476   3.609   7.615
79317SOL    HW239785  11.624   3.639   7.632
79318SOL     OW39786   7.353   5.373   8.615
79318SOL    HW139787   7.334   5.292   8.662
79318SOL    HW239788   7.447   5.372   8.601
79319SOL     OW39789   9.682  10.420   9.676
79319SOL    HW139790   9.772  10.398   9.701
79319SOL    HW239791   9.686  10.513   9.654
79320SOL     OW39792   3.731  13.602   9.209
79320SOL    HW139793   3.799  13.652   9.254
79320SOL    HW239794   3.752  13.510   9.228
79321SOL     OW39795   5.663   2.235   5.914
79321SOL    HW139796   5.713   2.270   5.988
79321SOL    HW239797   5.578   2.212   5.951
79322SOL     OW39798  11.002   6.654   7.949
79322SOL    HW139799  10.975   6.712   8.021
79322SOL    HW239800  10.944   6.578   7.957
79323SOL     OW39801   3.578  13.129   6.886
79323SOL    HW139802   3.626  13.048   6.905
79323SOL    HW239803   3.639  13.199   6.907
79324SOL     OW39804   3.156   3.037   6.286
79324SOL    HW139805   3.176   2.946   6.309
79324SOL    HW239806   3.105   3.069   6.361
79325SOL     OW39807  12.113  11.253   1.632
79325SOL    HW139808  12.187  11.193   1.632
79325SOL    HW239809  12.064  11.232   1.553
79326SOL     OW39810   4.271   2.928  10.934
79326SOL    HW139811   4.276   2.876  10.855
79326SOL    HW239812   4.287   3.018  10.905
79327SOL     OW39813   8.813   8.428   8.927
79327SOL    HW139814   8.895   8.427   8.879
79327SOL    HW239815   8.793   8.336   8.944
79328SOL     OW39816  10.691  11.918   6.875
79328SOL    HW139817  10.775  11.881   6.904
79328SOL    HW239818  10.672  11.872   6.794
79329SOL     OW39819   3.738  10.521  13.107
79329SOL    HW139820   3.647  10.532  13.083
79329SOL    HW239821   3.767  10.443  13.061
79330SOL     OW39822  14.254  14.697   0.245
79330SOL    HW139823  14.321  14.652   0.298
79330SOL    HW239824  14.211  14.756   0.306
79331SOL     OW39825   1.748   0.415   8.438
79331SOL    HW139826   1.704   0.473   8.501
79331SOL    HW239827   1.766   0.336   8.488
79332SOL     OW39828  10.931  11.428  14.725
79332SOL    HW139829  10.840  11.436  14.756
79332SOL    HW239830  10.978  11.389  14.799
79333SOL     OW39831   9.178   0.300   3.668
79333SOL    HW139832   9.243   0.311   3.737
79333SOL    HW239833   9.141   0.387   3.655
79334SOL     OW39834   6.491  10.572   8.955
79334SOL    HW139835   6.570  10.519   8.966
79334SOL    HW239836   6.513  10.634   8.886
79335SOL     OW39837  12.973  12.210   8.251
79335SOL    HW139838  12.888  12.238   8.284
79335SOL    HW239839  12.991  12.127   8.296
79336SOL     OW39840   8.229   7.445   4.420
79336SOL    HW139841   8.201   7.400   4.500
79336SOL    HW239842   8.316   7.411   4.403
79337SOL     OW39843   6.874   7.468   6.203
79337SOL    HW139844   6.950   7.419   6.234
79337SOL    HW239845   6.882   7.554   6.243
79338SOL     OW39846   6.360  11.198   4.555
79338SOL    HW139847   6.378  11.285   4.590
79338SOL    HW239848   6.272  11.177   4.587
79339SOL     OW39849   6.503   9.651   3.683
79339SOL    HW139850   6.493   9.696   3.600
79339SOL    HW239851   6.459   9.707   3.747
79340SOL     OW39852   8.497  14.446  10.885
79340SOL    HW139853   8.551  14.409  10.816
79340SOL    HW239854   8.554  14.446  10.963
79341SOL     OW39855  10.632  14.750   6.944
79341SOL    HW139856  10.641  14.823   7.005
79341SOL    HW239857  10.616  14.674   7.000
79342SOL     OW39858   3.925   5.233   4.887
79342SOL    HW139859   3.899   5.201   4.801
79342SOL    HW239860   3.931   5.328   4.877
79343SOL     OW39861   5.822  12.528   9.991
79343SOL    HW139862   5.799  12.482   9.911
79343SOL    HW239863   5.910  12.497  10.012
79344SOL     OW39864   9.737  12.747   9.273
79344SOL    HW139865   9.709  12.766   9.184
79344SOL    HW239866   9.825  12.711   9.263
79345SOL     OW39867   4.764   0.199  12.276
79345SOL    HW139868   4.828   0.212  12.206
79345SOL    HW239869   4.766   0.105  12.294
79346SOL     OW39870   7.327   1.305   0.320
79346SOL    HW139871   7.367   1.218   0.318
79346SOL    HW239872   7.274   1.309   0.240
79347SOL     OW39873   0.309  13.710   4.947
79347SOL    HW139874   0.245  13.768   4.906
79347SOL    HW239875   0.390  13.761   4.948
79348SOL     OW39876   5.615  13.102   5.976
79348SOL    HW139877   5.632  13.174   6.037
79348SOL    HW239878   5.563  13.039   6.026
79349SOL     OW39879   4.646  10.940   2.255
79349SOL    HW139880   4.553  10.947   2.233
79349SOL    HW239881   4.684  10.888   2.184
79350SOL     OW39882  13.096  13.706   3.806
79350SOL    HW139883  13.151  13.722   3.882
79350SOL    HW239884  13.125  13.620   3.773
79351SOL     OW39885   4.878   2.386   9.759
79351SOL    HW139886   4.789   2.410   9.735
79351SOL    HW239887   4.870   2.299   9.799
79352SOL     OW39888  13.750  11.141   9.545
79352SOL    HW139889  13.672  11.088   9.557
79352SOL    HW239890  13.808  11.087   9.490
79353SOL     OW39891   7.238   0.307   4.402
79353SOL    HW139892   7.294   0.356   4.342
79353SOL    HW239893   7.155   0.296   4.354
79354SOL     OW39894  13.704   6.241   3.504
79354SOL    HW139895  13.652   6.286   3.571
79354SOL    HW239896  13.780   6.207   3.552
79355SOL     OW39897   6.433   5.893   8.142
79355SOL    HW139898   6.511   5.845   8.169
79355SOL    HW239899   6.455   5.930   8.056
79356SOL     OW39900   6.386  14.450   5.957
79356SOL    HW139901   6.297  14.485   5.958
79356SOL    HW239902   6.376  14.358   5.983
79357SOL     OW39903   0.466  12.837  10.598
79357SOL    HW139904   0.538  12.892  10.568
79357SOL    HW239905   0.438  12.877  10.680
79358SOL     OW39906   5.227  10.783  14.469
79358SOL    HW139907   5.318  10.763  14.447
79358SOL    HW239908   5.201  10.849  14.405
79359SOL     OW39909   7.793   0.800   9.774
79359SOL    HW139910   7.705   0.801   9.736
79359SOL    HW239911   7.811   0.708   9.789
79360SOL     OW39912  12.677  12.921  12.575
79360SOL    HW139913  12.631  12.842  12.545
79360SOL    HW239914  12.643  12.937  12.663
79361SOL     OW39915  10.400   2.208   2.118
79361SOL    HW139916  10.325   2.223   2.060
79361SOL    HW239917  10.476   2.240   2.068
79362SOL     OW39918   3.023  14.195   0.434
79362SOL    HW139919   2.999  14.178   0.525
79362SOL    HW239920   3.053  14.111   0.400
79363SOL     OW39921   5.729   3.850   7.188
79363SOL    HW139922   5.741   3.759   7.218
79363SOL    HW239923   5.689   3.894   7.262
79364SOL     OW39924   7.059  14.717   7.585
79364SOL    HW139925   7.064  14.782   7.655
79364SOL    HW239926   7.111  14.644   7.618
79365SOL     OW39927   2.371  14.706  12.308
79365SOL    HW139928   2.296  14.755  12.340
79365SOL    HW239929   2.346  14.615  12.317
79366SOL     OW39930  14.304  13.461  13.402
79366SOL    HW139931  14.237  13.529  13.398
79366SOL    HW239932  14.356  13.482  13.479
79367SOL     OW39933   9.264  11.260   8.028
79367SOL    HW139934   9.191  11.213   7.988
79367SOL    HW239935   9.276  11.337   7.973
79368SOL     OW39936   3.494   4.747   3.029
79368SOL    HW139937   3.589   4.752   3.028
79368SOL    HW239938   3.475   4.653   3.036
79369SOL     OW39939  10.789   8.829   7.502
79369SOL    HW139940  10.695   8.814   7.498
79369SOL    HW239941  10.803   8.907   7.448
79370SOL     OW39942   7.837   2.007  11.313
79370SOL    HW139943   7.924   2.040  11.291
79370SOL    HW239944   7.853   1.926  11.362
79371SOL     OW39945  12.855  12.310   7.759
79371SOL    HW139946  12.820  12.399   7.766
79371SOL    HW239947  12.886  12.290   7.847
79372SOL     OW39948   5.722   2.270   1.573
79372SOL    HW139949   5.664   2.261   1.498
79372SOL    HW239950   5.806   2.297   1.535
79373SOL     OW39951   0.629   8.260  14.666
79373SOL    HW139952   0.562   8.197  14.636
79373SOL    HW239953   0.637   8.244  14.760
79374SOL     OW39954   7.396  13.979  10.418
79374SOL    HW139955   7.432  14.067  10.405
79374SOL    HW239956   7.451  13.922  10.365
79375SOL     OW39957   7.933  14.005   7.537
79375SOL    HW139958   8.003  13.944   7.513
79375SOL    HW239959   7.882  13.958   7.603
79376SOL     OW39960  12.343  11.097   1.645
79376SOL    HW139961  12.413  11.160   1.663
79376SOL    HW239962  12.325  11.057   1.730
79377SOL     OW39963   2.564   7.022   1.949
79377SOL    HW139964   2.512   7.092   1.987
79377SOL    HW239965   2.648   7.026   1.994
79378SOL     OW39966   7.765   2.995   0.719
79378SOL    HW139967   7.764   3.020   0.811
79378SOL    HW239968   7.678   3.019   0.687
79379SOL     OW39969   4.482   4.847   0.009
79379SOL    HW139970   4.516   4.804  14.809
79379SOL    HW239971   4.540   4.921   0.023
79380SOL     OW39972  11.646   1.831   7.132
79380SOL    HW139973  11.657   1.736   7.139
79380SOL    HW239974  11.573   1.842   7.071
79381SOL     OW39975   6.027  14.582  12.990
79381SOL    HW139976   6.021  14.493  13.023
79381SOL    HW239977   6.095  14.623  13.044
79382SOL     OW39978   4.751   9.084   3.880
79382SOL    HW139979   4.681   9.031   3.920
79382SOL    HW239980   4.822   9.022   3.864
79383SOL     OW39981  12.873  10.170   8.787
79383SOL    HW139982  12.950  10.122   8.818
79383SOL    HW239983  12.798  10.117   8.816
79384SOL     OW39984  10.859  12.902   6.794
79384SOL    HW139985  10.808  12.959   6.851
79384SOL    HW239986  10.873  12.823   6.846
79385SOL     OW39987  12.645  14.444   0.950
79385SOL    HW139988  12.577  14.430   1.015
79385SOL    HW239989  12.727  14.437   0.999
79386SOL     OW39990   9.171  10.122  10.051
79386SOL    HW139991   9.181  10.032  10.022
79386SOL    HW239992   9.215  10.174   9.983
79387SOL     OW39993   2.914   0.316   2.093
79387SOL    HW139994   2.885   0.311   2.184
79387SOL    HW239995   2.868   0.244   2.049
79388SOL     OW39996  13.304   8.027   7.141
79388SOL    HW139997  13.221   8.035   7.093
79388SOL    HW239998  13.302   7.938   7.177
79389SOL     OW39999   8.025   7.541  13.231
79389SOL    HW140000   8.082   7.466  13.215
79389SOL    HW240001   8.001   7.573  13.144
79390SOL     OW40002  12.321   1.652   5.129
79390SOL    HW140003  12.293   1.729   5.079
79390SOL    HW240004  12.239   1.606   5.149
79391SOL     OW40005   2.660  10.060   2.801
79391SOL    HW140006   2.612   9.997   2.854
79391SOL    HW240007   2.649  10.143   2.847
79392SOL     OW40008   0.877   5.031   6.426
79392SOL    HW140009   0.786   5.052   6.448
79392SOL    HW240010   0.929   5.092   6.479
79393SOL     OW40011   1.127  11.537   0.375
79393SOL    HW140012   1.051  11.528   0.317
79393SOL    HW240013   1.201  11.552   0.316
79394SOL     OW40014   6.846  13.196  11.274
79394SOL    HW140015   6.792  13.190  11.353
79394SOL    HW240016   6.805  13.265  11.222
79395SOL     OW40017   6.703   3.576   9.165
79395SOL    HW140018   6.724   3.660   9.206
79395SOL    HW240019   6.610   3.564   9.182
79396SOL     OW40020  11.965   3.504  10.688
79396SOL    HW140021  12.011   3.575  10.733
79396SOL    HW240022  11.996   3.508  10.598
79397SOL     OW40023   2.767   9.863  11.157
79397SOL    HW140024   2.826   9.802  11.113
79397SOL    HW240025   2.773   9.840  11.250
79398SOL     OW40026  11.758   2.001  13.881
79398SOL    HW140027  11.695   2.066  13.915
79398SOL    HW240028  11.825   1.995  13.948
79399SOL     OW40029   4.357   3.876   9.243
79399SOL    HW140030   4.335   3.907   9.330
79399SOL    HW240031   4.452   3.864   9.244
79400SOL     OW40032   4.433  14.694   4.232
79400SOL    HW140033   4.443  14.713   4.139
79400SOL    HW240034   4.369  14.759   4.263
79401SOL     OW40035   0.197  12.204   4.877
79401SOL    HW140036   0.159  12.210   4.789
79401SOL    HW240037   0.177  12.288   4.918
79402SOL     OW40038  14.328  13.701   5.869
79402SOL    HW140039  14.370  13.731   5.949
79402SOL    HW240040  14.274  13.627   5.896
79403SOL     OW40041   4.999  10.685  10.848
79403SOL    HW140042   5.057  10.663  10.922
79403SOL    HW240043   4.922  10.723  10.889
79404SOL     OW40044   9.357   6.955  13.671
79404SOL    HW140045   9.338   6.951  13.765
79404SOL    HW240046   9.383   7.046  13.655
79405SOL     OW40047   9.173  13.189  14.251
79405SOL    HW140048   9.131  13.158  14.171
79405SOL    HW240049   9.138  13.132  14.320
79406SOL     OW40050   1.477   0.396   7.571
79406SOL    HW140051   1.527   0.435   7.643
79406SOL    HW240052   1.395   0.368   7.611
79407SOL     OW40053   2.213   2.430  10.612
79407SOL    HW140054   2.224   2.335  10.618
79407SOL    HW240055   2.194   2.446  10.520
79408SOL     OW40056  12.424   8.803   7.658
79408SOL    HW140057  12.506   8.851   7.666
79408SOL    HW240058  12.402   8.810   7.565
79409SOL     OW40059   1.348  10.432   7.254
79409SOL    HW140060   1.304  10.424   7.170
79409SOL    HW240061   1.298  10.376   7.313
79410SOL     OW40062   3.619   6.950   9.396
79410SOL    HW140063   3.555   6.960   9.467
79410SOL    HW240064   3.567   6.956   9.316
79411SOL     OW40065   6.895   0.187   3.060
79411SOL    HW140066   6.940   0.261   3.102
79411SOL    HW240067   6.955   0.113   3.071
79412SOL     OW40068   5.176   3.199  12.830
79412SOL    HW140069   5.269   3.180  12.817
79412SOL    HW240070   5.141   3.120  12.871
79413SOL     OW40071  13.990  11.151   1.285
79413SOL    HW140072  13.913  11.172   1.233
79413SOL    HW240073  13.992  11.055   1.288
79414SOL     OW40074   6.816   6.045  10.736
79414SOL    HW140075   6.793   6.138  10.725
79414SOL    HW240076   6.737   5.997  10.711
79415SOL     OW40077   2.158   3.513   9.036
79415SOL    HW140078   2.220   3.586   9.033
79415SOL    HW240079   2.204   3.440   8.993
79416SOL     OW40080   5.032  10.581  13.545
79416SOL    HW140081   4.993  10.590  13.457
79416SOL    HW240082   5.016  10.489  13.568
79417SOL     OW40083  12.500  14.369   0.593
79417SOL    HW140084  12.473  14.457   0.568
79417SOL    HW240085  12.565  14.344   0.526
79418SOL     OW40086  10.073   5.820  13.681
79418SOL    HW140087  10.104   5.827  13.591
79418SOL    HW240088  10.119   5.889  13.728
79419SOL     OW40089   9.581   1.846   0.677
79419SOL    HW140090   9.515   1.818   0.740
79419SOL    HW240091   9.574   1.784   0.605
79420SOL     OW40092   1.110   4.356  14.264
79420SOL    HW140093   1.088   4.441  14.225
79420SOL    HW240094   1.201   4.366  14.292
79421SOL     OW40095   3.261  11.931  14.253
79421SOL    HW140096   3.249  12.026  14.259
79421SOL    HW240097   3.183  11.894  14.294
79422SOL     OW40098  11.203  12.763  11.501
79422SOL    HW140099  11.170  12.696  11.441
79422SOL    HW240100  11.245  12.827  11.443
79423SOL     OW40101   0.807  12.906   0.812
79423SOL    HW140102   0.735  12.966   0.792
79423SOL    HW240103   0.871  12.959   0.858
79424SOL     OW40104  14.049   0.856   7.401
79424SOL    HW140105  14.007   0.897   7.325
79424SOL    HW240106  14.085   0.929   7.451
79425SOL     OW40107   3.609   8.412   1.862
79425SOL    HW140108   3.548   8.400   1.935
79425SOL    HW240109   3.674   8.343   1.872
79426SOL     OW40110  14.418   8.904  14.477
79426SOL    HW140111  14.404   8.986  14.524
79426SOL    HW240112  14.368   8.913  14.397
79427SOL     OW40113  11.676   8.107   8.972
79427SOL    HW140114  11.723   8.079   9.051
79427SOL    HW240115  11.672   8.202   8.980
79428SOL     OW40116  11.472  11.315   0.696
79428SOL    HW140117  11.523  11.267   0.762
79428SOL    HW240118  11.382  11.311   0.727
79429SOL     OW40119  10.742  13.006  13.168
79429SOL    HW140120  10.729  12.918  13.204
79429SOL    HW240121  10.788  13.053  13.237
79430SOL     OW40122   7.591   3.980  11.894
79430SOL    HW140123   7.669   4.036  11.885
79430SOL    HW240124   7.562   3.993  11.984
79431SOL     OW40125   0.134   8.584   2.464
79431SOL    HW140126   0.168   8.667   2.432
79431SOL    HW240127   0.163   8.520   2.400
79432SOL     OW40128   0.632   0.520   0.951
79432SOL    HW140129   0.596   0.436   0.978
79432SOL    HW240130   0.564   0.584   0.972
79433SOL     OW40131   4.290   4.928   3.913
79433SOL    HW140132   4.313   4.835   3.914
79433SOL    HW240133   4.369   4.972   3.945
79434SOL     OW40134  10.735   4.337   1.320
79434SOL    HW140135  10.718   4.299   1.233
79434SOL    HW240136  10.770   4.264   1.371
79435SOL     OW40137   0.598  12.581   6.592
79435SOL    HW140138   0.537  12.508   6.584
79435SOL    HW240139   0.664  12.564   6.525
79436SOL     OW40140   6.208   1.208   2.530
79436SOL    HW140141   6.296   1.216   2.494
79436SOL    HW240142   6.200   1.115   2.553
79437SOL     OW40143   0.149  13.290   0.074
79437SOL    HW140144   0.156  13.255  14.864
79437SOL    HW240145   0.146  13.385   0.062
79438SOL     OW40146   5.700   5.313   0.615
79438SOL    HW140147   5.617   5.325   0.660
79438SOL    HW240148   5.678   5.311   0.522
79439SOL     OW40149  10.080  14.642   6.822
79439SOL    HW140150  10.134  14.597   6.757
79439SOL    HW240151  10.129  14.721   6.844
79440SOL     OW40152   7.424  14.601   1.094
79440SOL    HW140153   7.337  14.581   1.059
79440SOL    HW240154   7.406  14.653   1.172
79441SOL     OW40155   9.881  13.846   4.732
79441SOL    HW140156   9.809  13.907   4.745
79441SOL    HW240157   9.944  13.867   4.800
79442SOL     OW40158   9.500   0.530   1.238
79442SOL    HW140159   9.559   0.603   1.253
79442SOL    HW240160   9.505   0.513   1.144
79443SOL     OW40161   5.085   7.714   8.554
79443SOL    HW140162   4.995   7.682   8.548
79443SOL    HW240163   5.083   7.780   8.624
79444SOL     OW40164   6.460   5.183   6.100
79444SOL    HW140165   6.401   5.116   6.135
79444SOL    HW240166   6.528   5.192   6.166
79445SOL     OW40167   8.754  14.460   1.328
79445SOL    HW140168   8.785  14.397   1.393
79445SOL    HW240169   8.659  14.451   1.328
79446SOL     OW40170  10.308   2.016   1.801
79446SOL    HW140171  10.316   1.922   1.820
79446SOL    HW240172  10.309   2.021   1.706
79447SOL     OW40173   1.223  13.483  12.264
79447SOL    HW140174   1.272  13.504  12.184
79447SOL    HW240175   1.243  13.555  12.324
79448SOL     OW40176   4.086   2.958   9.779
79448SOL    HW140177   4.073   2.871   9.817
79448SOL    HW240178   4.176   2.981   9.800
79449SOL     OW40179   7.489   9.003   7.696
79449SOL    HW140180   7.433   9.059   7.750
79449SOL    HW240181   7.457   8.914   7.712
79450SOL     OW40182   3.791   9.203   2.227
79450SOL    HW140183   3.821   9.293   2.238
79450SOL    HW240184   3.862   9.150   2.265
79451SOL     OW40185   8.405   7.021   0.293
79451SOL    HW140186   8.455   7.020   0.211
79451SOL    HW240187   8.469   6.997   0.360
79452SOL     OW40188   4.545  10.994   4.280
79452SOL    HW140189   4.528  11.072   4.332
79452SOL    HW240190   4.552  11.026   4.190
79453SOL     OW40191   0.572   8.545  13.938
79453SOL    HW140192   0.630   8.477  13.902
79453SOL    HW240193   0.586   8.621  13.881
79454SOL     OW40194  13.862   0.516  14.597
79454SOL    HW140195  13.785   0.479  14.554
79454SOL    HW240196  13.831   0.541  14.685
79455SOL     OW40197   4.400   0.722   6.516
79455SOL    HW140198   4.385   0.660   6.588
79455SOL    HW240199   4.312   0.753   6.493
79456SOL     OW40200   0.420  12.374   8.380
79456SOL    HW140201   0.398  12.342   8.293
79456SOL    HW240202   0.474  12.451   8.366
79457SOL     OW40203  11.843   6.960   9.961
79457SOL    HW140204  11.843   6.964   9.865
79457SOL    HW240205  11.805   6.874   9.981
79458SOL     OW40206  13.952   1.339   3.921
79458SOL    HW140207  13.895   1.392   3.976
79458SOL    HW240208  14.035   1.335   3.968
79459SOL     OW40209   9.381   1.291   4.545
79459SOL    HW140210   9.308   1.243   4.584
79459SOL    HW240211   9.412   1.234   4.474
79460SOL     OW40212  10.100   9.522   8.176
79460SOL    HW140213  10.101   9.515   8.081
79460SOL    HW240214  10.012   9.496   8.202
79461SOL     OW40215   4.632   6.663   8.296
79461SOL    HW140216   4.701   6.657   8.363
79461SOL    HW240217   4.567   6.599   8.322
79462SOL     OW40218   8.125   3.665   0.821
79462SOL    HW140219   8.058   3.631   0.761
79462SOL    HW240220   8.195   3.600   0.818
79463SOL     OW40221   2.757   0.676   7.116
79463SOL    HW140222   2.752   0.709   7.027
79463SOL    HW240223   2.807   0.742   7.164
79464SOL     OW40224   7.902   1.881   8.424
79464SOL    HW140225   7.891   1.852   8.333
79464SOL    HW240226   7.882   1.804   8.476
79465SOL     OW40227   8.807   4.110   9.200
79465SOL    HW140228   8.839   4.199   9.186
79465SOL    HW240229   8.876   4.068   9.252
79466SOL     OW40230   5.736   6.967   9.675
79466SOL    HW140231   5.753   7.055   9.640
79466SOL    HW240232   5.715   6.914   9.597
79467SOL     OW40233   6.474   7.019  10.985
79467SOL    HW140234   6.513   6.944  10.941
79467SOL    HW240235   6.518   7.095  10.947
79468SOL     OW40236   3.825   1.380  12.278
79468SOL    HW140237   3.774   1.307  12.243
79468SOL    HW240238   3.856   1.427  12.200
79469SOL     OW40239  10.662   3.642   9.120
79469SOL    HW140240  10.635   3.708   9.184
79469SOL    HW240241  10.682   3.565   9.173
79470SOL     OW40242  14.764   2.784   5.815
79470SOL    HW140243  14.790   2.862   5.863
79470SOL    HW240244  14.817   2.785   5.736
79471SOL     OW40245   3.460   9.886   7.549
79471SOL    HW140246   3.459   9.824   7.622
79471SOL    HW240247   3.389   9.947   7.568
79472SOL     OW40248   7.898   3.586   2.827
79472SOL    HW140249   7.968   3.528   2.798
79472SOL    HW240250   7.870   3.632   2.748
79473SOL     OW40251   5.098  11.838  11.268
79473SOL    HW140252   5.132  11.872  11.185
79473SOL    HW240253   5.129  11.900  11.334
79474SOL     OW40254   9.933   5.040  14.590
79474SOL    HW140255   9.869   5.001  14.650
79474SOL    HW240256   9.911   5.003  14.505
79475SOL     OW40257   3.048   9.200  10.350
79475SOL    HW140258   3.142   9.204  10.369
79475SOL    HW240259   3.043   9.158  10.264
79476SOL     OW40260   7.613  14.589   6.465
79476SOL    HW140261   7.629  14.683   6.471
79476SOL    HW240262   7.652  14.553   6.544
79477SOL     OW40263  11.461   4.772   0.436
79477SOL    HW140264  11.450   4.679   0.418
79477SOL    HW240265  11.398   4.791   0.505
79478SOL     OW40266   9.040   2.363   0.188
79478SOL    HW140267   9.133   2.365   0.165
79478SOL    HW240268   9.000   2.311   0.119
79479SOL     OW40269   2.245  11.314  12.558
79479SOL    HW140270   2.324  11.351  12.596
79479SOL    HW240271   2.241  11.225  12.595
79480SOL     OW40272  12.976   1.012   4.446
79480SOL    HW140273  12.958   0.924   4.478
79480SOL    HW240274  12.974   1.067   4.525
79481SOL     OW40275   8.319   5.618  13.043
79481SOL    HW140276   8.367   5.554  13.094
79481SOL    HW240277   8.386   5.673  13.003
79482SOL     OW40278   8.265  11.108   1.083
79482SOL    HW140279   8.217  11.191   1.085
79482SOL    HW240280   8.333  11.121   1.017
79483SOL     OW40281   2.551   9.643  11.287
79483SOL    HW140282   2.566   9.736  11.271
79483SOL    HW240283   2.545   9.603  11.200
79484SOL     OW40284   2.749   2.994   1.947
79484SOL    HW140285   2.721   3.083   1.926
79484SOL    HW240286   2.843   3.003   1.965
79485SOL     OW40287  12.398   6.441  10.937
79485SOL    HW140288  12.442   6.359  10.962
79485SOL    HW240289  12.309   6.415  10.915
79486SOL     OW40290   2.605   6.217   5.016
79486SOL    HW140291   2.653   6.287   5.061
79486SOL    HW240292   2.635   6.221   4.926
79487SOL     OW40293   9.820   1.318   7.787
79487SOL    HW140294   9.849   1.337   7.877
79487SOL    HW240295   9.869   1.380   7.733
79488SOL     OW40296   2.318   7.274  14.736
79488SOL    HW140297   2.281   7.196  14.694
79488SOL    HW240298   2.334   7.247  14.826
79489SOL     OW40299   5.697   6.073   0.417
79489SOL    HW140300   5.613   6.029   0.432
79489SOL    HW240301   5.754   6.005   0.381
79490SOL     OW40302   5.775  12.781  13.677
79490SOL    HW140303   5.733  12.806  13.758
79490SOL    HW240304   5.734  12.836  13.610
79491SOL     OW40305   1.550   7.267  12.685
79491SOL    HW140306   1.611   7.232  12.750
79491SOL    HW240307   1.471   7.213  12.694
79492SOL     OW40308   7.171   6.786   4.523
79492SOL    HW140309   7.114   6.721   4.563
79492SOL    HW240310   7.131   6.870   4.546
79493SOL     OW40311  13.224  12.457   2.573
79493SOL    HW140312  13.281  12.517   2.524
79493SOL    HW240313  13.147  12.446   2.517
79494SOL     OW40314  11.081  13.602   8.867
79494SOL    HW140315  11.118  13.690   8.878
79494SOL    HW240316  11.110  13.575   8.780
79495SOL     OW40317   2.308  12.626   0.264
79495SOL    HW140318   2.395  12.650   0.297
79495SOL    HW240319   2.314  12.533   0.245
79496SOL     OW40320   6.949  11.174  10.583
79496SOL    HW140321   6.856  11.159  10.567
79496SOL    HW240322   6.962  11.151  10.675
79497SOL     OW40323   2.739  10.415   5.392
79497SOL    HW140324   2.787  10.497   5.385
79497SOL    HW240325   2.687  10.410   5.312
79498SOL     OW40326  13.691   5.586  14.559
79498SOL    HW140327  13.753   5.641  14.607
79498SOL    HW240328  13.744   5.546  14.490
79499SOL     OW40329   6.154   9.169   6.422
79499SOL    HW140330   6.138   9.075   6.420
79499SOL    HW240331   6.216   9.184   6.350
79500SOL     OW40332  13.633   5.213  10.822
79500SOL    HW140333  13.636   5.128  10.865
79500SOL    HW240334  13.698   5.266  10.868
79501SOL     OW40335   6.989  10.340   4.718
79501SOL    HW140336   6.917  10.339   4.782
79501SOL    HW240337   7.014  10.248   4.709
79502SOL     OW40338  11.257   0.224   0.698
79502SOL    HW140339  11.256   0.308   0.651
79502SOL    HW240340  11.350   0.209   0.717
79503SOL     OW40341   1.809  13.655   4.917
79503SOL    HW140342   1.861  13.680   4.994
79503SOL    HW240343   1.741  13.597   4.953
79504SOL     OW40344  14.170  13.273  13.103
79504SOL    HW140345  14.211  13.356  13.080
79504SOL    HW240346  14.232  13.231  13.163
79505SOL     OW40347   5.808  12.309   8.031
79505SOL    HW140348   5.893  12.299   7.990
79505SOL    HW240349   5.809  12.397   8.068
79506SOL     OW40350   2.632   6.115  10.364
79506SOL    HW140351   2.646   6.207  10.344
79506SOL    HW240352   2.712   6.071  10.335
79507SOL     OW40353   3.927   8.416   6.766
79507SOL    HW140354   4.022   8.407   6.773
79507SOL    HW240355   3.909   8.507   6.791
79508SOL     OW40356   3.746   1.683   6.616
79508SOL    HW140357   3.773   1.712   6.703
79508SOL    HW240358   3.821   1.634   6.582
79509SOL     OW40359   1.439   1.378   3.738
79509SOL    HW140360   1.471   1.289   3.750
79509SOL    HW240361   1.409   1.405   3.825
79510SOL     OW40362   5.708  13.578   9.055
79510SOL    HW140363   5.784  13.631   9.080
79510SOL    HW240364   5.649  13.584   9.130
79511SOL     OW40365  11.113   8.544   3.791
79511SOL    HW140366  11.068   8.469   3.831
79511SOL    HW240367  11.047   8.584   3.734
79512SOL     OW40368   4.137  12.875  10.750
79512SOL    HW140369   4.071  12.820  10.708
79512SOL    HW240370   4.100  12.964  10.747
79513SOL     OW40371  14.511   7.417   9.926
79513SOL    HW140372  14.577   7.452   9.866
79513SOL    HW240373  14.510   7.323   9.908
79514SOL     OW40374   8.334   7.590  11.497
79514SOL    HW140375   8.413   7.542  11.519
79514SOL    HW240376   8.263   7.526  11.505
79515SOL     OW40377   9.606   2.742   5.093
79515SOL    HW140378   9.538   2.677   5.106
79515SOL    HW240379   9.635   2.730   5.003
79516SOL     OW40380   0.261   4.847   9.350
79516SOL    HW140381   0.238   4.940   9.339
79516SOL    HW240382   0.287   4.818   9.262
79517SOL     OW40383  11.180   4.473  12.740
79517SOL    HW140384  11.190   4.547  12.680
79517SOL    HW240385  11.262   4.425  12.734
79518SOL     OW40386   2.564   9.392   0.851
79518SOL    HW140387   2.610   9.365   0.771
79518SOL    HW240388   2.475   9.360   0.839
79519SOL     OW40389   4.794   4.537  12.173
79519SOL    HW140390   4.711   4.507  12.210
79519SOL    HW240391   4.800   4.629  12.196
79520SOL     OW40392  14.041   0.801  10.751
79520SOL    HW140393  14.033   0.807  10.846
79520SOL    HW240394  14.122   0.752  10.737
79521SOL     OW40395   7.212   3.865   4.678
79521SOL    HW140396   7.283   3.804   4.662
79521SOL    HW240397   7.214   3.925   4.604
79522SOL     OW40398   1.550  14.708   8.174
79522SOL    HW140399   1.521  14.798   8.188
79522SOL    HW240400   1.644  14.710   8.191
79523SOL     OW40401   3.645   6.065  13.286
79523SOL    HW140402   3.653   5.990  13.228
79523SOL    HW240403   3.696   6.134  13.245
79524SOL     OW40404   9.607   9.480   0.114
79524SOL    HW140405   9.639   9.398   0.150
79524SOL    HW240406   9.676   9.507   0.052
79525SOL     OW40407  11.171  11.809   6.446
79525SOL    HW140408  11.089  11.822   6.399
79525SOL    HW240409  11.239  11.840   6.386
79526SOL     OW40410   1.701   8.433   0.681
79526SOL    HW140411   1.720   8.449   0.589
79526SOL    HW240412   1.736   8.346   0.698
79527SOL     OW40413   5.942   2.264   8.704
79527SOL    HW140414   5.972   2.277   8.614
79527SOL    HW240415   6.009   2.208   8.744
79528SOL     OW40416   3.880   1.552   0.432
79528SOL    HW140417   3.876   1.616   0.503
79528SOL    HW240418   3.954   1.580   0.378
79529SOL     OW40419  10.908   3.144   9.989
79529SOL    HW140420  10.953   3.144   9.905
79529SOL    HW240421  10.858   3.062   9.989
79530SOL     OW40422   3.947   9.235   0.132
79530SOL    HW140423   3.865   9.238   0.082
79530SOL    HW240424   3.925   9.277   0.215
79531SOL     OW40425   8.597   8.782   9.302
79531SOL    HW140426   8.512   8.784   9.345
79531SOL    HW240427   8.592   8.850   9.235
79532SOL     OW40428  11.302   4.691   4.958
79532SOL    HW140429  11.233   4.733   5.011
79532SOL    HW240430  11.280   4.716   4.868
79533SOL     OW40431   6.050  10.560  11.625
79533SOL    HW140432   6.032  10.564  11.531
79533SOL    HW240433   6.134  10.605  11.635
79534SOL     OW40434  13.243   9.881  14.561
79534SOL    HW140435  13.288   9.840  14.636
79534SOL    HW240436  13.285   9.842  14.484
79535SOL     OW40437   8.951   9.618   8.984
79535SOL    HW140438   8.875   9.568   9.015
79535SOL    HW240439   8.928   9.644   8.895
79536SOL     OW40440   4.275  10.980   0.311
79536SOL    HW140441   4.278  11.048   0.378
79536SOL    HW240442   4.204  10.922   0.339
79537SOL     OW40443   3.881  11.330   9.340
79537SOL    HW140444   3.835  11.312   9.258
79537SOL    HW240445   3.841  11.410   9.374
79538SOL     OW40446  12.729   5.952   7.175
79538SOL    HW140447  12.742   5.914   7.262
79538SOL    HW240448  12.765   5.887   7.115
79539SOL     OW40449  13.321   2.081   3.241
79539SOL    HW140450  13.309   2.115   3.329
79539SOL    HW240451  13.416   2.075   3.230
79540SOL     OW40452  11.442   4.210  12.035
79540SOL    HW140453  11.452   4.134  12.093
79540SOL    HW240454  11.348   4.211  12.014
79541SOL     OW40455   1.149  11.114  11.543
79541SOL    HW140456   1.110  11.176  11.605
79541SOL    HW240457   1.236  11.149  11.526
79542SOL     OW40458   4.260   1.920  11.606
79542SOL    HW140459   4.259   1.903  11.512
79542SOL    HW240460   4.348   1.896  11.634
79543SOL     OW40461  10.600  14.001   4.049
79543SOL    HW140462  10.674  14.011   3.988
79543SOL    HW240463  10.637  14.022   4.135
79544SOL     OW40464   9.352  13.632   2.230
79544SOL    HW140465   9.272  13.680   2.252
79544SOL    HW240466   9.342  13.547   2.272
79545SOL     OW40467   6.941   8.778  11.233
79545SOL    HW140468   7.028   8.746  11.258
79545SOL    HW240469   6.891   8.778  11.315
79546SOL     OW40470   8.038   4.150   9.500
79546SOL    HW140471   8.104   4.202   9.454
79546SOL    HW240472   7.980   4.118   9.430
79547SOL     OW40473  11.195   1.485   0.388
79547SOL    HW140474  11.236   1.399   0.374
79547SOL    HW240475  11.103   1.473   0.365
79548SOL     OW40476  13.834   1.540   3.742
79548SOL    HW140477  13.920   1.532   3.783
79548SOL    HW240478  13.771   1.525   3.812
79549SOL     OW40479  10.148   0.139   4.051
79549SOL    HW140480  10.188   0.165   3.968
79549SOL    HW240481  10.208   0.172   4.118
79550SOL     OW40482  10.728  14.865  10.615
79550SOL    HW140483  10.681   0.005  10.696
79550SOL    HW240484  10.660  14.858  10.548
79551SOL     OW40485   4.781   5.178  10.052
79551SOL    HW140486   4.743   5.163   9.965
79551SOL    HW240487   4.813   5.092  10.079
79552SOL     OW40488  13.431   6.720   6.403
79552SOL    HW140489  13.391   6.646   6.357
79552SOL    HW240490  13.398   6.797   6.357
79553SOL     OW40491   5.399   8.828   6.116
79553SOL    HW140492   5.325   8.791   6.067
79553SOL    HW240493   5.472   8.825   6.054
79554SOL     OW40494   7.244   2.279   2.161
79554SOL    HW140495   7.246   2.187   2.133
79554SOL    HW240496   7.285   2.278   2.247
79555SOL     OW40497   9.781  13.379   0.392
79555SOL    HW140498   9.844  13.318   0.353
79555SOL    HW240499   9.717  13.322   0.435
79556SOL     OW40500   5.253   2.434  11.946
79556SOL    HW140501   5.200   2.497  11.995
79556SOL    HW240502   5.284   2.372  12.011
79557SOL     OW40503   3.438   7.170   1.081
79557SOL    HW140504   3.433   7.103   1.149
79557SOL    HW240505   3.390   7.245   1.118
79558SOL     OW40506   6.678   1.489   3.723
79558SOL    HW140507   6.600   1.505   3.670
79558SOL    HW240508   6.658   1.528   3.808
79559SOL     OW40509  11.829   1.603  12.597
79559SOL    HW140510  11.846   1.690  12.560
79559SOL    HW240511  11.735   1.591  12.589
79560SOL     OW40512   8.226   3.269   4.434
79560SOL    HW140513   8.300   3.210   4.417
79560SOL    HW240514   8.236   3.294   4.526
79561SOL     OW40515   6.784   6.957  11.005
79561SOL    HW140516   6.848   6.955  11.076
79561SOL    HW240517   6.793   6.873  10.961
79562SOL     OW40518   5.781  11.301   3.977
79562SOL    HW140519   5.769  11.219   4.025
79562SOL    HW240520   5.836  11.277   3.902
79563SOL     OW40521   3.646   4.223   4.685
79563SOL    HW140522   3.560   4.201   4.720
79563SOL    HW240523   3.704   4.221   4.760
79564SOL     OW40524   8.017  14.739  11.895
79564SOL    HW140525   7.937  14.787  11.918
79564SOL    HW240526   8.088  14.802  11.911
79565SOL     OW40527  14.533   1.420  11.720
79565SOL    HW140528  14.504   1.392  11.807
79565SOL    HW240529  14.520   1.343  11.665
79566SOL     OW40530   1.531  13.129   4.464
79566SOL    HW140531   1.566  13.127   4.375
79566SOL    HW240532   1.520  13.036   4.487
79567SOL     OW40533  13.663   9.485  10.405
79567SOL    HW140534  13.572   9.493  10.434
79567SOL    HW240535  13.691   9.399  10.436
79568SOL     OW40536   7.565   5.184   0.280
79568SOL    HW140537   7.541   5.213   0.369
79568SOL    HW240538   7.660   5.177   0.283
79569SOL     OW40539   2.156   0.301  13.123
79569SOL    HW140540   2.249   0.299  13.148
79569SOL    HW240541   2.119   0.373  13.173
79570SOL     OW40542   5.892  10.027  13.949
79570SOL    HW140543   5.871  10.065  14.035
79570SOL    HW240544   5.832  10.070  13.888
79571SOL     OW40545  10.802   3.156   1.516
79571SOL    HW140546  10.797   3.250   1.499
79571SOL    HW240547  10.829   3.150   1.608
79572SOL     OW40548   1.625   5.830   9.840
79572SOL    HW140549   1.587   5.748   9.872
79572SOL    HW240550   1.645   5.813   9.748
79573SOL     OW40551  10.187  12.858   6.975
79573SOL    HW140552  10.094  12.841   6.961
79573SOL    HW240553  10.214  12.790   7.038
79574SOL     OW40554   3.160   0.818  12.661
79574SOL    HW140555   3.155   0.912  12.643
79574SOL    HW240556   3.253   0.799  12.665
79575SOL     OW40557  13.415   0.099   4.871
79575SOL    HW140558  13.377   0.027   4.922
79575SOL    HW240559  13.469   0.147   4.934
79576SOL     OW40560   9.050   2.803   0.412
79576SOL    HW140561   9.017   2.873   0.469
79576SOL    HW240562   9.074   2.848   0.331
79577SOL     OW40563  13.353  12.541  10.794
79577SOL    HW140564  13.267  12.580  10.805
79577SOL    HW240565  13.339  12.471  10.730
79578SOL     OW40566  13.145   0.203   6.459
79578SOL    HW140567  13.144   0.224   6.366
79578SOL    HW240568  13.158   0.108   6.462
79579SOL     OW40569   1.922   1.243  11.180
79579SOL    HW140570   1.996   1.283  11.227
79579SOL    HW240571   1.903   1.305  11.109
79580SOL     OW40572  12.261   1.665  10.021
79580SOL    HW140573  12.319   1.607   9.971
79580SOL    HW240574  12.314   1.742  10.039
79581SOL     OW40575   9.443   7.612  13.413
79581SOL    HW140576   9.412   7.667  13.341
79581SOL    HW240577   9.506   7.668  13.459
79582SOL     OW40578  13.360   9.062   3.002
79582SOL    HW140579  13.379   9.123   2.931
79582SOL    HW240580  13.274   9.089   3.034
79583SOL     OW40581   8.715   6.370   2.046
79583SOL    HW140582   8.710   6.465   2.059
79583SOL    HW240583   8.659   6.334   2.115
79584SOL     OW40584   6.306  13.278   4.877
79584SOL    HW140585   6.333  13.245   4.792
79584SOL    HW240586   6.387  13.309   4.918
79585SOL     OW40587   9.812   5.282   6.983
79585SOL    HW140588   9.829   5.369   7.019
79585SOL    HW240589   9.876   5.226   7.026
79586SOL     OW40590   2.451   2.573  11.331
79586SOL    HW140591   2.431   2.651  11.279
79586SOL    HW240592   2.518   2.528  11.280
79587SOL     OW40593  11.400  12.036   0.348
79587SOL    HW140594  11.382  12.130   0.360
79587SOL    HW240595  11.420  12.004   0.436
79588SOL     OW40596   9.427   5.015   1.818
79588SOL    HW140597   9.419   4.945   1.754
79588SOL    HW240598   9.441   5.094   1.766
79589SOL     OW40599  12.899   4.602   9.530
79589SOL    HW140600  12.948   4.634   9.606
79589SOL    HW240601  12.915   4.508   9.529
79590SOL     OW40602   4.072  14.619   0.428
79590SOL    HW140603   4.136  14.684   0.457
79590SOL    HW240604   4.016  14.604   0.504
79591SOL     OW40605   2.763   5.475  14.262
79591SOL    HW140606   2.768   5.526  14.181
79591SOL    HW240607   2.720   5.393  14.235
79592SOL     OW40608   0.332   2.329   5.236
79592SOL    HW140609   0.268   2.395   5.266
79592SOL    HW240610   0.317   2.254   5.294
79593SOL     OW40611   1.728   1.741  13.693
79593SOL    HW140612   1.801   1.803  13.695
79593SOL    HW240613   1.769   1.656  13.706
79594SOL     OW40614   2.932  13.996   9.899
79594SOL    HW140615   2.988  13.952   9.836
79594SOL    HW240616   2.978  13.986   9.983
79595SOL     OW40617   0.812  11.338   5.937
79595SOL    HW140618   0.749  11.280   5.894
79595SOL    HW240619   0.898  11.302   5.912
79596SOL     OW40620   0.159   7.220   1.274
79596SOL    HW140621   0.199   7.133   1.283
79596SOL    HW240622   0.120   7.219   1.187
79597SOL     OW40623   0.852  11.429   0.828
79597SOL    HW140624   0.896  11.482   0.894
79597SOL    HW240625   0.804  11.492   0.775
79598SOL     OW40626   6.915   7.846   0.294
79598SOL    HW140627   6.831   7.806   0.315
79598SOL    HW240628   6.974   7.816   0.363
79599SOL     OW40629   0.749   0.026   6.974
79599SOL    HW140630   0.841   0.047   6.986
79599SOL    HW240631   0.703   0.081   7.038
79600SOL     OW40632   4.031  10.195   2.594
79600SOL    HW140633   3.994  10.235   2.515
79600SOL    HW240634   3.966  10.130   2.621
79601SOL     OW40635   8.499   6.122  11.429
79601SOL    HW140636   8.503   6.217  11.421
79601SOL    HW240637   8.535   6.090  11.346
79602SOL     OW40638  14.083   2.115  10.553
79602SOL    HW140639  14.077   2.092  10.645
79602SOL    HW240640  14.159   2.067  10.521
79603SOL     OW40641  11.637   7.525   0.381
79603SOL    HW140642  11.644   7.429   0.377
79603SOL    HW240643  11.652   7.546   0.473
79604SOL     OW40644  14.364  11.647   1.760
79604SOL    HW140645  14.391  11.690   1.841
79604SOL    HW240646  14.288  11.594   1.784
79605SOL     OW40647   0.166  11.151  14.591
79605SOL    HW140648   0.196  11.236  14.622
79605SOL    HW240649   0.199  11.089  14.657
79606SOL     OW40650  11.595   3.147   6.105
79606SOL    HW140651  11.658   3.201   6.152
79606SOL    HW240652  11.626   3.058   6.117
79607SOL     OW40653   1.421   5.386  10.592
79607SOL    HW140654   1.485   5.398  10.522
79607SOL    HW240655   1.472   5.390  10.673
79608SOL     OW40656   8.017   5.918  10.905
79608SOL    HW140657   8.017   6.007  10.942
79608SOL    HW240658   7.924   5.896  10.897
79609SOL     OW40659   2.246   3.521   3.968
79609SOL    HW140660   2.334   3.509   4.003
79609SOL    HW240661   2.204   3.582   4.029
79610SOL     OW40662   8.201   9.687  10.240
79610SOL    HW140663   8.151   9.720  10.314
79610SOL    HW240664   8.181   9.747  10.168
79611SOL     OW40665   7.428   9.600   2.506
79611SOL    HW140666   7.368   9.649   2.451
79611SOL    HW240667   7.514   9.635   2.486
79612SOL     OW40668  13.778   0.703   8.894
79612SOL    HW140669  13.716   0.631   8.898
79612SOL    HW240670  13.808   0.714   8.985
79613SOL     OW40671   4.985   5.381   8.616
79613SOL    HW140672   4.930   5.336   8.551
79613SOL    HW240673   4.932   5.455   8.646
79614SOL     OW40674   5.390  10.241   6.954
79614SOL    HW140675   5.407  10.335   6.960
79614SOL    HW240676   5.307  10.229   7.000
79615SOL     OW40677   3.125  12.318   0.581
79615SOL    HW140678   3.212  12.339   0.547
79615SOL    HW240679   3.141  12.280   0.667
79616SOL     OW40680  14.674   5.963  14.386
79616SOL    HW140681  14.614   6.034  14.364
79616SOL    HW240682  14.737   6.002  14.447
79617SOL     OW40683   4.451   6.294  10.267
79617SOL    HW140684   4.522   6.293  10.202
79617SOL    HW240685   4.493   6.272  10.350
79618SOL     OW40686   4.336   2.163  11.706
79618SOL    HW140687   4.365   2.201  11.623
79618SOL    HW240688   4.296   2.079  11.681
79619SOL     OW40689   6.730   1.257  10.067
79619SOL    HW140690   6.655   1.256  10.008
79619SOL    HW240691   6.730   1.344  10.107
79620SOL     OW40692   8.047   5.284   0.937
79620SOL    HW140693   8.084   5.203   0.901
79620SOL    HW240694   8.111   5.312   1.003
79621SOL     OW40695   5.371   7.072   5.693
79621SOL    HW140696   5.277   7.085   5.690
79621SOL    HW240697   5.387   7.029   5.777
79622SOL     OW40698  13.109  13.835  12.450
79622SOL    HW140699  13.114  13.739  12.453
79622SOL    HW240700  13.152  13.859  12.369
79623SOL     OW40701   8.281  14.238   2.724
79623SOL    HW140702   8.365  14.235   2.769
79623SOL    HW240703   8.294  14.187   2.644
79624SOL     OW40704   2.077   8.000   6.898
79624SOL    HW140705   2.154   8.044   6.860
79624SOL    HW240706   2.101   7.987   6.990
79625SOL     OW40707  13.902   5.407  10.576
79625SOL    HW140708  13.972   5.385  10.637
79625SOL    HW240709  13.889   5.501  10.586
79626SOL     OW40710  11.507  13.386  10.801
79626SOL    HW140711  11.465  13.362  10.883
79626SOL    HW240712  11.542  13.474  10.816
79627SOL     OW40713   9.502   3.595   2.064
79627SOL    HW140714   9.479   3.503   2.053
79627SOL    HW240715   9.557   3.615   1.988
79628SOL     OW40716  13.306   2.685  10.930
79628SOL    HW140717  13.252   2.610  10.957
79628SOL    HW240718  13.396   2.651  10.932
79629SOL     OW40719   4.788   5.707   6.907
79629SOL    HW140720   4.755   5.793   6.933
79629SOL    HW240721   4.873   5.725   6.866
79630SOL     OW40722   8.137   8.569   8.199
79630SOL    HW140723   8.163   8.532   8.283
79630SOL    HW240724   8.090   8.498   8.155
79631SOL     OW40725   6.187   1.640   0.546
79631SOL    HW140726   6.252   1.595   0.493
79631SOL    HW240727   6.112   1.652   0.487
79632SOL     OW40728   9.118   7.652  12.283
79632SOL    HW140729   9.163   7.720  12.233
79632SOL    HW240730   9.095   7.694  12.365
79633SOL     OW40731   1.615  10.454  14.077
79633SOL    HW140732   1.569  10.406  14.146
79633SOL    HW240733   1.575  10.425  13.996
79634SOL     OW40734  10.998  11.119   7.973
79634SOL    HW140735  11.004  11.028   8.001
79634SOL    HW240736  10.904  11.134   7.963
79635SOL     OW40737  14.843   4.498   8.182
79635SOL    HW140738  14.853   4.404   8.190
79635SOL    HW240739  14.830   4.529   8.271
79636SOL     OW40740   4.715   8.989   7.917
79636SOL    HW140741   4.647   8.988   7.850
79636SOL    HW240742   4.696   8.913   7.972
79637SOL     OW40743   1.352   9.423  13.890
79637SOL    HW140744   1.294   9.347  13.891
79637SOL    HW240745   1.438   9.387  13.867
79638SOL     OW40746  12.386   7.707   6.526
79638SOL    HW140747  12.451   7.732   6.461
79638SOL    HW240748  12.370   7.787   6.576
79639SOL     OW40749   4.865   2.496   8.005
79639SOL    HW140750   4.808   2.478   7.930
79639SOL    HW240751   4.901   2.411   8.029
79640SOL     OW40752   9.531   9.481  11.522
79640SOL    HW140753   9.519   9.573  11.499
79640SOL    HW240754   9.548   9.438  11.438
79641SOL     OW40755   7.298  11.167   5.041
79641SOL    HW140756   7.256  11.127   5.117
79641SOL    HW240757   7.252  11.130   4.966
79642SOL     OW40758   6.716   2.775   3.377
79642SOL    HW140759   6.662   2.731   3.443
79642SOL    HW240760   6.777   2.828   3.428
79643SOL     OW40761   7.244   5.251   1.572
79643SOL    HW140762   7.213   5.233   1.661
79643SOL    HW240763   7.228   5.345   1.561
79644SOL     OW40764   5.211   2.888  13.536
79644SOL    HW140765   5.239   2.915  13.624
79644SOL    HW240766   5.264   2.941  13.477
79645SOL     OW40767   2.165   2.458   6.320
79645SOL    HW140768   2.083   2.466   6.271
79645SOL    HW240769   2.185   2.364   6.317
79646SOL     OW40770  11.430   6.322  13.609
79646SOL    HW140771  11.524   6.317  13.625
79646SOL    HW240772  11.391   6.302  13.694
79647SOL     OW40773  12.698   1.829   9.140
79647SOL    HW140774  12.637   1.773   9.186
79647SOL    HW240775  12.643   1.890   9.091
79648SOL     OW40776   8.897  14.626  12.719
79648SOL    HW140777   8.962  14.599  12.653
79648SOL    HW240778   8.817  14.582  12.692
79649SOL     OW40779  11.257  10.882   7.760
79649SOL    HW140780  11.243  10.972   7.731
79649SOL    HW240781  11.264  10.888   7.855
79650SOL     OW40782   3.792   8.640  14.291
79650SOL    HW140783   3.820   8.573  14.353
79650SOL    HW240784   3.741   8.592  14.225
79651SOL     OW40785   8.088   4.476  10.582
79651SOL    HW140786   8.036   4.553  10.557
79651SOL    HW240787   8.135   4.504  10.661
79652SOL     OW40788   3.711  14.252   4.542
79652SOL    HW140789   3.799  14.239   4.577
79652SOL    HW240790   3.716  14.336   4.496
79653SOL     OW40791   6.935   3.271  12.784
79653SOL    HW140792   6.882   3.197  12.814
79653SOL    HW240793   7.023   3.252  12.819
79654SOL     OW40794   9.806   5.537   1.592
79654SOL    HW140795   9.861   5.544   1.514
79654SOL    HW240796   9.721   5.571   1.564
79655SOL     OW40797  12.127   1.222   3.837
79655SOL    HW140798  12.097   1.209   3.747
79655SOL    HW240799  12.055   1.193   3.891
79656SOL     OW40800   6.829   1.973  12.363
79656SOL    HW140801   6.817   1.974  12.458
79656SOL    HW240802   6.903   2.030  12.346
79657SOL     OW40803   2.741   8.788   4.398
79657SOL    HW140804   2.834   8.809   4.388
79657SOL    HW240805   2.713   8.837   4.475
79658SOL     OW40806   4.223   9.692   6.743
79658SOL    HW140807   4.132   9.689   6.712
79658SOL    HW240808   4.275   9.675   6.665
79659SOL     OW40809   6.178   7.781   7.680
79659SOL    HW140810   6.145   7.860   7.635
79659SOL    HW240811   6.147   7.708   7.626
79660SOL     OW40812  13.841   3.751   2.078
79660SOL    HW140813  13.784   3.813   2.124
79660SOL    HW240814  13.795   3.734   1.996
79661SOL     OW40815   5.453  11.899  10.873
79661SOL    HW140816   5.468  11.813  10.910
79661SOL    HW240817   5.408  11.883  10.789
79662SOL     OW40818   7.597   5.745   6.589
79662SOL    HW140819   7.554   5.693   6.521
79662SOL    HW240820   7.670   5.788   6.544
79663SOL     OW40821  12.296   2.494  10.114
79663SOL    HW140822  12.292   2.509  10.209
79663SOL    HW240823  12.352   2.564  10.081
79664SOL     OW40824   7.148   0.012  14.866
79664SOL    HW140825   7.129  14.812   0.038
79664SOL    HW240826   7.114  14.871  14.778
79665SOL     OW40827   0.295   7.378  11.382
79665SOL    HW140828   0.276   7.294  11.340
79665SOL    HW240829   0.247   7.443  11.330
79666SOL     OW40830   0.518  13.289   3.062
79666SOL    HW140831   0.564  13.350   3.120
79666SOL    HW240832   0.425  13.302   3.082
79667SOL     OW40833  13.872   5.931   2.402
79667SOL    HW140834  13.909   5.851   2.439
79667SOL    HW240835  13.836   5.904   2.318
79668SOL     OW40836   2.001  10.361   2.915
79668SOL    HW140837   2.019  10.454   2.923
79668SOL    HW240838   1.947  10.339   2.991
79669SOL     OW40839   5.799   8.151   4.896
79669SOL    HW140840   5.792   8.220   4.830
79669SOL    HW240841   5.853   8.190   4.966
79670SOL     OW40842   8.606   1.192   7.294
79670SOL    HW140843   8.701   1.182   7.299
79670SOL    HW240844   8.576   1.185   7.385
79671SOL     OW40845   9.742   8.325   1.442
79671SOL    HW140846   9.778   8.400   1.488
79671SOL    HW240847   9.801   8.311   1.368
79672SOL     OW40848   0.020   4.244   5.858
79672SOL    HW140849   0.026   4.200   5.774
79672SOL    HW240850  14.847   4.322   5.841
79673SOL     OW40851   8.474  10.579  14.334
79673SOL    HW140852   8.443  10.509  14.391
79673SOL    HW240853   8.398  10.605  14.283
79674SOL     OW40854  13.964   3.802   2.611
79674SOL    HW140855  13.932   3.849   2.688
79674SOL    HW240856  13.935   3.712   2.624
79675SOL     OW40857   7.263   4.051   5.614
79675SOL    HW140858   7.273   4.107   5.691
79675SOL    HW240859   7.180   4.005   5.627
79676SOL     OW40860  10.778   3.412  13.900
79676SOL    HW140861  10.864   3.454  13.896
79676SOL    HW240862  10.754   3.397  13.809
79677SOL     OW40863   1.053   4.144  10.012
79677SOL    HW140864   0.985   4.186   9.960
79677SOL    HW240865   1.131   4.145   9.956
79678SOL     OW40866  10.626  14.076   0.828
79678SOL    HW140867  10.674  14.033   0.758
79678SOL    HW240868  10.685  14.071   0.904
79679SOL     OW40869   7.385   0.653   7.758
79679SOL    HW140870   7.314   0.598   7.725
79679SOL    HW240871   7.341   0.718   7.813
79680SOL     OW40872   6.165   8.970  11.333
79680SOL    HW140873   6.258   8.955  11.321
79680SOL    HW240874   6.149   8.949  11.425
79681SOL     OW40875   6.404  10.281   1.473
79681SOL    HW140876   6.364  10.359   1.510
79681SOL    HW240877   6.498  10.294   1.486
79682SOL     OW40878   0.261   0.865   3.608
79682SOL    HW140879   0.333   0.863   3.671
79682SOL    HW240880   0.254   0.958   3.583
79683SOL     OW40881   3.807   9.871  12.877
79683SOL    HW140882   3.754   9.941  12.915
79683SOL    HW240883   3.869   9.848  12.946
79684SOL     OW40884  14.739   6.562  13.963
79684SOL    HW140885  14.657   6.609  13.982
79684SOL    HW240886  14.785   6.619  13.902
79685SOL     OW40887   7.611   4.359  12.484
79685SOL    HW140888   7.687   4.417  12.496
79685SOL    HW240889   7.647   4.271  12.488
79686SOL     OW40890   6.124  10.994   2.350
79686SOL    HW140891   6.138  10.911   2.395
79686SOL    HW240892   6.049  10.978   2.293
79687SOL     OW40893   6.409   7.990   3.812
79687SOL    HW140894   6.441   7.900   3.821
79687SOL    HW240895   6.315   7.983   3.826
79688SOL     OW40896   4.532  12.183   2.417
79688SOL    HW140897   4.519  12.224   2.332
79688SOL    HW240898   4.561  12.255   2.474
79689SOL     OW40899   6.815  14.169   0.633
79689SOL    HW140900   6.905  14.182   0.603
79689SOL    HW240901   6.823  14.151   0.727
79690SOL     OW40902   8.524   4.554  12.088
79690SOL    HW140903   8.477   4.485  12.041
79690SOL    HW240904   8.456   4.601  12.136
79691SOL     OW40905   7.814   6.671  12.294
79691SOL    HW140906   7.902   6.710  12.300
79691SOL    HW240907   7.831   6.578  12.280
79692SOL     OW40908  13.218   0.210   0.022
79692SOL    HW140909  13.191   0.183  14.813
79692SOL    HW240910  13.181   0.297   0.033
79693SOL     OW40911  13.757   2.750   8.521
79693SOL    HW140912  13.785   2.698   8.596
79693SOL    HW240913  13.757   2.840   8.553
79694SOL     OW40914   5.509  13.782  10.100
79694SOL    HW140915   5.438  13.809  10.157
79694SOL    HW240916   5.547  13.865  10.069
79695SOL     OW40917  11.969   3.753   6.291
79695SOL    HW140918  11.937   3.684   6.348
79695SOL    HW240919  12.061   3.763   6.313
79696SOL     OW40920   0.538  11.135  14.713
79696SOL    HW140921   0.580  11.203  14.661
79696SOL    HW240922   0.544  11.166  14.804
79697SOL     OW40923  14.093   6.568  11.535
79697SOL    HW140924  14.052   6.547  11.451
79697SOL    HW240925  14.187   6.552  11.520
79698SOL     OW40926   0.526   2.920   3.513
79698SOL    HW140927   0.534   3.004   3.468
79698SOL    HW240928   0.496   2.943   3.601
79699SOL     OW40929  12.018   9.969  11.958
79699SOL    HW140930  11.978  10.053  11.978
79699SOL    HW240931  12.089   9.960  12.022
79700SOL     OW40932  10.429  11.787   1.323
79700SOL    HW140933  10.447  11.740   1.405
79700SOL    HW240934  10.336  11.770   1.306
79701SOL     OW40935  14.503   0.457   0.188
79701SOL    HW140936  14.568   0.519   0.155
79701SOL    HW240937  14.453   0.431   0.111
79702SOL     OW40938   7.581  12.001  10.273
79702SOL    HW140939   7.551  12.091  10.276
79702SOL    HW240940   7.671  12.004  10.305
79703SOL     OW40941   6.873  14.515  14.630
79703SOL    HW140942   6.870  14.565  14.711
79703SOL    HW240943   6.798  14.456  14.635
79704SOL     OW40944  11.052  10.773   7.335
79704SOL    HW140945  11.099  10.748   7.415
79704SOL    HW240946  10.997  10.697   7.316
79705SOL     OW40947   1.792   7.667   8.609
79705SOL    HW140948   1.835   7.589   8.574
79705SOL    HW240949   1.849   7.697   8.679
79706SOL     OW40950   0.020   4.799  10.603
79706SOL    HW140951   0.096   4.797  10.545
79706SOL    HW240952  14.824   4.807  10.545
79707SOL     OW40953  11.245  11.535  13.762
79707SOL    HW140954  11.293  11.613  13.788
79707SOL    HW240955  11.185  11.565  13.694
79708SOL     OW40956   3.931   9.698   0.910
79708SOL    HW140957   3.917   9.652   0.993
79708SOL    HW240958   3.889   9.783   0.923
79709SOL     OW40959   1.982   4.768  10.277
79709SOL    HW140960   2.074   4.790  10.262
79709SOL    HW240961   1.935   4.810  10.205
79710SOL     OW40962   5.229  12.398   1.490
79710SOL    HW140963   5.312  12.399   1.443
79710SOL    HW240964   5.251  12.425   1.579
79711SOL     OW40965   9.575   6.062  11.966
79711SOL    HW140966   9.560   5.993  11.902
79711SOL    HW240967   9.661   6.043  12.003
79712SOL     OW40968   6.627   6.436   5.890
79712SOL    HW140969   6.695   6.503   5.878
79712SOL    HW240970   6.624   6.423   5.985
79713SOL     OW40971   4.757   7.434   8.267
79713SOL    HW140972   4.676   7.455   8.314
79713SOL    HW240973   4.743   7.469   8.179
79714SOL     OW40974   0.388   2.692  12.564
79714SOL    HW140975   0.311   2.690  12.620
79714SOL    HW240976   0.461   2.670  12.622
79715SOL     OW40977   2.305   9.661   7.970
79715SOL    HW140978   2.352   9.726   7.917
79715SOL    HW240979   2.373   9.617   8.020
79716SOL     OW40980   7.680   3.671  11.950
79716SOL    HW140981   7.627   3.735  11.903
79716SOL    HW240982   7.712   3.718  12.027
79717SOL     OW40983   0.677   4.533   0.155
79717SOL    HW140984   0.758   4.563   0.113
79717SOL    HW240985   0.609   4.544   0.088
79718SOL     OW40986  13.757   6.387   0.431
79718SOL    HW140987  13.757   6.439   0.351
79718SOL    HW240988  13.741   6.298   0.402
79719SOL     OW40989  12.257  13.683   6.662
79719SOL    HW140990  12.217  13.731   6.734
79719SOL    HW240991  12.278  13.597   6.700
79720SOL     OW40992   6.896   1.490  12.203
79720SOL    HW140993   6.803   1.491  12.178
79720SOL    HW240994   6.905   1.563  12.264
79721SOL     OW40995   2.019   3.763   4.378
79721SOL    HW140996   2.085   3.732   4.440
79721SOL    HW240997   2.063   3.831   4.328
79722SOL     OW40998   4.352  10.769   9.983
79722SOL    HW140999   4.292  10.837   9.952
79722SOL    HW241000   4.307  10.730  10.059
79723SOL     OW41001  12.382   7.579   0.784
79723SOL    HW141002  12.367   7.641   0.713
79723SOL    HW241003  12.312   7.596   0.847
79724SOL     OW41004   4.632   0.348   7.056
79724SOL    HW141005   4.636   0.386   6.969
79724SOL    HW241006   4.539   0.345   7.077
79725SOL     OW41007  11.008  13.632  10.884
79725SOL    HW141008  11.062  13.612  10.961
79725SOL    HW241009  11.010  13.552  10.832
79726SOL     OW41010   1.195   0.994   4.193
79726SOL    HW141011   1.171   0.913   4.239
79726SOL    HW241012   1.286   1.009   4.217
79727SOL     OW41013  13.691   4.403  12.550
79727SOL    HW141014  13.733   4.432  12.469
79727SOL    HW241015  13.609   4.453  12.554
79728SOL     OW41016   7.157   5.395   8.449
79728SOL    HW141017   7.093   5.355   8.507
79728SOL    HW241018   7.236   5.404   8.504
79729SOL     OW41019   3.051   1.532   3.071
79729SOL    HW141020   3.106   1.551   2.995
79729SOL    HW241021   2.962   1.547   3.040
79730SOL     OW41022   6.394  10.865   1.440
79730SOL    HW141023   6.478  10.843   1.399
79730SOL    HW241024   6.415  10.933   1.503
79731SOL     OW41025  11.903   6.746   1.694
79731SOL    HW141026  11.854   6.803   1.754
79731SOL    HW241027  11.949   6.807   1.636
79732SOL     OW41028  14.047   3.343  13.786
79732SOL    HW141029  14.025   3.252  13.804
79732SOL    HW241030  13.980   3.372  13.724
79733SOL     OW41031  12.184   1.245  10.682
79733SOL    HW141032  12.238   1.319  10.711
79733SOL    HW241033  12.101   1.258  10.727
79734SOL     OW41034   2.280   2.913   1.815
79734SOL    HW141035   2.230   2.978   1.865
79734SOL    HW241036   2.349   2.964   1.772
79735SOL     OW41037   7.717   9.285  14.178
79735SOL    HW141038   7.747   9.287  14.269
79735SOL    HW241039   7.729   9.195  14.150
79736SOL     OW41040   7.108   5.908  11.994
79736SOL    HW141041   7.072   5.821  12.013
79736SOL    HW241042   7.139   5.903  11.904
79737SOL     OW41043   9.804   4.329   2.484
79737SOL    HW141044   9.829   4.369   2.567
79737SOL    HW241045   9.875   4.351   2.424
79738SOL     OW41046  11.724   7.550   3.726
79738SOL    HW141047  11.655   7.577   3.665
79738SOL    HW241048  11.677   7.516   3.802
79739SOL     OW41049   3.032   7.574  12.227
79739SOL    HW141050   3.058   7.646  12.170
79739SOL    HW241051   2.976   7.519  12.173
79740SOL     OW41052   1.190   5.837   7.499
79740SOL    HW141053   1.244   5.763   7.471
79740SOL    HW241054   1.148   5.807   7.579
79741SOL     OW41055   8.753   7.357   6.588
79741SOL    HW141056   8.799   7.406   6.657
79741SOL    HW241057   8.663   7.389   6.592
79742SOL     OW41058  13.709  11.969  11.297
79742SOL    HW141059  13.713  11.875  11.316
79742SOL    HW241060  13.780  12.007  11.349
79743SOL     OW41061  12.427   7.452  14.837
79743SOL    HW141062  12.461   7.418  14.754
79743SOL    HW241063  12.402   7.374   0.007
79744SOL     OW41064   7.302   5.382   9.509
79744SOL    HW141065   7.335   5.297   9.480
79744SOL    HW241066   7.381   5.432   9.530
79745SOL     OW41067   4.783   0.757   5.727
79745SOL    HW141068   4.789   0.663   5.713
79745SOL    HW241069   4.741   0.791   5.648
79746SOL     OW41070   1.376   4.510  10.741
79746SOL    HW141071   1.287   4.477  10.725
79746SOL    HW241072   1.392   4.571  10.669
79747SOL     OW41073   2.435  13.289   4.796
79747SOL    HW141074   2.362  13.228   4.810
79747SOL    HW241075   2.513  13.238   4.815
79748SOL     OW41076   6.900   9.979   6.859
79748SOL    HW141077   6.858   9.893   6.857
79748SOL    HW241078   6.854  10.026   6.929
79749SOL     OW41079   6.016  12.209  10.928
79749SOL    HW141080   6.066  12.129  10.945
79749SOL    HW241081   5.955  12.184  10.859
79750SOL     OW41082   0.461  10.109  13.325
79750SOL    HW141083   0.378  10.134  13.365
79750SOL    HW241084   0.515  10.187  13.330
79751SOL     OW41085   0.061   8.969   3.322
79751SOL    HW141086   0.149   8.990   3.355
79751SOL    HW241087   0.018   8.924   3.394
79752SOL     OW41088   0.333   9.807   0.566
79752SOL    HW141089   0.364   9.771   0.649
79752SOL    HW241090   0.318   9.900   0.584
79753SOL     OW41091  14.841  14.461   0.364
79753SOL    HW141092   0.014  14.530   0.323
79753SOL    HW241093  14.773  14.440   0.299
79754SOL     OW41094   7.689  12.734   5.058
79754SOL    HW141095   7.742  12.734   4.979
79754SOL    HW241096   7.599  12.744   5.027
79755SOL     OW41097  10.240   8.486   5.232
79755SOL    HW141098  10.227   8.580   5.231
79755SOL    HW241099  10.329   8.473   5.199
79756SOL     OW41100  10.921   9.047   1.436
79756SOL    HW141101  10.832   9.045   1.471
79756SOL    HW241102  10.932   9.136   1.404
79757SOL     OW41103   3.310   9.351  11.936
79757SOL    HW141104   3.281   9.308  12.017
79757SOL    HW241105   3.376   9.291  11.900
79758SOL     OW41106  14.377  11.973   9.002
79758SOL    HW141107  14.384  11.894   9.055
79758SOL    HW241108  14.308  11.953   8.939
79759SOL     OW41109   8.431  12.807   0.683
79759SOL    HW141110   8.435  12.819   0.778
79759SOL    HW241111   8.521  12.820   0.653
79760SOL     OW41112  13.430   3.206  13.413
79760SOL    HW141113  13.468   3.226  13.328
79760SOL    HW241114  13.336   3.224  13.403
79761SOL     OW41115   7.457   9.570   7.447
79761SOL    HW141116   7.396   9.498   7.430
79761SOL    HW241117   7.499   9.586   7.363
79762SOL     OW41118  14.632   3.704   6.112
79762SOL    HW141119  14.686   3.642   6.161
79762SOL    HW241120  14.689   3.735   6.042
79763SOL     OW41121   8.957   5.409  10.324
79763SOL    HW141122   9.021   5.476  10.350
79763SOL    HW241123   9.002   5.358  10.256
79764SOL     OW41124  12.514  10.336   8.288
79764SOL    HW141125  12.513  10.309   8.380
79764SOL    HW241126  12.451  10.278   8.246
79765SOL     OW41127   2.115   0.576   5.965
79765SOL    HW141128   2.095   0.535   5.881
79765SOL    HW241129   2.031   0.584   6.008
79766SOL     OW41130  11.156   1.909   1.874
79766SOL    HW141131  11.161   1.999   1.842
79766SOL    HW241132  11.082   1.909   1.934
79767SOL     OW41133  14.719   8.592  11.613
79767SOL    HW141134  14.692   8.684  11.609
79767SOL    HW241135  14.746   8.579  11.704
79768SOL     OW41136   5.632   4.661  14.696
79768SOL    HW141137   5.664   4.737  14.744
79768SOL    HW241138   5.700   4.595  14.708
79769SOL     OW41139   8.977   7.068   0.328
79769SOL    HW141140   8.956   6.999   0.265
79769SOL    HW241141   9.068   7.051   0.352
79770SOL     OW41142   4.612   2.335   1.386
79770SOL    HW141143   4.630   2.299   1.299
79770SOL    HW241144   4.674   2.291   1.444
79771SOL     OW41145  10.851   1.153  10.163
79771SOL    HW141146  10.798   1.122  10.236
79771SOL    HW241147  10.910   1.080  10.144
79772SOL     OW41148   1.770   8.496   3.113
79772SOL    HW141149   1.842   8.441   3.081
79772SOL    HW241150   1.790   8.583   3.080
79773SOL     OW41151   3.819   3.670  13.586
79773SOL    HW141152   3.854   3.582  13.569
79773SOL    HW241153   3.743   3.677  13.528
79774SOL     OW41154  13.116   3.816  12.050
79774SOL    HW141155  13.067   3.897  12.030
79774SOL    HW241156  13.073   3.781  12.128
79775SOL     OW41157   2.462  11.455   5.024
79775SOL    HW141158   2.413  11.503   5.092
79775SOL    HW241159   2.399  11.444   4.953
79776SOL     OW41160   6.378   9.954   1.293
79776SOL    HW141161   6.464   9.996   1.286
79776SOL    HW241162   6.319  10.024   1.321
79777SOL     OW41163   8.485  13.139   9.537
79777SOL    HW141164   8.529  13.218   9.506
79777SOL    HW241165   8.542  13.067   9.509
79778SOL     OW41166   8.198   6.479   7.487
79778SOL    HW141167   8.111   6.444   7.469
79778SOL    HW241168   8.202   6.486   7.582
79779SOL     OW41169   0.054   1.370  12.046
79779SOL    HW141170   0.009   1.368  11.961
79779SOL    HW241171   0.146   1.384  12.024
79780SOL     OW41172   9.671   0.082   8.796
79780SOL    HW141173   9.655   0.101   8.704
79780SOL    HW241174   9.742   0.140   8.821
79781SOL     OW41175   4.368   0.891   3.375
79781SOL    HW141176   4.287   0.883   3.425
79781SOL    HW241177   4.378   0.985   3.361
79782SOL     OW41178   0.228   4.675   3.688
79782SOL    HW141179   0.142   4.710   3.664
79782SOL    HW241180   0.249   4.718   3.771
79783SOL     OW41181  13.401  11.065   3.278
79783SOL    HW141182  13.345  11.126   3.326
79783SOL    HW241183  13.441  11.010   3.347
79784SOL     OW41184   1.588   3.679   5.047
79784SOL    HW141185   1.558   3.682   4.956
79784SOL    HW241186   1.670   3.728   5.047
79785SOL     OW41187   4.395   0.897   9.450
79785SOL    HW141188   4.428   0.809   9.435
79785SOL    HW241189   4.300   0.888   9.445
79786SOL     OW41190   5.856   9.383  12.845
79786SOL    HW141191   5.931   9.441  12.841
79786SOL    HW241192   5.849   9.359  12.938
79787SOL     OW41193   3.407  14.634   9.660
79787SOL    HW141194   3.321  14.677   9.666
79787SOL    HW241195   3.408  14.596   9.573
79788SOL     OW41196   9.244   3.757   6.486
79788SOL    HW141197   9.254   3.774   6.580
79788SOL    HW241198   9.193   3.677   6.481
79789SOL     OW41199  11.484   5.812   3.553
79789SOL    HW141200  11.410   5.756   3.529
79789SOL    HW241201  11.469   5.832   3.645
79790SOL     OW41202  13.130  12.478   0.681
79790SOL    HW141203  13.114  12.564   0.643
79790SOL    HW241204  13.060  12.467   0.745
79791SOL     OW41205  10.641   8.346   6.934
79791SOL    HW141206  10.589   8.288   6.878
79791SOL    HW241207  10.632   8.432   6.893
79792SOL     OW41208   7.457   1.656   8.676
79792SOL    HW141209   7.528   1.719   8.676
79792SOL    HW241210   7.407   1.676   8.755
79793SOL     OW41211   3.858  11.468   5.382
79793SOL    HW141212   3.887  11.557   5.402
79793SOL    HW241213   3.804  11.443   5.457
79794SOL     OW41214   4.719   0.331   1.139
79794SOL    HW141215   4.760   0.313   1.055
79794SOL    HW241216   4.755   0.415   1.167
79795SOL     OW41217   4.128  12.658   5.462
79795SOL    HW141218   4.161  12.694   5.380
79795SOL    HW241219   4.091  12.733   5.508
79796SOL     OW41220   9.268   0.160  11.478
79796SOL    HW141221   9.248   0.223  11.547
79796SOL    HW241222   9.316   0.090  11.523
79797SOL     OW41223   6.212   4.783   2.752
79797SOL    HW141224   6.228   4.790   2.846
79797SOL    HW241225   6.269   4.712   2.722
79798SOL     OW41226  12.570   3.325   2.174
79798SOL    HW141227  12.520   3.344   2.254
79798SOL    HW241228  12.559   3.403   2.120
79799SOL     OW41229  14.871  10.061   7.407
79799SOL    HW141230   0.013  10.067   7.500
79799SOL    HW241231   0.063  10.009   7.369
79800SOL     OW41232   6.368   8.173   7.047
79800SOL    HW141233   6.295   8.194   6.987
79800SOL    HW241234   6.414   8.102   7.003
79801SOL     OW41235   0.142   3.985   1.378
79801SOL    HW141236   0.052   4.016   1.369
79801SOL    HW241237   0.134   3.899   1.421
79802SOL     OW41238  11.214  10.684   3.208
79802SOL    HW141239  11.298  10.713   3.244
79802SOL    HW241240  11.185  10.615   3.268
79803SOL     OW41241  13.688  14.123  10.018
79803SOL    HW141242  13.732  14.041   9.997
79803SOL    HW241243  13.679  14.123  10.113
79804SOL     OW41244   3.214   3.414   0.485
79804SOL    HW141245   3.266   3.391   0.562
79804SOL    HW241246   3.274   3.407   0.412
79805SOL     OW41247   5.487   5.819  11.548
79805SOL    HW141248   5.395   5.841  11.538
79805SOL    HW241249   5.494   5.729  11.516
79806SOL     OW41250   2.191   0.961  13.235
79806SOL    HW141251   2.156   1.050  13.238
79806SOL    HW241252   2.281   0.969  13.268
79807SOL     OW41253  13.320   5.650  13.547
79807SOL    HW141254  13.251   5.586  13.564
79807SOL    HW241255  13.356   5.624  13.462
79808SOL     OW41256   6.232  13.085   3.158
79808SOL    HW141257   6.182  13.033   3.221
79808SOL    HW241258   6.312  13.034   3.143
79809SOL     OW41259   8.408  12.049   1.419
79809SOL    HW141260   8.354  12.085   1.489
79809SOL    HW241261   8.415  11.956   1.439
79810SOL     OW41262   1.219   5.129  10.808
79810SOL    HW141263   1.134   5.163  10.778
79810SOL    HW241264   1.200   5.088  10.892
79811SOL     OW41265  11.729  12.389   0.469
79811SOL    HW141266  11.822  12.390   0.494
79811SOL    HW241267  11.682  12.403   0.551
79812SOL     OW41268  13.051  14.526  12.820
79812SOL    HW141269  13.018  14.553  12.906
79812SOL    HW241270  13.092  14.441  12.837
79813SOL     OW41271  13.980   8.081   0.978
79813SOL    HW141272  14.075   8.096   0.986
79813SOL    HW241273  13.970   8.047   0.889
79814SOL     OW41274   2.405   6.405   4.406
79814SOL    HW141275   2.345   6.331   4.407
79814SOL    HW241276   2.430   6.415   4.314
79815SOL     OW41277   4.333   6.267   3.722
79815SOL    HW141278   4.428   6.256   3.731
79815SOL    HW241279   4.310   6.216   3.645
79816SOL     OW41280   0.665   8.713   8.190
79816SOL    HW141281   0.747   8.726   8.142
79816SOL    HW241282   0.622   8.798   8.188
79817SOL     OW41283   8.156   8.323  14.492
79817SOL    HW141284   8.230   8.276  14.454
79817SOL    HW241285   8.081   8.264  14.480
79818SOL     OW41286   0.669   4.365   1.453
79818SOL    HW141287   0.611   4.392   1.525
79818SOL    HW241288   0.660   4.270   1.448
79819SOL     OW41289  13.611   8.123   4.386
79819SOL    HW141290  13.534   8.120   4.329
79819SOL    HW241291  13.581   8.172   4.463
79820SOL     OW41292   4.233   2.127   0.541
79820SOL    HW141293   4.224   2.197   0.606
79820SOL    HW241294   4.224   2.046   0.590
79821SOL     OW41295   3.545   4.615  13.339
79821SOL    HW141296   3.460   4.643  13.307
79821SOL    HW241297   3.553   4.656  13.426
79822SOL     OW41298   1.822   8.021   7.235
79822SOL    HW141299   1.777   7.947   7.275
79822SOL    HW241300   1.763   8.096   7.250
79823SOL     OW41301  12.556  10.895   4.357
79823SOL    HW141302  12.524  10.981   4.327
79823SOL    HW241303  12.507  10.880   4.438
79824SOL     OW41304  14.746  12.918   6.568
79824SOL    HW141305  14.711  12.879   6.648
79824SOL    HW241306  14.820  12.862   6.545
79825SOL     OW41307   9.361  13.477  11.255
79825SOL    HW141308   9.321  13.463  11.342
79825SOL    HW241309   9.441  13.425  11.257
79826SOL     OW41310   7.205   8.790   7.407
79826SOL    HW141311   7.249   8.828   7.331
79826SOL    HW241312   7.276   8.751   7.459
79827SOL     OW41313  13.583   5.511   9.961
79827SOL    HW141314  13.609   5.433  10.010
79827SOL    HW241315  13.539   5.477   9.883
79828SOL     OW41316   6.437   0.511   8.760
79828SOL    HW141317   6.395   0.474   8.838
79828SOL    HW241318   6.488   0.439   8.723
79829SOL     OW41319   8.722   5.875  14.706
79829SOL    HW141320   8.710   5.821  14.628
79829SOL    HW241321   8.662   5.949  14.693
79830SOL     OW41322  14.783   5.841   8.575
79830SOL    HW141323  14.726   5.820   8.500
79830SOL    HW241324  14.723   5.850   8.649
79831SOL     OW41325  12.113  12.682   7.376
79831SOL    HW141326  12.181  12.729   7.328
79831SOL    HW241327  12.108  12.727   7.460
79832SOL     OW41328   4.000   9.683   2.677
79832SOL    HW141329   3.940   9.632   2.732
79832SOL    HW241330   4.017   9.762   2.728
79833SOL     OW41331   8.726   3.020  12.114
79833SOL    HW141332   8.666   3.095  12.119
79833SOL    HW241333   8.779   3.036  12.036
79834SOL     OW41334  13.575  12.186   9.199
79834SOL    HW141335  13.523  12.189   9.119
79834SOL    HW241336  13.608  12.276   9.209
79835SOL     OW41337   3.237   7.519   8.971
79835SOL    HW141338   3.279   7.597   9.006
79835SOL    HW241339   3.201   7.548   8.887
79836SOL     OW41340   3.333   3.753  11.796
79836SOL    HW141341   3.427   3.737  11.788
79836SOL    HW241342   3.313   3.730  11.886
79837SOL     OW41343   9.400  11.347   5.972
79837SOL    HW141344   9.479  11.391   6.003
79837SOL    HW241345   9.379  11.285   6.041
79838SOL     OW41346   4.179   2.224  11.929
79838SOL    HW141347   4.268   2.230  11.965
79838SOL    HW241348   4.193   2.205  11.836
79839SOL     OW41349  11.197  10.268   1.203
79839SOL    HW141350  11.114  10.248   1.247
79839SOL    HW241351  11.190  10.225   1.118
79840SOL     OW41352  10.124   3.079  14.048
79840SOL    HW141353  10.187   3.019  14.008
79840SOL    HW241354  10.163   3.165  14.038
79841SOL     OW41355  14.357   9.167   6.728
79841SOL    HW141356  14.315   9.252   6.711
79841SOL    HW241357  14.430   9.163   6.666
79842SOL     OW41358   8.855   4.622  13.745
79842SOL    HW141359   8.929   4.569  13.713
79842SOL    HW241360   8.841   4.688  13.677
79843SOL     OW41361   7.307  14.734  13.331
79843SOL    HW141362   7.328  14.642  13.346
79843SOL    HW241363   7.389  14.781  13.345
79844SOL     OW41364   9.644  13.543  10.480
79844SOL    HW141365   9.559  13.499  10.479
79844SOL    HW241366   9.626  13.629  10.519
79845SOL     OW41367   1.075  14.838  14.188
79845SOL    HW141368   1.043  14.750  14.173
79845SOL    HW241369   1.128  14.858  14.111
79846SOL     OW41370   0.912   4.337  10.356
79846SOL    HW141371   0.928   4.415  10.409
79846SOL    HW241372   0.845   4.288  10.405
79847SOL     OW41373  10.937  12.332   7.880
79847SOL    HW141374  11.006  12.398   7.886
79847SOL    HW241375  10.970  12.270   7.815
79848SOL     OW41376  10.130   5.273   5.003
79848SOL    HW141377  10.068   5.343   4.983
79848SOL    HW241378  10.145   5.230   4.919
79849SOL     OW41379   6.824  12.030   8.389
79849SOL    HW141380   6.735  12.056   8.365
79849SOL    HW241381   6.867  12.009   8.306
79850SOL     OW41382   3.104   4.789   1.738
79850SOL    HW141383   3.153   4.871   1.729
79850SOL    HW241384   3.042   4.791   1.665
79851SOL     OW41385   1.229   0.033   3.467
79851SOL    HW141386   1.324   0.037   3.470
79851SOL    HW241387   1.203   0.115   3.425
79852SOL     OW41388   5.295   3.771   0.689
79852SOL    HW141389   5.380   3.815   0.684
79852SOL    HW241390   5.269   3.780   0.781
79853SOL     OW41391   1.384  13.821   3.929
79853SOL    HW141392   1.312  13.868   3.971
79853SOL    HW241393   1.400  13.746   3.986
79854SOL     OW41394  14.813  13.634   6.927
79854SOL    HW141395  14.802  13.691   6.851
79854SOL    HW241396  14.785  13.688   7.002
79855SOL     OW41397   6.283   8.055  13.769
79855SOL    HW141398   6.277   7.999  13.692
79855SOL    HW241399   6.293   8.144  13.734
79856SOL     OW41400   7.982   8.875  13.609
79856SOL    HW141401   7.946   8.847  13.693
79856SOL    HW241402   8.006   8.793  13.565
79857SOL     OW41403   2.617   8.566   9.322
79857SOL    HW141404   2.710   8.555   9.304
79857SOL    HW241405   2.593   8.491   9.376
79858SOL     OW41406  10.273   0.233  12.501
79858SOL    HW141407  10.362   0.196  12.503
79858SOL    HW241408  10.253   0.242  12.408
79859SOL     OW41409   4.169  13.641   7.863
79859SOL    HW141410   4.169  13.642   7.768
79859SOL    HW241411   4.258  13.614   7.887
79860SOL     OW41412   2.535  11.239   5.801
79860SOL    HW141413   2.445  11.209   5.786
79860SOL    HW241414   2.558  11.285   5.720
79861SOL     OW41415  14.808   4.551   4.992
79861SOL    HW141416  14.785   4.544   4.899
79861SOL    HW241417  14.726   4.538   5.038
79862SOL     OW41418   0.153   0.457  10.212
79862SOL    HW141419   0.224   0.417  10.160
79862SOL    HW241420   0.171   0.430  10.302
79863SOL     OW41421   6.471   4.797   8.910
79863SOL    HW141422   6.407   4.817   8.978
79863SOL    HW241423   6.421   4.757   8.840
79864SOL     OW41424   2.724   5.499   3.815
79864SOL    HW141425   2.687   5.572   3.766
79864SOL    HW241426   2.714   5.525   3.907
79865SOL     OW41427  10.330   8.338   4.583
79865SOL    HW141428  10.270   8.411   4.601
79865SOL    HW241429  10.398   8.376   4.527
79866SOL     OW41430  13.463   4.996  10.111
79866SOL    HW141431  13.502   5.054  10.045
79866SOL    HW241432  13.441   5.054  10.184
79867SOL     OW41433   9.583   8.367   5.095
79867SOL    HW141434   9.531   8.447   5.089
79867SOL    HW241435   9.539   8.305   5.036
79868SOL     OW41436  13.278  14.364   7.797
79868SOL    HW141437  13.335  14.410   7.737
79868SOL    HW241438  13.191  14.402   7.783
79869SOL     OW41439   3.161   2.334   3.272
79869SOL    HW141440   3.223   2.398   3.236
79869SOL    HW241441   3.205   2.298   3.349
79870SOL     OW41442  10.441  10.254  13.674
79870SOL    HW141443  10.373  10.277  13.611
79870SOL    HW241444  10.446  10.159  13.672
79871SOL     OW41445   0.986  10.148  13.649
79871SOL    HW141446   0.972  10.237  13.619
79871SOL    HW241447   0.941  10.093  13.585
79872SOL     OW41448   6.415   0.805  13.485
79872SOL    HW141449   6.490   0.848  13.527
79872SOL    HW241450   6.369   0.876  13.439
79873SOL     OW41451   0.953   8.572   6.058
79873SOL    HW141452   1.038   8.530   6.046
79873SOL    HW241453   0.967   8.664   6.035
79874SOL     OW41454   1.259   1.577  13.429
79874SOL    HW141455   1.287   1.663  13.398
79874SOL    HW241456   1.202   1.595  13.503
79875SOL     OW41457   8.803   2.450   5.911
79875SOL    HW141458   8.898   2.464   5.913
79875SOL    HW241459   8.769   2.515   5.972
79876SOL     OW41460  12.996   3.511  13.797
79876SOL    HW141461  13.060   3.472  13.738
79876SOL    HW241462  13.047   3.537  13.874
79877SOL     OW41463   9.506   9.762   8.914
79877SOL    HW141464   9.571   9.693   8.930
79877SOL    HW241465   9.459   9.733   8.836
79878SOL     OW41466   8.857   4.465   4.372
79878SOL    HW141467   8.793   4.526   4.408
79878SOL    HW241468   8.822   4.442   4.286
79879SOL     OW41469   8.541  12.790  13.618
79879SOL    HW141470   8.529  12.752  13.705
79879SOL    HW241471   8.494  12.874  13.622
79880SOL     OW41472   2.628   5.708   6.046
79880SOL    HW141473   2.580   5.710   6.129
79880SOL    HW241474   2.639   5.615   6.027
79881SOL     OW41475  12.103  14.563  12.904
79881SOL    HW141476  12.123  14.514  12.984
79881SOL    HW241477  12.171  14.536  12.842
79882SOL     OW41478   5.860   3.272   0.345
79882SOL    HW141479   5.934   3.303   0.397
79882SOL    HW241480   5.890   3.278   0.255
79883SOL     OW41481   0.514   4.046  10.530
79883SOL    HW141482   0.445   4.112  10.536
79883SOL    HW241483   0.483   3.985  10.464
79884SOL     OW41484   8.853  11.950   2.575
79884SOL    HW141485   8.932  12.004   2.581
79884SOL    HW241486   8.852  11.919   2.484
79885SOL     OW41487   1.730   9.281   1.617
79885SOL    HW141488   1.701   9.355   1.565
79885SOL    HW241489   1.707   9.304   1.707
79886SOL     OW41490  13.870  13.372  14.763
79886SOL    HW141491  13.802  13.405  14.823
79886SOL    HW241492  13.827  13.371  14.678
79887SOL     OW41493   8.562  13.155   3.565
79887SOL    HW141494   8.576  13.064   3.590
79887SOL    HW241495   8.515  13.194   3.638
79888SOL     OW41496   3.424   2.995   5.616
79888SOL    HW141497   3.411   3.090   5.607
79888SOL    HW241498   3.421   2.962   5.526
79889SOL     OW41499   3.091   6.312   1.252
79889SOL    HW141500   2.996   6.310   1.246
79889SOL    HW241501   3.122   6.272   1.172
79890SOL     OW41502  10.185   3.077   3.810
79890SOL    HW141503  10.111   3.108   3.863
79890SOL    HW241504  10.247   3.041   3.873
79891SOL     OW41505   1.543  11.998   2.990
79891SOL    HW141506   1.452  11.985   2.964
79891SOL    HW241507   1.591  11.928   2.945
79892SOL     OW41508  12.953  14.879  11.991
79892SOL    HW141509  13.018   0.062  12.023
79892SOL    HW241510  12.989  14.793  12.012
79893SOL     OW41511   1.900   3.972   3.714
79893SOL    HW141512   1.921   3.912   3.642
79893SOL    HW241513   1.819   3.937   3.751
79894SOL     OW41514  10.877   9.457  11.249
79894SOL    HW141515  10.893   9.518  11.177
79894SOL    HW241516  10.804   9.496  11.298
79895SOL     OW41517   7.745   4.053  10.229
79895SOL    HW141518   7.710   4.138  10.202
79895SOL    HW241519   7.836   4.053  10.198
79896SOL     OW41520   3.158   6.632   9.706
79896SOL    HW141521   3.064   6.632   9.720
79896SOL    HW241522   3.176   6.713   9.660
79897SOL     OW41523  12.722   0.242  10.334
79897SOL    HW141524  12.703   0.306  10.403
79897SOL    HW241525  12.704   0.157  10.374
79898SOL     OW41526   9.281   4.718   9.400
79898SOL    HW141527   9.300   4.720   9.306
79898SOL    HW241528   9.350   4.772   9.439
79899SOL     OW41529  12.588  10.901   3.098
79899SOL    HW141530  12.548  10.908   3.184
79899SOL    HW241531  12.563  10.982   3.054
79900SOL     OW41532   0.754   5.142   8.571
79900SOL    HW141533   0.702   5.097   8.505
79900SOL    HW241534   0.692   5.200   8.615
79901SOL     OW41535   2.739   9.457  14.679
79901SOL    HW141536   2.822   9.478  14.635
79901SOL    HW241537   2.674   9.510  14.633
79902SOL     OW41538   8.426  13.531  10.523
79902SOL    HW141539   8.481  13.591  10.473
79902SOL    HW241540   8.341  13.533  10.479
79903SOL     OW41541   1.176   8.082   2.384
79903SOL    HW141542   1.103   8.144   2.382
79903SOL    HW241543   1.214   8.092   2.471
79904SOL     OW41544   5.738   9.584   8.764
79904SOL    HW141545   5.725   9.543   8.850
79904SOL    HW241546   5.685   9.532   8.704
79905SOL     OW41547  14.674   2.650   0.107
79905SOL    HW141548  14.701   2.558   0.114
79905SOL    HW241549  14.747   2.692   0.060
79906SOL     OW41550   5.545   5.692  11.054
79906SOL    HW141551   5.516   5.608  11.090
79906SOL    HW241552   5.502   5.699  10.969
79907SOL     OW41553   7.121   3.989   1.680
79907SOL    HW141554   7.153   4.002   1.769
79907SOL    HW241555   7.171   4.051   1.627
79908SOL     OW41556   6.571  10.135   8.095
79908SOL    HW141557   6.658  10.110   8.065
79908SOL    HW241558   6.525  10.162   8.016
79909SOL     OW41559   5.608  14.259   1.232
79909SOL    HW141560   5.605  14.345   1.275
79909SOL    HW241561   5.527  14.215   1.260
79910SOL     OW41562   1.788  10.196  11.843
79910SOL    HW141563   1.784  10.131  11.913
79910SOL    HW241564   1.855  10.163  11.783
79911SOL     OW41565   4.996   4.309   9.251
79911SOL    HW141566   4.923   4.255   9.282
79911SOL    HW241567   5.051   4.249   9.201
79912SOL     OW41568   9.719  12.093   5.023
79912SOL    HW141569   9.635  12.104   5.067
79912SOL    HW241570   9.703  12.028   4.954
79913SOL     OW41571  10.488   8.711   5.359
79913SOL    HW141572  10.411   8.754   5.322
79913SOL    HW241573  10.489   8.625   5.318
79914SOL     OW41574   5.832   3.799   8.655
79914SOL    HW141575   5.858   3.733   8.719
79914SOL    HW241576   5.877   3.878   8.683
79915SOL     OW41577   9.778   3.841  14.628
79915SOL    HW141578   9.686   3.842  14.600
79915SOL    HW241579   9.827   3.857  14.548
79916SOL     OW41580   0.758   4.473   9.721
79916SOL    HW141581   0.683   4.450   9.776
79916SOL    HW241582   0.830   4.423   9.757
79917SOL     OW41583  10.690  13.344   6.458
79917SOL    HW141584  10.760  13.404   6.483
79917SOL    HW241585  10.658  13.308   6.541
79918SOL     OW41586  10.395  14.142   0.939
79918SOL    HW141587  10.383  14.218   0.882
79918SOL    HW241588  10.470  14.096   0.903
79919SOL     OW41589   5.236   4.358   4.021
79919SOL    HW141590   5.170   4.305   3.976
79919SOL    HW241591   5.293   4.295   4.063
79920SOL     OW41592   7.380   7.023   4.491
79920SOL    HW141593   7.330   6.941   4.495
79920SOL    HW241594   7.315   7.091   4.509
79921SOL     OW41595   5.599   8.168   6.814
79921SOL    HW141596   5.608   8.086   6.863
79921SOL    HW241597   5.668   8.164   6.747
79922SOL     OW41598   0.032   3.830   4.553
79922SOL    HW141599   0.067   3.915   4.528
79922SOL    HW241600   0.089   3.801   4.624
79923SOL     OW41601   6.396   6.643   6.223
79923SOL    HW141602   6.484   6.610   6.243
79923SOL    HW241603   6.344   6.564   6.208
79924SOL     OW41604   0.338  10.319   5.441
79924SOL    HW141605   0.364  10.411   5.451
79924SOL    HW241606   0.368  10.295   5.353
79925SOL     OW41607   7.294   0.995  12.893
79925SOL    HW141608   7.271   0.932  12.961
79925SOL    HW241609   7.375   0.961  12.855
79926SOL     OW41610   8.332   7.769   0.861
79926SOL    HW141611   8.346   7.743   0.770
79926SOL    HW241612   8.256   7.828   0.858
79927SOL     OW41613   0.763   6.763  10.714
79927SOL    HW141614   0.847   6.808  10.718
79927SOL    HW241615   0.785   6.670  10.721
79928SOL     OW41616   8.264   0.657   1.751
79928SOL    HW141617   8.239   0.744   1.719
79928SOL    HW241618   8.346   0.672   1.798
79929SOL     OW41619   6.094   1.294   1.076
79929SOL    HW141620   6.082   1.333   0.989
79929SOL    HW241621   6.175   1.245   1.069
79930SOL     OW41622  10.952   0.411   0.365
79930SOL    HW141623  11.035   0.367   0.346
79930SOL    HW241624  10.944   0.478   0.297
79931SOL     OW41625   5.562  11.600  14.623
79931SOL    HW141626   5.629  11.546  14.581
79931SOL    HW241627   5.509  11.538  14.673
79932SOL     OW41628  10.277   8.335   9.639
79932SOL    HW141629  10.263   8.248   9.602
79932SOL    HW241630  10.200   8.350   9.694
79933SOL     OW41631   8.345   9.118   8.266
79933SOL    HW141632   8.293   9.135   8.345
79933SOL    HW241633   8.334   9.024   8.251
79934SOL     OW41634   1.382   4.487   4.505
79934SOL    HW141635   1.408   4.575   4.476
79934SOL    HW241636   1.287   4.484   4.489
79935SOL     OW41637   6.857   0.283   7.107
79935SOL    HW141638   6.811   0.338   7.043
79935SOL    HW241639   6.863   0.197   7.066
79936SOL     OW41640  13.799  14.495   4.943
79936SOL    HW141641  13.835  14.455   5.021
79936SOL    HW241642  13.726  14.549   4.974
79937SOL     OW41643  12.703  14.823  11.346
79937SOL    HW141644  12.640  14.866  11.403
79937SOL    HW241645  12.725  14.742  11.393
79938SOL     OW41646   5.068   5.270  13.741
79938SOL    HW141647   5.108   5.190  13.776
79938SOL    HW241648   5.009   5.239  13.673
79939SOL     OW41649   7.214   4.354   7.955
79939SOL    HW141650   7.242   4.341   8.046
79939SOL    HW241651   7.268   4.426   7.923
79940SOL     OW41652   1.685   9.679  14.319
79940SOL    HW141653   1.702   9.642  14.233
79940SOL    HW241654   1.613   9.626  14.354
79941SOL     OW41655   6.621  11.463   4.842
79941SOL    HW141656   6.588  11.517   4.914
79941SOL    HW241657   6.635  11.377   4.882
79942SOL     OW41658  10.217   4.009   2.299
79942SOL    HW141659  10.143   3.968   2.254
79942SOL    HW241660  10.286   3.943   2.298
79943SOL     OW41661   6.470   3.224   7.498
79943SOL    HW141662   6.398   3.195   7.441
79943SOL    HW241663   6.450   3.315   7.518
79944SOL     OW41664  11.611   2.946   7.198
79944SOL    HW141665  11.675   2.875   7.196
79944SOL    HW241666  11.636   3.003   7.125
79945SOL     OW41667   6.496  13.771   1.815
79945SOL    HW141668   6.445  13.690   1.823
79945SOL    HW241669   6.536  13.765   1.728
79946SOL     OW41670   4.271   6.146   4.551
79946SOL    HW141671   4.293   6.064   4.507
79946SOL    HW241672   4.191   6.127   4.600
79947SOL     OW41673   9.275  14.652   3.907
79947SOL    HW141674   9.181  14.645   3.922
79947SOL    HW241675   9.311  14.678   3.991
79948SOL     OW41676   9.973   6.887   6.484
79948SOL    HW141677   9.956   6.845   6.399
79948SOL    HW241678   9.894   6.939   6.501
79949SOL     OW41679   5.535   8.885   7.260
79949SOL    HW141680   5.625   8.882   7.292
79949SOL    HW241681   5.539   8.846   7.173
79950SOL     OW41682  12.163   9.211  11.223
79950SOL    HW141683  12.250   9.177  11.202
79950SOL    HW241684  12.112   9.194  11.144
79951SOL     OW41685   2.353  12.401   8.366
79951SOL    HW141686   2.393  12.426   8.283
79951SOL    HW241687   2.393  12.461   8.430
79952SOL     OW41688   7.492   6.631  12.340
79952SOL    HW141689   7.548   6.657  12.413
79952SOL    HW241690   7.542   6.653  12.261
79953SOL     OW41691  11.484   3.054   3.904
79953SOL    HW141692  11.554   3.066   3.968
79953SOL    HW241693  11.407   3.032   3.956
79954SOL     OW41694   4.775   0.759   2.063
79954SOL    HW141695   4.692   0.733   2.022
79954SOL    HW241696   4.839   0.755   1.992
79955SOL     OW41697  12.136   8.707   7.296
79955SOL    HW141698  12.047   8.739   7.279
79955SOL    HW241699  12.141   8.624   7.249
79956SOL     OW41700  12.996   9.456  10.187
79956SOL    HW141701  13.038   9.516  10.125
79956SOL    HW241702  12.971   9.381  10.133
79957SOL     OW41703   0.541   2.302   3.645
79957SOL    HW141704   0.621   2.354   3.656
79957SOL    HW241705   0.472   2.358   3.680
79958SOL     OW41706   8.669  13.660   0.174
79958SOL    HW141707   8.650  13.578   0.130
79958SOL    HW241708   8.718  13.711   0.109
79959SOL     OW41709   5.864  12.172   5.874
79959SOL    HW141710   5.863  12.213   5.787
79959SOL    HW241711   5.903  12.239   5.931
79960SOL     OW41712  13.905   7.571   6.669
79960SOL    HW141713  13.954   7.653   6.661
79960SOL    HW241714  13.957   7.519   6.730
79961SOL     OW41715   7.470   4.676   9.425
79961SOL    HW141716   7.478   4.657   9.332
79961SOL    HW241717   7.487   4.592   9.468
79962SOL     OW41718   7.387  10.116   4.075
79962SOL    HW141719   7.386  10.079   3.987
79962SOL    HW241720   7.302  10.157   4.085
79963SOL     OW41721   1.718   9.199  11.889
79963SOL    HW141722   1.796   9.153  11.920
79963SOL    HW241723   1.652   9.183  11.957
79964SOL     OW41724  13.734   1.127   4.407
79964SOL    HW141725  13.659   1.085   4.364
79964SOL    HW241726  13.719   1.221   4.395
79965SOL     OW41727   7.247   5.041   2.529
79965SOL    HW141728   7.296   5.121   2.510
79965SOL    HW241729   7.296   5.000   2.601
79966SOL     OW41730   0.487   2.624   5.114
79966SOL    HW141731   0.414   2.662   5.065
79966SOL    HW241732   0.535   2.573   5.049
79967SOL     OW41733   6.421  12.668  13.967
79967SOL    HW141734   6.512  12.697  13.968
79967SOL    HW241735   6.384  12.700  14.050
79968SOL     OW41736   8.489   2.744   4.330
79968SOL    HW141737   8.420   2.807   4.312
79968SOL    HW241738   8.473   2.716   4.420
79969SOL     OW41739   9.135  11.112   4.356
79969SOL    HW141740   9.096  11.024   4.358
79969SOL    HW241741   9.215  11.101   4.305
79970SOL     OW41742   3.533   2.883   3.053
79970SOL    HW141743   3.456   2.829   3.034
79970SOL    HW241744   3.601   2.849   2.995
79971SOL     OW41745   1.931  12.717   1.952
79971SOL    HW141746   2.019  12.745   1.976
79971SOL    HW241747   1.928  12.725   1.857
79972SOL     OW41748   9.737  10.434   3.860
79972SOL    HW141749   9.760  10.345   3.830
79972SOL    HW241750   9.666  10.461   3.801
79973SOL     OW41751   8.202  14.639  12.879
79973SOL    HW141752   8.134  14.609  12.939
79973SOL    HW241753   8.251  14.561  12.856
79974SOL     OW41754  14.282  10.551   6.141
79974SOL    HW141755  14.248  10.471   6.181
79974SOL    HW241756  14.255  10.545   6.049
79975SOL     OW41757  10.554   6.972   2.945
79975SOL    HW141758  10.500   6.947   3.020
79975SOL    HW241759  10.600   7.051   2.975
79976SOL     OW41760  10.544  13.242   9.874
79976SOL    HW141761  10.561  13.302   9.946
79976SOL    HW241762  10.450  13.252   9.857
79977SOL     OW41763   5.731   5.965   1.796
79977SOL    HW141764   5.646   5.937   1.764
79977SOL    HW241765   5.762   6.029   1.731
79978SOL     OW41766   8.791   7.684   4.415
79978SOL    HW141767   8.789   7.666   4.509
79978SOL    HW241768   8.772   7.601   4.373
79979SOL     OW41769   7.333   9.154   3.311
79979SOL    HW141770   7.367   9.227   3.364
79979SOL    HW241771   7.252   9.187   3.273
79980SOL     OW41772   3.113   4.435   4.662
79980SOL    HW141773   3.181   4.378   4.627
79980SOL    HW241774   3.160   4.507   4.703
79981SOL     OW41775  13.947   6.254  14.369
79981SOL    HW141776  13.925   6.231  14.459
79981SOL    HW241777  13.880   6.316  14.342
79982SOL     OW41778   6.469  10.716  11.486
79982SOL    HW141779   6.486  10.622  11.491
79982SOL    HW241780   6.393  10.728  11.544
79983SOL     OW41781  13.424   8.685   4.953
79983SOL    HW141782  13.488   8.696   4.882
79983SOL    HW241783  13.386   8.772   4.964
79984SOL     OW41784   8.938   3.453  13.829
79984SOL    HW141785   8.950   3.415  13.742
79984SOL    HW241786   9.013   3.422  13.879
79985SOL     OW41787   8.135   9.324  11.976
79985SOL    HW141788   8.090   9.362  11.901
79985SOL    HW241789   8.097   9.369  12.052
79986SOL     OW41790   9.905   0.707   3.605
79986SOL    HW141791   9.907   0.802   3.598
79986SOL    HW241792   9.845   0.689   3.677
79987SOL     OW41793  10.979  14.713  11.201
79987SOL    HW141794  10.959  14.620  11.191
79987SOL    HW241795  10.997  14.724  11.294
79988SOL     OW41796   6.564   7.908   2.459
79988SOL    HW141797   6.475   7.939   2.446
79988SOL    HW241798   6.609   7.979   2.505
79989SOL     OW41799   6.143   3.456   5.319
79989SOL    HW141800   6.229   3.449   5.278
79989SOL    HW241801   6.094   3.382   5.283
79990SOL     OW41802   4.309   9.615   9.570
79990SOL    HW141803   4.373   9.544   9.575
79990SOL    HW241804   4.229   9.573   9.538
79991SOL     OW41805  12.495   6.601  13.409
79991SOL    HW141806  12.472   6.693  13.420
79991SOL    HW241807  12.550   6.599  13.330
79992SOL     OW41808   2.716   9.255  12.032
79992SOL    HW141809   2.805   9.262  11.995
79992SOL    HW241810   2.727   9.278  12.124
79993SOL     OW41811   6.739  11.934   3.896
79993SOL    HW141812   6.673  11.901   3.958
79993SOL    HW241813   6.748  11.864   3.831
79994SOL     OW41814   4.998  13.583  13.254
79994SOL    HW141815   4.906  13.607  13.248
79994SOL    HW241816   5.021  13.599  13.346
79995SOL     OW41817   5.466   9.246  10.665
79995SOL    HW141818   5.508   9.305  10.602
79995SOL    HW241819   5.379   9.230  10.629
79996SOL     OW41820   1.740  11.975   7.629
79996SOL    HW141821   1.762  11.886   7.603
79996SOL    HW241822   1.824  12.019   7.641
79997SOL     OW41823   4.674  11.782   3.535
79997SOL    HW141824   4.681  11.853   3.598
79997SOL    HW241825   4.632  11.821   3.458
79998SOL     OW41826  14.189  10.492   5.274
79998SOL    HW141827  14.264  10.452   5.318
79998SOL    HW241828  14.201  10.472   5.181
79999SOL     OW41829   2.975  13.882   2.614
79999SOL    HW141830   2.969  13.787   2.611
79999SOL    HW241831   2.988  13.902   2.707
80000SOL     OW41832   8.488   8.691   7.779
80000SOL    HW141833   8.515   8.699   7.688
80000SOL    HW241834   8.405   8.644   7.775
80001SOL     OW41835   4.496   4.387   5.224
80001SOL    HW141836   4.582   4.402   5.262
80001SOL    HW241837   4.435   4.387   5.298
80002SOL     OW41838   7.771  12.377   1.986
80002SOL    HW141839   7.726  12.458   1.961
80002SOL    HW241840   7.704  12.309   1.975
80003SOL     OW41841   0.720  13.779   7.457
80003SOL    HW141842   0.712  13.875   7.452
80003SOL    HW241843   0.814  13.763   7.457
80004SOL     OW41844   7.402   8.126  10.427
80004SOL    HW141845   7.368   8.038  10.447
80004SOL    HW241846   7.493   8.123  10.454
80005SOL     OW41847   1.399   3.706   4.831
80005SOL    HW141848   1.420   3.795   4.860
80005SOL    HW241849   1.333   3.718   4.762
80006SOL     OW41850   1.155   6.693   1.531
80006SOL    HW141851   1.120   6.737   1.609
80006SOL    HW241852   1.117   6.741   1.458
80007SOL     OW41853  12.382   7.173  12.633
80007SOL    HW141854  12.377   7.087  12.591
80007SOL    HW241855  12.415   7.155  12.721
80008SOL     OW41856   2.611  14.415   1.871
80008SOL    HW141857   2.673  14.367   1.816
80008SOL    HW241858   2.533  14.359   1.874
80009SOL     OW41859   3.708   4.970   8.585
80009SOL    HW141860   3.802   4.985   8.573
80009SOL    HW241861   3.666   5.043   8.539
80010SOL     OW41862   7.593   0.989  10.691
80010SOL    HW141863   7.595   1.060  10.755
80010SOL    HW241864   7.616   0.911  10.742
80011SOL     OW41865   9.146   4.344   1.740
80011SOL    HW141866   9.067   4.325   1.791
80011SOL    HW241867   9.138   4.288   1.663
80012SOL     OW41868   9.490  10.186  12.727
80012SOL    HW141869   9.517  10.121  12.662
80012SOL    HW241870   9.546  10.261  12.710
80013SOL     OW41871  10.645   5.750  13.511
80013SOL    HW141872  10.587   5.735  13.586
80013SOL    HW241873  10.689   5.665  13.498
80014SOL     OW41874   5.731   3.436   3.772
80014SOL    HW141875   5.708   3.408   3.683
80014SOL    HW241876   5.755   3.528   3.763
80015SOL     OW41877  10.847   6.125   3.154
80015SOL    HW141878  10.796   6.121   3.072
80015SOL    HW241879  10.913   6.192   3.137
80016SOL     OW41880   9.815  14.593   6.771
80016SOL    HW141881   9.909  14.588   6.786
80016SOL    HW241882   9.806  14.655   6.698
80017SOL     OW41883  13.427  10.802  10.367
80017SOL    HW141884  13.483  10.728  10.392
80017SOL    HW241885  13.379  10.769  10.290
80018SOL     OW41886   6.848   0.526  10.705
80018SOL    HW141887   6.785   0.454  10.696
80018SOL    HW241888   6.801   0.603  10.673
80019SOL     OW41889  10.553   2.326   1.475
80019SOL    HW141890  10.510   2.403   1.437
80019SOL    HW241891  10.646   2.349   1.474
80020SOL     OW41892   6.098  14.623  12.720
80020SOL    HW141893   6.085  14.599  12.812
80020SOL    HW241894   6.045  14.561  12.671
80021SOL     OW41895   7.786   9.385   9.386
80021SOL    HW141896   7.871   9.430   9.391
80021SOL    HW241897   7.801   9.300   9.427
80022SOL     OW41898   8.206   1.182  11.406
80022SOL    HW141899   8.138   1.127  11.368
80022SOL    HW241900   8.180   1.194  11.497
80023SOL     OW41901   1.375   4.743   0.519
80023SOL    HW141902   1.380   4.825   0.567
80023SOL    HW241903   1.466   4.723   0.497
80024SOL     OW41904   3.392   4.925   6.865
80024SOL    HW141905   3.446   4.996   6.897
80024SOL    HW241906   3.430   4.846   6.904
80025SOL     OW41907   8.059  14.727   0.030
80025SOL    HW141908   8.059  14.708   0.124
80025SOL    HW241909   7.989  14.792   0.019
80026SOL     OW41910   3.574  13.900   6.461
80026SOL    HW141911   3.564  13.806   6.480
80026SOL    HW241912   3.484  13.933   6.460
80027SOL     OW41913   2.334  14.187   3.553
80027SOL    HW141914   2.254  14.146   3.584
80027SOL    HW241915   2.318  14.204   3.460
80028SOL     OW41916  13.070  11.684   5.517
80028SOL    HW141917  13.154  11.647   5.543
80028SOL    HW241918  13.009  11.655   5.584
80029SOL     OW41919   6.705   7.531   3.919
80029SOL    HW141920   6.688   7.524   3.825
80029SOL    HW241921   6.618   7.537   3.958
80030SOL     OW41922  13.905  14.535   6.599
80030SOL    HW141923  13.892  14.497   6.512
80030SOL    HW241924  13.930  14.626   6.582
80031SOL     OW41925   6.436  14.117   9.425
80031SOL    HW141926   6.406  14.034   9.387
80031SOL    HW241927   6.529  14.121   9.403
80032SOL     OW41928  13.564   8.772  12.298
80032SOL    HW141929  13.493   8.827  12.263
80032SOL    HW241930  13.627   8.835  12.332
80033SOL     OW41931   1.352   9.872   2.172
80033SOL    HW141932   1.274   9.828   2.139
80033SOL    HW241933   1.349   9.959   2.134
80034SOL     OW41934   5.027  10.704   2.135
80034SOL    HW141935   5.075  10.696   2.053
80034SOL    HW241936   4.941  10.737   2.110
80035SOL     OW41937   7.333   1.122   4.394
80035SOL    HW141938   7.254   1.134   4.341
80035SOL    HW241939   7.398   1.089   4.332
80036SOL     OW41940   2.486   5.021   1.477
80036SOL    HW141941   2.394   4.999   1.461
80036SOL    HW241942   2.487   5.117   1.481
80037SOL     OW41943   9.919   2.182   4.008
80037SOL    HW141944   9.954   2.105   4.053
80037SOL    HW241945   9.843   2.208   4.060
80038SOL     OW41946   2.369   3.964  14.718
80038SOL    HW141947   2.286   3.916  14.708
80038SOL    HW241948   2.390   3.994  14.629
80039SOL     OW41949   0.033  13.524   5.559
80039SOL    HW141950   0.127  13.531   5.574
80039SOL    HW241951   0.012  13.432   5.576
80040SOL     OW41952   1.325   9.806   9.001
80040SOL    HW141953   1.300   9.798   8.909
80040SOL    HW241954   1.420   9.798   9.001
80041SOL     OW41955  12.007  10.150   6.680
80041SOL    HW141956  11.982  10.240   6.697
80041SOL    HW241957  12.059  10.154   6.600
80042SOL     OW41958  13.164   8.020   3.743
80042SOL    HW141959  13.138   7.941   3.790
80042SOL    HW241960  13.093   8.082   3.758
80043SOL     OW41961   0.864   0.058   8.655
80043SOL    HW141962   0.853  14.842   8.663
80043SOL    HW241963   0.930   0.069   8.587
80044SOL     OW41964   8.472   7.317   7.768
80044SOL    HW141965   8.484   7.311   7.673
80044SOL    HW241966   8.554   7.354   7.800
80045SOL     OW41967   6.438   8.120   9.732
80045SOL    HW141968   6.346   8.135   9.756
80045SOL    HW241969   6.480   8.205   9.742
80046SOL     OW41970  13.967  12.934   8.919
80046SOL    HW141971  14.052  12.976   8.933
80046SOL    HW241972  13.941  12.962   8.831
80047SOL     OW41973   1.388  13.699  11.732
80047SOL    HW141974   1.334  13.765  11.687
80047SOL    HW241975   1.375  13.718  11.825
80048SOL     OW41976   9.846   5.332  10.831
80048SOL    HW141977   9.785   5.278  10.780
80048SOL    HW241978   9.932   5.295  10.812
80049SOL     OW41979  10.455   6.971   9.880
80049SOL    HW141980  10.449   6.900   9.944
80049SOL    HW241981  10.365   6.995   9.861
80050SOL     OW41982   6.142  11.755   6.439
80050SOL    HW141983   6.141  11.660   6.431
80050SOL    HW241984   6.145  11.771   6.533
80051SOL     OW41985   3.692  12.872   7.802
80051SOL    HW141986   3.703  12.777   7.806
80051SOL    HW241987   3.780  12.907   7.812
80052SOL     OW41988   6.425   9.701   5.713
80052SOL    HW141989   6.504   9.661   5.678
80052SOL    HW241990   6.402   9.646   5.788
80053SOL     OW41991   5.762   5.781  10.898
80053SOL    HW141992   5.831   5.721  10.927
80053SOL    HW241993   5.691   5.768  10.960
80054SOL     OW41994   6.789  14.691   9.977
80054SOL    HW141995   6.827  14.603   9.989
80054SOL    HW241996   6.861  14.751   9.998
80055SOL     OW41997  13.987   6.639   3.992
80055SOL    HW141998  13.956   6.625   4.081
80055SOL    HW241999  14.035   6.559   3.970
80056SOL     OW42000   7.977  10.975  14.056
80056SOL    HW142001   8.032  10.952  14.131
80056SOL    HW242002   8.007  11.063  14.031
80057SOL     OW42003   3.885   6.925  12.130
80057SOL    HW142004   3.883   7.017  12.155
80057SOL    HW242005   3.899   6.926  12.035
80058SOL     OW42006   8.213   6.991   6.052
80058SOL    HW142007   8.145   6.926   6.032
80058SOL    HW242008   8.169   7.054   6.108
80059SOL     OW42009  12.816   7.534  11.923
80059SOL    HW142010  12.798   7.622  11.890
80059SOL    HW242011  12.837   7.548  12.016
80060SOL     OW42012  10.618   3.977   5.992
80060SOL    HW142013  10.585   3.895   6.029
80060SOL    HW242014  10.554   4.042   6.018
80061SOL     OW42015   9.573   7.638   2.459
80061SOL    HW142016   9.479   7.643   2.442
80061SOL    HW242017   9.579   7.625   2.554
80062SOL     OW42018  13.258  11.463   7.915
80062SOL    HW142019  13.352  11.446   7.917
80062SOL    HW242020  13.225  11.426   7.997
80063SOL     OW42021  14.394   8.845   9.639
80063SOL    HW142022  14.413   8.939   9.638
80063SOL    HW242023  14.460   8.809   9.698
80064SOL     OW42024   2.856   2.040   3.641
80064SOL    HW142025   2.924   2.023   3.707
80064SOL    HW242026   2.819   1.954   3.622
80065SOL     OW42027  13.621   6.870  13.997
80065SOL    HW142028  13.529   6.897  14.001
80065SOL    HW242029  13.656   6.891  14.084
80066SOL     OW42030   2.521  13.360   8.794
80066SOL    HW142031   2.613  13.336   8.808
80066SOL    HW242032   2.472  13.281   8.819
80067SOL     OW42033   2.519   3.477   2.168
80067SOL    HW142034   2.592   3.415   2.174
80067SOL    HW242035   2.454   3.444   2.229
80068SOL     OW42036   7.763   2.327   1.750
80068SOL    HW142037   7.779   2.415   1.717
80068SOL    HW242038   7.838   2.307   1.805
80069SOL     OW42039  12.627   0.651  12.518
80069SOL    HW142040  12.601   0.572  12.565
80069SOL    HW242041  12.573   0.652  12.439
80070SOL     OW42042   4.484   6.008  13.712
80070SOL    HW142043   4.537   6.014  13.792
80070SOL    HW242044   4.508   6.085  13.661
80071SOL     OW42045   0.490  11.838   5.719
80071SOL    HW142046   0.539  11.758   5.742
80071SOL    HW242047   0.548  11.909   5.746
80072SOL     OW42048   5.574   9.091  14.103
80072SOL    HW142049   5.567   9.183  14.077
80072SOL    HW242050   5.542   9.089  14.193
80073SOL     OW42051   4.048   2.182  13.592
80073SOL    HW142052   4.138   2.167  13.620
80073SOL    HW242053   4.052   2.188  13.497
80074SOL     OW42054  14.158   8.137   2.925
80074SOL    HW142055  14.071   8.106   2.950
80074SOL    HW242056  14.218   8.095   2.986
80075SOL     OW42057   0.962   6.969   3.958
80075SOL    HW142058   0.903   6.943   4.028
80075SOL    HW242059   0.963   7.065   3.962
80076SOL     OW42060   9.312   2.749   0.157
80076SOL    HW142061   9.293   2.680   0.094
80076SOL    HW242062   9.232   2.801   0.160
80077SOL     OW42063  12.559   7.638   4.852
80077SOL    HW142064  12.505   7.717   4.860
80077SOL    HW242065  12.536   7.602   4.766
80078SOL     OW42066   4.001   0.188   1.599
80078SOL    HW142067   3.975   0.278   1.620
80078SOL    HW242068   4.043   0.195   1.514
80079SOL     OW42069   7.884  12.253  11.118
80079SOL    HW142070   7.913  12.163  11.129
80079SOL    HW242071   7.907  12.296  11.200
80080SOL     OW42072   8.344   4.553   2.604
80080SOL    HW142073   8.409   4.496   2.645
80080SOL    HW242074   8.274   4.561   2.668
80081SOL     OW42075  10.997   4.888   9.080
80081SOL    HW142076  11.047   4.828   9.026
80081SOL    HW242077  10.906   4.876   9.052
80082SOL     OW42078  11.728   8.084   8.007
80082SOL    HW142079  11.788   8.048   8.073
80082SOL    HW242080  11.647   8.034   8.018
80083SOL     OW42081  12.697  11.456   1.892
80083SOL    HW142082  12.756  11.531   1.903
80083SOL    HW242083  12.750  11.380   1.916
80084SOL     OW42084   5.686   0.967  13.641
80084SOL    HW142085   5.735   0.885  13.649
80084SOL    HW242086   5.599   0.941  13.610
80085SOL     OW42087   4.536   4.868   7.634
80085SOL    HW142088   4.555   4.776   7.651
80085SOL    HW242089   4.440   4.874   7.639
80086SOL     OW42090   4.784   9.550   8.291
80086SOL    HW142091   4.804   9.632   8.246
80086SOL    HW242092   4.708   9.515   8.245
80087SOL     OW42093   6.639   6.815  11.617
80087SOL    HW142094   6.627   6.725  11.648
80087SOL    HW242095   6.724   6.815  11.573
80088SOL     OW42096   3.393  14.679   5.912
80088SOL    HW142097   3.342  14.758   5.927
80088SOL    HW242098   3.481  14.700   5.945
80089SOL     OW42099   4.004  10.330  12.810
80089SOL    HW142100   4.024  10.411  12.858
80089SOL    HW242101   4.068  10.328  12.739
80090SOL     OW42102   6.645  14.016  11.986
80090SOL    HW142103   6.740  14.033  11.986
80090SOL    HW242104   6.621  14.017  11.894
80091SOL     OW42105   9.026   6.714  14.872
80091SOL    HW142106   9.007   6.676   0.079
80091SOL    HW242107   9.037   6.639  14.814
80092SOL     OW42108   1.684   6.917   1.578
80092SOL    HW142109   1.637   6.836   1.558
80092SOL    HW242110   1.621   6.968   1.631
80093SOL     OW42111   1.455   6.450   8.407
80093SOL    HW142112   1.474   6.528   8.459
80093SOL    HW242113   1.529   6.441   8.347
80094SOL     OW42114  14.853  12.176  14.525
80094SOL    HW142115  14.770  12.132  14.502
80094SOL    HW242116   0.030  12.106  14.558
80095SOL     OW42117   2.727   4.059   5.776
80095SOL    HW142118   2.654   4.079   5.835
80095SOL    HW242119   2.801   4.107   5.813
80096SOL     OW42120   7.238   4.184  10.647
80096SOL    HW142121   7.259   4.159  10.736
80096SOL    HW242122   7.308   4.244  10.621
80097SOL     OW42123   8.822  11.117  14.580
80097SOL    HW142124   8.804  11.142  14.671
80097SOL    HW242125   8.860  11.030  14.586
80098SOL     OW42126   9.786   0.470  10.180
80098SOL    HW142127   9.811   0.441  10.092
80098SOL    HW242128   9.739   0.552  10.166
80099SOL     OW42129   7.608   0.982   2.026
80099SOL    HW142130   7.595   0.956   1.935
80099SOL    HW242131   7.703   0.990   2.035
80100SOL     OW42132   9.086   0.242   4.369
80100SOL    HW142133   9.119   0.188   4.298
80100SOL    HW242134   9.124   0.204   4.448
80101SOL     OW42135   1.082   1.825  14.342
80101SOL    HW142136   1.080   1.900  14.402
80101SOL    HW242137   1.155   1.771  14.374
80102SOL     OW42138  11.547   0.980  13.738
80102SOL    HW142139  11.476   0.999  13.677
80102SOL    HW242140  11.622   0.960  13.682
80103SOL     OW42141   3.206   8.217   4.191
80103SOL    HW142142   3.172   8.189   4.106
80103SOL    HW242143   3.292   8.176   4.196
80104SOL     OW42144   8.679   9.796  11.255
80104SOL    HW142145   8.666   9.743  11.177
80104SOL    HW242146   8.644   9.882  11.232
80105SOL     OW42147   2.387   3.300   6.715
80105SOL    HW142148   2.312   3.270   6.663
80105SOL    HW242149   2.395   3.235   6.785
80106SOL     OW42150   1.833   1.799  12.890
80106SOL    HW142151   1.899   1.866  12.872
80106SOL    HW242152   1.879   1.716  12.878
80107SOL     OW42153  10.475   5.927   1.457
80107SOL    HW142154  10.528   5.891   1.386
80107SOL    HW242155  10.440   6.009   1.422
80108SOL     OW42156   5.896  11.707   5.786
80108SOL    HW142157   5.964  11.696   5.719
80108SOL    HW242158   5.922  11.786   5.834
80109SOL     OW42159   5.070  13.350   0.228
80109SOL    HW142160   5.070  13.259   0.258
80109SOL    HW242161   4.994  13.357   0.171
80110SOL     OW42162  11.954   3.985   8.303
80110SOL    HW142163  11.988   4.027   8.224
80110SOL    HW242164  11.955   3.892   8.283
80111SOL     OW42165   4.661   9.056   5.138
80111SOL    HW142166   4.747   9.084   5.172
80111SOL    HW242167   4.600   9.076   5.208
80112SOL     OW42168   1.694  11.628  13.446
80112SOL    HW142169   1.646  11.592  13.520
80112SOL    HW242170   1.750  11.555  13.417
80113SOL     OW42171   8.890   9.502   0.976
80113SOL    HW142172   8.865   9.458   1.057
80113SOL    HW242173   8.973   9.461   0.951
80114SOL     OW42174   0.212   2.490   6.939
80114SOL    HW142175   0.296   2.516   6.975
80114SOL    HW242176   0.230   2.466   6.848
80115SOL     OW42177  11.444   1.945  11.279
80115SOL    HW142178  11.376   1.880  11.259
80115SOL    HW242179  11.522   1.892  11.296
80116SOL     OW42180   4.957  12.347  14.109
80116SOL    HW142181   4.910  12.270  14.142
80116SOL    HW242182   5.040  12.312  14.076
80117SOL     OW42183   4.134   5.278  13.393
80117SOL    HW142184   4.184   5.224  13.454
80117SOL    HW242185   4.122   5.361  13.440
80118SOL     OW42186   9.014  11.293   9.369
80118SOL    HW142187   9.027  11.205   9.404
80118SOL    HW242188   9.102  11.327   9.354
80119SOL     OW42189   8.349   4.274   2.048
80119SOL    HW142190   8.352   4.263   1.953
80119SOL    HW242191   8.296   4.353   2.061
80120SOL     OW42192  13.582   9.632   4.356
80120SOL    HW142193  13.506   9.581   4.382
80120SOL    HW242194  13.637   9.636   4.434
80121SOL     OW42195   2.332  12.033   3.246
80121SOL    HW142196   2.423  12.019   3.271
80121SOL    HW242197   2.289  11.950   3.264
80122SOL     OW42198   5.035  14.661   6.115
80122SOL    HW142199   4.952  14.692   6.081
80122SOL    HW242200   5.100  14.722   6.079
80123SOL     OW42201   5.693   5.260   0.158
80123SOL    HW142202   5.753   5.186   0.147
80123SOL    HW242203   5.635   5.255   0.082
80124SOL     OW42204   6.568  11.505  10.993
80124SOL    HW142205   6.540  11.500  10.901
80124SOL    HW242206   6.489  11.529  11.041
80125SOL     OW42207   0.985   6.609   8.499
80125SOL    HW142208   0.917   6.543   8.493
80125SOL    HW242209   0.937   6.692   8.511
80126SOL     OW42210   1.077  13.836   9.032
80126SOL    HW142211   1.097  13.922   8.994
80126SOL    HW242212   1.097  13.774   8.962
80127SOL     OW42213  11.749  11.773  13.867
80127SOL    HW142214  11.674  11.743  13.919
80127SOL    HW242215  11.818  11.788  13.932
80128SOL     OW42216   4.442   0.525   8.803
80128SOL    HW142217   4.464   0.576   8.725
80128SOL    HW242218   4.524   0.482   8.828
80129SOL     OW42219   9.483  13.188  12.125
80129SOL    HW142220   9.545  13.209  12.195
80129SOL    HW242221   9.405  13.239  12.145
80130SOL     OW42222  14.483   2.226  12.926
80130SOL    HW142223  14.412   2.216  12.989
80130SOL    HW242224  14.558   2.184  12.968
80131SOL     OW42225   3.868   0.406   6.557
80131SOL    HW142226   3.882   0.376   6.647
80131SOL    HW242227   3.940   0.366   6.508
80132SOL     OW42228   4.345  14.611   8.250
80132SOL    HW142229   4.403  14.589   8.177
80132SOL    HW242230   4.350  14.706   8.257
80133SOL     OW42231   1.365   9.148   7.588
80133SOL    HW142232   1.460   9.155   7.595
80133SOL    HW242233   1.336   9.129   7.678
80134SOL     OW42234   4.589   1.669   4.564
80134SOL    HW142235   4.574   1.631   4.651
80134SOL    HW242236   4.676   1.639   4.540
80135SOL     OW42237   0.555   7.356   6.585
80135SOL    HW142238   0.568   7.403   6.667
80135SOL    HW242239   0.635   7.373   6.535
80136SOL     OW42240  14.849   9.715   6.226
80136SOL    HW142241  14.803   9.791   6.191
80136SOL    HW242242   0.062   9.730   6.205
80137SOL     OW42243   6.812  14.616   7.634
80137SOL    HW142244   6.812  14.522   7.613
80137SOL    HW242245   6.877  14.653   7.574
80138SOL     OW42246  10.139   4.619  11.615
80138SOL    HW142247  10.078   4.564  11.565
80138SOL    HW242248  10.125   4.707  11.581
80139SOL     OW42249  11.965  13.387   5.638
80139SOL    HW142250  11.969  13.429   5.724
80139SOL    HW242251  12.011  13.304   5.650
80140SOL     OW42252  12.650   9.408   3.925
80140SOL    HW142253  12.588   9.358   3.977
80140SOL    HW242254  12.614   9.408   3.836
80141SOL     OW42255   1.565   6.746   7.679
80141SOL    HW142256   1.649   6.712   7.649
80141SOL    HW242257   1.544   6.693   7.756
80142SOL     OW42258   9.541   9.729   1.948
80142SOL    HW142259   9.635   9.731   1.930
80142SOL    HW242260   9.532   9.674   2.026
80143SOL     OW42261   5.978   1.873   0.591
80143SOL    HW142262   5.936   1.791   0.616
80143SOL    HW242263   6.072   1.857   0.603
80144SOL     OW42264   2.310   9.322   4.744
80144SOL    HW142265   2.294   9.306   4.837
80144SOL    HW242266   2.289   9.414   4.731
80145SOL     OW42267  13.533   4.091   8.980
80145SOL    HW142268  13.470   4.074   9.050
80145SOL    HW242269  13.619   4.084   9.021
80146SOL     OW42270   6.802   9.271   3.746
80146SOL    HW142271   6.773   9.282   3.655
80146SOL    HW242272   6.725   9.242   3.793
80147SOL     OW42273  14.592  12.122   3.948
80147SOL    HW142274  14.515  12.173   3.973
80147SOL    HW242275  14.555  12.046   3.903
80148SOL     OW42276  13.776   4.913   9.940
80148SOL    HW142277  13.770   4.967   9.860
80148SOL    HW242278  13.806   4.974  10.007
80149SOL     OW42279  14.188  12.173   1.397
80149SOL    HW142280  14.242  12.160   1.475
80149SOL    HW242281  14.110  12.217   1.429
80150SOL     OW42282   1.576  10.270   0.369
80150SOL    HW142283   1.522  10.196   0.398
80150SOL    HW242284   1.577  10.263   0.274
80151SOL     OW42285   0.857  12.165   0.127
80151SOL    HW142286   0.835  12.232   0.063
80151SOL    HW242287   0.790  12.098   0.116
80152SOL     OW42288   9.494  11.959   8.180
80152SOL    HW142289   9.497  11.868   8.207
80152SOL    HW242290   9.508  12.009   8.260
80153SOL     OW42291   1.021   1.609   5.521
80153SOL    HW142292   1.088   1.664   5.563
80153SOL    HW242293   0.984   1.664   5.452
80154SOL     OW42294   9.894   7.696  13.253
80154SOL    HW142295   9.956   7.681  13.181
80154SOL    HW242296   9.886   7.611  13.296
80155SOL     OW42297   1.509   0.796  13.507
80155SOL    HW142298   1.551   0.807  13.592
80155SOL    HW242299   1.579   0.806  13.443
80156SOL     OW42300  10.321   7.301   7.023
80156SOL    HW142301  10.320   7.239   7.096
80156SOL    HW242302  10.250   7.362   7.042
80157SOL     OW42303  12.224   0.400  13.879
80157SOL    HW142304  12.262   0.321  13.841
80157SOL    HW242305  12.134   0.403  13.844
80158SOL     OW42306   5.496   1.369   7.892
80158SOL    HW142307   5.529   1.454   7.865
80158SOL    HW242308   5.563   1.334   7.951
80159SOL     OW42309  10.540   6.340   2.558
80159SOL    HW142310  10.588   6.294   2.627
80159SOL    HW242311  10.575   6.429   2.559
80160SOL     OW42312   5.583   2.577  10.441
80160SOL    HW142313   5.522   2.505  10.457
80160SOL    HW242314   5.527   2.651  10.419
80161SOL     OW42315  10.699  13.743  11.459
80161SOL    HW142316  10.715  13.723  11.367
80161SOL    HW242317  10.750  13.823  11.475
80162SOL     OW42318  14.346   1.484   0.180
80162SOL    HW142319  14.384   1.571   0.188
80162SOL    HW242320  14.421   1.425   0.180
80163SOL     OW42321   2.059  11.357   6.810
80163SOL    HW142322   1.974  11.362   6.767
80163SOL    HW242323   2.097  11.275   6.777
80164SOL     OW42324   1.591   5.999   6.881
80164SOL    HW142325   1.528   6.048   6.829
80164SOL    HW242326   1.667   6.057   6.887
80165SOL     OW42327  14.631   3.589   8.689
80165SOL    HW142328  14.719   3.564   8.716
80165SOL    HW242329  14.604   3.656   8.752
80166SOL     OW42330   0.474  14.861   4.465
80166SOL    HW142331   0.445  14.855   4.374
80166SOL    HW242332   0.430  14.788   4.509
80167SOL     OW42333   1.218   6.471   1.703
80167SOL    HW142334   1.213   6.390   1.653
80167SOL    HW242335   1.198   6.540   1.639
80168SOL     OW42336   4.547   4.028  10.951
80168SOL    HW142337   4.513   4.070  11.030
80168SOL    HW242338   4.630   4.072  10.934
80169SOL     OW42339  12.418   8.146  12.640
80169SOL    HW142340  12.484   8.151  12.709
80169SOL    HW242341  12.397   8.053  12.633
80170SOL     OW42342   3.499   1.918   4.176
80170SOL    HW142343   3.590   1.914   4.145
80170SOL    HW242344   3.490   1.841   4.232
80171SOL     OW42345  13.742   1.765   1.281
80171SOL    HW142346  13.817   1.802   1.327
80171SOL    HW242347  13.668   1.782   1.339
80172SOL     OW42348   4.492   1.871   5.300
80172SOL    HW142349   4.484   1.918   5.217
80172SOL    HW242350   4.498   1.779   5.275
80173SOL     OW42351   4.665   9.346   5.575
80173SOL    HW142352   4.632   9.284   5.640
80173SOL    HW242353   4.759   9.350   5.590
80174SOL     OW42354   3.554  11.149   0.217
80174SOL    HW142355   3.631  11.202   0.235
80174SOL    HW242356   3.576  11.101   0.137
80175SOL     OW42357   7.376  11.594  10.731
80175SOL    HW142358   7.423  11.529  10.679
80175SOL    HW242359   7.445  11.647  10.771
80176SOL     OW42360  10.217   1.379   7.073
80176SOL    HW142361  10.125   1.403   7.058
80176SOL    HW242362  10.229   1.298   7.022
80177SOL     OW42363  13.676   9.311   6.457
80177SOL    HW142364  13.593   9.331   6.415
80177SOL    HW242365  13.741   9.360   6.406
80178SOL     OW42366  12.092   4.107   4.848
80178SOL    HW142367  12.041   4.097   4.928
80178SOL    HW242368  12.109   4.017   4.819
80179SOL     OW42369  13.011  12.473   7.507
80179SOL    HW142370  12.985  12.420   7.583
80179SOL    HW242371  13.012  12.411   7.434
80180SOL     OW42372   3.101   2.523   2.504
80180SOL    HW142373   3.067   2.467   2.435
80180SOL    HW242374   3.087   2.473   2.585
80181SOL     OW42375   8.840   2.627   3.381
80181SOL    HW142376   8.830   2.709   3.334
80181SOL    HW242377   8.878   2.567   3.316
80182SOL     OW42378   6.197   2.250   9.695
80182SOL    HW142379   6.162   2.163   9.671
80182SOL    HW242380   6.276   2.230   9.745
80183SOL     OW42381  13.431   6.979   5.606
80183SOL    HW142382  13.389   7.055   5.565
80183SOL    HW242383  13.450   6.920   5.533
80184SOL     OW42384  13.447  11.228   1.086
80184SOL    HW142385  13.523  11.282   1.105
80184SOL    HW242386  13.460  11.197   0.996
80185SOL     OW42387  11.522  10.775   4.643
80185SOL    HW142388  11.601  10.826   4.623
80185SOL    HW242389  11.475  10.769   4.560
80186SOL     OW42390  12.090   7.064   9.316
80186SOL    HW142391  12.081   6.974   9.284
80186SOL    HW242392  12.001   7.099   9.312
80187SOL     OW42393   6.052   6.442   5.070
80187SOL    HW142394   6.092   6.461   5.154
80187SOL    HW242395   6.008   6.524   5.045
80188SOL     OW42396  12.605   1.699   5.014
80188SOL    HW142397  12.624   1.711   5.107
80188SOL    HW242398  12.510   1.688   5.011
80189SOL     OW42399   9.777  13.943   3.012
80189SOL    HW142400   9.853  13.990   2.978
80189SOL    HW242401   9.813  13.882   3.076
80190SOL     OW42402   9.986   2.642  10.688
80190SOL    HW142403  10.001   2.733  10.661
80190SOL    HW242404   9.952   2.599  10.609
80191SOL     OW42405   2.736   0.202   5.832
80191SOL    HW142406   2.671   0.161   5.889
80191SOL    HW242407   2.736   0.294   5.859
80192SOL     OW42408   4.985   6.691   3.753
80192SOL    HW142409   4.912   6.730   3.705
80192SOL    HW242410   4.960   6.599   3.763
80193SOL     OW42411   0.699   0.625  13.032
80193SOL    HW142412   0.633   0.563  13.000
80193SOL    HW242413   0.722   0.593  13.119
80194SOL     OW42414  11.924  14.281  13.452
80194SOL    HW142415  11.871  14.217  13.404
80194SOL    HW242416  11.922  14.360  13.397
80195SOL     OW42417   2.201   3.748  10.167
80195SOL    HW142418   2.216   3.654  10.159
80195SOL    HW242419   2.106   3.756  10.176
80196SOL     OW42420  13.593  13.969  13.413
80196SOL    HW142421  13.612  13.876  13.430
80196SOL    HW242422  13.499  13.972  13.398
80197SOL     OW42423  14.854   7.060  13.865
80197SOL    HW142424  14.835   7.144  13.907
80197SOL    HW242425  14.864   7.082  13.772
80198SOL     OW42426   5.083  13.744  10.160
80198SOL    HW142427   5.062  13.748  10.067
80198SOL    HW242428   5.050  13.659  10.189
80199SOL     OW42429  13.984  13.258  12.120
80199SOL    HW142430  14.050  13.197  12.088
80199SOL    HW242431  14.033  13.325  12.168
80200SOL     OW42432  10.462   1.882  11.286
80200SOL    HW142433  10.500   1.801  11.320
80200SOL    HW242434  10.387   1.899  11.344
80201SOL     OW42435   4.296   0.221  11.664
80201SOL    HW142436   4.271   0.201  11.754
80201SOL    HW242437   4.280   0.315  11.655
80202SOL     OW42438   5.844  10.953   5.915
80202SOL    HW142439   5.895  10.874   5.897
80202SOL    HW242440   5.769  10.922   5.966
80203SOL     OW42441  11.567   2.549   1.013
80203SOL    HW142442  11.584   2.480   0.949
80203SOL    HW242443  11.614   2.625   0.980
80204SOL     OW42444   5.622  12.910  13.481
80204SOL    HW142445   5.674  12.893  13.403
80204SOL    HW242446   5.614  13.005  13.485
80205SOL     OW42447   6.619   4.437  10.527
80205SOL    HW142448   6.658   4.481  10.602
80205SOL    HW242449   6.546   4.493  10.501
80206SOL     OW42450   7.379  11.330  10.074
80206SOL    HW142451   7.332  11.291  10.001
80206SOL    HW242452   7.406  11.416  10.043
80207SOL     OW42453  13.803  11.083  13.925
80207SOL    HW142454  13.727  11.025  13.921
80207SOL    HW242455  13.863  11.040  13.986
80208SOL     OW42456   7.463   9.232   4.020
80208SOL    HW142457   7.414   9.172   3.965
80208SOL    HW242458   7.497   9.298   3.959
80209SOL     OW42459   1.703  13.326   0.730
80209SOL    HW142460   1.712  13.289   0.642
80209SOL    HW242461   1.726  13.418   0.719
80210SOL     OW42462   8.336   4.167  10.250
80210SOL    HW142463   8.329   4.263  10.242
80210SOL    HW242464   8.427   4.148  10.228
80211SOL     OW42465   5.025  14.036   5.239
80211SOL    HW142466   4.938  14.078   5.239
80211SOL    HW242467   5.077  14.089   5.299
80212SOL     OW42468   0.010  12.201   2.818
80212SOL    HW142469  14.826  12.265   2.783
80212SOL    HW242470  14.835  12.145   2.875
80213SOL     OW42471   9.798  11.456   4.405
80213SOL    HW142472   9.809  11.474   4.499
80213SOL    HW242473   9.732  11.387   4.401
80214SOL     OW42474   0.752  12.779   7.112
80214SOL    HW142475   0.802  12.724   7.052
80214SOL    HW242476   0.812  12.850   7.135
80215SOL     OW42477   3.242  14.127   6.382
80215SOL    HW142478   3.196  14.106   6.300
80215SOL    HW242479   3.235  14.047   6.434
80216SOL     OW42480  11.810   7.477   4.099
80216SOL    HW142481  11.738   7.480   4.035
80216SOL    HW242482  11.875   7.539   4.064
80217SOL     OW42483  11.133  10.020  10.291
80217SOL    HW142484  11.203   9.974  10.337
80217SOL    HW242485  11.053   9.988  10.332
80218SOL     OW42486   7.565  14.676   9.614
80218SOL    HW142487   7.650  14.649   9.581
80218SOL    HW242488   7.517  14.706   9.537
80219SOL     OW42489   1.068   1.980  10.590
80219SOL    HW142490   1.164   1.969  10.594
80219SOL    HW242491   1.036   1.940  10.670
80220SOL     OW42492   9.950   6.751   6.228
80220SOL    HW142493  10.012   6.681   6.247
80220SOL    HW242494   9.993   6.803   6.160
80221SOL     OW42495   3.100   1.338  10.931
80221SOL    HW142496   3.022   1.348  10.876
80221SOL    HW242497   3.066   1.322  11.019
80222SOL     OW42498   1.531   1.375   8.846
80222SOL    HW142499   1.508   1.369   8.939
80222SOL    HW242500   1.525   1.469   8.826
80223SOL     OW42501   1.324   1.516   1.963
80223SOL    HW142502   1.315   1.555   2.050
80223SOL    HW242503   1.234   1.503   1.934
80224SOL     OW42504   1.281   8.607  10.215
80224SOL    HW142505   1.324   8.539  10.164
80224SOL    HW242506   1.330   8.687  10.195
80225SOL     OW42507  14.260   2.817   8.208
80225SOL    HW142508  14.181   2.783   8.167
80225SOL    HW242509  14.248   2.801   8.301
80226SOL     OW42510   7.519  12.364   0.225
80226SOL    HW142511   7.548  12.371   0.134
80226SOL    HW242512   7.433  12.406   0.226
80227SOL     OW42513   1.836   2.595   4.798
80227SOL    HW142514   1.851   2.518   4.743
80227SOL    HW242515   1.788   2.563   4.874
80228SOL     OW42516  10.625   2.490   9.692
80228SOL    HW142517  10.671   2.491   9.776
80228SOL    HW242518  10.690   2.517   9.628
80229SOL     OW42519   6.191   7.004   6.556
80229SOL    HW142520   6.256   7.032   6.621
80229SOL    HW242521   6.232   6.930   6.511
80230SOL     OW42522  14.657   0.356  12.024
80230SOL    HW142523  14.727   0.338  12.087
80230SOL    HW242524  14.636   0.272  11.985
80231SOL     OW42525   0.412   6.931  14.710
80231SOL    HW142526   0.391   6.971  14.625
80231SOL    HW242527   0.464   6.854  14.688
80232SOL     OW42528  11.212  10.557   7.060
80232SOL    HW142529  11.192  10.543   6.967
80232SOL    HW242530  11.291  10.504   7.075
80233SOL     OW42531   1.881   1.401   3.515
80233SOL    HW142532   1.920   1.468   3.459
80233SOL    HW242533   1.791   1.430   3.529
80234SOL     OW42534   8.960  11.761  14.631
80234SOL    HW142535   9.013  11.746  14.552
80234SOL    HW242536   8.939  11.854  14.629
80235SOL     OW42537   2.807   1.063  13.759
80235SOL    HW142538   2.856   1.029  13.834
80235SOL    HW242539   2.717   1.033  13.774
80236SOL     OW42540   2.265   2.964  12.860
80236SOL    HW142541   2.225   2.958  12.947
80236SOL    HW242542   2.276   2.873  12.833
80237SOL     OW42543   7.305   0.759  10.789
80237SOL    HW142544   7.219   0.769  10.749
80237SOL    HW242545   7.356   0.710  10.724
80238SOL     OW42546  11.419   6.777   5.696
80238SOL    HW142547  11.410   6.851   5.756
80238SOL    HW242548  11.514   6.762   5.690
80239SOL     OW42549  12.225   7.917  11.833
80239SOL    HW142550  12.249   7.849  11.897
80239SOL    HW242551  12.301   7.924  11.776
80240SOL     OW42552  10.869   9.252   3.984
80240SOL    HW142553  10.876   9.228   4.077
80240SOL    HW242554  10.899   9.342   3.980
80241SOL     OW42555   5.070   1.791   4.489
80241SOL    HW142556   5.077   1.876   4.445
80241SOL    HW242557   4.992   1.751   4.450
80242SOL     OW42558   6.234  12.730   1.610
80242SOL    HW142559   6.319  12.765   1.638
80242SOL    HW242560   6.214  12.777   1.529
80243SOL     OW42561  10.298   7.495  11.517
80243SOL    HW142562  10.333   7.570  11.564
80243SOL    HW242563  10.301   7.520  11.425
80244SOL     OW42564   8.844  13.331  10.559
80244SOL    HW142565   8.823  13.264  10.493
80244SOL    HW242566   8.896  13.395  10.511
80245SOL     OW42567  10.488   6.906   2.557
80245SOL    HW142568  10.565   6.880   2.505
80245SOL    HW242569  10.498   7.000   2.569
80246SOL     OW42570  12.182  10.679   0.245
80246SOL    HW142571  12.113  10.683   0.311
80246SOL    HW242572  12.152  10.734   0.174
80247SOL     OW42573   7.319   9.286   9.921
80247SOL    HW142574   7.248   9.274   9.984
80247SOL    HW242575   7.275   9.309   9.839
80248SOL     OW42576   9.425   8.343  11.459
80248SOL    HW142577   9.454   8.337  11.368
80248SOL    HW242578   9.486   8.288  11.507
80249SOL     OW42579  13.520   1.385  14.733
80249SOL    HW142580  13.475   1.302  14.712
80249SOL    HW242581  13.458   1.453  14.705
80250SOL     OW42582   1.660   1.193   2.430
80250SOL    HW142583   1.571   1.162   2.417
80250SOL    HW242584   1.658   1.285   2.404
80251SOL     OW42585   8.717   2.148   2.105
80251SOL    HW142586   8.735   2.242   2.114
80251SOL    HW242587   8.674   2.124   2.187
80252SOL     OW42588   0.905  12.388   1.421
80252SOL    HW142589   0.983  12.433   1.391
80252SOL    HW242590   0.880  12.330   1.349
80253SOL     OW42591  10.357   3.411  12.575
80253SOL    HW142592  10.306   3.379  12.649
80253SOL    HW242593  10.438   3.361  12.577
80254SOL     OW42594   7.323   8.941   0.272
80254SOL    HW142595   7.293   8.853   0.249
80254SOL    HW242596   7.271   8.999   0.217
80255SOL     OW42597   8.399   4.544  11.457
80255SOL    HW142598   8.479   4.556  11.508
80255SOL    HW242599   8.423   4.572  11.369
80256SOL     OW42600  11.575   8.702   3.893
80256SOL    HW142601  11.529   8.622   3.869
80256SOL    HW242602  11.638   8.716   3.821
80257SOL     OW42603   7.053  12.499  13.256
80257SOL    HW142604   7.113  12.476  13.326
80257SOL    HW242605   6.966  12.474  13.289
80258SOL     OW42606   1.173   7.033   9.158
80258SOL    HW142607   1.187   7.049   9.251
80258SOL    HW242608   1.094   7.082   9.137
80259SOL     OW42609  11.206  13.465   6.692
80259SOL    HW142610  11.182  13.375   6.671
80259SOL    HW242611  11.276  13.457   6.758
80260SOL     OW42612   7.443   9.778   1.901
80260SOL    HW142613   7.352   9.775   1.873
80260SOL    HW242614   7.475   9.688   1.890
80261SOL     OW42615   0.207  14.273  11.923
80261SOL    HW142616   0.167  14.359  11.932
80261SOL    HW242617   0.299  14.292  11.904
80262SOL     OW42618   5.997   0.873  11.867
80262SOL    HW142619   6.093   0.875  11.871
80262SOL    HW242620   5.977   0.883  11.774
80263SOL     OW42621   3.094  11.518   4.387
80263SOL    HW142622   3.145  11.526   4.467
80263SOL    HW242623   3.017  11.467   4.413
80264SOL     OW42624  13.849   4.887   6.652
80264SOL    HW142625  13.781   4.844   6.704
80264SOL    HW242626  13.927   4.832   6.663
80265SOL     OW42627   0.228  14.106  14.070
80265SOL    HW142628   0.265  14.035  14.018
80265SOL    HW242629   0.181  14.160  14.006
80266SOL     OW42630  10.794   8.803  12.889
80266SOL    HW142631  10.818   8.856  12.965
80266SOL    HW242632  10.753   8.865  12.829
80267SOL     OW42633   3.671  12.505   3.991
80267SOL    HW142634   3.698  12.415   3.976
80267SOL    HW242635   3.702  12.526   4.079
80268SOL     OW42636   4.691   8.800   5.918
80268SOL    HW142637   4.767   8.767   5.870
80268SOL    HW242638   4.696   8.757   6.003
80269SOL     OW42639  13.415   3.644   0.007
80269SOL    HW142640  13.426   3.738   0.022
80269SOL    HW242641  13.326   3.626   0.038
80270SOL     OW42642   4.097   7.539   1.327
80270SOL    HW142643   4.026   7.565   1.267
80270SOL    HW242644   4.166   7.603   1.312
80271SOL     OW42645   7.097  10.318  10.774
80271SOL    HW142646   7.024  10.307  10.835
80271SOL    HW242647   7.108  10.413  10.767
80272SOL     OW42648   2.955   0.455   7.814
80272SOL    HW142649   3.047   0.480   7.818
80272SOL    HW242650   2.926   0.452   7.905
80273SOL     OW42651   9.954   8.826   3.072
80273SOL    HW142652   9.885   8.806   3.007
80273SOL    HW242653   9.986   8.912   3.047
80274SOL     OW42654   0.502  12.704   8.495
80274SOL    HW142655   0.595  12.698   8.473
80274SOL    HW242656   0.498  12.766   8.568
80275SOL     OW42657   2.685   9.636   0.343
80275SOL    HW142658   2.696   9.587   0.262
80275SOL    HW242659   2.623   9.706   0.321
80276SOL     OW42660  10.642  14.228   1.251
80276SOL    HW142661  10.730  14.242   1.284
80276SOL    HW242662  10.585  14.273   1.314
80277SOL     OW42663  10.049  12.881   3.100
80277SOL    HW142664   9.995  12.854   3.026
80277SOL    HW242665  10.105  12.806   3.117
80278SOL     OW42666   8.074   6.362   3.701
80278SOL    HW142667   8.150   6.409   3.734
80278SOL    HW242668   8.091   6.353   3.607
80279SOL     OW42669   3.578   3.889   0.977
80279SOL    HW142670   3.629   3.832   0.920
80279SOL    HW242671   3.536   3.830   1.039
80280SOL     OW42672  13.860  12.533   4.004
80280SOL    HW142673  13.785  12.592   4.006
80280SOL    HW242674  13.906  12.551   4.086
80281SOL     OW42675   4.913   6.021  13.528
80281SOL    HW142676   4.845   5.993  13.467
80281SOL    HW242677   4.952   5.940  13.559
80282SOL     OW42678  10.754   9.374   3.529
80282SOL    HW142679  10.779   9.282   3.517
80282SOL    HW242680  10.745   9.408   3.441
80283SOL     OW42681  13.557   3.029  12.531
80283SOL    HW142682  13.576   3.122  12.526
80283SOL    HW242683  13.632   2.991  12.577
80284SOL     OW42684  12.868   0.654   3.643
80284SOL    HW142685  12.892   0.573   3.689
80284SOL    HW242686  12.866   0.630   3.551
80285SOL     OW42687   6.834   9.294   9.558
80285SOL    HW142688   6.838   9.234   9.633
80285SOL    HW242689   6.773   9.362   9.585
80286SOL     OW42690   8.221   9.493   0.948
80286SOL    HW142691   8.202   9.413   0.997
80286SOL    HW242692   8.176   9.562   0.995
80287SOL     OW42693  12.689   0.972   6.567
80287SOL    HW142694  12.755   1.040   6.561
80287SOL    HW242695  12.716   0.919   6.642
80288SOL     OW42696   1.281   1.909   8.856
80288SOL    HW142697   1.275   1.907   8.761
80288SOL    HW242698   1.356   1.854   8.877
80289SOL     OW42699   5.344   7.194   2.192
80289SOL    HW142700   5.410   7.252   2.152
80289SOL    HW242701   5.268   7.201   2.134
80290SOL     OW42702  14.240   4.121   7.523
80290SOL    HW142703  14.210   4.059   7.589
80290SOL    HW242704  14.316   4.080   7.483
80291SOL     OW42705  13.289   9.762   0.736
80291SOL    HW142706  13.195   9.778   0.729
80291SOL    HW242707  13.303   9.679   0.691
80292SOL     OW42708   7.350   2.312   8.515
80292SOL    HW142709   7.331   2.405   8.505
80292SOL    HW242710   7.263   2.271   8.522
80293SOL     OW42711   6.454   2.788   3.020
80293SOL    HW142712   6.432   2.744   3.103
80293SOL    HW242713   6.456   2.881   3.042
80294SOL     OW42714  12.123   3.431  12.883
80294SOL    HW142715  12.098   3.479  12.804
80294SOL    HW242716  12.201   3.477  12.914
80295SOL     OW42717  11.010   4.894   7.468
80295SOL    HW142718  11.102   4.901   7.493
80295SOL    HW242719  11.011   4.837   7.391
80296SOL     OW42720  12.726   8.339   7.108
80296SOL    HW142721  12.778   8.344   7.189
80296SOL    HW242722  12.636   8.353   7.137
80297SOL     OW42723   4.584   4.255  10.542
80297SOL    HW142724   4.601   4.346  10.515
80297SOL    HW242725   4.489   4.251  10.551
80298SOL     OW42726   2.128  12.388  12.563
80298SOL    HW142727   2.181  12.439  12.503
80298SOL    HW242728   2.184  12.372  12.639
80299SOL     OW42729   6.108   7.127   5.583
80299SOL    HW142730   6.202   7.146   5.577
80299SOL    HW242731   6.081   7.168   5.666
80300SOL     OW42732   7.885   7.014  10.843
80300SOL    HW142733   7.879   7.005  10.748
80300SOL    HW242734   7.795   7.005  10.874
80301SOL     OW42735   6.480  10.383   5.263
80301SOL    HW142736   6.476  10.288   5.276
80301SOL    HW242737   6.430  10.398   5.182
80302SOL     OW42738  13.959   2.993   0.534
80302SOL    HW142739  13.921   3.079   0.518
80302SOL    HW242740  13.901   2.952   0.597
80303SOL     OW42741  11.252   6.799   0.706
80303SOL    HW142742  11.249   6.779   0.800
80303SOL    HW242743  11.191   6.871   0.695
80304SOL     OW42744   1.854   0.276   9.443
80304SOL    HW142745   1.881   0.359   9.484
80304SOL    HW242746   1.936   0.231   9.425
80305SOL     OW42747   5.278  10.133   8.293
80305SOL    HW142748   5.346  10.201   8.294
80305SOL    HW242749   5.196  10.182   8.299
80306SOL     OW42750  12.800   8.226  12.895
80306SOL    HW142751  12.892   8.241  12.918
80306SOL    HW242752  12.802   8.206  12.801
80307SOL     OW42753  13.432  14.737  14.458
80307SOL    HW142754  13.413  14.676  14.387
80307SOL    HW242755  13.499  14.694  14.510
80308SOL     OW42756  14.166  12.386   5.066
80308SOL    HW142757  14.187  12.296   5.043
80308SOL    HW242758  14.249  12.425   5.091
80309SOL     OW42759   4.607   6.223   9.386
80309SOL    HW142760   4.566   6.185   9.464
80309SOL    HW242761   4.574   6.313   9.383
80310SOL     OW42762  13.286  12.547   7.169
80310SOL    HW142763  13.307  12.494   7.246
80310SOL    HW242764  13.297  12.637   7.197
80311SOL     OW42765  13.041  13.090   6.738
80311SOL    HW142766  12.964  13.121   6.689
80311SOL    HW242767  13.023  12.997   6.754
80312SOL     OW42768  13.420   0.716  13.969
80312SOL    HW142769  13.341   0.665  13.951
80312SOL    HW242770  13.416   0.788  13.907
80313SOL     OW42771   7.447  12.149  14.692
80313SOL    HW142772   7.406  12.103  14.765
80313SOL    HW242773   7.504  12.083  14.652
80314SOL     OW42774   1.105   0.044   5.170
80314SOL    HW142775   1.031   0.058   5.228
80314SOL    HW242776   1.067   0.042   5.082
80315SOL     OW42777   0.492  10.101   1.122
80315SOL    HW142778   0.455  10.189   1.130
80315SOL    HW242779   0.439  10.059   1.054
80316SOL     OW42780  10.139   5.325   0.289
80316SOL    HW142781  10.133   5.319   0.193
80316SOL    HW242782  10.196   5.252   0.314
80317SOL     OW42783  11.643   4.056  12.637
80317SOL    HW142784  11.639   3.983  12.575
80317SOL    HW242785  11.563   4.106  12.620
80318SOL     OW42786   2.853   0.437   5.660
80318SOL    HW142787   2.818   0.491   5.731
80318SOL    HW242788   2.792   0.452   5.587
80319SOL     OW42789  10.422   8.793   0.783
80319SOL    HW142790  10.480   8.754   0.718
80319SOL    HW242791  10.334   8.775   0.750
80320SOL     OW42792   3.359   8.976   0.340
80320SOL    HW142793   3.435   8.972   0.398
80320SOL    HW242794   3.286   8.999   0.397
80321SOL     OW42795   4.070   0.438  10.133
80321SOL    HW142796   4.083   0.519  10.182
80321SOL    HW242797   4.119   0.371  10.182
80322SOL     OW42798  10.807   2.730   6.378
80322SOL    HW142799  10.852   2.658   6.333
80322SOL    HW242800  10.731   2.748   6.323
80323SOL     OW42801   4.383   0.280   7.122
80323SOL    HW142802   4.359   0.250   7.210
80323SOL    HW242803   4.314   0.244   7.065
80324SOL     OW42804   1.934   6.824   8.795
80324SOL    HW142805   1.975   6.830   8.709
80324SOL    HW242806   1.860   6.884   8.791
80325SOL     OW42807   2.199   1.217  13.529
80325SOL    HW142808   2.161   1.254  13.450
80325SOL    HW242809   2.139   1.243  13.599
80326SOL     OW42810  10.218   4.473   8.014
80326SOL    HW142811  10.280   4.527   8.064
80326SOL    HW242812  10.176   4.418   8.080
80327SOL     OW42813  14.330  13.857   9.423
80327SOL    HW142814  14.306  13.821   9.508
80327SOL    HW242815  14.409  13.909   9.440
80328SOL     OW42816   7.044   6.438  14.291
80328SOL    HW142817   7.136   6.455  14.313
80328SOL    HW242818   7.008   6.525  14.273
80329SOL     OW42819   0.590   7.257  11.999
80329SOL    HW142820   0.638   7.323  11.949
80329SOL    HW242821   0.650   7.183  12.004
80330SOL     OW42822   5.130   5.461   9.957
80330SOL    HW142823   5.137   5.366   9.966
80330SOL    HW242824   5.108   5.475   9.865
80331SOL     OW42825  12.878   4.329  10.080
80331SOL    HW142826  12.968   4.346  10.053
80331SOL    HW242827  12.853   4.406  10.131
80332SOL     OW42828  10.548  14.294   7.040
80332SOL    HW142829  10.465  14.247   7.027
80332SOL    HW242830  10.574  14.321   6.952
80333SOL     OW42831  12.976  13.760   5.240
80333SOL    HW142832  12.898  13.806   5.208
80333SOL    HW242833  12.962  13.669   5.214
80334SOL     OW42834   6.257   0.836  11.720
80334SOL    HW142835   6.253   0.741  11.734
80334SOL    HW242836   6.322   0.866  11.783
80335SOL     OW42837  10.228  11.698   4.730
80335SOL    HW142838  10.238  11.624   4.671
80335SOL    HW242839  10.271  11.671   4.811
80336SOL     OW42840  11.098   9.289   8.874
80336SOL    HW142841  11.159   9.257   8.807
80336SOL    HW242842  11.154   9.305   8.950
80337SOL     OW42843  10.165   9.989   3.276
80337SOL    HW142844  10.150   9.918   3.339
80337SOL    HW242845  10.168  10.068   3.329
80338SOL     OW42846   4.520   1.249   7.858
80338SOL    HW142847   4.456   1.198   7.808
80338SOL    HW242848   4.474   1.328   7.884
80339SOL     OW42849   9.877   2.442  12.975
80339SOL    HW142850   9.934   2.429  12.899
80339SOL    HW242851   9.908   2.378  13.039
80340SOL     OW42852   9.022  13.941   0.099
80340SOL    HW142853   9.077  13.913   0.173
80340SOL    HW242854   9.058  13.893   0.024
80341SOL     OW42855   2.539  14.300   6.122
80341SOL    HW142856   2.617  14.262   6.163
80341SOL    HW242857   2.468  14.240   6.146
80342SOL     OW42858  13.155  10.547   7.307
80342SOL    HW142859  13.198  10.628   7.279
80342SOL    HW242860  13.199  10.478   7.258
80343SOL     OW42861   1.351   0.884  10.037
80343SOL    HW142862   1.262   0.851  10.025
80343SOL    HW242863   1.375   0.856  10.125
80344SOL     OW42864   2.306  13.803   4.487
80344SOL    HW142865   2.362  13.875   4.518
80344SOL    HW242866   2.245  13.845   4.426
80345SOL     OW42867   3.358   3.402   4.657
80345SOL    HW142868   3.405   3.460   4.597
80345SOL    HW242869   3.345   3.321   4.606
80346SOL     OW42870  11.865   5.502  14.159
80346SOL    HW142871  11.795   5.445  14.128
80346SOL    HW242872  11.934   5.441  14.186
80347SOL     OW42873   0.797   4.844   8.112
80347SOL    HW142874   0.820   4.934   8.137
80347SOL    HW242875   0.868   4.816   8.055
80348SOL     OW42876   9.775   5.222  11.536
80348SOL    HW142877   9.739   5.157  11.475
80348SOL    HW242878   9.786   5.301  11.483
80349SOL     OW42879  14.008   7.597   0.387
80349SOL    HW142880  14.052   7.616   0.304
80349SOL    HW242881  14.078   7.602   0.452
80350SOL     OW42882  11.344   7.562   1.535
80350SOL    HW142883  11.321   7.595   1.622
80350SOL    HW242884  11.349   7.640   1.480
80351SOL     OW42885   5.275   5.512   2.103
80351SOL    HW142886   5.213   5.495   2.174
80351SOL    HW242887   5.259   5.604   2.079
80352SOL     OW42888   7.778   8.005   0.183
80352SOL    HW142889   7.686   7.984   0.196
80352SOL    HW242890   7.793   7.993   0.089
80353SOL     OW42891   3.603   7.500   9.653
80353SOL    HW142892   3.637   7.432   9.595
80353SOL    HW242893   3.679   7.528   9.704
80354SOL     OW42894   0.486  14.377  11.839
80354SOL    HW142895   0.547  14.306  11.860
80354SOL    HW242896   0.482  14.378  11.744
80355SOL     OW42897  13.537   3.099  14.861
80355SOL    HW142898  13.530   3.179   0.034
80355SOL    HW242899  13.599   3.044   0.030
80356SOL     OW42900   7.124   8.738  12.530
80356SOL    HW142901   7.080   8.689  12.600
80356SOL    HW242902   7.054   8.784  12.485
80357SOL     OW42903   5.804   1.442   4.615
80357SOL    HW142904   5.718   1.402   4.603
80357SOL    HW242905   5.822   1.434   4.708
80358SOL     OW42906   1.160   7.657  11.290
80358SOL    HW142907   1.160   7.622  11.201
80358SOL    HW242908   1.253   7.661  11.314
80359SOL     OW42909   9.098   9.907   5.391
80359SOL    HW142910   9.115   9.853   5.468
80359SOL    HW242911   9.035   9.973   5.420
80360SOL     OW42912   1.143  11.584   1.374
80360SOL    HW142913   1.186  11.621   1.297
80360SOL    HW242914   1.087  11.654   1.407
80361SOL     OW42915   9.549  14.284   7.468
80361SOL    HW142916   9.549  14.364   7.415
80361SOL    HW242917   9.494  14.223   7.419
80362SOL     OW42918   3.271   0.565   9.323
80362SOL    HW142919   3.322   0.611   9.390
80362SOL    HW242920   3.335   0.541   9.256
80363SOL     OW42921   6.239   5.912  10.996
80363SOL    HW142922   6.176   5.975  11.030
80363SOL    HW242923   6.191   5.829  10.992
80364SOL     OW42924   4.100   1.599   5.112
80364SOL    HW142925   4.153   1.677   5.126
80364SOL    HW242926   4.096   1.589   5.017
80365SOL     OW42927   2.977   6.550  12.035
80365SOL    HW142928   2.986   6.481  12.101
80365SOL    HW242929   2.977   6.503  11.952
80366SOL     OW42930   7.718   5.574   5.646
80366SOL    HW142931   7.780   5.644   5.626
80366SOL    HW242932   7.699   5.534   5.561
80367SOL     OW42933  12.400   6.532   5.972
80367SOL    HW142934  12.488   6.496   5.960
80367SOL    HW242935  12.377   6.509   6.062
80368SOL     OW42936  13.438  11.149   7.981
80368SOL    HW142937  13.471  11.239   7.971
80368SOL    HW242938  13.346  11.155   7.955
80369SOL     OW42939   5.417   2.243  11.557
80369SOL    HW142940   5.427   2.332  11.522
80369SOL    HW242941   5.505   2.206  11.554
80370SOL     OW42942   5.383  13.975   3.567
80370SOL    HW142943   5.475  13.974   3.595
80370SOL    HW242944   5.375  14.057   3.517
80371SOL     OW42945   8.009   3.134   5.693
80371SOL    HW142946   8.014   3.228   5.712
80371SOL    HW242947   8.100   3.107   5.681
80372SOL     OW42948  10.836   7.894   2.582
80372SOL    HW142949  10.797   7.881   2.495
80372SOL    HW242950  10.790   7.832   2.639
80373SOL     OW42951   4.036   3.402  10.211
80373SOL    HW142952   3.983   3.449  10.276
80373SOL    HW242953   4.118   3.384  10.255
80374SOL     OW42954   0.957   8.346   3.386
80374SOL    HW142955   1.045   8.347   3.347
80374SOL    HW242956   0.930   8.438   3.387
80375SOL     OW42957  12.606   5.077   7.714
80375SOL    HW142958  12.645   5.137   7.777
80375SOL    HW242959  12.681   5.033   7.674
80376SOL     OW42960   1.083   1.981   5.650
80376SOL    HW142961   1.063   2.017   5.736
80376SOL    HW242962   1.127   2.052   5.604
80377SOL     OW42963   4.731  10.933   1.011
80377SOL    HW142964   4.725  10.847   1.052
80377SOL    HW242965   4.717  10.918   0.918
80378SOL     OW42966   3.966  10.583  12.970
80378SOL    HW142967   3.919  10.631  12.902
80378SOL    HW242968   3.914  10.597  13.049
80379SOL     OW42969   5.019   8.822  11.855
80379SOL    HW142970   5.030   8.913  11.883
80379SOL    HW242971   5.034   8.823  11.761
80380SOL     OW42972   0.992  10.550   2.751
80380SOL    HW142973   1.060  10.591   2.697
80380SOL    HW242974   0.928  10.619   2.767
80381SOL     OW42975   1.931  13.426   3.041
80381SOL    HW142976   1.961  13.402   3.129
80381SOL    HW242977   1.917  13.342   2.997
80382SOL     OW42978   0.281   3.953   6.263
80382SOL    HW142979   0.352   4.007   6.228
80382SOL    HW242980   0.296   3.952   6.358
80383SOL     OW42981  14.867  10.999  12.408
80383SOL    HW142982  14.851  10.926  12.468
80383SOL    HW242983   0.040  11.061  12.460
80384SOL     OW42984   5.190   1.578   4.655
80384SOL    HW142985   5.193   1.659   4.605
80384SOL    HW242986   5.166   1.511   4.591
80385SOL     OW42987   9.882   0.550   5.213
80385SOL    HW142988   9.901   0.462   5.179
80385SOL    HW242989   9.806   0.579   5.162
80386SOL     OW42990  11.978  12.359  14.159
80386SOL    HW142991  11.912  12.355  14.090
80386SOL    HW242992  11.930  12.334  14.239
80387SOL     OW42993   5.414  13.669   3.684
80387SOL    HW142994   5.411  13.626   3.598
80387SOL    HW242995   5.483  13.735   3.675
80388SOL     OW42996   1.122   9.130   9.608
80388SOL    HW142997   1.213   9.131   9.637
80388SOL    HW242998   1.110   9.214   9.564
80389SOL     OW42999  13.337  14.484   2.020
80389SOL    HW143000  13.381  14.497   2.104
80389SOL    HW243001  13.358  14.563   1.970
80390SOL     OW43002   8.045   2.049   1.336
80390SOL    HW143003   8.048   2.003   1.252
80390SOL    HW243004   8.091   2.131   1.320
80391SOL     OW43005   2.839  10.954   9.413
80391SOL    HW143006   2.785  10.969   9.336
80391SOL    HW243007   2.785  10.900   9.471
80392SOL     OW43008   4.049   7.082   4.481
80392SOL    HW143009   3.988   7.154   4.497
80392SOL    HW243010   3.994   7.005   4.467
80393SOL     OW43011   0.095  10.734  11.754
80393SOL    HW143012   0.144  10.810  11.785
80393SOL    HW243013   0.131  10.716  11.667
80394SOL     OW43014  11.156   9.468   4.570
80394SOL    HW143015  11.093   9.468   4.642
80394SOL    HW243016  11.168   9.561   4.549
80395SOL     OW43017   4.345  11.453  12.547
80395SOL    HW143018   4.402  11.386  12.510
80395SOL    HW243019   4.347  11.438  12.641
80396SOL     OW43020   4.398   4.491  13.546
80396SOL    HW143021   4.401   4.587  13.539
80396SOL    HW243022   4.484   4.462  13.518
80397SOL     OW43023  12.482  11.333   2.167
80397SOL    HW143024  12.475  11.237   2.166
80397SOL    HW243025  12.576  11.349   2.178
80398SOL     OW43026   4.007  12.375   9.110
80398SOL    HW143027   4.021  12.390   9.017
80398SOL    HW243028   4.035  12.285   9.124
80399SOL     OW43029   6.649   5.417  14.116
80399SOL    HW143030   6.704   5.445  14.043
80399SOL    HW243031   6.694   5.340  14.152
80400SOL     OW43032   6.466   3.580   2.169
80400SOL    HW143033   6.448   3.529   2.248
80400SOL    HW243034   6.386   3.573   2.117
80401SOL     OW43035   6.018   7.254   4.060
80401SOL    HW143036   6.009   7.222   3.970
80401SOL    HW243037   6.020   7.175   4.113
80402SOL     OW43038   8.321   9.280   7.572
80402SOL    HW143039   8.394   9.226   7.541
80402SOL    HW243040   8.257   9.217   7.603
80403SOL     OW43041   5.766   9.163   0.277
80403SOL    HW143042   5.763   9.213   0.358
80403SOL    HW243043   5.837   9.100   0.290
80404SOL     OW43044   2.715   5.727   9.357
80404SOL    HW143045   2.647   5.757   9.417
80404SOL    HW243046   2.770   5.669   9.410
80405SOL     OW43047   1.643   3.096   1.999
80405SOL    HW143048   1.643   3.128   1.909
80405SOL    HW243049   1.712   3.145   2.043
80406SOL     OW43050   9.135   1.763   7.269
80406SOL    HW143051   9.086   1.844   7.255
80406SOL    HW243052   9.068   1.697   7.288
80407SOL     OW43053  10.271   2.347   1.238
80407SOL    HW143054  10.344   2.288   1.222
80407SOL    HW243055  10.311   2.426   1.275
80408SOL     OW43056  13.356   5.572  12.694
80408SOL    HW143057  13.347   5.646  12.634
80408SOL    HW243058  13.426   5.520  12.657
80409SOL     OW43059   3.243  10.513   6.286
80409SOL    HW143060   3.197  10.450   6.231
80409SOL    HW243061   3.267  10.464   6.365
80410SOL     OW43062  12.784   2.554   5.509
80410SOL    HW143063  12.849   2.523   5.572
80410SOL    HW243064  12.736   2.622   5.556
80411SOL     OW43065   3.540   6.364  10.282
80411SOL    HW143066   3.584   6.314  10.212
80411SOL    HW243067   3.447   6.352  10.265
80412SOL     OW43068  11.822   1.041  10.459
80412SOL    HW143069  11.767   1.097  10.404
80412SOL    HW243070  11.853   1.099  10.528
80413SOL     OW43071  11.927   0.758  10.735
80413SOL    HW143072  11.998   0.720  10.786
80413SOL    HW243073  11.928   0.851  10.757
80414SOL     OW43074   9.305   0.429   2.996
80414SOL    HW143075   9.327   0.430   2.903
80414SOL    HW243076   9.372   0.484   3.037
80415SOL     OW43077  10.038   4.729  13.577
80415SOL    HW143078  10.001   4.682  13.652
80415SOL    HW243079  10.095   4.796  13.617
80416SOL     OW43080  12.348   9.456  12.247
80416SOL    HW143081  12.350   9.552  12.245
80416SOL    HW243082  12.432   9.431  12.284
80417SOL     OW43083  14.877   9.807  14.798
80417SOL    HW143084  14.791   9.790  14.759
80417SOL    HW243085   0.044   9.723  14.793
80418SOL     OW43086   9.620  11.855   3.731
80418SOL    HW143087   9.589  11.929   3.783
80418SOL    HW243088   9.553  11.845   3.663
80419SOL     OW43089  10.412   9.094   8.276
80419SOL    HW143090  10.399   9.012   8.323
80419SOL    HW243091  10.487   9.136   8.319
80420SOL     OW43092   1.593  13.487  10.753
80420SOL    HW143093   1.623  13.443  10.833
80420SOL    HW243094   1.500  13.502  10.768
80421SOL     OW43095   9.486   6.706  14.074
80421SOL    HW143096   9.493   6.639  14.007
80421SOL    HW243097   9.539   6.674  14.146
80422SOL     OW43098   5.145  13.971   8.563
80422SOL    HW143099   5.130  14.036   8.493
80422SOL    HW243100   5.163  14.024   8.641
80423SOL     OW43101   7.404   4.753   7.094
80423SOL    HW143102   7.327   4.805   7.074
80423SOL    HW243103   7.455   4.807   7.154
80424SOL     OW43104   8.042   2.431   2.025
80424SOL    HW143105   8.084   2.464   2.104
80424SOL    HW243106   8.024   2.339   2.044
80425SOL     OW43107   8.589  12.650   5.816
80425SOL    HW143108   8.676  12.612   5.803
80425SOL    HW243109   8.606  12.741   5.838
80426SOL     OW43110  14.809  12.199   7.937
80426SOL    HW143111   0.007  12.152   7.906
80426SOL    HW243112  14.818  12.198   8.033
80427SOL     OW43113   9.589   1.715   0.452
80427SOL    HW143114   9.645   1.789   0.429
80427SOL    HW243115   9.559   1.680   0.368
80428SOL     OW43116   0.526   6.789   7.160
80428SOL    HW143117   0.533   6.760   7.070
80428SOL    HW243118   0.469   6.724   7.202
80429SOL     OW43119   5.862   6.201  10.523
80429SOL    HW143120   5.811   6.121  10.511
80429SOL    HW243121   5.806   6.270  10.486
80430SOL     OW43122  12.053   3.974   2.616
80430SOL    HW143123  12.133   3.961   2.668
80430SOL    HW243124  11.999   3.897   2.637
80431SOL     OW43125   2.845   8.520   9.162
80431SOL    HW143126   2.920   8.489   9.213
80431SOL    HW243127   2.794   8.441   9.145
80432SOL     OW43128   0.224   2.046   6.978
80432SOL    HW143129   0.157   2.073   6.915
80432SOL    HW243130   0.216   2.110   7.049
80433SOL     OW43131  10.244   0.692   7.095
80433SOL    HW143132  10.151   0.677   7.079
80433SOL    HW243133  10.288   0.667   7.014
80434SOL     OW43134   1.129   8.933   5.501
80434SOL    HW143135   1.175   8.854   5.473
80434SOL    HW243136   1.148   8.941   5.594
80435SOL     OW43137   7.649  11.037  13.064
80435SOL    HW143138   7.634  10.949  13.029
80435SOL    HW243139   7.737  11.059  13.036
80436SOL     OW43140  11.598   7.456   9.876
80436SOL    HW143141  11.635   7.458   9.964
80436SOL    HW243142  11.563   7.544   9.862
80437SOL     OW43143   5.530  13.595   5.552
80437SOL    HW143144   5.441  13.610   5.521
80437SOL    HW243145   5.556  13.679   5.592
80438SOL     OW43146   8.648   6.755  14.285
80438SOL    HW143147   8.679   6.686  14.227
80438SOL    HW243148   8.708   6.828  14.271
80439SOL     OW43149   5.012  14.849   8.299
80439SOL    HW143150   4.948  14.832   8.367
80439SOL    HW243151   5.096  14.850   8.344
80440SOL     OW43152  10.455   4.517   7.211
80440SOL    HW143153  10.399   4.479   7.144
80440SOL    HW243154  10.543   4.489   7.187
80441SOL     OW43155   6.445  10.610   2.278
80441SOL    HW143156   6.486  10.582   2.359
80441SOL    HW243157   6.473  10.545   2.213
80442SOL     OW43158   4.444  13.411   9.905
80442SOL    HW143159   4.484  13.498   9.906
80442SOL    HW243160   4.507  13.355   9.949
80443SOL     OW43161  10.678   8.104   3.501
80443SOL    HW143162  10.642   8.030   3.452
80443SOL    HW243163  10.698   8.069   3.587
80444SOL     OW43164   6.449   6.926  13.815
80444SOL    HW143165   6.534   6.902  13.777
80444SOL    HW243166   6.472   6.980  13.891
80445SOL     OW43167  13.810   8.564  14.579
80445SOL    HW143168  13.869   8.507  14.529
80445SOL    HW243169  13.837   8.653  14.556
80446SOL     OW43170   4.596   7.655  13.215
80446SOL    HW143171   4.526   7.620  13.159
80446SOL    HW243172   4.581   7.749  13.216
80447SOL     OW43173  13.652  11.259  12.878
80447SOL    HW143174  13.705  11.193  12.922
80447SOL    HW243175  13.562  11.238  12.902
80448SOL     OW43176   3.633   6.782   4.163
80448SOL    HW143177   3.602   6.799   4.074
80448SOL    HW243178   3.561   6.808   4.219
80449SOL     OW43179  10.387   0.724   6.262
80449SOL    HW143180  10.480   0.708   6.244
80449SOL    HW243181  10.343   0.648   6.222
80450SOL     OW43182   3.087  10.990   1.201
80450SOL    HW143183   3.043  11.054   1.145
80450SOL    HW243184   3.029  10.981   1.276
80451SOL     OW43185   0.738  14.245  10.763
80451SOL    HW143186   0.764  14.214  10.677
80451SOL    HW243187   0.810  14.303  10.790
80452SOL     OW43188   8.114   3.642   1.404
80452SOL    HW143189   8.090   3.554   1.376
80452SOL    HW243190   8.081   3.700   1.335
80453SOL     OW43191   2.553   7.566   1.520
80453SOL    HW143192   2.593   7.538   1.602
80453SOL    HW243193   2.461   7.580   1.541
80454SOL     OW43194   7.420  11.585   8.522
80454SOL    HW143195   7.453  11.496   8.520
80454SOL    HW243196   7.344  11.582   8.581
80455SOL     OW43197  12.835   9.529   2.790
80455SOL    HW143198  12.860   9.547   2.880
80455SOL    HW243199  12.753   9.480   2.797
80456SOL     OW43200   7.464   5.836   0.915
80456SOL    HW143201   7.390   5.893   0.935
80456SOL    HW243202   7.541   5.894   0.922
80457SOL     OW43203   8.291   2.710   3.265
80457SOL    HW143204   8.345   2.761   3.204
80457SOL    HW243205   8.338   2.628   3.277
80458SOL     OW43206   1.972   5.635  12.212
80458SOL    HW143207   1.884   5.673  12.211
80458SOL    HW243208   2.031   5.710  12.222
80459SOL     OW43209  11.469   8.555   2.605
80459SOL    HW143210  11.412   8.567   2.529
80459SOL    HW243211  11.440   8.473   2.644
80460SOL     OW43212   9.344  10.082   8.327
80460SOL    HW143213   9.283  10.009   8.334
80460SOL    HW243214   9.426  10.050   8.364
80461SOL     OW43215   6.769  14.398   9.034
80461SOL    HW143216   6.744  14.484   8.998
80461SOL    HW243217   6.852  14.377   8.992
80462SOL     OW43218   0.188   3.639  11.137
80462SOL    HW143219   0.112   3.697  11.125
80462SOL    HW243220   0.151   3.551  11.130
80463SOL     OW43221  13.722  13.895   5.343
80463SOL    HW143222  13.801  13.878   5.293
80463SOL    HW243223  13.651  13.859   5.289
80464SOL     OW43224  11.995  14.364  14.831
80464SOL    HW143225  12.023  14.455  14.841
80464SOL    HW243226  12.026  14.339  14.744
80465SOL     OW43227   3.294   4.376  12.928
80465SOL    HW143228   3.304   4.339  12.840
80465SOL    HW243229   3.336   4.313  12.986
80466SOL     OW43230   3.228   8.572   1.650
80466SOL    HW143231   3.142   8.613   1.663
80466SOL    HW243232   3.259   8.608   1.567
80467SOL     OW43233   9.910   3.264   8.996
80467SOL    HW143234   9.888   3.182   8.951
80467SOL    HW243235   9.913   3.329   8.926
80468SOL     OW43236   7.852   4.521   5.960
80468SOL    HW143237   7.815   4.479   6.038
80468SOL    HW243238   7.917   4.457   5.928
80469SOL     OW43239   0.003  11.463  10.153
80469SOL    HW143240   0.089  11.500  10.172
80469SOL    HW243241  14.843  11.447  10.239
80470SOL     OW43242   4.471   5.198  13.035
80470SOL    HW143243   4.438   5.284  13.007
80470SOL    HW243244   4.449   5.139  12.963
80471SOL     OW43245  10.653   6.522   5.738
80471SOL    HW143246  10.722   6.511   5.803
80471SOL    HW243247  10.630   6.615   5.743
80472SOL     OW43248  12.082   2.158   9.949
80472SOL    HW143249  12.156   2.116   9.903
80472SOL    HW243250  12.072   2.243   9.906
80473SOL     OW43251   9.792   4.731   5.489
80473SOL    HW143252   9.701   4.759   5.498
80473SOL    HW243253   9.787   4.635   5.482
80474SOL     OW43254   3.865   0.045   1.778
80474SOL    HW143255   3.801   0.091   1.832
80474SOL    HW243256   3.887   0.107   1.709
80475SOL     OW43257   1.955   0.987   5.942
80475SOL    HW143258   2.002   0.908   5.968
80475SOL    HW243259   1.873   0.984   5.991
80476SOL     OW43260   0.171  11.214   4.493
80476SOL    HW143261   0.246  11.156   4.497
80476SOL    HW243262   0.203  11.292   4.447
80477SOL     OW43263  10.345   8.689   5.884
80477SOL    HW143264  10.299   8.644   5.954
80477SOL    HW243265  10.279   8.701   5.815
80478SOL     OW43266  14.809   5.314   6.744
80478SOL    HW143267  14.716   5.338   6.744
80478SOL    HW243268  14.812   5.228   6.704
80479SOL     OW43269   2.235   4.247  13.729
80479SOL    HW143270   2.175   4.276  13.798
80479SOL    HW243271   2.191   4.172  13.689
80480SOL     OW43272   9.067   8.061  13.180
80480SOL    HW143273   9.112   8.127  13.128
80480SOL    HW243274   9.017   8.010  13.116
80481SOL     OW43275   9.071   2.682  14.848
80481SOL    HW143276   9.127   2.751  14.812
80481SOL    HW243277   9.018   2.653  14.774
80482SOL     OW43278   5.209   2.547  14.529
80482SOL    HW143279   5.256   2.471  14.565
80482SOL    HW243280   5.128   2.510  14.494
80483SOL     OW43281   7.560  11.953  11.702
80483SOL    HW143282   7.567  11.931  11.609
80483SOL    HW243283   7.543  11.869  11.745
80484SOL     OW43284   7.323   5.904   8.850
80484SOL    HW143285   7.340   5.823   8.801
80484SOL    HW243286   7.273   5.875   8.927
80485SOL     OW43287   3.994  11.602  10.420
80485SOL    HW143288   3.944  11.538  10.370
80485SOL    HW243289   4.085  11.575  10.411
80486SOL     OW43290  10.243   8.943   3.854
80486SOL    HW143291  10.189   9.022   3.846
80486SOL    HW243292  10.284   8.952   3.941
80487SOL     OW43293   3.062  14.638   7.279
80487SOL    HW143294   3.070  14.556   7.230
80487SOL    HW243295   3.005  14.693   7.224
80488SOL     OW43296  11.675   5.886  10.607
80488SOL    HW143297  11.583   5.865  10.625
80488SOL    HW243298  11.673   5.977  10.578
80489SOL     OW43299   2.018   3.236   1.125
80489SOL    HW143300   1.943   3.272   1.079
80489SOL    HW243301   1.986   3.216   1.213
80490SOL     OW43302   0.364   4.428   5.971
80490SOL    HW143303   0.357   4.341   5.931
80490SOL    HW243304   0.393   4.485   5.899
80491SOL     OW43305   4.021  12.640   7.102
80491SOL    HW143306   4.039  12.719   7.153
80491SOL    HW243307   3.972  12.583   7.162
80492SOL     OW43308   2.263   9.212   7.625
80492SOL    HW143309   2.322   9.267   7.677
80492SOL    HW243310   2.315   9.188   7.548
80493SOL     OW43311  11.015   2.366  10.603
80493SOL    HW143312  11.071   2.442  10.583
80493SOL    HW243313  11.036   2.345  10.694
80494SOL     OW43314  10.797   5.728   7.770
80494SOL    HW143315  10.865   5.709   7.706
80494SOL    HW243316  10.827   5.687   7.851
80495SOL     OW43317   4.385   7.492   9.243
80495SOL    HW143318   4.468   7.506   9.289
80495SOL    HW243319   4.346   7.580   9.236
80496SOL     OW43320  11.693   0.197  11.457
80496SOL    HW143321  11.674   0.270  11.399
80496SOL    HW243322  11.780   0.215  11.492
80497SOL     OW43323  12.865   2.993   5.909
80497SOL    HW143324  12.775   2.961   5.914
80497SOL    HW243325  12.913   2.922   5.866
80498SOL     OW43326   6.783  14.415  10.682
80498SOL    HW143327   6.734  14.333  10.681
80498SOL    HW243328   6.860  14.398  10.629
80499SOL     OW43329  12.185   4.727   2.303
80499SOL    HW143330  12.093   4.746   2.315
80499SOL    HW243331  12.230   4.777   2.372
80500SOL     OW43332   6.188   6.531   9.104
80500SOL    HW143333   6.272   6.572   9.085
80500SOL    HW243334   6.201   6.489   9.189
80501SOL     OW43335   2.682   9.825  11.703
80501SOL    HW143336   2.670   9.908  11.749
80501SOL    HW243337   2.766   9.792  11.735
80502SOL     OW43338   8.424   7.680   0.608
80502SOL    HW143339   8.378   7.598   0.593
80502SOL    HW243340   8.493   7.683   0.542
80503SOL     OW43341   4.000   3.630  12.044
80503SOL    HW143342   3.948   3.559  12.081
80503SOL    HW243343   3.961   3.710  12.081
80504SOL     OW43344   2.371   1.674   2.732
80504SOL    HW143345   2.293   1.626   2.705
80504SOL    HW243346   2.364   1.680   2.827
80505SOL     OW43347   2.674  10.616   4.342
80505SOL    HW143348   2.711  10.617   4.254
80505SOL    HW243349   2.599  10.556   4.336
80506SOL     OW43350   0.653  12.817   6.175
80506SOL    HW143351   0.680  12.881   6.109
80506SOL    HW243352   0.724  12.753   6.177
80507SOL     OW43353   5.915   9.024   0.921
80507SOL    HW143354   5.884   8.963   0.988
80507SOL    HW243355   6.009   9.031   0.938
80508SOL     OW43356   6.454   8.336   4.758
80508SOL    HW143357   6.359   8.331   4.752
80508SOL    HW243358   6.470   8.365   4.848
80509SOL     OW43359   9.556   4.538  12.615
80509SOL    HW143360   9.621   4.556  12.547
80509SOL    HW243361   9.546   4.621  12.662
80510SOL     OW43362  14.259  11.433   8.610
80510SOL    HW143363  14.239  11.339   8.613
80510SOL    HW243364  14.334  11.442   8.670
80511SOL     OW43365   1.557  10.517   0.133
80511SOL    HW143366   1.501  10.569   0.075
80511SOL    HW243367   1.522  10.532   0.221
80512SOL     OW43368   8.192   2.283   2.736
80512SOL    HW143369   8.146   2.296   2.819
80512SOL    HW243370   8.282   2.310   2.754
80513SOL     OW43371   6.196   4.173   7.653
80513SOL    HW143372   6.188   4.241   7.585
80513SOL    HW243373   6.256   4.109   7.616
80514SOL     OW43374   3.146   0.925   2.031
80514SOL    HW143375   3.089   0.982   2.082
80514SOL    HW243376   3.234   0.959   2.046
80515SOL     OW43377  11.175   8.554   6.784
80515SOL    HW143378  11.103   8.552   6.847
80515SOL    HW243379  11.250   8.519   6.831
80516SOL     OW43380  12.200   2.664   4.318
80516SOL    HW143381  12.170   2.592   4.374
80516SOL    HW243382  12.263   2.711   4.372
80517SOL     OW43383   7.555  11.644   4.092
80517SOL    HW143384   7.636  11.624   4.139
80517SOL    HW243385   7.486  11.616   4.152
80518SOL     OW43386  10.528   3.127  12.062
80518SOL    HW143387  10.487   3.209  12.090
80518SOL    HW243388  10.526   3.131  11.966
80519SOL     OW43389  11.547  10.423   2.400
80519SOL    HW143390  11.527  10.371   2.322
80519SOL    HW243391  11.636  10.397   2.424
80520SOL     OW43392   1.313   8.861   9.590
80520SOL    HW143393   1.408   8.865   9.604
80520SOL    HW243394   1.276   8.850   9.678
80521SOL     OW43395   1.468   5.011   8.538
80521SOL    HW143396   1.550   4.969   8.565
80521SOL    HW243397   1.493   5.102   8.519
80522SOL     OW43398   5.299  10.097   8.690
80522SOL    HW143399   5.219  10.135   8.725
80522SOL    HW243400   5.355  10.171   8.671
80523SOL     OW43401   8.658   5.091  12.741
80523SOL    HW143402   8.660   5.186  12.734
80523SOL    HW243403   8.722   5.060  12.677
80524SOL     OW43404   3.304  11.422   3.545
80524SOL    HW143405   3.335  11.510   3.568
80524SOL    HW243406   3.210  11.425   3.563
80525SOL     OW43407   9.876   7.756  14.220
80525SOL    HW143408   9.833   7.718  14.144
80525SOL    HW243409   9.859   7.850  14.213
80526SOL     OW43410   8.938  10.924   4.324
80526SOL    HW143411   8.904  10.983   4.257
80526SOL    HW243412   8.873  10.853   4.329
80527SOL     OW43413  11.753  12.952   7.376
80527SOL    HW143414  11.743  12.992   7.289
80527SOL    HW243415  11.665  12.950   7.412
80528SOL     OW43416   8.207  11.203   4.498
80528SOL    HW143417   8.189  11.111   4.483
80528SOL    HW243418   8.130  11.249   4.465
80529SOL     OW43419   8.828  11.553  11.876
80529SOL    HW143420   8.883  11.483  11.840
80529SOL    HW243421   8.833  11.541  11.970
80530SOL     OW43422   1.334   1.771   6.722
80530SOL    HW143423   1.247   1.749   6.756
80530SOL    HW243424   1.392   1.760   6.797
80531SOL     OW43425  12.470   0.318  11.304
80531SOL    HW143426  12.519   0.392  11.269
80531SOL    HW243427  12.492   0.245  11.246
80532SOL     OW43428   2.661  14.241   5.498
80532SOL    HW143429   2.716  14.319   5.487
80532SOL    HW243430   2.697  14.177   5.436
80533SOL     OW43431  11.167  11.459   4.307
80533SOL    HW143432  11.100  11.506   4.357
80533SOL    HW243433  11.128  11.448   4.220
80534SOL     OW43434   4.267   0.335  12.421
80534SOL    HW143435   4.177   0.307  12.439
80534SOL    HW243436   4.285   0.402  12.488
80535SOL     OW43437  10.630  12.069  11.677
80535SOL    HW143438  10.680  12.145  11.648
80535SOL    HW243439  10.632  12.073  11.773
80536SOL     OW43440   7.336   4.184   6.326
80536SOL    HW143441   7.256   4.135   6.338
80536SOL    HW243442   7.361   4.213   6.414
80537SOL     OW43443  13.430   0.241  14.292
80537SOL    HW143444  13.516   0.248  14.333
80537SOL    HW243445  13.376   0.196  14.356
80538SOL     OW43446   9.157   8.264  10.590
80538SOL    HW143447   9.240   8.242  10.549
80538SOL    HW243448   9.093   8.262  10.518
80539SOL     OW43449  10.451  12.591  10.247
80539SOL    HW143450  10.538  12.611  10.213
80539SOL    HW243451  10.422  12.517  10.194
80540SOL     OW43452   9.690  12.606   1.060
80540SOL    HW143453   9.754  12.540   1.032
80540SOL    HW243454   9.660  12.646   0.978
80541SOL     OW43455   3.083  11.922  14.840
80541SOL    HW143456   3.018  11.916  14.770
80541SOL    HW243457   3.132  11.840  14.833
80542SOL     OW43458  13.571   6.454  14.662
80542SOL    HW143459  13.612   6.390  14.604
80542SOL    HW243460  13.478   6.451  14.640
80543SOL     OW43461  11.026  10.693  13.883
80543SOL    HW143462  11.003  10.771  13.934
80543SOL    HW243463  11.007  10.718  13.792
80544SOL     OW43464   9.466   1.790   9.665
80544SOL    HW143465   9.491   1.723   9.728
80544SOL    HW243466   9.544   1.845   9.656
80545SOL     OW43467   4.981  14.284  12.995
80545SOL    HW143468   5.029  14.218  12.945
80545SOL    HW243469   4.894  14.284  12.957
80546SOL     OW43470   7.686   9.601   9.871
80546SOL    HW143471   7.719   9.637   9.954
80546SOL    HW243472   7.663   9.510   9.893
80547SOL     OW43473   3.795   6.335   0.048
80547SOL    HW143474   3.786   6.373  14.839
80547SOL    HW243475   3.736   6.259   0.047
80548SOL     OW43476   7.083   3.929  12.508
80548SOL    HW143477   7.117   3.928  12.597
80548SOL    HW243478   7.142   3.872  12.459
80549SOL     OW43479   0.778   9.320   7.558
80549SOL    HW143480   0.726   9.327   7.478
80549SOL    HW243481   0.718   9.346   7.628
80550SOL     OW43482   8.276  10.227   9.248
80550SOL    HW143483   8.234  10.310   9.271
80550SOL    HW243484   8.214  10.160   9.275
80551SOL     OW43485  10.425   5.712   7.146
80551SOL    HW143486  10.388   5.786   7.193
80551SOL    HW243487  10.371   5.705   7.066
80552SOL     OW43488   8.257   2.271   5.409
80552SOL    HW143489   8.191   2.303   5.346
80552SOL    HW243490   8.218   2.288   5.495
80553SOL     OW43491   6.880  11.617   0.521
80553SOL    HW143492   6.806  11.651   0.470
80553SOL    HW243493   6.924  11.556   0.462
80554SOL     OW43494  14.527  14.709  10.704
80554SOL    HW143495  14.476  14.662  10.770
80554SOL    HW243496  14.613  14.721  10.744
80555SOL     OW43497  10.235   5.920   5.324
80555SOL    HW143498  10.221   6.001   5.275
80555SOL    HW243499  10.148   5.896   5.356
80556SOL     OW43500   8.446   5.818   6.367
80556SOL    HW143501   8.513   5.875   6.404
80556SOL    HW243502   8.363   5.859   6.393
80557SOL     OW43503  11.828   3.369  11.291
80557SOL    HW143504  11.884   3.446  11.280
80557SOL    HW243505  11.747   3.403  11.329
80558SOL     OW43506   4.305   5.638  10.413
80558SOL    HW143507   4.336   5.683  10.335
80558SOL    HW243508   4.227   5.686  10.441
80559SOL     OW43509   5.834   9.929   6.465
80559SOL    HW143510   5.742   9.929   6.489
80559SOL    HW243511   5.849  10.016   6.427
80560SOL     OW43512   0.085   5.820   2.071
80560SOL    HW143513   0.034   5.744   2.099
80560SOL    HW243514   0.152   5.830   2.139
80561SOL     OW43515   6.006   4.355   7.827
80561SOL    HW143516   6.024   4.449   7.821
80561SOL    HW243517   6.085   4.313   7.794
80562SOL     OW43518  13.250  14.129   5.660
80562SOL    HW143519  13.341  14.127   5.687
80562SOL    HW243520  13.211  14.201   5.710
80563SOL     OW43521   7.306   4.755   1.817
80563SOL    HW143522   7.264   4.834   1.782
80563SOL    HW243523   7.306   4.769   1.912
80564SOL     OW43524   2.293   5.906   1.612
80564SOL    HW143525   2.234   5.831   1.620
80564SOL    HW243526   2.320   5.905   1.520
80565SOL     OW43527   9.654  14.794  13.832
80565SOL    HW143528   9.619  14.758  13.914
80565SOL    HW243529   9.628   0.007  13.834
80566SOL     OW43530  10.273  11.185  11.751
80566SOL    HW143531  10.303  11.137  11.674
80566SOL    HW243532  10.321  11.145  11.824
80567SOL     OW43533   9.979   0.441  12.732
80567SOL    HW143534   9.948   0.410  12.647
80567SOL    HW243535  10.075   0.440  12.725
80568SOL     OW43536   8.582   1.632   2.121
80568SOL    HW143537   8.516   1.581   2.168
80568SOL    HW243538   8.651   1.647   2.186
80569SOL     OW43539   4.578  13.967   8.313
80569SOL    HW143540   4.483  13.972   8.299
80569SOL    HW243541   4.608  14.057   8.305
80570SOL     OW43542   5.568  13.717   0.612
80570SOL    HW143543   5.601  13.724   0.522
80570SOL    HW243544   5.560  13.808   0.642
80571SOL     OW43545   7.368  11.100  11.716
80571SOL    HW143546   7.393  11.056  11.798
80571SOL    HW243547   7.325  11.181  11.745
80572SOL     OW43548   3.039   2.242   9.605
80572SOL    HW143549   3.015   2.289   9.686
80572SOL    HW243550   3.037   2.310   9.538
80573SOL     OW43551   9.150   2.930   6.122
80573SOL    HW143552   9.077   2.944   6.181
80573SOL    HW243553   9.225   2.916   6.179
80574SOL     OW43554   6.874   4.059  12.230
80574SOL    HW143555   6.925   4.025  12.304
80574SOL    HW243556   6.800   4.104  12.271
80575SOL     OW43557  13.555  10.444   9.658
80575SOL    HW143558  13.611  10.382   9.706
80575SOL    HW243559  13.485  10.389   9.622
80576SOL     OW43560   7.085   4.677  11.885
80576SOL    HW143561   6.993   4.701  11.894
80576SOL    HW243562   7.105   4.626  11.963
80577SOL     OW43563  10.635  10.453   1.684
80577SOL    HW143564  10.592  10.368   1.694
80577SOL    HW243565  10.575  10.515   1.724
80578SOL     OW43566   9.060   0.936   3.946
80578SOL    HW143567   9.024   0.876   4.012
80578SOL    HW243568   9.154   0.917   3.946
80579SOL     OW43569   7.681  12.452   2.406
80579SOL    HW143570   7.727  12.514   2.462
80579SOL    HW243571   7.691  12.488   2.318
80580SOL     OW43572   7.572   7.863   9.561
80580SOL    HW143573   7.649   7.887   9.510
80580SOL    HW243574   7.604   7.799   9.624
80581SOL     OW43575   1.671   0.839   2.424
80581SOL    HW143576   1.597   0.894   2.449
80581SOL    HW243577   1.644   0.751   2.447
80582SOL     OW43578   7.282   6.842   6.643
80582SOL    HW143579   7.201   6.893   6.643
80582SOL    HW243580   7.310   6.842   6.551
80583SOL     OW43581   8.106   0.799   2.788
80583SOL    HW143582   8.103   0.715   2.833
80583SOL    HW243583   8.079   0.779   2.698
80584SOL     OW43584   5.024   3.968   9.878
80584SOL    HW143585   5.108   4.013   9.880
80584SOL    HW243586   4.980   3.996   9.958
80585SOL     OW43587   3.270  10.610   2.064
80585SOL    HW143588   3.231  10.650   2.142
80585SOL    HW243589   3.195  10.585   2.009
80586SOL     OW43590   4.689   7.723  10.764
80586SOL    HW143591   4.771   7.772  10.753
80586SOL    HW243592   4.717   7.631  10.770
80587SOL     OW43593  10.775   9.371  10.586
80587SOL    HW143594  10.772   9.436  10.516
80587SOL    HW243595  10.690   9.327  10.581
80588SOL     OW43596   1.025  11.118  11.174
80588SOL    HW143597   0.965  11.186  11.203
80588SOL    HW243598   1.013  11.047  11.236
80589SOL     OW43599  12.853   5.053   9.990
80589SOL    HW143600  12.895   4.989  10.048
80589SOL    HW243601  12.764   5.020   9.978
80590SOL     OW43602  12.223   2.872   7.510
80590SOL    HW143603  12.258   2.820   7.437
80590SOL    HW243604  12.260   2.959   7.498
80591SOL     OW43605  12.622   4.380  13.048
80591SOL    HW143606  12.576   4.322  12.987
80591SOL    HW243607  12.595   4.468  13.021
80592SOL     OW43608  10.660  10.770  13.846
80592SOL    HW143609  10.578  10.725  13.867
80592SOL    HW243610  10.710  10.767  13.928
80593SOL     OW43611   4.493   6.061  11.935
80593SOL    HW143612   4.507   6.156  11.926
80593SOL    HW243613   4.426   6.053  12.003
80594SOL     OW43614   8.588  13.555  14.432
80594SOL    HW143615   8.650  13.492  14.468
80594SOL    HW243616   8.525  13.569  14.503
80595SOL     OW43617  13.631  13.913   5.734
80595SOL    HW143618  13.713  13.902   5.686
80595SOL    HW243619  13.626  13.838   5.793
80596SOL     OW43620  14.599   4.238   2.926
80596SOL    HW143621  14.643   4.255   2.843
80596SOL    HW243622  14.651   4.169   2.967
80597SOL     OW43623  10.720   4.291  11.458
80597SOL    HW143624  10.637   4.294  11.410
80597SOL    HW243625  10.723   4.374  11.505
80598SOL     OW43626   2.263  12.600   5.113
80598SOL    HW143627   2.197  12.645   5.060
80598SOL    HW243628   2.215  12.574   5.192
80599SOL     OW43629   8.345   9.838   9.813
80599SOL    HW143630   8.278   9.779   9.849
80599SOL    HW243631   8.428   9.792   9.829
80600SOL     OW43632   9.278   1.243   2.798
80600SOL    HW143633   9.241   1.309   2.739
80600SOL    HW243634   9.350   1.288   2.842
80601SOL     OW43635   6.897   6.212  11.584
80601SOL    HW143636   6.877   6.208  11.677
80601SOL    HW243637   6.869   6.299  11.557
80602SOL     OW43638  14.519   0.745  10.484
80602SOL    HW143639  14.588   0.722  10.422
80602SOL    HW243640  14.479   0.662  10.509
80603SOL     OW43641   8.486   9.265   7.953
80603SOL    HW143642   8.546   9.306   7.891
80603SOL    HW243643   8.514   9.173   7.957
80604SOL     OW43644  10.558   9.487   1.717
80604SOL    HW143645  10.637   9.448   1.678
80604SOL    HW243646  10.526   9.547   1.650
80605SOL     OW43647  14.527   8.832  11.602
80605SOL    HW143648  14.453   8.772  11.610
80605SOL    HW243649  14.549   8.832  11.509
80606SOL     OW43650   7.322   5.791  14.693
80606SOL    HW143651   7.343   5.861  14.755
80606SOL    HW243652   7.399   5.735  14.693
80607SOL     OW43653   6.198   3.658   0.251
80607SOL    HW143654   6.175   3.623   0.337
80607SOL    HW243655   6.220   3.582   0.198
80608SOL     OW43656   7.146  14.459  14.362
80608SOL    HW143657   7.130  14.398  14.434
80608SOL    HW243658   7.059  14.482  14.330
80609SOL     OW43659  11.202   2.604  12.050
80609SOL    HW143660  11.143   2.534  12.026
80609SOL    HW243661  11.211   2.656  11.970
80610SOL     OW43662   3.666  12.392   3.115
80610SOL    HW143663   3.668  12.296   3.121
80610SOL    HW243664   3.592  12.411   3.058
80611SOL     OW43665  12.856  14.851   4.723
80611SOL    HW143666  12.828   0.037   4.787
80611SOL    HW243667  12.911  14.790   4.773
80612SOL     OW43668   6.052  10.973  11.663
80612SOL    HW143669   6.110  10.969  11.587
80612SOL    HW243670   6.004  11.055  11.651
80613SOL     OW43671  13.806   6.556   4.246
80613SOL    HW143672  13.830   6.481   4.301
80613SOL    HW243673  13.829   6.632   4.298
80614SOL     OW43674   0.840  10.146   0.985
80614SOL    HW143675   0.776  10.150   0.915
80614SOL    HW243676   0.842  10.054   1.012
80615SOL     OW43677   2.656  10.208   1.578
80615SOL    HW143678   2.634  10.240   1.490
80615SOL    HW243679   2.618  10.273   1.637
80616SOL     OW43680   8.275   1.585   9.939
80616SOL    HW143681   8.273   1.583  10.035
80616SOL    HW243682   8.367   1.572   9.917
80617SOL     OW43683  13.570   6.550  13.958
80617SOL    HW143684  13.611   6.531  13.873
80617SOL    HW243685  13.595   6.641  13.977
80618SOL     OW43686  13.512   7.425   0.788
80618SOL    HW143687  13.590   7.379   0.756
80618SOL    HW243688  13.447   7.355   0.802
80619SOL     OW43689   0.087   7.883  14.804
80619SOL    HW143690   0.110   7.816  14.868
80619SOL    HW243691   0.134   7.857  14.724
80620SOL     OW43692   2.334   7.533   0.718
80620SOL    HW143693   2.383   7.580   0.651
80620SOL    HW243694   2.262   7.591   0.742
80621SOL     OW43695   6.603  11.714   3.191
80621SOL    HW143696   6.565  11.652   3.129
80621SOL    HW243697   6.547  11.791   3.187
80622SOL     OW43698   0.826  11.708   7.935
80622SOL    HW143699   0.831  11.646   7.863
80622SOL    HW243700   0.905  11.762   7.926
80623SOL     OW43701   2.284   1.178  10.009
80623SOL    HW143702   2.208   1.206  10.060
80623SOL    HW243703   2.349   1.248  10.023
80624SOL     OW43704   2.117   9.170   9.980
80624SOL    HW143705   2.137   9.199  10.069
80624SOL    HW243706   2.201   9.138   9.946
80625SOL     OW43707  13.338   1.356   6.582
80625SOL    HW143708  13.431   1.359   6.558
80625SOL    HW243709  13.312   1.448   6.589
80626SOL     OW43710   1.602   2.784   8.049
80626SOL    HW143711   1.675   2.813   7.995
80626SOL    HW243712   1.525   2.798   7.993
80627SOL     OW43713   8.088  14.272  11.464
80627SOL    HW143714   7.998  14.302  11.475
80627SOL    HW243715   8.137  14.353  11.447
80628SOL     OW43716   1.688   3.747   8.512
80628SOL    HW143717   1.769   3.797   8.524
80628SOL    HW243718   1.710   3.659   8.544
80629SOL     OW43719  12.248   3.858   7.420
80629SOL    HW143720  12.336   3.893   7.412
80629SOL    HW243721  12.211   3.865   7.332
80630SOL     OW43722  14.035   5.655  11.234
80630SOL    HW143723  13.999   5.582  11.284
80630SOL    HW243724  14.110   5.684  11.285
80631SOL     OW43725  10.780   5.383   2.023
80631SOL    HW143726  10.828   5.302   2.005
80631SOL    HW243727  10.830   5.451   1.978
80632SOL     OW43728   6.217   3.526   9.732
80632SOL    HW143729   6.167   3.446   9.747
80632SOL    HW243730   6.201   3.580   9.809
80633SOL     OW43731   0.489   0.456  12.014
80633SOL    HW143732   0.511   0.542  11.977
80633SOL    HW243733   0.399   0.467  12.046
80634SOL     OW43734   9.333   0.500  11.818
80634SOL    HW143735   9.348   0.571  11.880
80634SOL    HW243736   9.396   0.432  11.843
80635SOL     OW43737   4.807  13.923   0.602
80635SOL    HW143738   4.756  13.846   0.578
80635SOL    HW243739   4.896  13.891   0.613
80636SOL     OW43740   0.007   3.918  13.467
80636SOL    HW143741  14.816   3.863  13.433
80636SOL    HW243742   0.011   3.992  13.407
80637SOL     OW43743   6.148  13.478   5.004
80637SOL    HW143744   6.149  13.447   5.095
80637SOL    HW243745   6.210  13.420   4.959
80638SOL     OW43746   5.130  10.760  10.195
80638SOL    HW143747   5.120  10.702  10.270
80638SOL    HW243748   5.045  10.762  10.153
80639SOL     OW43749  11.704   6.107  14.776
80639SOL    HW143750  11.725   6.197  14.751
80639SOL    HW243751  11.789   6.063  14.783
80640SOL     OW43752   9.305   1.670   9.375
80640SOL    HW143753   9.377   1.658   9.436
80640SOL    HW243754   9.329   1.748   9.325
80641SOL     OW43755   1.585   7.549   0.255
80641SOL    HW143756   1.572   7.622   0.195
80641SOL    HW243757   1.674   7.561   0.288
80642SOL     OW43758   8.609   0.251  13.186
80642SOL    HW143759   8.700   0.227  13.199
80642SOL    HW243760   8.560   0.169  13.197
80643SOL     OW43761   0.306   8.492  14.399
80643SOL    HW143762   0.337   8.562  14.343
80643SOL    HW243763   0.378   8.476  14.460
80644SOL     OW43764  10.489  11.069   8.616
80644SOL    HW143765  10.558  11.135   8.611
80644SOL    HW243766  10.498  11.031   8.704
80645SOL     OW43767   4.986  14.077   3.334
80645SOL    HW143768   5.058  14.040   3.284
80645SOL    HW243769   4.909  14.064   3.279
80646SOL     OW43770   6.885  14.366   2.829
80646SOL    HW143771   6.824  14.424   2.873
80646SOL    HW243772   6.863  14.375   2.736
80647SOL     OW43773  13.581   9.782   8.197
80647SOL    HW143774  13.495   9.816   8.172
80647SOL    HW243775  13.636   9.799   8.121
80648SOL     OW43776   6.827  11.506   8.911
80648SOL    HW143777   6.898  11.570   8.916
80648SOL    HW243778   6.858  11.431   8.962
80649SOL     OW43779   2.001  11.028   6.325
80649SOL    HW143780   2.053  11.006   6.403
80649SOL    HW243781   2.058  11.084   6.273
80650SOL     OW43782  12.091   3.492  10.428
80650SOL    HW143783  12.183   3.510  10.447
80650SOL    HW243784  12.054   3.578  10.410
80651SOL     OW43785   4.070   3.688   1.368
80651SOL    HW143786   4.048   3.728   1.284
80651SOL    HW243787   3.986   3.682   1.414
80652SOL     OW43788   1.058   0.561   4.102
80652SOL    HW143789   1.115   0.515   4.165
80652SOL    HW243790   0.985   0.593   4.155
80653SOL     OW43791   0.118   8.960   6.773
80653SOL    HW143792   0.031   8.925   6.755
80653SOL    HW243793   0.125   8.960   6.868
80654SOL     OW43794   6.303   7.763   9.519
80654SOL    HW143795   6.313   7.668   9.528
80654SOL    HW243796   6.366   7.799   9.582
80655SOL     OW43797   2.344   0.328   9.530
80655SOL    HW143798   2.262   0.278   9.534
80655SOL    HW243799   2.362   0.337   9.436
80656SOL     OW43800   5.123  12.828   2.057
80656SOL    HW143801   5.171  12.905   2.028
80656SOL    HW243802   5.060  12.812   1.987
80657SOL     OW43803   4.201  12.886   5.815
80657SOL    HW143804   4.263  12.958   5.809
80657SOL    HW243805   4.152  12.889   5.733
80658SOL     OW43806   6.634   7.256   5.952
80658SOL    HW143807   6.612   7.285   6.041
80658SOL    HW243808   6.714   7.303   5.930
80659SOL     OW43809   6.287   4.373   8.769
80659SOL    HW143810   6.195   4.355   8.787
80659SOL    HW243811   6.287   4.414   8.682
80660SOL     OW43812  14.719  11.669   0.511
80660SOL    HW143813  14.696  11.649   0.601
80660SOL    HW243814  14.635  11.670   0.464
80661SOL     OW43815   7.499   3.335   1.822
80661SOL    HW143816   7.560   3.272   1.860
80661SOL    HW243817   7.485   3.304   1.733
80662SOL     OW43818  11.720  13.226   7.672
80662SOL    HW143819  11.696  13.134   7.682
80662SOL    HW243820  11.667  13.272   7.737
80663SOL     OW43821   8.260   8.073  14.753
80663SOL    HW143822   8.344   8.061  14.708
80663SOL    HW243823   8.200   8.014  14.708
80664SOL     OW43824   8.803  11.233   7.033
80664SOL    HW143825   8.731  11.175   7.008
80664SOL    HW243826   8.779  11.318   6.996
80665SOL     OW43827   9.371  11.275  11.765
80665SOL    HW143828   9.436  11.259  11.697
80665SOL    HW243829   9.420  11.268  11.847
80666SOL     OW43830   1.154   8.448  10.609
80666SOL    HW143831   1.245   8.473  10.592
80666SOL    HW243832   1.103   8.524  10.582
80667SOL     OW43833   5.535  11.011  13.225
80667SOL    HW143834   5.460  11.002  13.284
80667SOL    HW243835   5.530  11.102  13.194
80668SOL     OW43836   8.619  13.563   2.236
80668SOL    HW143837   8.672  13.503   2.182
80668SOL    HW243838   8.682  13.626   2.269
80669SOL     OW43839   9.644  11.510  11.490
80669SOL    HW143840   9.673  11.601  11.479
80669SOL    HW243841   9.678  11.464  11.414
80670SOL     OW43842   0.181   8.819   8.448
80670SOL    HW143843   0.256   8.784   8.496
80670SOL    HW243844   0.112   8.828   8.514
80671SOL     OW43845  10.822  12.312   7.576
80671SOL    HW143846  10.898  12.255   7.585
80671SOL    HW243847  10.790  12.323   7.665
80672SOL     OW43848   2.526  13.862   1.278
80672SOL    HW143849   2.487  13.831   1.360
80672SOL    HW243850   2.479  13.814   1.210
80673SOL     OW43851   7.310  11.142   8.573
80673SOL    HW143852   7.271  11.119   8.657
80673SOL    HW243853   7.357  11.064   8.545
80674SOL     OW43854   8.283   3.514   3.559
80674SOL    HW143855   8.231   3.569   3.500
80674SOL    HW243856   8.342   3.467   3.501
80675SOL     OW43857   9.484   9.154  12.124
80675SOL    HW143858   9.444   9.212  12.188
80675SOL    HW243859   9.553   9.109  12.173
80676SOL     OW43860   2.583  13.086   8.032
80676SOL    HW143861   2.643  13.137   7.977
80676SOL    HW243862   2.523  13.151   8.068
80677SOL     OW43863  12.655   2.117   1.542
80677SOL    HW143864  12.627   2.174   1.614
80677SOL    HW243865  12.678   2.034   1.584
80678SOL     OW43866   9.805   7.263   7.930
80678SOL    HW143867   9.740   7.224   7.989
80678SOL    HW243868   9.773   7.243   7.842
80679SOL     OW43869  11.986   8.119   1.383
80679SOL    HW143870  12.054   8.102   1.318
80679SOL    HW243871  11.906   8.130   1.332
80680SOL     OW43872   6.097   9.217   4.062
80680SOL    HW143873   6.090   9.312   4.066
80680SOL    HW243874   6.191   9.200   4.057
80681SOL     OW43875  11.256   7.609   2.271
80681SOL    HW143876  11.303   7.540   2.318
80681SOL    HW243877  11.232   7.673   2.338
80682SOL     OW43878  14.795  12.327   9.251
80682SOL    HW143879  14.754  12.246   9.222
80682SOL    HW243880  14.815  12.313   9.344
80683SOL     OW43881   2.410   2.551  12.186
80683SOL    HW143882   2.328   2.595  12.164
80683SOL    HW243883   2.443   2.518  12.103
80684SOL     OW43884   3.536   0.628   2.516
80684SOL    HW143885   3.617   0.677   2.532
80684SOL    HW243886   3.477   0.656   2.586
80685SOL     OW43887   8.178  12.942  10.619
80685SOL    HW143888   8.192  13.015  10.679
80685SOL    HW243889   8.091  12.958  10.581
80686SOL     OW43890   1.952   1.701   5.205
80686SOL    HW143891   1.942   1.781   5.256
80686SOL    HW243892   1.934   1.631   5.267
80687SOL     OW43893   5.531   3.009   4.345
80687SOL    HW143894   5.487   3.040   4.266
80687SOL    HW243895   5.616   2.979   4.316
80688SOL     OW43896   6.570  12.006   0.485
80688SOL    HW143897   6.627  12.062   0.431
80688SOL    HW243898   6.567  11.923   0.438
80689SOL     OW43899  10.692   1.047  14.316
80689SOL    HW143900  10.656   1.119  14.368
80689SOL    HW243901  10.708   1.086  14.230
80690SOL     OW43902   2.566  14.456   7.508
80690SOL    HW143903   2.532  14.367   7.520
80690SOL    HW243904   2.488  14.508   7.487
80691SOL     OW43905   1.512  14.124  10.250
80691SOL    HW143906   1.543  14.058  10.312
80691SOL    HW243907   1.459  14.074  10.187
80692SOL     OW43908  11.838   8.184  14.624
80692SOL    HW143909  11.768   8.173  14.689
80692SOL    HW243910  11.881   8.099  14.620
80693SOL     OW43911  11.560  12.140   1.556
80693SOL    HW143912  11.530  12.050   1.541
80693SOL    HW243913  11.529  12.161   1.644
80694SOL     OW43914  12.764   1.606   9.963
80694SOL    HW143915  12.705   1.565  10.025
80694SOL    HW243916  12.845   1.554   9.968
80695SOL     OW43917  10.381  10.012  10.694
80695SOL    HW143918  10.401  10.007  10.787
80695SOL    HW243919  10.453   9.964  10.652
80696SOL     OW43920   9.367   1.600   4.149
80696SOL    HW143921   9.342   1.678   4.197
80696SOL    HW243922   9.338   1.527   4.204
80697SOL     OW43923   7.489  11.093   3.377
80697SOL    HW143924   7.557  11.141   3.329
80697SOL    HW243925   7.425  11.068   3.311
80698SOL     OW43926   2.237  10.589  12.269
80698SOL    HW143927   2.302  10.656  12.290
80698SOL    HW243928   2.154  10.625  12.302
80699SOL     OW43929   3.886  14.050  11.450
80699SOL    HW143930   3.952  13.982  11.462
80699SOL    HW243931   3.873  14.055  11.355
80700SOL     OW43932  13.084   2.992  14.462
80700SOL    HW143933  13.041   2.931  14.402
80700SOL    HW243934  13.174   2.960  14.468
80701SOL     OW43935   0.857   7.507   4.663
80701SOL    HW143936   0.852   7.580   4.724
80701SOL    HW243937   0.919   7.535   4.596
80702SOL     OW43938   3.465  12.804   1.909
80702SOL    HW143939   3.548  12.838   1.944
80702SOL    HW243940   3.433  12.873   1.851
80703SOL     OW43941   1.115  11.645  10.771
80703SOL    HW143942   1.134  11.558  10.806
80703SOL    HW243943   1.156  11.706  10.832
80704SOL     OW43944   5.801   1.320   2.236
80704SOL    HW143945   5.875   1.351   2.289
80704SOL    HW243946   5.759   1.399   2.203
80705SOL     OW43947   0.428  13.260   0.517
80705SOL    HW143948   0.461  13.334   0.466
80705SOL    HW243949   0.378  13.208   0.454
80706SOL     OW43950   6.255   3.348  10.823
80706SOL    HW143951   6.184   3.320  10.766
80706SOL    HW243952   6.269   3.440  10.801
80707SOL     OW43953  12.421  10.254   7.523
80707SOL    HW143954  12.444  10.175   7.573
80707SOL    HW243955  12.501  10.305   7.520
80708SOL     OW43956   0.757  14.013   1.258
80708SOL    HW143957   0.811  14.058   1.192
80708SOL    HW243958   0.730  13.932   1.215
80709SOL     OW43959  11.035   0.578  14.142
80709SOL    HW143960  11.073   0.490  14.141
80709SOL    HW243961  11.052   0.613  14.055
80710SOL     OW43962   9.122   3.634   9.093
80710SOL    HW143963   9.068   3.602   9.166
80710SOL    HW243964   9.079   3.714   9.065
80711SOL     OW43965   2.952  11.586   0.174
80711SOL    HW143966   2.939  11.515   0.237
80711SOL    HW243967   3.003  11.546   0.104
80712SOL     OW43968  14.849   2.564  11.375
80712SOL    HW143969  14.832   2.509  11.452
80712SOL    HW243970   0.061   2.593  11.386
80713SOL     OW43971  11.569   2.242   3.998
80713SOL    HW143972  11.632   2.247   3.926
80713SOL    HW243973  11.580   2.154   4.033
80714SOL     OW43974   6.995  12.019   6.911
80714SOL    HW143975   6.951  11.951   6.861
80714SOL    HW243976   7.088  12.002   6.899
80715SOL     OW43977   9.834   1.716   2.408
80715SOL    HW143978   9.877   1.651   2.464
80715SOL    HW243979   9.806   1.666   2.331
80716SOL     OW43980   0.359   7.902  11.657
80716SOL    HW143981   0.429   7.881  11.719
80716SOL    HW243982   0.380   7.990  11.626
80717SOL     OW43983   7.281   2.788  13.535
80717SOL    HW143984   7.358   2.792  13.593
80717SOL    HW243985   7.293   2.708  13.485
80718SOL     OW43986   2.207  12.761  13.570
80718SOL    HW143987   2.275  12.826  13.589
80718SOL    HW243988   2.234  12.721  13.487
80719SOL     OW43989   8.311  12.861   9.372
80719SOL    HW143990   8.391  12.908   9.395
80719SOL    HW243991   8.265  12.851   9.455
80720SOL     OW43992   0.023   1.271   1.575
80720SOL    HW143993   0.084   1.261   1.502
80720SOL    HW243994   0.079   1.270   1.653
80721SOL     OW43995   6.651   1.568   3.992
80721SOL    HW143996   6.569   1.604   4.027
80721SOL    HW243997   6.670   1.492   4.047
80722SOL     OW43998   6.012   9.399  14.474
80722SOL    HW143999   5.917   9.415  14.473
80722SOL    HW244000   6.045   9.449  14.548
80723SOL     OW44001   7.313   8.271   9.898
80723SOL    HW144002   7.253   8.335   9.936
80723SOL    HW244003   7.399   8.313   9.900
80724SOL     OW44004   7.843  10.527   7.778
80724SOL    HW144005   7.938  10.533   7.766
80724SOL    HW244006   7.808  10.599   7.725
80725SOL     OW44007   7.219   2.184   8.155
80725SOL    HW144008   7.304   2.210   8.121
80725SOL    HW244009   7.210   2.230   8.238
80726SOL     OW44010   0.868  10.584  10.165
80726SOL    HW144011   0.835  10.647  10.100
80726SOL    HW244012   0.874  10.634  10.246
80727SOL     OW44013  13.137   7.699  12.729
80727SOL    HW144014  13.100   7.684  12.642
80727SOL    HW244015  13.130   7.614  12.773
80728SOL     OW44016   5.292   6.837  10.228
80728SOL    HW144017   5.364   6.885  10.187
80728SOL    HW244018   5.299   6.858  10.321
80729SOL     OW44019  13.711   2.868   2.232
80729SOL    HW144020  13.618   2.881   2.251
80729SOL    HW244021  13.717   2.872   2.137
80730SOL     OW44022  14.395   2.476   9.375
80730SOL    HW144023  14.351   2.405   9.421
80730SOL    HW244024  14.334   2.501   9.306
80731SOL     OW44025   0.601   0.386  11.510
80731SOL    HW144026   0.510   0.410  11.525
80731SOL    HW244027   0.644   0.466  11.481
80732SOL     OW44028   5.432   2.260   9.808
80732SOL    HW144029   5.342   2.270   9.839
80732SOL    HW244030   5.475   2.207   9.876
80733SOL     OW44031  11.079  11.129  12.356
80733SOL    HW144032  11.120  11.064  12.414
80733SOL    HW244033  11.146  11.196  12.345
80734SOL     OW44034  11.436   2.978   0.630
80734SOL    HW144035  11.447   2.891   0.669
80734SOL    HW244036  11.341   2.990   0.625
80735SOL     OW44037  10.427   4.521  11.684
80735SOL    HW144038  10.466   4.527  11.597
80735SOL    HW244039  10.332   4.515  11.668
80736SOL     OW44040   1.325  11.565   7.070
80736SOL    HW144041   1.363  11.602   7.150
80736SOL    HW244042   1.238  11.536   7.096
80737SOL     OW44043   9.408   2.573   5.170
80737SOL    HW144044   9.320   2.582   5.132
80737SOL    HW244045   9.402   2.618   5.254
80738SOL     OW44046   3.332   2.150  14.851
80738SOL    HW144047   3.346   2.231   0.022
80738SOL    HW244048   3.339   2.178  14.759
80739SOL     OW44049  14.768   0.631   5.579
80739SOL    HW144050  14.798   0.721   5.566
80739SOL    HW244051  14.703   0.637   5.649
80740SOL     OW44052   7.012  12.933  11.391
80740SOL    HW144053   6.996  13.015  11.345
80740SOL    HW244054   6.928  12.888  11.390
80741SOL     OW44055   9.072   0.242  11.017
80741SOL    HW144056   9.154   0.262  11.061
80741SOL    HW244057   9.024   0.326  11.017
80742SOL     OW44058  14.455   0.528   2.420
80742SOL    HW144059  14.402   0.578   2.482
80742SOL    HW244060  14.517   0.591   2.384
80743SOL     OW44061  12.561  12.872  13.271
80743SOL    HW144062  12.575  12.837  13.183
80743SOL    HW244063  12.521  12.957  13.257
80744SOL     OW44064  13.894  14.201   9.479
80744SOL    HW144065  13.915  14.215   9.571
80744SOL    HW244066  13.846  14.118   9.478
80745SOL     OW44067   8.197   7.354  11.584
80745SOL    HW144068   8.136   7.360  11.658
80745SOL    HW244069   8.252   7.278  11.604
80746SOL     OW44070   2.800   2.090   9.845
80746SOL    HW144071   2.803   2.021   9.779
80746SOL    HW244072   2.737   2.058   9.909
80747SOL     OW44073   8.184  10.540  14.673
80747SOL    HW144074   8.237  10.479  14.622
80747SOL    HW244075   8.125  10.484  14.723
80748SOL     OW44076  14.446   2.451   0.038
80748SOL    HW144077  14.538   2.456   0.064
80748SOL    HW244078  14.429   2.358   0.024
80749SOL     OW44079   6.383   2.161   0.356
80749SOL    HW144080   6.377   2.217   0.433
80749SOL    HW244081   6.365   2.220   0.283
80750SOL     OW44082   3.161   2.040   3.517
80750SOL    HW144083   3.178   2.134   3.525
80750SOL    HW244084   3.095   2.034   3.447
80751SOL     OW44085   2.374  10.691  10.868
80751SOL    HW144086   2.309  10.622  10.881
80751SOL    HW244087   2.336  10.747  10.800
80752SOL     OW44088   2.892  10.803   0.760
80752SOL    HW144089   2.950  10.786   0.685
80752SOL    HW244090   2.950  10.801   0.836
80753SOL     OW44091  14.408   3.995   3.923
80753SOL    HW144092  14.474   3.934   3.957
80753SOL    HW244093  14.450   4.081   3.929
80754SOL     OW44094   9.376   0.531  12.652
80754SOL    HW144095   9.387   0.560  12.743
80754SOL    HW244096   9.290   0.488  12.652
80755SOL     OW44097  10.122   0.697   9.957
80755SOL    HW144098  10.097   0.691   9.864
80755SOL    HW244099  10.117   0.790   9.977
80756SOL     OW44100  11.177  13.937   9.898
80756SOL    HW144101  11.184  13.849   9.863
80756SOL    HW244102  11.118  13.929   9.974
80757SOL     OW44103   5.462  10.258  12.386
80757SOL    HW144104   5.476  10.169  12.417
80757SOL    HW244105   5.457  10.250  12.291
80758SOL     OW44106  11.635   1.846  13.674
80758SOL    HW144107  11.551   1.820  13.711
80758SOL    HW244108  11.683   1.885  13.748
80759SOL     OW44109   6.654   8.703  13.517
80759SOL    HW144110   6.741   8.665  13.504
80759SOL    HW244111   6.648   8.771  13.449
80760SOL     OW44112   8.471   4.359   9.967
80760SOL    HW144113   8.381   4.332   9.945
80760SOL    HW244114   8.508   4.387   9.884
80761SOL     OW44115   0.637  14.725  11.173
80761SOL    HW144116   0.704  14.685  11.229
80761SOL    HW244117   0.684  14.792  11.124
80762SOL     OW44118  13.656   8.693   0.630
80762SOL    HW144119  13.697   8.649   0.555
80762SOL    HW244120  13.662   8.786   0.609
80763SOL     OW44121  14.488   4.230   3.619
80763SOL    HW144122  14.416   4.198   3.564
80763SOL    HW244123  14.556   4.257   3.556
80764SOL     OW44124   9.589  12.160  10.224
80764SOL    HW144125   9.584  12.238  10.168
80764SOL    HW244126   9.501  12.123  10.220
80765SOL     OW44127   5.882   2.155   0.317
80765SOL    HW144128   5.915   2.158   0.407
80765SOL    HW244129   5.798   2.109   0.325
80766SOL     OW44130   4.058  10.581  13.974
80766SOL    HW144131   4.067  10.528  13.895
80766SOL    HW244132   4.118  10.540  14.037
80767SOL     OW44133   1.708   0.332  10.037
80767SOL    HW144134   1.774   0.280  10.083
80767SOL    HW244135   1.712   0.418  10.078
80768SOL     OW44136  11.832  11.423   2.584
80768SOL    HW144137  11.797  11.395   2.499
80768SOL    HW244138  11.863  11.512   2.570
80769SOL     OW44139   3.193   0.885   8.778
80769SOL    HW144140   3.124   0.949   8.796
80769SOL    HW244141   3.241   0.878   8.861
80770SOL     OW44142  14.079  10.659   3.003
80770SOL    HW144143  14.165  10.632   2.969
80770SOL    HW244144  14.035  10.576   3.024
80771SOL     OW44145  14.263   9.632  11.662
80771SOL    HW144146  14.318   9.556  11.645
80771SOL    HW244147  14.213   9.645  11.582
80772SOL     OW44148  13.821   0.141  11.298
80772SOL    HW144149  13.820   0.226  11.342
80772SOL    HW244150  13.800   0.078  11.367
80773SOL     OW44151   1.830   2.445   8.738
80773SOL    HW144152   1.748   2.492   8.753
80773SOL    HW244153   1.899   2.509   8.757
80774SOL     OW44154   8.865   1.908   0.455
80774SOL    HW144155   8.779   1.949   0.463
80774SOL    HW244156   8.909   1.928   0.538
80775SOL     OW44157   1.561   2.877   8.733
80775SOL    HW144158   1.482   2.926   8.757
80775SOL    HW244159   1.623   2.945   8.707
80776SOL     OW44160   8.407   7.186   5.316
80776SOL    HW144161   8.358   7.202   5.396
80776SOL    HW244162   8.348   7.135   5.261
80777SOL     OW44163   2.986   2.557   8.698
80777SOL    HW144164   2.927   2.494   8.656
80777SOL    HW244165   2.944   2.576   8.782
80778SOL     OW44166  11.606   0.880  10.377
80778SOL    HW144167  11.563   0.926  10.304
80778SOL    HW244168  11.665   0.945  10.414
80779SOL     OW44169  11.451   8.785   8.619
80779SOL    HW144170  11.422   8.765   8.708
80779SOL    HW244171  11.404   8.865   8.597
80780SOL     OW44172   5.689   9.246   3.081
80780SOL    HW144173   5.744   9.256   3.002
80780SOL    HW244174   5.662   9.335   3.102
80781SOL     OW44175   3.584   3.831  10.341
80781SOL    HW144176   3.583   3.759  10.404
80781SOL    HW244177   3.583   3.910  10.394
80782SOL     OW44178   7.417  11.832  12.081
80782SOL    HW144179   7.455  11.884  12.152
80782SOL    HW244180   7.384  11.753  12.124
80783SOL     OW44181  14.289   0.128  13.130
80783SOL    HW144182  14.196   0.134  13.106
80783SOL    HW244183  14.288   0.117  13.225
80784SOL     OW44184   9.957  11.588   3.335
80784SOL    HW144185   9.892  11.567   3.268
80784SOL    HW244186  10.002  11.665   3.302
80785SOL     OW44187   5.402   4.718   7.039
80785SOL    HW144188   5.465   4.750   7.104
80785SOL    HW244189   5.341   4.664   7.089
80786SOL     OW44190   1.406   7.880  14.333
80786SOL    HW144191   1.424   7.805  14.390
80786SOL    HW244192   1.380   7.950  14.393
80787SOL     OW44193   7.277   3.699  10.865
80787SOL    HW144194   7.200   3.701  10.807
80787SOL    HW244195   7.241   3.685  10.952
80788SOL     OW44196   9.486  14.553   1.615
80788SOL    HW144197   9.482  14.636   1.569
80788SOL    HW244198   9.446  14.490   1.555
80789SOL     OW44199   5.100  11.363   7.409
80789SOL    HW144200   5.123  11.355   7.316
80789SOL    HW244201   5.142  11.444   7.438
80790SOL     OW44202   6.811   9.536   3.394
80790SOL    HW144203   6.764   9.532   3.477
80790SOL    HW244204   6.746   9.513   3.328
80791SOL     OW44205  10.534   9.417   3.671
80791SOL    HW144206  10.616   9.396   3.625
80791SOL    HW244207  10.472   9.351   3.641
80792SOL     OW44208   7.168   7.599   7.115
80792SOL    HW144209   7.226   7.620   7.041
80792SOL    HW244210   7.226   7.602   7.192
80793SOL     OW44211   1.653  10.059  13.526
80793SOL    HW144212   1.595  10.087  13.456
80793SOL    HW244213   1.665   9.965  13.511
80794SOL     OW44214   9.628   7.075   3.041
80794SOL    HW144215   9.599   7.034   2.960
80794SOL    HW244216   9.598   7.165   3.034
80795SOL     OW44217   4.933   0.677   1.845
80795SOL    HW144218   4.880   0.598   1.836
80795SOL    HW244219   5.022   0.644   1.858
80796SOL     OW44220  12.805  14.800   2.317
80796SOL    HW144221  12.831  14.759   2.234
80796SOL    HW244222  12.733  14.744   2.349
80797SOL     OW44223  10.198  13.315  12.801
80797SOL    HW144224  10.264  13.270  12.853
80797SOL    HW244225  10.211  13.408  12.820
80798SOL     OW44226   4.960   4.330   5.496
80798SOL    HW144227   4.973   4.240   5.524
80798SOL    HW244228   5.021   4.381   5.550
80799SOL     OW44229   9.968  10.004   9.063
80799SOL    HW144230   9.938   9.942   8.996
80799SOL    HW244231  10.034  10.057   9.018
80800SOL     OW44232   2.085  12.968   0.188
80800SOL    HW144233   2.127  12.896   0.140
80800SOL    HW244234   1.998  12.933   0.210
80801SOL     OW44235   7.726  13.555  14.699
80801SOL    HW144236   7.687  13.574  14.613
80801SOL    HW244237   7.818  13.537  14.681
80802SOL     OW44238   9.153   0.743   9.155
80802SOL    HW144239   9.154   0.649   9.136
80802SOL    HW244240   9.118   0.749   9.244
80803SOL     OW44241  12.619   6.513   8.172
80803SOL    HW144242  12.614   6.444   8.238
80803SOL    HW244243  12.662   6.471   8.097
80804SOL     OW44244   1.845  11.574  12.122
80804SOL    HW144245   1.826  11.481  12.130
80804SOL    HW244246   1.932  11.584  12.160
80805SOL     OW44247   6.712   7.640   3.066
80805SOL    HW144248   6.778   7.575   3.041
80805SOL    HW244249   6.762   7.712   3.105
80806SOL     OW44250  11.142   5.866   7.602
80806SOL    HW144251  11.113   5.957   7.595
80806SOL    HW244252  11.061   5.815   7.604
80807SOL     OW44253   1.767  10.311   3.726
80807SOL    HW144254   1.753  10.236   3.784
80807SOL    HW244255   1.717  10.289   3.647
80808SOL     OW44256   8.156  13.536   2.882
80808SOL    HW144257   8.061  13.541   2.867
80808SOL    HW244258   8.186  13.471   2.819
80809SOL     OW44259   4.913   2.525   5.537
80809SOL    HW144260   4.907   2.575   5.619
80809SOL    HW244261   4.858   2.575   5.475
80810SOL     OW44262  11.851   0.154  10.016
80810SOL    HW144263  11.812   0.208   9.947
80810SOL    HW244264  11.790   0.081  10.026
80811SOL     OW44265   0.999   4.160   4.642
80811SOL    HW144266   1.090   4.130   4.640
80811SOL    HW244267   0.968   4.148   4.551
80812SOL     OW44268  13.527   5.433  10.441
80812SOL    HW144269  13.550   5.510  10.493
80812SOL    HW244270  13.433   5.444  10.423
80813SOL     OW44271   3.110   6.185   0.583
80813SOL    HW144272   3.161   6.194   0.663
80813SOL    HW244273   3.174   6.166   0.515
80814SOL     OW44274   0.894  12.323   8.303
80814SOL    HW144275   0.802  12.302   8.283
80814SOL    HW244276   0.941  12.241   8.286
80815SOL     OW44277  12.658   6.850   1.953
80815SOL    HW144278  12.693   6.919   2.010
80815SOL    HW244279  12.735   6.816   1.908
80816SOL     OW44280   9.475   9.264  13.306
80816SOL    HW144281   9.493   9.319  13.383
80816SOL    HW244282   9.555   9.271  13.253
80817SOL     OW44283   3.947   5.308   5.221
80817SOL    HW144284   3.946   5.231   5.164
80817SOL    HW244285   3.857   5.339   5.221
80818SOL     OW44286   6.415   9.986   8.516
80818SOL    HW144287   6.470  10.058   8.545
80818SOL    HW244288   6.463   9.948   8.442
80819SOL     OW44289   7.176  10.809   0.134
80819SOL    HW144290   7.244  10.798   0.068
80819SOL    HW244291   7.128  10.887   0.107
80820SOL     OW44292   5.952  10.301  11.735
80820SOL    HW144293   5.913  10.339  11.657
80820SOL    HW244294   6.042  10.279  11.709
80821SOL     OW44295   4.187  12.164   9.143
80821SOL    HW144296   4.232  12.151   9.059
80821SOL    HW244297   4.243  12.120   9.207
80822SOL     OW44298   2.859  11.203  13.634
80822SOL    HW144299   2.954  11.209  13.647
80822SOL    HW244300   2.848  11.149  13.556
80823SOL     OW44301   3.254   8.133   6.407
80823SOL    HW144302   3.167   8.152   6.372
80823SOL    HW244303   3.314   8.188   6.357
80824SOL     OW44304   7.074   4.544   3.083
80824SOL    HW144305   7.166   4.560   3.061
80824SOL    HW244306   7.059   4.594   3.163
80825SOL     OW44307  13.520  12.743  13.466
80825SOL    HW144308  13.493  12.718  13.554
80825SOL    HW244309  13.534  12.659  13.421
80826SOL     OW44310   4.191  11.801   3.384
80826SOL    HW144311   4.123  11.859   3.351
80826SOL    HW244312   4.201  11.733   3.317
80827SOL     OW44313   2.305   0.622   5.451
80827SOL    HW144314   2.321   0.599   5.543
80827SOL    HW244315   2.391   0.643   5.416
80828SOL     OW44316  10.808   2.907   1.028
80828SOL    HW144317  10.873   2.969   1.062
80828SOL    HW244318  10.751   2.959   0.972
80829SOL     OW44319   3.458  10.783   5.299
80829SOL    HW144320   3.410  10.866   5.306
80829SOL    HW244321   3.475  10.773   5.205
80830SOL     OW44322   4.487  11.251   3.027
80830SOL    HW144323   4.402  11.292   3.038
80830SOL    HW244324   4.537  11.278   3.104
80831SOL     OW44325   6.768  10.856   6.737
80831SOL    HW144326   6.777  10.898   6.651
80831SOL    HW244327   6.681  10.880   6.767
80832SOL     OW44328  13.919   8.844   2.145
80832SOL    HW144329  13.993   8.813   2.198
80832SOL    HW244330  13.882   8.765   2.106
80833SOL     OW44331   2.108  10.873   7.614
80833SOL    HW144332   2.023  10.904   7.585
80833SOL    HW244333   2.166  10.948   7.605
80834SOL     OW44334  10.767   1.237  13.762
80834SOL    HW144335  10.789   1.327  13.787
80834SOL    HW244336  10.750   1.193  13.845
80835SOL     OW44337  12.628   1.589   2.537
80835SOL    HW144338  12.701   1.529   2.522
80835SOL    HW244339  12.661   1.674   2.509
80836SOL     OW44340   3.892   7.060   8.137
80836SOL    HW144341   3.910   7.043   8.045
80836SOL    HW244342   3.973   7.035   8.182
80837SOL     OW44343  12.660   6.980   6.967
80837SOL    HW144344  12.692   7.002   6.880
80837SOL    HW244345  12.585   6.922   6.951
80838SOL     OW44346   1.402   8.112   5.554
80838SOL    HW144347   1.352   8.032   5.546
80838SOL    HW244348   1.349   8.168   5.611
80839SOL     OW44349   6.098   0.973  11.293
80839SOL    HW144350   6.150   0.935  11.221
80839SOL    HW244351   6.126   0.926  11.371
80840SOL     OW44352   3.380  10.029  13.038
80840SOL    HW144353   3.443   9.981  13.092
80840SOL    HW244354   3.435  10.083  12.980
80841SOL     OW44355   8.127   8.232   6.057
80841SOL    HW144356   8.067   8.165   6.091
80841SOL    HW244357   8.072   8.285   5.999
80842SOL     OW44358  11.355  11.033  10.970
80842SOL    HW144359  11.397  10.996  10.892
80842SOL    HW244360  11.395  11.120  10.981
80843SOL     OW44361   1.079  14.695   2.192
80843SOL    HW144362   1.122  14.761   2.246
80843SOL    HW244363   1.018  14.744   2.137
80844SOL     OW44364   0.596   7.934   0.535
80844SOL    HW144365   0.599   7.962   0.444
80844SOL    HW244366   0.612   8.014   0.585
80845SOL     OW44367  12.071   6.707   6.711
80845SOL    HW144368  12.105   6.759   6.637
80845SOL    HW244369  12.039   6.627   6.671
80846SOL     OW44370   1.952  11.061  10.997
80846SOL    HW144371   2.015  10.990  11.001
80846SOL    HW244372   1.914  11.065  11.086
80847SOL     OW44373   9.931   0.843  11.243
80847SOL    HW144374   9.959   0.754  11.219
80847SOL    HW244375   9.878   0.830  11.321
80848SOL     OW44376   8.960   0.369   4.024
80848SOL    HW144377   9.007   0.307   3.968
80848SOL    HW244378   8.941   0.320   4.104
80849SOL     OW44379   1.088   4.476   7.742
80849SOL    HW144380   1.066   4.412   7.675
80849SOL    HW244381   1.093   4.425   7.823
80850SOL     OW44382  13.347   1.323  13.467
80850SOL    HW144383  13.357   1.228  13.456
80850SOL    HW244384  13.408   1.345  13.537
80851SOL     OW44385  13.246  10.314   2.781
80851SOL    HW144386  13.274  10.396   2.823
80851SOL    HW244387  13.327  10.264   2.771
80852SOL     OW44388  11.661   8.052   9.481
80852SOL    HW144389  11.714   8.084   9.553
80852SOL    HW244390  11.680   7.958   9.476
80853SOL     OW44391  12.550  13.837   0.227
80853SOL    HW144392  12.466  13.849   0.184
80853SOL    HW244393  12.528  13.820   0.319
80854SOL     OW44394   9.863  12.830   8.366
80854SOL    HW144395   9.929  12.886   8.326
80854SOL    HW244396   9.901  12.742   8.362
80855SOL     OW44397   2.804  13.210   3.542
80855SOL    HW144398   2.894  13.227   3.569
80855SOL    HW244399   2.810  13.134   3.484
80856SOL     OW44400   3.646  10.116   6.256
80856SOL    HW144401   3.569  10.080   6.211
80856SOL    HW244402   3.614  10.194   6.300
80857SOL     OW44403   2.280   2.186   7.411
80857SOL    HW144404   2.226   2.121   7.367
80857SOL    HW244405   2.295   2.150   7.498
80858SOL     OW44406   4.018   6.236  11.093
80858SOL    HW144407   4.012   6.264  11.002
80858SOL    HW244408   3.938   6.269  11.134
80859SOL     OW44409   6.479   8.706  13.784
80859SOL    HW144410   6.552   8.731  13.727
80859SOL    HW244411   6.466   8.781  13.842
80860SOL     OW44412   8.322   6.174  10.739
80860SOL    HW144413   8.329   6.080  10.753
80860SOL    HW244414   8.385   6.194  10.670
80861SOL     OW44415  10.363   2.218   4.187
80861SOL    HW144416  10.279   2.220   4.142
80861SOL    HW244417  10.403   2.135   4.162
80862SOL     OW44418  14.568   0.912   7.996
80862SOL    HW144419  14.569   0.958   8.080
80862SOL    HW244420  14.660   0.892   7.979
80863SOL     OW44421   9.117   1.374   9.798
80863SOL    HW144422   9.187   1.435   9.775
80863SOL    HW244423   9.151   1.324   9.871
80864SOL     OW44424   3.138   0.685   0.539
80864SOL    HW144425   3.101   0.601   0.512
80864SOL    HW244426   3.136   0.683   0.635
80865SOL     OW44427   8.364   9.321   2.123
80865SOL    HW144428   8.358   9.414   2.100
80865SOL    HW244429   8.297   9.310   2.190
80866SOL     OW44430   2.853  13.144   5.855
80866SOL    HW144431   2.759  13.129   5.852
80866SOL    HW244432   2.876  13.142   5.948
80867SOL     OW44433   2.844  11.963   0.649
80867SOL    HW144434   2.929  11.920   0.639
80867SOL    HW244435   2.780  11.893   0.632
80868SOL     OW44436   4.704  11.556  14.357
80868SOL    HW144437   4.756  11.516  14.287
80868SOL    HW244438   4.704  11.649  14.337
80869SOL     OW44439   8.646   7.214  12.721
80869SOL    HW144440   8.571   7.205  12.662
80869SOL    HW244441   8.722   7.201  12.665
80870SOL     OW44442   3.071  10.268   3.877
80870SOL    HW144443   3.015  10.213   3.822
80870SOL    HW244444   3.100  10.209   3.947
80871SOL     OW44445   2.808   9.289   5.774
80871SOL    HW144446   2.895   9.253   5.758
80871SOL    HW244447   2.763   9.281   5.689
80872SOL     OW44448   5.735  13.889  10.807
80872SOL    HW144449   5.813  13.917  10.855
80872SOL    HW244450   5.708  13.966  10.758
80873SOL     OW44451   3.999   4.136   0.980
80873SOL    HW144452   3.982   4.216   1.030
80873SOL    HW244453   3.938   4.072   1.016
80874SOL     OW44454   7.789   0.852   9.303
80874SOL    HW144455   7.699   0.873   9.279
80874SOL    HW244456   7.781   0.785   9.370
80875SOL     OW44457  13.102   6.949  13.911
80875SOL    HW144458  13.099   6.996  13.827
80875SOL    HW244459  13.073   6.861  13.890
80876SOL     OW44460   4.232  11.085   4.747
80876SOL    HW144461   4.310  11.132   4.778
80876SOL    HW244462   4.265  10.998   4.724
80877SOL     OW44463   2.909   7.274  12.365
80877SOL    HW144464   2.820   7.305  12.380
80877SOL    HW244465   2.923   7.286  12.271
80878SOL     OW44466  13.835   4.123  14.157
80878SOL    HW144467  13.830   4.181  14.081
80878SOL    HW244468  13.754   4.140  14.206
80879SOL     OW44469  12.854   7.751  10.466
80879SOL    HW144470  12.833   7.739  10.558
80879SOL    HW244471  12.845   7.846  10.452
80880SOL     OW44472   9.067  12.136   3.253
80880SOL    HW144473   9.087  12.206   3.191
80880SOL    HW244474   9.015  12.074   3.203
80881SOL     OW44475   4.783   1.188  11.687
80881SOL    HW144476   4.834   1.260  11.649
80881SOL    HW244477   4.822   1.174  11.773
80882SOL     OW44478  11.277   9.472  13.773
80882SOL    HW144479  11.362   9.486  13.814
80882SOL    HW244480  11.261   9.551  13.722
80883SOL     OW44481   0.692   7.536   5.643
80883SOL    HW144482   0.689   7.631   5.643
80883SOL    HW244483   0.714   7.513   5.734
80884SOL     OW44484   8.533  11.887   1.738
80884SOL    HW144485   8.469  11.863   1.671
80884SOL    HW244486   8.596  11.942   1.691
80885SOL     OW44487  11.543  10.833  10.553
80885SOL    HW144488  11.490  10.797  10.481
80885SOL    HW244489  11.542  10.765  10.620
80886SOL     OW44490   2.121   8.324   5.038
80886SOL    HW144491   2.130   8.408   5.083
80886SOL    HW244492   2.027   8.309   5.033
80887SOL     OW44493   9.052  11.474  10.540
80887SOL    HW144494   9.031  11.436  10.454
80887SOL    HW244495   9.124  11.420  10.572
80888SOL     OW44496   6.761   2.105  14.769
80888SOL    HW144497   6.844   2.071  14.803
80888SOL    HW244498   6.699   2.033  14.781
80889SOL     OW44499   5.185  10.660  12.539
80889SOL    HW144500   5.178  10.660  12.634
80889SOL    HW244501   5.238  10.583  12.519
80890SOL     OW44502   0.807   7.608   9.950
80890SOL    HW144503   0.776   7.627   9.862
80890SOL    HW244504   0.746   7.543   9.984
80891SOL     OW44505   1.322   0.203  12.190
80891SOL    HW144506   1.344   0.264  12.120
80891SOL    HW244507   1.274   0.255  12.254
80892SOL     OW44508   4.909   3.451   9.757
80892SOL    HW144509   4.941   3.537   9.731
80892SOL    HW244510   4.856   3.421   9.683
80893SOL     OW44511  10.453  11.932   9.677
80893SOL    HW144512  10.364  11.928   9.713
80893SOL    HW244513  10.445  11.992   9.602
80894SOL     OW44514   7.672   7.765   1.197
80894SOL    HW144515   7.745   7.750   1.256
80894SOL    HW244516   7.604   7.703   1.224
80895SOL     OW44517   7.917  14.608   8.762
80895SOL    HW144518   7.830  14.573   8.778
80895SOL    HW244519   7.952  14.554   8.691
80896SOL     OW44520   6.734   4.247   4.322
80896SOL    HW144521   6.810   4.260   4.265
80896SOL    HW244522   6.662   4.229   4.261
80897SOL     OW44523   4.716  14.279  13.873
80897SOL    HW144524   4.631  14.243  13.849
80897SOL    HW244525   4.716  14.280  13.969
80898SOL     OW44526   1.113   0.378   7.217
80898SOL    HW144527   1.031   0.406   7.256
80898SOL    HW244528   1.159   0.460   7.197
80899SOL     OW44529   8.037   6.591  11.522
80899SOL    HW144530   8.028   6.582  11.427
80899SOL    HW244531   8.017   6.504  11.555
80900SOL     OW44532   9.744  10.396   5.178
80900SOL    HW144533   9.709  10.379   5.265
80900SOL    HW244534   9.836  10.418   5.192
80901SOL     OW44535   2.274   7.328   8.710
80901SOL    HW144536   2.369   7.313   8.709
80901SOL    HW244537   2.247   7.316   8.619
80902SOL     OW44538   1.502  11.873  10.379
80902SOL    HW144539   1.410  11.881  10.407
80902SOL    HW244540   1.496  11.839  10.289
80903SOL     OW44541  14.738  11.886   8.123
80903SOL    HW144542  14.717  11.794   8.138
80903SOL    HW244543  14.811  11.904   8.182
80904SOL     OW44544   4.445   9.634  11.584
80904SOL    HW144545   4.508   9.582  11.534
80904SOL    HW244546   4.360   9.610  11.547
80905SOL     OW44547   9.431   5.355   4.644
80905SOL    HW144548   9.508   5.405   4.615
80905SOL    HW244549   9.379   5.418   4.694
80906SOL     OW44550   2.684   5.032   8.027
80906SOL    HW144551   2.637   5.066   7.951
80906SOL    HW244552   2.640   4.950   8.048
80907SOL     OW44553   1.320   7.745   6.703
80907SOL    HW144554   1.314   7.780   6.613
80907SOL    HW244555   1.334   7.652   6.691
80908SOL     OW44556  13.890  11.496   7.902
80908SOL    HW144557  13.915  11.405   7.888
80908SOL    HW244558  13.963  11.534   7.950
80909SOL     OW44559   2.898   2.613   8.172
80909SOL    HW144560   2.985   2.585   8.146
80909SOL    HW244561   2.910   2.648   8.261
80910SOL     OW44562   7.410   0.404   6.282
80910SOL    HW144563   7.403   0.477   6.344
80910SOL    HW244564   7.320   0.373   6.272
80911SOL     OW44565   6.270  12.433  13.896
80911SOL    HW144566   6.354  12.391  13.878
80911SOL    HW244567   6.292  12.507  13.953
80912SOL     OW44568  13.782   0.178   2.148
80912SOL    HW144569  13.849   0.127   2.193
80912SOL    HW244570  13.805   0.269   2.165
80913SOL     OW44571   2.376   1.050  12.593
80913SOL    HW144572   2.360   1.118  12.528
80913SOL    HW244573   2.360   1.094  12.677
80914SOL     OW44574   7.602   4.218  14.037
80914SOL    HW144575   7.533   4.262  13.988
80914SOL    HW244576   7.682   4.235  13.986
80915SOL     OW44577   3.987  14.784   3.436
80915SOL    HW144578   4.019  14.725   3.504
80915SOL    HW244579   3.910  14.740   3.400
80916SOL     OW44580  14.172  10.195   5.105
80916SOL    HW144581  14.237  10.125   5.100
80916SOL    HW244582  14.222  10.276   5.101
80917SOL     OW44583   5.421   7.825   3.257
80917SOL    HW144584   5.374   7.822   3.341
80917SOL    HW244585   5.472   7.906   3.262
80918SOL     OW44586   5.367  13.337  14.040
80918SOL    HW144587   5.298  13.401  14.022
80918SOL    HW244588   5.445  13.373  13.997
80919SOL     OW44589   1.857  10.218  11.178
80919SOL    HW144590   1.880  10.159  11.250
80919SOL    HW244591   1.941  10.249  11.145
80920SOL     OW44592   6.741  10.984   2.192
80920SOL    HW144593   6.657  10.941   2.174
80920SOL    HW244594   6.723  11.077   2.178
80921SOL     OW44595   0.290  12.902   6.194
80921SOL    HW144596   0.362  12.855   6.236
80921SOL    HW244597   0.212  12.851   6.216
80922SOL     OW44598   4.985   3.553   6.003
80922SOL    HW144599   4.976   3.509   6.088
80922SOL    HW244600   4.915   3.618   6.002
80923SOL     OW44601  14.147   1.708   7.851
80923SOL    HW144602  14.056   1.733   7.866
80923SOL    HW244603  14.145   1.613   7.842
80924SOL     OW44604  13.395   8.085   7.700
80924SOL    HW144605  13.369   8.132   7.780
80924SOL    HW244606  13.471   8.133   7.668
80925SOL     OW44607   3.074   3.520   5.588
80925SOL    HW144608   3.086   3.615   5.589
80925SOL    HW244609   3.055   3.498   5.679
80926SOL     OW44610  10.402  12.132   3.985
80926SOL    HW144611  10.382  12.062   3.923
80926SOL    HW244612  10.338  12.121   4.055
80927SOL     OW44613   7.083  11.971  11.348
80927SOL    HW144614   7.105  12.058  11.314
80927SOL    HW244615   7.095  11.913  11.273
80928SOL     OW44616  12.496   9.088   9.890
80928SOL    HW144617  12.460   9.040   9.816
80928SOL    HW244618  12.497   9.180   9.861
80929SOL     OW44619  10.568  12.006   7.099
80929SOL    HW144620  10.614  12.080   7.141
80929SOL    HW244621  10.615  11.992   7.017
80930SOL     OW44622   3.251   5.632  11.283
80930SOL    HW144623   3.304   5.563  11.324
80930SOL    HW244624   3.225   5.688  11.356
80931SOL     OW44625  14.874   3.152  14.077
80931SOL    HW144626   0.042   3.159  13.993
80931SOL    HW244627   0.051   3.199  14.139
80932SOL     OW44628  12.437   4.542   4.904
80932SOL    HW144629  12.387   4.594   4.842
80932SOL    HW244630  12.484   4.479   4.850
80933SOL     OW44631   9.468   9.178  14.628
80933SOL    HW144632   9.485   9.112  14.695
80933SOL    HW244633   9.395   9.142  14.577
80934SOL     OW44634   3.753   2.087   4.595
80934SOL    HW144635   3.748   2.028   4.520
80934SOL    HW244636   3.665   2.086   4.632
80935SOL     OW44637  11.281   1.221   0.393
80935SOL    HW144638  11.231   1.142   0.412
80935SOL    HW244639  11.327   1.202   0.311
80936SOL     OW44640   1.250  13.151   7.371
80936SOL    HW144641   1.215  13.238   7.391
80936SOL    HW244642   1.271  13.114   7.456
80937SOL     OW44643   4.480  13.618  10.216
80937SOL    HW144644   4.509  13.620  10.124
80937SOL    HW244645   4.411  13.551  10.217
80938SOL     OW44646   9.760   1.854   2.092
80938SOL    HW144647   9.797   1.910   2.160
80938SOL    HW244648   9.666   1.872   2.095
80939SOL     OW44649  11.639   1.815  13.168
80939SOL    HW144650  11.572   1.747  13.174
80939SOL    HW244651  11.687   1.808  13.251
80940SOL     OW44652   8.957   1.155   0.941
80940SOL    HW144653   9.048   1.182   0.951
80940SOL    HW244654   8.915   1.182   1.023
80941SOL     OW44655   5.291   2.888   3.841
80941SOL    HW144656   5.337   2.806   3.856
80941SOL    HW244657   5.358   2.955   3.849
80942SOL     OW44658  11.334   0.935  12.537
80942SOL    HW144659  11.268   0.895  12.480
80942SOL    HW244660  11.288   1.008  12.579
80943SOL     OW44661   9.851   5.546   8.717
80943SOL    HW144662   9.798   5.626   8.720
80943SOL    HW244663   9.846   5.510   8.806
80944SOL     OW44664  10.456   4.403   6.266
80944SOL    HW144665  10.445   4.422   6.173
80944SOL    HW244666  10.505   4.321   6.268
80945SOL     OW44667   6.836   8.683   9.672
80945SOL    HW144668   6.776   8.654   9.740
80945SOL    HW244669   6.780   8.715   9.602
80946SOL     OW44670   9.681   0.347   1.825
80946SOL    HW144671   9.631   0.310   1.898
80946SOL    HW244672   9.625   0.417   1.792
80947SOL     OW44673   9.493   0.509  13.592
80947SOL    HW144674   9.446   0.584  13.555
80947SOL    HW244675   9.559   0.487  13.526
80948SOL     OW44676   9.871   7.145  14.214
80948SOL    HW144677   9.934   7.117  14.149
80948SOL    HW244678   9.866   7.240  14.205
80949SOL     OW44679   3.356   3.937   9.055
80949SOL    HW144680   3.430   3.939   9.115
80949SOL    HW244681   3.318   4.025   9.061
80950SOL     OW44682  12.143  11.671   7.163
80950SOL    HW144683  12.058  11.713   7.155
80950SOL    HW244684  12.148  11.643   7.254
80951SOL     OW44685   9.653   9.856   3.657
80951SOL    HW144686   9.604   9.931   3.691
80951SOL    HW244687   9.685   9.810   3.735
80952SOL     OW44688  13.210   5.147   9.662
80952SOL    HW144689  13.221   5.062   9.620
80952SOL    HW244690  13.166   5.129   9.745
80953SOL     OW44691  13.589  11.553   9.026
80953SOL    HW144692  13.598  11.547   8.930
80953SOL    HW244693  13.495  11.553   9.042
80954SOL     OW44694  10.015   3.785   5.346
80954SOL    HW144695   9.920   3.784   5.338
80954SOL    HW244696  10.036   3.708   5.398
80955SOL     OW44697  14.328   2.065   7.090
80955SOL    HW144698  14.386   2.138   7.114
80955SOL    HW244699  14.387   1.995   7.064
80956SOL     OW44700   2.575   0.412   5.072
80956SOL    HW144701   2.507   0.381   5.012
80956SOL    HW244702   2.526   0.449   5.146
80957SOL     OW44703  12.401  10.672   1.014
80957SOL    HW144704  12.371  10.762   1.002
80957SOL    HW244705  12.478  10.665   0.958
80958SOL     OW44706   3.365   1.379   2.158
80958SOL    HW144707   3.350   1.433   2.080
80958SOL    HW244708   3.418   1.306   2.127
80959SOL     OW44709  13.547   7.844   1.857
80959SOL    HW144710  13.520   7.931   1.826
80959SOL    HW244711  13.633   7.830   1.816
80960SOL     OW44712  10.270  11.597  11.875
80960SOL    HW144713  10.320  11.662  11.826
80960SOL    HW244714  10.234  11.539  11.808
80961SOL     OW44715   0.825  10.464   4.307
80961SOL    HW144716   0.874  10.545   4.326
80961SOL    HW244717   0.882  10.414   4.249
80962SOL     OW44718   7.207   4.248  12.918
80962SOL    HW144719   7.163   4.330  12.899
80962SOL    HW244720   7.300   4.271  12.924
80963SOL     OW44721   2.052   6.359  14.342
80963SOL    HW144722   2.029   6.450  14.361
80963SOL    HW244723   2.116   6.366  14.271
80964SOL     OW44724  13.115   5.897   6.949
80964SOL    HW144725  13.089   5.982   6.982
80964SOL    HW244726  13.198   5.912   6.904
80965SOL     OW44727  11.959   3.986   1.385
80965SOL    HW144728  11.900   3.995   1.310
80965SOL    HW244729  12.042   4.023   1.354
80966SOL     OW44730   2.282   4.927   5.358
80966SOL    HW144731   2.285   5.023   5.357
80966SOL    HW244732   2.278   4.902   5.266
80967SOL     OW44733  11.479   6.288   3.626
80967SOL    HW144734  11.469   6.230   3.701
80967SOL    HW244735  11.389   6.311   3.602
80968SOL     OW44736   5.379   9.637   4.318
80968SOL    HW144737   5.302   9.593   4.282
80968SOL    HW244738   5.443   9.566   4.330
80969SOL     OW44739   9.850   4.923   4.184
80969SOL    HW144740   9.837   4.908   4.090
80969SOL    HW244741   9.766   4.901   4.224
80970SOL     OW44742  10.533   8.310   4.369
80970SOL    HW144743  10.611   8.259   4.347
80970SOL    HW244744  10.466   8.276   4.310
80971SOL     OW44745   4.725  10.152   0.129
80971SOL    HW144746   4.750  10.243   0.144
80971SOL    HW244747   4.808  10.104   0.127
80972SOL     OW44748   3.352  11.378   6.088
80972SOL    HW144749   3.327  11.286   6.080
80972SOL    HW244750   3.308  11.422   6.015
80973SOL     OW44751  12.399  14.368   1.129
80973SOL    HW144752  12.322  14.391   1.180
80973SOL    HW244753  12.441  14.297   1.178
80974SOL     OW44754   4.237   9.482  12.292
80974SOL    HW144755   4.317   9.431  12.280
80974SOL    HW244756   4.197   9.486  12.205
80975SOL     OW44757  11.793   4.194   6.942
80975SOL    HW144758  11.797   4.231   7.030
80975SOL    HW244759  11.801   4.100   6.955
80976SOL     OW44760   4.736   3.744   6.416
80976SOL    HW144761   4.718   3.804   6.488
80976SOL    HW244762   4.712   3.658   6.449
80977SOL     OW44763   6.161   7.009   0.577
80977SOL    HW144764   6.207   6.979   0.499
80977SOL    HW244765   6.216   6.979   0.650
80978SOL     OW44766  11.184   6.320   5.074
80978SOL    HW144767  11.241   6.364   5.136
80978SOL    HW244768  11.097   6.322   5.115
80979SOL     OW44769  11.408   1.301   2.560
80979SOL    HW144770  11.324   1.257   2.547
80979SOL    HW244771  11.406   1.329   2.651
80980SOL     OW44772   2.634   6.870   1.212
80980SOL    HW144773   2.643   6.961   1.238
80980SOL    HW244774   2.710   6.826   1.250
80981SOL     OW44775   4.695   4.766   8.941
80981SOL    HW144776   4.697   4.673   8.964
80981SOL    HW244777   4.702   4.767   8.846
80982SOL     OW44778  14.559  11.882   3.778
80982SOL    HW144779  14.584  11.853   3.690
80982SOL    HW244780  14.464  11.877   3.778
80983SOL     OW44781   4.246   5.946  12.954
80983SOL    HW144782   4.258   5.889  12.878
80983SOL    HW244783   4.213   6.028  12.918
80984SOL     OW44784   7.773   5.698   4.399
80984SOL    HW144785   7.760   5.768   4.463
80984SOL    HW244786   7.840   5.642   4.438
80985SOL     OW44787   7.127   4.479  12.768
80985SOL    HW144788   7.072   4.546  12.728
80985SOL    HW244789   7.207   4.478  12.715
80986SOL     OW44790  13.484   7.558  12.513
80986SOL    HW144791  13.579   7.558  12.524
80986SOL    HW244792  13.470   7.586  12.423
80987SOL     OW44793  13.419  13.425   1.416
80987SOL    HW144794  13.445  13.479   1.490
80987SOL    HW244795  13.387  13.487   1.350
80988SOL     OW44796  12.527  13.423  11.193
80988SOL    HW144797  12.570  13.396  11.112
80988SOL    HW244798  12.455  13.361  11.203
80989SOL     OW44799  13.865   8.383   3.564
80989SOL    HW144800  13.867   8.340   3.478
80989SOL    HW244801  13.785   8.350   3.605
80990SOL     OW44802  12.422  14.260   9.883
80990SOL    HW144803  12.494  14.304   9.929
80990SOL    HW244804  12.464  14.190   9.834
80991SOL     OW44805   6.996  13.403   4.747
80991SOL    HW144806   7.051  13.334   4.709
80991SOL    HW244807   7.023  13.482   4.702
80992SOL     OW44808  14.200  14.728   2.415
80992SOL    HW144809  14.240  14.753   2.332
80992SOL    HW244810  14.271  14.684   2.463
80993SOL     OW44811  11.200  11.950  10.995
80993SOL    HW144812  11.280  11.898  10.986
80993SOL    HW244813  11.219  12.010  11.067
80994SOL     OW44814  14.542  13.232   9.269
80994SOL    HW144815  14.519  13.144   9.300
80994SOL    HW244816  14.616  13.258   9.324
80995SOL     OW44817   8.412  14.856   8.135
80995SOL    HW144818   8.447  14.832   8.049
80995SOL    HW244819   8.448  14.791   8.194
80996SOL     OW44820   0.984  12.509   3.733
80996SOL    HW144821   1.046  12.502   3.660
80996SOL    HW244822   0.934  12.589   3.715
80997SOL     OW44823   0.058   4.009  13.721
80997SOL    HW144824   0.053   3.962  13.638
80997SOL    HW244825  14.853   4.054  13.729
80998SOL     OW44826   3.762   8.212  12.658
80998SOL    HW144827   3.672   8.223  12.688
80998SOL    HW244828   3.784   8.296  12.617
80999SOL     OW44829   8.763   3.120  14.649
80999SOL    HW144830   8.806   3.089  14.570
80999SOL    HW244831   8.737   3.210  14.628
81000SOL     OW44832  12.866   6.402   2.329
81000SOL    HW144833  12.875   6.491   2.294
81000SOL    HW244834  12.931   6.351   2.281
81001SOL     OW44835   4.249   3.516   7.554
81001SOL    HW144836   4.186   3.568   7.504
81001SOL    HW244837   4.234   3.426   7.526
81002SOL     OW44838   3.314  11.053  12.267
81002SOL    HW144839   3.309  10.982  12.203
81002SOL    HW244840   3.323  11.132  12.214
81003SOL     OW44841   9.687   9.250  14.222
81003SOL    HW144842   9.595   9.227  14.239
81003SOL    HW244843   9.709   9.202  14.142
81004SOL     OW44844  12.247  11.829  10.947
81004SOL    HW144845  12.176  11.891  10.967
81004SOL    HW244846  12.327  11.880  10.958
81005SOL     OW44847   1.998  13.807   6.153
81005SOL    HW144848   2.073  13.866   6.157
81005SOL    HW244849   2.033  13.721   6.173
81006SOL     OW44850   8.578   1.464   8.741
81006SOL    HW144851   8.572   1.400   8.670
81006SOL    HW244852   8.565   1.412   8.820
81007SOL     OW44853   1.211  10.480  11.057
81007SOL    HW144854   1.288  10.427  11.077
81007SOL    HW244855   1.138  10.418  11.058
81008SOL     OW44856  12.868   4.588  13.051
81008SOL    HW144857  12.845   4.606  13.142
81008SOL    HW244858  12.786   4.602  13.003
81009SOL     OW44859  14.779  10.614   4.593
81009SOL    HW144860  14.837  10.668   4.646
81009SOL    HW244861  14.771  10.661   4.510
81010SOL     OW44862   5.910  14.199   7.235
81010SOL    HW144863   5.971  14.191   7.309
81010SOL    HW244864   5.927  14.122   7.182
81011SOL     OW44865   8.494   1.678   4.824
81011SOL    HW144866   8.419   1.726   4.789
81011SOL    HW244867   8.542   1.743   4.875
81012SOL     OW44868   0.629  11.807   6.721
81012SOL    HW144869   0.610  11.823   6.813
81012SOL    HW244870   0.682  11.882   6.694
81013SOL     OW44871  12.915  10.388   3.888
81013SOL    HW144872  12.885  10.369   3.799
81013SOL    HW244873  12.837  10.423   3.932
81014SOL     OW44874   3.656  14.599  14.833
81014SOL    HW144875   3.690  14.511  14.817
81014SOL    HW244876   3.565  14.586  14.858
81015SOL     OW44877   3.919  12.277  12.196
81015SOL    HW144878   3.860  12.209  12.229
81015SOL    HW244879   3.949  12.244  12.112
81016SOL     OW44880   6.545  12.802   6.835
81016SOL    HW144881   6.559  12.796   6.741
81016SOL    HW244882   6.586  12.723   6.870
81017SOL     OW44883   8.097   6.463   2.490
81017SOL    HW144884   8.011   6.428   2.513
81017SOL    HW244885   8.095   6.555   2.519
81018SOL     OW44886  13.961   6.183   8.955
81018SOL    HW144887  13.886   6.125   8.972
81018SOL    HW244888  13.928   6.246   8.891
81019SOL     OW44889   4.981   1.424  13.958
81019SOL    HW144890   4.960   1.516  13.947
81019SOL    HW244891   5.034   1.402  13.882
81020SOL     OW44892  10.624  11.197   8.241
81020SOL    HW144893  10.621  11.129   8.309
81020SOL    HW244894  10.711  11.236   8.249
81021SOL     OW44895   5.723   2.853   7.440
81021SOL    HW144896   5.647   2.816   7.485
81021SOL    HW244897   5.730   2.802   7.359
81022SOL     OW44898  13.919   7.206   7.982
81022SOL    HW144899  13.964   7.290   7.978
81022SOL    HW244900  13.990   7.141   7.977
81023SOL     OW44901  12.933   4.076   0.810
81023SOL    HW144902  13.001   4.036   0.755
81023SOL    HW244903  12.918   4.012   0.879
81024SOL     OW44904   4.331   2.889   2.020
81024SOL    HW144905   4.412   2.856   1.982
81024SOL    HW244906   4.358   2.962   2.077
81025SOL     OW44907  10.786   0.894   8.343
81025SOL    HW144908  10.869   0.922   8.304
81025SOL    HW244909  10.787   0.931   8.431
81026SOL     OW44910   0.825  10.772   2.829
81026SOL    HW144911   0.808  10.708   2.898
81026SOL    HW244912   0.917  10.797   2.841
81027SOL     OW44913  12.143  12.758  10.959
81027SOL    HW144914  12.083  12.832  10.970
81027SOL    HW244915  12.099  12.700  10.896
81028SOL     OW44916   2.682   5.676  10.382
81028SOL    HW144917   2.730   5.605  10.339
81028SOL    HW244918   2.750   5.740  10.404
81029SOL     OW44919  13.237  13.814   5.324
81029SOL    HW144920  13.148  13.785   5.305
81029SOL    HW244921  13.265  13.760   5.399
81030SOL     OW44922  14.390  14.411  13.632
81030SOL    HW144923  14.465  14.438  13.579
81030SOL    HW244924  14.426  14.392  13.718
81031SOL     OW44925  10.639  14.029   3.164
81031SOL    HW144926  10.584  14.102   3.135
81031SOL    HW244927  10.671  13.989   3.083
81032SOL     OW44928   1.889   6.380  14.588
81032SOL    HW144929   1.908   6.336  14.505
81032SOL    HW244930   1.952   6.452  14.592
81033SOL     OW44931   3.267   0.011   5.407
81033SOL    HW144932   3.275   0.106   5.409
81033SOL    HW244933   3.186  14.872   5.456
81034SOL     OW44934  14.760   6.428   4.525
81034SOL    HW144935  14.820   6.405   4.454
81034SOL    HW244936  14.809   6.411   4.605
81035SOL     OW44937   6.549  14.042  11.689
81035SOL    HW144938   6.587  14.003  11.610
81035SOL    HW244939   6.604  14.118  11.707
81036SOL     OW44940   3.279   0.396   3.448
81036SOL    HW144941   3.348   0.419   3.387
81036SOL    HW244942   3.206   0.369   3.393
81037SOL     OW44943  12.183  13.757  11.062
81037SOL    HW144944  12.142  13.744  11.147
81037SOL    HW244945  12.262  13.703  11.064
81038SOL     OW44946   5.877  14.695   4.703
81038SOL    HW144947   5.858  14.606   4.735
81038SOL    HW244948   5.864  14.751   4.779
81039SOL     OW44949   3.686   4.930   9.502
81039SOL    HW144950   3.778   4.943   9.524
81039SOL    HW244951   3.639   4.998   9.550
81040SOL     OW44952   4.349   6.488   0.347
81040SOL    HW144953   4.364   6.582   0.349
81040SOL    HW244954   4.404   6.454   0.418
81041SOL     OW44955   1.675   2.918   1.138
81041SOL    HW144956   1.748   2.968   1.176
81041SOL    HW244957   1.705   2.827   1.139
81042SOL     OW44958  13.892  14.543   5.683
81042SOL    HW144959  13.857  14.614   5.737
81042SOL    HW244960  13.817  14.486   5.668
81043SOL     OW44961   1.680  12.432  12.445
81043SOL    HW144962   1.651  12.495  12.378
81043SOL    HW244963   1.611  12.434  12.511
81044SOL     OW44964   4.731   0.403   2.038
81044SOL    HW144965   4.676   0.355   2.100
81044SOL    HW244966   4.675   0.472   2.003
81045SOL     OW44967  10.593   5.026  12.070
81045SOL    HW144968  10.659   5.096  12.066
81045SOL    HW244969  10.544   5.043  12.150
81046SOL     OW44970   4.694   4.589   1.407
81046SOL    HW144971   4.784   4.618   1.389
81046SOL    HW244972   4.642   4.629   1.337
81047SOL     OW44973   1.786  12.248   2.891
81047SOL    HW144974   1.843  12.289   2.956
81047SOL    HW244975   1.738  12.181   2.939
81048SOL     OW44976  14.437   4.459   9.415
81048SOL    HW144977  14.463   4.474   9.324
81048SOL    HW244978  14.357   4.510   9.426
81049SOL     OW44979   8.912   6.480   3.060
81049SOL    HW144980   8.966   6.558   3.070
81049SOL    HW244981   8.936   6.444   2.975
81050SOL     OW44982  12.260   4.822   8.645
81050SOL    HW144983  12.252   4.852   8.736
81050SOL    HW244984  12.345   4.854   8.616
81051SOL     OW44985  11.860   1.413   0.291
81051SOL    HW144986  11.820   1.386   0.208
81051SOL    HW244987  11.943   1.365   0.295
81052SOL     OW44988   6.067   9.990  11.820
81052SOL    HW144989   6.083  10.081  11.796
81052SOL    HW244990   6.061   9.991  11.916
81053SOL     OW44991   9.297   8.856   1.185
81053SOL    HW144992   9.282   8.812   1.268
81053SOL    HW244993   9.214   8.851   1.139
81054SOL     OW44994   9.741   3.292   2.086
81054SOL    HW144995   9.752   3.355   2.158
81054SOL    HW244996   9.737   3.207   2.129
81055SOL     OW44997  13.138   0.720  14.452
81055SOL    HW144998  13.056   0.685  14.486
81055SOL    HW244999  13.116   0.809  14.424
81056SOL     OW45000  11.215   4.065  14.777
81056SOL    HW145001  11.202   4.118  14.856
81056SOL    HW245002  11.132   4.021  14.764
81057SOL     OW45003  12.995   1.502   6.630
81057SOL    HW145004  12.961   1.517   6.718
81057SOL    HW245005  13.064   1.568   6.620
81058SOL     OW45006   7.215   9.109   0.671
81058SOL    HW145007   7.195   9.168   0.744
81058SOL    HW245008   7.295   9.144   0.632
81059SOL     OW45009  13.717   0.947  12.694
81059SOL    HW145010  13.679   0.880  12.637
81059SOL    HW245011  13.794   0.977  12.646
81060SOL     OW45012   9.249  12.698   2.767
81060SOL    HW145013   9.301  12.684   2.845
81060SOL    HW245014   9.283  12.635   2.703
81061SOL     OW45015   1.864   6.482   8.016
81061SOL    HW145016   1.917   6.531   8.078
81061SOL    HW245017   1.777   6.521   8.023
81062SOL     OW45018   4.883  11.818   0.411
81062SOL    HW145019   4.920  11.730   0.408
81062SOL    HW245020   4.788  11.805   0.407
81063SOL     OW45021  10.059  10.355   8.138
81063SOL    HW145022  10.140  10.304   8.133
81063SOL    HW245023   9.996  10.306   8.085
81064SOL     OW45024  10.922   5.704   3.318
81064SOL    HW145025  10.843   5.751   3.291
81064SOL    HW245026  10.894   5.651   3.393
81065SOL     OW45027  11.996   0.416   3.838
81065SOL    HW145028  11.936   0.371   3.778
81065SOL    HW245029  12.081   0.374   3.823
81066SOL     OW45030   5.087  10.012  13.329
81066SOL    HW145031   5.047   9.934  13.291
81066SOL    HW245032   5.181  10.001  13.312
81067SOL     OW45033  13.633   8.563   6.478
81067SOL    HW145034  13.680   8.483   6.499
81067SOL    HW245035  13.567   8.571   6.547
81068SOL     OW45036  14.813   7.008  10.312
81068SOL    HW145037  14.735   7.036  10.264
81068SOL    HW245038  14.826   7.077  10.377
81069SOL     OW45039   0.765   9.805   4.397
81069SOL    HW145040   0.742   9.724   4.352
81069SOL    HW245041   0.685   9.857   4.396
81070SOL     OW45042   0.278   4.593  11.530
81070SOL    HW145043   0.295   4.507  11.568
81070SOL    HW245044   0.350   4.648  11.561
81071SOL     OW45045   3.997   4.291  12.905
81071SOL    HW145046   3.939   4.317  12.976
81071SOL    HW245047   4.025   4.373  12.865
81072SOL     OW45048   8.120   5.377   2.395
81072SOL    HW145049   8.099   5.399   2.486
81072SOL    HW245050   8.035   5.366   2.353
81073SOL     OW45051  14.320   1.215   8.704
81073SOL    HW145052  14.397   1.262   8.671
81073SOL    HW245053  14.356   1.135   8.741
81074SOL     OW45054   9.132  12.292  13.712
81074SOL    HW145055   9.174  12.339  13.640
81074SOL    HW245056   9.057  12.248  13.672
81075SOL     OW45057  14.388   5.564   8.091
81075SOL    HW145058  14.429   5.616   8.022
81075SOL    HW245059  14.347   5.491   8.044
81076SOL     OW45060   7.173   5.731   0.828
81076SOL    HW145061   7.204   5.809   0.782
81076SOL    HW245062   7.254   5.688   0.857
81077SOL     OW45063  11.476   3.835  10.167
81077SOL    HW145064  11.419   3.897  10.212
81077SOL    HW245065  11.562   3.850  10.204
81078SOL     OW45066   9.383   9.270  12.334
81078SOL    HW145067   9.367   9.219  12.413
81078SOL    HW245068   9.312   9.335  12.332
81079SOL     OW45069   7.678  11.422   3.770
81079SOL    HW145070   7.681  11.517   3.781
81079SOL    HW245071   7.655  11.388   3.856
81080SOL     OW45072   4.021   6.604   8.659
81080SOL    HW145073   4.041   6.666   8.730
81080SOL    HW245074   3.957   6.545   8.697
81081SOL     OW45075   2.881   8.136   6.574
81081SOL    HW145076   2.824   8.106   6.503
81081SOL    HW245077   2.939   8.062   6.591
81082SOL     OW45078   1.054  10.091  14.462
81082SOL    HW145079   1.056  10.078  14.557
81082SOL    HW245080   1.037  10.003  14.427
81083SOL     OW45081   4.988  10.703   4.372
81083SOL    HW145082   4.919  10.758   4.410
81083SOL    HW245083   5.064  10.717   4.429
81084SOL     OW45084  10.364  11.388   1.232
81084SOL    HW145085  10.338  11.426   1.148
81084SOL    HW245086  10.299  11.320   1.249
81085SOL     OW45087  12.999  13.108  12.461
81085SOL    HW145088  12.935  13.141  12.524
81085SOL    HW245089  12.951  13.102  12.379
81086SOL     OW45090   5.185   6.369   9.702
81086SOL    HW145091   5.273   6.346   9.672
81086SOL    HW245092   5.171   6.314   9.779
81087SOL     OW45093  11.945   5.765  11.327
81087SOL    HW145094  11.950   5.744  11.420
81087SOL    HW245095  11.917   5.684  11.285
81088SOL     OW45096   4.814   5.008   4.405
81088SOL    HW145097   4.906   5.008   4.429
81088SOL    HW245098   4.799   4.923   4.366
81089SOL     OW45099  12.939  10.901   9.607
81089SOL    HW145100  12.902  10.946   9.531
81089SOL    HW245101  12.903  10.813   9.602
81090SOL     OW45102  12.610   3.569   2.526
81090SOL    HW145103  12.664   3.606   2.456
81090SOL    HW245104  12.671   3.554   2.598
81091SOL     OW45105  11.188   4.698  14.798
81091SOL    HW145106  11.244   4.622  14.812
81091SOL    HW245107  11.247   4.773  14.801
81092SOL     OW45108   6.002  14.719  12.020
81092SOL    HW145109   6.070  14.709  11.953
81092SOL    HW245110   6.044  14.770  12.090
81093SOL     OW45111  12.774   0.272  10.847
81093SOL    HW145112  12.798   0.361  10.822
81093SOL    HW245113  12.856   0.230  10.872
81094SOL     OW45114   5.944   6.320  14.380
81094SOL    HW145115   5.971   6.230  14.359
81094SOL    HW245116   5.969   6.331  14.471
81095SOL     OW45117  12.142   0.646  12.038
81095SOL    HW145118  12.203   0.694  11.982
81095SOL    HW245119  12.176   0.557  12.040
81096SOL     OW45120   1.368   7.310   9.890
81096SOL    HW145121   1.416   7.281   9.812
81096SOL    HW245122   1.436   7.334   9.953
81097SOL     OW45123  12.749   1.693   7.906
81097SOL    HW145124  12.760   1.609   7.860
81097SOL    HW245125  12.784   1.676   7.994
81098SOL     OW45126   0.142  11.376   1.472
81098SOL    HW145127   0.138  11.469   1.453
81098SOL    HW245128   0.234  11.359   1.490
81099SOL     OW45129   6.248   6.212  11.677
81099SOL    HW145130   6.233   6.149  11.606
81099SOL    HW245131   6.341   6.234  11.670
81100SOL     OW45132   4.775  12.391  12.312
81100SOL    HW145133   4.865  12.418  12.291
81100SOL    HW245134   4.784  12.309  12.360
81101SOL     OW45135   0.254  12.572  10.196
81101SOL    HW145136   0.267  12.667  10.194
81101SOL    HW245137   0.309  12.539  10.125
81102SOL     OW45138  13.815   0.307   2.812
81102SOL    HW145139  13.831   0.349   2.728
81102SOL    HW245140  13.768   0.374   2.863
81103SOL     OW45141  14.864  13.714  13.478
81103SOL    HW145142   0.017  13.719  13.568
81103SOL    HW245143  14.868  13.805  13.447
81104SOL     OW45144   5.140   6.127  10.235
81104SOL    HW145145   5.084   6.097  10.307
81104SOL    HW245146   5.229   6.113  10.267
81105SOL     OW45147   6.486   0.795  14.498
81105SOL    HW145148   6.526   0.788  14.585
81105SOL    HW245149   6.560   0.809  14.439
81106SOL     OW45150   7.103   9.766   9.977
81106SOL    HW145151   7.174   9.779   9.914
81106SOL    HW245152   7.146   9.774  10.062
81107SOL     OW45153  12.659   8.261   6.220
81107SOL    HW145154  12.584   8.304   6.262
81107SOL    HW245155  12.696   8.205   6.288
81108SOL     OW45156   4.038   0.372  13.501
81108SOL    HW145157   4.112   0.357  13.443
81108SOL    HW245158   4.043   0.465  13.524
81109SOL     OW45159   9.484   3.289  13.526
81109SOL    HW145160   9.503   3.251  13.440
81109SOL    HW245161   9.389   3.283  13.534
81110SOL     OW45162   9.188   2.926   1.072
81110SOL    HW145163   9.154   2.992   1.011
81110SOL    HW245164   9.282   2.927   1.058
81111SOL     OW45165   0.072   0.286   4.630
81111SOL    HW145166   0.106   0.292   4.719
81111SOL    HW245167   0.141   0.324   4.575
81112SOL     OW45168   1.102  13.963   6.265
81112SOL    HW145169   1.146  13.914   6.195
81112SOL    HW245170   1.097  13.901   6.338
81113SOL     OW45171  10.886   6.116   7.256
81113SOL    HW145172  10.821   6.148   7.193
81113SOL    HW245173  10.966   6.166   7.236
81114SOL     OW45174   7.479  14.659   7.355
81114SOL    HW145175   7.487  14.622   7.267
81114SOL    HW245176   7.447  14.586   7.408
81115SOL     OW45177   0.351   3.249  13.422
81115SOL    HW145178   0.443   3.269  13.438
81115SOL    HW245179   0.314   3.331  13.389
81116SOL     OW45180   6.570  14.374  13.178
81116SOL    HW145181   6.567  14.352  13.271
81116SOL    HW245182   6.503  14.319  13.138
81117SOL     OW45183   5.995   3.612  12.043
81117SOL    HW145184   5.931   3.544  12.065
81117SOL    HW245185   5.973   3.685  12.101
81118SOL     OW45186   0.768   6.363  11.183
81118SOL    HW145187   0.764   6.302  11.109
81118SOL    HW245188   0.823   6.319  11.248
81119SOL     OW45189   7.933  14.653  10.774
81119SOL    HW145190   7.897  14.738  10.747
81119SOL    HW245191   7.917  14.648  10.868
81120SOL     OW45192   4.769   9.636   1.314
81120SOL    HW145193   4.745   9.620   1.222
81120SOL    HW245194   4.685   9.640   1.360
81121SOL     OW45195   5.948   7.502   2.193
81121SOL    HW145196   5.966   7.460   2.277
81121SOL    HW245197   6.032   7.499   2.146
81122SOL     OW45198  13.735   8.285   2.357
81122SOL    HW145199  13.740   8.198   2.396
81122SOL    HW245200  13.729   8.345   2.432
81123SOL     OW45201   8.257   9.731   4.101
81123SOL    HW145202   8.343   9.711   4.139
81123SOL    HW245203   8.195   9.679   4.152
81124SOL     OW45204   5.034  10.415   7.684
81124SOL    HW145205   5.074  10.444   7.602
81124SOL    HW245206   4.965  10.354   7.656
81125SOL     OW45207   4.136   4.717  13.437
81125SOL    HW145208   4.083   4.712  13.358
81125SOL    HW245209   4.082   4.765  13.500
81126SOL     OW45210   1.134   4.262  10.254
81126SOL    HW145211   1.049   4.294  10.283
81126SOL    HW245212   1.115   4.201  10.183
81127SOL     OW45213   2.370  10.108  12.492
81127SOL    HW145214   2.460  10.108  12.460
81127SOL    HW245215   2.325  10.044  12.438
81128SOL     OW45216  14.496   6.621   2.154
81128SOL    HW145217  14.540   6.640   2.237
81128SOL    HW245218  14.515   6.529   2.137
81129SOL     OW45219   9.681   1.451   2.742
81129SOL    HW145220   9.716   1.540   2.733
81129SOL    HW245221   9.753   1.394   2.717
81130SOL     OW45222  13.644  13.258   4.399
81130SOL    HW145223  13.594  13.207   4.336
81130SOL    HW245224  13.682  13.330   4.347
81131SOL     OW45225   2.779  12.421   4.714
81131SOL    HW145226   2.701  12.476   4.724
81131SOL    HW245227   2.822  12.453   4.635
81132SOL     OW45228  12.475  12.927   1.732
81132SOL    HW145229  12.485  12.879   1.650
81132SOL    HW245230  12.506  13.016   1.711
81133SOL     OW45231   4.268   5.608   0.454
81133SOL    HW145232   4.273   5.561   0.370
81133SOL    HW245233   4.319   5.555   0.514
81134SOL     OW45234   1.745   2.268   1.716
81134SOL    HW145235   1.824   2.319   1.735
81134SOL    HW245236   1.775   2.177   1.713
81135SOL     OW45237   9.243   9.599   6.231
81135SOL    HW145238   9.295   9.679   6.226
81135SOL    HW245239   9.197   9.606   6.315
81136SOL     OW45240  13.801   9.125   2.856
81136SOL    HW145241  13.742   9.182   2.906
81136SOL    HW245242  13.808   9.167   2.770
81137SOL     OW45243   0.024   1.425   3.906
81137SOL    HW145244  14.849   1.384   3.838
81137SOL    HW245245  14.861   1.510   3.920
81138SOL     OW45246  11.002   0.265  14.155
81138SOL    HW145247  10.926   0.212  14.129
81138SOL    HW245248  11.078   0.216  14.124
81139SOL     OW45249   5.049   0.925   6.537
81139SOL    HW145250   5.097   0.939   6.618
81139SOL    HW245251   5.116   0.907   6.472
81140SOL     OW45252   2.835   4.669   5.600
81140SOL    HW145253   2.880   4.751   5.619
81140SOL    HW245254   2.860   4.648   5.510
81141SOL     OW45255   6.536   9.357   4.226
81141SOL    HW145256   6.600   9.294   4.259
81141SOL    HW245257   6.560   9.439   4.269
81142SOL     OW45258   8.373  13.116  10.082
81142SOL    HW145259   8.415  13.149  10.002
81142SOL    HW245260   8.284  13.095  10.055
81143SOL     OW45261   0.793   2.986   5.960
81143SOL    HW145262   0.776   2.931   6.036
81143SOL    HW245263   0.790   3.076   5.995
81144SOL     OW45264   1.632   6.167  12.221
81144SOL    HW145265   1.632   6.221  12.300
81144SOL    HW245266   1.541   6.138  12.212
81145SOL     OW45267  12.113  14.764  10.065
81145SOL    HW145268  12.023  14.770  10.099
81145SOL    HW245269  12.160  14.834  10.111
81146SOL     OW45270   9.251   1.062   2.515
81146SOL    HW145271   9.236   1.004   2.441
81146SOL    HW245272   9.167   1.067   2.560
81147SOL     OW45273  13.760   2.636   4.414
81147SOL    HW145274  13.853   2.614   4.401
81147SOL    HW245275  13.751   2.723   4.374
81148SOL     OW45276  10.825   2.447  12.446
81148SOL    HW145277  10.872   2.529  12.463
81148SOL    HW245278  10.849   2.424  12.356
81149SOL     OW45279   2.164   7.332   4.038
81149SOL    HW145280   2.076   7.303   4.060
81149SOL    HW245281   2.209   7.339   4.122
81150SOL     OW45282  12.983   9.713   2.430
81150SOL    HW145283  12.990   9.762   2.512
81150SOL    HW245284  12.924   9.765   2.376
81151SOL     OW45285   6.617   1.552   1.915
81151SOL    HW145286   6.548   1.591   1.969
81151SOL    HW245287   6.575   1.532   1.832
81152SOL     OW45288  14.714   6.786   9.309
81152SOL    HW145289  14.697   6.794   9.403
81152SOL    HW245290  14.641   6.733   9.276
81153SOL     OW45291   8.247  11.425   2.982
81153SOL    HW145292   8.335  11.434   2.945
81153SOL    HW245293   8.238  11.332   3.001
81154SOL     OW45294  11.538   7.780   9.211
81154SOL    HW145295  11.616   7.795   9.158
81154SOL    HW245296  11.495   7.706   9.168
81155SOL     OW45297   1.156   0.177  14.037
81155SOL    HW145298   1.183   0.238  14.105
81155SOL    HW245299   1.060   0.180  14.039
81156SOL     OW45300   7.496   1.694   3.358
81156SOL    HW145301   7.554   1.649   3.296
81156SOL    HW245302   7.485   1.632   3.430
81157SOL     OW45303   7.707  11.891   5.289
81157SOL    HW145304   7.763  11.815   5.308
81157SOL    HW245305   7.695  11.889   5.194
81158SOL     OW45306   6.091   4.406   8.438
81158SOL    HW145307   6.111   4.493   8.470
81158SOL    HW245308   6.031   4.420   8.365
81159SOL     OW45309   4.587   7.465   2.461
81159SOL    HW145310   4.542   7.381   2.465
81159SOL    HW245311   4.587   7.489   2.369
81160SOL     OW45312   4.489   7.621  11.379
81160SOL    HW145313   4.508   7.712  11.400
81160SOL    HW245314   4.441   7.588  11.454
81161SOL     OW45315   5.381   1.487  13.287
81161SOL    HW145316   5.390   1.464  13.379
81161SOL    HW245317   5.337   1.573  13.288
81162SOL     OW45318   1.433  13.460   4.887
81162SOL    HW145319   1.510  13.450   4.944
81162SOL    HW245320   1.469  13.457   4.798
81163SOL     OW45321   7.077   0.827   5.528
81163SOL    HW145322   7.055   0.735   5.543
81163SOL    HW245323   7.113   0.830   5.440
81164SOL     OW45324   8.963   4.589   5.764
81164SOL    HW145325   9.052   4.567   5.792
81164SOL    HW245326   8.919   4.619   5.844
81165SOL     OW45327   3.606   1.916  11.049
81165SOL    HW145328   3.567   1.898  10.963
81165SOL    HW245329   3.551   1.984  11.087
81166SOL     OW45330   4.622   8.781   8.140
81166SOL    HW145331   4.554   8.847   8.155
81166SOL    HW245332   4.573   8.702   8.116
81167SOL     OW45333   9.224   5.528   7.872
81167SOL    HW145334   9.283   5.456   7.892
81167SOL    HW245335   9.272   5.583   7.810
81168SOL     OW45336  11.117  10.234   2.850
81168SOL    HW145337  11.029  10.199   2.865
81168SOL    HW245338  11.156  10.174   2.786
81169SOL     OW45339  11.556   1.982  14.210
81169SOL    HW145340  11.472   1.955  14.173
81169SOL    HW245341  11.567   2.073  14.182
81170SOL     OW45342   5.154  11.892  14.603
81170SOL    HW145343   5.061  11.872  14.600
81170SOL    HW245344   5.171  11.913  14.695
81171SOL     OW45345   3.500   8.915  12.247
81171SOL    HW145346   3.584   8.957  12.265
81171SOL    HW245347   3.473   8.877  12.331
81172SOL     OW45348  13.921   0.153   4.652
81172SOL    HW145349  13.888   0.071   4.689
81172SOL    HW245350  13.843   0.201   4.627
81173SOL     OW45351   6.117   8.691   1.565
81173SOL    HW145352   6.066   8.724   1.492
81173SOL    HW245353   6.064   8.620   1.602
81174SOL     OW45354   4.375  13.338   2.450
81174SOL    HW145355   4.319  13.270   2.488
81174SOL    HW245356   4.380  13.406   2.518
81175SOL     OW45357  11.283   2.879   9.162
81175SOL    HW145358  11.376   2.863   9.175
81175SOL    HW245359  11.274   2.974   9.170
81176SOL     OW45360  14.021   4.188  12.038
81176SOL    HW145361  13.971   4.150  11.967
81176SOL    HW245362  14.057   4.269  12.002
81177SOL     OW45363   5.438   2.758  14.875
81177SOL    HW145364   5.349   2.791   0.004
81177SOL    HW245365   5.441   2.684   0.056
81178SOL     OW45366   7.086   7.326   5.095
81178SOL    HW145367   7.120   7.382   5.166
81178SOL    HW245368   6.992   7.344   5.093
81179SOL     OW45369   4.845   3.440   1.617
81179SOL    HW145370   4.925   3.411   1.572
81179SOL    HW245371   4.800   3.359   1.640
81180SOL     OW45372  14.119   0.520  10.966
81180SOL    HW145373  14.032   0.485  10.947
81180SOL    HW245374  14.164   0.520  10.882
81181SOL     OW45375   2.051  11.619  11.730
81181SOL    HW145376   2.121  11.676  11.699
81181SOL    HW245377   2.035  11.647  11.820
81182SOL     OW45378  11.489   8.339   9.679
81182SOL    HW145379  11.411   8.297   9.716
81182SOL    HW245380  11.485   8.319   9.585
81183SOL     OW45381  13.883   2.866  11.452
81183SOL    HW145382  13.927   2.934  11.504
81183SOL    HW245383  13.947   2.842  11.385
81184SOL     OW45384  13.952   7.099  12.163
81184SOL    HW145385  13.905   7.052  12.231
81184SOL    HW245386  13.958   7.036  12.090
81185SOL     OW45387   1.235  13.195   0.938
81185SOL    HW145388   1.322  13.232   0.920
81185SOL    HW245389   1.222  13.130   0.869
81186SOL     OW45390  11.497   8.555  14.108
81186SOL    HW145391  11.414   8.562  14.061
81186SOL    HW245392  11.498   8.630  14.167
81187SOL     OW45393  12.625  13.860  13.627
81187SOL    HW145394  12.639  13.895  13.539
81187SOL    HW245395  12.645  13.934  13.685
81188SOL     OW45396   6.913   7.957   2.639
81188SOL    HW145397   6.856   7.911   2.701
81188SOL    HW245398   6.858   8.027   2.603
81189SOL     OW45399   5.526   8.860   1.102
81189SOL    HW145400   5.523   8.833   1.194
81189SOL    HW245401   5.437   8.888   1.082
81190SOL     OW45402   4.026  11.566   8.495
81190SOL    HW145403   3.996  11.559   8.404
81190SOL    HW245404   4.110  11.520   8.496
81191SOL     OW45405   4.452  12.250  13.561
81191SOL    HW145406   4.357  12.262  13.565
81191SOL    HW245407   4.464  12.156  13.565
81192SOL     OW45408   2.538   0.651   1.451
81192SOL    HW145409   2.602   0.637   1.521
81192SOL    HW245410   2.518   0.563   1.419
81193SOL     OW45411  11.784   6.553   4.423
81193SOL    HW145412  11.695   6.561   4.458
81193SOL    HW245413  11.813   6.643   4.410
81194SOL     OW45414   4.033   8.638  12.904
81194SOL    HW145415   4.074   8.708  12.956
81194SOL    HW245416   4.045   8.665  12.813
81195SOL     OW45417   1.058   0.908   8.508
81195SOL    HW145418   1.113   0.844   8.553
81195SOL    HW245419   1.098   0.916   8.421
81196SOL     OW45420  13.547   2.771  14.642
81196SOL    HW145421  13.620   2.831  14.631
81196SOL    HW245422  13.563   2.729  14.726
81197SOL     OW45423   5.718  10.667   7.689
81197SOL    HW145424   5.749  10.598   7.749
81197SOL    HW245425   5.771  10.744   7.712
81198SOL     OW45426   9.649   5.059   7.379
81198SOL    HW145427   9.687   5.135   7.422
81198SOL    HW245428   9.670   5.070   7.286
81199SOL     OW45429   4.729   7.827   0.923
81199SOL    HW145430   4.748   7.775   0.845
81199SOL    HW245431   4.765   7.914   0.904
81200SOL     OW45432  11.024  12.418   0.621
81200SOL    HW145433  11.082  12.451   0.553
81200SOL    HW245434  11.030  12.484   0.691
81201SOL     OW45435   3.594  13.667  13.698
81201SOL    HW145436   3.612  13.727  13.771
81201SOL    HW245437   3.635  13.708  13.622
81202SOL     OW45438  11.797  13.406   3.236
81202SOL    HW145439  11.736  13.480   3.245
81202SOL    HW245440  11.774  13.366   3.152
81203SOL     OW45441   6.063   3.833  13.738
81203SOL    HW145442   5.996   3.897  13.761
81203SOL    HW245443   6.090   3.796  13.822
81204SOL     OW45444  14.112   5.425   7.531
81204SOL    HW145445  14.120   5.476   7.451
81204SOL    HW245446  14.166   5.471   7.595
81205SOL     OW45447   8.523   7.263  14.061
81205SOL    HW145448   8.455   7.277  14.127
81205SOL    HW245449   8.476   7.269  13.978
81206SOL     OW45450   0.440   1.732  13.965
81206SOL    HW145451   0.372   1.714  14.030
81206SOL    HW245452   0.425   1.822  13.939
81207SOL     OW45453  14.576  11.673   4.345
81207SOL    HW145454  14.644  11.607   4.358
81207SOL    HW245455  14.563  11.675   4.250
81208SOL     OW45456   4.395   2.411   4.918
81208SOL    HW145457   4.354   2.456   4.992
81208SOL    HW245458   4.391   2.475   4.846
81209SOL     OW45459  12.144   5.238   6.937
81209SOL    HW145460  12.061   5.282   6.918
81209SOL    HW245461  12.142   5.221   7.031
81210SOL     OW45462   6.033   2.672   1.943
81210SOL    HW145463   6.015   2.597   1.999
81210SOL    HW245464   6.038   2.636   1.854
81211SOL     OW45465  12.163   0.286  12.623
81211SOL    HW145466  12.087   0.343  12.638
81211SOL    HW245467  12.185   0.253  12.710
81212SOL     OW45468   7.168   8.528   2.452
81212SOL    HW145469   7.112   8.458   2.484
81212SOL    HW245470   7.255   8.488   2.445
81213SOL     OW45471   6.225   1.709   9.251
81213SOL    HW145472   6.242   1.760   9.330
81213SOL    HW245473   6.237   1.771   9.179
81214SOL     OW45474   1.518   4.211   5.487
81214SOL    HW145475   1.495   4.187   5.397
81214SOL    HW245476   1.549   4.130   5.527
81215SOL     OW45477  11.659   6.974   1.822
81215SOL    HW145478  11.659   7.069   1.810
81215SOL    HW245479  11.645   6.940   1.734
81216SOL     OW45480   0.416   4.462  10.687
81216SOL    HW145481   0.382   4.485  10.773
81216SOL    HW245482   0.470   4.537  10.661
81217SOL     OW45483   0.740   1.469   0.379
81217SOL    HW145484   0.726   1.419   0.459
81217SOL    HW245485   0.742   1.560   0.407
81218SOL     OW45486   3.116   7.532   5.099
81218SOL    HW145487   3.152   7.619   5.081
81218SOL    HW245488   3.143   7.480   5.023
81219SOL     OW45489   3.793   6.761   3.790
81219SOL    HW145490   3.829   6.752   3.702
81219SOL    HW245491   3.772   6.671   3.817
81220SOL     OW45492  10.752  14.462   2.274
81220SOL    HW145493  10.678  14.408   2.246
81220SOL    HW245494  10.825  14.401   2.285
81221SOL     OW45495   3.700   7.338   0.846
81221SOL    HW145496   3.722   7.399   0.776
81221SOL    HW245497   3.783   7.296   0.868
81222SOL     OW45498   4.933   0.539   9.168
81222SOL    HW145499   4.861   0.477   9.173
81222SOL    HW245500   4.896   0.621   9.201
81223SOL     OW45501   5.351  10.401   0.760
81223SOL    HW145502   5.424  10.340   0.773
81223SOL    HW245503   5.289  10.379   0.829
81224SOL     OW45504   2.660  11.575   6.298
81224SOL    HW145505   2.715  11.572   6.376
81224SOL    HW245506   2.630  11.665   6.293
81225SOL     OW45507   1.461  10.268   5.164
81225SOL    HW145508   1.540  10.215   5.175
81225SOL    HW245509   1.484  10.331   5.096
81226SOL     OW45510   5.383   3.602   6.979
81226SOL    HW145511   5.460   3.649   6.945
81226SOL    HW245512   5.419   3.537   7.039
81227SOL     OW45513  12.356  12.668  13.731
81227SOL    HW145514  12.309  12.586  13.740
81227SOL    HW245515  12.364  12.681  13.637
81228SOL     OW45516   1.358   6.970   6.393
81228SOL    HW145517   1.286   6.919   6.357
81228SOL    HW245518   1.324   7.006   6.474
81229SOL     OW45519   1.874  12.941  12.724
81229SOL    HW145520   1.859  12.847  12.740
81229SOL    HW245521   1.863  12.981  12.810
81230SOL     OW45522   4.553  13.743   3.107
81230SOL    HW145523   4.505  13.823   3.084
81230SOL    HW245524   4.588  13.760   3.194
81231SOL     OW45525   9.541   6.469  12.502
81231SOL    HW145526   9.526   6.421  12.584
81231SOL    HW245527   9.636   6.467  12.490
81232SOL     OW45528   1.827   9.737   5.228
81232SOL    HW145529   1.918   9.707   5.220
81232SOL    HW245530   1.817   9.758   5.321
81233SOL     OW45531   4.660   2.995   0.224
81233SOL    HW145532   4.743   2.984   0.178
81233SOL    HW245533   4.681   2.976   0.316
81234SOL     OW45534   3.584  12.264   4.587
81234SOL    HW145535   3.637  12.343   4.590
81234SOL    HW245536   3.501  12.292   4.548
81235SOL     OW45537   5.268  12.959   5.443
81235SOL    HW145538   5.330  12.886   5.435
81235SOL    HW245539   5.265  12.977   5.537
81236SOL     OW45540   5.428   8.434  14.638
81236SOL    HW145541   5.457   8.385  14.561
81236SOL    HW245542   5.509   8.454  14.686
81237SOL     OW45543   4.817  14.629   2.588
81237SOL    HW145544   4.863  14.582   2.657
81237SOL    HW245545   4.849  14.719   2.594
81238SOL     OW45546  10.819   3.790   8.078
81238SOL    HW145547  10.816   3.755   7.990
81238SOL    HW245548  10.860   3.722   8.131
81239SOL     OW45549  12.405   8.119  10.521
81239SOL    HW145550  12.453   8.125  10.603
81239SOL    HW245551  12.420   8.029  10.491
81240SOL     OW45552  13.485   3.836  12.936
81240SOL    HW145553  13.435   3.758  12.959
81240SOL    HW245554  13.445   3.907  12.987
81241SOL     OW45555  10.496   1.659   8.955
81241SOL    HW145556  10.464   1.602   8.885
81241SOL    HW245557  10.419   1.706   8.985
81242SOL     OW45558   9.677   6.859   7.805
81242SOL    HW145559   9.610   6.792   7.793
81242SOL    HW245560   9.694   6.860   7.899
81243SOL     OW45561   1.221   5.753  12.782
81243SOL    HW145562   1.295   5.716  12.830
81243SOL    HW245563   1.145   5.702  12.813
81244SOL     OW45564  11.861   4.877   7.129
81244SOL    HW145565  11.789   4.930   7.096
81244SOL    HW245566  11.870   4.805   7.067
81245SOL     OW45567   1.306  11.633   0.195
81245SOL    HW145568   1.283  11.596   0.110
81245SOL    HW245569   1.309  11.727   0.181
81246SOL     OW45570  14.505  13.981   9.772
81246SOL    HW145571  14.525  14.075   9.774
81246SOL    HW245572  14.529  13.954   9.683
81247SOL     OW45573  10.106   0.607   9.653
81247SOL    HW145574  10.068   0.695   9.647
81247SOL    HW245575  10.200   0.621   9.650
81248SOL     OW45576   0.307   8.878  12.177
81248SOL    HW145577   0.336   8.939  12.109
81248SOL    HW245578   0.381   8.820  12.192
81249SOL     OW45579   0.705   2.431  13.405
81249SOL    HW145580   0.795   2.396  13.405
81249SOL    HW245581   0.658   2.374  13.466
81250SOL     OW45582   4.283  12.726   6.372
81250SOL    HW145583   4.352  12.716   6.307
81250SOL    HW245584   4.207  12.757   6.322
81251SOL     OW45585   0.934   0.513   3.477
81251SOL    HW145586   1.027   0.518   3.453
81251SOL    HW245587   0.889   0.499   3.394
81252SOL     OW45588  14.093   8.442  12.590
81252SOL    HW145589  14.126   8.359  12.625
81252SOL    HW245590  14.170   8.486  12.554
81253SOL     OW45591   1.717   1.543  12.439
81253SOL    HW145592   1.758   1.458  12.427
81253SOL    HW245593   1.722   1.585  12.354
81254SOL     OW45594   3.817  13.722   1.661
81254SOL    HW145595   3.838  13.779   1.735
81254SOL    HW245596   3.894  13.727   1.605
81255SOL     OW45597   6.636  14.554   8.245
81255SOL    HW145598   6.596  14.627   8.198
81255SOL    HW245599   6.601  14.560   8.334
81256SOL     OW45600   0.685   2.790   7.456
81256SOL    HW145601   0.753   2.723   7.453
81256SOL    HW245602   0.656   2.791   7.547
81257SOL     OW45603   4.782   3.749   5.931
81257SOL    HW145604   4.836   3.824   5.958
81257SOL    HW245605   4.713   3.787   5.878
81258SOL     OW45606   4.869   8.081   4.673
81258SOL    HW145607   4.783   8.125   4.670
81258SOL    HW245608   4.901   8.096   4.761
81259SOL     OW45609   4.236  12.347  12.503
81259SOL    HW145610   4.218  12.274  12.444
81259SOL    HW245611   4.331  12.348  12.513
81260SOL     OW45612   3.576   7.695  13.580
81260SOL    HW145613   3.528   7.744  13.513
81260SOL    HW245614   3.622   7.761  13.631
81261SOL     OW45615   1.053  13.550  13.481
81261SOL    HW145616   0.973  13.522  13.437
81261SOL    HW245617   1.029  13.552  13.574
81262SOL     OW45618  10.019  14.281   3.649
81262SOL    HW145619   9.976  14.201   3.620
81262SOL    HW245620  10.098  14.286   3.596
81263SOL     OW45621   1.604   1.135   6.864
81263SOL    HW145622   1.693   1.138   6.900
81263SOL    HW245623   1.585   1.226   6.841
81264SOL     OW45624   5.636   3.383   3.527
81264SOL    HW145625   5.706   3.356   3.468
81264SOL    HW245626   5.569   3.315   3.516
81265SOL     OW45627   0.096   1.440   9.142
81265SOL    HW145628   0.095   1.346   9.124
81265SOL    HW245629   0.029   1.452   9.210
81266SOL     OW45630   5.627  10.086   5.442
81266SOL    HW145631   5.629   9.996   5.409
81266SOL    HW245632   5.718  10.115   5.439
81267SOL     OW45633   6.506  14.231   5.020
81267SOL    HW145634   6.516  14.165   4.951
81267SOL    HW245635   6.411  14.239   5.031
81268SOL     OW45636   5.249   8.825   7.266
81268SOL    HW145637   5.237   8.860   7.354
81268SOL    HW245638   5.338   8.851   7.241
81269SOL     OW45639   4.192   6.221  10.257
81269SOL    HW145640   4.204   6.131  10.287
81269SOL    HW245641   4.278   6.262  10.266
81270SOL     OW45642   3.289   4.311   3.599
81270SOL    HW145643   3.256   4.377   3.659
81270SOL    HW245644   3.358   4.356   3.549
81271SOL     OW45645   0.797   5.641  12.255
81271SOL    HW145646   0.751   5.639  12.339
81271SOL    HW245647   0.865   5.708  12.267
81272SOL     OW45648  13.192   4.511   5.926
81272SOL    HW145649  13.104   4.511   5.963
81272SOL    HW245650  13.215   4.419   5.919
81273SOL     OW45651  12.671  12.361   5.016
81273SOL    HW145652  12.718  12.436   5.054
81273SOL    HW245653  12.580  12.374   5.042
81274SOL     OW45654  12.022   3.664   3.720
81274SOL    HW145655  11.975   3.656   3.637
81274SOL    HW245656  12.091   3.727   3.702
81275SOL     OW45657  13.128   8.267   7.741
81275SOL    HW145658  13.183   8.250   7.817
81275SOL    HW245659  13.187   8.307   7.677
81276SOL     OW45660   2.344   6.330   5.025
81276SOL    HW145661   2.371   6.400   5.085
81276SOL    HW245662   2.425   6.284   5.004
81277SOL     OW45663  13.370   0.341   2.350
81277SOL    HW145664  13.456   0.321   2.387
81277SOL    HW245665  13.307   0.309   2.415
81278SOL     OW45666  12.559  13.922  12.814
81278SOL    HW145667  12.546  13.924  12.719
81278SOL    HW245668  12.474  13.949  12.851
81279SOL     OW45669  13.986   4.715   9.898
81279SOL    HW145670  13.938   4.686   9.820
81279SOL    HW245671  13.949   4.801   9.919
81280SOL     OW45672   2.743  13.540   9.678
81280SOL    HW145673   2.652  13.519   9.657
81280SOL    HW245674   2.794  13.473   9.632
81281SOL     OW45675   7.895   5.348  13.558
81281SOL    HW145676   7.840   5.281  13.517
81281SOL    HW245677   7.962   5.367  13.492
81282SOL     OW45678  12.837  10.900   8.511
81282SOL    HW145679  12.929  10.872   8.503
81282SOL    HW245680  12.813  10.878   8.600
81283SOL     OW45681   9.458  14.688   9.473
81283SOL    HW145682   9.486  14.727   9.556
81283SOL    HW245683   9.415  14.760   9.427
81284SOL     OW45684  11.351   4.217   5.879
81284SOL    HW145685  11.396   4.192   5.798
81284SOL    HW245686  11.261   4.188   5.866
81285SOL     OW45687  13.309  13.733  13.966
81285SOL    HW145688  13.322  13.811  13.912
81285SOL    HW245689  13.357  13.664  13.920
81286SOL     OW45690  10.546  13.235  10.529
81286SOL    HW145691  10.549  13.253  10.623
81286SOL    HW245692  10.496  13.154  10.522
81287SOL     OW45693   1.570   7.267   6.580
81287SOL    HW145694   1.622   7.341   6.547
81287SOL    HW245695   1.499   7.257   6.517
81288SOL     OW45696   9.450   8.933   1.737
81288SOL    HW145697   9.516   8.976   1.790
81288SOL    HW245698   9.433   8.993   1.665
81289SOL     OW45699   9.915  11.941   8.805
81289SOL    HW145700   9.885  11.852   8.786
81289SOL    HW245701   9.975  11.962   8.733
81290SOL     OW45702   0.357   8.244   3.334
81290SOL    HW145703   0.336   8.158   3.299
81290SOL    HW245704   0.274   8.292   3.332
81291SOL     OW45705   1.858   1.331  13.177
81291SOL    HW145706   1.851   1.237  13.163
81291SOL    HW245707   1.840   1.370  13.092
81292SOL     OW45708   9.400  14.265   1.699
81292SOL    HW145709   9.378  14.316   1.777
81292SOL    HW245710   9.347  14.303   1.629
81293SOL     OW45711   1.688   5.162  12.842
81293SOL    HW145712   1.685   5.253  12.811
81293SOL    HW245713   1.699   5.110  12.763
81294SOL     OW45714   4.013   2.840  13.888
81294SOL    HW145715   4.000   2.888  13.970
81294SOL    HW245716   4.108   2.835  13.877
81295SOL     OW45717  12.101   3.290   0.698
81295SOL    HW145718  12.176   3.328   0.653
81295SOL    HW245719  12.139   3.244   0.773
81296SOL     OW45720   6.672   6.677   9.352
81296SOL    HW145721   6.764   6.653   9.345
81296SOL    HW245722   6.664   6.757   9.300
81297SOL     OW45723   4.248   8.336   5.408
81297SOL    HW145724   4.177   8.340   5.472
81297SOL    HW245725   4.243   8.247   5.372
81298SOL     OW45726   2.397   4.806   6.344
81298SOL    HW145727   2.336   4.866   6.387
81298SOL    HW245728   2.343   4.731   6.319
81299SOL     OW45729   5.319  13.725  12.783
81299SOL    HW145730   5.237  13.681  12.806
81299SOL    HW245731   5.322  13.802  12.840
81300SOL     OW45732  13.009   3.470   6.381
81300SOL    HW145733  12.925   3.513   6.367
81300SOL    HW245734  13.074   3.534   6.350
81301SOL     OW45735  12.721  13.070   9.627
81301SOL    HW145736  12.734  13.104   9.539
81301SOL    HW245737  12.711  13.148   9.682
81302SOL     OW45738   5.397  10.261  10.902
81302SOL    HW145739   5.383  10.285  10.810
81302SOL    HW245740   5.460  10.189  10.900
81303SOL     OW45741  14.413  12.434   5.138
81303SOL    HW145742  14.452  12.351   5.165
81303SOL    HW245743  14.488  12.486   5.108
81304SOL     OW45744   1.149  12.289   4.118
81304SOL    HW145745   1.140  12.194   4.119
81304SOL    HW245746   1.229  12.306   4.168
81305SOL     OW45747  14.726   8.914   4.757
81305SOL    HW145748  14.664   8.981   4.728
81305SOL    HW245749  14.743   8.936   4.848
81306SOL     OW45750   6.639   4.476   8.896
81306SOL    HW145751   6.678   4.525   8.968
81306SOL    HW245752   6.701   4.484   8.824
81307SOL     OW45753   0.930   9.003   9.189
81307SOL    HW145754   0.901   8.926   9.238
81307SOL    HW245755   1.016   9.023   9.225
81308SOL     OW45756  10.653   6.759   2.034
81308SOL    HW145757  10.686   6.714   2.111
81308SOL    HW245758  10.681   6.850   2.045
81309SOL     OW45759  14.317   4.675   0.544
81309SOL    HW145760  14.236   4.704   0.585
81309SOL    HW245761  14.294   4.595   0.497
81310SOL     OW45762   5.851  13.014  14.402
81310SOL    HW145763   5.898  13.090  14.436
81310SOL    HW245764   5.911  12.941  14.415
81311SOL     OW45765  13.577   7.092   8.904
81311SOL    HW145766  13.512   7.023   8.892
81311SOL    HW245767  13.656   7.046   8.933
81312SOL     OW45768  10.991  14.705   3.268
81312SOL    HW145769  11.069  14.755   3.292
81312SOL    HW245770  10.948  14.686   3.351
81313SOL     OW45771   2.218   4.412   8.703
81313SOL    HW145772   2.237   4.325   8.737
81313SOL    HW245773   2.134   4.403   8.657
81314SOL     OW45774   4.510   8.395   2.328
81314SOL    HW145775   4.512   8.331   2.399
81314SOL    HW245776   4.426   8.380   2.284
81315SOL     OW45777   6.953   9.445  13.407
81315SOL    HW145778   7.022   9.508  13.428
81315SOL    HW245779   6.991   9.390  13.339
81316SOL     OW45780  12.932  11.401  10.435
81316SOL    HW145781  13.003  11.341  10.412
81316SOL    HW245782  12.854  11.346  10.435
81317SOL     OW45783   7.511   2.814  11.005
81317SOL    HW145784   7.425   2.786  11.036
81317SOL    HW245785   7.501   2.908  10.990
81318SOL     OW45786   3.107   0.637  13.761
81318SOL    HW145787   3.165   0.665  13.833
81318SOL    HW245788   3.023   0.621  13.803
81319SOL     OW45789   6.541  14.175  10.282
81319SOL    HW145790   6.578  14.196  10.369
81319SOL    HW245791   6.474  14.109  10.300
81320SOL     OW45792   5.812   4.633   4.646
81320SOL    HW145793   5.848   4.628   4.735
81320SOL    HW245794   5.764   4.715   4.644
81321SOL     OW45795   0.705   4.200   7.666
81321SOL    HW145796   0.661   4.173   7.585
81321SOL    HW245797   0.644   4.261   7.707
81322SOL     OW45798   8.958   8.078  11.640
81322SOL    HW145799   8.885   8.083  11.578
81322SOL    HW245800   8.978   7.985  11.646
81323SOL     OW45801   2.829   6.663   4.949
81323SOL    HW145802   2.840   6.680   5.042
81323SOL    HW245803   2.734   6.653   4.937
81324SOL     OW45804  10.833   2.569   7.222
81324SOL    HW145805  10.802   2.630   7.155
81324SOL    HW245806  10.764   2.568   7.287
81325SOL     OW45807   2.773  12.392   9.607
81325SOL    HW145808   2.859  12.392   9.648
81325SOL    HW245809   2.763  12.480   9.570
81326SOL     OW45810   8.265   5.654   4.622
81326SOL    HW145811   8.301   5.633   4.536
81326SOL    HW245812   8.331   5.710   4.663
81327SOL     OW45813  11.271   8.105   4.601
81327SOL    HW145814  11.178   8.118   4.579
81327SOL    HW245815  11.274   8.117   4.696
81328SOL     OW45816   4.253   9.299   8.131
81328SOL    HW145817   4.199   9.376   8.149
81328SOL    HW245818   4.315   9.328   8.064
81329SOL     OW45819   6.512   1.957  12.219
81329SOL    HW145820   6.525   2.052  12.210
81329SOL    HW245821   6.484   1.946  12.310
81330SOL     OW45822  12.567  12.670  12.527
81330SOL    HW145823  12.501  12.650  12.460
81330SOL    HW245824  12.573  12.590  12.580
81331SOL     OW45825   9.303   3.992   4.212
81331SOL    HW145826   9.329   3.946   4.132
81331SOL    HW245827   9.348   3.946   4.283
81332SOL     OW45828   3.342   4.942   3.481
81332SOL    HW145829   3.416   5.002   3.485
81332SOL    HW245830   3.267   4.996   3.508
81333SOL     OW45831  13.325   1.200   4.044
81333SOL    HW145832  13.245   1.181   4.092
81333SOL    HW245833  13.297   1.209   3.952
81334SOL     OW45834   7.338   0.230  14.783
81334SOL    HW145835   7.262   0.180  14.815
81334SOL    HW245836   7.350   0.298  14.848
81335SOL     OW45837  14.152  11.838   9.487
81335SOL    HW145838  14.072  11.843   9.435
81335SOL    HW245839  14.194  11.924   9.475
81336SOL     OW45840  13.207   7.583   2.294
81336SOL    HW145841  13.271   7.524   2.333
81336SOL    HW245842  13.230   7.670   2.328
81337SOL     OW45843  12.578   1.132   7.180
81337SOL    HW145844  12.550   1.223   7.193
81337SOL    HW245845  12.496   1.083   7.169
81338SOL     OW45846  10.308   2.557   0.079
81338SOL    HW145847  10.314   2.653   0.081
81338SOL    HW245848  10.322   2.530   0.170
81339SOL     OW45849   4.559   4.757  11.012
81339SOL    HW145850   4.468   4.767  10.984
81339SOL    HW245851   4.554   4.743  11.106
81340SOL     OW45852   5.715   4.505   9.818
81340SOL    HW145853   5.636   4.521   9.765
81340SOL    HW245854   5.719   4.580   9.878
81341SOL     OW45855   6.632   5.810   1.953
81341SOL    HW145856   6.615   5.731   2.005
81341SOL    HW245857   6.698   5.857   2.004
81342SOL     OW45858  11.276  14.374   6.188
81342SOL    HW145859  11.337  14.306   6.216
81342SOL    HW245860  11.295  14.388   6.096
81343SOL     OW45861   5.944   3.545   3.192
81343SOL    HW145862   5.948   3.640   3.184
81343SOL    HW245863   5.891   3.517   3.117
81344SOL     OW45864  12.074  10.851  12.449
81344SOL    HW145865  12.146  10.849  12.385
81344SOL    HW245866  12.005  10.797  12.409
81345SOL     OW45867   6.720   3.097   4.468
81345SOL    HW145868   6.661   3.077   4.540
81345SOL    HW245869   6.786   3.028   4.470
81346SOL     OW45870  11.821  10.414  12.599
81346SOL    HW145871  11.782  10.443  12.682
81346SOL    HW245872  11.838  10.320  12.613
81347SOL     OW45873   8.985   2.609   9.336
81347SOL    HW145874   9.035   2.678   9.380
81347SOL    HW245875   8.894   2.629   9.355
81348SOL     OW45876   2.476   1.542   3.186
81348SOL    HW145877   2.502   1.622   3.231
81348SOL    HW245878   2.461   1.478   3.256
81349SOL     OW45879   9.542  11.180  11.556
81349SOL    HW145880   9.486  11.218  11.489
81349SOL    HW245881   9.591  11.111  11.511
81350SOL     OW45882   9.832   7.736   4.607
81350SOL    HW145883   9.741   7.706   4.603
81350SOL    HW245884   9.835   7.794   4.683
81351SOL     OW45885   5.135  11.047   6.365
81351SOL    HW145886   5.044  11.054   6.394
81351SOL    HW245887   5.144  10.957   6.335
81352SOL     OW45888   0.486   4.623   3.526
81352SOL    HW145889   0.459   4.641   3.436
81352SOL    HW245890   0.412   4.651   3.579
81353SOL     OW45891   6.841   4.282  14.104
81353SOL    HW145892   6.769   4.333  14.143
81353SOL    HW245893   6.829   4.194  14.139
81354SOL     OW45894   6.466   6.967   2.620
81354SOL    HW145895   6.388   6.920   2.589
81354SOL    HW245896   6.439   7.007   2.702
81355SOL     OW45897   7.446  12.044  13.769
81355SOL    HW145898   7.365  12.057  13.818
81355SOL    HW245899   7.462  12.127  13.725
81356SOL     OW45900   9.940   4.821   1.043
81356SOL    HW145901   9.965   4.823   0.951
81356SOL    HW245902   9.932   4.728   1.065
81357SOL     OW45903  14.509   1.743   6.038
81357SOL    HW145904  14.521   1.785   6.123
81357SOL    HW245905  14.571   1.788   5.980
81358SOL     OW45906  11.824  14.694   0.758
81358SOL    HW145907  11.907  14.655   0.787
81358SOL    HW245908  11.756  14.636   0.792
81359SOL     OW45909   3.639   1.533   0.657
81359SOL    HW145910   3.732   1.551   0.644
81359SOL    HW245911   3.619   1.464   0.594
81360SOL     OW45912   8.404  10.797  11.836
81360SOL    HW145913   8.344  10.736  11.794
81360SOL    HW245914   8.378  10.883  11.804
81361SOL     OW45915  14.325   6.288  13.796
81361SOL    HW145916  14.334   6.204  13.751
81361SOL    HW245917  14.342   6.353  13.729
81362SOL     OW45918  10.348  12.828   0.768
81362SOL    HW145919  10.269  12.862   0.726
81362SOL    HW245920  10.417  12.841   0.703
81363SOL     OW45921  13.592   6.871   9.377
81363SOL    HW145922  13.581   6.907   9.465
81363SOL    HW245923  13.613   6.779   9.391
81364SOL     OW45924   3.063   9.943   7.248
81364SOL    HW145925   3.123   9.939   7.173
81364SOL    HW245926   3.106   9.889   7.315
81365SOL     OW45927   2.796   1.117   8.474
81365SOL    HW145928   2.769   1.208   8.488
81365SOL    HW245929   2.793   1.106   8.379
81366SOL     OW45930   4.381  10.118   5.427
81366SOL    HW145931   4.330  10.091   5.350
81366SOL    HW245932   4.402  10.210   5.411
81367SOL     OW45933   4.840  10.555   3.335
81367SOL    HW145934   4.805  10.562   3.246
81367SOL    HW245935   4.931  10.584   3.328
81368SOL     OW45936   4.411   7.933   0.577
81368SOL    HW145937   4.328   7.893   0.551
81368SOL    HW245938   4.435   7.889   0.658
81369SOL     OW45939   8.217   8.631   7.452
81369SOL    HW145940   8.148   8.692   7.480
81369SOL    HW245941   8.233   8.576   7.529
81370SOL     OW45942   1.978   0.565   5.566
81370SOL    HW145943   1.994   0.495   5.503
81370SOL    HW245944   1.978   0.522   5.651
81371SOL     OW45945   7.461   7.450   3.640
81371SOL    HW145946   7.501   7.529   3.603
81371SOL    HW245947   7.472   7.384   3.572
81372SOL     OW45948   5.939   6.113  11.478
81372SOL    HW145949   5.906   6.200  11.454
81372SOL    HW245950   5.861   6.057  11.478
81373SOL     OW45951   6.555  12.108  10.379
81373SOL    HW145952   6.631  12.050  10.389
81373SOL    HW245953   6.587  12.194  10.406
81374SOL     OW45954   3.763   1.343  12.950
81374SOL    HW145955   3.764   1.272  12.886
81374SOL    HW245956   3.837   1.399  12.925
81375SOL     OW45957  12.156   7.486   7.299
81375SOL    HW145958  12.097   7.414   7.277
81375SOL    HW245959  12.118   7.526   7.378
81376SOL     OW45960   8.735  11.635   8.796
81376SOL    HW145961   8.830  11.631   8.804
81376SOL    HW245962   8.719  11.694   8.723
81377SOL     OW45963   2.635   6.885  13.845
81377SOL    HW145964   2.619   6.876  13.939
81377SOL    HW245965   2.620   6.978  13.827
81378SOL     OW45966   4.792   0.653  14.412
81378SOL    HW145967   4.759   0.656  14.502
81378SOL    HW245968   4.831   0.739  14.398
81379SOL     OW45969   2.462   6.374  10.881
81379SOL    HW145970   2.437   6.452  10.931
81379SOL    HW245971   2.458   6.303  10.945
81380SOL     OW45972   1.695  10.162  13.167
81380SOL    HW145973   1.642  10.205  13.234
81380SOL    HW245974   1.660  10.073  13.161
81381SOL     OW45975  14.564   7.141   4.677
81381SOL    HW145976  14.551   7.234   4.695
81381SOL    HW245977  14.502   7.121   4.607
81382SOL     OW45978   5.191  11.410   1.725
81382SOL    HW145979   5.275  11.444   1.757
81382SOL    HW245980   5.128  11.432   1.793
81383SOL     OW45981   7.157   5.491   7.421
81383SOL    HW145982   7.188   5.567   7.471
81383SOL    HW245983   7.186   5.416   7.473
81384SOL     OW45984   7.723   4.093  12.546
81384SOL    HW145985   7.684   4.006  12.539
81384SOL    HW245986   7.817   4.076  12.550
81385SOL     OW45987   6.550   2.974  10.200
81385SOL    HW145988   6.523   2.992  10.290
81385SOL    HW245989   6.620   2.910  10.207
81386SOL     OW45990   7.410   1.269   9.319
81386SOL    HW145991   7.363   1.352   9.334
81386SOL    HW245992   7.502   1.294   9.317
81387SOL     OW45993  12.447   2.877   5.251
81387SOL    HW145994  12.503   2.806   5.221
81387SOL    HW245995  12.460   2.880   5.346
81388SOL     OW45996   8.644   5.116   8.960
81388SOL    HW145997   8.737   5.094   8.961
81388SOL    HW245998   8.638   5.191   8.901
81389SOL     OW45999   6.591   6.886  12.560
81389SOL    HW146000   6.511   6.926  12.527
81389SOL    HW246001   6.601   6.806  12.509
81390SOL     OW46002   4.096   9.067  11.105
81390SOL    HW146003   4.177   9.073  11.053
81390SOL    HW246004   4.046   8.998  11.063
81391SOL     OW46005   8.903  11.802   9.708
81391SOL    HW146006   8.831  11.742   9.685
81391SOL    HW246007   8.867  11.889   9.696
81392SOL     OW46008   6.195  10.691   4.122
81392SOL    HW146009   6.219  10.784   4.122
81392SOL    HW246010   6.160  10.675   4.210
81393SOL     OW46011   7.480   5.295   5.748
81393SOL    HW146012   7.552   5.304   5.810
81393SOL    HW246013   7.500   5.215   5.699
81394SOL     OW46014   1.638   7.646   4.891
81394SOL    HW146015   1.606   7.565   4.931
81394SOL    HW246016   1.694   7.686   4.957
81395SOL     OW46017   9.758   4.252   5.679
81395SOL    HW146018   9.705   4.173   5.667
81395SOL    HW246019   9.825   4.227   5.742
81396SOL     OW46020   4.883  12.086   8.336
81396SOL    HW146021   4.931  12.122   8.411
81396SOL    HW246022   4.870  11.994   8.358
81397SOL     OW46023   4.018  11.471   8.796
81397SOL    HW146024   4.034  11.491   8.703
81397SOL    HW246025   4.003  11.376   8.797
81398SOL     OW46026   6.554   7.958   0.593
81398SOL    HW146027   6.630   7.965   0.535
81398SOL    HW246028   6.479   7.955   0.533
81399SOL     OW46029  10.867   3.461   3.268
81399SOL    HW146030  10.932   3.531   3.257
81399SOL    HW246031  10.783   3.506   3.260
81400SOL     OW46032  11.500  10.251   4.574
81400SOL    HW146033  11.595  10.239   4.578
81400SOL    HW246034  11.476  10.284   4.661
81401SOL     OW46035   0.925   2.363   0.878
81401SOL    HW146036   0.839   2.398   0.903
81401SOL    HW246037   0.922   2.361   0.782
81402SOL     OW46038   5.405  12.587  14.174
81402SOL    HW146039   5.389  12.639  14.253
81402SOL    HW246040   5.389  12.647  14.102
81403SOL     OW46041   8.381   4.501  12.965
81403SOL    HW146042   8.429   4.582  12.982
81403SOL    HW246043   8.446   4.432  12.975
81404SOL     OW46044  11.026   6.325  13.002
81404SOL    HW146045  10.944   6.321  12.953
81404SOL    HW246046  11.001   6.300  13.092
81405SOL     OW46047   4.186  12.644   1.672
81405SOL    HW146048   4.135  12.725   1.668
81405SOL    HW246049   4.276  12.672   1.656
81406SOL     OW46050   4.055  10.886   5.478
81406SOL    HW146051   3.968  10.855   5.456
81406SOL    HW246052   4.041  10.969   5.523
81407SOL     OW46053  14.407   0.839   0.427
81407SOL    HW146054  14.436   0.752   0.401
81407SOL    HW246055  14.312   0.836   0.418
81408SOL     OW46056   4.783   8.103  13.916
81408SOL    HW146057   4.726   8.066  13.983
81408SOL    HW246058   4.742   8.187  13.893
81409SOL     OW46059   2.012   8.842   4.394
81409SOL    HW146060   2.086   8.891   4.358
81409SOL    HW246061   2.023   8.754   4.358
81410SOL     OW46062   6.592   9.798  11.803
81410SOL    HW146063   6.593   9.704  11.821
81410SOL    HW246064   6.682   9.827  11.820
81411SOL     OW46065   9.249   1.413  13.903
81411SOL    HW146066   9.302   1.357  13.847
81411SOL    HW246067   9.307   1.436  13.976
81412SOL     OW46068   4.975   2.516   4.832
81412SOL    HW146069   4.959   2.610   4.820
81412SOL    HW246070   4.991   2.507   4.926
81413SOL     OW46071  12.706   3.534  10.852
81413SOL    HW146072  12.802   3.530  10.852
81413SOL    HW246073  12.686   3.625  10.872
81414SOL     OW46074   3.463  12.616  11.289
81414SOL    HW146075   3.460  12.573  11.374
81414SOL    HW246076   3.389  12.580  11.240
81415SOL     OW46077   3.674  10.332   4.427
81415SOL    HW146078   3.759  10.288   4.419
81415SOL    HW246079   3.695  10.416   4.469
81416SOL     OW46080   6.647   7.271  10.757
81416SOL    HW146081   6.569   7.325  10.771
81416SOL    HW246082   6.653   7.262  10.662
81417SOL     OW46083   5.420   5.766   2.607
81417SOL    HW146084   5.470   5.713   2.545
81417SOL    HW246085   5.389   5.704   2.672
81418SOL     OW46086   2.378   5.754   1.830
81418SOL    HW146087   2.323   5.779   1.905
81418SOL    HW246088   2.370   5.828   1.770
81419SOL     OW46089  11.693   8.956   2.515
81419SOL    HW146090  11.759   9.014   2.552
81419SOL    HW246091  11.709   8.958   2.421
81420SOL     OW46092  10.230   6.999   2.036
81420SOL    HW146093  10.290   6.938   2.079
81420SOL    HW246094  10.183   6.945   1.972
81421SOL     OW46095  11.153  10.042   8.829
81421SOL    HW146096  11.064  10.070   8.805
81421SOL    HW246097  11.162  10.068   8.921
81422SOL     OW46098   1.045   6.623   5.950
81422SOL    HW146099   1.018   6.588   6.035
81422SOL    HW246100   1.025   6.552   5.888
81423SOL     OW46101  10.212   3.056  13.243
81423SOL    HW146102  10.131   3.106  13.241
81423SOL    HW246103  10.271   3.105  13.185
81424SOL     OW46104  13.803  14.830   3.594
81424SOL    HW146105  13.816  14.861   3.683
81424SOL    HW246106  13.760  14.745   3.604
81425SOL     OW46107  13.088   5.725   1.467
81425SOL    HW146108  13.033   5.711   1.390
81425SOL    HW246109  13.124   5.638   1.486
81426SOL     OW46110   8.741   1.339  12.842
81426SOL    HW146111   8.811   1.367  12.901
81426SOL    HW246112   8.709   1.420  12.802
81427SOL     OW46113  12.014  13.946  13.255
81427SOL    HW146114  12.081  14.000  13.295
81427SOL    HW246115  11.931  13.985  13.284
81428SOL     OW46116   0.806  14.026   5.181
81428SOL    HW146117   0.819  13.934   5.156
81428SOL    HW246118   0.721  14.049   5.144
81429SOL     OW46119  12.502   6.581  13.941
81429SOL    HW146120  12.486   6.627  13.858
81429SOL    HW246121  12.457   6.497  13.930
81430SOL     OW46122  13.030   3.686  10.207
81430SOL    HW146123  13.088   3.679  10.284
81430SOL    HW246124  13.014   3.780  10.199
81431SOL     OW46125   7.037   4.468   8.286
81431SOL    HW146126   6.948   4.504   8.280
81431SOL    HW246127   7.094   4.540   8.260
81432SOL     OW46128  14.538   5.627   4.970
81432SOL    HW146129  14.484   5.550   4.992
81432SOL    HW246130  14.524   5.640   4.877
81433SOL     OW46131   0.604  11.517  11.302
81433SOL    HW146132   0.575  11.572  11.375
81433SOL    HW246133   0.609  11.577  11.227
81434SOL     OW46134   6.460   6.864  13.531
81434SOL    HW146135   6.544   6.841  13.571
81434SOL    HW246136   6.447   6.956  13.557
81435SOL     OW46137   6.130   6.252  14.047
81435SOL    HW146138   6.147   6.211  14.131
81435SOL    HW246139   6.201   6.317  14.038
81436SOL     OW46140   6.537   6.076   2.203
81436SOL    HW146141   6.610   6.017   2.186
81436SOL    HW246142   6.578   6.161   2.217
81437SOL     OW46143   5.406   7.227   1.218
81437SOL    HW146144   5.418   7.181   1.135
81437SOL    HW246145   5.366   7.310   1.193
81438SOL     OW46146   8.385   2.945  14.688
81438SOL    HW146147   8.418   2.915  14.773
81438SOL    HW246148   8.347   2.867  14.648
81439SOL     OW46149   7.559  12.363  11.315
81439SOL    HW146150   7.505  12.415  11.375
81439SOL    HW246151   7.611  12.427  11.268
81440SOL     OW46152   9.804   2.241   3.086
81440SOL    HW146153   9.734   2.283   3.135
81440SOL    HW246154   9.882   2.293   3.106
81441SOL     OW46155  12.696  12.342   2.489
81441SOL    HW146156  12.715  12.249   2.494
81441SOL    HW246157  12.662  12.355   2.401
81442SOL     OW46158   6.159   7.800   9.223
81442SOL    HW146159   6.130   7.829   9.136
81442SOL    HW246160   6.238   7.851   9.239
81443SOL     OW46161  11.550   9.868  12.189
81443SOL    HW146162  11.487   9.817  12.138
81443SOL    HW246163  11.594   9.804  12.245
81444SOL     OW46164   8.661  12.011  12.724
81444SOL    HW146165   8.712  11.984  12.647
81444SOL    HW246166   8.616  11.931  12.751
81445SOL     OW46167   2.330   6.580   4.668
81445SOL    HW146168   2.274   6.525   4.723
81445SOL    HW246169   2.387   6.518   4.622
81446SOL     OW46170   2.044   7.823  11.197
81446SOL    HW146171   2.036   7.899  11.255
81446SOL    HW246172   1.967   7.827  11.140
81447SOL     OW46173   5.850  13.629   3.723
81447SOL    HW146174   5.908  13.684   3.775
81447SOL    HW246175   5.778  13.607   3.782
81448SOL     OW46176  11.268  12.162  11.909
81448SOL    HW146177  11.178  12.194  11.903
81448SOL    HW246178  11.260  12.077  11.953
81449SOL     OW46179   7.837   5.517   3.020
81449SOL    HW146180   7.890   5.592   3.047
81449SOL    HW246181   7.892   5.470   2.958
81450SOL     OW46182   6.035   1.391   2.822
81450SOL    HW146183   5.965   1.457   2.825
81450SOL    HW246184   6.101   1.428   2.764
81451SOL     OW46185   0.229  10.232  11.557
81451SOL    HW146186   0.245  10.178  11.479
81451SOL    HW246187   0.311  10.227  11.607
81452SOL     OW46188   4.852   8.274  11.434
81452SOL    HW146189   4.858   8.186  11.397
81452SOL    HW246190   4.830   8.330  11.360
81453SOL     OW46191   0.007   6.267   0.434
81453SOL    HW146192   0.033   6.209   0.505
81453SOL    HW246193   0.013   6.355   0.472
81454SOL     OW46194  12.791   4.938   9.428
81454SOL    HW146195  12.733   5.010   9.403
81454SOL    HW246196  12.732   4.863   9.437
81455SOL     OW46197  12.969   0.553   6.669
81455SOL    HW146198  12.927   0.508   6.595
81455SOL    HW246199  13.042   0.497   6.693
81456SOL     OW46200   7.212  10.582   2.828
81456SOL    HW146201   7.266  10.573   2.750
81456SOL    HW246202   7.264  10.638   2.886
81457SOL     OW46203   5.548  11.836   9.871
81457SOL    HW146204   5.615  11.870   9.931
81457SOL    HW246205   5.521  11.753   9.911
81458SOL     OW46206   6.770   0.202  11.765
81458SOL    HW146207   6.839   0.179  11.704
81458SOL    HW246208   6.691   0.161  11.730
81459SOL     OW46209   5.080   4.207   7.210
81459SOL    HW146210   4.993   4.202   7.170
81459SOL    HW246211   5.071   4.164   7.295
81460SOL     OW46212   2.368   4.384   3.864
81460SOL    HW146213   2.306   4.418   3.800
81460SOL    HW246214   2.440   4.349   3.812
81461SOL     OW46215  11.674   6.017   3.520
81461SOL    HW146216  11.588   5.983   3.493
81461SOL    HW246217  11.734   5.988   3.451
81462SOL     OW46218   5.208  12.788   0.223
81462SOL    HW146219   5.283  12.807   0.167
81462SOL    HW246220   5.245  12.740   0.298
81463SOL     OW46221   3.019   1.818   5.184
81463SOL    HW146222   3.096   1.837   5.132
81463SOL    HW246223   3.001   1.725   5.169
81464SOL     OW46224  14.593   9.328   4.224
81464SOL    HW146225  14.620   9.389   4.155
81464SOL    HW246226  14.663   9.263   4.228
81465SOL     OW46227   9.713   3.412  13.945
81465SOL    HW146228   9.635   3.434  13.893
81465SOL    HW246229   9.729   3.490  13.997
81466SOL     OW46230   5.446   2.894   8.119
81466SOL    HW146231   5.355   2.922   8.132
81466SOL    HW246232   5.462   2.831   8.189
81467SOL     OW46233   2.775   2.698   4.880
81467SOL    HW146234   2.754   2.626   4.820
81467SOL    HW246235   2.694   2.747   4.888
81468SOL     OW46236   0.220   1.617  11.784
81468SOL    HW146237   0.132   1.587  11.764
81468SOL    HW246238   0.252   1.556  11.851
81469SOL     OW46239  10.531  11.809  10.116
81469SOL    HW146240  10.553  11.761  10.196
81469SOL    HW246241  10.483  11.886  10.147
81470SOL     OW46242   9.556   2.771  13.413
81470SOL    HW146243   9.616   2.818  13.355
81470SOL    HW246244   9.513   2.708  13.355
81471SOL     OW46245  13.030   5.812   1.066
81471SOL    HW146246  12.956   5.768   1.107
81471SOL    HW246247  13.052   5.757   0.990
81472SOL     OW46248  11.522   9.096   7.350
81472SOL    HW146249  11.552   9.146   7.426
81472SOL    HW246250  11.429   9.080   7.366
81473SOL     OW46251  12.263  14.512  13.752
81473SOL    HW146252  12.358  14.503  13.750
81473SOL    HW246253  12.239  14.502  13.844
81474SOL     OW46254   4.773  13.914   4.695
81474SOL    HW146255   4.756  13.962   4.614
81474SOL    HW246256   4.807  13.829   4.666
81475SOL     OW46257   1.018   4.703  13.200
81475SOL    HW146258   1.059   4.729  13.282
81475SOL    HW246259   1.075   4.636  13.164
81476SOL     OW46260   2.344  12.053  14.734
81476SOL    HW146261   2.381  12.133  14.696
81476SOL    HW246262   2.380  12.050  14.822
81477SOL     OW46263  10.787  14.284   8.048
81477SOL    HW146264  10.716  14.297   7.985
81477SOL    HW246265  10.864  14.268   7.993
81478SOL     OW46266   0.952  13.728  12.790
81478SOL    HW146267   0.910  13.643  12.801
81478SOL    HW246268   0.882  13.786  12.763
81479SOL     OW46269   8.879   2.886   5.732
81479SOL    HW146270   8.788   2.865   5.711
81479SOL    HW246271   8.881   2.892   5.828
81480SOL     OW46272   7.381   2.671   2.246
81480SOL    HW146273   7.321   2.681   2.321
81480SOL    HW246274   7.454   2.619   2.281
81481SOL     OW46275   1.400   2.502  11.804
81481SOL    HW146276   1.423   2.515  11.712
81481SOL    HW246277   1.466   2.551  11.853
81482SOL     OW46278  10.138  10.657  13.667
81482SOL    HW146279  10.126  10.750  13.648
81482SOL    HW246280  10.223  10.635  13.628
81483SOL     OW46281   6.395   2.890  14.515
81483SOL    HW146282   6.397   2.939  14.597
81483SOL    HW246283   6.319   2.925  14.468
81484SOL     OW46284  12.927  11.147   6.741
81484SOL    HW146285  12.877  11.130   6.821
81484SOL    HW246286  13.017  11.159   6.770
81485SOL     OW46287   3.001  13.547  14.421
81485SOL    HW146288   3.033  13.629  14.459
81485SOL    HW246289   2.906  13.549  14.435
81486SOL     OW46290   4.099  12.582   4.859
81486SOL    HW146291   4.115  12.651   4.794
81486SOL    HW246292   4.061  12.628   4.934
81487SOL     OW46293   8.692   1.261  12.574
81487SOL    HW146294   8.715   1.286  12.663
81487SOL    HW246295   8.753   1.310  12.519
81488SOL     OW46296   7.198  14.061   9.239
81488SOL    HW146297   7.140  14.136   9.249
81488SOL    HW246298   7.153  13.989   9.284
81489SOL     OW46299   1.484   3.099  11.895
81489SOL    HW146300   1.451   3.165  11.834
81489SOL    HW246301   1.570   3.133  11.922
81490SOL     OW46302  10.449   0.107   8.477
81490SOL    HW146303  10.538   0.140   8.488
81490SOL    HW246304  10.402   0.136   8.555
81491SOL     OW46305   6.088  14.274  12.194
81491SOL    HW146306   6.154  14.324  12.145
81491SOL    HW246307   6.134  14.241  12.271
81492SOL     OW46308  14.317   0.896   8.256
81492SOL    HW146309  14.277   0.855   8.179
81492SOL    HW246310  14.242   0.928   8.307
81493SOL     OW46311   4.538   4.198  14.058
81493SOL    HW146312   4.593   4.274  14.041
81493SOL    HW246313   4.527   4.157  13.972
81494SOL     OW46314   2.306  12.624  12.046
81494SOL    HW146315   2.263  12.678  12.113
81494SOL    HW246316   2.316  12.538  12.088
81495SOL     OW46317   9.731  11.200  10.680
81495SOL    HW146318   9.749  11.228  10.590
81495SOL    HW246319   9.806  11.145  10.704
81496SOL     OW46320   0.268  14.407   0.146
81496SOL    HW146321   0.305  14.356   0.074
81496SOL    HW246322   0.343  14.435   0.197
81497SOL     OW46323   4.122   6.137   6.631
81497SOL    HW146324   4.141   6.224   6.598
81497SOL    HW246325   4.144   6.141   6.724
81498SOL     OW46326   8.932   3.018   9.987
81498SOL    HW146327   8.970   3.055   9.907
81498SOL    HW246328   8.938   2.923   9.974
81499SOL     OW46329   3.582   4.728  14.573
81499SOL    HW146330   3.636   4.650  14.583
81499SOL    HW246331   3.641   4.793  14.533
81500SOL     OW46332   2.020   0.031   7.133
81500SOL    HW146333   2.075  14.857   7.190
81500SOL    HW246334   2.067   0.033   7.049
81501SOL     OW46335   0.325   1.560  10.182
81501SOL    HW146336   0.306   1.473  10.147
81501SOL    HW246337   0.239   1.602  10.188
81502SOL     OW46338  13.794   0.999   8.572
81502SOL    HW146339  13.764   0.969   8.486
81502SOL    HW246340  13.865   0.938   8.594
81503SOL     OW46341   2.051  11.067   6.595
81503SOL    HW146342   2.006  11.148   6.572
81503SOL    HW246343   1.980  11.007   6.621
81504SOL     OW46344  14.273   7.879  12.819
81504SOL    HW146345  14.218   7.954  12.842
81504SOL    HW246346  14.221   7.829  12.756
81505SOL     OW46347  10.072   8.593   1.349
81505SOL    HW146348  10.053   8.683   1.325
81505SOL    HW246349  10.161   8.578   1.319
81506SOL     OW46350  11.346   5.436  13.626
81506SOL    HW146351  11.425   5.473  13.667
81506SOL    HW246352  11.316   5.369  13.688
81507SOL     OW46353  10.418  13.588  13.989
81507SOL    HW146354  10.396  13.668  13.941
81507SOL    HW246355  10.402  13.610  14.081
81508SOL     OW46356   8.947   9.289   2.239
81508SOL    HW146357   8.937   9.209   2.187
81508SOL    HW246358   8.911   9.267   2.325
81509SOL     OW46359   8.623   5.638   5.866
81509SOL    HW146360   8.718   5.636   5.879
81509SOL    HW246361   8.610   5.593   5.782
81510SOL     OW46362   4.448   2.024   2.252
81510SOL    HW146363   4.483   2.111   2.231
81510SOL    HW246364   4.404   2.036   2.337
81511SOL     OW46365   6.329   7.202   1.034
81511SOL    HW146366   6.298   7.216   1.123
81511SOL    HW246367   6.391   7.130   1.040
81512SOL     OW46368   5.396   2.403   4.196
81512SOL    HW146369   5.352   2.435   4.275
81512SOL    HW246370   5.437   2.322   4.223
81513SOL     OW46371   2.701   5.010  14.058
81513SOL    HW146372   2.760   4.938  14.036
81513SOL    HW246373   2.756   5.072  14.107
81514SOL     OW46374  14.394   5.023   8.687
81514SOL    HW146375  14.335   5.052   8.617
81514SOL    HW246376  14.456   4.965   8.644
81515SOL     OW46377   0.935   6.848   1.344
81515SOL    HW146378   0.913   6.939   1.361
81515SOL    HW246379   0.872   6.798   1.397
81516SOL     OW46380   3.622   3.634   0.129
81516SOL    HW146381   3.562   3.646   0.203
81516SOL    HW246382   3.577   3.675   0.055
81517SOL     OW46383  11.018   4.021   9.632
81517SOL    HW146384  10.990   4.044   9.721
81517SOL    HW246385  11.104   4.063   9.623
81518SOL     OW46386  14.654   7.069  13.382
81518SOL    HW146387  14.578   7.037  13.430
81518SOL    HW246388  14.658   7.014  13.304
81519SOL     OW46389  14.140  11.895   4.532
81519SOL    HW146390  14.234  11.879   4.538
81519SOL    HW246391  14.121  11.952   4.607
81520SOL     OW46392   3.341   9.479  14.749
81520SOL    HW146393   3.402   9.539  14.792
81520SOL    HW246394   3.303   9.427  14.820
81521SOL     OW46395   8.061   0.569   8.990
81521SOL    HW146396   8.089   0.650   8.947
81521SOL    HW246397   8.030   0.597   9.076
81522SOL     OW46398   7.883   7.829   9.703
81522SOL    HW146399   7.864   7.777   9.625
81522SOL    HW246400   7.977   7.845   9.698
81523SOL     OW46401  12.288   0.835  12.520
81523SOL    HW146402  12.302   0.757  12.573
81523SOL    HW246403  12.325   0.813  12.435
81524SOL     OW46404  11.097  14.225   7.793
81524SOL    HW146405  11.165  14.278   7.752
81524SOL    HW246406  11.022  14.232   7.733
81525SOL     OW46407   8.720   8.304   8.118
81525SOL    HW146408   8.681   8.388   8.141
81525SOL    HW246409   8.675   8.277   8.038
81526SOL     OW46410   5.829   6.161   1.590
81526SOL    HW146411   5.774   6.237   1.572
81526SOL    HW246412   5.839   6.119   1.505
81527SOL     OW46413  13.512  14.841  13.093
81527SOL    HW146414  13.436   0.012  13.060
81527SOL    HW246415  13.553  14.806  13.014
81528SOL     OW46416   7.659   4.522  13.789
81528SOL    HW146417   7.566   4.533  13.770
81528SOL    HW246418   7.674   4.574  13.868
81529SOL     OW46419   4.155   2.816   2.333
81529SOL    HW146420   4.209   2.763   2.391
81529SOL    HW246421   4.112   2.879   2.391
81530SOL     OW46422  12.349  11.767   0.643
81530SOL    HW146423  12.403  11.689   0.634
81530SOL    HW246424  12.361  11.814   0.561
81531SOL     OW46425  10.056  12.727  13.892
81531SOL    HW146426  10.076  12.680  13.812
81531SOL    HW246427  10.124  12.795  13.897
81532SOL     OW46428   2.274   2.926   0.392
81532SOL    HW146429   2.316   2.951   0.474
81532SOL    HW246430   2.189   2.891   0.419
81533SOL     OW46431  12.459   1.158   0.270
81533SOL    HW146432  12.497   1.070   0.273
81533SOL    HW246433  12.533   1.216   0.290
81534SOL     OW46434  11.311   7.953   9.321
81534SOL    HW146435  11.281   7.992   9.239
81534SOL    HW246436  11.379   7.891   9.294
81535SOL     OW46437   5.389  10.576  10.323
81535SOL    HW146438   5.400  10.563  10.229
81535SOL    HW246439   5.455  10.641  10.347
81536SOL     OW46440   6.684   4.268   0.527
81536SOL    HW146441   6.609   4.209   0.540
81536SOL    HW246442   6.668   4.340   0.589
81537SOL     OW46443  12.405   8.186   1.488
81537SOL    HW146444  12.348   8.124   1.534
81537SOL    HW246445  12.413   8.261   1.547
81538SOL     OW46446  12.591   5.215   3.873
81538SOL    HW146447  12.634   5.188   3.792
81538SOL    HW246448  12.529   5.145   3.891
81539SOL     OW46449  13.494  14.228   6.808
81539SOL    HW146450  13.583  14.236   6.841
81539SOL    HW246451  13.483  14.303   6.750
81540SOL     OW46452  12.400   2.615  14.781
81540SOL    HW146453  12.319   2.585  14.739
81540SOL    HW246454  12.469   2.593  14.718
81541SOL     OW46455   8.030   1.808   4.446
81541SOL    HW146456   7.996   1.719   4.430
81541SOL    HW246457   7.993   1.832   4.531
81542SOL     OW46458   8.173   4.264   9.971
81542SOL    HW146459   8.155   4.231  10.059
81542SOL    HW246460   8.126   4.204   9.913
81543SOL     OW46461   9.818   0.033  11.327
81543SOL    HW146462   9.812  14.817  11.316
81543SOL    HW246463   9.912   0.051  11.335
81544SOL     OW46464   9.335   9.711  14.738
81544SOL    HW146465   9.354   9.719  14.831
81544SOL    HW246466   9.394   9.642  14.706
81545SOL     OW46467   9.840   0.842   8.441
81545SOL    HW146468   9.917   0.866   8.391
81545SOL    HW246469   9.810   0.924   8.481
81546SOL     OW46470   4.597   2.756   4.874
81546SOL    HW146471   4.537   2.703   4.822
81546SOL    HW246472   4.565   2.748   4.963
81547SOL     OW46473  14.739   0.482  12.464
81547SOL    HW146474  14.732   0.572  12.496
81547SOL    HW246475  14.776   0.432  12.537
81548SOL     OW46476  10.805   2.101  11.821
81548SOL    HW146477  10.781   2.010  11.806
81548SOL    HW246478  10.870   2.121  11.753
81549SOL     OW46479   0.437   7.959   4.062
81549SOL    HW146480   0.462   7.875   4.101
81549SOL    HW246481   0.440   8.021   4.135
81550SOL     OW46482  10.730   5.783   9.718
81550SOL    HW146483  10.682   5.790   9.800
81550SOL    HW246484  10.760   5.692   9.716
81551SOL     OW46485   0.646  11.600   5.822
81551SOL    HW146486   0.731  11.560   5.841
81551SOL    HW246487   0.592  11.581   5.898
81552SOL     OW46488   5.571  12.369   8.250
81552SOL    HW146489   5.490  12.415   8.228
81552SOL    HW246490   5.636  12.404   8.189
81553SOL     OW46491   9.667  14.015   8.247
81553SOL    HW146492   9.671  14.105   8.216
81553SOL    HW246493   9.755  13.998   8.283
81554SOL     OW46494  10.002  13.527   6.661
81554SOL    HW146495  10.077  13.473   6.684
81554SOL    HW246496   9.984  13.506   6.569
81555SOL     OW46497  12.320  14.177   3.782
81555SOL    HW146498  12.264  14.226   3.842
81555SOL    HW246499  12.311  14.086   3.810
81556SOL     OW46500  13.070  13.928   4.944
81556SOL    HW146501  13.100  14.015   4.968
81556SOL    HW246502  12.979  13.925   4.972
81557SOL     OW46503   4.190   3.630   7.807
81557SOL    HW146504   4.223   3.567   7.743
81557SOL    HW246505   4.269   3.665   7.849
81558SOL     OW46506   9.983   0.834   6.069
81558SOL    HW146507   9.997   0.818   6.163
81558SOL    HW246508   9.916   0.902   6.066
81559SOL     OW46509   8.721   0.917   1.333
81559SOL    HW146510   8.697   0.959   1.415
81559SOL    HW246511   8.722   0.823   1.354
81560SOL     OW46512  12.618   8.148   4.448
81560SOL    HW146513  12.653   8.128   4.361
81560SOL    HW246514  12.651   8.236   4.468
81561SOL     OW46515   2.366   2.690   4.653
81561SOL    HW146516   2.420   2.672   4.730
81561SOL    HW246517   2.332   2.778   4.666
81562SOL     OW46518   9.263   3.856   8.154
81562SOL    HW146519   9.283   3.799   8.080
81562SOL    HW246520   9.230   3.936   8.114
81563SOL     OW46521   1.227  13.207  10.702
81563SOL    HW146522   1.180  13.194  10.620
81563SOL    HW246523   1.190  13.287  10.738
81564SOL     OW46524  12.913   2.251  14.810
81564SOL    HW146525  12.913   2.159  14.836
81564SOL    HW246526  12.841   2.290  14.860
81565SOL     OW46527   6.501   4.902   0.610
81565SOL    HW146528   6.467   4.949   0.535
81565SOL    HW246529   6.579   4.952   0.637
81566SOL     OW46530   1.393   3.180   2.069
81566SOL    HW146531   1.407   3.246   2.137
81566SOL    HW246532   1.481   3.149   2.047
81567SOL     OW46533   1.825  14.146   7.613
81567SOL    HW146534   1.917  14.137   7.639
81567SOL    HW246535   1.797  14.228   7.654
81568SOL     OW46536   0.575   6.461  12.177
81568SOL    HW146537   0.618   6.392  12.228
81568SOL    HW246538   0.565   6.534  12.238
81569SOL     OW46539   7.066  13.724  11.502
81569SOL    HW146540   7.075  13.733  11.597
81569SOL    HW246541   7.095  13.809  11.467
81570SOL     OW46542   9.499   9.504  11.898
81570SOL    HW146543   9.531   9.583  11.855
81570SOL    HW246544   9.452   9.535  11.975
81571SOL     OW46545   6.931   7.176   8.426
81571SOL    HW146546   6.961   7.238   8.359
81571SOL    HW246547   6.953   7.090   8.391
81572SOL     OW46548  12.473   8.742  12.758
81572SOL    HW146549  12.396   8.704  12.715
81572SOL    HW246550  12.490   8.683  12.832
81573SOL     OW46551   1.231   3.930  10.077
81573SOL    HW146552   1.140   3.950  10.055
81573SOL    HW246553   1.234   3.835  10.084
81574SOL     OW46554   0.590  11.333   3.465
81574SOL    HW146555   0.548  11.313   3.381
81574SOL    HW246556   0.519  11.330   3.529
81575SOL     OW46557   5.026   2.229  13.397
81575SOL    HW146558   5.088   2.261  13.332
81575SOL    HW246559   4.944   2.219  13.350
81576SOL     OW46560   8.544   3.560   8.857
81576SOL    HW146561   8.638   3.548   8.867
81576SOL    HW246562   8.506   3.509   8.929
81577SOL     OW46563   4.191   1.389   1.433
81577SOL    HW146564   4.228   1.313   1.389
81577SOL    HW246565   4.098   1.370   1.441
81578SOL     OW46566   7.141   7.876   5.123
81578SOL    HW146567   7.058   7.838   5.153
81578SOL    HW246568   7.190   7.801   5.089
81579SOL     OW46569   8.995  12.357   5.749
81579SOL    HW146570   9.084  12.370   5.716
81579SOL    HW246571   8.942  12.344   5.671
81580SOL     OW46572   5.988   2.530   7.870
81580SOL    HW146573   6.059   2.548   7.808
81580SOL    HW246574   6.016   2.573   7.951
81581SOL     OW46575   9.194   0.639   4.507
81581SOL    HW146576   9.203   0.562   4.563
81581SOL    HW246577   9.283   0.675   4.502
81582SOL     OW46578   0.740   2.538  10.733
81582SOL    HW146579   0.834   2.553  10.744
81582SOL    HW246580   0.733   2.495  10.648
81583SOL     OW46581   9.696  10.744   9.134
81583SOL    HW146582   9.633  10.733   9.063
81583SOL    HW246583   9.646  10.721   9.213
81584SOL     OW46584   7.312  10.685  12.156
81584SOL    HW146585   7.366  10.608  12.140
81584SOL    HW246586   7.349  10.725  12.235
81585SOL     OW46587   3.972   6.762  11.046
81585SOL    HW146588   4.058   6.802  11.038
81585SOL    HW246589   3.927   6.815  11.112
81586SOL     OW46590  10.613   6.166   6.686
81586SOL    HW146591  10.652   6.242   6.729
81586SOL    HW246592  10.685   6.104   6.677
81587SOL     OW46593   8.654  12.113  13.449
81587SOL    HW146594   8.740  12.082  13.421
81587SOL    HW246595   8.627  12.176  13.382
81588SOL     OW46596   9.016   0.004  11.556
81588SOL    HW146597   9.049  14.816  11.616
81588SOL    HW246598   9.085   0.071  11.555
81589SOL     OW46599   4.948   4.574   9.519
81589SOL    HW146600   4.871   4.627   9.540
81589SOL    HW246601   5.022   4.633   9.531
81590SOL     OW46602   0.931  14.769   6.417
81590SOL    HW146603   0.929  14.675   6.430
81590SOL    HW246604   0.979  14.782   6.336
81591SOL     OW46605  13.992  11.112   3.605
81591SOL    HW146606  14.033  11.198   3.618
81591SOL    HW246607  14.061  11.049   3.627
81592SOL     OW46608  10.555  13.346   4.690
81592SOL    HW146609  10.587  13.403   4.760
81592SOL    HW246610  10.460  13.342   4.703
81593SOL     OW46611   6.469   0.794   2.157
81593SOL    HW146612   6.442   0.842   2.236
81593SOL    HW246613   6.388   0.779   2.109
81594SOL     OW46614   2.401   9.080   9.244
81594SOL    HW146615   2.468   9.107   9.181
81594SOL    HW246616   2.449   9.033   9.312
81595SOL     OW46617   7.009   3.587  13.327
81595SOL    HW146618   6.943   3.630  13.273
81595SOL    HW246619   7.003   3.632  13.412
81596SOL     OW46620   8.077  10.515  14.317
81596SOL    HW146621   8.002  10.567  14.347
81596SOL    HW246622   8.038  10.446  14.263
81597SOL     OW46623  13.485   6.364   9.850
81597SOL    HW146624  13.497   6.272   9.876
81597SOL    HW246625  13.518   6.368   9.760
81598SOL     OW46626   2.049  10.580   4.574
81598SOL    HW146627   1.974  10.605   4.629
81598SOL    HW246628   2.017  10.590   4.484
81599SOL     OW46629  10.936   0.529   5.037
81599SOL    HW146630  10.953   0.622   5.055
81599SOL    HW246631  11.002   0.483   5.089
81600SOL     OW46632   7.517   3.230   0.098
81600SOL    HW146633   7.542   3.142   0.128
81600SOL    HW246634   7.586   3.254   0.036
81601SOL     OW46635  13.083   4.472   2.268
81601SOL    HW146636  13.007   4.530   2.275
81601SOL    HW246637  13.104   4.472   2.175
81602SOL     OW46638  14.278   9.589   8.864
81602SOL    HW146639  14.243   9.661   8.811
81602SOL    HW246640  14.367   9.575   8.830
81603SOL     OW46641   7.687   2.195   9.977
81603SOL    HW146642   7.698   2.126  10.043
81603SOL    HW246643   7.775   2.208   9.942
81604SOL     OW46644   0.458   8.342   7.358
81604SOL    HW146645   0.423   8.261   7.394
81604SOL    HW246646   0.550   8.324   7.343
81605SOL     OW46647  12.751  11.188   2.758
81605SOL    HW146648  12.681  11.175   2.822
81605SOL    HW246649  12.742  11.116   2.696
81606SOL     OW46650   8.832   2.796   4.344
81606SOL    HW146651   8.918   2.824   4.376
81606SOL    HW246652   8.850   2.719   4.291
81607SOL     OW46653  10.465   8.102   4.548
81607SOL    HW146654  10.401   8.065   4.610
81607SOL    HW246655  10.425   8.184   4.519
81608SOL     OW46656   5.980  10.340  13.944
81608SOL    HW146657   5.891  10.313  13.967
81608SOL    HW246658   5.971  10.378  13.856
81609SOL     OW46659   4.406   9.648   1.809
81609SOL    HW146660   4.386   9.595   1.886
81609SOL    HW246661   4.471   9.597   1.760
81610SOL     OW46662  14.835   6.785   1.626
81610SOL    HW146663  14.833   6.700   1.581
81610SOL    HW246664  14.808   6.848   1.559
81611SOL     OW46665   4.855  11.103   2.353
81611SOL    HW146666   4.780  11.049   2.327
81611SOL    HW246667   4.912  11.104   2.277
81612SOL     OW46668  12.639   2.488   6.572
81612SOL    HW146669  12.595   2.544   6.636
81612SOL    HW246670  12.698   2.547   6.526
81613SOL     OW46671  14.700  12.938   0.912
81613SOL    HW146672  14.715  13.032   0.902
81613SOL    HW246673  14.692  12.924   1.006
81614SOL     OW46674  12.110  14.403   2.446
81614SOL    HW146675  12.073  14.347   2.379
81614SOL    HW246676  12.085  14.492   2.420
81615SOL     OW46677   6.574  10.398   4.834
81615SOL    HW146678   6.499  10.406   4.892
81615SOL    HW246679   6.639  10.458   4.870
81616SOL     OW46680   1.161   0.544   3.322
81616SOL    HW146681   1.178   0.624   3.371
81616SOL    HW246682   1.159   0.572   3.230
81617SOL     OW46683  12.312   0.728  13.063
81617SOL    HW146684  12.385   0.743  13.123
81617SOL    HW246685  12.334   0.781  12.986
81618SOL     OW46686  14.263   0.020   4.060
81618SOL    HW146687  14.323   0.095   4.049
81618SOL    HW246688  14.217   0.038   4.142
81619SOL     OW46689  11.913  12.936   9.146
81619SOL    HW146690  11.867  12.953   9.229
81619SOL    HW246691  11.967  13.013   9.133
81620SOL     OW46692  10.825  11.162   4.691
81620SOL    HW146693  10.829  11.218   4.614
81620SOL    HW246694  10.873  11.083   4.666
81621SOL     OW46695   5.766   4.759   1.745
81621SOL    HW146696   5.841   4.718   1.702
81621SOL    HW246697   5.763   4.847   1.709
81622SOL     OW46698  13.720   9.352   3.090
81622SOL    HW146699  13.743   9.403   3.012
81622SOL    HW246700  13.786   9.376   3.155
81623SOL     OW46701   6.270   0.555  14.276
81623SOL    HW146702   6.214   0.592  14.208
81623SOL    HW246703   6.236   0.467  14.289
81624SOL     OW46704   8.556  10.651  12.327
81624SOL    HW146705   8.477  10.704  12.339
81624SOL    HW246706   8.574  10.656  12.233
81625SOL     OW46707   9.965   8.772   5.115
81625SOL    HW146708   9.901   8.769   5.186
81625SOL    HW246709   9.939   8.699   5.058
81626SOL     OW46710  11.813   9.439   1.050
81626SOL    HW146711  11.817   9.465   0.958
81626SOL    HW246712  11.763   9.508   1.093
81627SOL     OW46713  10.310   6.063   4.924
81627SOL    HW146714  10.393   6.089   4.964
81627SOL    HW246715  10.243   6.098   4.983
81628SOL     OW46716   1.304  11.782   6.138
81628SOL    HW146717   1.286  11.696   6.175
81628SOL    HW246718   1.392  11.805   6.171
81629SOL     OW46719  10.602   8.850   6.969
81629SOL    HW146720  10.513   8.816   6.981
81629SOL    HW246721  10.648   8.825   7.049
81630SOL     OW46722   4.747  13.725   5.328
81630SOL    HW146723   4.797  13.653   5.289
81630SOL    HW246724   4.673  13.683   5.371
81631SOL     OW46725   4.406   8.282   7.767
81631SOL    HW146726   4.468   8.335   7.817
81631SOL    HW246727   4.403   8.325   7.681
81632SOL     OW46728   7.090   2.703   7.522
81632SOL    HW146729   7.183   2.685   7.513
81632SOL    HW246730   7.054   2.687   7.435
81633SOL     OW46731   9.414   3.756   7.208
81633SOL    HW146732   9.326   3.791   7.193
81633SOL    HW246733   9.422   3.754   7.304
81634SOL     OW46734   3.366  13.825   1.963
81634SOL    HW146735   3.286  13.859   2.004
81634SOL    HW246736   3.351  13.837   1.869
81635SOL     OW46737   9.022   3.827  10.470
81635SOL    HW146738   9.066   3.894  10.522
81635SOL    HW246739   9.090   3.791  10.414
81636SOL     OW46740   5.596   4.278   5.805
81636SOL    HW146741   5.678   4.309   5.844
81636SOL    HW246742   5.613   4.275   5.711
81637SOL     OW46743   8.121  13.392   1.177
81637SOL    HW146744   8.144  13.318   1.233
81637SOL    HW246745   8.040  13.426   1.214
81638SOL     OW46746  11.350   7.504   8.261
81638SOL    HW146747  11.421   7.558   8.295
81638SOL    HW246748  11.288   7.496   8.333
81639SOL     OW46749   5.119   8.424   4.443
81639SOL    HW146750   5.157   8.509   4.463
81639SOL    HW246751   5.150   8.404   4.354
81640SOL     OW46752  10.905   2.649   6.649
81640SOL    HW146753  10.997   2.665   6.670
81640SOL    HW246754  10.878   2.727   6.600
81641SOL     OW46755  12.651   4.108   3.660
81641SOL    HW146756  12.632   4.115   3.567
81641SOL    HW246757  12.739   4.144   3.670
81642SOL     OW46758   5.114   6.824   8.852
81642SOL    HW146759   5.205   6.823   8.881
81642SOL    HW246760   5.096   6.916   8.831
81643SOL     OW46761   5.910   9.029   1.201
81643SOL    HW146762   5.996   9.061   1.175
81643SOL    HW246763   5.854   9.106   1.196
81644SOL     OW46764   6.371   1.941  12.447
81644SOL    HW146765   6.293   1.991  12.422
81644SOL    HW246766   6.383   1.961  12.540
81645SOL     OW46767  10.729   9.486   4.703
81645SOL    HW146768  10.808   9.504   4.754
81645SOL    HW246769  10.661   9.537   4.746
81646SOL     OW46770   9.857   8.376   4.995
81646SOL    HW146771   9.916   8.327   5.052
81646SOL    HW246772   9.779   8.392   5.049
81647SOL     OW46773   1.962   8.315   3.005
81647SOL    HW146774   1.954   8.239   3.064
81647SOL    HW246775   2.042   8.298   2.955
81648SOL     OW46776   4.551  12.073  12.179
81648SOL    HW146777   4.598  12.043  12.101
81648SOL    HW246778   4.577  12.012  12.248
81649SOL     OW46779   3.357   9.424   2.079
81649SOL    HW146780   3.310   9.481   2.139
81649SOL    HW246781   3.388   9.352   2.133
81650SOL     OW46782   5.002   9.994   8.457
81650SOL    HW146783   5.034   9.904   8.461
81650SOL    HW246784   4.949  10.004   8.536
81651SOL     OW46785   2.248   9.269   1.270
81651SOL    HW146786   2.267   9.344   1.214
81651SOL    HW246787   2.178   9.222   1.225
81652SOL     OW46788  13.193   2.838  13.671
81652SOL    HW146789  13.246   2.854  13.592
81652SOL    HW246790  13.199   2.744  13.686
81653SOL     OW46791   7.981   1.487   1.123
81653SOL    HW146792   7.954   1.460   1.035
81653SOL    HW246793   8.025   1.571   1.111
81654SOL     OW46794   8.411   1.477   2.300
81654SOL    HW146795   8.359   1.467   2.380
81654SOL    HW246796   8.458   1.394   2.292
81655SOL     OW46797  11.376  12.405   2.693
81655SOL    HW146798  11.349  12.323   2.651
81655SOL    HW246799  11.318  12.471   2.656
81656SOL     OW46800  11.950  12.965  13.895
81656SOL    HW146801  12.021  12.917  13.853
81656SOL    HW246802  11.906  12.901  13.950
81657SOL     OW46803   0.942   2.950  13.728
81657SOL    HW146804   0.873   2.887  13.708
81657SOL    HW246805   0.902   3.036  13.714
81658SOL     OW46806   8.954   0.286  13.742
81658SOL    HW146807   8.906   0.218  13.790
81658SOL    HW246808   8.983   0.347  13.809
81659SOL     OW46809   0.269  10.055   1.933
81659SOL    HW146810   0.197   9.996   1.957
81659SOL    HW246811   0.225  10.131   1.894
81660SOL     OW46812   4.013  14.391  14.483
81660SOL    HW146813   4.006  14.297  14.468
81660SOL    HW246814   4.065  14.423  14.409
81661SOL     OW46815   4.575   2.305  11.486
81661SOL    HW146816   4.583   2.378  11.547
81661SOL    HW246817   4.650   2.249  11.505
81662SOL     OW46818  10.400  12.551  12.843
81662SOL    HW146819  10.308  12.536  12.825
81662SOL    HW246820  10.431  12.469  12.881
81663SOL     OW46821  12.174   5.246   7.208
81663SOL    HW146822  12.156   5.286   7.293
81663SOL    HW246823  12.157   5.152   7.221
81664SOL     OW46824  13.868   5.408   1.044
81664SOL    HW146825  13.916   5.452   0.974
81664SOL    HW246826  13.840   5.325   1.007
81665SOL     OW46827   0.965   7.278   2.263
81665SOL    HW146828   0.900   7.335   2.221
81665SOL    HW246829   0.913   7.218   2.317
81666SOL     OW46830   4.292   7.685   7.857
81666SOL    HW146831   4.236   7.760   7.835
81666SOL    HW246832   4.285   7.627   7.781
81667SOL     OW46833  12.302   2.649   6.915
81667SOL    HW146834  12.304   2.559   6.884
81667SOL    HW246835  12.392   2.666   6.943
81668SOL     OW46836   1.932   3.233   5.868
81668SOL    HW146837   2.002   3.297   5.872
81668SOL    HW246838   1.920   3.214   5.775
81669SOL     OW46839   5.282   5.653   5.250
81669SOL    HW146840   5.224   5.587   5.211
81669SOL    HW246841   5.312   5.613   5.331
81670SOL     OW46842  13.470   5.435   9.452
81670SOL    HW146843  13.392   5.445   9.398
81670SOL    HW246844  13.441   5.455   9.541
81671SOL     OW46845   2.047  12.811   4.909
81671SOL    HW146846   1.980  12.875   4.885
81671SOL    HW246847   2.018  12.777   4.994
81672SOL     OW46848  12.100   3.533   3.410
81672SOL    HW146849  12.150   3.513   3.489
81672SOL    HW246850  12.102   3.452   3.359
81673SOL     OW46851   6.905   0.650   4.696
81673SOL    HW146852   6.911   0.678   4.788
81673SOL    HW246853   6.906   0.732   4.646
81674SOL     OW46854   1.252   7.956  11.032
81674SOL    HW146855   1.170   7.906  11.037
81674SOL    HW246856   1.321   7.892  11.047
81675SOL     OW46857   3.747   2.726   1.879
81675SOL    HW146858   3.686   2.654   1.892
81675SOL    HW246859   3.750   2.739   1.784
81676SOL     OW46860  10.412  10.471   5.761
81676SOL    HW146861  10.372  10.385   5.775
81676SOL    HW246862  10.386  10.496   5.672
81677SOL     OW46863   3.079  11.531  11.586
81677SOL    HW146864   3.143  11.483  11.637
81677SOL    HW246865   3.088  11.496  11.497
81678SOL     OW46866   1.735   3.308   7.672
81678SOL    HW146867   1.799   3.254   7.717
81678SOL    HW246868   1.718   3.261   7.590
81679SOL     OW46869   6.584   4.661   0.732
81679SOL    HW146870   6.525   4.735   0.727
81679SOL    HW246871   6.552   4.601   0.664
81680SOL     OW46872   8.817   1.543  11.578
81680SOL    HW146873   8.726   1.546  11.605
81680SOL    HW246874   8.862   1.499  11.651
81681SOL     OW46875   5.318  11.858   7.506
81681SOL    HW146876   5.250  11.917   7.474
81681SOL    HW246877   5.341  11.892   7.593
81682SOL     OW46878   5.222   4.672   2.453
81682SOL    HW146879   5.236   4.670   2.358
81682SOL    HW246880   5.236   4.581   2.481
81683SOL     OW46881   6.038   1.147   4.828
81683SOL    HW146882   5.991   1.127   4.748
81683SOL    HW246883   5.997   1.226   4.862
81684SOL     OW46884   0.454   0.804   9.740
81684SOL    HW146885   0.479   0.869   9.674
81684SOL    HW246886   0.512   0.729   9.723
81685SOL     OW46887   9.197   2.381  13.939
81685SOL    HW146888   9.287   2.378  13.971
81685SOL    HW246889   9.186   2.300  13.890
81686SOL     OW46890   3.182   6.045  14.489
81686SOL    HW146891   3.102   6.025  14.539
81686SOL    HW246892   3.161   6.018  14.400
81687SOL     OW46893   0.425   5.787   8.495
81687SOL    HW146894   0.382   5.702   8.502
81687SOL    HW246895   0.404   5.819   8.407
81688SOL     OW46896   7.033   2.205  12.970
81688SOL    HW146897   7.121   2.174  12.988
81688SOL    HW246898   6.986   2.193  13.052
81689SOL     OW46899   2.396   4.692   4.539
81689SOL    HW146900   2.367   4.718   4.452
81689SOL    HW246901   2.487   4.719   4.543
81690SOL     OW46902  12.637   1.819   4.073
81690SOL    HW146903  12.720   1.772   4.084
81690SOL    HW246904  12.573   1.751   4.053
81691SOL     OW46905   1.744  14.700  12.976
81691SOL    HW146906   1.772  14.733  13.062
81691SOL    HW246907   1.688  14.625  12.996
81692SOL     OW46908  10.603  11.942   0.049
81692SOL    HW146909  10.666  11.992   0.100
81692SOL    HW246910  10.570  11.876   0.110
81693SOL     OW46911   5.927  14.063   8.817
81693SOL    HW146912   5.870  13.996   8.856
81693SOL    HW246913   5.964  14.110   8.892
81694SOL     OW46914   1.939   7.206   3.012
81694SOL    HW146915   1.863   7.165   2.971
81694SOL    HW246916   2.013   7.157   2.978
81695SOL     OW46917  11.190   2.804  11.362
81695SOL    HW146918  11.181   2.890  11.323
81695SOL    HW246919  11.236   2.820  11.445
81696SOL     OW46920  11.642  14.713   8.011
81696SOL    HW146921  11.717  14.737   8.065
81696SOL    HW246922  11.669  14.633   7.966
81697SOL     OW46923  13.410   1.747   1.784
81697SOL    HW146924  13.365   1.668   1.813
81697SOL    HW246925  13.418   1.736   1.689
81698SOL     OW46926   6.711   9.610   2.519
81698SOL    HW146927   6.681   9.520   2.509
81698SOL    HW246928   6.771   9.607   2.594
81699SOL     OW46929  11.605   5.287   0.242
81699SOL    HW146930  11.521   5.334   0.236
81699SOL    HW246931  11.583   5.204   0.285
81700SOL     OW46932   9.647   0.949   0.719
81700SOL    HW146933   9.693   0.868   0.697
81700SOL    HW246934   9.555   0.931   0.700
81701SOL     OW46935   4.890  10.001   0.564
81701SOL    HW146936   4.965  10.047   0.528
81701SOL    HW246937   4.915   9.982   0.655
81702SOL     OW46938   7.188  13.154   5.098
81702SOL    HW146939   7.259  13.093   5.119
81702SOL    HW246940   7.224  13.240   5.117
81703SOL     OW46941  14.355   2.879  11.696
81703SOL    HW146942  14.335   2.970  11.677
81703SOL    HW246943  14.429   2.857  11.640
81704SOL     OW46944  11.951   2.502  12.683
81704SOL    HW146945  11.904   2.503  12.766
81704SOL    HW246946  11.887   2.531  12.618
81705SOL     OW46947   7.657  12.191  14.209
81705SOL    HW146948   7.667  12.096  14.212
81705SOL    HW246949   7.564  12.206  14.225
81706SOL     OW46950  12.542   6.526  14.680
81706SOL    HW146951  12.535   6.580  14.759
81706SOL    HW246952  12.457   6.536  14.637
81707SOL     OW46953   9.310   5.311   2.053
81707SOL    HW146954   9.334   5.228   2.096
81707SOL    HW246955   9.236   5.288   1.997
81708SOL     OW46956  11.368   6.555  14.098
81708SOL    HW146957  11.292   6.574  14.043
81708SOL    HW246958  11.335   6.564  14.187
81709SOL     OW46959   5.627   9.445   7.525
81709SOL    HW146960   5.555   9.397   7.483
81709SOL    HW246961   5.691   9.458   7.455
81710SOL     OW46962   5.976   0.381   5.254
81710SOL    HW146963   6.060   0.383   5.300
81710SOL    HW246964   5.911   0.368   5.323
81711SOL     OW46965   3.406   0.219   3.136
81711SOL    HW146966   3.318   0.227   3.099
81711SOL    HW246967   3.420   0.301   3.183
81712SOL     OW46968   9.287   2.576   6.353
81712SOL    HW146969   9.339   2.656   6.366
81712SOL    HW246970   9.303   2.552   6.262
81713SOL     OW46971   0.244   4.767  10.447
81713SOL    HW146972   0.219   4.676  10.461
81713SOL    HW246973   0.329   4.763  10.403
81714SOL     OW46974   5.692   4.142   5.239
81714SOL    HW146975   5.642   4.210   5.192
81714SOL    HW246976   5.625   4.081   5.269
81715SOL     OW46977  14.450  10.456   3.843
81715SOL    HW146978  14.509  10.507   3.900
81715SOL    HW246979  14.433  10.513   3.769
81716SOL     OW46980  10.201  12.298  14.492
81716SOL    HW146981  10.254  12.219  14.502
81716SOL    HW246982  10.112  12.270  14.516
81717SOL     OW46983  13.181   7.353   1.518
81717SOL    HW146984  13.171   7.447   1.534
81717SOL    HW246985  13.103   7.313   1.557
81718SOL     OW46986  13.454   8.527   8.690
81718SOL    HW146987  13.393   8.588   8.649
81718SOL    HW246988  13.449   8.448   8.636
81719SOL     OW46989   7.365   2.917  14.408
81719SOL    HW146990   7.377   2.836  14.458
81719SOL    HW246991   7.362   2.889  14.317
81720SOL     OW46992  10.908   3.621   3.828
81720SOL    HW146993  10.890   3.548   3.887
81720SOL    HW246994  10.946   3.689   3.883
81721SOL     OW46995   8.555   9.674  12.638
81721SOL    HW146996   8.637   9.624  12.641
81721SOL    HW246997   8.532   9.676  12.545
81722SOL     OW46998   4.870   9.961  11.265
81722SOL    HW146999   4.827   9.905  11.201
81722SOL    HW247000   4.963   9.951  11.247
81723SOL     OW47001   8.118  12.129  13.711
81723SOL    HW147002   8.033  12.084  13.711
81723SOL    HW247003   8.179  12.064  13.745
81724SOL     OW47004   2.752   8.414   1.890
81724SOL    HW147005   2.718   8.494   1.850
81724SOL    HW247006   2.687   8.347   1.871
81725SOL     OW47007   8.688   9.880   3.622
81725SOL    HW147008   8.764   9.892   3.679
81725SOL    HW247009   8.623   9.838   3.678
81726SOL     OW47010   0.735   9.396   9.048
81726SOL    HW147011   0.811   9.450   9.023
81726SOL    HW247012   0.673   9.407   8.977
81727SOL     OW47013   7.528   0.184   0.177
81727SOL    HW147014   7.570   0.171   0.262
81727SOL    HW247015   7.599   0.176   0.113
81728SOL     OW47016   3.483   0.748  13.344
81728SOL    HW147017   3.491   0.835  13.384
81728SOL    HW247018   3.434   0.697  13.408
81729SOL     OW47019  11.592   8.740  13.227
81729SOL    HW147020  11.564   8.822  13.186
81729SOL    HW247021  11.518   8.714  13.282
81730SOL     OW47022  13.420   2.803  11.836
81730SOL    HW147023  13.342   2.747  11.840
81730SOL    HW247024  13.417   2.853  11.917
81731SOL     OW47025   7.767   1.976   8.925
81731SOL    HW147026   7.824   2.053   8.930
81731SOL    HW247027   7.818   1.905   8.964
81732SOL     OW47028  11.226   2.972  10.649
81732SOL    HW147029  11.156   2.941  10.707
81732SOL    HW247030  11.240   2.901  10.587
81733SOL     OW47031   0.638  13.108   9.723
81733SOL    HW147032   0.557  13.069   9.756
81733SOL    HW247033   0.609  13.173   9.659
81734SOL     OW47034   1.377  14.474   0.200
81734SOL    HW147035   1.457  14.487   0.149
81734SOL    HW247036   1.307  14.473   0.135
81735SOL     OW47037  10.995   5.041   4.453
81735SOL    HW147038  11.038   5.126   4.448
81735SOL    HW247039  10.951   5.032   4.368
81736SOL     OW47040  10.613   6.690   4.119
81736SOL    HW147041  10.599   6.705   4.212
81736SOL    HW247042  10.532   6.720   4.077
81737SOL     OW47043  13.131  12.362   3.105
81737SOL    HW147044  13.219  12.323   3.106
81737SOL    HW247045  13.073  12.290   3.127
81738SOL     OW47046  11.303   5.910  12.638
81738SOL    HW147047  11.276   5.925  12.728
81738SOL    HW247048  11.222   5.887  12.593
81739SOL     OW47049   4.719  12.455   7.970
81739SOL    HW147050   4.696  12.381   8.026
81739SOL    HW247051   4.693  12.427   7.882
81740SOL     OW47052   5.661   7.855   1.738
81740SOL    HW147053   5.732   7.910   1.772
81740SOL    HW247054   5.703   7.771   1.717
81741SOL     OW47055   3.787   7.684  13.407
81741SOL    HW147056   3.741   7.743  13.347
81741SOL    HW247057   3.720   7.657  13.470
81742SOL     OW47058  14.652   4.622   4.527
81742SOL    HW147059  14.715   4.693   4.538
81742SOL    HW247060  14.576   4.649   4.578
81743SOL     OW47061   1.987   8.344   4.206
81743SOL    HW147062   2.076   8.356   4.175
81743SOL    HW247063   1.993   8.273   4.270
81744SOL     OW47064   6.811   1.291   3.044
81744SOL    HW147065   6.876   1.351   3.007
81744SOL    HW247066   6.817   1.213   2.989
81745SOL     OW47067   8.773   7.198  14.163
81745SOL    HW147068   8.848   7.223  14.109
81745SOL    HW247069   8.697   7.223  14.110
81746SOL     OW47070   1.948  13.473   5.355
81746SOL    HW147071   1.926  13.427   5.273
81746SOL    HW247072   1.984  13.404   5.412
81747SOL     OW47073   5.611   5.801   9.346
81747SOL    HW147074   5.603   5.833   9.436
81747SOL    HW247075   5.705   5.788   9.333
81748SOL     OW47076   4.055  12.537   9.375
81748SOL    HW147077   4.079  12.484   9.452
81748SOL    HW247078   4.088  12.487   9.300
81749SOL     OW47079   9.310  14.251  12.575
81749SOL    HW147080   9.388  14.299  12.604
81749SOL    HW247081   9.320  14.165  12.615
81750SOL     OW47082   9.494   3.226   2.757
81750SOL    HW147083   9.530   3.258   2.840
81750SOL    HW247084   9.489   3.131   2.768
81751SOL     OW47085   7.947  11.140   8.676
81751SOL    HW147086   7.954  11.156   8.581
81751SOL    HW247087   7.918  11.224   8.712
81752SOL     OW47088   0.996   6.750   0.680
81752SOL    HW147089   1.070   6.709   0.726
81752SOL    HW247090   0.930   6.681   0.676
81753SOL     OW47091   6.136   4.331   3.611
81753SOL    HW147092   6.196   4.293   3.675
81753SOL    HW247093   6.064   4.367   3.664
81754SOL     OW47094   1.634  12.428   2.103
81754SOL    HW147095   1.729  12.433   2.094
81754SOL    HW247096   1.611  12.504   2.158
81755SOL     OW47097   3.871   0.300   0.680
81755SOL    HW147098   3.827   0.302   0.595
81755SOL    HW247099   3.965   0.301   0.658
81756SOL     OW47100   9.896   3.353   0.462
81756SOL    HW147101   9.991   3.361   0.467
81756SOL    HW247102   9.864   3.443   0.467
81757SOL     OW47103   5.870  13.313   4.644
81757SOL    HW147104   5.893  13.379   4.710
81757SOL    HW247105   5.911  13.233   4.675
81758SOL     OW47106   1.225  12.494   3.565
81758SOL    HW147107   1.277  12.556   3.615
81758SOL    HW247108   1.287  12.426   3.538
81759SOL     OW47109   2.090  12.622  14.092
81759SOL    HW147110   2.014  12.591  14.044
81759SOL    HW247111   2.123  12.696  14.040
81760SOL     OW47112   0.500  11.406  12.487
81760SOL    HW147113   0.447  11.380  12.411
81760SOL    HW247114   0.436  11.445  12.547
81761SOL     OW47115   1.094   4.566   7.068
81761SOL    HW147116   1.147   4.509   7.123
81761SOL    HW247117   1.026   4.599   7.127
81762SOL     OW47118  12.013   3.332   5.283
81762SOL    HW147119  12.074   3.259   5.286
81762SOL    HW247120  11.940   3.305   5.339
81763SOL     OW47121   0.377  11.213   7.224
81763SOL    HW147122   0.399  11.124   7.195
81763SOL    HW247123   0.286  11.225   7.196
81764SOL     OW47124   2.862   3.324   2.471
81764SOL    HW147125   2.863   3.229   2.481
81764SOL    HW247126   2.936   3.354   2.525
81765SOL     OW47127  10.534  12.534   4.003
81765SOL    HW147128  10.590  12.608   3.983
81765SOL    HW247129  10.461  12.571   4.053
81766SOL     OW47130   0.346   0.591  14.599
81766SOL    HW147131   0.293   0.516  14.572
81766SOL    HW247132   0.291   0.639  14.660
81767SOL     OW47133   0.281  12.874   2.232
81767SOL    HW147134   0.252  12.891   2.322
81767SOL    HW247135   0.201  12.863   2.182
81768SOL     OW47136  11.950   6.360  11.955
81768SOL    HW147137  11.916   6.374  12.044
81768SOL    HW247138  11.976   6.268  11.955
81769SOL     OW47139  10.581   0.341  11.132
81769SOL    HW147140  10.638   0.402  11.083
81769SOL    HW247141  10.617   0.255  11.114
81770SOL     OW47142   1.924  10.440   7.762
81770SOL    HW147143   1.898  10.391   7.683
81770SOL    HW247144   1.987  10.504   7.731
81771SOL     OW47145   5.432   1.016   3.280
81771SOL    HW147146   5.383   1.047   3.356
81771SOL    HW247147   5.508   0.970   3.316
81772SOL     OW47148   0.141   5.403   0.548
81772SOL    HW147149   0.166   5.319   0.509
81772SOL    HW247150   0.157   5.391   0.642
81773SOL     OW47151  13.385   5.621  10.152
81773SOL    HW147152  13.299   5.583  10.132
81773SOL    HW247153  13.447   5.567  10.103
81774SOL     OW47154  10.879   5.114   7.215
81774SOL    HW147155  10.866   5.019   7.205
81774SOL    HW247156  10.795   5.146   7.250
81775SOL     OW47157   7.079   9.565   8.707
81775SOL    HW147158   7.107   9.589   8.619
81775SOL    HW247159   7.098   9.642   8.760
81776SOL     OW47160  12.247  10.930   1.129
81776SOL    HW147161  12.272  10.960   1.216
81776SOL    HW247162  12.158  10.897   1.139
81777SOL     OW47163  12.355  10.499  10.925
81777SOL    HW147164  12.434  10.532  10.882
81777SOL    HW247165  12.387  10.462  11.008
81778SOL     OW47166  11.010  13.069   7.058
81778SOL    HW147167  11.067  13.046   6.985
81778SOL    HW247168  10.964  13.148   7.029
81779SOL     OW47169   3.186  12.106   8.328
81779SOL    HW147170   3.225  12.019   8.329
81779SOL    HW247171   3.093  12.090   8.345
81780SOL     OW47172   1.744  13.865  10.277
81780SOL    HW147173   1.733  13.774  10.251
81780SOL    HW247174   1.655  13.896  10.292
81781SOL     OW47175   7.850  12.727   3.688
81781SOL    HW147176   7.918  12.671   3.650
81781SOL    HW247177   7.788  12.666   3.728
81782SOL     OW47178   6.493  13.306  13.529
81782SOL    HW147179   6.531  13.334  13.612
81782SOL    HW247180   6.442  13.381  13.499
81783SOL     OW47181   9.910   3.869  10.920
81783SOL    HW147182   9.820   3.883  10.949
81783SOL    HW247183   9.961   3.868  11.000
81784SOL     OW47184   4.318   3.986   9.500
81784SOL    HW147185   4.336   3.902   9.541
81784SOL    HW247186   4.317   4.049   9.572
81785SOL     OW47187   5.761  12.770  10.324
81785SOL    HW147188   5.803  12.760  10.410
81785SOL    HW247189   5.729  12.683  10.303
81786SOL     OW47190   0.725  11.532   1.639
81786SOL    HW147191   0.784  11.546   1.713
81786SOL    HW247192   0.746  11.603   1.578
81787SOL     OW47193  14.149   4.272  12.414
81787SOL    HW147194  14.203   4.324  12.354
81787SOL    HW247195  14.061   4.279  12.379
81788SOL     OW47196  14.069   7.363   6.786
81788SOL    HW147197  14.097   7.389   6.874
81788SOL    HW247198  14.014   7.286   6.800
81789SOL     OW47199  14.700   3.551   7.134
81789SOL    HW147200  14.689   3.478   7.073
81789SOL    HW247201  14.704   3.629   7.079
81790SOL     OW47202   2.516   8.048   1.064
81790SOL    HW147203   2.524   8.095   0.981
81790SOL    HW247204   2.601   8.005   1.075
81791SOL     OW47205  11.761   1.031   7.791
81791SOL    HW147206  11.823   1.074   7.849
81791SOL    HW247207  11.737   0.950   7.836
81792SOL     OW47208   6.707  13.096   8.460
81792SOL    HW147209   6.677  13.004   8.462
81792SOL    HW247210   6.801  13.090   8.445
81793SOL     OW47211   1.705   8.831   0.021
81793SOL    HW147212   1.697   8.927   0.028
81793SOL    HW247213   1.677   8.799   0.107
81794SOL     OW47214  10.977  13.623  11.933
81794SOL    HW147215  10.938  13.710  11.949
81794SOL    HW247216  10.961  13.575  12.014
81795SOL     OW47217   0.934   3.709   7.548
81795SOL    HW147218   0.866   3.772   7.571
81795SOL    HW247219   0.950   3.660   7.628
81796SOL     OW47220   1.577  13.411   5.936
81796SOL    HW147221   1.514  13.426   5.866
81796SOL    HW247222   1.568  13.318   5.957
81797SOL     OW47223   7.271   2.698  11.316
81797SOL    HW147224   7.227   2.683  11.399
81797SOL    HW247225   7.364   2.697  11.338
81798SOL     OW47226  13.314   2.674   5.017
81798SOL    HW147227  13.327   2.715   5.103
81798SOL    HW247228  13.232   2.625   5.027
81799SOL     OW47229  11.146   3.893  13.836
81799SOL    HW147230  11.178   3.971  13.791
81799SOL    HW247231  11.062   3.920  13.874
81800SOL     OW47232   3.544  13.137   7.562
81800SOL    HW147233   3.542  13.219   7.612
81800SOL    HW247234   3.459  13.097   7.579
81801SOL     OW47235   2.163   4.858   7.131
81801SOL    HW147236   2.223   4.882   7.202
81801SOL    HW247237   2.175   4.764   7.121
81802SOL     OW47238   1.954  13.348  11.132
81802SOL    HW147239   1.961  13.409  11.058
81802SOL    HW247240   1.867  13.364  11.168
81803SOL     OW47241  10.072   0.135   8.241
81803SOL    HW147242  10.091   0.223   8.271
81803SOL    HW247243  10.016   0.097   8.309
81804SOL     OW47244  11.234   0.084   3.731
81804SOL    HW147245  11.315   0.128   3.756
81804SOL    HW247246  11.180   0.086   3.810
81805SOL     OW47247  11.055   4.656   5.882
81805SOL    HW147248  11.123   4.691   5.940
81805SOL    HW247249  11.095   4.659   5.795
81806SOL     OW47250  10.391   4.725   5.465
81806SOL    HW147251  10.318   4.696   5.521
81806SOL    HW247252  10.365   4.812   5.435
81807SOL     OW47253  10.716   1.069  12.589
81807SOL    HW147254  10.678   1.151  12.559
81807SOL    HW247255  10.743   1.086  12.679
81808SOL     OW47256   3.342   4.290   5.789
81808SOL    HW147257   3.412   4.235   5.755
81808SOL    HW247258   3.357   4.375   5.749
81809SOL     OW47259   7.277   9.766   0.340
81809SOL    HW147260   7.272   9.675   0.369
81809SOL    HW247261   7.371   9.782   0.329
81810SOL     OW47262  10.656  11.008  12.097
81810SOL    HW147263  10.728  11.030  12.037
81810SOL    HW247264  10.588  11.073  12.078
81811SOL     OW47265   4.428   4.312   9.028
81811SOL    HW147266   4.470   4.226   9.023
81811SOL    HW247267   4.337   4.295   9.005
81812SOL     OW47268   8.750   8.733   6.764
81812SOL    HW147269   8.777   8.641   6.767
81812SOL    HW247270   8.744   8.759   6.855
81813SOL     OW47271  13.751   2.977   0.149
81813SOL    HW147272  13.784   3.034   0.219
81813SOL    HW247273  13.764   2.888   0.182
81814SOL     OW47274   1.829  10.162   0.472
81814SOL    HW147275   1.741  10.190   0.448
81814SOL    HW247276   1.827  10.067   0.465
81815SOL     OW47277   5.250  12.637   9.527
81815SOL    HW147278   5.217  12.723   9.502
81815SOL    HW247279   5.223  12.579   9.456
81816SOL     OW47280   8.574   3.161  11.478
81816SOL    HW147281   8.661   3.194  11.501
81816SOL    HW247282   8.523   3.240  11.461
81817SOL     OW47283   1.828   7.130  14.559
81817SOL    HW147284   1.876   7.162  14.482
81817SOL    HW247285   1.773   7.060  14.525
81818SOL     OW47286   8.036  13.852  12.131
81818SOL    HW147287   8.127  13.880  12.115
81818SOL    HW247288   7.993  13.931  12.164
81819SOL     OW47289   2.444   5.972   5.589
81819SOL    HW147290   2.354   5.983   5.621
81819SOL    HW247291   2.489   6.051   5.619
81820SOL     OW47292  11.020   4.010   0.260
81820SOL    HW147293  10.927   4.016   0.282
81820SOL    HW247294  11.021   3.961   0.177
81821SOL     OW47295   1.843  11.912  13.873
81821SOL    HW147296   1.895  11.852  13.820
81821SOL    HW247297   1.888  11.914  13.958
81822SOL     OW47298  10.122  12.248   4.005
81822SOL    HW147299  10.067  12.201   3.942
81822SOL    HW247300  10.190  12.288   3.951
81823SOL     OW47301   0.083   6.424   0.711
81823SOL    HW147302   0.094   6.338   0.752
81823SOL    HW247303   0.107   6.486   0.780
81824SOL     OW47304   6.907   4.036  13.347
81824SOL    HW147305   6.812   4.046  13.338
81824SOL    HW247306   6.918   3.967  13.412
81825SOL     OW47307  12.398   6.031   2.289
81825SOL    HW147308  12.488   6.053   2.316
81825SOL    HW247309  12.407   6.007   2.197
81826SOL     OW47310   4.425   9.944   4.248
81826SOL    HW147311   4.462   9.856   4.239
81826SOL    HW247312   4.372   9.941   4.328
81827SOL     OW47313   2.879  10.322  14.094
81827SOL    HW147314   2.914  10.245  14.050
81827SOL    HW247315   2.833  10.287  14.170
81828SOL     OW47316   0.832   0.645   2.997
81828SOL    HW147317   0.867   0.558   2.978
81828SOL    HW247318   0.747   0.647   2.952
81829SOL     OW47319  13.906   2.526   1.985
81829SOL    HW147320  13.948   2.562   1.907
81829SOL    HW247321  13.903   2.432   1.970
81830SOL     OW47322  14.810   1.173   8.336
81830SOL    HW147323  14.804   1.265   8.361
81830SOL    HW247324  14.729   1.156   8.288
81831SOL     OW47325  12.391   2.260   1.688
81831SOL    HW147326  12.337   2.212   1.751
81831SOL    HW247327  12.373   2.352   1.706
81832SOL     OW47328  13.134   7.375   7.731
81832SOL    HW147329  13.160   7.300   7.784
81832SOL    HW247330  13.211   7.394   7.677
81833SOL     OW47331   7.650   8.124   1.033
81833SOL    HW147332   7.585   8.092   1.095
81833SOL    HW247333   7.697   8.192   1.081
81834SOL     OW47334   7.527  13.978   6.138
81834SOL    HW147335   7.435  13.953   6.133
81834SOL    HW247336   7.571  13.921   6.075
81835SOL     OW47337  12.327   6.418   5.100
81835SOL    HW147338  12.268   6.373   5.160
81835SOL    HW247339  12.412   6.376   5.114
81836SOL     OW47340   7.017   1.100   3.194
81836SOL    HW147341   6.948   1.037   3.171
81836SOL    HW247342   7.001   1.174   3.136
81837SOL     OW47343  13.220   4.746  13.783
81837SOL    HW147344  13.148   4.794  13.825
81837SOL    HW247345  13.196   4.654  13.793
81838SOL     OW47346  10.132   4.362   2.416
81838SOL    HW147347  10.168   4.284   2.373
81838SOL    HW247348  10.208   4.402   2.460
81839SOL     OW47349   8.991  14.805   1.659
81839SOL    HW147350   9.016  14.860   1.585
81839SOL    HW247351   8.912  14.846   1.694
81840SOL     OW47352   2.793   2.866  13.253
81840SOL    HW147353   2.706   2.904  13.269
81840SOL    HW247354   2.788   2.835  13.162
81841SOL     OW47355  14.112  12.466   6.973
81841SOL    HW147356  14.176  12.538   6.965
81841SOL    HW247357  14.028  12.510   6.986
81842SOL     OW47358   0.009   4.817   5.344
81842SOL    HW147359   0.029   4.745   5.284
81842SOL    HW247360  14.851   4.885   5.288
81843SOL     OW47361   0.723  13.341   3.998
81843SOL    HW147362   0.678  13.418   4.032
81843SOL    HW247363   0.750  13.365   3.910
81844SOL     OW47364   4.913  10.120   7.204
81844SOL    HW147365   4.956  10.100   7.287
81844SOL    HW247366   4.859  10.043   7.186
81845SOL     OW47367   1.430   6.535   6.276
81845SOL    HW147368   1.501   6.497   6.326
81845SOL    HW247369   1.370   6.570   6.342
81846SOL     OW47370  14.618  10.618  14.697
81846SOL    HW147371  14.552  10.681  14.727
81846SOL    HW247372  14.627  10.635  14.604
81847SOL     OW47373  12.894   4.390   1.897
81847SOL    HW147374  12.838   4.454   1.853
81847SOL    HW247375  12.902   4.317   1.835
81848SOL     OW47376   4.986   2.116   8.432
81848SOL    HW147377   4.894   2.101   8.454
81848SOL    HW247378   5.010   2.042   8.377
81849SOL     OW47379  10.617   8.226  13.624
81849SOL    HW147380  10.621   8.170  13.701
81849SOL    HW247381  10.708   8.237  13.597
81850SOL     OW47382   4.089   7.209   7.888
81850SOL    HW147383   4.036   7.271   7.837
81850SOL    HW247384   4.033   7.131   7.895
81851SOL     OW47385   3.393   8.169   4.419
81851SOL    HW147386   3.431   8.205   4.338
81851SOL    HW247387   3.428   8.080   4.424
81852SOL     OW47388   0.995   7.261  14.054
81852SOL    HW147389   1.005   7.345  14.010
81852SOL    HW247390   1.070   7.256  14.114
81853SOL     OW47391  14.260   6.618  13.162
81853SOL    HW147392  14.220   6.694  13.120
81853SOL    HW247393  14.351   6.643  13.176
81854SOL     OW47394   2.852  13.929   0.408
81854SOL    HW147395   2.826  13.845   0.446
81854SOL    HW247396   2.777  13.986   0.421
81855SOL     OW47397  11.276  11.410   1.769
81855SOL    HW147398  11.198  11.422   1.824
81855SOL    HW247399  11.324  11.338   1.810
81856SOL     OW47400  11.587  11.855   7.875
81856SOL    HW147401  11.677  11.832   7.852
81856SOL    HW247402  11.550  11.774   7.910
81857SOL     OW47403   0.108   5.297  11.412
81857SOL    HW147404   0.064   5.269  11.493
81857SOL    HW247405   0.201   5.300  11.436
81858SOL     OW47406   1.442  10.059  13.765
81858SOL    HW147407   1.383   9.988  13.741
81858SOL    HW247408   1.511  10.059  13.699
81859SOL     OW47409   7.866   1.902   3.517
81859SOL    HW147410   7.811   1.922   3.441
81859SOL    HW247411   7.844   1.811   3.538
81860SOL     OW47412   0.069  12.961   0.590
81860SOL    HW147413   0.162  12.956   0.612
81860SOL    HW247414   0.063  13.029   0.524
81861SOL     OW47415   6.081   2.862  10.042
81861SOL    HW147416   6.158   2.811  10.068
81861SOL    HW247417   6.093   2.877   9.948
81862SOL     OW47418   9.876   2.106   6.168
81862SOL    HW147419   9.950   2.119   6.228
81862SOL    HW247420   9.820   2.042   6.213
81863SOL     OW47421   8.815   1.467   0.448
81863SOL    HW147422   8.823   1.508   0.362
81863SOL    HW247423   8.745   1.402   0.438
81864SOL     OW47424   8.532   0.051  10.707
81864SOL    HW147425   8.510   0.144  10.719
81864SOL    HW247426   8.451   0.010  10.678
81865SOL     OW47427   3.915  12.687  12.657
81865SOL    HW147428   3.936  12.778  12.678
81865SOL    HW247429   3.962  12.635  12.722
81866SOL     OW47430   6.605  11.789   4.889
81866SOL    HW147431   6.674  11.839   4.933
81866SOL    HW247432   6.583  11.719   4.950
81867SOL     OW47433   2.106   3.640   3.771
81867SOL    HW147434   2.020   3.645   3.812
81867SOL    HW247435   2.154   3.574   3.821
81868SOL     OW47436   7.171   4.291   8.440
81868SOL    HW147437   7.236   4.359   8.460
81868SOL    HW247438   7.110   4.333   8.380
81869SOL     OW47439   0.832   7.046   8.893
81869SOL    HW147440   0.780   7.104   8.837
81869SOL    HW247441   0.849   7.098   8.971
81870SOL     OW47442   5.861   0.200   0.561
81870SOL    HW147443   5.826   0.208   0.650
81870SOL    HW247444   5.902   0.113   0.559
81871SOL     OW47445   2.755   9.324   8.278
81871SOL    HW147446   2.694   9.249   8.281
81871SOL    HW247447   2.827   9.293   8.222
81872SOL     OW47448  12.285  11.210  10.504
81872SOL    HW147449  12.371  11.245  10.478
81872SOL    HW247450  12.222  11.259  10.451
81873SOL     OW47451   1.215  14.259  10.233
81873SOL    HW147452   1.195  14.316  10.158
81873SOL    HW247453   1.287  14.204  10.202
81874SOL     OW47454   3.729   5.210   7.853
81874SOL    HW147455   3.813   5.239   7.818
81874SOL    HW247456   3.707   5.132   7.802
81875SOL     OW47457   8.672  11.883   6.876
81875SOL    HW147458   8.638  11.972   6.862
81875SOL    HW247459   8.680  11.876   6.972
81876SOL     OW47460   8.096  14.046   5.795
81876SOL    HW147461   8.069  14.105   5.725
81876SOL    HW247462   8.176  14.085   5.831
81877SOL     OW47463   3.883   0.411  11.932
81877SOL    HW147464   3.897   0.338  11.871
81877SOL    HW247465   3.851   0.482  11.876
81878SOL     OW47466   6.249   8.633   7.594
81878SOL    HW147467   6.208   8.548   7.608
81878SOL    HW247468   6.184   8.686   7.548
81879SOL     OW47469  13.461   0.182  13.378
81879SOL    HW147470  13.544   0.137  13.365
81879SOL    HW247471  13.484   0.275  13.384
81880SOL     OW47472   9.449   1.314   8.713
81880SOL    HW147473   9.394   1.375   8.664
81880SOL    HW247474   9.535   1.356   8.716
81881SOL     OW47475  11.301   6.378   3.254
81881SOL    HW147476  11.364   6.408   3.188
81881SOL    HW247477  11.345   6.305   3.298
81882SOL     OW47478   7.094   1.044  10.434
81882SOL    HW147479   7.061   1.077  10.351
81882SOL    HW247480   7.094   0.949  10.424
81883SOL     OW47481   6.408   3.360   5.256
81883SOL    HW147482   6.461   3.439   5.244
81883SOL    HW247483   6.470   3.293   5.285
81884SOL     OW47484  10.974   2.536  11.680
81884SOL    HW147485  11.058   2.495  11.657
81884SOL    HW247486  10.965   2.522  11.774
81885SOL     OW47487   8.327   5.533   1.799
81885SOL    HW147488   8.265   5.584   1.852
81885SOL    HW247489   8.322   5.444   1.836
81886SOL     OW47490   1.059   2.916  10.676
81886SOL    HW147491   1.089   3.007  10.668
81886SOL    HW247492   1.003   2.917  10.753
81887SOL     OW47493   6.230  11.406   7.452
81887SOL    HW147494   6.157  11.451   7.410
81887SOL    HW247495   6.190  11.334   7.501
81888SOL     OW47496   2.818   6.318   9.207
81888SOL    HW147497   2.805   6.303   9.301
81888SOL    HW247498   2.861   6.404   9.202
81889SOL     OW47499   0.843   2.047   6.117
81889SOL    HW147500   0.826   1.974   6.057
81889SOL    HW247501   0.845   2.006   6.204
81890SOL     OW47502   8.053   2.761   5.559
81890SOL    HW147503   8.112   2.699   5.516
81890SOL    HW247504   8.104   2.793   5.635
81891SOL     OW47505   4.273  12.801   0.915
81891SOL    HW147506   4.196  12.769   0.866
81891SOL    HW247507   4.347  12.757   0.873
81892SOL     OW47508   0.801  10.858   6.549
81892SOL    HW147509   0.788  10.951   6.567
81892SOL    HW247510   0.763  10.844   6.462
81893SOL     OW47511  11.343   9.225  14.403
81893SOL    HW147512  11.249   9.207  14.409
81893SOL    HW247513  11.384   9.158  14.458
81894SOL     OW47514   1.254  11.065   3.866
81894SOL    HW147515   1.167  11.050   3.905
81894SOL    HW247516   1.237  11.075   3.773
81895SOL     OW47517   1.261   1.293   4.548
81895SOL    HW147518   1.172   1.319   4.525
81895SOL    HW247519   1.309   1.375   4.556
81896SOL     OW47520   3.311  12.312  14.068
81896SOL    HW147521   3.255  12.378  14.028
81896SOL    HW247522   3.260  12.276  14.140
81897SOL     OW47523   7.602   9.512  13.502
81897SOL    HW147524   7.612   9.518  13.597
81897SOL    HW247525   7.516   9.473  13.489
81898SOL     OW47526   3.582   5.173   8.471
81898SOL    HW147527   3.599   5.267   8.474
81898SOL    HW247528   3.610   5.147   8.383
81899SOL     OW47529   7.057   9.161   7.203
81899SOL    HW147530   7.092   9.250   7.195
81899SOL    HW247531   7.098   9.113   7.131
81900SOL     OW47532   2.680   5.546   8.719
81900SOL    HW147533   2.620   5.620   8.716
81900SOL    HW247534   2.628   5.471   8.690
81901SOL     OW47535   7.043  13.715   1.775
81901SOL    HW147536   7.001  13.683   1.695
81901SOL    HW247537   7.084  13.637   1.813
81902SOL     OW47538   9.066   4.144  12.655
81902SOL    HW147539   9.106   4.178  12.735
81902SOL    HW247540   9.072   4.217  12.593
81903SOL     OW47541  14.282  13.703   6.493
81903SOL    HW147542  14.296  13.609   6.499
81903SOL    HW247543  14.187  13.714   6.490
81904SOL     OW47544   2.120   9.912  14.870
81904SOL    HW147545   2.055   9.913   0.062
81904SOL    HW247546   2.100   9.990  14.819
81905SOL     OW47547  12.670  14.772   8.421
81905SOL    HW147548  12.606  14.702   8.433
81905SOL    HW247549  12.682  14.776   8.326
81906SOL     OW47550   8.456   0.236   7.441
81906SOL    HW147551   8.425   0.239   7.532
81906SOL    HW247552   8.449   0.327   7.411
81907SOL     OW47553  13.464  11.438  12.189
81907SOL    HW147554  13.526  11.442  12.116
81907SOL    HW247555  13.395  11.500  12.166
81908SOL     OW47556   7.778   0.700   1.025
81908SOL    HW147557   7.728   0.624   0.996
81908SOL    HW247558   7.833   0.723   0.951
81909SOL     OW47559  13.004   2.084   9.398
81909SOL    HW147560  13.007   2.019   9.328
81909SOL    HW247561  13.011   2.168   9.353
81910SOL     OW47562   1.542   1.087   4.816
81910SOL    HW147563   1.625   1.063   4.775
81910SOL    HW247564   1.551   1.180   4.835
81911SOL     OW47565   3.377   6.670   9.241
81911SOL    HW147566   3.390   6.763   9.223
81911SOL    HW247567   3.435   6.650   9.314
81912SOL     OW47568   5.321  11.793   5.230
81912SOL    HW147569   5.300  11.700   5.227
81912SOL    HW247570   5.268  11.828   5.302
81913SOL     OW47571   2.479  11.645   6.081
81913SOL    HW147572   2.468  11.713   6.014
81913SOL    HW247573   2.544  11.586   6.045
81914SOL     OW47574   3.722   1.586   2.181
81914SOL    HW147575   3.644   1.531   2.185
81914SOL    HW247576   3.776   1.556   2.255
81915SOL     OW47577  11.054  12.443   0.955
81915SOL    HW147578  11.129  12.480   0.909
81915SOL    HW247579  10.989  12.512   0.954
81916SOL     OW47580   1.648   0.692  11.366
81916SOL    HW147581   1.688   0.650  11.290
81916SOL    HW247582   1.606   0.621  11.414
81917SOL     OW47583  14.747  11.587   3.615
81917SOL    HW147584  14.685  11.633   3.558
81917SOL    HW247585  14.822  11.646   3.622
81918SOL     OW47586  13.988   4.422   4.848
81918SOL    HW147587  14.052   4.410   4.918
81918SOL    HW247588  14.016   4.362   4.779
81919SOL     OW47589  12.829   9.110  13.559
81919SOL    HW147590  12.744   9.142  13.589
81919SOL    HW247591  12.812   9.022  13.527
81920SOL     OW47592  14.685   4.583  14.859
81920SOL    HW147593  14.592   4.562  14.865
81920SOL    HW247594  14.705   4.578  14.765
81921SOL     OW47595   5.049   6.078  13.935
81921SOL    HW147596   5.018   6.012  13.873
81921SOL    HW247597   5.019   6.048  14.020
81922SOL     OW47598   9.277  14.358   6.592
81922SOL    HW147599   9.372  14.364   6.606
81922SOL    HW247600   9.263  14.398   6.507
81923SOL     OW47601   8.284   3.085   5.672
81923SOL    HW147602   8.278   3.109   5.579
81923SOL    HW247603   8.355   3.139   5.706
81924SOL     OW47604   8.230   3.317  10.223
81924SOL    HW147605   8.178   3.292  10.146
81924SOL    HW247606   8.218   3.245  10.285
81925SOL     OW47607  14.581  10.475   4.354
81925SOL    HW147608  14.530  10.446   4.430
81925SOL    HW247609  14.615  10.394   4.315
81926SOL     OW47610  11.559  10.744  11.578
81926SOL    HW147611  11.628  10.792  11.532
81926SOL    HW247612  11.478  10.786  11.550
81927SOL     OW47613   4.415   9.230   1.186
81927SOL    HW147614   4.426   9.136   1.171
81927SOL    HW247615   4.503   9.262   1.207
81928SOL     OW47616   3.561   0.990   1.700
81928SOL    HW147617   3.476   1.032   1.713
81928SOL    HW247618   3.548   0.899   1.727
81929SOL     OW47619   3.781  13.149   9.576
81929SOL    HW147620   3.833  13.216   9.621
81929SOL    HW247621   3.845  13.086   9.546
81930SOL     OW47622   6.498   3.910  12.858
81930SOL    HW147623   6.421   3.967  12.851
81930SOL    HW247624   6.534   3.908  12.770
81931SOL     OW47625   9.325  11.749  13.985
81931SOL    HW147626   9.252  11.688  13.991
81931SOL    HW247627   9.385  11.711  13.921
81932SOL     OW47628  12.142  10.262   5.347
81932SOL    HW147629  12.089  10.232   5.421
81932SOL    HW247630  12.077  10.292   5.282
81933SOL     OW47631  12.398   6.820   4.773
81933SOL    HW147632  12.352   6.742   4.741
81933SOL    HW247633  12.397   6.880   4.698
81934SOL     OW47634   2.167  14.219  14.358
81934SOL    HW147635   2.088  14.249  14.403
81934SOL    HW247636   2.199  14.147  14.412
81935SOL     OW47637   2.717  14.181   7.365
81935SOL    HW147638   2.770  14.156   7.441
81935SOL    HW247639   2.680  14.266   7.389
81936SOL     OW47640  11.228   0.472   9.861
81936SOL    HW147641  11.318   0.469   9.895
81936SOL    HW247642  11.210   0.565   9.851
81937SOL     OW47643   9.205   1.283   0.920
81937SOL    HW147644   9.280   1.313   0.868
81937SOL    HW247645   9.236   1.284   1.010
81938SOL     OW47646  12.047   4.868   9.903
81938SOL    HW147647  12.068   4.899   9.815
81938SOL    HW247648  12.129   4.831   9.935
81939SOL     OW47649  14.605   1.451   3.320
81939SOL    HW147650  14.660   1.374   3.313
81939SOL    HW247651  14.618   1.483   3.410
81940SOL     OW47652  12.321   6.077  10.481
81940SOL    HW147653  12.301   6.170  10.488
81940SOL    HW247654  12.372   6.069  10.400
81941SOL     OW47655  14.660   2.538   2.304
81941SOL    HW147656  14.664   2.616   2.360
81941SOL    HW247657  14.598   2.480   2.347
81942SOL     OW47658   2.517  12.145   8.140
81942SOL    HW147659   2.428  12.137   8.174
81942SOL    HW247660   2.570  12.165   8.217
81943SOL     OW47661   2.410   0.609   0.059
81943SOL    HW147662   2.440   0.692   0.096
81943SOL    HW247663   2.398   0.627  14.845
81944SOL     OW47664   5.620   4.881   7.154
81944SOL    HW147665   5.566   4.932   7.213
81944SOL    HW247666   5.630   4.937   7.077
81945SOL     OW47667  11.994  13.800  13.514
81945SOL    HW147668  12.026  13.722  13.468
81945SOL    HW247669  11.911  13.821  13.472
81946SOL     OW47670   6.943  12.768   8.628
81946SOL    HW147671   6.871  12.739   8.572
81946SOL    HW247672   6.901  12.790   8.711
81947SOL     OW47673   4.360   5.912   4.130
81947SOL    HW147674   4.365   5.853   4.204
81947SOL    HW247675   4.448   5.911   4.092
81948SOL     OW47676  10.247  13.593  12.740
81948SOL    HW147677  10.186  13.650  12.693
81948SOL    HW247678  10.270  13.643  12.818
81949SOL     OW47679   7.397  10.099   3.804
81949SOL    HW147680   7.467  10.036   3.785
81949SOL    HW247681   7.352  10.111   3.721
81950SOL     OW47682   1.679  10.156   1.602
81950SOL    HW147683   1.671  10.245   1.569
81950SOL    HW247684   1.737  10.164   1.678
81951SOL     OW47685  10.738   1.318   1.460
81951SOL    HW147686  10.672   1.268   1.507
81951SOL    HW247687  10.774   1.257   1.396
81952SOL     OW47688  12.286  11.053   5.501
81952SOL    HW147689  12.202  11.058   5.457
81952SOL    HW247690  12.330  10.978   5.462
81953SOL     OW47691   7.630   6.477  10.490
81953SOL    HW147692   7.573   6.408  10.455
81953SOL    HW247693   7.696   6.491  10.423
81954SOL     OW47694   2.935  12.846  11.180
81954SOL    HW147695   2.851  12.856  11.224
81954SOL    HW247696   3.000  12.861  11.248
81955SOL     OW47697   7.010  11.727   9.581
81955SOL    HW147698   7.020  11.818   9.610
81955SOL    HW247699   7.063  11.721   9.501
81956SOL     OW47700  11.683   3.483  10.599
81956SOL    HW147701  11.700   3.438  10.517
81956SOL    HW247702  11.769   3.512  10.629
81957SOL     OW47703   1.064  14.317  12.629
81957SOL    HW147704   1.134  14.354  12.575
81957SOL    HW247705   1.057  14.376  12.704
81958SOL     OW47706   2.642  11.499   4.668
81958SOL    HW147707   2.599  11.571   4.713
81958SOL    HW247708   2.572  11.455   4.620
81959SOL     OW47709   4.435   5.134   8.419
81959SOL    HW147710   4.411   5.079   8.344
81959SOL    HW247711   4.436   5.074   8.493
81960SOL     OW47712   0.361   0.497   4.053
81960SOL    HW147713   0.341   0.580   4.096
81960SOL    HW247714   0.433   0.460   4.103
81961SOL     OW47715   1.488  14.371  13.951
81961SOL    HW147716   1.394  14.386  13.953
81961SOL    HW247717   1.518  14.417  13.872
81962SOL     OW47718  11.711   3.427   7.916
81962SOL    HW147719  11.634   3.370   7.912
81962SOL    HW247720  11.686   3.505   7.868
81963SOL     OW47721   5.810   2.845   1.889
81963SOL    HW147722   5.874   2.773   1.882
81963SOL    HW247723   5.787   2.847   1.982
81964SOL     OW47724  10.698  12.956  12.173
81964SOL    HW147725  10.620  12.924  12.127
81964SOL    HW247726  10.760  12.883  12.168
81965SOL     OW47727   6.701   7.434   9.379
81965SOL    HW147728   6.759   7.366   9.344
81965SOL    HW247729   6.723   7.512   9.329
81966SOL     OW47730   9.865   3.626   7.653
81966SOL    HW147731   9.907   3.589   7.576
81966SOL    HW247732   9.930   3.686   7.690
81967SOL     OW47733   3.555  11.044   4.035
81967SOL    HW147734   3.610  10.982   3.988
81967SOL    HW247735   3.498  11.081   3.967
81968SOL     OW47736   7.044  13.798   9.053
81968SOL    HW147737   7.051  13.795   9.148
81968SOL    HW247738   7.064  13.709   9.024
81969SOL     OW47739  12.733   6.789  10.606
81969SOL    HW147740  12.674   6.736  10.659
81969SOL    HW247741  12.798   6.821  10.668
81970SOL     OW47742   6.019  14.222  13.463
81970SOL    HW147743   5.999  14.184  13.549
81970SOL    HW247744   5.946  14.195  13.407
81971SOL     OW47745   9.994  13.472  11.628
81971SOL    HW147746  10.015  13.484  11.721
81971SOL    HW247747   9.902  13.444  11.628
81972SOL     OW47748  12.206   7.761  12.039
81972SOL    HW147749  12.128   7.793  12.084
81972SOL    HW247750  12.220   7.673  12.075
81973SOL     OW47751  12.700  11.860  12.093
81973SOL    HW147752  12.648  11.796  12.045
81973SOL    HW247753  12.787  11.821  12.099
81974SOL     OW47754  11.158   7.554  10.865
81974SOL    HW147755  11.218   7.528  10.935
81974SOL    HW247756  11.215   7.587  10.796
81975SOL     OW47757  12.990  13.186   4.398
81975SOL    HW147758  12.925  13.243   4.356
81975SOL    HW247759  12.967  13.187   4.491
81976SOL     OW47760   9.656   8.949   5.049
81976SOL    HW147761   9.602   9.017   5.009
81976SOL    HW247762   9.630   8.949   5.141
81977SOL     OW47763   1.193   9.981   7.288
81977SOL    HW147764   1.228   9.896   7.258
81977SOL    HW247765   1.266  10.021   7.336
81978SOL     OW47766  10.187   2.038   4.544
81978SOL    HW147767  10.140   1.972   4.493
81978SOL    HW247768  10.131   2.115   4.539
81979SOL     OW47769   2.292   4.508   9.516
81979SOL    HW147770   2.346   4.461   9.579
81979SOL    HW247771   2.277   4.444   9.446
81980SOL     OW47772  12.877   6.431  13.563
81980SOL    HW147773  12.808   6.393  13.617
81980SOL    HW247774  12.857   6.524  13.559
81981SOL     OW47775  11.180  14.624   1.904
81981SOL    HW147776  11.195  14.661   1.991
81981SOL    HW247777  11.119  14.552   1.918
81982SOL     OW47778  12.716  13.699   9.285
81982SOL    HW147779  12.802  13.658   9.283
81982SOL    HW247780  12.707  13.733   9.374
81983SOL     OW47781   3.218   3.301   0.793
81983SOL    HW147782   3.124   3.310   0.811
81983SOL    HW247783   3.240   3.213   0.824
81984SOL     OW47784  13.395  13.649  14.683
81984SOL    HW147785  13.368  13.557  14.673
81984SOL    HW247786  13.408  13.660  14.777
81985SOL     OW47787   7.723  14.448   7.302
81985SOL    HW147788   7.777  14.527   7.291
81985SOL    HW247789   7.760  14.404   7.378
81986SOL     OW47790   6.735  11.435   2.665
81986SOL    HW147791   6.780  11.464   2.744
81986SOL    HW247792   6.707  11.517   2.623
81987SOL     OW47793  12.442   2.132  14.213
81987SOL    HW147794  12.387   2.070  14.164
81987SOL    HW247795  12.408   2.131  14.302
81988SOL     OW47796  10.336   9.981   1.770
81988SOL    HW147797  10.342  10.033   1.850
81988SOL    HW247798  10.377   9.897   1.792
81989SOL     OW47799   9.145   1.497   4.314
81989SOL    HW147800   9.180   1.531   4.396
81989SOL    HW247801   9.139   1.403   4.327
81990SOL     OW47802   2.493   2.218  10.989
81990SOL    HW147803   2.524   2.140  10.943
81990SOL    HW247804   2.524   2.291  10.935
81991SOL     OW47805   3.737  14.088   6.547
81991SOL    HW147806   3.669  14.033   6.509
81991SOL    HW247807   3.814  14.031   6.551
81992SOL     OW47808   3.438   9.891   6.406
81992SOL    HW147809   3.488   9.869   6.484
81992SOL    HW247810   3.363   9.940   6.438
81993SOL     OW47811  14.135   9.300  10.675
81993SOL    HW147812  14.065   9.258  10.625
81993SOL    HW247813  14.136   9.391  10.645
81994SOL     OW47814   1.325   5.543   2.353
81994SOL    HW147815   1.338   5.637   2.353
81994SOL    HW247816   1.372   5.512   2.276
81995SOL     OW47817  11.629   5.096   5.865
81995SOL    HW147818  11.717   5.077   5.897
81995SOL    HW247819  11.594   5.011   5.839
81996SOL     OW47820   8.329   2.063   2.652
81996SOL    HW147821   8.320   2.067   2.557
81996SOL    HW247822   8.289   2.144   2.684
81997SOL     OW47823   2.317  14.183   7.406
81997SOL    HW147824   2.254  14.178   7.333
81997SOL    HW247825   2.390  14.129   7.378
81998SOL     OW47826   7.620   9.239   0.815
81998SOL    HW147827   7.657   9.154   0.790
81998SOL    HW247828   7.695   9.299   0.813
81999SOL     OW47829  12.899   0.429   3.444
81999SOL    HW147830  12.947   0.467   3.370
81999SOL    HW247831  12.894   0.336   3.425
82000SOL     OW47832  12.544  12.492   6.202
82000SOL    HW147833  12.451  12.493   6.225
82000SOL    HW247834  12.558  12.406   6.163
82001SOL     OW47835   0.660  11.081   9.395
82001SOL    HW147836   0.656  11.079   9.491
82001SOL    HW247837   0.666  11.174   9.374
82002SOL     OW47838  14.412   1.639   7.824
82002SOL    HW147839  14.433   1.612   7.735
82002SOL    HW247840  14.317   1.648   7.825
82003SOL     OW47841  11.633   1.523   6.044
82003SOL    HW147842  11.666   1.455   5.985
82003SOL    HW247843  11.712   1.561   6.082
82004SOL     OW47844   9.370  12.615   6.649
82004SOL    HW147845   9.448  12.649   6.606
82004SOL    HW247846   9.393  12.526   6.674
82005SOL     OW47847   7.844  13.536  10.638
82005SOL    HW147848   7.894  13.613  10.612
82005SOL    HW247849   7.806  13.559  10.722
82006SOL     OW47850  14.342   7.454   5.312
82006SOL    HW147851  14.385   7.395   5.250
82006SOL    HW247852  14.270   7.403   5.348
82007SOL     OW47853   9.386  13.275   9.442
82007SOL    HW147854   9.384  13.327   9.362
82007SOL    HW247855   9.343  13.329   9.508
82008SOL     OW47856   1.178   3.256  11.512
82008SOL    HW147857   1.182   3.252  11.417
82008SOL    HW247858   1.134   3.339  11.531
82009SOL     OW47859   6.163  12.375   7.557
82009SOL    HW147860   6.240  12.431   7.565
82009SOL    HW247861   6.112  12.415   7.487
82010SOL     OW47862   1.579  10.650   5.331
82010SOL    HW147863   1.554  10.740   5.351
82010SOL    HW247864   1.659  10.636   5.383
82011SOL     OW47865  12.102   5.235  12.183
82011SOL    HW147866  12.133   5.238  12.274
82011SOL    HW247867  12.024   5.291  12.182
82012SOL     OW47868   4.800   0.884   0.960
82012SOL    HW147869   4.794   0.925   0.874
82012SOL    HW247870   4.888   0.907   0.991
82013SOL     OW47871  14.719   7.017  10.739
82013SOL    HW147872  14.811   7.043  10.745
82013SOL    HW247873  14.671   7.099  10.744
82014SOL     OW47874   1.241   4.675   8.010
82014SOL    HW147875   1.239   4.763   8.047
82014SOL    HW247876   1.151   4.660   7.979
82015SOL     OW47877   0.783  11.562   8.188
82015SOL    HW147878   0.729  11.640   8.204
82015SOL    HW247879   0.850  11.565   8.258
82016SOL     OW47880   7.774   5.573  14.014
82016SOL    HW147881   7.851   5.516  14.020
82016SOL    HW247882   7.809   5.656  13.979
82017SOL     OW47883   1.088  11.801   4.794
82017SOL    HW147884   0.997  11.811   4.821
82017SOL    HW247885   1.094  11.712   4.761
82018SOL     OW47886   4.158   9.941   6.997
82018SOL    HW147887   4.188   9.966   6.909
82018SOL    HW247888   4.063   9.934   6.989
82019SOL     OW47889   0.423  10.451   7.288
82019SOL    HW147890   0.351  10.476   7.230
82019SOL    HW247891   0.399  10.489   7.373
82020SOL     OW47892  13.213   4.655   1.341
82020SOL    HW147893  13.117   4.659   1.335
82020SOL    HW247894  13.244   4.678   1.254
82021SOL     OW47895   3.364   2.240   9.310
82021SOL    HW147896   3.406   2.325   9.319
82021SOL    HW247897   3.274   2.261   9.282
82022SOL     OW47898  10.171  10.406   3.719
82022SOL    HW147899  10.189  10.493   3.755
82022SOL    HW247900  10.137  10.422   3.631
82023SOL     OW47901   1.599   9.473   6.498
82023SOL    HW147902   1.690   9.502   6.499
82023SOL    HW247903   1.580   9.458   6.405
82024SOL     OW47904   4.118  10.870   5.905
82024SOL    HW147905   4.192  10.896   5.850
82024SOL    HW247906   4.101  10.780   5.880
82025SOL     OW47907   7.734  11.930   0.474
82025SOL    HW147908   7.764  11.975   0.394
82025SOL    HW247909   7.690  11.998   0.525
82026SOL     OW47910   3.791   2.195   1.487
82026SOL    HW147911   3.858   2.250   1.446
82026SOL    HW247912   3.734   2.169   1.414
82027SOL     OW47913   0.062  13.473   8.653
82027SOL    HW147914  14.868  13.500   8.598
82027SOL    HW247915   0.126  13.436   8.592
82028SOL     OW47916  10.288   4.115   8.110
82028SOL    HW147917  10.334   4.107   8.026
82028SOL    HW247918  10.321   4.042   8.162
82029SOL     OW47919  13.147   5.999   0.492
82029SOL    HW147920  13.101   6.047   0.560
82029SOL    HW247921  13.239   6.026   0.501
82030SOL     OW47922  10.970  14.205  10.950
82030SOL    HW147923  10.995  14.281  11.002
82030SOL    HW247924  11.006  14.223  10.863
82031SOL     OW47925   2.490   7.208   8.333
82031SOL    HW147926   2.571   7.238   8.292
82031SOL    HW247927   2.423   7.225   8.268
82032SOL     OW47928   4.525  12.752   7.351
82032SOL    HW147929   4.581  12.713   7.418
82032SOL    HW247930   4.480  12.823   7.397
82033SOL     OW47931   4.933  11.776   1.667
82033SOL    HW147932   4.885  11.708   1.620
82033SOL    HW247933   4.915  11.758   1.759
82034SOL     OW47934   1.410   8.650   0.485
82034SOL    HW147935   1.420   8.597   0.564
82034SOL    HW247936   1.448   8.735   0.509
82035SOL     OW47937  10.120   5.799   2.750
82035SOL    HW147938  10.033   5.814   2.787
82035SOL    HW247939  10.180   5.811   2.824
82036SOL     OW47940   9.310   1.598   0.535
82036SOL    HW147941   9.355   1.529   0.486
82036SOL    HW247942   9.224   1.561   0.555
82037SOL     OW47943  14.688   7.270   7.394
82037SOL    HW147944  14.714   7.221   7.472
82037SOL    HW247945  14.706   7.210   7.321
82038SOL     OW47946   3.215  11.900   9.119
82038SOL    HW147947   3.240  11.832   9.057
82038SOL    HW247948   3.128  11.928   9.092
82039SOL     OW47949  14.024  10.864   9.659
82039SOL    HW147950  14.078  10.928   9.612
82039SOL    HW247951  13.969  10.917   9.717
82040SOL     OW47952   0.072  11.634   1.504
82040SOL    HW147953   0.108  11.656   1.591
82040SOL    HW247954   0.042  11.717   1.468
82041SOL     OW47955   6.015   0.064  13.564
82041SOL    HW147956   5.983   0.003  13.631
82041SOL    HW247957   5.945   0.130  13.557
82042SOL     OW47958   4.225   9.728  11.128
82042SOL    HW147959   4.292   9.708  11.194
82042SOL    HW247960   4.275   9.764  11.055
82043SOL     OW47961   2.005   4.510  10.165
82043SOL    HW147962   2.008   4.581  10.230
82043SOL    HW247963   2.013   4.555  10.081
82044SOL     OW47964   3.554  12.384   8.481
82044SOL    HW147965   3.476  12.372   8.426
82044SOL    HW247966   3.601  12.301   8.473
82045SOL     OW47967  12.120   3.990   8.534
82045SOL    HW147968  12.064   4.003   8.458
82045SOL    HW247969  12.093   4.058   8.596
82046SOL     OW47970  13.308   0.349   4.799
82046SOL    HW147971  13.247   0.367   4.728
82046SOL    HW247972  13.282   0.263   4.832
82047SOL     OW47973   1.392   2.140   0.209
82047SOL    HW147974   1.468   2.149   0.267
82047SOL    HW247975   1.356   2.229   0.203
82048SOL     OW47976  11.908   3.338  13.899
82048SOL    HW147977  11.815   3.334  13.925
82048SOL    HW247978  11.908   3.394  13.822
82049SOL     OW47979   1.826  10.230  14.559
82049SOL    HW147980   1.806  10.150  14.510
82049SOL    HW247981   1.749  10.285  14.547
82050SOL     OW47982   5.918   5.341   0.351
82050SOL    HW147983   5.843   5.295   0.315
82050SOL    HW247984   5.976   5.355   0.276
82051SOL     OW47985  11.219  10.372   5.240
82051SOL    HW147986  11.178  10.305   5.296
82051SOL    HW247987  11.199  10.344   5.151
82052SOL     OW47988  11.499   3.684   1.541
82052SOL    HW147989  11.525   3.595   1.563
82052SOL    HW247990  11.410   3.676   1.508
82053SOL     OW47991   2.373   5.117  10.956
82053SOL    HW147992   2.379   5.198  10.905
82053SOL    HW247993   2.455   5.072  10.939
82054SOL     OW47994   0.751  14.612   4.244
82054SOL    HW147995   0.821  14.644   4.300
82054SOL    HW247996   0.796  14.572   4.169
82055SOL     OW47997   3.362   8.809  13.491
82055SOL    HW147998   3.355   8.771  13.403
82055SOL    HW247999   3.347   8.903  13.478
82056SOL     OW48000   4.403   6.448  11.338
82056SOL    HW148001   4.416   6.385  11.409
82056SOL    HW248002   4.432   6.532  11.374
82057SOL     OW48003   5.333   4.066  10.566
82057SOL    HW148004   5.277   3.989  10.578
82057SOL    HW248005   5.362   4.088  10.655
82058SOL     OW48006   0.879   8.538  14.308
82058SOL    HW148007   0.815   8.596  14.267
82058SOL    HW248008   0.852   8.450  14.281
82059SOL     OW48009  10.670   8.755   5.549
82059SOL    HW148010  10.598   8.734   5.490
82059SOL    HW248011  10.748   8.724   5.503
82060SOL     OW48012   6.287   4.558  13.753
82060SOL    HW148013   6.275   4.652  13.738
82060SOL    HW248014   6.197   4.523  13.756
82061SOL     OW48015   7.952   3.110   9.784
82061SOL    HW148016   7.933   3.201   9.763
82061SOL    HW248017   7.905   3.060   9.717
82062SOL     OW48018   7.749  11.200   0.277
82062SOL    HW148019   7.793  11.269   0.327
82062SOL    HW248020   7.796  11.198   0.194
82063SOL     OW48021  10.161   5.946   7.896
82063SOL    HW148022  10.118   6.016   7.847
82063SOL    HW248023  10.199   5.989   7.972
82064SOL     OW48024   9.665   2.175   9.305
82064SOL    HW148025   9.599   2.240   9.330
82064SOL    HW248026   9.725   2.172   9.379
82065SOL     OW48027   2.654   6.089   7.368
82065SOL    HW148028   2.564   6.121   7.360
82065SOL    HW248029   2.666   6.073   7.461
82066SOL     OW48030  11.330  12.517   7.163
82066SOL    HW148031  11.416  12.533   7.203
82066SOL    HW248032  11.348  12.461   7.088
82067SOL     OW48033   9.963   7.279   5.913
82067SOL    HW148034   9.880   7.324   5.894
82067SOL    HW248035  10.012   7.339   5.968
82068SOL     OW48036   6.365  11.798   7.036
82068SOL    HW148037   6.310  11.738   6.985
82068SOL    HW248038   6.454  11.772   7.014
82069SOL     OW48039  10.623  13.961   6.148
82069SOL    HW148040  10.604  13.905   6.073
82069SOL    HW248041  10.538  13.977   6.189
82070SOL     OW48042   3.525  13.551   3.655
82070SOL    HW148043   3.533  13.600   3.737
82070SOL    HW248044   3.607  13.501   3.649
82071SOL     OW48045   9.846  13.469  13.010
82071SOL    HW148046   9.900  13.489  13.086
82071SOL    HW248047   9.889  13.395  12.967
82072SOL     OW48048   3.527   5.390  12.315
82072SOL    HW148049   3.511   5.298  12.340
82072SOL    HW248050   3.444   5.419  12.277
82073SOL     OW48051   2.765   5.819   6.349
82073SOL    HW148052   2.714   5.740   6.336
82073SOL    HW248053   2.775   5.857   6.262
82074SOL     OW48054   1.483   3.238   9.324
82074SOL    HW148055   1.419   3.222   9.255
82074SOL    HW248056   1.435   3.223   9.406
82075SOL     OW48057   9.537   6.711   5.987
82075SOL    HW148058   9.462   6.753   5.945
82075SOL    HW248059   9.610   6.723   5.926
82076SOL     OW48060   6.158   8.200   9.773
82076SOL    HW148061   6.112   8.179   9.691
82076SOL    HW248062   6.162   8.296   9.774
82077SOL     OW48063   0.845   9.887   2.576
82077SOL    HW148064   0.851   9.843   2.661
82077SOL    HW248065   0.758   9.925   2.574
82078SOL     OW48066  11.610   5.938  13.939
82078SOL    HW148067  11.569   6.006  13.992
82078SOL    HW248068  11.612   5.861  13.996
82079SOL     OW48069   1.193  13.054  11.401
82079SOL    HW148070   1.136  13.116  11.356
82079SOL    HW248071   1.151  13.038  11.485
82080SOL     OW48072   9.661  11.067   1.581
82080SOL    HW148073   9.582  11.027   1.545
82080SOL    HW248074   9.727  10.998   1.577
82081SOL     OW48075  10.466   9.755  14.559
82081SOL    HW148076  10.503   9.671  14.534
82081SOL    HW248077  10.501   9.773  14.646
82082SOL     OW48078  13.894   2.859  10.605
82082SOL    HW148079  13.837   2.800  10.556
82082SOL    HW248080  13.915   2.812  10.686
82083SOL     OW48081   3.447   4.076  13.963
82083SOL    HW148082   3.485   4.147  14.015
82083SOL    HW248083   3.519   4.044  13.910
82084SOL     OW48084   9.576   8.024   4.888
82084SOL    HW148085   9.531   7.961   4.943
82084SOL    HW248086   9.513   8.095   4.875
82085SOL     OW48087   4.104   8.677   7.119
82085SOL    HW148088   4.126   8.699   7.210
82085SOL    HW248089   4.138   8.588   7.107
82086SOL     OW48090   1.621  10.672   6.687
82086SOL    HW148091   1.602  10.667   6.780
82086SOL    HW248092   1.612  10.582   6.655
82087SOL     OW48093   2.316   2.266   1.625
82087SOL    HW148094   2.370   2.188   1.613
82087SOL    HW248095   2.297   2.267   1.719
82088SOL     OW48096  10.351  11.806   6.518
82088SOL    HW148097  10.277  11.763   6.561
82088SOL    HW248098  10.377  11.745   6.449
82089SOL     OW48099   0.333   8.868   1.448
82089SOL    HW148100   0.305   8.781   1.419
82089SOL    HW248101   0.315   8.925   1.373
82090SOL     OW48102  11.811   3.100   4.004
82090SOL    HW148103  11.900   3.092   4.039
82090SOL    HW248104  11.821   3.155   3.926
82091SOL     OW48105   3.173   2.730  11.498
82091SOL    HW148106   3.249   2.709  11.443
82091SOL    HW248107   3.121   2.790  11.444
82092SOL     OW48108   4.427   4.391   8.707
82092SOL    HW148109   4.364   4.347   8.764
82092SOL    HW248110   4.375   4.420   8.632
82093SOL     OW48111  12.226   4.168   4.185
82093SOL    HW148112  12.249   4.260   4.179
82093SOL    HW248113  12.159   4.164   4.253
82094SOL     OW48114   4.522   8.470  12.043
82094SOL    HW148115   4.530   8.414  11.966
82094SOL    HW248116   4.581   8.544  12.025
82095SOL     OW48117  11.531   1.105   7.668
82095SOL    HW148118  11.608   1.070   7.713
82095SOL    HW248119  11.499   1.175   7.725
82096SOL     OW48120   4.416  14.279   5.807
82096SOL    HW148121   4.482  14.252   5.744
82096SOL    HW248122   4.456  14.261   5.892
82097SOL     OW48123   2.270  13.286   9.272
82097SOL    HW148124   2.190  13.234   9.262
82097SOL    HW248125   2.241  13.377   9.265
82098SOL     OW48126   7.666   1.589   8.969
82098SOL    HW148127   7.758   1.589   8.941
82098SOL    HW248128   7.669   1.619   9.060
82099SOL     OW48129   2.270  12.875   3.709
82099SOL    HW148130   2.289  12.823   3.787
82099SOL    HW248131   2.242  12.960   3.742
82100SOL     OW48132   6.944  14.760   1.519
82100SOL    HW148133   6.950  14.837   1.575
82100SOL    HW248134   7.032  14.722   1.521
82101SOL     OW48135   1.379  11.344  11.810
82101SOL    HW148136   1.451  11.407  11.811
82101SOL    HW248137   1.411  11.272  11.754
82102SOL     OW48138   5.494   8.056  11.356
82102SOL    HW148139   5.517   8.120  11.423
82102SOL    HW248140   5.575   8.044  11.305
82103SOL     OW48141   2.790   3.202  11.344
82103SOL    HW148142   2.884   3.216  11.334
82103SOL    HW248143   2.752   3.289  11.332
82104SOL     OW48144  10.270  10.988  14.262
82104SOL    HW148145  10.274  11.075  14.302
82104SOL    HW248146  10.263  11.005  14.169
82105SOL     OW48147   4.974   5.082  11.541
82105SOL    HW148148   4.928   5.066  11.623
82105SOL    HW248149   5.002   5.174  11.546
82106SOL     OW48150   8.075   1.985  11.193
82106SOL    HW148151   8.111   1.900  11.170
82106SOL    HW248152   8.146   2.030  11.239
82107SOL     OW48153   2.830   7.561   6.996
82107SOL    HW148154   2.805   7.644   7.038
82107SOL    HW248155   2.746   7.516   6.981
82108SOL     OW48156  12.080   3.025  12.284
82108SOL    HW148157  12.066   3.107  12.236
82108SOL    HW248158  12.131   2.971  12.224
82109SOL     OW48159  10.281   1.315   9.164
82109SOL    HW148160  10.259   1.406   9.144
82109SOL    HW248161  10.358   1.322   9.220
82110SOL     OW48162   0.335   5.322  10.675
82110SOL    HW148163   0.349   5.394  10.614
82110SOL    HW248164   0.239   5.315  10.681
82111SOL     OW48165   9.541  12.630   5.511
82111SOL    HW148166   9.558  12.670   5.596
82111SOL    HW248167   9.625  12.593   5.484
82112SOL     OW48168   4.878   0.782  14.779
82112SOL    HW148169   4.793   0.786  14.734
82112SOL    HW248170   4.861   0.726  14.855
82113SOL     OW48171   2.394  10.029   1.170
82113SOL    HW148172   2.438   9.971   1.232
82113SOL    HW248173   2.399   9.983   1.086
82114SOL     OW48174   1.742   0.192   9.044
82114SOL    HW148175   1.732   0.133   8.969
82114SOL    HW248176   1.826   0.168   9.084
82115SOL     OW48177   4.728  11.841   8.406
82115SOL    HW148178   4.729  11.770   8.343
82115SOL    HW248179   4.756  11.800   8.488
82116SOL     OW48180  13.189   5.802  13.135
82116SOL    HW148181  13.218   5.867  13.199
82116SOL    HW248182  13.142   5.736  13.185
82117SOL     OW48183   6.063   5.246   8.531
82117SOL    HW148184   6.096   5.331   8.562
82117SOL    HW248185   5.982   5.267   8.485
82118SOL     OW48186   3.748   0.751   2.791
82118SOL    HW148187   3.829   0.777   2.747
82118SOL    HW248188   3.718   0.832   2.833
82119SOL     OW48189   7.078   1.689   1.298
82119SOL    HW148190   7.161   1.708   1.254
82119SOL    HW248191   7.024   1.767   1.284
82120SOL     OW48192   4.196   0.901  11.517
82120SOL    HW148193   4.107   0.865  11.528
82120SOL    HW248194   4.213   0.947  11.599
82121SOL     OW48195   1.206  11.628   0.892
82121SOL    HW148196   1.242  11.539   0.884
82121SOL    HW248197   1.162  11.643   0.808
82122SOL     OW48198   9.348   7.859   8.773
82122SOL    HW148199   9.437   7.828   8.759
82122SOL    HW248200   9.316   7.808   8.848
82123SOL     OW48201   7.246   0.244   9.327
82123SOL    HW148202   7.192   0.166   9.321
82123SOL    HW248203   7.183   0.317   9.326
82124SOL     OW48204  14.136   8.552   9.263
82124SOL    HW148205  14.131   8.512   9.176
82124SOL    HW248206  14.061   8.611   9.267
82125SOL     OW48207   6.548   5.931   9.465
82125SOL    HW148208   6.526   5.956   9.555
82125SOL    HW248209   6.596   5.849   9.473
82126SOL     OW48210   1.733   2.147  14.683
82126SOL    HW148211   1.777   2.232  14.695
82126SOL    HW248212   1.684   2.133  14.764
82127SOL     OW48213   1.823   1.484  13.709
82127SOL    HW148214   1.874   1.405  13.692
82127SOL    HW248215   1.737   1.452  13.734
82128SOL     OW48216   5.668   0.289  10.761
82128SOL    HW148217   5.638   0.298  10.852
82128SOL    HW248218   5.694   0.197  10.754
82129SOL     OW48219   6.658  12.105   8.175
82129SOL    HW148220   6.692  12.186   8.138
82129SOL    HW248221   6.582  12.084   8.122
82130SOL     OW48222   5.643   7.514   3.366
82130SOL    HW148223   5.598   7.487   3.286
82130SOL    HW248224   5.701   7.585   3.338
82131SOL     OW48225  11.096   8.118   7.030
82131SOL    HW148226  11.105   8.155   6.942
82131SOL    HW248227  11.002   8.107   7.042
82132SOL     OW48228  14.076   6.468  12.317
82132SOL    HW148229  14.153   6.486  12.370
82132SOL    HW248230  14.005   6.457  12.380
82133SOL     OW48231  11.457   0.115   8.511
82133SOL    HW148232  11.393   0.055   8.549
82133SOL    HW248233  11.489   0.070   8.433
82134SOL     OW48234  13.688   0.056   8.674
82134SOL    HW148235  13.729  14.864   8.624
82134SOL    HW248236  13.645   0.110   8.608
82135SOL     OW48237   8.529   9.070   4.644
82135SOL    HW148238   8.514   9.085   4.551
82135SOL    HW248239   8.582   9.145   4.672
82136SOL     OW48240  10.436   3.730   1.895
82136SOL    HW148241  10.452   3.748   1.802
82136SOL    HW248242  10.516   3.687   1.925
82137SOL     OW48243   1.090   8.188  10.936
82137SOL    HW148244   1.185   8.201  10.935
82137SOL    HW248245   1.074   8.130  11.011
82138SOL     OW48246   1.196  12.474  14.150
82138SOL    HW148247   1.280  12.492  14.108
82138SOL    HW248248   1.139  12.545  14.121
82139SOL     OW48249   7.040   8.106   6.821
82139SOL    HW148250   7.053   8.032   6.762
82139SOL    HW248251   6.947   8.128   6.814
82140SOL     OW48252  14.554   1.169   1.069
82140SOL    HW148253  14.598   1.122   0.998
82140SOL    HW248254  14.563   1.262   1.045
82141SOL     OW48255  12.093   9.630   0.705
82141SOL    HW148256  12.079   9.644   0.611
82141SOL    HW248257  12.015   9.584   0.734
82142SOL     OW48258   5.107   1.326   4.524
82142SOL    HW148259   5.144   1.294   4.442
82142SOL    HW248260   5.125   1.256   4.587
82143SOL     OW48261  10.838   2.120   8.793
82143SOL    HW148262  10.883   2.141   8.874
82143SOL    HW248263  10.889   2.048   8.754
82144SOL     OW48264   7.090   3.950  14.275
82144SOL    HW148265   7.150   4.016  14.309
82144SOL    HW248266   7.147   3.878  14.248
82145SOL     OW48267  13.441   9.412   6.296
82145SOL    HW148268  13.479   9.454   6.219
82145SOL    HW248269  13.347   9.427   6.288
82146SOL     OW48270   9.993   0.494  12.991
82146SOL    HW148271   9.985   0.472  12.898
82146SOL    HW248272  10.043   0.575  12.992
82147SOL     OW48273  11.963   2.942   0.145
82147SOL    HW148274  12.018   2.900   0.210
82147SOL    HW248275  11.919   3.013   0.192
82148SOL     OW48276   6.790   3.709   0.933
82148SOL    HW148277   6.823   3.725   1.021
82148SOL    HW248278   6.831   3.777   0.879
82149SOL     OW48279   7.452  14.541  10.270
82149SOL    HW148280   7.361  14.568  10.259
82149SOL    HW248281   7.478  14.508  10.184
82150SOL     OW48282  11.841   8.709   9.833
82150SOL    HW148283  11.807   8.674   9.751
82150SOL    HW248284  11.770   8.762   9.868
82151SOL     OW48285   1.938   0.911  13.964
82151SOL    HW148286   1.961   0.839  13.905
82151SOL    HW248287   2.023   0.943  13.996
82152SOL     OW48288  11.405   8.805   2.225
82152SOL    HW148289  11.474   8.739   2.224
82152SOL    HW248290  11.352   8.787   2.148
82153SOL     OW48291  14.490   6.981   9.144
82153SOL    HW148292  14.452   6.915   9.086
82153SOL    HW248293  14.469   6.950   9.232
82154SOL     OW48294  13.246   9.445   0.860
82154SOL    HW148295  13.287   9.492   0.933
82154SOL    HW248296  13.298   9.470   0.784
82155SOL     OW48297  13.809   0.318   5.551
82155SOL    HW148298  13.877   0.349   5.611
82155SOL    HW248299  13.734   0.374   5.569
82156SOL     OW48300   8.532  14.065   5.267
82156SOL    HW148301   8.560  13.975   5.285
82156SOL    HW248302   8.544  14.076   5.172
82157SOL     OW48303  14.274   3.578   9.159
82157SOL    HW148304  14.206   3.545   9.100
82157SOL    HW248305  14.338   3.507   9.163
82158SOL     OW48306  14.746  10.472  13.436
82158SOL    HW148307  14.752  10.377  13.430
82158SOL    HW248308  14.703  10.488  13.520
82159SOL     OW48309  13.867   4.520  13.326
82159SOL    HW148310  13.880   4.434  13.366
82159SOL    HW248311  13.953   4.560  13.327
82160SOL     OW48312  12.819   3.091   3.024
82160SOL    HW148313  12.785   3.003   3.009
82160SOL    HW248314  12.799   3.140   2.944
82161SOL     OW48315   3.050   9.570   0.324
82161SOL    HW148316   3.047   9.477   0.300
82161SOL    HW248317   3.136   9.600   0.294
82162SOL     OW48318  14.692  14.069   5.187
82162SOL    HW148319  14.693  14.087   5.093
82162SOL    HW248320  14.609  14.024   5.202
82163SOL     OW48321   8.089   6.183   4.430
82163SOL    HW148322   8.106   6.104   4.378
82163SOL    HW248323   7.993   6.192   4.429
82164SOL     OW48324   7.636  10.583   5.116
82164SOL    HW148325   7.613  10.500   5.156
82164SOL    HW248326   7.649  10.563   5.024
82165SOL     OW48327   8.916   5.138  13.550
82165SOL    HW148328   8.943   5.186  13.472
82165SOL    HW248329   8.871   5.204  13.604
82166SOL     OW48330   0.615   3.006  11.565
82166SOL    HW148331   0.675   2.939  11.595
82166SOL    HW248332   0.668   3.086  11.562
82167SOL     OW48333   8.900   5.116   5.494
82167SOL    HW148334   8.842   5.171   5.441
82167SOL    HW248335   8.980   5.169   5.503
82168SOL     OW48336   2.531   8.751   2.923
82168SOL    HW148337   2.586   8.801   2.863
82168SOL    HW248338   2.549   8.660   2.901
82169SOL     OW48339  10.673  12.227   1.326
82169SOL    HW148340  10.654  12.156   1.266
82169SOL    HW248341  10.590  12.245   1.369
82170SOL     OW48342   3.200   6.247   6.554
82170SOL    HW148343   3.222   6.213   6.641
82170SOL    HW248344   3.121   6.198   6.529
82171SOL     OW48345   8.357  14.301   8.918
82171SOL    HW148346   8.290  14.235   8.937
82171SOL    HW248347   8.308  14.374   8.880
82172SOL     OW48348   7.785   2.339   5.405
82172SOL    HW148349   7.694   2.320   5.380
82172SOL    HW248350   7.801   2.426   5.369
82173SOL     OW48351   9.022   5.599   2.800
82173SOL    HW148352   9.038   5.515   2.759
82173SOL    HW248353   9.061   5.663   2.740
82174SOL     OW48354   9.793  12.067  14.835
82174SOL    HW148355   9.772  12.102  14.749
82174SOL    HW248356   9.734  11.991  14.845
82175SOL     OW48357   6.730  14.647   8.980
82175SOL    HW148358   6.711  14.707   9.052
82175SOL    HW248359   6.745  14.704   8.905
82176SOL     OW48360  12.074   6.431   1.391
82176SOL    HW148361  12.006   6.434   1.458
82176SOL    HW248362  12.094   6.523   1.372
82177SOL     OW48363  12.902   9.254   3.876
82177SOL    HW148364  12.824   9.288   3.919
82177SOL    HW248365  12.870   9.214   3.796
82178SOL     OW48366   6.061  11.006  11.941
82178SOL    HW148367   6.046  11.003  11.846
82178SOL    HW248368   5.973  11.019  11.978
82179SOL     OW48369  11.847   2.167   0.575
82179SOL    HW148370  11.844   2.074   0.554
82179SOL    HW248371  11.934   2.181   0.611
82180SOL     OW48372   3.186  13.063   8.220
82180SOL    HW148373   3.141  12.982   8.242
82180SOL    HW248374   3.238  13.084   8.297
82181SOL     OW48375   0.795   4.593  13.419
82181SOL    HW148376   0.791   4.635  13.333
82181SOL    HW248377   0.776   4.501  13.401
82182SOL     OW48378   2.751  12.609   8.925
82182SOL    HW148379   2.793  12.588   8.841
82182SOL    HW248380   2.817  12.660   8.972
82183SOL     OW48381  12.616  11.607  13.975
82183SOL    HW148382  12.684  11.579  14.037
82183SOL    HW248383  12.648  11.579  13.890
82184SOL     OW48384   0.289  11.523   5.209
82184SOL    HW148385   0.246  11.605   5.234
82184SOL    HW248386   0.235  11.489   5.137
82185SOL     OW48387   5.815   9.209   2.330
82185SOL    HW148388   5.864   9.286   2.302
82185SOL    HW248389   5.881   9.151   2.367
82186SOL     OW48390   4.468   1.132   0.610
82186SOL    HW148391   4.412   1.162   0.682
82186SOL    HW248392   4.427   1.052   0.579
82187SOL     OW48393   4.995   1.983  13.554
82187SOL    HW148394   5.048   1.993  13.633
82187SOL    HW248395   5.013   2.061  13.502
82188SOL     OW48396   5.361  12.430  12.834
82188SOL    HW148397   5.296  12.477  12.886
82188SOL    HW248398   5.436  12.421  12.892
82189SOL     OW48399  14.100  13.599   9.136
82189SOL    HW148400  14.011  13.593   9.103
82189SOL    HW248401  14.110  13.525   9.195
82190SOL     OW48402  11.070   4.079   4.143
82190SOL    HW148403  11.015   4.041   4.212
82190SOL    HW248404  11.011   4.136   4.094
82191SOL     OW48405   3.680   5.954   2.826
82191SOL    HW148406   3.647   5.888   2.765
82191SOL    HW248407   3.655   5.921   2.913
82192SOL     OW48408   1.176   8.464   3.127
82192SOL    HW148409   1.150   8.429   3.042
82192SOL    HW248410   1.240   8.532   3.106
82193SOL     OW48411   4.659   4.746   9.340
82193SOL    HW148412   4.709   4.695   9.403
82193SOL    HW248413   4.621   4.681   9.281
82194SOL     OW48414  14.168  11.268   4.460
82194SOL    HW148415  14.136  11.344   4.508
82194SOL    HW248416  14.237  11.302   4.403
82195SOL     OW48417   1.313   2.254  11.873
82195SOL    HW148418   1.324   2.266  11.968
82195SOL    HW248419   1.341   2.338  11.836
82196SOL     OW48420   0.948   4.834  13.826
82196SOL    HW148421   1.016   4.850  13.891
82196SOL    HW248422   0.881   4.785  13.872
82197SOL     OW48423  11.966   6.802   8.170
82197SOL    HW148424  11.920   6.732   8.216
82197SOL    HW248425  11.903   6.835   8.107
82198SOL     OW48426   3.056   9.378   7.323
82198SOL    HW148427   3.091   9.327   7.250
82198SOL    HW248428   3.131   9.428   7.355
82199SOL     OW48429   0.235  12.726   8.153
82199SOL    HW148430   0.258  12.766   8.069
82199SOL    HW248431   0.200  12.640   8.130
82200SOL     OW48432  12.438  11.332  13.975
82200SOL    HW148433  12.354  11.302  14.008
82200SOL    HW248434  12.447  11.421  14.009
82201SOL     OW48435   6.892   3.529   9.516
82201SOL    HW148436   6.940   3.490   9.589
82201SOL    HW248437   6.910   3.471   9.442
82202SOL     OW48438   8.440   3.608   8.615
82202SOL    HW148439   8.465   3.611   8.707
82202SOL    HW248440   8.522   3.591   8.568
82203SOL     OW48441   1.408   5.599  14.812
82203SOL    HW148442   1.409   5.631  14.722
82203SOL    HW248443   1.487   5.636  14.852
82204SOL     OW48444   5.989  13.388   3.626
82204SOL    HW148445   5.940  13.455   3.673
82204SOL    HW248446   5.960  13.396   3.535
82205SOL     OW48447   8.913   1.687   7.462
82205SOL    HW148448   8.898   1.646   7.377
82205SOL    HW248449   8.829   1.679   7.508
82206SOL     OW48450   1.689   5.718   2.029
82206SOL    HW148451   1.680   5.641   1.972
82206SOL    HW248452   1.617   5.710   2.092
82207SOL     OW48453   0.896   9.086  14.100
82207SOL    HW148454   0.990   9.068  14.108
82207SOL    HW248455   0.853   9.012  14.143
82208SOL     OW48456   1.413  12.701   3.643
82208SOL    HW148457   1.337  12.755   3.662
82208SOL    HW248458   1.419  12.700   3.547
82209SOL     OW48459  12.280   5.332   0.190
82209SOL    HW148460  12.196   5.376   0.180
82209SOL    HW248461  12.301   5.339   0.283
82210SOL     OW48462   6.153  12.996   2.885
82210SOL    HW148463   6.192  13.031   2.964
82210SOL    HW248464   6.205  12.918   2.864
82211SOL     OW48465   6.848   9.389   5.307
82211SOL    HW148466   6.759   9.401   5.341
82211SOL    HW248467   6.855   9.296   5.288
82212SOL     OW48468  12.163   0.671   6.639
82212SOL    HW148469  12.248   0.665   6.683
82212SOL    HW248470  12.164   0.756   6.596
82213SOL     OW48471   3.355   5.723   5.247
82213SOL    HW148472   3.327   5.807   5.283
82213SOL    HW248473   3.355   5.664   5.322
82214SOL     OW48474  11.022  11.123  12.741
82214SOL    HW148475  11.068  11.111  12.658
82214SOL    HW248476  11.024  11.217  12.756
82215SOL     OW48477   8.505   3.430  13.743
82215SOL    HW148478   8.415   3.428  13.775
82215SOL    HW248479   8.514   3.349  13.692
82216SOL     OW48480   0.789   1.746   6.939
82216SOL    HW148481   0.694   1.755   6.944
82216SOL    HW248482   0.808   1.666   6.989
82217SOL     OW48483  13.659  12.082   8.857
82217SOL    HW148484  13.577  12.119   8.892
82217SOL    HW248485  13.702  12.156   8.814
82218SOL     OW48486   8.249   4.208   6.309
82218SOL    HW148487   8.264   4.302   6.320
82218SOL    HW248488   8.173   4.202   6.252
82219SOL     OW48489   0.166  13.140  10.556
82219SOL    HW148490   0.239  13.144  10.618
82219SOL    HW248491   0.140  13.231  10.544
82220SOL     OW48492   0.790   3.121   4.729
82220SOL    HW148493   0.811   3.183   4.659
82220SOL    HW248494   0.873   3.107   4.775
82221SOL     OW48495   8.893  14.064   3.834
82221SOL    HW148496   8.952  14.012   3.889
82221SOL    HW248497   8.815  14.076   3.888
82222SOL     OW48498   5.966  11.751  13.297
82222SOL    HW148499   6.026  11.759  13.370
82222SOL    HW248500   6.020  11.765  13.219
82223SOL     OW48501  10.491   0.881  13.962
82223SOL    HW148502  10.538   0.842  14.037
82223SOL    HW248503  10.427   0.815  13.937
82224SOL     OW48504   2.034   0.700   0.246
82224SOL    HW148505   2.062   0.623   0.196
82224SOL    HW248506   2.009   0.764   0.178
82225SOL     OW48507   5.589   7.696   4.447
82225SOL    HW148508   5.499   7.683   4.477
82225SOL    HW248509   5.615   7.780   4.485
82226SOL     OW48510   8.923  11.891   8.803
82226SOL    HW148511   8.954  11.806   8.835
82226SOL    HW248512   8.947  11.953   8.871
82227SOL     OW48513  12.108   8.714   4.524
82227SOL    HW148514  12.063   8.775   4.583
82227SOL    HW248515  12.083   8.744   4.436
82228SOL     OW48516   9.201   0.681   0.839
82228SOL    HW148517   9.153   0.764   0.836
82228SOL    HW248518   9.149   0.621   0.786
82229SOL     OW48519   4.720  10.188  11.266
82229SOL    HW148520   4.737  10.188  11.172
82229SOL    HW248521   4.770  10.113  11.299
82230SOL     OW48522   1.264   2.870   3.346
82230SOL    HW148523   1.220   2.883   3.262
82230SOL    HW248524   1.193   2.874   3.410
82231SOL     OW48525  14.588  11.862   2.300
82231SOL    HW148526  14.621  11.846   2.389
82231SOL    HW248527  14.591  11.777   2.257
82232SOL     OW48528  11.771   9.026   4.743
82232SOL    HW148529  11.777   9.067   4.830
82232SOL    HW248530  11.700   9.072   4.700
82233SOL     OW48531   4.502   0.065  13.491
82233SOL    HW148532   4.498   0.156  13.520
82233SOL    HW248533   4.485   0.013  13.569
82234SOL     OW48534  12.374   4.592  11.143
82234SOL    HW148535  12.395   4.499  11.140
82234SOL    HW248536  12.457   4.635  11.161
82235SOL     OW48537   3.379   8.861   9.665
82235SOL    HW148538   3.471   8.875   9.684
82235SOL    HW248539   3.374   8.773   9.628
82236SOL     OW48540   6.566   4.808   6.693
82236SOL    HW148541   6.653   4.825   6.658
82236SOL    HW248542   6.551   4.880   6.756
82237SOL     OW48543   4.126   3.776  14.134
82237SOL    HW148544   4.091   3.707  14.190
82237SOL    HW248545   4.181   3.731  14.071
82238SOL     OW48546  13.239   7.583  10.995
82238SOL    HW148547  13.306   7.648  11.015
82238SOL    HW248548  13.249   7.567  10.901
82239SOL     OW48549   1.697   2.625   2.300
82239SOL    HW148550   1.612   2.584   2.314
82239SOL    HW248551   1.678   2.706   2.254
82240SOL     OW48552   4.859   5.757   3.709
82240SOL    HW148553   4.937   5.774   3.656
82240SOL    HW248554   4.815   5.685   3.663
82241SOL     OW48555   7.987   1.012  13.432
82241SOL    HW148556   8.047   0.963  13.488
82241SOL    HW248557   7.908   0.958  13.429
82242SOL     OW48558   6.091   2.010   2.887
82242SOL    HW148559   6.085   2.103   2.867
82242SOL    HW248560   6.001   1.978   2.880
82243SOL     OW48561   2.127   9.718  14.646
82243SOL    HW148562   2.084   9.780  14.705
82243SOL    HW248563   2.095   9.742  14.559
82244SOL     OW48564  13.724   2.223   0.110
82244SOL    HW148565  13.708   2.307   0.066
82244SOL    HW248566  13.736   2.245   0.202
82245SOL     OW48567   0.638  12.276   1.429
82245SOL    HW148568   0.686  12.317   1.501
82245SOL    HW248569   0.642  12.183   1.447
82246SOL     OW48570   8.521   6.000  10.837
82246SOL    HW148571   8.592   5.941  10.809
82246SOL    HW248572   8.525   5.999  10.932
82247SOL     OW48573  10.285  13.946  14.728
82247SOL    HW148574  10.231  14.012  14.770
82247SOL    HW248575  10.309  13.985  14.644
82248SOL     OW48576   7.871   4.863   8.697
82248SOL    HW148577   7.898   4.924   8.628
82248SOL    HW248578   7.780   4.887   8.716
82249SOL     OW48579   7.828  13.196   0.670
82249SOL    HW148580   7.837  13.287   0.639
82249SOL    HW248581   7.743  13.194   0.714
82250SOL     OW48582   6.988   7.659   5.835
82250SOL    HW148583   6.961   7.750   5.849
82250SOL    HW248584   6.909   7.615   5.802
82251SOL     OW48585   9.563   2.589   1.330
82251SOL    HW148586   9.639   2.581   1.272
82251SOL    HW248587   9.577   2.671   1.377
82252SOL     OW48588   3.235   6.975   3.268
82252SOL    HW148589   3.166   7.002   3.208
82252SOL    HW248590   3.201   6.896   3.310
82253SOL     OW48591   5.733  13.598   5.135
82253SOL    HW148592   5.769  13.537   5.071
82253SOL    HW248593   5.684  13.543   5.195
82254SOL     OW48594   2.868  12.273   0.997
82254SOL    HW148595   2.814  12.251   1.073
82254SOL    HW248596   2.889  12.189   0.957
82255SOL     OW48597  12.368   4.083  12.116
82255SOL    HW148598  12.452   4.104  12.074
82255SOL    HW248599  12.304   4.139  12.073
82256SOL     OW48600   3.535   0.069   2.492
82256SOL    HW148601   3.537   0.143   2.553
82256SOL    HW248602   3.445   0.066   2.461
82257SOL     OW48603  14.242  11.842   0.717
82257SOL    HW148604  14.193  11.785   0.775
82257SOL    HW248605  14.190  11.923   0.713
82258SOL     OW48606   5.492  14.682   5.474
82258SOL    HW148607   5.490  14.624   5.398
82258SOL    HW248608   5.577  14.664   5.515
82259SOL     OW48609   6.823   8.738   0.006
82259SOL    HW148610   6.876   8.711   0.081
82259SOL    HW248611   6.865   8.698  14.810
82260SOL     OW48612  13.143   3.781  13.622
82260SOL    HW148613  13.188   3.786  13.706
82260SOL    HW248614  13.147   3.688  13.598
82261SOL     OW48615   3.117  14.055   1.915
82261SOL    HW148616   3.094  14.146   1.897
82261SOL    HW248617   3.117  14.048   2.010
82262SOL     OW48618  13.582  13.830   6.362
82262SOL    HW148619  13.606  13.842   6.270
82262SOL    HW248620  13.571  13.736   6.372
82263SOL     OW48621   2.681  10.252  13.647
82263SOL    HW148622   2.585  10.258  13.656
82263SOL    HW248623   2.712  10.342  13.663
82264SOL     OW48624  11.118   1.632   6.598
82264SOL    HW148625  11.205   1.668   6.613
82264SOL    HW248626  11.061   1.682   6.657
82265SOL     OW48627  11.993   1.713   7.122
82265SOL    HW148628  11.992   1.695   7.216
82265SOL    HW248629  11.969   1.630   7.081
82266SOL     OW48630  13.783   6.382  13.999
82266SOL    HW148631  13.732   6.460  13.978
82266SOL    HW248632  13.761   6.362  14.090
82267SOL     OW48633  13.848  11.382   6.716
82267SOL    HW148634  13.778  11.317   6.727
82267SOL    HW248635  13.828  11.424   6.632
82268SOL     OW48636  12.573  12.231   8.719
82268SOL    HW148637  12.497  12.288   8.731
82268SOL    HW248638  12.577  12.180   8.800
82269SOL     OW48639   4.188   4.856   6.977
82269SOL    HW148640   4.095   4.878   6.966
82269SOL    HW248641   4.207   4.880   7.068
82270SOL     OW48642  14.839   0.383   0.071
82270SOL    HW148643  14.776   0.344   0.132
82270SOL    HW248644  14.814   0.475   0.066
82271SOL     OW48645  14.576   7.202   8.080
82271SOL    HW148646  14.561   7.224   8.172
82271SOL    HW248647  14.608   7.284   8.041
82272SOL     OW48648   5.165   2.402   2.721
82272SOL    HW148649   5.159   2.458   2.799
82272SOL    HW248650   5.207   2.457   2.655
82273SOL     OW48651   8.604  14.463  14.189
82273SOL    HW148652   8.579  14.535  14.131
82273SOL    HW248653   8.521  14.429  14.223
82274SOL     OW48654   0.517  14.150   4.377
82274SOL    HW148655   0.545  14.202   4.302
82274SOL    HW248656   0.473  14.212   4.435
82275SOL     OW48657  10.753   9.315   6.173
82275SOL    HW148658  10.784   9.314   6.263
82275SOL    HW248659  10.738   9.223   6.151
82276SOL     OW48660   1.256  13.304  13.492
82276SOL    HW148661   1.243  13.270  13.403
82276SOL    HW248662   1.309  13.237  13.535
82277SOL     OW48663   0.433  14.083   8.652
82277SOL    HW148664   0.366  14.015   8.643
82277SOL    HW248665   0.495  14.047   8.715
82278SOL     OW48666   1.231   4.357  11.423
82278SOL    HW148667   1.304   4.371  11.483
82278SOL    HW248668   1.160   4.323  11.478
82279SOL     OW48669   4.216  13.993  10.130
82279SOL    HW148670   4.175  13.964  10.211
82279SOL    HW248671   4.191  13.928  10.065
82280SOL     OW48672  14.277  12.150  14.035
82280SOL    HW148673  14.358  12.173  13.991
82280SOL    HW248674  14.218  12.122  13.965
82281SOL     OW48675  12.155   9.483   5.402
82281SOL    HW148676  12.066   9.449   5.388
82281SOL    HW248677  12.211   9.429   5.346
82282SOL     OW48678   1.087   6.301   9.172
82282SOL    HW148679   1.069   6.381   9.221
82282SOL    HW248680   1.160   6.323   9.115
82283SOL     OW48681  14.771   9.276   1.379
82283SOL    HW148682  14.837   9.283   1.448
82283SOL    HW248683  14.778   9.186   1.348
82284SOL     OW48684  12.278   9.527   6.588
82284SOL    HW148685  12.363   9.490   6.563
82284SOL    HW248686  12.239   9.461   6.645
82285SOL     OW48687   2.421  13.810   9.794
82285SOL    HW148688   2.411  13.842   9.704
82285SOL    HW248689   2.515  13.813   9.810
82286SOL     OW48690   0.278  11.726  14.430
82286SOL    HW148691   0.326  11.808  14.412
82286SOL    HW248692   0.297  11.671  14.354
82287SOL     OW48693   8.719   5.909  11.556
82287SOL    HW148694   8.751   5.851  11.488
82287SOL    HW248695   8.680   5.983  11.509
82288SOL     OW48696   0.083  11.889   4.916
82288SOL    HW148697   0.071  11.827   4.844
82288SOL    HW248698   0.113  11.969   4.874
82289SOL     OW48699   1.411   2.026   6.346
82289SOL    HW148700   1.388   2.115   6.372
82289SOL    HW248701   1.488   2.005   6.399
82290SOL     OW48702   5.776   9.137   6.401
82290SOL    HW148703   5.786   9.042   6.402
82290SOL    HW248704   5.717   9.155   6.474
82291SOL     OW48705   9.412  10.899   6.294
82291SOL    HW148706   9.403  10.804   6.306
82291SOL    HW248707   9.378  10.915   6.205
82292SOL     OW48708   3.688   4.145   9.296
82292SOL    HW148709   3.717   4.081   9.361
82292SOL    HW248710   3.767   4.166   9.247
82293SOL     OW48711   9.123  11.422   4.371
82293SOL    HW148712   9.115  11.327   4.383
82293SOL    HW248713   9.094  11.458   4.455
82294SOL     OW48714   6.788   8.981   4.524
82294SOL    HW148715   6.757   9.066   4.552
82294SOL    HW248716   6.881   8.995   4.502
82295SOL     OW48717  11.800   9.469   3.357
82295SOL    HW148718  11.755   9.517   3.427
82295SOL    HW248719  11.753   9.386   3.351
82296SOL     OW48720  14.186   4.304  11.535
82296SOL    HW148721  14.149   4.349  11.459
82296SOL    HW248722  14.259   4.253  11.499
82297SOL     OW48723   3.585   9.054   0.514
82297SOL    HW148724   3.653   8.997   0.478
82297SOL    HW248725   3.527   8.994   0.562
82298SOL     OW48726   6.418   4.979   1.814
82298SOL    HW148727   6.513   4.967   1.810
82298SOL    HW248728   6.405   5.074   1.814
82299SOL     OW48729   5.716  12.858   7.170
82299SOL    HW148730   5.635  12.908   7.173
82299SOL    HW248731   5.781  12.920   7.135
82300SOL     OW48732  10.659   6.725   6.907
82300SOL    HW148733  10.736   6.671   6.928
82300SOL    HW248734  10.645   6.778   6.985
82301SOL     OW48735  12.517   7.286   7.747
82301SOL    HW148736  12.426   7.260   7.733
82301SOL    HW248737  12.523   7.301   7.842
82302SOL     OW48738   2.488  12.121  10.532
82302SOL    HW148739   2.453  12.123  10.443
82302SOL    HW248740   2.427  12.175  10.583
82303SOL     OW48741   8.495  10.031   6.555
82303SOL    HW148742   8.524   9.944   6.582
82303SOL    HW248743   8.404  10.037   6.584
82304SOL     OW48744  10.925   1.490  10.047
82304SOL    HW148745  10.835   1.516  10.025
82304SOL    HW248746  10.915   1.409  10.097
82305SOL     OW48747  13.337   3.770   1.306
82305SOL    HW148748  13.397   3.764   1.231
82305SOL    HW248749  13.376   3.713   1.373
82306SOL     OW48750   7.343  13.240   1.048
82306SOL    HW148751   7.361  13.279   0.962
82306SOL    HW248752   7.425  13.251   1.096
82307SOL     OW48753   2.836   3.627   8.523
82307SOL    HW148754   2.875   3.554   8.476
82307SOL    HW248755   2.770   3.586   8.580
82308SOL     OW48756   2.944  12.319  14.668
82308SOL    HW148757   2.961  12.404  14.626
82308SOL    HW248758   2.871  12.336  14.728
82309SOL     OW48759  10.831  11.957   6.535
82309SOL    HW148760  10.756  11.992   6.584
82309SOL    HW248761  10.901  12.021   6.549
82310SOL     OW48762   0.466   1.693  10.871
82310SOL    HW148763   0.481   1.787  10.863
82310SOL    HW248764   0.389   1.685  10.927
82311SOL     OW48765   0.976   7.339   8.797
82311SOL    HW148766   0.903   7.289   8.761
82311SOL    HW248767   0.985   7.415   8.740
82312SOL     OW48768   9.710  13.004  10.536
82312SOL    HW148769   9.681  12.913  10.544
82312SOL    HW248770   9.678  13.046  10.616
82313SOL     OW48771  14.197  12.031   2.404
82313SOL    HW148772  14.217  12.095   2.473
82313SOL    HW248773  14.255  11.957   2.423
82314SOL     OW48774   6.469   7.730   7.992
82314SOL    HW148775   6.408   7.799   7.968
82314SOL    HW248776   6.548   7.776   8.019
82315SOL     OW48777   9.825  13.852   8.426
82315SOL    HW148778   9.919  13.834   8.434
82315SOL    HW248779   9.789  13.773   8.386
82316SOL     OW48780   4.978  11.311   2.928
82316SOL    HW148781   5.039  11.261   2.873
82316SOL    HW248782   4.947  11.249   2.993
82317SOL     OW48783   5.830  11.069   6.338
82317SOL    HW148784   5.854  11.148   6.290
82317SOL    HW248785   5.799  11.101   6.423
82318SOL     OW48786  13.468   9.079   2.137
82318SOL    HW148787  13.563   9.065   2.129
82318SOL    HW248788  13.441   9.021   2.208
82319SOL     OW48789   2.013   3.670  12.389
82319SOL    HW148790   2.088   3.698  12.336
82319SOL    HW248791   1.990   3.584  12.355
82320SOL     OW48792   6.677   7.002   2.458
82320SOL    HW148793   6.610   6.957   2.510
82320SOL    HW248794   6.721   7.059   2.521
82321SOL     OW48795   1.177   1.399  11.213
82321SOL    HW148796   1.171   1.322  11.270
82321SOL    HW248797   1.088   1.435  11.213
82322SOL     OW48798   8.408   8.643  11.815
82322SOL    HW148799   8.476   8.631  11.881
82322SOL    HW248800   8.331   8.671  11.865
82323SOL     OW48801   0.834   4.980   9.238
82323SOL    HW148802   0.875   5.006   9.320
82323SOL    HW248803   0.754   5.033   9.234
82324SOL     OW48804  13.352   7.118  14.242
82324SOL    HW148805  13.344   7.054  14.171
82324SOL    HW248806  13.291   7.188  14.218
82325SOL     OW48807  13.249  11.100  10.163
82325SOL    HW148808  13.303  11.150  10.102
82325SOL    HW248809  13.255  11.009  10.132
82326SOL     OW48810   3.532   3.388   5.913
82326SOL    HW148811   3.537   3.350   6.001
82326SOL    HW248812   3.623   3.390   5.883
82327SOL     OW48813   7.154  11.932  13.839
82327SOL    HW148814   7.070  11.954  13.800
82327SOL    HW248815   7.153  11.836  13.846
82328SOL     OW48816   0.412  11.267   9.624
82328SOL    HW148817   0.341  11.299   9.679
82328SOL    HW248818   0.451  11.195   9.673
82329SOL     OW48819   8.108   1.725   8.168
82329SOL    HW148820   8.052   1.791   8.127
82329SOL    HW248821   8.062   1.701   8.249
82330SOL     OW48822   2.743  14.530   3.320
82330SOL    HW148823   2.680  14.600   3.304
82330SOL    HW248824   2.692  14.460   3.360
82331SOL     OW48825  13.875   9.707   0.683
82331SOL    HW148826  13.965   9.691   0.711
82331SOL    HW248827  13.866   9.802   0.687
82332SOL     OW48828   5.930   6.978  11.127
82332SOL    HW148829   5.853   7.002  11.179
82332SOL    HW248830   5.981   7.059  11.121
82333SOL     OW48831   6.894  11.320   0.028
82333SOL    HW148832   6.850  11.236   0.042
82333SOL    HW248833   6.889  11.364   0.113
82334SOL     OW48834   9.812   2.502   7.209
82334SOL    HW148835   9.799   2.436   7.140
82334SOL    HW248836   9.795   2.456   7.290
82335SOL     OW48837   3.118  13.986   0.339
82335SOL    HW148838   3.192  13.928   0.319
82335SOL    HW248839   3.044  13.926   0.354
82336SOL     OW48840  10.853   4.436   2.067
82336SOL    HW148841  10.854   4.400   1.978
82336SOL    HW248842  10.873   4.529   2.056
82337SOL     OW48843   7.325  13.560   3.092
82337SOL    HW148844   7.316  13.653   3.070
82337SOL    HW248845   7.307  13.514   3.010
82338SOL     OW48846   7.420   1.729   9.629
82338SOL    HW148847   7.475   1.668   9.579
82338SOL    HW248848   7.479   1.766   9.694
82339SOL     OW48849   9.248  14.875   2.306
82339SOL    HW148850   9.163  14.831   2.299
82339SOL    HW248851   9.304  14.827   2.246
82340SOL     OW48852   5.233   1.872  11.415
82340SOL    HW148853   5.201   1.921  11.490
82340SOL    HW248854   5.314   1.832  11.446
82341SOL     OW48855   3.317   9.629   4.780
82341SOL    HW148856   3.363   9.713   4.782
82341SOL    HW248857   3.260   9.631   4.856
82342SOL     OW48858   3.665   8.335   0.839
82342SOL    HW148859   3.717   8.415   0.829
82342SOL    HW248860   3.576   8.362   0.816
82343SOL     OW48861   4.352   3.983  13.341
82343SOL    HW148862   4.265   3.992  13.303
82343SOL    HW248863   4.337   3.982  13.435
82344SOL     OW48864   2.065  11.639   1.897
82344SOL    HW148865   2.074  11.732   1.917
82344SOL    HW248866   2.072  11.595   1.982
82345SOL     OW48867   1.089   8.296   4.446
82345SOL    HW148868   1.093   8.364   4.514
82345SOL    HW248869   1.078   8.345   4.365
82346SOL     OW48870   6.243  11.815   4.902
82346SOL    HW148871   6.225  11.724   4.928
82346SOL    HW248872   6.159  11.849   4.872
82347SOL     OW48873   1.498   9.935  10.630
82347SOL    HW148874   1.498  10.030  10.614
82347SOL    HW248875   1.581   9.904  10.592
82348SOL     OW48876   9.899  13.815   3.216
82348SOL    HW148877   9.955  13.740   3.195
82348SOL    HW248878   9.947  13.864   3.282
82349SOL     OW48879   6.668   0.422   0.556
82349SOL    HW148880   6.687   0.347   0.614
82349SOL    HW248881   6.579   0.406   0.525
82350SOL     OW48882   8.967   0.597   3.382
82350SOL    HW148883   8.877   0.614   3.413
82350SOL    HW248884   8.983   0.665   3.317
82351SOL     OW48885   3.407   6.050   8.920
82351SOL    HW148886   3.441   6.093   8.842
82351SOL    HW248887   3.376   6.121   8.976
82352SOL     OW48888  10.877   6.394   2.011
82352SOL    HW148889  10.785   6.388   2.037
82352SOL    HW248890  10.903   6.303   1.994
82353SOL     OW48891   9.579   2.100  11.436
82353SOL    HW148892   9.518   2.052  11.380
82353SOL    HW248893   9.524   2.161  11.486
82354SOL     OW48894   8.819   6.951   4.715
82354SOL    HW148895   8.764   6.874   4.700
82354SOL    HW248896   8.899   6.917   4.754
82355SOL     OW48897   6.883   3.507  10.825
82355SOL    HW148898   6.932   3.572  10.774
82355SOL    HW248899   6.944   3.434  10.836
82356SOL     OW48900   5.407   9.121  10.920
82356SOL    HW148901   5.436   9.166  10.841
82356SOL    HW248902   5.483   9.125  10.979
82357SOL     OW48903   7.212  11.894  13.147
82357SOL    HW148904   7.219  11.806  13.111
82357SOL    HW248905   7.297  11.934  13.127
82358SOL     OW48906   4.402   4.352   9.878
82358SOL    HW148907   4.353   4.354   9.959
82358SOL    HW248908   4.493   4.365   9.905
82359SOL     OW48909  10.868   9.791   6.460
82359SOL    HW148910  10.925   9.728   6.416
82359SOL    HW248911  10.873   9.767   6.553
82360SOL     OW48912   8.450   3.188   6.554
82360SOL    HW148913   8.532   3.145   6.530
82360SOL    HW248914   8.416   3.222   6.471
82361SOL     OW48915   1.071   5.051   7.606
82361SOL    HW148916   1.027   4.967   7.623
82361SOL    HW248917   1.156   5.026   7.570
82362SOL     OW48918   5.815   0.007   8.382
82362SOL    HW148919   5.887   0.053   8.424
82362SOL    HW248920   5.810   0.045   8.294
82363SOL     OW48921  10.159   2.596  14.309
82363SOL    HW148922  10.074   2.639  14.320
82363SOL    HW248923  10.142   2.503  14.325
82364SOL     OW48924   9.281   7.500   7.613
82364SOL    HW148925   9.227   7.501   7.691
82364SOL    HW248926   9.323   7.414   7.614
82365SOL     OW48927   8.430   8.959   9.584
82365SOL    HW148928   8.385   9.038   9.612
82365SOL    HW248929   8.381   8.929   9.508
82366SOL     OW48930   8.288   1.044  10.759
82366SOL    HW148931   8.347   1.035  10.684
82366SOL    HW248932   8.241   1.125  10.744
82367SOL     OW48933   7.519   3.590   2.583
82367SOL    HW148934   7.565   3.510   2.609
82367SOL    HW248935   7.520   3.644   2.662
82368SOL     OW48936   9.259   7.283  10.384
82368SOL    HW148937   9.228   7.354  10.440
82368SOL    HW248938   9.349   7.307  10.361
82369SOL     OW48939   1.987  11.596   3.017
82369SOL    HW148940   2.043  11.615   2.943
82369SOL    HW248941   2.034  11.528   3.066
82370SOL     OW48942   1.157   8.727   8.691
82370SOL    HW148943   1.194   8.650   8.648
82370SOL    HW248944   1.063   8.718   8.679
82371SOL     OW48945   3.522   2.772  12.358
82371SOL    HW148946   3.488   2.745  12.273
82371SOL    HW248947   3.446   2.807  12.404
82372SOL     OW48948   7.826   7.904  10.589
82372SOL    HW148949   7.791   7.864  10.510
82372SOL    HW248950   7.912   7.938  10.562
82373SOL     OW48951   7.188   7.673   0.718
82373SOL    HW148952   7.138   7.669   0.799
82373SOL    HW248953   7.211   7.765   0.709
82374SOL     OW48954  11.750   3.661   7.805
82374SOL    HW148955  11.697   3.729   7.847
82374SOL    HW248956  11.834   3.704   7.788
82375SOL     OW48957  14.193  14.205  11.818
82375SOL    HW148958  14.288  14.194  11.828
82375SOL    HW248959  14.164  14.241  11.902
82376SOL     OW48960   5.427   6.035  10.336
82376SOL    HW148961   5.410   5.963  10.397
82376SOL    HW248962   5.515   6.065  10.358
82377SOL     OW48963  12.412  11.767   1.035
82377SOL    HW148964  12.327  11.740   1.000
82377SOL    HW248965  12.429  11.852   0.994
82378SOL     OW48966   4.686   4.985   0.450
82378SOL    HW148967   4.683   4.891   0.463
82378SOL    HW248968   4.778   5.004   0.430
82379SOL     OW48969  14.441   6.628   1.892
82379SOL    HW148970  14.479   6.652   1.977
82379SOL    HW248971  14.369   6.569   1.913
82380SOL     OW48972   9.322   7.257   3.677
82380SOL    HW148973   9.262   7.322   3.640
82380SOL    HW248974   9.399   7.307   3.703
82381SOL     OW48975   7.680   4.146   5.120
82381SOL    HW148976   7.589   4.163   5.146
82381SOL    HW248977   7.725   4.229   5.138
82382SOL     OW48978  14.000   1.391   9.904
82382SOL    HW148979  13.983   1.485   9.915
82382SOL    HW248980  13.915   1.353   9.883
82383SOL     OW48981  14.131  11.108   9.555
82383SOL    HW148982  14.122  11.168   9.481
82383SOL    HW248983  14.077  11.145   9.624
82384SOL     OW48984  12.484   1.169   2.464
82384SOL    HW148985  12.528   1.092   2.428
82384SOL    HW248986  12.406   1.179   2.409
82385SOL     OW48987   2.931   9.939  12.176
82385SOL    HW148988   2.995   9.924  12.245
82385SOL    HW248989   2.850   9.959  12.224
82386SOL     OW48990   6.726   2.171   0.541
82386SOL    HW148991   6.807   2.193   0.587
82386SOL    HW248992   6.656   2.209   0.596
82387SOL     OW48993   6.112   0.848   1.858
82387SOL    HW148994   6.049   0.901   1.907
82387SOL    HW248995   6.181   0.910   1.834
82388SOL     OW48996   9.423  13.885   9.084
82388SOL    HW148997   9.491  13.897   9.018
82388SOL    HW248998   9.448  13.943   9.156
82389SOL     OW48999   4.624   3.505   7.666
82389SOL    HW149000   4.558   3.570   7.640
82389SOL    HW249001   4.625   3.508   7.761
82390SOL     OW49002  14.390   9.758   9.337
82390SOL    HW149003  14.357   9.669   9.323
82390SOL    HW249004  14.349   9.785   9.419
82391SOL     OW49005   9.912  11.663  10.703
82391SOL    HW149006   9.933  11.640  10.794
82391SOL    HW249007   9.897  11.758  10.706
82392SOL     OW49008   3.743  14.382  12.756
82392SOL    HW149009   3.680  14.444  12.719
82392SOL    HW249010   3.795  14.352  12.682
82393SOL     OW49011  12.196   5.281   4.446
82393SOL    HW149012  12.119   5.337   4.453
82393SOL    HW249013  12.227   5.293   4.356
82394SOL     OW49014  10.390   5.972   7.645
82394SOL    HW149015  10.481   5.974   7.615
82394SOL    HW249016  10.370   6.062   7.667
82395SOL     OW49017   4.689  12.133  10.060
82395SOL    HW149018   4.650  12.132  10.147
82395SOL    HW249019   4.747  12.209  10.060
82396SOL     OW49020   8.944   8.513   6.840
82396SOL    HW149021   8.901   8.470   6.914
82396SOL    HW249022   8.942   8.448   6.770
82397SOL     OW49023  13.539   1.760   9.074
82397SOL    HW149024  13.558   1.838   9.023
82397SOL    HW249025  13.612   1.752   9.135
82398SOL     OW49026   8.850   6.194   3.008
82398SOL    HW149027   8.852   6.214   2.915
82398SOL    HW249028   8.832   6.100   3.011
82399SOL     OW49029   3.207   1.050   6.851
82399SOL    HW149030   3.127   1.030   6.803
82399SOL    HW249031   3.255   1.111   6.795
82400SOL     OW49032   2.867  10.092   7.335
82400SOL    HW149033   2.876  10.172   7.283
82400SOL    HW249034   2.950  10.047   7.324
82401SOL     OW49035  13.812   7.892  13.662
82401SOL    HW149036  13.752   7.825  13.693
82401SOL    HW249037  13.841   7.860  13.576
82402SOL     OW49038   2.568   0.056   6.384
82402SOL    HW149039   2.538   0.018   6.467
82402SOL    HW249040   2.619  14.865   6.343
82403SOL     OW49041   6.863   0.193   9.286
82403SOL    HW149042   6.845   0.126   9.221
82403SOL    HW249043   6.885   0.271   9.235
82404SOL     OW49044   3.481   3.723  10.597
82404SOL    HW149045   3.453   3.786  10.664
82404SOL    HW249046   3.547   3.670  10.642
82405SOL     OW49047   9.562  10.589   5.075
82405SOL    HW149048   9.626  10.539   5.126
82405SOL    HW249049   9.539  10.663   5.132
82406SOL     OW49050   4.017   4.757  11.480
82406SOL    HW149051   3.928   4.760  11.514
82406SOL    HW249052   4.070   4.798  11.549
82407SOL     OW49053   9.852   0.601  13.772
82407SOL    HW149054   9.926   0.566  13.822
82407SOL    HW249055   9.850   0.694  13.794
82408SOL     OW49056   4.314   4.712   8.727
82408SOL    HW149057   4.238   4.705   8.668
82408SOL    HW249058   4.361   4.629   8.715
82409SOL     OW49059   3.056  13.281   8.666
82409SOL    HW149060   3.070  13.353   8.606
82409SOL    HW249061   3.135  13.280   8.721
82410SOL     OW49062   8.461   9.477  14.320
82410SOL    HW149063   8.475   9.545  14.386
82410SOL    HW249064   8.372   9.445  14.338
82411SOL     OW49065   1.573   1.306   9.566
82411SOL    HW149066   1.620   1.255   9.500
82411SOL    HW249067   1.495   1.254   9.585
82412SOL     OW49068  14.198   6.057  10.814
82412SOL    HW149069  14.142   5.982  10.793
82412SOL    HW249070  14.174   6.080  10.904
82413SOL     OW49071   8.471   4.243   5.783
82413SOL    HW149072   8.444   4.241   5.874
82413SOL    HW249073   8.394   4.215   5.734
82414SOL     OW49074   1.119   8.486  14.061
82414SOL    HW149075   1.027   8.493  14.036
82414SOL    HW249076   1.150   8.406  14.018
82415SOL     OW49077   4.037   5.909  14.200
82415SOL    HW149078   4.013   5.817  14.184
82415SOL    HW249079   4.125   5.918  14.163
82416SOL     OW49080   2.629   3.448   3.512
82416SOL    HW149081   2.601   3.494   3.591
82416SOL    HW249082   2.548   3.420   3.471
82417SOL     OW49083   7.044  11.493  13.221
82417SOL    HW149084   7.122  11.511  13.275
82417SOL    HW249085   7.079  11.478  13.133
82418SOL     OW49086  13.954   6.720  14.247
82418SOL    HW149087  13.952   6.712  14.342
82418SOL    HW249088  14.029   6.668  14.219
82419SOL     OW49089  11.802   6.399  11.728
82419SOL    HW149090  11.864   6.388  11.800
82419SOL    HW249091  11.855   6.428  11.654
82420SOL     OW49092  12.327   2.954   9.571
82420SOL    HW149093  12.376   2.923   9.495
82420SOL    HW249094  12.282   3.033   9.541
82421SOL     OW49095   7.722   3.271   1.562
82421SOL    HW149096   7.638   3.266   1.608
82421SOL    HW249097   7.735   3.365   1.548
82422SOL     OW49098   6.861   9.313   9.005
82422SOL    HW149099   6.885   9.243   8.944
82422SOL    HW249100   6.766   9.307   9.013
82423SOL     OW49101   6.702  12.747   1.971
82423SOL    HW149102   6.635  12.683   1.994
82423SOL    HW249103   6.666  12.831   1.998
82424SOL     OW49104   0.305   2.990  11.146
82424SOL    HW149105   0.356   2.911  11.130
82424SOL    HW249106   0.291   3.027  11.058
82425SOL     OW49107   1.702   7.448   5.630
82425SOL    HW149108   1.661   7.412   5.709
82425SOL    HW249109   1.652   7.528   5.612
82426SOL     OW49110   7.658   7.255  11.055
82426SOL    HW149111   7.672   7.170  11.015
82426SOL    HW249112   7.681   7.243  11.147
82427SOL     OW49113  13.786  13.754  14.392
82427SOL    HW149114  13.811  13.811  14.320
82427SOL    HW249115  13.824  13.796  14.470
82428SOL     OW49116   0.349   5.197   7.228
82428SOL    HW149117   0.348   5.178   7.322
82428SOL    HW249118   0.429   5.157   7.196
82429SOL     OW49119  12.172   2.203  13.113
82429SOL    HW149120  12.148   2.112  13.096
82429SOL    HW249121  12.091   2.245  13.139
82430SOL     OW49122   0.059  11.017  11.142
82430SOL    HW149123   0.118  11.007  11.067
82430SOL    HW249124   0.046  10.929  11.175
82431SOL     OW49125  11.099  11.029  11.900
82431SOL    HW149126  11.172  10.976  11.867
82431SOL    HW249127  11.106  11.022  11.996
82432SOL     OW49128   3.523   9.298   0.515
82432SOL    HW149129   3.538   9.204   0.511
82432SOL    HW249130   3.611   9.335   0.521
82433SOL     OW49131   5.114   5.212  14.685
82433SOL    HW149132   5.139   5.128  14.723
82433SOL    HW249133   5.098   5.193  14.592
82434SOL     OW49134  14.791  14.268   6.618
82434SOL    HW149135  14.872  14.227   6.648
82434SOL    HW249136  14.753  14.206   6.556
82435SOL     OW49137  13.945   5.157   8.775
82435SOL    HW149138  13.953   5.244   8.735
82435SOL    HW249139  13.865   5.121   8.738
82436SOL     OW49140   3.635  11.823   7.033
82436SOL    HW149141   3.646  11.897   7.092
82436SOL    HW249142   3.695  11.756   7.066
82437SOL     OW49143   4.679   9.628   9.384
82437SOL    HW149144   4.614   9.584   9.439
82437SOL    HW249145   4.712   9.558   9.326
82438SOL     OW49146   8.236   6.004   5.466
82438SOL    HW149147   8.292   6.078   5.444
82438SOL    HW249148   8.268   5.973   5.551
82439SOL     OW49149   9.157   9.712   6.875
82439SOL    HW149150   9.225   9.647   6.857
82439SOL    HW249151   9.079   9.679   6.832
82440SOL     OW49152  10.006   7.793   0.813
82440SOL    HW149153   9.957   7.755   0.886
82440SOL    HW249154  10.094   7.755   0.821
82441SOL     OW49155   4.583   5.098   5.953
82441SOL    HW149156   4.514   5.157   5.982
82441SOL    HW249157   4.559   5.077   5.862
82442SOL     OW49158   2.695   3.782  12.084
82442SOL    HW149159   2.668   3.692  12.101
82442SOL    HW249160   2.682   3.828  12.167
82443SOL     OW49161   0.159   3.357  14.177
82443SOL    HW149162   0.108   3.438  14.179
82443SOL    HW249163   0.238   3.379  14.127
82444SOL     OW49164   1.634   4.829  13.307
82444SOL    HW149165   1.613   4.737  13.294
82444SOL    HW249166   1.561   4.864  13.359
82445SOL     OW49167   3.729   2.202  11.606
82445SOL    HW149168   3.641   2.209  11.569
82445SOL    HW249169   3.758   2.114  11.584
82446SOL     OW49170   9.225   6.606   3.165
82446SOL    HW149171   9.199   6.625   3.255
82446SOL    HW249172   9.313   6.568   3.174
82447SOL     OW49173   6.852   3.228   7.023
82447SOL    HW149174   6.793   3.188   7.088
82447SOL    HW249175   6.805   3.304   6.991
82448SOL     OW49176  12.729   6.821   2.687
82448SOL    HW149177  12.666   6.758   2.650
82448SOL    HW249178  12.677   6.899   2.707
82449SOL     OW49179   9.319   1.332   9.357
82449SOL    HW149180   9.266   1.335   9.437
82449SOL    HW249181   9.304   1.417   9.315
82450SOL     OW49182  10.875   5.080   5.958
82450SOL    HW149183  10.784   5.078   5.987
82450SOL    HW249184  10.882   5.159   5.905
82451SOL     OW49185  13.463   1.232   1.944
82451SOL    HW149186  13.368   1.229   1.928
82451SOL    HW249187  13.479   1.322   1.972
82452SOL     OW49188   9.019   5.969  13.482
82452SOL    HW149189   9.068   5.985  13.563
82452SOL    HW249190   9.002   5.874  13.484
82453SOL     OW49191  14.592  12.899   4.798
82453SOL    HW149192  14.529  12.862   4.737
82453SOL    HW249193  14.673  12.905   4.747
82454SOL     OW49194   5.997   9.583  13.266
82454SOL    HW149195   5.927   9.522  13.244
82454SOL    HW249196   5.951   9.659  13.304
82455SOL     OW49197  14.551   4.097   9.037
82455SOL    HW149198  14.503   4.153   8.976
82455SOL    HW249199  14.595   4.033   8.982
82456SOL     OW49200   0.943   8.314   5.731
82456SOL    HW149201   0.864   8.358   5.762
82456SOL    HW249202   0.987   8.379   5.677
82457SOL     OW49203   0.533  14.585   3.792
82457SOL    HW149204   0.562  14.600   3.882
82457SOL    HW249205   0.437  14.589   3.797
82458SOL     OW49206  10.134   2.494  12.734
82458SOL    HW149207  10.215   2.443  12.732
82458SOL    HW249208  10.105   2.498  12.643
82459SOL     OW49209  12.889   0.851  13.267
82459SOL    HW149210  12.959   0.917  13.265
82459SOL    HW249211  12.815   0.896  13.307
82460SOL     OW49212  12.097   4.359  13.357
82460SOL    HW149213  12.128   4.280  13.401
82460SOL    HW249214  12.002   4.355  13.365
82461SOL     OW49215  13.499   4.457   1.140
82461SOL    HW149216  13.430   4.412   1.093
82461SOL    HW249217  13.490   4.427   1.231
82462SOL     OW49218   5.295   2.656   5.734
82462SOL    HW149219   5.356   2.690   5.799
82462SOL    HW249220   5.287   2.563   5.755
82463SOL     OW49221   9.975  14.262   6.463
82463SOL    HW149222  10.045  14.244   6.400
82463SOL    HW249223   9.908  14.196   6.443
82464SOL     OW49224   1.059   6.309   6.639
82464SOL    HW149225   1.039   6.396   6.606
82464SOL    HW249226   1.139   6.283   6.593
82465SOL     OW49227  10.228   7.875   2.152
82465SOL    HW149228  10.239   7.868   2.246
82465SOL    HW249229  10.245   7.967   2.133
82466SOL     OW49230  12.297   9.471   7.077
82466SOL    HW149231  12.380   9.424   7.086
82466SOL    HW249232  12.237   9.425   7.136
82467SOL     OW49233   3.257   6.291  13.121
82467SOL    HW149234   3.314   6.261  13.191
82467SOL    HW249235   3.287   6.380  13.102
82468SOL     OW49236  11.637   2.982   4.583
82468SOL    HW149237  11.663   2.925   4.655
82468SOL    HW249238  11.567   2.934   4.538
82469SOL     OW49239  14.208   0.415  14.011
82469SOL    HW149240  14.153   0.386  13.938
82469SOL    HW249241  14.285   0.452  13.969
82470SOL     OW49242   1.622   9.117  14.052
82470SOL    HW149243   1.540   9.118  14.002
82470SOL    HW249244   1.686   9.078  13.992
82471SOL     OW49245   5.862  13.379   5.003
82471SOL    HW149246   5.915  13.425   4.937
82471SOL    HW249247   5.911  13.298   5.020
82472SOL     OW49248  11.938  11.907   7.159
82472SOL    HW149249  11.975  11.925   7.245
82472SOL    HW249250  11.967  11.981   7.105
82473SOL     OW49251   3.105   8.728  14.728
82473SOL    HW149252   3.049   8.801  14.755
82473SOL    HW249253   3.191   8.768  14.716
82474SOL     OW49254   7.858   2.104   8.549
82474SOL    HW149255   7.764   2.107   8.531
82474SOL    HW249256   7.885   2.017   8.521
82475SOL     OW49257   4.948  10.350  13.714
82475SOL    HW149258   4.916  10.326  13.801
82475SOL    HW249259   4.953  10.267  13.667
82476SOL     OW49260   0.223  14.359  11.136
82476SOL    HW149261   0.148  14.330  11.188
82476SOL    HW249262   0.221  14.304  11.058
82477SOL     OW49263  13.917   6.258   2.627
82477SOL    HW149264  13.822   6.261   2.634
82477SOL    HW249265  13.933   6.245   2.533
82478SOL     OW49266   7.681   4.565   5.051
82478SOL    HW149267   7.632   4.516   4.985
82478SOL    HW249268   7.742   4.501   5.087
82479SOL     OW49269   0.928   8.824  14.213
82479SOL    HW149270   0.855   8.769  14.183
82479SOL    HW249271   0.998   8.806  14.150
82480SOL     OW49272   3.753   5.256   1.159
82480SOL    HW149273   3.699   5.322   1.203
82480SOL    HW249274   3.842   5.292   1.162
82481SOL     OW49275   0.462  14.811   3.134
82481SOL    HW149276   0.510  14.806   3.216
82481SOL    HW249277   0.526  14.841   3.069
82482SOL     OW49278  10.955   1.509   9.255
82482SOL    HW149279  10.896   1.434   9.250
82482SOL    HW249280  11.042   1.471   9.266
82483SOL     OW49281   6.344  14.266   8.967
82483SOL    HW149282   6.407  14.253   9.038
82483SOL    HW249283   6.337  14.181   8.925
82484SOL     OW49284   0.601  13.717   7.701
82484SOL    HW149285   0.635  13.709   7.612
82484SOL    HW249286   0.525  13.659   7.703
82485SOL     OW49287   9.771   7.289  11.081
82485SOL    HW149288   9.711   7.216  11.097
82485SOL    HW249289   9.828   7.259  11.010
82486SOL     OW49290   7.710   3.873   9.999
82486SOL    HW149291   7.648   3.923  10.052
82486SOL    HW249292   7.729   3.795  10.051
82487SOL     OW49293   9.840   3.483  13.620
82487SOL    HW149294   9.834   3.427  13.543
82487SOL    HW249295   9.893   3.433  13.682
82488SOL     OW49296   8.445   4.013   7.706
82488SOL    HW149297   8.535   3.982   7.699
82488SOL    HW249298   8.444   4.069   7.783
82489SOL     OW49299  13.022   4.879   3.061
82489SOL    HW149300  13.085   4.917   3.000
82489SOL    HW249301  13.072   4.813   3.109
82490SOL     OW49302  10.498  10.670   1.797
82490SOL    HW149303  10.558  10.649   1.868
82490SOL    HW249304  10.487  10.765   1.802
82491SOL     OW49305   3.601   4.024  13.221
82491SOL    HW149306   3.567   4.014  13.310
82491SOL    HW249307   3.579   3.942  13.178
82492SOL     OW49308  12.732   1.557   8.783
82492SOL    HW149309  12.811   1.580   8.734
82492SOL    HW249310  12.757   1.477   8.830
82493SOL     OW49311  13.762  14.353   6.918
82493SOL    HW149312  13.697  14.374   6.986
82493SOL    HW249313  13.771  14.434   6.868
82494SOL     OW49314   0.101   2.350   4.281
82494SOL    HW149315   0.032   2.296   4.243
82494SOL    HW249316   0.065   2.377   4.366
82495SOL     OW49317   3.316   6.235   0.760
82495SOL    HW149318   3.273   6.306   0.808
82495SOL    HW249319   3.393   6.275   0.721
82496SOL     OW49320  14.195   0.925  11.316
82496SOL    HW149321  14.181   0.999  11.256
82496SOL    HW249322  14.221   0.853  11.259
82497SOL     OW49323   1.164   9.621   1.227
82497SOL    HW149324   1.187   9.546   1.283
82497SOL    HW249325   1.087   9.659   1.269
82498SOL     OW49326   2.774  10.254   4.377
82498SOL    HW149327   2.814  10.331   4.336
82498SOL    HW249328   2.713  10.221   4.311
82499SOL     OW49329   5.085  14.146  11.756
82499SOL    HW149330   5.108  14.193  11.837
82499SOL    HW249331   5.008  14.191  11.723
82500SOL     OW49332   9.048  10.350   4.433
82500SOL    HW149333   8.953  10.337   4.436
82500SOL    HW249334   9.082  10.297   4.505
82501SOL     OW49335   3.763   4.240   7.213
82501SOL    HW149336   3.730   4.323   7.246
82501SOL    HW249337   3.689   4.180   7.222
82502SOL     OW49338  10.447   1.170  12.152
82502SOL    HW149339  10.514   1.118  12.108
82502SOL    HW249340  10.475   1.261  12.140
82503SOL     OW49341  11.479  12.115   7.470
82503SOL    HW149342  11.510  12.027   7.491
82503SOL    HW249343  11.410  12.102   7.406
82504SOL     OW49344  11.557   6.462   7.789
82504SOL    HW149345  11.476   6.419   7.762
82504SOL    HW249346  11.529   6.537   7.842
82505SOL     OW49347  10.480   9.418   2.956
82505SOL    HW149348  10.454   9.454   2.871
82505SOL    HW249349  10.485   9.495   3.013
82506SOL     OW49350  14.049   3.025   1.810
82506SOL    HW149351  14.084   3.020   1.899
82506SOL    HW249352  14.102   2.964   1.760
82507SOL     OW49353   6.002   9.915  11.219
82507SOL    HW149354   5.964   9.827  11.212
82507SOL    HW249355   5.967   9.962  11.143
82508SOL     OW49356  11.978   2.434   0.521
82508SOL    HW149357  11.900   2.401   0.476
82508SOL    HW249358  12.051   2.386   0.481
82509SOL     OW49359  14.658  12.413  10.139
82509SOL    HW149360  14.650  12.507  10.122
82509SOL    HW249361  14.728  12.385  10.080
82510SOL     OW49362  10.389   2.112  10.494
82510SOL    HW149363  10.327   2.042  10.470
82510SOL    HW249364  10.382   2.118  10.589
82511SOL     OW49365   5.361   3.766  10.273
82511SOL    HW149366   5.381   3.853  10.306
82511SOL    HW249367   5.331   3.780  10.183
82512SOL     OW49368   3.945  14.668   9.395
82512SOL    HW149369   3.922  14.723   9.469
82512SOL    HW249370   4.011  14.608   9.430
82513SOL     OW49371   5.103   8.188   4.182
82513SOL    HW149372   5.110   8.220   4.092
82513SOL    HW249373   5.128   8.095   4.176
82514SOL     OW49374  12.303   1.596  10.982
82514SOL    HW149375  12.279   1.658  10.913
82514SOL    HW249376  12.305   1.649  11.062
82515SOL     OW49377   3.631   5.870  13.097
82515SOL    HW149378   3.563   5.802  13.089
82515SOL    HW249379   3.713   5.820  13.105
82516SOL     OW49380   5.700  11.358   2.061
82516SOL    HW149381   5.611  11.386   2.081
82516SOL    HW249382   5.721  11.293   2.129
82517SOL     OW49383   9.767   3.561  13.212
82517SOL    HW149384   9.815   3.644  13.203
82517SOL    HW249385   9.824   3.497  13.169
82518SOL     OW49386  12.462   8.354   7.774
82518SOL    HW149387  12.372   8.334   7.747
82518SOL    HW249388  12.484   8.285   7.836
82519SOL     OW49389   1.809  11.914   9.975
82519SOL    HW149390   1.828  11.880  10.063
82519SOL    HW249391   1.889  11.961   9.950
82520SOL     OW49392   4.321   7.640   0.525
82520SOL    HW149393   4.352   7.570   0.467
82520SOL    HW249394   4.265   7.695   0.470
82521SOL     OW49395   5.313  10.236   3.350
82521SOL    HW149396   5.229  10.190   3.353
82521SOL    HW249397   5.297  10.318   3.397
82522SOL     OW49398   9.181   4.671   7.520
82522SOL    HW149399   9.136   4.647   7.439
82522SOL    HW249400   9.193   4.765   7.514
82523SOL     OW49401   9.206  10.451   9.462
82523SOL    HW149402   9.201  10.357   9.479
82523SOL    HW249403   9.278  10.459   9.399
82524SOL     OW49404   7.044  10.816   1.118
82524SOL    HW149405   6.949  10.822   1.124
82524SOL    HW249406   7.075  10.907   1.128
82525SOL     OW49407  10.518  11.076   9.332
82525SOL    HW149408  10.506  11.075   9.427
82525SOL    HW249409  10.544  10.987   9.310
82526SOL     OW49410   3.291   3.608  12.243
82526SOL    HW149411   3.286   3.663  12.166
82526SOL    HW249412   3.362   3.546  12.225
82527SOL     OW49413  11.568   8.025   5.425
82527SOL    HW149414  11.651   8.046   5.468
82527SOL    HW249415  11.516   7.982   5.493
82528SOL     OW49416   2.630   0.818   8.792
82528SOL    HW149417   2.538   0.835   8.775
82528SOL    HW249418   2.637   0.723   8.797
82529SOL     OW49419  12.134   0.805   3.218
82529SOL    HW149420  12.058   0.859   3.237
82529SOL    HW249421  12.204   0.841   3.273
82530SOL     OW49422  13.903   7.119  10.907
82530SOL    HW149423  13.920   7.078  10.992
82530SOL    HW249424  13.971   7.186  10.898
82531SOL     OW49425   5.557   4.066   2.308
82531SOL    HW149426   5.602   3.995   2.354
82531SOL    HW249427   5.618   4.094   2.241
82532SOL     OW49428   5.523  10.046   4.852
82532SOL    HW149429   5.444  10.100   4.847
82532SOL    HW249430   5.538  10.036   4.946
82533SOL     OW49431  11.520   0.555   0.121
82533SOL    HW149432  11.431   0.525   0.141
82533SOL    HW249433  11.574   0.476   0.129
82534SOL     OW49434  12.580  14.559   9.014
82534SOL    HW149435  12.510  14.521   8.962
82534SOL    HW249436  12.653  14.497   9.006
82535SOL     OW49437   3.433   1.643  14.343
82535SOL    HW149438   3.493   1.590  14.394
82535SOL    HW249439   3.367   1.581  14.310
82536SOL     OW49440   8.980   4.759   2.924
82536SOL    HW149441   9.051   4.719   2.874
82536SOL    HW249442   8.900   4.728   2.881
82537SOL     OW49443   1.838  10.180  13.699
82537SOL    HW149444   1.774  10.123  13.657
82537SOL    HW249445   1.905  10.194  13.633
82538SOL     OW49446   1.053   7.276   2.848
82538SOL    HW149447   0.989   7.329   2.896
82538SOL    HW249448   1.104   7.232   2.916
82539SOL     OW49449  10.914  14.816   3.731
82539SOL    HW149450  10.982  14.749   3.734
82539SOL    HW249451  10.949   0.005   3.674
82540SOL     OW49452  11.866   0.647   3.804
82540SOL    HW149453  11.943   0.695   3.774
82540SOL    HW249454  11.901   0.563   3.835
82541SOL     OW49455   9.283  11.835   4.938
82541SOL    HW149456   9.261  11.787   5.018
82541SOL    HW249457   9.319  11.768   4.879
82542SOL     OW49458  11.588   8.459  14.864
82542SOL    HW149459  11.639   8.379  14.875
82542SOL    HW249460  11.627   8.503  14.788
82543SOL     OW49461   4.954  12.308   5.066
82543SOL    HW149462   5.049  12.296   5.065
82543SOL    HW249463   4.921  12.245   5.002
82544SOL     OW49464   4.264  13.840  12.506
82544SOL    HW149465   4.316  13.916  12.481
82544SOL    HW249466   4.327  13.768  12.511
82545SOL     OW49467   8.869   0.799   6.967
82545SOL    HW149468   8.815   0.811   7.045
82545SOL    HW249469   8.956   0.829   6.994
82546SOL     OW49470   6.679   9.090   1.769
82546SOL    HW149471   6.761   9.042   1.774
82546SOL    HW249472   6.698   9.175   1.810
82547SOL     OW49473   1.762   1.642  11.255
82547SOL    HW149474   1.710   1.573  11.213
82547SOL    HW249475   1.719   1.723  11.228
82548SOL     OW49476  11.386   4.457   1.341
82548SOL    HW149477  11.317   4.524   1.338
82548SOL    HW249478  11.467   4.508   1.348
82549SOL     OW49479   0.986   1.490   0.981
82549SOL    HW149480   1.044   1.445   0.920
82549SOL    HW249481   1.038   1.498   1.062
82550SOL     OW49482   5.705   4.652   7.532
82550SOL    HW149483   5.686   4.738   7.571
82550SOL    HW249484   5.752   4.672   7.451
82551SOL     OW49485  12.701   3.875  10.149
82551SOL    HW149486  12.741   3.921  10.223
82551SOL    HW249487  12.742   3.789  10.151
82552SOL     OW49488   5.999  13.994  14.537
82552SOL    HW149489   5.957  14.071  14.575
82552SOL    HW249490   5.967  13.921  14.591
82553SOL     OW49491   5.842   4.146   6.988
82553SOL    HW149492   5.852   4.242   6.986
82553SOL    HW249493   5.926   4.113   6.955
82554SOL     OW49494   6.902   9.846   8.469
82554SOL    HW149495   6.845   9.888   8.404
82554SOL    HW249496   6.911   9.911   8.538
82555SOL     OW49497  10.400   3.449   0.321
82555SOL    HW149498  10.394   3.357   0.295
82555SOL    HW249499  10.486   3.456   0.362
82556SOL     OW49500   9.007  10.148   2.779
82556SOL    HW149501   9.060  10.073   2.808
82556SOL    HW249502   9.053  10.225   2.813
82557SOL     OW49503  14.001  14.614   4.236
82557SOL    HW149504  14.016  14.656   4.320
82557SOL    HW249505  14.081  14.564   4.219
82558SOL     OW49506   8.545  10.051  12.065
82558SOL    HW149507   8.524  10.022  11.977
82558SOL    HW249508   8.638  10.075  12.061
82559SOL     OW49509  12.754   6.628  11.043
82559SOL    HW149510  12.752   6.585  10.958
82559SOL    HW249511  12.708   6.711  11.029
82560SOL     OW49512  10.083  12.131  12.723
82560SOL    HW149513  10.153  12.121  12.659
82560SOL    HW249514  10.125  12.118  12.808
82561SOL     OW49515   7.941  10.786   5.904
82561SOL    HW149516   7.898  10.799   5.988
82561SOL    HW249517   7.936  10.692   5.888
82562SOL     OW49518   2.334  11.742   8.702
82562SOL    HW149519   2.253  11.782   8.735
82562SOL    HW249520   2.335  11.655   8.741
82563SOL     OW49521   8.759   4.676   5.986
82563SOL    HW149522   8.748   4.771   5.993
82563SOL    HW249523   8.851   4.660   6.008
82564SOL     OW49524   2.114   3.694   1.864
82564SOL    HW149525   2.111   3.710   1.769
82564SOL    HW249526   2.156   3.771   1.900
82565SOL     OW49527   2.269   0.769  11.649
82565SOL    HW149528   2.241   0.852  11.610
82565SOL    HW249529   2.296   0.793  11.738
82566SOL     OW49530   3.686   0.239   9.414
82566SOL    HW149531   3.702   0.197   9.329
82566SOL    HW249532   3.672   0.166   9.474
82567SOL     OW49533  12.228  10.911   6.471
82567SOL    HW149534  12.303  10.970   6.462
82567SOL    HW249535  12.154  10.960   6.435
82568SOL     OW49536   3.415   8.900  14.104
82568SOL    HW149537   3.399   8.920  14.196
82568SOL    HW249538   3.491   8.953  14.081
82569SOL     OW49539   5.720  12.726   0.242
82569SOL    HW149540   5.716  12.820   0.258
82569SOL    HW249541   5.812  12.708   0.226
82570SOL     OW49542   8.014   1.851   7.080
82570SOL    HW149543   8.042   1.911   7.010
82570SOL    HW249544   8.095   1.825   7.124
82571SOL     OW49545   6.751  12.779   0.250
82571SOL    HW149546   6.715  12.806   0.166
82571SOL    HW249547   6.723  12.688   0.260
82572SOL     OW49548   5.499   4.230  14.004
82572SOL    HW149549   5.484   4.149  13.955
82572SOL    HW249550   5.468   4.299  13.946
82573SOL     OW49551  12.966  11.904  10.621
82573SOL    HW149552  13.021  11.878  10.694
82573SOL    HW249553  12.880  11.923  10.660
82574SOL     OW49554   3.841   0.204  14.841
82574SOL    HW149555   3.767   0.232   0.016
82574SOL    HW249556   3.813   0.121  14.803
82575SOL     OW49557  13.584   9.898   1.636
82575SOL    HW149558  13.606   9.885   1.544
82575SOL    HW249559  13.495   9.863   1.645
82576SOL     OW49560   7.989  12.346   5.849
82576SOL    HW149561   7.982  12.317   5.758
82576SOL    HW249562   7.902  12.331   5.886
82577SOL     OW49563  10.966  13.212   8.716
82577SOL    HW149564  10.926  13.129   8.742
82577SOL    HW249565  11.041  13.222   8.774
82578SOL     OW49566  12.016   4.970   2.162
82578SOL    HW149567  11.935   4.973   2.112
82578SOL    HW249568  11.999   5.024   2.240
82579SOL     OW49569   2.152  13.858  13.466
82579SOL    HW149570   2.179  13.880  13.377
82579SOL    HW249571   2.155  13.942  13.512
82580SOL     OW49572  11.615   5.130  14.641
82580SOL    HW149573  11.611   5.138  14.736
82580SOL    HW249574  11.646   5.040  14.625
82581SOL     OW49575  13.963  13.989   6.582
82581SOL    HW149576  13.961  14.078   6.617
82581SOL    HW249577  13.889  13.944   6.623
82582SOL     OW49578   5.817   9.358  13.190
82582SOL    HW149579   5.759   9.367  13.266
82582SOL    HW249580   5.807   9.267  13.163
82583SOL     OW49581   3.813   0.510  11.621
82583SOL    HW149582   3.898   0.478  11.590
82583SOL    HW249583   3.762   0.525  11.542
82584SOL     OW49584  12.553  11.377   6.863
82584SOL    HW149585  12.579  11.301   6.914
82584SOL    HW249586  12.474  11.349   6.817
82585SOL     OW49587  13.281  13.099   0.557
82585SOL    HW149588  13.293  13.008   0.530
82585SOL    HW249589  13.227  13.137   0.488
82586SOL     OW49590   2.997  10.721  10.495
82586SOL    HW149591   3.039  10.643  10.530
82586SOL    HW249592   2.924  10.687  10.442
82587SOL     OW49593   0.525   6.175  10.610
82587SOL    HW149594   0.612   6.213  10.607
82587SOL    HW249595   0.533   6.101  10.671
82588SOL     OW49596  13.985  11.268   5.795
82588SOL    HW149597  14.058  11.331   5.791
82588SOL    HW249598  13.990  11.220   5.713
82589SOL     OW49599   2.750   5.906   6.603
82589SOL    HW149600   2.655   5.902   6.613
82589SOL    HW249601   2.766   5.879   6.513
82590SOL     OW49602   8.341   4.756  10.367
82590SOL    HW149603   8.436   4.748  10.369
82590SOL    HW249604   8.325   4.837  10.319
82591SOL     OW49605  14.461  14.243   9.111
82591SOL    HW149606  14.458  14.257   9.017
82591SOL    HW249607  14.531  14.300   9.142
82592SOL     OW49608   6.896  10.443   6.549
82592SOL    HW149609   6.875  10.467   6.458
82592SOL    HW249610   6.934  10.356   6.542
82593SOL     OW49611  11.372  13.399   6.358
82593SOL    HW149612  11.291  13.447   6.342
82593SOL    HW249613  11.351  13.341   6.432
82594SOL     OW49614   7.076   3.512   0.733
82594SOL    HW149615   7.171   3.521   0.728
82594SOL    HW249616   7.044   3.601   0.747
82595SOL     OW49617   2.988   0.253   3.086
82595SOL    HW149618   2.897   0.263   3.112
82595SOL    HW249619   2.992   0.289   2.998
82596SOL     OW49620   3.068   6.772   0.679
82596SOL    HW149621   3.115   6.716   0.617
82596SOL    HW249622   3.002   6.715   0.718
82597SOL     OW49623  10.924   8.933   1.771
82597SOL    HW149624  11.001   8.980   1.803
82597SOL    HW249625  10.858   9.000   1.758
82598SOL     OW49626   9.801   9.096  10.149
82598SOL    HW149627   9.744   9.151  10.095
82598SOL    HW249628   9.771   9.006  10.131
82599SOL     OW49629  11.770   3.863   2.762
82599SOL    HW149630  11.697   3.845   2.702
82599SOL    HW249631  11.782   3.958   2.757
82600SOL     OW49632   2.187   0.791  11.339
82600SOL    HW149633   2.124   0.854  11.305
82600SOL    HW249634   2.133   0.718  11.369
82601SOL     OW49635   9.675  12.292  13.317
82601SOL    HW149636   9.715  12.286  13.403
82601SOL    HW249637   9.587  12.325  13.333
82602SOL     OW49638   9.562   0.915   4.188
82602SOL    HW149639   9.582   0.975   4.116
82602SOL    HW249640   9.470   0.932   4.210
82603SOL     OW49641   4.698   5.052   3.094
82603SOL    HW149642   4.718   4.959   3.080
82603SOL    HW249643   4.618   5.067   3.044
82604SOL     OW49644   3.010  11.255   6.035
82604SOL    HW149645   3.061  11.247   6.115
82604SOL    HW249646   2.948  11.326   6.054
82605SOL     OW49647  14.360  10.732   2.590
82605SOL    HW149648  14.283  10.695   2.634
82605SOL    HW249649  14.346  10.826   2.593
82606SOL     OW49650  13.523  12.032  14.197
82606SOL    HW149651  13.448  12.084  14.228
82606SOL    HW249652  13.492  11.992  14.116
82607SOL     OW49653   7.161   0.417   6.548
82607SOL    HW149654   7.137   0.473   6.473
82607SOL    HW249655   7.093   0.349   6.548
82608SOL     OW49656  12.433  11.722   5.961
82608SOL    HW149657  12.339  11.740   5.958
82608SOL    HW249658  12.456  11.700   5.871
82609SOL     OW49659   1.263  14.506   7.670
82609SOL    HW149660   1.321  14.430   7.675
82609SOL    HW249661   1.291  14.552   7.591
82610SOL     OW49662  14.712  13.245   8.446
82610SOL    HW149663  14.685  13.263   8.536
82610SOL    HW249664  14.758  13.161   8.451
82611SOL     OW49665   4.429  10.114   3.912
82611SOL    HW149666   4.471  10.115   3.998
82611SOL    HW249667   4.439  10.023   3.882
82612SOL     OW49668   3.441  14.618   1.018
82612SOL    HW149669   3.348  14.598   1.030
82612SOL    HW249670   3.476  14.543   0.970
82613SOL     OW49671   6.595  13.604   3.029
82613SOL    HW149672   6.651  13.529   3.009
82613SOL    HW249673   6.629  13.675   2.975
82614SOL     OW49674   8.333   3.515  10.886
82614SOL    HW149675   8.292   3.470  10.812
82614SOL    HW249676   8.425   3.488  10.882
82615SOL     OW49677   4.682  13.806   1.069
82615SOL    HW149678   4.679  13.856   0.988
82615SOL    HW249679   4.754  13.745   1.057
82616SOL     OW49680   7.239  12.502  12.782
82616SOL    HW149681   7.227  12.596  12.768
82616SOL    HW249682   7.313  12.478  12.728
82617SOL     OW49683  13.852   6.478  13.029
82617SOL    HW149684  13.769   6.431  13.027
82617SOL    HW249685  13.881   6.472  13.120
82618SOL     OW49686   0.916  10.460  12.013
82618SOL    HW149687   0.874  10.507  11.940
82618SOL    HW249688   1.007  10.489  12.010
82619SOL     OW49689  13.353   1.564   4.146
82619SOL    HW149690  13.316   1.521   4.069
82619SOL    HW249691  13.294   1.637   4.163
82620SOL     OW49692   4.093   8.637  10.431
82620SOL    HW149693   4.063   8.551  10.403
82620SOL    HW249694   4.012   8.690  10.435
82621SOL     OW49695   8.513  10.814   9.779
82621SOL    HW149696   8.498  10.728   9.817
82621SOL    HW249697   8.572  10.857   9.840
82622SOL     OW49698  11.956   0.519  12.408
82622SOL    HW149699  11.927   0.600  12.365
82622SOL    HW249700  11.950   0.452  12.339
82623SOL     OW49701  13.623  14.468   8.189
82623SOL    HW149702  13.557  14.503   8.249
82623SOL    HW249703  13.573  14.433   8.115
82624SOL     OW49704  13.705   2.752   5.155
82624SOL    HW149705  13.676   2.681   5.097
82624SOL    HW249706  13.797   2.766   5.131
82625SOL     OW49707   3.040  10.919   4.883
82625SOL    HW149708   3.072  10.837   4.920
82625SOL    HW249709   3.001  10.894   4.800
82626SOL     OW49710   7.302   2.108   9.151
82626SOL    HW149711   7.329   2.183   9.098
82626SOL    HW249712   7.384   2.068   9.180
82627SOL     OW49713   6.984   4.296  13.150
82627SOL    HW149714   6.970   4.233  13.080
82627SOL    HW249715   6.896   4.324  13.175
82628SOL     OW49716   4.599  11.956   7.826
82628SOL    HW149717   4.577  11.892   7.758
82628SOL    HW249718   4.689  11.934   7.850
82629SOL     OW49719   6.898   7.606   7.452
82629SOL    HW149720   6.840   7.647   7.515
82629SOL    HW249721   6.952   7.678   7.418
82630SOL     OW49722   6.359   1.559   4.093
82630SOL    HW149723   6.267   1.535   4.085
82630SOL    HW249724   6.391   1.505   4.166
82631SOL     OW49725   1.916   7.002  10.211
82631SOL    HW149726   1.876   7.085  10.238
82631SOL    HW249727   1.896   6.941  10.281
82632SOL     OW49728   5.784   8.687   8.587
82632SOL    HW149729   5.877   8.708   8.591
82632SOL    HW249730   5.768   8.667   8.495
82633SOL     OW49731   0.101  14.153   8.172
82633SOL    HW149732   0.024  14.096   8.168
82633SOL    HW249733   0.095  14.195   8.258
82634SOL     OW49734   2.898   7.016   0.294
82634SOL    HW149735   2.927   7.077   0.226
82634SOL    HW249736   2.950   7.040   0.371
82635SOL     OW49737   9.694  12.889   1.662
82635SOL    HW149738   9.692  12.892   1.566
82635SOL    HW249739   9.649  12.808   1.685
82636SOL     OW49740   6.405   0.356  13.929
82636SOL    HW149741   6.398   0.317  13.842
82636SOL    HW249742   6.334   0.420  13.932
82637SOL     OW49743   1.900   8.870   1.254
82637SOL    HW149744   1.806   8.877   1.236
82637SOL    HW249745   1.910   8.784   1.295
82638SOL     OW49746   3.365   8.185   5.458
82638SOL    HW149747   3.356   8.104   5.508
82638SOL    HW249748   3.433   8.166   5.393
82639SOL     OW49749   1.814   9.544   7.653
82639SOL    HW149750   1.807   9.599   7.575
82639SOL    HW249751   1.899   9.568   7.690
82640SOL     OW49752   4.429   8.034   3.450
82640SOL    HW149753   4.405   7.946   3.421
82640SOL    HW249754   4.461   8.078   3.372
82641SOL     OW49755   5.228   8.261   0.681
82641SOL    HW149756   5.316   8.272   0.717
82641SOL    HW249757   5.239   8.199   0.609
82642SOL     OW49758   9.769   2.561  12.550
82642SOL    HW149759   9.840   2.572  12.486
82642SOL    HW249760   9.790   2.623  12.620
82643SOL     OW49761   7.298   5.730   1.242
82643SOL    HW149762   7.350   5.725   1.322
82643SOL    HW249763   7.234   5.659   1.250
82644SOL     OW49764  10.711   3.625   8.839
82644SOL    HW149765  10.681   3.631   8.930
82644SOL    HW249766  10.800   3.662   8.841
82645SOL     OW49767  14.206   5.694   4.864
82645SOL    HW149768  14.189   5.764   4.801
82645SOL    HW249769  14.139   5.706   4.932
82646SOL     OW49770  12.594  13.053   3.910
82646SOL    HW149771  12.688  13.035   3.916
82646SOL    HW249772  12.588  13.148   3.906
82647SOL     OW49773  11.752   2.046  12.249
82647SOL    HW149774  11.690   1.975  12.264
82647SOL    HW249775  11.701   2.116  12.210
82648SOL     OW49776   2.444   3.028   6.789
82648SOL    HW149777   2.438   2.989   6.876
82648SOL    HW249778   2.397   2.966   6.733
82649SOL     OW49779   9.455   1.524   2.638
82649SOL    HW149780   9.544   1.497   2.662
82649SOL    HW249781   9.421   1.450   2.588
82650SOL     OW49782   9.608   0.384   8.549
82650SOL    HW149783   9.618   0.382   8.645
82650SOL    HW249784   9.631   0.473   8.525
82651SOL     OW49785  13.755   2.507   5.406
82651SOL    HW149786  13.850   2.521   5.407
82651SOL    HW249787  13.733   2.495   5.314
82652SOL     OW49788   9.009   1.595   5.410
82652SOL    HW149789   8.930   1.553   5.442
82652SOL    HW249790   8.978   1.669   5.359
82653SOL     OW49791   2.140   3.272   5.111
82653SOL    HW149792   2.227   3.236   5.130
82653SOL    HW249793   2.148   3.308   5.023
82654SOL     OW49794   4.395   0.407  13.675
82654SOL    HW149795   4.398   0.415  13.579
82654SOL    HW249796   4.413   0.495  13.707
82655SOL     OW49797   5.447  12.257   3.974
82655SOL    HW149798   5.445  12.353   3.967
82655SOL    HW249799   5.456  12.227   3.883
82656SOL     OW49800   0.404  10.504   0.715
82656SOL    HW149801   0.310  10.495   0.700
82656SOL    HW249802   0.441  10.518   0.628
82657SOL     OW49803  13.454   8.102   0.696
82657SOL    HW149804  13.420   8.163   0.762
82657SOL    HW249805  13.535   8.142   0.665
82658SOL     OW49806  11.877   5.060   0.549
82658SOL    HW149807  11.835   5.093   0.629
82658SOL    HW249808  11.804   5.029   0.495
82659SOL     OW49809   5.991  11.663  12.939
82659SOL    HW149810   6.043  11.728  12.987
82659SOL    HW249811   6.042  11.646  12.860
82660SOL     OW49812  11.797  14.328   1.706
82660SOL    HW149813  11.736  14.393   1.740
82660SOL    HW249814  11.795  14.257   1.771
82661SOL     OW49815  10.042   8.037   8.767
82661SOL    HW149816   9.948   8.021   8.774
82661SOL    HW249817  10.071   8.050   8.857
82662SOL     OW49818   6.593  11.177  12.499
82662SOL    HW149819   6.680  11.144  12.480
82662SOL    HW249820   6.540  11.152  12.423
82663SOL     OW49821  12.660   5.055   0.075
82663SOL    HW149822  12.661   4.963   0.101
82663SOL    HW249823  12.752   5.080   0.071
82664SOL     OW49824  10.324   7.756  10.435
82664SOL    HW149825  10.346   7.679  10.488
82664SOL    HW249826  10.400   7.813  10.444
82665SOL     OW49827   3.000   4.844  13.454
82665SOL    HW149828   3.082   4.797  13.468
82665SOL    HW249829   2.937   4.777  13.427
82666SOL     OW49830  13.496   8.234   7.011
82666SOL    HW149831  13.437   8.167   7.045
82666SOL    HW249832  13.551   8.189   6.947
82667SOL     OW49833   0.877   1.058   8.144
82667SOL    HW149834   0.939   1.105   8.088
82667SOL    HW249835   0.903   1.081   8.234
82668SOL     OW49836   2.654   2.093   2.610
82668SOL    HW149837   2.605   2.167   2.648
82668SOL    HW249838   2.587   2.043   2.563
82669SOL     OW49839   0.526   2.248   6.334
82669SOL    HW149840   0.489   2.287   6.413
82669SOL    HW249841   0.620   2.243   6.351
82670SOL     OW49842   6.229   7.689   4.149
82670SOL    HW149843   6.267   7.700   4.236
82670SOL    HW249844   6.224   7.777   4.113
82671SOL     OW49845  13.202   3.126  12.077
82671SOL    HW149846  13.255   3.048  12.061
82671SOL    HW249847  13.224   3.153  12.166
82672SOL     OW49848  12.666   9.178  13.997
82672SOL    HW149849  12.723   9.238  14.045
82672SOL    HW249850  12.633   9.118  14.064
82673SOL     OW49851   5.153   7.174   9.326
82673SOL    HW149852   5.154   7.232   9.403
82673SOL    HW249853   5.187   7.091   9.358
82674SOL     OW49854  13.181   8.252   3.956
82674SOL    HW149855  13.218   8.173   3.916
82674SOL    HW249856  13.120   8.219   4.022
82675SOL     OW49857  12.481   7.888   2.260
82675SOL    HW149858  12.417   7.851   2.321
82675SOL    HW249859  12.502   7.974   2.296
82676SOL     OW49860   4.990  13.295  14.501
82676SOL    HW149861   4.965  13.362  14.437
82676SOL    HW249862   5.083  13.281  14.486
82677SOL     OW49863  14.502   2.019   3.730
82677SOL    HW149864  14.531   2.107   3.754
82677SOL    HW249865  14.450   2.031   3.651
82678SOL     OW49866   1.248  14.122   5.446
82678SOL    HW149867   1.196  14.200   5.428
82678SOL    HW249868   1.328  14.134   5.395
82679SOL     OW49869   7.571  12.475   4.189
82679SOL    HW149870   7.531  12.388   4.188
82679SOL    HW249871   7.524  12.522   4.258
82680SOL     OW49872  12.797   8.849  12.104
82680SOL    HW149873  12.758   8.936  12.116
82680SOL    HW249874  12.742   8.791  12.156
82681SOL     OW49875   2.262   5.713   6.999
82681SOL    HW149876   2.199   5.754   6.940
82681SOL    HW249877   2.221   5.716   7.085
82682SOL     OW49878   7.128  10.922   5.778
82682SOL    HW149879   7.091  10.986   5.838
82682SOL    HW249880   7.223  10.933   5.786
82683SOL     OW49881  14.301   2.835   2.486
82683SOL    HW149882  14.226   2.842   2.427
82683SOL    HW249883  14.354   2.912   2.468
82684SOL     OW49884  13.393   0.404  12.713
82684SOL    HW149885  13.385   0.402  12.808
82684SOL    HW249886  13.382   0.496  12.689
82685SOL     OW49887   0.834   5.837   3.968
82685SOL    HW149888   0.921   5.860   3.935
82685SOL    HW249889   0.806   5.765   3.913
82686SOL     OW49890   0.361  10.623   9.254
82686SOL    HW149891   0.430  10.574   9.209
82686SOL    HW249892   0.398  10.642   9.341
82687SOL     OW49893   5.174   4.957  14.746
82687SOL    HW149894   5.148   4.873  14.710
82687SOL    HW249895   5.160   4.948  14.840
82688SOL     OW49896   7.766   6.697  10.873
82688SOL    HW149897   7.671   6.702  10.867
82688SOL    HW249898   7.789   6.618  10.824
82689SOL     OW49899   3.021   1.369   2.454
82689SOL    HW149900   3.066   1.405   2.530
82689SOL    HW249901   3.020   1.275   2.468
82690SOL     OW49902   2.202  14.742   9.596
82690SOL    HW149903   2.234  14.729   9.685
82690SOL    HW249904   2.143  14.817   9.603
82691SOL     OW49905   8.716  13.704  14.777
82691SOL    HW149906   8.772  13.628  14.760
82691SOL    HW249907   8.737  13.765  14.706
82692SOL     OW49908   8.715  12.225  14.424
82692SOL    HW149909   8.709  12.258  14.513
82692SOL    HW249910   8.692  12.132  14.431
82693SOL     OW49911  14.577   9.920  13.696
82693SOL    HW149912  14.503   9.862  13.715
82693SOL    HW249913  14.546  10.007  13.721
82694SOL     OW49914   3.415   1.339   4.742
82694SOL    HW149915   3.436   1.424   4.704
82694SOL    HW249916   3.415   1.354   4.837
82695SOL     OW49917  10.957  12.405  12.635
82695SOL    HW149918  10.884  12.441  12.586
82695SOL    HW249919  11.035  12.442  12.593
82696SOL     OW49920  12.500  13.244   5.080
82696SOL    HW149921  12.482  13.254   4.986
82696SOL    HW249922  12.423  13.281   5.123
82697SOL     OW49923   2.897  10.437   8.176
82697SOL    HW149924   2.985  10.415   8.145
82697SOL    HW249925   2.840  10.419   8.101
82698SOL     OW49926  10.722   3.037   6.465
82698SOL    HW149927  10.781   2.977   6.511
82698SOL    HW249928  10.670   3.077   6.535
82699SOL     OW49929  13.068  11.851   7.076
82699SOL    HW149930  13.021  11.918   7.127
82699SOL    HW249931  13.031  11.858   6.988
82700SOL     OW49932   0.212  10.522   3.827
82700SOL    HW149933   0.212  10.617   3.840
82700SOL    HW249934   0.119  10.498   3.830
82701SOL     OW49935   8.084   7.321   5.819
82701SOL    HW149936   8.087   7.281   5.906
82701SOL    HW249937   8.169   7.301   5.781
82702SOL     OW49938   2.057   6.507   2.573
82702SOL    HW149939   2.131   6.486   2.516
82702SOL    HW249940   1.993   6.547   2.515
82703SOL     OW49941   4.759   0.498   6.102
82703SOL    HW149942   4.697   0.552   6.151
82703SOL    HW249943   4.711   0.473   6.022
82704SOL     OW49944  14.396   7.966   0.449
82704SOL    HW149945  14.466   7.930   0.503
82704SOL    HW249946  14.327   7.989   0.511
82705SOL     OW49947  10.714   8.562   3.843
82705SOL    HW149948  10.710   8.559   3.748
82705SOL    HW249949  10.641   8.618   3.869
82706SOL     OW49950  14.471  11.051  11.322
82706SOL    HW149951  14.526  10.976  11.344
82706SOL    HW249952  14.531  11.111  11.277
82707SOL     OW49953  11.786   8.572   1.513
82707SOL    HW149954  11.860   8.516   1.537
82707SOL    HW249955  11.744   8.593   1.596
82708SOL     OW49956   2.492   2.944   6.345
82708SOL    HW149957   2.547   2.967   6.420
82708SOL    HW249958   2.518   3.006   6.277
82709SOL     OW49959  10.840   5.242  13.877
82709SOL    HW149960  10.920   5.193  13.891
82709SOL    HW249961  10.834   5.301  13.951
82710SOL     OW49962   1.357  13.572  12.040
82710SOL    HW149963   1.452  13.558  12.032
82710SOL    HW249964   1.348  13.666  12.052
82711SOL     OW49965  12.593   3.320  12.590
82711SOL    HW149966  12.637   3.271  12.659
82711SOL    HW249967  12.509   3.276  12.580
82712SOL     OW49968   1.005  13.987  12.540
82712SOL    HW149969   1.001  14.077  12.508
82712SOL    HW249970   1.036  13.994  12.630
82713SOL     OW49971   0.219   7.693  10.359
82713SOL    HW149972   0.233   7.759  10.291
82713SOL    HW249973   0.139   7.719  10.402
82714SOL     OW49974   2.482   4.540   7.707
82714SOL    HW149975   2.499   4.525   7.613
82714SOL    HW249976   2.397   4.498   7.723
82715SOL     OW49977   0.549   5.651   2.998
82715SOL    HW149978   0.535   5.631   3.090
82715SOL    HW249979   0.551   5.566   2.955
82716SOL     OW49980   8.624   3.571  11.006
82716SOL    HW149981   8.696   3.530  10.958
82716SOL    HW249982   8.587   3.634  10.944
82717SOL     OW49983  10.296   5.696   6.911
82717SOL    HW149984  10.362   5.652   6.857
82717SOL    HW249985  10.215   5.646   6.894
82718SOL     OW49986   4.732   3.342   5.481
82718SOL    HW149987   4.682   3.316   5.558
82718SOL    HW249988   4.768   3.261   5.446
82719SOL     OW49989   3.665  14.266   5.476
82719SOL    HW149990   3.652  14.272   5.570
82719SOL    HW249991   3.682  14.356   5.448
82720SOL     OW49992  12.622   8.819   7.314
82720SOL    HW149993  12.636   8.828   7.408
82720SOL    HW249994  12.701   8.776   7.282
82721SOL     OW49995   0.394   4.343   8.857
82721SOL    HW149996   0.455   4.394   8.804
82721SOL    HW249997   0.429   4.349   8.946
82722SOL     OW49998   8.060   3.975   7.865
82722SOL    HW149999   8.049   3.881   7.854
82722SOL    HW250000   7.971   4.010   7.857
82723SOL     OW50001  13.802   6.744   3.608
82723SOL    HW150002  13.728   6.683   3.602
82723SOL    HW250003  13.876   6.696   3.571
82724SOL     OW50004   7.287   9.722   5.820
82724SOL    HW150005   7.317   9.794   5.875
82724SOL    HW250006   7.365   9.670   5.804
82725SOL     OW50007  13.894   6.734   5.528
82725SOL    HW150008  13.913   6.798   5.460
82725SOL    HW250009  13.825   6.774   5.580
82726SOL     OW50010  13.104  12.497   5.267
82726SOL    HW150011  13.038  12.450   5.318
82726SOL    HW250012  13.067  12.584   5.254
82727SOL     OW50013   9.245   9.268   9.518
82727SOL    HW150014   9.312   9.282   9.451
82727SOL    HW250015   9.206   9.183   9.495
82728SOL     OW50016   1.434   0.976   1.852
82728SOL    HW150017   1.507   0.957   1.911
82728SOL    HW250018   1.389   1.050   1.894
82729SOL     OW50019   3.200   4.458  12.003
82729SOL    HW150020   3.207   4.457  12.098
82729SOL    HW250021   3.166   4.371  11.980
82730SOL     OW50022  11.862   9.035  13.938
82730SOL    HW150023  11.824   9.121  13.952
82730SOL    HW250024  11.788   8.975  13.945
82731SOL     OW50025  13.258  10.030  13.794
82731SOL    HW150026  13.256  10.090  13.720
82731SOL    HW250027  13.307   9.954  13.763
82732SOL     OW50028   6.486  13.828  13.681
82732SOL    HW150029   6.454  13.742  13.655
82732SOL    HW250030   6.582  13.819  13.680
82733SOL     OW50031   6.288   3.289   0.769
82733SOL    HW150032   6.303   3.196   0.752
82733SOL    HW250033   6.194   3.294   0.788
82734SOL     OW50034  12.369   7.297   0.802
82734SOL    HW150035  12.444   7.241   0.781
82734SOL    HW250036  12.404   7.386   0.799
82735SOL     OW50037   7.854  11.805   2.639
82735SOL    HW150038   7.825  11.715   2.625
82735SOL    HW250039   7.942  11.796   2.676
82736SOL     OW50040  12.475   4.612   0.243
82736SOL    HW150041  12.513   4.675   0.304
82736SOL    HW250042  12.548   4.554   0.220
82737SOL     OW50043   8.350   8.280   2.887
82737SOL    HW150044   8.371   8.286   2.980
82737SOL    HW250045   8.351   8.186   2.868
82738SOL     OW50046   9.626   8.522   3.859
82738SOL    HW150047   9.618   8.474   3.776
82738SOL    HW250048   9.701   8.581   3.845
82739SOL     OW50049  12.418   6.436  13.012
82739SOL    HW150050  12.455   6.504  12.955
82739SOL    HW250051  12.323   6.448  13.006
82740SOL     OW50052   2.413   6.692  10.735
82740SOL    HW150053   2.441   6.661  10.649
82740SOL    HW250054   2.380   6.781  10.719
82741SOL     OW50055   0.522  11.781  11.140
82741SOL    HW150056   0.464  11.818  11.072
82741SOL    HW250057   0.607  11.775  11.097
82742SOL     OW50058   1.626   5.744  11.035
82742SOL    HW150059   1.624   5.834  11.004
82742SOL    HW250060   1.608   5.691  10.958
82743SOL     OW50061  14.380  13.180   5.158
82743SOL    HW150062  14.404  13.127   5.234
82743SOL    HW250063  14.362  13.267   5.194
82744SOL     OW50064   4.825  14.197   0.575
82744SOL    HW150065   4.791  14.108   0.570
82744SOL    HW250066   4.760  14.251   0.529
82745SOL     OW50067   8.615   1.225   6.802
82745SOL    HW150068   8.559   1.159   6.843
82745SOL    HW250069   8.638   1.284   6.875
82746SOL     OW50070   8.113   0.145   0.710
82746SOL    HW150071   8.090   0.217   0.770
82746SOL    HW250072   8.206   0.157   0.693
82747SOL     OW50073   3.654   8.401   2.746
82747SOL    HW150074   3.590   8.458   2.789
82747SOL    HW250075   3.712   8.461   2.699
82748SOL     OW50076   2.015   6.629   8.539
82748SOL    HW150077   1.922   6.652   8.530
82748SOL    HW250078   2.060   6.714   8.538
82749SOL     OW50079   7.375   8.174  13.164
82749SOL    HW150080   7.285   8.194  13.189
82749SOL    HW250081   7.419   8.153  13.247
82750SOL     OW50082   3.632  14.800  13.822
82750SOL    HW150083   3.612  14.799  13.729
82750SOL    HW250084   3.575  14.733  13.860
82751SOL     OW50085   2.771   0.573   2.986
82751SOL    HW150086   2.700   0.571   2.921
82751SOL    HW250087   2.754   0.497   3.042
82752SOL     OW50088   7.160   7.873   2.700
82752SOL    HW150089   7.188   7.936   2.767
82752SOL    HW250090   7.073   7.902   2.674
82753SOL     OW50091   1.453   1.362   2.244
82753SOL    HW150092   1.494   1.321   2.167
82753SOL    HW250093   1.527   1.387   2.300
82754SOL     OW50094   4.082  11.543   1.339
82754SOL    HW150095   4.058  11.489   1.263
82754SOL    HW250096   4.165  11.506   1.369
82755SOL     OW50097   5.225  14.389   7.216
82755SOL    HW150098   5.186  14.453   7.276
82755SOL    HW250099   5.286  14.439   7.163
82756SOL     OW50100   1.732   7.812  13.109
82756SOL    HW150101   1.794   7.866  13.060
82756SOL    HW250102   1.786   7.742  13.147
82757SOL     OW50103   6.925  12.514   7.412
82757SOL    HW150104   6.974  12.596   7.421
82757SOL    HW250105   6.923  12.498   7.317
82758SOL     OW50106  13.612   0.094   3.454
82758SOL    HW150107  13.684   0.033   3.467
82758SOL    HW250108  13.546   0.067   3.518
82759SOL     OW50109   7.963   4.975   9.828
82759SOL    HW150110   8.049   5.010   9.852
82759SOL    HW250111   7.930   5.037   9.763
82760SOL     OW50112   1.905   1.246   5.744
82760SOL    HW150113   1.897   1.158   5.783
82760SOL    HW250114   1.858   1.303   5.805
82761SOL     OW50115   2.334   5.143   0.414
82761SOL    HW150116   2.381   5.067   0.449
82761SOL    HW250117   2.391   5.217   0.434
82762SOL     OW50118   2.987   7.862  10.154
82762SOL    HW150119   3.030   7.946  10.139
82762SOL    HW250120   3.028   7.828  10.234
82763SOL     OW50121   2.764  12.952   4.002
82763SOL    HW150122   2.797  12.984   3.917
82763SOL    HW250123   2.836  12.970   4.063
82764SOL     OW50124   3.814   7.072   1.909
82764SOL    HW150125   3.797   7.088   1.816
82764SOL    HW250126   3.861   7.150   1.938
82765SOL     OW50127   2.176  14.200  12.762
82765SOL    HW150128   2.269  14.178  12.755
82765SOL    HW250129   2.141  14.181  12.675
82766SOL     OW50130   0.901  14.772   6.001
82766SOL    HW150131   0.980  14.792   6.052
82766SOL    HW250132   0.866  14.692   6.042
82767SOL     OW50133  10.743   9.143  12.341
82767SOL    HW150134  10.673   9.117  12.402
82767SOL    HW250135  10.697   9.184  12.268
82768SOL     OW50136   1.421   3.733   8.516
82768SOL    HW150137   1.511   3.764   8.529
82768SOL    HW250138   1.432   3.647   8.474
82769SOL     OW50139   6.444   0.312  12.642
82769SOL    HW150140   6.364   0.360  12.620
82769SOL    HW250141   6.501   0.378  12.681
82770SOL     OW50142   5.690   2.699   0.277
82770SOL    HW150143   5.628   2.744   0.334
82770SOL    HW250144   5.751   2.654   0.336
82771SOL     OW50145   6.835  12.713   9.311
82771SOL    HW150146   6.753  12.762   9.306
82771SOL    HW250147   6.901  12.778   9.337
82772SOL     OW50148   2.238  10.313   5.990
82772SOL    HW150149   2.185  10.382   5.951
82772SOL    HW250150   2.190  10.289   6.069
82773SOL     OW50151   3.014  11.576  10.550
82773SOL    HW150152   2.969  11.630  10.615
82773SOL    HW250153   2.993  11.617  10.466
82774SOL     OW50154   0.763   3.636  12.306
82774SOL    HW150155   0.824   3.707  12.286
82774SOL    HW250156   0.816   3.572  12.353
82775SOL     OW50157   7.099   4.555  12.188
82775SOL    HW150158   7.158   4.629  12.194
82775SOL    HW250159   7.139   4.488  12.244
82776SOL     OW50160   7.086   2.678   9.094
82776SOL    HW150161   7.155   2.624   9.133
82776SOL    HW250162   7.132   2.735   9.032
82777SOL     OW50163   6.486  12.553   4.252
82777SOL    HW150164   6.538  12.593   4.183
82777SOL    HW250165   6.403  12.531   4.209
82778SOL     OW50166   2.767   9.473  12.640
82778SOL    HW150167   2.732   9.561  12.656
82778SOL    HW250168   2.801   9.446  12.726
82779SOL     OW50169   9.825   5.308   0.233
82779SOL    HW150170   9.909   5.325   0.275
82779SOL    HW250171   9.824   5.368   0.158
82780SOL     OW50172  13.867  11.473   7.161
82780SOL    HW150173  13.778  11.454   7.191
82780SOL    HW250174  13.904  11.527   7.231
82781SOL     OW50175   6.501   0.272   7.786
82781SOL    HW150176   6.436   0.316   7.731
82781SOL    HW250177   6.545   0.211   7.727
82782SOL     OW50178   1.085   5.827  14.825
82782SOL    HW150179   1.059   5.919  14.817
82782SOL    HW250180   1.164   5.829   0.001
82783SOL     OW50181   6.236  12.689  12.535
82783SOL    HW150182   6.217  12.620  12.599
82783SOL    HW250183   6.216  12.770  12.582
82784SOL     OW50184   9.604   6.294   5.950
82784SOL    HW150185   9.687   6.331   5.979
82784SOL    HW250186   9.596   6.322   5.858
82785SOL     OW50187   9.655   5.370   8.894
82785SOL    HW150188   9.617   5.291   8.857
82785SOL    HW250189   9.636   5.439   8.830
82786SOL     OW50190  11.125   5.762   1.600
82786SOL    HW150191  11.098   5.752   1.509
82786SOL    HW250192  11.044   5.752   1.650
82787SOL     OW50193   0.885  13.149   9.836
82787SOL    HW150194   0.804  13.181   9.798
82787SOL    HW250195   0.900  13.205   9.913
82788SOL     OW50196  12.756   2.402   0.314
82788SOL    HW150197  12.808   2.474   0.279
82788SOL    HW250198  12.667   2.437   0.319
82789SOL     OW50199   5.578   6.845  13.650
82789SOL    HW150200   5.487   6.872  13.660
82789SOL    HW250201   5.577   6.751  13.666
82790SOL     OW50202   2.023  14.561   6.526
82790SOL    HW150203   2.024  14.629   6.593
82790SOL    HW250204   1.944  14.579   6.474
82791SOL     OW50205   3.644   8.858   8.338
82791SOL    HW150206   3.630   8.792   8.270
82791SOL    HW250207   3.652   8.941   8.290
82792SOL     OW50208   0.517  14.467   1.817
82792SOL    HW150209   0.458  14.542   1.811
82792SOL    HW250210   0.527  14.451   1.911
82793SOL     OW50211   2.566   0.842   7.268
82793SOL    HW150212   2.600   0.926   7.240
82793SOL    HW250213   2.630   0.809   7.331
82794SOL     OW50214  13.065   7.671  12.461
82794SOL    HW150215  12.991   7.729  12.439
82794SOL    HW250216  13.104   7.649  12.376
82795SOL     OW50217   2.399   9.251   2.101
82795SOL    HW150218   2.432   9.161   2.105
82795SOL    HW250219   2.457   9.295   2.039
82796SOL     OW50220   3.380   5.609   8.325
82796SOL    HW150221   3.359   5.679   8.387
82796SOL    HW250222   3.309   5.546   8.335
82797SOL     OW50223   4.869   0.145  14.550
82797SOL    HW150224   4.931   0.117  14.483
82797SOL    HW250225   4.924   0.163  14.627
82798SOL     OW50226   7.718  13.817   2.764
82798SOL    HW150227   7.658  13.751   2.729
82798SOL    HW250228   7.804  13.791   2.732
82799SOL     OW50229   8.699   7.362   3.223
82799SOL    HW150230   8.642   7.311   3.166
82799SOL    HW250231   8.715   7.443   3.176
82800SOL     OW50232  12.140   8.024  12.350
82800SOL    HW150233  12.128   8.114  12.382
82800SOL    HW250234  12.221   8.028  12.298
82801SOL     OW50235   6.728   1.954   7.223
82801SOL    HW150236   6.664   2.025   7.228
82801SOL    HW250237   6.773   1.956   7.308
82802SOL     OW50238   9.816   9.169  11.568
82802SOL    HW150239   9.778   9.189  11.654
82802SOL    HW250240   9.880   9.100  11.585
82803SOL     OW50241  13.566   6.283   2.708
82803SOL    HW150242  13.533   6.198   2.739
82803SOL    HW250243  13.635   6.306   2.769
82804SOL     OW50244  11.096   1.643  10.774
82804SOL    HW150245  11.191   1.635  10.762
82804SOL    HW250246  11.086   1.689  10.858
82805SOL     OW50247   4.442   7.078  13.472
82805SOL    HW150248   4.395   7.127  13.540
82805SOL    HW250249   4.532   7.072  13.504
82806SOL     OW50250   8.201  14.793  12.641
82806SOL    HW150251   8.201  14.744  12.724
82806SOL    HW250252   8.292  14.817  12.627
82807SOL     OW50253  14.719   6.972   8.139
82807SOL    HW150254  14.754   7.038   8.200
82807SOL    HW250255  14.647   7.016   8.095
82808SOL     OW50256   7.653  12.456  13.417
82808SOL    HW150257   7.611  12.380  13.377
82808SOL    HW250258   7.745  12.449  13.391
82809SOL     OW50259   5.718   6.414   7.226
82809SOL    HW150260   5.665   6.338   7.249
82809SOL    HW250261   5.654   6.479   7.196
82810SOL     OW50262  13.481   6.435  12.225
82810SOL    HW150263  13.422   6.485  12.281
82810SOL    HW250264  13.562   6.486  12.224
82811SOL     OW50265  10.328   2.281   9.092
82811SOL    HW150266  10.354   2.291   9.001
82811SOL    HW250267  10.299   2.190   9.099
82812SOL     OW50268  12.549   5.435  11.865
82812SOL    HW150269  12.537   5.495  11.792
82812SOL    HW250270  12.583   5.355  11.825
82813SOL     OW50271   1.382   6.769   1.304
82813SOL    HW150272   1.405   6.773   1.212
82813SOL    HW250273   1.329   6.690   1.313
82814SOL     OW50274  14.715  11.918  13.225
82814SOL    HW150275  14.728  11.854  13.295
82814SOL    HW250276  14.622  11.912  13.204
82815SOL     OW50277  11.478   1.345   6.867
82815SOL    HW150278  11.451   1.376   6.781
82815SOL    HW250279  11.561   1.301   6.851
82816SOL     OW50280   8.435   3.565   4.931
82816SOL    HW150281   8.480   3.494   4.886
82816SOL    HW250282   8.479   3.645   4.901
82817SOL     OW50283   1.016   6.068   6.781
82817SOL    HW150284   1.092   6.077   6.840
82817SOL    HW250285   1.019   6.146   6.725
82818SOL     OW50286   2.403  13.179   1.727
82818SOL    HW150287   2.314  13.154   1.750
82818SOL    HW250288   2.424  13.126   1.650
82819SOL     OW50289   1.749  11.598   6.957
82819SOL    HW150290   1.702  11.675   6.989
82819SOL    HW250291   1.772  11.550   7.036
82820SOL     OW50292  14.136  11.606   2.693
82820SOL    HW150293  14.226  11.588   2.720
82820SOL    HW250294  14.108  11.680   2.747
82821SOL     OW50295   6.350  12.166   7.592
82821SOL    HW150296   6.440  12.188   7.614
82821SOL    HW250297   6.302  12.249   7.597
82822SOL     OW50298  13.921  10.590   9.005
82822SOL    HW150299  13.925  10.685   9.019
82822SOL    HW250300  13.965  10.576   8.921
82823SOL     OW50301  14.701  10.142  10.735
82823SOL    HW150302  14.626  10.193  10.764
82823SOL    HW250303  14.777  10.190  10.767
82824SOL     OW50304  13.293   9.098   1.826
82824SOL    HW150305  13.347   9.020   1.829
82824SOL    HW250306  13.350   9.168   1.859
82825SOL     OW50307  11.979   1.661  11.800
82825SOL    HW150308  11.993   1.755  11.791
82825SOL    HW250309  11.984   1.628  11.710
82826SOL     OW50310   3.572  14.556  12.636
82826SOL    HW150311   3.491  14.599  12.665
82826SOL    HW250312   3.634  14.628  12.625
82827SOL     OW50313  13.627   1.861   3.459
82827SOL    HW150314  13.679   1.805   3.517
82827SOL    HW250315  13.572   1.799   3.410
82828SOL     OW50316   2.788   3.960  11.588
82828SOL    HW150317   2.763   3.884  11.536
82828SOL    HW250318   2.787   3.929  11.679
82829SOL     OW50319   2.939   0.593   3.427
82829SOL    HW150320   3.019   0.643   3.445
82829SOL    HW250321   2.970   0.513   3.383
82830SOL     OW50322   7.836   4.371  12.077
82830SOL    HW150323   7.913   4.352  12.131
82830SOL    HW250324   7.815   4.462  12.097
82831SOL     OW50325  12.587   3.541  13.981
82831SOL    HW150326  12.511   3.483  13.973
82831SOL    HW250327  12.551   3.626  14.005
82832SOL     OW50328   5.274   9.691  12.448
82832SOL    HW150329   5.183   9.696  12.475
82832SOL    HW250330   5.287   9.768  12.392
82833SOL     OW50331   6.305  14.529  12.213
82833SOL    HW150332   6.343  14.455  12.261
82833SOL    HW250333   6.244  14.489  12.152
82834SOL     OW50334   3.565  13.447  13.444
82834SOL    HW150335   3.496  13.432  13.509
82834SOL    HW250336   3.647  13.436  13.493
82835SOL     OW50337  12.992  11.840   7.389
82835SOL    HW150338  13.061  11.803   7.444
82835SOL    HW250339  12.998  11.935   7.403
82836SOL     OW50340   9.411   9.578   3.155
82836SOL    HW150341   9.500   9.565   3.188
82836SOL    HW250342   9.383   9.490   3.128
82837SOL     OW50343   1.609  10.072   3.269
82837SOL    HW150344   1.523  10.055   3.232
82837SOL    HW250345   1.669  10.020   3.215
82838SOL     OW50346   4.863   2.256   5.998
82838SOL    HW150347   4.813   2.180   6.027
82838SOL    HW250348   4.878   2.307   6.078
82839SOL     OW50349   3.370   7.289  14.656
82839SOL    HW150350   3.440   7.282  14.721
82839SOL    HW250351   3.296   7.243  14.695
82840SOL     OW50352   9.662   0.954  13.071
82840SOL    HW150353   9.682   0.901  12.994
82840SOL    HW250354   9.744   0.959  13.120
82841SOL     OW50355   3.758   7.900  11.787
82841SOL    HW150356   3.746   7.807  11.808
82841SOL    HW250357   3.851   7.907  11.765
82842SOL     OW50358  11.193  10.480  12.278
82842SOL    HW150359  11.274  10.431  12.271
82842SOL    HW250360  11.130  10.417  12.315
82843SOL     OW50361   6.496  14.669  10.235
82843SOL    HW150362   6.499  14.695  10.143
82843SOL    HW250363   6.580  14.625  10.251
82844SOL     OW50364   7.453   6.494  14.791
82844SOL    HW150365   7.526   6.509  14.852
82844SOL    HW250366   7.379   6.473  14.848
82845SOL     OW50367   7.882   1.036  12.001
82845SOL    HW150368   7.929   1.009  11.922
82845SOL    HW250369   7.790   1.020  11.980
82846SOL     OW50370  10.707  13.846   2.952
82846SOL    HW150371  10.641  13.837   3.021
82846SOL    HW250372  10.695  13.769   2.897
82847SOL     OW50373   9.404   0.988  11.517
82847SOL    HW150374   9.418   1.051  11.446
82847SOL    HW250375   9.484   0.992  11.569
82848SOL     OW50376   6.574  12.107  13.338
82848SOL    HW150377   6.645  12.072  13.283
82848SOL    HW250378   6.499  12.112  13.278
82849SOL     OW50379  13.595   6.089  11.388
82849SOL    HW150380  13.672   6.089  11.332
82849SOL    HW250381  13.588   5.999  11.419
82850SOL     OW50382  13.663   2.131   1.274
82850SOL    HW150383  13.624   2.054   1.233
82850SOL    HW250384  13.652   2.117   1.368
82851SOL     OW50385   5.943  11.199   4.450
82851SOL    HW150386   6.010  11.233   4.391
82851SOL    HW250387   5.991  11.152   4.518
82852SOL     OW50388   4.399   5.757   4.338
82852SOL    HW150389   4.467   5.736   4.402
82852SOL    HW250390   4.327   5.699   4.360
82853SOL     OW50391   7.171   3.049  13.810
82853SOL    HW150392   7.158   3.005  13.894
82853SOL    HW250393   7.102   3.015  13.753
82854SOL     OW50394   5.418   4.836   6.135
82854SOL    HW150395   5.340   4.879   6.099
82854SOL    HW250396   5.465   4.803   6.058
82855SOL     OW50397  12.429   5.311  14.287
82855SOL    HW150398  12.390   5.369  14.352
82855SOL    HW250399  12.366   5.240  14.276
82856SOL     OW50400  10.834   5.789   6.524
82856SOL    HW150401  10.822   5.754   6.435
82856SOL    HW250402  10.876   5.718   6.572
82857SOL     OW50403  11.827  10.964   7.602
82857SOL    HW150404  11.735  10.988   7.608
82857SOL    HW250405  11.861  11.015   7.530
82858SOL     OW50406   2.723   6.325  12.234
82858SOL    HW150407   2.730   6.237  12.197
82858SOL    HW250408   2.666   6.371  12.173
82859SOL     OW50409   9.539   0.959   9.926
82859SOL    HW150410   9.540   0.865   9.909
82859SOL    HW250411   9.477   0.970   9.998
82860SOL     OW50412   6.744   8.924  11.075
82860SOL    HW150413   6.734   8.923  11.170
82860SOL    HW250414   6.806   8.853  11.057
82861SOL     OW50415  11.297  13.474   5.656
82861SOL    HW150416  11.251  13.418   5.718
82861SOL    HW250417  11.255  13.560   5.664
82862SOL     OW50418   5.703   8.601   8.330
82862SOL    HW150419   5.643   8.527   8.342
82862SOL    HW250420   5.703   8.616   8.235
82863SOL     OW50421   8.470   7.605   6.398
82863SOL    HW150422   8.482   7.694   6.431
82863SOL    HW250423   8.446   7.553   6.476
82864SOL     OW50424   8.289   1.114   8.132
82864SOL    HW150425   8.377   1.137   8.161
82864SOL    HW250426   8.298   1.027   8.093
82865SOL     OW50427   7.910   3.917   1.885
82865SOL    HW150428   7.890   3.899   1.793
82865SOL    HW250429   7.970   3.992   1.883
82866SOL     OW50430  13.365   8.391  11.780
82866SOL    HW150431  13.423   8.446  11.726
82866SOL    HW250432  13.383   8.419  11.870
82867SOL     OW50433   5.800   6.607   6.645
82867SOL    HW150434   5.883   6.653   6.628
82867SOL    HW250435   5.746   6.627   6.569
82868SOL     OW50436   4.898  10.718  12.391
82868SOL    HW150437   4.893  10.627  12.421
82868SOL    HW250438   4.984  10.725  12.350
82869SOL     OW50439   5.829   7.828  12.209
82869SOL    HW150440   5.813   7.737  12.184
82869SOL    HW250441   5.867   7.869  12.132
82870SOL     OW50442   2.476   1.231   2.747
82870SOL    HW150443   2.413   1.214   2.676
82870SOL    HW250444   2.441   1.182   2.822
82871SOL     OW50445   5.639   5.669   4.823
82871SOL    HW150446   5.570   5.734   4.838
82871SOL    HW250447   5.720   5.717   4.841
82872SOL     OW50448  11.562   6.307   4.094
82872SOL    HW150449  11.591   6.216   4.085
82872SOL    HW250450  11.643   6.358   4.094
82873SOL     OW50451   8.810  10.512   6.685
82873SOL    HW150452   8.764  10.498   6.768
82873SOL    HW250453   8.861  10.432   6.673
82874SOL     OW50454   9.933   3.323   3.128
82874SOL    HW150455  10.001   3.265   3.160
82874SOL    HW250456   9.968   3.357   3.045
82875SOL     OW50457  12.591   5.160  10.458
82875SOL    HW150458  12.675   5.135  10.496
82875SOL    HW250459  12.552   5.218  10.524
82876SOL     OW50460  12.212  10.186  14.641
82876SOL    HW150461  12.125  10.198  14.603
82876SOL    HW250462  12.198  10.189  14.735
82877SOL     OW50463   3.609   3.101   1.989
82877SOL    HW150464   3.696   3.059   1.992
82877SOL    HW250465   3.577   3.082   1.901
82878SOL     OW50466  10.806   1.689   1.507
82878SOL    HW150467  10.877   1.636   1.543
82878SOL    HW250468  10.807   1.670   1.413
82879SOL     OW50469  12.238   5.578   5.604
82879SOL    HW150470  12.190   5.499   5.630
82879SOL    HW250471  12.172   5.648   5.606
82880SOL     OW50472   7.036   9.907   5.542
82880SOL    HW150473   7.067   9.952   5.620
82880SOL    HW250474   7.023   9.977   5.478
82881SOL     OW50475  13.561  11.474  13.137
82881SOL    HW150476  13.477  11.431  13.123
82881SOL    HW250477  13.625  11.403  13.136
82882SOL     OW50478   3.155  12.160   2.149
82882SOL    HW150479   3.155  12.215   2.070
82882SOL    HW250480   3.150  12.223   2.221
82883SOL     OW50481  12.538  14.493  13.768
82883SOL    HW150482  12.589  14.428  13.718
82883SOL    HW250483  12.605  14.546  13.812
82884SOL     OW50484  11.904   9.335   4.718
82884SOL    HW150485  11.862   9.421   4.726
82884SOL    HW250486  11.835   9.272   4.741
82885SOL     OW50487   1.567   9.932   6.289
82885SOL    HW150488   1.477   9.952   6.262
82885SOL    HW250489   1.557   9.896   6.378
82886SOL     OW50490  14.831  14.460  14.681
82886SOL    HW150491   0.033  14.495  14.720
82886SOL    HW250492  14.769  14.533  14.685
82887SOL     OW50493  10.181   6.724   5.824
82887SOL    HW150494  10.173   6.629   5.832
82887SOL    HW250495  10.218   6.752   5.908
82888SOL     OW50496   7.447   7.397   2.988
82888SOL    HW150497   7.477   7.345   2.913
82888SOL    HW250498   7.407   7.475   2.950
82889SOL     OW50499  10.541  13.368   1.682
82889SOL    HW150500  10.546  13.278   1.651
82889SOL    HW250501  10.533  13.361   1.778
82890SOL     OW50502  13.934   5.679  13.166
82890SOL    HW150503  13.855   5.630  13.145
82890SOL    HW250504  14.007   5.621  13.142
82891SOL     OW50505   5.242   4.332   6.685
82891SOL    HW150506   5.236   4.404   6.748
82891SOL    HW250507   5.304   4.363   6.619
82892SOL     OW50508  13.256   3.113   1.952
82892SOL    HW150509  13.179   3.167   1.970
82892SOL    HW250510  13.228   3.054   1.882
82893SOL     OW50511  14.719   3.754  13.316
82893SOL    HW150512  14.626   3.757  13.339
82893SOL    HW250513  14.728   3.673  13.266
82894SOL     OW50514   4.467   7.980   5.351
82894SOL    HW150515   4.557   7.985   5.383
82894SOL    HW250516   4.475   7.934   5.267
82895SOL     OW50517   4.951   8.541  11.780
82895SOL    HW150518   4.990   8.602  11.718
82895SOL    HW250519   4.986   8.567  11.865
82896SOL     OW50520   2.502   8.674  12.190
82896SOL    HW150521   2.431   8.613  12.170
82896SOL    HW250522   2.484   8.749  12.134
82897SOL     OW50523   6.968  10.897   2.950
82897SOL    HW150524   6.924  10.948   3.018
82897SOL    HW250525   6.913  10.821   2.936
82898SOL     OW50526  14.111  12.522  13.874
82898SOL    HW150527  14.033  12.506  13.926
82898SOL    HW250528  14.105  12.461  13.801
82899SOL     OW50529   4.101   8.852   8.197
82899SOL    HW150530   4.145   8.796   8.134
82899SOL    HW250531   4.157   8.850   8.275
82900SOL     OW50532  14.820   3.351   8.502
82900SOL    HW150533  14.835   3.395   8.585
82900SOL    HW250534  14.790   3.421   8.443
82901SOL     OW50535   6.591   0.655  11.818
82901SOL    HW150536   6.640   0.609  11.750
82901SOL    HW250537   6.655   0.713  11.859
82902SOL     OW50538   6.531   1.798  11.399
82902SOL    HW150539   6.533   1.805  11.495
82902SOL    HW250540   6.467   1.728  11.382
82903SOL     OW50541   0.544  10.868   9.882
82903SOL    HW150542   0.521  10.787   9.929
82903SOL    HW250543   0.509  10.855   9.794
82904SOL     OW50544   0.101   3.212   0.639
82904SOL    HW150545   0.090   3.216   0.733
82904SOL    HW250546   0.094   3.302   0.609
82905SOL     OW50547  14.710   3.522  13.825
82905SOL    HW150548  14.803   3.538  13.841
82905SOL    HW250549  14.680   3.478  13.905
82906SOL     OW50550   1.742   2.508   5.933
82906SOL    HW150551   1.647   2.506   5.925
82906SOL    HW250552   1.759   2.564   6.009
82907SOL     OW50553  12.175  11.215   4.642
82907SOL    HW150554  12.241  11.223   4.711
82907SOL    HW250555  12.199  11.283   4.579
82908SOL     OW50556   2.465  12.601   8.854
82908SOL    HW150557   2.457  12.589   8.948
82908SOL    HW250558   2.560  12.611   8.839
82909SOL     OW50559   6.774  11.248   1.814
82909SOL    HW150560   6.749  11.320   1.757
82909SOL    HW250561   6.861  11.272   1.846
82910SOL     OW50562   7.001   0.797  11.629
82910SOL    HW150563   7.096   0.804  11.630
82910SOL    HW250564   6.980   0.739  11.702
82911SOL     OW50565   4.875   7.823  14.218
82911SOL    HW150566   4.810   7.893  14.219
82911SOL    HW250567   4.890   7.806  14.125
82912SOL     OW50568   7.055   0.393   3.133
82912SOL    HW150569   7.089   0.412   3.045
82912SOL    HW250570   7.117   0.434   3.192
82913SOL     OW50571  10.107   5.237   0.051
82913SOL    HW150572  10.068   5.151   0.039
82913SOL    HW250573  10.102   5.278  14.843
82914SOL     OW50574   3.147  13.012  12.665
82914SOL    HW150575   3.236  13.027  12.633
82914SOL    HW250576   3.095  12.997  12.586
82915SOL     OW50577   6.811   4.992   5.942
82915SOL    HW150578   6.824   5.008   6.036
82915SOL    HW250579   6.756   5.064   5.913
82916SOL     OW50580   0.460   0.425  11.184
82916SOL    HW150581   0.400   0.437  11.258
82916SOL    HW250582   0.432   0.343  11.144
82917SOL     OW50583   2.148  11.340   6.509
82917SOL    HW150584   2.136  11.310   6.420
82917SOL    HW250585   2.064  11.380   6.533
82918SOL     OW50586   8.027   3.536   1.762
82918SOL    HW150587   8.020   3.596   1.835
82918SOL    HW250588   8.078   3.583   1.696
82919SOL     OW50589   1.053   8.479   6.728
82919SOL    HW150590   0.981   8.416   6.736
82919SOL    HW250591   1.077   8.476   6.636
82920SOL     OW50592  10.504   1.001   9.185
82920SOL    HW150593  10.573   1.017   9.250
82920SOL    HW250594  10.502   0.905   9.175
82921SOL     OW50595  11.907  10.696   4.472
82921SOL    HW150596  11.997  10.720   4.494
82921SOL    HW250597  11.854  10.739   4.539
82922SOL     OW50598   8.418   1.647   3.992
82922SOL    HW150599   8.342   1.599   3.960
82922SOL    HW250600   8.383   1.732   4.019
82923SOL     OW50601   8.866  12.816   0.151
82923SOL    HW150602   8.849  12.910   0.156
82923SOL    HW250603   8.900  12.793   0.238
82924SOL     OW50604   6.950  10.714  13.858
82924SOL    HW150605   6.925  10.783  13.919
82924SOL    HW250606   6.944  10.634  13.909
82925SOL     OW50607  10.453   0.380   8.165
82925SOL    HW150608  10.542   0.346   8.174
82925SOL    HW250609  10.427   0.355   8.077
82926SOL     OW50610   9.102  11.541   6.291
82926SOL    HW150611   9.038  11.489   6.340
82926SOL    HW250612   9.060  11.557   6.206
82927SOL     OW50613  11.936   8.327   8.720
82927SOL    HW150614  11.924   8.279   8.801
82927SOL    HW250615  11.977   8.409   8.746
82928SOL     OW50616   3.948   5.550   6.634
82928SOL    HW150617   3.985   5.553   6.546
82928SOL    HW250618   3.865   5.596   6.627
82929SOL     OW50619   1.282   5.591   6.903
82929SOL    HW150620   1.374   5.570   6.884
82929SOL    HW250621   1.287   5.670   6.956
82930SOL     OW50622   9.555   6.569   7.319
82930SOL    HW150623   9.564   6.663   7.331
82930SOL    HW250624   9.634   6.543   7.272
82931SOL     OW50625   5.772   8.775   0.975
82931SOL    HW150626   5.744   8.711   0.909
82931SOL    HW250627   5.692   8.794   1.025
82932SOL     OW50628   8.016  10.633   9.507
82932SOL    HW150629   7.969  10.715   9.491
82932SOL    HW250630   7.955  10.580   9.558
82933SOL     OW50631   2.871   0.101   8.711
82933SOL    HW150632   2.927   0.041   8.761
82933SOL    HW250633   2.908   0.101   8.623
82934SOL     OW50634   7.545   1.429   8.519
82934SOL    HW150635   7.523   1.482   8.596
82934SOL    HW250636   7.620   1.474   8.480
82935SOL     OW50637   7.900   3.714   7.119
82935SOL    HW150638   7.902   3.638   7.177
82935SOL    HW250639   7.821   3.702   7.067
82936SOL     OW50640   3.788  12.253   4.337
82936SOL    HW150641   3.836  12.286   4.413
82936SOL    HW250642   3.816  12.310   4.265
82937SOL     OW50643  13.941  11.175   0.124
82937SOL    HW150644  14.028  11.209   0.104
82937SOL    HW250645  13.906  11.147   0.040
82938SOL     OW50646   9.261  14.341   3.683
82938SOL    HW150647   9.266  14.433   3.709
82938SOL    HW250648   9.348  14.322   3.646
82939SOL     OW50649   2.406   8.792   1.077
82939SOL    HW150650   2.413   8.758   1.166
82939SOL    HW250651   2.405   8.887   1.088
82940SOL     OW50652   7.773   0.102   8.027
82940SOL    HW150653   7.823   0.184   8.022
82940SOL    HW250654   7.681   0.130   8.022
82941SOL     OW50655  12.788   6.765   9.392
82941SOL    HW150656  12.711   6.725   9.349
82941SOL    HW250657  12.787   6.856   9.362
82942SOL     OW50658   0.792   9.675  12.373
82942SOL    HW150659   0.712   9.721  12.398
82942SOL    HW250660   0.762   9.586  12.350
82943SOL     OW50661   8.281   5.265   9.132
82943SOL    HW150662   8.356   5.218   9.168
82943SOL    HW250663   8.307   5.357   9.133
82944SOL     OW50664   3.184   3.024   1.218
82944SOL    HW150665   3.234   2.943   1.228
82944SOL    HW250666   3.250   3.093   1.220
82945SOL     OW50667  12.169  12.132   2.998
82945SOL    HW150668  12.168  12.218   3.041
82945SOL    HW250669  12.081  12.122   2.962
82946SOL     OW50670   6.800  12.584   9.549
82946SOL    HW150671   6.760  12.666   9.578
82946SOL    HW250672   6.785  12.582   9.454
82947SOL     OW50673   0.706   3.908   8.033
82947SOL    HW150674   0.673   3.991   8.064
82947SOL    HW250675   0.630   3.851   8.029
82948SOL     OW50676   5.349   6.611  11.425
82948SOL    HW150677   5.397   6.537  11.463
82948SOL    HW250678   5.369   6.684  11.484
82949SOL     OW50679  14.783   9.750   1.417
82949SOL    HW150680  14.833   9.811   1.363
82949SOL    HW250681  14.837   9.735   1.494
82950SOL     OW50682   9.417   6.738   7.770
82950SOL    HW150683   9.340   6.727   7.825
82950SOL    HW250684   9.429   6.652   7.729
82951SOL     OW50685   2.666  14.778   8.620
82951SOL    HW150686   2.647  14.767   8.527
82951SOL    HW250687   2.744  14.833   8.622
82952SOL     OW50688   5.706   7.015   1.206
82952SOL    HW150689   5.740   6.934   1.169
82952SOL    HW250690   5.702   7.076   1.132
82953SOL     OW50691  10.657  14.366   0.826
82953SOL    HW150692  10.745  14.377   0.864
82953SOL    HW250693  10.640  14.272   0.834
82954SOL     OW50694   1.888   3.422   4.315
82954SOL    HW150695   1.807   3.426   4.264
82954SOL    HW250696   1.954   3.395   4.251
82955SOL     OW50697  10.952   4.117   7.937
82955SOL    HW150698  11.006   4.090   7.862
82955SOL    HW250699  10.961   4.212   7.939
82956SOL     OW50700   3.929  14.721  12.618
82956SOL    HW150701   4.020  14.736  12.594
82956SOL    HW250702   3.933  14.673  12.700
82957SOL     OW50703   3.193   9.308   1.854
82957SOL    HW150704   3.250   9.361   1.909
82957SOL    HW250705   3.141   9.256   1.915
82958SOL     OW50706  14.287   1.186   7.108
82958SOL    HW150707  14.323   1.215   7.024
82958SOL    HW250708  14.193   1.201   7.100
82959SOL     OW50709  12.796   8.422  10.836
82959SOL    HW150710  12.838   8.440  10.752
82959SOL    HW250711  12.765   8.507  10.867
82960SOL     OW50712   8.963  11.670   3.830
82960SOL    HW150713   8.949  11.599   3.768
82960SOL    HW250714   8.897  11.655   3.899
82961SOL     OW50715   8.332   6.436   6.199
82961SOL    HW150716   8.381   6.362   6.163
82961SOL    HW250717   8.386   6.466   6.272
82962SOL     OW50718   8.071   1.462   4.972
82962SOL    HW150719   8.089   1.466   4.878
82962SOL    HW250720   8.140   1.515   5.012
82963SOL     OW50721   7.431   2.372   5.675
82963SOL    HW150722   7.465   2.460   5.691
82963SOL    HW250723   7.426   2.332   5.762
82964SOL     OW50724  11.715   7.550   5.791
82964SOL    HW150725  11.733   7.541   5.697
82964SOL    HW250726  11.796   7.586   5.827
82965SOL     OW50727  13.040   5.045   5.768
82965SOL    HW150728  13.057   4.967   5.715
82965SOL    HW250729  13.060   5.018   5.857
82966SOL     OW50730   7.311   4.977   5.642
82966SOL    HW150731   7.245   5.046   5.656
82966SOL    HW250732   7.340   4.953   5.729
82967SOL     OW50733   3.446  11.793   1.803
82967SOL    HW150734   3.517  11.729   1.799
82967SOL    HW250735   3.382  11.754   1.862
82968SOL     OW50736   6.029   0.797   2.313
82968SOL    HW150737   6.044   0.710   2.349
82968SOL    HW250738   6.110   0.845   2.329
82969SOL     OW50739  12.608   5.179  11.791
82969SOL    HW150740  12.621   5.194  11.698
82969SOL    HW250741  12.545   5.107  11.795
82970SOL     OW50742   1.826  13.697   8.852
82970SOL    HW150743   1.814  13.792   8.857
82970SOL    HW250744   1.738  13.661   8.842
82971SOL     OW50745   8.470   0.145   2.206
82971SOL    HW150746   8.470   0.063   2.255
82971SOL    HW250747   8.454   0.118   2.115
82972SOL     OW50748   9.855   6.931   9.129
82972SOL    HW150749   9.828   6.952   9.040
82972SOL    HW250750   9.782   6.961   9.184
82973SOL     OW50751  10.074  14.037   6.853
82973SOL    HW150752  10.120  13.960   6.817
82973SOL    HW250753  10.089  14.032   6.947
82974SOL     OW50754   9.232   6.567   9.712
82974SOL    HW150755   9.166   6.628   9.678
82974SOL    HW250756   9.316   6.608   9.690
82975SOL     OW50757  11.652   3.993   6.052
82975SOL    HW150758  11.682   3.969   5.964
82975SOL    HW250759  11.647   3.910   6.099
82976SOL     OW50760  11.646   2.160  12.801
82976SOL    HW150761  11.683   2.079  12.836
82976SOL    HW250762  11.642   2.220  12.876
82977SOL     OW50763  13.892   9.424  14.187
82977SOL    HW150764  13.901   9.503  14.239
82977SOL    HW250765  13.901   9.352  14.250
82978SOL     OW50766  11.906   1.055   0.906
82978SOL    HW150767  11.906   0.968   0.866
82978SOL    HW250768  11.821   1.092   0.880
82979SOL     OW50769   2.917  10.535   0.433
82979SOL    HW150770   2.871  10.602   0.383
82979SOL    HW250771   2.876  10.452   0.406
82980SOL     OW50772   0.081   8.340  14.718
82980SOL    HW150773   0.060   8.350  14.811
82980SOL    HW250774   0.004   8.376  14.672
82981SOL     OW50775   1.347   7.876   9.054
82981SOL    HW150776   1.371   7.818   8.982
82981SOL    HW250777   1.316   7.956   9.012
82982SOL     OW50778  13.805  11.954   4.571
82982SOL    HW150779  13.815  11.859   4.563
82982SOL    HW250780  13.715  11.971   4.542
82983SOL     OW50781   0.403  12.265  14.428
82983SOL    HW150782   0.408  12.327  14.355
82983SOL    HW250783   0.478  12.207  14.416
82984SOL     OW50784   9.866  14.847   2.157
82984SOL    HW150785   9.899   0.016   2.082
82984SOL    HW250786   9.821  14.771   2.119
82985SOL     OW50787  10.066   9.398  11.889
82985SOL    HW150788  10.067   9.461  11.817
82985SOL    HW250789   9.976   9.366  11.891
82986SOL     OW50790   6.564   2.904   9.678
82986SOL    HW150791   6.485   2.886   9.729
82986SOL    HW250792   6.629   2.930   9.743
82987SOL     OW50793   1.294   7.369   9.256
82987SOL    HW150794   1.232   7.368   9.183
82987SOL    HW250795   1.262   7.301   9.316
82988SOL     OW50796  12.485   7.600   5.117
82988SOL    HW150797  12.517   7.620   5.029
82988SOL    HW250798  12.424   7.671   5.137
82989SOL     OW50799   9.719   4.472   4.350
82989SOL    HW150800   9.748   4.453   4.439
82989SOL    HW250801   9.625   4.453   4.350
82990SOL     OW50802   9.315  11.707  14.821
82990SOL    HW150803   9.339  11.743  14.736
82990SOL    HW250804   9.222  11.726  14.830
82991SOL     OW50805   3.104   4.661   8.700
82991SOL    HW150806   3.166   4.613   8.754
82991SOL    HW250807   3.040   4.595   8.673
82992SOL     OW50808   1.288   9.209   2.803
82992SOL    HW150809   1.345   9.277   2.768
82992SOL    HW250810   1.207   9.218   2.751
82993SOL     OW50811  11.857  14.151   3.448
82993SOL    HW150812  11.870  14.062   3.416
82993SOL    HW250813  11.936  14.198   3.420
82994SOL     OW50814   8.683   3.306   6.024
82994SOL    HW150815   8.766   3.270   5.993
82994SOL    HW250816   8.691   3.400   6.010
82995SOL     OW50817  14.538   3.438  10.236
82995SOL    HW150818  14.547   3.522  10.282
82995SOL    HW250819  14.619   3.429  10.187
82996SOL     OW50820  11.187  11.680  10.363
82996SOL    HW150821  11.263  11.692  10.306
82996SOL    HW250822  11.162  11.588  10.351
82997SOL     OW50823   1.940   9.424   0.527
82997SOL    HW150824   1.990   9.343   0.536
82997SOL    HW250825   1.850   9.395   0.511
82998SOL     OW50826   4.108   4.090   1.357
82998SOL    HW150827   4.049   4.024   1.320
82998SOL    HW250828   4.170   4.109   1.287
82999SOL     OW50829   4.202   3.895   5.052
82999SOL    HW150830   4.285   3.856   5.082
82999SOL    HW250831   4.199   3.876   4.958
83000SOL     OW50832   2.244  11.180  12.313
83000SOL    HW150833   2.254  11.231  12.393
83000SOL    HW250834   2.202  11.098  12.342
83001SOL     OW50835   9.635  11.852   6.864
83001SOL    HW150836   9.587  11.783   6.817
83001SOL    HW250837   9.705  11.806   6.910
83002SOL     OW50838   9.919   9.988   0.664
83002SOL    HW150839   9.974   9.945   0.731
83002SOL    HW250840   9.833   9.994   0.705
83003SOL     OW50841   1.346   6.404   5.775
83003SOL    HW150842   1.424   6.366   5.815
83003SOL    HW250843   1.361   6.499   5.776
83004SOL     OW50844  14.423   6.469  13.527
83004SOL    HW150845  14.471   6.398  13.569
83004SOL    HW250846  14.425   6.448  13.434
83005SOL     OW50847   0.462  13.488  14.840
83005SOL    HW150848   0.445  13.464  14.748
83005SOL    HW250849   0.383  13.534  14.868
83006SOL     OW50850  13.583   6.667  13.034
83006SOL    HW150851  13.676   6.659  13.055
83006SOL    HW250852  13.581   6.690  12.941
83007SOL     OW50853   7.086  11.567   6.575
83007SOL    HW150854   7.153  11.499   6.581
83007SOL    HW250855   7.033  11.555   6.653
83008SOL     OW50856   2.210   6.025   7.054
83008SOL    HW150857   2.298   6.000   7.025
83008SOL    HW250858   2.214   6.017   7.150
83009SOL     OW50859   6.288   0.217   5.066
83009SOL    HW150860   6.209   0.261   5.033
83009SOL    HW250861   6.261   0.174   5.146
83010SOL     OW50862  13.975  14.075   1.608
83010SOL    HW150863  14.059  14.077   1.563
83010SOL    HW250864  13.962  14.165   1.639
83011SOL     OW50865  13.098  10.207   6.653
83011SOL    HW150866  13.013  10.168   6.669
83011SOL    HW250867  13.080  10.299   6.637
83012SOL     OW50868   0.210  13.465   1.622
83012SOL    HW150869   0.220  13.428   1.710
83012SOL    HW250870   0.262  13.545   1.623
83013SOL     OW50871   3.245   4.891   3.872
83013SOL    HW150872   3.183   4.820   3.889
83013SOL    HW250873   3.209   4.966   3.919
83014SOL     OW50874  12.232   1.120   9.287
83014SOL    HW150875  12.248   1.057   9.357
83014SOL    HW250876  12.318   1.161   9.273
83015SOL     OW50877   9.518   6.882   5.528
83015SOL    HW150878   9.569   6.832   5.591
83015SOL    HW250879   9.433   6.837   5.524
83016SOL     OW50880   9.182  13.583  13.734
83016SOL    HW150881   9.128  13.529  13.676
83016SOL    HW250882   9.264  13.534  13.743
83017SOL     OW50883   3.911   0.397   3.628
83017SOL    HW150884   3.925   0.310   3.592
83017SOL    HW250885   3.819   0.417   3.608
83018SOL     OW50886   1.898   4.587   0.845
83018SOL    HW150887   1.896   4.491   0.836
83018SOL    HW250888   1.880   4.602   0.938
83019SOL     OW50889   3.685   3.753  10.964
83019SOL    HW150890   3.607   3.778  11.014
83019SOL    HW250891   3.728   3.686  11.017
83020SOL     OW50892   0.911   5.476   7.479
83020SOL    HW150893   0.938   5.395   7.521
83020SOL    HW250894   0.820   5.488   7.506
83021SOL     OW50895   3.268   9.940  14.555
83021SOL    HW150896   3.306  10.026  14.537
83021SOL    HW250897   3.182   9.943  14.513
83022SOL     OW50898  10.555  13.451   3.798
83022SOL    HW150899  10.635  13.443   3.850
83022SOL    HW250900  10.516  13.364   3.799
83023SOL     OW50901   6.125  10.492   5.593
83023SOL    HW150902   6.211  10.517   5.559
83023SOL    HW250903   6.133  10.398   5.612
83024SOL     OW50904  13.799   0.687  10.635
83024SOL    HW150905  13.741   0.723  10.702
83024SOL    HW250906  13.884   0.678  10.680
83025SOL     OW50907   2.763  13.798   1.725
83025SOL    HW150908   2.723  13.883   1.744
83025SOL    HW250909   2.701  13.755   1.667
83026SOL     OW50910   6.897  10.342   9.410
83026SOL    HW150911   6.882  10.248   9.399
83026SOL    HW250912   6.835  10.383   9.350
83027SOL     OW50913   7.070   9.899  12.420
83027SOL    HW150914   7.117   9.982  12.409
83027SOL    HW250915   7.138   9.835  12.437
83028SOL     OW50916   0.808   9.110   0.160
83028SOL    HW150917   0.724   9.077   0.194
83028SOL    HW250918   0.784   9.160   0.082
83029SOL     OW50919   1.015  11.382  14.474
83029SOL    HW150920   0.938  11.399  14.420
83029SOL    HW250921   1.048  11.469  14.496
83030SOL     OW50922  13.909   7.068   1.071
83030SOL    HW150923  13.818   7.063   1.100
83030SOL    HW250924  13.911   7.142   1.010
83031SOL     OW50925   8.216   2.002  10.696
83031SOL    HW150926   8.206   2.091  10.730
83031SOL    HW250927   8.135   1.986  10.648
83032SOL     OW50928   4.546   8.134   3.212
83032SOL    HW150929   4.628   8.110   3.168
83032SOL    HW250930   4.478   8.102   3.152
83033SOL     OW50931   5.756   7.631   6.967
83033SOL    HW150932   5.745   7.553   6.913
83033SOL    HW250933   5.831   7.676   6.929
83034SOL     OW50934   1.141   3.127   3.683
83034SOL    HW150935   1.218   3.183   3.672
83034SOL    HW250936   1.076   3.185   3.722
83035SOL     OW50937  12.072   7.094   1.855
83035SOL    HW150938  12.061   7.034   1.929
83035SOL    HW250939  12.149   7.145   1.878
83036SOL     OW50940   5.073   9.488  10.222
83036SOL    HW150941   5.104   9.551  10.157
83036SOL    HW250942   4.988   9.460  10.188
83037SOL     OW50943   2.216  11.498   4.863
83037SOL    HW150944   2.185  11.534   4.781
83037SOL    HW250945   2.140  11.499   4.921
83038SOL     OW50946   2.366   5.404   8.936
83038SOL    HW150947   2.445   5.364   8.975
83038SOL    HW250948   2.346   5.348   8.861
83039SOL     OW50949   8.720  11.497   4.461
83039SOL    HW150950   8.807  11.494   4.501
83039SOL    HW250951   8.728  11.442   4.383
83040SOL     OW50952   4.715   7.951   4.007
83040SOL    HW150953   4.620   7.963   4.005
83040SOL    HW250954   4.748   8.025   4.058
83041SOL     OW50955   5.904  11.224   3.743
83041SOL    HW150956   5.934  11.312   3.719
83041SOL    HW250957   5.819  11.216   3.699
83042SOL     OW50958   4.739  10.425   8.949
83042SOL    HW150959   4.700  10.507   8.918
83042SOL    HW250960   4.778  10.449   9.033
83043SOL     OW50961   2.317   2.704  10.919
83043SOL    HW150962   2.299   2.611  10.935
83043SOL    HW250963   2.328   2.710  10.824
83044SOL     OW50964   1.802   3.604  13.253
83044SOL    HW150965   1.787   3.548  13.177
83044SOL    HW250966   1.898   3.608  13.261
83045SOL     OW50967   4.506   6.317  11.583
83045SOL    HW150968   4.455   6.317  11.664
83045SOL    HW250969   4.585   6.367  11.603
83046SOL     OW50970   8.289  11.439   8.827
83046SOL    HW150971   8.246  11.524   8.837
83046SOL    HW250972   8.365  11.458   8.771
83047SOL     OW50973  14.535  11.023  13.022
83047SOL    HW150974  14.547  11.116  13.041
83047SOL    HW250975  14.489  10.989  13.099
83048SOL     OW50976   5.745   2.575   2.207
83048SOL    HW150977   5.823   2.522   2.219
83048SOL    HW250978   5.777   2.665   2.207
83049SOL     OW50979  10.778   4.420   7.282
83049SOL    HW150980  10.816   4.464   7.357
83049SOL    HW250981  10.747   4.336   7.316
83050SOL     OW50982  13.518   3.422   2.224
83050SOL    HW150983  13.451   3.471   2.176
83050SOL    HW250984  13.530   3.342   2.174
83051SOL     OW50985   5.251   7.108  14.265
83051SOL    HW150986   5.179   7.169  14.279
83051SOL    HW250987   5.288   7.134  14.181
83052SOL     OW50988   2.957   0.209  13.890
83052SOL    HW150989   2.995   0.254  13.814
83052SOL    HW250990   2.865   0.199  13.867
83053SOL     OW50991  13.417   0.062  11.145
83053SOL    HW150992  13.467   0.143  11.157
83053SOL    HW250993  13.337   0.075  11.196
83054SOL     OW50994   9.198   4.943   7.455
83054SOL    HW150995   9.273   4.951   7.397
83054SOL    HW250996   9.168   5.032   7.469
83055SOL     OW50997   8.130   3.908  14.261
83055SOL    HW150998   8.047   3.873  14.294
83055SOL    HW250999   8.168   3.836  14.210
83056SOL     OW51000  12.142   0.542   0.689
83056SOL    HW151001  12.121   0.491   0.611
83056SOL    HW251002  12.147   0.477   0.760
83057SOL     OW51003   4.019   6.446   9.779
83057SOL    HW151004   4.003   6.366   9.728
83057SOL    HW251005   4.085   6.420   9.843
83058SOL     OW51006   0.545  14.629   4.072
83058SOL    HW151007   0.495  14.710   4.086
83058SOL    HW251008   0.611  14.629   4.140
83059SOL     OW51009   4.939   0.746  12.956
83059SOL    HW151010   4.927   0.658  12.921
83059SOL    HW251011   5.014   0.738  13.015
83060SOL     OW51012   1.565   9.132   0.314
83060SOL    HW151013   1.610   9.104   0.234
83060SOL    HW251014   1.593   9.223   0.327
83061SOL     OW51015   9.241   6.568   7.369
83061SOL    HW151016   9.284   6.653   7.382
83061SOL    HW251017   9.233   6.559   7.274
83062SOL     OW51018   1.693   4.090   2.188
83062SOL    HW151019   1.633   4.121   2.256
83062SOL    HW251020   1.646   4.017   2.147
83063SOL     OW51021  12.777   2.528   1.701
83063SOL    HW151022  12.830   2.459   1.741
83063SOL    HW251023  12.726   2.482   1.634
83064SOL     OW51024  11.498   5.929  10.277
83064SOL    HW151025  11.490   5.974  10.193
83064SOL    HW251026  11.409   5.924  10.311
83065SOL     OW51027  11.590  12.439   3.171
83065SOL    HW151028  11.615  12.469   3.084
83065SOL    HW251029  11.494  12.439   3.170
83066SOL     OW51030   8.071  10.734   4.362
83066SOL    HW151031   8.120  10.802   4.409
83066SOL    HW251032   8.118  10.723   4.279
83067SOL     OW51033  10.614  13.254   3.162
83067SOL    HW151034  10.613  13.164   3.193
83067SOL    HW251035  10.665  13.251   3.081
83068SOL     OW51036   1.934   6.261   4.453
83068SOL    HW151037   1.959   6.173   4.479
83068SOL    HW251038   2.009   6.315   4.474
83069SOL     OW51039   2.054  11.224   5.847
83069SOL    HW151040   2.060  11.277   5.767
83069SOL    HW251041   2.144  11.217   5.878
83070SOL     OW51042  12.872  11.494   7.550
83070SOL    HW151043  12.856  11.401   7.563
83070SOL    HW251044  12.860  11.534   7.637
83071SOL     OW51045  12.450   1.367  10.999
83071SOL    HW151046  12.454   1.340  11.091
83071SOL    HW251047  12.412   1.455  11.001
83072SOL     OW51048   8.202   3.843   4.973
83072SOL    HW151049   8.113   3.872   4.953
83072SOL    HW251050   8.252   3.924   4.982
83073SOL     OW51051   0.410   2.814   0.879
83073SOL    HW151052   0.374   2.889   0.831
83073SOL    HW251053   0.340   2.748   0.876
83074SOL     OW51054   6.545   6.756   3.640
83074SOL    HW151055   6.598   6.707   3.703
83074SOL    HW251056   6.460   6.712   3.639
83075SOL     OW51057   1.245  14.763   3.739
83075SOL    HW151058   1.304  14.772   3.814
83075SOL    HW251059   1.179  14.831   3.753
83076SOL     OW51060  11.209  12.274  13.156
83076SOL    HW151061  11.164  12.348  13.195
83076SOL    HW251062  11.168  12.263  13.070
83077SOL     OW51063  10.137   2.865  12.979
83077SOL    HW151064  10.156   2.804  13.050
83077SOL    HW251065  10.042   2.877  12.982
83078SOL     OW51066   4.453   6.436   8.748
83078SOL    HW151067   4.398   6.486   8.809
83078SOL    HW251068   4.393   6.374   8.706
83079SOL     OW51069  14.120   2.771   8.709
83079SOL    HW151070  14.129   2.736   8.620
83079SOL    HW251071  14.150   2.861   8.703
83080SOL     OW51072  14.193   4.851   5.819
83080SOL    HW151073  14.191   4.778   5.882
83080SOL    HW251074  14.247   4.918   5.862
83081SOL     OW51075   5.364  14.557  10.521
83081SOL    HW151076   5.372  14.499  10.445
83081SOL    HW251077   5.388  14.644  10.488
83082SOL     OW51078   6.900   4.638   5.148
83082SOL    HW151079   6.894   4.564   5.208
83082SOL    HW251080   6.993   4.647   5.130
83083SOL     OW51081   9.047  13.972   3.270
83083SOL    HW151082   9.138  14.002   3.275
83083SOL    HW251083   9.052  13.879   3.294
83084SOL     OW51084   9.403   1.312   2.499
83084SOL    HW151085   9.334   1.245   2.492
83084SOL    HW251086   9.453   1.303   2.418
83085SOL     OW51087  11.821   7.065   2.697
83085SOL    HW151088  11.909   7.029   2.710
83085SOL    HW251089  11.798   7.039   2.608
83086SOL     OW51090  14.462  13.011  13.611
83086SOL    HW151091  14.460  12.929  13.661
83086SOL    HW251092  14.462  13.079  13.678
83087SOL     OW51093   3.750   7.158  11.380
83087SOL    HW151094   3.673   7.211  11.363
83087SOL    HW251095   3.809   7.177  11.307
83088SOL     OW51096  13.556   5.823   0.008
83088SOL    HW151097  13.585   5.865  14.806
83088SOL    HW251098  13.461   5.834   0.009
83089SOL     OW51099   7.662  14.222   8.938
83089SOL    HW151100   7.739  14.278   8.950
83089SOL    HW251101   7.612  14.232   9.019
83090SOL     OW51102   0.760   3.614   0.665
83090SOL    HW151103   0.787   3.619   0.757
83090SOL    HW251104   0.665   3.599   0.669
83091SOL     OW51105  12.272  13.985   0.354
83091SOL    HW151106  12.203  13.921   0.338
83091SOL    HW251107  12.298  14.013   0.266
83092SOL     OW51108   5.022   9.165  10.960
83092SOL    HW151109   4.990   9.162  11.051
83092SOL    HW251110   5.057   9.077  10.945
83093SOL     OW51111   5.648   3.821  14.000
83093SOL    HW151112   5.584   3.778  14.057
83093SOL    HW251113   5.733   3.797  14.038
83094SOL     OW51114   4.900   6.782   4.590
83094SOL    HW151115   4.937   6.722   4.526
83094SOL    HW251116   4.821   6.817   4.549
83095SOL     OW51117   8.642   3.397   0.004
83095SOL    HW151118   8.615   3.434   0.088
83095SOL    HW251119   8.654   3.304   0.021
83096SOL     OW51120   9.061   2.653   0.993
83096SOL    HW151121   9.053   2.674   0.900
83096SOL    HW251122   9.058   2.738   1.038
83097SOL     OW51123  11.870   6.579   8.323
83097SOL    HW151124  11.788   6.557   8.280
83097SOL    HW251125  11.846   6.638   8.394
83098SOL     OW51126   6.313  14.173   7.020
83098SOL    HW151127   6.314  14.103   6.954
83098SOL    HW251128   6.395  14.220   7.006
83099SOL     OW51129  10.421  12.586   2.883
83099SOL    HW151130  10.444  12.544   2.966
83099SOL    HW251131  10.479  12.546   2.819
83100SOL     OW51132  12.164   4.411   8.879
83100SOL    HW151133  12.227   4.445   8.943
83100SOL    HW251134  12.097   4.479   8.872
83101SOL     OW51135  12.600   5.788   1.797
83101SOL    HW151136  12.542   5.759   1.726
83101SOL    HW251137  12.610   5.712   1.854
83102SOL     OW51138  11.999  14.369  11.829
83102SOL    HW151139  12.016  14.277  11.810
83102SOL    HW251140  11.972  14.406  11.745
83103SOL     OW51141   6.747   1.400   1.015
83103SOL    HW151142   6.699   1.336   0.962
83103SOL    HW251143   6.832   1.407   0.971
83104SOL     OW51144   5.825  14.494   9.968
83104SOL    HW151145   5.757  14.539  10.020
83104SOL    HW251146   5.842  14.553   9.895
83105SOL     OW51147   7.717   6.835   5.079
83105SOL    HW151148   7.649   6.804   5.140
83105SOL    HW251149   7.681   6.815   4.992
83106SOL     OW51150   9.658  10.936   4.745
83106SOL    HW151151   9.623  10.852   4.716
83106SOL    HW251152   9.694  10.975   4.666
83107SOL     OW51153   5.003  12.887   4.685
83107SOL    HW151154   5.008  12.793   4.699
83107SOL    HW251155   4.937  12.917   4.748
83108SOL     OW51156   4.760   3.386   5.133
83108SOL    HW151157   4.702   3.344   5.069
83108SOL    HW251158   4.700   3.430   5.193
83109SOL     OW51159   6.054   6.841  14.286
83109SOL    HW151160   6.037   6.747  14.296
83109SOL    HW251161   6.038   6.859  14.194
83110SOL     OW51162   9.937  14.113   0.232
83110SOL    HW151163   9.923  14.130   0.326
83110SOL    HW251164   9.852  14.132   0.192
83111SOL     OW51165   5.971   0.602   0.743
83111SOL    HW151166   5.959   0.590   0.649
83111SOL    HW251167   6.000   0.693   0.752
83112SOL     OW51168   6.557   5.111  12.453
83112SOL    HW151169   6.548   5.185  12.392
83112SOL    HW251170   6.482   5.120  12.512
83113SOL     OW51171   7.646   4.818  11.336
83113SOL    HW151172   7.636   4.832  11.242
83113SOL    HW251173   7.605   4.733  11.352
83114SOL     OW51174   7.610  10.449  14.791
83114SOL    HW151175   7.555  10.507  14.844
83114SOL    HW251176   7.670  10.408  14.853
83115SOL     OW51177   6.583   7.332  11.658
83115SOL    HW151178   6.530   7.389  11.715
83115SOL    HW251179   6.552   7.244  11.678
83116SOL     OW51180   9.890   3.203  10.037
83116SOL    HW151181   9.806   3.212   9.992
83116SOL    HW251182   9.911   3.110  10.031
83117SOL     OW51183  13.769   9.410   6.110
83117SOL    HW151184  13.828   9.431   6.182
83117SOL    HW251185  13.756   9.315   6.116
83118SOL     OW51186   2.419  11.293   0.179
83118SOL    HW151187   2.411  11.204   0.214
83118SOL    HW251188   2.418  11.282   0.084
83119SOL     OW51189   8.240   3.127   5.411
83119SOL    HW151190   8.214   3.219   5.404
83119SOL    HW251191   8.273   3.105   5.324
83120SOL     OW51192  10.327  11.477   8.813
83120SOL    HW151193  10.378  11.535   8.869
83120SOL    HW251194  10.290  11.534   8.746
83121SOL     OW51195   5.449  14.762  11.575
83121SOL    HW151196   5.527  14.807  11.608
83121SOL    HW251197   5.482  14.682  11.534
83122SOL     OW51198   3.758   3.642   9.507
83122SOL    HW151199   3.682   3.599   9.467
83122SOL    HW251200   3.787   3.581   9.575
83123SOL     OW51201   8.400   8.396   0.953
83123SOL    HW151202   8.390   8.357   1.040
83123SOL    HW251203   8.452   8.333   0.904
83124SOL     OW51204  14.329   8.328   0.833
83124SOL    HW151205  14.252   8.306   0.782
83124SOL    HW251206  14.298   8.391   0.898
83125SOL     OW51207   0.500   5.868  13.280
83125SOL    HW151208   0.458   5.812  13.345
83125SOL    HW251209   0.520   5.948  13.327
83126SOL     OW51210   8.868  12.822  10.698
83126SOL    HW151211   8.873  12.899  10.755
83126SOL    HW251212   8.946  12.771  10.720
83127SOL     OW51213  10.268  11.972  10.562
83127SOL    HW151214  10.186  12.022  10.567
83127SOL    HW251215  10.331  12.026  10.609
83128SOL     OW51216  10.400   9.638   9.298
83128SOL    HW151217  10.435   9.566   9.350
83128SOL    HW251218  10.453   9.639   9.218
83129SOL     OW51219  10.591   0.325   2.032
83129SOL    HW151220  10.529   0.289   1.968
83129SOL    HW251221  10.657   0.256   2.042
83130SOL     OW51222   2.335   1.787   2.008
83130SOL    HW151223   2.301   1.713   2.058
83130SOL    HW251224   2.430   1.782   2.017
83131SOL     OW51225   3.424  13.636  10.849
83131SOL    HW151226   3.453  13.701  10.913
83131SOL    HW251227   3.352  13.679  10.803
83132SOL     OW51228  14.537   6.467   4.649
83132SOL    HW151229  14.506   6.378   4.663
83132SOL    HW251230  14.613   6.457   4.592
83133SOL     OW51231  12.036   0.029  11.738
83133SOL    HW151232  12.006   0.060  11.823
83133SOL    HW251233  11.978  14.835  11.716
83134SOL     OW51234   2.116   0.340   3.732
83134SOL    HW151235   2.161   0.424   3.740
83134SOL    HW251236   2.030   0.362   3.697
83135SOL     OW51237   4.116   3.174   1.790
83135SOL    HW151238   4.181   3.125   1.840
83135SOL    HW251239   4.156   3.260   1.777
83136SOL     OW51240   6.650   4.116  10.258
83136SOL    HW151241   6.616   4.169  10.330
83136SOL    HW251242   6.740   4.095  10.283
83137SOL     OW51243  13.623   7.571  13.063
83137SOL    HW151244  13.546   7.518  13.043
83137SOL    HW251245  13.698   7.513  13.049
83138SOL     OW51246  14.279   5.174   1.547
83138SOL    HW151247  14.298   5.244   1.610
83138SOL    HW251248  14.365   5.146   1.516
83139SOL     OW51249   7.979   5.246   4.000
83139SOL    HW151250   7.970   5.157   3.967
83139SOL    HW251251   7.999   5.235   4.093
83140SOL     OW51252   2.647   5.278   3.666
83140SOL    HW151253   2.556   5.296   3.687
83140SOL    HW251254   2.695   5.354   3.698
83141SOL     OW51255   8.967   1.773  10.397
83141SOL    HW151256   9.033   1.742  10.458
83141SOL    HW251257   9.002   1.856  10.364
83142SOL     OW51258   2.189  10.727   9.775
83142SOL    HW151259   2.111  10.680   9.804
83142SOL    HW251260   2.190  10.715   9.680
83143SOL     OW51261   9.526   5.726  10.901
83143SOL    HW151262   9.598   5.720  10.965
83143SOL    HW251263   9.463   5.660  10.931
83144SOL     OW51264   3.177   1.449   7.271
83144SOL    HW151265   3.215   1.469   7.356
83144SOL    HW251266   3.108   1.514   7.259
83145SOL     OW51267   5.147   3.274  10.958
83145SOL    HW151268   5.238   3.299  10.970
83145SOL    HW251269   5.142   3.185  10.994
83146SOL     OW51270   4.044   0.203   7.005
83146SOL    HW151271   4.070   0.151   6.929
83146SOL    HW251272   3.951   0.185   7.016
83147SOL     OW51273  13.476   7.092   8.052
83147SOL    HW151274  13.564   7.126   8.070
83147SOL    HW251275  13.490   6.998   8.037
83148SOL     OW51276   3.307   6.976   2.649
83148SOL    HW151277   3.368   7.025   2.703
83148SOL    HW251278   3.300   7.026   2.568
83149SOL     OW51279   0.804   3.986  14.655
83149SOL    HW151280   0.733   4.045  14.681
83149SOL    HW251281   0.862   3.984  14.731
83150SOL     OW51282   3.329   2.596   5.173
83150SOL    HW151283   3.271   2.619   5.101
83150SOL    HW251284   3.403   2.656   5.163
83151SOL     OW51285   1.656   5.016   6.448
83151SOL    HW151286   1.743   5.041   6.477
83151SOL    HW251287   1.621   5.094   6.405
83152SOL     OW51288  10.378   7.620   9.191
83152SOL    HW151289  10.357   7.687   9.257
83152SOL    HW251290  10.293   7.589   9.160
83153SOL     OW51291  10.524  13.575  13.231
83153SOL    HW151292  10.429  13.562  13.227
83153SOL    HW251293  10.549  13.541  13.317
83154SOL     OW51294  14.546   2.449   5.517
83154SOL    HW151295  14.607   2.377   5.499
83154SOL    HW251296  14.463   2.420   5.479
83155SOL     OW51297   8.251   9.142   9.713
83155SOL    HW151298   8.245   9.067   9.772
83155SOL    HW251299   8.204   9.115   9.634
83156SOL     OW51300  14.019  11.647   7.330
83156SOL    HW151301  14.084  11.688   7.272
83156SOL    HW251302  14.070  11.595   7.391
83157SOL     OW51303  14.496  14.482  13.886
83157SOL    HW151304  14.447  14.555  13.847
83157SOL    HW251305  14.431  14.438  13.942
83158SOL     OW51306  11.214   6.517   4.408
83158SOL    HW151307  11.168   6.458   4.468
83158SOL    HW251308  11.277   6.460   4.364
83159SOL     OW51309  13.626   9.121   7.464
83159SOL    HW151310  13.647   9.028   7.472
83159SOL    HW251311  13.708   9.162   7.436
83160SOL     OW51312  10.065   6.480  12.709
83160SOL    HW151313  10.025   6.552  12.758
83160SOL    HW251314  10.068   6.407  12.771
83161SOL     OW51315   5.081  13.893   0.418
83161SOL    HW151316   5.150  13.848   0.466
83161SOL    HW251317   5.087  13.857   0.329
83162SOL     OW51318   8.871  12.974   9.744
83162SOL    HW151319   8.778  12.953   9.751
83162SOL    HW251320   8.910  12.895   9.706
83163SOL     OW51321  12.818   1.474  10.223
83163SOL    HW151322  12.735   1.522  10.231
83163SOL    HW251323  12.791   1.382  10.219
83164SOL     OW51324   0.258   5.969   0.249
83164SOL    HW151325   0.305   5.979   0.332
83164SOL    HW251326   0.187   6.032   0.254
83165SOL     OW51327   0.839   4.656  11.019
83165SOL    HW151328   0.892   4.587  10.978
83165SOL    HW251329   0.864   4.736  10.973
83166SOL     OW51330   3.888   6.794   4.872
83166SOL    HW151331   3.883   6.821   4.963
83166SOL    HW251332   3.978   6.812   4.846
83167SOL     OW51333   6.248   1.585  12.973
83167SOL    HW151334   6.291   1.640  13.038
83167SOL    HW251335   6.265   1.628  12.889
83168SOL     OW51336  13.434   9.763   5.278
83168SOL    HW151337  13.526   9.735   5.283
83168SOL    HW251338  13.418   9.775   5.184
83169SOL     OW51339  10.189   1.350  13.592
83169SOL    HW151340  10.129   1.276  13.586
83169SOL    HW251341  10.259   1.329  13.530
83170SOL     OW51342  14.195   5.921  12.906
83170SOL    HW151343  14.155   5.976  12.838
83170SOL    HW251344  14.267   5.877  12.861
83171SOL     OW51345  14.190   4.914   6.907
83171SOL    HW151346  14.212   4.862   6.985
83171SOL    HW251347  14.155   4.850   6.845
83172SOL     OW51348   0.923  12.140   7.161
83172SOL    HW151349   0.900  12.142   7.254
83172SOL    HW251350   0.985  12.068   7.153
83173SOL     OW51351  11.907   6.817   2.223
83173SOL    HW151352  11.855   6.786   2.149
83173SOL    HW251353  11.864   6.779   2.300
83174SOL     OW51354   4.906   9.291  10.429
83174SOL    HW151355   4.872   9.381  10.432
83174SOL    HW251356   4.972   9.288  10.499
83175SOL     OW51357  13.198   6.170  14.231
83175SOL    HW151358  13.209   6.106  14.301
83175SOL    HW251359  13.195   6.117  14.151
83176SOL     OW51360   8.499   6.703   7.774
83176SOL    HW151361   8.515   6.684   7.681
83176SOL    HW251362   8.513   6.620   7.818
83177SOL     OW51363   1.197   9.277   7.366
83177SOL    HW151364   1.143   9.333   7.422
83177SOL    HW251365   1.254   9.230   7.426
83178SOL     OW51366   5.218   7.675  10.231
83178SOL    HW151367   5.275   7.752  10.219
83178SOL    HW251368   5.154   7.682  10.161
83179SOL     OW51369  14.581   6.355  10.901
83179SOL    HW151370  14.528   6.376  10.824
83179SOL    HW251371  14.589   6.437  10.948
83180SOL     OW51372   0.555   1.698  10.117
83180SOL    HW151373   0.583   1.703  10.026
83180SOL    HW251374   0.476   1.644  10.115
83181SOL     OW51375  10.772  11.017   3.537
83181SOL    HW151376  10.796  10.929   3.509
83181SOL    HW251377  10.830  11.075   3.488
83182SOL     OW51378  12.366   6.907  12.564
83182SOL    HW151379  12.271   6.907  12.554
83182SOL    HW251380  12.383   6.840  12.630
83183SOL     OW51381   5.098  11.203  11.988
83183SOL    HW151382   5.110  11.272  12.053
83183SOL    HW251383   5.076  11.125  12.040
83184SOL     OW51384  14.501   7.351  10.336
83184SOL    HW151385  14.481   7.418  10.271
83184SOL    HW251386  14.417   7.310  10.356
83185SOL     OW51387   9.619  13.387   9.745
83185SOL    HW151388   9.654  13.331   9.676
83185SOL    HW251389   9.696  13.411   9.797
83186SOL     OW51390   0.909   2.811   9.010
83186SOL    HW151391   0.901   2.794   8.916
83186SOL    HW251392   0.860   2.892   9.024
83187SOL     OW51393   5.083  14.253   8.516
83187SOL    HW151394   5.086  14.347   8.498
83187SOL    HW251395   4.990  14.235   8.531
83188SOL     OW51396   4.943   4.796   7.752
83188SOL    HW151397   4.866   4.834   7.709
83188SOL    HW251398   4.968   4.862   7.817
83189SOL     OW51399  11.955   9.818   9.097
83189SOL    HW151400  11.879   9.763   9.116
83189SOL    HW251401  11.923   9.881   9.033
83190SOL     OW51402   0.784  13.277   0.468
83190SOL    HW151403   0.824  13.300   0.384
83190SOL    HW251404   0.699  13.322   0.468
83191SOL     OW51405   7.871  10.618  13.961
83191SOL    HW151406   7.790  10.567  13.966
83191SOL    HW251407   7.842  10.709  13.960
83192SOL     OW51408   6.361   6.650  14.785
83192SOL    HW151409   6.409   6.718  14.833
83192SOL    HW251410   6.418   6.629  14.711
83193SOL     OW51411   0.200   0.709   6.281
83193SOL    HW151412   0.237   0.622   6.283
83193SOL    HW251413   0.274   0.768   6.291
83194SOL     OW51414   3.059   9.968   1.212
83194SOL    HW151415   3.009  10.022   1.274
83194SOL    HW251416   3.053   9.879   1.246
83195SOL     OW51417   7.874  13.998   0.416
83195SOL    HW151418   7.952  14.050   0.436
83195SOL    HW251419   7.860  14.011   0.322
83196SOL     OW51420   0.455   4.409  14.261
83196SOL    HW151421   0.469   4.343  14.193
83196SOL    HW251422   0.360   4.423  14.261
83197SOL     OW51423   2.334   4.419   0.810
83197SOL    HW151424   2.338   4.510   0.841
83197SOL    HW251425   2.244   4.392   0.827
83198SOL     OW51426  10.150  10.831   5.472
83198SOL    HW151427  10.154  10.854   5.565
83198SOL    HW251428  10.230  10.869   5.434
83199SOL     OW51429   8.464   8.576   5.973
83199SOL    HW151430   8.475   8.654   6.027
83199SOL    HW251431   8.433   8.509   6.034
83200SOL     OW51432   1.938   6.547  11.324
83200SOL    HW151433   2.032   6.528  11.327
83200SOL    HW251434   1.896   6.461  11.320
83201SOL     OW51435   4.534   0.127   3.366
83201SOL    HW151436   4.614   0.159   3.408
83201SOL    HW251437   4.478   0.098   3.438
83202SOL     OW51438   1.920  10.227   9.818
83202SOL    HW151439   1.959  10.249   9.733
83202SOL    HW251440   1.938  10.134   9.829
83203SOL     OW51441   5.241  10.777   9.685
83203SOL    HW151442   5.293  10.855   9.701
83203SOL    HW251443   5.239  10.732   9.770
83204SOL     OW51444   7.469  12.911   4.323
83204SOL    HW151445   7.480  12.867   4.407
83204SOL    HW251446   7.503  12.850   4.258
83205SOL     OW51447   3.691  14.139   4.287
83205SOL    HW151448   3.633  14.102   4.221
83205SOL    HW251449   3.633  14.186   4.347
83206SOL     OW51450   6.984   2.954   9.643
83206SOL    HW151451   7.056   2.903   9.607
83206SOL    HW251452   6.920   2.959   9.571
83207SOL     OW51453   7.667   0.465   3.258
83207SOL    HW151454   7.600   0.411   3.299
83207SOL    HW251455   7.629   0.552   3.255
83208SOL     OW51456   5.707  11.718   3.810
83208SOL    HW151457   5.693  11.643   3.752
83208SOL    HW251458   5.717  11.793   3.752
83209SOL     OW51459   7.458   1.329  12.348
83209SOL    HW151460   7.504   1.268  12.291
83209SOL    HW251461   7.425   1.275  12.420
83210SOL     OW51462   0.996   0.937  13.211
83210SOL    HW151463   1.078   0.981  13.193
83210SOL    HW251464   0.970   0.969  13.298
83211SOL     OW51465  14.838   6.617   1.064
83211SOL    HW151466   0.017   6.625   0.988
83211SOL    HW251467  14.847   6.526   1.092
83212SOL     OW51468   0.131   0.111   4.860
83212SOL    HW151469   0.080   0.031   4.843
83212SOL    HW251470   0.198   0.083   4.922
83213SOL     OW51471   7.656   6.575  11.630
83213SOL    HW151472   7.624   6.508  11.569
83213SOL    HW251473   7.715   6.628  11.577
83214SOL     OW51474   8.426   1.970   6.509
83214SOL    HW151475   8.409   1.900   6.446
83214SOL    HW251476   8.492   1.934   6.568
83215SOL     OW51477   1.948  12.812   2.348
83215SOL    HW151478   1.889  12.812   2.272
83215SOL    HW251479   2.027  12.855   2.317
83216SOL     OW51480   0.410   2.950   4.782
83216SOL    HW151481   0.396   3.023   4.723
83216SOL    HW251482   0.465   2.985   4.852
83217SOL     OW51483  12.226   0.344  12.096
83217SOL    HW151484  12.223   0.310  12.185
83217SOL    HW251485  12.318   0.334  12.069
83218SOL     OW51486   7.139  11.815  12.757
83218SOL    HW151487   7.188  11.733  12.750
83218SOL    HW251488   7.056  11.790  12.798
83219SOL     OW51489  13.217  14.800  10.214
83219SOL    HW151490  13.167   0.002  10.222
83219SOL    HW251491  13.253  14.785  10.301
83220SOL     OW51492  13.073   6.651   3.016
83220SOL    HW151493  13.102   6.570   2.974
83220SOL    HW251494  13.038   6.704   2.946
83221SOL     OW51495   0.429  11.470   6.521
83221SOL    HW151496   0.392  11.423   6.596
83221SOL    HW251497   0.502  11.520   6.558
83222SOL     OW51498   9.887   7.390   0.147
83222SOL    HW151499   9.905   7.297   0.141
83222SOL    HW251500   9.932   7.429   0.072
83223SOL     OW51501   3.648  14.218   6.891
83223SOL    HW151502   3.740  14.201   6.911
83223SOL    HW251503   3.648  14.302   6.847
83224SOL     OW51504   3.857  11.122   3.771
83224SOL    HW151505   3.895  11.083   3.849
83224SOL    HW251506   3.849  11.215   3.792
83225SOL     OW51507   8.071  13.285   5.563
83225SOL    HW151508   8.091  13.352   5.628
83225SOL    HW251509   8.040  13.334   5.487
83226SOL     OW51510   8.511  13.881  13.958
83226SOL    HW151511   8.578  13.947  13.943
83226SOL    HW251512   8.513  13.826  13.879
83227SOL     OW51513   3.409  11.254  10.832
83227SOL    HW151514   3.482  11.309  10.858
83227SOL    HW251515   3.332  11.312  10.837
83228SOL     OW51516   7.741   2.574  11.843
83228SOL    HW151517   7.819   2.604  11.890
83228SOL    HW251518   7.668   2.593  11.903
83229SOL     OW51519   3.899  13.763   8.365
83229SOL    HW151520   3.835  13.730   8.302
83229SOL    HW251521   3.868  13.731   8.450
83230SOL     OW51522   1.766  13.857  10.680
83230SOL    HW151523   1.685  13.903  10.661
83230SOL    HW251524   1.751  13.767  10.648
83231SOL     OW51525   3.147  13.854   9.753
83231SOL    HW151526   3.146  13.812   9.839
83231SOL    HW251527   3.084  13.804   9.701
83232SOL     OW51528   6.503  14.551  12.622
83232SOL    HW151529   6.497  14.464  12.583
83232SOL    HW251530   6.445  14.605  12.567
83233SOL     OW51531   5.576  12.633   4.230
83233SOL    HW151532   5.537  12.709   4.275
83233SOL    HW251533   5.642  12.601   4.290
83234SOL     OW51534   3.594   5.467   2.560
83234SOL    HW151535   3.610   5.389   2.507
83234SOL    HW251536   3.522   5.442   2.618
83235SOL     OW51537  12.552   6.861   1.535
83235SOL    HW151538  12.564   6.935   1.477
83235SOL    HW251539  12.515   6.898   1.615
83236SOL     OW51540  14.523   4.264   3.914
83236SOL    HW151541  14.457   4.330   3.932
83236SOL    HW251542  14.529   4.262   3.818
83237SOL     OW51543  10.632   7.916  13.027
83237SOL    HW151544  10.563   7.970  13.068
83237SOL    HW251545  10.713   7.965  13.043
83238SOL     OW51546  11.176   3.411   3.537
83238SOL    HW151547  11.096   3.360   3.522
83238SOL    HW251548  11.247   3.350   3.516
83239SOL     OW51549   1.719   9.389   8.515
83239SOL    HW151550   1.777   9.343   8.453
83239SOL    HW251551   1.633   9.384   8.474
83240SOL     OW51552  13.293  12.600   3.123
83240SOL    HW151553  13.285  12.536   3.053
83240SOL    HW251554  13.314  12.548   3.201
83241SOL     OW51555  12.625   7.191  10.969
83241SOL    HW151556  12.686   7.233  10.907
83241SOL    HW251557  12.682   7.148  11.033
83242SOL     OW51558   3.587   3.422  13.597
83242SOL    HW151559   3.680   3.399  13.599
83242SOL    HW251560   3.556   3.390  13.513
83243SOL     OW51561   9.931  10.079  10.001
83243SOL    HW151562   9.839  10.060   9.982
83243SOL    HW251563   9.960  10.006  10.056
83244SOL     OW51564   0.232   8.535   4.780
83244SOL    HW151565   0.176   8.596   4.731
83244SOL    HW251566   0.281   8.592   4.840
83245SOL     OW51567   4.913   5.861  11.686
83245SOL    HW151568   4.826   5.858  11.646
83245SOL    HW251569   4.951   5.943  11.655
83246SOL     OW51570   0.563   5.655   7.874
83246SOL    HW151571   0.473   5.688   7.874
83246SOL    HW251572   0.559   5.574   7.925
83247SOL     OW51573  10.315   2.675   4.541
83247SOL    HW151574  10.320   2.611   4.471
83247SOL    HW251575  10.405   2.681   4.575
83248SOL     OW51576   1.209  14.239  11.801
83248SOL    HW151577   1.300  14.233  11.770
83248SOL    HW251578   1.215  14.289  11.882
83249SOL     OW51579   3.591   8.121  13.224
83249SOL    HW151580   3.573   8.118  13.130
83249SOL    HW251581   3.562   8.208  13.251
83250SOL     OW51582   1.771   3.115  13.352
83250SOL    HW151583   1.767   3.211  13.352
83250SOL    HW251584   1.680   3.088  13.360
83251SOL     OW51585   8.714   5.367   5.523
83251SOL    HW151586   8.650   5.354   5.594
83251SOL    HW251587   8.793   5.397   5.567
83252SOL     OW51588   0.225   6.690   7.961
83252SOL    HW151589   0.289   6.705   7.891
83252SOL    HW251590   0.256   6.744   8.034
83253SOL     OW51591   7.783  11.311   9.813
83253SOL    HW151592   7.814  11.262   9.736
83253SOL    HW251593   7.840  11.388   9.817
83254SOL     OW51594   5.784  10.233   7.183
83254SOL    HW151595   5.701  10.186   7.170
83254SOL    HW251596   5.775  10.272   7.270
83255SOL     OW51597   3.074   9.194   7.052
83255SOL    HW151598   3.068   9.109   7.094
83255SOL    HW251599   3.152   9.188   6.996
83256SOL     OW51600   5.873   7.890  10.091
83256SOL    HW151601   5.849   7.897   9.998
83256SOL    HW251602   5.966   7.868  10.090
83257SOL     OW51603   4.812   6.911   9.517
83257SOL    HW151604   4.906   6.895   9.520
83257SOL    HW251605   4.783   6.873   9.434
83258SOL     OW51606   4.104   8.977   8.564
83258SOL    HW151607   4.025   8.994   8.512
83258SOL    HW251608   4.144   9.063   8.577
83259SOL     OW51609  10.988   3.418   7.029
83259SOL    HW151610  11.041   3.483   6.984
83259SOL    HW251611  10.995   3.339   6.975
83260SOL     OW51612   2.266   6.619   9.401
83260SOL    HW151613   2.195   6.677   9.372
83260SOL    HW251614   2.292   6.572   9.322
83261SOL     OW51615   1.653  13.130   1.993
83261SOL    HW151616   1.573  13.105   2.040
83261SOL    HW251617   1.638  13.220   1.965
83262SOL     OW51618  10.040  12.629   2.856
83262SOL    HW151619   9.960  12.575   2.850
83262SOL    HW251620  10.008  12.718   2.865
83263SOL     OW51621   5.713   2.314   9.835
83263SOL    HW151622   5.623   2.335   9.807
83263SOL    HW251623   5.722   2.360   9.919
83264SOL     OW51624  11.727  10.717  12.081
83264SOL    HW151625  11.725  10.740  11.989
83264SOL    HW251626  11.729  10.621  12.082
83265SOL     OW51627   4.438   1.556   7.516
83265SOL    HW151628   4.400   1.615   7.451
83265SOL    HW251629   4.510   1.606   7.554
83266SOL     OW51630  11.653   6.717  11.886
83266SOL    HW151631  11.652   6.758  11.799
83266SOL    HW251632  11.661   6.624  11.868
83267SOL     OW51633  13.873   6.748   9.590
83267SOL    HW151634  13.910   6.810   9.526
83267SOL    HW251635  13.927   6.670   9.579
83268SOL     OW51636   9.340  11.585  10.532
83268SOL    HW151637   9.288  11.632  10.597
83268SOL    HW251638   9.431  11.598  10.559
83269SOL     OW51639  12.671   0.319   2.030
83269SOL    HW151640  12.726   0.258   2.080
83269SOL    HW251641  12.688   0.297   1.938
83270SOL     OW51642   1.323  12.441  13.106
83270SOL    HW151643   1.284  12.388  13.175
83270SOL    HW251644   1.414  12.412  13.102
83271SOL     OW51645   1.760   8.398   9.359
83271SOL    HW151646   1.670   8.429   9.348
83271SOL    HW251647   1.761   8.353   9.443
83272SOL     OW51648   2.864   2.897  12.593
83272SOL    HW151649   2.877   2.802  12.595
83272SOL    HW251650   2.841   2.920  12.683
83273SOL     OW51651  14.878   1.253  13.565
83273SOL    HW151652   0.041   1.190  13.506
83273SOL    HW251653   0.073   1.299  13.606
83274SOL     OW51654   7.534   8.281   0.192
83274SOL    HW151655   7.506   8.277   0.284
83274SOL    HW251656   7.494   8.203   0.152
83275SOL     OW51657   4.449   8.657  12.297
83275SOL    HW151658   4.512   8.631  12.230
83275SOL    HW251659   4.364   8.656  12.252
83276SOL     OW51660  14.163  11.439  14.502
83276SOL    HW151661  14.197  11.449  14.413
83276SOL    HW251662  14.086  11.383  14.493
83277SOL     OW51663   2.836  10.704  11.482
83277SOL    HW151664   2.841  10.637  11.414
83277SOL    HW251665   2.807  10.657  11.561
83278SOL     OW51666   6.911   1.649  14.839
83278SOL    HW151667   6.906   1.637  14.744
83278SOL    HW251668   6.947   1.738  14.849
83279SOL     OW51669   6.036   0.654   5.500
83279SOL    HW151670   6.077   0.660   5.414
83279SOL    HW251671   6.070   0.728   5.549
83280SOL     OW51672   6.209  13.134   0.034
83280SOL    HW151673   6.255  13.058   0.072
83280SOL    HW251674   6.278  13.198   0.018
83281SOL     OW51675   1.612   5.470   8.808
83281SOL    HW151676   1.627   5.453   8.715
83281SOL    HW251677   1.596   5.384   8.846
83282SOL     OW51678   5.299   9.944   5.394
83282SOL    HW151679   5.277   9.977   5.307
83282SOL    HW251680   5.376   9.888   5.379
83283SOL     OW51681  11.528   9.827   2.932
83283SOL    HW151682  11.566   9.836   3.020
83283SOL    HW251683  11.493   9.913   2.913
83284SOL     OW51684   5.647  12.170  13.150
83284SOL    HW151685   5.693  12.238  13.200
83284SOL    HW251686   5.606  12.115  13.216
83285SOL     OW51687   2.428  12.438   3.483
83285SOL    HW151688   2.384  12.523   3.489
83285SOL    HW251689   2.388  12.386   3.553
83286SOL     OW51690   1.446   7.052   0.690
83286SOL    HW151691   1.362   7.093   0.671
83286SOL    HW251692   1.489   7.045   0.605
83287SOL     OW51693   6.728   4.581  14.228
83287SOL    HW151694   6.661   4.563  14.293
83287SOL    HW251695   6.681   4.618  14.153
83288SOL     OW51696  10.709   7.932   0.217
83288SOL    HW151697  10.638   7.993   0.195
83288SOL    HW251698  10.783   7.988   0.240
83289SOL     OW51699   0.317  13.723  13.384
83289SOL    HW151700   0.232  13.687  13.356
83289SOL    HW251701   0.336  13.792  13.320
83290SOL     OW51702   2.798  14.825   6.677
83290SOL    HW151703   2.870  14.871   6.721
83290SOL    HW251704   2.842  14.758   6.623
83291SOL     OW51705   9.196  12.202   0.526
83291SOL    HW151706   9.146  12.282   0.543
83291SOL    HW251707   9.278  12.213   0.574
83292SOL     OW51708   0.548  10.919   6.807
83292SOL    HW151709   0.631  10.905   6.761
83292SOL    HW251710   0.483  10.874   6.754
83293SOL     OW51711   3.790   1.308   4.879
83293SOL    HW151712   3.754   1.396   4.868
83293SOL    HW251713   3.859   1.302   4.812
83294SOL     OW51714  11.109   6.192  14.676
83294SOL    HW151715  11.033   6.250  14.681
83294SOL    HW251716  11.073   6.106  14.656
83295SOL     OW51717  10.712   0.264   5.886
83295SOL    HW151718  10.765   0.316   5.825
83295SOL    HW251719  10.675   0.194   5.832
83296SOL     OW51720   9.187   1.638   4.578
83296SOL    HW151721   9.247   1.700   4.618
83296SOL    HW251722   9.219   1.552   4.607
83297SOL     OW51723   7.270   3.025   0.676
83297SOL    HW151724   7.298   3.015   0.585
83297SOL    HW251725   7.228   2.942   0.697
83298SOL     OW51726   8.784   5.776  13.312
83298SOL    HW151727   8.689   5.785  13.307
83298SOL    HW251728   8.803   5.774  13.406
83299SOL     OW51729   4.034   2.697   4.911
83299SOL    HW151730   4.035   2.699   4.815
83299SOL    HW251731   4.056   2.786   4.937
83300SOL     OW51732   1.627   2.286   8.307
83300SOL    HW151733   1.712   2.328   8.310
83300SOL    HW251734   1.574   2.333   8.371
83301SOL     OW51735   1.368   6.351   3.006
83301SOL    HW151736   1.355   6.429   2.951
83301SOL    HW251737   1.451   6.367   3.051
83302SOL     OW51738   2.773  14.325  13.479
83302SOL    HW151739   2.766  14.412  13.518
83302SOL    HW251740   2.755  14.265  13.550
83303SOL     OW51741   4.558   6.710  12.703
83303SOL    HW151742   4.500   6.704  12.778
83303SOL    HW251743   4.613   6.632  12.708
83304SOL     OW51744   3.510   8.041   2.388
83304SOL    HW151745   3.440   8.088   2.342
83304SOL    HW251746   3.518   8.085   2.472
83305SOL     OW51747   7.884  14.858   6.876
83305SOL    HW151748   7.976  14.841   6.856
83305SOL    HW251749   7.839  14.776   6.853
83306SOL     OW51750   5.128   0.871  13.149
83306SOL    HW151751   5.186   0.925  13.203
83306SOL    HW251752   5.183   0.799  13.118
83307SOL     OW51753   1.395   5.381   1.542
83307SOL    HW151754   1.453   5.455   1.522
83307SOL    HW251755   1.411   5.318   1.471
83308SOL     OW51756   3.247   8.625   0.103
83308SOL    HW151757   3.226   8.556   0.040
83308SOL    HW251758   3.165   8.673   0.115
83309SOL     OW51759   7.524  12.806  11.275
83309SOL    HW151760   7.521  12.806  11.179
83309SOL    HW251761   7.600  12.860  11.297
83310SOL     OW51762   4.974  13.325   6.837
83310SOL    HW151763   4.885  13.290   6.838
83310SOL    HW251764   5.009  13.300   6.751
83311SOL     OW51765  11.794  14.174  14.363
83311SOL    HW151766  11.828  14.257  14.330
83311SOL    HW251767  11.702  14.173  14.334
83312SOL     OW51768   9.188   5.196   3.071
83312SOL    HW151769   9.126   5.129   3.043
83312SOL    HW251770   9.202   5.250   2.994
83313SOL     OW51771   7.544  13.110  11.760
83313SOL    HW151772   7.553  13.203  11.738
83313SOL    HW251773   7.592  13.100  11.842
83314SOL     OW51774   3.063   4.021   5.768
83314SOL    HW151775   3.129   4.076   5.725
83314SOL    HW251776   3.011   4.081   5.819
83315SOL     OW51777   0.877   2.055   1.084
83315SOL    HW151778   0.951   2.087   1.032
83315SOL    HW251779   0.866   2.120   1.153
83316SOL     OW51780  12.799   3.836  11.816
83316SOL    HW151781  12.888   3.821  11.785
83316SOL    HW251782  12.790   3.932  11.818
83317SOL     OW51783  10.697  14.227  13.030
83317SOL    HW151784  10.676  14.249  12.939
83317SOL    HW251785  10.642  14.151  13.049
83318SOL     OW51786   8.112  10.258  12.004
83318SOL    HW151787   8.102  10.166  12.031
83318SOL    HW251788   8.129  10.305  12.086
83319SOL     OW51789   1.036   7.999   0.351
83319SOL    HW151790   1.074   8.074   0.306
83319SOL    HW251791   1.064   8.009   0.442
83320SOL     OW51792   7.112  12.573  11.083
83320SOL    HW151793   7.146  12.629  11.153
83320SOL    HW251794   7.190  12.542  11.037
83321SOL     OW51795  11.953  13.184   2.828
83321SOL    HW151796  12.014  13.207   2.758
83321SOL    HW251797  12.008  13.154   2.899
83322SOL     OW51798  10.655   1.043   7.019
83322SOL    HW151799  10.606   1.096   6.957
83322SOL    HW251800  10.611   0.959   7.019
83323SOL     OW51801  13.237   5.979   8.420
83323SOL    HW151802  13.289   5.943   8.492
83323SOL    HW251803  13.248   5.917   8.348
83324SOL     OW51804  11.675  13.858   2.384
83324SOL    HW151805  11.761  13.819   2.399
83324SOL    HW251806  11.632  13.854   2.469
83325SOL     OW51807   0.443  12.511  10.809
83325SOL    HW151808   0.379  12.467  10.753
83325SOL    HW251809   0.496  12.439  10.845
83326SOL     OW51810   0.482   2.370  13.229
83326SOL    HW151811   0.542   2.384  13.302
83326SOL    HW251812   0.398   2.401  13.261
83327SOL     OW51813   7.369   3.009   8.338
83327SOL    HW151814   7.457   3.037   8.365
83327SOL    HW251815   7.328   2.978   8.419
83328SOL     OW51816   5.105  12.516   6.410
83328SOL    HW151817   5.051  12.595   6.404
83328SOL    HW251818   5.172  12.527   6.343
83329SOL     OW51819   9.856   9.700  14.730
83329SOL    HW151820   9.922   9.768  14.714
83329SOL    HW251821   9.773   9.747  14.729
83330SOL     OW51822   9.463   4.411   9.897
83330SOL    HW151823   9.546   4.459   9.894
83330SOL    HW251824   9.472   4.342   9.831
83331SOL     OW51825   3.943  14.661   9.817
83331SOL    HW151826   3.854  14.624   9.816
83331SOL    HW251827   3.953  14.696   9.906
83332SOL     OW51828   8.517   3.618   4.311
83332SOL    HW151829   8.443   3.616   4.372
83332SOL    HW251830   8.534   3.526   4.292
83333SOL     OW51831  14.011   2.970   6.471
83333SOL    HW151832  13.979   2.902   6.529
83333SOL    HW251833  14.107   2.967   6.482
83334SOL     OW51834   4.048   4.452   4.974
83334SOL    HW151835   4.063   4.359   4.987
83334SOL    HW251836   3.953   4.463   4.982
83335SOL     OW51837   0.275  12.149  13.006
83335SOL    HW151838   0.184  12.169  12.982
83335SOL    HW251839   0.326  12.219  12.967
83336SOL     OW51840  14.714  12.299   6.994
83336SOL    HW151841  14.698  12.323   7.086
83336SOL    HW251842  14.742  12.208   6.997
83337SOL     OW51843  14.604   5.333   0.929
83337SOL    HW151844  14.630   5.254   0.977
83337SOL    HW251845  14.653   5.328   0.846
83338SOL     OW51846   7.554   5.484   1.437
83338SOL    HW151847   7.535   5.390   1.436
83338SOL    HW251848   7.552   5.509   1.345
83339SOL     OW51849   0.083  10.554  13.681
83339SOL    HW151850   0.108  10.541  13.590
83339SOL    HW251851   0.166  10.561  13.728
83340SOL     OW51852   0.363   8.308   8.997
83340SOL    HW151853   0.303   8.247   9.040
83340SOL    HW251854   0.320   8.393   9.006
83341SOL     OW51855   1.930  11.170   1.585
83341SOL    HW151856   1.909  11.159   1.492
83341SOL    HW251857   1.962  11.260   1.592
83342SOL     OW51858   8.587   8.928  11.139
83342SOL    HW151859   8.569   8.951  11.230
83342SOL    HW251860   8.616   8.837  11.143
83343SOL     OW51861  12.604   4.011   4.451
83343SOL    HW151862  12.531   4.009   4.513
83343SOL    HW251863  12.601   4.098   4.412
83344SOL     OW51864   3.534  13.730   3.322
83344SOL    HW151865   3.480  13.652   3.308
83344SOL    HW251866   3.606  13.721   3.260
83345SOL     OW51867  14.038   0.237  13.090
83345SOL    HW151868  14.029   0.268  13.180
83345SOL    HW251869  14.002   0.307  13.036
83346SOL     OW51870  12.345   7.270  13.216
83346SOL    HW151871  12.375   7.310  13.134
83346SOL    HW251872  12.285   7.334  13.253
83347SOL     OW51873   2.903  13.110   2.604
83347SOL    HW151874   2.856  13.126   2.686
83347SOL    HW251875   2.852  13.155   2.538
83348SOL     OW51876  11.787   8.942  12.851
83348SOL    HW151877  11.875   8.953  12.817
83348SOL    HW251878  11.783   8.850  12.878
83349SOL     OW51879   7.937   1.924  12.117
83349SOL    HW151880   7.914   2.012  12.088
83349SOL    HW251881   7.857   1.873  12.107
83350SOL     OW51882   4.196   6.946   4.924
83350SOL    HW151883   4.275   6.984   4.961
83350SOL    HW251884   4.165   6.885   4.991
83351SOL     OW51885   8.606   4.708   8.427
83351SOL    HW151886   8.521   4.748   8.410
83351SOL    HW251887   8.656   4.721   8.346
83352SOL     OW51888   3.988  10.914  12.070
83352SOL    HW151889   4.053  10.851  12.101
83352SOL    HW251890   4.016  10.937  11.982
83353SOL     OW51891  14.006   7.335   5.167
83353SOL    HW151892  14.094   7.365   5.147
83353SOL    HW251893  14.009   7.312   5.260
83354SOL     OW51894  13.917   1.807   9.468
83354SOL    HW151895  13.826   1.825   9.443
83354SOL    HW251896  13.923   1.711   9.466
83355SOL     OW51897   7.903  12.344   9.595
83355SOL    HW151898   7.911  12.263   9.645
83355SOL    HW251899   7.976  12.398   9.625
83356SOL     OW51900  14.482   8.604  12.278
83356SOL    HW151901  14.559   8.644  12.237
83356SOL    HW251902  14.410   8.628  12.220
83357SOL     OW51903  13.197   4.481  11.755
83357SOL    HW151904  13.158   4.398  11.785
83357SOL    HW251905  13.124   4.543  11.755
83358SOL     OW51906   7.127   6.218   5.306
83358SOL    HW151907   7.032   6.207   5.310
83358SOL    HW251908   7.162   6.140   5.349
83359SOL     OW51909  11.845   7.505  13.687
83359SOL    HW151910  11.937   7.480  13.701
83359SOL    HW251911  11.804   7.426  13.652
83360SOL     OW51912   0.563   8.039   6.629
83360SOL    HW151913   0.513   8.120   6.630
83360SOL    HW251914   0.645   8.062   6.586
83361SOL     OW51915   2.791   0.673   9.462
83361SOL    HW151916   2.734   0.627   9.401
83361SOL    HW251917   2.879   0.641   9.441
83362SOL     OW51918  11.435   8.025   3.551
83362SOL    HW151919  11.398   7.946   3.511
83362SOL    HW251920  11.523   8.000   3.577
83363SOL     OW51921   3.729   6.625  12.530
83363SOL    HW151922   3.788   6.676  12.474
83363SOL    HW251923   3.643   6.666  12.518
83364SOL     OW51924  11.415   6.927   4.953
83364SOL    HW151925  11.432   6.868   5.026
83364SOL    HW251926  11.325   6.958   4.967
83365SOL     OW51927   2.096   8.332   4.587
83365SOL    HW151928   2.100   8.322   4.682
83365SOL    HW251929   2.066   8.247   4.555
83366SOL     OW51930   1.627   1.967   0.119
83366SOL    HW151931   1.636   2.059   0.146
83366SOL    HW251932   1.549   1.936   0.163
83367SOL     OW51933  13.900   4.242  13.903
83367SOL    HW151934  13.970   4.214  13.962
83367SOL    HW251935  13.871   4.162  13.860
83368SOL     OW51936  12.327   8.275   9.795
83368SOL    HW151937  12.324   8.203   9.857
83368SOL    HW251938  12.326   8.354   9.850
83369SOL     OW51939   6.433   6.191  10.567
83369SOL    HW151940   6.353   6.231  10.532
83369SOL    HW251941   6.417   6.183  10.661
83370SOL     OW51942   8.299   9.189   0.926
83370SOL    HW151943   8.365   9.129   0.892
83370SOL    HW251944   8.254   9.222   0.849
83371SOL     OW51945   6.815   9.166  12.444
83371SOL    HW151946   6.896   9.203  12.409
83371SOL    HW251947   6.753   9.170  12.371
83372SOL     OW51948   1.824   2.642  12.350
83372SOL    HW151949   1.870   2.655  12.267
83372SOL    HW251950   1.815   2.547  12.358
83373SOL     OW51951   1.700  12.366   0.577
83373SOL    HW151952   1.709  12.345   0.484
83373SOL    HW251953   1.786  12.399   0.602
83374SOL     OW51954  14.489   2.363   6.237
83374SOL    HW151955  14.437   2.388   6.313
83374SOL    HW251956  14.426   2.331   6.174
83375SOL     OW51957   4.488  13.981  10.064
83375SOL    HW151958   4.506  13.966   9.971
83375SOL    HW251959   4.392  13.985  10.069
83376SOL     OW51960   6.155  10.685   1.477
83376SOL    HW151961   6.225  10.743   1.505
83376SOL    HW251962   6.170  10.673   1.383
83377SOL     OW51963  14.378   1.999   8.729
83377SOL    HW151964  14.335   2.071   8.682
83377SOL    HW251965  14.413   2.040   8.808
83378SOL     OW51966  10.755   7.481   5.782
83378SOL    HW151967  10.787   7.431   5.857
83378SOL    HW251968  10.678   7.527   5.815
83379SOL     OW51969  14.048   3.795  11.706
83379SOL    HW151970  14.017   3.815  11.794
83379SOL    HW251971  14.053   3.880  11.662
83380SOL     OW51972   4.033  12.214   4.111
83380SOL    HW151973   4.071  12.215   4.199
83380SOL    HW251974   4.065  12.295   4.071
83381SOL     OW51975   0.596  13.720   3.176
83381SOL    HW151976   0.598  13.769   3.094
83381SOL    HW251977   0.600  13.786   3.244
83382SOL     OW51978   1.886  11.266   8.060
83382SOL    HW151979   1.969  11.256   8.107
83382SOL    HW251980   1.907  11.324   7.987
83383SOL     OW51981  13.879  12.344   8.543
83383SOL    HW151982  13.861  12.419   8.486
83383SOL    HW251983  13.796  12.296   8.546
83384SOL     OW51984  13.297   0.963  12.567
83384SOL    HW151985  13.363   1.011  12.617
83384SOL    HW251986  13.325   0.971  12.476
83385SOL     OW51987  14.796   9.042  14.427
83385SOL    HW151988  14.831   9.094  14.355
83385SOL    HW251989  14.778   9.105  14.496
83386SOL     OW51990  14.132  12.897  11.816
83386SOL    HW151991  14.165  12.810  11.792
83386SOL    HW251992  14.046  12.880  11.854
83387SOL     OW51993   4.779   8.136   4.201
83387SOL    HW151994   4.870   8.142   4.230
83387SOL    HW251995   4.740   8.220   4.227
83388SOL     OW51996   5.080   4.842  13.912
83388SOL    HW151997   5.162   4.802  13.940
83388SOL    HW251998   5.018   4.824  13.983
83389SOL     OW51999   2.139   2.297  13.394
83389SOL    HW152000   2.177   2.228  13.340
83389SOL    HW252001   2.048   2.303  13.365
83390SOL     OW52002   4.294   4.164  11.710
83390SOL    HW152003   4.276   4.073  11.733
83390SOL    HW252004   4.388   4.174  11.726
83391SOL     OW52005   7.480   7.146   1.104
83391SOL    HW152006   7.442   7.109   1.024
83391SOL    HW252007   7.563   7.184   1.076
83392SOL     OW52008  10.029   8.663   0.312
83392SOL    HW152009   9.981   8.730   0.360
83392SOL    HW252010  10.033   8.695   0.222
83393SOL     OW52011   6.820   7.905   5.155
83393SOL    HW152012   6.852   7.922   5.067
83393SOL    HW252013   6.854   7.818   5.177
83394SOL     OW52014   8.280   8.110  12.908
83394SOL    HW152015   8.367   8.074  12.889
83394SOL    HW252016   8.294   8.205  12.913
83395SOL     OW52017  12.330  13.430   5.913
83395SOL    HW152018  12.425  13.439   5.901
83395SOL    HW252019  12.321  13.357   5.974
83396SOL     OW52020   5.804  13.172   5.430
83396SOL    HW152021   5.798  13.183   5.525
83396SOL    HW252022   5.733  13.226   5.395
83397SOL     OW52023  11.682   7.338   1.379
83397SOL    HW152024  11.622   7.314   1.450
83397SOL    HW252025  11.677   7.265   1.317
83398SOL     OW52026   9.188   9.425  12.268
83398SOL    HW152027   9.100   9.397  12.242
83398SOL    HW252028   9.175   9.471  12.350
83399SOL     OW52029   1.931  14.818   8.847
83399SOL    HW152030   1.844  14.858   8.838
83399SOL    HW252031   1.992   0.005   8.813
83400SOL     OW52032   1.861  10.161   4.207
83400SOL    HW152033   1.867  10.070   4.236
83400SOL    HW252034   1.892  10.160   4.117
83401SOL     OW52035   8.471   6.782   4.639
83401SOL    HW152036   8.451   6.859   4.692
83401SOL    HW252037   8.543   6.739   4.686
83402SOL     OW52038   0.868   1.899  12.168
83402SOL    HW152039   0.940   1.878  12.108
83402SOL    HW252040   0.794   1.919  12.111
83403SOL     OW52041   0.436   3.075   8.438
83403SOL    HW152042   0.494   3.002   8.418
83403SOL    HW252043   0.362   3.065   8.378
83404SOL     OW52044  10.931   4.656  13.673
83404SOL    HW152045  10.896   4.704  13.748
83404SOL    HW252046  11.015   4.621  13.703
83405SOL     OW52047   7.893   9.989   5.607
83405SOL    HW152048   7.884   9.945   5.523
83405SOL    HW252049   7.937  10.071   5.587
83406SOL     OW52050   3.793  13.511  11.179
83406SOL    HW152051   3.777  13.521  11.273
83406SOL    HW252052   3.748  13.430  11.155
83407SOL     OW52053  12.686   0.357   5.713
83407SOL    HW152054  12.658   0.291   5.776
83407SOL    HW252055  12.698   0.309   5.631
83408SOL     OW52056   0.646  10.663   6.127
83408SOL    HW152057   0.635  10.690   6.036
83408SOL    HW252058   0.739  10.639   6.133
83409SOL     OW52059  12.751   3.572  12.851
83409SOL    HW152060  12.679   3.566  12.788
83409SOL    HW252061  12.711   3.611  12.929
83410SOL     OW52062   4.378   6.277  14.677
83410SOL    HW152063   4.443   6.321  14.732
83410SOL    HW252064   4.294   6.312  14.707
83411SOL     OW52065   8.557   5.460   7.513
83411SOL    HW152066   8.590   5.546   7.488
83411SOL    HW252067   8.557   5.409   7.432
83412SOL     OW52068   8.714  12.348   2.374
83412SOL    HW152069   8.788  12.356   2.433
83412SOL    HW252070   8.675  12.436   2.373
83413SOL     OW52071  11.701   2.626   3.590
83413SOL    HW152072  11.740   2.564   3.652
83413SOL    HW252073  11.700   2.710   3.638
83414SOL     OW52074  13.500   2.404   4.310
83414SOL    HW152075  13.484   2.354   4.230
83414SOL    HW252076  13.563   2.471   4.284
83415SOL     OW52077  14.764  13.907   8.203
83415SOL    HW152078  14.787  13.820   8.236
83415SOL    HW252079  14.809  13.914   8.119
83416SOL     OW52080  13.823   1.794   3.653
83416SOL    HW152081  13.913   1.827   3.661
83416SOL    HW252082  13.827   1.706   3.691
83417SOL     OW52083   9.137   0.316   2.048
83417SOL    HW152084   9.175   0.400   2.024
83417SOL    HW252085   9.187   0.289   2.125
83418SOL     OW52086  10.178   5.244   4.280
83418SOL    HW152087  10.227   5.251   4.198
83418SOL    HW252088  10.120   5.169   4.268
83419SOL     OW52089  12.018   0.580   0.189
83419SOL    HW152090  12.080   0.525   0.140
83419SOL    HW252091  11.955   0.611   0.124
83420SOL     OW52092   3.340   7.855   7.029
83420SOL    HW152093   3.387   7.796   7.089
83420SOL    HW252094   3.259   7.877   7.076
83421SOL     OW52095   5.239  11.048  13.472
83421SOL    HW152096   5.243  11.142  13.453
83421SOL    HW252097   5.169  11.014  13.417
83422SOL     OW52098   1.186   7.306  10.811
83422SOL    HW152099   1.218   7.302  10.901
83422SOL    HW252100   1.235   7.240  10.764
83423SOL     OW52101   3.116  10.475  10.582
83423SOL    HW152102   3.104  10.380  10.581
83423SOL    HW252103   3.065  10.505  10.657
83424SOL     OW52104   2.230   6.990   6.288
83424SOL    HW152105   2.207   6.901   6.317
83424SOL    HW252106   2.175   7.047   6.341
83425SOL     OW52107   8.635   6.541   2.993
83425SOL    HW152108   8.719   6.496   2.987
83425SOL    HW252109   8.648   6.608   3.060
83426SOL     OW52110  12.680  12.917   7.624
83426SOL    HW152111  12.607  12.857   7.636
83426SOL    HW252112  12.659  12.965   7.544
83427SOL     OW52113   3.467   1.716   4.962
83427SOL    HW152114   3.401   1.750   4.903
83427SOL    HW252115   3.442   1.747   5.049
83428SOL     OW52116  10.796   6.857   9.999
83428SOL    HW152117  10.717   6.887  10.043
83428SOL    HW252118  10.809   6.768  10.030
83429SOL     OW52119   3.090  13.916   2.873
83429SOL    HW152120   3.101  14.011   2.878
83429SOL    HW252121   3.117  13.884   2.959
83430SOL     OW52122   5.322   0.950   4.615
83430SOL    HW152123   5.241   0.962   4.564
83430SOL    HW252124   5.291   0.925   4.702
83431SOL     OW52125  11.382  14.379   4.490
83431SOL    HW152126  11.341  14.465   4.499
83431SOL    HW252127  11.333  14.335   4.420
83432SOL     OW52128   9.319   9.855   9.694
83432SOL    HW152129   9.234   9.888   9.664
83432SOL    HW252130   9.383   9.897   9.635
83433SOL     OW52131  12.407   4.844  14.631
83433SOL    HW152132  12.417   4.933  14.664
83433SOL    HW252133  12.393   4.790  14.709
83434SOL     OW52134   4.747  13.078   6.040
83434SOL    HW152135   4.814  13.138   6.008
83434SOL    HW252136   4.677  13.134   6.072
83435SOL     OW52137   8.219  12.915   0.919
83435SOL    HW152138   8.223  12.855   0.993
83435SOL    HW252139   8.132  12.954   0.925
83436SOL     OW52140   0.714   7.128  13.770
83436SOL    HW152141   0.743   7.112  13.680
83436SOL    HW252142   0.756   7.059  13.821
83437SOL     OW52143   3.813  10.698  10.388
83437SOL    HW152144   3.795  10.619  10.338
83437SOL    HW252145   3.741  10.704  10.451
83438SOL     OW52146  12.781  10.830  10.174
83438SOL    HW152147  12.843  10.758  10.185
83438SOL    HW252148  12.721  10.822  10.248
83439SOL     OW52149   0.099   1.492   6.059
83439SOL    HW152150   0.136   1.409   6.029
83439SOL    HW252151   0.004   1.479   6.054
83440SOL     OW52152  14.008   3.337   3.664
83440SOL    HW152153  14.020   3.395   3.740
83440SOL    HW252154  13.990   3.251   3.703
83441SOL     OW52155   7.873   4.873   8.985
83441SOL    HW152156   7.957   4.898   9.024
83441SOL    HW252157   7.876   4.911   8.897
83442SOL     OW52158   7.741  14.004   2.546
83442SOL    HW152159   7.714  13.929   2.600
83442SOL    HW252160   7.661  14.055   2.533
83443SOL     OW52161   6.017   5.569   5.311
83443SOL    HW152162   5.964   5.575   5.391
83443SOL    HW252163   6.106   5.556   5.341
83444SOL     OW52164  11.634   0.553   2.636
83444SOL    HW152165  11.638   0.538   2.542
83444SOL    HW252166  11.621   0.647   2.645
83445SOL     OW52167  12.635   4.476  13.872
83445SOL    HW152168  12.692   4.529  13.817
83445SOL    HW252169  12.560   4.532  13.890
83446SOL     OW52170   6.541  10.737   0.179
83446SOL    HW152171   6.629  10.711   0.151
83446SOL    HW252172   6.491  10.743   0.098
83447SOL     OW52173   0.341   4.817   4.468
83447SOL    HW152174   0.436   4.829   4.472
83447SOL    HW252175   0.304   4.904   4.483
83448SOL     OW52176   4.945   4.970   0.655
83448SOL    HW152177   4.854   5.000   0.660
83448SOL    HW252178   4.947   4.890   0.708
83449SOL     OW52179   1.787  10.797   4.901
83449SOL    HW152180   1.861  10.857   4.915
83449SOL    HW252181   1.814  10.715   4.942
83450SOL     OW52182   9.364   7.902   7.723
83450SOL    HW152183   9.449   7.864   7.698
83450SOL    HW252184   9.332   7.943   7.643
83451SOL     OW52185   2.084   7.474   2.651
83451SOL    HW152186   2.172   7.450   2.623
83451SOL    HW252187   2.047   7.521   2.577
83452SOL     OW52188   4.860   5.442  11.339
83452SOL    HW152189   4.937   5.447  11.282
83452SOL    HW252190   4.896   5.440  11.427
83453SOL     OW52191   8.164   7.460  14.272
83453SOL    HW152192   8.085   7.470  14.220
83453SOL    HW252193   8.143   7.500  14.356
83454SOL     OW52194   1.378   4.205  13.248
83454SOL    HW152195   1.418   4.122  13.271
83454SOL    HW252196   1.320   4.185  13.175
83455SOL     OW52197   0.056  12.716   6.189
83455SOL    HW152198   0.052  12.620   6.190
83455SOL    HW252199   0.014  12.743   6.271
83456SOL     OW52200   3.378   4.035   3.438
83456SOL    HW152201   3.329   3.975   3.381
83456SOL    HW252202   3.311   4.076   3.492
83457SOL     OW52203   2.280  10.817  10.640
83457SOL    HW152204   2.337  10.779  10.573
83457SOL    HW252205   2.253  10.902  10.603
83458SOL     OW52206  13.328   7.421   3.457
83458SOL    HW152207  13.340   7.353   3.391
83458SOL    HW252208  13.250   7.469   3.427
83459SOL     OW52209   2.531  12.860   2.563
83459SOL    HW152210   2.439  12.878   2.582
83459SOL    HW252211   2.551  12.916   2.487
83460SOL     OW52212  11.208  10.705  12.490
83460SOL    HW152213  11.157  10.696  12.571
83460SOL    HW252214  11.163  10.650  12.427
83461SOL     OW52215   6.287   8.583  12.755
83461SOL    HW152216   6.240   8.580  12.672
83461SOL    HW252217   6.336   8.665  12.751
83462SOL     OW52218   5.471  13.512   1.551
83462SOL    HW152219   5.522  13.572   1.605
83462SOL    HW252220   5.384  13.512   1.590
83463SOL     OW52221  12.491   9.693   0.385
83463SOL    HW152222  12.449   9.779   0.389
83463SOL    HW252223  12.484   9.659   0.474
83464SOL     OW52224   3.668   6.437  10.837
83464SOL    HW152225   3.673   6.396  10.751
83464SOL    HW252226   3.701   6.526  10.824
83465SOL     OW52227  10.900   9.758   7.129
83465SOL    HW152228  10.947   9.805   7.198
83465SOL    HW252229  10.968   9.739   7.064
83466SOL     OW52230   9.744   4.425   9.877
83466SOL    HW152231   9.789   4.408   9.960
83466SOL    HW252232   9.767   4.351   9.821
83467SOL     OW52233   9.442   1.070   0.077
83467SOL    HW152234   9.517   1.129   0.083
83467SOL    HW252235   9.406   1.067   0.166
83468SOL     OW52236   0.180   8.393   6.705
83468SOL    HW152237   0.181   8.459   6.635
83468SOL    HW252238   0.222   8.436   6.779
83469SOL     OW52239   0.654   9.734   7.732
83469SOL    HW152240   0.617   9.700   7.650
83469SOL    HW252241   0.586   9.718   7.797
83470SOL     OW52242  11.407   0.670   2.355
83470SOL    HW152243  11.396   0.671   2.260
83470SOL    HW252244  11.494   0.709   2.369
83471SOL     OW52245   1.018   8.666   4.803
83471SOL    HW152246   0.932   8.624   4.800
83471SOL    HW252247   1.042   8.678   4.711
83472SOL     OW52248   6.840   8.899  10.033
83472SOL    HW152249   6.842   8.921   9.940
83472SOL    HW252250   6.888   8.816  10.039
83473SOL     OW52251   6.551  10.510   3.892
83473SOL    HW152252   6.566  10.549   3.806
83473SOL    HW252253   6.589  10.422   3.886
83474SOL     OW52254   4.839   8.928  11.659
83474SOL    HW152255   4.899   9.002  11.652
83474SOL    HW252256   4.851   8.879  11.577
83475SOL     OW52257  14.145   3.204   0.762
83475SOL    HW152258  14.219   3.260   0.785
83475SOL    HW252259  14.123   3.229   0.672
83476SOL     OW52260   1.941   0.463  11.744
83476SOL    HW152261   1.902   0.545  11.713
83476SOL    HW252262   2.034   0.472  11.723
83477SOL     OW52263  13.921   0.373   8.625
83477SOL    HW152264  13.866   0.315   8.572
83477SOL    HW252265  14.009   0.335   8.620
83478SOL     OW52266  13.517  10.343   3.213
83478SOL    HW152267  13.508  10.431   3.251
83478SOL    HW252268  13.508  10.284   3.287
83479SOL     OW52269  12.952   8.528   1.295
83479SOL    HW152270  12.983   8.613   1.326
83479SOL    HW252271  12.857   8.535   1.300
83480SOL     OW52272  14.781   2.030  13.112
83480SOL    HW152273  14.748   2.011  13.024
83480SOL    HW252274  14.722   1.985  13.171
83481SOL     OW52275   0.429   9.283  12.733
83481SOL    HW152276   0.403   9.191  12.739
83481SOL    HW252277   0.512   9.287  12.781
83482SOL     OW52278   2.911   2.265   8.357
83482SOL    HW152279   2.906   2.310   8.273
83482SOL    HW252280   2.915   2.172   8.335
83483SOL     OW52281   4.747  14.478  14.133
83483SOL    HW152282   4.704  14.501  14.051
83483SOL    HW252283   4.837  14.510  14.123
83484SOL     OW52284  10.576  14.450  12.565
83484SOL    HW152285  10.633  14.410  12.631
83484SOL    HW252286  10.512  14.383  12.544
83485SOL     OW52287  13.314  11.543  10.745
83485SOL    HW152288  13.307  11.521  10.838
83485SOL    HW252289  13.369  11.473  10.709
83486SOL     OW52290   3.873  10.258   7.745
83486SOL    HW152291   3.945  10.208   7.705
83486SOL    HW252292   3.914  10.305   7.817
83487SOL     OW52293  11.995  12.918  14.525
83487SOL    HW152294  11.935  12.852  14.562
83487SOL    HW252295  12.008  12.980  14.596
83488SOL     OW52296   3.540   0.478   0.604
83488SOL    HW152297   3.493   0.403   0.641
83488SOL    HW252298   3.486   0.507   0.531
83489SOL     OW52299  12.087   9.969  12.248
83489SOL    HW152300  12.173   9.935  12.275
83489SOL    HW252301  12.067  10.037  12.312
83490SOL     OW52302   3.079   3.104   8.704
83490SOL    HW152303   3.002   3.104   8.647
83490SOL    HW252304   3.122   3.187   8.685
83491SOL     OW52305  11.227   8.883   0.875
83491SOL    HW152306  11.307   8.852   0.916
83491SOL    HW252307  11.223   8.976   0.898
83492SOL     OW52308   8.015  11.765   8.625
83492SOL    HW152309   8.044  11.839   8.572
83492SOL    HW252310   7.935  11.796   8.667
83493SOL     OW52311   0.501  13.129  12.070
83493SOL    HW152312   0.504  13.098  12.160
83493SOL    HW252313   0.551  13.064  12.021
83494SOL     OW52314  14.664   9.553   6.915
83494SOL    HW152315  14.579   9.587   6.887
83494SOL    HW252316  14.653   9.532   7.007
83495SOL     OW52317   2.577   2.997  14.446
83495SOL    HW152318   2.578   2.920  14.390
83495SOL    HW252319   2.638   2.975  14.517
83496SOL     OW52320   1.838   5.164   8.387
83496SOL    HW152321   1.920   5.206   8.360
83496SOL    HW252322   1.837   5.170   8.482
83497SOL     OW52323   7.097   0.655   8.709
83497SOL    HW152324   7.104   0.717   8.782
83497SOL    HW252325   7.180   0.606   8.712
83498SOL     OW52326   5.685   2.950   2.844
83498SOL    HW152327   5.704   2.860   2.869
83498SOL    HW252328   5.753   2.971   2.780
83499SOL     OW52329   2.989   0.200   8.196
83499SOL    HW152330   2.909   0.247   8.173
83499SOL    HW252331   3.009   0.229   8.285
83500SOL     OW52332   2.782   1.761   3.641
83500SOL    HW152333   2.726   1.759   3.718
83500SOL    HW252334   2.844   1.689   3.656
83501SOL     OW52335   8.860   0.420  11.439
83501SOL    HW152336   8.872   0.430  11.345
83501SOL    HW252337   8.944   0.446  11.477
83502SOL     OW52338  14.077  14.807   7.285
83502SOL    HW152339  14.116  14.756   7.356
83502SOL    HW252340  14.075  14.748   7.211
83503SOL     OW52341   7.270   9.487  11.629
83503SOL    HW152342   7.340   9.440  11.672
83503SOL    HW252343   7.221   9.419  11.582
83504SOL     OW52344   1.025   9.013   8.700
83504SOL    HW152345   1.045   8.922   8.678
83504SOL    HW252346   1.033   9.060   8.618
83505SOL     OW52347  11.583   4.227   9.014
83505SOL    HW152348  11.657   4.169   8.998
83505SOL    HW252349  11.542   4.240   8.928
83506SOL     OW52350   7.070  13.607   4.566
83506SOL    HW152351   7.116  13.690   4.551
83506SOL    HW252352   7.010  13.599   4.492
83507SOL     OW52353   9.469  10.654  13.390
83507SOL    HW152354   9.476  10.622  13.480
83507SOL    HW252355   9.410  10.729  13.396
83508SOL     OW52356   4.947  14.661  11.645
83508SOL    HW152357   4.874  14.626  11.695
83508SOL    HW252358   4.906  14.717  11.578
83509SOL     OW52359  14.541   4.914   7.424
83509SOL    HW152360  14.524   4.825   7.393
83509SOL    HW252361  14.465   4.964   7.395
83510SOL     OW52362  11.988   2.022   5.616
83510SOL    HW152363  11.996   2.043   5.709
83510SOL    HW252364  11.900   2.051   5.593
83511SOL     OW52365   6.042   3.867   7.414
83511SOL    HW152366   6.034   3.916   7.332
83511SOL    HW252367   6.025   3.776   7.390
83512SOL     OW52368   3.899  13.647   1.196
83512SOL    HW152369   3.808  13.676   1.202
83512SOL    HW252370   3.894  13.559   1.159
83513SOL     OW52371   8.939   4.220  11.431
83513SOL    HW152372   8.966   4.136  11.469
83513SOL    HW252373   8.976   4.286  11.490
83514SOL     OW52374  11.881  14.687  13.747
83514SOL    HW152375  11.975  14.702  13.736
83514SOL    HW252376  11.875  14.619  13.814
83515SOL     OW52377   6.887  13.519  11.429
83515SOL    HW152378   6.903  13.446  11.489
83515SOL    HW252379   6.952  13.585  11.453
83516SOL     OW52380   8.193   5.200  13.048
83516SOL    HW152381   8.177   5.148  12.970
83516SOL    HW252382   8.269   5.254  13.025
83517SOL     OW52383   4.846   4.512   2.778
83517SOL    HW152384   4.851   4.421   2.807
83517SOL    HW252385   4.753   4.526   2.760
83518SOL     OW52386  13.756   8.296   9.455
83518SOL    HW152387  13.800   8.377   9.429
83518SOL    HW252388  13.678   8.325   9.503
83519SOL     OW52389   4.948   9.560   1.939
83519SOL    HW152390   5.028   9.517   1.968
83519SOL    HW252391   4.977   9.624   1.873
83520SOL     OW52392  11.860  10.938   3.623
83520SOL    HW152393  11.835  11.022   3.586
83520SOL    HW252394  11.845  10.875   3.552
83521SOL     OW52395  10.770   1.559   2.339
83521SOL    HW152396  10.788   1.600   2.255
83521SOL    HW252397  10.679   1.531   2.333
83522SOL     OW52398   8.448   4.130   7.293
83522SOL    HW152399   8.488   4.130   7.380
83522SOL    HW252400   8.470   4.216   7.256
83523SOL     OW52401   0.664   4.013   5.760
83523SOL    HW152402   0.620   4.007   5.845
83523SOL    HW252403   0.758   4.017   5.782
83524SOL     OW52404  12.360   0.823   0.429
83524SOL    HW152405  12.425   0.816   0.359
83524SOL    HW252406  12.278   0.842   0.384
83525SOL     OW52407  11.340   4.478   9.177
83525SOL    HW152408  11.423   4.433   9.163
83525SOL    HW252409  11.273   4.411   9.166
83526SOL     OW52410   1.497   4.394  13.102
83526SOL    HW152411   1.589   4.375  13.088
83526SOL    HW252412   1.465   4.320  13.153
83527SOL     OW52413   6.021   0.347   0.045
83527SOL    HW152414   6.001   0.318   0.133
83527SOL    HW252415   5.935   0.355   0.002
83528SOL     OW52416   4.930   2.602   1.422
83528SOL    HW152417   4.988   2.609   1.497
83528SOL    HW252418   4.842   2.608   1.459
83529SOL     OW52419   7.848   9.703   7.856
83529SOL    HW152420   7.899   9.773   7.815
83529SOL    HW252421   7.910   9.632   7.870
83530SOL     OW52422  14.065   0.352  10.678
83530SOL    HW152423  13.996   0.333  10.741
83530SOL    HW252424  14.113   0.269  10.669
83531SOL     OW52425   3.998   6.328   9.026
83531SOL    HW152426   4.093   6.325   9.027
83531SOL    HW252427   3.970   6.252   9.077
83532SOL     OW52428   9.355  11.661   4.211
83532SOL    HW152429   9.449  11.661   4.230
83532SOL    HW252430   9.350  11.635   4.119
83533SOL     OW52431   5.351  13.434   6.464
83533SOL    HW152432   5.278  13.490   6.491
83533SOL    HW252433   5.367  13.377   6.539
83534SOL     OW52434   6.596   2.035   2.296
83534SOL    HW152435   6.581   2.055   2.388
83534SOL    HW252436   6.655   1.959   2.297
83535SOL     OW52437   9.307   4.924   9.733
83535SOL    HW152438   9.304   4.893   9.824
83535SOL    HW252439   9.216   4.944   9.711
83536SOL     OW52440   9.315  11.774  11.824
83536SOL    HW152441   9.240  11.716  11.812
83536SOL    HW252442   9.305  11.840  11.755
83537SOL     OW52443   1.409  12.611  13.545
83537SOL    HW152444   1.483  12.587  13.489
83537SOL    HW252445   1.396  12.535  13.601
83538SOL     OW52446   9.504   8.865  10.704
83538SOL    HW152447   9.443   8.812  10.652
83538SOL    HW252448   9.521   8.812  10.782
83539SOL     OW52449   8.622  11.047   5.457
83539SOL    HW152450   8.541  11.096   5.448
83539SOL    HW252451   8.596  10.963   5.494
83540SOL     OW52452   4.834  12.468   5.879
83540SOL    HW152453   4.762  12.527   5.856
83540SOL    HW252454   4.842  12.475   5.974
83541SOL     OW52455  14.091   0.532   8.472
83541SOL    HW152456  14.065   0.552   8.562
83541SOL    HW252457  14.177   0.575   8.463
83542SOL     OW52458   4.536   2.310  12.450
83542SOL    HW152459   4.531   2.233  12.506
83542SOL    HW252460   4.563   2.381  12.508
83543SOL     OW52461   4.461  12.299  11.832
83543SOL    HW152462   4.410  12.341  11.763
83543SOL    HW252463   4.520  12.368  11.863
83544SOL     OW52464   1.809  10.935  13.596
83544SOL    HW152465   1.843  11.021  13.621
83544SOL    HW252466   1.886  10.886  13.566
83545SOL     OW52467  14.683  12.088   1.365
83545SOL    HW152468  14.626  12.011   1.366
83545SOL    HW252469  14.623  12.162   1.365
83546SOL     OW52470   3.725   1.574   9.989
83546SOL    HW152471   3.692   1.543  10.073
83546SOL    HW252472   3.652   1.622   9.950
83547SOL     OW52473   6.409   8.996   6.713
83547SOL    HW152474   6.484   8.945   6.683
83547SOL    HW252475   6.414   8.993   6.809
83548SOL     OW52476   5.415  14.670   0.764
83548SOL    HW152477   5.354  14.598   0.781
83548SOL    HW252478   5.415  14.680   0.669
83549SOL     OW52479  13.847   0.856  14.465
83549SOL    HW152480  13.882   0.813  14.387
83549SOL    HW252481  13.909   0.833  14.535
83550SOL     OW52482   0.812  11.348  13.568
83550SOL    HW152483   0.902  11.316  13.578
83550SOL    HW252484   0.764  11.273  13.531
83551SOL     OW52485   2.696   2.763  13.963
83551SOL    HW152486   2.750   2.689  13.934
83551SOL    HW252487   2.661   2.735  14.047
83552SOL     OW52488   8.377   7.246   4.824
83552SOL    HW152489   8.395   7.263   4.916
83552SOL    HW252490   8.422   7.317   4.778
83553SOL     OW52491   9.367   2.875   5.622
83553SOL    HW152492   9.274   2.896   5.610
83553SOL    HW252493   9.409   2.960   5.637
83554SOL     OW52494   5.134   9.912   9.451
83554SOL    HW152495   5.074   9.951   9.387
83554SOL    HW252496   5.173   9.987   9.496
83555SOL     OW52497   2.844  12.429   1.516
83555SOL    HW152498   2.759  12.402   1.550
83555SOL    HW252499   2.849  12.522   1.535
83556SOL     OW52500   4.030   1.653   9.910
83556SOL    HW152501   4.055   1.706   9.986
83556SOL    HW252502   3.942   1.621   9.930
83557SOL     OW52503   3.294   0.740   5.860
83557SOL    HW152504   3.254   0.821   5.829
83557SOL    HW252505   3.236   0.670   5.830
83558SOL     OW52506   9.904   1.830   8.881
83558SOL    HW152507   9.969   1.898   8.862
83558SOL    HW252508   9.889   1.836   8.975
83559SOL     OW52509   9.016   8.729   4.718
83559SOL    HW152510   9.073   8.765   4.651
83559SOL    HW252511   8.939   8.786   4.718
83560SOL     OW52512   8.875   2.179   3.885
83560SOL    HW152513   8.943   2.116   3.909
83560SOL    HW252514   8.885   2.191   3.791
83561SOL     OW52515   7.650  12.677  10.561
83561SOL    HW152516   7.684  12.589  10.569
83561SOL    HW252517   7.662  12.700  10.469
83562SOL     OW52518   1.195   1.015  12.764
83562SOL    HW152519   1.108   1.032  12.800
83562SOL    HW252520   1.247   0.987  12.839
83563SOL     OW52521  14.320  11.697  13.184
83563SOL    HW152522  14.365  11.622  13.222
83563SOL    HW252523  14.236  11.700  13.230
83564SOL     OW52524  13.792   4.321   4.282
83564SOL    HW152525  13.789   4.409   4.318
83564SOL    HW252526  13.817   4.334   4.190
83565SOL     OW52527   0.111   5.011  11.862
83565SOL    HW152528   0.201   5.013  11.828
83565SOL    HW252529   0.058   4.983  11.787
83566SOL     OW52530   9.107  13.096  11.872
83566SOL    HW152531   9.051  13.091  11.794
83566SOL    HW252532   9.191  13.128  11.840
83567SOL     OW52533   1.342  13.537   9.656
83567SOL    HW152534   1.286  13.468   9.692
83567SOL    HW252535   1.280  13.603   9.625
83568SOL     OW52536   6.285  10.929   5.488
83568SOL    HW152537   6.270  10.952   5.580
83568SOL    HW252538   6.304  10.835   5.489
83569SOL     OW52539   8.107  14.335   3.684
83569SOL    HW152540   8.074  14.246   3.690
83569SOL    HW252541   8.053  14.385   3.745
83570SOL     OW52542   5.562   8.461   7.089
83570SOL    HW152543   5.622   8.475   7.163
83570SOL    HW252544   5.585   8.375   7.056
83571SOL     OW52545   0.900  12.358   9.780
83571SOL    HW152546   0.952  12.419   9.728
83571SOL    HW252547   0.844  12.313   9.716
83572SOL     OW52548   7.170   0.914  13.393
83572SOL    HW152549   7.146   1.004  13.369
83572SOL    HW252550   7.087   0.867  13.396
83573SOL     OW52551   3.086   5.367  14.642
83573SOL    HW152552   3.156   5.353  14.578
83573SOL    HW252553   3.060   5.279  14.669
83574SOL     OW52554  13.048   8.943   0.155
83574SOL    HW152555  13.072   8.852   0.174
83574SOL    HW252556  13.053   8.987   0.239
83575SOL     OW52557   3.429   6.481  10.728
83575SOL    HW152558   3.494   6.464  10.796
83575SOL    HW252559   3.463   6.434  10.651
83576SOL     OW52560   4.864   1.554   8.808
83576SOL    HW152561   4.818   1.517   8.732
83576SOL    HW252562   4.955   1.523   8.798
83577SOL     OW52563   4.012  13.745   0.167
83577SOL    HW152564   3.959  13.674   0.202
83577SOL    HW252565   3.965  13.825   0.190
83578SOL     OW52566   9.743   3.479  12.850
83578SOL    HW152567   9.825   3.504  12.807
83578SOL    HW252568   9.769   3.460  12.940
83579SOL     OW52569   4.541   1.414  12.605
83579SOL    HW152570   4.617   1.445  12.654
83579SOL    HW252571   4.536   1.321  12.625
83580SOL     OW52572   5.590   8.341   8.641
83580SOL    HW152573   5.684   8.358   8.639
83580SOL    HW252574   5.551   8.422   8.675
83581SOL     OW52575   3.174   8.517  14.257
83581SOL    HW152576   3.144   8.427  14.243
83581SOL    HW252577   3.094   8.570  14.255
83582SOL     OW52578   7.732  10.107  10.796
83582SOL    HW152579   7.645  10.123  10.834
83582SOL    HW252580   7.720  10.121  10.702
83583SOL     OW52581   9.846   9.660   6.212
83583SOL    HW152582   9.907   9.677   6.140
83583SOL    HW252583   9.902   9.638   6.287
83584SOL     OW52584   5.745  10.452   0.113
83584SOL    HW152585   5.825  10.451   0.061
83584SOL    HW252586   5.730  10.361   0.137
83585SOL     OW52587   4.188   3.690   9.075
83585SOL    HW152588   4.230   3.606   9.058
83585SOL    HW252589   4.227   3.719   9.158
83586SOL     OW52590   7.951  11.086   5.534
83586SOL    HW152591   7.907  11.164   5.499
83586SOL    HW252592   8.010  11.058   5.464
83587SOL     OW52593  11.428   7.595   9.072
83587SOL    HW152594  11.346   7.584   9.023
83587SOL    HW252595  11.469   7.509   9.071
83588SOL     OW52596  13.172   7.407   1.920
83588SOL    HW152597  13.262   7.396   1.890
83588SOL    HW252598  13.127   7.446   1.846
83589SOL     OW52599   1.743  14.269   4.567
83589SOL    HW152600   1.766  14.204   4.633
83589SOL    HW252601   1.684  14.329   4.612
83590SOL     OW52602   0.459  13.917   4.266
83590SOL    HW152603   0.457  13.874   4.351
83590SOL    HW252604   0.499  14.002   4.283
83591SOL     OW52605   8.519   4.883  13.267
83591SOL    HW152606   8.425   4.878  13.248
83591SOL    HW252607   8.526   4.948  13.337
83592SOL     OW52608   1.125   7.673  10.795
83592SOL    HW152609   1.194   7.733  10.764
83592SOL    HW252610   1.044   7.725  10.789
83593SOL     OW52611   1.326   7.005   6.027
83593SOL    HW152612   1.239   6.991   5.991
83593SOL    HW252613   1.365   6.917   6.031
83594SOL     OW52614   7.715   8.517  12.975
83594SOL    HW152615   7.653   8.586  12.949
83594SOL    HW252616   7.727   8.464  12.897
83595SOL     OW52617   3.375   6.185   8.147
83595SOL    HW152618   3.301   6.179   8.207
83595SOL    HW252619   3.438   6.121   8.180
83596SOL     OW52620  10.087  10.033  12.146
83596SOL    HW152621  10.125  10.033  12.233
83596SOL    HW252622  10.159  10.054  12.087
83597SOL     OW52623  12.505   2.681   1.485
83597SOL    HW152624  12.567   2.610   1.471
83597SOL    HW252625  12.532   2.722   1.567
83598SOL     OW52626   1.504   4.816   7.006
83598SOL    HW152627   1.495   4.811   7.101
83598SOL    HW252628   1.467   4.734   6.974
83599SOL     OW52629  10.442  13.561   9.422
83599SOL    HW152630  10.466  13.528   9.335
83599SOL    HW252631  10.393  13.642   9.404
83600SOL     OW52632  13.852  10.026  13.677
83600SOL    HW152633  13.757  10.018  13.689
83600SOL    HW252634  13.867   9.993  13.588
83601SOL     OW52635  10.978   2.690   8.815
83601SOL    HW152636  10.891   2.710   8.782
83601SOL    HW252637  10.981   2.730   8.902
83602SOL     OW52638   1.972  13.348   7.527
83602SOL    HW152639   1.970  13.330   7.433
83602SOL    HW252640   2.023  13.428   7.535
83603SOL     OW52641   6.498   2.703   6.933
83603SOL    HW152642   6.407   2.723   6.910
83603SOL    HW252643   6.548   2.775   6.895
83604SOL     OW52644   6.473   3.474   9.644
83604SOL    HW152645   6.378   3.474   9.655
83604SOL    HW252646   6.508   3.493   9.731
83605SOL     OW52647   8.959   3.235  13.028
83605SOL    HW152648   8.981   3.149  12.991
83605SOL    HW252649   8.878   3.260  12.984
83606SOL     OW52650  13.742   1.487   0.233
83606SOL    HW152651  13.755   1.549   0.161
83606SOL    HW252652  13.824   1.437   0.235
83607SOL     OW52653   9.026  12.116   4.211
83607SOL    HW152654   9.060  12.027   4.209
83607SOL    HW252655   9.105  12.171   4.214
83608SOL     OW52656   6.670  11.782   6.598
83608SOL    HW152657   6.584  11.793   6.558
83608SOL    HW252658   6.728  11.764   6.524
83609SOL     OW52659   1.328  10.392   0.636
83609SOL    HW152660   1.399  10.444   0.600
83609SOL    HW252661   1.248  10.439   0.611
83610SOL     OW52662   0.336   1.108   4.804
83610SOL    HW152663   0.260   1.106   4.745
83610SOL    HW252664   0.347   1.017   4.831
83611SOL     OW52665  14.172   3.562  11.598
83611SOL    HW152666  14.165   3.657  11.602
83611SOL    HW252667  14.115   3.531  11.668
83612SOL     OW52668  12.007   9.626   0.425
83612SOL    HW152669  12.059   9.598   0.350
83612SOL    HW252670  11.937   9.681   0.388
83613SOL     OW52671  13.408   8.972  12.492
83613SOL    HW152672  13.398   9.012  12.406
83613SOL    HW252673  13.447   9.041  12.547
83614SOL     OW52674  11.331  10.401   6.604
83614SOL    HW152675  11.289  10.327   6.561
83614SOL    HW252676  11.423  10.375   6.612
83615SOL     OW52677   3.273   7.370  12.043
83615SOL    HW152678   3.335   7.388  12.114
83615SOL    HW252679   3.219   7.298  12.075
83616SOL     OW52680   8.474  12.770   5.339
83616SOL    HW152681   8.425  12.716   5.401
83616SOL    HW252682   8.416  12.778   5.263
83617SOL     OW52683  10.213   1.156  11.229
83617SOL    HW152684  10.123   1.159  11.260
83617SOL    HW252685  10.241   1.248  11.226
83618SOL     OW52686   6.132   3.454   2.371
83618SOL    HW152687   6.165   3.388   2.311
83618SOL    HW252688   6.158   3.537   2.333
83619SOL     OW52689  12.750  11.463  14.459
83619SOL    HW152690  12.774  11.409  14.384
83619SOL    HW252691  12.736  11.550  14.424
83620SOL     OW52692   0.314   5.642  12.161
83620SOL    HW152693   0.250   5.706  12.128
83620SOL    HW252694   0.285   5.558  12.125
83621SOL     OW52695  12.461   4.364   7.375
83621SOL    HW152696  12.538   4.315   7.348
83621SOL    HW252697  12.388   4.319   7.333
83622SOL     OW52698  10.613   2.003  13.221
83622SOL    HW152699  10.585   1.918  13.186
83622SOL    HW252700  10.598   1.995  13.316
83623SOL     OW52701   6.776   6.370   5.241
83623SOL    HW152702   6.824   6.428   5.182
83623SOL    HW252703   6.684   6.390   5.226
83624SOL     OW52704   9.515   2.967  13.117
83624SOL    HW152705   9.576   2.893  13.106
83624SOL    HW252706   9.447   2.952  13.052
83625SOL     OW52707  11.840   9.278   3.914
83625SOL    HW152708  11.832   9.364   3.873
83625SOL    HW252709  11.751   9.255   3.941
83626SOL     OW52710   9.706  13.196   8.460
83626SOL    HW152711   9.789  13.198   8.508
83626SOL    HW252712   9.660  13.275   8.489
83627SOL     OW52713  10.449  12.970   7.574
83627SOL    HW152714  10.506  13.041   7.544
83627SOL    HW252715  10.449  12.907   7.501
83628SOL     OW52716   5.886   1.587   9.934
83628SOL    HW152717   5.808   1.555   9.979
83628SOL    HW252718   5.947   1.513   9.937
83629SOL     OW52719   6.375   1.422   1.155
83629SOL    HW152720   6.402   1.466   1.074
83629SOL    HW252721   6.457   1.409   1.204
83630SOL     OW52722   0.056   7.236   5.350
83630SOL    HW152723   0.074   7.193   5.433
83630SOL    HW252724  14.872   7.305   5.371
83631SOL     OW52725   1.511  11.464   8.892
83631SOL    HW152726   1.476  11.474   8.804
83631SOL    HW252727   1.467  11.531   8.943
83632SOL     OW52728   6.305  11.507  13.485
83632SOL    HW152729   6.236  11.440  13.481
83632SOL    HW252730   6.324  11.515  13.578
83633SOL     OW52731   4.706   7.384   9.165
83633SOL    HW152732   4.661   7.331   9.100
83633SOL    HW252733   4.760   7.321   9.213
83634SOL     OW52734   5.045   2.766  13.748
83634SOL    HW152735   5.017   2.697  13.689
83634SOL    HW252736   5.093   2.828  13.693
83635SOL     OW52737  10.544   7.016   5.917
83635SOL    HW152738  10.576   7.092   5.964
83635SOL    HW252739  10.512   6.957   5.986
83636SOL     OW52740  10.088  14.121  14.853
83636SOL    HW152741  10.048  14.161   0.051
83636SOL    HW252742  10.025  14.138  14.782
83637SOL     OW52743  14.577   7.279   8.552
83637SOL    HW152744  14.633   7.351   8.523
83637SOL    HW252745  14.504   7.278   8.490
83638SOL     OW52746  14.753  14.128   6.363
83638SOL    HW152747  14.715  14.041   6.353
83638SOL    HW252748  14.848  14.114   6.362
83639SOL     OW52749   2.984  11.000  12.013
83639SOL    HW152750   3.053  11.033  11.955
83639SOL    HW252751   2.929  11.076  12.031
83640SOL     OW52752   6.807  14.811  10.411
83640SOL    HW152753   6.772  14.722  10.414
83640SOL    HW252754   6.902  14.799  10.410
83641SOL     OW52755   6.743  11.386  14.141
83641SOL    HW152756   6.759  11.437  14.221
83641SOL    HW252757   6.651  11.360  14.147
83642SOL     OW52758  13.227   3.802   2.242
83642SOL    HW152759  13.221   3.896   2.258
83642SOL    HW252760  13.197   3.762   2.324
83643SOL     OW52761   8.973   7.215  13.019
83643SOL    HW152762   8.981   7.133  13.067
83643SOL    HW252763   9.029   7.205  12.943
83644SOL     OW52764   6.948  11.297  11.822
83644SOL    HW152765   7.016  11.290  11.889
83644SOL    HW252766   6.909  11.209  11.818
83645SOL     OW52767  12.960  12.483   2.527
83645SOL    HW152768  12.885  12.440   2.568
83645SOL    HW252769  12.930  12.503   2.438
83646SOL     OW52770   8.935  14.533  14.000
83646SOL    HW152771   8.850  14.493  13.984
83646SOL    HW252772   8.920  14.592  14.073
83647SOL     OW52773   4.143  11.741   7.655
83647SOL    HW152774   4.142  11.646   7.647
83647SOL    HW252775   4.226  11.761   7.698
83648SOL     OW52776   0.657   3.283   6.672
83648SOL    HW152777   0.748   3.311   6.657
83648SOL    HW252778   0.652   3.267   6.766
83649SOL     OW52779  12.012  11.308  12.585
83649SOL    HW152780  11.946  11.338  12.522
83649SOL    HW252781  12.088  11.287  12.531
83650SOL     OW52782   3.513   4.290  10.580
83650SOL    HW152783   3.519   4.240  10.662
83650SOL    HW252784   3.545   4.377  10.604
83651SOL     OW52785  10.875   1.887   8.043
83651SOL    HW152786  10.813   1.929   8.103
83651SOL    HW252787  10.832   1.892   7.958
83652SOL     OW52788  11.003  11.616  13.161
83652SOL    HW152789  10.933  11.645  13.219
83652SOL    HW252790  10.962  11.552  13.104
83653SOL     OW52791   0.577  11.240   5.559
83653SOL    HW152792   0.626  11.216   5.638
83653SOL    HW252793   0.536  11.323   5.582
83654SOL     OW52794  12.984   2.670  10.086
83654SOL    HW152795  12.920   2.603  10.061
83654SOL    HW252796  12.932   2.749  10.099
83655SOL     OW52797  14.802  12.710   2.751
83655SOL    HW152798  14.748  12.701   2.672
83655SOL    HW252799   0.013  12.714   2.719
83656SOL     OW52800   8.003  12.596  11.364
83656SOL    HW152801   8.088  12.630  11.392
83656SOL    HW252802   7.985  12.641  11.281
83657SOL     OW52803   1.643  14.044  11.251
83657SOL    HW152804   1.724  14.042  11.301
83657SOL    HW252805   1.671  14.034  11.160
83658SOL     OW52806   8.063   3.772   2.949
83658SOL    HW152807   7.969   3.770   2.931
83658SOL    HW252808   8.099   3.701   2.897
83659SOL     OW52809   4.798  12.119  12.746
83659SOL    HW152810   4.823  12.212  12.752
83659SOL    HW252811   4.717  12.113  12.796
83660SOL     OW52812  12.032  13.066   4.803
83660SOL    HW152813  11.969  13.004   4.767
83660SOL    HW252814  12.111  13.055   4.750
83661SOL     OW52815   4.619   8.985   4.102
83661SOL    HW152816   4.567   8.979   4.183
83661SOL    HW252817   4.698   8.935   4.122
83662SOL     OW52818  14.826   1.528  12.463
83662SOL    HW152819  14.843   1.600  12.402
83662SOL    HW252820  14.794   1.457  12.408
83663SOL     OW52821  10.127   7.824   4.616
83663SOL    HW152822  10.099   7.772   4.541
83663SOL    HW252823  10.051   7.824   4.675
83664SOL     OW52824   8.635   1.599  13.587
83664SOL    HW152825   8.564   1.621  13.527
83664SOL    HW252826   8.603   1.522  13.634
83665SOL     OW52827   6.077   0.056  10.584
83665SOL    HW152828   6.146  14.872  10.562
83665SOL    HW252829   5.999   0.023  10.540
83666SOL     OW52830   8.164  12.204  10.778
83666SOL    HW152831   8.238  12.159  10.738
83666SOL    HW252832   8.118  12.135  10.827
83667SOL     OW52833  10.476   7.297   4.368
83667SOL    HW152834  10.430   7.279   4.450
83667SOL    HW252835  10.482   7.212   4.324
83668SOL     OW52836   8.613  14.127   6.720
83668SOL    HW152837   8.691  14.074   6.706
83668SOL    HW252838   8.616  14.151   6.812
83669SOL     OW52839  12.032   0.941   5.959
83669SOL    HW152840  12.119   0.975   5.977
83669SOL    HW252841  11.973   1.016   5.973
83670SOL     OW52842   6.569  13.940   6.596
83670SOL    HW152843   6.587  13.891   6.515
83670SOL    HW252844   6.494  13.995   6.574
83671SOL     OW52845   2.624   7.875   8.065
83671SOL    HW152846   2.664   7.799   8.024
83671SOL    HW252847   2.530   7.867   8.045
83672SOL     OW52848  11.188   3.803   2.215
83672SOL    HW152849  11.229   3.719   2.194
83672SOL    HW252850  11.144   3.788   2.299
83673SOL     OW52851   6.784   2.581   0.722
83673SOL    HW152852   6.786   2.669   0.759
83673SOL    HW252853   6.695   2.572   0.687
83674SOL     OW52854   4.086   3.799   5.865
83674SOL    HW152855   4.017   3.821   5.803
83674SOL    HW252856   4.043   3.799   5.950
83675SOL     OW52857   2.609   3.507   1.433
83675SOL    HW152858   2.655   3.552   1.362
83675SOL    HW252859   2.519   3.539   1.426
83676SOL     OW52860  12.989  13.843  10.753
83676SOL    HW152861  13.017  13.863  10.664
83676SOL    HW252862  13.068  13.853  10.806
83677SOL     OW52863   4.265  11.103   7.878
83677SOL    HW152864   4.278  11.153   7.959
83677SOL    HW252865   4.220  11.164   7.820
83678SOL     OW52866  14.103  10.787   2.275
83678SOL    HW152867  14.107  10.791   2.179
83678SOL    HW252868  14.122  10.696   2.296
83679SOL     OW52869   3.407  12.502   8.746
83679SOL    HW152870   3.435  12.450   8.671
83679SOL    HW252871   3.448  12.588   8.733
83680SOL     OW52872  14.471   1.532   4.332
83680SOL    HW152873  14.501   1.620   4.307
83680SOL    HW252874  14.521   1.512   4.411
83681SOL     OW52875   6.375   3.555   0.771
83681SOL    HW152876   6.370   3.459   0.766
83681SOL    HW252877   6.338   3.577   0.856
83682SOL     OW52878   5.578  10.467   5.955
83682SOL    HW152879   5.523  10.394   5.926
83682SOL    HW252880   5.551  10.483   6.045
83683SOL     OW52881   7.509   6.344   2.668
83683SOL    HW152882   7.513   6.341   2.763
83683SOL    HW252883   7.434   6.289   2.645
83684SOL     OW52884   0.883  14.646  12.723
83684SOL    HW152885   0.810  14.685  12.676
83684SOL    HW252886   0.951  14.633  12.657
83685SOL     OW52887  12.038   0.834   2.370
83685SOL    HW152888  12.088   0.879   2.438
83685SOL    HW252889  12.104   0.801   2.309
83686SOL     OW52890   6.163  11.624  12.729
83686SOL    HW152891   6.136  11.543  12.685
83686SOL    HW252892   6.255  11.611  12.751
83687SOL     OW52893   4.803   3.380   0.243
83687SOL    HW152894   4.732   3.350   0.300
83687SOL    HW252895   4.882   3.365   0.294
83688SOL     OW52896   6.337   9.995   0.758
83688SOL    HW152897   6.368  10.085   0.772
83688SOL    HW252898   6.404   9.941   0.800
83689SOL     OW52899   4.058   2.877   1.578
83689SOL    HW152900   4.052   2.970   1.556
83689SOL    HW252901   3.969   2.850   1.598
83690SOL     OW52902   6.027   1.849  12.657
83690SOL    HW152903   6.112   1.809  12.668
83690SOL    HW252904   5.967   1.776  12.640
83691SOL     OW52905  14.272   0.695   6.938
83691SOL    HW152906  14.192   0.729   6.899
83691SOL    HW252907  14.340   0.713   6.873
83692SOL     OW52908  13.805  13.352  13.589
83692SOL    HW152909  13.780  13.441  13.563
83692SOL    HW252910  13.898  13.346  13.568
83693SOL     OW52911  12.000   6.073   0.283
83693SOL    HW152912  12.085   6.061   0.242
83693SOL    HW252913  12.007   6.028   0.367
83694SOL     OW52914  12.257   5.477   9.664
83694SOL    HW152915  12.166   5.504   9.652
83694SOL    HW252916  12.265   5.395   9.616
83695SOL     OW52917   5.673   7.171   4.007
83695SOL    HW152918   5.653   7.199   3.917
83695SOL    HW252919   5.684   7.253   4.056
83696SOL     OW52920  12.526   5.686  12.684
83696SOL    HW152921  12.465   5.625  12.726
83696SOL    HW252922  12.499   5.686  12.592
83697SOL     OW52923   3.538   6.847   8.247
83697SOL    HW152924   3.622   6.836   8.291
83697SOL    HW252925   3.548   6.926   8.195
83698SOL     OW52926   3.952   2.693   7.940
83698SOL    HW152927   3.976   2.774   7.985
83698SOL    HW252928   4.022   2.632   7.963
83699SOL     OW52929   2.670   5.253   8.374
83699SOL    HW152930   2.735   5.270   8.442
83699SOL    HW252931   2.672   5.330   8.318
83700SOL     OW52932  12.403  13.143   4.418
83700SOL    HW152933  12.484  13.191   4.436
83700SOL    HW252934  12.410  13.120   4.325
83701SOL     OW52935   5.935  12.729   4.361
83701SOL    HW152936   5.958  12.819   4.384
83701SOL    HW252937   5.995  12.675   4.414
83702SOL     OW52938   4.069  10.695   3.573
83702SOL    HW152939   4.076  10.779   3.619
83702SOL    HW252940   3.977  10.669   3.584
83703SOL     OW52941  13.463   1.366  14.261
83703SOL    HW152942  13.394   1.342  14.323
83703SOL    HW252943  13.417   1.387  14.180
83704SOL     OW52944  10.571   0.078   6.211
83704SOL    HW152945  10.618   0.158   6.232
83704SOL    HW252946  10.480   0.096   6.234
83705SOL     OW52947  11.143   2.249  13.532
83705SOL    HW152948  11.208   2.282  13.594
83705SOL    HW252949  11.085   2.324  13.517
83706SOL     OW52950  12.390   3.480  10.189
83706SOL    HW152951  12.312   3.522  10.153
83706SOL    HW252952  12.388   3.391  10.155
83707SOL     OW52953   7.883   7.605  12.376
83707SOL    HW152954   7.801   7.629  12.333
83707SOL    HW252955   7.858   7.587  12.467
83708SOL     OW52956   6.623   7.231  12.801
83708SOL    HW152957   6.659   7.258  12.716
83708SOL    HW252958   6.685   7.266  12.865
83709SOL     OW52959   9.076   3.350   0.397
83709SOL    HW152960   9.047   3.373   0.485
83709SOL    HW252961   9.008   3.386   0.339
83710SOL     OW52962   6.142   7.695   0.237
83710SOL    HW152963   6.127   7.605   0.207
83710SOL    HW252964   6.152   7.746   0.157
83711SOL     OW52965  11.450   7.113  12.495
83711SOL    HW152966  11.501   7.135  12.573
83711SOL    HW252967  11.489   7.166  12.425
83712SOL     OW52968   3.963   2.357  10.563
83712SOL    HW152969   3.956   2.312  10.479
83712SOL    HW252970   4.052   2.338  10.593
83713SOL     OW52971   4.552   7.930   8.137
83713SOL    HW152972   4.478   7.960   8.083
83713SOL    HW252973   4.606   8.008   8.149
83714SOL     OW52974  13.459   3.326   1.957
83714SOL    HW152975  13.442   3.388   1.886
83714SOL    HW252976  13.387   3.263   1.951
83715SOL     OW52977   8.405   8.480  14.637
83715SOL    HW152978   8.336   8.490  14.571
83715SOL    HW252979   8.363   8.506  14.720
83716SOL     OW52980   1.190  11.670   5.368
83716SOL    HW152981   1.107  11.712   5.346
83716SOL    HW252982   1.230  11.651   5.283
83717SOL     OW52983   7.661   4.195   9.753
83717SOL    HW152984   7.735   4.248   9.722
83717SOL    HW252985   7.594   4.259   9.776
83718SOL     OW52986  12.529  14.366   9.513
83718SOL    HW152987  12.624  14.378   9.503
83718SOL    HW252988  12.491  14.436   9.459
83719SOL     OW52989   4.179  14.147   3.979
83719SOL    HW152990   4.085  14.147   3.996
83719SOL    HW252991   4.190  14.093   3.900
83720SOL     OW52992   0.664  10.242   4.277
83720SOL    HW152993   0.591  10.281   4.228
83720SOL    HW252994   0.708  10.316   4.318
83721SOL     OW52995   3.854   7.304   8.235
83721SOL    HW152996   3.894   7.362   8.170
83721SOL    HW252997   3.860   7.217   8.196
83722SOL     OW52998   3.611  10.730   5.562
83722SOL    HW152999   3.551  10.728   5.487
83722SOL    HW253000   3.685  10.783   5.532
83723SOL     OW53001  11.209   9.227  11.459
83723SOL    HW153002  11.120   9.208  11.429
83723SOL    HW253003  11.240   9.145  11.499
83724SOL     OW53004   7.211  10.701  12.732
83724SOL    HW153005   7.294  10.725  12.773
83724SOL    HW253006   7.197  10.610  12.758
83725SOL     OW53007   9.590  13.094   4.705
83725SOL    HW153008   9.663  13.119   4.762
83725SOL    HW253009   9.524  13.058   4.766
83726SOL     OW53010   5.332  10.552   4.778
83726SOL    HW153011   5.307  10.526   4.689
83726SOL    HW253012   5.276  10.628   4.797
83727SOL     OW53013   0.343   4.357  13.063
83727SOL    HW153014   0.365   4.271  13.100
83727SOL    HW253015   0.414   4.415  13.092
83728SOL     OW53016   0.969   9.560   1.748
83728SOL    HW153017   0.879   9.587   1.770
83728SOL    HW253018   1.018   9.642   1.741
83729SOL     OW53019  13.369   3.041   6.316
83729SOL    HW153020  13.414   3.063   6.398
83729SOL    HW253021  13.280   3.021   6.343
83730SOL     OW53022  11.303   4.131   3.764
83730SOL    HW153023  11.370   4.076   3.723
83730SOL    HW253024  11.228   4.124   3.705
83731SOL     OW53025   0.055   0.974  12.545
83731SOL    HW153026   0.094   0.988  12.631
83731SOL    HW253027  14.843   1.005  12.555
83732SOL     OW53028   0.091  10.402   1.426
83732SOL    HW153029   0.172  10.351   1.427
83732SOL    HW253030   0.073  10.420   1.518
83733SOL     OW53031   5.636   3.257  11.976
83733SOL    HW153032   5.667   3.172  12.006
83733SOL    HW253033   5.658   3.259  11.883
83734SOL     OW53034  14.482  12.486   4.275
83734SOL    HW153035  14.475  12.400   4.315
83734SOL    HW253036  14.402  12.531   4.302
83735SOL     OW53037  12.683   4.806   0.126
83735SOL    HW153038  12.697   4.743   0.056
83735SOL    HW253039  12.745   4.782   0.194
83736SOL     OW53040   1.454  11.448   0.656
83736SOL    HW153041   1.453  11.362   0.614
83736SOL    HW253042   1.376  11.449   0.711
83737SOL     OW53043   1.886   9.697   8.545
83737SOL    HW153044   1.811   9.756   8.549
83737SOL    HW253045   1.864   9.634   8.477
83738SOL     OW53046   0.393   2.242  12.331
83738SOL    HW153047   0.396   2.244  12.235
83738SOL    HW253048   0.391   2.149  12.353
83739SOL     OW53049   2.719   8.111   5.966
83739SOL    HW153050   2.644   8.155   5.925
83739SOL    HW253051   2.726   8.151   6.053
83740SOL     OW53052   4.556   3.367  13.161
83740SOL    HW153053   4.499   3.290  13.162
83740SOL    HW253054   4.496   3.441  13.150
83741SOL     OW53055   7.067   0.033   4.080
83741SOL    HW153056   7.020   0.030   3.997
83741SOL    HW253057   7.021  14.849   4.136
83742SOL     OW53058   0.355   7.259   2.015
83742SOL    HW153059   0.361   7.164   2.029
83742SOL    HW253060   0.336   7.269   1.922
83743SOL     OW53061   6.661   0.799  12.459
83743SOL    HW153062   6.718   0.727  12.433
83743SOL    HW253063   6.699   0.831  12.541
83744SOL     OW53064  12.861   6.344   3.642
83744SOL    HW153065  12.918   6.370   3.570
83744SOL    HW253066  12.780   6.316   3.600
83745SOL     OW53067  11.021   4.450  14.069
83745SOL    HW153068  11.037   4.533  14.024
83745SOL    HW253069  11.003   4.475  14.160
83746SOL     OW53070   6.341  10.752  14.871
83746SOL    HW153071   6.287  10.830  14.878
83746SOL    HW253072   6.387  10.762  14.788
83747SOL     OW53073   7.173   8.832   6.056
83747SOL    HW153074   7.179   8.744   6.020
83747SOL    HW253075   7.252   8.876   6.024
83748SOL     OW53076   3.043   2.568   9.327
83748SOL    HW153077   3.115   2.594   9.270
83748SOL    HW253078   2.975   2.634   9.311
83749SOL     OW53079   8.466  12.358  10.933
83749SOL    HW153080   8.412  12.428  10.896
83749SOL    HW253081   8.505  12.398  11.011
83750SOL     OW53082   2.341   1.667  10.516
83750SOL    HW153083   2.431   1.663  10.548
83750SOL    HW253084   2.289   1.632  10.589
83751SOL     OW53085   1.828   0.646   1.007
83751SOL    HW153086   1.828   0.558   0.967
83751SOL    HW253087   1.823   0.629   1.101
83752SOL     OW53088   0.582  12.281  10.962
83752SOL    HW153089   0.659  12.321  11.003
83752SOL    HW253090   0.613  12.197  10.929
83753SOL     OW53091   9.782   8.496   5.320
83753SOL    HW153092   9.828   8.566   5.366
83753SOL    HW253093   9.739   8.540   5.246
83754SOL     OW53094   2.297  11.802   9.973
83754SOL    HW153095   2.382  11.845   9.967
83754SOL    HW253096   2.252  11.824   9.892
83755SOL     OW53097   4.001   8.844  10.826
83755SOL    HW153098   3.955   8.895  10.892
83755SOL    HW253099   3.976   8.754  10.844
83756SOL     OW53100   2.874  11.438  11.350
83756SOL    HW153101   2.841  11.425  11.261
83756SOL    HW253102   2.965  11.465  11.339
83757SOL     OW53103  11.992   6.620   9.487
83757SOL    HW153104  11.903   6.643   9.515
83757SOL    HW253105  11.986   6.529   9.460
83758SOL     OW53106   0.391   4.402  13.365
83758SOL    HW153107   0.316   4.351  13.334
83758SOL    HW253108   0.368   4.428  13.454
83759SOL     OW53109   5.160  14.467  11.614
83759SOL    HW153110   5.118  14.539  11.661
83759SOL    HW253111   5.121  14.388  11.652
83760SOL     OW53112  11.278   2.487  12.714
83760SOL    HW153113  11.278   2.392  12.705
83760SOL    HW253114  11.351   2.506  12.773
83761SOL     OW53115   6.800  14.040   6.331
83761SOL    HW153116   6.726  14.078   6.378
83761SOL    HW253117   6.863  14.112   6.324
83762SOL     OW53118   8.300   3.054   9.691
83762SOL    HW153119   8.372   3.112   9.666
83762SOL    HW253120   8.222   3.110   9.688
83763SOL     OW53121  11.325  12.130   5.488
83763SOL    HW153122  11.305  12.220   5.510
83763SOL    HW253123  11.294  12.079   5.562
83764SOL     OW53124   3.120   7.989   3.210
83764SOL    HW153125   3.098   8.076   3.243
83764SOL    HW253126   3.053   7.932   3.248
83765SOL     OW53127   2.145  10.296   1.755
83765SOL    HW153128   2.129  10.320   1.664
83765SOL    HW253129   2.240  10.298   1.765
83766SOL     OW53130   9.974  10.164   3.582
83766SOL    HW153131   9.914  10.204   3.518
83766SOL    HW253132  10.061  10.180   3.546
83767SOL     OW53133  12.577  14.229   8.220
83767SOL    HW153134  12.625  14.148   8.201
83767SOL    HW253135  12.624  14.269   8.293
83768SOL     OW53136   3.959   7.620   8.393
83768SOL    HW153137   3.923   7.643   8.478
83768SOL    HW253138   4.030   7.683   8.379
83769SOL     OW53139  12.352   4.967   7.693
83769SOL    HW153140  12.434   5.015   7.703
83769SOL    HW253141  12.369   4.881   7.730
83770SOL     OW53142   6.421   0.117   1.814
83770SOL    HW153143   6.402   0.121   1.908
83770SOL    HW253144   6.508   0.077   1.809
83771SOL     OW53145  14.145  13.800   4.423
83771SOL    HW153146  14.160  13.731   4.488
83771SOL    HW253147  14.123  13.878   4.474
83772SOL     OW53148  13.865   1.097   9.172
83772SOL    HW153149  13.918   1.059   9.102
83772SOL    HW253150  13.777   1.063   9.158
83773SOL     OW53151   0.950   5.943   7.664
83773SOL    HW153152   1.024   5.995   7.697
83773SOL    HW253153   0.891   5.935   7.739
83774SOL     OW53154   1.705  11.425   5.786
83774SOL    HW153155   1.671  11.460   5.704
83774SOL    HW253156   1.644  11.355   5.810
83775SOL     OW53157   9.804   4.604  12.270
83775SOL    HW153158   9.844   4.523  12.238
83775SOL    HW253159   9.849   4.673  12.222
83776SOL     OW53160   6.419  10.003   0.253
83776SOL    HW153161   6.480   9.930   0.247
83776SOL    HW253162   6.379   9.993   0.339
83777SOL     OW53163   2.919   8.331   1.099
83777SOL    HW153164   2.957   8.246   1.121
83777SOL    HW253165   2.854   8.347   1.167
83778SOL     OW53166  13.765  12.102   7.236
83778SOL    HW153167  13.784  12.010   7.254
83778SOL    HW253168  13.736  12.103   7.145
83779SOL     OW53169   9.159  12.300   3.905
83779SOL    HW153170   9.139  12.346   3.986
83779SOL    HW253171   9.205  12.221   3.932
83780SOL     OW53172   0.350  12.567   4.260
83780SOL    HW153173   0.379  12.601   4.175
83780SOL    HW253174   0.273  12.513   4.240
83781SOL     OW53175  13.532  10.980   4.283
83781SOL    HW153176  13.597  10.937   4.338
83781SOL    HW253177  13.533  10.930   4.201
83782SOL     OW53178   6.001   2.603   1.648
83782SOL    HW153179   6.015   2.693   1.619
83782SOL    HW253180   5.917   2.578   1.610
83783SOL     OW53181  10.471   1.070   0.427
83783SOL    HW153182  10.549   1.119   0.405
83783SOL    HW253183  10.503   0.990   0.470
83784SOL     OW53184   9.699   4.957   8.115
83784SOL    HW153185   9.759   4.973   8.187
83784SOL    HW253186   9.750   4.903   8.054
83785SOL     OW53187   2.186   6.098   5.145
83785SOL    HW153188   2.226   6.085   5.231
83785SOL    HW253189   2.247   6.155   5.099
83786SOL     OW53190   4.449  11.997  13.509
83786SOL    HW153191   4.374  11.949  13.544
83786SOL    HW253192   4.471  11.951  13.428
83787SOL     OW53193  11.379   6.824   7.242
83787SOL    HW153194  11.371   6.879   7.319
83787SOL    HW253195  11.411   6.740   7.275
83788SOL     OW53196   6.275   5.955  14.711
83788SOL    HW153197   6.309   5.866  14.704
83788SOL    HW253198   6.192   5.946  14.758
83789SOL     OW53199   9.244   8.530   3.940
83789SOL    HW153200   9.215   8.514   4.030
83789SOL    HW253201   9.282   8.446   3.913
83790SOL     OW53202  13.841  10.362   2.025
83790SOL    HW153203  13.846  10.316   2.108
83790SOL    HW253204  13.905  10.433   2.032
83791SOL     OW53205   9.448   3.178   5.657
83791SOL    HW153206   9.370   3.233   5.664
83791SOL    HW253207   9.521   3.238   5.659
83792SOL     OW53208  10.976  10.772   7.863
83792SOL    HW153209  10.975  10.685   7.823
83792SOL    HW253210  11.050  10.817   7.822
83793SOL     OW53211   5.107  14.439   1.028
83793SOL    HW153212   5.169  14.367   1.014
83793SOL    HW253213   5.123  14.498   0.954
83794SOL     OW53214   4.074  10.538   1.112
83794SOL    HW153215   4.035  10.522   1.198
83794SOL    HW253216   4.142  10.471   1.104
83795SOL     OW53217   4.658   7.035   8.285
83795SOL    HW153218   4.664   6.974   8.358
83795SOL    HW253219   4.588   7.096   8.310
83796SOL     OW53220  11.657   5.867  10.018
83796SOL    HW153221  11.571   5.908  10.023
83796SOL    HW253222  11.716   5.929  10.062
83797SOL     OW53223   6.557   6.565   6.544
83797SOL    HW153224   6.625   6.604   6.489
83797SOL    HW253225   6.497   6.523   6.482
83798SOL     OW53226   9.077   0.096   7.206
83798SOL    HW153227   9.001   0.060   7.160
83798SOL    HW253228   9.126   0.143   7.138
83799SOL     OW53229   1.638   3.405   1.347
83799SOL    HW153230   1.625   3.424   1.254
83799SOL    HW253231   1.555   3.431   1.388
83800SOL     OW53232  13.924   4.473   3.551
83800SOL    HW153233  13.911   4.378   3.556
83800SOL    HW253234  13.958   4.497   3.637
83801SOL     OW53235   2.330  12.211   4.524
83801SOL    HW153236   2.316  12.293   4.571
83801SOL    HW253237   2.256  12.204   4.464
83802SOL     OW53238   4.661  11.301  10.659
83802SOL    HW153239   4.710  11.219  10.649
83802SOL    HW253240   4.617  11.293  10.744
83803SOL     OW53241   0.525   0.185   3.368
83803SOL    HW153242   0.446   0.183   3.421
83803SOL    HW253243   0.527   0.273   3.330
83804SOL     OW53244   1.786   5.487   0.917
83804SOL    HW153245   1.803   5.539   0.838
83804SOL    HW253246   1.708   5.436   0.896
83805SOL     OW53247   0.156   7.282   4.498
83805SOL    HW153248   0.218   7.312   4.565
83805SOL    HW253249   0.073   7.273   4.545
83806SOL     OW53250   4.091   4.523   9.339
83806SOL    HW153251   4.100   4.428   9.338
83806SOL    HW253252   4.141   4.553   9.263
83807SOL     OW53253  13.862   1.627   2.805
83807SOL    HW153254  13.838   1.718   2.823
83807SOL    HW253255  13.957   1.625   2.816
83808SOL     OW53256   5.998   6.698  13.827
83808SOL    HW153257   6.089   6.719  13.804
83808SOL    HW253258   5.955   6.683  13.743
83809SOL     OW53259   7.347  10.909  10.876
83809SOL    HW153260   7.359  10.988  10.823
83809SOL    HW253261   7.426  10.858  10.862
83810SOL     OW53262   5.509   8.203   4.615
83810SOL    HW153263   5.426   8.234   4.650
83810SOL    HW253264   5.575   8.252   4.665
83811SOL     OW53265  13.141  10.240   1.994
83811SOL    HW153266  13.136  10.144   1.996
83811SOL    HW253267  13.201  10.262   2.066
83812SOL     OW53268   8.638  12.642   1.065
83812SOL    HW153269   8.658  12.730   1.098
83812SOL    HW253270   8.697  12.584   1.112
83813SOL     OW53271  13.524  13.697   1.950
83813SOL    HW153272  13.467  13.678   2.024
83813SOL    HW253273  13.601  13.738   1.989
83814SOL     OW53274   6.734   8.061   8.043
83814SOL    HW153275   6.736   8.075   8.138
83814SOL    HW253276   6.827   8.060   8.018
83815SOL     OW53277   8.970   2.114   5.298
83815SOL    HW153278   8.959   2.138   5.389
83815SOL    HW253279   8.907   2.168   5.250
83816SOL     OW53280  14.698   8.007   5.871
83816SOL    HW153281  14.701   8.089   5.823
83816SOL    HW253282  14.788   7.993   5.901
83817SOL     OW53283  10.758   2.023   4.729
83817SOL    HW153284  10.714   2.054   4.808
83817SOL    HW253285  10.839   1.982   4.760
83818SOL     OW53286   5.000   8.615   1.094
83818SOL    HW153287   4.943   8.621   1.170
83818SOL    HW253288   5.089   8.610   1.131
83819SOL     OW53289   1.907   3.595   8.739
83819SOL    HW153290   1.931   3.666   8.680
83819SOL    HW253291   1.867   3.529   8.683
83820SOL     OW53292  14.537  10.452   6.318
83820SOL    HW153293  14.447  10.434   6.343
83820SOL    HW253294  14.563  10.525   6.376
83821SOL     OW53295   7.031  12.545   1.267
83821SOL    HW153296   7.012  12.632   1.304
83821SOL    HW253297   6.976  12.486   1.317
83822SOL     OW53298  12.363   6.850   3.902
83822SOL    HW153299  12.446   6.872   3.860
83822SOL    HW253300  12.300   6.849   3.831
83823SOL     OW53301   2.629   8.199  12.221
83823SOL    HW153302   2.539   8.201  12.189
83823SOL    HW253303   2.677   8.149  12.155
83824SOL     OW53304  14.415  11.692  10.418
83824SOL    HW153305  14.339  11.750  10.423
83824SOL    HW253306  14.381  11.610  10.383
83825SOL     OW53307   1.005   1.663  12.511
83825SOL    HW153308   0.939   1.719  12.552
83825SOL    HW253309   0.962   1.629  12.433
83826SOL     OW53310   0.681   1.134   7.644
83826SOL    HW153311   0.652   1.064   7.702
83826SOL    HW253312   0.736   1.191   7.699
83827SOL     OW53313   4.857  14.416   7.251
83827SOL    HW153314   4.853  14.403   7.157
83827SOL    HW253315   4.766  14.414   7.280
83828SOL     OW53316  13.093   4.913  11.790
83828SOL    HW153317  13.056   4.944  11.707
83828SOL    HW253318  13.045   4.832  11.808
83829SOL     OW53319   2.945  11.612   3.057
83829SOL    HW153320   2.914  11.671   2.988
83829SOL    HW253321   2.879  11.620   3.126
83830SOL     OW53322  10.864  13.448  12.148
83830SOL    HW153323  10.845  13.530  12.193
83830SOL    HW253324  10.930  13.405  12.203
83831SOL     OW53325   8.025   2.049   7.941
83831SOL    HW153326   8.094   2.039   8.007
83831SOL    HW253327   8.062   2.013   7.861
83832SOL     OW53328   1.181   4.054  12.840
83832SOL    HW153329   1.093   4.086  12.820
83832SOL    HW253330   1.197   4.083  12.930
83833SOL     OW53331   7.397   1.062  14.486
83833SOL    HW153332   7.305   1.087  14.477
83833SOL    HW253333   7.424   1.036  14.398
83834SOL     OW53334  12.859   1.681  14.425
83834SOL    HW153335  12.910   1.720  14.497
83834SOL    HW253336  12.844   1.591  14.452
83835SOL     OW53337  11.664   3.050  14.571
83835SOL    HW153338  11.569   3.043  14.560
83835SOL    HW253339  11.683   2.995  14.647
83836SOL     OW53340   5.976   1.497  11.723
83836SOL    HW153341   5.992   1.496  11.818
83836SOL    HW253342   5.992   1.406  11.696
83837SOL     OW53343   1.616  11.087   6.582
83837SOL    HW153344   1.655  11.035   6.512
83837SOL    HW253345   1.663  11.059   6.661
83838SOL     OW53346   4.533   7.552  12.506
83838SOL    HW153347   4.594   7.588  12.570
83838SOL    HW253348   4.581   7.554  12.423
83839SOL     OW53349   2.778  14.622  12.265
83839SOL    HW153350   2.738  14.647  12.182
83839SOL    HW253351   2.768  14.527  12.268
83840SOL     OW53352   1.005   2.110  11.141
83840SOL    HW153353   0.962   2.142  11.062
83840SOL    HW253354   0.995   2.015  11.137
83841SOL     OW53355   6.703  13.089   8.066
83841SOL    HW153356   6.666  13.129   7.987
83841SOL    HW253357   6.679  13.150   8.137
83842SOL     OW53358   8.689   7.996   1.126
83842SOL    HW153359   8.706   7.977   1.219
83842SOL    HW253360   8.760   7.953   1.079
83843SOL     OW53361  11.778   1.345   4.352
83843SOL    HW153362  11.738   1.321   4.436
83843SOL    HW253363  11.717   1.313   4.287
83844SOL     OW53364   5.955  12.331   5.198
83844SOL    HW153365   5.980  12.323   5.290
83844SOL    HW253366   5.991  12.253   5.156
83845SOL     OW53367   0.194   1.322   1.025
83845SOL    HW153368   0.117   1.361   0.983
83845SOL    HW253369   0.204   1.371   1.107
83846SOL     OW53370   1.305   6.357   2.481
83846SOL    HW153371   1.319   6.324   2.570
83846SOL    HW253372   1.245   6.431   2.492
83847SOL     OW53373  11.208   8.865   9.229
83847SOL    HW153374  11.115   8.886   9.234
83847SOL    HW253375  11.241   8.922   9.159
83848SOL     OW53376  10.181   9.463  10.267
83848SOL    HW153377  10.136   9.384  10.237
83848SOL    HW253378  10.128   9.493  10.341
83849SOL     OW53379   4.421   1.204   3.291
83849SOL    HW153380   4.415   1.248   3.206
83849SOL    HW253381   4.332   1.173   3.307
83850SOL     OW53382   8.182  13.909   0.426
83850SOL    HW153383   8.138  13.877   0.347
83850SOL    HW253384   8.158  14.001   0.430
83851SOL     OW53385   0.262  11.851   5.111
83851SOL    HW153386   0.193  11.827   5.173
83851SOL    HW253387   0.214  11.881   5.033
83852SOL     OW53388   8.304  11.482  10.130
83852SOL    HW153389   8.239  11.443  10.189
83852SOL    HW253390   8.356  11.409  10.100
83853SOL     OW53391  12.641   3.214   9.737
83853SOL    HW153392  12.568   3.274   9.723
83853SOL    HW253393  12.599   3.128   9.745
83854SOL     OW53394  12.819  10.110  10.781
83854SOL    HW153395  12.844  10.018  10.786
83854SOL    HW253396  12.870  10.145  10.708
83855SOL     OW53397  12.280  14.105   3.515
83855SOL    HW153398  12.312  14.115   3.604
83855SOL    HW253399  12.316  14.021   3.486
83856SOL     OW53400   3.861   1.031   4.496
83856SOL    HW153401   3.773   1.063   4.515
83856SOL    HW253402   3.907   1.108   4.462
83857SOL     OW53403   7.478  11.903   5.463
83857SOL    HW153404   7.390  11.904   5.426
83857SOL    HW253405   7.536  11.899   5.387
83858SOL     OW53406  14.693   2.300   8.146
83858SOL    HW153407  14.647   2.383   8.151
83858SOL    HW253408  14.625   2.233   8.156
83859SOL     OW53409   2.797   7.500  13.146
83859SOL    HW153410   2.798   7.471  13.055
83859SOL    HW253411   2.878   7.465  13.183
83860SOL     OW53412   7.115   6.520  10.974
83860SOL    HW153413   7.180   6.457  10.942
83860SOL    HW253414   7.109   6.502  11.068
83861SOL     OW53415  10.981   4.596   4.595
83861SOL    HW153416  10.902   4.650   4.599
83861SOL    HW253417  10.999   4.573   4.686
83862SOL     OW53418  12.705   8.961   5.781
83862SOL    HW153419  12.609   8.967   5.785
83862SOL    HW253420  12.727   8.889   5.839
83863SOL     OW53421   7.737   7.673  14.680
83863SOL    HW153422   7.795   7.635  14.746
83863SOL    HW253423   7.653   7.684  14.726
83864SOL     OW53424   8.969   8.166   8.023
83864SOL    HW153425   8.914   8.123   7.958
83864SOL    HW253426   8.907   8.202   8.087
83865SOL     OW53427   9.518   5.371   9.473
83865SOL    HW153428   9.480   5.394   9.388
83865SOL    HW253429   9.449   5.389   9.536
83866SOL     OW53430   8.730   7.625   3.027
83866SOL    HW153431   8.638   7.648   3.042
83866SOL    HW253432   8.767   7.702   2.984
83867SOL     OW53433   1.427   7.436  12.168
83867SOL    HW153434   1.465   7.523  12.182
83867SOL    HW253435   1.333   7.452  12.162
83868SOL     OW53436   3.388   1.142   6.650
83868SOL    HW153437   3.425   1.158   6.563
83868SOL    HW253438   3.462   1.110   6.701
83869SOL     OW53439   6.281  13.978   5.783
83869SOL    HW153440   6.373  13.960   5.765
83869SOL    HW253441   6.247  13.897   5.821
83870SOL     OW53442   8.821  11.874   6.460
83870SOL    HW153443   8.797  11.782   6.468
83870SOL    HW253444   8.916  11.874   6.456
83871SOL     OW53445   7.492   2.068   3.607
83871SOL    HW153446   7.490   2.069   3.512
83871SOL    HW253447   7.400   2.075   3.633
83872SOL     OW53448  13.303  12.780   3.548
83872SOL    HW153449  13.254  12.750   3.625
83872SOL    HW253450  13.242  12.773   3.475
83873SOL     OW53451   5.702   7.080   2.759
83873SOL    HW153452   5.618   7.044   2.790
83873SOL    HW253453   5.687   7.174   2.755
83874SOL     OW53454   8.412  14.531  10.605
83874SOL    HW153455   8.462  14.487  10.674
83874SOL    HW253456   8.478  14.575  10.552
83875SOL     OW53457   5.008  11.321   4.501
83875SOL    HW153458   4.938  11.353   4.445
83875SOL    HW253459   4.984  11.231   4.522
83876SOL     OW53460   3.740   9.210   9.596
83876SOL    HW153461   3.700   9.226   9.510
83876SOL    HW253462   3.724   9.290   9.645
83877SOL     OW53463   3.027   1.525   8.803
83877SOL    HW153464   2.984   1.481   8.876
83877SOL    HW253465   3.014   1.618   8.820
83878SOL     OW53466   8.057   6.384  10.231
83878SOL    HW153467   8.035   6.460  10.178
83878SOL    HW253468   8.153   6.380  10.228
83879SOL     OW53469  12.144   9.419   9.452
83879SOL    HW153470  12.151   9.375   9.536
83879SOL    HW253471  12.177   9.355   9.389
83880SOL     OW53472   1.852  13.735   5.908
83880SOL    HW153473   1.940  13.764   5.934
83880SOL    HW253474   1.793  13.791   5.957
83881SOL     OW53475   4.177  11.000   2.212
83881SOL    HW153476   4.088  10.976   2.234
83881SOL    HW253477   4.167  11.074   2.151
83882SOL     OW53478   2.601   3.327   9.427
83882SOL    HW153479   2.511   3.329   9.393
83882SOL    HW253480   2.606   3.401   9.487
83883SOL     OW53481   6.691   9.905   8.319
83883SOL    HW153482   6.601   9.888   8.290
83883SOL    HW253483   6.731   9.951   8.245
83884SOL     OW53484  14.626  10.833  11.432
83884SOL    HW153485  14.595  10.743  11.443
83884SOL    HW253486  14.647  10.863  11.520
83885SOL     OW53487   4.488   6.078   2.073
83885SOL    HW153488   4.559   6.053   2.132
83885SOL    HW253489   4.408   6.068   2.125
83886SOL     OW53490   1.046   6.692  10.410
83886SOL    HW153491   1.066   6.599  10.419
83886SOL    HW253492   0.970   6.695  10.353
83887SOL     OW53493   5.949   1.858  13.670
83887SOL    HW153494   5.898   1.778  13.681
83887SOL    HW253495   5.995   1.847  13.587
83888SOL     OW53496   1.951   8.594   0.253
83888SOL    HW153497   1.978   8.677   0.293
83888SOL    HW253498   2.022   8.533   0.274
83889SOL     OW53499   9.498  12.724   3.461
83889SOL    HW153500   9.559  12.753   3.529
83889SOL    HW253501   9.553  12.680   3.396
83890SOL     OW53502  10.606  10.820   9.219
83890SOL    HW153503  10.675  10.759   9.192
83890SOL    HW253504  10.531  10.797   9.164
83891SOL     OW53505   3.836   7.476  11.464
83891SOL    HW153506   3.775   7.496  11.393
83891SOL    HW253507   3.911   7.435  11.420
83892SOL     OW53508   1.206   4.566   9.336
83892SOL    HW153509   1.184   4.494   9.276
83892SOL    HW253510   1.293   4.595   9.308
83893SOL     OW53511   7.437   4.948  14.383
83893SOL    HW153512   7.431   5.044  14.377
83893SOL    HW253513   7.441   4.919  14.292
83894SOL     OW53514   3.081  14.651   1.852
83894SOL    HW153515   3.118  14.594   1.920
83894SOL    HW253516   2.987  14.641   1.860
83895SOL     OW53517   4.805   8.711   0.198
83895SOL    HW153518   4.798   8.802   0.169
83895SOL    HW253519   4.866   8.671   0.136
83896SOL     OW53520   8.880   2.936   5.998
83896SOL    HW153521   8.922   2.860   6.039
83896SOL    HW253522   8.814   2.964   6.061
83897SOL     OW53523   4.693   9.505   3.787
83897SOL    HW153524   4.725   9.442   3.852
83897SOL    HW253525   4.760   9.505   3.719
83898SOL     OW53526   8.779  12.086   9.335
83898SOL    HW153527   8.729  12.007   9.318
83898SOL    HW253528   8.781  12.132   9.251
83899SOL     OW53529  12.951  13.135   7.977
83899SOL    HW153530  12.933  13.176   8.061
83899SOL    HW253531  13.032  13.086   7.990
83900SOL     OW53532   2.594   6.518   0.476
83900SOL    HW153533   2.615   6.484   0.389
83900SOL    HW253534   2.577   6.611   0.462
83901SOL     OW53535   8.361  12.704   0.217
83901SOL    HW153536   8.327  12.635   0.160
83901SOL    HW253537   8.312  12.694   0.299
83902SOL     OW53538   6.163   8.142  10.534
83902SOL    HW153539   6.149   8.234  10.555
83902SOL    HW253540   6.166   8.098  10.619
83903SOL     OW53541   3.232   1.474   3.719
83903SOL    HW153542   3.254   1.442   3.631
83903SOL    HW253543   3.313   1.464   3.769
83904SOL     OW53544   0.670   6.260   0.176
83904SOL    HW153545   0.753   6.262   0.128
83904SOL    HW253546   0.629   6.177   0.149
83905SOL     OW53547   0.544  11.784   3.275
83905SOL    HW153548   0.610  11.715   3.289
83905SOL    HW253549   0.570  11.825   3.193
83906SOL     OW53550   5.838   6.242   7.868
83906SOL    HW153551   5.746   6.223   7.886
83906SOL    HW253552   5.875   6.268   7.952
83907SOL     OW53553   1.001   6.660   5.219
83907SOL    HW153554   0.949   6.688   5.295
83907SOL    HW253555   1.031   6.741   5.180
83908SOL     OW53556   4.476  10.503   9.985
83908SOL    HW153557   4.509  10.538   9.903
83908SOL    HW253558   4.444  10.580  10.033
83909SOL     OW53559  13.525   1.555   1.587
83909SOL    HW153560  13.557   1.634   1.543
83909SOL    HW253561  13.594   1.532   1.649
83910SOL     OW53562  12.893   9.044   6.244
83910SOL    HW153563  12.890   9.107   6.316
83910SOL    HW253564  12.861   8.962   6.281
83911SOL     OW53565   3.326   1.644   2.569
83911SOL    HW153566   3.370   1.638   2.485
83911SOL    HW253567   3.249   1.698   2.552
83912SOL     OW53568   5.004  11.303  13.219
83912SOL    HW153569   5.039  11.368  13.157
83912SOL    HW253570   4.919  11.339  13.245
83913SOL     OW53571   6.312   5.103  13.880
83913SOL    HW153572   6.255   5.121  13.954
83913SOL    HW253573   6.324   5.187  13.837
83914SOL     OW53574   0.429  14.633  11.916
83914SOL    HW153575   0.459  14.546  11.890
83914SOL    HW253576   0.366  14.617  11.986
83915SOL     OW53577  13.052   9.980   8.842
83915SOL    HW153578  13.072   9.932   8.761
83915SOL    HW253579  13.129   9.967   8.897
83916SOL     OW53580   7.746   5.756   8.644
83916SOL    HW153581   7.832   5.751   8.685
83916SOL    HW253582   7.685   5.758   8.718
83917SOL     OW53583   8.374   1.576   3.183
83917SOL    HW153584   8.422   1.639   3.236
83917SOL    HW253585   8.300   1.626   3.148
83918SOL     OW53586   1.554  13.838   6.350
83918SOL    HW153587   1.643  13.872   6.356
83918SOL    HW253588   1.561  13.745   6.371
83919SOL     OW53589  12.087  13.795   2.643
83919SOL    HW153590  12.010  13.816   2.697
83919SOL    HW253591  12.160  13.791   2.705
83920SOL     OW53592   7.247   0.170   3.427
83920SOL    HW153593   7.178   0.236   3.422
83920SOL    HW253594   7.200   0.087   3.426
83921SOL     OW53595   7.057   7.033   4.539
83921SOL    HW153596   7.103   7.108   4.575
83921SOL    HW253597   7.012   7.067   4.462
83922SOL     OW53598  11.856  13.511   7.997
83922SOL    HW153599  11.871  13.605   8.005
83922SOL    HW253600  11.891  13.488   7.911
83923SOL     OW53601  10.585   7.883  14.216
83923SOL    HW153602  10.619   7.949  14.155
83923SOL    HW253603  10.617   7.800  14.181
83924SOL     OW53604   7.389   0.766  14.285
83924SOL    HW153605   7.479   0.795  14.274
83924SOL    HW253606   7.349   0.780  14.199
83925SOL     OW53607   5.455   9.476  11.053
83925SOL    HW153608   5.463   9.549  11.113
83925SOL    HW253609   5.545   9.443  11.043
83926SOL     OW53610  12.860  10.404  13.408
83926SOL    HW153611  12.937  10.355  13.380
83926SOL    HW253612  12.800  10.338  13.440
83927SOL     OW53613  14.252   2.717   3.417
83927SOL    HW153614  14.281   2.796   3.371
83927SOL    HW253615  14.165   2.740   3.450
83928SOL     OW53616  11.576  12.822   5.058
83928SOL    HW153617  11.488  12.786   5.052
83928SOL    HW253618  11.619  12.793   4.977
83929SOL     OW53619   9.597   7.780   3.768
83929SOL    HW153620   9.679   7.821   3.740
83929SOL    HW253621   9.615   7.686   3.763
83930SOL     OW53622   3.091   7.274   3.810
83930SOL    HW153623   3.184   7.262   3.793
83930SOL    HW253624   3.068   7.202   3.870
83931SOL     OW53625   0.132   8.408  13.009
83931SOL    HW153626   0.107   8.396  13.101
83931SOL    HW253627   0.148   8.320  12.977
83932SOL     OW53628  12.841   2.776   9.662
83932SOL    HW153629  12.841   2.817   9.748
83932SOL    HW253630  12.758   2.727   9.659
83933SOL     OW53631   1.440  12.082   6.686
83933SOL    HW153632   1.535  12.070   6.688
83933SOL    HW253633   1.417  12.099   6.778
83934SOL     OW53634   3.394   3.950  10.746
83934SOL    HW153635   3.319   3.986  10.793
83934SOL    HW253636   3.464   4.013  10.760
83935SOL     OW53637   0.236   7.812   1.053
83935SOL    HW153638   0.307   7.874   1.035
83935SOL    HW253639   0.200   7.791   0.966
83936SOL     OW53640   1.741   6.605   5.108
83936SOL    HW153641   1.793   6.684   5.119
83936SOL    HW253642   1.767   6.571   5.023
83937SOL     OW53643  11.915   4.209   9.073
83937SOL    HW153644  11.885   4.229   9.162
83937SOL    HW253645  11.954   4.290   9.042
83938SOL     OW53646   2.919   0.198  12.209
83938SOL    HW153647   2.969   0.222  12.131
83938SOL    HW253648   2.874   0.117  12.184
83939SOL     OW53649   6.295   1.217   7.667
83939SOL    HW153650   6.315   1.152   7.734
83939SOL    HW253651   6.214   1.187   7.627
83940SOL     OW53652  14.718  10.940   9.742
83940SOL    HW153653  14.684  10.940   9.831
83940SOL    HW253654  14.691  11.025   9.706
83941SOL     OW53655   6.197  10.215   8.613
83941SOL    HW153656   6.274  10.164   8.587
83941SOL    HW253657   6.232  10.299   8.641
83942SOL     OW53658  13.173   3.300   4.950
83942SOL    HW153659  13.115   3.239   4.905
83942SOL    HW253660  13.117   3.371   4.980
83943SOL     OW53661   6.840   4.108   4.603
83943SOL    HW153662   6.767   4.083   4.660
83943SOL    HW253663   6.798   4.156   4.531
83944SOL     OW53664   2.886  12.566   4.131
83944SOL    HW153665   2.972  12.557   4.091
83944SOL    HW253666   2.903  12.595   4.220
83945SOL     OW53667  10.507  14.328   7.468
83945SOL    HW153668  10.490  14.234   7.459
83945SOL    HW253669  10.557  14.350   7.390
83946SOL     OW53670   4.505  11.279  12.416
83946SOL    HW153671   4.505  11.348  12.350
83946SOL    HW253672   4.499  11.198  12.366
83947SOL     OW53673  13.790   3.536  12.488
83947SOL    HW153674  13.794   3.587  12.406
83947SOL    HW253675  13.882   3.516  12.507
83948SOL     OW53676  13.268   3.266   9.965
83948SOL    HW153677  13.358   3.234   9.968
83948SOL    HW253678  13.242   3.271  10.057
83949SOL     OW53679   5.250   8.625   9.687
83949SOL    HW153680   5.173   8.583   9.726
83949SOL    HW253681   5.292   8.555   9.637
83950SOL     OW53682   8.029  14.761   8.488
83950SOL    HW153683   8.045  14.673   8.522
83950SOL    HW253684   8.038  14.818   8.565
83951SOL     OW53685  12.973   5.534   2.769
83951SOL    HW153686  12.948   5.579   2.850
83951SOL    HW253687  13.068   5.544   2.765
83952SOL     OW53688   1.285  14.222  14.728
83952SOL    HW153689   1.289  14.229  14.823
83952SOL    HW253690   1.239  14.301  14.699
83953SOL     OW53691   5.665   0.499   2.933
83953SOL    HW153692   5.656   0.456   3.018
83953SOL    HW253693   5.716   0.578   2.952
83954SOL     OW53694   2.789   0.138  14.292
83954SOL    HW153695   2.729   0.079  14.248
83954SOL    HW253696   2.865   0.144  14.234
83955SOL     OW53697   2.918  13.770   9.637
83955SOL    HW153698   2.842  13.732   9.681
83955SOL    HW253699   2.914  13.737   9.547
83956SOL     OW53700   2.114  13.759  11.111
83956SOL    HW153701   2.106  13.703  11.034
83956SOL    HW253702   2.197  13.806  11.098
83957SOL     OW53703   8.107  13.846   4.530
83957SOL    HW153704   8.136  13.936   4.516
83957SOL    HW253705   8.141  13.823   4.616
83958SOL     OW53706   1.867  12.180  10.224
83958SOL    HW153707   1.846  12.232  10.146
83958SOL    HW253708   1.787  12.130  10.241
83959SOL     OW53709  11.747  14.270  13.020
83959SOL    HW153710  11.832  14.245  13.056
83959SOL    HW253711  11.691  14.283  13.096
83960SOL     OW53712  13.498  14.002  10.833
83960SOL    HW153713  13.559  13.981  10.904
83960SOL    HW253714  13.517  14.093  10.811
83961SOL     OW53715  13.612   8.909   8.079
83961SOL    HW153716  13.554   8.984   8.080
83961SOL    HW253717  13.583   8.856   8.004
83962SOL     OW53718  13.570  12.699  11.488
83962SOL    HW153719  13.536  12.610  11.473
83962SOL    HW253720  13.592  12.701  11.581
83963SOL     OW53721   9.922  12.770   7.969
83963SOL    HW153722   9.835  12.791   8.002
83963SOL    HW253723   9.980  12.835   8.010
83964SOL     OW53724  12.637   0.326   2.599
83964SOL    HW153725  12.699   0.398   2.589
83964SOL    HW253726  12.691   0.247   2.593
83965SOL     OW53727   7.211  10.307   2.826
83965SOL    HW153728   7.207  10.398   2.856
83965SOL    HW253729   7.156  10.259   2.889
83966SOL     OW53730   9.406   3.495  10.974
83966SOL    HW153731   9.498   3.510  10.994
83966SOL    HW253732   9.393   3.533  10.887
83967SOL     OW53733   1.740  14.187   9.002
83967SOL    HW153734   1.675  14.170   9.070
83967SOL    HW253735   1.771  14.276   9.020
83968SOL     OW53736   0.071   4.307   9.675
83968SOL    HW153737   0.030   4.234   9.720
83968SOL    HW253738   0.035   4.305   9.586
83969SOL     OW53739   5.092   7.162   3.624
83969SOL    HW153740   5.161   7.217   3.663
83969SOL    HW253741   5.011   7.195   3.663
83970SOL     OW53742   0.031   2.607   2.630
83970SOL    HW153743   0.109   2.641   2.586
83970SOL    HW253744   0.029   2.652   2.714
83971SOL     OW53745   1.850  14.686   2.840
83971SOL    HW153746   1.833  14.774   2.806
83971SOL    HW253747   1.945  14.677   2.837
83972SOL     OW53748   6.232  12.311   1.363
83972SOL    HW153749   6.256  12.388   1.312
83972SOL    HW253750   6.310  12.255   1.360
83973SOL     OW53751   2.448   7.689   0.539
83973SOL    HW153752   2.378   7.738   0.495
83973SOL    HW253753   2.483   7.631   0.471
83974SOL     OW53754   1.205   7.305   4.896
83974SOL    HW153755   1.124   7.274   4.856
83974SOL    HW253756   1.176   7.367   4.963
83975SOL     OW53757   8.798   3.933  10.654
83975SOL    HW153758   8.853   3.873  10.603
83975SOL    HW253759   8.713   3.931  10.611
83976SOL     OW53760   6.134   5.544   2.726
83976SOL    HW153761   6.123   5.605   2.653
83976SOL    HW253762   6.142   5.600   2.804
83977SOL     OW53763   7.666   4.080  11.243
83977SOL    HW153764   7.644   4.111  11.155
83977SOL    HW253765   7.761   4.069  11.242
83978SOL     OW53766   3.878   1.138  11.769
83978SOL    HW153767   3.902   1.159  11.859
83978SOL    HW253768   3.803   1.079  11.777
83979SOL     OW53769  12.802  10.947  12.539
83979SOL    HW153770  12.710  10.936  12.515
83979SOL    HW253771  12.823  10.869  12.590
83980SOL     OW53772  11.331   3.892   4.872
83980SOL    HW153773  11.256   3.945   4.898
83980SOL    HW253774  11.294   3.822   4.818
83981SOL     OW53775   8.558   4.626   8.922
83981SOL    HW153776   8.479   4.620   8.868
83981SOL    HW253777   8.555   4.547   8.977
83982SOL     OW53778  12.774   1.441   6.452
83982SOL    HW153779  12.793   1.482   6.368
83982SOL    HW253780  12.848   1.466   6.508
83983SOL     OW53781   0.989   3.877   6.200
83983SOL    HW153782   0.995   3.785   6.224
83983SOL    HW253783   1.045   3.922   6.263
83984SOL     OW53784   1.510  11.904  13.112
83984SOL    HW153785   1.567  11.896  13.188
83984SOL    HW253786   1.459  11.983  13.129
83985SOL     OW53787  14.585  11.508   7.728
83985SOL    HW153788  14.547  11.587   7.767
83985SOL    HW253789  14.598  11.449   7.802
83986SOL     OW53790   1.246   8.679  12.883
83986SOL    HW153791   1.181   8.609  12.891
83986SOL    HW253792   1.256   8.712  12.972
83987SOL     OW53793  10.874   6.653  10.496
83987SOL    HW153794  10.872   6.558  10.504
83987SOL    HW253795  10.899   6.669  10.405
83988SOL     OW53796   2.221   2.211   4.513
83988SOL    HW153797   2.270   2.280   4.557
83988SOL    HW253798   2.286   2.144   4.494
83989SOL     OW53799   2.379  11.186  12.065
83989SOL    HW153800   2.462  11.233  12.051
83989SOL    HW253801   2.363  11.194  12.159
83990SOL     OW53802  14.248   9.207  10.988
83990SOL    HW153803  14.213   9.295  11.005
83990SOL    HW253804  14.265   9.206  10.894
83991SOL     OW53805   6.110   3.412   7.138
83991SOL    HW153806   6.111   3.400   7.043
83991SOL    HW253807   6.025   3.452   7.156
83992SOL     OW53808   4.157  10.471   2.108
83992SOL    HW153809   4.230  10.517   2.065
83992SOL    HW253810   4.165  10.381   2.078
83993SOL     OW53811   8.212   8.479   4.173
83993SOL    HW153812   8.151   8.535   4.126
83993SOL    HW253813   8.157   8.414   4.217
83994SOL     OW53814  13.404   4.514  11.610
83994SOL    HW153815  13.340   4.575  11.572
83994SOL    HW253816  13.353   4.460  11.670
83995SOL     OW53817  13.197   2.015  14.572
83995SOL    HW153818  13.194   2.082  14.504
83995SOL    HW253819  13.110   1.974  14.570
83996SOL     OW53820  13.853   8.595   1.951
83996SOL    HW153821  13.866   8.502   1.970
83996SOL    HW253822  13.849   8.599   1.856
83997SOL     OW53823   4.965   5.547  10.212
83997SOL    HW153824   4.884   5.508  10.244
83997SOL    HW253825   5.009   5.475  10.166
83998SOL     OW53826   3.444  12.822   7.688
83998SOL    HW153827   3.530  12.843   7.722
83998SOL    HW253828   3.393  12.796   7.765
83999SOL     OW53829  12.851   0.197  14.868
83999SOL    HW153830  12.793   0.215   0.064
83999SOL    HW253831  12.926   0.255   0.003
84000SOL     OW53832   2.465   5.688  13.898
84000SOL    HW153833   2.435   5.609  13.943
84000SOL    HW253834   2.497   5.656  13.814
84001SOL     OW53835   4.348  12.981   3.294
84001SOL    HW153836   4.355  12.901   3.242
84001SOL    HW253837   4.321  12.951   3.381
84002SOL     OW53838   8.717   7.843   3.800
84002SOL    HW153839   8.675   7.922   3.768
84002SOL    HW253840   8.770   7.812   3.726
84003SOL     OW53841  12.866  11.927  11.769
84003SOL    HW153842  12.890  11.996  11.831
84003SOL    HW253843  12.921  11.942  11.692
84004SOL     OW53844   9.623  10.079   5.454
84004SOL    HW153845   9.559  10.009   5.467
84004SOL    HW253846   9.651  10.070   5.363
84005SOL     OW53847   1.332   6.083   1.510
84005SOL    HW153848   1.259   6.029   1.478
84005SOL    HW253849   1.359   6.041   1.591
84006SOL     OW53850  10.087  12.974   5.362
84006SOL    HW153851   9.997  13.000   5.382
84006SOL    HW253852  10.127  13.054   5.327
84007SOL     OW53853  12.929   6.735   1.947
84007SOL    HW153854  13.023   6.721   1.935
84007SOL    HW253855  12.901   6.776   1.864
84008SOL     OW53856   5.090   0.223  13.732
84008SOL    HW153857   5.002   0.185  13.727
84008SOL    HW253858   5.113   0.220  13.824
84009SOL     OW53859   8.647  13.826  10.848
84009SOL    HW153860   8.622  13.736  10.828
84009SOL    HW253861   8.568  13.866  10.885
84010SOL     OW53862  13.591   4.819   6.982
84010SOL    HW153863  13.566   4.907   7.009
84010SOL    HW253864  13.508   4.778   6.954
84011SOL     OW53865  10.185  12.174  10.152
84011SOL    HW153866  10.250  12.243  10.139
84011SOL    HW253867  10.145  12.196  10.236
84012SOL     OW53868   2.911   1.575  14.760
84012SOL    HW153869   2.859   1.607  14.834
84012SOL    HW253870   3.000   1.573  14.793
84013SOL     OW53871  11.139   4.653  13.030
84013SOL    HW153872  11.117   4.564  13.058
84013SOL    HW253873  11.090   4.710  13.090
84014SOL     OW53874  11.489  13.396   4.040
84014SOL    HW153875  11.535  13.313   4.029
84014SOL    HW253876  11.491  13.437   3.954
84015SOL     OW53877   2.139   2.943  13.102
84015SOL    HW153878   2.173   2.995  13.175
84015SOL    HW253879   2.099   2.867  13.144
84016SOL     OW53880   9.903  13.952   5.211
84016SOL    HW153881   9.948  13.905   5.281
84016SOL    HW253882   9.816  13.969   5.246
84017SOL     OW53883   1.122   7.977   6.981
84017SOL    HW153884   1.215   7.993   6.996
84017SOL    HW253885   1.077   8.036   7.040
84018SOL     OW53886  13.665   5.363  10.188
84018SOL    HW153887  13.629   5.372  10.277
84018SOL    HW253888  13.707   5.277  10.189
84019SOL     OW53889   7.128  13.268  14.408
84019SOL    HW153890   7.127  13.251  14.502
84019SOL    HW253891   7.213  13.310  14.392
84020SOL     OW53892   6.513   4.992   9.780
84020SOL    HW153893   6.567   4.950   9.713
84020SOL    HW253894   6.536   5.085   9.774
84021SOL     OW53895  14.278   7.834   3.946
84021SOL    HW153896  14.202   7.892   3.941
84021SOL    HW253897  14.331   7.856   3.870
84022SOL     OW53898   3.076  13.900  10.120
84022SOL    HW153899   3.171  13.911  10.123
84022SOL    HW253900   3.048  13.907  10.212
84023SOL     OW53901   4.782   8.494   9.620
84023SOL    HW153902   4.698   8.528   9.588
84023SOL    HW253903   4.787   8.406   9.583
84024SOL     OW53904   3.689  14.408   7.508
84024SOL    HW153905   3.681  14.497   7.473
84024SOL    HW253906   3.724  14.356   7.436
84025SOL     OW53907   3.310  11.319   4.695
84025SOL    HW153908   3.235  11.268   4.666
84025SOL    HW253909   3.305  11.400   4.644
84026SOL     OW53910   7.221  10.323  12.271
84026SOL    HW153911   7.255  10.406  12.303
84026SOL    HW253912   7.290  10.259  12.290
84027SOL     OW53913   4.646   5.073   8.921
84027SOL    HW153914   4.686   4.992   8.888
84027SOL    HW253915   4.565   5.082   8.871
84028SOL     OW53916   8.616   9.385   2.572
84028SOL    HW153917   8.708   9.359   2.565
84028SOL    HW253918   8.576   9.355   2.490
84029SOL     OW53919  14.255   5.061   9.267
84029SOL    HW153920  14.209   5.109   9.336
84029SOL    HW253921  14.225   4.971   9.276
84030SOL     OW53922  11.342   6.749   0.209
84030SOL    HW153923  11.280   6.784   0.272
84030SOL    HW253924  11.375   6.668   0.250
84031SOL     OW53925  13.309  10.894   9.217
84031SOL    HW153926  13.360  10.836   9.273
84031SOL    HW253927  13.271  10.958   9.277
84032SOL     OW53928   4.888   8.044  12.980
84032SOL    HW153929   4.957   7.989  12.944
84032SOL    HW253930   4.879   8.014  13.071
84033SOL     OW53931   7.469   3.516   7.860
84033SOL    HW153932   7.450   3.515   7.954
84033SOL    HW253933   7.564   3.530   7.855
84034SOL     OW53934   9.240  10.298   9.840
84034SOL    HW153935   9.297  10.375   9.848
84034SOL    HW253936   9.204  10.305   9.752
84035SOL     OW53937  14.533   2.711  13.372
84035SOL    HW153938  14.555   2.736  13.283
84035SOL    HW253939  14.459   2.767  13.395
84036SOL     OW53940   1.250  12.092  12.676
84036SOL    HW153941   1.239  12.003  12.710
84036SOL    HW253942   1.209  12.090  12.590
84037SOL     OW53943   4.805  12.819   6.126
84037SOL    HW153944   4.781  12.909   6.107
84037SOL    HW253945   4.869  12.797   6.058
84038SOL     OW53946  13.809  12.261  11.264
84038SOL    HW153947  13.826  12.186  11.322
84038SOL    HW253948  13.887  12.267  11.209
84039SOL     OW53949   8.641  10.765  14.497
84039SOL    HW153950   8.635  10.677  14.462
84039SOL    HW253951   8.551  10.799  14.494
84040SOL     OW53952   6.279   1.920   9.092
84040SOL    HW153953   6.321   1.929   9.007
84040SOL    HW253954   6.306   1.998   9.140
84041SOL     OW53955   4.166   2.048   5.683
84041SOL    HW153956   4.147   2.122   5.740
84041SOL    HW253957   4.188   1.977   5.743
84042SOL     OW53958   5.838   9.139  11.317
84042SOL    HW153959   5.921   9.184  11.302
84042SOL    HW253960   5.821   9.149  11.410
84043SOL     OW53961   4.815  12.893   2.785
84043SOL    HW153962   4.859  12.881   2.701
84043SOL    HW253963   4.862  12.965   2.828
84044SOL     OW53964   3.736  10.127   8.406
84044SOL    HW153965   3.743  10.054   8.345
84044SOL    HW253966   3.799  10.192   8.375
84045SOL     OW53967   1.434   7.157   0.220
84045SOL    HW153968   1.387   7.153   0.137
84045SOL    HW253969   1.394   7.229   0.267
84046SOL     OW53970   7.302  12.724  14.053
84046SOL    HW153971   7.329  12.692  13.966
84046SOL    HW253972   7.258  12.807  14.035
84047SOL     OW53973   9.897  13.029   2.304
84047SOL    HW153974   9.842  12.995   2.375
84047SOL    HW253975   9.878  13.123   2.301
84048SOL     OW53976   7.930   0.039  10.717
84048SOL    HW153977   7.898   0.013  10.804
84048SOL    HW253978   8.023   0.057  10.730
84049SOL     OW53979   9.774   6.449   0.140
84049SOL    HW153980   9.846   6.480   0.085
84049SOL    HW253981   9.815   6.429   0.224
84050SOL     OW53982  12.190   6.136  10.728
84050SOL    HW153983  12.121   6.120  10.793
84050SOL    HW253984  12.198   6.053  10.681
84051SOL     OW53985  13.236  14.656  14.008
84051SOL    HW153986  13.208  14.564  14.004
84051SOL    HW253987  13.293  14.659  14.085
84052SOL     OW53988   7.661  12.941  12.988
84052SOL    HW153989   7.621  12.963  13.072
84052SOL    HW253990   7.749  12.978  12.993
84053SOL     OW53991   3.157   2.967  12.866
84053SOL    HW153992   3.220   3.028  12.904
84053SOL    HW253993   3.072   2.998  12.895
84054SOL     OW53994   0.868   2.016   5.373
84054SOL    HW153995   0.835   1.932   5.340
84054SOL    HW253996   0.797   2.077   5.357
84055SOL     OW53997   0.103   3.897   3.062
84055SOL    HW153998   0.175   3.960   3.072
84055SOL    HW253999   0.119   3.832   3.131
84056SOL     OW54000  11.214   3.153  14.640
84056SOL    HW154001  11.123   3.176  14.622
84056SOL    HW254002  11.209   3.088  14.710
84057SOL     OW54003   9.546   2.098  12.401
84057SOL    HW154004   9.514   2.187  12.415
84057SOL    HW254005   9.639   2.102  12.421
84058SOL     OW54006   8.617  13.633   6.581
84058SOL    HW154007   8.570  13.677   6.652
84058SOL    HW254008   8.626  13.700   6.513
84059SOL     OW54009  13.415   2.198   4.102
84059SOL    HW154010  13.426   2.198   4.007
84059SOL    HW254011  13.438   2.108   4.129
84060SOL     OW54012   5.946  13.449   2.407
84060SOL    HW154013   5.877  13.436   2.342
84060SOL    HW254014   6.027  13.431   2.358
84061SOL     OW54015  13.020  13.688   1.037
84061SOL    HW154016  12.926  13.706   1.036
84061SOL    HW254017  13.028  13.597   1.006
84062SOL     OW54018  13.616  13.131   0.907
84062SOL    HW154019  13.625  13.220   0.943
84062SOL    HW254020  13.595  13.144   0.815
84063SOL     OW54021  12.980   0.553   1.430
84063SOL    HW154022  13.071   0.584   1.425
84063SOL    HW254023  12.958   0.558   1.523
84064SOL     OW54024  10.327   1.955   0.946
84064SOL    HW154025  10.242   1.920   0.974
84064SOL    HW254026  10.349   1.904   0.868
84065SOL     OW54027   8.789   3.037  10.251
84065SOL    HW154028   8.710   3.091  10.252
84065SOL    HW254029   8.803   3.016  10.159
84066SOL     OW54030  12.813   7.368   1.300
84066SOL    HW154031  12.745   7.333   1.242
84066SOL    HW254032  12.868   7.422   1.243
84067SOL     OW54033  11.627   1.170  14.465
84067SOL    HW154034  11.533   1.160  14.480
84067SOL    HW254035  11.636   1.166  14.370
84068SOL     OW54036   1.571   6.343   6.436
84068SOL    HW154037   1.587   6.338   6.531
84068SOL    HW254038   1.658   6.331   6.397
84069SOL     OW54039   6.184  10.345   2.563
84069SOL    HW154040   6.097  10.307   2.551
84069SOL    HW254041   6.169  10.424   2.614
84070SOL     OW54042   4.181   1.038  13.649
84070SOL    HW154043   4.179   0.973  13.578
84070SOL    HW254044   4.211   1.118  13.606
84071SOL     OW54045  11.478  10.062  13.240
84071SOL    HW154046  11.407  10.006  13.272
84071SOL    HW254047  11.544  10.001  13.209
84072SOL     OW54048   7.922   8.723   4.936
84072SOL    HW154049   7.987   8.771   4.988
84072SOL    HW254050   7.945   8.631   4.949
84073SOL     OW54051   7.027   7.487  12.982
84073SOL    HW154052   7.087   7.458  13.050
84073SOL    HW254053   7.064   7.452  12.901
84074SOL     OW54054   8.288   4.251   6.938
84074SOL    HW154055   8.292   4.182   6.872
84074SOL    HW254056   8.369   4.300   6.926
84075SOL     OW54057  10.197   5.129   6.529
84075SOL    HW154058  10.242   5.063   6.582
84075SOL    HW254059  10.112   5.090   6.509
84076SOL     OW54060   3.017   5.074  14.644
84076SOL    HW154061   2.923   5.085  14.632
84076SOL    HW254062   3.025   5.036  14.732
84077SOL     OW54063  14.185  12.330   8.678
84077SOL    HW154064  14.179  12.337   8.773
84077SOL    HW254065  14.233  12.409   8.652
84078SOL     OW54066   6.935   1.636  14.584
84078SOL    HW154067   6.932   1.602  14.495
84078SOL    HW254068   6.988   1.716  14.578
84079SOL     OW54069   9.389   9.131   7.800
84079SOL    HW154070   9.300   9.160   7.782
84079SOL    HW254071   9.394   9.043   7.762
84080SOL     OW54072   3.134   9.198   2.472
84080SOL    HW154073   3.122   9.245   2.389
84080SOL    HW254074   3.151   9.266   2.536
84081SOL     OW54075   0.933   1.348  13.631
84081SOL    HW154076   0.995   1.367  13.702
84081SOL    HW254077   0.870   1.288  13.670
84082SOL     OW54078   2.789   7.384   4.340
84082SOL    HW154079   2.732   7.438   4.286
84082SOL    HW254080   2.753   7.296   4.333
84083SOL     OW54081   0.074   3.202   0.898
84083SOL    HW154082   0.155   3.162   0.930
84083SOL    HW254083   0.019   3.211   0.975
84084SOL     OW54084   2.193   8.183   3.209
84084SOL    HW154085   2.263   8.120   3.190
84084SOL    HW254086   2.117   8.151   3.161
84085SOL     OW54087  14.440   5.588   9.982
84085SOL    HW154088  14.428   5.494   9.965
84085SOL    HW254089  14.508   5.591  10.049
84086SOL     OW54090  13.271   3.527  11.297
84086SOL    HW154091  13.253   3.556  11.386
84086SOL    HW254092  13.203   3.462  11.278
84087SOL     OW54093   2.166   8.248   9.908
84087SOL    HW154094   2.185   8.178   9.846
84087SOL    HW254095   2.199   8.215   9.992
84088SOL     OW54096  12.783  13.638  13.444
84088SOL    HW154097  12.810  13.571  13.380
84088SOL    HW254098  12.865  13.665  13.486
84089SOL     OW54099  12.500   2.957   0.160
84089SOL    HW154100  12.473   3.044   0.188
84089SOL    HW254101  12.595   2.957   0.168
84090SOL     OW54102   6.395  12.135   5.902
84090SOL    HW154103   6.324  12.194   5.875
84090SOL    HW254104   6.417  12.164   5.990
84091SOL     OW54105   8.016   0.376   0.497
84091SOL    HW154106   7.926   0.402   0.476
84091SOL    HW254107   8.009   0.283   0.518
84092SOL     OW54108  14.207  11.155  10.256
84092SOL    HW154109  14.273  11.104  10.209
84092SOL    HW254110  14.196  11.234  10.204
84093SOL     OW54111   5.506   7.179   2.493
84093SOL    HW154112   5.579   7.132   2.453
84093SOL    HW254113   5.431   7.119   2.483
84094SOL     OW54114  11.033  12.170   3.684
84094SOL    HW154115  11.087  12.179   3.606
84094SOL    HW254116  11.041  12.077   3.708
84095SOL     OW54117   1.757   0.192   9.801
84095SOL    HW154118   1.805   0.271   9.777
84095SOL    HW254119   1.694   0.221   9.867
84096SOL     OW54120  14.712   9.401   6.680
84096SOL    HW154121  14.698   9.486   6.722
84096SOL    HW254122  14.725   9.422   6.587
84097SOL     OW54123   1.628   9.240   6.622
84097SOL    HW154124   1.598   9.328   6.600
84097SOL    HW254125   1.629   9.239   6.718
84098SOL     OW54126   2.142   5.236   2.015
84098SOL    HW154127   2.057   5.233   1.970
84098SOL    HW254128   2.153   5.328   2.039
84099SOL     OW54129   3.872   5.115  14.016
84099SOL    HW154130   3.882   5.116  13.921
84099SOL    HW254131   3.809   5.186  14.034
84100SOL     OW54132   9.461   6.314   7.391
84100SOL    HW154133   9.456   6.408   7.374
84100SOL    HW254134   9.480   6.276   7.305
84101SOL     OW54135   5.521  10.986   6.177
84101SOL    HW154136   5.575  10.960   6.102
84101SOL    HW254137   5.493  10.904   6.217
84102SOL     OW54138   8.358   1.110   3.531
84102SOL    HW154139   8.306   1.179   3.489
84102SOL    HW254140   8.401   1.065   3.459
84103SOL     OW54141   9.963   9.096   0.927
84103SOL    HW154142  10.010   9.106   1.010
84103SOL    HW254143  10.017   9.035   0.877
84104SOL     OW54144  14.364  14.550  10.846
84104SOL    HW154145  14.329  14.587  10.927
84104SOL    HW254146  14.291  14.552  10.784
84105SOL     OW54147   0.998   8.462   5.319
84105SOL    HW154148   1.082   8.457   5.273
84105SOL    HW254149   1.022   8.464   5.412
84106SOL     OW54150   6.736   9.774   7.294
84106SOL    HW154151   6.737   9.687   7.254
84106SOL    HW254152   6.646   9.804   7.284
84107SOL     OW54153  13.222  14.257   1.552
84107SOL    HW154154  13.244  14.350   1.557
84107SOL    HW254155  13.226  14.225   1.642
84108SOL     OW54156  14.052   1.596  14.674
84108SOL    HW154157  14.055   1.532  14.745
84108SOL    HW254158  14.114   1.562  14.609
84109SOL     OW54159  10.598  13.611   6.263
84109SOL    HW154160  10.678  13.579   6.219
84109SOL    HW254161  10.629  13.643   6.348
84110SOL     OW54162   0.110   8.738   6.029
84110SOL    HW154163   0.166   8.741   6.106
84110SOL    HW254164   0.170   8.723   5.956
84111SOL     OW54165  10.402  13.589   0.934
84111SOL    HW154166  10.399  13.663   0.994
84111SOL    HW254167  10.349  13.616   0.859
84112SOL     OW54168   4.233   9.025   0.192
84112SOL    HW154169   4.302   8.974   0.150
84112SOL    HW254170   4.274   9.111   0.209
84113SOL     OW54171   9.648   3.751   6.445
84113SOL    HW154172   9.559   3.777   6.468
84113SOL    HW254173   9.689   3.833   6.415
84114SOL     OW54174  14.327   6.181  14.441
84114SOL    HW154175  14.306   6.268  14.475
84114SOL    HW254176  14.415   6.191  14.405
84115SOL     OW54177  13.758   8.910   3.268
84115SOL    HW154178  13.669   8.896   3.237
84115SOL    HW254179  13.753   8.895   3.363
84116SOL     OW54180   6.077   8.313  14.600
84116SOL    HW154181   6.058   8.234  14.550
84116SOL    HW254182   6.170   8.305  14.623
84117SOL     OW54183   7.320   9.301   4.367
84117SOL    HW154184   7.362   9.387   4.361
84117SOL    HW254185   7.291   9.296   4.458
84118SOL     OW54186   7.712   1.626   0.929
84118SOL    HW154187   7.711   1.551   0.988
84118SOL    HW254188   7.742   1.591   0.845
84119SOL     OW54189   1.548   7.878  14.702
84119SOL    HW154190   1.453   7.888  14.698
84119SOL    HW254191   1.563   7.784  14.705
84120SOL     OW54192   5.675   2.857   9.875
84120SOL    HW154193   5.662   2.942   9.834
84120SOL    HW254194   5.699   2.877   9.966
84121SOL     OW54195   2.983  14.568   4.421
84121SOL    HW154196   2.907  14.547   4.476
84121SOL    HW254197   2.945  14.606   4.342
84122SOL     OW54198   2.699  12.271   3.723
84122SOL    HW154199   2.606  12.277   3.702
84122SOL    HW254200   2.713  12.336   3.791
84123SOL     OW54201   8.355   8.393   2.272
84123SOL    HW154202   8.286   8.452   2.241
84123SOL    HW254203   8.311   8.336   2.336
84124SOL     OW54204  14.131   0.884   2.642
84124SOL    HW154205  14.205   0.934   2.676
84124SOL    HW254206  14.055   0.940   2.658
84125SOL     OW54207  10.285   7.032   8.948
84125SOL    HW154208  10.258   7.124   8.955
84125SOL    HW254209  10.233   6.987   9.015
84126SOL     OW54210  10.373   1.753   3.408
84126SOL    HW154211  10.375   1.770   3.503
84126SOL    HW254212  10.455   1.790   3.376
84127SOL     OW54213  10.799  10.142   7.957
84127SOL    HW154214  10.759  10.087   8.025
84127SOL    HW254215  10.873  10.090   7.925
84128SOL     OW54216   0.841   4.759  11.706
84128SOL    HW154217   0.777   4.693  11.735
84128SOL    HW254218   0.848   4.745  11.612
84129SOL     OW54219   5.416  14.870   5.040
84129SOL    HW154220   5.358  14.821   5.097
84129SOL    HW254221   5.424  14.816   4.962
84130SOL     OW54222   1.771   2.408  12.696
84130SOL    HW154223   1.751   2.340  12.632
84130SOL    HW254224   1.860   2.435  12.674
84131SOL     OW54225   2.066   8.505   5.220
84131SOL    HW154226   2.076   8.598   5.236
84131SOL    HW254227   1.976   8.495   5.189
84132SOL     OW54228   4.926   9.182   2.030
84132SOL    HW154229   5.013   9.161   1.996
84132SOL    HW254230   4.913   9.121   2.103
84133SOL     OW54231   0.228   5.659  14.457
84133SOL    HW154232   0.301   5.618  14.504
84133SOL    HW254233   0.211   5.600  14.384
84134SOL     OW54234   6.281   1.773  13.499
84134SOL    HW154235   6.205   1.757  13.443
84134SOL    HW254236   6.270   1.713  13.572
84135SOL     OW54237  12.285   4.670   2.733
84135SOL    HW154238  12.374   4.692   2.708
84135SOL    HW254239  12.238   4.753   2.732
84136SOL     OW54240  14.827   8.049   4.966
84136SOL    HW154241  14.873   8.131   4.988
84136SOL    HW254242  14.742   8.057   5.010
84137SOL     OW54243   0.629   6.166   1.669
84137SOL    HW154244   0.548   6.197   1.711
84137SOL    HW254245   0.644   6.228   1.598
84138SOL     OW54246   0.562   6.160   7.054
84138SOL    HW154247   0.561   6.223   6.981
84138SOL    HW254248   0.582   6.076   7.013
84139SOL     OW54249   0.182  11.988   0.988
84139SOL    HW154250   0.241  12.063   0.998
84139SOL    HW254251   0.096  12.027   0.975
84140SOL     OW54252   6.443  11.559   8.522
84140SOL    HW154253   6.388  11.619   8.572
84140SOL    HW254254   6.468  11.491   8.585
84141SOL     OW54255  10.091   8.321   8.256
84141SOL    HW154256  10.023   8.294   8.317
84141SOL    HW254257  10.122   8.240   8.216
84142SOL     OW54258   2.401   3.355   8.859
84142SOL    HW154259   2.451   3.291   8.910
84142SOL    HW254260   2.443   3.355   8.774
84143SOL     OW54261  10.109  10.167  10.752
84143SOL    HW154262  10.156  10.144  10.672
84143SOL    HW254263  10.039  10.102  10.760
84144SOL     OW54264   7.223  11.603  10.961
84144SOL    HW154265   7.136  11.576  10.930
84144SOL    HW254266   7.274  11.615  10.881
84145SOL     OW54267  14.148   8.488  13.865
84145SOL    HW154268  14.214   8.437  13.817
84145SOL    HW254269  14.077   8.426  13.882
84146SOL     OW54270   3.078  13.082  10.689
84146SOL    HW154271   3.056  13.021  10.760
84146SOL    HW254272   2.994  13.121  10.665
84147SOL     OW54273   5.034  11.648   0.810
84147SOL    HW154274   5.111  11.639   0.867
84147SOL    HW254275   5.018  11.559   0.777
84148SOL     OW54276   9.361   6.863   7.352
84148SOL    HW154277   9.361   6.933   7.287
84148SOL    HW254278   9.453   6.841   7.363
84149SOL     OW54279   5.333   3.526   4.907
84149SOL    HW154280   5.313   3.619   4.898
84149SOL    HW254281   5.424   3.524   4.939
84150SOL     OW54282  14.837  14.456  14.096
84150SOL    HW154283  14.779  14.382  14.108
84150SOL    HW254284  14.840  14.499  14.182
84151SOL     OW54285   7.299   5.397   8.001
84151SOL    HW154286   7.392   5.375   8.006
84151SOL    HW254287   7.254   5.315   8.020
84152SOL     OW54288   2.264  14.800   7.945
84152SOL    HW154289   2.333  14.746   7.905
84152SOL    HW254290   2.190  14.793   7.885
84153SOL     OW54291  13.488   8.830   3.764
84153SOL    HW154292  13.538   8.909   3.743
84153SOL    HW254293  13.550   8.758   3.749
84154SOL     OW54294   6.346   4.754  12.383
84154SOL    HW154295   6.301   4.834  12.355
84154SOL    HW254296   6.370   4.710  12.302
84155SOL     OW54297   3.065  12.741   1.882
84155SOL    HW154298   3.110  12.775   1.960
84155SOL    HW254299   3.135  12.725   1.819
84156SOL     OW54300   0.136   1.887  10.847
84156SOL    HW154301   0.117   1.951  10.916
84156SOL    HW254302   0.195   1.825  10.888
84157SOL     OW54303  11.301   9.160  13.139
84157SOL    HW154304  11.329   9.224  13.074
84157SOL    HW254305  11.250   9.211  13.202
84158SOL     OW54306   4.582  13.217   3.320
84158SOL    HW154307   4.603  13.124   3.311
84158SOL    HW254308   4.499  13.227   3.274
84159SOL     OW54309  12.574   8.390   4.134
84159SOL    HW154310  12.663   8.362   4.113
84159SOL    HW254311  12.519   8.315   4.112
84160SOL     OW54312   2.650   1.064  14.356
84160SOL    HW154313   2.712   1.131  14.326
84160SOL    HW254314   2.681   1.040  14.443
84161SOL     OW54315  12.780  11.922   9.252
84161SOL    HW154316  12.845  11.990   9.235
84161SOL    HW254317  12.718  11.963   9.313
84162SOL     OW54318   0.859  14.666   8.646
84162SOL    HW154319   0.890  14.619   8.723
84162SOL    HW254320   0.891  14.615   8.572
84163SOL     OW54321  13.748   4.997  14.523
84163SOL    HW154322  13.681   5.004  14.591
84163SOL    HW254323  13.708   4.944  14.454
84164SOL     OW54324   5.080   5.326   0.076
84164SOL    HW154325   5.107   5.234   0.068
84164SOL    HW254326   5.106   5.366  14.872
84165SOL     OW54327   3.748   9.361   9.060
84165SOL    HW154328   3.835   9.325   9.043
84165SOL    HW254329   3.691   9.313   9.000
84166SOL     OW54330   4.227   1.386  14.114
84166SOL    HW154331   4.133   1.375  14.103
84166SOL    HW254332   4.261   1.396  14.025
84167SOL     OW54333  11.016   0.885  14.199
84167SOL    HW154334  10.946   0.890  14.134
84167SOL    HW254335  11.045   0.794  14.196
84168SOL     OW54336  11.791   1.040   5.714
84168SOL    HW154337  11.784   1.089   5.796
84168SOL    HW254338  11.733   1.086   5.654
84169SOL     OW54339  12.512   9.589   0.645
84169SOL    HW154340  12.590   9.594   0.699
84169SOL    HW254341  12.448   9.645   0.689
84170SOL     OW54342   4.796   8.334   1.014
84170SOL    HW154343   4.738   8.325   1.089
84170SOL    HW254344   4.742   8.373   0.946
84171SOL     OW54345   2.651   9.927   8.972
84171SOL    HW154346   2.715   9.855   8.974
84171SOL    HW254347   2.681   9.987   9.040
84172SOL     OW54348  13.760   9.287   4.387
84172SOL    HW154349  13.801   9.201   4.387
84172SOL    HW254350  13.723   9.297   4.300
84173SOL     OW54351  11.590  14.036  14.126
84173SOL    HW154352  11.572  14.102  14.059
84173SOL    HW254353  11.683  14.017  14.116
84174SOL     OW54354  14.617  11.960   9.465
84174SOL    HW154355  14.526  11.957   9.435
84174SOL    HW254356  14.647  11.869   9.459
84175SOL     OW54357  11.839   8.396   4.421
84175SOL    HW154358  11.870   8.309   4.396
84175SOL    HW254359  11.894   8.456   4.370
84176SOL     OW54360   6.951   4.796   1.957
84176SOL    HW154361   6.982   4.710   1.987
84176SOL    HW254362   6.990   4.858   2.018
84177SOL     OW54363  13.108   8.357  10.796
84177SOL    HW154364  13.142   8.445  10.807
84177SOL    HW254365  13.033   8.367  10.737
84178SOL     OW54366   7.496  10.176   1.505
84178SOL    HW154367   7.520  10.234   1.432
84178SOL    HW254368   7.523  10.224   1.583
84179SOL     OW54369   8.524  10.076  11.209
84179SOL    HW154370   8.572  10.118  11.138
84179SOL    HW254371   8.443  10.045  11.168
84180SOL     OW54372   3.594   8.702   1.634
84180SOL    HW154373   3.596   8.609   1.612
84180SOL    HW254374   3.629   8.706   1.723
84181SOL     OW54375   5.352  12.839  10.886
84181SOL    HW154376   5.370  12.906  10.951
84181SOL    HW254377   5.431  12.785  10.884
84182SOL     OW54378  10.146   9.068   9.036
84182SOL    HW154379  10.061   9.111   9.046
84182SOL    HW254380  10.160   9.063   8.942
84183SOL     OW54381  12.247   8.436   2.700
84183SOL    HW154382  12.255   8.341   2.693
84183SOL    HW254383  12.280   8.456   2.788
84184SOL     OW54384   3.444   2.541   9.255
84184SOL    HW154385   3.536   2.539   9.229
84184SOL    HW254386   3.396   2.547   9.172
84185SOL     OW54387  13.636  13.701   5.906
84185SOL    HW154388  13.719  13.654   5.910
84185SOL    HW254389  13.606  13.703   5.997
84186SOL     OW54390   8.978   6.404   2.795
84186SOL    HW154391   8.977   6.363   2.709
84186SOL    HW254392   9.071   6.405   2.820
84187SOL     OW54393   3.844   8.796   7.851
84187SOL    HW154394   3.820   8.755   7.767
84187SOL    HW254395   3.795   8.878   7.852
84188SOL     OW54396  12.318   6.438  13.729
84188SOL    HW154397  12.302   6.426  13.636
84188SOL    HW254398  12.357   6.355  13.758
84189SOL     OW54399  10.316   8.138   2.265
84189SOL    HW154400  10.291   8.170   2.352
84189SOL    HW254401  10.411   8.131   2.269
84190SOL     OW54402   6.938   0.722   4.161
84190SOL    HW154403   6.949   0.816   4.173
84190SOL    HW254404   6.976   0.683   4.239
84191SOL     OW54405  12.635   9.360   2.759
84191SOL    HW154406  12.679   9.288   2.714
84191SOL    HW254407  12.559   9.319   2.801
84192SOL     OW54408   7.988   4.110  12.621
84192SOL    HW154409   8.055   4.162  12.578
84192SOL    HW254410   8.034   4.029  12.646
84193SOL     OW54411   0.495  12.380   5.595
84193SOL    HW154412   0.533  12.419   5.674
84193SOL    HW254413   0.545  12.299   5.582
84194SOL     OW54414   6.699   9.831   4.249
84194SOL    HW154415   6.677   9.887   4.324
84194SOL    HW254416   6.616   9.820   4.202
84195SOL     OW54417   8.898  10.544  14.636
84195SOL    HW154418   8.989  10.556  14.660
84195SOL    HW254419   8.850  10.553  14.718
84196SOL     OW54420   4.391   8.590  11.727
84196SOL    HW154421   4.476   8.619  11.762
84196SOL    HW254422   4.328   8.653  11.762
84197SOL     OW54423   5.773   8.243   6.016
84197SOL    HW154424   5.700   8.270   6.071
84197SOL    HW254425   5.801   8.323   5.971
84198SOL     OW54426   6.142  12.951  12.762
84198SOL    HW154427   6.213  12.925  12.821
84198SOL    HW254428   6.186  12.970  12.679
84199SOL     OW54429   5.040  10.563   1.488
84199SOL    HW154430   5.076  10.581   1.401
84199SOL    HW254431   4.980  10.490   1.475
84200SOL     OW54432   6.522  14.803   4.465
84200SOL    HW154433   6.486  14.848   4.389
84200SOL    HW254434   6.484  14.849   4.540
84201SOL     OW54435  12.596   3.871   9.856
84201SOL    HW154436  12.532   3.941   9.866
84201SOL    HW254437  12.655   3.880   9.930
84202SOL     OW54438  12.222   4.132   3.611
84202SOL    HW154439  12.169   4.209   3.633
84202SOL    HW254440  12.157   4.066   3.586
84203SOL     OW54441  13.263  13.480   0.122
84203SOL    HW154442  13.287  13.389   0.140
84203SOL    HW254443  13.224  13.511   0.204
84204SOL     OW54444  11.557   4.384  12.940
84204SOL    HW154445  11.536   4.475  12.962
84204SOL    HW254446  11.516   4.370  12.855
84205SOL     OW54447   8.127   4.974   9.048
84205SOL    HW154448   8.151   4.994   9.138
84205SOL    HW254449   8.182   4.900   9.024
84206SOL     OW54450   0.817   3.633   6.789
84206SOL    HW154451   0.729   3.651   6.755
84206SOL    HW254452   0.830   3.540   6.774
84207SOL     OW54453   6.470  12.573  11.074
84207SOL    HW154454   6.449  12.483  11.100
84207SOL    HW254455   6.557  12.589  11.110
84208SOL     OW54456   4.429   9.616   6.400
84208SOL    HW154457   4.498   9.675   6.429
84208SOL    HW254458   4.465   9.528   6.412
84209SOL     OW54459   0.546  12.682   9.191
84209SOL    HW154460   0.511  12.769   9.170
84209SOL    HW254461   0.641  12.694   9.188
84210SOL     OW54462   5.378   6.238   0.392
84210SOL    HW154463   5.450   6.270   0.447
84210SOL    HW254464   5.421   6.197   0.318
84211SOL     OW54465   0.906   5.342   4.484
84211SOL    HW154466   0.943   5.342   4.396
84211SOL    HW254467   0.898   5.435   4.506
84212SOL     OW54468   8.290  14.262   9.808
84212SOL    HW154469   8.233  14.202   9.760
84212SOL    HW254470   8.232  14.305   9.871
84213SOL     OW54471   7.921   1.601   9.935
84213SOL    HW154472   7.971   1.522   9.956
84213SOL    HW254473   7.908   1.597   9.840
84214SOL     OW54474   9.038   8.572  12.500
84214SOL    HW154475   8.983   8.645  12.473
84214SOL    HW254476   9.076   8.539  12.418
84215SOL     OW54477   3.174   5.779   1.888
84215SOL    HW154478   3.101   5.790   1.948
84215SOL    HW254479   3.170   5.856   1.831
84216SOL     OW54480   3.729  14.336   3.017
84216SOL    HW154481   3.719  14.374   2.930
84216SOL    HW254482   3.658  14.374   3.068
84217SOL     OW54483   1.259  11.256   2.236
84217SOL    HW154484   1.203  11.282   2.309
84217SOL    HW254485   1.201  11.256   2.160
84218SOL     OW54486   4.752  13.585  14.258
84218SOL    HW154487   4.703  13.522  14.311
84218SOL    HW254488   4.838  13.546  14.246
84219SOL     OW54489  11.322  13.958   4.874
84219SOL    HW154490  11.228  13.941   4.888
84219SOL    HW254491  11.348  14.007   4.952
84220SOL     OW54492   4.799  11.550  13.563
84220SOL    HW154493   4.836  11.473  13.606
84220SOL    HW254494   4.769  11.606  13.634
84221SOL     OW54495   0.761  14.297   5.019
84221SOL    HW154496   0.783  14.387   4.993
84221SOL    HW254497   0.842  14.263   5.057
84222SOL     OW54498  11.475   4.389   0.624
84222SOL    HW154499  11.390   4.371   0.664
84222SOL    HW254500  11.491   4.312   0.569
84223SOL     OW54501  13.256   1.983  10.065
84223SOL    HW154502  13.278   2.048   9.998
84223SOL    HW254503  13.295   1.902  10.034
84224SOL     OW54504   2.723   7.212   6.040
84224SOL    HW154505   2.716   7.268   5.963
84224SOL    HW254506   2.636   7.214   6.079
84225SOL     OW54507   7.498  14.714  13.000
84225SOL    HW154508   7.404  14.722  13.015
84225SOL    HW254509   7.507  14.630  12.954
84226SOL     OW54510   9.150   2.726   4.612
84226SOL    HW154511   9.093   2.650   4.600
84226SOL    HW254512   9.124   2.764   4.696
84227SOL     OW54513  12.471   0.137   2.958
84227SOL    HW154514  12.434   0.058   2.998
84227SOL    HW254515  12.472   0.118   2.864
84228SOL     OW54516   2.959   4.884   6.307
84228SOL    HW154517   3.030   4.944   6.286
84228SOL    HW254518   2.888   4.908   6.248
84229SOL     OW54519   1.599   0.189   6.153
84229SOL    HW154520   1.552   0.235   6.222
84229SOL    HW254521   1.557   0.104   6.148
84230SOL     OW54522   2.788  12.802   0.648
84230SOL    HW154523   2.833  12.877   0.611
84230SOL    HW254524   2.720  12.840   0.703
84231SOL     OW54525   8.788   6.979   3.704
84231SOL    HW154526   8.877   7.007   3.724
84231SOL    HW254527   8.755   6.943   3.786
84232SOL     OW54528   1.137   2.866  10.341
84232SOL    HW154529   1.108   2.953  10.313
84232SOL    HW254530   1.158   2.875  10.433
84233SOL     OW54531   7.771   3.499   3.747
84233SOL    HW154532   7.852   3.464   3.786
84233SOL    HW254533   7.796   3.521   3.657
84234SOL     OW54534   4.803  13.593   6.941
84234SOL    HW154535   4.899  13.594   6.943
84234SOL    HW254536   4.781  13.519   6.885
84235SOL     OW54537   3.897   8.326   0.610
84235SOL    HW154538   3.910   8.378   0.690
84235SOL    HW254539   3.986   8.299   0.585
84236SOL     OW54540   1.646   4.457  13.772
84236SOL    HW154541   1.675   4.371  13.804
84236SOL    HW254542   1.582   4.487  13.837
84237SOL     OW54543   8.430   1.741  13.401
84237SOL    HW154544   8.478   1.753  13.319
84237SOL    HW254545   8.368   1.671  13.382
84238SOL     OW54546   2.940  13.146   6.106
84238SOL    HW154547   3.034  13.135   6.093
84238SOL    HW254548   2.915  13.073   6.163
84239SOL     OW54549   2.821   2.216   3.035
84239SOL    HW154550   2.805   2.308   3.014
84239SOL    HW254551   2.769   2.200   3.113
84240SOL     OW54552   2.112  10.277  14.533
84240SOL    HW154553   2.109  10.229  14.451
84240SOL    HW254554   2.020  10.284  14.560
84241SOL     OW54555   3.210   8.573  12.336
84241SOL    HW154556   3.242   8.600  12.250
84241SOL    HW254557   3.238   8.481  12.344
84242SOL     OW54558   7.555   3.951   4.308
84242SOL    HW154559   7.638   3.904   4.297
84242SOL    HW254560   7.489   3.882   4.313
84243SOL     OW54561  12.075   7.976  10.537
84243SOL    HW154562  12.159   8.018  10.555
84243SOL    HW254563  12.064   7.985  10.442
84244SOL     OW54564  14.597   1.575   5.161
84244SOL    HW154565  14.688   1.603   5.170
84244SOL    HW254566  14.569   1.552   5.250
84245SOL     OW54567  10.328   7.847   8.831
84245SOL    HW154568  10.407   7.897   8.808
84245SOL    HW254569  10.293   7.892   8.908
84246SOL     OW54570  14.353  11.072   2.067
84246SOL    HW154571  14.334  11.132   2.140
84246SOL    HW254572  14.353  10.985   2.108
84247SOL     OW54573   6.661  12.517   0.098
84247SOL    HW154574   6.625  12.457   0.032
84247SOL    HW254575   6.586  12.540   0.152
84248SOL     OW54576   0.096   6.384   5.099
84248SOL    HW154577   0.017   6.428   5.068
84248SOL    HW254578   0.155   6.456   5.124
84249SOL     OW54579  12.583  11.167   5.822
84249SOL    HW154580  12.545  11.191   5.738
84249SOL    HW254581  12.663  11.119   5.800
84250SOL     OW54582   2.693  10.399  12.216
84250SOL    HW154583   2.709  10.452  12.294
84250SOL    HW254584   2.599  10.405  12.201
84251SOL     OW54585   4.371  11.359  14.122
84251SOL    HW154586   4.399  11.442  14.083
84251SOL    HW254587   4.421  11.353  14.203
84252SOL     OW54588  11.487   0.182   7.275
84252SOL    HW154589  11.462   0.274   7.279
84252SOL    HW254590  11.405   0.134   7.267
84253SOL     OW54591   6.327  13.727  10.600
84253SOL    HW154592   6.290  13.646  10.564
84253SOL    HW254593   6.387  13.758  10.532
84254SOL     OW54594   9.595   8.314  13.474
84254SOL    HW154595   9.581   8.397  13.429
84254SOL    HW254596   9.508   8.273  13.476
84255SOL     OW54597   5.338   9.410  13.334
84255SOL    HW154598   5.349   9.489  13.281
84255SOL    HW254599   5.345   9.337  13.273
84256SOL     OW54600  14.068   8.280  13.641
84256SOL    HW154601  14.077   8.205  13.583
84256SOL    HW254602  13.973   8.293  13.650
84257SOL     OW54603  11.644   2.244   6.750
84257SOL    HW154604  11.706   2.292   6.695
84257SOL    HW254605  11.675   2.260   6.840
84258SOL     OW54606   4.566   6.908  12.517
84258SOL    HW154607   4.657   6.930  12.536
84258SOL    HW254608   4.549   6.831  12.572
84259SOL     OW54609   1.042   9.312  14.490
84259SOL    HW154610   0.971   9.289  14.430
84259SOL    HW254611   1.065   9.230  14.532
84260SOL     OW54612   3.613   9.843  10.993
84260SOL    HW154613   3.651   9.785  11.059
84260SOL    HW254614   3.579   9.918  11.043
84261SOL     OW54615  12.001   1.948   3.918
84261SOL    HW154616  11.913   1.952   3.880
84261SOL    HW254617  12.060   1.965   3.845
84262SOL     OW54618   5.118   6.935   5.923
84262SOL    HW154619   5.091   6.981   5.843
84262SOL    HW254620   5.209   6.910   5.906
84263SOL     OW54621  12.588  12.765  13.015
84263SOL    HW154622  12.503  12.768  12.971
84263SOL    HW254623  12.651  12.786  12.946
84264SOL     OW54624  13.939   8.028   9.065
84264SOL    HW154625  13.923   8.063   9.153
84264SOL    HW254626  14.015   8.076   9.034
84265SOL     OW54627   9.301   0.865   1.801
84265SOL    HW154628   9.217   0.888   1.763
84265SOL    HW254629   9.290   0.877   1.895
84266SOL     OW54630  12.539  10.195  11.760
84266SOL    HW154631  12.478  10.226  11.827
84266SOL    HW254632  12.505  10.231  11.678
84267SOL     OW54633  12.643   1.626   9.695
84267SOL    HW154634  12.664   1.596   9.784
84267SOL    HW254635  12.642   1.546   9.642
84268SOL     OW54636   7.056   1.983  10.325
84268SOL    HW154637   7.068   2.076  10.305
84268SOL    HW254638   7.086   1.938  10.246
84269SOL     OW54639  14.057   0.418   4.555
84269SOL    HW154640  13.980   0.375   4.591
84269SOL    HW254641  14.060   0.389   4.463
84270SOL     OW54642   7.084  12.199   9.508
84270SOL    HW154643   7.149  12.158   9.566
84270SOL    HW254644   7.033  12.126   9.473
84271SOL     OW54645  14.658  14.741   7.064
84271SOL    HW154646  14.744  14.700   7.062
84271SOL    HW254647  14.648  14.773   7.154
84272SOL     OW54648  13.083   6.499   0.079
84272SOL    HW154649  13.168   6.533   0.106
84272SOL    HW254650  13.026   6.576   0.075
84273SOL     OW54651  14.578  10.977   6.602
84273SOL    HW154652  14.665  10.948   6.575
84273SOL    HW254653  14.550  10.912   6.666
84274SOL     OW54654  10.326   4.171  13.282
84274SOL    HW154655  10.259   4.123  13.331
84274SOL    HW254656  10.406   4.161  13.334
84275SOL     OW54657   4.387   2.026  13.233
84275SOL    HW154658   4.417   1.990  13.150
84275SOL    HW254659   4.412   2.118  13.231
84276SOL     OW54660   0.274   3.220  11.954
84276SOL    HW154661   0.255   3.230  12.047
84276SOL    HW254662   0.313   3.134  11.946
84277SOL     OW54663  11.208  12.887  10.274
84277SOL    HW154664  11.186  12.978  10.254
84277SOL    HW254665  11.179  12.839  10.197
84278SOL     OW54666  13.379   7.664   5.254
84278SOL    HW154667  13.452   7.718   5.286
84278SOL    HW254668  13.362   7.697   5.166
84279SOL     OW54669   7.469   5.569   0.919
84279SOL    HW154670   7.514   5.543   0.838
84279SOL    HW254671   7.474   5.665   0.918
84280SOL     OW54672  11.595   5.081   1.129
84280SOL    HW154673  11.608   5.114   1.218
84280SOL    HW254674  11.501   5.084   1.115
84281SOL     OW54675   1.479   3.714  13.079
84281SOL    HW154676   1.507   3.691  12.990
84281SOL    HW254677   1.416   3.646  13.102
84282SOL     OW54678   0.917   9.184   1.629
84282SOL    HW154679   0.987   9.121   1.616
84282SOL    HW254680   0.949   9.265   1.590
84283SOL     OW54681   3.393   4.122  14.847
84283SOL    HW154682   3.304   4.099  14.872
84283SOL    HW254683   3.402   4.091  14.757
84284SOL     OW54684  12.441  10.404   6.407
84284SOL    HW154685  12.523  10.452   6.422
84284SOL    HW254686  12.380  10.469   6.373
84285SOL     OW54687   4.633  14.647  10.312
84285SOL    HW154688   4.685  14.583  10.360
84285SOL    HW254689   4.544  14.612  10.313
84286SOL     OW54690   4.470   5.725   0.839
84286SOL    HW154691   4.405   5.761   0.899
84286SOL    HW254692   4.554   5.739   0.883
84287SOL     OW54693   7.809  11.373   2.141
84287SOL    HW154694   7.849  11.287   2.129
84287SOL    HW254695   7.862  11.415   2.210
84288SOL     OW54696   3.642   2.501   3.872
84288SOL    HW154697   3.692   2.522   3.793
84288SOL    HW254698   3.656   2.576   3.929
84289SOL     OW54699   0.888   8.082   2.259
84289SOL    HW154700   0.826   8.117   2.196
84289SOL    HW254701   0.939   8.017   2.211
84290SOL     OW54702   5.556  13.520   7.500
84290SOL    HW154703   5.541  13.495   7.591
84290SOL    HW254704   5.622  13.588   7.504
84291SOL     OW54705  14.799  14.137  11.058
84291SOL    HW154706  14.793  14.156  10.965
84291SOL    HW254707  14.741  14.201  11.100
84292SOL     OW54708  12.323  12.016   3.720
84292SOL    HW154709  12.250  12.042   3.776
84292SOL    HW254710  12.401  12.049   3.765
84293SOL     OW54711   3.620   3.833   2.352
84293SOL    HW154712   3.685   3.808   2.286
84293SOL    HW254713   3.583   3.750   2.382
84294SOL     OW54714  13.152   3.961   9.054
84294SOL    HW154715  13.140   4.006   8.970
84294SOL    HW254716  13.151   4.032   9.119
84295SOL     OW54717   2.776  10.359   1.960
84295SOL    HW154718   2.718  10.414   1.906
84295SOL    HW254719   2.856  10.411   1.968
84296SOL     OW54720   1.878   6.092   7.524
84296SOL    HW154721   1.876   6.064   7.433
84296SOL    HW254722   1.787   6.106   7.547
84297SOL     OW54723  14.854  10.367   6.629
84297SOL    HW154724  14.802  10.394   6.705
84297SOL    HW254725   0.049  10.319   6.667
84298SOL     OW54726  11.043   3.000  14.813
84298SOL    HW154727  11.085   3.033   0.013
84298SOL    HW254728  10.950   3.002  14.833
84299SOL     OW54729   4.640  13.909   6.023
84299SOL    HW154730   4.720  13.962   6.029
84299SOL    HW254731   4.604  13.910   6.111
84300SOL     OW54732   5.717  14.073   8.372
84300SOL    HW154733   5.626  14.081   8.343
84300SOL    HW254734   5.716  13.999   8.433
84301SOL     OW54735   6.075   3.445  12.877
84301SOL    HW154736   6.089   3.386  12.951
84301SOL    HW254737   6.028   3.519  12.915
84302SOL     OW54738   1.625   1.860  13.369
84302SOL    HW154739   1.657   1.828  13.285
84302SOL    HW254740   1.586   1.945  13.349
84303SOL     OW54741   7.245  12.538  10.252
84303SOL    HW154742   7.188  12.545  10.176
84303SOL    HW254743   7.331  12.519  10.216
84304SOL     OW54744   1.629   4.653  11.276
84304SOL    HW154745   1.639   4.720  11.209
84304SOL    HW254746   1.559   4.596  11.243
84305SOL     OW54747   2.191  13.899   3.633
84305SOL    HW154748   2.097  13.887   3.647
84305SOL    HW254749   2.229  13.903   3.721
84306SOL     OW54750   0.722  12.328  10.040
84306SOL    HW154751   0.756  12.364   9.958
84306SOL    HW254752   0.752  12.237  10.040
84307SOL     OW54753   5.546   4.554   5.269
84307SOL    HW154754   5.483   4.490   5.301
84307SOL    HW254755   5.596   4.508   5.202
84308SOL     OW54756   1.576   3.864   4.093
84308SOL    HW154757   1.576   3.817   4.176
84308SOL    HW254758   1.641   3.933   4.104
84309SOL     OW54759   7.404   8.747  11.202
84309SOL    HW154760   7.322   8.707  11.230
84309SOL    HW254761   7.378   8.811  11.136
84310SOL     OW54762  11.062  12.766   6.480
84310SOL    HW154763  11.140  12.733   6.525
84310SOL    HW254764  11.004  12.690   6.474
84311SOL     OW54765  10.496   7.413  13.445
84311SOL    HW154766  10.498   7.421  13.350
84311SOL    HW254767  10.499   7.503  13.477
84312SOL     OW54768   6.631   3.608   4.245
84312SOL    HW154769   6.632   3.637   4.337
84312SOL    HW254770   6.723   3.592   4.225
84313SOL     OW54771   1.348   2.453   5.378
84313SOL    HW154772   1.427   2.426   5.331
84313SOL    HW254773   1.338   2.387   5.447
84314SOL     OW54774  13.697   8.925   7.202
84314SOL    HW154775  13.671   8.911   7.294
84314SOL    HW254776  13.736   8.842   7.175
84315SOL     OW54777   9.171   5.847  12.797
84315SOL    HW154778   9.090   5.847  12.746
84315SOL    HW254779   9.203   5.937  12.792
84316SOL     OW54780   2.433   6.098   1.407
84316SOL    HW154781   2.425   6.146   1.490
84316SOL    HW254782   2.505   6.141   1.361
84317SOL     OW54783  13.977   2.556  13.064
84317SOL    HW154784  14.051   2.496  13.057
84317SOL    HW254785  14.011   2.638  13.027
84318SOL     OW54786  14.489   3.443   0.383
84318SOL    HW154787  14.416   3.387   0.359
84318SOL    HW254788  14.534   3.460   0.300
84319SOL     OW54789  13.619   4.197   3.455
84319SOL    HW154790  13.582   4.215   3.368
84319SOL    HW254791  13.558   4.135   3.494
84320SOL     OW54792  13.232   6.917   7.650
84320SOL    HW154793  13.178   6.913   7.572
84320SOL    HW254794  13.284   6.997   7.639
84321SOL     OW54795  14.448  14.213   0.171
84321SOL    HW154796  14.354  14.217   0.158
84321SOL    HW254797  14.480  14.161   0.097
84322SOL     OW54798   6.752  13.130   6.414
84322SOL    HW154799   6.773  13.223   6.418
84322SOL    HW254800   6.674  13.126   6.359
84323SOL     OW54801  13.458   2.905   7.760
84323SOL    HW154802  13.468   2.838   7.828
84323SOL    HW254803  13.386   2.873   7.705
84324SOL     OW54804   6.233  13.116   6.650
84324SOL    HW154805   6.231  13.046   6.715
84324SOL    HW254806   6.310  13.096   6.596
84325SOL     OW54807   4.450   1.230   3.564
84325SOL    HW154808   4.469   1.228   3.471
84325SOL    HW254809   4.380   1.295   3.573
84326SOL     OW54810  10.151   8.686  12.743
84326SOL    HW154811  10.104   8.708  12.663
84326SOL    HW254812  10.233   8.734  12.737
84327SOL     OW54813   5.358   3.764   8.193
84327SOL    HW154814   5.382   3.853   8.168
84327SOL    HW254815   5.419   3.708   8.144
84328SOL     OW54816   0.292  12.016   1.327
84328SOL    HW154817   0.355  12.044   1.261
84328SOL    HW254818   0.219  12.077   1.318
84329SOL     OW54819   1.434   7.055   1.376
84329SOL    HW154820   1.458   7.021   1.462
84329SOL    HW254821   1.407   6.978   1.326
84330SOL     OW54822  11.477   5.661  10.981
84330SOL    HW154823  11.465   5.748  10.943
84330SOL    HW254824  11.564   5.634  10.953
84331SOL     OW54825  10.553   8.007   3.281
84331SOL    HW154826  10.641   7.970   3.273
84331SOL    HW254827  10.501   7.936   3.320
84332SOL     OW54828  12.985   8.537  14.735
84332SOL    HW154829  13.063   8.539  14.790
84332SOL    HW254830  12.974   8.628  14.705
84333SOL     OW54831   9.401   1.420   9.631
84333SOL    HW154832   9.413   1.330   9.663
84333SOL    HW254833   9.481   1.438   9.581
84334SOL     OW54834   5.864   9.543  14.770
84334SOL    HW154835   5.957   9.554  14.791
84334SOL    HW254836   5.848   9.449  14.783
84335SOL     OW54837  14.505  13.629  12.376
84335SOL    HW154838  14.503  13.605  12.469
84335SOL    HW254839  14.413  13.634  12.351
84336SOL     OW54840   2.037   2.387   2.712
84336SOL    HW154841   2.030   2.482   2.726
84336SOL    HW254842   1.967   2.368   2.649
84337SOL     OW54843   4.431   9.062  13.813
84337SOL    HW154844   4.394   9.150  13.805
84337SOL    HW254845   4.390   9.025  13.891
84338SOL     OW54846   9.524  13.005   0.684
84338SOL    HW154847   9.435  12.988   0.652
84338SOL    HW254848   9.572  13.039   0.609
84339SOL     OW54849   2.709  10.347   9.148
84339SOL    HW154850   2.653  10.299   9.209
84339SOL    HW254851   2.648  10.398   9.094
84340SOL     OW54852   7.377  10.859   1.752
84340SOL    HW154853   7.320  10.801   1.701
84340SOL    HW254854   7.422  10.913   1.686
84341SOL     OW54855   7.326   4.952   6.593
84341SOL    HW154856   7.262   5.021   6.615
84341SOL    HW254857   7.372   4.936   6.675
84342SOL     OW54858   4.019   8.043   3.507
84342SOL    HW154859   4.072   7.984   3.560
84342SOL    HW254860   4.049   8.131   3.531
84343SOL     OW54861  12.179   6.756   0.043
84343SOL    HW154862  12.153   6.673   0.084
84343SOL    HW254863  12.190   6.735  14.829
84344SOL     OW54864   9.072   7.800   8.099
84344SOL    HW154865   9.153   7.755   8.122
84344SOL    HW254866   9.082   7.820   8.006
84345SOL     OW54867  11.603   9.984  14.768
84345SOL    HW154868  11.553   9.907  14.793
84345SOL    HW254869  11.600   9.985  14.673
84346SOL     OW54870   2.373  14.183   1.743
84346SOL    HW154871   2.311  14.205   1.812
84346SOL    HW254872   2.321  14.133   1.680
84347SOL     OW54873   5.496   5.451   2.735
84347SOL    HW154874   5.550   5.402   2.673
84347SOL    HW254875   5.414   5.467   2.688
84348SOL     OW54876   9.769   9.132  13.552
84348SOL    HW154877   9.768   9.226  13.572
84348SOL    HW254878   9.830   9.123  13.479
84349SOL     OW54879   7.344  12.492   3.086
84349SOL    HW154880   7.382  12.417   3.041
84349SOL    HW254881   7.378  12.568   3.039
84350SOL     OW54882  13.363  10.407  10.195
84350SOL    HW154883  13.279  10.393  10.238
84350SOL    HW254884  13.365  10.501  10.174
84351SOL     OW54885   9.886   2.421   2.651
84351SOL    HW154886   9.938   2.359   2.701
84351SOL    HW254887   9.831   2.465   2.716
84352SOL     OW54888   0.109  12.900   0.923
84352SOL    HW154889   0.036  12.913   0.863
84352SOL    HW254890   0.076  12.929   1.008
84353SOL     OW54891   2.208   2.986   9.374
84353SOL    HW154892   2.125   2.959   9.413
84353SOL    HW254893   2.259   3.019   9.448
84354SOL     OW54894   8.102  12.087  12.195
84354SOL    HW154895   8.016  12.090  12.238
84354SOL    HW254896   8.165  12.101  12.266
84355SOL     OW54897   9.680   3.775   3.302
84355SOL    HW154898   9.704   3.841   3.237
84355SOL    HW254899   9.591   3.799   3.329
84356SOL     OW54900   4.350  14.522  12.768
84356SOL    HW154901   4.374  14.537  12.860
84356SOL    HW254902   4.315  14.605  12.738
84357SOL     OW54903   5.570   0.625   8.899
84357SOL    HW154904   5.646   0.665   8.857
84357SOL    HW254905   5.601   0.540   8.929
84358SOL     OW54906  12.603   8.125   8.726
84358SOL    HW154907  12.568   8.089   8.644
84358SOL    HW254908  12.537   8.188   8.754
84359SOL     OW54909  11.651   4.670   7.585
84359SOL    HW154910  11.563   4.635   7.598
84359SOL    HW254911  11.643   4.764   7.601
84360SOL     OW54912   1.873  11.678   2.112
84360SOL    HW154913   1.876  11.583   2.118
84360SOL    HW254914   1.874  11.696   2.018
84361SOL     OW54915   7.695  14.518   4.341
84361SOL    HW154916   7.693  14.614   4.339
84361SOL    HW254917   7.657  14.495   4.426
84362SOL     OW54918   8.239  14.554   4.878
84362SOL    HW154919   8.253  14.560   4.783
84362SOL    HW254920   8.159  14.503   4.887
84363SOL     OW54921   1.481  13.107   0.177
84363SOL    HW154922   1.479  13.092   0.271
84363SOL    HW254923   1.543  13.180   0.166
84364SOL     OW54924   2.825   0.415   6.118
84364SOL    HW154925   2.897   0.356   6.098
84364SOL    HW254926   2.809   0.462   6.036
84365SOL     OW54927   4.301   5.120  13.532
84365SOL    HW154928   4.337   5.088  13.449
84365SOL    HW254929   4.373   5.110  13.594
84366SOL     OW54930  12.072   1.385   0.916
84366SOL    HW154931  12.155   1.383   0.869
84366SOL    HW254932  12.022   1.312   0.880
84367SOL     OW54933   8.357   8.199   6.866
84367SOL    HW154934   8.390   8.216   6.954
84367SOL    HW254935   8.424   8.143   6.826
84368SOL     OW54936   1.612   0.893   6.958
84368SOL    HW154937   1.604   0.981   6.922
84368SOL    HW254938   1.705   0.886   6.983
84369SOL     OW54939   8.925   5.149   0.711
84369SOL    HW154940   8.995   5.171   0.772
84369SOL    HW254941   8.859   5.216   0.725
84370SOL     OW54942   9.127   0.471   4.889
84370SOL    HW154943   9.165   0.451   4.804
84370SOL    HW254944   9.152   0.562   4.905
84371SOL     OW54945   5.689   5.048  11.408
84371SOL    HW154946   5.747   5.084  11.342
84371SOL    HW254947   5.638   4.981  11.362
84372SOL     OW54948  11.321  10.632   3.502
84372SOL    HW154949  11.353  10.623   3.591
84372SOL    HW254950  11.339  10.547   3.461
84373SOL     OW54951   6.474  10.855   5.694
84373SOL    HW154952   6.461  10.820   5.783
84373SOL    HW254953   6.462  10.949   5.704
84374SOL     OW54954   6.338   9.709   4.185
84374SOL    HW154955   6.248   9.682   4.206
84374SOL    HW254956   6.392   9.661   4.247
84375SOL     OW54957   2.502   0.406   6.327
84375SOL    HW154958   2.497   0.310   6.322
84375SOL    HW254959   2.468   0.427   6.414
84376SOL     OW54960   1.337   9.267   3.261
84376SOL    HW154961   1.360   9.358   3.281
84376SOL    HW254962   1.421   9.225   3.240
84377SOL     OW54963   2.086  12.872  11.745
84377SOL    HW154964   2.016  12.933  11.770
84377SOL    HW254965   2.067  12.792  11.794
84378SOL     OW54966   6.420   4.826   9.952
84378SOL    HW154967   6.370   4.777   9.888
84378SOL    HW254968   6.457   4.899   9.903
84379SOL     OW54969   1.770   1.286   6.005
84379SOL    HW154970   1.822   1.258   6.080
84379SOL    HW254971   1.743   1.375   6.027
84380SOL     OW54972  12.227   6.007  13.702
84380SOL    HW154973  12.226   6.002  13.798
84380SOL    HW254974  12.208   6.098  13.683
84381SOL     OW54975   2.579   7.457   6.950
84381SOL    HW154976   2.540   7.420   6.871
84381SOL    HW254977   2.522   7.429   7.021
84382SOL     OW54978  13.244   0.206   1.251
84382SOL    HW154979  13.151   0.184   1.251
84382SOL    HW254980  13.255   0.263   1.328
84383SOL     OW54981   1.535   0.958   1.210
84383SOL    HW154982   1.463   0.955   1.146
84383SOL    HW254983   1.505   1.020   1.277
84384SOL     OW54984  10.347   8.622   1.251
84384SOL    HW154985  10.349   8.689   1.183
84384SOL    HW254986  10.398   8.660   1.323
84385SOL     OW54987  12.035   6.792   9.269
84385SOL    HW154988  11.990   6.724   9.319
84385SOL    HW254989  12.066   6.748   9.190
84386SOL     OW54990  10.112  13.904   5.034
84386SOL    HW154991  10.187  13.917   5.091
84386SOL    HW254992  10.036  13.905   5.092
84387SOL     OW54993   9.600   7.287   1.768
84387SOL    HW154994   9.672   7.258   1.823
84387SOL    HW254995   9.643   7.335   1.697
84388SOL     OW54996   3.726   2.204   0.460
84388SOL    HW154997   3.704   2.198   0.367
84388SOL    HW254998   3.812   2.245   0.462
84389SOL     OW54999  12.710  10.519   5.966
84389SOL    HW155000  12.696  10.527   6.061
84389SOL    HW255001  12.757  10.598   5.942
84390SOL     OW55002   2.725  12.174  10.195
84390SOL    HW155003   2.762  12.258  10.169
84390SOL    HW255004   2.630  12.188  10.191
84391SOL     OW55005   4.799   1.605  11.498
84391SOL    HW155006   4.865   1.646  11.441
84391SOL    HW255007   4.723   1.663  11.492
84392SOL     OW55008   7.038   1.303   1.749
84392SOL    HW155009   6.984   1.380   1.731
84392SOL    HW255010   7.040   1.255   1.666
84393SOL     OW55011   0.981  11.050   1.371
84393SOL    HW155012   1.060  11.098   1.394
84393SOL    HW255013   0.999  11.014   1.284
84394SOL     OW55014   7.942   0.036  12.910
84394SOL    HW155015   7.853   0.070  12.912
84394SOL    HW255016   7.938  14.841  12.850
84395SOL     OW55017  11.766  10.926   0.703
84395SOL    HW155018  11.733  10.846   0.664
84395SOL    HW255019  11.714  10.996   0.665
84396SOL     OW55020   9.854  14.588   9.983
84396SOL    HW155021   9.845  14.580  10.078
84396SOL    HW255022   9.941  14.552   9.964
84397SOL     OW55023   4.574  13.194   9.218
84397SOL    HW155024   4.501  13.255   9.208
84397SOL    HW255025   4.537  13.108   9.198
84398SOL     OW55026   0.985   1.737   4.497
84398SOL    HW155027   0.982   1.807   4.563
84398SOL    HW255028   0.922   1.672   4.528
84399SOL     OW55029   1.162   5.278   5.247
84399SOL    HW155030   1.138   5.370   5.235
84399SOL    HW255031   1.257   5.278   5.251
84400SOL     OW55032   5.647   9.568  13.871
84400SOL    HW155033   5.595   9.646  13.889
84400SOL    HW255034   5.589   9.510  13.823
84401SOL     OW55035   8.146   0.096   9.659
84401SOL    HW155036   8.198   0.052   9.726
84401SOL    HW255037   8.064   0.117   9.702
84402SOL     OW55038  13.448   7.464  14.591
84402SOL    HW155039  13.503   7.508  14.528
84402SOL    HW255040  13.358   7.489  14.567
84403SOL     OW55041   9.806  12.693  12.915
84403SOL    HW155042   9.750  12.653  12.849
84403SOL    HW255043   9.847  12.767  12.870
84404SOL     OW55044   0.217   6.347  11.201
84404SOL    HW155045   0.300   6.385  11.172
84404SOL    HW255046   0.225   6.343  11.296
84405SOL     OW55047  10.506  10.562   3.969
84405SOL    HW155048  10.487  10.560   4.063
84405SOL    HW255049  10.420  10.553   3.927
84406SOL     OW55050  10.459   8.659   3.827
84406SOL    HW155051  10.434   8.584   3.772
84406SOL    HW255052  10.394   8.726   3.806
84407SOL     OW55053  13.913  12.412   3.035
84407SOL    HW155054  13.941  12.503   3.043
84407SOL    HW255055  13.994  12.361   3.036
84408SOL     OW55056   6.734   6.617  12.489
84408SOL    HW155057   6.808   6.609  12.429
84408SOL    HW255058   6.771   6.653  12.569
84409SOL     OW55059  11.632   5.189  13.990
84409SOL    HW155060  11.630   5.248  13.915
84409SOL    HW255061  11.588   5.238  14.060
84410SOL     OW55062  12.479   9.761  13.340
84410SOL    HW155063  12.474   9.857  13.333
84410SOL    HW255064  12.392   9.735  13.370
84411SOL     OW55065   1.798   3.921   8.968
84411SOL    HW155066   1.838   3.983   9.030
84411SOL    HW255067   1.798   3.968   8.885
84412SOL     OW55068   4.228  10.961   5.229
84412SOL    HW155069   4.147  10.941   5.277
84412SOL    HW255070   4.259  10.875   5.199
84413SOL     OW55071   0.961  14.737  10.220
84413SOL    HW155072   0.910  14.816  10.238
84413SOL    HW255073   0.896  14.666  10.222
84414SOL     OW55074  10.985   8.354  12.607
84414SOL    HW155075  11.029   8.326  12.688
84414SOL    HW255076  10.972   8.273  12.558
84415SOL     OW55077   0.559   6.541   5.621
84415SOL    HW155078   0.609   6.490   5.685
84415SOL    HW255079   0.584   6.505   5.536
84416SOL     OW55080   8.398   1.916   2.980
84416SOL    HW155081   8.483   1.893   3.018
84416SOL    HW255082   8.381   2.005   3.010
84417SOL     OW55083   7.967  13.100  10.543
84417SOL    HW155084   7.892  13.079  10.488
84417SOL    HW255085   7.933  13.160  10.609
84418SOL     OW55086   9.271  10.577   6.831
84418SOL    HW155087   9.257  10.489   6.865
84418SOL    HW255088   9.189  10.623   6.850
84419SOL     OW55089   2.386   1.081  14.276
84419SOL    HW155090   2.345   1.112  14.356
84419SOL    HW255091   2.479   1.074  14.297
84420SOL     OW55092  12.536  11.636   6.878
84420SOL    HW155093  12.630  11.651   6.893
84420SOL    HW255094  12.526  11.541   6.885
84421SOL     OW55095   1.455   3.656   7.502
84421SOL    HW155096   1.367   3.686   7.524
84421SOL    HW255097   1.457   3.652   7.407
84422SOL     OW55098   2.125   8.096   8.693
84422SOL    HW155099   2.133   8.000   8.693
84422SOL    HW255100   2.152   8.122   8.604
84423SOL     OW55101   3.551   9.409   8.275
84423SOL    HW155102   3.501   9.433   8.353
84423SOL    HW255103   3.492   9.430   8.202
84424SOL     OW55104  12.462   0.871   5.512
84424SOL    HW155105  12.502   0.946   5.468
84424SOL    HW255106  12.422   0.908   5.591
84425SOL     OW55107  12.805   1.738   6.761
84425SOL    HW155108  12.847   1.675   6.818
84425SOL    HW255109  12.749   1.686   6.704
84426SOL     OW55110   9.226   6.326   7.501
84426SOL    HW155111   9.212   6.405   7.449
84426SOL    HW255112   9.314   6.296   7.476
84427SOL     OW55113   1.130   9.525   5.684
84427SOL    HW155114   1.067   9.542   5.613
84427SOL    HW255115   1.201   9.587   5.667
84428SOL     OW55116  12.093  13.088   0.495
84428SOL    HW155117  12.024  13.088   0.561
84428SOL    HW255118  12.172  13.061   0.542
84429SOL     OW55119  13.305  14.761  11.993
84429SOL    HW155120  13.327  14.845  11.954
84429SOL    HW255121  13.289  14.703  11.919
84430SOL     OW55122   4.388  13.015   2.463
84430SOL    HW155123   4.466  13.014   2.409
84430SOL    HW255124   4.416  13.054   2.545
84431SOL     OW55125   9.248  10.770   4.096
84431SOL    HW155126   9.245  10.866   4.103
84431SOL    HW255127   9.158  10.742   4.110
84432SOL     OW55128   8.469   1.874   6.778
84432SOL    HW155129   8.403   1.805   6.783
84432SOL    HW255130   8.479   1.904   6.868
84433SOL     OW55131   5.176  11.211   5.336
84433SOL    HW155132   5.223  11.263   5.401
84433SOL    HW255133   5.085  11.240   5.343
84434SOL     OW55134  14.807  11.189   7.533
84434SOL    HW155135  14.785  11.199   7.440
84434SOL    HW255136  14.754  11.254   7.578
84435SOL     OW55137   5.537   4.238   7.785
84435SOL    HW155138   5.529   4.328   7.818
84435SOL    HW255139   5.533   4.248   7.690
84436SOL     OW55140  13.635   2.413  12.691
84436SOL    HW155141  13.544   2.394  12.671
84436SOL    HW255142  13.681   2.402  12.608
84437SOL     OW55143   8.149  11.775   9.181
84437SOL    HW155144   8.197  11.761   9.262
84437SOL    HW255145   8.198  11.842   9.135
84438SOL     OW55146  14.306   7.236   8.039
84438SOL    HW155147  14.257   7.164   8.078
84438SOL    HW255148  14.397   7.221   8.065
84439SOL     OW55149  10.244   0.784  12.406
84439SOL    HW155150  10.186   0.796  12.330
84439SOL    HW255151  10.293   0.866  12.412
84440SOL     OW55152  13.399   0.607  14.620
84440SOL    HW155153  13.421   0.676  14.683
84440SOL    HW255154  13.315   0.634  14.583
84441SOL     OW55155   5.242   6.702   0.961
84441SOL    HW155156   5.328   6.744   0.962
84441SOL    HW255157   5.209   6.713   1.050
84442SOL     OW55158   1.679   2.943   0.212
84442SOL    HW155159   1.738   2.878   0.249
84442SOL    HW255160   1.602   2.941   0.270
84443SOL     OW55161  12.425  14.527   2.418
84443SOL    HW155162  12.415  14.444   2.466
84443SOL    HW255163  12.375  14.514   2.338
84444SOL     OW55164   2.757   0.794   3.353
84444SOL    HW155165   2.681   0.742   3.328
84444SOL    HW255166   2.827   0.730   3.366
84445SOL     OW55167  14.303   1.809   7.261
84445SOL    HW155168  14.368   1.780   7.325
84445SOL    HW255169  14.254   1.878   7.306
84446SOL     OW55170   7.199   7.520   9.039
84446SOL    HW155171   7.160   7.601   9.006
84446SOL    HW255172   7.291   7.526   9.015
84447SOL     OW55173   3.949  10.663  12.361
84447SOL    HW155174   3.960  10.670  12.266
84447SOL    HW255175   3.856  10.680  12.376
84448SOL     OW55176   6.577  12.025   3.434
84448SOL    HW155177   6.577  12.073   3.516
84448SOL    HW255178   6.577  12.092   3.366
84449SOL     OW55179   9.115   0.357   0.343
84449SOL    HW155180   9.180   0.399   0.287
84449SOL    HW255181   9.125   0.264   0.327
84450SOL     OW55182  12.823   9.503  11.288
84450SOL    HW155183  12.807   9.560  11.213
84450SOL    HW255184  12.750   9.441  11.287
84451SOL     OW55185   6.843   0.354   8.475
84451SOL    HW155186   6.857   0.316   8.562
84451SOL    HW255187   6.863   0.282   8.414
84452SOL     OW55188  11.347   1.723   8.082
84452SOL    HW155189  11.394   1.716   8.165
84452SOL    HW255190  11.288   1.797   8.094
84453SOL     OW55191   3.337   9.681   3.468
84453SOL    HW155192   3.423   9.661   3.433
84453SOL    HW255193   3.296   9.595   3.484
84454SOL     OW55194  14.049   4.359  14.469
84454SOL    HW155195  14.078   4.312  14.390
84454SOL    HW255196  13.954   4.357  14.464
84455SOL     OW55197   9.240   9.750  14.439
84455SOL    HW155198   9.273   9.742  14.529
84455SOL    HW255199   9.153   9.787  14.449
84456SOL     OW55200  11.610  14.226   4.043
84456SOL    HW155201  11.550  14.156   4.019
84456SOL    HW255202  11.592  14.295   3.979
84457SOL     OW55203   3.268   9.301   9.527
84457SOL    HW155204   3.187   9.351   9.517
84457SOL    HW255205   3.240   9.210   9.529
84458SOL     OW55206   8.566   8.160  14.863
84458SOL    HW155207   8.475   8.159   0.015
84458SOL    HW255208   8.559   8.156  14.768
84459SOL     OW55209   2.626   7.311   1.458
84459SOL    HW155210   2.545   7.283   1.501
84459SOL    HW255211   2.623   7.406   1.462
84460SOL     OW55212  10.052  14.559   3.617
84460SOL    HW155213  10.022  14.469   3.631
84460SOL    HW255214   9.987  14.596   3.557
84461SOL     OW55215   8.458   0.702  13.871
84461SOL    HW155216   8.537   0.723  13.821
84461SOL    HW255217   8.397   0.669  13.805
84462SOL     OW55218   9.584  11.739  11.831
84462SOL    HW155219   9.615  11.649  11.839
84462SOL    HW255220   9.490  11.734  11.848
84463SOL     OW55221   9.941   7.342   2.236
84463SOL    HW155222  10.011   7.277   2.232
84463SOL    HW255223   9.910   7.349   2.146
84464SOL     OW55224  13.125  11.189  12.259
84464SOL    HW155225  13.103  11.121  12.196
84464SOL    HW255226  13.084  11.160  12.340
84465SOL     OW55227   2.808  12.119   3.511
84465SOL    HW155228   2.764  12.139   3.428
84465SOL    HW255229   2.759  12.166   3.577
84466SOL     OW55230   5.568   6.250   0.625
84466SOL    HW155231   5.583   6.187   0.696
84466SOL    HW255232   5.646   6.241   0.569
84467SOL     OW55233   3.196   7.500  10.987
84467SOL    HW155234   3.249   7.437  11.036
84467SOL    HW255235   3.251   7.524  10.912
84468SOL     OW55236   4.817   2.249  13.630
84468SOL    HW155237   4.723   2.266  13.627
84468SOL    HW255238   4.834   2.192  13.555
84469SOL     OW55239   6.848  12.509   3.280
84469SOL    HW155240   6.799  12.463   3.212
84469SOL    HW255241   6.885  12.439   3.334
84470SOL     OW55242   0.117   3.746   1.497
84470SOL    HW155243   0.110   3.676   1.562
84470SOL    HW255244   0.137   3.701   1.415
84471SOL     OW55245   4.775   3.020  12.808
84471SOL    HW155246   4.793   2.935  12.849
84471SOL    HW255247   4.701   3.055  12.858
84472SOL     OW55248   3.174  14.791   5.181
84472SOL    HW155249   3.209  14.834   5.259
84472SOL    HW255250   3.080  14.782   5.199
84473SOL     OW55251   8.331   0.855   8.015
84473SOL    HW155252   8.261   0.793   7.998
84473SOL    HW255253   8.391   0.845   7.941
84474SOL     OW55254   2.718  10.527  13.782
84474SOL    HW155255   2.641  10.472  13.796
84474SOL    HW255256   2.691  10.614  13.810
84475SOL     OW55257   6.991  11.728  14.763
84475SOL    HW155258   7.072  11.777  14.748
84475SOL    HW255259   7.010  11.640  14.729
84476SOL     OW55260  13.567  13.662   3.231
84476SOL    HW155261  13.655  13.653   3.268
84476SOL    HW255262  13.563  13.595   3.163
84477SOL     OW55263   9.088  11.302  10.028
84477SOL    HW155264   8.993  11.290  10.031
84477SOL    HW255265   9.101  11.394  10.053
84478SOL     OW55266   5.767   3.147   7.494
84478SOL    HW155267   5.749   3.072   7.436
84478SOL    HW255268   5.713   3.131   7.571
84479SOL     OW55269  13.425   2.904  10.495
84479SOL    HW155270  13.338   2.865  10.504
84479SOL    HW255271  13.407   2.997  10.478
84480SOL     OW55272   0.328   4.338   6.491
84480SOL    HW155273   0.271   4.392   6.436
84480SOL    HW255274   0.416   4.372   6.475
84481SOL     OW55275   9.361   4.332   0.201
84481SOL    HW155276   9.360   4.254   0.146
84481SOL    HW255277   9.391   4.403   0.144
84482SOL     OW55278  13.318   8.554  10.593
84482SOL    HW155279  13.287   8.480  10.541
84482SOL    HW255280  13.240   8.606  10.611
84483SOL     OW55281   1.422   8.244   1.609
84483SOL    HW155282   1.332   8.232   1.580
84483SOL    HW255283   1.472   8.253   1.527
84484SOL     OW55284   1.918  11.220  13.576
84484SOL    HW155285   1.933  11.279  13.502
84484SOL    HW255286   2.004  11.210  13.616
84485SOL     OW55287  10.326  13.377  14.572
84485SOL    HW155288  10.266  13.398  14.644
84485SOL    HW255289  10.396  13.442  14.580
84486SOL     OW55290   8.891   8.915   6.589
84486SOL    HW155291   8.825   8.886   6.652
84486SOL    HW255292   8.965   8.943   6.643
84487SOL     OW55293  13.663   6.529   7.899
84487SOL    HW155294  13.751   6.555   7.873
84487SOL    HW255295  13.606   6.598   7.864
84488SOL     OW55296  13.480   4.151  11.283
84488SOL    HW155297  13.550   4.201  11.326
84488SOL    HW255298  13.522   4.113  11.206
84489SOL     OW55299  13.701  13.218   8.810
84489SOL    HW155300  13.638  13.261   8.753
84489SOL    HW255301  13.648  13.183   8.882
84490SOL     OW55302  11.951   6.199  14.327
84490SOL    HW155303  11.911   6.122  14.285
84490SOL    HW255304  11.881   6.264  14.329
84491SOL     OW55305  13.302   9.876  13.220
84491SOL    HW155306  13.263   9.824  13.291
84491SOL    HW255307  13.228   9.920  13.179
84492SOL     OW55308  12.820  12.019   3.813
84492SOL    HW155309  12.754  12.068   3.764
84492SOL    HW255310  12.851  12.080   3.880
84493SOL     OW55311  10.618   6.591   0.925
84493SOL    HW155312  10.549   6.627   0.981
84493SOL    HW255313  10.576   6.576   0.841
84494SOL     OW55314   1.611  11.278   1.179
84494SOL    HW155315   1.589  11.325   1.098
84494SOL    HW255316   1.557  11.199   1.176
84495SOL     OW55317   3.063   6.884   5.174
84495SOL    HW155318   3.102   6.956   5.126
84495SOL    HW255319   3.120   6.872   5.251
84496SOL     OW55320  13.379   7.107   2.563
84496SOL    HW155321  13.442   7.177   2.547
84496SOL    HW255322  13.317   7.143   2.626
84497SOL     OW55323   2.588   4.663   9.701
84497SOL    HW155324   2.509   4.658   9.755
84497SOL    HW255325   2.575   4.741   9.647
84498SOL     OW55326   0.915  12.513   3.048
84498SOL    HW155327   0.844  12.495   3.109
84498SOL    HW255328   0.993  12.522   3.103
84499SOL     OW55329   3.181   2.342  11.841
84499SOL    HW155330   3.141   2.394  11.772
84499SOL    HW255331   3.109   2.289  11.875
84500SOL     OW55332  14.170   3.934  12.814
84500SOL    HW155333  14.147   4.013  12.764
84500SOL    HW255334  14.266   3.933  12.814
84501SOL     OW55335   2.298   2.377   9.376
84501SOL    HW155336   2.274   2.464   9.343
84501SOL    HW255337   2.328   2.393   9.466
84502SOL     OW55338   2.549  12.365  12.823
84502SOL    HW155339   2.556  12.341  12.730
84502SOL    HW255340   2.544  12.281  12.869
84503SOL     OW55341  12.441  14.146   3.117
84503SOL    HW155342  12.380  14.197   3.171
84503SOL    HW255343  12.528  14.167   3.152
84504SOL     OW55344   2.005   0.434   7.516
84504SOL    HW155345   2.043   0.363   7.466
84504SOL    HW255346   2.072   0.456   7.581
84505SOL     OW55347   0.257  14.504  10.533
84505SOL    HW155348   0.176  14.544  10.564
84505SOL    HW255349   0.242  14.489  10.439
84506SOL     OW55350  12.610  10.632   6.435
84506SOL    HW155351  12.667  10.669   6.502
84506SOL    HW255352  12.580  10.707   6.384
84507SOL     OW55353   9.667   2.133   0.107
84507SOL    HW155354   9.652   2.143   0.013
84507SOL    HW255355   9.622   2.207   0.146
84508SOL     OW55356   9.156   3.523  12.013
84508SOL    HW155357   9.155   3.583  12.087
84508SOL    HW255358   9.086   3.553  11.956
84509SOL     OW55359   7.025  12.707   0.882
84509SOL    HW155360   7.097  12.658   0.919
84509SOL    HW255361   6.971  12.642   0.837
84510SOL     OW55362  10.605  12.559  14.825
84510SOL    HW155363  10.629  12.652  14.819
84510SOL    HW255364  10.523  12.559  14.875
84511SOL     OW55365   8.410   1.732   0.761
84511SOL    HW155366   8.476   1.668   0.735
84511SOL    HW255367   8.455   1.790   0.822
84512SOL     OW55368   8.104  12.782   3.386
84512SOL    HW155369   8.157  12.767   3.308
84512SOL    HW255370   8.098  12.697   3.428
84513SOL     OW55371   5.150   4.265  10.087
84513SOL    HW155372   5.202   4.207  10.031
84513SOL    HW255373   5.202   4.274  10.166
84514SOL     OW55374   0.358   2.900  14.036
84514SOL    HW155375   0.439   2.871  13.994
84514SOL    HW255376   0.303   2.821  14.037
84515SOL     OW55377   7.317   8.434  13.067
84515SOL    HW155378   7.352   8.348  13.089
84515SOL    HW255379   7.313   8.480  13.151
84516SOL     OW55380  11.769   6.159   6.137
84516SOL    HW155381  11.804   6.096   6.074
84516SOL    HW255382  11.717   6.106   6.198
84517SOL     OW55383  12.262   3.025   2.276
84517SOL    HW155384  12.238   3.078   2.199
84517SOL    HW255385  12.355   3.042   2.289
84518SOL     OW55386   6.054   5.142   9.786
84518SOL    HW155387   6.137   5.142   9.835
84518SOL    HW255388   6.078   5.108   9.699
84519SOL     OW55389  12.524   3.646  11.168
84519SOL    HW155390  12.452   3.659  11.106
84519SOL    HW255391  12.482   3.641  11.253
84520SOL     OW55392   1.426   5.107  12.253
84520SOL    HW155393   1.420   5.106  12.158
84520SOL    HW255394   1.355   5.050  12.282
84521SOL     OW55395   4.152   9.607  10.152
84521SOL    HW155396   4.129   9.645  10.067
84521SOL    HW255397   4.069   9.601  10.199
84522SOL     OW55398  11.819   6.323   2.525
84522SOL    HW155399  11.740   6.351   2.480
84522SOL    HW255400  11.873   6.402   2.529
84523SOL     OW55401   5.085  13.326   2.873
84523SOL    HW155402   4.997  13.331   2.909
84523SOL    HW255403   5.086  13.390   2.801
84524SOL     OW55404  10.534   3.683   4.737
84524SOL    HW155405  10.546   3.776   4.719
84524SOL    HW255406  10.439   3.673   4.748
84525SOL     OW55407  11.674  10.343   0.441
84525SOL    HW155408  11.746  10.405   0.446
84525SOL    HW255409  11.670  10.318   0.348
84526SOL     OW55410  11.274   0.404   7.484
84526SOL    HW155411  11.308   0.415   7.395
84526SOL    HW255412  11.291   0.488   7.526
84527SOL     OW55413   9.334   1.000   2.865
84527SOL    HW155414   9.391   0.975   2.792
84527SOL    HW255415   9.301   1.086   2.841
84528SOL     OW55416   1.938   5.820   4.357
84528SOL    HW155417   1.960   5.732   4.327
84528SOL    HW255418   1.852   5.838   4.320
84529SOL     OW55419   2.253   0.048  12.455
84529SOL    HW155420   2.212   0.134  12.456
84529SOL    HW255421   2.269   0.028  12.547
84530SOL     OW55422   8.382   3.685   1.410
84530SOL    HW155423   8.413   3.594   1.404
84530SOL    HW255424   8.287   3.677   1.411
84531SOL     OW55425   4.251   1.541  10.860
84531SOL    HW155426   4.328   1.580  10.901
84531SOL    HW255427   4.282   1.507  10.776
84532SOL     OW55428  13.972   6.114   3.316
84532SOL    HW155429  14.047   6.164   3.348
84532SOL    HW255430  13.937   6.167   3.244
84533SOL     OW55431   1.087   5.615  13.738
84533SOL    HW155432   1.135   5.575  13.810
84533SOL    HW255433   1.039   5.687  13.778
84534SOL     OW55434   0.674  13.045   8.573
84534SOL    HW155435   0.694  12.980   8.640
84534SOL    HW255436   0.590  13.017   8.536
84535SOL     OW55437  11.336   3.286   2.443
84535SOL    HW155438  11.398   3.357   2.462
84535SOL    HW255439  11.318   3.294   2.350
84536SOL     OW55440  12.988   9.901   1.970
84536SOL    HW155441  12.946   9.906   2.056
84536SOL    HW255442  12.918   9.871   1.912
84537SOL     OW55443   7.562  11.759  13.396
84537SOL    HW155444   7.500  11.692  13.369
84537SOL    HW255445   7.508  11.829  13.432
84538SOL     OW55446   6.573   7.237  11.165
84538SOL    HW155447   6.538   7.155  11.130
84538SOL    HW255448   6.624   7.273  11.093
84539SOL     OW55449   7.677  12.303   0.435
84539SOL    HW155450   7.754  12.315   0.379
84539SOL    HW255451   7.603  12.324   0.378
84540SOL     OW55452  12.370   7.988  13.965
84540SOL    HW155453  12.442   8.051  13.971
84540SOL    HW255454  12.382   7.930  14.040
84541SOL     OW55455   3.492  12.909  11.278
84541SOL    HW155456   3.425  12.956  11.228
84541SOL    HW255457   3.477  12.817  11.257
84542SOL     OW55458   0.785  10.102  11.277
84542SOL    HW155459   0.714  10.116  11.339
84542SOL    HW255460   0.813  10.011  11.293
84543SOL     OW55461  10.030   3.482   5.027
84543SOL    HW155462  10.108   3.526   4.994
84543SOL    HW255463   9.966   3.552   5.037
84544SOL     OW55464   8.882   2.335   3.611
84544SOL    HW155465   8.835   2.304   3.534
84544SOL    HW255466   8.814   2.369   3.669
84545SOL     OW55467   7.203   4.191  12.517
84545SOL    HW155468   7.142   4.121  12.541
84545SOL    HW255469   7.149   4.257  12.474
84546SOL     OW55470   5.684  10.803   1.182
84546SOL    HW155471   5.681  10.737   1.112
84546SOL    HW255472   5.640  10.879   1.144
84547SOL     OW55473   6.604   3.920  12.625
84547SOL    HW155474   6.551   3.916  12.545
84547SOL    HW255475   6.673   3.856  12.611
84548SOL     OW55476   8.400  11.338   6.090
84548SOL    HW155477   8.440  11.294   6.164
84548SOL    HW255478   8.306  11.326   6.102
84549SOL     OW55479   4.634   9.608   8.850
84549SOL    HW155480   4.591   9.635   8.769
84549SOL    HW255481   4.726   9.633   8.838
84550SOL     OW55482  13.870  12.508  11.373
84550SOL    HW155483  13.871  12.463  11.457
84550SOL    HW255484  13.812  12.455  11.318
84551SOL     OW55485  12.261   8.508   9.908
84551SOL    HW155486  12.252   8.569   9.835
84551SOL    HW255487  12.172   8.479   9.926
84552SOL     OW55488  11.382   5.520  10.471
84552SOL    HW155489  11.411   5.527  10.562
84552SOL    HW255490  11.429   5.444  10.436
84553SOL     OW55491   6.276   6.227   3.988
84553SOL    HW155492   6.265   6.297   3.924
84553SOL    HW255493   6.355   6.182   3.961
84554SOL     OW55494  14.691   5.324   3.237
84554SOL    HW155495  14.750   5.396   3.211
84554SOL    HW255496  14.749   5.250   3.254
84555SOL     OW55497   8.734   2.349   1.326
84555SOL    HW155498   8.817   2.386   1.296
84555SOL    HW255499   8.680   2.425   1.348
84556SOL     OW55500   1.512   3.421   6.281
84556SOL    HW155501   1.480   3.503   6.319
84556SOL    HW255502   1.558   3.378   6.353
84557SOL     OW55503   1.799  14.302   2.895
84557SOL    HW155504   1.712  14.336   2.878
84557SOL    HW255505   1.844  14.372   2.942
84558SOL     OW55506   7.970   2.622   2.804
84558SOL    HW155507   7.978   2.658   2.715
84558SOL    HW255508   8.060   2.608   2.833
84559SOL     OW55509   9.746   1.849   9.660
84559SOL    HW155510   9.795   1.860   9.579
84559SOL    HW255511   9.725   1.939   9.688
84560SOL     OW55512   1.929  10.156   1.446
84560SOL    HW155513   1.982  10.236   1.441
84560SOL    HW255514   1.856  10.179   1.504
84561SOL     OW55515   5.406   5.262   3.979
84561SOL    HW155516   5.381   5.333   4.039
84561SOL    HW255517   5.322   5.232   3.943
84562SOL     OW55518  13.787  10.829   0.185
84562SOL    HW155519  13.761  10.737   0.188
84562SOL    HW255520  13.850  10.835   0.113
84563SOL     OW55521   5.196   1.660  13.593
84563SOL    HW155522   5.160   1.709  13.667
84563SOL    HW255523   5.148   1.578  13.592
84564SOL     OW55524   9.144   2.712   9.826
84564SOL    HW155525   9.201   2.741   9.755
84564SOL    HW255526   9.056   2.714   9.789
84565SOL     OW55527   5.478   8.272  13.405
84565SOL    HW155528   5.559   8.273  13.353
84565SOL    HW255529   5.509   8.278  13.495
84566SOL     OW55530  14.731   8.538   3.818
84566SOL    HW155531  14.685   8.460   3.790
84566SOL    HW255532  14.699   8.554   3.907
84567SOL     OW55533   3.463   1.700   0.790
84567SOL    HW155534   3.530   1.649   0.745
84567SOL    HW255535   3.511   1.774   0.827
84568SOL     OW55536  11.342   1.292   1.627
84568SOL    HW155537  11.400   1.251   1.564
84568SOL    HW255538  11.256   1.292   1.585
84569SOL     OW55539   6.685   9.534  14.822
84569SOL    HW155540   6.731   9.603  14.869
84569SOL    HW255541   6.753   9.475  14.793
84570SOL     OW55542  11.983  14.838   8.416
84570SOL    HW155543  12.011   0.036   8.465
84570SOL    HW255544  11.975  14.768   8.481
84571SOL     OW55545  13.170   3.219   4.016
84571SOL    HW155546  13.265   3.227   4.017
84571SOL    HW255547  13.148   3.176   4.099
84572SOL     OW55548  14.611  11.739   6.901
84572SOL    HW155549  14.706  11.750   6.897
84572SOL    HW255550  14.597  11.670   6.966
84573SOL     OW55551   2.414   3.909   2.323
84573SOL    HW155552   2.333   3.859   2.319
84573SOL    HW255553   2.483   3.843   2.317
84574SOL     OW55554   4.232   1.984   3.516
84574SOL    HW155555   4.224   2.047   3.444
84574SOL    HW255556   4.141   1.966   3.542
84575SOL     OW55557  12.423   9.620   4.738
84575SOL    HW155558  12.333   9.645   4.718
84575SOL    HW255559  12.444   9.670   4.817
84576SOL     OW55560   2.294   1.434  10.365
84576SOL    HW155561   2.323   1.512  10.412
84576SOL    HW255562   2.368   1.373  10.372
84577SOL     OW55563   2.204   5.444   5.485
84577SOL    HW155564   2.297   5.433   5.505
84577SOL    HW255565   2.162   5.367   5.523
84578SOL     OW55566   1.753  11.863  10.989
84578SOL    HW155567   1.694  11.829  10.922
84578SOL    HW255568   1.694  11.895  11.058
84579SOL     OW55569  14.828   9.528  13.488
84579SOL    HW155570  14.787   9.580  13.557
84579SOL    HW255571  14.833   9.440  13.523
84580SOL     OW55572   5.273   0.623  13.050
84580SOL    HW155573   5.270   0.540  13.098
84580SOL    HW255574   5.256   0.599  12.959
84581SOL     OW55575   4.768  14.196   8.733
84581SOL    HW155576   4.747  14.114   8.689
84581SOL    HW255577   4.686  14.245   8.732
84582SOL     OW55578   9.545   4.309  13.823
84582SOL    HW155579   9.595   4.234  13.855
84582SOL    HW255580   9.459   4.272  13.800
84583SOL     OW55581  12.427   8.702  14.209
84583SOL    HW155582  12.515   8.715  14.243
84583SOL    HW255583  12.436   8.712  14.114
84584SOL     OW55584   2.485  14.071  13.017
84584SOL    HW155585   2.552  14.136  13.039
84584SOL    HW255586   2.534  13.989  13.008
84585SOL     OW55587  10.163   0.644   3.009
84585SOL    HW155588  10.199   0.617   2.924
84585SOL    HW255589  10.240   0.651   3.066
84586SOL     OW55590   3.712   0.247   5.337
84586SOL    HW155591   3.790   0.210   5.296
84586SOL    HW255592   3.639   0.212   5.285
84587SOL     OW55593   4.283   1.436  13.858
84587SOL    HW155594   4.241   1.522  13.852
84587SOL    HW255595   4.360   1.443  13.802
84588SOL     OW55596   0.045   8.094   3.712
84588SOL    HW155597  14.851   8.146   3.745
84588SOL    HW255598   0.113   8.101   3.780
84589SOL     OW55599  13.342  13.675   7.626
84589SOL    HW155600  13.294  13.729   7.688
84589SOL    HW255601  13.279  13.610   7.596
84590SOL     OW55602   5.827  14.212  14.293
84590SOL    HW155603   5.777  14.279  14.245
84590SOL    HW255604   5.891  14.180  14.230
84591SOL     OW55605   1.255   9.680   1.946
84591SOL    HW155606   1.318   9.729   1.895
84591SOL    HW255607   1.171   9.722   1.927
84592SOL     OW55608   2.944   5.695  13.436
84592SOL    HW155609   2.864   5.644  13.420
84592SOL    HW255610   2.919   5.786  13.418
84593SOL     OW55611  11.346  11.713  10.711
84593SOL    HW155612  11.300  11.727  10.794
84593SOL    HW255613  11.394  11.632  10.725
84594SOL     OW55614   9.622  13.113   0.452
84594SOL    HW155615   9.657  13.054   0.386
84594SOL    HW255616   9.549  13.158   0.408
84595SOL     OW55617   4.065   3.056   4.587
84595SOL    HW155618   3.993   3.061   4.524
84595SOL    HW255619   4.048   3.128   4.648
84596SOL     OW55620   3.214   3.243   3.951
84596SOL    HW155621   3.143   3.272   3.893
84596SOL    HW255622   3.290   3.236   3.893
84597SOL     OW55623  13.172   6.683  13.503
84597SOL    HW155624  13.087   6.714  13.532
84597SOL    HW255625  13.225   6.680  13.583
84598SOL     OW55626   6.400   0.563   9.852
84598SOL    HW155627   6.362   0.476   9.865
84598SOL    HW255628   6.346   0.602   9.783
84599SOL     OW55629   7.806  10.100   1.906
84599SOL    HW155630   7.838  10.181   1.946
84599SOL    HW255631   7.728  10.078   1.956
84600SOL     OW55632   5.127   4.839   2.853
84600SOL    HW155633   5.073   4.763   2.836
84600SOL    HW255634   5.206   4.824   2.802
84601SOL     OW55635  12.894   6.156  11.585
84601SOL    HW155636  12.880   6.154  11.491
84601SOL    HW255637  12.809   6.138  11.623
84602SOL     OW55638   0.438   6.669   0.791
84602SOL    HW155639   0.511   6.729   0.774
84602SOL    HW255640   0.438   6.610   0.716
84603SOL     OW55641   3.753   4.042   2.089
84603SOL    HW155642   3.797   3.963   2.120
84603SOL    HW255643   3.739   4.026   1.995
84604SOL     OW55644   5.269   7.411   5.664
84604SOL    HW155645   5.356   7.393   5.628
84604SOL    HW255646   5.285   7.469   5.738
84605SOL     OW55647   4.099  14.124   9.514
84605SOL    HW155648   4.193  14.133   9.495
84605SOL    HW255649   4.089  14.159   9.602
84606SOL     OW55650   5.493   1.294   2.002
84606SOL    HW155651   5.547   1.337   1.936
84606SOL    HW255652   5.444   1.227   1.953
84607SOL     OW55653   5.691   1.665  14.524
84607SOL    HW155654   5.682   1.623  14.438
84607SOL    HW255655   5.717   1.755  14.504
84608SOL     OW55656   5.134   1.029  11.363
84608SOL    HW155657   5.076   0.963  11.324
84608SOL    HW255658   5.199   1.047  11.296
84609SOL     OW55659   0.923   5.761  10.593
84609SOL    HW155660   0.929   5.764  10.689
84609SOL    HW255661   0.872   5.837  10.569
84610SOL     OW55662  13.871  12.260  10.253
84610SOL    HW155663  13.815  12.314  10.308
84610SOL    HW255664  13.921  12.323  10.201
84611SOL     OW55665  10.692   1.016  10.363
84611SOL    HW155666  10.607   0.997  10.403
84611SOL    HW255667  10.756   0.975  10.422
84612SOL     OW55668  11.119   8.555  13.151
84612SOL    HW155669  11.083   8.603  13.077
84612SOL    HW255670  11.070   8.473  13.152
84613SOL     OW55671   5.591   4.592   1.604
84613SOL    HW155672   5.610   4.662   1.666
84613SOL    HW255673   5.514   4.623   1.556
84614SOL     OW55674   3.196  13.775   3.118
84614SOL    HW155675   3.194  13.762   3.212
84614SOL    HW255676   3.283  13.811   3.100
84615SOL     OW55677  14.236   9.210  10.363
84615SOL    HW155678  14.161   9.164  10.401
84615SOL    HW255679  14.209   9.232  10.274
84616SOL     OW55680  14.216   8.577   5.187
84616SOL    HW155681  14.289   8.634   5.163
84616SOL    HW255682  14.154   8.636   5.232
84617SOL     OW55683  11.097   0.605   7.056
84617SOL    HW155684  11.120   0.516   7.028
84617SOL    HW255685  11.117   0.606   7.150
84618SOL     OW55686  14.230   5.654   2.974
84618SOL    HW155687  14.280   5.657   2.892
84618SOL    HW255688  14.252   5.736   3.018
84619SOL     OW55689   9.814   3.574  14.444
84619SOL    HW155690   9.887   3.634  14.455
84619SOL    HW255691   9.843   3.493  14.485
84620SOL     OW55692  11.018  11.843   6.198
84620SOL    HW155693  11.055  11.757   6.179
84620SOL    HW255694  10.935  11.825   6.241
84621SOL     OW55695   2.369   3.018   9.586
84621SOL    HW155696   2.297   3.002   9.648
84621SOL    HW255697   2.448   3.016   9.640
84622SOL     OW55698  12.034   7.931   4.426
84622SOL    HW155699  12.004   7.846   4.457
84622SOL    HW255700  12.111   7.912   4.372
84623SOL     OW55701   8.866  13.962   0.461
84623SOL    HW155702   8.831  13.965   0.372
84623SOL    HW255703   8.893  14.052   0.479
84624SOL     OW55704   9.262   8.587   1.993
84624SOL    HW155705   9.251   8.492   1.986
84624SOL    HW255706   9.174   8.622   1.980
84625SOL     OW55707  10.920   1.010   9.811
84625SOL    HW155708  10.866   0.956   9.869
84625SOL    HW255709  11.006   1.012   9.853
84626SOL     OW55710  11.462   2.480   6.882
84626SOL    HW155711  11.503   2.536   6.948
84626SOL    HW255712  11.437   2.539   6.812
84627SOL     OW55713   1.903   5.137   7.909
84627SOL    HW155714   1.844   5.121   7.983
84627SOL    HW255715   1.923   5.231   7.915
84628SOL     OW55716   9.788   0.643   3.074
84628SOL    HW155717   9.865   0.588   3.088
84628SOL    HW255718   9.820   0.732   3.087
84629SOL     OW55719   9.316   7.493   4.986
84629SOL    HW155720   9.379   7.443   4.933
84629SOL    HW255721   9.339   7.471   5.076
84630SOL     OW55722   2.522  12.145   4.328
84630SOL    HW155723   2.615  12.129   4.345
84630SOL    HW255724   2.486  12.170   4.414
84631SOL     OW55725  13.425   1.050   1.478
84631SOL    HW155726  13.480   1.037   1.555
84631SOL    HW255727  13.411   1.144   1.474
84632SOL     OW55728   4.349  10.049  10.045
84632SOL    HW155729   4.383  10.072   9.958
84632SOL    HW255730   4.266  10.006  10.027
84633SOL     OW55731   8.012   2.226   8.345
84633SOL    HW155732   8.095   2.222   8.393
84633SOL    HW255733   7.951   2.175   8.398
84634SOL     OW55734  13.112   1.534  14.837
84634SOL    HW155735  13.091   1.457  14.786
84634SOL    HW255736  13.105   1.506   0.050
84635SOL     OW55737   6.017  14.679   9.266
84635SOL    HW155738   5.940  14.733   9.251
84635SOL    HW255739   5.990  14.618   9.335
84636SOL     OW55740   4.920   3.371   8.347
84636SOL    HW155741   4.937   3.466   8.345
84636SOL    HW255742   5.007   3.332   8.340
84637SOL     OW55743   9.431   0.062  10.548
84637SOL    HW155744   9.461  14.852  10.527
84637SOL    HW255745   9.361   0.049  10.612
84638SOL     OW55746   9.939   1.248   5.843
84638SOL    HW155747   9.945   1.330   5.795
84638SOL    HW255748  10.025   1.207   5.833
84639SOL     OW55749  12.823  12.490   0.611
84639SOL    HW155750  12.841  12.523   0.699
84639SOL    HW255751  12.764  12.555   0.573
84640SOL     OW55752   5.534   3.225   3.166
84640SOL    HW155753   5.480   3.258   3.094
84640SOL    HW255754   5.503   3.135   3.180
84641SOL     OW55755   0.420   7.033   1.281
84641SOL    HW155756   0.423   7.065   1.371
84641SOL    HW255757   0.421   6.937   1.291
84642SOL     OW55758   6.112   9.842  14.192
84642SOL    HW155759   6.068   9.927  14.191
84642SOL    HW255760   6.045   9.780  14.222
84643SOL     OW55761   5.575   9.022   3.940
84643SOL    HW155762   5.620   9.105   3.951
84643SOL    HW255763   5.559   8.990   4.029
84644SOL     OW55764   3.280   7.444   3.452
84644SOL    HW155765   3.322   7.359   3.458
84644SOL    HW255766   3.327   7.490   3.382
84645SOL     OW55767   0.386  11.359   3.660
84645SOL    HW155768   0.425  11.410   3.731
84645SOL    HW255769   0.296  11.391   3.654
84646SOL     OW55770   0.487   6.695   6.874
84646SOL    HW155771   0.483   6.775   6.821
84646SOL    HW255772   0.493   6.624   6.810
84647SOL     OW55773   3.548  11.728  11.622
84647SOL    HW155774   3.626  11.777  11.646
84647SOL    HW255775   3.519  11.766  11.539
84648SOL     OW55776   3.558   0.892   6.202
84648SOL    HW155777   3.482   0.948   6.216
84648SOL    HW255778   3.628   0.952   6.175
84649SOL     OW55779   2.476   1.191   1.594
84649SOL    HW155780   2.561   1.152   1.573
84649SOL    HW255781   2.497   1.267   1.649
84650SOL     OW55782  12.713   2.646  10.699
84650SOL    HW155783  12.665   2.629  10.618
84650SOL    HW255784  12.677   2.728  10.732
84651SOL     OW55785  10.211  11.045  11.520
84651SOL    HW155786  10.184  10.990  11.594
84651SOL    HW255787  10.161  11.011  11.446
84652SOL     OW55788  14.506  13.896   4.064
84652SOL    HW155789  14.422  13.851   4.079
84652SOL    HW255790  14.482  13.988   4.057
84653SOL     OW55791  11.629  12.618   2.134
84653SOL    HW155792  11.661  12.646   2.048
84653SOL    HW255793  11.666  12.682   2.194
84654SOL     OW55794  10.566   7.951   8.740
84654SOL    HW155795  10.638   7.923   8.683
84654SOL    HW255796  10.608   7.973   8.823
84655SOL     OW55797  10.376  11.735   1.971
84655SOL    HW155798  10.372  11.656   1.916
84655SOL    HW255799  10.366  11.702   2.060
84656SOL     OW55800   4.717   7.016   1.159
84656SOL    HW155801   4.657   7.090   1.160
84656SOL    HW255802   4.790   7.044   1.215
84657SOL     OW55803  10.260   5.671   6.586
84657SOL    HW155804  10.211   5.652   6.666
84657SOL    HW255805  10.349   5.641   6.604
84658SOL     OW55806  10.525   8.324   0.884
84658SOL    HW155807  10.441   8.294   0.849
84658SOL    HW255808  10.536   8.277   0.966
84659SOL     OW55809  10.225   4.988  11.618
84659SOL    HW155810  10.202   4.942  11.537
84659SOL    HW255811  10.176   5.070  11.613
84660SOL     OW55812   4.841   1.376   0.801
84660SOL    HW155813   4.904   1.400   0.733
84660SOL    HW255814   4.884   1.307   0.851
84661SOL     OW55815  10.397   7.359   9.311
84661SOL    HW155816  10.309   7.322   9.308
84661SOL    HW255817  10.386   7.450   9.285
84662SOL     OW55818   5.067   1.001   4.481
84662SOL    HW155819   5.083   0.939   4.410
84662SOL    HW255820   5.020   1.073   4.440
84663SOL     OW55821   2.048   8.508  14.088
84663SOL    HW155822   2.020   8.484  14.177
84663SOL    HW255823   2.134   8.468  14.078
84664SOL     OW55824   9.743  14.155   7.861
84664SOL    HW155825   9.697  14.072   7.873
84664SOL    HW255826   9.830  14.140   7.897
84665SOL     OW55827   6.240   6.180   0.314
84665SOL    HW155828   6.251   6.085   0.324
84665SOL    HW255829   6.146   6.194   0.320
84666SOL     OW55830   8.308   0.780   4.922
84666SOL    HW155831   8.254   0.857   4.907
84666SOL    HW255832   8.348   0.761   4.837
84667SOL     OW55833   2.960   6.020   1.166
84667SOL    HW155834   2.968   5.929   1.192
84667SOL    HW255835   2.914   6.062   1.239
84668SOL     OW55836   9.308   2.424  11.589
84668SOL    HW155837   9.277   2.495  11.646
84668SOL    HW255838   9.234   2.406  11.531
84669SOL     OW55839   1.167   5.267   6.241
84669SOL    HW155840   1.174   5.331   6.311
84669SOL    HW255841   1.172   5.319   6.161
84670SOL     OW55842  10.106   2.501  13.479
84670SOL    HW155843  10.137   2.543  13.560
84670SOL    HW255844  10.036   2.443  13.508
84671SOL     OW55845   3.477  13.066  13.967
84671SOL    HW155846   3.490  13.006  13.893
84671SOL    HW255847   3.424  13.015  14.029
84672SOL     OW55848   4.165  14.484   4.488
84672SOL    HW155849   4.189  14.408   4.541
84672SOL    HW255850   4.072  14.497   4.506
84673SOL     OW55851   9.657   0.572   7.873
84673SOL    HW155852   9.716   0.647   7.868
84673SOL    HW255853   9.700   0.504   7.822
84674SOL     OW55854   3.450  13.578  13.223
84674SOL    HW155855   3.513  13.554  13.155
84674SOL    HW255856   3.479  13.530  13.301
84675SOL     OW55857  11.509   3.831   5.147
84675SOL    HW155858  11.572   3.761   5.159
84675SOL    HW255859  11.531   3.869   5.062
84676SOL     OW55860  11.432   1.811   6.965
84676SOL    HW155861  11.370   1.868   6.920
84676SOL    HW255862  11.395   1.723   6.957
84677SOL     OW55863   3.240   9.579   4.190
84677SOL    HW155864   3.154   9.556   4.225
84677SOL    HW255865   3.248   9.526   4.110
84678SOL     OW55866   2.268   6.053   2.190
84678SOL    HW155867   2.201   6.108   2.148
84678SOL    HW255868   2.349   6.103   2.183
84679SOL     OW55869   2.254   9.081  14.167
84679SOL    HW155870   2.348   9.074  14.183
84679SOL    HW255871   2.220   8.994  14.189
84680SOL     OW55872   1.853   4.779   2.471
84680SOL    HW155873   1.783   4.805   2.531
84680SOL    HW255874   1.808   4.726   2.405
84681SOL     OW55875   0.759   0.999   3.169
84681SOL    HW155876   0.713   1.064   3.224
84681SOL    HW255877   0.772   0.924   3.227
84682SOL     OW55878   0.660   4.887   2.562
84682SOL    HW155879   0.576   4.841   2.558
84682SOL    HW255880   0.677   4.913   2.472
84683SOL     OW55881  12.686   3.495  11.627
84683SOL    HW155882  12.682   3.442  11.707
84683SOL    HW255883  12.654   3.581  11.654
84684SOL     OW55884   8.655  11.198   2.601
84684SOL    HW155885   8.686  11.130   2.661
84684SOL    HW255886   8.611  11.150   2.531
84685SOL     OW55887   1.140   0.379  10.701
84685SOL    HW155888   1.052   0.343  10.708
84685SOL    HW255889   1.176   0.374  10.789
84686SOL     OW55890   8.091  10.000  12.073
84686SOL    HW155891   8.034   9.923  12.071
84686SOL    HW255892   8.125  10.001  12.163
84687SOL     OW55893   7.271  12.063   9.125
84687SOL    HW155894   7.299  12.090   9.212
84687SOL    HW255895   7.243  12.144   9.082
84688SOL     OW55896   4.411   7.837   9.246
84688SOL    HW155897   4.459   7.884   9.315
84688SOL    HW255898   4.321   7.831   9.279
84689SOL     OW55899   5.130   5.388   7.297
84689SOL    HW155900   5.097   5.313   7.346
84689SOL    HW255901   5.117   5.365   7.205
84690SOL     OW55902   2.519  11.262   0.612
84690SOL    HW155903   2.426  11.247   0.631
84690SOL    HW255904   2.561  11.263   0.699
84691SOL     OW55905  12.219   6.159   9.073
84691SOL    HW155906  12.163   6.089   9.105
84691SOL    HW255907  12.200   6.164   8.979
84692SOL     OW55908   0.288  10.038   4.369
84692SOL    HW155909   0.271   9.969   4.433
84692SOL    HW255910   0.203  10.077   4.352
84693SOL     OW55911  14.271   2.785   0.451
84693SOL    HW155912  14.329   2.794   0.526
84693SOL    HW255913  14.247   2.692   0.450
84694SOL     OW55914   8.128  11.205  14.252
84694SOL    HW155915   8.125  11.215  14.347
84694SOL    HW255916   8.171  11.284  14.221
84695SOL     OW55917   6.589   8.667   2.124
84695SOL    HW155918   6.640   8.704   2.052
84695SOL    HW255919   6.498   8.669   2.092
84696SOL     OW55920   6.669  14.716   3.371
84696SOL    HW155921   6.647  14.798   3.326
84696SOL    HW255922   6.595  14.701   3.431
84697SOL     OW55923   8.193   7.924   2.570
84697SOL    HW155924   8.106   7.966   2.575
84697SOL    HW255925   8.182   7.855   2.505
84698SOL     OW55926   6.781   7.297   1.292
84698SOL    HW155927   6.691   7.268   1.303
84698SOL    HW255928   6.785   7.380   1.341
84699SOL     OW55929  14.307   2.969   6.762
84699SOL    HW155930  14.329   2.927   6.845
84699SOL    HW255931  14.339   2.908   6.695
84700SOL     OW55932  10.206   7.546  13.830
84700SOL    HW155933  10.233   7.489  13.758
84700SOL    HW255934  10.150   7.612  13.788
84701SOL     OW55935   1.181   2.908   9.509
84701SOL    HW155936   1.109   2.864   9.555
84701SOL    HW255937   1.144   2.931   9.424
84702SOL     OW55938   6.791   2.132  10.844
84702SOL    HW155939   6.760   2.171  10.762
84702SOL    HW255940   6.734   2.169  10.912
84703SOL     OW55941   6.293   4.914  11.161
84703SOL    HW155942   6.328   4.985  11.215
84703SOL    HW255943   6.303   4.945  11.071
84704SOL     OW55944   0.726  11.040   3.159
84704SOL    HW155945   0.711  11.036   3.065
84704SOL    HW255946   0.691  10.958   3.193
84705SOL     OW55947   1.480   8.101   0.956
84705SOL    HW155948   1.500   8.008   0.966
84705SOL    HW255949   1.566   8.143   0.946
84706SOL     OW55950  14.468   1.982   2.985
84706SOL    HW155951  14.531   2.051   2.964
84706SOL    HW255952  14.403   2.025   3.041
84707SOL     OW55953   4.325  10.642   9.035
84707SOL    HW155954   4.272  10.699   9.090
84707SOL    HW255955   4.305  10.669   8.945
84708SOL     OW55956   6.977   9.962   2.333
84708SOL    HW155957   6.903   9.914   2.298
84708SOL    HW255958   7.050   9.900   2.329
84709SOL     OW55959   5.156   7.688   0.621
84709SOL    HW155960   5.142   7.757   0.556
84709SOL    HW255961   5.157   7.607   0.570
84710SOL     OW55962  12.330  13.267  11.187
84710SOL    HW155963  12.299  13.209  11.118
84710SOL    HW255964  12.365  13.208  11.255
84711SOL     OW55965   7.270   8.734   3.738
84711SOL    HW155966   7.275   8.719   3.644
84711SOL    HW255967   7.214   8.811   3.747
84712SOL     OW55968   5.087  12.917  10.364
84712SOL    HW155969   5.065  12.826  10.385
84712SOL    HW255970   5.002  12.962  10.360
84713SOL     OW55971   0.848  13.931   3.461
84713SOL    HW155972   0.764  13.966   3.430
84713SOL    HW255973   0.850  13.953   3.554
84714SOL     OW55974   7.318   1.521  13.042
84714SOL    HW155975   7.305   1.503  13.135
84714SOL    HW255976   7.242   1.574  13.017
84715SOL     OW55977  11.207   4.754  10.759
84715SOL    HW155978  11.238   4.844  10.775
84715SOL    HW255979  11.247   4.702  10.828
84716SOL     OW55980   1.765   5.067   8.155
84716SOL    HW155981   1.818   4.988   8.148
84716SOL    HW255982   1.779   5.098   8.244
84717SOL     OW55983   1.499   8.832  11.211
84717SOL    HW155984   1.576   8.862  11.162
84717SOL    HW255985   1.441   8.796  11.144
84718SOL     OW55986   4.161   4.808  13.898
84718SOL    HW155987   4.200   4.750  13.832
84718SOL    HW255988   4.123   4.879  13.847
84719SOL     OW55989   9.623  12.079  12.195
84719SOL    HW155990   9.665  12.137  12.132
84719SOL    HW255991   9.599  12.002  12.144
84720SOL     OW55992   1.810   8.043   4.317
84720SOL    HW155993   1.751   8.084   4.381
84720SOL    HW255994   1.790   8.087   4.234
84721SOL     OW55995  13.140   0.461   4.620
84721SOL    HW155996  13.139   0.548   4.661
84721SOL    HW255997  13.193   0.473   4.541
84722SOL     OW55998   7.271   9.933   7.370
84722SOL    HW155999   7.351   9.944   7.421
84722SOL    HW256000   7.274   9.843   7.338
84723SOL     OW56001  14.378   8.462  13.555
84723SOL    HW156002  14.310   8.524  13.530
84723SOL    HW256003  14.430   8.508  13.621
84724SOL     OW56004   7.279  13.556   1.593
84724SOL    HW156005   7.298  13.647   1.570
84724SOL    HW256006   7.351  13.506   1.555
84725SOL     OW56007   0.055   4.748   0.118
84725SOL    HW156008  14.844   4.716   0.112
84725SOL    HW256009   0.053   4.815   0.186
84726SOL     OW56010   6.409  11.136   3.297
84726SOL    HW156011   6.362  11.052   3.304
84726SOL    HW256012   6.361  11.194   3.356
84727SOL     OW56013   8.641   4.573  10.988
84727SOL    HW156014   8.581   4.530  10.928
84727SOL    HW256015   8.728   4.557  10.950
84728SOL     OW56016  13.569  11.464   4.925
84728SOL    HW156017  13.617  11.392   4.965
84728SOL    HW256018  13.631  11.536   4.923
84729SOL     OW56019  14.137   7.467  11.357
84729SOL    HW156020  14.145   7.372  11.359
84729SOL    HW256021  14.123   7.492  11.449
84730SOL     OW56022   6.428   3.183  10.689
84730SOL    HW156023   6.394   3.252  10.746
84730SOL    HW256024   6.520   3.175  10.714
84731SOL     OW56025  14.784   0.140   8.084
84731SOL    HW156026  14.852   0.197   8.119
84731SOL    HW256027  14.832   0.076   8.031
84732SOL     OW56028   6.384   6.651   3.371
84732SOL    HW156029   6.332   6.629   3.448
84732SOL    HW256030   6.375   6.746   3.362
84733SOL     OW56031  13.248  14.701   9.520
84733SOL    HW156032  13.286  14.782   9.485
84733SOL    HW256033  13.244  14.716   9.615
84734SOL     OW56034   7.728   2.029   2.095
84734SOL    HW156035   7.643   2.068   2.073
84734SOL    HW256036   7.731   1.948   2.044
84735SOL     OW56037   9.982  14.509  11.999
84735SOL    HW156038   9.967  14.567  12.073
84735SOL    HW256039  10.060  14.544  11.956
84736SOL     OW56040  11.795  12.826  14.823
84736SOL    HW156041  11.739  12.877  14.765
84736SOL    HW256042  11.820  12.750  14.771
84737SOL     OW56043   6.383  10.450  11.238
84737SOL    HW156044   6.479  10.453  11.237
84737SOL    HW256045   6.356  10.542  11.238
84738SOL     OW56046   6.820  11.347   6.659
84738SOL    HW156047   6.876  11.302   6.596
84738SOL    HW256048   6.751  11.284   6.679
84739SOL     OW56049   4.607  10.165  10.502
84739SOL    HW156050   4.662  10.159  10.581
84739SOL    HW256051   4.593  10.259  10.490
84740SOL     OW56052   4.140   8.643   9.224
84740SOL    HW156053   4.169   8.693   9.148
84740SOL    HW256054   4.105   8.709   9.284
84741SOL     OW56055   5.864   0.260  11.703
84741SOL    HW156056   5.796   0.235  11.641
84741SOL    HW256057   5.931   0.303  11.650
84742SOL     OW56058   8.243   4.291   9.302
84742SOL    HW156059   8.243   4.330   9.215
84742SOL    HW256060   8.333   4.298   9.332
84743SOL     OW56061   4.549   3.565   3.531
84743SOL    HW156062   4.535   3.535   3.442
84743SOL    HW256063   4.573   3.486   3.579
84744SOL     OW56064   8.925   4.513  11.379
84744SOL    HW156065   8.968   4.482  11.299
84744SOL    HW256066   8.982   4.584  11.410
84745SOL     OW56067  10.076   8.430   3.451
84745SOL    HW156068  10.036   8.466   3.373
84745SOL    HW256069  10.057   8.494   3.520
84746SOL     OW56070  10.530   2.659  10.762
84746SOL    HW156071  10.470   2.728  10.736
84746SOL    HW256072  10.601   2.705  10.807
84747SOL     OW56073  11.231   5.796   6.600
84747SOL    HW156074  11.250   5.755   6.684
84747SOL    HW256075  11.139   5.775   6.583
84748SOL     OW56076  11.538   1.333   7.840
84748SOL    HW156077  11.621   1.361   7.878
84748SOL    HW256078  11.474   1.395   7.874
84749SOL     OW56079  13.607   2.670   3.146
84749SOL    HW156080  13.599   2.725   3.069
84749SOL    HW256081  13.701   2.661   3.159
84750SOL     OW56082  12.200  14.630   5.118
84750SOL    HW156083  12.158  14.713   5.095
84750SOL    HW256084  12.196  14.578   5.038
84751SOL     OW56085   4.948  11.262   9.782
84751SOL    HW156086   5.031  11.283   9.738
84751SOL    HW256087   4.881  11.306   9.729
84752SOL     OW56088   8.779  11.531  10.929
84752SOL    HW156089   8.766  11.477  11.008
84752SOL    HW256090   8.802  11.467  10.861
84753SOL     OW56091   7.815   7.394  12.097
84753SOL    HW156092   7.798   7.488  12.082
84753SOL    HW256093   7.787   7.352  12.016
84754SOL     OW56094   7.438  13.087   7.337
84754SOL    HW156095   7.392  13.032   7.274
84754SOL    HW256096   7.470  13.162   7.286
84755SOL     OW56097  13.735   4.326   8.744
84755SOL    HW156098  13.709   4.384   8.672
84755SOL    HW256099  13.763   4.245   8.700
84756SOL     OW56100  11.802   8.182   3.873
84756SOL    HW156101  11.833   8.110   3.928
84756SOL    HW256102  11.846   8.259   3.908
84757SOL     OW56103   3.522   6.492  14.594
84757SOL    HW156104   3.452   6.557  14.591
84757SOL    HW256105   3.592   6.536  14.643
84758SOL     OW56106  13.207  12.902   6.960
84758SOL    HW156107  13.160  12.876   6.881
84758SOL    HW256108  13.140  12.903   7.029
84759SOL     OW56109  14.119  11.497   9.165
84759SOL    HW156110  14.176  11.478   9.240
84759SOL    HW256111  14.040  11.446   9.183
84760SOL     OW56112   1.034   0.420   3.874
84760SOL    HW156113   0.968   0.464   3.820
84760SOL    HW256114   1.055   0.482   3.944
84761SOL     OW56115   4.267   0.692  13.320
84761SOL    HW156116   4.348   0.733  13.288
84761SOL    HW256117   4.217   0.673  13.241
84762SOL     OW56118   5.997   3.718  12.477
84762SOL    HW156119   5.901   3.719  12.471
84762SOL    HW256120   6.020   3.626  12.468
84763SOL     OW56121   4.720  10.658   1.074
84763SOL    HW156122   4.699  10.587   1.014
84763SOL    HW256123   4.638  10.679   1.117
84764SOL     OW56124   2.015  14.318   1.975
84764SOL    HW156125   2.029  14.226   1.953
84764SOL    HW256126   1.929  14.320   2.017
84765SOL     OW56127  13.976  13.463   3.220
84765SOL    HW156128  13.893  13.454   3.268
84765SOL    HW256129  14.043  13.460   3.288
84766SOL     OW56130   6.277   0.749   7.057
84766SOL    HW156131   6.237   0.711   7.135
84766SOL    HW256132   6.203   0.781   7.005
84767SOL     OW56133  12.533   1.891  12.229
84767SOL    HW156134  12.580   1.905  12.311
84767SOL    HW256135  12.591   1.926  12.161
84768SOL     OW56136   9.266  11.992  11.652
84768SOL    HW156137   9.266  12.074  11.701
84768SOL    HW256138   9.190  11.998  11.594
84769SOL     OW56139  14.559   5.350   8.756
84769SOL    HW156140  14.470   5.314   8.749
84769SOL    HW256141  14.576   5.390   8.671
84770SOL     OW56142   0.214  14.174   8.934
84770SOL    HW156143   0.218  14.119   8.855
84770SOL    HW256144   0.128  14.217   8.928
84771SOL     OW56145   9.603  13.400   6.326
84771SOL    HW156146   9.592  13.323   6.383
84771SOL    HW256147   9.531  13.458   6.351
84772SOL     OW56148   5.985   9.513   7.109
84772SOL    HW156149   6.041   9.437   7.092
84772SOL    HW256150   6.040   9.571   7.162
84773SOL     OW56151   0.760   8.015  14.174
84773SOL    HW156152   0.677   8.061  14.170
84773SOL    HW256153   0.737   7.925  14.199
84774SOL     OW56154  10.558   1.665   3.978
84774SOL    HW156155  10.649   1.635   3.981
84774SOL    HW256156  10.511   1.604   4.035
84775SOL     OW56157  13.291   9.768   8.423
84775SOL    HW156158  13.365   9.793   8.478
84775SOL    HW256159  13.321   9.690   8.375
84776SOL     OW56160   2.394  10.711  10.407
84776SOL    HW156161   2.465  10.651  10.385
84776SOL    HW256162   2.323  10.687  10.347
84777SOL     OW56163   0.982   9.965  13.253
84777SOL    HW156164   0.972   9.964  13.158
84777SOL    HW256165   1.066   9.922  13.268
84778SOL     OW56166  11.023   1.630   1.865
84778SOL    HW156167  10.999   1.609   1.775
84778SOL    HW256168  11.091   1.567   1.887
84779SOL     OW56169  13.652  14.645  11.648
84779SOL    HW156170  13.727  14.645  11.707
84779SOL    HW256171  13.647  14.555  11.615
84780SOL     OW56172  13.904   8.330   7.280
84780SOL    HW156173  13.941   8.276   7.210
84780SOL    HW256174  13.951   8.302   7.359
84781SOL     OW56175  10.630   1.170   9.980
84781SOL    HW156176  10.594   1.142  10.064
84781SOL    HW256177  10.724   1.157   9.988
84782SOL     OW56178   4.467   7.439  11.938
84782SOL    HW156179   4.417   7.385  11.999
84782SOL    HW256180   4.505   7.508  11.993
84783SOL     OW56181  11.245   0.343  12.224
84783SOL    HW156182  11.280   0.380  12.305
84783SOL    HW256183  11.265   0.408  12.156
84784SOL     OW56184   4.111  11.351   5.335
84784SOL    HW156185   4.033  11.402   5.356
84784SOL    HW256186   4.172  11.414   5.296
84785SOL     OW56187  10.561   7.644   8.290
84785SOL    HW156188  10.587   7.605   8.374
84785SOL    HW256189  10.566   7.739   8.306
84786SOL     OW56190   6.767   9.730   6.873
84786SOL    HW156191   6.799   9.652   6.919
84786SOL    HW256192   6.709   9.773   6.936
84787SOL     OW56193   0.009  13.956   2.423
84787SOL    HW156194  14.834  13.892   2.468
84787SOL    HW256195   0.039  13.911   2.344
84788SOL     OW56196   6.983   4.987   9.622
84788SOL    HW156197   7.013   5.054   9.561
84788SOL    HW256198   7.063   4.952   9.661
84789SOL     OW56199   5.755   0.540   0.920
84789SOL    HW156200   5.818   0.572   0.856
84789SOL    HW256201   5.808   0.497   0.987
84790SOL     OW56202  14.081   3.567   6.576
84790SOL    HW156203  13.989   3.593   6.583
84790SOL    HW256204  14.078   3.479   6.539
84791SOL     OW56205  14.278   8.069   9.982
84791SOL    HW156206  14.201   8.041   9.933
84791SOL    HW256207  14.322   7.988  10.006
84792SOL     OW56208  14.742  12.252  12.134
84792SOL    HW156209  14.711  12.235  12.046
84792SOL    HW256210  14.815  12.313  12.123
84793SOL     OW56211  13.321   1.539  10.731
84793SOL    HW156212  13.326   1.558  10.637
84793SOL    HW256213  13.409   1.559  10.764
84794SOL     OW56214  10.116   8.396   0.379
84794SOL    HW156215  10.090   8.488   0.375
84794SOL    HW256216  10.153   8.377   0.293
84795SOL     OW56217  11.660   2.958  11.662
84795SOL    HW156218  11.638   2.989  11.750
84795SOL    HW256219  11.638   3.031  11.605
84796SOL     OW56220   4.253   6.118   8.133
84796SOL    HW156221   4.253   6.169   8.052
84796SOL    HW256222   4.344   6.119   8.162
84797SOL     OW56223  10.735   5.627  11.530
84797SOL    HW156224  10.645   5.650  11.552
84797SOL    HW256225  10.735   5.615  11.435
84798SOL     OW56226   8.455   1.126   0.551
84798SOL    HW156227   8.497   1.044   0.576
84798SOL    HW256228   8.454   1.177   0.632
84799SOL     OW56229   3.616  10.378   3.969
84799SOL    HW156230   3.681  10.448   3.954
84799SOL    HW256231   3.665  10.310   4.014
84800SOL     OW56232  12.477   9.912   7.431
84800SOL    HW156233  12.458   9.960   7.350
84800SOL    HW256234  12.432   9.828   7.420
84801SOL     OW56235  10.715   1.998   8.209
84801SOL    HW156236  10.705   2.070   8.147
84801SOL    HW256237  10.717   2.041   8.295
84802SOL     OW56238  12.013   1.963  13.053
84802SOL    HW156239  12.069   1.941  12.979
84802SOL    HW256240  11.924   1.945  13.021
84803SOL     OW56241   1.765   7.152   1.512
84803SOL    HW156242   1.726   7.064   1.514
84803SOL    HW256243   1.818   7.156   1.591
84804SOL     OW56244  13.983  12.719   6.087
84804SOL    HW156245  13.970  12.756   6.174
84804SOL    HW256246  13.918  12.762   6.032
84805SOL     OW56247  11.457   6.558   3.971
84805SOL    HW156248  11.524   6.497   4.003
84805SOL    HW256249  11.465   6.634   4.028
84806SOL     OW56250   1.210  13.308   0.125
84806SOL    HW156251   1.161  13.232   0.094
84806SOL    HW256252   1.276  13.322   0.058
84807SOL     OW56253   6.206   8.218  12.838
84807SOL    HW156254   6.124   8.178  12.868
84807SOL    HW256255   6.254   8.237  12.919
84808SOL     OW56256   7.219  11.795  10.578
84808SOL    HW156257   7.272  11.738  10.634
84808SOL    HW256258   7.259  11.881  10.588
84809SOL     OW56259   2.342   6.795   4.205
84809SOL    HW156260   2.374   6.835   4.286
84809SOL    HW256261   2.417   6.799   4.146
84810SOL     OW56262  12.510   2.215   3.878
84810SOL    HW156263  12.447   2.232   3.947
84810SOL    HW256264  12.462   2.228   3.797
84811SOL     OW56265  12.045   7.385  14.105
84811SOL    HW156266  12.117   7.388  14.169
84811SOL    HW256267  12.064   7.307  14.052
84812SOL     OW56268  14.711   9.198   1.030
84812SOL    HW156269  14.749   9.283   1.051
84812SOL    HW256270  14.628   9.218   0.987
84813SOL     OW56271   8.046   5.157   3.625
84813SOL    HW156272   8.062   5.143   3.719
84813SOL    HW256273   8.031   5.251   3.618
84814SOL     OW56274  14.001   2.950   8.216
84814SOL    HW156275  13.994   2.970   8.123
84814SOL    HW256276  14.091   2.972   8.240
84815SOL     OW56277   0.440   0.786  11.750
84815SOL    HW156278   0.477   0.867  11.784
84815SOL    HW256279   0.354   0.780  11.791
84816SOL     OW56280   2.873   8.971   7.825
84816SOL    HW156281   2.805   8.932   7.770
84816SOL    HW256282   2.828   8.994   7.906
84817SOL     OW56283  10.099   6.306   3.902
84817SOL    HW156284  10.025   6.295   3.841
84817SOL    HW256285  10.169   6.255   3.862
84818SOL     OW56286  14.347  14.791  12.311
84818SOL    HW156287  14.344  14.805  12.406
84818SOL    HW256288  14.337  14.878  12.274
84819SOL     OW56289  10.884   8.708  11.352
84819SOL    HW156290  10.971   8.693  11.389
84819SOL    HW256291  10.840   8.623  11.361
84820SOL     OW56292   1.888   6.526   1.914
84820SOL    HW156293   1.964   6.580   1.933
84820SOL    HW256294   1.820   6.588   1.889
84821SOL     OW56295   0.968   2.415  12.499
84821SOL    HW156296   0.935   2.474  12.566
84821SOL    HW256297   1.059   2.442  12.486
84822SOL     OW56298   7.979   8.207  12.395
84822SOL    HW156299   8.011   8.234  12.310
84822SOL    HW256300   8.056   8.210  12.452
84823SOL     OW56301   0.117  11.824  10.768
84823SOL    HW156302   0.022  11.819  10.762
84823SOL    HW256303   0.148  11.741  10.731
84824SOL     OW56304   7.551  13.635   4.838
84824SOL    HW156305   7.555  13.616   4.932
84824SOL    HW256306   7.609  13.569   4.798
84825SOL     OW56307  13.558   8.021  11.389
84825SOL    HW156308  13.527   8.036  11.478
84825SOL    HW256309  13.495   8.066  11.333
84826SOL     OW56310   0.554   7.716  10.280
84826SOL    HW156311   0.466   7.717  10.242
84826SOL    HW256312   0.550   7.780  10.351
84827SOL     OW56313   5.058   5.870   7.222
84827SOL    HW156314   5.013   5.853   7.139
84827SOL    HW256315   5.145   5.832   7.210
84828SOL     OW56316   5.758  14.299  11.258
84828SOL    HW156317   5.698  14.374  11.255
84828SOL    HW256318   5.711  14.228  11.214
84829SOL     OW56319  14.612  12.248  12.520
84829SOL    HW156320  14.624  12.300  12.599
84829SOL    HW256321  14.526  12.208  12.531
84830SOL     OW56322  11.976   3.525   0.786
84830SOL    HW156323  12.005   3.434   0.776
84830SOL    HW256324  11.990   3.564   0.700
84831SOL     OW56325   3.293  10.277  12.505
84831SOL    HW156326   3.249  10.248  12.425
84831SOL    HW256327   3.386  10.273  12.483
84832SOL     OW56328  13.821  11.828  10.162
84832SOL    HW156329  13.741  11.807  10.210
84832SOL    HW256330  13.800  11.811  10.071
84833SOL     OW56331   6.850   9.903  11.848
84833SOL    HW156332   6.855   9.888  11.754
84833SOL    HW256333   6.924   9.961  11.867
84834SOL     OW56334   8.227   4.280   4.199
84834SOL    HW156335   8.281   4.201   4.199
84834SOL    HW256336   8.252   4.326   4.119
84835SOL     OW56337   4.718   8.036   6.035
84835SOL    HW156338   4.758   8.093   5.970
84835SOL    HW256339   4.672   8.095   6.094
84836SOL     OW56340   5.123   2.592   2.938
84836SOL    HW156341   5.094   2.661   2.879
84836SOL    HW256342   5.043   2.561   2.981
84837SOL     OW56343  10.397  14.674  11.250
84837SOL    HW156344  10.382  14.649  11.341
84837SOL    HW256345  10.490  14.696  11.247
84838SOL     OW56346   5.053  11.148   8.778
84838SOL    HW156347   5.081  11.239   8.794
84838SOL    HW256348   5.056  11.139   8.682
84839SOL     OW56349   3.267   4.417   5.299
84839SOL    HW156350   3.191   4.475   5.306
84839SOL    HW256351   3.236   4.332   5.330
84840SOL     OW56352  12.786   5.664  12.540
84840SOL    HW156353  12.781   5.581  12.493
84840SOL    HW256354  12.700   5.672  12.582
84841SOL     OW56355   9.455  11.361  13.859
84841SOL    HW156356   9.513  11.287  13.840
84841SOL    HW256357   9.467  11.378  13.952
84842SOL     OW56358   9.371   4.298  10.902
84842SOL    HW156359   9.383   4.393  10.905
84842SOL    HW256360   9.277   4.285  10.911
84843SOL     OW56361   9.295  11.282   9.427
84843SOL    HW156362   9.364  11.293   9.493
84843SOL    HW256363   9.340  11.242   9.352
84844SOL     OW56364   2.293   8.801   3.231
84844SOL    HW156365   2.376   8.813   3.276
84844SOL    HW256366   2.244   8.881   3.249
84845SOL     OW56367   7.638   1.086  12.262
84845SOL    HW156368   7.637   0.990  12.262
84845SOL    HW256369   7.730   1.109  12.266
84846SOL     OW56370  12.098  10.916   4.741
84846SOL    HW156371  12.156  10.990   4.759
84846SOL    HW256372  12.013  10.942   4.777
84847SOL     OW56373  12.984   3.448   2.679
84847SOL    HW156374  13.031   3.436   2.597
84847SOL    HW256375  13.018   3.380   2.737
84848SOL     OW56376  11.466   9.852  10.613
84848SOL    HW156377  11.561   9.859  10.608
84848SOL    HW256378  11.450   9.768  10.655
84849SOL     OW56379   3.938  14.127   1.153
84849SOL    HW156380   3.866  14.190   1.146
84849SOL    HW256381   4.013  14.172   1.113
84850SOL     OW56382   7.706   2.827  12.776
84850SOL    HW156383   7.735   2.913  12.747
84850SOL    HW256384   7.633   2.805  12.718
84851SOL     OW56385  11.227  13.935  14.745
84851SOL    HW156386  11.315  13.970  14.759
84851SOL    HW256387  11.239  13.868  14.678
84852SOL     OW56388   4.561   1.111  10.488
84852SOL    HW156389   4.615   1.099  10.410
84852SOL    HW256390   4.614   1.166  10.546
84853SOL     OW56391   7.588  11.503  12.184
84853SOL    HW156392   7.610  11.512  12.091
84853SOL    HW256393   7.492  11.500  12.186
84854SOL     OW56394   0.613   5.636  13.030
84854SOL    HW156395   0.577   5.608  13.115
84854SOL    HW256396   0.707   5.626  13.040
84855SOL     OW56397  13.184  11.607  10.508
84855SOL    HW156398  13.096  11.584  10.536
84855SOL    HW256399  13.235  11.609  10.589
84856SOL     OW56400   9.099   2.971   5.574
84856SOL    HW156401   9.089   2.916   5.496
84856SOL    HW256402   9.018   2.958   5.623
84857SOL     OW56403   6.259   6.403   7.364
84857SOL    HW156404   6.323   6.332   7.376
84857SOL    HW256405   6.309   6.472   7.320
84858SOL     OW56406  11.878  13.684  13.731
84858SOL    HW156407  11.784  13.692  13.747
84858SOL    HW256408  11.895  13.743  13.658
84859SOL     OW56409   9.332   0.393   0.158
84859SOL    HW156410   9.330   0.299   0.140
84859SOL    HW256411   9.357   0.433   0.075
84860SOL     OW56412  11.236   0.815   0.814
84860SOL    HW156413  11.240   0.891   0.755
84860SOL    HW256414  11.247   0.739   0.756
84861SOL     OW56415   3.421  11.919   6.447
84861SOL    HW156416   3.354  11.979   6.414
84861SOL    HW256417   3.383  11.832   6.433
84862SOL     OW56418   3.357   1.057   6.184
84862SOL    HW156419   3.288   0.999   6.215
84862SOL    HW256420   3.318   1.105   6.111
84863SOL     OW56421   3.968  11.528   6.573
84863SOL    HW156422   3.885  11.562   6.539
84863SOL    HW256423   4.033  11.593   6.546
84864SOL     OW56424   1.174   2.194   9.429
84864SOL    HW156425   1.189   2.288   9.436
84864SOL    HW256426   1.208   2.159   9.511
84865SOL     OW56427  11.793   4.651   2.002
84865SOL    HW156428  11.887   4.662   2.014
84865SOL    HW256429  11.776   4.678   1.912
84866SOL     OW56430   4.268   5.406   2.100
84866SOL    HW156431   4.240   5.496   2.113
84866SOL    HW256432   4.363   5.412   2.092
84867SOL     OW56433   5.717   3.405  12.505
84867SOL    HW156434   5.779   3.398  12.577
84867SOL    HW256435   5.708   3.499  12.490
84868SOL     OW56436   1.407  11.761  14.576
84868SOL    HW156437   1.390  11.778  14.669
84868SOL    HW256438   1.494  11.798  14.560
84869SOL     OW56439   6.533   9.215   6.566
84869SOL    HW156440   6.536   9.231   6.472
84869SOL    HW256441   6.494   9.128   6.574
84870SOL     OW56442   5.548  11.276   6.141
84870SOL    HW156443   5.526  11.188   6.174
84870SOL    HW256444   5.629  11.299   6.186
84871SOL     OW56445   9.493   5.368   6.600
84871SOL    HW156446   9.554   5.432   6.562
84871SOL    HW256447   9.529   5.349   6.687
84872SOL     OW56448  10.180  11.581   6.609
84872SOL    HW156449  10.266  11.544   6.629
84872SOL    HW256450  10.123  11.505   6.600
84873SOL     OW56451   4.568   2.303  14.580
84873SOL    HW156452   4.573   2.388  14.536
84873SOL    HW256453   4.487   2.306  14.630
84874SOL     OW56454   9.279   5.623  11.845
84874SOL    HW156455   9.324   5.634  11.761
84874SOL    HW256456   9.341   5.574  11.899
84875SOL     OW56457  14.639   0.353   3.314
84875SOL    HW156458  14.563   0.303   3.285
84875SOL    HW256459  14.700   0.288   3.348
84876SOL     OW56460  14.373  10.565  12.610
84876SOL    HW156461  14.380  10.482  12.564
84876SOL    HW256462  14.283  10.595  12.591
84877SOL     OW56463   8.432   6.465   4.655
84877SOL    HW156464   8.355   6.412   4.677
84877SOL    HW256465   8.397   6.542   4.610
84878SOL     OW56466   5.007  14.493   5.741
84878SOL    HW156467   4.995  14.584   5.767
84878SOL    HW256468   4.982  14.491   5.648
84879SOL     OW56469  12.537   1.291   3.564
84879SOL    HW156470  12.467   1.355   3.559
84879SOL    HW256471  12.598   1.316   3.495
84880SOL     OW56472  13.813   9.633   1.169
84880SOL    HW156473  13.848   9.714   1.206
84880SOL    HW256474  13.856   9.625   1.084
84881SOL     OW56475   7.375  13.807   5.794
84881SOL    HW156476   7.324  13.813   5.875
84881SOL    HW256477   7.311  13.817   5.724
84882SOL     OW56478   2.052   3.760  14.330
84882SOL    HW156479   2.110   3.708  14.275
84882SOL    HW256480   2.008   3.820  14.270
84883SOL     OW56481   4.235   0.828  10.583
84883SOL    HW156482   4.259   0.751  10.635
84883SOL    HW256483   4.139   0.829  10.585
84884SOL     OW56484   6.019  12.841   8.383
84884SOL    HW156485   5.987  12.825   8.471
84884SOL    HW256486   5.949  12.812   8.325
84885SOL     OW56487   9.706  10.852   3.651
84885SOL    HW156488   9.761  10.921   3.687
84885SOL    HW256489   9.706  10.867   3.556
84886SOL     OW56490   6.847   1.725   0.804
84886SOL    HW156491   6.895   1.754   0.726
84886SOL    HW256492   6.908   1.741   0.877
84887SOL     OW56493   0.554   6.867   5.827
84887SOL    HW156494   0.625   6.831   5.880
84887SOL    HW256495   0.491   6.794   5.818
84888SOL     OW56496   3.660   6.675  11.417
84888SOL    HW156497   3.630   6.585  11.401
84888SOL    HW256498   3.620   6.726  11.347
84889SOL     OW56499   2.156   9.459  12.513
84889SOL    HW156500   2.138   9.423  12.601
84889SOL    HW256501   2.087   9.422  12.458
84890SOL     OW56502  12.030   1.522  13.653
84890SOL    HW156503  11.949   1.522  13.703
84890SOL    HW256504  12.024   1.599  13.596
84891SOL     OW56505   3.074   0.748   9.072
84891SOL    HW156506   2.998   0.800   9.046
84891SOL    HW256507   3.149   0.800   9.043
84892SOL     OW56508  12.260   6.007   0.367
84892SOL    HW156509  12.349   6.043   0.363
84892SOL    HW256510  12.241   6.001   0.460
84893SOL     OW56511  10.443   9.750   1.857
84893SOL    HW156512  10.485   9.774   1.939
84893SOL    HW256513  10.509   9.764   1.790
84894SOL     OW56514   7.067   4.441   7.253
84894SOL    HW156515   7.159   4.462   7.270
84894SOL    HW256516   7.036   4.400   7.335
84895SOL     OW56517  11.190   3.177   0.126
84895SOL    HW156518  11.263   3.221   0.170
84895SOL    HW256519  11.149   3.246   0.073
84896SOL     OW56520   5.155   1.519  12.398
84896SOL    HW156521   5.069   1.482  12.380
84896SOL    HW256522   5.216   1.445  12.387
84897SOL     OW56523   4.226   6.858   6.325
84897SOL    HW156524   4.261   6.781   6.371
84897SOL    HW256525   4.295   6.883   6.264
84898SOL     OW56526  14.647  12.869   9.688
84898SOL    HW156527  14.592  12.813   9.633
84898SOL    HW256528  14.684  12.933   9.627
84899SOL     OW56529  14.186  13.642   0.082
84899SOL    HW156530  14.261  13.585   0.068
84899SOL    HW256531  14.117  13.585   0.114
84900SOL     OW56532   3.846   3.902   7.283
84900SOL    HW156533   3.941   3.888   7.287
84900SOL    HW256534   3.835   3.975   7.222
84901SOL     OW56535   9.747   0.355   5.825
84901SOL    HW156536   9.753   0.280   5.766
84901SOL    HW256537   9.836   0.388   5.831
84902SOL     OW56538   2.516  11.329   2.615
84902SOL    HW156539   2.440  11.386   2.620
84902SOL    HW256540   2.523  11.289   2.702
84903SOL     OW56541  12.130   9.937   3.370
84903SOL    HW156542  12.178  10.016   3.347
84903SOL    HW256543  12.084   9.960   3.451
84904SOL     OW56544   4.475   6.323  11.924
84904SOL    HW156545   4.404   6.345  11.863
84904SOL    HW256546   4.506   6.407  11.957
84905SOL     OW56547  11.582  13.005   8.405
84905SOL    HW156548  11.618  13.083   8.363
84905SOL    HW256549  11.502  12.987   8.355
84906SOL     OW56550  12.060  12.344   3.301
84906SOL    HW156551  11.965  12.335   3.291
84906SOL    HW256552  12.091  12.372   3.216
84907SOL     OW56553  12.196   5.514  11.000
84907SOL    HW156554  12.189   5.603  10.965
84907SOL    HW256555  12.113   5.472  10.976
84908SOL     OW56556  13.046   3.861   9.517
84908SOL    HW156557  12.966   3.897   9.554
84908SOL    HW256558  13.023   3.772   9.490
84909SOL     OW56559   7.453   3.085  13.779
84909SOL    HW156560   7.364   3.062  13.804
84909SOL    HW256561   7.466   3.173  13.813
84910SOL     OW56562  12.620   6.881  11.261
84910SOL    HW156563  12.683   6.912  11.197
84910SOL    HW256564  12.541   6.863  11.211
84911SOL     OW56565   0.554   2.030   8.356
84911SOL    HW156566   0.627   2.030   8.294
84911SOL    HW256567   0.540   2.122   8.377
84912SOL     OW56568   8.417   2.898  12.902
84912SOL    HW156569   8.361   2.843  12.848
84912SOL    HW256570   8.504   2.888  12.864
84913SOL     OW56571   1.387  13.077  13.577
84913SOL    HW156572   1.369  13.016  13.506
84913SOL    HW256573   1.339  13.041  13.652
84914SOL     OW56574   8.851   6.011   1.157
84914SOL    HW156575   8.785   6.072   1.123
84914SOL    HW256576   8.823   5.992   1.246
84915SOL     OW56577  14.302   3.801  13.133
84915SOL    HW156578  14.246   3.873  13.104
84915SOL    HW256579  14.385   3.842  13.157
84916SOL     OW56580   9.070   8.401   8.731
84916SOL    HW156581   9.098   8.310   8.726
84916SOL    HW256582   8.989   8.404   8.678
84917SOL     OW56583   8.027  12.312   4.466
84917SOL    HW156584   8.085  12.375   4.509
84917SOL    HW256585   7.977  12.364   4.403
84918SOL     OW56586  10.248  12.382   7.175
84918SOL    HW156587  10.289  12.414   7.255
84918SOL    HW256588  10.240  12.287   7.188
84919SOL     OW56589   3.173  13.759  14.498
84919SOL    HW156590   3.216  13.705  14.431
84919SOL    HW256591   3.231  13.753  14.574
84920SOL     OW56592  13.200   3.762   2.543
84920SOL    HW156593  13.106   3.773   2.530
84920SOL    HW256594  13.216   3.668   2.531
84921SOL     OW56595   3.678  11.175  14.194
84921SOL    HW156596   3.733  11.254  14.193
84921SOL    HW256597   3.738  11.104  14.169
84922SOL     OW56598   4.752   4.319  11.409
84922SOL    HW156599   4.670   4.306  11.361
84922SOL    HW256600   4.737   4.397  11.462
84923SOL     OW56601   7.375   4.313  11.037
84923SOL    HW156602   7.305   4.378  11.028
84923SOL    HW256603   7.394   4.312  11.131
84924SOL     OW56604  11.148   7.659   0.103
84924SOL    HW156605  11.189   7.633   0.021
84924SOL    HW256606  11.054   7.658   0.084
84925SOL     OW56607  14.714   2.702   0.546
84925SOL    HW156608  14.629   2.679   0.509
84925SOL    HW256609  14.776   2.688   0.475
84926SOL     OW56610  11.147  10.114   0.977
84926SOL    HW156611  11.085  10.066   1.033
84926SOL    HW256612  11.161  10.056   0.902
84927SOL     OW56613  13.649  14.601  14.620
84927SOL    HW156614  13.632  14.617  14.712
84927SOL    HW256615  13.695  14.517  14.618
84928SOL     OW56616   4.547   0.517   5.535
84928SOL    HW156617   4.496   0.571   5.595
84928SOL    HW256618   4.483   0.462   5.491
84929SOL     OW56619   6.388  14.463   7.672
84929SOL    HW156620   6.456  14.425   7.617
84929SOL    HW256621   6.318  14.489   7.611
84930SOL     OW56622  12.925   4.027   8.598
84930SOL    HW156623  12.941   3.933   8.591
84930SOL    HW256624  12.837   4.034   8.637
84931SOL     OW56625   0.743   8.171   5.980
84931SOL    HW156626   0.685   8.173   5.904
84931SOL    HW256627   0.814   8.231   5.957
84932SOL     OW56628   6.462   5.070   7.168
84932SOL    HW156629   6.490   5.159   7.143
84932SOL    HW256630   6.515   5.049   7.244
84933SOL     OW56631   3.861  12.579   1.738
84933SOL    HW156632   3.932  12.621   1.787
84933SOL    HW256633   3.906  12.524   1.674
84934SOL     OW56634  10.595  12.593   6.636
84934SOL    HW156635  10.629  12.617   6.722
84934SOL    HW256636  10.516  12.646   6.625
84935SOL     OW56637  11.233   9.602  13.399
84935SOL    HW156638  11.195   9.638  13.479
84935SOL    HW256639  11.308   9.551  13.429
84936SOL     OW56640  10.911   1.055   4.073
84936SOL    HW156641  10.930   1.133   4.123
84936SOL    HW256642  10.824   1.028   4.102
84937SOL     OW56643   6.151  11.058   0.130
84937SOL    HW156644   6.119  10.985   0.183
84937SOL    HW256645   6.215  11.102   0.186
84938SOL     OW56646   8.717   3.671   9.146
84938SOL    HW156647   8.744   3.632   9.063
84938SOL    HW256648   8.799   3.696   9.189
84939SOL     OW56649   6.931   0.289  12.185
84939SOL    HW156650   6.903   0.199  12.168
84939SOL    HW256651   6.925   0.299  12.280
84940SOL     OW56652   7.236  12.378   9.765
84940SOL    HW156653   7.141  12.364   9.764
84940SOL    HW256654   7.266  12.343   9.681
84941SOL     OW56655  10.058  11.032  12.995
84941SOL    HW156656   9.967  11.003  13.003
84941SOL    HW256657  10.110  10.954  13.014
84942SOL     OW56658  14.495  12.316   9.545
84942SOL    HW156659  14.450  12.245   9.591
84942SOL    HW256660  14.571  12.273   9.504
84943SOL     OW56661  10.374   8.312   5.609
84943SOL    HW156662  10.326   8.258   5.547
84943SOL    HW256663  10.461   8.271   5.615
84944SOL     OW56664   5.166  13.562   4.553
84944SOL    HW156665   5.210  13.610   4.483
84944SOL    HW256666   5.238  13.526   4.605
84945SOL     OW56667   9.691   6.235   5.459
84945SOL    HW156668   9.618   6.237   5.397
84945SOL    HW256669   9.671   6.304   5.523
84946SOL     OW56670   9.601   5.012   6.805
84946SOL    HW156671   9.572   4.938   6.858
84946SOL    HW256672   9.653   4.974   6.735
84947SOL     OW56673  11.592  10.937  12.134
84947SOL    HW156674  11.632  10.851  12.120
84947SOL    HW256675  11.666  10.998  12.137
84948SOL     OW56676   1.225   9.766   5.947
84948SOL    HW156677   1.228   9.715   5.866
84948SOL    HW256678   1.304   9.820   5.945
84949SOL     OW56679  13.336   8.150   0.450
84949SOL    HW156680  13.291   8.231   0.425
84949SOL    HW256681  13.358   8.163   0.542
84950SOL     OW56682   9.460  13.148   1.138
84950SOL    HW156683   9.495  13.159   1.050
84950SOL    HW256684   9.530  13.180   1.195
84951SOL     OW56685   6.647   8.475  12.668
84951SOL    HW156686   6.554   8.466  12.689
84951SOL    HW256687   6.669   8.393  12.625
84952SOL     OW56688   0.061   3.267   7.504
84952SOL    HW156689   0.040   3.275   7.411
84952SOL    HW256690  14.864   3.224   7.543
84953SOL     OW56691   0.365   3.016   1.353
84953SOL    HW156692   0.294   3.004   1.416
84953SOL    HW256693   0.441   3.038   1.406
84954SOL     OW56694  11.079   7.225   3.664
84954SOL    HW156695  10.987   7.209   3.683
84954SOL    HW256696  11.103   7.157   3.600
84955SOL     OW56697  14.775   5.320   0.693
84955SOL    HW156698  14.830   5.380   0.643
84955SOL    HW256699  14.722   5.275   0.628
84956SOL     OW56700   3.541  11.550  14.604
84956SOL    HW156701   3.494  11.474  14.637
84956SOL    HW256702   3.603  11.514  14.541
84957SOL     OW56703   6.357   2.025   1.593
84957SOL    HW156704   6.366   1.936   1.627
84957SOL    HW256705   6.447   2.051   1.572
84958SOL     OW56706   2.669  14.554  12.667
84958SOL    HW156707   2.637  14.497  12.597
84958SOL    HW256708   2.634  14.640  12.647
84959SOL     OW56709   5.531   9.797   1.124
84959SOL    HW156710   5.594   9.836   1.184
84959SOL    HW256711   5.585   9.752   1.058
84960SOL     OW56712   1.050  10.693  10.493
84960SOL    HW156713   1.023  10.770  10.442
84960SOL    HW256714   1.074  10.728  10.578
84961SOL     OW56715   6.624   8.911  10.637
84961SOL    HW156716   6.586   8.948  10.717
84961SOL    HW256717   6.551   8.910  10.575
84962SOL     OW56718   8.701  14.540   7.764
84962SOL    HW156719   8.734  14.489   7.837
84962SOL    HW256720   8.606  14.539   7.775
84963SOL     OW56721   0.795   9.379  12.619
84963SOL    HW156722   0.745   9.310  12.576
84963SOL    HW256723   0.865   9.400  12.557
84964SOL     OW56724   3.757   8.214   8.131
84964SOL    HW156725   3.676   8.235   8.177
84964SOL    HW256726   3.741   8.241   8.041
84965SOL     OW56727  13.128  13.532  10.908
84965SOL    HW156728  13.129  13.545  10.813
84965SOL    HW256729  13.216  13.503  10.929
84966SOL     OW56730   3.598   6.225   6.519
84966SOL    HW156731   3.554   6.228   6.605
84966SOL    HW256732   3.689   6.203   6.540
84967SOL     OW56733   1.487  14.617   1.969
84967SOL    HW156734   1.472  14.683   2.036
84967SOL    HW256735   1.525  14.666   1.896
84968SOL     OW56736   4.871  10.910  12.906
84968SOL    HW156737   4.903  10.836  12.855
84968SOL    HW256738   4.925  10.984  12.876
84969SOL     OW56739  11.949   4.890   7.628
84969SOL    HW156740  11.951   4.983   7.653
84969SOL    HW256741  11.895   4.887   7.549
84970SOL     OW56742   6.353   5.457   6.159
84970SOL    HW156743   6.427   5.499   6.202
84970SOL    HW256744   6.393   5.397   6.095
84971SOL     OW56745   3.675   7.516   4.205
84971SOL    HW156746   3.668   7.588   4.267
84971SOL    HW256747   3.695   7.558   4.121
84972SOL     OW56748   4.903  13.066   2.435
84972SOL    HW156749   4.983  13.113   2.412
84972SOL    HW256750   4.852  13.129   2.486
84973SOL     OW56751   3.124   5.104  11.393
84973SOL    HW156752   3.043   5.100  11.343
84973SOL    HW256753   3.192   5.116  11.327
84974SOL     OW56754   5.485   0.740   3.904
84974SOL    HW156755   5.528   0.669   3.856
84974SOL    HW256756   5.443   0.792   3.836
84975SOL     OW56757  13.901   0.820   1.458
84975SOL    HW156758  13.913   0.905   1.502
84975SOL    HW256759  13.974   0.814   1.397
84976SOL     OW56760   8.905   7.591  12.659
84976SOL    HW156761   8.817   7.554  12.656
84976SOL    HW256762   8.958   7.529  12.608
84977SOL     OW56763   4.649   7.294  14.794
84977SOL    HW156764   4.661   7.227  14.861
84977SOL    HW256765   4.682   7.255  14.713
84978SOL     OW56766  10.432   9.797   6.294
84978SOL    HW156767  10.457   9.718   6.342
84978SOL    HW256768  10.419   9.768   6.204
84979SOL     OW56769  10.918   7.586  14.771
84979SOL    HW156770  10.964   7.570  14.690
84979SOL    HW256771  10.837   7.630  14.745
84980SOL     OW56772   9.941  10.322   6.089
84980SOL    HW156773   9.876  10.344   6.156
84980SOL    HW256774   9.995  10.401   6.082
84981SOL     OW56775   4.699  13.158   5.068
84981SOL    HW156776   4.778  13.212   5.062
84981SOL    HW256777   4.714  13.103   5.145
84982SOL     OW56778  11.805  11.203   5.113
84982SOL    HW156779  11.801  11.229   5.205
84982SOL    HW256780  11.743  11.130   5.107
84983SOL     OW56781   5.093   3.293   9.626
84983SOL    HW156782   5.018   3.292   9.566
84983SOL    HW256783   5.054   3.311   9.711
84984SOL     OW56784   4.055   4.197   6.872
84984SOL    HW156785   4.001   4.274   6.852
84984SOL    HW256786   4.046   4.141   6.795
84985SOL     OW56787  10.771   6.886   8.301
84985SOL    HW156788  10.699   6.825   8.315
84985SOL    HW256789  10.732   6.973   8.311
84986SOL     OW56790   8.317   6.712  11.058
84986SOL    HW156791   8.229   6.704  11.020
84986SOL    HW256792   8.304   6.767  11.136
84987SOL     OW56793  13.221   2.918   1.753
84987SOL    HW156794  13.298   2.930   1.697
84987SOL    HW256795  13.212   2.823   1.761
84988SOL     OW56796   1.899  13.701   5.660
84988SOL    HW156797   1.884  13.715   5.753
84988SOL    HW256798   1.903  13.605   5.651
84989SOL     OW56799   0.445   9.096   0.741
84989SOL    HW156800   0.373   9.037   0.721
84989SOL    HW256801   0.490   9.109   0.657
84990SOL     OW56802   2.147   1.629   9.250
84990SOL    HW156803   2.198   1.659   9.325
84990SOL    HW256804   2.090   1.703   9.229
84991SOL     OW56805   4.369   9.967  13.063
84991SOL    HW156806   4.292   9.944  13.115
84991SOL    HW256807   4.416  10.030  13.117
84992SOL     OW56808  13.787  14.196  10.742
84992SOL    HW156809  13.702  14.229  10.771
84992SOL    HW256810  13.832  14.171  10.823
84993SOL     OW56811   7.049   7.846   7.505
84993SOL    HW156812   6.997   7.915   7.545
84993SOL    HW256813   7.028   7.850   7.411
84994SOL     OW56814  10.385  10.931   6.439
84994SOL    HW156815  10.368  10.897   6.526
84994SOL    HW256816  10.416  10.856   6.388
84995SOL     OW56817   9.541  14.561   6.808
84995SOL    HW156818   9.634  14.583   6.808
84995SOL    HW256819   9.524  14.526   6.720
84996SOL     OW56820  14.226   8.256  12.756
84996SOL    HW156821  14.251   8.335  12.805
84996SOL    HW256822  14.181   8.201  12.820
84997SOL     OW56823  11.646  12.713  10.213
84997SOL    HW156824  11.620  12.767  10.139
84997SOL    HW256825  11.596  12.632  10.202
84998SOL     OW56826   4.359   7.337  14.448
84998SOL    HW156827   4.341   7.346  14.355
84998SOL    HW256828   4.280   7.299  14.484
84999SOL     OW56829  12.051   0.338   8.966
84999SOL    HW156830  12.013   0.411   8.917
84999SOL    HW256831  12.145   0.346   8.953
85000SOL     OW56832   0.293   7.868   9.019
85000SOL    HW156833   0.278   7.942   9.077
85000SOL    HW256834   0.243   7.796   9.058
85001SOL     OW56835   0.636  13.000   9.354
85001SOL    HW156836   0.659  12.966   9.268
85001SOL    HW256837   0.540  12.998   9.356
85002SOL     OW56838  11.877  10.795   3.355
85002SOL    HW156839  11.963  10.808   3.396
85002SOL    HW256840  11.892  10.727   3.289
85003SOL     OW56841   8.543   4.598   5.827
85003SOL    HW156842   8.541   4.649   5.747
85003SOL    HW256843   8.628   4.619   5.867
85004SOL     OW56844   0.554   9.155   1.818
85004SOL    HW156845   0.631   9.117   1.858
85004SOL    HW256846   0.527   9.092   1.752
85005SOL     OW56847   3.579  13.315  11.386
85005SOL    HW156848   3.509  13.314  11.451
85005SOL    HW256849   3.656  13.347  11.433
85006SOL     OW56850   9.446   6.976   2.232
85006SOL    HW156851   9.461   6.974   2.327
85006SOL    HW256852   9.531   6.999   2.195
85007SOL     OW56853   5.364   0.817   9.610
85007SOL    HW156854   5.302   0.759   9.564
85007SOL    HW256855   5.444   0.812   9.557
85008SOL     OW56856  14.171  12.769  13.746
85008SOL    HW156857  14.103  12.837  13.744
85008SOL    HW256858  14.125  12.691  13.778
85009SOL     OW56859  11.629  14.601  11.385
85009SOL    HW156860  11.667  14.688  11.369
85009SOL    HW256861  11.610  14.600  11.479
85010SOL     OW56862   7.072   3.583   5.803
85010SOL    HW156863   7.091   3.489   5.797
85010SOL    HW256864   7.137   3.624   5.746
85011SOL     OW56865  13.048   4.554   6.904
85011SOL    HW156866  13.005   4.470   6.919
85011SOL    HW256867  12.978   4.618   6.911
85012SOL     OW56868   3.147   1.120  14.488
85012SOL    HW156869   3.061   1.108  14.449
85012SOL    HW256870   3.139   1.085  14.576
85013SOL     OW56871  14.170   7.536  10.948
85013SOL    HW156872  14.127   7.621  10.957
85013SOL    HW256873  14.242   7.538  11.011
85014SOL     OW56874  13.528  13.504   0.328
85014SOL    HW156875  13.444  13.542   0.353
85014SOL    HW256876  13.573  13.487   0.411
85015SOL     OW56877   4.240   3.086   8.071
85015SOL    HW156878   4.333   3.070   8.090
85015SOL    HW256879   4.221   3.030   7.996
85016SOL     OW56880   1.323  11.283   4.724
85016SOL    HW156881   1.391  11.231   4.680
85016SOL    HW256882   1.295  11.228   4.797
85017SOL     OW56883  11.024   4.387  13.150
85017SOL    HW156884  10.950   4.360  13.204
85017SOL    HW256885  11.079   4.438  13.209
85018SOL     OW56886   4.504   8.042  13.522
85018SOL    HW156887   4.536   8.125  13.560
85018SOL    HW256888   4.416   8.063  13.490
85019SOL     OW56889  10.310   6.564   7.236
85019SOL    HW156890  10.299   6.654   7.266
85019SOL    HW256891  10.383   6.530   7.288
85020SOL     OW56892   1.837  12.960   4.797
85020SOL    HW156893   1.869  13.012   4.724
85020SOL    HW256894   1.743  12.977   4.800
85021SOL     OW56895   3.354   9.183   4.262
85021SOL    HW156896   3.359   9.088   4.267
85021SOL    HW256897   3.270   9.205   4.302
85022SOL     OW56898   3.184   3.780   8.888
85022SOL    HW156899   3.262   3.799   8.941
85022SOL    HW256900   3.209   3.704   8.836
85023SOL     OW56901   7.819   0.009   1.526
85023SOL    HW156902   7.735   0.049   1.503
85023SOL    HW256903   7.853   0.064   1.596
85024SOL     OW56904   0.445  12.098   8.613
85024SOL    HW156905   0.498  12.137   8.544
85024SOL    HW256906   0.499  12.105   8.692
85025SOL     OW56907  10.995   9.226   9.273
85025SOL    HW156908  10.952   9.149   9.238
85025SOL    HW256909  10.934   9.298   9.257
85026SOL     OW56910   0.696   3.175   3.695
85026SOL    HW156911   0.631   3.170   3.765
85026SOL    HW256912   0.752   3.099   3.708
85027SOL     OW56913  10.232   6.218   4.368
85027SOL    HW156914  10.158   6.178   4.414
85027SOL    HW256915  10.192   6.275   4.302
85028SOL     OW56916   9.138   2.501   5.171
85028SOL    HW156917   9.090   2.507   5.253
85028SOL    HW256918   9.179   2.415   5.173
85029SOL     OW56919   6.563  10.486  13.487
85029SOL    HW156920   6.547  10.404  13.439
85029SOL    HW256921   6.475  10.518  13.508
85030SOL     OW56922   0.687   1.404  12.948
85030SOL    HW156923   0.754   1.423  12.882
85030SOL    HW256924   0.735   1.368  13.022
85031SOL     OW56925   7.786   6.309   7.639
85031SOL    HW156926   7.704   6.358   7.636
85031SOL    HW256927   7.817   6.320   7.728
85032SOL     OW56928  10.412   3.668   6.385
85032SOL    HW156929  10.446   3.588   6.424
85032SOL    HW256930  10.331   3.641   6.341
85033SOL     OW56931  13.774   7.758   1.746
85033SOL    HW156932  13.856   7.717   1.774
85033SOL    HW256933  13.796   7.800   1.662
85034SOL     OW56934   8.119   6.984  11.785
85034SOL    HW156935   8.214   6.985  11.795
85034SOL    HW256936   8.095   6.892  11.782
85035SOL     OW56937   6.991   8.032  11.309
85035SOL    HW156938   6.922   7.966  11.307
85035SOL    HW256939   7.068   7.984  11.339
85036SOL     OW56940  14.775   1.628   9.351
85036SOL    HW156941  14.868   1.646   9.364
85036SOL    HW256942  14.753   1.562   9.418
85037SOL     OW56943   4.750   8.433   5.940
85037SOL    HW156944   4.697   8.461   5.865
85037SOL    HW256945   4.785   8.348   5.914
85038SOL     OW56946   0.486   2.240   4.058
85038SOL    HW156947   0.540   2.205   3.987
85038SOL    HW256948   0.509   2.333   4.063
85039SOL     OW56949   8.527   2.194   7.578
85039SOL    HW156950   8.595   2.262   7.569
85039SOL    HW256951   8.574   2.117   7.609
85040SOL     OW56952  10.586  11.278  10.379
85040SOL    HW156953  10.630  11.304  10.459
85040SOL    HW256954  10.653  11.235  10.327
85041SOL     OW56955   6.500   5.624  12.371
85041SOL    HW156956   6.553   5.688  12.418
85041SOL    HW256957   6.416   5.625  12.416
85042SOL     OW56958   4.427   2.677   2.208
85042SOL    HW156959   4.372   2.615   2.255
85042SOL    HW256960   4.367   2.748   2.184
85043SOL     OW56961   8.073   4.216   5.185
85043SOL    HW156962   8.137   4.239   5.253
85043SOL    HW256963   8.106   4.258   5.106
85044SOL     OW56964  12.008   1.248   7.562
85044SOL    HW156965  11.949   1.178   7.535
85044SOL    HW256966  12.090   1.203   7.585
85045SOL     OW56967   9.102  14.290   4.532
85045SOL    HW156968   9.186  14.310   4.574
85045SOL    HW256969   9.039  14.346   4.576
85046SOL     OW56970   6.510   3.609  14.323
85046SOL    HW156971   6.451   3.552  14.373
85046SOL    HW256972   6.597   3.572  14.339
85047SOL     OW56973  12.989  13.784  13.147
85047SOL    HW156974  13.020  13.694  13.161
85047SOL    HW256975  13.045  13.817  13.076
85048SOL     OW56976   3.617   9.536   0.735
85048SOL    HW156977   3.660   9.584   0.664
85048SOL    HW256978   3.682   9.472   0.763
85049SOL     OW56979  14.298   4.204  12.947
85049SOL    HW156980  14.205   4.215  12.964
85049SOL    HW256981  14.307   4.216  12.852
85050SOL     OW56982   7.520   4.369  12.095
85050SOL    HW156983   7.541   4.340  12.006
85050SOL    HW256984   7.584   4.437  12.114
85051SOL     OW56985   1.966   0.197  12.093
85051SOL    HW156986   1.933   0.206  12.003
85051SOL    HW256987   2.024   0.272  12.104
85052SOL     OW56988  13.043  13.261  11.462
85052SOL    HW156989  12.998  13.188  11.504
85052SOL    HW256990  13.133  13.231  11.449
85053SOL     OW56991  12.731   9.367   5.495
85053SOL    HW156992  12.693   9.286   5.528
85053SOL    HW256993  12.667   9.435   5.514
85054SOL     OW56994  11.075  14.411  13.613
85054SOL    HW156995  10.981  14.432  13.606
85054SOL    HW256996  11.079  14.336  13.672
85055SOL     OW56997   6.558  11.317   5.138
85055SOL    HW156998   6.480  11.361   5.170
85055SOL    HW256999   6.525  11.237   5.096
85056SOL     OW57000   6.493   2.663  12.434
85056SOL    HW157001   6.499   2.758  12.430
85056SOL    HW257002   6.401   2.644  12.418
85057SOL     OW57003   7.285  10.306  13.384
85057SOL    HW157004   7.318  10.393  13.406
85057SOL    HW257005   7.251  10.315  13.296
85058SOL     OW57006   2.321   5.202   5.020
85058SOL    HW157007   2.270   5.140   4.967
85058SOL    HW257008   2.282   5.196   5.107
85059SOL     OW57009   6.024  12.167  13.723
85059SOL    HW157010   6.043  12.098  13.786
85059SOL    HW257011   5.979  12.234  13.773
85060SOL     OW57012   9.038   8.855   3.937
85060SOL    HW157013   8.945   8.843   3.954
85060SOL    HW257014   9.051   8.820   3.848
85061SOL     OW57015   6.658   9.185  14.583
85061SOL    HW157016   6.691   9.272  14.605
85061SOL    HW257017   6.596   9.200  14.511
85062SOL     OW57018  13.042   6.630   5.693
85062SOL    HW157019  13.024   6.536   5.682
85062SOL    HW257020  13.001   6.652   5.776
85063SOL     OW57021  13.917   8.793   5.774
85063SOL    HW157022  13.891   8.822   5.862
85063SOL    HW257023  13.836   8.794   5.723
85064SOL     OW57024   8.274  10.214   3.164
85064SOL    HW157025   8.356  10.171   3.190
85064SOL    HW257026   8.252  10.270   3.238
85065SOL     OW57027  14.876   3.410  12.430
85065SOL    HW157028  14.806   3.467  12.399
85065SOL    HW257029  14.832   3.351  12.492
85066SOL     OW57030   3.807   2.645  10.508
85066SOL    HW157031   3.793   2.672  10.599
85066SOL    HW257032   3.878   2.581  10.513
85067SOL     OW57033  12.601  13.847   8.220
85067SOL    HW157034  12.591  13.759   8.184
85067SOL    HW257035  12.601  13.834   8.315
85068SOL     OW57036   9.199   3.116   0.832
85068SOL    HW157037   9.251   3.038   0.814
85068SOL    HW257038   9.213   3.173   0.756
85069SOL     OW57039  10.076  10.917  13.620
85069SOL    HW157040  10.011  10.870  13.568
85069SOL    HW257041  10.030  10.941  13.700
85070SOL     OW57042   5.451  13.218  11.738
85070SOL    HW157043   5.362  13.225  11.702
85070SOL    HW257044   5.508  13.242  11.665
85071SOL     OW57045   4.356  14.728  12.052
85071SOL    HW157046   4.367  14.641  12.014
85071SOL    HW257047   4.391  14.788  11.986
85072SOL     OW57048   5.230   5.568   6.916
85072SOL    HW157049   5.298   5.583   6.850
85072SOL    HW257050   5.150   5.550   6.865
85073SOL     OW57051   3.001   5.426   1.744
85073SOL    HW157052   2.977   5.336   1.765
85073SOL    HW257053   3.092   5.434   1.774
85074SOL     OW57054  14.499   7.305  12.200
85074SOL    HW157055  14.456   7.381  12.160
85074SOL    HW257056  14.449   7.229  12.168
85075SOL     OW57057   8.573   5.385  11.161
85075SOL    HW157058   8.542   5.351  11.077
85075SOL    HW257059   8.604   5.308  11.208
85076SOL     OW57060   7.124   6.640   3.433
85076SOL    HW157061   7.083   6.575   3.490
85076SOL    HW257062   7.132   6.596   3.349
85077SOL     OW57063   5.615   7.935   4.547
85077SOL    HW157064   5.559   8.011   4.567
85077SOL    HW257065   5.704   7.966   4.563
85078SOL     OW57066   5.157   7.446  14.713
85078SOL    HW157067   5.066   7.427  14.690
85078SOL    HW257068   5.160   7.541  14.722
85079SOL     OW57069  12.540   3.060   2.152
85079SOL    HW157070  12.479   3.077   2.080
85079SOL    HW257071  12.588   3.142   2.163
85080SOL     OW57072   3.756  14.385   1.818
85080SOL    HW157073   3.718  14.381   1.906
85080SOL    HW257074   3.685  14.417   1.763
85081SOL     OW57075   9.821  11.587  13.870
85081SOL    HW157076   9.775  11.584  13.786
85081SOL    HW257077   9.753  11.609  13.933
85082SOL     OW57078   5.170   7.084   3.325
85082SOL    HW157079   5.242   7.022   3.333
85082SOL    HW257080   5.143   7.101   3.415
85083SOL     OW57081  14.269   3.286  12.403
85083SOL    HW157082  14.338   3.327  12.351
85083SOL    HW257083  14.267   3.195  12.373
85084SOL     OW57084   6.769   0.199   5.181
85084SOL    HW157085   6.707   0.271   5.167
85084SOL    HW257086   6.776   0.192   5.276
85085SOL     OW57087  14.288  13.370   7.206
85085SOL    HW157088  14.212  13.414   7.168
85085SOL    HW257089  14.252  13.316   7.276
85086SOL     OW57090  14.150   2.543  10.957
85086SOL    HW157091  14.130   2.462  11.004
85086SOL    HW257092  14.238   2.567  10.986
85087SOL     OW57093  11.396  10.098   8.725
85087SOL    HW157094  11.301  10.088   8.730
85087SOL    HW257095  11.430  10.035   8.789
85088SOL     OW57096   8.496   5.777   9.027
85088SOL    HW157097   8.502   5.848   9.092
85088SOL    HW257098   8.562   5.800   8.961
85089SOL     OW57099   8.457   7.806  12.793
85089SOL    HW157100   8.388   7.868  12.769
85089SOL    HW257101   8.505   7.790  12.712
85090SOL     OW57102   0.764   7.455   2.682
85090SOL    HW157103   0.772   7.539   2.728
85090SOL    HW257104   0.672   7.431   2.693
85091SOL     OW57105   6.730   8.923   2.209
85091SOL    HW157106   6.818   8.905   2.176
85091SOL    HW257107   6.687   8.838   2.213
85092SOL     OW57108   8.936   8.455   3.370
85092SOL    HW157109   8.860   8.404   3.341
85092SOL    HW257110   8.905   8.545   3.372
85093SOL     OW57111   5.191   8.448   6.273
85093SOL    HW157112   5.149   8.483   6.195
85093SOL    HW257113   5.256   8.515   6.297
85094SOL     OW57114   6.593   9.373  13.503
85094SOL    HW157115   6.619   9.318  13.577
85094SOL    HW257116   6.604   9.316  13.426
85095SOL     OW57117   8.552   7.075   2.351
85095SOL    HW157118   8.530   7.107   2.264
85095SOL    HW257119   8.488   7.116   2.409
85096SOL     OW57120   7.254   3.883   7.005
85096SOL    HW157121   7.200   3.961   7.009
85096SOL    HW257122   7.343   3.914   7.018
85097SOL     OW57123   6.749   7.109  12.417
85097SOL    HW157124   6.807   7.085  12.344
85097SOL    HW257125   6.712   7.026  12.446
85098SOL     OW57126   7.912   1.561   5.952
85098SOL    HW157127   7.983   1.600   5.902
85098SOL    HW257128   7.947   1.551   6.041
85099SOL     OW57129   4.107  13.269  13.244
85099SOL    HW157130   4.025  13.275  13.196
85099SOL    HW257131   4.094  13.195  13.304
85100SOL     OW57132  10.069   4.048  11.608
85100SOL    HW157133  10.006   4.089  11.548
85100SOL    HW257134  10.025   3.969  11.639
85101SOL     OW57135   5.046  14.026  12.857
85101SOL    HW157136   5.025  13.946  12.904
85101SOL    HW257137   5.134  14.011  12.822
85102SOL     OW57138  14.551  10.071  14.782
85102SOL    HW157139  14.606  10.059  14.704
85102SOL    HW257140  14.461  10.058  14.750
85103SOL     OW57141   4.283   7.121   6.459
85103SOL    HW157142   4.280   7.040   6.408
85103SOL    HW257143   4.256   7.189   6.398
85104SOL     OW57144   3.925   4.146  13.912
85104SOL    HW157145   3.947   4.058  13.881
85104SOL    HW257146   3.912   4.135  14.007
85105SOL     OW57147  13.398  12.896   1.892
85105SOL    HW157148  13.450  12.976   1.885
85105SOL    HW257149  13.332  12.915   1.958
85106SOL     OW57150  12.685   0.268   1.732
85106SOL    HW157151  12.595   0.256   1.702
85106SOL    HW257152  12.723   0.180   1.731
85107SOL     OW57153   6.806   9.029   9.740
85107SOL    HW157154   6.798   9.111   9.788
85107SOL    HW257155   6.736   9.032   9.675
85108SOL     OW57156   4.781  10.474  11.986
85108SOL    HW157157   4.715  10.445  11.923
85108SOL    HW257158   4.844  10.523  11.933
85109SOL     OW57159   9.240   1.181   2.237
85109SOL    HW157160   9.228   1.273   2.213
85109SOL    HW257161   9.335   1.170   2.243
85110SOL     OW57162   1.835  10.404  11.389
85110SOL    HW157163   1.880  10.488  11.395
85110SOL    HW257164   1.863  10.368  11.305
85111SOL     OW57165  12.737   8.669  14.531
85111SOL    HW157166  12.742   8.682  14.626
85111SOL    HW257167  12.820   8.703  14.498
85112SOL     OW57168   1.527  14.827   6.806
85112SOL    HW157169   1.599  14.843   6.745
85112SOL    HW257170   1.561  14.853   6.891
85113SOL     OW57171   8.610   7.117   4.563
85113SOL    HW157172   8.701   7.147   4.559
85113SOL    HW257173   8.608   7.054   4.635
85114SOL     OW57174   2.239  13.662  11.614
85114SOL    HW157175   2.185  13.597  11.660
85114SOL    HW257176   2.198  13.670  11.528
85115SOL     OW57177   1.780   4.590  12.245
85115SOL    HW157178   1.769   4.545  12.161
85115SOL    HW257179   1.693   4.583  12.287
85116SOL     OW57180   3.339   0.057  14.340
85116SOL    HW157181   3.345   0.153  14.343
85116SOL    HW257182   3.258   0.036  14.386
85117SOL     OW57183  14.527   3.522   9.459
85117SOL    HW157184  14.533   3.571   9.540
85117SOL    HW257185  14.560   3.435   9.481
85118SOL     OW57186   3.288  14.105   9.315
85118SOL    HW157187   3.227  14.123   9.387
85118SOL    HW257188   3.237  14.123   9.236
85119SOL     OW57189   0.359   2.455  11.601
85119SOL    HW157190   0.402   2.396  11.539
85119SOL    HW257191   0.428   2.517  11.625
85120SOL     OW57192   4.238  10.348   7.815
85120SOL    HW157193   4.195  10.346   7.729
85120SOL    HW257194   4.203  10.426   7.858
85121SOL     OW57195  10.281   8.747   4.376
85121SOL    HW157196  10.340   8.674   4.396
85121SOL    HW257197  10.276   8.797   4.457
85122SOL     OW57198  14.146   1.443   0.002
85122SOL    HW157199  14.189   1.371  14.836
85122SOL    HW257200  14.203   1.462   0.077
85123SOL     OW57201  11.437   9.090   1.508
85123SOL    HW157202  11.515   9.146   1.504
85123SOL    HW257203  11.453   9.023   1.442
85124SOL     OW57204   4.054   5.877   1.974
85124SOL    HW157205   3.985   5.881   1.907
85124SOL    HW257206   4.128   5.922   1.935
85125SOL     OW57207   3.909   5.365  14.181
85125SOL    HW157208   3.821   5.360  14.146
85125SOL    HW257209   3.908   5.308  14.258
85126SOL     OW57210  10.203   6.127  14.640
85126SOL    HW157211  10.197   6.222  14.635
85126SOL    HW257212  10.135   6.101  14.702
85127SOL     OW57213   6.176  10.922  14.745
85127SOL    HW157214   6.094  10.874  14.734
85127SOL    HW257215   6.158  10.985  14.815
85128SOL     OW57216   4.660   4.492  13.492
85128SOL    HW157217   4.625   4.526  13.410
85128SOL    HW257218   4.727   4.430  13.466
85129SOL     OW57219   0.401   3.967   5.408
85129SOL    HW157220   0.399   3.979   5.313
85129SOL    HW257221   0.489   3.993   5.434
85130SOL     OW57222   7.915  12.840   0.925
85130SOL    HW157223   7.949  12.750   0.927
85130SOL    HW257224   7.855  12.844   1.000
85131SOL     OW57225   2.853   0.100   0.009
85131SOL    HW157226   2.937   0.144   0.023
85131SOL    HW257227   2.802   0.162  14.835
85132SOL     OW57228   9.075   1.359  12.681
85132SOL    HW157229   9.026   1.398  12.609
85132SOL    HW257230   9.165   1.351  12.648
85133SOL     OW57231  12.227  13.217   3.752
85133SOL    HW157232  12.172  13.287   3.718
85133SOL    HW257233  12.254  13.248   3.838
85134SOL     OW57234  10.901   6.890  14.042
85134SOL    HW157235  10.857   6.816  14.000
85134SOL    HW257236  10.848   6.966  14.020
85135SOL     OW57237   7.497  11.175  14.312
85135SOL    HW157238   7.593  11.182  14.303
85135SOL    HW257239   7.477  11.089  14.274
85136SOL     OW57240   1.850  14.556   0.233
85136SOL    HW157241   1.945  14.546   0.238
85136SOL    HW257242   1.837  14.649   0.215
85137SOL     OW57243   2.586   6.520   4.927
85137SOL    HW157244   2.512   6.579   4.911
85137SOL    HW257245   2.598   6.473   4.845
85138SOL     OW57246  12.217   5.928   1.002
85138SOL    HW157247  12.215   5.990   0.929
85138SOL    HW257248  12.296   5.876   0.987
85139SOL     OW57249  13.414   3.711  12.658
85139SOL    HW157250  13.477   3.783  12.661
85139SOL    HW257251  13.464   3.635  12.686
85140SOL     OW57252   2.260  12.542   3.184
85140SOL    HW157253   2.305  12.463   3.156
85140SOL    HW257254   2.304  12.613   3.137
85141SOL     OW57255   1.540  10.444   1.217
85141SOL    HW157256   1.533  10.399   1.132
85141SOL    HW257257   1.529  10.374   1.281
85142SOL     OW57258  11.372   1.042  13.207
85142SOL    HW157259  11.320   1.122  13.202
85142SOL    HW257260  11.463   1.072  13.201
85143SOL     OW57261   3.604   4.089   6.850
85143SOL    HW157262   3.517   4.050   6.848
85143SOL    HW257263   3.596   4.162   6.911
85144SOL     OW57264   2.944   5.299  10.046
85144SOL    HW157265   2.886   5.261   9.979
85144SOL    HW257266   3.006   5.352   9.996
85145SOL     OW57267   0.154   1.782   7.423
85145SOL    HW157268   0.236   1.783   7.373
85145SOL    HW257269   0.182   1.785   7.514
85146SOL     OW57270   1.800  14.284   9.678
85146SOL    HW157271   1.831  14.234   9.603
85146SOL    HW257272   1.880  14.317   9.720
85147SOL     OW57273   0.998  10.216  11.036
85147SOL    HW157274   1.070  10.166  11.077
85147SOL    HW257275   0.925  10.207  11.097
85148SOL     OW57276   6.793   4.664   1.347
85148SOL    HW157277   6.879   4.643   1.310
85148SOL    HW257278   6.743   4.697   1.273
85149SOL     OW57279   1.845   5.120  14.869
85149SOL    HW157280   1.897   5.040  14.857
85149SOL    HW257281   1.767   5.091   0.037
85150SOL     OW57282   6.711  11.624  13.341
85150SOL    HW157283   6.703  11.535  13.307
85150SOL    HW257284   6.784  11.661  13.293
85151SOL     OW57285   5.862   8.070  10.536
85151SOL    HW157286   5.861   8.101  10.627
85151SOL    HW257287   5.942   8.107  10.499
85152SOL     OW57288  13.088   2.703   4.076
85152SOL    HW157289  13.086   2.691   3.981
85152SOL    HW257290  13.004   2.669   4.106
85153SOL     OW57291   9.461   5.326   5.082
85153SOL    HW157292   9.468   5.246   5.030
85153SOL    HW257293   9.367   5.342   5.090
85154SOL     OW57294  12.939   9.425   6.898
85154SOL    HW157295  12.878   9.474   6.953
85154SOL    HW257296  13.014   9.482   6.887
85155SOL     OW57297   5.587   3.670  10.504
85155SOL    HW157298   5.663   3.629  10.461
85155SOL    HW257299   5.541   3.714  10.432
85156SOL     OW57300  12.876  10.408  14.213
85156SOL    HW157301  12.858  10.331  14.268
85156SOL    HW257302  12.968  10.397  14.188
85157SOL     OW57303   8.134   5.714   3.182
85157SOL    HW157304   8.065   5.650   3.203
85157SOL    HW257305   8.151   5.759   3.264
85158SOL     OW57306   8.184   3.477   5.525
85158SOL    HW157307   8.097   3.441   5.543
85158SOL    HW257308   8.189   3.555   5.580
85159SOL     OW57309   0.506  12.666  11.965
85159SOL    HW157310   0.572  12.662  11.896
85159SOL    HW257311   0.486  12.574  11.983
85160SOL     OW57312   5.097   6.020   6.927
85160SOL    HW157313   5.181   5.982   6.953
85160SOL    HW257314   5.119   6.108   6.895
85161SOL     OW57315   0.393   8.244   5.527
85161SOL    HW157316   0.300   8.234   5.505
85161SOL    HW257317   0.435   8.167   5.489
85162SOL     OW57318  13.255   1.626   0.230
85162SOL    HW157319  13.268   1.705   0.284
85162SOL    HW257320  13.342   1.609   0.193
85163SOL     OW57321   6.955  13.362   2.629
85163SOL    HW157322   6.918  13.444   2.597
85163SOL    HW257323   6.916  13.351   2.716
85164SOL     OW57324   4.013   1.547  10.220
85164SOL    HW157325   4.032   1.474  10.161
85164SOL    HW257326   3.965   1.609  10.166
85165SOL     OW57327  12.992   4.266   0.094
85165SOL    HW157328  12.942   4.331   0.144
85165SOL    HW257329  12.988   4.187   0.148
85166SOL     OW57330   2.997   3.059   2.041
85166SOL    HW157331   3.002   3.039   2.135
85166SOL    HW257332   3.088   3.068   2.014
85167SOL     OW57333   7.675  13.943   8.024
85167SOL    HW157334   7.760  13.900   8.035
85167SOL    HW257335   7.696  14.037   8.017
85168SOL     OW57336  12.597   5.650   7.273
85168SOL    HW157337  12.689   5.662   7.298
85168SOL    HW257338  12.547   5.696   7.341
85169SOL     OW57339   6.210  12.588   6.121
85169SOL    HW157340   6.149  12.525   6.082
85169SOL    HW257341   6.255  12.628   6.047
85170SOL     OW57342  13.220   8.212   2.438
85170SOL    HW157343  13.289   8.163   2.394
85170SOL    HW257344  13.213   8.293   2.387
85171SOL     OW57345  13.508   4.372   6.448
85171SOL    HW157346  13.457   4.452   6.439
85171SOL    HW257347  13.564   4.370   6.371
85172SOL     OW57348   6.288  12.780   8.250
85172SOL    HW157349   6.207  12.794   8.300
85172SOL    HW257350   6.337  12.861   8.260
85173SOL     OW57351   8.216  12.775  13.146
85173SOL    HW157352   8.268  12.844  13.189
85173SOL    HW257353   8.130  12.781  13.187
85174SOL     OW57354  14.097   4.700   9.103
85174SOL    HW157355  14.010   4.704   9.143
85174SOL    HW257356  14.081   4.713   9.010
85175SOL     OW57357   2.802   3.734   3.548
85175SOL    HW157358   2.847   3.652   3.525
85175SOL    HW257359   2.710   3.717   3.526
85176SOL     OW57360   9.614   0.346  12.605
85176SOL    HW157361   9.526   0.320  12.578
85176SOL    HW257362   9.613   0.338  12.701
85177SOL     OW57363  14.857   6.358   2.129
85177SOL    HW157364   0.023   6.418   2.070
85177SOL    HW257365   0.011   6.272   2.106
85178SOL     OW57366  14.524   2.179  14.585
85178SOL    HW157367  14.464   2.178  14.660
85178SOL    HW257368  14.603   2.135  14.618
85179SOL     OW57369   7.682   0.974   0.891
85179SOL    HW157370   7.770   1.007   0.874
85179SOL    HW257371   7.696   0.886   0.926
85180SOL     OW57372   6.827   8.793   1.620
85180SOL    HW157373   6.844   8.719   1.562
85180SOL    HW257374   6.744   8.828   1.591
85181SOL     OW57375  11.243   0.010  12.834
85181SOL    HW157376  11.231   0.102  12.857
85181SOL    HW257377  11.155  14.852  12.834
85182SOL     OW57378  13.045   3.242   7.831
85182SOL    HW157379  13.028   3.299   7.756
85182SOL    HW257380  13.006   3.288   7.906
85183SOL     OW57381  14.358  13.422  12.059
85183SOL    HW157382  14.446  13.454  12.040
85183SOL    HW257383  14.372  13.340  12.106
85184SOL     OW57384  13.120   0.595   7.140
85184SOL    HW157385  13.068   0.623   7.065
85184SOL    HW257386  13.060   0.599   7.215
85185SOL     OW57387   0.327  13.441   1.371
85185SOL    HW157388   0.422  13.436   1.381
85185SOL    HW257389   0.294  13.444   1.461
85186SOL     OW57390   3.313   0.455   8.522
85186SOL    HW157391   3.277   0.463   8.611
85186SOL    HW257392   3.404   0.431   8.535
85187SOL     OW57393   2.526  12.594  13.658
85187SOL    HW157394   2.496  12.511  13.621
85187SOL    HW257395   2.518  12.657  13.587
85188SOL     OW57396  10.218  10.494   6.269
85188SOL    HW157397  10.146  10.549   6.237
85188SOL    HW257398  10.185  10.405   6.260
85189SOL     OW57399  12.177  12.177   6.040
85189SOL    HW157400  12.125  12.115   6.090
85189SOL    HW257401  12.228  12.224   6.106
85190SOL     OW57402   4.131   1.213   1.967
85190SOL    HW157403   4.206   1.175   1.922
85190SOL    HW257404   4.091   1.139   2.013
85191SOL     OW57405   6.806   1.763  11.415
85191SOL    HW157406   6.857   1.804  11.345
85191SOL    HW257407   6.715   1.778  11.389
85192SOL     OW57408   1.220   0.992   7.824
85192SOL    HW157409   1.130   0.962   7.819
85192SOL    HW257410   1.247   1.003   7.732
85193SOL     OW57411  10.674   2.438   4.492
85193SOL    HW157412  10.678   2.383   4.570
85193SOL    HW257413  10.763   2.437   4.457
85194SOL     OW57414   2.069  10.846   0.409
85194SOL    HW157415   1.995  10.861   0.350
85194SOL    HW257416   2.034  10.862   0.497
85195SOL     OW57417   2.312   2.254  11.494
85195SOL    HW157418   2.307   2.343  11.529
85195SOL    HW257419   2.403   2.243  11.467
85196SOL     OW57420   4.060  14.305   5.568
85196SOL    HW157421   4.030  14.232   5.622
85196SOL    HW257422   4.009  14.298   5.487
85197SOL     OW57423   9.867   7.750  12.856
85197SOL    HW157424   9.943   7.743  12.797
85197SOL    HW257425   9.799   7.698  12.813
85198SOL     OW57426   1.394   4.167  10.717
85198SOL    HW157427   1.441   4.085  10.704
85198SOL    HW257428   1.393   4.209  10.631
85199SOL     OW57429   0.993  12.720   1.419
85199SOL    HW157430   1.048  12.760   1.486
85199SOL    HW257431   1.049  12.653   1.379
85200SOL     OW57432   3.391   5.845   9.808
85200SOL    HW157433   3.424   5.935   9.806
85200SOL    HW257434   3.468   5.792   9.826
85201SOL     OW57435   0.052   7.746   0.429
85201SOL    HW157436   0.128   7.724   0.483
85201SOL    HW257437  14.858   7.697   0.470
85202SOL     OW57438   1.621   0.069  11.056
85202SOL    HW157439   1.694   0.020  11.093
85202SOL    HW257440   1.658   0.115  10.981
85203SOL     OW57441   4.004   9.152   9.577
85203SOL    HW157442   3.910   9.169   9.572
85203SOL    HW257443   4.019   9.126   9.668
85204SOL     OW57444   3.537   8.718  10.507
85204SOL    HW157445   3.569   8.808  10.499
85204SOL    HW257446   3.601   8.664  10.461
85205SOL     OW57447   3.967   2.359   0.418
85205SOL    HW157448   3.997   2.309   0.494
85205SOL    HW257449   3.983   2.450   0.441
85206SOL     OW57450   3.498   8.033   1.617
85206SOL    HW157451   3.454   7.951   1.594
85206SOL    HW257452   3.434   8.101   1.599
85207SOL     OW57453   3.114   6.841  13.593
85207SOL    HW157454   3.160   6.830  13.676
85207SOL    HW257455   3.021   6.831  13.615
85208SOL     OW57456   9.933  10.650   8.748
85208SOL    HW157457   9.872  10.617   8.814
85208SOL    HW257458   9.928  10.745   8.756
85209SOL     OW57459   8.133  11.818   2.044
85209SOL    HW157460   8.162  11.734   2.080
85209SOL    HW257461   8.046  11.800   2.009
85210SOL     OW57462   3.067   5.712  11.500
85210SOL    HW157463   3.069   5.756  11.585
85210SOL    HW257464   3.090   5.621  11.519
85211SOL     OW57465   6.489   2.437  12.802
85211SOL    HW157466   6.516   2.426  12.711
85211SOL    HW257467   6.400   2.403  12.806
85212SOL     OW57468   4.826   8.896   1.393
85212SOL    HW157469   4.747   8.843   1.394
85212SOL    HW257470   4.894   8.838   1.429
85213SOL     OW57471   5.799  11.135   2.893
85213SOL    HW157472   5.736  11.064   2.905
85213SOL    HW257473   5.788  11.191   2.970
85214SOL     OW57474  10.778   9.527   9.750
85214SOL    HW157475  10.810   9.438   9.763
85214SOL    HW257476  10.724   9.521   9.671
85215SOL     OW57477  13.214   1.161   4.943
85215SOL    HW157478  13.299   1.154   4.900
85215SOL    HW257479  13.198   1.255   4.950
85216SOL     OW57480   2.246   8.722  10.515
85216SOL    HW157481   2.318   8.758  10.464
85216SOL    HW257482   2.185   8.688  10.449
85217SOL     OW57483  12.077  11.134   0.036
85217SOL    HW157484  12.034  11.067  14.861
85217SOL    HW257485  12.048  11.114   0.125
85218SOL     OW57486  10.781   4.766   4.715
85218SOL    HW157487  10.727   4.722   4.781
85218SOL    HW257488  10.722   4.826   4.671
85219SOL     OW57489   1.405   2.825  10.966
85219SOL    HW157490   1.318   2.858  10.946
85219SOL    HW257491   1.412   2.830  11.061
85220SOL     OW57492  14.587   6.232  14.742
85220SOL    HW157493  14.496   6.247  14.768
85220SOL    HW257494  14.637   6.297  14.791
85221SOL     OW57495  10.792   1.715   9.714
85221SOL    HW157496  10.753   1.680   9.794
85221SOL    HW257497  10.839   1.641   9.676
85222SOL     OW57498   2.396  12.838   1.297
85222SOL    HW157499   2.479  12.835   1.251
85222SOL    HW257500   2.411  12.789   1.378
85223SOL     OW57501  14.662   1.919  12.888
85223SOL    HW157502  14.706   1.841  12.855
85223SOL    HW257503  14.630   1.965  12.810
85224SOL     OW57504   4.534   7.212   8.989
85224SOL    HW157505   4.520   7.294   8.940
85224SOL    HW257506   4.573   7.153   8.925
85225SOL     OW57507   2.762  12.594   5.762
85225SOL    HW157508   2.771  12.500   5.778
85225SOL    HW257509   2.846  12.631   5.791
85226SOL     OW57510  11.850  14.488  12.293
85226SOL    HW157511  11.874  14.395  12.289
85226SOL    HW257512  11.831  14.511  12.202
85227SOL     OW57513   0.995  11.784  14.415
85227SOL    HW157514   0.975  11.792  14.508
85227SOL    HW257515   0.910  11.772  14.373
85228SOL     OW57516  12.662   2.008  12.663
85228SOL    HW157517  12.706   2.073  12.608
85228SOL    HW257518  12.587   1.979  12.611
85229SOL     OW57519   4.109   9.285   0.664
85229SOL    HW157520   4.081   9.208   0.615
85229SOL    HW257521   4.199   9.265   0.692
85230SOL     OW57522  11.586  11.010   3.236
85230SOL    HW157523  11.574  10.953   3.313
85230SOL    HW257524  11.538  11.090   3.257
85231SOL     OW57525  10.885   3.918  11.760
85231SOL    HW157526  10.829   3.995  11.749
85231SOL    HW257527  10.935   3.913  11.679
85232SOL     OW57528  11.941   2.457   2.359
85232SOL    HW157529  11.927   2.552   2.357
85232SOL    HW257530  11.906   2.426   2.276
85233SOL     OW57531  12.429   5.781  13.197
85233SOL    HW157532  12.465   5.818  13.278
85233SOL    HW257533  12.493   5.716  13.170
85234SOL     OW57534   5.410  11.939   7.755
85234SOL    HW157535   5.370  11.983   7.830
85234SOL    HW257536   5.470  12.003   7.718
85235SOL     OW57537   7.823   2.599   1.990
85235SOL    HW157538   7.889   2.531   2.000
85235SOL    HW257539   7.740   2.552   1.984
85236SOL     OW57540  13.582  10.685   7.758
85236SOL    HW157541  13.615  10.659   7.672
85236SOL    HW257542  13.577  10.780   7.754
85237SOL     OW57543  10.826   9.071   2.448
85237SOL    HW157544  10.837   9.126   2.370
85237SOL    HW257545  10.910   9.075   2.492
85238SOL     OW57546   7.843  11.401   8.813
85238SOL    HW157547   7.780  11.394   8.885
85238SOL    HW257548   7.815  11.478   8.764
85239SOL     OW57549   6.776   5.145   1.598
85239SOL    HW157550   6.728   5.215   1.644
85239SOL    HW257551   6.855   5.188   1.566
85240SOL     OW57552  13.892   5.139   8.433
85240SOL    HW157553  13.873   5.224   8.471
85240SOL    HW257554  13.935   5.158   8.350
85241SOL     OW57555   1.853   7.116   7.257
85241SOL    HW157556   1.913   7.189   7.265
85241SOL    HW257557   1.903   7.049   7.210
85242SOL     OW57558   3.887   8.527   3.532
85242SOL    HW157559   3.910   8.489   3.617
85242SOL    HW257560   3.935   8.610   3.529
85243SOL     OW57561   5.945   1.273  14.037
85243SOL    HW157562   5.965   1.180  14.030
85243SOL    HW257563   6.019   1.317  13.996
85244SOL     OW57564   6.233  10.493  11.877
85244SOL    HW157565   6.197  10.489  11.788
85244SOL    HW257566   6.176  10.556  11.922
85245SOL     OW57567  11.953   8.034   8.599
85245SOL    HW157568  11.873   8.086   8.607
85245SOL    HW257569  12.023   8.095   8.622
85246SOL     OW57570   8.417   5.983   5.702
85246SOL    HW157571   8.372   5.957   5.783
85246SOL    HW257572   8.496   6.027   5.732
85247SOL     OW57573  10.280   4.134   0.741
85247SOL    HW157574  10.186   4.119   0.754
85247SOL    HW257575  10.295   4.117   0.648
85248SOL     OW57576  12.732   8.222   1.125
85248SOL    HW157577  12.753   8.164   1.199
85248SOL    HW257578  12.651   8.265   1.151
85249SOL     OW57579   4.377   8.620  14.478
85249SOL    HW157580   4.352   8.611  14.570
85249SOL    HW257581   4.472   8.631  14.480
85250SOL     OW57582   1.229   8.381   6.289
85250SOL    HW157583   1.318   8.374   6.323
85250SOL    HW257584   1.240   8.380   6.194
85251SOL     OW57585  12.873   2.678   2.330
85251SOL    HW157586  12.903   2.722   2.409
85251SOL    HW257587  12.778   2.692   2.329
85252SOL     OW57588  12.753  12.000  14.083
85252SOL    HW157589  12.832  11.987  14.136
85252SOL    HW257590  12.782  11.983  13.993
85253SOL     OW57591   6.414  10.408   8.560
85253SOL    HW157592   6.469  10.486   8.574
85253SOL    HW257593   6.439  10.377   8.473
85254SOL     OW57594   3.405  10.881  11.854
85254SOL    HW157595   3.361  10.864  11.937
85254SOL    HW257596   3.491  10.914  11.878
85255SOL     OW57597   2.173   1.669   4.154
85255SOL    HW157598   2.178   1.686   4.060
85255SOL    HW257599   2.217   1.744   4.194
85256SOL     OW57600  13.348   2.996   3.554
85256SOL    HW157601  13.365   3.055   3.481
85256SOL    HW257602  13.346   3.054   3.631
85257SOL     OW57603  10.505  12.934  11.968
85257SOL    HW157604  10.417  12.962  11.942
85257SOL    HW257605  10.563  12.987  11.913
85258SOL     OW57606   7.179  14.351   1.212
85258SOL    HW157607   7.198  14.407   1.137
85258SOL    HW257608   7.099  14.388   1.250
85259SOL     OW57609   7.000   6.677  12.914
85259SOL    HW157610   7.085   6.635  12.908
85259SOL    HW257611   6.989   6.696  13.007
85260SOL     OW57612   3.084  10.579   8.602
85260SOL    HW157613   3.054  10.522   8.531
85260SOL    HW257614   3.178  10.561   8.608
85261SOL     OW57615  10.247   3.678   7.799
85261SOL    HW157616  10.309   3.743   7.833
85261SOL    HW257617  10.165   3.726   7.789
85262SOL     OW57618   1.145   3.711   7.190
85262SOL    HW157619   1.100   3.709   7.105
85262SOL    HW257620   1.098   3.648   7.244
85263SOL     OW57621   3.548  12.743   7.066
85263SOL    HW157622   3.486  12.789   7.123
85263SOL    HW257623   3.623  12.723   7.123
85264SOL     OW57624  10.560  10.234   6.724
85264SOL    HW157625  10.558  10.223   6.819
85264SOL    HW257626  10.468  10.227   6.697
85265SOL     OW57627   5.889   8.810  10.395
85265SOL    HW157628   5.851   8.806  10.483
85265SOL    HW257629   5.881   8.902  10.370
85266SOL     OW57630  12.218  12.008   9.827
85266SOL    HW157631  12.217  11.914   9.808
85266SOL    HW257632  12.299  12.021   9.878
85267SOL     OW57633   3.316  12.364   8.963
85267SOL    HW157634   3.345  12.408   8.883
85267SOL    HW257635   3.255  12.297   8.932
85268SOL     OW57636  10.695   4.728  10.828
85268SOL    HW157637  10.770   4.683  10.789
85268SOL    HW257638  10.726   4.754  10.915
85269SOL     OW57639  11.406  12.636  12.900
85269SOL    HW157640  11.334  12.638  12.963
85269SOL    HW257641  11.443  12.724  12.903
85270SOL     OW57642   4.292  13.711   6.138
85270SOL    HW157643   4.219  13.652   6.119
85270SOL    HW257644   4.312  13.696   6.230
85271SOL     OW57645  11.106   8.982   8.853
85271SOL    HW157646  11.011   8.975   8.844
85271SOL    HW257647  11.134   9.034   8.778
85272SOL     OW57648  10.495   0.370   1.326
85272SOL    HW157649  10.526   0.279   1.334
85272SOL    HW257650  10.549   0.407   1.256
85273SOL     OW57651  11.328  11.909   2.194
85273SOL    HW157652  11.407  11.870   2.231
85273SOL    HW257653  11.332  11.888   2.100
85274SOL     OW57654   8.925   9.876   9.609
85274SOL    HW157655   8.871   9.815   9.559
85274SOL    HW257656   8.862   9.929   9.659
85275SOL     OW57657  11.613   1.786   6.263
85275SOL    HW157658  11.604   1.832   6.347
85275SOL    HW257659  11.695   1.818   6.226
85276SOL     OW57660   9.005   9.087   2.034
85276SOL    HW157661   9.030   9.157   1.975
85276SOL    HW257662   9.061   9.013   2.009
85277SOL     OW57663   1.173   7.326  13.784
85277SOL    HW157664   1.164   7.396  13.719
85277SOL    HW257665   1.210   7.370  13.861
85278SOL     OW57666   8.168   3.464  14.016
85278SOL    HW157667   8.210   3.434  14.096
85278SOL    HW257668   8.167   3.560  14.024
85279SOL     OW57669   3.414   4.288   0.180
85279SOL    HW157670   3.397   4.242   0.098
85279SOL    HW257671   3.487   4.347   0.161
85280SOL     OW57672   6.863  14.606  11.360
85280SOL    HW157673   6.938  14.620  11.417
85280SOL    HW257674   6.804  14.550  11.410
85281SOL     OW57675   6.131   5.167  11.011
85281SOL    HW157676   6.215   5.128  10.984
85281SOL    HW257677   6.156   5.247  11.058
85282SOL     OW57678  14.803   9.535   5.306
85282SOL    HW157679  14.736   9.469   5.321
85282SOL    HW257680  14.824   9.568   5.393
85283SOL     OW57681  10.545  14.355   2.077
85283SOL    HW157682  10.561  14.415   2.004
85283SOL    HW257683  10.481  14.400   2.132
85284SOL     OW57684   2.582   5.058   6.734
85284SOL    HW157685   2.510   5.078   6.795
85284SOL    HW257686   2.653   5.117   6.761
85285SOL     OW57687  14.471  14.524  11.382
85285SOL    HW157688  14.514  14.603  11.348
85285SOL    HW257689  14.542  14.461  11.392
85286SOL     OW57690   7.958   7.411  14.070
85286SOL    HW157691   8.028   7.359  14.032
85286SOL    HW257692   7.886   7.405  14.007
85287SOL     OW57693  10.814   1.967   1.563
85287SOL    HW157694  10.801   1.876   1.534
85287SOL    HW257695  10.780   1.968   1.653
85288SOL     OW57696  11.322   7.747   4.145
85288SOL    HW157697  11.403   7.793   4.166
85288SOL    HW257698  11.328   7.729   4.051
85289SOL     OW57699   3.855  13.987  13.996
85289SOL    HW157700   3.806  14.057  14.039
85289SOL    HW257701   3.933  14.030  13.961
85290SOL     OW57702   5.743   3.529   8.312
85290SOL    HW157703   5.706   3.504   8.227
85290SOL    HW257704   5.693   3.607   8.338
85291SOL     OW57705   0.965   8.001   8.081
85291SOL    HW157706   0.997   7.951   8.006
85291SOL    HW257707   0.990   8.091   8.062
85292SOL     OW57708   8.003   0.310   9.765
85292SOL    HW157709   7.990   0.356   9.682
85292SOL    HW257710   7.941   0.238   9.762
85293SOL     OW57711   3.669  10.249   7.586
85293SOL    HW157712   3.742  10.256   7.647
85293SOL    HW257713   3.661  10.336   7.548
85294SOL     OW57714   1.507   5.173   2.711
85294SOL    HW157715   1.486   5.206   2.623
85294SOL    HW257716   1.602   5.165   2.711
85295SOL     OW57717  14.154   2.124   5.642
85295SOL    HW157718  14.235   2.160   5.678
85295SOL    HW257719  14.180   2.039   5.606
85296SOL     OW57720  12.532   7.717   7.368
85296SOL    HW157721  12.545   7.733   7.462
85296SOL    HW257722  12.554   7.624   7.356
85297SOL     OW57723   9.669   3.353  12.567
85297SOL    HW157724   9.662   3.414  12.640
85297SOL    HW257725   9.747   3.300  12.588
85298SOL     OW57726   0.889   7.778  10.733
85298SOL    HW157727   0.895   7.865  10.694
85298SOL    HW257728   0.820   7.734  10.684
85299SOL     OW57729  10.962   7.746   8.097
85299SOL    HW157730  11.021   7.733   8.171
85299SOL    HW257731  11.002   7.816   8.046
85300SOL     OW57732   3.496   9.807  14.654
85300SOL    HW157733   3.552   9.815  14.577
85300SOL    HW257734   3.419   9.860  14.632
85301SOL     OW57735  12.653  10.780   7.561
85301SOL    HW157736  12.613  10.760   7.476
85301SOL    HW257737  12.745  10.797   7.540
85302SOL     OW57738  12.420   8.408  13.188
85302SOL    HW157739  12.355   8.345  13.156
85302SOL    HW257740  12.497   8.355  13.207
85303SOL     OW57741  14.432  14.344   5.463
85303SOL    HW157742  14.512  14.352   5.411
85303SOL    HW257743  14.378  14.418   5.433
85304SOL     OW57744   3.672   2.850   9.333
85304SOL    HW157745   3.675   2.781   9.267
85304SOL    HW257746   3.607   2.912   9.299
85305SOL     OW57747   9.083   1.809   6.927
85305SOL    HW157748   9.090   1.793   6.833
85305SOL    HW257749   9.055   1.900   6.934
85306SOL     OW57750   3.321   0.261   3.905
85306SOL    HW157751   3.233   0.246   3.871
85306SOL    HW257752   3.307   0.294   3.993
85307SOL     OW57753   9.492   2.139   6.519
85307SOL    HW157754   9.462   2.063   6.570
85307SOL    HW257755   9.506   2.207   6.584
85308SOL     OW57756   4.155  14.762   1.561
85308SOL    HW157757   4.164  14.837   1.620
85308SOL    HW257758   4.077  14.717   1.593
85309SOL     OW57759   5.327   2.526   4.453
85309SOL    HW157760   5.306   2.499   4.542
85309SOL    HW257761   5.356   2.616   4.461
85310SOL     OW57762  12.773   8.371   0.651
85310SOL    HW157763  12.700   8.315   0.627
85310SOL    HW257764  12.734   8.443   0.700
85311SOL     OW57765  14.355  13.368   2.429
85311SOL    HW157766  14.262  13.347   2.414
85311SOL    HW257767  14.391  13.380   2.341
85312SOL     OW57768   5.223   7.465   6.549
85312SOL    HW157769   5.273   7.519   6.488
85312SOL    HW257770   5.136   7.506   6.551
85313SOL     OW57771   4.613  10.005  10.877
85313SOL    HW157772   4.604  10.098  10.859
85313SOL    HW257773   4.682   9.975  10.818
85314SOL     OW57774  12.578   7.909   8.551
85314SOL    HW157775  12.630   7.834   8.580
85314SOL    HW257776  12.574   7.900   8.456
85315SOL     OW57777   5.292  13.843  14.265
85315SOL    HW157778   5.352  13.770  14.258
85315SOL    HW257779   5.306  13.894  14.185
85316SOL     OW57780   9.105   4.023   0.794
85316SOL    HW157781   9.189   4.043   0.834
85316SOL    HW257782   9.066   3.957   0.851
85317SOL     OW57783   9.906  11.094   4.836
85317SOL    HW157784   9.839  11.093   4.904
85317SOL    HW257785   9.883  11.022   4.777
85318SOL     OW57786   6.253   4.606   5.726
85318SOL    HW157787   6.282   4.695   5.748
85318SOL    HW257788   6.329   4.551   5.744
85319SOL     OW57789   1.982  14.320   5.058
85319SOL    HW157790   2.055  14.275   5.015
85319SOL    HW257791   1.959  14.391   4.998
85320SOL     OW57792   7.571   4.381   0.948
85320SOL    HW157793   7.617   4.332   1.016
85320SOL    HW257794   7.522   4.314   0.900
85321SOL     OW57795  14.479  10.094  13.299
85321SOL    HW157796  14.400  10.144  13.318
85321SOL    HW257797  14.479  10.024  13.364
85322SOL     OW57798  13.396   7.116   8.492
85322SOL    HW157799  13.385   7.171   8.415
85322SOL    HW257800  13.489   7.092   8.491
85323SOL     OW57801   3.529   7.424  14.190
85323SOL    HW157802   3.610   7.437  14.240
85323SOL    HW257803   3.542   7.475  14.110
85324SOL     OW57804  12.092  10.026   1.909
85324SOL    HW157805  12.059   9.982   1.830
85324SOL    HW257806  12.082  10.119   1.890
85325SOL     OW57807   2.730   5.244   9.845
85325SOL    HW157808   2.696   5.177   9.904
85325SOL    HW257809   2.669   5.244   9.771
85326SOL     OW57810   5.170   1.225   6.505
85326SOL    HW157811   5.107   1.223   6.577
85326SOL    HW257812   5.161   1.140   6.463
85327SOL     OW57813  10.436   6.869  12.032
85327SOL    HW157814  10.422   6.962  12.011
85327SOL    HW257815  10.418   6.824  11.950
85328SOL     OW57816   5.299  13.369  12.311
85328SOL    HW157817   5.333  13.420  12.385
85328SOL    HW257818   5.376  13.350  12.258
85329SOL     OW57819   2.354  10.683   0.979
85329SOL    HW157820   2.305  10.761   1.006
85329SOL    HW257821   2.433  10.685   1.033
85330SOL     OW57822  10.911  12.325  13.772
85330SOL    HW157823  10.861  12.399  13.738
85330SOL    HW257824  10.999  12.361  13.788
85331SOL     OW57825   2.534  13.679   7.084
85331SOL    HW157826   2.565  13.681   7.175
85331SOL    HW257827   2.522  13.586   7.065
85332SOL     OW57828   0.515   7.024   7.987
85332SOL    HW157829   0.570   7.099   8.012
85332SOL    HW257830   0.480   7.048   7.901
85333SOL     OW57831   9.460  14.174  10.230
85333SOL    HW157832   9.494  14.113  10.295
85333SOL    HW257833   9.522  14.247  10.231
85334SOL     OW57834   7.799  13.390   1.574
85334SOL    HW157835   7.871  13.393   1.638
85334SOL    HW257836   7.838  13.421   1.492
85335SOL     OW57837  11.885   4.812   0.382
85335SOL    HW157838  11.912   4.747   0.317
85335SOL    HW257839  11.873   4.762   0.463
85336SOL     OW57840   5.736   5.428   0.976
85336SOL    HW157841   5.826   5.461   0.971
85336SOL    HW257842   5.746   5.335   0.997
85337SOL     OW57843   5.391   6.424   6.789
85337SOL    HW157844   5.407   6.358   6.857
85337SOL    HW257845   5.470   6.421   6.734
85338SOL     OW57846   7.194   7.511   5.837
85338SOL    HW157847   7.184   7.453   5.762
85338SOL    HW257848   7.119   7.572   5.830
85339SOL     OW57849   3.524  14.395   0.871
85339SOL    HW157850   3.494  14.332   0.805
85339SOL    HW257851   3.612  14.419   0.843
85340SOL     OW57852  11.917   9.349   6.945
85340SOL    HW157853  11.847   9.386   6.998
85340SOL    HW257854  11.875   9.282   6.892
85341SOL     OW57855   9.387   3.990   5.372
85341SOL    HW157856   9.301   4.000   5.415
85341SOL    HW257857   9.425   3.912   5.412
85342SOL     OW57858  14.874   8.328   0.128
85342SOL    HW157859  14.858   8.233   0.123
85342SOL    HW257860  14.789   8.365   0.149
85343SOL     OW57861   7.518   0.577  14.093
85343SOL    HW157862   7.478   0.563  14.178
85343SOL    HW257863   7.611   0.589  14.112
85344SOL     OW57864   8.040  10.752   0.023
85344SOL    HW157865   8.134  10.768   0.026
85344SOL    HW257866   8.030  10.660   0.047
85345SOL     OW57867  14.349  13.661  14.084
85345SOL    HW157868  14.382  13.661  13.995
85345SOL    HW257869  14.256  13.682  14.075
85346SOL     OW57870   0.900  13.268   2.955
85346SOL    HW157871   0.827  13.221   2.995
85346SOL    HW257872   0.977  13.215   2.975
85347SOL     OW57873   2.759   8.256   6.222
85347SOL    HW157874   2.855   8.252   6.227
85347SOL    HW257875   2.741   8.347   6.199
85348SOL     OW57876   8.717  14.034   2.097
85348SOL    HW157877   8.757  13.962   2.146
85348SOL    HW257878   8.779  14.106   2.104
85349SOL     OW57879   3.437  13.487   1.126
85349SOL    HW157880   3.347  13.492   1.091
85349SOL    HW257881   3.476  13.413   1.080
85350SOL     OW57882   0.461   4.767  10.252
85350SOL    HW157883   0.518   4.723  10.189
85350SOL    HW257884   0.422   4.839  10.202
85351SOL     OW57885   1.750  14.472   9.388
85351SOL    HW157886   1.719  14.450   9.476
85351SOL    HW257887   1.829  14.419   9.376
85352SOL     OW57888  11.337   6.318   4.265
85352SOL    HW157889  11.277   6.275   4.205
85352SOL    HW257890  11.418   6.328   4.215
85353SOL     OW57891   4.016   1.007   9.751
85353SOL    HW157892   4.023   0.919   9.715
85353SOL    HW257893   4.072   1.061   9.696
85354SOL     OW57894   2.020  12.043   5.516
85354SOL    HW157895   1.999  12.100   5.590
85354SOL    HW257896   2.067  12.100   5.455
85355SOL     OW57897   3.654   0.495   8.999
85355SOL    HW157898   3.673   0.429   8.933
85355SOL    HW257899   3.738   0.537   9.016
85356SOL     OW57900   1.588   2.630   7.688
85356SOL    HW157901   1.661   2.626   7.626
85356SOL    HW257902   1.626   2.599   7.771
85357SOL     OW57903  13.718  10.953   1.404
85357SOL    HW157904  13.666  11.033   1.394
85357SOL    HW257905  13.746  10.931   1.315
85358SOL     OW57906  13.946  12.629   5.186
85358SOL    HW157907  13.994  12.692   5.239
85358SOL    HW257908  13.966  12.544   5.225
85359SOL     OW57909   2.988   1.647  11.725
85359SOL    HW157910   2.922   1.647  11.656
85359SOL    HW257911   3.005   1.555  11.743
85360SOL     OW57912  12.565   5.947   6.143
85360SOL    HW157913  12.535   6.003   6.214
85360SOL    HW257914  12.505   5.872   6.145
85361SOL     OW57915   9.141   4.585   0.658
85361SOL    HW157916   9.083   4.630   0.596
85361SOL    HW257917   9.091   4.508   0.687
85362SOL     OW57918   1.028   5.867   6.552
85362SOL    HW157919   1.005   5.915   6.631
85362SOL    HW257920   0.955   5.884   6.492
85363SOL     OW57921   0.477  14.281   3.257
85363SOL    HW157922   0.391  14.261   3.221
85363SOL    HW257923   0.510  14.352   3.201
85364SOL     OW57924   3.330   0.565   9.778
85364SOL    HW157925   3.322   0.496   9.844
85364SOL    HW257926   3.401   0.620   9.809
85365SOL     OW57927  13.068   8.584  12.950
85365SOL    HW157928  12.985   8.572  12.903
85365SOL    HW257929  13.044   8.573  13.042
85366SOL     OW57930  13.988   8.629  10.983
85366SOL    HW157931  14.033   8.550  11.015
85366SOL    HW257932  14.039   8.701  11.019
85367SOL     OW57933   0.913   4.555   2.002
85367SOL    HW157934   0.844   4.516   2.057
85367SOL    HW257935   0.867   4.615   1.944
85368SOL     OW57936  14.377  11.428  10.325
85368SOL    HW157937  14.344  11.401  10.239
85368SOL    HW257938  14.375  11.347  10.378
85369SOL     OW57939   5.052   9.067  12.185
85369SOL    HW157940   4.964   9.065  12.222
85369SOL    HW257941   5.041   9.101  12.097
85370SOL     OW57942   0.319   4.744  14.398
85370SOL    HW157943   0.385   4.780  14.456
85370SOL    HW257944   0.364   4.734  14.314
85371SOL     OW57945  12.955   9.902  11.318
85371SOL    HW157946  12.894   9.974  11.301
85371SOL    HW257947  13.014   9.936  11.385
85372SOL     OW57948  10.735   6.204   3.663
85372SOL    HW157949  10.715   6.146   3.737
85372SOL    HW257950  10.685   6.167   3.590
85373SOL     OW57951   5.790   9.473  11.863
85373SOL    HW157952   5.771   9.415  11.789
85373SOL    HW257953   5.871   9.518  11.838
85374SOL     OW57954   9.906   3.302   1.842
85374SOL    HW157955   9.983   3.262   1.883
85374SOL    HW257956   9.858   3.342   1.914
85375SOL     OW57957  13.346   9.926   4.576
85375SOL    HW157958  13.319   9.898   4.664
85375SOL    HW257959  13.301   9.865   4.517
85376SOL     OW57960   8.334  13.015   7.812
85376SOL    HW157961   8.384  13.047   7.887
85376SOL    HW257962   8.296  12.932   7.842
85377SOL     OW57963   3.178   0.258  10.044
85377SOL    HW157964   3.245   0.193  10.024
85377SOL    HW257965   3.097   0.208  10.050
85378SOL     OW57966   7.355   5.577   5.327
85378SOL    HW157967   7.334   5.528   5.247
85378SOL    HW257968   7.327   5.519   5.398
85379SOL     OW57969  14.099   3.876   0.815
85379SOL    HW157970  14.067   3.945   0.872
85379SOL    HW257971  14.125   3.805   0.874
85380SOL     OW57972   1.260   7.544   2.728
85380SOL    HW157973   1.233   7.467   2.678
85380SOL    HW257974   1.199   7.547   2.802
85381SOL     OW57975   1.271   9.947  11.338
85381SOL    HW157976   1.249   9.895  11.260
85381SOL    HW257977   1.267  10.038  11.309
85382SOL     OW57978   8.224  12.801   6.573
85382SOL    HW157979   8.131  12.783   6.590
85382SOL    HW257980   8.271  12.740   6.630
85383SOL     OW57981  11.791  10.179   3.325
85383SOL    HW157982  11.789  10.242   3.398
85383SOL    HW257983  11.859  10.213   3.267
85384SOL     OW57984   0.665   8.655   0.016
85384SOL    HW157985   0.655   8.748  14.872
85384SOL    HW257986   0.756   8.635  14.872
85385SOL     OW57987  14.667  11.428  12.480
85385SOL    HW157988  14.728  11.500  12.495
85385SOL    HW257989  14.640  11.400  12.568
85386SOL     OW57990  12.108   8.308   8.434
85386SOL    HW157991  12.098   8.346   8.347
85386SOL    HW257992  12.117   8.383   8.493
85387SOL     OW57993  11.131  10.164   9.426
85387SOL    HW157994  11.143  10.081   9.472
85387SOL    HW257995  11.069  10.213   9.480
85388SOL     OW57996  11.873  10.486   4.656
85388SOL    HW157997  11.874  10.534   4.739
85388SOL    HW257998  11.883  10.554   4.590
85389SOL     OW57999  13.304  12.763   1.426
85389SOL    HW158000  13.244  12.691   1.445
85389SOL    HW258001  13.360  12.769   1.503
85390SOL     OW58002   7.181   4.614   5.493
85390SOL    HW158003   7.273   4.613   5.466
85390SOL    HW258004   7.172   4.539   5.551
85391SOL     OW58005   1.538   3.015   6.181
85391SOL    HW158006   1.592   3.078   6.134
85391SOL    HW258007   1.515   2.949   6.116
85392SOL     OW58008   4.289   4.508   0.280
85392SOL    HW158009   4.277   4.529   0.373
85392SOL    HW258010   4.272   4.414   0.275
85393SOL     OW58011   4.512   1.190   7.475
85393SOL    HW158012   4.518   1.282   7.450
85393SOL    HW258013   4.514   1.143   7.392
85394SOL     OW58014   3.829  10.038  13.754
85394SOL    HW158015   3.839  10.055  13.660
85394SOL    HW258016   3.849   9.945  13.764
85395SOL     OW58017   2.310  10.487   1.321
85395SOL    HW158018   2.278  10.406   1.283
85395SOL    HW258019   2.378  10.517   1.260
85396SOL     OW58020  14.499   9.718  10.620
85396SOL    HW158021  14.577   9.677  10.658
85396SOL    HW258022  14.531   9.801  10.584
85397SOL     OW58023   9.618  12.376   1.666
85397SOL    HW158024   9.612  12.472   1.666
85397SOL    HW258025   9.560  12.349   1.738
85398SOL     OW58026  12.789   1.260   2.037
85398SOL    HW158027  12.873   1.295   2.009
85398SOL    HW258028  12.749   1.331   2.088
85399SOL     OW58029   5.072  13.079   4.003
85399SOL    HW158030   5.012  13.072   4.077
85399SOL    HW258031   5.127  13.154   4.024
85400SOL     OW58032  13.262   3.445   5.840
85400SOL    HW158033  13.205   3.502   5.789
85400SOL    HW258034  13.323   3.505   5.883
85401SOL     OW58035   3.209  14.257   3.713
85401SOL    HW158036   3.267  14.230   3.642
85401SOL    HW258037   3.133  14.199   3.706
85402SOL     OW58038  11.358   3.435  11.945
85402SOL    HW158039  11.322   3.510  11.992
85402SOL    HW258040  11.390   3.471  11.863
85403SOL     OW58041   0.520  10.632  14.109
85403SOL    HW158042   0.541  10.715  14.151
85403SOL    HW258043   0.583  10.626  14.037
85404SOL     OW58044  14.041  12.623   9.758
85404SOL    HW158045  14.076  12.538   9.732
85404SOL    HW258046  14.117  12.675   9.782
85405SOL     OW58047   3.411   1.641  13.132
85405SOL    HW158048   3.456   1.619  13.051
85405SOL    HW258049   3.319   1.617  13.116
85406SOL     OW58050   2.234   1.146   8.736
85406SOL    HW158051   2.197   1.061   8.760
85406SOL    HW258052   2.300   1.164   8.803
85407SOL     OW58053   1.674   9.673   6.050
85407SOL    HW158054   1.707   9.621   6.123
85407SOL    HW258055   1.597   9.625   6.018
85408SOL     OW58056  13.618   0.023  12.656
85408SOL    HW158057  13.524   0.029  12.670
85408SOL    HW258058  13.641   0.105  12.613
85409SOL     OW58059   7.082   6.704   6.373
85409SOL    HW158060   7.162   6.754   6.388
85409SOL    HW258061   7.082   6.687   6.279
85410SOL     OW58062  10.716   9.151   5.549
85410SOL    HW158063  10.761   9.200   5.618
85410SOL    HW258064  10.787   9.116   5.494
85411SOL     OW58065   3.459   9.495  14.210
85411SOL    HW158066   3.513   9.457  14.141
85411SOL    HW258067   3.376   9.449  14.204
85412SOL     OW58068  11.343  12.618  11.297
85412SOL    HW158069  11.386  12.703  11.294
85412SOL    HW258070  11.398  12.564  11.355
85413SOL     OW58071   3.844  13.843   2.094
85413SOL    HW158072   3.771  13.781   2.090
85413SOL    HW258073   3.804  13.925   2.121
85414SOL     OW58074  11.656  11.747   0.128
85414SOL    HW158075  11.721  11.786   0.187
85414SOL    HW258076  11.626  11.669   0.175
85415SOL     OW58077  10.550   9.869   2.686
85415SOL    HW158078  10.476   9.809   2.681
85415SOL    HW258079  10.525   9.933   2.753
85416SOL     OW58080  12.749  11.522   4.213
85416SOL    HW158081  12.725  11.496   4.124
85416SOL    HW258082  12.844  11.517   4.215
85417SOL     OW58083   1.107   4.836  14.626
85417SOL    HW158084   1.111   4.929  14.647
85417SOL    HW258085   1.047   4.799  14.691
85418SOL     OW58086   8.673  10.208  12.723
85418SOL    HW158087   8.645  10.156  12.799
85418SOL    HW258088   8.762  10.238  12.747
85419SOL     OW58089   7.761  14.110  13.083
85419SOL    HW158090   7.697  14.129  13.014
85419SOL    HW258091   7.740  14.022  13.112
85420SOL     OW58092   7.025   9.225  10.914
85420SOL    HW158093   7.109   9.206  10.875
85420SOL    HW258094   6.966   9.158  10.880
85421SOL     OW58095  12.573  10.833  14.533
85421SOL    HW158096  12.619  10.750  14.549
85421SOL    HW258097  12.639  10.900  14.550
85422SOL     OW58098  10.748   0.571  12.199
85422SOL    HW158099  10.695   0.626  12.142
85422SOL    HW258100  10.691   0.552  12.274
85423SOL     OW58101  11.844  10.399   8.782
85423SOL    HW158102  11.824  10.337   8.712
85423SOL    HW258103  11.768  10.458   8.783
85424SOL     OW58104   2.959   0.735  11.621
85424SOL    HW158105   2.955   0.640  11.624
85424SOL    HW258106   2.910   0.759  11.543
85425SOL     OW58107   2.622  11.517   8.405
85425SOL    HW158108   2.529  11.517   8.427
85425SOL    HW258109   2.656  11.598   8.443
85426SOL     OW58110  14.439  10.310  11.221
85426SOL    HW158111  14.412  10.327  11.311
85426SOL    HW258112  14.406  10.385  11.172
85427SOL     OW58113   7.597   9.829  14.843
85427SOL    HW158114   7.552   9.767   0.020
85427SOL    HW258115   7.685   9.837   0.002
85428SOL     OW58116   7.818   5.850  11.480
85428SOL    HW158117   7.870   5.930  11.489
85428SOL    HW258118   7.880   5.783  11.451
85429SOL     OW58119   6.229   1.683  10.504
85429SOL    HW158120   6.247   1.673  10.597
85429SOL    HW258121   6.134   1.696  10.500
85430SOL     OW58122   2.335   7.242   3.851
85430SOL    HW158123   2.312   7.157   3.812
85430SOL    HW258124   2.265   7.259   3.913
85431SOL     OW58125  11.986   4.473   7.774
85431SOL    HW158126  11.981   4.398   7.833
85431SOL    HW258127  12.039   4.537   7.820
85432SOL     OW58128   4.023   1.565   4.144
85432SOL    HW158129   4.064   1.614   4.215
85432SOL    HW258130   3.963   1.505   4.189
85433SOL     OW58131   7.559   2.974   0.145
85433SOL    HW158132   7.644   2.941   0.116
85433SOL    HW258133   7.546   2.935   0.231
85434SOL     OW58134   9.623  11.330   7.380
85434SOL    HW158135   9.558  11.348   7.448
85434SOL    HW258136   9.664  11.414   7.363
85435SOL     OW58137   6.435   1.224  12.387
85435SOL    HW158138   6.462   1.283  12.457
85435SOL    HW258139   6.512   1.171  12.369
85436SOL     OW58140   5.953  11.215   3.407
85436SOL    HW158141   5.857  11.221   3.400
85436SOL    HW258142   5.971  11.122   3.393
85437SOL     OW58143   6.151   9.885   9.430
85437SOL    HW158144   6.082   9.900   9.366
85437SOL    HW258145   6.214   9.956   9.415
85438SOL     OW58146  13.351   8.346   2.913
85438SOL    HW158147  13.415   8.415   2.895
85438SOL    HW258148  13.382   8.271   2.862
85439SOL     OW58149  11.259   8.811   7.973
85439SOL    HW158150  11.207   8.730   7.978
85439SOL    HW258151  11.347   8.785   7.999
85440SOL     OW58152   0.597   5.117  10.977
85440SOL    HW158153   0.505   5.123  11.005
85440SOL    HW258154   0.601   5.173  10.900
85441SOL     OW58155   7.651   6.009  13.645
85441SOL    HW158156   7.607   5.976  13.723
85441SOL    HW258157   7.581   6.022  13.581
85442SOL     OW58158   0.949   4.057   5.846
85442SOL    HW158159   1.015   3.995   5.876
85442SOL    HW258160   0.998   4.136   5.825
85443SOL     OW58161   8.135   1.419   8.463
85443SOL    HW158162   8.097   1.340   8.425
85443SOL    HW258163   8.172   1.389   8.546
85444SOL     OW58164   2.366   3.681   2.026
85444SOL    HW158165   2.436   3.746   2.028
85444SOL    HW258166   2.408   3.599   2.050
85445SOL     OW58167   2.461   2.875  10.506
85445SOL    HW158168   2.366   2.874  10.516
85445SOL    HW258169   2.479   2.810  10.438
85446SOL     OW58170   0.027   9.575   1.956
85446SOL    HW158171  14.866   9.539   1.876
85446SOL    HW258172   0.117   9.545   1.954
85447SOL     OW58173   3.390   0.198  13.639
85447SOL    HW158174   3.404   0.257  13.564
85447SOL    HW258175   3.332   0.130  13.605
85448SOL     OW58176   1.374   2.641  13.112
85448SOL    HW158177   1.290   2.682  13.135
85448SOL    HW258178   1.391   2.668  13.022
85449SOL     OW58179  10.737  12.644   9.517
85449SOL    HW158180  10.799  12.599   9.574
85449SOL    HW258181  10.668  12.675   9.576
85450SOL     OW58182  13.955   7.662  13.160
85450SOL    HW158183  13.914   7.649  13.246
85450SOL    HW258184  14.032   7.605  13.162
85451SOL     OW58185   9.512  10.717   6.866
85451SOL    HW158186   9.439  10.673   6.822
85451SOL    HW258187   9.474  10.752   6.946
85452SOL     OW58188  13.413   0.277   9.424
85452SOL    HW158189  13.331   0.227   9.421
85452SOL    HW258190  13.451   0.256   9.510
85453SOL     OW58191   8.078   4.321   7.854
85453SOL    HW158192   8.142   4.386   7.825
85453SOL    HW258193   8.014   4.317   7.783
85454SOL     OW58194  12.483   0.667   8.385
85454SOL    HW158195  12.460   0.624   8.303
85454SOL    HW258196  12.400   0.701   8.419
85455SOL     OW58197   9.271  14.792   6.894
85455SOL    HW158198   9.177  14.780   6.880
85455SOL    HW258199   9.311  14.709   6.866
85456SOL     OW58200   2.193   0.638   7.378
85456SOL    HW158201   2.144   0.557   7.363
85456SOL    HW258202   2.273   0.609   7.422
85457SOL     OW58203  11.159   9.817   9.965
85457SOL    HW158204  11.085   9.860  10.009
85457SOL    HW258205  11.122   9.735   9.932
85458SOL     OW58206   4.872   5.221  14.236
85458SOL    HW158207   4.891   5.307  14.199
85458SOL    HW258208   4.794   5.235  14.291
85459SOL     OW58209   5.943   5.321   7.876
85459SOL    HW158210   5.985   5.249   7.829
85459SOL    HW258211   6.015   5.377   7.904
85460SOL     OW58212   1.572  14.290  10.572
85460SOL    HW158213   1.559  14.224  10.504
85460SOL    HW258214   1.538  14.371  10.533
85461SOL     OW58215   6.798  12.309   6.519
85461SOL    HW158216   6.831  12.279   6.604
85461SOL    HW258217   6.831  12.399   6.511
85462SOL     OW58218   0.685  13.231   6.500
85462SOL    HW158219   0.764  13.284   6.511
85462SOL    HW258220   0.626  13.262   6.569
85463SOL     OW58221  10.456   4.676  13.129
85463SOL    HW158222  10.490   4.765  13.136
85463SOL    HW258223  10.478   4.649  13.040
85464SOL     OW58224   7.873   6.309   5.793
85464SOL    HW158225   7.931   6.314   5.717
85464SOL    HW258226   7.872   6.398   5.827
85465SOL     OW58227   7.319  10.116  10.062
85465SOL    HW158228   7.259  10.190  10.069
85465SOL    HW258229   7.271  10.052  10.009
85466SOL     OW58230   7.802  14.042   5.812
85466SOL    HW158231   7.892  14.042   5.780
85466SOL    HW258232   7.761  14.118   5.770
85467SOL     OW58233   2.838   5.632  11.202
85467SOL    HW158234   2.915   5.673  11.163
85467SOL    HW258235   2.764   5.669  11.152
85468SOL     OW58236   3.408   3.226   2.544
85468SOL    HW158237   3.375   3.290   2.481
85468SOL    HW258238   3.487   3.268   2.580
85469SOL     OW58239  10.168   4.429  13.244
85469SOL    HW158240  10.209   4.343  13.238
85469SOL    HW258241  10.125   4.429  13.330
85470SOL     OW58242  13.612   9.995   3.059
85470SOL    HW158243  13.695  10.039   3.075
85470SOL    HW258244  13.602   9.996   2.964
85471SOL     OW58245   0.566   1.400   8.278
85471SOL    HW158246   0.575   1.305   8.287
85471SOL    HW258247   0.514   1.427   8.354
85472SOL     OW58248  14.087   6.704  10.595
85472SOL    HW158249  14.005   6.727  10.552
85472SOL    HW258250  14.078   6.740  10.683
85473SOL     OW58251   4.516  10.441  13.528
85473SOL    HW158252   4.540  10.355  13.492
85473SOL    HW258253   4.598  10.473  13.567
85474SOL     OW58254   3.802  10.135  11.070
85474SOL    HW158255   3.818  10.226  11.096
85474SOL    HW258256   3.789  10.089  11.153
85475SOL     OW58257  12.978   0.168   7.848
85475SOL    HW158258  13.057   0.209   7.814
85475SOL    HW258259  12.918   0.167   7.774
85476SOL     OW58260   9.969  14.462   8.544
85476SOL    HW158261   9.902  14.515   8.501
85476SOL    HW258262   9.920  14.412   8.610
85477SOL     OW58263  10.967   6.323   3.563
85477SOL    HW158264  10.873   6.343   3.569
85477SOL    HW258265  10.971   6.230   3.545
85478SOL     OW58266  11.506  13.975  14.723
85478SOL    HW158267  11.597  13.948  14.715
85478SOL    HW258268  11.507  14.070  14.709
85479SOL     OW58269  11.550   9.483   9.091
85479SOL    HW158270  11.457   9.507   9.090
85479SOL    HW258271  11.550   9.388   9.107
85480SOL     OW58272  12.586   0.645   7.148
85480SOL    HW158273  12.508   0.674   7.196
85480SOL    HW258274  12.557   0.567   7.102
85481SOL     OW58275   8.637   1.158  13.904
85481SOL    HW158276   8.728   1.189  13.911
85481SOL    HW258277   8.627   1.097  13.977
85482SOL     OW58278  12.898   7.045  13.253
85482SOL    HW158279  12.936   7.034  13.166
85482SOL    HW258280  12.935   6.973  13.305
85483SOL     OW58281  13.825   8.877   9.603
85483SOL    HW158282  13.753   8.910   9.549
85483SOL    HW258283  13.903   8.886   9.548
85484SOL     OW58284  12.215  13.151   5.442
85484SOL    HW158285  12.284  13.086   5.427
85484SOL    HW258286  12.191  13.141   5.534
85485SOL     OW58287   8.491  12.693   9.216
85485SOL    HW158288   8.455  12.774   9.253
85485SOL    HW258289   8.461  12.624   9.275
85486SOL     OW58290  11.189   8.924  13.197
85486SOL    HW158291  11.233   9.005  13.173
85486SOL    HW258292  11.203   8.915  13.291
85487SOL     OW58293   8.708   8.275   9.136
85487SOL    HW158294   8.649   8.217   9.184
85487SOL    HW258295   8.669   8.362   9.144
85488SOL     OW58296   5.914   6.573  11.223
85488SOL    HW158297   5.942   6.524  11.145
85488SOL    HW258298   5.976   6.646  11.228
85489SOL     OW58299   6.182  14.347  11.445
85489SOL    HW158300   6.219  14.295  11.517
85489SOL    HW258301   6.239  14.327  11.371
85490SOL     OW58302   8.054   2.853   1.134
85490SOL    HW158303   7.997   2.926   1.159
85490SOL    HW258304   7.996   2.789   1.094
85491SOL     OW58305   9.963   5.467   6.251
85491SOL    HW158306   9.959   5.554   6.291
85491SOL    HW258307  10.055   5.441   6.256
85492SOL     OW58308   0.683   9.879   0.715
85492SOL    HW158309   0.633   9.830   0.780
85492SOL    HW258310   0.774   9.862   0.735
85493SOL     OW58311  11.290  10.185   5.621
85493SOL    HW158312  11.382  10.163   5.634
85493SOL    HW258313  11.249  10.166   5.706
85494SOL     OW58314  13.577   0.805   9.236
85494SOL    HW158315  13.570   0.876   9.300
85494SOL    HW258316  13.506   0.823   9.173
85495SOL     OW58317   5.674   7.366   4.660
85495SOL    HW158318   5.745   7.352   4.723
85495SOL    HW258319   5.718   7.400   4.582
85496SOL     OW58320  10.771  12.237   3.141
85496SOL    HW158321  10.721  12.156   3.142
85496SOL    HW258322  10.761  12.273   3.230
85497SOL     OW58323   9.495   2.559   1.830
85497SOL    HW158324   9.401   2.561   1.813
85497SOL    HW258325   9.520   2.652   1.833
85498SOL     OW58326   5.167  12.977   8.487
85498SOL    HW158327   5.142  13.059   8.443
85498SOL    HW258328   5.089  12.953   8.537
85499SOL     OW58329   3.949   2.523   6.107
85499SOL    HW158330   4.001   2.446   6.088
85499SOL    HW258331   3.916   2.509   6.196
85500SOL     OW58332   5.642   6.103   3.693
85500SOL    HW158333   5.562   6.071   3.734
85500SOL    HW258334   5.633   6.079   3.601
85501SOL     OW58335   7.596  12.217   4.689
85501SOL    HW158336   7.550  12.215   4.773
85501SOL    HW258337   7.644  12.135   4.686
85502SOL     OW58338   7.710   5.870   0.222
85502SOL    HW158339   7.782   5.849   0.282
85502SOL    HW258340   7.684   5.786   0.185
85503SOL     OW58341  12.831   3.504   7.381
85503SOL    HW158342  12.868   3.530   7.297
85503SOL    HW258343  12.747   3.464   7.359
85504SOL     OW58344   7.063   1.521   4.916
85504SOL    HW158345   7.003   1.576   4.966
85504SOL    HW258346   7.068   1.562   4.829
85505SOL     OW58347  14.221   0.235  14.727
85505SOL    HW158348  14.277   0.312  14.721
85505SOL    HW258349  14.242   0.196  14.812
85506SOL     OW58350  11.276  12.164   0.829
85506SOL    HW158351  11.293  12.227   0.898
85506SOL    HW258352  11.334  12.190   0.757
85507SOL     OW58353   9.109   8.656  11.793
85507SOL    HW158354   9.116   8.581  11.734
85507SOL    HW258355   9.123   8.732  11.737
85508SOL     OW58356  12.687   5.101   4.655
85508SOL    HW158357  12.618   5.106   4.722
85508SOL    HW258358  12.655   5.035   4.593
85509SOL     OW58359   4.463   3.572   4.958
85509SOL    HW158360   4.468   3.555   5.052
85509SOL    HW258361   4.546   3.614   4.937
85510SOL     OW58362   7.647   9.904   5.153
85510SOL    HW158363   7.662   9.873   5.063
85510SOL    HW258364   7.585   9.841   5.190
85511SOL     OW58365  12.363  13.936   9.000
85511SOL    HW158366  12.451  13.930   9.038
85511SOL    HW258367  12.315  13.865   9.041
85512SOL     OW58368   2.199   6.768  12.640
85512SOL    HW158369   2.113   6.760  12.683
85512SOL    HW258370   2.247   6.829  12.696
85513SOL     OW58371  10.379   7.513  12.228
85513SOL    HW158372  10.391   7.420  12.247
85513SOL    HW258373  10.363   7.516  12.134
85514SOL     OW58374   1.374   5.844   0.172
85514SOL    HW158375   1.443   5.808   0.116
85514SOL    HW258376   1.336   5.768   0.216
85515SOL     OW58377   9.293   6.034  10.160
85515SOL    HW158378   9.333   6.039  10.247
85515SOL    HW258379   9.207   6.074  10.171
85516SOL     OW58380  14.521   5.388   4.123
85516SOL    HW158381  14.495   5.398   4.031
85516SOL    HW258382  14.454   5.435   4.172
85517SOL     OW58383   1.193   6.529  14.833
85517SOL    HW158384   1.183   6.521   0.049
85517SOL    HW258385   1.286   6.545  14.820
85518SOL     OW58386   4.446   1.533  10.596
85518SOL    HW158387   4.478   1.492  10.516
85518SOL    HW258388   4.521   1.581  10.630
85519SOL     OW58389  14.403  12.374   2.266
85519SOL    HW158390  14.436  12.287   2.288
85519SOL    HW258391  14.419  12.384   2.172
85520SOL     OW58392  10.484   1.735  13.231
85520SOL    HW158393  10.447   1.647  13.220
85520SOL    HW258394  10.560   1.721  13.288
85521SOL     OW58395   4.633   9.288  10.037
85521SOL    HW158396   4.597   9.343  10.107
85521SOL    HW258397   4.569   9.219  10.025
85522SOL     OW58398  10.144   6.986  12.127
85522SOL    HW158399  10.187   6.915  12.176
85522SOL    HW258400  10.200   7.000  12.051
85523SOL     OW58401   6.024   5.376   1.881
85523SOL    HW158402   6.056   5.418   1.961
85523SOL    HW258403   5.946   5.426   1.856
85524SOL     OW58404   5.314   9.784   3.411
85524SOL    HW158405   5.347   9.821   3.493
85524SOL    HW258406   5.390   9.784   3.353
85525SOL     OW58407   8.231  10.950   3.505
85525SOL    HW158408   8.300  10.983   3.448
85525SOL    HW258409   8.266  10.958   3.593
85526SOL     OW58410   2.802   2.776   4.348
85526SOL    HW158411   2.779   2.864   4.379
85526SOL    HW258412   2.886   2.786   4.304
85527SOL     OW58413   1.455   5.664   1.227
85527SOL    HW158414   1.417   5.577   1.212
85527SOL    HW258415   1.526   5.669   1.163
85528SOL     OW58416   7.874   0.028  10.990
85528SOL    HW158417   7.823   0.010  11.069
85528SOL    HW258418   7.920   0.110  11.009
85529SOL     OW58419   0.985  14.419  11.558
85529SOL    HW158420   1.027  14.343  11.518
85529SOL    HW258421   0.941  14.384  11.636
85530SOL     OW58422   6.796  10.756   3.923
85530SOL    HW158423   6.767  10.726   4.009
85530SOL    HW258424   6.721  10.740   3.866
85531SOL     OW58425   9.337  11.908  13.045
85531SOL    HW158426   9.363  11.817  13.030
85531SOL    HW258427   9.243  11.910  13.032
85532SOL     OW58428   2.012  10.870   3.984
85532SOL    HW158429   2.060  10.788   3.969
85532SOL    HW258430   2.079  10.938   3.978
85533SOL     OW58431   7.312   3.526  11.213
85533SOL    HW158432   7.356   3.604  11.246
85533SOL    HW258433   7.382   3.475  11.170
85534SOL     OW58434  14.208   2.960   5.596
85534SOL    HW158435  14.210   2.871   5.560
85534SOL    HW258436  14.251   3.013   5.530
85535SOL     OW58437  11.433   7.022   4.266
85535SOL    HW158438  11.377   6.960   4.312
85535SOL    HW258439  11.513   7.026   4.319
85536SOL     OW58440  13.242  12.083   1.674
85536SOL    HW158441  13.277  12.116   1.592
85536SOL    HW258442  13.285  11.998   1.685
85537SOL     OW58443   9.665   3.023   6.652
85537SOL    HW158444   9.673   2.930   6.674
85537SOL    HW258445   9.628   3.063   6.731
85538SOL     OW58446   5.844   3.206   2.227
85538SOL    HW158447   5.846   3.285   2.173
85538SOL    HW258448   5.935   3.176   2.228
85539SOL     OW58449   0.017   2.438  12.678
85539SOL    HW158450  14.825   2.478  12.627
85539SOL    HW258451   0.083   2.415  12.613
85540SOL     OW58452   3.051  12.004   4.850
85540SOL    HW158453   3.089  11.916   4.858
85540SOL    HW258454   2.987  12.009   4.921
85541SOL     OW58455   5.295   8.715  10.216
85541SOL    HW158456   5.269   8.638  10.165
85541SOL    HW258457   5.354   8.680  10.284
85542SOL     OW58458  11.889   4.667  13.427
85542SOL    HW158459  11.976   4.641  13.458
85542SOL    HW258460  11.889   4.763  13.433
85543SOL     OW58461   3.554  10.358   1.283
85543SOL    HW158462   3.601  10.417   1.341
85543SOL    HW258463   3.486  10.319   1.337
85544SOL     OW58464   5.814   0.511  12.402
85544SOL    HW158465   5.771   0.429  12.425
85544SOL    HW258466   5.743   0.568  12.372
85545SOL     OW58467   3.786  12.502   8.366
85545SOL    HW158468   3.706  12.510   8.418
85545SOL    HW258469   3.820  12.415   8.387
85546SOL     OW58470   1.623   1.845   4.140
85546SOL    HW158471   1.688   1.774   4.137
85546SOL    HW258472   1.653   1.901   4.212
85547SOL     OW58473   7.420   3.132   7.325
85547SOL    HW158474   7.464   3.066   7.378
85547SOL    HW258475   7.329   3.129   7.354
85548SOL     OW58476   8.061  14.196   7.720
85548SOL    HW158477   8.104  14.228   7.641
85548SOL    HW258478   8.088  14.104   7.726
85549SOL     OW58479   0.412   7.600   3.137
85549SOL    HW158480   0.464   7.521   3.119
85549SOL    HW258481   0.418   7.651   3.057
85550SOL     OW58482   3.539   8.187   7.350
85550SOL    HW158483   3.451   8.162   7.376
85550SOL    HW258484   3.546   8.158   7.259
85551SOL     OW58485  10.926   6.747   3.009
85551SOL    HW158486  10.937   6.652   3.017
85551SOL    HW258487  10.851   6.768   3.065
85552SOL     OW58488  11.250   0.527   1.372
85552SOL    HW158489  11.313   0.597   1.353
85552SOL    HW258490  11.171   0.573   1.401
85553SOL     OW58491   5.981   5.671   3.826
85553SOL    HW158492   6.007   5.684   3.917
85553SOL    HW258493   5.887   5.653   3.831
85554SOL     OW58494   8.854   5.336   4.829
85554SOL    HW158495   8.802   5.412   4.801
85554SOL    HW258496   8.940   5.350   4.790
85555SOL     OW58497  13.930   8.331   1.887
85555SOL    HW158498  13.898   8.270   1.821
85555SOL    HW258499  14.011   8.291   1.920
85556SOL     OW58500  14.786   2.191  11.353
85556SOL    HW158501  14.748   2.279  11.349
85556SOL    HW258502  14.878   2.204  11.329
85557SOL     OW58503   5.658   8.039  14.380
85557SOL    HW158504   5.752   8.038  14.397
85557SOL    HW258505   5.633   7.946  14.378
85558SOL     OW58506   4.021   1.630   3.384
85558SOL    HW158507   4.040   1.703   3.443
85558SOL    HW258508   3.933   1.601   3.408
85559SOL     OW58509  10.798   1.978  11.314
85559SOL    HW158510  10.777   1.927  11.236
85559SOL    HW258511  10.740   2.054  11.310
85560SOL     OW58512  11.571   8.811   6.814
85560SOL    HW158513  11.520   8.876   6.861
85560SOL    HW258514  11.514   8.784   6.742
85561SOL     OW58515   5.185  13.536  11.017
85561SOL    HW158516   5.179  13.511  10.924
85561SOL    HW258517   5.263  13.490  11.049
85562SOL     OW58518  12.792   6.815  12.256
85562SOL    HW158519  12.735   6.768  12.196
85562SOL    HW258520  12.735   6.877  12.301
85563SOL     OW58521   5.657   2.921  10.578
85563SOL    HW158522   5.562   2.921  10.590
85563SOL    HW258523   5.687   2.846  10.629
85564SOL     OW58524   9.096   8.830  11.253
85564SOL    HW158525   9.152   8.864  11.323
85564SOL    HW258526   9.097   8.736  11.265
85565SOL     OW58527  10.867   5.497   3.509
85565SOL    HW158528  10.941   5.460   3.462
85565SOL    HW258529  10.856   5.440   3.585
85566SOL     OW58530   9.186  11.867   2.074
85566SOL    HW158531   9.099  11.847   2.039
85566SOL    HW258532   9.231  11.783   2.074
85567SOL     OW58533  10.109   7.992   5.901
85567SOL    HW158534  10.107   8.084   5.875
85567SOL    HW258535  10.030   7.979   5.953
85568SOL     OW58536   7.606   2.878   9.088
85568SOL    HW158537   7.649   2.877   9.002
85568SOL    HW258538   7.512   2.874   9.068
85569SOL     OW58539  13.896   2.679  11.003
85569SOL    HW158540  13.940   2.760  10.976
85569SOL    HW258541  13.958   2.610  10.981
85570SOL     OW58542   6.553   8.084   9.042
85570SOL    HW158543   6.459   8.099   9.052
85570SOL    HW258544   6.566   7.993   9.066
85571SOL     OW58545   7.222   3.963  13.406
85571SOL    HW158546   7.172   3.907  13.466
85571SOL    HW258547   7.233   4.046  13.454
85572SOL     OW58548  11.877   5.380  12.199
85572SOL    HW158549  11.894   5.370  12.292
85572SOL    HW258550  11.787   5.349  12.188
85573SOL     OW58551   4.496   5.890  10.048
85573SOL    HW158552   4.574   5.842  10.074
85573SOL    HW258553   4.517   5.982  10.064
85574SOL     OW58554  10.884  13.711  12.962
85574SOL    HW158555  10.845  13.762  12.891
85574SOL    HW258556  10.910  13.777  13.027
85575SOL     OW58557  14.443  12.702   5.425
85575SOL    HW158558  14.464  12.608   5.423
85575SOL    HW258559  14.509  12.742   5.369
85576SOL     OW58560  12.497   4.343  13.472
85576SOL    HW158561  12.414   4.299  13.493
85576SOL    HW258562  12.547   4.341  13.554
85577SOL     OW58563   4.209   2.011   4.326
85577SOL    HW158564   4.293   2.057   4.321
85577SOL    HW258565   4.159   2.059   4.392
85578SOL     OW58566   8.354  11.529   7.996
85578SOL    HW158567   8.435  11.478   7.992
85578SOL    HW258568   8.285  11.464   8.003
85579SOL     OW58569   2.698  11.119   8.002
85579SOL    HW158570   2.606  11.144   7.993
85579SOL    HW258571   2.746  11.202   7.996
85580SOL     OW58572  12.969   3.478   5.074
85580SOL    HW158573  12.883   3.521   5.078
85580SOL    HW258574  13.031   3.546   5.099
85581SOL     OW58575   6.070   6.781  11.240
85581SOL    HW158576   6.007   6.852  11.225
85581SOL    HW258577   6.133   6.789  11.168
85582SOL     OW58578   6.373  14.666   7.896
85582SOL    HW158579   6.393  14.741   7.840
85582SOL    HW258580   6.375  14.590   7.837
85583SOL     OW58581   6.337   3.139   9.717
85583SOL    HW158582   6.395   3.176   9.650
85583SOL    HW258583   6.340   3.202   9.789
85584SOL     OW58584   4.293   5.267   9.195
85584SOL    HW158585   4.269   5.183   9.154
85584SOL    HW258586   4.388   5.263   9.205
85585SOL     OW58587   6.234  10.924   7.153
85585SOL    HW158588   6.281  10.896   7.231
85585SOL    HW258589   6.302  10.957   7.095
85586SOL     OW58590   6.482  11.326   3.940
85586SOL    HW158591   6.464  11.403   3.994
85586SOL    HW258592   6.576  11.315   3.945
85587SOL     OW58593   0.957   9.468  11.071
85587SOL    HW158594   0.878   9.416  11.082
85587SOL    HW258595   1.006   9.454  11.152
85588SOL     OW58596  11.048   1.190   6.915
85588SOL    HW158597  11.081   1.217   7.001
85588SOL    HW258598  11.052   1.270   6.862
85589SOL     OW58599  11.895   6.271  11.375
85589SOL    HW158600  11.874   6.179  11.359
85589SOL    HW258601  11.812   6.317  11.362
85590SOL     OW58602   9.983  13.638   6.309
85590SOL    HW158603  10.021  13.721   6.337
85590SOL    HW258604  10.055  13.593   6.264
85591SOL     OW58605  11.568   0.682  11.121
85591SOL    HW158606  11.595   0.770  11.144
85591SOL    HW258607  11.482   0.672  11.162
85592SOL     OW58608   6.239   2.858   2.525
85592SOL    HW158609   6.240   2.766   2.501
85592SOL    HW258610   6.279   2.861   2.612
85593SOL     OW58611  10.582   4.612   9.314
85593SOL    HW158612  10.590   4.652   9.400
85593SOL    HW258613  10.487   4.612   9.296
85594SOL     OW58614   0.779   8.948  13.235
85594SOL    HW158615   0.854   8.956  13.294
85594SOL    HW258616   0.719   9.017  13.263
85595SOL     OW58617   4.138   0.441   6.842
85595SOL    HW158618   4.085   0.362   6.854
85595SOL    HW258619   4.086   0.511   6.880
85596SOL     OW58620  13.144   3.840  12.682
85596SOL    HW158621  13.092   3.913  12.715
85596SOL    HW258622  13.231   3.877  12.666
85597SOL     OW58623   5.783  10.044   4.718
85597SOL    HW158624   5.695  10.046   4.755
85597SOL    HW258625   5.820   9.961   4.749
85598SOL     OW58626   1.929   0.003   5.546
85598SOL    HW158627   1.834   0.000   5.556
85598SOL    HW258628   1.955  14.790   5.545
85599SOL     OW58629   7.468   5.973   3.552
85599SOL    HW158630   7.511   5.899   3.509
85599SOL    HW258631   7.375   5.950   3.553
85600SOL     OW58632   1.881  14.312  14.801
85600SOL    HW158633   1.847  14.259  14.874
85600SOL    HW258634   1.814  14.378  14.786
85601SOL     OW58635   7.034   6.990   8.781
85601SOL    HW158636   7.096   6.947   8.840
85601SOL    HW258637   6.992   6.919   8.733
85602SOL     OW58638  12.934   4.358  12.602
85602SOL    HW158639  12.919   4.286  12.663
85602SOL    HW258640  12.891   4.434  12.642
85603SOL     OW58641   5.392   7.538  12.104
85603SOL    HW158642   5.351   7.620  12.133
85603SOL    HW258643   5.383   7.480  12.179
85604SOL     OW58644   5.916   9.754  12.831
85604SOL    HW158645   5.828   9.750  12.868
85604SOL    HW258646   5.966   9.690  12.881
85605SOL     OW58647  10.793   1.203   0.084
85605SOL    HW158648  10.759   1.198   0.173
85605SOL    HW258649  10.862   1.137   0.082
85606SOL     OW58650  10.684  13.095  11.689
85606SOL    HW158651  10.711  13.183  11.715
85606SOL    HW258652  10.765  13.044  11.688
85607SOL     OW58653  13.181   9.581  12.157
85607SOL    HW158654  13.126   9.539  12.223
85607SOL    HW258655  13.158   9.538  12.075
85608SOL     OW58656  10.223   0.061   9.573
85608SOL    HW158657  10.206   0.063   9.479
85608SOL    HW258658  10.144   0.098   9.612
85609SOL     OW58659  11.193   8.505   4.088
85609SOL    HW158660  11.192   8.578   4.026
85609SOL    HW258661  11.242   8.436   4.043
85610SOL     OW58662   7.468  13.404   1.450
85610SOL    HW158663   7.524  13.431   1.377
85610SOL    HW258664   7.424  13.325   1.418
85611SOL     OW58665   5.022   8.727   6.177
85611SOL    HW158666   5.017   8.822   6.191
85611SOL    HW258667   5.087   8.717   6.108
85612SOL     OW58668   8.636  13.462   9.134
85612SOL    HW158669   8.620  13.515   9.055
85612SOL    HW258670   8.676  13.523   9.196
85613SOL     OW58671   3.253   0.223   8.089
85613SOL    HW158672   3.179   0.230   8.149
85613SOL    HW258673   3.231   0.148   8.033
85614SOL     OW58674  12.521  13.846   0.995
85614SOL    HW158675  12.592  13.809   0.943
85614SOL    HW258676  12.480  13.912   0.938
85615SOL     OW58677   4.411   4.722   4.247
85615SOL    HW158678   4.320   4.741   4.225
85615SOL    HW258679   4.413   4.717   4.342
85616SOL     OW58680   1.782  10.928   3.813
85616SOL    HW158681   1.764  11.017   3.841
85616SOL    HW258682   1.854  10.899   3.870
85617SOL     OW58683   1.079  11.669   4.055
85617SOL    HW158684   1.017  11.704   4.120
85617SOL    HW258685   1.110  11.587   4.092
85618SOL     OW58686  10.744  11.532   7.050
85618SOL    HW158687  10.696  11.559   6.972
85618SOL    HW258688  10.836  11.536   7.025
85619SOL     OW58689   8.255  14.547   2.190
85619SOL    HW158690   8.313  14.573   2.118
85619SOL    HW258691   8.252  14.451   2.184
85620SOL     OW58692   5.813   7.279  12.739
85620SOL    HW158693   5.734   7.225  12.732
85620SOL    HW258694   5.875   7.238  12.678
85621SOL     OW58695   1.371   3.364   3.328
85621SOL    HW158696   1.308   3.328   3.266
85621SOL    HW258697   1.456   3.355   3.283
85622SOL     OW58698  10.831  11.956  13.048
85622SOL    HW158699  10.751  11.904  13.036
85622SOL    HW258700  10.816  12.004  13.130
85623SOL     OW58701   2.544  13.954   8.656
85623SOL    HW158702   2.611  13.953   8.725
85623SOL    HW258703   2.462  13.968   8.703
85624SOL     OW58704   8.116   1.102   3.878
85624SOL    HW158705   8.205   1.133   3.892
85624SOL    HW258706   8.127   1.010   3.851
85625SOL     OW58707   3.529  11.391   4.346
85625SOL    HW158708   3.532  11.415   4.253
85625SOL    HW258709   3.436  11.391   4.368
85626SOL     OW58710   7.924   6.192   2.370
85626SOL    HW158711   7.908   6.220   2.280
85626SOL    HW258712   8.019   6.194   2.380
85627SOL     OW58713   1.117  13.128   3.719
85627SOL    HW158714   1.112  13.136   3.814
85627SOL    HW258715   1.130  13.218   3.688
85628SOL     OW58716  13.558   4.516   5.365
85628SOL    HW158717  13.546   4.591   5.306
85628SOL    HW258718  13.471   4.496   5.397
85629SOL     OW58719  13.067   8.022   4.353
85629SOL    HW158720  12.976   7.994   4.345
85629SOL    HW258721  13.085   8.019   4.447
85630SOL     OW58722   0.750  13.651   4.702
85630SOL    HW158723   0.742  13.557   4.721
85630SOL    HW258724   0.765  13.691   4.788
85631SOL     OW58725  12.837  11.681   9.551
85631SOL    HW158726  12.771  11.635   9.499
85631SOL    HW258727  12.885  11.612   9.596
85632SOL     OW58728   3.398  11.249   3.860
85632SOL    HW158729   3.418  11.248   3.766
85632SOL    HW258730   3.310  11.212   3.866
85633SOL     OW58731   1.907   3.426   1.853
85633SOL    HW158732   1.883   3.390   1.938
85633SOL    HW258733   1.840   3.394   1.793
85634SOL     OW58734  10.182   4.389  12.209
85634SOL    HW158735  10.206   4.463  12.264
85634SOL    HW258736  10.257   4.377  12.151
85635SOL     OW58737  10.643  11.631   0.911
85635SOL    HW158738  10.724  11.682   0.899
85635SOL    HW258739  10.644  11.607   1.004
85636SOL     OW58740   4.807   6.309   7.416
85636SOL    HW158741   4.863   6.247   7.368
85636SOL    HW258742   4.867   6.379   7.443
85637SOL     OW58743   7.664   7.504   6.008
85637SOL    HW158744   7.604   7.576   5.987
85637SOL    HW258745   7.708   7.532   6.088
85638SOL     OW58746  13.118   8.565   8.325
85638SOL    HW158747  13.106   8.512   8.403
85638SOL    HW258748  13.138   8.503   8.256
85639SOL     OW58749   0.770  12.227  13.476
85639SOL    HW158750   0.811  12.268  13.552
85639SOL    HW258751   0.685  12.270  13.468
85640SOL     OW58752  11.958  10.303  10.300
85640SOL    HW158753  11.962  10.208  10.313
85640SOL    HW258754  11.870  10.319  10.267
85641SOL     OW58755   0.103  14.556  11.424
85641SOL    HW158756   0.132  14.480  11.474
85641SOL    HW258757   0.074  14.520  11.340
85642SOL     OW58758  14.204   4.090  14.171
85642SOL    HW158759  14.136   4.031  14.203
85642SOL    HW258760  14.168   4.178  14.183
85643SOL     OW58761  10.873  10.349   8.358
85643SOL    HW158762  10.930  10.417   8.323
85643SOL    HW258763  10.797  10.397   8.390
85644SOL     OW58764  13.876  14.627   9.001
85644SOL    HW158765  13.930  14.560   9.042
85644SOL    HW258766  13.874  14.603   8.909
85645SOL     OW58767   0.432   6.086   3.621
85645SOL    HW158768   0.477   6.002   3.617
85645SOL    HW258769   0.343   6.067   3.589
85646SOL     OW58770   8.570   1.785   6.160
85646SOL    HW158771   8.634   1.852   6.183
85646SOL    HW258772   8.491   1.833   6.137
85647SOL     OW58773   0.027   3.016   8.067
85647SOL    HW158774   0.002   2.954   7.999
85647SOL    HW258775  14.823   3.043   8.106
85648SOL     OW58776   6.432   9.603  14.036
85648SOL    HW158777   6.398   9.528  13.988
85648SOL    HW258778   6.444   9.671  13.969
85649SOL     OW58779   7.294   8.411  13.382
85649SOL    HW158780   7.206   8.413  13.345
85649SOL    HW258781   7.291   8.342  13.448
85650SOL     OW58782   0.541  11.293   0.044
85650SOL    HW158783   0.596  11.286   0.123
85650SOL    HW258784   0.452  11.306   0.078
85651SOL     OW58785   6.052  11.100   4.684
85651SOL    HW158786   6.033  11.157   4.759
85651SOL    HW258787   6.073  11.015   4.723
85652SOL     OW58788  10.419   3.648   4.364
85652SOL    HW158789  10.471   3.596   4.426
85652SOL    HW258790  10.367   3.583   4.317
85653SOL     OW58791  13.231  12.279   6.621
85653SOL    HW158792  13.200  12.288   6.531
85653SOL    HW258793  13.272  12.193   6.625
85654SOL     OW58794  13.983   9.439   6.823
85654SOL    HW158795  13.943   9.357   6.795
85654SOL    HW258796  13.913   9.504   6.816
85655SOL     OW58797   9.922   5.778   6.318
85655SOL    HW158798   9.843   5.803   6.269
85655SOL    HW258799   9.920   5.834   6.396
85656SOL     OW58800   9.297  11.997   0.881
85656SOL    HW158801   9.308  12.089   0.907
85656SOL    HW258802   9.385  11.959   0.889
85657SOL     OW58803   9.817   1.756  10.115
85657SOL    HW158804   9.866   1.760  10.034
85657SOL    HW258805   9.850   1.677  10.159
85658SOL     OW58806  14.781  12.389   4.239
85658SOL    HW158807  14.689  12.408   4.223
85658SOL    HW258808  14.812  12.464   4.291
85659SOL     OW58809   4.373  10.056  11.782
85659SOL    HW158810   4.402  10.080  11.870
85659SOL    HW258811   4.299   9.997  11.796
85660SOL     OW58812   5.530   6.679  14.360
85660SOL    HW158813   5.517   6.749  14.295
85660SOL    HW258814   5.625   6.679  14.376
85661SOL     OW58815   4.819   9.851   9.680
85661SOL    HW158816   4.802   9.877   9.589
85661SOL    HW258817   4.799   9.757   9.682
85662SOL     OW58818   3.284   6.811   7.137
85662SOL    HW158819   3.295   6.901   7.104
85662SOL    HW258820   3.368   6.769   7.121
85663SOL     OW58821   0.411   8.846  11.799
85663SOL    HW158822   0.495   8.806  11.777
85663SOL    HW258823   0.368   8.781  11.855
85664SOL     OW58824   0.566  12.063   0.921
85664SOL    HW158825   0.493  12.121   0.944
85664SOL    HW258826   0.585  12.014   1.002
85665SOL     OW58827  10.152  14.838  14.042
85665SOL    HW158828  10.093  14.764  14.054
85665SOL    HW258829  10.176  14.865  14.131
85666SOL     OW58830  14.542   6.207   3.063
85666SOL    HW158831  14.615   6.193   3.123
85666SOL    HW258832  14.561   6.149   2.989
85667SOL     OW58833   5.486   2.730   6.531
85667SOL    HW158834   5.431   2.658   6.560
85667SOL    HW258835   5.573   2.709   6.566
85668SOL     OW58836   6.700   0.923   0.055
85668SOL    HW158837   6.791   0.951   0.061
85668SOL    HW258838   6.665   0.936   0.143
85669SOL     OW58839   1.432   6.495  10.527
85669SOL    HW158840   1.414   6.471  10.618
85669SOL    HW258841   1.401   6.585  10.520
85670SOL     OW58842   1.000   6.070  12.466
85670SOL    HW158843   0.929   6.055  12.403
85670SOL    HW258844   1.078   6.036  12.423
85671SOL     OW58845  13.989   5.601   8.063
85671SOL    HW158846  14.015   5.532   8.124
85671SOL    HW258847  14.017   5.682   8.105
85672SOL     OW58848   1.553  11.586  10.186
85672SOL    HW158849   1.470  11.540  10.203
85672SOL    HW258850   1.593  11.537  10.114
85673SOL     OW58851  12.439   9.377   0.485
85673SOL    HW158852  12.349   9.368   0.516
85673SOL    HW258853  12.473   9.454   0.531
85674SOL     OW58854  14.175   2.400   1.293
85674SOL    HW158855  14.141   2.325   1.245
85674SOL    HW258856  14.178   2.471   1.229
85675SOL     OW58857   8.332   0.418   9.256
85675SOL    HW158858   8.366   0.329   9.267
85675SOL    HW258859   8.247   0.417   9.301
85676SOL     OW58860   9.698   2.322   5.918
85676SOL    HW158861   9.785   2.316   5.958
85676SOL    HW258862   9.639   2.291   5.987
85677SOL     OW58863   5.453   2.517  13.515
85677SOL    HW158864   5.412   2.594  13.475
85677SOL    HW258865   5.379   2.461  13.539
85678SOL     OW58866   2.893   5.367  10.510
85678SOL    HW158867   2.950   5.300  10.473
85678SOL    HW258868   2.876   5.426  10.436
85679SOL     OW58869   7.766  12.926  11.288
85679SOL    HW158870   7.850  12.926  11.334
85679SOL    HW258871   7.789  12.932  11.195
85680SOL     OW58872   3.086   7.726   6.989
85680SOL    HW158873   3.146   7.720   6.914
85680SOL    HW258874   3.002   7.697   6.954
85681SOL     OW58875  11.780   5.243   3.437
85681SOL    HW158876  11.781   5.325   3.486
85681SOL    HW258877  11.776   5.175   3.505
85682SOL     OW58878   7.734  10.580  14.525
85682SOL    HW158879   7.750  10.486  14.511
85682SOL    HW258880   7.776  10.623  14.452
85683SOL     OW58881   5.873  12.126  10.705
85683SOL    HW158882   5.875  12.042  10.658
85683SOL    HW258883   5.840  12.189  10.641
85684SOL     OW58884   7.409   8.442   0.505
85684SOL    HW158885   7.323   8.401   0.513
85684SOL    HW258886   7.410   8.510   0.572
85685SOL     OW58887   5.610  10.676   6.800
85685SOL    HW158888   5.567  10.760   6.816
85685SOL    HW258889   5.697  10.700   6.770
85686SOL     OW58890  11.312  13.166   9.724
85686SOL    HW158891  11.218  13.167   9.709
85686SOL    HW258892  11.324  13.104   9.796
85687SOL     OW58893  11.550   5.751  11.319
85687SOL    HW158894  11.600   5.709  11.390
85687SOL    HW258895  11.467   5.703  11.317
85688SOL     OW58896   4.925  14.244  14.426
85688SOL    HW158897   4.935  14.243  14.331
85688SOL    HW258898   4.938  14.335  14.451
85689SOL     OW58899   9.890   8.497   0.073
85689SOL    HW158900   9.835   8.438   0.125
85689SOL    HW258901   9.927   8.558   0.137
85690SOL     OW58902   1.549   2.398   4.708
85690SOL    HW158903   1.574   2.313   4.672
85690SOL    HW258904   1.470   2.422   4.658
85691SOL     OW58905   0.153   0.314   4.041
85691SOL    HW158906   0.208   0.392   4.052
85691SOL    HW258907   0.136   0.285   4.131
85692SOL     OW58908   9.073   9.586   4.195
85692SOL    HW158909   9.109   9.670   4.165
85692SOL    HW258910   9.127   9.520   4.151
85693SOL     OW58911   5.472  13.844   9.013
85693SOL    HW158912   5.398  13.794   8.979
85693SOL    HW258913   5.498  13.796   9.092
85694SOL     OW58914   6.858   3.958   3.507
85694SOL    HW158915   6.767   3.966   3.535
85694SOL    HW258916   6.892   3.882   3.555
85695SOL     OW58917  14.237   0.494   1.062
85695SOL    HW158918  14.298   0.439   1.112
85695SOL    HW258919  14.182   0.536   1.129
85696SOL     OW58920  10.798   8.453   8.879
85696SOL    HW158921  10.797   8.450   8.783
85696SOL    HW258922  10.820   8.363   8.906
85697SOL     OW58923  13.753   9.231   1.885
85697SOL    HW158924  13.840   9.192   1.894
85697SOL    HW258925  13.770   9.323   1.868
85698SOL     OW58926  12.266  10.186   3.284
85698SOL    HW158927  12.327  10.157   3.215
85698SOL    HW258928  12.282  10.280   3.292
85699SOL     OW58929   3.893   1.245   7.533
85699SOL    HW158930   3.849   1.328   7.554
85699SOL    HW258931   3.853   1.181   7.592
85700SOL     OW58932  14.858  12.121  13.053
85700SOL    HW158933  14.791  12.069  13.097
85700SOL    HW258934   0.021  12.171  13.123
85701SOL     OW58935   7.037   8.481   2.719
85701SOL    HW158936   7.002   8.412   2.776
85701SOL    HW258937   6.969   8.548   2.719
85702SOL     OW58938   0.228  12.865  10.440
85702SOL    HW158939   0.202  12.953  10.465
85702SOL    HW258940   0.303  12.845  10.496
85703SOL     OW58941   7.906  14.743   0.327
85703SOL    HW158942   7.813  14.721   0.331
85703SOL    HW258943   7.915  14.821   0.381
85704SOL     OW58944   1.286   5.616   0.330
85704SOL    HW158945   1.232   5.669   0.390
85704SOL    HW258946   1.248   5.528   0.335
85705SOL     OW58947   9.951   1.114  11.292
85705SOL    HW158948   9.879   1.128  11.352
85705SOL    HW258949   9.936   1.026  11.256
85706SOL     OW58950   8.197   8.134   3.331
85706SOL    HW158951   8.105   8.137   3.355
85706SOL    HW258952   8.243   8.124   3.414
85707SOL     OW58953  10.451  13.043   4.758
85707SOL    HW158954  10.395  13.035   4.681
85707SOL    HW258955  10.406  13.106   4.814
85708SOL     OW58956   1.262   3.688   7.876
85708SOL    HW158957   1.333   3.753   7.872
85708SOL    HW258958   1.272   3.648   7.962
85709SOL     OW58959  11.291   9.595   9.061
85709SOL    HW158960  11.216   9.630   9.109
85709SOL    HW258961  11.293   9.646   8.980
85710SOL     OW58962   3.521  13.311   1.856
85710SOL    HW158963   3.455  13.377   1.877
85710SOL    HW258964   3.594  13.330   1.915
85711SOL     OW58965  10.858   8.045   5.713
85711SOL    HW158966  10.830   8.123   5.665
85711SOL    HW258967  10.875   7.980   5.645
85712SOL     OW58968  10.842   9.263   9.723
85712SOL    HW158969  10.855   9.187   9.666
85712SOL    HW258970  10.802   9.227   9.802
85713SOL     OW58971   8.478   8.728   6.254
85713SOL    HW158972   8.525   8.648   6.279
85713SOL    HW258973   8.389   8.715   6.286
85714SOL     OW58974   2.615   7.377   2.385
85714SOL    HW158975   2.699   7.380   2.430
85714SOL    HW258976   2.628   7.429   2.306
85715SOL     OW58977  11.516  13.135   9.300
85715SOL    HW158978  11.504  13.049   9.339
85715SOL    HW258979  11.444  13.188   9.335
85716SOL     OW58980   9.707   1.444  13.079
85716SOL    HW158981   9.652   1.369  13.058
85716SOL    HW258982   9.644   1.512  13.105
85717SOL     OW58983   9.083   4.826  10.465
85717SOL    HW158984   8.993   4.857  10.464
85717SOL    HW258985   9.136   4.905  10.458
85718SOL     OW58986  13.630   3.639   3.961
85718SOL    HW158987  13.573   3.681   4.025
85718SOL    HW258988  13.713   3.629   4.007
85719SOL     OW58989   5.541  10.592  14.613
85719SOL    HW158990   5.559  10.613  14.522
85719SOL    HW258991   5.540  10.676  14.658
85720SOL     OW58992   9.609  11.969  10.757
85720SOL    HW158993   9.632  11.889  10.804
85720SOL    HW258994   9.676  11.977  10.689
85721SOL     OW58995  13.231  12.078  10.538
85721SOL    HW158996  13.250  12.157  10.487
85721SOL    HW258997  13.151  12.043  10.500
85722SOL     OW58998   4.759  13.681  13.347
85722SOL    HW158999   4.721  13.733  13.417
85722SOL    HW259000   4.691  13.618  13.323
85723SOL     OW59001   0.621   2.938   5.412
85723SOL    HW159002   0.616   3.003   5.341
85723SOL    HW259003   0.714   2.930   5.430
85724SOL     OW59004   2.160   9.562   0.307
85724SOL    HW159005   2.093   9.505   0.344
85724SOL    HW259006   2.128   9.651   0.325
85725SOL     OW59007   1.340   4.814  12.933
85725SOL    HW159008   1.252   4.853  12.939
85725SOL    HW259009   1.399   4.887  12.949
85726SOL     OW59010  14.432  14.074   6.066
85726SOL    HW159011  14.369  14.005   6.087
85726SOL    HW259012  14.516  14.029   6.059
85727SOL     OW59013  13.217   4.072   4.489
85727SOL    HW159014  13.260   4.101   4.570
85727SOL    HW259015  13.217   3.976   4.495
85728SOL     OW59016   2.958  13.682   9.317
85728SOL    HW159017   3.038  13.734   9.317
85728SOL    HW259018   2.888  13.746   9.300
85729SOL     OW59019   3.224   0.955   3.898
85729SOL    HW159020   3.179   0.888   3.949
85729SOL    HW259021   3.154   0.997   3.848
85730SOL     OW59022   2.584  12.818   8.459
85730SOL    HW159023   2.493  12.848   8.452
85730SOL    HW259024   2.636  12.896   8.441
85731SOL     OW59025   2.603   8.668   2.583
85731SOL    HW159026   2.584   8.619   2.664
85731SOL    HW259027   2.699   8.679   2.584
85732SOL     OW59028   9.882  13.338   6.845
85732SOL    HW159029   9.881  13.246   6.817
85732SOL    HW259030   9.885  13.388   6.763
85733SOL     OW59031   3.629   1.462   2.925
85733SOL    HW159032   3.715   1.505   2.919
85733SOL    HW259033   3.585   1.485   2.844
85734SOL     OW59034   4.051  10.330   4.790
85734SOL    HW159035   4.081  10.405   4.739
85734SOL    HW259036   3.958  10.324   4.772
85735SOL     OW59037  10.494   3.172   8.668
85735SOL    HW159038  10.559   3.102   8.660
85735SOL    HW259039  10.486   3.187   8.762
85736SOL     OW59040  14.631  13.096  12.811
85736SOL    HW159041  14.633  13.002  12.793
85736SOL    HW259042  14.583  13.104  12.894
85737SOL     OW59043  12.487   9.728   4.990
85737SOL    HW159044  12.417   9.690   5.043
85737SOL    HW259045  12.566   9.679   5.014
85738SOL     OW59046   2.663  10.339   9.909
85738SOL    HW159047   2.568  10.341   9.919
85738SOL    HW259048   2.683  10.413   9.852
85739SOL     OW59049   3.684   0.361   4.440
85739SOL    HW159050   3.693   0.452   4.468
85739SOL    HW259051   3.651   0.316   4.517
85740SOL     OW59052  12.370  14.282   9.162
85740SOL    HW159053  12.280  14.253   9.178
85740SOL    HW259054  12.372  14.372   9.195
85741SOL     OW59055   6.436  12.062  10.906
85741SOL    HW159056   6.466  12.102  10.824
85741SOL    HW259057   6.517  12.032  10.948
85742SOL     OW59058  12.205   0.499  13.533
85742SOL    HW159059  12.198   0.531  13.443
85742SOL    HW259060  12.149   0.421  13.535
85743SOL     OW59061  11.790   0.468   6.027
85743SOL    HW159062  11.727   0.396   6.033
85743SOL    HW259063  11.754   0.525   5.959
85744SOL     OW59064   0.746   7.566   2.295
85744SOL    HW159065   0.675   7.619   2.257
85744SOL    HW259066   0.807   7.552   2.222
85745SOL     OW59067  14.848   6.401   5.711
85745SOL    HW159068   0.010   6.380   5.795
85745SOL    HW259069  14.804   6.320   5.684
85746SOL     OW59070   8.599  13.738  10.403
85746SOL    HW159071   8.544  13.813  10.428
85746SOL    HW259072   8.688  13.764  10.429
85747SOL     OW59073   6.860   0.018   7.475
85747SOL    HW159074   6.903   0.026   7.390
85747SOL    HW259075   6.901  14.820   7.515
85748SOL     OW59076  11.544   4.741  13.390
85748SOL    HW159077  11.467   4.686  13.377
85748SOL    HW259078  11.616   4.693  13.350
85749SOL     OW59079  13.850   9.052   1.391
85749SOL    HW159080  13.836   9.026   1.482
85749SOL    HW259081  13.843   8.970   1.341
85750SOL     OW59082  14.581   1.955   0.513
85750SOL    HW159083  14.524   2.023   0.549
85750SOL    HW259084  14.521   1.893   0.473
85751SOL     OW59085   2.375   7.352  13.066
85751SOL    HW159086   2.321   7.367  12.988
85751SOL    HW259087   2.440   7.423  13.065
85752SOL     OW59088   3.447  13.319  14.355
85752SOL    HW159089   3.487  13.308  14.268
85752SOL    HW259090   3.520  13.346  14.411
85753SOL     OW59091  13.297   6.745   5.748
85753SOL    HW159092  13.313   6.821   5.691
85753SOL    HW259093  13.221   6.702   5.708
85754SOL     OW59094   1.523  11.352   6.258
85754SOL    HW159095   1.454  11.300   6.300
85754SOL    HW259096   1.514  11.333   6.165
85755SOL     OW59097   6.880   7.801  12.613
85755SOL    HW159098   6.814   7.733  12.600
85755SOL    HW259099   6.950   7.758  12.662
85756SOL     OW59100  12.255   2.318  13.416
85756SOL    HW159101  12.327   2.356  13.365
85756SOL    HW259102  12.267   2.224  13.409
85757SOL     OW59103   0.856  12.762   3.661
85757SOL    HW159104   0.771  12.796   3.631
85757SOL    HW259105   0.874  12.812   3.741
85758SOL     OW59106   1.489  10.371  11.785
85758SOL    HW159107   1.531  10.365  11.699
85758SOL    HW259108   1.494  10.282  11.820
85759SOL     OW59109  13.584   2.988   8.873
85759SOL    HW159110  13.535   2.978   8.792
85759SOL    HW259111  13.536   3.056   8.921
85760SOL     OW59112  13.568   7.042   4.767
85760SOL    HW159113  13.529   7.076   4.848
85760SOL    HW259114  13.662   7.057   4.778
85761SOL     OW59115   8.040   3.527  12.699
85761SOL    HW159116   7.999   3.546  12.783
85761SOL    HW259117   8.134   3.536  12.715
85762SOL     OW59118   5.512   1.782   5.746
85762SOL    HW159119   5.527   1.693   5.778
85762SOL    HW259120   5.582   1.834   5.784
85763SOL     OW59121  12.974   8.462   6.693
85763SOL    HW159122  13.031   8.478   6.618
85763SOL    HW259123  12.885   8.462   6.656
85764SOL     OW59124   8.805   9.964   2.566
85764SOL    HW159125   8.710   9.965   2.556
85764SOL    HW259126   8.839   9.970   2.477
85765SOL     OW59127   8.548   9.756  13.785
85765SOL    HW159128   8.572   9.683  13.727
85765SOL    HW259129   8.520   9.714  13.866
85766SOL     OW59130  13.009   2.362   0.417
85766SOL    HW159131  12.981   2.354   0.508
85766SOL    HW259132  12.928   2.380   0.369
85767SOL     OW59133   5.803   6.295   5.513
85767SOL    HW159134   5.867   6.361   5.542
85767SOL    HW259135   5.825   6.278   5.422
85768SOL     OW59136   3.793  11.577   0.183
85768SOL    HW159137   3.854  11.635   0.228
85768SOL    HW259138   3.783  11.615   0.096
85769SOL     OW59139  11.000   1.553   0.082
85769SOL    HW159140  10.972   1.608   0.156
85769SOL    HW259141  11.092   1.533   0.102
85770SOL     OW59142   4.222   1.881  13.390
85770SOL    HW159143   4.216   1.823  13.314
85770SOL    HW259144   4.257   1.963  13.355
85771SOL     OW59145  12.921  11.420   7.960
85771SOL    HW159146  12.990  11.457   8.015
85771SOL    HW259147  12.916  11.328   7.987
85772SOL     OW59148  11.095   7.564   8.460
85772SOL    HW159149  11.114   7.505   8.533
85772SOL    HW259150  11.021   7.616   8.490
85773SOL     OW59151   7.881  14.385   8.997
85773SOL    HW159152   7.936  14.386   9.075
85773SOL    HW259153   7.921  14.448   8.937
85774SOL     OW59154   8.392  10.596   1.787
85774SOL    HW159155   8.409  10.689   1.778
85774SOL    HW259156   8.479  10.557   1.795
85775SOL     OW59157   7.967  12.896  10.184
85775SOL    HW159158   7.919  12.839  10.245
85775SOL    HW259159   8.049  12.916  10.229
85776SOL     OW59160  12.544  11.184   7.053
85776SOL    HW159161  12.491  11.105   7.063
85776SOL    HW259162  12.556  11.217   7.142
85777SOL     OW59163  10.364   1.434   0.368
85777SOL    HW159164  10.355   1.414   0.461
85777SOL    HW259165  10.274   1.439   0.336
85778SOL     OW59166  10.786   1.363  10.800
85778SOL    HW159167  10.867   1.329  10.838
85778SOL    HW259168  10.814   1.436  10.744
85779SOL     OW59169  11.347  11.756   5.297
85779SOL    HW159170  11.345  11.663   5.274
85779SOL    HW259171  11.428  11.767   5.345
85780SOL     OW59172   8.923   3.358   1.750
85780SOL    HW159173   8.841   3.314   1.729
85780SOL    HW259174   8.983   3.336   1.679
85781SOL     OW59175  11.905  10.463   6.978
85781SOL    HW159176  11.944  10.385   7.018
85781SOL    HW259177  11.924  10.454   6.884
85782SOL     OW59178  12.870  10.689   6.680
85782SOL    HW159179  12.819  10.736   6.745
85782SOL    HW259180  12.906  10.757   6.623
85783SOL     OW59181   3.485  14.638  10.437
85783SOL    HW159182   3.390  14.632  10.424
85783SOL    HW259183   3.496  14.708  10.501
85784SOL     OW59184   1.111   9.917  10.377
85784SOL    HW159185   1.039   9.913  10.440
85784SOL    HW259186   1.190   9.907  10.430
85785SOL     OW59187   2.199   0.095  10.197
85785SOL    HW159188   2.171   0.011  10.233
85785SOL    HW259189   2.148   0.160  10.245
85786SOL     OW59190   9.120  11.918   3.449
85786SOL    HW159191   9.034  11.907   3.490
85786SOL    HW259192   9.102  11.960   3.366
85787SOL     OW59193   0.650   7.547  12.459
85787SOL    HW159194   0.654   7.586  12.546
85787SOL    HW259195   0.686   7.615  12.401
85788SOL     OW59196  10.943   8.455   1.501
85788SOL    HW159197  10.953   8.541   1.541
85788SOL    HW259198  10.997   8.459   1.422
85789SOL     OW59199   7.150   3.132  13.222
85789SOL    HW159200   7.079   3.078  13.187
85789SOL    HW259201   7.151   3.112  13.316
85790SOL     OW59202   2.091  11.364  13.310
85790SOL    HW159203   2.119  11.307  13.239
85790SOL    HW259204   2.002  11.392  13.286
85791SOL     OW59205   8.698   3.694   6.446
85791SOL    HW159206   8.720   3.611   6.489
85791SOL    HW259207   8.604   3.705   6.460
85792SOL     OW59208  12.516   4.058  11.840
85792SOL    HW159209  12.533   4.050  11.746
85792SOL    HW259210  12.438   4.005  11.855
85793SOL     OW59211   8.599   0.909   2.093
85793SOL    HW159212   8.558   0.906   2.180
85793SOL    HW259213   8.690   0.930   2.111
85794SOL     OW59214  13.059  11.273  12.869
85794SOL    HW159215  12.983  11.329  12.853
85794SOL    HW259216  13.021  11.189  12.896
85795SOL     OW59217   9.057   5.252   2.392
85795SOL    HW159218   9.132   5.258   2.334
85795SOL    HW259219   8.991   5.204   2.342
85796SOL     OW59220  14.520   9.453   8.019
85796SOL    HW159221  14.581   9.469   7.947
85796SOL    HW259222  14.490   9.540   8.045
85797SOL     OW59223   7.135   8.490  12.377
85797SOL    HW159224   7.046   8.481  12.412
85797SOL    HW259225   7.166   8.572  12.414
85798SOL     OW59226  14.283  10.123   1.485
85798SOL    HW159227  14.350  10.070   1.528
85798SOL    HW259228  14.221  10.146   1.554
85799SOL     OW59229  11.742   6.051   2.089
85799SOL    HW159230  11.809   5.986   2.111
85799SOL    HW259231  11.788   6.135   2.090
85800SOL     OW59232  14.351   7.548   2.213
85800SOL    HW159233  14.403   7.485   2.163
85800SOL    HW259234  14.265   7.546   2.171
85801SOL     OW59235   9.867  12.699   3.909
85801SOL    HW159236   9.887  12.689   4.003
85801SOL    HW259237   9.950  12.680   3.865
85802SOL     OW59238   5.394  13.471  11.219
85802SOL    HW159239   5.487  13.489  11.225
85802SOL    HW259240   5.353  13.534  11.278
85803SOL     OW59241   2.273   4.299   4.152
85803SOL    HW159242   2.321   4.303   4.069
85803SOL    HW259243   2.186   4.268   4.129
85804SOL     OW59244   9.068  12.193   2.272
85804SOL    HW159245   8.991  12.151   2.234
85804SOL    HW259246   9.139  12.170   2.212
85805SOL     OW59247   4.489  14.752  11.157
85805SOL    HW159248   4.541  14.831  11.141
85805SOL    HW259249   4.476  14.713  11.070
85806SOL     OW59250   3.247   1.210   5.973
85806SOL    HW159251   3.237   1.150   5.898
85806SOL    HW259252   3.228   1.296   5.936
85807SOL     OW59253   5.456   5.162   6.487
85807SOL    HW159254   5.484   5.071   6.492
85807SOL    HW259255   5.447   5.190   6.578
85808SOL     OW59256   4.925   8.459  13.083
85808SOL    HW159257   4.972   8.506  13.014
85808SOL    HW259258   4.833   8.468  13.060
85809SOL     OW59259   3.051   8.729   5.831
85809SOL    HW159260   3.085   8.792   5.894
85809SOL    HW259261   3.053   8.776   5.747
85810SOL     OW59262   0.411  10.052  13.620
85810SOL    HW159263   0.486  10.048  13.560
85810SOL    HW259264   0.342  10.002  13.575
85811SOL     OW59265  10.214   7.792  14.510
85811SOL    HW159266  10.253   7.783  14.423
85811SOL    HW259267  10.128   7.751  14.501
85812SOL     OW59268  11.465   7.993   2.807
85812SOL    HW159269  11.370   7.986   2.799
85812SOL    HW259270  11.480   8.010   2.900
85813SOL     OW59271   3.510   0.703   7.679
85813SOL    HW159272   3.534   0.700   7.772
85813SOL    HW259273   3.508   0.612   7.652
85814SOL     OW59274  14.238   1.782   8.658
85814SOL    HW159275  14.294   1.854   8.689
85814SOL    HW259276  14.215   1.807   8.569
85815SOL     OW59277  14.875   7.374   3.669
85815SOL    HW159278   0.000   7.364   3.764
85815SOL    HW259279  14.822   7.452   3.655
85816SOL     OW59280  13.784  13.950  14.171
85816SOL    HW159281  13.805  13.971  14.081
85816SOL    HW259282  13.688  13.958  14.176
85817SOL     OW59283   3.925   3.427   9.061
85817SOL    HW159284   3.829   3.430   9.061
85817SOL    HW259285   3.947   3.394   8.974
85818SOL     OW59286   0.447   1.266  12.954
85818SOL    HW159287   0.404   1.289  12.872
85818SOL    HW259288   0.539   1.288  12.939
85819SOL     OW59289   5.268   2.051   2.150
85819SOL    HW159290   5.239   2.127   2.201
85819SOL    HW259291   5.193   2.030   2.094
85820SOL     OW59292   8.397  14.523   2.863
85820SOL    HW159293   8.486  14.506   2.893
85820SOL    HW259294   8.358  14.576   2.933
85821SOL     OW59295   2.505  10.904   8.710
85821SOL    HW159296   2.423  10.906   8.660
85821SOL    HW259297   2.548  10.823   8.682
85822SOL     OW59298   7.574   9.932  13.006
85822SOL    HW159299   7.539   9.914  12.918
85822SOL    HW259300   7.668   9.914  12.997
85823SOL     OW59301  10.931   0.906   2.746
85823SOL    HW159302  10.913   0.992   2.709
85823SOL    HW259303  10.923   0.846   2.672
85824SOL     OW59304   3.712  10.150   1.749
85824SOL    HW159305   3.680  10.105   1.671
85824SOL    HW259306   3.692  10.242   1.734
85825SOL     OW59307   7.100   0.642  11.116
85825SOL    HW159308   7.137   0.553  11.115
85825SOL    HW259309   7.008   0.629  11.095
85826SOL     OW59310  12.099   5.043  11.981
85826SOL    HW159311  12.099   5.115  12.044
85826SOL    HW259312  12.139   5.080  11.903
85827SOL     OW59313  14.705   7.139   2.937
85827SOL    HW159314  14.667   7.087   2.867
85827SOL    HW259315  14.658   7.223   2.933
85828SOL     OW59316  13.197  10.904   6.599
85828SOL    HW159317  13.219  10.884   6.508
85828SOL    HW259318  13.151  10.988   6.594
85829SOL     OW59319  11.419   9.451  10.066
85829SOL    HW159320  11.418   9.496   9.981
85829SOL    HW259321  11.335   9.474  10.105
85830SOL     OW59322   5.335  14.423   3.226
85830SOL    HW159323   5.374  14.439   3.312
85830SOL    HW259324   5.367  14.495   3.171
85831SOL     OW59325   8.022   4.790   2.425
85831SOL    HW159326   7.967   4.785   2.503
85831SOL    HW259327   8.090   4.724   2.439
85832SOL     OW59328   5.175  14.721  10.638
85832SOL    HW159329   5.241  14.670  10.591
85832SOL    HW259330   5.141  14.660  10.704
85833SOL     OW59331   0.027  11.527  14.676
85833SOL    HW159332  14.823  11.481  14.661
85833SOL    HW259333   0.001  11.616  14.699
85834SOL     OW59334   7.584   4.599   7.330
85834SOL    HW159335   7.580   4.694   7.330
85834SOL    HW259336   7.637   4.577   7.406
85835SOL     OW59337   6.607  14.167   6.914
85835SOL    HW159338   6.661  14.111   6.859
85835SOL    HW259339   6.669  14.207   6.976
85836SOL     OW59340  12.527   1.124  12.520
85836SOL    HW159341  12.514   1.218  12.534
85836SOL    HW259342  12.494   1.108  12.431
85837SOL     OW59343   0.557   2.879  10.342
85837SOL    HW159344   0.547   2.899  10.248
85837SOL    HW259345   0.625   2.812  10.344
85838SOL     OW59346   4.288   9.115  10.906
85838SOL    HW159347   4.364   9.173  10.916
85838SOL    HW259348   4.305   9.066  10.826
85839SOL     OW59349  13.967   8.259   6.539
85839SOL    HW159350  13.989   8.175   6.499
85839SOL    HW259351  13.988   8.248   6.631
85840SOL     OW59352   0.874   8.700   9.490
85840SOL    HW159353   0.907   8.616   9.459
85840SOL    HW259354   0.946   8.762   9.474
85841SOL     OW59355   3.305  11.588   9.209
85841SOL    HW159356   3.212  11.602   9.223
85841SOL    HW259357   3.312  11.497   9.178
85842SOL     OW59358   9.009   6.205   7.262
85842SOL    HW159359   8.918   6.196   7.235
85842SOL    HW259360   9.044   6.274   7.207
85843SOL     OW59361   8.401   8.827   7.381
85843SOL    HW159362   8.345   8.750   7.381
85843SOL    HW259363   8.426   8.838   7.289
85844SOL     OW59364  14.861  12.135   3.112
85844SOL    HW159365  14.874  12.083   3.191
85844SOL    HW259366  14.788  12.193   3.134
85845SOL     OW59367   9.231  12.242  14.019
85845SOL    HW159368   9.313  12.266  13.976
85845SOL    HW259369   9.166  12.300  13.980
85846SOL     OW59370   9.818  12.059   5.641
85846SOL    HW159371   9.898  12.012   5.668
85846SOL    HW259372   9.848  12.119   5.573
85847SOL     OW59373  13.321   1.040   0.326
85847SOL    HW159374  13.383   1.090   0.379
85847SOL    HW259375  13.331   1.074   0.237
85848SOL     OW59376  10.586   7.533   1.674
85848SOL    HW159377  10.517   7.538   1.740
85848SOL    HW259378  10.660   7.494   1.721
85849SOL     OW59379  12.180  12.026   7.911
85849SOL    HW159380  12.103  12.040   7.966
85849SOL    HW259381  12.252  12.066   7.960
85850SOL     OW59382  12.653  11.895   4.769
85850SOL    HW159383  12.709  11.839   4.823
85850SOL    HW259384  12.664  11.983   4.806
85851SOL     OW59385   7.544  10.483   9.792
85851SOL    HW159386   7.467  10.464   9.845
85851SOL    HW259387   7.616  10.485   9.854
85852SOL     OW59388   3.807   7.510   0.223
85852SOL    HW159389   3.727   7.479   0.265
85852SOL    HW259390   3.877   7.479   0.280
85853SOL     OW59391  12.443  10.711   2.899
85853SOL    HW159392  12.459  10.804   2.911
85853SOL    HW259393  12.405  10.683   2.983
85854SOL     OW59394   4.821   8.454  11.234
85854SOL    HW159395   4.746   8.427  11.181
85854SOL    HW259396   4.813   8.549  11.242
85855SOL     OW59397   4.759  12.009  13.704
85855SOL    HW159398   4.840  12.059  13.689
85855SOL    HW259399   4.737  11.973  13.619
85856SOL     OW59400  12.068  11.618  13.292
85856SOL    HW159401  12.143  11.637  13.236
85856SOL    HW259402  12.015  11.698  13.288
85857SOL     OW59403   3.044   7.296   4.226
85857SOL    HW159404   2.966   7.346   4.251
85857SOL    HW259405   3.012   7.208   4.207
85858SOL     OW59406   6.485   2.890   9.411
85858SOL    HW159407   6.497   2.920   9.501
85858SOL    HW259408   6.544   2.815   9.401
85859SOL     OW59409  12.739   0.733   8.114
85859SOL    HW159410  12.727   0.749   8.020
85859SOL    HW259411  12.802   0.661   8.119
85860SOL     OW59412   1.174   7.955   6.286
85860SOL    HW159413   1.209   7.872   6.321
85860SOL    HW259414   1.202   8.021   6.350
85861SOL     OW59415   9.878  13.568   8.035
85861SOL    HW159416   9.891  13.555   7.941
85861SOL    HW259417   9.949  13.627   8.061
85862SOL     OW59418  14.739  14.136   7.088
85862SOL    HW159419  14.732  14.223   7.047
85862SOL    HW259420  14.774  14.154   7.175
85863SOL     OW59421   2.688  14.395   1.389
85863SOL    HW159422   2.628  14.402   1.314
85863SOL    HW259423   2.693  14.301   1.406
85864SOL     OW59424   4.129   0.782   9.033
85864SOL    HW159425   4.106   0.828   8.952
85864SOL    HW259426   4.064   0.713   9.041
85865SOL     OW59427   8.271   2.114   5.862
85865SOL    HW159428   8.281   2.106   5.767
85865SOL    HW259429   8.223   2.196   5.873
85866SOL     OW59430   8.949   7.762  14.872
85866SOL    HW159431   8.967   7.717  14.789
85866SOL    HW259432   8.926   7.851  14.846
85867SOL     OW59433  12.156   5.516  13.991
85867SOL    HW159434  12.091   5.512  13.921
85867SOL    HW259435  12.181   5.608  13.995
85868SOL     OW59436   1.228   0.571  13.504
85868SOL    HW159437   1.274   0.512  13.445
85868SOL    HW259438   1.168   0.620  13.448
85869SOL     OW59439   8.585  12.992  11.978
85869SOL    HW159440   8.604  13.082  11.951
85869SOL    HW259441   8.626  12.983  12.064
85870SOL     OW59442   7.470  10.577   0.154
85870SOL    HW159443   7.375  10.579   0.159
85870SOL    HW259444   7.498  10.663   0.185
85871SOL     OW59445   4.131   6.688   1.567
85871SOL    HW159446   4.212   6.641   1.585
85871SOL    HW259447   4.109   6.665   1.477
85872SOL     OW59448   4.430   1.215   3.823
85872SOL    HW159449   4.439   1.249   3.734
85872SOL    HW259450   4.387   1.130   3.812
85873SOL     OW59451   5.475  13.627   3.402
85873SOL    HW159452   5.447  13.713   3.371
85873SOL    HW259453   5.398  13.571   3.388
85874SOL     OW59454  13.646  14.332   1.292
85874SOL    HW159455  13.729  14.290   1.316
85874SOL    HW259456  13.580  14.286   1.343
85875SOL     OW59457  13.463   1.457  12.051
85875SOL    HW159458  13.425   1.473  11.964
85875SOL    HW259459  13.389   1.464  12.111
85876SOL     OW59460   4.885  13.273   5.252
85876SOL    HW159461   4.926  13.193   5.219
85876SOL    HW259462   4.917  13.279   5.343
85877SOL     OW59463  10.300  14.008   6.081
85877SOL    HW159464  10.254  14.062   6.016
85877SOL    HW259465  10.323  13.928   6.033
85878SOL     OW59466   7.082  12.630   6.982
85878SOL    HW159467   7.033  12.583   7.049
85878SOL    HW259468   7.053  12.721   6.990
85879SOL     OW59469   5.252   6.871  12.357
85879SOL    HW159470   5.178   6.927  12.332
85879SOL    HW259471   5.210   6.794  12.397
85880SOL     OW59472  10.099   2.920   4.847
85880SOL    HW159473  10.008   2.894   4.862
85880SOL    HW259474  10.149   2.866   4.907
85881SOL     OW59475   3.519  12.562  14.857
85881SOL    HW159476   3.459  12.557  14.782
85881SOL    HW259477   3.518  12.474   0.016
85882SOL     OW59478  10.805   7.925  13.442
85882SOL    HW159479  10.746   7.997  13.419
85882SOL    HW259480  10.755   7.846  13.419
85883SOL     OW59481  11.205  13.671   7.890
85883SOL    HW159482  11.132  13.683   7.830
85883SOL    HW259483  11.282  13.666   7.834
85884SOL     OW59484   0.447  11.289  13.783
85884SOL    HW159485   0.509  11.221  13.807
85884SOL    HW259486   0.390  11.298  13.859
85885SOL     OW59487  12.544   3.232   1.871
85885SOL    HW159488  12.501   3.199   1.792
85885SOL    HW259489  12.540   3.327   1.862
85886SOL     OW59490   7.195   9.745  14.802
85886SOL    HW159491   7.224   9.806  14.870
85886SOL    HW259492   7.203   9.659  14.843
85887SOL     OW59493   1.046  13.401   9.753
85887SOL    HW159494   0.971  13.458   9.769
85887SOL    HW259495   1.034  13.371   9.663
85888SOL     OW59496   0.397   4.277  13.768
85888SOL    HW159497   0.335   4.279  13.841
85888SOL    HW259498   0.478   4.243  13.806
85889SOL     OW59499   7.640   8.192   9.556
85889SOL    HW159500   7.556   8.158   9.588
85889SOL    HW259501   7.683   8.115   9.519
85890SOL     OW59502   7.538  11.472   9.843
85890SOL    HW159503   7.480  11.459   9.768
85890SOL    HW259504   7.612  11.414   9.828
85891SOL     OW59505   8.795   6.570  12.720
85891SOL    HW159506   8.770   6.660  12.698
85891SOL    HW259507   8.830   6.576  12.809
85892SOL     OW59508  10.735  14.247  13.961
85892SOL    HW159509  10.800  14.317  13.963
85892SOL    HW259510  10.678  14.266  14.036
85893SOL     OW59511   6.676  13.691  11.581
85893SOL    HW159512   6.721  13.759  11.530
85893SOL    HW259513   6.583  13.707  11.565
85894SOL     OW59514   2.389   8.011  11.423
85894SOL    HW159515   2.295   8.006  11.438
85894SOL    HW259516   2.400   8.087  11.366
85895SOL     OW59517   9.863  10.797   6.042
85895SOL    HW159518   9.786  10.791   6.098
85895SOL    HW259519   9.838  10.750   5.963
85896SOL     OW59520  14.491   7.415  13.310
85896SOL    HW159521  14.492   7.507  13.285
85896SOL    HW259522  14.578   7.382  13.289
85897SOL     OW59523  14.589   5.622   4.685
85897SOL    HW159524  14.536   5.546   4.660
85897SOL    HW259525  14.671   5.610   4.637
85898SOL     OW59526   3.987   6.641   4.591
85898SOL    HW159527   4.035   6.723   4.597
85898SOL    HW259528   3.929   6.651   4.516
85899SOL     OW59529   0.596  14.232  10.370
85899SOL    HW159530   0.673  14.276  10.333
85899SOL    HW259531   0.631  14.166  10.429
85900SOL     OW59532   1.931   5.150   1.149
85900SOL    HW159533   1.977   5.233   1.162
85900SOL    HW259534   1.952   5.124   1.059
85901SOL     OW59535   9.209  13.134   0.973
85901SOL    HW159536   9.277  13.167   1.032
85901SOL    HW259537   9.194  13.044   1.001
85902SOL     OW59538   9.432  12.941   4.881
85902SOL    HW159539   9.458  12.860   4.835
85902SOL    HW259540   9.497  12.951   4.950
85903SOL     OW59541  13.887   2.242   7.381
85903SOL    HW159542  13.884   2.253   7.286
85903SOL    HW259543  13.949   2.171   7.395
85904SOL     OW59544   1.482   0.189   8.726
85904SOL    HW159545   1.492   0.216   8.634
85904SOL    HW259546   1.419   0.251   8.762
85905SOL     OW59547   2.952   2.241  12.694
85905SOL    HW159548   2.934   2.329  12.727
85905SOL    HW259549   3.036   2.218  12.733
85906SOL     OW59550  11.598  10.757   0.957
85906SOL    HW159551  11.645  10.740   0.875
85906SOL    HW259552  11.516  10.798   0.929
85907SOL     OW59553  13.556  10.489   7.062
85907SOL    HW159554  13.559  10.558   7.129
85907SOL    HW259555  13.535  10.535   6.981
85908SOL     OW59556   4.479  11.077   1.112
85908SOL    HW159557   4.544  11.051   1.047
85908SOL    HW259558   4.531  11.109   1.186
85909SOL     OW59559   8.087   0.218  11.157
85909SOL    HW159560   8.113   0.288  11.216
85909SOL    HW259561   8.039   0.156  11.213
85910SOL     OW59562   8.067  14.868   3.075
85910SOL    HW159563   8.063   0.064   3.015
85910SOL    HW259564   8.067   0.029   3.162
85911SOL     OW59565   4.187   6.587   4.788
85911SOL    HW159566   4.274   6.560   4.760
85911SOL    HW259567   4.134   6.581   4.709
85912SOL     OW59568  12.637   6.488   0.552
85912SOL    HW159569  12.551   6.514   0.519
85912SOL    HW259570  12.698   6.512   0.482
85913SOL     OW59571  11.215   1.743   9.778
85913SOL    HW159572  11.259   1.768   9.859
85913SOL    HW259573  11.189   1.652   9.792
85914SOL     OW59574   5.169   6.758  14.162
85914SOL    HW159575   5.098   6.797  14.213
85914SOL    HW259576   5.155   6.663  14.169
85915SOL     OW59577   1.510   7.423   7.641
85915SOL    HW159578   1.488   7.429   7.548
85915SOL    HW259579   1.479   7.337   7.667
85916SOL     OW59580   4.505   9.866   5.399
85916SOL    HW159581   4.482   9.959   5.406
85916SOL    HW259582   4.423   9.823   5.371
85917SOL     OW59583  12.849   0.084  11.711
85917SOL    HW159584  12.897   0.044  11.783
85917SOL    HW259585  12.807   0.010  11.667
85918SOL     OW59586   3.505   3.314   5.035
85918SOL    HW159587   3.520   3.317   4.940
85918SOL    HW259588   3.416   3.281   5.044
85919SOL     OW59589   6.831   8.511  12.134
85919SOL    HW159590   6.838   8.417  12.116
85919SOL    HW259591   6.833   8.517  12.230
85920SOL     OW59592  12.044   1.688   0.144
85920SOL    HW159593  11.998   1.769   0.167
85920SOL    HW259594  11.992   1.649   0.074
85921SOL     OW59595   3.079   6.817  11.233
85921SOL    HW159596   3.031   6.770  11.164
85921SOL    HW259597   3.160   6.768  11.243
85922SOL     OW59598   9.278  11.493   7.877
85922SOL    HW159599   9.299  11.540   7.797
85922SOL    HW259600   9.236  11.559   7.933
85923SOL     OW59601  12.949  10.056   9.464
85923SOL    HW159602  12.937  10.150   9.479
85923SOL    HW259603  12.983  10.051   9.374
85924SOL     OW59604   8.657   3.161   9.901
85924SOL    HW159605   8.616   3.208   9.829
85924SOL    HW259606   8.736   3.123   9.864
85925SOL     OW59607   1.240   3.797  11.463
85925SOL    HW159608   1.314   3.808  11.523
85925SOL    HW259609   1.247   3.706  11.432
85926SOL     OW59610   2.418  14.055  10.748
85926SOL    HW159611   2.436  14.058  10.654
85926SOL    HW259612   2.439  14.143  10.779
85927SOL     OW59613   3.174   2.255   2.686
85927SOL    HW159614   3.080   2.259   2.706
85927SOL    HW259615   3.216   2.282   2.768
85928SOL     OW59616  11.975  11.640   2.968
85928SOL    HW159617  11.968  11.685   3.052
85928SOL    HW259618  11.976  11.710   2.903
85929SOL     OW59619   2.643  14.401   2.906
85929SOL    HW159620   2.659  14.417   2.999
85929SOL    HW259621   2.567  14.343   2.904
85930SOL     OW59622  12.052  13.166   3.490
85930SOL    HW159623  12.014  13.115   3.562
85930SOL    HW259624  12.087  13.099   3.431
85931SOL     OW59625  11.780  10.259   5.674
85931SOL    HW159626  11.746  10.306   5.750
85931SOL    HW259627  11.796  10.327   5.609
85932SOL     OW59628   6.261  10.900   0.546
85932SOL    HW159629   6.272  10.806   0.553
85932SOL    HW259630   6.226  10.927   0.632
85933SOL     OW59631   4.715  14.014   5.609
85933SOL    HW159632   4.769  13.943   5.575
85933SOL    HW259633   4.772  14.058   5.673
85934SOL     OW59634   5.261   2.444   4.712
85934SOL    HW159635   5.255   2.350   4.695
85934SOL    HW259636   5.189   2.462   4.773
85935SOL     OW59637   2.971   6.020  14.692
85935SOL    HW159638   2.914   6.088  14.728
85935SOL    HW259639   2.920   5.939  14.701
85936SOL     OW59640   3.879  14.696   1.625
85936SOL    HW159641   3.833  14.717   1.544
85936SOL    HW259642   3.838  14.752   1.691
85937SOL     OW59643  10.778  12.020   8.586
85937SOL    HW159644  10.805  12.110   8.601
85937SOL    HW259645  10.858  11.969   8.595
85938SOL     OW59646  13.487   1.955   7.595
85938SOL    HW159647  13.443   1.910   7.523
85938SOL    HW259648  13.432   2.031   7.614
85939SOL     OW59649  12.463  11.432   5.791
85939SOL    HW159650  12.453  11.378   5.713
85939SOL    HW259651  12.513  11.378   5.852
85940SOL     OW59652   9.320  10.282   1.280
85940SOL    HW159653   9.386  10.250   1.218
85940SOL    HW259654   9.241  10.232   1.259
85941SOL     OW59655   3.074   3.225  13.123
85941SOL    HW159656   2.999   3.271  13.087
85941SOL    HW259657   3.038   3.173  13.195
85942SOL     OW59658   4.745   3.301   8.124
85942SOL    HW159659   4.798   3.241   8.072
85942SOL    HW259660   4.802   3.328   8.197
85943SOL     OW59661  13.784   9.191   7.062
85943SOL    HW159662  13.772   9.131   7.136
85943SOL    HW259663  13.862   9.158   7.018
85944SOL     OW59664  14.034   2.414  10.089
85944SOL    HW159665  13.989   2.491  10.055
85944SOL    HW259666  13.974   2.377  10.153
85945SOL     OW59667   3.904   5.349  12.077
85945SOL    HW159668   3.857   5.274  12.113
85945SOL    HW259669   3.895   5.339  11.982
85946SOL     OW59670  11.914  13.869  14.653
85946SOL    HW159671  11.913  13.867  14.558
85946SOL    HW259672  11.848  13.804  14.679
85947SOL     OW59673   6.879   2.108   3.234
85947SOL    HW159674   6.944   2.131   3.301
85947SOL    HW259675   6.863   2.015   3.248
85948SOL     OW59676   6.836   5.090   0.919
85948SOL    HW159677   6.894   5.054   0.986
85948SOL    HW259678   6.867   5.051   0.837
85949SOL     OW59679   0.955   8.891   0.699
85949SOL    HW159680   0.867   8.910   0.667
85949SOL    HW259681   1.012   8.908   0.623
85950SOL     OW59682  11.574  14.482   1.763
85950SOL    HW159683  11.552  14.572   1.787
85950SOL    HW259684  11.497  14.431   1.792
85951SOL     OW59685   3.861  11.295   3.365
85951SOL    HW159686   3.799  11.227   3.391
85951SOL    HW259687   3.883  11.340   3.446
85952SOL     OW59688  13.634   9.606   7.439
85952SOL    HW159689  13.708   9.565   7.394
85952SOL    HW259690  13.608   9.543   7.505
85953SOL     OW59691   1.163   7.721   1.723
85953SOL    HW159692   1.218   7.756   1.794
85953SOL    HW259693   1.172   7.784   1.652
85954SOL     OW59694   6.529  12.113   1.056
85954SOL    HW159695   6.520  12.208   1.068
85954SOL    HW259696   6.446  12.087   1.014
85955SOL     OW59697  13.491  11.538   4.675
85955SOL    HW159698  13.408  11.544   4.723
85955SOL    HW259699  13.548  11.486   4.732
85956SOL     OW59700  10.328   8.861   3.582
85956SOL    HW159701  10.241   8.867   3.542
85956SOL    HW259702  10.316   8.894   3.671
85957SOL     OW59703  12.094   7.979   6.805
85957SOL    HW159704  12.110   8.053   6.746
85957SOL    HW259705  12.108   8.016   6.893
85958SOL     OW59706   5.641  14.081  10.432
85958SOL    HW159707   5.586  14.003  10.442
85958SOL    HW259708   5.614  14.139  10.503
85959SOL     OW59709   3.609   2.654   5.392
85959SOL    HW159710   3.632   2.660   5.485
85959SOL    HW259711   3.658   2.578   5.360
85960SOL     OW59712   9.431   8.907   4.185
85960SOL    HW159713   9.474   8.832   4.226
85960SOL    HW259714   9.473   8.983   4.225
85961SOL     OW59715   7.728   2.627   2.955
85961SOL    HW159716   7.697   2.715   2.933
85961SOL    HW259717   7.821   2.628   2.932
85962SOL     OW59718  14.699   7.763   0.820
85962SOL    HW159719  14.691   7.676   0.859
85962SOL    HW259720  14.644   7.819   0.875
85963SOL     OW59721   8.363   2.423   7.468
85963SOL    HW159722   8.439   2.373   7.499
85963SOL    HW259723   8.350   2.390   7.379
85964SOL     OW59724   7.435   8.179   4.800
85964SOL    HW159725   7.415   8.106   4.859
85964SOL    HW259726   7.432   8.257   4.855
85965SOL     OW59727  10.439  14.852   3.821
85965SOL    HW159728  10.354   0.009   3.796
85965SOL    HW259729  10.479  14.827   3.738
85966SOL     OW59730   9.140  10.165   8.898
85966SOL    HW159731   9.073  10.140   8.961
85966SOL    HW259732   9.121  10.113   8.820
85967SOL     OW59733  13.650   0.564  13.902
85967SOL    HW159734  13.574   0.621  13.916
85967SOL    HW259735  13.620   0.501  13.837
85968SOL     OW59736   2.245   7.225   2.886
85968SOL    HW159737   2.307   7.296   2.869
85968SOL    HW259738   2.275   7.186   2.968
85969SOL     OW59739   1.210   2.342   4.346
85969SOL    HW159740   1.240   2.397   4.418
85969SOL    HW259741   1.290   2.310   4.305
85970SOL     OW59742   8.332  14.526  12.431
85970SOL    HW159743   8.332  14.596  12.365
85970SOL    HW259744   8.392  14.557  12.499
85971SOL     OW59745   4.244   6.320  12.877
85971SOL    HW159746   4.237   6.415  12.884
85971SOL    HW259747   4.182   6.296  12.809
85972SOL     OW59748   0.140  14.515   6.336
85972SOL    HW159749   0.075  14.507   6.266
85972SOL    HW259750   0.158  14.609   6.342
85973SOL     OW59751   3.624   9.887  11.815
85973SOL    HW159752   3.569   9.964  11.829
85973SOL    HW259753   3.641   9.854  11.903
85974SOL     OW59754   1.610   2.291  10.609
85974SOL    HW159755   1.635   2.374  10.649
85974SOL    HW259756   1.629   2.225  10.675
85975SOL     OW59757   4.823   3.092  11.421
85975SOL    HW159758   4.729   3.113  11.418
85975SOL    HW259759   4.837   3.053  11.507
85976SOL     OW59760   7.905   9.126   9.466
85976SOL    HW159761   7.894   9.079   9.548
85976SOL    HW259762   7.870   9.068   9.399
85977SOL     OW59763  12.837   6.756   4.514
85977SOL    HW159764  12.855   6.809   4.592
85977SOL    HW259765  12.822   6.820   4.445
85978SOL     OW59766   7.762   0.321  10.637
85978SOL    HW159767   7.805   0.284  10.714
85978SOL    HW259768   7.720   0.246  10.594
85979SOL     OW59769   7.652   5.040   8.839
85979SOL    HW159770   7.559   5.047   8.862
85979SOL    HW259771   7.698   5.089   8.907
85980SOL     OW59772   5.271  12.204  13.584
85980SOL    HW159773   5.332  12.247  13.645
85980SOL    HW259774   5.283  12.110  13.601
85981SOL     OW59775   5.664  12.735   2.512
85981SOL    HW159776   5.649  12.824   2.545
85981SOL    HW259777   5.592  12.720   2.452
85982SOL     OW59778  13.246   0.499  11.989
85982SOL    HW159779  13.154   0.527  11.985
85982SOL    HW259780  13.261   0.455  11.905
85983SOL     OW59781   3.300   7.299   0.388
85983SOL    HW159782   3.331   7.314   0.477
85983SOL    HW259783   3.216   7.345   0.383
85984SOL     OW59784   8.834   6.478   2.576
85984SOL    HW159785   8.771   6.548   2.591
85984SOL    HW259786   8.916   6.509   2.615
85985SOL     OW59787   6.497   0.357   5.891
85985SOL    HW159788   6.510   0.436   5.839
85985SOL    HW259789   6.408   0.328   5.869
85986SOL     OW59790  14.680  13.463  10.998
85986SOL    HW159791  14.734  13.479  11.075
85986SOL    HW259792  14.701  13.373  10.972
85987SOL     OW59793  11.235  10.350   9.792
85987SOL    HW159794  11.204  10.377   9.705
85987SOL    HW259795  11.307  10.289   9.773
85988SOL     OW59796   4.110  11.274   0.883
85988SOL    HW159797   4.128  11.226   0.802
85988SOL    HW259798   4.050  11.218   0.932
85989SOL     OW59799   8.306   7.793  11.332
85989SOL    HW159800   8.313   7.865  11.395
85989SOL    HW259801   8.312   7.714  11.386
85990SOL     OW59802   8.015   3.730   7.787
85990SOL    HW159803   7.946   3.712   7.722
85990SOL    HW259804   8.093   3.746   7.735
85991SOL     OW59805  14.382  13.317   4.593
85991SOL    HW159806  14.347  13.247   4.648
85991SOL    HW259807  14.390  13.277   4.506
85992SOL     OW59808   9.520   5.064   0.424
85992SOL    HW159809   9.513   5.143   0.371
85992SOL    HW259810   9.612   5.040   0.420
85993SOL     OW59811   3.708   5.249   9.235
85993SOL    HW159812   3.714   5.182   9.303
85993SOL    HW259813   3.741   5.206   9.156
85994SOL     OW59814   5.559  13.905   7.731
85994SOL    HW159815   5.555  13.880   7.823
85994SOL    HW259816   5.514  13.989   7.727
85995SOL     OW59817   6.306   5.838   7.596
85995SOL    HW159818   6.364   5.783   7.649
85995SOL    HW259819   6.323   5.927   7.627
85996SOL     OW59820   8.413   8.974   3.593
85996SOL    HW159821   8.357   9.008   3.523
85996SOL    HW259822   8.473   9.047   3.613
85997SOL     OW59823  13.852   5.536   3.430
85997SOL    HW159824  13.895   5.509   3.349
85997SOL    HW259825  13.924   5.542   3.494
85998SOL     OW59826  10.091   0.838  10.503
85998SOL    HW159827  10.089   0.806  10.413
85998SOL    HW259828  10.094   0.759  10.557
85999SOL     OW59829   4.419   4.089   1.631
85999SOL    HW159830   4.397   3.999   1.606
85999SOL    HW259831   4.335   4.133   1.640
86000SOL     OW59832   8.226  12.233   1.514
86000SOL    HW159833   8.181  12.198   1.591
86000SOL    HW259834   8.158  12.282   1.467
86001SOL     OW59835   6.932   3.884   5.094
86001SOL    HW159836   6.976   3.803   5.119
86001SOL    HW259837   6.994   3.927   5.034
86002SOL     OW59838   6.517  10.778   8.255
86002SOL    HW159839   6.540  10.737   8.339
86002SOL    HW259840   6.601  10.797   8.214
86003SOL     OW59841  13.786   8.978  10.934
86003SOL    HW159842  13.826   9.065  10.937
86003SOL    HW259843  13.835   8.927  10.999
86004SOL     OW59844  10.395   0.058   1.912
86004SOL    HW159845  10.304   0.031   1.898
86004SOL    HW259846  10.390   0.153   1.923
86005SOL     OW59847   9.953  14.639   9.443
86005SOL    HW159848   9.962  14.544   9.442
86005SOL    HW259849   9.974  14.666   9.353
86006SOL     OW59850   4.366   5.592  13.611
86006SOL    HW159851   4.444   5.537  13.612
86006SOL    HW259852   4.371   5.639  13.527
86007SOL     OW59853  11.915  13.061  10.000
86007SOL    HW159854  12.005  13.079  10.029
86007SOL    HW259855  11.876  13.011  10.071
86008SOL     OW59856  11.931  11.088  11.446
86008SOL    HW159857  11.937  11.134  11.529
86008SOL    HW259858  11.839  11.098  11.419
86009SOL     OW59859   7.807   9.340  11.637
86009SOL    HW159860   7.726   9.376  11.602
86009SOL    HW259861   7.782   9.254  11.672
86010SOL     OW59862   8.701   0.448   2.569
86010SOL    HW159863   8.785   0.493   2.557
86010SOL    HW259864   8.684   0.408   2.484
86011SOL     OW59865   5.772   1.906  14.381
86011SOL    HW159866   5.836   1.839  14.359
86011SOL    HW259867   5.818   1.966  14.439
86012SOL     OW59868  14.417   0.740   6.249
86012SOL    HW159869  14.508   0.712   6.257
86012SOL    HW259870  14.379   0.679   6.185
86013SOL     OW59871   8.252   2.580   2.457
86013SOL    HW159872   8.313   2.588   2.530
86013SOL    HW259873   8.239   2.486   2.446
86014SOL     OW59874   9.385   9.714   8.143
86014SOL    HW159875   9.402   9.806   8.119
86014SOL    HW259876   9.291   9.712   8.161
86015SOL     OW59877   9.405   1.733   7.141
86015SOL    HW159878   9.322   1.759   7.180
86015SOL    HW259879   9.389   1.733   7.047
86016SOL     OW59880   5.881   2.074   8.426
86016SOL    HW159881   5.884   2.054   8.332
86016SOL    HW259882   5.896   1.989   8.468
86017SOL     OW59883   6.010  11.146   8.335
86017SOL    HW159884   6.062  11.220   8.368
86017SOL    HW259885   6.071  11.094   8.284
86018SOL     OW59886   5.439  10.032   9.235
86018SOL    HW159887   5.423   9.993   9.149
86018SOL    HW259888   5.437   9.958   9.296
86019SOL     OW59889  14.339   5.894   3.038
86019SOL    HW159890  14.428   5.869   3.013
86019SOL    HW259891  14.348   5.921   3.130
86020SOL     OW59892   9.930   5.559  14.528
86020SOL    HW159893   9.860   5.495  14.541
86020SOL    HW259894   9.889   5.643  14.547
86021SOL     OW59895   7.249   0.508  12.327
86021SOL    HW159896   7.271   0.582  12.270
86021SOL    HW259897   7.156   0.519  12.345
86022SOL     OW59898   1.131  12.328   5.163
86022SOL    HW159899   1.158  12.365   5.079
86022SOL    HW259900   1.072  12.393   5.200
86023SOL     OW59901  10.360  14.461  12.915
86023SOL    HW159902  10.430  14.519  12.946
86023SOL    HW259903  10.304  14.449  12.992
86024SOL     OW59904   5.947  14.751   1.593
86024SOL    HW159905   5.869  14.766   1.647
86024SOL    HW259906   6.019  14.788   1.645
86025SOL     OW59907   0.160   1.814   9.003
86025SOL    HW159908   0.124   1.732   8.968
86025SOL    HW259909   0.083   1.866   9.027
86026SOL     OW59910  14.326   3.486   7.572
86026SOL    HW159911  14.418   3.482   7.598
86026SOL    HW259912  14.326   3.464   7.479
86027SOL     OW59913   2.628  10.095  11.841
86027SOL    HW159914   2.552  10.093  11.782
86027SOL    HW259915   2.691  10.152  11.797
86028SOL     OW59916   9.316   5.485   0.546
86028SOL    HW159917   9.229   5.516   0.523
86028SOL    HW259918   9.366   5.490   0.464
86029SOL     OW59919   5.854  10.029   8.182
86029SOL    HW159920   5.942   9.995   8.162
86029SOL    HW259921   5.796   9.982   8.122
86030SOL     OW59922   3.806   5.860   9.378
86030SOL    HW159923   3.877   5.824   9.325
86030SOL    HW259924   3.756   5.783   9.405
86031SOL     OW59925   1.002  13.780   1.409
86031SOL    HW159926   0.929  13.724   1.435
86031SOL    HW259927   1.000  13.853   1.471
86032SOL     OW59928   3.464   0.429   9.167
86032SOL    HW159929   3.504   0.444   9.082
86032SOL    HW259930   3.536   0.437   9.230
86033SOL     OW59931   0.193   5.399   2.080
86033SOL    HW159932   0.186   5.480   2.130
86033SOL    HW259933   0.191   5.427   1.989
86034SOL     OW59934  12.292   1.830   3.927
86034SOL    HW159935  12.276   1.793   3.840
86034SOL    HW259936  12.381   1.866   3.921
86035SOL     OW59937   1.195   4.435   3.943
86035SOL    HW159938   1.225   4.392   3.863
86035SOL    HW259939   1.104   4.459   3.924
86036SOL     OW59940  11.852   5.173   2.681
86036SOL    HW159941  11.882   5.087   2.651
86036SOL    HW259942  11.876   5.175   2.774
86037SOL     OW59943   4.588   5.687   8.327
86037SOL    HW159944   4.536   5.672   8.406
86037SOL    HW259945   4.654   5.751   8.354
86038SOL     OW59946   5.110  14.187   4.124
86038SOL    HW159947   5.148  14.128   4.060
86038SOL    HW259948   5.173  14.258   4.133
86039SOL     OW59949  14.109   1.494   6.958
86039SOL    HW159950  14.093   1.583   6.927
86039SOL    HW259951  14.199   1.494   6.988
86040SOL     OW59952   5.805   9.512   6.264
86040SOL    HW159953   5.872   9.580   6.260
86040SOL    HW259954   5.852   9.431   6.248
86041SOL     OW59955   4.617   3.637  14.349
86041SOL    HW159956   4.605   3.704  14.281
86041SOL    HW259957   4.568   3.670  14.424
86042SOL     OW59958   5.878  13.006  12.689
86042SOL    HW159959   5.821  13.016  12.765
86042SOL    HW259960   5.962  12.979  12.725
86043SOL     OW59961   1.826   5.525   1.330
86043SOL    HW159962   1.868   5.490   1.409
86043SOL    HW259963   1.816   5.619   1.348
86044SOL     OW59964  11.985   0.577  11.554
86044SOL    HW159965  11.998   0.486  11.530
86044SOL    HW259966  11.908   0.605  11.503
86045SOL     OW59967   0.956  10.284   5.164
86045SOL    HW159968   0.944  10.355   5.102
86045SOL    HW259969   0.954  10.326   5.250
86046SOL     OW59970   6.875   5.647   9.189
86046SOL    HW159971   6.851   5.725   9.139
86046SOL    HW259972   6.910   5.586   9.124
86047SOL     OW59973  13.866   2.320   1.154
86047SOL    HW159974  13.838   2.248   1.210
86047SOL    HW259975  13.814   2.395   1.185
86048SOL     OW59976  11.258   0.811   8.087
86048SOL    HW159977  11.254   0.757   8.166
86048SOL    HW259978  11.295   0.895   8.117
86049SOL     OW59979   3.865   9.695   8.063
86049SOL    HW159980   3.914   9.614   8.080
86049SOL    HW259981   3.929   9.754   8.024
86050SOL     OW59982   0.709   0.891  12.454
86050SOL    HW159983   0.735   0.950  12.525
86050SOL    HW259984   0.716   0.803  12.492
86051SOL     OW59985   0.031   9.649   9.297
86051SOL    HW159986  14.868   9.724   9.337
86051SOL    HW259987  14.838   9.594   9.265
86052SOL     OW59988   5.084   4.136   3.264
86052SOL    HW159989   5.020   4.207   3.254
86052SOL    HW259990   5.072   4.106   3.354
86053SOL     OW59991   7.326   1.386   2.610
86053SOL    HW159992   7.276   1.312   2.644
86053SOL    HW259993   7.329   1.372   2.515
86054SOL     OW59994   8.713   5.743   3.635
86054SOL    HW159995   8.802   5.708   3.629
86054SOL    HW259996   8.718   5.828   3.592
86055SOL     OW59997   7.490  12.294  13.667
86055SOL    HW159998   7.496  12.332  13.754
86055SOL    HW259999   7.550  12.345  13.613
86056SOL     OW60000  12.593   1.172  11.847
86056SOL    HW160001  12.528   1.219  11.899
86056SOL    HW260002  12.546   1.141  11.771
86057SOL     OW60003   6.315  11.926   3.370
86057SOL    HW160004   6.298  11.992   3.303
86057SOL    HW260005   6.403  11.946   3.402
86058SOL     OW60006  14.369   9.354  11.278
86058SOL    HW160007  14.357   9.396  11.192
86058SOL    HW260008  14.425   9.278  11.260
86059SOL     OW60009   5.561   3.630   2.842
86059SOL    HW160010   5.568   3.535   2.854
86059SOL    HW260011   5.584   3.667   2.927
86060SOL     OW60012   5.723   0.213   7.657
86060SOL    HW160013   5.676   0.295   7.643
86060SOL    HW260014   5.655   0.146   7.662
86061SOL     OW60015  13.757   7.583   1.124
86061SOL    HW160016  13.815   7.658   1.134
86061SOL    HW260017  13.809   7.508   1.152
86062SOL     OW60018  13.387   4.717   2.176
86062SOL    HW160019  13.338   4.709   2.258
86062SOL    HW260020  13.429   4.803   2.181
86063SOL     OW60021   5.127   2.528  10.934
86063SOL    HW160022   5.100   2.587  11.004
86063SOL    HW260023   5.055   2.532  10.871
86064SOL     OW60024  13.728   8.318  11.053
86064SOL    HW160025  13.773   8.317  11.137
86064SOL    HW260026  13.798   8.320  10.988
86065SOL     OW60027  12.022   3.564  11.615
86065SOL    HW160028  12.100   3.567  11.671
86065SOL    HW260029  11.998   3.471  11.613
86066SOL     OW60030  11.006   2.856   9.502
86066SOL    HW160031  10.974   2.767   9.515
86066SOL    HW260032  11.100   2.846   9.486
86067SOL     OW60033   4.928   5.591  14.714
86067SOL    HW160034   4.923   5.673  14.666
86067SOL    HW260035   4.929   5.523  14.647
86068SOL     OW60036  14.792   2.045   6.527
86068SOL    HW160037  14.741   2.123   6.502
86068SOL    HW260038  14.786   2.043   6.623
86069SOL     OW60039  13.335   1.307   3.214
86069SOL    HW160040  13.420   1.346   3.234
86069SOL    HW260041  13.333   1.227   3.267
86070SOL     OW60042   6.583   4.834   3.224
86070SOL    HW160043   6.509   4.890   3.250
86070SOL    HW260044   6.551   4.745   3.236
86071SOL     OW60045   4.424   3.462   9.295
86071SOL    HW160046   4.465   3.541   9.260
86071SOL    HW260047   4.330   3.483   9.298
86072SOL     OW60048  11.782  14.748   7.406
86072SOL    HW160049  11.735  14.797   7.473
86072SOL    HW260050  11.727  14.756   7.328
86073SOL     OW60051   0.934   0.907   9.567
86073SOL    HW160052   0.867   0.900   9.499
86073SOL    HW260053   1.016   0.882   9.524
86074SOL     OW60054  12.925   6.593   1.633
86074SOL    HW160055  12.987   6.523   1.611
86074SOL    HW260056  12.887   6.566   1.716
86075SOL     OW60057  13.716  13.120   6.668
86075SOL    HW160058  13.649  13.054   6.684
86075SOL    HW260059  13.704  13.186   6.736
86076SOL     OW60060  11.569   3.570  13.199
86076SOL    HW160061  11.603   3.579  13.110
86076SOL    HW260062  11.635   3.613  13.254
86077SOL     OW60063   6.716   7.569  13.274
86077SOL    HW160064   6.656   7.495  13.287
86077SOL    HW260065   6.801   7.536  13.303
86078SOL     OW60066   6.923   7.784   7.876
86078SOL    HW160067   6.937   7.878   7.878
86078SOL    HW260068   6.901   7.764   7.785
86079SOL     OW60069   3.271   9.949   8.476
86079SOL    HW160070   3.235   9.955   8.565
86079SOL    HW260071   3.331   9.874   8.479
86080SOL     OW60072   2.880   6.666   9.688
86080SOL    HW160073   2.812   6.715   9.734
86080SOL    HW260074   2.886   6.709   9.603
86081SOL     OW60075   9.060   8.898   9.238
86081SOL    HW160076   9.057   8.899   9.142
86081SOL    HW260077   9.118   8.825   9.259
86082SOL     OW60078   2.972   5.618  13.691
86082SOL    HW160079   2.920   5.698  13.696
86082SOL    HW260080   3.008   5.617  13.603
86083SOL     OW60081   2.956   2.661   8.432
86083SOL    HW160082   3.028   2.719   8.457
86083SOL    HW260083   2.940   2.608   8.511
86084SOL     OW60084   1.154  12.965  14.710
86084SOL    HW160085   1.225  12.971  14.647
86084SOL    HW260086   1.124  12.874  14.704
86085SOL     OW60087   9.970   7.691  11.347
86085SOL    HW160088   9.885   7.731  11.363
86085SOL    HW260089   9.951   7.599  11.331
86086SOL     OW60090  11.742   2.565   5.041
86086SOL    HW160091  11.821   2.511   5.036
86086SOL    HW260092  11.677   2.516   4.989
86087SOL     OW60093   0.249  13.706   6.401
86087SOL    HW160094   0.252  13.802   6.404
86087SOL    HW260095   0.339  13.679   6.386
86088SOL     OW60096  11.661   7.139   5.237
86088SOL    HW160097  11.723   7.152   5.165
86088SOL    HW260098  11.575   7.157   5.198
86089SOL     OW60099   5.257   3.212   3.650
86089SOL    HW160100   5.343   3.201   3.691
86089SOL    HW260101   5.238   3.127   3.611
86090SOL     OW60102   4.407   9.803   6.887
86090SOL    HW160103   4.342   9.739   6.859
86090SOL    HW260104   4.363   9.854   6.956
86091SOL     OW60105  14.326  11.344  10.733
86091SOL    HW160106  14.339  11.439  10.728
86091SOL    HW260107  14.318  11.316  10.642
86092SOL     OW60108   9.362   8.137  13.468
86092SOL    HW160109   9.269   8.140  13.446
86092SOL    HW260110   9.372   8.059  13.521
86093SOL     OW60111   1.399   9.285  13.295
86093SOL    HW160112   1.316   9.313  13.256
86093SOL    HW260113   1.386   9.193  13.316
86094SOL     OW60114   8.150   9.842   2.178
86094SOL    HW160115   8.160   9.747   2.170
86094SOL    HW260116   8.059   9.859   2.155
86095SOL     OW60117   0.290   1.212   2.574
86095SOL    HW160118   0.264   1.218   2.482
86095SOL    HW260119   0.208   1.219   2.623
86096SOL     OW60120   4.336   2.116   8.233
86096SOL    HW160121   4.431   2.126   8.227
86096SOL    HW260122   4.309   2.092   8.144
86097SOL     OW60123   1.319   0.434  13.910
86097SOL    HW160124   1.254   0.470  13.850
86097SOL    HW260125   1.269   0.408  13.987
86098SOL     OW60126  10.597  14.708  10.043
86098SOL    HW160127  10.608  14.614  10.028
86098SOL    HW260128  10.677  14.747  10.008
86099SOL     OW60129   3.972   2.917   0.707
86099SOL    HW160130   4.045   2.856   0.710
86099SOL    HW260131   3.905   2.878   0.763
86100SOL     OW60132   2.792  12.010  12.868
86100SOL    HW160133   2.763  11.973  12.785
86100SOL    HW260134   2.883  11.981  12.877
86101SOL     OW60135   7.204   9.055  12.566
86101SOL    HW160136   7.196   8.962  12.543
86101SOL    HW260137   7.208   9.056  12.662
86102SOL     OW60138   4.635   2.004   9.563
86102SOL    HW160139   4.545   2.028   9.586
86102SOL    HW260140   4.652   2.050   9.481
86103SOL     OW60141   8.043   5.181  10.178
86103SOL    HW160142   8.015   5.268  10.150
86103SOL    HW260143   7.969   5.147  10.228
86104SOL     OW60144   3.712   7.474   3.523
86104SOL    HW160145   3.679   7.541   3.583
86104SOL    HW260146   3.683   7.503   3.436
86105SOL     OW60147  14.573  13.956   8.032
86105SOL    HW160148  14.651  13.931   8.082
86105SOL    HW260149  14.552  13.879   7.979
86106SOL     OW60150   5.038   4.253  14.389
86106SOL    HW160151   5.099   4.325  14.370
86106SOL    HW260152   5.077   4.177  14.347
86107SOL     OW60153   1.638  12.220   9.603
86107SOL    HW160154   1.551  12.227   9.642
86107SOL    HW260155   1.652  12.125   9.596
86108SOL     OW60156   5.219   8.466  13.641
86108SOL    HW160157   5.244   8.376  13.662
86108SOL    HW260158   5.163   8.493  13.714
86109SOL     OW60159   2.370   6.679   1.148
86109SOL    HW160160   2.306   6.746   1.171
86109SOL    HW260161   2.454   6.726   1.145
86110SOL     OW60162  13.041  13.088  14.586
86110SOL    HW160163  13.074  13.126  14.505
86110SOL    HW260164  12.948  13.073  14.570
86111SOL     OW60165  12.798   9.836   6.119
86111SOL    HW160166  12.767   9.789   6.042
86111SOL    HW260167  12.845   9.771   6.170
86112SOL     OW60168  12.181   4.939  12.965
86112SOL    HW160169  12.174   5.016  13.022
86112SOL    HW260170  12.107   4.947  12.905
86113SOL     OW60171   5.187  13.949  11.965
86113SOL    HW160172   5.166  13.958  11.872
86113SOL    HW260173   5.278  13.920  11.966
86114SOL     OW60174   3.742   0.182   7.798
86114SOL    HW160175   3.680   0.149   7.733
86114SOL    HW260176   3.825   0.187   7.752
86115SOL     OW60177   9.156   5.117  13.101
86115SOL    HW160178   9.128   5.084  13.016
86115SOL    HW260179   9.079   5.107  13.157
86116SOL     OW60180   7.000   9.348  13.167
86116SOL    HW160181   7.087   9.373  13.136
86116SOL    HW260182   6.986   9.260  13.131
86117SOL     OW60183   2.806   2.018  12.800
86117SOL    HW160184   2.852   2.089  12.756
86117SOL    HW260185   2.725   2.058  12.832
86118SOL     OW60186   6.080  10.211   8.368
86118SOL    HW160187   6.153  10.162   8.406
86118SOL    HW260188   6.043  10.261   8.441
86119SOL     OW60189   7.637   4.273   9.130
86119SOL    HW160190   7.571   4.334   9.097
86119SOL    HW260191   7.720   4.316   9.111
86120SOL     OW60192  12.077   3.105  11.625
86120SOL    HW160193  12.051   3.033  11.682
86120SOL    HW260194  12.170   3.119  11.645
86121SOL     OW60195   7.320   4.527   7.299
86121SOL    HW160196   7.394   4.570   7.257
86121SOL    HW260197   7.360   4.470   7.365
86122SOL     OW60198   7.673  12.533   3.788
86122SOL    HW160199   7.676  12.479   3.709
86122SOL    HW260200   7.617  12.484   3.849
86123SOL     OW60201  13.831   8.060   2.691
86123SOL    HW160202  13.776   8.043   2.615
86123SOL    HW260203  13.833   7.977   2.738
86124SOL     OW60204   5.685  10.206  10.400
86124SOL    HW160205   5.707  10.294  10.369
86124SOL    HW260206   5.603  10.217  10.448
86125SOL     OW60207  11.614   3.127  11.889
86125SOL    HW160208  11.646   3.181  11.817
86125SOL    HW260209  11.544   3.180  11.929
86126SOL     OW60210   4.720   7.079   0.082
86126SOL    HW160211   4.803   7.119   0.108
86126SOL    HW260212   4.742   6.988   0.063
86127SOL     OW60213  14.764   2.054   2.515
86127SOL    HW160214  14.671   2.036   2.503
86127SOL    HW260215  14.779   2.136   2.469
86128SOL     OW60216   5.126  10.180  10.992
86128SOL    HW160217   5.083  10.140  10.917
86128SOL    HW260218   5.214  10.201  10.962
86129SOL     OW60219   7.057   0.884   4.940
86129SOL    HW160220   7.147   0.872   4.908
86129SOL    HW260221   7.037   0.975   4.921
86130SOL     OW60222  13.347   7.352   1.268
86130SOL    HW160223  13.293   7.337   1.346
86130SOL    HW260224  13.404   7.275   1.263
86131SOL     OW60225  13.254   8.457  13.613
86131SOL    HW160226  13.348   8.439  13.621
86131SOL    HW260227  13.249   8.530  13.551
86132SOL     OW60228   6.282  14.240  13.400
86132SOL    HW160229   6.189  14.220  13.394
86132SOL    HW260230   6.313  14.188  13.474
86133SOL     OW60231  14.839   1.537  13.032
86133SOL    HW160232   0.022   1.607  13.053
86133SOL    HW260233  14.811   1.503  13.117
86134SOL     OW60234  13.819   3.565  10.005
86134SOL    HW160235  13.852   3.618   9.931
86134SOL    HW260236  13.781   3.629  10.064
86135SOL     OW60237   9.955  13.180   3.470
86135SOL    HW160238  10.030  13.232   3.498
86135SOL    HW260239   9.975  13.091   3.499
86136SOL     OW60240   9.086   4.458   6.887
86136SOL    HW160241   9.051   4.501   6.810
86136SOL    HW260242   9.102   4.529   6.949
86137SOL     OW60243   3.894  10.169   2.884
86137SOL    HW160244   3.903  10.263   2.866
86137SOL    HW260245   3.950  10.153   2.959
86138SOL     OW60246   3.072   4.749  13.751
86138SOL    HW160247   3.150   4.801  13.772
86138SOL    HW260248   3.001   4.814  13.744
86139SOL     OW60249   2.033   5.779   3.816
86139SOL    HW160250   1.995   5.860   3.782
86139SOL    HW260251   1.961   5.737   3.864
86140SOL     OW60252  13.431   2.131   4.625
86140SOL    HW160253  13.382   2.118   4.706
86140SOL    HW260254  13.501   2.192   4.649
86141SOL     OW60255   7.297   3.885   5.398
86141SOL    HW160256   7.382   3.845   5.383
86141SOL    HW260257   7.309   3.942   5.474
86142SOL     OW60258   4.304  14.721  10.091
86142SOL    HW160259   4.237  14.769  10.139
86142SOL    HW260260   4.317  14.641  10.141
86143SOL     OW60261  13.630  14.186  11.393
86143SOL    HW160262  13.608  14.274  11.425
86143SOL    HW260263  13.555  14.132  11.417
86144SOL     OW60264   9.565   8.366   1.964
86144SOL    HW160265   9.547   8.457   1.939
86144SOL    HW260266   9.643   8.342   1.914
86145SOL     OW60267  14.298   7.551  13.028
86145SOL    HW160268  14.347   7.633  13.035
86145SOL    HW260269  14.357   7.492  12.981
86146SOL     OW60270   0.765   4.820   9.028
86146SOL    HW160271   0.750   4.910   9.000
86146SOL    HW260272   0.826   4.828   9.102
86147SOL     OW60273   2.648  11.754  10.248
86147SOL    HW160274   2.613  11.674  10.208
86147SOL    HW260275   2.600  11.761  10.331
86148SOL     OW60276   9.735  14.318   9.318
86148SOL    HW160277   9.820  14.360   9.332
86148SOL    HW260278   9.673  14.369   9.370
86149SOL     OW60279  13.660  13.108   5.884
86149SOL    HW160280  13.697  13.056   5.813
86149SOL    HW260281  13.677  13.056   5.963
86150SOL     OW60282   6.919  14.242   2.022
86150SOL    HW160283   6.836  14.202   2.047
86150SOL    HW260284   6.984  14.203   2.081
86151SOL     OW60285   7.045   9.401  11.271
86151SOL    HW160286   7.121   9.383  11.216
86151SOL    HW260287   7.059   9.348  11.349
86152SOL     OW60288   9.551  13.750  11.895
86152SOL    HW160289   9.555  13.664  11.937
86152SOL    HW260290   9.500  13.735  11.815
86153SOL     OW60291   6.983   8.786   6.617
86153SOL    HW160292   7.035   8.735   6.554
86153SOL    HW260293   7.022   8.873   6.615
86154SOL     OW60294  12.513   3.264   5.975
86154SOL    HW160295  12.571   3.261   5.899
86154SOL    HW260296  12.435   3.311   5.945
86155SOL     OW60297  11.791   7.242   2.902
86155SOL    HW160298  11.766   7.320   2.853
86155SOL    HW260299  11.785   7.171   2.838
86156SOL     OW60300   7.683   4.458  11.673
86156SOL    HW160301   7.766   4.504  11.657
86156SOL    HW260302   7.624   4.526  11.706
86157SOL     OW60303   7.333   7.704  11.941
86157SOL    HW160304   7.378   7.785  11.915
86157SOL    HW260305   7.321   7.714  12.036
86158SOL     OW60306   4.036  10.147   1.691
86158SOL    HW160307   4.010  10.076   1.749
86158SOL    HW260308   4.075  10.213   1.749
86159SOL     OW60309   3.253   9.970   4.666
86159SOL    HW160310   3.337   9.935   4.695
86159SOL    HW260311   3.232   9.920   4.587
86160SOL     OW60312  13.133  10.997   7.208
86160SOL    HW160313  13.138  11.062   7.138
86160SOL    HW260314  13.147  11.047   7.289
86161SOL     OW60315   9.329   7.019  11.085
86161SOL    HW160316   9.321   6.931  11.050
86161SOL    HW260317   9.336   7.007  11.180
86162SOL     OW60318   4.443  10.422  10.720
86162SOL    HW160319   4.442  10.499  10.662
86162SOL    HW260320   4.390  10.357  10.675
86163SOL     OW60321   3.303  13.138   9.033
86163SOL    HW160322   3.316  13.045   9.018
86163SOL    HW260323   3.373  13.164   9.093
86164SOL     OW60324  11.207  13.240  13.221
86164SOL    HW160325  11.243  13.253  13.133
86164SOL    HW260326  11.226  13.321  13.267
86165SOL     OW60327   4.808  11.452  12.216
86165SOL    HW160328   4.831  11.381  12.276
86165SOL    HW260329   4.884  11.510  12.219
86166SOL     OW60330  11.926  10.264   3.790
86166SOL    HW160331  12.021  10.261   3.773
86166SOL    HW260332  11.899  10.350   3.760
86167SOL     OW60333  10.262   1.406  11.195
86167SOL    HW160334  10.241   1.385  11.104
86167SOL    HW260335  10.251   1.501  11.201
86168SOL     OW60336  11.387  11.714   8.175
86168SOL    HW160337  11.335  11.756   8.107
86168SOL    HW260338  11.460  11.673   8.129
86169SOL     OW60339   7.046   6.924  10.741
86169SOL    HW160340   6.990   6.865  10.790
86169SOL    HW260341   7.032   7.010  10.781
86170SOL     OW60342   6.505   4.897  10.651
86170SOL    HW160343   6.462   4.952  10.586
86170SOL    HW260344   6.596   4.925  10.650
86171SOL     OW60345   0.677   4.032   3.696
86171SOL    HW160346   0.593   4.051   3.739
86171SOL    HW260347   0.730   3.990   3.763
86172SOL     OW60348  14.416   1.343  11.969
86172SOL    HW160349  14.410   1.430  12.009
86172SOL    HW260350  14.444   1.285  12.040
86173SOL     OW60351   0.306   0.165   7.293
86173SOL    HW160352   0.306   0.250   7.250
86173SOL    HW260353   0.229   0.167   7.350
86174SOL     OW60354  12.328  10.405   0.162
86174SOL    HW160355  12.364  10.470   0.101
86174SOL    HW260356  12.276  10.457   0.223
86175SOL     OW60357   3.213   6.537   1.120
86175SOL    HW160358   3.295   6.515   1.076
86175SOL    HW260359   3.204   6.471   1.189
86176SOL     OW60360   1.241   1.901  11.753
86176SOL    HW160361   1.313   1.910  11.690
86176SOL    HW260362   1.257   1.817  11.796
86177SOL     OW60363   4.993   2.992   5.642
86177SOL    HW160364   5.073   2.994   5.588
86177SOL    HW260365   4.958   3.081   5.635
86178SOL     OW60366   2.629   5.229   2.204
86178SOL    HW160367   2.688   5.301   2.182
86178SOL    HW260368   2.634   5.170   2.129
86179SOL     OW60369   6.096   3.971   3.823
86179SOL    HW160370   6.178   3.994   3.778
86179SOL    HW260371   6.109   4.002   3.913
86180SOL     OW60372   5.628   5.657   4.076
86180SOL    HW160373   5.642   5.616   4.161
86180SOL    HW260374   5.538   5.691   4.080
86181SOL     OW60375   8.574  12.190   8.695
86181SOL    HW160376   8.489  12.154   8.670
86181SOL    HW260377   8.574  12.279   8.659
86182SOL     OW60378   8.020   0.590   4.369
86182SOL    HW160379   7.989   0.509   4.328
86182SOL    HW260380   8.094   0.562   4.424
86183SOL     OW60381  12.630   3.771  14.225
86183SOL    HW160382  12.722   3.786  14.246
86183SOL    HW260383  12.608   3.689  14.270
86184SOL     OW60384   1.631   0.698   6.475
86184SOL    HW160385   1.641   0.607   6.447
86184SOL    HW260386   1.549   0.700   6.524
86185SOL     OW60387  12.431   4.777   9.009
86185SOL    HW160388  12.399   4.689   8.987
86185SOL    HW260389  12.366   4.836   8.970
86186SOL     OW60390  11.167   5.364  14.472
86186SOL    HW160391  11.161   5.318  14.388
86186SOL    HW260392  11.167   5.295  14.537
86187SOL     OW60393   7.694  14.240   4.203
86187SOL    HW160394   7.752  14.215   4.131
86187SOL    HW260395   7.735  14.318   4.240
86188SOL     OW60396   0.962  14.046   9.668
86188SOL    HW160397   1.020  14.077   9.738
86188SOL    HW260398   0.884  14.101   9.675
86189SOL     OW60399   4.585   8.648  13.425
86189SOL    HW160400   4.517   8.666  13.361
86189SOL    HW260401   4.584   8.724  13.483
86190SOL     OW60402  12.413  10.175   4.961
86190SOL    HW160403  12.440  10.106   5.021
86190SOL    HW260404  12.320  10.189   4.980
86191SOL     OW60405   2.419   2.019   1.615
86191SOL    HW160406   2.475   1.980   1.683
86191SOL    HW260407   2.371   1.945   1.579
86192SOL     OW60408   2.856   5.542  12.453
86192SOL    HW160409   2.765   5.511  12.447
86192SOL    HW260410   2.893   5.493  12.526
86193SOL     OW60411   7.449   1.680   0.901
86193SOL    HW160412   7.452   1.741   0.827
86193SOL    HW260413   7.540   1.652   0.913
86194SOL     OW60414   4.193  12.361   9.897
86194SOL    HW160415   4.279  12.373   9.937
86194SOL    HW260416   4.131  12.368   9.969
86195SOL     OW60417   1.256  10.661   2.228
86195SOL    HW160418   1.304  10.726   2.280
86195SOL    HW260419   1.324  10.600   2.199
86196SOL     OW60420  10.989   6.050   8.933
86196SOL    HW160421  10.956   6.031   8.845
86196SOL    HW260422  10.918   6.023   8.991
86197SOL     OW60423   6.027  11.056   1.100
86197SOL    HW160424   6.069  11.126   1.150
86197SOL    HW260425   6.015  10.985   1.163
86198SOL     OW60426   7.590   9.898  13.933
86198SOL    HW160427   7.499   9.920  13.916
86198SOL    HW260428   7.617   9.957  14.003
86199SOL     OW60429   7.722  14.872   5.865
86199SOL    HW160430   7.681   0.066   5.819
86199SOL    HW260431   7.657  14.844   5.929
86200SOL     OW60432   1.596   1.202   2.099
86200SOL    HW160433   1.616   1.120   2.145
86200SOL    HW260434   1.656   1.203   2.025
86201SOL     OW60435   8.462  12.276   9.356
86201SOL    HW160436   8.499  12.193   9.385
86201SOL    HW260437   8.378  12.283   9.402
86202SOL     OW60438  13.385   0.524   7.994
86202SOL    HW160439  13.311   0.464   7.990
86202SOL    HW260440  13.427   0.517   7.909
86203SOL     OW60441   0.159  10.940  10.437
86203SOL    HW160442   0.105  10.868  10.406
86203SOL    HW260443   0.183  10.989  10.358
86204SOL     OW60444  10.650  12.339   7.829
86204SOL    HW160445  10.632  12.261   7.881
86204SOL    HW260446  10.743  12.357   7.843
86205SOL     OW60447   2.773  12.264   6.332
86205SOL    HW160448   2.741  12.207   6.262
86205SOL    HW260449   2.787  12.349   6.289
86206SOL     OW60450   9.039  13.198   5.983
86206SOL    HW160451   8.947  13.195   5.959
86206SOL    HW260452   9.072  13.110   5.966
86207SOL     OW60453   5.566   0.559   0.300
86207SOL    HW160454   5.472   0.578   0.307
86207SOL    HW260455   5.605   0.643   0.276
86208SOL     OW60456   9.857   6.905   4.238
86208SOL    HW160457   9.917   6.837   4.211
86208SOL    HW260458   9.851   6.895   4.333
86209SOL     OW60459  13.389   8.258  13.927
86209SOL    HW160460  13.471   8.298  13.956
86209SOL    HW260461  13.381   8.178  13.978
86210SOL     OW60462   7.412  13.581   3.661
86210SOL    HW160463   7.412  13.549   3.571
86210SOL    HW260464   7.468  13.659   3.660
86211SOL     OW60465  11.386   5.442   9.216
86211SOL    HW160466  11.381   5.415   9.124
86211SOL    HW260467  11.440   5.521   9.214
86212SOL     OW60468  11.734  14.254   2.332
86212SOL    HW160469  11.674  14.185   2.304
86212SOL    HW260470  11.787  14.273   2.254
86213SOL     OW60471   5.731  11.293   8.298
86213SOL    HW160472   5.660  11.343   8.260
86213SOL    HW260473   5.748  11.335   8.382
86214SOL     OW60474   0.182   0.351  10.468
86214SOL    HW160475   0.192   0.260  10.440
86214SOL    HW260476   0.129   0.346  10.547
86215SOL     OW60477  10.307   5.284  14.505
86215SOL    HW160478  10.397   5.270  14.537
86215SOL    HW260479  10.277   5.197  14.479
86216SOL     OW60480  12.591   9.974  12.226
86216SOL    HW160481  12.643   9.938  12.154
86216SOL    HW260482  12.626   9.934  12.305
86217SOL     OW60483  13.985  14.378   3.542
86217SOL    HW160484  14.045  14.413   3.607
86217SOL    HW260485  13.994  14.283   3.549
86218SOL     OW60486   4.241  10.301  12.996
86218SOL    HW160487   4.200  10.293  13.082
86218SOL    HW260488   4.229  10.393  12.972
86219SOL     OW60489  12.052  11.056   0.318
86219SOL    HW160490  12.121  11.122   0.317
86219SOL    HW260491  12.050  11.024   0.409
86220SOL     OW60492   4.682   7.206   5.254
86220SOL    HW160493   4.607   7.152   5.279
86220SOL    HW260494   4.755   7.144   5.246
86221SOL     OW60495   4.358   6.192  13.393
86221SOL    HW160496   4.365   6.222  13.484
86221SOL    HW260497   4.310   6.261  13.348
86222SOL     OW60498   7.151   6.408  10.633
86222SOL    HW160499   7.241   6.421  10.661
86222SOL    HW260500   7.148   6.443  10.544
86223SOL     OW60501  10.084   4.061   8.530
86223SOL    HW160502  10.141   4.090   8.601
86223SOL    HW260503  10.079   4.136   8.471
86224SOL     OW60504   1.508   5.068  11.962
86224SOL    HW160505   1.552   4.984  11.975
86224SOL    HW260506   1.417   5.046  11.945
86225SOL     OW60507  13.244  10.212   4.445
86225SOL    HW160508  13.327  10.165   4.436
86225SOL    HW260509  13.192  10.158   4.504
86226SOL     OW60510  13.419   2.174   9.307
86226SOL    HW160511  13.404   2.169   9.401
86226SOL    HW260512  13.438   2.084   9.281
86227SOL     OW60513   0.787   0.033   2.736
86227SOL    HW160514   0.837  14.845   2.688
86227SOL    HW260515   0.788   0.110   2.679
86228SOL     OW60516  13.659   0.952   7.935
86228SOL    HW160517  13.566   0.962   7.915
86228SOL    HW260518  13.665   0.870   7.984
86229SOL     OW60519   7.427  10.711  13.203
86229SOL    HW160520   7.438  10.796  13.245
86229SOL    HW260521   7.338  10.713  13.167
86230SOL     OW60522  13.605   3.166   4.560
86230SOL    HW160523  13.602   3.225   4.635
86230SOL    HW260524  13.667   3.098   4.585
86231SOL     OW60525  14.708  10.545   5.887
86231SOL    HW160526  14.794  10.513   5.913
86231SOL    HW260527  14.682  10.489   5.814
86232SOL     OW60528   5.171   8.046  14.205
86232SOL    HW160529   5.263   8.074  14.198
86232SOL    HW260530   5.131   8.075  14.123
86233SOL     OW60531  14.093   8.965  12.697
86233SOL    HW160532  14.149   8.906  12.645
86233SOL    HW260533  14.041   9.012  12.632
86234SOL     OW60534   4.415  14.089   1.550
86234SOL    HW160535   4.380  14.013   1.504
86234SOL    HW260536   4.343  14.152   1.550
86235SOL     OW60537  10.589   2.883  10.920
86235SOL    HW160538  10.573   2.953  10.857
86235SOL    HW260539  10.535   2.906  10.996
86236SOL     OW60540   8.282   2.070   7.500
86236SOL    HW160541   8.305   2.024   7.419
86236SOL    HW260542   8.337   2.149   7.499
86237SOL     OW60543  10.393   3.825   2.231
86237SOL    HW160544  10.458   3.779   2.284
86237SOL    HW260545  10.441   3.853   2.153
86238SOL     OW60546  14.152  14.396   8.863
86238SOL    HW160547  14.144  14.447   8.943
86238SOL    HW260548  14.085  14.433   8.804
86239SOL     OW60549   9.720  11.239   1.348
86239SOL    HW160550   9.652  11.291   1.306
86239SOL    HW260551   9.689  11.227   1.438
86240SOL     OW60552  13.051   7.649   0.559
86240SOL    HW160553  12.987   7.720   0.569
86240SOL    HW260554  13.037   7.594   0.637
86241SOL     OW60555  13.047  10.494  12.585
86241SOL    HW160556  13.042  10.580  12.627
86241SOL    HW260557  12.956  10.471  12.569
86242SOL     OW60558   2.170   9.060  13.477
86242SOL    HW160559   2.206   8.977  13.509
86242SOL    HW260560   2.222   9.127  13.521
86243SOL     OW60561   9.821   9.942  10.606
86243SOL    HW160562   9.735   9.912  10.576
86243SOL    HW260563   9.881   9.871  10.582
86244SOL     OW60564   1.911   2.735   9.389
86244SOL    HW160565   1.914   2.814   9.443
86244SOL    HW260566   1.836   2.686   9.421
86245SOL     OW60567   7.647   0.327   9.488
86245SOL    HW160568   7.617   0.405   9.441
86245SOL    HW260569   7.569   0.273   9.499
86246SOL     OW60570   9.593   9.135   3.046
86246SOL    HW160571   9.664   9.180   3.001
86246SOL    HW260572   9.632   9.055   3.081
86247SOL     OW60573  14.341   8.712  14.738
86247SOL    HW160574  14.257   8.695  14.696
86247SOL    HW260575  14.405   8.706  14.667
86248SOL     OW60576   5.047  13.149   5.722
86248SOL    HW160577   5.001  13.120   5.643
86248SOL    HW260578   5.136  13.115   5.712
86249SOL     OW60579  12.829  13.398   7.574
86249SOL    HW160580  12.838  13.316   7.622
86249SOL    HW260581  12.863  13.378   7.487
86250SOL     OW60582   5.548   0.294  13.079
86250SOL    HW160583   5.595   0.352  13.138
86250SOL    HW260584   5.613   0.230  13.050
86251SOL     OW60585  10.141  12.827  13.424
86251SOL    HW160586  10.091  12.904  13.399
86251SOL    HW260587  10.143  12.773  13.344
86252SOL     OW60588   4.489  14.101   5.244
86252SOL    HW160589   4.536  14.028   5.203
86252SOL    HW260590   4.514  14.178   5.192
86253SOL     OW60591  11.018   7.262   4.082
86253SOL    HW160592  11.059   7.178   4.063
86253SOL    HW260593  10.976   7.249   4.168
86254SOL     OW60594   6.565  11.611  14.019
86254SOL    HW160595   6.474  11.612  14.045
86254SOL    HW260596   6.614  11.613  14.101
86255SOL     OW60597  14.204   7.522   6.963
86255SOL    HW160598  14.211   7.439   7.010
86255SOL    HW260599  14.288   7.532   6.919
86256SOL     OW60600   8.427   5.973   5.259
86256SOL    HW160601   8.492   5.998   5.325
86256SOL    HW260602   8.344   6.009   5.292
86257SOL     OW60603   3.262  14.241  14.243
86257SOL    HW160604   3.256  14.196  14.328
86257SOL    HW260605   3.265  14.170  14.179
86258SOL     OW60606   9.774   0.724  11.851
86258SOL    HW160607   9.782   0.642  11.802
86258SOL    HW260608   9.711   0.705  11.920
86259SOL     OW60609   4.784   5.788   1.256
86259SOL    HW160610   4.807   5.869   1.300
86259SOL    HW260611   4.716   5.749   1.310
86260SOL     OW60612   9.852  13.533   5.247
86260SOL    HW160613   9.931  13.583   5.268
86260SOL    HW260614   9.864  13.506   5.156
86261SOL     OW60615   2.762   9.096   8.028
86261SOL    HW160616   2.691   9.052   8.074
86261SOL    HW260617   2.823   9.122   8.097
86262SOL     OW60618   9.872   5.060   8.806
86262SOL    HW160619   9.796   5.007   8.826
86262SOL    HW260620   9.875   5.126   8.876
86263SOL     OW60621   2.320   1.182   6.784
86263SOL    HW160622   2.295   1.093   6.761
86263SOL    HW260623   2.245   1.235   6.758
86264SOL     OW60624   7.290   0.284  13.037
86264SOL    HW160625   7.269   0.195  13.065
86264SOL    HW260626   7.337   0.272  12.954
86265SOL     OW60627  12.286  13.450  13.574
86265SOL    HW160628  12.205  13.454  13.625
86265SOL    HW260629  12.345  13.396  13.625
86266SOL     OW60630  10.826   3.938  14.376
86266SOL    HW160631  10.903   3.972  14.331
86266SOL    HW260632  10.767   4.013  14.383
86267SOL     OW60633  11.687   2.676   8.065
86267SOL    HW160634  11.754   2.705   8.003
86267SOL    HW260635  11.645   2.602   8.021
86268SOL     OW60636  14.597  11.915   3.069
86268SOL    HW160637  14.519  11.902   3.015
86268SOL    HW260638  14.564  11.949   3.152
86269SOL     OW60639  14.563   4.026   9.997
86269SOL    HW160640  14.606   4.033  10.082
86269SOL    HW260641  14.484   4.080  10.005
86270SOL     OW60642  13.033   2.082   4.720
86270SOL    HW160643  13.067   2.131   4.645
86270SOL    HW260644  12.976   2.015   4.682
86271SOL     OW60645   8.741   5.126   2.923
86271SOL    HW160646   8.780   5.101   2.839
86271SOL    HW260647   8.681   5.197   2.902
86272SOL     OW60648   8.133   0.766  13.908
86272SOL    HW160649   8.192   0.694  13.886
86272SOL    HW260650   8.048   0.725  13.922
86273SOL     OW60651   2.963   5.842   8.472
86273SOL    HW160652   3.040   5.834   8.416
86273SOL    HW260653   2.985   5.793   8.551
86274SOL     OW60654   1.377  12.287   0.060
86274SOL    HW160655   1.351  12.376   0.083
86274SOL    HW260656   1.311  12.231   0.100
86275SOL     OW60657   4.124   2.103   9.795
86275SOL    HW160658   4.041   2.149   9.785
86275SOL    HW260659   4.188   2.160   9.752
86276SOL     OW60660   0.088  13.917   5.598
86276SOL    HW160661   0.181  13.943   5.594
86276SOL    HW260662   0.053  13.965   5.673
86277SOL     OW60663   6.199  10.285   7.418
86277SOL    HW160664   6.217  10.365   7.468
86277SOL    HW260665   6.105  10.269   7.433
86278SOL     OW60666  11.305   6.540   7.013
86278SOL    HW160667  11.218   6.551   7.050
86278SOL    HW260668  11.351   6.484   7.076
86279SOL     OW60669  12.853   9.701   4.982
86279SOL    HW160670  12.823   9.667   5.066
86279SOL    HW260671  12.945   9.675   4.978
86280SOL     OW60672  14.520  10.670   7.218
86280SOL    HW160673  14.483  10.582   7.213
86280SOL    HW260674  14.445  10.726   7.240
86281SOL     OW60675  10.647   8.444   0.189
86281SOL    HW160676  10.684   8.490   0.265
86281SOL    HW260677  10.660   8.352   0.209
86282SOL     OW60678   8.652   3.475   7.347
86282SOL    HW160679   8.706   3.463   7.269
86282SOL    HW260680   8.674   3.563   7.378
86283SOL     OW60681   9.071   5.541  13.218
86283SOL    HW160682   9.031   5.618  13.178
86283SOL    HW260683   9.106   5.491  13.144
86284SOL     OW60684   1.221  12.528   8.757
86284SOL    HW160685   1.262  12.590   8.818
86284SOL    HW260686   1.246  12.559   8.670
86285SOL     OW60687  13.778   5.232  13.238
86285SOL    HW160688  13.829   5.215  13.316
86285SOL    HW260689  13.841   5.228  13.166
86286SOL     OW60690   3.142   5.911  13.780
86286SOL    HW160691   3.053   5.919  13.815
86286SOL    HW260692   3.129   5.892  13.687
86287SOL     OW60693   3.279   6.958  10.260
86287SOL    HW160694   3.263   7.037  10.209
86287SOL    HW260695   3.369   6.968  10.292
86288SOL     OW60696  12.059  13.931  10.694
86288SOL    HW160697  11.996  13.995  10.661
86288SOL    HW260698  12.142  13.979  10.699
86289SOL     OW60699   1.038   6.268   4.300
86289SOL    HW160700   0.960   6.302   4.256
86289SOL    HW260701   1.019   6.175   4.314
86290SOL     OW60702   1.987   0.456  10.885
86290SOL    HW160703   2.056   0.505  10.930
86290SOL    HW260704   1.945   0.520  10.827
86291SOL     OW60705  11.927   1.160  13.727
86291SOL    HW160706  11.869   1.208  13.668
86291SOL    HW260707  11.891   1.175  13.814
86292SOL     OW60708   6.403  11.078   2.483
86292SOL    HW160709   6.418  11.103   2.574
86292SOL    HW260710   6.427  11.155   2.432
86293SOL     OW60711  10.645  10.915   2.544
86293SOL    HW160712  10.602  10.948   2.622
86293SOL    HW260713  10.715  10.859   2.577
86294SOL     OW60714  14.778  14.240  11.681
86294SOL    HW160715  14.785  14.149  11.709
86294SOL    HW260716  14.686  14.263  11.694
86295SOL     OW60717   4.061  10.731   2.390
86295SOL    HW160718   4.037  10.682   2.469
86295SOL    HW260719   4.142  10.688   2.360
86296SOL     OW60720   0.442   1.207  11.837
86296SOL    HW160721   0.360   1.158  11.836
86296SOL    HW260722   0.509   1.140  11.823
86297SOL     OW60723  13.592   9.346   4.654
86297SOL    HW160724  13.625   9.359   4.565
86297SOL    HW260725  13.670   9.334   4.708
86298SOL     OW60726   4.291   8.118  13.778
86298SOL    HW160727   4.296   8.142  13.685
86298SOL    HW260728   4.198   8.126  13.799
86299SOL     OW60729  13.747   0.173   6.126
86299SOL    HW160730  13.758   0.221   6.044
86299SOL    HW260731  13.715   0.238   6.189
86300SOL     OW60732  13.818   5.193  11.264
86300SOL    HW160733  13.746   5.133  11.243
86300SOL    HW260734  13.806   5.214  11.356
86301SOL     OW60735  12.158   6.550  12.231
86301SOL    HW160736  12.207   6.489  12.176
86301SOL    HW260737  12.110   6.494  12.292
86302SOL     OW60738   1.502   4.175  14.033
86302SOL    HW160739   1.412   4.158  14.062
86302SOL    HW260740   1.553   4.181  14.114
86303SOL     OW60741   7.416  13.436  11.772
86303SOL    HW160742   7.423  13.421  11.677
86303SOL    HW260743   7.323  13.453  11.787
86304SOL     OW60744   0.625  14.698  13.437
86304SOL    HW160745   0.636  14.611  13.398
86304SOL    HW260746   0.534  14.720  13.420
86305SOL     OW60747   7.294  11.003   9.866
86305SOL    HW160748   7.289  10.907   9.872
86305SOL    HW260749   7.240  11.035   9.938
86306SOL     OW60750   6.162   7.433  11.091
86306SOL    HW160751   6.250   7.465  11.114
86306SOL    HW260752   6.155   7.449  10.997
86307SOL     OW60753  12.590   3.512   6.204
86307SOL    HW160754  12.573   3.418   6.206
86307SOL    HW260755  12.504   3.553   6.211
86308SOL     OW60756  10.179   0.771   2.268
86308SOL    HW160757  10.251   0.745   2.210
86308SOL    HW260758  10.216   0.764   2.356
86309SOL     OW60759  13.972   5.450   2.338
86309SOL    HW160760  13.966   5.355   2.352
86309SOL    HW260761  13.967   5.488   2.426
86310SOL     OW60762  10.022  12.924  10.162
86310SOL    HW160763  10.001  12.899  10.251
86310SOL    HW260764  10.101  12.875  10.141
86311SOL     OW60765  14.720   0.624  13.559
86311SOL    HW160766  14.812   0.637  13.581
86311SOL    HW260767  14.674   0.644  13.641
86312SOL     OW60768   2.602   7.279   5.190
86312SOL    HW160769   2.634   7.289   5.279
86312SOL    HW260770   2.530   7.341   5.183
86313SOL     OW60771   9.886   4.343   9.050
86313SOL    HW160772   9.901   4.306   9.136
86313SOL    HW260773   9.898   4.270   8.989
86314SOL     OW60774   2.332   1.035   6.457
86314SOL    HW160775   2.336   0.948   6.418
86314SOL    HW260776   2.238   1.054   6.463
86315SOL     OW60777  14.847  13.029   9.558
86315SOL    HW160778  14.868  12.938   9.542
86315SOL    HW260779   0.001  13.046   9.646
86316SOL     OW60780  10.039  11.940   5.963
86316SOL    HW160781  10.056  11.857   6.007
86316SOL    HW260782   9.943  11.949   5.965
86317SOL     OW60783  11.556  12.537   5.959
86317SOL    HW160784  11.606  12.593   5.900
86317SOL    HW260785  11.477  12.516   5.911
86318SOL     OW60786  10.918   8.373  13.804
86318SOL    HW160787  10.930   8.281  13.829
86318SOL    HW260788  10.953   8.378  13.715
86319SOL     OW60789   9.970  13.198   8.969
86319SOL    HW160790  10.051  13.228   9.011
86319SOL    HW260791   9.927  13.278   8.940
86320SOL     OW60792   1.401   6.325   7.876
86320SOL    HW160793   1.307   6.326   7.890
86320SOL    HW260794   1.411   6.321   7.780
86321SOL     OW60795  11.377   7.310   7.707
86321SOL    HW160796  11.295   7.353   7.729
86321SOL    HW260797  11.385   7.239   7.771
86322SOL     OW60798   7.718  10.139   2.799
86322SOL    HW160799   7.753  10.217   2.755
86322SOL    HW260800   7.796  10.087   2.819
86323SOL     OW60801   4.636   1.627  10.073
86323SOL    HW160802   4.676   1.542  10.089
86323SOL    HW260803   4.602   1.622   9.984
86324SOL     OW60804  10.029  11.365   6.576
86324SOL    HW160805  10.050  11.280   6.615
86324SOL    HW260806  10.034  11.350   6.481
86325SOL     OW60807  12.021   7.212  11.301
86325SOL    HW160808  11.941   7.255  11.329
86325SOL    HW260809  12.020   7.127  11.345
86326SOL     OW60810   3.312   3.071   1.529
86326SOL    HW160811   3.356   3.000   1.575
86326SOL    HW260812   3.227   3.079   1.571
86327SOL     OW60813   3.942   2.895   3.506
86327SOL    HW160814   3.897   2.866   3.586
86327SOL    HW260815   3.945   2.990   3.514
86328SOL     OW60816  12.320   0.108  11.683
86328SOL    HW160817  12.227   0.100  11.705
86328SOL    HW260818  12.366   0.096  11.766
86329SOL     OW60819   0.638   8.569   8.857
86329SOL    HW160820   0.581   8.639   8.826
86329SOL    HW260821   0.715   8.615   8.891
86330SOL     OW60822   0.084  12.386  12.064
86330SOL    HW160823   0.106  12.419  11.977
86330SOL    HW260824   0.159  12.332  12.089
86331SOL     OW60825  13.883  14.101  11.011
86331SOL    HW160826  13.926  14.159  11.074
86331SOL    HW260827  13.950  14.037  10.988
86332SOL     OW60828   9.060   2.012   5.681
86332SOL    HW160829   8.993   1.964   5.730
86332SOL    HW260830   9.115   1.944   5.642
86333SOL     OW60831   8.835   3.181   8.122
86333SOL    HW160832   8.846   3.253   8.183
86333SOL    HW260833   8.922   3.170   8.082
86334SOL     OW60834   4.678   4.197   9.276
86334SOL    HW160835   4.703   4.247   9.198
86334SOL    HW260836   4.590   4.228   9.297
86335SOL     OW60837   7.978  14.109   9.380
86335SOL    HW160838   7.989  14.192   9.334
86335SOL    HW260839   8.056  14.102   9.436
86336SOL     OW60840   7.057  11.255   8.815
86336SOL    HW160841   7.007  11.218   8.742
86336SOL    HW260842   6.990  11.291   8.874
86337SOL     OW60843   2.557   7.898   9.304
86337SOL    HW160844   2.467   7.922   9.281
86337SOL    HW260845   2.609   7.929   9.230
86338SOL     OW60846  12.105   1.377   4.582
86338SOL    HW160847  12.041   1.306   4.583
86338SOL    HW260848  12.190   1.334   4.575
86339SOL     OW60849  11.677  12.961   7.741
86339SOL    HW160850  11.767  12.932   7.755
86339SOL    HW260851  11.624  12.887   7.771
86340SOL     OW60852  13.115   6.888  14.703
86340SOL    HW160853  13.111   6.957  14.637
86340SOL    HW260854  13.197   6.843  14.686
86341SOL     OW60855   6.647   4.930   4.415
86341SOL    HW160856   6.625   4.870   4.343
86341SOL    HW260857   6.728   4.894   4.452
86342SOL     OW60858  12.400  12.965  10.820
86342SOL    HW160859  12.375  12.963  10.912
86342SOL    HW260860  12.493  12.986  10.821
86343SOL     OW60861  12.600   8.462   7.548
86343SOL    HW160862  12.569   8.420   7.467
86343SOL    HW260863  12.558   8.413   7.618
86344SOL     OW60864  11.411   1.276   3.306
86344SOL    HW160865  11.467   1.319   3.241
86344SOL    HW260866  11.442   1.310   3.390
86345SOL     OW60867   9.547   7.682   9.662
86345SOL    HW160868   9.583   7.631   9.590
86345SOL    HW260869   9.539   7.620   9.734
86346SOL     OW60870   1.141  10.758  14.790
86346SOL    HW160871   1.137  10.804  14.706
86346SOL    HW260872   1.058  10.711  14.796
86347SOL     OW60873   9.667   0.670  12.106
86347SOL    HW160874   9.659   0.612  12.182
86347SOL    HW260875   9.577   0.698  12.088
86348SOL     OW60876   9.983   2.795   3.044
86348SOL    HW160877   9.899   2.839   3.035
86348SOL    HW260878   9.977   2.747   3.127
86349SOL     OW60879   9.154  12.483   2.324
86349SOL    HW160880   9.140  12.394   2.289
86349SOL    HW260881   9.188  12.532   2.249
86350SOL     OW60882   3.898   0.186   0.342
86350SOL    HW160883   3.965   0.212   0.279
86350SOL    HW260884   3.899   0.090   0.340
86351SOL     OW60885  12.378  13.237   6.213
86351SOL    HW160886  12.320  13.194   6.276
86351SOL    HW260887  12.357  13.330   6.222
86352SOL     OW60888   0.292   7.880  13.941
86352SOL    HW160889   0.262   7.938  13.870
86352SOL    HW260890   0.214   7.831  13.967
86353SOL     OW60891   2.096   4.992  10.504
86353SOL    HW160892   2.182   4.958  10.478
86353SOL    HW260893   2.072   5.052  10.433
86354SOL     OW60894   4.766   4.372   5.309
86354SOL    HW160895   4.829   4.358   5.379
86354SOL    HW260896   4.813   4.351   5.228
86355SOL     OW60897   9.522   2.367  11.237
86355SOL    HW160898   9.572   2.286  11.232
86355SOL    HW260899   9.588   2.437  11.241
86356SOL     OW60900  13.314   3.415   6.790
86356SOL    HW160901  13.233   3.465   6.802
86356SOL    HW260902  13.357   3.456   6.715
86357SOL     OW60903   1.415  12.222   8.789
86357SOL    HW160904   1.409  12.315   8.812
86357SOL    HW260905   1.401  12.220   8.694
86358SOL     OW60906  12.982   5.987   7.658
86358SOL    HW160907  12.993   5.958   7.749
86358SOL    HW260908  12.888   5.999   7.648
86359SOL     OW60909   8.693  14.408  13.194
86359SOL    HW160910   8.786  14.390  13.211
86359SOL    HW260911   8.649  14.328  13.221
86360SOL     OW60912   7.863   2.241  12.083
86360SOL    HW160913   7.916   2.240  12.003
86360SOL    HW260914   7.773   2.248  12.052
86361SOL     OW60915   1.807   3.231   5.488
86361SOL    HW160916   1.841   3.159   5.435
86361SOL    HW260917   1.736   3.268   5.435
86362SOL     OW60918  11.007   2.800  14.031
86362SOL    HW160919  10.931   2.842  13.990
86362SOL    HW260920  10.980   2.785  14.122
86363SOL     OW60921   2.842  11.100  12.287
86363SOL    HW160922   2.910  11.036  12.308
86363SOL    HW260923   2.779  11.051  12.233
86364SOL     OW60924  10.017   4.996   2.444
86364SOL    HW160925  10.078   4.983   2.516
86364SOL    HW260926  10.058   5.062   2.389
86365SOL     OW60927  10.251   0.938   6.036
86365SOL    HW160928  10.173   0.882   6.042
86365SOL    HW260929  10.323   0.877   6.020
86366SOL     OW60930   9.952  13.242   6.108
86366SOL    HW160931   9.983  13.209   6.192
86366SOL    HW260932   9.953  13.166   6.050
86367SOL     OW60933   6.287   8.468   0.574
86367SOL    HW160934   6.333   8.399   0.621
86367SOL    HW260935   6.217   8.496   0.634
86368SOL     OW60936   5.615  11.294  14.866
86368SOL    HW160937   5.658  11.231  14.808
86368SOL    HW260938   5.544  11.331  14.814
86369SOL     OW60939   5.418  10.986   7.578
86369SOL    HW160940   5.368  11.067   7.574
86369SOL    HW260941   5.408  10.946   7.492
86370SOL     OW60942  12.472   2.826   8.067
86370SOL    HW160943  12.509   2.910   8.094
86370SOL    HW260944  12.536   2.790   8.005
86371SOL     OW60945   2.877   7.910   5.845
86371SOL    HW160946   2.886   7.842   5.912
86371SOL    HW260947   2.806   7.965   5.877
86372SOL     OW60948   4.634  14.345   0.424
86372SOL    HW160949   4.657  14.400   0.349
86372SOL    HW260950   4.581  14.275   0.387
86373SOL     OW60951   3.579  14.818  10.011
86373SOL    HW160952   3.639  14.863  10.069
86373SOL    HW260953   3.606  14.844   9.923
86374SOL     OW60954  11.570  13.778   1.681
86374SOL    HW160955  11.552  13.694   1.638
86374SOL    HW260956  11.531  13.843   1.623
86375SOL     OW60957   8.819   9.448   9.656
86375SOL    HW160958   8.732   9.484   9.643
86375SOL    HW260959   8.878   9.520   9.636
86376SOL     OW60960   3.578   7.000  13.110
86376SOL    HW160961   3.655   6.991  13.055
86376SOL    HW260962   3.582   6.925  13.169
86377SOL     OW60963   8.544   1.156  14.268
86377SOL    HW160964   8.592   1.126  14.346
86377SOL    HW260965   8.575   1.099  14.198
86378SOL     OW60966   4.964   3.187  13.269
86378SOL    HW160967   4.896   3.163  13.206
86378SOL    HW260968   5.040   3.134  13.244
86379SOL     OW60969   3.482   8.427   4.942
86379SOL    HW160970   3.529   8.491   4.889
86379SOL    HW260971   3.395   8.422   4.903
86380SOL     OW60972   2.846   6.182   0.686
86380SOL    HW160973   2.872   6.120   0.754
86380SOL    HW260974   2.925   6.194   0.632
86381SOL     OW60975   6.239  13.731   3.628
86381SOL    HW160976   6.315  13.789   3.638
86381SOL    HW260977   6.178  13.759   3.697
86382SOL     OW60978   1.021   6.189   0.543
86382SOL    HW160979   1.047   6.098   0.556
86382SOL    HW260980   0.941   6.200   0.594
86383SOL     OW60981   6.837   9.733   1.687
86383SOL    HW160982   6.745   9.711   1.701
86383SOL    HW260983   6.886   9.669   1.739
86384SOL     OW60984  12.753   7.230   4.183
86384SOL    HW160985  12.718   7.280   4.256
86384SOL    HW260986  12.808   7.292   4.136
86385SOL     OW60987  13.230  10.714  12.781
86385SOL    HW160988  13.257  10.777  12.848
86385SOL    HW260989  13.271  10.745  12.700
86386SOL     OW60990   2.535   1.427  13.630
86386SOL    HW160991   2.485   1.389  13.703
86386SOL    HW260992   2.468   1.460  13.571
86387SOL     OW60993  14.661   0.627   6.123
86387SOL    HW160994  14.697   0.549   6.081
86387SOL    HW260995  14.659   0.605   6.216
86388SOL     OW60996  10.312   5.391   0.906
86388SOL    HW160997  10.371   5.437   0.966
86388SOL    HW260998  10.283   5.314   0.955
86389SOL     OW60999   0.651  13.498  12.293
86389SOL    HW161000   0.697  13.491  12.377
86389SOL    HW261001   0.672  13.416  12.248
86390SOL     OW61002   7.365   2.037   8.768
86390SOL    HW161003   7.338   1.983   8.695
86390SOL    HW261004   7.433   2.094   8.732
86391SOL     OW61005   3.866   6.203   1.742
86391SOL    HW161006   3.941   6.260   1.755
86391SOL    HW261007   3.856   6.157   1.826
86392SOL     OW61008   8.507  12.051  14.098
86392SOL    HW161009   8.554  12.114  14.044
86392SOL    HW261010   8.418  12.087  14.104
86393SOL     OW61011  10.890   6.039   0.135
86393SOL    HW161012  10.982   6.031   0.111
86393SOL    HW261013  10.847   5.968   0.087
86394SOL     OW61014   8.450  12.865  14.588
86394SOL    HW161015   8.380  12.817  14.632
86394SOL    HW261016   8.528  12.845  14.640
86395SOL     OW61017   1.216   3.937   4.091
86395SOL    HW161018   1.229   3.856   4.040
86395SOL    HW261019   1.129   3.927   4.129
86396SOL     OW61020  11.754   8.206  10.588
86396SOL    HW161021  11.759   8.270  10.659
86396SOL    HW261022  11.795   8.248  10.514
86397SOL     OW61023   4.659  14.300  13.304
86397SOL    HW161024   4.622  14.388  13.310
86397SOL    HW261025   4.583  14.242  13.307
86398SOL     OW61026   4.702   1.059   0.431
86398SOL    HW161027   4.745   1.093   0.353
86398SOL    HW261028   4.636   1.125   0.453
86399SOL     OW61029  13.454  12.973   1.080
86399SOL    HW161030  13.364  12.995   1.057
86399SOL    HW261031  13.507  13.010   1.010
86400SOL     OW61032   0.714   5.891   7.810
86400SOL    HW161033   0.695   5.946   7.887
86400SOL    HW261034   0.664   5.811   7.824
86401SOL     OW61035   8.905   5.406   7.673
86401SOL    HW161036   8.912   5.444   7.585
86401SOL    HW261037   8.857   5.325   7.660
86402SOL     OW61038   9.090   7.906   9.944
86402SOL    HW161039   9.135   7.822   9.949
86402SOL    HW261040   9.003   7.888   9.979
86403SOL     OW61041  11.801  12.876  11.260
86403SOL    HW161042  11.847  12.959  11.246
86403SOL    HW261043  11.870  12.814  11.285
86404SOL     OW61044   8.860   5.190  13.135
86404SOL    HW161045   8.776   5.152  13.109
86404SOL    HW261046   8.910   5.196  13.054
86405SOL     OW61047   8.600   2.180   2.631
86405SOL    HW161048   8.665   2.111   2.619
86405SOL    HW261049   8.517   2.140   2.605
86406SOL     OW61050  12.990   5.336  11.476
86406SOL    HW161051  13.062   5.304  11.422
86406SOL    HW261052  12.919   5.352  11.413
86407SOL     OW61053   9.496   1.917   3.493
86407SOL    HW161054   9.451   1.848   3.444
86407SOL    HW261055   9.426   1.973   3.526
86408SOL     OW61056   9.051   7.963  10.348
86408SOL    HW161057   8.959   7.986  10.355
86408SOL    HW261058   9.085   7.974  10.437
86409SOL     OW61059   2.862   7.440  11.623
86409SOL    HW161060   2.841   7.426  11.715
86409SOL    HW261061   2.949   7.480  11.624
86410SOL     OW61062  14.138   4.444  11.930
86410SOL    HW161063  14.229   4.415  11.934
86410SOL    HW261064  14.133   4.516  11.993
86411SOL     OW61065  10.707   0.039   4.753
86411SOL    HW161066  10.672  14.853   4.692
86411SOL    HW261067  10.745   0.107   4.697
86412SOL     OW61068   9.921  11.169  11.524
86412SOL    HW161069   9.871  11.165  11.605
86412SOL    HW261070   9.912  11.081  11.486
86413SOL     OW61071  14.362   4.712   1.834
86413SOL    HW161072  14.279   4.673   1.860
86413SOL    HW261073  14.428   4.656   1.874
86414SOL     OW61074   2.635   6.213   5.754
86414SOL    HW161075   2.620   6.295   5.706
86414SOL    HW261076   2.691   6.162   5.696
86415SOL     OW61077   4.178  12.746   9.840
86415SOL    HW161078   4.269  12.773   9.852
86415SOL    HW261079   4.157  12.697   9.919
86416SOL     OW61080   3.719   8.086   7.556
86416SOL    HW161081   3.624   8.095   7.549
86416SOL    HW261082   3.752   8.176   7.559
86417SOL     OW61083  11.887  10.830   9.834
86417SOL    HW161084  11.952  10.810   9.901
86417SOL    HW261085  11.830  10.896   9.874
86418SOL     OW61086  14.049  10.924   3.360
86418SOL    HW161087  13.976  10.969   3.317
86418SOL    HW261088  14.105  10.994   3.393
86419SOL     OW61089   9.831  12.493  10.336
86419SOL    HW161090   9.806  12.523  10.249
86419SOL    HW261091   9.775  12.542  10.396
86420SOL     OW61092   3.525   5.425  12.617
86420SOL    HW161093   3.554   5.364  12.549
86420SOL    HW261094   3.451   5.471  12.578
86421SOL     OW61095   8.764   1.734   2.312
86421SOL    HW161096   8.737   1.712   2.401
86421SOL    HW261097   8.797   1.823   2.317
86422SOL     OW61098  12.445   7.295   3.813
86422SOL    HW161099  12.514   7.243   3.854
86422SOL    HW261100  12.389   7.231   3.769
86423SOL     OW61101  12.853   2.120   6.446
86423SOL    HW161102  12.842   2.071   6.528
86423SOL    HW261103  12.788   2.081   6.387
86424SOL     OW61104   4.145   6.269   0.235
86424SOL    HW161105   4.176   6.355   0.261
86424SOL    HW261106   4.056   6.264   0.270
86425SOL     OW61107   1.862   2.595   2.950
86425SOL    HW161108   1.915   2.516   2.945
86425SOL    HW261109   1.824   2.592   3.038
86426SOL     OW61110   4.544  13.944  14.836
86426SOL    HW161111   4.581  13.860  14.807
86426SOL    HW261112   4.452  13.939  14.812
86427SOL     OW61113  12.038   5.781  13.007
86427SOL    HW161114  12.022   5.870  12.976
86427SOL    HW261115  11.954   5.752  13.041
86428SOL     OW61116   3.906   5.993  12.556
86428SOL    HW161117   3.847   5.955  12.491
86428SOL    HW261118   3.850   6.009  12.633
86429SOL     OW61119   4.831   2.779   2.661
86429SOL    HW161120   4.913   2.803   2.705
86429SOL    HW261121   4.790   2.716   2.719
86430SOL     OW61122   2.806  12.015   9.210
86430SOL    HW161123   2.877  12.072   9.179
86430SOL    HW261124   2.728  12.049   9.167
86431SOL     OW61125   3.963   4.338   1.181
86431SOL    HW161126   4.038   4.384   1.217
86431SOL    HW261127   3.922   4.295   1.256
86432SOL     OW61128   0.555   3.610   6.695
86432SOL    HW161129   0.545   3.558   6.774
86432SOL    HW261130   0.504   3.564   6.629
86433SOL     OW61131   1.857   5.004  12.407
86433SOL    HW161132   1.903   5.081  12.374
86433SOL    HW261133   1.895   4.931  12.360
86434SOL     OW61134   2.675   1.109  12.827
86434SOL    HW161135   2.695   1.170  12.756
86434SOL    HW261136   2.747   1.046  12.827
86435SOL     OW61137  12.924   1.022  11.130
86435SOL    HW161138  12.858   1.045  11.063
86435SOL    HW261139  12.873   1.008  11.210
86436SOL     OW61140  10.441   7.691   7.103
86436SOL    HW161141  10.465   7.612   7.055
86436SOL    HW261142  10.359   7.721   7.063
86437SOL     OW61143   2.853  14.747   0.635
86437SOL    HW161144   2.864  14.836   0.668
86437SOL    HW261145   2.848  14.757   0.540
86438SOL     OW61146  11.493   9.662  12.831
86438SOL    HW161147  11.563   9.695  12.887
86438SOL    HW261148  11.528   9.668  12.743
86439SOL     OW61149  12.029   3.532   4.753
86439SOL    HW161150  11.936   3.516   4.768
86439SOL    HW261151  12.036   3.546   4.659
86440SOL     OW61152   3.925   3.888   7.975
86440SOL    HW161153   3.983   3.818   8.005
86440SOL    HW261154   3.864   3.845   7.915
86441SOL     OW61155   3.914   0.162  11.448
86441SOL    HW161156   3.970   0.126  11.379
86441SOL    HW261157   3.929   0.256  11.444
86442SOL     OW61158   6.271   6.583   0.360
86442SOL    HW161159   6.282   6.512   0.423
86442SOL    HW261160   6.347   6.574   0.301
86443SOL     OW61161  14.370   9.768   3.062
86443SOL    HW161162  14.370   9.777   2.967
86443SOL    HW261163  14.373   9.858   3.094
86444SOL     OW61164   5.940  12.433  12.677
86444SOL    HW161165   5.856  12.441  12.721
86444SOL    HW261166   5.922  12.376  12.602
86445SOL     OW61167   5.618   3.476  12.937
86445SOL    HW161168   5.581   3.388  12.928
86445SOL    HW261169   5.544   3.530  12.965
86446SOL     OW61170   5.916   0.816  10.522
86446SOL    HW161171   5.857   0.789  10.451
86446SOL    HW261172   6.002   0.787  10.493
86447SOL     OW61173   2.972  13.990  11.733
86447SOL    HW161174   3.042  14.015  11.793
86447SOL    HW261175   2.896  13.976  11.790
86448SOL     OW61176  12.444   7.943  11.673
86448SOL    HW161177  12.505   7.993  11.729
86448SOL    HW261178  12.496   7.921  11.596
86449SOL     OW61179   8.144   9.998   1.530
86449SOL    HW161180   8.230  10.016   1.569
86449SOL    HW261181   8.087   9.982   1.605
86450SOL     OW61182  14.187   4.451   4.212
86450SOL    HW161183  14.158   4.361   4.197
86450SOL    HW261184  14.242   4.446   4.290
86451SOL     OW61185   6.897   3.459   9.007
86451SOL    HW161186   6.943   3.416   9.079
86451SOL    HW261187   6.827   3.508   9.049
86452SOL     OW61188   4.541   8.923   1.150
86452SOL    HW161189   4.525   8.833   1.178
86452SOL    HW261190   4.567   8.915   1.058
86453SOL     OW61191   4.956   8.701  10.545
86453SOL    HW161192   5.036   8.648  10.543
86453SOL    HW261193   4.896   8.656  10.485
86454SOL     OW61194  11.450  14.375  12.927
86454SOL    HW161195  11.474  14.395  12.837
86454SOL    HW261196  11.509  14.428  12.980
86455SOL     OW61197  11.964  14.257   9.236
86455SOL    HW161198  12.019  14.205   9.294
86455SOL    HW261199  12.003  14.245   9.149
86456SOL     OW61200   6.819   7.787  14.301
86456SOL    HW161201   6.775   7.706  14.326
86456SOL    HW261202   6.781   7.854  14.357
86457SOL     OW61203   4.584   3.147  12.600
86457SOL    HW161204   4.512   3.192  12.555
86457SOL    HW261205   4.555   3.140  12.691
86458SOL     OW61206   9.454  13.871  14.661
86458SOL    HW161207   9.378  13.912  14.620
86458SOL    HW261208   9.473  13.794  14.606
86459SOL     OW61209   1.295   0.114  14.436
86459SOL    HW161210   1.343   0.069  14.367
86459SOL    HW261211   1.233   0.171  14.390
86460SOL     OW61212   9.078  13.402   2.535
86460SOL    HW161213   8.986  13.421   2.518
86460SOL    HW261214   9.088  13.309   2.514
86461SOL     OW61215   4.563  11.011   8.461
86461SOL    HW161216   4.476  10.973   8.462
86461SOL    HW261217   4.566  11.062   8.380
86462SOL     OW61218  14.266  11.496   0.299
86462SOL    HW161219  14.230  11.480   0.386
86462SOL    HW261220  14.200  11.548   0.254
86463SOL     OW61221  13.779   6.956  11.736
86463SOL    HW161222  13.686   6.943  11.752
86463SOL    HW261223  13.794   7.049  11.753
86464SOL     OW61224  10.204  11.817   8.111
86464SOL    HW161225  10.228  11.852   8.025
86464SOL    HW261226  10.162  11.733   8.092
86465SOL     OW61227   0.053  14.184   1.471
86465SOL    HW161228   0.100  14.119   1.523
86465SOL    HW261229   0.066  14.266   1.520
86466SOL     OW61230   5.904  14.110   5.720
86466SOL    HW161231   5.918  14.023   5.684
86466SOL    HW261232   5.930  14.103   5.812
86467SOL     OW61233  12.652  13.183  13.943
86467SOL    HW161234  12.683  13.222  14.024
86467SOL    HW261235  12.732  13.153  13.899
86468SOL     OW61236   6.803   2.350   1.398
86468SOL    HW161237   6.735   2.394   1.347
86468SOL    HW261238   6.819   2.409   1.472
86469SOL     OW61239   7.055   9.526   4.460
86469SOL    HW161240   6.990   9.585   4.422
86469SOL    HW261241   7.009   9.442   4.468
86470SOL     OW61242   8.622   5.268  11.651
86470SOL    HW161243   8.612   5.174  11.665
86470SOL    HW261244   8.706   5.290  11.691
86471SOL     OW61245   7.991  13.882  14.390
86471SOL    HW161246   8.054  13.814  14.366
86471SOL    HW261247   8.042  13.964  14.385
86472SOL     OW61248   8.567  14.433  13.603
86472SOL    HW161249   8.641  14.404  13.551
86472SOL    HW261250   8.496  14.373  13.579
86473SOL     OW61251   0.724   0.032  13.637
86473SOL    HW161252   0.717   0.115  13.591
86473SOL    HW261253   0.715  14.844  13.569
86474SOL     OW61254   0.076  10.222   5.358
86474SOL    HW161255   0.166  10.198   5.337
86474SOL    HW261256   0.081  10.314   5.383
86475SOL     OW61257   6.656  10.165   1.254
86475SOL    HW161258   6.700  10.168   1.339
86475SOL    HW261259   6.627  10.255   1.239
86476SOL     OW61260   6.365   6.820  10.425
86476SOL    HW161261   6.440   6.878  10.437
86476SOL    HW261262   6.306   6.842  10.496
86477SOL     OW61263   1.110   2.299  10.821
86477SOL    HW161264   1.035   2.316  10.878
86477SOL    HW261265   1.186   2.320  10.874
86478SOL     OW61266   2.981   6.926   7.821
86478SOL    HW161267   2.885   6.919   7.823
86478SOL    HW261268   3.004   6.958   7.909
86479SOL     OW61269   1.228   4.028   4.597
86479SOL    HW161270   1.250   4.014   4.505
86479SOL    HW261271   1.313   4.027   4.642
86480SOL     OW61272   9.747   0.824   8.146
86480SOL    HW161273   9.684   0.872   8.201
86480SOL    HW261274   9.818   0.886   8.131
86481SOL     OW61275   7.274  13.023   2.861
86481SOL    HW161276   7.355  12.998   2.817
86481SOL    HW261277   7.221  13.063   2.793
86482SOL     OW61278   7.144  11.560   0.315
86482SOL    HW161279   7.115  11.487   0.369
86482SOL    HW261280   7.138  11.528   0.225
86483SOL     OW61281  13.290  14.306   9.633
86483SOL    HW161282  13.314  14.221   9.669
86483SOL    HW261283  13.366  14.332   9.581
86484SOL     OW61284   3.556  13.464  12.810
86484SOL    HW161285   3.489  13.526  12.785
86484SOL    HW261286   3.548  13.393  12.746
86485SOL     OW61287  13.308   2.435  14.774
86485SOL    HW161288  13.299   2.344  14.746
86485SOL    HW261289  13.387   2.466  14.729
86486SOL     OW61290   4.007   0.412  13.861
86486SOL    HW161291   3.999   0.490  13.807
86486SOL    HW261292   4.085   0.427  13.914
86487SOL     OW61293   5.123   6.761  11.397
86487SOL    HW161294   5.205   6.715  11.384
86487SOL    HW261295   5.117   6.821  11.322
86488SOL     OW61296  13.590   5.778  13.458
86488SOL    HW161297  13.571   5.869  13.482
86488SOL    HW261298  13.683   5.778  13.436
86489SOL     OW61299   0.719   5.342   7.012
86489SOL    HW161300   0.749   5.278   6.948
86489SOL    HW261301   0.732   5.300   7.097
86490SOL     OW61302   2.889  11.170   5.641
86490SOL    HW161303   2.910  11.108   5.711
86490SOL    HW261304   2.974  11.194   5.605
86491SOL     OW61305  10.235  11.796  12.123
86491SOL    HW161306  10.279  11.797  12.037
86491SOL    HW261307  10.300  11.834  12.183
86492SOL     OW61308   5.694  10.176   3.854
86492SOL    HW161309   5.612  10.176   3.805
86492SOL    HW261310   5.757  10.219   3.797
86493SOL     OW61311  14.077  12.487  13.593
86493SOL    HW161312  14.012  12.550  13.561
86493SOL    HW261313  14.053  12.404  13.551
86494SOL     OW61314   1.531   8.044   8.252
86494SOL    HW161315   1.570   8.022   8.336
86494SOL    HW261316   1.491   7.963   8.221
86495SOL     OW61317   4.011   0.974  11.258
86495SOL    HW161318   4.047   1.038  11.320
86495SOL    HW261319   3.932   1.016  11.224
86496SOL     OW61320  13.854  11.049  12.707
86496SOL    HW161321  13.826  11.125  12.656
86496SOL    HW261322  13.947  11.065  12.725
86497SOL     OW61323  10.631   1.173  13.099
86497SOL    HW161324  10.565   1.203  13.161
86497SOL    HW261325  10.587   1.175  13.014
86498SOL     OW61326   7.177  10.430   8.713
86498SOL    HW161327   7.106  10.378   8.751
86498SOL    HW261328   7.242  10.365   8.687
86499SOL     OW61329   0.759  12.853  13.405
86499SOL    HW161330   0.742  12.763  13.376
86499SOL    HW261331   0.775  12.902  13.324
86500SOL     OW61332   9.644  12.166   2.851
86500SOL    HW161333   9.677  12.222   2.921
86500SOL    HW261334   9.698  12.087   2.856
86501SOL     OW61335   8.137   4.820   4.570
86501SOL    HW161336   8.117   4.904   4.611
86501SOL    HW261337   8.231   4.808   4.583
86502SOL     OW61338  11.106   6.948  12.736
86502SOL    HW161339  11.016   6.937  12.704
86502SOL    HW261340  11.158   6.963  12.658
86503SOL     OW61341  14.052  11.710  13.279
86503SOL    HW161342  14.045  11.760  13.360
86503SOL    HW261343  13.980  11.648  13.282
86504SOL     OW61344   1.180   1.545   3.742
86504SOL    HW161345   1.149   1.483   3.809
86504SOL    HW261346   1.274   1.529   3.738
86505SOL     OW61347   1.141   6.643   7.813
86505SOL    HW161348   1.051   6.614   7.799
86505SOL    HW261349   1.159   6.703   7.741
86506SOL     OW61350  10.726  12.030   4.140
86506SOL    HW161351  10.719  12.097   4.072
86506SOL    HW261352  10.649  12.043   4.194
86507SOL     OW61353  11.877   3.782   9.910
86507SOL    HW161354  11.888   3.873   9.884
86507SOL    HW261355  11.947   3.767   9.974
86508SOL     OW61356   5.533   9.123  13.401
86508SOL    HW161357   5.488   9.099  13.321
86508SOL    HW261358   5.621   9.149  13.373
86509SOL     OW61359  13.901   8.546   0.847
86509SOL    HW161360  13.811   8.535   0.879
86509SOL    HW261361  13.922   8.637   0.868
86510SOL     OW61362   3.016  11.343   3.076
86510SOL    HW161363   2.989  11.432   3.056
86510SOL    HW261364   2.969  11.289   3.013
86511SOL     OW61365   2.629   7.031   7.370
86511SOL    HW161366   2.607   6.952   7.419
86511SOL    HW261367   2.561   7.037   7.302
86512SOL     OW61368  12.068  12.467  12.138
86512SOL    HW161369  12.021  12.550  12.126
86512SOL    HW261370  12.046  12.439  12.226
86513SOL     OW61371   8.324   6.145  12.246
86513SOL    HW161372   8.238   6.113  12.274
86513SOL    HW261373   8.364   6.180  12.325
86514SOL     OW61374   2.511   1.446   1.700
86514SOL    HW161375   2.571   1.513   1.669
86514SOL    HW261376   2.504   1.462   1.794
86515SOL     OW61377  11.780   6.798   2.856
86515SOL    HW161378  11.763   6.710   2.823
86515SOL    HW261379  11.775   6.855   2.779
86516SOL     OW61380   1.809   5.438   5.839
86516SOL    HW161381   1.724   5.477   5.855
86516SOL    HW261382   1.862   5.509   5.802
86517SOL     OW61383   9.321  13.580   8.577
86517SOL    HW161384   9.393  13.640   8.556
86517SOL    HW261385   9.242  13.627   8.552
86518SOL     OW61386   0.769   8.153   6.509
86518SOL    HW161387   0.786   8.246   6.492
86518SOL    HW261388   0.841   8.126   6.565
86519SOL     OW61389   9.290  11.243   7.002
86519SOL    HW161390   9.353  11.288   7.059
86519SOL    HW261391   9.242  11.185   7.061
86520SOL     OW61392   5.885  14.564   0.144
86520SOL    HW161393   5.795  14.536   0.129
86520SOL    HW261394   5.885  14.600   0.232
86521SOL     OW61395   2.929   2.004   9.478
86521SOL    HW161396   2.973   2.081   9.515
86521SOL    HW261397   2.973   1.989   9.395
86522SOL     OW61398   8.585  13.434   9.958
86522SOL    HW161399   8.646  13.414  10.030
86522SOL    HW261400   8.513  13.481  10.000
86523SOL     OW61401   8.339  14.282  13.549
86523SOL    HW161402   8.324  14.307  13.458
86523SOL    HW261403   8.298  14.196  13.557
86524SOL     OW61404   4.466  13.825   8.022
86524SOL    HW161405   4.545  13.789   8.061
86524SOL    HW261406   4.422  13.871   8.094
86525SOL     OW61407   2.363   3.929  10.367
86525SOL    HW161408   2.372   3.902  10.458
86525SOL    HW261409   2.326   3.853  10.322
86526SOL     OW61410   9.884   5.463   1.843
86526SOL    HW161411   9.855   5.372   1.848
86526SOL    HW261412   9.850   5.495   1.759
86527SOL     OW61413   6.781  11.500   2.961
86527SOL    HW161414   6.733  11.426   2.998
86527SOL    HW261415   6.713  11.566   2.943
86528SOL     OW61416  12.960   4.541   5.609
86528SOL    HW161417  12.870   4.528   5.636
86528SOL    HW261418  12.957   4.538   5.513
86529SOL     OW61419   9.039   8.922   6.004
86529SOL    HW161420   8.974   8.972   6.053
86529SOL    HW261421   9.117   8.977   6.005
86530SOL     OW61422   9.114   7.382  12.612
86530SOL    HW161423   9.187   7.436  12.582
86530SOL    HW261424   9.148   7.337  12.689
86531SOL     OW61425   7.047  10.550   1.234
86531SOL    HW161426   7.121  10.527   1.291
86531SOL    HW261427   7.081  10.618   1.177
86532SOL     OW61428  10.071   7.094  14.052
86532SOL    HW161429  10.121   7.142  14.118
86532SOL    HW261430  10.116   7.113  13.969
86533SOL     OW61431  14.056   3.872   1.237
86533SOL    HW161432  14.081   3.896   1.327
86533SOL    HW261433  14.138   3.875   1.188
86534SOL     OW61434  11.014  10.329  13.738
86534SOL    HW161435  11.065  10.252  13.713
86534SOL    HW261436  10.943  10.333  13.674
86535SOL     OW61437   1.144   6.665   8.885
86535SOL    HW161438   1.151   6.655   8.790
86535SOL    HW261439   1.066   6.719   8.899
86536SOL     OW61440   3.998   8.374   2.703
86536SOL    HW161441   4.005   8.468   2.687
86536SOL    HW261442   4.036   8.334   2.625
86537SOL     OW61443   5.280   7.737   5.029
86537SOL    HW161444   5.219   7.802   4.996
86537SOL    HW261445   5.255   7.656   4.986
86538SOL     OW61446   3.874   6.924  11.239
86538SOL    HW161447   3.892   7.015  11.214
86538SOL    HW261448   3.845   6.930  11.330
86539SOL     OW61449  10.784   8.614   5.081
86539SOL    HW161450  10.750   8.555   5.013
86539SOL    HW261451  10.843   8.559   5.133
86540SOL     OW61452   4.247  14.602   9.553
86540SOL    HW161453   4.174  14.554   9.591
86540SOL    HW261454   4.288  14.646   9.627
86541SOL     OW61455  14.030  11.401   5.139
86541SOL    HW161456  14.068  11.315   5.123
86541SOL    HW261457  14.049  11.452   5.060
86542SOL     OW61458  14.051  12.618   7.322
86542SOL    HW161459  14.022  12.676   7.392
86542SOL    HW261460  14.139  12.590   7.349
86543SOL     OW61461   7.930   3.804   4.873
86543SOL    HW161462   7.925   3.708   4.876
86543SOL    HW261463   7.841   3.831   4.849
86544SOL     OW61464  14.125   7.711   8.941
86544SOL    HW161465  14.188   7.739   9.008
86544SOL    HW261466  14.113   7.788   8.885
86545SOL     OW61467   0.601   0.290  10.765
86545SOL    HW161468   0.623   0.380  10.739
86545SOL    HW261469   0.610   0.290  10.860
86546SOL     OW61470  12.492   5.724   0.164
86546SOL    HW161471  12.457   5.703   0.250
86546SOL    HW261472  12.576   5.677   0.159
86547SOL     OW61473   9.191  11.839   3.737
86547SOL    HW161474   9.105  11.800   3.750
86547SOL    HW261475   9.174  11.920   3.689
86548SOL     OW61476   9.040   0.011   9.097
86548SOL    HW161477   9.121  14.853   9.061
86548SOL    HW261478   9.053   0.010   9.192
86549SOL     OW61479  12.198  14.231   0.153
86549SOL    HW161480  12.194  14.289   0.229
86549SOL    HW261481  12.138  14.269   0.090
86550SOL     OW61482   3.756   5.815   0.840
86550SOL    HW161483   3.691   5.749   0.868
86550SOL    HW261484   3.829   5.803   0.900
86551SOL     OW61485   6.928  12.181   2.473
86551SOL    HW161486   6.840  12.168   2.438
86551SOL    HW261487   6.966  12.249   2.419
86552SOL     OW61488  13.128   0.644   3.908
86552SOL    HW161489  13.219   0.642   3.939
86552SOL    HW261490  13.098   0.553   3.915
86553SOL     OW61491   4.113  12.996   0.036
86553SOL    HW161492   4.022  12.975   0.017
86553SOL    HW261493   4.124  12.974   0.129
86554SOL     OW61494   4.856   0.519  12.536
86554SOL    HW161495   4.923   0.510  12.603
86554SOL    HW261496   4.790   0.454  12.559
86555SOL     OW61497   0.953   4.010   7.482
86555SOL    HW161498   0.857   4.005   7.484
86555SOL    HW261499   0.977   4.028   7.573
86556SOL     OW61500   0.323   6.820   9.991
86556SOL    HW161501   0.339   6.893  10.050
86556SOL    HW261502   0.326   6.743  10.047
86557SOL     OW61503   7.531   8.528   4.741
86557SOL    HW161504   7.460   8.576   4.783
86557SOL    HW261505   7.583   8.596   4.697
86558SOL     OW61506   8.232   1.493   8.205
86558SOL    HW161507   8.198   1.452   8.285
86558SOL    HW261508   8.179   1.572   8.193
86559SOL     OW61509   6.592   1.786   9.200
86559SOL    HW161510   6.548   1.755   9.279
86559SOL    HW261511   6.532   1.764   9.129
86560SOL     OW61512   5.788  12.027  10.976
86560SOL    HW161513   5.823  12.015  10.888
86560SOL    HW261514   5.714  12.086  10.965
86561SOL     OW61515   8.051  11.116   3.928
86561SOL    HW161516   8.106  11.049   3.967
86561SOL    HW261517   8.014  11.075   3.850
86562SOL     OW61518   9.081   6.962   0.913
86562SOL    HW161519   9.078   7.038   0.971
86562SOL    HW261520   9.138   6.989   0.841
86563SOL     OW61521   1.099   0.902   3.227
86563SOL    HW161522   1.071   0.988   3.259
86563SOL    HW261523   1.044   0.840   3.274
86564SOL     OW61524  12.630   8.962   9.660
86564SOL    HW161525  12.647   9.056   9.658
86564SOL    HW261526  12.574   8.946   9.584
86565SOL     OW61527   6.051   1.733  13.332
86565SOL    HW161528   5.958   1.719  13.349
86565SOL    HW261529   6.054   1.776  13.247
86566SOL     OW61530   3.133   9.578   6.864
86566SOL    HW161531   3.082   9.497   6.867
86566SOL    HW261532   3.067   9.647   6.851
86567SOL     OW61533  13.023   0.035   9.043
86567SOL    HW161534  13.016   0.036   8.948
86567SOL    HW261535  12.977   0.114   9.072
86568SOL     OW61536   6.370  14.053   5.401
86568SOL    HW161537   6.295  14.025   5.348
86568SOL    HW261538   6.330  14.091   5.480
86569SOL     OW61539  13.624   3.269  13.624
86569SOL    HW161540  13.577   3.249  13.543
86569SOL    HW261541  13.560   3.314  13.679
86570SOL     OW61542   5.649   9.846   2.184
86570SOL    HW161543   5.699   9.886   2.112
86570SOL    HW261544   5.599   9.919   2.221
86571SOL     OW61545   6.833  12.157   7.822
86571SOL    HW161546   6.785  12.176   7.902
86571SOL    HW261547   6.903  12.222   7.820
86572SOL     OW61548   1.243   2.750   2.148
86572SOL    HW161549   1.192   2.708   2.217
86572SOL    HW261550   1.190   2.826   2.123
86573SOL     OW61551  13.392   3.522   7.982
86573SOL    HW161552  13.348   3.441   8.007
86573SOL    HW261553  13.458   3.535   8.049
86574SOL     OW61554   9.708  13.210  10.846
86574SOL    HW161555   9.640  13.153  10.808
86574SOL    HW261556   9.789  13.162  10.833
86575SOL     OW61557   4.811   3.483  10.706
86575SOL    HW161558   4.745   3.420  10.678
86575SOL    HW261559   4.845   3.447  10.788
86576SOL     OW61560   8.362  13.844   6.987
86576SOL    HW161561   8.421  13.780   6.948
86576SOL    HW261562   8.276  13.823   6.951
86577SOL     OW61563  10.984   7.973   8.481
86577SOL    HW161564  11.003   7.953   8.389
86577SOL    HW261565  11.071   7.984   8.521
86578SOL     OW61566  12.550  13.725  13.284
86578SOL    HW161567  12.642  13.731  13.310
86578SOL    HW261568  12.550  13.663  13.210
86579SOL     OW61569   6.480   0.792   5.194
86579SOL    HW161570   6.542   0.846   5.145
86579SOL    HW261571   6.495   0.816   5.286
86580SOL     OW61572   7.575   7.087   0.556
86580SOL    HW161573   7.496   7.135   0.528
86580SOL    HW261574   7.568   7.002   0.512
86581SOL     OW61575   5.494   5.985   6.016
86581SOL    HW161576   5.427   6.050   6.035
86581SOL    HW261577   5.549   5.983   6.095
86582SOL     OW61578   8.981   1.408  12.423
86582SOL    HW161579   9.060   1.434  12.377
86582SOL    HW261580   8.978   1.313  12.415
86583SOL     OW61581   5.651   0.887   9.523
86583SOL    HW161582   5.682   0.909   9.436
86583SOL    HW261583   5.691   0.952   9.581
86584SOL     OW61584  11.281   9.899   2.119
86584SOL    HW161585  11.372   9.902   2.150
86584SOL    HW261586  11.240   9.830   2.173
86585SOL     OW61587  13.095   3.323   1.952
86585SOL    HW161588  13.076   3.343   1.861
86585SOL    HW261589  13.009   3.323   1.995
86586SOL     OW61590   7.784   7.560  14.455
86586SOL    HW161591   7.828   7.490  14.501
86586SOL    HW261592   7.759   7.622  14.523
86587SOL     OW61593  13.497  14.551  10.794
86587SOL    HW161594  13.423  14.560  10.735
86587SOL    HW261595  13.493  14.627  10.852
86588SOL     OW61596   6.500   8.453  13.573
86588SOL    HW161597   6.540   8.535  13.544
86588SOL    HW261598   6.537   8.386  13.515
86589SOL     OW61599   4.990   2.759   0.213
86589SOL    HW161600   5.077   2.783   0.246
86589SOL    HW261601   4.954   2.841   0.179
86590SOL     OW61602  14.055  13.164   8.283
86590SOL    HW161603  14.019  13.248   8.253
86590SOL    HW261604  14.095  13.126   8.205
86591SOL     OW61605   5.171   8.940  10.984
86591SOL    HW161606   5.212   8.896  11.058
86591SOL    HW261607   5.243   8.983  10.938
86592SOL     OW61608   5.661  12.535   4.792
86592SOL    HW161609   5.712  12.572   4.864
86592SOL    HW261610   5.722  12.480   4.744
86593SOL     OW61611  11.747   2.349   6.995
86593SOL    HW161612  11.754   2.306   7.080
86593SOL    HW261613  11.751   2.442   7.015
86594SOL     OW61614  14.245   5.972   2.566
86594SOL    HW161615  14.251   6.026   2.487
86594SOL    HW261616  14.336   5.952   2.589
86595SOL     OW61617   4.823  13.048   8.937
86595SOL    HW161618   4.824  12.981   9.005
86595SOL    HW261619   4.829  13.131   8.986
86596SOL     OW61620   9.018   7.320  13.267
86596SOL    HW161621   8.949   7.385  13.281
86596SOL    HW261622   9.001   7.286  13.179
86597SOL     OW61623   2.703  14.370   9.408
86597SOL    HW161624   2.688  14.381   9.314
86597SOL    HW261625   2.755  14.446   9.433
86598SOL     OW61626   0.089  14.792   8.902
86598SOL    HW161627   0.159  14.750   8.853
86598SOL    HW261628   0.052  14.856   8.841
86599SOL     OW61629   0.499  14.568   5.672
86599SOL    HW161630   0.462  14.569   5.584
86599SOL    HW261631   0.541  14.653   5.682
86600SOL     OW61632  12.813   3.351   9.200
86600SOL    HW161633  12.830   3.336   9.293
86600SOL    HW261634  12.744   3.288   9.178
86601SOL     OW61635   4.013  12.078   5.370
86601SOL    HW161636   3.958  12.039   5.303
86601SOL    HW261637   4.044  12.160   5.331
86602SOL     OW61638  13.194   1.108  14.849
86602SOL    HW161639  13.121   1.090  14.790
86602SOL    HW261640  13.162   1.179   0.026
86603SOL     OW61641  13.446   0.565   6.587
86603SOL    HW161642  13.517   0.581   6.649
86603SOL    HW261643  13.467   0.621   6.512
86604SOL     OW61644   2.325   8.616   5.973
86604SOL    HW161645   2.312   8.538   5.920
86604SOL    HW261646   2.297   8.591   6.061
86605SOL     OW61647  13.251   0.856  13.531
86605SOL    HW161648  13.188   0.927  13.537
86605SOL    HW261649  13.197   0.777  13.521
86606SOL     OW61650  10.134   9.356   8.665
86606SOL    HW161651  10.128   9.353   8.569
86606SOL    HW261652  10.207   9.299   8.686
86607SOL     OW61653   6.260   8.702  11.524
86607SOL    HW161654   6.262   8.647  11.446
86607SOL    HW261655   6.208   8.653  11.587
86608SOL     OW61656   8.766   7.700   6.664
86608SOL    HW161657   8.789   7.781   6.619
86608SOL    HW261658   8.700   7.659   6.608
86609SOL     OW61659  10.493   8.233  12.264
86609SOL    HW161660  10.563   8.277  12.216
86609SOL    HW261661  10.469   8.159  12.209
86610SOL     OW61662  12.183  11.504   9.541
86610SOL    HW161663  12.176  11.599   9.533
86610SOL    HW261664  12.224  11.475   9.460
86611SOL     OW61665  11.602  12.333  12.912
86611SOL    HW161666  11.628  12.303  12.999
86611SOL    HW261667  11.544  12.407  12.928
86612SOL     OW61668  13.575   5.061   7.578
86612SOL    HW161669  13.644   5.127   7.572
86612SOL    HW261670  13.613   4.991   7.631
86613SOL     OW61671   7.270   4.309   0.469
86613SOL    HW161672   7.252   4.219   0.442
86613SOL    HW261673   7.198   4.360   0.431
86614SOL     OW61674  11.014   7.273  11.209
86614SOL    HW161675  10.958   7.313  11.142
86614SOL    HW261676  10.968   7.290  11.291
86615SOL     OW61677  13.507   7.513  13.464
86615SOL    HW161678  13.586   7.562  13.441
86615SOL    HW261679  13.451   7.519  13.387
86616SOL     OW61680   6.104   7.594   1.130
86616SOL    HW161681   6.063   7.542   1.061
86616SOL    HW261682   6.153   7.661   1.083
86617SOL     OW61683   7.061   8.480   4.209
86617SOL    HW161684   6.985   8.426   4.188
86617SOL    HW261685   7.118   8.422   4.260
86618SOL     OW61686   8.889   5.624   6.216
86618SOL    HW161687   8.953   5.578   6.271
86618SOL    HW261688   8.853   5.692   6.273
86619SOL     OW61689   2.087   3.483   5.285
86619SOL    HW161690   2.104   3.406   5.230
86619SOL    HW261691   2.163   3.488   5.342
86620SOL     OW61692   0.102   0.046   4.488
86620SOL    HW161693   0.166  14.871   4.534
86620SOL    HW261694   0.089   0.122   4.545
86621SOL     OW61695   7.592  14.684  10.492
86621SOL    HW161696   7.531  14.671  10.419
86621SOL    HW261697   7.559  14.625  10.561
86622SOL     OW61698  10.393  10.406   0.046
86622SOL    HW161699  10.342  10.482   0.019
86622SOL    HW261700  10.465  10.442   0.097
86623SOL     OW61701  10.309  10.585   7.546
86623SOL    HW161702  10.262  10.528   7.485
86623SOL    HW261703  10.358  10.645   7.489
86624SOL     OW61704  12.803  10.930   4.691
86624SOL    HW161705  12.822  10.977   4.610
86624SOL    HW261706  12.710  10.948   4.708
86625SOL     OW61707  11.158   2.284   7.731
86625SOL    HW161708  11.096   2.292   7.659
86625SOL    HW261709  11.210   2.207   7.710
86626SOL     OW61710  13.084  11.110   8.938
86626SOL    HW161711  12.999  11.120   8.897
86626SOL    HW261712  13.109  11.019   8.920
86627SOL     OW61713   3.734  10.574   0.610
86627SOL    HW161714   3.726  10.590   0.704
86627SOL    HW261715   3.647  10.589   0.575
86628SOL     OW61716  11.324   0.976   6.862
86628SOL    HW161717  11.405   0.989   6.813
86628SOL    HW261718  11.331   1.037   6.936
86629SOL     OW61719  10.008   9.959   7.319
86629SOL    HW161720   9.999   9.931   7.227
86629SOL    HW261721   9.946  10.031   7.328
86630SOL     OW61722   5.113  13.568  14.445
86630SOL    HW161723   5.075  13.519  14.373
86630SOL    HW261724   5.195  13.602  14.409
86631SOL     OW61725  10.419   7.435   7.683
86631SOL    HW161726  10.514   7.421   7.688
86631SOL    HW261727  10.392   7.445   7.774
86632SOL     OW61728   8.987  13.947  11.529
86632SOL    HW161729   8.961  13.937  11.621
86632SOL    HW261730   8.928  13.889  11.481
86633SOL     OW61731   8.745   7.254   4.256
86633SOL    HW161732   8.777   7.343   4.241
86633SOL    HW261733   8.787   7.227   4.338
86634SOL     OW61734   1.288   7.118  12.726
86634SOL    HW161735   1.246   7.203  12.743
86634SOL    HW261736   1.261   7.063  12.799
86635SOL     OW61737  10.848  11.883   3.839
86635SOL    HW161738  10.889  11.952   3.892
86635SOL    HW261739  10.774  11.853   3.891
86636SOL     OW61740   8.828   5.857   7.335
86636SOL    HW161741   8.908   5.817   7.302
86636SOL    HW261742   8.852   5.948   7.352
86637SOL     OW61743   3.452  13.887   2.685
86637SOL    HW161744   3.523  13.929   2.635
86637SOL    HW261745   3.404  13.960   2.724
86638SOL     OW61746  10.030   4.739  13.292
86638SOL    HW161747  10.070   4.654  13.274
86638SOL    HW261748  10.002   4.734  13.383
86639SOL     OW61749  13.413   0.337   3.712
86639SOL    HW161750  13.382   0.247   3.698
86639SOL    HW261751  13.348   0.392   3.668
86640SOL     OW61752   5.820   5.455  14.686
86640SOL    HW161753   5.868   5.496  14.614
86640SOL    HW261754   5.728   5.474  14.666
86641SOL     OW61755   9.282   9.713   7.725
86641SOL    HW161756   9.341   9.664   7.782
86641SOL    HW261757   9.197   9.707   7.767
86642SOL     OW61758  10.765   1.088  11.745
86642SOL    HW161759  10.752   1.045  11.830
86642SOL    HW261760  10.767   1.016  11.682
86643SOL     OW61761  12.264   6.074   1.681
86643SOL    HW161762  12.336   6.017   1.651
86643SOL    HW261763  12.281   6.158   1.638
86644SOL     OW61764   1.489   2.068   5.668
86644SOL    HW161765   1.568   2.116   5.645
86644SOL    HW261766   1.478   2.004   5.598
86645SOL     OW61767   5.885   9.713   5.124
86645SOL    HW161768   5.956   9.658   5.158
86645SOL    HW261769   5.805   9.672   5.158
86646SOL     OW61770   7.436   6.116  13.526
86646SOL    HW161771   7.471   6.129  13.438
86646SOL    HW261772   7.345   6.089  13.512
86647SOL     OW61773   7.674   8.430  11.670
86647SOL    HW161774   7.621   8.370  11.617
86647SOL    HW261775   7.694   8.502  11.611
86648SOL     OW61776  14.264  13.512   3.871
86648SOL    HW161777  14.267  13.459   3.791
86648SOL    HW261778  14.333  13.476   3.926
86649SOL     OW61779  11.109   0.201  12.440
86649SOL    HW161780  11.074   0.123  12.482
86649SOL    HW261781  11.176   0.168  12.381
86650SOL     OW61782   8.590   7.656   1.844
86650SOL    HW161783   8.592   7.663   1.749
86650SOL    HW261784   8.554   7.569   1.861
86651SOL     OW61785   5.045  10.090   1.944
86651SOL    HW161786   5.061  10.049   2.029
86651SOL    HW261787   5.124  10.142   1.927
86652SOL     OW61788   9.378   7.751  10.045
86652SOL    HW161789   9.292   7.711  10.031
86652SOL    HW261790   9.358   7.832  10.092
86653SOL     OW61791   4.069  12.186   9.426
86653SOL    HW161792   4.133  12.205   9.357
86653SOL    HW261793   4.105  12.228   9.504
86654SOL     OW61794   0.999  13.684   0.354
86654SOL    HW161795   1.083  13.639   0.345
86654SOL    HW261796   0.977  13.675   0.447
86655SOL     OW61797  11.314   7.338   0.054
86655SOL    HW161798  11.239   7.289   0.022
86655SOL    HW261799  11.313   7.325   0.149
86656SOL     OW61800   2.611   5.524   1.769
86656SOL    HW161801   2.576   5.609   1.742
86656SOL    HW261802   2.582   5.514   1.860
86657SOL     OW61803   2.350  12.759   2.946
86657SOL    HW161804   2.372  12.797   3.031
86657SOL    HW261805   2.267  12.801   2.921
86658SOL     OW61806   3.732   2.137   9.157
86658SOL    HW161807   3.813   2.159   9.112
86658SOL    HW261808   3.664   2.184   9.108
86659SOL     OW61809  14.729   8.981  12.820
86659SOL    HW161810  14.689   9.015  12.900
86659SOL    HW261811  14.707   9.045  12.753
86660SOL     OW61812  12.235   0.989  12.853
86660SOL    HW161813  12.201   1.021  12.769
86660SOL    HW261814  12.165   0.932  12.886
86661SOL     OW61815   0.017  10.705   0.877
86661SOL    HW161816  14.848  10.766   0.933
86661SOL    HW261817   0.072  10.761   0.822
86662SOL     OW61818  14.551   9.455   6.248
86662SOL    HW161819  14.603   9.424   6.173
86662SOL    HW261820  14.615   9.495   6.306
86663SOL     OW61821  11.145   7.036   0.215
86663SOL    HW161822  11.127   7.111   0.158
86663SOL    HW261823  11.116   6.961   0.164
86664SOL     OW61824   8.029   5.891   4.554
86664SOL    HW161825   7.960   5.958   4.553
86664SOL    HW261826   8.017   5.846   4.638
86665SOL     OW61827  12.079   7.362  12.890
86665SOL    HW161828  11.993   7.328  12.867
86665SOL    HW261829  12.077   7.371  12.985
86666SOL     OW61830   7.774   0.107   4.177
86666SOL    HW161831   7.722   0.170   4.128
86666SOL    HW261832   7.774   0.141   4.267
86667SOL     OW61833  13.952   6.194  14.655
86667SOL    HW161834  14.042   6.224  14.649
86667SOL    HW261835  13.908   6.261  14.708
86668SOL     OW61836   1.797   7.922   8.508
86668SOL    HW161837   1.885   7.923   8.470
86668SOL    HW261838   1.784   7.831   8.535
86669SOL     OW61839   2.617  10.385   0.874
86669SOL    HW161840   2.655  10.308   0.832
86669SOL    HW261841   2.534  10.354   0.911
86670SOL     OW61842   4.721   8.186   0.350
86670SOL    HW161843   4.644   8.149   0.307
86670SOL    HW261844   4.721   8.146   0.437
86671SOL     OW61845   3.799   1.288   6.235
86671SOL    HW161846   3.771   1.305   6.325
86671SOL    HW261847   3.730   1.327   6.181
86672SOL     OW61848   5.937  13.350   7.139
86672SOL    HW161849   5.948  13.443   7.157
86672SOL    HW261850   5.972  13.338   7.050
86673SOL     OW61851  12.133   4.413   2.383
86673SOL    HW161852  12.198   4.369   2.327
86673SOL    HW261853  12.107   4.490   2.333
86674SOL     OW61854   1.390  14.705   6.608
86674SOL    HW161855   1.421  14.754   6.684
86674SOL    HW261856   1.345  14.769   6.554
86675SOL     OW61857  11.738   8.975  10.813
86675SOL    HW161858  11.763   8.973  10.905
86675SOL    HW261859  11.676   9.048  10.807
86676SOL     OW61860  14.317  10.261   0.096
86676SOL    HW161861  14.245  10.310   0.135
86676SOL    HW261862  14.300  10.263   0.002
86677SOL     OW61863   0.464  10.079   1.564
86677SOL    HW161864   0.542  10.134   1.577
86677SOL    HW261865   0.451  10.036   1.648
86678SOL     OW61866   3.888   9.885   7.022
86678SOL    HW161867   3.793   9.885   7.032
86678SOL    HW261868   3.916   9.801   7.060
86679SOL     OW61869   3.637   4.376   3.773
86679SOL    HW161870   3.701   4.447   3.777
86679SOL    HW261871   3.657   4.329   3.692
86680SOL     OW61872   3.745   3.290   0.951
86680SOL    HW161873   3.665   3.291   0.897
86680SOL    HW261874   3.768   3.197   0.958
86681SOL     OW61875  14.853   6.516   1.583
86681SOL    HW161876   0.040   6.446   1.584
86681SOL    HW261877  14.802   6.502   1.662
86682SOL     OW61878  12.172   7.542   6.581
86682SOL    HW161879  12.145   7.529   6.672
86682SOL    HW261880  12.244   7.605   6.586
86683SOL     OW61881  11.774   3.899   3.197
86683SOL    HW161882  11.848   3.854   3.238
86683SOL    HW261883  11.783   3.990   3.224
86684SOL     OW61884   1.943   6.260  12.690
86684SOL    HW161885   2.004   6.243  12.762
86684SOL    HW261886   1.961   6.351  12.665
86685SOL     OW61887  11.927  11.627  11.164
86685SOL    HW161888  12.013  11.666  11.181
86685SOL    HW261889  11.946  11.538  11.135
86686SOL     OW61890  12.385  12.399   6.509
86686SOL    HW161891  12.419  12.354   6.587
86686SOL    HW261892  12.405  12.491   6.524
86687SOL     OW61893   2.920   9.810  14.122
86687SOL    HW161894   2.894   9.780  14.035
86687SOL    HW261895   2.862   9.762  14.181
86688SOL     OW61896   0.814   3.187  11.612
86688SOL    HW161897   0.889   3.128  11.623
86688SOL    HW261898   0.849   3.274  11.629
86689SOL     OW61899   4.765   0.672   5.327
86689SOL    HW161900   4.712   0.706   5.399
86689SOL    HW261901   4.771   0.746   5.266
86690SOL     OW61902   2.156  13.930   2.538
86690SOL    HW161903   2.163  13.839   2.566
86690SOL    HW261904   2.220  13.938   2.467
86691SOL     OW61905   6.290   5.497   3.742
86691SOL    HW161906   6.241   5.570   3.702
86691SOL    HW261907   6.244   5.480   3.824
86692SOL     OW61908   3.901  12.374   5.394
86692SOL    HW161909   3.850  12.312   5.446
86692SOL    HW261910   3.865  12.460   5.416
86693SOL     OW61911   1.970   7.367   4.766
86693SOL    HW161912   1.991   7.329   4.851
86693SOL    HW261913   1.970   7.293   4.706
86694SOL     OW61914   7.425  10.347   2.234
86694SOL    HW161915   7.460  10.270   2.279
86694SOL    HW261916   7.338  10.360   2.272
86695SOL     OW61917  14.586   1.947  13.289
86695SOL    HW161918  14.560   2.021  13.345
86695SOL    HW261919  14.517   1.882  13.302
86696SOL     OW61920   9.684  11.281  12.295
86696SOL    HW161921   9.682  11.214  12.226
86696SOL    HW261922   9.592  11.294  12.319
86697SOL     OW61923  12.269   6.419   1.154
86697SOL    HW161924  12.311   6.499   1.185
86697SOL    HW261925  12.224   6.384   1.231
86698SOL     OW61926   7.968  11.746   6.618
86698SOL    HW161927   7.931  11.661   6.640
86698SOL    HW261928   7.914  11.778   6.546
86699SOL     OW61929   7.067   4.182   0.813
86699SOL    HW161930   6.992   4.156   0.760
86699SOL    HW261931   7.112   4.100   0.832
86700SOL     OW61932  14.117   1.231   4.306
86700SOL    HW161933  14.180   1.209   4.375
86700SOL    HW261934  14.058   1.156   4.303
86701SOL     OW61935   5.265  14.402   5.405
86701SOL    HW161936   5.319  14.417   5.483
86701SOL    HW261937   5.327  14.375   5.338
86702SOL     OW61938  10.663   4.940   3.999
86702SOL    HW161939  10.579   4.900   4.020
86702SOL    HW261940  10.701   4.882   3.933
86703SOL     OW61941  10.946   7.866   7.235
86703SOL    HW161942  10.916   7.956   7.230
86703SOL    HW261943  10.888   7.817   7.177
86704SOL     OW61944  12.586   7.516   3.894
86704SOL    HW161945  12.670   7.491   3.856
86704SOL    HW261946  12.529   7.440   3.879
86705SOL     OW61947  10.189  11.812   2.398
86705SOL    HW161948  10.127  11.739   2.390
86705SOL    HW261949  10.251  11.798   2.327
86706SOL     OW61950   2.927  10.102   1.416
86706SOL    HW161951   2.988  10.126   1.485
86706SOL    HW261952   2.843  10.090   1.460
86707SOL     OW61953   2.120   1.708   7.085
86707SOL    HW161954   2.069   1.628   7.071
86707SOL    HW261955   2.139   1.739   6.996
86708SOL     OW61956   7.897  10.861   6.511
86708SOL    HW161957   7.835  10.800   6.471
86708SOL    HW261958   7.982  10.817   6.506
86709SOL     OW61959  13.041  12.210  14.293
86709SOL    HW161960  13.048  12.294  14.248
86709SOL    HW261961  12.950  12.206  14.323
86710SOL     OW61962  14.686  10.966   4.150
86710SOL    HW161963  14.686  10.873   4.173
86710SOL    HW261964  14.644  11.009   4.224
86711SOL     OW61965   4.113   3.656   4.513
86711SOL    HW161966   4.064   3.583   4.551
86711SOL    HW261967   4.205   3.631   4.522
86712SOL     OW61968   8.173   6.152  14.434
86712SOL    HW161969   8.142   6.100  14.360
86712SOL    HW261970   8.190   6.088  14.503
86713SOL     OW61971   4.778   5.704  12.154
86713SOL    HW161972   4.745   5.766  12.219
86713SOL    HW261973   4.768   5.750  12.070
86714SOL     OW61974   9.626  11.794   1.717
86714SOL    HW161975   9.534  11.777   1.697
86714SOL    HW261976   9.629  11.886   1.742
86715SOL     OW61977  11.975  12.655   0.866
86715SOL    HW161978  11.948  12.571   0.904
86715SOL    HW261979  11.900  12.684   0.815
86716SOL     OW61980   9.533   6.800   6.247
86716SOL    HW161981   9.592   6.875   6.250
86716SOL    HW261982   9.527   6.779   6.154
86717SOL     OW61983   8.535   8.797   4.732
86717SOL    HW161984   8.524   8.737   4.657
86717SOL    HW261985   8.578   8.874   4.694
86718SOL     OW61986  11.359   0.133   1.782
86718SOL    HW161987  11.346   0.144   1.688
86718SOL    HW261988  11.432   0.192   1.803
86719SOL     OW61989   1.819  13.505  11.833
86719SOL    HW161990   1.768  13.518  11.752
86719SOL    HW261991   1.753  13.499  11.902
86720SOL     OW61992  11.941   9.601   5.895
86720SOL    HW161993  11.889   9.582   5.973
86720SOL    HW261994  11.935   9.521   5.842
86721SOL     OW61995   2.552   9.287   9.978
86721SOL    HW161996   2.604   9.217   9.939
86721SOL    HW261997   2.505   9.245  10.050
86722SOL     OW61998   3.591   1.575  13.986
86722SOL    HW161999   3.498   1.593  13.977
86722SOL    HW262000   3.631   1.613  13.908
86723SOL     OW62001   8.289   0.245   8.133
86723SOL    HW162002   8.343   0.167   8.122
86723SOL    HW262003   8.350   0.319   8.128
86724SOL     OW62004   1.659   9.099   9.743
86724SOL    HW162005   1.695   9.159   9.677
86724SOL    HW262006   1.700   9.125   9.825
86725SOL     OW62007   6.478  12.956  10.082
86725SOL    HW162008   6.510  13.046  10.083
86725SOL    HW262009   6.553  12.904  10.054
86726SOL     OW62010  14.447  12.763  13.765
86726SOL    HW162011  14.443  12.668  13.774
86726SOL    HW262012  14.356  12.789  13.750
86727SOL     OW62013   2.600  13.717  11.139
86727SOL    HW162014   2.669  13.653  11.155
86727SOL    HW262015   2.519  13.665  11.136
86728SOL     OW62016   0.486   2.415   5.552
86728SOL    HW162017   0.508   2.500   5.514
86728SOL    HW262018   0.399   2.395   5.518
86729SOL     OW62019   3.518  12.176   3.872
86729SOL    HW162020   3.558  12.133   3.948
86729SOL    HW262021   3.583  12.240   3.844
86730SOL     OW62022   9.397   8.315   8.253
86730SOL    HW162023   9.388   8.399   8.208
86730SOL    HW262024   9.491   8.304   8.267
86731SOL     OW62025  10.267  10.295  11.531
86731SOL    HW162026  10.279  10.259  11.443
86731SOL    HW262027  10.346  10.346  11.547
86732SOL     OW62028   2.896   7.702   1.213
86732SOL    HW162029   2.832   7.697   1.143
86732SOL    HW262030   2.846   7.730   1.290
86733SOL     OW62031   2.182   1.884   5.444
86733SOL    HW162032   2.185   1.979   5.456
86733SOL    HW262033   2.172   1.872   5.350
86734SOL     OW62034   4.989   3.541   4.547
86734SOL    HW162035   5.028   3.497   4.622
86734SOL    HW262036   4.909   3.493   4.529
86735SOL     OW62037   4.592   4.577   8.461
86735SOL    HW162038   4.660   4.523   8.421
86735SOL    HW262039   4.513   4.555   8.411
86736SOL     OW62040  11.810   6.210   3.632
86736SOL    HW162041  11.754   6.165   3.569
86736SOL    HW262042  11.750   6.267   3.680
86737SOL     OW62043  13.798   2.083   3.669
86737SOL    HW162044  13.795   1.990   3.645
86737SOL    HW262045  13.879   2.116   3.629
86738SOL     OW62046  14.231   1.658   4.396
86738SOL    HW162047  14.307   1.600   4.403
86738SOL    HW262048  14.265   1.739   4.359
86739SOL     OW62049  14.177   3.966   7.718
86739SOL    HW162050  14.170   3.874   7.743
86739SOL    HW262051  14.097   4.006   7.752
86740SOL     OW62052  14.209   5.565   8.714
86740SOL    HW162053  14.236   5.590   8.802
86740SOL    HW262054  14.218   5.470   8.712
86741SOL     OW62055   6.745   6.056   2.901
86741SOL    HW162056   6.758   6.120   2.832
86741SOL    HW262057   6.833   6.031   2.928
86742SOL     OW62058   5.584   8.036  13.138
86742SOL    HW162059   5.571   8.005  13.228
86742SOL    HW262060   5.625   8.122  13.148
86743SOL     OW62061   9.809   6.588   3.919
86743SOL    HW162062   9.793   6.495   3.909
86743SOL    HW262063   9.848   6.615   3.836
86744SOL     OW62064   1.567   6.162   7.279
86744SOL    HW162065   1.640   6.106   7.306
86744SOL    HW262066   1.504   6.155   7.351
86745SOL     OW62067   7.222  11.572   1.219
86745SOL    HW162068   7.211  11.664   1.194
86745SOL    HW262069   7.158  11.525   1.166
86746SOL     OW62070  14.264   2.283  12.262
86746SOL    HW162071  14.339   2.241  12.302
86746SOL    HW262072  14.237   2.224  12.192
86747SOL     OW62073   8.875  11.756   2.798
86747SOL    HW162074   8.799  11.813   2.809
86747SOL    HW262075   8.947  11.801   2.841
86748SOL     OW62076   4.398   4.406   3.247
86748SOL    HW162077   4.304   4.388   3.242
86748SOL    HW262078   4.425   4.415   3.155
86749SOL     OW62079   7.610  12.172  11.131
86749SOL    HW162080   7.588  12.235  11.200
86749SOL    HW262081   7.705  12.166  11.134
86750SOL     OW62082  12.195   6.795   0.794
86750SOL    HW162083  12.281   6.837   0.803
86750SOL    HW262084  12.176   6.801   0.700
86751SOL     OW62085   7.822  12.436  14.183
86751SOL    HW162086   7.792  12.389  14.262
86751SOL    HW262087   7.743  12.471  14.144
86752SOL     OW62088   3.166   9.925  10.614
86752SOL    HW162089   3.081   9.891  10.584
86752SOL    HW262090   3.215   9.847  10.641
86753SOL     OW62091   7.623   0.337   2.174
86753SOL    HW162092   7.611   0.357   2.267
86753SOL    HW262093   7.641   0.422   2.134
86754SOL     OW62094   8.736   0.612   9.396
86754SOL    HW162095   8.646   0.643   9.384
86754SOL    HW262096   8.790   0.690   9.390
86755SOL     OW62097   3.488  13.350   9.758
86755SOL    HW162098   3.469  13.443   9.755
86755SOL    HW262099   3.438  13.317   9.832
86756SOL     OW62100   5.671  12.311   9.591
86756SOL    HW162101   5.646  12.340   9.679
86756SOL    HW262102   5.660  12.389   9.536
86757SOL     OW62103   6.596   1.057  14.022
86757SOL    HW162104   6.549   1.003  13.959
86757SOL    HW262105   6.686   1.023  14.020
86758SOL     OW62106   3.676   9.148   8.883
86758SOL    HW162107   3.600   9.093   8.863
86758SOL    HW262108   3.751   9.099   8.849
86759SOL     OW62109   8.380   2.606   4.740
86759SOL    HW162110   8.451   2.671   4.740
86759SOL    HW262111   8.332   2.624   4.659
86760SOL     OW62112   0.447   7.441   8.403
86760SOL    HW162113   0.506   7.486   8.342
86760SOL    HW262114   0.501   7.427   8.481
86761SOL     OW62115   5.570  10.424  13.045
86761SOL    HW162116   5.664  10.422  13.064
86761SOL    HW262117   5.537  10.499  13.094
86762SOL     OW62118   8.073   6.324   5.076
86762SOL    HW162119   8.160   6.361   5.093
86762SOL    HW262120   8.091   6.245   5.025
86763SOL     OW62121  14.477   5.042   1.867
86763SOL    HW162122  14.514   5.130   1.864
86763SOL    HW262123  14.520   4.995   1.796
86764SOL     OW62124   3.160   5.556   2.551
86764SOL    HW162125   3.073   5.533   2.518
86764SOL    HW262126   3.198   5.610   2.481
86765SOL     OW62127   8.323   2.703   6.124
86765SOL    HW162128   8.341   2.611   6.142
86765SOL    HW262129   8.245   2.723   6.176
86766SOL     OW62130   3.248   3.241  11.892
86766SOL    HW162131   3.262   3.171  11.828
86766SOL    HW262132   3.246   3.196  11.976
86767SOL     OW62133   3.112   0.073   1.939
86767SOL    HW162134   3.089  14.863   1.914
86767SOL    HW262135   3.031   0.109   1.977
86768SOL     OW62136  14.284   0.455  12.559
86768SOL    HW162137  14.240   0.494  12.483
86768SOL    HW262138  14.375   0.483  12.552
86769SOL     OW62139   1.164   0.894   8.245
86769SOL    HW162140   1.245   0.855   8.215
86769SOL    HW262141   1.181   0.989   8.244
86770SOL     OW62142   0.267  13.785   5.857
86770SOL    HW162143   0.208  13.778   5.782
86770SOL    HW262144   0.338  13.724   5.837
86771SOL     OW62145   6.081   7.578  10.439
86771SOL    HW162146   6.012   7.593  10.374
86771SOL    HW262147   6.122   7.496  10.411
86772SOL     OW62148  11.344   2.770  14.400
86772SOL    HW162149  11.309   2.703  14.459
86772SOL    HW262150  11.314   2.744  14.313
86773SOL     OW62151   5.631   9.702   3.547
86773SOL    HW162152   5.717   9.669   3.521
86773SOL    HW262153   5.619   9.782   3.496
86774SOL     OW62154   7.373   2.590   3.749
86774SOL    HW162155   7.296   2.647   3.756
86774SOL    HW262156   7.430   2.633   3.685
86775SOL     OW62157   9.815   6.752   1.007
86775SOL    HW162158   9.798   6.823   1.069
86775SOL    HW262159   9.898   6.714   1.036
86776SOL     OW62160   1.805  11.891   4.628
86776SOL    HW162161   1.749  11.946   4.683
86776SOL    HW262162   1.787  11.920   4.539
86777SOL     OW62163  11.770   8.763   4.833
86777SOL    HW162164  11.743   8.838   4.780
86777SOL    HW262165  11.819   8.707   4.773
86778SOL     OW62166   8.285   8.308   4.554
86778SOL    HW162167   8.362   8.325   4.609
86778SOL    HW262168   8.231   8.387   4.562
86779SOL     OW62169   7.720   9.396   6.058
86779SOL    HW162170   7.791   9.378   6.119
86779SOL    HW262171   7.661   9.321   6.067
86780SOL     OW62172   7.775   8.513   3.403
86780SOL    HW162173   7.687   8.484   3.429
86780SOL    HW262174   7.795   8.585   3.464
86781SOL     OW62175  10.939  10.692  12.076
86781SOL    HW162176  10.943  10.780  12.116
86781SOL    HW262177  10.937  10.633  12.151
86782SOL     OW62178  13.310  13.116  12.410
86782SOL    HW162179  13.333  13.177  12.340
86782SOL    HW262180  13.217  13.097  12.395
86783SOL     OW62181   9.119  10.145   5.015
86783SOL    HW162182   9.169  10.104   5.085
86783SOL    HW262183   9.167  10.226   4.995
86784SOL     OW62184  14.694   6.544   8.477
86784SOL    HW162185  14.736   6.498   8.404
86784SOL    HW262186  14.673   6.631   8.443
86785SOL     OW62187   3.615   2.696   7.751
86785SOL    HW162188   3.658   2.774   7.715
86785SOL    HW262189   3.535   2.730   7.793
86786SOL     OW62190  10.059   0.318  11.818
86786SOL    HW162191  10.087   0.376  11.889
86786SOL    HW262192  10.072   0.369  11.738
86787SOL     OW62193   9.074  13.414   1.640
86787SOL    HW162194   9.135  13.350   1.603
86787SOL    HW262195   9.116  13.499   1.624
86788SOL     OW62196  11.188   2.276   0.940
86788SOL    HW162197  11.126   2.253   1.009
86788SOL    HW262198  11.244   2.198   0.932
86789SOL     OW62199   5.224  10.511   9.284
86789SOL    HW162200   5.183  10.478   9.364
86789SOL    HW262201   5.255  10.432   9.239
86790SOL     OW62202   5.122  10.085   0.459
86790SOL    HW162203   5.201  10.099   0.512
86790SOL    HW262204   5.154  10.042   0.380
86791SOL     OW62205   2.098  13.742   8.913
86791SOL    HW162206   2.007  13.717   8.896
86791SOL    HW262207   2.149  13.667   8.884
86792SOL     OW62208   1.843   2.514  11.269
86792SOL    HW162209   1.799   2.579  11.325
86792SOL    HW262210   1.924   2.558  11.242
86793SOL     OW62211   2.076  13.580   8.557
86793SOL    HW162212   2.108  13.534   8.478
86793SOL    HW262213   2.154  13.591   8.611
86794SOL     OW62214   3.408   7.918   4.384
86794SOL    HW162215   3.386   7.842   4.438
86794SOL    HW262216   3.438   7.881   4.301
86795SOL     OW62217   5.512   6.920   9.805
86795SOL    HW162218   5.602   6.938   9.780
86795SOL    HW262219   5.482   6.856   9.740
86796SOL     OW62220   5.896  14.231   8.540
86796SOL    HW162221   5.899  14.197   8.629
86796SOL    HW262222   5.864  14.157   8.488
86797SOL     OW62223   3.171  11.517  13.129
86797SOL    HW162224   3.090  11.481  13.164
86797SOL    HW262225   3.150  11.539  13.038
86798SOL     OW62226   8.295   1.642   8.586
86798SOL    HW162227   8.238   1.600   8.522
86798SOL    HW262228   8.313   1.573   8.651
86799SOL     OW62229   1.552  11.576  12.295
86799SOL    HW162230   1.461  11.550  12.313
86799SOL    HW262231   1.571  11.539  12.209
86800SOL     OW62232   6.050   3.037   5.536
86800SOL    HW162233   5.968   3.085   5.528
86800SOL    HW262234   6.115   3.104   5.558
86801SOL     OW62235  13.083  11.176   5.899
86801SOL    HW162236  13.008  11.203   5.847
86801SOL    HW262237  13.156  11.228   5.867
86802SOL     OW62238   6.275  10.098  12.077
86802SOL    HW162239   6.250  10.190  12.079
86802SOL    HW262240   6.197  10.052  12.109
86803SOL     OW62241  10.000   9.448   5.328
86803SOL    HW162242  10.076   9.475   5.380
86803SOL    HW262243  10.036   9.387   5.264
86804SOL     OW62244   2.883   1.107   9.358
86804SOL    HW162245   2.899   1.114   9.264
86804SOL    HW262246   2.921   1.023   9.382
86805SOL     OW62247   1.410  10.171   8.222
86805SOL    HW162248   1.470  10.098   8.205
86805SOL    HW262249   1.413  10.223   8.141
86806SOL     OW62250   1.284   3.881  14.270
86806SOL    HW162251   1.241   3.809  14.315
86806SOL    HW262252   1.214   3.922  14.218
86807SOL     OW62253   9.270   1.982  10.990
86807SOL    HW162254   9.254   1.980  11.084
86807SOL    HW262255   9.263   2.075  10.967
86808SOL     OW62256  10.169  14.478   7.922
86808SOL    HW162257  10.148  14.558   7.970
86808SOL    HW262258  10.261  14.461   7.942
86809SOL     OW62259  11.250   9.164  10.395
86809SOL    HW162260  11.156   9.154  10.381
86809SOL    HW262261  11.281   9.075  10.411
86810SOL     OW62262  10.428  10.157   0.295
86810SOL    HW162263  10.521  10.168   0.276
86810SOL    HW262264  10.384  10.184   0.215
86811SOL     OW62265   7.517   4.696  11.758
86811SOL    HW162266   7.463   4.736  11.826
86811SOL    HW262267   7.553   4.770  11.709
86812SOL     OW62268  11.950  10.959   1.999
86812SOL    HW162269  11.862  10.985   2.023
86812SOL    HW262270  11.967  10.880   2.049
86813SOL     OW62271  14.851   3.811  10.863
86813SOL    HW162272   0.021   3.733  10.889
86813SOL    HW262273   0.036   3.882  10.869
86814SOL     OW62274  11.292   9.498   1.974
86814SOL    HW162275  11.344   9.473   2.050
86814SOL    HW262276  11.208   9.456   1.986
86815SOL     OW62277  11.511   3.735  11.261
86815SOL    HW162278  11.530   3.653  11.216
86815SOL    HW262279  11.441   3.776  11.210
86816SOL     OW62280   9.768   1.326  13.376
86816SOL    HW162281   9.746   1.317  13.284
86816SOL    HW262282   9.843   1.268  13.389
86817SOL     OW62283   3.157   3.189  10.154
86817SOL    HW162284   3.090   3.216  10.091
86817SOL    HW262285   3.240   3.207  10.110
86818SOL     OW62286   9.647   9.834  12.026
86818SOL    HW162287   9.733   9.797  12.045
86818SOL    HW262288   9.643   9.836  11.930
86819SOL     OW62289   8.851   0.867  11.972
86819SOL    HW162290   8.936   0.911  11.969
86819SOL    HW262291   8.790   0.934  12.004
86820SOL     OW62292   3.215   0.950  13.503
86820SOL    HW162293   3.308   0.963  13.485
86820SOL    HW262294   3.207   0.963  13.598
86821SOL     OW62295   3.868   6.363   7.072
86821SOL    HW162296   3.909   6.280   7.095
86821SOL    HW262297   3.792   6.338   7.019
86822SOL     OW62298   9.200   4.984  11.613
86822SOL    HW162299   9.222   5.037  11.690
86822SOL    HW262300   9.250   5.023  11.541
86823SOL     OW62301  14.097   6.221   6.904
86823SOL    HW162302  14.100   6.201   6.810
86823SOL    HW262303  14.047   6.148   6.942
86824SOL     OW62304   4.662   8.989   4.864
86824SOL    HW162305   4.584   9.036   4.835
86824SOL    HW262306   4.675   9.018   4.955
86825SOL     OW62307   6.456   0.957  11.888
86825SOL    HW162308   6.539   0.918  11.913
86825SOL    HW262309   6.476   1.049  11.874
86826SOL     OW62310  14.231  11.845  11.684
86826SOL    HW162311  14.287  11.874  11.612
86826SOL    HW262312  14.261  11.756  11.703
86827SOL     OW62313   4.370  11.875   5.872
86827SOL    HW162314   4.425  11.859   5.795
86827SOL    HW262315   4.283  11.892   5.837
86828SOL     OW62316   5.499   8.075   8.238
86828SOL    HW162317   5.512   8.038   8.151
86828SOL    HW262318   5.548   8.016   8.296
86829SOL     OW62319   0.864   3.895   9.290
86829SOL    HW162320   0.887   3.804   9.309
86829SOL    HW262321   0.774   3.891   9.256
86830SOL     OW62322  12.421   4.859  12.865
86830SOL    HW162323  12.479   4.916  12.915
86830SOL    HW262324  12.334   4.875  12.900
86831SOL     OW62325   6.293   8.197   4.286
86831SOL    HW162326   6.257   8.145   4.357
86831SOL    HW262327   6.370   8.240   4.323
86832SOL     OW62328   4.966  14.138  10.470
86832SOL    HW162329   4.888  14.109  10.517
86832SOL    HW262330   4.994  14.061  10.420
86833SOL     OW62331  11.082  11.554   6.250
86833SOL    HW162332  11.048  11.470   6.221
86833SOL    HW262333  11.042  11.568   6.336
86834SOL     OW62334   3.384   4.486   3.034
86834SOL    HW162335   3.342   4.450   3.112
86834SOL    HW262336   3.375   4.417   2.968
86835SOL     OW62337  10.513   3.410   1.652
86835SOL    HW162338  10.571   3.474   1.610
86835SOL    HW262339  10.561   3.382   1.730
86836SOL     OW62340   9.924   4.910   5.325
86836SOL    HW162341   9.887   4.837   5.375
86836SOL    HW262342   9.875   4.987   5.355
86837SOL     OW62343  14.492   6.964  14.696
86837SOL    HW162344  14.517   7.039  14.641
86837SOL    HW262345  14.398   6.953  14.680
86838SOL     OW62346   3.699   6.475  10.483
86838SOL    HW162347   3.677   6.559  10.443
86838SOL    HW262348   3.653   6.411  10.429
86839SOL     OW62349   9.247   9.783   3.066
86839SOL    HW162350   9.294   9.700   3.064
86839SOL    HW262351   9.268   9.821   3.151
86840SOL     OW62352   7.382   8.176   3.414
86840SOL    HW162353   7.402   8.083   3.407
86840SOL    HW262354   7.333   8.184   3.495
86841SOL     OW62355   5.548   7.373  11.129
86841SOL    HW162356   5.535   7.390  11.036
86841SOL    HW262357   5.472   7.322  11.156
86842SOL     OW62358   6.539   6.893   7.244
86842SOL    HW162359   6.468   6.844   7.286
86842SOL    HW262360   6.572   6.950   7.313
86843SOL     OW62361   1.317  11.608   9.035
86843SOL    HW162362   1.261  11.598   8.958
86843SOL    HW262363   1.283  11.544   9.098
86844SOL     OW62364   7.874   1.020  12.725
86844SOL    HW162365   7.959   1.004  12.767
86844SOL    HW262366   7.811   1.011  12.796
86845SOL     OW62367   3.132   8.368  13.824
86845SOL    HW162368   3.095   8.299  13.769
86845SOL    HW262369   3.201   8.325  13.875
86846SOL     OW62370   4.646   0.034  12.656
86846SOL    HW162371   4.575  14.863  12.696
86846SOL    HW262372   4.603   0.104  12.606
86847SOL     OW62373   1.716   2.122   6.659
86847SOL    HW162374   1.680   2.045   6.614
86847SOL    HW262375   1.692   2.109   6.750
86848SOL     OW62376   3.304  13.405   5.816
86848SOL    HW162377   3.210  13.411   5.831
86848SOL    HW262378   3.315  13.422   5.723
86849SOL     OW62379   8.714  11.321   5.326
86849SOL    HW162380   8.649  11.377   5.370
86849SOL    HW262381   8.662  11.264   5.270
86850SOL     OW62382   7.330   1.037   2.875
86850SOL    HW162383   7.402   0.980   2.846
86850SOL    HW262384   7.303   1.083   2.796
86851SOL     OW62385   5.210   1.643   7.384
86851SOL    HW162386   5.175   1.612   7.467
86851SOL    HW262387   5.141   1.623   7.320
86852SOL     OW62388   5.046  14.701   0.922
86852SOL    HW162389   4.961  14.745   0.916
86852SOL    HW262390   5.105  14.753   0.868
86853SOL     OW62391   3.988  12.774  14.680
86853SOL    HW162392   4.029  12.694  14.713
86853SOL    HW262393   3.931  12.803  14.751
86854SOL     OW62394  14.372   7.882  11.860
86854SOL    HW162395  14.316   7.818  11.816
86854SOL    HW262396  14.461   7.861  11.830
86855SOL     OW62397   0.097  14.520  13.405
86855SOL    HW162398   0.165  14.520  13.337
86855SOL    HW262399   0.017  14.545  13.359
86856SOL     OW62400   8.666   3.890  11.081
86856SOL    HW162401   8.609   3.850  11.015
86856SOL    HW262402   8.671   3.982  11.054
86857SOL     OW62403  14.568   6.849   3.806
86857SOL    HW162404  14.548   6.867   3.898
86857SOL    HW262405  14.492   6.879   3.758
86858SOL     OW62406   3.489  13.539  14.103
86858SOL    HW162407   3.517  13.448  14.106
86858SOL    HW262408   3.571  13.589  14.099
86859SOL     OW62409   7.785   7.349   0.535
86859SOL    HW162410   7.788   7.295   0.614
86859SOL    HW262411   7.861   7.407   0.543
86860SOL     OW62412   6.365   9.642  12.555
86860SOL    HW162413   6.337   9.699  12.627
86860SOL    HW262414   6.410   9.701  12.494
86861SOL     OW62415   2.797   7.331  10.686
86861SOL    HW162416   2.768   7.244  10.714
86861SOL    HW262417   2.833   7.372  10.764
86862SOL     OW62418   3.619  10.433  14.143
86862SOL    HW162419   3.641  10.438  14.050
86862SOL    HW262420   3.651  10.516  14.179
86863SOL     OW62421   1.255   4.114  12.075
86863SOL    HW162422   1.349   4.121  12.063
86863SOL    HW262423   1.234   4.175  12.145
86864SOL     OW62424   9.884  12.838   2.890
86864SOL    HW162425   9.940  12.876   2.822
86864SOL    HW262426   9.802  12.819   2.845
86865SOL     OW62427   9.668   3.805   1.364
86865SOL    HW162428   9.643   3.714   1.380
86865SOL    HW262429   9.745   3.819   1.419
86866SOL     OW62430  14.338   1.574   2.016
86866SOL    HW162431  14.336   1.484   2.050
86866SOL    HW262432  14.341   1.629   2.094
86867SOL     OW62433  12.624   2.539   4.493
86867SOL    HW162434  12.690   2.561   4.427
86867SOL    HW262435  12.663   2.568   4.576
86868SOL     OW62436   4.975  11.334   1.237
86868SOL    HW162437   4.955  11.250   1.198
86868SOL    HW262438   5.071  11.341   1.231
86869SOL     OW62439   9.856   0.786   2.672
86869SOL    HW162440   9.806   0.759   2.749
86869SOL    HW262441   9.908   0.710   2.649
86870SOL     OW62442  14.412   6.894   3.530
86870SOL    HW162443  14.386   6.866   3.442
86870SOL    HW262444  14.329   6.907   3.576
86871SOL     OW62445   8.815  14.547   4.161
86871SOL    HW162446   8.750  14.584   4.221
86871SOL    HW262447   8.802  14.453   4.166
86872SOL     OW62448   8.085   8.581  14.716
86872SOL    HW162449   8.089   8.487  14.703
86872SOL    HW262450   8.043   8.592  14.801
86873SOL     OW62451   7.947  11.569  10.911
86873SOL    HW162452   7.987  11.647  10.875
86873SOL    HW262453   8.015  11.529  10.965
86874SOL     OW62454   2.879   7.074   6.450
86874SOL    HW162455   2.823   7.149   6.430
86874SOL    HW262456   2.949   7.078   6.385
86875SOL     OW62457  11.370  14.406   2.169
86875SOL    HW162458  11.356  14.498   2.149
86875SOL    HW262459  11.463  14.391   2.152
86876SOL     OW62460  10.415  14.272   4.939
86876SOL    HW162461  10.368  14.195   4.906
86876SOL    HW262462  10.426  14.328   4.862
86877SOL     OW62463  11.118   7.306   8.568
86877SOL    HW162464  11.136   7.246   8.496
86877SOL    HW262465  11.150   7.259   8.646
86878SOL     OW62466   5.773  10.809   4.756
86878SOL    HW162467   5.765  10.731   4.701
86878SOL    HW262468   5.753  10.882   4.698
86879SOL     OW62469   0.611   7.115   1.126
86879SOL    HW162470   0.655   7.182   1.179
86879SOL    HW262471   0.539   7.085   1.181
86880SOL     OW62472   9.376   3.349   5.341
86880SOL    HW162473   9.358   3.349   5.247
86880SOL    HW262474   9.289   3.353   5.382
86881SOL     OW62475   0.732   5.212   3.844
86881SOL    HW162476   0.768   5.222   3.932
86881SOL    HW262477   0.676   5.289   3.832
86882SOL     OW62478   0.965  12.144  13.080
86882SOL    HW162479   0.970  12.069  13.139
86882SOL    HW262480   1.051  12.147  13.038
86883SOL     OW62481   8.497   8.072   0.938
86883SOL    HW162482   8.562   8.027   0.992
86883SOL    HW262483   8.427   8.094   1.000
86884SOL     OW62484   0.608   8.113   7.434
86884SOL    HW162485   0.654   8.035   7.463
86884SOL    HW262486   0.673   8.183   7.440
86885SOL     OW62487   0.602  11.805   2.664
86885SOL    HW162488   0.506  11.808   2.659
86885SOL    HW262489   0.631  11.862   2.593
86886SOL     OW62490  11.636   0.419  12.218
86886SOL    HW162491  11.696   0.349  12.243
86886SOL    HW262492  11.592   0.443  12.299
86887SOL     OW62493   9.392  13.580   6.379
86887SOL    HW162494   9.401  13.609   6.470
86887SOL    HW262495   9.415  13.657   6.327
86888SOL     OW62496   1.932   7.964  12.994
86888SOL    HW162497   1.994   8.005  13.053
86888SOL    HW262498   1.929   8.023  12.918
86889SOL     OW62499   4.658   4.766   8.237
86889SOL    HW162500   4.607   4.720   8.304
86889SOL    HW262501   4.740   4.788   8.281
86890SOL     OW62502   2.009   0.918   7.609
86890SOL    HW162503   1.935   0.979   7.608
86890SOL    HW262504   2.086   0.975   7.603
86891SOL     OW62505   7.961   3.142   6.171
86891SOL    HW162506   8.016   3.195   6.228
86891SOL    HW262507   8.021   3.102   6.108
86892SOL     OW62508  10.482   3.279  13.362
86892SOL    HW162509  10.541   3.352  13.384
86892SOL    HW262510  10.492   3.268  13.267
86893SOL     OW62511   6.920   8.427   8.046
86893SOL    HW162512   6.974   8.504   8.064
86893SOL    HW262513   6.977   8.353   8.067
86894SOL     OW62514   3.326  10.082   5.185
86894SOL    HW162515   3.334  10.032   5.267
86894SOL    HW262516   3.232  10.086   5.168
86895SOL     OW62517   2.969  12.929  10.899
86895SOL    HW162518   2.941  12.843  10.869
86895SOL    HW262519   2.918  12.945  10.978
86896SOL     OW62520   8.623  13.949   2.903
86896SOL    HW162521   8.580  13.878   2.951
86896SOL    HW262522   8.568  14.025   2.917
86897SOL     OW62523   4.803   9.165  10.659
86897SOL    HW162524   4.864   9.091  10.657
86897SOL    HW262525   4.782   9.181  10.567
86898SOL     OW62526   2.182   7.020   7.991
86898SOL    HW162527   2.163   6.968   8.070
86898SOL    HW262528   2.174   6.958   7.919
86899SOL     OW62529   2.611   6.677   8.062
86899SOL    HW162530   2.675   6.748   8.061
86899SOL    HW262531   2.550   6.699   8.133
86900SOL     OW62532  10.745   0.240  13.756
86900SOL    HW162533  10.840   0.230  13.763
86900SOL    HW262534  10.729   0.260  13.663
86901SOL     OW62535   9.824   6.085  13.625
86901SOL    HW162536   9.769   6.059  13.699
86901SOL    HW262537   9.775   6.156  13.583
86902SOL     OW62538   4.714  12.855  14.672
86902SOL    HW162539   4.653  12.869  14.599
86902SOL    HW262540   4.790  12.814  14.632
86903SOL     OW62541   1.179  12.335  10.496
86903SOL    HW162542   1.089  12.302  10.502
86903SOL    HW262543   1.169  12.430  10.493
86904SOL     OW62544   5.686   5.361  12.833
86904SOL    HW162545   5.728   5.400  12.757
86904SOL    HW262546   5.594   5.356  12.810
86905SOL     OW62547   3.690   0.706   4.845
86905SOL    HW162548   3.730   0.727   4.930
86905SOL    HW262549   3.749   0.745   4.781
86906SOL     OW62550   6.021  13.205   9.956
86906SOL    HW162551   6.058  13.278  10.006
86906SOL    HW262552   5.952  13.245   9.903
86907SOL     OW62553   2.828  11.214  13.187
86907SOL    HW162554   2.741  11.221  13.148
86907SOL    HW262555   2.871  11.144  13.138
86908SOL     OW62556   2.580   2.207  11.457
86908SOL    HW162557   2.622   2.211  11.371
86908SOL    HW262558   2.651   2.185  11.518
86909SOL     OW62559  12.113   2.819   3.856
86909SOL    HW162560  12.141   2.901   3.814
86909SOL    HW262561  12.093   2.844   3.947
86910SOL     OW62562  14.286  10.528   2.858
86910SOL    HW162563  14.343  10.561   2.927
86910SOL    HW262564  14.344  10.518   2.782
86911SOL     OW62565   1.358   8.834  14.841
86911SOL    HW162566   1.278   8.835  14.788
86911SOL    HW262567   1.326   8.831   0.053
86912SOL     OW62568   2.194   9.036   3.280
86912SOL    HW162569   2.211   9.097   3.351
86912SOL    HW262570   2.180   9.091   3.203
86913SOL     OW62571  11.275   4.505   9.564
86913SOL    HW162572  11.232   4.562   9.627
86913SOL    HW262573  11.366   4.534   9.563
86914SOL     OW62574  10.987  11.460   5.532
86914SOL    HW162575  10.900  11.461   5.492
86914SOL    HW262576  11.023  11.374   5.508
86915SOL     OW62577   0.095  11.463   8.255
86915SOL    HW162578   0.179  11.421   8.273
86915SOL    HW262579   0.091  11.537   8.316
86916SOL     OW62580   5.492   0.766  10.024
86916SOL    HW162581   5.510   0.845   9.973
86916SOL    HW262582   5.449   0.706   9.962
86917SOL     OW62583   9.204  10.249   6.502
86917SOL    HW162584   9.223  10.156   6.499
86917SOL    HW262585   9.209  10.278   6.411
86918SOL     OW62586  11.820  11.263   3.467
86918SOL    HW162587  11.736  11.263   3.512
86918SOL    HW262588  11.866  11.340   3.502
86919SOL     OW62589  12.927   0.494   6.080
86919SOL    HW162590  12.898   0.478   5.991
86919SOL    HW262591  12.849   0.526   6.126
86920SOL     OW62592   6.397  13.596   8.105
86920SOL    HW162593   6.371  13.507   8.128
86920SOL    HW262594   6.492  13.594   8.100
86921SOL     OW62595  13.911  11.489  11.907
86921SOL    HW162596  13.877  11.401  11.893
86921SOL    HW262597  13.894  11.535  11.825
86922SOL     OW62598   0.038  13.930  10.515
86922SOL    HW162599  14.842  13.885  10.554
86922SOL    HW262600   0.049  14.009  10.569
86923SOL     OW62601   0.025   2.323   2.967
86923SOL    HW162602   0.026   2.257   2.897
86923SOL    HW262603  14.813   2.325   2.998
86924SOL     OW62604   8.366  13.994  14.528
86924SOL    HW162605   8.424  13.938  14.476
86924SOL    HW262606   8.412  14.078  14.532
86925SOL     OW62607   6.050  13.579   9.738
86925SOL    HW162608   6.005  13.529   9.806
86925SOL    HW262609   5.983  13.637   9.702
86926SOL     OW62610   9.299  10.190   9.412
86926SOL    HW162611   9.282  10.187   9.317
86926SOL    HW262612   9.245  10.119   9.448
86927SOL     OW62613  11.595   9.931  10.244
86927SOL    HW162614  11.532   9.939  10.172
86927SOL    HW262615  11.567   9.853  10.292
86928SOL     OW62616  14.559   5.690   7.459
86928SOL    HW162617  14.550   5.629   7.386
86928SOL    HW262618  14.652   5.713   7.459
86929SOL     OW62619   4.809   2.850   7.968
86929SOL    HW162620   4.826   2.798   8.046
86929SOL    HW262621   4.854   2.803   7.897
86930SOL     OW62622  13.565  10.871   6.861
86930SOL    HW162623  13.576  10.791   6.810
86930SOL    HW262624  13.470  10.885   6.863
86931SOL     OW62625   1.750   8.917   8.414
86931SOL    HW162626   1.814   8.854   8.382
86931SOL    HW262627   1.779   8.937   8.504
86932SOL     OW62628   1.242  14.285   1.877
86932SOL    HW162629   1.187  14.310   1.803
86932SOL    HW262630   1.236  14.358   1.938
86933SOL     OW62631   1.425   3.877   5.183
86933SOL    HW162632   1.471   3.843   5.107
86933SOL    HW262633   1.460   3.827   5.257
86934SOL     OW62634   6.571  12.848  11.244
86934SOL    HW162635   6.640  12.851  11.310
86934SOL    HW262636   6.493  12.821  11.292
86935SOL     OW62637   4.739   4.365   2.490
86935SOL    HW162638   4.714   4.420   2.564
86935SOL    HW262639   4.661   4.311   2.474
86936SOL     OW62640   3.720   8.647   7.634
86936SOL    HW162641   3.633   8.627   7.669
86936SOL    HW262642   3.717   8.616   7.543
86937SOL     OW62643   1.524   4.208   4.658
86937SOL    HW162644   1.508   4.219   4.564
86937SOL    HW262645   1.619   4.216   4.666
86938SOL     OW62646   4.239   8.411   6.157
86938SOL    HW162647   4.317   8.395   6.104
86938SOL    HW262648   4.208   8.324   6.182
86939SOL     OW62649   5.184   3.344  10.690
86939SOL    HW162650   5.158   3.327  10.780
86939SOL    HW262651   5.153   3.432  10.672
86940SOL     OW62652   1.518   8.353  13.322
86940SOL    HW162653   1.452   8.290  13.296
86940SOL    HW262654   1.488   8.388  13.406
86941SOL     OW62655   7.371  11.198   1.404
86941SOL    HW162656   7.464  11.183   1.391
86941SOL    HW262657   7.365  11.290   1.429
86942SOL     OW62658  14.110   5.148  11.348
86942SOL    HW162659  14.042   5.205  11.315
86942SOL    HW262660  14.063   5.082  11.399
86943SOL     OW62661   7.383   5.298   7.498
86943SOL    HW162662   7.367   5.241   7.423
86943SOL    HW262663   7.389   5.238   7.573
86944SOL     OW62664  13.214   8.359  10.441
86944SOL    HW162665  13.235   8.271  10.470
86944SOL    HW262666  13.118   8.359  10.433
86945SOL     OW62667   0.635   3.997   2.111
86945SOL    HW162668   0.695   3.928   2.083
86945SOL    HW262669   0.557   3.984   2.057
86946SOL     OW62670   2.817   8.162   2.365
86946SOL    HW162671   2.780   8.224   2.302
86946SOL    HW262672   2.778   8.186   2.448
86947SOL     OW62673   4.866   0.232   0.773
86947SOL    HW162674   4.956   0.262   0.762
86947SOL    HW262675   4.875   0.138   0.792
86948SOL     OW62676   3.345   5.644   5.506
86948SOL    HW162677   3.338   5.563   5.557
86948SOL    HW262678   3.256   5.661   5.476
86949SOL     OW62679   1.064   4.432  11.218
86949SOL    HW162680   0.971   4.429  11.243
86949SOL    HW262681   1.111   4.408  11.298
86950SOL     OW62682   2.810   2.063  11.283
86950SOL    HW162683   2.905   2.055  11.288
86950SOL    HW262684   2.782   2.076  11.373
86951SOL     OW62685   5.204   7.749  12.178
86951SOL    HW162686   5.238   7.751  12.267
86951SOL    HW262687   5.116   7.785  12.185
86952SOL     OW62688   4.453  10.383   0.525
86952SOL    HW162689   4.366  10.369   0.562
86952SOL    HW262690   4.467  10.477   0.534
86953SOL     OW62691  12.884   3.767   5.879
86953SOL    HW162692  12.975   3.772   5.909
86953SOL    HW262693  12.852   3.857   5.884
86954SOL     OW62694   2.321   1.346   2.983
86954SOL    HW162695   2.343   1.273   3.042
86954SOL    HW262696   2.375   1.419   3.013
86955SOL     OW62697   8.035   6.664   7.220
86955SOL    HW162698   8.021   6.672   7.314
86955SOL    HW262699   8.127   6.687   7.208
86956SOL     OW62700  14.788  12.647   4.395
86956SOL    HW162701  14.807  12.605   4.479
86956SOL    HW262702  14.718  12.709   4.415
86957SOL     OW62703  11.973  14.636   3.825
86957SOL    HW162704  11.957  14.552   3.866
86957SOL    HW262705  12.065  14.634   3.800
86958SOL     OW62706  11.316   3.741   7.419
86958SOL    HW162707  11.285   3.664   7.372
86958SOL    HW262708  11.286   3.728   7.509
86959SOL     OW62709   4.075   2.510   7.499
86959SOL    HW162710   4.029   2.518   7.582
86959SOL    HW262711   4.088   2.415   7.488
86960SOL     OW62712   6.591   6.403   1.585
86960SOL    HW162713   6.510   6.401   1.636
86960SOL    HW262714   6.570   6.456   1.508
86961SOL     OW62715   1.329   8.929  11.581
86961SOL    HW162716   1.281   8.948  11.501
86961SOL    HW262717   1.418   8.962  11.565
86962SOL     OW62718  14.288   5.994   6.871
86962SOL    HW162719  14.225   5.923   6.858
86962SOL    HW262720  14.249   6.069   6.827
86963SOL     OW62721  13.581  11.604   6.983
86963SOL    HW162722  13.547  11.645   6.904
86963SOL    HW262723  13.556  11.512   6.977
86964SOL     OW62724   0.621   9.185  14.821
86964SOL    HW162725   0.636   9.265  14.871
86964SOL    HW262726   0.551   9.208  14.759
86965SOL     OW62727   6.870   7.736   8.533
86965SOL    HW162728   6.909   7.673   8.472
86965SOL    HW262729   6.809   7.787   8.479
86966SOL     OW62730   6.392   5.693  14.695
86966SOL    HW162731   6.412   5.710  14.603
86966SOL    HW262732   6.375   5.599  14.699
86967SOL     OW62733   1.644  12.299   7.354
86967SOL    HW162734   1.722  12.313   7.300
86967SOL    HW262735   1.644  12.373   7.415
86968SOL     OW62736  10.891  13.829  12.110
86968SOL    HW162737  10.856  13.918  12.105
86968SOL    HW262738  10.957  13.834  12.179
86969SOL     OW62739   0.294   2.610  11.153
86969SOL    HW162740   0.362   2.677  11.143
86969SOL    HW262741   0.264   2.594  11.063
86970SOL     OW62742   3.127   2.218  10.673
86970SOL    HW162743   3.201   2.217  10.734
86970SOL    HW262744   3.053   2.246  10.727
86971SOL     OW62745   0.403   4.766  14.150
86971SOL    HW162746   0.394   4.851  14.105
86971SOL    HW262747   0.458   4.714  14.092
86972SOL     OW62748  10.935   7.114   1.994
86972SOL    HW162749  10.856   7.103   1.940
86972SOL    HW262750  11.008   7.099   1.934
86973SOL     OW62751   2.450  12.164  11.433
86973SOL    HW162752   2.534  12.143  11.392
86973SOL    HW262753   2.472  12.231  11.498
86974SOL     OW62754   1.560  14.782   8.505
86974SOL    HW162755   1.475  14.768   8.548
86974SOL    HW262756   1.542  14.847   8.438
86975SOL     OW62757   0.857  10.956   9.279
86975SOL    HW162758   0.784  10.997   9.325
86975SOL    HW262759   0.846  10.863   9.294
86976SOL     OW62760  10.338   8.268  13.498
86976SOL    HW162761  10.331   8.175  13.478
86976SOL    HW262762  10.410   8.275  13.560
86977SOL     OW62763   5.578  14.377   2.222
86977SOL    HW162764   5.626  14.457   2.242
86977SOL    HW262765   5.583  14.325   2.302
86978SOL     OW62766   0.699   9.029   6.925
86978SOL    HW162767   0.692   9.085   6.848
86978SOL    HW262768   0.785   9.049   6.962
86979SOL     OW62769   4.215   8.372  14.407
86979SOL    HW162770   4.274   8.444  14.384
86979SOL    HW262771   4.135   8.416  14.437
86980SOL     OW62772   5.406   2.575   0.214
86980SOL    HW162773   5.477   2.513   0.229
86980SOL    HW262774   5.334   2.522   0.182
86981SOL     OW62775   1.236  14.524  11.665
86981SOL    HW162776   1.319  14.477  11.671
86981SOL    HW262777   1.169  14.455  11.667
86982SOL     OW62778   2.063   6.204   0.678
86982SOL    HW162779   1.973   6.188   0.708
86982SOL    HW262780   2.055   6.220   0.585
86983SOL     OW62781   7.906   2.124   7.618
86983SOL    HW162782   7.851   2.123   7.696
86983SOL    HW262783   7.985   2.077   7.645
86984SOL     OW62784  13.043   6.854   9.472
86984SOL    HW162785  13.120   6.869   9.417
86984SOL    HW262786  12.972   6.837   9.410
86985SOL     OW62787   0.806   3.400  14.282
86985SOL    HW162788   0.743   3.328  14.287
86985SOL    HW262789   0.789   3.440  14.197
86986SOL     OW62790   8.846   2.153   8.733
86986SOL    HW162791   8.880   2.073   8.693
86986SOL    HW262792   8.916   2.217   8.721
86987SOL     OW62793   0.029   7.506   4.348
86987SOL    HW162794   0.070   7.420   4.355
86987SOL    HW262795   0.103   7.567   4.343
86988SOL     OW62796   7.965   8.966   6.316
86988SOL    HW162797   7.972   8.879   6.355
86988SOL    HW262798   7.898   8.956   6.249
86989SOL     OW62799   3.488   8.029  11.507
86989SOL    HW162800   3.527   7.941  11.506
86989SOL    HW262801   3.562   8.087  11.527
86990SOL     OW62802   1.534  13.709   1.405
86990SOL    HW162803   1.583  13.769   1.461
86990SOL    HW262804   1.453  13.755   1.384
86991SOL     OW62805   4.605  12.482   0.191
86991SOL    HW162806   4.601  12.493   0.096
86991SOL    HW262807   4.633  12.567   0.224
86992SOL     OW62808   4.581   8.366  13.017
86992SOL    HW162809   4.569   8.274  13.042
86992SOL    HW262810   4.514   8.382  12.951
86993SOL     OW62811  11.079  13.361   1.271
86993SOL    HW162812  11.019  13.338   1.342
86993SOL    HW262813  11.056  13.451   1.249
86994SOL     OW62814   4.318   9.321   5.589
86994SOL    HW162815   4.315   9.264   5.513
86994SOL    HW262816   4.276   9.271   5.659
86995SOL     OW62817  10.341  10.835   0.876
86995SOL    HW162818  10.298  10.807   0.795
86995SOL    HW262819  10.354  10.753   0.925
86996SOL     OW62820  10.084   1.058   6.555
86996SOL    HW162821  10.036   1.022   6.481
86996SOL    HW262822  10.175   1.059   6.527
86997SOL     OW62823   1.369  10.746   0.907
86997SOL    HW162824   1.451  10.766   0.863
86997SOL    HW262825   1.393  10.688   0.980
86998SOL     OW62826   7.990   8.018   6.143
86998SOL    HW162827   7.902   8.048   6.166
86998SOL    HW262828   7.976   7.935   6.097
86999SOL     OW62829  11.360   8.162   9.943
86999SOL    HW162830  11.371   8.107  10.021
86999SOL    HW262831  11.370   8.252   9.977
87000SOL     OW62832   6.563   5.573  14.336
87000SOL    HW162833   6.481   5.522  14.340
87000SOL    HW262834   6.604   5.546  14.254
87001SOL     OW62835   9.540  10.847   5.193
87001SOL    HW162836   9.460  10.883   5.232
87001SOL    HW262837   9.602  10.843   5.266
87002SOL     OW62838   8.985   4.090  10.090
87002SOL    HW162839   9.076   4.070  10.111
87002SOL    HW262840   8.976   4.184  10.109
87003SOL     OW62841  10.211  12.699   0.554
87003SOL    HW162842  10.126  12.677   0.592
87003SOL    HW262843  10.266  12.624   0.575
87004SOL     OW62844   5.936   1.186   6.132
87004SOL    HW162845   5.988   1.106   6.123
87004SOL    HW262846   5.982   1.238   6.197
87005SOL     OW62847   7.391  13.651  14.673
87005SOL    HW162848   7.329  13.578  14.671
87005SOL    HW262849   7.439  13.638  14.755
87006SOL     OW62850   9.765  12.296  13.584
87006SOL    HW162851   9.682  12.307  13.632
87006SOL    HW262852   9.777  12.201  13.580
87007SOL     OW62853   4.799  14.683   8.756
87007SOL    HW162854   4.793  14.597   8.797
87007SOL    HW262855   4.834  14.740   8.824
87008SOL     OW62856  10.834  11.109  14.023
87008SOL    HW162857  10.916  11.088  13.980
87008SOL    HW262858  10.785  11.160  13.959
87009SOL     OW62859   8.197  10.392   1.642
87009SOL    HW162860   8.242  10.404   1.558
87009SOL    HW262861   8.259  10.341   1.695
87010SOL     OW62862  10.871   5.607  13.204
87010SOL    HW162863  10.891   5.700  13.191
87010SOL    HW262864  10.950   5.562  13.176
87011SOL     OW62865   8.951   6.143   6.837
87011SOL    HW162866   8.882   6.205   6.863
87011SOL    HW262867   8.918   6.058   6.866
87012SOL     OW62868   5.560  10.507  10.697
87012SOL    HW162869   5.503  10.432  10.717
87012SOL    HW262870   5.501  10.583  10.698
87013SOL     OW62871   0.053   7.094   4.016
87013SOL    HW162872   0.102   7.153   4.073
87013SOL    HW262873  14.860   7.062   4.070
87014SOL     OW62874  13.354   8.337   0.807
87014SOL    HW162875  13.408   8.395   0.754
87014SOL    HW262876  13.293   8.395   0.853
87015SOL     OW62877   3.400   8.407   8.114
87015SOL    HW162878   3.389   8.424   8.207
87015SOL    HW262879   3.386   8.313   8.105
87016SOL     OW62880   4.112   8.105   1.089
87016SOL    HW162881   4.091   8.196   1.066
87016SOL    HW262882   4.173   8.077   1.022
87017SOL     OW62883  11.796   4.335   7.182
87017SOL    HW162884  11.797   4.301   7.272
87017SOL    HW262885  11.781   4.429   7.192
87018SOL     OW62886  11.331   3.309   8.385
87018SOL    HW162887  11.311   3.261   8.465
87018SOL    HW262888  11.426   3.297   8.373
87019SOL     OW62889  10.171   7.129  10.899
87019SOL    HW162890  10.163   7.052  10.842
87019SOL    HW262891  10.085   7.170  10.897
87020SOL     OW62892  11.289  13.466   2.895
87020SOL    HW162893  11.279  13.430   2.807
87020SOL    HW262894  11.212  13.436   2.942
87021SOL     OW62895   9.997  10.480   5.316
87021SOL    HW162896  10.037  10.405   5.272
87021SOL    HW262897  10.052  10.555   5.291
87022SOL     OW62898   0.419   6.474  12.898
87022SOL    HW162899   0.392   6.530  12.824
87022SOL    HW262900   0.449   6.536  12.964
87023SOL     OW62901   1.369  10.780   0.541
87023SOL    HW162902   1.313  10.788   0.618
87023SOL    HW262903   1.316  10.814   0.469
87024SOL     OW62904   4.391   8.445   8.803
87024SOL    HW162905   4.408   8.353   8.825
87024SOL    HW262906   4.368   8.443   8.710
87025SOL     OW62907   9.303   1.058   0.355
87025SOL    HW162908   9.234   1.001   0.390
87025SOL    HW262909   9.312   1.127   0.420
87026SOL     OW62910   3.348  13.432   5.555
87026SOL    HW162911   3.388  13.359   5.506
87026SOL    HW262912   3.264  13.446   5.512
87027SOL     OW62913   6.659   8.284  10.104
87027SOL    HW162914   6.676   8.337  10.182
87027SOL    HW262915   6.742   8.285  10.056
87028SOL     OW62916   4.105  14.492   2.342
87028SOL    HW162917   4.106  14.490   2.247
87028SOL    HW262918   4.085  14.583   2.365
87029SOL     OW62919  12.553   4.027  13.558
87029SOL    HW162920  12.594   3.943  13.574
87029SOL    HW262921  12.622   4.081  13.520
87030SOL     OW62922   9.267  14.435   1.494
87030SOL    HW162923   9.236  14.492   1.423
87030SOL    HW262924   9.197  14.438   1.559
87031SOL     OW62925   8.257   1.757   4.295
87031SOL    HW162926   8.185   1.770   4.357
87031SOL    HW262927   8.237   1.673   4.252
87032SOL     OW62928   3.609  11.976  14.113
87032SOL    HW162929   3.578  11.890  14.083
87032SOL    HW262930   3.701  11.978  14.089
87033SOL     OW62931   7.695  10.418   2.519
87033SOL    HW162932   7.618  10.364   2.504
87033SOL    HW262933   7.742  10.418   2.435
87034SOL     OW62934  11.810   0.774   7.497
87034SOL    HW162935  11.763   0.733   7.425
87034SOL    HW262936  11.809   0.868   7.476
87035SOL     OW62937   1.303  11.376   0.869
87035SOL    HW162938   1.345  11.345   0.950
87035SOL    HW262939   1.309  11.302   0.809
87036SOL     OW62940   4.124   5.412   6.031
87036SOL    HW162941   4.048   5.442   6.082
87036SOL    HW262942   4.138   5.481   5.966
87037SOL     OW62943  13.643  12.129   3.183
87037SOL    HW162944  13.663  12.155   3.093
87037SOL    HW262945  13.719  12.158   3.233
87038SOL     OW62946  11.662  13.679   7.006
87038SOL    HW162947  11.750  13.700   7.037
87038SOL    HW262948  11.634  13.604   7.059
87039SOL     OW62949   1.664  11.899  13.335
87039SOL    HW162950   1.748  11.929  13.301
87039SOL    HW262951   1.685  11.820  13.385
87040SOL     OW62952   1.054  13.814   5.966
87040SOL    HW162953   0.977  13.826   6.023
87040SOL    HW262954   1.080  13.902   5.942
87041SOL     OW62955   6.818   3.386  13.379
87041SOL    HW162956   6.744   3.444  13.395
87041SOL    HW262957   6.895   3.443  13.383
87042SOL     OW62958   2.797   1.514  12.558
87042SOL    HW162959   2.791   1.587  12.619
87042SOL    HW262960   2.891   1.497  12.549
87043SOL     OW62961  12.184  10.524   9.239
87043SOL    HW162962  12.156  10.458   9.302
87043SOL    HW262963  12.229  10.475   9.171
87044SOL     OW62964   6.874   9.921   4.876
87044SOL    HW162965   6.847  10.013   4.872
87044SOL    HW262966   6.856   9.887   4.788
87045SOL     OW62967  12.154   7.736   2.151
87045SOL    HW162968  12.201   7.819   2.145
87045SOL    HW262969  12.222   7.669   2.154
87046SOL     OW62970   5.573  12.471   5.863
87046SOL    HW162971   5.500  12.516   5.821
87046SOL    HW262972   5.547  12.379   5.863
87047SOL     OW62973   3.074  11.261  11.461
87047SOL    HW162974   2.999  11.317  11.477
87047SOL    HW262975   3.062  11.186  11.519
87048SOL     OW62976   0.724  11.811   6.135
87048SOL    HW162977   0.664  11.786   6.206
87048SOL    HW262978   0.807  11.830   6.179
87049SOL     OW62979  13.834   4.961   9.072
87049SOL    HW162980  13.759   5.016   9.050
87049SOL    HW262981  13.909   5.021   9.074
87050SOL     OW62982   5.902   0.360  10.930
87050SOL    HW162983   5.838   0.348  10.860
87050SOL    HW262984   5.882   0.447  10.965
87051SOL     OW62985   9.563  11.851   1.084
87051SOL    HW162986   9.595  11.905   1.012
87051SOL    HW262987   9.566  11.908   1.160
87052SOL     OW62988  10.099   4.675  11.872
87052SOL    HW162989  10.176   4.725  11.898
87052SOL    HW262990  10.119   4.642  11.785
87053SOL     OW62991   7.952   8.747   2.412
87053SOL    HW162992   8.024   8.747   2.348
87053SOL    HW262993   7.875   8.773   2.361
87054SOL     OW62994   4.194   7.992   8.225
87054SOL    HW162995   4.205   7.919   8.163
87054SOL    HW262996   4.223   8.069   8.176
87055SOL     OW62997  12.410  10.054  13.368
87055SOL    HW162998  12.424  10.143  13.335
87055SOL    HW262999  12.322  10.031  13.338
87056SOL     OW63000   3.724  14.718   8.456
87056SOL    HW163001   3.727  14.629   8.491
87056SOL    HW263002   3.652  14.717   8.393
87057SOL     OW63003   2.690   2.909   5.170
87057SOL    HW163004   2.734   2.839   5.220
87057SOL    HW263005   2.674   2.978   5.235
87058SOL     OW63006  11.462   5.189   1.699
87058SOL    HW163007  11.550   5.216   1.725
87058SOL    HW263008  11.472   5.154   1.611
87059SOL     OW63009  10.422  14.208   0.686
87059SOL    HW163010  10.443  14.291   0.642
87059SOL    HW263011  10.506  14.161   0.687
87060SOL     OW63012  14.035  10.815   0.671
87060SOL    HW163013  13.993  10.789   0.589
87060SOL    HW263014  14.014  10.908   0.679
87061SOL     OW63015   8.543   3.069   9.133
87061SOL    HW163016   8.484   3.049   9.061
87061SOL    HW263017   8.537   3.164   9.144
87062SOL     OW63018   8.248  13.994   6.093
87062SOL    HW163019   8.219  14.081   6.121
87062SOL    HW263020   8.193  13.933   6.141
87063SOL     OW63021   6.194   4.508   6.472
87063SOL    HW163022   6.264   4.443   6.481
87063SOL    HW263023   6.235   4.591   6.497
87064SOL     OW63024   7.224   6.522   4.223
87064SOL    HW163025   7.176   6.470   4.158
87064SOL    HW263026   7.164   6.591   4.248
87065SOL     OW63027   6.728  10.398   7.258
87065SOL    HW163028   6.643  10.442   7.257
87065SOL    HW263029   6.726  10.342   7.180
87066SOL     OW63030  12.702  14.571   2.480
87066SOL    HW163031  12.608  14.553   2.483
87066SOL    HW263032  12.737  14.504   2.420
87067SOL     OW63033   4.465   8.183   7.002
87067SOL    HW163034   4.467   8.222   6.915
87067SOL    HW263035   4.460   8.258   7.062
87068SOL     OW63036  12.862   9.280   4.768
87068SOL    HW163037  12.798   9.303   4.835
87068SOL    HW263038  12.818   9.298   4.685
87069SOL     OW63039   6.308   4.943   6.118
87069SOL    HW163040   6.282   4.855   6.091
87069SOL    HW263041   6.225   4.992   6.122
87070SOL     OW63042  11.961   9.128   0.628
87070SOL    HW163043  11.941   9.037   0.649
87070SOL    HW263044  12.016   9.158   0.700
87071SOL     OW63045  14.555   3.701   9.098
87071SOL    HW163046  14.558   3.759   9.174
87071SOL    HW263047  14.485   3.638   9.119
87072SOL     OW63048   3.287  10.156  11.487
87072SOL    HW163049   3.376  10.189  11.495
87072SOL    HW263050   3.292  10.066  11.519
87073SOL     OW63051   0.631   9.389   5.165
87073SOL    HW163052   0.539   9.380   5.188
87073SOL    HW263053   0.647   9.317   5.103
87074SOL     OW63054  10.421   2.506   6.385
87074SOL    HW163055  10.382   2.440   6.443
87074SOL    HW263056  10.362   2.509   6.310
87075SOL     OW63057   5.241  14.067   8.808
87075SOL    HW163058   5.209  13.988   8.851
87075SOL    HW263059   5.190  14.138   8.846
87076SOL     OW63060   4.346  11.839   8.603
87076SOL    HW163061   4.297  11.866   8.525
87076SOL    HW263062   4.353  11.919   8.655
87077SOL     OW63063  10.447   7.821  13.296
87077SOL    HW163064  10.502   7.754  13.257
87077SOL    HW263065  10.365   7.816  13.246
87078SOL     OW63066   1.151   7.403   3.737
87078SOL    HW163067   1.246   7.390   3.733
87078SOL    HW263068   1.114   7.315   3.726
87079SOL     OW63069   0.754   3.746   5.008
87079SOL    HW163070   0.837   3.782   5.040
87079SOL    HW263071   0.687   3.807   5.040
87080SOL     OW63072  13.507   3.294   8.645
87080SOL    HW163073  13.443   3.359   8.617
87080SOL    HW263074  13.475   3.211   8.610
87081SOL     OW63075   5.759   0.248  12.519
87081SOL    HW163076   5.817   0.208  12.454
87081SOL    HW263077   5.817   0.273  12.591
87082SOL     OW63078   0.636   5.532   7.619
87082SOL    HW163079   0.613   5.622   7.597
87082SOL    HW263080   0.601   5.518   7.707
87083SOL     OW63081  12.676  13.819   5.220
87083SOL    HW163082  12.655  13.726   5.211
87083SOL    HW263083  12.616  13.851   5.287
87084SOL     OW63084  11.139  10.659  13.530
87084SOL    HW163085  11.065  10.710  13.563
87084SOL    HW263086  11.167  10.607  13.605
87085SOL     OW63087   2.034   3.477   7.279
87085SOL    HW163088   1.968   3.450   7.215
87085SOL    HW263089   2.102   3.410   7.273
87086SOL     OW63090   1.026   4.024   7.739
87086SOL    HW163091   1.120   4.026   7.724
87086SOL    HW263092   1.016   3.987   7.827
87087SOL     OW63093  12.023   4.542   3.920
87087SOL    HW163094  12.018   4.554   4.015
87087SOL    HW263095  11.945   4.491   3.898
87088SOL     OW63096  14.126  10.551  12.232
87088SOL    HW163097  14.082  10.623  12.187
87088SOL    HW263098  14.218  10.560  12.208
87089SOL     OW63099  10.637  10.201   6.976
87089SOL    HW163100  10.698  10.212   7.049
87089SOL    HW263101  10.567  10.146   7.011
87090SOL     OW63102  12.142   2.539   4.749
87090SOL    HW163103  12.226   2.516   4.788
87090SOL    HW263104  12.152   2.631   4.724
87091SOL     OW63105   6.198   9.035  13.593
87091SOL    HW163106   6.180   8.963  13.653
87091SOL    HW263107   6.142   9.018  13.517
87092SOL     OW63108   8.220  13.578   9.320
87092SOL    HW163109   8.258  13.491   9.305
87092SOL    HW263110   8.244  13.599   9.410
87093SOL     OW63111   0.943   9.111   2.382
87093SOL    HW163112   0.935   9.172   2.309
87093SOL    HW263113   1.035   9.086   2.382
87094SOL     OW63114  14.332   4.360  10.855
87094SOL    HW163115  14.339   4.288  10.792
87094SOL    HW263116  14.407   4.416  10.837
87095SOL     OW63117  11.464   5.798   7.418
87095SOL    HW163118  11.446   5.704   7.420
87095SOL    HW263119  11.549   5.807   7.461
87096SOL     OW63120   8.843   4.543   1.685
87096SOL    HW163121   8.846   4.475   1.618
87096SOL    HW263122   8.869   4.623   1.640
87097SOL     OW63123   4.450   7.997  12.400
87097SOL    HW163124   4.359   7.995  12.373
87097SOL    HW263125   4.450   7.961  12.489
87098SOL     OW63126   2.794  11.281   6.614
87098SOL    HW163127   2.718  11.302   6.560
87098SOL    HW263128   2.759  11.277   6.703
87099SOL     OW63129   5.751  10.864  11.646
87099SOL    HW163130   5.844  10.883  11.642
87099SOL    HW263131   5.715  10.931  11.705
87100SOL     OW63132   7.836   8.396   9.552
87100SOL    HW163133   7.768   8.331   9.568
87100SOL    HW263134   7.918   8.348   9.567
87101SOL     OW63135  13.815  10.901   5.812
87101SOL    HW163136  13.782  10.884   5.724
87101SOL    HW263137  13.760  10.972   5.845
87102SOL     OW63138   7.545  13.298   5.601
87102SOL    HW163139   7.613  13.275   5.537
87102SOL    HW263140   7.576  13.379   5.642
87103SOL     OW63141   5.793  14.821   9.236
87103SOL    HW163142   5.765   0.017   9.289
87103SOL    HW263143   5.718  14.803   9.179
87104SOL     OW63144   0.536   4.534   8.711
87104SOL    HW163145   0.455   4.533   8.660
87104SOL    HW263146   0.557   4.627   8.721
87105SOL     OW63147  11.864   1.533   2.943
87105SOL    HW163148  11.825   1.578   2.868
87105SOL    HW263149  11.875   1.601   3.009
87106SOL     OW63150   1.516   2.228   8.879
87106SOL    HW163151   1.610   2.245   8.883
87106SOL    HW263152   1.476   2.313   8.898
87107SOL     OW63153  12.548  10.708   5.737
87107SOL    HW163154  12.459  10.730   5.708
87107SOL    HW263155  12.559  10.617   5.712
87108SOL     OW63156   3.583  10.549   7.148
87108SOL    HW163157   3.639  10.587   7.080
87108SOL    HW263158   3.643  10.498   7.202
87109SOL     OW63159   0.093   7.169   6.910
87109SOL    HW163160   0.177   7.189   6.868
87109SOL    HW263161   0.067   7.085   6.872
87110SOL     OW63162   3.854   1.240  12.710
87110SOL    HW163163   3.948   1.233  12.695
87110SOL    HW263164   3.815   1.182  12.645
87111SOL     OW63165   2.076   4.338   4.566
87111SOL    HW163166   2.130   4.280   4.513
87111SOL    HW263167   2.062   4.415   4.511
87112SOL     OW63168   4.766   2.969   2.264
87112SOL    HW163169   4.705   3.028   2.308
87112SOL    HW263170   4.825   3.026   2.215
87113SOL     OW63171   6.122  12.653   0.978
87113SOL    HW163172   6.067  12.662   0.900
87113SOL    HW263173   6.188  12.722   0.968
87114SOL     OW63174   1.992   2.418  14.595
87114SOL    HW163175   1.985   2.423  14.500
87114SOL    HW263176   1.903   2.404  14.626
87115SOL     OW63177   0.222   1.180   6.682
87115SOL    HW163178   0.303   1.161   6.730
87115SOL    HW263179   0.218   1.275   6.677
87116SOL     OW63180   1.917   7.728   6.828
87116SOL    HW163181   1.977   7.737   6.753
87116SOL    HW263182   1.975   7.718   6.904
87117SOL     OW63183  14.185  12.045   5.102
87117SOL    HW163184  14.251  11.976   5.098
87117SOL    HW263185  14.148  12.038   5.190
87118SOL     OW63186   5.000   4.063   7.464
87118SOL    HW163187   5.002   4.019   7.549
87118SOL    HW263188   4.963   4.149   7.482
87119SOL     OW63189   3.380   3.446   5.640
87119SOL    HW163190   3.344   3.533   5.657
87119SOL    HW263191   3.445   3.433   5.709
87120SOL     OW63192   2.964  11.279  11.061
87120SOL    HW163193   3.011  11.223  11.123
87120SOL    HW263194   2.877  11.291  11.100
87121SOL     OW63195  14.250  12.266   5.490
87121SOL    HW163196  14.219  12.274   5.580
87121SOL    HW263197  14.188  12.319   5.439
87122SOL     OW63198  14.713  14.659  13.956
87122SOL    HW163199  14.795  14.619  13.985
87122SOL    HW263200  14.647  14.591  13.973
87123SOL     OW63201   6.134   3.149   1.116
87123SOL    HW163202   6.226   3.124   1.130
87123SOL    HW263203   6.110   3.104   1.035
87124SOL     OW63204  13.077  10.398  10.265
87124SOL    HW163205  13.023  10.364  10.194
87124SOL    HW263206  13.093  10.322  10.321
87125SOL     OW63207  14.582   9.151   7.873
87125SOL    HW163208  14.542   9.167   7.959
87125SOL    HW263209  14.519   9.187   7.811
87126SOL     OW63210   6.467   3.458   3.860
87126SOL    HW163211   6.377   3.433   3.881
87126SOL    HW263212   6.519   3.426   3.935
87127SOL     OW63213  14.757   4.689   6.393
87127SOL    HW163214  14.666   4.708   6.414
87127SOL    HW263215  14.760   4.686   6.297
87128SOL     OW63216   9.282  12.416   5.665
87128SOL    HW163217   9.264  12.328   5.697
87128SOL    HW263218   9.301  12.404   5.572
87129SOL     OW63219  14.431  10.893  12.742
87129SOL    HW163220  14.435  10.930  12.831
87129SOL    HW263221  14.341  10.909  12.714
87130SOL     OW63222   2.792  12.312   2.585
87130SOL    HW163223   2.838  12.395   2.591
87130SOL    HW263224   2.699  12.335   2.588
87131SOL     OW63225   9.312   6.115  13.903
87131SOL    HW163226   9.280   6.038  13.854
87131SOL    HW263227   9.277   6.190  13.855
87132SOL     OW63228   0.199  13.517   1.989
87132SOL    HW163229   0.292  13.504   2.011
87132SOL    HW263230   0.153  13.497   2.070
87133SOL     OW63231   0.577   9.735  11.399
87133SOL    HW163232   0.563   9.693  11.484
87133SOL    HW263233   0.667   9.768  11.404
87134SOL     OW63234   8.827   6.804   1.970
87134SOL    HW163235   8.904   6.752   1.944
87134SOL    HW263236   8.794   6.759   2.048
87135SOL     OW63237   9.896   6.878   1.916
87135SOL    HW163238   9.982   6.859   1.879
87135SOL    HW263239   9.837   6.883   1.841
87136SOL     OW63240  11.244  12.104  13.780
87136SOL    HW163241  11.262  12.197  13.765
87136SOL    HW263242  11.180  12.080  13.713
87137SOL     OW63243   2.680   5.939  14.622
87137SOL    HW163244   2.729   5.858  14.622
87137SOL    HW263245   2.637   5.942  14.537
87138SOL     OW63246  10.002   4.884   9.198
87138SOL    HW163247  10.090   4.906   9.230
87138SOL    HW263248   9.943   4.912   9.267
87139SOL     OW63249   6.172  11.841   1.820
87139SOL    HW163250   6.114  11.839   1.744
87139SOL    HW263251   6.115  11.818   1.894
87140SOL     OW63252   1.437  12.416   9.971
87140SOL    HW163253   1.342  12.402   9.973
87140SOL    HW263254   1.474  12.329   9.956
87141SOL     OW63255   6.322  11.988   0.908
87141SOL    HW163256   6.228  11.993   0.893
87141SOL    HW263257   6.352  11.917   0.851
87142SOL     OW63258   0.034   0.588   9.354
87142SOL    HW163259   0.039   0.497   9.383
87142SOL    HW263260   0.002   0.636   9.430
87143SOL     OW63261  14.063   2.372  13.565
87143SOL    HW163262  14.154   2.342  13.571
87143SOL    HW263263  14.020   2.333  13.642
87144SOL     OW63264  12.155   8.300   2.139
87144SOL    HW163265  12.100   8.256   2.204
87144SOL    HW263266  12.195   8.373   2.185
87145SOL     OW63267   8.680   4.780  12.864
87145SOL    HW163268   8.746   4.822  12.809
87145SOL    HW263269   8.608   4.762  12.804
87146SOL     OW63270   6.345   5.363   7.412
87146SOL    HW163271   6.339   5.434   7.476
87146SOL    HW263272   6.258   5.359   7.372
87147SOL     OW63273  10.430   1.451  10.009
87147SOL    HW163274  10.366   1.506  10.054
87147SOL    HW263275  10.377   1.387   9.961
87148SOL     OW63276   1.198   7.493   6.440
87148SOL    HW163277   1.150   7.420   6.480
87148SOL    HW263278   1.244   7.453   6.366
87149SOL     OW63279   2.407   3.180   5.123
87149SOL    HW163280   2.449   3.264   5.103
87149SOL    HW263281   2.400   3.136   5.038
87150SOL     OW63282   2.322   6.546   7.792
87150SOL    HW163283   2.269   6.530   7.870
87150SOL    HW263284   2.297   6.476   7.731
87151SOL     OW63285   2.475  14.692  13.588
87151SOL    HW163286   2.439  14.673  13.502
87151SOL    HW263287   2.533  14.618  13.607
87152SOL     OW63288   4.985  12.945  12.695
87152SOL    HW163289   5.012  12.858  12.725
87152SOL    HW263290   4.899  12.931  12.656
87153SOL     OW63291  13.171  11.816   9.988
87153SOL    HW163292  13.141  11.817  10.079
87153SOL    HW263293  13.241  11.752   9.986
87154SOL     OW63294   4.046   1.296   4.765
87154SOL    HW163295   4.113   1.324   4.827
87154SOL    HW263296   4.085   1.222   4.719
87155SOL     OW63297   9.428   1.356   3.755
87155SOL    HW163298   9.387   1.434   3.718
87155SOL    HW263299   9.355   1.302   3.785
87156SOL     OW63300  11.920  13.974  11.141
87156SOL    HW163301  11.917  14.057  11.188
87156SOL    HW263302  12.003  13.976  11.093
87157SOL     OW63303  11.235   9.104   0.634
87157SOL    HW163304  11.294   9.066   0.569
87157SOL    HW263305  11.288   9.114   0.713
87158SOL     OW63306  14.702  10.763   9.549
87158SOL    HW163307  14.696  10.676   9.588
87158SOL    HW263308  14.673  10.823   9.618
87159SOL     OW63309  12.870  11.118   3.037
87159SOL    HW163310  12.954  11.164   3.046
87159SOL    HW263311  12.831  11.155   2.958
87160SOL     OW63312   8.982   5.674   6.838
87160SOL    HW163313   9.070   5.702   6.812
87160SOL    HW263314   8.996   5.590   6.882
87161SOL     OW63315  14.403  12.892  12.898
87161SOL    HW163316  14.404  12.931  12.985
87161SOL    HW263317  14.345  12.948  12.847
87162SOL     OW63318   8.939   0.315  13.291
87162SOL    HW163319   8.891   0.394  13.317
87162SOL    HW263320   9.028   0.345  13.277
87163SOL     OW63321   2.931   7.724  12.481
87163SOL    HW163322   2.985   7.668  12.426
87163SOL    HW263323   2.904   7.667  12.553
87164SOL     OW63324   0.232   9.878   2.301
87164SOL    HW163325   0.220   9.889   2.207
87164SOL    HW263326   0.246   9.784   2.312
87165SOL     OW63327   8.416  10.222   0.897
87165SOL    HW163328   8.474  10.273   0.841
87165SOL    HW263329   8.440  10.249   0.986
87166SOL     OW63330  13.763   1.158  11.858
87166SOL    HW163331  13.774   1.064  11.840
87166SOL    HW263332  13.852   1.190  11.870
87167SOL     OW63333   6.244   1.910   1.950
87167SOL    HW163334   6.201   1.871   2.025
87167SOL    HW263335   6.176   1.965   1.909
87168SOL     OW63336   0.798  10.339   8.958
87168SOL    HW163337   0.891  10.322   8.975
87168SOL    HW263338   0.777  10.284   8.883
87169SOL     OW63339   7.994   5.451   7.431
87169SOL    HW163340   7.965   5.362   7.412
87169SOL    HW263341   7.951   5.505   7.364
87170SOL     OW63342   9.766  13.370  10.632
87170SOL    HW163343   9.710  13.438  10.595
87170SOL    HW263344   9.712  13.327  10.698
87171SOL     OW63345   4.456   8.863   6.236
87171SOL    HW163346   4.382   8.847   6.178
87171SOL    HW263347   4.498   8.778   6.246
87172SOL     OW63348   0.476  11.681  13.049
87172SOL    HW163349   0.520  11.601  13.078
87172SOL    HW263350   0.467  11.670  12.954
87173SOL     OW63351   8.029   4.318   6.620
87173SOL    HW163352   8.099   4.257   6.599
87173SOL    HW263353   7.949   4.267   6.613
87174SOL     OW63354  13.075   1.880   7.464
87174SOL    HW163355  13.168   1.886   7.442
87174SOL    HW263356  13.057   1.960   7.513
87175SOL     OW63357   4.456  11.847  10.704
87175SOL    HW163358   4.460  11.899  10.624
87175SOL    HW263359   4.373  11.801  10.698
87176SOL     OW63360   8.004   1.526   4.386
87176SOL    HW163361   8.076   1.523   4.322
87176SOL    HW263362   7.937   1.468   4.349
87177SOL     OW63363  13.932   5.876   6.772
87177SOL    HW163364  13.973   5.870   6.685
87177SOL    HW263365  13.887   5.960   6.771
87178SOL     OW63366  11.201  12.006   9.329
87178SOL    HW163367  11.114  11.969   9.310
87178SOL    HW263368  11.257  11.969   9.260
87179SOL     OW63369   1.795   5.049   3.310
87179SOL    HW163370   1.867   5.094   3.353
87179SOL    HW263371   1.837   4.987   3.251
87180SOL     OW63372   1.711  13.930   6.060
87180SOL    HW163373   1.743  13.910   6.147
87180SOL    HW263374   1.618  13.949   6.073
87181SOL     OW63375   3.234   7.345   2.210
87181SOL    HW163376   3.301   7.313   2.270
87181SOL    HW263377   3.277   7.416   2.162
87182SOL     OW63378   5.054   9.524   0.207
87182SOL    HW163379   4.987   9.549   0.269
87182SOL    HW263380   5.038   9.579   0.130
87183SOL     OW63381   5.579   7.246  11.784
87183SOL    HW163382   5.641   7.224  11.854
87183SOL    HW263383   5.567   7.341  11.791
87184SOL     OW63384  11.025   6.973   6.282
87184SOL    HW163385  10.948   6.977   6.339
87184SOL    HW263386  10.993   6.937   6.200
87185SOL     OW63387  11.135   4.309   5.302
87185SOL    HW163388  11.129   4.361   5.382
87185SOL    HW263389  11.228   4.298   5.287
87186SOL     OW63390  14.294   4.083   6.121
87186SOL    HW163391  14.341   4.150   6.171
87186SOL    HW263392  14.363   4.029   6.083
87187SOL     OW63393   2.889  13.657  11.905
87187SOL    HW163394   2.951  13.730  11.907
87187SOL    HW263395   2.839  13.670  11.825
87188SOL     OW63396  11.510   4.545   8.005
87188SOL    HW163397  11.530   4.513   8.093
87188SOL    HW263398  11.503   4.640   8.016
87189SOL     OW63399  10.581   2.792   7.159
87189SOL    HW163400  10.488   2.812   7.147
87189SOL    HW263401  10.611   2.853   7.226
87190SOL     OW63402   1.755   9.554  13.684
87190SOL    HW163403   1.823   9.526  13.622
87190SOL    HW263404   1.708   9.474  13.707
87191SOL     OW63405  13.753   4.831   7.633
87191SOL    HW163406  13.717   4.742   7.628
87191SOL    HW263407  13.821   4.832   7.566
87192SOL     OW63408   2.527   4.209   4.820
87192SOL    HW163409   2.616   4.240   4.804
87192SOL    HW263410   2.473   4.288   4.810
87193SOL     OW63411  12.932  12.288  14.721
87193SOL    HW163412  12.864  12.356  14.716
87193SOL    HW263413  12.987  12.315  14.795
87194SOL     OW63414   7.516   7.669   3.209
87194SOL    HW163415   7.438   7.724   3.201
87194SOL    HW263416   7.505   7.625   3.293
87195SOL     OW63417   9.022  12.661  12.328
87195SOL    HW163418   9.060  12.644  12.242
87195SOL    HW263419   9.082  12.724  12.368
87196SOL     OW63420   8.640   7.712   5.350
87196SOL    HW163421   8.606   7.664   5.274
87196SOL    HW263422   8.683   7.646   5.403
87197SOL     OW63423   5.129  14.168   5.450
87197SOL    HW163424   5.178  14.250   5.442
87197SOL    HW263425   5.132  14.147   5.544
87198SOL     OW63426   1.179   4.756   6.316
87198SOL    HW163427   1.160   4.766   6.223
87198SOL    HW263428   1.243   4.685   6.320
87199SOL     OW63429   3.777   6.298   7.749
87199SOL    HW163430   3.719   6.311   7.674
87199SOL    HW263431   3.733   6.233   7.803
87200SOL     OW63432  10.001   9.446   9.305
87200SOL    HW163433  10.083   9.404   9.278
87200SOL    HW263434   9.990   9.419   9.397
87201SOL     OW63435   8.527   4.507   4.986
87201SOL    HW163436   8.534   4.498   4.891
87201SOL    HW263437   8.544   4.599   5.003
87202SOL     OW63438  12.284   8.020  11.051
87202SOL    HW163439  12.280   7.928  11.026
87202SOL    HW263440  12.273   8.068  10.969
87203SOL     OW63441   9.535  11.496   5.502
87203SOL    HW163442   9.474  11.424   5.494
87203SOL    HW263443   9.482  11.569   5.536
87204SOL     OW63444   5.365   8.857  11.873
87204SOL    HW163445   5.414   8.922  11.924
87204SOL    HW263446   5.330   8.797  11.939
87205SOL     OW63447   6.504   3.411   3.025
87205SOL    HW163448   6.569   3.470   3.063
87205SOL    HW263449   6.554   3.344   2.980
87206SOL     OW63450   0.603  14.849  14.359
87206SOL    HW163451   0.555   0.033  14.306
87206SOL    HW263452   0.536  14.790  14.393
87207SOL     OW63453  10.415   0.460  11.734
87207SOL    HW163454  10.410   0.373  11.774
87207SOL    HW263455  10.503   0.492  11.756
87208SOL     OW63456   5.893   6.653   5.433
87208SOL    HW163457   5.899   6.722   5.499
87208SOL    HW263458   5.966   6.595   5.451
87209SOL     OW63459   1.342   1.403   8.251
87209SOL    HW163460   1.423   1.427   8.206
87209SOL    HW263461   1.309   1.485   8.287
87210SOL     OW63462   3.451   9.075   0.905
87210SOL    HW163463   3.530   9.114   0.870
87210SOL    HW263464   3.383   9.094   0.840
87211SOL     OW63465   1.316  11.562  12.170
87211SOL    HW163466   1.285  11.649  12.195
87211SOL    HW263467   1.259  11.536  12.097
87212SOL     OW63468   1.938  12.263   2.180
87212SOL    HW163469   2.026  12.241   2.150
87212SOL    HW263470   1.907  12.329   2.119
87213SOL     OW63471   6.423   3.650  11.722
87213SOL    HW163472   6.478   3.715  11.766
87213SOL    HW263473   6.353   3.631  11.784
87214SOL     OW63474   3.868   1.596  10.904
87214SOL    HW163475   3.936   1.529  10.918
87214SOL    HW263476   3.893   1.667  10.963
87215SOL     OW63477   4.808   0.509   5.622
87215SOL    HW163478   4.869   0.435   5.612
87215SOL    HW263479   4.728   0.480   5.578
87216SOL     OW63480   4.107  12.300   0.131
87216SOL    HW163481   4.163  12.232   0.169
87216SOL    HW263482   4.078  12.351   0.207
87217SOL     OW63483   1.429   7.369   4.775
87217SOL    HW163484   1.381   7.450   4.794
87217SOL    HW263485   1.369   7.299   4.802
87218SOL     OW63486   3.884   8.800   4.315
87218SOL    HW163487   3.944   8.872   4.298
87218SOL    HW263488   3.941   8.728   4.344
87219SOL     OW63489   3.129   0.129  14.152
87219SOL    HW163490   3.056   0.138  14.091
87219SOL    HW263491   3.163   0.041  14.136
87220SOL     OW63492  12.764   8.672   7.662
87220SOL    HW163493  12.728   8.613   7.597
87220SOL    HW263494  12.745   8.630   7.746
87221SOL     OW63495   8.796   4.060  12.703
87221SOL    HW163496   8.803   4.008  12.782
87221SOL    HW263497   8.886   4.081  12.679
87222SOL     OW63498   4.892   2.639   3.682
87222SOL    HW163499   4.814   2.646   3.737
87222SOL    HW263500   4.872   2.569   3.621
87223SOL     OW63501   3.416   1.521   6.207
87223SOL    HW163502   3.411   1.593   6.270
87223SOL    HW263503   3.326   1.492   6.197
87224SOL     OW63504   7.278   7.880  10.461
87224SOL    HW163505   7.336   7.816  10.501
87224SOL    HW263506   7.246   7.837  10.382
87225SOL     OW63507  11.098  10.235   7.994
87225SOL    HW163508  11.190  10.211   7.983
87225SOL    HW263509  11.084  10.236   8.088
87226SOL     OW63510   0.021   5.828   4.601
87226SOL    HW163511  14.809   5.859   4.608
87226SOL    HW263512   0.069   5.903   4.566
87227SOL     OW63513   8.437  11.314   0.287
87227SOL    HW163514   8.355  11.351   0.321
87227SOL    HW263515   8.431  11.221   0.308
87228SOL     OW63516   5.819   2.326   4.399
87228SOL    HW163517   5.767   2.316   4.479
87228SOL    HW263518   5.805   2.417   4.372
87229SOL     OW63519  11.609   2.290   3.708
87229SOL    HW163520  11.686   2.346   3.716
87229SOL    HW263521  11.580   2.301   3.617
87230SOL     OW63522   4.494  11.488  11.164
87230SOL    HW163523   4.404  11.456  11.167
87230SOL    HW263524   4.492  11.558  11.098
87231SOL     OW63525   6.441  13.117  13.305
87231SOL    HW163526   6.446  13.173  13.383
87231SOL    HW263527   6.453  13.178  13.232
87232SOL     OW63528   5.557  14.845   3.813
87232SOL    HW163529   5.635  14.851   3.869
87232SOL    HW263530   5.495  14.794   3.864
87233SOL     OW63531   4.708   3.468  12.957
87233SOL    HW163532   4.648   3.433  13.023
87233SOL    HW263533   4.778   3.509  13.007
87234SOL     OW63534   0.328   4.882   1.433
87234SOL    HW163535   0.402   4.941   1.421
87234SOL    HW263536   0.321   4.870   1.528
87235SOL     OW63537  13.205   0.978  11.097
87235SOL    HW163538  13.236   1.062  11.066
87235SOL    HW263539  13.120   0.997  11.137
87236SOL     OW63540   0.984  14.785   3.530
87236SOL    HW163541   0.996  14.827   3.445
87236SOL    HW263542   1.072  14.778   3.566
87237SOL     OW63543   6.657   8.169  11.278
87237SOL    HW163544   6.729   8.137  11.223
87237SOL    HW263545   6.598   8.094  11.286
87238SOL     OW63546   8.084   9.338   5.219
87238SOL    HW163547   8.083   9.342   5.315
87238SOL    HW263548   8.046   9.421   5.191
87239SOL     OW63549  10.845   1.217   0.663
87239SOL    HW163550  10.772   1.160   0.687
87239SOL    HW263551  10.912   1.199   0.730
87240SOL     OW63552   4.027   6.831   5.887
87240SOL    HW163553   4.077   6.880   5.822
87240SOL    HW263554   4.087   6.765   5.919
87241SOL     OW63555   1.496   9.612   2.748
87241SOL    HW163556   1.447   9.604   2.830
87241SOL    HW263557   1.468   9.696   2.711
87242SOL     OW63558   7.221   0.926   3.521
87242SOL    HW163559   7.226   0.892   3.431
87242SOL    HW263560   7.312   0.942   3.545
87243SOL     OW63561  12.563   1.405   6.277
87243SOL    HW163562  12.642   1.412   6.330
87243SOL    HW263563  12.566   1.317   6.241
87244SOL     OW63564   0.576  11.003   7.099
87244SOL    HW163565   0.535  10.944   7.162
87244SOL    HW263566   0.534  10.983   7.016
87245SOL     OW63567   0.657  10.429   2.008
87245SOL    HW163568   0.746  10.431   1.972
87245SOL    HW263569   0.603  10.471   1.942
87246SOL     OW63570   3.469   1.781   3.727
87246SOL    HW163571   3.495   1.695   3.693
87246SOL    HW263572   3.550   1.818   3.762
87247SOL     OW63573   1.343  13.768  13.985
87247SOL    HW163574   1.420  13.811  14.023
87247SOL    HW263575   1.279  13.839  13.975
87248SOL     OW63576   5.031   9.428   2.954
87248SOL    HW163577   5.103   9.436   2.890
87248SOL    HW263578   4.953   9.453   2.905
87249SOL     OW63579   9.007  10.795   1.711
87249SOL    HW163580   8.986  10.880   1.673
87249SOL    HW263581   9.073  10.757   1.653
87250SOL     OW63582  13.135  12.754   8.823
87250SOL    HW163583  13.104  12.777   8.910
87250SOL    HW263584  13.079  12.804   8.763
87251SOL     OW63585   9.567  12.060  13.039
87251SOL    HW163586   9.485  12.015  13.056
87251SOL    HW263587   9.632  12.011  13.090
87252SOL     OW63588   1.453   0.114   7.216
87252SOL    HW163589   1.396   0.155   7.151
87252SOL    HW263590   1.434   0.020   7.208
87253SOL     OW63591   2.293   8.653   2.810
87253SOL    HW163592   2.311   8.746   2.824
87253SOL    HW263593   2.302   8.614   2.897
87254SOL     OW63594   1.923   9.098   0.503
87254SOL    HW163595   2.015   9.075   0.508
87254SOL    HW263596   1.907   9.113   0.409
87255SOL     OW63597  12.182   1.802   8.326
87255SOL    HW163598  12.107   1.858   8.304
87255SOL    HW263599  12.163   1.771   8.414
87256SOL     OW63600  14.715   7.865  12.113
87256SOL    HW163601  14.659   7.788  12.107
87256SOL    HW263602  14.795   7.834  12.154
87257SOL     OW63603   2.381   2.601   6.436
87257SOL    HW163604   2.303   2.552   6.410
87257SOL    HW263605   2.359   2.692   6.420
87258SOL     OW63606  13.282  14.869  10.915
87258SOL    HW163607  13.326   0.041  10.846
87258SOL    HW263608  13.335   0.005  10.993
87259SOL     OW63609   4.748   0.233   3.497
87259SOL    HW163610   4.801   0.311   3.479
87259SOL    HW263611   4.761   0.217   3.590
87260SOL     OW63612   2.463   1.430   9.654
87260SOL    HW163613   2.463   1.480   9.735
87260SOL    HW263614   2.555   1.417   9.633
87261SOL     OW63615  11.756  14.328   9.935
87261SOL    HW163616  11.808  14.400   9.971
87261SOL    HW263617  11.781  14.325   9.842
87262SOL     OW63618  12.986   4.462   6.083
87262SOL    HW163619  13.036   4.506   6.151
87262SOL    HW263620  12.895   4.467   6.114
87263SOL     OW63621  11.662  12.543   7.495
87263SOL    HW163622  11.637  12.465   7.544
87263SOL    HW263623  11.639  12.523   7.404
87264SOL     OW63624   5.666   1.374   2.830
87264SOL    HW163625   5.684   1.282   2.814
87264SOL    HW263626   5.580   1.374   2.873
87265SOL     OW63627   2.386   9.203   7.367
87265SOL    HW163628   2.470   9.248   7.376
87265SOL    HW263629   2.332   9.262   7.315
87266SOL     OW63630  11.980   1.127   8.157
87266SOL    HW163631  12.064   1.088   8.179
87266SOL    HW263632  11.985   1.147   8.064
87267SOL     OW63633   4.242   6.572   6.391
87267SOL    HW163634   4.293   6.499   6.355
87267SOL    HW263635   4.193   6.533   6.464
87268SOL     OW63636  12.518   7.589   1.658
87268SOL    HW163637  12.573   7.556   1.587
87268SOL    HW263638  12.444   7.630   1.614
87269SOL     OW63639   3.644  11.515   0.457
87269SOL    HW163640   3.737  11.534   0.445
87269SOL    HW263641   3.617  11.473   0.375
87270SOL     OW63642   7.069  12.172   3.882
87270SOL    HW163643   7.030  12.224   3.811
87270SOL    HW263644   7.163  12.185   3.872
87271SOL     OW63645   5.013   7.165   0.000
87271SOL    HW163646   5.099   7.199  14.858
87271SOL    HW263647   5.025   7.070   0.008
87272SOL     OW63648   8.961   1.352   3.697
87272SOL    HW163649   9.014   1.284   3.737
87272SOL    HW263650   8.984   1.432   3.745
87273SOL     OW63651  13.879   8.449   5.663
87273SOL    HW163652  13.952   8.425   5.605
87273SOL    HW263653  13.921   8.469   5.746
87274SOL     OW63654  12.665  10.002   3.014
87274SOL    HW163655  12.756   9.987   2.989
87274SOL    HW263656  12.642  10.084   2.970
87275SOL     OW63657   3.676   0.533  14.597
87275SOL    HW163658   3.649   0.548  14.507
87275SOL    HW263659   3.650   0.443  14.616
87276SOL     OW63660  11.795   3.261   0.840
87276SOL    HW163661  11.812   3.214   0.759
87276SOL    HW263662  11.707   3.298   0.828
87277SOL     OW63663   9.039  10.964   3.953
87277SOL    HW163664   9.091  10.901   3.904
87277SOL    HW263665   9.071  11.049   3.924
87278SOL     OW63666  10.203  11.973  11.773
87278SOL    HW163667  10.298  11.981  11.778
87278SOL    HW263668  10.188  11.888  11.732
87279SOL     OW63669  14.783   9.634  11.585
87279SOL    HW163670  14.724   9.602  11.517
87279SOL    HW263671  14.809   9.721  11.555
87280SOL     OW63672   1.468  12.020  14.290
87280SOL    HW163673   1.427  12.064  14.364
87280SOL    HW263674   1.413  11.943  14.274
87281SOL     OW63675   3.648  12.504   0.652
87281SOL    HW163676   3.667  12.413   0.675
87281SOL    HW263677   3.631  12.547   0.736
87282SOL     OW63678   0.244   6.204  13.997
87282SOL    HW163679   0.152   6.186  13.976
87282SOL    HW263680   0.241   6.247  14.082
87283SOL     OW63681   7.056   2.354   7.687
87283SOL    HW163682   7.131   2.414   7.682
87283SOL    HW263683   7.084   2.277   7.638
87284SOL     OW63684   8.815   9.977  11.016
87284SOL    HW163685   8.811   9.881  11.018
87284SOL    HW263686   8.905   9.997  10.991
87285SOL     OW63687   1.619   6.975   9.013
87285SOL    HW163688   1.525   6.966   8.999
87285SOL    HW263689   1.626   7.027   9.093
87286SOL     OW63690  12.927  10.819   5.502
87286SOL    HW163691  12.960  10.770   5.577
87286SOL    HW263692  12.926  10.756   5.430
87287SOL     OW63693   5.028   6.345   0.989
87287SOL    HW163694   5.110   6.376   0.950
87287SOL    HW263695   5.054   6.267   1.038
87288SOL     OW63696   1.135   6.584   4.858
87288SOL    HW163697   1.157   6.526   4.785
87288SOL    HW263698   1.194   6.658   4.848
87289SOL     OW63699   1.929   0.603   6.206
87289SOL    HW163700   1.860   0.667   6.187
87289SOL    HW263701   1.969   0.634   6.286
87290SOL     OW63702   1.237   8.076  10.525
87290SOL    HW163703   1.183   8.118  10.593
87290SOL    HW263704   1.307   8.139  10.508
87291SOL     OW63705  12.959   9.326   9.625
87291SOL    HW163706  12.958   9.364   9.537
87291SOL    HW263707  13.048   9.343   9.657
87292SOL     OW63708  14.740   3.058   5.897
87292SOL    HW163709  14.728   3.130   5.834
87292SOL    HW263710  14.657   3.053   5.944
87293SOL     OW63711   0.392   6.010   0.462
87293SOL    HW163712   0.400   5.969   0.548
87293SOL    HW263713   0.464   6.074   0.459
87294SOL     OW63714   5.624   4.362   1.909
87294SOL    HW163715   5.656   4.422   1.977
87294SOL    HW263716   5.696   4.301   1.896
87295SOL     OW63717  12.948  10.755   0.202
87295SOL    HW163718  12.876  10.767   0.265
87295SOL    HW263719  13.021  10.804   0.241
87296SOL     OW63720   8.751   4.845   5.505
87296SOL    HW163721   8.827   4.885   5.463
87296SOL    HW263722   8.775   4.753   5.515
87297SOL     OW63723   9.153   9.195   2.978
87297SOL    HW163724   9.154   9.197   2.883
87297SOL    HW263725   9.061   9.184   3.001
87298SOL     OW63726   5.592   3.508   1.933
87298SOL    HW163727   5.585   3.601   1.954
87298SOL    HW263728   5.580   3.504   1.838
87299SOL     OW63729   3.533  11.166  10.031
87299SOL    HW163730   3.457  11.119   9.997
87299SOL    HW263731   3.520  11.257  10.004
87300SOL     OW63732   7.427   6.420  10.698
87300SOL    HW163733   7.409   6.326  10.695
87300SOL    HW263734   7.499   6.433  10.636
87301SOL     OW63735   9.080   2.073  11.858
87301SOL    HW163736   9.165   2.060  11.815
87301SOL    HW263737   9.071   2.168  11.866
87302SOL     OW63738   5.556   5.550  10.127
87302SOL    HW163739   5.481   5.573  10.073
87302SOL    HW263740   5.580   5.631  10.172
87303SOL     OW63741   5.648   7.973   7.180
87303SOL    HW163742   5.559   8.006   7.184
87303SOL    HW263743   5.655   7.932   7.094
87304SOL     OW63744   4.328   7.235   7.498
87304SOL    HW163745   4.373   7.155   7.469
87304SOL    HW263746   4.334   7.233   7.594
87305SOL     OW63747   7.765   5.454   7.075
87305SOL    HW163748   7.745   5.501   6.994
87305SOL    HW263749   7.760   5.522   7.143
87306SOL     OW63750   5.476   2.668   5.915
87306SOL    HW163751   5.421   2.738   5.950
87306SOL    HW263752   5.565   2.700   5.924
87307SOL     OW63753   6.400  10.999  10.181
87307SOL    HW163754   6.345  11.020  10.257
87307SOL    HW263755   6.446  10.919  10.207
87308SOL     OW63756   8.098   0.686  13.347
87308SOL    HW163757   8.069   0.741  13.274
87308SOL    HW263758   8.017   0.657  13.389
87309SOL     OW63759   2.182  12.138   4.830
87309SOL    HW163760   2.196  12.155   4.924
87309SOL    HW263761   2.195  12.223   4.788
87310SOL     OW63762  14.167   9.470  14.434
87310SOL    HW163763  14.144   9.393  14.381
87310SOL    HW263764  14.260   9.458  14.455
87311SOL     OW63765   6.817   4.614   3.752
87311SOL    HW163766   6.878   4.547   3.722
87311SOL    HW263767   6.739   4.600   3.698
87312SOL     OW63768   3.200   7.420  13.780
87312SOL    HW163769   3.221   7.338  13.736
87312SOL    HW263770   3.105   7.426  13.775
87313SOL     OW63771   6.958  13.088  14.032
87313SOL    HW163772   6.972  13.179  14.058
87313SOL    HW263773   6.893  13.093  13.961
87314SOL     OW63774   0.296   5.721   1.597
87314SOL    HW163775   0.262   5.639   1.562
87314SOL    HW263776   0.256   5.731   1.683
87315SOL     OW63777   1.165   5.519   9.477
87315SOL    HW163778   1.185   5.465   9.553
87315SOL    HW263779   1.219   5.484   9.407
87316SOL     OW63780  14.358   1.136   0.037
87316SOL    HW163781  14.284   1.120  14.858
87316SOL    HW263782  14.317   1.158   0.121
87317SOL     OW63783  12.730   2.107   0.468
87317SOL    HW163784  12.775   2.177   0.515
87317SOL    HW263785  12.675   2.152   0.404
87318SOL     OW63786   7.773   2.380   6.689
87318SOL    HW163787   7.795   2.288   6.676
87318SOL    HW263788   7.845   2.415   6.742
87319SOL     OW63789   3.392   7.635  10.064
87319SOL    HW163790   3.349   7.641   9.979
87319SOL    HW263791   3.330   7.586  10.119
87320SOL     OW63792   0.569   2.180   3.030
87320SOL    HW163793   0.574   2.273   3.055
87320SOL    HW263794   0.638   2.169   2.965
87321SOL     OW63795  11.844  14.717  11.662
87321SOL    HW163796  11.901  14.640  11.663
87321SOL    HW263797  11.758  14.684  11.636
87322SOL     OW63798   1.329  11.553   2.933
87322SOL    HW163799   1.368  11.494   2.868
87322SOL    HW263800   1.275  11.497   2.987
87323SOL     OW63801   2.900   3.763  10.480
87323SOL    HW163802   2.953   3.684  10.475
87323SOL    HW263803   2.909   3.804  10.394
87324SOL     OW63804   0.067   9.828   2.526
87324SOL    HW163805   0.124   9.838   2.603
87324SOL    HW263806   0.112   9.877   2.457
87325SOL     OW63807   7.935   9.589  12.297
87325SOL    HW163808   7.915   9.497  12.277
87325SOL    HW263809   8.029   9.597  12.279
87326SOL     OW63810  12.247  10.456   9.674
87326SOL    HW163811  12.295  10.510   9.736
87326SOL    HW263812  12.240  10.510   9.595
87327SOL     OW63813   1.586  13.688   2.183
87327SOL    HW163814   1.502  13.696   2.138
87327SOL    HW263815   1.570  13.624   2.252
87328SOL     OW63816  10.470  12.238   9.206
87328SOL    HW163817  10.382  12.236   9.169
87328SOL    HW263818  10.483  12.151   9.244
87329SOL     OW63819   8.208  10.491   1.955
87329SOL    HW163820   8.297  10.504   1.987
87329SOL    HW263821   8.215  10.499   1.860
87330SOL     OW63822   5.863  14.643   6.757
87330SOL    HW163823   5.924  14.713   6.733
87330SOL    HW263824   5.830  14.612   6.673
87331SOL     OW63825   3.014   8.828   1.427
87331SOL    HW163826   3.025   8.830   1.523
87331SOL    HW263827   2.936   8.880   1.411
87332SOL     OW63828   1.085  10.817   9.998
87332SOL    HW163829   0.993  10.823   9.974
87332SOL    HW263830   1.112  10.729   9.970
87333SOL     OW63831   1.449  11.334  10.890
87333SOL    HW163832   1.495  11.358  10.810
87333SOL    HW263833   1.481  11.396  10.956
87334SOL     OW63834  13.610   1.574   4.212
87334SOL    HW163835  13.520   1.565   4.180
87334SOL    HW263836  13.608   1.651   4.269
87335SOL     OW63837   5.725  10.460  10.319
87335SOL    HW163838   5.716  10.554  10.329
87335SOL    HW263839   5.759  10.447  10.231
87336SOL     OW63840  14.224  12.984   5.037
87336SOL    HW163841  14.280  12.910   5.013
87336SOL    HW263842  14.285  13.049   5.072
87337SOL     OW63843  12.232   4.932   8.899
87337SOL    HW163844  12.180   5.000   8.857
87337SOL    HW263845  12.197   4.926   8.988
87338SOL     OW63846  12.088  11.653   1.256
87338SOL    HW163847  12.004  11.675   1.296
87338SOL    HW263848  12.153  11.681   1.321
87339SOL     OW63849   7.697   9.715   2.433
87339SOL    HW163850   7.727   9.761   2.512
87339SOL    HW263851   7.660   9.784   2.378
87340SOL     OW63852  14.832   6.818   5.286
87340SOL    HW163853  14.761   6.883   5.286
87340SOL    HW263854   0.033   6.871   5.289
87341SOL     OW63855   6.429  12.889  13.465
87341SOL    HW163856   6.498  12.824  13.456
87341SOL    HW263857   6.440  12.948  13.391
87342SOL     OW63858   6.892   1.426   5.183
87342SOL    HW163859   6.921   1.479   5.109
87342SOL    HW263860   6.798   1.442   5.189
87343SOL     OW63861   3.179   8.821   6.097
87343SOL    HW163862   3.265   8.781   6.111
87343SOL    HW263863   3.198   8.902   6.049
87344SOL     OW63864  14.077   8.824   0.364
87344SOL    HW163865  14.166   8.814   0.332
87344SOL    HW263866  14.067   8.918   0.381
87345SOL     OW63867   5.384   6.930   5.923
87345SOL    HW163868   5.437   6.856   5.953
87345SOL    HW263869   5.403   6.999   5.986
87346SOL     OW63870   0.686   4.564  14.631
87346SOL    HW163871   0.719   4.617  14.558
87346SOL    HW263872   0.686   4.475  14.597
87347SOL     OW63873   9.812  12.472  12.477
87347SOL    HW163874   9.824  12.514  12.392
87347SOL    HW263875   9.785  12.543  12.535
87348SOL     OW63876  14.017  14.862   9.580
87348SOL    HW163877  13.957   0.051   9.610
87348SOL    HW263878  13.973  14.780   9.602
87349SOL     OW63879   7.299   8.084   5.249
87349SOL    HW163880   7.257   8.001   5.226
87349SOL    HW263881   7.370   8.059   5.309
87350SOL     OW63882   8.068  12.629   3.012
87350SOL    HW163883   7.978  12.602   3.030
87350SOL    HW263884   8.096  12.572   2.941
87351SOL     OW63885   9.989   6.318  12.908
87351SOL    HW163886   9.984   6.224  12.894
87351SOL    HW263887   9.898   6.345  12.924
87352SOL     OW63888   1.233  14.011   2.388
87352SOL    HW163889   1.139  14.023   2.374
87352SOL    HW263890   1.274  14.076   2.331
87353SOL     OW63891  10.358  11.142  12.365
87353SOL    HW163892  10.444  11.100  12.374
87353SOL    HW263893  10.361  11.215  12.427
87354SOL     OW63894   9.197  11.515  13.894
87354SOL    HW163895   9.265  11.463  13.850
87354SOL    HW263896   9.140  11.450  13.934
87355SOL     OW63897   1.452   0.707   6.072
87355SOL    HW163898   1.380   0.746   6.122
87355SOL    HW263899   1.531   0.748   6.109
87356SOL     OW63900   9.846  13.030  11.917
87356SOL    HW163901   9.869  13.001  12.005
87356SOL    HW263902   9.922  13.079  11.887
87357SOL     OW63903   0.640   3.095   8.729
87357SOL    HW163904   0.639   3.155   8.804
87357SOL    HW263905   0.731   3.097   8.699
87358SOL     OW63906   7.759   6.209  13.384
87358SOL    HW163907   7.755   6.286  13.441
87358SOL    HW263908   7.718   6.139  13.435
87359SOL     OW63909   9.184   8.640   0.232
87359SOL    HW163910   9.104   8.663   0.185
87359SOL    HW263911   9.158   8.569   0.290
87360SOL     OW63912   8.803   6.975  14.555
87360SOL    HW163913   8.805   7.060  14.511
87360SOL    HW263914   8.893   6.943  14.550
87361SOL     OW63915  11.140   5.963   3.070
87361SOL    HW163916  11.185   5.906   3.133
87361SOL    HW263917  11.069   5.909   3.035
87362SOL     OW63918   0.474  11.126   5.011
87362SOL    HW163919   0.498  11.098   5.099
87362SOL    HW263920   0.525  11.206   4.996
87363SOL     OW63921   6.973   1.211   4.422
87363SOL    HW163922   6.979   1.301   4.390
87363SOL    HW263923   7.036   1.207   4.494
87364SOL     OW63924   0.386   2.487   3.749
87364SOL    HW163925   0.345   2.547   3.687
87364SOL    HW263926   0.390   2.535   3.831
87365SOL     OW63927   8.841  14.312  12.419
87365SOL    HW163928   8.900  14.332  12.347
87365SOL    HW263929   8.898  14.285  12.491
87366SOL     OW63930   3.274   1.334   0.610
87366SOL    HW163931   3.335   1.304   0.677
87366SOL    HW263932   3.194   1.283   0.625
87367SOL     OW63933   4.309   0.427   1.209
87367SOL    HW163934   4.387   0.404   1.260
87367SOL    HW263935   4.236   0.387   1.257
87368SOL     OW63936   9.202   4.431   4.233
87368SOL    HW163937   9.141   4.494   4.196
87368SOL    HW263938   9.169   4.415   4.322
87369SOL     OW63939   8.203  14.733  13.213
87369SOL    HW163940   8.142  14.796  13.175
87369SOL    HW263941   8.149  14.675  13.266
87370SOL     OW63942   1.895   2.445  13.890
87370SOL    HW163943   1.898   2.531  13.932
87370SOL    HW263944   1.803   2.419  13.895
87371SOL     OW63945  13.172  12.933  12.218
87371SOL    HW163946  13.192  13.004  12.157
87371SOL    HW263947  13.105  12.970  12.275
87372SOL     OW63948   4.391   5.032  13.277
87372SOL    HW163949   4.392   5.069  13.188
87372SOL    HW263950   4.442   4.951  13.270
87373SOL     OW63951  14.572   1.777   0.766
87373SOL    HW163952  14.561   1.832   0.844
87373SOL    HW263953  14.666   1.774   0.752
87374SOL     OW63954   6.307   8.548  11.806
87374SOL    HW163955   6.299   8.626  11.860
87374SOL    HW263956   6.385   8.563  11.752
87375SOL     OW63957   0.348   1.861   2.005
87375SOL    HW163958   0.365   1.821   1.920
87375SOL    HW263959   0.413   1.822   2.064
87376SOL     OW63960   1.297  12.883   6.649
87376SOL    HW163961   1.279  12.952   6.586
87376SOL    HW263962   1.377  12.841   6.617
87377SOL     OW63963   4.477   8.350  10.267
87377SOL    HW163964   4.557   8.388  10.232
87377SOL    HW263965   4.407   8.398  10.223
87378SOL     OW63966  14.285   5.298  14.838
87378SOL    HW163967  14.347   5.286   0.031
87378SOL    HW263968  14.336   5.282  14.759
87379SOL     OW63969  13.893   7.569   5.171
87379SOL    HW163970  13.889   7.600   5.081
87379SOL    HW263971  13.924   7.479   5.164
87380SOL     OW63972   6.711   4.728   7.057
87380SOL    HW163973   6.629   4.754   7.100
87380SOL    HW263974   6.683   4.682   6.978
87381SOL     OW63975   3.487  13.378  11.918
87381SOL    HW163976   3.396  13.361  11.894
87381SOL    HW263977   3.487  13.468  11.951
87382SOL     OW63978  14.213  14.528  11.613
87382SOL    HW163979  14.278  14.489  11.673
87382SOL    HW263980  14.262  14.546  11.533
87383SOL     OW63981  11.922  13.818   8.930
87383SOL    HW163982  11.960  13.795   9.015
87383SOL    HW263983  11.934  13.913   8.924
87384SOL     OW63984   0.807  10.775  11.155
87384SOL    HW163985   0.869  10.747  11.222
87384SOL    HW263986   0.795  10.698  11.099
87385SOL     OW63987   8.414   2.641  14.205
87385SOL    HW163988   8.330   2.673  14.171
87385SOL    HW263989   8.470   2.635  14.128
87386SOL     OW63990   0.200   9.283   3.430
87386SOL    HW163991   0.228   9.210   3.485
87386SOL    HW263992   0.104   9.279   3.432
87387SOL     OW63993   5.223   5.686   7.883
87387SOL    HW163994   5.138   5.727   7.900
87387SOL    HW263995   5.282   5.727   7.946
87388SOL     OW63996   3.537  12.478   6.888
87388SOL    HW163997   3.472  12.407   6.884
87388SOL    HW263998   3.484  12.558   6.893
87389SOL     OW63999   5.100   6.584   8.739
87389SOL    HW164000   5.078   6.667   8.781
87389SOL    HW264001   5.186   6.561   8.774
87390SOL     OW64002  13.924   4.608   8.705
87390SOL    HW164003  13.992   4.542   8.694
87390SOL    HW264004  13.875   4.580   8.782
87391SOL     OW64005   2.870   4.626   6.012
87391SOL    HW164006   2.825   4.549   6.047
87391SOL    HW264007   2.916   4.594   5.935
87392SOL     OW64008   2.207   3.487   2.559
87392SOL    HW164009   2.285   3.518   2.605
87392SOL    HW264010   2.164   3.566   2.527
87393SOL     OW64011  13.643  11.814   8.787
87393SOL    HW164012  13.722  11.815   8.840
87393SOL    HW264013  13.598  11.896   8.808
87394SOL     OW64014  14.054   8.395  11.206
87394SOL    HW164015  14.139   8.420  11.240
87394SOL    HW264016  14.052   8.300  11.212
87395SOL     OW64017  12.353  12.453  12.870
87395SOL    HW164018  12.328  12.541  12.898
87395SOL    HW264019  12.410  12.421  12.940
87396SOL     OW64020   7.496   1.890   3.813
87396SOL    HW164021   7.435   1.908   3.885
87396SOL    HW264022   7.486   1.964   3.754
87397SOL     OW64023   9.139   4.516   5.036
87397SOL    HW164024   9.122   4.611   5.033
87397SOL    HW264025   9.054   4.476   5.025
87398SOL     OW64026   1.231   7.672   5.609
87398SOL    HW164027   1.288   7.713   5.675
87398SOL    HW264028   1.282   7.597   5.577
87399SOL     OW64029   6.378   9.356  14.663
87399SOL    HW164030   6.446   9.367  14.598
87399SOL    HW264031   6.424   9.349  14.747
87400SOL     OW64032  10.767  14.652   7.242
87400SOL    HW164033  10.856  14.619   7.258
87400SOL    HW264034  10.710  14.576   7.255
87401SOL     OW64035   5.263   9.053   2.831
87401SOL    HW164036   5.299   9.001   2.759
87401SOL    HW264037   5.337   9.069   2.889
87402SOL     OW64038  11.086   3.858  12.835
87402SOL    HW164039  11.151   3.927  12.819
87402SOL    HW264040  11.076   3.858  12.930
87403SOL     OW64041   9.154  10.905   7.213
87403SOL    HW164042   9.099  10.871   7.284
87403SOL    HW264043   9.176  10.994   7.240
87404SOL     OW64044   2.356   9.112  13.095
87404SOL    HW164045   2.410   9.085  13.169
87404SOL    HW264046   2.415   9.107  13.020
87405SOL     OW64047   7.229   9.345   4.627
87405SOL    HW164048   7.207   9.437   4.609
87405SOL    HW264049   7.283   9.349   4.706
87406SOL     OW64050  13.908   0.780   4.587
87406SOL    HW164051  13.973   0.760   4.654
87406SOL    HW264052  13.926   0.717   4.517
87407SOL     OW64053   6.604   4.182  12.205
87407SOL    HW164054   6.563   4.095  12.212
87407SOL    HW264055   6.631   4.188  12.113
87408SOL     OW64056  13.223   7.958   8.544
87408SOL    HW164057  13.226   7.865   8.565
87408SOL    HW264058  13.312   7.989   8.560
87409SOL     OW64059  12.785   9.515   9.882
87409SOL    HW164060  12.775   9.575   9.809
87409SOL    HW264061  12.858   9.550   9.932
87410SOL     OW64062   6.406   2.245  10.444
87410SOL    HW164063   6.382   2.174  10.386
87410SOL    HW264064   6.394   2.209  10.532
87411SOL     OW64065  11.382  10.936   0.922
87411SOL    HW164066  11.327  10.981   0.857
87411SOL    HW264067  11.320  10.885   0.974
87412SOL     OW64068   2.305   3.915   0.116
87412SOL    HW164069   2.370   3.890   0.182
87412SOL    HW264070   2.355   3.926   0.035
87413SOL     OW64071  13.760  13.149  14.259
87413SOL    HW164072  13.833  13.120  14.205
87413SOL    HW264073  13.746  13.078  14.321
87414SOL     OW64074   5.528   8.196  10.318
87414SOL    HW164075   5.597   8.135  10.294
87414SOL    HW264076   5.570   8.255  10.381
87415SOL     OW64077   1.753   9.398   9.007
87415SOL    HW164078   1.822   9.449   8.965
87415SOL    HW264079   1.727   9.333   8.941
87416SOL     OW64080  11.158  12.085  14.031
87416SOL    HW164081  11.151  12.172  14.070
87416SOL    HW264082  11.188  12.101  13.942
87417SOL     OW64083   2.825   8.520   4.191
87417SOL    HW164084   2.758   8.521   4.260
87417SOL    HW264085   2.899   8.475   4.231
87418SOL     OW64086  12.661   5.027  12.986
87418SOL    HW164087  12.720   4.964  12.945
87418SOL    HW264088  12.679   5.019  13.080
87419SOL     OW64089   0.840   9.717  11.122
87419SOL    HW164090   0.873   9.627  11.114
87419SOL    HW264091   0.749   9.712  11.093
87420SOL     OW64092   7.252   3.780  13.081
87420SOL    HW164093   7.172   3.828  13.105
87420SOL    HW264094   7.264   3.717  13.152
87421SOL     OW64095  11.550   2.186   8.777
87421SOL    HW164096  11.497   2.260   8.808
87421SOL    HW264097  11.544   2.121   8.846
87422SOL     OW64098   0.789   8.727   9.228
87422SOL    HW164099   0.839   8.715   9.308
87422SOL    HW264100   0.700   8.698   9.250
87423SOL     OW64101   5.848  10.875  14.613
87423SOL    HW164102   5.861  10.781  14.602
87423SOL    HW264103   5.870  10.913  14.528
87424SOL     OW64104   2.338   1.121   5.386
87424SOL    HW164105   2.246   1.148   5.385
87424SOL    HW264106   2.337   1.034   5.427
87425SOL     OW64107   6.429   5.356  13.179
87425SOL    HW164108   6.469   5.322  13.099
87425SOL    HW264109   6.361   5.292  13.200
87426SOL     OW64110  14.004   9.609  11.847
87426SOL    HW164111  14.079   9.658  11.811
87426SOL    HW264112  13.977   9.551  11.776
87427SOL     OW64113   4.534   3.016   2.411
87427SOL    HW164114   4.456   3.069   2.430
87427SOL    HW264115   4.499   2.933   2.379
87428SOL     OW64116   3.922   9.601   7.061
87428SOL    HW164117   3.853   9.587   7.126
87428SOL    HW264118   3.996   9.550   7.094
87429SOL     OW64119  13.059  10.310   9.908
87429SOL    HW164120  13.040  10.403   9.900
87429SOL    HW264121  12.993  10.277   9.969
87430SOL     OW64122   5.780  10.762   6.270
87430SOL    HW164123   5.799  10.854   6.292
87430SOL    HW264124   5.860  10.715   6.291
87431SOL     OW64125   4.530   0.623  11.506
87431SOL    HW164126   4.606   0.679  11.487
87431SOL    HW264127   4.527   0.562  11.432
87432SOL     OW64128  12.948   2.924   3.193
87432SOL    HW164129  12.913   3.000   3.146
87432SOL    HW264130  13.043   2.938   3.194
87433SOL     OW64131  12.654   9.059   4.859
87433SOL    HW164132  12.625   8.989   4.800
87433SOL    HW264133  12.714   9.111   4.806
87434SOL     OW64134   3.594   9.006   4.732
87434SOL    HW164135   3.529   8.940   4.753
87434SOL    HW264136   3.642   8.971   4.657
87435SOL     OW64137   3.576   1.612  12.393
87435SOL    HW164138   3.635   1.678  12.356
87435SOL    HW264139   3.605   1.530  12.354
87436SOL     OW64140   0.228   2.043   3.748
87436SOL    HW164141   0.202   2.120   3.697
87436SOL    HW264142   0.259   1.980   3.683
87437SOL     OW64143   6.241   9.796   4.497
87437SOL    HW164144   6.210   9.865   4.555
87437SOL    HW264145   6.316   9.758   4.542
87438SOL     OW64146   4.313   1.537  11.220
87438SOL    HW164147   4.288   1.558  11.310
87438SOL    HW264148   4.245   1.476  11.190
87439SOL     OW64149   8.482   9.616  10.289
87439SOL    HW164150   8.388   9.631  10.280
87439SOL    HW264151   8.489   9.541  10.349
87440SOL     OW64152   0.346   2.293   0.235
87440SOL    HW164153   0.380   2.355   0.300
87440SOL    HW264154   0.425   2.258   0.193
87441SOL     OW64155   9.449   6.136   3.684
87441SOL    HW164156   9.537   6.101   3.698
87441SOL    HW264157   9.450   6.169   3.594
87442SOL     OW64158   7.344   6.314   6.305
87442SOL    HW164159   7.315   6.315   6.213
87442SOL    HW264160   7.439   6.323   6.300
87443SOL     OW64161  13.871   0.252   7.677
87443SOL    HW164162  13.834   0.172   7.715
87443SOL    HW264163  13.956   0.225   7.642
87444SOL     OW64164  14.185   6.806  14.866
87444SOL    HW164165  14.097   6.827   0.018
87444SOL    HW264166  14.189   6.842  14.778
87445SOL     OW64167   1.461  12.380  11.679
87445SOL    HW164168   1.513  12.399  11.601
87445SOL    HW264169   1.443  12.286  11.673
87446SOL     OW64170   1.345   7.883   8.173
87446SOL    HW164171   1.338   7.808   8.232
87446SOL    HW264172   1.272   7.941   8.198
87447SOL     OW64173  10.879   9.164  11.623
87447SOL    HW164174  10.920   9.107  11.558
87447SOL    HW264175  10.832   9.104  11.681
87448SOL     OW64176   8.452   8.809  11.605
87448SOL    HW164177   8.465   8.742  11.672
87448SOL    HW264178   8.417   8.884  11.652
87449SOL     OW64179  11.623  13.041   2.410
87449SOL    HW164180  11.528  13.040   2.413
87449SOL    HW264181  11.650  13.065   2.499
87450SOL     OW64182   6.042   9.339   0.179
87450SOL    HW164183   5.985   9.410   0.150
87450SOL    HW264184   6.019   9.265   0.123
87451SOL     OW64185  12.482   9.089   5.379
87451SOL    HW164186  12.560   9.071   5.432
87451SOL    HW264187  12.415   9.113   5.443
87452SOL     OW64188   7.600   7.010   1.313
87452SOL    HW164189   7.548   7.057   1.247
87452SOL    HW264190   7.571   6.919   1.305
87453SOL     OW64191  12.967  11.479   9.123
87453SOL    HW164192  12.881  11.448   9.094
87453SOL    HW264193  12.996  11.539   9.054
87454SOL     OW64194   0.203  14.166   3.393
87454SOL    HW164195   0.171  14.244   3.439
87454SOL    HW264196   0.158  14.093   3.435
87455SOL     OW64197   0.644  10.075   2.554
87455SOL    HW164198   0.566  10.050   2.505
87455SOL    HW264199   0.676  10.153   2.509
87456SOL     OW64200   8.333   2.081   9.378
87456SOL    HW164201   8.292   2.151   9.329
87456SOL    HW264202   8.425   2.107   9.385
87457SOL     OW64203   0.268   9.608   2.828
87457SOL    HW164204   0.330   9.613   2.900
87457SOL    HW264205   0.273   9.516   2.800
87458SOL     OW64206  14.206  11.846  14.441
87458SOL    HW164207  14.302  11.841  14.440
87458SOL    HW264208  14.185  11.911  14.373
87459SOL     OW64209  10.623  14.732   7.938
87459SOL    HW164210  10.716  14.732   7.959
87459SOL    HW264211  10.583  14.793   8.000
87460SOL     OW64212  11.791  13.019   3.425
87460SOL    HW164213  11.776  13.032   3.331
87460SOL    HW264214  11.860  12.952   3.428
87461SOL     OW64215  12.696   1.830   2.370
87461SOL    HW164216  12.785   1.828   2.335
87461SOL    HW264217  12.664   1.918   2.348
87462SOL     OW64218   4.072   7.082  13.243
87462SOL    HW164219   4.138   7.034  13.194
87462SOL    HW264220   4.045   7.022  13.313
87463SOL     OW64221  10.353  12.137   7.833
87463SOL    HW164222  10.432  12.102   7.874
87463SOL    HW264223  10.286  12.071   7.850
87464SOL     OW64224   6.531   5.710   1.271
87464SOL    HW164225   6.609   5.701   1.216
87464SOL    HW264226   6.526   5.803   1.291
87465SOL     OW64227   5.603   9.993   0.852
87465SOL    HW164228   5.631   9.945   0.930
87465SOL    HW264229   5.678   9.989   0.793
87466SOL     OW64230   8.979  12.563   7.622
87466SOL    HW164231   8.905  12.502   7.620
87466SOL    HW264232   8.987  12.589   7.713
87467SOL     OW64233  10.713  13.988   9.836
87467SOL    HW164234  10.688  14.064   9.783
87467SOL    HW264235  10.668  13.914   9.797
87468SOL     OW64236   7.681  10.216  13.435
87468SOL    HW164237   7.666  10.140  13.492
87468SOL    HW264238   7.634  10.194  13.354
87469SOL     OW64239   6.741  10.848  12.339
87469SOL    HW164240   6.662  10.797  12.320
87469SOL    HW264241   6.806  10.783  12.365
87470SOL     OW64242   0.799  13.390   1.364
87470SOL    HW164243   0.837  13.458   1.308
87470SOL    HW264244   0.872  13.358   1.417
87471SOL     OW64245   4.268  13.014  12.309
87471SOL    HW164246   4.339  12.965  12.268
87471SOL    HW264247   4.269  13.100  12.267
87472SOL     OW64248   3.341   8.894  11.725
87472SOL    HW164249   3.320   8.803  11.746
87472SOL    HW264250   3.425   8.889  11.678
87473SOL     OW64251  13.327   9.192  11.803
87473SOL    HW164252  13.268   9.214  11.731
87473SOL    HW264253  13.348   9.100  11.789
87474SOL     OW64254   1.001  13.342  12.499
87474SOL    HW164255   1.077  13.366  12.447
87474SOL    HW264256   1.007  13.248  12.511
87475SOL     OW64257   5.363   2.737  12.099
87475SOL    HW164258   5.297   2.706  12.037
87475SOL    HW264259   5.338   2.697  12.183
87476SOL     OW64260   4.952  10.233  10.192
87476SOL    HW164261   4.865  10.238  10.151
87476SOL    HW264262   4.998  10.310  10.159
87477SOL     OW64263   2.411   3.848   7.321
87477SOL    HW164264   2.356   3.803   7.257
87477SOL    HW264265   2.369   3.932   7.334
87478SOL     OW64266   6.676   0.042   2.471
87478SOL    HW164267   6.747   0.097   2.503
87478SOL    HW264268   6.657   0.075   2.383
87479SOL     OW64269  10.590   1.285  12.473
87479SOL    HW164270  10.507   1.330  12.490
87479SOL    HW264271  10.638   1.344  12.415
87480SOL     OW64272   4.654   3.502   7.237
87480SOL    HW164273   4.610   3.580   7.202
87480SOL    HW264274   4.739   3.534   7.267
87481SOL     OW64275   1.333  14.496   6.741
87481SOL    HW164276   1.346  14.564   6.675
87481SOL    HW264277   1.264  14.440   6.705
87482SOL     OW64278   5.881  10.300   7.902
87482SOL    HW164279   5.934  10.313   7.981
87482SOL    HW264280   5.800  10.261   7.934
87483SOL     OW64281   1.230  14.321   6.342
87483SOL    HW164282   1.243  14.282   6.255
87483SOL    HW264283   1.155  14.273   6.378
87484SOL     OW64284   7.184   1.675  10.942
87484SOL    HW164285   7.187   1.720  10.858
87484SOL    HW264286   7.237   1.729  11.001
87485SOL     OW64287  13.084  12.335  11.858
87485SOL    HW164288  13.090  12.378  11.773
87485SOL    HW264289  13.153  12.375  11.911
87486SOL     OW64290   0.298  11.751   7.572
87486SOL    HW164291   0.257  11.746   7.658
87486SOL    HW264292   0.274  11.668   7.530
87487SOL     OW64293  11.114   9.636  14.413
87487SOL    HW164294  11.044   9.635  14.479
87487SOL    HW264295  11.181   9.578  14.449
87488SOL     OW64296  14.702  13.451   2.200
87488SOL    HW164297  14.756  13.477   2.274
87488SOL    HW264298  14.763  13.407   2.140
87489SOL     OW64299   8.882  10.614   0.572
87489SOL    HW164300   8.920  10.573   0.494
87489SOL    HW264301   8.949  10.676   0.601
87490SOL     OW64302  13.827   6.683   6.713
87490SOL    HW164303  13.902   6.636   6.677
87490SOL    HW264304  13.751   6.639   6.674
87491SOL     OW64305  12.014   0.488   6.193
87491SOL    HW164306  11.935   0.478   6.140
87491SOL    HW264307  12.048   0.574   6.170
87492SOL     OW64308   5.445   6.231   6.166
87492SOL    HW164309   5.491   6.204   6.246
87492SOL    HW264310   5.466   6.324   6.157
87493SOL     OW64311   5.060   1.774   1.989
87493SOL    HW164312   5.080   1.794   1.898
87493SOL    HW264313   4.989   1.710   1.986
87494SOL     OW64314   9.799  14.703  10.745
87494SOL    HW164315   9.804  14.776  10.683
87494SOL    HW264316   9.885  14.661  10.739
87495SOL     OW64317   9.369   4.399   8.650
87495SOL    HW164318   9.386   4.337   8.721
87495SOL    HW264319   9.331   4.346   8.581
87496SOL     OW64320   8.872  10.774   2.664
87496SOL    HW164321   8.809  10.706   2.640
87496SOL    HW264322   8.944  10.727   2.706
87497SOL     OW64323   3.980   4.691   7.679
87497SOL    HW164324   3.908   4.638   7.713
87497SOL    HW264325   4.059   4.646   7.708
87498SOL     OW64326   3.027   6.247   8.533
87498SOL    HW164327   3.025   6.207   8.447
87498SOL    HW264328   2.938   6.239   8.567
87499SOL     OW64329  10.951   3.825   4.508
87499SOL    HW164330  10.919   3.876   4.434
87499SOL    HW264331  11.046   3.834   4.504
87500SOL     OW64332   8.834  14.438  10.152
87500SOL    HW164333   8.799  14.456  10.064
87500SOL    HW264334   8.863  14.523  10.184
87501SOL     OW64335   9.247   3.026   5.192
87501SOL    HW164336   9.297   3.006   5.113
87501SOL    HW264337   9.307   3.080   5.245
87502SOL     OW64338   8.082   6.792   3.207
87502SOL    HW164339   8.009   6.738   3.237
87502SOL    HW264340   8.123   6.823   3.287
87503SOL     OW64341  13.970   6.628  11.107
87503SOL    HW164342  14.048   6.669  11.145
87503SOL    HW264343  14.003   6.549  11.064
87504SOL     OW64344   4.427  11.498   0.562
87504SOL    HW164345   4.409  11.440   0.635
87504SOL    HW264346   4.500  11.457   0.515
87505SOL     OW64347  11.918   0.861   6.366
87505SOL    HW164348  11.848   0.797   6.356
87505SOL    HW264349  11.980   0.841   6.296
87506SOL     OW64350  11.974   2.682  13.179
87506SOL    HW164351  12.060   2.639  13.174
87506SOL    HW264352  11.993   2.775  13.174
87507SOL     OW64353   1.333  12.930   7.049
87507SOL    HW164354   1.282  13.010   7.062
87507SOL    HW264355   1.357  12.902   7.137
87508SOL     OW64356   1.388   1.527   3.959
87508SOL    HW164357   1.426   1.614   3.944
87508SOL    HW264358   1.378   1.522   4.054
87509SOL     OW64359   7.366   7.652   9.650
87509SOL    HW164360   7.362   7.677   9.557
87509SOL    HW264361   7.429   7.581   9.653
87510SOL     OW64362  14.438  13.194   8.296
87510SOL    HW164363  14.531  13.205   8.314
87510SOL    HW264364  14.420  13.102   8.318
87511SOL     OW64365   0.700   0.181   0.779
87511SOL    HW164366   0.641   0.213   0.710
87511SOL    HW264367   0.788   0.200   0.746
87512SOL     OW64368   5.823   1.197   0.826
87512SOL    HW164369   5.758   1.129   0.811
87512SOL    HW264370   5.791   1.245   0.903
87513SOL     OW64371  14.471   0.548  11.917
87513SOL    HW164372  14.420   0.501  11.851
87513SOL    HW264373  14.523   0.479  11.959
87514SOL     OW64374   2.631   3.066   5.388
87514SOL    HW164375   2.569   3.138   5.376
87514SOL    HW264376   2.575   2.988   5.389
87515SOL     OW64377   8.192   2.094   1.884
87515SOL    HW164378   8.173   2.118   1.794
87515SOL    HW264379   8.128   2.026   1.905
87516SOL     OW64380  14.683   6.209  10.625
87516SOL    HW164381  14.774   6.232  10.643
87516SOL    HW264382  14.679   6.114  10.642
87517SOL     OW64383   4.740  10.869   0.721
87517SOL    HW164384   4.707  10.953   0.690
87517SOL    HW264385   4.826  10.860   0.678
87518SOL     OW64386   7.098  14.648   4.491
87518SOL    HW164387   7.191  14.672   4.495
87518SOL    HW264388   7.057  14.699   4.562
87519SOL     OW64389  11.448  11.653   1.806
87519SOL    HW164390  11.527  11.637   1.858
87519SOL    HW264391  11.414  11.566   1.786
87520SOL     OW64392  12.993  11.571   1.313
87520SOL    HW164393  12.964  11.495   1.263
87520SOL    HW264394  13.003  11.537   1.402
87521SOL     OW64395   9.403   3.102   3.900
87521SOL    HW164396   9.413   3.177   3.841
87521SOL    HW264397   9.316   3.114   3.938
87522SOL     OW64398  14.728  10.042   4.874
87522SOL    HW164399  14.799  10.006   4.927
87522SOL    HW264400  14.720  10.133   4.904
87523SOL     OW64401  14.268  13.247   5.582
87523SOL    HW164402  14.177  13.242   5.553
87523SOL    HW264403  14.303  13.325   5.538
87524SOL     OW64404   2.256   5.278   1.244
87524SOL    HW164405   2.301   5.280   1.159
87524SOL    HW264406   2.178   5.331   1.231
87525SOL     OW64407  14.865   6.244   2.890
87525SOL    HW164408   0.054   6.208   2.947
87525SOL    HW264409  14.861   6.337   2.913
87526SOL     OW64410   4.253   7.997  10.166
87526SOL    HW164411   4.348   7.991  10.165
87526SOL    HW264412   4.223   7.909  10.142
87527SOL     OW64413   6.110  13.778   3.279
87527SOL    HW164414   6.172  13.768   3.207
87527SOL    HW264415   6.165  13.788   3.357
87528SOL     OW64416  12.279   7.945   5.931
87528SOL    HW164417  12.233   7.989   6.003
87528SOL    HW264418  12.256   7.996   5.854
87529SOL     OW64419   8.848  11.446   9.937
87529SOL    HW164420   8.911  11.496   9.989
87529SOL    HW264421   8.900  11.406   9.868
87530SOL     OW64422  14.368  10.095  13.767
87530SOL    HW164423  14.280  10.062  13.784
87530SOL    HW264424  14.355  10.183  13.732
87531SOL     OW64425   0.845   1.600   1.324
87531SOL    HW164426   0.750   1.590   1.334
87531SOL    HW264427   0.856   1.693   1.301
87532SOL     OW64428   3.618   3.261   6.132
87532SOL    HW164429   3.674   3.203   6.182
87532SOL    HW264430   3.541   3.274   6.187
87533SOL     OW64431   3.370  10.412   7.570
87533SOL    HW164432   3.393  10.355   7.497
87533SOL    HW264433   3.424  10.490   7.557
87534SOL     OW64434   6.809  13.180   3.710
87534SOL    HW164435   6.798  13.163   3.803
87534SOL    HW264436   6.797  13.274   3.700
87535SOL     OW64437   5.992   9.087  11.615
87535SOL    HW164438   6.077   9.043  11.607
87535SOL    HW264439   5.928   9.018  11.599
87536SOL     OW64440   6.909   1.368  11.737
87536SOL    HW164441   6.857   1.443  11.709
87536SOL    HW264442   6.973   1.355  11.667
87537SOL     OW64443   9.493   2.936  10.027
87537SOL    HW164444   9.407   2.901  10.048
87537SOL    HW264445   9.514   2.994  10.100
87538SOL     OW64446   0.523   2.359   9.530
87538SOL    HW164447   0.580   2.409   9.472
87538SOL    HW264448   0.434   2.384   9.505
87539SOL     OW64449  11.260   7.920   2.473
87539SOL    HW164450  11.199   7.904   2.401
87539SOL    HW264451  11.337   7.959   2.431
87540SOL     OW64452  13.972   7.321  11.761
87540SOL    HW164453  13.893   7.281  11.796
87540SOL    HW264454  13.986   7.399  11.815
87541SOL     OW64455  12.330  14.410   1.546
87541SOL    HW164456  12.348  14.317   1.554
87541SOL    HW264457  12.382  14.438   1.471
87542SOL     OW64458  11.700  14.106   0.073
87542SOL    HW164459  11.795  14.096   0.078
87542SOL    HW264460  11.666  14.033   0.125
87543SOL     OW64461   7.711  14.458   9.283
87543SOL    HW164462   7.689  14.401   9.357
87543SOL    HW264463   7.800  14.434   9.260
87544SOL     OW64464   0.209   9.386   3.915
87544SOL    HW164465   0.242   9.366   3.827
87544SOL    HW264466   0.159   9.467   3.904
87545SOL     OW64467   1.402   6.743   6.068
87545SOL    HW164468   1.392   6.670   6.129
87545SOL    HW264469   1.496   6.750   6.053
87546SOL     OW64470  13.727  13.531   1.587
87546SOL    HW164471  13.739  13.462   1.521
87546SOL    HW264472  13.789  13.600   1.561
87547SOL     OW64473  11.677   6.508   8.083
87547SOL    HW164474  11.601   6.459   8.113
87547SOL    HW264475  11.642   6.593   8.058
87548SOL     OW64476  12.513   5.979   3.215
87548SOL    HW164477  12.533   6.028   3.135
87548SOL    HW264478  12.594   5.932   3.235
87549SOL     OW64479  14.025   5.000   9.643
87549SOL    HW164480  14.108   4.956   9.663
87549SOL    HW264481  14.051   5.089   9.618
87550SOL     OW64482   1.298  11.713  13.054
87550SOL    HW164483   1.373  11.759  13.091
87550SOL    HW264484   1.240  11.783  13.024
87551SOL     OW64485  14.456  11.031  12.244
87551SOL    HW164486  14.480  11.001  12.332
87551SOL    HW264487  14.453  11.126  12.251
87552SOL     OW64488  10.874   8.610   9.809
87552SOL    HW164489  10.786   8.641   9.792
87552SOL    HW264490  10.868   8.515   9.804
87553SOL     OW64491   9.772   3.046   6.396
87553SOL    HW164492   9.731   3.059   6.482
87553SOL    HW264493   9.712   2.987   6.349
87554SOL     OW64494   3.059  13.951  10.586
87554SOL    HW164495   3.004  14.011  10.636
87554SOL    HW264496   3.001  13.917  10.518
87555SOL     OW64497   3.409   7.061   6.983
87555SOL    HW164498   3.427   7.133   6.922
87555SOL    HW264499   3.318   7.073   7.007
87556SOL     OW64500   0.394  12.398   6.644
87556SOL    HW164501   0.307  12.366   6.620
87556SOL    HW264502   0.391  12.409   6.739
87557SOL     OW64503   0.420  11.414   5.779
87557SOL    HW164504   0.488  11.479   5.760
87557SOL    HW264505   0.344  11.466   5.804
87558SOL     OW64506  12.708  14.588   5.383
87558SOL    HW164507  12.798  14.579   5.414
87558SOL    HW264508  12.697  14.516   5.321
87559SOL     OW64509   3.935   1.676   3.657
87559SOL    HW164510   3.931   1.706   3.748
87559SOL    HW264511   3.867   1.728   3.612
87560SOL     OW64512   6.176   8.522  12.489
87560SOL    HW164513   6.172   8.586  12.417
87560SOL    HW264514   6.260   8.477  12.476
87561SOL     OW64515   3.327   3.226   4.471
87561SOL    HW164516   3.333   3.218   4.376
87561SOL    HW264517   3.289   3.142   4.499
87562SOL     OW64518  13.630   9.316   5.226
87562SOL    HW164519  13.656   9.303   5.135
87562SOL    HW264520  13.612   9.410   5.233
87563SOL     OW64521   9.448  12.999   5.620
87563SOL    HW164522   9.468  12.940   5.693
87563SOL    HW264523   9.499  12.964   5.546
87564SOL     OW64524  13.706  10.100  10.916
87564SOL    HW164525  13.713  10.147  10.832
87564SOL    HW264526  13.642  10.031  10.899
87565SOL     OW64527   1.195  10.280   6.215
87565SOL    HW164528   1.107  10.276   6.177
87565SOL    HW264529   1.182  10.314   6.304
87566SOL     OW64530   6.170   7.229   5.311
87566SOL    HW164531   6.142   7.182   5.390
87566SOL    HW264532   6.250   7.275   5.338
87567SOL     OW64533  10.068   2.589   6.494
87567SOL    HW164534  10.063   2.494   6.487
87567SOL    HW264535  10.050   2.621   6.406
87568SOL     OW64536   7.799   5.849   5.860
87568SOL    HW164537   7.888   5.880   5.876
87568SOL    HW264538   7.810   5.774   5.801
87569SOL     OW64539   4.418  11.657   9.065
87569SOL    HW164540   4.357  11.728   9.087
87569SOL    HW264541   4.392  11.632   8.976
87570SOL     OW64542   3.986   9.373  10.663
87570SOL    HW164543   3.913   9.325  10.625
87570SOL    HW264544   3.995   9.337  10.751
87571SOL     OW64545  13.677   4.108   9.736
87571SOL    HW164546  13.620   4.160   9.680
87571SOL    HW264547  13.712   4.170   9.799
87572SOL     OW64548   9.055  12.455   7.221
87572SOL    HW164549   9.059  12.427   7.130
87572SOL    HW264550   8.995  12.394   7.264
87573SOL     OW64551   9.111  13.005   7.597
87573SOL    HW164552   9.178  12.940   7.579
87573SOL    HW264553   9.063  13.014   7.515
87574SOL     OW64554  13.988  14.738  11.343
87574SOL    HW164555  13.977  14.768  11.433
87574SOL    HW264556  14.035  14.654  11.352
87575SOL     OW64557   8.970   0.842   3.703
87575SOL    HW164558   9.063   0.839   3.678
87575SOL    HW264559   8.971   0.858   3.797
87576SOL     OW64560  13.653   8.139  14.053
87576SOL    HW164561  13.626   8.058  14.096
87576SOL    HW264562  13.623   8.209  14.111
87577SOL     OW64563  14.751  14.682  10.892
87577SOL    HW164564  14.836  14.702  10.853
87577SOL    HW264565  14.772  14.643  10.977
87578SOL     OW64566   7.099   2.455  13.599
87578SOL    HW164567   7.077   2.432  13.509
87578SOL    HW264568   7.060   2.541  13.612
87579SOL     OW64569   6.480   9.714  13.788
87579SOL    HW164570   6.528   9.756  13.717
87579SOL    HW264571   6.399   9.682  13.747
87580SOL     OW64572   6.199  10.039   4.782
87580SOL    HW164573   6.217   9.946   4.795
87580SOL    HW264574   6.106  10.048   4.803
87581SOL     OW64575   6.201   3.135   7.831
87581SOL    HW164576   6.181   3.204   7.767
87581SOL    HW264577   6.276   3.089   7.794
87582SOL     OW64578   9.150   9.956   9.476
87582SOL    HW164579   9.070   9.917   9.510
87582SOL    HW264580   9.190   9.886   9.424
87583SOL     OW64581   3.725   2.165   1.748
87583SOL    HW164582   3.762   2.082   1.778
87583SOL    HW264583   3.760   2.176   1.660
87584SOL     OW64584   3.382   5.968   7.559
87584SOL    HW164585   3.432   6.020   7.497
87584SOL    HW264586   3.330   5.908   7.505
87585SOL     OW64587   9.058   0.343   9.512
87585SOL    HW164588   9.144   0.310   9.538
87585SOL    HW264589   9.010   0.353   9.594
87586SOL     OW64590   9.813   5.485   6.752
87586SOL    HW164591   9.812   5.391   6.736
87586SOL    HW264592   9.787   5.524   6.669
87587SOL     OW64593  14.511   2.142  13.435
87587SOL    HW164594  14.470   2.176  13.515
87587SOL    HW264595  14.559   2.216  13.399
87588SOL     OW64596   5.039   0.748   2.222
87588SOL    HW164597   5.026   0.736   2.316
87588SOL    HW264598   5.006   0.667   2.183
87589SOL     OW64599   6.553  14.834   5.836
87589SOL    HW164600   6.533  14.754   5.786
87589SOL    HW264601   6.468  14.877   5.845
87590SOL     OW64602  14.822   5.510  14.520
87590SOL    HW164603  14.848   5.599  14.494
87590SOL    HW264604  14.737   5.521  14.561
87591SOL     OW64605  12.559   8.945   9.011
87591SOL    HW164606  12.527   8.932   9.100
87591SOL    HW264607  12.542   9.037   8.993
87592SOL     OW64608   8.240   7.974  10.123
87592SOL    HW164609   8.313   7.940  10.175
87592SOL    HW264610   8.162   7.949  10.172
87593SOL     OW64611  13.469  11.970   8.530
87593SOL    HW164612  13.484  11.875   8.532
87593SOL    HW264613  13.374  11.979   8.529
87594SOL     OW64614  12.349   6.132   3.379
87594SOL    HW164615  12.396   6.215   3.385
87594SOL    HW264616  12.390   6.087   3.305
87595SOL     OW64617   0.564   2.238   4.387
87595SOL    HW164618   0.471   2.236   4.364
87595SOL    HW264619   0.582   2.330   4.409
87596SOL     OW64620   0.566   8.790  12.274
87596SOL    HW164621   0.618   8.765  12.350
87596SOL    HW264622   0.621   8.851  12.226
87597SOL     OW64623   4.708   4.825   4.594
87597SOL    HW164624   4.752   4.879   4.528
87597SOL    HW264625   4.770   4.822   4.667
87598SOL     OW64626   1.038   8.941   1.479
87598SOL    HW164627   0.943   8.950   1.488
87598SOL    HW264628   1.062   8.879   1.548
87599SOL     OW64629   9.925   5.117   2.730
87599SOL    HW164630   9.964   5.199   2.761
87599SOL    HW264631   9.830   5.134   2.730
87600SOL     OW64632   8.148   6.717  11.729
87600SOL    HW164633   8.087   6.689  11.660
87600SOL    HW264634   8.174   6.635  11.771
87601SOL     OW64635  14.051   7.582  11.588
87601SOL    HW164636  13.993   7.657  11.576
87601SOL    HW264637  14.022   7.543  11.670
87602SOL     OW64638  14.568  11.527  12.957
87602SOL    HW164639  14.616  11.554  13.036
87602SOL    HW264640  14.573  11.603  12.899
87603SOL     OW64641   9.198   1.495  12.283
87603SOL    HW164642   9.214   1.401  12.276
87603SOL    HW264643   9.247   1.533  12.210
87604SOL     OW64644  11.329  14.365   8.472
87604SOL    HW164645  11.396  14.302   8.496
87604SOL    HW264646  11.246  14.317   8.479
87605SOL     OW64647   6.599   2.508   5.925
87605SOL    HW164648   6.562   2.595   5.908
87605SOL    HW264649   6.689   2.513   5.892
87606SOL     OW64650   0.001  12.693  11.270
87606SOL    HW164651  14.872  12.626  11.338
87606SOL    HW264652  14.816  12.667  11.203
87607SOL     OW64653  11.241  13.255   6.143
87607SOL    HW164654  11.287  13.213   6.215
87607SOL    HW264655  11.162  13.202   6.131
87608SOL     OW64656   6.340   8.208   1.489
87608SOL    HW164657   6.395   8.278   1.524
87608SOL    HW264658   6.381   8.185   1.406
87609SOL     OW64659  10.766   3.420  10.289
87609SOL    HW164660  10.826   3.493  10.272
87609SOL    HW264661  10.823   3.349  10.320
87610SOL     OW64662   3.750  12.280  10.483
87610SOL    HW164663   3.672  12.264  10.431
87610SOL    HW264664   3.751  12.211  10.549
87611SOL     OW64665   0.605  12.496   8.072
87611SOL    HW164666   0.639  12.556   8.138
87611SOL    HW264667   0.572  12.552   8.002
87612SOL     OW64668   0.676   1.715   8.975
87612SOL    HW164669   0.608   1.657   9.010
87612SOL    HW264670   0.743   1.656   8.941
87613SOL     OW64671   2.834   2.992   5.980
87613SOL    HW164672   2.834   2.898   6.000
87613SOL    HW264673   2.889   3.000   5.902
87614SOL     OW64674   4.774   0.297   9.024
87614SOL    HW164675   4.810   0.342   8.948
87614SOL    HW264676   4.683   0.328   9.030
87615SOL     OW64677   5.293   2.368   5.269
87615SOL    HW164678   5.350   2.445   5.271
87615SOL    HW264679   5.335   2.307   5.330
87616SOL     OW64680  10.135  10.488  12.176
87616SOL    HW164681  10.127  10.439  12.258
87616SOL    HW264682  10.062  10.457  12.123
87617SOL     OW64683   0.262   2.115   1.977
87617SOL    HW164684   0.303   2.117   1.891
87617SOL    HW264685   0.284   2.029   2.012
87618SOL     OW64686   8.379   7.002   7.586
87618SOL    HW164687   8.319   6.930   7.606
87618SOL    HW264688   8.423   7.021   7.669
87619SOL     OW64689  12.019   7.988   8.096
87619SOL    HW164690  11.993   7.898   8.118
87619SOL    HW264691  11.961   8.043   8.148
87620SOL     OW64692  13.967   7.223   9.275
87620SOL    HW164693  13.885   7.268   9.296
87620SOL    HW264694  13.997   7.265   9.194
87621SOL     OW64695   1.784  14.565   6.324
87621SOL    HW164696   1.786  14.589   6.232
87621SOL    HW264697   1.739  14.480   6.326
87622SOL     OW64698   2.347   4.959   4.088
87622SOL    HW164699   2.433   4.925   4.114
87622SOL    HW264700   2.354   5.054   4.096
87623SOL     OW64701   3.092  12.250  10.396
87623SOL    HW164702   3.138  12.204  10.327
87623SOL    HW264703   3.001  12.221  10.387
87624SOL     OW64704   7.364   6.758   5.032
87624SOL    HW164705   7.300   6.817   4.993
87624SOL    HW264706   7.449   6.792   5.005
87625SOL     OW64707   4.401   7.439   3.239
87625SOL    HW164708   4.425   7.496   3.166
87625SOL    HW264709   4.433   7.485   3.317
87626SOL     OW64710   2.574   2.973  12.229
87626SOL    HW164711   2.605   2.888  12.260
87626SOL    HW264712   2.612   2.982  12.141
87627SOL     OW64713  12.902   8.874  13.168
87627SOL    HW164714  12.880   8.867  13.075
87627SOL    HW264715  12.817   8.887  13.212
87628SOL     OW64716  13.287   6.142  10.199
87628SOL    HW164717  13.208   6.145  10.144
87628SOL    HW264718  13.315   6.051  10.196
87629SOL     OW64719   5.210  11.841  13.284
87629SOL    HW164720   5.137  11.828  13.223
87629SOL    HW264721   5.170  11.878  13.362
87630SOL     OW64722   6.395   3.190  13.725
87630SOL    HW164723   6.478   3.236  13.732
87630SOL    HW264724   6.419   3.098  13.716
87631SOL     OW64725   9.304   2.043  11.711
87631SOL    HW164726   9.363   2.118  11.700
87631SOL    HW264727   9.355   1.979  11.761
87632SOL     OW64728   2.881  11.720   2.823
87632SOL    HW164729   2.881  11.815   2.824
87632SOL    HW264730   2.926  11.696   2.742
87633SOL     OW64731  12.602   4.224  11.518
87633SOL    HW164732  12.642   4.225  11.431
87633SOL    HW264733  12.564   4.137  11.527
87634SOL     OW64734  11.727   0.071   2.036
87634SOL    HW164735  11.674   0.130   2.091
87634SOL    HW264736  11.789   0.129   1.992
87635SOL     OW64737  11.461   7.416   5.346
87635SOL    HW164738  11.538   7.462   5.311
87635SOL    HW264739  11.462   7.331   5.301
87636SOL     OW64740  10.303   2.185   7.862
87636SOL    HW164741  10.266   2.123   7.925
87636SOL    HW264742  10.227   2.221   7.817
87637SOL     OW64743   6.885   6.882   7.103
87637SOL    HW164744   6.954   6.867   7.039
87637SOL    HW264745   6.906   6.968   7.141
87638SOL     OW64746   4.047   3.883   0.558
87638SOL    HW164747   4.036   3.854   0.468
87638SOL    HW264748   4.085   3.971   0.551
87639SOL     OW64749  12.881   7.842   7.605
87639SOL    HW164750  12.950   7.851   7.539
87639SOL    HW264751  12.890   7.753   7.637
87640SOL     OW64752   3.568  14.469   4.398
87640SOL    HW164753   3.489  14.439   4.445
87640SOL    HW264754   3.549  14.452   4.306
87641SOL     OW64755  10.977   9.207   4.590
87641SOL    HW164756  10.974   9.217   4.685
87641SOL    HW264757  10.913   9.271   4.558
87642SOL     OW64758  11.652   0.156  12.822
87642SOL    HW164759  11.661   0.069  12.782
87642SOL    HW264760  11.624   0.212  12.750
87643SOL     OW64761   1.201   2.995   8.513
87643SOL    HW164762   1.174   2.914   8.556
87643SOL    HW264763   1.269   2.967   8.451
87644SOL     OW64764   9.101   7.461  14.413
87644SOL    HW164765   9.115   7.390  14.350
87644SOL    HW264766   9.173   7.450  14.476
87645SOL     OW64767   3.482  11.263  10.382
87645SOL    HW164768   3.410  11.289  10.324
87645SOL    HW264769   3.439  11.217  10.454
87646SOL     OW64770   2.542   4.875   7.473
87646SOL    HW164771   2.618   4.902   7.525
87646SOL    HW264772   2.488   4.954   7.467
87647SOL     OW64773   1.655   2.869  12.341
87647SOL    HW164774   1.706   2.795  12.376
87647SOL    HW264775   1.650   2.931  12.414
87648SOL     OW64776   7.685  12.597   8.032
87648SOL    HW164777   7.770  12.563   8.057
87648SOL    HW264778   7.659  12.654   8.104
87649SOL     OW64779   3.552  13.075   2.030
87649SOL    HW164780   3.616  13.005   2.044
87649SOL    HW264781   3.576  13.112   1.945
87650SOL     OW64782   3.019   6.953   3.584
87650SOL    HW164783   3.067   6.889   3.532
87650SOL    HW264784   2.937   6.967   3.535
87651SOL     OW64785   1.937   2.002   2.740
87651SOL    HW164786   1.985   1.927   2.704
87651SOL    HW264787   1.906   2.050   2.663
87652SOL     OW64788   9.500   9.137  10.568
87652SOL    HW164789   9.432   9.072  10.582
87652SOL    HW264790   9.566   9.092  10.514
87653SOL     OW64791   0.021   2.511   5.349
87653SOL    HW164792   0.055   2.582   5.296
87653SOL    HW264793  14.816   2.488   5.308
87654SOL     OW64794  11.211   1.417   1.865
87654SOL    HW164795  11.181   1.328   1.848
87654SOL    HW264796  11.275   1.434   1.797
87655SOL     OW64797   2.500   1.255  11.079
87655SOL    HW164798   2.588   1.234  11.049
87655SOL    HW264799   2.486   1.201  11.156
87656SOL     OW64800   9.034   6.824  12.491
87656SOL    HW164801   9.019   6.730  12.492
87656SOL    HW264802   9.089   6.840  12.414
87657SOL     OW64803  13.050   5.558  13.566
87657SOL    HW164804  13.042   5.468  13.535
87657SOL    HW264805  12.989   5.564  13.640
87658SOL     OW64806  13.581   7.807   7.190
87658SOL    HW164807  13.541   7.848   7.113
87658SOL    HW264808  13.506   7.779   7.244
87659SOL     OW64809  13.591   5.698   2.855
87659SOL    HW164810  13.625   5.620   2.812
87659SOL    HW264811  13.637   5.771   2.813
87660SOL     OW64812  10.657   2.234   2.004
87660SOL    HW164813  10.749   2.260   2.000
87660SOL    HW264814  10.639   2.196   1.918
87661SOL     OW64815   3.858   0.089   1.194
87661SOL    HW164816   3.841   0.064   1.103
87661SOL    HW264817   3.857   0.185   1.193
87662SOL     OW64818  12.552  10.134  10.021
87662SOL    HW164819  12.595  10.113   9.938
87662SOL    HW264820  12.527  10.048  10.057
87663SOL     OW64821  12.424  13.038   3.346
87663SOL    HW164822  12.354  13.055   3.283
87663SOL    HW264823  12.379  13.014   3.427
87664SOL     OW64824   8.073   4.335   1.556
87664SOL    HW164825   8.143   4.395   1.530
87664SOL    HW264826   8.112   4.280   1.624
87665SOL     OW64827   7.487   3.707   3.957
87665SOL    HW164828   7.494   3.622   3.913
87665SOL    HW264829   7.400   3.739   3.932
87666SOL     OW64830  13.027   4.030   1.126
87666SOL    HW164831  13.075   4.026   1.209
87666SOL    HW264832  13.020   4.123   1.107
87667SOL     OW64833  10.444   3.109   1.677
87667SOL    HW164834  10.355   3.110   1.712
87667SOL    HW264835  10.455   3.195   1.636
87668SOL     OW64836   4.070   5.643   3.616
87668SOL    HW164837   4.127   5.688   3.679
87668SOL    HW264838   3.985   5.639   3.660
87669SOL     OW64839  10.892   0.798  13.094
87669SOL    HW164840  10.855   0.819  13.008
87669SOL    HW264841  10.857   0.864  13.153
87670SOL     OW64842  10.464   1.165   7.604
87670SOL    HW164843  10.424   1.252   7.604
87670SOL    HW264844  10.471   1.142   7.511
87671SOL     OW64845   7.381   1.162   8.819
87671SOL    HW164846   7.400   1.254   8.801
87671SOL    HW264847   7.294   1.147   8.782
87672SOL     OW64848   9.480   6.212  12.913
87672SOL    HW164849   9.509   6.166  12.992
87672SOL    HW264850   9.436   6.290  12.945
87673SOL     OW64851   3.070   9.275   5.767
87673SOL    HW164852   3.165   9.258   5.773
87673SOL    HW264853   3.063   9.357   5.718
87674SOL     OW64854   7.371   3.559  12.567
87674SOL    HW164855   7.405   3.636  12.612
87674SOL    HW264856   7.329   3.508  12.636
87675SOL     OW64857   4.332   1.492   6.570
87675SOL    HW164858   4.290   1.500   6.484
87675SOL    HW264859   4.341   1.583   6.600
87676SOL     OW64860   4.520   6.924   9.913
87676SOL    HW164861   4.580   6.897   9.982
87676SOL    HW264862   4.460   6.849   9.903
87677SOL     OW64863   1.451  12.765  14.059
87677SOL    HW164864   1.465  12.809  13.975
87677SOL    HW264865   1.377  12.811  14.098
87678SOL     OW64866   2.843   4.610   0.613
87678SOL    HW164867   2.884   4.596   0.527
87678SOL    HW264868   2.779   4.680   0.597
87679SOL     OW64869   3.936   2.357   4.423
87679SOL    HW164870   3.974   2.280   4.466
87679SOL    HW264871   3.862   2.322   4.373
87680SOL     OW64872   8.689   4.735   9.527
87680SOL    HW164873   8.618   4.719   9.464
87680SOL    HW264874   8.763   4.763   9.473
87681SOL     OW64875   0.863   8.529  13.149
87681SOL    HW164876   0.899   8.616  13.163
87681SOL    HW264877   0.770   8.544  13.131
87682SOL     OW64878  14.698   2.920   2.878
87682SOL    HW164879  14.703   2.986   2.948
87682SOL    HW264880  14.696   2.836   2.924
87683SOL     OW64881   4.404  14.781   3.199
87683SOL    HW164882   4.365  14.773   3.286
87683SOL    HW264883   4.495  14.806   3.216
87684SOL     OW64884  14.530   7.753   7.714
87684SOL    HW164885  14.547   7.785   7.626
87684SOL    HW264886  14.436   7.770   7.728
87685SOL     OW64887   7.639   4.645  14.050
87685SOL    HW164888   7.732   4.663  14.065
87685SOL    HW264889   7.619   4.570  14.106
87686SOL     OW64890   6.691   0.833  14.355
87686SOL    HW164891   6.777   0.791  14.348
87686SOL    HW264892   6.710   0.926  14.345
87687SOL     OW64893   1.086   7.790  12.811
87687SOL    HW164894   1.054   7.779  12.900
87687SOL    HW264895   1.015   7.755  12.756
87688SOL     OW64896  11.706   7.272   5.793
87688SOL    HW164897  11.700   7.367   5.797
87688SOL    HW264898  11.682   7.250   5.702
87689SOL     OW64899  11.559   5.020   8.340
87689SOL    HW164900  11.522   5.021   8.429
87689SOL    HW264901  11.572   4.927   8.321
87690SOL     OW64902  12.784  14.467   0.558
87690SOL    HW164903  12.756  14.384   0.520
87690SOL    HW264904  12.807  14.521   0.483
87691SOL     OW64905  10.196   8.417  12.724
87691SOL    HW164906  10.205   8.512  12.729
87691SOL    HW264907  10.108   8.403  12.691
87692SOL     OW64908   9.068   2.100  13.017
87692SOL    HW164909   9.061   2.035  13.086
87692SOL    HW264910   9.097   2.051  12.940
87693SOL     OW64911   4.200  10.927  10.729
87693SOL    HW164912   4.171  10.842  10.762
87693SOL    HW264913   4.274  10.951  10.785
87694SOL     OW64914  10.318   6.520  10.038
87694SOL    HW164915  10.321   6.485   9.949
87694SOL    HW264916  10.319   6.442  10.094
87695SOL     OW64917   3.948   2.199   8.936
87695SOL    HW164918   4.036   2.172   8.910
87695SOL    HW264919   3.890   2.145   8.882
87696SOL     OW64920   6.412  13.476   2.253
87696SOL    HW164921   6.355  13.480   2.330
87696SOL    HW264922   6.366  13.418   2.192
87697SOL     OW64923   1.407   2.220  11.223
87697SOL    HW164924   1.438   2.141  11.267
87697SOL    HW264925   1.376   2.189  11.138
87698SOL     OW64926   0.244  12.996   9.403
87698SOL    HW164927   0.275  13.056   9.472
87698SOL    HW264928   0.208  12.922   9.451
87699SOL     OW64929   0.711   9.614   9.455
87699SOL    HW164930   0.723   9.697   9.501
87699SOL    HW264931   0.673   9.638   9.371
87700SOL     OW64932   5.229  12.477   8.329
87700SOL    HW164933   5.300  12.541   8.338
87700SOL    HW264934   5.233  12.448   8.238
87701SOL     OW64935  14.038   6.019   2.729
87701SOL    HW164936  13.993   6.096   2.692
87701SOL    HW264937  14.109   6.001   2.667
87702SOL     OW64938   7.727  13.040   3.971
87702SOL    HW164939   7.729  12.972   4.038
87702SOL    HW264940   7.702  13.120   4.018
87703SOL     OW64941  13.058   7.380  12.559
87703SOL    HW164942  13.081   7.472  12.547
87703SOL    HW264943  13.141   7.333  12.551
87704SOL     OW64944   2.050  12.811  12.933
87704SOL    HW164945   1.976  12.787  12.877
87704SOL    HW264946   2.014  12.875  12.994
87705SOL     OW64947  12.691   6.246   8.464
87705SOL    HW164948  12.737   6.206   8.389
87705SOL    HW264949  12.652   6.171   8.510
87706SOL     OW64950   4.138   2.758  12.604
87706SOL    HW164951   4.150   2.822  12.533
87706SOL    HW264952   4.048   2.773  12.634
87707SOL     OW64953  12.618   6.839   4.183
87707SOL    HW164954  12.688   6.878   4.235
87707SOL    HW264955  12.658   6.821   4.099
87708SOL     OW64956  12.813  11.883  13.829
87708SOL    HW164957  12.885  11.912  13.773
87708SOL    HW264958  12.753  11.838  13.770
87709SOL     OW64959  12.277   3.305  11.591
87709SOL    HW164960  12.249   3.321  11.501
87709SOL    HW264961  12.355   3.251  11.583
87710SOL     OW64962   5.170   8.728   4.481
87710SOL    HW164963   5.139   8.781   4.554
87710SOL    HW264964   5.250   8.772   4.452
87711SOL     OW64965   0.023  13.336   9.062
87711SOL    HW164966   0.087  13.281   9.108
87711SOL    HW264967   0.030  13.422   9.105
87712SOL     OW64968   1.355  14.243   6.998
87712SOL    HW164969   1.437  14.231   7.046
87712SOL    HW264970   1.329  14.154   6.974
87713SOL     OW64971  14.619   9.880  12.480
87713SOL    HW164972  14.630   9.959  12.428
87713SOL    HW264973  14.640   9.808  12.421
87714SOL     OW64974   8.613   8.417   7.203
87714SOL    HW164975   8.622   8.389   7.294
87714SOL    HW264976   8.537   8.369   7.170
87715SOL     OW64977   1.425   1.102  13.011
87715SOL    HW164978   1.338   1.122  13.044
87715SOL    HW264979   1.415   1.018  12.965
87716SOL     OW64980   6.428  11.738   1.947
87716SOL    HW164981   6.341  11.746   1.908
87716SOL    HW264982   6.441  11.820   1.995
87717SOL     OW64983   8.571   5.407   3.714
87717SOL    HW164984   8.572   5.318   3.750
87717SOL    HW264985   8.652   5.446   3.746
87718SOL     OW64986  12.113   3.347   4.276
87718SOL    HW164987  12.131   3.366   4.184
87718SOL    HW264988  12.192   3.375   4.322
87719SOL     OW64989   9.189   8.665   4.420
87719SOL    HW164990   9.151   8.752   4.434
87719SOL    HW264991   9.117   8.604   4.434
87720SOL     OW64992  10.058  11.273   7.689
87720SOL    HW164993   9.984  11.258   7.631
87720SOL    HW264994  10.019  11.273   7.777
87721SOL     OW64995   3.015   7.206   9.267
87721SOL    HW164996   2.938   7.241   9.312
87721SOL    HW264997   3.027   7.263   9.191
87722SOL     OW64998   5.036  11.451  10.373
87722SOL    HW164999   5.113  11.445  10.317
87722SOL    HW265000   5.072  11.470  10.460
87723SOL     OW65001   9.727  11.788   8.363
87723SOL    HW165002   9.648  11.751   8.402
87723SOL    HW265003   9.744  11.734   8.286
87724SOL     OW65004   5.275   1.285   9.208
87724SOL    HW165005   5.290   1.257   9.299
87724SOL    HW265006   5.353   1.255   9.161
87725SOL     OW65007   8.778   5.863  10.715
87725SOL    HW165008   8.735   5.785  10.679
87725SOL    HW265009   8.841   5.889  10.648
87726SOL     OW65010   6.941   5.956   1.240
87726SOL    HW165011   6.991   6.022   1.288
87726SOL    HW265012   7.001   5.923   1.173
87727SOL     OW65013   5.678   4.254  14.777
87727SOL    HW165014   5.642   4.221  14.695
87727SOL    HW265015   5.710   4.176  14.823
87728SOL     OW65016   0.013  10.698  14.050
87728SOL    HW165017   0.103  10.673  14.029
87728SOL    HW265018  14.841  10.618  14.036
87729SOL     OW65019  11.275   2.681   6.456
87729SOL    HW165020  11.223   2.601   6.449
87729SOL    HW265021  11.214   2.751   6.433
87730SOL     OW65022   3.539   9.858   0.238
87730SOL    HW165023   3.601   9.837   0.168
87730SOL    HW265024   3.528   9.953   0.232
87731SOL     OW65025   6.524  10.864   3.382
87731SOL    HW165026   6.589  10.797   3.403
87731SOL    HW265027   6.460  10.819   3.327
87732SOL     OW65028  14.783  11.667  12.540
87732SOL    HW165029  14.702  11.698  12.580
87732SOL    HW265030  14.841  11.743  12.542
87733SOL     OW65031   6.442   3.982   2.425
87733SOL    HW165032   6.434   3.917   2.495
87733SOL    HW265033   6.519   3.954   2.375
87734SOL     OW65034   0.255  12.906   7.245
87734SOL    HW165035   0.176  12.856   7.226
87734SOL    HW265036   0.226  12.997   7.247
87735SOL     OW65037   6.259   8.211   0.221
87735SOL    HW165038   6.181   8.156   0.213
87735SOL    HW265039   6.228   8.293   0.259
87736SOL     OW65040  12.391  12.572   4.800
87736SOL    HW165041  12.432  12.529   4.875
87736SOL    HW265042  12.297  12.571   4.819
87737SOL     OW65043  10.380   4.504   0.112
87737SOL    HW165044  10.327   4.516   0.034
87737SOL    HW265045  10.430   4.424   0.096
87738SOL     OW65046   3.418  12.310  10.963
87738SOL    HW165047   3.479  12.262  10.907
87738SOL    HW265048   3.433  12.274  11.051
87739SOL     OW65049   7.079   1.226   7.812
87739SOL    HW165050   7.158   1.181   7.783
87739SOL    HW265051   7.099   1.255   7.902
87740SOL     OW65052   5.052   2.201   7.482
87740SOL    HW165053   5.028   2.177   7.393
87740SOL    HW265054   5.063   2.118   7.527
87741SOL     OW65055   4.645   1.575   7.952
87741SOL    HW165056   4.575   1.511   7.961
87741SOL    HW265057   4.710   1.549   8.017
87742SOL     OW65058  12.233  11.095   6.134
87742SOL    HW165059  12.328  11.083   6.135
87742SOL    HW265060  12.215  11.150   6.209
87743SOL     OW65061  13.567  10.991  11.969
87743SOL    HW165062  13.483  11.012  11.927
87743SOL    HW265063  13.613  11.074  11.973
87744SOL     OW65064   7.832   5.266   8.322
87744SOL    HW165065   7.737   5.261   8.313
87744SOL    HW265066   7.865   5.193   8.271
87745SOL     OW65067   8.887   2.164   0.038
87745SOL    HW165068   8.903   2.124   0.124
87745SOL    HW265069   8.792   2.176   0.035
87746SOL     OW65070   9.974   4.496   2.217
87746SOL    HW165071  10.034   4.464   2.284
87746SOL    HW265072  10.008   4.462   2.135
87747SOL     OW65073  10.146  11.109   7.190
87747SOL    HW165074  10.160  11.014   7.181
87747SOL    HW265075  10.078  11.128   7.126
87748SOL     OW65076   9.433   7.811   3.056
87748SOL    HW165077   9.367   7.743   3.069
87748SOL    HW265078   9.394   7.869   2.990
87749SOL     OW65079   9.982  13.905   7.236
87749SOL    HW165080  10.013  13.968   7.302
87749SOL    HW265081   9.918  13.954   7.184
87750SOL     OW65082   3.304   6.297   5.928
87750SOL    HW165083   3.360   6.366   5.963
87750SOL    HW265084   3.216   6.322   5.956
87751SOL     OW65085   0.595   6.840   7.573
87751SOL    HW165086   0.650   6.915   7.548
87751SOL    HW265087   0.610   6.775   7.504
87752SOL     OW65088   8.620   3.910  11.360
87752SOL    HW165089   8.653   3.925  11.271
87752SOL    HW265090   8.681   3.847  11.398
87753SOL     OW65091   5.593   7.178   8.193
87753SOL    HW165092   5.582   7.228   8.111
87753SOL    HW265093   5.684   7.148   8.191
87754SOL     OW65094   9.697  11.907   6.281
87754SOL    HW165095   9.670  11.827   6.327
87754SOL    HW265096   9.755  11.951   6.343
87755SOL     OW65097  13.912   8.011   4.854
87755SOL    HW165098  13.942   8.075   4.918
87755SOL    HW265099  13.982   7.945   4.851
87756SOL     OW65100   5.744   3.021   0.466
87756SOL    HW165101   5.786   3.091   0.416
87756SOL    HW265102   5.812   2.989   0.525
87757SOL     OW65103   6.489  12.412   2.358
87757SOL    HW165104   6.523  12.499   2.340
87757SOL    HW265105   6.402  12.427   2.396
87758SOL     OW65106   7.247   8.777  12.179
87758SOL    HW165107   7.214   8.859  12.215
87758SOL    HW265108   7.314   8.749  12.242
87759SOL     OW65109   4.319   4.765   3.190
87759SOL    HW165110   4.293   4.698   3.254
87759SOL    HW265111   4.276   4.845   3.221
87760SOL     OW65112   6.309  11.430   1.088
87760SOL    HW165113   6.252  11.422   1.165
87760SOL    HW265114   6.255  11.473   1.022
87761SOL     OW65115   9.318   6.287   6.302
87761SOL    HW165116   9.313   6.195   6.278
87761SOL    HW265117   9.349   6.331   6.223
87762SOL     OW65118  14.051   7.234  11.526
87762SOL    HW165119  13.971   7.191  11.496
87762SOL    HW265120  14.028   7.271  11.611
87763SOL     OW65121   6.288   4.062  12.068
87763SOL    HW165122   6.209   4.115  12.055
87763SOL    HW265123   6.314   4.036  11.979
87764SOL     OW65124   7.915   9.099   2.300
87764SOL    HW165125   8.004   9.082   2.331
87764SOL    HW265126   7.876   9.153   2.368
87765SOL     OW65127   5.055   1.419   5.066
87765SOL    HW165128   5.012   1.342   5.103
87765SOL    HW265129   5.136   1.385   5.028
87766SOL     OW65130   6.560   3.146  13.016
87766SOL    HW165131   6.551   3.240  13.000
87766SOL    HW265132   6.476   3.119  13.053
87767SOL     OW65133   5.344   2.375   9.170
87767SOL    HW165134   5.391   2.291   9.172
87767SOL    HW265135   5.357   2.407   9.080
87768SOL     OW65136   5.146   1.997   4.293
87768SOL    HW165137   5.234   1.964   4.276
87768SOL    HW265138   5.137   2.073   4.236
87769SOL     OW65139  12.626   5.189   2.905
87769SOL    HW165140  12.645   5.107   2.950
87769SOL    HW265141  12.689   5.251   2.940
87770SOL     OW65142   9.258   0.873   1.402
87770SOL    HW165143   9.294   0.800   1.452
87770SOL    HW265144   9.179   0.899   1.451
87771SOL     OW65145   8.931   5.071  11.728
87771SOL    HW165146   8.843   5.042  11.752
87771SOL    HW265147   8.949   5.027  11.645
87772SOL     OW65148  10.864   7.322  11.448
87772SOL    HW165149  10.794   7.259  11.431
87772SOL    HW265150  10.902   7.293  11.531
87773SOL     OW65151   2.293   0.651   4.560
87773SOL    HW165152   2.243   0.569   4.556
87773SOL    HW265153   2.251   0.708   4.496
87774SOL     OW65154   1.141   8.022   8.279
87774SOL    HW165155   1.069   7.989   8.225
87774SOL    HW265156   1.110   8.106   8.312
87775SOL     OW65157   7.406  13.596   6.483
87775SOL    HW165158   7.466  13.559   6.549
87775SOL    HW265159   7.412  13.691   6.496
87776SOL     OW65160  12.791   6.413   7.987
87776SOL    HW165161  12.781   6.381   7.897
87776SOL    HW265162  12.842   6.493   7.978
87777SOL     OW65163   5.204   8.001   8.290
87777SOL    HW165164   5.228   7.911   8.272
87777SOL    HW265165   5.258   8.026   8.365
87778SOL     OW65166   5.951   2.745   9.270
87778SOL    HW165167   5.942   2.699   9.187
87778SOL    HW265168   5.933   2.837   9.249
87779SOL     OW65169   0.133   1.445  13.277
87779SOL    HW165170   0.039   1.463  13.285
87779SOL    HW265171   0.175   1.514  13.329
87780SOL     OW65172   3.487   5.981   8.320
87780SOL    HW165173   3.571   5.962   8.361
87780SOL    HW265174   3.475   5.910   8.256
87781SOL     OW65175  10.317   1.642  13.938
87781SOL    HW165176  10.256   1.710  13.964
87781SOL    HW265177  10.317   1.580  14.011
87782SOL     OW65178  10.641   9.133  13.311
87782SOL    HW165179  10.625   9.227  13.305
87782SOL    HW265180  10.733   9.126  13.336
87783SOL     OW65181   7.748   9.216   2.040
87783SOL    HW165182   7.666   9.171   2.056
87783SOL    HW265183   7.807   9.185   2.109
87784SOL     OW65184  11.071   3.406  13.387
87784SOL    HW165185  11.018   3.327  13.400
87784SOL    HW265186  11.062   3.426  13.294
87785SOL     OW65187   6.275  11.630   2.498
87785SOL    HW165188   6.337  11.560   2.519
87785SOL    HW265189   6.297  11.655   2.408
87786SOL     OW65190  14.507   1.666   0.494
87786SOL    HW165191  14.557   1.661   0.576
87786SOL    HW265192  14.568   1.635   0.427
87787SOL     OW65193  12.722  12.264   9.476
87787SOL    HW165194  12.659  12.265   9.404
87787SOL    HW265195  12.710  12.179   9.518
87788SOL     OW65196   4.564   2.725   2.497
87788SOL    HW165197   4.615   2.805   2.484
87788SOL    HW265198   4.538   2.698   2.409
87789SOL     OW65199  12.687  11.596  11.006
87789SOL    HW165200  12.774  11.613  10.970
87789SOL    HW265201  12.667  11.675  11.057
87790SOL     OW65202   0.932   1.491  11.277
87790SOL    HW165203   0.885   1.508  11.195
87790SOL    HW265204   0.871   1.516  11.346
87791SOL     OW65205   6.080   3.374   6.875
87791SOL    HW165206   6.016   3.439   6.848
87791SOL    HW265207   6.117   3.340   6.793
87792SOL     OW65208  12.930   6.246  14.090
87792SOL    HW165209  12.921   6.323  14.147
87792SOL    HW265210  12.945   6.173  14.151
87793SOL     OW65211  14.849   6.343   8.317
87793SOL    HW165212  14.846   6.278   8.387
87793SOL    HW265213  14.859   6.292   8.237
87794SOL     OW65214  12.634   9.705   1.524
87794SOL    HW165215  12.669   9.658   1.599
87794SOL    HW265216  12.664   9.795   1.534
87795SOL     OW65217   9.938   8.545  14.029
87795SOL    HW165218  10.007   8.521  14.092
87795SOL    HW265219   9.939   8.474  13.964
87796SOL     OW65220  14.068   3.528   9.004
87796SOL    HW165221  14.000   3.469   9.037
87796SOL    HW265222  14.037   3.553   8.917
87797SOL     OW65223  14.611   4.743  11.253
87797SOL    HW165224  14.551   4.786  11.314
87797SOL    HW265225  14.557   4.722  11.177
87798SOL     OW65226   3.801  10.491   9.671
87798SOL    HW165227   3.888  10.528   9.686
87798SOL    HW265228   3.811  10.398   9.694
87799SOL     OW65229  10.461   6.984  13.658
87799SOL    HW165230  10.499   6.986  13.571
87799SOL    HW265231  10.380   7.034  13.650
87800SOL     OW65232  11.830   0.686   6.799
87800SOL    HW165233  11.911   0.679   6.748
87800SOL    HW265234  11.820   0.601   6.841
87801SOL     OW65235  13.580   7.652   5.708
87801SOL    HW165236  13.498   7.675   5.663
87801SOL    HW265237  13.552   7.627   5.796
87802SOL     OW65238   4.842   6.074   1.077
87802SOL    HW165239   4.909   6.011   1.105
87802SOL    HW265240   4.842   6.140   1.147
87803SOL     OW65241  11.999  12.505   2.467
87803SOL    HW165242  12.027  12.584   2.421
87803SOL    HW265243  11.907  12.494   2.443
87804SOL     OW65244   0.805   3.926   4.444
87804SOL    HW165245   0.761   3.984   4.505
87804SOL    HW265246   0.751   3.929   4.365
87805SOL     OW65247  14.153  14.587   5.843
87805SOL    HW165248  14.070  14.593   5.796
87805SOL    HW265249  14.151  14.501   5.885
87806SOL     OW65250  10.240   0.413   2.385
87806SOL    HW165251  10.301   0.371   2.323
87806SOL    HW265252  10.158   0.364   2.374
87807SOL     OW65253   3.218  11.492  14.585
87807SOL    HW165254   3.231  11.585  14.572
87807SOL    HW265255   3.185  11.460  14.501
87808SOL     OW65256   8.302   2.481  10.072
87808SOL    HW165257   8.209   2.472  10.090
87808SOL    HW265258   8.345   2.455  10.154
87809SOL     OW65259   8.565   6.592  10.117
87809SOL    HW165260   8.646   6.559  10.078
87809SOL    HW265261   8.512   6.620  10.043
87810SOL     OW65262   1.644   2.371  14.266
87810SOL    HW165263   1.703   2.319  14.212
87810SOL    HW265264   1.617   2.313  14.337
87811SOL     OW65265   1.816   9.182   3.442
87811SOL    HW165266   1.875   9.108   3.460
87811SOL    HW265267   1.832   9.202   3.350
87812SOL     OW65268   8.067   0.924   6.198
87812SOL    HW165269   8.093   1.010   6.165
87812SOL    HW265270   8.027   0.942   6.283
87813SOL     OW65271  10.702   4.961   2.481
87813SOL    HW165272  10.699   4.874   2.521
87813SOL    HW265273  10.793   4.970   2.453
87814SOL     OW65274   1.648  12.774   1.530
87814SOL    HW165275   1.650  12.785   1.625
87814SOL    HW265276   1.718  12.832   1.498
87815SOL     OW65277  14.653   6.717   2.359
87815SOL    HW165278  14.735   6.670   2.350
87815SOL    HW265279  14.647   6.737   2.452
87816SOL     OW65280  12.430  12.230  13.656
87816SOL    HW165281  12.461  12.143  13.681
87816SOL    HW265282  12.504  12.288  13.675
87817SOL     OW65283  10.949   2.039  10.821
87817SOL    HW165284  10.877   2.088  10.860
87817SOL    HW265285  10.942   2.058  10.727
87818SOL     OW65286   5.099   6.420   0.650
87818SOL    HW165287   5.050   6.413   0.568
87818SOL    HW265288   5.191   6.426   0.622
87819SOL     OW65289   3.262   2.658  10.630
87819SOL    HW165290   3.316   2.656  10.709
87819SOL    HW265291   3.276   2.572  10.590
87820SOL     OW65292   9.911   4.982   0.020
87820SOL    HW165293   9.840   5.046   0.023
87820SOL    HW265294   9.897   4.934  14.818
87821SOL     OW65295  10.438  14.634   0.119
87821SOL    HW165296  10.407  14.717   0.083
87821SOL    HW265297  10.435  14.647   0.214
87822SOL     OW65298   3.975   1.763   3.912
87822SOL    HW165299   3.983   1.718   3.996
87822SOL    HW265300   4.003   1.853   3.930
87823SOL     OW65301  11.553   1.986   6.471
87823SOL    HW165302  11.588   1.978   6.560
87823SOL    HW265303  11.498   2.065   6.474
87824SOL     OW65304  10.801   0.216   9.626
87824SOL    HW165305  10.759   0.207   9.711
87824SOL    HW265306  10.730   0.206   9.563
87825SOL     OW65307   2.256   4.910   5.079
87825SOL    HW165308   2.209   4.834   5.044
87825SOL    HW265309   2.346   4.899   5.049
87826SOL     OW65310   2.670   3.025   4.773
87826SOL    HW165311   2.582   3.026   4.812
87826SOL    HW265312   2.729   3.038   4.848
87827SOL     OW65313   6.541   6.520  14.288
87827SOL    HW165314   6.451   6.542  14.263
87827SOL    HW265315   6.562   6.444  14.235
87828SOL     OW65316   4.496  13.788   0.205
87828SOL    HW165317   4.441  13.712   0.224
87828SOL    HW265318   4.436  13.852   0.167
87829SOL     OW65319   6.150   3.622   8.700
87829SOL    HW165320   6.214   3.662   8.758
87829SOL    HW265321   6.070   3.617   8.753
87830SOL     OW65322   0.283   9.259  10.980
87830SOL    HW165323   0.213   9.312  11.017
87830SOL    HW265324   0.330   9.224  11.056
87831SOL     OW65325  13.989  10.614  10.720
87831SOL    HW165326  13.897  10.590  10.728
87831SOL    HW265327  14.033  10.564  10.789
87832SOL     OW65328   5.047   9.699   6.945
87832SOL    HW165329   5.086   9.668   7.027
87832SOL    HW265330   4.953   9.701   6.962
87833SOL     OW65331  14.421   4.274   2.435
87833SOL    HW165332  14.507   4.237   2.459
87833SOL    HW265333  14.434   4.369   2.439
87834SOL     OW65334   5.584   6.066   0.840
87834SOL    HW165335   5.594   5.977   0.805
87834SOL    HW265336   5.644   6.068   0.915
87835SOL     OW65337   4.220   2.481   0.979
87835SOL    HW165338   4.140   2.508   1.024
87835SOL    HW265339   4.270   2.433   1.045
87836SOL     OW65340   0.803  12.460  12.135
87836SOL    HW165341   0.728  12.413  12.170
87836SOL    HW265342   0.795  12.452  12.040
87837SOL     OW65343  11.452   2.341  11.816
87837SOL    HW165344  11.483   2.303  11.734
87837SOL    HW265345  11.525   2.393  11.848
87838SOL     OW65346   2.578  11.230   8.560
87838SOL    HW165347   2.531  11.206   8.480
87838SOL    HW265348   2.635  11.302   8.534
87839SOL     OW65349  10.559  14.312  11.330
87839SOL    HW165350  10.567  14.319  11.235
87839SOL    HW265351  10.638  14.355  11.364
87840SOL     OW65352   5.466   0.672  10.776
87840SOL    HW165353   5.373   0.670  10.750
87840SOL    HW265354   5.513   0.646  10.697
87841SOL     OW65355  14.636   1.881  10.479
87841SOL    HW165356  14.679   1.867  10.563
87841SOL    HW265357  14.598   1.968  10.486
87842SOL     OW65358  14.042   5.861   0.153
87842SOL    HW165359  14.015   5.780   0.108
87842SOL    HW265360  13.962   5.892   0.195
87843SOL     OW65361   0.343   4.609   9.663
87843SOL    HW165362   0.254   4.638   9.646
87843SOL    HW265363   0.389   4.623   9.579
87844SOL     OW65364  12.396  14.019   0.827
87844SOL    HW165365  12.319  14.016   0.770
87844SOL    HW265366  12.433  14.106   0.813
87845SOL     OW65367  14.504   6.001   9.990
87845SOL    HW165368  14.481   6.049  10.070
87845SOL    HW265369  14.474   6.057   9.919
87846SOL     OW65370  13.006   6.061   3.699
87846SOL    HW165371  12.957   6.101   3.771
87846SOL    HW265372  13.087   6.030   3.738
87847SOL     OW65373  13.056   7.590  11.682
87847SOL    HW165374  12.978   7.536  11.672
87847SOL    HW265375  13.092   7.596  11.593
87848SOL     OW65376   5.652  13.495  14.472
87848SOL    HW165377   5.591  13.534  14.535
87848SOL    HW265378   5.661  13.404  14.501
87849SOL     OW65379  13.082  10.889   4.782
87849SOL    HW165380  12.996  10.913   4.817
87849SOL    HW265381  13.103  10.808   4.828
87850SOL     OW65382   1.030  14.629   7.804
87850SOL    HW165383   1.024  14.712   7.756
87850SOL    HW265384   1.092  14.577   7.753
87851SOL     OW65385   4.351   1.475   1.906
87851SOL    HW165386   4.359   1.452   1.814
87851SOL    HW265387   4.405   1.553   1.917
87852SOL     OW65388   9.208   8.737   1.430
87852SOL    HW165389   9.242   8.676   1.496
87852SOL    HW265390   9.134   8.691   1.390
87853SOL     OW65391   2.826   9.945   4.971
87853SOL    HW165392   2.764   9.872   4.979
87853SOL    HW265393   2.786  10.003   4.906
87854SOL     OW65394  13.060   6.363  10.614
87854SOL    HW165395  13.120   6.298  10.577
87854SOL    HW265396  13.040   6.330  10.702
87855SOL     OW65397   2.769   6.527   0.680
87855SOL    HW165398   2.818   6.456   0.637
87855SOL    HW265399   2.698   6.547   0.619
87856SOL     OW65400   3.375  11.222   8.126
87856SOL    HW165401   3.362  11.252   8.216
87856SOL    HW265402   3.286  11.208   8.093
87857SOL     OW65403   2.204   6.201  10.813
87857SOL    HW165404   2.215   6.236  10.901
87857SOL    HW265405   2.245   6.114  10.817
87858SOL     OW65406  11.431  11.321  11.203
87858SOL    HW165407  11.341  11.353  11.216
87858SOL    HW265408  11.462  11.300  11.291
87859SOL     OW65409   9.575   1.841  10.038
87859SOL    HW165410   9.574   1.778   9.965
87859SOL    HW265411   9.649   1.814  10.092
87860SOL     OW65412  12.244   3.419  13.269
87860SOL    HW165413  12.269   3.332  13.298
87860SOL    HW265414  12.282   3.478  13.335
87861SOL     OW65415   7.719  12.136   2.148
87861SOL    HW165416   7.724  12.231   2.144
87861SOL    HW265417   7.809  12.107   2.137
87862SOL     OW65418   9.942   3.031   8.562
87862SOL    HW165419   9.969   3.121   8.583
87862SOL    HW265420   9.859   3.041   8.517
87863SOL     OW65421   5.519   5.237   1.885
87863SOL    HW165422   5.565   5.156   1.907
87863SOL    HW265423   5.514   5.286   1.967
87864SOL     OW65424   3.721  11.350  14.498
87864SOL    HW165425   3.793  11.393  14.451
87864SOL    HW265426   3.757  11.266  14.525
87865SOL     OW65427   0.896   0.249   2.568
87865SOL    HW165428   0.963   0.235   2.502
87865SOL    HW265429   0.943   0.250   2.651
87866SOL     OW65430  11.342   0.841  14.403
87866SOL    HW165431  11.324   0.834  14.497
87866SOL    HW265432  11.352   0.934  14.387
87867SOL     OW65433   7.286  13.454   7.847
87867SOL    HW165434   7.248  13.515   7.910
87867SOL    HW265435   7.222  13.450   7.776
87868SOL     OW65436   8.331  14.774   4.505
87868SOL    HW165437   8.393  14.839   4.538
87868SOL    HW265438   8.247  14.820   4.502
87869SOL     OW65439   5.209   5.622  14.153
87869SOL    HW165440   5.152   5.545  14.153
87869SOL    HW265441   5.201   5.658  14.065
87870SOL     OW65442   3.846   3.638  11.644
87870SOL    HW165443   3.771   3.625  11.702
87870SOL    HW265444   3.807   3.665  11.561
87871SOL     OW65445   6.984   9.203  14.869
87871SOL    HW165446   6.944   9.252   0.062
87871SOL    HW265447   6.914   9.144  14.839
87872SOL     OW65448   8.166  13.475   5.769
87872SOL    HW165449   8.074  13.496   5.753
87872SOL    HW265450   8.193  13.533   5.840
87873SOL     OW65451   9.320  11.354   0.788
87873SOL    HW165452   9.253  11.414   0.822
87873SOL    HW265453   9.314  11.277   0.844
87874SOL     OW65454   1.334  11.462  10.208
87874SOL    HW165455   1.318  11.397  10.276
87874SOL    HW265456   1.342  11.411  10.128
87875SOL     OW65457   4.132  11.251   2.526
87875SOL    HW165458   4.062  11.307   2.559
87875SOL    HW265459   4.209  11.275   2.578
87876SOL     OW65460   4.635   7.091   6.824
87876SOL    HW165461   4.633   7.047   6.909
87876SOL    HW265462   4.544   7.092   6.795
87877SOL     OW65463   7.454   8.750  12.965
87877SOL    HW165464   7.450   8.788  13.053
87877SOL    HW265465   7.368   8.709  12.953
87878SOL     OW65466   5.691   9.563   7.765
87878SOL    HW165467   5.662   9.523   7.683
87878SOL    HW265468   5.626   9.534   7.830
87879SOL     OW65469  13.188   9.692   1.960
87879SOL    HW165470  13.176   9.639   2.040
87879SOL    HW265471  13.142   9.773   1.978
87880SOL     OW65472   8.396   7.893   8.886
87880SOL    HW165473   8.394   7.959   8.817
87880SOL    HW265474   8.315   7.907   8.935
87881SOL     OW65475   3.472  14.399   6.542
87881SOL    HW165476   3.552  14.397   6.489
87881SOL    HW265477   3.504  14.389   6.632
87882SOL     OW65478   1.766   8.830   2.375
87882SOL    HW165479   1.720   8.906   2.341
87882SOL    HW265480   1.719   8.755   2.337
87883SOL     OW65481   6.968   2.009   9.776
87883SOL    HW165482   6.934   2.028   9.863
87883SOL    HW265483   6.934   2.079   9.720
87884SOL     OW65484   0.247   5.906   9.721
87884SOL    HW165485   0.318   5.944   9.668
87884SOL    HW265486   0.196   5.982   9.750
87885SOL     OW65487   5.426  11.691   6.016
87885SOL    HW165488   5.427  11.623   6.082
87885SOL    HW265489   5.465  11.650   5.938
87886SOL     OW65490  12.575   0.689  11.423
87886SOL    HW165491  12.638   0.619  11.407
87886SOL    HW265492  12.516   0.686  11.348
87887SOL     OW65493   3.823   2.309   2.839
87887SOL    HW165494   3.728   2.313   2.824
87887SOL    HW265495   3.841   2.215   2.848
87888SOL     OW65496   9.380  13.616   1.950
87888SOL    HW165497   9.391  13.638   2.043
87888SOL    HW265498   9.424  13.531   1.941
87889SOL     OW65499  12.383   2.236  10.144
87889SOL    HW165500  12.342   2.323  10.148
87889SOL    HW265501  12.386   2.216  10.051
87890SOL     OW65502   7.487   4.043   2.146
87890SOL    HW165503   7.443   4.079   2.069
87890SOL    HW265504   7.570   4.008   2.112
87891SOL     OW65505   5.000   4.721  14.171
87891SOL    HW165506   4.917   4.690  14.207
87891SOL    HW265507   5.053   4.642  14.161
87892SOL     OW65508   1.718  12.103   2.284
87892SOL    HW165509   1.777  12.170   2.251
87892SOL    HW265510   1.769  12.057   2.351
87893SOL     OW65511   9.408  10.778   2.229
87893SOL    HW165512   9.333  10.783   2.170
87893SOL    HW265513   9.474  10.836   2.190
87894SOL     OW65514   1.074  12.714  14.121
87894SOL    HW165515   1.128  12.783  14.160
87894SOL    HW265516   0.986  12.730  14.156
87895SOL     OW65517   3.211  14.036  12.630
87895SOL    HW165518   3.233  13.995  12.547
87895SOL    HW265519   3.255  13.981  12.696
87896SOL     OW65520  12.846   7.721   2.182
87896SOL    HW165521  12.922   7.690   2.134
87896SOL    HW265522  12.812   7.794   2.130
87897SOL     OW65523   0.365  11.313   8.640
87897SOL    HW165524   0.402  11.359   8.715
87897SOL    HW265525   0.440  11.270   8.599
87898SOL     OW65526  13.456   4.261   9.297
87898SOL    HW165527  13.508   4.185   9.269
87898SOL    HW265528  13.515   4.336   9.285
87899SOL     OW65529   4.717   5.832   4.444
87899SOL    HW165530   4.666   5.907   4.474
87899SOL    HW265531   4.790   5.826   4.505
87900SOL     OW65532  14.738  10.462  10.475
87900SOL    HW165533  14.722  10.406  10.399
87900SOL    HW265534  14.825  10.436  10.506
87901SOL     OW65535  12.046   6.755  12.070
87901SOL    HW165536  11.962   6.719  12.042
87901SOL    HW265537  12.091   6.681  12.112
87902SOL     OW65538   6.029  12.799   0.587
87902SOL    HW165539   5.999  12.890   0.579
87902SOL    HW265540   6.121  12.807   0.613
87903SOL     OW65541   4.478  11.629  10.909
87903SOL    HW165542   4.466  11.692  10.838
87903SOL    HW265543   4.571  11.609  10.908
87904SOL     OW65544   4.416   9.312   8.715
87904SOL    HW165545   4.490   9.296   8.656
87904SOL    HW265546   4.431   9.252   8.788
87905SOL     OW65547  11.182  14.490  13.202
87905SOL    HW165548  11.130  14.424  13.247
87905SOL    HW265549  11.213  14.446  13.123
87906SOL     OW65550   5.293   0.214  11.662
87906SOL    HW165551   5.388   0.210  11.651
87906SOL    HW265552   5.271   0.135  11.712
87907SOL     OW65553  11.645   0.876   2.443
87907SOL    HW165554  11.572   0.910   2.392
87907SOL    HW265555  11.710   0.946   2.442
87908SOL     OW65556   1.322  14.368   9.973
87908SOL    HW165557   1.279  14.452   9.957
87908SOL    HW265558   1.412  14.381   9.945
87909SOL     OW65559  12.734  13.726  12.992
87909SOL    HW165560  12.693  13.813  12.990
87909SOL    HW265561  12.824  13.743  13.021
87910SOL     OW65562   9.406   4.472   7.534
87910SOL    HW165563   9.343   4.545   7.541
87910SOL    HW265564   9.450   4.486   7.450
87911SOL     OW65565   6.751   6.764  11.924
87911SOL    HW165566   6.717   6.834  11.980
87911SOL    HW265567   6.835   6.796  11.892
87912SOL     OW65568   6.606   0.976   4.039
87912SOL    HW165569   6.563   0.902   4.081
87912SOL    HW265570   6.535   1.026   4.000
87913SOL     OW65571   7.756   0.944   3.273
87913SOL    HW165572   7.664   0.950   3.248
87913SOL    HW265573   7.782   0.855   3.247
87914SOL     OW65574   1.695   1.767  14.160
87914SOL    HW165575   1.770   1.822  14.181
87914SOL    HW265576   1.733   1.680  14.147
87915SOL     OW65577   7.656   4.203  14.704
87915SOL    HW165578   7.590   4.194  14.635
87915SOL    HW265579   7.618   4.266  14.765
87916SOL     OW65580   7.260   3.250   3.432
87916SOL    HW165581   7.173   3.287   3.449
87916SOL    HW265582   7.319   3.308   3.480
87917SOL     OW65583   1.538   8.242   4.841
87917SOL    HW165584   1.552   8.178   4.772
87917SOL    HW265585   1.553   8.194   4.922
87918SOL     OW65586   8.528   2.794   2.512
87918SOL    HW165587   8.505   2.704   2.535
87918SOL    HW265588   8.583   2.785   2.434
87919SOL     OW65589  10.408   4.090   6.509
87919SOL    HW165590  10.389   4.010   6.559
87919SOL    HW265591  10.350   4.085   6.434
87920SOL     OW65592   3.349   0.277   0.624
87920SOL    HW165593   3.355   0.183   0.641
87920SOL    HW265594   3.291   0.284   0.548
87921SOL     OW65595  11.403   6.671  14.598
87921SOL    HW165596  11.327   6.619  14.623
87921SOL    HW265597  11.379   6.761  14.620
87922SOL     OW65598   4.409   6.789  13.684
87922SOL    HW165599   4.363   6.837  13.615
87922SOL    HW265600   4.378   6.829  13.766
87923SOL     OW65601   9.656   4.312   8.812
87923SOL    HW165602   9.734   4.366   8.818
87923SOL    HW265603   9.612   4.323   8.896
87924SOL     OW65604   3.137   5.943   4.353
87924SOL    HW165605   3.204   5.993   4.305
87924SOL    HW265606   3.063   6.003   4.361
87925SOL     OW65607  10.448  13.551   7.824
87925SOL    HW165608  10.455  13.503   7.907
87925SOL    HW265609  10.355  13.572   7.816
87926SOL     OW65610  13.960  10.009  14.804
87926SOL    HW165611  14.040  10.002  14.856
87926SOL    HW265612  13.945   9.921  14.769
87927SOL     OW65613  12.664   9.460  10.904
87927SOL    HW165614  12.758   9.471  10.919
87927SOL    HW265615  12.657   9.375  10.860
87928SOL     OW65616   0.794   1.041   4.890
87928SOL    HW165617   0.811   1.107   4.822
87928SOL    HW265618   0.734   1.084   4.950
87929SOL     OW65619   6.389   9.335   8.199
87929SOL    HW165620   6.382   9.414   8.254
87929SOL    HW265621   6.461   9.286   8.237
87930SOL     OW65622  10.684   4.967   0.991
87930SOL    HW165623  10.643   4.939   0.909
87930SOL    HW265624  10.714   4.885   1.032
87931SOL     OW65625   6.338   1.334   4.274
87931SOL    HW165626   6.326   1.243   4.303
87931SOL    HW265627   6.294   1.386   4.341
87932SOL     OW65628   7.891  11.987   9.500
87932SOL    HW165629   7.915  12.054   9.436
87932SOL    HW265630   7.967  11.983   9.559
87933SOL     OW65631   1.983   7.836   8.824
87933SOL    HW165632   1.907   7.893   8.822
87933SOL    HW265633   2.014   7.833   8.733
87934SOL     OW65634  14.502   5.115   7.892
87934SOL    HW165635  14.550   5.196   7.880
87934SOL    HW265636  14.541   5.074   7.969
87935SOL     OW65637   2.531  12.182   1.706
87935SOL    HW165638   2.510  12.118   1.638
87935SOL    HW265639   2.502  12.141   1.787
87936SOL     OW65640   3.030   8.625  11.101
87936SOL    HW165641   2.977   8.684  11.154
87936SOL    HW265642   2.972   8.551  11.082
87937SOL     OW65643  14.878   8.680   0.531
87937SOL    HW165644   0.071   8.737   0.501
87937SOL    HW265645   0.000   8.690   0.626
87938SOL     OW65646  11.602   1.665  10.861
87938SOL    HW165647  11.565   1.739  10.909
87938SOL    HW265648  11.624   1.601  10.928
87939SOL     OW65649   2.465  14.286   9.512
87939SOL    HW165650   2.557  14.301   9.492
87939SOL    HW265651   2.418  14.324   9.438
87940SOL     OW65652  10.879   0.836   1.051
87940SOL    HW165653  10.914   0.754   1.087
87940SOL    HW265654  10.784   0.827   1.060
87941SOL     OW65655   1.129   3.165   2.564
87941SOL    HW165656   1.165   3.200   2.483
87941SOL    HW265657   1.203   3.125   2.609
87942SOL     OW65658   0.169  13.872   4.403
87942SOL    HW165659   0.226  13.797   4.422
87942SOL    HW265660   0.093  13.859   4.460
87943SOL     OW65661   4.605   6.581   7.385
87943SOL    HW165662   4.556   6.580   7.467
87943SOL    HW265663   4.607   6.489   7.358
87944SOL     OW65664  13.787   3.876   1.195
87944SOL    HW165665  13.881   3.880   1.212
87944SOL    HW265666  13.780   3.860   1.101
87945SOL     OW65667  12.646   2.370  12.760
87945SOL    HW165668  12.604   2.382  12.675
87945SOL    HW265669  12.733   2.408  12.750
87946SOL     OW65670   1.826   8.001   9.908
87946SOL    HW165671   1.828   8.096   9.919
87946SOL    HW265672   1.913   7.979   9.874
87947SOL     OW65673   0.496   1.406   1.457
87947SOL    HW165674   0.435   1.450   1.515
87947SOL    HW265675   0.514   1.470   1.388
87948SOL     OW65676  12.050   9.635   6.517
87948SOL    HW165677  12.019   9.554   6.476
87948SOL    HW265678  12.141   9.617   6.542
87949SOL     OW65679   7.182   1.443   5.460
87949SOL    HW165680   7.274   1.427   5.480
87949SOL    HW265681   7.141   1.461   5.545
87950SOL     OW65682   4.007  14.280   3.532
87950SOL    HW165683   4.078  14.308   3.591
87950SOL    HW265684   3.977  14.197   3.570
87951SOL     OW65685   9.454  10.894  11.903
87951SOL    HW165686   9.438  10.799  11.902
87951SOL    HW265687   9.507  10.910  11.825
87952SOL     OW65688  10.514  14.822   7.302
87952SOL    HW165689  10.458  14.769   7.358
87952SOL    HW265690  10.581  14.761   7.271
87953SOL     OW65691   5.240   6.504   7.535
87953SOL    HW165692   5.317   6.560   7.530
87953SOL    HW265693   5.209   6.514   7.625
87954SOL     OW65694   1.430   5.293   8.434
87954SOL    HW165695   1.392   5.286   8.347
87954SOL    HW265696   1.364   5.257   8.493
87955SOL     OW65697   0.474  12.717  10.953
87955SOL    HW165698   0.470  12.637  10.901
87955SOL    HW265699   0.485  12.686  11.043
87956SOL     OW65700   6.113   5.701   2.047
87956SOL    HW165701   6.042   5.762   2.031
87956SOL    HW265702   6.110   5.684   2.142
87957SOL     OW65703   4.958   3.079  14.058
87957SOL    HW165704   4.947   3.172  14.080
87957SOL    HW265705   4.902   3.066  13.982
87958SOL     OW65706  11.450   9.389  14.207
87958SOL    HW165707  11.433   9.299  14.235
87958SOL    HW265708  11.380   9.440  14.248
87959SOL     OW65709  13.148   2.842   0.384
87959SOL    HW165710  13.112   2.873   0.302
87959SOL    HW265711  13.120   2.907   0.449
87960SOL     OW65712   0.472  13.478   4.951
87960SOL    HW165713   0.431  13.560   4.923
87960SOL    HW265714   0.513  13.444   4.871
87961SOL     OW65715  10.230   8.571   7.825
87961SOL    HW165716  10.247   8.545   7.915
87961SOL    HW265717  10.144   8.614   7.828
87962SOL     OW65718   4.877   4.311   3.519
87962SOL    HW165719   4.870   4.216   3.534
87962SOL    HW265720   4.863   4.321   3.425
87963SOL     OW65721   9.308   0.903  14.433
87963SOL    HW165722   9.302   0.942  14.520
87963SOL    HW265723   9.363   0.963  14.383
87964SOL     OW65724  13.666   6.652   9.999
87964SOL    HW165725  13.667   6.559  10.023
87964SOL    HW265726  13.649   6.652   9.905
87965SOL     OW65727  14.412   0.224   6.200
87965SOL    HW165728  14.446   0.216   6.289
87965SOL    HW265729  14.318   0.208   6.208
87966SOL     OW65730  10.225   1.529   3.443
87966SOL    HW165731  10.148   1.549   3.391
87966SOL    HW265732  10.287   1.600   3.424
87967SOL     OW65733  11.214  10.520   0.925
87967SOL    HW165734  11.161  10.541   0.849
87967SOL    HW265735  11.279  10.456   0.894
87968SOL     OW65736  13.444   5.990   5.241
87968SOL    HW165737  13.500   5.926   5.197
87968SOL    HW265738  13.498   6.025   5.312
87969SOL     OW65739   5.768   5.352   3.385
87969SOL    HW165740   5.764   5.416   3.314
87969SOL    HW265741   5.729   5.397   3.460
87970SOL     OW65742  10.470   1.232  12.862
87970SOL    HW165743  10.380   1.218  12.833
87970SOL    HW265744  10.500   1.308  12.811
87971SOL     OW65745   4.231   9.283   4.719
87971SOL    HW165746   4.235   9.355   4.656
87971SOL    HW265747   4.162   9.309   4.781
87972SOL     OW65748   8.189  12.407  12.825
87972SOL    HW165749   8.105  12.363  12.806
87972SOL    HW265750   8.249  12.335  12.846
87973SOL     OW65751  12.569  14.269  11.584
87973SOL    HW165752  12.613  14.266  11.499
87973SOL    HW265753  12.478  14.289  11.563
87974SOL     OW65754   9.951  14.711  14.448
87974SOL    HW165755   9.893  14.778  14.483
87974SOL    HW265756   9.970  14.654  14.522
87975SOL     OW65757   6.957   9.205   2.300
87975SOL    HW165758   6.950   9.110   2.309
87975SOL    HW265759   6.943   9.221   2.207
87976SOL     OW65760   1.427  14.143  13.705
87976SOL    HW165761   1.490  14.110  13.769
87976SOL    HW265762   1.353  14.173  13.757
87977SOL     OW65763  11.653  11.834   5.463
87977SOL    HW165764  11.606  11.818   5.545
87977SOL    HW265765  11.720  11.766   5.459
87978SOL     OW65766   9.047   3.231   4.286
87978SOL    HW165767   9.049   3.315   4.332
87978SOL    HW265768   9.112   3.178   4.331
87979SOL     OW65769  13.784  13.741  13.730
87979SOL    HW165770  13.852  13.740  13.663
87979SOL    HW265771  13.792  13.657  13.774
87980SOL     OW65772   0.228  12.740   8.421
87980SOL    HW165773   0.237  12.748   8.326
87980SOL    HW265774   0.315  12.715   8.452
87981SOL     OW65775  13.125   5.072  13.053
87981SOL    HW165776  13.178   5.071  12.973
87981SOL    HW265777  13.059   5.140  13.038
87982SOL     OW65778   9.261   2.707  13.811
87982SOL    HW165779   9.172   2.703  13.777
87982SOL    HW265780   9.258   2.774  13.879
87983SOL     OW65781   1.326   7.092  10.602
87983SOL    HW165782   1.264   7.119  10.535
87983SOL    HW265783   1.399   7.153  10.594
87984SOL     OW65784  11.213  12.705  14.670
87984SOL    HW165785  11.293  12.729  14.717
87984SOL    HW265786  11.187  12.622  14.708
87985SOL     OW65787   2.180  14.565   8.295
87985SOL    HW165788   2.099  14.529   8.331
87985SOL    HW265789   2.188  14.524   8.209
87986SOL     OW65790   4.468  11.340  10.877
87986SOL    HW165791   4.475  11.430  10.910
87986SOL    HW265792   4.379  11.334  10.844
87987SOL     OW65793  11.656   7.018   5.933
87987SOL    HW165794  11.579   7.028   5.989
87987SOL    HW265795  11.661   7.099   5.883
87988SOL     OW65796  14.151  12.002   4.796
87988SOL    HW165797  14.073  12.057   4.786
87988SOL    HW265798  14.179  12.016   4.887
87989SOL     OW65799  14.379   7.743   6.656
87989SOL    HW165800  14.438   7.758   6.730
87989SOL    HW265801  14.428   7.773   6.579
87990SOL     OW65802   5.530   8.372   8.309
87990SOL    HW165803   5.525   8.290   8.259
87990SOL    HW265804   5.525   8.345   8.400
87991SOL     OW65805   4.354   6.687   2.491
87991SOL    HW165806   4.314   6.772   2.471
87991SOL    HW265807   4.309   6.626   2.433
87992SOL     OW65808  14.625  10.886   5.290
87992SOL    HW165809  14.703  10.909   5.340
87992SOL    HW265810  14.625  10.790   5.288
87993SOL     OW65811   8.686   7.446   3.695
87993SOL    HW165812   8.664   7.354   3.711
87993SOL    HW265813   8.625   7.496   3.749
87994SOL     OW65814   8.484   0.889   1.170
87994SOL    HW165815   8.484   0.799   1.136
87994SOL    HW265816   8.575   0.904   1.196
87995SOL     OW65817   2.880  13.697   4.039
87995SOL    HW165818   2.948  13.760   4.013
87995SOL    HW265819   2.817  13.699   3.967
87996SOL     OW65820  12.738  10.038  11.749
87996SOL    HW165821  12.662  10.092  11.773
87996SOL    HW265822  12.700   9.960  11.709
87997SOL     OW65823   0.836   3.267   5.215
87997SOL    HW165824   0.798   3.310   5.138
87997SOL    HW265825   0.892   3.199   5.179
87998SOL     OW65826   8.013   0.233   9.141
87998SOL    HW165827   7.921   0.214   9.159
87998SOL    HW265828   8.049   0.258   9.226
87999SOL     OW65829   3.617   9.036   7.813
87999SOL    HW165830   3.560   8.994   7.877
87999SOL    HW265831   3.643   9.118   7.853
88000SOL     OW65832   2.071   6.179  12.378
88000SOL    HW165833   2.148   6.203  12.328
88000SOL    HW265834   1.998   6.190  12.318
88001SOL     OW65835   8.289   2.870   1.304
88001SOL    HW165836   8.271   2.829   1.389
88001SOL    HW265837   8.210   2.852   1.252
88002SOL     OW65838   8.284   5.091  13.302
88002SOL    HW165839   8.276   5.108  13.208
88002SOL    HW265840   8.193   5.082  13.332
88003SOL     OW65841   6.713   1.871  14.377
88003SOL    HW165842   6.795   1.914  14.352
88003SOL    HW265843   6.644   1.931  14.350
88004SOL     OW65844  11.095  12.974   1.662
88004SOL    HW165845  11.054  12.977   1.576
88004SOL    HW265846  11.178  13.020   1.652
88005SOL     OW65847   9.643   3.551   2.528
88005SOL    HW165848   9.582   3.517   2.594
88005SOL    HW265849   9.593   3.617   2.481
88006SOL     OW65850  10.640   1.523   1.725
88006SOL    HW165851  10.692   1.460   1.677
88006SOL    HW265852  10.643   1.602   1.671
88007SOL     OW65853   0.007  11.428   9.684
88007SOL    HW165854   0.098  11.455   9.685
88007SOL    HW265855  14.837  11.507   9.704
88008SOL     OW65856   8.832   1.041   6.367
88008SOL    HW165857   8.762   0.985   6.334
88008SOL    HW265858   8.792   1.088   6.440
88009SOL     OW65859   2.856   3.945   1.259
88009SOL    HW165860   2.863   4.033   1.222
88009SOL    HW265861   2.844   3.959   1.353
88010SOL     OW65862   4.060   8.079  14.668
88010SOL    HW165863   4.132   8.140  14.655
88010SOL    HW265864   4.102   7.994  14.678
88011SOL     OW65865   4.598   1.292  14.678
88011SOL    HW165866   4.688   1.266  14.656
88011SOL    HW265867   4.608   1.358  14.747
88012SOL     OW65868   4.379   1.090   3.021
88012SOL    HW165869   4.303   1.057   2.973
88012SOL    HW265870   4.367   1.185   3.021
88013SOL     OW65871   7.934   7.077   5.285
88013SOL    HW165872   7.941   7.121   5.369
88013SOL    HW265873   7.856   7.113   5.244
88014SOL     OW65874   2.073   1.068   6.584
88014SOL    HW165875   2.035   1.142   6.632
88014SOL    HW265876   1.998   1.011   6.565
88015SOL     OW65877  13.883   1.295   5.523
88015SOL    HW165878  13.909   1.340   5.603
88015SOL    HW265879  13.883   1.202   5.547
88016SOL     OW65880  14.496   3.291  11.758
88016SOL    HW165881  14.575   3.257  11.717
88016SOL    HW265882  14.528   3.339  11.835
88017SOL     OW65883   8.834   7.311  10.835
88017SOL    HW165884   8.845   7.274  10.923
88017SOL    HW265885   8.852   7.404  10.846
88018SOL     OW65886   1.317  13.501  13.936
88018SOL    HW165887   1.397  13.495  13.884
88018SOL    HW265888   1.318  13.591  13.971
88019SOL     OW65889   4.188   8.127   3.261
88019SOL    HW165890   4.132   8.203   3.246
88019SOL    HW265891   4.165   8.096   3.348
88020SOL     OW65892   0.715   0.159  11.634
88020SOL    HW165893   0.648   0.142  11.700
88020SOL    HW265894   0.702   0.250  11.609
88021SOL     OW65895   8.514   1.890   0.974
88021SOL    HW165896   8.517   1.842   1.057
88021SOL    HW265897   8.506   1.982   0.999
88022SOL     OW65898  14.196   4.477  12.201
88022SOL    HW165899  14.102   4.492  12.211
88022SOL    HW265900  14.233   4.564  12.189
88023SOL     OW65901   1.763   5.840   5.558
88023SOL    HW165902   1.676   5.854   5.594
88023SOL    HW265903   1.752   5.849   5.464
88024SOL     OW65904   1.995  13.690   3.306
88024SOL    HW165905   1.924  13.708   3.243
88024SOL    HW265906   1.951  13.684   3.390
88025SOL     OW65907   0.504   1.303  13.215
88025SOL    HW165908   0.446   1.295  13.139
88025SOL    HW265909   0.529   1.213  13.236
88026SOL     OW65910   0.369   2.941   5.541
88026SOL    HW165911   0.456   2.947   5.503
88026SOL    HW265912   0.310   2.937   5.466
88027SOL     OW65913  10.886   2.831  11.690
88027SOL    HW165914  10.921   2.755  11.644
88027SOL    HW265915  10.824   2.795  11.753
88028SOL     OW65916   4.431   4.914   8.250
88028SOL    HW165917   4.517   4.875   8.231
88028SOL    HW265918   4.375   4.883   8.178
88029SOL     OW65919  13.942   2.367  12.642
88029SOL    HW165920  13.910   2.310  12.712
88029SOL    HW265921  14.019   2.323  12.608
88030SOL     OW65922  12.673  12.243   4.559
88030SOL    HW165923  12.699  12.154   4.534
88030SOL    HW265924  12.589  12.231   4.605
88031SOL     OW65925   8.619  12.464  14.516
88031SOL    HW165926   8.567  12.523  14.462
88031SOL    HW265927   8.654  12.399  14.455
88032SOL     OW65928   7.551  11.728   5.683
88032SOL    HW165929   7.525  11.783   5.609
88032SOL    HW265930   7.477  11.667   5.694
88033SOL     OW65931  12.126   8.893   9.457
88033SOL    HW165932  12.058   8.949   9.492
88033SOL    HW265933  12.089   8.805   9.461
88034SOL     OW65934   3.707   0.879  13.868
88034SOL    HW165935   3.732   0.959  13.914
88034SOL    HW265936   3.672   0.910  13.784
88035SOL     OW65937   2.132   0.927  14.858
88035SOL    HW165938   2.179   0.928   0.063
88035SOL    HW265939   2.077   1.005  14.860
88036SOL     OW65940   8.611   9.821   1.677
88036SOL    HW165941   8.568   9.742   1.644
88036SOL    HW265942   8.671   9.846   1.608
88037SOL     OW65943  13.931   4.861   1.710
88037SOL    HW165944  13.837   4.881   1.712
88037SOL    HW265945  13.959   4.888   1.623
88038SOL     OW65946   0.961   2.874   7.356
88038SOL    HW165947   0.996   2.795   7.396
88038SOL    HW265948   0.914   2.843   7.278
88039SOL     OW65949   6.094   7.359   1.385
88039SOL    HW165950   6.067   7.366   1.476
88039SOL    HW265951   6.127   7.447   1.363
88040SOL     OW65952  11.551   5.505   3.403
88040SOL    HW165953  11.486   5.497   3.333
88040SOL    HW265954  11.605   5.580   3.378
88041SOL     OW65955  12.328  13.135  14.491
88041SOL    HW165956  12.293  13.138  14.580
88041SOL    HW265957  12.340  13.041  14.474
88042SOL     OW65958   4.177   2.221  14.455
88042SOL    HW165959   4.124   2.177  14.521
88042SOL    HW265960   4.258   2.170  14.451
88043SOL     OW65961   3.306   6.173   7.048
88043SOL    HW165962   3.267   6.248   7.004
88043SOL    HW265963   3.396   6.199   7.067
88044SOL     OW65964  13.486  13.205  11.944
88044SOL    HW165965  13.421  13.247  11.888
88044SOL    HW265966  13.468  13.111  11.936
88045SOL     OW65967  11.680  10.151  11.292
88045SOL    HW165968  11.648  10.061  11.300
88045SOL    HW265969  11.685  10.182  11.382
88046SOL     OW65970   0.298  13.057   4.254
88046SOL    HW165971   0.391  13.035   4.262
88046SOL    HW265972   0.297  13.136   4.200
88047SOL     OW65973   1.205   0.038   2.279
88047SOL    HW165974   1.134   0.068   2.223
88047SOL    HW265975   1.194   0.087   2.360
88048SOL     OW65976   4.524   9.863   9.626
88048SOL    HW165977   4.565   9.934   9.577
88048SOL    HW265978   4.517   9.791   9.564
88049SOL     OW65979   5.729   1.695   9.540
88049SOL    HW165980   5.687   1.781   9.536
88049SOL    HW265981   5.675   1.639   9.485
88050SOL     OW65982   0.316   2.763  10.515
88050SOL    HW165983   0.316   2.781  10.609
88050SOL    HW265984   0.384   2.821  10.481
88051SOL     OW65985  10.076   1.962  10.706
88051SOL    HW165986  10.148   1.905  10.678
88051SOL    HW265987  10.051   2.009  10.626
88052SOL     OW65988   7.467  14.266   3.783
88052SOL    HW165989   7.493  14.273   3.691
88052SOL    HW265990   7.490  14.351   3.821
88053SOL     OW65991   5.237   0.141   8.023
88053SOL    HW165992   5.264   0.063   7.974
88053SOL    HW265993   5.299   0.146   8.096
88054SOL     OW65994  11.185  12.644  14.035
88054SOL    HW165995  11.093  12.626  14.058
88054SOL    HW265996  11.181  12.725  13.985
88055SOL     OW65997   1.246  14.733   7.175
88055SOL    HW165998   1.212  14.689   7.097
88055SOL    HW265999   1.341  14.729   7.165
88056SOL     OW66000  12.460  11.623   2.649
88056SOL    HW166001  12.385  11.634   2.591
88056SOL    HW266002  12.463  11.704   2.700
88057SOL     OW66003   4.896   0.626   1.394
88057SOL    HW166004   4.913   0.550   1.449
88057SOL    HW266005   4.801   0.628   1.383
88058SOL     OW66006   6.171   3.758   7.042
88058SOL    HW166007   6.203   3.714   7.121
88058SOL    HW266008   6.111   3.824   7.075
88059SOL     OW66009   1.712   8.216   1.088
88059SOL    HW166010   1.745   8.152   1.151
88059SOL    HW266011   1.780   8.284   1.084
88060SOL     OW66012  12.612  12.589  13.276
88060SOL    HW166013  12.600  12.530  13.201
88060SOL    HW266014  12.603  12.677  13.238
88061SOL     OW66015   8.009  14.029   6.468
88061SOL    HW166016   8.055  14.084   6.404
88061SOL    HW266017   7.918  14.028   6.438
88062SOL     OW66018  11.626   5.195   9.595
88062SOL    HW166019  11.640   5.199   9.689
88062SOL    HW266020  11.531   5.201   9.584
88063SOL     OW66021   3.101  12.408   0.195
88063SOL    HW166022   3.108  12.327   0.244
88063SOL    HW266023   3.147  12.473   0.248
88064SOL     OW66024   5.392   5.305   5.202
88064SOL    HW166025   5.299   5.283   5.195
88064SOL    HW266026   5.403   5.339   5.291
88065SOL     OW66027   8.579  10.637  11.681
88065SOL    HW166028   8.534  10.553  11.676
88065SOL    HW266029   8.532  10.685  11.749
88066SOL     OW66030   0.195   2.135   5.004
88066SOL    HW166031   0.188   2.056   4.950
88066SOL    HW266032   0.241   2.197   4.948
88067SOL     OW66033   9.834  14.704   7.320
88067SOL    HW166034   9.827  14.729   7.228
88067SOL    HW266035   9.849  14.609   7.318
88068SOL     OW66036   0.114  14.703   5.134
88068SOL    HW166037   0.184  14.718   5.198
88068SOL    HW266038   0.106  14.608   5.129
88069SOL     OW66039   4.048  12.665   3.311
88069SOL    HW166040   3.982  12.657   3.243
88069SOL    HW266041   4.052  12.759   3.329
88070SOL     OW66042  11.897  10.183  12.110
88070SOL    HW166043  11.948  10.158  12.188
88070SOL    HW266044  11.812  10.140  12.123
88071SOL     OW66045   5.483   6.235   1.142
88071SOL    HW166046   5.470   6.323   1.106
88071SOL    HW266047   5.577   6.218   1.130
88072SOL     OW66048   5.579   2.409  10.762
88072SOL    HW166049   5.509   2.411  10.828
88072SOL    HW266050   5.635   2.483  10.785
88073SOL     OW66051   8.423  10.419  11.291
88073SOL    HW166052   8.421  10.513  11.273
88073SOL    HW266053   8.333  10.390  11.279
88074SOL     OW66054  12.961   0.124  13.915
88074SOL    HW166055  12.869   0.106  13.935
88074SOL    HW266056  12.977   0.079  13.832
88075SOL     OW66057   2.990  12.663   4.356
88075SOL    HW166058   3.015  12.586   4.406
88075SOL    HW266059   3.004  12.737   4.416
88076SOL     OW66060  10.987   1.769   3.845
88076SOL    HW166061  10.958   1.772   3.936
88076SOL    HW266062  10.961   1.853   3.808
88077SOL     OW66063   8.546  14.473   2.456
88077SOL    HW166064   8.544  14.456   2.362
88077SOL    HW266065   8.461  14.512   2.476
88078SOL     OW66066  11.073  10.935   0.260
88078SOL    HW166067  11.069  10.859   0.318
88078SOL    HW266068  11.126  10.905   0.186
88079SOL     OW66069  10.112   3.835   0.066
88079SOL    HW166070  10.152   3.760   0.109
88079SOL    HW266071  10.040   3.799   0.015
88080SOL     OW66072   3.982   4.974   8.594
88080SOL    HW166073   4.040   5.003   8.664
88080SOL    HW266074   4.042   4.949   8.523
88081SOL     OW66075   0.583  12.954   4.764
88081SOL    HW166076   0.621  13.017   4.826
88081SOL    HW266077   0.651  12.942   4.697
88082SOL     OW66078   0.500  10.448   1.431
88082SOL    HW166079   0.590  10.446   1.463
88082SOL    HW266080   0.479  10.541   1.424
88083SOL     OW66081  10.966   0.544   6.056
88083SOL    HW166082  10.984   0.525   6.148
88083SOL    HW266083  11.039   0.601   6.029
88084SOL     OW66084   1.886   4.042   4.367
88084SOL    HW166085   1.826   3.978   4.405
88084SOL    HW266086   1.891   4.018   4.274
88085SOL     OW66087   7.274   1.936  10.482
88085SOL    HW166088   7.180   1.946  10.465
88085SOL    HW266089   7.300   1.862  10.427
88086SOL     OW66090  10.564   9.827   6.587
88086SOL    HW166091  10.511   9.761   6.631
88086SOL    HW266092  10.633   9.778   6.543
88087SOL     OW66093  10.737   1.704   6.331
88087SOL    HW166094  10.724   1.752   6.413
88087SOL    HW266095  10.816   1.652   6.346
88088SOL     OW66096   0.628   6.819   5.551
88088SOL    HW166097   0.635   6.725   5.565
88088SOL    HW266098   0.623   6.856   5.640
88089SOL     OW66099   5.852  10.475   1.250
88089SOL    HW166100   5.868  10.384   1.224
88089SOL    HW266101   5.894  10.527   1.182
88090SOL     OW66102   1.079   0.630   6.531
88090SOL    HW166103   0.993   0.589   6.538
88090SOL    HW266104   1.086   0.686   6.608
88091SOL     OW66105   6.094  14.776   7.596
88091SOL    HW166106   6.063  14.726   7.672
88091SOL    HW266107   6.129  14.857   7.634
88092SOL     OW66108   3.974  10.906   0.843
88092SOL    HW166109   3.887  10.867   0.853
88092SOL    HW266110   4.013  10.899   0.930
88093SOL     OW66111  13.935  14.334   1.611
88093SOL    HW166112  13.929  14.374   1.697
88093SOL    HW266113  14.006  14.380   1.568
88094SOL     OW66114  11.148   2.591   2.717
88094SOL    HW166115  11.142   2.629   2.805
88094SOL    HW266116  11.201   2.512   2.729
88095SOL     OW66117   6.988   7.086  12.960
88095SOL    HW166118   6.899   7.051  12.968
88095SOL    HW266119   7.011   7.113  13.049
88096SOL     OW66120   0.662  12.265   6.049
88096SOL    HW166121   0.653  12.323   5.973
88096SOL    HW266122   0.680  12.179   6.012
88097SOL     OW66123   1.268   4.468  10.157
88097SOL    HW166124   1.207   4.488  10.087
88097SOL    HW266125   1.229   4.393  10.202
88098SOL     OW66126  12.028   5.499   8.709
88098SOL    HW166127  12.063   5.589   8.711
88098SOL    HW266128  11.952   5.504   8.651
88099SOL     OW66129  10.022   1.466   6.765
88099SOL    HW166130   9.989   1.547   6.803
88099SOL    HW266131  10.117   1.478   6.762
88100SOL     OW66132  10.050   4.079  13.358
88100SOL    HW166133   9.972   4.060  13.410
88100SOL    HW266134  10.086   3.993  13.336
88101SOL     OW66135   8.711   3.110   6.507
88101SOL    HW166136   8.802   3.099   6.534
88101SOL    HW266137   8.709   3.078   6.416
88102SOL     OW66138   7.002  11.093  13.824
88102SOL    HW166139   7.041  11.049  13.900
88102SOL    HW266140   6.907  11.084  13.838
88103SOL     OW66141  10.310   8.378  12.014
88103SOL    HW166142  10.278   8.316  12.080
88103SOL    HW266143  10.289   8.336  11.930
88104SOL     OW66144  13.746  11.463  10.644
88104SOL    HW166145  13.725  11.480  10.552
88104SOL    HW266146  13.801  11.537  10.670
88105SOL     OW66147  13.248  13.140  14.098
88105SOL    HW166148  13.159  13.174  14.099
88105SOL    HW266149  13.294  13.194  14.034
88106SOL     OW66150   1.738   6.582  13.510
88106SOL    HW166151   1.690   6.557  13.432
88106SOL    HW266152   1.768   6.499  13.547
88107SOL     OW66153   3.883   8.116  14.046
88107SOL    HW166154   3.954   8.109  14.110
88107SOL    HW266155   3.808   8.148  14.097
88108SOL     OW66156   7.003   0.100  11.634
88108SOL    HW166157   7.030   0.075  11.723
88108SOL    HW266158   7.060   0.174  11.612
88109SOL     OW66159   8.038   3.365  14.841
88109SOL    HW166160   8.087   3.427   0.017
88109SOL    HW266161   7.989   3.421  14.780
88110SOL     OW66162   9.270   7.497   1.226
88110SOL    HW166163   9.313   7.574   1.189
88110SOL    HW266164   9.176   7.518   1.220
88111SOL     OW66165  10.169   1.443  11.833
88111SOL    HW166166  10.192   1.429  11.924
88111SOL    HW266167  10.149   1.536  11.826
88112SOL     OW66168   6.672   0.657   6.858
88112SOL    HW166169   6.727   0.731   6.832
88112SOL    HW266170   6.613   0.643   6.784
88113SOL     OW66171   9.240  12.289   4.222
88113SOL    HW166172   9.261  12.380   4.243
88113SOL    HW266173   9.295  12.237   4.280
88114SOL     OW66174   6.656   6.760  13.983
88114SOL    HW166175   6.607   6.839  14.007
88114SOL    HW266176   6.623   6.738  13.896
88115SOL     OW66177   1.976  14.185   1.423
88115SOL    HW166178   1.924  14.112   1.390
88115SOL    HW266179   1.917  14.233   1.481
88116SOL     OW66180  12.402  11.766   4.742
88116SOL    HW166181  12.412  11.675   4.770
88116SOL    HW266182  12.483  11.809   4.770
88117SOL     OW66183  13.898  12.861  11.936
88117SOL    HW166184  13.881  12.806  12.012
88117SOL    HW266185  13.863  12.947  11.960
88118SOL     OW66186   2.772   7.096   4.176
88118SOL    HW166187   2.691   7.060   4.212
88118SOL    HW266188   2.832   7.021   4.174
88119SOL     OW66189   1.510  12.848   4.462
88119SOL    HW166190   1.605  12.847   4.453
88119SOL    HW266191   1.494  12.811   4.549
88120SOL     OW66192   5.990  12.542   7.406
88120SOL    HW166193   5.973  12.531   7.313
88120SOL    HW266194   5.990  12.637   7.420
88121SOL     OW66195  13.217   5.208   4.988
88121SOL    HW166196  13.229   5.166   4.903
88121SOL    HW266197  13.126   5.235   4.989
88122SOL     OW66198   8.339  10.507   3.813
88122SOL    HW166199   8.262  10.564   3.822
88122SOL    HW266200   8.322  10.435   3.874
88123SOL     OW66201  14.877  12.605   0.245
88123SOL    HW166202   0.023  12.514   0.263
88123SOL    HW266203   0.031  12.654   0.320
88124SOL     OW66204   0.463  12.785   2.683
88124SOL    HW166205   0.539  12.814   2.633
88124SOL    HW266206   0.455  12.848   2.754
88125SOL     OW66207   0.085   3.129  10.076
88125SOL    HW166208   0.145   3.083  10.018
88125SOL    HW266209   0.130   3.131  10.160
88126SOL     OW66210   3.330  12.860   4.676
88126SOL    HW166211   3.249  12.843   4.626
88126SOL    HW266212   3.376  12.777   4.675
88127SOL     OW66213  14.096   4.188   0.991
88127SOL    HW166214  14.113   4.282   0.985
88127SOL    HW266215  14.004   4.183   1.018
88128SOL     OW66216  13.196   9.520   6.183
88128SOL    HW166217  13.254   9.544   6.110
88128SOL    HW266218  13.108   9.527   6.146
88129SOL     OW66219   9.555  14.055  13.443
88129SOL    HW166220   9.536  14.134  13.494
88129SOL    HW266221   9.563  13.986  13.509
88130SOL     OW66222  13.379   3.647   6.021
88130SOL    HW166223  13.338   3.668   6.104
88130SOL    HW266224  13.470   3.626   6.044
88131SOL     OW66225  10.175   1.613   9.216
88131SOL    HW166226  10.221   1.667   9.280
88131SOL    HW266227  10.092   1.591   9.258
88132SOL     OW66228   1.691   0.031   3.026
88132SOL    HW166229   1.601  14.878   3.021
88132SOL    HW266230   1.729   0.009   2.941
88133SOL     OW66231   6.955  13.695   0.312
88133SOL    HW166232   6.960  13.611   0.267
88133SOL    HW266233   6.873  13.691   0.361
88134SOL     OW66234  12.467  13.825   0.489
88134SOL    HW166235  12.394  13.877   0.456
88134SOL    HW266236  12.427  13.762   0.549
88135SOL     OW66237   6.900  10.790   9.500
88135SOL    HW166238   6.905  10.841   9.582
88135SOL    HW266239   6.946  10.844   9.436
88136SOL     OW66240  13.631   4.745   3.793
88136SOL    HW166241  13.680   4.769   3.714
88136SOL    HW266242  13.568   4.815   3.804
88137SOL     OW66243   1.692   2.868   2.981
88137SOL    HW166244   1.747   2.801   3.022
88137SOL    HW266245   1.746   2.901   2.909
88138SOL     OW66246   3.247   2.709  11.784
88138SOL    HW166247   3.216   2.717  11.694
88138SOL    HW266248   3.170   2.685  11.834
88139SOL     OW66249   1.329   8.531  11.374
88139SOL    HW166250   1.359   8.445  11.405
88139SOL    HW266251   1.295   8.515  11.286
88140SOL     OW66252   8.817  10.797   5.729
88140SOL    HW166253   8.749  10.773   5.666
88140SOL    HW266254   8.777  10.864   5.784
88141SOL     OW66255   3.387   1.469  10.015
88141SOL    HW166256   3.421   1.423   9.938
88141SOL    HW266257   3.398   1.562   9.994
88142SOL     OW66258   0.858   6.649   4.157
88142SOL    HW166259   0.854   6.718   4.223
88142SOL    HW266260   0.822   6.572   4.201
88143SOL     OW66261   0.435   9.927   6.768
88143SOL    HW166262   0.409   9.890   6.852
88143SOL    HW266263   0.355   9.927   6.715
88144SOL     OW66264   0.912   8.815   8.003
88144SOL    HW166265   0.886   8.890   8.056
88144SOL    HW266266   1.006   8.827   7.988
88145SOL     OW66267   1.180  12.087  11.487
88145SOL    HW166268   1.233  12.102  11.566
88145SOL    HW266269   1.243  12.092  11.415
88146SOL     OW66270  13.385   5.430   7.206
88146SOL    HW166271  13.329   5.478   7.268
88146SOL    HW266272  13.401   5.346   7.249
88147SOL     OW66273   3.280   2.041   9.489
88147SOL    HW166274   3.205   2.089   9.522
88147SOL    HW266275   3.346   2.108   9.470
88148SOL     OW66276   3.340  13.354   2.620
88148SOL    HW166277   3.390  13.357   2.701
88148SOL    HW266278   3.290  13.272   2.625
88149SOL     OW66279   0.325   9.465  13.841
88149SOL    HW166280   0.250   9.523  13.859
88149SOL    HW266281   0.400   9.525  13.835
88150SOL     OW66282   6.384   3.871   5.379
88150SOL    HW166283   6.361   3.922   5.457
88150SOL    HW266284   6.455   3.920   5.339
88151SOL     OW66285   3.784  14.530  11.571
88151SOL    HW166286   3.768  14.468  11.500
88151SOL    HW266287   3.874  14.559  11.559
88152SOL     OW66288   0.131  14.382   9.945
88152SOL    HW166289   0.054  14.436   9.929
88152SOL    HW266290   0.097  14.292   9.949
88153SOL     OW66291  13.586   4.977   2.334
88153SOL    HW166292  13.637   5.050   2.297
88153SOL    HW266293  13.542   5.013   2.410
88154SOL     OW66294   5.481  14.546   9.408
88154SOL    HW166295   5.442  14.612   9.351
88154SOL    HW266296   5.429  14.467   9.393
88155SOL     OW66297   0.712   9.270   4.430
88155SOL    HW166298   0.801   9.263   4.396
88155SOL    HW266299   0.713   9.215   4.509
88156SOL     OW66300   7.307   5.336   2.908
88156SOL    HW166301   7.359   5.379   2.976
88156SOL    HW266302   7.366   5.270   2.873
88157SOL     OW66303   8.681   4.302  12.310
88157SOL    HW166304   8.720   4.344  12.387
88157SOL    HW266305   8.751   4.300  12.246
88158SOL     OW66306   7.569   6.724   5.322
88158SOL    HW166307   7.554   6.637   5.285
88158SOL    HW266308   7.629   6.709   5.395
88159SOL     OW66309  14.449  11.913  13.185
88159SOL    HW166310  14.402  11.832  13.164
88159SOL    HW266311  14.379  11.976  13.207
88160SOL     OW66312   4.412  10.759  11.351
88160SOL    HW166313   4.339  10.789  11.297
88160SOL    HW266314   4.418  10.665  11.333
88161SOL     OW66315   2.711  11.237  13.898
88161SOL    HW166316   2.713  11.330  13.875
88161SOL    HW266317   2.774  11.196  13.839
88162SOL     OW66318   4.605   8.154   5.679
88162SOL    HW166319   4.539   8.203   5.631
88162SOL    HW266320   4.564   8.134   5.763
88163SOL     OW66321   9.654   1.965   6.293
88163SOL    HW166322   9.587   1.930   6.234
88163SOL    HW266323   9.604   2.013   6.359
88164SOL     OW66324   9.209   8.158   1.462
88164SOL    HW166325   9.268   8.202   1.523
88164SOL    HW266326   9.148   8.110   1.519
88165SOL     OW66327  12.176   9.085  11.617
88165SOL    HW166328  12.127   9.141  11.557
88165SOL    HW266329  12.129   9.002  11.616
88166SOL     OW66330   8.752   5.474   7.146
88166SOL    HW166331   8.678   5.442   7.196
88166SOL    HW266332   8.742   5.570   7.146
88167SOL     OW66333   3.481   3.714  11.490
88167SOL    HW166334   3.568   3.755  11.495
88167SOL    HW266335   3.481   3.648  11.559
88168SOL     OW66336   1.985   2.796   4.682
88168SOL    HW166337   2.071   2.755   4.679
88168SOL    HW266338   1.932   2.737   4.736
88169SOL     OW66339   5.176  11.086   7.928
88169SOL    HW166340   5.219  11.128   7.853
88169SOL    HW266341   5.237  11.017   7.954
88170SOL     OW66342   5.460  10.425  11.700
88170SOL    HW166343   5.514  10.497  11.667
88170SOL    HW266344   5.507  10.393  11.777
88171SOL     OW66345  12.797  11.627   0.020
88171SOL    HW166346  12.724  11.635   0.081
88171SOL    HW266347  12.788  11.702  14.840
88172SOL     OW66348   2.275  11.453   8.718
88172SOL    HW166349   2.243  11.466   8.807
88172SOL    HW266350   2.267  11.359   8.703
88173SOL     OW66351   4.029   8.282  13.443
88173SOL    HW166352   3.970   8.210  13.462
88173SOL    HW266353   4.019   8.342  13.517
88174SOL     OW66354   4.558   9.001   3.163
88174SOL    HW166355   4.574   8.971   3.252
88174SOL    HW266356   4.480   8.953   3.135
88175SOL     OW66357  14.140   8.187   8.916
88175SOL    HW166358  14.210   8.250   8.904
88175SOL    HW266359  14.170   8.108   8.871
88176SOL     OW66360   1.422   0.799   0.804
88176SOL    HW166361   1.460   0.721   0.844
88176SOL    HW266362   1.361   0.833   0.869
88177SOL     OW66363   0.220   9.822   6.214
88177SOL    HW166364   0.297   9.859   6.172
88177SOL    HW266365   0.255   9.766   6.283
88178SOL     OW66366   5.626   7.178  14.646
88178SOL    HW166367   5.707   7.226  14.665
88178SOL    HW266368   5.556   7.239  14.669
88179SOL     OW66369   5.728   6.527   1.374
88179SOL    HW166370   5.820   6.530   1.397
88179SOL    HW266371   5.688   6.467   1.437
88180SOL     OW66372  14.858   2.828   8.928
88180SOL    HW166373  14.782   2.813   8.984
88180SOL    HW266374   0.030   2.748   8.935
88181SOL     OW66375  12.044  14.022   5.147
88181SOL    HW166376  12.060  14.096   5.205
88181SOL    HW266377  11.982  14.055   5.082
88182SOL     OW66378   4.815  14.469   1.003
88182SOL    HW166379   4.893  14.468   1.058
88182SOL    HW266380   4.811  14.381   0.966
88183SOL     OW66381  13.542   6.157  14.830
88183SOL    HW166382  13.571   6.241  14.867
88183SOL    HW266383  13.620   6.102  14.833
88184SOL     OW66384  14.060   6.035   1.911
88184SOL    HW166385  14.151   6.028   1.882
88184SOL    HW266386  14.054   5.974   1.984
88185SOL     OW66387  12.198  14.623  11.453
88185SOL    HW166388  12.186  14.544  11.402
88185SOL    HW266389  12.284  14.612  11.495
88186SOL     OW66390  12.439  10.813   4.606
88186SOL    HW166391  12.473  10.731   4.643
88186SOL    HW266392  12.454  10.878   4.674
88187SOL     OW66393   9.676   4.814   1.434
88187SOL    HW166394   9.653   4.906   1.447
88187SOL    HW266395   9.689   4.780   1.522
88188SOL     OW66396   9.080   6.531  12.466
88188SOL    HW166397   9.112   6.541  12.376
88188SOL    HW266398   9.012   6.464  12.460
88189SOL     OW66399   9.390   5.451   9.178
88189SOL    HW166400   9.299   5.429   9.199
88189SOL    HW266401   9.413   5.520   9.240
88190SOL     OW66402  11.236   9.655   1.206
88190SOL    HW166403  11.242   9.751   1.210
88190SOL    HW266404  11.296   9.630   1.137
88191SOL     OW66405   0.277  12.828  11.996
88191SOL    HW166406   0.279  12.837  12.091
88191SOL    HW266407   0.358  12.782  11.974
88192SOL     OW66408   3.486   8.358  13.297
88192SOL    HW166409   3.406   8.336  13.249
88192SOL    HW266410   3.456   8.417  13.367
88193SOL     OW66411  11.070  12.978  13.216
88193SOL    HW166412  11.002  13.012  13.157
88193SOL    HW266413  11.116  13.056  13.248
88194SOL     OW66414   5.442  13.927  12.182
88194SOL    HW166415   5.417  13.881  12.102
88194SOL    HW266416   5.372  13.908  12.244
88195SOL     OW66417  12.689   2.053   2.138
88195SOL    HW166418  12.659   2.102   2.062
88195SOL    HW266419  12.772   2.014   2.110
88196SOL     OW66420  14.704   8.850  13.561
88196SOL    HW166421  14.614   8.865  13.589
88196SOL    HW266422  14.752   8.834  13.642
88197SOL     OW66423   4.450   9.303   7.912
88197SOL    HW166424   4.528   9.345   7.950
88197SOL    HW266425   4.441   9.343   7.826
88198SOL     OW66426  14.361   7.504  12.057
88198SOL    HW166427  14.284   7.560  12.063
88198SOL    HW266428  14.359   7.469  11.968
88199SOL     OW66429   6.243  13.832   8.981
88199SOL    HW166430   6.223  13.848   8.889
88199SOL    HW266431   6.286  13.746   8.982
88200SOL     OW66432   2.628  13.911   6.394
88200SOL    HW166433   2.611  13.844   6.328
88200SOL    HW266434   2.717  13.941   6.375
88201SOL     OW66435   6.075  13.488   9.094
88201SOL    HW166436   6.016  13.563   9.097
88201SOL    HW266437   6.145  13.514   9.034
88202SOL     OW66438  13.598   7.095  10.110
88202SOL    HW166439  13.505   7.100  10.133
88202SOL    HW266440  13.625   7.008  10.141
88203SOL     OW66441   7.625  12.360  13.136
88203SOL    HW166442   7.598  12.375  13.045
88203SOL    HW266443   7.706  12.410  13.146
88204SOL     OW66444  14.005  14.565   2.570
88204SOL    HW166445  14.062  14.628   2.526
88204SOL    HW266446  14.054  14.483   2.569
88205SOL     OW66447  12.207   1.801  13.785
88205SOL    HW166448  12.260   1.858  13.841
88205SOL    HW266449  12.130   1.781  13.838
88206SOL     OW66450  13.999   9.548   1.533
88206SOL    HW166451  14.015   9.639   1.507
88206SOL    HW266452  14.068   9.529   1.597
88207SOL     OW66453   1.607  11.390  10.665
88207SOL    HW166454   1.677  11.329  10.645
88207SOL    HW266455   1.650  11.475  10.674
88208SOL     OW66456   2.912   0.065   1.694
88208SOL    HW166457   2.915   0.156   1.663
88208SOL    HW266458   3.004   0.038   1.697
88209SOL     OW66459  14.218   3.186  11.997
88209SOL    HW166460  14.143   3.205  12.054
88209SOL    HW266461  14.192   3.107  11.950
88210SOL     OW66462   6.365   3.214   4.982
88210SOL    HW166463   6.310   3.198   5.059
88210SOL    HW266464   6.376   3.309   4.980
88211SOL     OW66465  13.282   2.307   9.126
88211SOL    HW166466  13.328   2.235   9.169
88211SOL    HW266467  13.348   2.376   9.118
88212SOL     OW66468   4.777   9.840   5.064
88212SOL    HW166469   4.746   9.751   5.045
88212SOL    HW266470   4.831   9.830   5.142
88213SOL     OW66471  13.971  13.454   8.582
88213SOL    HW166472  14.030  13.530   8.585
88213SOL    HW266473  13.896  13.484   8.531
88214SOL     OW66474   1.472  12.734   1.298
88214SOL    HW166475   1.386  12.750   1.338
88214SOL    HW266476   1.535  12.760   1.366
88215SOL     OW66477  14.393   0.562   7.726
88215SOL    HW166478  14.338   0.511   7.667
88215SOL    HW266479  14.364   0.537   7.814
88216SOL     OW66480   2.768   8.016   0.554
88216SOL    HW166481   2.715   8.084   0.514
88216SOL    HW266482   2.823   7.983   0.483
88217SOL     OW66483  13.142   3.874  10.786
88217SOL    HW166484  13.074   3.846  10.725
88217SOL    HW266485  13.097   3.881  10.870
88218SOL     OW66486   8.908   9.319   2.818
88218SOL    HW166487   8.861   9.397   2.847
88218SOL    HW266488   8.981   9.352   2.767
88219SOL     OW66489   6.885  10.614   7.183
88219SOL    HW166490   6.834  10.533   7.180
88219SOL    HW266491   6.965  10.594   7.134
88220SOL     OW66492   9.077  13.215   5.662
88220SOL    HW166493   9.055  13.304   5.691
88220SOL    HW266494   9.092  13.167   5.743
88221SOL     OW66495   5.834  12.494  11.140
88221SOL    HW166496   5.897  12.560  11.170
88221SOL    HW266497   5.831  12.505  11.045
88222SOL     OW66498   1.310   4.063   7.771
88222SOL    HW166499   1.383   4.006   7.794
88222SOL    HW266500   1.346   4.151   7.775
88223SOL     OW66501  12.607   8.005   9.492
88223SOL    HW166502  12.580   8.084   9.539
88223SOL    HW266503  12.650   8.037   9.413
88224SOL     OW66504  12.701  11.567   2.219
88224SOL    HW166505  12.775  11.622   2.193
88224SOL    HW266506  12.630  11.628   2.237
88225SOL     OW66507   3.502   7.807   4.157
88225SOL    HW166508   3.585   7.852   4.143
88225SOL    HW266509   3.499   7.739   4.090
88226SOL     OW66510   7.989  11.621   0.457
88226SOL    HW166511   7.941  11.552   0.502
88226SOL    HW266512   8.081  11.595   0.465
88227SOL     OW66513   3.463   4.144   0.959
88227SOL    HW166514   3.514   4.064   0.972
88227SOL    HW266515   3.501   4.206   1.021
88228SOL     OW66516   8.734   6.224   1.063
88228SOL    HW166517   8.663   6.288   1.069
88228SOL    HW266518   8.813   6.278   1.054
88229SOL     OW66519   1.289   7.175   3.542
88229SOL    HW166520   1.355   7.111   3.515
88229SOL    HW266521   1.213   7.155   3.487
88230SOL     OW66522   7.596  13.128  13.315
88230SOL    HW166523   7.573  13.219  13.297
88230SOL    HW266524   7.511  13.083  13.322
88231SOL     OW66525  14.274  13.417   8.270
88231SOL    HW166526  14.310  13.453   8.189
88231SOL    HW266527  14.314  13.330   8.277
88232SOL     OW66528  10.516   7.169   2.570
88232SOL    HW166529  10.433   7.198   2.533
88232SOL    HW266530  10.558   7.250   2.600
88233SOL     OW66531  12.964   5.466  10.542
88233SOL    HW166532  12.883   5.473  10.491
88233SOL    HW266533  12.945   5.400  10.608
88234SOL     OW66534   6.065   1.731   4.083
88234SOL    HW166535   6.010   1.773   4.017
88234SOL    HW266536   6.152   1.767   4.069
88235SOL     OW66537   1.731   2.951  14.816
88235SOL    HW166538   1.722   2.941   0.032
88235SOL    HW266539   1.810   3.004  14.805
88236SOL     OW66540   5.459  13.504  13.552
88236SOL    HW166541   5.409  13.426  13.575
88236SOL    HW266542   5.407  13.577  13.586
88237SOL     OW66543   9.321  12.928   8.410
88237SOL    HW166544   9.413  12.909   8.426
88237SOL    HW266545   9.293  12.859   8.349
88238SOL     OW66546   3.684   7.722  12.101
88238SOL    HW166547   3.754   7.685  12.047
88238SOL    HW266548   3.608   7.725  12.043
88239SOL     OW66549  10.494   6.921  14.247
88239SOL    HW166550  10.497   7.016  14.246
88239SOL    HW266551  10.488   6.896  14.155
88240SOL     OW66552   7.321  11.334  13.944
88240SOL    HW166553   7.231  11.366  13.938
88240SOL    HW266554   7.368  11.401  13.994
88241SOL     OW66555   8.350   0.375   2.345
88241SOL    HW166556   8.319   0.321   2.417
88241SOL    HW266557   8.383   0.312   2.280
88242SOL     OW66558   6.663  10.098  12.395
88242SOL    HW166559   6.603  10.151  12.342
88242SOL    HW266560   6.739  10.154  12.408
88243SOL     OW66561   1.887  13.612   0.275
88243SOL    HW166562   1.874  13.526   0.316
88243SOL    HW266563   1.981  13.618   0.261
88244SOL     OW66564   4.320   7.521   3.904
88244SOL    HW166565   4.399   7.545   3.857
88244SOL    HW266566   4.250   7.570   3.861
88245SOL     OW66567  10.567   3.383   2.557
88245SOL    HW166568  10.595   3.296   2.587
88245SOL    HW266569  10.473   3.373   2.543
88246SOL     OW66570   3.646   4.496   3.201
88246SOL    HW166571   3.717   4.450   3.155
88246SOL    HW266572   3.566   4.465   3.159
88247SOL     OW66573  13.884   7.151   3.932
88247SOL    HW166574  13.840   7.092   3.993
88247SOL    HW266575  13.840   7.136   3.849
88248SOL     OW66576   1.471   9.952  10.902
88248SOL    HW166577   1.562   9.945  10.930
88248SOL    HW266578   1.473   9.944  10.807
88249SOL     OW66579  11.627   6.909   0.901
88249SOL    HW166580  11.712   6.952   0.907
88249SOL    HW266581  11.601   6.919   0.810
88250SOL     OW66582   6.726   7.974   4.576
88250SOL    HW166583   6.684   8.023   4.647
88250SOL    HW266584   6.749   7.890   4.615
88251SOL     OW66585   6.266  12.565  11.753
88251SOL    HW166586   6.266  12.566  11.849
88251SOL    HW266587   6.315  12.487  11.729
88252SOL     OW66588  12.319  12.750  12.919
88252SOL    HW166589  12.300  12.793  13.003
88252SOL    HW266590  12.257  12.789  12.857
88253SOL     OW66591   2.804   3.671  14.743
88253SOL    HW166592   2.773   3.717  14.665
88253SOL    HW266593   2.860   3.601  14.708
88254SOL     OW66594   1.908  11.735  13.036
88254SOL    HW166595   1.841  11.802  13.029
88254SOL    HW266596   1.954  11.756  13.118
88255SOL     OW66597   4.630  12.050  13.236
88255SOL    HW166598   4.543  12.090  13.225
88255SOL    HW266599   4.687  12.102  13.180
88256SOL     OW66600  10.595  10.624   8.607
88256SOL    HW166601  10.605  10.570   8.528
88256SOL    HW266602  10.504  10.652   8.606
88257SOL     OW66603   7.022   6.290   1.560
88257SOL    HW166604   7.082   6.298   1.485
88257SOL    HW266605   6.946   6.243   1.525
88258SOL     OW66606  10.782   4.494  14.613
88258SOL    HW166607  10.839   4.487  14.537
88258SOL    HW266608  10.825   4.441  14.680
88259SOL     OW66609  14.851   9.995   5.247
88259SOL    HW166610  14.757  10.014   5.254
88259SOL    HW266611   0.015  10.075   5.278
88260SOL     OW66612  11.338   6.050   7.389
88260SOL    HW166613  11.300   6.051   7.477
88260SOL    HW266614  11.406   5.983   7.393
88261SOL     OW66615   9.526   3.332  14.274
88261SOL    HW166616   9.605   3.329  14.329
88261SOL    HW266617   9.538   3.261  14.211
88262SOL     OW66618   3.623   2.958  10.159
88262SOL    HW166619   3.678   2.906  10.100
88262SOL    HW266620   3.681   3.029  10.188
88263SOL     OW66621   9.039  11.749  11.271
88263SOL    HW166622   9.120  11.800  11.279
88263SOL    HW266623   9.025  11.712  11.358
88264SOL     OW66624   5.426   1.106   7.274
88264SOL    HW166625   5.472   1.104   7.358
88264SOL    HW266626   5.485   1.061   7.214
88265SOL     OW66627  14.102   4.757  10.508
88265SOL    HW166628  14.016   4.765  10.466
88265SOL    HW266629  14.090   4.792  10.596
88266SOL     OW66630   2.630  10.458   5.127
88266SOL    HW166631   2.558  10.396   5.124
88266SOL    HW266632   2.667  10.457   5.038
88267SOL     OW66633  11.122  11.723   1.456
88267SOL    HW166634  11.051  11.787   1.446
88267SOL    HW266635  11.144  11.698   1.366
88268SOL     OW66636  13.213   7.718   6.117
88268SOL    HW166637  13.177   7.675   6.194
88268SOL    HW266638  13.137   7.749   6.068
88269SOL     OW66639  10.124   9.070   7.763
88269SOL    HW166640  10.048   9.115   7.800
88269SOL    HW266641  10.185   9.140   7.739
88270SOL     OW66642  10.416   8.990   9.984
88270SOL    HW166643  10.331   8.981  10.027
88270SOL    HW266644  10.447   9.077  10.009
88271SOL     OW66645  12.954  14.169   6.514
88271SOL    HW166646  12.958  14.229   6.588
88271SOL    HW266647  13.022  14.103   6.533
88272SOL     OW66648   7.857  11.302  14.529
88272SOL    HW166649   7.773  11.274  14.565
88272SOL    HW266650   7.902  11.220  14.507
88273SOL     OW66651  12.432   1.133  14.643
88273SOL    HW166652  12.356   1.158  14.696
88273SOL    HW266653  12.411   1.045  14.610
88274SOL     OW66654  12.157   6.532   7.984
88274SOL    HW166655  12.076   6.482   7.981
88274SOL    HW266656  12.134   6.619   7.952
88275SOL     OW66657   3.284   4.304   9.869
88275SOL    HW166658   3.320   4.228   9.822
88275SOL    HW266659   3.222   4.265   9.931
88276SOL     OW66660   9.603   4.351  12.096
88276SOL    HW166661   9.550   4.279  12.129
88276SOL    HW266662   9.693   4.327  12.118
88277SOL     OW66663   8.974   5.136   6.887
88277SOL    HW166664   9.001   5.174   6.803
88277SOL    HW266665   8.885   5.169   6.900
88278SOL     OW66666   0.344   1.455   4.130
88278SOL    HW166667   0.331   1.407   4.048
88278SOL    HW266668   0.425   1.419   4.166
88279SOL     OW66669   5.936   2.992   7.666
88279SOL    HW166670   5.881   3.034   7.600
88279SOL    HW266671   6.020   2.979   7.622
88280SOL     OW66672   5.307   5.874   9.627
88280SOL    HW166673   5.359   5.905   9.553
88280SOL    HW266674   5.254   5.949   9.653
88281SOL     OW66675  13.807   3.694   1.482
88281SOL    HW166676  13.856   3.679   1.563
88281SOL    HW266677  13.783   3.787   1.485
88282SOL     OW66678  11.493  10.297   0.158
88282SOL    HW166679  11.453  10.250   0.085
88282SOL    HW266680  11.587  10.289   0.144
88283SOL     OW66681   6.883   9.617  12.592
88283SOL    HW166682   6.805   9.665  12.619
88283SOL    HW266683   6.852   9.556  12.525
88284SOL     OW66684   9.078   4.122   2.847
88284SOL    HW166685   9.010   4.088   2.788
88284SOL    HW266686   9.156   4.128   2.793
88285SOL     OW66687  13.953   4.277  11.149
88285SOL    HW166688  13.971   4.210  11.083
88285SOL    HW266689  13.887   4.333  11.109
88286SOL     OW66690  14.709   4.140   8.731
88286SOL    HW166691  14.756   4.145   8.815
88286SOL    HW266692  14.647   4.068   8.742
88287SOL     OW66693   1.798   2.744   6.584
88287SOL    HW166694   1.823   2.810   6.519
88287SOL    HW266695   1.847   2.666   6.559
88288SOL     OW66696   1.626   6.661   4.646
88288SOL    HW166697   1.559   6.593   4.649
88288SOL    HW266698   1.666   6.652   4.559
88289SOL     OW66699  10.475  14.104   9.744
88289SOL    HW166700  10.441  14.162   9.677
88289SOL    HW266701  10.449  14.016   9.716
88290SOL     OW66702  14.366   7.359   9.243
88290SOL    HW166703  14.402   7.338   9.157
88290SOL    HW266704  14.275   7.380   9.226
88291SOL     OW66705   0.604   8.821   4.772
88291SOL    HW166706   0.630   8.819   4.864
88291SOL    HW266707   0.512   8.795   4.772
88292SOL     OW66708   0.325   0.478   6.370
88292SOL    HW166709   0.343   0.394   6.327
88292SOL    HW266710   0.385   0.479   6.445
88293SOL     OW66711  10.141   6.534  11.330
88293SOL    HW166712  10.199   6.525  11.255
88293SOL    HW266713  10.132   6.629  11.341
88294SOL     OW66714   5.085   9.220   4.274
88294SOL    HW166715   5.019   9.199   4.339
88294SOL    HW266716   5.071   9.156   4.204
88295SOL     OW66717   2.260   4.672  12.920
88295SOL    HW166718   2.344   4.717  12.929
88295SOL    HW266719   2.274   4.585  12.957
88296SOL     OW66720  13.917   9.656   5.045
88296SOL    HW166721  13.876   9.666   4.959
88296SOL    HW266722  14.007   9.682   5.032
88297SOL     OW66723   0.647   4.598   2.808
88297SOL    HW166724   0.699   4.611   2.728
88297SOL    HW266725   0.645   4.504   2.820
88298SOL     OW66726   7.309  12.677   9.022
88298SOL    HW166727   7.243  12.612   8.998
88298SOL    HW266728   7.329  12.722   8.940
88299SOL     OW66729   1.969   0.926   4.154
88299SOL    HW166730   1.996   1.018   4.156
88299SOL    HW266731   1.932   0.914   4.066
88300SOL     OW66732   6.296  10.196   2.279
88300SOL    HW166733   6.352  10.225   2.350
88300SOL    HW266734   6.312  10.260   2.209
88301SOL     OW66735   1.822   6.607   9.926
88301SOL    HW166736   1.816   6.514   9.907
88301SOL    HW266737   1.906   6.618   9.971
88302SOL     OW66738   0.473   2.665   1.394
88302SOL    HW166739   0.449   2.715   1.472
88302SOL    HW266740   0.390   2.647   1.350
88303SOL     OW66741   0.186  12.468   9.157
88303SOL    HW166742   0.153  12.527   9.089
88303SOL    HW266743   0.135  12.491   9.235
88304SOL     OW66744  11.055   7.550   9.245
88304SOL    HW166745  11.035   7.634   9.287
88304SOL    HW266746  11.054   7.487   9.317
88305SOL     OW66747   7.257  11.054   9.558
88305SOL    HW166748   7.279  11.027   9.647
88305SOL    HW266749   7.295  11.142   9.550
88306SOL     OW66750  11.497   3.525   6.784
88306SOL    HW166751  11.579   3.574   6.788
88306SOL    HW266752  11.447   3.568   6.714
88307SOL     OW66753  12.682   3.020  14.385
88307SOL    HW166754  12.591   3.019  14.415
88307SOL    HW266755  12.684   2.959  14.311
88308SOL     OW66756  11.170  14.834   0.862
88308SOL    HW166757  11.196   0.016   0.793
88308SOL    HW266758  11.231  14.851   0.933
88309SOL     OW66759   2.646  13.920   7.075
88309SOL    HW166760   2.721  13.918   7.017
88309SOL    HW266761   2.614  13.829   7.076
88310SOL     OW66762  14.442  10.297   9.764
88310SOL    HW166763  14.431  10.265   9.854
88310SOL    HW266764  14.399  10.231   9.710
88311SOL     OW66765   3.673   5.251   7.117
88311SOL    HW166766   3.643   5.296   7.196
88311SOL    HW266767   3.660   5.158   7.136
88312SOL     OW66768   3.046   4.555   6.417
88312SOL    HW166769   2.958   4.519   6.430
88312SOL    HW266770   3.032   4.648   6.400
88313SOL     OW66771   0.478  14.760   1.991
88313SOL    HW166772   0.489  14.793   1.902
88313SOL    HW266773   0.396  14.712   1.989
88314SOL     OW66774   2.443   0.971  10.084
88314SOL    HW166775   2.371   1.033  10.092
88314SOL    HW266776   2.471   0.980   9.992
88315SOL     OW66777  12.858   7.679   3.883
88315SOL    HW166778  12.764   7.671   3.901
88315SOL    HW266779  12.891   7.734   3.953
88316SOL     OW66780   9.271   3.758   2.379
88316SOL    HW166781   9.224   3.675   2.376
88316SOL    HW266782   9.207   3.820   2.415
88317SOL     OW66783   4.050   6.915  11.486
88317SOL    HW166784   4.099   6.857  11.427
88317SOL    HW266785   4.065   6.879  11.573
88318SOL     OW66786  13.021   0.101  10.232
88318SOL    HW166787  12.985   0.092  10.320
88318SOL    HW266788  12.944   0.118  10.177
88319SOL     OW66789   3.347   8.317   1.080
88319SOL    HW166790   3.354   8.351   0.991
88319SOL    HW266791   3.308   8.390   1.129
88320SOL     OW66792   0.620   1.131   0.450
88320SOL    HW166793   0.613   1.224   0.428
88320SOL    HW266794   0.712   1.110   0.439
88321SOL     OW66795  12.802   5.829   4.248
88321SOL    HW166796  12.718   5.828   4.294
88321SOL    HW266797  12.800   5.750   4.193
88322SOL     OW66798  10.788   7.759   0.785
88322SOL    HW166799  10.809   7.807   0.705
88322SOL    HW266800  10.812   7.818   0.856
88323SOL     OW66801   4.260   9.752  13.854
88323SOL    HW166802   4.299   9.839  13.843
88323SOL    HW266803   4.299   9.699  13.784
88324SOL     OW66804  11.565   7.076   9.626
88324SOL    HW166805  11.636   7.032   9.579
88324SOL    HW266806  11.491   7.015   9.620
88325SOL     OW66807   1.249   8.982  11.062
88325SOL    HW166808   1.288   9.070  11.070
88325SOL    HW266809   1.181   8.992  10.995
88326SOL     OW66810   7.629   4.463   5.798
88326SOL    HW166811   7.708   4.449   5.851
88326SOL    HW266812   7.650   4.538   5.742
88327SOL     OW66813   2.249   9.159   1.529
88327SOL    HW166814   2.213   9.070   1.523
88327SOL    HW266815   2.242   9.193   1.440
88328SOL     OW66816   8.988   3.286   2.680
88328SOL    HW166817   8.946   3.290   2.766
88328SOL    HW266818   8.916   3.285   2.618
88329SOL     OW66819  12.534   9.503   3.418
88329SOL    HW166820  12.606   9.496   3.355
88329SOL    HW266821  12.486   9.581   3.391
88330SOL     OW66822  10.236   7.037  11.857
88330SOL    HW166823  10.277   7.080  11.783
88330SOL    HW266824  10.151   7.008  11.823
88331SOL     OW66825   0.201  10.867   5.526
88331SOL    HW166826   0.193  10.902   5.614
88331SOL    HW266827   0.283  10.903   5.493
88332SOL     OW66828   0.897   5.499   1.621
88332SOL    HW166829   0.863   5.451   1.697
88332SOL    HW266830   0.967   5.444   1.588
88333SOL     OW66831   1.815   3.398   5.121
88333SOL    HW166832   1.889   3.436   5.073
88333SOL    HW266833   1.763   3.473   5.149
88334SOL     OW66834  14.165  10.974   9.218
88334SOL    HW166835  14.260  10.962   9.227
88334SOL    HW266836  14.148  10.952   9.126
88335SOL     OW66837  13.194  11.774   2.787
88335SOL    HW166838  13.106  11.809   2.797
88335SOL    HW266839  13.182  11.679   2.784
88336SOL     OW66840   1.049   0.915   1.303
88336SOL    HW166841   1.003   0.899   1.385
88336SOL    HW266842   1.133   0.871   1.314
88337SOL     OW66843   5.254   3.505   0.629
88337SOL    HW166844   5.286   3.595   0.633
88337SOL    HW266845   5.159   3.514   0.618
88338SOL     OW66846  11.544   3.536  11.105
88338SOL    HW166847  11.555   3.446  11.072
88338SOL    HW266848  11.525   3.588  11.026
88339SOL     OW66849   1.797   3.896  11.735
88339SOL    HW166850   1.844   3.822  11.698
88339SOL    HW266851   1.866   3.956  11.763
88340SOL     OW66852  10.331  11.882   8.744
88340SOL    HW166853  10.242  11.849   8.756
88340SOL    HW266854  10.378  11.854   8.822
88341SOL     OW66855   3.462   2.668  10.133
88341SOL    HW166856   3.408   2.598  10.169
88341SOL    HW266857   3.514   2.699  10.207
88342SOL     OW66858  14.301   8.381   9.623
88342SOL    HW166859  14.246   8.355   9.549
88342SOL    HW266860  14.300   8.305   9.681
88343SOL     OW66861   4.627   5.038  14.582
88343SOL    HW166862   4.699   5.027  14.645
88343SOL    HW266863   4.656   4.989  14.505
88344SOL     OW66864  14.393   5.238   0.561
88344SOL    HW166865  14.479   5.249   0.521
88344SOL    HW266866  14.388   5.307   0.627
88345SOL     OW66867   9.372   0.607  10.073
88345SOL    HW166868   9.331   0.521  10.068
88345SOL    HW266869   9.301   0.666  10.101
88346SOL     OW66870   1.030  12.175   4.449
88346SOL    HW166871   1.027  12.127   4.366
88346SOL    HW266872   1.064  12.111   4.512
88347SOL     OW66873   9.217   6.715   4.309
88347SOL    HW166874   9.223   6.752   4.221
88347SOL    HW266875   9.252   6.782   4.367
88348SOL     OW66876   1.206  11.715   1.144
88348SOL    HW166877   1.259  11.794   1.145
88348SOL    HW266878   1.210  11.684   1.054
88349SOL     OW66879  11.614  11.842   7.558
88349SOL    HW166880  11.649  11.773   7.614
88349SOL    HW266881  11.594  11.799   7.475
88350SOL     OW66882   4.229  10.153  13.958
88350SOL    HW166883   4.212  10.111  14.043
88350SOL    HW266884   4.142  10.178  13.926
88351SOL     OW66885   3.766   0.368   5.037
88351SOL    HW166886   3.708   0.352   4.962
88351SOL    HW266887   3.854   0.372   4.998
88352SOL     OW66888   3.914   1.606   0.731
88352SOL    HW166889   3.997   1.650   0.713
88352SOL    HW266890   3.888   1.637   0.817
88353SOL     OW66891  14.555   1.652   8.314
88353SOL    HW166892  14.471   1.607   8.327
88353SOL    HW266893  14.544   1.698   8.230
88354SOL     OW66894   3.866   6.128   3.396
88354SOL    HW166895   3.957   6.104   3.378
88354SOL    HW266896   3.863   6.135   3.492
88355SOL     OW66897   6.481   9.714  13.259
88355SOL    HW166898   6.434   9.662  13.324
88355SOL    HW266899   6.572   9.688  13.268
88356SOL     OW66900  12.538   0.625   9.947
88356SOL    HW166901  12.609   0.582   9.995
88356SOL    HW266902  12.581   0.666   9.871
88357SOL     OW66903   6.956   3.858   0.468
88357SOL    HW166904   6.920   3.801   0.400
88357SOL    HW266905   6.968   3.943   0.426
88358SOL     OW66906   7.894   3.312   2.145
88358SOL    HW166907   7.955   3.238   2.155
88358SOL    HW266908   7.940   3.386   2.183
88359SOL     OW66909   0.115   2.347   3.223
88359SOL    HW166910   0.086   2.340   3.132
88359SOL    HW266911   0.186   2.283   3.230
88360SOL     OW66912   9.507   9.945  14.817
88360SOL    HW166913   9.513   9.866  14.872
88360SOL    HW266914   9.497  10.017   0.001
88361SOL     OW66915   9.631   5.204   0.729
88361SOL    HW166916   9.627   5.236   0.639
88361SOL    HW266917   9.620   5.282   0.783
88362SOL     OW66918   4.821   1.101  11.135
88362SOL    HW166919   4.870   1.165  11.186
88362SOL    HW266920   4.731   1.108  11.166
88363SOL     OW66921   6.598   4.977   7.385
88363SOL    HW166922   6.517   4.957   7.433
88363SOL    HW266923   6.648   5.033   7.445
88364SOL     OW66924   1.305   0.862  10.882
88364SOL    HW166925   1.250   0.878  10.805
88364SOL    HW266926   1.316   0.949  10.922
88365SOL     OW66927   7.785   9.926   9.909
88365SOL    HW166928   7.813  10.016   9.899
88365SOL    HW266929   7.806   9.884   9.826
88366SOL     OW66930   7.813   5.067   0.617
88366SOL    HW166931   7.735   5.015   0.599
88366SOL    HW266932   7.795   5.107   0.703
88367SOL     OW66933   7.252   2.356   3.339
88367SOL    HW166934   7.275   2.371   3.431
88367SOL    HW266935   7.199   2.276   3.341
88368SOL     OW66936  13.349   5.357  12.343
88368SOL    HW166937  13.289   5.422  12.305
88368SOL    HW266938  13.293   5.281  12.361
88369SOL     OW66939  11.105  12.249   1.497
88369SOL    HW166940  11.087  12.296   1.578
88369SOL    HW266941  11.028  12.263   1.442
88370SOL     OW66942   7.056  11.179  11.414
88370SOL    HW166943   7.083  11.243  11.480
88370SOL    HW266944   6.995  11.121  11.460
88371SOL     OW66945   7.008  13.590   1.527
88371SOL    HW166946   7.009  13.681   1.499
88371SOL    HW266947   7.101  13.565   1.531
88372SOL     OW66948  13.248   4.728   2.409
88372SOL    HW166949  13.223   4.796   2.472
88372SOL    HW266950  13.167   4.680   2.392
88373SOL     OW66951   9.428  10.083  10.243
88373SOL    HW166952   9.393  10.061  10.329
88373SOL    HW266953   9.352  10.087  10.186
88374SOL     OW66954   8.318   0.077  14.247
88374SOL    HW166955   8.343   0.122  14.327
88374SOL    HW266956   8.393   0.090  14.188
88375SOL     OW66957  12.547  12.000  13.717
88375SOL    HW166958  12.634  12.025  13.748
88375SOL    HW266959  12.521  11.928  13.776
88376SOL     OW66960  10.678   7.829   3.984
88376SOL    HW166961  10.603   7.878   4.017
88376SOL    HW266962  10.741   7.829   4.056
88377SOL     OW66963  13.859   9.350   2.170
88377SOL    HW166964  13.927   9.361   2.104
88377SOL    HW266965  13.839   9.256   2.169
88378SOL     OW66966  12.105   2.895   4.501
88378SOL    HW166967  12.093   2.853   4.586
88378SOL    HW266968  12.187   2.943   4.509
88379SOL     OW66969   9.317   7.653  14.779
88379SOL    HW166970   9.351   7.681  14.864
88379SOL    HW266971   9.363   7.708  14.716
88380SOL     OW66972  13.203   4.374   2.507
88380SOL    HW166973  13.204   4.438   2.578
88380SOL    HW266974  13.139   4.409   2.445
88381SOL     OW66975  12.901  13.842   8.194
88381SOL    HW166976  12.808  13.861   8.209
88381SOL    HW266977  12.924  13.779   8.263
88382SOL     OW66978   2.196   1.148   4.419
88382SOL    HW166979   2.275   1.199   4.435
88382SOL    HW266980   2.160   1.186   4.338
88383SOL     OW66981  12.798   3.468   0.817
88383SOL    HW166982  12.777   3.442   0.727
88383SOL    HW266983  12.842   3.553   0.807
88384SOL     OW66984   1.434  11.653   5.117
88384SOL    HW166985   1.465  11.702   5.193
88384SOL    HW266986   1.381  11.715   5.067
88385SOL     OW66987   6.831   0.792   6.521
88385SOL    HW166988   6.815   0.820   6.611
88385SOL    HW266989   6.830   0.872   6.470
88386SOL     OW66990   4.255  10.547  11.729
88386SOL    HW166991   4.187  10.514  11.789
88386SOL    HW266992   4.285  10.470  11.682
88387SOL     OW66993   6.150   0.101  14.577
88387SOL    HW166994   6.105   0.158  14.639
88387SOL    HW266995   6.092   0.026  14.566
88388SOL     OW66996   5.121   3.373   4.767
88388SOL    HW166997   5.189   3.436   4.789
88388SOL    HW266998   5.125   3.307   4.837
88389SOL     OW66999   3.582   2.104   2.569
88389SOL    HW167000   3.544   2.041   2.631
88389SOL    HW267001   3.615   2.175   2.625
88390SOL     OW67002   3.848   3.059  14.229
88390SOL    HW167003   3.822   3.051  14.321
88390SOL    HW267004   3.790   3.127  14.193
88391SOL     OW67005   1.579  12.928   2.574
88391SOL    HW167006   1.550  12.978   2.650
88391SOL    HW267007   1.636  12.859   2.610
88392SOL     OW67008   2.833   8.032   1.713
88392SOL    HW167009   2.766   7.976   1.750
88392SOL    HW267010   2.828   8.113   1.764
88393SOL     OW67011   6.315   0.369   0.070
88393SOL    HW167012   6.344   0.278   0.068
88393SOL    HW267013   6.224   0.366   0.040
88394SOL     OW67014   6.385   4.980   3.338
88394SOL    HW167015   6.293   4.997   3.319
88394SOL    HW267016   6.385   4.937   3.423
88395SOL     OW67017   9.559   5.236   9.138
88395SOL    HW167018   9.596   5.237   9.050
88395SOL    HW267019   9.497   5.310   9.138
88396SOL     OW67020  10.251  10.895   1.589
88396SOL    HW167021  10.273  10.935   1.673
88396SOL    HW267022  10.186  10.953   1.551
88397SOL     OW67023  11.713   1.630   0.740
88397SOL    HW167024  11.704   1.580   0.658
88397SOL    HW267025  11.806   1.646   0.748
88398SOL     OW67026   6.163   0.421   9.705
88398SOL    HW167027   6.075   0.384   9.696
88398SOL    HW267028   6.201   0.374   9.779
88399SOL     OW67029  13.389   3.731   3.582
88399SOL    HW167030  13.395   3.678   3.502
88399SOL    HW267031  13.313   3.696   3.628
88400SOL     OW67032   1.071   6.963   0.833
88400SOL    HW167033   1.035   6.933   0.917
88400SOL    HW267034   1.046   6.895   0.771
88401SOL     OW67035  13.469  10.347   7.440
88401SOL    HW167036  13.456  10.354   7.534
88401SOL    HW267037  13.381  10.336   7.403
88402SOL     OW67038   5.232  11.340   1.328
88402SOL    HW167039   5.284  11.399   1.273
88402SOL    HW267040   5.288  11.263   1.341
88403SOL     OW67041   6.473  12.587   2.018
88403SOL    HW167042   6.456  12.590   2.112
88403SOL    HW267043   6.387  12.591   1.978
88404SOL     OW67044  10.066   0.464   0.441
88404SOL    HW167045  10.115   0.547   0.440
88404SOL    HW267046   9.976   0.490   0.460
88405SOL     OW67047   6.034   0.650  11.394
88405SOL    HW167048   6.005   0.741  11.380
88405SOL    HW267049   6.121   0.659  11.432
88406SOL     OW67050   0.111  11.350   3.380
88406SOL    HW167051   0.136  11.402   3.457
88406SOL    HW267052   0.054  11.282   3.415
88407SOL     OW67053   4.708  10.863   5.552
88407SOL    HW167054   4.635  10.870   5.490
88407SOL    HW267055   4.748  10.779   5.533
88408SOL     OW67056   3.724   3.661   0.833
88408SOL    HW167057   3.770   3.739   0.800
88408SOL    HW267058   3.727   3.599   0.760
88409SOL     OW67059  12.114   0.886   2.078
88409SOL    HW167060  12.179   0.840   2.130
88409SOL    HW267061  12.106   0.835   1.997
88410SOL     OW67062  12.810   7.261  10.776
88410SOL    HW167063  12.860   7.208  10.714
88410SOL    HW267064  12.875   7.301  10.832
88411SOL     OW67065  14.703   6.728   4.102
88411SOL    HW167066  14.789   6.689   4.117
88411SOL    HW267067  14.713   6.820   4.126
88412SOL     OW67068   5.272   4.610  12.519
88412SOL    HW167069   5.264   4.706  12.517
88412SOL    HW267070   5.219   4.580  12.444
88413SOL     OW67071   9.612  14.638   6.365
88413SOL    HW167072   9.573  14.640   6.277
88413SOL    HW267073   9.552  14.690   6.419
88414SOL     OW67074  14.347   0.291   7.094
88414SOL    HW167075  14.302   0.274   7.177
88414SOL    HW267076  14.282   0.336   7.040
88415SOL     OW67077   2.038   9.320   0.762
88415SOL    HW167078   1.975   9.251   0.785
88415SOL    HW267079   1.995   9.368   0.691
88416SOL     OW67080   4.062  13.147  10.679
88416SOL    HW167081   4.051  13.164  10.773
88416SOL    HW267082   4.036  13.229  10.637
88417SOL     OW67083   4.271   8.927   7.054
88417SOL    HW167084   4.187   8.881   7.058
88417SOL    HW267085   4.328   8.868   7.004
88418SOL     OW67086  12.932  14.155   8.856
88418SOL    HW167087  12.885  14.095   8.915
88418SOL    HW267088  12.922  14.116   8.769
88419SOL     OW67089  13.058   4.574   9.838
88419SOL    HW167090  13.146   4.592   9.804
88419SOL    HW267091  13.074   4.518   9.915
88420SOL     OW67092   8.881   0.732   6.267
88420SOL    HW167093   8.955   0.767   6.318
88420SOL    HW267094   8.891   0.772   6.181
88421SOL     OW67095  13.458  11.480  12.439
88421SOL    HW167096  13.460  11.395  12.482
88421SOL    HW267097  13.483  11.462  12.348
88422SOL     OW67098  12.507   1.599   3.915
88422SOL    HW167099  12.460   1.519   3.940
88422SOL    HW267100  12.466   1.627   3.833
88423SOL     OW67101   7.045   3.770  10.171
88423SOL    HW167102   7.004   3.817  10.243
88423SOL    HW267103   7.068   3.839  10.108
88424SOL     OW67104  14.194   9.275  10.088
88424SOL    HW167105  14.126   9.208  10.085
88424SOL    HW267106  14.246   9.260  10.009
88425SOL     OW67107   9.682  11.962  10.036
88425SOL    HW167108   9.769  12.001  10.024
88425SOL    HW267109   9.649  12.004  10.116
88426SOL     OW67110   1.231  10.041   4.135
88426SOL    HW167111   1.299   9.992   4.182
88426SOL    HW267112   1.269  10.128   4.123
88427SOL     OW67113   7.452  11.061   2.312
88427SOL    HW167114   7.442  11.127   2.244
88427SOL    HW267115   7.364  11.027   2.326
88428SOL     OW67116   8.909   8.013  14.704
88428SOL    HW167117   8.967   8.007  14.629
88428SOL    HW267118   8.913   8.105  14.730
88429SOL     OW67119   9.076  11.991  13.075
88429SOL    HW167120   8.998  11.967  13.124
88429SOL    HW267121   9.047  12.060  13.015
88430SOL     OW67122   0.257   8.925   4.387
88430SOL    HW167123   0.291   8.836   4.379
88430SOL    HW267124   0.306   8.964   4.459
88431SOL     OW67125   5.583   2.001   3.640
88431SOL    HW167126   5.611   2.088   3.614
88431SOL    HW267127   5.503   2.016   3.691
88432SOL     OW67128   8.207   4.275   2.450
88432SOL    HW167129   8.182   4.204   2.391
88432SOL    HW267130   8.299   4.258   2.471
88433SOL     OW67131   9.625   3.758   4.553
88433SOL    HW167132   9.689   3.689   4.534
88433SOL    HW267133   9.541   3.714   4.556
88434SOL     OW67134   2.855   4.683   5.273
88434SOL    HW167135   2.874   4.761   5.221
88434SOL    HW267136   2.762   4.690   5.294
88435SOL     OW67137   9.136  13.597   0.723
88435SOL    HW167138   9.063  13.547   0.688
88435SOL    HW267139   9.097  13.650   0.793
88436SOL     OW67140   4.393   5.141   5.246
88436SOL    HW167141   4.365   5.209   5.184
88436SOL    HW267142   4.317   5.128   5.303
88437SOL     OW67143   9.863   8.580   1.537
88437SOL    HW167144   9.946   8.586   1.490
88437SOL    HW267145   9.887   8.589   1.629
88438SOL     OW67146   4.576   1.780   5.538
88438SOL    HW167147   4.604   1.689   5.552
88438SOL    HW267148   4.563   1.787   5.444
88439SOL     OW67149   3.127   4.722  13.078
88439SOL    HW167150   3.085   4.803  13.108
88439SOL    HW267151   3.077   4.696  13.001
88440SOL     OW67152   7.756  10.866  13.932
88440SOL    HW167153   7.808  10.906  14.001
88440SOL    HW267154   7.729  10.939  13.876
88441SOL     OW67155  11.780  11.757   2.311
88441SOL    HW167156  11.763  11.763   2.217
88441SOL    HW267157  11.716  11.817   2.350
88442SOL     OW67158  13.489   9.217   3.561
88442SOL    HW167159  13.565   9.249   3.513
88442SOL    HW267160  13.522   9.143   3.611
88443SOL     OW67161   8.265  11.472  10.461
88443SOL    HW167162   8.201  11.447  10.394
88443SOL    HW267163   8.220  11.540  10.512
88444SOL     OW67164   1.014   8.939   4.191
88444SOL    HW167165   0.951   9.011   4.189
88444SOL    HW267166   1.021   8.911   4.099
88445SOL     OW67167  14.467  11.939   5.862
88445SOL    HW167168  14.385  11.983   5.885
88445SOL    HW267169  14.477  11.872   5.929
88446SOL     OW67170   1.786  14.317  12.128
88446SOL    HW167171   1.787  14.411  12.111
88446SOL    HW267172   1.765  14.309  12.221
88447SOL     OW67173   4.402   0.476   8.366
88447SOL    HW167174   4.371   0.565   8.349
88447SOL    HW267175   4.342   0.441   8.431
88448SOL     OW67176  14.879   9.705  11.826
88448SOL    HW167177  14.834   9.697  11.741
88448SOL    HW267178   0.058   9.781  11.815
88449SOL     OW67179   5.077   9.537  10.617
88449SOL    HW167180   5.145   9.570  10.559
88449SOL    HW267181   5.108   9.451  10.644
88450SOL     OW67182  11.262   0.258   9.686
88450SOL    HW167183  11.257   0.316   9.761
88450SOL    HW267184  11.199   0.189   9.704
88451SOL     OW67185   2.866   2.396   5.956
88451SOL    HW167186   2.910   2.425   6.037
88451SOL    HW267187   2.936   2.356   5.904
88452SOL     OW67188   8.831   7.470   4.910
88452SOL    HW167189   8.866   7.390   4.869
88452SOL    HW267190   8.832   7.535   4.840
88453SOL     OW67191   7.144  11.448   0.054
88453SOL    HW167192   7.052  11.424   0.058
88453SOL    HW267193   7.187  11.373   0.013
88454SOL     OW67194   4.815  13.669   3.768
88454SOL    HW167195   4.851  13.739   3.713
88454SOL    HW267196   4.775  13.608   3.706
88455SOL     OW67197   8.372   8.466   5.001
88455SOL    HW167198   8.371   8.384   5.049
88455SOL    HW267199   8.461   8.499   5.009
88456SOL     OW67200  12.342   4.436  14.117
88456SOL    HW167201  12.362   4.513  14.063
88456SOL    HW267202  12.280   4.385  14.065
88457SOL     OW67203   5.482   4.396  10.974
88457SOL    HW167204   5.405   4.433  10.930
88457SOL    HW267205   5.548   4.388  10.906
88458SOL     OW67206   1.408   6.075   7.463
88458SOL    HW167207   1.314   6.089   7.448
88458SOL    HW267208   1.412   6.001   7.524
88459SOL     OW67209  11.985   7.705  10.523
88459SOL    HW167210  12.035   7.766  10.578
88459SOL    HW267211  11.957   7.758  10.449
88460SOL     OW67212   4.665   2.384   4.986
88460SOL    HW167213   4.570   2.399   4.982
88460SOL    HW267214   4.694   2.398   4.896
88461SOL     OW67215  12.513   5.039   0.471
88461SOL    HW167216  12.477   5.049   0.559
88461SOL    HW267217  12.436   5.042   0.414
88462SOL     OW67218   7.080  11.082   5.555
88462SOL    HW167219   6.987  11.063   5.543
88462SOL    HW267220   7.117  11.001   5.590
88463SOL     OW67221   0.626   3.373  10.392
88463SOL    HW167222   0.642   3.468  10.390
88463SOL    HW267223   0.695   3.336  10.338
88464SOL     OW67224   2.539   6.462  14.459
88464SOL    HW167225   2.573   6.453  14.370
88464SOL    HW267226   2.590   6.533  14.498
88465SOL     OW67227   6.525   1.739  10.157
88465SOL    HW167228   6.557   1.829  10.156
88465SOL    HW267229   6.430   1.747  10.154
88466SOL     OW67230   6.174  14.133   5.598
88466SOL    HW167231   6.194  14.085   5.679
88466SOL    HW267232   6.088  14.172   5.614
88467SOL     OW67233   4.623   3.258   2.126
88467SOL    HW167234   4.683   3.207   2.072
88467SOL    HW267235   4.679   3.295   2.195
88468SOL     OW67236   7.043   6.807  11.997
88468SOL    HW167237   7.137   6.811  12.018
88468SOL    HW267238   7.027   6.885  11.944
88469SOL     OW67239  14.873   7.206  11.465
88469SOL    HW167240  14.817   7.224  11.389
88469SOL    HW267241   0.081   7.192  11.428
88470SOL     OW67242   3.813  11.371   3.905
88470SOL    HW167243   3.748  11.378   3.975
88470SOL    HW267244   3.893  11.406   3.942
88471SOL     OW67245   0.155  13.033   8.579
88471SOL    HW167246   0.094  13.050   8.651
88471SOL    HW267247   0.101  12.993   8.511
88472SOL     OW67248   0.812   3.698  14.179
88472SOL    HW167249   0.865   3.776  14.191
88472SOL    HW267250   0.751   3.698  14.253
88473SOL     OW67251   9.242  13.727   2.829
88473SOL    HW167252   9.288  13.644   2.837
88473SOL    HW267253   9.280  13.769   2.752
88474SOL     OW67254  13.021  11.989  11.051
88474SOL    HW167255  13.066  11.987  10.966
88474SOL    HW267256  13.068  11.926  11.105
88475SOL     OW67257   4.329  13.248   0.342
88475SOL    HW167258   4.390  13.237   0.416
88475SOL    HW267259   4.361  13.186   0.276
88476SOL     OW67260   9.174   7.498  10.577
88476SOL    HW167261   9.093   7.522  10.622
88476SOL    HW267262   9.243   7.529  10.635
88477SOL     OW67263   7.650   4.971   6.032
88477SOL    HW167264   7.631   4.992   6.124
88477SOL    HW267265   7.745   4.980   6.025
88478SOL     OW67266   5.202  12.334  10.327
88478SOL    HW167267   5.119  12.380  10.324
88478SOL    HW267268   5.184  12.256  10.379
88479SOL     OW67269   8.599   7.076   6.777
88479SOL    HW167270   8.518   7.094   6.728
88479SOL    HW267271   8.598   7.139   6.849
88480SOL     OW67272   9.609   7.068  11.097
88480SOL    HW167273   9.517   7.050  11.081
88480SOL    HW267274   9.650   6.981  11.100
88481SOL     OW67275   8.132  13.802   2.616
88481SOL    HW167276   8.154  13.835   2.529
88481SOL    HW267277   8.217  13.786   2.658
88482SOL     OW67278   6.668  13.518   8.890
88482SOL    HW167279   6.747  13.562   8.859
88482SOL    HW267280   6.598  13.581   8.877
88483SOL     OW67281   4.470   2.001   1.160
88483SOL    HW167282   4.509   2.050   1.088
88483SOL    HW267283   4.538   1.999   1.227
88484SOL     OW67284  11.018   2.399   4.729
88484SOL    HW167285  11.103   2.356   4.719
88484SOL    HW267286  10.983   2.365   4.812
88485SOL     OW67287  13.290  13.683   9.551
88485SOL    HW167288  13.330  13.596   9.549
88485SOL    HW267289  13.226  13.678   9.621
88486SOL     OW67290   5.680  11.893   4.890
88486SOL    HW167291   5.712  11.953   4.823
88486SOL    HW267292   5.592  11.868   4.861
88487SOL     OW67293   3.282   7.742  14.541
88487SOL    HW167294   3.241   7.655  14.541
88487SOL    HW267295   3.318   7.751  14.452
88488SOL     OW67296  10.499   5.671  12.539
88488SOL    HW167297  10.582   5.701  12.576
88488SOL    HW267298  10.503   5.576  12.544
88489SOL     OW67299   2.191   9.897   8.104
88489SOL    HW167300   2.218   9.968   8.046
88489SOL    HW267301   2.223   9.817   8.061
88490SOL     OW67302  10.226   7.646   4.809
88490SOL    HW167303  10.231   7.733   4.771
88490SOL    HW267304  10.167   7.656   4.884
88491SOL     OW67305   8.908  10.526   7.610
88491SOL    HW167306   8.970  10.492   7.675
88491SOL    HW267307   8.954  10.519   7.527
88492SOL     OW67308   8.825  14.724   9.237
88492SOL    HW167309   8.835  14.750   9.145
88492SOL    HW267310   8.914  14.709   9.268
88493SOL     OW67311  13.568   6.570   6.876
88493SOL    HW167312  13.591   6.662   6.863
88493SOL    HW267313  13.579   6.555   6.970
88494SOL     OW67314  13.000  10.131  11.745
88494SOL    HW167315  13.035  10.079  11.672
88494SOL    HW267316  12.905  10.121  11.738
88495SOL     OW67317   9.542   4.610  12.150
88495SOL    HW167318   9.533   4.542  12.084
88495SOL    HW267319   9.627   4.593  12.191
88496SOL     OW67320  12.598   6.191   2.101
88496SOL    HW167321  12.579   6.097   2.098
88496SOL    HW267322  12.523   6.231   2.055
88497SOL     OW67323   3.862   3.133  13.167
88497SOL    HW167324   3.852   3.044  13.202
88497SOL    HW267325   3.818   3.130  13.082
88498SOL     OW67326  11.805  10.148   9.318
88498SOL    HW167327  11.845  10.232   9.341
88498SOL    HW267328  11.824  10.137   9.225
88499SOL     OW67329   8.232  13.313   2.446
88499SOL    HW167330   8.253  13.392   2.495
88499SOL    HW267331   8.178  13.344   2.373
88500SOL     OW67332   7.712   8.488  14.724
88500SOL    HW167333   7.787   8.439  14.758
88500SOL    HW267334   7.748   8.546  14.658
88501SOL     OW67335  12.103   0.273   1.060
88501SOL    HW167336  12.128   0.254   1.150
88501SOL    HW267337  12.063   0.360   1.064
88502SOL     OW67338   5.059  14.405  12.354
88502SOL    HW167339   5.078  14.314  12.332
88502SOL    HW267340   4.983  14.401  12.412
88503SOL     OW67341  11.738  11.023  10.671
88503SOL    HW167342  11.697  10.943  10.638
88503SOL    HW267343  11.791  11.055  10.599
88504SOL     OW67344  12.039  14.202   5.878
88504SOL    HW167345  12.067  14.130   5.934
88504SOL    HW267346  11.944  14.199   5.881
88505SOL     OW67347   3.971   0.405   1.352
88505SOL    HW167348   3.902   0.384   1.289
88505SOL    HW267349   4.000   0.493   1.327
88506SOL     OW67350  11.621   5.810   1.659
88506SOL    HW167351  11.686   5.747   1.687
88506SOL    HW267352  11.537   5.764   1.666
88507SOL     OW67353   8.633  10.092  10.836
88507SOL    HW167354   8.698  10.052  10.894
88507SOL    HW267355   8.582  10.019  10.802
88508SOL     OW67356   0.386  14.108   5.828
88508SOL    HW167357   0.421  14.162   5.899
88508SOL    HW267358   0.376  14.169   5.755
88509SOL     OW67359   1.312  14.731   2.495
88509SOL    HW167360   1.403  14.715   2.519
88509SOL    HW267361   1.314  14.817   2.453
88510SOL     OW67362  10.596   1.916   9.058
88510SOL    HW167363  10.628   1.953   8.976
88510SOL    HW267364  10.601   1.821   9.045
88511SOL     OW67365   0.263  14.732   4.910
88511SOL    HW167366   0.297  14.643   4.917
88511SOL    HW267367   0.221  14.749   4.995
88512SOL     OW67368   4.628  13.980   4.247
88512SOL    HW167369   4.568  14.031   4.192
88512SOL    HW267370   4.612  13.889   4.222
88513SOL     OW67371   6.323  13.059   8.343
88513SOL    HW167372   6.235  13.077   8.310
88513SOL    HW267373   6.314  13.059   8.438
88514SOL     OW67374   4.878   1.415   7.621
88514SOL    HW167375   4.812   1.346   7.632
88514SOL    HW267376   4.878   1.433   7.527
88515SOL     OW67377  11.694   6.367  12.865
88515SOL    HW167378  11.626   6.317  12.819
88515SOL    HW267379  11.707   6.320  12.947
88516SOL     OW67380   5.437   8.154  11.949
88516SOL    HW167381   5.411   8.086  12.012
88516SOL    HW267382   5.387   8.133  11.870
88517SOL     OW67383   5.558   1.270   9.107
88517SOL    HW167384   5.534   1.362   9.105
88517SOL    HW267385   5.569   1.246   9.015
88518SOL     OW67386   3.080   4.629  10.303
88518SOL    HW167387   3.025   4.677  10.365
88518SOL    HW267388   3.058   4.666  10.217
88519SOL     OW67389   3.676   5.560   0.176
88519SOL    HW167390   3.712   5.505   0.245
88519SOL    HW267391   3.584   5.573   0.199
88520SOL     OW67392  14.020  11.057  14.550
88520SOL    HW167393  14.110  11.045  14.580
88520SOL    HW267394  14.020  11.029  14.459
88521SOL     OW67395   6.514   9.367  12.170
88521SOL    HW167396   6.568   9.445  12.184
88521SOL    HW267397   6.469   9.353  12.253
88522SOL     OW67398   0.731  10.946   5.307
88522SOL    HW167399   0.702  10.927   5.396
88522SOL    HW267400   0.693  11.032   5.288
88523SOL     OW67401  11.373  14.797  13.939
88523SOL    HW167402  11.347  14.826  13.851
88523SOL    HW267403  11.408  14.709  13.925
88524SOL     OW67404   5.705   0.683  10.176
88524SOL    HW167405   5.659   0.745  10.119
88524SOL    HW267406   5.789   0.725  10.193
88525SOL     OW67407  14.671  11.731  11.033
88525SOL    HW167408  14.707  11.716  10.946
88525SOL    HW267409  14.598  11.669  11.041
88526SOL     OW67410   9.432   3.459   7.559
88526SOL    HW167411   9.487   3.458   7.638
88526SOL    HW267412   9.352   3.414   7.585
88527SOL     OW67413   2.752   3.802   5.793
88527SOL    HW167414   2.660   3.781   5.812
88527SOL    HW267415   2.756   3.897   5.801
88528SOL     OW67416  12.104   4.099   6.903
88528SOL    HW167417  12.079   4.176   6.953
88528SOL    HW267418  12.191   4.076   6.936
88529SOL     OW67419   4.290  10.107  12.827
88529SOL    HW167420   4.308  10.045  12.898
88529SOL    HW267421   4.284  10.192  12.870
88530SOL     OW67422  10.170  10.351   9.842
88530SOL    HW167423  10.237  10.410   9.876
88530SOL    HW267424  10.149  10.386   9.756
88531SOL     OW67425   2.118   9.789   6.207
88531SOL    HW167426   2.093   9.739   6.284
88531SOL    HW267427   2.049   9.773   6.143
88532SOL     OW67428   1.341   3.320   5.573
88532SOL    HW167429   1.344   3.249   5.508
88532SOL    HW267430   1.431   3.328   5.604
88533SOL     OW67431  10.543   6.785   6.103
88533SOL    HW167432  10.452   6.765   6.083
88533SOL    HW267433  10.580   6.701   6.132
88534SOL     OW67434   4.474  10.999  12.557
88534SOL    HW167435   4.549  11.050  12.587
88534SOL    HW267436   4.409  11.008  12.627
88535SOL     OW67437   7.126   0.254  10.376
88535SOL    HW167438   7.100   0.211  10.294
88535SOL    HW267439   7.117   0.185  10.443
88536SOL     OW67440   0.761   3.389   7.639
88536SOL    HW167441   0.854   3.410   7.630
88536SOL    HW267442   0.755   3.296   7.620
88537SOL     OW67443   0.394   8.480   1.657
88537SOL    HW167444   0.415   8.392   1.688
88537SOL    HW267445   0.461   8.498   1.591
88538SOL     OW67446   4.100   8.289   3.522
88538SOL    HW167447   4.126   8.362   3.465
88538SOL    HW267448   4.069   8.331   3.602
88539SOL     OW67449   1.729   4.778   6.875
88539SOL    HW167450   1.656   4.792   6.934
88539SOL    HW267451   1.695   4.803   6.789
88540SOL     OW67452   9.108   5.289  10.121
88540SOL    HW167453   9.160   5.230  10.176
88540SOL    HW267454   9.154   5.372  10.124
88541SOL     OW67455  14.852  14.335  11.275
88541SOL    HW167456  14.767  14.333  11.233
88541SOL    HW267457  14.843  14.282  11.354
88542SOL     OW67458  11.438  13.508  11.459
88542SOL    HW167459  11.516  13.561  11.442
88542SOL    HW267460  11.366  13.570  11.453
88543SOL     OW67461   6.096   8.650  10.228
88543SOL    HW167462   6.005   8.679  10.236
88543SOL    HW267463   6.097   8.597  10.148
88544SOL     OW67464  10.635  11.870   2.209
88544SOL    HW167465  10.632  11.952   2.159
88544SOL    HW267466  10.630  11.897   2.300
88545SOL     OW67467   6.029   9.265  13.966
88545SOL    HW167468   6.004   9.356  13.985
88545SOL    HW267469   6.111   9.252  14.014
88546SOL     OW67470  13.363   2.736   2.548
88546SOL    HW167471  13.273   2.706   2.562
88546SOL    HW267472  13.409   2.658   2.517
88547SOL     OW67473  10.181   3.377  13.209
88547SOL    HW167474  10.271   3.390  13.182
88547SOL    HW267475  10.178   3.410  13.299
88548SOL     OW67476   0.665  10.840   6.330
88548SOL    HW167477   0.645  10.776   6.263
88548SOL    HW267478   0.702  10.914   6.283
88549SOL     OW67479   8.354  10.096   8.032
88549SOL    HW167480   8.286  10.120   7.969
88549SOL    HW267481   8.343  10.157   8.104
88550SOL     OW67482   4.904  11.754   3.410
88550SOL    HW167483   4.940  11.682   3.461
88550SOL    HW267484   4.810  11.752   3.429
88551SOL     OW67485  10.361   6.684   0.492
88551SOL    HW167486  10.289   6.621   0.484
88551SOL    HW267487  10.319   6.765   0.518
88552SOL     OW67488   4.696   9.087  14.113
88552SOL    HW167489   4.767   9.117  14.056
88552SOL    HW267490   4.730   9.099  14.202
88553SOL     OW67491  14.088   4.827   7.729
88553SOL    HW167492  14.171   4.874   7.731
88553SOL    HW267493  14.113   4.735   7.722
88554SOL     OW67494  13.529  12.009   2.691
88554SOL    HW167495  13.515  12.100   2.666
88554SOL    HW267496  13.479  11.998   2.772
88555SOL     OW67497   4.723   9.093  14.391
88555SOL    HW167498   4.639   9.063  14.426
88555SOL    HW267499   4.784   9.085  14.465
88556SOL     OW67500   5.921   2.533   5.922
88556SOL    HW167501   5.873   2.543   5.841
88556SOL    HW267502   6.011   2.515   5.895
88557SOL     OW67503   7.779  11.182   9.566
88557SOL    HW167504   7.788  11.176   9.471
88557SOL    HW267505   7.863  11.153   9.600
88558SOL     OW67506  10.513   2.332   0.365
88558SOL    HW167507  10.516   2.359   0.456
88558SOL    HW267508  10.424   2.353   0.336
88559SOL     OW67509  14.504   9.460   4.607
88559SOL    HW167510  14.560   9.471   4.531
88559SOL    HW267511  14.533   9.527   4.669
88560SOL     OW67512  12.752   4.282  10.825
88560SOL    HW167513  12.834   4.232  10.826
88560SOL    HW267514  12.775   4.363  10.779
88561SOL     OW67515  11.138   8.291   1.677
88561SOL    HW167516  11.162   8.224   1.741
88561SOL    HW267517  11.213   8.351   1.675
88562SOL     OW67518  11.591   5.264   9.048
88562SOL    HW167519  11.607   5.317   9.126
88562SOL    HW267520  11.669   5.210   9.039
88563SOL     OW67521   1.207  13.011   5.304
88563SOL    HW167522   1.214  13.069   5.228
88563SOL    HW267523   1.222  12.923   5.268
88564SOL     OW67524   7.385  10.721   9.229
88564SOL    HW167525   7.437  10.779   9.285
88564SOL    HW267526   7.363  10.646   9.285
88565SOL     OW67527   5.071   7.003  10.919
88565SOL    HW167528   5.068   6.983  11.013
88565SOL    HW267529   4.982   6.983  10.888
88566SOL     OW67530   4.421   8.398  14.123
88566SOL    HW167531   4.415   8.329  14.189
88566SOL    HW267532   4.505   8.441  14.141
88567SOL     OW67533   3.493   3.599   9.377
88567SOL    HW167534   3.440   3.665   9.333
88567SOL    HW267535   3.460   3.515   9.344
88568SOL     OW67536   6.735  11.676   3.769
88568SOL    HW167537   6.670  11.707   3.707
88568SOL    HW267538   6.685  11.649   3.846
88569SOL     OW67539  13.841  10.764   3.058
88569SOL    HW167540  13.800  10.754   2.972
88569SOL    HW267541  13.933  10.740   3.045
88570SOL     OW67542   4.881   7.780  13.944
88570SOL    HW167543   4.836   7.859  13.914
88570SOL    HW267544   4.848   7.711  13.886
88571SOL     OW67545  11.808   3.868   2.087
88571SOL    HW167546  11.810   3.908   1.999
88571SOL    HW267547  11.716   3.845   2.099
88572SOL     OW67548   3.958   1.790  12.025
88572SOL    HW167549   3.930   1.850  11.955
88572SOL    HW267550   3.958   1.844  12.104
88573SOL     OW67551   1.785   6.556   8.744
88573SOL    HW167552   1.820   6.478   8.787
88573SOL    HW267553   1.860   6.593   8.697
88574SOL     OW67554  14.126   4.759  11.712
88574SOL    HW167555  14.140   4.683  11.656
88574SOL    HW267556  14.156   4.730  11.799
88575SOL     OW67557   7.756  11.107  13.766
88575SOL    HW167558   7.712  11.190  13.787
88575SOL    HW267559   7.697  11.064  13.704
88576SOL     OW67560   0.757  11.506   0.359
88576SOL    HW167561   0.819  11.546   0.420
88576SOL    HW267562   0.690  11.573   0.346
88577SOL     OW67563   7.052  14.582   3.093
88577SOL    HW167564   7.081  14.565   3.182
88577SOL    HW267565   7.100  14.519   3.039
88578SOL     OW67566   8.374  10.616   9.990
88578SOL    HW167567   8.364  10.540  10.047
88578SOL    HW267568   8.445  10.666  10.029
88579SOL     OW67569   2.215   2.745  13.908
88579SOL    HW167570   2.165   2.676  13.866
88579SOL    HW267571   2.202   2.822  13.853
88580SOL     OW67572  12.975   3.222  14.269
88580SOL    HW167573  12.972   3.148  14.329
88580SOL    HW267574  12.923   3.194  14.193
88581SOL     OW67575  12.259  13.190  11.644
88581SOL    HW167576  12.272  13.132  11.719
88581SOL    HW267577  12.303  13.271  11.667
88582SOL     OW67578   0.842   0.900   1.535
88582SOL    HW167579   0.756   0.924   1.502
88582SOL    HW267580   0.825   0.863   1.621
88583SOL     OW67581  12.179   4.535  11.698
88583SOL    HW167582  12.144   4.506  11.782
88583SOL    HW267583  12.250   4.473  11.678
88584SOL     OW67584   4.754   9.280  11.221
88584SOL    HW167585   4.810   9.215  11.263
88584SOL    HW267586   4.810   9.320  11.155
88585SOL     OW67587  14.186   1.003   7.569
88585SOL    HW167588  14.177   1.076   7.631
88585SOL    HW267589  14.266   0.957   7.597
88586SOL     OW67590   0.644  12.236   8.184
88586SOL    HW167591   0.645  12.319   8.136
88586SOL    HW267592   0.641  12.169   8.116
88587SOL     OW67593   4.213   1.721   4.306
88587SOL    HW167594   4.205   1.816   4.313
88587SOL    HW267595   4.306   1.703   4.322
88588SOL     OW67596   1.258  10.215  12.649
88588SOL    HW167597   1.219  10.296  12.618
88588SOL    HW267598   1.338  10.242  12.695
88589SOL     OW67599   9.741   7.270   0.711
88589SOL    HW167600   9.750   7.353   0.664
88589SOL    HW267601   9.820   7.221   0.689
88590SOL     OW67602  14.851   5.688  13.478
88590SOL    HW167603   0.055   5.681  13.525
88590SOL    HW267604  14.871   5.742  13.402
88591SOL     OW67605  12.641   4.848   8.848
88591SOL    HW167606  12.576   4.839   8.918
88591SOL    HW267607  12.702   4.775   8.863
88592SOL     OW67608  11.555   3.664  13.875
88592SOL    HW167609  11.464   3.640  13.856
88592SOL    HW267610  11.576   3.731  13.811
88593SOL     OW67611   9.135   1.540   3.821
88593SOL    HW167612   9.196   1.530   3.748
88593SOL    HW267613   9.141   1.632   3.845
88594SOL     OW67614  13.929   4.407   1.047
88594SOL    HW167615  13.916   4.379   1.138
88594SOL    HW267616  13.840   4.415   1.012
88595SOL     OW67617   3.007   9.328   0.217
88595SOL    HW167618   2.942   9.313   0.149
88595SOL    HW267619   3.089   9.298   0.178
88596SOL     OW67620   4.641  13.453   5.299
88596SOL    HW167621   4.572  13.442   5.233
88596SOL    HW267622   4.717  13.410   5.261
88597SOL     OW67623   4.169   9.134  12.184
88597SOL    HW167624   4.227   9.203  12.152
88597SOL    HW267625   4.227   9.073  12.229
88598SOL     OW67626   0.527  14.299   1.533
88598SOL    HW167627   0.455  14.333   1.586
88598SOL    HW267628   0.488  14.227   1.482
88599SOL     OW67629  10.450   2.610  10.405
88599SOL    HW167630  10.411   2.522  10.406
88599SOL    HW267631  10.384   2.666  10.446
88600SOL     OW67632  12.467  10.024  13.642
88600SOL    HW167633  12.456  10.032  13.548
88600SOL    HW267634  12.542  10.080  13.662
88601SOL     OW67635   9.593   4.511  11.169
88601SOL    HW167636   9.618   4.430  11.215
88601SOL    HW267637   9.676   4.545  11.135
88602SOL     OW67638  10.111  13.497  11.399
88602SOL    HW167639  10.063  13.464  11.476
88602SOL    HW267640  10.067  13.578  11.376
88603SOL     OW67641  14.813   4.910  11.350
88603SOL    HW167642  14.751   4.855  11.303
88603SOL    HW267643  14.762   4.949  11.421
88604SOL     OW67644   8.009  11.300   6.432
88604SOL    HW167645   8.040  11.210   6.425
88604SOL    HW267646   8.033  11.327   6.521
88605SOL     OW67647   8.011   3.943   5.178
88605SOL    HW167648   7.961   3.918   5.100
88605SOL    HW267649   8.038   4.033   5.160
88606SOL     OW67650  13.852   8.857  11.594
88606SOL    HW167651  13.948   8.850  11.596
88606SOL    HW267652  13.835   8.931  11.536
88607SOL     OW67653   0.368   7.139   0.702
88607SOL    HW167654   0.318   7.096   0.772
88607SOL    HW267655   0.454   7.157   0.742
88608SOL     OW67656   4.612   5.856  10.788
88608SOL    HW167657   4.557   5.778  10.797
88608SOL    HW267658   4.685   5.827  10.734
88609SOL     OW67659   2.873   8.093   7.229
88609SOL    HW167660   2.875   8.169   7.171
88609SOL    HW267661   2.790   8.102   7.276
88610SOL     OW67662   1.094   9.688   4.041
88610SOL    HW167663   1.174   9.642   4.013
88610SOL    HW267664   1.123   9.743   4.114
88611SOL     OW67665  12.410   2.674  12.589
88611SOL    HW167666  12.394   2.582  12.569
88611SOL    HW267667  12.328   2.706  12.624
88612SOL     OW67668   2.452   4.607   3.254
88612SOL    HW167669   2.453   4.675   3.186
88612SOL    HW267670   2.524   4.631   3.312
88613SOL     OW67671  10.966   0.847   7.457
88613SOL    HW167672  10.956   0.834   7.363
88613SOL    HW267673  11.060   0.847   7.472
88614SOL     OW67674   9.329   3.643   8.890
88614SOL    HW167675   9.282   3.695   8.825
88614SOL    HW267676   9.261   3.609   8.948
88615SOL     OW67677   8.106  12.051   1.719
88615SOL    HW167678   8.188  12.055   1.768
88615SOL    HW267679   8.073  11.962   1.734
88616SOL     OW67680   7.947   6.599   1.764
88616SOL    HW167681   7.873   6.542   1.783
88616SOL    HW267682   7.921   6.647   1.686
88617SOL     OW67683  10.167   4.880   8.599
88617SOL    HW167684  10.101   4.948   8.585
88617SOL    HW267685  10.121   4.798   8.585
88618SOL     OW67686  13.545   5.761  10.835
88618SOL    HW167687  13.486   5.710  10.779
88618SOL    HW267688  13.511   5.746  10.924
88619SOL     OW67689   1.945  14.510   6.922
88619SOL    HW167690   1.928  14.428   6.874
88619SOL    HW267691   1.858  14.540   6.949
88620SOL     OW67692   5.649   7.400  10.404
88620SOL    HW167693   5.569   7.349  10.417
88620SOL    HW267694   5.704   7.344  10.349
88621SOL     OW67695   4.707   1.829   4.274
88621SOL    HW167696   4.792   1.846   4.235
88621SOL    HW267697   4.696   1.735   4.267
88622SOL     OW67698   2.505   9.926  10.316
88622SOL    HW167699   2.529   9.851  10.370
88622SOL    HW267700   2.416   9.908  10.287
88623SOL     OW67701   8.810  10.720  11.832
88623SOL    HW167702   8.849  10.791  11.781
88623SOL    HW267703   8.726  10.703  11.789
88624SOL     OW67704  14.855   7.810   7.430
88624SOL    HW167705  14.836   7.716   7.431
88624SOL    HW267706  14.874   7.830   7.338
88625SOL     OW67707  10.030   5.010   4.640
88625SOL    HW167708  10.071   5.089   4.674
88625SOL    HW267709  10.068   4.938   4.691
88626SOL     OW67710  12.986   5.553   5.806
88626SOL    HW167711  12.935   5.513   5.735
88626SOL    HW267712  13.039   5.620   5.762
88627SOL     OW67713  14.065   8.356   0.720
88627SOL    HW167714  14.009   8.419   0.766
88627SOL    HW267715  14.083   8.397   0.636
88628SOL     OW67716  10.952   4.541   0.165
88628SOL    HW167717  11.023   4.604   0.160
88628SOL    HW267718  10.889   4.580   0.226
88629SOL     OW67719   0.137   2.683   0.074
88629SOL    HW167720   0.186   2.649  14.878
88629SOL    HW267721   0.079   2.749   0.036
88630SOL     OW67722  14.104  14.327  10.426
88630SOL    HW167723  14.034  14.278  10.469
88630SOL    HW267724  14.059  14.400  10.383
88631SOL     OW67725   4.615   4.484   8.166
88631SOL    HW167726   4.708   4.504   8.156
88631SOL    HW267727   4.606   4.396   8.129
88632SOL     OW67728   1.896  10.519   3.907
88632SOL    HW167729   1.827  10.452   3.904
88632SOL    HW267730   1.969  10.477   3.952
88633SOL     OW67731   9.826  11.992   6.701
88633SOL    HW167732   9.846  11.970   6.610
88633SOL    HW267733   9.747  11.941   6.721
88634SOL     OW67734   7.878  11.775   9.362
88634SOL    HW167735   7.907  11.842   9.424
88634SOL    HW267736   7.939  11.782   9.289
88635SOL     OW67737  13.665  14.645   3.339
88635SOL    HW167738  13.585  14.597   3.360
88635SOL    HW267739  13.701  14.670   3.425
88636SOL     OW67740   7.315   1.590   7.024
88636SOL    HW167741   7.260   1.572   6.947
88636SOL    HW267742   7.253   1.607   7.095
88637SOL     OW67743  10.102   5.545   6.786
88637SOL    HW167744  10.011   5.516   6.777
88637SOL    HW267745  10.153   5.464   6.794
88638SOL     OW67746   4.569   4.146   6.474
88638SOL    HW167747   4.551   4.240   6.467
88638SOL    HW267748   4.591   4.119   6.385
88639SOL     OW67749   2.477   6.471   8.929
88639SOL    HW167750   2.489   6.562   8.904
88639SOL    HW267751   2.466   6.425   8.845
88640SOL     OW67752  11.058   6.802   0.100
88640SOL    HW167753  11.077   6.725   0.154
88640SOL    HW267754  10.996   6.771   0.034
88641SOL     OW67755  14.603   6.202   5.590
88641SOL    HW167756  14.535   6.269   5.586
88641SOL    HW267757  14.582   6.150   5.667
88642SOL     OW67758  11.424   8.542   5.200
88642SOL    HW167759  11.396   8.469   5.144
88642SOL    HW267760  11.500   8.578   5.155
88643SOL     OW67761  13.771   1.339  10.975
88643SOL    HW167762  13.839   1.371  11.034
88643SOL    HW267763  13.754   1.412  10.916
88644SOL     OW67764  13.054   6.272   7.843
88644SOL    HW167765  13.079   6.197   7.789
88644SOL    HW267766  12.974   6.305   7.802
88645SOL     OW67767  12.212   3.760  13.441
88645SOL    HW167768  12.294   3.725  13.475
88645SOL    HW267769  12.230   3.778  13.349
88646SOL     OW67770   8.913  10.106   4.210
88646SOL    HW167771   8.893  10.144   4.124
88646SOL    HW267772   8.837  10.051   4.230
88647SOL     OW67773   8.774   1.681   3.275
88647SOL    HW167774   8.860   1.643   3.257
88647SOL    HW267775   8.789   1.740   3.350
88648SOL     OW67776   1.589   9.905  14.002
88648SOL    HW167777   1.521   9.964  14.036
88648SOL    HW267778   1.562   9.887  13.912
88649SOL     OW67779  12.783  14.437  13.206
88649SOL    HW167780  12.756  14.497  13.136
88649SOL    HW267781  12.703  14.415  13.252
88650SOL     OW67782  12.676  10.163   7.111
88650SOL    HW167783  12.600  10.196   7.062
88650SOL    HW267784  12.741  10.145   7.043
88651SOL     OW67785  11.640  12.690   9.144
88651SOL    HW167786  11.637  12.748   9.068
88651SOL    HW267787  11.587  12.615   9.118
88652SOL     OW67788   1.215   8.215  14.116
88652SOL    HW167789   1.145   8.155  14.144
88652SOL    HW267790   1.223   8.278  14.188
88653SOL     OW67791   9.787  11.211   6.032
88653SOL    HW167792   9.804  11.123   6.067
88653SOL    HW267793   9.743  11.257   6.103
88654SOL     OW67794   4.020  11.105   7.703
88654SOL    HW167795   4.045  11.149   7.785
88654SOL    HW267796   3.925  11.113   7.700
88655SOL     OW67797  10.824   2.837  10.546
88655SOL    HW167798  10.774   2.756  10.546
88655SOL    HW267799  10.869   2.838  10.461
88656SOL     OW67800   7.364   3.733   6.435
88656SOL    HW167801   7.310   3.676   6.380
88656SOL    HW267802   7.454   3.704   6.418
88657SOL     OW67803  10.943   1.908   1.075
88657SOL    HW167804  10.957   1.905   0.980
88657SOL    HW267805  10.938   1.816   1.101
88658SOL     OW67806  12.751   0.566   4.683
88658SOL    HW167807  12.792   0.536   4.602
88658SOL    HW267808  12.824   0.575   4.745
88659SOL     OW67809  12.766   7.053  14.146
88659SOL    HW167810  12.806   7.001  14.215
88659SOL    HW267811  12.752   6.992  14.074
88660SOL     OW67812   8.280   7.804   2.948
88660SOL    HW167813   8.187   7.826   2.960
88660SOL    HW267814   8.320   7.826   3.032
88661SOL     OW67815   4.082   8.033  12.155
88661SOL    HW167816   4.166   8.074  12.137
88661SOL    HW267817   4.026   8.104  12.187
88662SOL     OW67818   9.639   0.235   8.285
88662SOL    HW167819   9.597   0.271   8.207
88662SOL    HW267820   9.617   0.296   8.355
88663SOL     OW67821  12.861  10.252  10.084
88663SOL    HW167822  12.778  10.265  10.037
88663SOL    HW267823  12.848  10.170  10.132
88664SOL     OW67824   4.082   6.243  10.003
88664SOL    HW167825   4.133   6.246  10.084
88664SOL    HW267826   4.085   6.151   9.977
88665SOL     OW67827  12.458   1.468   9.077
88665SOL    HW167828  12.497   1.381   9.082
88665SOL    HW267829  12.367   1.452   9.055
88666SOL     OW67830   6.269   9.214   6.180
88666SOL    HW167831   6.309   9.289   6.136
88666SOL    HW267832   6.262   9.147   6.113
88667SOL     OW67833   7.564   2.057   6.140
88667SOL    HW167834   7.587   2.032   6.229
88667SOL    HW267835   7.486   2.112   6.150
88668SOL     OW67836   6.430  12.824   1.815
88668SOL    HW167837   6.369  12.795   1.883
88668SOL    HW267838   6.513  12.784   1.839
88669SOL     OW67839   5.969   5.982   0.559
88669SOL    HW167840   5.990   6.051   0.621
88669SOL    HW267841   6.042   5.983   0.497
88670SOL     OW67842   4.223   3.764   5.495
88670SOL    HW167843   4.191   3.680   5.463
88670SOL    HW267844   4.206   3.825   5.424
88671SOL     OW67845   2.019   8.971   3.763
88671SOL    HW167846   2.002   8.883   3.728
88671SOL    HW267847   2.112   8.972   3.782
88672SOL     OW67848  12.293  11.649  13.148
88672SOL    HW167849  12.289  11.643  13.053
88672SOL    HW267850  12.351  11.723  13.165
88673SOL     OW67851  11.710   3.453   2.990
88673SOL    HW167852  11.711   3.548   2.983
88673SOL    HW267853  11.801   3.427   2.978
88674SOL     OW67854   2.269   8.891   4.301
88674SOL    HW167855   2.349   8.846   4.274
88674SOL    HW267856   2.249   8.950   4.227
88675SOL     OW67857  13.131  14.836  12.255
88675SOL    HW167858  13.102   0.048  12.264
88675SOL    HW267859  13.198  14.826  12.323
88676SOL     OW67860   3.723  12.557  14.474
88676SOL    HW167861   3.777  12.606  14.413
88676SOL    HW267862   3.747  12.466  14.460
88677SOL     OW67863  12.202   5.818  10.957
88677SOL    HW167864  12.121   5.847  10.915
88677SOL    HW267865  12.270   5.875  10.920
88678SOL     OW67866   4.562   9.378   4.195
88678SOL    HW167867   4.617   9.389   4.273
88678SOL    HW267868   4.623   9.385   4.121
88679SOL     OW67869  10.365  11.534  11.300
88679SOL    HW167870  10.383  11.467  11.366
88679SOL    HW267871  10.356  11.615  11.350
88680SOL     OW67872  11.131   0.287   3.483
88680SOL    HW167873  11.140   0.298   3.577
88680SOL    HW267874  11.220   0.273   3.451
88681SOL     OW67875   0.654   5.686  14.601
88681SOL    HW167876   0.641   5.779  14.584
88681SOL    HW267877   0.743   5.668  14.571
88682SOL     OW67878   1.896   7.394   3.406
88682SOL    HW167879   1.805   7.418   3.423
88682SOL    HW267880   1.913   7.321   3.466
88683SOL     OW67881   8.389   0.526   4.070
88683SOL    HW167882   8.350   0.605   4.107
88683SOL    HW267883   8.391   0.464   4.143
88684SOL     OW67884   6.375  11.049   8.576
88684SOL    HW167885   6.455  11.071   8.529
88684SOL    HW267886   6.329  10.989   8.518
88685SOL     OW67887   2.176   6.149   1.306
88685SOL    HW167888   2.256   6.141   1.358
88685SOL    HW267889   2.107   6.163   1.370
88686SOL     OW67890  12.876  13.144   1.029
88686SOL    HW167891  12.827  13.065   1.004
88686SOL    HW267892  12.957  13.140   0.979
88687SOL     OW67893   4.146   6.350   3.090
88687SOL    HW167894   4.195   6.425   3.124
88687SOL    HW267895   4.055   6.369   3.113
88688SOL     OW67896   6.782  12.601   1.761
88688SOL    HW167897   6.787  12.520   1.813
88688SOL    HW267898   6.744  12.665   1.821
88689SOL     OW67899   7.577  11.353  10.724
88689SOL    HW167900   7.664  11.392  10.739
88689SOL    HW267901   7.567  11.355  10.629
88690SOL     OW67902   5.829  14.140  10.248
88690SOL    HW167903   5.786  14.217  10.211
88690SOL    HW267904   5.771  14.111  10.318
88691SOL     OW67905   1.838   6.601  12.380
88691SOL    HW167906   1.791   6.533  12.428
88691SOL    HW267907   1.806   6.683  12.419
88692SOL     OW67908   5.978   2.711  11.783
88692SOL    HW167909   5.890   2.683  11.759
88692SOL    HW267910   5.965   2.770  11.858
88693SOL     OW67911   2.439  10.883   5.967
88693SOL    HW167912   2.521  10.849   5.931
88693SOL    HW267913   2.401  10.934   5.895
88694SOL     OW67914   5.168   8.280   9.595
88694SOL    HW167915   5.103   8.230   9.646
88694SOL    HW267916   5.245   8.282   9.652
88695SOL     OW67917   7.361   0.384   0.199
88695SOL    HW167918   7.275   0.345   0.217
88695SOL    HW267919   7.419   0.308   0.187
88696SOL     OW67920   8.555  14.777   7.910
88696SOL    HW167921   8.630  14.800   7.964
88696SOL    HW267922   8.591  14.767   7.822
88697SOL     OW67923  11.824   5.658   3.907
88697SOL    HW167924  11.855   5.704   3.985
88697SOL    HW267925  11.763   5.592   3.941
88698SOL     OW67926   4.811   0.956   0.686
88698SOL    HW167927   4.767   1.021   0.631
88698SOL    HW267928   4.903   0.963   0.664
88699SOL     OW67929   9.797   8.596   5.994
88699SOL    HW167930   9.778   8.585   5.901
88699SOL    HW267931   9.755   8.678   6.018
88700SOL     OW67932  14.373   6.021  11.591
88700SOL    HW167933  14.334   6.096  11.635
88700SOL    HW267934  14.444   6.058  11.539
88701SOL     OW67935   2.657   8.471  10.695
88701SOL    HW167936   2.738   8.515  10.720
88701SOL    HW267937   2.684   8.404  10.633
88702SOL     OW67938   6.691   4.652   2.522
88702SOL    HW167939   6.648   4.707   2.456
88702SOL    HW267940   6.781   4.682   2.524
88703SOL     OW67941  11.953   7.165   4.621
88703SOL    HW167942  12.022   7.164   4.687
88703SOL    HW267943  11.933   7.258   4.609
88704SOL     OW67944   0.907   0.189   0.010
88704SOL    HW167945   0.946   0.104  14.868
88704SOL    HW267946   0.881   0.226  14.805
88705SOL     OW67947  13.088   0.159   4.980
88705SOL    HW167948  13.072   0.145   5.073
88705SOL    HW267949  13.002   0.176   4.943
88706SOL     OW67950   1.475  14.215  10.997
88706SOL    HW167951   1.518  14.246  11.077
88706SOL    HW267952   1.390  14.183  11.028
88707SOL     OW67953   3.661   2.507   0.013
88707SOL    HW167954   3.688   2.530   0.102
88707SOL    HW267955   3.708   2.568  14.835
88708SOL     OW67956   1.960   8.967   1.551
88708SOL    HW167957   2.013   8.978   1.472
88708SOL    HW267958   2.008   8.904   1.604
88709SOL     OW67959   1.920   1.495   9.517
88709SOL    HW167960   1.979   1.440   9.466
88709SOL    HW267961   1.902   1.443   9.596
88710SOL     OW67962  11.464  13.924   5.344
88710SOL    HW167963  11.502  14.011   5.351
88710SOL    HW267964  11.370  13.940   5.334
88711SOL     OW67965   6.308  10.094  12.790
88711SOL    HW167966   6.309  10.123  12.882
88711SOL    HW267967   6.317  10.175  12.740
88712SOL     OW67968  10.108   1.179   1.433
88712SOL    HW167969  10.089   1.230   1.355
88712SOL    HW267970  10.033   1.193   1.490
88713SOL     OW67971   4.964   1.816   1.576
88713SOL    HW167972   4.929   1.869   1.648
88713SOL    HW267973   4.951   1.869   1.498
88714SOL     OW67974  13.586   1.379  13.641
88714SOL    HW167975  13.626   1.368  13.727
88714SOL    HW267976  13.636   1.320  13.584
88715SOL     OW67977   9.598  10.683   7.275
88715SOL    HW167978   9.601  10.778   7.285
88715SOL    HW267979   9.507  10.665   7.250
88716SOL     OW67980   2.901  14.826   0.944
88716SOL    HW167981   2.866   0.018   0.889
88716SOL    HW267982   2.894  14.748   0.890
88717SOL     OW67983  12.751   7.500   0.720
88717SOL    HW167984  12.757   7.473   0.812
88717SOL    HW267985  12.724   7.592   0.723
88718SOL     OW67986   0.003   0.824   3.666
88718SOL    HW167987   0.096   0.833   3.649
88718SOL    HW267988  14.869   0.857   3.755
88719SOL     OW67989   5.144  12.614   5.126
88719SOL    HW167990   5.054  12.620   5.097
88719SOL    HW267991   5.193  12.673   5.068
88720SOL     OW67992   3.346  11.182   6.762
88720SOL    HW167993   3.326  11.251   6.825
88720SOL    HW267994   3.440  11.167   6.773
88721SOL     OW67995   2.240  13.553  10.954
88721SOL    HW167996   2.214  13.461  10.959
88721SOL    HW267997   2.294  13.567  11.031
88722SOL     OW67998   1.363   6.011   2.662
88722SOL    HW167999   1.269   6.030   2.660
88722SOL    HW268000   1.382   5.992   2.754
88723SOL     OW68001   2.189  10.311   6.943
88723SOL    HW168002   2.182  10.363   7.023
88723SOL    HW268003   2.109  10.258   6.941
88724SOL     OW68004  13.789   4.182   7.340
88724SOL    HW168005  13.700   4.212   7.326
88724SOL    HW268006  13.838   4.213   7.264
88725SOL     OW68007   7.337   8.413  14.353
88725SOL    HW168008   7.374   8.426  14.440
88725SOL    HW268009   7.320   8.501  14.320
88726SOL     OW68010   6.123  13.263   8.545
88726SOL    HW168011   6.055  13.226   8.601
88726SOL    HW268012   6.077  13.291   8.466
88727SOL     OW68013   9.978   1.704  14.558
88727SOL    HW168014   9.924   1.628  14.537
88727SOL    HW268015  10.039   1.711  14.485
88728SOL     OW68016   4.930   5.868   8.667
88728SOL    HW168017   5.024   5.882   8.657
88728SOL    HW268018   4.903   5.928   8.736
88729SOL     OW68019   5.951  12.468  10.883
88729SOL    HW168020   5.961  12.373  10.894
88729SOL    HW268021   5.914  12.479  10.796
88730SOL     OW68022   7.120  11.563   9.923
88730SOL    HW168023   7.035  11.521   9.910
88730SOL    HW268024   7.184  11.493   9.910
88731SOL     OW68025  13.058   5.683  11.372
88731SOL    HW168026  12.983   5.738  11.398
88731SOL    HW268027  13.074   5.627  11.447
88732SOL     OW68028  11.183  13.720   0.720
88732SOL    HW168029  11.173  13.628   0.746
88732SOL    HW268030  11.218  13.763   0.798
88733SOL     OW68031  14.573   5.688  14.329
88733SOL    HW168032  14.609   5.758  14.383
88733SOL    HW268033  14.499   5.729  14.283
88734SOL     OW68034   5.954   8.345   0.202
88734SOL    HW168035   5.950   8.392   0.120
88734SOL    HW268036   5.939   8.253   0.178
88735SOL     OW68037  12.011   9.753  14.313
88735SOL    HW168038  12.096   9.782  14.278
88735SOL    HW268039  12.014   9.658  14.309
88736SOL     OW68040  11.572  14.620  11.877
88736SOL    HW168041  11.516  14.673  11.934
88736SOL    HW268042  11.542  14.642  11.788
88737SOL     OW68043   0.044   7.074   6.609
88737SOL    HW168044   0.094   6.994   6.625
88737SOL    HW268045   0.093   7.120   6.541
88738SOL     OW68046   5.751  12.331   2.062
88738SOL    HW168047   5.756  12.236   2.069
88738SOL    HW268048   5.797  12.351   1.981
88739SOL     OW68049   1.683   3.206  11.625
88739SOL    HW168050   1.747   3.277  11.616
88739SOL    HW268051   1.604   3.250  11.658
88740SOL     OW68052   9.859  12.718  13.229
88740SOL    HW168053   9.857  12.655  13.157
88740SOL    HW268054   9.793  12.686  13.291
88741SOL     OW68055   9.778  10.624  13.498
88741SOL    HW168056   9.683  10.631  13.496
88741SOL    HW268057   9.809  10.698  13.445
88742SOL     OW68058  10.917   5.349   3.038
88742SOL    HW168059  10.928   5.257   3.062
88742SOL    HW268060  10.943   5.352   2.946
88743SOL     OW68061  11.754   7.320  14.871
88743SOL    HW168062  11.804   7.394   0.027
88743SOL    HW268063  11.813   7.246  14.878
88744SOL     OW68064   4.961   0.212  12.473
88744SOL    HW168065   4.890   0.215  12.408
88744SOL    HW268066   4.977   0.119  12.487
88745SOL     OW68067   7.883   0.370   8.648
88745SOL    HW168068   7.967   0.342   8.685
88745SOL    HW268069   7.847   0.291   8.607
88746SOL     OW68070   1.191   3.110   0.831
88746SOL    HW168071   1.238   3.176   0.882
88746SOL    HW268072   1.237   3.028   0.849
88747SOL     OW68073   9.185   5.122   5.934
88747SOL    HW168074   9.214   5.128   6.024
88747SOL    HW268075   9.119   5.053   5.934
88748SOL     OW68076  12.406   3.647   9.838
88748SOL    HW168077  12.463   3.723   9.850
88748SOL    HW268078  12.317   3.683   9.842
88749SOL     OW68079   1.152  13.586  10.566
88749SOL    HW168080   1.171  13.668  10.521
88749SOL    HW268081   1.214  13.523  10.530
88750SOL     OW68082   2.005  12.563   4.380
88750SOL    HW168083   2.026  12.598   4.467
88750SOL    HW268084   2.085  12.574   4.330
88751SOL     OW68085   4.216  14.058  13.207
88751SOL    HW168086   4.195  14.106  13.127
88751SOL    HW268087   4.231  13.968  13.177
88752SOL     OW68088   7.542   1.507   9.511
88752SOL    HW168089   7.592   1.445   9.458
88752SOL    HW268090   7.470   1.534   9.454
88753SOL     OW68091  13.176   2.969   2.618
88753SOL    HW168092  13.172   3.025   2.695
88753SOL    HW268093  13.262   2.927   2.624
88754SOL     OW68094  12.750  12.995  14.566
88754SOL    HW168095  12.698  12.940  14.624
88754SOL    HW268096  12.745  12.951  14.481
88755SOL     OW68097  14.672   2.624  10.893
88755SOL    HW168098  14.602   2.571  10.856
88755SOL    HW268099  14.714   2.567  10.958
88756SOL     OW68100   1.248   0.406  14.224
88756SOL    HW168101   1.156   0.432  14.217
88756SOL    HW268102   1.291   0.483  14.262
88757SOL     OW68103   2.452  14.364   0.931
88757SOL    HW168104   2.426  14.443   0.883
88757SOL    HW268105   2.531  14.333   0.887
88758SOL     OW68106   6.023   9.236   7.590
88758SOL    HW168107   5.956   9.272   7.648
88758SOL    HW268108   6.005   9.276   7.505
88759SOL     OW68109  11.393  14.672   2.119
88759SOL    HW168110  11.488  14.681   2.110
88759SOL    HW268111  11.359  14.757   2.095
88760SOL     OW68112   8.888   8.408   7.807
88760SOL    HW168113   8.811   8.357   7.785
88760SOL    HW268114   8.939   8.352   7.866
88761SOL     OW68115   1.339   0.295   2.148
88761SOL    HW168116   1.421   0.343   2.158
88761SOL    HW268117   1.338   0.234   2.222
88762SOL     OW68118  12.466   1.829  10.615
88762SOL    HW168119  12.528   1.757  10.629
88762SOL    HW268120  12.491   1.895  10.680
88763SOL     OW68121   5.368   3.564   5.579
88763SOL    HW168122   5.345   3.472   5.565
88763SOL    HW268123   5.415   3.564   5.663
88764SOL     OW68124   3.771   8.547  12.069
88764SOL    HW168125   3.835   8.539  11.998
88764SOL    HW268126   3.732   8.634  12.056
88765SOL     OW68127  12.268  13.366  14.713
88765SOL    HW168128  12.296  13.295  14.772
88765SOL    HW268129  12.210  13.420  14.768
88766SOL     OW68130  14.157  13.450   7.583
88766SOL    HW168131  14.067  13.482   7.574
88766SOL    HW268132  14.159  13.372   7.528
88767SOL     OW68133   4.092   6.778   5.112
88767SOL    HW168134   4.064   6.709   5.172
88767SOL    HW268135   4.021   6.842   5.115
88768SOL     OW68136   2.631   6.057  13.695
88768SOL    HW168137   2.661   6.138  13.654
88768SOL    HW268138   2.576   6.015  13.629
88769SOL     OW68139   4.653   2.717  13.662
88769SOL    HW168140   4.603   2.783  13.614
88769SOL    HW268141   4.616   2.718  13.750
88770SOL     OW68142   2.256   4.003   5.973
88770SOL    HW168143   2.234   4.048   5.891
88770SOL    HW268144   2.218   4.057   6.042
88771SOL     OW68145   9.011   5.683   7.176
88771SOL    HW168146   9.048   5.772   7.170
88771SOL    HW268147   9.016   5.650   7.086
88772SOL     OW68148   5.928   1.927   4.861
88772SOL    HW168149   5.874   2.006   4.860
88772SOL    HW268150   5.951   1.913   4.769
88773SOL     OW68151   1.536   6.591   9.928
88773SOL    HW168152   1.502   6.511   9.890
88773SOL    HW268153   1.630   6.588   9.911
88774SOL     OW68154  14.116   5.172  10.510
88774SOL    HW168155  14.166   5.133  10.582
88774SOL    HW268156  14.036   5.120  10.505
88775SOL     OW68157   2.939   1.702  13.341
88775SOL    HW168158   2.932   1.688  13.435
88775SOL    HW268159   2.856   1.668  13.305
88776SOL     OW68160  12.229  10.975   7.560
88776SOL    HW168161  12.229  10.885   7.591
88776SOL    HW268162  12.241  11.028   7.639
88777SOL     OW68163   4.950   1.608  10.282
88777SOL    HW168164   5.036   1.643  10.257
88777SOL    HW268165   4.939   1.530  10.227
88778SOL     OW68166   1.894   2.793   0.888
88778SOL    HW168167   1.903   2.885   0.912
88778SOL    HW268168   1.835   2.757   0.954
88779SOL     OW68169  13.964   2.811   3.200
88779SOL    HW168170  14.037   2.836   3.144
88779SOL    HW268171  13.978   2.718   3.217
88780SOL     OW68172   3.254   4.504  12.274
88780SOL    HW168173   3.240   4.454  12.355
88780SOL    HW268174   3.349   4.504  12.263
88781SOL     OW68175  13.870   5.535   1.293
88781SOL    HW168176  13.944   5.596   1.289
88781SOL    HW268177  13.866   5.497   1.205
88782SOL     OW68178  10.792  13.941   4.549
88782SOL    HW168179  10.878  13.910   4.519
88782SOL    HW268180  10.808  14.029   4.581
88783SOL     OW68181   8.873  12.752   2.935
88783SOL    HW168182   8.851  12.812   3.006
88783SOL    HW268183   8.915  12.677   2.979
88784SOL     OW68184  11.824   1.557   4.966
88784SOL    HW168185  11.809   1.521   5.053
88784SOL    HW268186  11.759   1.515   4.911
88785SOL     OW68187  10.228   6.726   4.659
88785SOL    HW168188  10.163   6.675   4.708
88785SOL    HW268189  10.202   6.717   4.567
88786SOL     OW68190   7.376   3.270  10.826
88786SOL    HW168191   7.391   3.227  10.910
88786SOL    HW268192   7.444   3.337  10.820
88787SOL     OW68193   3.070   2.068   9.870
88787SOL    HW168194   2.984   2.066   9.914
88787SOL    HW268195   3.057   2.128   9.797
88788SOL     OW68196  13.951  12.339  13.356
88788SOL    HW168197  13.984  12.287  13.283
88788SOL    HW268198  13.937  12.427  13.320
88789SOL     OW68199  11.236   6.496   0.455
88789SOL    HW168200  11.189   6.470   0.535
88789SOL    HW268201  11.234   6.592   0.456
88790SOL     OW68202   5.705  12.731   2.966
88790SOL    HW168203   5.712  12.694   2.879
88790SOL    HW268204   5.760  12.810   2.964
88791SOL     OW68205   8.455   7.654   1.116
88791SOL    HW168206   8.410   7.733   1.086
88791SOL    HW268207   8.409   7.582   1.072
88792SOL     OW68208  14.415   4.637   5.117
88792SOL    HW168209  14.349   4.630   5.187
88792SOL    HW268210  14.431   4.546   5.091
88793SOL     OW68211   1.045   9.354   0.227
88793SOL    HW168212   1.009   9.443   0.219
88793SOL    HW268213   1.139   9.368   0.237
88794SOL     OW68214   7.784   1.440   6.307
88794SOL    HW168215   7.705   1.455   6.255
88794SOL    HW268216   7.764   1.479   6.392
88795SOL     OW68217   2.641   3.975   7.400
88795SOL    HW168218   2.679   3.997   7.315
88795SOL    HW268219   2.553   3.941   7.379
88796SOL     OW68220  12.184   9.957  13.258
88796SOL    HW168221  12.137   9.965  13.174
88796SOL    HW268222  12.119   9.918  13.317
88797SOL     OW68223   3.398  14.809   8.076
88797SOL    HW168224   3.477  14.826   8.025
88797SOL    HW268225   3.331  14.864   8.034
88798SOL     OW68226   7.597  10.071   6.373
88798SOL    HW168227   7.573  10.086   6.464
88798SOL    HW268228   7.690  10.046   6.377
88799SOL     OW68229  13.524  13.779  13.622
88799SOL    HW168230  13.543  13.689  13.595
88799SOL    HW268231  13.606  13.810  13.660
88800SOL     OW68232   4.128   5.778   6.787
88800SOL    HW168233   4.152   5.812   6.700
88800SOL    HW268234   4.072   5.703   6.769
88801SOL     OW68235   9.445  10.214   3.609
88801SOL    HW168236   9.490  10.181   3.687
88801SOL    HW268237   9.353  10.217   3.633
88802SOL     OW68238   8.023   3.045  11.797
88802SOL    HW168239   8.115   3.070  11.790
88802SOL    HW268240   7.991   3.040  11.707
88803SOL     OW68241  14.544  12.839  10.627
88803SOL    HW168242  14.465  12.839  10.682
88803SOL    HW268243  14.616  12.824  10.689
88804SOL     OW68244   5.691   9.477   5.923
88804SOL    HW168245   5.764   9.538   5.938
88804SOL    HW268246   5.734   9.393   5.906
88805SOL     OW68247   6.547   3.916  12.003
88805SOL    HW168248   6.453   3.919  11.985
88805SOL    HW268249   6.554   3.906  12.097
88806SOL     OW68250   5.299   1.604  11.810
88806SOL    HW168251   5.360   1.637  11.745
88806SOL    HW268252   5.325   1.513  11.825
88807SOL     OW68253   3.874  10.838  13.092
88807SOL    HW168254   3.857  10.804  13.004
88807SOL    HW268255   3.879  10.933  13.081
88808SOL     OW68256  13.637   8.482   4.558
88808SOL    HW168257  13.556   8.468   4.508
88808SOL    HW268258  13.676   8.396   4.566
88809SOL     OW68259   7.006  12.133  12.113
88809SOL    HW168260   7.020  12.172  12.199
88809SOL    HW268261   7.037  12.043  12.122
88810SOL     OW68262   9.666  12.766   4.104
88810SOL    HW168263   9.640  12.840   4.159
88810SOL    HW268264   9.623  12.781   4.020
88811SOL     OW68265   0.158  14.585  14.813
88811SOL    HW168266   0.233  14.549  14.860
88811SOL    HW268267   0.093  14.601   0.002
88812SOL     OW68268   7.659   3.006  14.653
88812SOL    HW168269   7.723   2.991  14.584
88812SOL    HW268270   7.709   3.045  14.724
88813SOL     OW68271   8.707   7.954  12.394
88813SOL    HW168272   8.732   7.916  12.478
88813SOL    HW268273   8.616   7.928  12.382
88814SOL     OW68274   6.486   8.399   7.143
88814SOL    HW168275   6.456   8.314   7.111
88814SOL    HW268276   6.438   8.463   7.092
88815SOL     OW68277   4.262  10.572  14.388
88815SOL    HW168278   4.256  10.531  14.301
88815SOL    HW268279   4.179  10.551  14.430
88816SOL     OW68280  10.069  10.060  10.432
88816SOL    HW168281   9.981  10.065  10.394
88816SOL    HW268282  10.074   9.973  10.471
88817SOL     OW68283   4.435  10.209   5.688
88817SOL    HW168284   4.360  10.189   5.632
88817SOL    HW268285   4.505  10.152   5.657
88818SOL     OW68286   9.120   7.963   3.190
88818SOL    HW168287   9.147   8.007   3.271
88818SOL    HW268288   9.025   7.964   3.193
88819SOL     OW68289   6.906   2.294   5.979
88819SOL    HW168290   6.997   2.280   6.006
88819SOL    HW268291   6.913   2.333   5.891
88820SOL     OW68292  11.629   0.275   6.120
88820SOL    HW168293  11.680   0.196   6.138
88820SOL    HW268294  11.546   0.243   6.084
88821SOL     OW68295   2.317   1.031   1.337
88821SOL    HW168296   2.294   0.980   1.414
88821SOL    HW268297   2.413   1.032   1.337
88822SOL     OW68298   9.814  10.663   6.408
88822SOL    HW168299   9.761  10.619   6.475
88822SOL    HW268300   9.751  10.691   6.342
88823SOL     OW68301   2.812   0.778   0.476
88823SOL    HW168302   2.736   0.817   0.433
88823SOL    HW268303   2.854   0.725   0.408
88824SOL     OW68304   9.208  12.722   8.814
88824SOL    HW168305   9.199  12.703   8.721
88824SOL    HW268306   9.150  12.660   8.857
88825SOL     OW68307  12.307  13.632  12.431
88825SOL    HW168308  12.295  13.545  12.394
88825SOL    HW268309  12.401  13.647  12.425
88826SOL     OW68310  14.647   1.492   1.995
88826SOL    HW168311  14.673   1.436   2.068
88826SOL    HW268312  14.633   1.431   1.922
88827SOL     OW68313  14.572   3.253  11.421
88827SOL    HW168314  14.667   3.258  11.413
88827SOL    HW268315  14.557   3.230  11.513
88828SOL     OW68316  14.208   4.795   4.314
88828SOL    HW168317  14.120   4.771   4.284
88828SOL    HW268318  14.197   4.817   4.406
88829SOL     OW68319  13.348   7.478  11.582
88829SOL    HW168320  13.404   7.406  11.550
88829SOL    HW268321  13.283   7.489  11.513
88830SOL     OW68322   2.906   7.890   6.222
88830SOL    HW168323   2.929   7.814   6.277
88830SOL    HW268324   2.928   7.863   6.133
88831SOL     OW68325  14.075   6.487   1.682
88831SOL    HW168326  14.016   6.505   1.608
88831SOL    HW268327  14.163   6.504   1.647
88832SOL     OW68328  13.317  14.483   6.367
88832SOL    HW168329  13.330  14.391   6.344
88832SOL    HW268330  13.363  14.532   6.298
88833SOL     OW68331   0.023   3.882   2.369
88833SOL    HW168332   0.098   3.941   2.380
88833SOL    HW268333   0.004   3.885   2.275
88834SOL     OW68334  11.993   2.231   0.143
88834SOL    HW168335  12.056   2.190   0.203
88834SOL    HW268336  11.908   2.217   0.185
88835SOL     OW68337   8.799  10.294   3.723
88835SOL    HW168338   8.841  10.354   3.661
88835SOL    HW268339   8.736  10.245   3.670
88836SOL     OW68340   8.209  13.699   4.304
88836SOL    HW168341   8.164  13.756   4.367
88836SOL    HW268342   8.291  13.746   4.285
88837SOL     OW68343  10.298  12.012  13.930
88837SOL    HW168344  10.391  11.990  13.935
88837SOL    HW268345  10.261  11.981  14.013
88838SOL     OW68346  14.577   6.312   0.366
88838SOL    HW168347  14.664   6.276   0.386
88838SOL    HW268348  14.538   6.249   0.306
88839SOL     OW68349  11.419  13.380   9.187
88839SOL    HW168350  11.428  13.287   9.163
88839SOL    HW268351  11.333  13.386   9.228
88840SOL     OW68352  11.535   5.124   9.997
88840SOL    HW168353  11.616   5.170   9.976
88840SOL    HW268354  11.520   5.143  10.090
88841SOL     OW68355  10.435  11.664   5.191
88841SOL    HW168356  10.439  11.706   5.277
88841SOL    HW268357  10.469  11.576   5.206
88842SOL     OW68358  12.350   1.397   6.035
88842SOL    HW168359  12.404   1.416   5.958
88842SOL    HW268360  12.408   1.416   6.109
88843SOL     OW68361   4.182   4.688   4.916
88843SOL    HW168362   4.220   4.727   4.995
88843SOL    HW268363   4.167   4.597   4.940
88844SOL     OW68364   8.404   8.993  12.912
88844SOL    HW168365   8.310   9.007  12.917
88844SOL    HW268366   8.442   9.080  12.912
88845SOL     OW68367  10.546   1.172   6.794
88845SOL    HW168368  10.509   1.120   6.724
88845SOL    HW268369  10.636   1.191   6.766
88846SOL     OW68370   3.523   4.397  10.173
88846SOL    HW168371   3.427   4.391  10.178
88846SOL    HW268372   3.546   4.344  10.097
88847SOL     OW68373   8.603   7.658   0.868
88847SOL    HW168374   8.549   7.711   0.810
88847SOL    HW268375   8.540   7.604   0.917
88848SOL     OW68376   3.464   7.085   9.578
88848SOL    HW168377   3.371   7.081   9.554
88848SOL    HW268378   3.464   7.080   9.674
88849SOL     OW68379  12.671   1.570   2.083
88849SOL    HW168380  12.585   1.596   2.049
88849SOL    HW268381  12.654   1.493   2.137
88850SOL     OW68382   0.810   2.942   1.616
88850SOL    HW168383   0.891   2.892   1.624
88850SOL    HW268384   0.770   2.937   1.703
88851SOL     OW68385   9.194   8.507   3.481
88851SOL    HW168386   9.250   8.464   3.546
88851SOL    HW268387   9.142   8.437   3.443
88852SOL     OW68388  14.825   7.081  11.696
88852SOL    HW168389   0.014   7.015  11.686
88852SOL    HW268390  14.841   7.142  11.624
88853SOL     OW68391   5.659   2.316  13.447
88853SOL    HW168392   5.634   2.225  13.462
88853SOL    HW268393   5.577   2.365  13.456
88854SOL     OW68394   3.663   6.843   8.594
88854SOL    HW168395   3.587   6.898   8.575
88854SOL    HW268396   3.717   6.849   8.516
88855SOL     OW68397   6.124   2.459  13.882
88855SOL    HW168398   6.143   2.428  13.971
88855SOL    HW268399   6.030   2.479  13.884
88856SOL     OW68400  11.801  12.685   3.561
88856SOL    HW168401  11.850  12.612   3.600
88856SOL    HW268402  11.747  12.719   3.632
88857SOL     OW68403   6.780   3.448   1.057
88857SOL    HW168404   6.747   3.507   0.989
88857SOL    HW268405   6.845   3.500   1.105
88858SOL     OW68406   6.574  11.307  11.294
88858SOL    HW168407   6.551  11.394  11.325
88858SOL    HW268408   6.586  11.255  11.374
88859SOL     OW68409  11.064   3.546  14.424
88859SOL    HW168410  11.095   3.628  14.386
88859SOL    HW268411  11.143   3.492  14.431
88860SOL     OW68412   1.304  13.194   9.046
88860SOL    HW168413   1.361  13.120   9.024
88860SOL    HW268414   1.328  13.263   8.985
88861SOL     OW68415   4.485   2.866  13.077
88861SOL    HW168416   4.491   2.858  12.982
88861SOL    HW268417   4.391   2.860  13.095
88862SOL     OW68418   2.654  14.722  14.716
88862SOL    HW168419   2.743  14.703  14.748
88862SOL    HW268420   2.668  14.787  14.647
88863SOL     OW68421   4.976   1.070   1.799
88863SOL    HW168422   4.963   1.015   1.877
88863SOL    HW268423   4.942   1.155   1.824
88864SOL     OW68424   4.620  12.467   3.726
88864SOL    HW168425   4.701  12.432   3.689
88864SOL    HW268426   4.636  12.561   3.734
88865SOL     OW68427  11.163   4.761   4.709
88865SOL    HW168428  11.094   4.824   4.727
88865SOL    HW268429  11.118   4.683   4.676
88866SOL     OW68430   1.829   9.033   2.047
88866SOL    HW168431   1.779   9.043   2.128
88866SOL    HW268432   1.886   9.109   2.044
88867SOL     OW68433  14.460   9.071   3.187
88867SOL    HW168434  14.396   9.102   3.124
88867SOL    HW268435  14.473   8.979   3.165
88868SOL     OW68436   5.361  10.832  14.168
88868SOL    HW168437   5.382  10.924  14.151
88868SOL    HW268438   5.276  10.835  14.211
88869SOL     OW68439  12.282   9.720   2.459
88869SOL    HW168440  12.297   9.684   2.547
88869SOL    HW268441  12.271   9.643   2.403
88870SOL     OW68442  10.527  10.727   3.678
88870SOL    HW168443  10.552  10.711   3.587
88870SOL    HW268444  10.606  10.711   3.728
88871SOL     OW68445  11.267  13.764   5.881
88871SOL    HW168446  11.184  13.734   5.845
88871SOL    HW268447  11.242  13.822   5.953
88872SOL     OW68448  10.708   9.986   9.615
88872SOL    HW168449  10.756   9.910   9.646
88872SOL    HW268450  10.712  10.049   9.687
88873SOL     OW68451   3.868  14.772  13.218
88873SOL    HW168452   3.858  14.677  13.217
88873SOL    HW268453   3.906  14.794  13.133
88874SOL     OW68454  14.127   1.765  10.623
88874SOL    HW168455  14.154   1.768  10.531
88874SOL    HW268456  14.116   1.672  10.642
88875SOL     OW68457   6.389   2.154  13.904
88875SOL    HW168458   6.336   2.114  13.973
88875SOL    HW268459   6.356   2.114  13.823
88876SOL     OW68460   0.292   4.803  10.844
88876SOL    HW168461   0.260   4.894  10.838
88876SOL    HW268462   0.345   4.791  10.766
88877SOL     OW68463   2.566   3.149  10.067
88877SOL    HW168464   2.550   3.243  10.064
88877SOL    HW268465   2.603   3.133  10.154
88878SOL     OW68466   8.933   7.448   1.162
88878SOL    HW168467   8.950   7.382   1.229
88878SOL    HW268468   8.838   7.448   1.153
88879SOL     OW68469  11.115  12.929   2.481
88879SOL    HW168470  11.037  12.932   2.426
88879SOL    HW268471  11.088  12.967   2.565
88880SOL     OW68472   8.878   5.917   6.936
88880SOL    HW168473   8.818   5.891   7.007
88880SOL    HW268474   8.906   5.834   6.897
88881SOL     OW68475  13.705  10.559   0.170
88881SOL    HW168476  13.723  10.533   0.080
88881SOL    HW268477  13.703  10.477   0.219
88882SOL     OW68478   2.847   9.877   7.660
88882SOL    HW168479   2.859   9.964   7.620
88882SOL    HW268480   2.810   9.896   7.746
88883SOL     OW68481  14.519   1.053  12.832
88883SOL    HW168482  14.493   1.101  12.910
88883SOL    HW268483  14.472   0.970  12.837
88884SOL     OW68484   9.402   2.185   3.949
88884SOL    HW168485   9.491   2.219   3.940
88884SOL    HW268486   9.367   2.230   4.026
88885SOL     OW68487  14.790   7.464   7.708
88885SOL    HW168488  14.761   7.471   7.616
88885SOL    HW268489  14.871   7.413   7.704
88886SOL     OW68490  11.336   5.931   2.126
88886SOL    HW168491  11.250   5.966   2.147
88886SOL    HW268492  11.318   5.846   2.086
88887SOL     OW68493  10.557  10.441  11.333
88887SOL    HW168494  10.511  10.370  11.289
88887SOL    HW268495  10.634  10.399  11.372
88888SOL     OW68496   1.795   6.679   3.871
88888SOL    HW168497   1.721   6.630   3.906
88888SOL    HW268498   1.871   6.625   3.891
88889SOL     OW68499   8.383  12.629   2.372
88889SOL    HW168500   8.300  12.648   2.329
88889SOL    HW268501   8.409  12.544   2.337
88890SOL     OW68502   1.726   9.444  10.072
88890SOL    HW168503   1.771   9.448  10.156
88890SOL    HW268504   1.768   9.372  10.025
88891SOL     OW68505   0.618   8.827  13.510
88891SOL    HW168506   0.709   8.857  13.512
88891SOL    HW268507   0.596   8.812  13.602
88892SOL     OW68508   8.874  11.711   8.397
88892SOL    HW168509   8.926  11.791   8.391
88892SOL    HW268510   8.791  11.740   8.437
88893SOL     OW68511   9.184  14.585   2.071
88893SOL    HW168512   9.178  14.633   1.988
88893SOL    HW268513   9.258  14.624   2.117
88894SOL     OW68514   3.076   3.456   4.938
88894SOL    HW168515   2.998   3.419   4.896
88894SOL    HW268516   3.042   3.522   4.999
88895SOL     OW68517  13.932  12.289  12.627
88895SOL    HW168518  13.845  12.253  12.606
88895SOL    HW268519  13.975  12.298  12.542
88896SOL     OW68520   6.104   0.548  14.544
88896SOL    HW168521   6.080   0.631  14.504
88896SOL    HW268522   6.121   0.489  14.470
88897SOL     OW68523   7.689   4.701   5.663
88897SOL    HW168524   7.783   4.689   5.648
88897SOL    HW268525   7.678   4.795   5.676
88898SOL     OW68526   7.094  13.551  12.154
88898SOL    HW168527   7.061  13.462  12.143
88898SOL    HW268528   7.186  13.545  12.126
88899SOL     OW68529   3.529   9.792   4.476
88899SOL    HW168530   3.485   9.877   4.480
88899SOL    HW268531   3.458   9.729   4.465
88900SOL     OW68532   4.032   9.037   4.746
88900SOL    HW168533   3.969   9.069   4.811
88900SOL    HW268534   4.100   9.105   4.743
88901SOL     OW68535   9.502   4.317   8.183
88901SOL    HW168536   9.588   4.298   8.220
88901SOL    HW268537   9.448   4.243   8.211
88902SOL     OW68538   8.931   7.944  12.919
88902SOL    HW168539   8.865   7.900  12.972
88902SOL    HW268540   8.973   7.873  12.870
88903SOL     OW68541  13.107  14.572   9.342
88903SOL    HW168542  13.163  14.615   9.406
88903SOL    HW268543  13.094  14.484   9.376
88904SOL     OW68544   2.411   3.586   4.887
88904SOL    HW168545   2.441   3.624   4.969
88904SOL    HW268546   2.386   3.660   4.832
88905SOL     OW68547   9.286   3.339  12.205
88905SOL    HW168548   9.311   3.423  12.167
88905SOL    HW268549   9.225   3.301  12.143
88906SOL     OW68550  12.611  12.018   6.737
88906SOL    HW168551  12.531  11.983   6.776
88906SOL    HW268552  12.681  11.983   6.792
88907SOL     OW68553   9.535  11.208   9.240
88907SOL    HW168554   9.594  11.234   9.170
88907SOL    HW268555   9.513  11.117   9.221
88908SOL     OW68556   7.913  13.501   8.210
88908SOL    HW168557   8.002  13.465   8.207
88908SOL    HW268558   7.856  13.424   8.203
88909SOL     OW68559   9.386   9.642  13.459
88909SOL    HW168560   9.388   9.554  13.497
88909SOL    HW268561   9.315   9.639  13.396
88910SOL     OW68562   7.569   3.699   0.293
88910SOL    HW168563   7.515   3.720   0.217
88910SOL    HW268564   7.510   3.650   0.350
88911SOL     OW68565   9.542   4.092   5.724
88911SOL    HW168566   9.492   4.016   5.751
88911SOL    HW268567   9.490   4.167   5.754
88912SOL     OW68568   5.012  12.409   0.061
88912SOL    HW168569   5.108  12.413   0.054
88912SOL    HW268570   4.982  12.489   0.020
88913SOL     OW68571   8.452  10.059  10.449
88913SOL    HW168572   8.421  10.149  10.441
88913SOL    HW268573   8.396  10.010  10.388
88914SOL     OW68574   7.493  13.748  13.470
88914SOL    HW168575   7.413  13.800  13.463
88914SOL    HW268576   7.502  13.705  13.385
88915SOL     OW68577   4.699   6.896   7.727
88915SOL    HW168578   4.616   6.851   7.742
88915SOL    HW268579   4.762   6.825   7.714
88916SOL     OW68580   0.662   2.216   5.386
88916SOL    HW168581   0.691   2.287   5.329
88916SOL    HW268582   0.596   2.256   5.442
88917SOL     OW68583   1.404   3.822   5.829
88917SOL    HW168584   1.394   3.805   5.736
88917SOL    HW268585   1.314   3.826   5.862
88918SOL     OW68586  14.443   7.633   3.016
88918SOL    HW168587  14.525   7.681   3.020
88918SOL    HW268588  14.421   7.615   3.107
88919SOL     OW68589   3.256  14.460  11.106
88919SOL    HW168590   3.294  14.535  11.061
88919SOL    HW268591   3.161  14.477  11.104
88920SOL     OW68592  11.491   9.523  12.369
88920SOL    HW168593  11.579   9.486  12.380
88920SOL    HW268594  11.432   9.450  12.384
88921SOL     OW68595   0.677  11.580   3.426
88921SOL    HW168596   0.663  11.627   3.508
88921SOL    HW268597   0.651  11.490   3.444
88922SOL     OW68598   5.443   4.413   7.141
88922SOL    HW168599   5.508   4.344   7.152
88922SOL    HW268600   5.470   4.460   7.063
88923SOL     OW68601  14.237   6.913  14.619
88923SOL    HW168602  14.262   6.879  14.533
88923SOL    HW268603  14.184   6.990  14.600
88924SOL     OW68604   2.746   9.077   4.053
88924SOL    HW168605   2.704   9.139   4.113
88924SOL    HW268606   2.820   9.042   4.103
88925SOL     OW68607   0.837   5.425   6.487
88925SOL    HW168608   0.830   5.507   6.439
88925SOL    HW268609   0.842   5.451   6.579
88926SOL     OW68610   6.679   3.129   8.722
88926SOL    HW168611   6.720   3.165   8.643
88926SOL    HW268612   6.631   3.203   8.760
88927SOL     OW68613   1.391  13.892   9.866
88927SOL    HW168614   1.364  13.879   9.775
88927SOL    HW268615   1.457  13.825   9.882
88928SOL     OW68616   6.612  10.233   0.477
88928SOL    HW168617   6.597  10.307   0.419
88928SOL    HW268618   6.643  10.163   0.419
88929SOL     OW68619   9.987   6.971  13.353
88929SOL    HW168620  10.050   6.937  13.417
88929SOL    HW268621  10.028   6.955  13.268
88930SOL     OW68622   5.606  12.185  11.486
88930SOL    HW168623   5.678  12.122  11.489
88930SOL    HW268624   5.596  12.206  11.393
88931SOL     OW68625   4.229   3.450  13.531
88931SOL    HW168626   4.184   3.504  13.595
88931SOL    HW268627   4.321   3.452  13.557
88932SOL     OW68628   8.204  11.809   6.884
88932SOL    HW168629   8.109  11.799   6.873
88932SOL    HW268630   8.218  11.903   6.894
88933SOL     OW68631   6.627   7.955   0.998
88933SOL    HW168632   6.647   7.998   1.081
88933SOL    HW268633   6.673   7.871   1.002
88934SOL     OW68634   8.709   5.344  13.540
88934SOL    HW168635   8.759   5.341  13.458
88934SOL    HW268636   8.637   5.282  13.527
88935SOL     OW68637   4.006   3.324   1.228
88935SOL    HW168638   4.082   3.343   1.283
88935SOL    HW268639   3.971   3.243   1.263
88936SOL     OW68640   8.165  11.576   2.191
88936SOL    HW168641   8.070  11.589   2.196
88936SOL    HW268642   8.192  11.564   2.282
88937SOL     OW68643  12.471   3.579   4.884
88937SOL    HW168644  12.442   3.554   4.796
88937SOL    HW268645  12.527   3.655   4.870
88938SOL     OW68646   9.596   0.283  12.197
88938SOL    HW168647   9.564   0.351  12.138
88938SOL    HW268648   9.522   0.224  12.208
88939SOL     OW68649  12.910   6.942   7.724
88939SOL    HW168650  12.875   7.029   7.708
88939SOL    HW268651  12.994   6.958   7.767
88940SOL     OW68652   0.565  14.120  11.853
88940SOL    HW168653   0.532  14.031  11.847
88940SOL    HW268654   0.622  14.120  11.930
88941SOL     OW68655   0.178   7.556  11.241
88941SOL    HW168656   0.129   7.601  11.309
88941SOL    HW268657   0.199   7.624  11.177
88942SOL     OW68658   4.060   2.121   8.215
88942SOL    HW168659   4.152   2.145   8.206
88942SOL    HW268660   4.056   2.029   8.188
88943SOL     OW68661   4.233   4.010   3.919
88943SOL    HW168662   4.180   4.050   3.987
88943SOL    HW268663   4.170   3.969   3.860
88944SOL     OW68664   2.071  13.520   2.770
88944SOL    HW168665   2.035  13.485   2.852
88944SOL    HW268666   2.164  13.496   2.773
88945SOL     OW68667   0.011   1.608   9.919
88945SOL    HW168668  14.845   1.692   9.932
88945SOL    HW268669  14.851   1.550   9.983
88946SOL     OW68670   8.574  14.762  12.858
88946SOL    HW168671   8.535  14.762  12.770
88946SOL    HW268672   8.629  14.841  12.859
88947SOL     OW68673   9.139   6.941  10.729
88947SOL    HW168674   9.221   6.892  10.720
88947SOL    HW268675   9.116   6.966  10.640
88948SOL     OW68676  11.639   8.632   1.735
88948SOL    HW168677  11.604   8.579   1.806
88948SOL    HW268678  11.620   8.722   1.761
88949SOL     OW68679   7.351  11.069   1.137
88949SOL    HW168680   7.346  11.114   1.221
88949SOL    HW268681   7.442  11.038   1.132
88950SOL     OW68682   7.279   3.074  11.292
88950SOL    HW168683   7.346   3.093  11.357
88950SOL    HW268684   7.197   3.071  11.341
88951SOL     OW68685   4.882   2.772  14.003
88951SOL    HW168686   4.949   2.793  13.938
88951SOL    HW268687   4.927   2.712  14.064
88952SOL     OW68688   4.221   3.558   5.756
88952SOL    HW168689   4.172   3.640   5.764
88952SOL    HW268690   4.302   3.582   5.711
88953SOL     OW68691   0.005   0.973  10.129
88953SOL    HW168692   0.028   0.903  10.190
88953SOL    HW268693   0.022   0.936  10.042
88954SOL     OW68694  11.667   9.351  12.516
88954SOL    HW168695  11.720   9.379  12.590
88954SOL    HW268696  11.730   9.315  12.454
88955SOL     OW68697   6.346   8.090  14.439
88955SOL    HW168698   6.364   7.998  14.458
88955SOL    HW268699   6.375   8.137  14.517
88956SOL     OW68700  10.841  13.660  11.197
88956SOL    HW168701  10.793  13.711  11.131
88956SOL    HW268702  10.872  13.583  11.149
88957SOL     OW68703   0.151   5.443   4.308
88957SOL    HW168704   0.212   5.517   4.311
88957SOL    HW268705   0.076   5.476   4.259
88958SOL     OW68706   9.228   0.626   1.123
88958SOL    HW168707   9.317   0.601   1.149
88958SOL    HW268708   9.227   0.614   1.028
88959SOL     OW68709  13.122   0.834  13.853
88959SOL    HW168710  13.131   0.888  13.932
88959SOL    HW268711  13.185   0.763  13.865
88960SOL     OW68712  14.430  10.378   5.462
88960SOL    HW168713  14.435  10.473   5.467
88960SOL    HW268714  14.489  10.347   5.530
88961SOL     OW68715   8.927   1.811  14.033
88961SOL    HW168716   8.897   1.721  14.044
88961SOL    HW268717   8.866   1.850  13.971
88962SOL     OW68718   3.394   2.989   0.537
88962SOL    HW168719   3.308   2.948   0.530
88962SOL    HW268720   3.422   2.971   0.626
88963SOL     OW68721   3.585  10.513  11.746
88963SOL    HW168722   3.604  10.500  11.839
88963SOL    HW268723   3.647  10.582  11.719
88964SOL     OW68724   6.340  14.650   3.023
88964SOL    HW168725   6.303  14.737   3.008
88964SOL    HW268726   6.283  14.611   3.089
88965SOL     OW68727   7.665   3.114   4.387
88965SOL    HW168728   7.658   3.065   4.306
88965SOL    HW268729   7.759   3.127   4.399
88966SOL     OW68730   1.660   5.683  13.287
88966SOL    HW168731   1.651   5.589  13.272
88966SOL    HW268732   1.670   5.720  13.200
88967SOL     OW68733   1.467   6.460   4.702
88967SOL    HW168734   1.479   6.421   4.789
88967SOL    HW268735   1.372   6.465   4.691
88968SOL     OW68736   9.087   7.763   8.439
88968SOL    HW168737   8.994   7.745   8.453
88968SOL    HW268738   9.103   7.739   8.348
88969SOL     OW68739   0.289  13.372  11.462
88969SOL    HW168740   0.212  13.422  11.490
88969SOL    HW268741   0.312  13.319  11.538
88970SOL     OW68742   6.334   2.457  11.035
88970SOL    HW168743   6.309   2.371  11.000
88970SOL    HW268744   6.355   2.509  10.958
88971SOL     OW68745   3.708   1.896   3.798
88971SOL    HW168746   3.795   1.864   3.822
88971SOL    HW268747   3.685   1.956   3.869
88972SOL     OW68748   3.699  10.692   5.061
88972SOL    HW168749   3.659  10.611   5.092
88972SOL    HW268750   3.630  10.738   5.013
88973SOL     OW68751  11.682   8.739  13.513
88973SOL    HW168752  11.684   8.665  13.452
88973SOL    HW268753  11.772   8.744  13.547
88974SOL     OW68754  12.694   5.184   2.384
88974SOL    HW168755  12.746   5.222   2.314
88974SOL    HW268756  12.730   5.222   2.464
88975SOL     OW68757   8.050  10.880  12.489
88975SOL    HW168758   8.132  10.928  12.491
88975SOL    HW268759   8.034  10.857  12.581
88976SOL     OW68760   8.423   2.730  12.077
88976SOL    HW168761   8.404   2.700  12.165
88976SOL    HW268762   8.509   2.773  12.084
88977SOL     OW68763   2.102   8.225   6.316
88977SOL    HW168764   2.144   8.271   6.389
88977SOL    HW268765   2.015   8.263   6.310
88978SOL     OW68766   0.906   5.196   1.351
88978SOL    HW168767   0.975   5.134   1.329
88978SOL    HW268768   0.952   5.273   1.384
88979SOL     OW68769  11.001   8.311   2.838
88979SOL    HW168770  10.934   8.244   2.827
88979SOL    HW268771  10.952   8.393   2.848
88980SOL     OW68772   7.131   8.098  13.338
88980SOL    HW168773   7.056   8.151  13.364
88980SOL    HW268774   7.184   8.092  13.417
88981SOL     OW68775   4.461   3.634   6.296
88981SOL    HW168776   4.378   3.623   6.342
88981SOL    HW268777   4.444   3.703   6.231
88982SOL     OW68778   1.148   0.053  13.256
88982SOL    HW168779   1.211   0.084  13.320
88982SOL    HW268780   1.065   0.047  13.304
88983SOL     OW68781  11.724   5.401   8.850
88983SOL    HW168782  11.773   5.438   8.924
88983SOL    HW268783  11.666   5.336   8.890
88984SOL     OW68784   3.814  11.981  10.870
88984SOL    HW168785   3.796  11.903  10.922
88984SOL    HW268786   3.786  11.957  10.781
88985SOL     OW68787   4.314  13.966   8.248
88985SOL    HW168788   4.295  14.058   8.267
88985SOL    HW268789   4.249  13.940   8.183
88986SOL     OW68790   2.332   0.033   5.915
88986SOL    HW168791   2.257  14.865   5.951
88986SOL    HW268792   2.363   0.088   5.987
88987SOL     OW68793  13.855  11.420   4.133
88987SOL    HW168794  13.918  11.351   4.113
88987SOL    HW268795  13.777  11.374   4.165
88988SOL     OW68796   7.244   2.794   6.795
88988SOL    HW168797   7.270   2.879   6.761
88988SOL    HW268798   7.327   2.750   6.815
88989SOL     OW68799   8.854  13.902  10.359
88989SOL    HW168800   8.877  13.810  10.367
88989SOL    HW268801   8.914  13.947  10.419
88990SOL     OW68802  14.429   1.481  13.303
88990SOL    HW168803  14.419   1.431  13.384
88990SOL    HW268804  14.434   1.416  13.234
88991SOL     OW68805   3.569   9.785  13.986
88991SOL    HW168806   3.489   9.795  13.934
88991SOL    HW268807   3.541   9.739  14.065
88992SOL     OW68808  14.136   0.866   3.308
88992SOL    HW168809  14.229   0.846   3.313
88992SOL    HW268810  14.096   0.789   3.267
88993SOL     OW68811   5.880  10.351  12.018
88993SOL    HW168812   5.962  10.393  12.044
88993SOL    HW268813   5.884  10.347  11.923
88994SOL     OW68814   7.858   4.369   5.159
88994SOL    HW168815   7.907   4.446   5.188
88994SOL    HW268816   7.913   4.295   5.185
88995SOL     OW68817   3.098  10.514  14.782
88995SOL    HW168818   3.016  10.472  14.754
88995SOL    HW268819   3.166  10.450  14.760
88996SOL     OW68820  10.581  14.790   4.548
88996SOL    HW168821  10.621  14.778   4.462
88996SOL    HW268822  10.527  14.713   4.561
88997SOL     OW68823   0.717   9.584   8.058
88997SOL    HW168824   0.751   9.669   8.030
88997SOL    HW268825   0.622   9.596   8.060
88998SOL     OW68826   2.911  13.137  10.172
88998SOL    HW168827   2.823  13.125  10.208
88998SOL    HW268828   2.913  13.227  10.141
88999SOL     OW68829   0.800  10.296   2.420
88999SOL    HW168830   0.754  10.288   2.336
88999SOL    HW268831   0.887  10.330   2.396
89000SOL     OW68832   1.085   6.674   7.343
89000SOL    HW168833   1.112   6.585   7.365
89000SOL    HW268834   1.022   6.698   7.411
89001SOL     OW68835   0.201  10.605   2.976
89001SOL    HW168836   0.281  10.574   2.934
89001SOL    HW268837   0.228  10.682   3.026
89002SOL     OW68838  10.511   3.228   2.984
89002SOL    HW168839  10.560   3.199   3.061
89002SOL    HW268840  10.542   3.318   2.969
89003SOL     OW68841   1.739  13.137  10.216
89003SOL    HW168842   1.766  13.229  10.218
89003SOL    HW268843   1.645  13.141  10.199
89004SOL     OW68844   8.968   7.799  11.340
89004SOL    HW168845   8.955   7.822  11.432
89004SOL    HW268846   9.014   7.715  11.343
89005SOL     OW68847   9.481   8.100  11.118
89005SOL    HW168848   9.432   8.115  11.199
89005SOL    HW268849   9.481   8.005  11.108
89006SOL     OW68850   4.971   0.219  12.095
89006SOL    HW168851   5.022   0.149  12.135
89006SOL    HW268852   5.035   0.266  12.040
89007SOL     OW68853   5.298  11.100   9.934
89007SOL    HW168854   5.316  11.011   9.962
89007SOL    HW268855   5.292  11.095   9.839
89008SOL     OW68856   3.194   6.875   9.561
89008SOL    HW168857   3.156   6.872   9.474
89008SOL    HW268858   3.158   6.954   9.601
89009SOL     OW68859  13.864   6.735   1.247
89009SOL    HW168860  13.915   6.816   1.250
89009SOL    HW268861  13.878   6.700   1.159
89010SOL     OW68862  11.571   0.598  13.907
89010SOL    HW168863  11.633   0.616  13.836
89010SOL    HW268864  11.490   0.640  13.879
89011SOL     OW68865  12.148   3.324  12.250
89011SOL    HW168866  12.062   3.317  12.210
89011SOL    HW268867  12.152   3.412  12.285
89012SOL     OW68868  13.517  11.594  14.338
89012SOL    HW168869  13.503  11.658  14.269
89012SOL    HW268870  13.504  11.642  14.420
89013SOL     OW68871  12.236   0.560  10.757
89013SOL    HW168872  12.190   0.607  10.826
89013SOL    HW268873  12.284   0.629  10.710
89014SOL     OW68874  12.683   3.888   3.403
89014SOL    HW168875  12.693   3.861   3.311
89014SOL    HW268876  12.598   3.852   3.429
89015SOL     OW68877   3.966   0.757   5.687
89015SOL    HW168878   3.914   0.697   5.634
89015SOL    HW268879   4.011   0.701   5.750
89016SOL     OW68880  14.404   4.652  10.973
89016SOL    HW168881  14.473   4.681  10.914
89016SOL    HW268882  14.439   4.574  11.015
89017SOL     OW68883   1.838  13.682  12.611
89017SOL    HW168884   1.761  13.644  12.568
89017SOL    HW268885   1.844  13.636  12.694
89018SOL     OW68886   1.646   2.154  12.618
89018SOL    HW168887   1.576   2.189  12.563
89018SOL    HW268888   1.628   2.060  12.624
89019SOL     OW68889   5.468   7.623   5.803
89019SOL    HW168890   5.544   7.565   5.811
89019SOL    HW268891   5.468   7.674   5.884
89020SOL     OW68892   7.167   2.599   7.083
89020SOL    HW168893   7.189   2.509   7.057
89020SOL    HW268894   7.083   2.590   7.128
89021SOL     OW68895  13.062  10.430   8.924
89021SOL    HW168896  13.133  10.489   8.901
89021SOL    HW268897  13.016  10.413   8.842
89022SOL     OW68898  11.020  13.589   7.240
89022SOL    HW168899  10.952  13.567   7.177
89022SOL    HW268900  11.102  13.570   7.196
89023SOL     OW68901  10.416  14.541   7.968
89023SOL    HW168902  10.438  14.498   7.885
89023SOL    HW268903  10.487  14.604   7.982
89024SOL     OW68904   0.602   6.034  10.832
89024SOL    HW168905   0.681   6.080  10.861
89024SOL    HW268906   0.531   6.073  10.884
89025SOL     OW68907   6.303   3.360   3.521
89025SOL    HW168908   6.243   3.426   3.557
89025SOL    HW268909   6.273   3.278   3.560
89026SOL     OW68910  11.575  11.209  11.000
89026SOL    HW168911  11.657  11.180  11.042
89026SOL    HW268912  11.526  11.252  11.070
89027SOL     OW68913   3.037  12.119  13.162
89027SOL    HW168914   3.129  12.093  13.168
89027SOL    HW268915   3.013  12.143  13.252
89028SOL     OW68916  13.165   6.639  10.588
89028SOL    HW168917  13.134   6.552  10.612
89028SOL    HW268918  13.133   6.653  10.499
89029SOL     OW68919   4.129   8.551  10.008
89029SOL    HW168920   4.107   8.472  10.057
89029SOL    HW268921   4.218   8.536   9.977
89030SOL     OW68922   6.109  12.621  12.767
89030SOL    HW168923   6.048  12.550  12.747
89030SOL    HW268924   6.176  12.581  12.822
89031SOL     OW68925  13.684   4.811   5.837
89031SOL    HW168926  13.614   4.874   5.821
89031SOL    HW268927  13.759   4.864   5.863
89032SOL     OW68928   9.619  13.891   6.808
89032SOL    HW168929   9.663  13.922   6.729
89032SOL    HW268930   9.643  13.799   6.815
89033SOL     OW68931   9.049   4.381   7.893
89033SOL    HW168932   9.081   4.442   7.960
89033SOL    HW268933   9.114   4.384   7.824
89034SOL     OW68934  11.481   4.780   5.369
89034SOL    HW168935  11.488   4.875   5.380
89034SOL    HW268936  11.551   4.759   5.307
89035SOL     OW68937   0.385   5.910  10.102
89035SOL    HW168938   0.384   5.839  10.166
89035SOL    HW268939   0.389   5.867  10.017
89036SOL     OW68940  10.854   7.260   1.467
89036SOL    HW168941  10.830   7.224   1.382
89036SOL    HW268942  10.903   7.190   1.510
89037SOL     OW68943   1.978   0.214  13.734
89037SOL    HW168944   2.037   0.138  13.732
89037SOL    HW268945   1.979   0.247  13.644
89038SOL     OW68946   0.832   1.214   8.400
89038SOL    HW168947   0.887   1.292   8.392
89038SOL    HW268948   0.811   1.209   8.493
89039SOL     OW68949  11.721  10.506   9.827
89039SOL    HW168950  11.633  10.529   9.855
89039SOL    HW268951  11.737  10.560   9.749
89040SOL     OW68952  13.545  12.900   4.316
89040SOL    HW168953  13.477  12.870   4.377
89040SOL    HW268954  13.617  12.838   4.329
89041SOL     OW68955   4.654  13.979   7.158
89041SOL    HW168956   4.744  14.009   7.173
89041SOL    HW268957   4.657  13.935   7.073
89042SOL     OW68958   6.797  13.774   4.071
89042SOL    HW168959   6.822  13.714   4.001
89042SOL    HW268960   6.865  13.842   4.069
89043SOL     OW68961  13.695  14.348  14.679
89043SOL    HW168962  13.625  14.372  14.740
89043SOL    HW268963  13.668  14.263  14.644
89044SOL     OW68964   5.122   5.241   8.364
89044SOL    HW168965   5.121   5.288   8.447
89044SOL    HW268966   5.197   5.278   8.317
89045SOL     OW68967   0.895  14.264   4.349
89045SOL    HW168968   0.853  14.198   4.404
89045SOL    HW268969   0.923  14.332   4.410
89046SOL     OW68970   6.926   1.554  13.525
89046SOL    HW168971   7.011   1.514  13.545
89046SOL    HW268972   6.929   1.572  13.431
89047SOL     OW68973   4.372  13.380  10.528
89047SOL    HW168974   4.399  13.355  10.440
89047SOL    HW268975   4.310  13.451  10.514
89048SOL     OW68976   6.893  11.412   7.662
89048SOL    HW168977   6.978  11.367   7.661
89048SOL    HW268978   6.892  11.464   7.582
89049SOL     OW68979   7.494  12.281   8.016
89049SOL    HW168980   7.525  12.357   7.966
89049SOL    HW268981   7.409  12.308   8.051
89050SOL     OW68982   4.242  11.119   0.071
89050SOL    HW168983   4.240  11.054   0.140
89050SOL    HW268984   4.299  11.188   0.104
89051SOL     OW68985   8.288  12.810  12.132
89051SOL    HW168986   8.324  12.795  12.045
89051SOL    HW268987   8.236  12.731  12.150
89052SOL     OW68988   1.936  11.446   3.875
89052SOL    HW168989   1.894  11.361   3.885
89052SOL    HW268990   1.973  11.444   3.786
89053SOL     OW68991   9.015   4.144   6.720
89053SOL    HW168992   8.952   4.135   6.649
89053SOL    HW268993   9.098   4.161   6.676
89054SOL     OW68994  12.111   8.029   9.588
89054SOL    HW168995  12.046   8.058   9.524
89054SOL    HW268996  12.067   7.960   9.638
89055SOL     OW68997   6.516  12.215   4.543
89055SOL    HW168998   6.549  12.298   4.508
89055SOL    HW268999   6.581  12.189   4.608
89056SOL     OW69000  12.668   9.271   8.807
89056SOL    HW169001  12.710   9.333   8.866
89056SOL    HW269002  12.669   9.315   8.722
89057SOL     OW69003  13.607   3.255  12.267
89057SOL    HW169004  13.524   3.234  12.310
89057SOL    HW269005  13.664   3.283  12.339
89058SOL     OW69006   9.363   8.552  14.443
89058SOL    HW169007   9.269   8.562  14.460
89058SOL    HW269008   9.405   8.582  14.523
89059SOL     OW69009  13.202  11.040   1.943
89059SOL    HW169010  13.208  11.133   1.924
89059SOL    HW269011  13.122  11.011   1.899
89060SOL     OW69012   0.178  11.715   6.505
89060SOL    HW169013   0.225  11.747   6.581
89060SOL    HW269014   0.246  11.703   6.438
89061SOL     OW69015   9.726   3.146   3.473
89061SOL    HW169016   9.745   3.231   3.432
89061SOL    HW269017   9.755   3.155   3.563
89062SOL     OW69018   3.489   7.539   5.836
89062SOL    HW169019   3.571   7.587   5.828
89062SOL    HW269020   3.454   7.536   5.746
89063SOL     OW69021   7.078   0.103  13.480
89063SOL    HW169022   7.017   0.161  13.525
89063SOL    HW269023   7.033   0.080  13.399
89064SOL     OW69024   7.658  13.990  11.998
89064SOL    HW169025   7.677  14.052  12.069
89064SOL    HW269026   7.572  14.016  11.966
89065SOL     OW69027  13.285   1.415   7.087
89065SOL    HW169028  13.369   1.447   7.119
89065SOL    HW269029  13.303   1.384   6.999
89066SOL     OW69030   8.888  11.707  12.341
89066SOL    HW169031   8.929  11.702  12.428
89066SOL    HW269032   8.841  11.624  12.332
89067SOL     OW69033   3.640   3.187   7.825
89067SOL    HW169034   3.611   3.268   7.868
89067SOL    HW269035   3.732   3.202   7.805
89068SOL     OW69036   5.866   6.663  10.106
89068SOL    HW169037   5.854   6.582  10.157
89068SOL    HW269038   5.940   6.706  10.147
89069SOL     OW69039   3.437   4.219   8.277
89069SOL    HW169040   3.389   4.188   8.200
89069SOL    HW269041   3.508   4.155   8.287
89070SOL     OW69042   4.922   1.494   6.318
89070SOL    HW169043   4.864   1.479   6.392
89070SOL    HW269044   4.999   1.537   6.355
89071SOL     OW69045  13.217  14.473   7.148
89071SOL    HW169046  13.204  14.540   7.081
89071SOL    HW269047  13.192  14.391   7.106
89072SOL     OW69048   0.717   1.460   7.864
89072SOL    HW169049   0.701   1.366   7.867
89072SOL    HW269050   0.812   1.468   7.858
89073SOL     OW69051   7.016  11.699   5.805
89073SOL    HW169052   7.102  11.737   5.823
89073SOL    HW269053   7.033  11.631   5.740
89074SOL     OW69054  11.082  13.452  11.377
89074SOL    HW169055  11.103  13.416  11.463
89074SOL    HW269056  11.159  13.503  11.352
89075SOL     OW69057   7.858   8.290   9.282
89075SOL    HW169058   7.942   8.258   9.248
89075SOL    HW269059   7.881   8.369   9.332
89076SOL     OW69060  12.275  10.641   6.408
89076SOL    HW169061  12.214  10.655   6.336
89076SOL    HW269062  12.346  10.703   6.391
89077SOL     OW69063  10.690   2.961   5.901
89077SOL    HW169064  10.738   2.961   5.818
89077SOL    HW269065  10.698   3.050   5.934
89078SOL     OW69066   9.824  11.380   0.503
89078SOL    HW169067   9.740  11.425   0.516
89078SOL    HW269068   9.889  11.449   0.501
89079SOL     OW69069   0.138   5.735   8.510
89079SOL    HW169070   0.135   5.653   8.560
89079SOL    HW269071   0.047   5.767   8.510
89080SOL     OW69072  12.323   4.615   6.884
89080SOL    HW169073  12.397   4.554   6.876
89080SOL    HW269074  12.303   4.640   6.794
89081SOL     OW69075  10.368  12.627   4.948
89081SOL    HW169076  10.355  12.629   4.854
89081SOL    HW269077  10.304  12.689   4.983
89082SOL     OW69078   5.918   8.787   9.647
89082SOL    HW169079   5.867   8.711   9.674
89082SOL    HW269080   5.855   8.846   9.606
89083SOL     OW69081   2.095   8.231   0.121
89083SOL    HW169082   2.150   8.170   0.171
89083SOL    HW269083   2.137   8.235   0.035
89084SOL     OW69084   6.342   7.858   1.373
89084SOL    HW169085   6.325   7.798   1.446
89084SOL    HW269086   6.260   7.906   1.362
89085SOL     OW69087   7.002   1.695   9.119
89085SOL    HW169088   7.008   1.628   9.051
89085SOL    HW269089   7.055   1.768   9.086
89086SOL     OW69090  13.109   5.173   2.511
89086SOL    HW169091  13.144   5.257   2.540
89086SOL    HW269092  13.091   5.185   2.417
89087SOL     OW69093  11.991   9.613   3.572
89087SOL    HW169094  11.919   9.673   3.589
89087SOL    HW269095  11.996   9.609   3.476
89088SOL     OW69096   5.450   7.158  10.389
89088SOL    HW169097   5.511   7.091  10.358
89088SOL    HW269098   5.385   7.111  10.439
89089SOL     OW69099  13.415  14.791   6.652
89089SOL    HW169100  13.405  14.842   6.732
89089SOL    HW269101  13.327  14.788   6.614
89090SOL     OW69102   9.979   1.469   7.231
89090SOL    HW169103   9.935   1.459   7.315
89090SOL    HW269104   9.919   1.429   7.168
89091SOL     OW69105   8.211   7.002   5.232
89091SOL    HW169106   8.218   6.940   5.305
89091SOL    HW269107   8.120   7.032   5.235
89092SOL     OW69108  10.653   1.590   9.971
89092SOL    HW169109  10.636   1.682   9.995
89092SOL    HW269110  10.572   1.544   9.994
89093SOL     OW69111  11.978  11.209   2.643
89093SOL    HW169112  11.935  11.293   2.627
89093SOL    HW269113  12.061  11.215   2.595
89094SOL     OW69114  11.076   6.724  11.203
89094SOL    HW169115  11.007   6.667  11.171
89094SOL    HW269116  11.150   6.666  11.220
89095SOL     OW69117   3.389   2.814   7.195
89095SOL    HW169118   3.389   2.900   7.237
89095SOL    HW269119   3.303   2.808   7.154
89096SOL     OW69120   1.835   7.162   9.707
89096SOL    HW169121   1.848   7.210   9.625
89096SOL    HW269122   1.831   7.070   9.681
89097SOL     OW69123   9.175   8.380   6.030
89097SOL    HW169124   9.180   8.474   6.050
89097SOL    HW269125   9.222   8.371   5.947
89098SOL     OW69126   1.501   2.727   3.314
89098SOL    HW169127   1.579   2.777   3.290
89098SOL    HW269128   1.435   2.793   3.332
89099SOL     OW69129   9.078  10.315  11.873
89099SOL    HW169130   9.027  10.236  11.891
89099SOL    HW269131   9.102  10.308  11.781
89100SOL     OW69132  11.473   7.981   0.574
89100SOL    HW169133  11.494   8.074   0.565
89100SOL    HW269134  11.459   7.951   0.484
89101SOL     OW69135   5.062   5.282   4.196
89101SOL    HW169136   5.148   5.324   4.193
89101SOL    HW269137   5.012   5.333   4.260
89102SOL     OW69138  12.762   2.491   2.992
89102SOL    HW169139  12.826   2.548   2.950
89102SOL    HW269140  12.806   2.407   3.002
89103SOL     OW69141  11.813   4.853   2.965
89103SOL    HW169142  11.776   4.911   2.900
89103SOL    HW269143  11.798   4.765   2.930
89104SOL     OW69144   8.658   6.996   1.639
89104SOL    HW169145   8.674   7.017   1.731
89104SOL    HW269146   8.563   6.994   1.631
89105SOL     OW69147   4.466   9.278  14.410
89105SOL    HW169148   4.464   9.218  14.335
89105SOL    HW269149   4.374   9.295  14.430
89106SOL     OW69150  10.180   1.110   5.850
89106SOL    HW169151  10.222   1.050   5.912
89106SOL    HW269152  10.222   1.194   5.865
89107SOL     OW69153   8.779   9.109   8.223
89107SOL    HW169154   8.714   9.136   8.288
89107SOL    HW269155   8.728   9.061   8.158
89108SOL     OW69156   2.735   1.033   6.083
89108SOL    HW169157   2.802   1.083   6.129
89108SOL    HW269158   2.754   1.048   5.990
89109SOL     OW69159   1.879   9.571  13.078
89109SOL    HW169160   1.928   9.523  13.145
89109SOL    HW269161   1.815   9.507  13.045
89110SOL     OW69162  14.347  13.864   6.961
89110SOL    HW169163  14.379  13.857   6.871
89110SOL    HW269164  14.368  13.779   7.000
89111SOL     OW69165   3.964   3.162  13.861
89111SOL    HW169166   4.022   3.133  13.791
89111SOL    HW269167   3.877   3.133  13.833
89112SOL     OW69168  11.248  10.486  13.774
89112SOL    HW169169  11.199  10.404  13.773
89112SOL    HW269170  11.197  10.544  13.831
89113SOL     OW69171   7.278  11.826   6.344
89113SOL    HW169172   7.200  11.782   6.376
89113SOL    HW269173   7.254  11.858   6.257
89114SOL     OW69174   2.410  14.169   9.220
89114SOL    HW169175   2.331  14.128   9.254
89114SOL    HW269176   2.395  14.263   9.230
89115SOL     OW69177   9.173  12.845  12.455
89115SOL    HW169178   9.265  12.834  12.431
89115SOL    HW269179   9.173  12.846  12.550
89116SOL     OW69180   6.210   3.926   6.364
89116SOL    HW169181   6.264   3.936   6.442
89116SOL    HW269182   6.152   3.853   6.384
89117SOL     OW69183   7.436  10.594  13.748
89117SOL    HW169184   7.361  10.637  13.707
89117SOL    HW269185   7.452  10.517  13.694
89118SOL     OW69186   0.881   3.438   1.831
89118SOL    HW169187   0.900   3.420   1.739
89118SOL    HW269188   0.795   3.398   1.845
89119SOL     OW69189   0.990  12.238   7.876
89119SOL    HW169190   1.037  12.182   7.938
89119SOL    HW269191   0.977  12.321   7.923
89120SOL     OW69192   0.289   2.013  13.224
89120SOL    HW169193   0.213   1.962  13.253
89120SOL    HW269194   0.353   1.947  13.197
89121SOL     OW69195   5.629  12.885  12.778
89121SOL    HW169196   5.561  12.908  12.841
89121SOL    HW269197   5.698  12.845  12.831
89122SOL     OW69198   0.460   9.653   8.126
89122SOL    HW169199   0.498   9.739   8.143
89122SOL    HW269200   0.429   9.659   8.035
89123SOL     OW69201   3.921   6.916  14.505
89123SOL    HW169202   3.880   6.830  14.493
89123SOL    HW269203   4.000   6.913  14.451
89124SOL     OW69204  10.272   3.658   8.143
89124SOL    HW169205  10.248   3.575   8.104
89124SOL    HW269206  10.198   3.682   8.198
89125SOL     OW69207  12.124  11.576   5.771
89125SOL    HW169208  12.144  11.664   5.805
89125SOL    HW269209  12.028  11.570   5.777
89126SOL     OW69210  12.560  14.842   5.654
89126SOL    HW169211  12.468  14.864   5.668
89126SOL    HW269212  12.559  14.783   5.579
89127SOL     OW69213  14.811   2.246  10.108
89127SOL    HW169214  14.765   2.296  10.040
89127SOL    HW269215  14.819   2.307  10.182
89128SOL     OW69216  14.336   0.818  11.893
89128SOL    HW169217  14.374   0.732  11.876
89128SOL    HW269218  14.315   0.818  11.986
89129SOL     OW69219  10.963  10.436  11.471
89129SOL    HW169220  11.053  10.454  11.496
89129SOL    HW269221  10.967  10.354  11.422
89130SOL     OW69222  10.917   6.214  12.085
89130SOL    HW169223  10.846   6.150  12.087
89130SOL    HW269224  10.937   6.226  11.993
89131SOL     OW69225   0.446  10.494   2.816
89131SOL    HW169226   0.392  10.452   2.749
89131SOL    HW269227   0.451  10.429   2.887
89132SOL     OW69228  13.534  11.454   9.929
89132SOL    HW169229  13.526  11.507   9.849
89132SOL    HW269230  13.459  11.481   9.983
89133SOL     OW69231  12.684  13.935   6.716
89133SOL    HW169232  12.598  13.941   6.757
89133SOL    HW269233  12.743  13.910   6.788
89134SOL     OW69234   6.598   3.424  13.046
89134SOL    HW169235   6.559   3.461  12.967
89134SOL    HW269236   6.691   3.417  13.026
89135SOL     OW69237   4.331   3.647   8.691
89135SOL    HW169238   4.362   3.625   8.779
89135SOL    HW269239   4.381   3.725   8.667
89136SOL     OW69240   4.861   6.823   2.933
89136SOL    HW169241   4.919   6.747   2.937
89136SOL    HW269242   4.897   6.885   2.996
89137SOL     OW69243   8.342  13.731   5.032
89137SOL    HW169244   8.263  13.698   5.075
89137SOL    HW269245   8.389  13.778   5.101
89138SOL     OW69246   0.234   9.174  13.292
89138SOL    HW169247   0.179   9.138  13.223
89138SOL    HW269248   0.193   9.146  13.373
89139SOL     OW69249  10.530  10.343  10.314
89139SOL    HW169250  10.444  10.303  10.308
89139SOL    HW269251  10.576  10.313  10.236
89140SOL     OW69252  11.859   4.837  13.876
89140SOL    HW169253  11.941   4.793  13.900
89140SOL    HW269254  11.885   4.926  13.854
89141SOL     OW69255   7.959   5.618   1.945
89141SOL    HW169256   8.039   5.570   1.963
89141SOL    HW269257   7.988   5.704   1.914
89142SOL     OW69258   3.489   4.139   8.785
89142SOL    HW169259   3.565   4.166   8.836
89142SOL    HW269260   3.496   4.189   8.704
89143SOL     OW69261  11.961   0.587   8.789
89143SOL    HW169262  11.972   0.655   8.723
89143SOL    HW269263  12.032   0.603   8.852
89144SOL     OW69264   8.329  11.792   4.671
89144SOL    HW169265   8.275  11.870   4.658
89144SOL    HW269266   8.342  11.787   4.765
89145SOL     OW69267   6.465  13.756  13.298
89145SOL    HW169268   6.543  13.808  13.319
89145SOL    HW269269   6.438  13.788  13.212
89146SOL     OW69270  12.283  10.199   6.512
89146SOL    HW169271  12.206  10.173   6.462
89146SOL    HW269272  12.344  10.231   6.446
89147SOL     OW69273   3.420   1.380   0.336
89147SOL    HW169274   3.460   1.466   0.330
89147SOL    HW269275   3.367   1.383   0.415
89148SOL     OW69276   2.907   6.034   0.887
89148SOL    HW169277   2.931   6.039   0.980
89148SOL    HW269278   2.858   5.953   0.879
89149SOL     OW69279   2.376   0.821   8.709
89149SOL    HW169280   2.326   0.764   8.651
89149SOL    HW269281   2.393   0.900   8.657
89150SOL     OW69282   3.263  13.361   0.556
89150SOL    HW169283   3.283  13.338   0.647
89150SOL    HW269284   3.323  13.432   0.536
89151SOL     OW69285  12.145   1.916   9.306
89151SOL    HW169286  12.118   1.990   9.252
89151SOL    HW269287  12.102   1.840   9.268
89152SOL     OW69288   2.061   1.883   8.677
89152SOL    HW169289   2.051   1.851   8.767
89152SOL    HW269290   2.155   1.897   8.667
89153SOL     OW69291   9.643   0.990   5.708
89153SOL    HW169292   9.675   1.049   5.640
89153SOL    HW269293   9.616   0.911   5.660
89154SOL     OW69294  12.208  11.603   2.534
89154SOL    HW169295  12.118  11.629   2.512
89154SOL    HW269296  12.229  11.533   2.472
89155SOL     OW69297   6.994   0.057   5.102
89155SOL    HW169298   6.973   0.001   5.027
89155SOL    HW269299   6.912   0.101   5.122
89156SOL     OW69300   5.480   7.199  11.405
89156SOL    HW169301   5.485   7.292  11.429
89156SOL    HW269302   5.559   7.161  11.444
89157SOL     OW69303   5.260  14.330  10.991
89157SOL    HW169304   5.316  14.340  11.068
89157SOL    HW269305   5.299  14.388  10.925
89158SOL     OW69306   3.406   1.213   7.495
89158SOL    HW169307   3.364   1.259   7.423
89158SOL    HW269308   3.500   1.222   7.478
89159SOL     OW69309   7.329  13.475  12.069
89159SOL    HW169310   7.424  13.469  12.059
89159SOL    HW269311   7.294  13.436  11.989
89160SOL     OW69312   5.904  10.156   0.314
89160SOL    HW169313   5.959  10.219   0.361
89160SOL    HW269314   5.948  10.072   0.326
89161SOL     OW69315   6.645   0.564   2.232
89161SOL    HW169316   6.667   0.580   2.140
89161SOL    HW269317   6.583   0.633   2.255
89162SOL     OW69318   0.568   4.165  12.767
89162SOL    HW169319   0.630   4.101  12.803
89162SOL    HW269320   0.622   4.242  12.748
89163SOL     OW69321  10.824   7.187   9.404
89163SOL    HW169322  10.840   7.102   9.446
89163SOL    HW269323  10.732   7.207   9.425
89164SOL     OW69324   0.959  10.184   1.666
89164SOL    HW169325   1.040  10.233   1.652
89164SOL    HW269326   0.963  10.112   1.604
89165SOL     OW69327   3.769   0.107  12.696
89165SOL    HW169328   3.733   0.184  12.739
89165SOL    HW269329   3.715   0.034  12.728
89166SOL     OW69330   5.756   1.053   0.370
89166SOL    HW169331   5.822   1.122   0.369
89166SOL    HW269332   5.789   0.986   0.311
89167SOL     OW69333  11.105   6.000   6.795
89167SOL    HW169334  11.159   5.929   6.831
89167SOL    HW269335  11.168   6.056   6.749
89168SOL     OW69336   2.880   0.608   2.114
89168SOL    HW169337   2.974   0.627   2.110
89168SOL    HW269338   2.876   0.514   2.126
89169SOL     OW69339   5.982  10.537   6.698
89169SOL    HW169340   6.062  10.568   6.655
89169SOL    HW269341   5.925  10.613   6.703
89170SOL     OW69342   8.255   2.002  11.886
89170SOL    HW169343   8.219   1.913  11.890
89170SOL    HW269344   8.187   2.052  11.841
89171SOL     OW69345   8.726   7.459   5.826
89171SOL    HW169346   8.669   7.525   5.866
89171SOL    HW269347   8.700   7.377   5.868
89172SOL     OW69348   0.348  10.985   0.834
89172SOL    HW169349   0.396  10.953   0.910
89172SOL    HW269350   0.279  11.041   0.871
89173SOL     OW69351   3.021   6.966  12.290
89173SOL    HW169352   3.036   6.884  12.243
89173SOL    HW269353   2.995   6.940  12.378
89174SOL     OW69354  14.629   4.459  10.549
89174SOL    HW169355  14.699   4.516  10.580
89174SOL    HW269356  14.558   4.518  10.525
89175SOL     OW69357   6.849   3.838   2.154
89175SOL    HW169358   6.891   3.755   2.178
89175SOL    HW269359   6.758   3.828   2.184
89176SOL     OW69360  10.303   7.493  11.962
89176SOL    HW169361  10.232   7.525  11.907
89176SOL    HW269362  10.342   7.422  11.911
89177SOL     OW69363   1.678   9.297   2.389
89177SOL    HW169364   1.589   9.328   2.370
89177SOL    HW269365   1.674   9.268   2.480
89178SOL     OW69366   5.935   3.892  13.303
89178SOL    HW169367   5.854   3.914  13.257
89178SOL    HW269368   5.939   3.796  13.300
89179SOL     OW69369  13.872  11.147  11.143
89179SOL    HW169370  13.917  11.062  11.145
89179SOL    HW269371  13.926  11.203  11.199
89180SOL     OW69372  13.644  14.792   1.865
89180SOL    HW169373  13.660  14.698   1.870
89180SOL    HW269374  13.720  14.826   1.816
89181SOL     OW69375   1.396   9.587  10.796
89181SOL    HW169376   1.301   9.599  10.792
89181SOL    HW269377   1.429   9.636  10.721
89182SOL     OW69378   4.048   6.792   9.423
89182SOL    HW169379   3.993   6.846   9.480
89182SOL    HW269380   4.137   6.821   9.441
89183SOL     OW69381   3.683  11.739   0.824
89183SOL    HW169382   3.713  11.806   0.886
89183SOL    HW269383   3.736  11.662   0.845
89184SOL     OW69384  12.898  14.344   5.711
89184SOL    HW169385  12.981  14.322   5.755
89184SOL    HW269386  12.918  14.338   5.618
89185SOL     OW69387   4.279   5.769  10.166
89185SOL    HW169388   4.274   5.697  10.102
89185SOL    HW269389   4.355   5.820  10.139
89186SOL     OW69390   1.533  12.398   4.074
89186SOL    HW169391   1.628  12.392   4.070
89186SOL    HW269392   1.502  12.345   4.001
89187SOL     OW69393  14.235  10.358   0.553
89187SOL    HW169394  14.257  10.419   0.623
89187SOL    HW269395  14.150  10.388   0.521
89188SOL     OW69396  10.440   5.434  13.655
89188SOL    HW169397  10.506   5.492  13.693
89188SOL    HW269398  10.356   5.468  13.688
89189SOL     OW69399   9.274  11.167  13.737
89189SOL    HW169400   9.332  11.108  13.785
89189SOL    HW269401   9.258  11.239  13.799
89190SOL     OW69402  10.397   1.857  10.059
89190SOL    HW169403  10.346   1.844   9.980
89190SOL    HW269404  10.470   1.912  10.032
89191SOL     OW69405   3.210  12.875  12.888
89191SOL    HW169406   3.191  12.935  12.960
89191SOL    HW269407   3.174  12.918  12.810
89192SOL     OW69408  10.580   1.299  11.604
89192SOL    HW169409  10.641   1.249  11.550
89192SOL    HW269410  10.503   1.310  11.548
89193SOL     OW69411  13.320  12.071   5.324
89193SOL    HW169412  13.331  12.065   5.229
89193SOL    HW269413  13.252  12.006   5.344
89194SOL     OW69414  12.649  11.414  11.229
89194SOL    HW169415  12.656  11.325  11.195
89194SOL    HW269416  12.670  11.470  11.153
89195SOL     OW69417   1.089   4.728  11.896
89195SOL    HW169418   1.089   4.747  11.990
89195SOL    HW269419   0.998   4.708  11.875
89196SOL     OW69420   1.253   0.216   7.392
89196SOL    HW169421   1.182   0.255   7.342
89196SOL    HW269422   1.331   0.231   7.339
89197SOL     OW69423  12.134   5.642   3.523
89197SOL    HW169424  12.165   5.678   3.439
89197SOL    HW269425  12.214   5.613   3.567
89198SOL     OW69426   3.968  12.686   3.935
89198SOL    HW169427   4.025  12.619   3.974
89198SOL    HW269428   3.907  12.637   3.881
89199SOL     OW69429   0.204   2.712   6.725
89199SOL    HW169430   0.266   2.784   6.735
89199SOL    HW269431   0.139   2.727   6.793
89200SOL     OW69432   1.315   6.888  10.804
89200SOL    HW169433   1.390   6.925  10.851
89200SOL    HW269434   1.289   6.958  10.743
89201SOL     OW69435  13.393  10.649   0.353
89201SOL    HW169436  13.432  10.562   0.363
89201SOL    HW269437  13.302  10.631   0.327
89202SOL     OW69438  13.877  12.410   8.849
89202SOL    HW169439  13.912  12.347   8.786
89202SOL    HW269440  13.953  12.463   8.874
89203SOL     OW69441   3.457   1.358   9.411
89203SOL    HW169442   3.506   1.400   9.481
89203SOL    HW269443   3.461   1.421   9.338
89204SOL     OW69444   2.085   9.177   2.491
89204SOL    HW169445   2.015   9.225   2.536
89204SOL    HW269446   2.061   9.183   2.398
89205SOL     OW69447   1.872  11.816   1.574
89205SOL    HW169448   1.892  11.724   1.590
89205SOL    HW269449   1.867  11.855   1.661
89206SOL     OW69450   0.668   4.537   7.195
89206SOL    HW169451   0.707   4.471   7.137
89206SOL    HW269452   0.687   4.506   7.283
89207SOL     OW69453   5.334   1.498  13.880
89207SOL    HW169454   5.291   1.577  13.846
89207SOL    HW269455   5.284   1.426  13.843
89208SOL     OW69456   6.079   4.240  11.050
89208SOL    HW169457   6.150   4.222  11.112
89208SOL    HW269458   6.050   4.329  11.073
89209SOL     OW69459   2.269  14.622  14.875
89209SOL    HW169460   2.352  14.601  14.833
89209SOL    HW269461   2.202  14.593  14.813
89210SOL     OW69462   7.995   8.373   8.797
89210SOL    HW169463   7.955   8.292   8.831
89210SOL    HW269464   8.084   8.373   8.832
89211SOL     OW69465   0.611   7.259   6.864
89211SOL    HW169466   0.594   7.354   6.868
89211SOL    HW269467   0.705   7.250   6.881
89212SOL     OW69468   9.284   8.988   0.387
89212SOL    HW169469   9.296   8.908   0.439
89212SOL    HW269470   9.192   8.986   0.360
89213SOL     OW69471   3.576   4.475  13.093
89213SOL    HW169472   3.597   4.517  13.176
89213SOL    HW269473   3.508   4.531  13.054
89214SOL     OW69474   7.871   1.057  11.493
89214SOL    HW169475   7.824   0.974  11.492
89214SOL    HW269476   7.894   1.070  11.585
89215SOL     OW69477   7.438  13.188   7.597
89215SOL    HW169478   7.428  13.151   7.510
89215SOL    HW269479   7.492  13.265   7.585
89216SOL     OW69480   0.432   1.271   7.567
89216SOL    HW169481   0.394   1.285   7.653
89216SOL    HW269482   0.516   1.227   7.584
89217SOL     OW69483  12.172   7.291   8.569
89217SOL    HW169484  12.170   7.231   8.643
89217SOL    HW269485  12.104   7.355   8.588
89218SOL     OW69486   8.377   0.530   6.754
89218SOL    HW169487   8.438   0.469   6.796
89218SOL    HW269488   8.357   0.490   6.669
89219SOL     OW69489   2.026  12.536  14.506
89219SOL    HW169490   2.005  12.455  14.553
89219SOL    HW269491   2.055  12.597  14.575
89220SOL     OW69492   9.036  10.015   6.102
89220SOL    HW169493   9.059   9.929   6.069
89220SOL    HW269494   8.988   9.998   6.184
89221SOL     OW69495  12.744   8.135  14.271
89221SOL    HW169496  12.731   8.041  14.272
89221SOL    HW269497  12.662   8.171  14.237
89222SOL     OW69498  12.656  10.501   1.080
89222SOL    HW169499  12.720  10.430   1.072
89222SOL    HW269500  12.662  10.548   0.996
89223SOL     OW69501   2.187   1.297   1.580
89223SOL    HW169502   2.187   1.381   1.625
89223SOL    HW269503   2.248   1.242   1.630
89224SOL     OW69504   5.621   9.791  13.274
89224SOL    HW169505   5.688   9.838  13.225
89224SOL    HW269506   5.577   9.736  13.209
89225SOL     OW69507   7.951   5.569   4.570
89225SOL    HW169508   7.934   5.482   4.604
89225SOL    HW269509   8.041   5.588   4.596
89226SOL     OW69510  13.496   3.581  14.528
89226SOL    HW169511  13.434   3.572  14.455
89226SOL    HW269512  13.514   3.491  14.555
89227SOL     OW69513   1.197   5.941  10.817
89227SOL    HW169514   1.254   5.880  10.770
89227SOL    HW269515   1.131   5.886  10.858
89228SOL     OW69516   5.870  13.328   8.396
89228SOL    HW169517   5.844  13.247   8.439
89228SOL    HW269518   5.801  13.344   8.331
89229SOL     OW69519  10.189   1.038   0.451
89229SOL    HW169520  10.284   1.047   0.443
89229SOL    HW269521  10.173   1.031   0.545
89230SOL     OW69522   4.064   0.729   1.590
89230SOL    HW169523   4.058   0.769   1.503
89230SOL    HW269524   4.156   0.704   1.599
89231SOL     OW69525  12.963   4.622   2.597
89231SOL    HW169526  13.022   4.570   2.652
89231SOL    HW269527  12.922   4.684   2.657
89232SOL     OW69528   9.079   5.371  11.275
89232SOL    HW169529   9.129   5.449  11.249
89232SOL    HW269530   8.992   5.405  11.299
89233SOL     OW69531   3.202   8.788   7.707
89233SOL    HW169532   3.257   8.839   7.648
89233SOL    HW269533   3.216   8.828   7.793
89234SOL     OW69534  11.138  14.629   1.606
89234SOL    HW169535  11.158  14.638   1.699
89234SOL    HW269536  11.175  14.707   1.565
89235SOL     OW69537   1.728   3.133  11.196
89235SOL    HW169538   1.733   3.079  11.275
89235SOL    HW269539   1.710   3.072  11.125
89236SOL     OW69540   0.983   1.568  10.406
89236SOL    HW169541   1.066   1.578  10.359
89236SOL    HW269542   0.917   1.598  10.344
89237SOL     OW69543   1.479   0.366  10.630
89237SOL    HW169544   1.412   0.433  10.611
89237SOL    HW269545   1.498   0.328  10.544
89238SOL     OW69546   4.086  11.339   7.849
89238SOL    HW169547   4.155  11.359   7.912
89238SOL    HW269548   4.013  11.394   7.877
89239SOL     OW69549   0.046   9.156  13.487
89239SOL    HW169550   0.069   9.216  13.558
89239SOL    HW269551  14.831   9.169  13.474
89240SOL     OW69552   3.137  10.478  12.596
89240SOL    HW169553   3.095  10.504  12.514
89240SOL    HW269554   3.171  10.390  12.579
89241SOL     OW69555  14.281   1.675  11.830
89241SOL    HW169556  14.345   1.710  11.768
89241SOL    HW269557  14.240   1.602  11.784
89242SOL     OW69558   9.887   7.811   2.818
89242SOL    HW169559   9.808   7.841   2.774
89242SOL    HW269560   9.868   7.721   2.845
89243SOL     OW69561  10.572   1.509  12.821
89243SOL    HW169562  10.491   1.535  12.866
89243SOL    HW269563  10.578   1.568  12.746
89244SOL     OW69564   3.276   9.225   5.494
89244SOL    HW169565   3.182   9.209   5.495
89244SOL    HW269566   3.295   9.255   5.405
89245SOL     OW69567   9.337   3.856   6.227
89245SOL    HW169568   9.330   3.810   6.310
89245SOL    HW269569   9.272   3.814   6.170
89246SOL     OW69570  13.331  13.892   1.863
89246SOL    HW169571  13.304  13.918   1.950
89246SOL    HW269572  13.403  13.830   1.878
89247SOL     OW69573   7.296   1.068  10.201
89247SOL    HW169574   7.326   1.080  10.291
89247SOL    HW269575   7.318   0.978  10.180
89248SOL     OW69576   2.426   6.198   3.841
89248SOL    HW169577   2.410   6.283   3.799
89248SOL    HW269578   2.341   6.155   3.840
89249SOL     OW69579   7.210   2.595  14.245
89249SOL    HW169580   7.135   2.653  14.229
89249SOL    HW269581   7.181   2.510  14.213
89250SOL     OW69582  10.048   2.320   1.619
89250SOL    HW169583  10.057   2.404   1.665
89250SOL    HW269584   9.997   2.265   1.678
89251SOL     OW69585   9.209   3.539  14.376
89251SOL    HW169586   9.264   3.532  14.298
89251SOL    HW269587   9.193   3.633  14.386
89252SOL     OW69588  10.233   0.560   2.774
89252SOL    HW169589  10.321   0.537   2.744
89252SOL    HW269590  10.187   0.477   2.779
89253SOL     OW69591   3.275   0.320   9.457
89253SOL    HW169592   3.284   0.399   9.405
89253SOL    HW269593   3.344   0.262   9.425
89254SOL     OW69594   2.685  11.368  12.897
89254SOL    HW169595   2.639  11.295  12.938
89254SOL    HW269596   2.626  11.397  12.827
89255SOL     OW69597  10.579  13.628   7.212
89255SOL    HW169598  10.500  13.616   7.159
89255SOL    HW269599  10.550  13.681   7.286
89256SOL     OW69600   4.965   3.619   7.753
89256SOL    HW169601   5.034   3.560   7.722
89256SOL    HW269602   4.922   3.649   7.673
89257SOL     OW69603   1.128  11.163   2.968
89257SOL    HW169604   1.094  11.230   2.909
89257SOL    HW269605   1.096  11.189   3.055
89258SOL     OW69606  12.627   0.530   5.938
89258SOL    HW169607  12.650   0.494   5.852
89258SOL    HW269608  12.652   0.623   5.932
89259SOL     OW69609  12.381  14.447   4.008
89259SOL    HW169610  12.359  14.430   4.099
89259SOL    HW269611  12.472  14.417   3.999
89260SOL     OW69612   6.495  12.304   6.559
89260SOL    HW169613   6.493  12.399   6.546
89260SOL    HW269614   6.589  12.283   6.567
89261SOL     OW69615  14.532   1.123   7.715
89261SOL    HW169616  14.554   1.180   7.640
89261SOL    HW269617  14.513   1.038   7.675
89262SOL     OW69618   1.219   3.572   9.314
89262SOL    HW169619   1.216   3.657   9.358
89262SOL    HW269620   1.297   3.529   9.349
89263SOL     OW69621   9.772   0.524  10.449
89263SOL    HW169622   9.760   0.501  10.357
89263SOL    HW269623   9.867   0.535  10.458
89264SOL     OW69624   7.549  12.996   5.429
89264SOL    HW169625   7.561  12.921   5.371
89264SOL    HW269626   7.581  13.071   5.378
89265SOL     OW69627  13.893  10.462   9.340
89265SOL    HW169628  13.921  10.503   9.422
89265SOL    HW269629  13.964  10.403   9.316
89266SOL     OW69630   2.320   5.453   1.702
89266SOL    HW169631   2.379   5.473   1.774
89266SOL    HW269632   2.326   5.529   1.644
89267SOL     OW69633   7.270   3.106   0.003
89267SOL    HW169634   7.294   3.061  14.801
89267SOL    HW269635   7.345   3.163   0.021
89268SOL     OW69636  10.088   9.414   0.585
89268SOL    HW169637  10.182   9.426   0.599
89268SOL    HW269638  10.077   9.320   0.573
89269SOL     OW69639  12.353   3.245   3.468
89269SOL    HW169640  12.260   3.241   3.448
89269SOL    HW269641  12.394   3.188   3.403
89270SOL     OW69642   2.051   1.474  11.611
89270SOL    HW169643   2.020   1.533  11.679
89270SOL    HW269644   2.135   1.441  11.644
89271SOL     OW69645   1.063  10.013   6.339
89271SOL    HW169646   1.043  10.057   6.257
89271SOL    HW269647   1.014  10.062   6.405
89272SOL     OW69648  11.933  12.872  10.680
89272SOL    HW169649  11.864  12.889  10.616
89272SOL    HW269650  12.015  12.890  10.633
89273SOL     OW69651   9.976   1.315   4.840
89273SOL    HW169652   9.955   1.271   4.923
89273SOL    HW269653  10.041   1.259   4.799
89274SOL     OW69654   4.594   5.575   0.207
89274SOL    HW169655   4.515   5.583   0.153
89274SOL    HW269656   4.666   5.597   0.147
89275SOL     OW69657  12.498   6.280  11.490
89275SOL    HW169658  12.455   6.356  11.530
89275SOL    HW269659  12.427   6.228  11.454
89276SOL     OW69660   3.602   0.168  11.083
89276SOL    HW169661   3.516   0.210  11.083
89276SOL    HW269662   3.660   0.232  11.126
89277SOL     OW69663  12.494  12.175  14.325
89277SOL    HW169664  12.452  12.204  14.405
89277SOL    HW269665  12.422  12.155  14.265
89278SOL     OW69666   6.389   6.626   6.755
89278SOL    HW169667   6.453   6.637   6.685
89278SOL    HW269668   6.399   6.704   6.810
89279SOL     OW69669  12.819   4.523  11.219
89279SOL    HW169670  12.894   4.502  11.275
89279SOL    HW269671  12.807   4.446  11.164
89280SOL     OW69672   7.682   8.313   0.564
89280SOL    HW169673   7.599   8.360   0.570
89280SOL    HW269674   7.661   8.223   0.588
89281SOL     OW69675  13.348   6.633  11.616
89281SOL    HW169676  13.271   6.652  11.563
89281SOL    HW269677  13.330   6.548  11.656
89282SOL     OW69678   6.929  11.452  12.782
89282SOL    HW169679   6.950  11.375  12.834
89282SOL    HW269680   6.976  11.439  12.699
89283SOL     OW69681   3.287   9.269  11.283
89283SOL    HW169682   3.260   9.225  11.203
89283SOL    HW269683   3.296   9.198  11.347
89284SOL     OW69684  10.655   3.610   1.530
89284SOL    HW169685  10.595   3.683   1.548
89284SOL    HW269686  10.632   3.583   1.441
89285SOL     OW69687  11.060   7.027  14.219
89285SOL    HW169688  11.016   6.989  14.143
89285SOL    HW269689  11.153   7.013  14.202
89286SOL     OW69690   0.736   2.647   2.861
89286SOL    HW169691   0.655   2.599   2.842
89286SOL    HW269692   0.730   2.726   2.808
89287SOL     OW69693   1.820   2.838   8.477
89287SOL    HW169694   1.823   2.742   8.468
89287SOL    HW269695   1.892   2.869   8.422
89288SOL     OW69696   5.664   1.671  10.586
89288SOL    HW169697   5.740   1.621  10.555
89288SOL    HW269698   5.636   1.626  10.665
89289SOL     OW69699   4.920   4.363   7.881
89289SOL    HW169700   4.931   4.419   7.958
89289SOL    HW269701   5.005   4.320   7.871
89290SOL     OW69702  13.385   2.620  13.763
89290SOL    HW169703  13.453   2.672  13.719
89290SOL    HW269704  13.407   2.530  13.742
89291SOL     OW69705   4.897   5.396   5.772
89291SOL    HW169706   4.975   5.340   5.770
89291SOL    HW269707   4.912   5.454   5.847
89292SOL     OW69708  11.698   8.684   3.644
89292SOL    HW169709  11.704   8.615   3.578
89292SOL    HW269710  11.745   8.758   3.606
89293SOL     OW69711  10.653   1.197   3.381
89293SOL    HW169712  10.716   1.258   3.419
89293SOL    HW269713  10.588   1.252   3.338
89294SOL     OW69714   3.295  14.386  11.850
89294SOL    HW169715   3.374  14.425  11.810
89294SOL    HW269716   3.329  14.318  11.908
89295SOL     OW69717  10.903  13.209   1.754
89295SOL    HW169718  10.886  13.206   1.848
89295SOL    HW269719  10.946  13.294   1.740
89296SOL     OW69720  10.903   3.342   3.515
89296SOL    HW169721  10.875   3.250   3.521
89296SOL    HW269722  10.906   3.361   3.422
89297SOL     OW69723  12.943   8.730   2.628
89297SOL    HW169724  12.894   8.797   2.677
89297SOL    HW269725  13.034   8.746   2.651
89298SOL     OW69726   1.541  10.515  10.699
89298SOL    HW169727   1.483  10.591  10.703
89298SOL    HW269728   1.544  10.483  10.790
89299SOL     OW69729   4.896   4.948   2.045
89299SOL    HW169730   4.974   5.000   2.026
89299SOL    HW269731   4.896   4.879   1.979
89300SOL     OW69732  13.505  13.488  14.438
89300SOL    HW169733  13.477  13.520  14.524
89300SOL    HW269734  13.443  13.418  14.417
89301SOL     OW69735   5.151   1.257   2.979
89301SOL    HW169736   5.118   1.312   3.050
89301SOL    HW269737   5.073   1.212   2.946
89302SOL     OW69738   1.944  12.457   5.006
89302SOL    HW169739   1.952  12.520   5.078
89302SOL    HW269740   1.920  12.509   4.930
89303SOL     OW69741   8.511  12.737  14.125
89303SOL    HW169742   8.531  12.765  14.215
89303SOL    HW269743   8.480  12.647  14.134
89304SOL     OW69744  11.362   3.051   3.054
89304SOL    HW169745  11.282   3.024   3.098
89304SOL    HW269746  11.401   3.116   3.112
89305SOL     OW69747   0.479   4.205  10.088
89305SOL    HW169748   0.503   4.192   9.997
89305SOL    HW269749   0.385   4.223  10.086
89306SOL     OW69750  13.682   5.248   9.362
89306SOL    HW169751  13.614   5.310   9.386
89306SOL    HW269752  13.640   5.162   9.368
89307SOL     OW69753  13.320   4.729   3.632
89307SOL    HW169754  13.351   4.644   3.601
89307SOL    HW269755  13.360   4.793   3.573
89308SOL     OW69756  13.342   6.589   1.216
89308SOL    HW169757  13.438   6.591   1.220
89308SOL    HW269758  13.322   6.555   1.129
89309SOL     OW69759   5.646   5.033   6.690
89309SOL    HW169760   5.676   5.123   6.680
89309SOL    HW269761   5.698   4.983   6.627
89310SOL     OW69762   9.160  14.203   0.679
89310SOL    HW169763   9.170  14.160   0.764
89310SOL    HW269764   9.247  14.236   0.658
89311SOL     OW69765   7.074   2.794   8.318
89311SOL    HW169766   7.134   2.770   8.249
89311SOL    HW269767   7.034   2.876   8.289
89312SOL     OW69768  11.303   7.967   2.021
89312SOL    HW169769  11.247   7.980   1.944
89312SOL    HW269770  11.338   7.879   2.009
89313SOL     OW69771  12.299   7.472   5.913
89313SOL    HW169772  12.208   7.477   5.883
89313SOL    HW269773  12.342   7.413   5.851
89314SOL     OW69774   9.660   7.658   8.384
89314SOL    HW169775   9.635   7.631   8.296
89314SOL    HW269776   9.578   7.656   8.433
89315SOL     OW69777  10.122   3.030   2.161
89315SOL    HW169778  10.177   3.053   2.087
89315SOL    HW269779  10.119   3.109   2.214
89316SOL     OW69780   7.247  14.235   3.104
89316SOL    HW169781   7.286  14.290   3.172
89316SOL    HW269782   7.201  14.296   3.047
89317SOL     OW69783  14.383   9.035   6.165
89317SOL    HW169784  14.405   9.107   6.225
89317SOL    HW269785  14.373   8.959   6.223
89318SOL     OW69786  10.830   1.155  12.841
89318SOL    HW169787  10.860   1.160  12.932
89318SOL    HW269788  10.884   1.218  12.794
89319SOL     OW69789   0.910  11.854   1.165
89319SOL    HW169790   0.981  11.847   1.102
89319SOL    HW269791   0.887  11.763   1.186
89320SOL     OW69792   2.249   9.857   8.842
89320SOL    HW169793   2.307   9.926   8.811
89320SOL    HW269794   2.216   9.815   8.763
89321SOL     OW69795  14.399   8.470  12.523
89321SOL    HW169796  14.383   8.555  12.564
89321SOL    HW269797  14.448   8.491  12.443
89322SOL     OW69798   2.337   5.812   6.478
89322SOL    HW169799   2.290   5.729   6.474
89322SOL    HW269800   2.272   5.875   6.512
89323SOL     OW69801   3.271   4.837  13.520
89323SOL    HW169802   3.280   4.915  13.574
89323SOL    HW269803   3.336   4.776  13.555
89324SOL     OW69804   0.859  10.233  11.643
89324SOL    HW169805   0.939  10.284  11.635
89324SOL    HW269806   0.795  10.281  11.590
89325SOL     OW69807   2.395  12.768  14.496
89325SOL    HW169808   2.347  12.837  14.449
89325SOL    HW269809   2.480  12.763  14.451
89326SOL     OW69810   8.177   4.642   0.417
89326SOL    HW169811   8.119   4.598   0.480
89326SOL    HW269812   8.252   4.584   0.409
89327SOL     OW69813   0.161   2.044   9.171
89327SOL    HW169814   0.205   2.092   9.101
89327SOL    HW269815   0.082   2.009   9.130
89328SOL     OW69816  12.154   4.056   3.920
89328SOL    HW169817  12.210   4.096   3.853
89328SOL    HW269818  12.170   4.108   3.999
89329SOL     OW69819   3.840  10.095   2.121
89329SOL    HW169820   3.901  10.053   2.060
89329SOL    HW269821   3.770  10.031   2.134
89330SOL     OW69822   1.938   9.019  10.591
89330SOL    HW169823   1.912   8.944  10.538
89330SOL    HW269824   1.956   9.088  10.528
89331SOL     OW69825  13.170   3.300   5.519
89331SOL    HW169826  13.098   3.316   5.582
89331SOL    HW269827  13.126   3.264   5.442
89332SOL     OW69828  13.567   1.059  11.012
89332SOL    HW169829  13.546   0.969  11.038
89332SOL    HW269830  13.495   1.112  11.047
89333SOL     OW69831   3.334   4.750   7.226
89333SOL    HW169832   3.402   4.745   7.159
89333SOL    HW269833   3.254   4.725   7.181
89334SOL     OW69834  11.568   0.973   3.693
89334SOL    HW169835  11.583   0.880   3.677
89334SOL    HW269836  11.488   0.992   3.643
89335SOL     OW69837   4.548   0.697  13.143
89335SOL    HW169838   4.514   0.617  13.103
89335SOL    HW269839   4.562   0.756  13.069
89336SOL     OW69840  13.490   1.522   0.115
89336SOL    HW169841  13.581   1.501   0.134
89336SOL    HW269842  13.481   1.505   0.021
89337SOL     OW69843   2.949   1.163  10.075
89337SOL    HW169844   3.017   1.216  10.033
89337SOL    HW269845   2.938   1.087  10.017
89338SOL     OW69846   8.200   6.857   5.456
89338SOL    HW169847   8.126   6.798   5.474
89338SOL    HW269848   8.277   6.800   5.463
89339SOL     OW69849  11.919   2.733   2.361
89339SOL    HW169850  11.890   2.776   2.442
89339SOL    HW269851  11.840   2.732   2.306
89340SOL     OW69852   9.033  10.575  13.707
89340SOL    HW169853   9.000  10.639  13.644
89340SOL    HW269854   9.115  10.613  13.738
89341SOL     OW69855  13.723   6.345  11.149
89341SOL    HW169856  13.782   6.420  11.146
89341SOL    HW269857  13.716   6.324  11.243
89342SOL     OW69858  14.817   9.350   8.296
89342SOL    HW169859  14.869   9.292   8.352
89342SOL    HW269860  14.866   9.356   8.214
89343SOL     OW69861   5.298   1.462   3.432
89343SOL    HW169862   5.330   1.374   3.417
89343SOL    HW269863   5.376   1.517   3.430
89344SOL     OW69864  12.273  11.098   6.849
89344SOL    HW169865  12.287  11.182   6.804
89344SOL    HW269866  12.351  11.047   6.827
89345SOL     OW69867  10.508  11.939  14.141
89345SOL    HW169868  10.436  11.938  14.205
89345SOL    HW269869  10.554  12.021  14.158
89346SOL     OW69870  12.944   8.893  12.823
89346SOL    HW169871  12.910   8.805  12.808
89346SOL    HW269872  13.039   8.882  12.826
89347SOL     OW69873  11.331   8.620  13.338
89347SOL    HW169874  11.257   8.583  13.289
89347SOL    HW269875  11.370   8.545  13.383
89348SOL     OW69876   6.098   4.841  14.022
89348SOL    HW169877   6.152   4.798  13.956
89348SOL    HW269878   6.086   4.930  13.990
89349SOL     OW69879  14.021  12.302  11.096
89349SOL    HW169880  14.001  12.294  11.002
89349SOL    HW269881  14.084  12.374  11.101
89350SOL     OW69882   4.877  10.546   9.159
89350SOL    HW169883   4.914  10.489   9.227
89350SOL    HW269884   4.909  10.633   9.180
89351SOL     OW69885   7.342   6.989   0.936
89351SOL    HW169886   7.336   6.896   0.916
89351SOL    HW269887   7.324   7.033   0.852
89352SOL     OW69888   7.254   2.288   4.181
89352SOL    HW169889   7.270   2.194   4.190
89352SOL    HW269890   7.190   2.308   4.249
89353SOL     OW69891   8.659   7.839  14.454
89353SOL    HW169892   8.699   7.906  14.509
89353SOL    HW269893   8.684   7.756  14.495
89354SOL     OW69894   1.914   7.507   0.095
89354SOL    HW169895   1.983   7.559   0.053
89354SOL    HW269896   1.892   7.556   0.174
89355SOL     OW69897  12.474   3.039   8.515
89355SOL    HW169898  12.508   3.115   8.562
89355SOL    HW269899  12.380   3.054   8.509
89356SOL     OW69900   9.998   7.376   6.384
89356SOL    HW169901  10.049   7.453   6.408
89356SOL    HW269902  10.003   7.318   6.461
89357SOL     OW69903  11.227   3.769   1.442
89357SOL    HW169904  11.197   3.856   1.468
89357SOL    HW269905  11.147   3.717   1.438
89358SOL     OW69906   4.835   2.426  13.015
89358SOL    HW169907   4.874   2.377  13.088
89358SOL    HW269908   4.744   2.439  13.041
89359SOL     OW69909   4.170  13.925  13.629
89359SOL    HW169910   4.125  13.973  13.559
89359SOL    HW269911   4.100  13.890  13.684
89360SOL     OW69912   8.978  10.681   5.267
89360SOL    HW169913   8.924  10.752   5.301
89360SOL    HW269914   9.028  10.720   5.195
89361SOL     OW69915   8.655  12.505   6.834
89361SOL    HW169916   8.685  12.546   6.753
89361SOL    HW269917   8.736  12.483   6.882
89362SOL     OW69918   4.098   7.626   4.364
89362SOL    HW169919   4.173   7.589   4.318
89362SOL    HW269920   4.131   7.647   4.451
89363SOL     OW69921   6.076  14.218   2.590
89363SOL    HW169922   6.098  14.126   2.573
89363SOL    HW269923   6.035  14.217   2.676
89364SOL     OW69924   5.158   1.668  13.048
89364SOL    HW169925   5.119   1.591  13.005
89364SOL    HW269926   5.089   1.733  13.048
89365SOL     OW69927  10.950   6.813  14.337
89365SOL    HW169928  10.905   6.770  14.264
89365SOL    HW269929  10.998   6.885  14.296
89366SOL     OW69930  10.225   2.077  11.607
89366SOL    HW169931  10.314   2.105  11.588
89366SOL    HW269932  10.172   2.157  11.600
89367SOL     OW69933   8.502   0.505  13.241
89367SOL    HW169934   8.568   0.571  13.220
89367SOL    HW269935   8.552   0.426  13.259
89368SOL     OW69936  12.907  12.027   8.010
89368SOL    HW169937  12.908  12.043   8.104
89368SOL    HW269938  12.955  12.100   7.973
89369SOL     OW69939   8.862   0.195  11.691
89369SOL    HW169940   8.883   0.124  11.630
89369SOL    HW269941   8.938   0.254  11.686
89370SOL     OW69942  12.023  11.429  10.713
89370SOL    HW169943  11.967  11.459  10.641
89370SOL    HW269944  12.086  11.499  10.726
89371SOL     OW69945  13.617  12.818   1.498
89371SOL    HW169946  13.602  12.906   1.465
89371SOL    HW269947  13.675  12.778   1.433
89372SOL     OW69948   9.528  11.449  14.597
89372SOL    HW169949   9.523  11.524  14.537
89372SOL    HW269950   9.496  11.375  14.546
89373SOL     OW69951   7.160   1.904   9.041
89373SOL    HW169952   7.098   1.956   8.989
89373SOL    HW269953   7.207   1.968   9.095
89374SOL     OW69954   2.078  11.132  14.394
89374SOL    HW169955   2.101  11.103  14.482
89374SOL    HW269956   2.099  11.058  14.338
89375SOL     OW69957   1.822  11.721   8.920
89375SOL    HW169958   1.859  11.780   8.854
89375SOL    HW269959   1.751  11.772   8.959
89376SOL     OW69960  11.532   6.899   8.642
89376SOL    HW169961  11.548   6.937   8.728
89376SOL    HW269962  11.546   6.805   8.654
89377SOL     OW69963   7.346   1.912   7.734
89377SOL    HW169964   7.277   1.947   7.678
89377SOL    HW269965   7.394   1.988   7.765
89378SOL     OW69966  14.812   6.613   4.979
89378SOL    HW169967  14.780   6.608   5.069
89378SOL    HW269968  14.876   6.684   4.980
89379SOL     OW69969   6.012  12.301  14.364
89379SOL    HW169970   6.087  12.297  14.305
89379SOL    HW269971   6.049  12.294  14.452
89380SOL     OW69972  14.538  10.861  14.360
89380SOL    HW169973  14.487  10.801  14.414
89380SOL    HW269974  14.625  10.822  14.355
89381SOL     OW69975   3.300   5.639   1.572
89381SOL    HW169976   3.394   5.627   1.583
89381SOL    HW269977   3.292   5.716   1.516
89382SOL     OW69978   1.542  14.546  10.967
89382SOL    HW169979   1.526  14.638  10.947
89382SOL    HW269980   1.515  14.536  11.058
89383SOL     OW69981   3.046   6.338  12.793
89383SOL    HW169982   3.058   6.263  12.735
89383SOL    HW269983   3.085   6.311  12.876
89384SOL     OW69984   2.408   5.379   9.902
89384SOL    HW169985   2.485   5.374   9.959
89384SOL    HW269986   2.443   5.406   9.817
89385SOL     OW69987  12.296   1.913  13.074
89385SOL    HW169988  12.241   1.872  13.007
89385SOL    HW269989  12.380   1.928  13.030
89386SOL     OW69990   4.747  13.065   1.634
89386SOL    HW169991   4.653  13.082   1.624
89386SOL    HW269992   4.779  13.141   1.683
89387SOL     OW69993   1.410   5.682  14.227
89387SOL    HW169994   1.400   5.599  14.274
89387SOL    HW269995   1.390   5.749  14.292
89388SOL     OW69996   0.190   4.777   7.410
89388SOL    HW169997   0.105   4.806   7.377
89388SOL    HW269998   0.252   4.801   7.341
89389SOL     OW69999   2.952   7.785  12.932
89389SOL    HW170000   3.000   7.739  12.863
89389SOL    HW270001   3.020   7.825  12.986
89390SOL     OW70002   0.912   6.275  14.140
89390SOL    HW170003   0.833   6.220  14.144
89390SOL    HW270004   0.946   6.275  14.230
89391SOL     OW70005  13.966   8.877   5.109
89391SOL    HW170006  14.022   8.818   5.060
89391SOL    HW270007  14.027   8.938   5.152
89392SOL     OW70008  12.562   2.466  13.773
89392SOL    HW170009  12.567   2.509  13.687
89392SOL    HW270010  12.646   2.486  13.814
89393SOL     OW70011  12.477   3.723   1.688
89393SOL    HW170012  12.449   3.641   1.648
89393SOL    HW270013  12.410   3.786   1.664
89394SOL     OW70014   8.685   6.444   4.758
89394SOL    HW170015   8.729   6.360   4.742
89394SOL    HW270016   8.612   6.446   4.695
89395SOL     OW70017   7.682   1.909  10.423
89395SOL    HW170018   7.660   1.912  10.517
89395SOL    HW270019   7.700   1.817  10.406
89396SOL     OW70020  10.999   2.347  14.260
89396SOL    HW170021  11.013   2.389  14.175
89396SOL    HW270022  11.039   2.261  14.251
89397SOL     OW70023   7.682  13.173  12.683
89397SOL    HW170024   7.597  13.150  12.722
89397SOL    HW270025   7.664  13.186  12.590
89398SOL     OW70026  12.539  10.197   3.671
89398SOL    HW170027  12.534  10.116   3.620
89398SOL    HW270028  12.509  10.172   3.758
89399SOL     OW70029  14.572   1.964  10.004
89399SOL    HW170030  14.542   1.929   9.920
89399SOL    HW270031  14.536   2.053  10.007
89400SOL     OW70032  10.559   8.496  13.777
89400SOL    HW170033  10.564   8.407  13.741
89400SOL    HW270034  10.465   8.511  13.788
89401SOL     OW70035   0.846   9.690   3.069
89401SOL    HW170036   0.819   9.610   3.025
89401SOL    HW270037   0.936   9.674   3.096
89402SOL     OW70038   3.044  14.138   2.367
89402SOL    HW170039   3.025  14.223   2.325
89402SOL    HW270040   2.962  14.089   2.360
89403SOL     OW70041  11.557   0.234  13.427
89403SOL    HW170042  11.568   0.254  13.334
89403SOL    HW270043  11.463   0.216  13.437
89404SOL     OW70044   5.116  12.696  14.354
89404SOL    HW170045   5.180  12.767  14.355
89404SOL    HW270046   5.167  12.617  14.372
89405SOL     OW70047   1.618   8.072  12.513
89405SOL    HW170048   1.635   8.116  12.596
89405SOL    HW270049   1.706   8.056  12.476
89406SOL     OW70050   6.963   9.508   1.806
89406SOL    HW170051   6.960   9.438   1.740
89406SOL    HW270052   7.056   9.525   1.820
89407SOL     OW70053   0.826  13.541   5.578
89407SOL    HW170054   0.841  13.595   5.656
89407SOL    HW270055   0.813  13.604   5.507
89408SOL     OW70056  13.387   6.649   1.693
89408SOL    HW170057  13.407   6.556   1.682
89408SOL    HW270058  13.404   6.688   1.608
89409SOL     OW70059   2.931   4.941   0.315
89409SOL    HW170060   2.841   4.956   0.343
89409SOL    HW270061   2.968   4.887   0.384
89410SOL     OW70062   4.771   7.837   7.430
89410SOL    HW170063   4.815   7.921   7.417
89410SOL    HW270064   4.841   7.774   7.446
89411SOL     OW70065   9.136   0.862  10.747
89411SOL    HW170066   9.094   0.894  10.827
89411SOL    HW270067   9.190   0.935  10.717
89412SOL     OW70068   7.963  11.429  11.667
89412SOL    HW170069   7.967  11.334  11.660
89412SOL    HW270070   7.980  11.460  11.578
89413SOL     OW70071   8.451  13.614   5.983
89413SOL    HW170072   8.378  13.667   5.949
89413SOL    HW270073   8.475  13.656   6.065
89414SOL     OW70074   6.864   5.518  10.938
89414SOL    HW170075   6.784   5.470  10.917
89414SOL    HW270076   6.848   5.606  10.905
89415SOL     OW70077   1.089   6.211  10.261
89415SOL    HW170078   1.140   6.151  10.316
89415SOL    HW270079   1.030   6.154  10.211
89416SOL     OW70080   3.913   4.709  13.077
89416SOL    HW170081   3.912   4.613  13.083
89416SOL    HW270082   4.005   4.733  13.089
89417SOL     OW70083   9.898   5.507   9.217
89417SOL    HW170084   9.872   5.569   9.286
89417SOL    HW270085   9.851   5.537   9.139
89418SOL     OW70086  12.366  13.940   4.830
89418SOL    HW170087  12.280  13.904   4.848
89418SOL    HW270088  12.425  13.864   4.833
89419SOL     OW70089  12.374   8.201   2.992
89419SOL    HW170090  12.415   8.278   2.952
89419SOL    HW270091  12.443   8.135   2.993
89420SOL     OW70092   2.629   1.366  12.980
89420SOL    HW170093   2.701   1.418  12.945
89420SOL    HW270094   2.636   1.281  12.935
89421SOL     OW70095  12.154   2.054   3.260
89421SOL    HW170096  12.131   2.011   3.177
89421SOL    HW270097  12.117   2.142   3.252
89422SOL     OW70098   0.871  10.507   5.051
89422SOL    HW170099   0.866  10.574   5.120
89422SOL    HW270100   0.852  10.555   4.970
89423SOL     OW70101   9.536   7.979   0.609
89423SOL    HW170102   9.562   7.955   0.520
89423SOL    HW270103   9.594   7.928   0.665
89424SOL     OW70104   1.567  10.653   4.195
89424SOL    HW170105   1.658  10.681   4.186
89424SOL    HW270106   1.539  10.634   4.105
89425SOL     OW70107   7.624   5.941  10.531
89425SOL    HW170108   7.713   5.908  10.548
89425SOL    HW270109   7.634   5.997  10.454
89426SOL     OW70110  10.548  12.811   5.567
89426SOL    HW170111  10.560  12.741   5.631
89426SOL    HW270112  10.462  12.793   5.528
89427SOL     OW70113  10.729   2.064   3.117
89427SOL    HW170114  10.802   2.112   3.077
89427SOL    HW270115  10.687   2.019   3.044
89428SOL     OW70116  13.914  13.309   5.126
89428SOL    HW170117  13.824  13.304   5.158
89428SOL    HW270118  13.942  13.217   5.119
89429SOL     OW70119   2.896  10.046   9.642
89429SOL    HW170120   2.893   9.954   9.669
89429SOL    HW270121   2.978  10.053   9.593
89430SOL     OW70122   9.563   6.336   4.972
89430SOL    HW170123   9.600   6.292   4.895
89430SOL    HW270124   9.638   6.380   5.012
89431SOL     OW70125   2.070  14.841   9.924
89431SOL    HW170126   2.131  14.784   9.972
89431SOL    HW270127   2.010  14.780   9.880
89432SOL     OW70128   9.562   6.695   2.332
89432SOL    HW170129   9.654   6.717   2.312
89432SOL    HW270130   9.527   6.664   2.249
89433SOL     OW70131  11.501  10.327   5.147
89433SOL    HW170132  11.462  10.412   5.165
89433SOL    HW270133  11.583  10.327   5.198
89434SOL     OW70134   9.951   3.861   9.737
89434SOL    HW170135   9.928   3.934   9.794
89434SOL    HW270136  10.005   3.901   9.668
89435SOL     OW70137   7.240   6.768  11.216
89435SOL    HW170138   7.282   6.703  11.271
89435SOL    HW270139   7.264   6.743  11.126
89436SOL     OW70140  10.129   2.850  11.981
89436SOL    HW170141  10.157   2.901  12.057
89436SOL    HW270142  10.211   2.818  11.943
89437SOL     OW70143   8.714   4.741   6.424
89437SOL    HW170144   8.783   4.675   6.416
89437SOL    HW270145   8.741   4.794   6.499
89438SOL     OW70146  11.685   3.510   2.619
89438SOL    HW170147  11.776   3.478   2.625
89438SOL    HW270148  11.681   3.582   2.682
89439SOL     OW70149  10.566   0.971   8.204
89439SOL    HW170150  10.595   1.047   8.154
89439SOL    HW270151  10.646   0.924   8.226
89440SOL     OW70152   4.032   1.591   1.162
89440SOL    HW170153   4.077   1.623   1.239
89440SOL    HW270154   3.985   1.513   1.192
89441SOL     OW70155   8.995  13.661   5.178
89441SOL    HW170156   8.918  13.693   5.130
89441SOL    HW270157   9.034  13.597   5.119
89442SOL     OW70158  14.171   7.284   5.414
89442SOL    HW170159  14.227   7.208   5.398
89442SOL    HW270160  14.138   7.271   5.503
89443SOL     OW70161  13.460  11.179  13.520
89443SOL    HW170162  13.393  11.194  13.586
89443SOL    HW270163  13.542  11.182  13.568
89444SOL     OW70164   4.527  14.723   3.651
89444SOL    HW170165   4.487  14.675   3.723
89444SOL    HW270166   4.522  14.663   3.577
89445SOL     OW70167  13.827   7.705   3.608
89445SOL    HW170168  13.747   7.655   3.594
89445SOL    HW270169  13.798   7.796   3.612
89446SOL     OW70170   7.437   3.774  12.244
89446SOL    HW170171   7.441   3.857  12.292
89446SOL    HW270172   7.526   3.763  12.210
89447SOL     OW70173  14.536   6.381   4.281
89447SOL    HW170174  14.492   6.459   4.246
89447SOL    HW270175  14.568   6.409   4.367
89448SOL     OW70176   4.817   1.821   8.888
89448SOL    HW170177   4.722   1.822   8.885
89448SOL    HW270178   4.840   1.728   8.887
89449SOL     OW70179   2.163  12.738  14.642
89449SOL    HW170180   2.248  12.755  14.601
89449SOL    HW270181   2.100  12.784  14.587
89450SOL     OW70182   6.434  14.596  11.048
89450SOL    HW170183   6.474  14.678  11.077
89450SOL    HW270184   6.485  14.569  10.972
89451SOL     OW70185  10.083   6.895   8.607
89451SOL    HW170186  10.064   6.834   8.678
89451SOL    HW270187  10.072   6.981   8.646
89452SOL     OW70188   0.901   8.761   8.587
89452SOL    HW170189   0.873   8.680   8.546
89452SOL    HW270190   0.839   8.827   8.556
89453SOL     OW70191  10.515   6.299  11.290
89453SOL    HW170192  10.445   6.236  11.275
89453SOL    HW270193  10.576   6.255  11.349
89454SOL     OW70194  12.935   5.614   7.785
89454SOL    HW170195  12.867   5.623   7.719
89454SOL    HW270196  13.009   5.576   7.738
89455SOL     OW70197  10.631   9.401  13.241
89455SOL    HW170198  10.724   9.420  13.233
89455SOL    HW270199  10.606   9.435  13.327
89456SOL     OW70200   3.342   9.384   8.052
89456SOL    HW170201   3.249   9.366   8.042
89456SOL    HW270202   3.378   9.374   7.964
89457SOL     OW70203   6.136  13.154   3.689
89457SOL    HW170204   6.123  13.244   3.658
89457SOL    HW270205   6.072  13.144   3.759
89458SOL     OW70206   5.851  10.481   8.203
89458SOL    HW170207   5.936  10.443   8.184
89458SOL    HW270208   5.871  10.572   8.228
89459SOL     OW70209  11.414  12.503   0.915
89459SOL    HW170210  11.463  12.493   0.834
89459SOL    HW270211  11.479  12.490   0.984
89460SOL     OW70212  14.139  11.125  12.640
89460SOL    HW170213  14.146  11.045  12.588
89460SOL    HW270214  14.222  11.171  12.624
89461SOL     OW70215   4.351  11.236  10.622
89461SOL    HW170216   4.444  11.244  10.642
89461SOL    HW270217   4.348  11.202  10.533
89462SOL     OW70218  14.203   4.317  13.910
89462SOL    HW170219  14.241   4.401  13.884
89462SOL    HW270220  14.190   4.325  14.005
89463SOL     OW70221   2.351   0.882   2.654
89463SOL    HW170222   2.385   0.909   2.569
89463SOL    HW270223   2.295   0.955   2.681
89464SOL     OW70224   3.810   0.543   2.420
89464SOL    HW170225   3.808   0.616   2.357
89464SOL    HW270226   3.742   0.483   2.389
89465SOL     OW70227   9.354   4.673  13.358
89465SOL    HW170228   9.337   4.725  13.280
89465SOL    HW270229   9.294   4.708  13.424
89466SOL     OW70230  11.313  14.621   6.893
89466SOL    HW170231  11.330  14.690   6.957
89466SOL    HW270232  11.274  14.665   6.818
89467SOL     OW70233   4.104  12.377   5.586
89467SOL    HW170234   4.061  12.350   5.505
89467SOL    HW270235   4.148  12.459   5.564
89468SOL     OW70236   9.366  13.361   9.881
89468SOL    HW170237   9.453  13.348   9.845
89468SOL    HW270238   9.358  13.456   9.892
89469SOL     OW70239  10.402   0.729   1.296
89469SOL    HW170240  10.361   0.784   1.229
89469SOL    HW270241  10.371   0.640   1.276
89470SOL     OW70242  11.358   0.241  14.845
89470SOL    HW170243  11.428   0.194  14.799
89470SOL    HW270244  11.377   0.229   0.059
89471SOL     OW70245   0.267   7.913   8.748
89471SOL    HW170246   0.285   7.888   8.839
89471SOL    HW270247   0.199   7.980   8.755
89472SOL     OW70248   1.619  13.408   2.911
89472SOL    HW170249   1.620  13.352   2.989
89472SOL    HW270250   1.637  13.348   2.839
89473SOL     OW70251   3.022  14.461  13.785
89473SOL    HW170252   2.993  14.496  13.869
89473SOL    HW270253   3.062  14.377  13.806
89474SOL     OW70254   0.317  11.683   0.693
89474SOL    HW170255   0.378  11.629   0.743
89474SOL    HW270256   0.230  11.659   0.726
89475SOL     OW70257   1.170   0.809   6.119
89475SOL    HW170258   1.154   0.820   6.213
89475SOL    HW270259   1.101   0.860   6.077
89476SOL     OW70260   8.818   3.600   4.790
89476SOL    HW170261   8.726   3.623   4.801
89476SOL    HW270262   8.819   3.542   4.713
89477SOL     OW70263   1.715   7.569  10.818
89477SOL    HW170264   1.749   7.647  10.775
89477SOL    HW270265   1.620   7.574  10.804
89478SOL     OW70266   4.270   5.820   5.623
89478SOL    HW170267   4.337   5.880   5.590
89478SOL    HW270268   4.190   5.845   5.576
89479SOL     OW70269  13.057   4.108   8.842
89479SOL    HW170270  13.016   4.187   8.878
89479SOL    HW270271  13.010   4.092   8.760
89480SOL     OW70272  11.297   5.317  10.198
89480SOL    HW170273  11.220   5.365  10.226
89480SOL    HW270274  11.345   5.298  10.279
89481SOL     OW70275   8.241   5.474   0.406
89481SOL    HW170276   8.240   5.497   0.313
89481SOL    HW270277   8.329   5.439   0.421
89482SOL     OW70278   0.985   1.258   2.589
89482SOL    HW170279   0.941   1.337   2.559
89482SOL    HW270280   1.034   1.227   2.512
89483SOL     OW70281  12.859  14.523   3.612
89483SOL    HW170282  12.818  14.584   3.551
89483SOL    HW270283  12.931  14.484   3.564
89484SOL     OW70284  13.771   0.456  10.333
89484SOL    HW170285  13.852   0.427  10.376
89484SOL    HW270286  13.765   0.403  10.254
89485SOL     OW70287   2.031   8.328  14.322
89485SOL    HW170288   1.975   8.393  14.365
89485SOL    HW270289   2.038   8.257  14.385
89486SOL     OW70290   7.360  11.040   0.856
89486SOL    HW170291   7.387  10.954   0.889
89486SOL    HW270292   7.368  11.098   0.932
89487SOL     OW70293   8.970   1.791   8.392
89487SOL    HW170294   9.039   1.750   8.445
89487SOL    HW270295   9.018   1.838   8.323
89488SOL     OW70296   7.565   6.248  14.685
89488SOL    HW170297   7.572   6.250  14.780
89488SOL    HW270298   7.497   6.313  14.664
89489SOL     OW70299   0.802   1.742   2.846
89489SOL    HW170300   0.716   1.783   2.858
89489SOL    HW270301   0.836   1.730   2.934
89490SOL     OW70302  13.028   0.923   7.901
89490SOL    HW170303  13.099   0.924   7.966
89490SOL    HW270304  12.956   0.969   7.943
89491SOL     OW70305  12.174  12.933  12.671
89491SOL    HW170306  12.190  12.992  12.597
89491SOL    HW270307  12.151  12.850  12.631
89492SOL     OW70308   9.311   6.333   5.071
89492SOL    HW170309   9.388   6.351   5.017
89492SOL    HW270310   9.239   6.374   5.022
89493SOL     OW70311   6.742   5.273   0.446
89493SOL    HW170312   6.837   5.265   0.443
89493SOL    HW270313   6.726   5.354   0.494
89494SOL     OW70314   2.110  13.208   8.237
89494SOL    HW170315   2.083  13.129   8.285
89494SOL    HW270316   2.027  13.246   8.207
89495SOL     OW70317  12.673   5.470   1.309
89495SOL    HW170318  12.608   5.511   1.367
89495SOL    HW270319  12.677   5.528   1.233
89496SOL     OW70320   0.773   4.303   2.083
89496SOL    HW170321   0.703   4.241   2.065
89496SOL    HW270322   0.819   4.267   2.158
89497SOL     OW70323  11.619  10.196   6.054
89497SOL    HW170324  11.542  10.169   6.003
89497SOL    HW270325  11.585  10.213   6.142
89498SOL     OW70326   7.835   3.781   6.653
89498SOL    HW170327   7.779   3.840   6.705
89498SOL    HW270328   7.902   3.751   6.715
89499SOL     OW70329   1.377   6.829   1.899
89499SOL    HW170330   1.426   6.871   1.970
89499SOL    HW270331   1.355   6.743   1.934
89500SOL     OW70332  13.581   1.387   3.301
89500SOL    HW170333  13.638   1.426   3.368
89500SOL    HW270334  13.625   1.306   3.276
89501SOL     OW70335   4.750   8.723  11.310
89501SOL    HW170336   4.687   8.744  11.380
89501SOL    HW270337   4.720   8.774  11.235
89502SOL     OW70338  10.545   0.071   6.728
89502SOL    HW170339  10.597   0.101   6.654
89502SOL    HW270340  10.502  14.870   6.697
89503SOL     OW70341  13.499   8.889   2.329
89503SOL    HW170342  13.497   8.794   2.316
89503SOL    HW270343  13.583   8.906   2.370
89504SOL     OW70344  14.875  13.647  11.941
89504SOL    HW170345  14.796  13.664  11.993
89504SOL    HW270346   0.038  13.572  11.984
89505SOL     OW70347   8.576  13.247   8.861
89505SOL    HW170348   8.660  13.201   8.854
89505SOL    HW270349   8.587  13.324   8.806
89506SOL     OW70350   8.706  14.440   6.765
89506SOL    HW170351   8.687  14.390   6.686
89506SOL    HW270352   8.772  14.388   6.811
89507SOL     OW70353  11.841   1.706  14.626
89507SOL    HW170354  11.785   1.661  14.563
89507SOL    HW270355  11.788   1.778  14.659
89508SOL     OW70356  13.981   3.952  13.424
89508SOL    HW170357  14.074   3.968  13.407
89508SOL    HW270358  13.978   3.861  13.454
89509SOL     OW70359   9.309   9.010  11.779
89509SOL    HW170360   9.299   9.095  11.821
89509SOL    HW270361   9.381   8.968  11.828
89510SOL     OW70362  11.022   9.510   1.305
89510SOL    HW170363  11.098   9.545   1.257
89510SOL    HW270364  10.952   9.572   1.284
89511SOL     OW70365   5.668   2.181   8.625
89511SOL    HW170366   5.739   2.229   8.667
89511SOL    HW270367   5.712   2.114   8.572
89512SOL     OW70368   9.243  14.197  14.655
89512SOL    HW170369   9.308  14.167  14.719
89512SOL    HW270370   9.188  14.121  14.639
89513SOL     OW70371   0.545   0.101   2.457
89513SOL    HW170372   0.491   0.024   2.473
89513SOL    HW270373   0.485   0.164   2.417
89514SOL     OW70374   5.631  11.765   3.160
89514SOL    HW170375   5.567  11.713   3.112
89514SOL    HW270376   5.625  11.734   3.251
89515SOL     OW70377   0.266   7.704   6.709
89515SOL    HW170378   0.348   7.726   6.665
89515SOL    HW270379   0.199   7.750   6.658
89516SOL     OW70380  10.363   7.340  10.208
89516SOL    HW170381  10.386   7.394  10.132
89516SOL    HW270382  10.267   7.341  10.209
89517SOL     OW70383   8.372   4.541  13.305
89517SOL    HW170384   8.310   4.608  13.277
89517SOL    HW270385   8.425   4.524  13.228
89518SOL     OW70386   8.261   8.082   5.501
89518SOL    HW170387   8.334   8.139   5.476
89518SOL    HW270388   8.221   8.126   5.576
89519SOL     OW70389   4.051   5.876   9.685
89519SOL    HW170390   4.090   5.920   9.609
89519SOL    HW270391   4.010   5.797   9.649
89520SOL     OW70392   4.624  10.178  13.503
89520SOL    HW170393   4.621  10.109  13.570
89520SOL    HW270394   4.708  10.165  13.459
89521SOL     OW70395   2.794  10.961  11.565
89521SOL    HW170396   2.818  10.884  11.514
89521SOL    HW270397   2.877  10.992  11.602
89522SOL     OW70398   0.717  14.508   5.488
89522SOL    HW170399   0.745  14.587   5.533
89522SOL    HW270400   0.676  14.454   5.556
89523SOL     OW70401   2.479   2.791   7.541
89523SOL    HW170402   2.421   2.760   7.472
89523SOL    HW270403   2.429   2.860   7.584
89524SOL     OW70404   1.733   3.143   1.309
89524SOL    HW170405   1.823   3.143   1.343
89524SOL    HW270406   1.710   3.235   1.303
89525SOL     OW70407   7.032   8.207  12.501
89525SOL    HW170408   7.014   8.249  12.417
89525SOL    HW270409   7.070   8.122  12.478
89526SOL     OW70410   2.210   6.842  11.059
89526SOL    HW170411   2.120   6.817  11.081
89526SOL    HW270412   2.239   6.774  10.998
89527SOL     OW70413  10.964   0.464   6.332
89527SOL    HW170414  10.940   0.555   6.350
89527SOL    HW270415  10.968   0.423   6.418
89528SOL     OW70416   1.324   0.239   4.407
89528SOL    HW170417   1.246   0.221   4.458
89528SOL    HW270418   1.397   0.211   4.462
89529SOL     OW70419   6.478   0.221   0.939
89529SOL    HW170420   6.432   0.305   0.938
89529SOL    HW270421   6.465   0.187   1.028
89530SOL     OW70422   7.210  12.347   4.621
89530SOL    HW170423   7.215  12.432   4.664
89530SOL    HW270424   7.117  12.323   4.627
89531SOL     OW70425  11.807   9.870   2.314
89531SOL    HW170426  11.867   9.867   2.239
89531SOL    HW270427  11.826   9.953   2.357
89532SOL     OW70428  11.782  14.059  13.355
89532SOL    HW170429  11.749  14.010  13.430
89532SOL    HW270430  11.721  14.038  13.284
89533SOL     OW70431  11.507  14.300   3.173
89533SOL    HW170432  11.453  14.359   3.120
89533SOL    HW270433  11.552  14.358   3.234
89534SOL     OW70434   5.312   0.253  11.095
89534SOL    HW170435   5.300   0.166  11.133
89534SOL    HW270436   5.232   0.300  11.117
89535SOL     OW70437  11.831  13.539  11.313
89535SOL    HW170438  11.758  13.547  11.251
89535SOL    HW270439  11.894  13.482  11.269
89536SOL     OW70440  12.562  12.914   8.196
89536SOL    HW170441  12.632  12.919   8.260
89536SOL    HW270442  12.591  12.847   8.134
89537SOL     OW70443   4.381   1.811   7.361
89537SOL    HW170444   4.317   1.754   7.318
89537SOL    HW270445   4.328   1.882   7.398
89538SOL     OW70446  11.333   9.698   5.689
89538SOL    HW170447  11.292   9.611   5.693
89538SOL    HW270448  11.371   9.703   5.602
89539SOL     OW70449  11.800   5.850   5.897
89539SOL    HW170450  11.779   5.796   5.822
89539SOL    HW270451  11.884   5.891   5.876
89540SOL     OW70452   8.400   0.431  14.124
89540SOL    HW170453   8.307   0.447  14.138
89540SOL    HW270454   8.403   0.353  14.068
89541SOL     OW70455  10.874   5.501   4.341
89541SOL    HW170456  10.806   5.567   4.353
89541SOL    HW270457  10.836   5.440   4.277
89542SOL     OW70458  13.826   1.959   5.904
89542SOL    HW170459  13.848   2.029   5.843
89542SOL    HW270460  13.792   1.889   5.849
89543SOL     OW70461  12.114   0.703  10.944
89543SOL    HW170462  12.168   0.750  11.008
89543SOL    HW270463  12.034   0.682  10.993
89544SOL     OW70464  11.750  12.794   8.117
89544SOL    HW170465  11.751  12.878   8.164
89544SOL    HW270466  11.687  12.809   8.046
89545SOL     OW70467  12.770  10.251   0.347
89545SOL    HW170468  12.824  10.328   0.330
89545SOL    HW270469  12.808  10.211   0.424
89546SOL     OW70470   6.952  13.981   3.980
89546SOL    HW170471   6.902  14.025   3.911
89546SOL    HW270472   7.042  13.980   3.947
89547SOL     OW70473  14.570  10.046  12.728
89547SOL    HW170474  14.539  10.005  12.647
89547SOL    HW270475  14.650   9.999  12.750
89548SOL     OW70476   1.413   6.539   2.776
89548SOL    HW170477   1.503   6.517   2.753
89548SOL    HW270478   1.384   6.599   2.707
89549SOL     OW70479   2.411   3.713   8.118
89549SOL    HW170480   2.373   3.799   8.099
89549SOL    HW270481   2.457   3.725   8.200
89550SOL     OW70482  14.714   8.936   0.169
89550SOL    HW170483  14.808   8.921   0.155
89550SOL    HW270484  14.672   8.863   0.123
89551SOL     OW70485   1.098   6.269  13.878
89551SOL    HW170486   1.084   6.179  13.849
89551SOL    HW270487   1.053   6.274  13.962
89552SOL     OW70488   5.609  13.272  11.532
89552SOL    HW170489   5.592  13.367  11.531
89552SOL    HW270490   5.703  13.265  11.520
89553SOL     OW70491  12.940   0.582   7.384
89553SOL    HW170492  12.865   0.642   7.380
89553SOL    HW270493  12.986   0.606   7.464
89554SOL     OW70494   2.814  10.935   8.154
89554SOL    HW170495   2.800  10.972   8.242
89554SOL    HW270496   2.804  11.010   8.095
89555SOL     OW70497   1.327  13.301   6.463
89555SOL    HW170498   1.356  13.392   6.466
89555SOL    HW270499   1.298  13.282   6.552
89556SOL     OW70500   1.994   5.212  11.742
89556SOL    HW170501   2.071   5.164  11.771
89556SOL    HW270502   1.940   5.147  11.697
89557SOL     OW70503   7.181   7.974  13.707
89557SOL    HW170504   7.226   7.896  13.739
89557SOL    HW270505   7.155   8.022  13.785
89558SOL     OW70506  14.490   3.650   2.481
89558SOL    HW170507  14.544   3.719   2.519
89558SOL    HW270508  14.402   3.687   2.480
89559SOL     OW70509  11.197  10.961   5.448
89559SOL    HW170510  11.273  11.019   5.440
89559SOL    HW270511  11.189  10.945   5.542
89560SOL     OW70512   3.699   6.402   0.305
89560SOL    HW170513   3.627   6.463   0.322
89560SOL    HW270514   3.722   6.418   0.213
89561SOL     OW70515   0.961   9.057   2.042
89561SOL    HW170516   0.963   9.130   2.104
89561SOL    HW270517   1.052   9.049   2.012
89562SOL     OW70518   4.436  12.464   9.618
89562SOL    HW170519   4.458  12.476   9.710
89562SOL    HW270520   4.396  12.547   9.592
89563SOL     OW70521  14.466   9.934   6.733
89563SOL    HW170522  14.383   9.981   6.737
89563SOL    HW270523  14.516   9.982   6.667
89564SOL     OW70524   3.854   0.576   9.697
89564SOL    HW170525   3.848   0.652   9.755
89564SOL    HW270526   3.820   0.504   9.750
89565SOL     OW70527   0.783   6.682   0.026
89565SOL    HW170528   0.845   6.753   0.007
89565SOL    HW270529   0.796   6.620  14.833
89566SOL     OW70530  11.612   1.986   8.144
89566SOL    HW170531  11.634   2.017   8.232
89566SOL    HW270532  11.620   1.891   8.149
89567SOL     OW70533   0.670   9.196   9.943
89567SOL    HW170534   0.580   9.226   9.931
89567SOL    HW270535   0.662   9.101   9.955
89568SOL     OW70536  12.872   5.420   6.957
89568SOL    HW170537  12.845   5.351   6.897
89568SOL    HW270538  12.808   5.490   6.944
89569SOL     OW70539   1.051   4.026  13.668
89569SOL    HW170540   0.998   4.093  13.624
89569SOL    HW270541   1.044   4.047  13.761
89570SOL     OW70542   1.739   2.772   9.713
89570SOL    HW170543   1.644   2.780   9.724
89570SOL    HW270544   1.761   2.836   9.646
89571SOL     OW70545  11.848   3.824  11.066
89571SOL    HW170546  11.801   3.749  11.029
89571SOL    HW270547  11.825   3.898  11.010
89572SOL     OW70548  13.553   1.092  10.504
89572SOL    HW170549  13.532   1.047  10.585
89572SOL    HW270550  13.474   1.141  10.482
89573SOL     OW70551  13.711   1.184   7.404
89573SOL    HW170552  13.781   1.185   7.469
89573SOL    HW270553  13.630   1.179   7.456
89574SOL     OW70554   1.414   5.664  12.953
89574SOL    HW170555   1.502   5.702  12.955
89574SOL    HW270556   1.427   5.573  12.980
89575SOL     OW70557  13.388   9.658   9.994
89575SOL    HW170558  13.406   9.728   9.932
89575SOL    HW270559  13.365   9.703  10.075
89576SOL     OW70560  14.029  13.682   3.836
89576SOL    HW170561  14.111  13.640   3.862
89576SOL    HW270562  13.965  13.652   3.901
89577SOL     OW70563  14.585  14.495   7.950
89577SOL    HW170564  14.510  14.511   7.893
89577SOL    HW270565  14.657  14.546   7.912
89578SOL     OW70566   2.663   6.629  14.662
89578SOL    HW170567   2.733   6.631  14.726
89578SOL    HW270568   2.593   6.683  14.700
89579SOL     OW70569   5.868   8.788   6.667
89579SOL    HW170570   5.942   8.831   6.711
89579SOL    HW270571   5.859   8.836   6.584
89580SOL     OW70572   1.454  14.310   7.753
89580SOL    HW170573   1.526  14.365   7.786
89580SOL    HW270574   1.427  14.258   7.829
89581SOL     OW70575   0.251   3.436   7.554
89581SOL    HW170576   0.188   3.367   7.532
89581SOL    HW270577   0.309   3.441   7.478
89582SOL     OW70578  14.699   3.381   1.049
89582SOL    HW170579  14.663   3.469   1.040
89582SOL    HW270580  14.637   3.336   1.107
89583SOL     OW70581   9.189  13.799  13.892
89583SOL    HW170582   9.209  13.734  13.823
89583SOL    HW270583   9.139  13.750  13.957
89584SOL     OW70584   1.807   0.975   4.431
89584SOL    HW170585   1.807   0.972   4.336
89584SOL    HW270586   1.846   1.059   4.453
89585SOL     OW70587   6.848  13.588  14.817
89585SOL    HW170588   6.767  13.577  14.767
89585SOL    HW270589   6.850  13.513  14.876
89586SOL     OW70590   9.499   4.387  14.333
89586SOL    HW170591   9.591   4.372  14.311
89586SOL    HW270592   9.494   4.481  14.352
89587SOL     OW70593  12.446  12.116   0.502
89587SOL    HW170594  12.379  12.082   0.443
89587SOL    HW270595  12.515  12.150   0.444
89588SOL     OW70596   5.417  12.972   7.253
89588SOL    HW170597   5.379  12.907   7.194
89588SOL    HW270598   5.408  13.055   7.207
89589SOL     OW70599  13.245   3.717   0.609
89589SOL    HW170600  13.228   3.648   0.673
89589SOL    HW270601  13.338   3.737   0.618
89590SOL     OW70602  14.407  10.187   3.799
89590SOL    HW170603  14.459  10.156   3.873
89590SOL    HW270604  14.437  10.276   3.784
89591SOL     OW70605   7.366  11.581   2.089
89591SOL    HW170606   7.378  11.674   2.066
89591SOL    HW270607   7.309  11.547   2.021
89592SOL     OW70608   5.888  10.278   5.740
89592SOL    HW170609   5.881  10.373   5.749
89592SOL    HW270610   5.823  10.256   5.673
89593SOL     OW70611  14.210  12.628  10.282
89593SOL    HW170612  14.289  12.661  10.239
89593SOL    HW270613  14.175  12.703  10.330
89594SOL     OW70614   3.299  10.575   1.149
89594SOL    HW170615   3.258  10.525   1.078
89594SOL    HW270616   3.288  10.519   1.226
89595SOL     OW70617   1.896   4.163  11.493
89595SOL    HW170618   1.843   4.241  11.478
89595SOL    HW270619   1.974   4.177  11.440
89596SOL     OW70620   1.600  13.580  12.520
89596SOL    HW170621   1.606  13.504  12.462
89596SOL    HW270622   1.530  13.633  12.483
89597SOL     OW70623  14.676   7.632   5.723
89597SOL    HW170624  14.609   7.640   5.790
89597SOL    HW270625  14.741   7.572   5.761
89598SOL     OW70626   5.460   5.724   3.372
89598SOL    HW170627   5.480   5.642   3.327
89598SOL    HW270628   5.364   5.731   3.367
89599SOL     OW70629  12.111   2.943   1.319
89599SOL    HW170630  12.099   3.037   1.306
89599SOL    HW270631  12.180   2.936   1.385
89600SOL     OW70632   8.424   4.607  13.913
89600SOL    HW170633   8.348   4.555  13.939
89600SOL    HW270634   8.488   4.543  13.882
89601SOL     OW70635   9.611   4.198   3.881
89601SOL    HW170636   9.680   4.255   3.916
89601SOL    HW270637   9.538   4.211   3.941
89602SOL     OW70638   7.049  10.135   0.324
89602SOL    HW170639   6.980  10.200   0.307
89602SOL    HW270640   7.040  10.114   0.417
89603SOL     OW70641   1.978  10.983   4.960
89603SOL    HW170642   2.027  11.025   4.889
89603SOL    HW270643   1.937  11.055   5.007
89604SOL     OW70644   2.545  13.683   7.733
89604SOL    HW170645   2.547  13.600   7.684
89604SOL    HW270646   2.613  13.674   7.799
89605SOL     OW70647   3.864   7.343   3.767
89605SOL    HW170648   3.887   7.296   3.847
89605SOL    HW270649   3.857   7.275   3.700
89606SOL     OW70650   3.056   1.050   3.721
89606SOL    HW170651   3.037   1.142   3.707
89606SOL    HW270652   3.041   1.009   3.636
89607SOL     OW70653  13.574   8.623  10.507
89607SOL    HW170654  13.538   8.593  10.424
89607SOL    HW270655  13.500   8.622  10.568
89608SOL     OW70656  14.097   7.507   0.860
89608SOL    HW170657  14.122   7.595   0.833
89608SOL    HW270658  14.113   7.453   0.783
89609SOL     OW70659  14.061  10.955   1.009
89609SOL    HW170660  13.997  11.023   0.992
89609SOL    HW270661  14.144  10.989   0.974
89610SOL     OW70662   9.719  11.178   5.773
89610SOL    HW170663   9.746  11.222   5.854
89610SOL    HW270664   9.624  11.191   5.770
89611SOL     OW70665   2.637   8.195   3.304
89611SOL    HW170666   2.699   8.160   3.241
89611SOL    HW270667   2.668   8.283   3.322
89612SOL     OW70668   6.691   3.469   3.260
89612SOL    HW170669   6.763   3.438   3.206
89612SOL    HW270670   6.694   3.413   3.338
89613SOL     OW70671   2.657   0.463   5.483
89613SOL    HW170672   2.596   0.529   5.450
89613SOL    HW270673   2.603   0.386   5.498
89614SOL     OW70674   3.110   9.220   3.413
89614SOL    HW170675   3.186   9.162   3.411
89614SOL    HW270676   3.037   9.164   3.388
89615SOL     OW70677  11.854  14.445  11.597
89615SOL    HW170678  11.784  14.392  11.634
89615SOL    HW270679  11.866  14.410  11.508
89616SOL     OW70680  13.851   5.229  11.528
89616SOL    HW170681  13.878   5.157  11.585
89616SOL    HW270682  13.777   5.270  11.573
89617SOL     OW70683  13.346  12.372   5.911
89617SOL    HW170684  13.285  12.434   5.871
89617SOL    HW270685  13.293  12.293   5.925
89618SOL     OW70686  13.495   8.886   3.153
89618SOL    HW170687  13.424   8.823   3.169
89618SOL    HW270688  13.463   8.940   3.080
89619SOL     OW70689  13.100  14.231   3.701
89619SOL    HW170690  13.010  14.241   3.671
89619SOL    HW270691  13.093  14.233   3.797
89620SOL     OW70692   7.517   7.143  11.486
89620SOL    HW170693   7.437   7.111  11.444
89620SOL    HW270694   7.520   7.098  11.570
89621SOL     OW70695   5.209   2.959  12.010
89621SOL    HW170696   5.244   3.041  11.976
89621SOL    HW270697   5.286   2.907  12.032
89622SOL     OW70698   2.861   0.879  12.550
89622SOL    HW170699   2.819   0.797  12.522
89622SOL    HW270700   2.954   0.865  12.533
89623SOL     OW70701  13.289  14.302   2.365
89623SOL    HW170702  13.384  14.310   2.366
89623SOL    HW270703  13.272  14.214   2.333
89624SOL     OW70704   8.325   2.011   5.374
89624SOL    HW170705   8.297   1.986   5.462
89624SOL    HW270706   8.317   2.107   5.373
89625SOL     OW70707   6.434  14.446   8.593
89625SOL    HW170708   6.386  14.506   8.651
89625SOL    HW270709   6.370  14.424   8.524
89626SOL     OW70710   1.058   5.193   7.366
89626SOL    HW170711   1.106   5.123   7.321
89626SOL    HW270712   1.033   5.153   7.450
89627SOL     OW70713  10.330   9.506   4.646
89627SOL    HW170714  10.383   9.432   4.677
89627SOL    HW270715  10.288   9.473   4.566
89628SOL     OW70716   5.834   7.190   5.458
89628SOL    HW170717   5.908   7.186   5.518
89628SOL    HW270718   5.758   7.207   5.514
89629SOL     OW70719   0.458   1.940   7.073
89629SOL    HW170720   0.374   1.984   7.061
89629SOL    HW270721   0.477   1.900   6.988
89630SOL     OW70722   6.658  14.195  12.365
89630SOL    HW170723   6.674  14.197  12.459
89630SOL    HW270724   6.743  14.214  12.325
89631SOL     OW70725  12.849   2.532  10.328
89631SOL    HW170726  12.793   2.484  10.267
89631SOL    HW270727  12.859   2.473  10.403
89632SOL     OW70728   8.175   0.790   0.475
89632SOL    HW170729   8.207   0.703   0.500
89632SOL    HW270730   8.195   0.846   0.550
89633SOL     OW70731   9.663   5.334  12.852
89633SOL    HW170732   9.709   5.401  12.802
89633SOL    HW270733   9.704   5.252  12.824
89634SOL     OW70734   6.244   5.631  11.892
89634SOL    HW170735   6.327   5.605  11.933
89634SOL    HW270736   6.231   5.721  11.921
89635SOL     OW70737   7.925  11.182   3.565
89635SOL    HW170738   7.970  11.192   3.481
89635SOL    HW270739   7.926  11.087   3.581
89636SOL     OW70740   5.629   6.528  10.755
89636SOL    HW170741   5.664   6.487  10.676
89636SOL    HW270742   5.684   6.494  10.826
89637SOL     OW70743   5.669   6.459  14.113
89637SOL    HW170744   5.698   6.414  14.033
89637SOL    HW270745   5.676   6.552  14.092
89638SOL     OW70746   4.672  14.273   5.991
89638SOL    HW170747   4.741  14.335   6.015
89638SOL    HW270748   4.624  14.259   6.073
89639SOL     OW70749   0.563   4.645   1.571
89639SOL    HW170750   0.522   4.720   1.614
89639SOL    HW270751   0.649   4.677   1.544
89640SOL     OW70752   0.249  11.581  10.093
89640SOL    HW170753   0.333  11.548  10.126
89640SOL    HW270754   0.242  11.546  10.005
89641SOL     OW70755   7.547   2.625   5.762
89641SOL    HW170756   7.635   2.637   5.727
89641SOL    HW270757   7.559   2.619   5.856
89642SOL     OW70758   9.411   5.978  14.442
89642SOL    HW170759   9.367   6.060  14.421
89642SOL    HW270760   9.470   6.001  14.514
89643SOL     OW70761   5.612   8.217   2.806
89643SOL    HW170762   5.634   8.150   2.871
89643SOL    HW270763   5.585   8.293   2.858
89644SOL     OW70764  13.589  11.060   5.360
89644SOL    HW170765  13.559  11.034   5.273
89644SOL    HW270766  13.684  11.053   5.356
89645SOL     OW70767   8.646   0.332   2.818
89645SOL    HW170768   8.628   0.360   2.728
89645SOL    HW270769   8.581   0.378   2.871
89646SOL     OW70770  13.158   6.020  12.972
89646SOL    HW170771  13.064   6.037  12.968
89646SOL    HW270772  13.166   5.943  13.029
89647SOL     OW70773   6.183   9.645  10.303
89647SOL    HW170774   6.264   9.621  10.258
89647SOL    HW270775   6.150   9.562  10.338
89648SOL     OW70776  12.591   9.727   9.321
89648SOL    HW170777  12.513   9.671   9.326
89648SOL    HW270778  12.654   9.676   9.271
89649SOL     OW70779   5.845   5.279  12.319
89649SOL    HW170780   5.861   5.244  12.232
89649SOL    HW270781   5.926   5.265  12.367
89650SOL     OW70782   9.881   2.600   4.098
89650SOL    HW170783   9.881   2.696   4.104
89650SOL    HW270784   9.857   2.582   4.008
89651SOL     OW70785   7.357   5.730  11.080
89651SOL    HW170786   7.381   5.638  11.069
89651SOL    HW270787   7.262   5.730  11.080
89652SOL     OW70788  13.864  14.441  12.113
89652SOL    HW170789  13.795  14.436  12.046
89652SOL    HW270790  13.816  14.443  12.196
89653SOL     OW70791  14.083   0.398   7.064
89653SOL    HW170792  14.041   0.330   7.010
89653SOL    HW270793  14.011   0.456   7.090
89654SOL     OW70794   1.246  13.285   7.686
89654SOL    HW170795   1.177  13.319   7.628
89654SOL    HW270796   1.205  13.281   7.772
89655SOL     OW70797  13.772   9.643   3.784
89655SOL    HW170798  13.818   9.619   3.865
89655SOL    HW270799  13.838   9.690   3.732
89656SOL     OW70800   9.274  12.068   3.948
89656SOL    HW170801   9.358  12.052   3.905
89656SOL    HW270802   9.259  11.990   4.001
89657SOL     OW70803   5.350   8.334  12.143
89657SOL    HW170804   5.392   8.282  12.075
89657SOL    HW270805   5.375   8.291  12.225
89658SOL     OW70806   2.354  13.040   6.546
89658SOL    HW170807   2.338  13.098   6.620
89658SOL    HW270808   2.333  13.092   6.469
89659SOL     OW70809   0.283   9.614  12.964
89659SOL    HW170810   0.363   9.659  12.992
89659SOL    HW270811   0.259   9.560  13.039
89660SOL     OW70812   5.043  11.938   2.959
89660SOL    HW170813   4.953  11.938   2.925
89660SOL    HW270814   5.038  11.993   3.038
89661SOL     OW70815   0.057   9.344   4.364
89661SOL    HW170816   0.148   9.361   4.343
89661SOL    HW270817   0.029   9.277   4.302
89662SOL     OW70818   9.798  11.011   2.276
89662SOL    HW170819   9.819  11.047   2.190
89662SOL    HW270820   9.819  11.082   2.337
89663SOL     OW70821   5.884   6.882   8.508
89663SOL    HW170822   5.961   6.901   8.561
89663SOL    HW270823   5.919   6.850   8.425
89664SOL     OW70824   8.246   9.443   9.378
89664SOL    HW170825   8.210   9.462   9.465
89664SOL    HW270826   8.326   9.494   9.373
89665SOL     OW70827   1.812  12.643   9.296
89665SOL    HW170828   1.846  12.731   9.313
89665SOL    HW270829   1.890  12.588   9.287
89666SOL     OW70830   8.210   1.611  14.239
89666SOL    HW170831   8.247   1.593  14.326
89666SOL    HW270832   8.281   1.590  14.178
89667SOL     OW70833   6.761  11.064  10.225
89667SOL    HW170834   6.841  11.057  10.277
89667SOL    HW270835   6.720  11.145  10.255
89668SOL     OW70836   3.316   6.528   0.788
89668SOL    HW170837   3.317   6.539   0.693
89668SOL    HW270838   3.300   6.617   0.822
89669SOL     OW70839   4.242   2.402  13.934
89669SOL    HW170840   4.245   2.367  14.024
89669SOL    HW270841   4.171   2.466  13.936
89670SOL     OW70842   5.952   6.195   1.245
89670SOL    HW170843   5.941   6.104   1.271
89670SOL    HW270844   6.031   6.224   1.291
89671SOL     OW70845  12.505   9.891  10.121
89671SOL    HW170846  12.412   9.870  10.109
89671SOL    HW270847  12.549   9.806  10.118
89672SOL     OW70848  10.739   5.409   4.859
89672SOL    HW170849  10.735   5.446   4.771
89672SOL    HW270850  10.692   5.472   4.913
89673SOL     OW70851   1.072   0.326   5.507
89673SOL    HW170852   1.026   0.370   5.578
89673SOL    HW270853   1.136   0.269   5.550
89674SOL     OW70854  13.536   2.466   8.737
89674SOL    HW170855  13.475   2.539   8.749
89674SOL    HW270856  13.617   2.495   8.778
89675SOL     OW70857   1.813   9.668  12.184
89675SOL    HW170858   1.852   9.624  12.109
89675SOL    HW270859   1.742   9.721  12.148
89676SOL     OW70860   0.553  13.288  13.375
89676SOL    HW170861   0.648  13.293  13.381
89676SOL    HW270862   0.529  13.215  13.432
89677SOL     OW70863   9.285   2.410   7.858
89677SOL    HW170864   9.206   2.408   7.804
89677SOL    HW270865   9.357   2.401   7.796
89678SOL     OW70866   7.120  12.407   9.368
89678SOL    HW170867   7.103  12.329   9.421
89678SOL    HW270868   7.034  12.430   9.333
89679SOL     OW70869   4.056  10.798  10.931
89679SOL    HW170870   4.018  10.885  10.938
89679SOL    HW270871   4.001  10.752  10.867
89680SOL     OW70872   9.784  13.190   7.554
89680SOL    HW170873   9.788  13.095   7.568
89680SOL    HW270874   9.823  13.203   7.467
89681SOL     OW70875  11.348   6.698   6.506
89681SOL    HW170876  11.337   6.619   6.453
89681SOL    HW270877  11.268   6.748   6.489
89682SOL     OW70878   0.556   5.610   5.075
89682SOL    HW170879   0.502   5.675   5.030
89682SOL    HW270880   0.495   5.538   5.096
89683SOL     OW70881   4.869   5.457  11.644
89683SOL    HW170882   4.838   5.533  11.693
89683SOL    HW270883   4.951   5.433  11.686
89684SOL     OW70884  11.212   0.625   5.296
89684SOL    HW170885  11.130   0.651   5.338
89684SOL    HW270886  11.201   0.531   5.281
89685SOL     OW70887   2.179   0.768   0.851
89685SOL    HW170888   2.119   0.833   0.887
89685SOL    HW270889   2.237   0.818   0.793
89686SOL     OW70890  11.430   2.869  10.341
89686SOL    HW170891  11.497   2.855  10.408
89686SOL    HW270892  11.416   2.783  10.302
89687SOL     OW70893  10.243   4.290   4.450
89687SOL    HW170894  10.248   4.384   4.430
89687SOL    HW270895  10.215   4.286   4.541
89688SOL     OW70896   4.480   2.316   8.461
89688SOL    HW170897   4.522   2.400   8.478
89688SOL    HW270898   4.514   2.289   8.375
89689SOL     OW70899  13.987  14.478   8.561
89689SOL    HW170900  14.069  14.527   8.565
89689SOL    HW270901  14.002  14.411   8.494
89690SOL     OW70902  10.182   6.039  11.761
89690SOL    HW170903  10.194   6.020  11.668
89690SOL    HW270904  10.103   5.990  11.784
89691SOL     OW70905   9.978  12.813   0.691
89691SOL    HW170906  10.019  12.891   0.728
89691SOL    HW270907   9.983  12.826   0.596
89692SOL     OW70908   1.907   8.571   1.683
89692SOL    HW170909   1.945   8.490   1.716
89692SOL    HW270910   1.976   8.636   1.693
89693SOL     OW70911   5.712   8.965   9.569
89693SOL    HW170912   5.675   8.984   9.655
89693SOL    HW270913   5.659   9.016   9.508
89694SOL     OW70914  11.471   9.057   0.430
89694SOL    HW170915  11.554   9.083   0.469
89694SOL    HW270916  11.487   8.968   0.397
89695SOL     OW70917   2.849  13.659   2.954
89695SOL    HW170918   2.927  13.650   2.899
89695SOL    HW270919   2.871  13.731   3.014
89696SOL     OW70920  10.501  10.214  12.658
89696SOL    HW170921  10.519  10.124  12.632
89696SOL    HW270922  10.510  10.265  12.577
89697SOL     OW70923  13.310   2.423   3.747
89697SOL    HW170924  13.356   2.446   3.666
89697SOL    HW270925  13.245   2.493   3.758
89698SOL     OW70926   2.382   1.517   0.810
89698SOL    HW170927   2.293   1.547   0.826
89698SOL    HW270928   2.407   1.558   0.728
89699SOL     OW70929   6.975  10.241  12.647
89699SOL    HW170930   7.036  10.190  12.700
89699SOL    HW270931   6.907  10.269  12.709
89700SOL     OW70932  10.576   4.263  13.648
89700SOL    HW170933  10.625   4.344  13.654
89700SOL    HW270934  10.495   4.287  13.601
89701SOL     OW70935   3.493  11.493   7.513
89701SOL    HW170936   3.432  11.463   7.445
89701SOL    HW270937   3.566  11.431   7.509
89702SOL     OW70938  10.817   2.122  10.332
89702SOL    HW170939  10.764   2.136  10.254
89702SOL    HW270940  10.781   2.184  10.397
89703SOL     OW70941  12.467   9.716   3.270
89703SOL    HW170942  12.382   9.758   3.251
89703SOL    HW270943  12.515   9.720   3.188
89704SOL     OW70944  10.094   0.365   7.022
89704SOL    HW170945   9.999   0.356   7.013
89704SOL    HW270946  10.128   0.353   6.933
89705SOL     OW70947   2.304   0.630   2.841
89705SOL    HW170948   2.244   0.665   2.907
89705SOL    HW270949   2.299   0.692   2.769
89706SOL     OW70950   1.224  12.962   9.178
89706SOL    HW170951   1.173  12.898   9.128
89706SOL    HW270952   1.211  13.045   9.132
89707SOL     OW70953   1.798   6.162   0.501
89707SOL    HW170954   1.808   6.231   0.566
89707SOL    HW270955   1.888   6.142   0.473
89708SOL     OW70956   6.219   2.777   2.118
89708SOL    HW170957   6.154   2.777   2.047
89708SOL    HW270958   6.292   2.725   2.084
89709SOL     OW70959   1.124   7.676  14.568
89709SOL    HW170960   1.160   7.757  14.603
89709SOL    HW270961   1.116   7.692  14.474
89710SOL     OW70962   4.294   0.729  12.279
89710SOL    HW170963   4.253   0.642  12.276
89710SOL    HW270964   4.371   0.717  12.335
89711SOL     OW70965   8.556  12.602   1.911
89711SOL    HW170966   8.613  12.631   1.840
89711SOL    HW270967   8.482  12.662   1.908
89712SOL     OW70968   2.196   3.901  11.821
89712SOL    HW170969   2.124   3.961  11.798
89712SOL    HW270970   2.249   3.897  11.742
89713SOL     OW70971   7.702  14.777   4.340
89713SOL    HW170972   7.713  14.807   4.431
89713SOL    HW270973   7.743  14.846   4.287
89714SOL     OW70974   1.682   5.349   4.773
89714SOL    HW170975   1.594   5.372   4.800
89714SOL    HW270976   1.737   5.370   4.848
89715SOL     OW70977   6.163   1.326  14.217
89715SOL    HW170978   6.103   1.252  14.233
89715SOL    HW270979   6.250   1.288  14.227
89716SOL     OW70980   7.585   5.207  14.634
89716SOL    HW170981   7.533   5.164  14.702
89716SOL    HW270982   7.533   5.197  14.554
89717SOL     OW70983   4.314  10.897   5.528
89717SOL    HW170984   4.219  10.896   5.514
89717SOL    HW270985   4.337  10.990   5.525
89718SOL     OW70986   7.858  12.705   1.738
89718SOL    HW170987   7.784  12.663   1.779
89718SOL    HW270988   7.898  12.759   1.807
89719SOL     OW70989  12.861   1.343  11.761
89719SOL    HW170990  12.911   1.320  11.839
89719SOL    HW270991  12.785   1.285  11.762
89720SOL     OW70992   3.090   4.696   4.006
89720SOL    HW170993   3.002   4.667   3.985
89720SOL    HW270994   3.093   4.698   4.101
89721SOL     OW70995   7.119  12.599  13.807
89721SOL    HW170996   7.200  12.643  13.835
89721SOL    HW270997   7.113  12.522  13.864
89722SOL     OW70998   9.328   0.590   4.024
89722SOL    HW170999   9.262   0.597   4.092
89722SOL    HW271000   9.319   0.672   3.974
89723SOL     OW71001   1.078   4.903   2.261
89723SOL    HW171002   1.164   4.910   2.220
89723SOL    HW271003   1.034   4.985   2.239
89724SOL     OW71004   4.867  13.486   5.738
89724SOL    HW171005   4.784  13.521   5.708
89724SOL    HW271006   4.844  13.428   5.811
89725SOL     OW71007   2.189  14.865   8.579
89725SOL    HW171008   2.096  14.843   8.568
89725SOL    HW271009   2.191   0.082   8.575
89726SOL     OW71010   6.157   8.206  13.394
89726SOL    HW171011   6.081   8.256  13.422
89726SOL    HW271012   6.225   8.226  13.458
89727SOL     OW71013   0.303  13.490  10.372
89727SOL    HW171014   0.343  13.547  10.307
89727SOL    HW271015   0.378  13.453  10.420
89728SOL     OW71016  11.187  10.544   9.979
89728SOL    HW171017  11.218  10.508  10.062
89728SOL    HW271018  11.206  10.475   9.915
89729SOL     OW71019  11.651   3.398   6.349
89729SOL    HW171020  11.656   3.412   6.255
89729SOL    HW271021  11.720   3.335   6.368
89730SOL     OW71022  12.564  14.474   5.667
89730SOL    HW171023  12.572  14.414   5.592
89730SOL    HW271024  12.481  14.520   5.652
89731SOL     OW71025   6.311  14.562   1.115
89731SOL    HW171026   6.277  14.645   1.083
89731SOL    HW271027   6.379  14.586   1.179
89732SOL     OW71028   7.709  10.280   6.800
89732SOL    HW171029   7.633  10.295   6.856
89732SOL    HW271030   7.681  10.210   6.741
89733SOL     OW71031   0.281   8.340  12.128
89733SOL    HW171032   0.330   8.260  12.146
89733SOL    HW271033   0.190   8.318  12.150
89734SOL     OW71034  14.328   5.767   7.616
89734SOL    HW171035  14.249   5.795   7.570
89734SOL    HW271036  14.397   5.770   7.550
89735SOL     OW71037  14.417   8.289   1.639
89735SOL    HW171038  14.411   8.217   1.576
89735SOL    HW271039  14.493   8.340   1.610
89736SOL     OW71040  13.146   2.215   5.212
89736SOL    HW171041  13.082   2.207   5.284
89736SOL    HW271042  13.093   2.211   5.133
89737SOL     OW71043   6.709   6.756   8.389
89737SOL    HW171044   6.689   6.727   8.300
89737SOL    HW271045   6.664   6.694   8.446
89738SOL     OW71046   4.827   5.084  12.136
89738SOL    HW171047   4.855   5.168  12.099
89738SOL    HW271048   4.736   5.075  12.107
89739SOL     OW71049   0.454   7.762   9.825
89739SOL    HW171050   0.539   7.718   9.822
89739SOL    HW271051   0.474   7.855   9.826
89740SOL     OW71052  13.958   4.024   9.441
89740SOL    HW171053  13.985   3.966   9.370
89740SOL    HW271054  13.910   4.094   9.398
89741SOL     OW71055  10.015   4.780   6.905
89741SOL    HW171056  10.017   4.717   6.977
89741SOL    HW271057  10.090   4.837   6.921
89742SOL     OW71058   1.937   9.395   2.295
89742SOL    HW171059   1.861   9.345   2.326
89742SOL    HW271060   1.940   9.375   2.201
89743SOL     OW71061   8.012   3.602  12.957
89743SOL    HW171062   8.004   3.696  12.944
89743SOL    HW271063   7.953   3.582  13.030
89744SOL     OW71064   8.241  13.699   8.892
89744SOL    HW171065   8.218  13.633   8.958
89744SOL    HW271066   8.183  13.680   8.818
89745SOL     OW71067   3.005   7.795  14.340
89745SOL    HW171068   2.992   7.732  14.411
89745SOL    HW271069   3.099   7.796  14.326
89746SOL     OW71070   5.223   0.798   0.054
89746SOL    HW171071   5.312   0.823   0.029
89746SOL    HW271072   5.202   0.723  14.877
89747SOL     OW71073   7.501   8.052  13.945
89747SOL    HW171074   7.570   8.076  14.007
89747SOL    HW271075   7.436   8.006  13.998
89748SOL     OW71076  11.496  11.088   0.196
89748SOL    HW171077  11.574  11.080   0.250
89748SOL    HW271078  11.473  10.998   0.173
89749SOL     OW71079  12.104  12.466   7.932
89749SOL    HW171080  12.164  12.436   8.000
89749SOL    HW271081  12.107  12.397   7.865
89750SOL     OW71082  10.066   6.568  10.411
89750SOL    HW171083  10.017   6.486  10.411
89750SOL    HW271084  10.069   6.594  10.319
89751SOL     OW71085   3.678   9.321   9.322
89751SOL    HW171086   3.706   9.356   9.237
89751SOL    HW271087   3.583   9.316   9.315
89752SOL     OW71088   1.176   0.899  14.776
89752SOL    HW171089   1.208   0.976  14.729
89752SOL    HW271090   1.185   0.922  14.868
89753SOL     OW71091  13.634   0.578  14.299
89753SOL    HW171092  13.549   0.622  14.300
89753SOL    HW271093  13.689   0.631  14.242
89754SOL     OW71094   8.053   8.645  13.451
89754SOL    HW171095   8.122   8.578  13.447
89754SOL    HW271096   8.016   8.647  13.363
89755SOL     OW71097   5.141   7.141   7.350
89755SOL    HW171098   5.075   7.134   7.280
89755SOL    HW271099   5.098   7.192   7.418
89756SOL     OW71100   4.779  11.068  12.641
89756SOL    HW171101   4.831  11.081  12.720
89756SOL    HW271102   4.838  11.024  12.580
89757SOL     OW71103   5.576   8.976   5.801
89757SOL    HW171104   5.541   8.897   5.759
89757SOL    HW271105   5.624   8.944   5.877
89758SOL     OW71106  11.393   1.634  14.678
89758SOL    HW171107  11.395   1.727  14.655
89758SOL    HW271108  11.314   1.624  14.732
89759SOL     OW71109   0.452   8.413   6.091
89759SOL    HW171110   0.359   8.391   6.088
89759SOL    HW271111   0.494   8.333   6.123
89760SOL     OW71112  13.253  14.863   7.239
89760SOL    HW171113  13.328   0.037   7.211
89760SOL    HW271114  13.254  14.868   7.334
89761SOL     OW71115   7.235  12.512   2.532
89761SOL    HW171116   7.234  12.416   2.537
89761SOL    HW271117   7.328  12.534   2.535
89762SOL     OW71118   6.363   9.296  12.758
89762SOL    HW171119   6.439   9.260  12.804
89762SOL    HW271120   6.330   9.222  12.705
89763SOL     OW71121  10.485  10.185   9.031
89763SOL    HW171122  10.488  10.268   9.078
89763SOL    HW271123  10.575  10.171   9.000
89764SOL     OW71124  11.593   8.344   8.075
89764SOL    HW171125  11.673   8.395   8.086
89764SOL    HW271126  11.621   8.267   8.025
89765SOL     OW71127  14.674  11.672  10.510
89765SOL    HW171128  14.697  11.590  10.467
89765SOL    HW271129  14.585  11.690  10.482
89766SOL     OW71130   1.927   0.740  14.331
89766SOL    HW171131   1.973   0.800  14.272
89766SOL    HW271132   1.850   0.789  14.359
89767SOL     OW71133   2.570  14.060   3.615
89767SOL    HW171134   2.501  14.113   3.576
89767SOL    HW271135   2.550  14.059   3.709
89768SOL     OW71136   5.399   3.814   1.778
89768SOL    HW171137   5.479   3.866   1.770
89768SOL    HW271138   5.368   3.831   1.866
89769SOL     OW71139  12.672   5.314   4.506
89769SOL    HW171140  12.692   5.397   4.548
89769SOL    HW271141  12.665   5.251   4.578
89770SOL     OW71142   7.128   0.116   7.991
89770SOL    HW171143   7.139   0.210   7.976
89770SOL    HW271144   7.130   0.077   7.904
89771SOL     OW71145  12.112   1.074  11.006
89771SOL    HW171146  12.048   1.049  10.940
89771SOL    HW271147  12.094   1.167  11.023
89772SOL     OW71148   4.238   1.711   1.627
89772SOL    HW171149   4.214   1.743   1.714
89772SOL    HW271150   4.266   1.621   1.642
89773SOL     OW71151  11.666   0.702   3.647
89773SOL    HW171152  11.678   0.648   3.569
89773SOL    HW271153  11.745   0.686   3.700
89774SOL     OW71154   2.329   8.521   3.087
89774SOL    HW171155   2.271   8.478   3.151
89774SOL    HW271156   2.329   8.613   3.113
89775SOL     OW71157  10.133   5.928  13.191
89775SOL    HW171158  10.112   6.021  13.199
89775SOL    HW271159  10.228   5.926  13.177
89776SOL     OW71160   8.642   7.265   6.976
89776SOL    HW171161   8.683   7.345   6.941
89776SOL    HW271162   8.555   7.293   7.005
89777SOL     OW71163   5.447  14.296  12.322
89777SOL    HW171164   5.514  14.270  12.258
89777SOL    HW271165   5.367  14.255  12.289
89778SOL     OW71166   9.689   1.040   2.430
89778SOL    HW171167   9.653   0.967   2.481
89778SOL    HW271168   9.781   1.046   2.458
89779SOL     OW71169  10.006   8.225  10.453
89779SOL    HW171170  10.076   8.224  10.387
89779SOL    HW271171   9.966   8.139  10.446
89780SOL     OW71172   4.801  10.504   4.967
89780SOL    HW171173   4.840  10.521   5.053
89780SOL    HW271174   4.847  10.564   4.908
89781SOL     OW71175   7.520   8.435   8.957
89781SOL    HW171176   7.589   8.380   8.994
89781SOL    HW271177   7.475   8.471   9.034
89782SOL     OW71178   5.491   9.814  13.932
89782SOL    HW171179   5.398   9.814  13.910
89782SOL    HW271180   5.514   9.907  13.938
89783SOL     OW71181   8.319   7.771   3.680
89783SOL    HW171182   8.342   7.678   3.692
89783SOL    HW271183   8.236   7.781   3.726
89784SOL     OW71184   2.222   4.554   0.407
89784SOL    HW171185   2.182   4.613   0.471
89784SOL    HW271186   2.149   4.525   0.353
89785SOL     OW71187  14.202  11.397  13.442
89785SOL    HW171188  14.279  11.412  13.386
89785SOL    HW271189  14.153  11.329  13.397
89786SOL     OW71190   2.116  13.246  10.868
89786SOL    HW171191   2.036  13.225  10.821
89786SOL    HW271192   2.147  13.162  10.903
89787SOL     OW71193   1.274   0.300   9.094
89787SOL    HW171194   1.364   0.319   9.119
89787SOL    HW271195   1.257   0.212   9.127
89788SOL     OW71196  13.383   0.550   5.932
89788SOL    HW171197  13.372   0.609   6.007
89788SOL    HW271198  13.309   0.570   5.875
89789SOL     OW71199  12.819   4.418   8.701
89789SOL    HW171200  12.738   4.418   8.649
89789SOL    HW271201  12.887   4.394   8.639
89790SOL     OW71202  13.743   3.559   5.054
89790SOL    HW171203  13.804   3.615   5.101
89790SOL    HW271204  13.696   3.512   5.123
89791SOL     OW71205  14.086  11.343   3.884
89791SOL    HW171206  14.079  11.361   3.790
89791SOL    HW271207  14.068  11.249   3.892
89792SOL     OW71208  10.566   9.315  12.161
89792SOL    HW171209  10.535   9.247  12.102
89792SOL    HW271210  10.650   9.343  12.124
89793SOL     OW71211  12.474  14.629   0.441
89793SOL    HW171212  12.509  14.693   0.503
89793SOL    HW271213  12.525  14.641   0.361
89794SOL     OW71214   3.406   2.621  14.435
89794SOL    HW171215   3.315   2.614  14.465
89794SOL    HW271216   3.456   2.642  14.513
89795SOL     OW71217  12.827   9.702   4.451
89795SOL    HW171218  12.897   9.654   4.407
89795SOL    HW271219  12.858   9.712   4.541
89796SOL     OW71220   8.163   5.420  11.989
89796SOL    HW171221   8.254   5.407  12.019
89796SOL    HW271222   8.167   5.403  11.895
89797SOL     OW71223  10.489   4.541  10.329
89797SOL    HW171224  10.410   4.559  10.380
89797SOL    HW271225  10.460   4.479  10.262
89798SOL     OW71226   5.144   7.542   7.798
89798SOL    HW171227   5.223   7.516   7.750
89798SOL    HW271228   5.073   7.493   7.756
89799SOL     OW71229  14.707  12.311  14.078
89799SOL    HW171230  14.741  12.366  14.009
89799SOL    HW271231  14.774  12.313  14.147
89800SOL     OW71232  12.752   1.945   1.112
89800SOL    HW171233  12.775   1.984   1.027
89800SOL    HW271234  12.675   1.994   1.141
89801SOL     OW71235  11.663   7.066   4.411
89801SOL    HW171236  11.706   7.002   4.466
89801SOL    HW271237  11.684   7.151   4.451
89802SOL     OW71238   3.905   6.949   8.738
89802SOL    HW171239   3.813   6.932   8.718
89802SOL    HW271240   3.940   6.993   8.660
89803SOL     OW71241   7.347   9.050  11.772
89803SOL    HW171242   7.289   9.021  11.702
89803SOL    HW271243   7.397   8.971  11.796
89804SOL     OW71244  10.927  12.268   5.259
89804SOL    HW171245  10.955  12.220   5.181
89804SOL    HW271246  10.943  12.360   5.238
89805SOL     OW71247  10.705   9.151   8.688
89805SOL    HW171248  10.720   9.214   8.759
89805SOL    HW271249  10.610   9.137   8.688
89806SOL     OW71250   7.192   5.258  14.252
89806SOL    HW171251   7.170   5.325  14.317
89806SOL    HW271252   7.261   5.297  14.199
89807SOL     OW71253   6.547   2.057   3.538
89807SOL    HW171254   6.528   2.076   3.630
89807SOL    HW271255   6.603   2.129   3.510
89808SOL     OW71256   7.736  11.869   5.838
89808SOL    HW171257   7.674  11.866   5.765
89808SOL    HW271258   7.763  11.778   5.849
89809SOL     OW71259  10.676  13.992  12.522
89809SOL    HW171260  10.587  14.009  12.554
89809SOL    HW271261  10.665  13.976  12.428
89810SOL     OW71262   6.148   5.365   4.009
89810SOL    HW171263   6.097   5.446   4.002
89810SOL    HW271264   6.099   5.301   3.957
89811SOL     OW71265   3.835   5.677  12.901
89811SOL    HW171266   3.905   5.741  12.890
89811SOL    HW271267   3.848   5.643  12.990
89812SOL     OW71268   5.682   4.301   8.539
89812SOL    HW171269   5.705   4.348   8.619
89812SOL    HW271270   5.611   4.353   8.500
89813SOL     OW71271  10.468   7.910   7.453
89813SOL    HW171272  10.561   7.911   7.478
89813SOL    HW271273  10.426   7.861   7.523
89814SOL     OW71274   6.556   8.998  10.886
89814SOL    HW171275   6.571   9.093  10.883
89814SOL    HW271276   6.622   8.965  10.947
89815SOL     OW71277   2.167  10.991   9.445
89815SOL    HW171278   2.209  11.016   9.528
89815SOL    HW271279   2.075  11.014   9.457
89816SOL     OW71280   6.999  13.301   6.075
89816SOL    HW171281   7.045  13.362   6.133
89816SOL    HW271282   6.973  13.355   6.000
89817SOL     OW71283   3.528   6.720   4.498
89817SOL    HW171284   3.588   6.663   4.450
89817SOL    HW271285   3.537   6.693   4.589
89818SOL     OW71286   2.660   8.442   7.861
89818SOL    HW171287   2.641   8.509   7.926
89818SOL    HW271288   2.585   8.444   7.801
89819SOL     OW71289  14.452   7.745   5.613
89819SOL    HW171290  14.538   7.703   5.619
89819SOL    HW271291  14.390   7.674   5.630
89820SOL     OW71292   9.940   3.387  13.063
89820SOL    HW171293  10.018   3.368  13.115
89820SOL    HW271294   9.974   3.422  12.981
89821SOL     OW71295   8.668   6.316   3.535
89821SOL    HW171296   8.573   6.302   3.543
89821SOL    HW271297   8.690   6.277   3.451
89822SOL     OW71298   9.314   5.338   0.202
89822SOL    HW171299   9.387   5.343   0.264
89822SOL    HW271300   9.352   5.367   0.119
89823SOL     OW71301  10.449  13.735  11.801
89823SOL    HW171302  10.402  13.674  11.858
89823SOL    HW271303  10.540  13.705  11.804
89824SOL     OW71304   3.564  10.912   6.966
89824SOL    HW171305   3.544  11.004   6.981
89824SOL    HW271306   3.617  10.911   6.886
89825SOL     OW71307  10.371   7.497   4.605
89825SOL    HW171308  10.457   7.538   4.609
89825SOL    HW271309  10.326   7.530   4.684
89826SOL     OW71310   4.233   4.486  11.092
89826SOL    HW171311   4.293   4.558  11.113
89826SOL    HW271312   4.178   4.476  11.169
89827SOL     OW71313   8.869   1.120   4.824
89827SOL    HW171314   8.863   1.090   4.914
89827SOL    HW271315   8.786   1.094   4.784
89828SOL     OW71316   6.744   0.791   7.189
89828SOL    HW171317   6.724   0.698   7.200
89828SOL    HW271318   6.663   0.836   7.212
89829SOL     OW71319   0.626   5.988   1.363
89829SOL    HW171320   0.623   6.029   1.449
89829SOL    HW271321   0.715   6.002   1.333
89830SOL     OW71322  11.547  12.260  10.855
89830SOL    HW171323  11.599  12.337  10.879
89830SOL    HW271324  11.591  12.187  10.898
89831SOL     OW71325   5.270   0.073  13.603
89831SOL    HW171326   5.277   0.116  13.518
89831SOL    HW271327   5.228   0.139  13.659
89832SOL     OW71328   0.699   0.001  10.341
89832SOL    HW171329   0.621  14.828  10.322
89832SOL    HW271330   0.678   0.088  10.309
89833SOL     OW71331   6.442   5.864  10.408
89833SOL    HW171332   6.387   5.910  10.344
89833SOL    HW271333   6.489   5.933  10.454
89834SOL     OW71334  14.616  11.602   2.215
89834SOL    HW171335  14.709  11.579   2.225
89834SOL    HW271336  14.589  11.558   2.135
89835SOL     OW71337   1.338  12.338  14.647
89835SOL    HW171338   1.414  12.395  14.638
89835SOL    HW271339   1.336  12.316  14.740
89836SOL     OW71340   4.174  12.375   9.616
89836SOL    HW171341   4.268  12.386   9.601
89836SOL    HW271342   4.164  12.382   9.711
89837SOL     OW71343   4.377   8.507   9.889
89837SOL    HW171344   4.470   8.530   9.890
89837SOL    HW271345   4.375   8.414   9.915
89838SOL     OW71346   6.479   9.853   7.301
89838SOL    HW171347   6.429   9.929   7.330
89838SOL    HW271348   6.413   9.786   7.282
89839SOL     OW71349   9.786   5.300  11.797
89839SOL    HW171350   9.775   5.292  11.702
89839SOL    HW271351   9.760   5.215  11.831
89840SOL     OW71352  12.195  10.135   9.042
89840SOL    HW171353  12.147  10.181   8.973
89840SOL    HW271354  12.170  10.043   9.030
89841SOL     OW71355   7.089   9.278  11.541
89841SOL    HW171356   6.996   9.255  11.529
89841SOL    HW271357   7.113   9.237  11.624
89842SOL     OW71358   9.025   7.713   6.319
89842SOL    HW171359   9.034   7.675   6.232
89842SOL    HW271360   8.937   7.751   6.319
89843SOL     OW71361   4.444  11.819   4.864
89843SOL    HW171362   4.418  11.819   4.956
89843SOL    HW271363   4.494  11.900   4.853
89844SOL     OW71364   1.759   0.274  12.774
89844SOL    HW171365   1.707   0.268  12.854
89844SOL    HW271366   1.800   0.188  12.766
89845SOL     OW71367  11.952   3.661   4.186
89845SOL    HW171368  11.865   3.641   4.151
89845SOL    HW271369  12.010   3.600   4.140
89846SOL     OW71370  12.056   8.930   4.706
89846SOL    HW171371  12.109   9.010   4.711
89846SOL    HW271372  11.967   8.959   4.724
89847SOL     OW71373   8.270   4.413  11.959
89847SOL    HW171374   8.304   4.347  12.020
89847SOL    HW271375   8.204   4.366  11.908
89848SOL     OW71376  13.825  14.028   4.821
89848SOL    HW171377  13.843  13.947   4.774
89848SOL    HW271378  13.912  14.066   4.839
89849SOL     OW71379  12.919  10.216  13.041
89849SOL    HW171380  12.848  10.190  13.099
89849SOL    HW271381  12.997  10.173  13.077
89850SOL     OW71382   6.448   2.710   1.121
89850SOL    HW171383   6.456   2.793   1.075
89850SOL    HW271384   6.354   2.699   1.136
89851SOL     OW71385   0.888   4.276   8.718
89851SOL    HW171386   0.800   4.244   8.699
89851SOL    HW271387   0.918   4.315   8.636
89852SOL     OW71388  14.460  11.135  10.888
89852SOL    HW171389  14.447  11.064  10.825
89852SOL    HW271390  14.398  11.202  10.860
89853SOL     OW71391  12.369   1.749   6.652
89853SOL    HW171392  12.441   1.686   6.661
89853SOL    HW271393  12.316   1.715   6.581
89854SOL     OW71394   5.839  10.514  10.609
89854SOL    HW171395   5.853  10.423  10.633
89854SOL    HW271396   5.746  10.529  10.625
89855SOL     OW71397  10.245   0.598   5.992
89855SOL    HW171398  10.287   0.663   5.936
89855SOL    HW271399  10.303   0.522   5.989
89856SOL     OW71400   4.688  12.095   8.754
89856SOL    HW171401   4.673  12.114   8.661
89856SOL    HW271402   4.780  12.119   8.768
89857SOL     OW71403   7.333  14.376   1.474
89857SOL    HW171404   7.286  14.376   1.391
89857SOL    HW271405   7.267  14.348   1.538
89858SOL     OW71406   0.680   2.875   2.679
89858SOL    HW171407   0.683   2.901   2.587
89858SOL    HW271408   0.712   2.952   2.726
89859SOL     OW71409  13.096  10.054   9.871
89859SOL    HW171410  13.081  10.148   9.863
89859SOL    HW271411  13.150  10.032   9.795
89860SOL     OW71412   1.089   1.393   1.392
89860SOL    HW171413   1.158   1.423   1.333
89860SOL    HW271414   1.024   1.463   1.390
89861SOL     OW71415  10.822  10.081   8.373
89861SOL    HW171416  10.858  10.166   8.348
89861SOL    HW271417  10.727  10.094   8.369
89862SOL     OW71418  14.568   6.692   4.836
89862SOL    HW171419  14.528   6.630   4.775
89862SOL    HW271420  14.654   6.654   4.855
89863SOL     OW71421  10.003  11.253   6.306
89863SOL    HW171422  10.013  11.169   6.260
89863SOL    HW271423   9.908  11.265   6.313
89864SOL     OW71424   0.817   9.168   2.771
89864SOL    HW171425   0.854   9.084   2.744
89864SOL    HW271426   0.768   9.147   2.851
89865SOL     OW71427  10.877   5.895  13.986
89865SOL    HW171428  10.796   5.944  14.001
89865SOL    HW271429  10.853   5.831  13.919
89866SOL     OW71430   3.300   1.762  12.132
89866SOL    HW171431   3.300   1.669  12.111
89866SOL    HW271432   3.213   1.778  12.169
89867SOL     OW71433   7.151   9.650  14.552
89867SOL    HW171434   7.165   9.692  14.637
89867SOL    HW271435   7.121   9.561  14.574
89868SOL     OW71436   1.481   1.322  14.532
89868SOL    HW171437   1.443   1.361  14.453
89868SOL    HW271438   1.535   1.391  14.570
89869SOL     OW71439   6.478   3.088   3.784
89869SOL    HW171440   6.510   3.055   3.699
89869SOL    HW271441   6.394   3.127   3.763
89870SOL     OW71442   1.806   2.634   7.517
89870SOL    HW171443   1.847   2.721   7.515
89870SOL    HW271444   1.816   2.600   7.429
89871SOL     OW71445   9.026  13.472  10.443
89871SOL    HW171446   9.058  13.537  10.505
89871SOL    HW271447   9.093  13.404  10.442
89872SOL     OW71448   3.699   6.153   7.363
89872SOL    HW171449   3.700   6.084   7.296
89872SOL    HW271450   3.779   6.138   7.414
89873SOL     OW71451   3.546   9.227  11.861
89873SOL    HW171452   3.614   9.165  11.837
89873SOL    HW271453   3.531   9.278  11.782
89874SOL     OW71454   6.383   4.548   2.966
89874SOL    HW171455   6.310   4.487   2.959
89874SOL    HW271456   6.434   4.535   2.886
89875SOL     OW71457   6.586   4.594  11.423
89875SOL    HW171458   6.672   4.554  11.409
89875SOL    HW271459   6.587   4.673  11.369
89876SOL     OW71460  13.399  11.091   0.127
89876SOL    HW171461  13.461  11.157   0.094
89876SOL    HW271462  13.455  11.027   0.171
89877SOL     OW71463   9.153   0.284  12.109
89877SOL    HW171464   9.093   0.355  12.083
89877SOL    HW271465   9.231   0.330  12.143
89878SOL     OW71466  10.506   3.640  12.282
89878SOL    HW171467  10.545   3.708  12.227
89878SOL    HW271468  10.422   3.620  12.239
89879SOL     OW71469  10.764   6.235   4.817
89879SOL    HW171470  10.830   6.256   4.751
89879SOL    HW271471  10.704   6.309   4.815
89880SOL     OW71472   4.666   8.026  14.175
89880SOL    HW171473   4.680   8.093  14.241
89880SOL    HW271474   4.571   8.009  14.177
89881SOL     OW71475   1.060  14.137  12.856
89881SOL    HW171476   1.033  14.212  12.804
89881SOL    HW271477   1.138  14.103  12.813
89882SOL     OW71478   1.285   6.859   0.161
89882SOL    HW171479   1.261   6.942   0.201
89882SOL    HW271480   1.206   6.804   0.169
89883SOL     OW71481   5.929  12.464   7.137
89883SOL    HW171482   5.963  12.459   7.048
89883SOL    HW271483   5.835  12.478   7.126
89884SOL     OW71484   9.199  11.275  10.625
89884SOL    HW171485   9.291  11.290  10.647
89884SOL    HW271486   9.159  11.246  10.707
89885SOL     OW71487  13.599   8.359   5.728
89885SOL    HW171488  13.694   8.367   5.723
89885SOL    HW271489  13.566   8.446   5.705
89886SOL     OW71490  12.643  10.817   3.617
89886SOL    HW171491  12.690  10.862   3.546
89886SOL    HW271492  12.647  10.724   3.593
89887SOL     OW71493   8.189   4.054   6.588
89887SOL    HW171494   8.154   4.003   6.660
89887SOL    HW271495   8.123   4.048   6.519
89888SOL     OW71496   2.311  10.114  10.713
89888SOL    HW171497   2.350  10.190  10.671
89888SOL    HW271498   2.217  10.121  10.692
89889SOL     OW71499   6.018   1.732   9.485
89889SOL    HW171500   5.923   1.739   9.485
89889SOL    HW271501   6.041   1.711   9.575
89890SOL     OW71502   5.941  13.859   4.103
89890SOL    HW171503   5.855  13.875   4.141
89890SOL    HW271504   5.997  13.840   4.179
89891SOL     OW71505   5.160   3.981  14.344
89891SOL    HW171506   5.184   3.917  14.412
89891SOL    HW271507   5.093   3.937  14.292
89892SOL     OW71508   2.683  14.450   8.257
89892SOL    HW171509   2.763  14.482   8.215
89892SOL    HW271510   2.612  14.493   8.209
89893SOL     OW71511   0.436   5.043   2.398
89893SOL    HW171512   0.358   5.097   2.404
89893SOL    HW271513   0.495   5.092   2.341
89894SOL     OW71514  10.122   2.070  12.497
89894SOL    HW171515  10.113   2.055  12.402
89894SOL    HW271516  10.216   2.081  12.510
89895SOL     OW71517   6.113  10.079   0.898
89895SOL    HW171518   6.148  10.167   0.911
89895SOL    HW271519   6.174  10.038   0.836
89896SOL     OW71520   2.062   5.294   0.083
89896SOL    HW171521   2.051   5.389   0.085
89896SOL    HW271522   1.985   5.262   0.036
89897SOL     OW71523   4.577  13.677   9.970
89897SOL    HW171524   4.660  13.646   9.933
89897SOL    HW271525   4.586  13.773   9.971
89898SOL     OW71526   0.216  14.276  14.605
89898SOL    HW171527   0.260  14.240  14.528
89898SOL    HW271528   0.140  14.323  14.569
89899SOL     OW71529  13.778   3.843   5.188
89899SOL    HW171530  13.816   3.931   5.194
89899SOL    HW271531  13.690   3.852   5.223
89900SOL     OW71532   1.631   3.588   6.756
89900SOL    HW171533   1.717   3.565   6.721
89900SOL    HW271534   1.590   3.503   6.775
89901SOL     OW71535  13.252   6.813   8.103
89901SOL    HW171536  13.266   6.888   8.161
89901SOL    HW271537  13.331   6.759   8.113
89902SOL     OW71538  10.673  12.418  11.783
89902SOL    HW171539  10.717  12.373  11.711
89902SOL    HW271540  10.582  12.388  11.778
89903SOL     OW71541  10.062   8.193   1.693
89903SOL    HW171542   9.981   8.243   1.705
89903SOL    HW271543  10.130   8.258   1.681
89904SOL     OW71544   0.781   0.466   3.265
89904SOL    HW171545   0.796   0.533   3.198
89904SOL    HW271546   0.691   0.480   3.293
89905SOL     OW71547  10.973  13.370   4.866
89905SOL    HW171548  10.948  13.434   4.799
89905SOL    HW271549  10.925  13.290   4.842
89906SOL     OW71550   2.152   6.669  12.386
89906SOL    HW171551   2.078   6.609  12.399
89906SOL    HW271552   2.156   6.719  12.467
89907SOL     OW71553   5.361   0.293  11.962
89907SOL    HW171554   5.283   0.283  11.908
89907SOL    HW271555   5.407   0.368  11.924
89908SOL     OW71556   9.338   8.755   6.866
89908SOL    HW171557   9.275   8.741   6.937
89908SOL    HW271558   9.298   8.713   6.790
89909SOL     OW71559   0.256   3.325   3.063
89909SOL    HW171560   0.275   3.403   3.115
89909SOL    HW271561   0.233   3.359   2.976
89910SOL     OW71562  10.433  14.451   7.692
89910SOL    HW171563  10.479  14.405   7.622
89910SOL    HW271564  10.349  14.476   7.653
89911SOL     OW71565   9.521   6.919   3.877
89911SOL    HW171566   9.486   6.983   3.939
89911SOL    HW271567   9.545   6.843   3.932
89912SOL     OW71568   1.026   8.666   1.310
89912SOL    HW171569   1.044   8.741   1.367
89912SOL    HW271570   0.947   8.626   1.347
89913SOL     OW71571   1.468   2.422   3.501
89913SOL    HW171572   1.555   2.417   3.541
89913SOL    HW271573   1.433   2.333   3.508
89914SOL     OW71574  11.730   8.506   9.615
89914SOL    HW171575  11.701   8.424   9.656
89914SOL    HW271576  11.693   8.502   9.527
89915SOL     OW71577   3.592   9.866  13.158
89915SOL    HW171578   3.677   9.878  13.202
89915SOL    HW271579   3.589   9.773  13.137
89916SOL     OW71580  12.087   6.451   4.140
89916SOL    HW171581  12.065   6.399   4.217
89916SOL    HW271582  12.122   6.533   4.176
89917SOL     OW71583  13.159   2.537  14.191
89917SOL    HW171584  13.243   2.514  14.232
89917SOL    HW271585  13.180   2.611  14.134
89918SOL     OW71586  13.004  11.173   1.443
89918SOL    HW171587  13.009  11.249   1.387
89918SOL    HW271588  13.043  11.102   1.392
89919SOL     OW71589   2.036  11.926  12.208
89919SOL    HW171590   2.058  11.973  12.128
89919SOL    HW271591   2.121  11.893  12.240
89920SOL     OW71592   6.851   7.407   5.934
89920SOL    HW171593   6.843   7.416   6.029
89920SOL    HW271594   6.946   7.405   5.918
89921SOL     OW71595  11.349   0.182   2.851
89921SOL    HW171596  11.259   0.205   2.832
89921SOL    HW271597  11.370   0.228   2.932
89922SOL     OW71598   9.829   2.148  11.504
89922SOL    HW171599   9.848   2.221  11.564
89922SOL    HW271600   9.741   2.166  11.471
89923SOL     OW71601   5.870  13.581  10.920
89923SOL    HW171602   5.842  13.568  10.830
89923SOL    HW271603   5.901  13.495  10.948
89924SOL     OW71604  12.256  11.431   5.961
89924SOL    HW171605  12.331  11.414   5.904
89924SOL    HW271606  12.188  11.463   5.902
89925SOL     OW71607   4.355   2.496   7.009
89925SOL    HW171608   4.302   2.464   7.083
89925SOL    HW271609   4.292   2.506   6.938
89926SOL     OW71610  13.706   5.695  14.236
89926SOL    HW171611  13.627   5.678  14.287
89926SOL    HW271612  13.767   5.626  14.263
89927SOL     OW71613   2.455  14.293  13.806
89927SOL    HW171614   2.488  14.381  13.828
89927SOL    HW271615   2.415  14.261  13.887
89928SOL     OW71616   0.230   0.540   9.178
89928SOL    HW171617   0.171   0.495   9.118
89928SOL    HW271618   0.172   0.585   9.240
89929SOL     OW71619  10.225   1.248   3.012
89929SOL    HW171620  10.179   1.306   2.953
89929SOL    HW271621  10.297   1.212   2.959
89930SOL     OW71622   5.130  10.327   5.384
89930SOL    HW171623   5.216  10.287   5.370
89930SOL    HW271624   5.068  10.257   5.366
89931SOL     OW71625   5.894  10.456  12.598
89931SOL    HW171626   5.828  10.411  12.544
89931SOL    HW271627   5.854  10.464  12.684
89932SOL     OW71628   5.149  12.147   1.549
89932SOL    HW171629   5.219  12.102   1.502
89932SOL    HW271630   5.169  12.240   1.537
89933SOL     OW71631   8.361  10.010   8.954
89933SOL    HW171632   8.277   9.966   8.950
89933SOL    HW271633   8.380  10.018   9.047
89934SOL     OW71634   5.247  11.435   5.822
89934SOL    HW171635   5.335  11.404   5.841
89934SOL    HW271636   5.198  11.421   5.903
89935SOL     OW71637   6.772  12.373   1.915
89935SOL    HW171638   6.677  12.362   1.913
89935SOL    HW271639   6.795  12.374   2.008
89936SOL     OW71640   8.976   0.008   0.377
89936SOL    HW171641   8.933  14.818   0.326
89936SOL    HW271642   8.905   0.055   0.419
89937SOL     OW71643   8.504   4.121  13.483
89937SOL    HW171644   8.579   4.126  13.542
89937SOL    HW271645   8.543   4.113  13.395
89938SOL     OW71646   9.659  13.339   7.734
89938SOL    HW171647   9.579  13.386   7.710
89938SOL    HW271648   9.683  13.291   7.655
89939SOL     OW71649   5.754  11.472   7.993
89939SOL    HW171650   5.787  11.401   8.050
89939SOL    HW271651   5.709  11.531   8.053
89940SOL     OW71652  11.213  11.602   5.612
89940SOL    HW171653  11.125  11.572   5.590
89940SOL    HW271654  11.270  11.556   5.551
89941SOL     OW71655   6.877  12.110   7.167
89941SOL    HW171656   6.822  12.118   7.088
89941SOL    HW271657   6.940  12.041   7.146
89942SOL     OW71658  11.106  14.821   2.592
89942SOL    HW171659  11.147   0.029   2.584
89942SOL    HW271660  11.093  14.792   2.502
89943SOL     OW71661  13.078   7.799   1.031
89943SOL    HW171662  13.116   7.749   1.103
89943SOL    HW271663  13.136   7.780   0.957
89944SOL     OW71664  10.198  10.346  12.460
89944SOL    HW171665  10.166  10.392  12.538
89944SOL    HW271666  10.280  10.392  12.438
89945SOL     OW71667  13.201   0.263   7.486
89945SOL    HW171668  13.108   0.244   7.471
89945SOL    HW271669  13.229   0.306   7.405
89946SOL     OW71670   9.211  14.690   6.387
89946SOL    HW171671   9.226  14.597   6.369
89946SOL    HW271672   9.217  14.732   6.302
89947SOL     OW71673   9.736   6.108   8.092
89947SOL    HW171674   9.721   6.040   8.158
89947SOL    HW271675   9.725   6.063   8.008
89948SOL     OW71676   6.667  11.140  10.534
89948SOL    HW171677   6.573  11.129  10.520
89948SOL    HW271678   6.703  11.051  10.526
89949SOL     OW71679  12.474  10.125  11.467
89949SOL    HW171680  12.451  10.075  11.389
89949SOL    HW271681  12.555  10.084  11.499
89950SOL     OW71682   5.290   9.148   7.032
89950SOL    HW171683   5.344   9.176   6.958
89950SOL    HW271684   5.201   9.150   6.999
89951SOL     OW71685  10.893   4.384   2.580
89951SOL    HW171686  10.911   4.437   2.503
89951SOL    HW271687  10.823   4.325   2.552
89952SOL     OW71688  14.747   4.645   8.675
89952SOL    HW171689  14.826   4.592   8.660
89952SOL    HW271690  14.713   4.614   8.759
89953SOL     OW71691   4.390   7.405   7.979
89953SOL    HW171692   4.465   7.426   8.035
89953SOL    HW271693   4.428   7.363   7.902
89954SOL     OW71694  10.959   5.369   7.098
89954SOL    HW171695  10.913   5.405   7.173
89954SOL    HW271696  10.966   5.275   7.117
89955SOL     OW71697  12.765  10.696   8.281
89955SOL    HW171698  12.843  10.686   8.227
89955SOL    HW271699  12.782  10.773   8.335
89956SOL     OW71700   0.589   0.145   7.171
89956SOL    HW171701   0.495   0.150   7.190
89956SOL    HW271702   0.620   0.236   7.176
89957SOL     OW71703  11.844   1.720  10.693
89957SOL    HW171704  11.764   1.728  10.744
89957SOL    HW271705  11.816   1.732  10.602
89958SOL     OW71706   2.638   2.505   8.163
89958SOL    HW171707   2.583   2.528   8.238
89958SOL    HW271708   2.720   2.552   8.178
89959SOL     OW71709   1.979   3.713   5.900
89959SOL    HW171710   1.965   3.802   5.933
89959SOL    HW271711   1.892   3.683   5.875
89960SOL     OW71712  13.246   8.419   5.382
89960SOL    HW171713  13.233   8.340   5.434
89960SOL    HW271714  13.341   8.427   5.372
89961SOL     OW71715  13.044   6.198  11.293
89961SOL    HW171716  13.002   6.244  11.221
89961SOL    HW271717  13.081   6.268  11.348
89962SOL     OW71718   7.414   3.396   7.604
89962SOL    HW171719   7.465   3.437   7.675
89962SOL    HW271720   7.334   3.366   7.646
89963SOL     OW71721  10.376   3.914  10.122
89963SOL    HW171722  10.465   3.947  10.108
89963SOL    HW271723  10.388   3.835  10.175
89964SOL     OW71724  13.152  11.662   4.141
89964SOL    HW171725  13.210  11.723   4.095
89964SOL    HW271726  13.139  11.591   4.079
89965SOL     OW71727   4.663  11.036   6.531
89965SOL    HW171728   4.744  10.990   6.553
89965SOL    HW271729   4.646  11.011   6.440
89966SOL     OW71730   5.236   5.403   7.860
89966SOL    HW171731   5.149   5.409   7.821
89966SOL    HW271732   5.270   5.493   7.857
89967SOL     OW71733   7.719   4.270  13.295
89967SOL    HW171734   7.626   4.276  13.273
89967SOL    HW271735   7.764   4.286  13.212
89968SOL     OW71736   5.377   8.902   7.803
89968SOL    HW171737   5.283   8.908   7.785
89968SOL    HW271738   5.382   8.863   7.890
89969SOL     OW71739  12.368   2.758   6.569
89969SOL    HW171740  12.364   2.808   6.651
89969SOL    HW271741  12.303   2.689   6.579
89970SOL     OW71742  11.606  14.753  12.449
89970SOL    HW171743  11.536  14.702  12.409
89970SOL    HW271744  11.617  14.828  12.392
89971SOL     OW71745   1.077   8.282  11.409
89971SOL    HW171746   1.044   8.292  11.498
89971SOL    HW271747   1.170   8.265  11.420
89972SOL     OW71748  10.690   7.379  12.129
89972SOL    HW171749  10.766   7.395  12.072
89972SOL    HW271750  10.710   7.296  12.172
89973SOL     OW71751  12.725   9.504   3.232
89973SOL    HW171752  12.793   9.554   3.278
89973SOL    HW271753  12.772   9.446   3.173
89974SOL     OW71754   2.880   0.444   4.915
89974SOL    HW171755   2.833   0.366   4.884
89974SOL    HW271756   2.836   0.468   4.996
89975SOL     OW71757   2.219   8.137   0.540
89975SOL    HW171758   2.128   8.167   0.539
89975SOL    HW271759   2.229   8.086   0.460
89976SOL     OW71760   7.323   4.422   1.057
89976SOL    HW171761   7.395   4.415   0.995
89976SOL    HW271762   7.244   4.418   1.003
89977SOL     OW71763  11.702   1.056   8.122
89977SOL    HW171764  11.788   1.088   8.097
89977SOL    HW271765  11.652   1.135   8.143
89978SOL     OW71766   5.206  13.834   3.723
89978SOL    HW171767   5.269  13.881   3.668
89978SOL    HW271768   5.247  13.748   3.737
89979SOL     OW71769  10.806  11.948   8.225
89979SOL    HW171770  10.867  12.020   8.243
89979SOL    HW271771  10.721  11.991   8.219
89980SOL     OW71772   0.618   2.922  14.840
89980SOL    HW171773   0.709   2.948  14.850
89980SOL    HW271774   0.598   2.874   0.042
89981SOL     OW71775   3.034   5.090  12.271
89981SOL    HW171776   3.065   5.149  12.202
89981SOL    HW271777   3.060   5.132  12.353
89982SOL     OW71778  10.587   8.254   4.744
89982SOL    HW171779  10.678   8.263   4.716
89982SOL    HW271780  10.544   8.207   4.673
89983SOL     OW71781   1.968  10.822   3.354
89983SOL    HW171782   1.984  10.788   3.442
89983SOL    HW271783   1.891  10.877   3.363
89984SOL     OW71784  14.524   9.240   2.238
89984SOL    HW171785  14.589   9.177   2.267
89984SOL    HW271786  14.575   9.314   2.205
89985SOL     OW71787  12.849  14.007   2.362
89985SOL    HW171788  12.890  13.971   2.440
89985SOL    HW271789  12.786  14.071   2.396
89986SOL     OW71790   3.803   7.778   0.538
89986SOL    HW171791   3.801   7.868   0.507
89986SOL    HW271792   3.717   7.742   0.514
89987SOL     OW71793   1.306   9.062   8.497
89987SOL    HW171794   1.317   9.020   8.583
89987SOL    HW271795   1.383   9.036   8.447
89988SOL     OW71796  11.613   3.859  12.874
89988SOL    HW171797  11.611   3.920  12.800
89988SOL    HW271798  11.612   3.915  12.951
89989SOL     OW71799   4.400  14.560   0.292
89989SOL    HW171800   4.358  14.576   0.376
89989SOL    HW271801   4.493  14.553   0.312
89990SOL     OW71802   9.977   6.246  12.460
89990SOL    HW171803   9.964   6.153  12.477
89990SOL    HW271804  10.047   6.272  12.521
89991SOL     OW71805   2.482   8.136  14.824
89991SOL    HW171806   2.421   8.200  14.861
89991SOL    HW271807   2.463   8.135  14.731
89992SOL     OW71808  14.144   5.331   6.955
89992SOL    HW171809  14.089   5.259   6.924
89992SOL    HW271810  14.234   5.303   6.935
89993SOL     OW71811  11.896  10.409   9.116
89993SOL    HW171812  11.813  10.450   9.141
89993SOL    HW271813  11.940  10.392   9.199
89994SOL     OW71814  10.538  14.057   6.437
89994SOL    HW171815  10.478  14.127   6.409
89994SOL    HW271816  10.620  14.101   6.456
89995SOL     OW71817   3.134   3.561  13.813
89995SOL    HW171818   3.217   3.514  13.800
89995SOL    HW271819   3.156   3.653  13.800
89996SOL     OW71820   3.380  13.044   9.700
89996SOL    HW171821   3.305  13.103   9.707
89996SOL    HW271822   3.356  12.968   9.752
89997SOL     OW71823   0.716   6.391   9.747
89997SOL    HW171824   0.727   6.391   9.652
89997SOL    HW271825   0.672   6.474   9.766
89998SOL     OW71826   9.804   1.874  10.844
89998SOL    HW171827   9.761   1.913  10.767
89998SOL    HW271828   9.887   1.920  10.851
89999SOL     OW71829  13.152   1.707  12.895
89999SOL    HW171830  13.066   1.705  12.852
89999SOL    HW271831  13.142   1.649  12.970
90000SOL     OW71832   4.294   5.139   1.334
90000SOL    HW171833   4.261   5.151   1.246
90000SOL    HW271834   4.288   5.225   1.375
90001SOL     OW71835   7.608   5.382   3.324
90001SOL    HW171836   7.687   5.370   3.272
90001SOL    HW271837   7.639   5.419   3.407
90002SOL     OW71838   8.841   8.202  10.685
90002SOL    HW171839   8.890   8.239  10.612
90002SOL    HW271840   8.787   8.273  10.717
90003SOL     OW71841   6.598  12.575  12.021
90003SOL    HW171842   6.508  12.606  12.016
90003SOL    HW271843   6.631  12.583  11.931
90004SOL     OW71844   6.439   9.426   1.891
90004SOL    HW171845   6.444   9.414   1.796
90004SOL    HW271846   6.396   9.510   1.903
90005SOL     OW71847   6.060  14.094   0.708
90005SOL    HW171848   6.079  14.166   0.768
90005SOL    HW271849   6.033  14.137   0.627
90006SOL     OW71850   1.594   1.824  13.923
90006SOL    HW171851   1.649   1.781  13.857
90006SOL    HW271852   1.641   1.811  14.005
90007SOL     OW71853   3.285   1.910   2.441
90007SOL    HW171854   3.215   1.872   2.494
90007SOL    HW271855   3.247   1.918   2.354
90008SOL     OW71856  14.856  12.125   6.184
90008SOL    HW171857  14.792  12.133   6.114
90008SOL    HW271858  14.807  12.087   6.257
90009SOL     OW71859  11.663  14.405   4.469
90009SOL    HW171860  11.595  14.340   4.485
90009SOL    HW271861  11.650  14.433   4.378
90010SOL     OW71862   2.656  12.305  13.987
90010SOL    HW171863   2.703  12.337  14.064
90010SOL    HW271864   2.698  12.350  13.914
90011SOL     OW71865  13.026  12.908   7.165
90011SOL    HW171866  13.090  12.859   7.217
90011SOL    HW271867  12.941  12.876   7.196
90012SOL     OW71868   5.627  14.601  10.185
90012SOL    HW171869   5.705  14.588  10.238
90012SOL    HW271870   5.620  14.696  10.175
90013SOL     OW71871  13.470   9.325   8.288
90013SOL    HW171872  13.417   9.369   8.354
90013SOL    HW271873  13.484   9.237   8.322
90014SOL     OW71874   5.688   3.789   1.542
90014SOL    HW171875   5.757   3.725   1.560
90014SOL    HW271876   5.682   3.841   1.623
90015SOL     OW71877   8.711   0.950   9.160
90015SOL    HW171878   8.680   1.013   9.224
90015SOL    HW271879   8.774   0.896   9.208
90016SOL     OW71880  12.900   1.761  14.175
90016SOL    HW171881  12.891   1.736  14.267
90016SOL    HW271882  12.811   1.759  14.140
90017SOL     OW71883   5.490  12.291   3.282
90017SOL    HW171884   5.519  12.304   3.192
90017SOL    HW271885   5.430  12.216   3.278
90018SOL     OW71886   2.008  14.644   0.599
90018SOL    HW171887   2.063  14.566   0.608
90018SOL    HW271888   2.037  14.685   0.518
90019SOL     OW71889   1.195   2.046   0.888
90019SOL    HW171890   1.182   1.957   0.855
90019SOL    HW271891   1.249   2.036   0.966
90020SOL     OW71892   4.361  13.411   7.559
90020SOL    HW171893   4.413  13.353   7.504
90020SOL    HW271894   4.425  13.472   7.597
90021SOL     OW71895   5.068   2.384   5.067
90021SOL    HW171896   5.039   2.328   5.139
90021SOL    HW271897   5.080   2.324   4.994
90022SOL     OW71898  10.036   3.822   4.551
90022SOL    HW171899  10.007   3.878   4.623
90022SOL    HW271900  10.090   3.879   4.496
90023SOL     OW71901   9.722  11.993  13.569
90023SOL    HW171902   9.678  11.910  13.551
90023SOL    HW271903   9.780  12.006  13.494
90024SOL     OW71904   9.931  13.937  10.707
90024SOL    HW171905   9.908  13.885  10.630
90024SOL    HW271906  10.015  13.901  10.736
90025SOL     OW71907   7.363   2.355   1.091
90025SOL    HW171908   7.383   2.386   1.003
90025SOL    HW271909   7.316   2.273   1.077
90026SOL     OW71910   4.526  14.866  11.864
90026SOL    HW171911   4.584   0.024  11.798
90026SOL    HW271912   4.453   0.049  11.869
90027SOL     OW71913   5.284   9.098   9.855
90027SOL    HW171914   5.258   9.006   9.859
90027SOL    HW271915   5.275   9.122   9.763
90028SOL     OW71916  12.473   3.653  13.466
90028SOL    HW171917  12.536   3.726  13.467
90028SOL    HW271918  12.489   3.607  13.548
90029SOL     OW71919   4.176  13.926   6.010
90029SOL    HW171920   4.086  13.897   6.024
90029SOL    HW271921   4.228  13.878   6.074
90030SOL     OW71922   8.536   8.294   2.110
90030SOL    HW171923   8.619   8.338   2.127
90030SOL    HW271924   8.479   8.323   2.181
90031SOL     OW71925   3.009   8.721   3.006
90031SOL    HW171926   2.976   8.635   2.976
90031SOL    HW271927   3.024   8.770   2.925
90032SOL     OW71928   8.221   6.022   8.275
90032SOL    HW171929   8.275   6.068   8.340
90032SOL    HW271930   8.249   5.930   8.282
90033SOL     OW71931   7.253   4.014   5.939
90033SOL    HW171932   7.232   3.951   6.007
90033SOL    HW271933   7.341   4.044   5.960
90034SOL     OW71934   7.493   5.439   1.796
90034SOL    HW171935   7.458   5.467   1.881
90034SOL    HW271936   7.465   5.507   1.735
90035SOL     OW71937  12.661  12.804   5.270
90035SOL    HW171938  12.655  12.893   5.235
90035SOL    HW271939  12.570  12.778   5.285
90036SOL     OW71940  10.335  11.368   9.270
90036SOL    HW171941  10.331  11.311   9.194
90036SOL    HW271942  10.260  11.342   9.324
90037SOL     OW71943   4.976  10.856  13.550
90037SOL    HW171944   4.937  10.862  13.462
90037SOL    HW271945   5.022  10.772  13.550
90038SOL     OW71946   7.136   8.498   0.613
90038SOL    HW171947   7.163   8.584   0.644
90038SOL    HW271948   7.119   8.510   0.519
90039SOL     OW71949   7.374   1.076  10.469
90039SOL    HW171950   7.440   1.073  10.539
90039SOL    HW271951   7.291   1.066  10.515
90040SOL     OW71952  12.107   9.357   2.498
90040SOL    HW171953  12.035   9.398   2.546
90040SOL    HW271954  12.175   9.345   2.564
90041SOL     OW71955  12.972  12.298   4.657
90041SOL    HW171956  13.051  12.278   4.706
90041SOL    HW271957  12.960  12.222   4.600
90042SOL     OW71958   9.437   1.954   0.121
90042SOL    HW171959   9.531   1.941   0.107
90042SOL    HW271960   9.401   1.970   0.034
90043SOL     OW71961   5.069   0.368  12.669
90043SOL    HW171962   5.011   0.315  12.614
90043SOL    HW271963   5.133   0.305  12.704
90044SOL     OW71964   6.258   7.287   2.547
90044SOL    HW171965   6.334   7.334   2.581
90044SOL    HW271966   6.203   7.271   2.624
90045SOL     OW71967   5.750   8.960   0.644
90045SOL    HW171968   5.777   8.885   0.592
90045SOL    HW271969   5.783   8.941   0.732
90046SOL     OW71970   5.488  11.142   9.419
90046SOL    HW171971   5.548  11.130   9.345
90046SOL    HW271972   5.409  11.096   9.394
90047SOL     OW71973  12.096   4.399   5.727
90047SOL    HW171974  12.078   4.341   5.654
90047SOL    HW271975  12.010   4.419   5.764
90048SOL     OW71976  11.160   0.916  10.833
90048SOL    HW171977  11.087   0.969  10.802
90048SOL    HW271978  11.177   0.855  10.762
90049SOL     OW71979   8.635   2.082   1.460
90049SOL    HW171980   8.637   2.176   1.439
90049SOL    HW271981   8.617   2.079   1.554
90050SOL     OW71982   5.611  12.549   7.805
90050SOL    HW171983   5.629  12.549   7.899
90050SOL    HW271984   5.695  12.526   7.765
90051SOL     OW71985  13.777   0.462  12.673
90051SOL    HW171986  13.834   0.504  12.609
90051SOL    HW271987  13.707   0.526  12.689
90052SOL     OW71988   0.875   8.624   3.453
90052SOL    HW171989   0.803   8.655   3.507
90052SOL    HW271990   0.952   8.631   3.510
90053SOL     OW71991   8.792   8.045   2.434
90053SOL    HW171992   8.745   8.093   2.502
90053SOL    HW271993   8.726   8.029   2.366
90054SOL     OW71994  11.140  13.295   4.209
90054SOL    HW171995  11.165  13.225   4.270
90054SOL    HW271996  11.046  13.306   4.223
90055SOL     OW71997  13.766   1.614  14.874
90055SOL    HW171998  13.775   1.699  14.830
90055SOL    HW271999  13.811   1.552  14.817
90056SOL     OW72000  10.125   3.981   9.274
90056SOL    HW172001  10.121   3.988   9.369
90056SOL    HW272002  10.095   3.891   9.255
90057SOL     OW72003   0.401   1.166   1.205
90057SOL    HW172004   0.384   1.235   1.141
90057SOL    HW272005   0.495   1.173   1.223
90058SOL     OW72006   9.974  11.219  12.282
90058SOL    HW172007  10.018  11.250  12.361
90058SOL    HW272008   9.899  11.278  12.271
90059SOL     OW72009   8.357   9.956  13.728
90059SOL    HW172010   8.281   9.914  13.766
90059SOL    HW272011   8.427   9.891  13.734
90060SOL     OW72012   7.307   3.122   0.932
90060SOL    HW172013   7.231   3.179   0.920
90060SOL    HW272014   7.323   3.084   0.846
90061SOL     OW72015   1.823   6.031  11.420
90061SOL    HW172016   1.736   6.050  11.385
90061SOL    HW272017   1.838   6.101  11.485
90062SOL     OW72018   2.083   0.642   5.294
90062SOL    HW172019   2.155   0.627   5.355
90062SOL    HW272020   2.019   0.694   5.344
90063SOL     OW72021   1.135  14.186   3.986
90063SOL    HW172022   1.133  14.246   4.061
90063SOL    HW272023   1.172  14.238   3.915
90064SOL     OW72024   3.620   3.274   3.901
90064SOL    HW172025   3.539   3.238   3.866
90064SOL    HW272026   3.607   3.272   3.996
90065SOL     OW72027   0.984  14.041   1.079
90065SOL    HW172028   0.996  14.050   0.984
90065SOL    HW272029   1.070  14.015   1.111
90066SOL     OW72030   3.991   7.202   6.772
90066SOL    HW172031   4.032   7.259   6.706
90066SOL    HW272032   3.925   7.153   6.724
90067SOL     OW72033   7.326   9.145  12.150
90067SOL    HW172034   7.241   9.101  12.145
90067SOL    HW272035   7.361   9.122  12.236
90068SOL     OW72036   2.644   7.906   2.261
90068SOL    HW172037   2.724   7.955   2.278
90068SOL    HW272038   2.575   7.972   2.258
90069SOL     OW72039   9.263  11.087   8.238
90069SOL    HW172040   9.282  11.151   8.169
90069SOL    HW272041   9.274  11.136   8.320
90070SOL     OW72042   5.146   3.581  14.256
90070SOL    HW172043   5.086   3.574  14.331
90070SOL    HW272044   5.216   3.519  14.275
90071SOL     OW72045   2.666   2.779   8.631
90071SOL    HW172046   2.692   2.806   8.719
90071SOL    HW272047   2.693   2.687   8.625
90072SOL     OW72048  14.097   0.915   9.645
90072SOL    HW172049  14.073   0.835   9.598
90072SOL    HW272050  14.164   0.956   9.591
90073SOL     OW72051  13.423  12.597   4.155
90073SOL    HW172052  13.474  12.525   4.190
90073SOL    HW272053  13.468  12.622   4.074
90074SOL     OW72054   6.569   1.839   4.291
90074SOL    HW172055   6.642   1.862   4.349
90074SOL    HW272056   6.499   1.811   4.350
90075SOL     OW72057   9.005   5.222   7.930
90075SOL    HW172058   9.068   5.166   7.976
90075SOL    HW272059   9.009   5.193   7.839
90076SOL     OW72060   0.506   1.042  13.265
90076SOL    HW172061   0.594   1.008  13.280
90076SOL    HW272062   0.450   0.965  13.270
90077SOL     OW72063   7.653   4.028   4.041
90077SOL    HW172064   7.659   3.937   4.014
90077SOL    HW272065   7.560   4.040   4.062
90078SOL     OW72066  13.038   0.510   1.152
90078SOL    HW172067  13.017   0.550   1.237
90078SOL    HW272068  13.127   0.477   1.162
90079SOL     OW72069   7.640   1.690   4.294
90079SOL    HW172070   7.559   1.712   4.341
90079SOL    HW272071   7.689   1.772   4.291
90080SOL     OW72072   6.886  13.546  13.874
90080SOL    HW172073   6.978  13.525  13.857
90080SOL    HW272074   6.863  13.493  13.950
90081SOL     OW72075   4.885   2.181  12.388
90081SOL    HW172076   4.886   2.258  12.445
90081SOL    HW272077   4.977   2.152  12.386
90082SOL     OW72078   7.881  13.184   5.175
90082SOL    HW172079   7.959  13.238   5.189
90082SOL    HW272080   7.911  13.110   5.123
90083SOL     OW72081   8.874   7.219  14.453
90083SOL    HW172082   8.837   7.292  14.402
90083SOL    HW272083   8.967   7.239  14.460
90084SOL     OW72084   7.343  14.229  11.045
90084SOL    HW172085   7.251  14.247  11.028
90084SOL    HW272086   7.390  14.286  10.984
90085SOL     OW72087   2.656  13.218   7.214
90085SOL    HW172088   2.748  13.242   7.226
90085SOL    HW272089   2.659  13.133   7.171
90086SOL     OW72090   3.931   2.187  14.239
90086SOL    HW172091   3.881   2.266  14.259
90086SOL    HW272092   3.996   2.182  14.308
90087SOL     OW72093  12.890   8.944   3.795
90087SOL    HW172094  12.879   8.850   3.783
90087SOL    HW272095  12.956   8.969   3.729
90088SOL     OW72096   6.276  14.759   3.614
90088SOL    HW172097   6.212  14.807   3.561
90088SOL    HW272098   6.269  14.798   3.701
90089SOL     OW72099   5.739  12.337   3.382
90089SOL    HW172100   5.643  12.328   3.380
90089SOL    HW272101   5.761  12.325   3.474
90090SOL     OW72102   5.168   3.760   4.595
90090SOL    HW172103   5.221   3.788   4.520
90090SOL    HW272104   5.122   3.682   4.564
90091SOL     OW72105   7.425   5.975   1.249
90091SOL    HW172106   7.494   5.926   1.293
90091SOL    HW272107   7.363   5.907   1.220
90092SOL     OW72108  11.307   4.996  12.735
90092SOL    HW172109  11.309   4.916  12.787
90092SOL    HW272110  11.346   4.971  12.651
90093SOL     OW72111   9.756   2.663  11.443
90093SOL    HW172112   9.772   2.745  11.489
90093SOL    HW272113   9.661   2.654  11.442
90094SOL     OW72114   1.441   2.957   5.582
90094SOL    HW172115   1.434   2.988   5.492
90094SOL    HW272116   1.369   2.895   5.592
90095SOL     OW72117   1.100   0.020   4.537
90095SOL    HW172118   1.067  14.866   4.453
90095SOL    HW272119   1.046   0.097   4.555
90096SOL     OW72120  12.915   2.884   4.859
90096SOL    HW172121  12.827   2.886   4.821
90096SOL    HW272122  12.944   2.794   4.846
90097SOL     OW72123   6.561   1.165  13.215
90097SOL    HW172124   6.632   1.205  13.165
90097SOL    HW272125   6.487   1.163  13.155
90098SOL     OW72126   4.280   1.449   9.831
90098SOL    HW172127   4.337   1.450   9.754
90098SOL    HW272128   4.271   1.541   9.856
90099SOL     OW72129   9.423  12.743   6.978
90099SOL    HW172130   9.341  12.770   6.938
90099SOL    HW272131   9.491  12.785   6.925
90100SOL     OW72132   8.221  11.287   9.256
90100SOL    HW172133   8.292  11.334   9.214
90100SOL    HW272134   8.194  11.221   9.192
90101SOL     OW72135   5.934   0.144   6.212
90101SOL    HW172136   5.905   0.223   6.167
90101SOL    HW272137   6.025   0.162   6.235
90102SOL     OW72138   1.768   9.337  12.767
90102SOL    HW172139   1.705   9.275  12.730
90102SOL    HW272140   1.785   9.399  12.696
90103SOL     OW72141   1.340   5.091   7.434
90103SOL    HW172142   1.374   5.179   7.414
90103SOL    HW272143   1.328   5.050   7.348
90104SOL     OW72144  10.591   3.521  10.458
90104SOL    HW172145  10.652   3.595  10.466
90104SOL    HW272146  10.634   3.461  10.397
90105SOL     OW72147  10.722   1.509   2.845
90105SOL    HW172148  10.798   1.495   2.901
90105SOL    HW272149  10.731   1.445   2.774
90106SOL     OW72150  10.224  12.369   6.279
90106SOL    HW172151  10.271  12.315   6.216
90106SOL    HW272152  10.261  12.456   6.268
90107SOL     OW72153  10.255  13.699   0.215
90107SOL    HW172154  10.202  13.620   0.228
90107SOL    HW272155  10.194  13.771   0.229
90108SOL     OW72156   0.274   8.870   6.256
90108SOL    HW172157   0.283   8.869   6.351
90108SOL    HW272158   0.363   8.887   6.223
90109SOL     OW72159   5.171  10.141  13.640
90109SOL    HW172160   5.121  10.087  13.702
90109SOL    HW272161   5.151  10.104  13.554
90110SOL     OW72162   8.332   0.060   2.790
90110SOL    HW172163   8.249   0.013   2.788
90110SOL    HW272164   8.353   0.069   2.883
90111SOL     OW72165  12.431   8.049   5.218
90111SOL    HW172166  12.425   7.956   5.240
90111SOL    HW272167  12.376   8.093   5.283
90112SOL     OW72168   3.732   2.948   4.255
90112SOL    HW172169   3.700   2.871   4.209
90112SOL    HW272170   3.665   3.015   4.240
90113SOL     OW72171   8.418   4.061  10.881
90113SOL    HW172172   8.395   3.968  10.889
90113SOL    HW272173   8.363   4.093  10.810
90114SOL     OW72174   0.945   0.421   2.930
90114SOL    HW172175   0.953   0.346   2.989
90114SOL    HW272176   0.984   0.391   2.848
90115SOL     OW72177   8.534  14.525   0.803
90115SOL    HW172178   8.440  14.534   0.784
90115SOL    HW272179   8.575  14.596   0.753
90116SOL     OW72180   1.672  11.151  12.807
90116SOL    HW172181   1.593  11.197  12.781
90116SOL    HW272182   1.700  11.104  12.729
90117SOL     OW72183  12.951   0.382   1.787
90117SOL    HW172184  12.958   0.470   1.751
90117SOL    HW272185  12.858   0.359   1.778
90118SOL     OW72186  11.370   4.307  13.255
90118SOL    HW172187  11.325   4.243  13.308
90118SOL    HW272188  11.330   4.300  13.168
90119SOL     OW72189   6.682  11.494  12.669
90119SOL    HW172190   6.752  11.477  12.732
90119SOL    HW272191   6.635  11.411  12.661
90120SOL     OW72192  14.048   7.612   2.094
90120SOL    HW172193  14.072   7.703   2.112
90120SOL    HW272194  13.954   7.608   2.112
90121SOL     OW72195   8.103  12.081   0.876
90121SOL    HW172196   8.182  12.042   0.913
90121SOL    HW272197   8.102  12.170   0.910
90122SOL     OW72198   5.394   2.182   5.923
90122SOL    HW172199   5.359   2.149   6.006
90122SOL    HW272200   5.370   2.115   5.859
90123SOL     OW72201  11.665   5.663  11.549
90123SOL    HW172202  11.622   5.660  11.635
90123SOL    HW272203  11.758   5.650  11.568
90124SOL     OW72204   9.074  12.235   7.586
90124SOL    HW172205   9.061  12.165   7.650
90124SOL    HW272206   8.997  12.291   7.595
90125SOL     OW72207  10.019   2.818   2.288
90125SOL    HW172208  10.056   2.901   2.257
90125SOL    HW272209  10.095   2.770   2.323
90126SOL     OW72210  10.937   7.249   4.384
90126SOL    HW172211  10.854   7.292   4.402
90126SOL    HW272212  10.919   7.155   4.394
90127SOL     OW72213   7.208   8.448  12.114
90127SOL    HW172214   7.129   8.497  12.092
90127SOL    HW272215   7.202   8.436  12.209
90128SOL     OW72216   6.575   7.669   4.598
90128SOL    HW172217   6.519   7.692   4.524
90128SOL    HW272218   6.515   7.627   4.660
90129SOL     OW72219   6.158   0.399   6.666
90129SOL    HW172220   6.226   0.353   6.616
90129SOL    HW272221   6.192   0.489   6.674
90130SOL     OW72222  12.881   6.123   2.534
90130SOL    HW172223  12.925   6.173   2.603
90130SOL    HW272224  12.952   6.075   2.491
90131SOL     OW72225   4.865   4.288   8.520
90131SOL    HW172226   4.917   4.210   8.539
90131SOL    HW272227   4.778   4.268   8.554
90132SOL     OW72228   5.770   3.268  13.721
90132SOL    HW172229   5.841   3.332  13.721
90132SOL    HW272230   5.813   3.184  13.703
90133SOL     OW72231   2.517  11.969   3.638
90133SOL    HW172232   2.556  11.970   3.725
90133SOL    HW272233   2.438  11.915   3.647
90134SOL     OW72234   3.074   8.810   7.408
90134SOL    HW172235   3.110   8.732   7.367
90134SOL    HW272236   3.143   8.841   7.467
90135SOL     OW72237  12.751  11.430  13.556
90135SOL    HW172238  12.752  11.383  13.472
90135SOL    HW272239  12.665  11.410  13.594
90136SOL     OW72240   3.266  12.905  13.334
90136SOL    HW172241   3.307  12.966  13.395
90136SOL    HW272242   3.290  12.937  13.247
90137SOL     OW72243   9.485   2.510  14.760
90137SOL    HW172244   9.515   2.600  14.748
90137SOL    HW272245   9.516   2.463  14.682
90138SOL     OW72246   0.453   6.267  13.765
90138SOL    HW172247   0.359   6.268  13.745
90138SOL    HW272248   0.464   6.337  13.829
90139SOL     OW72249  11.592   1.313  10.958
90139SOL    HW172250  11.557   1.248  11.019
90139SOL    HW272251  11.623   1.385  11.014
90140SOL     OW72252   5.097   3.867   8.180
90140SOL    HW172253   5.170   3.804   8.185
90140SOL    HW272254   5.023   3.815   8.148
90141SOL     OW72255   1.584   1.893   2.814
90141SOL    HW172256   1.618   1.872   2.727
90141SOL    HW272257   1.553   1.810   2.849
90142SOL     OW72258  13.660   3.830  10.463
90142SOL    HW172259  13.602   3.815  10.538
90142SOL    HW272260  13.724   3.759  10.467
90143SOL     OW72261   0.253   4.652   2.990
90143SOL    HW172262   0.238   4.744   2.965
90143SOL    HW272263   0.166   4.620   3.012
90144SOL     OW72264   0.690  11.353   9.407
90144SOL    HW172265   0.775  11.357   9.364
90144SOL    HW272266   0.683  11.436   9.455
90145SOL     OW72267   5.489   7.474  11.444
90145SOL    HW172268   5.568   7.504  11.398
90145SOL    HW272269   5.474   7.540  11.512
90146SOL     OW72270   4.409  10.241  12.388
90146SOL    HW172271   4.475  10.220  12.322
90146SOL    HW272272   4.381  10.157  12.422
90147SOL     OW72273   9.088   3.768   4.483
90147SOL    HW172274   9.055   3.857   4.472
90147SOL    HW272275   9.028   3.727   4.545
90148SOL     OW72276   5.059  14.030   0.928
90148SOL    HW172277   5.035  14.108   0.878
90148SOL    HW272278   5.050  13.958   0.866
90149SOL     OW72279   2.263  10.681  13.317
90149SOL    HW172280   2.259  10.764  13.269
90149SOL    HW272281   2.186  10.632  13.286
90150SOL     OW72282   8.510   4.943   7.630
90150SOL    HW172283   8.451   4.942   7.554
90150SOL    HW272284   8.532   4.851   7.643
90151SOL     OW72285   5.545   4.786  12.355
90151SOL    HW172286   5.584   4.873  12.338
90151SOL    HW272287   5.598   4.750  12.426
90152SOL     OW72288   3.393   2.811  14.719
90152SOL    HW172289   3.344   2.878  14.767
90152SOL    HW272290   3.430   2.858  14.644
90153SOL     OW72291   7.489  13.925   5.085
90153SOL    HW172292   7.447  13.945   5.001
90153SOL    HW272293   7.455  13.991   5.146
90154SOL     OW72294   8.233   8.778   1.967
90154SOL    HW172295   8.190   8.863   1.956
90154SOL    HW272296   8.312   8.784   1.914
90155SOL     OW72297  13.566   5.149  12.538
90155SOL    HW172298  13.618   5.163  12.617
90155SOL    HW272299  13.496   5.089  12.565
90156SOL     OW72300   1.054  13.573   2.597
90156SOL    HW172301   1.124  13.593   2.658
90156SOL    HW272302   0.994  13.648   2.603
90157SOL     OW72303   1.935   4.869  11.206
90157SOL    HW172304   2.003   4.934  11.188
90157SOL    HW272305   1.855   4.920  11.218
90158SOL     OW72306  14.496   3.291  14.534
90158SOL    HW172307  14.530   3.362  14.588
90158SOL    HW272308  14.477   3.332  14.450
90159SOL     OW72309  12.014   0.327   4.383
90159SOL    HW172310  12.052   0.414   4.395
90159SOL    HW272311  12.090   0.268   4.385
90160SOL     OW72312   4.675   7.274   1.417
90160SOL    HW172313   4.771   7.275   1.411
90160SOL    HW272314   4.646   7.242   1.332
90161SOL     OW72315  13.438   4.860   2.815
90161SOL    HW172316  13.431   4.794   2.746
90161SOL    HW272317  13.528   4.893   2.808
90162SOL     OW72318   6.404  12.249  14.151
90162SOL    HW172319   6.315  12.213  14.151
90162SOL    HW272320   6.427  12.255  14.244
90163SOL     OW72321   7.078   0.415   0.080
90163SOL    HW172322   7.084   0.464  14.876
90163SOL    HW272323   7.052   0.480   0.145
90164SOL     OW72324  11.217   1.171   4.418
90164SOL    HW172325  11.291   1.117   4.388
90164SOL    HW272326  11.186   1.214   4.339
90165SOL     OW72327  13.216   4.069   5.807
90165SOL    HW172328  13.161   4.143   5.782
90165SOL    HW272329  13.258   4.041   5.725
90166SOL     OW72330  11.384  12.503  14.145
90166SOL    HW172331  11.373  12.521  14.238
90166SOL    HW272332  11.318  12.558  14.102
90167SOL     OW72333   0.448   1.031   2.329
90167SOL    HW172334   0.435   0.953   2.381
90167SOL    HW272335   0.363   1.076   2.331
90168SOL     OW72336   9.063   2.828   4.837
90168SOL    HW172337   9.132   2.893   4.851
90168SOL    HW272338   9.035   2.803   4.925
90169SOL     OW72339   9.977   7.097   3.115
90169SOL    HW172340   9.984   7.035   3.043
90169SOL    HW272341   9.887   7.127   3.113
90170SOL     OW72342   6.454   9.504   6.239
90170SOL    HW172343   6.519   9.486   6.308
90170SOL    HW272344   6.383   9.549   6.285
90171SOL     OW72345   6.546   6.723  11.161
90171SOL    HW172346   6.614   6.783  11.132
90171SOL    HW272347   6.464   6.772  11.150
90172SOL     OW72348   1.752   9.215   5.239
90172SOL    HW172349   1.822   9.279   5.225
90172SOL    HW272350   1.796   9.139   5.278
90173SOL     OW72351  13.751  12.697  14.506
90173SOL    HW172352  13.755  12.790  14.484
90173SOL    HW272353  13.841  12.666  14.493
90174SOL     OW72354   5.573   3.484   6.776
90174SOL    HW172355   5.630   3.546   6.822
90174SOL    HW272356   5.621   3.402   6.777
90175SOL     OW72357   0.855  10.656   7.311
90175SOL    HW172358   0.856  10.565   7.341
90175SOL    HW272359   0.780  10.660   7.252
90176SOL     OW72360   2.032   4.865   7.882
90176SOL    HW172361   1.995   4.800   7.822
90176SOL    HW272362   1.967   4.935   7.885
90177SOL     OW72363   9.053   2.691   6.326
90177SOL    HW172364   9.139   2.658   6.354
90177SOL    HW272365   9.038   2.648   6.242
90178SOL     OW72366  14.425   3.917  12.777
90178SOL    HW172367  14.476   3.946  12.852
90178SOL    HW272368  14.479   3.938  12.701
90179SOL     OW72369   2.004   1.219   9.661
90179SOL    HW172370   2.043   1.132   9.647
90179SOL    HW272371   2.079   1.279   9.656
90180SOL     OW72372  12.601  12.080   7.684
90180SOL    HW172373  12.567  11.991   7.681
90180SOL    HW272374  12.679  12.075   7.739
90181SOL     OW72375   6.603   3.013  11.532
90181SOL    HW172376   6.541   2.942  11.550
90181SOL    HW272377   6.557   3.093  11.557
90182SOL     OW72378   9.151   5.156   4.906
90182SOL    HW172379   9.112   5.126   4.824
90182SOL    HW272380   9.102   5.111   4.974
90183SOL     OW72381   7.489   5.106  10.442
90183SOL    HW172382   7.473   5.012  10.449
90183SOL    HW272383   7.435   5.135  10.369
90184SOL     OW72384   8.883   9.072   5.047
90184SOL    HW172385   8.896   8.977   5.053
90184SOL    HW272386   8.788   9.082   5.042
90185SOL     OW72387   9.270   5.892   1.143
90185SOL    HW172388   9.210   5.964   1.163
90185SOL    HW272389   9.321   5.922   1.068
90186SOL     OW72390   1.585   6.067  11.274
90186SOL    HW172391   1.499   6.109  11.266
90186SOL    HW272392   1.601   6.028  11.188
90187SOL     OW72393   4.893   5.903   3.923
90187SOL    HW172394   4.874   5.852   3.845
90187SOL    HW272395   4.823   5.880   3.984
90188SOL     OW72396   6.910   1.801   4.302
90188SOL    HW172397   6.965   1.726   4.279
90188SOL    HW272398   6.892   1.789   4.395
90189SOL     OW72399   7.815   7.256   6.011
90189SOL    HW172400   7.880   7.306   6.060
90189SOL    HW272401   7.749   7.321   5.987
90190SOL     OW72402  10.335   7.020   8.099
90190SOL    HW172403  10.250   7.045   8.061
90190SOL    HW272404  10.399   7.053   8.036
90191SOL     OW72405   4.859   1.899  11.121
90191SOL    HW172406   4.883   1.849  11.043
90191SOL    HW272407   4.921   1.971  11.124
90192SOL     OW72408  13.854   4.415   1.716
90192SOL    HW172409  13.782   4.410   1.652
90192SOL    HW272410  13.816   4.378   1.796
90193SOL     OW72411   8.590   6.595  12.375
90193SOL    HW172412   8.590   6.684  12.409
90193SOL    HW272413   8.627   6.603  12.287
90194SOL     OW72414  13.044   6.979  13.621
90194SOL    HW172415  12.996   7.054  13.656
90194SOL    HW272416  13.089   7.014  13.544
90195SOL     OW72417  14.413   6.762   5.328
90195SOL    HW172418  14.482   6.697   5.342
90195SOL    HW272419  14.393   6.756   5.234
90196SOL     OW72420   9.651   6.424   2.749
90196SOL    HW172421   9.683   6.505   2.789
90196SOL    HW272422   9.589   6.453   2.682
90197SOL     OW72423   7.836   2.845   0.247
90197SOL    HW172424   7.823   2.806   0.161
90197SOL    HW272425   7.889   2.782   0.296
90198SOL     OW72426  11.673   1.147  13.213
90198SOL    HW172427  11.625   1.188  13.285
90198SOL    HW272428  11.753   1.114  13.254
90199SOL     OW72429   9.604   4.150   7.403
90199SOL    HW172430   9.516   4.164   7.439
90199SOL    HW272431   9.661   4.203   7.458
90200SOL     OW72432   3.415  12.850  13.115
90200SOL    HW172433   3.415  12.795  13.036
90200SOL    HW272434   3.469  12.801  13.178
90201SOL     OW72435   8.387   5.543   1.521
90201SOL    HW172436   8.446   5.615   1.497
90201SOL    HW272437   8.376   5.552   1.616
90202SOL     OW72438   1.816   4.376  14.195
90202SOL    HW172439   1.744   4.380  14.258
90202SOL    HW272440   1.840   4.283  14.192
90203SOL     OW72441   0.222   8.567   9.971
90203SOL    HW172442   0.199   8.520  10.051
90203SOL    HW272443   0.225   8.659   9.997
90204SOL     OW72444   8.965   6.886  10.286
90204SOL    HW172445   8.870   6.876  10.286
90204SOL    HW272446   8.990   6.887  10.194
90205SOL     OW72447   1.992  11.381   8.497
90205SOL    HW172448   1.934  11.305   8.491
90205SOL    HW272449   2.072  11.346   8.538
90206SOL     OW72450  10.041   2.491   0.017
90206SOL    HW172451  10.050   2.543  14.816
90206SOL    HW272452  10.128   2.493   0.057
90207SOL     OW72453  14.863  13.359   8.257
90207SOL    HW172454  14.802  13.334   8.326
90207SOL    HW272455  14.819  13.334   8.176
90208SOL     OW72456   8.229   2.858   2.519
90208SOL    HW172457   8.323   2.870   2.529
90208SOL    HW272458   8.219   2.775   2.474
90209SOL     OW72459  14.548   5.833  12.572
90209SOL    HW172460  14.545   5.773  12.498
90209SOL    HW272461  14.634   5.817  12.612
90210SOL     OW72462   2.319   3.075  12.625
90210SOL    HW172463   2.290   3.029  12.703
90210SOL    HW272464   2.356   3.006  12.569
90211SOL     OW72465   5.959   2.102   6.969
90211SOL    HW172466   5.998   2.022   6.934
90211SOL    HW272467   5.948   2.158   6.893
90212SOL     OW72468  14.262   1.384   8.061
90212SOL    HW172469  14.195   1.405   7.996
90212SOL    HW272470  14.310   1.310   8.023
90213SOL     OW72471   3.643  13.936   8.960
90213SOL    HW172472   3.653  13.875   9.033
90213SOL    HW272473   3.570  13.900   8.909
90214SOL     OW72474   8.705   7.453  11.935
90214SOL    HW172475   8.730   7.364  11.959
90214SOL    HW272476   8.751   7.509  11.998
90215SOL     OW72477  13.879   3.578   8.347
90215SOL    HW172478  13.823   3.530   8.409
90215SOL    HW272479  13.829   3.578   8.266
90216SOL     OW72480   8.194   3.778   6.145
90216SOL    HW172481   8.217   3.818   6.229
90216SOL    HW272482   8.263   3.809   6.085
90217SOL     OW72483   7.965   7.803   1.689
90217SOL    HW172484   8.033   7.868   1.671
90217SOL    HW272485   7.965   7.794   1.785
90218SOL     OW72486  13.874   6.984   3.501
90218SOL    HW172487  13.838   7.058   3.550
90218SOL    HW272488  13.864   6.909   3.560
90219SOL     OW72489   1.541   4.248   1.988
90219SOL    HW172490   1.592   4.212   2.061
90219SOL    HW272491   1.471   4.298   2.030
90220SOL     OW72492   5.119   0.862   7.222
90220SOL    HW172493   5.202   0.870   7.176
90220SOL    HW272494   5.108   0.768   7.234
90221SOL     OW72495  12.207   4.244   7.284
90221SOL    HW172496  12.157   4.252   7.365
90221SOL    HW272497  12.143   4.257   7.215
90222SOL     OW72498   7.032   0.718   1.306
90222SOL    HW172499   6.977   0.689   1.233
90222SOL    HW272500   6.970   0.755   1.369
90223SOL     OW72501  13.525  13.910   1.024
90223SOL    HW172502  13.510  13.903   1.118
90223SOL    HW272503  13.444  13.948   0.989
90224SOL     OW72504   1.872   2.405   5.111
90224SOL    HW172505   1.858   2.338   5.178
90224SOL    HW272506   1.891   2.484   5.161
90225SOL     OW72507   6.637   3.449   7.296
90225SOL    HW172508   6.701   3.450   7.368
90225SOL    HW272509   6.655   3.529   7.248
90226SOL     OW72510  13.698   1.735   8.709
90226SOL    HW172511  13.793   1.737   8.722
90226SOL    HW272512  13.664   1.802   8.769
90227SOL     OW72513   0.957   0.920   7.768
90227SOL    HW172514   0.909   0.854   7.817
90227SOL    HW272515   0.953   0.890   7.677
90228SOL     OW72516   5.282   3.218   7.150
90228SOL    HW172517   5.304   3.222   7.057
90228SOL    HW272518   5.255   3.307   7.172
90229SOL     OW72519   6.837   0.208   7.932
90229SOL    HW172520   6.747   0.239   7.940
90229SOL    HW272521   6.891   0.283   7.957
90230SOL     OW72522   3.500   9.046   5.232
90230SOL    HW172523   3.471   9.092   5.154
90230SOL    HW272524   3.594   9.034   5.220
90231SOL     OW72525   3.524   2.376  12.822
90231SOL    HW172526   3.568   2.365  12.907
90231SOL    HW272527   3.505   2.287  12.793
90232SOL     OW72528   5.677  10.806   2.186
90232SOL    HW172529   5.619  10.756   2.243
90232SOL    HW272530   5.627  10.816   2.105
90233SOL     OW72531   7.004  10.768   4.415
90233SOL    HW172532   7.041  10.826   4.481
90233SOL    HW272533   7.047  10.683   4.431
90234SOL     OW72534  14.798  12.614  14.148
90234SOL    HW172535   0.002  12.626  14.194
90234SOL    HW272536  14.817  12.551  14.079
90235SOL     OW72537   4.032   3.934   1.751
90235SOL    HW172538   4.109   3.928   1.695
90235SOL    HW272539   3.985   4.011   1.718
90236SOL     OW72540   3.251   5.327   1.135
90236SOL    HW172541   3.242   5.394   1.202
90236SOL    HW272542   3.272   5.247   1.183
90237SOL     OW72543   7.894  14.337  12.150
90237SOL    HW172544   7.974  14.334  12.097
90237SOL    HW272545   7.896  14.257  12.202
90238SOL     OW72546   8.487  13.817   0.295
90238SOL    HW172547   8.568  13.776   0.265
90238SOL    HW272548   8.473  13.782   0.383
90239SOL     OW72549   4.394   7.180   0.934
90239SOL    HW172550   4.351   7.096   0.918
90239SOL    HW272551   4.435   7.202   0.851
90240SOL     OW72552  13.048   9.949  13.091
90240SOL    HW172553  12.976   9.904  13.047
90240SOL    HW272554  13.114   9.959  13.023
90241SOL     OW72555   1.911   0.858   2.071
90241SOL    HW172556   1.941   0.813   1.992
90241SOL    HW272557   1.819   0.832   2.079
90242SOL     OW72558   6.106  13.560   8.065
90242SOL    HW172559   6.175  13.623   8.046
90242SOL    HW272560   6.033  13.586   8.007
90243SOL     OW72561   2.251   5.595  10.116
90243SOL    HW172562   2.286   5.530  10.177
90243SOL    HW272563   2.241   5.675  10.169
90244SOL     OW72564   3.795   0.437   1.840
90244SOL    HW172565   3.873   0.443   1.785
90244SOL    HW272566   3.737   0.376   1.793
90245SOL     OW72567   7.030  11.342   4.880
90245SOL    HW172568   6.994  11.274   4.937
90245SOL    HW272569   7.021  11.423   4.931
90246SOL     OW72570  10.131   7.002  12.874
90246SOL    HW172571  10.226   7.014  12.869
90246SOL    HW272572  10.098   7.043  12.794
90247SOL     OW72573   5.153   2.151  10.401
90247SOL    HW172574   5.213   2.092  10.353
90247SOL    HW272575   5.181   2.144  10.492
90248SOL     OW72576   0.156  12.447  12.517
90248SOL    HW172577   0.164  12.474  12.425
90248SOL    HW272578   0.097  12.372  12.514
90249SOL     OW72579   8.383   8.159  13.257
90249SOL    HW172580   8.432   8.104  13.196
90249SOL    HW272581   8.446   8.182  13.325
90250SOL     OW72582   5.884   9.960   7.271
90250SOL    HW172583   5.881  10.050   7.238
90250SOL    HW272584   5.875   9.970   7.366
90251SOL     OW72585   0.448   5.829   1.206
90251SOL    HW172586   0.474   5.890   1.275
90251SOL    HW272587   0.504   5.852   1.132
90252SOL     OW72588   3.206  12.947  14.072
90252SOL    HW172589   3.118  12.972  14.044
90252SOL    HW272590   3.193  12.871  14.128
90253SOL     OW72591  10.424  14.009  10.299
90253SOL    HW172592  10.375  14.072  10.351
90253SOL    HW272593  10.421  14.045  10.210
90254SOL     OW72594   2.508  11.005   9.469
90254SOL    HW172595   2.421  10.982   9.501
90254SOL    HW272596   2.565  10.993   9.545
90255SOL     OW72597   4.042   8.149   5.452
90255SOL    HW172598   4.047   8.057   5.480
90255SOL    HW272599   3.993   8.146   5.370
90256SOL     OW72600   2.390  13.627  10.537
90256SOL    HW172601   2.317  13.636  10.598
90256SOL    HW272602   2.348  13.608  10.453
90257SOL     OW72603   6.507   5.632  11.347
90257SOL    HW172604   6.565   5.592  11.412
90257SOL    HW272605   6.565   5.647  11.272
90258SOL     OW72606   4.046   0.944  10.888
90258SOL    HW172607   4.019   0.938  10.979
90258SOL    HW272608   4.132   0.986  10.890
90259SOL     OW72609   5.547  10.166  14.362
90259SOL    HW172610   5.504  10.203  14.439
90259SOL    HW272611   5.488  10.185  14.289
90260SOL     OW72612   4.766  13.172  12.265
90260SOL    HW172613   4.774  13.117  12.343
90260SOL    HW272614   4.853  13.209  12.252
90261SOL     OW72615   0.848   6.703   6.881
90261SOL    HW172616   0.836   6.670   6.970
90261SOL    HW272617   0.924   6.656   6.848
90262SOL     OW72618   8.303   7.240  14.231
90262SOL    HW172619   8.255   7.322  14.244
90262SOL    HW272620   8.246   7.174  14.271
90263SOL     OW72621  12.111   2.390   9.010
90263SOL    HW172622  12.110   2.465   8.949
90263SOL    HW272623  12.191   2.403   9.061
90264SOL     OW72624   2.619   5.356   6.681
90264SOL    HW172625   2.630   5.383   6.772
90264SOL    HW272626   2.531   5.384   6.658
90265SOL     OW72627  14.854   1.859  11.254
90265SOL    HW172628   0.063   1.822  11.253
90265SOL    HW272629  14.832   1.868  11.346
90266SOL     OW72630  14.794  11.253  13.918
90266SOL    HW172631  14.822  11.315  13.986
90266SOL    HW272632  14.701  11.273  13.904
90267SOL     OW72633  11.431   1.322   9.790
90267SOL    HW172634  11.351   1.318   9.841
90267SOL    HW272635  11.401   1.321   9.699
90268SOL     OW72636   5.652  13.037   2.873
90268SOL    HW172637   5.580  13.027   2.937
90268SOL    HW272638   5.731  13.028   2.926
90269SOL     OW72639   8.463   6.989   4.815
90269SOL    HW172640   8.529   6.986   4.884
90269SOL    HW272641   8.435   7.081   4.812
90270SOL     OW72642   3.721  11.275   7.016
90270SOL    HW172643   3.707  11.358   7.062
90270SOL    HW272644   3.801  11.240   7.054
90271SOL     OW72645   4.674   5.787  13.691
90271SOL    HW172646   4.603   5.851  13.699
90271SOL    HW272647   4.691   5.782  13.597
90272SOL     OW72648   3.387   5.275   4.933
90272SOL    HW172649   3.362   5.350   4.878
90272SOL    HW272650   3.420   5.210   4.872
90273SOL     OW72651   0.355  13.799   3.741
90273SOL    HW172652   0.337  13.878   3.689
90273SOL    HW272653   0.431  13.760   3.699
90274SOL     OW72654   7.332   4.322   5.223
90274SOL    HW172655   7.350   4.317   5.317
90274SOL    HW272656   7.286   4.240   5.204
90275SOL     OW72657  14.011   3.554   8.733
90275SOL    HW172658  13.929   3.602   8.743
90275SOL    HW272659  14.055   3.596   8.659
90276SOL     OW72660  13.658  11.722   8.520
90276SOL    HW172661  13.657  11.763   8.607
90276SOL    HW272662  13.738  11.756   8.480
90277SOL     OW72663   8.897   8.990  12.699
90277SOL    HW172664   8.804   8.970  12.708
90277SOL    HW272665   8.932   8.988  12.788
90278SOL     OW72666   2.974   7.769   8.039
90278SOL    HW172667   3.003   7.859   8.058
90278SOL    HW272668   3.034   7.714   8.089
90279SOL     OW72669   5.973   9.756  13.896
90279SOL    HW172670   6.064   9.785  13.901
90279SOL    HW272671   5.922   9.837  13.895
90280SOL     OW72672  10.913   0.254   8.037
90280SOL    HW172673  11.004   0.259   8.006
90280SOL    HW272674  10.860   0.276   7.960
90281SOL     OW72675   7.352   0.395   0.491
90281SOL    HW172676   7.336   0.357   0.405
90281SOL    HW272677   7.447   0.405   0.496
90282SOL     OW72678   9.555  10.957   5.993
90282SOL    HW172679   9.499  11.029   6.022
90282SOL    HW272680   9.598  10.990   5.914
90283SOL     OW72681   8.784  13.201  14.328
90283SOL    HW172682   8.700  13.154  14.330
90283SOL    HW272683   8.847  13.136  14.295
90284SOL     OW72684  11.215   9.337   9.514
90284SOL    HW172685  11.177   9.255   9.483
90284SOL    HW272686  11.308   9.319   9.522
90285SOL     OW72687   4.977   8.058   0.679
90285SOL    HW172688   4.957   8.142   0.637
90285SOL    HW272689   4.999   7.999   0.607
90286SOL     OW72690   2.665   6.689  10.282
90286SOL    HW172691   2.672   6.648  10.195
90286SOL    HW272692   2.658   6.783  10.264
90287SOL     OW72693   8.288   7.209   1.385
90287SOL    HW172694   8.257   7.263   1.458
90287SOL    HW272695   8.289   7.269   1.311
90288SOL     OW72696   5.632  14.323   3.056
90288SOL    HW172697   5.693  14.311   3.129
90288SOL    HW272698   5.677  14.383   2.997
90289SOL     OW72699   2.947  11.081  14.542
90289SOL    HW172700   2.971  11.061  14.633
90289SOL    HW272701   2.984  11.009  14.491
90290SOL     OW72702   9.140  13.269   9.783
90290SOL    HW172703   9.176  13.195   9.734
90290SOL    HW272704   9.217  13.319   9.811
90291SOL     OW72705   9.323   1.729  11.422
90291SOL    HW172706   9.255   1.724  11.490
90291SOL    HW272707   9.405   1.740  11.471
90292SOL     OW72708   6.386  13.676  11.964
90292SOL    HW172709   6.344  13.746  11.914
90292SOL    HW272710   6.480  13.692  11.953
90293SOL     OW72711   3.220   9.653   6.126
90293SOL    HW172712   3.254   9.568   6.153
90293SOL    HW272713   3.183   9.691   6.206
90294SOL     OW72714   2.285  13.261  13.923
90294SOL    HW172715   2.229  13.301  13.990
90294SOL    HW272716   2.311  13.333  13.867
90295SOL     OW72717   6.393  11.608  13.750
90295SOL    HW172718   6.469  11.588  13.805
90295SOL    HW272719   6.418  11.687  13.702
90296SOL     OW72720  10.698  12.601   7.730
90296SOL    HW172721  10.610  12.637   7.723
90296SOL    HW272722  10.685  12.511   7.759
90297SOL     OW72723   9.269   2.423  11.163
90297SOL    HW172724   9.293   2.503  11.116
90297SOL    HW272725   9.352   2.389  11.197
90298SOL     OW72726  12.810  14.330   4.729
90298SOL    HW172727  12.772  14.266   4.788
90298SOL    HW272728  12.768  14.413   4.753
90299SOL     OW72729   8.356   9.928   7.097
90299SOL    HW172730   8.400   9.984   7.033
90299SOL    HW272731   8.270   9.910   7.059
90300SOL     OW72732   0.252   2.799   8.048
90300SOL    HW172733   0.248   2.741   8.123
90300SOL    HW272734   0.195   2.872   8.071
90301SOL     OW72735   0.551   6.227   9.125
90301SOL    HW172736   0.510   6.162   9.181
90301SOL    HW272737   0.642   6.200   9.118
90302SOL     OW72738   0.243   6.159  11.929
90302SOL    HW172739   0.161   6.124  11.964
90302SOL    HW272740   0.269   6.227  11.990
90303SOL     OW72741  12.151   2.031   6.203
90303SOL    HW172742  12.092   1.985   6.262
90303SOL    HW272743  12.098   2.102   6.165
90304SOL     OW72744   9.983   8.671   7.884
90304SOL    HW172745   9.925   8.740   7.919
90304SOL    HW272746   9.954   8.591   7.928
90305SOL     OW72747   7.797   2.303  11.737
90305SOL    HW172748   7.784   2.366  11.807
90305SOL    HW272749   7.782   2.353  11.656
90306SOL     OW72750  10.167  10.141   0.638
90306SOL    HW172751  10.231  10.124   0.569
90306SOL    HW272752  10.098  10.076   0.623
90307SOL     OW72753   7.869   6.422   2.613
90307SOL    HW172754   7.883   6.484   2.685
90307SOL    HW272755   7.827   6.346   2.654
90308SOL     OW72756   7.130   0.820  13.092
90308SOL    HW172757   7.207   0.778  13.131
90308SOL    HW272758   7.073   0.747  13.068
90309SOL     OW72759  14.527  11.201   9.997
90309SOL    HW172760  14.528  11.296   9.982
90309SOL    HW272761  14.439  11.174   9.970
90310SOL     OW72762   3.063   4.917  10.720
90310SOL    HW172763   3.082   4.981  10.651
90310SOL    HW272764   3.112   4.839  10.694
90311SOL     OW72765  12.621  11.803  11.175
90311SOL    HW172766  12.708  11.790  11.214
90311SOL    HW272767  12.561  11.765  11.239
90312SOL     OW72768   6.470  13.734  10.377
90312SOL    HW172769   6.467  13.639  10.388
90312SOL    HW272770   6.530  13.747  10.303
90313SOL     OW72771   8.441   2.575   5.244
90313SOL    HW172772   8.399   2.495   5.214
90313SOL    HW272773   8.478   2.613   5.164
90314SOL     OW72774   0.361   7.502   9.149
90314SOL    HW172775   0.326   7.557   9.078
90314SOL    HW272776   0.285   7.480   9.202
90315SOL     OW72777   0.547  14.743   9.594
90315SOL    HW172778   0.589  14.659   9.576
90315SOL    HW272779   0.483  14.754   9.524
90316SOL     OW72780   9.356   9.916   3.258
90316SOL    HW172781   9.407   9.855   3.313
90316SOL    HW272782   9.421   9.955   3.199
90317SOL     OW72783   2.264  12.586  13.379
90317SOL    HW172784   2.289  12.529  13.452
90317SOL    HW272785   2.326  12.565  13.309
90318SOL     OW72786   2.062   5.127   0.923
90318SOL    HW172787   2.084   5.060   0.858
90318SOL    HW272788   2.135   5.189   0.919
90319SOL     OW72789   1.202  12.309  13.297
90319SOL    HW172790   1.156  12.228  13.321
90319SOL    HW272791   1.141  12.378  13.323
90320SOL     OW72792   8.836  10.143   4.964
90320SOL    HW172793   8.819  10.236   4.946
90320SOL    HW272794   8.921  10.142   5.008
90321SOL     OW72795   2.881   1.017   0.008
90321SOL    HW172796   2.866   0.923  14.872
90321SOL    HW272797   2.850   1.033   0.097
90322SOL     OW72798   5.843   9.675   4.390
90322SOL    HW172799   5.770   9.726   4.355
90322SOL    HW272800   5.816   9.654   4.480
90323SOL     OW72801   8.247   1.953  13.345
90323SOL    HW172802   8.289   2.032  13.379
90323SOL    HW272803   8.298   1.881  13.382
90324SOL     OW72804   3.655   0.688   9.236
90324SOL    HW172805   3.617   0.629   9.301
90324SOL    HW272806   3.587   0.754   9.221
90325SOL     OW72807   3.119  13.688   9.001
90325SOL    HW172808   3.047  13.626   9.005
90325SOL    HW272809   3.190  13.639   8.960
90326SOL     OW72810   1.939   6.715  10.818
90326SOL    HW172811   1.885   6.728  10.740
90326SOL    HW272812   2.027   6.740  10.792
90327SOL     OW72813   1.879   0.071   6.804
90327SOL    HW172814   1.944   0.064   6.734
90327SOL    HW272815   1.879   0.163   6.828
90328SOL     OW72816  11.493   3.559   3.072
90328SOL    HW172817  11.539   3.631   3.116
90328SOL    HW272818  11.562   3.510   3.028
90329SOL     OW72819  10.195   3.426  12.317
90329SOL    HW172820  10.204   3.518  12.293
90329SOL    HW272821  10.253   3.414  12.392
90330SOL     OW72822   9.495   6.322  11.583
90330SOL    HW172823   9.540   6.372  11.651
90330SOL    HW272824   9.546   6.338  11.504
90331SOL     OW72825  10.811   3.400  13.637
90331SOL    HW172826  10.865   3.327  13.607
90331SOL    HW272827  10.749   3.415  13.565
90332SOL     OW72828   8.180  10.157  12.475
90332SOL    HW172829   8.123  10.166  12.551
90332SOL    HW272830   8.227  10.240  12.470
90333SOL     OW72831   6.458  13.246   5.997
90333SOL    HW172832   6.377  13.297   5.996
90333SOL    HW272833   6.526  13.307   5.967
90334SOL     OW72834   9.878   9.279   8.803
90334SOL    HW172835   9.905   9.273   8.894
90334SOL    HW272836   9.959   9.300   8.755
90335SOL     OW72837   7.007  14.426   3.746
90335SOL    HW172838   7.081  14.480   3.774
90335SOL    HW272839   6.931  14.483   3.753
90336SOL     OW72840  12.489  11.830   2.824
90336SOL    HW172841  12.453  11.844   2.912
90336SOL    HW272842  12.488  11.916   2.783
90337SOL     OW72843  11.021  14.393   7.497
90337SOL    HW172844  11.105  14.349   7.486
90337SOL    HW272845  10.981  14.392   7.410
90338SOL     OW72846   1.562  14.220  14.175
90338SOL    HW172847   1.484  14.208  14.229
90338SOL    HW272848   1.534  14.280  14.105
90339SOL     OW72849   4.890  11.582   7.791
90339SOL    HW172850   4.911  11.545   7.877
90339SOL    HW272851   4.934  11.525   7.728
90340SOL     OW72852   6.994   8.016   0.747
90340SOL    HW172853   7.054   7.970   0.806
90340SOL    HW272854   7.004   8.108   0.770
90341SOL     OW72855   6.252   5.274   3.181
90341SOL    HW172856   6.157   5.282   3.174
90341SOL    HW272857   6.287   5.349   3.132
90342SOL     OW72858   0.426  14.788  10.816
90342SOL    HW172859   0.404  14.719  10.879
90342SOL    HW272860   0.434  14.867  10.870
90343SOL     OW72861   6.128  10.597   7.377
90343SOL    HW172862   6.089  10.535   7.315
90343SOL    HW272863   6.059  10.659   7.397
90344SOL     OW72864   5.750  10.960   3.415
90344SOL    HW172865   5.746  10.865   3.426
90344SOL    HW272866   5.842  10.979   3.399
90345SOL     OW72867  13.163  11.786  10.853
90345SOL    HW172868  13.231  11.844  10.888
90345SOL    HW272869  13.203  11.700  10.852
90346SOL     OW72870   8.590   7.556   7.291
90346SOL    HW172871   8.648   7.616   7.244
90346SOL    HW272872   8.517   7.542   7.232
90347SOL     OW72873   8.287  14.611  14.493
90347SOL    HW172874   8.292  14.631  14.587
90347SOL    HW272875   8.206  14.654  14.464
90348SOL     OW72876   6.646  11.156  14.309
90348SOL    HW172877   6.599  11.096  14.251
90348SOL    HW272878   6.702  11.099  14.363
90349SOL     OW72879   6.614   8.804   0.145
90349SOL    HW172880   6.551   8.763   0.085
90349SOL    HW272881   6.699   8.784   0.106
90350SOL     OW72882  13.524   7.481  14.004
90350SOL    HW172883  13.475   7.563  14.010
90350SOL    HW272884  13.463   7.420  13.963
90351SOL     OW72885  12.668  10.063   6.063
90351SOL    HW172886  12.589  10.017   6.035
90351SOL    HW272887  12.732   9.994   6.078
90352SOL     OW72888   2.625   5.303   0.716
90352SOL    HW172889   2.591   5.391   0.700
90352SOL    HW272890   2.679   5.312   0.795
90353SOL     OW72891   2.636   6.156  14.321
90353SOL    HW172892   2.715   6.198  14.285
90353SOL    HW272893   2.670   6.095  14.386
90354SOL     OW72894   4.949   2.812  10.896
90354SOL    HW172895   4.878   2.846  10.842
90354SOL    HW272896   4.907   2.789  10.979
90355SOL     OW72897   5.951   4.491   0.119
90355SOL    HW172898   5.990   4.408   0.146
90355SOL    HW272899   6.025   4.552   0.114
90356SOL     OW72900  12.765   8.349   2.442
90356SOL    HW172901  12.678   8.382   2.420
90356SOL    HW272902  12.794   8.404   2.515
90357SOL     OW72903   6.301  13.726   6.220
90357SOL    HW172904   6.244  13.682   6.283
90357SOL    HW272905   6.389  13.701   6.245
90358SOL     OW72906  12.862  12.351   3.402
90358SOL    HW172907  12.876  12.310   3.316
90358SOL    HW272908  12.767  12.356   3.410
90359SOL     OW72909   0.345   3.533   3.211
90359SOL    HW172910   0.424   3.585   3.225
90359SOL    HW272911   0.333   3.486   3.293
90360SOL     OW72912   9.987   4.419   7.684
90360SOL    HW172913   9.965   4.436   7.775
90360SOL    HW272914  10.082   4.426   7.680
90361SOL     OW72915  11.586   3.061   8.756
90361SOL    HW172916  11.621   2.980   8.791
90361SOL    HW272917  11.584   3.047   8.661
90362SOL     OW72918   5.993   9.985   6.867
90362SOL    HW172919   6.042   9.994   6.948
90362SOL    HW272920   5.987  10.073   6.831
90363SOL     OW72921   8.362   6.124   3.287
90363SOL    HW172922   8.407   6.045   3.317
90363SOL    HW272923   8.273   6.116   3.322
90364SOL     OW72924  13.423   3.322   2.478
90364SOL    HW172925  13.367   3.252   2.445
90364SOL    HW272926  13.456   3.365   2.399
90365SOL     OW72927   3.787   6.668   5.858
90365SOL    HW172928   3.873   6.708   5.843
90365SOL    HW272929   3.763   6.694   5.947
90366SOL     OW72930   9.344   8.287   4.496
90366SOL    HW172931   9.331   8.241   4.413
90366SOL    HW272932   9.347   8.217   4.561
90367SOL     OW72933   9.875  11.382   8.181
90367SOL    HW172934   9.788  11.380   8.219
90367SOL    HW272935   9.918  11.302   8.213
90368SOL     OW72936  12.176   3.829   9.740
90368SOL    HW172937  12.133   3.761   9.688
90368SOL    HW272938  12.263   3.837   9.703
90369SOL     OW72939  12.461   1.259   9.844
90369SOL    HW172940  12.370   1.268   9.815
90369SOL    HW272941  12.478   1.165   9.839
90370SOL     OW72942  14.663   7.891   7.900
90370SOL    HW172943  14.749   7.901   7.859
90370SOL    HW272944  14.610   7.845   7.834
90371SOL     OW72945   2.439  13.762   8.930
90371SOL    HW172946   2.389  13.825   8.879
90371SOL    HW272947   2.525  13.803   8.942
90372SOL     OW72948   6.929  10.181   7.955
90372SOL    HW172949   6.854  10.123   7.956
90372SOL    HW272950   7.004  10.124   7.941
90373SOL     OW72951  12.504  12.393  13.085
90373SOL    HW172952  12.582  12.337  13.091
90373SOL    HW272953  12.457  12.378  13.167
90374SOL     OW72954   1.882   5.255   6.657
90374SOL    HW172955   1.846   5.237   6.744
90374SOL    HW272956   1.828   5.327   6.623
90375SOL     OW72957   5.179   6.229  13.282
90375SOL    HW172958   5.211   6.220  13.371
90375SOL    HW272959   5.257   6.244  13.229
90376SOL     OW72960   7.828   6.136   0.267
90376SOL    HW172961   7.769   6.062   0.249
90376SOL    HW272962   7.901   6.122   0.207
90377SOL     OW72963  10.854   9.984  13.729
90377SOL    HW172964  10.827  10.019  13.814
90377SOL    HW272965  10.824  10.049  13.666
90378SOL     OW72966   4.139   0.082   9.989
90378SOL    HW172967   4.149  14.872   9.954
90378SOL    HW272968   4.205   0.087  10.058
90379SOL     OW72969  11.021   9.943   4.231
90379SOL    HW172970  10.939   9.895   4.241
90379SOL    HW272971  11.090   9.878   4.245
90380SOL     OW72972  13.789   9.697   8.950
90380SOL    HW172973  13.881   9.701   8.923
90380SOL    HW272974  13.739   9.705   8.869
90381SOL     OW72975   8.102   8.699  11.628
90381SOL    HW172976   8.189   8.721  11.595
90381SOL    HW272977   8.056   8.783  11.634
90382SOL     OW72978   9.098   0.534   6.343
90382SOL    HW172979   9.157   0.608   6.327
90382SOL    HW272980   9.083   0.496   6.257
90383SOL     OW72981   1.987   5.077   9.424
90383SOL    HW172982   2.027   5.016   9.486
90383SOL    HW272983   2.062   5.120   9.382
90384SOL     OW72984  12.289   2.989   0.506
90384SOL    HW172985  12.310   3.042   0.583
90384SOL    HW272986  12.367   2.935   0.492
90385SOL     OW72987   6.428   4.873  13.224
90385SOL    HW172988   6.367   4.876  13.150
90385SOL    HW272989   6.472   4.789  13.216
90386SOL     OW72990   2.719   7.266   0.064
90386SOL    HW172991   2.663   7.261   0.142
90386SOL    HW272992   2.686   7.197   0.007
90387SOL     OW72993   1.374   3.004  14.405
90387SOL    HW172994   1.382   3.036  14.495
90387SOL    HW272995   1.323   3.072  14.361
90388SOL     OW72996   4.583   4.530   2.685
90388SOL    HW172997   4.527   4.492   2.753
90388SOL    HW272998   4.547   4.617   2.671
90389SOL     OW72999  11.792   4.429   5.018
90389SOL    HW173000  11.776   4.336   5.029
90389SOL    HW273001  11.737   4.455   4.944
90390SOL     OW73002   2.391   0.388   1.424
90390SOL    HW173003   2.330   0.440   1.476
90390SOL    HW273004   2.337   0.345   1.358
90391SOL     OW73005   2.361   3.704  13.844
90391SOL    HW173006   2.316   3.709  13.928
90391SOL    HW273007   2.290   3.695  13.780
90392SOL     OW73008  10.600   5.741   4.740
90392SOL    HW173009  10.641   5.822   4.709
90392SOL    HW273010  10.516   5.768   4.777
90393SOL     OW73011   7.540  13.005   8.333
90393SOL    HW173012   7.561  13.097   8.318
90393SOL    HW273013   7.445  13.005   8.349
90394SOL     OW73014   4.208   7.485  10.646
90394SOL    HW173015   4.189   7.497  10.553
90394SOL    HW273016   4.287   7.536  10.661
90395SOL     OW73017   1.353   3.045   4.427
90395SOL    HW173018   1.373   3.128   4.383
90395SOL    HW273019   1.403   3.049   4.508
90396SOL     OW73020  11.789   0.588   9.013
90396SOL    HW173021  11.837   0.599   8.931
90396SOL    HW273022  11.719   0.653   9.009
90397SOL     OW73023   2.086   4.612   2.379
90397SOL    HW173024   2.015   4.672   2.401
90397SOL    HW273025   2.053   4.526   2.405
90398SOL     OW73026   7.789  10.317  14.382
90398SOL    HW173027   7.708  10.328  14.331
90398SOL    HW273028   7.859  10.321  14.317
90399SOL     OW73029  10.747  10.209  13.595
90399SOL    HW173030  10.735  10.220  13.501
90399SOL    HW273031  10.665  10.240  13.634
90400SOL     OW73032   9.068  11.644   2.479
90400SOL    HW173033   9.063  11.556   2.440
90400SOL    HW273034   9.006  11.640   2.553
90401SOL     OW73035   8.465   8.217   4.323
90401SOL    HW173036   8.543   8.248   4.370
90401SOL    HW273037   8.393   8.230   4.385
90402SOL     OW73038   4.341  14.597  10.341
90402SOL    HW173039   4.296  14.629  10.420
90402SOL    HW273040   4.297  14.515  10.320
90403SOL     OW73041   2.877   9.211   2.055
90403SOL    HW173042   2.913   9.124   2.036
90403SOL    HW273043   2.874   9.255   1.970
90404SOL     OW73044   6.034  10.871   4.846
90404SOL    HW173045   6.079  10.794   4.813
90404SOL    HW273046   5.941  10.852   4.831
90405SOL     OW73047   1.960   7.774   8.324
90405SOL    HW173048   1.871   7.766   8.289
90405SOL    HW273049   2.016   7.772   8.247
90406SOL     OW73050   8.443   0.540   2.704
90406SOL    HW173051   8.505   0.531   2.631
90406SOL    HW273052   8.357   0.526   2.664
90407SOL     OW73053   0.805  12.027   1.527
90407SOL    HW173054   0.874  12.029   1.594
90407SOL    HW273055   0.788  11.934   1.512
90408SOL     OW73056  10.594   8.629  12.597
90408SOL    HW173057  10.621   8.564  12.661
90408SOL    HW273058  10.562   8.703  12.649
90409SOL     OW73059   0.901   1.570   3.705
90409SOL    HW173060   0.859   1.604   3.784
90409SOL    HW273061   0.993   1.595   3.714
90410SOL     OW73062   3.578  14.159   8.197
90410SOL    HW173063   3.589  14.084   8.255
90410SOL    HW273064   3.637  14.142   8.124
90411SOL     OW73065  11.883   8.866  14.279
90411SOL    HW173066  11.913   8.912  14.357
90411SOL    HW273067  11.963   8.847  14.230
90412SOL     OW73068   9.278   0.964   4.957
90412SOL    HW173069   9.310   1.043   4.913
90412SOL    HW273070   9.354   0.905   4.957
90413SOL     OW73071   4.484  10.718   1.628
90413SOL    HW173072   4.519  10.642   1.675
90413SOL    HW273073   4.472  10.687   1.538
90414SOL     OW73074   2.408   7.973   9.846
90414SOL    HW173075   2.336   7.975   9.782
90414SOL    HW273076   2.476   8.027   9.807
90415SOL     OW73077  12.963  12.058  14.597
90415SOL    HW173078  12.901  12.040  14.527
90415SOL    HW273079  12.947  12.150  14.620
90416SOL     OW73080   8.551  10.205  10.028
90416SOL    HW173081   8.538  10.208   9.933
90416SOL    HW273082   8.640  10.172  10.039
90417SOL     OW73083   9.385  12.969   2.899
90417SOL    HW173084   9.362  13.004   2.985
90417SOL    HW273085   9.301  12.956   2.855
90418SOL     OW73086   8.693  12.170  11.092
90418SOL    HW173087   8.634  12.104  11.055
90418SOL    HW273088   8.751  12.193  11.019
90419SOL     OW73089  11.986   6.304   6.052
90419SOL    HW173090  12.027   6.329   6.135
90419SOL    HW273091  11.901   6.267   6.076
90420SOL     OW73092   6.208  10.988   5.218
90420SOL    HW173093   6.235  10.962   5.306
90420SOL    HW273094   6.182  11.080   5.227
90421SOL     OW73095   8.163   7.154   4.057
90421SOL    HW173096   8.136   7.194   4.140
90421SOL    HW273097   8.213   7.077   4.084
90422SOL     OW73098   2.599  12.862  13.160
90422SOL    HW173099   2.644  12.942  13.188
90422SOL    HW273100   2.617  12.800  13.230
90423SOL     OW73101   8.334   4.312   1.282
90423SOL    HW173102   8.367   4.401   1.273
90423SOL    HW273103   8.269   4.303   1.212
90424SOL     OW73104   4.454   4.283  11.108
90424SOL    HW173105   4.404   4.364  11.099
90424SOL    HW273106   4.526   4.292  11.045
90425SOL     OW73107   2.263   2.702   5.469
90425SOL    HW173108   2.269   2.616   5.511
90425SOL    HW273109   2.169   2.713   5.451
90426SOL     OW73110  12.311  12.376   2.443
90426SOL    HW173111  12.226  12.337   2.463
90426SOL    HW273112  12.374  12.308   2.466
90427SOL     OW73113   9.548   9.981   9.065
90427SOL    HW173114   9.526   9.905   9.012
90427SOL    HW273115   9.579   9.945   9.148
90428SOL     OW73116  11.937   4.095   4.256
90428SOL    HW173117  11.873   4.023   4.256
90428SOL    HW273118  11.941   4.122   4.164
90429SOL     OW73119   3.398   2.511   2.420
90429SOL    HW173120   3.420   2.425   2.383
90429SOL    HW273121   3.302   2.509   2.428
90430SOL     OW73122   1.872   5.472   9.111
90430SOL    HW173123   1.936   5.536   9.081
90430SOL    HW273124   1.805   5.524   9.157
90431SOL     OW73125   6.719  13.335   7.641
90431SOL    HW173126   6.702  13.329   7.547
90431SOL    HW273127   6.712  13.428   7.662
90432SOL     OW73128  12.206   8.581   0.099
90432SOL    HW173129  12.130   8.632   0.070
90432SOL    HW273130  12.180   8.490   0.084
90433SOL     OW73131   2.028  12.225   1.835
90433SOL    HW173132   1.961  12.288   1.862
90433SOL    HW273133   2.013  12.213   1.741
90434SOL     OW73134   7.809   3.644   1.079
90434SOL    HW173135   7.895   3.647   1.122
90434SOL    HW273136   7.824   3.686   0.994
90435SOL     OW73137   9.039  12.028   4.642
90435SOL    HW173138   9.026  12.014   4.735
90435SOL    HW273139   9.054  11.940   4.607
90436SOL     OW73140   4.567   2.641   1.220
90436SOL    HW173141   4.515   2.624   1.141
90436SOL    HW273142   4.653   2.605   1.201
90437SOL     OW73143  10.880   7.649   6.526
90437SOL    HW173144  10.947   7.617   6.586
90437SOL    HW273145  10.905   7.740   6.509
90438SOL     OW73146  12.318   7.868  13.470
90438SOL    HW173147  12.383   7.837  13.532
90438SOL    HW273148  12.367   7.882  13.389
90439SOL     OW73149   5.392   8.611   6.316
90439SOL    HW173150   5.442   8.612   6.397
90439SOL    HW273151   5.415   8.692   6.272
90440SOL     OW73152   1.142   4.440   0.091
90440SOL    HW173153   1.234   4.452   0.068
90440SOL    HW273154   1.098   4.431   0.007
90441SOL     OW73155  10.488   4.305   0.466
90441SOL    HW173156  10.488   4.227   0.410
90441SOL    HW273157  10.396   4.318   0.489
90442SOL     OW73158  13.757   6.210   8.053
90442SOL    HW173159  13.745   6.119   8.083
90442SOL    HW273160  13.672   6.251   8.069
90443SOL     OW73161   3.277   8.910   4.284
90443SOL    HW173162   3.303   8.854   4.357
90443SOL    HW273163   3.318   8.870   4.208
90444SOL     OW73164   6.568  11.619   5.100
90444SOL    HW173165   6.530  11.599   5.185
90444SOL    HW273166   6.656  11.581   5.103
90445SOL     OW73167   2.958   4.347   8.904
90445SOL    HW173168   3.053   4.346   8.895
90445SOL    HW273169   2.926   4.295   8.829
90446SOL     OW73170   7.007   9.429  14.334
90446SOL    HW173171   6.994   9.433  14.429
90446SOL    HW273172   7.080   9.368  14.323
90447SOL     OW73173   1.471   3.568  14.196
90447SOL    HW173174   1.484   3.487  14.245
90447SOL    HW273175   1.376   3.578  14.190
90448SOL     OW73176  13.284   5.657   2.546
90448SOL    HW173177  13.303   5.751   2.550
90448SOL    HW273178  13.285   5.628   2.637
90449SOL     OW73179   2.264  10.428  10.943
90449SOL    HW173180   2.207  10.396  10.873
90449SOL    HW273181   2.353  10.416  10.909
90450SOL     OW73182   6.446   2.571   7.759
90450SOL    HW173183   6.520   2.596   7.704
90450SOL    HW273184   6.486   2.554   7.845
90451SOL     OW73185   9.278   6.401   0.762
90451SOL    HW173186   9.360   6.443   0.738
90451SOL    HW273187   9.216   6.474   0.772
90452SOL     OW73188  13.571  10.446  10.947
90452SOL    HW173189  13.592  10.403  11.030
90452SOL    HW273190  13.501  10.508  10.970
90453SOL     OW73191   4.982   0.856  14.330
90453SOL    HW173192   4.971   0.790  14.262
90453SOL    HW273193   5.070   0.891  14.315
90454SOL     OW73194   1.915   3.109  14.006
90454SOL    HW173195   1.874   3.023  14.018
90454SOL    HW273196   1.959   3.126  14.090
90455SOL     OW73197  10.942   1.886  13.082
90455SOL    HW173198  10.929   1.808  13.029
90455SOL    HW273199  10.974   1.853  13.166
90456SOL     OW73200  14.267  10.493   8.354
90456SOL    HW173201  14.203  10.425   8.377
90456SOL    HW273202  14.290  10.534   8.437
90457SOL     OW73203   9.486   7.827  11.261
90457SOL    HW173204   9.423   7.895  11.288
90457SOL    HW273205   9.435   7.746  11.263
90458SOL     OW73206   4.828   2.267  11.543
90458SOL    HW173207   4.859   2.347  11.501
90458SOL    HW273208   4.895   2.246  11.608
90459SOL     OW73209  11.978  10.034   9.689
90459SOL    HW173210  11.931  10.094   9.747
90459SOL    HW273211  12.069  10.065   9.691
90460SOL     OW73212   9.864   1.846   1.844
90460SOL    HW173213   9.831   1.838   1.933
90460SOL    HW273214   9.943   1.792   1.842
90461SOL     OW73215   5.352   1.065   5.501
90461SOL    HW173216   5.317   1.142   5.546
90461SOL    HW273217   5.274   1.013   5.479
90462SOL     OW73218   0.980   8.821   2.167
90462SOL    HW173219   0.932   8.895   2.130
90462SOL    HW273220   0.912   8.761   2.196
90463SOL     OW73221   6.396   3.747   9.586
90463SOL    HW173222   6.429   3.658   9.600
90463SOL    HW273223   6.301   3.739   9.597
90464SOL     OW73224   6.244  14.798   6.095
90464SOL    HW173225   6.248  14.862   6.024
90464SOL    HW273226   6.335  14.780   6.117
90465SOL     OW73227   5.217   5.992   5.644
90465SOL    HW173228   5.293   6.003   5.587
90465SOL    HW273229   5.245   5.928   5.709
90466SOL     OW73230   7.152   3.907  13.745
90466SOL    HW173231   7.135   3.817  13.772
90466SOL    HW273232   7.229   3.933  13.795
90467SOL     OW73233   1.751   3.503   7.164
90467SOL    HW173234   1.742   3.506   7.259
90467SOL    HW273235   1.739   3.411   7.142
90468SOL     OW73236   4.667   6.677  13.587
90468SOL    HW173237   4.644   6.664  13.495
90468SOL    HW273238   4.585   6.698  13.630
90469SOL     OW73239  10.388  10.664   4.337
90469SOL    HW173240  10.474  10.699   4.314
90469SOL    HW273241  10.407  10.592   4.397
90470SOL     OW73242   1.839   6.762   4.282
90470SOL    HW173243   1.766   6.822   4.265
90470SOL    HW273244   1.798   6.687   4.326
90471SOL     OW73245   8.917   4.222   8.481
90471SOL    HW173246   8.965   4.140   8.470
90471SOL    HW273247   8.985   4.289   8.490
90472SOL     OW73248   7.125   2.091  14.004
90472SOL    HW173249   7.123   1.996  13.996
90472SOL    HW273250   7.137   2.123  13.915
90473SOL     OW73251   3.866  10.474   8.814
90473SOL    HW173252   3.848  10.511   8.727
90473SOL    HW273253   3.910  10.544   8.862
90474SOL     OW73254   1.153   1.210   0.369
90474SOL    HW173255   1.119   1.299   0.375
90474SOL    HW273256   1.180   1.200   0.277
90475SOL     OW73257  14.027   4.529   4.546
90475SOL    HW173258  14.115   4.563   4.530
90475SOL    HW273259  14.040   4.460   4.611
90476SOL     OW73260   3.462   5.004   5.818
90476SOL    HW173261   3.453   5.056   5.898
90476SOL    HW273262   3.373   4.973   5.800
90477SOL     OW73263   3.445   7.166  10.663
90477SOL    HW173264   3.457   7.229  10.592
90477SOL    HW273265   3.533   7.139  10.688
90478SOL     OW73266  14.790   9.132  11.352
90478SOL    HW173267  14.739   9.106  11.428
90478SOL    HW273268  14.866   9.074  11.353
90479SOL     OW73269  13.563  13.300   7.812
90479SOL    HW173270  13.582  13.228   7.752
90479SOL    HW273271  13.648  13.328   7.844
90480SOL     OW73272  11.452   4.956   6.971
90480SOL    HW173273  11.493   4.996   6.895
90480SOL    HW273274  11.402   4.882   6.936
90481SOL     OW73275   7.548   3.024   7.957
90481SOL    HW173276   7.557   3.092   8.023
90481SOL    HW273277   7.519   3.070   7.878
90482SOL     OW73278   2.754   5.049   9.467
90482SOL    HW173279   2.789   4.961   9.480
90482SOL    HW273280   2.778   5.071   9.377
90483SOL     OW73281   1.661   4.776   5.153
90483SOL    HW173282   1.590   4.818   5.105
90483SOL    HW273283   1.670   4.830   5.233
90484SOL     OW73284   7.493   2.853   4.929
90484SOL    HW173285   7.535   2.896   5.004
90484SOL    HW273286   7.566   2.830   4.871
90485SOL     OW73287   6.024  11.768   0.679
90485SOL    HW173288   6.085  11.695   0.675
90485SOL    HW273289   5.967  11.758   0.603
90486SOL     OW73290  13.711   9.906   6.168
90486SOL    HW173291  13.689   9.914   6.075
90486SOL    HW273292  13.657   9.972   6.211
90487SOL     OW73293  14.567  12.688   4.109
90487SOL    HW173294  14.529  12.637   4.181
90487SOL    HW273295  14.600  12.622   4.048
90488SOL     OW73296  13.999  14.420   9.118
90488SOL    HW173297  13.920  14.369   9.136
90488SOL    HW273298  14.062  14.390   9.183
90489SOL     OW73299   6.606  13.719   3.503
90489SOL    HW173300   6.701  13.727   3.518
90489SOL    HW273301   6.567  13.777   3.568
90490SOL     OW73302  13.944   2.412  12.259
90490SOL    HW173303  13.968   2.384  12.171
90490SOL    HW273304  14.018   2.465  12.289
90491SOL     OW73305   9.212   5.772   3.269
90491SOL    HW173306   9.241   5.859   3.240
90491SOL    HW273307   9.129   5.759   3.223
90492SOL     OW73308  14.742   1.456   1.203
90492SOL    HW173309  14.648   1.444   1.188
90492SOL    HW273310  14.778   1.481   1.118
90493SOL     OW73311   7.351   9.259  11.447
90493SOL    HW173312   7.311   9.303  11.372
90493SOL    HW273313   7.342   9.165  11.427
90494SOL     OW73314   0.634   5.487   9.706
90494SOL    HW173315   0.599   5.500   9.794
90494SOL    HW273316   0.729   5.492   9.716
90495SOL     OW73317   9.927   7.005  10.592
90495SOL    HW173318   9.999   6.981  10.650
90495SOL    HW273319   9.873   6.927  10.586
90496SOL     OW73320  12.134   4.368   3.717
90496SOL    HW173321  12.156   4.443   3.661
90496SOL    HW273322  12.139   4.403   3.806
90497SOL     OW73323   0.949   1.673   6.298
90497SOL    HW173324   0.901   1.590   6.290
90497SOL    HW273325   1.022   1.653   6.357
90498SOL     OW73326   0.917   4.516  14.809
90498SOL    HW173327   0.928   4.495  14.716
90498SOL    HW273328   0.905   4.611  14.811
90499SOL     OW73329   0.562  11.176  13.104
90499SOL    HW173330   0.642  11.146  13.060
90499SOL    HW273331   0.588  11.189  13.195
90500SOL     OW73332   3.381   8.091   2.764
90500SOL    HW173333   3.456   8.109   2.707
90500SOL    HW273334   3.341   8.177   2.778
90501SOL     OW73335  11.048  12.748   5.508
90501SOL    HW173336  11.122  12.802   5.537
90501SOL    HW273337  11.000  12.803   5.446
90502SOL     OW73338   9.505  11.992  12.439
90502SOL    HW173339   9.568  11.940  12.489
90502SOL    HW273340   9.553  12.019  12.361
90503SOL     OW73341   4.550   9.452  12.202
90503SOL    HW173342   4.550   9.537  12.157
90503SOL    HW273343   4.483   9.401  12.155
90504SOL     OW73344   7.514  13.270   3.454
90504SOL    HW173345   7.602  13.307   3.451
90504SOL    HW273346   7.458  13.338   3.415
90505SOL     OW73347  10.441  10.957   2.025
90505SOL    HW173348  10.442  10.897   2.100
90505SOL    HW273349  10.515  11.015   2.041
90506SOL     OW73350   0.344   0.978  14.627
90506SOL    HW173351   0.339   1.056  14.571
90506SOL    HW273352   0.302   0.909  14.575
90507SOL     OW73353   1.221   2.603   0.696
90507SOL    HW173354   1.140   2.589   0.647
90507SOL    HW273355   1.214   2.693   0.729
90508SOL     OW73356  14.179   5.571  10.700
90508SOL    HW173357  14.127   5.500  10.739
90508SOL    HW273358  14.228   5.609  10.773
90509SOL     OW73359   7.661  10.943   1.061
90509SOL    HW173360   7.612  10.873   1.105
90509SOL    HW273361   7.699  10.900   0.984
90510SOL     OW73362   7.629  12.832   9.282
90510SOL    HW173363   7.675  12.794   9.357
90510SOL    HW273364   7.587  12.911   9.317
90511SOL     OW73365   8.321   7.167  12.892
90511SOL    HW173366   8.319   7.113  12.813
90511SOL    HW273367   8.245   7.138  12.943
90512SOL     OW73368  11.257   4.309  14.153
90512SOL    HW173369  11.162   4.323  14.152
90512SOL    HW273370  11.288   4.348  14.072
90513SOL     OW73371  10.904   3.366   5.396
90513SOL    HW173372  10.911   3.356   5.491
90513SOL    HW273373  10.930   3.457   5.380
90514SOL     OW73374   7.690  14.665   7.583
90514SOL    HW173375   7.621  14.731   7.582
90514SOL    HW273376   7.701  14.639   7.492
90515SOL     OW73377   1.315  10.822  11.404
90515SOL    HW173378   1.378  10.751  11.410
90515SOL    HW273379   1.338  10.867  11.322
90516SOL     OW73380   8.556  10.845  10.065
90516SOL    HW173381   8.606  10.807  10.138
90516SOL    HW273382   8.592  10.932  10.054
90517SOL     OW73383  13.994  14.270   8.392
90517SOL    HW173384  14.065  14.215   8.359
90517SOL    HW273385  13.918  14.211   8.397
90518SOL     OW73386   9.315  11.249   0.106
90518SOL    HW173387   9.290  11.322   0.162
90518SOL    HW273388   9.390  11.281   0.056
90519SOL     OW73389   1.770   4.951   5.418
90519SOL    HW173390   1.844   4.891   5.408
90519SOL    HW273391   1.807   5.038   5.402
90520SOL     OW73392  10.233   3.267   2.761
90520SOL    HW173393  10.176   3.218   2.701
90520SOL    HW273394  10.211   3.234   2.848
90521SOL     OW73395   5.012   1.161   0.425
90521SOL    HW173396   4.952   1.125   0.360
90521SOL    HW273397   5.020   1.092   0.491
90522SOL     OW73398   6.016   1.453  12.621
90522SOL    HW173399   5.959   1.528  12.605
90522SOL    HW273400   6.008   1.400  12.542
90523SOL     OW73401   3.437   4.952   7.459
90523SOL    HW173402   3.355   4.999   7.474
90523SOL    HW273403   3.431   4.923   7.368
90524SOL     OW73404   8.478   2.570  10.738
90524SOL    HW173405   8.507   2.582  10.829
90524SOL    HW273406   8.406   2.633  10.729
90525SOL     OW73407   5.514  13.564   1.205
90525SOL    HW173408   5.610  13.557   1.209
90525SOL    HW273409   5.484  13.520   1.285
90526SOL     OW73410  13.857   9.775  11.246
90526SOL    HW173411  13.896   9.823  11.319
90526SOL    HW273412  13.869   9.832  11.170
90527SOL     OW73413   6.416   7.953   8.364
90527SOL    HW173414   6.509   7.935   8.348
90527SOL    HW273415   6.382   7.871   8.400
90528SOL     OW73416   2.881  11.818   2.048
90528SOL    HW173417   2.827  11.888   2.011
90528SOL    HW273418   2.885  11.752   1.979
90529SOL     OW73419   7.036   0.422   9.318
90529SOL    HW173420   7.010   0.421   9.410
90529SOL    HW273421   6.956   0.444   9.271
90530SOL     OW73422   2.114   2.169   0.718
90530SOL    HW173423   2.164   2.204   0.644
90530SOL    HW273424   2.041   2.123   0.678
90531SOL     OW73425   4.669   0.389   0.367
90531SOL    HW173426   4.585   0.430   0.388
90531SOL    HW273427   4.646   0.312   0.316
90532SOL     OW73428   7.487   8.243   1.594
90532SOL    HW173429   7.394   8.224   1.603
90532SOL    HW273430   7.500   8.325   1.642
90533SOL     OW73431  12.634   0.207   8.297
90533SOL    HW173432  12.697   0.143   8.265
90533SOL    HW273433  12.661   0.224   8.387
90534SOL     OW73434   7.238   2.151  13.350
90534SOL    HW173435   7.172   2.082  13.342
90534SOL    HW273436   7.308   2.111  13.402
90535SOL     OW73437  14.701   2.944   4.751
90535SOL    HW173438  14.720   2.983   4.666
90535SOL    HW273439  14.740   2.856   4.746
90536SOL     OW73440   9.348  14.640  13.762
90536SOL    HW173441   9.298  14.562  13.785
90536SOL    HW273442   9.303  14.675  13.685
90537SOL     OW73443   2.273   0.206   0.176
90537SOL    HW173444   2.314   0.165   0.252
90537SOL    HW273445   2.216   0.138   0.140
90538SOL     OW73446   3.064   4.868  11.070
90538SOL    HW173447   3.058   4.787  11.121
90538SOL    HW273448   3.018   4.933  11.123
90539SOL     OW73449   9.458  10.910  11.253
90539SOL    HW173450   9.398  10.939  11.322
90539SOL    HW273451   9.437  10.818  11.240
90540SOL     OW73452   4.769   1.572  13.330
90540SOL    HW173453   4.829   1.590  13.258
90540SOL    HW273454   4.791   1.637  13.397
90541SOL     OW73455   4.838   7.088   3.408
90541SOL    HW173456   4.847   7.181   3.431
90541SOL    HW273457   4.759   7.085   3.353
90542SOL     OW73458  14.003   1.008   8.948
90542SOL    HW173459  14.030   0.920   8.924
90542SOL    HW273460  13.928   1.027   8.891
90543SOL     OW73461   9.143   3.685   6.138
90543SOL    HW173462   9.111   3.633   6.064
90543SOL    HW273463   9.065   3.702   6.190
90544SOL     OW73464   5.007  14.099  12.380
90544SOL    HW173465   5.003  14.050  12.298
90544SOL    HW273466   4.929  14.073  12.428
90545SOL     OW73467  11.390  12.607   3.917
90545SOL    HW173468  11.428  12.695   3.924
90545SOL    HW273469  11.296  12.621   3.919
90546SOL     OW73470   2.085  14.211   8.043
90546SOL    HW173471   2.108  14.181   8.131
90546SOL    HW273472   1.991  14.196   8.036
90547SOL     OW73473   7.963   7.789   2.461
90547SOL    HW173474   7.913   7.853   2.512
90547SOL    HW273475   7.929   7.704   2.490
90548SOL     OW73476  10.187   8.013  14.186
90548SOL    HW173477  10.126   7.982  14.119
90548SOL    HW273478  10.132   8.056  14.251
90549SOL     OW73479   1.812   8.100  11.271
90549SOL    HW173480   1.894   8.091  11.319
90549SOL    HW273481   1.830   8.062  11.185
90550SOL     OW73482  14.629  11.330   8.980
90550SOL    HW173483  14.578  11.370   9.051
90550SOL    HW273484  14.696  11.278   9.024
90551SOL     OW73485  13.528  10.979   9.596
90551SOL    HW173486  13.461  11.046   9.610
90551SOL    HW273487  13.480  10.898   9.583
90552SOL     OW73488  12.957   3.387  12.814
90552SOL    HW173489  12.876   3.437  12.819
90552SOL    HW273490  13.025   3.449  12.842
90553SOL     OW73491  13.266   8.910   3.914
90553SOL    HW173492  13.230   8.987   3.869
90553SOL    HW273493  13.354   8.901   3.877
90554SOL     OW73494   5.487   8.237   0.741
90554SOL    HW173495   5.526   8.302   0.682
90554SOL    HW273496   5.561   8.183   0.770
90555SOL     OW73497   8.939   0.239  10.379
90555SOL    HW173498   8.959   0.314  10.435
90555SOL    HW273499   9.025   0.205  10.354
90556SOL     OW73500   1.292   6.248   0.002
90556SOL    HW173501   1.344   6.299   0.064
90556SOL    HW273502   1.255   6.313  14.821
90557SOL     OW73503   1.560   0.151   7.764
90557SOL    HW173504   1.643   0.169   7.807
90557SOL    HW273505   1.504   0.225   7.788
90558SOL     OW73506  14.301   4.807   9.420
90558SOL    HW173507  14.344   4.759   9.491
90558SOL    HW273508  14.237   4.745   9.384
90559SOL     OW73509   8.352   2.874   2.999
90559SOL    HW173510   8.434   2.832   2.971
90559SOL    HW273511   8.322   2.922   2.922
90560SOL     OW73512   0.150  13.868  10.794
90560SOL    HW173513   0.231  13.910  10.823
90560SOL    HW273514   0.173  13.829  10.709
90561SOL     OW73515  13.164   7.528   7.286
90561SOL    HW173516  13.219   7.452   7.304
90561SOL    HW273517  13.083   7.512   7.334
90562SOL     OW73518   8.937   8.585   0.149
90562SOL    HW173519   8.849   8.619   0.168
90562SOL    HW273520   8.924   8.521   0.079
90563SOL     OW73521  11.836   5.449  12.803
90563SOL    HW173522  11.813   5.529  12.755
90563SOL    HW273523  11.810   5.378  12.744
90564SOL     OW73524  11.005   4.353  11.558
90564SOL    HW173525  10.909   4.346  11.554
90564SOL    HW273526  11.035   4.263  11.573
90565SOL     OW73527   5.310  13.050   4.756
90565SOL    HW173528   5.340  12.961   4.732
90565SOL    HW273529   5.332  13.058   4.848
90566SOL     OW73530   2.768   9.018  10.791
90566SOL    HW173531   2.778   9.090  10.854
90566SOL    HW273532   2.830   8.951  10.820
90567SOL     OW73533   5.635  12.751   6.332
90567SOL    HW173534   5.719  12.712   6.354
90567SOL    HW273535   5.579  12.677   6.309
90568SOL     OW73536   9.252   6.485  12.668
90568SOL    HW173537   9.204   6.519  12.593
90568SOL    HW273538   9.192   6.423  12.709
90569SOL     OW73539   9.846   2.885   3.722
90569SOL    HW173540   9.862   2.975   3.749
90569SOL    HW273541   9.755   2.868   3.745
90570SOL     OW73542  12.983  10.129   7.591
90570SOL    HW173543  12.949  10.133   7.502
90570SOL    HW273544  13.068  10.172   7.586
90571SOL     OW73545   3.822  14.346   8.898
90571SOL    HW173546   3.813  14.278   8.831
90571SOL    HW273547   3.856  14.422   8.851
90572SOL     OW73548  14.738   8.165   6.356
90572SOL    HW173549  14.750   8.168   6.262
90572SOL    HW273550  14.648   8.194   6.370
90573SOL     OW73551  12.326   4.701   6.612
90573SOL    HW173552  12.304   4.794   6.602
90573SOL    HW273553  12.395   4.685   6.548
90574SOL     OW73554  13.295   6.830   4.798
90574SOL    HW173555  13.214   6.829   4.849
90574SOL    HW273556  13.270   6.868   4.714
90575SOL     OW73557   9.507   8.473  11.872
90575SOL    HW173558   9.426   8.517  11.895
90575SOL    HW273559   9.491   8.381  11.892
90576SOL     OW73560   3.413   2.107  11.138
90576SOL    HW173561   3.375   2.064  11.215
90576SOL    HW273562   3.487   2.157  11.173
90577SOL     OW73563  12.994   4.127  10.890
90577SOL    HW173564  12.986   4.039  10.928
90577SOL    HW273565  13.041   4.177  10.956
90578SOL     OW73566   6.992  12.733   3.218
90578SOL    HW173567   6.969  12.762   3.130
90578SOL    HW273568   6.922  12.672   3.242
90579SOL     OW73569  14.765   8.714  14.020
90579SOL    HW173570  14.673   8.688  14.019
90579SOL    HW273571  14.811   8.638  14.055
90580SOL     OW73572   8.242   9.402   6.361
90580SOL    HW173573   8.243   9.333   6.295
90580SOL    HW273574   8.211   9.359   6.441
90581SOL     OW73575  10.624  13.917   8.557
90581SOL    HW173576  10.557  13.934   8.623
90581SOL    HW273577  10.702  13.961   8.591
90582SOL     OW73578   8.338   2.649   0.148
90582SOL    HW173579   8.402   2.589   0.186
90582SOL    HW273580   8.290   2.596   0.084
90583SOL     OW73581  11.026   2.892   0.435
90583SOL    HW173582  10.968   2.816   0.439
90583SOL    HW273583  10.989   2.948   0.368
90584SOL     OW73584   3.004   6.388   8.845
90584SOL    HW173585   3.002   6.317   8.910
90584SOL    HW273586   2.926   6.374   8.791
90585SOL     OW73587   3.388  11.143   9.341
90585SOL    HW173588   3.420  11.232   9.353
90585SOL    HW273589   3.297  11.154   9.314
90586SOL     OW73590   3.349   6.377   2.608
90586SOL    HW173591   3.357   6.302   2.667
90586SOL    HW273592   3.288   6.436   2.652
90587SOL     OW73593  12.984   7.848   6.989
90587SOL    HW173594  13.040   7.775   6.965
90587SOL    HW273595  12.897   7.822   6.961
90588SOL     OW73596   6.761   5.737   1.115
90588SOL    HW173597   6.806   5.723   1.032
90588SOL    HW273598   6.808   5.809   1.157
90589SOL     OW73599   1.966  13.669  10.220
90589SOL    HW173600   1.982  13.734  10.289
90589SOL    HW273601   1.992  13.586  10.260
90590SOL     OW73602   9.008   7.641  10.785
90590SOL    HW173603   8.972   7.724  10.756
90590SOL    HW273604   8.985   7.635  10.878
90591SOL     OW73605   3.871   4.380   5.889
90591SOL    HW173606   3.818   4.353   5.815
90591SOL    HW273607   3.938   4.437   5.851
90592SOL     OW73608  11.365   6.151  10.478
90592SOL    HW173609  11.345   6.060  10.456
90592SOL    HW273610  11.282   6.197  10.466
90593SOL     OW73611   5.279  13.442   9.048
90593SOL    HW173612   5.334  13.511   9.086
90593SOL    HW273613   5.309  13.436   8.957
90594SOL     OW73614   3.491   0.079   4.440
90594SOL    HW173615   3.408   0.031   4.443
90594SOL    HW273616   3.512   0.097   4.531
90595SOL     OW73617   1.122   1.217   7.249
90595SOL    HW173618   1.129   1.268   7.330
90595SOL    HW273619   1.183   1.144   7.261
90596SOL     OW73620   2.334   3.874  11.546
90596SOL    HW173621   2.252   3.840  11.509
90596SOL    HW273622   2.377   3.917  11.473
90597SOL     OW73623  12.523   6.627   5.569
90597SOL    HW173624  12.604   6.640   5.618
90597SOL    HW273625  12.550   6.632   5.477
90598SOL     OW73626   0.498  12.974   7.092
90598SOL    HW173627   0.583  12.933   7.075
90598SOL    HW273628   0.443  12.903   7.125
90599SOL     OW73629   1.272   4.806  11.166
90599SOL    HW173630   1.355   4.836  11.128
90599SOL    HW273631   1.251   4.727  11.117
90600SOL     OW73632   6.915   7.288   4.718
90600SOL    HW173633   6.895   7.216   4.779
90600SOL    HW273634   6.989   7.333   4.758
90601SOL     OW73635  14.501  14.512   2.006
90601SOL    HW173636  14.434  14.579   1.998
90601SOL    HW273637  14.453  14.429   1.993
90602SOL     OW73638   6.933  13.282   1.721
90602SOL    HW173639   6.943  13.371   1.756
90602SOL    HW273640   6.838  13.265   1.727
90603SOL     OW73641  13.423   4.414   1.394
90603SOL    HW173642  13.382   4.500   1.402
90603SOL    HW273643  13.379   4.360   1.459
90604SOL     OW73644   7.781  13.738  10.176
90604SOL    HW173645   7.798  13.734  10.082
90604SOL    HW273646   7.868  13.747  10.215
90605SOL     OW73647  11.211   1.437   3.244
90605SOL    HW173648  11.178   1.400   3.162
90605SOL    HW273649  11.275   1.372   3.275
90606SOL     OW73650  14.717   6.195   4.922
90606SOL    HW173651  14.804   6.163   4.944
90606SOL    HW273652  14.662   6.117   4.923
90607SOL     OW73653   4.871   7.496  10.792
90607SOL    HW173654   4.939   7.457  10.847
90607SOL    HW273655   4.879   7.449  10.709
90608SOL     OW73656   7.626   7.038   2.982
90608SOL    HW173657   7.635   6.970   2.915
90608SOL    HW273658   7.611   7.118   2.933
90609SOL     OW73659   3.013   5.926   2.878
90609SOL    HW173660   2.964   5.845   2.893
90609SOL    HW273661   2.964   5.993   2.925
90610SOL     OW73662  12.807  10.006  13.999
90610SOL    HW173663  12.722   9.962  13.999
90610SOL    HW273664  12.788  10.096  14.023
90611SOL     OW73665  11.638  14.372   0.188
90611SOL    HW173666  11.636  14.279   0.164
90611SOL    HW273667  11.546  14.395   0.201
90612SOL     OW73668  13.206   5.807  10.991
90612SOL    HW173669  13.262   5.863  10.938
90612SOL    HW273670  13.180   5.861  11.066
90613SOL     OW73671  12.028   8.519   5.570
90613SOL    HW173672  11.978   8.597   5.594
90613SOL    HW273673  12.013   8.457   5.641
90614SOL     OW73674   4.652  14.364   2.858
90614SOL    HW173675   4.651  14.437   2.797
90614SOL    HW273676   4.745  14.344   2.870
90615SOL     OW73677   9.374  13.729   9.704
90615SOL    HW173678   9.348  13.664   9.769
90615SOL    HW273679   9.463  13.704   9.678
90616SOL     OW73680  12.908   4.047   4.016
90616SOL    HW173681  12.911   3.977   3.950
90616SOL    HW273682  12.946   4.007   4.095
90617SOL     OW73683   3.514   5.697   4.374
90617SOL    HW173684   3.568   5.704   4.452
90617SOL    HW273685   3.552   5.761   4.314
90618SOL     OW73686  10.195   1.720   3.192
90618SOL    HW173687  10.239   1.761   3.266
90618SOL    HW273688  10.267   1.692   3.135
90619SOL     OW73689   0.652   9.952   6.035
90619SOL    HW173690   0.661   9.857   6.047
90619SOL    HW273691   0.725   9.989   6.084
90620SOL     OW73692   0.874  12.730  11.942
90620SOL    HW173693   0.909  12.658  11.994
90620SOL    HW273694   0.952  12.779  11.915
90621SOL     OW73695   6.400   8.148   3.565
90621SOL    HW173696   6.322   8.093   3.554
90621SOL    HW273697   6.412   8.154   3.659
90622SOL     OW73698   7.141   3.533   2.036
90622SOL    HW173699   7.165   3.537   1.943
90622SOL    HW273700   7.222   3.508   2.080
90623SOL     OW73701   1.906   2.543   2.088
90623SOL    HW173702   1.843   2.552   2.016
90623SOL    HW273703   1.854   2.557   2.167
90624SOL     OW73704   8.868   4.964   8.383
90624SOL    HW173705   8.805   4.954   8.312
90624SOL    HW273706   8.837   5.040   8.432
90625SOL     OW73707   3.570   4.069  11.595
90625SOL    HW173708   3.502   4.135  11.579
90625SOL    HW273709   3.603   4.090  11.682
90626SOL     OW73710  10.404  14.738   6.624
90626SOL    HW173711  10.394  14.652   6.665
90626SOL    HW273712  10.430  14.719   6.534
90627SOL     OW73713   6.309   8.223   1.897
90627SOL    HW173714   6.311   8.127   1.892
90627SOL    HW273715   6.215   8.244   1.896
90628SOL     OW73716   6.767   8.066   8.836
90628SOL    HW173717   6.751   8.136   8.772
90628SOL    HW273718   6.690   8.068   8.893
90629SOL     OW73719   9.859   5.239   6.642
90629SOL    HW173720   9.916   5.222   6.567
90629SOL    HW273721   9.893   5.182   6.711
90630SOL     OW73722   1.081  12.362   2.856
90630SOL    HW173723   1.094  12.281   2.906
90630SOL    HW273724   1.036  12.421   2.916
90631SOL     OW73725  14.776  13.699   3.665
90631SOL    HW173726  14.744  13.608   3.664
90631SOL    HW273727  14.697  13.752   3.658
90632SOL     OW73728  10.018   6.412   7.633
90632SOL    HW173729   9.938   6.462   7.651
90632SOL    HW273730  10.038   6.432   7.542
90633SOL     OW73731   5.604   9.045   4.307
90633SOL    HW173732   5.526   9.077   4.260
90633SOL    HW273733   5.656   9.123   4.324
90634SOL     OW73734   5.864  12.220  10.172
90634SOL    HW173735   5.877  12.313  10.191
90634SOL    HW273736   5.802  12.218  10.100
90635SOL     OW73737   2.382   1.478   7.496
90635SOL    HW173738   2.413   1.397   7.457
90635SOL    HW273739   2.337   1.524   7.425
90636SOL     OW73740   8.871  12.502  12.870
90636SOL    HW173741   8.893  12.434  12.807
90636SOL    HW273742   8.945  12.504  12.930
90637SOL     OW73743   9.820   0.322   6.963
90637SOL    HW173744   9.815   0.240   6.913
90637SOL    HW273745   9.763   0.307   7.038
90638SOL     OW73746   4.972  11.845   7.440
90638SOL    HW173747   4.880  11.847   7.412
90638SOL    HW273748   5.021  11.861   7.360
90639SOL     OW73749  11.200   6.017   0.126
90639SOL    HW173750  11.253   6.092   0.151
90639SOL    HW273751  11.245   5.980   0.051
90640SOL     OW73752  10.037   1.977   6.731
90640SOL    HW173753  10.094   1.917   6.683
90640SOL    HW273754   9.953   1.972   6.686
90641SOL     OW73755  13.948  11.745  11.689
90641SOL    HW173756  13.902  11.824  11.717
90641SOL    HW273757  14.039  11.759  11.716
90642SOL     OW73758   5.053   3.375   1.445
90642SOL    HW173759   5.139   3.335   1.427
90642SOL    HW273760   5.051   3.453   1.390
90643SOL     OW73761   7.790  14.341   1.660
90643SOL    HW173762   7.697  14.323   1.669
90643SOL    HW273763   7.815  14.382   1.743
90644SOL     OW73764   0.870  12.910   3.917
90644SOL    HW173765   0.779  12.923   3.943
90644SOL    HW273766   0.910  12.997   3.926
90645SOL     OW73767   4.810   4.895  13.199
90645SOL    HW173768   4.765   4.979  13.207
90645SOL    HW273769   4.808   4.875  13.106
90646SOL     OW73770   7.006   3.900   3.793
90646SOL    HW173771   6.935   3.912   3.857
90646SOL    HW273772   6.962   3.865   3.716
90647SOL     OW73773   5.072   6.116   4.941
90647SOL    HW173774   5.109   6.175   5.007
90647SOL    HW273775   4.982   6.102   4.971
90648SOL     OW73776   2.668   7.426   2.729
90648SOL    HW173777   2.739   7.463   2.676
90648SOL    HW273778   2.674   7.332   2.714
90649SOL     OW73779   8.582   3.718  14.736
90649SOL    HW173780   8.526   3.658  14.686
90649SOL    HW273781   8.589   3.678  14.822
90650SOL     OW73782  10.337   5.611   2.503
90650SOL    HW173783  10.338   5.686   2.443
90650SOL    HW273784  10.246   5.603   2.529
90651SOL     OW73785  14.362  12.145   8.568
90651SOL    HW173786  14.442  12.107   8.606
90651SOL    HW273787  14.307  12.167   8.643
90652SOL     OW73788  12.798   1.322   1.445
90652SOL    HW173789  12.830   1.236   1.418
90652SOL    HW273790  12.707   1.324   1.416
90653SOL     OW73791  12.581   3.024   0.979
90653SOL    HW173792  12.502   3.050   1.027
90653SOL    HW273793  12.632   2.973   1.042
90654SOL     OW73794  14.163   0.015   5.552
90654SOL    HW173795  14.073   0.008   5.519
90654SOL    HW273796  14.213   0.051   5.479
90655SOL     OW73797   7.805   0.758   4.366
90655SOL    HW173798   7.895   0.730   4.348
90655SOL    HW273799   7.752   0.680   4.349
90656SOL     OW73800   2.327  14.093   9.866
90656SOL    HW173801   2.308  14.149   9.941
90656SOL    HW273802   2.410  14.051   9.888
90657SOL     OW73803   5.489   6.685   4.415
90657SOL    HW173804   5.449   6.757   4.364
90657SOL    HW273805   5.556   6.649   4.358
90658SOL     OW73806  10.584   1.874   9.673
90658SOL    HW173807  10.670   1.833   9.679
90658SOL    HW273808  10.585   1.922   9.590
90659SOL     OW73809   2.749  10.878  12.881
90659SOL    HW173810   2.697  10.917  12.811
90659SOL    HW273811   2.813  10.946  12.903
90660SOL     OW73812   0.167  10.283   0.384
90660SOL    HW173813   0.203  10.237   0.460
90660SOL    HW273814   0.076  10.302   0.408
90661SOL     OW73815   1.833   8.076  10.737
90661SOL    HW173816   1.750   8.121  10.753
90661SOL    HW273817   1.883   8.137  10.683
90662SOL     OW73818   3.138   9.529   5.637
90662SOL    HW173819   3.177   9.606   5.596
90662SOL    HW273820   3.118   9.556   5.726
90663SOL     OW73821   0.168   4.146   2.144
90663SOL    HW173822   0.077   4.118   2.139
90663SOL    HW273823   0.214   4.074   2.188
90664SOL     OW73824   4.001   6.871   2.354
90664SOL    HW173825   3.972   6.782   2.371
90664SOL    HW273826   4.052   6.895   2.432
90665SOL     OW73827   9.199   9.712  13.214
90665SOL    HW173828   9.207   9.692  13.120
90665SOL    HW273829   9.169   9.630  13.253
90666SOL     OW73830   7.262   2.935  10.249
90666SOL    HW173831   7.175   2.950  10.212
90666SOL    HW273832   7.280   2.843  10.233
90667SOL     OW73833  14.398   8.557   2.897
90667SOL    HW173834  14.307   8.585   2.889
90667SOL    HW273835  14.442   8.595   2.821
90668SOL     OW73836   0.037   3.708   1.223
90668SOL    HW173837  14.879   3.794   1.203
90668SOL    HW273838  14.840   3.651   1.234
90669SOL     OW73839   6.409   4.898   7.692
90669SOL    HW173840   6.365   4.864   7.615
90669SOL    HW273841   6.401   4.829   7.757
90670SOL     OW73842   2.143  14.692   6.894
90670SOL    HW173843   2.070  14.651   6.940
90670SOL    HW273844   2.103  14.737   6.819
90671SOL     OW73845  13.627  10.796   2.264
90671SOL    HW173846  13.617  10.828   2.354
90671SOL    HW273847  13.647  10.874   2.213
90672SOL     OW73848   3.940  13.961   0.282
90672SOL    HW173849   3.847  13.980   0.282
90672SOL    HW273850   3.982  14.047   0.269
90673SOL     OW73851   3.887  11.354   1.873
90673SOL    HW173852   3.980  11.339   1.855
90673SOL    HW273853   3.847  11.268   1.859
90674SOL     OW73854   7.078   9.308   0.327
90674SOL    HW173855   7.171   9.318   0.349
90674SOL    HW273856   7.036   9.383   0.368
90675SOL     OW73857   7.409   3.783  10.090
90675SOL    HW173858   7.413   3.774   9.995
90675SOL    HW273859   7.451   3.704  10.124
90676SOL     OW73860   6.189   0.715   4.480
90676SOL    HW173861   6.242   0.788   4.446
90676SOL    HW273862   6.212   0.710   4.573
90677SOL     OW73863  12.332   3.776  12.190
90677SOL    HW173864  12.427   3.781  12.195
90677SOL    HW273865  12.300   3.851  12.239
90678SOL     OW73866   3.492   9.090   6.260
90678SOL    HW173867   3.397   9.082   6.264
90678SOL    HW273868   3.521   9.012   6.213
90679SOL     OW73869  12.476   1.095  13.633
90679SOL    HW173870  12.389   1.133  13.637
90679SOL    HW273871  12.462   1.006  13.599
90680SOL     OW73872   8.023   7.435   0.859
90680SOL    HW173873   7.967   7.426   0.936
90680SOL    HW273874   7.975   7.492   0.800
90681SOL     OW73875   9.851   1.450  14.799
90681SOL    HW173876   9.928   1.457  14.856
90681SOL    HW273877   9.808   1.535  14.807
90682SOL     OW73878   9.361  11.739  10.050
90682SOL    HW173879   9.325  11.779   9.972
90682SOL    HW273880   9.456  11.739  10.035
90683SOL     OW73881   8.141   0.087  10.119
90683SOL    HW173882   8.161   0.071  10.212
90683SOL    HW273883   8.209   0.147  10.090
90684SOL     OW73884   9.455   7.547   0.396
90684SOL    HW173885   9.424   7.457   0.391
90684SOL    HW273886   9.551   7.540   0.396
90685SOL     OW73887   1.200   6.955  12.370
90685SOL    HW173888   1.191   6.885  12.435
90685SOL    HW273889   1.275   7.006  12.401
90686SOL     OW73890   5.346   3.294   7.414
90686SOL    HW173891   5.423   3.308   7.469
90686SOL    HW273892   5.315   3.206   7.439
90687SOL     OW73893   0.646   5.332  14.441
90687SOL    HW173894   0.727   5.380  14.424
90687SOL    HW273895   0.618   5.302  14.354
90688SOL     OW73896   6.690   3.659   4.779
90688SOL    HW173897   6.784   3.678   4.768
90688SOL    HW273898   6.688   3.582   4.835
90689SOL     OW73899   0.981  13.259  11.308
90689SOL    HW173900   0.892  13.238  11.280
90689SOL    HW273901   0.978  13.351  11.332
90690SOL     OW73902   0.869   2.245  11.598
90690SOL    HW173903   0.923   2.239  11.519
90690SOL    HW273904   0.930   2.227  11.670
90691SOL     OW73905  12.757   1.055   9.944
90691SOL    HW173906  12.673   1.019   9.916
90691SOL    HW273907  12.823   1.001   9.900
90692SOL     OW73908   4.938   1.276   6.666
90692SOL    HW173909   4.975   1.323   6.741
90692SOL    HW273910   4.915   1.190   6.701
90693SOL     OW73911   2.284   7.492   5.586
90693SOL    HW173912   2.375   7.474   5.564
90693SOL    HW273913   2.245   7.405   5.600
90694SOL     OW73914   0.064   9.189  12.738
90694SOL    HW173915   0.072   9.103  12.697
90694SOL    HW273916   0.059   9.251  12.665
90695SOL     OW73917  11.905   2.967   8.740
90695SOL    HW173918  11.869   2.878   8.738
90695SOL    HW273919  11.946   2.978   8.655
90696SOL     OW73920   9.780   6.847   0.711
90696SOL    HW173921   9.834   6.792   0.768
90696SOL    HW273922   9.698   6.857   0.758
90697SOL     OW73923   3.011   3.407   8.407
90697SOL    HW173924   3.090   3.416   8.352
90697SOL    HW273925   2.980   3.318   8.390
90698SOL     OW73926  12.939   1.312   3.332
90698SOL    HW173927  12.949   1.222   3.299
90698SOL    HW273928  13.014   1.359   3.297
90699SOL     OW73929  12.008   3.887   6.067
90699SOL    HW173930  11.982   3.835   6.144
90699SOL    HW273931  12.020   3.976   6.101
90700SOL     OW73932  10.255  13.624  13.585
90700SOL    HW173933  10.343  13.660  13.580
90700SOL    HW273934  10.208  13.665  13.512
90701SOL     OW73935  10.634  12.112  11.935
90701SOL    HW173936  10.724  12.132  11.960
90701SOL    HW273937  10.608  12.041  11.993
90702SOL     OW73938   3.304   3.170   9.131
90702SOL    HW173939   3.339   3.224   9.060
90702SOL    HW273940   3.212   3.158   9.109
90703SOL     OW73941   8.914   6.284   4.723
90703SOL    HW173942   8.934   6.314   4.634
90703SOL    HW273943   8.999   6.273   4.765
90704SOL     OW73944  12.157   2.164   1.498
90704SOL    HW173945  12.207   2.085   1.480
90704SOL    HW273946  12.219   2.222   1.543
90705SOL     OW73947   8.258   8.845   0.549
90705SOL    HW173948   8.353   8.834   0.558
90705SOL    HW273949   8.222   8.815   0.632
90706SOL     OW73950   4.576   4.622   2.360
90706SOL    HW173951   4.554   4.673   2.438
90706SOL    HW273952   4.498   4.568   2.343
90707SOL     OW73953   4.817  12.846   6.607
90707SOL    HW173954   4.727  12.826   6.632
90707SOL    HW273955   4.833  12.793   6.529
90708SOL     OW73956   8.626   6.262   9.644
90708SOL    HW173957   8.676   6.184   9.618
90708SOL    HW273958   8.691   6.333   9.643
90709SOL     OW73959   7.370   1.843  13.264
90709SOL    HW173960   7.436   1.781  13.296
90709SOL    HW273961   7.299   1.788  13.231
90710SOL     OW73962   6.805   5.435   8.344
90710SOL    HW173963   6.840   5.517   8.308
90710SOL    HW273964   6.763   5.461   8.426
90711SOL     OW73965   4.445  10.983   0.705
90711SOL    HW173966   4.513  11.049   0.694
90711SOL    HW273967   4.447  10.932   0.624
90712SOL     OW73968   5.670   6.827  11.748
90712SOL    HW173969   5.717   6.773  11.812
90712SOL    HW273970   5.580   6.794  11.750
90713SOL     OW73971   4.973   4.444   1.159
90713SOL    HW173972   5.014   4.501   1.093
90713SOL    HW273973   4.942   4.504   1.227
90714SOL     OW73974  12.666   8.617   2.071
90714SOL    HW173975  12.719   8.565   2.010
90714SOL    HW273976  12.595   8.559   2.096
90715SOL     OW73977   1.055   1.443   2.791
90715SOL    HW173978   1.060   1.368   2.731
90715SOL    HW273979   1.103   1.513   2.746
90716SOL     OW73980   6.503  13.085   6.295
90716SOL    HW173981   6.487  13.091   6.200
90716SOL    HW273982   6.434  13.026   6.326
90717SOL     OW73983   9.734  13.610   6.769
90717SOL    HW173984   9.799  13.597   6.837
90717SOL    HW273985   9.781  13.656   6.699
90718SOL     OW73986  13.137   4.473  13.785
90718SOL    HW173987  13.165   4.392  13.740
90718SOL    HW273988  13.072   4.444  13.848
90719SOL     OW73989   4.519   7.489   0.770
90719SOL    HW173990   4.576   7.413   0.755
90719SOL    HW273991   4.430   7.453   0.768
90720SOL     OW73992   3.051  11.238   0.253
90720SOL    HW173993   3.020  11.159   0.298
90720SOL    HW273994   3.112  11.278   0.315
90721SOL     OW73995   9.811   2.669   9.083
90721SOL    HW173996   9.829   2.575   9.083
90721SOL    HW273997   9.763   2.684   9.165
90722SOL     OW73998   4.200   8.071  10.638
90722SOL    HW173999   4.255   8.002  10.673
90722SOL    HW274000   4.177   8.124  10.714
90723SOL     OW74001  11.514  10.352   4.152
90723SOL    HW174002  11.485  10.404   4.226
90723SOL    HW274003  11.582  10.404   4.111
90724SOL     OW74004  12.186   3.847  13.188
90724SOL    HW174005  12.137   3.896  13.253
90724SOL    HW274006  12.258   3.905  13.162
90725SOL     OW74007   4.419   7.100  14.750
90725SOL    HW174008   4.410   7.045  14.672
90725SOL    HW274009   4.509   7.132  14.746
90726SOL     OW74010   7.715   3.568   3.487
90726SOL    HW174011   7.764   3.648   3.502
90726SOL    HW274012   7.719   3.554   3.392
90727SOL     OW74013   2.123   9.735   5.205
90727SOL    HW174014   2.178   9.805   5.238
90727SOL    HW274015   2.166   9.654   5.234
90728SOL     OW74016   7.595   8.494  11.239
90728SOL    HW174017   7.574   8.439  11.163
90728SOL    HW274018   7.662   8.554  11.208
90729SOL     OW74019  13.142  13.428   3.119
90729SOL    HW174020  13.187  13.508   3.145
90729SOL    HW274021  13.167  13.364   3.185
90730SOL     OW74022   1.833   2.363   2.519
90730SOL    HW174023   1.822   2.274   2.486
90730SOL    HW274024   1.801   2.419   2.448
90731SOL     OW74025  12.637  10.328   6.200
90731SOL    HW174026  12.658  10.237   6.177
90731SOL    HW274027  12.544  10.327   6.221
90732SOL     OW74028  12.300   7.587   8.072
90732SOL    HW174029  12.319   7.674   8.107
90732SOL    HW274030  12.206   7.577   8.082
90733SOL     OW74031  10.899   3.990  13.997
90733SOL    HW174032  10.860   3.905  14.014
90733SOL    HW274033  10.861   4.018  13.914
90734SOL     OW74034   5.947   6.100   9.919
90734SOL    HW174035   6.040   6.090   9.902
90734SOL    HW274036   5.942   6.145  10.004
90735SOL     OW74037   0.640   2.238   9.178
90735SOL    HW174038   0.691   2.157   9.175
90735SOL    HW274039   0.630   2.264   9.087
90736SOL     OW74040  10.570   4.126  13.406
90736SOL    HW174041  10.584   4.174  13.488
90736SOL    HW274042  10.604   4.039  13.424
90737SOL     OW74043   5.348   4.909   0.290
90737SOL    HW174044   5.278   4.969   0.314
90737SOL    HW274045   5.427   4.962   0.291
90738SOL     OW74046   0.339   9.022   0.087
90738SOL    HW174047   0.365   9.114   0.098
90738SOL    HW274048   0.278   9.006   0.159
90739SOL     OW74049   7.546  12.851   1.768
90739SOL    HW174050   7.503  12.866   1.684
90739SOL    HW274051   7.603  12.927   1.780
90740SOL     OW74052   7.561  13.413   7.843
90740SOL    HW174053   7.553  13.320   7.862
90740SOL    HW274054   7.491  13.454   7.894
90741SOL     OW74055   3.173  12.793   4.122
90741SOL    HW174056   3.145  12.734   4.192
90741SOL    HW274057   3.248  12.839   4.159
90742SOL     OW74058  13.404   5.268   2.379
90742SOL    HW174059  13.404   5.195   2.442
90742SOL    HW274060  13.481   5.320   2.403
90743SOL     OW74061  13.007  11.781   7.763
90743SOL    HW174062  13.051  11.793   7.679
90743SOL    HW274063  12.914  11.786   7.742
90744SOL     OW74064   1.124   5.062   1.209
90744SOL    HW174065   1.210   5.019   1.207
90744SOL    HW274066   1.145   5.156   1.216
90745SOL     OW74067  12.783   8.644   2.341
90745SOL    HW174068  12.699   8.678   2.371
90745SOL    HW274069  12.768   8.622   2.249
90746SOL     OW74070   6.623   8.825   6.698
90746SOL    HW174071   6.686   8.876   6.747
90746SOL    HW274072   6.617   8.742   6.745
90747SOL     OW74073  12.796   2.838   6.806
90747SOL    HW174074  12.876   2.834   6.753
90747SOL    HW274075  12.726   2.845   6.741
90748SOL     OW74076  12.498   0.826  13.529
90748SOL    HW174077  12.506   0.730  13.527
90748SOL    HW274078  12.404   0.841  13.520
90749SOL     OW74079   7.399   5.384  11.275
90749SOL    HW174080   7.453   5.310  11.247
90749SOL    HW274081   7.412   5.388  11.370
90750SOL     OW74082   6.805  11.058   0.638
90750SOL    HW174083   6.900  11.067   0.642
90750SOL    HW274084   6.772  11.132   0.689
90751SOL     OW74085   4.981   5.007   3.802
90751SOL    HW174086   4.953   4.947   3.734
90751SOL    HW274087   4.921   4.991   3.875
90752SOL     OW74088  11.395   1.790  12.453
90752SOL    HW174089  11.472   1.805  12.397
90752SOL    HW274090  11.330   1.851  12.420
90753SOL     OW74091  14.454  11.488  11.140
90753SOL    HW174092  14.519  11.459  11.204
90753SOL    HW274093  14.378  11.512  11.192
90754SOL     OW74094  10.660   8.576   7.741
90754SOL    HW174095  10.589   8.636   7.765
90754SOL    HW274096  10.639   8.549   7.651
90755SOL     OW74097   9.199   8.305  14.006
90755SOL    HW174098   9.163   8.298  13.918
90755SOL    HW274099   9.135   8.263  14.062
90756SOL     OW74100   9.174  13.270   9.201
90756SOL    HW174101   9.127  13.251   9.283
90756SOL    HW274102   9.147  13.201   9.141
90757SOL     OW74103  13.163  11.110  13.194
90757SOL    HW174104  13.245  11.148  13.224
90757SOL    HW274105  13.123  11.074  13.273
90758SOL     OW74106   9.179   4.090   8.061
90758SOL    HW174107   9.100   4.117   8.109
90758SOL    HW274108   9.201   4.166   8.007
90759SOL     OW74109   1.178   5.985   9.756
90759SOL    HW174110   1.273   5.996   9.763
90759SOL    HW274111   1.167   5.908   9.700
90760SOL     OW74112   1.268  12.891  14.221
90760SOL    HW174113   1.257  12.981  14.254
90760SOL    HW274114   1.295  12.841  14.298
90761SOL     OW74115  13.144   7.309   2.621
90761SOL    HW174116  13.146   7.276   2.531
90761SOL    HW274117  13.217   7.370   2.626
90762SOL     OW74118   6.316   8.979   1.239
90762SOL    HW174119   6.411   8.965   1.245
90762SOL    HW274120   6.281   8.898   1.202
90763SOL     OW74121  12.475   4.581   7.204
90763SOL    HW174122  12.528   4.562   7.127
90763SOL    HW274123  12.484   4.503   7.259
90764SOL     OW74124  14.813   8.784   4.343
90764SOL    HW174125  14.836   8.859   4.397
90764SOL    HW274126   0.008   8.724   4.353
90765SOL     OW74127   5.978  14.669   1.127
90765SOL    HW174128   6.046  14.607   1.152
90765SOL    HW274129   5.934  14.627   1.052
90766SOL     OW74130   9.853   6.580  13.778
90766SOL    HW174131   9.780   6.523  13.755
90766SOL    HW274132   9.814   6.650  13.830
90767SOL     OW74133  11.761   5.073   8.151
90767SOL    HW174134  11.709   5.023   8.215
90767SOL    HW274135  11.827   5.010   8.120
90768SOL     OW74136   0.960   2.230   8.102
90768SOL    HW174137   1.019   2.171   8.150
90768SOL    HW274138   0.975   2.316   8.140
90769SOL     OW74139   6.906   1.632  13.217
90769SOL    HW174140   6.944   1.701  13.163
90769SOL    HW274141   6.835   1.596  13.164
90770SOL     OW74142   1.896   5.320   0.365
90770SOL    HW174143   1.943   5.323   0.449
90770SOL    HW274144   1.952   5.267   0.309
90771SOL     OW74145   3.906   2.598  13.930
90771SOL    HW174146   3.832   2.632  13.880
90771SOL    HW274147   3.972   2.667  13.925
90772SOL     OW74148   8.856   6.618   3.376
90772SOL    HW174149   8.761   6.611   3.384
90772SOL    HW274150   8.890   6.550   3.433
90773SOL     OW74151  11.925  10.764   9.320
90773SOL    HW174152  11.925  10.807   9.406
90773SOL    HW274153  12.001  10.802   9.275
90774SOL     OW74154   0.448   8.808   2.803
90774SOL    HW174155   0.528   8.815   2.854
90774SOL    HW274156   0.474   8.759   2.724
90775SOL     OW74157  13.806  11.344  10.949
90775SOL    HW174158  13.794  11.333  10.855
90775SOL    HW274159  13.817  11.254  10.982
90776SOL     OW74160   9.270  12.803   9.081
90776SOL    HW174161   9.284  12.776   8.990
90776SOL    HW274162   9.301  12.729   9.133
90777SOL     OW74163  14.672   3.159   2.532
90777SOL    HW174164  14.716   3.243   2.514
90777SOL    HW274165  14.743   3.101   2.559
90778SOL     OW74166   2.475   6.567   1.403
90778SOL    HW174167   2.565   6.548   1.430
90778SOL    HW274168   2.481   6.652   1.359
90779SOL     OW74169   9.812  13.826  11.756
90779SOL    HW174170   9.789  13.771  11.831
90779SOL    HW274171   9.736  13.820  11.697
90780SOL     OW74172  11.316  13.450   8.795
90780SOL    HW174173  11.374  13.446   8.719
90780SOL    HW274174  11.374  13.436   8.870
90781SOL     OW74175   6.017   9.132   3.605
90781SOL    HW174176   5.940   9.187   3.590
90781SOL    HW274177   6.066   9.136   3.523
90782SOL     OW74178   9.478  12.366   6.704
90782SOL    HW174179   9.409  12.313   6.744
90782SOL    HW274180   9.496  12.324   6.621
90783SOL     OW74181  13.385   8.408   4.511
90783SOL    HW174182  13.350   8.492   4.542
90783SOL    HW274183  13.314   8.372   4.457
90784SOL     OW74184   2.569  14.098  12.398
90784SOL    HW174185   2.556  14.010  12.363
90784SOL    HW274186   2.607  14.084  12.485
90785SOL     OW74187   8.999   3.776   0.623
90785SOL    HW174188   8.976   3.756   0.532
90785SOL    HW274189   8.970   3.866   0.637
90786SOL     OW74190  10.755   3.681  11.804
90786SOL    HW174191  10.754   3.644  11.716
90786SOL    HW274192  10.810   3.759  11.797
90787SOL     OW74193   9.734   7.820  11.353
90787SOL    HW174194   9.650   7.842  11.313
90787SOL    HW274195   9.759   7.898  11.403
90788SOL     OW74196   3.249   8.075  12.467
90788SOL    HW174197   3.308   8.033  12.530
90788SOL    HW274198   3.165   8.029  12.479
90789SOL     OW74199   1.717  13.860   4.713
90789SOL    HW174200   1.760  13.808   4.781
90789SOL    HW274201   1.788  13.883   4.653
90790SOL     OW74202   1.950  10.898   2.933
90790SOL    HW174203   1.997  10.869   3.011
90790SOL    HW274204   1.905  10.820   2.901
90791SOL     OW74205  11.239  13.334   3.672
90791SOL    HW174206  11.166  13.396   3.673
90791SOL    HW274207  11.306  13.377   3.619
90792SOL     OW74208   4.780   0.310  14.332
90792SOL    HW174209   4.795   0.250  14.405
90792SOL    HW274210   4.688   0.336  14.342
90793SOL     OW74211  13.759  12.586   8.438
90793SOL    HW174212  13.710  12.523   8.385
90793SOL    HW274213  13.748  12.670   8.394
90794SOL     OW74214  10.033   7.810   1.491
90794SOL    HW174215  10.096   7.819   1.420
90794SOL    HW274216  10.082   7.833   1.570
90795SOL     OW74217  12.457   1.488   9.969
90795SOL    HW174218  12.448   1.459  10.060
90795SOL    HW274219  12.470   1.407   9.919
90796SOL     OW74220   6.853   1.151   8.163
90796SOL    HW174221   6.885   1.062   8.149
90796SOL    HW274222   6.927   1.198   8.201
90797SOL     OW74223   3.466   6.708   1.355
90797SOL    HW174224   3.460   6.614   1.342
90797SOL    HW274225   3.536   6.719   1.420
90798SOL     OW74226  10.250  10.013   6.230
90798SOL    HW174227  10.275  10.034   6.140
90798SOL    HW274228  10.308   9.941   6.255
90799SOL     OW74229   5.652   5.862   2.138
90799SOL    HW174230   5.599   5.938   2.162
90799SOL    HW274231   5.652   5.862   2.042
90800SOL     OW74232  10.670  14.832  12.738
90800SOL    HW174233  10.677  14.822  12.643
90800SOL    HW274234  10.576  14.845  12.754
90801SOL     OW74235  14.349   8.768   2.680
90801SOL    HW174236  14.427   8.761   2.625
90801SOL    HW274237  14.281   8.724   2.630
90802SOL     OW74238  10.183   6.036   5.623
90802SOL    HW174239  10.174   6.072   5.535
90802SOL    HW274240  10.273   6.058   5.648
90803SOL     OW74241   0.815   9.391   6.095
90803SOL    HW174242   0.837   9.399   6.002
90803SOL    HW274243   0.758   9.314   6.099
90804SOL     OW74244  11.637   0.521   7.022
90804SOL    HW174245  11.548   0.511   6.988
90804SOL    HW274246  11.691   0.470   6.963
90805SOL     OW74247   4.358  12.951  13.560
90805SOL    HW174248   4.446  12.960  13.598
90805SOL    HW274249   4.303  13.007  13.613
90806SOL     OW74250  14.234   4.647   3.338
90806SOL    HW174251  14.250   4.555   3.358
90806SOL    HW274252  14.149   4.648   3.294
90807SOL     OW74253   4.521  12.615   2.593
90807SOL    HW174254   4.543  12.559   2.667
90807SOL    HW274255   4.558  12.570   2.517
90808SOL     OW74256   1.461  11.179  11.417
90808SOL    HW174257   1.552  11.151  11.411
90808SOL    HW274258   1.414  11.121  11.357
90809SOL     OW74259  11.427   3.142  12.274
90809SOL    HW174260  11.476   3.165  12.196
90809SOL    HW274261  11.383   3.061  12.252
90810SOL     OW74262   6.943   7.114  13.644
90810SOL    HW174263   7.007   7.183  13.660
90810SOL    HW274264   6.894   7.107  13.726
90811SOL     OW74265   1.552   9.711  12.625
90811SOL    HW174266   1.608   9.777  12.583
90811SOL    HW274267   1.611   9.664  12.684
90812SOL     OW74268   0.571  11.137  12.610
90812SOL    HW174269   0.512  11.089  12.552
90812SOL    HW274270   0.537  11.226  12.610
90813SOL     OW74271  10.568   5.125   9.715
90813SOL    HW174272  10.527   5.040   9.728
90813SOL    HW274273  10.496   5.185   9.698
90814SOL     OW74274  12.233   9.238  13.009
90814SOL    HW174275  12.221   9.306  12.943
90814SOL    HW274276  12.149   9.190  13.009
90815SOL     OW74277  11.259   3.974   9.295
90815SOL    HW174278  11.281   4.018   9.377
90815SOL    HW274279  11.319   3.900   9.291
90816SOL     OW74280   2.859   4.550  14.551
90816SOL    HW174281   2.809   4.566  14.632
90816SOL    HW274282   2.939   4.600  14.562
90817SOL     OW74283   4.594   3.434   0.871
90817SOL    HW174284   4.511   3.418   0.915
90817SOL    HW274285   4.575   3.506   0.810
90818SOL     OW74286  12.504   5.160   5.316
90818SOL    HW174287  12.461   5.207   5.388
90818SOL    HW274288  12.433   5.140   5.255
90819SOL     OW74289   3.049   8.623   5.255
90819SOL    HW174290   3.037   8.712   5.221
90819SOL    HW274291   2.975   8.610   5.313
90820SOL     OW74292  11.751   6.704   9.962
90820SOL    HW174293  11.829   6.684   9.910
90820SOL    HW274294  11.685   6.642   9.931
90821SOL     OW74295   9.923   0.134   3.850
90821SOL    HW174296   9.978   0.127   3.928
90821SOL    HW274297   9.854   0.069   3.863
90822SOL     OW74298   7.504   0.221   2.707
90822SOL    HW174299   7.575   0.159   2.693
90822SOL    HW274300   7.424   0.170   2.692
90823SOL     OW74301  10.598   8.140  12.650
90823SOL    HW174302  10.598   8.052  12.614
90823SOL    HW274303  10.507   8.155  12.676
90824SOL     OW74304  12.526  14.398  13.374
90824SOL    HW174305  12.520  14.338  13.300
90824SOL    HW274306  12.449  14.378  13.427
90825SOL     OW74307   4.683   9.215  11.530
90825SOL    HW174308   4.590   9.217  11.505
90825SOL    HW274309   4.687   9.149  11.599
90826SOL     OW74310  11.591   5.872   5.051
90826SOL    HW174311  11.602   5.789   5.099
90826SOL    HW274312  11.519   5.855   4.991
90827SOL     OW74313   9.608   8.557   4.762
90827SOL    HW174314   9.659   8.568   4.843
90827SOL    HW274315   9.643   8.477   4.723
90828SOL     OW74316   3.514  13.376   9.486
90828SOL    HW174317   3.476  13.338   9.565
90828SOL    HW274318   3.450  13.441   9.457
90829SOL     OW74319   3.855   1.445   5.453
90829SOL    HW174320   3.889   1.368   5.500
90829SOL    HW274321   3.933   1.492   5.425
90830SOL     OW74322   5.917   4.771   6.981
90830SOL    HW174323   5.837   4.815   7.010
90830SOL    HW274324   5.893   4.727   6.900
90831SOL     OW74325   3.151  14.767   4.687
90831SOL    HW174326   3.092  14.698   4.717
90831SOL    HW274327   3.102  14.848   4.699
90832SOL     OW74328   2.006   1.982   6.785
90832SOL    HW174329   2.078   2.033   6.823
90832SOL    HW274330   1.950   2.048   6.744
90833SOL     OW74331  11.664  10.447   0.786
90833SOL    HW174332  11.759  10.446   0.796
90833SOL    HW274333  11.645  10.529   0.740
90834SOL     OW74334   3.475  10.044  14.120
90834SOL    HW174335   3.520   9.962  14.138
90834SOL    HW274336   3.536  10.093  14.065
90835SOL     OW74337   9.403   6.992   3.610
90835SOL    HW174338   9.361   7.072   3.641
90835SOL    HW274339   9.464   6.968   3.679
90836SOL     OW74340   2.227   9.973  12.852
90836SOL    HW174341   2.322   9.986  12.842
90836SOL    HW274342   2.188  10.048  12.808
90837SOL     OW74343   8.908   4.010   0.475
90837SOL    HW174344   9.000   4.031   0.462
90837SOL    HW274345   8.867   4.036   0.392
90838SOL     OW74346   1.608   9.500   4.936
90838SOL    HW174347   1.591   9.550   5.015
90838SOL    HW274348   1.563   9.416   4.950
90839SOL     OW74349   9.860   8.370   7.732
90839SOL    HW174350   9.892   8.297   7.678
90839SOL    HW274351   9.930   8.385   7.795
90840SOL     OW74352   4.314   3.119   4.870
90840SOL    HW174353   4.316   3.213   4.887
90840SOL    HW274354   4.338   3.112   4.777
90841SOL     OW74355   3.574   2.011   6.951
90841SOL    HW174356   3.527   1.975   6.875
90841SOL    HW274357   3.578   1.939   7.013
90842SOL     OW74358   6.401   3.852   9.267
90842SOL    HW174359   6.471   3.912   9.293
90842SOL    HW274360   6.408   3.779   9.328
90843SOL     OW74361   7.855   1.887   1.427
90843SOL    HW174362   7.912   1.962   1.410
90843SOL    HW274363   7.915   1.812   1.428
90844SOL     OW74364  13.878   8.376  13.373
90844SOL    HW174365  13.846   8.460  13.340
90844SOL    HW274366  13.894   8.391  13.466
90845SOL     OW74367   0.589  12.770  12.630
90845SOL    HW174368   0.617  12.845  12.683
90845SOL    HW274369   0.497  12.759  12.652
90846SOL     OW74370   2.353   0.659  14.667
90846SOL    HW174371   2.265   0.695  14.660
90846SOL    HW274372   2.409   0.722  14.622
90847SOL     OW74373  10.869   8.416  11.371
90847SOL    HW174374  10.901   8.405  11.460
90847SOL    HW274375  10.894   8.335  11.326
90848SOL     OW74376   3.496   0.649  10.768
90848SOL    HW174377   3.413   0.652  10.816
90848SOL    HW274378   3.520   0.741  10.756
90849SOL     OW74379   8.506   5.221   6.861
90849SOL    HW174380   8.465   5.244   6.778
90849SOL    HW274381   8.435   5.183   6.913
90850SOL     OW74382   6.485   7.738   3.795
90850SOL    HW174383   6.455   7.682   3.723
90850SOL    HW274384   6.479   7.683   3.873
90851SOL     OW74385  14.731  13.737  14.015
90851SOL    HW174386  14.730  13.830  13.992
90851SOL    HW274387  14.735  13.692  13.930
90852SOL     OW74388  11.669  13.179   9.858
90852SOL    HW174389  11.701  13.157   9.946
90852SOL    HW274390  11.613  13.256   9.871
90853SOL     OW74391   7.432   7.554   0.642
90853SOL    HW174392   7.477   7.542   0.725
90853SOL    HW274393   7.345   7.587   0.667
90854SOL     OW74394  10.574   1.040   3.981
90854SOL    HW174395  10.625   1.049   3.901
90854SOL    HW274396  10.590   1.121   4.029
90855SOL     OW74397  10.962   4.700   7.280
90855SOL    HW174398  10.870   4.726   7.284
90855SOL    HW274399  10.969   4.649   7.200
90856SOL     OW74400  13.278  11.728   8.518
90856SOL    HW174401  13.186  11.735   8.545
90856SOL    HW274402  13.328  11.743   8.599
90857SOL     OW74403  14.001   9.192  13.350
90857SOL    HW174404  13.963   9.257  13.290
90857SOL    HW274405  14.092   9.219  13.359
90858SOL     OW74406   6.026   0.107  11.269
90858SOL    HW174407   6.010   0.176  11.333
90858SOL    HW274408   6.046   0.030  11.322
90859SOL     OW74409   5.986   0.189   3.798
90859SOL    HW174410   5.902   0.166   3.838
90859SOL    HW274411   5.981   0.284   3.785
90860SOL     OW74412   5.280   8.704  12.563
90860SOL    HW174413   5.340   8.659  12.503
90860SOL    HW274414   5.261   8.788  12.520
90861SOL     OW74415  12.966   7.375   8.724
90861SOL    HW174416  12.974   7.286   8.759
90861SOL    HW274417  13.054   7.411   8.732
90862SOL     OW74418   8.473   4.439   9.434
90862SOL    HW174419   8.477   4.532   9.416
90862SOL    HW274420   8.429   4.433   9.519
90863SOL     OW74421  10.785   1.511  11.159
90863SOL    HW174422  10.707   1.535  11.109
90863SOL    HW274423  10.798   1.418  11.139
90864SOL     OW74424  12.818   9.742   1.827
90864SOL    HW174425  12.733   9.786   1.829
90864SOL    HW274426  12.797   9.649   1.820
90865SOL     OW74427   9.929   2.974  11.838
90865SOL    HW174428   9.982   2.939  11.910
90865SOL    HW274429   9.841   2.981  11.874
90866SOL     OW74430   4.648  14.773   2.196
90866SOL    HW174431   4.703  14.706   2.236
90866SOL    HW274432   4.653  14.756   2.102
90867SOL     OW74433   6.061  12.080   1.209
90867SOL    HW174434   6.126  12.119   1.268
90867SOL    HW274435   6.078  11.986   1.215
90868SOL     OW74436   4.391  13.652   8.638
90868SOL    HW174437   4.312  13.685   8.680
90868SOL    HW274438   4.426  13.727   8.589
90869SOL     OW74439   2.490  13.459   1.326
90869SOL    HW174440   2.470  13.524   1.259
90869SOL    HW274441   2.426  13.389   1.312
90870SOL     OW74442   9.034  10.355   6.711
90870SOL    HW174443   9.064  10.306   6.635
90870SOL    HW274444   9.098  10.334   6.779
90871SOL     OW74445  12.467   6.066   8.510
90871SOL    HW174446  12.423   6.078   8.595
90871SOL    HW274447  12.437   5.980   8.480
90872SOL     OW74448   7.583  12.949   0.728
90872SOL    HW174449   7.643  12.929   0.657
90872SOL    HW274450   7.586  12.872   0.785
90873SOL     OW74451   1.066   8.427   2.863
90873SOL    HW174452   0.980   8.398   2.832
90873SOL    HW274453   1.125   8.408   2.790
90874SOL     OW74454   5.894  12.399   1.828
90874SOL    HW174455   5.980  12.365   1.855
90874SOL    HW274456   5.879  12.359   1.742
90875SOL     OW74457   6.110  11.618   7.696
90875SOL    HW174458   6.065  11.549   7.647
90875SOL    HW274459   6.162  11.664   7.630
90876SOL     OW74460   3.209   5.014   6.129
90876SOL    HW174461   3.181   4.928   6.096
90876SOL    HW274462   3.138   5.073   6.102
90877SOL     OW74463   8.728  10.800   4.000
90877SOL    HW174464   8.764  10.887   3.983
90877SOL    HW274465   8.648  10.796   3.948
90878SOL     OW74466  10.523   0.136   5.740
90878SOL    HW174467  10.431   0.124   5.763
90878SOL    HW274468  10.522   0.175   5.652
90879SOL     OW74469   6.020   3.061  12.535
90879SOL    HW174470   6.090   3.097  12.590
90879SOL    HW274471   5.948   3.124  12.543
90880SOL     OW74472  11.078   4.858   6.746
90880SOL    HW174473  11.029   4.913   6.806
90880SOL    HW274474  11.169   4.864   6.776
90881SOL     OW74475   7.259   3.696  13.979
90881SOL    HW174476   7.338   3.661  13.940
90881SOL    HW274477   7.280   3.703  14.073
90882SOL     OW74478   9.844   0.377   6.215
90882SOL    HW174479   9.804   0.293   6.237
90882SOL    HW274480   9.797   0.406   6.137
90883SOL     OW74481   1.129   4.942   5.804
90883SOL    HW174482   1.173   4.944   5.719
90883SOL    HW274483   1.041   4.975   5.785
90884SOL     OW74484   5.707   9.223   0.543
90884SOL    HW174485   5.622   9.181   0.532
90884SOL    HW274486   5.762   9.155   0.583
90885SOL     OW74487  10.242   7.327   6.051
90885SOL    HW174488  10.253   7.311   5.957
90885SOL    HW274489  10.324   7.369   6.077
90886SOL     OW74490  14.609  10.917   4.692
90886SOL    HW174491  14.571  10.942   4.776
90886SOL    HW274492  14.699  10.950   4.696
90887SOL     OW74493   0.894   1.118   0.360
90887SOL    HW174494   0.879   1.035   0.406
90887SOL    HW274495   0.975   1.152   0.398
90888SOL     OW74496   9.485   1.837  12.160
90888SOL    HW174497   9.490   1.837  12.256
90888SOL    HW274498   9.576   1.842  12.131
90889SOL     OW74499  14.859  12.426   8.400
90889SOL    HW174500   0.026  12.506   8.428
90889SOL    HW274501  14.865  12.368   8.475
90890SOL     OW74502   6.978   1.041  13.034
90890SOL    HW174503   7.054   0.990  13.061
90890SOL    HW274504   6.973   1.113  13.098
90891SOL     OW74505   4.132   5.519  11.509
90891SOL    HW174506   4.147   5.605  11.547
90891SOL    HW274507   4.071   5.477  11.570
90892SOL     OW74508   5.009   8.154   4.897
90892SOL    HW174509   4.994   8.073   4.946
90892SOL    HW274510   5.097   8.182   4.922
90893SOL     OW74511  11.347  12.634  14.417
90893SOL    HW174512  11.404  12.590  14.480
90893SOL    HW274513  11.283  12.681  14.471
90894SOL     OW74514  11.547   0.713   8.952
90894SOL    HW174515  11.491   0.645   8.991
90894SOL    HW274516  11.519   0.715   8.860
90895SOL     OW74517  12.499  11.268   5.584
90895SOL    HW174518  12.445  11.204   5.537
90895SOL    HW274519  12.558  11.303   5.518
90896SOL     OW74520   8.548  14.547  14.842
90896SOL    HW174521   8.480  14.549   0.030
90896SOL    HW274522   8.513  14.600  14.770
90897SOL     OW74523  11.327   6.986   2.223
90897SOL    HW174524  11.296   6.949   2.140
90897SOL    HW274525  11.327   6.912   2.284
90898SOL     OW74526  10.389   3.654   2.559
90898SOL    HW174527  10.424   3.588   2.500
90898SOL    HW274528  10.362   3.606   2.637
90899SOL     OW74529   0.284   6.590   6.516
90899SOL    HW174530   0.237   6.509   6.536
90899SOL    HW274531   0.372   6.562   6.491
90900SOL     OW74532  10.965   8.517   0.827
90900SOL    HW174533  10.983   8.592   0.771
90900SOL    HW274534  10.973   8.441   0.769
90901SOL     OW74535   4.829   3.503  10.402
90901SOL    HW174536   4.763   3.496  10.333
90901SOL    HW274537   4.886   3.427  10.388
90902SOL     OW74538  12.720   8.773   1.406
90902SOL    HW174539  12.715   8.761   1.311
90902SOL    HW274540  12.710   8.867   1.419
90903SOL     OW74541   5.498   3.354   2.919
90903SOL    HW174542   5.423   3.365   2.860
90903SOL    HW274543   5.558   3.298   2.871
90904SOL     OW74544   0.529   6.410  13.524
90904SOL    HW174545   0.454   6.422  13.465
90904SOL    HW274546   0.492   6.366  13.600
90905SOL     OW74547  13.309   9.760  10.672
90905SOL    HW174548  13.348   9.719  10.748
90905SOL    HW274549  13.250   9.694  10.635
90906SOL     OW74550   4.819   7.663   7.821
90906SOL    HW174551   4.811   7.593   7.886
90906SOL    HW274552   4.796   7.743   7.868
90907SOL     OW74553  14.762  10.052   1.036
90907SOL    HW174554  14.775  10.105   1.114
90907SOL    HW274555  14.846  10.055   0.990
90908SOL     OW74556   5.858   6.275  12.531
90908SOL    HW174557   5.943   6.272  12.575
90908SOL    HW274558   5.795   6.293  12.601
90909SOL     OW74559   6.875   8.317   7.360
90909SOL    HW174560   6.909   8.300   7.272
90909SOL    HW274561   6.951   8.348   7.409
90910SOL     OW74562  14.772   1.268   9.814
90910SOL    HW174563  14.722   1.300   9.890
90910SOL    HW274564  14.864   1.281   9.840
90911SOL     OW74565   3.177   3.639   8.481
90911SOL    HW174566   3.097   3.688   8.461
90911SOL    HW274567   3.193   3.587   8.402
90912SOL     OW74568   5.769   3.251   0.698
90912SOL    HW174569   5.832   3.256   0.626
90912SOL    HW274570   5.684   3.254   0.656
90913SOL     OW74571   8.842  11.947  12.530
90913SOL    HW174572   8.834  12.012  12.460
90913SOL    HW274573   8.935  11.944  12.549
90914SOL     OW74574  11.904  12.940  12.089
90914SOL    HW174575  11.837  12.891  12.136
90914SOL    HW274576  11.930  13.010  12.150
90915SOL     OW74577   2.708   2.894   8.855
90915SOL    HW174578   2.651   2.853   8.920
90915SOL    HW274579   2.789   2.912   8.903
90916SOL     OW74580   6.412   9.866   8.240
90916SOL    HW174581   6.392   9.940   8.184
90916SOL    HW274582   6.386   9.789   8.189
90917SOL     OW74583   7.164   5.125   6.726
90917SOL    HW174584   7.228   5.185   6.764
90917SOL    HW274585   7.099   5.113   6.794
90918SOL     OW74586  12.215  10.437   8.712
90918SOL    HW174587  12.203  10.405   8.801
90918SOL    HW274588  12.160  10.515   8.707
90919SOL     OW74589   4.725   3.787   7.554
90919SOL    HW174590   4.801   3.780   7.497
90919SOL    HW274591   4.655   3.742   7.507
90920SOL     OW74592   7.866  10.411   6.229
90920SOL    HW174593   7.895  10.332   6.275
90920SOL    HW274594   7.921  10.414   6.150
90921SOL     OW74595  10.275   0.281   5.744
90921SOL    HW174596  10.289   0.328   5.662
90921SOL    HW274597  10.315   0.336   5.811
90922SOL     OW74598   2.883   3.406   6.118
90922SOL    HW174599   2.867   3.469   6.189
90922SOL    HW274600   2.803   3.354   6.114
90923SOL     OW74601   0.511   1.926  12.685
90923SOL    HW174602   0.552   1.880  12.758
90923SOL    HW274603   0.441   1.977  12.726
90924SOL     OW74604   7.805  11.555   7.264
90924SOL    HW174605   7.813  11.621   7.333
90924SOL    HW274606   7.856  11.591   7.191
90925SOL     OW74607   4.948  10.575   0.861
90925SOL    HW174608   4.914  10.561   0.773
90925SOL    HW274609   4.878  10.547   0.919
90926SOL     OW74610   2.444   4.937   1.047
90926SOL    HW174611   2.499   4.982   1.111
90926SOL    HW274612   2.361   4.984   1.048
90927SOL     OW74613   1.686  14.360  11.248
90927SOL    HW174614   1.743  14.328  11.178
90927SOL    HW274615   1.649  14.281  11.287
90928SOL     OW74616  10.766   2.752   0.127
90928SOL    HW174617  10.704   2.680   0.118
90928SOL    HW274618  10.802   2.742   0.216
90929SOL     OW74619   9.310   9.755   0.309
90929SOL    HW174620   9.353   9.741   0.225
90929SOL    HW274621   9.253   9.830   0.295
90930SOL     OW74622  11.244  13.102   0.064
90930SOL    HW174623  11.176  13.109  14.875
90930SOL    HW274624  11.317  13.058   0.020
90931SOL     OW74625  13.941   7.392   2.508
90931SOL    HW174626  13.982   7.448   2.574
90931SOL    HW274627  13.964   7.303   2.535
90932SOL     OW74628   0.955   2.284   7.533
90932SOL    HW174629   0.929   2.206   7.483
90932SOL    HW274630   1.050   2.274   7.544
90933SOL     OW74631  10.291  10.114   4.817
90933SOL    HW174632  10.275  10.169   4.740
90933SOL    HW274633  10.383  10.091   4.811
90934SOL     OW74634   7.868   2.792  12.306
90934SOL    HW174635   7.902   2.864  12.359
90934SOL    HW274636   7.939   2.728  12.304
90935SOL     OW74637   6.868   4.960  11.315
90935SOL    HW174638   6.898   4.906  11.241
90935SOL    HW274639   6.948   4.981  11.363
90936SOL     OW74640  14.780   8.066   0.053
90936SOL    HW174641  14.730   8.014   0.116
90936SOL    HW274642  14.847   8.006   0.020
90937SOL     OW74643  11.341  14.645   0.402
90937SOL    HW174644  11.413  14.652   0.465
90937SOL    HW274645  11.266  14.683   0.447
90938SOL     OW74646   3.275   1.625  11.190
90938SOL    HW174647   3.319   1.611  11.273
90938SOL    HW274648   3.289   1.544  11.141
90939SOL     OW74649  10.519  11.860   7.527
90939SOL    HW174650  10.501  11.776   7.486
90939SOL    HW274651  10.608  11.882   7.500
90940SOL     OW74652   6.885  11.382  10.382
90940SOL    HW174653   6.906  11.333  10.461
90940SOL    HW274654   6.901  11.474  10.405
90941SOL     OW74655   5.904   9.922   0.962
90941SOL    HW174656   5.949   9.840   0.983
90941SOL    HW274657   5.974   9.988   0.960
90942SOL     OW74658   5.226   4.483   0.342
90942SOL    HW174659   5.242   4.520   0.256
90942SOL    HW274660   5.283   4.533   0.401
90943SOL     OW74661  12.404   1.018   0.604
90943SOL    HW174662  12.497   1.028   0.621
90943SOL    HW274663  12.400   0.972   0.520
90944SOL     OW74664   5.486   1.021   8.632
90944SOL    HW174665   5.448   0.949   8.683
90944SOL    HW274666   5.420   1.042   8.567
90945SOL     OW74667   4.863   3.050   8.521
90945SOL    HW174668   4.868   3.106   8.598
90945SOL    HW274669   4.855   2.961   8.556
90946SOL     OW74670  12.795  10.308  14.594
90946SOL    HW174671  12.863  10.370  14.620
90946SOL    HW274672  12.713  10.348  14.625
90947SOL     OW74673   6.885   2.076   5.671
90947SOL    HW174674   6.840   2.073   5.755
90947SOL    HW274675   6.938   2.155   5.675
90948SOL     OW74676  14.533   7.747  10.424
90948SOL    HW174677  14.451   7.698  10.419
90948SOL    HW274678  14.575   7.732  10.339
90949SOL     OW74679   5.721  13.467   8.626
90949SOL    HW174680   5.756  13.453   8.538
90949SOL    HW274681   5.636  13.508   8.613
90950SOL     OW74682   5.403  14.164  11.456
90950SOL    HW174683   5.496  14.145  11.456
90950SOL    HW274684   5.363  14.091  11.504
90951SOL     OW74685   0.422   6.764   6.140
90951SOL    HW174686   0.405   6.734   6.050
90951SOL    HW274687   0.337   6.793   6.172
90952SOL     OW74688   9.956   4.221   5.086
90952SOL    HW174689  10.037   4.272   5.098
90952SOL    HW274690   9.942   4.177   5.170
90953SOL     OW74691  12.506  12.074   9.904
90953SOL    HW174692  12.487  12.137   9.973
90953SOL    HW274693  12.551  12.002   9.948
90954SOL     OW74694  10.929  11.986  10.956
90954SOL    HW174695  10.875  11.911  10.976
90954SOL    HW274696  11.019  11.957  10.975
90955SOL     OW74697   2.557   6.699   7.787
90955SOL    HW174698   2.479   6.649   7.764
90955SOL    HW274699   2.554   6.708   7.882
90956SOL     OW74700   2.841   2.601   0.060
90956SOL    HW174701   2.819   2.550   0.138
90956SOL    HW274702   2.915   2.655   0.086
90957SOL     OW74703  11.436   7.504  13.596
90957SOL    HW174704  11.501   7.552  13.544
90957SOL    HW274705  11.442   7.414  13.565
90958SOL     OW74706  11.703  13.903   4.838
90958SOL    HW174707  11.638  13.903   4.767
90958SOL    HW274708  11.786  13.886   4.794
90959SOL     OW74709  10.480   1.521   4.205
90959SOL    HW174710  10.424   1.468   4.148
90959SOL    HW274711  10.422   1.548   4.277
90960SOL     OW74712   7.015   6.011   2.933
90960SOL    HW174713   7.044   5.920   2.924
90960SOL    HW274714   7.037   6.034   3.023
90961SOL     OW74715   4.228   0.290  14.722
90961SOL    HW174716   4.152   0.329  14.677
90961SOL    HW274717   4.224   0.197  14.700
90962SOL     OW74718   5.117   5.901   4.284
90962SOL    HW174719   5.141   5.808   4.290
90962SOL    HW274720   5.021   5.900   4.284
90963SOL     OW74721  12.081   6.106   7.536
90963SOL    HW174722  12.141   6.123   7.608
90963SOL    HW274723  12.038   6.024   7.560
90964SOL     OW74724   2.697   8.167   4.081
90964SOL    HW174725   2.615   8.211   4.059
90964SOL    HW274726   2.764   8.234   4.070
90965SOL     OW74727   5.534   8.841   1.671
90965SOL    HW174728   5.478   8.918   1.662
90965SOL    HW274729   5.590   8.842   1.594
90966SOL     OW74730  10.459   0.365   5.957
90966SOL    HW174731  10.478   0.375   6.050
90966SOL    HW274732  10.544   0.374   5.914
90967SOL     OW74733   0.909   3.463  12.435
90967SOL    HW174734   0.943   3.531  12.493
90967SOL    HW274735   0.986   3.429  12.389
90968SOL     OW74736   0.398   8.510   2.791
90968SOL    HW174737   0.467   8.509   2.723
90968SOL    HW274738   0.344   8.586   2.768
90969SOL     OW74739   6.188   1.168   4.057
90969SOL    HW174740   6.182   1.258   4.089
90969SOL    HW274741   6.258   1.129   4.109
90970SOL     OW74742   3.410  12.553   3.003
90970SOL    HW174743   3.411  12.620   2.935
90970SOL    HW274744   3.384  12.599   3.082
90971SOL     OW74745   1.000   0.381   9.192
90971SOL    HW174746   1.053   0.371   9.271
90971SOL    HW274747   1.062   0.368   9.120
90972SOL     OW74748   4.531  14.685   6.391
90972SOL    HW174749   4.455  14.742   6.393
90972SOL    HW274750   4.606  14.743   6.405
90973SOL     OW74751  12.852   8.962   9.134
90973SOL    HW174752  12.762   8.977   9.106
90973SOL    HW274753  12.849   8.879   9.181
90974SOL     OW74754  11.558   9.498  10.299
90974SOL    HW174755  11.644   9.461  10.277
90974SOL    HW274756  11.509   9.497  10.217
90975SOL     OW74757   0.184   5.851   6.641
90975SOL    HW174758   0.277   5.842   6.660
90975SOL    HW274759   0.170   5.797   6.563
90976SOL     OW74760   7.544  11.748   1.385
90976SOL    HW174761   7.517  11.680   1.447
90976SOL    HW274762   7.575  11.700   1.309
90977SOL     OW74763   7.490   3.563   9.461
90977SOL    HW174764   7.428   3.580   9.390
90977SOL    HW274765   7.440   3.511   9.524
90978SOL     OW74766  14.694   8.178   3.838
90978SOL    HW174767  14.623   8.215   3.785
90978SOL    HW274768  14.661   8.180   3.928
90979SOL     OW74769  13.197  14.067  14.373
90979SOL    HW174770  13.275  14.013  14.386
90979SOL    HW274771  13.229  14.157  14.371
90980SOL     OW74772   5.549   3.565  13.354
90980SOL    HW174773   5.599   3.640  13.323
90980SOL    HW274774   5.504   3.597  13.432
90981SOL     OW74775   8.090   5.469   2.907
90981SOL    HW174776   8.169   5.457   2.959
90981SOL    HW274777   8.080   5.564   2.901
90982SOL     OW74778  11.101  10.899   9.619
90982SOL    HW174779  11.023  10.915   9.567
90982SOL    HW274780  11.073  10.839   9.688
90983SOL     OW74781  13.716  12.100   1.002
90983SOL    HW174782  13.776  12.039   1.044
90983SOL    HW274783  13.765  12.182   0.996
90984SOL     OW74784   0.948   3.075   4.076
90984SOL    HW174785   0.959   3.161   4.035
90984SOL    HW274786   0.897   3.091   4.154
90985SOL     OW74787   0.426   5.666  10.583
90985SOL    HW174788   0.356   5.699  10.640
90985SOL    HW274789   0.504   5.714  10.612
90986SOL     OW74790   8.217  10.550   7.024
90986SOL    HW174791   8.219  10.455   7.025
90986SOL    HW274792   8.212  10.573   6.931
90987SOL     OW74793  14.754  13.433  14.449
90987SOL    HW174794  14.684  13.476  14.400
90987SOL    HW274795  14.799  13.378  14.385
90988SOL     OW74796   2.432  10.734  11.917
90988SOL    HW174797   2.354  10.752  11.969
90988SOL    HW274798   2.448  10.815  11.868
90989SOL     OW74799  13.851   3.951  12.412
90989SOL    HW174800  13.848   3.979  12.504
90989SOL    HW274801  13.787   4.008  12.368
90990SOL     OW74802  12.104   8.949   7.972
90990SOL    HW174803  12.135   8.858   7.967
90990SOL    HW274804  12.184   9.000   7.988
90991SOL     OW74805   1.637  14.345   6.343
90991SOL    HW174806   1.556  14.396   6.343
90991SOL    HW274807   1.640  14.305   6.430
90992SOL     OW74808   7.595   2.155   4.110
90992SOL    HW174809   7.584   2.248   4.127
90992SOL    HW274810   7.603   2.148   4.015
90993SOL     OW74811   4.132   4.402   2.986
90993SOL    HW174812   4.100   4.398   3.076
90993SOL    HW274813   4.212   4.454   2.991
90994SOL     OW74814  10.767  10.816  14.091
90994SOL    HW174815  10.776  10.908  14.069
90994SOL    HW274816  10.792  10.810  14.183
90995SOL     OW74817  14.846   5.659  10.905
90995SOL    HW174818   0.010   5.733  10.947
90995SOL    HW274819  14.796   5.616  10.975
90996SOL     OW74820   9.219   3.573   8.434
90996SOL    HW174821   9.182   3.487   8.454
90996SOL    HW274822   9.306   3.554   8.398
90997SOL     OW74823   4.331  11.507   4.025
90997SOL    HW174824   4.312  11.421   4.062
90997SOL    HW274825   4.413  11.495   3.976
90998SOL     OW74826  14.822   2.548  11.973
90998SOL    HW174827  14.780   2.633  11.964
90998SOL    HW274828   0.006   2.545  11.901
90999SOL     OW74829  13.936   4.377   7.759
90999SOL    HW174830  13.944   4.340   7.672
90999SOL    HW274831  13.987   4.319   7.816
91000SOL     OW74832   3.929   0.456   0.432
91000SOL    HW174833   3.983   0.514   0.378
91000SOL    HW274834   3.943   0.369   0.394
91001SOL     OW74835   9.125  14.092  13.830
91001SOL    HW174836   9.123  13.997  13.842
91001SOL    HW274837   9.176  14.124  13.905
91002SOL     OW74838  13.359  11.738   8.778
91002SOL    HW174839  13.450  11.722   8.802
91002SOL    HW274840  13.318  11.652   8.783
91003SOL     OW74841   7.534   8.948   2.022
91003SOL    HW174842   7.578   8.953   2.108
91003SOL    HW274843   7.588   8.888   1.972
91004SOL     OW74844  10.836  11.832   1.762
91004SOL    HW174845  10.825  11.926   1.748
91004SOL    HW274846  10.752  11.803   1.798
91005SOL     OW74847   5.550  12.495  11.845
91005SOL    HW174848   5.629  12.546  11.832
91005SOL    HW274849   5.479  12.553  11.816
91006SOL     OW74850   1.744   7.518   6.797
91006SOL    HW174851   1.804   7.592   6.808
91006SOL    HW274852   1.801   7.445   6.773
91007SOL     OW74853   6.578  14.152   7.521
91007SOL    HW174854   6.646  14.119   7.463
91007SOL    HW274855   6.508  14.086   7.515
91008SOL     OW74856   4.734   5.722   3.397
91008SOL    HW174857   4.752   5.767   3.315
91008SOL    HW274858   4.751   5.629   3.379
91009SOL     OW74859   6.271   7.234   0.770
91009SOL    HW174860   6.275   7.223   0.866
91009SOL    HW274861   6.337   7.173   0.737
91010SOL     OW74862  14.677   4.036  14.647
91010SOL    HW174863  14.656   4.123  14.681
91010SOL    HW274864  14.592   3.992  14.639
91011SOL     OW74865   5.753   2.680   7.857
91011SOL    HW174866   5.819   2.612   7.846
91011SOL    HW274867   5.674   2.633   7.885
91012SOL     OW74868  13.158   1.978   6.652
91012SOL    HW174869  13.243   1.933   6.652
91012SOL    HW274870  13.166   2.046   6.585
91013SOL     OW74871   8.085  14.200  10.678
91013SOL    HW174872   8.052  14.268  10.620
91013SOL    HW274873   8.007  14.168  10.723
91014SOL     OW74874   5.995  13.469  12.839
91014SOL    HW174875   5.957  13.533  12.900
91014SOL    HW274876   5.924  13.450  12.778
91015SOL     OW74877  12.893   6.058   0.827
91015SOL    HW174878  12.830   6.081   0.758
91015SOL    HW274879  12.904   6.139   0.877
91016SOL     OW74880   4.131   4.885   6.074
91016SOL    HW174881   4.153   4.885   5.981
91016SOL    HW274882   4.127   4.978   6.097
91017SOL     OW74883   9.338   9.390  10.570
91017SOL    HW174884   9.262   9.361  10.620
91017SOL    HW274885   9.390   9.311  10.556
91018SOL     OW74886  14.692  14.269  12.381
91018SOL    HW174887  14.652  14.305  12.460
91018SOL    HW274888  14.716  14.179  12.405
91019SOL     OW74889   6.802   2.238   1.710
91019SOL    HW174890   6.748   2.292   1.768
91019SOL    HW274891   6.784   2.148   1.738
91020SOL     OW74892  14.359   6.587   0.173
91020SOL    HW174893  14.386   6.678   0.180
91020SOL    HW274894  14.349   6.558   0.264
91021SOL     OW74895   7.456   5.832   6.078
91021SOL    HW174896   7.461   5.737   6.067
91021SOL    HW274897   7.364   5.848   6.100
91022SOL     OW74898   7.333   2.288   2.408
91022SOL    HW174899   7.359   2.355   2.471
91022SOL    HW274900   7.280   2.226   2.458
91023SOL     OW74901   3.679   1.796  11.749
91023SOL    HW174902   3.657   1.803  11.842
91023SOL    HW274903   3.696   1.703  11.735
91024SOL     OW74904   2.385   5.809   7.639
91024SOL    HW174905   2.442   5.831   7.713
91024SOL    HW274906   2.440   5.820   7.562
91025SOL     OW74907   4.538  11.488  12.245
91025SOL    HW174908   4.531  11.565  12.302
91025SOL    HW274909   4.631  11.484  12.222
91026SOL     OW74910   2.243  11.778  10.231
91026SOL    HW174911   2.240  11.784  10.135
91026SOL    HW274912   2.190  11.851  10.261
91027SOL     OW74913  13.617   0.574   0.178
91027SOL    HW174914  13.680   0.508   0.149
91027SOL    HW274915  13.622   0.572   0.273
91028SOL     OW74916  11.973   4.215   2.460
91028SOL    HW174917  12.051   4.269   2.447
91028SOL    HW274918  11.996   4.155   2.530
91029SOL     OW74919   1.101   5.459   2.933
91029SOL    HW174920   1.119   5.426   2.845
91029SOL    HW274921   1.008   5.482   2.931
91030SOL     OW74922   3.475   2.457   7.288
91030SOL    HW174923   3.483   2.367   7.255
91030SOL    HW274924   3.426   2.503   7.220
91031SOL     OW74925  11.708   1.953  14.622
91031SOL    HW174926  11.768   1.996  14.560
91031SOL    HW274927  11.692   2.018  14.689
91032SOL     OW74928  11.850   5.059   9.910
91032SOL    HW174929  11.889   5.123   9.851
91032SOL    HW274930  11.925   5.013   9.948
91033SOL     OW74931   1.278   3.631  12.451
91033SOL    HW174932   1.214   3.671  12.509
91033SOL    HW274933   1.345   3.699  12.439
91034SOL     OW74934  13.638   1.488   4.937
91034SOL    HW174935  13.728   1.518   4.943
91034SOL    HW274936  13.607   1.488   5.028
91035SOL     OW74937   9.519  11.537   3.621
91035SOL    HW174938   9.514  11.564   3.712
91035SOL    HW274939   9.487  11.613   3.572
91036SOL     OW74940  14.106   5.602   3.280
91036SOL    HW174941  14.199   5.579   3.274
91036SOL    HW274942  14.104   5.697   3.270
91037SOL     OW74943   6.085   8.268   1.135
91037SOL    HW174944   6.096   8.193   1.076
91037SOL    HW274945   6.004   8.310   1.105
91038SOL     OW74946  14.066   4.899   1.952
91038SOL    HW174947  14.025   4.873   1.870
91038SOL    HW274948  14.145   4.947   1.927
91039SOL     OW74949   3.076   1.461   6.330
91039SOL    HW174950   3.142   1.414   6.381
91039SOL    HW274951   3.108   1.552   6.328
91040SOL     OW74952   3.097   5.965  13.403
91040SOL    HW174953   3.127   6.035  13.460
91040SOL    HW274954   3.004   5.983  13.389
91041SOL     OW74955  11.281  10.490   2.414
91041SOL    HW174956  11.268  10.497   2.509
91041SOL    HW274957  11.375  10.471   2.404
91042SOL     OW74958   1.013   0.859   2.969
91042SOL    HW174959   1.057   0.871   3.054
91042SOL    HW274960   0.945   0.795   2.987
91043SOL     OW74961   4.746  13.019   5.326
91043SOL    HW174962   4.840  13.004   5.317
91043SOL    HW274963   4.736  13.062   5.410
91044SOL     OW74964  12.190   0.420  11.727
91044SOL    HW174965  12.262   0.394  11.785
91044SOL    HW274966  12.233   0.456  11.650
91045SOL     OW74967   2.566   5.009   7.060
91045SOL    HW174968   2.644   5.039   7.107
91045SOL    HW274969   2.518   5.088   7.040
91046SOL     OW74970   2.008   5.104   3.500
91046SOL    HW174971   1.983   5.194   3.521
91046SOL    HW274972   2.055   5.073   3.578
91047SOL     OW74973   6.530   0.914   6.959
91047SOL    HW174974   6.601   0.875   6.909
91047SOL    HW274975   6.454   0.860   6.938
91048SOL     OW74976   7.543   4.808  13.108
91048SOL    HW174977   7.609   4.742  13.086
91048SOL    HW274978   7.513   4.783  13.195
91049SOL     OW74979  13.965   6.028   7.086
91049SOL    HW174980  13.999   6.113   7.115
91049SOL    HW274981  13.870   6.037   7.093
91050SOL     OW74982   9.611   1.042   8.265
91050SOL    HW174983   9.521   1.009   8.261
91050SOL    HW274984   9.608   1.112   8.330
91051SOL     OW74985   9.001  12.706  13.178
91051SOL    HW174986   8.932  12.763  13.142
91051SOL    HW274987   8.954  12.642  13.231
91052SOL     OW74988   2.544   2.793   9.487
91052SOL    HW174989   2.523   2.753   9.572
91052SOL    HW274990   2.503   2.879   9.490
91053SOL     OW74991   5.220  12.356   9.630
91053SOL    HW174992   5.270  12.405   9.565
91053SOL    HW274993   5.162  12.300   9.579
91054SOL     OW74994  11.916   1.905   0.228
91054SOL    HW174995  11.853   1.952   0.173
91054SOL    HW274996  11.884   1.917   0.318
91055SOL     OW74997   2.275  14.004  14.525
91055SOL    HW174998   2.283  14.054  14.606
91055SOL    HW274999   2.361  13.966  14.511
91056SOL     OW75000  13.229  12.403   2.056
91056SOL    HW175001  13.257  12.339   2.121
91056SOL    HW275002  13.264  12.486   2.087
91057SOL     OW75003  14.267  11.918   6.865
91057SOL    HW175004  14.296  11.935   6.775
91057SOL    HW275005  14.227  11.832   6.861
91058SOL     OW75006  12.887  11.839   1.025
91058SOL    HW175007  12.956  11.772   1.018
91058SOL    HW275008  12.817  11.796   1.074
91059SOL     OW75009   9.677  12.517   3.383
91059SOL    HW175010   9.687  12.442   3.443
91059SOL    HW275011   9.636  12.479   3.305
91060SOL     OW75012   0.163  14.074  13.101
91060SOL    HW175013   0.070  14.050  13.105
91060SOL    HW275014   0.166  14.146  13.038
91061SOL     OW75015   5.376  14.249  12.832
91061SOL    HW175016   5.404  14.222  12.745
91061SOL    HW275017   5.363  14.344  12.826
91062SOL     OW75018   7.402   2.064  12.223
91062SOL    HW175019   7.397   2.031  12.313
91062SOL    HW275020   7.451   2.146  12.230
91063SOL     OW75021   8.766   7.509   9.123
91063SOL    HW175022   8.712   7.431   9.136
91063SOL    HW275023   8.816   7.517   9.204
91064SOL     OW75024   6.965   4.577  14.734
91064SOL    HW175025   6.898   4.510  14.742
91064SOL    HW275026   6.926   4.656  14.771
91065SOL     OW75027   1.631   0.926   2.178
91065SOL    HW175028   1.547   0.887   2.155
91065SOL    HW275029   1.654   0.886   2.262
91066SOL     OW75030  10.373   7.219   1.368
91066SOL    HW175031  10.300   7.214   1.429
91066SOL    HW275032  10.419   7.300   1.392
91067SOL     OW75033   0.609   1.738   8.280
91067SOL    HW175034   0.515   1.723   8.268
91067SOL    HW275035   0.615   1.824   8.321
91068SOL     OW75036   9.969  14.774   4.790
91068SOL    HW175037  10.023  14.852   4.775
91068SOL    HW275038   9.977  14.723   4.710
91069SOL     OW75039  12.324   0.147   5.206
91069SOL    HW175040  12.260   0.077   5.189
91069SOL    HW275041  12.270   0.226   5.213
91070SOL     OW75042  13.742  13.044  11.168
91070SOL    HW175043  13.821  13.053  11.220
91070SOL    HW275044  13.693  12.974  11.210
91071SOL     OW75045   0.717   9.849   3.553
91071SOL    HW175046   0.740   9.821   3.642
91071SOL    HW275047   0.792   9.901   3.524
91072SOL     OW75048   0.468   0.696   8.311
91072SOL    HW175049   0.557   0.687   8.346
91072SOL    HW275050   0.473   0.654   8.224
91073SOL     OW75051   4.745  13.882  14.030
91073SOL    HW175052   4.726  13.902  14.121
91073SOL    HW275053   4.660  13.863  13.991
91074SOL     OW75054  14.248   7.108   9.405
91074SOL    HW175055  14.169   7.161   9.401
91074SOL    HW275056  14.318   7.169   9.380
91075SOL     OW75057   1.983   5.922   0.811
91075SOL    HW175058   1.899   5.875   0.820
91075SOL    HW275059   1.959   6.014   0.811
91076SOL     OW75060   3.165   3.771   1.861
91076SOL    HW175061   3.160   3.741   1.952
91076SOL    HW275062   3.106   3.713   1.813
91077SOL     OW75063   4.893  10.367   9.645
91077SOL    HW175064   4.858  10.452   9.615
91077SOL    HW275065   4.932  10.329   9.566
91078SOL     OW75066  10.715   1.372   8.156
91078SOL    HW175067  10.718   1.420   8.073
91078SOL    HW275068  10.721   1.440   8.223
91079SOL     OW75069  10.080   8.571  13.612
91079SOL    HW175070  10.087   8.600  13.521
91079SOL    HW275071   9.986   8.558  13.626
91080SOL     OW75072  10.242   3.679  12.241
91080SOL    HW175073  10.212   3.715  12.158
91080SOL    HW275074  10.271   3.754  12.291
91081SOL     OW75075   4.299  10.225   1.944
91081SOL    HW175076   4.238  10.151   1.948
91081SOL    HW275077   4.366  10.204   2.009
91082SOL     OW75078   3.058   8.193   9.508
91082SOL    HW175079   3.022   8.138   9.577
91082SOL    HW275080   3.088   8.272   9.554
91083SOL     OW75081  12.609  13.751   3.202
91083SOL    HW175082  12.591  13.657   3.210
91083SOL    HW275083  12.702  13.755   3.178
91084SOL     OW75084   0.263   7.242   1.738
91084SOL    HW175085   0.192   7.192   1.700
91084SOL    HW275086   0.235   7.333   1.731
91085SOL     OW75087  10.572   2.597  12.540
91085SOL    HW175088  10.632   2.522  12.538
91085SOL    HW275089  10.549   2.612  12.448
91086SOL     OW75090   4.659   0.222   3.796
91086SOL    HW175091   4.722   0.294   3.799
91086SOL    HW275092   4.684   0.165   3.869
91087SOL     OW75093   4.215   2.251  11.077
91087SOL    HW175094   4.263   2.328  11.047
91087SOL    HW275095   4.234   2.245  11.170
91088SOL     OW75096  12.220   9.175   5.497
91088SOL    HW175097  12.194   9.217   5.415
91088SOL    HW275098  12.137   9.163   5.545
91089SOL     OW75099   7.790   9.575   5.851
91089SOL    HW175100   7.734   9.543   5.922
91089SOL    HW275101   7.872   9.527   5.861
91090SOL     OW75102   6.942   6.845   2.814
91090SOL    HW175103   6.943   6.811   2.904
91090SOL    HW275104   6.860   6.894   2.809
91091SOL     OW75105  12.869   7.277  12.743
91091SOL    HW175106  12.938   7.313  12.687
91091SOL    HW275107  12.794   7.335  12.729
91092SOL     OW75108  11.638  13.841   5.762
91092SOL    HW175109  11.601  13.811   5.844
91092SOL    HW275110  11.731  13.855   5.782
91093SOL     OW75111   1.913   5.353   5.002
91093SOL    HW175112   1.994   5.390   5.037
91093SOL    HW275113   1.844   5.400   5.049
91094SOL     OW75114  11.256   0.128  14.448
91094SOL    HW175115  11.264   0.223  14.454
91094SOL    HW275116  11.222   0.112  14.360
91095SOL     OW75117   6.152   9.724   8.266
91095SOL    HW175118   6.127   9.793   8.206
91095SOL    HW275119   6.174   9.769   8.348
91096SOL     OW75120   0.536   9.432   9.691
91096SOL    HW175121   0.591   9.448   9.768
91096SOL    HW275122   0.509   9.519   9.662
91097SOL     OW75123  10.044   2.810   9.383
91097SOL    HW175124  10.068   2.890   9.337
91097SOL    HW275125  10.079   2.740   9.329
91098SOL     OW75126  12.983   4.848   4.302
91098SOL    HW175127  13.051   4.863   4.235
91098SOL    HW275128  12.981   4.930   4.352
91099SOL     OW75129   5.435   7.229   7.700
91099SOL    HW175130   5.449   7.316   7.662
91099SOL    HW275131   5.346   7.206   7.672
91100SOL     OW75132   7.575  11.247   2.058
91100SOL    HW175133   7.629  11.184   2.010
91100SOL    HW275134   7.638  11.299   2.109
91101SOL     OW75135  10.960  10.418  11.923
91101SOL    HW175136  10.935  10.372  12.003
91101SOL    HW275137  11.056  10.414  11.922
91102SOL     OW75138   6.744   6.713  10.860
91102SOL    HW175139   6.756   6.631  10.908
91102SOL    HW275140   6.806   6.707  10.788
91103SOL     OW75141   5.270   1.744  13.309
91103SOL    HW175142   5.236   1.760  13.397
91103SOL    HW275143   5.192   1.744  13.253
91104SOL     OW75144  12.605   8.822   3.288
91104SOL    HW175145  12.514   8.795   3.297
91104SOL    HW275146  12.624   8.870   3.369
91105SOL     OW75147   5.040   5.978   5.898
91105SOL    HW175148   5.112   6.039   5.911
91105SOL    HW275149   5.011   5.993   5.808
91106SOL     OW75150   8.175   0.940  11.247
91106SOL    HW175151   8.196   1.028  11.218
91106SOL    HW275152   8.238   0.883  11.202
91107SOL     OW75153  12.803  11.304   4.664
91107SOL    HW175154  12.735  11.361   4.629
91107SOL    HW275155  12.864  11.293   4.592
91108SOL     OW75156  13.579   8.480  12.362
91108SOL    HW175157  13.583   8.563  12.314
91108SOL    HW275158  13.671   8.459  12.380
91109SOL     OW75159  14.278   0.968  13.489
91109SOL    HW175160  14.195   1.009  13.464
91109SOL    HW275161  14.336   1.041  13.509
91110SOL     OW75162  14.606  13.933   4.784
91110SOL    HW175163  14.600  14.014   4.835
91110SOL    HW275164  14.664  13.877   4.835
91111SOL     OW75165   8.519  12.087   5.982
91111SOL    HW175166   8.431  12.074   5.945
91111SOL    HW275167   8.539  12.004   6.026
91112SOL     OW75168   4.698  11.821   5.076
91112SOL    HW175169   4.686  11.826   4.982
91112SOL    HW275170   4.739  11.904   5.100
91113SOL     OW75171   0.018  12.284  14.274
91113SOL    HW175172   0.112  12.301  14.266
91113SOL    HW275173   0.006  12.256  14.364
91114SOL     OW75174  11.517   5.012   4.604
91114SOL    HW175175  11.504   5.058   4.687
91114SOL    HW275176  11.569   5.072   4.551
91115SOL     OW75177  12.029  10.637   8.532
91115SOL    HW175178  12.067  10.643   8.444
91115SOL    HW275179  12.050  10.721   8.573
91116SOL     OW75180  13.441  14.454   3.372
91116SOL    HW175181  13.388  14.490   3.301
91116SOL    HW275182  13.382  14.395   3.419
91117SOL     OW75183   0.155   2.212  13.112
91117SOL    HW175184   0.142   2.275  13.182
91117SOL    HW275185   0.209   2.143  13.151
91118SOL     OW75186   6.157   2.088   3.550
91118SOL    HW175187   6.090   2.071   3.616
91118SOL    HW275188   6.237   2.049   3.586
91119SOL     OW75189  10.723   3.682   1.890
91119SOL    HW175190  10.774   3.721   1.819
91119SOL    HW275191  10.787   3.665   1.959
91120SOL     OW75192   6.302  12.416  13.188
91120SOL    HW175193   6.241  12.370  13.130
91120SOL    HW275194   6.257  12.496  13.212
91121SOL     OW75195   8.651  12.773   9.795
91121SOL    HW175196   8.598  12.826   9.854
91121SOL    HW275197   8.624  12.683   9.812
91122SOL     OW75198   1.008  11.089  13.966
91122SOL    HW175199   0.937  11.101  14.029
91122SOL    HW275200   1.087  11.116  14.013
91123SOL     OW75201   7.462  14.724   5.333
91123SOL    HW175202   7.451  14.642   5.285
91123SOL    HW275203   7.378  14.769   5.323
91124SOL     OW75204   0.213   7.089  12.806
91124SOL    HW175205   0.272   7.047  12.869
91124SOL    HW275206   0.164   7.153  12.857
91125SOL     OW75207   0.186  14.706   4.321
91125SOL    HW175208   0.237  14.667   4.393
91125SOL    HW275209   0.153  14.788   4.356
91126SOL     OW75210   1.691  12.090   1.499
91126SOL    HW175211   1.672  12.018   1.439
91126SOL    HW275212   1.710  12.048   1.583
91127SOL     OW75213  10.107  13.559   2.838
91127SOL    HW175214  10.011  13.553   2.846
91127SOL    HW275215  10.140  13.505   2.910
91128SOL     OW75216  10.635   5.017   4.991
91128SOL    HW175217  10.586   5.039   4.912
91128SOL    HW275218  10.726   5.038   4.970
91129SOL     OW75219   6.802   7.873  13.739
91129SOL    HW175220   6.791   7.911  13.651
91129SOL    HW275221   6.775   7.943  13.798
91130SOL     OW75222   0.673   4.371  13.812
91130SOL    HW175223   0.760   4.410  13.826
91130SOL    HW275224   0.677   4.335  13.723
91131SOL     OW75225   8.509   3.217   9.675
91131SOL    HW175226   8.588   3.204   9.622
91131SOL    HW275227   8.475   3.302   9.646
91132SOL     OW75228  11.631   2.065   0.896
91132SOL    HW175229  11.715   2.030   0.927
91132SOL    HW275230  11.603   2.003   0.829
91133SOL     OW75231   5.639   5.878   6.713
91133SOL    HW175232   5.653   5.972   6.727
91133SOL    HW275233   5.725   5.839   6.726
91134SOL     OW75234   2.756  14.749  13.759
91134SOL    HW175235   2.706  14.828  13.778
91134SOL    HW275236   2.848  14.776  13.769
91135SOL     OW75237   1.774   9.665   7.106
91135SOL    HW175238   1.685   9.630   7.111
91135SOL    HW275239   1.793   9.669   7.012
91136SOL     OW75240   3.067   0.070   9.113
91136SOL    HW175241   3.048   0.157   9.079
91136SOL    HW275242   3.161   0.069   9.126
91137SOL     OW75243  12.139   3.833   9.399
91137SOL    HW175244  12.130   3.842   9.304
91137SOL    HW275245  12.109   3.917   9.435
91138SOL     OW75246   9.445   5.334  10.787
91138SOL    HW175247   9.434   5.242  10.763
91138SOL    HW275248   9.363   5.375  10.762
91139SOL     OW75249   2.474   6.361   8.688
91139SOL    HW175250   2.529   6.357   8.610
91139SOL    HW275251   2.431   6.276   8.692
91140SOL     OW75252   9.051   2.770  10.984
91140SOL    HW175253   9.094   2.829  11.046
91140SOL    HW275254   9.075   2.804  10.898
91141SOL     OW75255  14.483   2.514   0.705
91141SOL    HW175256  14.506   2.603   0.676
91141SOL    HW275257  14.559   2.461   0.684
91142SOL     OW75258   3.743  13.243   2.507
91142SOL    HW175259   3.695  13.255   2.425
91142SOL    HW275260   3.823  13.294   2.496
91143SOL     OW75261   0.731  11.030  11.283
91143SOL    HW175262   0.814  11.031  11.330
91143SOL    HW275263   0.724  10.941  11.248
91144SOL     OW75264   8.320   1.654   6.847
91144SOL    HW175265   8.324   1.561   6.824
91144SOL    HW275266   8.233   1.665   6.887
91145SOL     OW75267  11.023  11.696  14.642
91145SOL    HW175268  11.105  11.669  14.601
91145SOL    HW275269  10.965  11.621  14.634
91146SOL     OW75270   6.387  14.140  13.133
91146SOL    HW175271   6.357  14.151  13.224
91146SOL    HW275272   6.417  14.050  13.129
91147SOL     OW75273   3.406   9.344   2.557
91147SOL    HW175274   3.460   9.302   2.490
91147SOL    HW275275   3.392   9.432   2.524
91148SOL     OW75276   9.559   7.258   3.862
91148SOL    HW175277   9.615   7.326   3.897
91148SOL    HW275278   9.610   7.217   3.792
91149SOL     OW75279   3.325   1.179  10.855
91149SOL    HW175280   3.253   1.233  10.887
91149SOL    HW275281   3.368   1.233  10.789
91150SOL     OW75282   3.757  11.393  13.049
91150SOL    HW175283   3.818  11.402  13.123
91150SOL    HW275284   3.672  11.421  13.085
91151SOL     OW75285   6.934   7.646   2.145
91151SOL    HW175286   6.976   7.669   2.228
91151SOL    HW275287   6.841   7.666   2.159
91152SOL     OW75288   7.071  11.043   8.441
91152SOL    HW175289   6.983  11.007   8.451
91152SOL    HW275290   7.127  10.967   8.431
91153SOL     OW75291  12.292  12.783  10.649
91153SOL    HW175292  12.228  12.840  10.605
91153SOL    HW275293  12.320  12.834  10.725
91154SOL     OW75294   7.735   8.278   1.223
91154SOL    HW175295   7.649   8.270   1.265
91154SOL    HW275296   7.769   8.362   1.255
91155SOL     OW75297   9.687   6.201   6.712
91155SOL    HW175298   9.763   6.144   6.698
91155SOL    HW275299   9.702   6.276   6.655
91156SOL     OW75300   6.332  14.366   2.003
91156SOL    HW175301   6.381  14.446   2.026
91156SOL    HW275302   6.247  14.398   1.975
91157SOL     OW75303   7.898   4.029   3.287
91157SOL    HW175304   7.891   4.119   3.257
91157SOL    HW275305   7.899   4.035   3.383
91158SOL     OW75306  13.129   9.721  13.830
91158SOL    HW175307  13.139   9.765  13.746
91158SOL    HW275308  13.087   9.785  13.887
91159SOL     OW75309   2.930   3.611  11.732
91159SOL    HW175310   2.990   3.565  11.791
91159SOL    HW275311   2.881   3.670  11.790
91160SOL     OW75312  10.156   9.285   1.958
91160SOL    HW175313  10.145   9.230   2.036
91160SOL    HW275314  10.118   9.369   1.982
91161SOL     OW75315   0.427  13.869   9.346
91161SOL    HW175316   0.493  13.808   9.314
91161SOL    HW275317   0.345  13.819   9.346
91162SOL     OW75318  14.008  11.975   3.188
91162SOL    HW175319  13.964  12.060   3.189
91162SOL    HW275320  13.938  11.912   3.201
91163SOL     OW75321  10.751   1.813  11.101
91163SOL    HW175322  10.756   1.814  11.005
91163SOL    HW275323  10.658   1.807  11.120
91164SOL     OW75324   3.317   5.578   5.024
91164SOL    HW175325   3.340   5.630   5.100
91164SOL    HW275326   3.401   5.553   4.986
91165SOL     OW75327   9.044   2.575   3.782
91165SOL    HW175328   9.107   2.634   3.741
91165SOL    HW275329   8.965   2.584   3.730
91166SOL     OW75330   5.573   4.616  12.145
91166SOL    HW175331   5.506   4.548  12.155
91166SOL    HW275332   5.552   4.680  12.213
91167SOL     OW75333  14.351   9.688  13.103
91167SOL    HW175334  14.284   9.659  13.041
91167SOL    HW275335  14.426   9.710  13.048
91168SOL     OW75336   1.619  13.575  12.082
91168SOL    HW175337   1.686  13.507  12.089
91168SOL    HW275338   1.648  13.644  12.142
91169SOL     OW75339   9.595   7.743  11.836
91169SOL    HW175340   9.655   7.673  11.811
91169SOL    HW275341   9.649   7.804  11.886
91170SOL     OW75342  11.647   8.181  14.873
91170SOL    HW175343  11.643   8.109  14.810
91170SOL    HW275344  11.728   8.167   0.043
91171SOL     OW75345   3.770   3.212   0.512
91171SOL    HW175346   3.736   3.193   0.600
91171SOL    HW275347   3.811   3.298   0.521
91172SOL     OW75348  12.852   4.888  12.867
91172SOL    HW175349  12.892   4.918  12.786
91172SOL    HW275350  12.902   4.809  12.890
91173SOL     OW75351  13.112  12.039   0.952
91173SOL    HW175352  13.102  11.996   0.867
91173SOL    HW275353  13.039  12.005   1.004
91174SOL     OW75354   1.096  12.631   9.433
91174SOL    HW175355   1.026  12.696   9.432
91174SOL    HW275356   1.170  12.674   9.390
91175SOL     OW75357  12.978   6.624   7.997
91175SOL    HW175358  13.049   6.673   8.038
91175SOL    HW275359  12.913   6.690   7.974
91176SOL     OW75360   7.861   9.928   1.208
91176SOL    HW175361   7.831   9.838   1.196
91176SOL    HW275362   7.818   9.958   1.288
91177SOL     OW75363   5.631  13.897   3.955
91177SOL    HW175364   5.649  13.804   3.964
91177SOL    HW275365   5.636  13.931   4.045
91178SOL     OW75366   6.327  13.032  12.536
91178SOL    HW175367   6.303  13.090  12.464
91178SOL    HW275368   6.422  13.037  12.541
91179SOL     OW75369   0.250   4.740   5.695
91179SOL    HW175370   0.178   4.796   5.667
91179SOL    HW275371   0.231   4.720   5.787
91180SOL     OW75372  10.723  11.344  11.600
91180SOL    HW175373  10.771  11.361  11.681
91180SOL    HW275374  10.659  11.276  11.623
91181SOL     OW75375   4.933  13.682   4.628
91181SOL    HW175376   4.982  13.762   4.607
91181SOL    HW275377   4.992  13.611   4.604
91182SOL     OW75378   6.943   3.153  12.514
91182SOL    HW175379   6.928   3.240  12.477
91182SOL    HW275380   6.965   3.170  12.605
91183SOL     OW75381   7.985   5.534   6.450
91183SOL    HW175382   8.051   5.571   6.509
91183SOL    HW275383   7.988   5.590   6.373
91184SOL     OW75384   5.039   5.458  12.674
91184SOL    HW175385   4.965   5.486  12.621
91184SOL    HW275386   5.038   5.362  12.668
91185SOL     OW75387  13.523  14.388  14.098
91185SOL    HW175388  13.503  14.480  14.111
91185SOL    HW275389  13.504  14.347  14.182
91186SOL     OW75390   0.128   5.006   1.254
91186SOL    HW175391   0.185   5.060   1.199
91186SOL    HW275392   0.189   4.958   1.311
91187SOL     OW75393  11.616   9.597   5.675
91187SOL    HW175394  11.697   9.555   5.643
91187SOL    HW275395  11.647   9.673   5.724
91188SOL     OW75396   5.596  14.489   7.125
91188SOL    HW175397   5.507  14.525   7.128
91188SOL    HW275398   5.630  14.499   7.213
91189SOL     OW75399  13.027   2.188   4.007
91189SOL    HW175400  13.035   2.228   4.093
91189SOL    HW275401  12.953   2.234   3.966
91190SOL     OW75402  14.863   0.079   7.104
91190SOL    HW175403  14.786   0.131   7.079
91190SOL    HW275404   0.043   0.086   7.029
91191SOL     OW75405  12.828   9.243   2.117
91191SOL    HW175406  12.900   9.258   2.178
91191SOL    HW275407  12.854   9.290   2.037
91192SOL     OW75408   0.772   3.185   0.327
91192SOL    HW175409   0.697   3.241   0.346
91192SOL    HW275410   0.813   3.169   0.413
91193SOL     OW75411   5.323  14.037   9.482
91193SOL    HW175412   5.328  14.061   9.575
91193SOL    HW275413   5.278  14.111   9.441
91194SOL     OW75414   4.170   7.005   9.763
91194SOL    HW175415   4.216   6.922   9.774
91194SOL    HW275416   4.087   6.981   9.723
91195SOL     OW75417   4.431  13.122  10.681
91195SOL    HW175418   4.420  13.207  10.638
91195SOL    HW275419   4.360  13.119  10.746
91196SOL     OW75420   8.503  12.835   8.107
91196SOL    HW175421   8.589  12.818   8.069
91196SOL    HW275422   8.521  12.856   8.198
91197SOL     OW75423  13.432   5.729   5.764
91197SOL    HW175424  13.526   5.707   5.758
91197SOL    HW275425  13.420   5.798   5.699
91198SOL     OW75426   8.752   6.805  14.844
91198SOL    HW175427   8.763   6.878  14.783
91198SOL    HW275428   8.835   6.759  14.842
91199SOL     OW75429   6.346  14.248  11.629
91199SOL    HW175430   6.387  14.335  11.628
91199SOL    HW275431   6.416  14.189  11.658
91200SOL     OW75432   7.492   9.597  11.898
91200SOL    HW175433   7.485   9.558  11.811
91200SOL    HW275434   7.447   9.536  11.956
91201SOL     OW75435  13.938   4.084  10.942
91201SOL    HW175436  13.884   4.007  10.925
91201SOL    HW275437  14.027   4.056  10.920
91202SOL     OW75438   4.310   3.270  10.534
91202SOL    HW175439   4.386   3.241  10.483
91202SOL    HW275440   4.240   3.279  10.470
91203SOL     OW75441   2.101  10.315  13.981
91203SOL    HW175442   2.168  10.248  13.973
91203SOL    HW275443   2.021  10.273  13.949
91204SOL     OW75444   1.184   1.849  14.828
91204SOL    HW175445   1.208   1.900   0.027
91204SOL    HW275446   1.248   1.777  14.826
91205SOL     OW75447  11.411  11.193   3.329
91205SOL    HW175448  11.453  11.257   3.385
91205SOL    HW275449  11.345  11.243   3.280
91206SOL     OW75450  10.136   0.101   7.324
91206SOL    HW175451  10.089   0.089   7.241
91206SOL    HW275452  10.169   0.014   7.345
91207SOL     OW75453   4.148  11.757  12.030
91207SOL    HW175454   4.194  11.710  12.099
91207SOL    HW275455   4.061  11.774  12.066
91208SOL     OW75456   4.519   4.512   1.005
91208SOL    HW175457   4.429   4.482   0.991
91208SOL    HW275458   4.512   4.580   1.072
91209SOL     OW75459   6.892   8.731   8.812
91209SOL    HW175460   6.951   8.778   8.753
91209SOL    HW275461   6.946   8.711   8.888
91210SOL     OW75462   6.955   9.023   3.581
91210SOL    HW175463   6.989   9.013   3.670
91210SOL    HW275464   6.931   9.115   3.576
91211SOL     OW75465  10.490  12.691  10.515
91211SOL    HW175466  10.476  12.659  10.426
91211SOL    HW275467  10.471  12.615  10.570
91212SOL     OW75468  13.190   8.787   9.383
91212SOL    HW175469  13.179   8.777   9.288
91212SOL    HW275470  13.105   8.763   9.419
91213SOL     OW75471   9.384   2.448   8.910
91213SOL    HW175472   9.455   2.511   8.898
91213SOL    HW275473   9.393   2.419   9.001
91214SOL     OW75474   5.365  12.887   7.511
91214SOL    HW175475   5.383  12.928   7.427
91214SOL    HW275476   5.324  12.803   7.488
91215SOL     OW75477  14.083  11.090   6.834
91215SOL    HW175478  14.009  11.044   6.795
91215SOL    HW275479  14.138  11.114   6.760
91216SOL     OW75480   4.773   8.512  12.621
91216SOL    HW175481   4.682   8.497  12.596
91216SOL    HW275482   4.803   8.429  12.657
91217SOL     OW75483  14.249   6.132   5.768
91217SOL    HW175484  14.229   6.226   5.769
91217SOL    HW275485  14.207   6.099   5.848
91218SOL     OW75486   5.452   0.915  10.907
91218SOL    HW175487   5.496   0.839  10.869
91218SOL    HW275488   5.387   0.941  10.841
91219SOL     OW75489   6.068   2.745   5.570
91219SOL    HW175490   6.067   2.839   5.590
91219SOL    HW275491   6.096   2.740   5.479
91220SOL     OW75492  12.221   4.703   0.332
91220SOL    HW175493  12.294   4.680   0.274
91220SOL    HW275494  12.207   4.796   0.317
91221SOL     OW75495   9.812  14.315   8.710
91221SOL    HW175496   9.775  14.300   8.797
91221SOL    HW275497   9.793  14.236   8.661
91222SOL     OW75498   0.684   8.522  12.810
91222SOL    HW175499   0.776   8.547  12.817
91222SOL    HW275500   0.681   8.465  12.734
91223SOL     OW75501   3.448   7.382   9.136
91223SOL    HW175502   3.493   7.336   9.066
91223SOL    HW275503   3.360   7.399   9.102
91224SOL     OW75504   7.236   6.745  12.608
91224SOL    HW175505   7.165   6.803  12.580
91224SOL    HW275506   7.314   6.781  12.567
91225SOL     OW75507   3.038   6.863  13.211
91225SOL    HW175508   3.028   6.958  13.215
91225SOL    HW275509   3.130   6.849  13.192
91226SOL     OW75510   9.464   3.889  13.171
91226SOL    HW175511   9.553   3.923  13.174
91226SOL    HW275512   9.459   3.841  13.088
91227SOL     OW75513   1.001   6.665   9.924
91227SOL    HW175514   0.991   6.621   9.840
91227SOL    HW275515   1.085   6.634   9.958
91228SOL     OW75516   0.576  14.432  10.887
91228SOL    HW175517   0.572  14.379  10.966
91228SOL    HW275518   0.618  14.376  10.822
91229SOL     OW75519   6.040   6.037   7.987
91229SOL    HW175520   6.032   6.051   7.892
91229SOL    HW275521   6.080   6.118   8.019
91230SOL     OW75522   8.042   7.048  12.070
91230SOL    HW175523   8.051   7.054  11.975
91230SOL    HW275524   7.988   6.971  12.085
91231SOL     OW75525   7.520   3.304   4.811
91231SOL    HW175526   7.522   3.208   4.812
91231SOL    HW275527   7.433   3.326   4.845
91232SOL     OW75528   8.631   6.333  10.000
91232SOL    HW175529   8.702   6.270   9.990
91232SOL    HW275530   8.560   6.298   9.947
91233SOL     OW75531  12.054   3.086  13.404
91233SOL    HW175532  11.995   3.034  13.458
91233SOL    HW275533  12.043   3.050  13.316
91234SOL     OW75534   2.831  13.065   8.256
91234SOL    HW175535   2.884  13.010   8.198
91234SOL    HW275536   2.755  13.088   8.203
91235SOL     OW75537   3.917   6.041   8.001
91235SOL    HW175538   3.932   5.973   8.066
91235SOL    HW275539   3.827   6.070   8.016
91236SOL     OW75540   8.408   1.080   1.713
91236SOL    HW175541   8.400   1.171   1.741
91236SOL    HW275542   8.498   1.056   1.736
91237SOL     OW75543   6.452   5.783   2.381
91237SOL    HW175544   6.426   5.703   2.335
91237SOL    HW275545   6.384   5.847   2.358
91238SOL     OW75546  13.992  14.279   3.164
91238SOL    HW175547  13.896  14.285   3.162
91238SOL    HW275548  14.012  14.198   3.116
91239SOL     OW75549  10.006   8.558   3.203
91239SOL    HW175550  10.058   8.537   3.126
91239SOL    HW275551   9.957   8.637   3.178
91240SOL     OW75552   3.731   8.207   3.012
91240SOL    HW175553   3.654   8.230   3.065
91240SOL    HW275554   3.724   8.263   2.935
91241SOL     OW75555   5.964   1.587   6.161
91241SOL    HW175556   6.051   1.613   6.192
91241SOL    HW275557   5.936   1.520   6.224
91242SOL     OW75558   4.125   6.294   1.375
91242SOL    HW175559   4.063   6.356   1.414
91242SOL    HW275560   4.206   6.308   1.423
91243SOL     OW75561  13.735   4.073   6.357
91243SOL    HW175562  13.663   4.119   6.314
91243SOL    HW275563  13.741   4.112   6.444
91244SOL     OW75564   8.932   9.548   5.061
91244SOL    HW175565   8.896   9.491   5.129
91244SOL    HW275566   8.954   9.629   5.107
91245SOL     OW75567   5.009  14.660   9.491
91245SOL    HW175568   4.920  14.694   9.489
91245SOL    HW275569   5.013  14.595   9.421
91246SOL     OW75570   9.653   3.274   0.232
91246SOL    HW175571   9.594   3.309   0.298
91246SOL    HW275572   9.700   3.350   0.198
91247SOL     OW75573   6.817   5.244  11.845
91247SOL    HW175574   6.846   5.185  11.776
91247SOL    HW275575   6.729   5.271  11.818
91248SOL     OW75576  11.765   1.915   0.460
91248SOL    HW175577  11.757   1.821   0.473
91248SOL    HW275578  11.678   1.943   0.432
91249SOL     OW75579   2.530   5.711   5.273
91249SOL    HW175580   2.573   5.781   5.322
91249SOL    HW275581   2.476   5.758   5.208
91250SOL     OW75582   0.268  10.896   1.671
91250SOL    HW175583   0.258  10.968   1.734
91250SOL    HW275584   0.232  10.930   1.589
91251SOL     OW75585  14.120  14.624  10.678
91251SOL    HW175586  14.072  14.608  10.759
91251SOL    HW275587  14.061  14.592  10.609
91252SOL     OW75588   0.776   3.053   9.034
91252SOL    HW175589   0.811   3.131   8.991
91252SOL    HW275590   0.759   3.080   9.124
91253SOL     OW75591  11.926   5.437  13.083
91253SOL    HW175592  11.912   5.532  13.089
91253SOL    HW275593  11.902   5.415  12.993
91254SOL     OW75594  12.814   6.028   9.319
91254SOL    HW175595  12.864   6.019   9.400
91254SOL    HW275596  12.759   6.105   9.334
91255SOL     OW75597   6.213   4.469   6.837
91255SOL    HW175598   6.286   4.528   6.851
91255SOL    HW275599   6.149   4.520   6.787
91256SOL     OW75600   0.141   8.601   4.356
91256SOL    HW175601   0.168   8.514   4.386
91256SOL    HW275602   0.200   8.662   4.400
91257SOL     OW75603   0.850   1.745   3.145
91257SOL    HW175604   0.794   1.731   3.222
91257SOL    HW275605   0.893   1.828   3.161
91258SOL     OW75606   6.750   8.503  14.672
91258SOL    HW175607   6.783   8.576  14.621
91258SOL    HW275608   6.823   8.441  14.675
91259SOL     OW75609   6.841   8.916   6.852
91259SOL    HW175610   6.851   8.909   6.947
91259SOL    HW275611   6.899   8.848   6.817
91260SOL     OW75612  11.148  12.390   3.808
91260SOL    HW175613  11.099  12.313   3.779
91260SOL    HW275614  11.234  12.381   3.767
91261SOL     OW75615   6.043  11.263   6.493
91261SOL    HW175616   6.083  11.331   6.439
91261SOL    HW275617   5.952  11.290   6.503
91262SOL     OW75618   6.703  11.674   8.407
91262SOL    HW175619   6.620  11.649   8.447
91262SOL    HW275620   6.752  11.716   8.478
91263SOL     OW75621   6.195   9.702   0.447
91263SOL    HW175622   6.288   9.689   0.432
91263SOL    HW275623   6.162   9.615   0.471
91264SOL     OW75624   8.116   1.934   8.777
91264SOL    HW175625   8.031   1.952   8.817
91264SOL    HW275626   8.178   1.990   8.823
91265SOL     OW75627  10.819   9.308   5.721
91265SOL    HW175628  10.881   9.289   5.791
91265SOL    HW275629  10.765   9.379   5.757
91266SOL     OW75630   8.778  14.498   5.980
91266SOL    HW175631   8.734  14.416   6.003
91266SOL    HW275632   8.746  14.518   5.892
91267SOL     OW75633   6.103   1.485   7.217
91267SOL    HW175634   6.139   1.508   7.302
91267SOL    HW275635   6.039   1.416   7.237
91268SOL     OW75636  11.884  14.510   7.490
91268SOL    HW175637  11.862  14.603   7.479
91268SOL    HW275638  11.957  14.510   7.552
91269SOL     OW75639   1.414   0.810   3.689
91269SOL    HW175640   1.394   0.894   3.649
91269SOL    HW275641   1.348   0.800   3.758
91270SOL     OW75642   8.336   2.772  13.314
91270SOL    HW175643   8.336   2.711  13.240
91270SOL    HW275644   8.244   2.798  13.323
91271SOL     OW75645   6.496   0.942  10.240
91271SOL    HW175646   6.585   0.976  10.239
91271SOL    HW275647   6.464   0.955  10.150
91272SOL     OW75648  12.903   7.771  13.962
91272SOL    HW175649  12.830   7.801  14.016
91272SOL    HW275650  12.938   7.852  13.924
91273SOL     OW75651   7.063   4.764   7.754
91273SOL    HW175652   7.077   4.801   7.842
91273SOL    HW275653   6.997   4.696   7.766
91274SOL     OW75654   3.130   1.064   3.122
91274SOL    HW175655   3.037   1.044   3.109
91274SOL    HW275656   3.130   1.139   3.181
91275SOL     OW75657   0.703   7.024  10.020
91275SOL    HW175658   0.630   6.999  10.077
91275SOL    HW275659   0.708   6.955   9.955
91276SOL     OW75660   3.082   1.939   4.378
91276SOL    HW175661   3.051   1.966   4.291
91276SOL    HW275662   3.079   1.844   4.376
91277SOL     OW75663   6.825   3.087   2.421
91277SOL    HW175664   6.828   3.125   2.333
91277SOL    HW275665   6.858   3.157   2.478
91278SOL     OW75666   7.675   0.328  13.696
91278SOL    HW175667   7.691   0.421  13.680
91278SOL    HW275668   7.600   0.326  13.755
91279SOL     OW75669  12.321  13.016   0.629
91279SOL    HW175670  12.278  12.946   0.678
91279SOL    HW275671  12.361  13.071   0.696
91280SOL     OW75672   8.720   6.512   6.294
91280SOL    HW175673   8.685   6.594   6.259
91280SOL    HW275674   8.655   6.484   6.358
91281SOL     OW75675  13.767  13.503   5.419
91281SOL    HW175676  13.688  13.492   5.367
91281SOL    HW275677  13.740  13.485   5.509
91282SOL     OW75678   2.692  11.298  11.154
91282SOL    HW175679   2.613  11.324  11.201
91282SOL    HW275680   2.677  11.207  11.130
91283SOL     OW75681   5.795   6.821   4.399
91283SOL    HW175682   5.822   6.816   4.308
91283SOL    HW275683   5.837   6.746   4.441
91284SOL     OW75684  12.510   3.727   3.199
91284SOL    HW175685  12.450   3.653   3.213
91284SOL    HW275686  12.585   3.688   3.153
91285SOL     OW75687   0.058   8.216  13.912
91285SOL    HW175688   0.146   8.253  13.913
91285SOL    HW275689   0.057   8.155  13.986
91286SOL     OW75690   5.671   1.841   7.766
91286SOL    HW175691   5.679   1.883   7.852
91286SOL    HW275692   5.590   1.877   7.729
91287SOL     OW75693   2.712   8.681   9.780
91287SOL    HW175694   2.680   8.593   9.804
91287SOL    HW275695   2.806   8.669   9.767
91288SOL     OW75696  10.496   9.618   5.362
91288SOL    HW175697  10.579   9.656   5.333
91288SOL    HW275698  10.492   9.533   5.319
91289SOL     OW75699  10.821   5.030   0.551
91289SOL    HW175700  10.777   4.945   0.549
91289SOL    HW275701  10.902   5.016   0.502
91290SOL     OW75702   3.510   7.166   3.739
91290SOL    HW175703   3.449   7.233   3.771
91290SOL    HW275704   3.571   7.154   3.812
91291SOL     OW75705  10.806  11.389   3.474
91291SOL    HW175706  10.738  11.328   3.448
91291SOL    HW275707  10.883  11.334   3.489
91292SOL     OW75708   1.408  14.344   4.175
91292SOL    HW175709   1.314  14.333   4.187
91292SOL    HW275710   1.446  14.316   4.258
91293SOL     OW75711   9.124  13.256   6.714
91293SOL    HW175712   9.124  13.257   6.809
91293SOL    HW275713   9.036  13.226   6.691
91294SOL     OW75714   5.726  14.786  12.155
91294SOL    HW175715   5.802  14.735  12.183
91294SOL    HW275716   5.717  14.767  12.062
91295SOL     OW75717   2.095  14.566   1.303
91295SOL    HW175718   2.105  14.474   1.277
91295SOL    HW275719   2.020  14.598   1.253
91296SOL     OW75720  12.877   2.803   1.668
91296SOL    HW175721  12.853   2.712   1.649
91296SOL    HW275722  12.851   2.852   1.591
91297SOL     OW75723   6.336   2.316   7.304
91297SOL    HW175724   6.293   2.383   7.357
91297SOL    HW275725   6.277   2.241   7.307
91298SOL     OW75726   3.203  10.222   9.213
91298SOL    HW175727   3.137  10.184   9.155
91298SOL    HW275728   3.154  10.254   9.288
91299SOL     OW75729   1.594   3.092   3.636
91299SOL    HW175730   1.513   3.072   3.589
91299SOL    HW275731   1.610   3.185   3.619
91300SOL     OW75732   3.249   1.243  11.408
91300SOL    HW175733   3.287   1.179  11.467
91300SOL    HW275734   3.230   1.319  11.463
91301SOL     OW75735   5.713  11.551   1.264
91301SOL    HW175736   5.744  11.477   1.317
91301SOL    HW275737   5.623  11.528   1.241
91302SOL     OW75738  12.453  14.842  13.405
91302SOL    HW175739  12.511   0.006  13.342
91302SOL    HW275740  12.366  14.849  13.366
91303SOL     OW75741  11.809   4.289   8.667
91303SOL    HW175742  11.780   4.283   8.576
91303SOL    HW275743  11.751   4.354   8.706
91304SOL     OW75744   0.375   8.074   7.573
91304SOL    HW175745   0.462   8.075   7.535
91304SOL    HW275746   0.320   8.031   7.508
91305SOL     OW75747   5.245   5.518  10.938
91305SOL    HW175748   5.312   5.510  11.006
91305SOL    HW275749   5.294   5.539  10.858
91306SOL     OW75750   7.635   0.203  11.963
91306SOL    HW175751   7.730   0.200  11.974
91306SOL    HW275752   7.601   0.138  12.025
91307SOL     OW75753   5.124  12.789   9.904
91307SOL    HW175754   5.155  12.702   9.879
91307SOL    HW275755   5.137  12.842   9.826
91308SOL     OW75756  12.805   1.372  14.423
91308SOL    HW175757  12.808   1.345  14.331
91308SOL    HW275758  12.712   1.386  14.441
91309SOL     OW75759  12.451  10.944  11.999
91309SOL    HW175760  12.408  10.940  11.914
91309SOL    HW275761  12.495  11.028  12.000
91310SOL     OW75762   4.232   8.505  11.497
91310SOL    HW175763   4.282   8.524  11.576
91310SOL    HW275764   4.288   8.534  11.425
91311SOL     OW75765   0.656  12.217  10.647
91311SOL    HW175766   0.579  12.267  10.621
91311SOL    HW275767   0.655  12.139  10.591
91312SOL     OW75768  14.310   2.308   0.756
91312SOL    HW175769  14.216   2.314   0.771
91312SOL    HW275770  14.339   2.399   0.749
91313SOL     OW75771  11.462  14.458   7.445
91313SOL    HW175772  11.394  14.516   7.410
91313SOL    HW275773  11.514  14.432   7.369
91314SOL     OW75774   6.219  10.477   9.931
91314SOL    HW175775   6.267  10.551   9.970
91314SOL    HW275776   6.276  10.401   9.946
91315SOL     OW75777   4.554  10.876   9.339
91315SOL    HW175778   4.552  10.913   9.251
91315SOL    HW275779   4.642  10.895   9.372
91316SOL     OW75780   9.936   3.793   1.456
91316SOL    HW175781   9.903   3.733   1.523
91316SOL    HW275782  10.016   3.830   1.494
91317SOL     OW75783   8.871  13.524   6.659
91317SOL    HW175784   8.897  13.498   6.571
91317SOL    HW275785   8.786  13.566   6.648
91318SOL     OW75786   8.094  10.602   5.390
91318SOL    HW175787   8.173  10.566   5.430
91318SOL    HW275788   8.047  10.644   5.462
91319SOL     OW75789  14.484   3.783  12.028
91319SOL    HW175790  14.430   3.772  11.950
91319SOL    HW275791  14.444   3.856  12.076
91320SOL     OW75792   5.405   3.557   7.722
91320SOL    HW175793   5.440   3.567   7.633
91320SOL    HW275794   5.455   3.619   7.775
91321SOL     OW75795   6.267  12.771   4.162
91321SOL    HW175796   6.198  12.707   4.180
91321SOL    HW275797   6.240  12.812   4.079
91322SOL     OW75798   3.706   4.339  10.370
91322SOL    HW175799   3.640   4.326  10.438
91322SOL    HW275800   3.662   4.391  10.304
91323SOL     OW75801  13.369   0.282   6.138
91323SOL    HW175802  13.289   0.312   6.180
91323SOL    HW275803  13.422   0.361   6.126
91324SOL     OW75804  12.185   7.662  10.171
91324SOL    HW175805  12.215   7.642  10.260
91324SOL    HW275806  12.266   7.669  10.120
91325SOL     OW75807   7.428   8.935  14.116
91325SOL    HW175808   7.429   8.841  14.096
91325SOL    HW275809   7.497   8.946  14.182
91326SOL     OW75810  13.687   9.709  12.686
91326SOL    HW175811  13.629   9.643  12.725
91326SOL    HW275812  13.683   9.692  12.592
91327SOL     OW75813   2.997   4.640  11.212
91327SOL    HW175814   2.915   4.659  11.167
91327SOL    HW275815   2.989   4.683  11.297
91328SOL     OW75816   2.652  10.699  10.193
91328SOL    HW175817   2.615  10.778  10.233
91328SOL    HW275818   2.726  10.732  10.142
91329SOL     OW75819   3.031  14.516   8.795
91329SOL    HW175820   2.975  14.535   8.720
91329SOL    HW275821   3.046  14.601   8.836
91330SOL     OW75822   8.147  11.458  14.150
91330SOL    HW175823   8.242  11.469  14.153
91330SOL    HW275824   8.122  11.492  14.064
91331SOL     OW75825   4.306   8.922   3.091
91331SOL    HW175826   4.235   8.923   3.027
91331SOL    HW275827   4.264   8.947   3.174
91332SOL     OW75828   1.531  10.510  11.108
91332SOL    HW175829   1.614  10.530  11.065
91332SOL    HW275830   1.473  10.582  11.084
91333SOL     OW75831  11.653  11.132  10.203
91333SOL    HW175832  11.608  11.148  10.286
91333SOL    HW275833  11.689  11.043  10.212
91334SOL     OW75834  13.997   5.877   7.916
91334SOL    HW175835  13.968   5.848   8.002
91334SOL    HW275836  13.948   5.822   7.855
91335SOL     OW75837   2.932   5.175   3.161
91335SOL    HW175838   2.949   5.099   3.105
91335SOL    HW275839   2.980   5.247   3.119
91336SOL     OW75840   1.591  13.138   5.821
91336SOL    HW175841   1.571  13.169   5.732
91336SOL    HW275842   1.520  13.079   5.843
91337SOL     OW75843   9.390  12.894   0.352
91337SOL    HW175844   9.432  12.828   0.297
91337SOL    HW275845   9.315  12.924   0.300
91338SOL     OW75846   3.220   1.563   2.823
91338SOL    HW175847   3.234   1.609   2.740
91338SOL    HW275848   3.161   1.491   2.800
91339SOL     OW75849   1.232  13.282   8.690
91339SOL    HW175850   1.204  13.347   8.754
91339SOL    HW275851   1.293  13.329   8.633
91340SOL     OW75852   3.194   3.947  10.079
91340SOL    HW175853   3.278   3.989  10.060
91340SOL    HW275854   3.213   3.853  10.072
91341SOL     OW75855  13.600  10.664   5.003
91341SOL    HW175856  13.676  10.617   4.970
91341SOL    HW275857  13.526  10.627   4.956
91342SOL     OW75858   7.527   7.555  11.057
91342SOL    HW175859   7.609   7.563  11.010
91342SOL    HW275860   7.516   7.461  11.071
91343SOL     OW75861  14.717   1.164   2.394
91343SOL    HW175862  14.725   1.091   2.333
91343SOL    HW275863  14.622   1.179   2.400
91344SOL     OW75864  13.856   3.051   3.165
91344SOL    HW175865  13.932   3.108   3.179
91344SOL    HW275866  13.893   2.962   3.163
91345SOL     OW75867   9.470   4.447  11.829
91345SOL    HW175868   9.505   4.375  11.881
91345SOL    HW275869   9.535   4.517  11.838
91346SOL     OW75870   2.441   6.271   2.192
91346SOL    HW175871   2.416   6.253   2.282
91346SOL    HW275872   2.404   6.358   2.174
91347SOL     OW75873   4.716  10.614   9.513
91347SOL    HW175874   4.806  10.646   9.502
91347SOL    HW275875   4.681  10.608   9.424
91348SOL     OW75876   2.672  10.987   5.685
91348SOL    HW175877   2.733  11.057   5.705
91348SOL    HW275878   2.624  11.017   5.608
91349SOL     OW75879   3.378   7.160  13.198
91349SOL    HW175880   3.456   7.113  13.170
91349SOL    HW275881   3.365   7.136  13.289
91350SOL     OW75882  12.599   2.902  12.223
91350SOL    HW175883  12.580   2.995  12.236
91350SOL    HW275884  12.685   2.890  12.263
91351SOL     OW75885   4.603   1.970   3.407
91351SOL    HW175886   4.618   1.928   3.492
91351SOL    HW275887   4.533   1.918   3.366
91352SOL     OW75888   7.116  12.738   6.702
91352SOL    HW175889   7.094  12.723   6.795
91352SOL    HW275890   7.106  12.833   6.690
91353SOL     OW75891  14.763   5.470   1.162
91353SOL    HW175892  14.748   5.488   1.254
91353SOL    HW275893  14.690   5.414   1.136
91354SOL     OW75894  12.195   6.380   8.483
91354SOL    HW175895  12.208   6.464   8.440
91354SOL    HW275896  12.100   6.371   8.491
91355SOL     OW75897  10.981  12.929  11.297
91355SOL    HW175898  10.944  12.981  11.368
91355SOL    HW275899  11.074  12.951  11.297
91356SOL     OW75900  14.201   8.082  14.258
91356SOL    HW175901  14.261   8.015  14.224
91356SOL    HW275902  14.189   8.142  14.184
91357SOL     OW75903   5.379  11.366  10.903
91357SOL    HW175904   5.310  11.395  10.963
91357SOL    HW275905   5.460  11.375  10.953
91358SOL     OW75906   5.694   5.369   6.397
91358SOL    HW175907   5.770   5.412   6.359
91358SOL    HW275908   5.652   5.436   6.450
91359SOL     OW75909   6.653  10.564   7.849
91359SOL    HW175910   6.637  10.647   7.804
91359SOL    HW275911   6.601  10.569   7.929
91360SOL     OW75912  12.704  14.219  11.344
91360SOL    HW175913  12.686  14.282  11.274
91360SOL    HW275914  12.747  14.145  11.300
91361SOL     OW75915   0.874  12.609   4.629
91361SOL    HW175916   0.838  12.541   4.572
91361SOL    HW275917   0.802  12.633   4.687
91362SOL     OW75918  10.114  13.853   2.891
91362SOL    HW175919  10.108  13.758   2.875
91362SOL    HW275920  10.156  13.860   2.976
91363SOL     OW75921  10.774  12.349   6.887
91363SOL    HW175922  10.793  12.297   6.808
91363SOL    HW275923  10.719  12.420   6.855
91364SOL     OW75924   3.116   8.034   5.822
91364SOL    HW175925   3.156   8.008   5.739
91364SOL    HW275926   3.039   7.977   5.830
91365SOL     OW75927   9.487  11.540   9.628
91365SOL    HW175928   9.498  11.567   9.537
91365SOL    HW275929   9.536  11.604   9.679
91366SOL     OW75930  11.554   3.415   9.254
91366SOL    HW175931  11.487   3.351   9.278
91366SOL    HW275932  11.516   3.500   9.278
91367SOL     OW75933   5.661   2.949  13.472
91367SOL    HW175934   5.628   2.912  13.390
91367SOL    HW275935   5.696   3.034  13.448
91368SOL     OW75936  14.208   3.346   7.886
91368SOL    HW175937  14.293   3.390   7.889
91368SOL    HW275938  14.149   3.405   7.934
91369SOL     OW75939   8.922   4.520   8.248
91369SOL    HW175940   8.977   4.496   8.323
91369SOL    HW275941   8.983   4.561   8.186
91370SOL     OW75942   8.030  10.295   1.974
91370SOL    HW175943   8.092  10.367   1.962
91370SOL    HW275944   8.083  10.216   1.965
91371SOL     OW75945   1.078   1.526   6.507
91371SOL    HW175946   1.148   1.492   6.451
91371SOL    HW275947   1.095   1.486   6.593
91372SOL     OW75948  13.862   3.906   9.683
91372SOL    HW175949  13.907   3.932   9.603
91372SOL    HW275950  13.797   3.976   9.697
91373SOL     OW75951  10.577  11.843  12.998
91373SOL    HW175952  10.529  11.834  12.915
91373SOL    HW275953  10.510  11.841  13.065
91374SOL     OW75954   5.172   2.333   9.856
91374SOL    HW175955   5.137   2.281   9.928
91374SOL    HW275956   5.095   2.360   9.806
91375SOL     OW75957  11.256   0.048   7.307
91375SOL    HW175958  11.282   0.058   7.399
91375SOL    HW275959  11.163   0.025   7.310
91376SOL     OW75960   4.755  10.321   2.154
91376SOL    HW175961   4.840  10.333   2.112
91376SOL    HW275962   4.694  10.371   2.101
91377SOL     OW75963   8.514   6.787   4.088
91377SOL    HW175964   8.562   6.847   4.146
91377SOL    HW275965   8.580   6.757   4.026
91378SOL     OW75966   2.534   0.873   6.825
91378SOL    HW175967   2.523   0.843   6.735
91378SOL    HW275968   2.529   0.968   6.820
91379SOL     OW75969  13.762   4.448   8.081
91379SOL    HW175970  13.809   4.367   8.101
91379SOL    HW275971  13.806   4.483   8.004
91380SOL     OW75972  11.883   8.816   8.653
91380SOL    HW175973  11.961   8.861   8.621
91380SOL    HW275974  11.824   8.886   8.680
91381SOL     OW75975   5.297   2.225   3.190
91381SOL    HW175976   5.224   2.276   3.225
91381SOL    HW275977   5.301   2.147   3.245
91382SOL     OW75978   5.111   4.205  13.524
91382SOL    HW175979   5.131   4.187  13.433
91382SOL    HW275980   5.170   4.276  13.548
91383SOL     OW75981  10.263   2.920   0.380
91383SOL    HW175982  10.210   2.949   0.455
91383SOL    HW275983  10.343   2.886   0.420
91384SOL     OW75984   5.594   0.947  12.061
91384SOL    HW175985   5.565   0.898  11.984
91384SOL    HW275986   5.637   0.882  12.117
91385SOL     OW75987   7.602   4.063   0.654
91385SOL    HW175988   7.573   4.010   0.728
91385SOL    HW275989   7.620   3.999   0.584
91386SOL     OW75990   4.875   6.642   1.619
91386SOL    HW175991   4.816   6.618   1.547
91386SOL    HW275992   4.843   6.592   1.694
91387SOL     OW75993  12.168  14.465   7.537
91387SOL    HW175994  12.178  14.477   7.443
91387SOL    HW275995  12.186  14.372   7.552
91388SOL     OW75996   7.677  13.587   3.329
91388SOL    HW175997   7.721  13.522   3.384
91388SOL    HW275998   7.584  13.562   3.332
91389SOL     OW75999   5.961   8.183   9.072
91389SOL    HW176000   5.879   8.193   9.024
91389SOL    HW276001   6.027   8.162   9.006
91390SOL     OW76002   5.481   4.525   4.669
91390SOL    HW176003   5.492   4.618   4.649
91390SOL    HW276004   5.419   4.493   4.603
91391SOL     OW76005  14.054   1.612   4.769
91391SOL    HW176006  13.984   1.652   4.718
91391SOL    HW276007  14.059   1.522   4.736
91392SOL     OW76008   7.514   2.129   1.563
91392SOL    HW176009   7.515   2.050   1.510
91392SOL    HW276010   7.593   2.124   1.616
91393SOL     OW76011   8.337   0.509  11.099
91393SOL    HW176012   8.403   0.555  11.047
91393SOL    HW276013   8.258   0.512  11.045
91394SOL     OW76014  14.608   3.644   1.018
91394SOL    HW176015  14.651   3.715   1.064
91394SOL    HW276016  14.520   3.640   1.055
91395SOL     OW76017   0.322  13.385   2.355
91395SOL    HW176018   0.257  13.318   2.334
91395SOL    HW276019   0.275  13.468   2.347
91396SOL     OW76020   6.947   6.714  13.983
91396SOL    HW176021   6.990   6.642  13.937
91396SOL    HW276022   6.858   6.717  13.947
91397SOL     OW76023  10.643   4.130   2.240
91397SOL    HW176024  10.673   4.172   2.159
91397SOL    HW276025  10.637   4.037   2.218
91398SOL     OW76026   9.625  12.205  10.853
91398SOL    HW176027   9.627  12.122  10.807
91398SOL    HW276028   9.681  12.191  10.930
91399SOL     OW76029   4.583  14.561  12.489
91399SOL    HW176030   4.498  14.571  12.533
91399SOL    HW276031   4.648  14.569  12.559
91400SOL     OW76032   0.609   3.352  13.401
91400SOL    HW176033   0.605   3.324  13.310
91400SOL    HW276034   0.699   3.335  13.428
91401SOL     OW76035  13.857  14.728   0.869
91401SOL    HW176036  13.896  14.815   0.873
91401SOL    HW276037  13.919  14.672   0.915
91402SOL     OW76038   5.387  14.077   4.983
91402SOL    HW176039   5.303  14.056   4.941
91402SOL    HW276040   5.382  14.032   5.068
91403SOL     OW76041  12.251   7.118   6.482
91403SOL    HW176042  12.251   7.134   6.388
91403SOL    HW276043  12.281   7.028   6.491
91404SOL     OW76044  10.703   2.517  14.534
91404SOL    HW176045  10.713   2.517  14.630
91404SOL    HW276046  10.789   2.543  14.501
91405SOL     OW76047   9.729   7.127   5.165
91405SOL    HW176048   9.646   7.079   5.162
91405SOL    HW276049   9.748   7.134   5.259
91406SOL     OW76050  13.313   3.663   0.900
91406SOL    HW176051  13.395   3.639   0.857
91406SOL    HW276052  13.309   3.606   0.977
91407SOL     OW76053   7.890   3.026   1.278
91407SOL    HW176054   7.844   2.997   1.356
91407SOL    HW276055   7.905   3.120   1.292
91408SOL     OW76056   6.960   9.410   1.101
91408SOL    HW176057   7.026   9.434   1.036
91408SOL    HW276058   6.909   9.340   1.060
91409SOL     OW76059   3.125   1.916  11.025
91409SOL    HW176060   3.094   1.827  11.009
91409SOL    HW276061   3.173   1.911  11.107
91410SOL     OW76062   1.818  13.406  12.131
91410SOL    HW176063   1.896  13.461  12.128
91410SOL    HW276064   1.835  13.344  12.202
91411SOL     OW76065   8.001  10.086   3.782
91411SOL    HW176066   7.917  10.129   3.797
91411SOL    HW276067   7.994  10.049   3.694
91412SOL     OW76068   5.772   1.054   3.534
91412SOL    HW176069   5.852   1.033   3.581
91412SOL    HW276070   5.710   1.082   3.601
91413SOL     OW76071   8.125  14.605   3.015
91413SOL    HW176072   8.112  14.698   3.031
91413SOL    HW276073   8.101  14.592   2.924
91414SOL     OW76074   6.193   7.074   8.341
91414SOL    HW176075   6.251   7.050   8.414
91414SOL    HW276076   6.247   7.126   8.282
91415SOL     OW76077  11.109  11.752  12.834
91415SOL    HW176078  11.102  11.799  12.917
91415SOL    HW276079  11.034  11.780  12.783
91416SOL     OW76080  12.078   5.976   6.320
91416SOL    HW176081  12.119   5.892   6.344
91416SOL    HW276082  12.076   5.974   6.224
91417SOL     OW76083   9.652   3.806   7.645
91417SOL    HW176084   9.679   3.855   7.723
91417SOL    HW276085   9.707   3.727   7.646
91418SOL     OW76086  13.340   4.522   6.973
91418SOL    HW176087  13.366   4.598   6.921
91418SOL    HW276088  13.257   4.494   6.935
91419SOL     OW76089   8.611   1.834   9.427
91419SOL    HW176090   8.536   1.812   9.481
91419SOL    HW276091   8.602   1.928   9.410
91420SOL     OW76092   5.793  12.130   0.911
91420SOL    HW176093   5.787  12.087   0.825
91420SOL    HW276094   5.816  12.220   0.892
91421SOL     OW76095   3.534  13.083   3.590
91421SOL    HW176096   3.573  13.098   3.677
91421SOL    HW276097   3.588  13.137   3.532
91422SOL     OW76098   8.824   6.819  11.130
91422SOL    HW176099   8.888   6.834  11.060
91422SOL    HW276100   8.851   6.736  11.169
91423SOL     OW76101  14.706   8.057   7.042
91423SOL    HW176102  14.699   8.050   6.946
91423SOL    HW276103  14.669   7.975   7.074
91424SOL     OW76104  13.920  13.503   6.636
91424SOL    HW176105  13.997  13.534   6.683
91424SOL    HW276106  13.935  13.410   6.624
91425SOL     OW76107   5.840  11.356   9.169
91425SOL    HW176108   5.777  11.292   9.134
91425SOL    HW276109   5.792  11.402   9.238
91426SOL     OW76110   3.716   9.913   9.674
91426SOL    HW176111   3.768   9.865   9.609
91426SOL    HW276112   3.625   9.888   9.656
91427SOL     OW76113   0.665  12.979  14.316
91427SOL    HW176114   0.724  12.965  14.390
91427SOL    HW276115   0.592  12.919  14.332
91428SOL     OW76116   1.665   6.508  11.934
91428SOL    HW176117   1.709   6.540  12.013
91428SOL    HW276118   1.588   6.462  11.966
91429SOL     OW76119   4.081  12.764  11.972
91429SOL    HW176120   4.100  12.760  12.065
91429SOL    HW276121   3.990  12.793  11.967
91430SOL     OW76122  11.453   9.028   4.613
91430SOL    HW176123  11.485   8.944   4.645
91430SOL    HW276124  11.358   9.015   4.603
91431SOL     OW76125   6.535   2.635  10.559
91431SOL    HW176126   6.571   2.614  10.473
91431SOL    HW276127   6.606   2.679  10.605
91432SOL     OW76128   5.308  14.019  13.575
91432SOL    HW176129   5.273  14.067  13.500
91432SOL    HW276130   5.234  14.013  13.636
91433SOL     OW76131  14.513   0.746   4.317
91433SOL    HW176132  14.441   0.755   4.379
91433SOL    HW276133  14.494   0.664   4.271
91434SOL     OW76134   3.978  13.300   2.200
91434SOL    HW176135   3.958  13.234   2.134
91434SOL    HW276136   4.069  13.324   2.183
91435SOL     OW76137   9.238   1.686  13.808
91435SOL    HW176138   9.285   1.748  13.863
91435SOL    HW276139   9.264   1.600  13.842
91436SOL     OW76140   5.067   5.568   6.679
91436SOL    HW176141   4.994   5.571   6.618
91436SOL    HW276142   5.068   5.656   6.719
91437SOL     OW76143  10.818   5.792   0.372
91437SOL    HW176144  10.909   5.796   0.402
91437SOL    HW276145  10.785   5.881   0.384
91438SOL     OW76146   4.563   2.791   6.802
91438SOL    HW176147   4.541   2.846   6.727
91438SOL    HW276148   4.486   2.797   6.859
91439SOL     OW76149   9.106   7.814   9.250
91439SOL    HW176150   9.025   7.764   9.262
91439SOL    HW276151   9.151   7.770   9.179
91440SOL     OW76152   8.532   9.307   0.986
91440SOL    HW176153   8.564   9.382   0.936
91440SOL    HW276154   8.445   9.290   0.950
91441SOL     OW76155   6.499  11.088   4.356
91441SOL    HW176156   6.438  11.120   4.423
91441SOL    HW276157   6.574  11.147   4.361
91442SOL     OW76158   3.243  11.492   1.140
91442SOL    HW176159   3.205  11.549   1.207
91442SOL    HW276160   3.292  11.426   1.189
91443SOL     OW76161   9.305  14.208   9.242
91443SOL    HW176162   9.339  14.255   9.318
91443SOL    HW276163   9.375  14.147   9.219
91444SOL     OW76164   8.225   3.939   0.427
91444SOL    HW176165   8.267   4.019   0.459
91444SOL    HW276166   8.133   3.948   0.451
91445SOL     OW76167   9.434   4.289  12.578
91445SOL    HW176168   9.494   4.349  12.623
91445SOL    HW276169   9.438   4.315  12.486
91446SOL     OW76170   8.602  13.464   5.078
91446SOL    HW176171   8.576  13.427   5.163
91446SOL    HW276172   8.663  13.400   5.042
91447SOL     OW76173   7.004  11.946  10.190
91447SOL    HW176174   6.938  12.012  10.168
91447SOL    HW276175   7.050  11.982  10.266
91448SOL     OW76176   3.281   6.609  13.332
91448SOL    HW176177   3.306   6.661  13.256
91448SOL    HW276178   3.362   6.600  13.383
91449SOL     OW76179   7.454   8.713  12.340
91449SOL    HW176180   7.435   8.731  12.432
91449SOL    HW276181   7.489   8.624  12.339
91450SOL     OW76182   1.841   1.993  10.094
91450SOL    HW176183   1.867   1.981  10.003
91450SOL    HW276184   1.787   2.072  10.093
91451SOL     OW76185  12.273  13.794   2.958
91451SOL    HW176186  12.193  13.838   2.984
91451SOL    HW276187  12.341  13.834   3.013
91452SOL     OW76188   3.233   3.995   2.478
91452SOL    HW176189   3.278   4.068   2.521
91452SOL    HW276190   3.141   4.022   2.476
91453SOL     OW76191   0.064  14.802  11.946
91453SOL    HW176192   0.121  14.842  11.881
91453SOL    HW276193   0.008  14.873  11.976
91454SOL     OW76194   4.960  10.104   1.301
91454SOL    HW176195   4.911  10.022   1.298
91454SOL    HW276196   5.050  10.080   1.276
91455SOL     OW76197  14.183   2.564   1.820
91455SOL    HW176198  14.110   2.616   1.786
91455SOL    HW276199  14.258   2.589   1.766
91456SOL     OW76200   5.889  10.382   2.883
91456SOL    HW176201   5.832  10.386   2.806
91456SOL    HW276202   5.849  10.443   2.946
91457SOL     OW76203   0.952   2.480   8.211
91457SOL    HW176204   0.945   2.520   8.125
91457SOL    HW276205   0.875   2.509   8.258
91458SOL     OW76206   5.464   2.299  10.286
91458SOL    HW176207   5.424   2.216  10.261
91458SOL    HW276208   5.452   2.304  10.381
91459SOL     OW76209   4.432   9.370   2.542
91459SOL    HW176210   4.435   9.355   2.447
91459SOL    HW276211   4.366   9.439   2.553
91460SOL     OW76212   2.110   6.604   4.262
91460SOL    HW176213   2.035   6.651   4.225
91460SOL    HW276214   2.185   6.659   4.241
91461SOL     OW76215   1.491  12.950   3.459
91461SOL    HW176216   1.494  13.037   3.418
91461SOL    HW276217   1.562  12.950   3.522
91462SOL     OW76218  12.041  13.696   6.106
91462SOL    HW176219  11.946  13.708   6.105
91462SOL    HW276220  12.055  13.619   6.161
91463SOL     OW76221   4.068   6.982   3.093
91463SOL    HW176222   4.110   6.965   3.009
91463SOL    HW276223   4.093   7.072   3.114
91464SOL     OW76224   8.480   1.758   2.762
91464SOL    HW176225   8.455   1.813   2.835
91464SOL    HW276226   8.399   1.742   2.714
91465SOL     OW76227   4.472   9.252   1.917
91465SOL    HW176228   4.563   9.282   1.922
91465SOL    HW276229   4.457   9.206   2.000
91466SOL     OW76230   0.267   9.305   1.774
91466SOL    HW176231   0.315   9.336   1.697
91466SOL    HW276232   0.294   9.363   1.845
91467SOL     OW76233   8.564   3.703   6.185
91467SOL    HW176234   8.519   3.673   6.264
91467SOL    HW276235   8.551   3.797   6.184
91468SOL     OW76236   5.925   3.139  11.891
91468SOL    HW176237   5.922   3.183  11.975
91468SOL    HW276238   5.958   3.051  11.910
91469SOL     OW76239  12.694  14.662   4.229
91469SOL    HW176240  12.621  14.721   4.212
91469SOL    HW276241  12.727  14.689   4.315
91470SOL     OW76242   5.862   0.629   4.941
91470SOL    HW176243   5.919   0.566   4.984
91470SOL    HW276244   5.873   0.612   4.847
91471SOL     OW76245   0.931  14.432  13.060
91471SOL    HW176246   0.923  14.525  13.078
91471SOL    HW276247   0.999  14.426  12.993
91472SOL     OW76248   3.052   5.806   6.853
91472SOL    HW176249   3.086   5.717   6.842
91472SOL    HW276250   2.971   5.808   6.801
91473SOL     OW76251   5.002   2.357   6.265
91473SOL    HW176252   5.015   2.311   6.347
91473SOL    HW276253   4.921   2.407   6.278
91474SOL     OW76254   8.807   8.702   8.217
91474SOL    HW176255   8.764   8.694   8.132
91474SOL    HW276256   8.753   8.648   8.276
91475SOL     OW76257  10.522   7.412  10.422
91475SOL    HW176258  10.474   7.367  10.352
91475SOL    HW276259  10.455   7.456  10.473
91476SOL     OW76260  11.048   5.969   2.227
91476SOL    HW176261  10.981   5.919   2.274
91476SOL    HW276262  11.037   5.943   2.135
91477SOL     OW76263   1.813   2.531  10.811
91477SOL    HW176264   1.760   2.542  10.890
91477SOL    HW276265   1.863   2.612  10.804
91478SOL     OW76266  10.191   1.738  14.728
91478SOL    HW176267  10.232   1.656  14.755
91478SOL    HW276268  10.106   1.712  14.693
91479SOL     OW76269  12.292  14.736  12.231
91479SOL    HW176270  12.209  14.773  12.260
91479SOL    HW276271  12.289  14.644  12.259
91480SOL     OW76272   3.959   4.698   0.778
91480SOL    HW176273   3.917   4.648   0.708
91480SOL    HW276274   3.980   4.782   0.738
91481SOL     OW76275  10.329   3.614   3.750
91481SOL    HW176276  10.325   3.526   3.713
91481SOL    HW276277  10.417   3.645   3.730
91482SOL     OW76278  14.420   0.704   5.604
91482SOL    HW176279  14.493   0.761   5.584
91482SOL    HW276280  14.460   0.618   5.620
91483SOL     OW76281  12.655  13.092   5.221
91483SOL    HW176282  12.747  13.098   5.198
91483SOL    HW276283  12.612  13.157   5.166
91484SOL     OW76284   8.535   9.403   5.291
91484SOL    HW176285   8.584   9.403   5.374
91484SOL    HW276286   8.452   9.445   5.313
91485SOL     OW76287  13.434  10.346  14.090
91485SOL    HW176288  13.520  10.311  14.112
91485SOL    HW276289  13.439  10.367  13.997
91486SOL     OW76290   6.057   9.022   2.447
91486SOL    HW176291   6.143   9.000   2.482
91486SOL    HW276292   5.996   8.963   2.492
91487SOL     OW76293   1.428   4.021  14.558
91487SOL    HW176294   1.347   4.022  14.507
91487SOL    HW276295   1.419   3.945  14.615
91488SOL     OW76296   2.809   0.097   1.959
91488SOL    HW176297   2.837   0.067   1.873
91488SOL    HW276298   2.714   0.105   1.951
91489SOL     OW76299  12.878   3.401  12.182
91489SOL    HW176300  12.829   3.422  12.262
91489SOL    HW276301  12.969   3.422  12.204
91490SOL     OW76302   1.058   3.794   9.628
91490SOL    HW176303   1.027   3.705   9.610
91490SOL    HW276304   1.059   3.800   9.724
91491SOL     OW76305   3.330  14.758   1.764
91491SOL    HW176306   3.251  14.726   1.808
91491SOL    HW276307   3.298  14.818   1.697
91492SOL     OW76308   8.309   0.313   4.218
91492SOL    HW176309   8.269   0.293   4.303
91492SOL    HW276310   8.236   0.341   4.163
91493SOL     OW76311  10.209   9.353  11.462
91493SOL    HW176312  10.304   9.358  11.460
91493SOL    HW276313  10.188   9.264  11.435
91494SOL     OW76314  11.163   8.320   2.321
91494SOL    HW176315  11.137   8.308   2.412
91494SOL    HW276316  11.084   8.299   2.271
91495SOL     OW76317  12.613   2.413   1.079
91495SOL    HW176318  12.635   2.338   1.135
91495SOL    HW276319  12.681   2.414   1.012
91496SOL     OW76320   9.530   0.033  11.965
91496SOL    HW176321   9.485   0.097  11.910
91496SOL    HW276322   9.461  14.854  11.998
91497SOL     OW76323   2.336   4.461   1.939
91497SOL    HW176324   2.316   4.480   2.030
91497SOL    HW276325   2.347   4.547   1.898
91498SOL     OW76326  12.022   6.826  13.218
91498SOL    HW176327  11.968   6.765  13.168
91498SOL    HW276328  12.042   6.896  13.157
91499SOL     OW76329   5.349  13.834   9.262
91499SOL    HW176330   5.380  13.875   9.344
91499SOL    HW276331   5.256  13.855   9.258
91500SOL     OW76332   9.802  10.883  13.435
91500SOL    HW176333   9.709  10.863  13.437
91500SOL    HW276334   9.810  10.956  13.375
91501SOL     OW76335  14.714   3.011   3.142
91501SOL    HW176336  14.767   3.081   3.103
91501SOL    HW276337  14.750   3.001   3.231
91502SOL     OW76338  10.986   0.903  10.183
91502SOL    HW176339  10.937   0.857  10.252
91502SOL    HW276340  11.062   0.939  10.228
91503SOL     OW76341  10.482   0.003   2.166
91503SOL    HW176342  10.474   0.028   2.074
91503SOL    HW276343  10.555  14.821   2.169
91504SOL     OW76344  13.932  10.157   9.203
91504SOL    HW176345  13.888  10.227   9.155
91504SOL    HW276346  13.875  10.081   9.194
91505SOL     OW76347   3.054   1.229   9.539
91505SOL    HW176348   3.066   1.296   9.472
91505SOL    HW276349   2.999   1.163   9.496
91506SOL     OW76350  10.238   9.405   8.385
91506SOL    HW176351  10.326   9.380   8.359
91506SOL    HW276352  10.191   9.417   8.303
91507SOL     OW76353  14.045  13.737   2.353
91507SOL    HW176354  14.123  13.727   2.299
91507SOL    HW276355  14.070  13.800   2.420
91508SOL     OW76356   8.775  11.753   7.469
91508SOL    HW176357   8.847  11.817   7.467
91508SOL    HW276358   8.755  11.736   7.377
91509SOL     OW76359  11.180   9.340   6.846
91509SOL    HW176360  11.102   9.323   6.898
91509SOL    HW276361  11.157   9.414   6.790
91510SOL     OW76362   7.799   5.276  11.315
91510SOL    HW176363   7.729   5.329  11.277
91510SOL    HW276364   7.828   5.327  11.391
91511SOL     OW76365  14.676  10.036   1.670
91511SOL    HW176366  14.693  10.064   1.760
91511SOL    HW276367  14.742  10.080   1.617
91512SOL     OW76368   5.983   4.961  11.914
91512SOL    HW176369   5.934   4.976  11.833
91512SOL    HW276370   5.921   4.913  11.969
91513SOL     OW76371   1.447   1.808   8.462
91513SOL    HW176372   1.388   1.775   8.395
91513SOL    HW276373   1.417   1.897   8.479
91514SOL     OW76374   5.085  14.397   4.654
91514SOL    HW176375   4.992  14.379   4.641
91514SOL    HW276376   5.130  14.337   4.595
91515SOL     OW76377  11.574   0.387  13.209
91515SOL    HW176378  11.512   0.454  13.178
91515SOL    HW276379  11.631   0.434  13.269
91516SOL     OW76380  10.132  10.719   9.319
91516SOL    HW176381  10.185  10.749   9.393
91516SOL    HW276382  10.175  10.639   9.290
91517SOL     OW76383   8.354  12.162   5.480
91517SOL    HW176384   8.266  12.131   5.501
91517SOL    HW276385   8.381  12.109   5.405
91518SOL     OW76386   1.203   2.402  10.332
91518SOL    HW176387   1.203   2.362  10.419
91518SOL    HW276388   1.210   2.328  10.271
91519SOL     OW76389   2.882   3.595   0.168
91519SOL    HW176390   2.814   3.610   0.234
91519SOL    HW276391   2.862   3.509   0.132
91520SOL     OW76392   6.156  12.148  12.088
91520SOL    HW176393   6.139  12.242  12.096
91520SOL    HW276394   6.100  12.107  12.153
91521SOL     OW76395   3.404   1.819   0.376
91521SOL    HW176396   3.440   1.897   0.334
91521SOL    HW276397   3.426   1.830   0.469
91522SOL     OW76398  12.512  12.741   7.711
91522SOL    HW176399  12.419  12.721   7.704
91522SOL    HW276400  12.528  12.748   7.805
91523SOL     OW76401  11.576   9.582  14.589
91523SOL    HW176402  11.669   9.582  14.612
91523SOL    HW276403  11.574   9.602  14.496
91524SOL     OW76404  11.834   8.322   2.587
91524SOL    HW176405  11.751   8.317   2.540
91524SOL    HW276406  11.896   8.357   2.523
91525SOL     OW76407  12.763  13.597   7.749
91525SOL    HW176408  12.834  13.659   7.732
91525SOL    HW276409  12.778  13.527   7.685
91526SOL     OW76410   1.509   6.241   8.109
91526SOL    HW176411   1.537   6.150   8.099
91526SOL    HW276412   1.481   6.268   8.022
91527SOL     OW76413  12.476   2.174   9.874
91527SOL    HW176414  12.414   2.117   9.827
91527SOL    HW276415  12.501   2.240   9.809
91528SOL     OW76416   4.516   2.756   9.294
91528SOL    HW176417   4.445   2.729   9.236
91528SOL    HW276418   4.472   2.782   9.375
91529SOL     OW76419  10.241   6.997   6.547
91529SOL    HW176420  10.296   6.972   6.473
91529SOL    HW276421  10.155   6.962   6.526
91530SOL     OW76422  13.872  12.404   5.756
91530SOL    HW176423  13.921  12.345   5.813
91530SOL    HW276424  13.788  12.359   5.742
91531SOL     OW76425   8.878  13.504   9.793
91531SOL    HW176426   8.817  13.545   9.732
91531SOL    HW276427   8.953  13.564   9.796
91532SOL     OW76428   3.197   8.894  11.038
91532SOL    HW176429   3.200   8.804  11.071
91532SOL    HW276430   3.286   8.912  11.009
91533SOL     OW76431  12.107  14.549   9.494
91533SOL    HW176432  12.085  14.548   9.400
91533SOL    HW276433  12.121  14.457   9.516
91534SOL     OW76434   7.587   3.125  12.834
91534SOL    HW176435   7.536   3.200  12.803
91534SOL    HW276436   7.667   3.126  12.781
91535SOL     OW76437   0.978   8.991  13.043
91535SOL    HW176438   1.028   8.913  13.067
91535SOL    HW276439   0.894   8.980  13.086
91536SOL     OW76440   3.404   6.009   0.965
91536SOL    HW176441   3.459   5.948   1.014
91536SOL    HW276442   3.460   6.042   0.895
91537SOL     OW76443   2.605  12.141   5.543
91537SOL    HW176444   2.685  12.093   5.523
91537SOL    HW276445   2.540  12.072   5.559
91538SOL     OW76446   3.444   8.507   9.706
91538SOL    HW176447   3.498   8.576   9.668
91538SOL    HW276448   3.371   8.497   9.646
91539SOL     OW76449  11.968  11.393   7.511
91539SOL    HW176450  12.044  11.343   7.481
91539SOL    HW276451  11.991  11.484   7.493
91540SOL     OW76452   5.275   2.982   2.807
91540SOL    HW176453   5.330   3.059   2.796
91540SOL    HW276454   5.333   2.916   2.846
91541SOL     OW76455  12.567  13.814   7.277
91541SOL    HW176456  12.624  13.877   7.233
91541SOL    HW276457  12.506  13.867   7.328
91542SOL     OW76458  14.190   8.612  11.966
91542SOL    HW176459  14.134   8.607  11.889
91542SOL    HW276460  14.279   8.598  11.934
91543SOL     OW76461  14.691   7.618   9.491
91543SOL    HW176462  14.783   7.640   9.501
91543SOL    HW276463  14.663   7.664   9.412
91544SOL     OW76464   8.222  13.017  13.368
91544SOL    HW176465   8.217  12.943  13.428
91544SOL    HW276466   8.140  13.064  13.381
91545SOL     OW76467   6.295   5.124   0.313
91545SOL    HW176468   6.381   5.089   0.336
91545SOL    HW276469   6.311   5.216   0.292
91546SOL     OW76470   2.651  12.323  11.931
91546SOL    HW176471   2.592  12.388  11.969
91546SOL    HW276472   2.645  12.248  11.990
91547SOL     OW76473   0.025  12.878   2.134
91547SOL    HW176474  14.814  12.884   2.164
91547SOL    HW276475   0.023  12.810   2.066
91548SOL     OW76476   2.880  11.885  14.619
91548SOL    HW176477   2.811  11.951  14.625
91548SOL    HW276478   2.835  11.802  14.634
91549SOL     OW76479   5.020   7.033  11.597
91549SOL    HW176480   5.015   7.126  11.575
91549SOL    HW276481   5.099   7.003  11.553
91550SOL     OW76482   1.456   1.981   2.036
91550SOL    HW176483   1.527   2.042   2.018
91550SOL    HW276484   1.417   1.963   1.950
91551SOL     OW76485   8.360  11.104   4.255
91551SOL    HW176486   8.335  11.183   4.304
91551SOL    HW276487   8.444  11.126   4.216
91552SOL     OW76488   3.693   8.432   8.421
91552SOL    HW176489   3.770   8.480   8.391
91552SOL    HW276490   3.704   8.426   8.516
91553SOL     OW76491  14.341   2.568   7.589
91553SOL    HW176492  14.324   2.490   7.642
91553SOL    HW276493  14.405   2.539   7.524
91554SOL     OW76494   9.870   9.598   8.937
91554SOL    HW176495   9.858   9.554   8.853
91554SOL    HW276496   9.798   9.565   8.991
91555SOL     OW76497   5.136   7.430   7.002
91555SOL    HW176498   5.205   7.399   6.943
91555SOL    HW276499   5.055   7.405   6.958
91556SOL     OW76500  13.391   0.298   1.846
91556SOL    HW176501  13.334   0.305   1.923
91556SOL    HW276502  13.477   0.277   1.882
91557SOL     OW76503   9.889   1.903   9.449
91557SOL    HW176504   9.871   1.997   9.441
91557SOL    HW276505   9.974   1.892   9.407
91558SOL     OW76506  12.063   8.878   4.308
91558SOL    HW176507  12.124   8.949   4.330
91558SOL    HW276508  11.986   8.924   4.274
91559SOL     OW76509  12.992   9.008  13.746
91559SOL    HW176510  12.944   9.072  13.694
91559SOL    HW276511  13.077   9.002  13.703
91560SOL     OW76512   8.893   9.602   6.038
91560SOL    HW176513   8.831   9.675   6.041
91560SOL    HW276514   8.876   9.553   6.119
91561SOL     OW76515  10.800   9.846   0.047
91561SOL    HW176516  10.883   9.802   0.028
91561SOL    HW276517  10.825   9.928   0.090
91562SOL     OW76518   3.437   8.241   6.646
91562SOL    HW176519   3.471   8.326   6.622
91562SOL    HW276520   3.412   8.200   6.563
91563SOL     OW76521   7.984   6.488  14.060
91563SOL    HW176522   7.892   6.498  14.085
91563SOL    HW276523   8.030   6.552  14.114
91564SOL     OW76524  12.753   3.626  10.282
91564SOL    HW176525  12.753   3.532  10.299
91564SOL    HW276526  12.826   3.659  10.335
91565SOL     OW76527   5.333   4.505  14.815
91565SOL    HW176528   5.330   4.436  14.749
91565SOL    HW276529   5.425   4.510  14.840
91566SOL     OW76530   3.671   6.160   1.084
91566SOL    HW176531   3.600   6.129   1.028
91566SOL    HW276532   3.742   6.180   1.022
91567SOL     OW76533   4.965  12.552   2.388
91567SOL    HW176534   4.984  12.492   2.460
91567SOL    HW276535   4.990  12.638   2.421
91568SOL     OW76536  10.968   8.573   6.976
91568SOL    HW176537  10.893   8.575   6.916
91568SOL    HW276538  10.976   8.663   7.008
91569SOL     OW76539  13.944  12.089   2.040
91569SOL    HW176540  14.022  12.142   2.026
91569SOL    HW276541  13.879  12.152   2.073
91570SOL     OW76542   3.787  12.344   3.425
91570SOL    HW176543   3.699  12.373   3.404
91570SOL    HW276544   3.778  12.297   3.508
91571SOL     OW76545   8.468   2.649   8.742
91571SOL    HW176546   8.444   2.669   8.651
91571SOL    HW276547   8.561   2.625   8.737
91572SOL     OW76548   6.483   5.917  13.439
91572SOL    HW176549   6.440   5.835  13.466
91572SOL    HW276550   6.487   5.912  13.344
91573SOL     OW76551   9.207  11.443  13.172
91573SOL    HW176552   9.258  11.484  13.102
91573SOL    HW276553   9.231  11.350  13.169
91574SOL     OW76554   2.029  12.467   3.833
91574SOL    HW176555   2.014  12.535   3.767
91574SOL    HW276556   1.978  12.494   3.908
91575SOL     OW76557   6.265   6.815   4.865
91575SOL    HW176558   6.336   6.751   4.857
91575SOL    HW276559   6.305   6.898   4.839
91576SOL     OW76560  13.066   5.286   2.819
91576SOL    HW176561  13.043   5.362   2.766
91576SOL    HW276562  13.098   5.324   2.901
91577SOL     OW76563  10.761  10.738   4.578
91577SOL    HW176564  10.853  10.749   4.556
91577SOL    HW276565  10.714  10.754   4.496
91578SOL     OW76566   9.869   7.388  13.800
91578SOL    HW176567   9.884   7.343  13.883
91578SOL    HW276568   9.865   7.481  13.823
91579SOL     OW76569  10.124   3.207   9.799
91579SOL    HW176570  10.104   3.214   9.892
91579SOL    HW276571  10.207   3.159   9.796
91580SOL     OW76572   5.585   7.005  14.440
91580SOL    HW176573   5.594   7.068  14.512
91580SOL    HW276574   5.493   6.980  14.441
91581SOL     OW76575   0.662  14.701  11.571
91581SOL    HW176576   0.621  14.764  11.513
91581SOL    HW276577   0.609  14.621  11.562
91582SOL     OW76578   0.814   1.939  14.579
91582SOL    HW176579   0.768   2.014  14.615
91582SOL    HW276580   0.780   1.864  14.629
91583SOL     OW76581   7.991  11.358   5.881
91583SOL    HW176582   7.933  11.283   5.898
91583SOL    HW276583   8.056  11.324   5.820
91584SOL     OW76584   1.868   6.661   3.304
91584SOL    HW176585   1.886   6.745   3.346
91584SOL    HW276586   1.895   6.674   3.213
91585SOL     OW76587  11.679  10.641   4.980
91585SOL    HW176588  11.707  10.690   5.057
91585SOL    HW276589  11.590  10.613   5.001
91586SOL     OW76590  10.257  11.235  10.959
91586SOL    HW176591  10.335  11.282  10.931
91586SOL    HW276592  10.224  11.285  11.034
91587SOL     OW76593   2.616   6.016   4.440
91587SOL    HW176594   2.657   5.946   4.390
91587SOL    HW276595   2.614   6.090   4.380
91588SOL     OW76596  10.188   7.880   2.428
91588SOL    HW176597  10.186   7.951   2.492
91588SOL    HW276598  10.105   7.835   2.439
91589SOL     OW76599   5.347  14.249   8.480
91589SOL    HW176600   5.265  14.242   8.530
91589SOL    HW276601   5.411  14.282   8.543
91590SOL     OW76602  12.142   4.743   8.401
91590SOL    HW176603  12.222   4.718   8.354
91590SOL    HW276604  12.170   4.756   8.492
91591SOL     OW76605  11.418   2.587   3.199
91591SOL    HW176606  11.417   2.643   3.277
91591SOL    HW276607  11.326   2.574   3.178
91592SOL     OW76608   5.790   7.416  14.708
91592SOL    HW176609   5.833   7.396  14.792
91592SOL    HW276610   5.863   7.429  14.647
91593SOL     OW76611   3.056   3.787   5.615
91593SOL    HW176612   3.057   3.856   5.681
91593SOL    HW276613   2.963   3.774   5.595
91594SOL     OW76614   9.655   3.473   3.561
91594SOL    HW176615   9.669   3.568   3.560
91594SOL    HW276616   9.715   3.440   3.494
91595SOL     OW76617  14.452   1.214  11.323
91595SOL    HW176618  14.527   1.270  11.303
91595SOL    HW276619  14.478   1.127  11.291
91596SOL     OW76620  11.250   6.681   7.787
91596SOL    HW176621  11.172   6.687   7.843
91596SOL    HW276622  11.239   6.599   7.739
91597SOL     OW76623   8.523  11.824   1.151
91597SOL    HW176624   8.537  11.863   1.065
91597SOL    HW276625   8.428  11.816   1.158
91598SOL     OW76626   0.993   2.630  10.743
91598SOL    HW176627   1.026   2.596  10.660
91598SOL    HW276628   1.025   2.720  10.747
91599SOL     OW76629  10.722  12.637  12.643
91599SOL    HW176630  10.756  12.656  12.731
91599SOL    HW276631  10.695  12.722  12.610
91600SOL     OW76632   1.752  13.702  14.641
91600SOL    HW176633   1.752  13.641  14.714
91600SOL    HW276634   1.821  13.670  14.583
91601SOL     OW76635   2.506   0.950  10.755
91601SOL    HW176636   2.427   0.901  10.778
91601SOL    HW276637   2.569   0.927  10.823
91602SOL     OW76638  13.589   3.759  11.081
91602SOL    HW176639  13.672   3.715  11.101
91602SOL    HW276640  13.613   3.852  11.073
91603SOL     OW76641   1.620   0.201   7.423
91603SOL    HW176642   1.580   0.275   7.469
91603SOL    HW276643   1.574   0.198   7.339
91604SOL     OW76644  11.298  13.302   1.720
91604SOL    HW176645  11.390  13.327   1.713
91604SOL    HW276646  11.277  13.312   1.813
91605SOL     OW76647   8.224   3.357   4.722
91605SOL    HW176648   8.247   3.338   4.813
91605SOL    HW276649   8.201   3.449   4.722
91606SOL     OW76650   1.539  13.906   3.471
91606SOL    HW176651   1.485  13.947   3.539
91606SOL    HW276652   1.476  13.877   3.404
91607SOL     OW76653  12.088   8.368  13.527
91607SOL    HW176654  12.153   8.311  13.486
91607SOL    HW276655  12.083   8.338  13.618
91608SOL     OW76656   8.283  14.427   6.332
91608SOL    HW176657   8.281  14.522   6.322
91608SOL    HW276658   8.370  14.401   6.301
91609SOL     OW76659   6.693   3.970   5.940
91609SOL    HW176660   6.743   3.894   5.910
91609SOL    HW276661   6.675   4.020   5.861
91610SOL     OW76662  11.246   3.277   7.863
91610SOL    HW176663  11.324   3.241   7.821
91610SOL    HW276664  11.198   3.320   7.792
91611SOL     OW76665   0.443   6.784   7.797
91611SOL    HW176666   0.506   6.806   7.865
91611SOL    HW276667   0.494   6.789   7.716
91612SOL     OW76668  11.163   6.260   4.663
91612SOL    HW176669  11.201   6.333   4.712
91612SOL    HW276670  11.232   6.231   4.605
91613SOL     OW76671   4.288   3.080  12.676
91613SOL    HW176672   4.219   3.131  12.632
91613SOL    HW276673   4.292   2.999  12.626
91614SOL     OW76674  13.388   6.258   6.548
91614SOL    HW176675  13.309   6.263   6.493
91614SOL    HW276676  13.375   6.327   6.613
91615SOL     OW76677   8.181   7.171  14.641
91615SOL    HW176678   8.241   7.097  14.647
91615SOL    HW276679   8.113   7.142  14.580
91616SOL     OW76680   8.937   4.079  12.298
91616SOL    HW176681   8.968   3.999  12.254
91616SOL    HW276682   8.864   4.050  12.352
91617SOL     OW76683  12.238   7.634   4.601
91617SOL    HW176684  12.150   7.673   4.602
91617SOL    HW276685  12.243   7.587   4.684
91618SOL     OW76686  12.463   6.765   4.478
91618SOL    HW176687  12.459   6.681   4.432
91618SOL    HW276688  12.532   6.814   4.433
91619SOL     OW76689   7.150   2.214  13.753
91619SOL    HW176690   7.170   2.301  13.719
91619SOL    HW276691   7.087   2.177  13.691
91620SOL     OW76692   9.188  13.514   8.198
91620SOL    HW176693   9.283  13.519   8.186
91620SOL    HW276694   9.172  13.424   8.227
91621SOL     OW76695   3.122   3.716  11.259
91621SOL    HW176696   3.108   3.738  11.351
91621SOL    HW276697   3.044   3.750  11.215
91622SOL     OW76698   0.462   0.852   7.293
91622SOL    HW176699   0.531   0.861   7.228
91622SOL    HW276700   0.494   0.786   7.354
91623SOL     OW76701   7.707   9.902  11.279
91623SOL    HW176702   7.624   9.900  11.232
91623SOL    HW276703   7.714   9.815  11.319
91624SOL     OW76704   8.132   2.332   2.479
91624SOL    HW176705   8.157   2.311   2.569
91624SOL    HW276706   8.037   2.341   2.482
91625SOL     OW76707   4.311   0.277  14.110
91625SOL    HW176708   4.264   0.358  14.090
91625SOL    HW276709   4.308   0.270  14.205
91626SOL     OW76710  11.969   5.892  13.902
91626SOL    HW176711  11.904   5.827  13.929
91626SOL    HW276712  12.051   5.861  13.939
91627SOL     OW76713   1.065  11.846   1.484
91627SOL    HW176714   1.060  11.871   1.576
91627SOL    HW276715   1.127  11.908   1.446
91628SOL     OW76716   9.572   5.251   5.327
91628SOL    HW176717   9.556   5.300   5.408
91628SOL    HW276718   9.522   5.298   5.260
91629SOL     OW76719   4.228   9.871  12.195
91629SOL    HW176720   4.191   9.956  12.218
91629SOL    HW276721   4.297   9.891  12.132
91630SOL     OW76722  10.976   6.433  14.579
91630SOL    HW176723  10.906   6.467  14.635
91630SOL    HW276724  10.936   6.424  14.493
91631SOL     OW76725   8.546   5.539   3.112
91631SOL    HW176726   8.493   5.617   3.096
91631SOL    HW276727   8.629   5.556   3.067
91632SOL     OW76728   0.943  13.374   3.288
91632SOL    HW176729   0.996  13.448   3.262
91632SOL    HW276730   0.856  13.393   3.253
91633SOL     OW76731   9.518   1.629   3.536
91633SOL    HW176732   9.594   1.572   3.551
91633SOL    HW276733   9.553   1.704   3.489
91634SOL     OW76734  12.292  10.829  10.719
91634SOL    HW176735  12.197  10.834  10.732
91634SOL    HW276736  12.305  10.858  10.629
91635SOL     OW76737  12.875   6.001   6.353
91635SOL    HW176738  12.884   6.066   6.423
91635SOL    HW276739  12.933   5.929   6.379
91636SOL     OW76740   5.535  14.865  10.618
91636SOL    HW176741   5.531   0.076  10.650
91636SOL    HW276742   5.492  14.868  10.533
91637SOL     OW76743   5.009   5.573  10.486
91637SOL    HW176744   5.026   5.567  10.392
91637SOL    HW276745   4.971   5.488  10.510
91638SOL     OW76746  12.501   0.547  13.848
91638SOL    HW176747  12.508   0.555  13.753
91638SOL    HW276748  12.554   0.470  13.869
91639SOL     OW76749   6.903  11.027   3.814
91639SOL    HW176750   6.998  11.036   3.811
91639SOL    HW276751   6.888  10.938   3.846
91640SOL     OW76752  10.032  14.083   4.397
91640SOL    HW176753  10.106  14.046   4.349
91640SOL    HW276754   9.967  14.101   4.330
91641SOL     OW76755   9.627   3.998   5.000
91641SOL    HW176756   9.686   3.947   5.056
91641SOL    HW276757   9.615   3.945   4.922
91642SOL     OW76758  12.562  12.453  12.697
91642SOL    HW176759  12.483  12.476  12.746
91642SOL    HW276760  12.542  12.368  12.658
91643SOL     OW76761  14.235  10.116  11.302
91643SOL    HW176762  14.248  10.033  11.256
91643SOL    HW276763  14.313  10.126  11.357
91644SOL     OW76764   1.526   8.902  12.250
91644SOL    HW176765   1.581   8.825  12.236
91644SOL    HW276766   1.572   8.953  12.317
91645SOL     OW76767   3.699  12.349   9.907
91645SOL    HW176768   3.708  12.266   9.954
91645SOL    HW276769   3.612  12.344   9.867
91646SOL     OW76770  12.317  14.773   7.225
91646SOL    HW176771  12.302  14.680   7.243
91646SOL    HW276772  12.385  14.799   7.288
91647SOL     OW76773   6.598   1.524  13.508
91647SOL    HW176774   6.596   1.576  13.428
91647SOL    HW276775   6.546   1.446  13.487
91648SOL     OW76776   3.336  11.180   1.688
91648SOL    HW176777   3.408  11.233   1.723
91648SOL    HW276778   3.351  11.092   1.723
91649SOL     OW76779   4.603   5.208   3.330
91649SOL    HW176780   4.649   5.124   3.328
91649SOL    HW276781   4.602   5.232   3.423
91650SOL     OW76782   1.065   2.887   3.511
91650SOL    HW176783   1.021   2.807   3.539
91650SOL    HW276784   1.064   2.944   3.588
91651SOL     OW76785  11.350  10.928  11.770
91651SOL    HW176786  11.379  10.916  11.680
91651SOL    HW276787  11.374  10.846  11.814
91652SOL     OW76788   6.255   2.819   3.592
91652SOL    HW176789   6.277   2.896   3.539
91652SOL    HW276790   6.179   2.781   3.548
91653SOL     OW76791  13.877  13.709  11.758
91653SOL    HW176792  13.827  13.638  11.719
91653SOL    HW276793  13.860  13.785  11.702
91654SOL     OW76794   1.426   6.352   9.852
91654SOL    HW176795   1.408   6.267   9.892
91654SOL    HW276796   1.416   6.338   9.758
91655SOL     OW76797   2.002   8.245   6.908
91655SOL    HW176798   1.914   8.270   6.936
91655SOL    HW276799   1.997   8.152   6.890
91656SOL     OW76800   4.275   1.908   7.783
91656SOL    HW176801   4.352   1.931   7.730
91656SOL    HW276802   4.312   1.866   7.860
91657SOL     OW76803  10.849   0.675   6.437
91657SOL    HW176804  10.808   0.754   6.401
91657SOL    HW276805  10.899   0.706   6.511
91658SOL     OW76806   0.452   0.660   6.584
91658SOL    HW176807   0.453   0.609   6.666
91658SOL    HW276808   0.388   0.729   6.599
91659SOL     OW76809   4.717  11.371   5.183
91659SOL    HW176810   4.639  11.418   5.213
91659SOL    HW276811   4.750  11.422   5.110
91660SOL     OW76812   9.573  12.028   9.126
91660SOL    HW176813   9.506  12.095   9.138
91660SOL    HW276814   9.599  12.036   9.034
91661SOL     OW76815  12.454   4.595   7.551
91661SOL    HW176816  12.382   4.655   7.535
91661SOL    HW276817  12.433   4.518   7.497
91662SOL     OW76818   9.480   7.276  11.665
91662SOL    HW176819   9.466   7.367  11.693
91662SOL    HW276820   9.467   7.277  11.571
91663SOL     OW76821  11.182   3.519   9.164
91663SOL    HW176822  11.199   3.486   9.253
91663SOL    HW276823  11.251   3.585   9.151
91664SOL     OW76824   3.494  13.552   6.824
91664SOL    HW176825   3.454  13.582   6.906
91664SOL    HW276826   3.573  13.506   6.852
91665SOL     OW76827   1.252   4.846   5.525
91665SOL    HW176828   1.215   4.775   5.474
91665SOL    HW276829   1.345   4.826   5.530
91666SOL     OW76830   4.416   2.058   5.509
91666SOL    HW176831   4.448   1.991   5.450
91666SOL    HW276832   4.423   2.019   5.596
91667SOL     OW76833   0.497   7.890   3.741
91667SOL    HW176834   0.553   7.821   3.704
91667SOL    HW276835   0.548   7.970   3.731
91668SOL     OW76836   6.724  14.028   2.419
91668SOL    HW176837   6.629  14.043   2.424
91668SOL    HW276838   6.746  14.049   2.328
91669SOL     OW76839   6.939  13.841  14.790
91669SOL    HW176840   6.893  13.758  14.805
91669SOL    HW276841   6.879  13.893  14.737
91670SOL     OW76842   4.383   3.488   9.811
91670SOL    HW176843   4.302   3.440   9.830
91670SOL    HW276844   4.414   3.451   9.729
91671SOL     OW76845  14.052  14.503   3.298
91671SOL    HW176846  14.026  14.428   3.245
91671SOL    HW276847  14.017  14.484   3.385
91672SOL     OW76848   6.545   8.880   2.534
91672SOL    HW176849   6.533   8.788   2.511
91672SOL    HW276850   6.457   8.914   2.548
91673SOL     OW76851  12.261  14.756   9.387
91673SOL    HW176852  12.201  14.690   9.423
91673SOL    HW276853  12.219  14.839   9.407
91674SOL     OW76854   1.413   3.816  13.709
91674SOL    HW176855   1.441   3.799  13.799
91674SOL    HW276856   1.479   3.771  13.655
91675SOL     OW76857   8.606   6.228  14.853
91675SOL    HW176858   8.684   6.233  14.797
91675SOL    HW276859   8.570   6.317  14.851
91676SOL     OW76860   5.920   1.558   0.388
91676SOL    HW176861   5.922   1.571   0.293
91676SOL    HW276862   5.922   1.463   0.399
91677SOL     OW76863   5.622   4.969   1.370
91677SOL    HW176864   5.589   4.978   1.460
91677SOL    HW276865   5.666   5.052   1.353
91678SOL     OW76866  12.832  12.653   2.685
91678SOL    HW176867  12.868  12.711   2.752
91678SOL    HW276868  12.909  12.609   2.647
91679SOL     OW76869   0.025   8.195   7.144
91679SOL    HW176870   0.077   8.157   7.215
91679SOL    HW276871  14.840   8.127   7.122
91680SOL     OW76872  14.019  13.813  12.938
91680SOL    HW176873  14.101  13.838  12.895
91680SOL    HW276874  13.993  13.732  12.895
91681SOL     OW76875   4.470   7.671   9.003
91681SOL    HW176876   4.398   7.615   8.975
91681SOL    HW276877   4.441   7.708   9.086
91682SOL     OW76878   6.946   4.563   0.730
91682SOL    HW176879   6.912   4.640   0.775
91682SOL    HW276880   7.036   4.586   0.707
91683SOL     OW76881   8.192  13.034   0.661
91683SOL    HW176882   8.217  12.998   0.746
91683SOL    HW276883   8.101  13.008   0.649
91684SOL     OW76884   6.197   1.812   1.272
91684SOL    HW176885   6.254   1.794   1.347
91684SOL    HW276886   6.155   1.728   1.254
91685SOL     OW76887   6.684   8.950   3.333
91685SOL    HW176888   6.670   8.910   3.419
91685SOL    HW276889   6.768   8.995   3.340
91686SOL     OW76890   4.353   9.723   7.441
91686SOL    HW176891   4.259   9.741   7.432
91686SOL    HW276892   4.373   9.749   7.531
91687SOL     OW76893   7.412  11.332   1.865
91687SOL    HW176894   7.363  11.253   1.845
91687SOL    HW276895   7.469  11.308   1.939
91688SOL     OW76896   4.977  13.206   5.968
91688SOL    HW176897   5.046  13.269   5.988
91688SOL    HW276898   4.994  13.181   5.876
91689SOL     OW76899   3.105   7.787   2.862
91689SOL    HW176900   3.163   7.808   2.788
91689SOL    HW276901   3.153   7.719   2.910
91690SOL     OW76902  10.414  11.629   7.362
91690SOL    HW176903  10.380  11.568   7.428
91690SOL    HW276904  10.351  11.624   7.290
91691SOL     OW76905  14.527  14.004   7.190
91691SOL    HW176906  14.447  14.005   7.136
91691SOL    HW276907  14.584  14.068   7.147
91692SOL     OW76908  12.642  13.700   9.939
91692SOL    HW176909  12.598  13.775   9.897
91692SOL    HW276910  12.667  13.733  10.025
91693SOL     OW76911  10.029   0.822   6.344
91693SOL    HW176912  10.030   0.731   6.316
91693SOL    HW276913  10.121   0.847   6.349
91694SOL     OW76914   3.596   3.268  11.336
91694SOL    HW176915   3.546   3.190  11.311
91694SOL    HW276916   3.599   3.320  11.256
91695SOL     OW76917  14.561   5.422  14.332
91695SOL    HW176918  14.650   5.388  14.331
91695SOL    HW276919  14.572   5.517  14.341
91696SOL     OW76920  10.183   5.011   2.165
91696SOL    HW176921  10.131   5.052   2.096
91696SOL    HW276922  10.150   4.921   2.168
91697SOL     OW76923   7.864  11.759   2.283
91697SOL    HW176924   7.797  11.827   2.281
91697SOL    HW276925   7.826  11.689   2.337
91698SOL     OW76926   5.820   0.616   7.465
91698SOL    HW176927   5.787   0.619   7.375
91698SOL    HW276928   5.851   0.526   7.475
91699SOL     OW76929   4.204   7.224   3.184
91699SOL    HW176930   4.272   7.266   3.131
91699SOL    HW276931   4.223   7.251   3.274
91700SOL     OW76932   8.662   2.224   3.389
91700SOL    HW176933   8.717   2.152   3.360
91700SOL    HW276934   8.573   2.189   3.388
91701SOL     OW76935   3.279  14.096   2.520
91701SOL    HW176936   3.306  14.064   2.434
91701SOL    HW276937   3.187  14.122   2.508
91702SOL     OW76938  13.211   9.836  12.425
91702SOL    HW176939  13.207   9.800  12.336
91702SOL    HW276940  13.138   9.899  12.429
91703SOL     OW76941   0.668   5.155  12.362
91703SOL    HW176942   0.604   5.173  12.293
91703SOL    HW276943   0.620   5.167  12.444
91704SOL     OW76944   6.393   0.140   2.089
91704SOL    HW176945   6.346   0.222   2.103
91704SOL    HW276946   6.365   0.084   2.162
91705SOL     OW76947  11.568   6.069  14.352
91705SOL    HW176948  11.648   6.120  14.342
91705SOL    HW276949  11.508   6.127  14.399
91706SOL     OW76950   0.528   2.263   5.783
91706SOL    HW176951   0.525   2.319   5.706
91706SOL    HW276952   0.572   2.316   5.850
91707SOL     OW76953   8.218   9.541  10.544
91707SOL    HW176954   8.311   9.551  10.564
91707SOL    HW276955   8.187   9.631  10.531
91708SOL     OW76956   5.997   9.452   8.259
91708SOL    HW176957   5.919   9.481   8.306
91708SOL    HW276958   6.048   9.532   8.245
91709SOL     OW76959  11.573   3.328  12.091
91709SOL    HW176960  11.646   3.363  12.041
91709SOL    HW276961  11.495   3.370  12.053
91710SOL     OW76962   3.738  10.744   6.499
91710SOL    HW176963   3.818  10.731   6.449
91710SOL    HW276964   3.720  10.658   6.538
91711SOL     OW76965   7.641   7.725  12.119
91711SOL    HW176966   7.568   7.663  12.114
91711SOL    HW276967   7.700   7.697  12.048
91712SOL     OW76968   3.211   6.111   5.108
91712SOL    HW176969   3.139   6.049   5.120
91712SOL    HW276970   3.268   6.096   5.183
91713SOL     OW76971   2.351   4.383   7.301
91713SOL    HW176972   2.349   4.458   7.241
91713SOL    HW276973   2.426   4.399   7.358
91714SOL     OW76974   8.011   1.296   7.570
91714SOL    HW176975   8.019   1.208   7.608
91714SOL    HW276976   7.942   1.288   7.505
91715SOL     OW76977   8.294  12.505  10.534
91715SOL    HW176978   8.309  12.492  10.627
91715SOL    HW276979   8.318  12.422  10.493
91716SOL     OW76980   6.123   4.405   0.430
91716SOL    HW176981   6.152   4.335   0.371
91716SOL    HW276982   6.029   4.389   0.441
91717SOL     OW76983   6.563   2.616   8.796
91717SOL    HW176984   6.596   2.695   8.754
91717SOL    HW276985   6.468   2.621   8.787
91718SOL     OW76986   7.476   7.969   1.926
91718SOL    HW176987   7.438   7.882   1.915
91718SOL    HW276988   7.401   8.027   1.931
91719SOL     OW76989   1.538  13.459   6.719
91719SOL    HW176990   1.452  13.445   6.758
91719SOL    HW276991   1.557  13.551   6.737
91720SOL     OW76992   7.755  12.945   4.468
91720SOL    HW176993   7.699  12.969   4.542
91720SOL    HW276994   7.797  13.027   4.442
91721SOL     OW76995   9.091   2.085   1.120
91721SOL    HW176996   9.136   2.104   1.203
91721SOL    HW276997   9.092   2.167   1.072
91722SOL     OW76998  10.629   9.115   6.501
91722SOL    HW176999  10.602   9.084   6.587
91722SOL    HW277000  10.641   9.035   6.449
91723SOL     OW77001   1.173  10.603  14.364
91723SOL    HW177002   1.083  10.596  14.394
91723SOL    HW277003   1.211  10.516  14.381
91724SOL     OW77004   8.982   0.757   5.993
91724SOL    HW177005   9.001   0.849   5.976
91724SOL    HW277006   8.948   0.723   5.910
91725SOL     OW77007  14.674   4.659  13.971
91725SOL    HW177008  14.733   4.634  13.899
91725SOL    HW277009  14.611   4.587  13.976
91726SOL     OW77010  10.281  14.793   2.971
91726SOL    HW177011  10.301  14.781   3.064
91726SOL    HW277012  10.317  14.715   2.928
91727SOL     OW77013   3.314   9.672   9.468
91727SOL    HW177014   3.329   9.578   9.456
91727SOL    HW277015   3.256   9.678   9.544
91728SOL     OW77016   1.673   9.758   5.755
91728SOL    HW177017   1.633   9.769   5.841
91728SOL    HW277018   1.693   9.665   5.749
91729SOL     OW77019   5.544  10.663   5.744
91729SOL    HW177020   5.591  10.600   5.799
91729SOL    HW277021   5.511  10.610   5.671
91730SOL     OW77022   5.158   9.571  12.733
91730SOL    HW177023   5.169   9.539  12.823
91730SOL    HW277024   5.208   9.510  12.679
91731SOL     OW77025   1.655   6.122  13.070
91731SOL    HW177026   1.729   6.063  13.083
91731SOL    HW277027   1.593   6.099  13.139
91732SOL     OW77028  11.223   2.231   3.964
91732SOL    HW177029  11.284   2.290   3.920
91732SOL    HW277030  11.247   2.144   3.934
91733SOL     OW77031   8.814   6.204  14.648
91733SOL    HW177032   8.795   6.298  14.640
91733SOL    HW277033   8.767   6.164  14.574
91734SOL     OW77034  12.500   8.961  13.115
91734SOL    HW177035  12.552   8.997  13.043
91734SOL    HW277036  12.448   8.892  13.074
91735SOL     OW77037  14.875  14.640  11.665
91735SOL    HW177038   0.011  14.615  11.574
91735SOL    HW277039   0.078  14.682  11.692
91736SOL     OW77040   9.895   6.736  13.546
91736SOL    HW177041   9.888   6.710  13.638
91736SOL    HW277042   9.852   6.664  13.498
91737SOL     OW77043   0.861  11.288   7.580
91737SOL    HW177044   0.794  11.220   7.576
91737SOL    HW277045   0.873  11.304   7.674
91738SOL     OW77046   2.387   8.842   7.225
91738SOL    HW177047   2.316   8.788   7.260
91738SOL    HW277048   2.344   8.924   7.199
91739SOL     OW77049   3.866   9.933   1.807
91739SOL    HW177050   3.811   9.993   1.758
91739SOL    HW277051   3.818   9.917   1.888
91740SOL     OW77052   9.093   8.712  13.901
91740SOL    HW177053   9.042   8.748  13.973
91740SOL    HW277054   9.181   8.702  13.936
91741SOL     OW77055  10.263   5.144  13.296
91741SOL    HW177056  10.264   5.133  13.391
91741SOL    HW277057  10.172   5.167  13.276
91742SOL     OW77058   3.001   1.977   8.301
91742SOL    HW177059   3.069   2.008   8.242
91742SOL    HW277060   2.980   1.889   8.269
91743SOL     OW77061  12.701  13.098  11.102
91743SOL    HW177062  12.691  13.102  11.197
91743SOL    HW277063  12.703  13.190  11.074
91744SOL     OW77064   8.023   7.855  12.499
91744SOL    HW177065   7.988   7.921  12.438
91744SOL    HW277066   7.992   7.772  12.465
91745SOL     OW77067   0.095   3.991   8.276
91745SOL    HW177068   0.051   3.956   8.353
91745SOL    HW277069   0.134   3.914   8.234
91746SOL     OW77070   2.152   0.826   9.136
91746SOL    HW177071   2.094   0.779   9.197
91746SOL    HW277072   2.170   0.909   9.180
91747SOL     OW77073  13.418   6.875  10.415
91747SOL    HW177074  13.472   6.854  10.492
91747SOL    HW277075  13.356   6.803  10.409
91748SOL     OW77076   9.629  10.981  10.238
91748SOL    HW177077   9.588  10.995  10.323
91748SOL    HW277078   9.666  10.893  10.243
91749SOL     OW77079   4.239   3.609  11.563
91749SOL    HW177080   4.293   3.686  11.548
91749SOL    HW277081   4.175   3.638  11.629
91750SOL     OW77082   6.574  11.406   8.756
91750SOL    HW177083   6.572  11.311   8.761
91750SOL    HW277084   6.644  11.432   8.815
91751SOL     OW77085   8.531   5.579   6.730
91751SOL    HW177086   8.511   5.632   6.807
91751SOL    HW277087   8.618   5.606   6.703
91752SOL     OW77088  12.876   1.220   3.682
91752SOL    HW177089  12.940   1.271   3.632
91752SOL    HW277090  12.911   1.131   3.680
91753SOL     OW77091   3.859  14.425  10.704
91753SOL    HW177092   3.951  14.451  10.701
91753SOL    HW277093   3.860  14.329  10.706
91754SOL     OW77094   9.815   4.163   4.178
91754SOL    HW177095   9.719   4.170   4.176
91754SOL    HW277096   9.845   4.253   4.189
91755SOL     OW77097  12.004   0.122   3.629
91755SOL    HW177098  11.958   0.084   3.704
91755SOL    HW277099  12.075   0.172   3.667
91756SOL     OW77100   6.722   3.475   2.195
91756SOL    HW177101   6.727   3.379   2.189
91756SOL    HW277102   6.629   3.493   2.211
91757SOL     OW77103  13.161   3.256   7.424
91757SOL    HW177104  13.153   3.351   7.425
91757SOL    HW277105  13.152   3.230   7.516
91758SOL     OW77106   4.054   5.149   4.351
91758SOL    HW177107   4.033   5.065   4.392
91758SOL    HW277108   3.975   5.202   4.363
91759SOL     OW77109   9.881   1.993   7.408
91759SOL    HW177110   9.876   1.910   7.360
91759SOL    HW277111   9.956   1.982   7.465
91760SOL     OW77112   5.412  11.897   2.528
91760SOL    HW177113   5.339  11.953   2.503
91760SOL    HW277114   5.485  11.957   2.541
91761SOL     OW77115  10.874  12.148   3.899
91761SOL    HW177116  10.908  12.177   3.814
91761SOL    HW277117  10.814  12.219   3.926
91762SOL     OW77118   1.936   4.000   2.323
91762SOL    HW177119   1.993   4.021   2.249
91762SOL    HW277120   1.848   4.024   2.293
91763SOL     OW77121  12.110   1.580  13.294
91763SOL    HW177122  12.107   1.655  13.353
91763SOL    HW277123  12.200   1.578  13.263
91764SOL     OW77124   2.098   4.273  13.288
91764SOL    HW177125   2.056   4.359  13.289
91764SOL    HW277126   2.100   4.246  13.379
91765SOL     OW77127   7.631   3.879   1.979
91765SOL    HW177128   7.719   3.903   1.951
91765SOL    HW277129   7.573   3.922   1.916
91766SOL     OW77130  13.428  14.036  11.533
91766SOL    HW177131  13.365  14.027  11.605
91766SOL    HW277132  13.474  13.952  11.531
91767SOL     OW77133   1.830   3.102  13.078
91767SOL    HW177134   1.818   3.112  13.172
91767SOL    HW277135   1.905   3.043  13.069
91768SOL     OW77136   6.622  11.898   5.344
91768SOL    HW177137   6.555  11.832   5.327
91768SOL    HW277138   6.605  11.925   5.434
91769SOL     OW77139  12.193   0.221  12.932
91769SOL    HW177140  12.098   0.207  12.925
91769SOL    HW277141  12.204   0.315  12.918
91770SOL     OW77142   4.382  14.650   7.565
91770SOL    HW177143   4.456  14.679   7.618
91770SOL    HW277144   4.420  14.631   7.479
91771SOL     OW77145  13.479   1.689  10.920
91771SOL    HW177146  13.561   1.692  10.870
91771SOL    HW277147  13.503   1.723  11.007
91772SOL     OW77148  12.452   8.401  10.753
91772SOL    HW177149  12.519   8.433  10.693
91772SOL    HW277150  12.487   8.320  10.788
91773SOL     OW77151   6.047  13.527   6.030
91773SOL    HW177152   6.056  13.559   6.120
91773SOL    HW277153   6.041  13.432   6.039
91774SOL     OW77154  12.620  12.945  10.182
91774SOL    HW177155  12.712  12.920  10.183
91774SOL    HW277156  12.590  12.929  10.272
91775SOL     OW77157   6.171  14.728  13.868
91775SOL    HW177158   6.226  14.687  13.935
91775SOL    HW277159   6.091  14.751  13.915
91776SOL     OW77160   1.163  14.454  14.638
91776SOL    HW177161   1.087  14.437  14.582
91776SOL    HW277162   1.188  14.544  14.619
91777SOL     OW77163   9.698  11.157   9.809
91777SOL    HW177164   9.626  11.205   9.769
91777SOL    HW277165   9.712  11.201   9.893
91778SOL     OW77166   0.553   8.198   5.782
91778SOL    HW177167   0.500   8.277   5.772
91778SOL    HW277168   0.548   8.155   5.697
91779SOL     OW77169   1.648   4.826   0.436
91779SOL    HW177170   1.708   4.865   0.373
91779SOL    HW277171   1.634   4.894   0.502
91780SOL     OW77172   9.853   6.843  10.886
91780SOL    HW177173   9.769   6.883  10.865
91780SOL    HW277174   9.861   6.771  10.824
91781SOL     OW77175  13.222   2.355   9.979
91781SOL    HW177176  13.261   2.365  10.065
91781SOL    HW277177  13.128   2.351   9.995
91782SOL     OW77178   0.719  13.616   9.614
91782SOL    HW177179   0.777  13.655   9.548
91782SOL    HW277180   0.647  13.580   9.562
91783SOL     OW77181   8.732   2.072   6.731
91783SOL    HW177182   8.656   2.019   6.753
91783SOL    HW277183   8.762   2.038   6.646
91784SOL     OW77184   7.511  12.999   1.202
91784SOL    HW177185   7.431  12.993   1.151
91784SOL    HW277186   7.484  12.979   1.292
91785SOL     OW77187   1.973   4.936   7.381
91785SOL    HW177188   2.033   4.986   7.325
91785SOL    HW277189   2.025   4.914   7.459
91786SOL     OW77190  10.116  11.292   2.469
91786SOL    HW177191  10.135  11.307   2.562
91786SOL    HW277192  10.197  11.313   2.424
91787SOL     OW77193   2.413   4.739   1.840
91787SOL    HW177194   2.392   4.778   1.924
91787SOL    HW277195   2.494   4.783   1.813
91788SOL     OW77196   5.324  13.597   2.819
91788SOL    HW177197   5.390  13.530   2.839
91788SOL    HW277198   5.314  13.646   2.901
91789SOL     OW77199   0.192   3.453  10.480
91789SOL    HW177200   0.206   3.545  10.456
91789SOL    HW277201   0.118   3.425  10.426
91790SOL     OW77202   9.467   1.258   5.633
91790SOL    HW177203   9.464   1.353   5.639
91790SOL    HW277204   9.516   1.240   5.552
91791SOL     OW77205  13.698  13.797   0.841
91791SOL    HW177206  13.653  13.840   0.769
91791SOL    HW277207  13.631  13.788   0.909
91792SOL     OW77208  14.827   7.753   6.258
91792SOL    HW177209   0.017   7.690   6.236
91792SOL    HW277210  14.794   7.782   6.173
91793SOL     OW77211   3.161   3.647   7.716
91793SOL    HW177212   3.104   3.600   7.778
91793SOL    HW277213   3.219   3.699   7.771
91794SOL     OW77214   6.076   6.460   4.784
91794SOL    HW177215   6.124   6.522   4.839
91794SOL    HW277216   6.017   6.416   4.845
91795SOL     OW77217   6.724   8.283  12.486
91795SOL    HW177218   6.649   8.263  12.430
91795SOL    HW277219   6.759   8.198  12.511
91796SOL     OW77220   9.083   7.527   9.129
91796SOL    HW177221   9.114   7.510   9.218
91796SOL    HW277222   9.086   7.442   9.086
91797SOL     OW77223  13.022  13.573  11.174
91797SOL    HW177224  13.056  13.588  11.086
91797SOL    HW277225  12.927  13.571  11.163
91798SOL     OW77226  14.504   3.107   3.697
91798SOL    HW177227  14.434   3.161   3.660
91798SOL    HW277228  14.469   3.078   3.781
91799SOL     OW77229  12.703   0.231   9.814
91799SOL    HW177230  12.785   0.279   9.814
91799SOL    HW277231  12.648   0.276   9.750
91800SOL     OW77232  10.979  11.938  13.440
91800SOL    HW177233  11.043  11.867  13.436
91800SOL    HW277234  11.011  11.996  13.509
91801SOL     OW77235   3.180   4.680   9.592
91801SOL    HW177236   3.216   4.617   9.530
91801SOL    HW277237   3.210   4.649   9.677
91802SOL     OW77238   4.392  10.136  10.292
91802SOL    HW177239   4.361  10.106  10.207
91802SOL    HW277240   4.380  10.061  10.350
91803SOL     OW77241   0.409   3.068   2.566
91803SOL    HW177242   0.420   2.982   2.607
91803SOL    HW277243   0.354   3.052   2.489
91804SOL     OW77244  12.249   1.206   0.464
91804SOL    HW177245  12.304   1.189   0.388
91804SOL    HW277246  12.276   1.139   0.528
91805SOL     OW77247   7.658   2.017  13.353
91805SOL    HW177248   7.692   1.967  13.278
91805SOL    HW277249   7.679   2.108  13.333
91806SOL     OW77250   6.923   5.416  11.521
91806SOL    HW177251   6.962   5.388  11.438
91806SOL    HW277252   6.858   5.348  11.540
91807SOL     OW77253   4.142   9.903   2.481
91807SOL    HW177254   4.237   9.910   2.471
91807SOL    HW277255   4.119   9.975   2.540
91808SOL     OW77256  10.323   4.539   3.449
91808SOL    HW177257  10.302   4.539   3.356
91808SOL    HW277258  10.316   4.630   3.476
91809SOL     OW77259   2.791   2.855   6.911
91809SOL    HW177260   2.741   2.812   6.980
91809SOL    HW277261   2.858   2.905   6.956
91810SOL     OW77262  12.435  14.555   8.776
91810SOL    HW177263  12.505  14.610   8.810
91810SOL    HW277264  12.414  14.592   8.690
91811SOL     OW77265   5.133   8.651   6.918
91811SOL    HW177266   5.202   8.718   6.923
91811SOL    HW277267   5.110   8.634   7.009
91812SOL     OW77268   5.028  13.459   6.275
91812SOL    HW177269   5.063  13.542   6.306
91812SOL    HW277270   5.078  13.440   6.195
91813SOL     OW77271  10.313   5.514   7.344
91813SOL    HW177272  10.375   5.562   7.289
91813SOL    HW277273  10.356   5.510   7.430
91814SOL     OW77274  10.792   6.463   8.860
91814SOL    HW177275  10.856   6.423   8.918
91814SOL    HW277276  10.711   6.413   8.875
91815SOL     OW77277   5.672   5.007   1.886
91815SOL    HW177278   5.684   4.929   1.940
91815SOL    HW277279   5.761   5.033   1.861
91816SOL     OW77280   7.253  14.036   0.864
91816SOL    HW177281   7.269  14.124   0.831
91816SOL    HW277282   7.203  14.049   0.944
91817SOL     OW77283   8.336   4.622   8.760
91817SOL    HW177284   8.342   4.618   8.664
91817SOL    HW277285   8.247   4.597   8.780
91818SOL     OW77286  12.834   4.420   3.027
91818SOL    HW177287  12.783   4.492   2.990
91818SOL    HW277288  12.835   4.437   3.122
91819SOL     OW77289   8.827  14.230   0.935
91819SOL    HW177290   8.795  14.317   0.958
91819SOL    HW277291   8.766  14.199   0.868
91820SOL     OW77292   6.625   3.343  11.797
91820SOL    HW177293   6.712   3.364  11.765
91820SOL    HW277294   6.601   3.417  11.852
91821SOL     OW77295   3.001   7.966  14.835
91821SOL    HW177296   3.024   8.002  14.749
91821SOL    HW277297   2.952   7.886  14.816
91822SOL     OW77298   4.127  10.187  10.837
91822SOL    HW177299   4.116  10.265  10.783
91822SOL    HW277300   4.108  10.114  10.777
91823SOL     OW77301  13.625   3.354   6.541
91823SOL    HW177302  13.674   3.350   6.459
91823SOL    HW277303  13.691   3.377   6.607
91824SOL     OW77304   2.530   5.899  12.730
91824SOL    HW177305   2.622   5.912  12.709
91824SOL    HW277306   2.496   5.987  12.746
91825SOL     OW77307   9.802  11.005   0.993
91825SOL    HW177308   9.777  11.043   0.909
91825SOL    HW277309   9.742  10.931   1.004
91826SOL     OW77310   7.393   6.726   0.848
91826SOL    HW177311   7.474   6.675   0.852
91826SOL    HW277312   7.324   6.662   0.866
91827SOL     OW77313   4.240   4.161   6.473
91827SOL    HW177314   4.158   4.122   6.504
91827SOL    HW277315   4.237   4.251   6.506
91828SOL     OW77316  13.126   5.469  10.098
91828SOL    HW177317  13.166   5.413  10.031
91828SOL    HW277318  13.038   5.486  10.066
91829SOL     OW77319  14.581  10.442   1.789
91829SOL    HW177320  14.501  10.457   1.739
91829SOL    HW277321  14.649  10.488   1.740
91830SOL     OW77322   6.419  13.830   7.312
91830SOL    HW177323   6.438  13.863   7.400
91830SOL    HW277324   6.324  13.838   7.304
91831SOL     OW77325   8.327  12.566   8.694
91831SOL    HW177326   8.287  12.650   8.674
91831SOL    HW277327   8.375  12.581   8.775
91832SOL     OW77328  14.465  14.465  14.269
91832SOL    HW177329  14.463  14.406  14.194
91832SOL    HW277330  14.514  14.417  14.336
91833SOL     OW77331  14.727  11.014  13.336
91833SOL    HW177332  14.818  11.012  13.305
91833SOL    HW277333  14.710  10.924  13.365
91834SOL     OW77334  13.875  14.359   4.137
91834SOL    HW177335  13.868  14.452   4.160
91834SOL    HW277336  13.909  14.359   4.048
91835SOL     OW77337  13.022   1.732   0.411
91835SOL    HW177338  12.961   1.781   0.356
91835SOL    HW277339  13.098   1.789   0.420
91836SOL     OW77340   7.967   1.404   0.859
91836SOL    HW177341   7.903   1.440   0.798
91836SOL    HW277342   8.048   1.398   0.809
91837SOL     OW77343   1.321   0.338   0.337
91837SOL    HW177344   1.392   0.401   0.334
91837SOL    HW277345   1.351   0.265   0.283
91838SOL     OW77346   1.522   1.463   9.779
91838SOL    HW177347   1.550   1.415   9.701
91838SOL    HW277348   1.546   1.406   9.852
91839SOL     OW77349   7.595  11.871  14.309
91839SOL    HW177350   7.559  11.908  14.228
91839SOL    HW277351   7.532  11.804  14.335
91840SOL     OW77352  10.235   9.510  12.815
91840SOL    HW177353  10.253   9.545  12.728
91840SOL    HW277354  10.279   9.425  12.817
91841SOL     OW77355   4.090  13.074   0.831
91841SOL    HW177356   4.005  13.038   0.856
91841SOL    HW277357   4.150  12.999   0.835
91842SOL     OW77358   5.541  12.818  14.527
91842SOL    HW177359   5.611  12.880  14.548
91842SOL    HW277360   5.504  12.852  14.445
91843SOL     OW77361   8.480   7.653   3.116
91843SOL    HW177362   8.430   7.585   3.071
91843SOL    HW277363   8.442   7.656   3.204
91844SOL     OW77364   9.326   1.977   6.982
91844SOL    HW177365   9.300   1.899   6.932
91844SOL    HW277366   9.255   1.990   7.044
91845SOL     OW77367   9.912   0.957  11.897
91845SOL    HW177368   9.863   0.875  11.897
91845SOL    HW277369   9.860   1.016  11.953
91846SOL     OW77370   7.979   7.840   1.962
91846SOL    HW177371   8.020   7.835   2.049
91846SOL    HW277372   7.972   7.934   1.945
91847SOL     OW77373   2.745   5.025   4.489
91847SOL    HW177374   2.700   5.065   4.415
91847SOL    HW277375   2.777   5.099   4.541
91848SOL     OW77376   2.309   5.241   0.916
91848SOL    HW177377   2.307   5.327   0.875
91848SOL    HW277378   2.382   5.245   0.978
91849SOL     OW77379   3.565   8.860   1.046
91849SOL    HW177380   3.572   8.878   1.140
91849SOL    HW277381   3.503   8.926   1.014
91850SOL     OW77382   9.512   1.387  11.675
91850SOL    HW177383   9.492   1.457  11.738
91850SOL    HW277384   9.464   1.412  11.596
91851SOL     OW77385   7.657   1.664   8.380
91851SOL    HW177386   7.733   1.646   8.324
91851SOL    HW277387   7.619   1.744   8.342
91852SOL     OW77388  13.718   7.702  12.783
91852SOL    HW177389  13.729   7.610  12.757
91852SOL    HW277390  13.789   7.718  12.845
91853SOL     OW77391   8.587   4.154   9.614
91853SOL    HW177392   8.495   4.179   9.619
91853SOL    HW277393   8.609   4.125   9.702
91854SOL     OW77394   4.798  13.260   3.496
91854SOL    HW177395   4.719  13.248   3.443
91854SOL    HW277396   4.865  13.209   3.450
91855SOL     OW77397   2.898  12.089  12.164
91855SOL    HW177398   2.938  12.122  12.084
91855SOL    HW277399   2.808  12.122  12.160
91856SOL     OW77400  11.887   1.188   6.198
91856SOL    HW177401  11.845   1.178   6.283
91856SOL    HW277402  11.823   1.154   6.135
91857SOL     OW77403   1.872  12.508   3.030
91857SOL    HW177404   1.934  12.576   3.055
91857SOL    HW277405   1.787  12.552   3.028
91858SOL     OW77406   0.743   5.496  14.093
91858SOL    HW177407   0.750   5.501  13.998
91858SOL    HW277408   0.698   5.577  14.118
91859SOL     OW77409   1.902   2.282   2.165
91859SOL    HW177410   1.810   2.294   2.190
91859SOL    HW277411   1.925   2.364   2.120
91860SOL     OW77412   0.519  12.425   1.716
91860SOL    HW177413   0.579  12.354   1.691
91860SOL    HW277414   0.567  12.505   1.695
91861SOL     OW77415  13.712  12.556   7.988
91861SOL    HW177416  13.798  12.532   7.954
91861SOL    HW277417  13.688  12.635   7.941
91862SOL     OW77418  12.832  12.396  12.753
91862SOL    HW177419  12.899  12.448  12.707
91862SOL    HW277420  12.749  12.439  12.731
91863SOL     OW77421   0.815  13.407  14.862
91863SOL    HW177422   0.791  13.315  14.876
91863SOL    HW277423   0.809  13.419  14.767
91864SOL     OW77424  11.548   3.329  14.523
91864SOL    HW177425  11.531   3.284  14.605
91864SOL    HW277426  11.628   3.288  14.489
91865SOL     OW77427   9.585   9.410   4.955
91865SOL    HW177428   9.677   9.401   4.979
91865SOL    HW277429   9.578   9.498   4.917
91866SOL     OW77430  12.434   7.890   0.569
91866SOL    HW177431  12.470   7.938   0.494
91866SOL    HW277432  12.416   7.958   0.635
91867SOL     OW77433   4.234  10.572  12.989
91867SOL    HW177434   4.261  10.660  12.961
91867SOL    HW277435   4.138  10.573  12.984
91868SOL     OW77436   1.634   0.111   9.331
91868SOL    HW177437   1.677   0.194   9.349
91868SOL    HW277438   1.706   0.050   9.315
91869SOL     OW77439   9.634   7.166   7.746
91869SOL    HW177440   9.562   7.103   7.752
91869SOL    HW277441   9.710   7.114   7.723
91870SOL     OW77442   2.629  10.462   2.577
91870SOL    HW177443   2.673  10.491   2.656
91870SOL    HW277444   2.648  10.530   2.512
91871SOL     OW77445   4.578   1.243  11.966
91871SOL    HW177446   4.671   1.226  11.953
91871SOL    HW277447   4.571   1.337  11.980
91872SOL     OW77448   8.056   6.196  12.126
91872SOL    HW177449   8.047   6.146  12.208
91872SOL    HW277450   8.147   6.223  12.125
91873SOL     OW77451  11.045   3.359   1.617
91873SOL    HW177452  11.123   3.415   1.625
91873SOL    HW277453  11.018   3.344   1.708
91874SOL     OW77454   6.546   6.858   1.363
91874SOL    HW177455   6.470   6.912   1.381
91874SOL    HW277456   6.594   6.905   1.294
91875SOL     OW77457   6.494   4.877  14.383
91875SOL    HW177458   6.463   4.919  14.302
91875SOL    HW277459   6.571   4.927  14.408
91876SOL     OW77460  12.306  12.622   2.620
91876SOL    HW177461  12.290  12.556   2.553
91876SOL    HW277462  12.401  12.636   2.618
91877SOL     OW77463   3.957  11.549   5.650
91877SOL    HW177464   3.889  11.581   5.710
91877SOL    HW277465   4.002  11.480   5.699
91878SOL     OW77466   8.085  11.668  11.217
91878SOL    HW177467   8.106  11.706  11.132
91878SOL    HW277468   8.068  11.743  11.273
91879SOL     OW77469  10.497  10.665  12.245
91879SOL    HW177470  10.549  10.652  12.165
91879SOL    HW277471  10.436  10.735  12.223
91880SOL     OW77472   4.270   4.697   9.759
91880SOL    HW177473   4.188   4.745   9.768
91880SOL    HW277474   4.303   4.689   9.849
91881SOL     OW77475   3.555   0.940  14.807
91881SOL    HW177476   3.470   0.962  14.844
91881SOL    HW277477   3.617   0.994  14.856
91882SOL     OW77478   4.205   6.779  12.367
91882SOL    HW177479   4.208   6.862  12.414
91882SOL    HW277480   4.296   6.748  12.367
91883SOL     OW77481   0.216  13.458  12.032
91883SOL    HW177482   0.269  13.429  12.106
91883SOL    HW277483   0.204  13.379  11.979
91884SOL     OW77484  13.628   6.829  10.172
91884SOL    HW177485  13.633   6.766  10.100
91884SOL    HW277486  13.558   6.795  10.228
91885SOL     OW77487   7.161  11.639   8.370
91885SOL    HW177488   7.167  11.695   8.448
91885SOL    HW277489   7.235  11.579   8.377
91886SOL     OW77490   6.515   2.448  14.607
91886SOL    HW177491   6.497   2.372  14.552
91886SOL    HW277492   6.532   2.519  14.546
91887SOL     OW77493  10.729  12.849  14.134
91887SOL    HW177494  10.824  12.853  14.147
91887SOL    HW277495  10.714  12.892  14.050
91888SOL     OW77496   2.058  11.381  14.247
91888SOL    HW177497   1.990  11.354  14.187
91888SOL    HW277498   2.070  11.307  14.306
91889SOL     OW77499  13.326  11.763   6.350
91889SOL    HW177500  13.396  11.711   6.387
91889SOL    HW277501  13.251  11.703   6.345
91890SOL     OW77502   8.023   0.206   8.103
91890SOL    HW177503   8.020   0.111   8.112
91890SOL    HW277504   8.109   0.231   8.135
91891SOL     OW77505   7.009  14.402   9.305
91891SOL    HW177506   7.102  14.420   9.291
91891SOL    HW277507   6.964  14.470   9.256
91892SOL     OW77508   9.026  12.468  14.274
91892SOL    HW177509   9.011  12.374  14.290
91892SOL    HW277510   9.110  12.471  14.228
91893SOL     OW77511   3.901  13.039   4.177
91893SOL    HW177512   3.874  13.098   4.247
91893SOL    HW277513   3.913  13.096   4.100
91894SOL     OW77514   8.206   6.024   7.304
91894SOL    HW177515   8.286   5.975   7.322
91894SOL    HW277516   8.215   6.104   7.357
91895SOL     OW77517   6.717   9.617  13.399
91895SOL    HW177518   6.795   9.584  13.442
91895SOL    HW277519   6.644   9.585  13.453
91896SOL     OW77520  13.844  12.564   7.160
91896SOL    HW177521  13.918  12.605   7.204
91896SOL    HW277522  13.792  12.525   7.230
91897SOL     OW77523  10.274   4.414   8.599
91897SOL    HW177524  10.337   4.354   8.558
91897SOL    HW277525  10.295   4.410   8.692
91898SOL     OW77526  11.522   1.669   5.043
91898SOL    HW177527  11.483   1.584   5.064
91898SOL    HW277528  11.457   1.733   5.074
91899SOL     OW77529   9.289  12.295   9.536
91899SOL    HW177530   9.337  12.213   9.545
91899SOL    HW277531   9.205  12.269   9.497
91900SOL     OW77532   2.396   7.864   7.113
91900SOL    HW177533   2.334   7.922   7.158
91900SOL    HW277534   2.476   7.915   7.106
91901SOL     OW77535   5.004  14.069   2.352
91901SOL    HW177536   4.984  14.133   2.283
91901SOL    HW277537   5.025  14.122   2.428
91902SOL     OW77538  12.287  13.496   6.247
91902SOL    HW177539  12.335  13.564   6.199
91902SOL    HW277540  12.231  13.545   6.308
91903SOL     OW77541  13.534   5.447   6.005
91903SOL    HW177542  13.597   5.454   5.933
91903SOL    HW277543  13.520   5.537   6.034
91904SOL     OW77544  10.627   5.583   8.531
91904SOL    HW177545  10.554   5.589   8.469
91904SOL    HW277546  10.695   5.535   8.483
91905SOL     OW77547   2.997   6.740  14.541
91905SOL    HW177548   2.947   6.819  14.563
91905SOL    HW277549   2.931   6.673  14.525
91906SOL     OW77550   3.476   9.761   7.249
91906SOL    HW177551   3.464   9.780   7.342
91906SOL    HW277552   3.390   9.734   7.219
91907SOL     OW77553  11.336   7.508   4.741
91907SOL    HW177554  11.421   7.505   4.785
91907SOL    HW277555  11.322   7.601   4.723
91908SOL     OW77556  10.225   0.372   9.472
91908SOL    HW177557  10.297   0.324   9.513
91908SOL    HW277558  10.216   0.451   9.525
91909SOL     OW77559   1.737  13.205   0.130
91909SOL    HW177560   1.797  13.267   0.171
91909SOL    HW277561   1.792  13.132   0.103
91910SOL     OW77562   5.692   6.965   0.328
91910SOL    HW177563   5.746   6.971   0.407
91910SOL    HW277564   5.706   7.048   0.282
91911SOL     OW77565   1.927  12.826  10.655
91911SOL    HW177566   1.889  12.877  10.584
91911SOL    HW277567   2.009  12.793  10.619
91912SOL     OW77568   8.460   6.569   4.297
91912SOL    HW177569   8.391   6.515   4.258
91912SOL    HW277570   8.450   6.655   4.255
91913SOL     OW77571   9.045   8.043   2.774
91913SOL    HW177572   9.074   8.120   2.724
91913SOL    HW277573   8.967   8.073   2.820
91914SOL     OW77574   3.720   2.174  14.710
91914SOL    HW177575   3.711   2.093  14.760
91914SOL    HW277576   3.788   2.224  14.756
91915SOL     OW77577   6.758   9.692  10.463
91915SOL    HW177578   6.819   9.657  10.529
91915SOL    HW277579   6.711   9.615  10.431
91916SOL     OW77580   0.647  13.986   7.159
91916SOL    HW177581   0.597  14.032   7.226
91916SOL    HW277582   0.735  13.978   7.195
91917SOL     OW77583  10.110   9.971   1.587
91917SOL    HW177584  10.110  10.036   1.516
91917SOL    HW277585  10.186   9.994   1.640
91918SOL     OW77586   1.855   9.658   1.698
91918SOL    HW177587   1.850   9.746   1.734
91918SOL    HW277588   1.837   9.669   1.604
91919SOL     OW77589   8.187   8.803   0.810
91919SOL    HW177590   8.160   8.714   0.835
91919SOL    HW277591   8.187   8.852   0.892
91920SOL     OW77592   6.986   1.447   9.785
91920SOL    HW177593   6.986   1.479   9.875
91920SOL    HW277594   6.984   1.527   9.732
91921SOL     OW77595  10.249   0.483   0.196
91921SOL    HW177596  10.213   0.482   0.285
91921SOL    HW277597  10.310   0.410   0.195
91922SOL     OW77598  10.679   4.737   3.200
91922SOL    HW177599  10.753   4.687   3.234
91922SOL    HW277600  10.659   4.801   3.268
91923SOL     OW77601   3.527  11.669   8.284
91923SOL    HW177602   3.540  11.752   8.240
91923SOL    HW277603   3.528  11.604   8.214
91924SOL     OW77604   9.056  13.942  11.111
91924SOL    HW177605   8.976  13.994  11.100
91924SOL    HW277606   9.104  13.985  11.181
91925SOL     OW77607   8.880   0.587  13.410
91925SOL    HW177608   8.882   0.638  13.491
91925SOL    HW277609   8.906   0.649  13.342
91926SOL     OW77610  11.555  12.050   9.326
91926SOL    HW177611  11.632  12.080   9.375
91926SOL    HW277612  11.566  12.086   9.238
91927SOL     OW77613   6.608   2.952   5.713
91927SOL    HW177614   6.631   2.902   5.791
91927SOL    HW277615   6.689   2.954   5.661
91928SOL     OW77616  13.460   9.348  11.502
91928SOL    HW177617  13.415   9.312  11.578
91928SOL    HW277618  13.553   9.333  11.520
91929SOL     OW77619   5.775   4.729   2.021
91929SOL    HW177620   5.742   4.648   2.061
91929SOL    HW277621   5.750   4.722   1.929
91930SOL     OW77622  12.980   2.551   2.102
91930SOL    HW177623  12.962   2.622   2.041
91930SOL    HW277624  12.938   2.579   2.184
91931SOL     OW77625  11.152  14.372   0.744
91931SOL    HW177626  11.153  14.349   0.837
91931SOL    HW277627  11.122  14.463   0.742
91932SOL     OW77628   4.402   8.331   8.547
91932SOL    HW177629   4.439   8.330   8.458
91932SOL    HW277630   4.437   8.252   8.588
91933SOL     OW77631   3.227   6.079  12.445
91933SOL    HW177632   3.228   6.104  12.352
91933SOL    HW277633   3.288   6.139  12.487
91934SOL     OW77634  10.360   8.677   8.979
91934SOL    HW177635  10.448   8.640   8.971
91934SOL    HW277636  10.314   8.619   9.040
91935SOL     OW77637  13.121   2.520  12.998
91935SOL    HW177638  13.168   2.510  13.080
91935SOL    HW277639  13.133   2.612  12.974
91936SOL     OW77640   8.798  13.588   8.798
91936SOL    HW177641   8.712  13.626   8.779
91936SOL    HW277642   8.825  13.631   8.879
91937SOL     OW77643   8.011   7.404   3.445
91937SOL    HW177644   8.085   7.438   3.394
91937SOL    HW277645   8.016   7.309   3.434
91938SOL     OW77646  10.864  12.079  14.497
91938SOL    HW177647  10.868  12.159  14.444
91938SOL    HW277648  10.874  12.109  14.587
91939SOL     OW77649   4.175   9.233   8.603
91939SOL    HW177650   4.250   9.286   8.630
91939SOL    HW277651   4.099   9.275   8.643
91940SOL     OW77652   6.684  13.026  10.877
91940SOL    HW177653   6.738  13.093  10.835
91940SOL    HW277654   6.599  13.032  10.834
91941SOL     OW77655  10.161   5.430   3.703
91941SOL    HW177656  10.111   5.445   3.783
91941SOL    HW277657  10.116   5.480   3.636
91942SOL     OW77658   6.093   3.298   3.154
91942SOL    HW177659   6.063   3.357   3.223
91942SOL    HW277660   6.185   3.284   3.174
91943SOL     OW77661   0.979   4.432   4.242
91943SOL    HW177662   1.070   4.405   4.254
91943SOL    HW277663   0.941   4.426   4.330
91944SOL     OW77664   2.950   2.719  10.288
91944SOL    HW177665   2.967   2.696  10.380
91944SOL    HW277666   3.026   2.769  10.261
91945SOL     OW77667   8.372   9.207   1.854
91945SOL    HW177668   8.465   9.185   1.848
91945SOL    HW277669   8.368   9.275   1.921
91946SOL     OW77670   4.270  11.147   6.498
91946SOL    HW177671   4.239  11.188   6.417
91946SOL    HW277672   4.296  11.059   6.471
91947SOL     OW77673   1.553  13.336  12.809
91947SOL    HW177674   1.461  13.348  12.786
91947SOL    HW277675   1.552  13.319  12.904
91948SOL     OW77676   9.512  10.383   9.454
91948SOL    HW177677   9.458  10.304   9.452
91948SOL    HW277678   9.549  10.384   9.542
91949SOL     OW77679  14.244  11.737  13.812
91949SOL    HW177680  14.203  11.732  13.898
91949SOL    HW277681  14.325  11.687  13.821
91950SOL     OW77682   6.243   8.856   3.295
91950SOL    HW177683   6.246   8.847   3.200
91950SOL    HW277684   6.151   8.839   3.318
91951SOL     OW77685  10.738  13.432  12.915
91951SOL    HW177686  10.661  13.396  12.959
91951SOL    HW277687  10.800  13.451  12.986
91952SOL     OW77688   0.920   5.195   0.318
91952SOL    HW177689   0.908   5.101   0.331
91952SOL    HW277690   0.876   5.215   0.236
91953SOL     OW77691   5.165  11.093   2.234
91953SOL    HW177692   5.137  11.180   2.205
91953SOL    HW277693   5.259  11.093   2.222
91954SOL     OW77694  12.858  13.407   8.406
91954SOL    HW177695  12.822  13.424   8.493
91954SOL    HW277696  12.946  13.376   8.422
91955SOL     OW77697   4.715   8.396   8.890
91955SOL    HW177698   4.695   8.477   8.844
91955SOL    HW277699   4.803   8.372   8.860
91956SOL     OW77700   8.418   9.085   7.143
91956SOL    HW177701   8.480   9.013   7.131
91956SOL    HW277702   8.355   9.074   7.071
91957SOL     OW77703  10.079   4.834   0.152
91957SOL    HW177704  10.148   4.839   0.086
91957SOL    HW277705  10.009   4.889   0.118
91958SOL     OW77706   0.071   6.017  10.154
91958SOL    HW177707   0.140   6.049  10.096
91958SOL    HW277708   0.102   6.040  10.242
91959SOL     OW77709   5.042   3.018   7.108
91959SOL    HW177710   5.007   3.050   7.025
91959SOL    HW277711   5.120   3.072   7.122
91960SOL     OW77712  10.023   4.715   4.893
91960SOL    HW177713  10.040   4.737   4.985
91960SOL    HW277714  10.069   4.783   4.843
91961SOL     OW77715   4.326   0.116   0.255
91961SOL    HW177716   4.322   0.195   0.201
91961SOL    HW277717   4.339   0.045   0.192
91962SOL     OW77718  10.689   6.100   4.188
91962SOL    HW177719  10.784   6.089   4.181
91962SOL    HW277720  10.675   6.124   4.279
91963SOL     OW77721   7.701   2.597   9.531
91963SOL    HW177722   7.740   2.535   9.592
91963SOL    HW277723   7.721   2.683   9.568
91964SOL     OW77724   4.201  11.619  13.236
91964SOL    HW177725   4.169  11.671  13.310
91964SOL    HW277726   4.248  11.681  13.181
91965SOL     OW77727   1.834   5.164   0.758
91965SOL    HW177728   1.881   5.233   0.711
91965SOL    HW277729   1.893   5.138   0.828
91966SOL     OW77730  13.531   1.640   8.528
91966SOL    HW177731  13.500   1.553   8.553
91966SOL    HW277732  13.577   1.672   8.606
91967SOL     OW77733   2.952  10.584   9.100
91967SOL    HW177734   2.910  10.631   9.028
91967SOL    HW277735   2.883  10.529   9.137
91968SOL     OW77736   6.716  11.916   9.459
91968SOL    HW177737   6.632  11.951   9.430
91968SOL    HW277738   6.757  11.988   9.507
91969SOL     OW77739   9.455   7.999  11.619
91969SOL    HW177740   9.400   7.924  11.639
91969SOL    HW277741   9.529   7.991  11.680
91970SOL     OW77742   9.378   5.300   2.470
91970SOL    HW177743   9.322   5.358   2.418
91970SOL    HW277744   9.319   5.262   2.535
91971SOL     OW77745   2.114   8.980   7.594
91971SOL    HW177746   2.153   9.067   7.604
91971SOL    HW277747   2.020   8.997   7.583
91972SOL     OW77748   9.053  12.225   6.013
91972SOL    HW177749   9.018  12.286   6.077
91972SOL    HW277750   9.008  12.246   5.931
91973SOL     OW77751  14.069   1.529   6.034
91973SOL    HW177752  14.128   1.580   5.978
91973SOL    HW277753  14.127   1.476   6.088
91974SOL     OW77754   5.176   1.228   4.268
91974SOL    HW177755   5.253   1.174   4.252
91974SOL    HW277756   5.104   1.184   4.222
91975SOL     OW77757   4.297  14.064  14.044
91975SOL    HW177758   4.328  14.140  14.093
91975SOL    HW277759   4.253  14.010  14.110
91976SOL     OW77760  13.276   5.918  13.609
91976SOL    HW177761  13.301   5.828  13.590
91976SOL    HW277762  13.306   5.934  13.698
91977SOL     OW77763  13.197   8.714  14.297
91977SOL    HW177764  13.213   8.751  14.210
91977SOL    HW277765  13.149   8.633  14.281
91978SOL     OW77766   8.803  10.117   9.976
91978SOL    HW177767   8.851  10.197   9.960
91978SOL    HW277768   8.852  10.072  10.044
91979SOL     OW77769   7.818   2.461   7.191
91979SOL    HW177770   7.723   2.452   7.179
91979SOL    HW277771   7.841   2.395   7.256
91980SOL     OW77772   3.714   2.426   1.777
91980SOL    HW177773   3.805   2.440   1.803
91980SOL    HW277774   3.702   2.331   1.782
91981SOL     OW77775   7.542   8.013   9.052
91981SOL    HW177776   7.623   8.020   9.002
91981SOL    HW277777   7.564   7.956   9.125
91982SOL     OW77778   0.338  12.987  14.550
91982SOL    HW177779   0.408  12.944  14.500
91982SOL    HW277780   0.349  12.955  14.639
91983SOL     OW77781  12.452  13.443   1.617
91983SOL    HW177782  12.453  13.539   1.624
91983SOL    HW277783  12.537  13.415   1.649
91984SOL     OW77784   9.722   3.119   8.413
91984SOL    HW177785   9.706   3.182   8.484
91984SOL    HW277786   9.634   3.090   8.387
91985SOL     OW77787   0.936   9.525  11.666
91985SOL    HW177788   0.863   9.493  11.614
91985SOL    HW277789   1.000   9.454  11.664
91986SOL     OW77790   2.312   2.575   8.797
91986SOL    HW177791   2.361   2.650   8.832
91986SOL    HW277792   2.304   2.515   8.872
91987SOL     OW77793   7.908   2.371  10.716
91987SOL    HW177794   8.000   2.397  10.707
91987SOL    HW277795   7.901   2.290  10.665
91988SOL     OW77796   4.409  11.774   2.433
91988SOL    HW177797   4.487  11.718   2.437
91988SOL    HW277798   4.336  11.717   2.456
91989SOL     OW77799  13.430   9.846   9.794
91989SOL    HW177800  13.409   9.819   9.704
91989SOL    HW277801  13.483   9.925   9.783
91990SOL     OW77802   0.771  12.804   6.710
91990SOL    HW177803   0.717  12.741   6.662
91990SOL    HW277804   0.847  12.754   6.737
91991SOL     OW77805   2.452   7.165  11.940
91991SOL    HW177806   2.486   7.098  11.998
91991SOL    HW277807   2.486   7.247  11.974
91992SOL     OW77808  11.256  13.908   8.031
91992SOL    HW177809  11.224  13.825   7.995
91992SOL    HW277810  11.344  13.888   8.063
91993SOL     OW77811   3.600   5.130  13.502
91993SOL    HW177812   3.623   5.121  13.410
91993SOL    HW277813   3.509   5.160  13.501
91994SOL     OW77814  11.082  13.032   6.771
91994SOL    HW177815  11.070  13.092   6.697
91994SOL    HW277816  10.997  12.991   6.784
91995SOL     OW77817   5.226  14.846   5.997
91995SOL    HW177818   5.297   0.014   6.042
91995SOL    HW277819   5.262  14.758   5.982
91996SOL     OW77820   1.836   8.201   0.775
91996SOL    HW177821   1.930   8.188   0.791
91996SOL    HW277822   1.793   8.143   0.838
91997SOL     OW77823   0.814   0.707   1.756
91997SOL    HW177824   0.793   0.658   1.836
91997SOL    HW277825   0.909   0.704   1.750
91998SOL     OW77826   5.100   5.304   4.623
91998SOL    HW177827   5.146   5.261   4.695
91998SOL    HW277828   5.097   5.396   4.647
91999SOL     OW77829   7.553  13.692   0.840
91999SOL    HW177830   7.510  13.759   0.894
91999SOL    HW277831   7.632  13.735   0.807
92000SOL     OW77832   4.628   8.555   9.866
92000SOL    HW177833   4.633   8.638   9.818
92000SOL    HW277834   4.686   8.496   9.818
92001SOL     OW77835  13.481  11.506   2.118
92001SOL    HW177836  13.550  11.502   2.184
92001SOL    HW277837  13.423  11.433   2.140
92002SOL     OW77838   0.469   0.659  12.255
92002SOL    HW177839   0.417   0.594  12.208
92002SOL    HW277840   0.441   0.743  12.217
92003SOL     OW77841  13.224  13.567   1.632
92003SOL    HW177842  13.241  13.475   1.653
92003SOL    HW277843  13.306  13.612   1.653
92004SOL     OW77844   0.618   4.086   1.418
92004SOL    HW177845   0.524   4.099   1.407
92004SOL    HW277846   0.633   3.994   1.398
92005SOL     OW77847   8.141  10.791  14.602
92005SOL    HW177848   8.119  10.814  14.692
92005SOL    HW277849   8.141  10.695  14.601
92006SOL     OW77850   4.974   5.651   2.660
92006SOL    HW177851   4.921   5.644   2.739
92006SOL    HW277852   4.910   5.663   2.589
92007SOL     OW77853  11.580   8.083   4.024
92007SOL    HW177854  11.589   8.176   4.046
92007SOL    HW277855  11.635   8.071   3.947
92008SOL     OW77856  13.763   5.591   5.479
92008SOL    HW177857  13.782   5.499   5.459
92008SOL    HW277858  13.668   5.599   5.469
92009SOL     OW77859   1.594   9.215   0.721
92009SOL    HW177860   1.631   9.267   0.793
92009SOL    HW277861   1.638   9.131   0.726
92010SOL     OW77862   3.235   7.868   6.279
92010SOL    HW177863   3.185   7.899   6.354
92010SOL    HW277864   3.245   7.945   6.223
92011SOL     OW77865  10.776   4.916   0.100
92011SOL    HW177866  10.800   4.846   0.160
92011SOL    HW277867  10.829   4.900   0.022
92012SOL     OW77868   9.739   2.340   7.441
92012SOL    HW177869   9.653   2.364   7.474
92012SOL    HW277870   9.724   2.264   7.385
92013SOL     OW77871   0.869   1.571   8.864
92013SOL    HW177872   0.920   1.533   8.792
92013SOL    HW277873   0.914   1.653   8.885
92014SOL     OW77874  11.839   4.332   6.695
92014SOL    HW177875  11.928   4.333   6.661
92014SOL    HW277876  11.843   4.276   6.772
92015SOL     OW77877   2.371  11.630  13.993
92015SOL    HW177878   2.327  11.605  14.074
92015SOL    HW277879   2.422  11.708  14.017
92016SOL     OW77880  12.407   8.335   8.731
92016SOL    HW177881  12.432   8.384   8.810
92016SOL    HW277882  12.322   8.372   8.706
92017SOL     OW77883   7.132   2.116  11.028
92017SOL    HW177884   7.044   2.126  11.063
92017SOL    HW277885   7.137   2.181  10.958
92018SOL     OW77886   3.024   0.668   0.931
92018SOL    HW177887   3.057   0.651   1.019
92018SOL    HW277888   3.077   0.611   0.875
92019SOL     OW77889  12.503   6.815  11.704
92019SOL    HW177890  12.438   6.810  11.634
92019SOL    HW277891  12.455   6.848  11.780
92020SOL     OW77892  10.881  11.649   6.477
92020SOL    HW177893  10.828  11.726   6.498
92020SOL    HW277894  10.835  11.576   6.519
92021SOL     OW77895   8.492  11.822  14.512
92021SOL    HW177896   8.467  11.833  14.604
92021SOL    HW277897   8.473  11.730  14.493
92022SOL     OW77898   3.413   3.736   6.935
92022SOL    HW177899   3.495   3.706   6.973
92022SOL    HW277900   3.350   3.730   7.007
92023SOL     OW77901  12.116   2.704  10.402
92023SOL    HW177902  12.136   2.613  10.383
92023SOL    HW277903  12.020   2.708  10.406
92024SOL     OW77904   1.157   0.438   0.531
92024SOL    HW177905   1.191   0.524   0.556
92024SOL    HW277906   1.207   0.414   0.453
92025SOL     OW77907   5.130  11.120   8.526
92025SOL    HW177908   5.106  11.034   8.492
92025SOL    HW277909   5.200  11.150   8.468
92026SOL     OW77910  11.799   9.924   3.994
92026SOL    HW177911  11.744   9.989   4.037
92026SOL    HW277912  11.742   9.885   3.928
92027SOL     OW77913  11.360  13.010   5.913
92027SOL    HW177914  11.409  13.009   5.995
92027SOL    HW277915  11.394  13.086   5.865
92028SOL     OW77916   8.735  12.255   9.100
92028SOL    HW177917   8.718  12.348   9.113
92028SOL    HW277918   8.664  12.226   9.042
92029SOL     OW77919  10.738  12.272   5.818
92029SOL    HW177920  10.651  12.237   5.838
92029SOL    HW277921  10.726  12.319   5.736
92030SOL     OW77922   9.539   9.754  11.526
92030SOL    HW177923   9.502   9.837  11.496
92030SOL    HW277924   9.575   9.774  11.612
92031SOL     OW77925   7.718  14.026   9.792
92031SOL    HW177926   7.718  14.110   9.746
92031SOL    HW277927   7.725  14.049   9.885
92032SOL     OW77928   8.006  13.551  14.348
92032SOL    HW177929   7.910  13.551  14.356
92032SOL    HW277930   8.023  13.603  14.270
92033SOL     OW77931  10.629  10.286  13.349
92033SOL    HW177932  10.626  10.382  13.341
92033SOL    HW277933  10.604  10.255  13.262
92034SOL     OW77934  13.198  14.101  12.279
92034SOL    HW177935  13.145  14.133  12.352
92034SOL    HW277936  13.188  14.167  12.211
92035SOL     OW77937   8.585  12.799  10.076
92035SOL    HW177938   8.564  12.871  10.134
92035SOL    HW277939   8.680  12.794  10.076
92036SOL     OW77940  11.813  11.980   4.719
92036SOL    HW177941  11.763  11.918   4.772
92036SOL    HW277942  11.749  12.048   4.696
92037SOL     OW77943   3.427   8.110   9.676
92037SOL    HW177944   3.510   8.066   9.691
92037SOL    HW277945   3.433   8.191   9.726
92038SOL     OW77946   2.568   7.356  10.215
92038SOL    HW177947   2.543   7.448  10.210
92038SOL    HW277948   2.528   7.315  10.138
92039SOL     OW77949   9.373   1.764   6.804
92039SOL    HW177950   9.303   1.735   6.746
92039SOL    HW277951   9.449   1.773   6.746
92040SOL     OW77952   6.857   0.341   1.618
92040SOL    HW177953   6.835   0.393   1.695
92040SOL    HW277954   6.923   0.279   1.649
92041SOL     OW77955  10.110  11.079   1.445
92041SOL    HW177956  10.038  11.048   1.390
92041SOL    HW277957  10.171  11.120   1.383
92042SOL     OW77958   6.307  12.009  11.547
92042SOL    HW177959   6.382  11.992  11.489
92042SOL    HW277960   6.346  12.045  11.626
92043SOL     OW77961   3.195   7.699   4.826
92043SOL    HW177962   3.162   7.623   4.777
92043SOL    HW277963   3.127   7.766   4.813
92044SOL     OW77964  12.566   7.890  14.753
92044SOL    HW177965  12.472   7.873  14.760
92044SOL    HW277966  12.607   7.825  14.810
92045SOL     OW77967   1.940   4.840  14.276
92045SOL    HW177968   1.989   4.761  14.251
92045SOL    HW277969   1.964   4.905  14.210
92046SOL     OW77970   3.907  11.346  13.288
92046SOL    HW177971   3.902  11.258  13.325
92046SOL    HW277972   3.957  11.396  13.354
92047SOL     OW77973   9.918   7.197  10.862
92047SOL    HW177974   9.933   7.264  10.796
92047SOL    HW277975   9.854   7.137  10.822
92048SOL     OW77976   0.614   7.221   5.175
92048SOL    HW177977   0.620   7.135   5.217
92048SOL    HW277978   0.520   7.240   5.174
92049SOL     OW77979   6.079  13.393   1.882
92049SOL    HW177980   6.129  13.321   1.843
92049SOL    HW277981   6.060  13.451   1.808
92050SOL     OW77982   4.759   4.627  14.258
92050SOL    HW177983   4.707   4.707  14.261
92050SOL    HW277984   4.752   4.591  14.346
92051SOL     OW77985   5.962   5.062   1.853
92051SOL    HW177986   6.036   5.024   1.900
92051SOL    HW277987   5.983   5.155   1.848
92052SOL     OW77988   8.967  13.789   7.331
92052SOL    HW177989   8.954  13.880   7.357
92052SOL    HW277990   8.891  13.743   7.366
92053SOL     OW77991   2.489   4.553   4.779
92053SOL    HW177992   2.573   4.535   4.821
92053SOL    HW277993   2.492   4.646   4.756
92054SOL     OW77994   8.577   6.377  12.061
92054SOL    HW177995   8.582   6.302  12.120
92054SOL    HW277996   8.632   6.443  12.103
92055SOL     OW77997   6.294   7.104   2.367
92055SOL    HW177998   6.211   7.067   2.398
92055SOL    HW277999   6.326   7.156   2.440
92056SOL     OW78000  14.827   1.062   3.352
92056SOL    HW178001  14.804   0.970   3.338
92056SOL    HW278002  14.858   1.092   3.266
92057SOL     OW78003   9.120  10.647  14.147
92057SOL    HW178004   9.053  10.642  14.079
92057SOL    HW278005   9.105  10.570  14.201
92058SOL     OW78006   7.267   1.555   3.224
92058SOL    HW178007   7.317   1.475   3.214
92058SOL    HW278008   7.320   1.609   3.283
92059SOL     OW78009   0.085   5.324  14.669
92059SOL    HW178010   0.009   5.321  14.726
92059SOL    HW278011   0.056   5.374  14.592
92060SOL     OW78012   2.633   1.084   2.436
92060SOL    HW178013   2.546   1.047   2.425
92060SOL    HW278014   2.691   1.022   2.391
92061SOL     OW78015   9.330   4.562   0.975
92061SOL    HW178016   9.347   4.545   0.882
92061SOL    HW278017   9.369   4.487   1.020
92062SOL     OW78018   7.753   3.344   0.006
92062SOL    HW178019   7.764   3.425  14.836
92062SOL    HW278020   7.762   3.370   0.098
92063SOL     OW78021  10.719   4.685   2.273
92063SOL    HW178022  10.647   4.742   2.249
92063SOL    HW278023  10.790   4.709   2.213
92064SOL     OW78024   7.680  14.867   3.776
92064SOL    HW178025   7.616  14.800   3.753
92064SOL    HW278026   7.637   0.041   3.844
92065SOL     OW78027  12.134   5.237   2.584
92065SOL    HW178028  12.230   5.240   2.589
92065SOL    HW278029  12.105   5.237   2.675
92066SOL     OW78030   5.053   4.087  13.232
92066SOL    HW178031   5.111   4.111  13.160
92066SOL    HW278032   5.057   3.991  13.235
92067SOL     OW78033   7.815   9.923  14.397
92067SOL    HW178034   7.777   9.885  14.475
92067SOL    HW278035   7.752   9.990  14.369
92068SOL     OW78036  12.746  11.615   4.839
92068SOL    HW178037  12.812  11.617   4.908
92068SOL    HW278038  12.758  11.530   4.796
92069SOL     OW78039   1.086   4.630   1.710
92069SOL    HW178040   1.132   4.547   1.704
92069SOL    HW278041   0.993   4.607   1.709
92070SOL     OW78042  11.551   4.492   6.099
92070SOL    HW178043  11.474   4.537   6.062
92070SOL    HW278044  11.558   4.411   6.049
92071SOL     OW78045   4.897   1.736   3.104
92071SOL    HW178046   4.975   1.779   3.139
92071SOL    HW278047   4.851   1.704   3.182
92072SOL     OW78048   5.587  12.206   1.416
92072SOL    HW178049   5.546  12.280   1.371
92072SOL    HW278050   5.638  12.162   1.348
92073SOL     OW78051   0.615   5.957   7.550
92073SOL    HW178052   0.658   5.884   7.506
92073SOL    HW278053   0.633   5.943   7.643
92074SOL     OW78054   5.126   8.066   4.581
92074SOL    HW178055   5.168   8.141   4.622
92074SOL    HW278056   5.032   8.087   4.582
92075SOL     OW78057   2.455   2.670   3.520
92075SOL    HW178058   2.411   2.704   3.443
92075SOL    HW278059   2.450   2.574   3.511
92076SOL     OW78060  11.441  11.164   1.451
92076SOL    HW178061  11.506  11.135   1.516
92076SOL    HW278062  11.425  11.256   1.473
92077SOL     OW78063   6.790   0.599  13.292
92077SOL    HW178064   6.714   0.548  13.265
92077SOL    HW278065   6.791   0.594  13.387
92078SOL     OW78066   4.828   4.252  11.033
92078SOL    HW178067   4.819   4.345  11.053
92078SOL    HW278068   4.881   4.217  11.104
92079SOL     OW78069  14.179   3.019   2.900
92079SOL    HW178070  14.195   2.944   2.956
92079SOL    HW278071  14.263   3.035   2.856
92080SOL     OW78072   4.962  12.841   2.548
92080SOL    HW178073   5.028  12.815   2.483
92080SOL    HW278074   4.917  12.916   2.509
92081SOL     OW78075   5.251  11.637   7.184
92081SOL    HW178076   5.208  11.722   7.184
92081SOL    HW278077   5.298  11.633   7.101
92082SOL     OW78078  14.119   5.492   9.621
92082SOL    HW178079  14.188   5.442   9.665
92082SOL    HW278080  14.131   5.582   9.651
92083SOL     OW78081  14.837   5.819   2.480
92083SOL    HW178082  14.775   5.891   2.475
92083SOL    HW278083  14.815   5.775   2.562
92084SOL     OW78084   5.367   2.162  13.722
92084SOL    HW178085   5.281   2.188  13.691
92084SOL    HW278086   5.392   2.230  13.784
92085SOL     OW78087   4.987   9.092  12.749
92085SOL    HW178088   4.905   9.138  12.767
92085SOL    HW278089   4.963   9.000  12.747
92086SOL     OW78090   7.388   5.838   6.756
92086SOL    HW178091   7.352   5.749   6.757
92086SOL    HW278092   7.466   5.832   6.701
92087SOL     OW78093  11.971   2.413   5.092
92087SOL    HW178094  11.975   2.318   5.091
92087SOL    HW278095  12.061   2.441   5.102
92088SOL     OW78096   3.333  14.846  11.898
92088SOL    HW178097   3.365  14.766  11.857
92088SOL    HW278098   3.323   0.029  11.825
92089SOL     OW78099   7.251   6.133   6.904
92089SOL    HW178100   7.342   6.161   6.913
92089SOL    HW278101   7.219   6.124   6.994
92090SOL     OW78102   0.391   6.120   2.122
92090SOL    HW178103   0.430   6.126   2.209
92090SOL    HW278104   0.380   6.026   2.108
92091SOL     OW78105   6.281   6.424   9.392
92091SOL    HW178106   6.245   6.391   9.474
92091SOL    HW278107   6.360   6.372   9.378
92092SOL     OW78108   9.253  11.581  10.229
92092SOL    HW178109   9.257  11.624  10.315
92092SOL    HW278110   9.301  11.640  10.171
92093SOL     OW78111   8.577   1.933   3.665
92093SOL    HW178112   8.522   1.866   3.704
92093SOL    HW278113   8.598   1.992   3.738
92094SOL     OW78114   1.637   6.212  11.816
92094SOL    HW178115   1.624   6.299  11.852
92094SOL    HW278116   1.664   6.158  11.890
92095SOL     OW78117  13.492  11.558   0.381
92095SOL    HW178118  13.580  11.574   0.347
92095SOL    HW278119  13.506  11.534   0.473
92096SOL     OW78120   5.335  11.827  10.630
92096SOL    HW178121   5.371  11.739  10.643
92096SOL    HW278122   5.245  11.813  10.602
92097SOL     OW78123   9.485   0.499   0.961
92097SOL    HW178124   9.465   0.554   0.885
92097SOL    HW278125   9.557   0.444   0.933
92098SOL     OW78126   9.255   5.356   7.115
92098SOL    HW178127   9.198   5.280   7.129
92098SOL    HW278128   9.291   5.376   7.201
92099SOL     OW78129  11.446   6.042   5.610
92099SOL    HW178130  11.402   6.060   5.693
92099SOL    HW278131  11.425   6.117   5.555
92100SOL     OW78132   5.659  10.081  13.241
92100SOL    HW178133   5.655  10.047  13.330
92100SOL    HW278134   5.586  10.142  13.235
92101SOL     OW78135   3.022  12.175   8.825
92101SOL    HW178136   2.967  12.198   8.750
92101SOL    HW278137   3.111  12.179   8.792
92102SOL     OW78138  11.997  10.074   4.573
92102SOL    HW178139  12.035  10.037   4.492
92102SOL    HW278140  11.903  10.058   4.564
92103SOL     OW78141  12.913   8.379   7.303
92103SOL    HW178142  12.993   8.368   7.251
92103SOL    HW278143  12.931   8.330   7.383
92104SOL     OW78144   8.216   2.225   0.662
92104SOL    HW178145   8.244   2.269   0.582
92104SOL    HW278146   8.155   2.158   0.632
92105SOL     OW78147  14.404   9.672   0.911
92105SOL    HW178148  14.457   9.708   0.982
92105SOL    HW278149  14.402   9.741   0.845
92106SOL     OW78150   7.630   5.715   2.816
92106SOL    HW178151   7.687   5.718   2.739
92106SOL    HW278152   7.636   5.625   2.847
92107SOL     OW78153   6.169   0.677   3.501
92107SOL    HW178154   6.197   0.742   3.436
92107SOL    HW278155   6.089   0.640   3.464
92108SOL     OW78156   5.495  11.705  11.056
92108SOL    HW178157   5.524  11.617  11.079
92108SOL    HW278158   5.437  11.731  11.128
92109SOL     OW78159   4.550  12.288  11.527
92109SOL    HW178160   4.591  12.374  11.529
92109SOL    HW278161   4.468  12.299  11.576
92110SOL     OW78162  13.660   6.453  11.478
92110SOL    HW178163  13.678   6.494  11.562
92110SOL    HW278164  13.580   6.495  11.447
92111SOL     OW78165  13.717   8.228   4.625
92111SOL    HW178166  13.778   8.166   4.587
92111SOL    HW278167  13.753   8.247   4.712
92112SOL     OW78168  10.510   1.490   2.228
92112SOL    HW178169  10.421   1.481   2.264
92112SOL    HW278170  10.496   1.515   2.137
92113SOL     OW78171   9.149   4.207  13.091
92113SOL    HW178172   9.106   4.285  13.057
92113SOL    HW278173   9.138   4.142  13.021
92114SOL     OW78174   2.185  10.387   3.953
92114SOL    HW178175   2.237  10.433   4.019
92114SOL    HW278176   2.197  10.294   3.973
92115SOL     OW78177   7.084   1.249   2.343
92115SOL    HW178178   7.112   1.291   2.262
92115SOL    HW278179   7.090   1.155   2.325
92116SOL     OW78180  10.034   2.127   5.797
92116SOL    HW178181  10.104   2.081   5.752
92116SOL    HW278182  10.029   2.213   5.754
92117SOL     OW78183  12.266  12.482   6.270
92117SOL    HW178184  12.175  12.507   6.252
92117SOL    HW278185  12.267  12.466   6.364
92118SOL     OW78186   8.941   5.819  14.141
92118SOL    HW178187   8.994   5.815  14.220
92118SOL    HW278188   8.922   5.728  14.120
92119SOL     OW78189   3.755   3.466   2.121
92119SOL    HW178190   3.821   3.485   2.188
92119SOL    HW278191   3.683   3.425   2.169
92120SOL     OW78192  10.998   6.388   1.172
92120SOL    HW178193  11.012   6.359   1.263
92120SOL    HW278194  10.959   6.312   1.129
92121SOL     OW78195  11.935  11.534   3.258
92121SOL    HW178196  11.873  11.479   3.211
92121SOL    HW278197  12.016  11.528   3.208
92122SOL     OW78198   5.478   3.727  11.212
92122SOL    HW178199   5.563   3.741  11.253
92122SOL    HW278200   5.499   3.705  11.121
92123SOL     OW78201  14.439   8.849   2.323
92123SOL    HW178202  14.451   8.754   2.323
92123SOL    HW278203  14.364   8.864   2.266
92124SOL     OW78204   0.957   7.521   1.026
92124SOL    HW178205   1.029   7.584   1.031
92124SOL    HW278206   0.910   7.532   1.109
92125SOL     OW78207   9.488   3.474   1.036
92125SOL    HW178208   9.410   3.510   0.994
92125SOL    HW278209   9.481   3.380   1.023
92126SOL     OW78210   4.559   2.400  13.076
92126SOL    HW178211   4.478   2.362  13.043
92126SOL    HW278212   4.536   2.437  13.161
92127SOL     OW78213  10.828   4.312   6.417
92127SOL    HW178214  10.738   4.299   6.387
92127SOL    HW278215  10.863   4.380   6.359
92128SOL     OW78216  14.044  10.561   7.898
92128SOL    HW178217  14.013  10.648   7.873
92128SOL    HW278218  14.121  10.578   7.952
92129SOL     OW78219   3.810   7.709   3.026
92129SOL    HW178220   3.785   7.796   2.995
92129SOL    HW278221   3.756   7.649   2.974
92130SOL     OW78222   1.515   2.934  13.789
92130SOL    HW178223   1.513   2.839  13.778
92130SOL    HW278224   1.497   2.968  13.701
92131SOL     OW78225   6.492   6.098  11.354
92131SOL    HW178226   6.568   6.081  11.410
92131SOL    HW278227   6.419   6.108  11.416
92132SOL     OW78228   1.382   6.583   3.389
92132SOL    HW178229   1.389   6.489   3.407
92132SOL    HW278230   1.447   6.600   3.321
92133SOL     OW78231   1.789  11.828  12.240
92133SOL    HW178232   1.805  11.746  12.194
92133SOL    HW278233   1.872  11.875  12.236
92134SOL     OW78234   1.288   1.706  14.514
92134SOL    HW178235   1.345   1.681  14.587
92134SOL    HW278236   1.348   1.714  14.439
92135SOL     OW78237   1.065   2.098   7.874
92135SOL    HW178238   1.051   2.140   7.960
92135SOL    HW278239   1.076   2.005   7.894
92136SOL     OW78240  11.857   1.393   2.068
92136SOL    HW178241  11.924   1.451   2.104
92136SOL    HW278242  11.893   1.363   1.984
92137SOL     OW78243  10.285  13.703   4.911
92137SOL    HW178244  10.358  13.758   4.940
92137SOL    HW278245  10.219  13.766   4.880
92138SOL     OW78246   3.756  12.618   8.701
92138SOL    HW178247   3.847  12.605   8.672
92138SOL    HW278248   3.727  12.532   8.729
92139SOL     OW78249   0.330  10.529  14.306
92139SOL    HW178250   0.410  10.539  14.254
92139SOL    HW278251   0.319  10.614  14.350
92140SOL     OW78252  12.722   7.008   4.902
92140SOL    HW178253  12.793   6.958   4.862
92140SOL    HW278254  12.736   6.998   4.996
92141SOL     OW78255   7.388  11.107   4.139
92141SOL    HW178256   7.325  11.047   4.099
92141SOL    HW278257   7.335  11.166   4.193
92142SOL     OW78258   5.117   4.889  10.329
92142SOL    HW178259   5.082   4.929  10.250
92142SOL    HW278260   5.092   4.949  10.400
92143SOL     OW78261   6.511  11.129   6.201
92143SOL    HW178262   6.601  11.155   6.181
92143SOL    HW278263   6.463  11.212   6.207
92144SOL     OW78264   0.964  13.989   7.160
92144SOL    HW178265   0.969  14.067   7.215
92144SOL    HW278266   1.051  13.948   7.168
92145SOL     OW78267   4.133   8.778  13.850
92145SOL    HW178268   4.128   8.839  13.777
92145SOL    HW278269   4.043   8.770  13.881
92146SOL     OW78270  10.471   2.897   6.713
92146SOL    HW178271  10.413   2.840   6.764
92146SOL    HW278272  10.508   2.840   6.645
92147SOL     OW78273   7.229   6.078   7.674
92147SOL    HW178274   7.254   6.043   7.760
92147SOL    HW278275   7.301   6.137   7.651
92148SOL     OW78276   3.584   5.958  10.101
92148SOL    HW178277   3.501   5.926  10.065
92148SOL    HW278278   3.633   5.879  10.123
92149SOL     OW78279   1.633  13.924   5.192
92149SOL    HW178280   1.693  13.851   5.207
92149SOL    HW278281   1.636  13.940   5.098
92150SOL     OW78282  11.115   5.746   7.346
92150SOL    HW178283  11.121   5.653   7.366
92150SOL    HW278284  11.158   5.789   7.420
92151SOL     OW78285   6.840  13.416   8.551
92151SOL    HW178286   6.751  13.389   8.574
92151SOL    HW278287   6.828  13.485   8.486
92152SOL     OW78288  13.997  12.646   3.452
92152SOL    HW178289  13.921  12.604   3.491
92152SOL    HW278290  14.062  12.650   3.522
92153SOL     OW78291   5.044   1.175   2.412
92153SOL    HW178292   5.065   1.203   2.322
92153SOL    HW278293   5.126   1.186   2.460
92154SOL     OW78294   3.353   0.745  11.156
92154SOL    HW178295   3.334   0.743  11.063
92154SOL    HW278296   3.414   0.818  11.166
92155SOL     OW78297  11.853  10.526   0.013
92155SOL    HW178298  11.806  10.608   0.024
92155SOL    HW278299  11.912  10.541  14.817
92156SOL     OW78300   1.054  13.266   2.049
92156SOL    HW178301   1.130  13.302   2.094
92156SOL    HW278302   1.035  13.185   2.095
92157SOL     OW78303   4.272   0.949   4.013
92157SOL    HW178304   4.312   0.864   3.994
92157SOL    HW278305   4.250   0.984   3.927
92158SOL     OW78306  12.920   3.696   1.904
92158SOL    HW178307  12.982   3.715   1.834
92158SOL    HW278308  12.872   3.619   1.873
92159SOL     OW78309  14.539   0.814   2.526
92159SOL    HW178310  14.477   0.876   2.564
92159SOL    HW278311  14.600   0.796   2.598
92160SOL     OW78312   5.398  11.948   3.124
92160SOL    HW178313   5.356  11.874   3.166
92160SOL    HW278314   5.491  11.929   3.127
92161SOL     OW78315  11.457  13.204  10.202
92161SOL    HW178316  11.442  13.132  10.141
92161SOL    HW278317  11.552  13.206  10.213
92162SOL     OW78318   4.341  11.631   7.323
92162SOL    HW178319   4.274  11.563   7.323
92162SOL    HW278320   4.417  11.591   7.282
92163SOL     OW78321  14.699   9.284  14.876
92163SOL    HW178322  14.611   9.250   0.013
92163SOL    HW278323  14.715   9.344   0.070
92164SOL     OW78324   9.299   2.639   1.370
92164SOL    HW178325   9.256   2.555   1.388
92164SOL    HW278326   9.390   2.616   1.350
92165SOL     OW78327  10.767   7.842   5.896
92165SOL    HW178328  10.676   7.871   5.887
92165SOL    HW278329  10.814   7.887   5.826
92166SOL     OW78330  14.856  12.680   5.614
92166SOL    HW178331   0.053  12.640   5.656
92166SOL    HW278332  14.793  12.608   5.607
92167SOL     OW78333  12.237   7.657  11.038
92167SOL    HW178334  12.183   7.606  11.100
92167SOL    HW278335  12.325   7.621  11.048
92168SOL     OW78336   8.046   5.430  11.737
92168SOL    HW178337   8.000   5.360  11.784
92168SOL    HW278338   7.990   5.507  11.748
92169SOL     OW78339  11.481   0.194   3.839
92169SOL    HW178340  11.455   0.281   3.809
92169SOL    HW278341  11.486   0.201   3.934
92170SOL     OW78342   9.850   1.066   0.580
92170SOL    HW178343   9.818   1.121   0.508
92170SOL    HW278344   9.772   1.018   0.610
92171SOL     OW78345   2.336   8.427  12.192
92171SOL    HW178346   2.356   8.339  12.157
92171SOL    HW278347   2.294   8.472  12.119
92172SOL     OW78348  13.940  10.619   1.206
92172SOL    HW178349  13.861  10.567   1.200
92172SOL    HW278350  13.980  10.613   1.119
92173SOL     OW78351  13.198   0.798   0.285
92173SOL    HW178352  13.213   0.892   0.277
92173SOL    HW278353  13.254   0.758   0.218
92174SOL     OW78354   8.606   0.015   0.144
92174SOL    HW178355   8.700   0.023   0.128
92174SOL    HW278356   8.599   0.010   0.240
92175SOL     OW78357   2.798  12.387  12.563
92175SOL    HW178358   2.837  12.368  12.648
92175SOL    HW278359   2.771  12.301  12.529
92176SOL     OW78360  10.409  12.375   5.559
92176SOL    HW178361  10.366  12.315   5.499
92176SOL    HW278362  10.338  12.414   5.610
92177SOL     OW78363   2.141  14.275  13.927
92177SOL    HW178364   2.179  14.194  13.961
92177SOL    HW278365   2.195  14.345  13.965
92178SOL     OW78366   1.660   7.376   8.384
92178SOL    HW178367   1.624   7.292   8.412
92178SOL    HW278368   1.709   7.408   8.460
92179SOL     OW78369   6.742   5.092   6.479
92179SOL    HW178370   6.838   5.097   6.478
92179SOL    HW278371   6.722   5.004   6.511
92180SOL     OW78372   1.213   9.631   0.689
92180SOL    HW178373   1.150   9.643   0.759
92180SOL    HW278374   1.263   9.553   0.714
92181SOL     OW78375   7.448   0.914   7.121
92181SOL    HW178376   7.441   0.872   7.207
92181SOL    HW278377   7.500   0.993   7.137
92182SOL     OW78378  11.058   5.587   5.461
92182SOL    HW178379  11.023   5.549   5.381
92182SOL    HW278380  11.101   5.668   5.433
92183SOL     OW78381   8.777  13.049   0.287
92183SOL    HW178382   8.731  13.130   0.312
92183SOL    HW278383   8.719  12.979   0.316
92184SOL     OW78384   0.608   9.543   6.459
92184SOL    HW178385   0.615   9.577   6.548
92184SOL    HW278386   0.672   9.472   6.455
92185SOL     OW78387  11.317   1.718   0.088
92185SOL    HW178388  11.282   1.765   0.012
92185SOL    HW278389  11.292   1.627   0.074
92186SOL     OW78390  12.882   2.982  11.243
92186SOL    HW178391  12.914   2.923  11.311
92186SOL    HW278392  12.937   2.963  11.167
92187SOL     OW78393   8.926  11.736   5.026
92187SOL    HW178394   8.944  11.754   5.118
92187SOL    HW278395   8.961  11.812   4.979
92188SOL     OW78396  14.605  13.926  10.240
92188SOL    HW178397  14.662  14.002  10.251
92188SOL    HW278398  14.530  13.959  10.190
92189SOL     OW78399  12.791   6.775   5.483
92189SOL    HW178400  12.787   6.869   5.469
92189SOL    HW278401  12.870   6.747   5.436
92190SOL     OW78402   6.533   4.942  13.918
92190SOL    HW178403   6.566   5.023  13.879
92190SOL    HW278404   6.438   4.948  13.910
92191SOL     OW78405   7.666  13.875   5.646
92191SOL    HW178406   7.581  13.871   5.691
92191SOL    HW278407   7.721  13.929   5.703
92192SOL     OW78408   8.876   4.760  14.751
92192SOL    HW178409   8.910   4.745  14.663
92192SOL    HW278410   8.951   4.741  14.808
92193SOL     OW78411   2.375   8.225   4.796
92193SOL    HW178412   2.407   8.211   4.707
92193SOL    HW278413   2.393   8.317   4.815
92194SOL     OW78414  11.068   1.193   3.444
92194SOL    HW178415  11.104   1.272   3.404
92194SOL    HW278416  11.073   1.126   3.375
92195SOL     OW78417   5.074   1.035  12.934
92195SOL    HW178418   5.094   0.970  13.001
92195SOL    HW278419   4.994   1.077  12.965
92196SOL     OW78420   5.817  11.592   2.363
92196SOL    HW178421   5.825  11.497   2.357
92196SOL    HW278422   5.880  11.617   2.431
92197SOL     OW78423   9.423   8.760   2.755
92197SOL    HW178424   9.355   8.745   2.689
92197SOL    HW278425   9.472   8.678   2.757
92198SOL     OW78426   1.989   9.688  11.400
92198SOL    HW178427   2.080   9.659  11.392
92198SOL    HW278428   1.975   9.743  11.323
92199SOL     OW78429   9.756   1.756   0.996
92199SOL    HW178430   9.682   1.701   1.021
92199SOL    HW278431   9.724   1.846   1.009
92200SOL     OW78432   9.312   8.633  11.983
92200SOL    HW178433   9.246   8.639  11.914
92200SOL    HW278434   9.313   8.720  12.023
92201SOL     OW78435  13.503   5.027   1.052
92201SOL    HW178436  13.547   5.107   1.022
92201SOL    HW278437  13.574   4.970   1.081
92202SOL     OW78438   6.164   5.627   1.737
92202SOL    HW178439   6.087   5.642   1.683
92202SOL    HW278440   6.145   5.546   1.785
92203SOL     OW78441   7.407   2.382   3.581
92203SOL    HW178442   7.380   2.448   3.644
92203SOL    HW278443   7.410   2.300   3.631
92204SOL     OW78444  10.942  14.493   9.798
92204SOL    HW178445  10.862  14.518   9.753
92204SOL    HW278446  10.913  14.436   9.869
92205SOL     OW78447   5.972   4.652  13.722
92205SOL    HW178448   5.917   4.692  13.790
92205SOL    HW278449   5.996   4.567  13.759
92206SOL     OW78450   3.175  13.813  11.942
92206SOL    HW178451   3.161  13.814  12.037
92206SOL    HW278452   3.185  13.905  11.917
92207SOL     OW78453   6.503   8.775   2.890
92207SOL    HW178454   6.469   8.833   2.958
92207SOL    HW278455   6.580   8.821   2.855
92208SOL     OW78456   0.437   5.066   6.853
92208SOL    HW178457   0.440   5.035   6.943
92208SOL    HW278458   0.500   5.012   6.806
92209SOL     OW78459   4.473  14.855  13.766
92209SOL    HW178460   4.452   0.058  13.811
92209SOL    HW278461   4.549  14.821  13.813
92210SOL     OW78462  11.461  14.111   7.471
92210SOL    HW178463  11.521  14.174   7.511
92210SOL    HW278464  11.376  14.156   7.471
92211SOL     OW78465   8.430   9.938  11.817
92211SOL    HW178466   8.358   9.890  11.776
92211SOL    HW278467   8.506   9.919  11.762
92212SOL     OW78468  12.127   3.039   1.744
92212SOL    HW178469  12.084   2.962   1.709
92212SOL    HW278470  12.072   3.065   1.819
92213SOL     OW78471   7.750   4.196  14.318
92213SOL    HW178472   7.783   4.164  14.234
92213SOL    HW278473   7.657   4.171  14.318
92214SOL     OW78474  14.692   6.151  13.416
92214SOL    HW178475  14.631   6.102  13.360
92214SOL    HW278476  14.721   6.223  13.361
92215SOL     OW78477   4.791   6.636  14.235
92215SOL    HW178478   4.781   6.615  14.142
92215SOL    HW278479   4.845   6.715  14.236
92216SOL     OW78480   7.423   8.684   6.241
92216SOL    HW178481   7.505   8.654   6.201
92216SOL    HW278482   7.361   8.612   6.225
92217SOL     OW78483   0.915   9.730   0.289
92217SOL    HW178484   0.995   9.685   0.316
92217SOL    HW278485   0.883   9.774   0.367
92218SOL     OW78486  14.433  12.200  10.484
92218SOL    HW178487  14.450  12.176  10.575
92218SOL    HW278488  14.495  12.270  10.464
92219SOL     OW78489  14.073   3.894   0.358
92219SOL    HW178490  13.997   3.885   0.300
92219SOL    HW278491  14.034   3.902   0.446
92220SOL     OW78492  13.453   6.369   0.589
92220SOL    HW178493  13.441   6.385   0.495
92220SOL    HW278494  13.547   6.376   0.603
92221SOL     OW78495   8.700   9.861   8.388
92221SOL    HW178496   8.641   9.933   8.410
92221SOL    HW278497   8.779   9.904   8.356
92222SOL     OW78498   0.672  14.195   6.959
92222SOL    HW178499   0.643  14.124   7.015
92222SOL    HW278500   0.713  14.258   7.018
92223SOL     OW78501  10.233   2.757   1.672
92223SOL    HW178502  10.297   2.806   1.722
92223SOL    HW278503  10.279   2.732   1.591
92224SOL     OW78504   9.612  14.675   0.844
92224SOL    HW178505   9.669  14.619   0.897
92224SOL    HW278506   9.528  14.674   0.890
92225SOL     OW78507  11.974  10.585   1.358
92225SOL    HW178508  12.054  10.566   1.309
92225SOL    HW278509  12.000  10.579   1.450
92226SOL     OW78510   3.140   5.953   3.659
92226SOL    HW178511   3.138   6.022   3.725
92226SOL    HW278512   3.191   5.990   3.587
92227SOL     OW78513   9.386   7.352  12.991
92227SOL    HW178514   9.378   7.446  12.976
92227SOL    HW278515   9.337   7.337  13.072
92228SOL     OW78516   4.771   8.359   3.398
92228SOL    HW178517   4.770   8.295   3.469
92228SOL    HW278518   4.688   8.344   3.352
92229SOL     OW78519  12.905   5.365  14.450
92229SOL    HW178520  12.989   5.319  14.459
92229SOL    HW278521  12.840   5.295  14.446
92230SOL     OW78522   6.373   7.138   4.252
92230SOL    HW178523   6.379   7.224   4.210
92230SOL    HW278524   6.335   7.155   4.338
92231SOL     OW78525   9.515   3.164   0.638
92231SOL    HW178526   9.481   3.175   0.549
92231SOL    HW278527   9.454   3.103   0.680
92232SOL     OW78528   7.976   7.106  14.470
92232SOL    HW178529   7.885   7.129  14.453
92232SOL    HW278530   7.994   7.033  14.409
92233SOL     OW78531  14.080   9.092   8.639
92233SOL    HW178532  14.032   9.105   8.558
92233SOL    HW278533  14.143   9.164   8.643
92234SOL     OW78534   0.916   3.381   6.783
92234SOL    HW178535   0.880   3.350   6.867
92234SOL    HW278536   1.006   3.405   6.804
92235SOL     OW78537   3.890   1.660   5.768
92235SOL    HW178538   3.897   1.692   5.678
92235SOL    HW278539   3.855   1.571   5.759
92236SOL     OW78540   4.164  12.297   8.614
92236SOL    HW178541   4.239  12.265   8.665
92236SOL    HW278542   4.203  12.356   8.550
92237SOL     OW78543   1.822   3.189   2.463
92237SOL    HW178544   1.872   3.157   2.538
92237SOL    HW278545   1.879   3.253   2.421
92238SOL     OW78546   6.977   5.835   9.415
92238SOL    HW178547   6.929   5.882   9.347
92238SOL    HW278548   6.915   5.769   9.447
92239SOL     OW78549  13.382   1.310   1.563
92239SOL    HW178550  13.431   1.390   1.583
92239SOL    HW278551  13.292   1.330   1.588
92240SOL     OW78552   1.047   6.706   0.196
92240SOL    HW178553   1.047   6.619   0.237
92240SOL    HW278554   1.010   6.764   0.263
92241SOL     OW78555   1.722   3.382  13.067
92241SOL    HW178556   1.780   3.306  13.069
92241SOL    HW278557   1.715   3.404  12.974
92242SOL     OW78558  14.197  13.729   9.684
92242SOL    HW178559  14.161  13.674   9.754
92242SOL    HW278560  14.252  13.669   9.633
92243SOL     OW78561  14.773   9.322  14.386
92243SOL    HW178562  14.749   9.292  14.298
92243SOL    HW278563  14.838   9.391  14.371
92244SOL     OW78564  11.541  14.174   9.665
92244SOL    HW178565  11.512  14.086   9.689
92244SOL    HW278566  11.578  14.164   9.578
92245SOL     OW78567   2.824   7.663   2.288
92245SOL    HW178568   2.845   7.756   2.282
92245SOL    HW278569   2.906   7.622   2.314
92246SOL     OW78570   2.793   1.214   1.374
92246SOL    HW178571   2.826   1.148   1.313
92246SOL    HW278572   2.832   1.190   1.458
92247SOL     OW78573   0.743   9.474   7.007
92247SOL    HW178574   0.719   9.562   7.035
92247SOL    HW278575   0.794   9.439   7.080
92248SOL     OW78576  10.192   8.806   2.503
92248SOL    HW178577  10.214   8.715   2.522
92248SOL    HW278578  10.264   8.838   2.449
92249SOL     OW78579   0.133   5.635   6.811
92249SOL    HW178580   0.102   5.695   6.743
92249SOL    HW278581   0.189   5.690   6.867
92250SOL     OW78582   2.399  12.994  10.632
92250SOL    HW178583   2.332  12.933  10.663
92250SOL    HW278584   2.482  12.955  10.660
92251SOL     OW78585   0.823   0.980   4.557
92251SOL    HW178586   0.745   0.962   4.506
92251SOL    HW278587   0.892   0.929   4.515
92252SOL     OW78588   5.562   2.330   8.082
92252SOL    HW178589   5.508   2.290   8.014
92252SOL    HW278590   5.649   2.291   8.069
92253SOL     OW78591   2.961  14.703   7.662
92253SOL    HW178592   2.940  14.779   7.608
92253SOL    HW278593   2.877  14.659   7.674
92254SOL     OW78594  13.652   2.743  11.108
92254SOL    HW178595  13.748   2.740  11.108
92254SOL    HW278596  13.628   2.741  11.015
92255SOL     OW78597   4.873   8.031  11.279
92255SOL    HW178598   4.879   8.012  11.186
92255SOL    HW278599   4.946   7.983  11.318
92256SOL     OW78600   6.473   5.952   7.862
92256SOL    HW178601   6.492   5.867   7.822
92256SOL    HW278602   6.428   6.001   7.793
92257SOL     OW78603   4.492   2.583   0.975
92257SOL    HW178604   4.532   2.620   0.897
92257SOL    HW278605   4.399   2.576   0.954
92258SOL     OW78606  13.144   7.711  13.642
92258SOL    HW178607  13.224   7.764  13.647
92258SOL    HW278608  13.172   7.623  13.669
92259SOL     OW78609  13.399   4.370  10.866
92259SOL    HW178610  13.490   4.348  10.846
92259SOL    HW278611  13.348   4.298  10.830
92260SOL     OW78612   1.134   6.838   6.289
92260SOL    HW178613   1.108   6.747   6.282
92260SOL    HW278614   1.106   6.878   6.206
92261SOL     OW78615   4.633   7.465   2.833
92261SOL    HW178616   4.565   7.405   2.803
92261SOL    HW278617   4.714   7.431   2.795
92262SOL     OW78618  13.002   4.830  13.960
92262SOL    HW178619  12.969   4.916  13.933
92262SOL    HW278620  12.956   4.813  14.043
92263SOL     OW78621   8.169  10.427   5.055
92263SOL    HW178622   8.193  10.483   4.981
92263SOL    HW278623   8.078  10.403   5.039
92264SOL     OW78624  12.583  12.601  14.451
92264SOL    HW178625  12.499  12.559  14.431
92264SOL    HW278626  12.561  12.671  14.512
92265SOL     OW78627   8.146   1.202   1.904
92265SOL    HW178628   8.213   1.254   1.860
92265SOL    HW278629   8.185   1.179   1.989
92266SOL     OW78630   7.682   0.739  10.772
92266SOL    HW178631   7.629   0.662  10.794
92266SOL    HW278632   7.696   0.733  10.678
92267SOL     OW78633  13.087  11.355   4.736
92267SOL    HW178634  13.102  11.441   4.775
92267SOL    HW278635  12.994  11.337   4.753
92268SOL     OW78636  14.573   1.656   1.627
92268SOL    HW178637  14.632   1.609   1.568
92268SOL    HW278638  14.622   1.734   1.653
92269SOL     OW78639  10.491   4.290   2.901
92269SOL    HW178640  10.540   4.333   2.830
92269SOL    HW278641  10.459   4.209   2.862
92270SOL     OW78642   5.482   8.634   0.195
92270SOL    HW178643   5.390   8.643   0.223
92270SOL    HW278644   5.511   8.552   0.234
92271SOL     OW78645   7.720  13.575   8.485
92271SOL    HW178646   7.720  13.665   8.518
92271SOL    HW278647   7.806  13.564   8.444
92272SOL     OW78648   9.539  14.234   4.100
92272SOL    HW178649   9.547  14.161   4.161
92272SOL    HW278650   9.450  14.268   4.114
92273SOL     OW78651  12.855   8.695   3.758
92273SOL    HW178652  12.803   8.694   3.838
92273SOL    HW278653  12.913   8.620   3.766
92274SOL     OW78654  10.078   1.409  12.703
92274SOL    HW178655  10.064   1.426  12.610
92274SOL    HW278656  10.001   1.445  12.746
92275SOL     OW78657  10.824   6.856  14.568
92275SOL    HW178658  10.864   6.836  14.484
92275SOL    HW278659  10.730   6.854  14.552
92276SOL     OW78660   4.000  12.883   5.600
92276SOL    HW178661   4.067  12.950   5.587
92276SOL    HW278662   3.918  12.932   5.604
92277SOL     OW78663  13.380   5.932  13.870
92277SOL    HW178664  13.426   6.004  13.827
92277SOL    HW278665  13.430   5.916  13.951
92278SOL     OW78666   0.904   2.841  11.343
92278SOL    HW178667   0.958   2.907  11.300
92278SOL    HW278668   0.963   2.767  11.358
92279SOL     OW78669   2.236   6.426   0.435
92279SOL    HW178670   2.248   6.493   0.368
92279SOL    HW278671   2.275   6.464   0.514
92280SOL     OW78672   1.217   0.927   0.481
92280SOL    HW178673   1.207   0.993   0.413
92280SOL    HW278674   1.159   0.956   0.551
92281SOL     OW78675   2.272   3.198  10.181
92281SOL    HW178676   2.244   3.136  10.114
92281SOL    HW278677   2.211   3.184  10.253
92282SOL     OW78678  11.832   6.360  10.933
92282SOL    HW178679  11.786   6.307  10.868
92282SOL    HW278680  11.785   6.344  11.015
92283SOL     OW78681   0.895   8.075   7.545
92283SOL    HW178682   0.844   8.058   7.625
92283SOL    HW278683   0.940   8.158   7.563
92284SOL     OW78684   0.957   3.380   7.901
92284SOL    HW178685   0.922   3.379   7.990
92284SOL    HW278686   0.912   3.308   7.856
92285SOL     OW78687   6.771  12.680   9.825
92285SOL    HW178688   6.753  12.752   9.885
92285SOL    HW278689   6.857  12.702   9.788
92286SOL     OW78690  11.434   1.078   1.396
92286SOL    HW178691  11.371   1.005   1.398
92286SOL    HW278692  11.419   1.120   1.312
92287SOL     OW78693  13.874   0.076   2.627
92287SOL    HW178694  13.950   0.103   2.575
92287SOL    HW278695  13.874   0.136   2.702
92288SOL     OW78696   3.540  10.520   6.205
92288SOL    HW178697   3.503  10.433   6.191
92288SOL    HW278698   3.605  10.508   6.274
92289SOL     OW78699   7.081   3.036  11.826
92289SOL    HW178700   7.022   2.964  11.805
92289SOL    HW278701   7.162   3.014  11.780
92290SOL     OW78702   1.413   7.308   7.112
92290SOL    HW178703   1.487   7.360   7.143
92290SOL    HW278704   1.448   7.220   7.101
92291SOL     OW78705   9.607  14.077  11.179
92291SOL    HW178706   9.621  14.171  11.180
92291SOL    HW278707   9.533  14.064  11.119
92292SOL     OW78708   2.032   0.963  11.185
92292SOL    HW178709   1.956   1.021  11.185
92292SOL    HW278710   2.057   0.957  11.093
92293SOL     OW78711   9.331  12.525   4.270
92293SOL    HW178712   9.302  12.549   4.358
92293SOL    HW278713   9.426  12.515   4.278
92294SOL     OW78714   9.151   3.384  13.996
92294SOL    HW178715   9.234   3.418  14.028
92294SOL    HW278716   9.170   3.296  13.965
92295SOL     OW78717   7.351   7.306   2.675
92295SOL    HW178718   7.267   7.293   2.630
92295SOL    HW278719   7.374   7.397   2.657
92296SOL     OW78720  12.011   0.008   7.979
92296SOL    HW178721  12.080  14.869   7.916
92296SOL    HW278722  11.946   0.058   7.929
92297SOL     OW78723   4.884  12.307   9.078
92297SOL    HW178724   4.831  12.375   9.037
92297SOL    HW278725   4.832  12.227   9.069
92298SOL     OW78726   4.346  14.415   0.578
92298SOL    HW178727   4.285  14.434   0.649
92298SOL    HW278728   4.308  14.341   0.531
92299SOL     OW78729   3.276   5.965   6.826
92299SOL    HW178730   3.265   6.034   6.892
92299SOL    HW278731   3.190   5.923   6.820
92300SOL     OW78732   4.716   9.261  13.123
92300SOL    HW178733   4.776   9.194  13.158
92300SOL    HW278734   4.774   9.329  13.089
92301SOL     OW78735   6.774   2.602  13.544
92301SOL    HW178736   6.842   2.663  13.571
92301SOL    HW278737   6.781   2.600  13.448
92302SOL     OW78738   5.621  10.215  11.494
92302SOL    HW178739   5.693  10.271  11.465
92302SOL    HW278740   5.569  10.271  11.552
92303SOL     OW78741  14.690   2.249   2.089
92303SOL    HW178742  14.757   2.316   2.077
92303SOL    HW278743  14.732   2.168   2.061
92304SOL     OW78744  13.333   5.105  14.102
92304SOL    HW178745  13.277   5.163  14.050
92304SOL    HW278746  13.392   5.065  14.039
92305SOL     OW78747   2.556  11.776   4.514
92305SOL    HW178748   2.515  11.784   4.428
92305SOL    HW278749   2.643  11.812   4.502
92306SOL     OW78750   5.608  14.719   4.248
92306SOL    HW178751   5.669  14.710   4.174
92306SOL    HW278752   5.541  14.779   4.216
92307SOL     OW78753   4.328   8.878  10.138
92307SOL    HW178754   4.333   8.924  10.221
92307SOL    HW278755   4.234   8.873  10.119
92308SOL     OW78756   3.200   1.869   5.003
92308SOL    HW178757   3.204   1.840   4.911
92308SOL    HW278758   3.189   1.964   4.998
92309SOL     OW78759  11.931   7.800   5.821
92309SOL    HW178760  11.953   7.743   5.748
92309SOL    HW278761  11.913   7.740   5.894
92310SOL     OW78762   3.403   9.001  14.369
92310SOL    HW178763   3.440   9.088  14.356
92310SOL    HW278764   3.479   8.945  14.385
92311SOL     OW78765   0.511  13.416  13.725
92311SOL    HW178766   0.605  13.416  13.703
92311SOL    HW278767   0.467  13.443  13.645
92312SOL     OW78768   6.736  10.886   0.420
92312SOL    HW178769   6.751  10.947   0.492
92312SOL    HW278770   6.817  10.834   0.415
92313SOL     OW78771   8.757  14.742   1.466
92313SOL    HW178772   8.787  14.683   1.397
92313SOL    HW278773   8.810  14.719   1.542
92314SOL     OW78774   1.803  14.550  11.559
92314SOL    HW178775   1.884  14.532  11.511
92314SOL    HW278776   1.736  14.557  11.490
92315SOL     OW78777  10.763   5.689  13.821
92315SOL    HW178778  10.790   5.613  13.770
92315SOL    HW278779  10.678   5.713  13.784
92316SOL     OW78780  11.053   6.459   7.508
92316SOL    HW178781  10.974   6.471   7.559
92316SOL    HW278782  11.041   6.516   7.431
92317SOL     OW78783  14.766   8.558  12.245
92317SOL    HW178784  14.840   8.616  12.229
92317SOL    HW278785  14.755   8.559  12.340
92318SOL     OW78786  10.747   1.272   7.691
92318SOL    HW178787  10.764   1.324   7.612
92318SOL    HW278788  10.655   1.249   7.684
92319SOL     OW78789   3.468   9.215   0.180
92319SOL    HW178790   3.477   9.126   0.214
92319SOL    HW278791   3.498   9.271   0.251
92320SOL     OW78792  14.141   8.382   0.071
92320SOL    HW178793  14.219   8.424   0.108
92320SOL    HW278794  14.100   8.449   0.017
92321SOL     OW78795  13.884   1.918  10.600
92321SOL    HW178796  13.918   1.998  10.561
92321SOL    HW278797  13.961   1.872  10.634
92322SOL     OW78798   8.865  14.583  14.310
92322SOL    HW178799   8.879  14.612  14.400
92322SOL    HW278800   8.784  14.533  14.314
92323SOL     OW78801   7.841   6.368   6.533
92323SOL    HW178802   7.780   6.442   6.529
92323SOL    HW278803   7.926   6.408   6.550
92324SOL     OW78804   0.809  14.616  10.911
92324SOL    HW178805   0.720  14.581  10.906
92324SOL    HW278806   0.866  14.539  10.906
92325SOL     OW78807   2.453  13.131  14.398
92325SOL    HW178808   2.515  13.104  14.465
92325SOL    HW278809   2.490  13.098  14.316
92326SOL     OW78810   4.096   0.879   4.924
92326SOL    HW178811   4.010   0.861   4.885
92326SOL    HW278812   4.080   0.954   4.981
92327SOL     OW78813   2.608   6.067   0.602
92327SOL    HW178814   2.593   6.143   0.546
92327SOL    HW278815   2.677   6.095   0.663
92328SOL     OW78816  14.789   3.365  10.085
92328SOL    HW178817  14.823   3.446  10.122
92328SOL    HW278818  14.865   3.307  10.080
92329SOL     OW78819   1.177   8.959   6.484
92329SOL    HW178820   1.196   9.053   6.480
92329SOL    HW278821   1.219   8.922   6.407
92330SOL     OW78822   5.303   2.602  11.217
92330SOL    HW178823   5.211   2.603  11.190
92330SOL    HW278824   5.306   2.659  11.294
92331SOL     OW78825   9.468   2.665   3.132
92331SOL    HW178826   9.540   2.686   3.192
92331SOL    HW278827   9.502   2.592   3.080
92332SOL     OW78828   2.438   2.548   7.031
92332SOL    HW178829   2.464   2.498   6.953
92332SOL    HW278830   2.344   2.536   7.037
92333SOL     OW78831   0.700  11.051   2.600
92333SOL    HW178832   0.656  11.081   2.520
92333SOL    HW278833   0.699  10.956   2.594
92334SOL     OW78834   1.044   7.030  13.071
92334SOL    HW178835   1.060   7.123  13.084
92334SOL    HW278836   1.043   6.993  13.159
92335SOL     OW78837   6.680   7.303   8.341
92335SOL    HW178838   6.770   7.317   8.369
92335SOL    HW278839   6.674   7.209   8.327
92336SOL     OW78840   1.753   9.420   0.869
92336SOL    HW178841   1.695   9.483   0.828
92336SOL    HW278842   1.729   9.423   0.962
92337SOL     OW78843  10.703   0.239   8.190
92337SOL    HW178844  10.782   0.262   8.141
92337SOL    HW278845  10.732   0.235   8.281
92338SOL     OW78846   2.556   2.327  14.445
92338SOL    HW178847   2.534   2.336  14.538
92338SOL    HW278848   2.477   2.354  14.399
92339SOL     OW78849   9.691  13.247   2.338
92339SOL    HW178850   9.675  13.185   2.268
92339SOL    HW278851   9.605  13.259   2.380
92340SOL     OW78852   0.673   0.020   6.696
92340SOL    HW178853   0.721   0.004   6.777
92340SOL    HW278854   0.739   0.058   6.637
92341SOL     OW78855   3.870   1.211   2.666
92341SOL    HW178856   3.876   1.304   2.688
92341SOL    HW278857   3.960   1.178   2.673
92342SOL     OW78858  11.305   8.334   7.884
92342SOL    HW178859  11.318   8.369   7.972
92342SOL    HW278860  11.390   8.342   7.842
92343SOL     OW78861   9.330   7.544   6.281
92343SOL    HW178862   9.420   7.565   6.258
92343SOL    HW278863   9.290   7.514   6.199
92344SOL     OW78864  11.179  12.503  10.694
92344SOL    HW178865  11.273  12.519  10.693
92344SOL    HW278866  11.169  12.418  10.737
92345SOL     OW78867  11.601   9.897   6.565
92345SOL    HW178868  11.528   9.840   6.540
92345SOL    HW278869  11.675   9.864   6.513
92346SOL     OW78870   5.873   1.557  10.521
92346SOL    HW178871   5.896   1.518  10.606
92346SOL    HW278872   5.886   1.486  10.458
92347SOL     OW78873   1.656   9.467  11.266
92347SOL    HW178874   1.614   9.407  11.327
92347SOL    HW278875   1.590   9.535  11.250
92348SOL     OW78876   6.526   1.438   2.676
92348SOL    HW178877   6.594   1.504   2.669
92348SOL    HW278878   6.562   1.361   2.632
92349SOL     OW78879   8.917   9.992   2.286
92349SOL    HW178880   8.995  10.028   2.244
92349SOL    HW278881   8.927   9.897   2.279
92350SOL     OW78882  13.001   8.809   2.383
92350SOL    HW178883  12.983   8.794   2.475
92350SOL    HW278884  12.929   8.766   2.337
92351SOL     OW78885   4.889   8.850   4.064
92351SOL    HW178886   4.952   8.920   4.042
92351SOL    HW278887   4.923   8.812   4.145
92352SOL     OW78888   9.908  10.612  10.445
92352SOL    HW178889   9.862  10.560  10.511
92352SOL    HW278890  10.000  10.605  10.469
92353SOL     OW78891  11.360   7.198   7.178
92353SOL    HW178892  11.437   7.219   7.125
92353SOL    HW278893  11.387   7.219   7.268
92354SOL     OW78894  14.333   6.476  14.485
92354SOL    HW178895  14.317   6.525  14.566
92354SOL    HW278896  14.428   6.472  14.477
92355SOL     OW78897  12.622   2.334   6.303
92355SOL    HW178898  12.619   2.345   6.398
92355SOL    HW278899  12.625   2.424   6.269
92356SOL     OW78900   5.591   3.766  10.751
92356SOL    HW178901   5.588   3.727  10.663
92356SOL    HW278902   5.670   3.820  10.750
92357SOL     OW78903   2.904   0.929   0.956
92357SOL    HW178904   2.834   0.953   0.895
92357SOL    HW278905   2.930   0.841   0.929
92358SOL     OW78906  13.109  13.757  14.140
92358SOL    HW178907  13.187  13.740  14.087
92358SOL    HW278908  13.095  13.851  14.132
92359SOL     OW78909   5.923   0.921   9.920
92359SOL    HW178910   5.912   0.827   9.905
92359SOL    HW278911   6.018   0.935   9.917
92360SOL     OW78912   2.049   6.600   8.185
92360SOL    HW178913   2.069   6.693   8.183
92360SOL    HW278914   2.045   6.578   8.278
92361SOL     OW78915  12.354   9.958   3.725
92361SOL    HW178916  12.267   9.918   3.724
92361SOL    HW278917  12.385   9.951   3.635
92362SOL     OW78918   8.723   3.864   2.373
92362SOL    HW178919   8.785   3.809   2.326
92362SOL    HW278920   8.777   3.932   2.414
92363SOL     OW78921   2.339   2.722  12.772
92363SOL    HW178922   2.345   2.643  12.826
92363SOL    HW278923   2.358   2.693  12.683
92364SOL     OW78924   2.863   2.799   9.111
92364SOL    HW178925   2.803   2.853   9.162
92364SOL    HW278926   2.933   2.859   9.084
92365SOL     OW78927  12.153  14.065   9.298
92365SOL    HW178928  12.176  14.063   9.391
92365SOL    HW278929  12.120  13.977   9.280
92366SOL     OW78930   2.208   3.715  12.194
92366SOL    HW178931   2.248   3.628  12.188
92366SOL    HW278932   2.163   3.727  12.110
92367SOL     OW78933   5.190   0.218   3.349
92367SOL    HW178934   5.217   0.129   3.372
92367SOL    HW278935   5.131   0.207   3.274
92368SOL     OW78936   7.882  12.190   3.607
92368SOL    HW178937   7.960  12.233   3.644
92368SOL    HW278938   7.917  12.119   3.554
92369SOL     OW78939   8.046  12.071   2.741
92369SOL    HW178940   8.095  11.995   2.709
92369SOL    HW278941   8.052  12.135   2.670
92370SOL     OW78942  13.816   2.303   0.891
92370SOL    HW178943  13.814   2.207   0.895
92370SOL    HW278944  13.804   2.331   0.982
92371SOL     OW78945   5.228  13.747   8.882
92371SOL    HW178946   5.135  13.726   8.893
92371SOL    HW278947   5.269  13.663   8.862
92372SOL     OW78948  12.945  14.533   2.904
92372SOL    HW178949  13.027  14.559   2.945
92372SOL    HW278950  12.895  14.493   2.975
92373SOL     OW78951  13.657   0.057   1.096
92373SOL    HW178952  13.584   0.057   1.158
92373SOL    HW278953  13.617   0.041   1.011
92374SOL     OW78954   2.373   0.318   9.847
92374SOL    HW178955   2.384   0.412   9.831
92374SOL    HW278956   2.422   0.276   9.777
92375SOL     OW78957   8.138   0.513   1.526
92375SOL    HW178958   8.164   0.421   1.533
92375SOL    HW278959   8.152   0.548   1.614
92376SOL     OW78960  13.951   3.083  13.835
92376SOL    HW178961  13.879   3.061  13.776
92376SOL    HW278962  13.994   3.000  13.853
92377SOL     OW78963  13.267  10.327   4.011
92377SOL    HW178964  13.226  10.373   4.084
92377SOL    HW278965  13.209  10.253   3.993
92378SOL     OW78966   3.596  11.698   7.767
92378SOL    HW178967   3.514  11.650   7.771
92378SOL    HW278968   3.571  11.786   7.738
92379SOL     OW78969   9.155  13.639  11.129
92379SOL    HW178970   9.200  13.557  11.152
92379SOL    HW278971   9.218  13.708  11.152
92380SOL     OW78972   6.782  14.469   8.513
92380SOL    HW178973   6.741  14.488   8.597
92380SOL    HW278974   6.876  14.482   8.528
92381SOL     OW78975  10.265   0.307  10.665
92381SOL    HW178976  10.192   0.250  10.689
92381SOL    HW278977  10.335   0.284  10.725
92382SOL     OW78978   2.567   4.060  14.086
92382SOL    HW178979   2.591   4.134  14.031
92382SOL    HW278980   2.560   3.986  14.026
92383SOL     OW78981  13.559   9.549   6.572
92383SOL    HW178982  13.628   9.491   6.539
92383SOL    HW278983  13.484   9.491   6.586
92384SOL     OW78984   0.972   9.262  12.955
92384SOL    HW178985   0.983   9.263  12.860
92384SOL    HW278986   0.987   9.171  12.981
92385SOL     OW78987   0.183   1.741   3.488
92385SOL    HW178988   0.179   1.682   3.563
92385SOL    HW278989   0.142   1.692   3.416
92386SOL     OW78990   2.032   8.738   3.339
92386SOL    HW178991   2.018   8.657   3.386
92386SOL    HW278992   2.119   8.728   3.299
92387SOL     OW78993  10.816  11.183   8.749
92387SOL    HW178994  10.772  11.227   8.822
92387SOL    HW278995  10.787  11.231   8.672
92388SOL     OW78996   5.963   2.537   6.641
92388SOL    HW178997   5.966   2.443   6.657
92388SOL    HW278998   6.014   2.576   6.712
92389SOL     OW78999   5.238   8.486  12.737
92389SOL    HW179000   5.258   8.573  12.702
92389SOL    HW279001   5.314   8.464  12.791
92390SOL     OW79002   1.438   2.646  12.447
92390SOL    HW179003   1.387   2.702  12.388
92390SOL    HW279004   1.492   2.707  12.498
92391SOL     OW79005   9.289   4.048   9.618
92391SOL    HW179006   9.210   4.101   9.613
92391SOL    HW279007   9.267   3.979   9.682
92392SOL     OW79008   6.301   3.292   0.372
92392SOL    HW179009   6.358   3.294   0.296
92392SOL    HW279010   6.357   3.263   0.444
92393SOL     OW79011   2.985   9.324  13.214
92393SOL    HW179012   2.933   9.394  13.172
92393SOL    HW279013   3.068   9.365  13.235
92394SOL     OW79014   1.777   1.296   3.133
92394SOL    HW179015   1.867   1.283   3.163
92394SOL    HW279016   1.772   1.249   3.050
92395SOL     OW79017  12.688  11.085  11.883
92395SOL    HW179018  12.755  11.017  11.873
92395SOL    HW279019  12.638  11.081  11.801
92396SOL     OW79020   1.303   8.146   7.730
92396SOL    HW179021   1.304   8.053   7.709
92396SOL    HW279022   1.365   8.186   7.668
92397SOL     OW79023   0.169  13.769   1.834
92397SOL    HW179024   0.182  13.835   1.902
92397SOL    HW279025   0.199  13.687   1.874
92398SOL     OW79026   1.197  11.756   6.904
92398SOL    HW179027   1.104  11.754   6.928
92398SOL    HW279028   1.237  11.684   6.953
92399SOL     OW79029   5.404   4.072  12.797
92399SOL    HW179030   5.378   4.111  12.880
92399SOL    HW279031   5.493   4.041  12.811
92400SOL     OW79032   1.241   9.913  10.688
92400SOL    HW179033   1.316   9.860  10.663
92400SOL    HW279034   1.276   9.977  10.750
92401SOL     OW79035  11.295   9.347  12.879
92401SOL    HW179036  11.323   9.356  12.788
92401SOL    HW279037  11.255   9.260  12.883
92402SOL     OW79038  10.285   8.546  13.365
92402SOL    HW179039  10.373   8.584  13.362
92402SOL    HW279040  10.296   8.461  13.406
92403SOL     OW79041   4.859   7.586  11.159
92403SOL    HW179042   4.823   7.634  11.084
92403SOL    HW279043   4.818   7.500  11.153
92404SOL     OW79044  13.434   2.017   6.926
92404SOL    HW179045  13.373   1.944   6.936
92404SOL    HW279046  13.379   2.095   6.922
92405SOL     OW79047  13.387   4.722   1.111
92405SOL    HW179048  13.459   4.658   1.104
92405SOL    HW279049  13.327   4.698   1.041
92406SOL     OW79050   5.239  14.844   7.670
92406SOL    HW179051   5.156  14.865   7.627
92406SOL    HW279052   5.214  14.817   7.758
92407SOL     OW79053   1.953   9.709   5.986
92407SOL    HW179054   1.862   9.681   5.987
92407SOL    HW279055   2.003   9.628   5.992
92408SOL     OW79056   8.177   3.087  10.769
92408SOL    HW179057   8.192   3.006  10.722
92408SOL    HW279058   8.101   3.069  10.825
92409SOL     OW79059   6.912   2.211   6.384
92409SOL    HW179060   6.834   2.159   6.362
92409SOL    HW279061   6.909   2.285   6.324
92410SOL     OW79062   3.211   9.787   5.037
92410SOL    HW179063   3.255   9.871   5.051
92410SOL    HW279064   3.136   9.809   4.980
92411SOL     OW79065  13.744  12.989  14.543
92411SOL    HW179066  13.737  12.931  14.619
92411SOL    HW279067  13.823  13.041  14.560
92412SOL     OW79068   8.233   3.357  11.105
92412SOL    HW179069   8.203   3.420  11.170
92412SOL    HW279070   8.241   3.408  11.024
92413SOL     OW79071   8.643   8.738  12.941
92413SOL    HW179072   8.626   8.812  12.882
92413SOL    HW279073   8.685   8.672  12.886
92414SOL     OW79074  13.182   2.049  10.450
92414SOL    HW179075  13.254   2.049  10.514
92414SOL    HW279076  13.127   1.976  10.477
92415SOL     OW79077   2.409   4.645  10.512
92415SOL    HW179078   2.357   4.657  10.591
92415SOL    HW279079   2.453   4.729  10.500
92416SOL     OW79080   5.758   7.081   7.031
92416SOL    HW179081   5.694   7.009   7.034
92416SOL    HW279082   5.713   7.154   7.074
92417SOL     OW79083   4.868   6.566   2.068
92417SOL    HW179084   4.827   6.607   1.992
92417SOL    HW279085   4.806   6.498   2.094
92418SOL     OW79086   8.285   8.342   9.168
92418SOL    HW179087   8.325   8.378   9.247
92418SOL    HW279088   8.315   8.251   9.166
92419SOL     OW79089   4.037   8.252  11.227
92419SOL    HW179090   4.042   8.168  11.181
92419SOL    HW279091   4.100   8.244  11.298
92420SOL     OW79092   1.806   4.427  11.343
92420SOL    HW179093   1.761   4.396  11.265
92420SOL    HW279094   1.778   4.518  11.353
92421SOL     OW79095  13.916  13.260  14.014
92421SOL    HW179096  13.922  13.164  14.013
92421SOL    HW279097  13.974  13.287  14.086
92422SOL     OW79098   7.104   1.375  14.333
92422SOL    HW179099   7.020   1.371  14.288
92422SOL    HW279100   7.159   1.311  14.287
92423SOL     OW79101   9.961   0.002   4.226
92423SOL    HW179102   9.989  14.791   4.246
92423SOL    HW279103  10.027   0.035   4.166
92424SOL     OW79104   0.860   1.553   2.169
92424SOL    HW179105   0.893   1.490   2.105
92424SOL    HW279106   0.770   1.524   2.188
92425SOL     OW79107   0.784   6.590   0.720
92425SOL    HW179108   0.770   6.500   0.693
92425SOL    HW279109   0.745   6.596   0.807
92426SOL     OW79110   1.149   9.240  13.948
92426SOL    HW179111   1.112   9.245  13.860
92426SOL    HW279112   1.086   9.189  13.998
92427SOL     OW79113   1.178   9.025  14.173
92427SOL    HW179114   1.180   8.986  14.260
92427SOL    HW279115   1.185   8.951  14.113
92428SOL     OW79116  12.452   2.747  14.162
92428SOL    HW179117  12.389   2.676  14.155
92428SOL    HW279118  12.496   2.748  14.077
92429SOL     OW79119  11.245   7.491   8.824
92429SOL    HW179120  11.259   7.427   8.893
92429SOL    HW279121  11.289   7.453   8.747
92430SOL     OW79122   4.106   4.061   8.079
92430SOL    HW179123   4.041   4.004   8.037
92430SOL    HW279124   4.159   4.094   8.006
92431SOL     OW79125   7.741   3.917   7.665
92431SOL    HW179126   7.699   3.999   7.641
92431SOL    HW279127   7.789   3.891   7.586
92432SOL     OW79128   6.377  11.616   7.530
92432SOL    HW179129   6.465  11.610   7.493
92432SOL    HW279130   6.336  11.532   7.508
92433SOL     OW79131  11.685   5.625   4.724
92433SOL    HW179132  11.688   5.608   4.818
92433SOL    HW279133  11.592   5.630   4.703
92434SOL     OW79134  11.262   5.011   0.836
92434SOL    HW179135  11.222   5.083   0.884
92434SOL    HW279136  11.187   4.958   0.807
92435SOL     OW79137   0.623   8.113   4.743
92435SOL    HW179138   0.675   8.085   4.667
92435SOL    HW279139   0.590   8.031   4.780
92436SOL     OW79140   7.638   0.615   7.827
92436SOL    HW179141   7.552   0.632   7.789
92436SOL    HW279142   7.659   0.526   7.799
92437SOL     OW79143  10.648   9.650   9.956
92437SOL    HW179144  10.691   9.625   9.875
92437SOL    HW279145  10.702   9.721   9.992
92438SOL     OW79146  10.692   4.149   1.948
92438SOL    HW179147  10.718   4.231   1.905
92438SOL    HW279148  10.765   4.089   1.932
92439SOL     OW79149  10.063   7.879   9.772
92439SOL    HW179150  10.004   7.920   9.835
92439SOL    HW279151  10.039   7.787   9.773
92440SOL     OW79152  10.327  10.204  11.277
92440SOL    HW179153  10.389  10.137  11.250
92440SOL    HW279154  10.267  10.214  11.203
92441SOL     OW79155   9.710   7.720   2.176
92441SOL    HW179156   9.703   7.677   2.261
92441SOL    HW279157   9.622   7.755   2.160
92442SOL     OW79158   7.238  10.211   2.559
92442SOL    HW179159   7.204  10.239   2.645
92442SOL    HW279160   7.201  10.124   2.547
92443SOL     OW79161  13.861   5.955   9.812
92443SOL    HW179162  13.893   5.970   9.900
92443SOL    HW279163  13.831   5.864   9.812
92444SOL     OW79164   5.769  13.205  12.912
92444SOL    HW179165   5.859  13.184  12.938
92444SOL    HW279166   5.720  13.208  12.995
92445SOL     OW79167   9.781  11.224   1.760
92445SOL    HW179168   9.870  11.224   1.724
92445SOL    HW279169   9.727  11.192   1.688
92446SOL     OW79170  11.307   8.796  12.956
92446SOL    HW179171  11.317   8.738  12.881
92446SOL    HW279172  11.230   8.764  13.003
92447SOL     OW79173   7.544   6.396  13.168
92447SOL    HW179174   7.558   6.430  13.256
92447SOL    HW279175   7.571   6.305  13.173
92448SOL     OW79176  12.705   5.235   8.015
92448SOL    HW179177  12.748   5.196   8.091
92448SOL    HW279178  12.614   5.246   8.043
92449SOL     OW79179   1.507   6.042   2.238
92449SOL    HW179180   1.585   6.089   2.207
92449SOL    HW279181   1.438   6.108   2.237
92450SOL     OW79182   9.696  13.517   5.838
92450SOL    HW179183   9.688  13.481   5.926
92450SOL    HW279184   9.689  13.441   5.780
92451SOL     OW79185   0.306  11.705   0.153
92451SOL    HW179186   0.260  11.698   0.237
92451SOL    HW279187   0.393  11.735   0.176
92452SOL     OW79188   1.105   5.485   3.955
92452SOL    HW179189   1.173   5.427   3.987
92452SOL    HW279190   1.151   5.567   3.934
92453SOL     OW79191   3.029   3.012   5.750
92453SOL    HW179192   3.008   3.010   5.657
92453SOL    HW279193   3.078   3.094   5.762
92454SOL     OW79194  11.690   3.354   9.616
92454SOL    HW179195  11.620   3.419   9.622
92454SOL    HW279196  11.676   3.296   9.691
92455SOL     OW79197  10.547   2.621   4.667
92455SOL    HW179198  10.573   2.581   4.750
92455SOL    HW279199  10.625   2.617   4.613
92456SOL     OW79200   1.599   4.204   9.120
92456SOL    HW179201   1.651   4.137   9.164
92456SOL    HW279202   1.514   4.162   9.106
92457SOL     OW79203   9.273  13.489   9.574
92457SOL    HW179204   9.336  13.561   9.577
92457SOL    HW279205   9.201  13.518   9.630
92458SOL     OW79206   0.664   8.289  13.485
92458SOL    HW179207   0.570   8.269  13.483
92458SOL    HW279208   0.679   8.332  13.569
92459SOL     OW79209  14.413   4.702   9.102
92459SOL    HW179210  14.398   4.608   9.112
92459SOL    HW279211  14.341   4.732   9.046
92460SOL     OW79212   7.070   3.500   7.574
92460SOL    HW179213   7.114   3.582   7.552
92460SOL    HW279214   7.112   3.434   7.518
92461SOL     OW79215   4.668  13.966   0.836
92461SOL    HW179216   4.726  13.950   0.762
92461SOL    HW279217   4.590  14.005   0.797
92462SOL     OW79218   5.080   1.565   6.497
92462SOL    HW179219   5.089   1.496   6.563
92462SOL    HW279220   5.047   1.640   6.545
92463SOL     OW79221   4.083   6.245   8.694
92463SOL    HW179222   4.135   6.226   8.772
92463SOL    HW279223   4.044   6.161   8.671
92464SOL     OW79224   2.875   4.060  12.433
92464SOL    HW179225   2.812   4.047  12.504
92464SOL    HW279226   2.829   4.113  12.369
92465SOL     OW79227   7.825  14.163  10.347
92465SOL    HW179228   7.891  14.203  10.290
92465SOL    HW279229   7.778  14.237  10.384
92466SOL     OW79230   8.074   2.860  13.357
92466SOL    HW179231   8.004   2.795  13.369
92466SOL    HW279232   8.035   2.943  13.383
92467SOL     OW79233  13.311   7.853   3.338
92467SOL    HW179234  13.231   7.905   3.343
92467SOL    HW279235  13.366   7.888   3.408
92468SOL     OW79236   5.573  14.524  13.143
92468SOL    HW179237   5.551  14.510  13.235
92468SOL    HW279238   5.658  14.568  13.145
92469SOL     OW79239  10.890   6.865   3.691
92469SOL    HW179240  10.968   6.917   3.708
92469SOL    HW279241  10.924   6.782   3.658
92470SOL     OW79242  10.940   8.525  14.022
92470SOL    HW179243  10.920   8.460  13.955
92470SOL    HW279244  10.864   8.524  14.080
92471SOL     OW79245   1.822   8.927  12.795
92471SOL    HW179246   1.876   8.970  12.729
92471SOL    HW279247   1.829   8.834  12.774
92472SOL     OW79248   2.326   3.407   9.421
92472SOL    HW179249   2.281   3.491   9.413
92472SOL    HW279250   2.308   3.362   9.338
92473SOL     OW79251  11.960  12.562   4.591
92473SOL    HW179252  11.948  12.477   4.633
92473SOL    HW279253  12.033  12.549   4.531
92474SOL     OW79254   6.864   7.017   7.518
92474SOL    HW179255   6.776   7.052   7.530
92474SOL    HW279256   6.920   7.074   7.570
92475SOL     OW79257   9.410  13.931  12.367
92475SOL    HW179258   9.495  13.922  12.410
92475SOL    HW279259   9.409  13.862  12.301
92476SOL     OW79260  11.202   1.913   8.200
92476SOL    HW179261  11.160   1.999   8.192
92476SOL    HW279262  11.191   1.890   8.292
92477SOL     OW79263   7.187   5.050  11.884
92477SOL    HW179264   7.136   5.130  11.892
92477SOL    HW279265   7.189   5.033  11.790
92478SOL     OW79266   7.709   3.138   1.840
92478SOL    HW179267   7.773   3.209   1.832
92478SOL    HW279268   7.760   3.063   1.871
92479SOL     OW79269   1.902  10.755   2.299
92479SOL    HW179270   1.897  10.836   2.247
92479SOL    HW279271   1.874  10.686   2.238
92480SOL     OW79272   5.710  14.637  14.745
92480SOL    HW179273   5.637  14.676  14.697
92480SOL    HW279274   5.737  14.705  14.807
92481SOL     OW79275   4.311  14.088   0.302
92481SOL    HW179276   4.380  14.039   0.345
92481SOL    HW279277   4.256  14.120   0.374
92482SOL     OW79278   6.712  13.631  10.631
92482SOL    HW179279   6.699  13.666  10.542
92482SOL    HW279280   6.646  13.562  10.639
92483SOL     OW79281  14.387   1.797   2.255
92483SOL    HW179282  14.400   1.880   2.210
92483SOL    HW279283  14.462   1.743   2.228
92484SOL     OW79284   9.415  13.001   7.326
92484SOL    HW179285   9.365  12.967   7.400
92484SOL    HW279286   9.503  13.016   7.361
92485SOL     OW79287   2.166   6.977  11.513
92485SOL    HW179288   2.201   6.935  11.434
92485SOL    HW279289   2.242   6.983  11.572
92486SOL     OW79290   4.234   2.269   0.756
92486SOL    HW179291   4.244   2.195   0.816
92486SOL    HW279292   4.210   2.342   0.812
92487SOL     OW79293  12.209   5.192  12.734
92487SOL    HW179294  12.147   5.165  12.801
92487SOL    HW279295  12.176   5.154  12.653
92488SOL     OW79296  12.450  13.704   6.493
92488SOL    HW179297  12.411  13.766   6.432
92488SOL    HW279298  12.389  13.701   6.567
92489SOL     OW79299   9.722   9.201  12.737
92489SOL    HW179300   9.801   9.254  12.751
92489SOL    HW279301   9.750   9.128  12.683
92490SOL     OW79302   6.112   2.525  10.037
92490SOL    HW179303   6.046   2.574  10.086
92490SOL    HW279304   6.062   2.469   9.978
92491SOL     OW79305   5.371   9.776   6.555
92491SOL    HW179306   5.440   9.727   6.511
92491SOL    HW279307   5.322   9.709   6.604
92492SOL     OW79308  12.258   0.857   9.152
92492SOL    HW179309  12.188   0.917   9.177
92492SOL    HW279310  12.254   0.788   9.218
92493SOL     OW79311   9.900  14.729   1.057
92493SOL    HW179312   9.867  14.641   1.073
92493SOL    HW279313   9.940  14.755   1.140
92494SOL     OW79314  12.140  12.705  12.542
92494SOL    HW179315  12.215  12.689  12.484
92494SOL    HW279316  12.074  12.642  12.514
92495SOL     OW79317   6.194   7.613   7.096
92495SOL    HW179318   6.192   7.612   7.001
92495SOL    HW279319   6.229   7.699   7.119
92496SOL     OW79320   6.394  11.168  13.297
92496SOL    HW179321   6.451  11.228  13.249
92496SOL    HW279322   6.305  11.195  13.273
92497SOL     OW79323   3.476  10.319   5.118
92497SOL    HW179324   3.425  10.376   5.176
92497SOL    HW279325   3.435  10.233   5.129
92498SOL     OW79326   8.895   5.798   1.982
92498SOL    HW179327   8.857   5.811   2.068
92498SOL    HW279328   8.821   5.778   1.925
92499SOL     OW79329   4.893  12.482   4.007
92499SOL    HW179330   4.880  12.507   3.915
92499SOL    HW279331   4.988  12.482   4.019
92500SOL     OW79332  14.131   8.082   6.915
92500SOL    HW179333  14.173   8.040   6.991
92500SOL    HW279334  14.200   8.138   6.879
92501SOL     OW79335  13.151   8.916  11.943
92501SOL    HW179336  13.111   8.916  11.856
92501SOL    HW279337  13.085   8.957  11.999
92502SOL     OW79338   9.222   5.110  14.065
92502SOL    HW179339   9.174   5.091  13.984
92502SOL    HW279340   9.155   5.107  14.134
92503SOL     OW79341  11.426   5.435   6.183
92503SOL    HW179342  11.364   5.426   6.110
92503SOL    HW279343  11.483   5.359   6.175
92504SOL     OW79344   0.969   5.071  14.696
92504SOL    HW179345   0.932   5.159  14.706
92504SOL    HW279346   0.904   5.024  14.643
92505SOL     OW79347  12.311  12.472   9.637
92505SOL    HW179348  12.216  12.455   9.644
92505SOL    HW279349  12.343  12.464   9.727
92506SOL     OW79350   8.038  10.411   1.337
92506SOL    HW179351   8.068  10.500   1.354
92506SOL    HW279352   8.119  10.361   1.326
92507SOL     OW79353  11.669   2.336   3.208
92507SOL    HW179354  11.623   2.343   3.125
92507SOL    HW279355  11.762   2.341   3.184
92508SOL     OW79356   1.351  14.831   7.860
92508SOL    HW179357   1.391   0.035   7.835
92508SOL    HW279358   1.270  14.827   7.809
92509SOL     OW79359   3.439   6.265   1.188
92509SOL    HW179360   3.396   6.231   1.267
92509SOL    HW279361   3.517   6.210   1.179
92510SOL     OW79362   6.209  10.125   9.738
92510SOL    HW179363   6.225  10.184   9.664
92510SOL    HW279364   6.276  10.148   9.802
92511SOL     OW79365  14.477   6.378   5.971
92511SOL    HW179366  14.536   6.313   5.933
92511SOL    HW279367  14.395   6.367   5.924
92512SOL     OW79368   5.728   7.496   9.708
92512SOL    HW179369   5.764   7.419   9.665
92512SOL    HW279370   5.680   7.542   9.639
92513SOL     OW79371  11.449   6.804  10.561
92513SOL    HW179372  11.418   6.789  10.471
92513SOL    HW279373  11.512   6.733  10.577
92514SOL     OW79374   6.671   6.418   7.165
92514SOL    HW179375   6.726   6.400   7.241
92514SOL    HW279376   6.670   6.336   7.116
92515SOL     OW79377   2.162  11.043   1.738
92515SOL    HW179378   2.205  11.023   1.654
92515SOL    HW279379   2.080  11.086   1.713
92516SOL     OW79380   7.731   6.439   0.498
92516SOL    HW179381   7.689   6.388   0.429
92516SOL    HW279382   7.798   6.490   0.453
92517SOL     OW79383  12.114  11.887  12.831
92517SOL    HW179384  12.154  11.801  12.840
92517SOL    HW279385  12.176  11.947  12.874
92518SOL     OW79386   5.343   8.498   4.189
92518SOL    HW179387   5.395   8.418   4.185
92518SOL    HW279388   5.374   8.544   4.267
92519SOL     OW79389   4.036   3.852  13.436
92519SOL    HW179390   3.971   3.853  13.506
92519SOL    HW279391   4.054   3.945  13.419
92520SOL     OW79392   8.972   7.350  11.765
92520SOL    HW179393   8.922   7.282  11.811
92520SOL    HW279394   8.911   7.385  11.700
92521SOL     OW79395   2.623   3.529   2.930
92521SOL    HW179396   2.559   3.542   2.860
92521SOL    HW279397   2.570   3.523   3.009
92522SOL     OW79398   8.793   0.847   4.582
92522SOL    HW179399   8.756   0.832   4.669
92522SOL    HW279400   8.795   0.760   4.542
92523SOL     OW79401   5.137  11.875   3.330
92523SOL    HW179402   5.061  11.822   3.354
92523SOL    HW279403   5.212  11.817   3.343
92524SOL     OW79404  13.595  10.934   5.064
92524SOL    HW179405  13.685  10.966   5.058
92524SOL    HW279406  13.601  10.841   5.045
92525SOL     OW79407   0.743   7.024   4.225
92525SOL    HW179408   0.723   7.061   4.139
92525SOL    HW279409   0.672   7.055   4.281
92526SOL     OW79410  11.757   9.503   2.184
92526SOL    HW179411  11.807   9.544   2.114
92526SOL    HW279412  11.817   9.438   2.222
92527SOL     OW79413   5.170   4.330   7.002
92527SOL    HW179414   5.137   4.287   7.081
92527SOL    HW279415   5.188   4.258   6.941
92528SOL     OW79416   8.487   9.233  14.067
92528SOL    HW179417   8.573   9.269  14.091
92528SOL    HW279418   8.464   9.278  13.986
92529SOL     OW79419   7.530  10.219   0.806
92529SOL    HW179420   7.443  10.260   0.816
92529SOL    HW279421   7.541  10.210   0.711
92530SOL     OW79422   5.445  11.703  10.365
92530SOL    HW179423   5.370  11.645  10.357
92530SOL    HW279424   5.470  11.697  10.458
92531SOL     OW79425   5.719  10.147   8.539
92531SOL    HW179426   5.741  10.220   8.595
92531SOL    HW279427   5.697  10.187   8.455
92532SOL     OW79428  14.269  10.054   4.275
92532SOL    HW179429  14.307  10.055   4.363
92532SOL    HW279430  14.316   9.984   4.229
92533SOL     OW79431  10.702  12.870  13.859
92533SOL    HW179432  10.611  12.848  13.840
92533SOL    HW279433  10.751  12.840  13.783
92534SOL     OW79434  10.798   7.055   8.022
92534SOL    HW179435  10.753   7.056   8.106
92534SOL    HW279436  10.890   7.040   8.045
92535SOL     OW79437   8.096  12.292  10.071
92535SOL    HW179438   8.028  12.256  10.129
92535SOL    HW279439   8.156  12.219  10.056
92536SOL     OW79440  14.142   0.050   4.295
92536SOL    HW179441  14.105   0.135   4.316
92536SOL    HW279442  14.098  14.868   4.355
92537SOL     OW79443  12.065  10.837   8.165
92537SOL    HW179444  11.996  10.890   8.203
92537SOL    HW279445  12.104  10.893   8.097
92538SOL     OW79446   6.773  10.916   1.076
92538SOL    HW179447   6.828  10.969   1.018
92538SOL    HW279448   6.746  10.977   1.145
92539SOL     OW79449  14.406   2.569   8.962
92539SOL    HW179450  14.363   2.652   8.943
92539SOL    HW279451  14.351   2.528   9.029
92540SOL     OW79452   9.304   5.228  11.719
92540SOL    HW179453   9.313   5.290  11.647
92540SOL    HW279454   9.242   5.269  11.779
92541SOL     OW79455  11.785   2.726   9.271
92541SOL    HW179456  11.826   2.736   9.357
92541SOL    HW279457  11.725   2.653   9.281
92542SOL     OW79458   7.109   3.159   7.144
92542SOL    HW179459   7.146   3.081   7.103
92542SOL    HW279460   7.022   3.169   7.104
92543SOL     OW79461   4.269  14.256   6.854
92543SOL    HW179462   4.321  14.318   6.906
92543SOL    HW279463   4.280  14.172   6.898
92544SOL     OW79464  10.529   9.672   8.224
92544SOL    HW179465  10.509   9.727   8.148
92544SOL    HW279466  10.542   9.585   8.187
92545SOL     OW79467   2.153   0.119  11.768
92545SOL    HW179468   2.072   0.138  11.815
92545SOL    HW279469   2.127   0.064  11.694
92546SOL     OW79470  10.679   4.036   1.648
92546SOL    HW179471  10.636   4.115   1.681
92546SOL    HW279472  10.744   4.014   1.715
92547SOL     OW79473  11.603   8.098  10.192
92547SOL    HW179474  11.663   8.049  10.136
92547SOL    HW279475  11.640   8.087  10.280
92548SOL     OW79476   8.569  11.508   7.573
92548SOL    HW179477   8.598  11.594   7.602
92548SOL    HW279478   8.547  11.462   7.654
92549SOL     OW79479   3.190   6.513   3.001
92549SOL    HW179480   3.247   6.481   3.071
92549SOL    HW279481   3.103   6.518   3.041
92550SOL     OW79482  10.931   6.976   4.053
92550SOL    HW179483  11.026   6.987   4.052
92550SOL    HW279484  10.917   6.883   4.036
92551SOL     OW79485   3.587  14.823  12.828
92551SOL    HW179486   3.614  14.829  12.919
92551SOL    HW279487   3.502  14.780  12.831
92552SOL     OW79488   8.546   9.626   8.916
92552SOL    HW179489   8.453   9.622   8.936
92552SOL    HW279490   8.552   9.687   8.842
92553SOL     OW79491   5.585  13.236  14.450
92553SOL    HW179492   5.548  13.234  14.539
92553SOL    HW279493   5.509  13.252  14.393
92554SOL     OW79494  13.020  12.436   0.924
92554SOL    HW179495  13.072  12.444   1.004
92554SOL    HW279496  12.958  12.509   0.929
92555SOL     OW79497   0.107   0.009   0.210
92555SOL    HW179498   0.166  14.840   0.269
92555SOL    HW279499   0.042  14.822   0.184
92556SOL     OW79500   7.328   0.107   0.428
92556SOL    HW179501   7.421   0.124   0.412
92556SOL    HW279502   7.284   0.145   0.351
92557SOL     OW79503   3.228   4.833   2.101
92557SOL    HW179504   3.277   4.876   2.031
92557SOL    HW279505   3.156   4.788   2.056
92558SOL     OW79506   8.060   0.452  13.167
92558SOL    HW179507   8.078   0.541  13.197
92558SOL    HW279508   8.142   0.423  13.127
92559SOL     OW79509  12.689   1.131  14.851
92559SOL    HW179510  12.634   1.061   0.006
92559SOL    HW279511  12.645   1.161  14.772
92560SOL     OW79512  14.584   4.365  11.117
92560SOL    HW179513  14.559   4.288  11.168
92560SOL    HW279514  14.629   4.421  11.180
92561SOL     OW79515  12.183   9.274   9.704
92561SOL    HW179516  12.231   9.195   9.729
92561SOL    HW279517  12.202   9.336   9.774
92562SOL     OW79518   3.771  12.106  13.182
92562SOL    HW179519   3.702  12.172  13.182
92562SOL    HW279520   3.749  12.048  13.109
92563SOL     OW79521   0.538   0.327   5.904
92563SOL    HW179522   0.623   0.283   5.911
92563SOL    HW279523   0.549   0.388   5.831
92564SOL     OW79524   5.285  13.350   0.014
92564SOL    HW179525   5.234  13.381   0.089
92564SOL    HW279526   5.352  13.294   0.053
92565SOL     OW79527   3.946  14.632  14.612
92565SOL    HW179528   3.975  14.571  14.544
92565SOL    HW279529   3.954  14.582  14.693
92566SOL     OW79530  10.041   2.121  14.556
92566SOL    HW179531  10.113   2.084  14.505
92566SOL    HW279532  10.066   2.213  14.570
92567SOL     OW79533   3.775  13.322  10.879
92567SOL    HW179534   3.736  13.315  10.966
92567SOL    HW279535   3.712  13.280  10.820
92568SOL     OW79536  13.672   1.696  13.409
92568SOL    HW179537  13.730   1.622  13.425
92568SOL    HW279538  13.731   1.771  13.402
92569SOL     OW79539  13.919   7.265   0.895
92569SOL    HW179540  13.845   7.296   0.842
92569SOL    HW279541  13.996   7.304   0.854
92570SOL     OW79542  13.264   4.713   6.088
92570SOL    HW179543  13.357   4.694   6.100
92570SOL    HW279544  13.232   4.641   6.033
92571SOL     OW79545   7.201   3.325   5.367
92571SOL    HW179546   7.261   3.392   5.401
92571SOL    HW279547   7.168   3.362   5.285
92572SOL     OW79548   0.967   7.168   6.708
92572SOL    HW179549   0.961   7.232   6.780
92572SOL    HW279550   0.888   7.115   6.716
92573SOL     OW79551   5.070   9.864   7.653
92573SOL    HW179552   5.071   9.778   7.694
92573SOL    HW279553   5.138   9.913   7.700
92574SOL     OW79554   3.858   8.827  13.908
92574SOL    HW179555   3.828   8.889  13.842
92574SOL    HW279556   3.778   8.802  13.954
92575SOL     OW79557  10.559   1.567  10.993
92575SOL    HW179558  10.485   1.627  11.000
92575SOL    HW279559  10.611   1.600  10.921
92576SOL     OW79560   5.806   4.428   7.623
92576SOL    HW179561   5.793   4.512   7.579
92576SOL    HW279562   5.873   4.383   7.572
92577SOL     OW79563   8.322   1.258   5.860
92577SOL    HW179564   8.338   1.198   5.788
92577SOL    HW279565   8.395   1.244   5.921
92578SOL     OW79566   4.896  12.252   7.406
92578SOL    HW179567   4.823  12.212   7.454
92578SOL    HW279568   4.871  12.243   7.314
92579SOL     OW79569   8.562   0.595   7.642
92579SOL    HW179570   8.488   0.587   7.582
92579SOL    HW279571   8.606   0.510   7.637
92580SOL     OW79572   0.786   6.799  11.546
92580SOL    HW179573   0.849   6.745  11.595
92580SOL    HW279574   0.768   6.872  11.604
92581SOL     OW79575   7.467  10.583   7.254
92581SOL    HW179576   7.425  10.651   7.306
92581SOL    HW279577   7.394  10.531   7.220
92582SOL     OW79578   1.603  13.731   6.773
92582SOL    HW179579   1.665  13.716   6.844
92582SOL    HW279580   1.599  13.827   6.765
92583SOL     OW79581  13.589  11.742  12.348
92583SOL    HW179582  13.654  11.691  12.300
92583SOL    HW279583  13.624  11.831  12.349
92584SOL     OW79584  10.537   5.382   4.402
92584SOL    HW179585  10.571   5.380   4.313
92584SOL    HW279586  10.605   5.340   4.455
92585SOL     OW79587   9.176   2.147   0.438
92585SOL    HW179588   9.202   2.055   0.440
92585SOL    HW279589   9.256   2.196   0.456
92586SOL     OW79590   5.163   3.513   3.395
92586SOL    HW179591   5.141   3.600   3.362
92586SOL    HW279592   5.239   3.486   3.344
92587SOL     OW79593   5.129   9.366   0.003
92587SOL    HW179594   5.106   9.375   0.095
92587SOL    HW279595   5.202   9.427  14.869
92588SOL     OW79596   1.222   2.481   9.435
92588SOL    HW179597   1.155   2.475   9.367
92588SOL    HW279598   1.289   2.538   9.397
92589SOL     OW79599   7.620  11.899   2.257
92589SOL    HW179600   7.555  11.878   2.190
92589SOL    HW279601   7.660  11.981   2.226
92590SOL     OW79602   6.351   7.519  11.610
92590SOL    HW179603   6.355   7.458  11.537
92590SOL    HW279604   6.372   7.604  11.571
92591SOL     OW79605   3.929  11.195   1.550
92591SOL    HW179606   3.888  11.282   1.559
92591SOL    HW279607   3.917  11.173   1.458
92592SOL     OW79608   0.782  11.284  12.025
92592SOL    HW179609   0.714  11.317  12.083
92592SOL    HW279610   0.739  11.215  11.974
92593SOL     OW79611   9.827   3.709   9.016
92593SOL    HW179612   9.903   3.675   8.969
92593SOL    HW279613   9.851   3.800   9.036
92594SOL     OW79614   8.621   8.958  14.635
92594SOL    HW179615   8.653   9.042  14.603
92594SOL    HW279616   8.526   8.964  14.627
92595SOL     OW79617   1.771  12.930   2.139
92595SOL    HW179618   1.777  12.851   2.085
92595SOL    HW279619   1.759  13.001   2.077
92596SOL     OW79620  10.698  11.272  13.834
92596SOL    HW179621  10.616  11.301  13.874
92596SOL    HW279622  10.672  11.201  13.775
92597SOL     OW79623   6.980  12.795   3.934
92597SOL    HW179624   7.045  12.731   3.905
92597SOL    HW279625   6.931  12.816   3.854
92598SOL     OW79626   8.769  13.605  10.215
92598SOL    HW179627   8.727  13.519  10.225
92598SOL    HW279628   8.700  13.668  10.233
92599SOL     OW79629   3.187   3.298   2.345
92599SOL    HW179630   3.220   3.210   2.327
92599SOL    HW279631   3.125   3.316   2.274
92600SOL     OW79632   1.810  12.901  13.447
92600SOL    HW179633   1.881  12.853  13.405
92600SOL    HW279634   1.815  12.877  13.539
92601SOL     OW79635   4.803   8.504  13.437
92601SOL    HW179636   4.781   8.420  13.396
92601SOL    HW279637   4.722   8.555  13.431
92602SOL     OW79638   5.120   1.162   3.917
92602SOL    HW179639   5.036   1.194   3.951
92602SOL    HW279640   5.147   1.094   3.979
92603SOL     OW79641   9.764   3.582   6.643
92603SOL    HW179642   9.748   3.613   6.554
92603SOL    HW279643   9.803   3.658   6.688
92604SOL     OW79644  11.025   0.598   3.555
92604SOL    HW179645  10.979   0.681   3.568
92604SOL    HW279646  11.032   0.561   3.643
92605SOL     OW79647  13.029  12.103   7.537
92605SOL    HW179648  12.942  12.136   7.517
92605SOL    HW279649  13.087  12.150   7.476
92606SOL     OW79650   7.254   0.062   5.004
92606SOL    HW179651   7.161   0.063   5.025
92606SOL    HW279652   7.271   0.150   4.968
92607SOL     OW79653   6.121  10.227   3.199
92607SOL    HW179654   6.125  10.280   3.279
92607SOL    HW279655   6.207  10.238   3.159
92608SOL     OW79656   3.062   3.473   9.971
92608SOL    HW179657   3.139   3.486   9.914
92608SOL    HW279658   3.031   3.385   9.949
92609SOL     OW79659   4.947   5.768  10.021
92609SOL    HW179660   4.950   5.689  10.074
92609SOL    HW279661   5.038   5.795  10.011
92610SOL     OW79662  14.754   6.988   9.084
92610SOL    HW179663  14.661   7.000   9.101
92610SOL    HW279664  14.787   6.944   9.162
92611SOL     OW79665  12.242   5.922   0.033
92611SOL    HW179666  12.178   5.851   0.025
92611SOL    HW279667  12.284   5.907   0.118
92612SOL     OW79668   1.001   8.009   1.969
92612SOL    HW179669   1.026   8.034   1.880
92612SOL    HW279670   1.059   8.060   2.025
92613SOL     OW79671   0.230   8.216   9.855
92613SOL    HW179672   0.195   8.305   9.852
92613SOL    HW279673   0.323   8.227   9.835
92614SOL     OW79674   8.207  11.157  10.386
92614SOL    HW179675   8.247  11.092  10.444
92614SOL    HW279676   8.278  11.184  10.328
92615SOL     OW79677   2.181   4.095  10.993
92615SOL    HW179678   2.094   4.131  10.976
92615SOL    HW279679   2.189   4.097  11.088
92616SOL     OW79680  12.391  11.467   0.665
92616SOL    HW179681  12.310  11.438   0.623
92616SOL    HW279682  12.373  11.462   0.759
92617SOL     OW79683   2.247   5.194   1.712
92617SOL    HW179684   2.297   5.275   1.727
92617SOL    HW279685   2.156   5.222   1.712
92618SOL     OW79686   5.078   9.192   4.894
92618SOL    HW179687   5.029   9.266   4.857
92618SOL    HW279688   5.133   9.231   4.962
92619SOL     OW79689   3.349   4.801  14.656
92619SOL    HW179690   3.366   4.886  14.615
92619SOL    HW279691   3.428   4.750  14.638
92620SOL     OW79692   4.698   9.558   1.723
92620SOL    HW179693   4.742   9.542   1.807
92620SOL    HW279694   4.681   9.470   1.689
92621SOL     OW79695   4.710   4.424   1.947
92621SOL    HW179696   4.630   4.469   1.921
92621SOL    HW279697   4.704   4.416   2.042
92622SOL     OW79698   1.084   1.632  11.575
92622SOL    HW179699   1.174   1.659  11.559
92622SOL    HW279700   1.030   1.696  11.529
92623SOL     OW79701   4.320  14.254   7.594
92623SOL    HW179702   4.229  14.284   7.598
92623SOL    HW279703   4.367  14.314   7.651
92624SOL     OW79704   5.104  12.855   1.764
92624SOL    HW179705   5.177  12.837   1.705
92624SOL    HW279706   5.035  12.794   1.737
92625SOL     OW79707  13.793   1.710  12.569
92625SOL    HW179708  13.838   1.660  12.501
92625SOL    HW279709  13.710   1.736  12.529
92626SOL     OW79710   4.083   9.714   3.981
92626SOL    HW179711   4.073   9.660   3.902
92626SOL    HW279712   4.065   9.804   3.951
92627SOL     OW79713  10.945   6.702   8.210
92627SOL    HW179714  10.887   6.778   8.210
92627SOL    HW279715  11.009   6.721   8.279
92628SOL     OW79716  10.363  12.403   7.690
92628SOL    HW179717  10.327  12.328   7.738
92628SOL    HW279718  10.447  12.420   7.732
92629SOL     OW79719   7.841   1.807   1.919
92629SOL    HW179720   7.815   1.847   1.836
92629SOL    HW279721   7.760   1.771   1.954
92630SOL     OW79722   5.441   4.911   1.155
92630SOL    HW179723   5.396   4.934   1.236
92630SOL    HW279724   5.533   4.907   1.178
92631SOL     OW79725  11.539   4.367  12.442
92631SOL    HW179726  11.505   4.418  12.368
92631SOL    HW279727  11.558   4.281  12.405
92632SOL     OW79728   1.606  10.757   0.785
92632SOL    HW179729   1.581  10.683   0.729
92632SOL    HW279730   1.661  10.718   0.854
92633SOL     OW79731   9.398  10.847   7.079
92633SOL    HW179732   9.309  10.876   7.100
92633SOL    HW279733   9.454  10.896   7.139
92634SOL     OW79734   0.301   1.173  11.142
92634SOL    HW179735   0.363   1.132  11.202
92634SOL    HW279736   0.300   1.265  11.167
92635SOL     OW79737  11.871   5.679  11.839
92635SOL    HW179738  11.910   5.658  11.755
92635SOL    HW279739  11.938   5.657  11.904
92636SOL     OW79740  14.333   9.416   1.033
92636SOL    HW179741  14.345   9.505   0.999
92636SOL    HW279742  14.375   9.360   0.968
92637SOL     OW79743   4.780   5.363   8.009
92637SOL    HW179744   4.747   5.377   8.097
92637SOL    HW279745   4.875   5.363   8.019
92638SOL     OW79746   3.567  12.781   3.283
92638SOL    HW179747   3.521  12.823   3.210
92638SOL    HW279748   3.609  12.853   3.329
92639SOL     OW79749  12.925   0.844   3.983
92639SOL    HW179750  12.992   0.781   3.957
92639SOL    HW279751  12.851   0.790   4.012
92640SOL     OW79752   3.947   9.632   6.790
92640SOL    HW179753   3.905   9.714   6.766
92640SOL    HW279754   3.923   9.617   6.881
92641SOL     OW79755   8.210   7.011  10.992
92641SOL    HW179756   8.155   7.085  10.965
92641SOL    HW279757   8.178   6.937  10.941
92642SOL     OW79758   6.423   2.485   4.844
92642SOL    HW179759   6.402   2.504   4.752
92642SOL    HW279760   6.338   2.485   4.888
92643SOL     OW79761   6.649   4.168   7.503
92643SOL    HW179762   6.559   4.178   7.472
92643SOL    HW279763   6.651   4.214   7.587
92644SOL     OW79764   3.675  10.759   9.680
92644SOL    HW179765   3.758  10.788   9.643
92644SOL    HW279766   3.699  10.689   9.741
92645SOL     OW79767  14.575   2.999  11.274
92645SOL    HW179768  14.480   2.998  11.265
92645SOL    HW279769  14.592   3.067  11.339
92646SOL     OW79770   9.680   4.433   1.830
92646SOL    HW179771   9.633   4.495   1.886
92646SOL    HW279772   9.610   4.379   1.791
92647SOL     OW79773  12.195  11.731  11.350
92647SOL    HW179774  12.203  11.825  11.365
92647SOL    HW279775  12.285  11.700  11.341
92648SOL     OW79776   1.251   8.852   6.009
92648SOL    HW179777   1.321   8.788   5.994
92648SOL    HW279778   1.268   8.886   6.097
92649SOL     OW79779   9.634   7.031  12.141
92649SOL    HW179780   9.702   7.004  12.080
92649SOL    HW279781   9.589   7.104  12.097
92650SOL     OW79782   0.486   2.415  10.813
92650SOL    HW179783   0.468   2.415  10.719
92650SOL    HW279784   0.575   2.452  10.820
92651SOL     OW79785   4.823  13.159   4.814
92651SOL    HW179786   4.745  13.128   4.861
92651SOL    HW279787   4.817  13.117   4.728
92652SOL     OW79788   8.633   1.241  11.702
92652SOL    HW179789   8.700   1.178  11.729
92652SOL    HW279790   8.566   1.189  11.659
92653SOL     OW79791   0.490   9.166   4.705
92653SOL    HW179792   0.571   9.217   4.709
92653SOL    HW279793   0.519   9.075   4.698
92654SOL     OW79794  12.022  11.742   5.444
92654SOL    HW179795  11.940  11.710   5.406
92654SOL    HW279796  12.059  11.665   5.489
92655SOL     OW79797  10.881   1.441   3.062
92655SOL    HW179798  10.936   1.500   3.114
92655SOL    HW279799  10.927   1.357   3.065
92656SOL     OW79800  14.039   2.815  11.241
92656SOL    HW179801  14.133   2.817  11.225
92656SOL    HW279802  14.006   2.751  11.177
92657SOL     OW79803  12.748  13.177   2.120
92657SOL    HW179804  12.771  13.137   2.204
92657SOL    HW279805  12.824  13.160   2.064
92658SOL     OW79806  10.471   5.374   3.727
92658SOL    HW179807  10.417   5.399   3.802
92658SOL    HW279808  10.417   5.312   3.678
92659SOL     OW79809   0.233   8.615  14.067
92659SOL    HW179810   0.316   8.649  14.098
92659SOL    HW279811   0.175   8.619  14.143
92660SOL     OW79812   2.246  12.004   1.735
92660SOL    HW179813   2.249  12.049   1.651
92660SOL    HW279814   2.213  11.916   1.714
92661SOL     OW79815  10.435   9.169   5.521
92661SOL    HW179816  10.530   9.155   5.511
92661SOL    HW279817  10.418   9.153   5.613
92662SOL     OW79818   5.666   6.681   1.857
92662SOL    HW179819   5.584   6.676   1.808
92662SOL    HW279820   5.704   6.593   1.849
92663SOL     OW79821  13.060   0.027   3.528
92663SOL    HW179822  13.036   0.058   3.616
92663SOL    HW279823  13.026   0.094   3.469
92664SOL     OW79824   8.272  13.972   2.991
92664SOL    HW179825   8.177  13.984   2.994
92664SOL    HW279826   8.287  13.921   2.911
92665SOL     OW79827   9.480   5.687  11.330
92665SOL    HW179828   9.473   5.593  11.318
92665SOL    HW279829   9.570   5.709  11.306
92666SOL     OW79830   9.913  12.860  12.659
92666SOL    HW179831   9.917  12.915  12.737
92666SOL    HW279832   9.934  12.920  12.587
92667SOL     OW79833  10.031  12.287   9.957
92667SOL    HW179834  10.093  12.285  10.030
92667SOL    HW279835  10.085  12.271   9.880
92668SOL     OW79836   9.543   0.654   3.186
92668SOL    HW179837   9.582   0.651   3.274
92668SOL    HW279838   9.618   0.649   3.127
92669SOL     OW79839  13.814  12.620   2.394
92669SOL    HW179840  13.738  12.622   2.452
92669SOL    HW279841  13.880  12.672   2.439
92670SOL     OW79842   1.408  10.789   5.591
92670SOL    HW179843   1.461  10.806   5.669
92670SOL    HW279844   1.463  10.816   5.518
92671SOL     OW79845   8.744  14.278  13.436
92671SOL    HW179846   8.713  14.191  13.410
92671SOL    HW279847   8.837  14.279  13.411
92672SOL     OW79848   6.658   0.149  14.000
92672SOL    HW179849   6.700   0.106  14.075
92672SOL    HW279850   6.592   0.206  14.039
92673SOL     OW79851  11.709  14.016   6.410
92673SOL    HW179852  11.648  13.982   6.475
92673SOL    HW279853  11.698  14.111   6.413
92674SOL     OW79854   6.681   3.078   0.980
92674SOL    HW179855   6.767   3.103   0.945
92674SOL    HW279856   6.693   3.078   1.075
92675SOL     OW79857   4.849  14.560   2.325
92675SOL    HW179858   4.937  14.529   2.304
92675SOL    HW279859   4.859  14.603   2.410
92676SOL     OW79860   0.283   1.868  12.167
92676SOL    HW179861   0.195   1.902  12.183
92676SOL    HW279862   0.313   1.915  12.089
92677SOL     OW79863   1.272   4.614  14.647
92677SOL    HW179864   1.222   4.693  14.630
92677SOL    HW279865   1.223   4.544  14.604
92678SOL     OW79866   5.173   1.182   4.740
92678SOL    HW179867   5.221   1.100   4.733
92678SOL    HW279868   5.135   1.181   4.828
92679SOL     OW79869   4.940  14.085   0.229
92679SOL    HW179870   4.848  14.063   0.211
92679SOL    HW279871   4.961  14.034   0.307
92680SOL     OW79872  11.475   4.773   0.869
92680SOL    HW179873  11.431   4.859   0.872
92680SOL    HW279874  11.550   4.783   0.927
92681SOL     OW79875   6.327   5.778   3.537
92681SOL    HW179876   6.321   5.774   3.632
92681SOL    HW279877   6.251   5.829   3.510
92682SOL     OW79878   9.151  12.368  11.322
92682SOL    HW179879   9.213  12.363  11.249
92682SOL    HW279880   9.143  12.277  11.352
92683SOL     OW79881   4.008   8.404   5.558
92683SOL    HW179882   3.983   8.313   5.542
92683SOL    HW279883   3.928   8.454   5.539
92684SOL     OW79884   9.440   9.013   8.717
92684SOL    HW179885   9.509   9.043   8.777
92684SOL    HW279886   9.392   8.947   8.768
92685SOL     OW79887   5.961   2.712   2.383
92685SOL    HW179888   6.015   2.705   2.304
92685SOL    HW279889   6.013   2.670   2.452
92686SOL     OW79890  12.390  13.487  12.201
92686SOL    HW179891  12.427  13.570  12.172
92686SOL    HW279892  12.406  13.427  12.127
92687SOL     OW79893   3.727   9.063   8.159
92687SOL    HW179894   3.788   9.104   8.221
92687SOL    HW279895   3.782   9.034   8.087
92688SOL     OW79896   8.396   3.540   2.475
92688SOL    HW179897   8.408   3.538   2.570
92688SOL    HW279898   8.345   3.619   2.460
92689SOL     OW79899  13.977   1.125   2.480
92689SOL    HW179900  13.893   1.100   2.441
92689SOL    HW279901  13.960   1.130   2.574
92690SOL     OW79902   5.821  12.501  13.666
92690SOL    HW179903   5.797  12.592  13.684
92690SOL    HW279904   5.897  12.507  13.609
92691SOL     OW79905  10.803   9.759  12.763
92691SOL    HW179906  10.829   9.801  12.845
92691SOL    HW279907  10.868   9.788  12.699
92692SOL     OW79908   6.100   8.896  14.665
92692SOL    HW179909   6.134   8.965  14.722
92692SOL    HW279910   6.129   8.921  14.577
92693SOL     OW79911   0.826   3.810   8.379
92693SOL    HW179912   0.745   3.798   8.330
92693SOL    HW279913   0.831   3.904   8.394
92694SOL     OW79914   1.973   4.025  13.409
92694SOL    HW179915   1.964   3.992  13.319
92694SOL    HW279916   1.887   4.061  13.430
92695SOL     OW79917   6.197  13.278  13.164
92695SOL    HW179918   6.287  13.312  13.165
92695SOL    HW279919   6.179  13.263  13.071
92696SOL     OW79920   5.667  14.059   6.069
92696SOL    HW179921   5.607  14.131   6.048
92696SOL    HW279922   5.639  14.028   6.155
92697SOL     OW79923   9.486   9.684   4.348
92697SOL    HW179924   9.487   9.774   4.382
92697SOL    HW279925   9.444   9.633   4.417
92698SOL     OW79926   3.776   3.717   5.422
92698SOL    HW179927   3.849   3.706   5.361
92698SOL    HW279928   3.768   3.631   5.465
92699SOL     OW79929   7.419  12.754   3.847
92699SOL    HW179930   7.390  12.840   3.816
92699SOL    HW279931   7.488  12.729   3.786
92700SOL     OW79932  13.172   8.792   1.916
92700SOL    HW179933  13.258   8.820   1.884
92700SOL    HW279934  13.188   8.763   2.006
92701SOL     OW79935   9.416   3.885   8.573
92701SOL    HW179936   9.460   3.807   8.541
92701SOL    HW279937   9.480   3.955   8.563
92702SOL     OW79938  11.096   5.346   9.831
92702SOL    HW179939  11.025   5.310   9.778
92702SOL    HW279940  11.175   5.311   9.791
92703SOL     OW79941  11.385   1.259  14.102
92703SOL    HW179942  11.301   1.229  14.137
92703SOL    HW279943  11.366   1.286  14.013
92704SOL     OW79944   9.137   2.942   0.157
92704SOL    HW179945   9.106   2.963   0.069
92704SOL    HW279946   9.189   3.019   0.183
92705SOL     OW79947   4.966   3.759   3.676
92705SOL    HW179948   4.954   3.677   3.724
92705SOL    HW279949   4.890   3.763   3.617
92706SOL     OW79950   3.617   6.082   9.429
92706SOL    HW179951   3.630   6.151   9.364
92706SOL    HW279952   3.682   6.015   9.406
92707SOL     OW79953   4.997  12.966  11.593
92707SOL    HW179954   5.070  12.986  11.535
92707SOL    HW279955   5.027  12.992  11.680
92708SOL     OW79956   9.548  12.650   1.654
92708SOL    HW179957   9.505  12.605   1.582
92708SOL    HW279958   9.477  12.681   1.710
92709SOL     OW79959   7.524   9.171   1.649
92709SOL    HW179960   7.497   9.176   1.741
92709SOL    HW279961   7.539   9.077   1.634
92710SOL     OW79962  11.898   8.168   0.600
92710SOL    HW179963  11.964   8.098   0.611
92710SOL    HW279964  11.849   8.142   0.521
92711SOL     OW79965  13.316   9.546   0.589
92711SOL    HW179966  13.258   9.551   0.513
92711SOL    HW279967  13.398   9.512   0.553
92712SOL     OW79968   7.905   3.542   0.643
92712SOL    HW179969   7.908   3.590   0.560
92712SOL    HW279970   7.872   3.456   0.619
92713SOL     OW79971   0.685   2.812   5.088
92713SOL    HW179972   0.610   2.754   5.106
92713SOL    HW279973   0.745   2.796   5.161
92714SOL     OW79974   8.899   6.335  12.368
92714SOL    HW179975   8.939   6.260  12.412
92714SOL    HW279976   8.812   6.343  12.408
92715SOL     OW79977  14.010  12.930  10.941
92715SOL    HW179978  14.096  12.889  10.930
92715SOL    HW279979  14.012  12.966  11.030
92716SOL     OW79980   8.946   9.124   8.784
92716SOL    HW179981   9.018   9.098   8.726
92716SOL    HW279982   8.873   9.141   8.724
92717SOL     OW79983   8.990   9.491   0.201
92717SOL    HW179984   9.023   9.547   0.131
92717SOL    HW279985   9.057   9.495   0.269
92718SOL     OW79986  13.469  12.461  13.929
92718SOL    HW179987  13.388  12.436  13.972
92718SOL    HW279988  13.499  12.381  13.886
92719SOL     OW79989   2.790   4.658   3.179
92719SOL    HW179990   2.876   4.696   3.192
92719SOL    HW279991   2.751   4.655   3.266
92720SOL     OW79992   6.048  12.110   5.092
92720SOL    HW179993   6.129  12.104   5.040
92720SOL    HW279994   6.061  12.048   5.163
92721SOL     OW79995  11.435   3.624   5.578
92721SOL    HW179996  11.342   3.637   5.598
92721SOL    HW279997  11.441   3.534   5.548
92722SOL     OW79998   7.375   0.021   2.085
92722SOL    HW179999   7.455   0.008   2.135
92722SOL    HW280000   7.371  14.823   2.028
92723SOL     OW80001   3.264  14.873   7.628
92723SOL    HW180002   3.261  14.784   7.591
92723SOL    HW280003   3.205   0.045   7.573
92724SOL     OW80004  10.233  12.781  12.205
92724SOL    HW180005  10.195  12.836  12.273
92724SOL    HW280006  10.180  12.800  12.127
92725SOL     OW80007   6.357   8.735  11.969
92725SOL    HW180008   6.407   8.677  12.026
92725SOL    HW280009   6.301   8.785  12.028
92726SOL     OW80010   9.659  12.714   2.156
92726SOL    HW180011   9.666  12.692   2.249
92726SOL    HW280012   9.601  12.790   2.154
92727SOL     OW80013   3.171  12.273   7.090
92727SOL    HW180014   3.201  12.288   7.001
92727SOL    HW280015   3.076  12.281   7.085
92728SOL     OW80016  13.757   8.514  14.836
92728SOL    HW180017  13.775   8.516  14.742
92728SOL    HW280018  13.665   8.538  14.843
92729SOL     OW80019  10.642  12.668   9.855
92729SOL    HW180020  10.687  12.595   9.812
92729SOL    HW280021  10.680  12.671   9.943
92730SOL     OW80022  11.466   2.185   0.669
92730SOL    HW180023  11.407   2.145   0.733
92730SOL    HW280024  11.541   2.213   0.721
92731SOL     OW80025  13.674   6.383   1.008
92731SOL    HW180026  13.740   6.343   0.951
92731SOL    HW280027  13.680   6.332   1.089
92732SOL     OW80028   6.808  14.651   2.619
92732SOL    HW180029   6.836  14.710   2.688
92732SOL    HW280030   6.716  14.634   2.637
92733SOL     OW80031   6.843   1.335  14.242
92733SOL    HW180032   6.847   1.306  14.152
92733SOL    HW280033   6.782   1.409  14.241
92734SOL     OW80034   8.722  13.448   2.593
92734SOL    HW180035   8.680  13.534   2.589
92734SOL    HW280036   8.671  13.400   2.659
92735SOL     OW80037   2.677  13.081   4.258
92735SOL    HW180038   2.667  13.133   4.337
92735SOL    HW280039   2.768  13.050   4.260
92736SOL     OW80040   8.921   2.908   8.630
92736SOL    HW180041   8.974   2.975   8.587
92736SOL    HW280042   8.849   2.891   8.569
92737SOL     OW80043  13.513   9.809  10.492
92737SOL    HW180044  13.501   9.741  10.426
92737SOL    HW280045  13.449   9.789  10.560
92738SOL     OW80046   9.174   7.382  11.939
92738SOL    HW180047   9.156   7.340  12.024
92738SOL    HW280048   9.096   7.363  11.887
92739SOL     OW80049   5.761  13.884   8.959
92739SOL    HW180050   5.671  13.854   8.969
92739SOL    HW280051   5.770  13.953   9.025
92740SOL     OW80052   9.692   5.224   3.700
92740SOL    HW180053   9.699   5.170   3.621
92740SOL    HW280054   9.629   5.178   3.755
92741SOL     OW80055   6.152   7.999   3.108
92741SOL    HW180056   6.187   8.059   3.173
92741SOL    HW280057   6.223   7.936   3.092
92742SOL     OW80058  11.183   1.681   4.795
92742SOL    HW180059  11.259   1.738   4.808
92742SOL    HW280060  11.173   1.676   4.700
92743SOL     OW80061   9.928  12.429   1.071
92743SOL    HW180062   9.983  12.351   1.075
92743SOL    HW280063   9.924  12.451   0.978
92744SOL     OW80064   1.120  12.722  11.373
92744SOL    HW180065   1.192  12.770  11.333
92744SOL    HW280066   1.043  12.749  11.323
92745SOL     OW80067  12.769   3.682  13.735
92745SOL    HW180068  12.757   3.741  13.810
92745SOL    HW280069  12.844   3.628  13.759
92746SOL     OW80070   9.725  11.499   8.447
92746SOL    HW180071   9.637  11.535   8.461
92746SOL    HW280072   9.713  11.404   8.449
92747SOL     OW80073   4.291  10.278   3.474
92747SOL    HW180074   4.206  10.314   3.497
92747SOL    HW280075   4.336  10.268   3.558
92748SOL     OW80076   3.265   7.421   9.480
92748SOL    HW180077   3.261   7.339   9.432
92748SOL    HW280078   3.197   7.475   9.441
92749SOL     OW80079   2.111   2.578   7.042
92749SOL    HW180080   2.085   2.486   7.039
92749SOL    HW280081   2.079   2.616   6.960
92750SOL     OW80082   2.741  13.464   3.612
92750SOL    HW180083   2.787  13.515   3.545
92750SOL    HW280084   2.739  13.374   3.577
92751SOL     OW80085  12.731   3.774   4.827
92751SOL    HW180086  12.752   3.821   4.746
92751SOL    HW280087  12.702   3.842   4.888
92752SOL     OW80088   8.806  14.348   1.800
92752SOL    HW180089   8.744  14.276   1.805
92752SOL    HW280090   8.878  14.322   1.858
92753SOL     OW80091   4.533   2.176   0.954
92753SOL    HW180092   4.584   2.223   1.020
92753SOL    HW280093   4.567   2.209   0.871
92754SOL     OW80094   1.086   1.453  13.094
92754SOL    HW180095   1.148   1.464  13.166
92754SOL    HW280096   1.131   1.395  13.032
92755SOL     OW80097   2.195   4.172   1.215
92755SOL    HW180098   2.148   4.229   1.154
92755SOL    HW280099   2.153   4.187   1.300
92756SOL     OW80100  11.992   8.399   6.789
92756SOL    HW180101  11.963   8.414   6.699
92756SOL    HW280102  11.951   8.468   6.840
92757SOL     OW80103   8.188   4.512   0.859
92757SOL    HW180104   8.143   4.495   0.777
92757SOL    HW280105   8.278   4.533   0.833
92758SOL     OW80106   7.014  12.092  11.833
92758SOL    HW180107   6.941  12.115  11.890
92758SOL    HW280108   7.049  12.010  11.870
92759SOL     OW80109   3.393  10.484   6.968
92759SOL    HW180110   3.430  10.480   7.056
92759SOL    HW280111   3.298  10.478   6.982
92760SOL     OW80112   5.809   4.872  11.089
92760SOL    HW180113   5.815   4.870  10.993
92760SOL    HW280114   5.754   4.797  11.111
92761SOL     OW80115  14.813   5.614  12.432
92761SOL    HW180116  14.812   5.580  12.521
92761SOL    HW280117  14.721   5.634  12.413
92762SOL     OW80118  11.079   1.095  11.854
92762SOL    HW180119  11.126   1.118  11.934
92762SOL    HW280120  10.997   1.057  11.884
92763SOL     OW80121   4.718  14.863   7.433
92763SOL    HW180122   4.660   0.018   7.365
92763SOL    HW280123   4.676  14.782   7.463
92764SOL     OW80124  10.011  12.693   4.186
92764SOL    HW180125   9.995  12.691   4.280
92764SOL    HW280126  10.107  12.701   4.179
92765SOL     OW80127  10.741   2.244  11.275
92765SOL    HW180128  10.789   2.287  11.345
92765SOL    HW280129  10.685   2.312  11.238
92766SOL     OW80130   7.020  14.821  10.085
92766SOL    HW180131   7.086  14.764  10.046
92766SOL    HW280132   7.011  14.789  10.175
92767SOL     OW80133  13.885   0.783   5.708
92767SOL    HW180134  13.964   0.770   5.761
92767SOL    HW280135  13.813   0.786   5.771
92768SOL     OW80136   8.281  11.024   9.456
92768SOL    HW180137   8.186  11.016   9.464
92768SOL    HW280138   8.295  11.048   9.364
92769SOL     OW80139   7.662   8.016   2.130
92769SOL    HW180140   7.597   7.993   2.195
92769SOL    HW280141   7.621   7.997   2.046
92770SOL     OW80142  12.781   6.405   7.224
92770SOL    HW180143  12.804   6.437   7.137
92770SOL    HW280144  12.737   6.321   7.207
92771SOL     OW80145   0.981   1.417   7.922
92771SOL    HW180146   0.962   1.442   8.012
92771SOL    HW280147   1.071   1.445   7.908
92772SOL     OW80148   7.378   3.436   2.140
92772SOL    HW180149   7.459   3.386   2.146
92772SOL    HW280150   7.391   3.510   2.199
92773SOL     OW80151   8.954   4.682   6.732
92773SOL    HW180152   8.895   4.715   6.664
92773SOL    HW280153   8.983   4.760   6.779
92774SOL     OW80154   4.520   9.440   9.536
92774SOL    HW180155   4.482   9.365   9.489
92774SOL    HW280156   4.595   9.404   9.583
92775SOL     OW80157   7.258   2.093   0.996
92775SOL    HW180158   7.179   2.072   1.046
92775SOL    HW280159   7.230   2.087   0.904
92776SOL     OW80160   3.057   9.215  14.293
92776SOL    HW180161   3.110   9.269  14.351
92776SOL    HW280162   3.076   9.125  14.321
92777SOL     OW80163   9.650   9.209   0.171
92777SOL    HW180164   9.563   9.171   0.183
92777SOL    HW280165   9.696   9.147   0.114
92778SOL     OW80166   8.263   8.550  14.176
92778SOL    HW180167   8.325   8.610  14.136
92778SOL    HW280168   8.233   8.493  14.105
92779SOL     OW80169  13.728   8.970   8.355
92779SOL    HW180170  13.736   8.967   8.260
92779SOL    HW280171  13.818   8.973   8.387
92780SOL     OW80172  12.321   8.506   0.886
92780SOL    HW180173  12.300   8.414   0.875
92780SOL    HW280174  12.237   8.551   0.883
92781SOL     OW80175   3.502  13.219   2.311
92781SOL    HW180176   3.420  13.189   2.350
92781SOL    HW280177   3.515  13.163   2.235
92782SOL     OW80178   5.513   2.860  14.547
92782SOL    HW180179   5.550   2.783  14.591
92782SOL    HW280180   5.486   2.827  14.461
92783SOL     OW80181   1.785  11.915  12.609
92783SOL    HW180182   1.783  12.003  12.648
92783SOL    HW280183   1.847  11.866  12.663
92784SOL     OW80184   4.300  14.063   4.328
92784SOL    HW180185   4.362  14.135   4.331
92784SOL    HW280186   4.219  14.102   4.294
92785SOL     OW80187   5.012  13.992   7.940
92785SOL    HW180188   4.990  14.019   7.851
92785SOL    HW280189   5.104  13.966   7.935
92786SOL     OW80190  11.298  10.867  13.369
92786SOL    HW180191  11.247  10.800  13.414
92786SOL    HW280192  11.386  10.859  13.405
92787SOL     OW80193  12.070   0.111   5.454
92787SOL    HW180194  12.125   0.033   5.438
92787SOL    HW280195  12.125   0.185   5.428
92788SOL     OW80196   6.714   3.797   6.515
92788SOL    HW180197   6.625   3.763   6.511
92788SOL    HW280198   6.705   3.889   6.491
92789SOL     OW80199  13.178   2.764  12.865
92789SOL    HW180200  13.089   2.782  12.895
92789SOL    HW280201  13.185   2.810  12.781
92790SOL     OW80202   9.802  11.270  10.983
92790SOL    HW180203   9.735  11.338  10.974
92790SOL    HW280204   9.780  11.206  10.915
92791SOL     OW80205  14.003   5.750   3.800
92791SOL    HW180206  14.024   5.720   3.711
92791SOL    HW280207  13.945   5.683   3.835
92792SOL     OW80208   6.012  14.725   3.130
92792SOL    HW180209   5.920  14.745   3.144
92792SOL    HW280210   6.019  14.630   3.144
92793SOL     OW80211   6.584   3.946   4.298
92793SOL    HW180212   6.585   3.964   4.392
92793SOL    HW280213   6.575   3.851   4.292
92794SOL     OW80214   5.121   0.778   4.336
92794SOL    HW180215   5.100   0.764   4.243
92794SOL    HW280216   5.166   0.699   4.363
92795SOL     OW80217   6.258   1.857   9.504
92795SOL    HW180218   6.244   1.911   9.581
92795SOL    HW280219   6.171   1.824   9.481
92796SOL     OW80220   7.983   7.301  10.588
92796SOL    HW180221   7.952   7.344  10.508
92796SOL    HW280222   7.916   7.236  10.608
92797SOL     OW80223  12.950  12.514  12.994
92797SOL    HW180224  12.998  12.574  12.938
92797SOL    HW280225  12.882  12.477  12.937
92798SOL     OW80226   7.978   4.015   2.635
92798SOL    HW180227   7.937   4.083   2.581
92798SOL    HW280228   8.027   3.961   2.573
92799SOL     OW80229   9.608   1.471  11.295
92799SOL    HW180230   9.638   1.531  11.226
92799SOL    HW280231   9.639   1.511  11.376
92800SOL     OW80232   0.223   5.579  13.882
92800SOL    HW180233   0.169   5.652  13.910
92800SOL    HW280234   0.171   5.501  13.903
92801SOL     OW80235   0.365   0.207   9.653
92801SOL    HW180236   0.461   0.210   9.653
92801SOL    HW280237   0.342   0.159   9.732
92802SOL     OW80238   4.390   7.957   1.389
92802SOL    HW180239   4.396   7.863   1.372
92802SOL    HW280240   4.406   7.997   1.304
92803SOL     OW80241   9.345  14.772   4.512
92803SOL    HW180242   9.298  14.735   4.587
92803SOL    HW280243   9.419  14.712   4.498
92804SOL     OW80244   5.663   2.421  12.883
92804SOL    HW180245   5.638   2.467  12.963
92804SOL    HW280246   5.642   2.330  12.900
92805SOL     OW80247   4.519  13.981   0.413
92805SOL    HW180248   4.584  13.999   0.344
92805SOL    HW280249   4.538  13.891   0.440
92806SOL     OW80250   0.100   7.100   7.892
92806SOL    HW180251   0.037   7.028   7.887
92806SOL    HW280252   0.103   7.122   7.985
92807SOL     OW80253   4.442   6.923  13.222
92807SOL    HW180254   4.523   6.912  13.172
92807SOL    HW280255   4.470   6.962  13.305
92808SOL     OW80256  11.775  11.250  14.843
92808SOL    HW180257  11.768  11.195  14.764
92808SOL    HW280258  11.870  11.258  14.857
92809SOL     OW80259   0.368   0.334   2.389
92809SOL    HW180260   0.420   0.400   2.434
92809SOL    HW280261   0.278   0.366   2.395
92810SOL     OW80262   3.166  12.171   4.020
92810SOL    HW180263   3.220  12.139   4.093
92810SOL    HW280264   3.188  12.113   3.947
92811SOL     OW80265   1.642   3.515   2.346
92811SOL    HW180266   1.696   3.549   2.275
92811SOL    HW280267   1.704   3.477   2.408
92812SOL     OW80268   7.469   0.539   5.155
92812SOL    HW180269   7.528   0.602   5.197
92812SOL    HW280270   7.482   0.553   5.061
92813SOL     OW80271   3.878   4.735   6.994
92813SOL    HW180272   3.889   4.744   6.899
92813SOL    HW280273   3.951   4.679   7.020
92814SOL     OW80274  12.357  12.685   9.444
92814SOL    HW180275  12.278  12.696   9.391
92814SOL    HW280276  12.336  12.613   9.503
92815SOL     OW80277   6.630  14.232  11.096
92815SOL    HW180278   6.602  14.144  11.072
92815SOL    HW280279   6.551  14.273  11.133
92816SOL     OW80280   6.518   3.463   7.962
92816SOL    HW180281   6.583   3.401   7.932
92816SOL    HW280282   6.479   3.422   8.040
92817SOL     OW80283   4.247   8.281  12.358
92817SOL    HW180284   4.258   8.227  12.279
92817SOL    HW280285   4.229   8.218  12.428
92818SOL     OW80286  10.424   3.342   9.992
92818SOL    HW180287  10.511   3.321  10.026
92818SOL    HW280288  10.373   3.365  10.070
92819SOL     OW80289  13.288   4.547  14.731
92819SOL    HW180290  13.373   4.523  14.767
92819SOL    HW280291  13.261   4.470  14.680
92820SOL     OW80292  13.014   2.805   6.665
92820SOL    HW180293  13.100   2.775   6.693
92820SOL    HW280294  12.979   2.734   6.612
92821SOL     OW80295   5.829   5.900  12.805
92821SOL    HW180296   5.912   5.930  12.840
92821SOL    HW280297   5.808   5.821  12.856
92822SOL     OW80298   0.995   5.451   4.933
92822SOL    HW180299   0.906   5.473   4.903
92822SOL    HW280300   1.036   5.536   4.948
92823SOL     OW80301   0.356   6.361   2.923
92823SOL    HW180302   0.308   6.440   2.948
92823SOL    HW280303   0.438   6.393   2.885
92824SOL     OW80304   0.569   8.093   4.292
92824SOL    HW180305   0.650   8.144   4.301
92824SOL    HW280306   0.499   8.157   4.306
92825SOL     OW80307  14.057  14.258   5.213
92825SOL    HW180308  13.969  14.252   5.175
92825SOL    HW280309  14.106  14.188   5.172
92826SOL     OW80310   2.370  11.136   6.514
92826SOL    HW180311   2.291  11.184   6.491
92826SOL    HW280312   2.442  11.194   6.486
92827SOL     OW80313   8.843   1.464   0.113
92827SOL    HW180314   8.752   1.438   0.105
92827SOL    HW280315   8.855   1.534   0.049
92828SOL     OW80316   2.885   8.385   3.195
92828SOL    HW180317   2.952   8.380   3.264
92828SOL    HW280318   2.891   8.300   3.151
92829SOL     OW80319  12.430   7.979   2.606
92829SOL    HW180320  12.515   7.941   2.584
92829SOL    HW280321  12.367   7.922   2.563
92830SOL     OW80322  13.567   5.200   6.792
92830SOL    HW180323  13.566   5.195   6.888
92830SOL    HW280324  13.485   5.243   6.770
92831SOL     OW80325  14.317   2.986   0.941
92831SOL    HW180326  14.272   2.997   1.025
92831SOL    HW280327  14.247   2.993   0.876
92832SOL     OW80328  10.817   1.952  13.736
92832SOL    HW180329  10.739   2.009  13.732
92832SOL    HW280330  10.815   1.916  13.824
92833SOL     OW80331  13.706   3.615  14.854
92833SOL    HW180332  13.690   3.652   0.062
92833SOL    HW280333  13.618   3.608  14.815
92834SOL     OW80334   7.073   1.506   7.202
92834SOL    HW180335   7.024   1.464   7.131
92834SOL    HW280336   7.046   1.458   7.280
92835SOL     OW80337   3.863   4.135   5.649
92835SOL    HW180338   3.830   4.116   5.738
92835SOL    HW280339   3.953   4.162   5.662
92836SOL     OW80340   0.319   3.480  13.846
92836SOL    HW180341   0.296   3.472  13.753
92836SOL    HW280342   0.241   3.518  13.887
92837SOL     OW80343   1.561   3.566   2.705
92837SOL    HW180344   1.516   3.609   2.633
92837SOL    HW280345   1.636   3.523   2.665
92838SOL     OW80346  13.862   2.055  11.586
92838SOL    HW180347  13.912   2.094  11.657
92838SOL    HW280348  13.773   2.046  11.622
92839SOL     OW80349   9.414   0.848   5.347
92839SOL    HW180350   9.448   0.934   5.320
92839SOL    HW280351   9.492   0.793   5.354
92840SOL     OW80352  10.928  12.476   3.960
92840SOL    HW180353  10.988  12.452   3.889
92840SOL    HW280354  10.944  12.410   4.027
92841SOL     OW80355   9.257   5.856   9.945
92841SOL    HW180356   9.313   5.782   9.922
92841SOL    HW280357   9.281   5.879  10.034
92842SOL     OW80358   9.908   2.396   8.065
92842SOL    HW180359   9.826   2.394   8.016
92842SOL    HW280360   9.966   2.451   8.013
92843SOL     OW80361   3.497  14.155   7.099
92843SOL    HW180362   3.559  14.194   7.037
92843SOL    HW280363   3.531  14.067   7.114
92844SOL     OW80364   2.252   8.894   7.819
92844SOL    HW180365   2.193   8.892   7.743
92844SOL    HW280366   2.287   8.983   7.819
92845SOL     OW80367  11.967   5.532   5.912
92845SOL    HW180368  11.897   5.485   5.956
92845SOL    HW280369  11.930   5.558   5.828
92846SOL     OW80370  11.936  11.225   5.977
92846SOL    HW180371  11.912  11.133   5.981
92846SOL    HW280372  12.027  11.225   5.947
92847SOL     OW80373   4.740   5.260   1.584
92847SOL    HW180374   4.688   5.284   1.508
92847SOL    HW280375   4.686   5.286   1.659
92848SOL     OW80376  14.764   4.205  14.336
92848SOL    HW180377  14.813   4.195  14.254
92848SOL    HW280378  14.685   4.154  14.323
92849SOL     OW80379   4.739  10.658   1.349
92849SOL    HW180380   4.769  10.647   1.259
92849SOL    HW280381   4.820  10.659   1.401
92850SOL     OW80382  14.253   1.214   4.577
92850SOL    HW180383  14.165   1.251   4.586
92850SOL    HW280384  14.310   1.279   4.618
92851SOL     OW80385   2.151   6.296   6.554
92851SOL    HW180386   2.200   6.331   6.480
92851SOL    HW280387   2.164   6.360   6.624
92852SOL     OW80388   2.451  10.076   8.271
92852SOL    HW180389   2.380  10.030   8.316
92852SOL    HW280390   2.496  10.007   8.222
92853SOL     OW80391   2.360  11.540   8.476
92853SOL    HW180392   2.318  11.530   8.562
92853SOL    HW280393   2.313  11.612   8.434
92854SOL     OW80394   2.566   9.121  14.136
92854SOL    HW180395   2.590   9.207  14.171
92854SOL    HW280396   2.622   9.060  14.184
92855SOL     OW80397   4.250   1.302   8.681
92855SOL    HW180398   4.333   1.267   8.647
92855SOL    HW280399   4.224   1.240   8.749
92856SOL     OW80400  14.519  13.866  10.778
92856SOL    HW180401  14.524  13.836  10.688
92856SOL    HW280402  14.570  13.947  10.779
92857SOL     OW80403   7.974   8.076   2.562
92857SOL    HW180404   7.920   8.122   2.498
92857SOL    HW280405   7.953   8.119   2.645
92858SOL     OW80406   4.864   0.415   4.250
92858SOL    HW180407   4.828   0.503   4.264
92858SOL    HW280408   4.799   0.356   4.289
92859SOL     OW80409  10.708   5.001   1.946
92859SOL    HW180410  10.627   5.050   1.933
92859SOL    HW280411  10.776   5.068   1.955
92860SOL     OW80412   2.949   6.677  11.019
92860SOL    HW180413   3.003   6.663  10.941
92860SOL    HW280414   2.906   6.762  11.004
92861SOL     OW80415   9.470  12.114  10.538
92861SOL    HW180416   9.424  12.055  10.599
92861SOL    HW280417   9.539  12.060  10.500
92862SOL     OW80418   1.194   6.590   9.514
92862SOL    HW180419   1.137   6.542   9.573
92862SOL    HW280420   1.157   6.678   9.510
92863SOL     OW80421   8.334   1.496  13.330
92863SOL    HW180422   8.270   1.466  13.265
92863SOL    HW280423   8.414   1.449  13.308
92864SOL     OW80424   9.881  12.990   4.196
92864SOL    HW180425   9.821  13.055   4.158
92864SOL    HW280426   9.826  12.912   4.208
92865SOL     OW80427   1.599   8.233   2.452
92865SOL    HW180428   1.667   8.188   2.502
92865SOL    HW280429   1.522   8.229   2.509
92866SOL     OW80430   8.942  10.108   8.286
92866SOL    HW180431   8.963  10.046   8.216
92866SOL    HW280432   8.902  10.182   8.241
92867SOL     OW80433   6.589   8.975  11.597
92867SOL    HW180434   6.605   9.029  11.674
92867SOL    HW280435   6.603   8.885  11.628
92868SOL     OW80436  14.797   0.416   1.975
92868SOL    HW180437  14.795   0.428   2.070
92868SOL    HW280438  14.733   0.480   1.941
92869SOL     OW80439  11.680   3.514  14.637
92869SOL    HW180440  11.732   3.459  14.695
92869SOL    HW280441  11.625   3.452  14.588
92870SOL     OW80442   4.465   2.791  14.636
92870SOL    HW180443   4.522   2.756  14.704
92870SOL    HW280444   4.440   2.877  14.669
92871SOL     OW80445   1.782   7.106   0.546
92871SOL    HW180446   1.699   7.098   0.498
92871SOL    HW280447   1.781   7.032   0.607
92872SOL     OW80448   8.019   1.035   3.383
92872SOL    HW180449   7.933   1.035   3.342
92872SOL    HW280450   8.064   1.110   3.345
92873SOL     OW80451  11.876   0.484   3.081
92873SOL    HW180452  11.926   0.471   3.001
92873SOL    HW280453  11.785   0.464   3.057
92874SOL     OW80454   1.288  13.830   1.023
92874SOL    HW180455   1.335  13.774   0.962
92874SOL    HW280456   1.259  13.771   1.092
92875SOL     OW80457   5.706  10.207   8.887
92875SOL    HW180458   5.676  10.116   8.880
92875SOL    HW280459   5.794  10.207   8.851
92876SOL     OW80460   9.765  11.666  14.202
92876SOL    HW180461   9.845  11.674  14.254
92876SOL    HW280462   9.757  11.751  14.158
92877SOL     OW80463   2.510  14.080   3.927
92877SOL    HW180464   2.564  14.158   3.916
92877SOL    HW280465   2.540  14.041   4.009
92878SOL     OW80466   3.361   0.336   5.063
92878SOL    HW180467   3.310   0.388   5.002
92878SOL    HW280468   3.298   0.307   5.129
92879SOL     OW80469  10.079   0.047   5.767
92879SOL    HW180470  10.113   0.127   5.807
92879SOL    HW280471  10.035   0.001   5.838
92880SOL     OW80472   6.568  11.431   9.359
92880SOL    HW180473   6.578  11.433   9.454
92880SOL    HW280474   6.482  11.391   9.345
92881SOL     OW80475   5.292   0.108   0.300
92881SOL    HW180476   5.353   0.153   0.358
92881SOL    HW280477   5.233   0.176   0.268
92882SOL     OW80478   2.425   6.736  13.256
92882SOL    HW180479   2.496   6.801  13.256
92882SOL    HW280480   2.438   6.686  13.336
92883SOL     OW80481   2.524  13.699  10.803
92883SOL    HW180482   2.588  13.761  10.770
92883SOL    HW280483   2.462  13.688  10.731
92884SOL     OW80484   2.959   6.812  12.515
92884SOL    HW180485   2.884   6.754  12.531
92884SOL    HW280486   2.972   6.857  12.599
92885SOL     OW80487  14.607  12.572   5.016
92885SOL    HW180488  14.688  12.522   5.022
92885SOL    HW280489  14.565  12.539   4.936
92886SOL     OW80490   0.132  14.732  10.869
92886SOL    HW180491   0.201  14.692  10.923
92886SOL    HW280492   0.177  14.797  10.815
92887SOL     OW80493  10.353   7.262  12.656
92887SOL    HW180494  10.372   7.175  12.621
92887SOL    HW280495  10.277   7.292  12.606
92888SOL     OW80496   1.116   1.710   2.697
92888SOL    HW180497   1.106   1.733   2.790
92888SOL    HW280498   1.177   1.775   2.663
92889SOL     OW80499   9.758  12.919   1.144
92889SOL    HW180500   9.775  13.005   1.105
92889SOL    HW280501   9.762  12.858   1.070
92890SOL     OW80502   2.707   0.106  13.467
92890SOL    HW180503   2.662   0.039  13.518
92890SOL    HW280504   2.800   0.092  13.486
92891SOL     OW80505   5.653   9.408  13.390
92891SOL    HW180506   5.559   9.401  13.402
92891SOL    HW280507   5.679   9.481  13.445
92892SOL     OW80508   1.008   6.227   0.264
92892SOL    HW180509   1.095   6.267   0.271
92892SOL    HW280510   0.989   6.195   0.353
92893SOL     OW80511   1.816  12.393   4.113
92893SOL    HW180512   1.774  12.427   4.192
92893SOL    HW280513   1.852  12.470   4.070
92894SOL     OW80514  11.115   9.408   8.134
92894SOL    HW180515  11.133   9.351   8.059
92894SOL    HW280516  11.199   9.413   8.180
92895SOL     OW80517  10.647   6.103   3.890
92895SOL    HW180518  10.575   6.039   3.885
92895SOL    HW280519  10.669   6.107   3.983
92896SOL     OW80520  13.048   1.122   1.033
92896SOL    HW180521  12.964   1.126   1.079
92896SOL    HW280522  13.054   1.032   1.001
92897SOL     OW80523   0.030   4.344   3.296
92897SOL    HW180524   0.082   4.274   3.335
92897SOL    HW280525   0.029   4.414   3.361
92898SOL     OW80526   3.597  13.004  13.392
92898SOL    HW180527   3.516  13.038  13.431
92898SOL    HW280528   3.652  13.082  13.381
92899SOL     OW80529  11.987   2.375  14.049
92899SOL    HW180530  11.960   2.408  14.135
92899SOL    HW280531  11.923   2.414  13.989
92900SOL     OW80532  12.842   7.935   3.563
92900SOL    HW180533  12.863   8.015   3.613
92900SOL    HW280534  12.747   7.928   3.568
92901SOL     OW80535   0.337   0.990   0.160
92901SOL    HW180536   0.406   1.056   0.158
92901SOL    HW280537   0.330   0.966   0.252
92902SOL     OW80538   3.574   9.573  12.988
92902SOL    HW180539   3.513   9.543  13.056
92902SOL    HW280540   3.659   9.575  13.032
92903SOL     OW80541   7.435   1.935   2.282
92903SOL    HW180542   7.394   1.899   2.361
92903SOL    HW280543   7.506   1.874   2.262
92904SOL     OW80544   1.306  12.748   4.719
92904SOL    HW180545   1.210  12.748   4.711
92904SOL    HW280546   1.332  12.660   4.693
92905SOL     OW80547   5.971  13.673   5.342
92905SOL    HW180548   5.998  13.762   5.366
92905SOL    HW280549   5.970  13.674   5.246
92906SOL     OW80550   4.744  13.903  11.406
92906SOL    HW180551   4.808  13.949  11.351
92906SOL    HW280552   4.778  13.913  11.495
92907SOL     OW80553  12.988  10.011   3.903
92907SOL    HW180554  13.060   9.980   3.959
92907SOL    HW280555  12.975   9.941   3.839
92908SOL     OW80556   9.661  12.553  11.361
92908SOL    HW180557   9.652  12.614  11.288
92908SOL    HW280558   9.590  12.577  11.421
92909SOL     OW80559  10.890   1.666  14.283
92909SOL    HW180560  10.837   1.721  14.341
92909SOL    HW280561  10.980   1.674  14.317
92910SOL     OW80562   5.593   3.560   4.987
92910SOL    HW180563   5.603   3.637   5.042
92910SOL    HW280564   5.663   3.566   4.923
92911SOL     OW80565   0.382   8.332   9.302
92911SOL    HW180566   0.417   8.243   9.310
92911SOL    HW280567   0.457   8.389   9.315
92912SOL     OW80568   9.752  11.659   1.962
92912SOL    HW180569   9.767  11.733   2.021
92912SOL    HW280570   9.698  11.598   2.013
92913SOL     OW80571   9.030   6.514   1.530
92913SOL    HW180572   9.081   6.452   1.478
92913SOL    HW280573   9.039   6.483   1.620
92914SOL     OW80574  12.271   2.637   8.241
92914SOL    HW180575  12.181   2.640   8.208
92914SOL    HW280576  12.313   2.716   8.207
92915SOL     OW80577   8.022   7.488  10.782
92915SOL    HW180578   8.031   7.439  10.700
92915SOL    HW280579   7.954   7.441  10.830
92916SOL     OW80580   0.230   9.494   4.714
92916SOL    HW180581   0.189   9.570   4.756
92916SOL    HW280582   0.273   9.530   4.636
92917SOL     OW80583   0.064   2.607  14.559
92917SOL    HW180584   0.004   2.663  14.509
92917SOL    HW280585   0.007   2.556  14.616
92918SOL     OW80586   9.507   4.802  11.456
92918SOL    HW180587   9.459   4.884  11.458
92918SOL    HW280588   9.583   4.820  11.401
92919SOL     OW80589  14.515   9.934  10.154
92919SOL    HW180590  14.575   9.885  10.099
92919SOL    HW280591  14.455   9.868  10.189
92920SOL     OW80592   5.307  14.661   9.241
92920SOL    HW180593   5.274  14.742   9.280
92920SOL    HW280594   5.228  14.608   9.225
92921SOL     OW80595   8.653   7.399   7.528
92921SOL    HW180596   8.620   7.468   7.470
92921SOL    HW280597   8.681   7.445   7.607
92922SOL     OW80598   6.283  14.518   8.838
92922SOL    HW180599   6.207  14.482   8.794
92922SOL    HW280600   6.330  14.442   8.873
92923SOL     OW80601  14.578   7.839   7.451
92923SOL    HW180602  14.550   7.750   7.430
92923SOL    HW280603  14.673   7.836   7.446
92924SOL     OW80604   6.291  10.692   3.528
92924SOL    HW180605   6.268  10.777   3.568
92924SOL    HW280606   6.383  10.679   3.551
92925SOL     OW80607  10.420   9.160   8.915
92925SOL    HW180608  10.427   9.103   8.991
92925SOL    HW280609  10.373   9.108   8.850
92926SOL     OW80610   0.654   9.084  11.868
92926SOL    HW180611   0.680   9.112  11.779
92926SOL    HW280612   0.582   9.023  11.854
92927SOL     OW80613   4.299  11.262   4.193
92927SOL    HW180614   4.215  11.294   4.224
92927SOL    HW280615   4.360  11.284   4.264
92928SOL     OW80616   2.244   8.561  11.689
92928SOL    HW180617   2.238   8.594  11.600
92928SOL    HW280618   2.247   8.466  11.680
92929SOL     OW80619   1.828  13.977   6.610
92929SOL    HW180620   1.851  13.884   6.606
92929SOL    HW280621   1.757  13.981   6.675
92930SOL     OW80622   0.930   8.253   1.502
92930SOL    HW180623   0.847   8.208   1.520
92930SOL    HW280624   0.981   8.190   1.451
92931SOL     OW80625   1.342  13.709   4.998
92931SOL    HW180626   1.389  13.638   4.954
92931SOL    HW280627   1.310  13.671   5.079
92932SOL     OW80628   8.068   5.959   3.931
92932SOL    HW180629   8.120   5.902   3.987
92932SOL    HW280630   8.132   6.021   3.894
92933SOL     OW80631   1.336   4.340   4.771
92933SOL    HW180632   1.400   4.280   4.731
92933SOL    HW280633   1.292   4.381   4.698
92934SOL     OW80634   6.169   1.383   3.064
92934SOL    HW180635   6.110   1.371   2.989
92934SOL    HW280636   6.225   1.456   3.039
92935SOL     OW80637  11.103   7.604   4.313
92935SOL    HW180638  11.099   7.546   4.389
92935SOL    HW280639  11.177   7.662   4.331
92936SOL     OW80640  10.941   4.404  12.890
92936SOL    HW180641  11.021   4.425  12.842
92936SOL    HW280642  10.961   4.427  12.981
92937SOL     OW80643   6.383   6.249   4.367
92937SOL    HW180644   6.375   6.211   4.455
92937SOL    HW280645   6.364   6.342   4.380
92938SOL     OW80646  10.500   2.842  10.270
92938SOL    HW180647  10.509   2.918  10.328
92938SOL    HW280648  10.523   2.767  10.324
92939SOL     OW80649  12.622  11.167  11.138
92939SOL    HW180650  12.533  11.167  11.103
92939SOL    HW280651  12.635  11.078  11.171
92940SOL     OW80652  14.433   4.567   9.946
92940SOL    HW180653  14.429   4.540  10.038
92940SOL    HW280654  14.510   4.524   9.912
92941SOL     OW80655   7.841   4.483   4.001
92941SOL    HW180656   7.750   4.502   4.026
92941SOL    HW280657   7.835   4.406   3.946
92942SOL     OW80658   9.032   4.747  10.727
92942SOL    HW180659   9.001   4.677  10.668
92942SOL    HW280660   9.082   4.805  10.671
92943SOL     OW80661  11.201  11.043   6.603
92943SOL    HW180662  11.161  11.017   6.686
92943SOL    HW280663  11.152  11.121   6.576
92944SOL     OW80664  10.238   9.755   0.862
92944SOL    HW180665  10.145   9.762   0.843
92944SOL    HW280666  10.258   9.830   0.917
92945SOL     OW80667  11.337  10.854  11.483
92945SOL    HW180668  11.311  10.904  11.405
92945SOL    HW280669  11.258  10.809  11.510
92946SOL     OW80670   1.274  14.013  13.502
92946SOL    HW180671   1.312  14.061  13.576
92946SOL    HW280672   1.326  14.040  13.427
92947SOL     OW80673   6.930   8.222   4.402
92947SOL    HW180674   6.883   8.292   4.357
92947SOL    HW280675   6.864   8.155   4.417
92948SOL     OW80676   9.266   6.233   5.561
92948SOL    HW180677   9.241   6.284   5.484
92948SOL    HW280678   9.234   6.285   5.635
92949SOL     OW80679   6.304  13.553   8.938
92949SOL    HW180680   6.319  13.570   8.845
92949SOL    HW280681   6.378  13.500   8.966
92950SOL     OW80682  11.831  14.540  13.292
92950SOL    HW180683  11.805  14.608  13.355
92950SOL    HW280684  11.765  14.545  13.223
92951SOL     OW80685   8.550  13.473   1.811
92951SOL    HW180686   8.634  13.478   1.766
92951SOL    HW280687   8.518  13.563   1.812
92952SOL     OW80688  14.282  12.731   9.830
92952SOL    HW180689  14.275  12.806   9.889
92952SOL    HW280690  14.324  12.766   9.751
92953SOL     OW80691   3.770   0.022   5.000
92953SOL    HW180692   3.861   0.026   4.970
92953SOL    HW280693   3.774   0.050   5.091
92954SOL     OW80694   4.271   5.506   1.137
92954SOL    HW180695   4.315   5.585   1.105
92954SOL    HW280696   4.196   5.495   1.077
92955SOL     OW80697   9.684   9.407   6.404
92955SOL    HW180698   9.713   9.331   6.454
92955SOL    HW280699   9.739   9.479   6.434
92956SOL     OW80700  14.124   4.984   0.869
92956SOL    HW180701  14.131   4.965   0.963
92956SOL    HW280702  14.205   5.029   0.847
92957SOL     OW80703   9.429  11.314  11.159
92957SOL    HW180704   9.439  11.398  11.204
92957SOL    HW280705   9.339  11.316  11.126
92958SOL     OW80706   9.405   3.038   9.774
92958SOL    HW180707   9.480   3.095   9.756
92958SOL    HW280708   9.429   2.993   9.855
92959SOL     OW80709   7.374   6.571   2.390
92959SOL    HW180710   7.356   6.501   2.328
92959SOL    HW280711   7.469   6.573   2.399
92960SOL     OW80712   4.301  13.567   0.046
92960SOL    HW180713   4.354  13.616  14.862
92960SOL    HW280714   4.322  13.475   0.028
92961SOL     OW80715   8.410  10.524   6.508
92961SOL    HW180716   8.336  10.467   6.527
92961SOL    HW280717   8.486  10.466   6.509
92962SOL     OW80718   7.683  10.807   7.576
92962SOL    HW180719   7.761  10.806   7.631
92962SOL    HW280720   7.632  10.882   7.608
92963SOL     OW80721   0.862   6.408   6.406
92963SOL    HW180722   0.936   6.371   6.357
92963SOL    HW280723   0.898   6.487   6.446
92964SOL     OW80724  13.917   0.582  13.963
92964SOL    HW180725  13.826   0.555  13.948
92964SOL    HW280726  13.918   0.674  13.938
92965SOL     OW80727  13.113   3.165   0.318
92965SOL    HW180728  13.081   3.248   0.283
92965SOL    HW280729  13.047   3.140   0.382
92966SOL     OW80730   1.404   7.537   3.722
92966SOL    HW180731   1.458   7.613   3.706
92966SOL    HW280732   1.364   7.552   3.807
92967SOL     OW80733   1.498   6.782   4.080
92967SOL    HW180734   1.488   6.745   3.992
92967SOL    HW280735   1.411   6.817   4.100
92968SOL     OW80736  13.126   5.258   4.562
92968SOL    HW180737  13.192   5.272   4.494
92968SOL    HW280738  13.080   5.342   4.569
92969SOL     OW80739   5.957   4.912   1.574
92969SOL    HW180740   6.032   4.888   1.628
92969SOL    HW280741   5.992   4.978   1.513
92970SOL     OW80742  12.599   4.605  14.807
92970SOL    HW180743  12.636   4.611  14.719
92970SOL    HW280744  12.579   4.512  14.819
92971SOL     OW80745  10.293   0.948   6.770
92971SOL    HW180746  10.297   0.857   6.739
92971SOL    HW280747  10.346   0.997   6.707
92972SOL     OW80748   2.183   5.839   2.015
92972SOL    HW180749   2.205   5.920   2.061
92972SOL    HW280750   2.088   5.840   2.009
92973SOL     OW80751   9.767   4.007  14.865
92973SOL    HW180752   9.681   3.993   0.027
92973SOL    HW280753   9.763   3.955  14.785
92974SOL     OW80754   2.477   3.328   4.875
92974SOL    HW180755   2.470   3.422   4.861
92974SOL    HW280756   2.571   3.311   4.880
92975SOL     OW80757   8.453   7.913   1.674
92975SOL    HW180758   8.530   7.957   1.636
92975SOL    HW280759   8.467   7.918   1.768
92976SOL     OW80760   6.577   7.821   9.396
92976SOL    HW180761   6.516   7.851   9.463
92976SOL    HW280762   6.634   7.759   9.442
92977SOL     OW80763   1.052   5.084   3.700
92977SOL    HW180764   1.047   5.098   3.795
92977SOL    HW280765   1.031   5.170   3.663
92978SOL     OW80766  10.170   3.822   1.594
92978SOL    HW180767  10.205   3.759   1.657
92978SOL    HW280768  10.104   3.871   1.644
92979SOL     OW80769   5.740   6.704   4.746
92979SOL    HW180770   5.819   6.703   4.691
92979SOL    HW280771   5.704   6.792   4.734
92980SOL     OW80772   8.261   6.813  12.441
92980SOL    HW180773   8.176   6.775  12.421
92980SOL    HW280774   8.318   6.784  12.371
92981SOL     OW80775  14.827  11.943   9.200
92981SOL    HW180776  14.801  11.892   9.277
92981SOL    HW280777  14.749  11.995   9.178
92982SOL     OW80778  11.719   5.894  13.687
92982SOL    HW180779  11.785   5.963  13.699
92982SOL    HW280780  11.666   5.898  13.766
92983SOL     OW80781   5.233   1.788   0.787
92983SOL    HW180782   5.192   1.725   0.727
92983SOL    HW280783   5.300   1.737   0.833
92984SOL     OW80784   6.965  13.870   0.822
92984SOL    HW180785   6.921  13.949   0.853
92984SOL    HW280786   7.029  13.902   0.758
92985SOL     OW80787  12.089   9.380  14.776
92985SOL    HW180788  12.108   9.461  14.823
92985SOL    HW280789  12.092   9.312  14.844
92986SOL     OW80790   8.370  11.734  10.737
92986SOL    HW180791   8.393  11.653  10.784
92986SOL    HW280792   8.453  11.763  10.698
92987SOL     OW80793   0.027  11.040   1.514
92987SOL    HW180794  14.861  11.120   1.540
92987SOL    HW280795  14.869  10.972   1.570
92988SOL     OW80796  13.310   3.888   5.145
92988SOL    HW180797  13.278   3.918   5.060
92988SOL    HW280798  13.283   3.796   5.150
92989SOL     OW80799   1.844   4.710   7.747
92989SOL    HW180800   1.880   4.625   7.722
92989SOL    HW280801   1.818   4.750   7.664
92990SOL     OW80802   5.303  11.051   5.585
92990SOL    HW180803   5.223  11.092   5.617
92990SOL    HW280804   5.274  10.992   5.516
92991SOL     OW80805  12.260  10.563   2.695
92991SOL    HW180806  12.285  10.594   2.782
92991SOL    HW280807  12.247  10.469   2.706
92992SOL     OW80808   6.413   7.218   9.106
92992SOL    HW180809   6.383   7.148   9.047
92992SOL    HW280810   6.433   7.173   9.188
92993SOL     OW80811  13.569   8.392  14.153
92993SOL    HW180812  13.533   8.470  14.110
92993SOL    HW280813  13.499   8.362  14.210
92994SOL     OW80814  14.528   7.886   4.713
92994SOL    HW180815  14.576   7.875   4.632
92994SOL    HW280816  14.533   7.979   4.733
92995SOL     OW80817   2.355   5.555  12.080
92995SOL    HW180818   2.273   5.539  12.032
92995SOL    HW280819   2.422   5.557  12.013
92996SOL     OW80820   1.262   0.944   2.208
92996SOL    HW180821   1.267   0.868   2.150
92996SOL    HW280822   1.247   0.907   2.295
92997SOL     OW80823   7.825   9.544   7.120
92997SOL    HW180824   7.903   9.498   7.088
92997SOL    HW280825   7.840   9.553   7.214
92998SOL     OW80826   0.577  10.704   9.427
92998SOL    HW180827   0.672  10.707   9.425
92998SOL    HW280828   0.556  10.651   9.504
92999SOL     OW80829   7.411  11.431   6.974
92999SOL    HW180830   7.374  11.451   7.060
92999SOL    HW280831   7.499  11.397   6.993
93000SOL     OW80832   3.252   5.025   1.683
93000SOL    HW180833   3.196   5.055   1.610
93000SOL    HW280834   3.334   5.071   1.671
93001SOL     OW80835   6.722   1.210   1.690
93001SOL    HW180836   6.679   1.263   1.622
93001SOL    HW280837   6.813   1.237   1.688
93002SOL     OW80838   4.962   1.277   7.853
93002SOL    HW180839   4.990   1.364   7.824
93002SOL    HW280840   4.877   1.264   7.810
93003SOL     OW80841  13.771   4.354   9.883
93003SOL    HW180842  13.779   4.337   9.977
93003SOL    HW280843  13.862   4.367   9.854
93004SOL     OW80844   0.440   4.017   8.216
93004SOL    HW180845   0.363   4.073   8.209
93004SOL    HW280846   0.514   4.078   8.216
93005SOL     OW80847  10.901  12.928  10.711
93005SOL    HW180848  10.830  12.864  10.706
93005SOL    HW280849  10.979  12.876  10.727
93006SOL     OW80850  13.556   1.555   7.096
93006SOL    HW180851  13.586   1.470   7.130
93006SOL    HW280852  13.541   1.539   7.002
93007SOL     OW80853  14.431   3.856   4.349
93007SOL    HW180854  14.344   3.818   4.360
93007SOL    HW280855  14.455   3.888   4.435
93008SOL     OW80856   6.613   5.746  13.883
93008SOL    HW180857   6.608   5.684  13.810
93008SOL    HW280858   6.545   5.811  13.864
93009SOL     OW80859   5.309   9.395   2.868
93009SOL    HW180860   5.339   9.371   2.956
93009SOL    HW280861   5.373   9.459   2.837
93010SOL     OW80862  13.170  11.229  11.643
93010SOL    HW180863  13.196  11.170  11.714
93010SOL    HW280864  13.076  11.238  11.652
93011SOL     OW80865  10.631   0.476   6.914
93011SOL    HW180866  10.665   0.393   6.948
93011SOL    HW280867  10.707   0.534   6.912
93012SOL     OW80868  10.840   1.425   2.601
93012SOL    HW180869  10.915   1.478   2.627
93012SOL    HW280870  10.801   1.473   2.528
93013SOL     OW80871   2.140  10.972  12.427
93013SOL    HW180872   2.093  11.021  12.495
93013SOL    HW280873   2.087  10.893  12.413
93014SOL     OW80874   7.863  12.067   0.270
93014SOL    HW180875   7.872  12.064   0.175
93014SOL    HW280876   7.941  12.112   0.300
93015SOL     OW80877   7.608   7.581  11.872
93015SOL    HW180878   7.521   7.619  11.885
93015SOL    HW280879   7.650   7.638  11.808
93016SOL     OW80880   4.130   4.441  14.065
93016SOL    HW180881   4.204   4.444  14.126
93016SOL    HW280882   4.084   4.523  14.078
93017SOL     OW80883  12.923   7.694  14.529
93017SOL    HW180884  12.926   7.767  14.591
93017SOL    HW280885  12.840   7.649  14.548
93018SOL     OW80886   8.193   7.725   5.009
93018SOL    HW180887   8.183   7.661   5.080
93018SOL    HW280888   8.104   7.741   4.978
93019SOL     OW80889   4.797   3.900   0.991
93019SOL    HW180890   4.831   3.989   0.977
93019SOL    HW280891   4.722   3.911   1.049
93020SOL     OW80892  13.753  12.059   9.932
93020SOL    HW180893  13.720  12.109  10.007
93020SOL    HW280894  13.722  11.970   9.946
93021SOL     OW80895   3.414   8.628   8.922
93021SOL    HW180896   3.433   8.564   8.853
93021SOL    HW280897   3.326   8.606   8.952
93022SOL     OW80898   5.223  12.034  12.968
93022SOL    HW180899   5.135  12.039  12.929
93022SOL    HW280900   5.279  12.003  12.896
93023SOL     OW80901   0.892   6.360   6.890
93023SOL    HW180902   0.950   6.346   6.965
93023SOL    HW280903   0.936   6.318   6.817
93024SOL     OW80904  12.957   4.155   3.664
93024SOL    HW180905  13.021   4.129   3.598
93024SOL    HW280906  12.959   4.084   3.728
93025SOL     OW80907   9.798   2.053   6.986
93025SOL    HW180908   9.725   1.991   6.990
93025SOL    HW280909   9.864   2.016   7.045
93026SOL     OW80910   1.102   4.495   2.777
93026SOL    HW180911   1.084   4.403   2.756
93026SOL    HW280912   1.055   4.545   2.710
93027SOL     OW80913   7.168  12.990   8.223
93027SOL    HW180914   7.237  13.024   8.166
93027SOL    HW280915   7.091  12.985   8.167
93028SOL     OW80916   7.493  14.102   1.181
93028SOL    HW180917   7.504  14.093   1.087
93028SOL    HW280918   7.523  14.191   1.201
93029SOL     OW80919   8.858   5.420   0.993
93029SOL    HW180920   8.802   5.438   0.918
93029SOL    HW280921   8.796   5.397   1.063
93030SOL     OW80922  14.154   0.790   3.868
93030SOL    HW180923  14.081   0.835   3.911
93030SOL    HW280924  14.138   0.802   3.775
93031SOL     OW80925   5.943  12.303   3.615
93031SOL    HW180926   5.984  12.275   3.533
93031SOL    HW280927   5.906  12.223   3.652
93032SOL     OW80928  12.419   2.703   0.187
93032SOL    HW180929  12.441   2.795   0.197
93032SOL    HW280930  12.397   2.692   0.095
93033SOL     OW80931   4.334   0.023  11.482
93033SOL    HW180932   4.267  14.839  11.509
93033SOL    HW280933   4.316   0.101  11.535
93034SOL     OW80934   8.290   9.981  14.308
93034SOL    HW180935   8.278   9.951  14.218
93034SOL    HW280936   8.384   9.986  14.320
93035SOL     OW80937   1.142  10.869   5.366
93035SOL    HW180938   1.112  10.942   5.421
93035SOL    HW280939   1.236  10.885   5.354
93036SOL     OW80940   5.369   9.795  14.597
93036SOL    HW180941   5.363   9.809  14.503
93036SOL    HW280942   5.403   9.878  14.631
93037SOL     OW80943   4.963   7.524  12.890
93037SOL    HW180944   4.915   7.551  12.968
93037SOL    HW280945   5.054   7.549  12.907
93038SOL     OW80946   9.023   6.863   6.822
93038SOL    HW180947   9.110   6.833   6.795
93038SOL    HW280948   9.030   6.874   6.917
93039SOL     OW80949   2.422   1.493   7.010
93039SOL    HW180950   2.469   1.527   7.086
93039SOL    HW280951   2.413   1.399   7.028
93040SOL     OW80952   7.754  11.472   5.655
93040SOL    HW180953   7.841  11.511   5.647
93040SOL    HW280954   7.697  11.545   5.680
93041SOL     OW80955   6.640   5.559   6.010
93041SOL    HW180956   6.686   5.637   5.979
93041SOL    HW280957   6.667   5.489   5.950
93042SOL     OW80958   0.565   3.840   4.595
93042SOL    HW180959   0.603   3.791   4.522
93042SOL    HW280960   0.595   3.930   4.583
93043SOL     OW80961   8.400  12.407   5.215
93043SOL    HW180962   8.381  12.318   5.185
93043SOL    HW280963   8.456  12.444   5.147
93044SOL     OW80964   0.951  14.033   0.438
93044SOL    HW180965   0.971  13.955   0.490
93044SOL    HW280966   0.998  14.104   0.481
93045SOL     OW80967   7.489   3.491   0.595
93045SOL    HW180968   7.428   3.417   0.593
93045SOL    HW280969   7.570   3.454   0.632
93046SOL     OW80970   6.096  11.134   2.606
93046SOL    HW180971   6.147  11.095   2.536
93046SOL    HW280972   6.144  11.213   2.630
93047SOL     OW80973   1.560   7.881  10.552
93047SOL    HW180974   1.568   7.931  10.470
93047SOL    HW280975   1.644   7.837  10.561
93048SOL     OW80976  12.094   8.643  13.707
93048SOL    HW180977  12.052   8.644  13.793
93048SOL    HW280978  12.063   8.562  13.666
93049SOL     OW80979   2.383   9.842   7.006
93049SOL    HW180980   2.337   9.920   6.973
93049SOL    HW280981   2.461   9.877   7.050
93050SOL     OW80982  11.280   5.126   5.636
93050SOL    HW180983  11.314   5.198   5.689
93050SOL    HW280984  11.210   5.166   5.583
93051SOL     OW80985  13.662   3.785   6.291
93051SOL    HW180986  13.716   3.772   6.213
93051SOL    HW280987  13.649   3.880   6.296
93052SOL     OW80988  11.050   3.953  13.136
93052SOL    HW180989  10.971   4.000  13.165
93052SOL    HW280990  11.070   3.894  13.208
93053SOL     OW80991   5.177   4.444   3.522
93053SOL    HW180992   5.082   4.432   3.510
93053SOL    HW280993   5.196   4.402   3.606
93054SOL     OW80994   4.257   8.645   8.010
93054SOL    HW180995   4.258   8.678   7.920
93054SOL    HW280996   4.335   8.591   8.016
93055SOL     OW80997   1.524   5.642   4.713
93055SOL    HW180998   1.481   5.557   4.724
93055SOL    HW280999   1.613   5.628   4.746
93056SOL     OW81000   8.720   9.321   4.242
93056SOL    HW181001   8.778   9.325   4.318
93056SOL    HW281002   8.704   9.412   4.218
93057SOL     OW81003   4.412   5.059   1.996
93057SOL    HW181004   4.428   5.127   2.062
93057SOL    HW281005   4.465   4.985   2.024
93058SOL     OW81006   0.020   2.038   5.517
93058SOL    HW181007   0.003   1.962   5.572
93058SOL    HW281008   0.114   2.052   5.524
93059SOL     OW81009  13.423   2.365  13.638
93059SOL    HW181010  13.340   2.347  13.682
93059SOL    HW281011  13.426   2.301  13.566
93060SOL     OW81012   8.203  11.709   8.845
93060SOL    HW181013   8.219  11.764   8.921
93060SOL    HW281014   8.116  11.735   8.814
93061SOL     OW81015   0.130   1.820   2.768
93061SOL    HW181016   0.216   1.839   2.730
93061SOL    HW281017   0.136   1.730   2.799
93062SOL     OW81018   8.501   5.155  13.948
93062SOL    HW181019   8.484   5.082  13.888
93062SOL    HW281020   8.552   5.216  13.896
93063SOL     OW81021   9.266   3.358  14.829
93063SOL    HW181022   9.232   3.354   0.039
93063SOL    HW281023   9.214   3.426  14.786
93064SOL     OW81024   8.223   1.629   5.548
93064SOL    HW181025   8.194   1.601   5.461
93064SOL    HW281026   8.297   1.571   5.569
93065SOL     OW81027  10.152  14.516   2.327
93065SOL    HW181028  10.142  14.604   2.290
93065SOL    HW281029  10.082  14.510   2.392
93066SOL     OW81030  11.497   4.169  10.436
93066SOL    HW181031  11.491   4.088  10.486
93066SOL    HW281032  11.413   4.213  10.451
93067SOL     OW81033   8.384   7.251   2.475
93067SOL    HW181034   8.380   7.344   2.451
93067SOL    HW281035   8.397   7.251   2.569
93068SOL     OW81036   5.428   4.857   4.588
93068SOL    HW181037   5.424   4.922   4.518
93068SOL    HW281038   5.337   4.849   4.619
93069SOL     OW81039  12.348  13.733   9.817
93069SOL    HW181040  12.394  13.679   9.881
93069SOL    HW281041  12.271  13.765   9.864
93070SOL     OW81042  11.378   7.258  14.639
93070SOL    HW181043  11.461   7.246  14.592
93070SOL    HW281044  11.402   7.298  14.722
93071SOL     OW81045  10.377  13.945   5.537
93071SOL    HW181046  10.333  13.926   5.619
93071SOL    HW281047  10.417  14.031   5.551
93072SOL     OW81048   6.239   1.081  14.616
93072SOL    HW181049   6.237   0.998  14.569
93072SOL    HW281050   6.321   1.080  14.665
93073SOL     OW81051  10.569   1.926   9.386
93073SOL    HW181052  10.563   1.952   9.294
93073SOL    HW281053  10.620   1.845   9.384
93074SOL     OW81054   6.020  11.714   2.532
93074SOL    HW181055   6.114  11.720   2.514
93074SOL    HW281056   6.015  11.666   2.614
93075SOL     OW81057  13.547   9.819  13.422
93075SOL    HW181058  13.545   9.830  13.327
93075SOL    HW281059  13.486   9.748  13.440
93076SOL     OW81060   2.573   6.955   5.019
93076SOL    HW181061   2.524   7.028   4.982
93076SOL    HW281062   2.533   6.877   4.981
93077SOL     OW81063  12.820  12.440  13.225
93077SOL    HW181064  12.869  12.482  13.154
93077SOL    HW281065  12.760  12.508  13.257
93078SOL     OW81066   9.230  12.565   2.056
93078SOL    HW181067   9.317  12.540   2.025
93078SOL    HW281068   9.170  12.515   2.000
93079SOL     OW81069   1.165   7.310   7.259
93079SOL    HW181070   1.239   7.333   7.201
93079SOL    HW281071   1.162   7.381   7.322
93080SOL     OW81072   0.962   1.300  10.395
93080SOL    HW181073   0.944   1.306  10.301
93080SOL    HW281074   0.949   1.390  10.427
93081SOL     OW81075   0.490   9.155  14.255
93081SOL    HW181076   0.522   9.228  14.202
93081SOL    HW281077   0.408   9.187  14.292
93082SOL     OW81078   7.925   0.248  13.773
93082SOL    HW181079   7.922   0.171  13.717
93082SOL    HW281080   7.855   0.305  13.739
93083SOL     OW81081  13.096  12.117   0.541
93083SOL    HW181082  13.129  12.147   0.457
93083SOL    HW281083  13.155  12.045   0.566
93084SOL     OW81084  10.506   4.711   2.632
93084SOL    HW181085  10.445   4.768   2.584
93084SOL    HW281086  10.452   4.675   2.703
93085SOL     OW81087   5.964   9.996  13.533
93085SOL    HW181088   5.965  10.048  13.453
93085SOL    HW281089   5.913   9.918  13.511
93086SOL     OW81090  11.308  13.226   6.560
93086SOL    HW181091  11.372  13.190   6.621
93086SOL    HW281092  11.246  13.154   6.546
93087SOL     OW81093   7.317   1.354  13.936
93087SOL    HW181094   7.297   1.444  13.913
93087SOL    HW281095   7.272   1.301  13.870
93088SOL     OW81096   6.044   6.754  13.336
93088SOL    HW181097   6.110   6.752  13.267
93088SOL    HW281098   5.964   6.783  13.292
93089SOL     OW81099   3.973   6.434  11.944
93089SOL    HW181100   3.912   6.507  11.958
93089SOL    HW281101   3.986   6.432  11.850
93090SOL     OW81102  14.517   5.366   2.259
93090SOL    HW181103  14.520   5.333   2.349
93090SOL    HW281104  14.449   5.313   2.217
93091SOL     OW81105   9.426   0.249   5.795
93091SOL    HW181106   9.448   0.331   5.750
93091SOL    HW281107   9.476   0.182   5.748
93092SOL     OW81108  12.300   2.927  13.625
93092SOL    HW181109  12.208   2.948  13.642
93092SOL    HW281110  12.312   2.946  13.532
93093SOL     OW81111   5.479   4.140   1.978
93093SOL    HW181112   5.557   4.086   1.992
93093SOL    HW281113   5.512   4.222   1.941
93094SOL     OW81114  13.192   0.906   0.750
93094SOL    HW181115  13.114   0.856   0.772
93094SOL    HW281116  13.242   0.911   0.832
93095SOL     OW81117   0.325  11.016  12.496
93095SOL    HW181118   0.275  11.001  12.576
93095SOL    HW281119   0.362  10.931  12.475
93096SOL     OW81120  11.398   3.365   5.426
93096SOL    HW181121  11.311   3.340   5.457
93096SOL    HW281122  11.447   3.283   5.426
93097SOL     OW81123   3.517   5.881  13.683
93097SOL    HW181124   3.528   5.961  13.631
93097SOL    HW281125   3.502   5.812  13.619
93098SOL     OW81126   4.079  12.079   1.406
93098SOL    HW181127   4.044  11.999   1.444
93098SOL    HW281128   4.161  12.095   1.454
93099SOL     OW81129   6.672   0.450   2.600
93099SOL    HW181130   6.620   0.432   2.679
93099SOL    HW281131   6.712   0.535   2.617
93100SOL     OW81132  14.852  11.508   2.861
93100SOL    HW181133   0.055  11.459   2.864
93100SOL    HW281134  14.821  11.499   2.771
93101SOL     OW81135  13.581  11.888   7.404
93101SOL    HW181136  13.606  11.855   7.318
93101SOL    HW281137  13.636  11.838   7.465
93102SOL     OW81138   3.650  14.566   7.281
93102SOL    HW181139   3.714  14.500   7.256
93102SOL    HW281140   3.573  14.546   7.229
93103SOL     OW81141  14.093  12.626   5.763
93103SOL    HW181142  14.030  12.556   5.748
93103SOL    HW281143  14.080  12.651   5.855
93104SOL     OW81144  11.995   2.942  13.737
93104SOL    HW181145  11.943   2.884  13.793
93104SOL    HW281146  11.964   2.925  13.648
93105SOL     OW81147   8.862   7.849   0.257
93105SOL    HW181148   8.921   7.919   0.284
93105SOL    HW281149   8.882   7.834   0.165
93106SOL     OW81150   4.347  12.974   9.821
93106SOL    HW181151   4.263  13.008   9.854
93106SOL    HW281152   4.362  13.021   9.739
93107SOL     OW81153  13.435   7.538  13.719
93107SOL    HW181154  13.480   7.523  13.635
93107SOL    HW281155  13.430   7.451  13.759
93108SOL     OW81156   5.257   7.969   6.432
93108SOL    HW181157   5.179   7.936   6.476
93108SOL    HW281158   5.320   7.897   6.439
93109SOL     OW81159   0.847   0.612   5.119
93109SOL    HW181160   0.893   0.633   5.038
93109SOL    HW281161   0.913   0.570   5.174
93110SOL     OW81162   7.342  12.374   7.542
93110SOL    HW181163   7.371  12.324   7.619
93110SOL    HW281164   7.383  12.330   7.468
93111SOL     OW81165   1.365   4.226   9.444
93111SOL    HW181166   1.334   4.250   9.357
93111SOL    HW281167   1.406   4.306   9.477
93112SOL     OW81168   1.610  13.094  13.111
93112SOL    HW181169   1.615  13.082  13.206
93112SOL    HW281170   1.609  13.189  13.098
93113SOL     OW81171   6.626   0.526   8.415
93113SOL    HW181172   6.645   0.498   8.325
93113SOL    HW281173   6.574   0.455   8.451
93114SOL     OW81174  11.987  11.910   6.145
93114SOL    HW181175  11.902  11.941   6.176
93114SOL    HW281176  12.019  11.854   6.215
93115SOL     OW81177   3.464   1.636  11.392
93115SOL    HW181178   3.493   1.564  11.448
93115SOL    HW281179   3.542   1.661  11.343
93116SOL     OW81180  10.705   1.864   6.552
93116SOL    HW181181  10.623   1.877   6.600
93116SOL    HW281182  10.735   1.953   6.532
93117SOL     OW81183  10.429   6.399   5.621
93117SOL    HW181184  10.435   6.406   5.525
93117SOL    HW281185  10.513   6.431   5.652
93118SOL     OW81186  13.321  14.798  13.554
93118SOL    HW181187  13.362  14.872  13.597
93118SOL    HW281188  13.342  14.722  13.609
93119SOL     OW81189   3.284   3.778   6.265
93119SOL    HW181190   3.246   3.693   6.242
93119SOL    HW281191   3.365   3.757   6.311
93120SOL     OW81192   1.296  12.979   6.072
93120SOL    HW181193   1.217  12.960   6.122
93120SOL    HW281194   1.276  13.062   6.027
93121SOL     OW81195  12.691   4.278   7.961
93121SOL    HW181196  12.762   4.241   8.014
93121SOL    HW281197  12.688   4.370   7.987
93122SOL     OW81198  10.863   3.078   3.447
93122SOL    HW181199  10.817   3.095   3.365
93122SOL    HW281200  10.793   3.051   3.508
93123SOL     OW81201   4.098   9.711   5.690
93123SOL    HW181202   4.119   9.728   5.782
93123SOL    HW281203   4.130   9.789   5.644
93124SOL     OW81204   1.631   2.632   9.424
93124SOL    HW181205   1.546   2.666   9.397
93124SOL    HW281206   1.627   2.538   9.404
93125SOL     OW81207  11.103   6.245  10.499
93125SOL    HW181208  11.050   6.166  10.494
93125SOL    HW281209  11.056   6.302  10.560
93126SOL     OW81210  13.234   4.865  10.004
93126SOL    HW181211  13.304   4.896  10.061
93126SOL    HW281212  13.262   4.778   9.977
93127SOL     OW81213   9.672   0.060   6.839
93127SOL    HW181214   9.597   0.062   6.898
93127SOL    HW281215   9.635   0.038   6.754
93128SOL     OW81216  14.668   3.870   8.907
93128SOL    HW181217  14.759   3.870   8.936
93128SOL    HW281218  14.621   3.820   8.974
93129SOL     OW81219   6.072   9.853   2.879
93129SOL    HW181220   6.055   9.783   2.816
93129SOL    HW281221   6.057   9.934   2.829
93130SOL     OW81222   9.220   5.593   8.537
93130SOL    HW181223   9.126   5.581   8.550
93130SOL    HW281224   9.234   5.687   8.547
93131SOL     OW81225   8.827   4.345  14.730
93131SOL    HW181226   8.749   4.295  14.754
93131SOL    HW281227   8.838   4.408  14.801
93132SOL     OW81228   3.245   2.891   8.786
93132SOL    HW181229   3.328   2.896   8.737
93132SOL    HW281230   3.192   2.963   8.750
93133SOL     OW81231  10.507   4.249   9.266
93133SOL    HW181232  10.423   4.294   9.251
93133SOL    HW281233  10.567   4.289   9.203
93134SOL     OW81234   8.400   0.589   6.049
93134SOL    HW181235   8.357   0.507   6.022
93134SOL    HW281236   8.487   0.584   6.009
93135SOL     OW81237  12.377   5.834   9.370
93135SOL    HW181238  12.362   5.928   9.368
93135SOL    HW281239  12.321   5.801   9.440
93136SOL     OW81240   3.980   9.238  14.397
93136SOL    HW181241   3.931   9.249  14.478
93136SOL    HW281242   4.067   9.208  14.425
93137SOL     OW81243  13.488   0.416   2.820
93137SOL    HW181244  13.560   0.385   2.874
93137SOL    HW281245  13.435   0.339   2.802
93138SOL     OW81246   2.885  12.358   7.855
93138SOL    HW181247   2.882  12.419   7.929
93138SOL    HW281248   2.898  12.272   7.896
93139SOL     OW81249   1.340  10.439   0.912
93139SOL    HW181250   1.287  10.441   0.832
93139SOL    HW281251   1.322  10.523   0.955
93140SOL     OW81252   5.268  10.536   4.262
93140SOL    HW181253   5.357  10.504   4.277
93140SOL    HW281254   5.259  10.611   4.321
93141SOL     OW81255  12.191   9.963   5.570
93141SOL    HW181256  12.117  10.001   5.618
93141SOL    HW281257  12.172   9.869   5.566
93142SOL     OW81258  12.255  12.112   5.646
93142SOL    HW181259  12.315  12.135   5.575
93142SOL    HW281260  12.185  12.062   5.602
93143SOL     OW81261   5.445   8.560   9.032
93143SOL    HW181262   5.476   8.643   9.067
93143SOL    HW281263   5.459   8.567   8.937
93144SOL     OW81264  13.740   2.616  10.633
93144SOL    HW181265  13.700   2.646  10.552
93144SOL    HW281266  13.804   2.551  10.605
93145SOL     OW81267   5.785  12.973  11.821
93145SOL    HW181268   5.758  13.049  11.872
93145SOL    HW281269   5.707  12.948  11.772
93146SOL     OW81270   3.965   4.440  12.141
93146SOL    HW181271   3.951   4.494  12.062
93146SOL    HW281272   3.988   4.354  12.107
93147SOL     OW81273   6.280   2.239   7.998
93147SOL    HW181274   6.268   2.275   7.910
93147SOL    HW281275   6.228   2.158   7.998
93148SOL     OW81276   3.339   2.418   1.690
93148SOL    HW181277   3.261   2.364   1.706
93148SOL    HW281278   3.383   2.423   1.774
93149SOL     OW81279  14.508  13.134  13.855
93149SOL    HW181280  14.541  13.202  13.915
93149SOL    HW281281  14.459  13.075  13.912
93150SOL     OW81282   1.128   0.897  10.692
93150SOL    HW181283   1.091   0.985  10.703
93150SOL    HW281284   1.156   0.894  10.601
93151SOL     OW81285   1.480   5.491  13.440
93151SOL    HW181286   1.534   5.469  13.364
93151SOL    HW281287   1.459   5.584  13.428
93152SOL     OW81288   2.280  10.673   8.958
93152SOL    HW181289   2.363  10.680   8.910
93152SOL    HW281290   2.280  10.748   9.017
93153SOL     OW81291   6.678  14.357  14.575
93153SOL    HW181292   6.690  14.298  14.501
93153SOL    HW281293   6.588  14.344  14.602
93154SOL     OW81294   2.213   0.354   7.868
93154SOL    HW181295   2.203   0.444   7.837
93154SOL    HW281296   2.141   0.341   7.929
93155SOL     OW81297   2.874  10.652   6.626
93155SOL    HW181298   2.780  10.641   6.642
93155SOL    HW281299   2.891  10.744   6.648
93156SOL     OW81300  13.552   5.549   1.134
93156SOL    HW181301  13.515   5.593   1.210
93156SOL    HW281302  13.612   5.614   1.096
93157SOL     OW81303  12.710   9.417  14.335
93157SOL    HW181304  12.741   9.359  14.404
93157SOL    HW281305  12.659   9.484  14.380
93158SOL     OW81306  14.537   7.509   3.780
93158SOL    HW181307  14.489   7.589   3.758
93158SOL    HW281308  14.571   7.525   3.868
93159SOL     OW81309   4.589  13.333  12.099
93159SOL    HW181310   4.589  13.421  12.139
93159SOL    HW281311   4.638  13.279  12.160
93160SOL     OW81312   4.908   2.704   7.764
93160SOL    HW181313   4.920   2.612   7.742
93160SOL    HW281314   4.992   2.745   7.746
93161SOL     OW81315  13.938   7.610  11.221
93161SOL    HW181316  13.972   7.645  11.139
93161SOL    HW281317  14.012   7.565  11.261
93162SOL     OW81318   5.886  11.539  11.295
93162SOL    HW181319   5.890  11.473  11.226
93162SOL    HW281320   5.887  11.488  11.376
93163SOL     OW81321   4.204   0.456   7.994
93163SOL    HW181322   4.133   0.395   7.973
93163SOL    HW281323   4.165   0.515   8.059
93164SOL     OW81324   6.430  11.729   8.074
93164SOL    HW181325   6.496  11.669   8.108
93164SOL    HW281326   6.348  11.679   8.078
93165SOL     OW81327   4.984   6.074   4.478
93165SOL    HW181328   5.028   6.158   4.469
93165SOL    HW281329   5.051   6.015   4.510
93166SOL     OW81330   5.716  11.815   2.247
93166SOL    HW181331   5.623  11.798   2.260
93166SOL    HW281332   5.760  11.737   2.281
93167SOL     OW81333  14.078  12.476   6.195
93167SOL    HW181334  13.996  12.466   6.245
93167SOL    HW281335  14.068  12.560   6.150
93168SOL     OW81336   1.277   0.608   4.698
93168SOL    HW181337   1.368   0.600   4.727
93168SOL    HW281338   1.252   0.698   4.722
93169SOL     OW81339   6.139  14.530  10.765
93169SOL    HW181340   6.188  14.578  10.698
93169SOL    HW281341   6.109  14.598  10.825
93170SOL     OW81342  10.408   9.328   6.916
93170SOL    HW181343  10.360   9.332   6.999
93170SOL    HW281344  10.344   9.293   6.854
93171SOL     OW81345   9.426   2.771   3.565
93171SOL    HW181346   9.377   2.744   3.488
93171SOL    HW281347   9.428   2.867   3.560
93172SOL     OW81348  10.147   0.291   2.821
93172SOL    HW181349  10.067   0.255   2.859
93172SOL    HW281350  10.165   0.234   2.746
93173SOL     OW81351   5.402  13.770   8.054
93173SOL    HW181352   5.347  13.742   8.127
93173SOL    HW281353   5.342  13.814   7.994
93174SOL     OW81354   1.408   0.768  14.802
93174SOL    HW181355   1.343   0.829  14.768
93174SOL    HW281356   1.362   0.684  14.808
93175SOL     OW81357  13.710   4.000   8.284
93175SOL    HW181358  13.753   4.071   8.236
93175SOL    HW281359  13.783   3.951   8.323
93176SOL     OW81360  11.796   5.087  12.397
93176SOL    HW181361  11.751   5.142  12.333
93176SOL    HW281362  11.783   5.130  12.481
93177SOL     OW81363  12.288   1.800  10.374
93177SOL    HW181364  12.302   1.893  10.360
93177SOL    HW281365  12.292   1.788  10.469
93178SOL     OW81366  13.912   6.339   8.262
93178SOL    HW181367  13.851   6.406   8.293
93178SOL    HW281368  13.866   6.296   8.191
93179SOL     OW81369   6.659   8.261  13.118
93179SOL    HW181370   6.604   8.268  13.196
93179SOL    HW281371   6.652   8.170  13.092
93180SOL     OW81372  13.162   6.975   4.598
93180SOL    HW181373  13.180   7.067   4.577
93180SOL    HW281374  13.153   6.933   4.513
93181SOL     OW81375   3.867   3.950  10.993
93181SOL    HW181376   3.788   3.903  10.968
93181SOL    HW281377   3.938   3.905  10.948
93182SOL     OW81378   1.792   1.897   3.734
93182SOL    HW181379   1.883   1.902   3.764
93182SOL    HW281380   1.786   1.965   3.667
93183SOL     OW81381  14.153  12.817   3.267
93183SOL    HW181382  14.121  12.907   3.257
93183SOL    HW281383  14.104  12.782   3.341
93184SOL     OW81384   6.889  12.240   1.717
93184SOL    HW181385   6.895  12.289   1.799
93184SOL    HW281386   6.798  12.248   1.690
93185SOL     OW81387   9.128   7.631   9.968
93185SOL    HW181388   9.130   7.599   9.878
93185SOL    HW281389   9.145   7.554  10.022
93186SOL     OW81390  11.766   8.234   6.403
93186SOL    HW181391  11.756   8.194   6.489
93186SOL    HW281392  11.777   8.160   6.343
93187SOL     OW81393   5.114   5.069   0.141
93187SOL    HW181394   5.026   5.100   0.159
93187SOL    HW281395   5.162   5.086   0.223
93188SOL     OW81396   2.778  14.038   5.340
93188SOL    HW181397   2.725  13.991   5.404
93188SOL    HW281398   2.772  13.985   5.260
93189SOL     OW81399   0.381   4.071  11.480
93189SOL    HW181400   0.339   3.989  11.506
93189SOL    HW281401   0.474   4.057  11.497
93190SOL     OW81402   4.065  13.629   4.081
93190SOL    HW181403   4.130  13.580   4.131
93190SOL    HW281404   4.034  13.697   4.141
93191SOL     OW81405   9.006   8.682   1.903
93191SOL    HW181406   9.018   8.655   1.812
93191SOL    HW281407   9.057   8.762   1.911
93192SOL     OW81408   4.712   1.031   8.555
93192SOL    HW181409   4.744   0.945   8.585
93192SOL    HW281410   4.791   1.083   8.545
93193SOL     OW81411   2.745   4.671  12.083
93193SOL    HW181412   2.834   4.658  12.051
93193SOL    HW281413   2.729   4.765  12.071
93194SOL     OW81414  10.598   7.282   5.076
93194SOL    HW181415  10.633   7.319   4.995
93194SOL    HW281416  10.664   7.218   5.104
93195SOL     OW81417  10.309   6.599   8.566
93195SOL    HW181418  10.365   6.627   8.639
93195SOL    HW281419  10.356   6.526   8.526
93196SOL     OW81420   7.298   6.216   5.018
93196SOL    HW181421   7.310   6.177   5.105
93196SOL    HW281422   7.204   6.215   5.004
93197SOL     OW81423  13.629   8.863   7.460
93197SOL    HW181424  13.681   8.784   7.475
93197SOL    HW281425  13.538   8.836   7.473
93198SOL     OW81426   3.474  11.558   2.879
93198SOL    HW181427   3.566  11.553   2.853
93198SOL    HW281428   3.436  11.623   2.819
93199SOL     OW81429   1.449  11.580   8.652
93199SOL    HW181430   1.375  11.572   8.592
93199SOL    HW281431   1.480  11.670   8.641
93200SOL     OW81432  14.371  10.780   7.906
93200SOL    HW181433  14.338  10.842   7.841
93200SOL    HW281434  14.409  10.835   7.975
93201SOL     OW81435   5.153  14.801   5.537
93201SOL    HW181436   5.154  14.742   5.463
93201SOL    HW281437   5.243  14.834   5.543
93202SOL     OW81438  14.356  14.082   4.641
93202SOL    HW181439  14.389  14.067   4.553
93202SOL    HW281440  14.281  14.023   4.649
93203SOL     OW81441  12.611  11.619  13.313
93203SOL    HW181442  12.563  11.696  13.282
93203SOL    HW281443  12.565  11.592  13.392
93204SOL     OW81444   4.888  10.317   1.791
93204SOL    HW181445   4.946  10.261   1.842
93204SOL    HW281446   4.931  10.325   1.705
93205SOL     OW81447   1.983   5.652   9.575
93205SOL    HW181448   1.922   5.599   9.627
93205SOL    HW281449   2.069   5.628   9.607
93206SOL     OW81450   7.704  13.380  10.073
93206SOL    HW181451   7.690  13.421   9.987
93206SOL    HW281452   7.689  13.450  10.136
93207SOL     OW81453   9.688  14.528   9.475
93207SOL    HW181454   9.750  14.591   9.510
93207SOL    HW281455   9.607  14.577   9.465
93208SOL     OW81456  14.138  12.145  12.977
93208SOL    HW181457  14.175  12.061  12.950
93208SOL    HW281458  14.073  12.122  13.043
93209SOL     OW81459   5.733  13.400   8.150
93209SOL    HW181460   5.648  13.401   8.106
93209SOL    HW281461   5.797  13.392   8.080
93210SOL     OW81462  10.227   6.354  10.270
93210SOL    HW181463  10.202   6.443  10.294
93210SOL    HW281464  10.208   6.302  10.347
93211SOL     OW81465  14.405  14.797   4.721
93211SOL    HW181466  14.457  14.871   4.753
93211SOL    HW281467  14.404  14.808   4.626
93212SOL     OW81468   7.966   0.383   6.706
93212SOL    HW181469   8.030   0.454   6.712
93212SOL    HW281470   7.915   0.403   6.627
93213SOL     OW81471   3.730  10.249  11.856
93213SOL    HW181472   3.701  10.339  11.874
93213SOL    HW281473   3.661  10.211  11.803
93214SOL     OW81474   1.715   5.514   0.205
93214SOL    HW181475   1.788   5.466   0.243
93214SOL    HW281476   1.640   5.488   0.259
93215SOL     OW81477   6.642   7.099  13.569
93215SOL    HW181478   6.562   7.147  13.549
93215SOL    HW281479   6.679   7.145  13.644
93216SOL     OW81480  13.843  11.420   0.549
93216SOL    HW181481  13.819  11.507   0.578
93216SOL    HW281482  13.787  11.403   0.473
93217SOL     OW81483   8.275  11.793  10.128
93217SOL    HW181484   8.233  11.788  10.213
93217SOL    HW281485   8.276  11.703  10.096
93218SOL     OW81486   9.400  13.557  14.352
93218SOL    HW181487   9.342  13.561  14.428
93218SOL    HW281488   9.369  13.627  14.295
93219SOL     OW81489   0.929  14.618   5.302
93219SOL    HW181490   0.933  14.703   5.344
93219SOL    HW281491   0.866  14.568   5.353
93220SOL     OW81492   1.932  11.287  12.501
93220SOL    HW181493   1.967  11.288  12.412
93220SOL    HW281494   1.864  11.355  12.501
93221SOL     OW81495   0.331  13.083   0.973
93221SOL    HW181496   0.249  13.047   0.940
93221SOL    HW281497   0.307  13.131   1.052
93222SOL     OW81498  14.533   4.016  12.525
93222SOL    HW181499  14.605   3.995  12.584
93222SOL    HW281500  14.530   4.111  12.523
93223SOL     OW81501  14.256   7.180  11.046
93223SOL    HW181502  14.208   7.158  10.967
93223SOL    HW281503  14.202   7.146  11.117
93224SOL     OW81504  14.318   4.172  10.057
93224SOL    HW181505  14.318   4.251  10.110
93224SOL    HW281506  14.226   4.157  10.036
93225SOL     OW81507  14.840   4.003   7.547
93225SOL    HW181508   0.021   4.014   7.621
93225SOL    HW281509   0.002   3.935   7.493
93226SOL     OW81510   9.865   5.787   5.659
93226SOL    HW181511   9.804   5.721   5.627
93226SOL    HW281512   9.909   5.819   5.581
93227SOL     OW81513  14.371  11.871   2.901
93227SOL    HW181514  14.292  11.838   2.858
93227SOL    HW281515  14.340  11.940   2.960
93228SOL     OW81516   4.668   5.643   8.892
93228SOL    HW181517   4.722   5.700   8.946
93228SOL    HW281518   4.626   5.584   8.955
93229SOL     OW81519  10.556   2.465   7.975
93229SOL    HW181520  10.587   2.550   7.945
93229SOL    HW281521  10.476   2.485   8.024
93230SOL     OW81522   9.037  12.381  13.212
93230SOL    HW181523   9.078  12.394  13.127
93230SOL    HW281524   8.945  12.404  13.198
93231SOL     OW81525  12.479  13.078   9.745
93231SOL    HW181526  12.435  12.993   9.736
93231SOL    HW281527  12.557  13.069   9.691
93232SOL     OW81528  14.462  14.633   6.685
93232SOL    HW181529  14.494  14.542   6.685
93232SOL    HW281530  14.440  14.650   6.593
93233SOL     OW81531  14.503   1.304  13.102
93233SOL    HW181532  14.566   1.336  13.037
93233SOL    HW281533  14.525   1.211  13.112
93234SOL     OW81534  14.608  13.433  11.728
93234SOL    HW181535  14.622  13.360  11.668
93234SOL    HW281536  14.552  13.494  11.679
93235SOL     OW81537   6.751   2.750  10.218
93235SOL    HW181538   6.713   2.662  10.224
93235SOL    HW281539   6.801   2.748  10.136
93236SOL     OW81540   5.772   4.609   6.785
93236SOL    HW181541   5.677   4.618   6.781
93236SOL    HW281542   5.802   4.637   6.698
93237SOL     OW81543   8.995   3.437   3.377
93237SOL    HW181544   8.971   3.482   3.459
93237SOL    HW281545   8.953   3.351   3.384
93238SOL     OW81546   4.083   6.795   2.653
93238SOL    HW181547   4.122   6.830   2.733
93238SOL    HW281548   4.042   6.713   2.680
93239SOL     OW81549   5.858   7.322   0.491
93239SOL    HW181550   5.797   7.390   0.520
93239SOL    HW281551   5.843   7.315   0.397
93240SOL     OW81552   1.025  12.710  13.190
93240SOL    HW181553   0.929  12.717  13.195
93240SOL    HW281554   1.048  12.648  13.258
93241SOL     OW81555  14.689   5.423   7.394
93241SOL    HW181556  14.596   5.405   7.410
93241SOL    HW281557  14.729   5.419   7.481
93242SOL     OW81558   2.125  11.882   0.291
93242SOL    HW181559   2.166  11.968   0.277
93242SOL    HW281560   2.125  11.842   0.204
93243SOL     OW81561   3.726  10.479   6.721
93243SOL    HW181562   3.654  10.493   6.782
93243SOL    HW281563   3.805  10.482   6.775
93244SOL     OW81564   5.989   7.759   6.284
93244SOL    HW181565   5.989   7.835   6.225
93244SOL    HW281566   6.078   7.724   6.276
93245SOL     OW81567   9.243   1.406   3.311
93245SOL    HW181568   9.278   1.427   3.225
93245SOL    HW281569   9.150   1.387   3.296
93246SOL     OW81570   6.987  10.294   8.862
93246SOL    HW181571   7.026  10.229   8.920
93246SOL    HW281572   6.941  10.355   8.920
93247SOL     OW81573  10.406   8.944   9.126
93247SOL    HW181574  10.399   8.866   9.072
93247SOL    HW281575  10.315   8.974   9.136
93248SOL     OW81576  12.721   8.747   1.126
93248SOL    HW181577  12.646   8.707   1.082
93248SOL    HW281578  12.745   8.821   1.071
93249SOL     OW81579   2.934   9.658   3.953
93249SOL    HW181580   3.009   9.718   3.958
93249SOL    HW281581   2.859   9.714   3.933
93250SOL     OW81582   6.804  12.645  14.753
93250SOL    HW181583   6.715  12.650  14.787
93250SOL    HW281584   6.802  12.695  14.672
93251SOL     OW81585   8.753  10.313   7.116
93251SOL    HW181586   8.709  10.256   7.179
93251SOL    HW281587   8.820  10.257   7.076
93252SOL     OW81588  14.373   2.838  12.248
93252SOL    HW181589  14.385   2.919  12.199
93252SOL    HW281590  14.363   2.771  12.181
93253SOL     OW81591   0.161   3.497   4.301
93253SOL    HW181592   0.221   3.426   4.280
93253SOL    HW281593   0.164   3.504   4.396
93254SOL     OW81594  13.868   0.040   6.337
93254SOL    HW181595  13.852   0.084   6.253
93254SOL    HW281596  13.803  14.849   6.341
93255SOL     OW81597   3.852   0.850   5.081
93255SOL    HW181598   3.916   0.919   5.096
93255SOL    HW281599   3.858   0.794   5.158
93256SOL     OW81600   5.324  14.316   3.789
93256SOL    HW181601   5.338  14.339   3.881
93256SOL    HW281602   5.404  14.270   3.764
93257SOL     OW81603  10.005  11.304  12.962
93257SOL    HW181604  10.024  11.212  12.981
93257SOL    HW281605   9.957  11.302  12.879
93258SOL     OW81606   8.657   1.949   3.079
93258SOL    HW181607   8.719   1.883   3.110
93258SOL    HW281608   8.699   1.988   3.003
93259SOL     OW81609   6.261   6.882   6.160
93259SOL    HW181610   6.321   6.809   6.164
93259SOL    HW281611   6.282   6.926   6.077
93260SOL     OW81612  11.673  13.292   1.225
93260SOL    HW181613  11.746  13.276   1.165
93260SOL    HW281614  11.597  13.252   1.182
93261SOL     OW81615   7.731   7.018   7.310
93261SOL    HW181616   7.642   7.019   7.275
93261SOL    HW281617   7.786   6.993   7.237
93262SOL     OW81618  11.917   7.471   3.121
93262SOL    HW181619  12.001   7.513   3.135
93262SOL    HW281620  11.894   7.491   3.030
93263SOL     OW81621   9.150  11.687   9.107
93263SOL    HW181622   9.126  11.759   9.166
93263SOL    HW281623   9.142  11.608   9.161
93264SOL     OW81624   8.157   5.442  13.307
93264SOL    HW181625   8.120   5.370  13.256
93264SOL    HW281626   8.250   5.441  13.284
93265SOL     OW81627   5.716   7.860   2.131
93265SOL    HW181628   5.651   7.911   2.082
93265SOL    HW281629   5.744   7.917   2.202
93266SOL     OW81630   1.942   9.684  13.855
93266SOL    HW181631   1.891   9.631  13.794
93266SOL    HW281632   1.999   9.622  13.900
93267SOL     OW81633   8.513  13.318   7.142
93267SOL    HW181634   8.474  13.381   7.081
93267SOL    HW281635   8.514  13.236   7.094
93268SOL     OW81636  12.978   1.848  14.608
93268SOL    HW181637  12.992   1.825  14.700
93268SOL    HW281638  12.887   1.879  14.605
93269SOL     OW81639   5.092   0.136   5.852
93269SOL    HW181640   5.011   0.159   5.898
93269SOL    HW281641   5.135   0.073   5.911
93270SOL     OW81642   7.662  11.389   1.709
93270SOL    HW181643   7.607  11.329   1.761
93270SOL    HW281644   7.733  11.334   1.677
93271SOL     OW81645  14.287   2.484  12.815
93271SOL    HW181646  14.322   2.516  12.898
93271SOL    HW281647  14.223   2.417  12.840
93272SOL     OW81648  11.543   0.365   5.815
93272SOL    HW181649  11.588   0.446   5.837
93272SOL    HW281650  11.604   0.296   5.840
93273SOL     OW81651   9.122   2.812  10.715
93273SOL    HW181652   9.163   2.890  10.676
93273SOL    HW281653   9.186   2.742  10.702
93274SOL     OW81654  12.504  10.684   7.803
93274SOL    HW181655  12.571  10.716   7.742
93274SOL    HW281656  12.421  10.710   7.763
93275SOL     OW81657  10.755   6.889  12.349
93275SOL    HW181658  10.683   6.826  12.349
93275SOL    HW281659  10.833   6.836  12.368
93276SOL     OW81660  13.556   9.047  10.008
93276SOL    HW181661  13.595   9.091   9.932
93276SOL    HW281662  13.481   9.103  10.032
93277SOL     OW81663   5.877   6.230   8.605
93277SOL    HW181664   5.800   6.200   8.557
93277SOL    HW281665   5.903   6.310   8.561
93278SOL     OW81666  10.131  10.991  10.146
93278SOL    HW181667  10.061  11.051  10.170
93278SOL    HW281668  10.173  10.969  10.229
93279SOL     OW81669  10.620   2.176   2.536
93279SOL    HW181670  10.640   2.173   2.443
93279SOL    HW281671  10.527   2.153   2.542
93280SOL     OW81672   9.726  12.094   1.276
93280SOL    HW181673   9.754  12.157   1.342
93280SOL    HW281674   9.733  12.009   1.319
93281SOL     OW81675   5.482   1.552   9.094
93281SOL    HW181676   5.411   1.555   9.029
93281SOL    HW281677   5.540   1.624   9.069
93282SOL     OW81678  13.194  10.825   9.943
93282SOL    HW181679  13.168  10.893   9.880
93282SOL    HW281680  13.134  10.753   9.926
93283SOL     OW81681   0.508   6.658  13.076
93283SOL    HW181682   0.592   6.696  13.050
93283SOL    HW281683   0.462   6.730  13.118
93284SOL     OW81684   8.977   9.799  11.227
93284SOL    HW181685   8.883   9.782  11.236
93284SOL    HW281686   9.016   9.759  11.305
93285SOL     OW81687  14.211   5.149  11.054
93285SOL    HW181688  14.179   5.126  11.141
93285SOL    HW281689  14.306   5.153  11.064
93286SOL     OW81690   2.291   5.918  14.494
93286SOL    HW181691   2.365   5.928  14.433
93286SOL    HW281692   2.242   5.999  14.486
93287SOL     OW81693   4.472   6.762   4.164
93287SOL    HW181694   4.403   6.828   4.154
93287SOL    HW281695   4.430   6.680   4.138
93288SOL     OW81696  11.092  11.581   9.767
93288SOL    HW181697  11.099  11.600   9.674
93288SOL    HW281698  11.040  11.653   9.802
93289SOL     OW81699  10.642   0.063  13.062
93289SOL    HW181700  10.650   0.146  13.110
93289SOL    HW281701  10.708   0.006  13.103
93290SOL     OW81702  10.593  13.384   5.960
93290SOL    HW181703  10.665  13.348   6.011
93290SOL    HW281704  10.627  13.387   5.870
93291SOL     OW81705   8.793  13.975   0.225
93291SOL    HW181706   8.724  13.988   0.159
93291SOL    HW281707   8.870  13.950   0.174
93292SOL     OW81708   6.214  10.132   6.270
93292SOL    HW181709   6.124  10.120   6.243
93292SOL    HW281710   6.218  10.098   6.359
93293SOL     OW81711   5.135   6.747  10.016
93293SOL    HW181712   5.180   6.794  10.087
93293SOL    HW281713   5.047   6.785  10.015
93294SOL     OW81714   7.893  10.374   3.453
93294SOL    HW181715   7.847  10.352   3.372
93294SOL    HW281716   7.979  10.406   3.424
93295SOL     OW81717   7.148   1.505   1.473
93295SOL    HW181718   7.240   1.482   1.457
93295SOL    HW281719   7.121   1.552   1.395
93296SOL     OW81720   7.965   2.723   4.678
93296SOL    HW181721   8.037   2.696   4.736
93296SOL    HW281722   7.929   2.641   4.644
93297SOL     OW81723   3.337  14.180   1.032
93297SOL    HW181724   3.418  14.165   0.984
93297SOL    HW281725   3.291  14.247   0.981
93298SOL     OW81726   9.651   6.364  13.713
93298SOL    HW181727   9.606   6.316  13.643
93298SOL    HW281728   9.703   6.297  13.758
93299SOL     OW81729  11.031  11.359   6.812
93299SOL    HW181730  10.974  11.297   6.857
93299SOL    HW281731  11.117  11.346   6.852
93300SOL     OW81732  10.036   4.307   6.894
93300SOL    HW181733  10.032   4.226   6.844
93300SOL    HW281734  10.005   4.374   6.834
93301SOL     OW81735   8.546   2.980  10.439
93301SOL    HW181736   8.641   2.969  10.428
93301SOL    HW281737   8.509   2.943  10.359
93302SOL     OW81738   7.039   8.522   1.730
93302SOL    HW181739   6.994   8.567   1.801
93302SOL    HW281740   6.969   8.499   1.668
93303SOL     OW81741   2.033   5.438  11.508
93303SOL    HW181742   2.056   5.353  11.546
93303SOL    HW281743   1.937   5.440  11.513
93304SOL     OW81744  13.894  12.236   3.271
93304SOL    HW181745  13.908  12.310   3.212
93304SOL    HW281746  13.961  12.246   3.339
93305SOL     OW81747  11.361   9.458   1.620
93305SOL    HW181748  11.399   9.521   1.680
93305SOL    HW281749  11.399   9.479   1.535
93306SOL     OW81750  14.147  11.795   5.731
93306SOL    HW181751  14.223  11.783   5.674
93306SOL    HW281752  14.109  11.878   5.704
93307SOL     OW81753  14.258  13.894   8.582
93307SOL    HW181754  14.324  13.916   8.648
93307SOL    HW281755  14.199  13.969   8.582
93308SOL     OW81756  14.656  12.525  11.618
93308SOL    HW181757  14.581  12.555  11.670
93308SOL    HW281758  14.626  12.442  11.579
93309SOL     OW81759  10.496   5.496   9.516
93309SOL    HW181760  10.446   5.421   9.548
93309SOL    HW281761  10.430   5.563   9.499
93310SOL     OW81762   6.280   0.070   5.856
93310SOL    HW181763   6.228   0.023   5.790
93310SOL    HW281764   6.271   0.162   5.831
93311SOL     OW81765   1.066  13.406  14.033
93311SOL    HW181766   1.154  13.423  14.000
93311SOL    HW281767   1.008  13.461  13.980
93312SOL     OW81768   7.735   8.738   2.214
93312SOL    HW181769   7.778   8.724   2.130
93312SOL    HW281770   7.679   8.661   2.226
93313SOL     OW81771   4.811   7.689  13.649
93313SOL    HW181772   4.773   7.660  13.566
93313SOL    HW281773   4.746   7.749  13.685
93314SOL     OW81774  10.996  14.774  14.060
93314SOL    HW181775  10.988  14.719  13.982
93314SOL    HW281776  10.926  14.838  14.051
93315SOL     OW81777  10.800   9.704   3.107
93315SOL    HW181778  10.712   9.680   3.079
93315SOL    HW281779  10.788   9.776   3.168
93316SOL     OW81780   9.249   3.637   4.326
93316SOL    HW181781   9.239   3.678   4.241
93316SOL    HW281782   9.209   3.699   4.387
93317SOL     OW81783   6.682   4.803   8.749
93317SOL    HW181784   6.655   4.893   8.733
93317SOL    HW281785   6.624   4.773   8.819
93318SOL     OW81786   8.335  13.184  13.852
93318SOL    HW181787   8.263  13.130  13.885
93318SOL    HW281788   8.404  13.176  13.918
93319SOL     OW81789   2.218   9.035   5.725
93319SOL    HW181790   2.295   9.046   5.782
93319SOL    HW281791   2.222   9.110   5.666
93320SOL     OW81792  14.814   1.869   8.160
93320SOL    HW181793  14.743   1.806   8.166
93320SOL    HW281794   0.009   1.826   8.204
93321SOL     OW81795   5.883   4.418   9.248
93321SOL    HW181796   5.959   4.367   9.219
93321SOL    HW281797   5.918   4.478   9.314
93322SOL     OW81798  11.874  11.776   8.005
93322SOL    HW181799  11.935  11.734   8.066
93322SOL    HW281800  11.929  11.799   7.930
93323SOL     OW81801   5.792   8.188   0.647
93323SOL    HW181802   5.879   8.225   0.660
93323SOL    HW281803   5.778   8.132   0.723
93324SOL     OW81804  10.203   2.290  14.282
93324SOL    HW181805  10.204   2.274  14.377
93324SOL    HW281806  10.295   2.285  14.257
93325SOL     OW81807  10.187   7.138  13.811
93325SOL    HW181808  10.124   7.137  13.739
93325SOL    HW281809  10.252   7.204  13.784
93326SOL     OW81810  12.087   1.959   1.679
93326SOL    HW181811  12.043   1.938   1.762
93326SOL    HW281812  12.114   2.050   1.689
93327SOL     OW81813   3.503   0.928   9.550
93327SOL    HW181814   3.576   0.949   9.608
93327SOL    HW281815   3.442   1.001   9.560
93328SOL     OW81816  14.169  14.535   6.798
93328SOL    HW181817  14.249  14.494   6.830
93328SOL    HW281818  14.195  14.578   6.716
93329SOL     OW81819   3.486   6.181   8.700
93329SOL    HW181820   3.564   6.230   8.726
93329SOL    HW281821   3.472   6.206   8.608
93330SOL     OW81822   0.806  12.021   9.476
93330SOL    HW181823   0.866  11.948   9.485
93330SOL    HW281824   0.790  12.050   9.566
93331SOL     OW81825   4.351   4.380   5.836
93331SOL    HW181826   4.397   4.297   5.830
93331SOL    HW281827   4.373   4.426   5.755
93332SOL     OW81828  12.340   9.676   1.454
93332SOL    HW181829  12.325   9.709   1.365
93332SOL    HW281830  12.428   9.639   1.450
93333SOL     OW81831   9.682   3.288   8.618
93333SOL    HW181832   9.749   3.332   8.565
93333SOL    HW281833   9.706   3.309   8.708
93334SOL     OW81834   4.416  13.488   9.481
93334SOL    HW181835   4.471  13.412   9.500
93334SOL    HW281836   4.354  13.492   9.554
93335SOL     OW81837  12.417   1.575   1.940
93335SOL    HW181838  12.353   1.646   1.934
93335SOL    HW281839  12.370   1.503   1.980
93336SOL     OW81840   7.525   8.712   3.789
93336SOL    HW181841   7.552   8.678   3.704
93336SOL    HW281842   7.433   8.735   3.777
93337SOL     OW81843   5.834   6.925  13.243
93337SOL    HW181844   5.747   6.965  13.235
93337SOL    HW281845   5.895   6.998  13.244
93338SOL     OW81846   4.481  14.015  11.259
93338SOL    HW181847   4.526  14.047  11.181
93338SOL    HW281848   4.531  13.938  11.285
93339SOL     OW81849   4.620   4.923   2.412
93339SOL    HW181850   4.708   4.962   2.408
93339SOL    HW281851   4.587   4.929   2.323
93340SOL     OW81852   2.572  11.413  11.668
93340SOL    HW181853   2.539  11.459  11.744
93340SOL    HW281854   2.595  11.482  11.605
93341SOL     OW81855   1.326  14.078  10.057
93341SOL    HW181856   1.347  14.024   9.982
93341SOL    HW281857   1.304  14.164  10.020
93342SOL     OW81858  11.547   9.888   2.243
93342SOL    HW181859  11.633   9.896   2.285
93342SOL    HW281860  11.539   9.795   2.221
93343SOL     OW81861   4.318   3.396   4.792
93343SOL    HW181862   4.382   3.451   4.836
93343SOL    HW281863   4.245   3.388   4.854
93344SOL     OW81864   6.254  11.650   0.157
93344SOL    HW181865   6.167  11.609   0.159
93344SOL    HW281866   6.280  11.653   0.249
93345SOL     OW81867  14.139   7.722   9.351
93345SOL    HW181868  14.219   7.697   9.304
93345SOL    HW281869  14.150   7.815   9.369
93346SOL     OW81870  13.125  14.646  10.988
93346SOL    HW181871  13.155  14.564  10.948
93346SOL    HW281872  13.192  14.710  10.967
93347SOL     OW81873   5.027   9.711   9.190
93347SOL    HW181874   5.004   9.803   9.177
93347SOL    HW281875   4.980   9.665   9.121
93348SOL     OW81876  14.542   9.619   3.228
93348SOL    HW181877  14.589   9.695   3.264
93348SOL    HW281878  14.492   9.655   3.155
93349SOL     OW81879   8.890   6.432   3.591
93349SOL    HW181880   8.953   6.360   3.582
93349SOL    HW281881   8.804   6.391   3.580
93350SOL     OW81882   7.849   9.997   6.731
93350SOL    HW181883   7.859   9.936   6.658
93350SOL    HW281884   7.807   9.945   6.800
93351SOL     OW81885   0.830   4.267  14.308
93351SOL    HW181886   0.925   4.282  14.315
93351SOL    HW281887   0.822   4.184  14.261
93352SOL     OW81888  11.111   0.755  13.644
93352SOL    HW181889  11.053   0.729  13.715
93352SOL    HW281890  11.052   0.771  13.569
93353SOL     OW81891   5.155   8.328  11.965
93353SOL    HW181892   5.209   8.315  12.042
93353SOL    HW281893   5.088   8.391  11.993
93354SOL     OW81894  13.761   1.238  13.441
93354SOL    HW181895  13.766   1.314  13.383
93354SOL    HW281896  13.747   1.164  13.382
93355SOL     OW81897   2.515   3.253   8.583
93355SOL    HW181898   2.522   3.319   8.514
93355SOL    HW281899   2.590   3.195   8.569
93356SOL     OW81900  10.429   1.559   7.996
93356SOL    HW181901  10.516   1.530   8.023
93356SOL    HW281902  10.439   1.651   7.972
93357SOL     OW81903   5.187   0.174   2.896
93357SOL    HW181904   5.100   0.157   2.932
93357SOL    HW281905   5.213   0.257   2.935
93358SOL     OW81906   2.691   4.382  13.159
93358SOL    HW181907   2.773   4.340  13.183
93358SOL    HW281908   2.627   4.311  13.156
93359SOL     OW81909   0.965   1.164   4.241
93359SOL    HW181910   0.891   1.105   4.224
93359SOL    HW281911   1.041   1.117   4.206
93360SOL     OW81912   6.727   1.231   9.467
93360SOL    HW181913   6.754   1.157   9.521
93360SOL    HW281914   6.725   1.305   9.528
93361SOL     OW81915  13.127   4.067  11.704
93361SOL    HW181916  13.034   4.077  11.726
93361SOL    HW281917  13.139   3.972  11.695
93362SOL     OW81918   4.329  12.032   6.512
93362SOL    HW181919   4.410  11.989   6.486
93362SOL    HW281920   4.308  11.996   6.598
93363SOL     OW81921  12.216  12.802   4.300
93363SOL    HW181922  12.270  12.733   4.339
93363SOL    HW281923  12.249  12.810   4.211
93364SOL     OW81924   4.997   6.893   1.956
93364SOL    HW181925   5.069   6.889   1.893
93364SOL    HW281926   4.977   6.801   1.975
93365SOL     OW81927   7.404   2.624   0.657
93365SOL    HW181928   7.330   2.662   0.705
93365SOL    HW281929   7.400   2.667   0.571
93366SOL     OW81930   9.865   4.933   6.161
93366SOL    HW181931   9.927   4.881   6.111
93366SOL    HW281932   9.843   4.879   6.237
93367SOL     OW81933   5.233   7.542  12.913
93367SOL    HW181934   5.278   7.459  12.901
93367SOL    HW281935   5.274   7.579  12.992
93368SOL     OW81936  14.003   6.464   6.637
93368SOL    HW181937  13.953   6.417   6.570
93368SOL    HW281938  13.976   6.424   6.719
93369SOL     OW81939   8.068   8.990   5.364
93369SOL    HW181940   8.051   8.897   5.354
93369SOL    HW281941   8.031   9.012   5.450
93370SOL     OW81942   3.952  11.887  13.402
93370SOL    HW181943   3.900  11.809  13.420
93370SOL    HW281944   3.970  11.883  13.308
93371SOL     OW81945   4.762  13.724  10.907
93371SOL    HW181946   4.803  13.721  10.821
93371SOL    HW281947   4.835  13.721  10.969
93372SOL     OW81948   5.671   8.764   2.141
93372SOL    HW181949   5.658   8.703   2.213
93372SOL    HW281950   5.759   8.801   2.156
93373SOL     OW81951   4.175   7.379   6.355
93373SOL    HW181952   4.088   7.382   6.395
93373SOL    HW281953   4.163   7.328   6.275
93374SOL     OW81954   6.157   0.269  10.393
93374SOL    HW181955   6.203   0.225  10.322
93374SOL    HW281956   6.118   0.197  10.444
93375SOL     OW81957   2.791   8.427  14.300
93375SOL    HW181958   2.796   8.523  14.307
93375SOL    HW281959   2.851   8.406  14.228
93376SOL     OW81960  13.806   0.017   1.676
93376SOL    HW181961  13.761   0.073   1.612
93376SOL    HW281962  13.807  14.809   1.635
93377SOL     OW81963   5.346   4.984  13.274
93377SOL    HW181964   5.332   4.977  13.369
93377SOL    HW281965   5.292   4.914  13.237
93378SOL     OW81966  14.153  12.853  10.421
93378SOL    HW181967  14.185  12.936  10.457
93378SOL    HW281968  14.058  12.860  10.430
93379SOL     OW81969   9.539  12.315  11.208
93379SOL    HW181970   9.499  12.379  11.149
93379SOL    HW281971   9.629  12.306  11.175
93380SOL     OW81972   6.880   4.855   8.370
93380SOL    HW181973   6.866   4.949   8.375
93380SOL    HW281974   6.973   4.843   8.392
93381SOL     OW81975   7.557  12.207   2.449
93381SOL    HW181976   7.587  12.296   2.429
93381SOL    HW281977   7.467  12.218   2.479
93382SOL     OW81978   9.186   5.755   5.537
93382SOL    HW181979   9.192   5.831   5.479
93382SOL    HW281980   9.135   5.691   5.487
93383SOL     OW81981  13.508   2.517   2.462
93383SOL    HW181982  13.510   2.421   2.469
93383SOL    HW281983  13.545   2.536   2.376
93384SOL     OW81984   2.428   1.169   4.661
93384SOL    HW181985   2.498   1.114   4.626
93384SOL    HW281986   2.453   1.182   4.753
93385SOL     OW81987  10.925   8.931  13.103
93385SOL    HW181988  11.003   8.900  13.148
93385SOL    HW281989  10.931   9.027  13.106
93386SOL     OW81990  14.732   9.968   6.614
93386SOL    HW181991  14.756  10.001   6.701
93386SOL    HW281992  14.748  10.042   6.556
93387SOL     OW81993  12.255   2.655   2.759
93387SOL    HW181994  12.189   2.623   2.820
93387SOL    HW281995  12.210   2.661   2.675
93388SOL     OW81996   6.257   9.131  14.867
93388SOL    HW181997   6.252   9.226  14.854
93388SOL    HW281998   6.238   9.118   0.081
93389SOL     OW81999   7.238  11.088   7.729
93389SOL    HW182000   7.278  11.081   7.816
93389SOL    HW282001   7.219  10.997   7.704
93390SOL     OW82002  14.340   3.200  11.163
93390SOL    HW182003  14.259   3.251  11.162
93390SOL    HW282004  14.332   3.144  11.240
93391SOL     OW82005   9.063   2.866  11.982
93391SOL    HW182006   9.130   2.924  12.018
93391SOL    HW282007   9.107   2.781  11.974
93392SOL     OW82008   2.545   3.028   2.102
93392SOL    HW182009   2.618   2.999   2.046
93392SOL    HW282010   2.524   3.115   2.069
93393SOL     OW82011   6.601  13.386   7.017
93393SOL    HW182012   6.539  13.456   6.995
93393SOL    HW282013   6.584  13.317   6.953
93394SOL     OW82014   3.520   0.412   3.779
93394SOL    HW182015   3.487   0.492   3.739
93394SOL    HW282016   3.443   0.356   3.788
93395SOL     OW82017   8.673   7.402   9.650
93395SOL    HW182018   8.637   7.395   9.739
93395SOL    HW282019   8.608   7.452   9.601
93396SOL     OW82020   7.334   1.395   4.083
93396SOL    HW182021   7.413   1.416   4.134
93396SOL    HW282022   7.306   1.479   4.047
93397SOL     OW82023  10.679  12.390   5.544
93397SOL    HW182024  10.592  12.356   5.525
93397SOL    HW282025  10.719  12.402   5.458
93398SOL     OW82026   0.758   1.238  14.324
93398SOL    HW182027   0.844   1.195  14.331
93398SOL    HW282028   0.696   1.166  14.314
93399SOL     OW82029   7.042   8.094   0.244
93399SOL    HW182030   6.990   8.144   0.182
93399SOL    HW282031   7.020   8.003   0.227
93400SOL     OW82032   6.172  10.644   3.155
93400SOL    HW182033   6.130  10.597   3.227
93400SOL    HW282034   6.154  10.590   3.078
93401SOL     OW82035   3.536   7.809  14.317
93401SOL    HW182036   3.571   7.895  14.341
93401SOL    HW282037   3.570   7.751  14.385
93402SOL     OW82038  13.518   6.884  14.304
93402SOL    HW182039  13.517   6.971  14.343
93402SOL    HW282040  13.433   6.876  14.261
93403SOL     OW82041   6.057  14.019   1.881
93403SOL    HW182042   6.135  13.985   1.837
93403SOL    HW282043   6.051  14.110   1.851
93404SOL     OW82044  12.033   8.268   6.311
93404SOL    HW182045  12.056   8.325   6.385
93404SOL    HW282046  11.938   8.260   6.316
93405SOL     OW82047   4.335   2.217   7.235
93405SOL    HW182048   4.416   2.211   7.185
93405SOL    HW282049   4.268   2.239   7.170
93406SOL     OW82050   9.017  14.368   6.108
93406SOL    HW182051   8.973  14.409   6.034
93406SOL    HW282052   9.001  14.274   6.097
93407SOL     OW82053   2.994  14.139  13.003
93407SOL    HW182054   2.943  14.185  13.070
93407SOL    HW282055   3.055  14.085  13.054
93408SOL     OW82056   3.507   2.199  14.318
93408SOL    HW182057   3.426   2.235  14.355
93408SOL    HW282058   3.563   2.183  14.393
93409SOL     OW82059   9.958  12.901  11.453
93409SOL    HW182060   9.936  12.864  11.539
93409SOL    HW282061  10.042  12.862  11.431
93410SOL     OW82062  13.491   4.451   2.952
93410SOL    HW182063  13.536   4.405   2.880
93410SOL    HW282064  13.436   4.383   2.992
93411SOL     OW82065   2.153  10.242   2.067
93411SOL    HW182066   2.218  10.306   2.040
93411SOL    HW282067   2.204  10.167   2.097
93412SOL     OW82068   1.746   9.878  11.617
93412SOL    HW182069   1.697   9.898  11.696
93412SOL    HW282070   1.681   9.845  11.555
93413SOL     OW82071   8.513  14.449   4.226
93413SOL    HW182072   8.461  14.409   4.157
93413SOL    HW282073   8.512  14.385   4.297
93414SOL     OW82074   2.433   7.565   9.730
93414SOL    HW182075   2.367   7.516   9.778
93414SOL    HW282076   2.422   7.656   9.759
93415SOL     OW82077  12.361   2.484   1.036
93415SOL    HW182078  12.446   2.456   1.070
93415SOL    HW282079  12.372   2.576   1.014
93416SOL     OW82080   2.521  13.617   5.934
93416SOL    HW182081   2.573  13.554   5.883
93416SOL    HW282082   2.502  13.687   5.872
93417SOL     OW82083  11.651   1.424  14.207
93417SOL    HW182084  11.676   1.334  14.187
93417SOL    HW282085  11.555   1.424  14.203
93418SOL     OW82086  10.032  14.196   1.732
93418SOL    HW182087   9.969  14.154   1.674
93418SOL    HW282088  10.057  14.127   1.794
93419SOL     OW82089   3.883   0.667  12.900
93419SOL    HW182090   3.800   0.713  12.906
93419SOL    HW282091   3.950   0.736  12.901
93420SOL     OW82092   7.977   8.593  13.205
93420SOL    HW182093   7.978   8.504  13.169
93420SOL    HW282094   8.032   8.644  13.146
93421SOL     OW82095   2.408  13.924  14.191
93421SOL    HW182096   2.467  13.922  14.266
93421SOL    HW282097   2.467  13.927  14.115
93422SOL     OW82098  14.649   0.946  13.397
93422SOL    HW182099  14.658   1.041  13.388
93422SOL    HW282100  14.665   0.912  13.309
93423SOL     OW82101   9.684   8.464   9.907
93423SOL    HW182102   9.713   8.502   9.990
93423SOL    HW282103   9.667   8.372   9.928
93424SOL     OW82104  10.492   0.002  10.467
93424SOL    HW182105  10.447   0.086  10.469
93424SOL    HW282106  10.422  14.815  10.473
93425SOL     OW82107  12.372   8.437  14.589
93425SOL    HW182108  12.355   8.345  14.609
93425SOL    HW282109  12.292   8.468  14.547
93426SOL     OW82110   2.821   6.649   1.225
93426SOL    HW182111   2.780   6.598   1.155
93426SOL    HW282112   2.790   6.608   1.306
93427SOL     OW82113  12.088   4.050   7.886
93427SOL    HW182114  12.156   4.058   7.952
93427SOL    HW282115  12.058   4.140   7.871
93428SOL     OW82116  12.576  12.849  13.544
93428SOL    HW182117  12.512  12.920  13.550
93428SOL    HW282118  12.595  12.842  13.450
93429SOL     OW82119   2.574   4.865   8.668
93429SOL    HW182120   2.642   4.817   8.622
93429SOL    HW282121   2.608   4.876   8.757
93430SOL     OW82122  12.452   9.729   1.990
93430SOL    HW182123  12.362   9.749   2.016
93430SOL    HW282124  12.503   9.749   2.069
93431SOL     OW82125   7.044   9.338   8.235
93431SOL    HW182126   6.978   9.323   8.168
93431SOL    HW282127   7.036   9.431   8.257
93432SOL     OW82128   9.206   5.763   3.900
93432SOL    HW182129   9.219   5.701   3.972
93432SOL    HW282130   9.219   5.849   3.940
93433SOL     OW82131   3.556  10.614  12.754
93433SOL    HW182132   3.525  10.589  12.841
93433SOL    HW282133   3.591  10.533  12.717
93434SOL     OW82134   8.272  14.417   6.701
93434SOL    HW182135   8.180  14.395   6.716
93434SOL    HW282136   8.305  14.347   6.646
93435SOL     OW82137   4.856   0.098   9.293
93435SOL    HW182138   4.822   0.179   9.254
93435SOL    HW282139   4.920   0.129   9.358
93436SOL     OW82140   6.886  12.211   4.949
93436SOL    HW182141   6.920  12.299   4.928
93436SOL    HW282142   6.964  12.160   4.970
93437SOL     OW82143   1.225  13.610   9.280
93437SOL    HW182144   1.237  13.519   9.307
93437SOL    HW282145   1.194  13.604   9.190
93438SOL     OW82146  11.782   3.866   4.334
93438SOL    HW182147  11.834   3.787   4.351
93438SOL    HW282148  11.781   3.913   4.417
93439SOL     OW82149   8.318   9.037   6.413
93439SOL    HW182150   8.382   9.061   6.480
93439SOL    HW282151   8.270   8.964   6.451
93440SOL     OW82152   1.433  11.375  14.051
93440SOL    HW182153   1.467  11.345  13.966
93440SOL    HW282154   1.470  11.463  14.061
93441SOL     OW82155   5.442  13.295  12.652
93441SOL    HW182156   5.360  13.281  12.700
93441SOL    HW282157   5.416  13.347  12.575
93442SOL     OW82158   1.376   9.161   2.164
93442SOL    HW182159   1.343   9.216   2.094
93442SOL    HW282160   1.364   9.213   2.243
93443SOL     OW82161  13.923   9.149   7.494
93443SOL    HW182162  13.922   9.134   7.588
93443SOL    HW282163  13.932   9.062   7.455
93444SOL     OW82164   8.194   2.236  14.545
93444SOL    HW182165   8.236   2.200  14.623
93444SOL    HW282166   8.141   2.308  14.578
93445SOL     OW82167  12.182  11.780  14.327
93445SOL    HW182168  12.163  11.845  14.260
93445SOL    HW282169  12.108  11.720  14.324
93446SOL     OW82170   0.460   4.303   4.280
93446SOL    HW182171   0.468   4.215   4.245
93446SOL    HW282172   0.423   4.354   4.208
93447SOL     OW82173   1.277   4.776  10.518
93447SOL    HW182174   1.184   4.762  10.503
93447SOL    HW282175   1.284   4.800  10.610
93448SOL     OW82176  14.005  11.900   3.885
93448SOL    HW182177  13.985  11.842   3.959
93448SOL    HW282178  13.920  11.919   3.846
93449SOL     OW82179   2.494   7.892   5.908
93449SOL    HW182180   2.479   7.962   5.971
93449SOL    HW282181   2.540   7.935   5.836
93450SOL     OW82182   2.811   8.930  11.963
93450SOL    HW182183   2.872   9.000  11.983
93450SOL    HW282184   2.855   8.850  11.993
93451SOL     OW82185  14.404   1.387  12.621
93451SOL    HW182186  14.455   1.461  12.652
93451SOL    HW282187  14.395   1.401  12.527
93452SOL     OW82188   4.983  11.355  11.411
93452SOL    HW182189   4.997  11.264  11.386
93452SOL    HW282190   5.012  11.359  11.503
93453SOL     OW82191  11.081  12.988   4.922
93453SOL    HW182192  10.986  12.998   4.915
93453SOL    HW282193  11.103  13.030   5.005
93454SOL     OW82194   0.613   0.662   7.440
93454SOL    HW182195   0.548   0.592   7.447
93454SOL    HW282196   0.650   0.669   7.528
93455SOL     OW82197  10.177  14.072  10.098
93455SOL    HW182198  10.172  14.033  10.185
93455SOL    HW282199  10.089  14.106  10.082
93456SOL     OW82200   6.141   2.300  10.635
93456SOL    HW182201   6.215   2.336  10.685
93456SOL    HW282202   6.124   2.365  10.567
93457SOL     OW82203  14.175   1.187   9.894
93457SOL    HW182204  14.137   1.141   9.968
93457SOL    HW282205  14.128   1.270   9.890
93458SOL     OW82206   2.104   4.952   9.639
93458SOL    HW182207   2.071   5.019   9.698
93458SOL    HW282208   2.173   4.908   9.689
93459SOL     OW82209   3.669  12.990   5.216
93459SOL    HW182210   3.659  12.966   5.308
93459SOL    HW282211   3.752  13.039   5.213
93460SOL     OW82212   5.015   5.835   5.496
93460SOL    HW182213   5.107   5.849   5.472
93460SOL    HW282214   4.972   5.917   5.471
93461SOL     OW82215   6.202  10.331  11.056
93461SOL    HW182216   6.270  10.301  10.997
93461SOL    HW282217   6.249  10.375  11.127
93462SOL     OW82218   4.058  10.558   4.148
93462SOL    HW182219   3.985  10.560   4.086
93462SOL    HW282220   4.130  10.518   4.098
93463SOL     OW82221   7.971   4.948   9.340
93463SOL    HW182222   7.910   5.013   9.305
93463SOL    HW282223   7.956   4.950   9.434
93464SOL     OW82224  12.476   7.247   2.851
93464SOL    HW182225  12.391   7.251   2.807
93464SOL    HW282226  12.460   7.281   2.939
93465SOL     OW82227  13.660   2.014   0.730
93465SOL    HW182228  13.716   1.936   0.732
93465SOL    HW282229  13.621   2.017   0.817
93466SOL     OW82230  14.812  12.741   3.862
93466SOL    HW182231  14.832  12.756   3.770
93466SOL    HW282232  14.769  12.822   3.890
93467SOL     OW82233  10.734   1.146   0.403
93467SOL    HW182234  10.761   1.203   0.475
93467SOL    HW282235  10.790   1.069   0.411
93468SOL     OW82236   0.844   9.583   4.112
93468SOL    HW182237   0.854   9.534   4.030
93468SOL    HW282238   0.910   9.652   4.108
93469SOL     OW82239   0.416  14.018  12.279
93469SOL    HW182240   0.503  13.998  12.315
93469SOL    HW282241   0.435  14.066  12.199
93470SOL     OW82242   1.882   3.968   5.978
93470SOL    HW182243   1.935   4.048   5.983
93470SOL    HW282244   1.884   3.933   6.067
93471SOL     OW82245  14.489  13.223  12.609
93471SOL    HW182246  14.410  13.177  12.581
93471SOL    HW282247  14.528  13.165  12.675
93472SOL     OW82248   1.484  13.072   7.808
93472SOL    HW182249   1.477  13.163   7.836
93472SOL    HW282250   1.550  13.034   7.867
93473SOL     OW82251   6.509  14.573   4.210
93473SOL    HW182252   6.478  14.585   4.300
93473SOL    HW282253   6.479  14.650   4.164
93474SOL     OW82254   2.763  13.303   9.893
93474SOL    HW182255   2.832  13.314   9.958
93474SOL    HW282256   2.809  13.289   9.811
93475SOL     OW82257   5.523   3.446   7.152
93475SOL    HW182258   5.499   3.355   7.131
93475SOL    HW282259   5.491   3.459   7.241
93476SOL     OW82260   1.913   4.702   4.803
93476SOL    HW182261   1.997   4.672   4.767
93476SOL    HW282262   1.924   4.797   4.813
93477SOL     OW82263   7.522   1.372   7.312
93477SOL    HW182264   7.439   1.329   7.329
93477SOL    HW282265   7.522   1.448   7.370
93478SOL     OW82266   5.789   9.675   8.292
93478SOL    HW182267   5.830   9.744   8.343
93478SOL    HW282268   5.770   9.715   8.208
93479SOL     OW82269  12.538  11.165   2.928
93479SOL    HW182270  12.507  11.240   2.978
93479SOL    HW282271  12.475  11.158   2.856
93480SOL     OW82272   5.531   6.666   2.928
93480SOL    HW182273   5.459   6.616   2.889
93480SOL    HW282274   5.502   6.757   2.924
93481SOL     OW82275   3.938  13.335   9.014
93481SOL    HW182276   3.897  13.360   8.932
93481SOL    HW282277   4.024  13.377   9.013
93482SOL     OW82278   8.715  10.560   3.643
93482SOL    HW182279   8.789  10.540   3.585
93482SOL    HW282280   8.646  10.499   3.616
93483SOL     OW82281  13.190  10.412   9.538
93483SOL    HW182282  13.198  10.468   9.616
93483SOL    HW282283  13.261  10.349   9.547
93484SOL     OW82284  12.774  11.553   0.398
93484SOL    HW182285  12.852  11.501   0.415
93484SOL    HW282286  12.726  11.503   0.331
93485SOL     OW82287   3.537   2.083   8.333
93485SOL    HW182288   3.585   2.072   8.251
93485SOL    HW282289   3.599   2.129   8.391
93486SOL     OW82290   8.645   1.058   3.945
93486SOL    HW182291   8.675   1.007   3.870
93486SOL    HW282292   8.590   1.127   3.907
93487SOL     OW82293  14.353   6.743   1.256
93487SOL    HW182294  14.440   6.702   1.251
93487SOL    HW282295  14.361   6.807   1.326
93488SOL     OW82296  10.487  10.998  14.440
93488SOL    HW182297  10.551  11.059  14.404
93488SOL    HW282298  10.433  10.973  14.366
93489SOL     OW82299   2.276   6.412  13.656
93489SOL    HW182300   2.248   6.430  13.567
93489SOL    HW282301   2.318   6.326  13.652
93490SOL     OW82302   2.508   2.197   6.491
93490SOL    HW182303   2.533   2.288   6.505
93490SOL    HW282304   2.587   2.156   6.455
93491SOL     OW82305  10.932  10.115   0.069
93491SOL    HW182306  10.968  10.204   0.070
93491SOL    HW282307  10.989  10.065   0.128
93492SOL     OW82308   0.599   1.016  13.880
93492SOL    HW182309   0.509   1.047  13.870
93492SOL    HW282310   0.606   0.941  13.821
93493SOL     OW82311   1.254   0.264   5.158
93493SOL    HW182312   1.215   0.179   5.178
93493SOL    HW282313   1.225   0.284   5.069
93494SOL     OW82314   8.788   1.573   1.372
93494SOL    HW182315   8.842   1.595   1.296
93494SOL    HW282316   8.752   1.657   1.401
93495SOL     OW82317   8.382   8.737   5.658
93495SOL    HW182318   8.467   8.780   5.669
93495SOL    HW282319   8.366   8.740   5.564
93496SOL     OW82320   4.016   9.381  12.416
93496SOL    HW182321   3.963   9.432  12.354
93496SOL    HW282322   4.107   9.400  12.392
93497SOL     OW82323   5.107   5.829   1.613
93497SOL    HW182324   5.150   5.881   1.680
93497SOL    HW282325   5.139   5.864   1.530
93498SOL     OW82326   2.398   9.528   4.244
93498SOL    HW182327   2.442   9.472   4.180
93498SOL    HW282328   2.353   9.467   4.302
93499SOL     OW82329   4.388   8.951   8.203
93499SOL    HW182330   4.329   8.879   8.228
93499SOL    HW282331   4.375   9.017   8.271
93500SOL     OW82332   5.346   7.729   4.667
93500SOL    HW182333   5.390   7.809   4.697
93500SOL    HW282334   5.385   7.660   4.719
93501SOL     OW82335  10.240  13.156   0.964
93501SOL    HW182336  10.259  13.117   1.050
93501SOL    HW282337  10.303  13.227   0.956
93502SOL     OW82338  13.009   0.776   6.012
93502SOL    HW182339  13.044   0.692   5.983
93502SOL    HW282340  12.926   0.754   6.055
93503SOL     OW82341   0.651   5.059   0.335
93503SOL    HW182342   0.596   5.024   0.405
93503SOL    HW282343   0.661   4.987   0.274
93504SOL     OW82344  14.123   1.004  11.757
93504SOL    HW182345  14.181   0.949  11.810
93504SOL    HW282346  14.181   1.041  11.690
93505SOL     OW82347  12.283   5.657   7.363
93505SOL    HW182348  12.216   5.696   7.420
93505SOL    HW282349  12.234   5.628   7.285
93506SOL     OW82350  12.492   9.624  14.112
93506SOL    HW182351  12.510   9.546  14.059
93506SOL    HW282352  12.539   9.694  14.068
93507SOL     OW82353   0.742   2.549   1.058
93507SOL    HW182354   0.743   2.645   1.060
93507SOL    HW282355   0.832   2.524   1.077
93508SOL     OW82356   7.027   9.740   9.154
93508SOL    HW182357   7.069   9.801   9.094
93508SOL    HW282358   7.059   9.654   9.127
93509SOL     OW82359   7.445   7.001   9.041
93509SOL    HW182360   7.529   6.957   9.055
93509SOL    HW282361   7.468   7.091   9.017
93510SOL     OW82362   3.205   5.730   8.116
93510SOL    HW182363   3.263   5.677   8.170
93510SOL    HW282364   3.264   5.785   8.064
93511SOL     OW82365   2.503   2.284   8.627
93511SOL    HW182366   2.425   2.279   8.683
93511SOL    HW282367   2.533   2.193   8.620
93512SOL     OW82368  11.604  11.069  11.812
93512SOL    HW182369  11.631  10.992  11.863
93512SOL    HW282370  11.509  11.064  11.808
93513SOL     OW82371   1.755  12.133  10.968
93513SOL    HW182372   1.762  12.145  11.062
93513SOL    HW282373   1.766  12.039  10.955
93514SOL     OW82374  10.843  10.930   9.547
93514SOL    HW182375  10.843  10.947   9.453
93514SOL    HW282376  10.768  10.980   9.580
93515SOL     OW82377   1.022  10.588   5.346
93515SOL    HW182378   0.999  10.657   5.283
93515SOL    HW282379   0.943  10.577   5.398
93516SOL     OW82380   9.929   0.507   6.780
93516SOL    HW182381   9.884   0.527   6.698
93516SOL    HW282382   9.865   0.457   6.830
93517SOL     OW82383  14.448  14.800  13.673
93517SOL    HW182384  14.469  14.877  13.620
93517SOL    HW282385  14.352  14.800  13.678
93518SOL     OW82386  11.918   2.199   7.465
93518SOL    HW182387  11.899   2.171   7.554
93518SOL    HW282388  12.006   2.236   7.469
93519SOL     OW82389   0.792  14.613   9.296
93519SOL    HW182390   0.864  14.563   9.335
93519SOL    HW282391   0.716  14.591   9.349
93520SOL     OW82392   6.624   9.591  12.258
93520SOL    HW182393   6.545   9.638  12.284
93520SOL    HW282394   6.694   9.657  12.260
93521SOL     OW82395   5.805   1.081  11.939
93521SOL    HW182396   5.734   1.032  11.981
93521SOL    HW282397   5.869   1.014  11.915
93522SOL     OW82398  13.149   5.807   5.396
93522SOL    HW182399  13.054   5.815   5.393
93522SOL    HW282400  13.171   5.746   5.325
93523SOL     OW82401  12.965   5.932   8.453
93523SOL    HW182402  12.903   5.989   8.499
93523SOL    HW282403  13.051   5.964   8.480
93524SOL     OW82404   5.512  11.712  12.287
93524SOL    HW182405   5.598  11.733  12.251
93524SOL    HW282406   5.475  11.798  12.311
93525SOL     OW82407   1.463   1.001   8.870
93525SOL    HW182408   1.500   0.985   8.783
93525SOL    HW282409   1.535   0.980   8.930
93526SOL     OW82410   0.851  12.904   0.238
93526SOL    HW182411   0.780  12.968   0.243
93526SOL    HW282412   0.858  12.870   0.328
93527SOL     OW82413  12.139   3.361   9.933
93527SOL    HW182414  12.174   3.441   9.972
93527SOL    HW282415  12.047   3.380   9.916
93528SOL     OW82416   5.924  11.345  11.103
93528SOL    HW182417   5.981  11.268  11.099
93528SOL    HW282418   5.869  11.338  11.026
93529SOL     OW82419   4.646   4.602   5.655
93529SOL    HW182420   4.715   4.637   5.597
93529SOL    HW282421   4.575   4.577   5.595
93530SOL     OW82422  11.477  14.169   6.182
93530SOL    HW182423  11.548  14.206   6.235
93530SOL    HW282424  11.479  14.075   6.203
93531SOL     OW82425   4.927   9.659   3.110
93531SOL    HW182426   4.958   9.578   3.070
93531SOL    HW282427   4.934   9.724   3.041
93532SOL     OW82428   2.324  13.877  10.956
93532SOL    HW182429   2.369  13.802  10.917
93532SOL    HW282430   2.334  13.948  10.892
93533SOL     OW82431   7.880   3.793   3.535
93533SOL    HW182432   7.847   3.879   3.506
93533SOL    HW282433   7.862   3.792   3.629
93534SOL     OW82434   2.854   8.783   2.581
93534SOL    HW182435   2.935   8.760   2.626
93534SOL    HW282436   2.845   8.877   2.596
93535SOL     OW82437   3.412   3.499   0.901
93535SOL    HW182438   3.339   3.464   0.851
93535SOL    HW282439   3.443   3.573   0.849
93536SOL     OW82440  10.560  14.156  12.762
93536SOL    HW182441  10.534  14.086  12.822
93536SOL    HW282442  10.477  14.184  12.722
93537SOL     OW82443   9.004  13.152  11.191
93537SOL    HW182444   8.949  13.229  11.207
93537SOL    HW282445   9.093  13.184  11.200
93538SOL     OW82446   4.880   6.196   4.197
93538SOL    HW182447   4.971   6.218   4.215
93538SOL    HW282448   4.842   6.178   4.283
93539SOL     OW82449  10.082  12.083   2.500
93539SOL    HW182450   9.998  12.052   2.533
93539SOL    HW282451  10.112  12.014   2.441
93540SOL     OW82452   1.612  10.680   8.950
93540SOL    HW182453   1.563  10.691   9.031
93540SOL    HW282454   1.700  10.713   8.971
93541SOL     OW82455   1.828   0.291  14.614
93541SOL    HW182456   1.881   0.361  14.653
93541SOL    HW282457   1.836   0.218  14.675
93542SOL     OW82458   4.635  10.287  14.208
93542SOL    HW182459   4.649  10.225  14.279
93542SOL    HW282460   4.632  10.233  14.129
93543SOL     OW82461   4.623  11.439  12.902
93543SOL    HW182462   4.607  11.364  12.959
93543SOL    HW282463   4.608  11.406  12.814
93544SOL     OW82464   8.383   0.447   7.136
93544SOL    HW182465   8.290   0.442   7.113
93544SOL    HW282466   8.420   0.505   7.069
93545SOL     OW82467   1.419  10.717   9.292
93545SOL    HW182468   1.467  10.776   9.349
93545SOL    HW282469   1.338  10.764   9.270
93546SOL     OW82470   7.351   0.039  12.059
93546SOL    HW182471   7.286   0.095  12.101
93546SOL    HW282472   7.417   0.024  12.127
93547SOL     OW82473   3.727   9.279   5.946
93547SOL    HW182474   3.768   9.287   5.860
93547SOL    HW282475   3.797   9.248   6.003
93548SOL     OW82476  14.102   7.239  12.347
93548SOL    HW182477  14.046   7.306  12.384
93548SOL    HW282478  14.055   7.207  12.270
93549SOL     OW82479  13.801   9.380   1.459
93549SOL    HW182480  13.870   9.447   1.462
93549SOL    HW282481  13.848   9.298   1.443
93550SOL     OW82482   5.549   1.270   5.946
93550SOL    HW182483   5.588   1.201   5.894
93550SOL    HW282484   5.584   1.257   6.034
93551SOL     OW82485   1.581  13.459  13.864
93551SOL    HW182486   1.636  13.444  13.941
93551SOL    HW282487   1.634  13.515  13.807
93552SOL     OW82488   2.592   6.379  10.329
93552SOL    HW182489   2.561   6.459  10.372
93552SOL    HW282490   2.539   6.373  10.249
93553SOL     OW82491  12.174  13.110   0.878
93553SOL    HW182492  12.209  13.038   0.932
93553SOL    HW282493  12.081  13.088   0.867
93554SOL     OW82494  11.460   4.570   0.042
93554SOL    HW182495  11.529   4.636   0.052
93554SOL    HW282496  11.444   4.539   0.132
93555SOL     OW82497  11.714   7.521   5.224
93555SOL    HW182498  11.739   7.443   5.175
93555SOL    HW282499  11.792   7.576   5.223
93556SOL     OW82500   3.170  13.801   0.984
93556SOL    HW182501   3.153  13.890   1.014
93556SOL    HW282502   3.090  13.777   0.936
93557SOL     OW82503   1.071   9.203  12.585
93557SOL    HW182504   1.100   9.268  12.649
93557SOL    HW282505   1.137   9.133  12.590
93558SOL     OW82506   2.411  10.639  12.854
93558SOL    HW182507   2.376  10.557  12.889
93558SOL    HW282508   2.339  10.674  12.801
93559SOL     OW82509   0.368   4.609   4.142
93559SOL    HW182510   0.317   4.641   4.217
93559SOL    HW282511   0.459   4.622   4.169
93560SOL     OW82512   2.167   1.928   0.426
93560SOL    HW182513   2.154   1.889   0.512
93560SOL    HW282514   2.231   1.998   0.440
93561SOL     OW82515   5.888   3.580   4.539
93561SOL    HW182516   5.887   3.563   4.445
93561SOL    HW282517   5.906   3.674   4.546
93562SOL     OW82518  13.095  14.415  12.380
93562SOL    HW182519  13.172  14.369  12.412
93562SOL    HW282520  13.120  14.449  12.295
93563SOL     OW82521   1.470   6.727   1.573
93563SOL    HW182522   1.380   6.753   1.592
93563SOL    HW282523   1.474   6.721   1.478
93564SOL     OW82524   7.249   3.926   8.160
93564SOL    HW182525   7.338   3.907   8.130
93564SOL    HW282526   7.206   3.964   8.083
93565SOL     OW82527   6.740  10.350   5.898
93565SOL    HW182528   6.795  10.416   5.940
93565SOL    HW282529   6.798  10.307   5.835
93566SOL     OW82530   5.464   4.362   3.622
93566SOL    HW182531   5.513   4.435   3.661
93566SOL    HW282532   5.446   4.391   3.532
93567SOL     OW82533   5.057   8.123  13.983
93567SOL    HW182534   4.963   8.126  13.998
93567SOL    HW282535   5.069   8.158  13.895
93568SOL     OW82536  12.279  11.546  10.438
93568SOL    HW182537  12.373  11.528  10.433
93568SOL    HW282538  12.264  11.569  10.530
93569SOL     OW82539   8.691   0.523  14.025
93569SOL    HW182540   8.709   0.437  14.062
93569SOL    HW282541   8.598   0.523  14.005
93570SOL     OW82542  14.381   0.501   8.057
93570SOL    HW182543  14.310   0.454   8.013
93570SOL    HW282544  14.460   0.452   8.035
93571SOL     OW82545  12.598  14.830   0.574
93571SOL    HW182546  12.618  14.765   0.642
93571SOL    HW282547  12.537   0.011   0.616
93572SOL     OW82548  12.892   5.805   0.706
93572SOL    HW182549  12.812   5.834   0.664
93572SOL    HW282550  12.916   5.877   0.764
93573SOL     OW82551   2.938  14.741  14.818
93573SOL    HW182552   2.981  14.718   0.022
93573SOL    HW282553   2.899  14.826  14.835
93574SOL     OW82554   6.943   0.898   8.115
93574SOL    HW182555   6.927   0.895   8.021
93574SOL    HW282556   7.025   0.851   8.128
93575SOL     OW82557  13.055   6.764   5.332
93575SOL    HW182558  13.096   6.805   5.256
93575SOL    HW282559  13.071   6.825   5.404
93576SOL     OW82560  14.730   1.255   6.231
93576SOL    HW182561  14.811   1.230   6.276
93576SOL    HW282562  14.710   1.180   6.175
93577SOL     OW82563  13.152  10.792   5.071
93577SOL    HW182564  13.134  10.732   5.144
93577SOL    HW282565  13.245  10.780   5.053
93578SOL     OW82566   3.478  14.674  12.333
93578SOL    HW182567   3.413  14.707  12.394
93578SOL    HW282568   3.562  14.693  12.374
93579SOL     OW82569  10.955  13.762   0.515
93579SOL    HW182570  10.942  13.774   0.421
93579SOL    HW282571  11.049  13.745   0.524
93580SOL     OW82572   4.243   5.672   2.037
93580SOL    HW182573   4.250   5.624   1.955
93580SOL    HW282574   4.168   5.731   2.023
93581SOL     OW82575   3.795   0.315  11.239
93581SOL    HW182576   3.864   0.277  11.185
93581SOL    HW282577   3.833   0.397  11.271
93582SOL     OW82578   3.530   7.775   4.684
93582SOL    HW182579   3.462   7.841   4.698
93582SOL    HW282580   3.609   7.813   4.724
93583SOL     OW82581  13.191  14.381  13.983
93583SOL    HW182582  13.123  14.327  13.941
93583SOL    HW282583  13.246  14.319  14.030
93584SOL     OW82584   4.182   2.719   5.330
93584SOL    HW182585   4.208   2.811   5.331
93584SOL    HW282586   4.254   2.673   5.372
93585SOL     OW82587   0.837   9.802  13.878
93585SOL    HW182588   0.775   9.861  13.922
93585SOL    HW282589   0.782   9.742  13.829
93586SOL     OW82590   2.892   0.710  11.338
93586SOL    HW182591   2.823   0.645  11.349
93586SOL    HW282592   2.905   0.714  11.243
93587SOL     OW82593  13.715  10.803   3.564
93587SOL    HW182594  13.638  10.775   3.614
93587SOL    HW282595  13.715  10.898   3.571
93588SOL     OW82596  12.878   0.008   6.550
93588SOL    HW182597  12.899   0.051   6.633
93588SOL    HW282598  12.831   0.075   6.500
93589SOL     OW82599  12.453   6.375   8.395
93589SOL    HW182600  12.374   6.364   8.447
93589SOL    HW282601  12.519   6.321   8.438
93590SOL     OW82602  11.304  13.102   7.221
93590SOL    HW182603  11.265  13.165   7.161
93590SOL    HW282604  11.327  13.027   7.166
93591SOL     OW82605  14.492   5.855  10.939
93591SOL    HW182606  14.516   5.789  10.874
93591SOL    HW282607  14.470   5.932  10.887
93592SOL     OW82608  11.143   6.241   2.284
93592SOL    HW182609  11.099   6.156   2.287
93592SOL    HW282610  11.146   6.269   2.376
93593SOL     OW82611  10.367  11.797  13.396
93593SOL    HW182612  10.454  11.835  13.409
93593SOL    HW282613  10.378  11.705  13.419
93594SOL     OW82614  13.898   2.994   9.593
93594SOL    HW182615  13.862   2.925   9.649
93594SOL    HW282616  13.984   3.012   9.631
93595SOL     OW82617   3.568  12.789   6.098
93595SOL    HW182618   3.638  12.724   6.086
93595SOL    HW282619   3.563  12.801   6.193
93596SOL     OW82620   0.348  14.686   1.761
93596SOL    HW182621   0.262  14.666   1.724
93596SOL    HW282622   0.382  14.756   1.705
93597SOL     OW82623   8.737   9.884   4.863
93597SOL    HW182624   8.697   9.901   4.948
93597SOL    HW282625   8.808   9.948   4.857
93598SOL     OW82626   2.605   7.798  12.125
93598SOL    HW182627   2.659   7.822  12.200
93598SOL    HW282628   2.612   7.873  12.065
93599SOL     OW82629  10.841  14.851   0.755
93599SOL    HW182630  10.859   0.050   0.701
93599SOL    HW282631  10.746  14.842   0.754
93600SOL     OW82632  10.457   5.203   0.710
93600SOL    HW182633  10.534   5.198   0.654
93600SOL    HW282634  10.476   5.274   0.771
93601SOL     OW82635   4.663  13.658   3.977
93601SOL    HW182636   4.719  13.683   3.903
93601SOL    HW282637   4.722  13.657   4.052
93602SOL     OW82638   7.762  10.442   8.297
93602SOL    HW182639   7.766  10.415   8.388
93602SOL    HW282640   7.836  10.503   8.287
93603SOL     OW82641   8.843   6.713   1.006
93603SOL    HW182642   8.789   6.634   0.999
93603SOL    HW282643   8.875   6.713   1.096
93604SOL     OW82644   0.285   9.803   8.652
93604SOL    HW182645   0.208   9.752   8.678
93604SOL    HW282646   0.250   9.873   8.596
93605SOL     OW82647   7.140   3.331   5.817
93605SOL    HW182648   7.123   3.276   5.740
93605SOL    HW282649   7.120   3.275   5.892
93606SOL     OW82650   0.071  13.724  13.742
93606SOL    HW182651   0.101  13.815  13.741
93606SOL    HW282652   0.118  13.683  13.815
93607SOL     OW82653   6.447   3.707   6.457
93607SOL    HW182654   6.356   3.718   6.483
93607SOL    HW282655   6.447   3.720   6.362
93608SOL     OW82656   1.757   9.386   1.220
93608SOL    HW182657   1.779   9.324   1.289
93608SOL    HW282658   1.826   9.451   1.223
93609SOL     OW82659   9.581   7.810  12.608
93609SOL    HW182660   9.626   7.733  12.643
93609SOL    HW282661   9.490   7.801  12.639
93610SOL     OW82662   8.934   1.927   9.503
93610SOL    HW182663   8.854   1.875   9.509
93610SOL    HW282664   8.999   1.876   9.552
93611SOL     OW82665  11.416   8.631  10.023
93611SOL    HW182666  11.385   8.699  10.082
93611SOL    HW282667  11.482   8.674   9.968
93612SOL     OW82668   4.013  11.374  12.847
93612SOL    HW182669   3.931  11.338  12.882
93612SOL    HW282670   4.033  11.447  12.906
93613SOL     OW82671   7.518  12.875   7.970
93613SOL    HW182672   7.582  12.837   8.030
93613SOL    HW282673   7.557  12.864   7.883
93614SOL     OW82674  11.863   8.495   1.249
93614SOL    HW182675  11.958   8.497   1.259
93614SOL    HW282676  11.829   8.511   1.337
93615SOL     OW82677   9.929   2.983   1.801
93615SOL    HW182678   9.895   2.894   1.815
93615SOL    HW282679   9.853   3.040   1.811
93616SOL     OW82680   0.555  11.461   5.235
93616SOL    HW182681   0.469  11.501   5.232
93616SOL    HW282682   0.564  11.415   5.152
93617SOL     OW82683  12.673   2.598   1.960
93617SOL    HW182684  12.686   2.579   1.867
93617SOL    HW282685  12.595   2.547   1.984
93618SOL     OW82686   8.105  10.976  11.255
93618SOL    HW182687   8.179  11.008  11.307
93618SOL    HW282688   8.090  11.044  11.190
93619SOL     OW82689   7.015  13.820  10.899
93619SOL    HW182690   7.037  13.732  10.928
93619SOL    HW282691   7.000  13.869  10.980
93620SOL     OW82692   1.648   9.048   2.250
93620SOL    HW182693   1.673   9.117   2.312
93620SOL    HW282694   1.568   9.081   2.210
93621SOL     OW82695  13.351  13.397  14.654
93621SOL    HW182696  13.263  13.360  14.659
93621SOL    HW282697  13.407  13.323  14.630
93622SOL     OW82698  14.629   5.032  13.045
93622SOL    HW182699  14.584   5.061  12.965
93622SOL    HW282700  14.588   4.948  13.066
93623SOL     OW82701  13.384  11.178   6.006
93623SOL    HW182702  13.457  11.141   6.055
93623SOL    HW282703  13.323  11.105   5.995
93624SOL     OW82704  11.726   2.080  10.096
93624SOL    HW182705  11.800   2.020  10.099
93624SOL    HW282706  11.712   2.106  10.187
93625SOL     OW82707  10.807   5.709  12.604
93625SOL    HW182708  10.845   5.640  12.657
93625SOL    HW282709  10.845   5.698  12.517
93626SOL     OW82710   0.652   9.515  12.811
93626SOL    HW182711   0.683   9.512  12.901
93626SOL    HW282712   0.720   9.472  12.760
93627SOL     OW82713   9.270  12.241  11.115
93627SOL    HW182714   9.351  12.224  11.162
93627SOL    HW282715   9.285  12.204  11.028
93628SOL     OW82716   3.209   4.437  14.509
93628SOL    HW182717   3.140   4.371  14.517
93628SOL    HW282718   3.169   4.518  14.540
93629SOL     OW82719  10.674  10.020  12.200
93629SOL    HW182720  10.661   9.940  12.251
93629SOL    HW282721  10.612  10.083  12.238
93630SOL     OW82722  14.461   2.366   2.413
93630SOL    HW182723  14.387   2.332   2.362
93630SOL    HW282724  14.422   2.430   2.472
93631SOL     OW82725   4.444   8.240  11.585
93631SOL    HW182726   4.526   8.193  11.596
93631SOL    HW282727   4.469   8.332  11.588
93632SOL     OW82728   1.923  13.951   0.089
93632SOL    HW182729   1.845  13.937   0.035
93632SOL    HW282730   1.899  13.916   0.175
93633SOL     OW82731   2.493   9.846   0.288
93633SOL    HW182732   2.517   9.896   0.366
93633SOL    HW282733   2.460   9.912   0.227
93634SOL     OW82734  10.997   3.435   5.885
93634SOL    HW182735  10.923   3.426   5.945
93634SOL    HW282736  11.002   3.529   5.868
93635SOL     OW82737   8.743   2.371   7.537
93635SOL    HW182738   8.783   2.353   7.623
93635SOL    HW282739   8.706   2.458   7.546
93636SOL     OW82740  12.533   2.440  12.512
93636SOL    HW182741  12.595   2.481  12.451
93636SOL    HW282742  12.490   2.372  12.459
93637SOL     OW82743   1.664   9.102   0.019
93637SOL    HW182744   1.730   9.171   0.020
93637SOL    HW282745   1.593   9.137  14.844
93638SOL     OW82746   9.167  11.929   9.279
93638SOL    HW182747   9.092  11.891   9.323
93638SOL    HW282748   9.241  11.909   9.336
93639SOL     OW82749   1.630  11.052   5.013
93639SOL    HW182750   1.648  11.145   5.003
93639SOL    HW282751   1.711  11.016   5.051
93640SOL     OW82752   9.406   6.773  14.540
93640SOL    HW182753   9.491   6.730  14.532
93640SOL    HW282754   9.420   6.842  14.605
93641SOL     OW82755   2.462   1.239   5.159
93641SOL    HW182756   2.386   1.276   5.114
93641SOL    HW282757   2.425   1.189   5.232
93642SOL     OW82758   8.154   3.917  11.375
93642SOL    HW182759   8.127   3.935  11.285
93642SOL    HW282760   8.168   4.003  11.414
93643SOL     OW82761   7.064   9.975  13.620
93643SOL    HW182762   7.159   9.964  13.613
93643SOL    HW282763   7.037  10.006  13.534
93644SOL     OW82764  14.557  13.966   9.513
93644SOL    HW182765  14.620  13.913   9.464
93644SOL    HW282766  14.554  14.049   9.465
93645SOL     OW82767  10.476   1.990   6.592
93645SOL    HW182768  10.437   2.026   6.512
93645SOL    HW282769  10.518   2.066   6.634
93646SOL     OW82770  10.612   3.658   2.335
93646SOL    HW182771  10.590   3.565   2.334
93646SOL    HW282772  10.654   3.671   2.420
93647SOL     OW82773  11.885  11.497  13.491
93647SOL    HW182774  11.858  11.589  13.483
93647SOL    HW282775  11.973  11.495  13.453
93648SOL     OW82776   0.661   2.779   8.520
93648SOL    HW182777   0.635   2.777   8.428
93648SOL    HW282778   0.718   2.856   8.527
93649SOL     OW82779   2.296   1.384   4.104
93649SOL    HW182780   2.388   1.359   4.097
93649SOL    HW282781   2.297   1.458   4.165
93650SOL     OW82782  13.949  10.960   4.811
93650SOL    HW182783  13.932  11.008   4.730
93650SOL    HW282784  13.988  11.026   4.869
93651SOL     OW82785  12.005   5.981  12.743
93651SOL    HW182786  12.068   6.028  12.798
93651SOL    HW282787  12.058   5.943  12.673
93652SOL     OW82788   1.993  11.742   7.533
93652SOL    HW182789   2.001  11.785   7.618
93652SOL    HW282790   2.066  11.776   7.482
93653SOL     OW82791  13.529   6.161  10.900
93653SOL    HW182792  13.469   6.231  10.927
93653SOL    HW282793  13.473   6.096  10.858
93654SOL     OW82794   9.714  11.857   5.381
93654SOL    HW182795   9.648  11.812   5.434
93654SOL    HW282796   9.731  11.938   5.428
93655SOL     OW82797   6.893  12.367   4.509
93655SOL    HW182798   6.841  12.287   4.495
93655SOL    HW282799   6.837  12.437   4.476
93656SOL     OW82800   0.352   4.069   4.218
93656SOL    HW182801   0.299   4.087   4.296
93656SOL    HW282802   0.293   4.023   4.159
93657SOL     OW82803   5.163  12.563   1.996
93657SOL    HW182804   5.098  12.601   1.937
93657SOL    HW282805   5.230  12.631   2.004
93658SOL     OW82806   9.503   8.642  14.231
93658SOL    HW182807   9.480   8.629  14.323
93658SOL    HW282808   9.589   8.600  14.223
93659SOL     OW82809   7.978   7.796   0.588
93659SOL    HW182810   7.947   7.857   0.521
93659SOL    HW282811   8.032   7.850   0.645
93660SOL     OW82812  10.362   9.434  14.237
93660SOL    HW182813  10.330   9.524  14.240
93660SOL    HW282814  10.309   9.392  14.170
93661SOL     OW82815   8.198   4.116   2.211
93661SOL    HW182816   8.216   4.023   2.201
93661SOL    HW282817   8.268   4.160   2.163
93662SOL     OW82818  14.655   4.572   3.371
93662SOL    HW182819  14.576   4.623   3.353
93662SOL    HW282820  14.635   4.484   3.339
93663SOL     OW82821  14.092   3.180   9.160
93663SOL    HW182822  14.044   3.220   9.232
93663SOL    HW282823  14.107   3.252   9.098
93664SOL     OW82824   5.537   6.654  12.016
93664SOL    HW182825   5.516   6.722  12.080
93664SOL    HW282826   5.632   6.651  12.013
93665SOL     OW82827  10.294  13.556   4.517
93665SOL    HW182828  10.290  13.496   4.443
93665SOL    HW282829  10.367  13.615   4.496
93666SOL     OW82830   9.098   6.940  14.497
93666SOL    HW182831   9.142   6.871  14.448
93666SOL    HW282832   9.169   6.994  14.532
93667SOL     OW82833   3.547   7.748   3.547
93667SOL    HW182834   3.473   7.801   3.575
93667SOL    HW282835   3.511   7.661   3.534
93668SOL     OW82836   8.134  10.420  12.241
93668SOL    HW182837   8.066  10.408  12.307
93668SOL    HW282838   8.163  10.511  12.253
93669SOL     OW82839   9.747   4.163   1.450
93669SOL    HW182840   9.721   4.196   1.536
93669SOL    HW282841   9.693   4.213   1.389
93670SOL     OW82842   8.738   8.665   7.051
93670SOL    HW182843   8.811   8.647   7.111
93670SOL    HW282844   8.668   8.606   7.080
93671SOL     OW82845   1.306  10.692   3.793
93671SOL    HW182846   1.218  10.674   3.826
93671SOL    HW282847   1.343  10.752   3.857
93672SOL     OW82848   9.454   5.082   5.814
93672SOL    HW182849   9.494   5.169   5.814
93672SOL    HW282850   9.376   5.091   5.869
93673SOL     OW82851  14.410   0.935   0.696
93673SOL    HW182852  14.453   0.903   0.617
93673SOL    HW282853  14.328   0.887   0.699
93674SOL     OW82854  14.816   7.301  10.375
93674SOL    HW182855  14.725   7.303  10.345
93674SOL    HW282856  14.810   7.313  10.469
93675SOL     OW82857  12.018  10.909   8.614
93675SOL    HW182858  12.010  10.984   8.556
93675SOL    HW282859  12.074  10.939   8.686
93676SOL     OW82860   3.348   8.702   1.454
93676SOL    HW182861   3.422   8.735   1.505
93676SOL    HW282862   3.320   8.776   1.401
93677SOL     OW82863   0.455  12.325   2.246
93677SOL    HW182864   0.403  12.268   2.188
93677SOL    HW282865   0.482  12.398   2.190
93678SOL     OW82866   3.919   4.010  12.486
93678SOL    HW182867   3.994   4.069  12.491
93678SOL    HW282868   3.878   4.016  12.572
93679SOL     OW82869   9.386   6.851  10.718
93679SOL    HW182870   9.431   6.935  10.705
93679SOL    HW282871   9.453   6.786  10.698
93680SOL     OW82872   3.459  12.319   5.733
93680SOL    HW182873   3.437  12.404   5.770
93680SOL    HW282874   3.451  12.331   5.638
93681SOL     OW82875  12.391   8.847   8.191
93681SOL    HW182876  12.462   8.784   8.176
93681SOL    HW282877  12.375   8.886   8.106
93682SOL     OW82878  10.688   2.898   3.995
93682SOL    HW182879  10.657   2.938   4.077
93682SOL    HW282880  10.758   2.839   4.023
93683SOL     OW82881   1.323   5.962   3.317
93683SOL    HW182882   1.268   6.008   3.253
93683SOL    HW282883   1.261   5.923   3.378
93684SOL     OW82884   7.364  11.233  13.685
93684SOL    HW182885   7.297  11.165  13.677
93684SOL    HW282886   7.349  11.271  13.772
93685SOL     OW82887  14.724  12.587   9.777
93685SOL    HW182888  14.710  12.681   9.773
93685SOL    HW282889  14.642  12.552   9.811
93686SOL     OW82890  10.837  11.627   0.512
93686SOL    HW182891  10.862  11.673   0.592
93686SOL    HW282892  10.908  11.644   0.450
93687SOL     OW82893  10.453  11.908  12.548
93687SOL    HW182894  10.529  11.949  12.588
93687SOL    HW282895  10.382  11.971  12.561
93688SOL     OW82896   5.549   2.114   0.089
93688SOL    HW182897   5.495   2.119   0.010
93688SOL    HW282898   5.574   2.022   0.094
93689SOL     OW82899   2.518   1.081   9.010
93689SOL    HW182900   2.491   1.148   9.073
93689SOL    HW282901   2.521   1.000   9.061
93690SOL     OW82902   0.254  10.470   7.877
93690SOL    HW182903   0.228  10.501   7.964
93690SOL    HW282904   0.331  10.522   7.855
93691SOL     OW82905   3.648  14.466   4.064
93691SOL    HW182906   3.655  14.561   4.067
93691SOL    HW282907   3.587  14.449   3.992
93692SOL     OW82908   3.792   9.173   1.962
93692SOL    HW182909   3.885   9.181   1.941
93692SOL    HW282910   3.788   9.186   2.057
93693SOL     OW82911   0.247   5.315  13.974
93693SOL    HW182912   0.293   5.272  14.046
93693SOL    HW282913   0.155   5.297  13.989
93694SOL     OW82914  12.978   6.768   0.625
93694SOL    HW182915  12.938   6.708   0.562
93694SOL    HW282916  13.038   6.822   0.573
93695SOL     OW82917   3.629   9.974   7.118
93695SOL    HW182918   3.553   9.930   7.156
93695SOL    HW282919   3.605  10.067   7.117
93696SOL     OW82920   5.368   8.086   7.127
93696SOL    HW182921   5.382   8.143   7.051
93696SOL    HW282922   5.303   8.022   7.097
93697SOL     OW82923   7.257  11.128   1.810
93697SOL    HW182924   7.276  11.042   1.772
93697SOL    HW282925   7.199  11.110   1.884
93698SOL     OW82926  14.125   4.006   9.842
93698SOL    HW182927  14.046   4.047   9.880
93698SOL    HW282928  14.161   4.074   9.785
93699SOL     OW82929   0.513  10.979   5.850
93699SOL    HW182930   0.468  10.987   5.934
93699SOL    HW282931   0.480  11.051   5.797
93700SOL     OW82932  14.843  12.597  14.649
93700SOL    HW182933   0.053  12.593  14.613
93700SOL    HW282934  14.849  12.660  14.722
93701SOL     OW82935  12.186  14.024  10.966
93701SOL    HW182936  12.208  13.935  10.992
93701SOL    HW282937  12.227  14.036  10.881
93702SOL     OW82938   6.723   7.641   1.604
93702SOL    HW182939   6.670   7.571   1.643
93702SOL    HW282940   6.774   7.676   1.677
93703SOL     OW82941   8.000   5.901   7.569
93703SOL    HW182942   7.923   5.958   7.558
93703SOL    HW282943   8.005   5.852   7.488
93704SOL     OW82944  12.270   5.205   1.034
93704SOL    HW182945  12.358   5.239   1.019
93704SOL    HW282946  12.282   5.131   1.094
93705SOL     OW82947   6.266   3.775   6.804
93705SOL    HW182948   6.240   3.771   6.896
93705SOL    HW282949   6.349   3.728   6.800
93706SOL     OW82950   5.549  12.068  13.367
93706SOL    HW182951   5.614  12.124  13.410
93706SOL    HW282952   5.491  12.041  13.438
93707SOL     OW82953   4.378  12.318   3.968
93707SOL    HW182954   4.376  12.236   4.019
93707SOL    HW282955   4.414  12.292   3.883
93708SOL     OW82956   4.264  11.570  10.417
93708SOL    HW182957   4.343  11.552  10.469
93708SOL    HW282958   4.294  11.630  10.349
93709SOL     OW82959   7.860   5.020   2.659
93709SOL    HW182960   7.926   5.024   2.729
93709SOL    HW282961   7.828   4.930   2.661
93710SOL     OW82962  13.448   7.784   1.229
93710SOL    HW182963  13.429   7.804   1.137
93710SOL    HW282964  13.538   7.752   1.228
93711SOL     OW82965   9.232   5.196  12.353
93711SOL    HW182966   9.203   5.127  12.413
93711SOL    HW282967   9.209   5.162  12.266
93712SOL     OW82968  10.930  12.276   9.716
93712SOL    HW182969  10.898  12.187   9.699
93712SOL    HW282970  11.005  12.264   9.774
93713SOL     OW82971   4.534   4.805  10.679
93713SOL    HW182972   4.556   4.845  10.595
93713SOL    HW282973   4.545   4.711  10.665
93714SOL     OW82974   5.249   8.932   7.510
93714SOL    HW182975   5.174   8.990   7.525
93714SOL    HW282976   5.324   8.982   7.543
93715SOL     OW82977   9.082   2.713   4.167
93715SOL    HW182978   9.032   2.782   4.124
93715SOL    HW282979   9.017   2.659   4.211
93716SOL     OW82980   7.583  12.259   5.234
93716SOL    HW182981   7.672  12.266   5.268
93716SOL    HW282982   7.581  12.176   5.186
93717SOL     OW82983  13.111   7.392   9.069
93717SOL    HW182984  13.164   7.443   9.131
93717SOL    HW282985  13.087   7.455   9.001
93718SOL     OW82986  12.195   9.542   8.631
93718SOL    HW182987  12.103   9.544   8.605
93718SOL    HW282988  12.226   9.632   8.617
93719SOL     OW82989   9.319   0.646  12.898
93719SOL    HW182990   9.317   0.553  12.920
93719SOL    HW282991   9.365   0.687  12.972
93720SOL     OW82992   5.076   9.057  14.443
93720SOL    HW182993   5.110   9.140  14.477
93720SOL    HW282994   5.152   8.999  14.440
93721SOL     OW82995   6.794  10.512  10.802
93721SOL    HW182996   6.824  10.478  10.886
93721SOL    HW282997   6.780  10.435  10.747
93722SOL     OW82998   3.430   4.708  10.500
93722SOL    HW182999   3.430   4.704  10.404
93722SOL    HW283000   3.338   4.722  10.523
93723SOL     OW83001  14.537  10.097   2.166
93723SOL    HW183002  14.602  10.031   2.190
93723SOL    HW283003  14.476  10.051   2.108
93724SOL     OW83004  11.937   1.765   5.374
93724SOL    HW183005  11.947   1.852   5.336
93724SOL    HW283006  11.860   1.729   5.331
93725SOL     OW83007  11.556   8.403   2.941
93725SOL    HW183008  11.521   8.357   3.018
93725SOL    HW283009  11.633   8.352   2.916
93726SOL     OW83010   1.912  10.770   9.633
93726SOL    HW183011   1.910  10.816   9.549
93726SOL    HW283012   1.910  10.839   9.699
93727SOL     OW83013   4.896   4.531  14.696
93727SOL    HW183014   4.906   4.439  14.720
93727SOL    HW283015   4.855   4.529  14.610
93728SOL     OW83016   3.628   4.022   3.563
93728SOL    HW183017   3.540   4.035   3.527
93728SOL    HW283018   3.650   3.932   3.538
93729SOL     OW83019  12.615   5.465  10.829
93729SOL    HW183020  12.654   5.551  10.844
93729SOL    HW283021  12.538   5.463  10.886
93730SOL     OW83022  11.899  11.782  10.165
93730SOL    HW183023  11.870  11.803  10.253
93730SOL    HW283024  11.982  11.735  10.177
93731SOL     OW83025   7.762   2.796  14.047
93731SOL    HW183026   7.775   2.891  14.049
93731SOL    HW283027   7.682   2.782  14.097
93732SOL     OW83028   8.680   8.267   1.104
93732SOL    HW183029   8.593   8.301   1.126
93732SOL    HW283030   8.676   8.174   1.127
93733SOL     OW83031   0.413   1.924   3.459
93733SOL    HW183032   0.346   1.856   3.467
93733SOL    HW283033   0.422   1.939   3.365
93734SOL     OW83034   1.302  10.087   0.672
93734SOL    HW183035   1.213  10.092   0.637
93734SOL    HW283036   1.328  10.178   0.685
93735SOL     OW83037  14.703  13.897   3.868
93735SOL    HW183038  14.663  13.883   3.954
93735SOL    HW283039  14.742  13.812   3.845
93736SOL     OW83040   5.291   6.264   7.371
93736SOL    HW183041   5.293   6.195   7.437
93736SOL    HW283042   5.237   6.333   7.410
93737SOL     OW83043   9.821  12.494   2.819
93737SOL    HW183044   9.764  12.452   2.884
93737SOL    HW283045   9.858  12.421   2.769
93738SOL     OW83046  12.701  13.123  12.392
93738SOL    HW183047  12.682  13.051  12.451
93738SOL    HW283048  12.729  13.194  12.450
93739SOL     OW83049  10.415   0.692   2.118
93739SOL    HW183050  10.369   0.662   2.040
93739SOL    HW283051  10.452   0.777   2.093
93740SOL     OW83052   1.490  13.271   0.870
93740SOL    HW183053   1.577  13.302   0.844
93740SOL    HW283054   1.507  13.216   0.947
93741SOL     OW83055  10.997  11.200   8.531
93741SOL    HW183056  10.957  11.193   8.618
93741SOL    HW283057  11.055  11.124   8.524
93742SOL     OW83058   6.097   9.578  12.423
93742SOL    HW183059   6.178   9.626  12.441
93742SOL    HW283060   6.063   9.555  12.509
93743SOL     OW83061  10.153   2.316   7.187
93743SOL    HW183062  10.205   2.344   7.112
93743SOL    HW283063  10.160   2.220   7.187
93744SOL     OW83064   8.568   3.342   4.859
93744SOL    HW183065   8.662   3.349   4.872
93744SOL    HW283066   8.554   3.252   4.830
93745SOL     OW83067   0.422  13.853   7.038
93745SOL    HW183068   0.360  13.847   7.110
93745SOL    HW283069   0.487  13.916   7.069
93746SOL     OW83070  12.936  13.151   4.706
93746SOL    HW183071  12.900  13.073   4.665
93746SOL    HW283072  12.876  13.171   4.778
93747SOL     OW83073  12.811   2.045   8.738
93747SOL    HW183074  12.734   2.082   8.696
93747SOL    HW283075  12.780   1.965   8.780
93748SOL     OW83076   3.726  14.021  12.767
93748SOL    HW183077   3.637  14.019  12.802
93748SOL    HW283078   3.719  13.982  12.680
93749SOL     OW83079  13.867   0.521   7.194
93749SOL    HW183080  13.868   0.607   7.152
93749SOL    HW283081  13.897   0.538   7.284
93750SOL     OW83082   9.606   0.182  13.806
93750SOL    HW183083   9.623   0.275  13.822
93750SOL    HW283084   9.511   0.176  13.795
93751SOL     OW83085  14.379  13.706  10.314
93751SOL    HW183086  14.336  13.782  10.354
93751SOL    HW283087  14.469  13.735  10.298
93752SOL     OW83088   6.845   4.538   6.580
93752SOL    HW183089   6.770   4.479   6.575
93752SOL    HW283090   6.868   4.540   6.672
93753SOL     OW83091  11.563   3.219  10.909
93753SOL    HW183092  11.531   3.214  10.819
93753SOL    HW283093  11.658   3.228  10.900
93754SOL     OW83094   3.829   0.784  13.418
93754SOL    HW183095   3.794   0.709  13.467
93754SOL    HW283096   3.815   0.762  13.326
93755SOL     OW83097   9.790   8.549  11.328
93755SOL    HW183098   9.720   8.610  11.303
93755SOL    HW283099   9.748   8.463  11.327
93756SOL     OW83100   0.071   7.596   0.056
93756SOL    HW183101   0.163   7.587   0.030
93756SOL    HW283102   0.072   7.579   0.150
93757SOL     OW83103  11.877   7.828   5.290
93757SOL    HW183104  11.903   7.885   5.363
93757SOL    HW283105  11.814   7.879   5.240
93758SOL     OW83106  13.892  10.854   8.931
93758SOL    HW183107  13.888  10.900   9.015
93758SOL    HW283108  13.805  10.864   8.894
93759SOL     OW83109  14.652   8.293   9.527
93759SOL    HW183110  14.715   8.223   9.546
93759SOL    HW283111  14.699   8.374   9.546
93760SOL     OW83112  12.890   1.499   8.283
93760SOL    HW183113  12.903   1.480   8.190
93760SOL    HW283114  12.800   1.471   8.301
93761SOL     OW83115  13.453  12.359   8.414
93761SOL    HW183116  13.397  12.282   8.407
93761SOL    HW283117  13.497  12.365   8.329
93762SOL     OW83118   4.090   0.069   4.552
93762SOL    HW183119   4.139   0.046   4.631
93762SOL    HW283120   3.999   0.050   4.575
93763SOL     OW83121  10.436  10.126  12.231
93763SOL    HW183122  10.430  10.037  12.196
93763SOL    HW283123  10.353  10.141  12.275
93764SOL     OW83124  11.011   6.260   6.229
93764SOL    HW183125  10.958   6.245   6.307
93764SOL    HW283126  11.100   6.273   6.263
93765SOL     OW83127   6.315  10.043   7.425
93765SOL    HW183128   6.283  10.133   7.419
93765SOL    HW283129   6.239   9.992   7.454
93766SOL     OW83130  14.563  14.716   9.285
93766SOL    HW183131  14.539  14.685   9.198
93766SOL    HW283132  14.488  14.768   9.313
93767SOL     OW83133   7.067  10.466   0.843
93767SOL    HW183134   7.021  10.547   0.820
93767SOL    HW283135   7.017  10.430   0.916
93768SOL     OW83136   3.772  14.782   4.361
93768SOL    HW183137   3.745  14.751   4.448
93768SOL    HW283138   3.690  14.798   4.315
93769SOL     OW83139   8.049   0.946  14.338
93769SOL    HW183140   7.969   0.895  14.322
93769SOL    HW283141   8.019   1.023  14.387
93770SOL     OW83142   1.013   5.321   4.252
93770SOL    HW183143   0.981   5.311   4.162
93770SOL    HW283144   1.108   5.326   4.243
93771SOL     OW83145   9.507  12.512  12.532
93771SOL    HW183146   9.577  12.561  12.575
93771SOL    HW283147   9.551  12.440  12.488
93772SOL     OW83148   7.715   3.959   1.091
93772SOL    HW183149   7.701   4.054   1.083
93772SOL    HW283150   7.777   3.938   1.021
93773SOL     OW83151  10.562   5.182   3.945
93773SOL    HW183152  10.603   5.099   3.971
93773SOL    HW283153  10.519   5.162   3.862
93774SOL     OW83154  14.663  14.182  11.437
93774SOL    HW183155  14.575  14.147  11.424
93774SOL    HW283156  14.689  14.149  11.523
93775SOL     OW83157   2.471   9.008   3.040
93775SOL    HW183158   2.412   9.048   2.976
93775SOL    HW283159   2.482   8.918   3.010
93776SOL     OW83160   4.190  14.060   1.978
93776SOL    HW183161   4.257  14.105   1.928
93776SOL    HW283162   4.121  14.040   1.915
93777SOL     OW83163   9.186   1.439   6.701
93777SOL    HW183164   9.242   1.414   6.628
93777SOL    HW283165   9.130   1.362   6.716
93778SOL     OW83166  10.173  10.578  10.473
93778SOL    HW183167  10.212  10.491  10.480
93778SOL    HW283168  10.166  10.593  10.379
93779SOL     OW83169  12.644   2.329   5.380
93779SOL    HW183170  12.661   2.417   5.412
93779SOL    HW283171  12.566   2.338   5.325
93780SOL     OW83172   1.023   6.547   3.487
93780SOL    HW183173   0.949   6.533   3.427
93780SOL    HW283174   1.077   6.612   3.443
93781SOL     OW83175   8.320   4.703   3.739
93781SOL    HW183176   8.252   4.737   3.681
93781SOL    HW283177   8.299   4.739   3.825
93782SOL     OW83178   6.139  11.067  14.450
93782SOL    HW183179   6.165  11.034  14.536
93782SOL    HW283180   6.156  11.161  14.455
93783SOL     OW83181  13.793  12.841  13.882
93783SOL    HW183182  13.767  12.836  13.790
93783SOL    HW283183  13.754  12.763  13.922
93784SOL     OW83184   0.143  13.451  10.818
93784SOL    HW183185   0.056  13.414  10.807
93784SOL    HW283186   0.202  13.376  10.817
93785SOL     OW83187   5.784   6.281   2.043
93785SOL    HW183188   5.861   6.310   1.994
93785SOL    HW283189   5.817   6.211   2.099
93786SOL     OW83190   5.374   8.168   7.828
93786SOL    HW183191   5.343   8.077   7.830
93786SOL    HW283192   5.468   8.160   7.812
93787SOL     OW83193   1.216   5.090  11.976
93787SOL    HW183194   1.199   5.183  11.961
93787SOL    HW283195   1.135   5.057  12.014
93788SOL     OW83196   3.015  14.193   5.384
93788SOL    HW183197   2.977  14.227   5.466
93788SOL    HW283198   2.943  14.146   5.342
93789SOL     OW83199   4.857   8.642   9.115
93789SOL    HW183200   4.873   8.564   9.169
93789SOL    HW283201   4.942   8.662   9.077
93790SOL     OW83202   8.088   3.382   2.705
93790SOL    HW183203   8.069   3.384   2.611
93790SOL    HW283204   8.040   3.306   2.737
93791SOL     OW83205   3.883   7.178  11.140
93791SOL    HW183206   3.963   7.149  11.097
93791SOL    HW283207   3.862   7.261  11.097
93792SOL     OW83208  12.049   1.193   3.546
93792SOL    HW183209  12.112   1.181   3.474
93792SOL    HW283210  11.997   1.112   3.545
93793SOL     OW83211  10.186  11.470  10.693
93793SOL    HW183212  10.241  11.544  10.718
93793SOL    HW283213  10.123  11.462  10.764
93794SOL     OW83214  14.390   8.602  10.167
93794SOL    HW183215  14.483   8.617  10.184
93794SOL    HW283216  14.378   8.626  10.075
93795SOL     OW83217   7.459  10.836  11.286
93795SOL    HW183218   7.489  10.904  11.346
93795SOL    HW283219   7.539  10.801  11.247
93796SOL     OW83220   0.748  11.801   5.523
93796SOL    HW183221   0.710  11.714   5.507
93796SOL    HW283222   0.700  11.859   5.464
93797SOL     OW83223   5.751  14.696  10.635
93797SOL    HW183224   5.675  14.755  10.635
93797SOL    HW283225   5.801  14.721  10.557
93798SOL     OW83226   9.427   4.467   6.612
93798SOL    HW183227   9.361   4.524   6.652
93798SOL    HW283228   9.480   4.526   6.558
93799SOL     OW83229  13.616  13.497   7.262
93799SOL    HW183230  13.572  13.562   7.208
93799SOL    HW283231  13.592  13.519   7.352
93800SOL     OW83232  10.041   8.146   1.096
93800SOL    HW183233  10.028   8.236   1.126
93800SOL    HW283234  10.050   8.153   1.001
93801SOL     OW83235   0.489  14.383   0.299
93801SOL    HW183236   0.558  14.337   0.347
93801SOL    HW283237   0.498  14.475   0.326
93802SOL     OW83238   2.903   4.187  14.019
93802SOL    HW183239   2.940   4.264  14.062
93802SOL    HW283240   2.856   4.221  13.944
93803SOL     OW83241   1.044   9.430   0.912
93803SOL    HW183242   1.063   9.379   0.833
93803SOL    HW283243   0.989   9.373   0.965
93804SOL     OW83244   0.925   3.628   9.334
93804SOL    HW183245   0.928   3.583   9.418
93804SOL    HW283246   0.989   3.582   9.280
93805SOL     OW83247  13.518  12.496   0.153
93805SOL    HW183248  13.586  12.524   0.091
93805SOL    HW283249  13.473  12.425   0.108
93806SOL     OW83250   2.520  12.496   7.201
93806SOL    HW183251   2.613  12.500   7.225
93806SOL    HW283252   2.491  12.411   7.234
93807SOL     OW83253   2.752   1.291  13.452
93807SOL    HW183254   2.764   1.197  13.464
93807SOL    HW283255   2.710   1.321  13.533
93808SOL     OW83256   0.151   9.357   5.454
93808SOL    HW183257   0.067   9.320   5.428
93808SOL    HW283258   0.150   9.353   5.550
93809SOL     OW83259   8.045   6.927  13.589
93809SOL    HW183260   8.117   6.987  13.567
93809SOL    HW283261   8.004   6.966  13.667
93810SOL     OW83262  14.519   5.994   7.881
93810SOL    HW183263  14.472   6.017   7.960
93810SOL    HW283264  14.478   6.048   7.812
93811SOL     OW83265   7.020  14.363   0.014
93811SOL    HW183266   6.986  14.395   0.098
93811SOL    HW283267   6.953  14.301  14.862
93812SOL     OW83268   9.580   7.410   7.573
93812SOL    HW183269   9.609   7.337   7.627
93812SOL    HW283270   9.585   7.486   7.630
93813SOL     OW83271   2.180  12.264   2.038
93813SOL    HW183272   2.145  12.262   1.949
93813SOL    HW283273   2.245  12.335   2.036
93814SOL     OW83274   6.368   9.150   2.402
93814SOL    HW183275   6.458   9.182   2.408
93814SOL    HW283276   6.321   9.219   2.355
93815SOL     OW83277   6.860  14.294   7.248
93815SOL    HW183278   6.945  14.307   7.290
93815SOL    HW283279   6.866  14.206   7.210
93816SOL     OW83280  12.674   9.103   8.186
93816SOL    HW183281  12.758   9.120   8.228
93816SOL    HW283282  12.620   9.065   8.255
93817SOL     OW83283   5.240   6.323  11.958
93817SOL    HW183284   5.192   6.261  11.902
93817SOL    HW283285   5.328   6.324  11.922
93818SOL     OW83286   5.230  14.041   6.850
93818SOL    HW183287   5.200  14.112   6.906
93818SOL    HW283288   5.151  13.994   6.824
93819SOL     OW83289  12.521  11.537   7.677
93819SOL    HW183290  12.607  11.564   7.709
93819SOL    HW283291  12.532  11.444   7.656
93820SOL     OW83292   4.953   5.678   9.769
93820SOL    HW183293   4.950   5.713   9.858
93820SOL    HW283294   4.951   5.756   9.713
93821SOL     OW83295   6.128   0.559   2.411
93821SOL    HW183296   6.190   0.540   2.340
93821SOL    HW283297   6.181   0.552   2.491
93822SOL     OW83298  12.201   1.922   6.792
93822SOL    HW183299  12.188   1.992   6.728
93822SOL    HW283300  12.278   1.875   6.760
93823SOL     OW83301  13.342   6.269   7.570
93823SOL    HW183302  13.300   6.184   7.579
93823SOL    HW283303  13.348   6.303   7.659
93824SOL     OW83304   3.158   2.425  13.550
93824SOL    HW183305   3.220   2.352  13.543
93824SOL    HW283306   3.072   2.385  13.533
93825SOL     OW83307   7.751   0.942  13.710
93825SOL    HW183308   7.666   0.985  13.721
93825SOL    HW283309   7.753   0.916  13.618
93826SOL     OW83310   6.455  14.466  10.572
93826SOL    HW183311   6.367  14.503  10.569
93826SOL    HW283312   6.440  14.372  10.583
93827SOL     OW83313   3.157   4.035   1.949
93827SOL    HW183314   3.167   3.952   1.902
93827SOL    HW283315   3.246   4.057   1.978
93828SOL     OW83316   4.012   1.748  12.812
93828SOL    HW183317   3.967   1.832  12.801
93828SOL    HW283318   4.095   1.771  12.853
93829SOL     OW83319   9.260   9.258   1.143
93829SOL    HW183320   9.261   9.233   1.051
93829SOL    HW283321   9.320   9.198   1.185
93830SOL     OW83322   8.716   4.687   8.190
93830SOL    HW183323   8.784   4.627   8.221
93830SOL    HW283324   8.760   4.741   8.124
93831SOL     OW83325   7.362   4.435  12.332
93831SOL    HW183326   7.406   4.437  12.247
93831SOL    HW283327   7.430   4.409  12.393
93832SOL     OW83328   1.512   5.224   1.364
93832SOL    HW183329   1.563   5.278   1.303
93832SOL    HW283330   1.575   5.197   1.431
93833SOL     OW83331  14.125   8.614   3.223
93833SOL    HW183332  14.045   8.562   3.224
93833SOL    HW283333  14.117   8.672   3.299
93834SOL     OW83334  12.838   2.277   6.905
93834SOL    HW183335  12.847   2.282   6.810
93834SOL    HW283336  12.874   2.191   6.928
93835SOL     OW83337   7.270   0.841   5.725
93835SOL    HW183338   7.199   0.851   5.662
93835SOL    HW283339   7.226   0.830   5.809
93836SOL     OW83340   7.523  14.380   6.300
93836SOL    HW183341   7.578  14.384   6.222
93836SOL    HW283342   7.567  14.437   6.363
93837SOL     OW83343   6.428   6.819   8.836
93837SOL    HW183344   6.377   6.885   8.883
93837SOL    HW283345   6.430   6.744   8.895
93838SOL     OW83346   9.399   7.619   2.214
93838SOL    HW183347   9.307   7.593   2.218
93838SOL    HW283348   9.447   7.537   2.202
93839SOL     OW83349  14.635  13.351  11.457
93839SOL    HW183350  14.632  13.301  11.376
93839SOL    HW283351  14.614  13.441  11.431
93840SOL     OW83352  12.333   0.109  14.600
93840SOL    HW183353  12.294   0.053  14.667
93840SOL    HW283354  12.265   0.118  14.533
93841SOL     OW83355  12.721  12.059   2.483
93841SOL    HW183356  12.629  12.035   2.484
93841SOL    HW283357  12.768  11.978   2.464
93842SOL     OW83358   2.956   3.531  14.240
93842SOL    HW183359   2.976   3.481  14.160
93842SOL    HW283360   2.903   3.604  14.209
93843SOL     OW83361   4.166   5.060  10.093
93843SOL    HW183362   4.164   5.042  10.187
93843SOL    HW283363   4.257   5.082  10.074
93844SOL     OW83364  14.666  13.070   4.981
93844SOL    HW183365  14.663  13.151   4.930
93844SOL    HW283366  14.617  13.007   4.930
93845SOL     OW83367   2.823   3.088   3.200
93845SOL    HW183368   2.841   3.136   3.281
93845SOL    HW283369   2.732   3.109   3.180
93846SOL     OW83370  11.678   2.675   8.358
93846SOL    HW183371  11.673   2.686   8.263
93846SOL    HW283372  11.598   2.716   8.391
93847SOL     OW83373   6.884   8.295   4.129
93847SOL    HW183374   6.849   8.209   4.151
93847SOL    HW283375   6.810   8.340   4.087
93848SOL     OW83376  12.381   6.153   9.315
93848SOL    HW183377  12.461   6.203   9.332
93848SOL    HW283378  12.385   6.132   9.222
93849SOL     OW83379  12.871   2.093  11.828
93849SOL    HW183380  12.894   2.165  11.887
93849SOL    HW283381  12.803   2.129  11.771
93850SOL     OW83382   8.163   7.771   4.438
93850SOL    HW183383   8.200   7.705   4.379
93850SOL    HW283384   8.118   7.720   4.505
93851SOL     OW83385   2.052  12.723   3.079
93851SOL    HW183386   2.137  12.682   3.100
93851SOL    HW283387   2.023  12.760   3.163
93852SOL     OW83388   0.661  13.754   6.892
93852SOL    HW183389   0.604  13.705   6.832
93852SOL    HW283390   0.609  13.765   6.971
93853SOL     OW83391  12.918   8.648   2.925
93853SOL    HW183392  12.833   8.641   2.881
93853SOL    HW283393  12.956   8.560   2.919
93854SOL     OW83394   8.693   8.850   2.299
93854SOL    HW183395   8.724   8.940   2.293
93854SOL    HW283396   8.640   8.848   2.379
93855SOL     OW83397   0.243   3.113   5.713
93855SOL    HW183398   0.299   3.041   5.683
93855SOL    HW283399   0.248   3.177   5.643
93856SOL     OW83400   8.007   9.635   8.824
93856SOL    HW183401   7.946   9.657   8.753
93856SOL    HW283402   7.973   9.682   8.900
93857SOL     OW83403   5.318   0.422  13.638
93857SOL    HW183404   5.340   0.365  13.712
93857SOL    HW283405   5.224   0.406  13.623
93858SOL     OW83406   7.754   5.675  10.671
93858SOL    HW183407   7.765   5.727  10.751
93858SOL    HW283408   7.664   5.692  10.644
93859SOL     OW83409   3.251   0.214  11.061
93859SOL    HW183410   3.188   0.200  11.131
93859SOL    HW283411   3.207   0.182  10.982
93860SOL     OW83412   3.969  10.494  14.732
93860SOL    HW183413   4.033  10.496  14.803
93860SOL    HW283414   3.903  10.559  14.757
93861SOL     OW83415  13.948  13.838  10.149
93861SOL    HW183416  13.926  13.925  10.183
93861SOL    HW283417  13.892  13.778  10.198
93862SOL     OW83418   0.559   7.746   4.150
93862SOL    HW183419   0.635   7.694   4.124
93862SOL    HW283420   0.514   7.692   4.214
93863SOL     OW83421   5.060  13.035  12.405
93863SOL    HW183422   5.155  13.028  12.404
93863SOL    HW283423   5.033  12.991  12.485
93864SOL     OW83424   6.851  11.516   3.331
93864SOL    HW183425   6.812  11.572   3.264
93864SOL    HW283426   6.910  11.575   3.379
93865SOL     OW83427  13.972  13.124  10.701
93865SOL    HW183428  14.019  13.083  10.774
93865SOL    HW283429  14.040  13.171  10.652
93866SOL     OW83430   1.735  12.366  12.136
93866SOL    HW183431   1.689  12.394  12.057
93866SOL    HW283432   1.724  12.271  12.137
93867SOL     OW83433   9.117  10.790   4.524
93867SOL    HW183434   9.054  10.845   4.477
93867SOL    HW283435   9.202  10.811   4.485
93868SOL     OW83436   3.385  11.126   2.465
93868SOL    HW183437   3.403  11.032   2.466
93868SOL    HW283438   3.446  11.163   2.528
93869SOL     OW83439   3.296   2.499  12.295
93869SOL    HW183440   3.295   2.467  12.204
93869SOL    HW283441   3.356   2.573  12.294
93870SOL     OW83442   7.232   6.343   2.242
93870SOL    HW183443   7.155   6.389   2.274
93870SOL    HW283444   7.265   6.397   2.170
93871SOL     OW83445   1.863   4.527   6.884
93871SOL    HW183446   1.804   4.595   6.851
93871SOL    HW283447   1.809   4.448   6.888
93872SOL     OW83448   7.505   1.890   7.014
93872SOL    HW183449   7.600   1.884   7.026
93872SOL    HW283450   7.469   1.859   7.097
93873SOL     OW83451  12.633   2.160   5.623
93873SOL    HW183452  12.650   2.083   5.568
93873SOL    HW283453  12.613   2.229   5.561
93874SOL     OW83454   1.772   9.919  12.684
93874SOL    HW183455   1.798   9.882  12.768
93874SOL    HW283456   1.852   9.917  12.631
93875SOL     OW83457   3.678   6.406  13.560
93875SOL    HW183458   3.760   6.408  13.511
93875SOL    HW283459   3.705   6.384  13.650
93876SOL     OW83460   6.167   7.147   4.911
93876SOL    HW183461   6.163   7.242   4.924
93876SOL    HW283462   6.143   7.110   4.996
93877SOL     OW83463   1.126   5.650  10.459
93877SOL    HW183464   1.069   5.686  10.527
93877SOL    HW283465   1.134   5.557  10.481
93878SOL     OW83466   3.567  14.496   8.132
93878SOL    HW183467   3.503  14.522   8.066
93878SOL    HW283468   3.568  14.568   8.195
93879SOL     OW83469   7.149   2.898   7.050
93879SOL    HW183470   7.128   2.849   7.129
93879SOL    HW283471   7.184   2.833   6.990
93880SOL     OW83472   1.813   7.371   7.517
93880SOL    HW183473   1.761   7.342   7.591
93880SOL    HW283474   1.757   7.358   7.441
93881SOL     OW83475   8.916  13.985   0.879
93881SOL    HW183476   8.989  14.039   0.909
93881SOL    HW283477   8.842  14.011   0.933
93882SOL     OW83478   0.652   5.029  14.786
93882SOL    HW183479   0.681   5.027  14.695
93882SOL    HW283480   0.586   5.098  14.789
93883SOL     OW83481   1.110   9.211  13.340
93883SOL    HW183482   1.125   9.251  13.254
93883SOL    HW283483   1.048   9.269  13.384
93884SOL     OW83484   0.413  14.388   4.074
93884SOL    HW183485   0.467  14.467   4.073
93884SOL    HW283486   0.469  14.321   4.112
93885SOL     OW83487   9.803   5.042   7.755
93885SOL    HW183488   9.883   5.016   7.802
93885SOL    HW283489   9.781   4.965   7.702
93886SOL     OW83490   5.903   2.393   3.724
93886SOL    HW183491   5.955   2.438   3.657
93886SOL    HW283492   5.813   2.415   3.702
93887SOL     OW83493   5.942   0.373   7.549
93887SOL    HW183494   5.888   0.297   7.570
93887SOL    HW283495   6.008   0.374   7.619
93888SOL     OW83496  12.305  10.974  12.534
93888SOL    HW183497  12.243  10.942  12.468
93888SOL    HW283498  12.285  10.924  12.613
93889SOL     OW83499   5.318   6.999   2.382
93889SOL    HW183500   5.336   7.054   2.306
93889SOL    HW283501   5.309   6.911   2.347
93890SOL     OW83502   8.385  10.363   8.505
93890SOL    HW183503   8.460  10.327   8.457
93890SOL    HW283504   8.385  10.315   8.588
93891SOL     OW83505   9.882   4.489  11.150
93891SOL    HW183506   9.946   4.425  11.180
93891SOL    HW283507   9.887   4.559  11.216
93892SOL     OW83508   6.948  14.561   6.886
93892SOL    HW183509   7.010  14.489   6.875
93892SOL    HW283510   7.002  14.638   6.903
93893SOL     OW83511  14.120   0.597   0.303
93893SOL    HW183512  14.039   0.571   0.347
93893SOL    HW283513  14.170   0.516   0.294
93894SOL     OW83514  12.273  12.631   9.913
93894SOL    HW183515  12.232  12.545   9.912
93894SOL    HW283516  12.342  12.624   9.979
93895SOL     OW83517   4.117   3.864   2.294
93895SOL    HW183518   4.196   3.873   2.241
93895SOL    HW283519   4.070   3.946   2.281
93896SOL     OW83520   5.539   6.902   5.586
93896SOL    HW183521   5.557   6.935   5.498
93896SOL    HW283522   5.462   6.951   5.615
93897SOL     OW83523   3.561   9.372   6.756
93897SOL    HW183524   3.641   9.355   6.707
93897SOL    HW283525   3.546   9.466   6.745
93898SOL     OW83526   8.060   3.418   5.044
93898SOL    HW183527   8.045   3.462   4.960
93898SOL    HW283528   8.130   3.469   5.086
93899SOL     OW83529   0.994  11.605  12.941
93899SOL    HW183530   0.930  11.659  12.895
93899SOL    HW283531   0.997  11.524  12.892
93900SOL     OW83532   7.244   3.580   3.428
93900SOL    HW183533   7.201   3.623   3.354
93900SOL    HW283534   7.335   3.610   3.423
93901SOL     OW83535   3.900   0.807   6.180
93901SOL    HW183536   3.852   0.885   6.208
93901SOL    HW283537   3.937   0.831   6.095
93902SOL     OW83538  13.463  13.409  12.561
93902SOL    HW183539  13.475  13.472  12.632
93902SOL    HW283540  13.489  13.457  12.482
93903SOL     OW83541   6.631   2.704   6.161
93903SOL    HW183542   6.631   2.608   6.171
93903SOL    HW283543   6.642   2.737   6.250
93904SOL     OW83544   8.465  11.793   6.078
93904SOL    HW183545   8.461  11.711   6.028
93904SOL    HW283546   8.373  11.816   6.093
93905SOL     OW83547   3.643   9.070   6.492
93905SOL    HW183548   3.698   8.994   6.512
93905SOL    HW283549   3.607   9.051   6.405
93906SOL     OW83550  13.744  14.313  11.621
93906SOL    HW183551  13.817  14.337  11.678
93906SOL    HW283552  13.705  14.236  11.663
93907SOL     OW83553   7.916   4.274   7.448
93907SOL    HW183554   7.945   4.280   7.357
93907SOL    HW283555   7.957   4.194   7.481
93908SOL     OW83556  11.172  13.823   1.243
93908SOL    HW183557  11.157  13.869   1.326
93908SOL    HW283558  11.258  13.854   1.214
93909SOL     OW83559   4.842   4.234   6.549
93909SOL    HW183560   4.753   4.215   6.521
93909SOL    HW283561   4.866   4.313   6.502
93910SOL     OW83562   1.066   2.683   7.011
93910SOL    HW183563   0.985   2.675   7.061
93910SOL    HW283564   1.038   2.714   6.924
93911SOL     OW83565  11.738  13.586   1.117
93911SOL    HW183566  11.725  13.499   1.079
93911SOL    HW283567  11.719  13.647   1.046
93912SOL     OW83568  10.940  13.487   1.020
93912SOL    HW183569  10.937  13.535   1.103
93912SOL    HW283570  10.953  13.555   0.953
93913SOL     OW83571   3.144  13.404   1.741
93913SOL    HW183572   3.183  13.334   1.689
93913SOL    HW283573   3.214  13.433   1.799
93914SOL     OW83574   4.700  11.982   0.184
93914SOL    HW183575   4.764  12.051   0.166
93914SOL    HW283576   4.645  12.018   0.254
93915SOL     OW83577   5.006  14.641   4.511
93915SOL    HW183578   4.967  14.694   4.581
93915SOL    HW283579   5.042  14.565   4.556
93916SOL     OW83580   4.507  10.666   5.737
93916SOL    HW183581   4.517  10.756   5.770
93916SOL    HW283582   4.596  10.630   5.741
93917SOL     OW83583  11.115  12.490  13.311
93917SOL    HW183584  11.072  12.560  13.262
93917SOL    HW283585  11.207  12.518  13.317
93918SOL     OW83586  12.809   8.031  10.477
93918SOL    HW183587  12.873   8.035  10.549
93918SOL    HW283588  12.725   8.051  10.518
93919SOL     OW83589   6.740   9.961   7.965
93919SOL    HW183590   6.795   9.904   8.019
93919SOL    HW283591   6.715   9.907   7.890
93920SOL     OW83592   7.810  13.120   5.640
93920SOL    HW183593   7.757  13.159   5.570
93920SOL    HW283594   7.890  13.172   5.641
93921SOL     OW83595   8.791  11.705   3.121
93921SOL    HW183596   8.773  11.641   3.052
93921SOL    HW283597   8.708  11.751   3.132
93922SOL     OW83598   3.125   3.708  11.998
93922SOL    HW183599   3.048   3.747  12.040
93922SOL    HW283600   3.101   3.617  11.981
93923SOL     OW83601   4.589   6.829  14.298
93923SOL    HW183602   4.653   6.860  14.362
93923SOL    HW283603   4.639   6.817  14.217
93924SOL     OW83604  10.703  10.269  11.523
93924SOL    HW183605  10.678  10.194  11.577
93924SOL    HW283606  10.768  10.233  11.462
93925SOL     OW83607  10.040  13.928   3.406
93925SOL    HW183608  10.045  13.847   3.458
93925SOL    HW283609   9.988  13.988   3.460
93926SOL     OW83610  10.588   3.946   5.153
93926SOL    HW183611  10.653   3.940   5.083
93926SOL    HW283612  10.567   3.854   5.172
93927SOL     OW83613  11.218  14.181   1.317
93927SOL    HW183614  11.229  14.266   1.357
93927SOL    HW283615  11.134  14.149   1.351
93928SOL     OW83616   3.310   1.813   9.345
93928SOL    HW183617   3.317   1.880   9.413
93928SOL    HW283618   3.307   1.862   9.263
93929SOL     OW83619   6.172   7.988  10.766
93929SOL    HW183620   6.233   7.916  10.748
93929SOL    HW283621   6.102   7.948  10.817
93930SOL     OW83622   9.116  12.756   4.726
93930SOL    HW183623   9.069  12.831   4.762
93930SOL    HW283624   9.082  12.681   4.774
93931SOL     OW83625   2.643   3.578   8.686
93931SOL    HW183626   2.557   3.542   8.665
93931SOL    HW283627   2.628   3.634   8.762
93932SOL     OW83628  14.536   9.249  11.661
93932SOL    HW183629  14.605   9.192  11.628
93932SOL    HW283630  14.534   9.232  11.755
93933SOL     OW83631   5.204  10.337   2.717
93933SOL    HW183632   5.141  10.407   2.698
93933SOL    HW283633   5.280  10.357   2.662
93934SOL     OW83634  12.844  11.838  14.719
93934SOL    HW183635  12.899  11.910  14.687
93934SOL    HW283636  12.773  11.832  14.655
93935SOL     OW83637   0.334   0.379   7.094
93935SOL    HW183638   0.389   0.411   7.022
93935SOL    HW283639   0.253   0.351   7.051
93936SOL     OW83640   5.786   7.776  10.556
93936SOL    HW183641   5.754   7.866  10.560
93936SOL    HW283642   5.723   7.726  10.610
93937SOL     OW83643   6.695  12.148   2.357
93937SOL    HW183644   6.685  12.063   2.314
93937SOL    HW283645   6.610  12.164   2.399
93938SOL     OW83646  13.203   2.082   8.367
93938SOL    HW183647  13.245   1.996   8.372
93938SOL    HW283648  13.231   2.128   8.446
93939SOL     OW83649   8.993   4.059   6.275
93939SOL    HW183650   9.058   4.129   6.286
93939SOL    HW283651   8.995   4.040   6.181
93940SOL     OW83652   0.707  12.741   8.953
93940SOL    HW183653   0.617  12.731   8.922
93940SOL    HW283654   0.756  12.671   8.910
93941SOL     OW83655  12.626   4.406  12.018
93941SOL    HW183656  12.531   4.414  12.027
93941SOL    HW283657  12.643   4.421  11.925
93942SOL     OW83658   0.081  13.372   3.953
93942SOL    HW183659   0.065  13.460   3.987
93942SOL    HW283660   0.175  13.369   3.938
93943SOL     OW83661   5.330  14.846  11.344
93943SOL    HW183662   5.393   0.039  11.354
93943SOL    HW283663   5.350  14.787  11.417
93944SOL     OW83664   7.630   6.624   0.905
93944SOL    HW183665   7.635   6.531   0.927
93944SOL    HW283666   7.716   6.644   0.867
93945SOL     OW83667  10.990   2.811  13.395
93945SOL    HW183668  11.033   2.852  13.470
93945SOL    HW283669  11.011   2.868  13.321
93946SOL     OW83670   2.275   6.053   0.795
93946SOL    HW183671   2.201   6.108   0.770
93946SOL    HW283672   2.286   6.068   0.889
93947SOL     OW83673   3.798   8.500  12.875
93947SOL    HW183674   3.823   8.449  12.798
93947SOL    HW283675   3.880   8.535  12.909
93948SOL     OW83676   1.409   1.488   6.581
93948SOL    HW183677   1.390   1.563   6.637
93948SOL    HW283678   1.464   1.431   6.635
93949SOL     OW83679   5.880   0.355   3.265
93949SOL    HW183680   5.908   0.418   3.331
93949SOL    HW283681   5.788   0.374   3.251
93950SOL     OW83682  10.889  13.272  12.580
93950SOL    HW183683  10.898  13.211  12.507
93950SOL    HW283684  10.943  13.347  12.556
93951SOL     OW83685  12.120   9.841  13.814
93951SOL    HW183686  12.044   9.865  13.761
93951SOL    HW283687  12.123   9.907  13.883
93952SOL     OW83688   4.892  11.192   6.271
93952SOL    HW183689   4.823  11.127   6.287
93952SOL    HW283690   4.943  11.156   6.198
93953SOL     OW83691   6.695  13.027  12.663
93953SOL    HW183692   6.753  12.983  12.600
93953SOL    HW283693   6.609  12.989  12.647
93954SOL     OW83694   5.437   1.693   0.955
93954SOL    HW183695   5.524   1.675   0.921
93954SOL    HW283696   5.407   1.609   0.990
93955SOL     OW83697   4.512  12.492  12.468
93955SOL    HW183698   4.524  12.521  12.378
93955SOL    HW283699   4.531  12.398  12.466
93956SOL     OW83700   2.414   6.595   3.947
93956SOL    HW183701   2.406   6.626   3.857
93956SOL    HW283702   2.497   6.631   3.978
93957SOL     OW83703   8.449  14.130   3.638
93957SOL    HW183704   8.401  14.118   3.556
93957SOL    HW283705   8.435  14.048   3.686
93958SOL     OW83706  10.581   4.482   0.754
93958SOL    HW183707  10.588   4.434   0.671
93958SOL    HW283708  10.497   4.455   0.790
93959SOL     OW83709  12.181   9.872   5.928
93959SOL    HW183710  12.099   9.888   5.880
93959SOL    HW283711  12.231   9.813   5.872
93960SOL     OW83712   7.869   0.626  12.898
93960SOL    HW183713   7.855   0.634  12.804
93960SOL    HW283714   7.869   0.532  12.915
93961SOL     OW83715   9.424   7.556  11.332
93961SOL    HW183716   9.466   7.530  11.251
93961SOL    HW283717   9.494   7.556  11.397
93962SOL     OW83718  12.515   8.221   9.623
93962SOL    HW183719  12.453   8.224   9.550
93962SOL    HW283720  12.461   8.231   9.701
93963SOL     OW83721  14.215   6.171   2.973
93963SOL    HW183722  14.295   6.120   2.984
93963SOL    HW283723  14.146   6.106   2.960
93964SOL     OW83724  14.614  13.852  11.688
93964SOL    HW183725  14.632  13.899  11.770
93964SOL    HW283726  14.700  13.817  11.662
93965SOL     OW83727   2.357  14.616   0.453
93965SOL    HW183728   2.366  14.635   0.547
93965SOL    HW283729   2.275  14.568   0.446
93966SOL     OW83730   2.161   7.254   9.189
93966SOL    HW183731   2.177   7.187   9.257
93966SOL    HW283732   2.209   7.331   9.220
93967SOL     OW83733   4.353   1.781   6.518
93967SOL    HW183734   4.378   1.792   6.426
93967SOL    HW283735   4.375   1.865   6.559
93968SOL     OW83736  14.176   6.355  13.153
93968SOL    HW183737  14.203   6.320  13.238
93968SOL    HW283738  14.218   6.440  13.147
93969SOL     OW83739   5.672  14.038   2.781
93969SOL    HW183740   5.685  13.969   2.716
93969SOL    HW283741   5.577  14.053   2.782
93970SOL     OW83742   8.104  14.473  14.822
93970SOL    HW183743   8.052  14.473  14.742
93970SOL    HW283744   8.093  14.560  14.859
93971SOL     OW83745  12.243   6.159   4.327
93971SOL    HW183746  12.189   6.225   4.370
93971SOL    HW283747  12.328   6.163   4.372
93972SOL     OW83748   8.292   1.846  14.833
93972SOL    HW183749   8.387   1.834  14.834
93972SOL    HW283750   8.269   1.846  14.740
93973SOL     OW83751   6.446  11.028  12.297
93973SOL    HW183752   6.498  10.950  12.318
93973SOL    HW283753   6.361  10.993  12.272
93974SOL     OW83754  14.847  10.619   1.301
93974SOL    HW183755   0.031  10.687   1.276
93974SOL    HW283756   0.022  10.552   1.344
93975SOL     OW83757  11.965  10.427   0.543
93975SOL    HW183758  12.013  10.493   0.492
93975SOL    HW283759  11.954  10.467   0.629
93976SOL     OW83760   9.284   1.428   6.975
93976SOL    HW183761   9.264   1.449   6.884
93976SOL    HW283762   9.259   1.337   6.985
93977SOL     OW83763   8.913   8.394   1.423
93977SOL    HW183764   8.996   8.425   1.387
93977SOL    HW283765   8.919   8.298   1.418
93978SOL     OW83766   7.820   9.838   8.161
93978SOL    HW183767   7.914   9.837   8.179
93978SOL    HW283768   7.812   9.880   8.075
93979SOL     OW83769   7.912   4.817  14.818
93979SOL    HW183770   7.965   4.789   0.013
93979SOL    HW283771   7.918   4.744  14.756
93980SOL     OW83772   9.926   8.640   2.327
93980SOL    HW183773   9.875   8.594   2.393
93980SOL    HW283774   9.861   8.682   2.270
93981SOL     OW83775   6.630   9.577   6.656
93981SOL    HW183776   6.663   9.643   6.718
93981SOL    HW283777   6.544   9.610   6.629
93982SOL     OW83778   5.620  10.191  11.806
93982SOL    HW183779   5.573  10.109  11.788
93982SOL    HW283780   5.707  10.177  11.769
93983SOL     OW83781   8.008  12.889  13.729
93983SOL    HW183782   7.923  12.898  13.685
93983SOL    HW283783   7.987  12.889  13.822
93984SOL     OW83784   7.107   3.715   3.257
93984SOL    HW183785   7.072   3.696   3.170
93984SOL    HW283786   7.134   3.807   3.252
93985SOL     OW83787   2.719  14.410   9.746
93985SOL    HW183788   2.787  14.419   9.813
93985SOL    HW283789   2.659  14.345   9.782
93986SOL     OW83790   1.966   2.829   2.159
93986SOL    HW183791   1.878   2.864   2.148
93986SOL    HW283792   1.967   2.747   2.109
93987SOL     OW83793  14.124  14.575  14.091
93987SOL    HW183794  14.137  14.574  14.185
93987SOL    HW283795  14.044  14.627  14.078
93988SOL     OW83796   2.906   3.412  13.672
93988SOL    HW183797   2.947   3.473  13.733
93988SOL    HW283798   2.977   3.353  13.645
93989SOL     OW83799  14.767   0.214   6.399
93989SOL    HW183800  14.763   0.150   6.328
93989SOL    HW283801  14.677   0.219   6.432
93990SOL     OW83802   3.338   2.728   1.275
93990SOL    HW183803   3.431   2.718   1.253
93990SOL    HW283804   3.331   2.690   1.363
93991SOL     OW83805   1.421  12.192   5.178
93991SOL    HW183806   1.404  12.158   5.266
93991SOL    HW283807   1.402  12.285   5.183
93992SOL     OW83808   7.185  10.981   1.433
93992SOL    HW183809   7.243  10.920   1.387
93992SOL    HW283810   7.221  11.067   1.414
93993SOL     OW83811  12.992   7.562   5.394
93993SOL    HW183812  13.080   7.597   5.405
93993SOL    HW283813  12.946   7.588   5.474
93994SOL     OW83814   0.945   5.888   1.879
93994SOL    HW183815   0.960   5.794   1.887
93994SOL    HW283816   1.032   5.926   1.864
93995SOL     OW83817   5.852   9.533   3.167
93995SOL    HW183818   5.933   9.481   3.170
93995SOL    HW283819   5.882   9.623   3.175
93996SOL     OW83820   5.423  10.326   1.676
93996SOL    HW183821   5.479  10.402   1.663
93996SOL    HW283822   5.475  10.268   1.732
93997SOL     OW83823   1.049   0.980   1.876
93997SOL    HW183824   1.128   1.004   1.925
93997SOL    HW283825   1.025   1.059   1.829
93998SOL     OW83826   2.476  11.502   7.338
93998SOL    HW183827   2.551  11.550   7.301
93998SOL    HW283828   2.463  11.542   7.424
93999SOL     OW83829   6.245   5.055  11.810
93999SOL    HW183830   6.271   4.998  11.737
93999SOL    HW283831   6.157   5.024  11.834
94000SOL     OW83832   7.984  14.402   6.524
94000SOL    HW183833   8.074  14.400   6.492
94000SOL    HW283834   7.972  14.492   6.554
94001SOL     OW83835  10.933   5.355   0.135
94001SOL    HW183836  10.988   5.317   0.203
94001SOL    HW283837  10.978   5.334   0.053
94002SOL     OW83838  12.394  10.777   4.973
94002SOL    HW183839  12.320  10.720   4.951
94002SOL    HW283840  12.410  10.827   4.894
94003SOL     OW83841   2.673  12.803   7.988
94003SOL    HW183842   2.671  12.884   8.039
94003SOL    HW283843   2.714  12.828   7.905
94004SOL     OW83844  14.454   6.471  11.195
94004SOL    HW183845  14.507   6.535  11.147
94004SOL    HW283846  14.399   6.524  11.252
94005SOL     OW83847  11.700   2.006   2.021
94005SOL    HW183848  11.671   1.937   2.080
94005SOL    HW283849  11.620   2.038   1.979
94006SOL     OW83850  12.285  11.633   5.433
94006SOL    HW183851  12.320  11.692   5.498
94006SOL    HW283852  12.294  11.679   5.350
94007SOL     OW83853   0.548   8.772  10.674
94007SOL    HW183854   0.621   8.802  10.619
94007SOL    HW283855   0.501   8.710  10.619
94008SOL     OW83856   5.595   9.665   2.359
94008SOL    HW183857   5.624   9.733   2.298
94008SOL    HW283858   5.676   9.625   2.391
94009SOL     OW83859   6.160   3.746   4.272
94009SOL    HW183860   6.213   3.671   4.246
94009SOL    HW283861   6.072   3.726   4.239
94010SOL     OW83862  13.657   6.609  10.893
94010SOL    HW183863  13.719   6.551  10.848
94010SOL    HW283864  13.583   6.553  10.915
94011SOL     OW83865  14.370   8.441   7.717
94011SOL    HW183866  14.328   8.469   7.635
94011SOL    HW283867  14.453   8.402   7.689
94012SOL     OW83868  12.247   5.224  14.525
94012SOL    HW183869  12.198   5.218  14.443
94012SOL    HW283870  12.193   5.279  14.582
94013SOL     OW83871   9.609  13.395  10.245
94013SOL    HW183872   9.631  13.450  10.320
94013SOL    HW283873   9.538  13.441  10.201
94014SOL     OW83874  13.091  12.609   4.483
94014SOL    HW183875  13.059  12.680   4.428
94014SOL    HW283876  13.019  12.546   4.486
94015SOL     OW83877   4.913   9.173   0.004
94015SOL    HW183878   4.967   9.097   0.029
94015SOL    HW283879   4.973   9.248   0.013
94016SOL     OW83880  12.391   0.125   1.395
94016SOL    HW183881  12.442   0.152   1.319
94016SOL    HW283882  12.375   0.032   1.382
94017SOL     OW83883   9.649   0.204  10.976
94017SOL    HW183884   9.569   0.254  10.963
94017SOL    HW283885   9.626   0.138  11.042
94018SOL     OW83886  11.998   3.071  10.604
94018SOL    HW183887  12.005   3.100  10.695
94018SOL    HW283888  11.972   3.150  10.556
94019SOL     OW83889   4.685  10.220   9.726
94019SOL    HW183890   4.725  10.189   9.808
94019SOL    HW283891   4.749  10.282   9.691
94020SOL     OW83892   7.016   8.306  11.686
94020SOL    HW183893   7.096   8.358  11.697
94020SOL    HW283894   7.011   8.288  11.592
94021SOL     OW83895  10.087  14.687   8.328
94021SOL    HW183896  10.164  14.630   8.339
94021SOL    HW283897  10.108  14.741   8.252
94022SOL     OW83898   8.588   1.814  11.267
94022SOL    HW183899   8.631   1.863  11.337
94022SOL    HW283900   8.605   1.865  11.188
94023SOL     OW83901   2.122   8.579  10.328
94023SOL    HW183902   2.074   8.549  10.251
94023SOL    HW283903   2.112   8.509  10.393
94024SOL     OW83904  11.271   2.497   3.613
94024SOL    HW183905  11.282   2.507   3.518
94024SOL    HW283906  11.191   2.545   3.633
94025SOL     OW83907   3.367   1.589  10.917
94025SOL    HW183908   3.443   1.637  10.885
94025SOL    HW283909   3.295   1.653  10.915
94026SOL     OW83910  10.937   0.430  12.458
94026SOL    HW183911  11.001   0.359  12.468
94026SOL    HW283912  10.866   0.390  12.408
94027SOL     OW83913   6.450   3.743  10.344
94027SOL    HW183914   6.412   3.758  10.258
94027SOL    HW283915   6.470   3.649  10.345
94028SOL     OW83916  13.359   1.087   7.099
94028SOL    HW183917  13.330   1.140   7.025
94028SOL    HW283918  13.299   1.012   7.099
94029SOL     OW83919   6.311  11.073   2.125
94029SOL    HW183920   6.264  11.065   2.208
94029SOL    HW283921   6.329  11.166   2.117
94030SOL     OW83922   2.057   3.061  14.794
94030SOL    HW183923   1.983   3.116  14.821
94030SOL    HW283924   2.102   3.040  14.876
94031SOL     OW83925   0.186   9.181   4.564
94031SOL    HW183926   0.273   9.222   4.565
94031SOL    HW283927   0.136   9.234   4.502
94032SOL     OW83928   4.465  10.654   6.020
94032SOL    HW183929   4.401  10.628   6.086
94032SOL    HW283930   4.438  10.607   5.941
94033SOL     OW83931  11.548   6.317   8.600
94033SOL    HW183932  11.494   6.317   8.680
94033SOL    HW283933  11.624   6.369   8.623
94034SOL     OW83934  11.212   2.530  13.202
94034SOL    HW183935  11.210   2.594  13.131
94034SOL    HW283936  11.130   2.481  13.194
94035SOL     OW83937   7.822  13.670   7.270
94035SOL    HW183938   7.820  13.660   7.366
94035SOL    HW283939   7.816  13.764   7.255
94036SOL     OW83940   9.965  10.852  14.809
94036SOL    HW183941   9.990  10.763  14.785
94036SOL    HW283942   9.874  10.860  14.780
94037SOL     OW83943   6.593   9.117  12.236
94037SOL    HW183944   6.544   9.181  12.184
94037SOL    HW283945   6.527   9.073  12.289
94038SOL     OW83946  12.105  14.291   3.407
94038SOL    HW183947  12.163  14.223   3.439
94038SOL    HW283948  12.157  14.338   3.341
94039SOL     OW83949   2.370  13.419  12.382
94039SOL    HW183950   2.313  13.433  12.306
94039SOL    HW283951   2.453  13.391  12.344
94040SOL     OW83952   1.967   2.860   8.136
94040SOL    HW183953   2.051   2.816   8.123
94040SOL    HW283954   1.980   2.912   8.215
94041SOL     OW83955  14.634   7.180   4.370
94041SOL    HW183956  14.549   7.214   4.396
94041SOL    HW283957  14.687   7.184   4.450
94042SOL     OW83958  10.995   9.576   4.820
94042SOL    HW183959  11.033   9.660   4.844
94042SOL    HW283960  10.986   9.529   4.903
94043SOL     OW83961   0.957  12.196  10.482
94043SOL    HW183962   0.954  12.229  10.393
94043SOL    HW283963   0.893  12.124  10.483
94044SOL     OW83964  10.463   3.025  13.737
94044SOL    HW183965  10.415   3.059  13.662
94044SOL    HW283966  10.545   2.993  13.701
94045SOL     OW83967   8.551   4.738   0.449
94045SOL    HW183968   8.538   4.826   0.414
94045SOL    HW283969   8.513   4.680   0.383
94046SOL     OW83970   2.934   6.595   3.997
94046SOL    HW183971   3.003   6.534   3.974
94046SOL    HW283972   2.914   6.641   3.915
94047SOL     OW83973   9.408   7.473   5.570
94047SOL    HW183974   9.377   7.420   5.644
94047SOL    HW283975   9.402   7.563   5.601
94048SOL     OW83976   3.717   5.275   6.440
94048SOL    HW183977   3.809   5.290   6.419
94048SOL    HW283978   3.673   5.354   6.409
94049SOL     OW83979   4.029   2.860  12.957
94049SOL    HW183980   4.015   2.848  12.863
94049SOL    HW283981   3.942   2.876  12.993
94050SOL     OW83982   1.396  14.814  12.574
94050SOL    HW183983   1.311  14.836  12.536
94050SOL    HW283984   1.386  14.833  12.667
94051SOL     OW83985   2.207  12.168  14.343
94051SOL    HW183986   2.232  12.252  14.381
94051SOL    HW283987   2.290  12.124  14.326
94052SOL     OW83988   3.080   3.872   5.190
94052SOL    HW183989   3.085   3.861   5.095
94052SOL    HW283990   3.001   3.825   5.216
94053SOL     OW83991   1.675  13.495   5.070
94053SOL    HW183992   1.702  13.404   5.079
94053SOL    HW283993   1.658  13.525   5.159
94054SOL     OW83994  10.631  13.129   8.593
94054SOL    HW183995  10.681  13.198   8.550
94054SOL    HW283996  10.627  13.059   8.528
94055SOL     OW83997  10.827   4.567   5.179
94055SOL    HW183998  10.827   4.659   5.153
94055SOL    HW283999  10.919   4.540   5.174
94056SOL     OW84000   9.890   6.334  11.676
94056SOL    HW184001   9.945   6.323  11.599
94056SOL    HW284002   9.832   6.257  11.676
94057SOL     OW84003   9.563   5.455   7.555
94057SOL    HW184004   9.551   5.544   7.520
94057SOL    HW284005   9.622   5.466   7.629
94058SOL     OW84006   0.235   0.329   5.035
94058SOL    HW184007   0.245   0.269   4.961
94058SOL    HW284008   0.141   0.342   5.044
94059SOL     OW84009   7.019   0.103   9.568
94059SOL    HW184010   6.954   0.169   9.545
94059SOL    HW284011   7.043   0.062   9.485
94060SOL     OW84012  11.543   0.364  11.268
94060SOL    HW184013  11.494   0.424  11.324
94060SOL    HW284014  11.485   0.346  11.194
94061SOL     OW84015   3.651   1.149   4.095
94061SOL    HW184016   3.572   1.101   4.122
94061SOL    HW284017   3.700   1.086   4.042
94062SOL     OW84018  13.997   8.443   4.951
94062SOL    HW184019  14.005   8.538   4.937
94062SOL    HW284020  14.083   8.417   4.984
94063SOL     OW84021   4.840   8.935   7.452
94063SOL    HW184022   4.918   8.984   7.477
94063SOL    HW284023   4.795   8.993   7.390
94064SOL     OW84024   2.377   8.390   7.099
94064SOL    HW184025   2.454   8.336   7.081
94064SOL    HW284026   2.369   8.389   7.194
94065SOL     OW84027   1.239   0.164   1.498
94065SOL    HW184028   1.274   0.248   1.469
94065SOL    HW284029   1.144   0.173   1.491
94066SOL     OW84030   7.839   0.429   7.014
94066SOL    HW184031   7.833   0.405   6.922
94066SOL    HW284032   7.926   0.398   7.041
94067SOL     OW84033   4.504   2.908  14.219
94067SOL    HW184034   4.555   2.906  14.300
94067SOL    HW284035   4.569   2.924  14.151
94068SOL     OW84036  14.549   5.158   2.752
94068SOL    HW184037  14.514   5.078   2.791
94068SOL    HW284038  14.486   5.181   2.684
94069SOL     OW84039   1.582  12.064  12.882
94069SOL    HW184040   1.590  12.046  12.976
94069SOL    HW284041   1.630  12.146  12.869
94070SOL     OW84042   4.930   1.039  13.728
94070SOL    HW184043   5.013   1.066  13.689
94070SOL    HW284044   4.867   1.104  13.698
94071SOL     OW84045   3.762   4.042   5.891
94071SOL    HW184046   3.807   4.061   5.973
94071SOL    HW284047   3.674   4.014   5.917
94072SOL     OW84048  11.334   4.713   1.615
94072SOL    HW184049  11.375   4.735   1.531
94072SOL    HW284050  11.397   4.741   1.681
94073SOL     OW84051   6.716   4.736   3.980
94073SOL    HW184052   6.746   4.686   3.905
94073SOL    HW284053   6.762   4.698   4.055
94074SOL     OW84054   4.049  13.337   6.258
94074SOL    HW184055   4.006  13.262   6.217
94074SOL    HW284056   4.098  13.299   6.331
94075SOL     OW84057   4.285  14.707   1.339
94075SOL    HW184058   4.242  14.762   1.274
94075SOL    HW284059   4.231  14.715   1.418
94076SOL     OW84060   7.774   6.298  13.892
94076SOL    HW184061   7.867   6.318  13.880
94076SOL    HW284062   7.735   6.381  13.921
94077SOL     OW84063   5.355  14.662  11.128
94077SOL    HW184064   5.332  14.719  11.201
94077SOL    HW284065   5.330  14.711  11.050
94078SOL     OW84066  12.749   6.825   7.943
94078SOL    HW184067  12.706   6.910   7.956
94078SOL    HW284068  12.814   6.842   7.874
94079SOL     OW84069  12.465  12.917  11.753
94079SOL    HW184070  12.404  12.978  11.794
94079SOL    HW284071  12.416  12.835  11.745
94080SOL     OW84072  13.921   0.032  13.436
94080SOL    HW184073  13.832   0.054  13.462
94080SOL    HW284074  13.913  14.875  13.348
94081SOL     OW84075  10.460   9.168   2.964
94081SOL    HW184076  10.473   9.262   2.974
94081SOL    HW284077  10.509   9.129   3.037
94082SOL     OW84078   4.998   9.767  14.617
94082SOL    HW184079   4.939   9.746  14.545
94082SOL    HW284080   5.065   9.823  14.577
94083SOL     OW84081   3.990   1.178   1.530
94083SOL    HW184082   4.034   1.138   1.604
94083SOL    HW284083   3.989   1.110   1.463
94084SOL     OW84084  12.964   9.141   8.216
94084SOL    HW184085  12.977   9.185   8.132
94084SOL    HW284086  13.036   9.078   8.221
94085SOL     OW84087   6.682  11.865  10.356
94085SOL    HW184088   6.776  11.880  10.346
94085SOL    HW284089   6.652  11.841  10.268
94086SOL     OW84090  14.213  12.694   0.643
94086SOL    HW184091  14.184  12.603   0.637
94086SOL    HW284092  14.133  12.745   0.645
94087SOL     OW84093   1.405   3.744  10.582
94087SOL    HW184094   1.500   3.741  10.578
94087SOL    HW284095   1.381   3.669  10.638
94088SOL     OW84096   0.613   5.628  12.748
94088SOL    HW184097   0.704   5.606  12.730
94088SOL    HW284098   0.614   5.659  12.839
94089SOL     OW84099   6.864  10.626   0.783
94089SOL    HW184100   6.793  10.664   0.836
94089SOL    HW284101   6.914  10.702   0.752
94090SOL     OW84102  14.694   1.237   8.785
94090SOL    HW184103  14.618   1.281   8.747
94090SOL    HW284104  14.732   1.188   8.712
94091SOL     OW84105   4.775   5.747   7.609
94091SOL    HW184106   4.832   5.740   7.533
94091SOL    HW284107   4.816   5.813   7.664
94092SOL     OW84108  10.134   2.365  11.111
94092SOL    HW184109  10.058   2.311  11.091
94092SOL    HW284110  10.153   2.412  11.030
94093SOL     OW84111  10.864   3.263   7.975
94093SOL    HW184112  10.916   3.342   7.960
94093SOL    HW284113  10.793   3.292   8.032
94094SOL     OW84114  10.841  14.746  10.980
94094SOL    HW184115  10.919  14.757  11.035
94094SOL    HW284116  10.876  14.739  10.891
94095SOL     OW84117   3.331   7.539   2.057
94095SOL    HW184118   3.322   7.630   2.030
94095SOL    HW284119   3.412   7.509   2.015
94096SOL     OW84120   2.133   8.783  11.841
94096SOL    HW184121   2.037   8.791  11.840
94096SOL    HW284122   2.153   8.725  11.768
94097SOL     OW84123   3.695  10.858  14.031
94097SOL    HW184124   3.616  10.874  14.082
94097SOL    HW284125   3.728  10.774  14.062
94098SOL     OW84126   7.414  13.664   8.641
94098SOL    HW184127   7.418  13.706   8.727
94098SOL    HW284128   7.417  13.736   8.578
94099SOL     OW84129   0.733   6.377   5.151
94099SOL    HW184130   0.690   6.297   5.122
94099SOL    HW284131   0.777   6.411   5.073
94100SOL     OW84132  14.084   8.299  12.265
94100SOL    HW184133  13.995   8.288  12.232
94100SOL    HW284134  14.106   8.213  12.302
94101SOL     OW84135   6.195   3.651   3.950
94101SOL    HW184136   6.225   3.560   3.945
94101SOL    HW284137   6.254   3.692   4.014
94102SOL     OW84138  14.051  13.657  14.110
94102SOL    HW184139  14.084  13.658  14.200
94102SOL    HW284140  13.958  13.679  14.118
94103SOL     OW84141  11.417   9.846  11.048
94103SOL    HW184142  11.400   9.752  11.052
94103SOL    HW284143  11.445   9.870  11.136
94104SOL     OW84144   1.491  12.027   0.367
94104SOL    HW184145   1.516  12.116   0.343
94104SOL    HW284146   1.566  11.973   0.341
94105SOL     OW84147  13.668   8.658   3.665
94105SOL    HW184148  13.612   8.580   3.660
94105SOL    HW284149  13.715   8.649   3.748
94106SOL     OW84150   2.741  10.414   8.737
94106SOL    HW184151   2.738  10.431   8.642
94106SOL    HW284152   2.661  10.365   8.754
94107SOL     OW84153   8.817   7.371   0.503
94107SOL    HW184154   8.746   7.314   0.476
94107SOL    HW284155   8.816   7.370   0.598
94108SOL     OW84156   1.749   9.470   2.938
94108SOL    HW184157   1.729   9.463   2.844
94108SOL    HW284158   1.669   9.503   2.977
94109SOL     OW84159  12.218   2.082   4.986
94109SOL    HW184160  12.138   2.135   4.980
94109SOL    HW284161  12.195   1.999   4.946
94110SOL     OW84162   2.972   8.329  10.914
94110SOL    HW184163   3.020   8.274  10.975
94110SOL    HW284164   2.899   8.364  10.965
94111SOL     OW84165   0.135   5.836   4.857
94111SOL    HW184166   0.102   5.824   4.769
94111SOL    HW284167   0.127   5.930   4.873
94112SOL     OW84168   5.543  11.090   3.966
94112SOL    HW184169   5.480  11.045   3.909
94112SOL    HW284170   5.580  11.020   4.020
94113SOL     OW84171   7.154   4.850   7.107
94113SOL    HW184172   7.066   4.816   7.124
94113SOL    HW284173   7.144   4.945   7.109
94114SOL     OW84174   8.096   1.411  13.773
94114SOL    HW184175   8.082   1.392  13.680
94114SOL    HW284176   8.009   1.404  13.812
94115SOL     OW84177   5.669  13.480   0.050
94115SOL    HW184178   5.661  13.453   0.142
94115SOL    HW284179   5.621  13.563   0.045
94116SOL     OW84180  12.963   7.984   0.874
94116SOL    HW184181  13.038   8.043   0.885
94116SOL    HW284182  12.983   7.909   0.930
94117SOL     OW84183   3.627  11.050   2.301
94117SOL    HW184184   3.629  11.129   2.356
94117SOL    HW284185   3.710  11.006   2.319
94118SOL     OW84186   0.335   1.595  14.194
94118SOL    HW184187   0.304   1.504  14.192
94118SOL    HW284188   0.428   1.588  14.216
94119SOL     OW84189   3.171  12.325   1.937
94119SOL    HW184190   3.233  12.398   1.926
94119SOL    HW284191   3.090  12.366   1.967
94120SOL     OW84192   7.444  12.692   7.463
94120SOL    HW184193   7.502  12.767   7.474
94120SOL    HW284194   7.418  12.668   7.552
94121SOL     OW84195   7.275   3.356   8.589
94121SOL    HW184196   7.194   3.304   8.588
94121SOL    HW284197   7.301   3.361   8.497
94122SOL     OW84198   5.421   5.779   7.702
94122SOL    HW184199   5.384   5.766   7.615
94122SOL    HW284200   5.346   5.767   7.762
94123SOL     OW84201   2.554   0.456  10.387
94123SOL    HW184202   2.559   0.520  10.458
94123SOL    HW284203   2.494   0.495  10.324
94124SOL     OW84204   7.114   7.483   4.787
94124SOL    HW184205   7.134   7.530   4.868
94124SOL    HW284206   7.146   7.541   4.717
94125SOL     OW84207  14.664   3.128   8.468
94125SOL    HW184208  14.711   3.211   8.467
94125SOL    HW284209  14.722   3.067   8.513
94126SOL     OW84210  13.453  10.830   8.472
94126SOL    HW184211  13.425  10.746   8.509
94126SOL    HW284212  13.431  10.895   8.540
94127SOL     OW84213   0.348   9.786  10.182
94127SOL    HW184214   0.439   9.813  10.193
94127SOL    HW284215   0.298   9.865  10.202
94128SOL     OW84216   7.540   2.706  12.020
94128SOL    HW184217   7.534   2.703  12.116
94128SOL    HW284218   7.460   2.749  11.993
94129SOL     OW84219   1.571  12.764   9.046
94129SOL    HW184220   1.618  12.693   9.089
94129SOL    HW284221   1.504  12.791   9.109
94130SOL     OW84222   9.022  10.827  14.829
94130SOL    HW184223   9.024  10.911  14.874
94130SOL    HW284224   8.988  10.765   0.015
94131SOL     OW84225   2.128   4.381   1.480
94131SOL    HW184226   2.041   4.397   1.517
94131SOL    HW284227   2.140   4.450   1.416
94132SOL     OW84228   3.284   7.846   7.838
94132SOL    HW184229   3.271   7.934   7.802
94132SOL    HW284230   3.364   7.854   7.891
94133SOL     OW84231   3.067   7.364   0.927
94133SOL    HW184232   3.030   7.452   0.916
94133SOL    HW284233   3.095   7.338   0.840
94134SOL     OW84234   5.521   7.472   0.746
94134SOL    HW184235   5.514   7.556   0.792
94134SOL    HW284236   5.439   7.427   0.767
94135SOL     OW84237   6.828  12.112   3.294
94135SOL    HW184238   6.835  12.191   3.348
94135SOL    HW284239   6.756  12.130   3.234
94136SOL     OW84240  13.412   9.398   7.231
94136SOL    HW184241  13.499   9.439   7.230
94136SOL    HW284242  13.357   9.458   7.282
94137SOL     OW84243   6.272   2.497   9.355
94137SOL    HW184244   6.242   2.508   9.445
94137SOL    HW284245   6.345   2.435   9.362
94138SOL     OW84246  12.771  11.046   6.955
94138SOL    HW184247  12.689  11.089   6.978
94138SOL    HW284248  12.751  10.952   6.956
94139SOL     OW84249   1.277  13.935   7.827
94139SOL    HW184250   1.289  14.030   7.828
94139SOL    HW284251   1.297  13.910   7.737
94140SOL     OW84252  12.640   2.947   6.309
94140SOL    HW184253  12.581   2.995   6.251
94140SOL    HW284254  12.709   2.914   6.250
94141SOL     OW84255   5.939   5.980   9.567
94141SOL    HW184256   5.962   5.951   9.479
94141SOL    HW284257   6.005   5.941   9.624
94142SOL     OW84258   6.497  12.914   1.056
94142SOL    HW184259   6.509  12.872   1.141
94142SOL    HW284260   6.576  12.893   1.007
94143SOL     OW84261   3.260   8.249  13.173
94143SOL    HW184262   3.234   8.326  13.122
94143SOL    HW284263   3.273   8.181  13.107
94144SOL     OW84264   4.826   5.959   2.587
94144SOL    HW184265   4.800   5.876   2.547
94144SOL    HW284266   4.920   5.965   2.569
94145SOL     OW84267   5.410   2.272  12.582
94145SOL    HW184268   5.395   2.197  12.640
94145SOL    HW284269   5.444   2.233  12.501
94146SOL     OW84270  11.666   6.579  14.495
94146SOL    HW184271  11.583   6.611  14.459
94146SOL    HW284272  11.672   6.619  14.582
94147SOL     OW84273   1.178   8.997   2.301
94147SOL    HW184274   1.253   9.019   2.245
94147SOL    HW284275   1.122   8.942   2.245
94148SOL     OW84276   5.713   2.072  11.772
94148SOL    HW184277   5.679   2.147  11.722
94148SOL    HW284278   5.804   2.065  11.744
94149SOL     OW84279   2.535  12.810   3.861
94149SOL    HW184280   2.629  12.811   3.878
94149SOL    HW284281   2.500  12.748   3.924
94150SOL     OW84282  11.942  10.629  13.526
94150SOL    HW184283  11.922  10.710  13.574
94150SOL    HW284284  11.873  10.568  13.553
94151SOL     OW84285   6.842   1.119   5.971
94151SOL    HW184286   6.756   1.160   5.984
94151SOL    HW284287   6.874   1.103   6.059
94152SOL     OW84288  10.134   2.597   9.205
94152SOL    HW184289  10.108   2.559   9.121
94152SOL    HW284290  10.226   2.574   9.214
94153SOL     OW84291  14.006   8.833  13.245
94153SOL    HW184292  14.046   8.899  13.188
94153SOL    HW284293  14.014   8.751  13.197
94154SOL     OW84294   4.151   8.355   2.951
94154SOL    HW184295   4.109   8.374   2.867
94154SOL    HW284296   4.078   8.338   3.011
94155SOL     OW84297   4.250   7.908   4.439
94155SOL    HW184298   4.231   7.884   4.348
94155SOL    HW284299   4.222   7.832   4.490
94156SOL     OW84300  11.212   8.365   5.900
94156SOL    HW184301  11.181   8.456   5.902
94156SOL    HW284302  11.132   8.313   5.905
94157SOL     OW84303   2.799   4.817  10.739
94157SOL    HW184304   2.799   4.728  10.705
94157SOL    HW284305   2.891   4.843  10.742
94158SOL     OW84306   0.869  14.618   6.719
94158SOL    HW184307   0.791  14.568   6.742
94158SOL    HW284308   0.899  14.578   6.637
94159SOL     OW84309  12.586   7.549  11.295
94159SOL    HW184310  12.623   7.636  11.278
94159SOL    HW284311  12.493   7.565  11.309
94160SOL     OW84312  10.660  13.258   0.129
94160SOL    HW184313  10.572  13.260   0.092
94160SOL    HW284314  10.718  13.269   0.054
94161SOL     OW84315  12.516   9.743  11.141
94161SOL    HW184316  12.607   9.715  11.155
94161SOL    HW284317  12.488   9.694  11.064
94162SOL     OW84318   0.945   4.474  13.620
94162SOL    HW184319   0.890   4.520  13.558
94162SOL    HW284320   1.022   4.448  13.570
94163SOL     OW84321  13.398   2.960   8.679
94163SOL    HW184322  13.319   2.976   8.729
94163SOL    HW284323  13.399   2.866   8.665
94164SOL     OW84324  10.283   4.406   6.999
94164SOL    HW184325  10.214   4.384   6.937
94164SOL    HW284326  10.348   4.335   6.988
94165SOL     OW84327   4.092  13.648  13.471
94165SOL    HW184328   4.174  13.677  13.511
94165SOL    HW284329   4.091  13.689  13.385
94166SOL     OW84330  12.376   8.714   8.607
94166SOL    HW184331  12.445   8.743   8.547
94166SOL    HW284332  12.412   8.727   8.694
94167SOL     OW84333   5.638  11.202   9.721
94167SOL    HW184334   5.693  11.158   9.787
94167SOL    HW284335   5.595  11.131   9.675
94168SOL     OW84336  11.551   5.879  12.531
94168SOL    HW184337  11.536   5.882  12.436
94168SOL    HW284338  11.463   5.872  12.569
94169SOL     OW84339   4.663   5.826  11.603
94169SOL    HW184340   4.679   5.830  11.508
94169SOL    HW284341   4.605   5.901  11.620
94170SOL     OW84342  10.653   7.186  11.451
94170SOL    HW184343  10.622   7.150  11.368
94170SOL    HW284344  10.577   7.180  11.509
94171SOL     OW84345  12.790   9.694  11.089
94171SOL    HW184346  12.870   9.743  11.073
94171SOL    HW284347  12.725   9.735  11.031
94172SOL     OW84348   0.552   7.346   9.233
94172SOL    HW184349   0.480   7.399   9.201
94172SOL    HW284350   0.510   7.279   9.287
94173SOL     OW84351   3.599   4.410  10.961
94173SOL    HW184352   3.588   4.362  11.043
94173SOL    HW284353   3.510   4.433  10.934
94174SOL     OW84354   4.809   6.805   0.031
94174SOL    HW184355   4.900   6.807   0.061
94174SOL    HW284356   4.813   6.766  14.822
94175SOL     OW84357   6.017   6.902  14.023
94175SOL    HW184358   5.935   6.940  13.993
94175SOL    HW284359   6.046   6.847  13.950
94176SOL     OW84360  10.252   8.840  12.515
94176SOL    HW184361  10.246   8.812  12.424
94176SOL    HW284362  10.345   8.833  12.536
94177SOL     OW84363   3.063   3.511  11.028
94177SOL    HW184364   3.140   3.498  11.084
94177SOL    HW284365   3.097   3.508  10.939
94178SOL     OW84366   8.565   7.790  11.577
94178SOL    HW184367   8.588   7.771  11.486
94178SOL    HW284368   8.565   7.704  11.620
94179SOL     OW84369   6.166  14.331   0.800
94179SOL    HW184370   6.167  14.419   0.762
94179SOL    HW284371   6.143  14.345   0.892
94180SOL     OW84372   8.904  11.051  10.404
94180SOL    HW184373   8.908  11.017  10.493
94180SOL    HW284374   8.964  10.995  10.354
94181SOL     OW84375   7.994  11.548   9.077
94181SOL    HW184376   7.956  11.571   8.992
94181SOL    HW284377   8.043  11.627   9.103
94182SOL     OW84378   2.368   1.686   2.983
94182SOL    HW184379   2.360   1.779   3.004
94182SOL    HW284380   2.379   1.643   3.068
94183SOL     OW84381   5.806  13.535   0.299
94183SOL    HW184382   5.829  13.596   0.228
94183SOL    HW284383   5.835  13.579   0.379
94184SOL     OW84384   4.051   6.035  12.355
94184SOL    HW184385   3.989   6.062  12.286
94184SOL    HW284386   3.998   6.032  12.435
94185SOL     OW84387   2.480  14.296   5.162
94185SOL    HW184388   2.516  14.340   5.239
94185SOL    HW284389   2.528  14.214   5.156
94186SOL     OW84390   9.391   1.188  13.297
94186SOL    HW184391   9.444   1.200  13.218
94186SOL    HW284392   9.438   1.237  13.364
94187SOL     OW84393   8.824   6.120   7.493
94187SOL    HW184394   8.729   6.116   7.483
94187SOL    HW284395   8.842   6.068   7.571
94188SOL     OW84396   9.318   5.159   0.613
94188SOL    HW184397   9.350   5.242   0.649
94188SOL    HW284398   9.396   5.119   0.573
94189SOL     OW84399   5.996  13.616  14.555
94189SOL    HW184400   5.927  13.579  14.501
94189SOL    HW284401   6.038  13.540  14.596
94190SOL     OW84402  12.865  12.609  10.315
94190SOL    HW184403  12.801  12.628  10.247
94190SOL    HW284404  12.880  12.693  10.359
94191SOL     OW84405   3.015   4.288   1.887
94191SOL    HW184406   3.068   4.217   1.924
94191SOL    HW284407   3.079   4.350   1.852
94192SOL     OW84408   2.726  14.330  12.282
94192SOL    HW184409   2.658  14.337  12.350
94192SOL    HW284410   2.678  14.299  12.205
94193SOL     OW84411   4.899  14.556  13.015
94193SOL    HW184412   4.960  14.593  13.078
94193SOL    HW284413   4.914  14.462  13.020
94194SOL     OW84414   0.850   9.917   1.126
94194SOL    HW184415   0.825   9.826   1.106
94194SOL    HW284416   0.798   9.939   1.203
94195SOL     OW84417   0.348  12.743   9.700
94195SOL    HW184418   0.381  12.726   9.612
94195SOL    HW284419   0.380  12.669   9.752
94196SOL     OW84420  10.993  10.561  11.206
94196SOL    HW184421  10.959  10.551  11.295
94196SOL    HW284422  11.086  10.580  11.217
94197SOL     OW84423   5.435   5.244  11.343
94197SOL    HW184424   5.427   5.187  11.266
94197SOL    HW284425   5.519   5.218  11.383
94198SOL     OW84426   3.316   5.674   3.008
94198SOL    HW184427   3.366   5.603   3.049
94198SOL    HW284428   3.242   5.630   2.966
94199SOL     OW84429   1.049   5.610   1.906
94199SOL    HW184430   1.085   5.564   1.982
94199SOL    HW284431   0.961   5.575   1.896
94200SOL     OW84432   7.618  13.578   7.143
94200SOL    HW184433   7.562  13.644   7.102
94200SOL    HW284434   7.684  13.628   7.190
94201SOL     OW84435   3.714   6.086   9.070
94201SOL    HW184436   3.803   6.091   9.035
94201SOL    HW284437   3.704   5.996   9.098
94202SOL     OW84438   7.282   5.919  12.242
94202SOL    HW184439   7.245   5.932  12.155
94202SOL    HW284440   7.236   5.983  12.297
94203SOL     OW84441   3.772  10.038   7.934
94203SOL    HW184442   3.805  10.121   7.898
94203SOL    HW284443   3.850   9.984   7.945
94204SOL     OW84444   3.242  11.245  14.287
94204SOL    HW184445   3.164  11.244  14.343
94204SOL    HW284446   3.209  11.224  14.199
94205SOL     OW84447   7.675  14.286   5.216
94205SOL    HW184448   7.588  14.250   5.198
94205SOL    HW284449   7.732  14.209   5.220
94206SOL     OW84450  12.822   6.063   6.814
94206SOL    HW184451  12.892   6.109   6.862
94206SOL    HW284452  12.867   6.019   6.742
94207SOL     OW84453   7.855   8.402   5.458
94207SOL    HW184454   7.837   8.325   5.405
94207SOL    HW284455   7.905   8.369   5.532
94208SOL     OW84456  12.411   7.938   0.875
94208SOL    HW184457  12.345   7.872   0.897
94208SOL    HW284458  12.442   7.970   0.960
94209SOL     OW84459   5.857   1.565   0.670
94209SOL    HW184460   5.869   1.577   0.575
94209SOL    HW284461   5.769   1.528   0.678
94210SOL     OW84462   5.411  10.933  13.660
94210SOL    HW184463   5.412  10.844  13.625
94210SOL    HW284464   5.360  10.984  13.597
94211SOL     OW84465   8.165  11.345   8.556
94211SOL    HW184466   8.217  11.321   8.633
94211SOL    HW284467   8.193  11.435   8.537
94212SOL     OW84468   6.192  13.156  13.582
94212SOL    HW184469   6.253  13.215  13.626
94212SOL    HW284470   6.211  13.070  13.621
94213SOL     OW84471   5.913   0.529  11.986
94213SOL    HW184472   5.953   0.502  11.903
94213SOL    HW284473   5.884   0.447  12.027
94214SOL     OW84474  14.253   6.531   2.564
94214SOL    HW184475  14.227   6.486   2.484
94214SOL    HW284476  14.347   6.515   2.573
94215SOL     OW84477   8.344  14.450  14.276
94215SOL    HW184478   8.327  14.493  14.360
94215SOL    HW284479   8.305  14.363  14.286
94216SOL     OW84480  14.542  10.987  14.800
94216SOL    HW184481  14.563  10.971   0.013
94216SOL    HW284482  14.619  11.031  14.765
94217SOL     OW84483  14.043  13.244  10.398
94217SOL    HW184484  14.067  13.267  10.308
94217SOL    HW284485  13.953  13.275  10.407
94218SOL     OW84486  10.496  12.532   9.419
94218SOL    HW184487  10.565  12.585   9.459
94218SOL    HW284488  10.429  12.595   9.392
94219SOL     OW84489   2.391   5.193   5.394
94219SOL    HW184490   2.410   5.287   5.392
94219SOL    HW284491   2.412   5.167   5.484
94220SOL     OW84492  10.754   3.301   8.481
94220SOL    HW184493  10.693   3.324   8.551
94220SOL    HW284494  10.830   3.263   8.525
94221SOL     OW84495   0.765   9.054   0.562
94221SOL    HW184496   0.722   9.138   0.580
94221SOL    HW284497   0.833   9.075   0.498
94222SOL     OW84498   1.904   0.160  10.134
94222SOL    HW184499   1.977   0.139  10.075
94222SOL    HW284500   1.858   0.076  10.145
94223SOL     OW84501   1.872   5.971  13.103
94223SOL    HW184502   1.956   5.984  13.059
94223SOL    HW284503   1.895   5.947  13.193
94224SOL     OW84504   3.406   7.002   1.279
94224SOL    HW184505   3.387   6.909   1.287
94224SOL    HW284506   3.340   7.045   1.334
94225SOL     OW84507  12.317   1.240  11.984
94225SOL    HW184508  12.284   1.303  11.920
94225SOL    HW284509  12.278   1.156  11.957
94226SOL     OW84510  11.466   0.520  14.716
94226SOL    HW184511  11.494   0.528  14.808
94226SOL    HW284512  11.515   0.590  14.671
94227SOL     OW84513   4.224  12.691  14.211
94227SOL    HW184514   4.197  12.716  14.123
94227SOL    HW284515   4.252  12.600  14.204
94228SOL     OW84516   9.239  12.200   4.594
94228SOL    HW184517   9.293  12.168   4.521
94228SOL    HW284518   9.166  12.137   4.599
94229SOL     OW84519   6.367   2.092   3.295
94229SOL    HW184520   6.390   2.063   3.383
94229SOL    HW284521   6.354   2.186   3.303
94230SOL     OW84522   6.296   5.507   1.951
94230SOL    HW184523   6.232   5.574   1.975
94230SOL    HW284524   6.319   5.528   1.860
94231SOL     OW84525  10.923   8.874   9.309
94231SOL    HW184526  10.926   8.869   9.405
94231SOL    HW284527  10.831   8.857   9.288
94232SOL     OW84528  13.605   8.103  12.001
94232SOL    HW184529  13.559   8.152  12.069
94232SOL    HW284530  13.635   8.170  11.939
94233SOL     OW84531   0.799   6.996  13.501
94233SOL    HW184532   0.826   7.007  13.410
94233SOL    HW284533   0.857   6.927  13.534
94234SOL     OW84534  11.444  11.615   7.850
94234SOL    HW184535  11.399  11.538   7.814
94234SOL    HW284536  11.374  11.670   7.885
94235SOL     OW84537   2.243  13.813   5.410
94235SOL    HW184538   2.298  13.740   5.437
94235SOL    HW284539   2.155  13.775   5.404
94236SOL     OW84540   7.047  13.735  10.115
94236SOL    HW184541   7.129  13.688  10.099
94236SOL    HW284542   6.997  13.677  10.173
94237SOL     OW84543   3.413  11.050   4.965
94237SOL    HW184544   3.348  11.104   4.921
94237SOL    HW284545   3.479  11.032   4.898
94238SOL     OW84546   0.349  10.083   7.961
94238SOL    HW184547   0.386  10.094   7.873
94238SOL    HW284548   0.389  10.153   8.012
94239SOL     OW84549   1.739   6.648  14.502
94239SOL    HW184550   1.648   6.653  14.530
94239SOL    HW284551   1.744   6.566  14.453
94240SOL     OW84552   2.133   3.318  11.720
94240SOL    HW184553   2.095   3.348  11.802
94240SOL    HW284554   2.074   3.349  11.652
94241SOL     OW84555   6.940   3.665   1.167
94241SOL    HW184556   6.970   3.645   1.256
94241SOL    HW284557   7.021   3.680   1.118
94242SOL     OW84558   4.668   1.373   8.919
94242SOL    HW184559   4.685   1.359   8.826
94242SOL    HW284560   4.744   1.421   8.951
94243SOL     OW84561  13.418   8.908  11.924
94243SOL    HW184562  13.325   8.929  11.936
94243SOL    HW284563  13.418   8.826  11.875
94244SOL     OW84564   8.028  11.436  12.847
94244SOL    HW184565   7.934  11.446  12.828
94244SOL    HW284566   8.039  11.342  12.863
94245SOL     OW84567   6.612   9.441  10.128
94245SOL    HW184568   6.655   9.359  10.102
94245SOL    HW284569   6.684   9.503  10.135
94246SOL     OW84570   7.026   8.965   4.380
94246SOL    HW184571   7.106   8.931   4.340
94246SOL    HW284572   6.956   8.937   4.321
94247SOL     OW84573   6.923  14.857   0.321
94247SOL    HW184574   6.862  14.866   0.249
94247SOL    HW284575   6.987  14.792   0.291
94248SOL     OW84576   0.124  14.533  10.259
94248SOL    HW184577   0.176  14.598  10.212
94248SOL    HW284578   0.049  14.582  10.293
94249SOL     OW84579   4.950   3.475  14.767
94249SOL    HW184580   4.998   3.551  14.799
94249SOL    HW284581   4.876   3.513  14.719
94250SOL     OW84582  11.794  11.544  14.485
94250SOL    HW184583  11.830  11.456  14.476
94250SOL    HW284584  11.797  11.562  14.579
94251SOL     OW84585   9.394   9.334   3.040
94251SOL    HW184586   9.315   9.290   3.009
94251SOL    HW284587   9.463   9.268   3.030
94252SOL     OW84588   3.970  11.955   7.060
94252SOL    HW184589   3.976  11.890   6.990
94252SOL    HW284590   3.916  12.024   7.023
94253SOL     OW84591  12.044  12.429   8.569
94253SOL    HW184592  11.950  12.442   8.559
94253SOL    HW284593  12.072  12.498   8.628
94254SOL     OW84594  11.339   7.329   0.325
94254SOL    HW184595  11.258   7.299   0.368
94254SOL    HW284596  11.349   7.419   0.353
94255SOL     OW84597   2.480   5.233   4.084
94255SOL    HW184598   2.450   5.323   4.098
94255SOL    HW284599   2.461   5.216   3.992
94256SOL     OW84600  14.738   4.192  13.031
94256SOL    HW184601  14.714   4.109  12.991
94256SOL    HW284602  14.832   4.186  13.046
94257SOL     OW84603   7.686   2.894  11.226
94257SOL    HW184604   7.764   2.912  11.173
94257SOL    HW284605   7.631   2.840  11.169
94258SOL     OW84606  11.122   5.270   8.921
94258SOL    HW184607  11.115   5.244   9.013
94258SOL    HW284608  11.155   5.360   8.924
94259SOL     OW84609  12.899   8.575   9.103
94259SOL    HW184610  12.989   8.569   9.132
94259SOL    HW284611  12.883   8.494   9.055
94260SOL     OW84612  14.703   0.524  11.735
94260SOL    HW184613  14.720   0.444  11.785
94260SOL    HW284614  14.635   0.569  11.784
94261SOL     OW84615   6.005   9.989   5.678
94261SOL    HW184616   6.086   9.993   5.730
94261SOL    HW284617   5.953  10.063   5.710
94262SOL     OW84618   9.638   5.879  11.507
94262SOL    HW184619   9.727   5.911  11.499
94262SOL    HW284620   9.647   5.784  11.515
94263SOL     OW84621  13.153   2.912   9.651
94263SOL    HW184622  13.128   2.861   9.728
94263SOL    HW284623  13.188   2.847   9.590
94264SOL     OW84624   7.489   5.077   7.917
94264SOL    HW184625   7.541   5.024   7.978
94264SOL    HW284626   7.494   5.166   7.953
94265SOL     OW84627   1.801  14.614   7.954
94265SOL    HW184628   1.731  14.573   7.904
94265SOL    HW284629   1.836  14.544   8.009
94266SOL     OW84630   9.495   7.155  13.504
94266SOL    HW184631   9.506   7.177  13.411
94266SOL    HW284632   9.575   7.185  13.546
94267SOL     OW84633   2.769  12.349  11.517
94267SOL    HW184634   2.764  12.423  11.457
94267SOL    HW284635   2.765  12.272  11.460
94268SOL     OW84636  13.431   2.232   2.416
94268SOL    HW184637  13.439   2.234   2.320
94268SOL    HW284638  13.447   2.141   2.440
94269SOL     OW84639   0.039  14.144  14.743
94269SOL    HW184640   0.033  14.179  14.832
94269SOL    HW284641   0.096  14.205  14.697
94270SOL     OW84642   8.144   2.610  11.495
94270SOL    HW184643   8.203   2.678  11.460
94270SOL    HW284644   8.083   2.658  11.550
94271SOL     OW84645   3.170  10.104   7.493
94271SOL    HW184646   3.244  10.148   7.453
94271SOL    HW284647   3.198  10.013   7.502
94272SOL     OW84648  11.045  10.835  14.369
94272SOL    HW184649  10.984  10.906  14.388
94272SOL    HW284650  11.115  10.876  14.318
94273SOL     OW84651  12.372   5.281   2.908
94273SOL    HW184652  12.466   5.279   2.894
94273SOL    HW284653  12.340   5.350   2.850
94274SOL     OW84654  11.993  13.512   1.166
94274SOL    HW184655  11.905  13.549   1.158
94274SOL    HW284656  12.033  13.563   1.237
94275SOL     OW84657  10.134   7.072   0.388
94275SOL    HW184658  10.174   7.068   0.301
94275SOL    HW284659  10.150   7.162   0.417
94276SOL     OW84660   0.579  14.590   4.872
94276SOL    HW184661   0.581  14.651   4.945
94276SOL    HW284662   0.500  14.537   4.888
94277SOL     OW84663  13.289   4.990   5.160
94277SOL    HW184664  13.232   4.923   5.123
94277SOL    HW284665  13.274   5.067   5.105
94278SOL     OW84666   4.880   1.163  11.962
94278SOL    HW184667   4.888   1.086  12.020
94278SOL    HW284668   4.933   1.230  12.004
94279SOL     OW84669  11.229  10.677   9.046
94279SOL    HW184670  11.304  10.652   9.100
94279SOL    HW284671  11.155  10.631   9.085
94280SOL     OW84672  14.785   2.136   4.298
94280SOL    HW184673  14.826   2.058   4.260
94280SOL    HW284674  14.729   2.171   4.228
94281SOL     OW84675  12.811   2.494   3.613
94281SOL    HW184676  12.818   2.436   3.688
94281SOL    HW284677  12.726   2.537   3.623
94282SOL     OW84678   6.073   3.422  14.791
94282SOL    HW184679   6.017   3.416  14.868
94282SOL    HW284680   6.122   3.503  14.802
94283SOL     OW84681   4.346  13.458  11.447
94283SOL    HW184682   4.277  13.478  11.383
94283SOL    HW284683   4.357  13.539  11.496
94284SOL     OW84684   2.049  13.116   1.109
94284SOL    HW184685   2.086  13.042   1.157
94284SOL    HW284686   2.012  13.077   1.030
94285SOL     OW84687   0.241  10.461   6.174
94285SOL    HW184688   0.307  10.510   6.223
94285SOL    HW284689   0.168  10.451   6.235
94286SOL     OW84690   5.115   9.742  10.827
94286SOL    HW184691   5.117   9.656  10.785
94286SOL    HW284692   5.180   9.794  10.779
94287SOL     OW84693   4.911   7.293   9.597
94287SOL    HW184694   4.898   7.285   9.503
94287SOL    HW284695   4.989   7.240   9.615
94288SOL     OW84696   5.827   1.950  12.804
94288SOL    HW184697   5.769   1.877  12.825
94288SOL    HW284698   5.911   1.908  12.786
94289SOL     OW84699   8.880   2.018   6.505
94289SOL    HW184700   8.896   2.107   6.472
94289SOL    HW284701   8.966   1.984   6.527
94290SOL     OW84702   6.247  13.375   8.208
94290SOL    HW184703   6.209  13.292   8.237
94290SOL    HW284704   6.176  13.420   8.163
94291SOL     OW84705   1.296   6.051   0.334
94291SOL    HW184706   1.291   5.996   0.256
94291SOL    HW284707   1.387   6.079   0.339
94292SOL     OW84708   5.505  11.220  12.069
94292SOL    HW184709   5.482  11.310  12.091
94292SOL    HW284710   5.571  11.227  12.000
94293SOL     OW84711   1.869   3.207   7.940
94293SOL    HW184712   1.938   3.150   7.905
94293SOL    HW284713   1.897   3.296   7.916
94294SOL     OW84714  12.913   8.393   0.363
94294SOL    HW184715  12.824   8.401   0.396
94294SOL    HW284716  12.907   8.332   0.289
94295SOL     OW84717  14.012   6.245   7.486
94295SOL    HW184718  13.961   6.167   7.506
94295SOL    HW284719  14.057   6.267   7.568
94296SOL     OW84720   5.854   2.473   2.591
94296SOL    HW184721   5.928   2.412   2.581
94296SOL    HW284722   5.796   2.430   2.653
94297SOL     OW84723   6.509   3.801   4.960
94297SOL    HW184724   6.547   3.775   4.876
94297SOL    HW284725   6.544   3.738   5.022
94298SOL     OW84726   5.242   1.138   1.811
94298SOL    HW184727   5.238   1.062   1.868
94298SOL    HW284728   5.158   1.139   1.765
94299SOL     OW84729  14.704   1.136  14.564
94299SOL    HW184730  14.650   1.151  14.642
94299SOL    HW284731  14.713   1.222  14.525
94300SOL     OW84732   0.639   0.480   6.121
94300SOL    HW184733   0.723   0.468   6.077
94300SOL    HW284734   0.576   0.435   6.064
94301SOL     OW84735  10.916   1.728   6.989
94301SOL    HW184736  10.837   1.740   7.042
94301SOL    HW284737  10.884   1.694   6.905
94302SOL     OW84738   9.908   3.577   5.568
94302SOL    HW184739   9.983   3.551   5.515
94302SOL    HW284740   9.834   3.576   5.507
94303SOL     OW84741  13.612  10.797  10.655
94303SOL    HW184742  13.538  10.852  10.632
94303SOL    HW284743  13.665  10.794  10.575
94304SOL     OW84744   5.336  10.436  12.176
94304SOL    HW184745   5.284  10.491  12.118
94304SOL    HW284746   5.427  10.461  12.158
94305SOL     OW84747   5.513   3.207   9.436
94305SOL    HW184748   5.459   3.284   9.449
94305SOL    HW284749   5.508   3.188   9.342
94306SOL     OW84750  13.282  13.970  13.157
94306SOL    HW184751  13.294  14.007  13.245
94306SOL    HW284752  13.220  14.029  13.115
94307SOL     OW84753   0.933   6.273   2.718
94307SOL    HW184754   0.918   6.356   2.674
94307SOL    HW284755   0.952   6.297   2.809
94308SOL     OW84756   4.668  10.217   2.392
94308SOL    HW184757   4.712  10.258   2.317
94308SOL    HW284758   4.739  10.191   2.450
94309SOL     OW84759   4.303   6.206  10.749
94309SOL    HW184760   4.328   6.295  10.724
94309SOL    HW284761   4.380   6.170  10.792
94310SOL     OW84762   2.615   3.684   7.212
94310SOL    HW184763   2.628   3.722   7.125
94310SOL    HW284764   2.541   3.733   7.248
94311SOL     OW84765   5.337  10.388   6.320
94311SOL    HW184766   5.242  10.399   6.320
94311SOL    HW284767   5.364  10.421   6.234
94312SOL     OW84768  12.692  14.193   7.829
94312SOL    HW184769  12.726  14.276   7.862
94312SOL    HW284770  12.666  14.146   7.908
94313SOL     OW84771  12.341  10.999   8.764
94313SOL    HW184772  12.270  11.050   8.803
94313SOL    HW284773  12.302  10.914   8.745
94314SOL     OW84774   5.762  12.535   5.706
94314SOL    HW184775   5.708  12.504   5.778
94314SOL    HW284776   5.727  12.622   5.685
94315SOL     OW84777  11.020   2.167  13.852
94315SOL    HW184778  10.990   2.157  13.942
94315SOL    HW284779  10.940   2.176  13.800
94316SOL     OW84780   7.479   3.473   3.831
94316SOL    HW184781   7.413   3.473   3.762
94316SOL    HW284782   7.559   3.441   3.788
94317SOL     OW84783  10.941   8.030   9.343
94317SOL    HW184784  10.980   8.117   9.355
94317SOL    HW284785  10.876   8.023   9.414
94318SOL     OW84786  10.409   1.827   7.718
94318SOL    HW184787  10.454   1.849   7.800
94318SOL    HW284788  10.398   1.911   7.674
94319SOL     OW84789   6.634   8.597   6.901
94319SOL    HW184790   6.546   8.601   6.938
94319SOL    HW284791   6.628   8.531   6.831
94320SOL     OW84792   4.916   5.718   2.061
94320SOL    HW184793   4.870   5.658   2.120
94320SOL    HW284794   4.890   5.805   2.091
94321SOL     OW84795   9.847   9.887   2.481
94321SOL    HW184796   9.931   9.932   2.468
94321SOL    HW284797   9.853   9.851   2.569
94322SOL     OW84798  11.615  11.135   7.599
94322SOL    HW184799  11.543  11.136   7.662
94322SOL    HW284800  11.574  11.156   7.515
94323SOL     OW84801  12.140   8.580  11.572
94323SOL    HW184802  12.096   8.501  11.542
94323SOL    HW284803  12.126   8.581  11.667
94324SOL     OW84804  10.877  10.749  11.406
94324SOL    HW184805  10.816  10.707  11.345
94324SOL    HW284806  10.830  10.827  11.437
94325SOL     OW84807   3.595  14.117   1.954
94325SOL    HW184808   3.581  14.057   1.881
94325SOL    HW284809   3.507  14.140   1.983
94326SOL     OW84810  12.922   7.948  13.399
94326SOL    HW184811  12.835   7.909  13.409
94326SOL    HW284812  12.979   7.875  13.375
94327SOL     OW84813  11.360   2.675   1.539
94327SOL    HW184814  11.353   2.746   1.476
94327SOL    HW284815  11.433   2.700   1.596
94328SOL     OW84816   9.895   0.331   3.464
94328SOL    HW184817   9.881   0.311   3.371
94328SOL    HW284818   9.814   0.373   3.492
94329SOL     OW84819  13.359  10.911  12.945
94329SOL    HW184820  13.354  11.005  12.964
94329SOL    HW284821  13.374  10.870  13.030
94330SOL     OW84822   7.089   2.717   5.006
94330SOL    HW184823   7.140   2.793   4.979
94330SOL    HW284824   7.088   2.659   4.930
94331SOL     OW84825   7.777   2.868   8.303
94331SOL    HW184826   7.845   2.837   8.243
94331SOL    HW284827   7.785   2.810   8.379
94332SOL     OW84828  12.076   0.746   6.146
94332SOL    HW184829  12.169   0.723   6.135
94332SOL    HW284830  12.054   0.793   6.066
94333SOL     OW84831   0.871   9.142   5.285
94333SOL    HW184832   0.871   9.066   5.344
94333SOL    HW284833   0.961   9.172   5.283
94334SOL     OW84834   2.646  14.204   0.007
94334SOL    HW184835   2.692  14.149  14.823
94334SOL    HW284836   2.686  14.183   0.091
94335SOL     OW84837   6.008  13.957   2.140
94335SOL    HW184838   6.044  13.979   2.054
94335SOL    HW284839   5.979  14.041   2.176
94336SOL     OW84840   5.778   9.240   4.356
94336SOL    HW184841   5.867   9.206   4.365
94336SOL    HW284842   5.752   9.263   4.445
94337SOL     OW84843   9.283   4.411  14.025
94337SOL    HW184844   9.208   4.468  14.012
94337SOL    HW284845   9.281   4.349  13.952
94338SOL     OW84846   2.578   7.334   9.627
94338SOL    HW184847   2.521   7.404   9.658
94338SOL    HW284848   2.527   7.254   9.638
94339SOL     OW84849   0.212  10.347   2.321
94339SOL    HW184850   0.149  10.418   2.325
94339SOL    HW284851   0.273  10.372   2.252
94340SOL     OW84852   1.670   2.543   1.586
94340SOL    HW184853   1.712   2.492   1.655
94340SOL    HW284854   1.576   2.537   1.606
94341SOL     OW84855   5.296   8.938   0.306
94341SOL    HW184856   5.237   8.989   0.250
94341SOL    HW284857   5.374   8.925   0.253
94342SOL     OW84858   8.416   8.186   5.840
94342SOL    HW184859   8.511   8.178   5.835
94342SOL    HW284860   8.388   8.112   5.892
94343SOL     OW84861  11.390  14.740  10.248
94343SOL    HW184862  11.395  14.659  10.198
94343SOL    HW284863  11.463  14.736  10.309
94344SOL     OW84864   9.238  14.717   5.682
94344SOL    HW184865   9.254  14.763   5.764
94344SOL    HW284866   9.146  14.691   5.686
94345SOL     OW84867  10.593   1.668   5.882
94345SOL    HW184868  10.609   1.753   5.842
94345SOL    HW284869  10.504   1.646   5.857
94346SOL     OW84870  12.700  12.628   9.830
94346SOL    HW184871  12.715  12.702   9.771
94346SOL    HW284872  12.735  12.552   9.783
94347SOL     OW84873   5.796   4.335   6.001
94347SOL    HW184874   5.829   4.411   5.953
94347SOL    HW284875   5.856   4.325   6.075
94348SOL     OW84876   2.011   8.709   8.734
94348SOL    HW184877   2.085   8.690   8.792
94348SOL    HW284878   1.958   8.629   8.738
94349SOL     OW84879  13.043  11.739  14.430
94349SOL    HW184880  13.083  11.813  14.384
94349SOL    HW284881  12.963  11.720  14.380
94350SOL     OW84882   6.521   2.392   8.231
94350SOL    HW184883   6.524   2.355   8.319
94350SOL    HW284884   6.444   2.450   8.232
94351SOL     OW84885   6.872   8.278   5.495
94351SOL    HW184886   6.892   8.209   5.431
94351SOL    HW284887   6.813   8.337   5.448
94352SOL     OW84888   1.709   4.378   8.890
94352SOL    HW184889   1.660   4.459   8.872
94352SOL    HW284890   1.683   4.353   8.978
94353SOL     OW84891  11.264   2.661  14.158
94353SOL    HW184892  11.333   2.607  14.121
94353SOL    HW284893  11.245   2.726  14.090
94354SOL     OW84894   3.259  11.449   7.305
94354SOL    HW184895   3.174  11.489   7.318
94354SOL    HW284896   3.243  11.355   7.311
94355SOL     OW84897   7.577   5.797  14.460
94355SOL    HW184898   7.531   5.714  14.469
94355SOL    HW284899   7.602   5.821  14.549
94356SOL     OW84900   6.592   2.567   2.256
94356SOL    HW184901   6.660   2.500   2.256
94356SOL    HW284902   6.639   2.649   2.270
94357SOL     OW84903  11.195  10.719   7.561
94357SOL    HW184904  11.218  10.773   7.637
94357SOL    HW284905  11.123  10.664   7.591
94358SOL     OW84906  12.490   9.165   0.675
94358SOL    HW184907  12.566   9.182   0.619
94358SOL    HW284908  12.426   9.231   0.650
94359SOL     OW84909  14.314   1.939   8.086
94359SOL    HW184910  14.404   1.972   8.086
94359SOL    HW284911  14.323   1.845   8.103
94360SOL     OW84912   2.737   0.573   6.303
94360SOL    HW184913   2.667   0.516   6.336
94360SOL    HW284914   2.796   0.514   6.256
94361SOL     OW84915   0.486  13.996  13.474
94361SOL    HW184916   0.463  13.955  13.390
94361SOL    HW284917   0.465  13.930  13.540
94362SOL     OW84918  12.894   4.556   7.719
94362SOL    HW184919  12.974   4.608   7.731
94362SOL    HW284920  12.917   4.470   7.753
94363SOL     OW84921   3.487  10.022   5.881
94363SOL    HW184922   3.462   9.996   5.970
94363SOL    HW284923   3.417   9.990   5.825
94364SOL     OW84924  13.730   1.228   6.914
94364SOL    HW184925  13.686   1.237   6.998
94364SOL    HW284926  13.814   1.188   6.934
94365SOL     OW84927  12.439   0.107   7.054
94365SOL    HW184928  12.355   0.068   7.027
94365SOL    HW284929  12.418   0.157   7.133
94366SOL     OW84930  10.578  14.638  14.313
94366SOL    HW184931  10.644  14.578  14.348
94366SOL    HW284932  10.595  14.641  14.219
94367SOL     OW84933  14.196   3.293  12.970
94367SOL    HW184934  14.201   3.389  12.967
94367SOL    HW284935  14.284   3.264  12.945
94368SOL     OW84936   8.696   1.279   1.765
94368SOL    HW184937   8.775   1.302   1.814
94368SOL    HW284938   8.710   1.318   1.678
94369SOL     OW84939  12.579   6.059   5.534
94369SOL    HW184940  12.565   6.060   5.629
94369SOL    HW284941  12.650   5.996   5.521
94370SOL     OW84942   7.338  14.543   0.743
94370SOL    HW184943   7.295  14.605   0.684
94370SOL    HW284944   7.430  14.546   0.717
94371SOL     OW84945  13.395   8.995   7.011
94371SOL    HW184946  13.325   9.051   6.980
94371SOL    HW284947  13.473   9.051   7.012
94372SOL     OW84948  13.257   3.672   3.881
94372SOL    HW184949  13.250   3.755   3.929
94372SOL    HW284950  13.191   3.616   3.922
94373SOL     OW84951  10.286  14.389  12.263
94373SOL    HW184952  10.300  14.404  12.170
94373SOL    HW284953  10.267  14.295  12.270
94374SOL     OW84954   1.887   7.318   2.750
94374SOL    HW184955   1.973   7.358   2.741
94374SOL    HW284956   1.869   7.321   2.843
94375SOL     OW84957   7.141  13.862   0.478
94375SOL    HW184958   7.223  13.829   0.441
94375SOL    HW284959   7.073  13.831   0.418
94376SOL     OW84960   5.559   0.853   0.077
94376SOL    HW184961   5.543   0.789   0.008
94376SOL    HW284962   5.512   0.931   0.048
94377SOL     OW84963  11.182  10.110   5.895
94377SOL    HW184964  11.115  10.119   5.963
94377SOL    HW284965  11.147  10.044   5.835
94378SOL     OW84966   1.005  13.243  11.967
94378SOL    HW184967   1.083  13.286  11.933
94378SOL    HW284968   1.001  13.160  11.919
94379SOL     OW84969   5.281   1.918  10.948
94379SOL    HW184970   5.277   1.983  11.017
94379SOL    HW284971   5.191   1.889  10.935
94380SOL     OW84972   7.621   4.463  10.307
94380SOL    HW184973   7.668   4.385  10.277
94380SOL    HW284974   7.681   4.536  10.290
94381SOL     OW84975   9.777   9.453  10.947
94381SOL    HW184976   9.682   9.453  10.938
94381SOL    HW284977   9.808   9.514  10.880
94382SOL     OW84978  11.704  11.824   7.259
94382SOL    HW184979  11.630  11.858   7.209
94382SOL    HW284980  11.780  11.872   7.224
94383SOL     OW84981   2.892   5.826  12.859
94383SOL    HW184982   2.842   5.850  12.781
94383SOL    HW284983   2.974   5.875  12.850
94384SOL     OW84984   0.021   5.992   8.206
94384SOL    HW184985  14.843   5.922   8.174
94384SOL    HW284986   0.062   6.028   8.127
94385SOL     OW84987   9.933   9.272  14.321
94385SOL    HW184988   9.842   9.257  14.297
94385SOL    HW284989   9.962   9.341  14.263
94386SOL     OW84990   6.575   2.911   0.468
94386SOL    HW184991   6.601   2.833   0.418
94386SOL    HW284992   6.657   2.957   0.484
94387SOL     OW84993  13.145  13.463   4.087
94387SOL    HW184994  13.217  13.500   4.137
94387SOL    HW284995  13.076  13.529   4.092
94388SOL     OW84996   1.514   4.583  13.305
94388SOL    HW184997   1.488   4.517  13.370
94388SOL    HW284998   1.509   4.536  13.221
94389SOL     OW84999   5.098   4.872  14.373
94389SOL    HW185000   5.074   4.810  14.304
94389SOL    HW285001   5.138   4.818  14.441
94390SOL     OW85002  10.513   0.822   0.556
94390SOL    HW185003  10.497   0.773   0.476
94390SOL    HW285004  10.438   0.802   0.612
94391SOL     OW85005   8.738  13.574  11.082
94391SOL    HW185006   8.724  13.659  11.122
94391SOL    HW285007   8.650  13.539  11.067
94392SOL     OW85008   0.666  10.894   2.221
94392SOL    HW185009   0.602  10.954   2.261
94392SOL    HW285010   0.618  10.853   2.148
94393SOL     OW85011  10.780  13.325   9.711
94393SOL    HW185012  10.705  13.273   9.739
94393SOL    HW285013  10.741  13.398   9.663
94394SOL     OW85014  11.664   1.994   6.704
94394SOL    HW185015  11.658   2.086   6.731
94394SOL    HW285016  11.757   1.973   6.708
94395SOL     OW85017   7.803   4.987   3.367
94395SOL    HW185018   7.713   4.970   3.398
94395SOL    HW285019   7.807   5.082   3.358
94396SOL     OW85020   4.469  14.275   4.397
94396SOL    HW185021   4.425  14.321   4.326
94396SOL    HW285022   4.550  14.324   4.411
94397SOL     OW85023  10.469   3.006  10.497
94397SOL    HW185024  10.516   3.041  10.573
94397SOL    HW285025  10.385   3.053  10.497
94398SOL     OW85026   4.788  11.549   1.156
94398SOL    HW185027   4.853  11.479   1.161
94398SOL    HW285028   4.836  11.629   1.177
94399SOL     OW85029  11.832  10.509  12.358
94399SOL    HW185030  11.762  10.469  12.306
94399SOL    HW285031  11.818  10.477  12.447
94400SOL     OW85032   5.470  14.232   4.439
94400SOL    HW185033   5.446  14.140   4.430
94400SOL    HW285034   5.438  14.257   4.525
94401SOL     OW85035   8.215   4.272  11.431
94401SOL    HW185036   8.272   4.228  11.368
94401SOL    HW285037   8.234   4.365  11.419
94402SOL     OW85038   0.817   1.988  12.953
94402SOL    HW185039   0.731   2.028  12.969
94402SOL    HW285040   0.879   2.048  12.994
94403SOL     OW85041   9.851  14.070   6.688
94403SOL    HW185042   9.942  14.058   6.716
94403SOL    HW285043   9.801  14.073   6.769
94404SOL     OW85044  13.717  12.194  14.001
94404SOL    HW185045  13.641  12.209  13.946
94404SOL    HW285046  13.688  12.217  14.090
94405SOL     OW85047   2.551  12.813   2.048
94405SOL    HW185048   2.643  12.793   2.032
94405SOL    HW285049   2.537  12.898   2.007
94406SOL     OW85050   3.797  14.297  11.164
94406SOL    HW185051   3.778  14.213  11.123
94406SOL    HW285052   3.882  14.284  11.206
94407SOL     OW85053   5.137   6.843   1.182
94407SOL    HW185054   5.137   6.763   1.235
94407SOL    HW285055   5.192   6.904   1.230
94408SOL     OW85056   7.884   5.107   8.595
94408SOL    HW185057   7.911   5.096   8.686
94408SOL    HW285058   7.933   5.183   8.565
94409SOL     OW85059  11.216   5.998   9.070
94409SOL    HW185060  11.197   5.936   9.140
94409SOL    HW285061  11.130   6.023   9.036
94410SOL     OW85062   9.878   9.147  13.198
94410SOL    HW185063   9.856   9.085  13.128
94410SOL    HW285064   9.945   9.102  13.250
94411SOL     OW85065  10.960  14.562  14.223
94411SOL    HW185066  10.965  14.650  14.186
94411SOL    HW285067  10.956  14.504  14.147
94412SOL     OW85068   3.053   8.355   9.296
94412SOL    HW185069   3.015   8.289   9.354
94412SOL    HW285070   3.146   8.353   9.316
94413SOL     OW85071  13.925   7.241   8.768
94413SOL    HW185072  13.884   7.323   8.798
94413SOL    HW285073  13.981   7.215   8.841
94414SOL     OW85074  13.468   9.666   9.560
94414SOL    HW185075  13.454   9.677   9.466
94414SOL    HW285076  13.394   9.612   9.589
94415SOL     OW85077   1.324   0.582   8.148
94415SOL    HW185078   1.331   0.527   8.226
94415SOL    HW285079   1.414   0.607   8.128
94416SOL     OW85080  13.538   4.738  12.123
94416SOL    HW185081  13.521   4.821  12.078
94416SOL    HW285082  13.481   4.742  12.200
94417SOL     OW85083  11.435   0.082   9.824
94417SOL    HW185084  11.381   0.100   9.747
94417SOL    HW285085  11.374   0.087   9.898
94418SOL     OW85086  11.895   8.149   8.264
94418SOL    HW185087  11.836   8.130   8.338
94418SOL    HW285088  11.911   8.243   8.270
94419SOL     OW85089   1.279   1.733  10.482
94419SOL    HW185090   1.296   1.677  10.558
94419SOL    HW285091   1.327   1.814  10.501
94420SOL     OW85092   0.837   4.257   3.724
94420SOL    HW185093   0.786   4.179   3.743
94420SOL    HW285094   0.773   4.328   3.718
94421SOL     OW85095  10.091  11.782   4.368
94421SOL    HW185096  10.134  11.711   4.414
94421SOL    HW285097  10.099  11.760   4.275
94422SOL     OW85098  10.510   6.778   9.345
94422SOL    HW185099  10.533   6.783   9.252
94422SOL    HW285100  10.419   6.748   9.345
94423SOL     OW85101  13.747   5.027  12.363
94423SOL    HW185102  13.723   5.064  12.278
94423SOL    HW285103  13.674   5.047  12.421
94424SOL     OW85104   3.472   1.575   1.786
94424SOL    HW185105   3.455   1.496   1.735
94424SOL    HW285106   3.398   1.580   1.847
94425SOL     OW85107  13.713   7.094   7.188
94425SOL    HW185108  13.683   7.136   7.107
94425SOL    HW285109  13.644   7.111   7.251
94426SOL     OW85110   8.310   4.084   9.670
94426SOL    HW185111   8.378   4.045   9.724
94426SOL    HW285112   8.327   4.051   9.582
94427SOL     OW85113   2.154  10.934  14.618
94427SOL    HW185114   2.227  10.882  14.586
94427SOL    HW285115   2.165  10.934  14.714
94428SOL     OW85116   8.305   0.144  11.026
94428SOL    HW185117   8.355   0.080  11.077
94428SOL    HW285118   8.237   0.175  11.086
94429SOL     OW85119   8.658   5.843  11.055
94429SOL    HW185120   8.588   5.779  11.048
94429SOL    HW285121   8.739   5.791  11.055
94430SOL     OW85122   0.460   9.400   3.045
94430SOL    HW185123   0.516   9.368   3.115
94430SOL    HW285124   0.386   9.441   3.090
94431SOL     OW85125  12.417   6.899  13.114
94431SOL    HW185126  12.502   6.856  13.118
94431SOL    HW285127  12.355   6.834  13.147
94432SOL     OW85128   2.864   9.814  12.559
94432SOL    HW185129   2.936   9.758  12.531
94432SOL    HW285130   2.785   9.767  12.533
94433SOL     OW85131  11.992  10.036   3.580
94433SOL    HW185132  11.901  10.050   3.605
94433SOL    HW285133  12.022   9.966   3.637
94434SOL     OW85134  14.517   0.900   0.018
94434SOL    HW185135  14.466   0.880  14.818
94434SOL    HW285136  14.474   0.978   0.055
94435SOL     OW85137   2.264   3.558  11.258
94435SOL    HW185138   2.319   3.565  11.180
94435SOL    HW285139   2.268   3.466  11.282
94436SOL     OW85140   0.547   1.497  10.357
94436SOL    HW185141   0.542   1.547  10.439
94436SOL    HW285142   0.473   1.528  10.306
94437SOL     OW85143  10.185   2.634  14.685
94437SOL    HW185144  10.232   2.713  14.658
94437SOL    HW285145  10.253   2.569  14.701
94438SOL     OW85146  12.625   5.196   1.444
94438SOL    HW185147  12.625   5.282   1.402
94438SOL    HW285148  12.533   5.175   1.455
94439SOL     OW85149   0.566   5.924  12.488
94439SOL    HW185150   0.650   5.881  12.500
94439SOL    HW285151   0.545   5.960  12.574
94440SOL     OW85152   1.725  13.431   8.475
94440SOL    HW185153   1.756  13.522   8.480
94440SOL    HW285154   1.683  13.425   8.389
94441SOL     OW85155   7.370   0.871   1.527
94441SOL    HW185156   7.279   0.860   1.555
94441SOL    HW285157   7.399   0.950   1.572
94442SOL     OW85158   9.732   5.621   9.017
94442SOL    HW185159   9.702   5.530   9.011
94442SOL    HW285160   9.651   5.672   9.027
94443SOL     OW85161   1.745  14.164   0.403
94443SOL    HW185162   1.685  14.089   0.403
94443SOL    HW285163   1.791  14.158   0.486
94444SOL     OW85164   5.537   7.897   2.724
94444SOL    HW185165   5.567   7.949   2.798
94444SOL    HW285166   5.587   7.931   2.649
94445SOL     OW85167  11.887   1.463   6.198
94445SOL    HW185168  11.916   1.374   6.217
94445SOL    HW285169  11.967   1.512   6.181
94446SOL     OW85170  11.813   8.388   7.063
94446SOL    HW185171  11.728   8.396   7.020
94446SOL    HW285172  11.867   8.456   7.022
94447SOL     OW85173   6.932  11.065   4.664
94447SOL    HW185174   6.893  10.999   4.721
94447SOL    HW285175   6.971  11.128   4.724
94448SOL     OW85176  13.128   3.987   0.169
94448SOL    HW185177  13.173   3.912   0.208
94448SOL    HW285178  13.041   3.988   0.210
94449SOL     OW85179  14.739   6.088  12.276
94449SOL    HW185180  14.791   6.110  12.198
94449SOL    HW285181  14.783   6.011  12.313
94450SOL     OW85182   1.926   5.524  14.875
94450SOL    HW185183   1.838   5.535   0.030
94450SOL    HW285184   1.956   5.614  14.857
94451SOL     OW85185  14.598   0.478   1.174
94451SOL    HW185186  14.673   0.430   1.140
94451SOL    HW285187  14.635   0.552   1.221
94452SOL     OW85188   5.491   4.015   9.719
94452SOL    HW185189   5.586   4.016   9.714
94452SOL    HW285190   5.463   4.069   9.645
94453SOL     OW85191   9.069   7.742  12.796
94453SOL    HW185192   9.016   7.689  12.737
94453SOL    HW285193   9.086   7.686  12.872
94454SOL     OW85194   0.987   3.967   7.995
94454SOL    HW185195   0.904   3.919   7.997
94454SOL    HW285196   1.016   3.967   8.086
94455SOL     OW85197  12.863   9.928  10.475
94455SOL    HW185198  12.824  10.004  10.432
94455SOL    HW285199  12.895   9.873  10.404
94456SOL     OW85200   8.697   5.424   6.127
94456SOL    HW185201   8.769   5.465   6.175
94456SOL    HW285202   8.620   5.477   6.149
94457SOL     OW85203   6.412   7.589  13.380
94457SOL    HW185204   6.329   7.599  13.425
94457SOL    HW285205   6.458   7.521  13.429
94458SOL     OW85206   2.749   2.036   6.463
94458SOL    HW185207   2.823   2.088   6.495
94458SOL    HW285208   2.785   1.949   6.447
94459SOL     OW85209   2.505   2.397   2.149
94459SOL    HW185210   2.588   2.445   2.153
94459SOL    HW285211   2.443   2.452   2.197
94460SOL     OW85212  10.817   8.149   8.788
94460SOL    HW185213  10.823   8.065   8.743
94460SOL    HW285214  10.734   8.185   8.758
94461SOL     OW85215  13.744   7.119   8.177
94461SOL    HW185216  13.803   7.161   8.114
94461SOL    HW285217  13.802   7.093   8.250
94462SOL     OW85218  10.994  14.604   2.246
94462SOL    HW185219  10.950  14.539   2.301
94462SOL    HW285220  10.982  14.573   2.157
94463SOL     OW85221  14.006   5.154   7.881
94463SOL    HW185222  13.984   5.182   7.792
94463SOL    HW285223  14.055   5.073   7.870
94464SOL     OW85224   7.582  12.513  10.049
94464SOL    HW185225   7.629  12.595  10.036
94464SOL    HW285226   7.630  12.448   9.998
94465SOL     OW85227   3.915  12.749   4.556
94465SOL    HW185228   3.906  12.844   4.564
94465SOL    HW285229   3.903  12.731   4.463
94466SOL     OW85230  11.327   8.336  12.989
94466SOL    HW185231  11.420   8.357  12.997
94466SOL    HW285232  11.319   8.249  13.027
94467SOL     OW85233   0.747  14.820  13.140
94467SOL    HW185234   0.680  14.766  13.098
94467SOL    HW285235   0.801  14.756  13.187
94468SOL     OW85236  10.312  13.383   2.690
94468SOL    HW185237  10.356  13.440   2.627
94468SOL    HW285238  10.261  13.443   2.745
94469SOL     OW85239   9.172   8.917  13.569
94469SOL    HW185240   9.141   8.951  13.653
94469SOL    HW285241   9.204   8.993  13.522
94470SOL     OW85242   3.900  13.518   4.984
94470SOL    HW185243   3.833  13.510   5.052
94470SOL    HW285244   3.896  13.435   4.937
94471SOL     OW85245  13.775   2.522  10.157
94471SOL    HW185246  13.690   2.524  10.201
94471SOL    HW285247  13.817   2.605  10.180
94472SOL     OW85248   3.923   8.190   3.933
94472SOL    HW185249   3.875   8.108   3.948
94472SOL    HW285250   4.002   8.181   3.986
94473SOL     OW85251   0.222  11.378   3.126
94473SOL    HW185252   0.234  11.471   3.141
94473SOL    HW285253   0.156  11.351   3.190
94474SOL     OW85254   0.137   4.403   0.892
94474SOL    HW185255   0.065   4.463   0.909
94474SOL    HW285256   0.097   4.316   0.895
94475SOL     OW85257  10.959  14.569   0.188
94475SOL    HW185258  11.026  14.504   0.164
94475SOL    HW285259  10.876  14.528   0.163
94476SOL     OW85260   2.990  10.069   0.954
94476SOL    HW185261   3.026  10.040   1.038
94476SOL    HW285262   3.033  10.013   0.889
94477SOL     OW85263   7.518  11.610   1.610
94477SOL    HW185264   7.523  11.656   1.695
94477SOL    HW285265   7.570  11.531   1.623
94478SOL     OW85266  10.759   9.844   5.500
94478SOL    HW185267  10.693   9.885   5.558
94478SOL    HW285268  10.811   9.789   5.558
94479SOL     OW85269   0.011   3.299   7.248
94479SOL    HW185270  14.828   3.308   7.175
94479SOL    HW285271   0.094   3.275   7.206
94480SOL     OW85272   3.956   9.118   4.472
94480SOL    HW185273   3.989   9.098   4.560
94480SOL    HW285274   4.017   9.073   4.413
94481SOL     OW85275  12.327  12.949   1.086
94481SOL    HW185276  12.388  12.876   1.079
94481SOL    HW285277  12.383  13.024   1.106
94482SOL     OW85278   0.479   1.155   1.868
94482SOL    HW185279   0.541   1.082   1.876
94482SOL    HW285280   0.511   1.221   1.930
94483SOL     OW85281   5.291  13.642  11.387
94483SOL    HW185282   5.230  13.590  11.439
94483SOL    HW285283   5.258  13.732  11.393
94484SOL     OW85284  10.218  11.261   8.695
94484SOL    HW185285  10.262  11.336   8.735
94484SOL    HW285286  10.287  11.216   8.647
94485SOL     OW85287  11.870   6.096   9.720
94485SOL    HW185288  11.833   6.183   9.731
94485SOL    HW285289  11.931   6.105   9.646
94486SOL     OW85290   6.144  11.156   1.554
94486SOL    HW185291   6.139  11.244   1.590
94486SOL    HW285292   6.222  11.118   1.596
94487SOL     OW85293   3.878   0.970   4.091
94487SOL    HW185294   3.908   0.906   4.026
94487SOL    HW285295   3.956   1.019   4.114
94488SOL     OW85296   9.632   0.842  12.783
94488SOL    HW185297   9.679   0.783  12.841
94488SOL    HW285298   9.687   0.850  12.706
94489SOL     OW85299   9.311   8.864  12.094
94489SOL    HW185300   9.313   8.839  12.186
94489SOL    HW285301   9.378   8.933  12.087
94490SOL     OW85302  12.066   6.190   3.697
94490SOL    HW185303  12.062   6.098   3.674
94490SOL    HW285304  11.982   6.226   3.667
94491SOL     OW85305  12.766   0.690   0.388
94491SOL    HW185306  12.839   0.659   0.441
94491SOL    HW285307  12.808   0.738   0.316
94492SOL     OW85308   2.987   3.174   3.692
94492SOL    HW185309   2.892   3.186   3.686
94492SOL    HW285310   3.022   3.263   3.688
94493SOL     OW85311  10.738   2.215   6.052
94493SOL    HW185312  10.670   2.155   6.084
94493SOL    HW285313  10.807   2.211   6.118
94494SOL     OW85314  11.656   7.149   1.215
94494SOL    HW185315  11.566   7.115   1.213
94494SOL    HW285316  11.662   7.204   1.136
94495SOL     OW85317   8.702   0.114   4.805
94495SOL    HW185318   8.781   0.146   4.762
94495SOL    HW285319   8.708   0.146   4.895
94496SOL     OW85320  13.326   2.107   0.488
94496SOL    HW185321  13.285   2.177   0.437
94496SOL    HW285322  13.413   2.141   0.510
94497SOL     OW85323   4.294   3.952   1.108
94497SOL    HW185324   4.316   4.041   1.133
94497SOL    HW285325   4.293   3.954   1.012
94498SOL     OW85326  11.659  10.688  14.738
94498SOL    HW185327  11.683  10.632  14.664
94498SOL    HW285328  11.597  10.635  14.789
94499SOL     OW85329  11.192   2.343   2.485
94499SOL    HW185330  11.161   2.417   2.434
94499SOL    HW285331  11.283   2.331   2.458
94500SOL     OW85332   8.554   7.737   9.159
94500SOL    HW185333   8.523   7.763   9.072
94500SOL    HW285334   8.628   7.678   9.141
94501SOL     OW85335   4.840  14.719   2.980
94501SOL    HW185336   4.792  14.670   3.046
94501SOL    HW285337   4.878  14.652   2.923
94502SOL     OW85338  11.843   8.073   0.136
94502SOL    HW185339  11.789   8.075   0.215
94502SOL    HW285340  11.846   7.980   0.112
94503SOL     OW85341   7.937   1.798   9.048
94503SOL    HW185342   8.020   1.838   9.072
94503SOL    HW285343   7.944   1.707   9.078
94504SOL     OW85344   8.758  10.047   5.207
94504SOL    HW185345   8.697   9.985   5.169
94504SOL    HW285346   8.769  10.115   5.140
94505SOL     OW85347   0.088   4.856   6.186
94505SOL    HW185348   0.044   4.889   6.108
94505SOL    HW285349   0.056   4.912   6.257
94506SOL     OW85350   4.027   5.604   2.301
94506SOL    HW185351   3.974   5.629   2.377
94506SOL    HW285352   3.998   5.516   2.279
94507SOL     OW85353  14.350   1.644   0.929
94507SOL    HW185354  14.394   1.725   0.955
94507SOL    HW285355  14.258   1.660   0.950
94508SOL     OW85356  12.889  13.384   6.750
94508SOL    HW185357  12.898  13.421   6.838
94508SOL    HW285358  12.953  13.432   6.697
94509SOL     OW85359  11.105  14.836  10.355
94509SOL    HW185360  11.079  14.866  10.268
94509SOL    HW285361  11.193  14.800  10.343
94510SOL     OW85362  14.278   5.672   0.542
94510SOL    HW185363  14.279   5.738   0.611
94510SOL    HW285364  14.268   5.722   0.461
94511SOL     OW85365   6.237  12.186   3.549
94511SOL    HW185366   6.230  12.091   3.544
94511SOL    HW285367   6.221  12.206   3.641
94512SOL     OW85368   9.056  13.624  14.101
94512SOL    HW185369   9.040  13.537  14.136
94512SOL    HW285370   8.975  13.647  14.055
94513SOL     OW85371  14.435  12.149   5.193
94513SOL    HW185372  14.431  12.103   5.277
94513SOL    HW285373  14.352  12.130   5.151
94514SOL     OW85374   9.060  11.971   4.901
94514SOL    HW185375   9.135  11.911   4.906
94514SOL    HW285376   9.073  12.032   4.974
94515SOL     OW85377   5.065   3.208   1.069
94515SOL    HW185378   5.030   3.182   0.983
94515SOL    HW285379   5.131   3.274   1.049
94516SOL     OW85380  11.687   3.899   4.084
94516SOL    HW185381  11.739   3.897   4.164
94516SOL    HW285382  11.719   3.824   4.033
94517SOL     OW85383  10.077   8.203   7.579
94517SOL    HW185384  10.076   8.236   7.490
94517SOL    HW285385  10.055   8.110   7.570
94518SOL     OW85386   3.572   4.086   0.337
94518SOL    HW185387   3.536   4.148   0.273
94518SOL    HW285388   3.498   4.029   0.359
94519SOL     OW85389  11.763   5.871   8.368
94519SOL    HW185390  11.674   5.838   8.355
94519SOL    HW285391  11.779   5.927   8.292
94520SOL     OW85392   7.127   9.428   7.181
94520SOL    HW185393   7.203   9.444   7.126
94520SOL    HW285394   7.161   9.428   7.271
94521SOL     OW85395   9.738   2.865   2.972
94521SOL    HW185396   9.730   2.953   3.009
94521SOL    HW285397   9.688   2.869   2.890
94522SOL     OW85398  12.161  10.413  11.337
94522SOL    HW185399  12.086  10.372  11.296
94522SOL    HW285400  12.130  10.499  11.364
94523SOL     OW85401   0.577  10.078   8.925
94523SOL    HW185402   0.564  10.171   8.905
94523SOL    HW285403   0.489  10.046   8.946
94524SOL     OW85404   8.488   3.519  12.133
94524SOL    HW185405   8.420   3.562  12.082
94524SOL    HW285406   8.551   3.588  12.152
94525SOL     OW85407   2.911  12.404  10.077
94525SOL    HW185408   2.989  12.353  10.055
94525SOL    HW285409   2.945  12.479  10.126
94526SOL     OW85410  12.194  14.683   2.889
94526SOL    HW185411  12.187  14.588   2.900
94526SOL    HW285412  12.282  14.697   2.854
94527SOL     OW85413   3.851   9.116   1.232
94527SOL    HW185414   3.872   9.153   1.318
94527SOL    HW285415   3.925   9.058   1.213
94528SOL     OW85416  13.601   2.383  13.299
94528SOL    HW185417  13.684   2.419  13.332
94528SOL    HW285418  13.623   2.292  13.276
94529SOL     OW85419   7.808  12.104   2.484
94529SOL    HW185420   7.717  12.130   2.473
94529SOL    HW285421   7.806  12.031   2.545
94530SOL     OW85422   1.498   8.576   4.577
94530SOL    HW185423   1.485   8.492   4.531
94530SOL    HW285424   1.587   8.602   4.554
94531SOL     OW85425  10.465  14.239   3.141
94531SOL    HW185426  10.449  14.333   3.146
94531SOL    HW285427  10.479  14.212   3.232
94532SOL     OW85428   4.180   2.622   9.026
94532SOL    HW185429   4.127   2.543   9.014
94532SOL    HW285430   4.140   2.667   9.100
94533SOL     OW85431   8.677   0.005   2.966
94533SOL    HW185432   8.733   0.069   3.009
94533SOL    HW285433   8.588   0.035   2.983
94534SOL     OW85434   8.747   7.770   9.373
94534SOL    HW185435   8.764   7.676   9.385
94534SOL    HW285436   8.695   7.774   9.293
94535SOL     OW85437   2.546   0.308   2.488
94535SOL    HW185438   2.618   0.370   2.477
94535SOL    HW285439   2.576   0.228   2.444
94536SOL     OW85440  12.533   8.826  13.526
94536SOL    HW185441  12.616   8.829  13.574
94536SOL    HW285442  12.469   8.860  13.588
94537SOL     OW85443  13.303   6.068   7.282
94537SOL    HW185444  13.251   6.069   7.363
94537SOL    HW285445  13.278   5.986   7.239
94538SOL     OW85446   0.137   4.165   0.541
94538SOL    HW185447   0.123   4.075   0.510
94538SOL    HW285448   0.052   4.193   0.575
94539SOL     OW85449   7.617   6.805  12.156
94539SOL    HW185450   7.686   6.741  12.177
94539SOL    HW285451   7.637   6.880  12.212
94540SOL     OW85452   2.897   4.634   1.559
94540SOL    HW185453   2.825   4.698   1.559
94540SOL    HW285454   2.902   4.604   1.468
94541SOL     OW85455  11.239   0.457   6.455
94541SOL    HW185456  11.218   0.484   6.544
94541SOL    HW285457  11.322   0.499   6.435
94542SOL     OW85458   7.215   1.503   0.833
94542SOL    HW185459   7.285   1.543   0.884
94542SOL    HW285460   7.260   1.447   0.770
94543SOL     OW85461   0.415  10.101  11.736
94543SOL    HW185462   0.439  10.152  11.814
94543SOL    HW285463   0.498  10.061  11.708
94544SOL     OW85464   5.998   3.230  12.175
94544SOL    HW185465   5.931   3.298  12.186
94544SOL    HW285466   6.072   3.276  12.136
94545SOL     OW85467   7.649   0.655  13.268
94545SOL    HW185468   7.659   0.560  13.253
94545SOL    HW285469   7.604   0.687  13.190
94546SOL     OW85470  14.029   0.580   5.096
94546SOL    HW185471  14.036   0.510   5.160
94546SOL    HW285472  13.935   0.584   5.076
94547SOL     OW85473  13.211   8.827  10.076
94547SOL    HW185474  13.178   8.821   9.987
94547SOL    HW285475  13.306   8.816  10.067
94548SOL     OW85476   7.644   5.705   3.638
94548SOL    HW185477   7.704   5.758   3.690
94548SOL    HW285478   7.591   5.659   3.703
94549SOL     OW85479   0.673  14.582   3.571
94549SOL    HW185480   0.629  14.564   3.654
94549SOL    HW285481   0.673  14.498   3.525
94550SOL     OW85482   0.061  13.736   0.532
94550SOL    HW185483  14.866  13.796   0.522
94550SOL    HW285484   0.116  13.753   0.456
94551SOL     OW85485  11.416  14.730   1.326
94551SOL    HW185486  11.482  14.767   1.385
94551SOL    HW285487  11.384  14.652   1.371
94552SOL     OW85488  11.866  11.625   0.319
94552SOL    HW185489  11.780  11.596   0.288
94552SOL    HW285490  11.926  11.555   0.293
94553SOL     OW85491   7.541  14.227  14.638
94553SOL    HW185492   7.446  14.237  14.625
94553SOL    HW285493   7.572  14.186  14.558
94554SOL     OW85494  13.404  11.453   5.532
94554SOL    HW185495  13.314  11.434   5.560
94554SOL    HW285496  13.409  11.548   5.528
94555SOL     OW85497   0.012  13.743   2.956
94555SOL    HW185498   0.055  13.791   3.028
94555SOL    HW285499  14.838  13.677   3.001
94556SOL     OW85500   2.148   2.501   1.059
94556SOL    HW185501   2.079   2.442   1.030
94556SOL    HW285502   2.102   2.572   1.103
94557SOL     OW85503   6.270  14.309   9.534
94557SOL    HW185504   6.335  14.259   9.483
94557SOL    HW285505   6.186  14.278   9.501
94558SOL     OW85506  13.426  10.917  13.681
94558SOL    HW185507  13.449  10.932  13.589
94558SOL    HW285508  13.341  10.959  13.692
94559SOL     OW85509   1.595   1.658   5.830
94559SOL    HW185510   1.680   1.616   5.839
94559SOL    HW285511   1.554   1.615   5.755
94560SOL     OW85512   3.518   7.326  12.990
94560SOL    HW185513   3.481   7.285  12.912
94560SOL    HW285514   3.478   7.278  13.063
94561SOL     OW85515  13.112   9.233   0.748
94561SOL    HW185516  13.154   9.314   0.780
94561SOL    HW285517  13.180   9.192   0.694
94562SOL     OW85518   4.319  10.308  11.628
94562SOL    HW185519   4.340  10.235  11.685
94562SOL    HW285520   4.349  10.280  11.541
94563SOL     OW85521  10.901  12.571   5.315
94563SOL    HW185522  10.982  12.553   5.363
94563SOL    HW285523  10.885  12.665   5.329
94564SOL     OW85524   1.589   9.378  10.623
94564SOL    HW185525   1.607   9.418  10.538
94564SOL    HW285526   1.545   9.447  10.674
94565SOL     OW85527  10.731   4.403   5.748
94565SOL    HW185528  10.715   4.310   5.760
94565SOL    HW285529  10.763   4.411   5.658
94566SOL     OW85530  10.929   0.970  14.444
94566SOL    HW185531  10.845   1.001  14.409
94566SOL    HW285532  10.972   0.929  14.368
94567SOL     OW85533   7.815   8.810   3.869
94567SOL    HW185534   7.840   8.821   3.960
94567SOL    HW285535   7.768   8.890   3.847
94568SOL     OW85536   7.748  11.543  14.468
94568SOL    HW185537   7.783  11.456  14.485
94568SOL    HW285538   7.754  11.553  14.373
94569SOL     OW85539  10.625  14.849   3.043
94569SOL    HW185540  10.614  14.754   3.048
94569SOL    HW285541  10.716  14.864   3.068
94570SOL     OW85542   2.185  13.710  12.061
94570SOL    HW185543   2.169  13.653  11.986
94570SOL    HW285544   2.111  13.692  12.120
94571SOL     OW85545  12.543  12.333   4.326
94571SOL    HW185546  12.551  12.296   4.413
94571SOL    HW285547  12.633  12.346   4.296
94572SOL     OW85548   3.531   3.975  12.509
94572SOL    HW185549   3.581   4.050  12.540
94572SOL    HW285550   3.552   3.905  12.571
94573SOL     OW85551  10.866   6.241   0.550
94573SOL    HW185552  10.833   6.174   0.609
94573SOL    HW285553  10.935   6.198   0.500
94574SOL     OW85554   0.764  10.745   4.158
94574SOL    HW185555   0.718  10.721   4.239
94574SOL    HW285556   0.728  10.685   4.092
94575SOL     OW85557   4.017   9.400   4.372
94575SOL    HW185558   4.006   9.313   4.411
94575SOL    HW285559   4.108   9.402   4.342
94576SOL     OW85560  12.718   7.900   6.815
94576SOL    HW185561  12.642   7.848   6.788
94576SOL    HW285562  12.683   7.961   6.880
94577SOL     OW85563   6.993   2.751  14.225
94577SOL    HW185564   6.981   2.763  14.319
94577SOL    HW285565   6.911   2.714  14.195
94578SOL     OW85566   5.136   5.718   2.374
94578SOL    HW185567   5.154   5.636   2.329
94578SOL    HW285568   5.164   5.703   2.464
94579SOL     OW85569  14.215   9.163  12.387
94579SOL    HW185570  14.251   9.251  12.376
94579SOL    HW285571  14.134   9.176  12.436
94580SOL     OW85572  11.811   9.945   7.092
94580SOL    HW185573  11.745  10.007   7.124
94580SOL    HW285574  11.818   9.964   6.998
94581SOL     OW85575   9.084  11.911  12.664
94581SOL    HW185576   9.111  11.991  12.708
94581SOL    HW285577   9.142  11.906  12.587
94582SOL     OW85578   0.759  13.867  10.314
94582SOL    HW185579   0.723  13.814  10.244
94582SOL    HW285580   0.841  13.824  10.338
94583SOL     OW85581   8.002   1.585   1.877
94583SOL    HW185582   7.935   1.652   1.891
94583SOL    HW285583   7.997   1.530   1.955
94584SOL     OW85584   3.986   6.215   4.230
94584SOL    HW185585   3.910   6.186   4.179
94584SOL    HW285586   3.961   6.200   4.321
94585SOL     OW85587   9.831  11.636  13.373
94585SOL    HW185588   9.907  11.695  13.372
94585SOL    HW285589   9.767  11.680  13.318
94586SOL     OW85590   9.153   2.435   6.577
94586SOL    HW185591   9.241   2.441   6.539
94586SOL    HW285592   9.154   2.354   6.628
94587SOL     OW85593  10.730  11.392  10.574
94587SOL    HW185594  10.659  11.394  10.638
94587SOL    HW285595  10.803  11.436  10.617
94588SOL     OW85596   3.900  13.907   8.618
94588SOL    HW185597   3.865  13.828   8.659
94588SOL    HW285598   3.825  13.966   8.611
94589SOL     OW85599   0.072   7.921  10.190
94589SOL    HW185600   0.096   7.939  10.099
94589SOL    HW285601  14.855   7.922  10.191
94590SOL     OW85602   4.011   7.642   2.614
94590SOL    HW185603   4.071   7.661   2.686
94590SOL    HW285604   4.023   7.548   2.596
94591SOL     OW85605   9.971  12.157   2.996
94591SOL    HW185606  10.034  12.176   3.065
94591SOL    HW285607   9.924  12.239   2.982
94592SOL     OW85608  13.643   1.861   6.624
94592SOL    HW185609  13.694   1.942   6.623
94592SOL    HW285610  13.706   1.793   6.647
94593SOL     OW85611   2.090  12.067   7.894
94593SOL    HW185612   2.139  12.103   7.820
94593SOL    HW285613   2.031  12.138   7.919
94594SOL     OW85614  11.394   2.705  12.923
94594SOL    HW185615  11.462   2.644  12.953
94594SOL    HW285616  11.316   2.680  12.973
94595SOL     OW85617  13.651   5.166   6.053
94595SOL    HW185618  13.745   5.148   6.051
94595SOL    HW285619  13.641   5.248   6.003
94596SOL     OW85620  14.390   8.295   3.313
94596SOL    HW185621  14.400   8.362   3.245
94596SOL    HW285622  14.408   8.342   3.395
94597SOL     OW85623   7.590   9.408  10.573
94597SOL    HW185624   7.525   9.436  10.638
94597SOL    HW285625   7.655   9.479  10.573
94598SOL     OW85626   0.207   1.385  10.924
94598SOL    HW185627   0.223   1.378  10.830
94598SOL    HW285628   0.293   1.372  10.964
94599SOL     OW85629   0.281   8.366  13.913
94599SOL    HW185630   0.354   8.402  13.862
94599SOL    HW285631   0.266   8.430  13.982
94600SOL     OW85632   6.137   9.136  12.080
94600SOL    HW185633   6.117   9.223  12.115
94600SOL    HW285634   6.090   9.132  11.997
94601SOL     OW85635  12.385   3.737  13.912
94601SOL    HW185636  12.289   3.739  13.905
94601SOL    HW285637  12.410   3.829  13.925
94602SOL     OW85638   1.303   9.431   1.376
94602SOL    HW185639   1.281   9.381   1.455
94602SOL    HW285640   1.398   9.435   1.375
94603SOL     OW85641  14.242   8.781  12.453
94603SOL    HW185642  14.195   8.779  12.369
94603SOL    HW285643  14.278   8.692  12.462
94604SOL     OW85644   8.579   6.472   5.975
94604SOL    HW185645   8.607   6.518   5.896
94604SOL    HW285646   8.555   6.542   6.036
94605SOL     OW85647   8.670   1.462  12.113
94605SOL    HW185648   8.750   1.514  12.102
94605SOL    HW285649   8.628   1.465  12.027
94606SOL     OW85650  14.644   9.326   5.448
94606SOL    HW185651  14.639   9.331   5.543
94606SOL    HW285652  14.577   9.386   5.417
94607SOL     OW85653  13.657  13.628   8.646
94607SOL    HW185654  13.622  13.702   8.697
94607SOL    HW285655  13.745  13.656   8.622
94608SOL     OW85656   9.242  14.254   3.282
94608SOL    HW185657   9.316  14.256   3.343
94608SOL    HW285658   9.175  14.310   3.322
94609SOL     OW85659  10.413  13.851   2.776
94609SOL    HW185660  10.369  13.926   2.818
94609SOL    HW285661  10.499  13.885   2.750
94610SOL     OW85662   9.814   6.288  12.217
94610SOL    HW185663   9.892   6.255  12.262
94610SOL    HW285664   9.848   6.348  12.150
94611SOL     OW85665   3.268   4.153  10.322
94611SOL    HW185666   3.248   4.235  10.277
94611SOL    HW285667   3.338   4.113  10.270
94612SOL     OW85668   1.095  13.764   8.750
94612SOL    HW185669   1.132  13.832   8.695
94612SOL    HW285670   1.000  13.778   8.746
94613SOL     OW85671  10.082   3.601  13.527
94613SOL    HW185672  10.112   3.511  13.537
94613SOL    HW285673   9.998   3.603  13.572
94614SOL     OW85674   4.062   3.291   4.354
94614SOL    HW185675   4.010   3.217   4.386
94614SOL    HW285676   4.153   3.266   4.373
94615SOL     OW85677   6.969   4.770  10.403
94615SOL    HW185678   7.021   4.843  10.437
94615SOL    HW285679   7.021   4.737  10.329
94616SOL     OW85680   4.288   2.759   3.175
94616SOL    HW185681   4.373   2.754   3.132
94616SOL    HW285682   4.298   2.708   3.255
94617SOL     OW85683  10.093   4.475   8.901
94617SOL    HW185684  10.120   4.546   8.958
94617SOL    HW285685  10.033   4.423   8.955
94618SOL     OW85686   3.445   4.232   5.471
94618SOL    HW185687   3.528   4.269   5.439
94618SOL    HW285688   3.468   4.191   5.555
94619SOL     OW85689   0.346   1.288   9.442
94619SOL    HW185690   0.333   1.206   9.394
94619SOL    HW285691   0.426   1.274   9.493
94620SOL     OW85692   8.403  12.271  13.986
94620SOL    HW185693   8.310  12.259  14.007
94620SOL    HW285694   8.413  12.233  13.899
94621SOL     OW85695   3.817   4.310  13.109
94621SOL    HW185696   3.729   4.345  13.096
94621SOL    HW285697   3.854   4.361  13.181
94622SOL     OW85698  12.102  14.423  10.088
94622SOL    HW185699  12.160  14.449  10.160
94622SOL    HW285700  12.069  14.338  10.114
94623SOL     OW85701   6.957   1.652   6.617
94623SOL    HW185702   6.893   1.689   6.556
94623SOL    HW285703   6.905   1.617   6.688
94624SOL     OW85704   7.781   3.221  10.955
94624SOL    HW185705   7.835   3.259  11.024
94624SOL    HW285706   7.715   3.288  10.937
94625SOL     OW85707   3.058   9.267   5.200
94625SOL    HW185708   3.151   9.263   5.177
94625SOL    HW285709   3.051   9.346   5.255
94626SOL     OW85710  10.987   9.363  11.776
94626SOL    HW185711  10.971   9.283  11.725
94626SOL    HW285712  11.071   9.346  11.820
94627SOL     OW85713  13.728  12.870   0.908
94627SOL    HW185714  13.706  12.846   0.998
94627SOL    HW285715  13.715  12.965   0.905
94628SOL     OW85716   7.735   4.219  10.558
94628SOL    HW185717   7.808   4.247  10.503
94628SOL    HW285718   7.732   4.282  10.630
94629SOL     OW85719   5.278   4.349   9.703
94629SOL    HW185720   5.243   4.385   9.622
94629SOL    HW285721   5.233   4.397   9.772
94630SOL     OW85722   7.246   5.495  13.600
94630SOL    HW185723   7.224   5.495  13.507
94630SOL    HW285724   7.174   5.447  13.642
94631SOL     OW85725   9.931   3.159   5.752
94631SOL    HW185726   9.866   3.099   5.716
94631SOL    HW285727   9.954   3.122   5.837
94632SOL     OW85728   7.781   8.135   8.195
94632SOL    HW185729   7.777   8.158   8.102
94632SOL    HW285730   7.718   8.062   8.204
94633SOL     OW85731   3.033   8.973  12.973
94633SOL    HW185732   2.950   8.927  12.981
94633SOL    HW285733   3.052   9.004  13.061
94634SOL     OW85734  13.144   3.263   2.802
94634SOL    HW185735  13.190   3.190   2.843
94634SOL    HW285736  13.212   3.326   2.780
94635SOL     OW85737  12.307   4.431  14.760
94635SOL    HW185738  12.257   4.504  14.794
94635SOL    HW285739  12.343   4.388  14.838
94636SOL     OW85740   2.892   4.416  12.314
94636SOL    HW185741   2.982   4.391  12.332
94636SOL    HW285742   2.897   4.508  12.288
94637SOL     OW85743   1.772   7.008   5.790
94637SOL    HW185744   1.863   7.003   5.760
94637SOL    HW285745   1.721   7.021   5.711
94638SOL     OW85746  10.054   9.048   4.412
94638SOL    HW185747  10.037   9.068   4.320
94638SOL    HW285748  10.112   8.972   4.410
94639SOL     OW85749  13.427   9.030  12.224
94639SOL    HW185750  13.488   9.021  12.151
94639SOL    HW285751  13.359   9.089  12.193
94640SOL     OW85752   0.079  10.133   1.562
94640SOL    HW185753   0.143  10.166   1.499
94640SOL    HW285754   0.091  10.188   1.640
94641SOL     OW85755   7.192  11.546  10.370
94641SOL    HW185756   7.204  11.621  10.311
94641SOL    HW285757   7.112  11.567  10.419
94642SOL     OW85758   9.354  12.871   3.863
94642SOL    HW185759   9.313  12.894   3.947
94642SOL    HW285760   9.296  12.805   3.825
94643SOL     OW85761   8.875   9.422   9.957
94643SOL    HW185762   8.842   9.355   9.897
94643SOL    HW285763   8.796   9.454  10.002
94644SOL     OW85764   3.693  12.648   5.177
94644SOL    HW185765   3.720  12.663   5.268
94644SOL    HW285766   3.600  12.625   5.183
94645SOL     OW85767   6.989   3.746   5.492
94645SOL    HW185768   6.899   3.723   5.517
94645SOL    HW285769   6.993   3.728   5.398
94646SOL     OW85770   0.653   3.095   7.662
94646SOL    HW185771   0.630   3.003   7.672
94646SOL    HW285772   0.571   3.142   7.679
94647SOL     OW85773   1.099  10.032   4.934
94647SOL    HW185774   1.113   9.979   5.012
94647SOL    HW285775   1.134   9.979   4.863
94648SOL     OW85776  10.571  13.101   1.529
94648SOL    HW185777  10.626  13.043   1.583
94648SOL    HW285778  10.485  13.060   1.530
94649SOL     OW85779   1.193   7.408   2.363
94649SOL    HW185780   1.205   7.356   2.443
94649SOL    HW285781   1.106   7.384   2.332
94650SOL     OW85782   3.011   2.742  10.604
94650SOL    HW185783   3.090   2.690  10.617
94650SOL    HW285784   2.955   2.719  10.678
94651SOL     OW85785   0.068   8.731  12.177
94651SOL    HW185786   0.136   8.795  12.198
94651SOL    HW285787  14.871   8.785  12.152
94652SOL     OW85788   0.257  11.721  11.995
94652SOL    HW185789   0.317  11.691  12.063
94652SOL    HW285790   0.248  11.647  11.936
94653SOL     OW85791   8.229   4.988   2.528
94653SOL    HW185792   8.234   5.016   2.620
94653SOL    HW285793   8.137   4.963   2.516
94654SOL     OW85794   9.320   4.460  13.194
94654SOL    HW185795   9.256   4.411  13.244
94654SOL    HW285796   9.357   4.523  13.256
94655SOL     OW85797   1.929   4.893   4.571
94655SOL    HW185798   1.916   4.810   4.617
94655SOL    HW285799   1.939   4.868   4.479
94656SOL     OW85800   9.630  10.480   6.512
94656SOL    HW185801   9.605  10.398   6.469
94656SOL    HW285802   9.552  10.506   6.560
94657SOL     OW85803  13.722  12.408   1.787
94657SOL    HW185804  13.707  12.326   1.740
94657SOL    HW285805  13.650  12.412   1.850
94658SOL     OW85806   5.500   6.350  11.514
94658SOL    HW185807   5.568   6.300  11.559
94658SOL    HW285808   5.490   6.306  11.430
94659SOL     OW85809  10.043   4.076   6.739
94659SOL    HW185810  10.049   4.094   6.645
94659SOL    HW285811  10.074   3.986   6.748
94660SOL     OW85812   4.916  13.193  11.333
94660SOL    HW185813   4.964  13.122  11.290
94660SOL    HW285814   4.884  13.248  11.261
94661SOL     OW85815  13.730   3.949  12.969
94661SOL    HW185816  13.821   3.928  12.989
94661SOL    HW285817  13.692   3.865  12.942
94662SOL     OW85818  10.027   7.288   1.073
94662SOL    HW185819  10.075   7.369   1.055
94662SOL    HW285820  10.004   7.254   0.986
94663SOL     OW85821  13.350   2.157   7.228
94663SOL    HW185822  13.432   2.127   7.268
94663SOL    HW285823  13.310   2.212   7.295
94664SOL     OW85824  10.484   6.762   9.045
94664SOL    HW185825  10.579   6.753   9.037
94664SOL    HW285826  10.462   6.840   8.994
94665SOL     OW85827  14.049  13.851   7.129
94665SOL    HW185828  14.138  13.814   7.130
94665SOL    HW285829  14.011  13.823   7.212
94666SOL     OW85830  13.358   3.261   0.313
94666SOL    HW185831  13.267   3.231   0.313
94666SOL    HW285832  13.404   3.194   0.364
94667SOL     OW85833   0.511   9.490   2.552
94667SOL    HW185834   0.467   9.456   2.474
94667SOL    HW285835   0.494   9.584   2.550
94668SOL     OW85836  10.104   0.939   8.336
94668SOL    HW185837  10.123   0.979   8.420
94668SOL    HW285838  10.187   0.941   8.289
94669SOL     OW85839   8.434   8.728   4.452
94669SOL    HW185840   8.387   8.754   4.373
94669SOL    HW285841   8.510   8.679   4.420
94670SOL     OW85842   0.666   1.093   1.199
94670SOL    HW185843   0.687   1.169   1.145
94670SOL    HW285844   0.740   1.033   1.185
94671SOL     OW85845  10.394   7.083   7.433
94671SOL    HW185846  10.449   7.005   7.435
94671SOL    HW285847  10.455   7.156   7.421
94672SOL     OW85848   7.156  11.771   5.440
94672SOL    HW185849   7.206  11.749   5.361
94672SOL    HW285850   7.072  11.802   5.406
94673SOL     OW85851   7.694   8.865   5.939
94673SOL    HW185852   7.624   8.800   5.937
94673SOL    HW285853   7.672   8.921   6.013
94674SOL     OW85854  14.517  13.120  11.752
94674SOL    HW185855  14.522  13.120  11.656
94674SOL    HW285856  14.423  13.130  11.771
94675SOL     OW85857   3.270   1.802   7.032
94675SOL    HW185858   3.350   1.750   7.016
94675SOL    HW285859   3.288   1.848   7.114
94676SOL     OW85860   4.272   3.698   3.003
94676SOL    HW185861   4.364   3.722   3.007
94676SOL    HW285862   4.226   3.774   3.039
94677SOL     OW85863   5.425  10.839   0.971
94677SOL    HW185864   5.435  10.819   0.878
94677SOL    HW285865   5.456  10.760   1.016
94678SOL     OW85866   8.186   9.896  10.759
94678SOL    HW185867   8.111   9.943  10.721
94678SOL    HW285868   8.204   9.942  10.841
94679SOL     OW85869   5.339   7.458   1.929
94679SOL    HW185870   5.422   7.439   1.972
94679SOL    HW285871   5.273   7.442   1.996
94680SOL     OW85872   7.256   2.844   5.852
94680SOL    HW185873   7.275   2.906   5.922
94680SOL    HW285874   7.268   2.895   5.771
94681SOL     OW85875   6.703  10.462  12.625
94681SOL    HW185876   6.704  10.401  12.699
94681SOL    HW285877   6.621  10.511  12.635
94682SOL     OW85878  10.849   1.767   6.091
94682SOL    HW185879  10.869   1.846   6.141
94682SOL    HW285880  10.808   1.708   6.154
94683SOL     OW85881  12.857   5.750  13.010
94683SOL    HW185882  12.903   5.710  13.084
94683SOL    HW285883  12.899   5.713  12.932
94684SOL     OW85884   2.421  11.162   2.846
94684SOL    HW185885   2.375  11.078   2.849
94684SOL    HW285886   2.354  11.227   2.868
94685SOL     OW85887   6.380  10.226   7.195
94685SOL    HW185888   6.325  10.251   7.269
94685SOL    HW285889   6.400  10.133   7.210
94686SOL     OW85890  13.329   5.816   7.162
94686SOL    HW185891  13.322   5.722   7.177
94686SOL    HW285892  13.333   5.825   7.067
94687SOL     OW85893  12.371   7.573   2.158
94687SOL    HW185894  12.342   7.495   2.206
94687SOL    HW285895  12.456   7.594   2.197
94688SOL     OW85896  10.368   0.231  13.180
94688SOL    HW185897  10.310   0.188  13.117
94688SOL    HW285898  10.308   0.280  13.237
94689SOL     OW85899   2.213   6.475   1.485
94689SOL    HW185900   2.304   6.475   1.456
94689SOL    HW285901   2.163   6.505   1.410
94690SOL     OW85902  14.403   7.712   2.737
94690SOL    HW185903  14.465   7.779   2.707
94690SOL    HW285904  14.448   7.669   2.809
94691SOL     OW85905  11.552   6.170  12.710
94691SOL    HW185906  11.493   6.213  12.648
94691SOL    HW285907  11.610   6.117  12.656
94692SOL     OW85908   2.074   3.912   1.254
94692SOL    HW185909   2.052   3.964   1.177
94692SOL    HW285910   2.170   3.906   1.252
94693SOL     OW85911  12.102   4.615   1.685
94693SOL    HW185912  12.152   4.585   1.609
94693SOL    HW285913  12.085   4.535   1.735
94694SOL     OW85914   8.928   5.388   1.260
94694SOL    HW185915   8.999   5.389   1.324
94694SOL    HW285916   8.972   5.382   1.175
94695SOL     OW85917   0.978  13.989   6.648
94695SOL    HW185918   0.921  13.920   6.614
94695SOL    HW285919   0.922  14.066   6.653
94696SOL     OW85920  10.506   1.296   9.308
94696SOL    HW185921  10.519   1.202   9.319
94696SOL    HW285922  10.577   1.336   9.358
94697SOL     OW85923  10.250   3.304   1.290
94697SOL    HW185924  10.198   3.257   1.355
94697SOL    HW285925  10.190   3.315   1.216
94698SOL     OW85926   5.125   8.279  10.712
94698SOL    HW185927   5.177   8.252  10.788
94698SOL    HW285928   5.047   8.319  10.750
94699SOL     OW85929   2.177   5.968   7.339
94699SOL    HW185930   2.165   5.969   7.434
94699SOL    HW285931   2.244   5.902   7.324
94700SOL     OW85932   2.899   2.530  13.845
94700SOL    HW185933   2.811   2.491  13.839
94700SOL    HW285934   2.952   2.463  13.888
94701SOL     OW85935  11.794   7.635  11.978
94701SOL    HW185936  11.826   7.556  12.022
94701SOL    HW285937  11.811   7.706  12.040
94702SOL     OW85938  11.557  13.518   9.939
94702SOL    HW185939  11.480  13.466   9.959
94702SOL    HW285940  11.532  13.569   9.861
94703SOL     OW85941   3.157   6.662   9.981
94703SOL    HW185942   3.164   6.636   9.889
94703SOL    HW285943   3.180   6.755   9.982
94704SOL     OW85944   4.415   6.090   6.052
94704SOL    HW185945   4.386   6.152   5.984
94704SOL    HW285946   4.363   6.011   6.035
94705SOL     OW85947   2.544  13.118   1.311
94705SOL    HW185948   2.597  13.052   1.266
94705SOL    HW285949   2.544  13.090   1.402
94706SOL     OW85950   4.785   9.513  11.615
94706SOL    HW185951   4.709   9.510  11.674
94706SOL    HW285952   4.846   9.449  11.653
94707SOL     OW85953   0.170  14.655   9.665
94707SOL    HW185954   0.175  14.725   9.599
94707SOL    HW285955   0.083  14.618   9.654
94708SOL     OW85956  14.214  11.976   6.304
94708SOL    HW185957  14.186  11.909   6.242
94708SOL    HW285958  14.141  12.038   6.308
94709SOL     OW85959  12.478  11.208   4.361
94709SOL    HW185960  12.385  11.199   4.337
94709SOL    HW285961  12.515  11.261   4.291
94710SOL     OW85962  14.017   2.980   6.780
94710SOL    HW185963  14.045   2.913   6.842
94710SOL    HW285964  14.098   3.017   6.746
94711SOL     OW85965   6.354  13.501   2.911
94711SOL    HW185966   6.437  13.502   2.960
94711SOL    HW285967   6.286  13.508   2.978
94712SOL     OW85968   6.138  12.254   8.903
94712SOL    HW185969   6.076  12.232   8.834
94712SOL    HW285970   6.091  12.317   8.958
94713SOL     OW85971   4.402   2.006   2.815
94713SOL    HW185972   4.471   2.071   2.802
94713SOL    HW285973   4.444   1.936   2.865
94714SOL     OW85974   0.243   2.515  10.898
94714SOL    HW185975   0.331   2.488  10.873
94714SOL    HW285976   0.196   2.432  10.912
94715SOL     OW85977   5.452   5.050  12.909
94715SOL    HW185978   5.411   5.123  12.956
94715SOL    HW285979   5.488   5.089  12.829
94716SOL     OW85980   9.444   1.213   3.351
94716SOL    HW185981   9.428   1.148   3.283
94716SOL    HW285982   9.382   1.284   3.332
94717SOL     OW85983   5.383   8.751  12.914
94717SOL    HW185984   5.325   8.757  12.990
94717SOL    HW285985   5.402   8.842  12.891
94718SOL     OW85986   5.731   2.724   0.009
94718SOL    HW185987   5.729   2.706   0.103
94718SOL    HW285988   5.640   2.743  14.864
94719SOL     OW85989   8.021   4.654  10.844
94719SOL    HW185990   8.073   4.728  10.813
94719SOL    HW285991   7.943   4.694  10.882
94720SOL     OW85992  11.491   5.289  14.197
94720SOL    HW185993  11.428   5.357  14.220
94720SOL    HW285994  11.491   5.230  14.272
94721SOL     OW85995  10.766  14.833   6.576
94721SOL    HW185996  10.835  14.864   6.634
94721SOL    HW285997  10.780   0.002   6.494
94722SOL     OW85998  13.580   0.526   8.575
94722SOL    HW185999  13.528   0.579   8.636
94722SOL    HW286000  13.530   0.445   8.567
94723SOL     OW86001  12.209   5.264   8.084
94723SOL    HW186002  12.197   5.194   8.019
94723SOL    HW286003  12.153   5.239   8.157
94724SOL     OW86004  11.053   5.061  13.889
94724SOL    HW186005  11.133   5.075  13.939
94724SOL    HW286006  11.081   5.010  13.813
94725SOL     OW86007   5.921   6.162  13.539
94725SOL    HW186008   5.892   6.250  13.563
94725SOL    HW286009   6.004   6.176  13.492
94726SOL     OW86010   1.021  14.161   1.327
94726SOL    HW186011   0.972  14.243   1.330
94726SOL    HW286012   0.982  14.112   1.255
94727SOL     OW86013   9.590  12.172  13.952
94727SOL    HW186014   9.647  12.248  13.939
94727SOL    HW286015   9.574  12.139  13.864
94728SOL     OW86016   6.441   0.970  13.808
94728SOL    HW186017   6.484   1.038  13.757
94728SOL    HW286018   6.493   0.891  13.792
94729SOL     OW86019  11.572   1.752  10.528
94729SOL    HW186020  11.568   1.795  10.442
94729SOL    HW286021  11.608   1.819  10.587
94730SOL     OW86022  10.206   5.702   3.953
94730SOL    HW186023  10.201   5.607   3.954
94730SOL    HW286024  10.194   5.726   3.861
94731SOL     OW86025  13.989  12.069   7.504
94731SOL    HW186026  13.984  12.034   7.593
94731SOL    HW286027  13.911  12.123   7.495
94732SOL     OW86028   7.649  13.733  12.138
94732SOL    HW186029   7.729  13.681  12.141
94732SOL    HW286030   7.671  13.808  12.083
94733SOL     OW86031   1.509   3.298   0.582
94733SOL    HW186032   1.470   3.383   0.603
94733SOL    HW286033   1.454   3.263   0.512
94734SOL     OW86034   7.845  14.566  11.553
94734SOL    HW186035   7.825  14.474  11.569
94734SOL    HW286036   7.763  14.602  11.519
94735SOL     OW86037   6.698   7.571  11.582
94735SOL    HW186038   6.661   7.487  11.611
94735SOL    HW286039   6.750   7.548  11.505
94736SOL     OW86040   8.848  12.483   8.713
94736SOL    HW186041   8.755  12.468   8.694
94736SOL    HW286042   8.894  12.415   8.663
94737SOL     OW86043   2.975   2.602  13.194
94737SOL    HW186044   2.897   2.634  13.148
94737SOL    HW286045   2.973   2.507  13.179
94738SOL     OW86046  12.335  11.045   0.895
94738SOL    HW186047  12.321  10.998   0.977
94738SOL    HW286048  12.259  11.102   0.887
94739SOL     OW86049  10.144   3.369  10.996
94739SOL    HW186050  10.163   3.286  10.952
94739SOL    HW286051  10.200   3.433  10.953
94740SOL     OW86052  11.371   8.173   8.870
94740SOL    HW186053  11.453   8.135   8.837
94740SOL    HW286054  11.353   8.125   8.951
94741SOL     OW86055   4.541   7.616   1.013
94741SOL    HW186056   4.531   7.581   0.924
94741SOL    HW286057   4.573   7.706   0.999
94742SOL     OW86058   3.391   6.891  13.883
94742SOL    HW186059   3.384   6.860  13.973
94742SOL    HW286060   3.353   6.979  13.885
94743SOL     OW86061  10.679   2.291   7.206
94743SOL    HW186062  10.699   2.372   7.161
94743SOL    HW286063  10.737   2.226   7.166
94744SOL     OW86064   0.347   3.721   7.716
94744SOL    HW186065   0.415   3.654   7.723
94744SOL    HW286066   0.389   3.792   7.667
94745SOL     OW86067  13.061   6.433  14.554
94745SOL    HW186068  13.086   6.516  14.595
94745SOL    HW286069  12.970   6.420  14.579
94746SOL     OW86070   3.152  10.987   6.791
94746SOL    HW186071   3.157  10.963   6.883
94746SOL    HW286072   3.223  11.051   6.779
94747SOL     OW86073   0.649   1.055  10.168
94747SOL    HW186074   0.650   1.148  10.147
94747SOL    HW286075   0.616   1.012  10.088
94748SOL     OW86076   1.103  12.426  10.951
94748SOL    HW186077   1.034  12.384  10.899
94748SOL    HW286078   1.180  12.425  10.895
94749SOL     OW86079  14.253  14.130   8.381
94749SOL    HW186080  14.298  14.162   8.459
94749SOL    HW286081  14.307  14.057   8.351
94750SOL     OW86082   6.475  10.969   3.610
94750SOL    HW186083   6.540  11.032   3.641
94750SOL    HW286084   6.499  10.952   3.519
94751SOL     OW86085  12.610   9.167   7.930
94751SOL    HW186086  12.595   9.261   7.939
94751SOL    HW286087  12.669   9.145   8.003
94752SOL     OW86088  11.491   4.867   5.800
94752SOL    HW186089  11.494   4.874   5.704
94752SOL    HW286090  11.398   4.874   5.821
94753SOL     OW86091  11.109  10.697   8.574
94753SOL    HW186092  11.126  10.603   8.584
94753SOL    HW286093  11.016  10.702   8.551
94754SOL     OW86094   0.156  11.033  12.892
94754SOL    HW186095   0.068  11.019  12.927
94754SOL    HW286096   0.166  10.967  12.824
94755SOL     OW86097  12.450   9.951   5.707
94755SOL    HW186098  12.367   9.944   5.661
94755SOL    HW286099  12.510   9.992   5.644
94756SOL     OW86100   7.702   9.989   0.887
94756SOL    HW186101   7.642  10.061   0.866
94756SOL    HW286102   7.742   9.966   0.803
94757SOL     OW86103   3.761   1.353  11.087
94757SOL    HW186104   3.667   1.367  11.088
94757SOL    HW286105   3.799   1.435  11.118
94758SOL     OW86106  13.937   2.508   1.451
94758SOL    HW186107  14.019   2.552   1.431
94758SOL    HW286108  13.900   2.484   1.366
94759SOL     OW86109  11.279   0.955  13.623
94759SOL    HW186110  11.290   0.973  13.717
94759SOL    HW286111  11.211   0.887  13.620
94760SOL     OW86112   9.002   0.173  14.252
94760SOL    HW186113   9.050   0.255  14.266
94760SOL    HW286114   9.069   0.111  14.223
94761SOL     OW86115  12.918  13.978   3.644
94761SOL    HW186116  12.973  13.928   3.703
94761SOL    HW286117  12.902  13.920   3.569
94762SOL     OW86118   8.267   9.184  11.211
94762SOL    HW186119   8.356   9.198  11.179
94762SOL    HW286120   8.247   9.093  11.189
94763SOL     OW86121   0.846   4.421  12.973
94763SOL    HW186122   0.812   4.398  12.886
94763SOL    HW286123   0.892   4.504  12.959
94764SOL     OW86124  10.482   4.938   0.798
94764SOL    HW186125  10.467   4.881   0.723
94764SOL    HW286126  10.430   5.016   0.780
94765SOL     OW86127   5.437   5.092   2.688
94765SOL    HW186128   5.509   5.130   2.737
94765SOL    HW286129   5.455   5.114   2.597
94766SOL     OW86130  14.596  13.595  11.359
94766SOL    HW186131  14.544  13.672  11.382
94766SOL    HW286132  14.666  13.629  11.303
94767SOL     OW86133   5.494  10.746   5.218
94767SOL    HW186134   5.546  10.668   5.198
94767SOL    HW286135   5.558  10.809   5.250
94768SOL     OW86136  11.455   4.237   2.858
94768SOL    HW186137  11.361   4.216   2.855
94768SOL    HW286138  11.497   4.154   2.883
94769SOL     OW86139   1.082   8.212  10.675
94769SOL    HW186140   1.079   8.213  10.770
94769SOL    HW286141   1.104   8.303  10.651
94770SOL     OW86142   9.232  14.827  11.312
94770SOL    HW186143   9.177  14.779  11.374
94770SOL    HW286144   9.263   0.024  11.362
94771SOL     OW86145   5.738  12.305  14.532
94771SOL    HW186146   5.712  12.238  14.469
94771SOL    HW286147   5.710  12.271  14.617
94772SOL     OW86148  12.207   0.655   0.956
94772SOL    HW186149  12.230   0.569   0.922
94772SOL    HW286150  12.177   0.704   0.879
94773SOL     OW86151   7.578   5.210   7.141
94773SOL    HW186152   7.628   5.140   7.099
94773SOL    HW286153   7.640   5.283   7.148
94774SOL     OW86154  14.216   8.687  13.621
94774SOL    HW186155  14.201   8.777  13.592
94774SOL    HW286156  14.143   8.669  13.681
94775SOL     OW86157   2.526   3.005   3.210
94775SOL    HW186158   2.517   2.935   3.276
94775SOL    HW286159   2.559   2.960   3.133
94776SOL     OW86160  12.946   2.151   7.301
94776SOL    HW186161  12.917   2.239   7.278
94776SOL    HW286162  12.922   2.141   7.393
94777SOL     OW86163   3.732   1.052   9.748
94777SOL    HW186164   3.824   1.027   9.741
94777SOL    HW286165   3.729   1.113   9.822
94778SOL     OW86166   0.292  10.952  11.508
94778SOL    HW186167   0.262  10.988  11.591
94778SOL    HW286168   0.386  10.973  11.505
94779SOL     OW86169   8.184   4.873  13.837
94779SOL    HW186170   8.164   4.961  13.869
94779SOL    HW286171   8.104   4.844  13.794
94780SOL     OW86172   8.685   0.121   4.417
94780SOL    HW186173   8.713   0.192   4.474
94780SOL    HW286174   8.688   0.043   4.473
94781SOL     OW86175   6.652   0.604   0.798
94781SOL    HW186176   6.593   0.588   0.724
94781SOL    HW286177   6.595   0.604   0.875
94782SOL     OW86178  11.410  13.417   3.484
94782SOL    HW186179  11.422  13.373   3.399
94782SOL    HW286180  11.393  13.508   3.462
94783SOL     OW86181  12.434  12.027   1.546
94783SOL    HW186182  12.481  11.943   1.547
94783SOL    HW286183  12.363  12.013   1.483
94784SOL     OW86184   2.497   1.969   7.117
94784SOL    HW186185   2.404   1.987   7.129
94784SOL    HW286186   2.506   1.944   7.025
94785SOL     OW86187  14.312  13.612   5.055
94785SOL    HW186188  14.385  13.575   5.105
94785SOL    HW286189  14.237  13.560   5.080
94786SOL     OW86190   8.367   9.973   5.331
94786SOL    HW186191   8.304   9.910   5.296
94786SOL    HW286192   8.393   9.936   5.416
94787SOL     OW86193   6.489   0.750   2.536
94787SOL    HW186194   6.527   0.785   2.617
94787SOL    HW286195   6.480   0.656   2.552
94788SOL     OW86196   0.017  11.044   6.175
94788SOL    HW186197  14.811  11.054   6.132
94788SOL    HW286198   0.032  11.129   6.218
94789SOL     OW86199  12.527  10.574   8.544
94789SOL    HW186200  12.520  10.565   8.449
94789SOL    HW286201  12.555  10.488   8.575
94790SOL     OW86202  10.580  10.557  13.311
94790SOL    HW186203  10.498  10.546  13.263
94790SOL    HW286204  10.645  10.577  13.244
94791SOL     OW86205   9.514   4.238   2.664
94791SOL    HW186206   9.555   4.299   2.725
94791SOL    HW286207   9.500   4.158   2.715
94792SOL     OW86208  13.307  14.764   5.441
94792SOL    HW186209  13.357  14.791   5.518
94792SOL    HW286210  13.308  14.668   5.443
94793SOL     OW86211  12.917   6.082   1.525
94793SOL    HW186212  12.884   6.093   1.436
94793SOL    HW286213  12.841   6.099   1.581
94794SOL     OW86214   5.678   5.142   8.796
94794SOL    HW186215   5.686   5.050   8.771
94794SOL    HW286216   5.590   5.167   8.767
94795SOL     OW86217   3.247   9.159  10.781
94795SOL    HW186218   3.175   9.170  10.720
94795SOL    HW286219   3.213   9.190  10.865
94796SOL     OW86220   3.893   3.462   1.866
94796SOL    HW186221   3.844   3.447   1.947
94796SOL    HW286222   3.943   3.542   1.882
94797SOL     OW86223   5.745   2.434   8.789
94797SOL    HW186224   5.764   2.500   8.723
94797SOL    HW286225   5.817   2.371   8.781
94798SOL     OW86226   3.965   9.284   5.581
94798SOL    HW186227   4.012   9.366   5.593
94798SOL    HW286228   4.033   9.217   5.577
94799SOL     OW86229  12.421  14.585   9.692
94799SOL    HW186230  12.449  14.493   9.684
94799SOL    HW286231  12.365  14.587   9.769
94800SOL     OW86232   8.156   7.597   4.707
94800SOL    HW186233   8.092   7.530   4.729
94800SOL    HW286234   8.138   7.669   4.768
94801SOL     OW86235   1.824   4.159   4.986
94801SOL    HW186236   1.739   4.174   5.028
94801SOL    HW286237   1.829   4.227   4.919
94802SOL     OW86238   5.711  11.015   0.936
94802SOL    HW186239   5.802  11.008   0.966
94802SOL    HW286240   5.715  10.999   0.842
94803SOL     OW86241  14.068  12.197   6.158
94803SOL    HW186242  14.073  12.292   6.168
94803SOL    HW286243  13.987  12.173   6.203
94804SOL     OW86244   8.929   0.397   1.850
94804SOL    HW186245   8.994   0.385   1.918
94804SOL    HW286246   8.872   0.320   1.857
94805SOL     OW86247   8.168   3.837   8.268
94805SOL    HW186248   8.134   3.753   8.236
94805SOL    HW286249   8.253   3.817   8.306
94806SOL     OW86250   9.736  11.407   6.521
94806SOL    HW186251   9.829  11.419   6.538
94806SOL    HW286252   9.692  11.448   6.595
94807SOL     OW86253  14.741   9.838   5.725
94807SOL    HW186254  14.710   9.805   5.809
94807SOL    HW286255  14.769   9.928   5.743
94808SOL     OW86256  10.930  12.011   2.952
94808SOL    HW186257  10.884  12.074   3.008
94808SOL    HW286258  11.020  12.012   2.983
94809SOL     OW86259   8.289  12.151  13.224
94809SOL    HW186260   8.310  12.086  13.158
94809SOL    HW286261   8.288  12.103  13.307
94810SOL     OW86262  12.306  12.321  10.462
94810SOL    HW186263  12.345  12.393  10.413
94810SOL    HW286264  12.221  12.307  10.421
94811SOL     OW86265   6.373  12.409   2.999
94811SOL    HW186266   6.405  12.440   3.083
94811SOL    HW286267   6.414  12.466   2.934
94812SOL     OW86268  11.997  13.723  10.857
94812SOL    HW186269  12.050  13.734  10.936
94812SOL    HW286270  12.029  13.790  10.797
94813SOL     OW86271  12.513   1.873   4.455
94813SOL    HW186272  12.487   1.814   4.526
94813SOL    HW286273  12.503   1.822   4.375
94814SOL     OW86274   8.088   4.621  13.419
94814SOL    HW186275   8.137   4.608  13.500
94814SOL    HW286276   8.032   4.544  13.411
94815SOL     OW86277   8.977  13.386  11.476
94815SOL    HW186278   8.997  13.479  11.487
94815SOL    HW286279   8.927  13.381  11.394
94816SOL     OW86280  14.804   0.581   5.066
94816SOL    HW186281  14.760   0.561   4.983
94816SOL    HW286282  14.845   0.498   5.092
94817SOL     OW86283   9.159   7.608   3.585
94817SOL    HW186284   9.099   7.538   3.560
94817SOL    HW286285   9.133   7.682   3.530
94818SOL     OW86286  12.940  14.751   8.495
94818SOL    HW186287  12.851  14.766   8.464
94818SOL    HW286288  12.996  14.778   8.422
94819SOL     OW86289   5.292  10.976   0.511
94819SOL    HW186290   5.374  11.023   0.500
94819SOL    HW286291   5.255  10.972   0.423
94820SOL     OW86292   6.568   2.535   9.063
94820SOL    HW186293   6.474   2.554   9.067
94820SOL    HW286294   6.599   2.582   8.986
94821SOL     OW86295   7.490   3.266   2.617
94821SOL    HW186296   7.556   3.271   2.548
94821SOL    HW286297   7.423   3.207   2.581
94822SOL     OW86298   7.469  14.232   7.844
94822SOL    HW186299   7.489  14.311   7.794
94822SOL    HW286300   7.479  14.161   7.780
94823SOL     OW86301  10.518   0.316   0.554
94823SOL    HW186302  10.609   0.340   0.535
94823SOL    HW286303  10.486   0.385   0.612
94824SOL     OW86304   1.501   0.305   8.485
94824SOL    HW186305   1.528   0.394   8.504
94824SOL    HW286306   1.421   0.315   8.434
94825SOL     OW86307  11.443   7.362  10.325
94825SOL    HW186308  11.361   7.331  10.362
94825SOL    HW286309  11.423   7.381  10.233
94826SOL     OW86310   9.541   4.171   4.161
94826SOL    HW186311   9.514   4.261   4.177
94826SOL    HW286312   9.482   4.118   4.215
94827SOL     OW86313   1.368   0.111   4.775
94827SOL    HW186314   1.354   0.016   4.774
94827SOL    HW286315   1.297   0.145   4.830
94828SOL     OW86316   5.042   6.858   7.043
94828SOL    HW186317   5.127   6.895   7.066
94828SOL    HW286318   4.986   6.876   7.118
94829SOL     OW86319   2.212   4.765   3.624
94829SOL    HW186320   2.237   4.686   3.577
94829SOL    HW286321   2.172   4.734   3.705
94830SOL     OW86322   6.183   0.525   8.029
94830SOL    HW186323   6.126   0.527   8.105
94830SOL    HW286324   6.251   0.590   8.048
94831SOL     OW86325   3.172  12.614   8.664
94831SOL    HW186326   3.155  12.705   8.688
94831SOL    HW286327   3.258  12.595   8.701
94832SOL     OW86328   6.576  13.201  10.036
94832SOL    HW186329   6.500  13.237   9.990
94832SOL    HW286330   6.651  13.231   9.985
94833SOL     OW86331   1.711  11.238   9.112
94833SOL    HW186332   1.799  11.211   9.138
94833SOL    HW286333   1.702  11.327   9.147
94834SOL     OW86334   4.303   9.919  10.406
94834SOL    HW186335   4.320   9.839  10.356
94834SOL    HW286336   4.211   9.911  10.433
94835SOL     OW86337   2.747  11.315   2.468
94835SOL    HW186338   2.770  11.222   2.474
94835SOL    HW286339   2.660  11.321   2.507
94836SOL     OW86340   1.566  12.392   0.830
94836SOL    HW186341   1.596  12.302   0.815
94836SOL    HW286342   1.622  12.446   0.774
94837SOL     OW86343   7.277  13.861   1.760
94837SOL    HW186344   7.333  13.795   1.802
94837SOL    HW286345   7.192  13.818   1.752
94838SOL     OW86346   6.484  12.295   6.861
94838SOL    HW186347   6.515  12.219   6.813
94838SOL    HW286348   6.389  12.292   6.853
94839SOL     OW86349   5.517   0.280  12.622
94839SOL    HW186350   5.520   0.354  12.681
94839SOL    HW286351   5.599   0.286  12.572
94840SOL     OW86352  10.803   9.665   6.208
94840SOL    HW186353  10.778   9.711   6.288
94840SOL    HW286354  10.725   9.616   6.183
94841SOL     OW86355   1.726   7.843  13.917
94841SOL    HW186356   1.677   7.884  13.987
94841SOL    HW286357   1.789   7.786  13.961
94842SOL     OW86358  14.732   8.340  11.077
94842SOL    HW186359  14.664   8.273  11.068
94842SOL    HW286360  14.803   8.296  11.125
94843SOL     OW86361   9.834  11.512   9.350
94843SOL    HW186362   9.772  11.561   9.296
94843SOL    HW286363   9.880  11.579   9.400
94844SOL     OW86364   6.993  10.458   9.106
94844SOL    HW186365   7.040  10.390   9.154
94844SOL    HW286366   6.904  10.456   9.143
94845SOL     OW86367   7.201   5.571  12.998
94845SOL    HW186368   7.220   5.605  12.911
94845SOL    HW286369   7.213   5.476  12.990
94846SOL     OW86370   3.755  11.302   0.252
94846SOL    HW186371   3.842  11.262   0.244
94846SOL    HW286372   3.762  11.384   0.203
94847SOL     OW86373   1.598   5.665   1.600
94847SOL    HW186374   1.538   5.637   1.669
94847SOL    HW286375   1.685   5.654   1.637
94848SOL     OW86376  12.194   7.608  12.793
94848SOL    HW186377  12.248   7.599  12.715
94848SOL    HW286378  12.127   7.540  12.784
94849SOL     OW86379  13.792   2.275   2.184
94849SOL    HW186380  13.697   2.280   2.194
94849SOL    HW286381  13.820   2.217   2.255
94850SOL     OW86382   3.364  10.818  13.943
94850SOL    HW186383   3.291  10.761  13.965
94850SOL    HW286384   3.370  10.879  14.018
94851SOL     OW86385  11.711  10.736   0.406
94851SOL    HW186386  11.632  10.703   0.365
94851SOL    HW286387  11.739  10.808   0.349
94852SOL     OW86388   8.864   1.144   7.334
94852SOL    HW186389   8.889   1.067   7.385
94852SOL    HW286390   8.923   1.142   7.258
94853SOL     OW86391   0.788  14.123   2.113
94853SOL    HW186392   0.843  14.112   2.035
94853SOL    HW286393   0.836  14.079   2.183
94854SOL     OW86394   2.909   5.902   7.437
94854SOL    HW186395   2.851   5.971   7.403
94854SOL    HW286396   2.991   5.947   7.456
94855SOL     OW86397   6.637  10.534  11.267
94855SOL    HW186398   6.709  10.525  11.205
94855SOL    HW286399   6.665  10.601  11.328
94856SOL     OW86400  13.587  14.304   5.060
94856SOL    HW186401  13.602  14.370   4.992
94856SOL    HW286402  13.550  14.354   5.133
94857SOL     OW86403   7.140  10.424   5.498
94857SOL    HW186404   7.048  10.413   5.521
94857SOL    HW286405   7.169  10.337   5.472
94858SOL     OW86406   3.414   5.574   0.274
94858SOL    HW186407   3.335   5.621   0.299
94858SOL    HW286408   3.393   5.482   0.290
94859SOL     OW86409   5.530   0.425   0.906
94859SOL    HW186410   5.606   0.483   0.912
94859SOL    HW286411   5.456   0.484   0.890
94860SOL     OW86412   1.628   0.522   8.210
94860SOL    HW186413   1.673   0.475   8.280
94860SOL    HW286414   1.666   0.610   8.211
94861SOL     OW86415   9.845   7.994   9.946
94861SOL    HW186416   9.799   8.077   9.950
94861SOL    HW286417   9.776   7.929   9.932
94862SOL     OW86418   5.978   6.012   4.010
94862SOL    HW186419   6.036   5.978   4.077
94862SOL    HW286420   5.897   5.961   4.020
94863SOL     OW86421   9.261  14.632  13.062
94863SOL    HW186422   9.319  14.673  13.127
94863SOL    HW286423   9.181  14.613  13.110
94864SOL     OW86424   0.242  14.285  13.581
94864SOL    HW186425   0.197  14.331  13.510
94864SOL    HW286426   0.331  14.320  13.579
94865SOL     OW86427   8.286  10.658   5.837
94865SOL    HW186428   8.258  10.597   5.768
94865SOL    HW286429   8.219  10.649   5.905
94866SOL     OW86430   9.033   3.769  11.201
94866SOL    HW186431   8.937   3.775  11.203
94866SOL    HW286432   9.051   3.713  11.125
94867SOL     OW86433  14.199  12.215   2.605
94867SOL    HW186434  14.262  12.179   2.668
94867SOL    HW286435  14.135  12.262   2.660
94868SOL     OW86436   4.577  10.633   5.011
94868SOL    HW186437   4.645  10.570   5.032
94868SOL    HW286438   4.624  10.712   4.985
94869SOL     OW86439   6.386  11.139  14.150
94869SOL    HW186440   6.431  11.115  14.069
94869SOL    HW286441   6.302  11.093  14.146
94870SOL     OW86442   9.847  13.307   1.919
94870SOL    HW186443   9.792  13.229   1.927
94870SOL    HW286444   9.897  13.308   2.001
94871SOL     OW86445   3.583  14.234  13.757
94871SOL    HW186446   3.585  14.180  13.836
94871SOL    HW286447   3.572  14.171  13.686
94872SOL     OW86448  10.260   5.613  12.711
94872SOL    HW186449  10.213   5.544  12.664
94872SOL    HW286450  10.327   5.642  12.650
94873SOL     OW86451  10.769   3.877   5.459
94873SOL    HW186452  10.813   3.840   5.382
94873SOL    HW286453  10.766   3.971   5.442
94874SOL     OW86454   6.347   4.349   7.855
94874SOL    HW186455   6.284   4.353   7.927
94874SOL    HW286456   6.309   4.286   7.793
94875SOL     OW86457  12.682   5.653   3.689
94875SOL    HW186458  12.727   5.576   3.723
94875SOL    HW286459  12.589   5.638   3.708
94876SOL     OW86460  14.525   2.972   8.836
94876SOL    HW186461  14.617   2.981   8.811
94876SOL    HW286462  14.503   2.882   8.813
94877SOL     OW86463   1.108  12.022   2.809
94877SOL    HW186464   1.058  11.941   2.825
94877SOL    HW286465   1.142  12.012   2.720
94878SOL     OW86466   5.551   3.833  13.235
94878SOL    HW186467   5.587   3.922  13.239
94878SOL    HW286468   5.461   3.842  13.269
94879SOL     OW86469   2.140   3.829  11.288
94879SOL    HW186470   2.184   3.913  11.276
94879SOL    HW286471   2.210   3.764  11.278
94880SOL     OW86472   0.133   7.484   2.723
94880SOL    HW186473   0.039   7.497   2.715
94880SOL    HW286474   0.172   7.539   2.655
94881SOL     OW86475   0.232  13.199   1.203
94881SOL    HW186476   0.229  13.280   1.254
94881SOL    HW286477   0.302  13.148   1.243
94882SOL     OW86478   2.851   1.932   8.571
94882SOL    HW186479   2.891   1.855   8.530
94882SOL    HW286480   2.916   2.001   8.560
94883SOL     OW86481   1.594   0.759  14.480
94883SOL    HW186482   1.578   0.721  14.566
94883SOL    HW286483   1.524   0.824  14.469
94884SOL     OW86484   1.015   7.074   5.302
94884SOL    HW186485   1.093   7.103   5.349
94884SOL    HW286486   0.955   7.148   5.308
94885SOL     OW86487   1.844   3.018   8.676
94885SOL    HW186488   1.906   2.988   8.743
94885SOL    HW286489   1.839   2.945   8.614
94886SOL     OW86490   6.157   2.217   0.773
94886SOL    HW186491   6.174   2.143   0.831
94886SOL    HW286492   6.117   2.283   0.830
94887SOL     OW86493   3.059  12.560   7.427
94887SOL    HW186494   3.132  12.499   7.436
94887SOL    HW286495   3.053  12.604   7.512
94888SOL     OW86496  13.865   6.947   5.344
94888SOL    HW186497  13.954   6.980   5.336
94888SOL    HW286498  13.812   7.026   5.356
94889SOL     OW86499   0.017  10.364   9.530
94889SOL    HW186500   0.012  10.405   9.444
94889SOL    HW286501   0.067  10.426   9.584
94890SOL     OW86502   9.641  11.825   7.936
94890SOL    HW186503   9.601  11.883   7.871
94890SOL    HW286504   9.606  11.855   8.020
94891SOL     OW86505   1.042   8.554   8.387
94891SOL    HW186506   1.092   8.502   8.451
94891SOL    HW286507   1.095   8.633   8.375
94892SOL     OW86508  13.441   9.220   2.665
94892SOL    HW186509  13.450   9.245   2.573
94892SOL    HW286510  13.495   9.282   2.713
94893SOL     OW86511  10.107  11.787   1.672
94893SOL    HW186512  10.101  11.799   1.767
94893SOL    HW286513  10.043  11.719   1.653
94894SOL     OW86514   1.640  12.281  13.996
94894SOL    HW186515   1.677  12.327  14.071
94894SOL    HW286516   1.715  12.256  13.943
94895SOL     OW86517   2.566   0.282   9.043
94895SOL    HW186518   2.525   0.368   9.048
94895SOL    HW286519   2.615   0.283   8.961
94896SOL     OW86520   6.577  10.414  14.702
94896SOL    HW186521   6.527  10.409  14.620
94896SOL    HW286522   6.663  10.445  14.675
94897SOL     OW86523  11.726   0.714   2.087
94897SOL    HW186524  11.775   0.795   2.093
94897SOL    HW286525  11.742   0.682   1.998
94898SOL     OW86526   1.518  13.177  10.788
94898SOL    HW186527   1.438  13.212  10.747
94898SOL    HW286528   1.522  13.220  10.873
94899SOL     OW86529  13.468   5.514  14.168
94899SOL    HW186530  13.449   5.550  14.254
94899SOL    HW286531  13.549   5.464  14.180
94900SOL     OW86532  12.810   6.545   2.894
94900SOL    HW186533  12.795   6.629   2.937
94900SOL    HW286534  12.863   6.566   2.818
94901SOL     OW86535   5.317   1.019  12.233
94901SOL    HW186536   5.401   1.063  12.219
94901SOL    HW286537   5.334   0.928  12.210
94902SOL     OW86538   9.402  14.267   4.885
94902SOL    HW186539   9.313  14.265   4.849
94902SOL    HW286540   9.430  14.358   4.876
94903SOL     OW86541   0.444   5.358   7.798
94903SOL    HW186542   0.456   5.399   7.883
94903SOL    HW286543   0.525   5.309   7.783
94904SOL     OW86544   4.716   9.747   3.254
94904SOL    HW186545   4.779   9.701   3.199
94904SOL    HW286546   4.631   9.714   3.225
94905SOL     OW86547   1.978   0.999  10.034
94905SOL    HW186548   2.058   0.952  10.013
94905SOL    HW286549   1.990   1.030  10.124
94906SOL     OW86550   9.351  12.199   7.119
94906SOL    HW186551   9.368  12.290   7.095
94906SOL    HW286552   9.393  12.148   7.049
94907SOL     OW86553  12.069   7.992  11.286
94907SOL    HW186554  12.046   7.908  11.327
94907SOL    HW286555  12.062   7.976  11.192
94908SOL     OW86556  12.356   6.519  11.570
94908SOL    HW186557  12.261   6.518  11.575
94908SOL    HW286558  12.377   6.588  11.507
94909SOL     OW86559   7.835  10.399  10.449
94909SOL    HW186560   7.870  10.313  10.473
94909SOL    HW286561   7.827  10.445  10.532
94910SOL     OW86562   7.112   1.824  13.989
94910SOL    HW186563   7.139   1.791  13.903
94910SOL    HW286564   7.017   1.814  13.990
94911SOL     OW86565   9.780   3.516   3.970
94911SOL    HW186566   9.761   3.554   3.884
94911SOL    HW286567   9.843   3.446   3.951
94912SOL     OW86568   6.867   0.376  14.624
94912SOL    HW186569   6.948   0.418  14.653
94912SOL    HW286570   6.880   0.359  14.531
94913SOL     OW86571  11.352   3.451   8.694
94913SOL    HW186572  11.321   3.455   8.784
94913SOL    HW286573  11.278   3.482   8.642
94914SOL     OW86574  14.520  13.791  14.292
94914SOL    HW186575  14.472  13.733  14.233
94914SOL    HW286576  14.507  13.752  14.379
94915SOL     OW86577   1.660   3.773  10.144
94915SOL    HW186578   1.594   3.832  10.106
94915SOL    HW286579   1.613   3.727  10.213
94916SOL     OW86580   1.644   3.476   9.252
94916SOL    HW186581   1.655   3.543   9.185
94916SOL    HW286582   1.583   3.413   9.214
94917SOL     OW86583   3.192   4.541   6.150
94917SOL    HW186584   3.195   4.452   6.117
94917SOL    HW286585   3.149   4.534   6.236
94918SOL     OW86586   6.696   0.867   5.008
94918SOL    HW186587   6.724   0.943   4.957
94918SOL    HW286588   6.629   0.825   4.954
94919SOL     OW86589  12.886   3.102   5.235
94919SOL    HW186590  12.838   3.067   5.160
94919SOL    HW286591  12.844   3.185   5.255
94920SOL     OW86592  11.014  12.726   7.043
94920SOL    HW186593  11.069  12.764   7.112
94920SOL    HW286594  11.046  12.636   7.035
94921SOL     OW86595   9.216  12.922   3.118
94921SOL    HW186596   9.161  13.000   3.124
94921SOL    HW286597   9.252  12.912   3.206
94922SOL     OW86598  12.255  10.486  10.682
94922SOL    HW186599  12.178  10.543  10.682
94922SOL    HW286600  12.280  10.480  10.774
94923SOL     OW86601   0.587   1.814   6.368
94923SOL    HW186602   0.680   1.837   6.366
94923SOL    HW286603   0.542   1.898   6.357
94924SOL     OW86604   6.787   4.151  12.615
94924SOL    HW186605   6.733   4.209  12.562
94924SOL    HW286606   6.732   4.075  12.631
94925SOL     OW86607   0.216   8.909   0.636
94925SOL    HW186608   0.155   8.858   0.689
94925SOL    HW286609   0.299   8.862   0.643
94926SOL     OW86610  11.765   4.001   0.936
94926SOL    HW186611  11.750   4.086   0.978
94926SOL    HW286612  11.799   3.945   1.005
94927SOL     OW86613   9.136   2.299   9.748
94927SOL    HW186614   9.094   2.310   9.833
94927SOL    HW286615   9.100   2.369   9.694
94928SOL     OW86616  13.960  13.068  13.364
94928SOL    HW186617  13.920  13.147  13.330
94928SOL    HW286618  14.034  13.052  13.305
94929SOL     OW86619   7.824   8.947  11.273
94929SOL    HW186620   7.901   8.891  11.284
94929SOL    HW286621   7.858   9.026  11.232
94930SOL     OW86622   9.447   6.586  13.437
94930SOL    HW186623   9.399   6.663  13.409
94930SOL    HW286624   9.384   6.515  13.432
94931SOL     OW86625   2.683   7.622  14.361
94931SOL    HW186626   2.757   7.562  14.366
94931SOL    HW286627   2.642   7.603  14.277
94932SOL     OW86628   4.676   8.192   6.251
94932SOL    HW186629   4.728   8.126   6.298
94932SOL    HW286630   4.692   8.273   6.300
94933SOL     OW86631   0.511   1.415   9.012
94933SOL    HW186632   0.445   1.475   9.046
94933SOL    HW286633   0.465   1.366   8.943
94934SOL     OW86634   5.716   3.233   2.816
94934SOL    HW186635   5.687   3.147   2.847
94934SOL    HW286636   5.770   3.214   2.739
94935SOL     OW86637   4.259   6.203   9.268
94935SOL    HW186638   4.278   6.110   9.278
94935SOL    HW286639   4.231   6.212   9.177
94936SOL     OW86640  11.976   8.754   5.029
94936SOL    HW186641  12.060   8.747   4.983
94936SOL    HW286642  11.912   8.769   4.960
94937SOL     OW86643   8.305   2.445  11.335
94937SOL    HW186644   8.266   2.514  11.389
94937SOL    HW286645   8.379   2.487  11.292
94938SOL     OW86646   0.624  11.671   9.223
94938SOL    HW186647   0.656  11.663   9.133
94938SOL    HW286648   0.539  11.714   9.215
94939SOL     OW86649  14.420   1.298   0.565
94939SOL    HW186650  14.385   1.212   0.589
94939SOL    HW286651  14.464   1.283   0.482
94940SOL     OW86652   7.484  10.948   8.435
94940SOL    HW186653   7.527  10.901   8.506
94940SOL    HW286654   7.553  10.965   8.371
94941SOL     OW86655   0.729   2.072   7.112
94941SOL    HW186656   0.663   2.002   7.118
94941SOL    HW286657   0.768   2.060   7.026
94942SOL     OW86658  13.453   2.119  13.971
94942SOL    HW186659  13.400   2.070  13.907
94942SOL    HW286660  13.529   2.149  13.921
94943SOL     OW86661   8.572  12.954   4.989
94943SOL    HW186662   8.611  12.888   5.046
94943SOL    HW286663   8.504  12.907   4.941
94944SOL     OW86664   9.141  12.514   6.527
94944SOL    HW186665   9.207  12.561   6.578
94944SOL    HW286666   9.155  12.543   6.437
94945SOL     OW86667   3.210   5.426   7.188
94945SOL    HW186668   3.275   5.367   7.149
94945SOL    HW286669   3.246   5.513   7.174
94946SOL     OW86670  13.935   1.490   5.277
94946SOL    HW186671  13.991   1.557   5.316
94946SOL    HW286672  13.898   1.443   5.352
94947SOL     OW86673  12.776   4.341   7.473
94947SOL    HW186674  12.739   4.426   7.496
94947SOL    HW286675  12.763   4.287   7.551
94948SOL     OW86676   0.072  13.959   9.048
94948SOL    HW186677   0.123  14.041   9.046
94948SOL    HW286678   0.104  13.913   9.126
94949SOL     OW86679  14.568  12.633   0.358
94949SOL    HW186680  14.591  12.541   0.372
94949SOL    HW286681  14.629  12.682   0.413
94950SOL     OW86682   9.643  12.857  11.094
94950SOL    HW186683   9.551  12.880  11.080
94950SOL    HW286684   9.670  12.907  11.171
94951SOL     OW86685   6.904   4.645   5.479
94951SOL    HW186686   6.881   4.564   5.432
94951SOL    HW286687   6.995   4.632   5.505
94952SOL     OW86688   7.824   7.574   2.188
94952SOL    HW186689   7.911   7.535   2.197
94952SOL    HW286690   7.798   7.596   2.278
94953SOL     OW86691  12.075  14.027  12.715
94953SOL    HW186692  12.116  13.950  12.677
94953SOL    HW286693  12.016  13.993  12.781
94954SOL     OW86694   9.416   0.784  11.267
94954SOL    HW186695   9.502   0.775  11.225
94954SOL    HW286696   9.416   0.872  11.302
94955SOL     OW86697   8.933   3.206  10.394
94955SOL    HW186698   8.897   3.125  10.357
94955SOL    HW286699   9.013   3.222  10.344
94956SOL     OW86700   0.893   9.865   5.740
94956SOL    HW186701   0.932   9.850   5.654
94956SOL    HW286702   0.824   9.930   5.724
94957SOL     OW86703  11.834   7.468   4.367
94957SOL    HW186704  11.929   7.470   4.371
94957SOL    HW286705  11.814   7.472   4.274
94958SOL     OW86706  14.048  11.158   6.314
94958SOL    HW186707  14.092  11.130   6.394
94958SOL    HW286708  14.074  11.250   6.304
94959SOL     OW86709  10.844  12.535   3.396
94959SOL    HW186710  10.919  12.569   3.445
94959SOL    HW286711  10.831  12.446   3.430
94960SOL     OW86712  13.352   2.233   7.657
94960SOL    HW186713  13.424   2.264   7.712
94960SOL    HW286714  13.298   2.180   7.716
94961SOL     OW86715   7.447   3.749   4.601
94961SOL    HW186716   7.533   3.783   4.575
94961SOL    HW286717   7.452   3.656   4.581
94962SOL     OW86718   8.762  13.712   1.535
94962SOL    HW186719   8.723  13.633   1.572
94962SOL    HW286720   8.814  13.680   1.461
94963SOL     OW86721   0.318   9.987   8.885
94963SOL    HW186722   0.261   9.938   8.945
94963SOL    HW286723   0.260  10.052   8.844
94964SOL     OW86724   6.605   4.750   8.483
94964SOL    HW186725   6.679   4.805   8.457
94964SOL    HW286726   6.606   4.752   8.579
94965SOL     OW86727   1.868  11.929  11.933
94965SOL    HW186728   1.952  11.906  11.895
94965SOL    HW286729   1.869  12.025  11.936
94966SOL     OW86730   3.311  10.579   3.067
94966SOL    HW186731   3.346  10.669   3.070
94966SOL    HW286732   3.221  10.589   3.036
94967SOL     OW86733   1.225   4.330  12.600
94967SOL    HW186734   1.143   4.355  12.644
94967SOL    HW286735   1.288   4.320  12.671
94968SOL     OW86736   1.176   2.848   1.454
94968SOL    HW186737   1.190   2.937   1.422
94968SOL    HW286738   1.147   2.799   1.377
94969SOL     OW86739   7.147   6.124  10.961
94969SOL    HW186740   7.201   6.074  11.022
94969SOL    HW286741   7.179   6.214  10.969
94970SOL     OW86742  12.714   7.509   1.498
94970SOL    HW186743  12.763   7.478   1.421
94970SOL    HW286744  12.661   7.434   1.524
94971SOL     OW86745   6.014   8.652   1.095
94971SOL    HW186746   5.930   8.693   1.073
94971SOL    HW286747   5.992   8.584   1.159
94972SOL     OW86748   5.389  14.870   4.191
94972SOL    HW186749   5.302  14.834   4.211
94972SOL    HW286750   5.372   0.080   4.162
94973SOL     OW86751  12.700   0.839  10.308
94973SOL    HW186752  12.784   0.828  10.263
94973SOL    HW286753  12.715   0.912  10.368
94974SOL     OW86754   8.118   2.006   1.634
94974SOL    HW186755   8.117   2.023   1.539
94974SOL    HW286756   8.204   1.968   1.650
94975SOL     OW86757   2.542   3.717  12.433
94975SOL    HW186758   2.548   3.641  12.376
94975SOL    HW286759   2.632   3.750  12.438
94976SOL     OW86760   5.897   4.248   4.493
94976SOL    HW186761   5.869   4.164   4.458
94976SOL    HW286762   5.982   4.265   4.452
94977SOL     OW86763   9.313   3.065   5.948
94977SOL    HW186764   9.262   3.100   5.875
94977SOL    HW286765   9.248   3.024   6.005
94978SOL     OW86766   4.495  13.979   2.838
94978SOL    HW186767   4.415  13.998   2.788
94978SOL    HW286768   4.472  14.001   2.928
94979SOL     OW86769   3.810   0.895  12.315
94979SOL    HW186770   3.806   0.816  12.368
94979SOL    HW286771   3.836   0.864  12.228
94980SOL     OW86772  10.964   0.584   1.206
94980SOL    HW186773  10.927   0.601   1.293
94980SOL    HW286774  10.912   0.511   1.173
94981SOL     OW86775   5.848   4.759  12.556
94981SOL    HW186776   5.910   4.723  12.619
94981SOL    HW286777   5.902   4.811  12.496
94982SOL     OW86778   3.602   7.273   6.313
94982SOL    HW186779   3.687   7.303   6.283
94982SOL    HW286780   3.555   7.353   6.338
94983SOL     OW86781  10.454   5.146   1.978
94983SOL    HW186782  10.383   5.092   1.942
94983SOL    HW286783  10.431   5.156   2.070
94984SOL     OW86784  14.638  14.260   5.347
94984SOL    HW186785  14.710  14.319   5.369
94984SOL    HW286786  14.681  14.178   5.324
94985SOL     OW86787   0.315  12.828  13.351
94985SOL    HW186788   0.286  12.763  13.287
94985SOL    HW286789   0.312  12.781  13.435
94986SOL     OW86790   7.441   6.122   0.661
94986SOL    HW186791   7.472   6.112   0.571
94986SOL    HW286792   7.475   6.207   0.689
94987SOL     OW86793   9.652   3.889   9.729
94987SOL    HW186794   9.732   3.842   9.750
94987SOL    HW286795   9.605   3.896   9.812
94988SOL     OW86796   4.277  13.876   1.411
94988SOL    HW186797   4.345  13.894   1.346
94988SOL    HW286798   4.196  13.873   1.361
94989SOL     OW86799   3.549  10.671   2.451
94989SOL    HW186800   3.633  10.649   2.492
94989SOL    HW286801   3.557  10.639   2.362
94990SOL     OW86802   1.558  13.615   7.074
94990SOL    HW186803   1.535  13.594   7.164
94990SOL    HW286804   1.481  13.659   7.039
94991SOL     OW86805  10.334   8.541   3.319
94991SOL    HW186806  10.239   8.553   3.311
94991SOL    HW286807  10.364   8.525   3.230
94992SOL     OW86808   3.168  11.681   5.877
94992SOL    HW186809   3.076  11.698   5.899
94992SOL    HW286810   3.189  11.599   5.920
94993SOL     OW86811   5.507   4.479   0.829
94993SOL    HW186812   5.595   4.499   0.797
94993SOL    HW286813   5.481   4.558   0.877
94994SOL     OW86814  13.469   0.613  13.646
94994SOL    HW186815  13.379   0.591  13.622
94994SOL    HW286816  13.465   0.706  13.669
94995SOL     OW86817   0.887   7.374  12.879
94995SOL    HW186818   0.889   7.367  12.974
94995SOL    HW286819   0.794   7.377  12.856
94996SOL     OW86820  11.048   2.882   9.017
94996SOL    HW186821  11.009   2.966   9.042
94996SOL    HW286822  11.125   2.874   9.073
94997SOL     OW86823   3.195  11.989  10.951
94997SOL    HW186824   3.111  11.951  10.977
94997SOL    HW286825   3.194  11.987  10.856
94998SOL     OW86826  14.389   5.102   6.960
94998SOL    HW186827  14.476   5.063   6.950
94998SOL    HW286828  14.329   5.036   6.925
94999SOL     OW86829   0.458   6.263   6.124
94999SOL    HW186830   0.526   6.244   6.189
94999SOL    HW286831   0.377   6.234   6.166
95000SOL     OW86832  13.752   7.744  14.450
95000SOL    HW186833  13.686   7.678  14.429
95000SOL    HW286834  13.786   7.773  14.365
95001SOL     OW86835  14.871   9.052   6.516
95001SOL    HW186836   0.056   9.062   6.445
95001SOL    HW286837   0.045   9.040   6.594
95002SOL     OW86838   8.933   7.522   5.210
95002SOL    HW186839   8.928   7.483   5.122
95002SOL    HW286840   8.930   7.616   5.195
95003SOL     OW86841   1.401  14.530   6.376
95003SOL    HW186842   1.368  14.589   6.444
95003SOL    HW286843   1.338  14.458   6.374
95004SOL     OW86844   7.293   6.687   8.806
95004SOL    HW186845   7.313   6.635   8.729
95004SOL    HW286846   7.238   6.630   8.860
95005SOL     OW86847   4.869  11.423   6.449
95005SOL    HW186848   4.931  11.360   6.410
95005SOL    HW286849   4.795  11.423   6.389
95006SOL     OW86850   8.343   7.411  11.988
95006SOL    HW186851   8.304   7.438  12.072
95006SOL    HW286852   8.353   7.316  11.995
95007SOL     OW86853  10.202   6.771   3.987
95007SOL    HW186854  10.236   6.705   4.048
95007SOL    HW286855  10.261   6.845   3.997
95008SOL     OW86856   0.744  10.332  14.820
95008SOL    HW186857   0.797  10.353  14.743
95008SOL    HW286858   0.655  10.323  14.786
95009SOL     OW86859   2.758   6.205  12.714
95009SOL    HW186860   2.725   6.291  12.689
95009SOL    HW286861   2.853   6.217  12.722
95010SOL     OW86862   5.557  13.444   7.777
95010SOL    HW186863   5.651  13.447   7.798
95010SOL    HW286864   5.514  13.478   7.856
95011SOL     OW86865  13.678   5.932   8.643
95011SOL    HW186866  13.588   5.928   8.676
95011SOL    HW286867  13.673   5.991   8.568
95012SOL     OW86868   5.588   1.166   7.489
95012SOL    HW186869   5.523   1.208   7.545
95012SOL    HW286870   5.653   1.235   7.472
95013SOL     OW86871   0.283   6.042   5.421
95013SOL    HW186872   0.208   6.097   5.398
95013SOL    HW286873   0.262   6.008   5.508
95014SOL     OW86874  13.152   8.177   0.972
95014SOL    HW186875  13.191   8.214   1.052
95014SOL    HW286876  13.166   8.244   0.906
95015SOL     OW86877  13.758   1.650  11.107
95015SOL    HW186878  13.738   1.629  11.198
95015SOL    HW286879  13.852   1.635  11.099
95016SOL     OW86880   3.383  14.543   0.011
95016SOL    HW186881   3.367  14.539   0.105
95016SOL    HW286882   3.301  14.573  14.853
95017SOL     OW86883   5.441   0.239   8.615
95017SOL    HW186884   5.483   0.190   8.545
95017SOL    HW286885   5.489   0.214   8.694
95018SOL     OW86886   0.155  13.304   5.263
95018SOL    HW186887   0.159  13.396   5.236
95018SOL    HW286888   0.189  13.303   5.352
95019SOL     OW86889   8.373   7.954   5.168
95019SOL    HW186890   8.301   7.934   5.228
95019SOL    HW286891   8.387   7.873   5.119
95020SOL     OW86892   1.262   1.569   9.495
95020SOL    HW186893   1.258   1.492   9.438
95020SOL    HW286894   1.201   1.632   9.456
95021SOL     OW86895   7.363   0.679   1.787
95021SOL    HW186896   7.335   0.596   1.748
95021SOL    HW286897   7.429   0.713   1.727
95022SOL     OW86898  14.675   1.238  13.742
95022SOL    HW186899  14.746   1.228  13.679
95022SOL    HW286900  14.610   1.173  13.715
95023SOL     OW86901   4.419   9.705  13.343
95023SOL    HW186902   4.454   9.651  13.272
95023SOL    HW286903   4.495   9.753  13.376
95024SOL     OW86904   7.919   3.362  11.143
95024SOL    HW186905   7.839   3.394  11.185
95024SOL    HW286906   7.971   3.440  11.127
95025SOL     OW86907  11.040   9.188   2.667
95025SOL    HW186908  11.079   9.106   2.636
95025SOL    HW286909  11.064   9.252   2.600
95026SOL     OW86910  10.509   8.818  12.321
95026SOL    HW186911  10.585   8.760  12.317
95026SOL    HW286912  10.449   8.783  12.255
95027SOL     OW86913   2.245  13.811   0.474
95027SOL    HW186914   2.194  13.765   0.541
95027SOL    HW286915   2.236  13.903   0.496
95028SOL     OW86916   8.288  11.386   0.819
95028SOL    HW186917   8.381  11.374   0.799
95028SOL    HW286918   8.287  11.446   0.893
95029SOL     OW86919  12.526  13.539   2.062
95029SOL    HW186920  12.523  13.461   2.006
95029SOL    HW286921  12.505  13.612   2.004
95030SOL     OW86922  12.802  12.160  12.177
95030SOL    HW186923  12.799  12.066  12.195
95030SOL    HW286924  12.784  12.201  12.261
95031SOL     OW86925   0.640   2.935  11.318
95031SOL    HW186926   0.729   2.919  11.349
95031SOL    HW286927   0.591   2.957  11.398
95032SOL     OW86928   4.468  13.648   4.738
95032SOL    HW186929   4.432  13.674   4.653
95032SOL    HW286930   4.452  13.724   4.794
95033SOL     OW86931  10.616   6.357   6.425
95033SOL    HW186932  10.607   6.262   6.413
95033SOL    HW286933  10.706   6.369   6.456
95034SOL     OW86934   6.218   1.219  13.084
95034SOL    HW186935   6.262   1.295  13.124
95034SOL    HW286936   6.128   1.223  13.117
95035SOL     OW86937   6.857   8.312   7.020
95035SOL    HW186938   6.866   8.406   7.005
95035SOL    HW286939   6.786   8.285   6.962
95036SOL     OW86940   7.860   5.817  12.821
95036SOL    HW186941   7.923   5.787  12.755
95036SOL    HW286942   7.882   5.768  12.900
95037SOL     OW86943   0.306  12.639   0.070
95037SOL    HW186944   0.218  12.675   0.062
95037SOL    HW286945   0.296  12.563   0.127
95038SOL     OW86946   3.774   7.610   1.795
95038SOL    HW186947   3.794   7.569   1.711
95038SOL    HW286948   3.847   7.670   1.810
95039SOL     OW86949   0.734   1.691  13.906
95039SOL    HW186950   0.644   1.672  13.932
95039SOL    HW286951   0.729   1.776  13.861
95040SOL     OW86952   5.714   2.328  11.208
95040SOL    HW186953   5.700   2.240  11.244
95040SOL    HW286954   5.791   2.360  11.254
95041SOL     OW86955   2.868  13.007  13.990
95041SOL    HW186956   2.855  13.102  13.993
95041SOL    HW286957   2.914  12.992  13.907
95042SOL     OW86958   0.799   3.109   2.047
95042SOL    HW186959   0.730   3.069   2.101
95042SOL    HW286960   0.822   3.041   1.984
95043SOL     OW86961  10.848   0.221   4.615
95043SOL    HW186962  10.886   0.296   4.660
95043SOL    HW286963  10.863   0.239   4.522
95044SOL     OW86964   2.183   8.643  14.825
95044SOL    HW186965   2.127   8.719  14.830
95044SOL    HW286966   2.227   8.650  14.740
95045SOL     OW86967   5.988   9.568   6.587
95045SOL    HW186968   5.970   9.586   6.494
95045SOL    HW286969   5.946   9.641   6.633
95046SOL     OW86970   5.797  13.540   4.524
95046SOL    HW186971   5.779  13.452   4.556
95046SOL    HW286972   5.843  13.583   4.596
95047SOL     OW86973  13.417   0.936   3.054
95047SOL    HW186974  13.494   0.879   3.059
95047SOL    HW286975  13.365   0.913   3.131
95048SOL     OW86976   6.358   1.669  14.273
95048SOL    HW186977   6.412   1.600  14.234
95048SOL    HW286978   6.330   1.633  14.357
95049SOL     OW86979  12.220   5.692   1.342
95049SOL    HW186980  12.236   5.784   1.322
95049SOL    HW286981  12.277   5.644   1.282
95050SOL     OW86982   3.931   8.244  12.258
95050SOL    HW186983   3.844   8.210  12.282
95050SOL    HW286984   3.932   8.333  12.291
95051SOL     OW86985   4.364   9.622   3.390
95051SOL    HW186986   4.356   9.654   3.301
95051SOL    HW286987   4.434   9.557   3.387
95052SOL     OW86988  11.485   3.055   4.946
95052SOL    HW186989  11.412   3.070   5.007
95052SOL    HW286990  11.491   2.960   4.938
95053SOL     OW86991   0.018  13.205  12.882
95053SOL    HW186992   0.008  13.300  12.876
95053SOL    HW286993  14.819  13.170  12.841
95054SOL     OW86994  10.003  13.784   3.629
95054SOL    HW186995   9.913  13.808   3.651
95054SOL    HW286996  10.004  13.688   3.631
95055SOL     OW86997   1.186   4.394   8.548
95055SOL    HW186998   1.269   4.362   8.582
95055SOL    HW286999   1.163   4.467   8.606
95056SOL     OW87000  10.263  10.589   1.949
95056SOL    HW187001  10.351  10.569   1.916
95056SOL    HW287002  10.277  10.613   2.041
95057SOL     OW87003  11.527   9.139  13.636
95057SOL    HW187004  11.503   9.089  13.557
95057SOL    HW287005  11.552   9.225  13.602
95058SOL     OW87006  12.351  14.044  10.739
95058SOL    HW187007  12.417  14.010  10.679
95058SOL    HW287008  12.373  14.136  10.749
95059SOL     OW87009  10.166   6.374   3.335
95059SOL    HW187010  10.130   6.289   3.362
95059SOL    HW287011  10.156   6.429   3.412
95060SOL     OW87012  11.711   3.635   8.197
95060SOL    HW187013  11.643   3.702   8.202
95060SOL    HW287014  11.681   3.576   8.128
95061SOL     OW87015   1.073   5.875   3.455
95061SOL    HW187016   1.033   5.881   3.368
95061SOL    HW287017   1.009   5.825   3.507
95062SOL     OW87018   2.260   2.922   0.679
95062SOL    HW187019   2.244   2.891   0.768
95062SOL    HW287020   2.196   2.875   0.625
95063SOL     OW87021   4.295   0.512   4.823
95063SOL    HW187022   4.347   0.513   4.903
95063SOL    HW287023   4.296   0.604   4.793
95064SOL     OW87024   1.316   5.485   8.897
95064SOL    HW187025   1.402   5.526   8.910
95064SOL    HW287026   1.336   5.401   8.856
95065SOL     OW87027   4.658  12.806   1.619
95065SOL    HW187028   4.688  12.896   1.628
95065SOL    HW287029   4.678  12.782   1.528
95066SOL     OW87030   2.982   8.815   2.344
95066SOL    HW187031   2.937   8.790   2.424
95066SOL    HW287032   3.007   8.907   2.358
95067SOL     OW87033  11.887   9.994   8.891
95067SOL    HW187034  11.949  10.057   8.856
95067SOL    HW287035  11.822  10.048   8.936
95068SOL     OW87036   9.594   3.457   6.819
95068SOL    HW187037   9.660   3.442   6.886
95068SOL    HW287038   9.643   3.495   6.746
95069SOL     OW87039   9.315   0.331   3.905
95069SOL    HW187040   9.295   0.409   3.957
95069SOL    HW287041   9.410   0.334   3.894
95070SOL     OW87042   7.302  12.043  12.768
95070SOL    HW187043   7.337  12.056  12.856
95070SOL    HW287044   7.234  11.977  12.779
95071SOL     OW87045   5.005   3.556  14.480
95071SOL    HW187046   4.938   3.488  14.471
95071SOL    HW287047   4.956   3.638  14.472
95072SOL     OW87048   7.740   0.928   3.566
95072SOL    HW187049   7.699   0.968   3.489
95072SOL    HW287050   7.800   0.863   3.529
95073SOL     OW87051   5.708   0.385  10.242
95073SOL    HW187052   5.641   0.422  10.184
95073SOL    HW287053   5.791   0.411  10.202
95074SOL     OW87054  12.799   0.545  10.414
95074SOL    HW187055  12.780   0.637  10.395
95074SOL    HW287056  12.725   0.516  10.468
95075SOL     OW87057   9.022   3.219   7.910
95075SOL    HW187058   8.933   3.187   7.893
95075SOL    HW287059   9.015   3.314   7.905
95076SOL     OW87060   5.264   3.319  10.198
95076SOL    HW187061   5.223   3.250  10.250
95076SOL    HW287062   5.241   3.298  10.108
95077SOL     OW87063   0.697  11.475   4.175
95077SOL    HW187064   0.643  11.547   4.141
95077SOL    HW287065   0.737  11.436   4.097
95078SOL     OW87066   0.364   7.680   5.513
95078SOL    HW187067   0.276   7.702   5.483
95078SOL    HW287068   0.359   7.588   5.538
95079SOL     OW87069   9.600  13.166  11.884
95079SOL    HW187070   9.553  13.148  11.965
95079SOL    HW287071   9.687  13.129  11.898
95080SOL     OW87072   8.640  14.166  12.908
95080SOL    HW187073   8.634  14.211  12.823
95080SOL    HW287074   8.559  14.118  12.916
95081SOL     OW87075   0.486   6.342   7.953
95081SOL    HW187076   0.581   6.338   7.941
95081SOL    HW287077   0.453   6.383   7.873
95082SOL     OW87078   2.587   7.491   6.516
95082SOL    HW187079   2.561   7.534   6.435
95082SOL    HW287080   2.635   7.558   6.565
95083SOL     OW87081   7.697   0.932   1.244
95083SOL    HW187082   7.653   0.848   1.234
95083SOL    HW287083   7.774   0.926   1.188
95084SOL     OW87084  10.578   0.276   6.463
95084SOL    HW187085  10.661   0.248   6.425
95084SOL    HW287086  10.601   0.342   6.528
95085SOL     OW87087   4.335   2.709  10.186
95085SOL    HW187088   4.327   2.762  10.107
95085SOL    HW287089   4.389   2.634  10.160
95086SOL     OW87090   8.369   3.439  14.857
95086SOL    HW187091   8.402   3.406   0.062
95086SOL    HW287092   8.395   3.372  14.794
95087SOL     OW87093   8.277   6.453   8.546
95087SOL    HW187094   8.320   6.527   8.589
95087SOL    HW287095   8.225   6.492   8.476
95088SOL     OW87096  14.326  12.411   6.243
95088SOL    HW187097  14.236  12.426   6.215
95088SOL    HW287098  14.358  12.343   6.184
95089SOL     OW87099  14.404   9.546   3.978
95089SOL    HW187100  14.354   9.604   3.920
95089SOL    HW287101  14.399   9.460   3.935
95090SOL     OW87102   9.746  11.175   0.769
95090SOL    HW187103   9.703  11.254   0.801
95090SOL    HW287104   9.709  11.162   0.681
95091SOL     OW87105  12.603   6.330   2.756
95091SOL    HW187106  12.638   6.339   2.845
95091SOL    HW287107  12.671   6.368   2.700
95092SOL     OW87108  10.619  11.556   2.959
95092SOL    HW187109  10.577  11.550   3.045
95092SOL    HW287110  10.701  11.604   2.976
95093SOL     OW87111  12.940   6.814   6.486
95093SOL    HW187112  12.917   6.738   6.433
95093SOL    HW287113  12.979   6.876   6.425
95094SOL     OW87114  14.446   3.349   6.986
95094SOL    HW187115  14.377   3.290   6.956
95094SOL    HW287116  14.433   3.429   6.935
95095SOL     OW87117  13.665   5.781   1.045
95095SOL    HW187118  13.760   5.786   1.036
95095SOL    HW287119  13.642   5.848   1.110
95096SOL     OW87120   0.350   6.289   5.329
95096SOL    HW187121   0.341   6.226   5.401
95096SOL    HW287122   0.268   6.281   5.280
95097SOL     OW87123   9.348   3.085   7.345
95097SOL    HW187124   9.300   3.008   7.376
95097SOL    HW287125   9.330   3.152   7.411
95098SOL     OW87126   7.158  14.067   1.144
95098SOL    HW187127   7.077  14.080   1.193
95098SOL    HW287128   7.202  14.152   1.146
95099SOL     OW87129   8.974  13.053  12.283
95099SOL    HW187130   9.043  13.013  12.231
95099SOL    HW287131   8.993  13.027  12.373
95100SOL     OW87132  11.642  14.489   2.979
95100SOL    HW187133  11.557  14.527   3.002
95100SOL    HW287134  11.706  14.547   3.020
95101SOL     OW87135  13.561   7.962  10.775
95101SOL    HW187136  13.621   7.917  10.715
95101SOL    HW287137  13.544   8.046  10.733
95102SOL     OW87138   7.416   5.670   6.402
95102SOL    HW187139   7.329   5.710   6.408
95102SOL    HW287140   7.400   5.582   6.369
95103SOL     OW87141   3.309   6.031  11.832
95103SOL    HW187142   3.374   5.989  11.776
95103SOL    HW287143   3.341   6.015  11.921
95104SOL     OW87144   8.703  12.163   2.168
95104SOL    HW187145   8.778  12.146   2.112
95104SOL    HW287146   8.734  12.228   2.231
95105SOL     OW87147  14.099   3.354  10.263
95105SOL    HW187148  14.141   3.268  10.255
95105SOL    HW287149  14.006   3.335  10.272
95106SOL     OW87150   9.295   3.276  10.557
95106SOL    HW187151   9.291   3.220  10.635
95106SOL    HW287152   9.261   3.360  10.588
95107SOL     OW87153   8.715  14.748   5.680
95107SOL    HW187154   8.718  14.733   5.586
95107SOL    HW287155   8.800  14.788   5.700
95108SOL     OW87156  11.029  10.308  14.310
95108SOL    HW187157  10.949  10.351  14.279
95108SOL    HW287158  11.096  10.376  14.305
95109SOL     OW87159  13.515   1.513   6.850
95109SOL    HW187160  13.489   1.421   6.848
95109SOL    HW287161  13.493   1.545   6.762
95110SOL     OW87162   4.086   5.163   6.123
95110SOL    HW187163   4.143   5.217   6.068
95110SOL    HW287164   4.104   5.194   6.212
95111SOL     OW87165   7.486   4.500   9.057
95111SOL    HW187166   7.406   4.540   9.024
95111SOL    HW287167   7.539   4.573   9.087
95112SOL     OW87168   2.397   0.092   6.173
95112SOL    HW187169   2.450   0.066   6.248
95112SOL    HW287170   2.336   0.020   6.160
95113SOL     OW87171   0.482   3.133  14.691
95113SOL    HW187172   0.502   3.088  14.773
95113SOL    HW287173   0.392   3.163  14.701
95114SOL     OW87174  10.751  11.716   9.199
95114SOL    HW187175  10.684  11.653   9.173
95114SOL    HW287176  10.744  11.721   9.294
95115SOL     OW87177   7.141   9.573   6.811
95115SOL    HW187178   7.188   9.655   6.794
95115SOL    HW287179   7.204   9.518   6.858
95116SOL     OW87180   7.343  12.575   7.210
95116SOL    HW187181   7.360  12.611   7.297
95116SOL    HW287182   7.429  12.570   7.169
95117SOL     OW87183  10.032  11.565  12.553
95117SOL    HW187184  10.040  11.586  12.646
95117SOL    HW287185  10.072  11.640  12.508
95118SOL     OW87186   2.338  14.359   8.766
95118SOL    HW187187   2.426  14.324   8.771
95118SOL    HW287188   2.332  14.399   8.679
95119SOL     OW87189   5.760   8.865  13.110
95119SOL    HW187190   5.716   8.828  13.187
95119SOL    HW287191   5.716   8.823  13.036
95120SOL     OW87192   0.101  14.420   5.860
95120SOL    HW187193   0.051  14.392   5.783
95120SOL    HW287194   0.089  14.349   5.923
95121SOL     OW87195   1.659   4.411  10.683
95121SOL    HW187196   1.569   4.437  10.704
95121SOL    HW287197   1.711   4.451  10.753
95122SOL     OW87198  11.093   4.556  13.406
95122SOL    HW187199  11.088   4.487  13.473
95122SOL    HW287200  11.003   4.570  13.379
95123SOL     OW87201   8.599   4.387   3.172
95123SOL    HW187202   8.668   4.404   3.108
95123SOL    HW287203   8.634   4.419   3.255
95124SOL     OW87204   7.003   6.757   3.098
95124SOL    HW187205   7.085   6.776   3.144
95124SOL    HW287206   6.974   6.674   3.135
95125SOL     OW87207   4.407   9.474   8.406
95125SOL    HW187208   4.404   9.541   8.337
95125SOL    HW287209   4.470   9.410   8.374
95126SOL     OW87210   4.956   8.558   3.125
95126SOL    HW187211   5.010   8.480   3.120
95126SOL    HW287212   4.988   8.615   3.056
95127SOL     OW87213   4.534  10.744  11.831
95127SOL    HW187214   4.538  10.769  11.739
95127SOL    HW287215   4.451  10.696  11.839
95128SOL     OW87216  11.629  14.840  10.041
95128SOL    HW187217  11.637  14.805   9.952
95128SOL    HW287218  11.540  14.874  10.045
95129SOL     OW87219  13.378   1.758   4.859
95129SOL    HW187220  13.471   1.778   4.847
95129SOL    HW287221  13.362   1.686   4.798
95130SOL     OW87222  13.874   1.023   5.559
95130SOL    HW187223  13.882   0.995   5.650
95130SOL    HW287224  13.914   0.951   5.509
95131SOL     OW87225   8.301  10.271   6.206
95131SOL    HW187226   8.344  10.352   6.178
95131SOL    HW287227   8.327  10.206   6.141
95132SOL     OW87228   5.629   4.176   7.130
95132SOL    HW187229   5.707   4.145   7.083
95132SOL    HW287230   5.608   4.106   7.191
95133SOL     OW87231  10.427   8.259   7.331
95133SOL    HW187232  10.466   8.218   7.408
95133SOL    HW287233  10.391   8.186   7.281
95134SOL     OW87234   2.357  10.821   2.040
95134SOL    HW187235   2.276  10.774   2.023
95134SOL    HW287236   2.349  10.852   2.130
95135SOL     OW87237   1.219  10.245   2.591
95135SOL    HW187238   1.129  10.238   2.557
95135SOL    HW287239   1.208  10.257   2.686
95136SOL     OW87240   4.832   9.819  12.068
95136SOL    HW187241   4.876   9.901  12.049
95136SOL    HW287242   4.870   9.756  12.007
95137SOL     OW87243   4.572   5.480   9.086
95137SOL    HW187244   4.553   5.388   9.104
95137SOL    HW287245   4.547   5.526   9.166
95138SOL     OW87246  12.339   7.946   7.725
95138SOL    HW187247  12.313   7.875   7.666
95138SOL    HW287248  12.257   7.980   7.759
95139SOL     OW87249   2.639  12.654  11.733
95139SOL    HW187250   2.681  12.664  11.818
95139SOL    HW287251   2.546  12.668  11.750
95140SOL     OW87252   8.206   6.064   3.528
95140SOL    HW187253   8.135   6.127   3.538
95140SOL    HW287254   8.235   6.047   3.617
95141SOL     OW87255   1.566  13.581   9.527
95141SOL    HW187256   1.484  13.538   9.551
95141SOL    HW287257   1.593  13.627   9.606
95142SOL     OW87258   0.668  13.463   3.199
95142SOL    HW187259   0.633  13.471   3.288
95142SOL    HW287260   0.641  13.544   3.155
95143SOL     OW87261   8.064   6.078   1.587
95143SOL    HW187262   8.014   6.153   1.617
95143SOL    HW287263   8.152   6.092   1.622
95144SOL     OW87264   8.945  10.459  13.306
95144SOL    HW187265   8.953  10.387  13.369
95144SOL    HW287266   8.934  10.415  13.222
95145SOL     OW87267   1.452   4.419   2.580
95145SOL    HW187268   1.464   4.342   2.636
95145SOL    HW287269   1.494   4.490   2.627
95146SOL     OW87270   7.147   6.625   7.480
95146SOL    HW187271   7.103   6.653   7.400
95146SOL    HW287272   7.085   6.642   7.550
95147SOL     OW87273  11.707   8.914   7.708
95147SOL    HW187274  11.726   8.837   7.761
95147SOL    HW287275  11.791   8.960   7.701
95148SOL     OW87276   2.868   3.224  12.401
95148SOL    HW187277   2.831   3.150  12.450
95148SOL    HW287278   2.866   3.297  12.462
95149SOL     OW87279   7.116   3.402  13.066
95149SOL    HW187280   7.111   3.327  13.126
95149SOL    HW287281   7.049   3.462  13.098
95150SOL     OW87282  14.853  10.426   3.822
95150SOL    HW187283  14.818  10.475   3.748
95150SOL    HW287284  14.872  10.339   3.787
95151SOL     OW87285   4.306  12.007  11.490
95151SOL    HW187286   4.279  12.094  11.462
95151SOL    HW287287   4.258  11.947  11.432
95152SOL     OW87288  11.751   4.528  12.140
95152SOL    HW187289  11.752   4.610  12.090
95152SOL    HW287290  11.839   4.492  12.128
95153SOL     OW87291   7.677  13.710   0.406
95153SOL    HW187292   7.655  13.659   0.484
95153SOL    HW287293   7.723  13.787   0.440
95154SOL     OW87294   4.642  11.156   0.696
95154SOL    HW187295   4.716  11.199   0.653
95154SOL    HW287296   4.624  11.211   0.773
95155SOL     OW87297   3.411   5.476  11.479
95155SOL    HW187298   3.413   5.528  11.559
95155SOL    HW287299   3.320   5.449  11.470
95156SOL     OW87300   0.625   8.331  13.752
95156SOL    HW187301   0.574   8.264  13.797
95156SOL    HW287302   0.561   8.397  13.726
95157SOL     OW87303  14.811   4.914   7.444
95157SOL    HW187304  14.827   5.003   7.412
95157SOL    HW287305  14.716   4.905   7.445
95158SOL     OW87306   7.956  11.762  12.109
95158SOL    HW187307   8.004  11.785  12.189
95158SOL    HW287308   7.905  11.841  12.089
95159SOL     OW87309   3.843   9.304   3.694
95159SOL    HW187310   3.809   9.350   3.770
95159SOL    HW287311   3.934   9.285   3.716
95160SOL     OW87312   6.886  11.925   8.117
95160SOL    HW187313   6.822  11.997   8.119
95160SOL    HW287314   6.849  11.862   8.055
95161SOL     OW87315  12.582   0.371   9.591
95161SOL    HW187316  12.487   0.363   9.601
95161SOL    HW287317  12.596   0.379   9.497
95162SOL     OW87318   4.565  13.971   9.799
95162SOL    HW187319   4.626  13.946   9.729
95162SOL    HW287320   4.502  14.029   9.757
95163SOL     OW87321  12.630   7.900  10.645
95163SOL    HW187322  12.665   7.820  10.684
95163SOL    HW287323  12.562   7.870  10.584
95164SOL     OW87324  10.730  10.750  11.013
95164SOL    HW187325  10.679  10.708  11.083
95164SOL    HW287326  10.759  10.833  11.051
95165SOL     OW87327   8.175   9.433   7.398
95165SOL    HW187328   8.180   9.515   7.449
95165SOL    HW287329   8.254   9.385   7.423
95166SOL     OW87330   7.750   5.055   2.041
95166SOL    HW187331   7.779   5.016   1.959
95166SOL    HW287332   7.827   5.050   2.098
95167SOL     OW87333   3.069   4.173  14.539
95167SOL    HW187334   3.034   4.118  14.609
95167SOL    HW287335   3.109   4.112  14.478
95168SOL     OW87336   8.365   0.597   9.630
95168SOL    HW187337   8.361   0.501   9.634
95168SOL    HW287338   8.379   0.616   9.537
95169SOL     OW87339   3.100   1.781   2.580
95169SOL    HW187340   3.047   1.702   2.573
95169SOL    HW287341   3.036   1.852   2.589
95170SOL     OW87342   1.933   4.249   0.805
95170SOL    HW187343   1.990   4.283   0.735
95170SOL    HW287344   1.857   4.214   0.759
95171SOL     OW87345   3.261   2.918   4.212
95171SOL    HW187346   3.325   2.847   4.225
95171SOL    HW287347   3.194   2.901   4.278
95172SOL     OW87348   9.029   8.779   2.276
95172SOL    HW187349   9.009   8.692   2.312
95172SOL    HW287350   8.944   8.822   2.270
95173SOL     OW87351  10.043   7.819  11.106
95173SOL    HW187352  10.018   7.796  11.196
95173SOL    HW287353  10.138   7.833  11.110
95174SOL     OW87354   2.143   5.231   7.361
95174SOL    HW187355   2.182   5.179   7.291
95174SOL    HW287356   2.200   5.218   7.436
95175SOL     OW87357  12.729   6.018  14.703
95175SOL    HW187358  12.705   6.078  14.632
95175SOL    HW287359  12.646   5.988  14.739
95176SOL     OW87360   1.130  10.296   8.153
95176SOL    HW187361   1.049  10.334   8.117
95176SOL    HW287362   1.189  10.371   8.160
95177SOL     OW87363   0.846   1.305  12.356
95177SOL    HW187364   0.800   1.351  12.426
95177SOL    HW287365   0.909   1.249  12.400
95178SOL     OW87366   8.364   8.136  12.282
95178SOL    HW187367   8.419   8.061  12.260
95178SOL    HW287368   8.306   8.145  12.207
95179SOL     OW87369  14.429   3.933  14.616
95179SOL    HW187370  14.352   3.987  14.638
95179SOL    HW287371  14.399   3.878  14.543
95180SOL     OW87372   8.279   7.952  12.654
95180SOL    HW187373   8.343   7.968  12.584
95180SOL    HW287374   8.214   7.894  12.615
95181SOL     OW87375   0.370   6.245  12.747
95181SOL    HW187376   0.376   6.332  12.785
95181SOL    HW287377   0.391   6.257  12.654
95182SOL     OW87378  12.696   2.882   1.199
95182SOL    HW187379  12.697   2.910   1.290
95182SOL    HW287380  12.731   2.793   1.200
95183SOL     OW87381   7.997  13.179   7.219
95183SOL    HW187382   8.092  13.174   7.206
95183SOL    HW287383   7.971  13.259   7.173
95184SOL     OW87384   6.113   1.910   5.928
95184SOL    HW187385   6.084   1.821   5.910
95184SOL    HW287386   6.064   1.936   6.006
95185SOL     OW87387   0.236  13.699  11.118
95185SOL    HW187388   0.203  13.646  11.046
95185SOL    HW287389   0.201  13.786  11.101
95186SOL     OW87390   7.775   2.342   3.047
95186SOL    HW187391   7.732   2.416   3.004
95186SOL    HW287392   7.703   2.282   3.070
95187SOL     OW87393   0.451  13.604  12.543
95187SOL    HW187394   0.448  13.633  12.452
95187SOL    HW287395   0.535  13.635  12.576
95188SOL     OW87396   3.279  12.573   1.079
95188SOL    HW187397   3.359  12.538   1.118
95188SOL    HW287398   3.208  12.534   1.130
95189SOL     OW87399  13.483   7.193   1.891
95189SOL    HW187400  13.468   7.261   1.826
95189SOL    HW287401  13.566   7.154   1.865
95190SOL     OW87402  10.791  14.213   9.695
95190SOL    HW187403  10.780  14.231   9.788
95190SOL    HW287404  10.872  14.163   9.690
95191SOL     OW87405   5.598   8.802  12.725
95191SOL    HW187406   5.583   8.884  12.772
95191SOL    HW287407   5.526   8.745  12.752
95192SOL     OW87408   3.393  12.313   4.896
95192SOL    HW187409   3.367  12.233   4.850
95192SOL    HW287410   3.485  12.325   4.873
95193SOL     OW87411   2.988   1.870   0.608
95193SOL    HW187412   3.064   1.894   0.661
95193SOL    HW287413   2.991   1.930   0.533
95194SOL     OW87414   0.497  10.326   8.894
95194SOL    HW187415   0.555  10.388   8.940
95194SOL    HW287416   0.409  10.354   8.919
95195SOL     OW87417  10.442  10.495  14.107
95195SOL    HW187418  10.459  10.402  14.090
95195SOL    HW287419  10.444  10.536  14.021
95196SOL     OW87420  12.923   2.442   5.738
95196SOL    HW187421  12.888   2.361   5.775
95196SOL    HW287422  13.011   2.417   5.707
95197SOL     OW87423   9.302   0.279   8.549
95197SOL    HW187424   9.331   0.325   8.471
95197SOL    HW287425   9.270   0.195   8.517
95198SOL     OW87426   4.187  10.733  12.131
95198SOL    HW187427   4.240  10.787  12.072
95198SOL    HW287428   4.250  10.681  12.180
95199SOL     OW87429   8.345   5.622   4.367
95199SOL    HW187430   8.325   5.541   4.321
95199SOL    HW287431   8.441   5.629   4.362
95200SOL     OW87432   6.618  11.166   6.672
95200SOL    HW187433   6.636  11.115   6.594
95200SOL    HW287434   6.548  11.117   6.717
95201SOL     OW87435  14.786   8.692   1.474
95201SOL    HW187436  14.832   8.611   1.497
95201SOL    HW287437  14.844   8.762   1.506
95202SOL     OW87438   5.979   1.460  12.904
95202SOL    HW187439   5.998   1.442  12.812
95202SOL    HW287440   6.051   1.515  12.934
95203SOL     OW87441  14.034   7.534   9.683
95203SOL    HW187442  14.026   7.612   9.738
95203SOL    HW287443  14.117   7.494   9.710
95204SOL     OW87444   4.902   8.511   2.428
95204SOL    HW187445   4.856   8.429   2.444
95204SOL    HW287446   4.968   8.489   2.362
95205SOL     OW87447   9.980   9.728  10.580
95205SOL    HW187448  10.069   9.697  10.597
95205SOL    HW287449   9.966   9.712  10.487
95206SOL     OW87450   6.183  11.779  13.494
95206SOL    HW187451   6.247  11.708  13.490
95206SOL    HW287452   6.234  11.859  13.477
95207SOL     OW87453   2.317   9.286  11.690
95207SOL    HW187454   2.408   9.307  11.710
95207SOL    HW287455   2.267   9.318  11.765
95208SOL     OW87456   5.161   5.721  12.634
95208SOL    HW187457   5.082   5.770  12.610
95208SOL    HW287458   5.128   5.644  12.679
95209SOL     OW87459   1.947   4.160   0.335
95209SOL    HW187460   1.954   4.073   0.295
95209SOL    HW287461   1.912   4.144   0.422
95210SOL     OW87462  12.023  12.103   1.460
95210SOL    HW187463  12.062  12.158   1.528
95210SOL    HW287464  12.096  12.047   1.431
95211SOL     OW87465   5.395  11.965   5.951
95211SOL    HW187466   5.374  11.874   5.927
95211SOL    HW287467   5.485  11.961   5.985
95212SOL     OW87468  11.263  12.322  11.412
95212SOL    HW187469  11.279  12.240  11.366
95212SOL    HW287470  11.347  12.343  11.452
95213SOL     OW87471   4.759   4.278   6.793
95213SOL    HW187472   4.728   4.368   6.798
95213SOL    HW287473   4.797   4.270   6.706
95214SOL     OW87474  13.524  12.232   5.411
95214SOL    HW187475  13.446  12.194   5.371
95214SOL    HW287476  13.492  12.309   5.459
95215SOL     OW87477   0.374  10.433   8.643
95215SOL    HW187478   0.372  10.375   8.567
95215SOL    HW287479   0.413  10.380   8.712
95216SOL     OW87480   7.959   7.776   6.027
95216SOL    HW187481   7.991   7.732   5.948
95216SOL    HW287482   7.863   7.768   6.022
95217SOL     OW87483   2.916   1.339  13.898
95217SOL    HW187484   2.917   1.433  13.883
95217SOL    HW287485   2.969   1.303  13.827
95218SOL     OW87486   3.084   8.963   1.703
95218SOL    HW187487   3.052   8.875   1.724
95218SOL    HW287488   3.179   8.956   1.708
95219SOL     OW87489   6.783   6.060   9.366
95219SOL    HW187490   6.813   6.082   9.455
95219SOL    HW287491   6.709   6.001   9.380
95220SOL     OW87492   5.556  13.388   0.404
95220SOL    HW187493   5.550  13.479   0.374
95220SOL    HW287494   5.628  13.388   0.467
95221SOL     OW87495   7.842   2.165   8.114
95221SOL    HW187496   7.911   2.200   8.171
95221SOL    HW287497   7.889   2.110   8.050
95222SOL     OW87498   3.390   2.413   1.160
95222SOL    HW187499   3.389   2.481   1.093
95222SOL    HW287500   3.308   2.366   1.147
95223SOL     OW87501   8.861  10.701   0.137
95223SOL    HW187502   8.949  10.670   0.158
95223SOL    HW287503   8.803  10.629   0.161
95224SOL     OW87504  10.262   1.715   5.563
95224SOL    HW187505  10.356   1.726   5.575
95224SOL    HW287506  10.250   1.620   5.553
95225SOL     OW87507   2.781   6.488   1.481
95225SOL    HW187508   2.844   6.416   1.471
95225SOL    HW287509   2.799   6.522   1.569
95226SOL     OW87510   9.536   3.990   6.507
95226SOL    HW187511   9.458   3.975   6.561
95226SOL    HW287512   9.594   4.043   6.562
95227SOL     OW87513   6.066   3.110   8.573
95227SOL    HW187514   5.985   3.108   8.624
95227SOL    HW287515   6.044   3.162   8.496
95228SOL     OW87516  11.216  12.183  14.499
95228SOL    HW187517  11.200  12.253  14.435
95228SOL    HW287518  11.273  12.121  14.452
95229SOL     OW87519   0.680   6.954  14.372
95229SOL    HW187520   0.750   6.915  14.424
95229SOL    HW287521   0.711   6.949  14.282
95230SOL     OW87522   0.736   1.026  10.796
95230SOL    HW187523   0.741   1.121  10.787
95230SOL    HW287524   0.750   0.993  10.708
95231SOL     OW87525  13.570   3.478  10.743
95231SOL    HW187526  13.552   3.452  10.653
95231SOL    HW287527  13.503   3.432  10.795
95232SOL     OW87528  13.579  11.874  11.900
95232SOL    HW187529  13.485  11.885  11.890
95232SOL    HW287530  13.595  11.781  11.886
95233SOL     OW87531   1.623   3.165   8.748
95233SOL    HW187532   1.611   3.163   8.843
95233SOL    HW287533   1.700   3.110   8.732
95234SOL     OW87534   4.834   9.135   3.417
95234SOL    HW187535   4.811   9.188   3.341
95234SOL    HW287536   4.858   9.050   3.381
95235SOL     OW87537   7.076   2.287   5.377
95235SOL    HW187538   7.144   2.220   5.380
95235SOL    HW287539   7.071   2.320   5.467
95236SOL     OW87540   6.688   1.116   4.610
95236SOL    HW187541   6.634   1.186   4.645
95236SOL    HW287542   6.760   1.161   4.565
95237SOL     OW87543   3.390   1.862   1.988
95237SOL    HW187544   3.448   1.872   1.913
95237SOL    HW287545   3.449   1.854   2.063
95238SOL     OW87546   2.345  11.240   7.274
95238SOL    HW187547   2.383  11.317   7.316
95238SOL    HW287548   2.341  11.264   7.182
95239SOL     OW87549   3.862   3.845   8.450
95239SOL    HW187550   3.781   3.886   8.480
95239SOL    HW287551   3.869   3.764   8.500
95240SOL     OW87552  13.657   3.974  11.957
95240SOL    HW187553  13.687   3.883  11.963
95240SOL    HW287554  13.719   4.015  11.896
95241SOL     OW87555   8.549   2.558  11.222
95241SOL    HW187556   8.620   2.606  11.265
95241SOL    HW287557   8.530   2.609  11.143
95242SOL     OW87558   1.765  13.077  12.072
95242SOL    HW187559   1.820  13.074  12.150
95242SOL    HW287560   1.676  13.086  12.107
95243SOL     OW87561   5.984   6.554   1.839
95243SOL    HW187562   5.987   6.460   1.858
95243SOL    HW287563   6.047   6.593   1.898
95244SOL     OW87564   0.919   7.647   7.476
95244SOL    HW187565   0.948   7.609   7.393
95244SOL    HW287566   0.842   7.596   7.501
95245SOL     OW87567  12.980  12.056  10.386
95245SOL    HW187568  12.959  12.007  10.465
95245SOL    HW287569  12.896  12.091  10.357
95246SOL     OW87570   9.306   9.891   6.747
95246SOL    HW187571   9.333   9.949   6.818
95246SOL    HW287572   9.231   9.842   6.783
95247SOL     OW87573   8.170  14.014   9.955
95247SOL    HW187574   8.230  13.940   9.966
95247SOL    HW287575   8.172  14.059  10.040
95248SOL     OW87576  10.926   8.740   2.132
95248SOL    HW187577  10.908   8.656   2.089
95248SOL    HW287578  10.882   8.805   2.077
95249SOL     OW87579   6.336   4.410   5.494
95249SOL    HW187580   6.327   4.393   5.588
95249SOL    HW287581   6.290   4.337   5.452
95250SOL     OW87582  11.044   0.738   8.469
95250SOL    HW187583  10.991   0.661   8.447
95250SOL    HW287584  10.983   0.799   8.510
95251SOL     OW87585   8.570   9.216  11.159
95251SOL    HW187586   8.658   9.245  11.184
95251SOL    HW287587   8.585   9.138  11.105
95252SOL     OW87588   2.669   8.778  12.384
95252SOL    HW187589   2.750   8.727  12.385
95252SOL    HW287590   2.623   8.748  12.306
95253SOL     OW87591  13.737  11.410  11.283
95253SOL    HW187592  13.761  11.364  11.364
95253SOL    HW287593  13.808  11.389  11.222
95254SOL     OW87594  11.984   1.130   0.470
95254SOL    HW187595  11.917   1.195   0.494
95254SOL    HW287596  12.064   1.182   0.457
95255SOL     OW87597   7.469   6.346   9.368
95255SOL    HW187598   7.413   6.337   9.445
95255SOL    HW287599   7.548   6.390   9.400
95256SOL     OW87600  11.815   5.989   3.289
95256SOL    HW187601  11.767   6.027   3.216
95256SOL    HW287602  11.902   6.029   3.284
95257SOL     OW87603   7.792   9.811  13.378
95257SOL    HW187604   7.799   9.715  13.382
95257SOL    HW287605   7.825   9.834  13.291
95258SOL     OW87606  13.978  11.995   1.511
95258SOL    HW187607  14.017  11.954   1.589
95258SOL    HW287608  14.052  12.031   1.463
95259SOL     OW87609   4.644   5.083  11.372
95259SOL    HW187610   4.564   5.128  11.345
95259SOL    HW287611   4.614   5.006  11.419
95260SOL     OW87612  11.899   2.600   1.952
95260SOL    HW187613  11.904   2.619   1.859
95260SOL    HW287614  11.827   2.536   1.960
95261SOL     OW87615  12.845  10.853  11.794
95261SOL    HW187616  12.847  10.760  11.820
95261SOL    HW287617  12.928  10.888  11.824
95262SOL     OW87618   7.397  12.228  14.274
95262SOL    HW187619   7.340  12.303  14.286
95262SOL    HW287620   7.350  12.155  14.313
95263SOL     OW87621   2.977   3.043   8.072
95263SOL    HW187622   2.883   3.039   8.055
95263SOL    HW287623   3.018   3.005   7.995
95264SOL     OW87624   0.915  13.424  11.658
95264SOL    HW187625   0.872  13.399  11.739
95264SOL    HW287626   0.853  13.482  11.615
95265SOL     OW87627  14.163  12.552   2.264
95265SOL    HW187628  14.159  12.574   2.171
95265SOL    HW287629  14.208  12.468   2.267
95266SOL     OW87630  10.851  12.314   4.334
95266SOL    HW187631  10.898  12.253   4.277
95266SOL    HW287632  10.894  12.399   4.320
95267SOL     OW87633  10.667   0.609  10.374
95267SOL    HW187634  10.650   0.515  10.362
95267SOL    HW287635  10.642   0.626  10.465
95268SOL     OW87636   7.251   4.067   5.187
95268SOL    HW187637   7.218   4.006   5.121
95268SOL    HW287638   7.224   4.030   5.271
95269SOL     OW87639   2.429  13.116   4.037
95269SOL    HW187640   2.510  13.085   4.078
95269SOL    HW287641   2.415  13.203   4.075
95270SOL     OW87642  11.173  14.417  11.799
95270SOL    HW187643  11.227  14.372  11.863
95270SOL    HW287644  11.083  14.406  11.831
95271SOL     OW87645   9.842   6.720   0.439
95271SOL    HW187646   9.751   6.711   0.410
95271SOL    HW287647   9.840   6.792   0.502
95272SOL     OW87648   3.767   2.531   1.383
95272SOL    HW187649   3.678   2.507   1.410
95272SOL    HW287650   3.818   2.451   1.395
95273SOL     OW87651   4.137   8.397   7.061
95273SOL    HW187652   4.146   8.397   6.966
95273SOL    HW287653   4.156   8.306   7.087
95274SOL     OW87654  12.579   2.428   9.196
95274SOL    HW187655  12.565   2.427   9.101
95274SOL    HW287656  12.638   2.355   9.212
95275SOL     OW87657   7.423   8.613  14.550
95275SOL    HW187658   7.485   8.642  14.483
95275SOL    HW287659   7.365   8.688  14.563
95276SOL     OW87660  10.870  13.416   4.394
95276SOL    HW187661  10.923  13.429   4.472
95276SOL    HW287662  10.800  13.481   4.401
95277SOL     OW87663  12.337  12.795   7.984
95277SOL    HW187664  12.322  12.767   8.075
95277SOL    HW287665  12.418  12.846   7.988
95278SOL     OW87666  12.541   5.099   4.890
95278SOL    HW187667  12.469   5.096   4.954
95278SOL    HW287668  12.591   5.019   4.908
95279SOL     OW87669   8.256  13.146   2.073
95279SOL    HW187670   8.301  13.088   2.134
95279SOL    HW287671   8.306  13.228   2.076
95280SOL     OW87672   3.408   4.306  11.597
95280SOL    HW187673   3.484   4.333  11.545
95280SOL    HW287674   3.418   4.352  11.680
95281SOL     OW87675   9.551  13.758   3.523
95281SOL    HW187676   9.534  13.791   3.435
95281SOL    HW287677   9.478  13.792   3.575
95282SOL     OW87678   0.866   4.264   9.858
95282SOL    HW187679   0.877   4.217   9.775
95282SOL    HW287680   0.774   4.251   9.880
95283SOL     OW87681   2.911   3.901   6.079
95283SOL    HW187682   2.938   3.850   6.003
95283SOL    HW287683   2.930   3.845   6.154
95284SOL     OW87684  11.237   1.782  13.611
95284SOL    HW187685  11.266   1.788  13.519
95284SOL    HW287686  11.173   1.853  13.620
95285SOL     OW87687   5.144  11.381   9.615
95285SOL    HW187688   5.099  11.424   9.542
95285SOL    HW287689   5.234  11.370   9.585
95286SOL     OW87690  14.128   1.541  13.194
95286SOL    HW187691  14.189   1.494  13.249
95286SOL    HW287692  14.177   1.562  13.115
95287SOL     OW87693  10.093   6.562   8.286
95287SOL    HW187694  10.138   6.570   8.203
95287SOL    HW287695  10.115   6.474   8.318
95288SOL     OW87696   0.852   1.273  13.133
95288SOL    HW187697   0.861   1.247  13.224
95288SOL    HW287698   0.933   1.321  13.113
95289SOL     OW87699   0.648   6.623   7.433
95289SOL    HW187700   0.714   6.555   7.446
95289SOL    HW287701   0.569   6.575   7.408
95290SOL     OW87702   1.517   0.587   2.419
95290SOL    HW187703   1.542   0.514   2.363
95290SOL    HW287704   1.433   0.561   2.457
95291SOL     OW87705   0.968   5.961   6.298
95291SOL    HW187706   1.062   5.979   6.294
95291SOL    HW287707   0.959   5.872   6.263
95292SOL     OW87708   2.646   4.419   0.276
95292SOL    HW187709   2.727   4.369   0.283
95292SOL    HW287710   2.577   4.357   0.300
95293SOL     OW87711   9.431   6.789   6.532
95293SOL    HW187712   9.435   6.765   6.440
95293SOL    HW287713   9.443   6.884   6.533
95294SOL     OW87714  14.332   1.600   7.103
95294SOL    HW187715  14.400   1.632   7.044
95294SOL    HW287716  14.313   1.674   7.161
95295SOL     OW87717  12.985   1.123  10.122
95295SOL    HW187718  13.001   1.030  10.110
95295SOL    HW287719  12.910   1.142  10.066
95296SOL     OW87720   0.467   7.381  14.470
95296SOL    HW187721   0.536   7.425  14.519
95296SOL    HW287722   0.512   7.309  14.426
95297SOL     OW87723   1.728   4.192  12.217
95297SOL    HW187724   1.725   4.097  12.232
95297SOL    HW287725   1.672   4.229  12.285
95298SOL     OW87726  12.958   0.198   6.722
95298SOL    HW187727  13.011   0.232   6.651
95298SOL    HW287728  13.020   0.174   6.791
95299SOL     OW87729   7.436  14.148   9.851
95299SOL    HW187730   7.385  14.140   9.770
95299SOL    HW287731   7.515  14.096   9.836
95300SOL     OW87732  11.597  14.132   1.687
95300SOL    HW187733  11.542  14.070   1.640
95300SOL    HW287734  11.538  14.202   1.714
95301SOL     OW87735   3.839   8.891  12.542
95301SOL    HW187736   3.830   8.986  12.529
95301SOL    HW287737   3.767   8.853  12.492
95302SOL     OW87738  11.405   4.228  14.642
95302SOL    HW187739  11.329   4.182  14.678
95302SOL    HW287740  11.451   4.162  14.590
95303SOL     OW87741   1.501   2.158  14.396
95303SOL    HW187742   1.468   2.222  14.458
95303SOL    HW287743   1.492   2.074  14.441
95304SOL     OW87744  12.467  11.456   3.262
95304SOL    HW187745  12.531  11.386   3.275
95304SOL    HW287746  12.493  11.524   3.325
95305SOL     OW87747  10.308   3.172   6.370
95305SOL    HW187748  10.270   3.248   6.414
95305SOL    HW287749  10.308   3.103   6.436
95306SOL     OW87750  13.110  10.138   4.691
95306SOL    HW187751  13.064  10.168   4.769
95306SOL    HW287752  13.202  10.159   4.708
95307SOL     OW87753  14.310   3.085   1.503
95307SOL    HW187754  14.298   3.017   1.569
95307SOL    HW287755  14.281   3.166   1.546
95308SOL     OW87756   4.771   0.099   0.384
95308SOL    HW187757   4.733   0.136   0.304
95308SOL    HW287758   4.696   0.084   0.442
95309SOL     OW87759   3.650   5.155   5.221
95309SOL    HW187760   3.641   5.250   5.225
95309SOL    HW287761   3.636   5.126   5.311
95310SOL     OW87762   2.715  14.408   2.514
95310SOL    HW187763   2.777  14.465   2.558
95310SOL    HW287764   2.753  14.320   2.523
95311SOL     OW87765   9.479   3.141   4.950
95311SOL    HW187766   9.450   3.230   4.970
95311SOL    HW287767   9.558   3.130   5.002
95312SOL     OW87768  10.531  11.665  10.637
95312SOL    HW187769  10.453  11.692  10.687
95312SOL    HW287770  10.497  11.605  10.571
95313SOL     OW87771   0.934   9.328   8.685
95313SOL    HW187772   0.964   9.262   8.748
95313SOL    HW287773   0.982   9.308   8.605
95314SOL     OW87774   6.621  11.728   1.350
95314SOL    HW187775   6.622  11.815   1.310
95314SOL    HW287776   6.605  11.668   1.276
95315SOL     OW87777  14.211  12.641   1.371
95315SOL    HW187778  14.278  12.582   1.336
95315SOL    HW287779  14.156  12.662   1.297
95316SOL     OW87780   5.350  12.844   2.618
95316SOL    HW187781   5.422  12.893   2.579
95316SOL    HW287782   5.275  12.903   2.612
95317SOL     OW87783  13.859   8.852  14.491
95317SOL    HW187784  13.877   8.833  14.399
95317SOL    HW287785  13.768   8.882  14.492
95318SOL     OW87786  11.835   7.064   0.044
95318SOL    HW187787  11.744   7.087   0.066
95318SOL    HW287788  11.827   7.008  14.846
95319SOL     OW87789   9.573  10.404   0.536
95319SOL    HW187790   9.557  10.391   0.629
95319SOL    HW287791   9.625  10.484   0.531
95320SOL     OW87792   7.380   2.804   4.089
95320SOL    HW187793   7.379   2.709   4.074
95320SOL    HW287794   7.458   2.835   4.042
95321SOL     OW87795   9.262   4.035  11.199
95321SOL    HW187796   9.170   4.015  11.213
95321SOL    HW287797   9.270   4.128  11.221
95322SOL     OW87798  12.480  13.561   5.596
95322SOL    HW187799  12.549  13.500   5.567
95322SOL    HW287800  12.404  13.505   5.611
95323SOL     OW87801   1.360  14.677   4.729
95323SOL    HW187802   1.317  14.617   4.790
95323SOL    HW287803   1.311  14.668   4.647
95324SOL     OW87804   6.303   0.132   0.266
95324SOL    HW187805   6.302   0.043   0.232
95324SOL    HW287806   6.221   0.139   0.316
95325SOL     OW87807   6.001   7.974  11.511
95325SOL    HW187808   6.037   7.885  11.506
95325SOL    HW287809   5.954   7.975  11.594
95326SOL     OW87810   1.949   6.358   4.191
95326SOL    HW187811   2.014   6.428   4.187
95326SOL    HW287812   1.948   6.330   4.282
95327SOL     OW87813   8.126   2.427   6.184
95327SOL    HW187814   8.193   2.368   6.219
95327SOL    HW287815   8.044   2.377   6.193
95328SOL     OW87816   3.434  13.752   2.950
95328SOL    HW187817   3.493  13.677   2.952
95328SOL    HW287818   3.453  13.796   2.868
95329SOL     OW87819   6.170   1.960  12.124
95329SOL    HW187820   6.265   1.967  12.111
95329SOL    HW287821   6.148   1.874  12.088
95330SOL     OW87822  11.731  11.483   2.336
95330SOL    HW187823  11.778  11.426   2.275
95330SOL    HW287824  11.767  11.570   2.319
95331SOL     OW87825   7.043   9.980  14.635
95331SOL    HW187826   7.129   9.944  14.612
95331SOL    HW287827   7.035   9.963  14.729
95332SOL     OW87828  11.785   2.899  10.711
95332SOL    HW187829  11.861   2.955  10.692
95332SOL    HW287830  11.818   2.834  10.772
95333SOL     OW87831   0.475   1.470   7.075
95333SOL    HW187832   0.441   1.380   7.070
95333SOL    HW287833   0.412   1.522   7.024
95334SOL     OW87834   1.640   0.483  10.819
95334SOL    HW187835   1.674   0.397  10.844
95334SOL    HW287836   1.596   0.468  10.735
95335SOL     OW87837   2.600   6.430   4.602
95335SOL    HW187838   2.546   6.419   4.524
95335SOL    HW287839   2.653   6.507   4.584
95336SOL     OW87840   4.229   0.990  10.151
95336SOL    HW187841   4.270   1.074  10.129
95336SOL    HW287842   4.136   1.010  10.163
95337SOL     OW87843  12.730   8.859   8.039
95337SOL    HW187844  12.813   8.832   8.079
95337SOL    HW287845  12.707   8.940   8.085
95338SOL     OW87846  13.365  14.876  12.737
95338SOL    HW187847  13.347   0.078  12.690
95338SOL    HW287848  13.290  14.819  12.719
95339SOL     OW87849  13.226   8.114  14.763
95339SOL    HW187850  13.312   8.150  14.783
95339SOL    HW287851  13.208   8.052  14.834
95340SOL     OW87852   6.725   2.811   5.914
95340SOL    HW187853   6.684   2.795   5.999
95340SOL    HW287854   6.819   2.805   5.931
95341SOL     OW87855   4.682   0.447  12.763
95341SOL    HW187856   4.721   0.361  12.778
95341SOL    HW287857   4.588   0.432  12.770
95342SOL     OW87858  14.263   0.529  14.685
95342SOL    HW187859  14.210   0.550  14.762
95342SOL    HW287860  14.199   0.516  14.614
95343SOL     OW87861  13.782  12.346   4.973
95343SOL    HW187862  13.845  12.343   5.045
95343SOL    HW287863  13.703  12.383   5.013
95344SOL     OW87864   2.049   3.110  11.012
95344SOL    HW187865   2.014   3.066  11.090
95344SOL    HW287866   2.090   3.039  10.961
95345SOL     OW87867   0.157  10.797   5.887
95345SOL    HW187868   0.193  10.881   5.914
95345SOL    HW287869   0.070  10.795   5.928
95346SOL     OW87870  14.599   6.089   6.146
95346SOL    HW187871  14.515   6.075   6.102
95346SOL    HW287872  14.662   6.093   6.074
95347SOL     OW87873   1.824   0.548   4.730
95347SOL    HW187874   1.904   0.497   4.743
95347SOL    HW287875   1.854   0.631   4.694
95348SOL     OW87876   2.646   8.065  13.014
95348SOL    HW187877   2.654   7.970  12.998
95348SOL    HW287878   2.578   8.094  12.954
95349SOL     OW87879   7.255   0.359   5.142
95349SOL    HW187880   7.256   0.341   5.048
95349SOL    HW287881   7.312   0.435   5.153
95350SOL     OW87882   5.181   3.020  14.834
95350SOL    HW187883   5.179   2.962  14.758
95350SOL    HW287884   5.109   3.082  14.820
95351SOL     OW87885   4.064   0.640  14.587
95351SOL    HW187886   4.066   0.651  14.492
95351SOL    HW287887   4.016   0.559  14.601
95352SOL     OW87888  11.134   6.894   4.751
95352SOL    HW187889  11.157   6.939   4.669
95352SOL    HW287890  11.094   6.963   4.805
95353SOL     OW87891  13.231   1.013  14.056
95353SOL    HW187892  13.181   1.071  14.113
95353SOL    HW287893  13.293   0.969  14.114
95354SOL     OW87894  12.484   4.759   3.408
95354SOL    HW187895  12.507   4.719   3.492
95354SOL    HW287896  12.451   4.846   3.432
95355SOL     OW87897   3.514   7.981  11.866
95355SOL    HW187898   3.510   7.919  11.939
95355SOL    HW287899   3.606   7.980  11.838
95356SOL     OW87900   8.168   6.122   0.332
95356SOL    HW187901   8.092   6.119   0.390
95356SOL    HW287902   8.235   6.069   0.376
95357SOL     OW87903  14.787   3.203   1.712
95357SOL    HW187904  14.789   3.109   1.732
95357SOL    HW287905  14.870   3.221   1.669
95358SOL     OW87906   6.180   4.006   3.380
95358SOL    HW187907   6.085   4.015   3.379
95358SOL    HW287908   6.196   3.914   3.358
95359SOL     OW87909   1.623   0.698   4.484
95359SOL    HW187910   1.694   0.638   4.462
95359SOL    HW287911   1.589   0.666   4.567
95360SOL     OW87912   8.051  10.154   5.450
95360SOL    HW187913   8.141  10.178   5.428
95360SOL    HW287914   8.010  10.135   5.365
95361SOL     OW87915  13.988  11.165   4.140
95361SOL    HW187916  14.081  11.183   4.156
95361SOL    HW287917  13.985  11.131   4.051
95362SOL     OW87918  12.165   9.194   0.802
95362SOL    HW187919  12.227   9.265   0.820
95362SOL    HW287920  12.213   9.114   0.824
95363SOL     OW87921   5.199   3.407   0.893
95363SOL    HW187922   5.271   3.459   0.928
95363SOL    HW287923   5.199   3.428   0.799
95364SOL     OW87924  11.564  13.240   6.231
95364SOL    HW187925  11.507  13.295   6.285
95364SOL    HW287926  11.594  13.298   6.161
95365SOL     OW87927   9.704  10.633   0.470
95365SOL    HW187928   9.785  10.653   0.422
95365SOL    HW287929   9.709  10.687   0.548
95366SOL     OW87930  13.381   1.643  12.758
95366SOL    HW187931  13.340   1.703  12.820
95366SOL    HW287932  13.308   1.596  12.718
95367SOL     OW87933   3.824   0.763  11.787
95367SOL    HW187934   3.881   0.750  11.712
95367SOL    HW287935   3.739   0.730  11.759
95368SOL     OW87936   3.379   8.419  10.914
95368SOL    HW187937   3.307   8.362  10.887
95368SOL    HW287938   3.419   8.448  10.832
95369SOL     OW87939  12.026   7.619   1.770
95369SOL    HW187940  12.024   7.612   1.674
95369SOL    HW287941  12.098   7.560   1.796
95370SOL     OW87942   1.948   2.481   0.414
95370SOL    HW187943   1.974   2.473   0.506
95370SOL    HW287944   2.019   2.530   0.374
95371SOL     OW87945   1.323  13.622   8.928
95371SOL    HW187946   1.335  13.716   8.916
95371SOL    HW287947   1.409  13.589   8.954
95372SOL     OW87948  13.923   9.564  14.502
95372SOL    HW187949  13.914   9.630  14.433
95372SOL    HW287950  14.008   9.524  14.486
95373SOL     OW87951  14.041   6.988   4.650
95373SOL    HW187952  13.954   7.024   4.668
95373SOL    HW287953  14.075   7.041   4.578
95374SOL     OW87954  14.186  12.455   7.599
95374SOL    HW187955  14.106  12.403   7.599
95374SOL    HW287956  14.206  12.468   7.691
95375SOL     OW87957   2.456   1.312   9.175
95375SOL    HW187958   2.542   1.353   9.188
95375SOL    HW287959   2.436   1.272   9.260
95376SOL     OW87960  11.720  12.808   2.760
95376SOL    HW187961  11.725  12.903   2.753
95376SOL    HW287962  11.646  12.784   2.705
95377SOL     OW87963   7.703   5.293   8.986
95377SOL    HW187964   7.653   5.373   8.997
95377SOL    HW287965   7.786   5.321   8.947
95378SOL     OW87966   4.217   7.209   3.882
95378SOL    HW187967   4.134   7.223   3.927
95378SOL    HW287968   4.230   7.289   3.830
95379SOL     OW87969   9.018   1.208  13.702
95379SOL    HW187970   9.024   1.277  13.636
95379SOL    HW287971   9.105   1.167  13.702
95380SOL     OW87972  12.853   3.987   9.005
95380SOL    HW187973  12.912   4.030   9.067
95380SOL    HW287974  12.906   3.918   8.966
95381SOL     OW87975  14.827  13.580   9.993
95381SOL    HW187976   0.011  13.603   9.924
95381SOL    HW287977  14.751  13.636   9.977
95382SOL     OW87978   3.963   3.379  10.658
95382SOL    HW187979   4.034   3.430  10.620
95382SOL    HW287980   3.958   3.410  10.749
95383SOL     OW87981   6.436  10.111  11.365
95383SOL    HW187982   6.390  10.191  11.389
95383SOL    HW287983   6.381  10.072  11.297
95384SOL     OW87984  10.718  13.676  10.796
95384SOL    HW187985  10.774  13.630  10.859
95384SOL    HW287986  10.630  13.667  10.831
95385SOL     OW87987  11.682  13.170   8.603
95385SOL    HW187988  11.666  13.091   8.550
95385SOL    HW287989  11.778  13.179   8.605
95386SOL     OW87990   6.239   0.243   3.091
95386SOL    HW187991   6.175   0.226   3.160
95386SOL    HW287992   6.319   0.202   3.122
95387SOL     OW87993   4.989  12.514   3.475
95387SOL    HW187994   5.003  12.474   3.389
95387SOL    HW287995   5.032  12.599   3.469
95388SOL     OW87996   8.650   8.696  10.850
95388SOL    HW187997   8.564   8.660  10.830
95388SOL    HW287998   8.639   8.791  10.840
95389SOL     OW87999   7.083  14.538   5.887
95389SOL    HW188000   7.046  14.586   5.813
95389SOL    HW288001   7.050  14.583   5.964
95390SOL     OW88002   9.467  12.452  13.961
95390SOL    HW188003   9.531  12.428  14.028
95390SOL    HW288004   9.491  12.399  13.885
95391SOL     OW88005  11.307  13.089   1.548
95391SOL    HW188006  11.314  13.177   1.584
95391SOL    HW288007  11.292  13.103   1.454
95392SOL     OW88008   9.584   7.343   2.183
95392SOL    HW188009   9.659   7.370   2.130
95392SOL    HW288010   9.615   7.351   2.273
95393SOL     OW88011  13.797   7.028   2.776
95393SOL    HW188012  13.877   7.066   2.810
95393SOL    HW288013  13.822   6.940   2.748
95394SOL     OW88014   5.007   9.781  12.681
95394SOL    HW188015   4.925   9.748  12.646
95394SOL    HW288016   5.066   9.705  12.680
95395SOL     OW88017   0.603   8.703   1.973
95395SOL    HW188018   0.663   8.742   1.909
95395SOL    HW288019   0.597   8.768   2.043
95396SOL     OW88020   1.734  14.786   3.587
95396SOL    HW188021   1.708  14.702   3.625
95396SOL    HW288022   1.744  14.845   3.661
95397SOL     OW88023   3.021   4.499   5.343
95397SOL    HW188024   2.966   4.577   5.332
95397SOL    HW288025   2.959   4.426   5.344
95398SOL     OW88026   2.704  11.635   3.218
95398SOL    HW188027   2.649  11.559   3.238
95398SOL    HW288028   2.658  11.680   3.147
95399SOL     OW88029   3.671  13.964   6.157
95399SOL    HW188030   3.671  13.970   6.252
95399SOL    HW288031   3.591  13.916   6.136
95400SOL     OW88032   5.304   2.090   6.933
95400SOL    HW188033   5.267   2.080   7.020
95400SOL    HW288034   5.370   2.158   6.942
95401SOL     OW88035   1.931   0.935   6.222
95401SOL    HW188036   1.956   0.909   6.311
95401SOL    HW288037   1.947   1.030   6.220
95402SOL     OW88038   4.162   8.488  10.723
95402SOL    HW188039   4.149   8.512  10.632
95402SOL    HW288040   4.093   8.534  10.771
95403SOL     OW88041  11.766   9.168   0.452
95403SOL    HW188042  11.830   9.178   0.522
95403SOL    HW288043  11.777   9.078   0.421
95404SOL     OW88044  10.583   2.429   4.008
95404SOL    HW188045  10.652   2.381   4.056
95404SOL    HW288046  10.501   2.396   4.045
95405SOL     OW88047  14.192  13.114   1.073
95405SOL    HW188048  14.266  13.171   1.093
95405SOL    HW288049  14.150  13.096   1.157
95406SOL     OW88050   0.376   8.647   0.568
95406SOL    HW188051   0.413   8.561   0.553
95406SOL    HW288052   0.451   8.702   0.590
95407SOL     OW88053  11.120   7.954   2.244
95407SOL    HW188054  11.179   7.987   2.176
95407SOL    HW288055  11.043   7.924   2.196
95408SOL     OW88056   6.244   6.244   7.057
95408SOL    HW188057   6.263   6.157   7.023
95408SOL    HW288058   6.246   6.300   6.979
95409SOL     OW88059   2.624   6.904  13.273
95409SOL    HW188060   2.569   6.969  13.230
95409SOL    HW288061   2.681   6.872  13.203
95410SOL     OW88062  10.805   2.309   4.143
95410SOL    HW188063  10.831   2.282   4.231
95410SOL    HW288064  10.884   2.298   4.090
95411SOL     OW88065   2.484   5.339  10.819
95411SOL    HW188066   2.505   5.412  10.878
95411SOL    HW288067   2.439   5.380  10.746
95412SOL     OW88068   8.320   2.873  10.590
95412SOL    HW188069   8.408   2.905  10.568
95412SOL    HW288070   8.280   2.853  10.506
95413SOL     OW88071   2.986   0.211   5.719
95413SOL    HW188072   2.956   0.295   5.683
95413SOL    HW288073   2.908   0.174   5.761
95414SOL     OW88074   2.169   2.055  13.255
95414SOL    HW188075   2.082   2.018  13.244
95414SOL    HW288076   2.187   2.048  13.349
95415SOL     OW88077   3.356   6.538   2.318
95415SOL    HW188078   3.361   6.599   2.391
95415SOL    HW288079   3.363   6.451   2.357
95416SOL     OW88080  10.279  11.214   5.550
95416SOL    HW188081  10.244  11.169   5.627
95416SOL    HW288082  10.315  11.143   5.496
95417SOL     OW88083   9.586  13.108   7.853
95417SOL    HW188084   9.626  13.178   7.802
95417SOL    HW288085   9.494  13.107   7.825
95418SOL     OW88086  10.670  12.875  12.551
95418SOL    HW188087  10.623  12.854  12.470
95418SOL    HW288088  10.609  12.931  12.600
95419SOL     OW88089   7.840  10.975  10.210
95419SOL    HW188090   7.765  10.942  10.161
95419SOL    HW288091   7.803  11.003  10.294
95420SOL     OW88092   4.715   2.204   2.277
95420SOL    HW188093   4.800   2.244   2.261
95420SOL    HW288094   4.656   2.247   2.216
95421SOL     OW88095  11.558  11.999  11.338
95421SOL    HW188096  11.604  11.929  11.293
95421SOL    HW288097  11.586  12.079  11.293
95422SOL     OW88098   6.792   0.838  11.895
95422SOL    HW188099   6.887   0.835  11.897
95422SOL    HW288100   6.771   0.928  11.869
95423SOL     OW88101  12.466   8.453  12.428
95423SOL    HW188102  12.434   8.370  12.391
95423SOL    HW288103  12.387   8.498  12.457
95424SOL     OW88104   5.889   8.766  13.682
95424SOL    HW188105   5.984   8.781  13.683
95424SOL    HW288106   5.852   8.851  13.661
95425SOL     OW88107   2.051   2.161  11.976
95425SOL    HW188108   2.001   2.096  12.025
95425SOL    HW288109   2.131   2.174  12.028
95426SOL     OW88110  12.997   5.328  11.050
95426SOL    HW188111  13.032   5.298  10.966
95426SOL    HW288112  13.049   5.406  11.072
95427SOL     OW88113  11.049   0.183   0.267
95427SOL    HW188114  11.025   0.099   0.228
95427SOL    HW288115  11.127   0.164   0.320
95428SOL     OW88116   9.284   0.556   9.403
95428SOL    HW188117   9.203   0.549   9.455
95428SOL    HW288118   9.344   0.605   9.459
95429SOL     OW88119   6.353  14.545   6.280
95429SOL    HW188120   6.376  14.575   6.367
95429SOL    HW288121   6.378  14.617   6.222
95430SOL     OW88122   5.217   3.889  13.064
95430SOL    HW188123   5.253   3.832  12.997
95430SOL    HW288124   5.235   3.978  13.033
95431SOL     OW88125   7.867   5.752   5.302
95431SOL    HW188126   7.873   5.836   5.256
95431SOL    HW288127   7.774   5.744   5.323
95432SOL     OW88128   0.098   2.852   6.932
95432SOL    HW188129   0.160   2.821   6.999
95432SOL    HW288130   0.012   2.823   6.964
95433SOL     OW88131   3.814  13.972  13.676
95433SOL    HW188132   3.875  13.900  13.688
95433SOL    HW288133   3.869  14.051  13.682
95434SOL     OW88134  11.811   2.660   6.356
95434SOL    HW188135  11.789   2.725   6.289
95434SOL    HW288136  11.905   2.670   6.369
95435SOL     OW88137   9.120   4.445  11.193
95435SOL    HW188138   9.138   4.374  11.254
95435SOL    HW288139   9.192   4.507  11.206
95436SOL     OW88140   3.435   3.206   1.776
95436SOL    HW188141   3.495   3.276   1.752
95436SOL    HW288142   3.469   3.129   1.731
95437SOL     OW88143   5.263   3.882  13.639
95437SOL    HW188144   5.312   3.864  13.559
95437SOL    HW288145   5.328   3.885  13.708
95438SOL     OW88146   1.927   6.917   1.811
95438SOL    HW188147   1.978   6.845   1.848
95438SOL    HW288148   1.980   6.949   1.738
95439SOL     OW88149   4.817   0.969   3.689
95439SOL    HW188150   4.775   1.016   3.760
95439SOL    HW288151   4.746   0.929   3.640
95440SOL     OW88152  13.764   5.974   5.967
95440SOL    HW188153  13.688   5.988   5.910
95440SOL    HW288154  13.776   6.058   6.011
95441SOL     OW88155   0.967   7.315  11.937
95441SOL    HW188156   0.875   7.307  11.964
95441SOL    HW288157   0.964   7.315  11.842
95442SOL     OW88158   2.744   4.092  10.358
95442SOL    HW188159   2.720   4.106  10.450
95442SOL    HW288160   2.834   4.060  10.362
95443SOL     OW88161   3.340   8.144   8.922
95443SOL    HW188162   3.370   8.229   8.889
95443SOL    HW288163   3.398   8.080   8.881
95444SOL     OW88164   3.536   3.653   2.018
95444SOL    HW188165   3.476   3.599   2.068
95444SOL    HW288166   3.607   3.594   1.992
95445SOL     OW88167   1.402   0.929  12.016
95445SOL    HW188168   1.386   0.928  12.111
95445SOL    HW288169   1.379   1.018  11.989
95446SOL     OW88170  12.748  10.407  11.059
95446SOL    HW188171  12.775  10.321  11.090
95446SOL    HW288172  12.728  10.394  10.966
95447SOL     OW88173   1.192   5.322   2.715
95447SOL    HW188174   1.257   5.258   2.742
95447SOL    HW288175   1.196   5.322   2.619
95448SOL     OW88176   7.090   7.340   1.611
95448SOL    HW188177   7.117   7.277   1.678
95448SOL    HW288178   7.005   7.308   1.581
95449SOL     OW88179   5.378   6.688   1.344
95449SOL    HW188180   5.453   6.717   1.396
95449SOL    HW288181   5.307   6.679   1.408
95450SOL     OW88182   7.819  13.860   9.052
95450SOL    HW188183   7.845  13.875   8.962
95450SOL    HW288184   7.841  13.768   9.069
95451SOL     OW88185  11.728   6.336   9.723
95451SOL    HW188186  11.727   6.369   9.812
95451SOL    HW288187  11.638   6.309   9.706
95452SOL     OW88188   6.344  14.862  14.178
95452SOL    HW188189   6.425  14.835  14.135
95452SOL    HW288190   6.353   0.078  14.188
95453SOL     OW88191   3.171   0.733   4.077
95453SOL    HW188192   3.163   0.735   4.173
95453SOL    HW288193   3.143   0.646   4.052
95454SOL     OW88194  11.933  12.844   7.911
95454SOL    HW188195  11.987  12.880   7.981
95454SOL    HW288196  11.859  12.804   7.957
95455SOL     OW88197   0.117   8.452   3.872
95455SOL    HW188198   0.181   8.512   3.911
95455SOL    HW288199   0.039   8.505   3.857
95456SOL     OW88200   5.936  10.266   2.561
95456SOL    HW188201   5.898  10.223   2.639
95456SOL    HW288202   5.863  10.315   2.523
95457SOL     OW88203   9.065   2.133   4.790
95457SOL    HW188204   8.982   2.126   4.837
95457SOL    HW288205   9.056   2.212   4.736
95458SOL     OW88206   5.713  11.135  14.641
95458SOL    HW188207   5.653  11.061  14.633
95458SOL    HW288208   5.792  11.098  14.678
95459SOL     OW88209  10.687   8.411   1.613
95459SOL    HW188210  10.766   8.427   1.561
95459SOL    HW288211  10.657   8.325   1.586
95460SOL     OW88212  11.568  14.664  14.433
95460SOL    HW188213  11.544  14.668  14.341
95460SOL    HW288214  11.566  14.571  14.455
95461SOL     OW88215   5.650   2.609  13.705
95461SOL    HW188216   5.614   2.698  13.697
95461SOL    HW288217   5.619   2.563  13.627
95462SOL     OW88218   5.373  13.011  14.672
95462SOL    HW188219   5.283  13.020  14.703
95462SOL    HW288220   5.376  12.923  14.633
95463SOL     OW88221   1.223   2.355   7.934
95463SOL    HW188222   1.282   2.405   7.990
95463SOL    HW288223   1.153   2.417   7.911
95464SOL     OW88224  12.825   4.605  12.278
95464SOL    HW188225  12.823   4.564  12.365
95464SOL    HW288226  12.856   4.694  12.295
95465SOL     OW88227   2.181   0.709  13.130
95465SOL    HW188228   2.184   0.715  13.034
95465SOL    HW288229   2.186   0.800  13.160
95466SOL     OW88230  13.122   6.587   2.484
95466SOL    HW188231  13.188   6.655   2.497
95466SOL    HW288232  13.091   6.600   2.394
95467SOL     OW88233   0.160  13.657   8.465
95467SOL    HW188234   0.224  13.587   8.480
95467SOL    HW288235   0.132  13.646   8.375
95468SOL     OW88236  12.800  13.426  14.502
95468SOL    HW188237  12.758  13.429  14.588
95468SOL    HW288238  12.748  13.485  14.448
95469SOL     OW88239   4.887  11.078   3.712
95469SOL    HW188240   4.851  11.003   3.761
95469SOL    HW288241   4.934  11.129   3.777
95470SOL     OW88242   0.127   2.299  11.023
95470SOL    HW188243   0.102   2.207  11.031
95470SOL    HW288244   0.183   2.315  11.099
95471SOL     OW88245   1.090  14.376   9.078
95471SOL    HW188246   1.090  14.280   9.083
95471SOL    HW288247   1.177  14.398   9.043
95472SOL     OW88248  14.216   3.391  13.561
95472SOL    HW188249  14.138   3.366  13.512
95472SOL    HW288250  14.196   3.366  13.652
95473SOL     OW88251   1.231   7.464   1.281
95473SOL    HW188252   1.285   7.402   1.330
95473SOL    HW288253   1.142   7.451   1.315
95474SOL     OW88254  13.164  13.249   0.372
95474SOL    HW188255  13.079  13.219   0.339
95474SOL    HW288256  13.150  13.342   0.393
95475SOL     OW88257   7.804   5.018  12.421
95475SOL    HW188258   7.836   5.108  12.421
95475SOL    HW288259   7.866   4.971  12.478
95476SOL     OW88260   0.570  13.920   9.085
95476SOL    HW188261   0.653  13.946   9.125
95476SOL    HW288262   0.503  13.951   9.146
95477SOL     OW88263  14.477  11.721   9.250
95477SOL    HW188264  14.556  11.749   9.296
95477SOL    HW288265  14.437  11.656   9.308
95478SOL     OW88266   0.934  12.954   7.444
95478SOL    HW188267   0.925  13.011   7.367
95478SOL    HW288268   0.861  12.980   7.501
95479SOL     OW88269  13.098  12.967  12.658
95479SOL    HW188270  13.081  13.044  12.604
95479SOL    HW288271  13.049  12.897  12.614
95480SOL     OW88272  12.195   7.552   8.793
95480SOL    HW188273  12.231   7.581   8.709
95480SOL    HW288274  12.154   7.468   8.774
95481SOL     OW88275   4.600   6.804   1.043
95481SOL    HW188276   4.622   6.886   1.087
95481SOL    HW288277   4.656   6.803   0.965
95482SOL     OW88278  14.645   5.480  11.406
95482SOL    HW188279  14.644   5.385  11.394
95482SOL    HW288280  14.637   5.492  11.501
95483SOL     OW88281   2.435  12.864   5.847
95483SOL    HW188282   2.462  12.778   5.879
95483SOL    HW288283   2.390  12.904   5.922
95484SOL     OW88284   5.098  12.166   3.714
95484SOL    HW188285   5.167  12.148   3.651
95484SOL    HW288286   5.126  12.246   3.759
95485SOL     OW88287  13.771  12.924  11.635
95485SOL    HW188288  13.842  12.986  11.653
95485SOL    HW288289  13.815  12.849  11.595
95486SOL     OW88290   4.619   4.875   7.207
95486SOL    HW188291   4.706   4.888   7.169
95486SOL    HW288292   4.601   4.956   7.254
95487SOL     OW88293   0.896   4.667   3.554
95487SOL    HW188294   0.850   4.683   3.637
95487SOL    HW288295   0.960   4.738   3.549
95488SOL     OW88296   9.165   9.860   8.342
95488SOL    HW188297   9.131   9.858   8.252
95488SOL    HW288298   9.164   9.768   8.369
95489SOL     OW88299   5.384   0.142  14.832
95489SOL    HW188300   5.304   0.166  14.878
95489SOL    HW288301   5.451   0.141   0.022
95490SOL     OW88302  12.868  11.079   4.479
95490SOL    HW188303  12.945  11.136   4.485
95490SOL    HW288304  12.824  11.108   4.399
95491SOL     OW88305   7.311   9.485  14.846
95491SOL    HW188306   7.323   9.480  14.751
95491SOL    HW288307   7.299   9.394  14.874
95492SOL     OW88308  11.153  13.507   5.433
95492SOL    HW188309  11.215  13.480   5.501
95492SOL    HW288310  11.200  13.495   5.351
95493SOL     OW88311   0.247  12.070  13.886
95493SOL    HW188312   0.165  12.029  13.915
95493SOL    HW288313   0.244  12.065  13.791
95494SOL     OW88314   1.789   1.682   9.383
95494SOL    HW188315   1.845   1.616   9.423
95494SOL    HW288316   1.705   1.672   9.429
95495SOL     OW88317   8.469   3.417   3.382
95495SOL    HW188318   8.497   3.389   3.296
95495SOL    HW288319   8.538   3.476   3.412
95496SOL     OW88320   0.281   2.106   3.014
95496SOL    HW188321   0.369   2.141   3.004
95496SOL    HW288322   0.226   2.164   2.962
95497SOL     OW88323  14.118  10.186  11.007
95497SOL    HW188324  14.146  10.152  11.092
95497SOL    HW288325  14.200  10.206  10.961
95498SOL     OW88326   3.257   1.644   0.612
95498SOL    HW188327   3.244   1.550   0.614
95498SOL    HW288328   3.323   1.661   0.679
95499SOL     OW88329   3.571  10.226   7.854
95499SOL    HW188330   3.619  10.232   7.771
95499SOL    HW288331   3.602  10.144   7.894
95500SOL     OW88332  14.615  12.113   2.537
95500SOL    HW188333  14.532  12.090   2.579
95500SOL    HW288334  14.590  12.140   2.448
95501SOL     OW88335   8.851   1.458   3.990
95501SOL    HW188336   8.875   1.519   4.061
95501SOL    HW288337   8.864   1.371   4.028
95502SOL     OW88338   3.714   8.136   9.077
95502SOL    HW188339   3.672   8.065   9.127
95502SOL    HW288340   3.796   8.099   9.046
95503SOL     OW88341   9.799  14.738   3.210
95503SOL    HW188342   9.708  14.764   3.225
95503SOL    HW288343   9.801  14.646   3.233
95504SOL     OW88344   6.366   8.314   7.367
95504SOL    HW188345   6.423   8.356   7.303
95504SOL    HW288346   6.279   8.318   7.328
95505SOL     OW88347   8.214   7.785   2.336
95505SOL    HW188348   8.131   7.754   2.371
95505SOL    HW288349   8.190   7.837   2.259
95506SOL     OW88350  10.752   3.468  11.960
95506SOL    HW188351  10.663   3.434  11.965
95506SOL    HW288352  10.743   3.557  11.927
95507SOL     OW88353   3.132   6.333   7.432
95507SOL    HW188354   3.138   6.261   7.370
95507SOL    HW288355   3.046   6.322   7.474
95508SOL     OW88356  11.660  12.481  10.921
95508SOL    HW188357  11.596  12.548  10.944
95508SOL    HW288358  11.695  12.509  10.836
95509SOL     OW88359   6.150   9.680   6.768
95509SOL    HW188360   6.081   9.740   6.795
95509SOL    HW288361   6.106   9.615   6.714
95510SOL     OW88362   0.745  14.783   7.970
95510SOL    HW188363   0.675  14.848   7.977
95510SOL    HW288364   0.756  14.770   7.876
95511SOL     OW88365   1.375   4.665   4.851
95511SOL    HW188366   1.405   4.616   4.775
95511SOL    HW288367   1.345   4.598   4.913
95512SOL     OW88368   8.687   1.650   9.861
95512SOL    HW188369   8.659   1.742   9.854
95512SOL    HW288370   8.684   1.618   9.771
95513SOL     OW88371   2.634   6.838   0.934
95513SOL    HW188372   2.703   6.775   0.913
95513SOL    HW288373   2.657   6.870   1.021
95514SOL     OW88374   6.168   1.457   8.559
95514SOL    HW188375   6.218   1.446   8.478
95514SOL    HW288376   6.232   1.485   8.624
95515SOL     OW88377   0.217   9.647  10.723
95515SOL    HW188378   0.170   9.635  10.805
95515SOL    HW288379   0.294   9.591  10.730
95516SOL     OW88380   3.623   8.496   7.983
95516SOL    HW188381   3.551   8.455   8.031
95516SOL    HW288382   3.591   8.501   7.892
95517SOL     OW88383  11.164   2.121  14.305
95517SOL    HW188384  11.215   2.195  14.336
95517SOL    HW288385  11.142   2.071  14.384
95518SOL     OW88386  11.347   2.132  14.662
95518SOL    HW188387  11.393   2.197  14.716
95518SOL    HW288388  11.331   2.178  14.579
95519SOL     OW88389  13.258   9.388   1.325
95519SOL    HW188390  13.304   9.428   1.252
95519SOL    HW288391  13.324   9.382   1.394
95520SOL     OW88392  13.967   1.133   5.268
95520SOL    HW188393  14.006   1.046   5.259
95520SOL    HW288394  13.953   1.144   5.362
95521SOL     OW88395   2.596   5.627   7.944
95521SOL    HW188396   2.672   5.577   7.975
95521SOL    HW288397   2.530   5.614   8.011
95522SOL     OW88398  10.691  12.149   4.513
95522SOL    HW188399  10.615  12.130   4.459
95522SOL    HW288400  10.738  12.217   4.466
95523SOL     OW88401  10.252  10.402  13.413
95523SOL    HW188402  10.194  10.478  13.418
95523SOL    HW288403  10.286  10.403  13.324
95524SOL     OW88404   0.638   7.084  12.307
95524SOL    HW188405   0.689   7.163  12.289
95524SOL    HW288406   0.594   7.102  12.390
95525SOL     OW88407  13.455  12.271  12.778
95525SOL    HW188408  13.444  12.352  12.729
95525SOL    HW288409  13.366  12.245  12.803
95526SOL     OW88410  10.818   4.779  14.669
95526SOL    HW188411  10.875   4.806  14.597
95526SOL    HW288412  10.821   4.683  14.667
95527SOL     OW88413  14.064   6.860   5.794
95527SOL    HW188414  14.118   6.832   5.719
95527SOL    HW288415  14.123   6.853   5.869
95528SOL     OW88416   1.922  12.317  13.911
95528SOL    HW188417   1.976  12.256  13.860
95528SOL    HW288418   1.957  12.312  13.999
95529SOL     OW88419   4.737  14.608   5.351
95529SOL    HW188420   4.765  14.581   5.264
95529SOL    HW288421   4.735  14.528   5.403
95530SOL     OW88422  13.835   2.323   4.727
95530SOL    HW188423  13.797   2.408   4.705
95530SOL    HW288424  13.925   2.327   4.695
95531SOL     OW88425   7.238  13.194   9.670
95531SOL    HW188426   7.152  13.218   9.636
95531SOL    HW288427   7.298  13.218   9.600
95532SOL     OW88428   0.222   6.487   2.518
95532SOL    HW188429   0.186   6.405   2.485
95532SOL    HW288430   0.310   6.491   2.479
95533SOL     OW88431  10.175   4.645   5.610
95533SOL    HW188432  10.174   4.553   5.636
95533SOL    HW288433  10.107   4.687   5.663
95534SOL     OW88434   7.860  13.840   4.423
95534SOL    HW188435   7.800  13.790   4.478
95534SOL    HW288436   7.943  13.839   4.471
95535SOL     OW88437   0.742   0.979  11.302
95535SOL    HW188438   0.781   1.065  11.318
95535SOL    HW288439   0.653   0.998  11.274
95536SOL     OW88440  14.622  11.913   4.750
95536SOL    HW188441  14.701  11.879   4.708
95536SOL    HW288442  14.649  11.996   4.789
95537SOL     OW88443   6.219  11.906   0.003
95537SOL    HW188444   6.267  11.970   0.056
95537SOL    HW288445   6.236  11.822   0.046
95538SOL     OW88446   1.246  13.152   3.425
95538SOL    HW188447   1.151  13.166   3.421
95538SOL    HW288448   1.256  13.063   3.458
95539SOL     OW88449   2.833   8.157   5.397
95539SOL    HW188450   2.928   8.169   5.385
95539SOL    HW288451   2.825   8.102   5.475
95540SOL     OW88452  13.170   2.570   0.467
95540SOL    HW188453  13.163   2.656   0.424
95540SOL    HW288454  13.093   2.522   0.437
95541SOL     OW88455   9.211  13.876  12.007
95541SOL    HW188456   9.133  13.820  12.007
95541SOL    HW288457   9.217  13.908  11.917
95542SOL     OW88458  11.883   3.176   0.262
95542SOL    HW188459  11.871   3.201   0.354
95542SOL    HW288460  11.847   3.249   0.212
95543SOL     OW88461   9.306   1.797  12.999
95543SOL    HW188462   9.222   1.802  12.953
95543SOL    HW288463   9.371   1.818  12.931
95544SOL     OW88464  10.039   5.916   5.830
95544SOL    HW188465   9.969   5.860   5.796
95544SOL    HW288466  10.102   5.920   5.758
95545SOL     OW88467   8.780   0.446   8.036
95545SOL    HW188468   8.846   0.493   7.985
95545SOL    HW288469   8.763   0.502   8.111
95546SOL     OW88470   8.904   5.361   4.245
95546SOL    HW188471   8.827   5.365   4.188
95546SOL    HW288472   8.954   5.287   4.211
95547SOL     OW88473  14.262   3.061  11.393
95547SOL    HW188474  14.227   3.104  11.471
95547SOL    HW288475  14.190   3.008  11.359
95548SOL     OW88476   1.189  14.768  14.602
95548SOL    HW188477   1.239  14.836  14.557
95548SOL    HW288478   1.106  14.810  14.624
95549SOL     OW88479   7.537   0.822   7.356
95549SOL    HW188480   7.514   0.843   7.447
95549SOL    HW288481   7.619   0.869   7.340
95550SOL     OW88482  13.583   7.901   2.238
95550SOL    HW188483  13.645   7.968   2.207
95550SOL    HW288484  13.574   7.841   2.164
95551SOL     OW88485   0.428   1.944  11.184
95551SOL    HW188486   0.504   1.899  11.145
95551SOL    HW288487   0.423   2.027  11.136
95552SOL     OW88488  14.822   3.707   7.933
95552SOL    HW188489   0.003   3.640   7.900
95552SOL    HW288490  14.866   3.790   7.913
95553SOL     OW88491   1.797   5.648   2.610
95553SOL    HW188492   1.889   5.649   2.637
95553SOL    HW288493   1.751   5.692   2.681
95554SOL     OW88494   5.345  13.275   5.329
95554SOL    HW188495   5.308  13.187   5.314
95554SOL    HW288496   5.300  13.330   5.264
95555SOL     OW88497   1.572  10.658  13.292
95555SOL    HW188498   1.594  10.745  13.326
95555SOL    HW288499   1.535  10.676  13.205
95556SOL     OW88500  14.122   6.745   9.319
95556SOL    HW188501  14.179   6.750   9.243
95556SOL    HW288502  14.181   6.746   9.394
95557SOL     OW88503   1.130  12.072  11.090
95557SOL    HW188504   1.082  11.993  11.114
95557SOL    HW288505   1.117  12.079  10.995
95558SOL     OW88506   3.729  11.635  14.774
95558SOL    HW188507   3.647  11.611  14.731
95558SOL    HW288508   3.744  11.726  14.748
95559SOL     OW88509   1.378   0.806   7.448
95559SOL    HW188510   1.375   0.768   7.360
95559SOL    HW288511   1.437   0.748   7.497
95560SOL     OW88512   2.912   8.428  13.229
95560SOL    HW188513   2.953   8.458  13.310
95560SOL    HW288514   2.833   8.481  13.221
95561SOL     OW88515  12.835   4.182  14.726
95561SOL    HW188516  12.754   4.217  14.764
95561SOL    HW288517  12.904   4.211  14.786
95562SOL     OW88518  13.270   2.438  11.930
95562SOL    HW188519  13.351   2.411  11.973
95562SOL    HW288520  13.208   2.368  11.950
95563SOL     OW88521  12.594   9.358   3.665
95563SOL    HW188522  12.558   9.270   3.680
95563SOL    HW288523  12.583   9.373   3.572
95564SOL     OW88524  12.938   2.009  11.122
95564SOL    HW188525  12.866   1.968  11.074
95564SOL    HW288526  12.952   1.953  11.198
95565SOL     OW88527   5.049   8.930   4.949
95565SOL    HW188528   5.048   9.015   4.905
95565SOL    HW288529   5.021   8.949   5.038
95566SOL     OW88530   5.374   0.937   2.391
95566SOL    HW188531   5.407   1.027   2.394
95566SOL    HW288532   5.431   0.888   2.450
95567SOL     OW88533   9.039   7.815   2.652
95567SOL    HW188534   8.969   7.768   2.698
95567SOL    HW288535   9.044   7.899   2.699
95568SOL     OW88536   2.651  14.001   4.190
95568SOL    HW188537   2.641  13.908   4.168
95568SOL    HW288538   2.564  14.030   4.215
95569SOL     OW88539   5.419   6.231  13.443
95569SOL    HW188540   5.428   6.175  13.520
95569SOL    HW288541   5.509   6.246  13.414
95570SOL     OW88542  14.803  10.547   1.674
95570SOL    HW188543  14.760  10.585   1.597
95570SOL    HW288544  14.860  10.616   1.706
95571SOL     OW88545   6.862   3.460  13.992
95571SOL    HW188546   6.877   3.393  13.924
95571SOL    HW288547   6.860   3.411  14.074
95572SOL     OW88548   0.724  13.570   0.566
95572SOL    HW188549   0.676  13.553   0.648
95572SOL    HW288550   0.659  13.558   0.497
95573SOL     OW88551  11.072   7.203   6.503
95573SOL    HW188552  11.077   7.199   6.599
95573SOL    HW288553  11.129   7.277   6.480
95574SOL     OW88554  14.143  13.915   7.511
95574SOL    HW188555  14.134  13.983   7.577
95574SOL    HW288556  14.056  13.910   7.470
95575SOL     OW88557   5.388   5.960  13.943
95575SOL    HW188558   5.313   5.971  13.885
95575SOL    HW288559   5.349   5.944  14.029
95576SOL     OW88560   1.137  10.418  10.474
95576SOL    HW188561   1.061  10.381  10.518
95576SOL    HW288562   1.119  10.512  10.470
95577SOL     OW88563   1.888   5.220   5.431
95577SOL    HW188564   1.965   5.228   5.488
95577SOL    HW288565   1.873   5.309   5.399
95578SOL     OW88566   4.426  13.731   8.985
95578SOL    HW188567   4.363  13.695   8.923
95578SOL    HW288568   4.392  13.706   9.071
95579SOL     OW88569  14.607   7.466  13.998
95579SOL    HW188570  14.581   7.508  13.916
95579SOL    HW288571  14.637   7.379  13.972
95580SOL     OW88572   2.187   3.477  14.541
95580SOL    HW188573   2.268   3.527  14.539
95580SOL    HW288574   2.181   3.444  14.630
95581SOL     OW88575   8.536   0.626   1.941
95581SOL    HW188576   8.621   0.617   1.898
95581SOL    HW288577   8.557   0.628   2.035
95582SOL     OW88578  10.110   5.526   2.732
95582SOL    HW188579  10.098   5.498   2.642
95582SOL    HW288580  10.096   5.620   2.731
95583SOL     OW88581  10.364   0.623   1.035
95583SOL    HW188582  10.323   0.684   0.973
95583SOL    HW288583  10.291   0.586   1.085
95584SOL     OW88584  12.614   7.270   1.123
95584SOL    HW188585  12.678   7.210   1.085
95584SOL    HW288586  12.615   7.346   1.066
95585SOL     OW88587   7.398  11.159   9.086
95585SOL    HW188588   7.372  11.131   9.174
95585SOL    HW288589   7.433  11.079   9.045
95586SOL     OW88590   4.597   1.436   5.656
95586SOL    HW188591   4.516   1.424   5.706
95586SOL    HW288592   4.644   1.505   5.702
95587SOL     OW88593   9.167  10.989   7.493
95587SOL    HW188594   9.208  10.967   7.577
95587SOL    HW288595   9.216  11.065   7.462
95588SOL     OW88596  14.626   1.376   1.748
95588SOL    HW188597  14.709   1.335   1.722
95588SOL    HW288598  14.570   1.366   1.672
95589SOL     OW88599  10.004   4.372   4.109
95589SOL    HW188600  10.043   4.459   4.102
95589SOL    HW288601  10.066   4.314   4.066
95590SOL     OW88602   3.416   1.694   4.303
95590SOL    HW188603   3.494   1.645   4.330
95590SOL    HW288604   3.382   1.646   4.228
95591SOL     OW88605   2.213  12.347  10.236
95591SOL    HW188606   2.181  12.434  10.260
95591SOL    HW288607   2.179  12.334  10.147
95592SOL     OW88608   9.649   7.826   9.979
95592SOL    HW188609   9.610   7.768   9.913
95592SOL    HW288610   9.593   7.816  10.056
95593SOL     OW88611   2.208   9.023   0.481
95593SOL    HW188612   2.235   8.976   0.559
95593SOL    HW288613   2.247   9.110   0.490
95594SOL     OW88614   3.935  13.670   2.286
95594SOL    HW188615   3.909  13.647   2.197
95594SOL    HW288616   3.971  13.758   2.279
95595SOL     OW88617   0.970   5.728   0.452
95595SOL    HW188618   0.886   5.769   0.473
95595SOL    HW288619   0.948   5.660   0.387
95596SOL     OW88620   0.733   1.548   5.607
95596SOL    HW188621   0.795   1.580   5.541
95596SOL    HW288622   0.693   1.627   5.643
95597SOL     OW88623  12.334  10.671   8.876
95597SOL    HW188624  12.328  10.667   8.781
95597SOL    HW288625  12.248  10.641   8.907
95598SOL     OW88626   4.396   3.123   6.073
95598SOL    HW188627   4.327   3.059   6.056
95598SOL    HW288628   4.353   3.208   6.064
95599SOL     OW88629  12.859  10.474   0.165
95599SOL    HW188630  12.838  10.540   0.231
95599SOL    HW288631  12.854  10.522   0.082
95600SOL     OW88632  14.169  13.843  10.396
95600SOL    HW188633  14.088  13.890  10.416
95600SOL    HW288634  14.177  13.777  10.464
95601SOL     OW88635   7.314  13.250   0.445
95601SOL    HW188636   7.402  13.255   0.406
95601SOL    HW288637   7.325  13.193   0.521
95602SOL     OW88638  13.599   3.234  11.132
95602SOL    HW188639  13.681   3.210  11.175
95602SOL    HW288640  13.537   3.166  11.159
95603SOL     OW88641  10.018   8.800   2.006
95603SOL    HW188642  10.006   8.841   1.921
95603SOL    HW288643  10.064   8.867   2.058
95604SOL     OW88644   1.321   5.688  10.828
95604SOL    HW188645   1.416   5.674  10.833
95604SOL    HW288646   1.287   5.651  10.909
95605SOL     OW88647  14.401  10.055   4.509
95605SOL    HW188648  14.416   9.961   4.514
95605SOL    HW288649  14.451  10.091   4.583
95606SOL     OW88650  11.796  14.214   5.477
95606SOL    HW188651  11.873  14.160   5.495
95606SOL    HW288652  11.788  14.270   5.554
95607SOL     OW88653   8.069   2.694   5.170
95607SOL    HW188654   8.110   2.770   5.129
95607SOL    HW288655   8.119   2.679   5.250
95608SOL     OW88656   7.027   8.535   6.748
95608SOL    HW188657   6.998   8.603   6.687
95608SOL    HW288658   7.074   8.583   6.816
95609SOL     OW88659  11.465   9.178   5.139
95609SOL    HW188660  11.410   9.180   5.061
95609SOL    HW288661  11.407   9.148   5.208
95610SOL     OW88662  10.507   6.792  12.542
95610SOL    HW188663  10.472   6.739  12.470
95610SOL    HW288664  10.514   6.731  12.615
95611SOL     OW88665   1.913   0.078   1.801
95611SOL    HW188666   1.918   0.121   1.887
95611SOL    HW288667   1.864   0.139   1.746
95612SOL     OW88668   2.317   1.731  13.043
95612SOL    HW188669   2.222   1.731  13.046
95612SOL    HW288670   2.339   1.666  12.975
95613SOL     OW88671  13.251   5.954  11.582
95613SOL    HW188672  13.199   5.893  11.530
95613SOL    HW288673  13.318   5.899  11.624
95614SOL     OW88674   6.593   3.805   8.160
95614SOL    HW188675   6.591   3.842   8.072
95614SOL    HW288676   6.507   3.764   8.171
95615SOL     OW88677  10.999   5.501   3.948
95615SOL    HW188678  10.938   5.429   3.958
95615SOL    HW288679  11.076   5.475   3.998
95616SOL     OW88680   7.399  10.765   8.816
95616SOL    HW188681   7.470  10.755   8.752
95616SOL    HW288682   7.322  10.730   8.772
95617SOL     OW88683  13.279   0.755   8.465
95617SOL    HW188684  13.188   0.733   8.445
95617SOL    HW288685  13.330   0.701   8.406
95618SOL     OW88686  11.963  10.465   0.828
95618SOL    HW188687  12.049  10.422   0.824
95618SOL    HW288688  11.963  10.510   0.913
95619SOL     OW88689  14.519  13.343   1.446
95619SOL    HW188690  14.581  13.327   1.375
95619SOL    HW288691  14.487  13.255   1.469
95620SOL     OW88692  13.763   4.746  11.947
95620SOL    HW188693  13.773   4.670  11.890
95620SOL    HW288694  13.684   4.727  11.998
95621SOL     OW88695   4.054  13.522   7.269
95621SOL    HW188696   3.992  13.558   7.333
95621SOL    HW288697   4.087  13.599   7.222
95622SOL     OW88698  10.242   7.747   7.832
95622SOL    HW188699  10.288   7.793   7.902
95622SOL    HW288700  10.169   7.704   7.875
95623SOL     OW88701   4.314   4.979   4.500
95623SOL    HW188702   4.291   5.020   4.583
95623SOL    HW288703   4.394   5.023   4.473
95624SOL     OW88704  13.787   9.417   9.675
95624SOL    HW188705  13.866   9.393   9.725
95624SOL    HW288706  13.775   9.345   9.613
95625SOL     OW88707  10.947   9.233   4.855
95625SOL    HW188708  11.012   9.256   4.922
95625SOL    HW288709  10.866   9.275   4.885
95626SOL     OW88710  13.464   1.558   2.461
95626SOL    HW188711  13.454   1.548   2.555
95626SOL    HW288712  13.400   1.498   2.424
95627SOL     OW88713   8.105  10.294  10.262
95627SOL    HW188714   8.154  10.280  10.181
95627SOL    HW288715   8.038  10.359  10.238
95628SOL     OW88716   8.663  12.223   4.196
95628SOL    HW188717   8.589  12.175   4.234
95628SOL    HW288718   8.644  12.315   4.213
95629SOL     OW88719   5.329   6.721   5.353
95629SOL    HW188720   5.322   6.628   5.332
95629SOL    HW288721   5.423   6.740   5.345
95630SOL     OW88722   3.500   3.731   7.567
95630SOL    HW188723   3.540   3.733   7.479
95630SOL    HW288724   3.535   3.652   7.607
95631SOL     OW88725  11.830  11.463  12.425
95631SOL    HW188726  11.762  11.400  12.448
95631SOL    HW288727  11.803  11.497  12.340
95632SOL     OW88728   1.501  10.686  13.560
95632SOL    HW188729   1.516  10.596  13.590
95632SOL    HW288730   1.498  10.679  13.465
95633SOL     OW88731   4.021  13.578   3.601
95633SOL    HW188732   4.114  13.583   3.625
95633SOL    HW288733   4.011  13.492   3.560
95634SOL     OW88734  12.592   8.368   9.252
95634SOL    HW188735  12.626   8.455   9.269
95634SOL    HW288736  12.661   8.309   9.282
95635SOL     OW88737  11.249   1.702   9.305
95635SOL    HW188738  11.312   1.630   9.300
95635SOL    HW288739  11.199   1.695   9.224
95636SOL     OW88740   2.216   8.995  11.683
95636SOL    HW188741   2.217   8.934  11.757
95636SOL    HW288742   2.162   9.068  11.713
95637SOL     OW88743   5.870   4.797  14.413
95637SOL    HW188744   5.931   4.840  14.353
95637SOL    HW288745   5.891   4.834  14.499
95638SOL     OW88746   7.145   3.156   9.016
95638SOL    HW188747   7.180   3.139   9.103
95638SOL    HW288748   7.187   3.238   8.989
95639SOL     OW88749   2.654   1.680   8.413
95639SOL    HW188750   2.603   1.760   8.397
95639SOL    HW288751   2.708   1.701   8.488
95640SOL     OW88752  13.701  14.176  12.978
95640SOL    HW188753  13.609  14.156  12.962
95640SOL    HW288754  13.707  14.188  13.072
95641SOL     OW88755   7.406  10.046   5.299
95641SOL    HW188756   7.344  10.014   5.233
95641SOL    HW288757   7.489  10.004   5.275
95642SOL     OW88758   5.153   2.985  10.990
95642SOL    HW188759   5.071   2.935  10.991
95642SOL    HW288760   5.221   2.920  10.972
95643SOL     OW88761  11.088  14.008  10.152
95643SOL    HW188762  10.993  14.005  10.151
95643SOL    HW288763  11.113  13.955  10.228
95644SOL     OW88764   9.712   9.785  11.007
95644SOL    HW188765   9.651   9.846  10.966
95644SOL    HW288766   9.757   9.744  10.933
95645SOL     OW88767  12.854   6.143  12.360
95645SOL    HW188768  12.910   6.219  12.380
95645SOL    HW288769  12.862   6.131  12.266
95646SOL     OW88770   1.099   2.401   5.736
95646SOL    HW188771   1.111   2.479   5.790
95646SOL    HW288772   1.005   2.396   5.722
95647SOL     OW88773   3.211  14.015   2.171
95647SOL    HW188774   3.261  13.936   2.193
95647SOL    HW288775   3.164  14.037   2.251
95648SOL     OW88776   6.890   0.556   6.229
95648SOL    HW188777   6.934   0.640   6.214
95648SOL    HW288778   6.808   0.563   6.180
95649SOL     OW88779   1.137  10.826   9.026
95649SOL    HW188780   1.147  10.732   9.013
95649SOL    HW288781   1.227  10.860   9.022
95650SOL     OW88782   0.116  11.713   0.956
95650SOL    HW188783   0.130  11.713   1.050
95650SOL    HW288784   0.138  11.803   0.929
95651SOL     OW88785  10.571  10.669   2.189
95651SOL    HW188786  10.522  10.736   2.237
95651SOL    HW288787  10.635  10.636   2.251
95652SOL     OW88788  14.646   4.811   9.841
95652SOL    HW188789  14.588   4.809   9.765
95652SOL    HW288790  14.654   4.719   9.867
95653SOL     OW88791  10.435   2.344   6.953
95653SOL    HW188792  10.367   2.329   6.888
95653SOL    HW288793  10.457   2.257   6.986
95654SOL     OW88794   4.274   4.689   1.323
95654SOL    HW188795   4.303   4.755   1.386
95654SOL    HW288796   4.353   4.666   1.274
95655SOL     OW88797   4.014   5.671  10.072
95655SOL    HW188798   4.079   5.639  10.134
95655SOL    HW288799   3.994   5.595  10.017
95656SOL     OW88800  13.151  12.857   0.379
95656SOL    HW188801  13.087  12.846   0.309
95656SOL    HW288802  13.219  12.792   0.360
95657SOL     OW88803   0.752   3.523  11.483
95657SOL    HW188804   0.711   3.482  11.406
95657SOL    HW288805   0.742   3.617  11.468
95658SOL     OW88806  11.195   4.141  13.399
95658SOL    HW188807  11.103   4.129  13.423
95658SOL    HW288808  11.224   4.055  13.369
95659SOL     OW88809   6.685   2.330   9.991
95659SOL    HW188810   6.769   2.369   9.969
95659SOL    HW288811   6.620   2.381   9.942
95660SOL     OW88812  11.005   0.470   3.838
95660SOL    HW188813  10.939   0.400   3.838
95660SOL    HW288814  11.028   0.481   3.930
95661SOL     OW88815   7.486   4.151  11.641
95661SOL    HW188816   7.482   4.087  11.712
95661SOL    HW288817   7.542   4.221  11.675
95662SOL     OW88818  11.159   7.768   9.104
95662SOL    HW188819  11.159   7.679   9.139
95662SOL    HW288820  11.069   7.782   9.076
95663SOL     OW88821   6.645   2.296   2.966
95663SOL    HW188822   6.701   2.218   2.960
95663SOL    HW288823   6.594   2.295   2.885
95664SOL     OW88824  14.336   1.111   3.293
95664SOL    HW188825  14.347   1.136   3.385
95664SOL    HW288826  14.354   1.017   3.291
95665SOL     OW88827   3.581   0.504   1.171
95665SOL    HW188828   3.617   0.590   1.150
95665SOL    HW288829   3.501   0.498   1.119
95666SOL     OW88830   8.714  14.138   8.028
95666SOL    HW188831   8.633  14.159   7.981
95666SOL    HW288832   8.746  14.058   7.986
95667SOL     OW88833   2.731   4.618   2.324
95667SOL    HW188834   2.775   4.587   2.403
95667SOL    HW288835   2.790   4.685   2.289
95668SOL     OW88836   0.387   1.821   3.186
95668SOL    HW188837   0.390   1.752   3.119
95668SOL    HW288838   0.474   1.861   3.183
95669SOL     OW88839   6.482  12.948   4.250
95669SOL    HW188840   6.511  12.982   4.166
95669SOL    HW288841   6.415  12.884   4.229
95670SOL     OW88842   4.250   0.628   6.183
95670SOL    HW188843   4.219   0.585   6.263
95670SOL    HW288844   4.248   0.721   6.204
95671SOL     OW88845   3.680   2.830  14.052
95671SOL    HW188846   3.614   2.814  14.120
95671SOL    HW288847   3.738   2.895  14.091
95672SOL     OW88848  11.288   7.354  10.079
95672SOL    HW188849  11.252   7.374   9.992
95672SOL    HW288850  11.276   7.259  10.087
95673SOL     OW88851   8.910   1.210   6.029
95673SOL    HW188852   8.888   1.142   5.966
95673SOL    HW288853   8.857   1.190   6.106
95674SOL     OW88854   0.009  12.408   8.922
95674SOL    HW188855   0.010  12.408   9.018
95674SOL    HW288856  14.798  12.433   8.900
95675SOL     OW88857   6.877   1.798   3.297
95675SOL    HW188858   6.873   1.753   3.381
95675SOL    HW288859   6.794   1.776   3.254
95676SOL     OW88860   9.671   8.989  10.378
95676SOL    HW188861   9.580   8.974  10.352
95676SOL    HW288862   9.700   9.062  10.323
95677SOL     OW88863   8.344   3.785   7.815
95677SOL    HW188864   8.390   3.851   7.763
95677SOL    HW288865   8.326   3.829   7.899
95678SOL     OW88866   5.217   5.207  12.576
95678SOL    HW188867   5.205   5.261  12.497
95678SOL    HW288868   5.132   5.165  12.589
95679SOL     OW88869   6.059   8.455  13.698
95679SOL    HW188870   6.115   8.530  13.718
95679SOL    HW288871   5.979   8.494  13.662
95680SOL     OW88872   0.757   8.440   6.469
95680SOL    HW188873   0.729   8.510   6.410
95680SOL    HW288874   0.714   8.460   6.552
95681SOL     OW88875   4.347  11.530   9.835
95681SOL    HW188876   4.436  11.554   9.861
95681SOL    HW288877   4.348  11.537   9.739
95682SOL     OW88878   2.280  10.150  10.109
95682SOL    HW188879   2.273  10.123  10.200
95682SOL    HW288880   2.230  10.085  10.060
95683SOL     OW88881  10.991  13.382   2.792
95683SOL    HW188882  11.068  13.371   2.736
95683SOL    HW288883  10.927  13.320   2.757
95684SOL     OW88884   2.127   2.082   9.955
95684SOL    HW188885   2.179   2.138   9.897
95684SOL    HW288886   2.136   1.994   9.918
95685SOL     OW88887   2.164   7.433   3.693
95685SOL    HW188888   2.209   7.391   3.767
95685SOL    HW288889   2.213   7.514   3.678
95686SOL     OW88890   9.179  12.625   6.263
95686SOL    HW188891   9.122  12.602   6.190
95686SOL    HW288892   9.266  12.594   6.237
95687SOL     OW88893   6.032   5.377   6.447
95687SOL    HW188894   6.045   5.433   6.371
95687SOL    HW288895   6.119   5.371   6.487
95688SOL     OW88896   8.015   5.114   4.422
95688SOL    HW188897   8.035   5.141   4.511
95688SOL    HW288898   7.997   5.196   4.375
95689SOL     OW88899   7.079  11.791   1.809
95689SOL    HW188900   7.007  11.816   1.751
95689SOL    HW288901   7.079  11.696   1.808
95690SOL     OW88902  14.482   6.254   2.394
95690SOL    HW188903  14.387   6.263   2.385
95690SOL    HW288904  14.507   6.325   2.454
95691SOL     OW88905   0.823   7.719   3.085
95691SOL    HW188906   0.883   7.729   3.158
95691SOL    HW288907   0.757   7.787   3.099
95692SOL     OW88908   9.255   2.769   2.034
95692SOL    HW188909   9.176   2.765   2.088
95692SOL    HW288910   9.252   2.856   1.994
95693SOL     OW88911  10.692  11.055  13.118
95693SOL    HW188912  10.641  11.007  13.053
95693SOL    HW288913  10.718  10.989  13.182
95694SOL     OW88914  13.721   7.129  13.224
95694SOL    HW188915  13.719   7.220  13.195
95694SOL    HW288916  13.669   7.129  13.305
95695SOL     OW88917   5.321  13.744   2.228
95695SOL    HW188918   5.332  13.677   2.295
95695SOL    HW288919   5.234  13.727   2.191
95696SOL     OW88920  13.647  11.616  11.886
95696SOL    HW188921  13.614  11.526  11.883
95696SOL    HW288922  13.732  11.609  11.930
95697SOL     OW88923  13.607   7.834  11.171
95697SOL    HW188924  13.701   7.835  11.188
95697SOL    HW288925  13.570   7.898  11.231
95698SOL     OW88926  14.476   3.453  11.232
95698SOL    HW188927  14.495   3.383  11.295
95698SOL    HW288928  14.397   3.424  11.186
95699SOL     OW88929  12.566   9.227  13.523
95699SOL    HW188930  12.533   9.315  13.508
95699SOL    HW288931  12.526   9.174  13.454
95700SOL     OW88932   9.804   7.409   3.338
95700SOL    HW188933   9.736   7.463   3.379
95700SOL    HW288934   9.783   7.413   3.244
95701SOL     OW88935  14.037   2.895  10.902
95701SOL    HW188936  14.018   2.987  10.883
95701SOL    HW288937  14.132   2.893  10.915
95702SOL     OW88938   3.300   9.095  11.519
95702SOL    HW188939   3.303   9.047  11.602
95702SOL    HW288940   3.217   9.068  11.480
95703SOL     OW88941   3.517   7.610   8.507
95703SOL    HW188942   3.469   7.530   8.527
95703SOL    HW288943   3.450   7.677   8.497
95704SOL     OW88944   5.791  12.674   6.884
95704SOL    HW188945   5.728  12.694   6.815
95704SOL    HW288946   5.808  12.758   6.927
95705SOL     OW88947  12.753  13.744  14.418
95705SOL    HW188948  12.671  13.695  14.412
95705SOL    HW288949  12.751  13.784  14.505
95706SOL     OW88950  13.571   8.027   5.541
95706SOL    HW188951  13.486   8.032   5.585
95706SOL    HW288952  13.549   8.002   5.451
95707SOL     OW88953  10.293   8.897   9.738
95707SOL    HW188954  10.339   8.919   9.819
95707SOL    HW288955  10.330   8.814   9.710
95708SOL     OW88956   1.071   9.129  11.496
95708SOL    HW188957   1.115   9.063  11.443
95708SOL    HW288958   1.012   9.079  11.552
95709SOL     OW88959   7.607  14.229   3.063
95709SOL    HW188960   7.588  14.189   3.148
95709SOL    HW288961   7.594  14.159   3.000
95710SOL     OW88962  11.318   4.692  14.074
95710SOL    HW188963  11.227   4.719  14.086
95710SOL    HW288964  11.369   4.769  14.098
95711SOL     OW88965   5.516   5.150   4.881
95711SOL    HW188966   5.581   5.121   4.945
95711SOL    HW288967   5.518   5.246   4.885
95712SOL     OW88968   8.831   1.441   4.472
95712SOL    HW188969   8.888   1.367   4.453
95712SOL    HW288970   8.875   1.516   4.433
95713SOL     OW88971  11.681  11.649  14.757
95713SOL    HW188972  11.705  11.708  14.829
95713SOL    HW288973  11.594  11.680  14.730
95714SOL     OW88974  12.827   8.396   5.590
95714SOL    HW188975  12.760   8.380   5.523
95714SOL    HW288976  12.855   8.486   5.575
95715SOL     OW88977   3.550   3.071   0.350
95715SOL    HW188978   3.486   3.049   0.419
95715SOL    HW288979   3.605   3.139   0.389
95716SOL     OW88980   5.376   2.278   3.592
95716SOL    HW188981   5.420   2.315   3.516
95716SOL    HW288982   5.311   2.344   3.617
95717SOL     OW88983   7.258  13.806   3.314
95717SOL    HW188984   7.172  13.848   3.311
95717SOL    HW288985   7.312  13.856   3.253
95718SOL     OW88986   6.880  13.206   8.866
95718SOL    HW188987   6.839  13.139   8.921
95718SOL    HW288988   6.902  13.160   8.785
95719SOL     OW88989  10.697   2.652   5.237
95719SOL    HW188990  10.705   2.627   5.145
95719SOL    HW288991  10.616   2.703   5.241
95720SOL     OW88992   9.510  10.680   8.925
95720SOL    HW188993   9.463  10.596   8.923
95720SOL    HW288994   9.556  10.684   8.842
95721SOL     OW88995   6.021  14.056   3.152
95721SOL    HW188996   5.927  14.058   3.134
95721SOL    HW288997   6.033  13.978   3.207
95722SOL     OW88998   2.948   9.359  11.677
95722SOL    HW188999   2.923   9.333  11.766
95722SOL    HW289000   2.981   9.448  11.686
95723SOL     OW89001  12.780   0.874   1.040
95723SOL    HW189002  12.727   0.810   0.994
95723SOL    HW289003  12.869   0.837   1.039
95724SOL     OW89004   8.164   5.014   4.157
95724SOL    HW189005   8.084   4.962   4.151
95724SOL    HW289006   8.149   5.073   4.231
95725SOL     OW89007   1.105   6.853   2.466
95725SOL    HW189008   1.010   6.847   2.467
95725SOL    HW289009   1.125   6.911   2.393
95726SOL     OW89010  12.460   3.261   7.262
95726SOL    HW189011  12.493   3.295   7.179
95726SOL    HW289012  12.465   3.336   7.322
95727SOL     OW89013  12.206   9.115   2.926
95727SOL    HW189014  12.134   9.061   2.894
95727SOL    HW289015  12.180   9.140   3.015
95728SOL     OW89016   4.232   9.905  13.530
95728SOL    HW189017   4.262   9.989  13.493
95728SOL    HW289018   4.301   9.880  13.591
95729SOL     OW89019  13.252   1.637   9.481
95729SOL    HW189020  13.235   1.592   9.564
95729SOL    HW289021  13.347   1.639   9.474
95730SOL     OW89022  12.650  11.583  11.645
95730SOL    HW189023  12.727  11.599  11.699
95730SOL    HW289024  12.606  11.667  11.639
95731SOL     OW89025   2.010   1.785   9.621
95731SOL    HW189026   1.989   1.700   9.584
95731SOL    HW289027   1.937   1.842   9.595
95732SOL     OW89028  14.407   7.697   8.440
95732SOL    HW189029  14.429   7.709   8.348
95732SOL    HW289030  14.487   7.721   8.488
95733SOL     OW89031   4.346  14.569   5.911
95733SOL    HW189032   4.402  14.627   5.860
95733SOL    HW289033   4.352  14.484   5.867
95734SOL     OW89034  12.068  13.520  13.338
95734SOL    HW189035  12.152  13.557  13.363
95734SOL    HW289036  12.066  13.434  13.381
95735SOL     OW89037   5.510   1.001   9.823
95735SOL    HW189038   5.463   0.982   9.741
95735SOL    HW289039   5.595   1.033   9.794
95736SOL     OW89040   9.014  13.283   8.206
95736SOL    HW189041   9.038  13.190   8.205
95736SOL    HW289042   8.951  13.291   8.277
95737SOL     OW89043   9.967  10.902   8.073
95737SOL    HW189044  10.032  10.970   8.058
95737SOL    HW289045  10.018  10.822   8.086
95738SOL     OW89046  14.224   5.279   8.251
95738SOL    HW189047  14.199   5.296   8.160
95738SOL    HW289048  14.209   5.363   8.295
95739SOL     OW89049  13.187   3.519  13.995
95739SOL    HW189050  13.161   3.498  14.085
95739SOL    HW289051  13.204   3.434  13.954
95740SOL     OW89052  11.165  14.479  12.871
95740SOL    HW189053  11.169  14.494  12.777
95740SOL    HW289054  11.243  14.427  12.891
95741SOL     OW89055  14.354  11.053  11.838
95741SOL    HW189056  14.311  11.013  11.914
95741SOL    HW289057  14.420  10.989  11.812
95742SOL     OW89058  10.985   0.882  11.469
95742SOL    HW189059  11.005   0.828  11.392
95742SOL    HW289060  10.898   0.918  11.452
95743SOL     OW89061  11.990   7.490  12.152
95743SOL    HW189062  11.975   7.451  12.239
95743SOL    HW289063  12.084   7.510  12.151
95744SOL     OW89064   5.069   8.290   1.450
95744SOL    HW189065   5.017   8.265   1.373
95744SOL    HW289066   5.055   8.384   1.458
95745SOL     OW89067   5.205   1.003   8.841
95745SOL    HW189068   5.218   0.912   8.817
95745SOL    HW289069   5.268   1.019   8.911
95746SOL     OW89070   2.569   7.146  10.380
95746SOL    HW189071   2.569   7.232  10.338
95746SOL    HW289072   2.483   7.139  10.421
95747SOL     OW89073  13.729   9.727   8.416
95747SOL    HW189074  13.763   9.644   8.385
95747SOL    HW289075  13.672   9.758   8.345
95748SOL     OW89076   6.893   2.121   8.252
95748SOL    HW189077   6.845   2.203   8.241
95748SOL    HW289078   6.854   2.061   8.189
95749SOL     OW89079   8.050   6.604   5.043
95749SOL    HW189080   8.003   6.527   5.076
95749SOL    HW289081   8.136   6.599   5.086
95750SOL     OW89082  13.348   2.603   7.510
95750SOL    HW189083  13.259   2.628   7.487
95750SOL    HW289084  13.354   2.511   7.486
95751SOL     OW89085   6.746   9.636   4.597
95751SOL    HW189086   6.727   9.659   4.688
95751SOL    HW289087   6.689   9.562   4.578
95752SOL     OW89088   1.767   6.534   0.087
95752SOL    HW189089   1.818   6.491   0.154
95752SOL    HW289090   1.763   6.471   0.015
95753SOL     OW89091   1.826  12.885   5.603
95753SOL    HW189092   1.768  12.958   5.581
95753SOL    HW289093   1.909  12.906   5.559
95754SOL     OW89094  10.778   4.349  14.276
95754SOL    HW189095  10.803   4.315  14.190
95754SOL    HW289096  10.853   4.401  14.304
95755SOL     OW89097   5.492  12.888   2.074
95755SOL    HW189098   5.473  12.799   2.043
95755SOL    HW289099   5.533  12.931   1.998
95756SOL     OW89100  11.685   4.149   5.076
95756SOL    HW189101  11.625   4.104   5.017
95756SOL    HW289102  11.633   4.170   5.153
95757SOL     OW89103  11.275   7.741   3.605
95757SOL    HW189104  11.231   7.813   3.650
95757SOL    HW289105  11.214   7.668   3.610
95758SOL     OW89106   2.373   9.724   1.952
95758SOL    HW189107   2.388   9.701   2.043
95758SOL    HW289108   2.299   9.785   1.954
95759SOL     OW89109   4.646   1.490  14.352
95759SOL    HW189110   4.705   1.440  14.295
95759SOL    HW289111   4.705   1.548  14.401
95760SOL     OW89112   4.798   0.244   7.821
95760SOL    HW189113   4.819   0.282   7.906
95760SOL    HW289114   4.854   0.167   7.815
95761SOL     OW89115   9.944   4.160   8.817
95761SOL    HW189116   9.865   4.114   8.788
95761SOL    HW289117  10.016   4.108   8.781
95762SOL     OW89118  14.624  11.671   5.277
95762SOL    HW189119  14.646  11.613   5.350
95762SOL    HW289120  14.624  11.614   5.201
95763SOL     OW89121   2.062  10.654  10.627
95763SOL    HW189122   2.134  10.717  10.621
95763SOL    HW289123   1.989  10.705  10.663
95764SOL     OW89124  11.318   5.792  13.004
95764SOL    HW189125  11.235   5.744  13.003
95764SOL    HW289126  11.295   5.879  13.034
95765SOL     OW89127   7.390   0.740  13.844
95765SOL    HW189128   7.308   0.723  13.797
95765SOL    HW289129   7.382   0.690  13.925
95766SOL     OW89130   8.564   4.996   5.134
95766SOL    HW189131   8.627   5.032   5.072
95766SOL    HW289132   8.589   5.033   5.219
95767SOL     OW89133   2.546  14.299  10.948
95767SOL    HW189134   2.482  14.341  11.006
95767SOL    HW289135   2.589  14.234  11.002
95768SOL     OW89136  14.230   8.878  11.697
95768SOL    HW189137  14.237   8.873  11.793
95768SOL    HW289138  14.179   8.801  11.673
95769SOL     OW89139   1.824  14.453   5.279
95769SOL    HW189140   1.848  14.380   5.222
95769SOL    HW289141   1.729  14.444   5.291
95770SOL     OW89142   1.785   8.964  13.091
95770SOL    HW189143   1.799   8.948  12.997
95770SOL    HW289144   1.874   8.967  13.128
95771SOL     OW89145   6.142   7.317   0.505
95771SOL    HW189146   6.147   7.312   0.601
95771SOL    HW289147   6.051   7.296   0.485
95772SOL     OW89148   1.913   6.545  13.907
95772SOL    HW189149   1.838   6.502  13.867
95772SOL    HW289150   1.878   6.587  13.986
95773SOL     OW89151   4.745  14.574   4.420
95773SOL    HW189152   4.828  14.622   4.423
95773SOL    HW289153   4.706  14.588   4.506
95774SOL     OW89154   2.756   1.186   0.799
95774SOL    HW189155   2.742   1.223   0.886
95774SOL    HW289156   2.699   1.238   0.742
95775SOL     OW89157   4.428   9.040  12.050
95775SOL    HW189158   4.435   9.046  12.145
95775SOL    HW289159   4.363   8.971  12.035
95776SOL     OW89160   2.015  12.017   0.981
95776SOL    HW189161   1.967  12.005   0.899
95776SOL    HW289162   1.973  12.093   1.022
95777SOL     OW89163  14.748   2.423   3.545
95777SOL    HW189164  14.827   2.448   3.497
95777SOL    HW289165  14.774   2.423   3.637
95778SOL     OW89166  10.646   3.089   4.177
95778SOL    HW189167  10.590   3.165   4.192
95778SOL    HW289168  10.694   3.077   4.259
95779SOL     OW89169  10.671   9.846   7.404
95779SOL    HW189170  10.669   9.886   7.317
95779SOL    HW289171  10.655   9.753   7.387
95780SOL     OW89172  13.593  11.029   7.348
95780SOL    HW189173  13.686  11.019   7.369
95780SOL    HW289174  13.552  11.049   7.431
95781SOL     OW89175   3.787  14.250  12.302
95781SOL    HW189176   3.708  14.226  12.351
95781SOL    HW289177   3.859  14.214  12.353
95782SOL     OW89178   8.332   1.859   7.874
95782SOL    HW189179   8.353   1.773   7.910
95782SOL    HW289180   8.285   1.904   7.943
95783SOL     OW89181   5.495   9.500  12.499
95783SOL    HW189182   5.420   9.558  12.485
95783SOL    HW289183   5.494   9.441  12.423
95784SOL     OW89184   2.778   0.455   2.482
95784SOL    HW189185   2.792   0.550   2.490
95784SOL    HW289186   2.859   0.422   2.444
95785SOL     OW89187   2.216   5.534   6.463
95785SOL    HW189188   2.261   5.486   6.533
95785SOL    HW289189   2.191   5.466   6.401
95786SOL     OW89190   5.357  14.068   2.380
95786SOL    HW189191   5.432  14.010   2.364
95786SOL    HW289192   5.282  14.020   2.346
95787SOL     OW89193  12.241   9.414  11.456
95787SOL    HW189194  12.270   9.368  11.378
95787SOL    HW289195  12.260   9.506  11.438
95788SOL     OW89196   7.253   8.749   2.574
95788SOL    HW189197   7.194   8.796   2.634
95788SOL    HW289198   7.202   8.674   2.544
95789SOL     OW89199   2.371   7.287   6.373
95789SOL    HW189200   2.392   7.237   6.452
95789SOL    HW289201   2.276   7.286   6.368
95790SOL     OW89202  11.160   1.303   7.481
95790SOL    HW189203  11.214   1.381   7.469
95790SOL    HW289204  11.117   1.316   7.565
95791SOL     OW89205   0.214  10.877   9.995
95791SOL    HW189206   0.139  10.848  10.047
95791SOL    HW289207   0.181  10.883   9.906
95792SOL     OW89208  13.222   4.123   0.429
95792SOL    HW189209  13.190   4.076   0.352
95792SOL    HW289210  13.180   4.209   0.424
95793SOL     OW89211   2.813   2.264  13.991
95793SOL    HW189212   2.826   2.278  14.085
95793SOL    HW289213   2.874   2.194  13.969
95794SOL     OW89214   3.061   7.246   3.552
95794SOL    HW189215   3.076   7.265   3.644
95794SOL    HW289216   3.112   7.166   3.535
95795SOL     OW89217   5.620   8.577  11.215
95795SOL    HW189218   5.664   8.654  11.179
95795SOL    HW289219   5.628   8.510  11.147
95796SOL     OW89220   0.693   8.079   7.780
95796SOL    HW189221   0.645   8.013   7.729
95796SOL    HW289222   0.698   8.041   7.868
95797SOL     OW89223  11.587   7.719   3.293
95797SOL    HW189224  11.679   7.705   3.317
95797SOL    HW289225  11.589   7.795   3.234
95798SOL     OW89226   6.958   6.998  12.248
95798SOL    HW189227   7.024   7.049  12.201
95798SOL    HW289228   6.989   6.908  12.242
95799SOL     OW89229   1.388   3.178   2.852
95799SOL    HW189230   1.327   3.116   2.809
95799SOL    HW289231   1.471   3.165   2.806
95800SOL     OW89232  12.790   1.710   6.042
95800SOL    HW189233  12.772   1.793   5.998
95800SOL    HW289234  12.771   1.727   6.134
95801SOL     OW89235   8.340   1.341   2.713
95801SOL    HW189236   8.338   1.324   2.807
95801SOL    HW289237   8.429   1.371   2.696
95802SOL     OW89238   0.645   3.516   3.868
95802SOL    HW189239   0.639   3.530   3.774
95802SOL    HW289240   0.560   3.544   3.902
95803SOL     OW89241  10.372   7.715  14.278
95803SOL    HW189242  10.359   7.697  14.184
95803SOL    HW289243  10.452   7.768  14.281
95804SOL     OW89244   3.121  12.457   4.002
95804SOL    HW189245   3.152  12.367   4.010
95804SOL    HW289246   3.192  12.504   3.959
95805SOL     OW89247   1.220   5.113   8.590
95805SOL    HW189248   1.266   5.041   8.548
95805SOL    HW289249   1.130   5.104   8.561
95806SOL     OW89250  13.627   3.526   4.472
95806SOL    HW189251  13.686   3.469   4.424
95806SOL    HW289252  13.673   3.545   4.554
95807SOL     OW89253   5.636   2.923   3.230
95807SOL    HW189254   5.682   2.892   3.308
95807SOL    HW289255   5.544   2.900   3.246
95808SOL     OW89256   9.436  13.713   0.724
95808SOL    HW189257   9.451  13.704   0.818
95808SOL    HW289258   9.520  13.691   0.684
95809SOL     OW89259   1.106   9.808  10.088
95809SOL    HW189260   1.029   9.782  10.038
95809SOL    HW289261   1.074   9.873  10.150
95810SOL     OW89262   2.418  11.046   6.869
95810SOL    HW189263   2.439  11.001   6.787
95810SOL    HW289264   2.322  11.047   6.872
95811SOL     OW89265   1.516   0.530   8.854
95811SOL    HW189266   1.485   0.614   8.889
95811SOL    HW289267   1.538   0.479   8.932
95812SOL     OW89268  13.383   1.582   8.930
95812SOL    HW189269  13.354   1.644   8.864
95812SOL    HW289270  13.427   1.636   8.996
95813SOL     OW89271   1.818   1.789   8.209
95813SOL    HW189272   1.857   1.817   8.292
95813SOL    HW289273   1.842   1.696   8.202
95814SOL     OW89274   7.668   7.109  12.700
95814SOL    HW189275   7.756   7.124  12.733
95814SOL    HW289276   7.621   7.069  12.773
95815SOL     OW89277   6.233  14.821   1.007
95815SOL    HW189278   6.157  14.873   0.981
95815SOL    HW289279   6.303   0.007   1.021
95816SOL     OW89280   0.289   8.968   3.532
95816SOL    HW189281   0.228   8.989   3.603
95816SOL    HW289282   0.333   8.888   3.561
95817SOL     OW89283  13.413   9.446   2.231
95817SOL    HW189284  13.503   9.460   2.200
95817SOL    HW289285  13.358   9.457   2.154
95818SOL     OW89286   3.813  13.678   3.288
95818SOL    HW189287   3.856  13.723   3.215
95818SOL    HW289288   3.795  13.590   3.254
95819SOL     OW89289   9.020   9.601   1.843
95819SOL    HW189290   9.008   9.529   1.782
95819SOL    HW289291   9.062   9.561   1.919
95820SOL     OW89292   5.796   0.977  11.237
95820SOL    HW189293   5.801   1.071  11.223
95820SOL    HW289294   5.887   0.947  11.232
95821SOL     OW89295  10.448   1.606   7.095
95821SOL    HW189296  10.363   1.651   7.093
95821SOL    HW289297  10.426   1.517   7.123
95822SOL     OW89298   5.974  13.371   4.356
95822SOL    HW189299   5.905  13.357   4.420
95822SOL    HW289300   5.939  13.336   4.274
95823SOL     OW89301   4.738   0.683   8.277
95823SOL    HW189302   4.743   0.778   8.269
95823SOL    HW289303   4.828   0.653   8.263
95824SOL     OW89304   1.875  10.524   9.923
95824SOL    HW189305   1.898  10.431   9.934
95824SOL    HW289306   1.949  10.571   9.961
95825SOL     OW89307  13.235  14.278   0.633
95825SOL    HW189308  13.231  14.355   0.577
95825SOL    HW289309  13.286  14.305   0.709
95826SOL     OW89310   6.345  11.097   0.312
95826SOL    HW189311   6.332  11.184   0.349
95826SOL    HW289312   6.321  11.036   0.382
95827SOL     OW89313   7.010  10.230  14.526
95827SOL    HW189314   6.969  10.189  14.450
95827SOL    HW289315   7.007  10.162  14.594
95828SOL     OW89316   5.954  14.533   4.414
95828SOL    HW189317   6.025  14.531   4.479
95828SOL    HW289318   5.874  14.540   4.466
95829SOL     OW89319   9.306   7.804  12.117
95829SOL    HW189320   9.255   7.845  12.047
95829SOL    HW289321   9.385   7.858  12.123
95830SOL     OW89322   3.668   0.806  12.942
95830SOL    HW189323   3.645   0.880  12.999
95830SOL    HW289324   3.587   0.786  12.895
95831SOL     OW89325  11.788   6.474   5.406
95831SOL    HW189326  11.712   6.426   5.374
95831SOL    HW289327  11.785   6.462   5.501
95832SOL     OW89328  10.596   9.240  12.989
95832SOL    HW189329  10.509   9.201  12.987
95832SOL    HW289330  10.597   9.292  13.069
95833SOL     OW89331  10.227   6.171   5.929
95833SOL    HW189332  10.300   6.118   5.895
95833SOL    HW289333  10.166   6.107   5.966
95834SOL     OW89334  12.125   1.408   5.036
95834SOL    HW189335  12.072   1.330   5.021
95834SOL    HW289336  12.107   1.465   4.962
95835SOL     OW89337  12.387  12.645  13.452
95835SOL    HW189338  12.384  12.552  13.432
95835SOL    HW289339  12.466  12.677  13.410
95836SOL     OW89340  11.002   3.289  12.855
95836SOL    HW189341  11.086   3.312  12.894
95836SOL    HW289342  10.985   3.200  12.886
95837SOL     OW89343   9.585   5.368  14.232
95837SOL    HW189344   9.541   5.420  14.164
95837SOL    HW289345   9.660   5.421  14.258
95838SOL     OW89346   3.016   9.509   7.789
95838SOL    HW189347   2.923   9.491   7.804
95838SOL    HW289348   3.054   9.423   7.772
95839SOL     OW89349   4.152   2.516   3.895
95839SOL    HW189350   4.235   2.470   3.906
95839SOL    HW289351   4.162   2.595   3.950
95840SOL     OW89352  14.230   2.677  10.740
95840SOL    HW189353  14.169   2.667  10.667
95840SOL    HW289354  14.189   2.632  10.813
95841SOL     OW89355  11.325   4.039   4.034
95841SOL    HW189356  11.237   4.049   4.070
95841SOL    HW289357  11.325   4.094   3.956
95842SOL     OW89358  13.602   0.838  13.368
95842SOL    HW189359  13.659   0.887  13.309
95842SOL    HW289360  13.560   0.772  13.312
95843SOL     OW89361  11.785   0.213   5.423
95843SOL    HW189362  11.758   0.269   5.497
95843SOL    HW289363  11.872   0.181   5.448
95844SOL     OW89364   6.189   9.428  10.689
95844SOL    HW189365   6.268   9.451  10.642
95844SOL    HW289366   6.207   9.342  10.727
95845SOL     OW89367  10.741  13.174   9.419
95845SOL    HW189368  10.832  13.194   9.439
95845SOL    HW289369  10.711  13.247   9.366
95846SOL     OW89370   6.726   9.407   0.461
95846SOL    HW189371   6.815   9.442   0.461
95846SOL    HW289372   6.735   9.318   0.496
95847SOL     OW89373  10.379  10.860   0.432
95847SOL    HW189374  10.419  10.937   0.473
95847SOL    HW289375  10.450  10.818   0.384
95848SOL     OW89376   7.576   2.005   2.604
95848SOL    HW189377   7.607   1.929   2.555
95848SOL    HW289378   7.607   2.080   2.554
95849SOL     OW89379   2.401   0.257  13.185
95849SOL    HW189380   2.460   0.300  13.246
95849SOL    HW289381   2.429   0.289  13.099
95850SOL     OW89382   4.416  14.416   8.453
95850SOL    HW189383   4.329  14.377   8.459
95850SOL    HW289384   4.404  14.493   8.397
95851SOL     OW89385   9.326   2.095   3.693
95851SOL    HW189386   9.363   2.114   3.779
95851SOL    HW289387   9.279   2.174   3.669
95852SOL     OW89388   2.985   6.384  12.251
95852SOL    HW189389   3.008   6.371  12.343
95852SOL    HW289390   2.891   6.365  12.247
95853SOL     OW89391   5.554   4.324  11.975
95853SOL    HW189392   5.484   4.362  12.028
95853SOL    HW289393   5.593   4.398  11.930
95854SOL     OW89394   3.597  14.596  14.201
95854SOL    HW189395   3.502  14.594  14.191
95854SOL    HW289396   3.613  14.665  14.265
95855SOL     OW89397   2.509  12.703   7.771
95855SOL    HW189398   2.569  12.720   7.843
95855SOL    HW289399   2.502  12.786   7.724
95856SOL     OW89400  13.903   3.907   8.781
95856SOL    HW189401  13.903   3.949   8.694
95856SOL    HW289402  13.844   3.833   8.772
95857SOL     OW89403   4.813   0.573   3.530
95857SOL    HW189404   4.756   0.614   3.465
95857SOL    HW289405   4.765   0.581   3.613
95858SOL     OW89406   2.274   8.337  14.513
95858SOL    HW189407   2.364   8.368  14.519
95858SOL    HW289408   2.247   8.357  14.424
95859SOL     OW89409  11.848  12.147  13.930
95859SOL    HW189410  11.762  12.144  13.888
95859SOL    HW289411  11.905  12.095  13.873
95860SOL     OW89412  13.662   2.114   2.787
95860SOL    HW189413  13.620   2.092   2.870
95860SOL    HW289414  13.747   2.070   2.791
95861SOL     OW89415  13.575   8.421  13.199
95861SOL    HW189416  13.614   8.338  13.229
95861SOL    HW289417  13.650   8.479  13.186
95862SOL     OW89418  10.534   1.206  14.767
95862SOL    HW189419  10.582   1.259  14.830
95862SOL    HW289420  10.555   1.116  14.791
95863SOL     OW89421   3.846   5.344  13.817
95863SOL    HW189422   3.941   5.347  13.834
95863SOL    HW289423   3.835   5.395  13.737
95864SOL     OW89424   2.067   2.300  14.089
95864SOL    HW189425   1.976   2.277  14.070
95864SOL    HW289426   2.110   2.299  14.003
95865SOL     OW89427   2.938  12.469   2.897
95865SOL    HW189428   3.003  12.533   2.927
95865SOL    HW289429   2.896  12.512   2.822
95866SOL     OW89430   0.488  10.914   1.048
95866SOL    HW189431   0.563  10.944   1.099
95866SOL    HW289432   0.515  10.830   1.013
95867SOL     OW89433   6.406   2.997   2.331
95867SOL    HW189434   6.421   3.069   2.393
95867SOL    HW289435   6.357   2.932   2.381
95868SOL     OW89436   1.138   0.498   4.495
95868SOL    HW189437   1.207   0.479   4.431
95868SOL    HW289438   1.185   0.537   4.569
95869SOL     OW89439   3.646  11.482  10.846
95869SOL    HW189440   3.741  11.476  10.835
95869SOL    HW289441   3.630  11.574  10.870
95870SOL     OW89442   9.679   5.906  12.891
95870SOL    HW189443   9.607   5.856  12.853
95870SOL    HW289444   9.642   5.945  12.970
95871SOL     OW89445  12.135   7.730   5.571
95871SOL    HW189446  12.227   7.704   5.559
95871SOL    HW289447  12.089   7.688   5.498
95872SOL     OW89448  11.516  12.949   0.304
95872SOL    HW189449  11.438  12.910   0.265
95872SOL    HW289450  11.523  13.034   0.262
95873SOL     OW89451  14.811   8.271  14.179
95873SOL    HW189452  14.862   8.324  14.241
95873SOL    HW289453  14.854   8.185  14.181
95874SOL     OW89454   5.316  12.545  12.392
95874SOL    HW189455   5.393  12.554  12.448
95874SOL    HW289456   5.317  12.453  12.365
95875SOL     OW89457   1.486   3.064  10.513
95875SOL    HW189458   1.539   3.089  10.588
95875SOL    HW289459   1.487   2.968  10.514
95876SOL     OW89460   9.989   5.233   8.225
95876SOL    HW189461   9.898   5.259   8.233
95876SOL    HW289462  10.035   5.312   8.195
95877SOL     OW89463   4.216   7.471  10.331
95877SOL    HW189464   4.307   7.501  10.335
95877SOL    HW289465   4.171   7.542  10.285
95878SOL     OW89466  10.572   9.051   3.193
95878SOL    HW189467  10.517   8.992   3.245
95878SOL    HW289468  10.645   8.996   3.163
95879SOL     OW89469  13.349   6.185  11.472
95879SOL    HW189470  13.309   6.115  11.524
95879SOL    HW289471  13.431   6.146  11.439
95880SOL     OW89472  12.293   1.583   9.675
95880SOL    HW189473  12.308   1.589   9.581
95880SOL    HW289474  12.377   1.607   9.714
95881SOL     OW89475   9.601  12.068   1.770
95881SOL    HW189476   9.693  12.090   1.785
95881SOL    HW289477   9.553  12.145   1.800
95882SOL     OW89478   9.752  11.959  10.477
95882SOL    HW189479   9.827  11.901  10.466
95882SOL    HW289480   9.775  12.039  10.429
95883SOL     OW89481  12.240  13.071   6.387
95883SOL    HW189482  12.313  13.018   6.417
95883SOL    HW289483  12.173  13.008   6.361
95884SOL     OW89484   7.062   4.574   8.546
95884SOL    HW189485   7.058   4.536   8.458
95884SOL    HW289486   7.153   4.603   8.555
95885SOL     OW89487  13.636  14.460  11.945
95885SOL    HW189488  13.566  14.447  11.881
95885SOL    HW289489  13.619  14.547  11.981
95886SOL     OW89490   3.658   3.490   6.681
95886SOL    HW189491   3.731   3.538   6.642
95886SOL    HW289492   3.627   3.433   6.611
95887SOL     OW89493   4.420   9.792  14.269
95887SOL    HW189494   4.476   9.852  14.318
95887SOL    HW289495   4.412   9.715  14.326
95888SOL     OW89496   6.355   7.693   4.401
95888SOL    HW189497   6.346   7.788   4.406
95888SOL    HW289498   6.306   7.661   4.477
95889SOL     OW89499   9.770   7.410   3.068
95889SOL    HW189500   9.811   7.436   2.986
95889SOL    HW289501   9.695   7.357   3.042
95890SOL     OW89502   1.838   4.085  12.974
95890SOL    HW189503   1.827   4.023  13.046
95890SOL    HW289504   1.933   4.099  12.970
95891SOL     OW89505  12.455  10.944   7.129
95891SOL    HW189506  12.363  10.948   7.103
95891SOL    HW289507  12.453  10.911   7.218
95892SOL     OW89508   9.540   5.632  13.132
95892SOL    HW189509   9.525   5.668  13.045
95892SOL    HW289510   9.544   5.537  13.119
95893SOL     OW89511   0.439   5.506   9.272
95893SOL    HW189512   0.397   5.588   9.244
95893SOL    HW289513   0.504   5.533   9.337
95894SOL     OW89514   1.269  14.782   1.636
95894SOL    HW189515   1.252  14.866   1.594
95894SOL    HW289516   1.203  14.723   1.599
95895SOL     OW89517  14.529   0.634  12.328
95895SOL    HW189518  14.608   0.581  12.341
95895SOL    HW289519  14.511   0.672  12.413
95896SOL     OW89520  12.405   9.096  14.798
95896SOL    HW189521  12.334   9.132  14.746
95896SOL    HW289522  12.399   9.001  14.785
95897SOL     OW89523   8.350  13.247   9.010
95897SOL    HW189524   8.359  13.151   9.015
95897SOL    HW289525   8.422  13.275   8.955
95898SOL     OW89526   2.393   3.935   3.051
95898SOL    HW189527   2.375   4.013   3.103
95898SOL    HW289528   2.432   3.968   2.970
95899SOL     OW89529  10.665   7.733   1.321
95899SOL    HW189530  10.582   7.690   1.342
95899SOL    HW289531  10.732   7.668   1.342
95900SOL     OW89532   6.996  11.437   1.167
95900SOL    HW189533   6.980  11.438   1.261
95900SOL    HW289534   6.925  11.488   1.129
95901SOL     OW89535   7.615   6.536  14.557
95901SOL    HW189536   7.538   6.519  14.610
95901SOL    HW289537   7.670   6.593  14.612
95902SOL     OW89538   2.341   8.376   9.735
95902SOL    HW189539   2.323   8.364   9.642
95902SOL    HW289540   2.280   8.317   9.780
95903SOL     OW89541  11.808  11.417  10.904
95903SOL    HW189542  11.764  11.338  10.937
95903SOL    HW289543  11.887  11.384  10.861
95904SOL     OW89544  11.773  10.802   5.734
95904SOL    HW189545  11.850  10.755   5.703
95904SOL    HW289546  11.712  10.733   5.760
95905SOL     OW89547   0.092   3.183   7.836
95905SOL    HW189548   0.062   3.138   7.915
95905SOL    HW289549   0.186   3.161   7.830
95906SOL     OW89550   6.264   2.641   2.366
95906SOL    HW189551   6.284   2.549   2.349
95906SOL    HW289552   6.270   2.683   2.280
95907SOL     OW89553   3.637   1.574  10.250
95907SOL    HW189554   3.564   1.636  10.252
95907SOL    HW289555   3.703   1.613  10.306
95908SOL     OW89556   1.762  13.612  13.191
95908SOL    HW189557   1.677  13.623  13.233
95908SOL    HW289558   1.820  13.670  13.240
95909SOL     OW89559   5.243  11.296   6.262
95909SOL    HW189560   5.193  11.217   6.279
95909SOL    HW289561   5.335  11.268   6.267
95910SOL     OW89562   6.103  14.762   1.862
95910SOL    HW189563   6.175  14.740   1.803
95910SOL    HW289564   6.109  14.857   1.872
95911SOL     OW89565   1.222   1.967   9.637
95911SOL    HW189566   1.182   1.924   9.561
95911SOL    HW289567   1.205   1.908   9.710
95912SOL     OW89568  13.367   6.062   3.434
95912SOL    HW189569  13.395   6.147   3.401
95912SOL    HW289570  13.401   6.058   3.523
95913SOL     OW89571  12.631  11.737   0.525
95913SOL    HW189572  12.673  11.669   0.472
95913SOL    HW289573  12.682  11.816   0.507
95914SOL     OW89574   2.035   6.928   4.762
95914SOL    HW189575   2.037   6.862   4.693
95914SOL    HW289576   2.061   7.009   4.718
95915SOL     OW89577  13.366   1.862   8.491
95915SOL    HW189578  13.405   1.932   8.544
95915SOL    HW289579  13.423   1.786   8.505
95916SOL     OW89580  12.160  10.766   6.687
95916SOL    HW189581  12.101  10.839   6.704
95916SOL    HW289582  12.196  10.785   6.600
95917SOL     OW89583  12.197   8.079   6.451
95917SOL    HW189584  12.143   8.134   6.393
95917SOL    HW289585  12.189   8.121   6.537
95918SOL     OW89586   2.960   4.960  12.888
95918SOL    HW189587   2.869   4.979  12.864
95918SOL    HW289588   2.965   4.982  12.981
95919SOL     OW89589  10.646   3.086   5.121
95919SOL    HW189590  10.660   3.181   5.129
95919SOL    HW289591  10.553   3.075   5.138
95920SOL     OW89592   8.259   4.708   2.117
95920SOL    HW189593   8.188   4.768   2.094
95920SOL    HW289594   8.226   4.661   2.194
95921SOL     OW89595   7.252   1.549   5.213
95921SOL    HW189596   7.160   1.568   5.196
95921SOL    HW289597   7.255   1.524   5.306
95922SOL     OW89598   8.811   6.607   5.124
95922SOL    HW189599   8.822   6.548   5.199
95922SOL    HW289600   8.756   6.678   5.157
95923SOL     OW89601   1.830   1.034  13.761
95923SOL    HW189602   1.736   1.049  13.759
95923SOL    HW289603   1.847   0.994  13.847
95924SOL     OW89604   6.590   2.132   4.631
95924SOL    HW189605   6.605   2.224   4.609
95924SOL    HW289606   6.540   2.135   4.713
95925SOL     OW89607   4.760   4.316   7.066
95925SOL    HW189608   4.757   4.397   7.116
95925SOL    HW289609   4.751   4.344   6.974
95926SOL     OW89610  12.566  10.379  14.775
95926SOL    HW189611  12.581  10.315  14.845
95926SOL    HW289612  12.551  10.461  14.821
95927SOL     OW89613   7.973   9.366   9.945
95927SOL    HW189614   7.989   9.271   9.950
95927SOL    HW289615   8.001   9.399  10.031
95928SOL     OW89616   9.907  13.659   0.446
95928SOL    HW189617   9.892  13.664   0.351
95928SOL    HW289618   9.971  13.728   0.464
95929SOL     OW89619   7.717   5.894   6.123
95929SOL    HW189620   7.627   5.866   6.109
95929SOL    HW289621   7.759   5.883   6.038
95930SOL     OW89622   4.617   3.634   0.118
95930SOL    HW189623   4.679   3.605   0.185
95930SOL    HW289624   4.533   3.600   0.146
95931SOL     OW89625   7.333   6.513  13.742
95931SOL    HW189626   7.383   6.433  13.756
95931SOL    HW289627   7.396   6.577  13.709
95932SOL     OW89628   6.848   9.690   0.910
95932SOL    HW189629   6.791   9.646   0.848
95932SOL    HW289630   6.810   9.671   0.996
95933SOL     OW89631   0.822   1.475   5.854
95933SOL    HW189632   0.893   1.535   5.881
95933SOL    HW289633   0.807   1.495   5.762
95934SOL     OW89634  14.738   2.415  10.623
95934SOL    HW189635  14.755   2.476  10.695
95934SOL    HW289636  14.655   2.444  10.585
95935SOL     OW89637   1.106  13.458  10.214
95935SOL    HW189638   1.181  13.512  10.191
95935SOL    HW289639   1.036  13.520  10.232
95936SOL     OW89640   8.806   7.477   1.663
95936SOL    HW189641   8.764   7.431   1.735
95936SOL    HW289642   8.884   7.424   1.643
95937SOL     OW89643   2.927   6.436   2.851
95937SOL    HW189644   2.984   6.393   2.916
95937SOL    HW289645   2.877   6.364   2.812
95938SOL     OW89646  14.591   0.116   4.021
95938SOL    HW189647  14.563   0.184   4.082
95938SOL    HW289648  14.544   0.134   3.940
95939SOL     OW89649   9.154   9.137   9.294
95939SOL    HW189650   9.241   9.140   9.254
95939SOL    HW289651   9.131   9.044   9.293
95940SOL     OW89652   3.285   4.167  13.630
95940SOL    HW189653   3.292   4.262  13.641
95940SOL    HW289654   3.250   4.135  13.713
95941SOL     OW89655  12.239   7.166   7.541
95941SOL    HW189656  12.266   7.220   7.467
95941SOL    HW289657  12.252   7.076   7.511
95942SOL     OW89658   3.736   3.664   9.889
95942SOL    HW189659   3.706   3.734   9.948
95942SOL    HW289660   3.801   3.616   9.940
95943SOL     OW89661  12.151   0.755   9.660
95943SOL    HW189662  12.109   0.732   9.743
95943SOL    HW289663  12.086   0.734   9.593
95944SOL     OW89664   7.946  10.412   0.814
95944SOL    HW189665   7.976  10.408   0.905
95944SOL    HW289666   8.011  10.363   0.764
95945SOL     OW89667   4.632  10.383   8.068
95945SOL    HW189668   4.629  10.370   8.163
95945SOL    HW289669   4.716  10.344   8.041
95946SOL     OW89670   1.221   1.960   3.393
95946SOL    HW189671   1.126   1.951   3.385
95946SOL    HW289672   1.253   1.954   3.302
95947SOL     OW89673   0.535  11.488   8.759
95947SOL    HW189674   0.514  11.581   8.749
95947SOL    HW289675   0.630  11.483   8.751
95948SOL     OW89676   6.400   5.781   5.582
95948SOL    HW189677   6.388   5.789   5.487
95948SOL    HW289678   6.363   5.861   5.618
95949SOL     OW89679   4.188   2.819  11.427
95949SOL    HW189680   4.262   2.764  11.400
95949SOL    HW289681   4.167   2.787  11.515
95950SOL     OW89682  11.363  11.393  14.161
95950SOL    HW189683  11.390  11.484  14.155
95950SOL    HW289684  11.320  11.375  14.077
95951SOL     OW89685   7.266   8.144   4.549
95951SOL    HW189686   7.275   8.124   4.642
95951SOL    HW289687   7.354   8.135   4.513
95952SOL     OW89688   3.166  10.360  14.407
95952SOL    HW189689   3.217  10.300  14.354
95952SOL    HW289690   3.081  10.318  14.417
95953SOL     OW89691   4.433   8.116  14.275
95953SOL    HW189692   4.348   8.073  14.279
95953SOL    HW289693   4.440   8.165  14.357
95954SOL     OW89694   2.353  10.927   3.270
95954SOL    HW189695   2.434  10.906   3.223
95954SOL    HW289696   2.364  10.887   3.356
95955SOL     OW89697   7.928   7.761   1.324
95955SOL    HW189698   7.981   7.716   1.390
95955SOL    HW289699   7.884   7.831   1.372
95956SOL     OW89700  12.805   6.495  11.272
95956SOL    HW189701  12.799   6.554  11.347
95956SOL    HW289702  12.787   6.550  11.196
95957SOL     OW89703  12.146  14.118  13.430
95957SOL    HW189704  12.199  14.119  13.510
95957SOL    HW289705  12.085  14.191  13.440
95958SOL     OW89706   6.115   9.450   3.154
95958SOL    HW189707   6.155   9.471   3.238
95958SOL    HW289708   6.184   9.466   3.089
95959SOL     OW89709   4.084  10.119   5.335
95959SOL    HW189710   4.075  10.123   5.240
95959SOL    HW289711   4.109  10.208   5.360
95960SOL     OW89712   3.554  14.713  13.553
95960SOL    HW189713   3.495  14.703  13.478
95960SOL    HW289714   3.580  14.624  13.576
95961SOL     OW89715   0.006  14.531   8.969
95961SOL    HW189716   0.031  14.617   8.934
95961SOL    HW289717   0.009  14.472   8.894
95962SOL     OW89718  12.422  11.980  12.884
95962SOL    HW189719  12.363  12.042  12.926
95962SOL    HW289720  12.503  11.984  12.935
95963SOL     OW89721   1.393   9.994   0.423
95963SOL    HW189722   1.373  10.028   0.511
95963SOL    HW289723   1.338   9.917   0.414
95964SOL     OW89724   6.542  12.563  10.306
95964SOL    HW189725   6.474  12.511  10.347
95964SOL    HW289726   6.511  12.578  10.217
95965SOL     OW89727  10.984  10.232   8.597
95965SOL    HW189728  10.996  10.138   8.589
95965SOL    HW289729  10.918  10.253   8.531
95966SOL     OW89730  13.516   8.904  10.324
95966SOL    HW189731  13.523   8.908  10.419
95966SOL    HW289732  13.524   8.811  10.304
95967SOL     OW89733  11.392  10.132   4.363
95967SOL    HW189734  11.430  10.045   4.361
95967SOL    HW289735  11.424  10.171   4.444
95968SOL     OW89736  11.352   1.324  11.505
95968SOL    HW189737  11.365   1.289  11.593
95968SOL    HW289738  11.295   1.400  11.517
95969SOL     OW89739   5.121   2.653  12.499
95969SOL    HW189740   5.085   2.725  12.447
95969SOL    HW289741   5.137   2.692  12.585
95970SOL     OW89742   3.176  14.700  13.162
95970SOL    HW189743   3.148  14.640  13.231
95970SOL    HW289744   3.104  14.699  13.099
95971SOL     OW89745   2.469  11.020   5.467
95971SOL    HW189746   2.517  11.062   5.396
95971SOL    HW289747   2.433  10.940   5.428
95972SOL     OW89748  14.659  14.878   8.599
95972SOL    HW189749  14.591   0.062   8.574
95972SOL    HW289750  14.626  14.839   8.680
95973SOL     OW89751  11.924  14.414   1.507
95973SOL    HW189752  11.987  14.480   1.537
95973SOL    HW289753  11.861  14.406   1.579
95974SOL     OW89754   8.549  12.062   3.287
95974SOL    HW189755   8.596  12.096   3.363
95974SOL    HW289756   8.610  12.070   3.214
95975SOL     OW89757   9.771  14.489   3.650
95975SOL    HW189758   9.739  14.472   3.738
95975SOL    HW289759   9.758  14.583   3.637
95976SOL     OW89760   1.355   3.517   3.571
95976SOL    HW189761   1.359   3.612   3.558
95976SOL    HW289762   1.386   3.480   3.488
95977SOL     OW89763  11.576  14.369  13.961
95977SOL    HW189764  11.511  14.298  13.955
95977SOL    HW289765  11.543  14.437  13.902
95978SOL     OW89766   4.397  13.536  10.924
95978SOL    HW189767   4.416  13.622  10.962
95978SOL    HW289768   4.313  13.510  10.964
95979SOL     OW89769   6.348  14.439   8.324
95979SOL    HW189770   6.357  14.494   8.246
95979SOL    HW289771   6.379  14.353   8.297
95980SOL     OW89772   3.997   7.545  13.550
95980SOL    HW189773   3.972   7.625  13.502
95980SOL    HW289774   3.965   7.474  13.495
95981SOL     OW89775   2.563  13.145   0.645
95981SOL    HW189776   2.526  13.060   0.665
95981SOL    HW289777   2.495  13.190   0.594
95982SOL     OW89778   3.683   1.728   7.767
95982SOL    HW189779   3.601   1.679   7.770
95982SOL    HW289780   3.750   1.661   7.749
95983SOL     OW89781   9.444   1.915   8.478
95983SOL    HW189782   9.484   1.972   8.413
95983SOL    HW289783   9.357   1.953   8.493
95984SOL     OW89784  12.159  10.247   1.632
95984SOL    HW189785  12.089  10.208   1.685
95984SOL    HW289786  12.126  10.244   1.542
95985SOL     OW89787   8.240   4.452  14.011
95985SOL    HW189788   8.227   4.435  14.104
95985SOL    HW289789   8.177   4.521  13.990
95986SOL     OW89790  12.253  12.916   5.641
95986SOL    HW189791  12.341  12.954   5.646
95986SOL    HW289792  12.209  12.950   5.719
95987SOL     OW89793   4.564  12.938   9.171
95987SOL    HW189794   4.522  12.885   9.238
95987SOL    HW289795   4.648  12.895   9.156
95988SOL     OW89796  10.177   6.753  11.711
95988SOL    HW189797  10.264   6.787  11.731
95988SOL    HW289798  10.162   6.777  11.620
95989SOL     OW89799   3.412  11.749   2.688
95989SOL    HW189800   3.484  11.779   2.633
95989SOL    HW289801   3.401  11.818   2.753
95990SOL     OW89802   0.588   2.578  14.782
95990SOL    HW189803   0.631   2.527  14.851
95990SOL    HW289804   0.523   2.631  14.829
95991SOL     OW89805   0.762  14.161  14.061
95991SOL    HW189806   0.795  14.077  14.030
95991SOL    HW289807   0.667  14.154  14.051
95992SOL     OW89808   9.629   7.537   5.133
95992SOL    HW189809   9.695   7.586   5.181
95992SOL    HW289810   9.623   7.580   5.048
95993SOL     OW89811   3.852  11.124   1.308
95993SOL    HW189812   3.763  11.131   1.343
95993SOL    HW289813   3.874  11.031   1.317
95994SOL     OW89814  14.846  13.196   0.918
95994SOL    HW189815   0.041  13.198   0.858
95994SOL    HW289816  14.799  13.277   0.901
95995SOL     OW89817  12.829   4.484   3.278
95995SOL    HW189818  12.909   4.482   3.331
95995SOL    HW289819  12.777   4.410   3.311
95996SOL     OW89820   8.947   5.398   8.574
95996SOL    HW189821   9.008   5.343   8.624
95996SOL    HW289822   8.943   5.356   8.487
95997SOL     OW89823   3.695   6.747   5.220
95997SOL    HW189824   3.607   6.740   5.185
95997SOL    HW289825   3.700   6.678   5.287
95998SOL     OW89826   7.921  12.357  13.795
95998SOL    HW189827   7.980  12.341  13.720
95998SOL    HW289828   7.963  12.427  13.844
95999SOL     OW89829  11.565  10.089   5.693
95999SOL    HW189830  11.645  10.120   5.651
95999SOL    HW289831  11.576   9.995   5.702
96000SOL     OW89832   4.467   7.726   3.750
96000SOL    HW189833   4.420   7.804   3.778
96000SOL    HW289834   4.531   7.711   3.820
96001SOL     OW89835  12.413   5.401   6.196
96001SOL    HW189836  12.350   5.439   6.134
96001SOL    HW289837  12.361   5.382   6.274
96002SOL     OW89838  12.946   7.075  10.600
96002SOL    HW189839  13.038   7.071  10.573
96002SOL    HW289840  12.942   7.020  10.678
96003SOL     OW89841   7.081   7.809   0.933
96003SOL    HW189842   7.124   7.854   1.006
96003SOL    HW289843   6.993   7.789   0.966
96004SOL     OW89844   2.803   6.817   0.534
96004SOL    HW189845   2.893   6.798   0.510
96004SOL    HW289846   2.805   6.835   0.628
96005SOL     OW89847   0.481  12.365  11.774
96005SOL    HW189848   0.427  12.301  11.728
96005SOL    HW289849   0.442  12.450  11.753
96006SOL     OW89850   7.046   2.594   6.722
96006SOL    HW189851   6.999   2.576   6.803
96006SOL    HW289852   7.116   2.653   6.748
96007SOL     OW89853  14.681  13.879   2.847
96007SOL    HW189854  14.740  13.826   2.900
96007SOL    HW289855  14.625  13.924   2.910
96008SOL     OW89856  11.692  11.161  14.471
96008SOL    HW189857  11.608  11.144  14.514
96008SOL    HW289858  11.700  11.094  14.404
96009SOL     OW89859   8.909   8.273   5.938
96009SOL    HW189860   8.839   8.247   5.998
96009SOL    HW289861   8.927   8.364   5.960
96010SOL     OW89862   1.689   0.377  13.352
96010SOL    HW189863   1.617   0.390  13.413
96010SOL    HW289864   1.706   0.465  13.316
96011SOL     OW89865   7.903   4.135   6.843
96011SOL    HW189866   7.867   4.164   6.927
96011SOL    HW289867   7.852   4.182   6.777
96012SOL     OW89868   2.328   6.406   1.063
96012SOL    HW189869   2.320   6.495   1.098
96012SOL    HW289870   2.268   6.404   0.989
96013SOL     OW89871   0.791   8.924   4.438
96013SOL    HW189872   0.823   8.988   4.501
96013SOL    HW289873   0.863   8.913   4.376
96014SOL     OW89874   5.384   7.934   1.377
96014SOL    HW189875   5.311   7.881   1.409
96014SOL    HW289876   5.350   8.023   1.373
96015SOL     OW89877   9.700   2.135   4.158
96015SOL    HW189878   9.720   2.166   4.246
96015SOL    HW289879   9.641   2.061   4.171
96016SOL     OW89880  14.110   0.651   4.709
96016SOL    HW189881  14.158   0.602   4.776
96016SOL    HW289882  14.050   0.586   4.671
96017SOL     OW89883  12.936   6.637   2.194
96017SOL    HW189884  12.938   6.624   2.100
96017SOL    HW289885  12.899   6.725   2.206
96018SOL     OW89886   1.661   9.443   9.734
96018SOL    HW189887   1.686   9.383   9.664
96018SOL    HW289888   1.696   9.528   9.706
96019SOL     OW89889  10.078   7.249   2.778
96019SOL    HW189890  10.070   7.173   2.836
96019SOL    HW289891  10.170   7.275   2.785
96020SOL     OW89892   1.182  14.187   8.213
96020SOL    HW189893   1.245  14.162   8.281
96020SOL    HW289894   1.120  14.113   8.211
96021SOL     OW89895   6.039  12.579  14.651
96021SOL    HW189896   5.949  12.598  14.677
96021SOL    HW289897   6.044  12.484  14.651
96022SOL     OW89898   2.793  11.439   6.083
96022SOL    HW189899   2.774  11.493   6.006
96022SOL    HW289900   2.745  11.481   6.154
96023SOL     OW89901   5.565   5.332   2.132
96023SOL    HW189902   5.635   5.270   2.151
96023SOL    HW289903   5.550   5.377   2.215
96024SOL     OW89904   4.921  13.913  13.280
96024SOL    HW189905   4.882  13.983  13.333
96024SOL    HW289906   4.856  13.844  13.279
96025SOL     OW89907   7.625   9.827   1.702
96025SOL    HW189908   7.564   9.880   1.650
96025SOL    HW289909   7.576   9.807   1.782
96026SOL     OW89910   4.219   2.861  13.166
96026SOL    HW189911   4.198   2.775  13.201
96026SOL    HW289912   4.169   2.867  13.085
96027SOL     OW89913   7.874   1.549  11.202
96027SOL    HW189914   7.853   1.567  11.294
96027SOL    HW289915   7.910   1.632  11.170
96028SOL     OW89916  10.583  14.621   3.325
96028SOL    HW189917  10.645  14.616   3.398
96028SOL    HW289918  10.636  14.603   3.247
96029SOL     OW89919   8.133   2.755   1.542
96029SOL    HW189920   8.045   2.724   1.524
96029SOL    HW289921   8.123   2.821   1.611
96030SOL     OW89922   9.071   1.542  14.642
96030SOL    HW189923   9.099   1.454  14.667
96030SOL    HW289924   9.099   1.552  14.551
96031SOL     OW89925   2.278   8.913   0.745
96031SOL    HW189926   2.232   8.945   0.822
96031SOL    HW289927   2.341   8.850   0.778
96032SOL     OW89928  14.462   5.146   1.334
96032SOL    HW189929  14.488   5.196   1.257
96032SOL    HW289930  14.437   5.060   1.299
96033SOL     OW89931   5.070  12.688  11.094
96033SOL    HW189932   5.034  12.633  11.164
96033SOL    HW289933   5.164  12.672  11.096
96034SOL     OW89934  13.704   4.473   4.828
96034SOL    HW189935  13.651   4.467   4.907
96034SOL    HW289936  13.791   4.446   4.855
96035SOL     OW89937  11.837  14.652   3.093
96035SOL    HW189938  11.886  14.654   3.176
96035SOL    HW289939  11.838  14.743   3.063
96036SOL     OW89940   9.395   1.845   7.828
96036SOL    HW189941   9.477   1.807   7.796
96036SOL    HW289942   9.418   1.934   7.854
96037SOL     OW89943   4.144  12.265   7.195
96037SOL    HW189944   4.060  12.307   7.213
96037SOL    HW289945   4.190  12.266   7.279
96038SOL     OW89946   5.858   4.675  12.181
96038SOL    HW189947   5.893   4.746  12.235
96038SOL    HW289948   5.805   4.720  12.115
96039SOL     OW89949   0.976   3.302  14.781
96039SOL    HW189950   1.053   3.246  14.767
96039SOL    HW289951   0.998   3.352  14.860
96040SOL     OW89952   8.235   2.241   9.157
96040SOL    HW189953   8.320   2.257   9.117
96040SOL    HW289954   8.175   2.298   9.110
96041SOL     OW89955   0.373   2.526   1.981
96041SOL    HW189956   0.391   2.452   2.039
96041SOL    HW289957   0.356   2.486   1.896
96042SOL     OW89958   3.153   9.954   3.328
96042SOL    HW189959   3.212   9.933   3.400
96042SOL    HW289960   3.200   9.926   3.249
96043SOL     OW89961   1.315  10.950   4.555
96043SOL    HW189962   1.395  10.978   4.600
96043SOL    HW289963   1.337  10.863   4.521
96044SOL     OW89964  12.017   1.106   3.064
96044SOL    HW189965  11.971   1.027   3.092
96044SOL    HW289966  12.002   1.111   2.970
96045SOL     OW89967   1.837   2.357  12.025
96045SOL    HW189968   1.909   2.296  12.012
96045SOL    HW289969   1.758   2.306  12.006
96046SOL     OW89970  10.247   9.107   0.536
96046SOL    HW189971  10.281   9.074   0.453
96046SOL    HW289972  10.160   9.140   0.515
96047SOL     OW89973   2.672   4.822   1.467
96047SOL    HW189974   2.618   4.900   1.479
96047SOL    HW289975   2.634   4.777   1.392
96048SOL     OW89976   7.103   4.156  11.580
96048SOL    HW189977   7.071   4.217  11.646
96048SOL    HW289978   7.156   4.093  11.629
96049SOL     OW89979  13.616   3.573   3.261
96049SOL    HW189980  13.654   3.486   3.272
96049SOL    HW289981  13.523   3.560   3.278
96050SOL     OW89982   2.689   8.343   2.182
96050SOL    HW189983   2.604   8.381   2.206
96050SOL    HW289984   2.684   8.331   2.087
96051SOL     OW89985  14.806   9.029   5.856
96051SOL    HW189986  14.850   8.947   5.837
96051SOL    HW289987  14.713   9.007   5.858
96052SOL     OW89988   8.722  11.204  14.118
96052SOL    HW189989   8.785  11.135  14.136
96052SOL    HW289990   8.662  11.202  14.193
96053SOL     OW89991  11.523   7.037  14.383
96053SOL    HW189992  11.606   7.009  14.345
96053SOL    HW289993  11.548   7.083  14.463
96054SOL     OW89994   5.900   2.386   3.389
96054SOL    HW189995   5.893   2.368   3.296
96054SOL    HW289996   5.992   2.368   3.411
96055SOL     OW89997  14.159  10.474   3.991
96055SOL    HW189998  14.238  10.513   3.953
96055SOL    HW289999  14.184  10.383   4.009
96056SOL     OW90000   7.308   2.583   8.512
96056SOL    HW190001   7.365   2.631   8.571
96056SOL    HW290002   7.220   2.615   8.532
96057SOL     OW90003   1.194   7.070   7.104
96057SOL    HW190004   1.170   7.160   7.126
96057SOL    HW290005   1.152   7.017   7.171
96058SOL     OW90006  10.465   1.401   6.645
96058SOL    HW190007  10.491   1.336   6.710
96058SOL    HW290008  10.410   1.463   6.692
96059SOL     OW90009  12.161   8.283  14.308
96059SOL    HW190010  12.178   8.188  14.308
96059SOL    HW290011  12.246   8.322  14.290
96060SOL     OW90012  13.817   3.738   6.513
96060SOL    HW190013  13.750   3.756   6.448
96060SOL    HW290014  13.895   3.785   6.481
96061SOL     OW90015   1.064   1.412   9.653
96061SOL    HW190016   1.160   1.407   9.652
96061SOL    HW290017   1.043   1.445   9.740
96062SOL     OW90018   9.531  14.429  12.655
96062SOL    HW190019   9.554  14.469  12.739
96062SOL    HW290020   9.603  14.369  12.637
96063SOL     OW90021   0.296   6.110   2.813
96063SOL    HW190022   0.364   6.047   2.837
96063SOL    HW290023   0.309   6.184   2.873
96064SOL     OW90024   2.407   0.521   7.535
96064SOL    HW190025   2.412   0.541   7.629
96064SOL    HW290026   2.487   0.559   7.498
96065SOL     OW90027   6.766   2.861   6.997
96065SOL    HW190028   6.729   2.796   7.055
96065SOL    HW290029   6.839   2.899   7.046
96066SOL     OW90030   2.166   0.864   4.372
96066SOL    HW190031   2.164   0.957   4.396
96066SOL    HW290032   2.144   0.862   4.279
96067SOL     OW90033   5.331   6.600   3.735
96067SOL    HW190034   5.374   6.594   3.650
96067SOL    HW290035   5.303   6.511   3.755
96068SOL     OW90036   9.874   9.613   6.504
96068SOL    HW190037   9.830   9.698   6.512
96068SOL    HW290038   9.937   9.612   6.576
96069SOL     OW90039   6.245   9.436   1.433
96069SOL    HW190040   6.191   9.359   1.450
96069SOL    HW290041   6.203   9.507   1.480
96070SOL     OW90042   8.558   8.074  10.810
96070SOL    HW190043   8.538   7.992  10.855
96070SOL    HW290044   8.594   8.046  10.726
96071SOL     OW90045   4.258  13.986   7.635
96071SOL    HW190046   4.281  14.079   7.630
96071SOL    HW290047   4.167  13.983   7.604
96072SOL     OW90048   8.596  12.012   5.660
96072SOL    HW190049   8.676  12.021   5.711
96072SOL    HW290050   8.572  12.101   5.635
96073SOL     OW90051   1.714   7.277   7.945
96073SOL    HW190052   1.741   7.234   7.864
96073SOL    HW290053   1.624   7.248   7.959
96074SOL     OW90054  12.723   5.724  10.828
96074SOL    HW190055  12.819   5.730  10.836
96074SOL    HW290056  12.693   5.814  10.836
96075SOL     OW90057  13.685   3.299   3.241
96075SOL    HW190058  13.699   3.271   3.332
96075SOL    HW290059  13.698   3.220   3.189
96076SOL     OW90060   1.834   8.935   8.708
96076SOL    HW190061   1.886   8.863   8.745
96076SOL    HW290062   1.756   8.939   8.764
96077SOL     OW90063  12.764   9.778   2.697
96077SOL    HW190064  12.787   9.690   2.726
96077SOL    HW290065  12.805   9.836   2.761
96078SOL     OW90066  13.094  11.021  11.023
96078SOL    HW190067  13.092  11.024  11.119
96078SOL    HW290068  13.133  10.936  11.003
96079SOL     OW90069   1.059  14.633   0.292
96079SOL    HW190070   1.115  14.604   0.220
96079SOL    HW290071   1.033  14.721   0.269
96080SOL     OW90072   4.564   7.498  14.562
96080SOL    HW190073   4.503   7.541  14.622
96080SOL    HW290074   4.508   7.446  14.504
96081SOL     OW90075  12.285  11.359   8.264
96081SOL    HW190076  12.265  11.363   8.170
96081SOL    HW290077  12.289  11.266   8.283
96082SOL     OW90078   3.403   6.287  13.696
96082SOL    HW190079   3.437   6.333  13.772
96082SOL    HW290080   3.481   6.249  13.654
96083SOL     OW90081  10.741  14.060   1.061
96083SOL    HW190082  10.705  14.120   1.125
96083SOL    HW290083  10.735  13.974   1.102
96084SOL     OW90084   1.963  13.359   0.179
96084SOL    HW190085   2.003  13.312   0.253
96084SOL    HW290086   2.036  13.376   0.119
96085SOL     OW90087   1.932   8.251  11.001
96085SOL    HW190088   1.986   8.224  11.075
96085SOL    HW290089   1.887   8.329  11.031
96086SOL     OW90090   0.412  10.684   1.652
96086SOL    HW190091   0.458  10.713   1.574
96086SOL    HW290092   0.363  10.761   1.682
96087SOL     OW90093  10.598  12.658   9.148
96087SOL    HW190094  10.651  12.601   9.203
96087SOL    HW290095  10.645  12.741   9.145
96088SOL     OW90096   2.382   7.716  11.438
96088SOL    HW190097   2.421   7.767  11.509
96088SOL    HW290098   2.345   7.782  11.379
96089SOL     OW90099  13.615   2.249   8.227
96089SOL    HW190100  13.602   2.276   8.318
96089SOL    HW290101  13.557   2.173   8.216
96090SOL     OW90102   5.655   5.984  11.420
96090SOL    HW190103   5.590   6.054  11.412
96090SOL    HW290104   5.605   5.907  11.444
96091SOL     OW90105   5.270   1.131   5.932
96091SOL    HW190106   5.263   1.212   5.880
96091SOL    HW290107   5.313   1.159   6.013
96092SOL     OW90108  14.103   2.323   4.625
96092SOL    HW190109  14.132   2.272   4.700
96092SOL    HW290110  14.101   2.260   4.552
96093SOL     OW90111   9.669   2.523   5.728
96093SOL    HW190112   9.595   2.564   5.772
96093SOL    HW290113   9.708   2.465   5.794
96094SOL     OW90114   0.251   6.093   4.776
96094SOL    HW190115   0.339   6.062   4.752
96094SOL    HW290116   0.200   6.082   4.696
96095SOL     OW90117  14.604   3.006  10.323
96095SOL    HW190118  14.577   3.087  10.366
96095SOL    HW290119  14.661   2.963  10.388
96096SOL     OW90120   8.566   1.773  13.984
96096SOL    HW190121   8.491   1.772  13.926
96096SOL    HW290122   8.641   1.787  13.926
96097SOL     OW90123  11.503   9.327   7.922
96097SOL    HW190124  11.532   9.366   7.839
96097SOL    HW290125  11.408   9.336   7.921
96098SOL     OW90126   1.084  14.407   8.558
96098SOL    HW190127   1.076  14.471   8.487
96098SOL    HW290128   1.031  14.333   8.529
96099SOL     OW90129  11.817  12.462   7.899
96099SOL    HW190130  11.905  12.489   7.926
96099SOL    HW290131  11.796  12.519   7.825
96100SOL     OW90132  12.862   0.368   8.830
96100SOL    HW190133  12.864   0.290   8.774
96100SOL    HW290134  12.899   0.437   8.775
96101SOL     OW90135   7.985   3.281   7.734
96101SOL    HW190136   7.956   3.190   7.732
96101SOL    HW290137   8.036   3.289   7.815
96102SOL     OW90138   1.278  12.847   9.704
96102SOL    HW190139   1.190  12.877   9.686
96102SOL    HW290140   1.267  12.758   9.738
96103SOL     OW90141   1.824   3.575  11.868
96103SOL    HW190142   1.856   3.627  11.794
96103SOL    HW290143   1.808   3.639  11.937
96104SOL     OW90144   8.125  13.489  12.272
96104SOL    HW190145   8.195  13.506  12.335
96104SOL    HW290146   8.112  13.394  12.276
96105SOL     OW90147   6.687  11.749  12.561
96105SOL    HW190148   6.687  11.775  12.654
96105SOL    HW290149   6.690  11.653  12.563
96106SOL     OW90150   5.237   9.089   6.737
96106SOL    HW190151   5.187   9.151   6.684
96106SOL    HW290152   5.176   9.019   6.758
96107SOL     OW90153  11.966   0.553  13.116
96107SOL    HW190154  11.938   0.564  13.025
96107SOL    HW290155  11.981   0.459  13.125
96108SOL     OW90156   2.708   5.229  11.353
96108SOL    HW190157   2.652   5.153  11.370
96108SOL    HW290158   2.754   5.243  11.436
96109SOL     OW90159   8.199   7.690  14.002
96109SOL    HW190160   8.168   7.676  13.913
96109SOL    HW290161   8.289   7.655  14.002
96110SOL     OW90162   9.540   8.721   2.349
96110SOL    HW190163   9.517   8.805   2.389
96110SOL    HW290164   9.599   8.680   2.413
96111SOL     OW90165   0.108   1.310   8.027
96111SOL    HW190166   0.057   1.367   8.084
96111SOL    HW290167   0.044   1.249   7.991
96112SOL     OW90168  12.981  12.730   9.802
96112SOL    HW190169  12.957  12.751   9.711
96112SOL    HW290170  12.925  12.786   9.855
96113SOL     OW90171  12.382  11.198  12.657
96113SOL    HW190172  12.369  11.114  12.613
96113SOL    HW290173  12.328  11.260  12.608
96114SOL     OW90174   5.565  10.033  10.791
96114SOL    HW190175   5.647   9.995  10.822
96114SOL    HW290176   5.498   9.971  10.818
96115SOL     OW90177   9.787   5.183   4.210
96115SOL    HW190178   9.806   5.096   4.174
96115SOL    HW290179   9.864   5.235   4.190
96116SOL     OW90180   2.046  12.497   9.287
96116SOL    HW190181   2.053  12.408   9.254
96116SOL    HW290182   2.097  12.497   9.368
96117SOL     OW90183  13.365  12.413   7.392
96117SOL    HW190184  13.280  12.376   7.370
96117SOL    HW290185  13.370  12.407   7.488
96118SOL     OW90186   0.892  14.407   1.268
96118SOL    HW190187   0.855  14.445   1.347
96118SOL    HW290188   0.913  14.482   1.212
96119SOL     OW90189   6.845   7.117   9.010
96119SOL    HW190190   6.923   7.090   8.960
96119SOL    HW290191   6.783   7.046   8.996
96120SOL     OW90192   3.582   7.003   8.816
96120SOL    HW190193   3.620   6.927   8.771
96120SOL    HW290194   3.570   6.974   8.906
96121SOL     OW90195   5.154   6.396   2.258
96121SOL    HW190196   5.245   6.426   2.254
96121SOL    HW290197   5.114   6.431   2.178
96122SOL     OW90198  13.897  11.419   0.821
96122SOL    HW190199  13.834  11.460   0.881
96122SOL    HW290200  13.855  11.424   0.735
96123SOL     OW90201   1.439   9.234   3.702
96123SOL    HW190202   1.390   9.228   3.620
96123SOL    HW290203   1.386   9.292   3.757
96124SOL     OW90204  12.561   9.995   9.420
96124SOL    HW190205  12.488  10.012   9.361
96124SOL    HW290206  12.592   9.907   9.396
96125SOL     OW90207  13.793  14.735   8.499
96125SOL    HW190208  13.866  14.755   8.440
96125SOL    HW290209  13.785  14.639   8.494
96126SOL     OW90210   4.048  10.495  11.333
96126SOL    HW190211   4.091  10.554  11.271
96126SOL    HW290212   4.119  10.443  11.370
96127SOL     OW90213   9.164  13.335   7.784
96127SOL    HW190214   9.127  13.414   7.823
96127SOL    HW290215   9.095  13.301   7.726
96128SOL     OW90216   3.906   9.470   9.898
96128SOL    HW190217   3.835   9.445   9.840
96128SOL    HW290218   3.914   9.565   9.885
96129SOL     OW90219  12.363   2.879   3.140
96129SOL    HW190220  12.415   2.810   3.180
96129SOL    HW290221  12.366   2.859   3.046
96130SOL     OW90222   0.885  11.687  14.074
96130SOL    HW190223   0.849  11.690  13.985
96130SOL    HW290224   0.948  11.614  14.071
96131SOL     OW90225   9.112   0.683   7.407
96131SOL    HW190226   9.161   0.743   7.351
96131SOL    HW290227   9.110   0.727   7.492
96132SOL     OW90228  12.437   4.645  13.983
96132SOL    HW190229  12.420   4.690  13.901
96132SOL    HW290230  12.508   4.695  14.024
96133SOL     OW90231   1.721   8.252  14.093
96133SOL    HW190232   1.765   8.207  14.021
96133SOL    HW290233   1.751   8.207  14.172
96134SOL     OW90234   8.835  13.780   6.795
96134SOL    HW190235   8.913  13.723   6.799
96134SOL    HW290236   8.824  13.811   6.885
96135SOL     OW90237   1.647   1.503  11.598
96135SOL    HW190238   1.700   1.562  11.544
96135SOL    HW290239   1.569   1.486  11.546
96136SOL     OW90240  13.928   6.653  13.478
96136SOL    HW190241  13.869   6.726  13.460
96136SOL    HW290242  13.907   6.589  13.410
96137SOL     OW90243   3.996  14.592  11.031
96137SOL    HW190244   3.955  14.647  10.965
96137SOL    HW290245   3.925  14.564  11.088
96138SOL     OW90246   2.006  10.497   1.159
96138SOL    HW190247   1.960  10.450   1.090
96138SOL    HW290248   2.074  10.436   1.189
96139SOL     OW90249  11.796   0.404   6.854
96139SOL    HW190250  11.752   0.319   6.858
96139SOL    HW290251  11.873   0.388   6.800
96140SOL     OW90252  12.689   4.612   4.564
96140SOL    HW190253  12.663   4.535   4.614
96140SOL    HW290254  12.749   4.659   4.622
96141SOL     OW90255   4.949   4.475   6.505
96141SOL    HW190256   4.876   4.530   6.533
96141SOL    HW290257   5.027   4.523   6.534
96142SOL     OW90258   4.560  10.390   4.364
96142SOL    HW190259   4.474  10.413   4.326
96142SOL    HW290260   4.620  10.455   4.327
96143SOL     OW90261   6.659   7.034   7.885
96143SOL    HW190262   6.614   6.970   7.940
96143SOL    HW290263   6.737   7.057   7.934
96144SOL     OW90264   6.643   5.405   5.242
96144SOL    HW190265   6.569   5.380   5.297
96144SOL    HW290266   6.649   5.500   5.250
96145SOL     OW90267  10.250   9.973   2.541
96145SOL    HW190268  10.243   9.910   2.470
96145SOL    HW290269  10.327  10.026   2.519
96146SOL     OW90270   8.966  10.037  11.823
96146SOL    HW190271   8.993   9.947  11.810
96146SOL    HW290272   8.894  10.050  11.760
96147SOL     OW90273   7.610  10.748  14.674
96147SOL    HW190274   7.681  10.795  14.717
96147SOL    HW290275   7.653  10.677  14.626
96148SOL     OW90276   0.985   0.436  11.195
96148SOL    HW190277   1.035   0.431  11.276
96148SOL    HW290278   0.925   0.362  11.199
96149SOL     OW90279  12.207   6.801  12.816
96149SOL    HW190280  12.145   6.865  12.781
96149SOL    HW290281  12.245   6.843  12.893
96150SOL     OW90282  10.585   9.422   9.025
96150SOL    HW190283  10.536   9.487   8.973
96150SOL    HW290284  10.647   9.384   8.964
96151SOL     OW90285   5.887   1.675   2.526
96151SOL    HW190286   5.886   1.689   2.621
96151SOL    HW290287   5.795   1.655   2.504
96152SOL     OW90288  12.077   6.708  11.748
96152SOL    HW190289  12.109   6.630  11.792
96152SOL    HW290290  12.017   6.675  11.681
96153SOL     OW90291  10.139   7.636   6.345
96153SOL    HW190292  10.218   7.587   6.369
96153SOL    HW290293  10.153   7.724   6.381
96154SOL     OW90294   2.319  11.071  12.654
96154SOL    HW190295   2.290  10.991  12.609
96154SOL    HW290296   2.373  11.039  12.726
96155SOL     OW90297   1.351   5.704   9.298
96155SOL    HW190298   1.306   5.628   9.260
96155SOL    HW290299   1.418   5.666   9.355
96156SOL     OW90300   1.929   7.177   3.563
96156SOL    HW190301   1.848   7.141   3.600
96156SOL    HW290302   1.980   7.205   3.640
96157SOL     OW90303   4.799   7.583   3.006
96157SOL    HW190304   4.740   7.546   2.941
96157SOL    HW290305   4.753   7.659   3.040
96158SOL     OW90306  10.827  11.888  11.393
96158SOL    HW190307  10.922  11.884  11.379
96158SOL    HW290308  10.805  11.804  11.433
96159SOL     OW90309   8.506  10.935  11.512
96159SOL    HW190310   8.548  10.952  11.428
96159SOL    HW290311   8.571  10.959  11.578
96160SOL     OW90312  12.023  12.987   2.484
96160SOL    HW190313  11.957  13.025   2.542
96160SOL    HW290314  12.029  13.049   2.411
96161SOL     OW90315   1.064   5.977  10.013
96161SOL    HW190316   1.078   5.895  10.061
96161SOL    HW290317   1.117   5.968   9.934
96162SOL     OW90318   8.015   4.261  12.284
96162SOL    HW190319   8.096   4.310  12.299
96162SOL    HW290320   8.036   4.171  12.312
96163SOL     OW90321  11.338  11.409   1.516
96163SOL    HW190322  11.254  11.429   1.475
96163SOL    HW290323  11.324  11.429   1.609
96164SOL     OW90324   0.095  11.789   7.759
96164SOL    HW190325   0.021  11.773   7.700
96164SOL    HW290326   0.083  11.726   7.829
96165SOL     OW90327   6.147   3.963   2.936
96165SOL    HW190328   6.096   4.037   2.902
96165SOL    HW290329   6.215   3.949   2.870
96166SOL     OW90330   1.335   0.645  10.610
96166SOL    HW190331   1.250   0.650  10.566
96166SOL    HW290332   1.331   0.712  10.678
96167SOL     OW90333   3.160   0.351   5.247
96167SOL    HW190334   3.187   0.320   5.333
96167SOL    HW290335   3.085   0.296   5.224
96168SOL     OW90336  11.216   6.072  12.991
96168SOL    HW190337  11.201   6.159  12.955
96168SOL    HW290338  11.129   6.037  13.009
96169SOL     OW90339   6.560  11.319   2.992
96169SOL    HW190340   6.543  11.302   2.899
96169SOL    HW290341   6.476  11.349   3.027
96170SOL     OW90342   3.989   7.725   5.331
96170SOL    HW190343   3.983   7.821   5.326
96170SOL    HW290344   4.083   7.707   5.322
96171SOL     OW90345   6.369   0.596  10.214
96171SOL    HW190346   6.432   0.654  10.171
96171SOL    HW290347   6.301   0.580  10.149
96172SOL     OW90348  10.817   0.021  12.155
96172SOL    HW190349  10.783   0.084  12.091
96172SOL    HW290350  10.900   0.060  12.184
96173SOL     OW90351   7.777  13.630   5.476
96173SOL    HW190352   7.761  13.723   5.461
96173SOL    HW290353   7.717  13.606   5.547
96174SOL     OW90354   4.499   8.027   0.244
96174SOL    HW190355   4.515   7.947   0.294
96174SOL    HW290356   4.404   8.029   0.231
96175SOL     OW90357   7.062   5.540  11.719
96175SOL    HW190358   7.059   5.469  11.783
96175SOL    HW290359   7.014   5.506  11.643
96176SOL     OW90360  11.120   0.764   3.146
96176SOL    HW190361  11.111   0.689   3.206
96176SOL    HW290362  11.091   0.730   3.062
96177SOL     OW90363   2.130   4.170  10.577
96177SOL    HW190364   2.133   4.228  10.501
96177SOL    HW290365   2.054   4.201  10.627
96178SOL     OW90366  10.029   3.992  10.524
96178SOL    HW190367  10.039   4.038  10.608
96178SOL    HW290368  10.000   4.060  10.464
96179SOL     OW90369   3.031   5.129   7.119
96179SOL    HW190370   3.077   5.099   7.041
96179SOL    HW290371   3.042   5.224   7.118
96180SOL     OW90372   3.413   6.022  10.586
96180SOL    HW190373   3.324   6.024  10.622
96180SOL    HW290374   3.453   5.944  10.624
96181SOL     OW90375  10.270   5.461   3.027
96181SOL    HW190376  10.183   5.462   3.066
96181SOL    HW290377  10.329   5.441   3.100
96182SOL     OW90378  11.489   5.489   3.665
96182SOL    HW190379  11.513   5.526   3.580
96182SOL    HW290380  11.465   5.398   3.645
96183SOL     OW90381   5.243   1.326   5.616
96183SOL    HW190382   5.265   1.353   5.705
96183SOL    HW290383   5.149   1.310   5.619
96184SOL     OW90384   5.820   5.303   8.455
96184SOL    HW190385   5.745   5.249   8.430
96184SOL    HW290386   5.786   5.360   8.525
96185SOL     OW90387  10.458  13.716   1.480
96185SOL    HW190388  10.468  13.808   1.505
96185SOL    HW290389  10.542  13.676   1.502
96186SOL     OW90390  14.102  13.165   9.844
96186SOL    HW190391  14.178  13.222   9.835
96186SOL    HW290392  14.040  13.215   9.897
96187SOL     OW90393  11.647  14.488   2.454
96187SOL    HW190394  11.562  14.457   2.484
96187SOL    HW290395  11.682  14.415   2.401
96188SOL     OW90396   7.742  13.639   0.145
96188SOL    HW190397   7.785  13.703   0.088
96188SOL    HW290398   7.749  13.675   0.233
96189SOL     OW90399   2.244   7.559   1.566
96189SOL    HW190400   2.229   7.467   1.543
96189SOL    HW290401   2.169   7.583   1.620
96190SOL     OW90402   3.852   3.124   4.435
96190SOL    HW190403   3.778   3.179   4.461
96190SOL    HW290404   3.812   3.049   4.391
96191SOL     OW90405  11.996  13.337  12.118
96191SOL    HW190406  11.918  13.338  12.063
96191SOL    HW290407  12.069  13.339  12.057
96192SOL     OW90408   6.126   2.904   9.021
96192SOL    HW190409   6.039   2.915   9.059
96192SOL    HW290410   6.186   2.939   9.086
96193SOL     OW90411   7.830  13.211   4.779
96193SOL    HW190412   7.891  13.163   4.722
96193SOL    HW290413   7.818  13.295   4.735
96194SOL     OW90414  10.478   0.870  10.840
96194SOL    HW190415  10.411   0.937  10.852
96194SOL    HW290416  10.451   0.822  10.763
96195SOL     OW90417  13.990   3.906   8.368
96195SOL    HW190418  14.084   3.889   8.373
96195SOL    HW290419  13.950   3.819   8.370
96196SOL     OW90420  10.266  12.816  11.594
96196SOL    HW190421  10.351  12.804  11.551
96196SOL    HW290422  10.268  12.906  11.625
96197SOL     OW90423   1.329  12.581   7.124
96197SOL    HW190424   1.330  12.486   7.127
96197SOL    HW290425   1.275  12.602   7.048
96198SOL     OW90426   2.114  12.869   2.854
96198SOL    HW190427   2.055  12.894   2.783
96198SOL    HW290428   2.056  12.840   2.924
96199SOL     OW90429  10.744   1.550   1.290
96199SOL    HW190430  10.730   1.475   1.349
96199SOL    HW290431  10.663   1.556   1.239
96200SOL     OW90432   5.647   5.043  12.231
96200SOL    HW190433   5.616   5.089  12.154
96200SOL    HW290434   5.650   5.110  12.300
96201SOL     OW90435   2.392  12.057  11.869
96201SOL    HW190436   2.378  12.026  11.959
96201SOL    HW290437   2.482  12.033  11.849
96202SOL     OW90438   7.287   6.283  14.475
96202SOL    HW190439   7.324   6.296  14.387
96202SOL    HW290440   7.267   6.190  14.480
96203SOL     OW90441   9.389   6.750  12.613
96203SOL    HW190442   9.390   6.657  12.590
96203SOL    HW290443   9.296   6.773  12.617
96204SOL     OW90444   9.343   2.441   3.340
96204SOL    HW190445   9.317   2.474   3.254
96204SOL    HW290446   9.270   2.463   3.398
96205SOL     OW90447  14.000  10.265   6.478
96205SOL    HW190448  14.007  10.199   6.409
96205SOL    HW290449  13.949  10.336   6.440
96206SOL     OW90450  11.685   7.586   0.624
96206SOL    HW190451  11.626   7.517   0.656
96206SOL    HW290452  11.647   7.667   0.656
96207SOL     OW90453   3.183   4.389  13.987
96207SOL    HW190454   3.229   4.472  13.992
96207SOL    HW290455   3.187   4.354  14.077
96208SOL     OW90456  13.053   1.414   2.790
96208SOL    HW190457  13.078   1.327   2.758
96208SOL    HW290458  13.135   1.454   2.817
96209SOL     OW90459   9.877   9.834   8.592
96209SOL    HW190460   9.841   9.746   8.578
96209SOL    HW290461   9.882   9.871   8.504
96210SOL     OW90462   0.229   4.373   1.297
96210SOL    HW190463   0.248   4.362   1.204
96210SOL    HW290464   0.258   4.461   1.317
96211SOL     OW90465  14.740  12.964  11.599
96211SOL    HW190466  14.667  12.905  11.622
96211SOL    HW290467  14.713  13.004  11.517
96212SOL     OW90468   3.444   2.036   6.362
96212SOL    HW190469   3.530   2.005   6.388
96212SOL    HW290470   3.389   2.026   6.440
96213SOL     OW90471   9.597  12.847  13.833
96213SOL    HW190472   9.593  12.755  13.806
96213SOL    HW290473   9.672  12.850  13.894
96214SOL     OW90474   2.314   8.042   3.887
96214SOL    HW190475   2.283   8.087   3.809
96214SOL    HW290476   2.353   7.962   3.854
96215SOL     OW90477   2.459   8.297   5.988
96215SOL    HW190478   2.409   8.270   6.065
96215SOL    HW290479   2.393   8.308   5.919
96216SOL     OW90480  10.103   2.484   4.211
96216SOL    HW190481  10.016   2.502   4.176
96216SOL    HW290482  10.089   2.467   4.304
96217SOL     OW90483   1.298   4.105   5.740
96217SOL    HW190484   1.305   4.099   5.836
96217SOL    HW290485   1.389   4.109   5.710
96218SOL     OW90486   5.097  13.826   0.162
96218SOL    HW190487   5.010  13.852   0.130
96218SOL    HW290488   5.124  13.756   0.102
96219SOL     OW90489  10.007   9.667   3.839
96219SOL    HW190490   9.941   9.731   3.813
96219SOL    HW290491  10.090   9.715   3.831
96220SOL     OW90492   2.343   9.925   0.711
96220SOL    HW190493   2.391   9.896   0.789
96220SOL    HW290494   2.297  10.004   0.738
96221SOL     OW90495   4.640  11.645   5.768
96221SOL    HW190496   4.694  11.723   5.756
96221SOL    HW290497   4.698  11.572   5.746
96222SOL     OW90498   3.375  14.130   2.776
96222SOL    HW190499   3.288  14.153   2.807
96222SOL    HW290500   3.371  14.142   2.681
96223SOL     OW90501  12.816   7.116   1.013
96223SOL    HW190502  12.867   7.127   0.932
96223SOL    HW290503  12.867   7.053   1.064
96224SOL     OW90504  12.606   2.624   9.603
96224SOL    HW190505  12.535   2.608   9.665
96224SOL    HW290506  12.564   2.623   9.517
96225SOL     OW90507  12.833  13.445  13.039
96225SOL    HW190508  12.766  13.513  13.042
96225SOL    HW290509  12.859  13.441  12.947
96226SOL     OW90510  10.717   3.236   9.584
96226SOL    HW190511  10.732   3.142   9.598
96226SOL    HW290512  10.635   3.254   9.629
96227SOL     OW90513   8.473   9.086   8.782
96227SOL    HW190514   8.529   9.026   8.733
96227SOL    HW290515   8.473   9.167   8.731
96228SOL     OW90516   6.842  11.836   0.974
96228SOL    HW190517   6.852  11.876   1.060
96228SOL    HW290518   6.853  11.909   0.913
96229SOL     OW90519   2.312   3.111   7.075
96229SOL    HW190520   2.323   3.030   7.025
96229SOL    HW290521   2.378   3.106   7.144
96230SOL     OW90522   4.219  13.670   0.993
96230SOL    HW190523   4.188  13.597   1.047
96230SOL    HW290524   4.271  13.628   0.925
96231SOL     OW90525   4.632  11.580   9.834
96231SOL    HW190526   4.679  11.521   9.775
96231SOL    HW290527   4.679  11.663   9.827
96232SOL     OW90528  12.392   5.347  12.185
96232SOL    HW190529  12.462   5.407  12.158
96232SOL    HW290530  12.326   5.354  12.117
96233SOL     OW90531   2.414  12.527  14.138
96233SOL    HW190532   2.374  12.457  14.087
96233SOL    HW290533   2.436  12.594  14.074
96234SOL     OW90534  10.858   1.326   7.413
96234SOL    HW190535  10.952   1.321   7.425
96234SOL    HW290536  10.838   1.256   7.351
96235SOL     OW90537   7.432  10.122   6.957
96235SOL    HW190538   7.345  10.111   6.994
96235SOL    HW290539   7.461  10.208   6.988
96236SOL     OW90540  10.147  11.038   8.504
96236SOL    HW190541  10.177  10.968   8.446
96236SOL    HW290542  10.213  11.107   8.495
96237SOL     OW90543   0.429  12.105   1.670
96237SOL    HW190544   0.441  12.057   1.588
96237SOL    HW290545   0.474  12.052   1.736
96238SOL     OW90546   9.195   9.472  13.353
96238SOL    HW190547   9.215   9.404  13.289
96238SOL    HW290548   9.131   9.432  13.411
96239SOL     OW90549   5.429   0.352   4.856
96239SOL    HW190550   5.511   0.338   4.903
96239SOL    HW290551   5.415   0.270   4.808
96240SOL     OW90552   0.799   0.884   0.452
96240SOL    HW190553   0.834   0.802   0.420
96240SOL    HW290554   0.775   0.866   0.543
96241SOL     OW90555   8.292   8.642  13.649
96241SOL    HW190556   8.278   8.549  13.632
96241SOL    HW290557   8.385   8.649  13.671
96242SOL     OW90558   6.335   6.798  10.141
96242SOL    HW190559   6.373   6.876  10.100
96242SOL    HW290560   6.352   6.810  10.235
96243SOL     OW90561   9.164   8.885   1.993
96243SOL    HW190562   9.257   8.901   2.013
96243SOL    HW290563   9.127   8.858   2.077
96244SOL     OW90564   4.552   9.899  11.653
96244SOL    HW190565   4.474   9.950  11.676
96244SOL    HW290566   4.523   9.841  11.582
96245SOL     OW90567   6.779   9.248  13.913
96245SOL    HW190568   6.787   9.288  13.999
96245SOL    HW290569   6.795   9.155  13.929
96246SOL     OW90570   4.140   0.123   9.347
96246SOL    HW190571   4.098   0.131   9.433
96246SOL    HW290572   4.077   0.073   9.295
96247SOL     OW90573   6.782  10.909  10.549
96247SOL    HW190574   6.781  10.896  10.644
96247SOL    HW290575   6.792  10.821  10.513
96248SOL     OW90576  13.118   5.430   0.609
96248SOL    HW190577  13.177   5.402   0.539
96248SOL    HW290578  13.171   5.492   0.661
96249SOL     OW90579   7.841   5.445  12.486
96249SOL    HW190580   7.769   5.385  12.506
96249SOL    HW290581   7.890   5.451  12.568
96250SOL     OW90582   8.350   8.035   6.279
96250SOL    HW190583   8.276   8.077   6.323
96250SOL    HW290584   8.328   8.040   6.186
96251SOL     OW90585   2.763   2.219  12.239
96251SOL    HW190586   2.791   2.225  12.331
96251SOL    HW290587   2.670   2.243  12.241
96252SOL     OW90588   6.793  10.295  10.640
96252SOL    HW190589   6.715  10.282  10.585
96252SOL    HW290590   6.790  10.224  10.704
96253SOL     OW90591   9.104   2.061   2.960
96253SOL    HW190592   9.151   1.995   2.908
96253SOL    HW290593   9.156   2.070   3.040
96254SOL     OW90594   4.530  10.221   4.598
96254SOL    HW190595   4.544  10.287   4.531
96254SOL    HW290596   4.604  10.230   4.657
96255SOL     OW90597   8.083   2.566   3.136
96255SOL    HW190598   8.155   2.592   3.194
96255SOL    HW290599   8.006   2.564   3.193
96256SOL     OW90600   7.969   6.599   2.830
96256SOL    HW190601   7.960   6.663   2.900
96256SOL    HW290602   8.055   6.558   2.847
96257SOL     OW90603  14.685  10.133   9.326
96257SOL    HW190604  14.592  10.115   9.325
96257SOL    HW290605  14.710  10.128   9.418
96258SOL     OW90606   9.946   0.147   7.539
96258SOL    HW190607  10.013   0.105   7.486
96258SOL    HW290608   9.866   0.137   7.488
96259SOL     OW90609   6.360   0.299   9.499
96259SOL    HW190610   6.291   0.336   9.554
96259SOL    HW290611   6.411   0.245   9.558
96260SOL     OW90612   5.059   7.823  11.424
96260SOL    HW190613   5.132   7.855  11.372
96260SOL    HW290614   5.089   7.827  11.514
96261SOL     OW90615   0.283  14.233   8.492
96261SOL    HW190616   0.345  14.171   8.531
96261SOL    HW290617   0.339  14.297   8.447
96262SOL     OW90618  10.957   8.312   9.804
96262SOL    HW190619  11.020   8.245   9.776
96262SOL    HW290620  10.873   8.266   9.805
96263SOL     OW90621   4.228   7.583   2.405
96263SOL    HW190622   4.261   7.497   2.380
96263SOL    HW290623   4.274   7.644   2.347
96264SOL     OW90624   4.895  13.467   6.526
96264SOL    HW190625   4.959  13.402   6.555
96264SOL    HW290626   4.909  13.473   6.431
96265SOL     OW90627   2.329   8.556   8.725
96265SOL    HW190628   2.420   8.580   8.740
96265SOL    HW290629   2.280   8.610   8.787
96266SOL     OW90630   5.214  13.448   5.153
96266SOL    HW190631   5.185  13.483   5.068
96266SOL    HW290632   5.204  13.521   5.213
96267SOL     OW90633   8.122   5.303   9.657
96267SOL    HW190634   8.140   5.247   9.732
96267SOL    HW290635   8.209   5.329   9.625
96268SOL     OW90636  12.512   2.862   0.557
96268SOL    HW190637  12.576   2.933   0.562
96268SOL    HW290638  12.515   2.821   0.643
96269SOL     OW90639  12.472  11.909  14.820
96269SOL    HW190640  12.378  11.904  14.805
96269SOL    HW290641  12.484  11.987  14.874
96270SOL     OW90642  10.229   6.129  13.858
96270SOL    HW190643  10.252   6.121  13.951
96270SOL    HW290644  10.199   6.219  13.848
96271SOL     OW90645   4.752   9.708  13.802
96271SOL    HW190646   4.699   9.717  13.881
96271SOL    HW290647   4.806   9.631  13.817
96272SOL     OW90648  13.897  13.027  12.502
96272SOL    HW190649  13.853  12.966  12.561
96272SOL    HW290650  13.886  13.112  12.544
96273SOL     OW90651   2.091   1.191   7.765
96273SOL    HW190652   2.122   1.277   7.792
96273SOL    HW290653   2.160   1.157   7.708
96274SOL     OW90654  11.236   6.401   3.518
96274SOL    HW190655  11.157   6.357   3.549
96274SOL    HW290656  11.223   6.413   3.424
96275SOL     OW90657   1.850  14.834   3.238
96275SOL    HW190658   1.779  14.838   3.173
96275SOL    HW290659   1.829  14.758   3.292
96276SOL     OW90660   9.004  11.884   7.436
96276SOL    HW190661   9.089  11.919   7.463
96276SOL    HW290662   9.009  11.879   7.341
96277SOL     OW90663   4.512  11.811   0.084
96277SOL    HW190664   4.568  11.888   0.093
96277SOL    HW290665   4.427  11.841   0.116
96278SOL     OW90666  11.187   1.492   9.896
96278SOL    HW190667  11.262   1.467   9.950
96278SOL    HW290668  11.111   1.477   9.951
96279SOL     OW90669  12.384   0.013  12.965
96279SOL    HW190670  12.474   0.047  12.972
96279SOL    HW290671  12.328   0.087  12.988
96280SOL     OW90672  14.867   0.633  10.063
96280SOL    HW190673   0.052   0.581  10.111
96280SOL    HW290674  14.869   0.598   9.974
96281SOL     OW90675   5.003   0.115  11.770
96281SOL    HW190676   5.062   0.095  11.843
96281SOL    HW290677   5.047   0.079  11.694
96282SOL     OW90678  11.001   6.984   5.314
96282SOL    HW190679  11.025   7.019   5.400
96282SOL    HW290680  11.035   6.894   5.315
96283SOL     OW90681  13.749   7.510  12.528
96283SOL    HW190682  13.728   7.448  12.458
96283SOL    HW290683  13.844   7.519  12.525
96284SOL     OW90684   7.506   7.495  10.456
96284SOL    HW190685   7.495   7.521  10.364
96284SOL    HW290686   7.418   7.467  10.483
96285SOL     OW90687   9.074   7.008  14.850
96285SOL    HW190688   8.984   7.031  14.873
96285SOL    HW290689   9.074   6.912  14.848
96286SOL     OW90690  14.581   5.573  11.665
96286SOL    HW190691  14.527   5.574  11.744
96286SOL    HW290692  14.663   5.615  11.692
96287SOL     OW90693  10.594   2.497   2.456
96287SOL    HW190694  10.529   2.427   2.460
96287SOL    HW290695  10.676   2.455   2.478
96288SOL     OW90696   9.326   0.310   6.716
96288SOL    HW190697   9.352   0.392   6.757
96288SOL    HW290698   9.257   0.334   6.655
96289SOL     OW90699   0.328  13.596   3.355
96289SOL    HW190700   0.326  13.664   3.422
96289SOL    HW290701   0.420  13.568   3.352
96290SOL     OW90702   5.409   3.597   2.613
96290SOL    HW190703   5.418   3.610   2.707
96290SOL    HW290704   5.359   3.672   2.582
96291SOL     OW90705   3.085   0.343   2.823
96291SOL    HW190706   3.143   0.330   2.748
96291SOL    HW290707   2.998   0.319   2.790
96292SOL     OW90708   8.111   5.289   6.175
96292SOL    HW190709   8.054   5.212   6.174
96292SOL    HW290710   8.052   5.363   6.169
96293SOL     OW90711   0.649  10.357   5.008
96293SOL    HW190712   0.679  10.341   4.919
96293SOL    HW290713   0.726  10.392   5.053
96294SOL     OW90714  11.204   8.699   1.749
96294SOL    HW190715  11.260   8.769   1.718
96294SOL    HW290716  11.150   8.676   1.673
96295SOL     OW90717   6.065   3.861  14.767
96295SOL    HW190718   6.145   3.913  14.770
96295SOL    HW290719   6.039   3.853  14.858
96296SOL     OW90720   5.589   4.601   8.253
96296SOL    HW190721   5.578   4.570   8.163
96296SOL    HW290722   5.592   4.522   8.306
96297SOL     OW90723  13.773   2.867  14.318
96297SOL    HW190724  13.868   2.881  14.314
96297SOL    HW290725  13.737   2.929  14.255
96298SOL     OW90726  12.937   3.061   9.021
96298SOL    HW190727  12.921   2.976   9.062
96298SOL    HW290728  12.854   3.108   9.029
96299SOL     OW90729  11.338   7.828   7.675
96299SOL    HW190730  11.256   7.781   7.685
96299SOL    HW290731  11.316   7.920   7.693
96300SOL     OW90732   7.891   4.790   3.207
96300SOL    HW190733   7.809   4.744   3.221
96300SOL    HW290734   7.888   4.864   3.269
96301SOL     OW90735  10.399   2.229  11.043
96301SOL    HW190736  10.326   2.236  11.105
96301SOL    HW290737  10.435   2.318  11.039
96302SOL     OW90738  11.981  10.678   2.121
96302SOL    HW190739  11.921  10.657   2.192
96302SOL    HW290740  12.066  10.691   2.164
96303SOL     OW90741   8.068   6.856  14.007
96303SOL    HW190742   8.139   6.917  13.985
96303SOL    HW290743   8.071   6.849  14.103
96304SOL     OW90744  11.838   1.117   1.171
96304SOL    HW190745  11.872   1.063   1.242
96304SOL    HW290746  11.892   1.093   1.095
96305SOL     OW90747   7.569   1.283   7.926
96305SOL    HW190748   7.533   1.207   7.879
96305SOL    HW290749   7.663   1.267   7.927
96306SOL     OW90750   3.489   6.536   7.293
96306SOL    HW190751   3.519   6.588   7.219
96306SOL    HW290752   3.393   6.541   7.289
96307SOL     OW90753   9.422   5.692  14.350
96307SOL    HW190754   9.426   5.785  14.372
96307SOL    HW290755   9.403   5.648  14.433
96308SOL     OW90756   1.491   8.850   9.184
96308SOL    HW190757   1.499   8.868   9.091
96308SOL    HW290758   1.429   8.916   9.216
96309SOL     OW90759   4.808  14.261   9.989
96309SOL    HW190760   4.819  14.355   9.976
96309SOL    HW290761   4.727  14.253  10.041
96310SOL     OW90762  12.230   5.660   8.084
96310SOL    HW190763  12.186   5.594   8.030
96310SOL    HW290764  12.307   5.615   8.119
96311SOL     OW90765   1.580  12.660  12.295
96311SOL    HW190766   1.516  12.687  12.230
96311SOL    HW290767   1.665  12.684  12.257
96312SOL     OW90768   4.860   3.517   8.668
96312SOL    HW190769   4.825   3.579   8.732
96312SOL    HW290770   4.954   3.530   8.671
96313SOL     OW90771   3.518   2.008   9.963
96313SOL    HW190772   3.456   2.080   9.970
96313SOL    HW290773   3.589   2.042   9.908
96314SOL     OW90774  12.241  13.387   3.366
96314SOL    HW190775  12.227  13.344   3.282
96314SOL    HW290776  12.175  13.348   3.423
96315SOL     OW90777   4.663   3.071   5.970
96315SOL    HW190778   4.669   2.978   5.948
96315SOL    HW290779   4.572   3.082   6.000
96316SOL     OW90780   9.841   5.162   5.453
96316SOL    HW190781   9.868   5.253   5.441
96316SOL    HW290782   9.746   5.166   5.464
96317SOL     OW90783   3.094   7.711  11.131
96317SOL    HW190784   3.059   7.637  11.180
96317SOL    HW290785   3.138   7.671  11.055
96318SOL     OW90786   2.128  13.372   7.265
96318SOL    HW190787   2.219  13.342   7.273
96318SOL    HW290788   2.080  13.292   7.242
96319SOL     OW90789  13.384  13.326   3.849
96319SOL    HW190790  13.449  13.354   3.914
96319SOL    HW290791  13.339  13.407   3.823
96320SOL     OW90792  11.704  14.139  10.600
96320SOL    HW190793  11.668  14.105  10.681
96320SOL    HW290794  11.660  14.222  10.587
96321SOL     OW90795   4.554  14.513   3.482
96321SOL    HW190796   4.592  14.461   3.552
96321SOL    HW290797   4.474  14.466   3.457
96322SOL     OW90798  12.168   5.202  10.036
96322SOL    HW190799  12.232   5.179   9.969
96322SOL    HW290800  12.180   5.136  10.105
96323SOL     OW90801   6.396   8.890   9.139
96323SOL    HW190802   6.312   8.934   9.123
96323SOL    HW290803   6.376   8.823   9.204
96324SOL     OW90804  11.162  13.179   8.916
96324SOL    HW190805  11.197  13.264   8.892
96324SOL    HW290806  11.134  13.189   9.007
96325SOL     OW90807   6.071  11.773   3.438
96325SOL    HW190808   6.099  11.785   3.529
96325SOL    HW290809   6.148  11.796   3.386
96326SOL     OW90810   3.995  10.124  14.534
96326SOL    HW190811   3.913  10.164  14.564
96326SOL    HW290812   4.062  10.159  14.591
96327SOL     OW90813  14.354   0.467   6.077
96327SOL    HW190814  14.372   0.384   6.123
96327SOL    HW290815  14.372   0.448   5.985
96328SOL     OW90816   0.240   5.974   4.227
96328SOL    HW190817   0.259   6.038   4.159
96328SOL    HW290818   0.146   5.956   4.218
96329SOL     OW90819  12.463   7.364   8.006
96329SOL    HW190820  12.420   7.293   8.053
96329SOL    HW290821  12.419   7.443   8.037
96330SOL     OW90822   0.512   3.867  14.687
96330SOL    HW190823   0.561   3.788  14.709
96330SOL    HW290824   0.575   3.921  14.638
96331SOL     OW90825   9.683   7.389   0.464
96331SOL    HW190826   9.591   7.362   0.472
96331SOL    HW290827   9.732   7.307   0.468
96332SOL     OW90828   1.306   2.101  13.580
96332SOL    HW190829   1.355   2.178  13.606
96332SOL    HW290830   1.371   2.031  13.576
96333SOL     OW90831   6.399  14.362   2.836
96333SOL    HW190832   6.345  14.437   2.813
96333SOL    HW290833   6.374  14.342   2.926
96334SOL     OW90834   9.794  12.408   8.911
96334SOL    HW190835   9.809  12.351   8.835
96334SOL    HW290836   9.837  12.490   8.888
96335SOL     OW90837   7.368   8.173  12.029
96335SOL    HW190838   7.309   8.232  12.075
96335SOL    HW290839   7.420   8.231  11.972
96336SOL     OW90840   9.485   6.070   0.568
96336SOL    HW190841   9.487   6.014   0.491
96336SOL    HW290842   9.557   6.131   0.556
96337SOL     OW90843  10.779  10.140  10.315
96337SOL    HW190844  10.772  10.214  10.376
96337SOL    HW290845  10.800  10.181  10.231
96338SOL     OW90846   9.990  14.286  10.268
96338SOL    HW190847  10.020  14.238  10.345
96338SOL    HW290848   9.918  14.234  10.233
96339SOL     OW90849   7.192  11.701  11.890
96339SOL    HW190850   7.202  11.770  11.957
96339SOL    HW290851   7.132  11.638  11.930
96340SOL     OW90852   3.216   2.880  13.159
96340SOL    HW190853   3.194   2.818  13.228
96340SOL    HW290854   3.175   2.963  13.186
96341SOL     OW90855   1.517   7.931   1.338
96341SOL    HW190856   1.459   7.935   1.262
96341SOL    HW290857   1.475   7.867   1.396
96342SOL     OW90858   1.831  11.892   8.065
96342SOL    HW190859   1.919  11.899   8.103
96342SOL    HW290860   1.846  11.887   7.971
96343SOL     OW90861   1.008   4.817   0.884
96343SOL    HW190862   1.030   4.767   0.805
96343SOL    HW290863   1.049   4.768   0.955
96344SOL     OW90864  11.055   9.471  14.206
96344SOL    HW190865  11.086   9.547  14.254
96344SOL    HW290866  10.991   9.430  14.264
96345SOL     OW90867   8.363   0.117   6.693
96345SOL    HW190868   8.428   0.116   6.764
96345SOL    HW290869   8.397   0.055   6.629
96346SOL     OW90870   3.364   5.751   8.560
96346SOL    HW190871   3.321   5.837   8.566
96346SOL    HW290872   3.432   5.754   8.628
96347SOL     OW90873   1.494   4.178   3.064
96347SOL    HW190874   1.466   4.088   3.083
96347SOL    HW290875   1.516   4.215   3.149
96348SOL     OW90876   4.594  13.417   2.272
96348SOL    HW190877   4.514  13.392   2.316
96348SOL    HW290878   4.567  13.481   2.206
96349SOL     OW90879   0.875   6.639  13.802
96349SOL    HW190880   0.881   6.585  13.882
96349SOL    HW290881   0.781   6.646  13.786
96350SOL     OW90882   8.756  12.503  12.081
96350SOL    HW190883   8.706  12.556  12.142
96350SOL    HW290884   8.749  12.549  11.997
96351SOL     OW90885   9.235   0.278   6.991
96351SOL    HW190886   9.316   0.312   7.028
96351SOL    HW290887   9.257   0.256   6.900
96352SOL     OW90888   7.760   6.135   6.449
96352SOL    HW190889   7.801   6.220   6.466
96352SOL    HW290890   7.674   6.140   6.492
96353SOL     OW90891  14.648  14.221   2.222
96353SOL    HW190892  14.649  14.295   2.162
96353SOL    HW290893  14.564  14.225   2.266
96354SOL     OW90894   5.543  14.549   5.238
96354SOL    HW190895   5.632  14.534   5.207
96354SOL    HW290896   5.493  14.570   5.160
96355SOL     OW90897   3.800   2.564   3.664
96355SOL    HW190898   3.763   2.564   3.576
96355SOL    HW290899   3.885   2.523   3.654
96356SOL     OW90900   7.370  14.019  12.685
96356SOL    HW190901   7.382  13.938  12.635
96356SOL    HW290902   7.376  13.992  12.776
96357SOL     OW90903  12.364  12.481   8.549
96357SOL    HW190904  12.446  12.531   8.543
96357SOL    HW290905  12.306  12.536   8.601
96358SOL     OW90906   9.295  11.099   8.713
96358SOL    HW190907   9.349  11.029   8.748
96358SOL    HW290908   9.222  11.055   8.670
96359SOL     OW90909  13.572   2.692   1.138
96359SOL    HW190910  13.567   2.726   1.049
96359SOL    HW290911  13.539   2.764   1.193
96360SOL     OW90912  10.458  10.093   2.389
96360SOL    HW190913  10.460  10.142   2.472
96360SOL    HW290914  10.449  10.160   2.322
96361SOL     OW90915  13.762  12.527  14.740
96361SOL    HW190916  13.730  12.590  14.805
96361SOL    HW290917  13.824  12.577  14.687
96362SOL     OW90918   7.055   8.496   7.481
96362SOL    HW190919   7.056   8.551   7.402
96362SOL    HW290920   7.095   8.551   7.549
96363SOL     OW90921  14.057   6.959   0.339
96363SOL    HW190922  14.037   6.987   0.429
96363SOL    HW290923  14.024   7.029   0.284
96364SOL     OW90924   1.456   0.253  11.400
96364SOL    HW190925   1.527   0.305  11.437
96364SOL    HW290926   1.490   0.164  11.396
96365SOL     OW90927  11.488  11.586  13.146
96365SOL    HW190928  11.537  11.546  13.074
96365SOL    HW290929  11.553  11.637  13.194
96366SOL     OW90930   4.957  10.463   3.764
96366SOL    HW190931   4.994  10.537   3.813
96366SOL    HW290932   4.974  10.387   3.819
96367SOL     OW90933   9.037  12.042   5.182
96367SOL    HW190934   9.021  11.957   5.222
96367SOL    HW290935   9.120  12.071   5.220
96368SOL     OW90936  13.377  13.730  13.257
96368SOL    HW190937  13.314  13.795  13.225
96368SOL    HW290938  13.330  13.683  13.325
96369SOL     OW90939  12.353   4.020   7.075
96369SOL    HW190940  12.285   4.044   7.138
96369SOL    HW290941  12.435   4.044   7.118
96370SOL     OW90942   2.016   2.418  11.540
96370SOL    HW190943   2.043   2.423  11.448
96370SOL    HW290944   1.924   2.445  11.539
96371SOL     OW90945   7.431   1.657  12.695
96371SOL    HW190946   7.471   1.605  12.765
96371SOL    HW290947   7.370   1.597  12.652
96372SOL     OW90948   1.686   8.796   7.832
96372SOL    HW190949   1.604   8.770   7.872
96372SOL    HW290950   1.704   8.883   7.869
96373SOL     OW90951  13.300   0.115  12.972
96373SOL    HW190952  13.211   0.148  12.959
96373SOL    HW290953  13.322   0.074  12.888
96374SOL     OW90954  14.571   5.278   1.798
96374SOL    HW190955  14.613   5.315   1.876
96374SOL    HW290956  14.635   5.288   1.728
96375SOL     OW90957  14.061   5.029   1.464
96375SOL    HW190958  14.136   5.081   1.492
96375SOL    HW290959  14.083   5.001   1.375
96376SOL     OW90960   2.782   8.540   5.771
96376SOL    HW190961   2.788   8.444   5.771
96376SOL    HW290962   2.856   8.569   5.718
96377SOL     OW90963   1.487   5.325   9.210
96377SOL    HW190964   1.493   5.248   9.266
96377SOL    HW290965   1.519   5.295   9.125
96378SOL     OW90966  13.505   8.483   9.217
96378SOL    HW190967  13.462   8.505   9.300
96378SOL    HW290968  13.529   8.391   9.227
96379SOL     OW90969   4.197   5.999  13.664
96379SOL    HW190970   4.227   6.090  13.654
96379SOL    HW290971   4.199   5.983  13.758
96380SOL     OW90972   7.928   9.725   9.053
96380SOL    HW190973   7.836   9.750   9.062
96380SOL    HW290974   7.967   9.747   9.138
96381SOL     OW90975   8.448  11.563   9.241
96381SOL    HW190976   8.426  11.590   9.152
96381SOL    HW290977   8.514  11.495   9.229
96382SOL     OW90978   9.710  14.260   8.152
96382SOL    HW190979   9.788  14.303   8.118
96382SOL    HW290980   9.640  14.323   8.138
96383SOL     OW90981   6.132  14.852   4.137
96383SOL    HW190982   6.210   0.002   4.183
96383SOL    HW290983   6.066   0.040   4.157
96384SOL     OW90984   0.838   0.288   6.043
96384SOL    HW190985   0.932   0.308   6.046
96384SOL    HW290986   0.828   0.232   5.966
96385SOL     OW90987  14.313   1.846   8.377
96385SOL    HW190988  14.387   1.888   8.334
96385SOL    HW290989  14.298   1.765   8.328
96386SOL     OW90990   7.729   2.002  14.585
96386SOL    HW190991   7.748   1.951  14.506
96386SOL    HW290992   7.639   2.032  14.573
96387SOL     OW90993   7.763   9.691  11.842
96387SOL    HW190994   7.688   9.642  11.876
96387SOL    HW290995   7.736   9.720  11.755
96388SOL     OW90996   7.505   1.949  10.909
96388SOL    HW190997   7.464   2.034  10.896
96388SOL    HW290998   7.582   1.967  10.962
96389SOL     OW90999  12.366   9.377   4.050
96389SOL    HW191000  12.378   9.287   4.019
96389SOL    HW291001  12.374   9.370   4.145
96390SOL     OW91002   4.445  10.399   5.362
96390SOL    HW191003   4.541  10.396   5.356
96390SOL    HW291004   4.424  10.492   5.373
96391SOL     OW91005   1.909   0.338  11.504
96391SOL    HW191006   1.930   0.388  11.584
96391SOL    HW291007   1.993   0.330  11.459
96392SOL     OW91008  12.039   6.384  13.939
96392SOL    HW191009  12.031   6.399  13.845
96392SOL    HW291010  11.964   6.330  13.961
96393SOL     OW91011  14.481   4.185  13.335
96393SOL    HW191012  14.567   4.192  13.375
96393SOL    HW291013  14.437   4.267  13.357
96394SOL     OW91014   6.097   5.644  14.326
96394SOL    HW191015   6.074   5.614  14.238
96394SOL    HW291016   6.012   5.662  14.367
96395SOL     OW91017   5.922   8.786   3.531
96395SOL    HW191018   5.875   8.846   3.589
96395SOL    HW291019   5.998   8.758   3.582
96396SOL     OW91020   7.544   5.197   2.144
96396SOL    HW191021   7.616   5.135   2.135
96396SOL    HW291022   7.556   5.260   2.073
96397SOL     OW91023   7.830   2.568   9.047
96397SOL    HW191024   7.791   2.495   9.000
96397SOL    HW291025   7.821   2.643   8.987
96398SOL     OW91026   5.888   4.377  10.256
96398SOL    HW191027   5.867   4.343  10.169
96398SOL    HW291028   5.803   4.394  10.296
96399SOL     OW91029  12.481   9.397  13.934
96399SOL    HW191030  12.411   9.332  13.941
96399SOL    HW291031  12.561   9.345  13.925
96400SOL     OW91032   0.665   0.021  12.317
96400SOL    HW191033   0.636   0.102  12.359
96400SOL    HW291034   0.600   0.006  12.248
96401SOL     OW91035   3.959   2.617   0.482
96401SOL    HW191036   3.997   2.595   0.566
96401SOL    HW291037   4.026   2.668   0.437
96402SOL     OW91038   6.699  13.631   1.989
96402SOL    HW191039   6.720  13.644   2.082
96402SOL    HW291040   6.636  13.701   1.970
96403SOL     OW91041   8.083  10.716  11.108
96403SOL    HW191042   8.137  10.736  11.032
96403SOL    HW291043   8.087  10.796  11.162
96404SOL     OW91044  12.746  14.366   3.389
96404SOL    HW191045  12.652  14.387   3.394
96404SOL    HW291046  12.780  14.386   3.476
96405SOL     OW91047   3.211   3.471  10.793
96405SOL    HW191048   3.254   3.391  10.760
96405SOL    HW291049   3.276   3.540  10.779
96406SOL     OW91050   1.649   3.787   7.661
96406SOL    HW191051   1.724   3.731   7.682
96406SOL    HW291052   1.594   3.733   7.605
96407SOL     OW91053   1.819   2.039   3.491
96407SOL    HW191054   1.858   2.123   3.515
96407SOL    HW291055   1.843   2.028   3.399
96408SOL     OW91056   1.122   2.988   8.002
96408SOL    HW191057   1.028   3.003   8.009
96408SOL    HW291058   1.137   2.970   7.909
96409SOL     OW91059   2.142   2.700   7.904
96409SOL    HW191060   2.146   2.700   7.808
96409SOL    HW291061   2.201   2.629   7.931
96410SOL     OW91062   2.450   2.294  12.684
96410SOL    HW191063   2.406   2.267  12.603
96410SOL    HW291064   2.528   2.341  12.653
96411SOL     OW91065   4.699   5.712   6.083
96411SOL    HW191066   4.634   5.777   6.058
96411SOL    HW291067   4.772   5.763   6.118
96412SOL     OW91068   9.936  11.687   5.389
96412SOL    HW191069   9.903  11.616   5.334
96412SOL    HW291070   9.873  11.758   5.377
96413SOL     OW91071   8.470   7.990   9.578
96413SOL    HW191072   8.450   8.079   9.607
96413SOL    HW291073   8.558   7.997   9.541
96414SOL     OW91074   8.921  12.679   6.042
96414SOL    HW191075   8.898  12.712   5.955
96414SOL    HW291076   8.992  12.617   6.026
96415SOL     OW91077   2.891   6.969  14.235
96415SOL    HW191078   2.868   6.953  14.143
96415SOL    HW291079   2.983   6.994  14.233
96416SOL     OW91080   0.780   5.420   6.175
96416SOL    HW191081   0.820   5.412   6.261
96416SOL    HW291082   0.771   5.514   6.160
96417SOL     OW91083  13.558  13.571  10.557
96417SOL    HW191084  13.613  13.618  10.619
96417SOL    HW291085  13.492  13.635  10.530
96418SOL     OW91086  12.937  11.358   1.152
96418SOL    HW191087  13.021  11.319   1.130
96418SOL    HW291088  12.882  11.285   1.179
96419SOL     OW91089   2.814  13.585   1.515
96419SOL    HW191090   2.721  13.606   1.503
96419SOL    HW291091   2.860  13.646   1.457
96420SOL     OW91092  14.557   9.669  13.961
96420SOL    HW191093  14.642   9.649  14.001
96420SOL    HW291094  14.556   9.765  13.955
96421SOL     OW91095  10.053   1.439   2.845
96421SOL    HW191096   9.979   1.378   2.853
96421SOL    HW291097  10.105   1.403   2.772
96422SOL     OW91098   9.904   1.742  11.716
96422SOL    HW191099   9.875   1.766  11.628
96422SOL    HW291100   9.884   1.818  11.770
96423SOL     OW91101   3.265  12.900  14.431
96423SOL    HW191102   3.260  12.959  14.506
96423SOL    HW291103   3.174  12.881  14.409
96424SOL     OW91104   7.272  13.777  14.126
96424SOL    HW191105   7.257  13.808  14.037
96424SOL    HW291106   7.365  13.793  14.142
96425SOL     OW91107   0.938   9.151   1.003
96425SOL    HW191108   1.000   9.115   1.066
96425SOL    HW291109   0.880   9.078   0.982
96426SOL     OW91110  13.787   6.428   9.748
96426SOL    HW191111  13.865   6.448   9.697
96426SOL    HW291112  13.727   6.501   9.731
96427SOL     OW91113   9.536   1.591  13.709
96427SOL    HW191114   9.515   1.684  13.707
96427SOL    HW291115   9.590   1.580  13.787
96428SOL     OW91116   1.239  10.236   7.023
96428SOL    HW191117   1.176  10.223   7.094
96428SOL    HW291118   1.212  10.172   6.956
96429SOL     OW91119  14.632   7.932   6.520
96429SOL    HW191120  14.566   7.977   6.467
96429SOL    HW291121  14.705   7.918   6.460
96430SOL     OW91122   1.744   2.907  14.044
96430SOL    HW191123   1.669   2.922  13.985
96430SOL    HW291124   1.714   2.940  14.129
96431SOL     OW91125  13.793   1.940   6.207
96431SOL    HW191126  13.793   1.938   6.112
96431SOL    HW291127  13.867   1.885   6.232
96432SOL     OW91128  10.002   6.747   2.704
96432SOL    HW191129  10.002   6.664   2.655
96432SOL    HW291130  10.046   6.809   2.646
96433SOL     OW91131  14.226   6.504   8.118
96433SOL    HW191132  14.147   6.534   8.073
96433SOL    HW291133  14.193   6.444   8.185
96434SOL     OW91134   6.884  12.511   2.440
96434SOL    HW191135   6.958  12.570   2.428
96434SOL    HW291136   6.828  12.556   2.504
96435SOL     OW91137  14.815   8.164  10.767
96435SOL    HW191138  14.783   8.255  10.767
96435SOL    HW291139   0.031   8.172  10.774
96436SOL     OW91140   6.756   3.215   4.226
96436SOL    HW191141   6.756   3.146   4.292
96436SOL    HW291142   6.743   3.169   4.143
96437SOL     OW91143   5.178   8.783   2.265
96437SOL    HW191144   5.221   8.795   2.181
96437SOL    HW291145   5.237   8.726   2.315
96438SOL     OW91146   7.709   7.772   1.632
96438SOL    HW191147   7.801   7.770   1.660
96438SOL    HW291148   7.685   7.865   1.638
96439SOL     OW91149   1.720   6.974   8.741
96439SOL    HW191150   1.687   7.006   8.825
96439SOL    HW291151   1.714   7.049   8.682
96440SOL     OW91152   3.968   5.971   1.249
96440SOL    HW191153   3.984   5.882   1.215
96440SOL    HW291154   4.006   6.029   1.182
96441SOL     OW91155   2.427   4.925   5.920
96441SOL    HW191156   2.495   4.862   5.945
96441SOL    HW291157   2.410   4.975   6.000
96442SOL     OW91158   7.961   8.113   1.881
96442SOL    HW191159   8.046   8.156   1.873
96442SOL    HW291160   7.940   8.117   1.974
96443SOL     OW91161  12.040   5.426   2.872
96443SOL    HW191162  12.058   5.511   2.832
96443SOL    HW291163  11.961   5.440   2.924
96444SOL     OW91164   6.321   0.377  13.627
96444SOL    HW191165   6.389   0.415  13.572
96444SOL    HW291166   6.279   0.312  13.571
96445SOL     OW91167   7.146   6.173   1.289
96445SOL    HW191168   7.197   6.167   1.208
96445SOL    HW291169   7.209   6.154   1.358
96446SOL     OW91170  10.788  13.776   7.985
96446SOL    HW191171  10.694  13.759   7.996
96446SOL    HW291172  10.794  13.826   7.904
96447SOL     OW91173  10.595   3.361   0.677
96447SOL    HW191174  10.586   3.457   0.674
96447SOL    HW291175  10.580   3.339   0.768
96448SOL     OW91176  12.405   5.451   3.696
96448SOL    HW191177  12.411   5.356   3.708
96448SOL    HW291178  12.434   5.465   3.605
96449SOL     OW91179   7.464  10.581   2.342
96449SOL    HW191180   7.499  10.493   2.326
96449SOL    HW291181   7.415  10.602   2.262
96450SOL     OW91182   3.702  12.910   2.924
96450SOL    HW191183   3.779  12.854   2.909
96450SOL    HW291184   3.735  12.999   2.915
96451SOL     OW91185   0.752  10.531   4.644
96451SOL    HW191186   0.758  10.560   4.553
96451SOL    HW291187   0.791  10.444   4.644
96452SOL     OW91188   2.993   3.404  14.003
96452SOL    HW191189   3.044   3.462  13.947
96452SOL    HW291190   2.918   3.378  13.949
96453SOL     OW91191   0.439  12.218   4.704
96453SOL    HW191192   0.357  12.207   4.753
96453SOL    HW291193   0.411  12.225   4.613
96454SOL     OW91194   3.291   1.594  14.051
96454SOL    HW191195   3.322   1.520  14.104
96454SOL    HW291196   3.199   1.575  14.034
96455SOL     OW91197   1.262   4.705   1.481
96455SOL    HW191198   1.261   4.620   1.438
96455SOL    HW291199   1.221   4.689   1.566
96456SOL     OW91200  10.498   7.343   7.398
96456SOL    HW191201  10.455   7.423   7.428
96456SOL    HW291202  10.563   7.373   7.335
96457SOL     OW91203   8.577   4.204   0.210
96457SOL    HW191204   8.609   4.293   0.218
96457SOL    HW291205   8.498   4.202   0.265
96458SOL     OW91206  12.776   5.114   0.561
96458SOL    HW191207  12.689   5.099   0.526
96458SOL    HW291208  12.777   5.066   0.643
96459SOL     OW91209  11.175  12.909   9.923
96459SOL    HW191210  11.232  12.897   9.848
96459SOL    HW291211  11.117  12.833   9.923
96460SOL     OW91212   5.558  13.944   6.306
96460SOL    HW191213   5.570  13.954   6.400
96460SOL    HW291214   5.592  13.857   6.286
96461SOL     OW91215   5.869   0.426   5.497
96461SOL    HW191216   5.939   0.487   5.520
96461SOL    HW291217   5.822   0.410   5.579
96462SOL     OW91218   0.858   1.694  14.272
96462SOL    HW191219   0.941   1.740  14.284
96462SOL    HW291220   0.793   1.764  14.264
96463SOL     OW91221  11.605  11.310  12.189
96463SOL    HW191222  11.624  11.217  12.178
96463SOL    HW291223  11.671  11.355  12.136
96464SOL     OW91224  11.134   4.898   5.044
96464SOL    HW191225  11.072   4.907   4.971
96464SOL    HW291226  11.128   4.981   5.091
96465SOL     OW91227   2.604   2.566  14.818
96465SOL    HW191228   2.690   2.599  14.841
96465SOL    HW291229   2.585   2.500   0.006
96466SOL     OW91230  13.673   6.859  11.046
96466SOL    HW191231  13.733   6.835  11.117
96466SOL    HW291232  13.670   6.781  10.990
96467SOL     OW91233   9.245   2.253  10.954
96467SOL    HW191234   9.265   2.310  10.880
96467SOL    HW291235   9.229   2.313  11.027
96468SOL     OW91236   9.753  10.929   9.944
96468SOL    HW191237   9.728  10.999   9.883
96468SOL    HW291238   9.717  10.957  10.029
96469SOL     OW91239   2.129   3.686   1.590
96469SOL    HW191240   2.199   3.753   1.589
96469SOL    HW291241   2.055   3.729   1.547
96470SOL     OW91242  11.148   6.149   5.757
96470SOL    HW191243  11.080   6.096   5.799
96470SOL    HW291244  11.229   6.121   5.800
96471SOL     OW91245  11.788   8.974  11.081
96471SOL    HW191246  11.753   8.899  11.128
96471SOL    HW291247  11.806   9.039  11.149
96472SOL     OW91248   3.014  10.753   1.767
96472SOL    HW191249   2.935  10.806   1.775
96472SOL    HW291250   3.075  10.789   1.832
96473SOL     OW91251  10.279  10.134   8.316
96473SOL    HW191252  10.222  10.152   8.390
96473SOL    HW291253  10.220  10.102   8.247
96474SOL     OW91254   6.416   7.066   6.727
96474SOL    HW191255   6.497   7.075   6.678
96474SOL    HW291256   6.403   7.151   6.769
96475SOL     OW91257   9.487   4.441   2.233
96475SOL    HW191258   9.540   4.517   2.257
96475SOL    HW291259   9.461   4.458   2.142
96476SOL     OW91260  12.364   1.693   8.154
96476SOL    HW191261  12.424   1.753   8.110
96476SOL    HW291262  12.332   1.743   8.230
96477SOL     OW91263  11.660   0.916   9.350
96477SOL    HW191264  11.568   0.937   9.331
96477SOL    HW291265  11.698   0.896   9.264
96478SOL     OW91266  12.209   8.240  11.231
96478SOL    HW191267  12.236   8.180  11.162
96478SOL    HW291268  12.203   8.186  11.309
96479SOL     OW91269   2.366   5.424  14.032
96479SOL    HW191270   2.282   5.403  14.073
96479SOL    HW291271   2.359   5.387  13.944
96480SOL     OW91272  11.562   8.874  13.709
96480SOL    HW191273  11.590   8.964  13.693
96480SOL    HW291274  11.601   8.824  13.638
96481SOL     OW91275   4.697   7.008   6.017
96481SOL    HW191276   4.715   6.951   5.942
96481SOL    HW291277   4.653   6.950   6.080
96482SOL     OW91278   0.064  14.165  12.605
96482SOL    HW191279   0.107  14.092  12.560
96482SOL    HW291280  14.865  14.126  12.644
96483SOL     OW91281  10.806   1.277   6.767
96483SOL    HW191282  10.790   1.313   6.854
96483SOL    HW291283  10.900   1.258   6.765
96484SOL     OW91284  13.192   1.718   1.445
96484SOL    HW191285  13.162   1.639   1.400
96484SOL    HW291286  13.121   1.740   1.505
96485SOL     OW91287  10.915  10.035   2.460
96485SOL    HW191288  10.869  10.009   2.540
96485SOL    HW291289  10.921  10.131   2.465
96486SOL     OW91290  14.692   9.056   1.614
96486SOL    HW191291  14.679   8.976   1.665
96486SOL    HW291292  14.642   9.041   1.534
96487SOL     OW91293  12.725   6.227   5.979
96487SOL    HW191294  12.652   6.258   5.925
96487SOL    HW291295  12.740   6.137   5.951
96488SOL     OW91296   0.284   3.046   1.919
96488SOL    HW191297   0.280   2.951   1.913
96488SOL    HW291298   0.283   3.076   1.828
96489SOL     OW91299   1.982   8.512   7.809
96489SOL    HW191300   1.909   8.543   7.755
96489SOL    HW291301   1.972   8.416   7.810
96490SOL     OW91302  12.169   4.638   2.983
96490SOL    HW191303  12.177   4.722   3.028
96490SOL    HW291304  12.241   4.637   2.920
96491SOL     OW91305  12.169   9.220   5.207
96491SOL    HW191306  12.104   9.278   5.167
96491SOL    HW291307  12.133   9.132   5.194
96492SOL     OW91308   6.289   8.526   0.284
96492SOL    HW191309   6.382   8.536   0.264
96492SOL    HW291310   6.287   8.498   0.375
96493SOL     OW91311   4.464  12.135  14.796
96493SOL    HW191312   4.384  12.186  14.784
96493SOL    HW291313   4.493  12.112  14.708
96494SOL     OW91314   0.319   0.186  12.670
96494SOL    HW191315   0.225   0.175  12.674
96494SOL    HW291316   0.334   0.231  12.586
96495SOL     OW91317   5.847  13.210   6.282
96495SOL    HW191318   5.916  13.220   6.347
96495SOL    HW291319   5.866  13.127   6.238
96496SOL     OW91320  14.098   6.426   8.815
96496SOL    HW191321  14.140   6.379   8.743
96496SOL    HW291322  14.009   6.391   8.818
96497SOL     OW91323  11.073  10.447   8.842
96497SOL    HW191324  11.032  10.361   8.826
96497SOL    HW291325  11.057  10.463   8.935
96498SOL     OW91326   9.749   3.626   8.637
96498SOL    HW191327   9.783   3.585   8.557
96498SOL    HW291328   9.660   3.592   8.645
96499SOL     OW91329   8.286  11.418  12.665
96499SOL    HW191330   8.213  11.453  12.716
96499SOL    HW291331   8.286  11.324  12.684
96500SOL     OW91332   2.450   9.120  12.175
96500SOL    HW191333   2.484   9.097  12.261
96500SOL    HW291334   2.476   9.048  12.119
96501SOL     OW91335   1.147   8.836   4.400
96501SOL    HW191336   1.111   8.869   4.318
96501SOL    HW291337   1.125   8.903   4.464
96502SOL     OW91338   7.839   3.728  12.602
96502SOL    HW191339   7.917   3.778  12.578
96502SOL    HW291340   7.873   3.645  12.636
96503SOL     OW91341   3.081   9.781   2.717
96503SOL    HW191342   3.016   9.720   2.682
96503SOL    HW291343   3.032   9.861   2.734
96504SOL     OW91344   2.193   8.848  12.881
96504SOL    HW191345   2.285   8.871  12.875
96504SOL    HW291346   2.168   8.874  12.970
96505SOL     OW91347   4.268  12.861   3.528
96505SOL    HW191348   4.188  12.846   3.579
96505SOL    HW291349   4.327  12.790   3.554
96506SOL     OW91350   4.737   3.900   7.821
96506SOL    HW191351   4.752   3.995   7.819
96506SOL    HW291352   4.739   3.874   7.729
96507SOL     OW91353  13.992   8.715   4.817
96507SOL    HW191354  13.997   8.639   4.759
96507SOL    HW291355  13.979   8.790   4.759
96508SOL     OW91356  12.052   5.950  14.669
96508SOL    HW191357  12.038   6.002  14.748
96508SOL    HW291358  12.083   6.012  14.604
96509SOL     OW91359   3.256   1.593   1.985
96509SOL    HW191360   3.285   1.684   1.983
96509SOL    HW291361   3.161   1.599   1.996
96510SOL     OW91362   6.624   5.180   5.867
96510SOL    HW191363   6.582   5.203   5.950
96510SOL    HW291364   6.678   5.256   5.845
96511SOL     OW91365  10.743  11.282   9.745
96511SOL    HW191366  10.659  11.239   9.764
96511SOL    HW291367  10.809  11.219   9.773
96512SOL     OW91368   0.240   4.931   6.488
96512SOL    HW191369   0.332   4.927   6.515
96512SOL    HW291370   0.238   5.000   6.422
96513SOL     OW91371   9.171  13.957  12.498
96513SOL    HW191372   9.262  13.933  12.480
96513SOL    HW291373   9.159  13.934  12.590
96514SOL     OW91374   2.413   4.824  11.833
96514SOL    HW191375   2.480   4.888  11.814
96514SOL    HW291376   2.409   4.769  11.754
96515SOL     OW91377  14.409  11.280   2.260
96515SOL    HW191378  14.433  11.271   2.352
96515SOL    HW291379  14.368  11.366   2.254
96516SOL     OW91380   8.450   7.124  11.995
96516SOL    HW191381   8.412   7.064  11.931
96516SOL    HW291382   8.531   7.155  11.954
96517SOL     OW91383  10.650  13.374   6.906
96517SOL    HW191384  10.711  13.417   6.966
96517SOL    HW291385  10.578  13.435   6.896
96518SOL     OW91386   9.436   7.788   5.022
96518SOL    HW191387   9.379   7.767   5.095
96518SOL    HW291388   9.379   7.789   4.946
96519SOL     OW91389   9.210  12.496   0.364
96519SOL    HW191390   9.299  12.494   0.329
96519SOL    HW291391   9.170  12.414   0.335
96520SOL     OW91392   9.510  10.200   1.105
96520SOL    HW191393   9.534  10.141   1.176
96520SOL    HW291394   9.574  10.183   1.036
96521SOL     OW91395   6.420   5.318   4.455
96521SOL    HW191396   6.510   5.297   4.430
96521SOL    HW291397   6.383   5.359   4.377
96522SOL     OW91398   8.498   4.413   9.094
96522SOL    HW191399   8.408   4.440   9.114
96522SOL    HW291400   8.513   4.335   9.148
96523SOL     OW91401   8.814   6.148   7.998
96523SOL    HW191402   8.730   6.188   8.018
96523SOL    HW291403   8.851   6.126   8.083
96524SOL     OW91404   9.684   4.114  13.186
96524SOL    HW191405   9.604   4.151  13.149
96524SOL    HW291406   9.743   4.189  13.195
96525SOL     OW91407   9.820   3.441   2.305
96525SOL    HW191408   9.731   3.463   2.335
96525SOL    HW291409   9.861   3.525   2.288
96526SOL     OW91410   9.790   4.273   3.640
96526SOL    HW191411   9.852   4.302   3.708
96526SOL    HW291412   9.846   4.240   3.570
96527SOL     OW91413   0.813   7.406   5.165
96527SOL    HW191414   0.785   7.464   5.236
96527SOL    HW291415   0.745   7.339   5.160
96528SOL     OW91416  13.245  14.525   1.556
96528SOL    HW191417  13.152  14.524   1.578
96528SOL    HW291418  13.270  14.617   1.557
96529SOL     OW91419   0.860   9.731   9.980
96529SOL    HW191420   0.781   9.783   9.989
96529SOL    HW291421   0.829   9.642   9.960
96530SOL     OW91422  10.350  13.864   6.540
96530SOL    HW191423  10.345  13.786   6.486
96530SOL    HW291424  10.413  13.920   6.495
96531SOL     OW91425   9.776   0.419   9.364
96531SOL    HW191426   9.703   0.376   9.320
96531SOL    HW291427   9.843   0.426   9.297
96532SOL     OW91428   5.929   6.022   7.710
96532SOL    HW191429   5.930   5.932   7.743
96532SOL    HW291430   5.882   6.071   7.778
96533SOL     OW91431   9.524   8.679  10.911
96533SOL    HW191432   9.475   8.611  10.865
96533SOL    HW291433   9.594   8.632  10.955
96534SOL     OW91434   2.792   4.200  10.849
96534SOL    HW191435   2.857   4.148  10.803
96534SOL    HW291436   2.795   4.168  10.940
96535SOL     OW91437  11.416   4.434   7.463
96535SOL    HW191438  11.441   4.467   7.377
96535SOL    HW291439  11.386   4.511   7.511
96536SOL     OW91440   8.582   1.468   7.254
96536SOL    HW191441   8.579   1.383   7.298
96536SOL    HW291442   8.500   1.511   7.279
96537SOL     OW91443   7.914   8.519   2.582
96537SOL    HW191444   7.841   8.561   2.626
96537SOL    HW291445   7.936   8.577   2.509
96538SOL     OW91446   1.658  10.286   0.779
96538SOL    HW191447   1.594  10.303   0.848
96538SOL    HW291448   1.666  10.191   0.777
96539SOL     OW91449   9.581   9.076   4.322
96539SOL    HW191450   9.522   9.121   4.382
96539SOL    HW291451   9.668   9.093   4.358
96540SOL     OW91452   1.628   2.092   4.363
96540SOL    HW191453   1.538   2.069   4.341
96540SOL    HW291454   1.644   2.174   4.317
96541SOL     OW91455   8.014   4.108   1.041
96541SOL    HW191456   8.058   4.190   1.064
96541SOL    HW291457   8.067   4.040   1.083
96542SOL     OW91458   1.902  14.809  12.441
96542SOL    HW191459   1.855  14.776  12.517
96542SOL    HW291460   1.837  14.810  12.371
96543SOL     OW91461   8.222  11.446   1.960
96543SOL    HW191462   8.202  11.466   2.051
96543SOL    HW291463   8.149  11.393   1.930
96544SOL     OW91464   8.663   0.910  14.669
96544SOL    HW191465   8.611   0.837  14.633
96544SOL    HW291466   8.663   0.976  14.600
96545SOL     OW91467   2.118  12.363  14.860
96545SOL    HW191468   2.085  12.333  14.775
96545SOL    HW291469   2.048  12.417   0.017
96546SOL     OW91470   7.432   5.752  10.651
96546SOL    HW191471   7.360   5.783  10.705
96546SOL    HW291472   7.473   5.832  10.618
96547SOL     OW91473   0.437  13.523  13.501
96547SOL    HW191474   0.410  13.599  13.449
96547SOL    HW291475   0.490  13.471  13.441
96548SOL     OW91476   9.420   9.268   4.450
96548SOL    HW191477   9.420   9.230   4.538
96548SOL    HW291478   9.336   9.241   4.412
96549SOL     OW91479   8.493  10.462   2.074
96549SOL    HW191480   8.540  10.452   1.992
96549SOL    HW291481   8.493  10.374   2.113
96550SOL     OW91482   7.317   9.113   7.472
96550SOL    HW191483   7.260   9.041   7.442
96550SOL    HW291484   7.383   9.069   7.526
96551SOL     OW91485   3.268  13.880  10.409
96551SOL    HW191486   3.186  13.912  10.447
96551SOL    HW291487   3.265  13.786  10.421
96552SOL     OW91488  13.304   5.572   7.826
96552SOL    HW191489  13.353   5.545   7.904
96552SOL    HW291490  13.251   5.495   7.804
96553SOL     OW91491   2.420  10.843   3.972
96553SOL    HW191492   2.362  10.769   3.953
96553SOL    HW291493   2.435  10.885   3.887
96554SOL     OW91494   8.211   1.274   1.068
96554SOL    HW191495   8.198   1.356   1.020
96554SOL    HW291496   8.124   1.252   1.102
96555SOL     OW91497   6.870   0.663   2.483
96555SOL    HW191498   6.958   0.677   2.520
96555SOL    HW291499   6.885   0.611   2.405
96556SOL     OW91500   8.698  11.388   4.908
96556SOL    HW191501   8.766  11.431   4.857
96556SOL    HW291502   8.705  11.295   4.886
96557SOL     OW91503   7.568   0.983   5.404
96557SOL    HW191504   7.499   1.044   5.379
96557SOL    HW291505   7.535   0.942   5.484
96558SOL     OW91506   2.589   0.696  13.867
96558SOL    HW191507   2.552   0.677  13.953
96558SOL    HW291508   2.521   0.669  13.805
96559SOL     OW91509  13.914   9.728   7.737
96559SOL    HW191510  13.862   9.650   7.719
96559SOL    HW291511  14.005   9.696   7.739
96560SOL     OW91512   0.768  13.145  14.811
96560SOL    HW191513   0.831  13.167  14.742
96560SOL    HW291514   0.755  13.051  14.802
96561SOL     OW91515  14.468   6.715  11.383
96561SOL    HW191516  14.519   6.703  11.463
96561SOL    HW291517  14.517   6.780  11.333
96562SOL     OW91518   1.721  11.824   0.778
96562SOL    HW191519   1.674  11.754   0.731
96562SOL    HW291520   1.809  11.822   0.742
96563SOL     OW91521   3.504   3.577   4.475
96563SOL    HW191522   3.552   3.631   4.537
96563SOL    HW291523   3.455   3.639   4.422
96564SOL     OW91524   4.265   6.388   8.561
96564SOL    HW191525   4.220   6.309   8.592
96564SOL    HW291526   4.204   6.459   8.580
96565SOL     OW91527  11.156   3.588   5.633
96565SOL    HW191528  11.066   3.597   5.662
96565SOL    HW291529  11.206   3.571   5.713
96566SOL     OW91530   9.346  13.130  13.469
96566SOL    HW191531   9.389  13.128  13.554
96566SOL    HW291532   9.372  13.213  13.430
96567SOL     OW91533  13.566   4.409  13.120
96567SOL    HW191534  13.614   4.332  13.148
96567SOL    HW291535  13.571   4.469  13.194
96568SOL     OW91536   4.469   6.580  12.084
96568SOL    HW191537   4.559   6.549  12.091
96568SOL    HW291538   4.457   6.635  12.161
96569SOL     OW91539  10.609   3.488   6.156
96569SOL    HW191540  10.595   3.403   6.199
96569SOL    HW291541  10.670   3.534   6.213
96570SOL     OW91542   2.146  14.225   3.320
96570SOL    HW191543   2.059  14.190   3.333
96570SOL    HW291544   2.173  14.192   3.235
96571SOL     OW91545   4.164  10.150   9.706
96571SOL    HW191546   4.160  10.244   9.726
96571SOL    HW291547   4.255  10.125   9.721
96572SOL     OW91548   8.496  13.840   7.495
96572SOL    HW191549   8.479  13.857   7.403
96572SOL    HW291550   8.492  13.927   7.536
96573SOL     OW91551   7.155   4.946   8.821
96573SOL    HW191552   7.135   4.943   8.915
96573SOL    HW291553   7.098   4.879   8.782
96574SOL     OW91554   5.174  13.572   0.325
96574SOL    HW191555   5.162  13.642   0.261
96574SOL    HW291556   5.148  13.493   0.278
96575SOL     OW91557   1.667  12.118   0.765
96575SOL    HW191558   1.623  12.135   0.681
96575SOL    HW291559   1.675  12.023   0.769
96576SOL     OW91560  12.369   2.413   6.807
96576SOL    HW191561  12.374   2.428   6.713
96576SOL    HW291562  12.448   2.361   6.827
96577SOL     OW91563   2.323   3.917   8.864
96577SOL    HW191564   2.418   3.911   8.854
96577SOL    HW291565   2.288   3.870   8.789
96578SOL     OW91566  10.142   8.465  10.664
96578SOL    HW191567  10.074   8.399  10.677
96578SOL    HW291568  10.096   8.542  10.632
96579SOL     OW91569   5.195   1.127   5.047
96579SOL    HW191570   5.290   1.113   5.041
96579SOL    HW291571   5.179   1.146   5.139
96580SOL     OW91572  14.530   2.745   9.722
96580SOL    HW191573  14.475   2.755   9.645
96580SOL    HW291574  14.472   2.763   9.796
96581SOL     OW91575  13.704   3.016   7.821
96581SOL    HW191576  13.760   2.939   7.816
96581SOL    HW291577  13.615   2.983   7.807
96582SOL     OW91578   8.263  12.468   0.064
96582SOL    HW191579   8.301  12.428  14.865
96582SOL    HW291580   8.168  12.459   0.053
96583SOL     OW91581   3.202  14.599  12.129
96583SOL    HW191582   3.221  14.658  12.056
96583SOL    HW291583   3.121  14.556  12.105
96584SOL     OW91584  10.851   0.331   3.055
96584SOL    HW191585  10.829   0.261   3.116
96584SOL    HW291586  10.935   0.304   3.017
96585SOL     OW91587   9.445   3.810   0.683
96585SOL    HW191588   9.444   3.870   0.609
96585SOL    HW291589   9.493   3.857   0.751
96586SOL     OW91590  11.913   4.560  11.463
96586SOL    HW191591  11.826   4.522  11.466
96586SOL    HW291592  11.920   4.599  11.375
96587SOL     OW91593  11.750   0.721   7.911
96587SOL    HW191594  11.747   0.702   8.004
96587SOL    HW291595  11.663   0.756   7.890
96588SOL     OW91596  14.721   9.040   9.883
96588SOL    HW191597  14.789   8.974   9.870
96588SOL    HW291598  14.717   9.088   9.801
96589SOL     OW91599   6.821   9.868   1.358
96589SOL    HW191600   6.899   9.818   1.384
96589SOL    HW291601   6.834   9.884   1.265
96590SOL     OW91602   2.348  11.302   6.988
96590SOL    HW191603   2.355  11.219   6.942
96590SOL    HW291604   2.377  11.367   6.925
96591SOL     OW91605   9.315   4.547  12.254
96591SOL    HW191606   9.264   4.626  12.240
96591SOL    HW291607   9.406   4.573  12.237
96592SOL     OW91608   6.228   9.376  14.318
96592SOL    HW191609   6.268   9.462  14.330
96592SOL    HW291610   6.144   9.383  14.362
96593SOL     OW91611   8.992   0.303   7.522
96593SOL    HW191612   8.999   0.209   7.534
96593SOL    HW291613   9.067   0.326   7.467
96594SOL     OW91614  14.224  13.736  13.429
96594SOL    HW191615  14.235  13.719  13.336
96594SOL    HW291616  14.304  13.784  13.454
96595SOL     OW91617  10.138  10.752  12.219
96595SOL    HW191618  10.120  10.659  12.204
96595SOL    HW291619  10.062  10.797  12.184
96596SOL     OW91620   7.903  10.441  11.123
96596SOL    HW191621   7.833  10.443  11.188
96596SOL    HW291622   7.950  10.523  11.136
96597SOL     OW91623   8.254   8.990   2.857
96597SOL    HW191624   8.298   8.909   2.832
96597SOL    HW291625   8.284   9.054   2.792
96598SOL     OW91626   3.692   9.647  11.184
96598SOL    HW191627   3.610   9.618  11.223
96598SOL    HW291628   3.759   9.589  11.221
96599SOL     OW91629   8.186   6.505   4.493
96599SOL    HW191630   8.105   6.555   4.481
96599SOL    HW291631   8.160   6.431   4.548
96600SOL     OW91632  14.276   4.809   5.554
96600SOL    HW191633  14.363   4.806   5.594
96600SOL    HW291634  14.216   4.817   5.628
96601SOL     OW91635   9.993  10.420   4.749
96601SOL    HW191636   9.929  10.352   4.733
96601SOL    HW291637   9.978  10.449   4.839
96602SOL     OW91638   4.427   0.282   6.790
96602SOL    HW191639   4.372   0.359   6.804
96602SOL    HW291640   4.473   0.300   6.707
96603SOL     OW91641  13.366   9.490   5.540
96603SOL    HW191642  13.343   9.400   5.565
96603SOL    HW291643  13.369   9.488   5.444
96604SOL     OW91644   9.902   0.407  14.362
96604SOL    HW191645   9.967   0.430  14.295
96604SOL    HW291646   9.838   0.354  14.316
96605SOL     OW91647  11.440   2.801   8.395
96605SOL    HW191648  11.376   2.751   8.445
96605SOL    HW291649  11.388   2.863   8.345
96606SOL     OW91650  12.824   3.173   0.453
96606SOL    HW191651  12.809   3.137   0.366
96606SOL    HW291652  12.788   3.262   0.450
96607SOL     OW91653  10.651  12.803  13.322
96607SOL    HW191654  10.677  12.717  13.355
96607SOL    HW291655  10.572  12.825  13.373
96608SOL     OW91656   3.538   6.194   4.094
96608SOL    HW191657   3.576   6.163   4.177
96608SOL    HW291658   3.540   6.289   4.101
96609SOL     OW91659   2.759   5.090  13.169
96609SOL    HW191660   2.723   5.160  13.115
96609SOL    HW291661   2.706   5.013  13.148
96610SOL     OW91662  13.084   0.399  11.025
96610SOL    HW191663  13.172   0.409  10.991
96610SOL    HW291664  13.032   0.465  10.979
96611SOL     OW91665   8.534  11.312   7.776
96611SOL    HW191666   8.561  11.227   7.743
96611SOL    HW291667   8.441  11.303   7.796
96612SOL     OW91668  12.964  14.411   0.754
96612SOL    HW191669  12.892  14.413   0.691
96612SOL    HW291670  13.043  14.414   0.700
96613SOL     OW91671  14.852  14.191   1.088
96613SOL    HW191672   0.048  14.245   1.114
96613SOL    HW291673  14.865  14.177   0.994
96614SOL     OW91674  12.859   4.890  10.261
96614SOL    HW191675  12.950   4.861  10.265
96614SOL    HW291676  12.809   4.810  10.244
96615SOL     OW91677  10.085   0.211   0.701
96615SOL    HW191678  10.126   0.125   0.693
96615SOL    HW291679  10.017   0.199   0.768
96616SOL     OW91680  11.588  14.302   8.130
96616SOL    HW191681  11.515  14.338   8.181
96616SOL    HW291682  11.644  14.259   8.195
96617SOL     OW91683  10.034   0.853   8.882
96617SOL    HW191684   9.985   0.863   8.964
96617SOL    HW291685  10.060   0.761   8.880
96618SOL     OW91686  11.814   5.217  13.553
96618SOL    HW191687  11.776   5.147  13.500
96618SOL    HW291688  11.879   5.258  13.496
96619SOL     OW91689   4.997   5.780  13.577
96619SOL    HW191690   5.035   5.760  13.491
96619SOL    HW291691   5.007   5.699  13.626
96620SOL     OW91692  12.483  12.148  11.379
96620SOL    HW191693  12.485  12.175  11.471
96620SOL    HW291694  12.521  12.060  11.379
96621SOL     OW91695   0.658  12.742   5.243
96621SOL    HW191696   0.630  12.675   5.305
96621SOL    HW291697   0.593  12.741   5.174
96622SOL     OW91698  11.405  10.819   4.363
96622SOL    HW191699  11.454  10.902   4.359
96622SOL    HW291700  11.409  10.785   4.274
96623SOL     OW91701  12.423   0.135   2.678
96623SOL    HW191702  12.479   0.211   2.663
96623SOL    HW291703  12.443   0.075   2.607
96624SOL     OW91704   4.150   5.236   7.190
96624SOL    HW191705   4.141   5.270   7.101
96624SOL    HW291706   4.060   5.217   7.217
96625SOL     OW91707   7.760   4.633  14.479
96625SOL    HW191708   7.825   4.617  14.411
96625SOL    HW291709   7.676   4.615  14.436
96626SOL     OW91710  13.175   1.093   1.858
96626SOL    HW191711  13.158   1.159   1.791
96626SOL    HW291712  13.199   1.015   1.809
96627SOL     OW91713  10.651  12.242   2.741
96627SOL    HW191714  10.744  12.226   2.756
96627SOL    HW291715  10.612  12.155   2.734
96628SOL     OW91716   0.717   3.768  11.372
96628SOL    HW191717   0.789   3.766  11.310
96628SOL    HW291718   0.650   3.822  11.330
96629SOL     OW91719   1.608   0.479   5.350
96629SOL    HW191720   1.634   0.571   5.350
96629SOL    HW291721   1.526   0.477   5.400
96630SOL     OW91722   9.706   0.231   9.727
96630SOL    HW191723   9.773   0.298   9.714
96630SOL    HW291724   9.718   0.170   9.655
96631SOL     OW91725   4.433  13.927  10.776
96631SOL    HW191726   4.353  13.880  10.752
96631SOL    HW291727   4.457  13.890  10.861
96632SOL     OW91728  11.065  11.734  10.696
96632SOL    HW191729  11.149  11.712  10.654
96632SOL    HW291730  11.018  11.783  10.630
96633SOL     OW91731  11.204   5.660   3.661
96633SOL    HW191732  11.121   5.614   3.654
96633SOL    HW291733  11.237   5.636   3.748
96634SOL     OW91734  10.653   6.879   2.363
96634SOL    HW191735  10.666   6.960   2.314
96634SOL    HW291736  10.713   6.816   2.323
96635SOL     OW91737   3.400  10.310   3.379
96635SOL    HW191738   3.423  10.268   3.462
96635SOL    HW291739   3.408  10.240   3.314
96636SOL     OW91740   8.761   4.352   9.469
96636SOL    HW191741   8.721   4.275   9.510
96636SOL    HW291742   8.687   4.400   9.432
96637SOL     OW91743   9.164  14.632   7.944
96637SOL    HW191744   9.165  14.536   7.943
96637SOL    HW291745   9.255  14.656   7.962
96638SOL     OW91746  11.683   7.189   9.969
96638SOL    HW191747  11.730   7.109   9.993
96638SOL    HW291748  11.702   7.251  10.040
96639SOL     OW91749  10.407   2.453  13.888
96639SOL    HW191750  10.388   2.484  13.977
96639SOL    HW291751  10.401   2.358  13.894
96640SOL     OW91752   5.746   8.266   2.069
96640SOL    HW191753   5.735   8.276   1.974
96640SOL    HW291754   5.785   8.349   2.096
96641SOL     OW91755   7.696   0.885  13.438
96641SOL    HW191756   7.687   0.795  13.408
96641SOL    HW291757   7.620   0.930  13.403
96642SOL     OW91758  13.989   3.461   1.867
96642SOL    HW191759  14.023   3.410   1.941
96642SOL    HW291760  13.895   3.444   1.867
96643SOL     OW91761   6.048   8.924   6.972
96643SOL    HW191762   6.085   8.921   6.884
96643SOL    HW291763   5.973   8.982   6.965
96644SOL     OW91764   1.952   3.074   9.966
96644SOL    HW191765   1.897   2.997   9.978
96644SOL    HW291766   1.896   3.147   9.992
96645SOL     OW91767  10.933   5.382  11.398
96645SOL    HW191768  10.845   5.381  11.436
96645SOL    HW291769  10.936   5.305  11.342
96646SOL     OW91770  11.339  14.750   3.252
96646SOL    HW191771  11.278  14.776   3.183
96646SOL    HW291772  11.384  14.832   3.276
96647SOL     OW91773   5.778  14.223   6.350
96647SOL    HW191774   5.866  14.262   6.351
96647SOL    HW291775   5.759  14.206   6.443
96648SOL     OW91776  12.001  13.843   1.138
96648SOL    HW191777  11.935  13.795   1.089
96648SOL    HW291778  12.082  13.794   1.124
96649SOL     OW91779  10.022   2.204   0.949
96649SOL    HW191780  10.062   2.289   0.968
96649SOL    HW291781   9.929   2.217   0.963
96650SOL     OW91782   4.373   5.177  11.913
96650SOL    HW191783   4.279   5.180  11.927
96650SOL    HW291784   4.383   5.142  11.824
96651SOL     OW91785  13.126  14.494  11.268
96651SOL    HW191786  13.052  14.536  11.224
96651SOL    HW291787  13.199  14.502  11.206
96652SOL     OW91788   1.433  11.177   2.948
96652SOL    HW191789   1.398  11.161   2.861
96652SOL    HW291790   1.371  11.238   2.988
96653SOL     OW91791   7.790   7.855  10.856
96653SOL    HW191792   7.830   7.897  10.779
96653SOL    HW291793   7.826   7.767  10.857
96654SOL     OW91794   0.031  11.324   5.202
96654SOL    HW191795   0.075  11.239   5.213
96654SOL    HW291796   0.040  11.366   5.288
96655SOL     OW91797   1.332  13.003   7.572
96655SOL    HW191798   1.359  13.066   7.638
96655SOL    HW291799   1.371  12.920   7.599
96656SOL     OW91800   4.195   1.474   6.323
96656SOL    HW191801   4.125   1.473   6.258
96656SOL    HW291802   4.265   1.422   6.283
96657SOL     OW91803  11.345  10.050  12.965
96657SOL    HW191804  11.393  10.064  13.047
96657SOL    HW291805  11.375  10.120  12.907
96658SOL     OW91806  11.246  10.230  12.472
96658SOL    HW191807  11.324  10.174  12.481
96658SOL    HW291808  11.264  10.305  12.530
96659SOL     OW91809  12.694  14.478   7.871
96659SOL    HW191810  12.626  14.451   7.932
96659SOL    HW291811  12.666  14.565   7.841
96660SOL     OW91812   5.302   8.485   8.177
96660SOL    HW191813   5.233   8.475   8.244
96660SOL    HW291814   5.381   8.453   8.220
96661SOL     OW91815  13.790  10.816   7.004
96661SOL    HW191816  13.729  10.850   6.939
96661SOL    HW291817  13.816  10.730   6.969
96662SOL     OW91818  11.928   0.078  12.554
96662SOL    HW191819  12.002   0.072  12.615
96662SOL    HW291820  11.899  14.867  12.541
96663SOL     OW91821  10.539  10.016   5.538
96663SOL    HW191822  10.459  10.047   5.581
96663SOL    HW291823  10.575  10.093   5.494
96664SOL     OW91824   0.137  13.304   2.969
96664SOL    HW191825   0.178  13.302   3.056
96664SOL    HW291826   0.072  13.233   2.972
96665SOL     OW91827  12.873  13.575  11.545
96665SOL    HW191828  12.859  13.600  11.637
96665SOL    HW291829  12.879  13.479  11.547
96666SOL     OW91830   2.089  12.559   6.443
96666SOL    HW191831   2.061  12.581   6.354
96666SOL    HW291832   2.018  12.590   6.499
96667SOL     OW91833   6.937  11.757   4.790
96667SOL    HW191834   6.924  11.834   4.733
96667SOL    HW291835   6.876  11.692   4.756
96668SOL     OW91836   2.972   4.777   4.795
96668SOL    HW191837   3.006   4.866   4.780
96668SOL    HW291838   3.033   4.739   4.858
96669SOL     OW91839   4.649   4.164   5.016
96669SOL    HW191840   4.632   4.235   5.078
96669SOL    HW291841   4.745   4.163   5.008
96670SOL     OW91842   1.932   0.136  13.141
96670SOL    HW191843   2.009   0.189  13.157
96670SOL    HW291844   1.960   0.070  13.078
96671SOL     OW91845   4.240   2.209   4.102
96671SOL    HW191846   4.335   2.193   4.100
96671SOL    HW291847   4.231   2.291   4.150
96672SOL     OW91848  13.862  11.955  13.975
96672SOL    HW191849  13.782  12.009  13.977
96672SOL    HW291850  13.841  11.880  14.030
96673SOL     OW91851   8.710   8.507   6.265
96673SOL    HW191852   8.754   8.430   6.229
96673SOL    HW291853   8.765   8.581   6.239
96674SOL     OW91854  13.973   1.411  11.125
96674SOL    HW191855  13.912   1.423  11.197
96674SOL    HW291856  14.051   1.372  11.165
96675SOL     OW91857   5.689   6.807   5.811
96675SOL    HW191858   5.635   6.834   5.737
96675SOL    HW291859   5.626   6.784   5.880
96676SOL     OW91860   6.770   2.657  13.280
96676SOL    HW191861   6.699   2.713  13.249
96676SOL    HW291862   6.801   2.612  13.202
96677SOL     OW91863   4.378  14.287  14.831
96677SOL    HW191864   4.308  14.246  14.780
96677SOL    HW291865   4.458  14.265  14.783
96678SOL     OW91866  11.796   0.297   8.726
96678SOL    HW191867  11.861   0.227   8.733
96678SOL    HW291868  11.840   0.365   8.676
96679SOL     OW91869   1.567   6.250   4.487
96679SOL    HW191870   1.604   6.239   4.575
96679SOL    HW291871   1.495   6.187   4.485
96680SOL     OW91872   9.635  14.868   9.247
96680SOL    HW191873   9.654  14.776   9.227
96680SOL    HW291874   9.541  14.869   9.266
96681SOL     OW91875   5.801  14.667   9.739
96681SOL    HW191876   5.819  14.760   9.755
96681SOL    HW291877   5.708  14.656   9.761
96682SOL     OW91878  12.114   8.735  14.153
96682SOL    HW191879  12.090   8.672  14.085
96682SOL    HW291880  12.178   8.690  14.206
96683SOL     OW91881   5.567   1.159   0.225
96683SOL    HW191882   5.490   1.120   0.266
96683SOL    HW291883   5.641   1.119   0.271
96684SOL     OW91884  14.407   9.693   8.035
96684SOL    HW191885  14.470   9.759   8.007
96684SOL    HW291886  14.329   9.744   8.059
96685SOL     OW91887   4.475  11.605  14.042
96685SOL    HW191888   4.481  11.641  13.953
96685SOL    HW291889   4.385  11.622  14.069
96686SOL     OW91890   2.171  13.603   8.059
96686SOL    HW191891   2.119  13.573   8.133
96686SOL    HW291892   2.222  13.677   8.093
96687SOL     OW91893   5.445   4.530   2.800
96687SOL    HW191894   5.399   4.602   2.757
96687SOL    HW291895   5.378   4.486   2.852
96688SOL     OW91896   8.766   3.155   0.615
96688SOL    HW191897   8.700   3.122   0.676
96688SOL    HW291898   8.715   3.191   0.543
96689SOL     OW91899  11.647  10.654   1.935
96689SOL    HW191900  11.583  10.600   1.889
96689SOL    HW291901  11.596  10.721   1.980
96690SOL     OW91902   1.740   6.765   9.691
96690SOL    HW191903   1.762   6.761   9.784
96690SOL    HW291904   1.663   6.709   9.682
96691SOL     OW91905  14.740   3.162  13.424
96691SOL    HW191906  14.700   3.245  13.395
96691SOL    HW291907  14.668   3.114  13.465
96692SOL     OW91908  13.977   0.782   2.229
96692SOL    HW191909  14.058   0.787   2.280
96692SOL    HW291910  13.908   0.775   2.295
96693SOL     OW91911   8.462   9.912  10.686
96693SOL    HW191912   8.371   9.900  10.714
96693SOL    HW291913   8.456   9.972  10.612
96694SOL     OW91914   5.571  12.536   9.442
96694SOL    HW191915   5.564  12.618   9.490
96694SOL    HW291916   5.634  12.555   9.372
96695SOL     OW91917   3.480   8.292   9.854
96695SOL    HW191918   3.551   8.304   9.918
96695SOL    HW291919   3.478   8.375   9.805
96696SOL     OW91920   9.916   1.455   8.014
96696SOL    HW191921   9.863   1.402   8.073
96696SOL    HW291922   9.866   1.535   8.002
96697SOL     OW91923   0.180  10.029  10.497
96697SOL    HW191924   0.275  10.024  10.487
96697SOL    HW291925   0.146   9.971  10.429
96698SOL     OW91926   9.396   9.423   9.964
96698SOL    HW191927   9.407   9.489   9.895
96698SOL    HW291928   9.355   9.349   9.920
96699SOL     OW91929   7.924  10.443  11.913
96699SOL    HW191930   7.963  10.359  11.938
96699SOL    HW291931   7.986  10.509  11.945
96700SOL     OW91932   3.167  10.906   5.317
96700SOL    HW191933   3.152  10.893   5.411
96700SOL    HW291934   3.086  10.876   5.276
96701SOL     OW91935   5.278   3.369   5.386
96701SOL    HW191936   5.224   3.399   5.313
96701SOL    HW291937   5.224   3.303   5.430
96702SOL     OW91938   3.546   6.622   3.168
96702SOL    HW191939   3.566   6.705   3.124
96702SOL    HW291940   3.574   6.555   3.106
96703SOL     OW91941   6.975   1.432   9.027
96703SOL    HW191942   6.945   1.366   9.090
96703SOL    HW291943   7.060   1.399   8.998
96704SOL     OW91944  13.696   7.720   0.707
96704SOL    HW191945  13.674   7.693   0.796
96704SOL    HW291946  13.682   7.815   0.706
96705SOL     OW91947   2.118   9.842   1.916
96705SOL    HW191948   2.116   9.863   1.822
96705SOL    HW291949   2.055   9.903   1.955
96706SOL     OW91950   0.094   6.727   1.329
96706SOL    HW191951   0.165   6.672   1.363
96706SOL    HW291952   0.057   6.677   1.257
96707SOL     OW91953   3.276   5.176   5.552
96707SOL    HW191954   3.303   5.086   5.567
96707SOL    HW291955   3.252   5.179   5.459
96708SOL     OW91956   8.316  12.152   7.397
96708SOL    HW191957   8.228  12.139   7.363
96708SOL    HW291958   8.319  12.244   7.423
96709SOL     OW91959  12.281  10.872  12.259
96709SOL    HW191960  12.369  10.839  12.275
96709SOL    HW291961  12.271  10.866  12.164
96710SOL     OW91962   7.824  13.772  14.788
96710SOL    HW191963   7.755  13.838  14.777
96710SOL    HW291964   7.780  13.689  14.774
96711SOL     OW91965   0.704   3.901   6.210
96711SOL    HW191966   0.697   3.990   6.243
96711SOL    HW291967   0.799   3.883   6.209
96712SOL     OW91968   8.523  10.182   2.829
96712SOL    HW191969   8.435  10.147   2.813
96712SOL    HW291970   8.528  10.261   2.775
96713SOL     OW91971  11.557   1.728   3.531
96713SOL    HW191972  11.560   1.822   3.513
96713SOL    HW291973  11.570   1.721   3.625
96714SOL     OW91974  14.323   1.340  10.531
96714SOL    HW191975  14.381   1.412  10.555
96714SOL    HW291976  14.380   1.280  10.482
96715SOL     OW91977  11.434   9.722   6.380
96715SOL    HW191978  11.441   9.658   6.450
96715SOL    HW291979  11.479   9.682   6.306
96716SOL     OW91980   4.425   7.021   1.537
96716SOL    HW191981   4.452   7.113   1.540
96716SOL    HW291982   4.343   7.022   1.487
96717SOL     OW91983   6.352   7.181  12.785
96717SOL    HW191984   6.446   7.189  12.802
96717SOL    HW291985   6.310   7.215  12.865
96718SOL     OW91986  13.546   6.784   7.787
96718SOL    HW191987  13.598   6.830   7.721
96718SOL    HW291988  13.460   6.774   7.747
96719SOL     OW91989   3.661   0.378   3.535
96719SOL    HW191990   3.649   0.398   3.627
96719SOL    HW291991   3.572   0.359   3.503
96720SOL     OW91992  13.494   7.649   3.039
96720SOL    HW191993  13.516   7.696   3.119
96720SOL    HW291994  13.534   7.563   3.050
96721SOL     OW91995  11.594   7.301   0.713
96721SOL    HW191996  11.499   7.296   0.706
96721SOL    HW291997  11.625   7.216   0.682
96722SOL     OW91998   0.919  10.018  12.047
96722SOL    HW191999   0.934   9.990  11.956
96722SOL    HW292000   0.971   9.957  12.099
96723SOL     OW92001  12.262   7.262  10.033
96723SOL    HW192002  12.295   7.335  10.086
96723SOL    HW292003  12.169   7.282  10.022
96724SOL     OW92004   4.089  14.384   5.834
96724SOL    HW192005   4.140  14.427   5.766
96724SOL    HW292006   4.041  14.315   5.788
96725SOL     OW92007  10.038   8.870   7.552
96725SOL    HW192008   9.983   8.802   7.590
96725SOL    HW292009  10.074   8.916   7.628
96726SOL     OW92010  13.003   9.513   1.228
96726SOL    HW192011  13.094   9.492   1.248
96726SOL    HW292012  12.994   9.606   1.252
96727SOL     OW92013  13.971   5.439  14.735
96727SOL    HW192014  13.910   5.365  14.740
96727SOL    HW292015  14.031   5.415  14.664
96728SOL     OW92016   5.584   2.575  11.201
96728SOL    HW192017   5.490   2.555  11.198
96728SOL    HW292018   5.626   2.490  11.187
96729SOL     OW92019  11.502  11.500  10.691
96729SOL    HW192020  11.538  11.473  10.606
96729SOL    HW292021  11.497  11.418  10.741
96730SOL     OW92022   3.170  10.089   6.220
96730SOL    HW192023   3.109  10.071   6.292
96730SOL    HW292024   3.150  10.179   6.194
96731SOL     OW92025  12.445   5.929   4.587
96731SOL    HW192026  12.364   5.887   4.617
96731SOL    HW292027  12.441   6.017   4.624
96732SOL     OW92028  10.357  10.411  13.173
96732SOL    HW192029  10.314  10.329  13.147
96732SOL    HW292030  10.384  10.451  13.090
96733SOL     OW92031  11.705   9.436  10.738
96733SOL    HW192032  11.715   9.356  10.686
96733SOL    HW292033  11.730   9.507  10.678
96734SOL     OW92034   6.846  14.087   2.795
96734SOL    HW192035   6.879  14.172   2.824
96734SOL    HW292036   6.751  14.095   2.800
96735SOL     OW92037   1.123   4.712  14.350
96735SOL    HW192038   1.217   4.706  14.367
96735SOL    HW292039   1.090   4.765  14.423
96736SOL     OW92040  11.510   3.216   0.778
96736SOL    HW192041  11.524   3.169   0.860
96736SOL    HW292042  11.482   3.149   0.716
96737SOL     OW92043   1.867   2.661  11.757
96737SOL    HW192044   1.949   2.627  11.794
96737SOL    HW292045   1.827   2.711  11.828
96738SOL     OW92046   5.252   5.096   2.916
96738SOL    HW192047   5.283   5.084   2.826
96738SOL    HW292048   5.215   5.011   2.940
96739SOL     OW92049   0.611   6.145   5.119
96739SOL    HW192050   0.519   6.164   5.103
96739SOL    HW292051   0.614   6.051   5.135
96740SOL     OW92052   8.138  13.903  11.403
96740SOL    HW192053   8.104  13.884  11.491
96740SOL    HW292054   8.083  13.975  11.372
96741SOL     OW92055   7.372   4.345   4.247
96741SOL    HW192056   7.376   4.433   4.283
96741SOL    HW292057   7.432   4.294   4.302
96742SOL     OW92058   8.548  14.350  11.906
96742SOL    HW192059   8.455  14.331  11.923
96742SOL    HW292060   8.549  14.440  11.876
96743SOL     OW92061   2.088   7.701  10.280
96743SOL    HW192062   2.012   7.748  10.246
96743SOL    HW292063   2.160   7.764  10.272
96744SOL     OW92064   8.693   1.928  14.437
96744SOL    HW192065   8.695   1.843  14.481
96744SOL    HW292066   8.633   1.916  14.363
96745SOL     OW92067  13.584  11.027  10.137
96745SOL    HW192068  13.527  11.080  10.082
96745SOL    HW292069  13.671  11.038  10.099
96746SOL     OW92070   5.471   0.765  13.196
96746SOL    HW192071   5.398   0.728  13.146
96746SOL    HW292072   5.446   0.752  13.287
96747SOL     OW92073   4.236   1.842  10.190
96747SOL    HW192074   4.188   1.836  10.272
96747SOL    HW292075   4.182   1.898  10.134
96748SOL     OW92076   8.918  13.073  12.580
96748SOL    HW192077   8.864  13.001  12.548
96748SOL    HW292078   8.995  13.030  12.618
96749SOL     OW92079  13.233   8.154   6.234
96749SOL    HW192080  13.147   8.151   6.278
96749SOL    HW292081  13.215   8.124   6.145
96750SOL     OW92082  11.093  12.611   8.196
96750SOL    HW192083  11.175  12.569   8.221
96750SOL    HW292084  11.024  12.553   8.229
96751SOL     OW92085   0.342   9.553   1.900
96751SOL    HW192086   0.382   9.589   1.979
96751SOL    HW292087   0.342   9.625   1.837
96752SOL     OW92088   7.416   2.184   9.508
96752SOL    HW192089   7.502   2.205   9.543
96752SOL    HW292090   7.429   2.102   9.460
96753SOL     OW92091   2.383   5.872   5.017
96753SOL    HW192092   2.339   5.915   4.944
96753SOL    HW292093   2.329   5.893   5.093
96754SOL     OW92094   9.553  11.412   6.731
96754SOL    HW192095   9.492  11.449   6.667
96754SOL    HW292096   9.523  11.323   6.746
96755SOL     OW92097   1.642   2.141   4.636
96755SOL    HW192098   1.725   2.129   4.591
96755SOL    HW292099   1.585   2.073   4.601
96756SOL     OW92100   9.945  13.164   9.833
96756SOL    HW192101   9.874  13.134   9.777
96756SOL    HW292102   9.984  13.084   9.868
96757SOL     OW92103   7.491   4.960   8.621
96757SOL    HW192104   7.481   5.032   8.558
96757SOL    HW292105   7.568   4.985   8.672
96758SOL     OW92106   6.939   0.655   1.614
96758SOL    HW192107   6.919   0.621   1.702
96758SOL    HW292108   6.904   0.588   1.555
96759SOL     OW92109   3.727   5.378   6.140
96759SOL    HW192110   3.647   5.327   6.125
96759SOL    HW292111   3.723   5.448   6.075
96760SOL     OW92112   8.374  14.068   6.343
96760SOL    HW192113   8.447  14.065   6.282
96760SOL    HW292114   8.307  14.119   6.298
96761SOL     OW92115  10.938  13.197   2.512
96761SOL    HW192116  10.925  13.137   2.439
96761SOL    HW292117  10.980  13.144   2.579
96762SOL     OW92118   0.330   1.743   8.295
96762SOL    HW192119   0.279   1.670   8.332
96762SOL    HW292120   0.275   1.777   8.225
96763SOL     OW92121   0.486   7.124   5.689
96763SOL    HW192122   0.493   7.057   5.756
96763SOL    HW292123   0.415   7.095   5.633
96764SOL     OW92124   1.717  10.053   3.753
96764SOL    HW192125   1.734  10.016   3.667
96764SOL    HW292126   1.627  10.025   3.774
96765SOL     OW92127   9.947  14.835   9.179
96765SOL    HW192128   9.950   0.050   9.159
96765SOL    HW292129   9.864  14.805   9.141
96766SOL     OW92130   0.247   6.088   1.156
96766SOL    HW192131   0.246   5.994   1.171
96766SOL    HW292132   0.163   6.107   1.115
96767SOL     OW92133   3.433   9.320   9.763
96767SOL    HW192134   3.385   9.309   9.681
96767SOL    HW292135   3.366   9.344   9.827
96768SOL     OW92136   4.672  11.315  11.253
96768SOL    HW192137   4.666  11.318  11.348
96768SOL    HW292138   4.614  11.385  11.223
96769SOL     OW92139   4.380   7.254   7.194
96769SOL    HW192140   4.429   7.273   7.114
96769SOL    HW292141   4.336   7.337   7.214
96770SOL     OW92142   3.243  11.052   3.317
96770SOL    HW192143   3.330  11.063   3.356
96770SOL    HW292144   3.239  11.117   3.247
96771SOL     OW92145  13.673  11.000   8.364
96771SOL    HW192146  13.712  10.978   8.448
96771SOL    HW292147  13.593  10.947   8.359
96772SOL     OW92148   2.205  11.462   8.092
96772SOL    HW192149   2.142  11.529   8.118
96772SOL    HW292150   2.171  11.381   8.131
96773SOL     OW92151  10.712  10.872   4.938
96773SOL    HW192152  10.635  10.867   4.881
96773SOL    HW292153  10.787  10.866   4.879
96774SOL     OW92154  10.512   3.946   4.658
96774SOL    HW192155  10.429   3.936   4.613
96774SOL    HW292156  10.532   4.040   4.650
96775SOL     OW92157  13.883   8.865  11.171
96775SOL    HW192158  13.911   8.781  11.204
96775SOL    HW292159  13.788   8.856  11.160
96776SOL     OW92160   7.976  11.907  13.412
96776SOL    HW192161   8.065  11.939  13.396
96776SOL    HW292162   7.984  11.812  13.408
96777SOL     OW92163  13.103  14.314   6.935
96777SOL    HW192164  13.045  14.346   6.866
96777SOL    HW292165  13.178  14.276   6.888
96778SOL     OW92166   9.576   8.625   1.525
96778SOL    HW192167   9.615   8.712   1.513
96778SOL    HW292168   9.651   8.566   1.533
96779SOL     OW92169   7.941  12.814   0.246
96779SOL    HW192170   7.871  12.853   0.298
96779SOL    HW292171   8.013  12.877   0.251
96780SOL     OW92172   6.938  13.961   7.623
96780SOL    HW192173   6.863  13.954   7.563
96780SOL    HW292174   6.901  13.999   7.702
96781SOL     OW92175   8.608   2.291   8.679
96781SOL    HW192176   8.619   2.385   8.697
96781SOL    HW292177   8.697   2.256   8.682
96782SOL     OW92178   9.034   8.072  12.676
96782SOL    HW192179   8.980   8.042  12.749
96782SOL    HW292180   9.002   8.160  12.657
96783SOL     OW92181  12.601  11.042   8.811
96783SOL    HW192182  12.644  10.982   8.750
96783SOL    HW292183  12.508  11.026   8.799
96784SOL     OW92184   7.941   1.101  11.219
96784SOL    HW192185   7.970   1.012  11.198
96784SOL    HW292186   7.907   1.094  11.308
96785SOL     OW92187   8.891   4.478  10.887
96785SOL    HW192188   8.964   4.416  10.899
96785SOL    HW292189   8.878   4.482  10.792
96786SOL     OW92190   0.923   1.765   0.950
96786SOL    HW192191   0.851   1.737   1.007
96786SOL    HW292192   0.980   1.688   0.945
96787SOL     OW92193   7.958   8.244   0.218
96787SOL    HW192194   8.036   8.189   0.206
96787SOL    HW292195   7.905   8.226   0.140
96788SOL     OW92196  12.038  11.566  11.498
96788SOL    HW192197  11.953  11.588  11.459
96788SOL    HW292198  12.096  11.637  11.471
96789SOL     OW92199   8.153  10.203  14.677
96789SOL    HW192200   8.086  10.171  14.616
96789SOL    HW292201   8.114  10.282  14.716
96790SOL     OW92202   9.328   0.957   8.312
96790SOL    HW192203   9.302   0.946   8.403
96790SOL    HW292204   9.271   0.897   8.263
96791SOL     OW92205  13.466   5.271   8.213
96791SOL    HW192206  13.499   5.251   8.300
96791SOL    HW292207  13.380   5.228   8.210
96792SOL     OW92208  10.276  11.140  12.776
96792SOL    HW192209  10.280  11.064  12.717
96792SOL    HW292210  10.257  11.102  12.862
96793SOL     OW92211   4.270   1.851  11.353
96793SOL    HW192212   4.305   1.762  11.361
96793SOL    HW292213   4.339   1.900  11.309
96794SOL     OW92214  14.354   1.721  14.398
96794SOL    HW192215  14.422   1.770  14.350
96794SOL    HW292216  14.286   1.785  14.416
96795SOL     OW92217   6.541  13.231   5.600
96795SOL    HW192218   6.555  13.292   5.672
96795SOL    HW292219   6.629  13.203   5.575
96796SOL     OW92220   9.494   8.658  14.653
96796SOL    HW192221   9.448   8.632  14.733
96796SOL    HW292222   9.583   8.677  14.682
96797SOL     OW92223   8.330   7.192   7.027
96797SOL    HW192224   8.241   7.180   7.058
96797SOL    HW292225   8.321   7.240   6.944
96798SOL     OW92226  13.347  12.884  13.999
96798SOL    HW192227  13.315  12.972  14.019
96798SOL    HW292228  13.408  12.896  13.927
96799SOL     OW92229  11.421  10.623   9.220
96799SOL    HW192230  11.445  10.569   9.296
96799SOL    HW292231  11.454  10.710   9.242
96800SOL     OW92232   9.963  12.769  10.407
96800SOL    HW192233  10.019  12.750  10.482
96800SOL    HW292234   9.919  12.686  10.389
96801SOL     OW92235  13.779   4.573   4.404
96801SOL    HW192236  13.806   4.654   4.361
96801SOL    HW292237  13.846   4.557   4.470
96802SOL     OW92238   9.055   7.023  13.184
96802SOL    HW192239   9.127   7.035  13.245
96802SOL    HW292240   9.011   6.943  13.214
96803SOL     OW92241   5.524   2.886   4.836
96803SOL    HW192242   5.548   2.951   4.902
96803SOL    HW292243   5.451   2.927   4.788
96804SOL     OW92244   3.859  14.342   3.785
96804SOL    HW192245   3.896  14.427   3.759
96804SOL    HW292246   3.920  14.278   3.748
96805SOL     OW92247   2.293  11.770   4.033
96805SOL    HW192248   2.274  11.731   3.947
96805SOL    HW292249   2.209  11.770   4.078
96806SOL     OW92250  12.113   1.580   3.320
96806SOL    HW192251  12.139   1.628   3.241
96806SOL    HW292252  12.090   1.493   3.289
96807SOL     OW92253   0.882   3.795  13.162
96807SOL    HW192254   0.897   3.708  13.126
96807SOL    HW292255   0.970   3.828  13.182
96808SOL     OW92256   3.610   6.393   4.352
96808SOL    HW192257   3.525   6.362   4.384
96808SOL    HW292258   3.662   6.407   4.432
96809SOL     OW92259   7.511  12.895  11.004
96809SOL    HW192260   7.600  12.927  10.990
96809SOL    HW292261   7.477  12.879  10.917
96810SOL     OW92262  13.447   3.956   4.634
96810SOL    HW192263  13.431   3.953   4.728
96810SOL    HW292264  13.464   3.865   4.609
96811SOL     OW92265   5.432   0.630  11.094
96811SOL    HW192266   5.525   0.652  11.098
96811SOL    HW292267   5.414   0.620  11.000
96812SOL     OW92268   3.217   4.190   9.085
96812SOL    HW192269   3.164   4.228   9.155
96812SOL    HW292270   3.210   4.252   9.012
96813SOL     OW92271  13.558  11.622   1.560
96813SOL    HW192272  13.463  11.620   1.555
96813SOL    HW292273  13.584  11.530   1.552
96814SOL     OW92274   2.252   4.757   3.959
96814SOL    HW192275   2.161   4.750   3.988
96814SOL    HW292276   2.284   4.839   3.995
96815SOL     OW92277   0.575   4.452   3.829
96815SOL    HW192278   0.586   4.546   3.845
96815SOL    HW292279   0.498   4.446   3.773
96816SOL     OW92280  13.365  13.592   5.577
96816SOL    HW192281  13.326  13.552   5.655
96816SOL    HW292282  13.379  13.684   5.602
96817SOL     OW92283   0.207  12.007   4.116
96817SOL    HW192284   0.165  12.066   4.053
96817SOL    HW292285   0.233  11.931   4.063
96818SOL     OW92286   2.812   9.287  10.866
96818SOL    HW192287   2.772   9.332  10.941
96818SOL    HW292288   2.899   9.326  10.860
96819SOL     OW92289   7.677  14.872   6.518
96819SOL    HW192290   7.668  14.866   6.613
96819SOL    HW292291   7.609   0.056   6.491
96820SOL     OW92292  12.912  12.247   6.934
96820SOL    HW192293  12.989  12.302   6.945
96820SOL    HW292294  12.856  12.297   6.875
96821SOL     OW92295  10.085   3.261   7.752
96821SOL    HW192296  10.160   3.202   7.765
96821SOL    HW292297  10.036   3.221   7.680
96822SOL     OW92298   4.076   3.658   9.688
96822SOL    HW192299   4.049   3.748   9.672
96822SOL    HW292300   3.993   3.610   9.698
96823SOL     OW92301  10.999  12.761   0.697
96823SOL    HW192302  10.919  12.747   0.647
96823SOL    HW292303  11.063  12.793   0.633
96824SOL     OW92304   5.798  11.747  14.409
96824SOL    HW192305   5.737  11.787  14.471
96824SOL    HW292306   5.755  11.666  14.382
96825SOL     OW92307   5.928   0.493  11.226
96825SOL    HW192308   5.975   0.564  11.270
96825SOL    HW292309   5.996   0.447  11.176
96826SOL     OW92310   7.535   2.064   1.009
96826SOL    HW192311   7.553   2.079   1.102
96826SOL    HW292312   7.441   2.079   1.001
96827SOL     OW92313   6.629  11.311   5.412
96827SOL    HW192314   6.542  11.277   5.433
96827SOL    HW292315   6.625  11.330   5.318
96828SOL     OW92316   3.877   7.676   6.430
96828SOL    HW192317   3.886   7.733   6.506
96828SOL    HW292318   3.845   7.593   6.466
96829SOL     OW92319   6.747  13.007  11.868
96829SOL    HW192320   6.763  12.924  11.822
96829SOL    HW292321   6.680  13.051  11.816
96830SOL     OW92322   3.682   7.197   6.761
96830SOL    HW192323   3.715   7.119   6.717
96830SOL    HW292324   3.594   7.210   6.725
96831SOL     OW92325   2.760  14.603  11.981
96831SOL    HW192326   2.852  14.577  11.993
96831SOL    HW292327   2.736  14.568  11.895
96832SOL     OW92328   4.179   5.191   1.085
96832SOL    HW192329   4.158   5.250   1.012
96832SOL    HW292330   4.269   5.161   1.067
96833SOL     OW92331  10.454   8.937   5.915
96833SOL    HW192332  10.520   8.964   5.852
96833SOL    HW292333  10.426   8.851   5.885
96834SOL     OW92334   6.744  12.477   7.631
96834SOL    HW192335   6.809  12.414   7.663
96834SOL    HW292336   6.777  12.503   7.544
96835SOL     OW92337   0.363   0.485   2.127
96835SOL    HW192338   0.311   0.407   2.107
96835SOL    HW292339   0.397   0.469   2.215
96836SOL     OW92340   2.843   3.870  10.010
96836SOL    HW192341   2.752   3.842  10.005
96836SOL    HW292342   2.884   3.809  10.071
96837SOL     OW92343   1.498  14.068   5.376
96837SOL    HW192344   1.553  14.045   5.450
96837SOL    HW292345   1.545  14.035   5.299
96838SOL     OW92346   3.152   0.844   1.486
96838SOL    HW192347   3.164   0.883   1.573
96838SOL    HW292348   3.216   0.772   1.484
96839SOL     OW92349   8.491  10.624   8.760
96839SOL    HW192350   8.443  10.706   8.747
96839SOL    HW292351   8.478  10.603   8.852
96840SOL     OW92352   0.789   6.661   3.897
96840SOL    HW192353   0.856   6.676   3.830
96840SOL    HW292354   0.837   6.655   3.979
96841SOL     OW92355   2.754   7.589   9.946
96841SOL    HW192356   2.697   7.656   9.985
96841SOL    HW292357   2.799   7.550  10.021
96842SOL     OW92358   1.790  13.706   7.380
96842SOL    HW192359   1.754  13.618   7.375
96842SOL    HW292360   1.860  13.708   7.314
96843SOL     OW92361   8.694   8.456   2.940
96843SOL    HW192362   8.659   8.434   2.853
96843SOL    HW292363   8.786   8.430   2.935
96844SOL     OW92364   6.013   2.569   8.191
96844SOL    HW192365   6.022   2.638   8.257
96844SOL    HW292366   5.919   2.566   8.172
96845SOL     OW92367   2.676  12.961   0.186
96845SOL    HW192368   2.612  12.962   0.115
96845SOL    HW292369   2.626  12.934   0.263
96846SOL     OW92370   0.360  13.697   4.503
96846SOL    HW192371   0.453  13.712   4.518
96846SOL    HW292372   0.351  13.603   4.492
96847SOL     OW92373   0.148   2.312   3.865
96847SOL    HW192374   0.198   2.301   3.945
96847SOL    HW292375   0.211   2.348   3.802
96848SOL     OW92376   9.791   0.573  11.362
96848SOL    HW192377   9.803   0.659  11.403
96848SOL    HW292378   9.697   0.557  11.368
96849SOL     OW92379   5.772   7.196  10.294
96849SOL    HW192380   5.785   7.126  10.357
96849SOL    HW292381   5.764   7.151  10.210
96850SOL     OW92382  13.515   0.587   9.004
96850SOL    HW192383  13.439   0.636   8.970
96850SOL    HW292384  13.490   0.563   9.093
96851SOL     OW92385  12.493   3.993   1.316
96851SOL    HW192386  12.506   4.083   1.345
96851SOL    HW292387  12.581   3.962   1.294
96852SOL     OW92388   0.748   5.166   6.801
96852SOL    HW192389   0.733   5.080   6.841
96852SOL    HW292390   0.714   5.157   6.712
96853SOL     OW92391  10.109   7.450   3.405
96853SOL    HW192392  10.115   7.420   3.314
96853SOL    HW292393  10.031   7.406   3.439
96854SOL     OW92394   4.445  11.266   4.780
96854SOL    HW192395   4.448  11.297   4.871
96854SOL    HW292396   4.398  11.336   4.734
96855SOL     OW92397  13.644   0.693   3.067
96855SOL    HW192398  13.694   0.768   3.099
96855SOL    HW292399  13.667   0.687   2.974
96856SOL     OW92400   5.022  12.025  10.983
96856SOL    HW192401   5.117  12.021  10.997
96856SOL    HW292402   5.005  12.117  10.963
96857SOL     OW92403   9.831   4.946   3.905
96857SOL    HW192404   9.765   5.003   3.867
96857SOL    HW292405   9.814   4.860   3.867
96858SOL     OW92406   0.327  10.513   6.438
96858SOL    HW192407   0.247  10.552   6.472
96858SOL    HW292408   0.358  10.456   6.507
96859SOL     OW92409   1.085   4.289   5.737
96859SOL    HW192410   1.162   4.235   5.720
96859SOL    HW292411   1.119   4.377   5.749
96860SOL     OW92412   3.114  12.371   1.230
96860SOL    HW192413   3.097  12.327   1.313
96860SOL    HW292414   3.034  12.360   1.179
96861SOL     OW92415   3.461   5.495   8.590
96861SOL    HW192416   3.406   5.574   8.586
96861SOL    HW292417   3.400   5.425   8.615
96862SOL     OW92418   2.947   4.614   8.371
96862SOL    HW192419   2.966   4.672   8.298
96862SOL    HW292420   3.011   4.544   8.364
96863SOL     OW92421  12.590   9.883   1.808
96863SOL    HW192422  12.588   9.972   1.845
96863SOL    HW292423  12.521   9.836   1.855
96864SOL     OW92424  12.712   9.725   6.406
96864SOL    HW192425  12.627   9.762   6.429
96864SOL    HW292426  12.697   9.677   6.325
96865SOL     OW92427   2.426  10.876   7.396
96865SOL    HW192428   2.453  10.788   7.422
96865SOL    HW292429   2.439  10.878   7.301
96866SOL     OW92430   0.597   1.462   6.451
96866SOL    HW192431   0.576   1.507   6.533
96866SOL    HW292432   0.512   1.437   6.415
96867SOL     OW92433   7.392   3.454   5.895
96867SOL    HW192434   7.303   3.441   5.863
96867SOL    HW292435   7.410   3.376   5.948
96868SOL     OW92436   1.106   6.887   4.819
96868SOL    HW192437   1.103   6.875   4.914
96868SOL    HW292438   1.111   6.981   4.807
96869SOL     OW92439   4.163  10.670   0.768
96869SOL    HW192440   4.130  10.756   0.794
96869SOL    HW292441   4.215  10.688   0.689
96870SOL     OW92442  13.850   2.104   1.646
96870SOL    HW192443  13.770   2.076   1.601
96870SOL    HW292444  13.844   2.065   1.733
96871SOL     OW92445   1.514   7.206  12.019
96871SOL    HW192446   1.468   7.128  12.049
96871SOL    HW292447   1.495   7.272  12.085
96872SOL     OW92448   8.924   6.135   3.340
96872SOL    HW192449   8.997   6.120   3.281
96872SOL    HW292450   8.876   6.208   3.301
96873SOL     OW92451   3.632  12.904   4.411
96873SOL    HW192452   3.728  12.900   4.406
96873SOL    HW292453   3.606  12.814   4.430
96874SOL     OW92454  11.676  11.465  13.001
96874SOL    HW192455  11.727  11.389  13.031
96874SOL    HW292456  11.705  11.478  12.911
96875SOL     OW92457   3.364  13.504   3.437
96875SOL    HW192458   3.410  13.512   3.520
96875SOL    HW292459   3.370  13.411   3.416
96876SOL     OW92460   5.655   5.316   2.584
96876SOL    HW192461   5.610   5.248   2.535
96876SOL    HW292462   5.741   5.280   2.603
96877SOL     OW92463   7.374   0.632   8.728
96877SOL    HW192464   7.377   0.727   8.735
96877SOL    HW292465   7.458   0.602   8.763
96878SOL     OW92466   5.747  11.945  11.533
96878SOL    HW192467   5.839  11.972  11.542
96878SOL    HW292468   5.747  11.887  11.457
96879SOL     OW92469  12.524  14.663   6.906
96879SOL    HW192470  12.563  14.750   6.898
96879SOL    HW292471  12.583  14.606   6.856
96880SOL     OW92472   3.719  13.388   1.369
96880SOL    HW192473   3.629  13.383   1.403
96880SOL    HW292474   3.730  13.479   1.344
96881SOL     OW92475   7.914   5.890  10.525
96881SOL    HW192476   7.887   5.821  10.586
96881SOL    HW292477   8.004   5.868  10.502
96882SOL     OW92478   1.055   8.499  13.593
96882SOL    HW192479   1.060   8.433  13.662
96882SOL    HW292480   0.983   8.470  13.538
96883SOL     OW92481   5.531   1.258   8.818
96883SOL    HW192482   5.505   1.346   8.788
96883SOL    HW292483   5.502   1.199   8.749
96884SOL     OW92484   8.409   0.341  11.969
96884SOL    HW192485   8.319   0.320  11.943
96884SOL    HW292486   8.456   0.353  11.886
96885SOL     OW92487  11.650  14.835   3.827
96885SOL    HW192488  11.584   0.024   3.837
96885SOL    HW292489  11.617  14.780   3.756
96886SOL     OW92490  10.045   1.173   6.263
96886SOL    HW192491   9.966   1.129   6.231
96886SOL    HW292492  10.020   1.265   6.271
96887SOL     OW92493   8.359   6.043   4.780
96887SOL    HW192494   8.273   6.047   4.822
96887SOL    HW292495   8.347   6.088   4.697
96888SOL     OW92496   1.900   7.424   8.565
96888SOL    HW192497   1.924   7.384   8.649
96888SOL    HW292498   1.963   7.388   8.503
96889SOL     OW92499  13.523   1.906   9.567
96889SOL    HW192500  13.435   1.934   9.589
96889SOL    HW292501  13.517   1.811   9.558
96890SOL     OW92502   4.691   8.037   9.345
96890SOL    HW192503   4.701   8.027   9.250
96890SOL    HW292504   4.718   7.952   9.381
96891SOL     OW92505   3.196  13.253   1.092
96891SOL    HW192506   3.283  13.214   1.079
96891SOL    HW292507   3.209  13.319   1.160
96892SOL     OW92508   7.910  10.914  10.800
96892SOL    HW192509   8.001  10.943  10.806
96892SOL    HW292510   7.859  10.986  10.837
96893SOL     OW92511   8.487   8.940   5.247
96893SOL    HW192512   8.414   9.002   5.252
96893SOL    HW292513   8.507   8.936   5.153
96894SOL     OW92514  12.235  13.919   8.095
96894SOL    HW192515  12.206  13.837   8.134
96894SOL    HW292516  12.252  13.897   8.003
96895SOL     OW92517  11.125   0.344   8.749
96895SOL    HW192518  11.160   0.258   8.770
96895SOL    HW292519  11.159   0.402   8.817
96896SOL     OW92520   9.600   3.456  10.063
96896SOL    HW192521   9.627   3.365  10.073
96896SOL    HW292522   9.637   3.500  10.141
96897SOL     OW92523   1.349   8.224   2.697
96897SOL    HW192524   1.260   8.189   2.693
96897SOL    HW292525   1.405   8.147   2.696
96898SOL     OW92526  13.581   3.082   1.881
96898SOL    HW192527  13.546   3.166   1.911
96898SOL    HW292528  13.514   3.049   1.821
96899SOL     OW92529   5.707  14.484  12.705
96899SOL    HW192530   5.707  14.485  12.609
96899SOL    HW292531   5.696  14.575  12.731
96900SOL     OW92532   0.654   5.658   4.272
96900SOL    HW192533   0.573   5.695   4.239
96900SOL    HW292534   0.626   5.592   4.336
96901SOL     OW92535   3.569   7.861   6.136
96901SOL    HW192536   3.479   7.828   6.130
96901SOL    HW292537   3.591   7.886   6.046
96902SOL     OW92538   8.640  11.255   0.996
96902SOL    HW192539   8.618  11.304   0.916
96902SOL    HW292540   8.648  11.322   1.063
96903SOL     OW92541   0.002  11.540  13.970
96903SOL    HW192542  14.832  11.558  14.050
96903SOL    HW292543  14.824  11.571  13.899
96904SOL     OW92544   3.176   1.324   1.505
96904SOL    HW192545   3.192   1.378   1.427
96904SOL    HW292546   3.123   1.251   1.474
96905SOL     OW92547   7.519   2.744   1.006
96905SOL    HW192548   7.574   2.674   1.041
96905SOL    HW292549   7.469   2.702   0.936
96906SOL     OW92550   5.751   1.062   8.548
96906SOL    HW192551   5.660   1.071   8.578
96906SOL    HW292552   5.766   0.967   8.546
96907SOL     OW92553   1.304  14.470   2.893
96907SOL    HW192554   1.225  14.445   2.846
96907SOL    HW292555   1.290  14.562   2.916
96908SOL     OW92556   8.939   7.434   8.638
96908SOL    HW192557   8.897   7.458   8.720
96908SOL    HW292558   8.939   7.338   8.638
96909SOL     OW92559   7.195  14.869   8.471
96909SOL    HW192560   7.227   0.072   8.433
96909SOL    HW292561   7.257  14.849   8.541
96910SOL     OW92562  11.910  11.935   3.593
96910SOL    HW192563  11.832  11.883   3.613
96910SOL    HW292564  11.983  11.873   3.604
96911SOL     OW92565   6.429   3.887  10.019
96911SOL    HW192566   6.521   3.860  10.016
96911SOL    HW292567   6.430   3.971  10.065
96912SOL     OW92568   5.979  14.122  12.625
96912SOL    HW192569   5.907  14.143  12.684
96912SOL    HW292570   6.057  14.125  12.680
96913SOL     OW92571  12.246   6.354  14.105
96913SOL    HW192572  12.236   6.438  14.149
96913SOL    HW292573  12.181   6.356  14.035
96914SOL     OW92574   2.820  14.556  13.589
96914SOL    HW192575   2.890  14.512  13.637
96914SOL    HW292576   2.796  14.630  13.645
96915SOL     OW92577  10.942   1.630  10.367
96915SOL    HW192578  10.869   1.679  10.329
96915SOL    HW292579  10.914   1.539  10.363
96916SOL     OW92580   0.552   4.460   9.047
96916SOL    HW192581   0.633   4.488   9.005
96916SOL    HW292582   0.512   4.540   9.080
96917SOL     OW92583  12.460   4.085  14.530
96917SOL    HW192584  12.411   4.004  14.522
96917SOL    HW292585  12.551   4.058  14.537
96918SOL     OW92586   6.851  10.290  13.371
96918SOL    HW192587   6.762  10.293  13.336
96918SOL    HW292588   6.852  10.355  13.442
96919SOL     OW92589  12.207   1.302   9.754
96919SOL    HW192590  12.145   1.329   9.687
96919SOL    HW292591  12.181   1.350   9.832
96920SOL     OW92592   8.434  12.613   5.594
96920SOL    HW192593   8.480  12.613   5.678
96920SOL    HW292594   8.342  12.620   5.617
96921SOL     OW92595   2.729  12.609   6.757
96921SOL    HW192596   2.699  12.657   6.834
96921SOL    HW292597   2.664  12.628   6.689
96922SOL     OW92598   0.851   0.698  14.204
96922SOL    HW192599   0.906   0.742  14.139
96922SOL    HW292600   0.777   0.758  14.216
96923SOL     OW92601  11.255   1.832   8.492
96923SOL    HW192602  11.323   1.768   8.513
96923SOL    HW292603  11.289   1.915   8.528
96924SOL     OW92604   0.965   5.190  10.724
96924SOL    HW192605   0.978   5.164  10.633
96924SOL    HW292606   0.882   5.238  10.723
96925SOL     OW92607   4.782   5.900   8.441
96925SOL    HW192608   4.829   5.870   8.519
96925SOL    HW292609   4.850   5.927   8.380
96926SOL     OW92610   9.959  14.782  12.150
96926SOL    HW192611   9.882  14.796  12.095
96926SOL    HW292612   9.938  14.704  12.202
96927SOL     OW92613  11.581   1.838  12.249
96927SOL    HW192614  11.630   1.777  12.193
96927SOL    HW292615  11.504   1.861  12.197
96928SOL     OW92616   2.188  10.954   8.636
96928SOL    HW192617   2.143  10.932   8.554
96928SOL    HW292618   2.147  10.898   8.702
96929SOL     OW92619   7.691  11.320   7.559
96929SOL    HW192620   7.659  11.409   7.571
96929SOL    HW292621   7.783  11.323   7.587
96930SOL     OW92622   7.155  10.990   2.735
96930SOL    HW192623   7.097  10.957   2.666
96930SOL    HW292624   7.117  10.955   2.816
96931SOL     OW92625   0.394   5.509   8.535
96931SOL    HW192626   0.489   5.502   8.545
96931SOL    HW292627   0.361   5.421   8.555
96932SOL     OW92628   1.974  12.095   6.239
96932SOL    HW192629   2.012  12.039   6.307
96932SOL    HW292630   1.910  12.038   6.195
96933SOL     OW92631  13.436  10.981   3.021
96933SOL    HW192632  13.349  11.019   3.009
96933SOL    HW292633  13.461  11.006   3.109
96934SOL     OW92634  14.412   7.194  13.141
96934SOL    HW192635  14.475   7.122  13.142
96934SOL    HW292636  14.454   7.263  13.191
96935SOL     OW92637   8.161   7.113   5.532
96935SOL    HW192638   8.090   7.104   5.595
96935SOL    HW292639   8.174   7.025   5.497
96936SOL     OW92640   3.697   3.848   5.148
96936SOL    HW192641   3.604   3.845   5.127
96936SOL    HW292642   3.701   3.829   5.242
96937SOL     OW92643   5.113   9.012   9.576
96937SOL    HW192644   5.077   9.065   9.647
96937SOL    HW292645   5.059   8.933   9.577
96938SOL     OW92646   1.040   4.777   1.290
96938SOL    HW192647   1.068   4.858   1.331
96938SOL    HW292648   1.121   4.732   1.267
96939SOL     OW92649   4.058   6.520   9.400
96939SOL    HW192650   4.145   6.515   9.362
96939SOL    HW292651   4.038   6.613   9.402
96940SOL     OW92652   2.271   3.016  13.347
96940SOL    HW192653   2.314   3.050  13.425
96940SOL    HW292654   2.226   2.936  13.377
96941SOL     OW92655   5.553   3.332   5.449
96941SOL    HW192656   5.504   3.263   5.494
96941SOL    HW292657   5.503   3.348   5.369
96942SOL     OW92658  12.745  12.582   7.697
96942SOL    HW192659  12.826  12.633   7.704
96942SOL    HW292660  12.689  12.635   7.639
96943SOL     OW92661   4.450   0.260   5.750
96943SOL    HW192662   4.417   0.319   5.683
96943SOL    HW292663   4.507   0.199   5.702
96944SOL     OW92664  13.835   7.331   1.256
96944SOL    HW192665  13.767   7.269   1.231
96944SOL    HW292666  13.804   7.367   1.340
96945SOL     OW92667  14.836  14.605   0.691
96945SOL    HW192668  14.865  14.523   0.731
96945SOL    HW292669   0.036  14.639   0.648
96946SOL     OW92670  13.244  10.038   7.838
96946SOL    HW192671  13.284  10.000   7.760
96946SOL    HW292672  13.319  10.063   7.893
96947SOL     OW92673   9.971   2.928   0.542
96947SOL    HW192674   9.966   3.024   0.536
96947SOL    HW292675   9.887   2.898   0.507
96948SOL     OW92676  12.026  13.552   4.339
96948SOL    HW192677  12.099  13.609   4.314
96948SOL    HW292678  12.057  13.463   4.319
96949SOL     OW92679   8.149   4.276   2.832
96949SOL    HW192680   8.192   4.360   2.844
96949SOL    HW292681   8.165   4.228   2.913
96950SOL     OW92682   1.211  13.139   5.836
96950SOL    HW192683   1.135  13.114   5.783
96950SOL    HW292684   1.251  13.212   5.788
96951SOL     OW92685   1.526   4.822   5.539
96951SOL    HW192686   1.608   4.807   5.492
96951SOL    HW292687   1.547   4.891   5.602
96952SOL     OW92688   9.416   3.257   1.767
96952SOL    HW192689   9.491   3.221   1.814
96952SOL    HW292690   9.354   3.282   1.836
96953SOL     OW92691  14.862   2.177  10.724
96953SOL    HW192692  14.816   2.133  10.796
96953SOL    HW292693  14.807   2.253  10.704
96954SOL     OW92694   8.232   2.577   0.630
96954SOL    HW192695   8.247   2.497   0.580
96954SOL    HW292696   8.160   2.554   0.690
96955SOL     OW92697   7.678   6.859   8.478
96955SOL    HW192698   7.726   6.942   8.485
96955SOL    HW292699   7.621   6.858   8.555
96956SOL     OW92700   2.567   3.305  12.832
96956SOL    HW192701   2.512   3.294  12.754
96956SOL    HW292702   2.654   3.323  12.798
96957SOL     OW92703   5.377   8.726  10.699
96957SOL    HW192704   5.432   8.730  10.621
96957SOL    HW292705   5.299   8.678  10.670
96958SOL     OW92706   9.054   2.303   0.974
96958SOL    HW192707   9.088   2.379   1.022
96958SOL    HW292708   9.090   2.312   0.886
96959SOL     OW92709  14.377   2.715   2.886
96959SOL    HW192710  14.435   2.771   2.937
96959SOL    HW292711  14.376   2.632   2.933
96960SOL     OW92712   7.887   3.332   1.877
96960SOL    HW192713   7.908   3.334   1.970
96960SOL    HW292714   7.917   3.416   1.844
96961SOL     OW92715  14.088   8.001   6.641
96961SOL    HW192716  14.074   7.990   6.735
96961SOL    HW292717  14.084   7.912   6.606
96962SOL     OW92718   3.364   5.020   8.847
96962SOL    HW192719   3.276   4.989   8.826
96962SOL    HW292720   3.361   5.035   8.941
96963SOL     OW92721   6.261   0.107  11.113
96963SOL    HW192722   6.219   0.131  11.030
96963SOL    HW292723   6.188   0.102  11.175
96964SOL     OW92724   1.055   1.779   8.903
96964SOL    HW192725   1.119   1.739   8.961
96964SOL    HW292726   1.091   1.866   8.884
96965SOL     OW92727   5.982  13.084   4.731
96965SOL    HW192728   5.893  13.050   4.738
96965SOL    HW292729   6.029  13.016   4.682
96966SOL     OW92730   2.518  11.629  14.399
96966SOL    HW192731   2.538  11.586  14.482
96966SOL    HW292732   2.445  11.580  14.363
96967SOL     OW92733   6.742   9.803  12.999
96967SOL    HW192734   6.780   9.719  13.025
96967SOL    HW292735   6.707   9.788  12.912
96968SOL     OW92736   8.032   9.407   3.571
96968SOL    HW192737   7.946   9.405   3.529
96968SOL    HW292738   8.046   9.318   3.602
96969SOL     OW92739   6.814   8.171   0.094
96969SOL    HW192740   6.768   8.253   0.106
96969SOL    HW292741   6.758   8.105   0.136
96970SOL     OW92742  13.885   8.560   6.700
96970SOL    HW192743  13.805   8.510   6.687
96970SOL    HW292744  13.874   8.639   6.647
96971SOL     OW92745  13.008  11.906   0.731
96971SOL    HW192746  12.970  11.986   0.696
96971SOL    HW292747  13.036  11.857   0.654
96972SOL     OW92748   5.896  11.433   3.069
96972SOL    HW192749   5.845  11.426   2.988
96972SOL    HW292750   5.955  11.506   3.054
96973SOL     OW92751   2.034   4.547   4.388
96973SOL    HW192752   2.025   4.534   4.294
96973SOL    HW292753   2.094   4.621   4.397
96974SOL     OW92754  10.910  14.667   4.570
96974SOL    HW192755  10.945  14.622   4.646
96974SOL    HW292756  10.942  14.757   4.579
96975SOL     OW92757   3.313   9.275  10.096
96975SOL    HW192758   3.339   9.192  10.057
96975SOL    HW292759   3.318   9.261  10.190
96976SOL     OW92760   5.173  10.579   8.194
96976SOL    HW192761   5.223  10.591   8.114
96976SOL    HW292762   5.108  10.513   8.173
96977SOL     OW92763  12.946  14.649  10.004
96977SOL    HW192764  12.908  14.733  10.030
96977SOL    HW292765  13.000  14.624  10.079
96978SOL     OW92766   8.992   7.724  13.823
96978SOL    HW192767   8.935   7.653  13.793
96978SOL    HW292768   8.976   7.729  13.917
96979SOL     OW92769   6.821  12.361   1.101
96979SOL    HW192770   6.787  12.395   1.019
96979SOL    HW292771   6.794  12.424   1.167
96980SOL     OW92772  11.955  14.697   1.325
96980SOL    HW192773  11.938  14.786   1.356
96980SOL    HW292774  12.013  14.659   1.391
96981SOL     OW92775   6.881   7.994  11.819
96981SOL    HW192776   6.815   7.949  11.766
96981SOL    HW292777   6.964   7.978  11.774
96982SOL     OW92778   6.975   4.326   0.534
96982SOL    HW192779   6.901   4.276   0.567
96982SOL    HW292780   7.046   4.308   0.597
96983SOL     OW92781   6.990   8.913   2.364
96983SOL    HW192782   6.986   8.970   2.441
96983SOL    HW292783   6.953   8.830   2.394
96984SOL     OW92784  10.935   9.873   4.862
96984SOL    HW192785  10.928   9.880   4.767
96984SOL    HW292786  10.982   9.952   4.889
96985SOL     OW92787   7.038   3.592   8.825
96985SOL    HW192788   6.985   3.593   8.745
96985SOL    HW292789   6.981   3.556   8.892
96986SOL     OW92790  11.196  10.919  10.259
96986SOL    HW192791  11.214  10.979  10.186
96986SOL    HW292792  11.128  10.963  10.310
96987SOL     OW92793   8.986  14.710   5.435
96987SOL    HW192794   8.992  14.659   5.516
96987SOL    HW292795   8.901  14.754   5.440
96988SOL     OW92796   8.926   8.529   7.202
96988SOL    HW192797   8.902   8.438   7.186
96988SOL    HW292798   8.997   8.525   7.265
96989SOL     OW92799  12.763   1.583  14.867
96989SOL    HW192800  12.692   1.582  14.804
96989SOL    HW292801  12.750   1.505   0.041
96990SOL     OW92802  12.290   8.976   0.535
96990SOL    HW192803  12.382   8.991   0.557
96990SOL    HW292804  12.244   8.988   0.618
96991SOL     OW92805   4.201  14.114   0.752
96991SOL    HW192806   4.213  14.042   0.815
96991SOL    HW292807   4.205  14.193   0.805
96992SOL     OW92808   6.007   8.385   9.311
96992SOL    HW192809   5.978   8.339   9.232
96992SOL    HW292810   5.993   8.478   9.290
96993SOL     OW92811   9.590  10.061   4.262
96993SOL    HW192812   9.522  10.122   4.233
96993SOL    HW292813   9.673  10.104   4.238
96994SOL     OW92814   6.660  13.243   7.377
96994SOL    HW192815   6.612  13.325   7.370
96994SOL    HW292816   6.595  13.175   7.358
96995SOL     OW92817  12.875  10.474   8.493
96995SOL    HW192818  12.828  10.514   8.420
96995SOL    HW292819  12.830  10.391   8.508
96996SOL     OW92820   8.544  14.285  14.722
96996SOL    HW192821   8.579  14.247  14.641
96996SOL    HW292822   8.549  14.379  14.708
96997SOL     OW92823   1.046   5.690   6.232
96997SOL    HW192824   1.088   5.640   6.302
96997SOL    HW292825   1.103   5.678   6.156
96998SOL     OW92826  14.646  13.932   1.656
96998SOL    HW192827  14.679  13.842   1.665
96998SOL    HW292828  14.668  13.957   1.567
96999SOL     OW92829  11.219  14.793   3.513
96999SOL    HW192830  11.209  14.878   3.557
96999SOL    HW292831  11.308  14.793   3.479
97000SOL     OW92832   1.905   5.956  12.655
97000SOL    HW192833   1.964   5.917  12.719
97000SOL    HW292834   1.892   6.046  12.686
97001SOL     OW92835   8.142   1.198   0.219
97001SOL    HW192836   8.137   1.237   0.132
97001SOL    HW292837   8.174   1.268   0.275
97002SOL     OW92838   2.800  10.068  13.002
97002SOL    HW192839   2.815   9.984  12.958
97002SOL    HW292840   2.750  10.119  12.939
97003SOL     OW92841   2.777   5.611   4.479
97003SOL    HW192842   2.743   5.543   4.421
97003SOL    HW292843   2.822   5.563   4.549
97004SOL     OW92844   3.105   0.240   3.603
97004SOL    HW192845   3.116   0.146   3.587
97004SOL    HW292846   3.176   0.282   3.554
97005SOL     OW92847  10.347  10.783  14.569
97005SOL    HW192848  10.362  10.740  14.485
97005SOL    HW292849  10.364  10.876  14.551
97006SOL     OW92850  12.791   3.539   9.700
97006SOL    HW192851  12.830   3.460   9.739
97006SOL    HW292852  12.819   3.610   9.759
97007SOL     OW92853  12.658   6.304  12.122
97007SOL    HW192854  12.593   6.373  12.135
97007SOL    HW292855  12.704   6.298  12.205
97008SOL     OW92856  13.426   6.094  12.218
97008SOL    HW192857  13.339   6.068  12.248
97008SOL    HW292858  13.480   6.096  12.297
97009SOL     OW92859   4.982   8.313   0.574
97009SOL    HW192860   5.015   8.338   0.487
97009SOL    HW292861   5.060   8.293   0.624
97010SOL     OW92862   5.570   0.646  12.250
97010SOL    HW192863   5.551   0.556  12.222
97010SOL    HW292864   5.635   0.678  12.187
97011SOL     OW92865   8.750   5.715   0.787
97011SOL    HW192866   8.840   5.730   0.813
97011SOL    HW292867   8.697   5.762   0.851
97012SOL     OW92868  12.561  11.488   3.751
97012SOL    HW192869  12.517  11.546   3.813
97012SOL    HW292870  12.490  11.441   3.708
97013SOL     OW92871   3.491   8.382   5.800
97013SOL    HW192872   3.583   8.407   5.810
97013SOL    HW292873   3.443   8.450   5.849
97014SOL     OW92874   1.345   9.341  12.913
97014SOL    HW192875   1.302   9.339  12.998
97014SOL    HW292876   1.278   9.370  12.852
97015SOL     OW92877   0.167   4.112   1.862
97015SOL    HW192878   0.201   4.147   1.944
97015SOL    HW292879   0.182   4.018   1.868
97016SOL     OW92880  10.130   6.509   4.850
97016SOL    HW192881  10.161   6.426   4.815
97016SOL    HW292882  10.036   6.495   4.865
97017SOL     OW92883   1.574   6.025   3.361
97017SOL    HW192884   1.603   5.969   3.288
97017SOL    HW292885   1.485   5.994   3.380
97018SOL     OW92886   0.949  12.564  10.022
97018SOL    HW192887   0.925  12.531   9.936
97018SOL    HW292888   0.909  12.651  10.026
97019SOL     OW92889  12.613   5.693   8.110
97019SOL    HW192890  12.695   5.666   8.151
97019SOL    HW292891  12.584   5.615   8.062
97020SOL     OW92892  10.443   8.111  13.153
97020SOL    HW192893  10.418   8.107  13.061
97020SOL    HW292894  10.360   8.115  13.201
97021SOL     OW92895   8.696  13.196  13.702
97021SOL    HW192896   8.655  13.162  13.622
97021SOL    HW292897   8.632  13.260  13.735
97022SOL     OW92898   8.914   6.372   4.042
97022SOL    HW192899   8.917   6.421   3.959
97022SOL    HW292900   8.970   6.421   4.101
97023SOL     OW92901   1.442   3.105   5.837
97023SOL    HW192902   1.482   3.184   5.800
97023SOL    HW292903   1.416   3.053   5.761
97024SOL     OW92904   3.438  12.670   9.699
97024SOL    HW192905   3.450  12.740   9.764
97024SOL    HW292906   3.521  12.666   9.653
97025SOL     OW92907   7.955   8.358  11.134
97025SOL    HW192908   8.034   8.405  11.162
97025SOL    HW292909   7.908   8.422  11.081
97026SOL     OW92910   8.372  11.596  13.724
97026SOL    HW192911   8.434  11.631  13.788
97026SOL    HW292912   8.361  11.504  13.748
97027SOL     OW92913  11.254  11.455   7.734
97027SOL    HW192914  11.199  11.396   7.786
97027SOL    HW292915  11.215  11.452   7.647
97028SOL     OW92916  13.016   3.637   2.154
97028SOL    HW192917  13.096   3.684   2.178
97028SOL    HW292918  12.993   3.670   2.067
97029SOL     OW92919   8.822   6.872   2.585
97029SOL    HW192920   8.796   6.948   2.638
97029SOL    HW292921   8.759   6.804   2.610
97030SOL     OW92922   2.656   7.823   6.589
97030SOL    HW192923   2.745   7.790   6.605
97030SOL    HW292924   2.665   7.882   6.514
97031SOL     OW92925   8.397  12.794  11.876
97031SOL    HW192926   8.346  12.830  11.804
97031SOL    HW292927   8.446  12.869  11.911
97032SOL     OW92928   6.925   9.754   7.498
97032SOL    HW192929   6.890   9.742   7.410
97032SOL    HW292930   6.862   9.711   7.555
97033SOL     OW92931  14.249  13.915   0.315
97033SOL    HW192932  14.172  13.946   0.268
97033SOL    HW292933  14.214  13.873   0.393
97034SOL     OW92934  12.536   4.274   5.557
97034SOL    HW192935  12.537   4.188   5.515
97034SOL    HW292936  12.455   4.315   5.526
97035SOL     OW92937   6.725   1.272   6.330
97035SOL    HW192938   6.758   1.306   6.247
97035SOL    HW292939   6.672   1.342   6.366
97036SOL     OW92940   5.885  10.144   5.471
97036SOL    HW192941   5.906  10.086   5.399
97036SOL    HW292942   5.946  10.119   5.541
97037SOL     OW92943  11.611   5.101   0.030
97037SOL    HW192944  11.603   5.185   0.076
97037SOL    HW292945  11.591   5.035   0.096
97038SOL     OW92946  14.451  13.989   8.759
97038SOL    HW192947  14.463  13.953   8.847
97038SOL    HW292948  14.498  14.073   8.761
97039SOL     OW92949   4.048   9.842  12.998
97039SOL    HW192950   4.125   9.823  12.944
97039SOL    HW292951   4.079   9.829  13.088
97040SOL     OW92952   2.561   8.646   8.820
97040SOL    HW192953   2.601   8.731   8.837
97040SOL    HW292954   2.531   8.615   8.905
97041SOL     OW92955  10.286   9.953   7.356
97041SOL    HW192956  10.196   9.972   7.330
97041SOL    HW292957  10.279   9.875   7.412
97042SOL     OW92958   9.734   1.841  13.702
97042SOL    HW192959   9.761   1.902  13.771
97042SOL    HW292960   9.643   1.863  13.685
97043SOL     OW92961  12.579  11.854  14.581
97043SOL    HW192962  12.524  11.787  14.539
97043SOL    HW292963  12.538  11.869  14.666
97044SOL     OW92964   9.110   5.337   1.021
97044SOL    HW192965   9.112   5.241   1.014
97044SOL    HW292966   9.021   5.361   0.996
97045SOL     OW92967   1.965   6.661   5.731
97045SOL    HW192968   1.974   6.635   5.822
97045SOL    HW292969   1.982   6.755   5.731
97046SOL     OW92970   5.826   8.932   7.197
97046SOL    HW192971   5.834   8.840   7.173
97046SOL    HW292972   5.805   8.976   7.115
97047SOL     OW92973   8.661  12.768   5.154
97047SOL    HW192974   8.597  12.756   5.225
97047SOL    HW292975   8.740  12.724   5.185
97048SOL     OW92976   5.015   1.152  10.465
97048SOL    HW192977   5.009   1.203  10.384
97048SOL    HW292978   5.108   1.137  10.477
97049SOL     OW92979   4.977   4.368  11.707
97049SOL    HW192980   4.946   4.379  11.618
97049SOL    HW292981   4.899   4.379  11.761
97050SOL     OW92982   1.527   0.545   0.319
97050SOL    HW192983   1.606   0.497   0.296
97050SOL    HW292984   1.560   0.627   0.357
97051SOL     OW92985   9.357  13.369   3.401
97051SOL    HW192986   9.401  13.408   3.324
97051SOL    HW292987   9.324  13.444   3.450
97052SOL     OW92988   3.634   3.172   8.424
97052SOL    HW192989   3.680   3.095   8.458
97052SOL    HW292990   3.635   3.160   8.329
97053SOL     OW92991   1.548   1.926  11.854
97053SOL    HW192992   1.527   2.014  11.885
97053SOL    HW292993   1.509   1.868  11.919
97054SOL     OW92994   5.574   6.986   7.600
97054SOL    HW192995   5.521   6.985   7.520
97054SOL    HW292996   5.528   7.047   7.658
97055SOL     OW92997   9.087   4.083   3.399
97055SOL    HW192998   8.991   4.088   3.406
97055SOL    HW292999   9.107   4.129   3.318
97056SOL     OW93000   2.632   9.073   1.847
97056SOL    HW193001   2.580   9.109   1.775
97056SOL    HW293002   2.717   9.117   1.839
97057SOL     OW93003  12.143   8.025  14.514
97057SOL    HW193004  12.226   8.069  14.536
97057SOL    HW293005  12.116   7.983  14.595
97058SOL     OW93006  11.486   7.876  13.120
97058SOL    HW193007  11.575   7.903  13.098
97058SOL    HW293008  11.469   7.801  13.062
97059SOL     OW93009  13.244   2.384   5.998
97059SOL    HW193010  13.313   2.390   5.932
97059SOL    HW293011  13.282   2.331   6.068
97060SOL     OW93012   9.869  10.207   4.237
97060SOL    HW193013   9.839  10.269   4.303
97060SOL    HW293014   9.936  10.255   4.187
97061SOL     OW93015  10.677   9.763   4.035
97061SOL    HW193016  10.681   9.668   4.023
97061SOL    HW293017  10.704   9.777   4.125
97062SOL     OW93018   3.201  10.176   9.651
97062SOL    HW193019   3.287  10.213   9.633
97062SOL    HW293020   3.147  10.251   9.675
97063SOL     OW93021  11.842   9.284   7.665
97063SOL    HW193022  11.862   9.194   7.691
97063SOL    HW293023  11.900   9.338   7.718
97064SOL     OW93024  10.489   4.253   6.909
97064SOL    HW193025  10.561   4.298   6.954
97064SOL    HW293026  10.524   4.234   6.822
97065SOL     OW93027   2.972  12.200   9.105
97065SOL    HW193028   3.054  12.158   9.130
97065SOL    HW293029   2.987  12.229   9.015
97066SOL     OW93030  13.626  12.837   9.701
97066SOL    HW193031  13.635  12.864   9.609
97066SOL    HW293032  13.652  12.745   9.702
97067SOL     OW93033   9.871  12.725  14.703
97067SOL    HW193034   9.810  12.775  14.649
97067SOL    HW293035   9.957  12.743  14.666
97068SOL     OW93036   6.320  14.771   1.415
97068SOL    HW193037   6.319  14.724   1.498
97068SOL    HW293038   6.389  14.728   1.364
97069SOL     OW93039   2.727  13.144  11.391
97069SOL    HW193040   2.778  13.122  11.469
97069SOL    HW293041   2.655  13.198  11.424
97070SOL     OW93042  11.337  13.583  14.254
97070SOL    HW193043  11.334  13.637  14.332
97070SOL    HW293044  11.358  13.644  14.183
97071SOL     OW93045   5.525   2.848   1.786
97071SOL    HW193046   5.617   2.838   1.813
97071SOL    HW293047   5.529   2.848   1.690
97072SOL     OW93048   7.501   0.623  10.332
97072SOL    HW193049   7.551   0.665  10.262
97072SOL    HW293050   7.565   0.612  10.403
97073SOL     OW93051   2.878   2.604  11.364
97073SOL    HW193052   2.897   2.547  11.289
97073SOL    HW293053   2.795   2.646  11.343
97074SOL     OW93054   3.485  10.315   8.765
97074SOL    HW193055   3.419  10.247   8.772
97074SOL    HW293056   3.534  10.309   8.847
97075SOL     OW93057   7.313   6.425   7.450
97075SOL    HW193058   7.407   6.445   7.449
97075SOL    HW293059   7.271   6.510   7.449
97076SOL     OW93060  11.808   6.507   6.310
97076SOL    HW193061  11.867   6.433   6.296
97076SOL    HW293062  11.853   6.562   6.373
97077SOL     OW93063  13.091  14.490  11.538
97077SOL    HW193064  13.064  14.399  11.525
97077SOL    HW293065  13.119  14.519  11.451
97078SOL     OW93066   0.622   5.505   9.037
97078SOL    HW193067   0.663   5.432   9.083
97078SOL    HW293068   0.549   5.532   9.093
97079SOL     OW93069   8.854   6.010   7.770
97079SOL    HW193070   8.930   6.063   7.746
97079SOL    HW293071   8.834   6.037   7.860
97080SOL     OW93072  10.159   3.317   0.427
97080SOL    HW193073  10.226   3.375   0.391
97080SOL    HW293074  10.206   3.264   0.492
97081SOL     OW93075   7.047  11.534  12.065
97081SOL    HW193076   6.972  11.538  12.006
97081SOL    HW293077   7.079  11.444  12.056
97082SOL     OW93078   4.256   8.436   3.927
97082SOL    HW193079   4.333   8.476   3.968
97082SOL    HW293080   4.290   8.397   3.846
97083SOL     OW93081  13.636  14.109   9.613
97083SOL    HW193082  13.659  14.045   9.680
97083SOL    HW293083  13.617  14.057   9.535
97084SOL     OW93084  11.938   1.382   9.826
97084SOL    HW193085  11.964   1.457   9.772
97084SOL    HW293086  11.844   1.393   9.839
97085SOL     OW93087   5.180   2.432  11.635
97085SOL    HW193088   5.261   2.483  11.643
97085SOL    HW293089   5.149   2.421  11.725
97086SOL     OW93090  11.625  10.462   3.451
97086SOL    HW193091  11.645  10.501   3.366
97086SOL    HW293092  11.536  10.428   3.442
97087SOL     OW93093   2.410   8.145   1.306
97087SOL    HW193094   2.401   8.239   1.296
97087SOL    HW293095   2.483   8.122   1.248
97088SOL     OW93096   3.798   4.344   1.432
97088SOL    HW193097   3.796   4.382   1.519
97088SOL    HW293098   3.782   4.250   1.445
97089SOL     OW93099   3.216  11.524   1.705
97089SOL    HW193100   3.216  11.531   1.801
97089SOL    HW293101   3.237  11.612   1.675
97090SOL     OW93102   5.661   0.750  11.578
97090SOL    HW193103   5.616   0.795  11.507
97090SOL    HW293104   5.685   0.665  11.541
97091SOL     OW93105   9.912  10.051   0.066
97091SOL    HW193106   9.971  10.045  14.870
97091SOL    HW293107   9.844  10.113   0.038
97092SOL     OW93108   4.849   0.698  12.202
97092SOL    HW193109   4.897   0.615  12.198
97092SOL    HW293110   4.771   0.678  12.254
97093SOL     OW93111   1.415   9.366   4.473
97093SOL    HW193112   1.371   9.410   4.545
97093SOL    HW293113   1.345   9.340   4.413
97094SOL     OW93114   9.780   5.115  13.475
97094SOL    HW193115   9.726   5.188  13.504
97094SOL    HW293116   9.761   5.106  13.381
97095SOL     OW93117  10.520  14.349   5.188
97095SOL    HW193118  10.493  14.307   5.106
97095SOL    HW293119  10.552  14.435   5.161
97096SOL     OW93120   6.813   0.216   2.804
97096SOL    HW193121   6.845   0.210   2.894
97096SOL    HW293122   6.727   0.257   2.813
97097SOL     OW93123   7.444   6.394   5.171
97097SOL    HW193124   7.390   6.359   5.243
97097SOL    HW293125   7.398   6.366   5.092
97098SOL     OW93126   9.693  14.732   4.416
97098SOL    HW193127   9.683  14.773   4.502
97098SOL    HW293128   9.697  14.805   4.354
97099SOL     OW93129   7.413   6.723   8.375
97099SOL    HW193130   7.496   6.769   8.388
97099SOL    HW293131   7.391   6.738   8.283
97100SOL     OW93132   4.460   4.090   0.679
97100SOL    HW193133   4.445   4.054   0.591
97100SOL    HW293134   4.441   4.018   0.738
97101SOL     OW93135   1.224   8.917   3.685
97101SOL    HW193136   1.142   8.927   3.636
97101SOL    HW293137   1.292   8.914   3.619
97102SOL     OW93138   7.197   9.160  13.412
97102SOL    HW193139   7.270   9.165  13.474
97102SOL    HW293140   7.119   9.166  13.466
97103SOL     OW93141   7.975   9.895   4.971
97103SOL    HW193142   8.027   9.924   4.897
97103SOL    HW293143   7.967   9.800   4.959
97104SOL     OW93144   7.900   8.242   0.841
97104SOL    HW193145   7.834   8.264   0.775
97104SOL    HW293146   7.861   8.169   0.890
97105SOL     OW93147  14.720   9.528  13.205
97105SOL    HW193148  14.759   9.537  13.292
97105SOL    HW293149  14.722   9.616  13.168
97106SOL     OW93150   3.273   1.420  14.336
97106SOL    HW193151   3.316   1.364  14.401
97106SOL    HW293152   3.255   1.361  14.262
97107SOL     OW93153   4.063   6.273  12.191
97107SOL    HW193154   4.153   6.305  12.194
97107SOL    HW293155   4.016   6.337  12.136
97108SOL     OW93156   7.098  12.401  12.060
97108SOL    HW193157   7.083  12.308  12.043
97108SOL    HW293158   7.095  12.443  11.974
97109SOL     OW93159   1.862  13.916  14.181
97109SOL    HW193160   1.814  13.881  14.257
97109SOL    HW293161   1.867  14.010  14.199
97110SOL     OW93162   9.816  11.458   7.606
97110SOL    HW193163   9.900  11.490   7.638
97110SOL    HW293164   9.815  11.481   7.514
97111SOL     OW93165   0.918  11.515  10.415
97111SOL    HW193166   0.903  11.469  10.498
97111SOL    HW293167   0.846  11.487  10.359
97112SOL     OW93168   0.507   4.217   1.642
97112SOL    HW193169   0.460   4.206   1.560
97112SOL    HW293170   0.469   4.295   1.682
97113SOL     OW93171   4.144  14.758   6.645
97113SOL    HW193172   4.079  14.754   6.716
97113SOL    HW293173   4.194  14.677   6.656
97114SOL     OW93174  11.035   0.984   8.186
97114SOL    HW193175  11.120   0.978   8.231
97114SOL    HW293176  11.032   1.074   8.153
97115SOL     OW93177   7.317  12.108  11.704
97115SOL    HW193178   7.271  12.091  11.787
97115SOL    HW293179   7.409  12.111  11.728
97116SOL     OW93180  11.823  10.024   2.739
97116SOL    HW193181  11.761  10.015   2.667
97116SOL    HW293182  11.894   9.964   2.717
97117SOL     OW93183   7.584   2.150  11.646
97117SOL    HW193184   7.578   2.178  11.555
97117SOL    HW293185   7.673   2.174  11.672
97118SOL     OW93186  12.347  10.931   0.095
97118SOL    HW193187  12.274  10.875   0.069
97118SOL    HW293188  12.311  11.019   0.093
97119SOL     OW93189   3.273   3.656  14.109
97119SOL    HW193190   3.325   3.734  14.127
97119SOL    HW293191   3.263   3.657  14.013
97120SOL     OW93192   8.292   1.231   8.984
97120SOL    HW193193   8.263   1.304   9.039
97120SOL    HW293194   8.383   1.251   8.963
97121SOL     OW93195   8.029   0.034   4.132
97121SOL    HW193196   8.069   0.119   4.114
97121SOL    HW293197   7.937   0.053   4.149
97122SOL     OW93198   9.979   0.515  11.625
97122SOL    HW193199   9.987   0.603  11.662
97122SOL    HW293200  10.048   0.511  11.559
97123SOL     OW93201   8.580   4.820   2.662
97123SOL    HW193202   8.573   4.776   2.577
97123SOL    HW293203   8.619   4.905   2.642
97124SOL     OW93204   8.887  14.078   2.519
97124SOL    HW193205   8.888  14.052   2.611
97124SOL    HW293206   8.802  14.120   2.508
97125SOL     OW93207  14.854   0.781   6.416
97125SOL    HW193208   0.043   0.741   6.362
97125SOL    HW293209  14.833   0.863   6.372
97126SOL     OW93210   0.778  12.670   9.723
97126SOL    HW193211   0.774  12.752   9.673
97126SOL    HW293212   0.862  12.631   9.699
97127SOL     OW93213   1.821  10.677  13.042
97127SOL    HW193214   1.749  10.671  12.979
97127SOL    HW293215   1.861  10.590  13.041
97128SOL     OW93216   6.264   5.813  11.358
97128SOL    HW193217   6.288   5.779  11.444
97128SOL    HW293218   6.347   5.830  11.315
97129SOL     OW93219  13.920  14.686  13.729
97129SOL    HW193220  14.014  14.678  13.711
97129SOL    HW293221  13.915  14.737  13.809
97130SOL     OW93222   3.119   5.150  10.230
97130SOL    HW193223   3.123   5.070  10.178
97130SOL    HW293224   3.035   5.190  10.205
97131SOL     OW93225   8.304  11.019   9.152
97131SOL    HW193226   8.360  10.941   9.159
97131SOL    HW293227   8.350  11.076   9.091
97132SOL     OW93228  11.791  12.228   0.890
97132SOL    HW193229  11.844  12.156   0.855
97132SOL    HW293230  11.852  12.278   0.945
97133SOL     OW93231  14.251   0.276   5.017
97133SOL    HW193232  14.229   0.188   5.048
97133SOL    HW293233  14.284   0.262   4.928
97134SOL     OW93234  13.577  11.969  12.717
97134SOL    HW193235  13.625  12.037  12.764
97134SOL    HW293236  13.513  12.017  12.664
97135SOL     OW93237   6.074  13.087  12.322
97135SOL    HW193238   6.063  13.001  12.363
97135SOL    HW293239   6.020  13.145  12.376
97136SOL     OW93240   8.173   5.273   3.816
97136SOL    HW193241   8.216   5.354   3.792
97136SOL    HW293242   8.122   5.295   3.894
97137SOL     OW93243   0.931  12.401  11.651
97137SOL    HW193244   1.020  12.387  11.620
97137SOL    HW293245   0.882  12.426  11.572
97138SOL     OW93246  10.899   6.255  12.354
97138SOL    HW193247  10.807   6.229  12.343
97138SOL    HW293248  10.928   6.276  12.265
97139SOL     OW93249   4.667   4.453   9.845
97139SOL    HW193250   4.664   4.490   9.757
97139SOL    HW293251   4.758   4.461   9.872
97140SOL     OW93252   6.147   6.196  11.182
97140SOL    HW193253   6.211   6.261  11.152
97140SOL    HW293254   6.180   6.167  11.267
97141SOL     OW93255   3.991   8.300   4.808
97141SOL    HW193256   4.075   8.258   4.793
97141SOL    HW293257   3.961   8.327   4.721
97142SOL     OW93258   9.028   2.342   8.693
97142SOL    HW193259   8.992   2.399   8.624
97142SOL    HW293260   9.059   2.403   8.760
97143SOL     OW93261  11.815   2.375  14.734
97143SOL    HW193262  11.910   2.364  14.731
97143SOL    HW293263  11.798   2.451  14.679
97144SOL     OW93264   7.069   9.333   3.300
97144SOL    HW193265   7.074   9.314   3.393
97144SOL    HW293266   7.127   9.408   3.287
97145SOL     OW93267   5.577  11.543  13.455
97145SOL    HW193268   5.494  11.576  13.422
97145SOL    HW293269   5.632  11.620  13.465
97146SOL     OW93270   1.072   3.117   1.660
97146SOL    HW193271   1.030   3.201   1.642
97146SOL    HW293272   1.005   3.052   1.640
97147SOL     OW93273   1.069  13.605   3.211
97147SOL    HW193274   1.160  13.619   3.184
97147SOL    HW293275   1.030  13.693   3.209
97148SOL     OW93276  14.422  10.950   6.194
97148SOL    HW193277  14.498  10.999   6.163
97148SOL    HW293278  14.377  10.922   6.114
97149SOL     OW93279   9.875   7.521   7.929
97149SOL    HW193280   9.806   7.551   7.869
97149SOL    HW293281   9.846   7.434   7.955
97150SOL     OW93282   5.250  11.104   1.897
97150SOL    HW193283   5.276  11.096   1.805
97150SOL    HW293284   5.325  11.147   1.939
97151SOL     OW93285  11.492   8.825   1.009
97151SOL    HW193286  11.572   8.862   0.971
97151SOL    HW293287  11.499   8.843   1.102
97152SOL     OW93288   8.582  13.602  11.666
97152SOL    HW193289   8.519  13.673  11.658
97152SOL    HW293290   8.538  13.536  11.720
97153SOL     OW93291   7.722  10.016   3.148
97153SOL    HW193292   7.762   9.978   3.069
97153SOL    HW293293   7.718   9.944   3.210
97154SOL     OW93294   0.718   5.298  10.600
97154SOL    HW193295   0.752   5.368  10.544
97154SOL    HW293296   0.685   5.342  10.678
97155SOL     OW93297   3.607   9.029  13.567
97155SOL    HW193298   3.572   8.946  13.600
97155SOL    HW293299   3.575   9.034  13.477
97156SOL     OW93300  10.895   2.593   9.490
97156SOL    HW193301  10.889   2.636   9.405
97156SOL    HW293302  10.956   2.520   9.476
97157SOL     OW93303  10.540   2.139   0.684
97157SOL    HW193304  10.445   2.151   0.694
97157SOL    HW293305  10.571   2.225   0.653
97158SOL     OW93306  12.542   5.991  13.700
97158SOL    HW193307  12.573   5.902  13.717
97158SOL    HW293308  12.459   5.996  13.748
97159SOL     OW93309  12.326   7.851   3.720
97159SOL    HW193310  12.330   7.758   3.701
97159SOL    HW293311  12.409   7.886   3.687
97160SOL     OW93312   1.703  12.371   3.408
97160SOL    HW193313   1.784  12.361   3.460
97160SOL    HW293314   1.694  12.288   3.362
97161SOL     OW93315   5.636   4.765  13.422
97161SOL    HW193316   5.730   4.770  13.439
97161SOL    HW293317   5.622   4.824  13.348
97162SOL     OW93318   9.656  14.082   2.467
97162SOL    HW193319   9.642  14.039   2.382
97162SOL    HW293320   9.632  14.016   2.532
97163SOL     OW93321   4.877   8.736   8.109
97163SOL    HW193322   4.893   8.697   8.023
97163SOL    HW293323   4.782   8.744   8.114
97164SOL     OW93324   8.467   5.682   0.525
97164SOL    HW193325   8.500   5.650   0.442
97164SOL    HW293326   8.516   5.763   0.541
97165SOL     OW93327  13.294   6.263   8.525
97165SOL    HW193328  13.235   6.200   8.485
97165SOL    HW293329  13.321   6.320   8.452
97166SOL     OW93330   3.108   5.400  11.860
97166SOL    HW193331   3.013   5.394  11.859
97166SOL    HW293332   3.126   5.494  11.868
97167SOL     OW93333   1.691   7.508  13.792
97167SOL    HW193334   1.748   7.436  13.763
97167SOL    HW293335   1.642   7.532  13.713
97168SOL     OW93336  13.326   7.662   6.727
97168SOL    HW193337  13.282   7.741   6.696
97168SOL    HW293338  13.406   7.657   6.674
97169SOL     OW93339  12.273   1.613  10.613
97169SOL    HW193340  12.334   1.686  10.605
97169SOL    HW293341  12.327   1.540  10.645
97170SOL     OW93342   9.255   1.106   5.580
97170SOL    HW193343   9.182   1.158   5.548
97170SOL    HW293344   9.322   1.170   5.605
97171SOL     OW93345   0.931   1.548  12.103
97171SOL    HW193346   0.914   1.459  12.134
97171SOL    HW293347   0.974   1.537  12.019
97172SOL     OW93348   3.302   4.532   9.240
97172SOL    HW193349   3.354   4.452   9.236
97172SOL    HW293350   3.214   4.502   9.262
97173SOL     OW93351   8.453   2.629   9.577
97173SOL    HW193352   8.394   2.590   9.513
97173SOL    HW293353   8.395   2.669   9.643
97174SOL     OW93354   1.149   7.769   3.935
97174SOL    HW193355   1.219   7.716   3.974
97174SOL    HW293356   1.182   7.859   3.938
97175SOL     OW93357  11.679   6.134   8.870
97175SOL    HW193358  11.622   6.121   8.945
97175SOL    HW293359  11.757   6.081   8.889
97176SOL     OW93360  12.748   5.689   2.371
97176SOL    HW193361  12.666   5.646   2.348
97176SOL    HW293362  12.770   5.742   2.295
97177SOL     OW93363   7.852  11.544   7.789
97177SOL    HW193364   7.808  11.469   7.831
97177SOL    HW293365   7.798  11.564   7.713
97178SOL     OW93366   0.384  11.821   8.498
97178SOL    HW193367   0.304  11.801   8.547
97178SOL    HW293368   0.401  11.913   8.517
97179SOL     OW93369   7.974   8.821   7.734
97179SOL    HW193370   7.956   8.729   7.749
97179SOL    HW293371   7.898   8.867   7.770
97180SOL     OW93372   2.660  13.282   1.684
97180SOL    HW193373   2.656  13.369   1.644
97180SOL    HW293374   2.569  13.262   1.705
97181SOL     OW93375  12.933  14.655  11.171
97181SOL    HW193376  12.851  14.698  11.146
97181SOL    HW293377  12.985  14.654  11.090
97182SOL     OW93378   4.815   1.426  12.282
97182SOL    HW193379   4.727   1.448  12.252
97182SOL    HW293380   4.869   1.501  12.254
97183SOL     OW93381   1.151  14.654   4.109
97183SOL    HW193382   1.119  14.614   4.028
97183SOL    HW293383   1.246  14.660   4.098
97184SOL     OW93384  14.044  10.947   6.135
97184SOL    HW193385  14.079  10.902   6.211
97184SOL    HW293386  14.015  11.032   6.169
97185SOL     OW93387  13.713   3.172   0.593
97185SOL    HW193388  13.693   3.265   0.602
97185SOL    HW293389  13.629   3.130   0.577
97186SOL     OW93390   7.534  10.611   8.155
97186SOL    HW193391   7.575  10.530   8.124
97186SOL    HW293392   7.454  10.619   8.103
97187SOL     OW93393  12.628   0.139  12.973
97187SOL    HW193394  12.660   0.226  12.951
97187SOL    HW293395  12.659   0.124  13.062
97188SOL     OW93396  11.122  12.751  10.891
97188SOL    HW193397  11.189  12.818  10.902
97188SOL    HW293398  11.153  12.698  10.817
97189SOL     OW93399   3.255   9.380   4.630
97189SOL    HW193400   3.343   9.356   4.603
97189SOL    HW293401   3.267   9.452   4.691
97190SOL     OW93402   5.250  11.273   7.751
97190SOL    HW193403   5.160  11.287   7.721
97190SOL    HW293404   5.304  11.310   7.681
97191SOL     OW93405  14.310   9.019   4.078
97191SOL    HW193406  14.358   9.046   4.000
97191SOL    HW293407  14.230   8.979   4.044
97192SOL     OW93408   0.542   7.934  11.410
97192SOL    HW193409   0.510   7.996  11.476
97192SOL    HW293410   0.634   7.919  11.434
97193SOL     OW93411  10.933  10.385  11.022
97193SOL    HW193412  10.952  10.443  11.095
97193SOL    HW293413  10.900  10.443  10.953
97194SOL     OW93414   0.181  10.292  10.263
97194SOL    HW193415   0.168  10.364  10.200
97194SOL    HW293416   0.273  10.299  10.288
97195SOL     OW93417  10.102  10.713   5.235
97195SOL    HW193418  10.163  10.754   5.174
97195SOL    HW293419  10.116  10.759   5.318
97196SOL     OW93420   0.692   4.392   8.443
97196SOL    HW193421   0.784   4.414   8.461
97196SOL    HW293422   0.653   4.382   8.529
97197SOL     OW93423  13.161   4.748  14.842
97197SOL    HW193424  13.122   4.799  14.771
97197SOL    HW293425  13.190   4.667  14.800
97198SOL     OW93426  10.184   0.124   8.985
97198SOL    HW193427  10.239   0.097   9.059
97198SOL    HW293428  10.096   0.129   9.022
97199SOL     OW93429   9.486  11.842   8.734
97199SOL    HW193430   9.542  11.917   8.753
97199SOL    HW293431   9.464  11.806   8.820
97200SOL     OW93432   4.990   6.551   2.674
97200SOL    HW193433   5.010   6.643   2.657
97200SOL    HW293434   4.942   6.522   2.597
97201SOL     OW93435   6.130   1.981  11.421
97201SOL    HW193436   6.139   1.938  11.506
97201SOL    HW293437   6.113   1.909  11.360
97202SOL     OW93438   7.010   3.642   0.162
97202SOL    HW193439   7.051   3.557   0.181
97202SOL    HW293440   6.923   3.634   0.200
97203SOL     OW93441   6.336   5.889   5.341
97203SOL    HW193442   6.255   5.847   5.311
97203SOL    HW293443   6.395   5.885   5.266
97204SOL     OW93444   9.630   3.882  11.477
97204SOL    HW193445   9.579   3.943  11.531
97204SOL    HW293446   9.717   3.922  11.471
97205SOL     OW93447   9.989   5.004   7.499
97205SOL    HW193448   9.896   5.027   7.489
97205SOL    HW293449  10.032   5.087   7.518
97206SOL     OW93450   5.243   8.957  10.336
97206SOL    HW193451   5.149   8.959  10.318
97206SOL    HW293452   5.272   8.873  10.302
97207SOL     OW93453   6.294   3.677  13.055
97207SOL    HW193454   6.329   3.766  13.063
97207SOL    HW293455   6.202   3.689  13.034
97208SOL     OW93456   9.283   3.654   1.649
97208SOL    HW193457   9.342   3.580   1.632
97208SOL    HW293458   9.250   3.678   1.562
97209SOL     OW93459   5.877   1.162   3.814
97209SOL    HW193460   5.970   1.171   3.791
97209SOL    HW293461   5.845   1.252   3.820
97210SOL     OW93462   9.973   6.843  11.128
97210SOL    HW193463   9.897   6.856  11.071
97210SOL    HW293464   9.949   6.770  11.184
97211SOL     OW93465   7.579   0.814  12.250
97211SOL    HW193466   7.654   0.770  12.291
97211SOL    HW293467   7.593   0.804  12.156
97212SOL     OW93468   5.954   3.420   6.595
97212SOL    HW193469   5.977   3.499   6.643
97212SOL    HW293470   5.933   3.451   6.507
97213SOL     OW93471  10.149   7.724   8.358
97213SOL    HW193472  10.076   7.662   8.370
97213SOL    HW293473  10.134   7.791   8.424
97214SOL     OW93474   2.797   7.262  11.109
97214SOL    HW193475   2.704   7.272  11.090
97214SOL    HW293476   2.810   7.168  11.118
97215SOL     OW93477   5.755   5.385   5.858
97215SOL    HW193478   5.669   5.343   5.869
97215SOL    HW293479   5.787   5.350   5.775
97216SOL     OW93480   2.420  13.604   0.058
97216SOL    HW193481   2.358  13.658   0.107
97216SOL    HW293482   2.504  13.648   0.068
97217SOL     OW93483   1.616  10.442   6.987
97217SOL    HW193484   1.653  10.482   7.066
97217SOL    HW293485   1.592  10.354   7.015
97218SOL     OW93486   1.018   5.543   1.144
97218SOL    HW193487   1.082   5.544   1.216
97218SOL    HW293488   1.032   5.460   1.100
97219SOL     OW93489   2.391   2.550   1.189
97219SOL    HW193490   2.435   2.587   1.112
97219SOL    HW293491   2.302   2.531   1.159
97220SOL     OW93492  14.225   7.459   1.881
97220SOL    HW193493  14.291   7.503   1.826
97220SOL    HW293494  14.232   7.367   1.856
97221SOL     OW93495  13.620   8.448   1.368
97221SOL    HW193496  13.639   8.397   1.289
97221SOL    HW293497  13.641   8.389   1.441
97222SOL     OW93498  12.204   4.483  13.118
97222SOL    HW193499  12.266   4.418  13.086
97222SOL    HW293500  12.178   4.451  13.204
97223SOL     OW93501  11.217   8.981  12.076
97223SOL    HW193502  11.167   9.051  12.034
97223SOL    HW293503  11.270   9.025  12.142
97224SOL     OW93504   8.203  11.356   9.703
97224SOL    HW193505   8.153  11.336   9.624
97224SOL    HW293506   8.285  11.307   9.693
97225SOL     OW93507   7.500   9.439   5.245
97225SOL    HW193508   7.448   9.363   5.220
97225SOL    HW293509   7.570   9.404   5.300
97226SOL     OW93510   0.313   4.614   3.275
97226SOL    HW193511   0.291   4.665   3.197
97226SOL    HW293512   0.229   4.592   3.314
97227SOL     OW93513   4.098   5.698  11.778
97227SOL    HW193514   4.085   5.783  11.820
97227SOL    HW293515   4.159   5.716  11.706
97228SOL     OW93516   5.966  11.633  13.663
97228SOL    HW193517   5.900  11.694  13.698
97228SOL    HW293518   6.019  11.688  13.605
97229SOL     OW93519   2.947   6.653  10.451
97229SOL    HW193520   2.951   6.745  10.477
97229SOL    HW293521   2.922   6.656  10.359
97230SOL     OW93522   0.118   5.244   7.089
97230SOL    HW193523   0.069   5.247   7.171
97230SOL    HW293524   0.208   5.221   7.115
97231SOL     OW93525  14.268  10.169   0.800
97231SOL    HW193526  14.311  10.159   0.885
97231SOL    HW293527  14.231  10.257   0.801
97232SOL     OW93528   2.593   0.406   8.054
97232SOL    HW193529   2.510   0.439   8.089
97232SOL    HW293530   2.626   0.349   8.123
97233SOL     OW93531  11.492   1.991   0.461
97233SOL    HW193532  11.469   2.048   0.534
97233SOL    HW293533  11.478   1.903   0.494
97234SOL     OW93534   1.556   1.399   6.800
97234SOL    HW193535   1.649   1.422   6.800
97234SOL    HW293536   1.515   1.463   6.858
97235SOL     OW93537   9.551   3.791  10.678
97235SOL    HW193538   9.464   3.773  10.713
97235SOL    HW293539   9.586   3.861  10.733
97236SOL     OW93540   3.453  12.630   7.940
97236SOL    HW193541   3.501  12.642   8.023
97236SOL    HW293542   3.362  12.619   7.966
97237SOL     OW93543  14.748   8.098   9.996
97237SOL    HW193544  14.824   8.042   9.979
97237SOL    HW293545  14.684   8.039  10.035
97238SOL     OW93546   9.771  11.810   0.769
97238SOL    HW193547   9.759  11.882   0.831
97238SOL    HW293548   9.810  11.740   0.821
97239SOL     OW93549   3.850   4.625  12.715
97239SOL    HW193550   3.844   4.532  12.693
97239SOL    HW293551   3.761   4.657  12.705
97240SOL     OW93552   1.856  14.542   3.309
97240SOL    HW193553   1.929  14.520   3.366
97240SOL    HW293554   1.889  14.527   3.221
97241SOL     OW93555   9.886   3.341   5.211
97241SOL    HW193556   9.912   3.251   5.232
97241SOL    HW293557   9.932   3.361   5.130
97242SOL     OW93558   4.358   4.122   5.651
97242SOL    HW193559   4.283   4.168   5.612
97242SOL    HW293560   4.318   4.054   5.705
97243SOL     OW93561   6.128   1.928  14.275
97243SOL    HW193562   6.079   1.862  14.324
97243SOL    HW293563   6.167   1.983  14.342
97244SOL     OW93564  13.372   7.003  13.962
97244SOL    HW193565  13.277   6.992  13.967
97244SOL    HW293566  13.384   7.075  13.900
97245SOL     OW93567   4.879  13.938   8.196
97245SOL    HW193568   4.909  14.007   8.255
97245SOL    HW293569   4.937  13.945   8.120
97246SOL     OW93570   9.875   3.256   8.250
97246SOL    HW193571   9.827   3.187   8.295
97246SOL    HW293572   9.962   3.254   8.290
97247SOL     OW93573   7.212  11.275   0.706
97247SOL    HW193574   7.275  11.211   0.741
97247SOL    HW293575   7.152  11.291   0.779
97248SOL     OW93576   4.220  12.717   8.402
97248SOL    HW193577   4.205  12.812   8.401
97248SOL    HW293578   4.194  12.688   8.314
97249SOL     OW93579   2.915   6.810   2.705
97249SOL    HW193580   2.867   6.882   2.665
97249SOL    HW293581   2.886   6.732   2.657
97250SOL     OW93582   9.059  11.114   0.059
97250SOL    HW193583   9.151  11.116   0.034
97250SOL    HW293584   9.059  11.076   0.147
97251SOL     OW93585   3.179   7.628  10.578
97251SOL    HW193586   3.097   7.674  10.595
97251SOL    HW293587   3.164   7.582  10.495
97252SOL     OW93588   0.986  13.317  10.039
97252SOL    HW193589   1.001  13.377   9.966
97252SOL    HW293590   1.045  13.349  10.108
97253SOL     OW93591   1.369   6.233  11.201
97253SOL    HW193592   1.334   6.279  11.278
97253SOL    HW293593   1.300   6.171  11.177
97254SOL     OW93594  11.270   4.884   7.490
97254SOL    HW193595  11.348   4.916   7.534
97254SOL    HW293596  11.302   4.853   7.405
97255SOL     OW93597   0.879   7.540   6.756
97255SOL    HW193598   0.841   7.604   6.815
97255SOL    HW293599   0.910   7.469   6.813
97256SOL     OW93600  12.749  10.307  13.712
97256SOL    HW193601  12.802  10.247  13.658
97256SOL    HW293602  12.800  10.389  13.713
97257SOL     OW93603   0.873   6.505  12.794
97257SOL    HW193604   0.851   6.484  12.703
97257SOL    HW293605   0.857   6.424  12.842
97258SOL     OW93606  12.142  14.597   0.717
97258SOL    HW193607  12.127  14.616   0.624
97258SOL    HW293608  12.140  14.502   0.722
97259SOL     OW93609   8.593  12.950   6.199
97259SOL    HW193610   8.566  12.980   6.286
97259SOL    HW293611   8.523  12.980   6.141
97260SOL     OW93612  13.626   2.173   5.190
97260SOL    HW193613  13.536   2.142   5.179
97260SOL    HW293614  13.668   2.154   5.106
97261SOL     OW93615   0.499   2.463   2.822
97261SOL    HW193616   0.467   2.398   2.759
97261SOL    HW293617   0.419   2.499   2.861
97262SOL     OW93618   0.294   3.013   9.544
97262SOL    HW193619   0.215   3.030   9.492
97262SOL    HW293620   0.366   3.026   9.483
97263SOL     OW93621   6.795   7.709   1.023
97263SOL    HW193622   6.793   7.677   0.932
97263SOL    HW293623   6.843   7.642   1.071
97264SOL     OW93624   5.633  14.235   4.945
97264SOL    HW193625   5.685  14.172   4.995
97264SOL    HW293626   5.542  14.209   4.960
97265SOL     OW93627  12.350   9.400   1.317
97265SOL    HW193628  12.363   9.405   1.412
97265SOL    HW293629  12.302   9.318   1.304
97266SOL     OW93630  13.543   8.572   3.294
97266SOL    HW193631  13.528   8.504   3.228
97266SOL    HW293632  13.456   8.597   3.324
97267SOL     OW93633   0.132   5.569  11.347
97267SOL    HW193634   0.223   5.542  11.337
97267SOL    HW293635   0.098   5.512  11.416
97268SOL     OW93636   1.948   2.010   6.348
97268SOL    HW193637   1.876   2.012   6.284
97268SOL    HW293638   2.027   2.020   6.294
97269SOL     OW93639  13.421  10.674   1.934
97269SOL    HW193640  13.326  10.679   1.926
97269SOL    HW293641  13.437  10.662   2.028
97270SOL     OW93642  13.782   3.571  10.900
97270SOL    HW193643  13.688   3.551  10.901
97270SOL    HW293644  13.808   3.559  10.809
97271SOL     OW93645   5.214   9.425   3.830
97271SOL    HW193646   5.169   9.365   3.771
97271SOL    HW293647   5.222   9.506   3.782
97272SOL     OW93648   8.417   2.815  11.711
97272SOL    HW193649   8.367   2.737  11.735
97272SOL    HW293650   8.371   2.887  11.755
97273SOL     OW93651   0.206   7.104   4.772
97273SOL    HW193652   0.171   7.038   4.711
97273SOL    HW293653   0.130   7.159   4.793
97274SOL     OW93654   1.822   9.091   4.752
97274SOL    HW193655   1.786   9.140   4.678
97274SOL    HW293656   1.883   9.152   4.793
97275SOL     OW93657   2.061   0.250   6.509
97275SOL    HW193658   2.036   0.330   6.556
97275SOL    HW293659   1.979   0.218   6.470
97276SOL     OW93660   1.140   1.179   3.479
97276SOL    HW193661   1.099   1.211   3.399
97276SOL    HW293662   1.233   1.198   3.468
97277SOL     OW93663   2.333   6.165  13.762
97277SOL    HW193664   2.319   6.112  13.683
97277SOL    HW293665   2.245   6.177  13.798
97278SOL     OW93666  12.279   5.664  12.464
97278SOL    HW193667  12.261   5.588  12.519
97278SOL    HW293668  12.209   5.663  12.399
97279SOL     OW93669  11.203   7.343   5.379
97279SOL    HW193670  11.293   7.375   5.372
97279SOL    HW293671  11.207   7.275   5.446
97280SOL     OW93672  10.584  11.887   1.873
97280SOL    HW193673  10.575  11.892   1.777
97280SOL    HW293674  10.510  11.833   1.901
97281SOL     OW93675  13.276   4.410   3.534
97281SOL    HW193676  13.194   4.424   3.486
97281SOL    HW293677  13.248   4.402   3.625
97282SOL     OW93678   1.043   3.986   7.229
97282SOL    HW193679   1.039   4.004   7.323
97282SOL    HW293680   1.101   3.911   7.221
97283SOL     OW93681   8.609   8.650   6.486
97283SOL    HW193682   8.643   8.582   6.428
97283SOL    HW293683   8.628   8.618   6.574
97284SOL     OW93684   2.761  11.006   8.419
97284SOL    HW193685   2.743  11.005   8.513
97284SOL    HW293686   2.676  11.024   8.379
97285SOL     OW93687   2.325   9.036  10.414
97285SOL    HW193688   2.326   9.127  10.443
97285SOL    HW293689   2.391   8.993  10.467
97286SOL     OW93690   7.512  11.338   5.042
97286SOL    HW193691   7.444  11.271   5.045
97286SOL    HW293692   7.509  11.372   4.953
97287SOL     OW93693  13.496   7.232   3.003
97287SOL    HW193694  13.544   7.151   2.983
97287SOL    HW293695  13.413   7.223   2.956
97288SOL     OW93696   6.429   3.719   4.102
97288SOL    HW193697   6.469   3.790   4.052
97288SOL    HW293698   6.500   3.683   4.155
97289SOL     OW93699   2.399   6.438   2.701
97289SOL    HW193700   2.477   6.402   2.743
97289SOL    HW293701   2.326   6.386   2.735
97290SOL     OW93702  13.664   1.061   5.863
97290SOL    HW193703  13.713   0.979   5.865
97290SOL    HW293704  13.580   1.039   5.822
97291SOL     OW93705  10.810  10.345  10.510
97291SOL    HW193706  10.791  10.438  10.522
97291SOL    HW293707  10.871  10.324  10.579
97292SOL     OW93708   9.861   8.564   0.919
97292SOL    HW193709   9.772   8.528   0.913
97292SOL    HW293710   9.913   8.507   0.862
97293SOL     OW93711   7.920   4.004   8.700
97293SOL    HW193712   7.931   3.912   8.678
97293SOL    HW293713   7.902   4.005   8.794
97294SOL     OW93714   9.484   9.337   8.759
97294SOL    HW193715   9.490   9.257   8.811
97294SOL    HW293716   9.574   9.369   8.753
97295SOL     OW93717   1.829   7.392  12.350
97295SOL    HW193718   1.734   7.409  12.347
97295SOL    HW293719   1.858   7.403  12.260
97296SOL     OW93720   5.119  14.714  13.797
97296SOL    HW193721   5.149  14.804  13.814
97296SOL    HW293722   5.047  14.724  13.736
97297SOL     OW93723  13.483   8.348   5.256
97297SOL    HW193724  13.484   8.434   5.214
97297SOL    HW293725  13.458   8.287   5.186
97298SOL     OW93726  13.695   7.499  11.412
97298SOL    HW193727  13.760   7.555  11.455
97298SOL    HW293728  13.704   7.519  11.319
97299SOL     OW93729   9.813   9.346   1.596
97299SOL    HW193730   9.818   9.377   1.687
97299SOL    HW293731   9.789   9.253   1.604
97300SOL     OW93732   7.366   8.680   8.110
97300SOL    HW193733   7.421   8.606   8.137
97300SOL    HW293734   7.423   8.734   8.056
97301SOL     OW93735  14.137  12.823   4.545
97301SOL    HW193736  14.106  12.753   4.489
97301SOL    HW293737  14.058  12.862   4.582
97302SOL     OW93738   9.137  10.626   2.276
97302SOL    HW193739   9.115  10.599   2.187
97302SOL    HW293740   9.135  10.545   2.327
97303SOL     OW93741  12.970  12.122   9.223
97303SOL    HW193742  12.923  12.182   9.165
97303SOL    HW293743  13.004  12.178   9.293
97304SOL     OW93744   3.592   4.418   4.997
97304SOL    HW193745   3.537   4.407   4.919
97304SOL    HW293746   3.618   4.329   5.021
97305SOL     OW93747   9.089   0.485   1.348
97305SOL    HW193748   9.154   0.431   1.393
97305SOL    HW293749   9.136   0.522   1.273
97306SOL     OW93750   8.675   0.311   2.327
97306SOL    HW193751   8.601   0.259   2.297
97306SOL    HW293752   8.748   0.250   2.329
97307SOL     OW93753   7.857   9.912  10.319
97307SOL    HW193754   7.893   9.956  10.242
97307SOL    HW293755   7.839   9.983  10.381
97308SOL     OW93756  14.734  13.432   3.778
97308SOL    HW193757  14.799  13.384   3.828
97308SOL    HW293758  14.679  13.364   3.738
97309SOL     OW93759   3.120   7.542   9.758
97309SOL    HW193760   3.169   7.563   9.679
97309SOL    HW293761   3.036   7.507   9.727
97310SOL     OW93762  13.731  10.346   3.058
97310SOL    HW193763  13.643  10.331   3.093
97310SOL    HW293764  13.777  10.392   3.128
97311SOL     OW93765   4.954   5.819  12.493
97311SOL    HW193766   4.912   5.900  12.522
97311SOL    HW293767   4.991   5.840  12.408
97312SOL     OW93768  14.677   2.298   1.478
97312SOL    HW193769  14.655   2.270   1.389
97312SOL    HW293770  14.625   2.241   1.535
97313SOL     OW93771  11.451   4.651  10.929
97313SOL    HW193772  11.411   4.573  10.969
97313SOL    HW293773  11.501   4.616  10.855
97314SOL     OW93774   9.005  12.068   0.283
97314SOL    HW193775   8.940  12.025   0.228
97314SOL    HW293776   9.069  12.000   0.303
97315SOL     OW93777   0.789   1.452   6.271
97315SOL    HW193778   0.721   1.439   6.336
97315SOL    HW293779   0.748   1.428   6.188
97316SOL     OW93780   9.529   1.130   9.289
97316SOL    HW193781   9.464   1.197   9.310
97316SOL    HW293782   9.504   1.055   9.343
97317SOL     OW93783   8.813   9.343   7.284
97317SOL    HW193784   8.766   9.273   7.330
97317SOL    HW293785   8.792   9.330   7.192
97318SOL     OW93786   3.736   8.955   0.317
97318SOL    HW193787   3.760   8.864   0.332
97318SOL    HW293788   3.778   8.978   0.235
97319SOL     OW93789  12.431   9.072  11.641
97319SOL    HW193790  12.473   9.069  11.556
97319SOL    HW293791  12.338   9.082  11.622
97320SOL     OW93792   7.666   9.970  13.550
97320SOL    HW193793   7.704   9.895  13.504
97320SOL    HW293794   7.574   9.947  13.562
97321SOL     OW93795   5.575   6.838   2.085
97321SOL    HW193796   5.607   6.786   2.012
97321SOL    HW293797   5.598   6.787   2.163
97322SOL     OW93798   8.994   3.490   2.986
97322SOL    HW193799   9.060   3.512   3.052
97322SOL    HW293800   9.042   3.489   2.903
97323SOL     OW93801   7.949   9.410  14.803
97323SOL    HW193802   7.980   9.489  14.758
97323SOL    HW293803   8.026   9.356  14.814
97324SOL     OW93804  14.161   1.316   0.945
97324SOL    HW193805  14.240   1.362   0.917
97324SOL    HW293806  14.091   1.379   0.932
97325SOL     OW93807   8.699   7.921  14.848
97325SOL    HW193808   8.777   7.937  14.794
97325SOL    HW293809   8.648   8.002  14.841
97326SOL     OW93810   7.312  10.525   1.375
97326SOL    HW193811   7.315  10.498   1.467
97326SOL    HW293812   7.362  10.458   1.328
97327SOL     OW93813   8.931   9.135  11.621
97327SOL    HW193814   8.850   9.136  11.671
97327SOL    HW293815   8.904   9.109  11.532
97328SOL     OW93816   4.006   5.589   4.400
97328SOL    HW193817   3.983   5.628   4.316
97328SOL    HW293818   3.949   5.512   4.408
97329SOL     OW93819   3.920   6.771  12.358
97329SOL    HW193820   3.897   6.806  12.272
97329SOL    HW293821   4.015   6.767  12.357
97330SOL     OW93822   1.747  11.357   4.948
97330SOL    HW193823   1.655  11.380   4.962
97330SOL    HW293824   1.788  11.439   4.919
97331SOL     OW93825   5.370  14.739   6.886
97331SOL    HW193826   5.335  14.671   6.829
97331SOL    HW293827   5.299  14.758   6.947
97332SOL     OW93828  10.655  10.948   6.588
97332SOL    HW193829  10.608  10.886   6.532
97332SOL    HW293830  10.695  10.893   6.655
97333SOL     OW93831  13.200  13.854  12.173
97333SOL    HW193832  13.192  13.947  12.196
97333SOL    HW293833  13.291  13.832  12.191
97334SOL     OW93834   7.640  14.045   3.620
97334SOL    HW193835   7.650  13.991   3.541
97334SOL    HW293836   7.569  14.004   3.668
97335SOL     OW93837   1.683  10.829  11.491
97335SOL    HW193838   1.763  10.781  11.472
97335SOL    HW293839   1.672  10.820  11.586
97336SOL     OW93840   8.565   3.666   9.447
97336SOL    HW193841   8.472   3.680   9.429
97336SOL    HW293842   8.609   3.743   9.410
97337SOL     OW93843   1.724   8.913   9.305
97337SOL    HW193844   1.746   8.976   9.237
97337SOL    HW293845   1.660   8.855   9.264
97338SOL     OW93846   4.450   0.829  11.201
97338SOL    HW193847   4.360   0.804  11.219
97338SOL    HW293848   4.469   0.790  11.115
97339SOL     OW93849   1.107   8.626   7.386
97339SOL    HW193850   1.125   8.719   7.402
97339SOL    HW293851   1.156   8.605   7.307
97340SOL     OW93852   8.137   8.868   5.020
97340SOL    HW193853   8.200   8.933   5.050
97340SOL    HW293854   8.189   8.805   4.970
97341SOL     OW93855   6.980   6.876   0.686
97341SOL    HW193856   6.933   6.949   0.645
97341SOL    HW293857   7.022   6.914   0.763
97342SOL     OW93858   1.545   8.790  10.765
97342SOL    HW193859   1.616   8.727  10.767
97342SOL    HW293860   1.585   8.872  10.735
97343SOL     OW93861  13.121   9.473   8.207
97343SOL    HW193862  13.155   9.424   8.282
97343SOL    HW293863  13.062   9.413   8.163
97344SOL     OW93864  12.110   3.873  11.706
97344SOL    HW193865  12.115   3.965  11.732
97344SOL    HW293866  12.017   3.855  11.699
97345SOL     OW93867   6.480   6.599  10.348
97345SOL    HW193868   6.422   6.669  10.377
97345SOL    HW293869   6.565   6.622  10.385
97346SOL     OW93870  10.096   2.373   5.968
97346SOL    HW193871  10.074   2.381   5.875
97346SOL    HW293872  10.015   2.394   6.015
97347SOL     OW93873   8.245  12.467  14.238
97347SOL    HW193874   8.332  12.476  14.198
97347SOL    HW293875   8.212  12.556  14.243
97348SOL     OW93876   4.483   1.123   9.576
97348SOL    HW193877   4.462   1.037   9.540
97348SOL    HW293878   4.578   1.121   9.589
97349SOL     OW93879   0.122   7.116   3.556
97349SOL    HW193880   0.106   7.105   3.463
97349SOL    HW293881   0.045   7.165   3.588
97350SOL     OW93882   7.696   9.058   5.634
97350SOL    HW193883   7.786   9.032   5.613
97350SOL    HW293884   7.706   9.130   5.696
97351SOL     OW93885  13.080   5.019   1.323
97351SOL    HW193886  13.043   5.098   1.363
97351SOL    HW293887  13.127   5.051   1.246
97352SOL     OW93888   8.637  11.688   9.594
97352SOL    HW193889   8.687  11.641   9.528
97352SOL    HW293890   8.581  11.621   9.634
97353SOL     OW93891   7.482   6.959   5.243
97353SOL    HW193892   7.555   7.020   5.256
97353SOL    HW293893   7.512   6.878   5.283
97354SOL     OW93894   8.054  10.043  11.728
97354SOL    HW193895   8.078  10.041  11.821
97354SOL    HW293896   7.963  10.074  11.728
97355SOL     OW93897  12.498   0.420   0.101
97355SOL    HW193898  12.570   0.382   0.150
97355SOL    HW293899  12.439   0.347   0.082
97356SOL     OW93900  11.150   2.369   6.636
97356SOL    HW193901  11.097   2.331   6.706
97356SOL    HW293902  11.161   2.461   6.660
97357SOL     OW93903   5.314  10.445  14.665
97357SOL    HW193904   5.367  10.367  14.680
97357SOL    HW293905   5.377  10.517  14.663
97358SOL     OW93906   9.881  11.303  12.720
97358SOL    HW193907   9.804  11.252  12.695
97358SOL    HW293908   9.849  11.393  12.724
97359SOL     OW93909   6.744   6.815  10.085
97359SOL    HW193910   6.710   6.752  10.022
97359SOL    HW293911   6.773   6.889  10.031
97360SOL     OW93912   3.230   9.786  13.299
97360SOL    HW193913   3.175   9.729  13.245
97360SOL    HW293914   3.205   9.875  13.274
97361SOL     OW93915  10.681   6.032  11.141
97361SOL    HW193916  10.768   6.019  11.105
97361SOL    HW293917  10.636   6.087  11.076
97362SOL     OW93918   2.512   9.297   1.109
97362SOL    HW193919   2.583   9.335   1.161
97362SOL    HW293920   2.506   9.353   1.031
97363SOL     OW93921  14.170   3.953   8.857
97363SOL    HW193922  14.174   3.948   8.952
97363SOL    HW293923  14.083   3.922   8.834
97364SOL     OW93924  10.699   8.668   4.235
97364SOL    HW193925  10.618   8.661   4.184
97364SOL    HW293926  10.737   8.752   4.208
97365SOL     OW93927   0.580   1.883   9.176
97365SOL    HW193928   0.610   1.820   9.109
97365SOL    HW293929   0.497   1.847   9.206
97366SOL     OW93930   6.521  10.907   7.251
97366SOL    HW193931   6.469  10.865   7.320
97366SOL    HW293932   6.612  10.886   7.272
97367SOL     OW93933  12.895   9.595   0.550
97367SOL    HW193934  12.892   9.645   0.632
97367SOL    HW293935  12.965   9.637   0.499
97368SOL     OW93936  11.936   3.063   7.253
97368SOL    HW193937  11.945   2.971   7.228
97368SOL    HW293938  11.934   3.110   7.169
97369SOL     OW93939  10.943   9.501   2.311
97369SOL    HW193940  10.922   9.572   2.372
97369SOL    HW293941  10.859   9.466   2.284
97370SOL     OW93942  14.610   8.396   4.817
97370SOL    HW193943  14.657   8.479   4.805
97370SOL    HW293944  14.578   8.399   4.907
97371SOL     OW93945   3.498   0.472  13.068
97371SOL    HW193946   3.446   0.551  13.080
97371SOL    HW293947   3.540   0.457  13.153
97372SOL     OW93948   8.135   1.291  10.801
97372SOL    HW193949   8.095   1.325  10.720
97372SOL    HW293950   8.061   1.274  10.859
97373SOL     OW93951   4.586   2.404   9.652
97373SOL    HW193952   4.599   2.398   9.557
97373SOL    HW293953   4.491   2.403   9.663
97374SOL     OW93954  11.424   9.008   9.782
97374SOL    HW193955  11.438   9.102   9.770
97374SOL    HW293956  11.329   8.999   9.789
97375SOL     OW93957   6.154  10.281   0.488
97375SOL    HW193958   6.179  10.189   0.489
97375SOL    HW293959   6.184  10.313   0.403
97376SOL     OW93960  12.327  12.601   0.819
97376SOL    HW193961  12.392  12.613   0.889
97376SOL    HW293962  12.318  12.507   0.811
97377SOL     OW93963   1.409  12.738   8.240
97377SOL    HW193964   1.462  12.727   8.161
97377SOL    HW293965   1.416  12.831   8.260
97378SOL     OW93966  10.266  10.652   3.813
97378SOL    HW193967  10.198  10.712   3.843
97378SOL    HW293968  10.321  10.705   3.755
97379SOL     OW93969  11.690   7.861  11.189
97379SOL    HW193970  11.781   7.837  11.175
97379SOL    HW293971  11.648   7.845  11.105
97380SOL     OW93972   4.984   8.091   2.120
97380SOL    HW193973   5.006   8.000   2.141
97380SOL    HW293974   5.058   8.123   2.068
97381SOL     OW93975   3.580  11.859   5.145
97381SOL    HW193976   3.587  11.765   5.161
97381SOL    HW293977   3.486  11.874   5.132
97382SOL     OW93978   3.722  10.875   6.047
97382SOL    HW193979   3.718  10.780   6.044
97382SOL    HW293980   3.636  10.903   6.077
97383SOL     OW93981   7.078  14.227   3.573
97383SOL    HW193982   7.055  14.312   3.612
97383SOL    HW293983   7.107  14.174   3.647
97384SOL     OW93984  10.274   7.679   5.215
97384SOL    HW193985  10.339   7.612   5.235
97384SOL    HW293986  10.202   7.661   5.276
97385SOL     OW93987  13.010  13.986  12.932
97385SOL    HW193988  12.927  14.031  12.918
97385SOL    HW293989  13.045  13.972  12.844
97386SOL     OW93990  12.868   3.984  12.437
97386SOL    HW193991  12.883   3.984  12.532
97386SOL    HW293992  12.835   3.896  12.418
97387SOL     OW93993   4.654  14.261  14.292
97387SOL    HW193994   4.689  14.261  14.381
97387SOL    HW293995   4.663  14.352  14.263
97388SOL     OW93996   9.381   4.059   6.784
97388SOL    HW193997   9.457   4.005   6.806
97388SOL    HW293998   9.370   4.116   6.860
97389SOL     OW93999  14.058   1.656  10.897
97389SOL    HW194000  14.076   1.568  10.865
97389SOL    HW294001  14.144   1.694  10.915
97390SOL     OW94002  10.410   9.765   3.934
97390SOL    HW194003  10.374   9.679   3.957
97390SOL    HW294004  10.492   9.770   3.983
97391SOL     OW94005  11.251   6.776  13.856
97391SOL    HW194006  11.193   6.752  13.927
97391SOL    HW294007  11.243   6.705  13.792
97392SOL     OW94008  13.386   0.676   6.175
97392SOL    HW194009  13.380   0.772   6.176
97392SOL    HW294010  13.339   0.649   6.253
97393SOL     OW94011   1.372  14.336   1.434
97393SOL    HW194012   1.446  14.395   1.445
97393SOL    HW294013   1.308  14.388   1.384
97394SOL     OW94014   5.640   4.946  13.221
97394SOL    HW194015   5.670   4.895  13.146
97394SOL    HW294016   5.549   4.969  13.200
97395SOL     OW94017   7.837   1.033   2.300
97395SOL    HW194018   7.845   1.019   2.205
97395SOL    HW294019   7.769   1.100   2.309
97396SOL     OW94020  11.368  14.475  10.165
97396SOL    HW194021  11.280  14.514  10.168
97396SOL    HW294022  11.373  14.435  10.078
97397SOL     OW94023  12.768   9.659   5.367
97397SOL    HW194024  12.734   9.748   5.377
97397SOL    HW294025  12.862   9.668   5.382
97398SOL     OW94026   6.885   1.522   1.846
97398SOL    HW194027   6.789   1.523   1.840
97398SOL    HW294028   6.911   1.607   1.810
97399SOL     OW94029  12.819   5.007   1.142
97399SOL    HW194030  12.909   5.004   1.175
97399SOL    HW294031  12.802   5.100   1.128
97400SOL     OW94032   4.709   6.475  14.415
97400SOL    HW194033   4.757   6.395  14.395
97400SOL    HW294034   4.732   6.536  14.344
97401SOL     OW94035   5.320   8.676   1.484
97401SOL    HW194036   5.412   8.697   1.499
97401SOL    HW294037   5.272   8.752   1.518
97402SOL     OW94038   4.688   4.087   5.599
97402SOL    HW194039   4.716   4.144   5.670
97402SOL    HW294040   4.769   4.054   5.560
97403SOL     OW94041   5.985  12.758  13.984
97403SOL    HW194042   5.890  12.764  13.980
97403SOL    HW294043   6.004  12.736  14.075
97404SOL     OW94044   1.100   4.526   9.659
97404SOL    HW194045   1.159   4.554   9.589
97404SOL    HW294046   1.091   4.431   9.645
97405SOL     OW94047  11.783  10.578  10.704
97405SOL    HW194048  11.801  10.526  10.782
97405SOL    HW294049  11.804  10.519  10.631
97406SOL     OW94050   2.847   2.457   5.040
97406SOL    HW194051   2.827   2.550   5.026
97406SOL    HW294052   2.762   2.413   5.035
97407SOL     OW94053   6.527   4.245  11.069
97407SOL    HW194054   6.484   4.217  10.988
97407SOL    HW294055   6.531   4.166  11.123
97408SOL     OW94056   0.778   4.892   6.037
97408SOL    HW194057   0.866   4.925   6.056
97408SOL    HW294058   0.732   4.896   6.121
97409SOL     OW94059   1.432   9.627  10.509
97409SOL    HW194060   1.466   9.666  10.429
97409SOL    HW294061   1.367   9.563  10.479
97410SOL     OW94062   3.266   0.428   6.094
97410SOL    HW194063   3.308   0.506   6.130
97410SOL    HW294064   3.198   0.462   6.035
97411SOL     OW94065   3.292  12.121   3.412
97411SOL    HW194066   3.289  12.191   3.477
97411SOL    HW294067   3.285  12.040   3.462
97412SOL     OW94068   5.906   9.311  12.394
97412SOL    HW194069   5.935   9.306  12.303
97412SOL    HW294070   5.950   9.388  12.429
97413SOL     OW94071  12.618   3.533  14.347
97413SOL    HW194072  12.697   3.488  14.377
97413SOL    HW294073  12.585   3.578  14.425
97414SOL     OW94074  13.752   2.368   0.377
97414SOL    HW194075  13.689   2.319   0.429
97414SOL    HW294076  13.705   2.447   0.349
97415SOL     OW94077  11.489  11.155   8.556
97415SOL    HW194078  11.419  11.178   8.618
97415SOL    HW294079  11.567  11.146   8.611
97416SOL     OW94080  12.141   3.829  10.035
97416SOL    HW194081  12.116   3.870   9.952
97416SOL    HW294082  12.178   3.901  10.086
97417SOL     OW94083   8.114   2.793   6.274
97417SOL    HW194084   8.027   2.760   6.295
97417SOL    HW294085   8.164   2.785   6.355
97418SOL     OW94086  12.423   5.334  14.805
97418SOL    HW194087  12.368   5.316   0.002
97418SOL    HW294088  12.362   5.369  14.739
97419SOL     OW94089   2.692  11.115  14.173
97419SOL    HW194090   2.683  11.152  14.085
97419SOL    HW294091   2.699  11.021  14.159
97420SOL     OW94092   4.248  13.658   0.283
97420SOL    HW194093   4.286  13.596   0.221
97420SOL    HW294094   4.170  13.691   0.239
97421SOL     OW94095  11.702   3.641   5.151
97421SOL    HW194096  11.716   3.557   5.107
97421SOL    HW294097  11.779   3.693   5.130
97422SOL     OW94098   8.272   1.415   7.049
97422SOL    HW194099   8.186   1.373   7.058
97422SOL    HW294100   8.334   1.345   7.065
97423SOL     OW94101   4.297  12.413  12.894
97423SOL    HW194102   4.294  12.421  12.989
97423SOL    HW294103   4.387  12.387  12.875
97424SOL     OW94104   2.278  10.966   8.963
97424SOL    HW194105   2.355  10.960   8.907
97424SOL    HW294106   2.310  11.007   9.043
97425SOL     OW94107   7.176   2.344  10.382
97425SOL    HW194108   7.197   2.436  10.399
97425SOL    HW294109   7.089   2.332  10.422
97426SOL     OW94110   5.344   6.221   0.856
97426SOL    HW194111   5.421   6.172   0.886
97426SOL    HW294112   5.352   6.222   0.761
97427SOL     OW94113   4.294   3.817   7.209
97427SOL    HW194114   4.275   3.826   7.116
97427SOL    HW294115   4.389   3.828   7.215
97428SOL     OW94116   5.302   3.152   9.087
97428SOL    HW194117   5.224   3.161   9.033
97428SOL    HW294118   5.322   3.058   9.087
97429SOL     OW94119   8.456   6.046  13.867
97429SOL    HW194120   8.363   6.039  13.848
97429SOL    HW294121   8.489   6.110  13.803
97430SOL     OW94122   4.517   8.486   0.528
97430SOL    HW194123   4.471   8.570   0.538
97430SOL    HW294124   4.562   8.494   0.444
97431SOL     OW94125   2.714  13.788   6.642
97431SOL    HW194126   2.700  13.881   6.622
97431SOL    HW294127   2.703  13.782   6.736
97432SOL     OW94128   1.260  14.512  13.955
97432SOL    HW194129   1.327  14.580  13.961
97432SOL    HW294130   1.177  14.560  13.961
97433SOL     OW94131   7.753   6.884   6.357
97433SOL    HW194132   7.771   6.978   6.364
97433SOL    HW294133   7.670   6.879   6.309
97434SOL     OW94134   5.325   2.170   0.255
97434SOL    HW194135   5.399   2.113   0.233
97434SOL    HW294136   5.280   2.125   0.326
97435SOL     OW94137   5.514   3.283   0.565
97435SOL    HW194138   5.423   3.294   0.593
97435SOL    HW294139   5.517   3.194   0.528
97436SOL     OW94140   8.067   7.933  11.511
97436SOL    HW194141   8.104   8.003  11.566
97436SOL    HW294142   8.002   7.977  11.457
97437SOL     OW94143   9.451   5.126   9.874
97437SOL    HW194144   9.423   5.060   9.811
97437SOL    HW294145   9.546   5.115   9.880
97438SOL     OW94146   8.690   4.172   6.168
97438SOL    HW194147   8.752   4.243   6.182
97438SOL    HW294148   8.689   4.124   6.250
97439SOL     OW94149   4.741  10.009  13.701
97439SOL    HW194150   4.781   9.923  13.696
97439SOL    HW294151   4.788  10.054  13.772
97440SOL     OW94152  13.658  14.188   4.112
97440SOL    HW194153  13.646  14.225   4.200
97440SOL    HW294154  13.750  14.207   4.090
97441SOL     OW94155   0.209  14.272   1.238
97441SOL    HW194156   0.271  14.204   1.262
97441SOL    HW294157   0.164  14.294   1.320
97442SOL     OW94158  10.786   3.957   0.999
97442SOL    HW194159  10.825   3.895   1.060
97442SOL    HW294160  10.762   4.033   1.053
97443SOL     OW94161   5.323   5.159  10.359
97443SOL    HW194162   5.404   5.118  10.389
97443SOL    HW294163   5.306   5.119  10.273
97444SOL     OW94164  14.845   5.249  14.110
97444SOL    HW194165  14.844   5.343  14.130
97444SOL    HW294166   0.014   5.209  14.182
97445SOL     OW94167   4.098  11.021   6.168
97445SOL    HW194168   4.012  11.016   6.210
97445SOL    HW294169   4.091  10.961   6.093
97446SOL     OW94170  12.329   4.180   9.372
97446SOL    HW194171  12.375   4.120   9.431
97446SOL    HW294172  12.356   4.267   9.400
97447SOL     OW94173   8.706   5.141   0.084
97447SOL    HW194174   8.800   5.149   0.075
97447SOL    HW294175   8.670   5.221   0.045
97448SOL     OW94176  11.674   5.810   2.205
97448SOL    HW194177  11.623   5.778   2.131
97448SOL    HW294178  11.681   5.905   2.190
97449SOL     OW94179   7.011  11.614  10.560
97449SOL    HW194180   7.079  11.682  10.562
97449SOL    HW294181   6.931  11.660  10.586
97450SOL     OW94182   0.209  11.556   5.874
97450SOL    HW194183   0.188  11.628   5.932
97450SOL    HW294184   0.148  11.486   5.898
97451SOL     OW94185   8.550   0.282   5.818
97451SOL    HW194186   8.623   0.245   5.866
97451SOL    HW294187   8.574   0.273   5.726
97452SOL     OW94188   6.891  13.610   8.198
97452SOL    HW194189   6.886  13.688   8.143
97452SOL    HW294190   6.976  13.616   8.241
97453SOL     OW94191   9.450  12.638  11.501
97453SOL    HW194192   9.380  12.583  11.535
97453SOL    HW294193   9.420  12.663  11.413
97454SOL     OW94194   5.454   3.756  14.223
97454SOL    HW194195   5.437   3.729  14.314
97454SOL    HW294196   5.375   3.731  14.175
97455SOL     OW94197   2.154   5.113   4.437
97455SOL    HW194198   2.118   5.079   4.354
97455SOL    HW294199   2.104   5.193   4.453
97456SOL     OW94200  10.594   6.177  12.390
97456SOL    HW194201  10.594   6.136  12.303
97456SOL    HW294202  10.609   6.104  12.450
97457SOL     OW94203   8.566   9.816  10.126
97457SOL    HW194204   8.660   9.801  10.140
97457SOL    HW294205   8.524   9.739  10.164
97458SOL     OW94206   6.276  12.818   5.532
97458SOL    HW194207   6.260  12.844   5.622
97458SOL    HW294208   6.189  12.808   5.494
97459SOL     OW94209   1.678  11.991   9.757
97459SOL    HW194210   1.721  11.971   9.840
97459SOL    HW294211   1.695  11.914   9.702
97460SOL     OW94212   7.598  13.730  14.504
97460SOL    HW194213   7.533  13.703  14.568
97460SOL    HW294214   7.575  13.821  14.484
97461SOL     OW94215  10.946   2.904  10.300
97461SOL    HW194216  10.958   2.892  10.206
97461SOL    HW294217  11.023   2.952  10.329
97462SOL     OW94218   4.100  12.176  13.892
97462SOL    HW194219   4.137  12.264  13.889
97462SOL    HW294220   4.014  12.188  13.931
97463SOL     OW94221   6.336   1.735   9.877
97463SOL    HW194222   6.405   1.792   9.844
97463SOL    HW294223   6.352   1.650   9.837
97464SOL     OW94224  13.979   0.145   3.240
97464SOL    HW194225  14.015   0.079   3.300
97464SOL    HW294226  13.901   0.104   3.203
97465SOL     OW94227  11.967   7.094   7.498
97465SOL    HW194228  11.898   7.133   7.444
97465SOL    HW294229  12.042   7.152   7.487
97466SOL     OW94230  11.462   6.896   9.973
97466SOL    HW194231  11.537   6.903  10.033
97466SOL    HW294232  11.462   6.804   9.946
97467SOL     OW94233   1.451   3.317   4.483
97467SOL    HW194234   1.432   3.379   4.553
97467SOL    HW294235   1.499   3.246   4.526
97468SOL     OW94236  11.281   8.246   3.978
97468SOL    HW194237  11.210   8.191   4.012
97468SOL    HW294238  11.267   8.250   3.884
97469SOL     OW94239   1.142   6.230   7.940
97469SOL    HW194240   1.176   6.256   8.026
97469SOL    HW294241   1.048   6.247   7.945
97470SOL     OW94242   6.530   0.040   2.968
97470SOL    HW194243   6.573  14.842   2.930
97470SOL    HW294244   6.553   0.036   3.061
97471SOL     OW94245   6.871   4.130  12.958
97471SOL    HW194246   6.790   4.102  13.002
97471SOL    HW294247   6.845   4.139  12.866
97472SOL     OW94248   1.663  12.171  11.496
97472SOL    HW194249   1.752  12.181  11.531
97472SOL    HW294250   1.652  12.076  11.488
97473SOL     OW94251   5.965  14.474  11.512
97473SOL    HW194252   6.042  14.439  11.468
97473SOL    HW294253   5.891  14.440  11.461
97474SOL     OW94254  11.423   9.093   3.652
97474SOL    HW194255  11.510   9.132   3.661
97474SOL    HW294256  11.438   9.010   3.608
97475SOL     OW94257   3.434   0.354   7.293
97475SOL    HW194258   3.382   0.362   7.373
97475SOL    HW294259   3.447   0.260   7.282
97476SOL     OW94260   1.359   3.032   0.035
97476SOL    HW194261   1.407   2.949   0.028
97476SOL    HW294262   1.424   3.095   0.067
97477SOL     OW94263  10.684   3.326   5.220
97477SOL    HW194264  10.675   3.418   5.194
97477SOL    HW294265  10.752   3.327   5.287
97478SOL     OW94266   9.730  11.555   7.941
97478SOL    HW194267   9.824  11.550   7.928
97478SOL    HW294268   9.704  11.637   7.899
97479SOL     OW94269   0.782   8.110  11.397
97479SOL    HW194270   0.747   8.167  11.328
97479SOL    HW294271   0.790   8.167  11.473
97480SOL     OW94272  14.210  14.336   9.253
97480SOL    HW194273  14.214  14.277   9.328
97480SOL    HW294274  14.276  14.303   9.193
97481SOL     OW94275  13.495   2.393   2.172
97481SOL    HW194276  13.531   2.480   2.156
97481SOL    HW294277  13.404   2.398   2.142
97482SOL     OW94278   0.991   6.058  10.618
97482SOL    HW194279   1.015   6.040  10.708
97482SOL    HW294280   0.956   6.147  10.620
97483SOL     OW94281   2.512   3.312  14.398
97483SOL    HW194282   2.436   3.306  14.456
97483SOL    HW294283   2.477   3.297  14.310
97484SOL     OW94284   3.212   4.657   7.649
97484SOL    HW194285   3.203   4.752   7.656
97484SOL    HW294286   3.305   4.643   7.630
97485SOL     OW94287  12.605  12.560   9.492
97485SOL    HW194288  12.628  12.558   9.584
97485SOL    HW294289  12.542  12.632   9.484
97486SOL     OW94290   1.449   5.507  11.758
97486SOL    HW194291   1.404   5.436  11.713
97486SOL    HW294292   1.455   5.577  11.692
97487SOL     OW94293   9.079   7.909   4.030
97487SOL    HW194294   9.131   7.973   4.079
97487SOL    HW294295   9.088   7.936   3.939
97488SOL     OW94296  11.889   5.526   7.001
97488SOL    HW194297  11.803   5.552   7.035
97488SOL    HW294298  11.886   5.430   6.998
97489SOL     OW94299   7.052  14.626   0.652
97489SOL    HW194300   7.000  14.705   0.663
97489SOL    HW294301   7.123  14.651   0.593
97490SOL     OW94302   5.704   9.478   0.434
97490SOL    HW194303   5.724   9.410   0.497
97490SOL    HW294304   5.614   9.503   0.453
97491SOL     OW94305  11.950  10.343  13.204
97491SOL    HW194306  11.988  10.292  13.132
97491SOL    HW294307  11.922  10.277  13.267
97492SOL     OW94308   4.072   7.401  11.350
97492SOL    HW194309   4.090   7.315  11.387
97492SOL    HW294310   4.096   7.394  11.258
97493SOL     OW94311   9.235  11.569   5.861
97493SOL    HW194312   9.201  11.483   5.886
97493SOL    HW294313   9.276  11.602   5.941
97494SOL     OW94314   5.837  10.204  14.674
97494SOL    HW194315   5.884  10.242  14.748
97494SOL    HW294316   5.854  10.110  14.680
97495SOL     OW94317   6.857   4.292   6.390
97495SOL    HW194318   6.896   4.363   6.442
97495SOL    HW294319   6.923   4.222   6.392
97496SOL     OW94320   5.594  11.786  12.951
97496SOL    HW194321   5.561  11.839  13.024
97496SOL    HW294322   5.672  11.832  12.921
97497SOL     OW94323  13.650  10.681   9.617
97497SOL    HW194324  13.720  10.688   9.683
97497SOL    HW294325  13.618  10.592   9.626
97498SOL     OW94326   3.006  13.781   5.988
97498SOL    HW194327   2.935  13.812   5.933
97498SOL    HW294328   3.064  13.733   5.928
97499SOL     OW94329  12.207  13.406   7.717
97499SOL    HW194330  12.249  13.358   7.788
97499SOL    HW294331  12.268  13.476   7.695
97500SOL     OW94332   3.819  11.808   6.819
97500SOL    HW194333   3.760  11.835   6.889
97500SOL    HW294334   3.762  11.800   6.742
97501SOL     OW94335   5.252   6.101   9.143
97501SOL    HW194336   5.279   6.161   9.212
97501SOL    HW294337   5.311   6.118   9.070
97502SOL     OW94338   5.192   1.294   8.472
97502SOL    HW194339   5.276   1.339   8.478
97502SOL    HW294340   5.136   1.354   8.422
97503SOL     OW94341  12.311  14.131   5.063
97503SOL    HW194342  12.340  14.069   4.997
97503SOL    HW294343  12.218  14.146   5.043
97504SOL     OW94344   3.611  11.156   6.815
97504SOL    HW194345   3.662  11.177   6.737
97504SOL    HW294346   3.653  11.206   6.886
97505SOL     OW94347  14.022   4.705  12.090
97505SOL    HW194348  13.930   4.722  12.069
97505SOL    HW294349  14.048   4.780  12.144
97506SOL     OW94350   1.992   9.600   4.294
97506SOL    HW194351   2.035   9.538   4.236
97506SOL    HW294352   1.907   9.617   4.253
97507SOL     OW94353  10.046   2.255   4.668
97507SOL    HW194354   9.958   2.279   4.699
97507SOL    HW294355  10.086   2.209   4.741
97508SOL     OW94356  14.676   9.996   7.236
97508SOL    HW194357  14.709   9.907   7.222
97508SOL    HW294358  14.733  10.032   7.304
97509SOL     OW94359  10.279   0.916   1.146
97509SOL    HW194360  10.345   0.965   1.097
97509SOL    HW294361  10.217   0.886   1.079
97510SOL     OW94362  14.685   1.560   8.827
97510SOL    HW194363  14.700   1.466   8.837
97510SOL    HW294364  14.635   1.568   8.746
97511SOL     OW94365   3.943   4.460  13.286
97511SOL    HW194366   4.028   4.428  13.316
97511SOL    HW294367   3.903   4.499  13.363
97512SOL     OW94368  12.817   7.117  13.726
97512SOL    HW194369  12.808   7.107  13.632
97512SOL    HW294370  12.732   7.153  13.754
97513SOL     OW94371   4.132  11.593   4.768
97513SOL    HW194372   4.043  11.589   4.733
97513SOL    HW294373   4.132  11.532   4.841
97514SOL     OW94374   0.650   9.999  13.108
97514SOL    HW194375   0.665  10.091  13.126
97514SOL    HW294376   0.573   9.976  13.160
97515SOL     OW94377  13.780  13.872   9.944
97515SOL    HW194378  13.802  13.827   9.863
97515SOL    HW294379  13.827  13.822  10.012
97516SOL     OW94380   1.928   3.024  12.688
97516SOL    HW194381   1.959   2.946  12.642
97516SOL    HW294382   1.884   3.076  12.620
97517SOL     OW94383  11.141   8.220   6.765
97517SOL    HW194384  11.051   8.188   6.765
97517SOL    HW294385  11.149   8.270   6.684
97518SOL     OW94386   1.565   4.732   0.129
97518SOL    HW194387   1.484   4.731   0.180
97518SOL    HW294388   1.549   4.672   0.056
97519SOL     OW94389   8.715   9.605  11.535
97519SOL    HW194390   8.668   9.522  11.545
97519SOL    HW294391   8.692   9.635  11.447
97520SOL     OW94392  12.374   0.600   2.449
97520SOL    HW194393  12.427   0.665   2.494
97520SOL    HW294394  12.328   0.552   2.519
97521SOL     OW94395   5.250  14.194   7.408
97521SOL    HW194396   5.236  14.247   7.329
97521SOL    HW294397   5.324  14.234   7.452
97522SOL     OW94398   7.598  12.401   6.434
97522SOL    HW194399   7.584  12.458   6.358
97522SOL    HW294400   7.693  12.389   6.436
97523SOL     OW94401   9.433   9.767   3.836
97523SOL    HW194402   9.464   9.722   3.916
97523SOL    HW294403   9.356   9.716   3.810
97524SOL     OW94404  14.012   3.312   4.105
97524SOL    HW194405  13.999   3.239   4.165
97524SOL    HW294406  14.085   3.361   4.142
97525SOL     OW94407   0.916   2.020   3.546
97525SOL    HW194408   0.925   2.110   3.577
97525SOL    HW294409   0.994   1.975   3.580
97526SOL     OW94410  10.876   5.771  12.342
97526SOL    HW194411  10.786   5.756  12.313
97526SOL    HW294412  10.930   5.737  12.271
97527SOL     OW94413   0.020   4.716  14.135
97527SOL    HW194414   0.051   4.806  14.127
97527SOL    HW294415  14.820   4.712  14.081
97528SOL     OW94416   9.543   5.700   1.054
97528SOL    HW194417   9.518   5.787   1.022
97528SOL    HW294418   9.582   5.716   1.140
97529SOL     OW94419   4.188   8.780   0.844
97529SOL    HW194420   4.123   8.775   0.775
97529SOL    HW294421   4.175   8.866   0.884
97530SOL     OW94422   5.780  11.176   6.811
97530SOL    HW194423   5.870  11.189   6.841
97530SOL    HW294424   5.738  11.127   6.881
97531SOL     OW94425   5.401   0.759   6.591
97531SOL    HW194426   5.420   0.748   6.684
97531SOL    HW294427   5.341   0.687   6.571
97532SOL     OW94428  11.266   5.290   2.432
97532SOL    HW194429  11.224   5.281   2.517
97532SOL    HW294430  11.344   5.343   2.448
97533SOL     OW94431   8.289   4.244   0.019
97533SOL    HW194432   8.304   4.228   0.112
97533SOL    HW294433   8.196   4.262   0.012
97534SOL     OW94434   6.468   4.679   6.014
97534SOL    HW194435   6.560   4.699   5.997
97534SOL    HW294436   6.419   4.744   5.964
97535SOL     OW94437   7.101   7.086   9.267
97535SOL    HW194438   7.100   7.138   9.186
97535SOL    HW294439   7.140   7.003   9.241
97536SOL     OW94440   5.812  13.160   9.291
97536SOL    HW194441   5.883  13.220   9.268
97536SOL    HW294442   5.734  13.197   9.250
97537SOL     OW94443   9.776  12.299   1.963
97537SOL    HW194444   9.747  12.383   1.926
97537SOL    HW294445   9.824  12.257   1.892
97538SOL     OW94446  13.636  12.838   7.580
97538SOL    HW194447  13.630  12.750   7.618
97538SOL    HW294448  13.594  12.831   7.495
97539SOL     OW94449   2.754   1.107   7.208
97539SOL    HW194450   2.846   1.084   7.191
97539SOL    HW294451   2.716   1.121   7.121
97540SOL     OW94452   4.541  13.773  12.298
97540SOL    HW194453   4.520  13.853  12.250
97540SOL    HW294454   4.475  13.710  12.271
97541SOL     OW94455   3.662  11.359   3.192
97541SOL    HW194456   3.625  11.444   3.215
97541SOL    HW294457   3.726  11.341   3.260
97542SOL     OW94458  10.584   9.540  12.846
97542SOL    HW194459  10.582   9.559  12.940
97542SOL    HW294460  10.624   9.617  12.806
97543SOL     OW94461  10.332   5.731   5.723
97543SOL    HW194462  10.356   5.804   5.780
97543SOL    HW294463  10.406   5.724   5.662
97544SOL     OW94464   4.115   2.872  14.795
97544SOL    HW194465   4.153   2.955  14.768
97544SOL    HW294466   4.084   2.831  14.714
97545SOL     OW94467   6.278  13.182   5.643
97545SOL    HW194468   6.288  13.094   5.680
97545SOL    HW294469   6.367  13.215   5.634
97546SOL     OW94470   8.212  10.839   1.157
97546SOL    HW194471   8.123  10.820   1.128
97546SOL    HW294472   8.235  10.920   1.112
97547SOL     OW94473   1.237   9.820  11.094
97547SOL    HW194474   1.288   9.869  11.029
97547SOL    HW294475   1.223   9.734  11.055
97548SOL     OW94476   0.473   6.510  10.140
97548SOL    HW194477   0.454   6.595  10.179
97548SOL    HW294478   0.559   6.522  10.099
97549SOL     OW94479   9.518   6.609   4.310
97549SOL    HW194480   9.611   6.604   4.334
97549SOL    HW294481   9.487   6.689   4.352
97550SOL     OW94482   8.114  13.624  10.211
97550SOL    HW194483   8.039  13.572  10.181
97550SOL    HW294484   8.078  13.712  10.223
97551SOL     OW94485   9.947  11.690   2.934
97551SOL    HW194486   9.943  11.676   2.840
97551SOL    HW294487   9.974  11.605   2.970
97552SOL     OW94488  14.483   9.419  13.386
97552SOL    HW194489  14.548   9.433  13.317
97552SOL    HW294490  14.428   9.349  13.353
97553SOL     OW94491   9.933   1.331   9.304
97553SOL    HW194492   9.895   1.278   9.374
97553SOL    HW294493   9.974   1.268   9.246
97554SOL     OW94494  13.844  12.814   4.164
97554SOL    HW194495  13.869  12.748   4.228
97554SOL    HW294496  13.908  12.884   4.176
97555SOL     OW94497  13.170  12.977   1.301
97555SOL    HW194498  13.227  12.905   1.326
97555SOL    HW294499  13.199  13.051   1.355
97556SOL     OW94500  13.744   0.753  10.026
97556SOL    HW194501  13.783   0.758  10.114
97556SOL    HW294502  13.683   0.827  10.022
97557SOL     OW94503   7.477   7.027  12.911
97557SOL    HW194504   7.456   7.121  12.915
97557SOL    HW294505   7.392   6.984  12.902
97558SOL     OW94506   6.595   8.394   2.710
97558SOL    HW194507   6.612   8.407   2.803
97558SOL    HW294508   6.511   8.349   2.707
97559SOL     OW94509   3.431   2.304  13.263
97559SOL    HW194510   3.407   2.225  13.312
97559SOL    HW294511   3.348   2.338  13.230
97560SOL     OW94512   9.775   5.795   0.222
97560SOL    HW194513   9.802   5.795   0.314
97560SOL    HW294514   9.683   5.769   0.225
97561SOL     OW94515  14.640   9.504   8.629
97561SOL    HW194516  14.621   9.487   8.537
97561SOL    HW294517  14.626   9.598   8.640
97562SOL     OW94518   4.865   2.277   9.077
97562SOL    HW194519   4.958   2.258   9.089
97562SOL    HW294520   4.859   2.372   9.085
97563SOL     OW94521   5.884   9.299   2.885
97563SOL    HW194522   5.961   9.353   2.874
97563SOL    HW294523   5.898   9.225   2.826
97564SOL     OW94524   9.504  11.077  10.456
97564SOL    HW194525   9.411  11.073  10.479
97564SOL    HW294526   9.528  11.169  10.468
97565SOL     OW94527   0.761  14.159  12.069
97565SOL    HW194528   0.813  14.080  12.084
97565SOL    HW294529   0.798  14.224  12.128
97566SOL     OW94530   3.671  10.922  11.975
97566SOL    HW194531   3.729  10.860  11.931
97566SOL    HW294532   3.730  10.990  12.009
97567SOL     OW94533   5.944  10.105   6.177
97567SOL    HW194534   5.886  10.081   6.105
97567SOL    HW294535   5.885  10.143   6.243
97568SOL     OW94536   9.171   8.440  11.631
97568SOL    HW194537   9.253   8.421  11.584
97568SOL    HW294538   9.105   8.446  11.562
97569SOL     OW94539   9.571   3.222   9.571
97569SOL    HW194540   9.566   3.161   9.497
97569SOL    HW294541   9.655   3.265   9.560
97570SOL     OW94542   3.212   6.233   1.020
97570SOL    HW194543   3.299   6.229   1.061
97570SOL    HW294544   3.205   6.150   0.972
97571SOL     OW94545  14.060   5.494   1.694
97571SOL    HW194546  13.988   5.431   1.685
97571SOL    HW294547  14.136   5.440   1.717
97572SOL     OW94548   0.244   3.846   1.945
97572SOL    HW194549   0.164   3.817   1.902
97572SOL    HW294550   0.304   3.771   1.939
97573SOL     OW94551   0.504  12.781   4.034
97573SOL    HW194552   0.436  12.793   3.968
97573SOL    HW294553   0.534  12.869   4.054
97574SOL     OW94554  10.556  10.034  11.915
97574SOL    HW194555  10.596   9.998  11.995
97574SOL    HW294556  10.594  10.121  11.907
97575SOL     OW94557   5.979   2.432   2.006
97575SOL    HW194558   5.962   2.360   1.945
97575SOL    HW294559   5.969   2.393   2.092
97576SOL     OW94560   9.613   0.344   0.789
97576SOL    HW194561   9.548   0.372   0.724
97576SOL    HW294562   9.587   0.255   0.812
97577SOL     OW94563   4.130   5.298  10.783
97577SOL    HW194564   4.108   5.292  10.690
97577SOL    HW294565   4.053   5.338  10.823
97578SOL     OW94566  11.991   4.586   7.305
97578SOL    HW194567  11.906   4.592   7.262
97578SOL    HW294568  11.971   4.557   7.394
97579SOL     OW94569   4.189   1.500   0.959
97579SOL    HW194570   4.125   1.535   1.022
97579SOL    HW294571   4.238   1.577   0.930
97580SOL     OW94572   5.690   7.812  11.706
97580SOL    HW194573   5.717   7.722  11.689
97580SOL    HW294574   5.640   7.838  11.629
97581SOL     OW94575   5.802   7.525   5.072
97581SOL    HW194576   5.869   7.521   5.140
97581SOL    HW294577   5.761   7.439   5.073
97582SOL     OW94578  10.745  12.668   0.646
97582SOL    HW194579  10.696  12.749   0.629
97582SOL    HW294580  10.686  12.614   0.697
97583SOL     OW94581   7.047   3.872   9.538
97583SOL    HW194582   6.987   3.943   9.561
97583SOL    HW294583   7.042   3.811   9.611
97584SOL     OW94584   2.646   2.000  10.037
97584SOL    HW194585   2.586   1.952   9.980
97584SOL    HW294586   2.624   1.970  10.125
97585SOL     OW94587   1.711   7.851   5.594
97585SOL    HW194588   1.778   7.801   5.641
97585SOL    HW294589   1.684   7.919   5.655
97586SOL     OW94590   6.719  12.835   0.890
97586SOL    HW194591   6.811  12.858   0.904
97586SOL    HW294592   6.706  12.849   0.796
97587SOL     OW94593  12.174   6.458   0.654
97587SOL    HW194594  12.080   6.452   0.635
97587SOL    HW294595  12.179   6.438   0.748
97588SOL     OW94596   6.099  11.770   8.196
97588SOL    HW194597   6.106  11.737   8.106
97588SOL    HW294598   6.057  11.698   8.244
97589SOL     OW94599   7.533   4.889   7.321
97589SOL    HW194600   7.579   4.877   7.404
97589SOL    HW294601   7.465   4.954   7.340
97590SOL     OW94602   3.614  13.919   0.413
97590SOL    HW194603   3.622  13.894   0.505
97590SOL    HW294604   3.645  13.842   0.364
97591SOL     OW94605   5.204   2.505   3.637
97591SOL    HW194606   5.274   2.569   3.627
97591SOL    HW294607   5.184   2.504   3.731
97592SOL     OW94608   2.451  10.133   8.993
97592SOL    HW194609   2.505  10.055   8.979
97592SOL    HW294610   2.416  10.123   9.081
97593SOL     OW94611   9.739   9.952  14.315
97593SOL    HW194612   9.666  10.013  14.306
97593SOL    HW294613   9.729   9.914  14.402
97594SOL     OW94614   8.100  14.558   0.304
97594SOL    HW194615   8.036  14.625   0.326
97594SOL    HW294616   8.127  14.522   0.388
97595SOL     OW94617   1.089   1.086  11.826
97595SOL    HW194618   1.018   1.048  11.877
97595SOL    HW294619   1.086   1.041  11.742
97596SOL     OW94620  10.929   4.786  13.907
97596SOL    HW194621  11.006   4.784  13.963
97596SOL    HW294622  10.882   4.866  13.933
97597SOL     OW94623   1.084   4.616   5.463
97597SOL    HW194624   1.092   4.560   5.385
97597SOL    HW294625   0.990   4.626   5.476
97598SOL     OW94626   1.657   9.025  10.653
97598SOL    HW194627   1.643   9.108  10.607
97598SOL    HW294628   1.748   9.001  10.632
97599SOL     OW94629  13.759   0.228   8.034
97599SOL    HW194630  13.682   0.190   7.991
97599SOL    HW294631  13.815   0.154   8.056
97600SOL     OW94632   0.536   6.298  13.063
97600SOL    HW194633   0.460   6.247  13.091
97600SOL    HW294634   0.510   6.338  12.981
97601SOL     OW94635   0.572   5.265   9.537
97601SOL    HW194636   0.581   5.344   9.590
97601SOL    HW294637   0.621   5.198   9.585
97602SOL     OW94638  11.837   5.245   5.707
97602SOL    HW194639  11.756   5.267   5.751
97602SOL    HW294640  11.897   5.220   5.777
97603SOL     OW94641   0.300   5.036  14.836
97603SOL    HW194642   0.209   5.014  14.815
97603SOL    HW294643   0.308   5.022   0.051
97604SOL     OW94644   7.013   3.726  13.535
97604SOL    HW194645   6.922   3.732  13.564
97604SOL    HW294646   7.058   3.685  13.608
97605SOL     OW94647   9.964  13.216   7.758
97605SOL    HW194648  10.043  13.210   7.705
97605SOL    HW294649   9.892  13.201   7.697
97606SOL     OW94650  13.863   3.929   4.154
97606SOL    HW194651  13.859   3.871   4.230
97606SOL    HW294652  13.776   3.969   4.150
97607SOL     OW94653   9.958   3.907   3.767
97607SOL    HW194654   9.953   3.923   3.672
97607SOL    HW294655   9.946   3.993   3.806
97608SOL     OW94656   4.549   3.391  10.019
97608SOL    HW194657   4.494   3.448   9.964
97608SOL    HW294658   4.614   3.450  10.057
97609SOL     OW94659   2.431   8.219  11.266
97609SOL    HW194660   2.389   8.190  11.185
97609SOL    HW294661   2.525   8.209  11.249
97610SOL     OW94662   1.971  14.318   6.704
97610SOL    HW194663   2.032  14.245   6.703
97610SOL    HW294664   1.995  14.370   6.627
97611SOL     OW94665   2.529   9.527   7.691
97611SOL    HW194666   2.531   9.565   7.603
97611SOL    HW294667   2.620   9.506   7.711
97612SOL     OW94668   4.725   2.310   5.740
97612SOL    HW194669   4.818   2.312   5.718
97612SOL    HW294670   4.722   2.277   5.829
97613SOL     OW94671  14.281   9.273   9.056
97613SOL    HW194672  14.219   9.210   9.094
97613SOL    HW294673  14.271   9.262   8.962
97614SOL     OW94674   0.622   8.924  14.085
97614SOL    HW194675   0.590   8.971  14.162
97614SOL    HW294676   0.543   8.905  14.034
97615SOL     OW94677  12.281  14.766   6.427
97615SOL    HW194678  12.206  14.721   6.465
97615SOL    HW294679  12.314  14.707   6.360
97616SOL     OW94680   5.514   1.004  12.574
97616SOL    HW194681   5.425   0.969  12.580
97616SOL    HW294682   5.568   0.928  12.549
97617SOL     OW94683  13.573   1.509  10.627
97617SOL    HW194684  13.607   1.568  10.559
97617SOL    HW294685  13.647   1.498  10.687
97618SOL     OW94686   9.492  10.902   7.856
97618SOL    HW194687   9.489  10.857   7.941
97618SOL    HW294688   9.400  10.922   7.837
97619SOL     OW94689  13.933   5.958  11.194
97619SOL    HW194690  13.933   5.867  11.223
97619SOL    HW294691  13.918   6.008  11.274
97620SOL     OW94692   7.805   9.771   9.415
97620SOL    HW194693   7.711   9.754   9.418
97620SOL    HW294694   7.828   9.802   9.503
97621SOL     OW94695   1.006   4.220   8.159
97621SOL    HW194696   0.992   4.208   8.065
97621SOL    HW294697   0.992   4.133   8.197
97622SOL     OW94698  12.315   3.897   0.191
97622SOL    HW194699  12.370   3.820   0.175
97622SOL    HW294700  12.229   3.872   0.158
97623SOL     OW94701  10.226   5.792   8.400
97623SOL    HW194702  10.160   5.789   8.468
97623SOL    HW294703  10.275   5.873   8.417
97624SOL     OW94704  12.859  13.121   7.710
97624SOL    HW194705  12.898  13.159   7.788
97624SOL    HW294706  12.805  13.049   7.742
97625SOL     OW94707  14.757  11.934   8.885
97625SOL    HW194708  14.784  11.853   8.930
97625SOL    HW294709  14.686  11.906   8.827
97626SOL     OW94710  11.602   0.322   0.830
97626SOL    HW194711  11.515   0.331   0.868
97626SOL    HW294712  11.644   0.254   0.882
97627SOL     OW94713  10.312   1.960   3.585
97627SOL    HW194714  10.219   1.944   3.570
97627SOL    HW294715  10.314   2.031   3.648
97628SOL     OW94716   3.484  11.429   9.446
97628SOL    HW194717   3.528  11.464   9.368
97628SOL    HW294718   3.548  11.438   9.516
97629SOL     OW94719  11.372  10.573   1.483
97629SOL    HW194720  11.401  10.482   1.470
97629SOL    HW294721  11.285  10.575   1.445
97630SOL     OW94722   5.998  13.535   4.760
97630SOL    HW194723   6.031  13.613   4.804
97630SOL    HW294724   6.070  13.507   4.704
97631SOL     OW94725  11.770   9.470   0.367
97631SOL    HW194726  11.833   9.503   0.432
97631SOL    HW294727  11.758   9.378   0.390
97632SOL     OW94728   4.626   6.136  10.042
97632SOL    HW194729   4.605   6.206   9.980
97632SOL    HW294730   4.722   6.135  10.045
97633SOL     OW94731  13.274   9.137   3.718
97633SOL    HW194732  13.351   9.150   3.664
97633SOL    HW294733  13.237   9.225   3.729
97634SOL     OW94734   9.648   5.088   6.366
97634SOL    HW194735   9.660   5.153   6.297
97634SOL    HW294736   9.603   5.136   6.436
97635SOL     OW94737  12.089   7.758   8.938
97635SOL    HW194738  12.010   7.707   8.959
97635SOL    HW294739  12.135   7.705   8.873
97636SOL     OW94740   6.795   7.231  12.133
97636SOL    HW194741   6.886   7.205  12.137
97636SOL    HW294742   6.767   7.211  12.043
97637SOL     OW94743   5.995  11.270  12.081
97637SOL    HW194744   6.037  11.194  12.040
97637SOL    HW294745   6.010  11.257  12.175
97638SOL     OW94746   2.904  13.924  12.124
97638SOL    HW194747   2.841  13.946  12.055
97638SOL    HW294748   2.957  14.002  12.135
97639SOL     OW94749   8.758   0.467  10.122
97639SOL    HW194750   8.681   0.443  10.071
97639SOL    HW294751   8.725   0.474  10.212
97640SOL     OW94752  12.090   4.254  12.814
97640SOL    HW194753  12.030   4.189  12.777
97640SOL    HW294754  12.177   4.219  12.797
97641SOL     OW94755   9.636   7.494   0.045
97641SOL    HW194756   9.720   7.454   0.070
97641SOL    HW294757   9.576   7.420   0.037
97642SOL     OW94758   6.652   5.371  10.822
97642SOL    HW194759   6.657   5.315  10.744
97642SOL    HW294760   6.609   5.451  10.792
97643SOL     OW94761   9.689  11.042   8.611
97643SOL    HW194762   9.662  11.127   8.577
97643SOL    HW294763   9.625  10.981   8.576
97644SOL     OW94764  12.825   2.721   3.921
97644SOL    HW194765  12.753   2.661   3.899
97644SOL    HW294766  12.782   2.792   3.970
97645SOL     OW94767   8.660   6.187   5.653
97645SOL    HW194768   8.718   6.111   5.651
97645SOL    HW294769   8.707   6.251   5.706
97646SOL     OW94770   0.039  14.842  14.390
97646SOL    HW194771  14.823  14.841  14.401
97646SOL    HW294772   0.074  14.853  14.478
97647SOL     OW94773   1.668  13.981  12.762
97647SOL    HW194774   1.743  14.035  12.786
97647SOL    HW294775   1.678  13.901  12.814
97648SOL     OW94776   9.467  11.539  13.297
97648SOL    HW194777   9.430  11.475  13.357
97648SOL    HW294778   9.483  11.491  13.216
97649SOL     OW94779  13.365   0.679   0.109
97649SOL    HW194780  13.448   0.645   0.145
97649SOL    HW294781  13.392   0.748   0.049
97650SOL     OW94782  10.067   0.574   6.244
97650SOL    HW194783   9.995   0.515   6.224
97650SOL    HW294784  10.128   0.562   6.170
97651SOL     OW94785  13.207  13.452   2.654
97651SOL    HW194786  13.230  13.362   2.632
97651SOL    HW294787  13.282  13.504   2.626
97652SOL     OW94788  14.555   4.424  14.138
97652SOL    HW194789  14.575   4.359  14.071
97652SOL    HW294790  14.634   4.429  14.192
97653SOL     OW94791   8.352  14.372   8.188
97653SOL    HW194792   8.327  14.319   8.263
97653SOL    HW294793   8.380  14.309   8.122
97654SOL     OW94794   1.792   2.069   5.584
97654SOL    HW194795   1.792   2.149   5.637
97654SOL    HW294796   1.835   2.004   5.640
97655SOL     OW94797  12.964  12.541  13.806
97655SOL    HW194798  12.919  12.623  13.788
97655SOL    HW294799  12.899  12.473  13.786
97656SOL     OW94800  10.164  11.405  11.153
97656SOL    HW194801  10.117  11.374  11.231
97656SOL    HW294802  10.234  11.460  11.188
97657SOL     OW94803   0.132   3.157  13.846
97657SOL    HW194804   0.056   3.210  13.822
97657SOL    HW294805   0.186   3.156  13.766
97658SOL     OW94806   7.102   2.418   4.378
97658SOL    HW194807   7.089   2.481   4.448
97658SOL    HW294808   7.020   2.419   4.328
97659SOL     OW94809   3.958   9.772  12.251
97659SOL    HW194810   4.040   9.804  12.211
97659SOL    HW294811   3.968   9.792  12.344
97660SOL     OW94812   0.248   1.261   3.129
97660SOL    HW194813   0.309   1.212   3.185
97660SOL    HW294814   0.169   1.208   3.127
97661SOL     OW94815  11.729  10.500  12.836
97661SOL    HW194816  11.660  10.560  12.863
97661SOL    HW294817  11.746  10.446  12.914
97662SOL     OW94818   6.328  11.789   0.723
97662SOL    HW194819   6.420  11.774   0.702
97662SOL    HW294820   6.284  11.707   0.700
97663SOL     OW94821   9.257  14.288   3.019
97663SOL    HW194822   9.250  14.291   3.115
97663SOL    HW294823   9.166  14.292   2.989
97664SOL     OW94824   7.957   3.282  13.978
97664SOL    HW194825   8.016   3.356  13.965
97664SOL    HW294826   7.892   3.290  13.909
97665SOL     OW94827   8.770   5.843   8.099
97665SOL    HW194828   8.862   5.835   8.125
97665SOL    HW294829   8.747   5.934   8.121
97666SOL     OW94830   5.072   7.934   5.056
97666SOL    HW194831   5.025   7.912   5.137
97666SOL    HW294832   5.155   7.970   5.086
97667SOL     OW94833   7.127   9.380   3.578
97667SOL    HW194834   7.050   9.429   3.608
97667SOL    HW294835   7.146   9.320   3.650
97668SOL     OW94836   3.230   1.367   6.579
97668SOL    HW194837   3.307   1.326   6.617
97668SOL    HW294838   3.160   1.304   6.594
97669SOL     OW94839   9.836   3.928   8.420
97669SOL    HW194840   9.898   3.912   8.491
97669SOL    HW294841   9.849   4.020   8.397
97670SOL     OW94842   8.886   6.878   9.467
97670SOL    HW194843   8.929   6.879   9.382
97670SOL    HW294844   8.794   6.898   9.448
97671SOL     OW94845   0.125  12.273   3.813
97671SOL    HW194846   0.204  12.220   3.818
97671SOL    HW294847   0.155  12.359   3.783
97672SOL     OW94848  13.396  13.407   9.504
97672SOL    HW194849  13.434  13.365   9.581
97672SOL    HW294850  13.449  13.375   9.430
97673SOL     OW94851   1.837   8.896   7.515
97673SOL    HW194852   1.822   8.829   7.581
97673SOL    HW294853   1.784   8.869   7.441
97674SOL     OW94854  13.881   6.020  12.522
97674SOL    HW194855  13.800   5.971  12.508
97674SOL    HW294856  13.885   6.033  12.617
97675SOL     OW94857   9.681  14.781  13.068
97675SOL    HW194858   9.735  14.853  13.036
97675SOL    HW294859   9.730  14.745  13.141
97676SOL     OW94860   5.199   8.073   6.814
97676SOL    HW194861   5.256   8.011   6.768
97676SOL    HW294862   5.255   8.147   6.834
97677SOL     OW94863   1.006   2.740  13.464
97677SOL    HW194864   0.930   2.794  13.483
97677SOL    HW294865   1.037   2.710  13.549
97678SOL     OW94866   0.052   2.876   7.647
97678SOL    HW194867   0.042   2.856   7.740
97678SOL    HW294868   0.110   2.808   7.613
97679SOL     OW94869  10.448   2.466   7.611
97679SOL    HW194870  10.369   2.439   7.565
97679SOL    HW294871  10.422   2.544   7.660
97680SOL     OW94872   7.979  13.908  11.636
97680SOL    HW194873   7.998  13.831  11.690
97680SOL    HW294874   7.906  13.951  11.681
97681SOL     OW94875   9.003  13.760   6.393
97681SOL    HW194876   8.939  13.703   6.350
97681SOL    HW294877   9.001  13.840   6.341
97682SOL     OW94878   5.579   3.665  11.887
97682SOL    HW194879   5.494   3.623  11.871
97682SOL    HW294880   5.558   3.743  11.939
97683SOL     OW94881   2.575  11.349  12.258
97683SOL    HW194882   2.601  11.295  12.183
97683SOL    HW294883   2.635  11.423  12.257
97684SOL     OW94884  10.679  14.597   9.390
97684SOL    HW194885  10.766  14.636   9.387
97684SOL    HW294886  10.695  14.504   9.409
97685SOL     OW94887   6.547   6.911   8.126
97685SOL    HW194888   6.474   6.914   8.064
97685SOL    HW294889   6.589   6.827   8.109
97686SOL     OW94890  13.419   2.170  11.985
97686SOL    HW194891  13.325   2.159  11.973
97686SOL    HW294892  13.454   2.080  11.985
97687SOL     OW94893   4.486   8.951  14.402
97687SOL    HW194894   4.391   8.965  14.398
97687SOL    HW294895   4.511   8.928  14.313
97688SOL     OW94896   6.675   0.524  13.774
97688SOL    HW194897   6.611   0.475  13.723
97688SOL    HW294898   6.622   0.587  13.824
97689SOL     OW94899  12.308   4.401   5.412
97689SOL    HW194900  12.348   4.418   5.327
97689SOL    HW294901  12.279   4.488   5.442
97690SOL     OW94902   7.153   3.185   5.587
97690SOL    HW194903   7.189   3.221   5.506
97690SOL    HW294904   7.158   3.090   5.575
97691SOL     OW94905   9.696   5.115  14.192
97691SOL    HW194906   9.633   5.061  14.144
97691SOL    HW294907   9.649   5.197  14.208
97692SOL     OW94908   1.131  10.532   2.981
97692SOL    HW194909   1.171  10.445   2.984
97692SOL    HW294910   1.082  10.533   2.899
97693SOL     OW94911  13.032  11.688   8.612
97693SOL    HW194912  13.005  11.757   8.673
97693SOL    HW294913  12.952  11.663   8.566
97694SOL     OW94914  14.536   6.158   8.289
97694SOL    HW194915  14.481   6.217   8.342
97694SOL    HW294916  14.617   6.150   8.339
97695SOL     OW94917   4.095   9.378   7.123
97695SOL    HW194918   4.108   9.285   7.102
97695SOL    HW294919   4.153   9.424   7.062
97696SOL     OW94920  11.600   7.429  11.078
97696SOL    HW194921  11.691   7.413  11.055
97696SOL    HW294922  11.567   7.488  11.011
97697SOL     OW94923   1.759   6.443   5.344
97697SOL    HW194924   1.680   6.405   5.306
97697SOL    HW294925   1.778   6.520   5.289
97698SOL     OW94926   4.320   3.756   9.689
97698SOL    HW194927   4.380   3.685   9.710
97698SOL    HW294928   4.233   3.715   9.688
97699SOL     OW94929   6.408   8.269  10.375
97699SOL    HW194930   6.341   8.223  10.426
97699SOL    HW294931   6.491   8.235  10.408
97700SOL     OW94932   4.259   4.048   8.612
97700SOL    HW194933   4.277   4.050   8.518
97700SOL    HW294934   4.324   3.987   8.647
97701SOL     OW94935   9.512   6.734   5.215
97701SOL    HW194936   9.560   6.720   5.296
97701SOL    HW294937   9.433   6.681   5.223
97702SOL     OW94938   4.725   9.866  10.063
97702SOL    HW194939   4.697   9.926  10.133
97702SOL    HW294940   4.645   9.851  10.012
97703SOL     OW94941   5.566   9.614   6.319
97703SOL    HW194942   5.528   9.625   6.232
97703SOL    HW294943   5.647   9.565   6.304
97704SOL     OW94944   5.088   8.151   6.542
97704SOL    HW194945   5.105   8.113   6.628
97704SOL    HW294946   4.992   8.158   6.538
97705SOL     OW94947  11.745  13.594  10.126
97705SOL    HW194948  11.742  13.665  10.190
97705SOL    HW294949  11.661  13.599  10.080
97706SOL     OW94950   6.256   5.255  12.234
97706SOL    HW194951   6.220   5.343  12.217
97706SOL    HW294952   6.349   5.271  12.252
97707SOL     OW94953   1.161  13.871  11.625
97707SOL    HW194954   1.109  13.926  11.684
97707SOL    HW294955   1.122  13.784  11.632
97708SOL     OW94956   0.785  11.307   2.671
97708SOL    HW194957   0.725  11.368   2.629
97708SOL    HW294958   0.771  11.224   2.625
97709SOL     OW94959   2.892  11.548   5.528
97709SOL    HW194960   2.888  11.640   5.554
97709SOL    HW294961   2.827  11.540   5.458
97710SOL     OW94962   7.287   6.650  13.431
97710SOL    HW194963   7.222   6.665  13.500
97710SOL    HW294964   7.266   6.563  13.397
97711SOL     OW94965   2.447   1.593   3.871
97711SOL    HW194966   2.364   1.626   3.906
97711SOL    HW294967   2.445   1.499   3.889
97712SOL     OW94968   6.849   8.621  10.109
97712SOL    HW194969   6.814   8.558  10.172
97712SOL    HW294970   6.929   8.580  10.077
97713SOL     OW94971   9.475  11.702   8.281
97713SOL    HW194972   9.478  11.626   8.223
97713SOL    HW294973   9.392  11.693   8.328
97714SOL     OW94974   8.879   7.455  11.199
97714SOL    HW194975   8.853   7.369  11.233
97714SOL    HW294976   8.931   7.494  11.269
97715SOL     OW94977   8.126   4.653   2.747
97715SOL    HW194978   8.043   4.637   2.702
97715SOL    HW294979   8.108   4.632   2.839
97716SOL     OW94980  14.675   0.822   2.758
97716SOL    HW194981  14.647   0.776   2.837
97716SOL    HW294982  14.726   0.896   2.790
97717SOL     OW94983  11.194   0.296  10.720
97717SOL    HW194984  11.179   0.389  10.739
97717SOL    HW294985  11.266   0.296  10.657
97718SOL     OW94986   4.524   6.155   8.268
97718SOL    HW194987   4.565   6.213   8.332
97718SOL    HW294988   4.523   6.206   8.187
97719SOL     OW94989   7.216   3.151   2.295
97719SOL    HW194990   7.135   3.197   2.274
97719SOL    HW294991   7.261   3.142   2.211
97720SOL     OW94992  12.941   0.819   8.636
97720SOL    HW194993  12.967   0.726   8.636
97720SOL    HW294994  12.904   0.833   8.549
97721SOL     OW94995   9.083   6.317  10.145
97721SOL    HW194996   9.155   6.302  10.207
97721SOL    HW294997   9.115   6.387  10.087
97722SOL     OW94998   0.972   0.622   7.838
97722SOL    HW194999   0.968   0.683   7.911
97722SOL    HW295000   0.892   0.570   7.846
97723SOL     OW95001   0.121   6.179  10.426
97723SOL    HW195002   0.105   6.233  10.504
97723SOL    HW295003   0.185   6.229  10.375
97724SOL     OW95004   5.816  14.190   4.203
97724SOL    HW195005   5.854  14.127   4.264
97724SOL    HW295006   5.874  14.266   4.208
97725SOL     OW95007   7.302   3.763  14.271
97725SOL    HW195008   7.395   3.784  14.274
97725SOL    HW295009   7.293   3.690  14.333
97726SOL     OW95010   8.034   5.152  14.449
97726SOL    HW195011   8.115   5.107  14.474
97726SOL    HW295012   7.974   5.133  14.521
97727SOL     OW95013  13.206   1.768   8.319
97727SOL    HW195014  13.253   1.817   8.387
97727SOL    HW295015  13.199   1.679   8.353
97728SOL     OW95016  12.838   1.190   9.355
97728SOL    HW195017  12.850   1.210   9.263
97728SOL    HW295018  12.823   1.095   9.357
97729SOL     OW95019   3.580   8.457  13.886
97729SOL    HW195020   3.564   8.529  13.826
97729SOL    HW295021   3.506   8.397  13.872
97730SOL     OW95022   6.909   1.716   8.302
97730SOL    HW195023   6.983   1.692   8.358
97730SOL    HW295024   6.868   1.790   8.346
97731SOL     OW95025   1.722   8.052   6.205
97731SOL    HW195026   1.769   8.052   6.121
97731SOL    HW295027   1.790   8.035   6.270
97732SOL     OW95028  12.814  12.304   4.257
97732SOL    HW195029  12.880  12.354   4.211
97732SOL    HW295030  12.852  12.216   4.265
97733SOL     OW95031   0.038   7.052   5.968
97733SOL    HW195032   0.010   7.058   6.059
97733SOL    HW295033   0.122   7.097   5.966
97734SOL     OW95034   5.129   5.044   7.238
97734SOL    HW195035   5.051   5.081   7.279
97734SOL    HW295036   5.105   5.035   7.146
97735SOL     OW95037   8.274  10.442   7.431
97735SOL    HW195038   8.181  10.424   7.417
97735SOL    HW295039   8.278  10.536   7.446
97736SOL     OW95040   4.073   7.732   5.818
97736SOL    HW195041   4.016   7.738   5.895
97736SOL    HW295042   4.149   7.683   5.848
97737SOL     OW95043  10.844   6.801   5.663
97737SOL    HW195044  10.751   6.782   5.647
97737SOL    HW295045  10.843   6.871   5.728
97738SOL     OW95046   3.173   2.906  10.204
97738SOL    HW195047   3.268   2.895  10.204
97738SOL    HW295048   3.160   3.000  10.217
97739SOL     OW95049   9.942   0.930   5.721
97739SOL    HW195050   9.907   0.989   5.788
97739SOL    HW295051   9.908   0.844   5.745
97740SOL     OW95052   1.897   7.601   9.836
97740SOL    HW195053   1.864   7.620   9.749
97740SOL    HW295054   1.894   7.506   9.843
97741SOL     OW95055   6.330  10.252   0.953
97741SOL    HW195056   6.417  10.271   0.917
97741SOL    HW295057   6.337  10.275   1.046
97742SOL     OW95058   4.568   5.958   5.088
97742SOL    HW195059   4.552   5.982   4.997
97742SOL    HW295060   4.504   6.009   5.138
97743SOL     OW95061  11.030   9.496   7.316
97743SOL    HW195062  11.097   9.562   7.296
97743SOL    HW295063  10.976   9.537   7.383
97744SOL     OW95064   9.397   7.724   7.035
97744SOL    HW195065   9.304   7.704   7.041
97744SOL    HW295066   9.434   7.692   7.118
97745SOL     OW95067  12.245   1.123   1.469
97745SOL    HW195068  12.266   1.155   1.557
97745SOL    HW295069  12.183   1.188   1.435
97746SOL     OW95070   5.805   4.798   6.189
97746SOL    HW195071   5.897   4.795   6.215
97746SOL    HW295072   5.805   4.767   6.099
97747SOL     OW95073  14.242   8.473  12.953
97747SOL    HW195074  14.255   8.420  13.032
97747SOL    HW295075  14.158   8.516  12.966
97748SOL     OW95076  10.664  14.308   9.488
97748SOL    HW195077  10.687  14.254   9.411
97748SOL    HW295078  10.716  14.271   9.559
97749SOL     OW95079  11.601  11.270   3.665
97749SOL    HW195080  11.567  11.336   3.604
97749SOL    HW295081  11.575  11.301   3.751
97750SOL     OW95082   2.844   0.018   7.507
97750SOL    HW195083   2.781  14.858   7.446
97750SOL    HW295084   2.795   0.085   7.553
97751SOL     OW95085  13.103   3.038   6.385
97751SOL    HW195086  13.115   3.124   6.425
97751SOL    HW295087  13.011   3.017   6.400
97752SOL     OW95088   4.609   4.238   8.024
97752SOL    HW195089   4.629   4.216   7.933
97752SOL    HW295090   4.641   4.163   8.074
97753SOL     OW95091   3.312   4.015  11.751
97753SOL    HW195092   3.302   3.924  11.777
97753SOL    HW295093   3.390   4.046  11.797
97754SOL     OW95094   0.612   3.414   8.650
97754SOL    HW195095   0.549   3.389   8.582
97754SOL    HW295096   0.696   3.380   8.620
97755SOL     OW95097   4.084  12.559  12.835
97755SOL    HW195098   4.111  12.647  12.860
97755SOL    HW295099   4.160  12.504  12.857
97756SOL     OW95100   2.105  12.620   1.594
97756SOL    HW195101   2.082  12.673   1.670
97756SOL    HW295102   2.059  12.538   1.607
97757SOL     OW95103   5.157   8.626   6.526
97757SOL    HW195104   5.212   8.703   6.511
97757SOL    HW295105   5.168   8.573   6.447
97758SOL     OW95106   6.092   3.052   2.410
97758SOL    HW195107   6.092   3.105   2.490
97758SOL    HW295108   6.143   2.974   2.432
97759SOL     OW95109  11.150   8.534  11.063
97759SOL    HW195110  11.077   8.476  11.043
97759SOL    HW295111  11.169   8.517  11.155
97760SOL     OW95112   7.307   5.512  10.122
97760SOL    HW195113   7.267   5.598  10.135
97760SOL    HW295114   7.253   5.470  10.055
97761SOL     OW95115   3.255   2.315  10.274
97761SOL    HW195116   3.212   2.235  10.304
97761SOL    HW295117   3.187   2.362  10.225
97762SOL     OW95118  12.905   7.132   2.525
97762SOL    HW195119  12.812   7.118   2.509
97762SOL    HW295120  12.909   7.169   2.613
97763SOL     OW95121   9.230   7.987   9.503
97763SOL    HW195122   9.209   8.004   9.412
97763SOL    HW295123   9.323   7.964   9.503
97764SOL     OW95124  14.166   6.166   0.275
97764SOL    HW195125  14.089   6.161   0.217
97764SOL    HW295126  14.137   6.221   0.347
97765SOL     OW95127  12.265   9.409   7.540
97765SOL    HW195128  12.322   9.332   7.542
97765SOL    HW295129  12.246   9.423   7.447
97766SOL     OW95130  14.080   1.488  10.680
97766SOL    HW195131  14.144   1.435  10.633
97766SOL    HW295132  13.996   1.444  10.665
97767SOL     OW95133   5.877   8.230  12.819
97767SOL    HW195134   5.910   8.281  12.745
97767SOL    HW295135   5.784   8.218  12.800
97768SOL     OW95136   5.446   0.321   2.148
97768SOL    HW195137   5.501   0.377   2.204
97768SOL    HW295138   5.357   0.351   2.165
97769SOL     OW95139   1.557   5.003   2.007
97769SOL    HW195140   1.644   4.964   2.014
97769SOL    HW295141   1.534   5.027   2.097
97770SOL     OW95142   9.606   6.575  10.819
97770SOL    HW195143   9.607   6.481  10.841
97770SOL    HW295144   9.584   6.577  10.726
97771SOL     OW95145   7.910  13.746   1.239
97771SOL    HW195146   7.941  13.835   1.256
97771SOL    HW295147   7.816  13.756   1.227
97772SOL     OW95148  11.490   2.766   6.288
97772SOL    HW195149  11.497   2.848   6.336
97772SOL    HW295150  11.416   2.721   6.328
97773SOL     OW95151   5.311  14.363   2.690
97773SOL    HW195152   5.344  14.317   2.767
97773SOL    HW295153   5.294  14.452   2.721
97774SOL     OW95154   4.182  11.390   0.274
97774SOL    HW195155   4.271  11.405   0.306
97774SOL    HW295156   4.183  11.422   0.184
97775SOL     OW95157   9.071   8.054  11.279
97775SOL    HW195158   9.013   8.012  11.343
97775SOL    HW295159   9.053   8.008  11.197
97776SOL     OW95160   9.511   4.824   7.516
97776SOL    HW195161   9.568   4.868   7.453
97776SOL    HW295162   9.566   4.755   7.554
97777SOL     OW95163   9.656   0.782   9.368
97777SOL    HW195164   9.604   0.788   9.288
97777SOL    HW295165   9.594   0.756   9.436
97778SOL     OW95166   0.073   9.787  12.523
97778SOL    HW195167   0.014   9.727  12.478
97778SOL    HW295168   0.158   9.743  12.521
97779SOL     OW95169   0.011   8.574   2.861
97779SOL    HW195170   0.019   8.521   2.940
97779SOL    HW295171   0.086   8.634   2.864
97780SOL     OW95172   1.720   1.200  11.936
97780SOL    HW195173   1.628   1.218  11.918
97780SOL    HW295174   1.766   1.230  11.858
97781SOL     OW95175  12.519   8.511   0.425
97781SOL    HW195176  12.557   8.560   0.497
97781SOL    HW295177  12.455   8.571   0.386
97782SOL     OW95178  10.081   2.164   8.580
97782SOL    HW195179  10.166   2.123   8.594
97782SOL    HW295180  10.022   2.120   8.641
97783SOL     OW95181  10.791   2.199   2.735
97783SOL    HW195182  10.759   2.141   2.804
97783SOL    HW295183  10.714   2.214   2.679
97784SOL     OW95184   1.293   6.511   1.285
97784SOL    HW195185   1.273   6.474   1.199
97784SOL    HW295186   1.348   6.444   1.326
97785SOL     OW95187   6.309   3.233  12.509
97785SOL    HW195188   6.273   3.239  12.598
97785SOL    HW295189   6.402   3.254  12.519
97786SOL     OW95190  14.007   8.834   0.635
97786SOL    HW195191  14.025   8.899   0.567
97786SOL    HW295192  14.042   8.752   0.601
97787SOL     OW95193   6.324   9.929   3.647
97787SOL    HW195194   6.321   9.897   3.557
97787SOL    HW295195   6.237   9.967   3.662
97788SOL     OW95196   7.686   8.507   1.917
97788SOL    HW195197   7.774   8.475   1.897
97788SOL    HW295198   7.646   8.438   1.970
97789SOL     OW95199   6.106  14.601  13.587
97789SOL    HW195200   6.144  14.653  13.658
97789SOL    HW295201   6.038  14.548  13.629
97790SOL     OW95202  14.147  13.844  11.521
97790SOL    HW195203  14.122  13.935  11.540
97790SOL    HW295204  14.242  13.847  11.510
97791SOL     OW95205  12.557  11.138   2.529
97791SOL    HW195206  12.545  11.233   2.518
97791SOL    HW295207  12.474  11.100   2.501
97792SOL     OW95208  12.993  14.267  10.476
97792SOL    HW195209  12.964  14.226  10.395
97792SOL    HW295210  13.058  14.332  10.449
97793SOL     OW95211   4.126   9.483  13.212
97793SOL    HW195212   4.085   9.487  13.126
97793SOL    HW295213   4.081   9.551  13.263
97794SOL     OW95214   5.703  13.900   5.337
97794SOL    HW195215   5.719  13.809   5.312
97794SOL    HW295216   5.667  13.895   5.426
97795SOL     OW95217   8.739   7.605   0.592
97795SOL    HW195218   8.752   7.522   0.546
97795SOL    HW295219   8.722   7.579   0.683
97796SOL     OW95220   4.861  14.559   9.139
97796SOL    HW195221   4.816  14.620   9.197
97796SOL    HW295222   4.792  14.514   9.092
97797SOL     OW95223   6.277  10.316   9.493
97797SOL    HW195224   6.188  10.327   9.459
97797SOL    HW295225   6.324  10.269   9.424
97798SOL     OW95226  13.452  13.202   4.191
97798SOL    HW195227  13.365  13.240   4.199
97798SOL    HW295228  13.438  13.117   4.151
97799SOL     OW95229   5.812   8.740   5.773
97799SOL    HW195230   5.784   8.787   5.694
97799SOL    HW295231   5.866   8.803   5.820
97800SOL     OW95232   0.508   7.203   2.623
97800SOL    HW195233   0.422   7.163   2.632
97800SOL    HW295234   0.567   7.145   2.671
97801SOL     OW95235   8.780   0.963   0.874
97801SOL    HW195236   8.829   0.930   0.799
97801SOL    HW295237   8.808   1.054   0.882
97802SOL     OW95238   7.901  13.170  14.486
97802SOL    HW195239   7.905  13.086  14.532
97802SOL    HW295240   7.859  13.229  14.548
97803SOL     OW95241   9.728  12.580   0.073
97803SOL    HW195242   9.743  12.489   0.101
97803SOL    HW295243   9.778  12.588  14.871
97804SOL     OW95244   4.947   7.872   1.610
97804SOL    HW195245   4.903   7.814   1.674
97804SOL    HW295246   4.897   7.954   1.614
97805SOL     OW95247   5.008   4.717   4.469
97805SOL    HW195248   4.937   4.725   4.406
97805SOL    HW295249   5.088   4.724   4.416
97806SOL     OW95250   9.742   8.080   3.911
97806SOL    HW195251   9.793   8.066   3.831
97806SOL    HW295252   9.802   8.057   3.982
97807SOL     OW95253  11.103   6.571  14.028
97807SOL    HW195254  11.068   6.528  13.950
97807SOL    HW295255  11.113   6.500  14.092
97808SOL     OW95256   3.236   6.871   2.906
97808SOL    HW195257   3.145   6.848   2.920
97808SOL    HW295258   3.247   6.868   2.811
97809SOL     OW95259   7.163   1.878   3.445
97809SOL    HW195260   7.126   1.790   3.438
97809SOL    HW295261   7.210   1.878   3.529
97810SOL     OW95262   1.106  10.755  13.140
97810SOL    HW195263   1.175  10.764  13.074
97810SOL    HW295264   1.120  10.828  13.200
97811SOL     OW95265  14.220   8.614   7.917
97811SOL    HW195266  14.242   8.707   7.925
97811SOL    HW295267  14.272   8.584   7.842
97812SOL     OW95268   6.172   5.475   8.623
97812SOL    HW195269   6.087   5.518   8.628
97812SOL    HW295270   6.196   5.458   8.714
97813SOL     OW95271   3.843   7.287   9.156
97813SOL    HW195272   3.765   7.313   9.107
97813SOL    HW295273   3.880   7.215   9.106
97814SOL     OW95274  13.188   3.296   6.214
97814SOL    HW195275  13.120   3.339   6.161
97814SOL    HW295276  13.160   3.204   6.217
97815SOL     OW95277  10.976   5.019   8.769
97815SOL    HW195278  10.903   5.022   8.831
97815SOL    HW295279  10.978   5.107   8.730
97816SOL     OW95280   8.693  14.569  12.494
97816SOL    HW195281   8.622  14.543  12.552
97816SOL    HW295282   8.736  14.487  12.469
97817SOL     OW95283  13.905   6.735   0.362
97817SOL    HW195284  13.937   6.820   0.333
97817SOL    HW295285  13.857   6.700   0.288
97818SOL     OW95286   8.133  12.970   4.144
97818SOL    HW195287   8.074  13.005   4.210
97818SOL    HW295288   8.075  12.945   4.071
97819SOL     OW95289   3.419  14.133   1.390
97819SOL    HW195290   3.472  14.078   1.333
97819SOL    HW295291   3.334  14.089   1.392
97820SOL     OW95292   9.252   5.787   1.682
97820SOL    HW195293   9.170   5.738   1.672
97820SOL    HW295294   9.274   5.814   1.593
97821SOL     OW95295   5.726  14.510   2.874
97821SOL    HW195296   5.775  14.536   2.797
97821SOL    HW295297   5.639  14.486   2.841
97822SOL     OW95298  14.646   9.996   3.001
97822SOL    HW195299  14.610  10.014   2.914
97822SOL    HW295300  14.695   9.915   2.989
97823SOL     OW95301  14.392   6.873   2.115
97823SOL    HW195302  14.436   6.787   2.115
97823SOL    HW295303  14.326   6.866   2.184
97824SOL     OW95304   4.077   9.241   1.966
97824SOL    HW195305   4.090   9.331   1.993
97824SOL    HW295306   4.150   9.222   1.908
97825SOL     OW95307   4.312  13.920   3.832
97825SOL    HW195308   4.356  13.844   3.794
97825SOL    HW295309   4.303  13.900   3.925
97826SOL     OW95310   2.212  10.143   6.506
97826SOL    HW195311   2.277  10.171   6.442
97826SOL    HW295312   2.155  10.219   6.517
97827SOL     OW95313  14.601   9.495   3.476
97827SOL    HW195314  14.622   9.524   3.388
97827SOL    HW295315  14.525   9.548   3.502
97828SOL     OW95316  13.929  10.640   1.641
97828SOL    HW195317  13.954  10.591   1.563
97828SOL    HW295318  13.971  10.725   1.631
97829SOL     OW95319   7.489   7.674  14.831
97829SOL    HW195320   7.424   7.604  14.828
97829SOL    HW295321   7.530   7.666   0.039
97830SOL     OW95322  14.310  12.997   5.402
97830SOL    HW195323  14.388  12.943   5.413
97830SOL    HW295324  14.332  13.080   5.445
97831SOL     OW95325   9.792   9.766   1.876
97831SOL    HW195326   9.862   9.705   1.898
97831SOL    HW295327   9.835   9.850   1.862
97832SOL     OW95328   7.258   7.828   9.402
97832SOL    HW195329   7.278   7.893   9.335
97832SOL    HW295330   7.330   7.765   9.397
97833SOL     OW95331   3.246   3.481   8.258
97833SOL    HW195332   3.290   3.412   8.208
97833SOL    HW295333   3.272   3.562   8.215
97834SOL     OW95334   2.351   2.072   6.148
97834SOL    HW195335   2.260   2.080   6.121
97834SOL    HW295336   2.357   1.985   6.187
97835SOL     OW95337   0.332   5.178   7.494
97835SOL    HW195338   0.252   5.131   7.514
97835SOL    HW295339   0.321   5.263   7.537
97836SOL     OW95340  11.162   1.627   4.066
97836SOL    HW195341  11.185   1.718   4.087
97836SOL    HW295342  11.133   1.631   3.975
97837SOL     OW95343   1.811  12.167  11.731
97837SOL    HW195344   1.905  12.173  11.748
97837SOL    HW295345   1.774  12.243  11.775
97838SOL     OW95346   0.846   6.130   1.965
97838SOL    HW195347   0.839   6.036   1.952
97838SOL    HW295348   0.761   6.156   2.001
97839SOL     OW95349   8.919   9.054   3.053
97839SOL    HW195350   8.905   9.112   3.128
97839SOL    HW295351   8.846   9.074   2.994
97840SOL     OW95352  10.741   4.710  12.833
97840SOL    HW195353  10.836   4.716  12.820
97840SOL    HW295354  10.722   4.769  12.905
97841SOL     OW95355   0.102   3.254   6.239
97841SOL    HW195356   0.121   3.239   6.147
97841SOL    HW295357   0.172   3.209   6.286
97842SOL     OW95358   3.575   9.860   9.222
97842SOL    HW195359   3.654   9.860   9.276
97842SOL    HW295360   3.550   9.953   9.216
97843SOL     OW95361  11.263   5.741  11.991
97843SOL    HW195362  11.309   5.657  11.987
97843SOL    HW295363  11.299   5.791  11.918
97844SOL     OW95364   2.427  12.752   1.789
97844SOL    HW195365   2.463  12.673   1.829
97844SOL    HW295366   2.471  12.758   1.704
97845SOL     OW95367  13.418   2.599   0.608
97845SOL    HW195368  13.456   2.525   0.656
97845SOL    HW295369  13.325   2.581   0.605
97846SOL     OW95370   5.493   9.398   4.385
97846SOL    HW195371   5.528   9.369   4.469
97846SOL    HW295372   5.488   9.318   4.332
97847SOL     OW95373   9.552   4.808   5.255
97847SOL    HW195374   9.553   4.815   5.350
97847SOL    HW295375   9.624   4.865   5.225
97848SOL     OW95376  11.857   4.966  11.312
97848SOL    HW195377  11.782   4.977  11.371
97848SOL    HW295378  11.817   4.952  11.226
97849SOL     OW95379   4.636  12.224   7.788
97849SOL    HW195380   4.604  12.145   7.831
97849SOL    HW295381   4.682  12.193   7.711
97850SOL     OW95382  12.784   9.117   0.557
97850SOL    HW195383  12.807   9.082   0.643
97850SOL    HW295384  12.853   9.086   0.499
97851SOL     OW95385   5.779   3.300   6.785
97851SOL    HW195386   5.845   3.342   6.730
97851SOL    HW295387   5.781   3.208   6.758
97852SOL     OW95388   1.868   0.938  12.249
97852SOL    HW195389   1.794   0.956  12.307
97852SOL    HW295390   1.882   1.020  12.201
97853SOL     OW95391   9.462   9.854   7.355
97853SOL    HW195392   9.468   9.950   7.351
97853SOL    HW295393   9.383   9.838   7.407
97854SOL     OW95394  13.161  10.473   3.432
97854SOL    HW195395  13.179  10.400   3.373
97854SOL    HW295396  13.156  10.433   3.519
97855SOL     OW95397  10.010   3.195   1.419
97855SOL    HW195398   9.932   3.178   1.366
97855SOL    HW295399  10.024   3.114   1.468
97856SOL     OW95400   7.407   7.938  12.942
97856SOL    HW195401   7.441   8.022  12.974
97856SOL    HW295402   7.313   7.943  12.958
97857SOL     OW95403   8.789   8.386  10.162
97857SOL    HW195404   8.727   8.319  10.192
97857SOL    HW295405   8.824   8.352  10.080
97858SOL     OW95406  10.596   7.639  10.767
97858SOL    HW195407  10.679   7.602  10.798
97858SOL    HW295408  10.617   7.678  10.682
97859SOL     OW95409   6.870   7.631   9.680
97859SOL    HW195410   6.911   7.715   9.701
97859SOL    HW295411   6.937   7.583   9.631
97860SOL     OW95412  12.471   2.649   5.543
97860SOL    HW195413  12.405   2.616   5.604
97860SOL    HW295414  12.454   2.743   5.538
97861SOL     OW95415   5.299   0.118   7.223
97861SOL    HW195416   5.277   0.060   7.295
97861SOL    HW295417   5.393   0.106   7.210
97862SOL     OW95418  14.717   4.507   9.919
97862SOL    HW195419  14.741   4.527  10.010
97862SOL    HW295420  14.783   4.443   9.890
97863SOL     OW95421   7.030  14.670   4.915
97863SOL    HW195422   7.014  14.725   4.839
97863SOL    HW295423   7.072  14.591   4.880
97864SOL     OW95424   3.055  11.165   3.540
97864SOL    HW195425   3.075  11.259   3.541
97864SOL    HW295426   3.120  11.127   3.481
97865SOL     OW95427   6.800  11.900   7.736
97865SOL    HW195428   6.814  11.992   7.758
97865SOL    HW295429   6.716  11.878   7.776
97866SOL     OW95430   5.796   9.180  10.096
97866SOL    HW195431   5.730   9.178  10.165
97866SOL    HW295432   5.759   9.237  10.029
97867SOL     OW95433   9.637   1.302   1.533
97867SOL    HW195434   9.575   1.229   1.536
97867SOL    HW295435   9.701   1.276   1.466
97868SOL     OW95436   1.802  10.827   4.137
97868SOL    HW195437   1.823  10.894   4.201
97868SOL    HW295438   1.878  10.825   4.079
97869SOL     OW95439   6.799   2.772   7.611
97869SOL    HW195440   6.890   2.742   7.612
97869SOL    HW295441   6.752   2.703   7.564
97870SOL     OW95442   9.771  10.159  11.130
97870SOL    HW195443   9.742  10.202  11.210
97870SOL    HW295444   9.846  10.106  11.156
97871SOL     OW95445  11.001   1.687  13.288
97871SOL    HW195446  11.018   1.607  13.238
97871SOL    HW295447  10.916   1.671  13.329
97872SOL     OW95448   4.362   9.886   8.888
97872SOL    HW195449   4.309   9.846   8.818
97872SOL    HW295450   4.362   9.821   8.958
97873SOL     OW95451   0.555   1.926   4.773
97873SOL    HW195452   0.538   1.887   4.687
97873SOL    HW295453   0.554   2.020   4.758
97874SOL     OW95454   5.049  10.249   9.862
97874SOL    HW195455   5.023  10.332   9.821
97874SOL    HW295456   4.969  10.197   9.864
97875SOL     OW95457   3.084   1.384  11.764
97875SOL    HW195458   3.088   1.326  11.688
97875SOL    HW295459   3.041   1.331  11.832
97876SOL     OW95460   7.725   9.606   7.576
97876SOL    HW195461   7.637   9.626   7.545
97876SOL    HW295462   7.712   9.570   7.663
97877SOL     OW95463   2.228  11.447   0.285
97877SOL    HW195464   2.302  11.410   0.237
97877SOL    HW295465   2.151  11.420   0.234
97878SOL     OW95466   1.068   9.826   7.062
97878SOL    HW195467   1.071   9.761   6.991
97878SOL    HW295468   1.151   9.813   7.109
97879SOL     OW95469   4.134  10.031   4.004
97879SOL    HW195470   4.117  10.096   4.072
97879SOL    HW295471   4.229  10.016   4.009
97880SOL     OW95472   1.046   3.009  12.980
97880SOL    HW195473   0.951   2.994  12.983
97880SOL    HW295474   1.066   3.049  13.065
97881SOL     OW95475   0.672  14.746  11.834
97881SOL    HW195476   0.665  14.731  11.740
97881SOL    HW295477   0.583  14.738  11.867
97882SOL     OW95478   8.680   3.228   2.912
97882SOL    HW195479   8.592   3.212   2.948
97882SOL    HW295480   8.674   3.316   2.874
97883SOL     OW95481   9.281   2.807  13.005
97883SOL    HW195482   9.245   2.721  13.026
97883SOL    HW295483   9.260   2.861  13.081
97884SOL     OW95484   3.238  10.220   6.878
97884SOL    HW195485   3.240  10.255   6.789
97884SOL    HW295486   3.163  10.161   6.878
97885SOL     OW95487   2.456   8.679  11.863
97885SOL    HW195488   2.423   8.630  11.788
97885SOL    HW295489   2.544   8.644  11.879
97886SOL     OW95490   9.455  14.732  13.225
97886SOL    HW195491   9.534  14.770  13.187
97886SOL    HW295492   9.483  14.700  13.311
97887SOL     OW95493  14.288   9.165   6.978
97887SOL    HW195494  14.194   9.148   6.978
97887SOL    HW295495  14.315   9.147   6.888
97888SOL     OW95496   9.610   7.831   6.914
97888SOL    HW195497   9.681   7.867   6.968
97888SOL    HW295498   9.545   7.801   6.977
97889SOL     OW95499   2.792   6.221   2.715
97889SOL    HW195500   2.865   6.194   2.658
97889SOL    HW295501   2.795   6.160   2.789
97890SOL     OW95502   9.503   2.036   5.949
97890SOL    HW195503   9.498   2.093   5.873
97890SOL    HW295504   9.597   2.028   5.967
97891SOL     OW95505   7.888  13.405   3.113
97891SOL    HW195506   7.833  13.354   3.172
97891SOL    HW295507   7.880  13.360   3.028
97892SOL     OW95508   8.960   3.738   2.292
97892SOL    HW195509   9.012   3.756   2.213
97892SOL    HW295510   8.989   3.651   2.320
97893SOL     OW95511   3.685   6.795   6.566
97893SOL    HW195512   3.649   6.849   6.494
97893SOL    HW295513   3.662   6.706   6.542
97894SOL     OW95514  10.573   6.314   8.562
97894SOL    HW195515  10.488   6.331   8.522
97894SOL    HW295516  10.560   6.332   8.655
97895SOL     OW95517  11.065   6.828   2.769
97895SOL    HW195518  11.083   6.917   2.800
97895SOL    HW295519  11.013   6.788   2.838
97896SOL     OW95520   0.155   1.188  12.414
97896SOL    HW195521   0.104   1.108  12.416
97896SOL    HW295522   0.124   1.239  12.489
97897SOL     OW95523   2.186  12.823  13.964
97897SOL    HW195524   2.123  12.888  13.931
97897SOL    HW295525   2.271  12.854  13.933
97898SOL     OW95526   2.862   9.344   8.835
97898SOL    HW195527   2.918   9.300   8.899
97898SOL    HW295528   2.893   9.311   8.750
97899SOL     OW95529   5.852   8.087   0.404
97899SOL    HW195530   5.911   8.020   0.437
97899SOL    HW295531   5.813   8.125   0.482
97900SOL     OW95532   6.158  12.398  14.140
97900SOL    HW195533   6.194  12.372  14.056
97900SOL    HW295534   6.081  12.450  14.118
97901SOL     OW95535   2.133  13.092   8.531
97901SOL    HW195536   2.079  13.171   8.524
97901SOL    HW295537   2.081  13.024   8.489
97902SOL     OW95538  10.035   3.413  10.153
97902SOL    HW195539   9.976   3.342  10.129
97902SOL    HW295540  10.011   3.485  10.094
97903SOL     OW95541   7.661   8.945  14.302
97903SOL    HW195542   7.726   8.929  14.370
97903SOL    HW295543   7.712   8.977  14.227
97904SOL     OW95544   2.640   4.350   5.838
97904SOL    HW195545   2.720   4.336   5.887
97904SOL    HW295546   2.579   4.285   5.872
97905SOL     OW95547   1.966  12.221   9.260
97905SOL    HW195548   1.873  12.242   9.260
97905SOL    HW295549   1.977  12.156   9.191
97906SOL     OW95550   7.788   3.363  12.441
97906SOL    HW195551   7.734   3.442  12.440
97906SOL    HW295552   7.770   3.322  12.525
97907SOL     OW95553   1.888   0.039  14.155
97907SOL    HW195554   1.903   0.130  14.129
97907SOL    HW295555   1.817   0.045  14.220
97908SOL     OW95556   3.693   0.357  12.141
97908SOL    HW195557   3.714   0.367  12.048
97908SOL    HW295558   3.682   0.263  12.153
97909SOL     OW95559   3.351   9.329   8.900
97909SOL    HW195560   3.322   9.409   8.943
97909SOL    HW295561   3.316   9.258   8.953
97910SOL     OW95562   0.122   8.804  10.428
97910SOL    HW195563   0.162   8.890  10.411
97910SOL    HW295564   0.110   8.801  10.523
97911SOL     OW95565  10.088  10.768   8.313
97911SOL    HW195566  10.100  10.675   8.297
97911SOL    HW295567  10.011  10.773   8.369
97912SOL     OW95568   0.378  10.695  11.239
97912SOL    HW195569   0.285  10.682  11.255
97912SOL    HW295570   0.392  10.789  11.252
97913SOL     OW95571   0.685  12.990   7.678
97913SOL    HW195572   0.666  13.011   7.769
97913SOL    HW295573   0.599  12.984   7.636
97914SOL     OW95574   6.387   6.262  12.484
97914SOL    HW195575   6.469   6.253  12.435
97914SOL    HW295576   6.357   6.351  12.464
97915SOL     OW95577   9.384   6.565  12.278
97915SOL    HW195578   9.427   6.636  12.231
97915SOL    HW295579   9.440   6.548  12.353
97916SOL     OW95580   0.724   7.138   7.680
97916SOL    HW195581   0.757   7.167   7.595
97916SOL    HW295582   0.632   7.162   7.680
97917SOL     OW95583  13.695   4.409   6.890
97917SOL    HW195584  13.642   4.372   6.819
97917SOL    HW295585  13.748   4.477   6.848
97918SOL     OW95586   8.399   7.951   4.390
97918SOL    HW195587   8.314   7.921   4.358
97918SOL    HW295588   8.405   8.042   4.361
97919SOL     OW95589  10.553   8.775   2.988
97919SOL    HW195590  10.547   8.790   2.894
97919SOL    HW295591  10.636   8.817   3.014
97920SOL     OW95592  12.134  10.124   7.716
97920SOL    HW195593  12.230  10.120   7.717
97920SOL    HW295594  12.114  10.216   7.703
97921SOL     OW95595   7.239  14.675   6.679
97921SOL    HW195596   7.196  14.739   6.735
97921SOL    HW295597   7.287  14.726   6.615
97922SOL     OW95598  14.080   3.764   6.082
97922SOL    HW195599  14.149   3.730   6.025
97922SOL    HW295600  14.002   3.714   6.057
97923SOL     OW95601   7.640   2.406   2.123
97923SOL    HW195602   7.654   2.461   2.200
97923SOL    HW295603   7.656   2.317   2.154
97924SOL     OW95604   3.682   8.743  12.924
97924SOL    HW195605   3.744   8.673  12.906
97924SOL    HW295606   3.605   8.698  12.959
97925SOL     OW95607   8.951  11.458   3.554
97925SOL    HW195608   9.036  11.490   3.523
97925SOL    HW295609   8.888  11.508   3.502
97926SOL     OW95610   5.308   3.898  11.379
97926SOL    HW195611   5.248   3.931  11.311
97926SOL    HW295612   5.351   3.823  11.338
97927SOL     OW95613  13.656  14.169   9.058
97927SOL    HW195614  13.670  14.074   9.054
97927SOL    HW295615  13.704  14.197   9.136
97928SOL     OW95616   7.108   3.604  13.765
97928SOL    HW195617   7.116   3.647  13.850
97928SOL    HW295618   7.091   3.512  13.786
97929SOL     OW95619   4.670  11.121   4.979
97929SOL    HW195620   4.619  11.175   5.039
97929SOL    HW295621   4.674  11.173   4.898
97930SOL     OW95622  12.017   3.462   7.680
97930SOL    HW195623  12.032   3.546   7.638
97930SOL    HW295624  11.974   3.483   7.763
97931SOL     OW95625   6.897  12.483   2.793
97931SOL    HW195626   6.953  12.463   2.869
97931SOL    HW295627   6.903  12.578   2.783
97932SOL     OW95628   3.147   6.461  10.676
97932SOL    HW195629   3.241   6.466  10.694
97932SOL    HW295630   3.142   6.453  10.581
97933SOL     OW95631   6.817  10.915   4.861
97933SOL    HW195632   6.754  10.882   4.797
97933SOL    HW295633   6.775  10.904   4.946
97934SOL     OW95634   8.192  12.807   8.330
97934SOL    HW195635   8.243  12.833   8.407
97934SOL    HW295636   8.163  12.718   8.348
97935SOL     OW95637   6.709  12.539   4.413
97935SOL    HW195638   6.632  12.561   4.361
97935SOL    HW295639   6.780  12.589   4.371
97936SOL     OW95640   8.777   5.689  12.444
97936SOL    HW195641   8.816   5.718  12.362
97936SOL    HW295642   8.779   5.766  12.501
97937SOL     OW95643   5.955   0.261   0.293
97937SOL    HW195644   5.938   0.167   0.302
97937SOL    HW295645   5.947   0.296   0.382
97938SOL     OW95646  11.509   4.558  13.700
97938SOL    HW195647  11.534   4.474  13.661
97938SOL    HW295648  11.524   4.623  13.631
97939SOL     OW95649   1.119   7.704  11.702
97939SOL    HW195650   1.142   7.698  11.795
97939SOL    HW295651   1.168   7.634  11.660
97940SOL     OW95652   3.804   1.105  11.478
97940SOL    HW195653   3.846   1.143  11.400
97940SOL    HW295654   3.754   1.178  11.516
97941SOL     OW95655  13.012   0.250  14.137
97941SOL    HW195656  12.929   0.225  14.177
97941SOL    HW295657  13.018   0.198  14.057
97942SOL     OW95658   0.249   4.015  13.951
97942SOL    HW195659   0.233   4.084  14.015
97942SOL    HW295660   0.175   4.021  13.891
97943SOL     OW95661  12.177   5.185   9.406
97943SOL    HW195662  12.246   5.121   9.386
97943SOL    HW295663  12.123   5.144   9.473
97944SOL     OW95664   7.131   9.686  11.805
97944SOL    HW195665   7.042   9.661  11.780
97944SOL    HW295666   7.187   9.623  11.759
97945SOL     OW95667   2.092   8.459  11.171
97945SOL    HW195668   2.023   8.515  11.136
97945SOL    HW295669   2.145   8.436  11.095
97946SOL     OW95670   2.743   5.224  12.317
97946SOL    HW195671   2.794   5.218  12.236
97946SOL    HW295672   2.807   5.212  12.387
97947SOL     OW95673   5.748   2.603   3.524
97947SOL    HW195674   5.683   2.560   3.580
97947SOL    HW295675   5.787   2.532   3.474
97948SOL     OW95676   8.614  11.419  14.745
97948SOL    HW195677   8.662  11.478  14.687
97948SOL    HW295678   8.671  11.342  14.754
97949SOL     OW95679  14.675   6.953   5.588
97949SOL    HW195680  14.748   7.012   5.572
97949SOL    HW295681  14.697   6.910   5.670
97950SOL     OW95682   2.582  10.918   2.588
97950SOL    HW195683   2.508  10.966   2.550
97950SOL    HW295684   2.567  10.922   2.682
97951SOL     OW95685   8.044  10.042  14.498
97951SOL    HW195686   7.959  10.001  14.483
97951SOL    HW295687   8.089  10.034  14.414
97952SOL     OW95688   5.831  14.115   4.722
97952SOL    HW195689   5.837  14.115   4.626
97952SOL    HW295690   5.755  14.060   4.740
97953SOL     OW95691   3.574   3.811  12.717
97953SOL    HW195692   3.645   3.819  12.782
97953SOL    HW295693   3.578   3.719  12.690
97954SOL     OW95694  10.981   7.145  10.703
97954SOL    HW195695  11.047   7.077  10.717
97954SOL    HW295696  10.962   7.142  10.610
97955SOL     OW95697  11.307   6.520   6.692
97955SOL    HW195698  11.296   6.542   6.784
97955SOL    HW295699  11.327   6.603   6.649
97956SOL     OW95700   5.478   0.728   4.431
97956SOL    HW195701   5.527   0.718   4.350
97956SOL    HW295702   5.457   0.821   4.436
97957SOL     OW95703  13.778  13.637  14.006
97957SOL    HW195704  13.750  13.600  14.089
97957SOL    HW295705  13.765  13.567  13.943
97958SOL     OW95706  13.024  12.277   6.410
97958SOL    HW195707  13.045  12.327   6.331
97958SOL    HW295708  12.929  12.269   6.408
97959SOL     OW95709   6.099   8.507  14.401
97959SOL    HW195710   6.076   8.454  14.478
97959SOL    HW295711   6.020   8.510  14.349
97960SOL     OW95712   4.190   2.562  12.117
97960SOL    HW195713   4.100   2.573  12.086
97960SOL    HW295714   4.197   2.470  12.140
97961SOL     OW95715   5.531   0.405   4.299
97961SOL    HW195716   5.464   0.452   4.249
97961SOL    HW295717   5.482   0.344   4.354
97962SOL     OW95718  10.926   9.637   7.514
97962SOL    HW195719  10.857   9.597   7.567
97962SOL    HW295720  10.964   9.705   7.570
97963SOL     OW95721  11.657   0.837   2.993
97963SOL    HW195722  11.705   0.846   2.910
97963SOL    HW295723  11.719   0.867   3.059
97964SOL     OW95724  14.303   8.913   7.733
97964SOL    HW195725  14.211   8.918   7.707
97964SOL    HW295726  14.300   8.894   7.827
97965SOL     OW95727   0.409  10.334  11.315
97965SOL    HW195728   0.423  10.419  11.275
97965SOL    HW295729   0.353  10.287  11.252
97966SOL     OW95730  13.574   3.694   1.189
97966SOL    HW195731  13.621   3.731   1.264
97966SOL    HW295732  13.627   3.718   1.113
97967SOL     OW95733   7.446   2.185  13.709
97967SOL    HW195734   7.363   2.142  13.730
97967SOL    HW295735   7.422   2.256  13.650
97968SOL     OW95736  12.497  10.395   7.801
97968SOL    HW195737  12.414  10.439   7.782
97968SOL    HW295738  12.559  10.466   7.813
97969SOL     OW95739  10.855  13.464  13.516
97969SOL    HW195740  10.761  13.467  13.500
97969SOL    HW295741  10.863  13.444  13.609
97970SOL     OW95742   6.000   0.365   4.986
97970SOL    HW195743   5.979   0.368   5.079
97970SOL    HW295744   5.932   0.309   4.948
97971SOL     OW95745   0.007   2.458   1.470
97971SOL    HW195746  14.843   2.541   1.492
97971SOL    HW295747  14.818   2.392   1.484
97972SOL     OW95748  12.653   4.017   6.145
97972SOL    HW195749  12.729   4.070   6.123
97972SOL    HW295750  12.623   3.983   6.061
97973SOL     OW95751  12.434  10.594  14.175
97973SOL    HW195752  12.521  10.587  14.215
97973SOL    HW295753  12.376  10.549  14.236
97974SOL     OW95754   2.504  14.364  12.514
97974SOL    HW195755   2.512  14.272  12.490
97974SOL    HW295756   2.423  14.393  12.471
97975SOL     OW95757   4.254   9.600   2.581
97975SOL    HW195758   4.217   9.630   2.665
97975SOL    HW295759   4.323   9.663   2.562
97976SOL     OW95760  11.897   5.670   2.055
97976SOL    HW195761  11.961   5.621   2.106
97976SOL    HW295762  11.830   5.695   2.119
97977SOL     OW95763  13.257   4.082   6.774
97977SOL    HW195764  13.272   4.040   6.858
97977SOL    HW295765  13.290   4.020   6.709
97978SOL     OW95766  14.606  11.860   7.543
97978SOL    HW195767  14.534  11.882   7.603
97978SOL    HW295768  14.603  11.930   7.477
97979SOL     OW95769  10.462   4.624  12.841
97979SOL    HW195770  10.410   4.685  12.789
97979SOL    HW295771  10.553   4.647  12.822
97980SOL     OW95772  10.322   8.192  12.657
97980SOL    HW195773  10.294   8.200  12.566
97980SOL    HW295774  10.290   8.272  12.699
97981SOL     OW95775   7.815   2.603  12.920
97981SOL    HW195776   7.747   2.653  12.875
97981SOL    HW295777   7.882   2.668  12.941
97982SOL     OW95778   7.897   1.907   2.662
97982SOL    HW195779   7.808   1.878   2.641
97982SOL    HW295780   7.954   1.849   2.612
97983SOL     OW95781   5.593  14.091  14.761
97983SOL    HW195782   5.629  14.025  14.821
97983SOL    HW295783   5.663  14.108  14.699
97984SOL     OW95784   5.354   6.286   1.945
97984SOL    HW195785   5.289   6.309   1.879
97984SOL    HW295786   5.336   6.345   2.018
97985SOL     OW95787  11.145  13.941   7.515
97985SOL    HW195788  11.203  13.942   7.592
97985SOL    HW295789  11.064  13.902   7.547
97986SOL     OW95790  11.935   1.879   6.709
97986SOL    HW195791  11.937   1.843   6.798
97986SOL    HW295792  12.024   1.911   6.694
97987SOL     OW95793   4.541  14.691   1.961
97987SOL    HW195794   4.552  14.601   1.931
97987SOL    HW295795   4.475  14.686   2.030
97988SOL     OW95796   9.182   9.021  10.418
97988SOL    HW195797   9.132   8.994  10.495
97988SOL    HW295798   9.149   9.108  10.397
97989SOL     OW95799   4.006   4.677  14.693
97989SOL    HW195800   4.066   4.751  14.681
97989SOL    HW295801   4.037   4.634  14.773
97990SOL     OW95802   1.972  13.148   2.566
97990SOL    HW195803   1.904  13.160   2.499
97990SOL    HW295804   2.048  13.194   2.530
97991SOL     OW95805  11.051   5.319  14.749
97991SOL    HW195806  10.986   5.250  14.739
97991SOL    HW295807  11.135   5.276  14.737
97992SOL     OW95808  14.687   4.485  12.105
97992SOL    HW195809  14.715   4.576  12.118
97992SOL    HW295810  14.760   4.444  12.059
97993SOL     OW95811   4.563  10.607   9.288
97993SOL    HW195812   4.475  10.579   9.312
97993SOL    HW295813   4.563  10.702   9.302
97994SOL     OW95814   8.746   3.064   4.911
97994SOL    HW195815   8.700   3.035   4.990
97994SOL    HW295816   8.757   3.158   4.923
97995SOL     OW95817   1.840  10.517   4.747
97995SOL    HW195818   1.839  10.528   4.842
97995SOL    HW295819   1.834  10.423   4.733
97996SOL     OW95820   4.960   5.444  14.488
97996SOL    HW195821   4.964   5.363  14.437
97996SOL    HW295822   5.036   5.494  14.461
97997SOL     OW95823   0.078  13.565  12.318
97997SOL    HW195824   0.077  13.470  12.321
97997SOL    HW295825  14.874  13.590  12.277
97998SOL     OW95826  13.605  10.207   1.067
97998SOL    HW195827  13.550  10.143   1.112
97998SOL    HW295828  13.548  10.283   1.056
97999SOL     OW95829  13.129  10.243  12.187
97999SOL    HW195830  13.171  10.157  12.182
97999SOL    HW295831  13.157  10.278  12.272
98000SOL     OW95832  12.442   2.218  12.414
98000SOL    HW195833  12.395   2.183  12.489
98000SOL    HW295834  12.453   2.142  12.356
98001SOL     OW95835   2.481  14.457   1.214
98001SOL    HW195836   2.435  14.414   1.286
98001SOL    HW295837   2.484  14.390   1.145
98002SOL     OW95838  11.792   3.591   6.812
98002SOL    HW195839  11.834   3.527   6.869
98002SOL    HW295840  11.864   3.646   6.781
98003SOL     OW95841  12.474   0.617  10.577
98003SOL    HW195842  12.527   0.661  10.643
98003SOL    HW295843  12.422   0.686  10.537
98004SOL     OW95844   1.835   7.232  10.330
98004SOL    HW195845   1.833   7.188  10.415
98004SOL    HW295846   1.796   7.317  10.346
98005SOL     OW95847   3.792   0.650  12.492
98005SOL    HW195848   3.718   0.615  12.543
98005SOL    HW295849   3.777   0.618  12.404
98006SOL     OW95850   2.634  13.848   2.871
98006SOL    HW195851   2.670  13.865   2.784
98006SOL    HW295852   2.684  13.772   2.902
98007SOL     OW95853   8.866   5.353  11.766
98007SOL    HW195854   8.922   5.276  11.777
98007SOL    HW295855   8.926   5.424  11.746
98008SOL     OW95856   1.799   5.316   4.167
98008SOL    HW195857   1.797   5.300   4.073
98008SOL    HW295858   1.719   5.274   4.200
98009SOL     OW95859   2.989   2.856  11.328
98009SOL    HW195860   2.978   2.761  11.325
98009SOL    HW295861   2.902   2.892  11.312
98010SOL     OW95862   1.446  10.996   4.302
98010SOL    HW195863   1.478  10.907   4.319
98010SOL    HW295864   1.366  10.984   4.251
98011SOL     OW95865  12.093   3.119   2.924
98011SOL    HW195866  12.062   3.063   2.995
98011SOL    HW295867  12.078   3.067   2.844
98012SOL     OW95868  12.839   5.057  11.045
98012SOL    HW195869  12.909   5.081  10.984
98012SOL    HW295870  12.767   5.115  11.022
98013SOL     OW95871  14.774   5.194   2.964
98013SOL    HW195872  14.770   5.149   3.048
98013SOL    HW295873  14.743   5.130   2.900
98014SOL     OW95874   0.758   9.384   0.117
98014SOL    HW195875   0.849   9.373   0.087
98014SOL    HW295876   0.740   9.477   0.101
98015SOL     OW95877   0.094  12.639   4.773
98015SOL    HW195878   0.157  12.591   4.718
98015SOL    HW295879   0.010  12.598   4.754
98016SOL     OW95880  11.507   5.223  13.353
98016SOL    HW195881  11.540   5.296  13.406
98016SOL    HW295882  11.584   5.190  13.306
98017SOL     OW95883   2.986  10.091   4.182
98017SOL    HW195884   3.077  10.063   4.195
98017SOL    HW295885   2.987  10.185   4.201
98018SOL     OW95886   9.343   5.824   4.971
98018SOL    HW195887   9.327   5.896   5.032
98018SOL    HW295888   9.312   5.858   4.887
98019SOL     OW95889  14.486   0.555   0.442
98019SOL    HW195890  14.434   0.520   0.515
98019SOL    HW295891  14.472   0.493   0.371
98020SOL     OW95892   3.589   4.207   7.527
98020SOL    HW195893   3.511   4.241   7.571
98020SOL    HW295894   3.554   4.150   7.458
98021SOL     OW95895   2.753  11.696  14.088
98021SOL    HW195896   2.814  11.769  14.101
98021SOL    HW295897   2.753  11.651  14.173
98022SOL     OW95898   6.802   0.972   2.506
98022SOL    HW195899   6.805   0.877   2.504
98022SOL    HW295900   6.768   0.997   2.421
98023SOL     OW95901  13.193  13.425   6.097
98023SOL    HW195902  13.185  13.519   6.112
98023SOL    HW295903  13.135  13.408   6.022
98024SOL     OW95904   5.679  13.165  10.761
98024SOL    HW195905   5.617  13.201  10.824
98024SOL    HW295906   5.634  13.172  10.677
98025SOL     OW95907   1.054   3.883   1.496
98025SOL    HW195908   1.044   3.863   1.589
98025SOL    HW295909   0.996   3.958   1.481
98026SOL     OW95910   3.953   3.984  11.639
98026SOL    HW195911   3.914   3.898  11.621
98026SOL    HW295912   4.030   3.989  11.582
98027SOL     OW95913   4.721   3.498   1.102
98027SOL    HW195914   4.705   3.433   1.171
98027SOL    HW295915   4.687   3.457   1.023
98028SOL     OW95916  11.603  12.641   0.426
98028SOL    HW195917  11.665  12.568   0.425
98028SOL    HW295918  11.538  12.615   0.491
98029SOL     OW95919   8.639  12.923   5.508
98029SOL    HW195920   8.576  12.946   5.576
98029SOL    HW295921   8.589  12.869   5.447
98030SOL     OW95922   8.769   2.345   4.051
98030SOL    HW195923   8.828   2.285   4.005
98030SOL    HW295924   8.681   2.321   4.019
98031SOL     OW95925  12.462  13.379  13.803
98031SOL    HW195926  12.521  13.435  13.753
98031SOL    HW295927  12.485  13.290  13.777
98032SOL     OW95928  10.636  10.513   3.071
98032SOL    HW195929  10.722  10.541   3.103
98032SOL    HW295930  10.607  10.585   3.014
98033SOL     OW95931   9.832   0.390   7.522
98033SOL    HW195932   9.746   0.379   7.563
98033SOL    HW295933   9.878   0.309   7.539
98034SOL     OW95934  13.211  14.208  11.089
98034SOL    HW195935  13.220  14.279  11.153
98034SOL    HW295936  13.299  14.169  11.085
98035SOL     OW95937  11.955   8.623  13.942
98035SOL    HW195938  11.946   8.549  14.002
98035SOL    HW295939  11.865   8.651  13.925
98036SOL     OW95940  13.388  11.731   1.991
98036SOL    HW195941  13.391  11.641   2.023
98036SOL    HW295942  13.474  11.767   2.010
98037SOL     OW95943   5.039   0.761   2.483
98037SOL    HW195944   4.988   0.691   2.524
98037SOL    HW295945   5.022   0.838   2.536
98038SOL     OW95946   4.261   0.414   1.552
98038SOL    HW195947   4.290   0.473   1.622
98038SOL    HW295948   4.192   0.361   1.591
98039SOL     OW95949   0.358   2.913   5.286
98039SOL    HW195950   0.297   2.913   5.212
98039SOL    HW295951   0.418   2.985   5.268
98040SOL     OW95952  13.663   6.727  11.967
98040SOL    HW195953  13.623   6.813  11.981
98040SOL    HW295954  13.691   6.698  12.054
98041SOL     OW95955   6.454  10.013   7.676
98041SOL    HW195956   6.543   9.990   7.649
98041SOL    HW295957   6.418  10.060   7.601
98042SOL     OW95958   3.458   6.851   5.842
98042SOL    HW195959   3.508   6.794   5.900
98042SOL    HW295960   3.468   6.938   5.880
98043SOL     OW95961   6.083   8.089   8.822
98043SOL    HW195962   6.007   8.073   8.767
98043SOL    HW295963   6.149   8.126   8.763
98044SOL     OW95964   9.939   5.630   8.157
98044SOL    HW195965   9.898   5.715   8.143
98044SOL    HW295966   9.895   5.572   8.095
98045SOL     OW95967  10.935   7.848   6.894
98045SOL    HW195968  10.896   7.935   6.886
98045SOL    HW295969  10.864   7.794   6.929
98046SOL     OW95970   1.330   1.248   8.671
98046SOL    HW195971   1.375   1.307   8.732
98046SOL    HW295972   1.398   1.188   8.640
98047SOL     OW95973  13.355   4.621   6.386
98047SOL    HW195974  13.401   4.703   6.405
98047SOL    HW295975  13.281   4.647   6.331
98048SOL     OW95976  13.916   1.526   9.457
98048SOL    HW195977  13.927   1.457   9.523
98048SOL    HW295978  14.006   1.549   9.431
98049SOL     OW95979   1.317   1.262   0.127
98049SOL    HW195980   1.368   1.249   0.047
98049SOL    HW295981   1.366   1.327   0.176
98050SOL     OW95982   1.706  11.815   4.918
98050SOL    HW195983   1.793  11.817   4.880
98050SOL    HW295984   1.692  11.903   4.952
98051SOL     OW95985   7.963   5.132   8.875
98051SOL    HW195986   8.015   5.071   8.927
98051SOL    HW295987   7.995   5.219   8.901
98052SOL     OW95988   9.101   9.004   1.455
98052SOL    HW195989   9.147   8.920   1.460
98052SOL    HW295990   9.036   8.993   1.385
98053SOL     OW95991  10.135   5.244   7.565
98053SOL    HW195992  10.184   5.224   7.645
98053SOL    HW295993  10.060   5.295   7.595
98054SOL     OW95994   3.352   7.155   6.676
98054SOL    HW195995   3.258   7.136   6.670
98054SOL    HW295996   3.387   7.124   6.592
98055SOL     OW95997   2.858  10.443  10.080
98055SOL    HW195998   2.833  10.387  10.154
98055SOL    HW295999   2.801  10.414  10.008
98056SOL     OW96000   7.533  12.620   0.631
98056SOL    HW196001   7.564  12.639   0.543
98056SOL    HW296002   7.450  12.574   0.618
98057SOL     OW96003  14.439   8.963   5.340
98057SOL    HW196004  14.458   8.957   5.433
98057SOL    HW296005  14.519   8.998   5.301
98058SOL     OW96006   9.674   4.448  13.603
98058SOL    HW196007   9.589   4.433  13.643
98058SOL    HW296008   9.725   4.370  13.625
98059SOL     OW96009   2.453  11.045   4.756
98059SOL    HW196010   2.396  11.030   4.681
98059SOL    HW296011   2.418  11.123   4.798
98060SOL     OW96012   2.654  11.021   0.545
98060SOL    HW196013   2.736  11.039   0.590
98060SOL    HW296014   2.599  11.097   0.565
98061SOL     OW96015   6.379   1.698  13.870
98061SOL    HW196016   6.429   1.692  13.952
98061SOL    HW296017   6.391   1.613  13.828
98062SOL     OW96018  10.611   9.017   2.819
98062SOL    HW196019  10.693   9.064   2.830
98062SOL    HW296020  10.547   9.066   2.870
98063SOL     OW96021   1.642  11.021  13.042
98063SOL    HW196022   1.547  11.026  13.055
98063SOL    HW296023   1.658  11.067  12.960
98064SOL     OW96024   5.844  10.614  10.072
98064SOL    HW196025   5.794  10.670  10.132
98064SOL    HW296026   5.916  10.580  10.125
98065SOL     OW96027   4.988   2.268   2.245
98065SOL    HW196028   5.025   2.353   2.268
98065SOL    HW296029   5.024   2.208   2.310
98066SOL     OW96030   6.786  12.873  13.066
98066SOL    HW196031   6.817  12.784  13.047
98066SOL    HW296032   6.810  12.923  12.988
98067SOL     OW96033   4.553   3.916   3.035
98067SOL    HW196034   4.546   3.885   3.125
98067SOL    HW296035   4.646   3.911   3.015
98068SOL     OW96036   6.997  14.373   8.892
98068SOL    HW196037   7.050  14.299   8.922
98068SOL    HW296038   7.037  14.399   8.809
98069SOL     OW96039   1.373  11.683   4.196
98069SOL    HW196040   1.331  11.719   4.118
98069SOL    HW296041   1.384  11.758   4.254
98070SOL     OW96042   1.099   9.694   0.986
98070SOL    HW196043   1.129   9.700   1.077
98070SOL    HW296044   1.084   9.601   0.971
98071SOL     OW96045   0.510  12.214   6.442
98071SOL    HW196046   0.514  12.242   6.350
98071SOL    HW296047   0.464  12.286   6.486
98072SOL     OW96048  10.447   2.674   2.591
98072SOL    HW196049  10.506   2.619   2.541
98072SOL    HW296050  10.392   2.613   2.640
98073SOL     OW96051  11.311   6.408   9.901
98073SOL    HW196052  11.314   6.345   9.973
98073SOL    HW296053  11.298   6.355   9.823
98074SOL     OW96054   9.292  14.138   2.601
98074SOL    HW196055   9.281  14.043   2.596
98074SOL    HW296056   9.387  14.151   2.601
98075SOL     OW96057   9.891   5.996  11.396
98075SOL    HW196058   9.865   6.049  11.472
98075SOL    HW296059   9.960   6.047  11.354
98076SOL     OW96060   1.778  14.015   2.568
98076SOL    HW196061   1.694  13.976   2.546
98076SOL    HW296062   1.812  13.959   2.638
98077SOL     OW96063  11.360   6.671  11.669
98077SOL    HW196064  11.409   6.589  11.660
98077SOL    HW296065  11.273   6.643  11.696
98078SOL     OW96066  11.519   4.428   8.241
98078SOL    HW196067  11.534   4.358   8.178
98078SOL    HW296068  11.458   4.390   8.305
98079SOL     OW96069  13.953   8.956   2.450
98079SOL    HW196070  14.016   8.950   2.522
98079SOL    HW296071  13.993   8.905   2.379
98080SOL     OW96072   4.681   8.697  11.746
98080SOL    HW196073   4.749   8.629  11.741
98080SOL    HW296074   4.730   8.778  11.763
98081SOL     OW96075  14.141  12.379   8.971
98081SOL    HW196076  14.203  12.367   9.043
98081SOL    HW296077  14.100  12.463   8.989
98082SOL     OW96078   7.802  12.852   9.043
98082SOL    HW196079   7.775  12.854   9.135
98082SOL    HW296080   7.747  12.784   9.003
98083SOL     OW96081   9.839   8.325   1.772
98083SOL    HW196082   9.855   8.340   1.865
98083SOL    HW296083   9.861   8.408   1.730
98084SOL     OW96084   6.082   7.858   0.453
98084SOL    HW196085   6.139   7.835   0.527
98084SOL    HW296086   6.107   7.797   0.383
98085SOL     OW96087  14.746   4.295   7.945
98085SOL    HW196088  14.739   4.243   8.026
98085SOL    HW296089  14.840   4.308   7.933
98086SOL     OW96090   7.175  13.559   9.771
98086SOL    HW196091   7.228  13.581   9.847
98086SOL    HW296092   7.132  13.477   9.795
98087SOL     OW96093   9.916  10.381  14.225
98087SOL    HW196094   9.887  10.329  14.150
98087SOL    HW296095   9.961  10.319  14.282
98088SOL     OW96096   8.778   4.814  10.847
98088SOL    HW196097   8.862   4.768  10.849
98088SOL    HW296098   8.725   4.765  10.783
98089SOL     OW96099   8.242  13.254   7.073
98089SOL    HW196100   8.318  13.211   7.113
98089SOL    HW296101   8.279  13.331   7.029
98090SOL     OW96102   4.194   8.760   5.740
98090SOL    HW196103   4.276   8.791   5.779
98090SOL    HW296104   4.182   8.673   5.776
98091SOL     OW96105  14.662   5.057  14.599
98091SOL    HW196106  14.602   4.987  14.624
98091SOL    HW296107  14.744   5.035  14.642
98092SOL     OW96108   0.154  13.977  11.168
98092SOL    HW196109   0.107  14.048  11.123
98092SOL    HW296110   0.196  14.020  11.243
98093SOL     OW96111   6.881   7.060   4.353
98093SOL    HW196112   6.818   7.074   4.282
98093SOL    HW296113   6.832   7.081   4.433
98094SOL     OW96114  12.776   2.966   6.560
98094SOL    HW196115  12.818   3.052   6.562
98094SOL    HW296116  12.725   2.966   6.479
98095SOL     OW96117   8.531  12.606  12.229
98095SOL    HW196118   8.582  12.567  12.300
98095SOL    HW296119   8.527  12.699  12.251
98096SOL     OW96120   9.590   7.300   2.514
98096SOL    HW196121   9.644   7.236   2.467
98096SOL    HW296122   9.649   7.340   2.578
98097SOL     OW96123   4.147   1.685   8.420
98097SOL    HW196124   4.077   1.619   8.422
98097SOL    HW296125   4.215   1.649   8.477
98098SOL     OW96126  12.890  13.070   8.375
98098SOL    HW196127  12.980  13.093   8.356
98098SOL    HW296128  12.852  13.149   8.414
98099SOL     OW96129  14.370  11.739   5.572
98099SOL    HW196130  14.349  11.731   5.479
98099SOL    HW296131  14.465  11.725   5.576
98100SOL     OW96132   4.757  13.034  13.995
98100SOL    HW196133   4.775  12.963  13.934
98100SOL    HW296134   4.798  13.006  14.077
98101SOL     OW96135  12.636   0.383   4.906
98101SOL    HW196136  12.649   0.460   4.962
98101SOL    HW296137  12.592   0.418   4.828
98102SOL     OW96138   6.698   2.852   6.409
98102SOL    HW196139   6.776   2.898   6.377
98102SOL    HW296140   6.732   2.788   6.472
98103SOL     OW96141   2.950   9.779   4.578
98103SOL    HW196142   3.034   9.792   4.534
98103SOL    HW296143   2.892   9.745   4.509
98104SOL     OW96144   7.522   5.154   1.045
98104SOL    HW196145   7.493   5.160   0.954
98104SOL    HW296146   7.462   5.090   1.085
98105SOL     OW96147  13.369   4.433   7.531
98105SOL    HW196148  13.302   4.367   7.511
98105SOL    HW296149  13.356   4.453   7.624
98106SOL     OW96150   8.333   0.566   0.800
98106SOL    HW196151   8.345   0.660   0.793
98106SOL    HW296152   8.292   0.540   0.718
98107SOL     OW96153   3.690   7.985   6.332
98107SOL    HW196154   3.642   7.940   6.263
98107SOL    HW296155   3.782   7.978   6.306
98108SOL     OW96156   8.036   5.629  11.418
98108SOL    HW196157   8.052   5.642  11.324
98108SOL    HW296158   8.122   5.641  11.459
98109SOL     OW96159   4.996   4.276   2.561
98109SOL    HW196160   5.010   4.190   2.523
98109SOL    HW296161   4.905   4.297   2.541
98110SOL     OW96162  14.626   4.715   5.590
98110SOL    HW196163  14.667   4.802   5.591
98110SOL    HW296164  14.590   4.705   5.678
98111SOL     OW96165   0.722   0.377   4.644
98111SOL    HW196166   0.806   0.392   4.600
98111SOL    HW296167   0.659   0.429   4.595
98112SOL     OW96168  13.005  11.404   5.245
98112SOL    HW196169  13.042  11.322   5.211
98112SOL    HW296170  13.038  11.409   5.335
98113SOL     OW96171   0.245  10.843   9.000
98113SOL    HW196172   0.249  10.878   8.911
98113SOL    HW296173   0.334  10.811   9.016
98114SOL     OW96174   2.005  12.970   8.319
98114SOL    HW196175   2.020  12.897   8.259
98114SOL    HW296176   1.945  12.935   8.385
98115SOL     OW96177  14.545   8.451   5.787
98115SOL    HW196178  14.616   8.498   5.831
98115SOL    HW296179  14.586   8.370   5.756
98116SOL     OW96180   9.251   7.042  12.616
98116SOL    HW196181   9.335   7.035  12.572
98116SOL    HW296182   9.188   7.057  12.546
98117SOL     OW96183   5.183  13.956   7.541
98117SOL    HW196184   5.092  13.968   7.568
98117SOL    HW296185   5.205  14.038   7.496
98118SOL     OW96186   5.427  12.707   1.290
98118SOL    HW196187   5.387  12.793   1.276
98118SOL    HW296188   5.515  12.727   1.321
98119SOL     OW96189  13.009   8.806   5.753
98119SOL    HW196190  13.002   8.742   5.683
98119SOL    HW296191  13.004   8.891   5.709
98120SOL     OW96192   9.075   9.474   2.076
98120SOL    HW196193   9.132   9.462   2.153
98120SOL    HW296194   9.030   9.390   2.067
98121SOL     OW96195   7.960  10.534   3.148
98121SOL    HW196196   7.998  10.504   3.066
98121SOL    HW296197   7.910  10.459   3.181
98122SOL     OW96198   5.050   9.427   7.521
98122SOL    HW196199   4.995   9.502   7.543
98122SOL    HW296200   5.017   9.397   7.437
98123SOL     OW96201   0.343  12.526   3.993
98123SOL    HW196202   0.327  12.516   3.899
98123SOL    HW296203   0.264  12.569   4.026
98124SOL     OW96204   9.548   4.129  12.265
98124SOL    HW196205   9.597   4.047  12.260
98124SOL    HW296206   9.603   4.186  12.319
98125SOL     OW96207   8.852  11.369   0.150
98125SOL    HW196208   8.818  11.342   0.064
98125SOL    HW296209   8.792  11.329   0.213
98126SOL     OW96210  12.549   5.203   8.907
98126SOL    HW196211  12.470   5.245   8.872
98126SOL    HW296212  12.532   5.109   8.899
98127SOL     OW96213   0.371  14.652   1.378
98127SOL    HW196214   0.384  14.613   1.292
98127SOL    HW296215   0.457  14.647   1.420
98128SOL     OW96216  14.644   5.896   4.662
98128SOL    HW196217  14.606   5.809   4.650
98128SOL    HW296218  14.613   5.923   4.748
98129SOL     OW96219   7.198   6.500   1.354
98129SOL    HW196220   7.106   6.524   1.343
98129SOL    HW296221   7.223   6.462   1.270
98130SOL     OW96222  11.738  10.850   2.538
98130SOL    HW196223  11.733  10.813   2.627
98130SOL    HW296224  11.738  10.945   2.552
98131SOL     OW96225   7.910   8.114  11.998
98131SOL    HW196226   7.991   8.088  12.043
98131SOL    HW296227   7.880   8.191  12.046
98132SOL     OW96228   7.063   5.828  13.653
98132SOL    HW196229   7.120   5.829  13.576
98132SOL    HW296230   7.119   5.861  13.724
98133SOL     OW96231   2.044   2.540  13.691
98133SOL    HW196232   2.013   2.621  13.648
98133SOL    HW296233   1.985   2.530  13.766
98134SOL     OW96234  14.801  14.458  12.901
98134SOL    HW196235  14.859  14.401  12.850
98134SOL    HW296236  14.822  14.547  12.872
98135SOL     OW96237   6.496  11.074   9.127
98135SOL    HW196238   6.498  10.979   9.133
98135SOL    HW296239   6.577  11.098   9.083
98136SOL     OW96240  12.186  12.672   3.503
98136SOL    HW196241  12.273  12.707   3.487
98136SOL    HW296242  12.199  12.601   3.566
98137SOL     OW96243   4.075   3.428   2.620
98137SOL    HW196244   4.068   3.518   2.588
98137SOL    HW296245   4.169   3.408   2.618
98138SOL     OW96246  12.962   2.681   3.331
98138SOL    HW196247  12.911   2.719   3.402
98138SOL    HW296248  12.975   2.752   3.269
98139SOL     OW96249  10.714  12.067  12.590
98139SOL    HW196250  10.685  12.145  12.636
98139SOL    HW296251  10.809  12.075  12.587
98140SOL     OW96252   3.582   0.073  11.390
98140SOL    HW196253   3.628   0.010  11.446
98140SOL    HW296254   3.652   0.124  11.350
98141SOL     OW96255   9.921   3.657   6.136
98141SOL    HW196256   9.861   3.595   6.179
98141SOL    HW296257   9.892   3.660   6.045
98142SOL     OW96258   3.633   6.301   8.919
98142SOL    HW196259   3.646   6.220   8.968
98142SOL    HW296260   3.574   6.353   8.973
98143SOL     OW96261   9.942   7.694   3.810
98143SOL    HW196262   9.988   7.758   3.865
98143SOL    HW296263   9.912   7.745   3.734
98144SOL     OW96264   5.621  11.152   8.020
98144SOL    HW196265   5.630  11.175   7.928
98144SOL    HW296266   5.710  11.127   8.047
98145SOL     OW96267   1.310   6.821  13.718
98145SOL    HW196268   1.382   6.791  13.774
98145SOL    HW296269   1.274   6.897  13.764
98146SOL     OW96270   1.826   8.930   6.192
98146SOL    HW196271   1.752   8.991   6.192
98146SOL    HW296272   1.889   8.969   6.132
98147SOL     OW96273   2.239   0.504  10.526
98147SOL    HW196274   2.233   0.504  10.431
98147SOL    HW296275   2.164   0.451  10.554
98148SOL     OW96276   0.475   1.980  10.862
98148SOL    HW196277   0.473   2.006  10.770
98148SOL    HW296278   0.466   2.062  10.910
98149SOL     OW96279   7.911   4.772   7.103
98149SOL    HW196280   7.954   4.697   7.144
98149SOL    HW296281   7.952   4.848   7.143
98150SOL     OW96282   4.005   9.434   0.407
98150SOL    HW196283   4.050   9.454   0.489
98150SOL    HW296284   3.931   9.379   0.432
98151SOL     OW96285  12.735   2.247   1.302
98151SOL    HW196286  12.700   2.203   1.379
98151SOL    HW296287  12.806   2.190   1.271
98152SOL     OW96288  11.326  11.981  10.652
98152SOL    HW196289  11.305  12.020  10.737
98152SOL    HW296290  11.356  11.893  10.673
98153SOL     OW96291   6.902   9.042   6.412
98153SOL    HW196292   6.859   8.957   6.417
98153SOL    HW296293   6.982   9.032   6.463
98154SOL     OW96294   1.990   7.222  13.083
98154SOL    HW196295   1.936   7.277  13.026
98154SOL    HW296296   2.044   7.170  13.024
98155SOL     OW96297   1.864   7.288   1.978
98155SOL    HW196298   1.912   7.230   2.037
98155SOL    HW296299   1.907   7.276   1.893
98156SOL     OW96300   6.330   4.763   2.424
98156SOL    HW196301   6.299   4.844   2.464
98156SOL    HW296302   6.420   4.781   2.398
98157SOL     OW96303   4.878   5.162  11.261
98157SOL    HW196304   4.797   5.119  11.288
98157SOL    HW296305   4.919   5.191  11.343
98158SOL     OW96306   6.995   9.987   0.025
98158SOL    HW196307   7.079   9.945   0.038
98158SOL    HW296308   7.006  10.075   0.061
98159SOL     OW96309  11.939   6.539  13.392
98159SOL    HW196310  12.022   6.496  13.372
98159SOL    HW296311  11.874   6.491  13.340
98160SOL     OW96312   3.538  10.381   0.302
98160SOL    HW196313   3.628  10.401   0.276
98160SOL    HW296314   3.540  10.378   0.397
98161SOL     OW96315  13.399   7.266   9.512
98161SOL    HW196316  13.490   7.237   9.522
98161SOL    HW296317  13.397   7.353   9.552
98162SOL     OW96318   9.666   3.422  11.421
98162SOL    HW196319   9.598   3.396  11.359
98162SOL    HW296320   9.716   3.490  11.375
98163SOL     OW96321   0.888  14.878  10.950
98163SOL    HW196322   0.864  14.787  10.933
98163SOL    HW296323   0.970  14.872  10.999
98164SOL     OW96324  13.490   4.987  12.028
98164SOL    HW196325  13.515   5.013  11.939
98164SOL    HW296326  13.512   5.064  12.082
98165SOL     OW96327   7.745  10.010   8.761
98165SOL    HW196328   7.693  10.048   8.690
98165SOL    HW296329   7.701   9.927   8.780
98166SOL     OW96330   6.160   4.327   4.854
98166SOL    HW196331   6.176   4.382   4.931
98166SOL    HW296332   6.217   4.252   4.866
98167SOL     OW96333   8.602   0.071  11.678
98167SOL    HW196334   8.695   0.095  11.683
98167SOL    HW296335   8.572   0.070  11.769
98168SOL     OW96336   7.749   1.362  10.349
98168SOL    HW196337   7.737   1.441  10.296
98168SOL    HW296338   7.661   1.340  10.380
98169SOL     OW96339   8.575   5.588  10.310
98169SOL    HW196340   8.489   5.551  10.329
98169SOL    HW296341   8.604   5.543  10.231
98170SOL     OW96342   7.633   7.086   3.256
98170SOL    HW196343   7.633   7.180   3.238
98170SOL    HW296344   7.597   7.047   3.177
98171SOL     OW96345  11.332  14.333   4.766
98171SOL    HW196346  11.364  14.350   4.677
98171SOL    HW296347  11.404  14.286   4.809
98172SOL     OW96348   6.734  10.578  13.280
98172SOL    HW196349   6.693  10.596  13.196
98172SOL    HW296350   6.662  10.554  13.338
98173SOL     OW96351  10.627  14.433   6.475
98173SOL    HW196352  10.700  14.489   6.500
98173SOL    HW296353  10.612  14.453   6.382
98174SOL     OW96354   7.570   8.948   6.630
98174SOL    HW196355   7.548   9.008   6.558
98174SOL    HW296356   7.584   8.864   6.587
98175SOL     OW96357  13.027  13.276   8.587
98175SOL    HW196358  12.999  13.252   8.675
98175SOL    HW296359  13.122  13.280   8.592
98176SOL     OW96360   7.289   1.218   6.028
98176SOL    HW196361   7.305   1.242   6.120
98176SOL    HW296362   7.341   1.282   5.978
98177SOL     OW96363  11.641   5.375  13.796
98177SOL    HW196364  11.625   5.365  13.703
98177SOL    HW296365  11.617   5.465  13.816
98178SOL     OW96366   5.004   3.286   3.373
98178SOL    HW196367   4.966   3.309   3.288
98178SOL    HW296368   5.052   3.364   3.400
98179SOL     OW96369   8.234  10.459   5.668
98179SOL    HW196370   8.305  10.508   5.624
98179SOL    HW296371   8.266  10.369   5.671
98180SOL     OW96372   9.671   1.428   3.832
98180SOL    HW196373   9.590   1.391   3.796
98180SOL    HW296374   9.642   1.487   3.902
98181SOL     OW96375  10.443  11.628   4.885
98181SOL    HW196376  10.413  11.627   4.976
98181SOL    HW296377  10.533  11.597   4.889
98182SOL     OW96378  13.205  13.597  10.596
98182SOL    HW196379  13.161  13.667  10.547
98182SOL    HW296380  13.276  13.642  10.642
98183SOL     OW96381  10.042   9.118  10.476
98183SOL    HW196382  10.054   9.066  10.397
98183SOL    HW296383   9.999   9.059  10.538
98184SOL     OW96384  11.090   8.621  14.278
98184SOL    HW196385  11.100   8.589  14.188
98184SOL    HW296386  11.085   8.541  14.331
98185SOL     OW96387   9.559   4.638   0.211
98185SOL    HW196388   9.558   4.707   0.278
98185SOL    HW296389   9.480   4.653   0.160
98186SOL     OW96390   2.812  10.514   9.741
98186SOL    HW196391   2.845  10.516   9.651
98186SOL    HW296392   2.792  10.606   9.761
98187SOL     OW96393   5.117   9.114   8.381
98187SOL    HW196394   5.118   9.054   8.455
98187SOL    HW296395   5.168   9.189   8.410
98188SOL     OW96396   5.031  13.142  12.999
98188SOL    HW196397   5.003  13.170  12.912
98188SOL    HW296398   4.952  13.143  13.052
98189SOL     OW96399  10.597   5.882   9.256
98189SOL    HW196400  10.616   5.794   9.224
98189SOL    HW296401  10.588   5.872   9.350
98190SOL     OW96402   6.549  13.595  14.850
98190SOL    HW196403   6.596  13.622  14.772
98190SOL    HW296404   6.588  13.646   0.042
98191SOL     OW96405   1.482   2.826   0.643
98191SOL    HW196406   1.558   2.882   0.653
98191SOL    HW296407   1.419   2.879   0.594
98192SOL     OW96408  13.439   0.531   3.164
98192SOL    HW196409  13.520   0.563   3.124
98192SOL    HW296410  13.461   0.443   3.195
98193SOL     OW96411   1.320   8.513   7.056
98193SOL    HW196412   1.389   8.449   7.041
98193SOL    HW296413   1.243   8.460   7.077
98194SOL     OW96414   1.630   6.642   1.097
98194SOL    HW196415   1.539   6.667   1.077
98194SOL    HW296416   1.632   6.547   1.087
98195SOL     OW96417  10.568  10.373  12.133
98195SOL    HW196418  10.502  10.310  12.163
98195SOL    HW296419  10.521  10.456  12.128
98196SOL     OW96420  13.405  13.718   9.079
98196SOL    HW196421  13.478  13.663   9.107
98196SOL    HW296422  13.339  13.657   9.047
98197SOL     OW96423  11.780   2.328  12.971
98197SOL    HW196424  11.777   2.420  12.945
98197SOL    HW296425  11.850   2.324  13.036
98198SOL     OW96426  13.920   3.381   7.802
98198SOL    HW196427  14.013   3.367   7.816
98198SOL    HW296428  13.879   3.358   7.886
98199SOL     OW96429  10.751   6.016   9.085
98199SOL    HW196430  10.695   6.057   9.019
98199SOL    HW296431  10.690   5.967   9.141
98200SOL     OW96432   7.596   9.029   1.071
98200SOL    HW196433   7.625   9.107   1.119
98200SOL    HW296434   7.661   9.018   1.002
98201SOL     OW96435   7.409  12.479   1.439
98201SOL    HW196436   7.375  12.552   1.491
98201SOL    HW296437   7.477  12.440   1.494
98202SOL     OW96438  14.258   7.108   1.100
98202SOL    HW196439  14.289   7.195   1.125
98202SOL    HW296440  14.179   7.124   1.048
98203SOL     OW96441   4.224   0.530  14.023
98203SOL    HW196442   4.226   0.575  13.939
98203SOL    HW296443   4.243   0.598  14.087
98204SOL     OW96444  13.105   6.258   3.187
98204SOL    HW196445  13.082   6.253   3.094
98204SOL    HW296446  13.022   6.247   3.233
98205SOL     OW96447   5.903  13.689   1.821
98205SOL    HW196448   5.933  13.732   1.740
98205SOL    HW296449   5.971  13.710   1.885
98206SOL     OW96450  11.897   3.706   1.002
98206SOL    HW196451  11.908   3.663   0.917
98206SOL    HW296452  11.805   3.693   1.024
98207SOL     OW96453   8.965   2.404   7.862
98207SOL    HW196454   8.909   2.470   7.902
98207SOL    HW296455   8.905   2.334   7.836
98208SOL     OW96456   2.802  10.269  10.303
98208SOL    HW196457   2.718  10.233  10.275
98208SOL    HW296458   2.842  10.200  10.356
98209SOL     OW96459   7.259  14.023   7.889
98209SOL    HW196460   7.236  13.968   7.814
98209SOL    HW296461   7.298  14.101   7.850
98210SOL     OW96462   3.254   8.418  11.897
98210SOL    HW196463   3.192   8.351  11.924
98210SOL    HW296464   3.325   8.370  11.855
98211SOL     OW96465   0.207   8.702  10.713
98211SOL    HW196466   0.258   8.766  10.764
98211SOL    HW296467   0.244   8.617  10.736
98212SOL     OW96468   2.831   6.203  13.966
98212SOL    HW196469   2.759   6.224  13.907
98212SOL    HW296470   2.903   6.260  13.940
98213SOL     OW96471   4.842  14.283   1.744
98213SOL    HW196472   4.773  14.278   1.678
98213SOL    HW296473   4.914  14.231   1.707
98214SOL     OW96474  11.554   1.406   1.824
98214SOL    HW196475  11.494   1.375   1.756
98214SOL    HW296476  11.556   1.336   1.889
98215SOL     OW96477   0.826  14.262  13.264
98215SOL    HW196478   0.870  14.304  13.190
98215SOL    HW296479   0.821  14.170  13.240
98216SOL     OW96480   0.493   3.335  12.597
98216SOL    HW196481   0.489   3.345  12.692
98216SOL    HW296482   0.401   3.325  12.570
98217SOL     OW96483   6.243   0.226   9.270
98217SOL    HW196484   6.207   0.315   9.274
98217SOL    HW296485   6.293   0.217   9.352
98218SOL     OW96486   7.610  10.542   5.917
98218SOL    HW196487   7.615  10.516   6.008
98218SOL    HW296488   7.651  10.469   5.869
98219SOL     OW96489  14.237  13.880   4.171
98219SOL    HW196490  14.208  13.838   4.252
98219SOL    HW296491  14.156  13.903   4.125
98220SOL     OW96492   8.606   8.762   1.200
98220SOL    HW196493   8.517   8.729   1.185
98220SOL    HW296494   8.640   8.779   1.112
98221SOL     OW96495   7.059   2.696   6.320
98221SOL    HW196496   7.007   2.677   6.398
98221SOL    HW296497   7.051   2.791   6.309
98222SOL     OW96498   9.428   9.537  14.060
98222SOL    HW196499   9.396   9.517  14.148
98222SOL    HW296500   9.348   9.558  14.010
98223SOL     OW96501  11.073   0.826   8.900
98223SOL    HW196502  11.041   0.760   8.840
98223SOL    HW296503  11.000   0.887   8.910
98224SOL     OW96504  10.595  11.082  11.691
98224SOL    HW196505  10.574  10.990  11.676
98224SOL    HW296506  10.559  11.100  11.778
98225SOL     OW96507   7.471  12.585   3.342
98225SOL    HW196508   7.446  12.676   3.359
98225SOL    HW296509   7.410  12.555   3.275
98226SOL     OW96510   9.520  14.698  12.232
98226SOL    HW196511   9.492  14.611  12.206
98226SOL    HW296512   9.547  14.688  12.324
98227SOL     OW96513  12.774   0.599  13.608
98227SOL    HW196514  12.822   0.643  13.678
98227SOL    HW296515  12.686   0.638  13.611
98228SOL     OW96516   4.572   2.675  11.012
98228SOL    HW196517   4.575   2.770  11.021
98228SOL    HW296518   4.661   2.646  11.034
98229SOL     OW96519   8.037   3.145   4.953
98229SOL    HW196520   7.970   3.153   4.886
98229SOL    HW296521   8.031   3.227   5.003
98230SOL     OW96522   6.575  10.229  10.131
98230SOL    HW196523   6.605  10.139  10.116
98230SOL    HW296524   6.629  10.282  10.073
98231SOL     OW96525   3.624  10.524  13.516
98231SOL    HW196526   3.533  10.504  13.540
98231SOL    HW296527   3.618  10.607  13.468
98232SOL     OW96528  12.706   7.292   8.632
98232SOL    HW196529  12.711   7.318   8.540
98232SOL    HW296530  12.774   7.345   8.675
98233SOL     OW96531  10.302  10.089  14.642
98233SOL    HW196532  10.318  10.065  14.733
98233SOL    HW296533  10.278  10.007  14.599
98234SOL     OW96534  10.279   1.552   0.038
98234SOL    HW196535  10.278   1.635   0.085
98234SOL    HW296536  10.197   1.510   0.061
98235SOL     OW96537   3.839   4.310   8.190
98235SOL    HW196538   3.927   4.294   8.225
98235SOL    HW296539   3.781   4.295   8.266
98236SOL     OW96540   4.439  12.289   4.302
98236SOL    HW196541   4.478  12.271   4.388
98236SOL    HW296542   4.383  12.365   4.317
98237SOL     OW96543   2.073   1.089  12.432
98237SOL    HW196544   2.008   1.089  12.362
98237SOL    HW296545   2.037   1.029  12.498
98238SOL     OW96546   7.075  12.281   2.700
98238SOL    HW196547   7.030  12.258   2.782
98238SOL    HW296548   7.021  12.243   2.631
98239SOL     OW96549   2.915   6.394   9.710
98239SOL    HW196550   2.903   6.485   9.685
98239SOL    HW296551   2.887   6.344   9.633
98240SOL     OW96552  13.621   7.417   3.138
98240SOL    HW196553  13.575   7.344   3.097
98240SOL    HW296554  13.659   7.380   3.218
98241SOL     OW96555   3.160  14.439   0.377
98241SOL    HW196556   3.231  14.417   0.318
98241SOL    HW296557   3.101  14.363   0.373
98242SOL     OW96558  13.257   1.511   8.075
98242SOL    HW196559  13.341   1.486   8.113
98242SOL    HW296560  13.230   1.589   8.123
98243SOL     OW96561  11.063  10.264   7.724
98243SOL    HW196562  10.983  10.317   7.720
98243SOL    HW296563  11.063  10.228   7.812
98244SOL     OW96564   9.821  11.510   5.239
98244SOL    HW196565   9.820  11.423   5.279
98244SOL    HW296566   9.815  11.494   5.145
98245SOL     OW96567   8.885   6.363   5.287
98245SOL    HW196568   8.797   6.326   5.274
98245SOL    HW296569   8.940   6.318   5.223
98246SOL     OW96570   8.758  11.978  10.478
98246SOL    HW196571   8.781  12.071  10.472
98246SOL    HW296572   8.791  11.940  10.397
98247SOL     OW96573  10.594   3.280  12.623
98247SOL    HW196574  10.650   3.323  12.558
98247SOL    HW296575  10.577   3.193  12.587
98248SOL     OW96576  14.393  12.116   2.753
98248SOL    HW196577  14.414  12.035   2.799
98248SOL    HW296578  14.385  12.182   2.822
98249SOL     OW96579   3.737   4.649  12.313
98249SOL    HW196580   3.689   4.730  12.325
98249SOL    HW296581   3.828   4.676  12.299
98250SOL     OW96582   9.884   1.862   9.145
98250SOL    HW196583   9.810   1.845   9.204
98250SOL    HW296584   9.936   1.782   9.148
98251SOL     OW96585  13.065  12.530   6.065
98251SOL    HW196586  13.003  12.493   6.127
98251SOL    HW296587  13.136  12.564   6.119
98252SOL     OW96588  12.035   5.060  14.071
98252SOL    HW196589  12.010   4.981  14.120
98252SOL    HW296590  11.972   5.065  13.999
98253SOL     OW96591   1.455  13.188   3.934
98253SOL    HW196592   1.439  13.187   3.840
98253SOL    HW296593   1.472  13.096   3.957
98254SOL     OW96594   9.368   8.979  11.045
98254SOL    HW196595   9.447   8.964  11.097
98254SOL    HW296596   9.359   8.900  10.992
98255SOL     OW96597  14.758   9.173  10.241
98255SOL    HW196598  14.818   9.163  10.167
98255SOL    HW296599  14.798   9.241  10.295
98256SOL     OW96600   5.133   9.620   7.782
98256SOL    HW196601   5.176   9.653   7.862
98256SOL    HW296602   5.110   9.530   7.803
98257SOL     OW96603   6.875   0.966   3.647
98257SOL    HW196604   6.971   0.966   3.645
98257SOL    HW296605   6.853   0.959   3.740
98258SOL     OW96606   4.229  13.974   2.660
98258SOL    HW196607   4.242  14.050   2.716
98258SOL    HW296608   4.205  13.903   2.720
98259SOL     OW96609   9.926  10.117   3.194
98259SOL    HW196610   9.993  10.067   3.240
98259SOL    HW296611   9.862  10.141   3.262
98260SOL     OW96612  12.288   6.994   2.297
98260SOL    HW196613  12.250   7.023   2.380
98260SOL    HW296614  12.257   6.904   2.287
98261SOL     OW96615   5.957   1.630   3.727
98261SOL    HW196616   6.020   1.607   3.659
98261SOL    HW296617   5.920   1.713   3.698
98262SOL     OW96618   1.092  14.610   1.496
98262SOL    HW196619   1.017  14.653   1.456
98262SOL    HW296620   1.127  14.553   1.428
98263SOL     OW96621   4.744  10.308  12.404
98263SOL    HW196622   4.802  10.372  12.445
98263SOL    HW296623   4.669  10.303  12.463
98264SOL     OW96624   3.595   1.283  11.315
98264SOL    HW196625   3.525   1.301  11.252
98264SOL    HW296626   3.618   1.191  11.299
98265SOL     OW96627  12.622   3.968   9.379
98265SOL    HW196628  12.566   4.029   9.427
98265SOL    HW296629  12.646   3.902   9.444
98266SOL     OW96630   1.898   3.117   1.795
98266SOL    HW196631   1.870   3.187   1.737
98266SOL    HW296632   1.928   3.047   1.736
98267SOL     OW96633   8.692   6.250  12.954
98267SOL    HW196634   8.771   6.196  12.955
98267SOL    HW296635   8.638   6.215  13.026
98268SOL     OW96636   0.329  14.761   5.302
98268SOL    HW196637   0.386  14.827   5.340
98268SOL    HW296638   0.360  14.678   5.337
98269SOL     OW96639   2.328  14.316  11.887
98269SOL    HW196640   2.252  14.346  11.936
98269SOL    HW296641   2.337  14.380  11.816
98270SOL     OW96642   3.731   3.986   7.582
98270SOL    HW196643   3.736   3.942   7.497
98270SOL    HW296644   3.731   4.079   7.560
98271SOL     OW96645   9.163  14.859  14.173
98271SOL    HW196646   9.161  14.776  14.220
98271SOL    HW296647   9.186  14.836  14.083
98272SOL     OW96648   1.783   0.003   4.148
98272SOL    HW196649   1.814   0.094   4.148
98272SOL    HW296650   1.833  14.839   4.078
98273SOL     OW96651  10.842   0.390   4.142
98273SOL    HW196652  10.886   0.327   4.199
98273SOL    HW296653  10.754   0.354   4.131
98274SOL     OW96654   4.584   6.601   5.712
98274SOL    HW196655   4.566   6.622   5.620
98274SOL    HW296656   4.638   6.522   5.708
98275SOL     OW96657   8.867   6.174  10.050
98275SOL    HW196658   8.949   6.219  10.070
98275SOL    HW296659   8.893   6.098   9.998
98276SOL     OW96660   4.517   3.252   1.726
98276SOL    HW196661   4.460   3.322   1.758
98276SOL    HW296662   4.540   3.202   1.805
98277SOL     OW96663  12.375   2.961   6.744
98277SOL    HW196664  12.436   3.035   6.744
98277SOL    HW296665  12.331   2.966   6.829
98278SOL     OW96666  13.113  12.502   5.795
98278SOL    HW196667  13.068  12.584   5.774
98278SOL    HW296668  13.098  12.490   5.889
98279SOL     OW96669   9.431  10.621   3.981
98279SOL    HW196670   9.370  10.685   4.019
98279SOL    HW296671   9.473  10.667   3.909
98280SOL     OW96672   4.941   3.943   6.014
98280SOL    HW196673   4.957   3.896   6.096
98280SOL    HW296674   4.932   4.035   6.041
98281SOL     OW96675  10.889  14.444   0.966
98281SOL    HW196676  10.859  14.531   0.992
98281SOL    HW296677  10.963  14.461   0.907
98282SOL     OW96678   6.855   9.371   7.296
98282SOL    HW196679   6.842   9.363   7.390
98282SOL    HW296680   6.945   9.402   7.287
98283SOL     OW96681   7.251   6.830   9.948
98283SOL    HW196682   7.319   6.887   9.984
98283SOL    HW296683   7.298   6.750   9.925
98284SOL     OW96684   8.954   8.147   6.458
98284SOL    HW196685   8.940   8.179   6.547
98284SOL    HW296686   9.033   8.094   6.463
98285SOL     OW96687  13.398   1.889  10.301
98285SOL    HW196688  13.351   1.954  10.353
98285SOL    HW296689  13.385   1.916  10.211
98286SOL     OW96690   6.431   0.554   2.800
98286SOL    HW196691   6.480   0.483   2.840
98286SOL    HW296692   6.361   0.511   2.751
98287SOL     OW96693  13.907   7.792  12.936
98287SOL    HW196694  13.969   7.865  12.940
98287SOL    HW296695  13.910   7.753  13.024
98288SOL     OW96696  14.043   7.341   2.088
98288SOL    HW196697  14.116   7.328   2.149
98288SOL    HW296698  14.063   7.424   2.045
98289SOL     OW96699   0.141   9.794  11.399
98289SOL    HW196700   0.081   9.807  11.472
98289SOL    HW296701   0.092   9.821  11.322
98290SOL     OW96702  10.681   0.050   2.456
98290SOL    HW196703  10.656   0.141   2.472
98290SOL    HW296704  10.774   0.055   2.434
98291SOL     OW96705   9.706   2.081   3.414
98291SOL    HW196706   9.674   2.126   3.336
98291SOL    HW296707   9.630   2.035   3.448
98292SOL     OW96708   7.163  11.591   6.112
98292SOL    HW196709   7.135  11.506   6.076
98292SOL    HW296710   7.255  11.597   6.089
98293SOL     OW96711   6.535   6.976  14.740
98293SOL    HW196712   6.538   6.906  14.805
98293SOL    HW296713   6.596   6.949  14.672
98294SOL     OW96714  10.387   3.653   8.685
98294SOL    HW196715  10.363   3.565   8.712
98294SOL    HW296716  10.354   3.711   8.754
98295SOL     OW96717  11.736   5.631   2.387
98295SOL    HW196718  11.703   5.686   2.316
98295SOL    HW296719  11.803   5.684   2.430
98296SOL     OW96720  13.941  10.667  13.420
98296SOL    HW196721  13.985  10.658  13.335
98296SOL    HW296722  13.849  10.648  13.402
98297SOL     OW96723   2.002   0.554   8.401
98297SOL    HW196724   1.962   0.608   8.333
98297SOL    HW296725   1.938   0.485   8.418
98298SOL     OW96726   1.805   9.899   4.992
98298SOL    HW196727   1.825   9.981   5.036
98298SOL    HW296728   1.802   9.834   5.063
98299SOL     OW96729   1.741   9.072  12.339
98299SOL    HW196730   1.818   9.083  12.282
98299SOL    HW296731   1.756   8.988  12.382
98300SOL     OW96732   5.678   3.917   2.021
98300SOL    HW196733   5.771   3.939   2.028
98300SOL    HW296734   5.657   3.873   2.103
98301SOL     OW96735   1.667  13.716   1.184
98301SOL    HW196736   1.714  13.798   1.202
98301SOL    HW296737   1.604  13.709   1.256
98302SOL     OW96738   7.226   2.449   1.957
98302SOL    HW196739   7.217   2.515   2.027
98302SOL    HW296740   7.227   2.365   2.003
98303SOL     OW96741  10.202  11.720   5.435
98303SOL    HW196742  10.109  11.714   5.457
98303SOL    HW296743  10.215  11.810   5.407
98304SOL     OW96744   2.873  13.877   6.892
98304SOL    HW196745   2.927  13.803   6.917
98304SOL    HW296746   2.918  13.915   6.816
98305SOL     OW96747   3.324  10.492   4.133
98305SOL    HW196748   3.404  10.539   4.109
98305SOL    HW296749   3.353  10.424   4.193
98306SOL     OW96750  11.873   1.549   3.939
98306SOL    HW196751  11.906   1.596   3.862
98306SOL    HW296752  11.869   1.616   4.007
98307SOL     OW96753   7.969   6.128   0.526
98307SOL    HW196754   7.899   6.173   0.479
98307SOL    HW296755   7.941   6.037   0.529
98308SOL     OW96756  13.681   0.974   8.838
98308SOL    HW196757  13.722   0.887   8.836
98308SOL    HW296758  13.712   1.016   8.758
98309SOL     OW96759   9.527  10.345   5.844
98309SOL    HW196760   9.523  10.436   5.815
98309SOL    HW296761   9.594  10.305   5.788
98310SOL     OW96762  14.238   9.278  14.775
98310SOL    HW196763  14.290   9.254  14.852
98310SOL    HW296764  14.159   9.224  14.782
98311SOL     OW96765   7.266  14.473   5.587
98311SOL    HW196766   7.319  14.549   5.612
98311SOL    HW296767   7.291  14.405   5.650
98312SOL     OW96768   4.706   2.047  11.408
98312SOL    HW196769   4.682   1.958  11.383
98312SOL    HW296770   4.782   2.036  11.465
98313SOL     OW96771   9.202   4.447   9.070
98313SOL    HW196772   9.139   4.492   9.125
98313SOL    HW296773   9.214   4.504   8.994
98314SOL     OW96774   2.988  10.565  14.227
98314SOL    HW196775   3.005  10.638  14.168
98314SOL    HW296776   2.961  10.493  14.170
98315SOL     OW96777   7.686   1.723   5.039
98315SOL    HW196778   7.705   1.640   4.995
98315SOL    HW296779   7.708   1.707   5.131
98316SOL     OW96780   8.114   0.503  12.367
98316SOL    HW196781   8.083   0.515  12.457
98316SOL    HW296782   8.206   0.529  12.370
98317SOL     OW96783   0.183   8.461   9.423
98317SOL    HW196784   0.220   8.498   9.503
98317SOL    HW296785   0.258   8.420   9.379
98318SOL     OW96786  11.142   0.513  11.649
98318SOL    HW196787  11.064   0.509  11.704
98318SOL    HW296788  11.112   0.491  11.562
98319SOL     OW96789  11.042   7.771   9.483
98319SOL    HW196790  10.978   7.806   9.545
98319SOL    HW296791  11.060   7.844   9.424
98320SOL     OW96792   6.723   5.826  13.254
98320SOL    HW196793   6.721   5.891  13.324
98320SOL    HW296794   6.688   5.872  13.177
98321SOL     OW96795   2.966   0.718   3.118
98321SOL    HW196796   2.917   0.798   3.136
98321SOL    HW296797   2.901   0.656   3.084
98322SOL     OW96798   2.262   6.632   0.219
98322SOL    HW196799   2.242   6.722   0.192
98322SOL    HW296800   2.204   6.578   0.166
98323SOL     OW96801   7.140   6.098   3.180
98323SOL    HW196802   7.166   6.010   3.209
98323SOL    HW296803   7.205   6.156   3.220
98324SOL     OW96804  10.561   2.632  12.284
98324SOL    HW196805  10.652   2.655  12.267
98324SOL    HW296806  10.514   2.715  12.277
98325SOL     OW96807   1.746  12.442  11.152
98325SOL    HW196808   1.782  12.469  11.237
98325SOL    HW296809   1.666  12.395  11.175
98326SOL     OW96810   4.572   1.297   1.941
98326SOL    HW196811   4.506   1.367   1.946
98326SOL    HW296812   4.629   1.323   1.868
98327SOL     OW96813   6.323   4.788   7.440
98327SOL    HW196814   6.232   4.815   7.446
98327SOL    HW296815   6.343   4.791   7.346
98328SOL     OW96816   8.589  14.149  10.924
98328SOL    HW196817   8.503  14.118  10.899
98328SOL    HW296818   8.646  14.123  10.852
98329SOL     OW96819   6.894   0.577  13.950
98329SOL    HW196820   6.820   0.537  13.903
98329SOL    HW296821   6.869   0.572  14.042
98330SOL     OW96822   4.804   3.923   7.289
98330SOL    HW196823   4.835   3.971   7.366
98330SOL    HW296824   4.841   3.970   7.215
98331SOL     OW96825  11.442  13.742  10.410
98331SOL    HW196826  11.481  13.656  10.397
98331SOL    HW296827  11.484  13.798  10.344
98332SOL     OW96828   4.828  12.817   8.099
98332SOL    HW196829   4.852  12.733   8.060
98332SOL    HW296830   4.818  12.876   8.023
98333SOL     OW96831  14.711   5.087   5.664
98333SOL    HW196832  14.672   5.110   5.579
98333SOL    HW296833  14.635   5.072   5.722
98334SOL     OW96834   0.362   3.177  13.029
98334SOL    HW196835   0.317   3.146  12.950
98334SOL    HW296836   0.307   3.148  13.101
98335SOL     OW96837  13.098   8.353   9.023
98335SOL    HW196838  13.068   8.317   9.106
98335SOL    HW296839  13.166   8.292   8.993
98336SOL     OW96840   4.655   9.861   1.707
98336SOL    HW196841   4.628   9.779   1.748
98336SOL    HW296842   4.732   9.839   1.655
98337SOL     OW96843  13.368   6.990   3.974
98337SOL    HW196844  13.289   7.043   3.973
98337SOL    HW296845  13.382   6.964   3.883
98338SOL     OW96846   4.774  12.160  12.476
98338SOL    HW196847   4.744  12.069  12.472
98338SOL    HW296848   4.811  12.170  12.564
98339SOL     OW96849   2.006   5.671   3.521
98339SOL    HW196850   1.912   5.689   3.528
98339SOL    HW296851   2.039   5.679   3.610
98340SOL     OW96852   3.548   6.341   0.666
98340SOL    HW196853   3.613   6.285   0.625
98340SOL    HW296854   3.523   6.403   0.598
98341SOL     OW96855   9.287   9.713  12.913
98341SOL    HW196856   9.331   9.677  12.837
98341SOL    HW296857   9.352   9.769  12.955
98342SOL     OW96858   4.480   5.371   1.666
98342SOL    HW196859   4.486   5.466   1.675
98342SOL    HW296860   4.386   5.352   1.666
98343SOL     OW96861   7.348   5.707   2.470
98343SOL    HW196862   7.432   5.732   2.509
98343SOL    HW296863   7.331   5.619   2.504
98344SOL     OW96864  13.020   4.327   1.104
98344SOL    HW196865  13.027   4.419   1.130
98344SOL    HW296866  12.938   4.323   1.054
98345SOL     OW96867   7.583   6.899  14.704
98345SOL    HW196868   7.641   6.974  14.720
98345SOL    HW296869   7.638   6.823  14.720
98346SOL     OW96870   3.058   5.178   5.314
98346SOL    HW196871   3.147   5.182   5.280
98346SOL    HW296872   3.041   5.085   5.327
98347SOL     OW96873   4.043   5.005  10.461
98347SOL    HW196874   3.983   4.993  10.535
98347SOL    HW296875   4.023   4.933  10.401
98348SOL     OW96876  11.239   2.661  10.192
98348SOL    HW196877  11.223   2.745  10.148
98348SOL    HW296878  11.214   2.595  10.128
98349SOL     OW96879  12.857   4.996   7.129
98349SOL    HW196880  12.776   5.033   7.095
98349SOL    HW296881  12.829   4.929   7.191
98350SOL     OW96882   3.398   2.323   5.149
98350SOL    HW196883   3.374   2.413   5.171
98350SOL    HW296884   3.453   2.331   5.071
98351SOL     OW96885   1.172   1.905   6.460
98351SOL    HW196886   1.253   1.951   6.436
98351SOL    HW296887   1.203   1.826   6.505
98352SOL     OW96888   0.945  10.803   0.993
98352SOL    HW196889   0.906  10.846   0.917
98352SOL    HW296890   1.006  10.867   1.029
98353SOL     OW96891   7.009  14.127   5.063
98353SOL    HW196892   6.986  14.035   5.047
98353SOL    HW296893   7.098  14.124   5.097
98354SOL     OW96894   5.997   3.611   8.404
98354SOL    HW196895   5.914   3.586   8.364
98354SOL    HW296896   5.998   3.566   8.488
98355SOL     OW96897  11.492   2.773  12.024
98355SOL    HW196898  11.560   2.766  11.957
98355SOL    HW296899  11.410   2.756  11.978
98356SOL     OW96900   6.941  14.641   3.429
98356SOL    HW196901   6.937  14.608   3.518
98356SOL    HW296902   6.850  14.657   3.405
98357SOL     OW96903  12.517  13.954  10.002
98357SOL    HW196904  12.549  13.985   9.918
98357SOL    HW296905  12.425  13.981  10.004
98358SOL     OW96906   3.533   4.451   5.280
98358SOL    HW196907   3.549   4.472   5.188
98358SOL    HW296908   3.437   4.441   5.285
98359SOL     OW96909   4.252   9.990   8.015
98359SOL    HW196910   4.212  10.019   8.097
98359SOL    HW296911   4.298  10.067   7.982
98360SOL     OW96912   0.868   7.311   6.942
98360SOL    HW196913   0.903   7.382   6.996
98360SOL    HW296914   0.864   7.236   7.002
98361SOL     OW96915   9.447   0.635   9.141
98361SOL    HW196916   9.419   0.727   9.137
98361SOL    HW296917   9.415   0.603   9.225
98362SOL     OW96918  12.482   9.652  10.872
98362SOL    HW196919  12.522   9.735  10.845
98362SOL    HW296920  12.553   9.589  10.868
98363SOL     OW96921   5.306   3.098   8.747
98363SOL    HW196922   5.289   3.150   8.669
98363SOL    HW296923   5.232   3.117   8.805
98364SOL     OW96924  13.346   0.124   0.639
98364SOL    HW196925  13.341   0.212   0.600
98364SOL    HW296926  13.287   0.071   0.585
98365SOL     OW96927   6.348   3.196   4.125
98365SOL    HW196928   6.421   3.249   4.094
98365SOL    HW296929   6.361   3.110   4.084
98366SOL     OW96930  11.948   3.536   1.763
98366SOL    HW196931  11.882   3.501   1.703
98366SOL    HW296932  11.974   3.619   1.725
98367SOL     OW96933   0.858  10.761   5.153
98367SOL    HW196934   0.862  10.805   5.069
98367SOL    HW296935   0.822  10.827   5.213
98368SOL     OW96936  12.828   3.977   7.802
98368SOL    HW196937  12.755   4.035   7.781
98368SOL    HW296938  12.879   3.972   7.721
98369SOL     OW96939   0.653   7.431  11.520
98369SOL    HW196940   0.722   7.497  11.532
98369SOL    HW296941   0.584   7.478  11.473
98370SOL     OW96942   8.566   7.069  13.225
98370SOL    HW196943   8.626   7.033  13.160
98370SOL    HW296944   8.493   7.008  13.227
98371SOL     OW96945   9.544   6.623   3.712
98371SOL    HW196946   9.564   6.699   3.766
98371SOL    HW296947   9.486   6.569   3.766
98372SOL     OW96948   9.051   8.065   0.235
98372SOL    HW196949   9.136   8.022   0.240
98372SOL    HW296950   9.068   8.146   0.186
98373SOL     OW96951  11.116  10.051   5.060
98373SOL    HW196952  11.054  10.065   5.132
98373SOL    HW296953  11.202  10.069   5.098
98374SOL     OW96954   1.740   3.615   9.921
98374SOL    HW196955   1.832   3.597   9.938
98374SOL    HW296956   1.711   3.664   9.998
98375SOL     OW96957   4.713   6.819   3.315
98375SOL    HW196958   4.723   6.742   3.372
98375SOL    HW296959   4.657   6.789   3.243
98376SOL     OW96960   1.279   8.608   4.298
98376SOL    HW196961   1.350   8.652   4.251
98376SOL    HW296962   1.222   8.679   4.327
98377SOL     OW96963   3.095  10.866  14.441
98377SOL    HW196964   3.137  10.855  14.526
98377SOL    HW296965   3.169  10.866  14.379
98378SOL     OW96966   1.927  11.432   0.176
98378SOL    HW196967   1.886  11.464   0.095
98378SOL    HW296968   1.983  11.360   0.147
98379SOL     OW96969   2.230   5.111  11.818
98379SOL    HW196970   2.228   5.016  11.814
98379SOL    HW296971   2.323   5.133  11.820
98380SOL     OW96972   4.660   9.009   9.194
98380SOL    HW196973   4.601   8.946   9.237
98380SOL    HW296974   4.744   8.995   9.237
98381SOL     OW96975  11.458   6.759  13.049
98381SOL    HW196976  11.374   6.716  13.066
98381SOL    HW296977  11.466   6.759  12.954
98382SOL     OW96978   7.350   3.105   4.609
98382SOL    HW196979   7.276   3.049   4.629
98382SOL    HW296980   7.312   3.182   4.566
98383SOL     OW96981   0.136   9.973  14.625
98383SOL    HW196982   0.184  10.039  14.675
98383SOL    HW296983   0.056   9.959  14.676
98384SOL     OW96984   0.993  10.786  13.431
98384SOL    HW196985   0.954  10.867  13.397
98384SOL    HW296986   0.951  10.716  13.380
98385SOL     OW96987   8.561  10.190   0.308
98385SOL    HW196988   8.565  10.267   0.365
98385SOL    HW296989   8.598  10.119   0.361
98386SOL     OW96990  13.672   6.127  14.527
98386SOL    HW196991  13.721   6.111  14.608
98386SOL    HW296992  13.585   6.091  14.544
98387SOL     OW96993  13.745  11.211  12.115
98387SOL    HW196994  13.760  11.280  12.179
98387SOL    HW296995  13.751  11.130  12.165
98388SOL     OW96996   9.476   4.228  10.654
98388SOL    HW196997   9.448   4.229  10.745
98388SOL    HW296998   9.398   4.255  10.605
98389SOL     OW96999  12.068   2.226  10.734
98389SOL    HW197000  12.067   2.268  10.648
98389SOL    HW297001  12.131   2.277  10.785
98390SOL     OW97002  13.249   9.886  14.122
98390SOL    HW197003  13.173   9.876  14.065
98390SOL    HW297004  13.322   9.853  14.069
98391SOL     OW97005   9.944   1.167   4.201
98391SOL    HW197006   9.923   1.216   4.121
98391SOL    HW297007  10.029   1.202   4.228
98392SOL     OW97008   0.276   2.675   2.503
98392SOL    HW197009   0.245   2.676   2.413
98392SOL    HW297010   0.322   2.591   2.512
98393SOL     OW97011   1.713   9.903  10.198
98393SOL    HW197012   1.740   9.828  10.145
98393SOL    HW297013   1.724   9.979  10.141
98394SOL     OW97014   8.907   2.752   6.709
98394SOL    HW197015   8.812   2.750   6.694
98394SOL    HW297016   8.937   2.664   6.688
98395SOL     OW97017   2.658  14.631   8.890
98395SOL    HW197018   2.644  14.551   8.839
98395SOL    HW297019   2.714  14.685   8.835
98396SOL     OW97020  11.996   7.612   4.909
98396SOL    HW197021  12.036   7.697   4.893
98396SOL    HW297022  12.058   7.549   4.873
98397SOL     OW97023  12.622   3.533   9.994
98397SOL    HW197024  12.577   3.534  10.078
98397SOL    HW297025  12.564   3.582   9.935
98398SOL     OW97026  13.784   3.728  12.025
98398SOL    HW197027  13.786   3.740  12.120
98398SOL    HW297028  13.876   3.725  12.000
98399SOL     OW97029   2.756   2.930  14.670
98399SOL    HW197030   2.751   2.931  14.765
98399SOL    HW297031   2.849   2.917  14.650
98400SOL     OW97032   1.437   8.017   4.331
98400SOL    HW197033   1.360   8.001   4.385
98400SOL    HW297034   1.487   8.083   4.379
98401SOL     OW97035   8.335   2.401   8.807
98401SOL    HW197036   8.375   2.486   8.792
98401SOL    HW297037   8.395   2.356   8.867
98402SOL     OW97038   4.596   3.174   9.589
98402SOL    HW197039   4.648   3.098   9.564
98402SOL    HW297040   4.572   3.158   9.680
98403SOL     OW97041  10.830   3.716   8.466
98403SOL    HW197042  10.909   3.770   8.462
98403SOL    HW297043  10.770   3.765   8.520
98404SOL     OW97044  14.181   9.540  10.570
98404SOL    HW197045  14.146   9.579  10.490
98404SOL    HW297046  14.274   9.527  10.551
98405SOL     OW97047   0.090  10.129   9.413
98405SOL    HW197048   0.031  10.188   9.460
98405SOL    HW297049   0.100  10.169   9.327
98406SOL     OW97050   9.264  14.344  10.080
98406SOL    HW197051   9.340  14.384  10.037
98406SOL    HW297052   9.302  14.287  10.147
98407SOL     OW97053   6.195  11.352  14.435
98407SOL    HW197054   6.199  11.403  14.517
98407SOL    HW297055   6.286  11.338  14.411
98408SOL     OW97056   6.462   9.943   6.467
98408SOL    HW197057   6.447   9.858   6.509
98408SOL    HW297058   6.390   9.998   6.499
98409SOL     OW97059   7.441  11.897   9.429
98409SOL    HW197060   7.366  11.891   9.489
98409SOL    HW297061   7.489  11.974   9.459
98410SOL     OW97062   6.098  13.234   6.455
98410SOL    HW197063   6.170  13.216   6.515
98410SOL    HW297064   6.141  13.260   6.373
98411SOL     OW97065   4.997   6.870   3.218
98411SOL    HW197066   5.050   6.950   3.213
98411SOL    HW297067   4.927   6.892   3.280
98412SOL     OW97068   0.320   6.366  11.770
98412SOL    HW197069   0.288   6.299  11.830
98412SOL    HW297070   0.255   6.436  11.775
98413SOL     OW97071  11.983  11.085   2.918
98413SOL    HW197072  11.912  11.052   2.973
98413SOL    HW297073  11.939  11.130   2.847
98414SOL     OW97074  12.119  14.656  12.613
98414SOL    HW197075  12.059  14.668  12.540
98414SOL    HW297076  12.108  14.735  12.666
98415SOL     OW97077   0.463  10.596  10.037
98415SOL    HW197078   0.429  10.651  10.107
98415SOL    HW297079   0.386  10.548  10.004
98416SOL     OW97080   3.821  12.376  12.454
98416SOL    HW197081   3.888  12.373  12.522
98416SOL    HW297082   3.869  12.362  12.373
98417SOL     OW97083   8.995   8.359  12.665
98417SOL    HW197084   9.029   8.426  12.606
98417SOL    HW297085   9.006   8.396  12.752
98418SOL     OW97086   2.379   7.850   8.379
98418SOL    HW197087   2.367   7.857   8.473
98418SOL    HW297088   2.438   7.775   8.367
98419SOL     OW97089   6.668   2.153   8.576
98419SOL    HW197090   6.724   2.139   8.653
98419SOL    HW297091   6.645   2.246   8.579
98420SOL     OW97092  12.965   8.852   4.197
98420SOL    HW197093  13.020   8.862   4.120
98420SOL    HW297094  13.022   8.811   4.262
98421SOL     OW97095   5.877   2.571  10.175
98421SOL    HW197096   5.814   2.498  10.176
98421SOL    HW297097   5.822   2.649  10.168
98422SOL     OW97098  12.603   1.944   6.397
98422SOL    HW197099  12.524   1.911   6.355
98422SOL    HW297100  12.571   1.993   6.473
98423SOL     OW97101   4.547   6.971  12.107
98423SOL    HW197102   4.500   6.964  12.024
98423SOL    HW297103   4.627   7.019  12.086
98424SOL     OW97104  12.140   3.177   7.392
98424SOL    HW197105  12.149   3.268   7.362
98424SOL    HW297106  12.074   3.140   7.334
98425SOL     OW97107   5.794   9.887   9.579
98425SOL    HW197108   5.880   9.929   9.585
98425SOL    HW297109   5.776   9.857   9.668
98426SOL     OW97110   2.174  14.848  14.148
98426SOL    HW197111   2.145  14.758  14.166
98426SOL    HW297112   2.094   0.015  14.121
98427SOL     OW97113   1.663   5.871  14.389
98427SOL    HW197114   1.656   5.784  14.349
98427SOL    HW297115   1.754   5.876  14.419
98428SOL     OW97116   1.178   5.374   4.751
98428SOL    HW197117   1.132   5.391   4.833
98428SOL    HW297118   1.109   5.375   4.684
98429SOL     OW97119   7.287   7.471  14.790
98429SOL    HW197120   7.209   7.515  14.824
98429SOL    HW297121   7.254   7.402  14.733
98430SOL     OW97122   8.509   3.474   3.936
98430SOL    HW197123   8.577   3.407   3.948
98430SOL    HW297124   8.549   3.555   3.967
98431SOL     OW97125   4.891   1.915   9.339
98431SOL    HW197126   4.888   1.837   9.394
98431SOL    HW297127   4.840   1.892   9.262
98432SOL     OW97128  14.769   5.464   4.878
98432SOL    HW197129  14.698   5.525   4.859
98432SOL    HW297130  14.833   5.516   4.925
98433SOL     OW97131   7.834   9.006   1.602
98433SOL    HW197132   7.817   9.054   1.520
98433SOL    HW297133   7.751   8.963   1.621
98434SOL     OW97134  11.392   3.439   6.405
98434SOL    HW197135  11.486   3.424   6.393
98434SOL    HW297136  11.350   3.366   6.359
98435SOL     OW97137  12.532   3.957   3.018
98435SOL    HW197138  12.503   3.895   3.084
98435SOL    HW297139  12.514   3.913   2.935
98436SOL     OW97140   9.771   7.997  12.962
98436SOL    HW197141   9.856   8.040  12.951
98436SOL    HW297142   9.777   7.919  12.907
98437SOL     OW97143  14.768   1.175  13.115
98437SOL    HW197144  14.758   1.102  13.055
98437SOL    HW297145  14.860   1.173  13.141
98438SOL     OW97146   4.603  13.605  13.824
98438SOL    HW197147   4.652  13.589  13.743
98438SOL    HW297148   4.514  13.626  13.794
98439SOL     OW97149   8.242  10.024   6.678
98439SOL    HW197150   8.205   9.987   6.758
98439SOL    HW297151   8.187   9.990   6.608
98440SOL     OW97152  14.283   9.520   9.174
98440SOL    HW197153  14.261   9.438   9.130
98440SOL    HW297154  14.362   9.551   9.128
98441SOL     OW97155   2.167   5.747   3.322
98441SOL    HW197156   2.105   5.715   3.388
98441SOL    HW297157   2.187   5.669   3.269
98442SOL     OW97158   0.787   0.635  10.034
98442SOL    HW197159   0.851   0.565  10.044
98442SOL    HW297160   0.764   0.633   9.941
98443SOL     OW97161  13.713   6.035  13.200
98443SOL    HW197162  13.783   6.084  13.157
98443SOL    HW297163  13.674   5.984  13.129
98444SOL     OW97164   5.773   2.781   4.835
98444SOL    HW197165   5.683   2.812   4.831
98444SOL    HW297166   5.821   2.852   4.877
98445SOL     OW97167  11.083  11.042   7.390
98445SOL    HW197168  11.084  10.956   7.348
98445SOL    HW297169  11.015  11.035   7.457
98446SOL     OW97170   8.574   6.403  13.877
98446SOL    HW197171   8.622   6.453  13.944
98446SOL    HW297172   8.624   6.322  13.867
98447SOL     OW97173   7.811  10.751  11.007
98447SOL    HW197174   7.893  10.727  11.051
98447SOL    HW297175   7.837  10.810  10.937
98448SOL     OW97176   0.706  12.649  11.465
98448SOL    HW197177   0.741  12.690  11.385
98448SOL    HW297178   0.751  12.565  11.470
98449SOL     OW97179   5.047   0.619   6.412
98449SOL    HW197180   4.983   0.688   6.396
98449SOL    HW297181   5.043   0.563   6.335
98450SOL     OW97182  12.901   2.430   2.552
98450SOL    HW197183  12.927   2.482   2.476
98450SOL    HW297184  12.960   2.355   2.552
98451SOL     OW97185   7.281   3.821  10.446
98451SOL    HW197186   7.251   3.742  10.491
98451SOL    HW297187   7.258   3.806  10.354
98452SOL     OW97188   6.879   1.732  10.186
98452SOL    HW197189   6.891   1.823  10.160
98452SOL    HW297190   6.870   1.734  10.281
98453SOL     OW97191   1.262  12.429  12.269
98453SOL    HW197192   1.330  12.440  12.335
98453SOL    HW297193   1.207  12.359  12.303
98454SOL     OW97194   3.907   3.609   7.314
98454SOL    HW197195   3.834   3.671   7.307
98454SOL    HW297196   3.971   3.654   7.368
98455SOL     OW97197  14.739   1.083   1.952
98455SOL    HW197198  14.732   0.995   1.914
98455SOL    HW297199  14.654   1.124   1.935
98456SOL     OW97200  12.062  12.245  13.287
98456SOL    HW197201  12.002  12.193  13.341
98456SOL    HW297202  12.108  12.301  13.349
98457SOL     OW97203   8.727  11.800   5.962
98457SOL    HW197204   8.757  11.877   6.009
98457SOL    HW297205   8.635  11.789   5.989
98458SOL     OW97206   8.650  12.099   0.742
98458SOL    HW197207   8.634  12.152   0.665
98458SOL    HW297208   8.746  12.091   0.746
98459SOL     OW97209  13.555   2.428   1.510
98459SOL    HW197210  13.534   2.520   1.527
98459SOL    HW297211  13.641   2.416   1.550
98460SOL     OW97212   2.769   5.828   4.308
98460SOL    HW197213   2.768   5.802   4.216
98460SOL    HW297214   2.811   5.755   4.353
98461SOL     OW97215   3.533   0.287   8.608
98461SOL    HW197216   3.603   0.345   8.639
98461SOL    HW297217   3.469   0.287   8.680
98462SOL     OW97218   4.430  11.529   0.267
98462SOL    HW197219   4.521  11.544   0.241
98462SOL    HW297220   4.408  11.604   0.322
98463SOL     OW97221   7.248  12.082   4.171
98463SOL    HW197222   7.232  12.106   4.262
98463SOL    HW297223   7.243  11.986   4.170
98464SOL     OW97224   9.405   8.888  13.827
98464SOL    HW197225   9.377   8.810  13.779
98464SOL    HW297226   9.481   8.920  13.777
98465SOL     OW97227   9.332  13.833   3.652
98465SOL    HW197228   9.310  13.922   3.622
98465SOL    HW297229   9.319  13.837   3.747
98466SOL     OW97230  10.842   2.794  14.269
98466SOL    HW197231  10.891   2.857  14.322
98466SOL    HW297232  10.750   2.812  14.288
98467SOL     OW97233   7.213  14.714  14.134
98467SOL    HW197234   7.241  14.786  14.078
98467SOL    HW297235   7.257  14.636  14.098
98468SOL     OW97236   8.631   3.834   6.704
98468SOL    HW197237   8.568   3.784   6.652
98468SOL    HW297238   8.690   3.768   6.740
98469SOL     OW97239   4.968   1.787  11.358
98469SOL    HW197240   5.039   1.834  11.402
98469SOL    HW297241   4.924   1.854  11.306
98470SOL     OW97242  13.858   1.919  10.942
98470SOL    HW197243  13.788   1.982  10.923
98470SOL    HW297244  13.822   1.834  10.918
98471SOL     OW97245   1.578  11.777  12.862
98471SOL    HW197246   1.549  11.791  12.952
98471SOL    HW297247   1.575  11.863  12.822
98472SOL     OW97248   8.720   5.094   7.189
98472SOL    HW197249   8.754   5.134   7.109
98472SOL    HW297250   8.793   5.096   7.251
98473SOL     OW97251   3.117   3.025   5.018
98473SOL    HW197252   3.197   3.012   4.966
98473SOL    HW297253   3.146   3.076   5.094
98474SOL     OW97254   9.752  12.233  11.595
98474SOL    HW197255   9.789  12.145  11.591
98474SOL    HW297256   9.828  12.291  11.597
98475SOL     OW97257  12.267   8.858   3.834
98475SOL    HW197258  12.223   8.775   3.850
98475SOL    HW297259  12.275   8.899   3.920
98476SOL     OW97260   7.955  13.934  14.051
98476SOL    HW197261   8.045  13.966  14.063
98476SOL    HW297262   7.916  13.996  13.990
98477SOL     OW97263  12.837   8.189   5.773
98477SOL    HW197264  12.841   8.239   5.854
98477SOL    HW297265  12.814   8.254   5.706
98478SOL     OW97266   1.441  11.618   2.518
98478SOL    HW197267   1.420  11.535   2.476
98478SOL    HW297268   1.467  11.676   2.447
98479SOL     OW97269   9.707  10.011   2.098
98479SOL    HW197270   9.656   9.998   2.018
98479SOL    HW297271   9.651  10.066   2.153
98480SOL     OW97272   3.279   1.167   8.475
98480SOL    HW197273   3.192   1.142   8.443
98480SOL    HW297274   3.263   1.200   8.563
98481SOL     OW97275   1.140   6.437  13.038
98481SOL    HW197276   1.149   6.478  12.951
98481SOL    HW297277   1.129   6.511  13.098
98482SOL     OW97278   0.484   6.958   6.796
98482SOL    HW197279   0.435   7.040   6.796
98482SOL    HW297280   0.574   6.984   6.817
98483SOL     OW97281   5.489  11.938   0.576
98483SOL    HW197282   5.418  11.875   0.590
98483SOL    HW297283   5.484  11.960   0.483
98484SOL     OW97284  14.587  10.231   4.224
98484SOL    HW197285  14.667  10.268   4.186
98484SOL    HW297286  14.553  10.173   4.156
98485SOL     OW97287   3.860   3.538   0.233
98485SOL    HW197288   3.875   3.564   0.324
98485SOL    HW297289   3.777   3.578   0.210
98486SOL     OW97290   0.506   4.954   6.566
98486SOL    HW197291   0.579   4.950   6.627
98486SOL    HW297292   0.540   4.999   6.489
98487SOL     OW97293  11.506   5.754   8.346
98487SOL    HW197294  11.428   5.807   8.364
98487SOL    HW297295  11.475   5.663   8.349
98488SOL     OW97296  14.677   4.529  10.206
98488SOL    HW197297  14.654   4.621  10.215
98488SOL    HW297298  14.592   4.484  10.202
98489SOL     OW97299  13.557  10.301   6.746
98489SOL    HW197300  13.616  10.227   6.732
98489SOL    HW297301  13.475  10.261   6.777
98490SOL     OW97302  10.725   9.303  12.768
98490SOL    HW197303  10.680   9.386  12.781
98490SOL    HW297304  10.703   9.251  12.845
98491SOL     OW97305   8.037  13.720   0.580
98491SOL    HW197306   8.123  13.724   0.622
98491SOL    HW297307   8.037  13.793   0.518
98492SOL     OW97308   7.022   4.856  12.196
98492SOL    HW197309   6.978   4.932  12.235
98492SOL    HW297310   6.993   4.855  12.105
98493SOL     OW97311  10.943   3.978   5.646
98493SOL    HW197312  10.872   3.943   5.592
98493SOL    HW297313  11.023   3.943   5.607
98494SOL     OW97314   5.795   5.658  11.170
98494SOL    HW197315   5.707   5.633  11.141
98494SOL    HW297316   5.787   5.664  11.265
98495SOL     OW97317  10.013  13.761   5.867
98495SOL    HW197318  10.036  13.671   5.845
98495SOL    HW297319   9.951  13.754   5.939
98496SOL     OW97320   4.980  10.202   6.199
98496SOL    HW197321   5.040  10.223   6.127
98496SOL    HW297322   4.948  10.287   6.229
98497SOL     OW97323  14.334   6.017   4.463
98497SOL    HW197324  14.307   5.952   4.399
98497SOL    HW297325  14.285   5.996   4.542
98498SOL     OW97326   4.646   8.380   9.287
98498SOL    HW197327   4.734   8.419   9.286
98498SOL    HW297328   4.662   8.286   9.282
98499SOL     OW97329   9.095   4.413   4.469
98499SOL    HW197330   9.008   4.444   4.443
98499SOL    HW297331   9.083   4.320   4.486
98500SOL     OW97332   8.277   3.115  11.800
98500SOL    HW197333   8.265   3.204  11.831
98500SOL    HW297334   8.372   3.103  11.799
98501SOL     OW97335  14.621  12.564   3.537
98501SOL    HW197336  14.676  12.524   3.603
98501SOL    HW297337  14.682  12.593   3.469
98502SOL     OW97338  10.501  10.935  11.406
98502SOL    HW197339  10.416  10.965  11.374
98502SOL    HW297340  10.482  10.853  11.452
98503SOL     OW97341   8.708  10.480   3.119
98503SOL    HW197342   8.734  10.389   3.105
98503SOL    HW297343   8.624  10.488   3.074
98504SOL     OW97344   6.255   7.902  14.138
98504SOL    HW197345   6.257   7.817  14.092
98504SOL    HW297346   6.176   7.944  14.106
98505SOL     OW97347   0.220  13.663  10.620
98505SOL    HW197348   0.204  13.616  10.702
98505SOL    HW297349   0.210  13.597  10.552
98506SOL     OW97350   9.740   1.481   3.499
98506SOL    HW197351   9.774   1.496   3.411
98506SOL    HW297352   9.792   1.408   3.533
98507SOL     OW97353   1.511  12.074   6.391
98507SOL    HW197354   1.432  12.110   6.350
98507SOL    HW297355   1.530  12.135   6.462
98508SOL     OW97356  12.398  13.973  13.185
98508SOL    HW197357  12.375  13.986  13.277
98508SOL    HW297358  12.466  13.905  13.186
98509SOL     OW97359   5.756   0.433   2.184
98509SOL    HW197360   5.690   0.478   2.235
98509SOL    HW297361   5.807   0.384   2.249
98510SOL     OW97362   4.820   5.013  14.779
98510SOL    HW197363   4.872   4.938  14.807
98510SOL    HW297364   4.881   5.087  14.782
98511SOL     OW97365  10.650  14.746  10.321
98511SOL    HW197366  10.591  14.787  10.384
98511SOL    HW297367  10.596  14.728  10.245
98512SOL     OW97368   8.138   9.470  11.425
98512SOL    HW197369   8.103   9.489  11.339
98512SOL    HW297370   8.101   9.538  11.482
98513SOL     OW97371  11.474   5.517   2.486
98513SOL    HW197372  11.433   5.559   2.562
98513SOL    HW297373  11.567   5.537   2.495
98514SOL     OW97374   2.564   2.531   7.550
98514SOL    HW197375   2.523   2.616   7.534
98514SOL    HW297376   2.555   2.484   7.468
98515SOL     OW97377   8.264  12.719  14.719
98515SOL    HW197378   8.178  12.730  14.760
98515SOL    HW297379   8.283  12.626  14.727
98516SOL     OW97380   8.559   1.243   5.333
98516SOL    HW197381   8.612   1.170   5.367
98516SOL    HW297382   8.492   1.257   5.401
98517SOL     OW97383  14.815   8.458   6.201
98517SOL    HW197384   0.008   8.418   6.251
98517SOL    HW297385  14.774   8.385   6.155
98518SOL     OW97386   1.068  11.718   3.186
98518SOL    HW197387   1.001  11.739   3.120
98518SOL    HW297388   1.019  11.711   3.268
98519SOL     OW97389   3.222  11.972   5.950
98519SOL    HW197390   3.305  12.018   5.934
98519SOL    HW297391   3.236  11.884   5.916
98520SOL     OW97392   8.837   9.450   6.260
98520SOL    HW197393   8.749   9.433   6.294
98520SOL    HW297394   8.893   9.388   6.306
98521SOL     OW97395   2.585  13.337   2.160
98521SOL    HW197396   2.618  13.410   2.108
98521SOL    HW297397   2.660  13.311   2.215
98522SOL     OW97398   0.952   8.038   6.685
98522SOL    HW197399   0.939   7.944   6.677
98522SOL    HW297400   1.021   8.058   6.621
98523SOL     OW97401  13.476  12.990   9.872
98523SOL    HW197402  13.398  12.954   9.829
98523SOL    HW297403  13.548  12.966   9.814
98524SOL     OW97404   2.772   5.809   0.912
98524SOL    HW197405   2.705   5.779   0.850
98524SOL    HW297406   2.798   5.729   0.958
98525SOL     OW97407   9.667  12.904  13.414
98525SOL    HW197408   9.591  12.884  13.359
98525SOL    HW297409   9.728  12.831  13.399
98526SOL     OW97410   8.408   4.086   3.466
98526SOL    HW197411   8.452   4.136   3.535
98526SOL    HW297412   8.318   4.117   3.468
98527SOL     OW97413   8.737  13.483   4.100
98527SOL    HW197414   8.651  13.467   4.140
98527SOL    HW297415   8.720  13.484   4.006
98528SOL     OW97416   7.349   6.917  14.191
98528SOL    HW197417   7.303   6.906  14.107
98528SOL    HW297418   7.374   6.828  14.217
98529SOL     OW97419   9.900   7.349  11.305
98529SOL    HW197420   9.872   7.293  11.377
98529SOL    HW297421   9.840   7.329  11.234
98530SOL     OW97422   2.411  14.124   4.224
98530SOL    HW197423   2.405  14.165   4.310
98530SOL    HW297424   2.354  14.176   4.168
98531SOL     OW97425  11.202   5.789   5.991
98531SOL    HW197426  11.171   5.815   6.078
98531SOL    HW297427  11.232   5.699   6.002
98532SOL     OW97428   9.404   3.178  14.680
98532SOL    HW197429   9.373   3.252  14.732
98532SOL    HW297430   9.383   3.201  14.590
98533SOL     OW97431   5.184   4.195   4.641
98533SOL    HW197432   5.178   4.262   4.574
98533SOL    HW297433   5.219   4.118   4.596
98534SOL     OW97434   9.124   7.552   6.501
98534SOL    HW197435   9.074   7.622   6.460
98534SOL    HW297436   9.201   7.541   6.445
98535SOL     OW97437  10.553   9.325   3.243
98535SOL    HW197438  10.617   9.343   3.175
98535SOL    HW297439  10.555   9.229   3.254
98536SOL     OW97440   1.122  12.527  10.214
98536SOL    HW197441   1.207  12.566  10.193
98536SOL    HW297442   1.073  12.531  10.132
98537SOL     OW97443   0.356   8.940  13.968
98537SOL    HW197444   0.338   9.032  13.949
98537SOL    HW297445   0.271   8.904  13.994
98538SOL     OW97446   0.059   1.516   7.092
98538SOL    HW197447  14.866   1.467   7.051
98538SOL    HW297448   0.023   1.546   7.175
98539SOL     OW97449  11.079   1.359   2.126
98539SOL    HW197450  11.135   1.395   2.057
98539SOL    HW297451  11.073   1.430   2.191
98540SOL     OW97452  11.248  14.443   8.051
98540SOL    HW197453  11.239  14.350   8.029
98540SOL    HW297454  11.161  14.468   8.082
98541SOL     OW97455   7.528   4.840   2.204
98541SOL    HW197456   7.552   4.782   2.132
98541SOL    HW297457   7.546   4.928   2.171
98542SOL     OW97458   7.188  11.503  14.611
98542SOL    HW197459   7.226  11.455  14.538
98542SOL    HW297460   7.108  11.455  14.632
98543SOL     OW97461  13.587  14.584   1.389
98543SOL    HW197462  13.647  14.640   1.341
98543SOL    HW297463  13.606  14.496   1.357
98544SOL     OW97464   5.149  14.484   8.821
98544SOL    HW197465   5.122  14.576   8.818
98544SOL    HW297466   5.245  14.488   8.828
98545SOL     OW97467  11.578   4.622   9.904
98545SOL    HW197468  11.496   4.671   9.898
98545SOL    HW297469  11.645   4.689   9.911
98546SOL     OW97470  11.546   8.489   1.953
98546SOL    HW197471  11.528   8.507   2.045
98546SOL    HW297472  11.617   8.424   1.955
98547SOL     OW97473  11.741   4.150   8.412
98547SOL    HW197474  11.658   4.101   8.413
98547SOL    HW297475  11.808   4.084   8.396
98548SOL     OW97476  12.153  10.187  10.675
98548SOL    HW197477  12.119  10.271  10.706
98548SOL    HW297478  12.240  10.181  10.715
98549SOL     OW97479   1.680  13.018   7.995
98549SOL    HW197480   1.759  13.021   7.940
98549SOL    HW297481   1.700  13.076   8.068
98550SOL     OW97482   1.855  12.889   9.391
98550SOL    HW197483   1.795  12.964   9.393
98550SOL    HW297484   1.930  12.918   9.443
98551SOL     OW97485   1.135   1.978   4.016
98551SOL    HW197486   1.182   1.899   4.044
98551SOL    HW297487   1.071   1.946   3.952
98552SOL     OW97488   2.794   1.087   8.215
98552SOL    HW197489   2.703   1.107   8.197
98552SOL    HW297490   2.809   1.002   8.173
98553SOL     OW97491   2.445   0.677  14.094
98553SOL    HW197492   2.493   0.667  14.176
98553SOL    HW297493   2.358   0.642  14.113
98554SOL     OW97494   8.796   4.566   9.127
98554SOL    HW197495   8.832   4.590   9.042
98554SOL    HW297496   8.855   4.498   9.160
98555SOL     OW97497  14.828   2.803  10.759
98555SOL    HW197498  14.759   2.821  10.696
98555SOL    HW297499  14.791   2.734  10.815
98556SOL     OW97500  10.703   0.400   9.091
98556SOL    HW197501  10.696   0.472   9.154
98556SOL    HW297502  10.697   0.443   9.005
98557SOL     OW97503   0.688   1.373  10.161
98557SOL    HW197504   0.718   1.428  10.087
98557SOL    HW297505   0.645   1.435  10.220
98558SOL     OW97506   2.208  13.356   5.594
98558SOL    HW197507   2.142  13.352   5.663
98558SOL    HW297508   2.166  13.317   5.518
98559SOL     OW97509  10.532  13.366   1.982
98559SOL    HW197510  10.511  13.459   1.968
98559SOL    HW297511  10.591  13.367   2.058
98560SOL     OW97512   3.134   7.107  11.181
98560SOL    HW197513   3.100   7.025  11.217
98560SOL    HW297514   3.142   7.091  11.087
98561SOL     OW97515   6.564   3.264   0.502
98561SOL    HW197516   6.640   3.207   0.507
98561SOL    HW297517   6.517   3.248   0.585
98562SOL     OW97518   5.532  12.481  12.200
98562SOL    HW197519   5.539  12.569  12.237
98562SOL    HW297520   5.497  12.495  12.112
98563SOL     OW97521  10.962  11.683   2.534
98563SOL    HW197522  10.980  11.707   2.443
98563SOL    HW297523  10.922  11.762   2.571
98564SOL     OW97524   0.576   3.434   9.277
98564SOL    HW197525   0.514   3.413   9.346
98564SOL    HW297526   0.644   3.366   9.282
98565SOL     OW97527  12.591   8.834   6.057
98565SOL    HW197528  12.552   8.878   6.133
98565SOL    HW297529  12.685   8.848   6.067
98566SOL     OW97530  13.087  13.014   9.516
98566SOL    HW197531  12.996  13.036   9.497
98566SOL    HW297532  13.083  12.929   9.560
98567SOL     OW97533   8.640   7.266   9.189
98567SOL    HW197534   8.729   7.236   9.209
98567SOL    HW297535   8.590   7.186   9.176
98568SOL     OW97536   7.762   4.460   0.105
98568SOL    HW197537   7.793   4.513   0.179
98568SOL    HW297538   7.793   4.508   0.028
98569SOL     OW97539  10.034   8.467   6.685
98569SOL    HW197540   9.965   8.515   6.731
98569SOL    HW297541   9.987   8.401   6.634
98570SOL     OW97542   0.611  13.641   2.305
98570SOL    HW197543   0.671  13.703   2.346
98570SOL    HW297544   0.524  13.669   2.334
98571SOL     OW97545   4.805   1.695  14.421
98571SOL    HW197546   4.866   1.715  14.492
98571SOL    HW297547   4.861   1.669  14.348
98572SOL     OW97548  10.009   4.849   0.782
98572SOL    HW197549  10.027   4.781   0.717
98572SOL    HW297550  10.076   4.915   0.767
98573SOL     OW97551   5.301   6.841  11.149
98573SOL    HW197552   5.290   6.796  11.065
98573SOL    HW297553   5.383   6.806  11.185
98574SOL     OW97554   4.257   2.699   7.603
98574SOL    HW197555   4.216   2.626   7.556
98574SOL    HW297556   4.261   2.669   7.694
98575SOL     OW97557   9.016   1.432  11.196
98575SOL    HW197558   9.108   1.450  11.172
98575SOL    HW297559   8.966   1.491  11.139
98576SOL     OW97560  11.821   9.432   0.087
98576SOL    HW197561  11.797   9.454   0.177
98576SOL    HW297562  11.896   9.374   0.095
98577SOL     OW97563  13.757   4.505   3.089
98577SOL    HW197564  13.803   4.504   3.172
98577SOL    HW297565  13.664   4.497   3.112
98578SOL     OW97566   2.387  10.161   6.805
98578SOL    HW197567   2.315  10.192   6.860
98578SOL    HW297568   2.345  10.141   6.721
98579SOL     OW97569   4.367   1.236   9.354
98579SOL    HW197570   4.440   1.257   9.296
98579SOL    HW297571   4.402   1.172   9.416
98580SOL     OW97572   0.287   4.727  13.256
98580SOL    HW197573   0.225   4.678  13.310
98580SOL    HW297574   0.234   4.762  13.184
98581SOL     OW97575  11.230   4.297   6.356
98581SOL    HW197576  11.227   4.342   6.271
98581SOL    HW297577  11.312   4.249   6.355
98582SOL     OW97578  11.124  13.207   1.932
98582SOL    HW197579  11.032  13.212   1.959
98582SOL    HW297580  11.126  13.137   1.867
98583SOL     OW97581   0.332   3.724  10.887
98583SOL    HW197582   0.402   3.717  10.953
98583SOL    HW297583   0.267   3.782  10.927
98584SOL     OW97584   7.518  13.501  13.010
98584SOL    HW197585   7.462  13.429  12.984
98584SOL    HW297586   7.461  13.578  13.006
98585SOL     OW97587  11.698  12.728  13.335
98585SOL    HW197588  11.667  12.815  13.306
98585SOL    HW297589  11.771  12.709  13.277
98586SOL     OW97590  10.308   8.995  13.136
98586SOL    HW197591  10.403   8.996  13.124
98586SOL    HW297592  10.284   9.088  13.139
98587SOL     OW97593  10.338   2.906  13.963
98587SOL    HW197594  10.303   2.817  13.951
98587SOL    HW297595  10.327   2.947  13.877
98588SOL     OW97596  12.514   8.886   5.158
98588SOL    HW197597  12.448   8.818   5.173
98588SOL    HW297598  12.497   8.952   5.225
98589SOL     OW97599   0.001   1.501  11.650
98589SOL    HW197600  14.799   1.524  11.603
98589SOL    HW297601   0.071   1.526  11.591
98590SOL     OW97602  13.178   4.428   6.292
98590SOL    HW197603  13.261   4.432   6.339
98590SOL    HW297604  13.171   4.337   6.263
98591SOL     OW97605   2.694   7.927  13.309
98591SOL    HW197606   2.702   7.871  13.232
98591SOL    HW297607   2.706   8.016  13.276
98592SOL     OW97608  13.691  12.645  12.645
98592SOL    HW197609  13.702  12.737  12.666
98592SOL    HW297610  13.728  12.635  12.557
98593SOL     OW97611   7.760  11.725   0.696
98593SOL    HW197612   7.842  11.764   0.725
98593SOL    HW297613   7.744  11.766   0.610
98594SOL     OW97614   8.248   2.345   8.133
98594SOL    HW197615   8.159   2.334   8.167
98594SOL    HW297616   8.301   2.357   8.212
98595SOL     OW97617   8.304   6.477   3.774
98595SOL    HW197618   8.242   6.503   3.843
98595SOL    HW297619   8.326   6.558   3.730
98596SOL     OW97620  10.234   2.017   9.073
98596SOL    HW197621  10.170   2.030   9.144
98596SOL    HW297622  10.242   1.922   9.065
98597SOL     OW97623   2.020  11.688  13.476
98597SOL    HW197624   2.007  11.595  13.494
98597SOL    HW297625   1.991  11.732  13.556
98598SOL     OW97626   6.775   7.623   8.966
98598SOL    HW197627   6.704   7.582   8.916
98598SOL    HW297628   6.816   7.684   8.904
98599SOL     OW97629   8.433   3.099   1.520
98599SOL    HW197630   8.339   3.089   1.506
98599SOL    HW297631   8.473   3.058   1.443
98600SOL     OW97632   5.444   0.031   6.177
98600SOL    HW197633   5.513  14.844   6.187
98600SOL    HW297634   5.491   0.115   6.180
98601SOL     OW97635   1.087  13.043  13.088
98601SOL    HW197636   1.032  13.049  13.010
98601SOL    HW297637   1.123  12.955  13.086
98602SOL     OW97638   6.194   6.208   1.371
98602SOL    HW197639   6.200   6.273   1.441
98602SOL    HW297640   6.275   6.218   1.322
98603SOL     OW97641   9.837  10.536  12.567
98603SOL    HW197642   9.829  10.624  12.604
98603SOL    HW297643   9.922  10.504  12.598
98604SOL     OW97644  13.264   5.937   9.849
98604SOL    HW197645  13.327   5.864   9.845
98604SOL    HW297646  13.298   6.001   9.786
98605SOL     OW97647   5.667  13.851  11.594
98605SOL    HW197648   5.640  13.925  11.540
98605SOL    HW297649   5.634  13.873  11.682
98606SOL     OW97650   5.818   9.548   6.900
98606SOL    HW197651   5.734   9.512   6.928
98606SOL    HW297652   5.872   9.545   6.979
98607SOL     OW97653   7.527   7.161   7.562
98607SOL    HW197654   7.478   7.129   7.486
98607SOL    HW297655   7.462   7.164   7.632
98608SOL     OW97656   9.633   6.343  14.493
98608SOL    HW197657   9.670   6.429  14.475
98608SOL    HW297658   9.663   6.321  14.581
98609SOL     OW97659   5.203   2.497   8.070
98609SOL    HW197660   5.127   2.442   8.089
98609SOL    HW297661   5.167   2.585   8.059
98610SOL     OW97662   0.634  12.035  14.766
98610SOL    HW197663   0.624  12.130  14.773
98610SOL    HW297664   0.607  12.015  14.677
98611SOL     OW97665  10.166   1.934   0.336
98611SOL    HW197666  10.089   1.988   0.349
98611SOL    HW297667  10.238   1.985   0.373
98612SOL     OW97668   4.417   7.806  11.675
98612SOL    HW197669   4.372   7.723  11.694
98612SOL    HW297670   4.367   7.843  11.602
98613SOL     OW97671   1.570   5.116   6.091
98613SOL    HW197672   1.484   5.121   6.051
98613SOL    HW297673   1.599   5.026   6.073
98614SOL     OW97674   2.471   7.204  10.009
98614SOL    HW197675   2.384   7.164  10.010
98614SOL    HW297676   2.511   7.171   9.928
98615SOL     OW97677  11.086   5.381   3.434
98615SOL    HW197678  11.150   5.372   3.504
98615SOL    HW297679  11.110   5.314   3.370
98616SOL     OW97680  13.140   4.078  12.383
98616SOL    HW197681  13.061   4.025  12.398
98616SOL    HW297682  13.108   4.168  12.377
98617SOL     OW97683   7.700  10.798   7.296
98617SOL    HW197684   7.708  10.892   7.285
98617SOL    HW297685   7.668  10.787   7.385
98618SOL     OW97686   4.701   1.361   0.198
98618SOL    HW197687   4.643   1.292   0.230
98618SOL    HW297688   4.663   1.389   0.115
98619SOL     OW97689   3.565   8.716   0.806
98619SOL    HW197690   3.632   8.650   0.828
98619SOL    HW297691   3.550   8.763   0.888
98620SOL     OW97692  11.045   1.299  10.893
98620SOL    HW197693  11.018   1.376  10.943
98620SOL    HW297694  11.084   1.241  10.958
98621SOL     OW97695   3.752  10.284  12.968
98621SOL    HW197696   3.818  10.263  12.902
98621SOL    HW297697   3.674  10.237  12.938
98622SOL     OW97698   1.884   8.646  10.164
98622SOL    HW197699   1.943   8.648  10.089
98622SOL    HW297700   1.832   8.726  10.155
98623SOL     OW97701  11.418   7.230  13.541
98623SOL    HW197702  11.425   7.193  13.453
98623SOL    HW297703  11.348   7.179  13.583
98624SOL     OW97704  13.996   6.054  11.698
98624SOL    HW197705  14.072   6.109  11.682
98624SOL    HW297706  14.022   5.998  11.771
98625SOL     OW97707   3.739  11.878  11.904
98625SOL    HW197708   3.753  11.819  11.830
98625SOL    HW297709   3.751  11.822  11.981
98626SOL     OW97710   3.093  10.358   6.147
98626SOL    HW197711   3.003  10.382   6.172
98626SOL    HW297712   3.089  10.347   6.052
98627SOL     OW97713  10.578  13.697   4.030
98627SOL    HW197714  10.543  13.786   4.030
98627SOL    HW297715  10.603  13.682   3.939
98628SOL     OW97716   7.907  12.466   3.942
98628SOL    HW197717   7.846  12.507   3.881
98628SOL    HW297718   7.891  12.372   3.932
98629SOL     OW97719   1.604   4.606   7.464
98629SOL    HW197720   1.544   4.554   7.517
98629SOL    HW297721   1.644   4.667   7.526
98630SOL     OW97722   9.526   4.876   2.824
98630SOL    HW197723   9.477   4.909   2.899
98630SOL    HW297724   9.466   4.886   2.750
98631SOL     OW97725   6.391   7.066  10.014
98631SOL    HW197726   6.382   7.044   9.921
98631SOL    HW297727   6.454   7.139  10.015
98632SOL     OW97728  12.169   3.676   5.984
98632SOL    HW197729  12.204   3.686   5.895
98632SOL    HW297730  12.162   3.766   6.017
98633SOL     OW97731  13.128   8.883   8.868
98633SOL    HW197732  13.097   8.808   8.818
98633SOL    HW297733  13.223   8.870   8.874
98634SOL     OW97734  13.313   8.961   5.260
98634SOL    HW197735  13.301   9.020   5.334
98634SOL    HW297736  13.299   8.874   5.295
98635SOL     OW97737  12.436  10.629  12.271
98635SOL    HW197738  12.526  10.603  12.252
98635SOL    HW297739  12.421  10.599  12.361
98636SOL     OW97740  10.830   8.944   8.835
98636SOL    HW197741  10.772   8.884   8.882
98636SOL    HW297742  10.771   8.995   8.779
98637SOL     OW97743   0.781   1.353   2.803
98637SOL    HW197744   0.828   1.302   2.869
98637SOL    HW297745   0.843   1.422   2.777
98638SOL     OW97746   6.420   9.099   0.925
98638SOL    HW197747   6.437   9.183   0.882
98638SOL    HW297748   6.507   9.061   0.938
98639SOL     OW97749   6.098  14.484   1.863
98639SOL    HW197750   6.078  14.573   1.892
98639SOL    HW297751   6.034  14.429   1.909
98640SOL     OW97752   4.737   6.775   7.226
98640SOL    HW197753   4.804   6.711   7.202
98640SOL    HW297754   4.684   6.731   7.292
98641SOL     OW97755  12.248  11.294   7.136
98641SOL    HW197756  12.220  11.293   7.228
98641SOL    HW297757  12.199  11.221   7.097
98642SOL     OW97758   6.182   8.049   1.676
98642SOL    HW197759   6.125   8.123   1.696
98642SOL    HW297760   6.253   8.087   1.624
98643SOL     OW97761   4.496   1.926  12.017
98643SOL    HW197762   4.518   1.864  11.947
98643SOL    HW297763   4.409   1.899  12.047
98644SOL     OW97764   7.117  14.115   5.615
98644SOL    HW197765   7.137  14.167   5.693
98644SOL    HW297766   7.034  14.152   5.583
98645SOL     OW97767   2.896   0.945  13.985
98645SOL    HW197768   2.830   0.919  14.049
98645SOL    HW297769   2.940   0.863  13.962
98646SOL     OW97770   0.716  10.768   3.548
98646SOL    HW197771   0.693  10.857   3.523
98646SOL    HW297772   0.640  10.737   3.597
98647SOL     OW97773  14.464  13.970   2.005
98647SOL    HW197774  14.378  13.955   1.966
98647SOL    HW297775  14.500  13.882   2.016
98648SOL     OW97776  14.696  12.362   1.941
98648SOL    HW197777  14.757  12.317   2.000
98648SOL    HW297778  14.717  12.455   1.951
98649SOL     OW97779   7.969   8.278   3.503
98649SOL    HW197780   7.880   8.270   3.539
98649SOL    HW297781   7.978   8.370   3.479
98650SOL     OW97782   4.675  11.486   7.512
98650SOL    HW197783   4.730  11.428   7.564
98650SOL    HW297784   4.637  11.430   7.445
98651SOL     OW97785   6.317   3.933   7.499
98651SOL    HW197786   6.377   3.859   7.486
98651SOL    HW297787   6.231   3.897   7.476
98652SOL     OW97788   2.298  11.393  13.927
98652SOL    HW197789   2.363  11.323  13.920
98652SOL    HW297790   2.350  11.472  13.939
98653SOL     OW97791   4.287  11.835   1.528
98653SOL    HW197792   4.297  11.922   1.568
98653SOL    HW297793   4.375  11.797   1.533
98654SOL     OW97794   4.110  13.819   6.886
98654SOL    HW197795   4.034  13.872   6.862
98654SOL    HW297796   4.081  13.728   6.873
98655SOL     OW97797   2.253   9.911   8.388
98655SOL    HW197798   2.213   9.895   8.303
98655SOL    HW297799   2.186   9.887   8.451
98656SOL     OW97800  10.425   8.519  10.580
98656SOL    HW197801  10.427   8.604  10.624
98656SOL    HW297802  10.338   8.484  10.600
98657SOL     OW97803   2.072  10.990   0.002
98657SOL    HW197804   2.069  10.904   0.043
98657SOL    HW297805   1.986  10.999  14.839
98658SOL     OW97806   7.777  12.383  10.882
98658SOL    HW197807   7.813  12.358  10.967
98658SOL    HW297808   7.686  12.353  10.885
98659SOL     OW97809   6.448   6.379  13.105
98659SOL    HW197810   6.486   6.466  13.106
98659SOL    HW297811   6.494   6.333  13.034
98660SOL     OW97812   7.091   6.389   2.669
98660SOL    HW197813   7.018   6.450   2.655
98660SOL    HW297814   7.169   6.444   2.668
98661SOL     OW97815  10.771   6.304   5.548
98661SOL    HW197816  10.789   6.237   5.614
98661SOL    HW297817  10.739   6.379   5.599
98662SOL     OW97818   0.859   2.987  14.878
98662SOL    HW197819   0.922   2.914  14.872
98662SOL    HW297820   0.903   3.051   0.056
98663SOL     OW97821  11.011   7.198  11.679
98663SOL    HW197822  11.094   7.201  11.632
98663SOL    HW297823  11.003   7.107  11.709
98664SOL     OW97824   5.236  12.856  13.341
98664SOL    HW197825   5.175  12.782  13.346
98664SOL    HW297826   5.321  12.818  13.361
98665SOL     OW97827  14.476   5.612   9.234
98665SOL    HW197828  14.520   5.691   9.268
98665SOL    HW297829  14.411   5.590   9.300
98666SOL     OW97830   4.514  10.220  14.511
98666SOL    HW197831   4.553  10.306  14.497
98666SOL    HW297832   4.430  10.239  14.554
98667SOL     OW97833   1.901   5.724   2.331
98667SOL    HW197834   1.821   5.767   2.361
98667SOL    HW297835   1.890   5.632   2.355
98668SOL     OW97836  10.257   5.033   9.602
98668SOL    HW197837  10.313   4.976   9.655
98668SOL    HW297838  10.217   4.975   9.537
98669SOL     OW97839  13.556   3.550  11.673
98669SOL    HW197840  13.517   3.500  11.600
98669SOL    HW297841  13.641   3.578  11.639
98670SOL     OW97842   2.020   1.234  14.493
98670SOL    HW197843   2.065   1.305  14.539
98670SOL    HW297844   2.090   1.178  14.459
98671SOL     OW97845   1.621   4.083   1.765
98671SOL    HW197846   1.710   4.094   1.796
98671SOL    HW297847   1.569   4.143   1.818
98672SOL     OW97848   5.070   0.921   0.596
98672SOL    HW197849   5.115   0.882   0.520
98672SOL    HW297850   5.123   0.895   0.671
98673SOL     OW97851   2.591  10.806  13.852
98673SOL    HW197852   2.645  10.843  13.783
98673SOL    HW297853   2.502  10.835  13.832
98674SOL     OW97854  10.458   7.147  14.656
98674SOL    HW197855  10.514   7.146  14.733
98674SOL    HW297856  10.371   7.125  14.689
98675SOL     OW97857   6.729   2.827  10.612
98675SOL    HW197858   6.806   2.771  10.606
98675SOL    HW297859   6.760   2.914  10.587
98676SOL     OW97860   6.526   9.000  13.836
98676SOL    HW197861   6.468   8.998  13.912
98676SOL    HW297862   6.502   9.080  13.790
98677SOL     OW97863   9.598   0.829  14.711
98677SOL    HW197864   9.595   0.895  14.641
98677SOL    HW297865   9.648   0.757  14.673
98678SOL     OW97866   2.879   1.980   4.844
98678SOL    HW197867   2.923   1.896   4.826
98678SOL    HW297868   2.945   2.046   4.822
98679SOL     OW97869   1.695   2.885   2.174
98679SOL    HW197870   1.678   2.945   2.102
98679SOL    HW297871   1.614   2.885   2.225
98680SOL     OW97872   8.715   8.941   0.672
98680SOL    HW197873   8.798   8.898   0.650
98680SOL    HW297874   8.727   9.032   0.647
98681SOL     OW97875  14.476   0.604  14.520
98681SOL    HW197876  14.424   0.547  14.576
98681SOL    HW297877  14.451   0.579  14.431
98682SOL     OW97878   7.446   0.922   0.792
98682SOL    HW197879   7.525   0.944   0.841
98682SOL    HW297880   7.443   0.987   0.722
98683SOL     OW97881   1.397   7.937   7.112
98683SOL    HW197882   1.455   7.901   7.045
98683SOL    HW297883   1.350   7.861   7.146
98684SOL     OW97884   8.988  13.624  12.313
98684SOL    HW197885   9.035  13.541  12.304
98684SOL    HW297886   8.974  13.634  12.407
98685SOL     OW97887  10.960  10.218   1.317
98685SOL    HW197888  10.887  10.230   1.256
98685SOL    HW297889  10.934  10.266   1.395
98686SOL     OW97890   5.239  11.435   5.548
98686SOL    HW197891   5.253  11.422   5.642
98686SOL    HW297892   5.297  11.508   5.526
98687SOL     OW97893   1.254   1.753   5.618
98687SOL    HW197894   1.313   1.779   5.547
98687SOL    HW297895   1.207   1.833   5.642
98688SOL     OW97896   8.745   2.822  14.638
98688SOL    HW197897   8.728   2.907  14.679
98688SOL    HW297898   8.699   2.826  14.555
98689SOL     OW97899   4.735   0.188   5.727
98689SOL    HW197900   4.799   0.221   5.664
98689SOL    HW297901   4.739   0.092   5.717
98690SOL     OW97902  12.736   3.910   7.272
98690SOL    HW197903  12.773   3.885   7.357
98690SOL    HW297904  12.806   3.893   7.209
98691SOL     OW97905   1.348   2.306   9.950
98691SOL    HW197906   1.354   2.400   9.939
98691SOL    HW297907   1.316   2.294  10.040
98692SOL     OW97908   6.931   9.288   4.450
98692SOL    HW197909   6.846   9.274   4.491
98692SOL    HW297910   6.983   9.211   4.476
98693SOL     OW97911   0.016   0.926   7.809
98693SOL    HW197912  14.837   0.923   7.733
98693SOL    HW297913   0.092   0.875   7.782
98694SOL     OW97914   4.837  14.393  11.867
98694SOL    HW197915   4.839  14.352  11.781
98694SOL    HW297916   4.793  14.477  11.853
98695SOL     OW97917   8.410  14.356   7.611
98695SOL    HW197918   8.332  14.395   7.571
98695SOL    HW297919   8.437  14.419   7.677
98696SOL     OW97920   5.814  11.399   6.489
98696SOL    HW197921   5.798  11.458   6.415
98696SOL    HW297922   5.733  11.401   6.540
98697SOL     OW97923   6.591   3.714   3.360
98697SOL    HW197924   6.645   3.637   3.345
98697SOL    HW297925   6.524   3.684   3.422
98698SOL     OW97926   8.038   0.839  10.646
98698SOL    HW197927   7.953   0.855  10.604
98698SOL    HW297928   8.075   0.927  10.657
98699SOL     OW97929  12.611   3.296  14.145
98699SOL    HW197930  12.615   3.279  14.239
98699SOL    HW297931  12.618   3.391  14.137
98700SOL     OW97932   0.589   4.275   1.161
98700SOL    HW197933   0.587   4.241   1.251
98700SOL    HW297934   0.503   4.315   1.148
98701SOL     OW97935  11.325   6.477   6.335
98701SOL    HW197936  11.409   6.440   6.307
98701SOL    HW297937  11.281   6.404   6.378
98702SOL     OW97938  11.960   8.071   5.814
98702SOL    HW197939  11.995   8.083   5.902
98702SOL    HW297940  11.936   7.978   5.810
98703SOL     OW97941   7.935   7.027   6.133
98703SOL    HW197942   7.966   7.066   6.215
98703SOL    HW297943   7.913   7.101   6.078
98704SOL     OW97944  14.841   9.725   9.603
98704SOL    HW197945  14.796   9.744   9.521
98704SOL    HW297946  14.791   9.654   9.642
98705SOL     OW97947   1.072  11.478   9.076
98705SOL    HW197948   1.094  11.406   9.016
98705SOL    HW297949   1.062  11.554   9.020
98706SOL     OW97950   4.158   2.636   7.276
98706SOL    HW197951   4.145   2.565   7.339
98706SOL    HW297952   4.079   2.634   7.222
98707SOL     OW97953   6.406   3.410   2.400
98707SOL    HW197954   6.317   3.433   2.425
98707SOL    HW297955   6.432   3.341   2.461
98708SOL     OW97956  11.004   6.794  12.411
98708SOL    HW197957  11.075   6.857  12.426
98708SOL    HW297958  11.035   6.739  12.339
98709SOL     OW97959   4.400  12.585   4.731
98709SOL    HW197960   4.326  12.642   4.713
98709SOL    HW297961   4.435  12.615   4.815
98710SOL     OW97962  10.326   4.705   7.729
98710SOL    HW197963  10.418   4.721   7.711
98710SOL    HW297964  10.326   4.658   7.813
98711SOL     OW97965   9.741  13.634   3.358
98711SOL    HW197966   9.719  13.691   3.432
98711SOL    HW297967   9.781  13.693   3.294
98712SOL     OW97968   8.854   4.459   0.486
98712SOL    HW197969   8.911   4.383   0.497
98712SOL    HW297970   8.793   4.454   0.560
98713SOL     OW97971  10.866   7.835   9.164
98713SOL    HW197972  10.809   7.781   9.217
98713SOL    HW297973  10.871   7.919   9.211
98714SOL     OW97974  10.715   5.199  14.301
98714SOL    HW197975  10.630   5.164  14.275
98714SOL    HW297976  10.695   5.269  14.363
98715SOL     OW97977   4.011  13.089   6.538
98715SOL    HW197978   4.084  13.115   6.482
98715SOL    HW297979   4.052  13.057   6.619
98716SOL     OW97980   0.081  12.375   3.345
98716SOL    HW197981   0.126  12.346   3.424
98716SOL    HW297982   0.129  12.331   3.274
98717SOL     OW97983   2.556   4.370   9.967
98717SOL    HW197984   2.468   4.334   9.972
98717SOL    HW297985   2.579   4.365   9.874
98718SOL     OW97986   3.539   9.634  14.868
98718SOL    HW197987   3.549   9.716  14.819
98718SOL    HW297988   3.598   9.645   0.065
98719SOL     OW97989   0.988  10.033   0.362
98719SOL    HW197990   1.036  10.074   0.435
98719SOL    HW297991   0.914   9.989   0.403
98720SOL     OW97992   4.705  10.033   4.542
98720SOL    HW197993   4.629  10.092   4.539
98720SOL    HW297994   4.757  10.056   4.465
98721SOL     OW97995  13.375  11.202  12.094
98721SOL    HW197996  13.315  11.171  12.161
98721SOL    HW297997  13.434  11.262  12.141
98722SOL     OW97998   8.073   2.051   6.318
98722SOL    HW197999   8.105   2.026   6.405
98722SOL    HW298000   8.009   2.120   6.334
98723SOL     OW98001   3.328   7.538   7.244
98723SOL    HW198002   3.371   7.476   7.302
98723SOL    HW298003   3.338   7.499   7.157
98724SOL     OW98004   1.276  14.844  13.874
98724SOL    HW198005   1.219   0.043  13.871
98724SOL    HW298006   1.362  14.878  13.898
98725SOL     OW98007  14.305   5.800  14.217
98725SOL    HW198008  14.318   5.720  14.166
98725SOL    HW298009  14.285   5.867  14.151
98726SOL     OW98010  11.500   4.172   1.062
98726SOL    HW198011  11.460   4.086   1.076
98726SOL    HW298012  11.527   4.200   1.149
98727SOL     OW98013   5.118  14.045   3.903
98727SOL    HW198014   5.098  14.090   3.821
98727SOL    HW298015   5.138  13.955   3.877
98728SOL     OW98016   5.674   7.086   2.196
98728SOL    HW198017   5.644   7.009   2.148
98728SOL    HW298018   5.726   7.051   2.269
98729SOL     OW98019   4.695   0.725   2.710
98729SOL    HW198020   4.616   0.733   2.764
98729SOL    HW298021   4.758   0.682   2.768
98730SOL     OW98022   7.657   7.268   9.433
98730SOL    HW198023   7.672   7.337   9.369
98730SOL    HW298024   7.601   7.205   9.388
98731SOL     OW98025   2.173  11.869  14.106
98731SOL    HW198026   2.265  11.855  14.128
98731SOL    HW298027   2.129  11.880  14.190
98732SOL     OW98028  11.367   8.093  12.769
98732SOL    HW198029  11.306   8.141  12.714
98732SOL    HW298030  11.372   8.144  12.850
98733SOL     OW98031   2.109   4.075   2.522
98733SOL    HW198032   2.035   4.049   2.469
98733SOL    HW298033   2.176   4.101   2.459
98734SOL     OW98034   7.629  11.344   4.260
98734SOL    HW198035   7.690  11.318   4.328
98734SOL    HW298036   7.557  11.387   4.307
98735SOL     OW98037  12.347   5.924  14.639
98735SOL    HW198038  12.376   5.833  14.641
98735SOL    HW298039  12.279   5.929  14.705
98736SOL     OW98040  12.906   4.092   9.990
98736SOL    HW198041  12.899   4.179  10.028
98736SOL    HW298042  12.828   4.046  10.019
98737SOL     OW98043   0.953   3.588  12.663
98737SOL    HW198044   0.902   3.631  12.731
98737SOL    HW298045   0.992   3.512  12.707
98738SOL     OW98046  13.108   7.586   7.011
98738SOL    HW198047  13.013   7.583   7.000
98738SOL    HW298048  13.123   7.559   7.101
98739SOL     OW98049  13.084  13.571  12.396
98739SOL    HW198050  13.136  13.527  12.329
98739SOL    HW298051  12.998  13.529  12.392
98740SOL     OW98052  12.709   7.537  14.239
98740SOL    HW198053  12.761   7.499  14.168
98740SOL    HW298054  12.621   7.503  14.225
98741SOL     OW98055  10.160   8.140   8.049
98741SOL    HW198056  10.229   8.107   8.107
98741SOL    HW298057  10.195   8.129   7.961
98742SOL     OW98058   1.143   7.994   0.964
98742SOL    HW198059   1.235   8.017   0.963
98742SOL    HW298060   1.099   8.067   1.006
98743SOL     OW98061   8.253  10.732  10.446
98743SOL    HW198062   8.161  10.720  10.422
98743SOL    HW298063   8.266  10.675  10.521
98744SOL     OW98064   5.596  10.972   2.972
98744SOL    HW198065   5.604  10.948   3.065
98744SOL    HW298066   5.502  10.985   2.958
98745SOL     OW98067  10.856  13.470   7.748
98745SOL    HW198068  10.927  13.406   7.750
98745SOL    HW298069  10.801  13.447   7.822
98746SOL     OW98070  10.015   6.754   3.738
98746SOL    HW198071  10.070   6.808   3.682
98746SOL    HW298072  10.067   6.742   3.818
98747SOL     OW98073   1.893  12.790   7.080
98747SOL    HW198074   1.803  12.792   7.048
98747SOL    HW298075   1.947  12.811   7.004
98748SOL     OW98076   9.824   2.576   2.895
98748SOL    HW198077   9.896   2.626   2.857
98748SOL    HW298078   9.794   2.629   2.969
98749SOL     OW98079   1.178   3.410   4.608
98749SOL    HW198080   1.251   3.454   4.652
98749SOL    HW298081   1.107   3.473   4.612
98750SOL     OW98082  12.619   2.565   2.313
98750SOL    HW198083  12.633   2.520   2.396
98750SOL    HW298084  12.657   2.507   2.247
98751SOL     OW98085   1.052   3.310  14.178
98751SOL    HW198086   1.038   3.319  14.084
98751SOL    HW298087   0.979   3.357  14.218
98752SOL     OW98088  10.088   7.089   5.737
98752SOL    HW198089  10.050   7.174   5.713
98752SOL    HW298090  10.065   7.079   5.829
98753SOL     OW98091  11.258  13.370   1.047
98753SOL    HW198092  11.313  13.446   1.066
98753SOL    HW298093  11.187  13.376   1.111
98754SOL     OW98094   3.586   5.672   2.402
98754SOL    HW198095   3.567   5.597   2.459
98754SOL    HW298096   3.552   5.646   2.317
98755SOL     OW98097   5.343  12.723  13.935
98755SOL    HW198098   5.274  12.790  13.926
98755SOL    HW298099   5.424  12.771  13.920
98756SOL     OW98100   2.069   9.504   6.912
98756SOL    HW198101   2.031   9.589   6.888
98756SOL    HW298102   2.149   9.527   6.959
98757SOL     OW98103  14.725   9.149   0.372
98757SOL    HW198104  14.710   9.080   0.307
98757SOL    HW298105  14.645   9.201   0.370
98758SOL     OW98106  10.883   5.107   1.241
98758SOL    HW198107  10.865   5.064   1.324
98758SOL    HW298108  10.812   5.171   1.231
98759SOL     OW98109  13.535   2.402   9.454
98759SOL    HW198110  13.472   2.340   9.418
98759SOL    HW298111  13.508   2.487   9.420
98760SOL     OW98112   8.303   3.455  12.817
98760SOL    HW198113   8.258   3.450  12.902
98760SOL    HW298114   8.307   3.364  12.788
98761SOL     OW98115   8.199  12.064   4.709
98761SOL    HW198116   8.108  12.051   4.735
98761SOL    HW298117   8.236  12.120   4.778
98762SOL     OW98118   8.544   9.583  12.361
98762SOL    HW198119   8.502   9.635  12.293
98762SOL    HW298120   8.473   9.535  12.403
98763SOL     OW98121   6.353  10.436   4.969
98763SOL    HW198122   6.332  10.344   4.982
98763SOL    HW298123   6.299  10.463   4.894
98764SOL     OW98124   2.274   4.756   2.795
98764SOL    HW198125   2.272   4.837   2.743
98764SOL    HW298126   2.341   4.702   2.753
98765SOL     OW98127   4.740   6.219   6.101
98765SOL    HW198128   4.822   6.268   6.092
98765SOL    HW298129   4.722   6.220   6.195
98766SOL     OW98130   2.898  13.927   7.649
98766SOL    HW198131   2.803  13.929   7.655
98766SOL    HW298132   2.922  14.013   7.616
98767SOL     OW98133   3.727   7.114  10.168
98767SOL    HW198134   3.778   7.058  10.109
98767SOL    HW298135   3.789   7.138  10.237
98768SOL     OW98136   6.394   1.144   2.761
98768SOL    HW198137   6.382   1.148   2.856
98768SOL    HW298138   6.319   1.092   2.729
98769SOL     OW98139   9.617  12.302   5.432
98769SOL    HW198140   9.699  12.252   5.433
98769SOL    HW298141   9.572  12.274   5.511
98770SOL     OW98142  13.781  10.414   6.004
98770SOL    HW198143  13.865  10.428   5.961
98770SOL    HW298144  13.716  10.423   5.934
98771SOL     OW98145   0.475   2.365   0.618
98771SOL    HW198146   0.540   2.387   0.685
98771SOL    HW298147   0.392   2.365   0.665
98772SOL     OW98148  10.375   0.832   7.323
98772SOL    HW198149  10.304   0.832   7.260
98772SOL    HW298150  10.414   0.745   7.315
98773SOL     OW98151  11.805   0.930  13.638
98773SOL    HW198152  11.835   0.886  13.718
98773SOL    HW298153  11.848   1.016  13.641
98774SOL     OW98154   5.057  14.626   1.259
98774SOL    HW198155   5.063  14.550   1.201
98774SOL    HW298156   5.060  14.701   1.200
98775SOL     OW98157   0.813   4.739   1.488
98775SOL    HW198158   0.878   4.746   1.418
98775SOL    HW298159   0.822   4.820   1.537
98776SOL     OW98160   8.878   4.058   9.828
98776SOL    HW198161   8.907   4.103   9.907
98776SOL    HW298162   8.902   3.966   9.843
98777SOL     OW98163  10.592   2.511  13.127
98777SOL    HW198164  10.565   2.420  13.140
98777SOL    HW298165  10.674   2.519  13.175
98778SOL     OW98166   9.391   1.185   9.772
98778SOL    HW198167   9.425   1.116   9.830
98778SOL    HW298168   9.312   1.147   9.735
98779SOL     OW98169  12.242   6.921  11.634
98779SOL    HW198170  12.252   6.943  11.542
98779SOL    HW298171  12.179   6.849  11.634
98780SOL     OW98172  11.427  14.041   6.934
98780SOL    HW198173  11.371  14.097   6.881
98780SOL    HW298174  11.465  14.100   7.000
98781SOL     OW98175   4.589  10.648   7.203
98781SOL    HW198176   4.659  10.700   7.163
98781SOL    HW298177   4.576  10.688   7.289
98782SOL     OW98178   6.150  14.810   8.731
98782SOL    HW198179   6.088  14.860   8.783
98782SOL    HW298180   6.232  14.816   8.780
98783SOL     OW98181  14.134   1.114   0.260
98783SOL    HW198182  14.100   1.126   0.349
98783SOL    HW298183  14.139   1.019   0.250
98784SOL     OW98184   6.183   0.386   4.750
98784SOL    HW198185   6.237   0.460   4.777
98784SOL    HW298186   6.136   0.360   4.829
98785SOL     OW98187   7.027   7.790  13.469
98785SOL    HW198188   7.019   7.863  13.407
98785SOL    HW298189   7.039   7.833  13.554
98786SOL     OW98190   0.391  13.557   7.735
98786SOL    HW198191   0.366  13.505   7.659
98786SOL    HW298192   0.334  13.526   7.805
98787SOL     OW98193  11.554   0.516  12.467
98787SOL    HW198194  11.466   0.487  12.488
98787SOL    HW298195  11.565   0.597  12.517
98788SOL     OW98196   0.341  12.748   5.442
98788SOL    HW198197   0.382  12.771   5.358
98788SOL    HW298198   0.275  12.682   5.419
98789SOL     OW98199   3.144  11.382   7.603
98789SOL    HW198200   3.082  11.451   7.579
98789SOL    HW298201   3.202  11.375   7.527
98790SOL     OW98202   3.855   7.901   2.053
98790SOL    HW198203   3.914   7.933   1.985
98790SOL    HW298204   3.781   7.961   2.051
98791SOL     OW98205  13.408   9.362   0.266
98791SOL    HW198206  13.342   9.331   0.204
98791SOL    HW298207  13.488   9.370   0.214
98792SOL     OW98208   5.477  14.123   8.983
98792SOL    HW198209   5.480  14.044   9.037
98792SOL    HW298210   5.398  14.114   8.930
98793SOL     OW98211   9.657  12.385   6.899
98793SOL    HW198212   9.588  12.382   6.833
98793SOL    HW298213   9.713  12.310   6.879
98794SOL     OW98214  10.236  14.051   4.846
98794SOL    HW198215  10.272  14.002   4.773
98794SOL    HW298216  10.193  13.985   4.901
98795SOL     OW98217   6.658   9.194   3.016
98795SOL    HW198218   6.664   9.197   2.921
98795SOL    HW298219   6.748   9.210   3.047
98796SOL     OW98220   7.967   6.224  14.192
98796SOL    HW198221   7.973   6.301  14.135
98796SOL    HW298222   7.927   6.256  14.273
98797SOL     OW98223   2.139   9.559   2.017
98797SOL    HW198224   2.218   9.559   1.963
98797SOL    HW298225   2.098   9.645   2.000
98798SOL     OW98226   0.771  11.561   6.976
98798SOL    HW198227   0.764  11.488   7.038
98798SOL    HW298228   0.732  11.528   6.896
98799SOL     OW98229   7.516   7.703  10.625
98799SOL    HW198230   7.581   7.646  10.666
98799SOL    HW298231   7.493   7.659  10.543
98800SOL     OW98232   6.032   5.535   9.094
98800SOL    HW198233   6.084   5.600   9.142
98800SOL    HW298234   5.941   5.559   9.112
98801SOL     OW98235   6.223   7.888   7.102
98801SOL    HW198236   6.257   7.869   7.015
98801SOL    HW298237   6.301   7.893   7.158
98802SOL     OW98238   1.159   6.619   2.879
98802SOL    HW198239   1.252   6.595   2.876
98802SOL    HW298240   1.150   6.670   2.960
98803SOL     OW98241   8.715   3.448   5.663
98803SOL    HW198242   8.682   3.468   5.575
98803SOL    HW298243   8.710   3.532   5.710
98804SOL     OW98244   1.838   5.812  10.078
98804SOL    HW198245   1.745   5.818  10.056
98804SOL    HW298246   1.883   5.823   9.994
98805SOL     OW98247  12.284  12.738   8.703
98805SOL    HW198248  12.191  12.748   8.683
98805SOL    HW298249  12.326  12.808   8.654
98806SOL     OW98250  12.364  12.569   2.249
98806SOL    HW198251  12.445  12.603   2.286
98806SOL    HW298252  12.349  12.487   2.296
98807SOL     OW98253  12.897  12.820   7.871
98807SOL    HW198254  12.896  12.821   7.775
98807SOL    HW298255  12.950  12.896   7.895
98808SOL     OW98256  12.751   3.255   6.202
98808SOL    HW198257  12.820   3.190   6.198
98808SOL    HW298258  12.706   3.248   6.117
98809SOL     OW98259   6.929  13.944   1.974
98809SOL    HW198260   6.953  13.856   1.945
98809SOL    HW298261   7.005  13.976   2.022
98810SOL     OW98262   6.284  11.178   6.647
98810SOL    HW198263   6.293  11.082   6.655
98810SOL    HW298264   6.251  11.192   6.559
98811SOL     OW98265   1.541  13.739  13.296
98811SOL    HW198266   1.498  13.785  13.225
98811SOL    HW298267   1.552  13.805  13.365
98812SOL     OW98268  14.484  12.528   9.851
98812SOL    HW198269  14.411  12.589   9.840
98812SOL    HW298270  14.444  12.447   9.882
98813SOL     OW98271   7.671   4.752   3.887
98813SOL    HW198272   7.598   4.776   3.943
98813SOL    HW298273   7.644   4.669   3.847
98814SOL     OW98274  13.965  14.436  13.594
98814SOL    HW198275  13.909  14.502  13.636
98814SOL    HW298276  13.961  14.360  13.654
98815SOL     OW98277   3.595  13.920   4.098
98815SOL    HW198278   3.556  13.989   4.046
98815SOL    HW298279   3.525  13.855   4.109
98816SOL     OW98280  12.807   5.105   6.203
98816SOL    HW198281  12.747   5.179   6.194
98816SOL    HW298282  12.894   5.144   6.207
98817SOL     OW98283   7.777  11.546  12.930
98817SOL    HW198284   7.854  11.519  12.981
98817SOL    HW298285   7.721  11.592  12.994
98818SOL     OW98286   8.197   9.622   6.966
98818SOL    HW198287   8.177   9.528   6.964
98818SOL    HW298288   8.278   9.629   7.016
98819SOL     OW98289   9.569   3.829   2.685
98819SOL    HW198290   9.594   3.858   2.597
98819SOL    HW298291   9.651   3.804   2.727
98820SOL     OW98292  10.182  12.907  12.909
98820SOL    HW198293  10.257  12.853  12.935
98820SOL    HW298294  10.196  12.924  12.816
98821SOL     OW98295   0.398   6.004  11.752
98821SOL    HW198296   0.339   6.047  11.813
98821SOL    HW298297   0.479   5.991  11.801
98822SOL     OW98298  13.244   6.980   7.319
98822SOL    HW198299  13.190   6.949   7.392
98822SOL    HW298300  13.183   6.990   7.246
98823SOL     OW98301  10.367   6.449  14.106
98823SOL    HW198302  10.400   6.530  14.066
98823SOL    HW298303  10.325   6.479  14.187
98824SOL     OW98304   4.670   4.762   7.963
98824SOL    HW198305   4.668   4.766   8.059
98824SOL    HW298306   4.669   4.853   7.936
98825SOL     OW98307   0.415   1.388   6.259
98825SOL    HW198308   0.335   1.343   6.229
98825SOL    HW298309   0.399   1.480   6.240
98826SOL     OW98310  12.320   2.057  13.314
98826SOL    HW198311  12.232   2.019  13.311
98826SOL    HW298312  12.357   2.038  13.227
98827SOL     OW98313   8.100   1.234   4.127
98827SOL    HW198314   8.184   1.278   4.141
98827SOL    HW298315   8.107   1.199   4.038
98828SOL     OW98316   1.168  10.234   3.151
98828SOL    HW198317   1.076  10.240   3.126
98828SOL    HW298318   1.174  10.282   3.234
98829SOL     OW98319   5.568  10.441   4.190
98829SOL    HW198320   5.566  10.449   4.285
98829SOL    HW298321   5.658  10.413   4.170
98830SOL     OW98322   7.436   5.868   5.510
98830SOL    HW198323   7.494   5.934   5.549
98830SOL    HW298324   7.426   5.802   5.578
98831SOL     OW98325   0.569   4.920   1.202
98831SOL    HW198326   0.591   4.835   1.239
98831SOL    HW298327   0.588   4.912   1.108
98832SOL     OW98328   7.090   9.491   9.076
98832SOL    HW198329   7.145   9.443   9.014
98832SOL    HW298330   7.008   9.441   9.079
98833SOL     OW98331  13.851   3.320   8.990
98833SOL    HW198332  13.757   3.323   8.971
98833SOL    HW298333  13.856   3.283   9.078
98834SOL     OW98334  10.310  11.971   3.773
98834SOL    HW198335  10.305  12.029   3.698
98834SOL    HW298336  10.221  11.969   3.808
98835SOL     OW98337   1.200   7.034   5.715
98835SOL    HW198338   1.247   7.116   5.727
98835SOL    HW298339   1.228   7.002   5.629
98836SOL     OW98340   8.029   5.339   8.494
98836SOL    HW198341   7.952   5.330   8.439
98836SOL    HW298342   8.020   5.426   8.534
98837SOL     OW98343  13.284   0.519   9.551
98837SOL    HW198344  13.199   0.477   9.532
98837SOL    HW298345  13.348   0.461   9.509
98838SOL     OW98346   2.805   5.861   5.841
98838SOL    HW198347   2.730   5.813   5.877
98838SOL    HW298348   2.766   5.940   5.804
98839SOL     OW98349   7.348   6.145  10.721
98839SOL    HW198350   7.284   6.119  10.654
98839SOL    HW298351   7.349   6.072  10.782
98840SOL     OW98352  10.693   1.140   3.767
98840SOL    HW198353  10.686   1.088   3.687
98840SOL    HW298354  10.787   1.158   3.776
98841SOL     OW98355   8.075   3.448   3.204
98841SOL    HW198356   8.053   3.509   3.275
98841SOL    HW298357   8.005   3.460   3.140
98842SOL     OW98358   4.640   6.553   3.731
98842SOL    HW198359   4.626   6.621   3.797
98842SOL    HW298360   4.616   6.472   3.775
98843SOL     OW98361   5.392   8.567   1.928
98843SOL    HW198362   5.422   8.544   2.016
98843SOL    HW298363   5.468   8.607   1.887
98844SOL     OW98364  10.667  11.710   4.001
98844SOL    HW198365  10.621  11.729   4.082
98844SOL    HW298366  10.598  11.680   3.941
98845SOL     OW98367   5.109   9.692  13.697
98845SOL    HW198368   5.090   9.696  13.791
98845SOL    HW298369   5.162   9.770  13.680
98846SOL     OW98370   6.244  13.069   5.182
98846SOL    HW198371   6.207  13.108   5.262
98846SOL    HW298372   6.305  13.135   5.150
98847SOL     OW98373   6.068  10.896  10.757
98847SOL    HW198374   5.995  10.913  10.698
98847SOL    HW298375   6.137  10.956  10.729
98848SOL     OW98376   2.533  14.782  12.624
98848SOL    HW198377   2.503  14.805  12.536
98848SOL    HW298378   2.573  14.863  12.657
98849SOL     OW98379   9.351   8.900  14.262
98849SOL    HW198380   9.438   8.864  14.242
98849SOL    HW298381   9.305   8.828  14.306
98850SOL     OW98382  12.234   4.900  14.428
98850SOL    HW198383  12.309   4.869  14.480
98850SOL    HW298384  12.167   4.921  14.493
98851SOL     OW98385   3.796   8.986   7.597
98851SOL    HW198386   3.729   8.986   7.665
98851SOL    HW298387   3.787   8.902   7.554
98852SOL     OW98388   5.571  11.937   0.073
98852SOL    HW198389   5.558  11.928   0.167
98852SOL    HW298390   5.490  11.904   0.034
98853SOL     OW98391  12.263  10.356   5.758
98853SOL    HW198392  12.316  10.311   5.692
98853SOL    HW298393  12.310  10.343   5.840
98854SOL     OW98394   4.813  12.591  12.835
98854SOL    HW198395   4.835  12.498  12.829
98854SOL    HW298396   4.733  12.601  12.783
98855SOL     OW98397   1.170   8.596   3.353
98855SOL    HW198398   1.164   8.547   3.271
98855SOL    HW298399   1.265   8.604   3.368
98856SOL     OW98400  14.375   3.389   9.755
98856SOL    HW198401  14.462   3.354   9.772
98856SOL    HW298402  14.334   3.394   9.841
98857SOL     OW98403   4.693   9.767   3.537
98857SOL    HW198404   4.704   9.672   3.548
98857SOL    HW298405   4.745   9.788   3.459
98858SOL     OW98406   6.972   1.290   6.741
98858SOL    HW198407   6.988   1.251   6.655
98858SOL    HW298408   6.969   1.215   6.801
98859SOL     OW98409  10.806   4.762   2.960
98859SOL    HW198410  10.760   4.743   3.042
98859SOL    HW298411  10.756   4.833   2.920
98860SOL     OW98412  10.306  12.472   0.678
98860SOL    HW198413  10.286  12.379   0.687
98860SOL    HW298414  10.401  12.477   0.691
98861SOL     OW98415  13.969   9.353  13.746
98861SOL    HW198416  13.957   9.446  13.731
98861SOL    HW298417  14.020   9.348  13.827
98862SOL     OW98418   1.967   5.132   9.788
98862SOL    HW198419   2.037   5.194   9.807
98862SOL    HW298420   1.901   5.184   9.741
98863SOL     OW98421   8.401   8.721   3.390
98863SOL    HW198422   8.429   8.694   3.303
98863SOL    HW298423   8.356   8.805   3.377
98864SOL     OW98424   2.350   7.449   2.560
98864SOL    HW198425   2.417   7.386   2.535
98864SOL    HW298426   2.327   7.494   2.479
98865SOL     OW98427   1.096   0.198  10.198
98865SOL    HW198428   1.111   0.156  10.282
98865SOL    HW298429   1.154   0.274  10.199
98866SOL     OW98430  10.103  11.307   8.338
98866SOL    HW198431  10.195  11.281   8.352
98866SOL    HW298432  10.105  11.403   8.338
98867SOL     OW98433  11.983  11.237  13.306
98867SOL    HW198434  12.069  11.224  13.346
98867SOL    HW298435  11.921  11.226  13.378
98868SOL     OW98436   5.874   0.617   5.978
98868SOL    HW198437   5.817   0.549   6.014
98868SOL    HW298438   5.824   0.698   5.988
98869SOL     OW98439   3.192   2.793   8.503
98869SOL    HW198440   3.280   2.792   8.464
98869SOL    HW298441   3.201   2.742   8.583
98870SOL     OW98442  13.471  14.423  14.840
98870SOL    HW198443  13.382  14.409  14.873
98870SOL    HW298444  13.494  14.511  14.872
98871SOL     OW98445   0.536  14.276   9.955
98871SOL    HW198446   0.457  14.242   9.912
98871SOL    HW298447   0.503  14.347  10.010
98872SOL     OW98448   9.185   3.234   5.617
98872SOL    HW198449   9.168   3.140   5.615
98872SOL    HW298450   9.100   3.274   5.632
98873SOL     OW98451   9.119   5.235   7.515
98873SOL    HW198452   9.061   5.216   7.589
98873SOL    HW298453   9.206   5.247   7.554
98874SOL     OW98454   0.168  13.770   9.363
98874SOL    HW198455   0.079  13.788   9.333
98874SOL    HW298456   0.160  13.757   9.457
98875SOL     OW98457   4.721   9.373   1.965
98875SOL    HW198458   4.706   9.424   2.045
98875SOL    HW298459   4.780   9.303   1.992
98876SOL     OW98460  10.723   4.141  11.698
98876SOL    HW198461  10.744   4.158  11.606
98876SOL    HW298462  10.684   4.223  11.729
98877SOL     OW98463   4.338   5.518   6.670
98877SOL    HW198464   4.423   5.490   6.635
98877SOL    HW298465   4.360   5.573   6.745
98878SOL     OW98466   2.765  11.124   1.087
98878SOL    HW198467   2.766  11.067   1.010
98878SOL    HW298468   2.846  11.175   1.080
98879SOL     OW98469   6.674  11.192  10.890
98879SOL    HW198470   6.651  11.261  10.827
98879SOL    HW298471   6.616  11.207  10.964
98880SOL     OW98472  10.432   4.764   9.080
98880SOL    HW198473  10.367   4.795   9.017
98880SOL    HW298474  10.456   4.842   9.130
98881SOL     OW98475   7.924   9.366   6.227
98881SOL    HW198476   8.013   9.332   6.218
98881SOL    HW298477   7.889   9.322   6.305
98882SOL     OW98478   6.272   1.523   5.948
98882SOL    HW198479   6.202   1.582   5.920
98882SOL    HW298480   6.238   1.436   5.931
98883SOL     OW98481  13.459   3.416   1.139
98883SOL    HW198482  13.516   3.490   1.158
98883SOL    HW298483  13.464   3.361   1.217
98884SOL     OW98484   6.425   0.096   3.443
98884SOL    HW198485   6.355   0.063   3.386
98884SOL    HW298486   6.460   0.172   3.396
98885SOL     OW98487  13.561   4.982   0.757
98885SOL    HW198488  13.611   4.935   0.824
98885SOL    HW298489  13.469   4.963   0.779
98886SOL     OW98490  10.602   5.628   2.288
98886SOL    HW198491  10.598   5.534   2.266
98886SOL    HW298492  10.521   5.645   2.335
98887SOL     OW98493   9.747   7.612   6.826
98887SOL    HW198494   9.732   7.584   6.736
98887SOL    HW298495   9.679   7.676   6.843
98888SOL     OW98496   6.825   4.810  14.856
98888SOL    HW198497   6.732   4.831  14.872
98888SOL    HW298498   6.873   4.883   0.015
98889SOL     OW98499  11.762   1.488  13.077
98889SOL    HW198500  11.764   1.541  12.997
98889SOL    HW298501  11.700   1.418  13.058
98890SOL     OW98502   9.535   9.948   8.434
98890SOL    HW198503   9.624   9.934   8.401
98890SOL    HW298504   9.526   9.884   8.505
98891SOL     OW98505   8.411   1.190  12.387
98891SOL    HW198506   8.502   1.160  12.376
98891SOL    HW298507   8.363   1.111  12.412
98892SOL     OW98508   4.920   8.877   3.312
98892SOL    HW198509   4.873   8.796   3.295
98892SOL    HW298510   4.966   8.896   3.230
98893SOL     OW98511  12.822  10.471   6.363
98893SOL    HW198512  12.791  10.439   6.278
98893SOL    HW298513  12.755  10.534   6.391
98894SOL     OW98514  12.567   9.057   4.217
98894SOL    HW198515  12.572   9.091   4.128
98894SOL    HW298516  12.658   9.044   4.243
98895SOL     OW98517   9.330   0.230   2.214
98895SOL    HW198518   9.312   0.293   2.284
98895SOL    HW298519   9.303   0.146   2.250
98896SOL     OW98520   2.101   0.294   4.036
98896SOL    HW198521   2.082   0.298   4.130
98896SOL    HW298522   2.141   0.378   4.016
98897SOL     OW98523   1.020   0.671   0.349
98897SOL    HW198524   1.032   0.637   0.437
98897SOL    HW298525   0.957   0.611   0.308
98898SOL     OW98526   8.608   4.720   1.161
98898SOL    HW198527   8.554   4.746   1.087
98898SOL    HW298528   8.697   4.742   1.135
98899SOL     OW98529   9.546   3.520   6.318
98899SOL    HW198530   9.609   3.485   6.255
98899SOL    HW298531   9.586   3.602   6.348
98900SOL     OW98532   8.440   4.469   5.469
98900SOL    HW198533   8.509   4.419   5.512
98900SOL    HW298534   8.396   4.516   5.540
98901SOL     OW98535   0.262  13.659  11.867
98901SOL    HW198536   0.283  13.593  11.933
98901SOL    HW298537   0.171  13.682  11.884
98902SOL     OW98538   7.660  10.140   7.907
98902SOL    HW198539   7.572  10.112   7.930
98902SOL    HW298540   7.648  10.195   7.830
98903SOL     OW98541  14.643  13.141   0.264
98903SOL    HW198542  14.656  13.056   0.220
98903SOL    HW298543  14.617  13.200   0.193
98904SOL     OW98544   2.494   6.956   6.426
98904SOL    HW198545   2.568   6.902   6.400
98904SOL    HW298546   2.447   6.973   6.344
98905SOL     OW98547   5.901   0.205   1.342
98905SOL    HW198548   5.910   0.204   1.437
98905SOL    HW298549   5.965   0.141   1.312
98906SOL     OW98550   7.180   9.170   6.766
98906SOL    HW198551   7.240   9.240   6.739
98906SOL    HW298552   7.166   9.186   6.860
98907SOL     OW98553   2.535  11.731   1.147
98907SOL    HW198554   2.578  11.650   1.177
98907SOL    HW298555   2.503  11.710   1.059
98908SOL     OW98556   7.891   8.843   4.138
98908SOL    HW198557   7.916   8.918   4.191
98908SOL    HW298558   7.937   8.769   4.179
98909SOL     OW98559  14.254   3.347   8.515
98909SOL    HW198560  14.210   3.432   8.512
98909SOL    HW298561  14.183   3.283   8.519
98910SOL     OW98562  11.138   5.850  13.923
98910SOL    HW198563  11.046   5.830  13.942
98910SOL    HW298564  11.159   5.923  13.980
98911SOL     OW98565   7.630   0.408  14.688
98911SOL    HW198566   7.590   0.420  14.602
98911SOL    HW298567   7.570   0.352  14.736
98912SOL     OW98568  11.694  14.435   6.135
98912SOL    HW198569  11.624  14.477   6.085
98912SOL    HW298570  11.734  14.375   6.072
98913SOL     OW98571  11.157  12.505   7.828
98913SOL    HW198572  11.211  12.526   7.751
98913SOL    HW298573  11.216  12.457   7.886
98914SOL     OW98574   5.306   6.184  14.780
98914SOL    HW198575   5.399   6.163  14.768
98914SOL    HW298576   5.261   6.123  14.721
98915SOL     OW98577   2.655   8.649   1.114
98915SOL    HW198578   2.644   8.743   1.100
98915SOL    HW298579   2.684   8.615   1.029
98916SOL     OW98580   7.898   8.526  13.955
98916SOL    HW198581   7.855   8.470  13.891
98916SOL    HW298582   7.914   8.608  13.909
98917SOL     OW98583   7.778  11.409   2.656
98917SOL    HW198584   7.747  11.364   2.735
98917SOL    HW298585   7.869  11.430   2.676
98918SOL     OW98586   6.587   3.731   0.017
98918SOL    HW198587   6.543   3.815   0.022
98918SOL    HW298588   6.607   3.719  14.803
98919SOL     OW98589   6.274   4.622  13.294
98919SOL    HW198590   6.269   4.681  13.219
98919SOL    HW298591   6.183   4.597  13.311
98920SOL     OW98592  12.313   4.829   5.216
98920SOL    HW198593  12.324   4.920   5.186
98920SOL    HW298594  12.360   4.826   5.299
98921SOL     OW98595   1.909   7.146   0.287
98921SOL    HW198596   1.883   7.091   0.361
98921SOL    HW298597   1.826   7.176   0.249
98922SOL     OW98598   4.743   4.192   2.874
98922SOL    HW198599   4.825   4.235   2.851
98922SOL    HW298600   4.761   4.099   2.867
98923SOL     OW98601   7.701   1.490  12.453
98923SOL    HW198602   7.714   1.431  12.528
98923SOL    HW298603   7.608   1.482  12.432
98924SOL     OW98604   4.167   2.156  10.601
98924SOL    HW198605   4.242   2.128  10.548
98924SOL    HW298606   4.206   2.203  10.674
98925SOL     OW98607   0.186   9.569   8.476
98925SOL    HW198608   0.244   9.644   8.492
98925SOL    HW298609   0.133   9.562   8.555
98926SOL     OW98610   8.972   3.001  12.884
98926SOL    HW198611   8.978   2.930  12.949
98926SOL    HW298612   9.011   2.964  12.805
98927SOL     OW98613   2.545  13.906   0.653
98927SOL    HW198614   2.559  13.924   0.560
98927SOL    HW298615   2.454  13.931   0.669
98928SOL     OW98616   8.256   6.538   9.912
98928SOL    HW198617   8.223   6.463   9.862
98928SOL    HW298618   8.264   6.505  10.002
98929SOL     OW98619  13.280   4.112  10.831
98929SOL    HW198620  13.242   4.030  10.799
98929SOL    HW298621  13.231   4.132  10.911
98930SOL     OW98622   5.882   9.942  14.622
98930SOL    HW198623   5.960   9.945  14.567
98930SOL    HW298624   5.810   9.924  14.561
98931SOL     OW98625   4.105  12.587  11.393
98931SOL    HW198626   4.131  12.523  11.459
98931SOL    HW298627   4.093  12.669  11.441
98932SOL     OW98628   0.225   0.229  12.995
98932SOL    HW198629   0.165   0.295  13.029
98932SOL    HW298630   0.180   0.192  12.919
98933SOL     OW98631  14.023  14.745   4.494
98933SOL    HW198632  13.960  14.694   4.544
98933SOL    HW298633  14.071  14.795   4.560
98934SOL     OW98634  14.219   0.356   0.220
98934SOL    HW198635  14.155   0.293   0.254
98934SOL    HW298636  14.286   0.301   0.179
98935SOL     OW98637  10.262   5.405  12.393
98935SOL    HW198638  10.197   5.423  12.460
98935SOL    HW298639  10.214   5.359  12.324
98936SOL     OW98640   7.444   6.071   5.945
98936SOL    HW198641   7.530   6.083   5.903
98936SOL    HW298642   7.455   5.993   5.999
98937SOL     OW98643   5.998  13.009   0.968
98937SOL    HW198644   6.088  12.979   0.954
98937SOL    HW298645   6.007  13.100   0.995
98938SOL     OW98646   5.607   6.708  12.991
98938SOL    HW198647   5.602   6.792  12.945
98938SOL    HW298648   5.518   6.694  13.023
98939SOL     OW98649   0.163   6.684  14.653
98939SOL    HW198650   0.107   6.708  14.727
98939SOL    HW298651   0.147   6.753  14.588
98940SOL     OW98652   5.408   4.387  12.238
98940SOL    HW198653   5.321   4.347  12.242
98940SOL    HW298654   5.447   4.370  12.324
98941SOL     OW98655   9.144   0.169  13.548
98941SOL    HW198656   9.124   0.173  13.455
98941SOL    HW298657   9.078   0.224  13.590
98942SOL     OW98658  12.086  10.545  13.307
98942SOL    HW198659  12.036  10.466  13.289
98942SOL    HW298660  12.044  10.584  13.384
98943SOL     OW98661   8.507   9.325  13.344
98943SOL    HW198662   8.476   9.242  13.380
98943SOL    HW298663   8.577   9.352  13.403
98944SOL     OW98664  11.448  10.034   5.418
98944SOL    HW198665  11.464   9.941   5.429
98944SOL    HW298666  11.396  10.059   5.495
98945SOL     OW98667   3.457  11.189   8.715
98945SOL    HW198668   3.529  11.125   8.714
98945SOL    HW298669   3.390  11.148   8.769
98946SOL     OW98670   8.405  14.783   1.629
98946SOL    HW198671   8.459  14.854   1.594
98946SOL    HW298672   8.398  14.803   1.723
98947SOL     OW98673   5.639   2.434  12.110
98947SOL    HW198674   5.646   2.528  12.092
98947SOL    HW298675   5.687   2.392  12.039
98948SOL     OW98676  10.377   2.354   4.426
98948SOL    HW198677  10.472   2.365   4.433
98948SOL    HW298678  10.364   2.308   4.343
98949SOL     OW98679  14.094   7.428  13.216
98949SOL    HW198680  14.149   7.461  13.287
98949SOL    HW298681  14.154   7.381  13.159
98950SOL     OW98682  10.442  10.211   9.374
98950SOL    HW198683  10.432  10.139   9.312
98950SOL    HW298684  10.376  10.194   9.442
98951SOL     OW98685  14.444   0.803  11.132
98951SOL    HW198686  14.508   0.741  11.168
98951SOL    HW298687  14.479   0.889  11.157
98952SOL     OW98688  13.315  11.488  14.183
98952SOL    HW198689  13.344  11.553  14.119
98952SOL    HW298690  13.366  11.506  14.261
98953SOL     OW98691   7.261  13.860  14.485
98953SOL    HW198692   7.333  13.897  14.434
98953SOL    HW298693   7.302  13.795  14.541
98954SOL     OW98694  13.490   6.748   2.288
98954SOL    HW198695  13.478   6.833   2.245
98954SOL    HW298696  13.492   6.768   2.381
98955SOL     OW98697  13.133   2.282   1.610
98955SOL    HW198698  13.159   2.246   1.526
98955SOL    HW298699  13.216   2.298   1.656
98956SOL     OW98700   5.713  13.314  12.689
98956SOL    HW198701   5.741  13.265  12.766
98956SOL    HW298702   5.620  13.292  12.680
98957SOL     OW98703   5.823   6.108   2.281
98957SOL    HW198704   5.826   6.012   2.291
98957SOL    HW298705   5.800   6.140   2.368
98958SOL     OW98706  10.520  10.912   3.978
98958SOL    HW198707  10.571  10.835   4.005
98958SOL    HW298708  10.517  10.967   4.056
98959SOL     OW98709  12.106   1.036  11.287
98959SOL    HW198710  12.028   1.010  11.336
98959SOL    HW298711  12.078   1.039  11.196
98960SOL     OW98712   4.804  12.854   4.411
98960SOL    HW198713   4.832  12.904   4.334
98960SOL    HW298714   4.883  12.810   4.441
98961SOL     OW98715  14.326   3.115   4.558
98961SOL    HW198716  14.408   3.120   4.606
98961SOL    HW298717  14.260   3.145   4.620
98962SOL     OW98718   9.114   4.476  12.453
98962SOL    HW198719   9.175   4.524  12.397
98962SOL    HW298720   9.125   4.384  12.428
98963SOL     OW98721   6.646  12.248   9.298
98963SOL    HW198722   6.717  12.312   9.290
98963SOL    HW298723   6.616  12.256   9.388
98964SOL     OW98724   3.874  12.233  14.044
98964SOL    HW198725   3.810  12.304  14.039
98964SOL    HW298726   3.840  12.174  14.111
98965SOL     OW98727   2.078  14.607   3.465
98965SOL    HW198728   2.100  14.606   3.558
98965SOL    HW298729   2.070  14.700   3.444
98966SOL     OW98730  11.677   3.966   8.088
98966SOL    HW198731  11.640   3.919   8.013
98966SOL    HW298732  11.757   3.917   8.110
98967SOL     OW98733  12.282   1.195   0.006
98967SOL    HW198734  12.293   1.256   0.079
98967SOL    HW298735  12.187   1.183  14.878
98968SOL     OW98736  14.594   0.550   6.971
98968SOL    HW198737  14.557   0.623   6.921
98968SOL    HW298738  14.646   0.592   7.039
98969SOL     OW98739   1.483  11.036   7.295
98969SOL    HW198740   1.440  11.101   7.349
98969SOL    HW298741   1.477  10.955   7.345
98970SOL     OW98742   5.827  13.654  10.668
98970SOL    HW198743   5.751  13.635  10.612
98970SOL    HW298744   5.804  13.734  10.714
98971SOL     OW98745   0.933  12.722  14.427
98971SOL    HW198746   1.002  12.691  14.486
98971SOL    HW298747   0.912  12.810  14.458
98972SOL     OW98748   7.237   1.858   2.577
98972SOL    HW198749   7.240   1.842   2.672
98972SOL    HW298750   7.297   1.793   2.540
98973SOL     OW98751   6.712   4.107   5.460
98973SOL    HW198752   6.663   4.062   5.391
98973SOL    HW298753   6.697   4.200   5.444
98974SOL     OW98754   7.379   5.395   4.398
98974SOL    HW198755   7.346   5.465   4.341
98974SOL    HW298756   7.370   5.315   4.345
98975SOL     OW98757  13.919   0.280   9.675
98975SOL    HW198758  14.000   0.313   9.637
98975SOL    HW298759  13.850   0.318   9.620
98976SOL     OW98760   8.082   0.031  14.151
98976SOL    HW198761   8.062   0.113  14.104
98976SOL    HW298762   8.166   0.048  14.193
98977SOL     OW98763   5.864   6.140   8.234
98977SOL    HW198764   5.951   6.146   8.273
98977SOL    HW298765   5.874   6.077   8.163
98978SOL     OW98766   9.158   6.150  14.659
98978SOL    HW198767   9.177   6.148  14.753
98978SOL    HW298768   9.188   6.236  14.631
98979SOL     OW98769   6.158  10.729   2.193
98979SOL    HW198770   6.105  10.649   2.185
98979SOL    HW298771   6.247  10.697   2.204
98980SOL     OW98772   9.881   2.467   9.822
98980SOL    HW198773   9.971   2.498   9.819
98980SOL    HW298774   9.832   2.531   9.769
98981SOL     OW98775  10.843   8.686  10.250
98981SOL    HW198776  10.765   8.645  10.286
98981SOL    HW298777  10.880   8.735  10.324
98982SOL     OW98778   3.380   3.213   9.959
98982SOL    HW198779   3.457   3.246  10.004
98982SOL    HW298780   3.389   3.118   9.964
98983SOL     OW98781  13.575  10.446   8.829
98983SOL    HW198782  13.500  10.387   8.831
98983SOL    HW298783  13.599  10.453   8.737
98984SOL     OW98784  10.739   3.241   6.016
98984SOL    HW198785  10.666   3.247   5.955
98984SOL    HW298786  10.701   3.261   6.101
98985SOL     OW98787   3.443  10.121   3.211
98985SOL    HW198788   3.393  10.043   3.185
98985SOL    HW298789   3.462  10.166   3.129
98986SOL     OW98790   8.235  12.695   0.500
98986SOL    HW198791   8.160  12.751   0.519
98986SOL    HW298792   8.305  12.730   0.556
98987SOL     OW98793  11.790   4.474   4.167
98987SOL    HW198794  11.707   4.499   4.126
98987SOL    HW298795  11.764   4.411   4.234
98988SOL     OW98796   2.540  13.550   1.586
98988SOL    HW198797   2.453  13.583   1.610
98988SOL    HW298798   2.526  13.507   1.502
98989SOL     OW98799   2.211   3.577   5.670
98989SOL    HW198800   2.125   3.617   5.657
98989SOL    HW298801   2.207   3.539   5.758
98990SOL     OW98802  10.873  11.423   2.126
98990SOL    HW198803  10.821  11.439   2.205
98990SOL    HW298804  10.875  11.507   2.081
98991SOL     OW98805  10.109   0.796  12.657
98991SOL    HW198806  10.181   0.793  12.595
98991SOL    HW298807  10.046   0.857  12.619
98992SOL     OW98808  13.692   7.375   6.724
98992SOL    HW198809  13.604   7.395   6.692
98992SOL    HW298810  13.748   7.442   6.685
98993SOL     OW98811  10.043   2.595  12.432
98993SOL    HW198812  10.121   2.546  12.408
98993SOL    HW298813  10.009   2.630  12.349
98994SOL     OW98814   9.113   3.437   4.474
98994SOL    HW198815   9.140   3.500   4.407
98994SOL    HW298816   9.173   3.452   4.547
98995SOL     OW98817   2.735   3.393   5.239
98995SOL    HW198818   2.760   3.365   5.327
98995SOL    HW298819   2.643   3.420   5.247
98996SOL     OW98820  11.491   0.467   4.474
98996SOL    HW198821  11.449   0.382   4.487
98996SOL    HW298822  11.557   0.451   4.407
98997SOL     OW98823  13.863   6.621   5.873
98997SOL    HW198824  13.916   6.694   5.844
98997SOL    HW298825  13.798   6.659   5.932
98998SOL     OW98826   5.489  10.767  12.477
98998SOL    HW198827   5.518  10.747  12.566
98998SOL    HW298828   5.454  10.684  12.444
98999SOL     OW98829   3.650   3.487   7.618
98999SOL    HW198830   3.734   3.515   7.581
98999SOL    HW298831   3.673   3.439   7.697
99000SOL     OW98832   0.785   6.918   5.029
99000SOL    HW198833   0.707   6.880   5.070
99000SOL    HW298834   0.770   7.012   5.030
99001SOL     OW98835   5.309  12.973   9.458
99001SOL    HW198836   5.381  13.033   9.474
99001SOL    HW298837   5.266  13.007   9.379
99002SOL     OW98838   1.409   1.597   8.666
99002SOL    HW198839   1.384   1.650   8.742
99002SOL    HW298840   1.436   1.660   8.600
99003SOL     OW98841   1.470  10.930   6.059
99003SOL    HW198842   1.455  10.836   6.066
99003SOL    HW298843   1.391  10.969   6.097
99004SOL     OW98844  13.231   8.704   1.591
99004SOL    HW198845  13.303   8.767   1.590
99004SOL    HW298846  13.274   8.619   1.577
99005SOL     OW98847   4.823   7.425  13.797
99005SOL    HW198848   4.832   7.363  13.726
99005SOL    HW298849   4.899   7.483  13.789
99006SOL     OW98850   0.656   3.881   9.882
99006SOL    HW198851   0.650   3.920   9.969
99006SOL    HW298852   0.587   3.815   9.880
99007SOL     OW98853  10.152   8.610   4.159
99007SOL    HW198854  10.181   8.668   4.230
99007SOL    HW298855  10.086   8.554   4.200
99008SOL     OW98856   0.040  14.191   0.138
99008SOL    HW198857   0.096  14.254   0.182
99008SOL    HW298858   0.098  14.118   0.116
99009SOL     OW98859  11.242  11.187  11.615
99009SOL    HW198860  11.274  11.129  11.684
99009SOL    HW298861  11.168  11.141  11.576
99010SOL     OW98862  10.239   5.997   6.866
99010SOL    HW198863  10.265   5.996   6.773
99010SOL    HW298864  10.242   5.905   6.892
99011SOL     OW98865   0.344  11.257  11.956
99011SOL    HW198866   0.275  11.196  11.981
99011SOL    HW298867   0.300  11.325  11.905
99012SOL     OW98868   1.611   9.384   7.778
99012SOL    HW198869   1.684   9.426   7.734
99012SOL    HW298870   1.615   9.292   7.749
99013SOL     OW98871   7.884   5.629   3.297
99013SOL    HW198872   7.796   5.666   3.291
99013SOL    HW298873   7.911   5.646   3.387
99014SOL     OW98874  10.449  14.326   2.507
99014SOL    HW198875  10.532  14.367   2.534
99014SOL    HW298876  10.409  14.390   2.448
99015SOL     OW98877   6.950   8.135   5.255
99015SOL    HW198878   6.905   8.055   5.228
99015SOL    HW298879   7.022   8.145   5.193
99016SOL     OW98880   6.090  14.286   7.483
99016SOL    HW198881   6.177  14.296   7.444
99016SOL    HW298882   6.044  14.365   7.458
99017SOL     OW98883  14.498  12.957  14.438
99017SOL    HW198884  14.461  13.023  14.379
99017SOL    HW298885  14.578  12.928  14.394
99018SOL     OW98886  13.354   1.416  13.182
99018SOL    HW198887  13.445   1.403  13.207
99018SOL    HW298888  13.335   1.344  13.122
99019SOL     OW98889   2.179  10.127   7.666
99019SOL    HW198890   2.213  10.042   7.637
99019SOL    HW298891   2.249  10.189   7.644
99020SOL     OW98892   6.919  10.436   2.643
99020SOL    HW198893   6.915  10.450   2.737
99020SOL    HW298894   6.907  10.342   2.631
99021SOL     OW98895   6.460  12.126  11.786
99021SOL    HW198896   6.413  12.085  11.858
99021SOL    HW298897   6.548  12.141  11.821
99022SOL     OW98898   5.608   1.417   7.172
99022SOL    HW198899   5.515   1.419   7.152
99022SOL    HW298900   5.632   1.509   7.184
99023SOL     OW98901   4.307  12.048  13.763
99023SOL    HW198902   4.232  12.100  13.791
99023SOL    HW298903   4.278  11.957  13.772
99024SOL     OW98904   0.640  11.205   5.289
99024SOL    HW198905   0.720  11.249   5.261
99024SOL    HW298906   0.640  11.215   5.384
99025SOL     OW98907   9.042   1.637   9.672
99025SOL    HW198908   9.112   1.692   9.639
99025SOL    HW298909   9.074   1.607   9.757
99026SOL     OW98910  14.023  12.250   0.521
99026SOL    HW198911  14.037  12.178   0.582
99026SOL    HW298912  13.997  12.206   0.439
99027SOL     OW98913   5.819  13.868   5.960
99027SOL    HW198914   5.901  13.904   5.993
99027SOL    HW298915   5.756  13.940   5.969
99028SOL     OW98916   6.533  11.855  12.052
99028SOL    HW198917   6.515  11.764  12.075
99028SOL    HW298918   6.624  11.854  12.022
99029SOL     OW98919  14.471   7.479   7.675
99029SOL    HW198920  14.417   7.477   7.754
99029SOL    HW298921  14.525   7.558   7.684
99030SOL     OW98922   1.879   1.197   6.928
99030SOL    HW198923   1.939   1.265   6.957
99030SOL    HW298924   1.932   1.117   6.926
99031SOL     OW98925   6.109   7.174  11.171
99031SOL    HW198926   6.120   7.189  11.265
99031SOL    HW298927   6.149   7.250  11.130
99032SOL     OW98928   1.049  11.315   6.878
99032SOL    HW198929   0.991  11.268   6.939
99032SOL    HW298930   1.090  11.245   6.827
99033SOL     OW98931   1.089  10.571   8.665
99033SOL    HW198932   1.069  10.555   8.573
99033SOL    HW298933   1.021  10.632   8.694
99034SOL     OW98934   8.901  11.054   1.641
99034SOL    HW198935   8.815  11.078   1.605
99034SOL    HW298936   8.894  11.075   1.734
99035SOL     OW98937   4.990  12.378  10.587
99035SOL    HW198938   4.949  12.362  10.502
99035SOL    HW298939   5.051  12.305  10.597
99036SOL     OW98940   8.981   8.202   0.452
99036SOL    HW198941   9.031   8.138   0.400
99036SOL    HW298942   8.948   8.152   0.526
99037SOL     OW98943   9.866  11.097  14.102
99037SOL    HW198944   9.902  11.032  14.163
99037SOL    HW298945   9.871  11.180  14.149
99038SOL     OW98946   1.786  14.017   3.562
99038SOL    HW198947   1.836  14.039   3.484
99038SOL    HW298948   1.721  13.953   3.532
99039SOL     OW98949   2.910   9.303   2.937
99039SOL    HW198950   2.934   9.369   3.002
99039SOL    HW298951   2.837   9.255   2.977
99040SOL     OW98952   6.340  12.460  12.769
99040SOL    HW198953   6.404  12.439  12.701
99040SOL    HW298954   6.310  12.375  12.802
99041SOL     OW98955   2.054   8.920  10.824
99041SOL    HW198956   2.007   8.940  10.743
99041SOL    HW298957   1.999   8.958  10.893
99042SOL     OW98958   5.232   3.634   7.434
99042SOL    HW198959   5.214   3.565   7.371
99042SOL    HW298960   5.325   3.624   7.456
99043SOL     OW98961  10.120   4.268   3.264
99043SOL    HW198962  10.204   4.313   3.254
99043SOL    HW298963  10.092   4.249   3.174
99044SOL     OW98964   0.184   9.414   9.250
99044SOL    HW198965   0.265   9.443   9.208
99044SOL    HW298966   0.136   9.495   9.269
99045SOL     OW98967  13.677   1.824  10.751
99045SOL    HW198968  13.752   1.859  10.704
99045SOL    HW298969  13.601   1.862  10.707
99046SOL     OW98970   9.116   7.112   2.347
99046SOL    HW198971   9.122   7.098   2.441
99046SOL    HW298972   9.193   7.163   2.325
99047SOL     OW98973   3.784  10.939  12.617
99047SOL    HW198974   3.864  10.978  12.583
99047SOL    HW298975   3.742  10.900  12.540
99048SOL     OW98976   2.881  14.403   7.195
99048SOL    HW198977   2.904  14.333   7.134
99048SOL    HW298978   2.916  14.375   7.279
99049SOL     OW98979   4.229   0.406   8.591
99049SOL    HW198980   4.172   0.359   8.531
99049SOL    HW298981   4.207   0.371   8.677
99050SOL     OW98982   4.001   3.874   4.194
99050SOL    HW198983   3.969   3.784   4.195
99050SOL    HW298984   3.924   3.928   4.178
99051SOL     OW98985  14.766  11.383  11.764
99051SOL    HW198986  14.820  11.434  11.704
99051SOL    HW298987  14.762  11.435  11.844
99052SOL     OW98988   3.293  10.446   5.885
99052SOL    HW198989   3.311  10.539   5.869
99052SOL    HW298990   3.233  10.420   5.815
99053SOL     OW98991   3.553   7.839   6.876
99053SOL    HW198992   3.472   7.850   6.925
99053SOL    HW298993   3.582   7.929   6.858
99054SOL     OW98994   3.876   4.563  10.537
99054SOL    HW198995   3.928   4.519  10.604
99054SOL    HW298996   3.865   4.497  10.468
99055SOL     OW98997   2.331  12.196   0.790
99055SOL    HW198998   2.424  12.214   0.809
99055SOL    HW298999   2.334  12.130   0.720
99056SOL     OW99000   6.802   3.612  11.441
99056SOL    HW199001   6.884   3.568  11.417
99056SOL    HW299002   6.737   3.575  11.381
99057SOL     OW99003   3.846  11.629   7.793
99057SOL    HW199004   3.762  11.662   7.763
99057SOL    HW299005   3.889  11.598   7.714
99058SOL     OW99006   3.582  12.414   9.135
99058SOL    HW199007   3.618  12.496   9.101
99058SOL    HW299008   3.499  12.403   9.089
99059SOL     OW99009   7.696  10.770  12.816
99059SOL    HW199010   7.770  10.743  12.761
99059SOL    HW299011   7.727  10.761  12.906
99060SOL     OW99012   4.430   2.369   6.571
99060SOL    HW199013   4.437   2.456   6.532
99060SOL    HW299014   4.490   2.371   6.645
99061SOL     OW99015   6.584  10.009   3.752
99061SOL    HW199016   6.509   9.978   3.703
99061SOL    HW299017   6.648  10.036   3.686
99062SOL     OW99018   5.108   5.672   5.739
99062SOL    HW199019   5.034   5.691   5.797
99062SOL    HW299020   5.073   5.686   5.651
99063SOL     OW99021   6.996  11.931   3.373
99063SOL    HW199022   6.939  11.998   3.336
99063SOL    HW299023   6.959  11.912   3.459
99064SOL     OW99024   0.570  14.115   1.020
99064SOL    HW199025   0.479  14.130   0.991
99064SOL    HW299026   0.577  14.019   1.025
99065SOL     OW99027  14.753   8.536  12.551
99065SOL    HW199028  14.699   8.605  12.590
99065SOL    HW299029  14.843   8.559  12.575
99066SOL     OW99030   3.384  12.622  13.476
99066SOL    HW199031   3.455  12.672  13.436
99066SOL    HW299032   3.304  12.661  13.441
99067SOL     OW99033   3.438   8.424   5.355
99067SOL    HW199034   3.418   8.360   5.423
99067SOL    HW299035   3.374   8.408   5.287
99068SOL     OW99036   4.513   9.725   5.751
99068SOL    HW199037   4.432   9.681   5.727
99068SOL    HW299038   4.578   9.654   5.756
99069SOL     OW99039   3.521   3.892   4.135
99069SOL    HW199040   3.463   3.962   4.106
99069SOL    HW299041   3.596   3.937   4.173
99070SOL     OW99042   0.840   9.963  14.265
99070SOL    HW199043   0.795   9.938  14.346
99070SOL    HW299044   0.928   9.927  14.274
99071SOL     OW99045   3.350   6.867   4.159
99071SOL    HW199046   3.302   6.870   4.076
99071SOL    HW299047   3.384   6.956   4.170
99072SOL     OW99048  10.372   7.288   3.163
99072SOL    HW199049  10.408   7.357   3.219
99072SOL    HW299050  10.437   7.279   3.092
99073SOL     OW99051  13.198  10.202  14.022
99073SOL    HW199052  13.271  10.263  14.031
99073SOL    HW299053  13.229  10.136  13.961
99074SOL     OW99054   0.616   5.171   6.067
99074SOL    HW199055   0.708   5.190   6.049
99074SOL    HW299056   0.577   5.158   5.980
99075SOL     OW99057   7.456  10.786   9.621
99075SOL    HW199058   7.427  10.813   9.708
99075SOL    HW299059   7.407  10.706   9.603
99076SOL     OW99060   0.282  12.877   6.783
99076SOL    HW199061   0.324  12.820   6.719
99076SOL    HW299062   0.344  12.882   6.856
99077SOL     OW99063   8.794   9.886   1.507
99077SOL    HW199064   8.807   9.906   1.415
99077SOL    HW299065   8.881   9.862   1.539
99078SOL     OW99066   7.938   3.753  10.414
99078SOL    HW199067   7.988   3.817  10.465
99078SOL    HW299068   7.890   3.703  10.480
99079SOL     OW99069   4.507   5.246  10.670
99079SOL    HW199070   4.474   5.328  10.634
99079SOL    HW299071   4.601   5.258  10.676
99080SOL     OW99072  12.900  11.900   2.208
99080SOL    HW199073  12.988  11.902   2.170
99080SOL    HW299074  12.909  11.843   2.285
99081SOL     OW99075   7.814   0.727   2.275
99081SOL    HW199076   7.817   0.817   2.310
99081SOL    HW299077   7.899   0.716   2.232
99082SOL     OW99078  13.885  10.358   7.931
99082SOL    HW199079  13.801  10.399   7.950
99082SOL    HW299080  13.948  10.429   7.933
99083SOL     OW99081   0.297   5.492   2.389
99083SOL    HW199082   0.375   5.445   2.417
99083SOL    HW299083   0.330   5.572   2.348
99084SOL     OW99084  11.523  13.174   3.677
99084SOL    HW199085  11.539  13.122   3.599
99084SOL    HW299086  11.435  13.209   3.665
99085SOL     OW99087   6.436  10.790  11.938
99085SOL    HW199088   6.391  10.792  12.022
99085SOL    HW299089   6.474  10.703  11.933
99086SOL     OW99090   6.402   3.071   0.122
99086SOL    HW199091   6.412   3.166   0.117
99086SOL    HW299092   6.489   3.037   0.098
99087SOL     OW99093   9.823   5.087   0.400
99087SOL    HW199094   9.871   5.116   0.478
99087SOL    HW299095   9.831   5.161   0.339
99088SOL     OW99096   1.450  14.377  14.543
99088SOL    HW199097   1.403  14.404  14.464
99088SOL    HW299098   1.387  14.324  14.592
99089SOL     OW99099  10.561  14.000   7.618
99089SOL    HW199100  10.541  13.906   7.615
99089SOL    HW299101  10.480  14.041   7.647
99090SOL     OW99102  10.551  11.669   4.231
99090SOL    HW199103  10.479  11.606   4.230
99090SOL    HW299104  10.547  11.709   4.318
99091SOL     OW99105   1.179  11.284  13.161
99091SOL    HW199106   1.096  11.321  13.191
99091SOL    HW299107   1.154  11.211  13.104
99092SOL     OW99108  12.504   6.597   2.016
99092SOL    HW199109  12.497   6.637   1.929
99092SOL    HW299110  12.541   6.665   2.071
99093SOL     OW99111   8.336   2.389   9.781
99093SOL    HW199112   8.431   2.392   9.794
99093SOL    HW299113   8.299   2.397   9.869
99094SOL     OW99114  11.832   4.179   2.786
99094SOL    HW199115  11.752   4.230   2.771
99094SOL    HW299116  11.847   4.186   2.880
99095SOL     OW99117   5.867   1.864   5.650
99095SOL    HW199118   5.840   1.919   5.724
99095SOL    HW299119   5.787   1.851   5.599
99096SOL     OW99120   8.963  14.661   6.590
99096SOL    HW199121   9.011  14.607   6.652
99096SOL    HW299122   9.025  14.677   6.519
99097SOL     OW99123   9.602  11.630  10.592
99097SOL    HW199124   9.693  11.639  10.618
99097SOL    HW299125   9.596  11.678  10.509
99098SOL     OW99126   4.899   7.752   6.299
99098SOL    HW199127   4.991   7.737   6.279
99098SOL    HW299128   4.856   7.760   6.214
99099SOL     OW99129  11.727   5.708   0.337
99099SOL    HW199130  11.761   5.638   0.281
99099SOL    HW299131  11.635   5.717   0.312
99100SOL     OW99132   0.365  10.728   4.733
99100SOL    HW199133   0.382  10.797   4.798
99100SOL    HW299134   0.442  10.671   4.738
99101SOL     OW99135   0.924   5.226  13.319
99101SOL    HW199136   0.921   5.152  13.380
99101SOL    HW299137   0.996   5.280  13.352
99102SOL     OW99138   9.043   5.528   3.308
99102SOL    HW199139   9.097   5.583   3.365
99102SOL    HW299140   9.030   5.581   3.229
99103SOL     OW99141  14.158  12.699   0.968
99103SOL    HW199142  14.108  12.733   0.893
99103SOL    HW299143  14.241  12.747   0.964
99104SOL     OW99144   0.364   0.529  11.596
99104SOL    HW199145   0.411   0.544  11.679
99104SOL    HW299146   0.362   0.615  11.554
99105SOL     OW99147   7.816  12.434   9.216
99105SOL    HW199148   7.825  12.499   9.286
99105SOL    HW299149   7.726  12.445   9.186
99106SOL     OW99150  13.341   5.997   6.184
99106SOL    HW199151  13.361   5.916   6.137
99106SOL    HW299152  13.278   6.042   6.129
99107SOL     OW99153   7.257  13.257   3.687
99107SOL    HW199154   7.245  13.267   3.593
99107SOL    HW299155   7.171  13.274   3.725
99108SOL     OW99156  10.720  10.964   1.433
99108SOL    HW199157  10.760  10.933   1.352
99108SOL    HW299158  10.788  11.018   1.474
99109SOL     OW99159   2.944  14.380   2.254
99109SOL    HW199160   2.948  14.414   2.343
99109SOL    HW299161   2.897  14.448   2.204
99110SOL     OW99162   2.870  11.069   4.110
99110SOL    HW199163   2.887  11.162   4.125
99110SOL    HW299164   2.878  11.029   4.196
99111SOL     OW99165   1.420  13.192   3.661
99111SOL    HW199166   1.420  13.287   3.652
99111SOL    HW299167   1.329  13.166   3.645
99112SOL     OW99168   4.749   7.357   6.719
99112SOL    HW199169   4.689   7.344   6.645
99112SOL    HW299170   4.749   7.273   6.765
99113SOL     OW99171   0.633   8.197   3.279
99113SOL    HW199172   0.546   8.201   3.318
99113SOL    HW299173   0.635   8.272   3.219
99114SOL     OW99174  12.924   0.422   6.444
99114SOL    HW199175  12.862   0.351   6.427
99114SOL    HW299176  12.993   0.409   6.379
99115SOL     OW99177  12.167  13.542   7.013
99115SOL    HW199178  12.248  13.500   7.040
99115SOL    HW299179  12.139  13.493   6.936
99116SOL     OW99180  10.936   0.174   0.553
99116SOL    HW199181  10.969   0.172   0.464
99116SOL    HW299182  11.010   0.203   0.606
99117SOL     OW99183  14.377  10.207  10.914
99117SOL    HW199184  14.350  10.155  10.838
99117SOL    HW299185  14.406  10.142  10.978
99118SOL     OW99186  13.265   2.162   3.862
99118SOL    HW199187  13.188   2.186   3.914
99118SOL    HW299188  13.268   2.227   3.792
99119SOL     OW99189   3.877   2.988   5.478
99119SOL    HW199190   3.819   2.965   5.405
99119SOL    HW299191   3.836   3.066   5.517
99120SOL     OW99192  10.588   6.265   1.036
99120SOL    HW199193  10.561   6.271   0.945
99120SOL    HW299194  10.513   6.298   1.086
99121SOL     OW99195   0.300  11.834  13.447
99121SOL    HW199196   0.313  11.849  13.353
99121SOL    HW299197   0.360  11.762  13.468
99122SOL     OW99198   1.545  13.176   3.292
99122SOL    HW199199   1.602  13.245   3.326
99122SOL    HW299200   1.567  13.170   3.199
99123SOL     OW99201   9.140   0.197   2.971
99123SOL    HW199202   9.183   0.267   3.021
99123SOL    HW299203   9.208   0.131   2.961
99124SOL     OW99204   9.537  10.464   0.800
99124SOL    HW199205   9.454  10.508   0.783
99124SOL    HW299206   9.567  10.499   0.884
99125SOL     OW99207   6.076   5.188   4.320
99125SOL    HW199208   6.121   5.160   4.399
99125SOL    HW299209   6.106   5.129   4.252
99126SOL     OW99210   8.637   2.927   6.820
99126SOL    HW199211   8.686   2.901   6.897
99126SOL    HW299212   8.628   3.022   6.827
99127SOL     OW99213  10.239   3.655   1.388
99127SOL    HW199214  10.197   3.656   1.302
99127SOL    HW299215  10.265   3.746   1.403
99128SOL     OW99216   0.854  14.848   0.913
99128SOL    HW199217   0.891  14.834   0.826
99128SOL    HW299218   0.773   0.018   0.898
99129SOL     OW99219   9.846   1.786   1.373
99129SOL    HW199220   9.815   1.867   1.414
99129SOL    HW299221   9.939   1.803   1.356
99130SOL     OW99222   4.132   2.689   1.790
99130SOL    HW199223   4.114   2.746   1.715
99130SOL    HW299224   4.155   2.749   1.861
99131SOL     OW99225   4.271   1.542  10.324
99131SOL    HW199226   4.196   1.574  10.274
99131SOL    HW299227   4.255   1.574  10.413
99132SOL     OW99228   2.800   4.271  12.080
99132SOL    HW199229   2.719   4.233  12.115
99132SOL    HW299230   2.828   4.334  12.148
99133SOL     OW99231   0.702  12.574   1.047
99133SOL    HW199232   0.721  12.489   1.084
99133SOL    HW299233   0.609  12.570   1.023
99134SOL     OW99234  12.339  11.356   8.759
99134SOL    HW199235  12.273  11.288   8.746
99134SOL    HW299236  12.289  11.438   8.759
99135SOL     OW99237   6.705   3.865  14.006
99135SOL    HW199238   6.789   3.820  14.017
99135SOL    HW299239   6.640   3.799  14.028
99136SOL     OW99240  13.215   7.076  10.597
99136SOL    HW199241  13.301   7.118  10.589
99136SOL    HW299242  13.234   6.990  10.635
99137SOL     OW99243  12.029   8.424   7.439
99137SOL    HW199244  12.068   8.466   7.363
99137SOL    HW299245  12.042   8.330   7.424
99138SOL     OW99246  11.776  12.444  12.013
99138SOL    HW199247  11.810  12.534  12.011
99138SOL    HW299248  11.711  12.442  11.943
99139SOL     OW99249   8.669  11.589  11.353
99139SOL    HW199250   8.599  11.612  11.413
99139SOL    HW299251   8.668  11.659  11.287
99140SOL     OW99252   0.753   1.912   1.925
99140SOL    HW199253   0.696   1.839   1.900
99140SOL    HW299254   0.821   1.872   1.979
99141SOL     OW99255   0.284  10.915   4.981
99141SOL    HW199256   0.298  10.852   5.051
99141SOL    HW299257   0.368  10.959   4.970
99142SOL     OW99258  13.406   5.084   9.038
99142SOL    HW199259  13.460   5.031   9.096
99142SOL    HW299260  13.448   5.170   9.039
99143SOL     OW99261   6.829  11.635  10.153
99143SOL    HW199262   6.901  11.697  10.167
99143SOL    HW299263   6.754  11.690  10.131
99144SOL     OW99264  11.622  10.417   8.128
99144SOL    HW199265  11.599  10.501   8.088
99144SOL    HW299266  11.715  10.406   8.109
99145SOL     OW99267   9.663   0.482   4.853
99145SOL    HW199268   9.758   0.472   4.841
99145SOL    HW299269   9.654   0.546   4.923
99146SOL     OW99270   0.514   9.515   5.965
99146SOL    HW199271   0.597   9.534   5.923
99146SOL    HW299272   0.498   9.422   5.946
99147SOL     OW99273   1.594  12.981  11.198
99147SOL    HW199274   1.611  12.999  11.291
99147SOL    HW299275   1.667  12.925  11.171
99148SOL     OW99276  14.834  10.779  11.265
99148SOL    HW199277  14.812  10.689  11.238
99148SOL    HW299278  14.753  10.812  11.304
99149SOL     OW99279   8.712  14.113  13.931
99149SOL    HW199280   8.712  14.138  14.024
99149SOL    HW299281   8.771  14.175  13.889
99150SOL     OW99282  10.347   7.015  12.540
99150SOL    HW199283  10.389   6.932  12.518
99150SOL    HW299284  10.254   6.994  12.544
99151SOL     OW99285  12.171   6.226   6.362
99151SOL    HW199286  12.110   6.268   6.422
99151SOL    HW299287  12.144   6.135   6.360
99152SOL     OW99288   7.740  12.151  14.742
99152SOL    HW199289   7.822  12.131  14.787
99152SOL    HW299290   7.737  12.090  14.669
99153SOL     OW99291   8.609  12.127   5.237
99153SOL    HW199292   8.532  12.133   5.181
99153SOL    HW299293   8.680  12.164   5.184
99154SOL     OW99294   1.343   8.959   4.046
99154SOL    HW199295   1.395   8.956   3.966
99154SOL    HW299296   1.380   8.891   4.102
99155SOL     OW99297   9.194  10.405   2.872
99155SOL    HW199298   9.208  10.480   2.815
99155SOL    HW299299   9.135  10.437   2.940
99156SOL     OW99300  14.194   8.302  11.943
99156SOL    HW199301  14.265   8.254  11.900
99156SOL    HW299302  14.228   8.319  12.031
99157SOL     OW99303   5.883   6.237   6.521
99157SOL    HW199304   5.857   6.279   6.603
99157SOL    HW299305   5.888   6.309   6.458
99158SOL     OW99306   4.456   8.931  12.703
99158SOL    HW199307   4.520   8.893  12.643
99158SOL    HW299308   4.508   8.960  12.778
99159SOL     OW99309  11.877   1.678   6.510
99159SOL    HW199310  11.796   1.629   6.529
99159SOL    HW299311  11.872   1.755   6.567
99160SOL     OW99312   3.138   0.678   2.096
99160SOL    HW199313   3.220   0.686   2.144
99160SOL    HW299314   3.117   0.767   2.068
99161SOL     OW99315  13.529  14.274   6.027
99161SOL    HW199316  13.594  14.203   6.025
99161SOL    HW299317  13.499  14.276   6.117
99162SOL     OW99318  13.745   6.026   9.017
99162SOL    HW199319  13.660   6.069   9.009
99162SOL    HW299320  13.741   5.980   9.101
99163SOL     OW99321   0.129   5.573   4.654
99163SOL    HW199322   0.078   5.652   4.634
99163SOL    HW299323   0.081   5.530   4.723
99164SOL     OW99324  10.565   9.829   4.513
99164SOL    HW199325  10.571   9.902   4.575
99164SOL    HW299326  10.537   9.870   4.431
99165SOL     OW99327   0.155  14.831  11.426
99165SOL    HW199328   0.133  14.738  11.427
99165SOL    HW299329   0.109  14.866  11.350
99166SOL     OW99330   3.969   0.835   3.891
99166SOL    HW199331   3.940   0.897   3.824
99166SOL    HW299332   4.037   0.783   3.847
99167SOL     OW99333   3.143  13.103  13.030
99167SOL    HW199334   3.226  13.149  13.016
99167SOL    HW299335   3.075  13.169  13.014
99168SOL     OW99336   4.605   6.983   7.073
99168SOL    HW199337   4.666   6.914   7.099
99168SOL    HW299338   4.519   6.943   7.080
99169SOL     OW99339   3.063   9.105   7.705
99169SOL    HW199340   3.009   9.138   7.633
99169SOL    HW299341   3.005   9.046   7.754
99170SOL     OW99342  12.361  11.592  14.307
99170SOL    HW199343  12.449  11.627  14.293
99170SOL    HW299344  12.304  11.669  14.304
99171SOL     OW99345   2.167  12.027   2.422
99171SOL    HW199346   2.220  12.105   2.441
99171SOL    HW299347   2.220  11.977   2.359
99172SOL     OW99348  10.352  11.377   6.682
99172SOL    HW199349  10.333  11.329   6.762
99172SOL    HW299350  10.387  11.311   6.622
99173SOL     OW99351   0.396   3.926   8.562
99173SOL    HW199352   0.470   3.920   8.623
99173SOL    HW299353   0.382   4.020   8.550
99174SOL     OW99354   3.307   8.049   1.962
99174SOL    HW199355   3.290   8.073   1.871
99174SOL    HW299356   3.263   8.116   2.013
99175SOL     OW99357   3.871  10.371   5.657
99175SOL    HW199358   3.839  10.309   5.722
99175SOL    HW299359   3.844  10.457   5.690
99176SOL     OW99360  14.369   8.858   8.714
99176SOL    HW199361  14.416   8.776   8.700
99176SOL    HW299362  14.283   8.843   8.676
99177SOL     OW99363  14.350   7.560  10.097
99177SOL    HW199364  14.384   7.480  10.055
99177SOL    HW299365  14.255   7.546  10.100
99178SOL     OW99366   8.919  11.218   2.206
99178SOL    HW199367   8.921  11.312   2.222
99178SOL    HW299368   8.864  11.183   2.275
99179SOL     OW99369   4.200  14.366   1.270
99179SOL    HW199370   4.198  14.308   1.194
99179SOL    HW299371   4.285  14.410   1.265
99180SOL     OW99372  10.710  13.012   4.181
99180SOL    HW199373  10.745  12.979   4.264
99180SOL    HW299374  10.748  13.099   4.171
99181SOL     OW99375   5.233  12.989  10.122
99181SOL    HW199376   5.181  12.964  10.198
99181SOL    HW299377   5.224  12.915  10.062
99182SOL     OW99378  11.324  14.341  13.689
99182SOL    HW199379  11.283  14.256  13.710
99182SOL    HW299380  11.257  14.387  13.639
99183SOL     OW99381   2.221  10.212   9.735
99183SOL    HW199382   2.224  10.125   9.695
99183SOL    HW299383   2.154  10.259   9.685
99184SOL     OW99384   2.775   5.982  11.157
99184SOL    HW199385   2.778   5.967  11.063
99184SOL    HW299386   2.851   5.935  11.191
99185SOL     OW99387   5.934  11.227  11.763
99185SOL    HW199388   5.882  11.267  11.833
99185SOL    HW299389   6.005  11.289  11.747
99186SOL     OW99390   6.967   0.223   8.684
99186SOL    HW199391   7.061   0.210   8.673
99186SOL    HW299392   6.929   0.137   8.667
99187SOL     OW99393  12.253  12.883  13.162
99187SOL    HW199394  12.284  12.973  13.174
99187SOL    HW299395  12.192  12.870  13.235
99188SOL     OW99396   8.821   2.010   5.969
99188SOL    HW199397   8.771   2.003   6.050
99188SOL    HW299398   8.873   1.930   5.967
99189SOL     OW99399  14.289  12.995   3.946
99189SOL    HW199400  14.230  13.065   3.918
99189SOL    HW299401  14.341  12.975   3.869
99190SOL     OW99402   5.563   4.280   3.925
99190SOL    HW199403   5.497   4.319   3.867
99190SOL    HW299404   5.616   4.225   3.868
99191SOL     OW99405   3.057   7.031   6.695
99191SOL    HW199406   3.011   7.063   6.617
99191SOL    HW299407   2.993   7.037   6.766
99192SOL     OW99408  12.932  12.890  10.150
99192SOL    HW199409  12.911  12.959  10.212
99192SOL    HW299410  12.912  12.927  10.064
99193SOL     OW99411   3.491  11.604   0.156
99193SOL    HW199412   3.584  11.605   0.132
99193SOL    HW299413   3.480  11.523   0.205
99194SOL     OW99414   2.015   9.596   2.912
99194SOL    HW199415   1.980   9.674   2.955
99194SOL    HW299416   1.938   9.545   2.888
99195SOL     OW99417  14.824   4.216  13.337
99195SOL    HW199418  14.787   4.211  13.249
99195SOL    HW299419  14.828   4.309  13.356
99196SOL     OW99420   8.927   0.314  14.783
99196SOL    HW199421   8.884   0.321  14.698
99196SOL    HW299422   9.018   0.338  14.766
99197SOL     OW99423  10.764   7.971   7.975
99197SOL    HW199424  10.793   7.882   7.995
99197SOL    HW299425  10.840   8.026   7.992
99198SOL     OW99426   1.659   9.334  13.358
99198SOL    HW199427   1.566   9.322  13.342
99198SOL    HW299428   1.682   9.265  13.421
99199SOL     OW99429   7.428  13.434  14.339
99199SOL    HW199430   7.499  13.498  14.328
99199SOL    HW299431   7.453  13.385  14.418
99200SOL     OW99432  14.821   9.290   8.985
99200SOL    HW199433  14.788   9.212   9.030
99200SOL    HW299434  14.779   9.364   9.030
99201SOL     OW99435  11.645   1.965  10.692
99201SOL    HW199436  11.731   1.965  10.734
99201SOL    HW299437  11.627   2.058  10.674
99202SOL     OW99438   0.493   3.590   0.748
99202SOL    HW199439   0.432   3.523   0.779
99202SOL    HW299440   0.443   3.671   0.750
99203SOL     OW99441  10.431   9.679  14.091
99203SOL    HW199442  10.413   9.736  14.017
99203SOL    HW299443  10.399   9.593  14.064
99204SOL     OW99444   8.048  13.537   6.132
99204SOL    HW199445   8.019  13.623   6.100
99204SOL    HW299446   8.093  13.557   6.214
99205SOL     OW99447  12.072  11.564   6.832
99205SOL    HW199448  12.065  11.526   6.919
99205SOL    HW299449  12.139  11.632   6.842
99206SOL     OW99450  14.607   2.586   9.460
99206SOL    HW199451  14.528   2.541   9.433
99206SOL    HW299452  14.576   2.660   9.513
99207SOL     OW99453   4.606   9.768   2.329
99207SOL    HW199454   4.554   9.821   2.268
99207SOL    HW299455   4.697   9.788   2.306
99208SOL     OW99456   3.442   1.700   8.809
99208SOL    HW199457   3.420   1.674   8.720
99208SOL    HW299458   3.535   1.724   8.805
99209SOL     OW99459   5.383   6.483   2.143
99209SOL    HW199460   5.376   6.571   2.106
99209SOL    HW299461   5.460   6.486   2.199
99210SOL     OW99462   4.612  14.798   6.714
99210SOL    HW199463   4.565  14.718   6.690
99210SOL    HW299464   4.659  14.823   6.634
99211SOL     OW99465  11.331   4.664   8.370
99211SOL    HW199466  11.243   4.686   8.399
99211SOL    HW299467  11.343   4.572   8.395
99212SOL     OW99468   4.583  13.613   7.377
99212SOL    HW199469   4.500  13.578   7.343
99212SOL    HW299470   4.567  13.624   7.470
99213SOL     OW99471   4.463  12.178  11.120
99213SOL    HW199472   4.418  12.093  11.118
99213SOL    HW299473   4.461  12.207  11.029
99214SOL     OW99474   0.168   9.860   9.755
99214SOL    HW199475   0.206   9.916   9.688
99214SOL    HW299476   0.109   9.801   9.707
99215SOL     OW99477   4.223   7.864   5.364
99215SOL    HW199478   4.304   7.915   5.356
99215SOL    HW299479   4.172   7.911   5.430
99216SOL     OW99480   0.026   6.776  14.863
99216SOL    HW199481   0.093   6.759   0.051
99216SOL    HW299482   0.046   6.864  14.831
99217SOL     OW99483  14.453  10.220   3.483
99217SOL    HW199484  14.484  10.183   3.565
99217SOL    HW299485  14.374  10.269   3.507
99218SOL     OW99486   9.960   9.495   2.181
99218SOL    HW199487  10.028   9.490   2.248
99218SOL    HW299488  10.002   9.543   2.109
99219SOL     OW99489  14.843  13.222   5.630
99219SOL    HW199490  14.851  13.127   5.621
99219SOL    HW299491  14.775  13.247   5.568
99220SOL     OW99492   1.974   7.854   0.757
99220SOL    HW199493   2.013   7.940   0.772
99220SOL    HW299494   2.048   7.793   0.763
99221SOL     OW99495   0.251   1.995  10.203
99221SOL    HW199496   0.251   2.088  10.228
99221SOL    HW299497   0.223   1.949  10.282
99222SOL     OW99498   9.490   9.406   8.336
99222SOL    HW199499   9.509   9.474   8.400
99222SOL    HW299500   9.419   9.443   8.283
99223SOL     OW99501   7.310  12.212   1.882
99223SOL    HW199502   7.228  12.258   1.898
99223SOL    HW299503   7.296  12.125   1.920
99224SOL     OW99504   4.748  10.710   6.419
99224SOL    HW199505   4.692  10.757   6.357
99224SOL    HW299506   4.754  10.622   6.383
99225SOL     OW99507  14.713   7.868   3.715
99225SOL    HW199508  14.733   7.956   3.745
99225SOL    HW299509  14.753   7.861   3.629
99226SOL     OW99510  12.640   7.823   7.939
99226SOL    HW199511  12.708   7.862   7.994
99226SOL    HW299512  12.649   7.729   7.952
99227SOL     OW99513   2.692   0.033   2.467
99227SOL    HW199514   2.743  14.856   2.409
99227SOL    HW299515   2.738   0.030   2.551
99228SOL     OW99516   9.677   8.677   5.076
99228SOL    HW199517   9.587   8.652   5.096
99228SOL    HW299518   9.670   8.768   5.047
99229SOL     OW99519   0.773   5.472  13.212
99229SOL    HW199520   0.817   5.423  13.282
99229SOL    HW299521   0.844   5.515  13.164
99230SOL     OW99522   5.097   6.867   9.573
99230SOL    HW199523   5.127   6.811   9.645
99230SOL    HW299524   5.168   6.863   9.509
99231SOL     OW99525   4.726  10.717   8.414
99231SOL    HW199526   4.650  10.674   8.376
99231SOL    HW299527   4.691  10.797   8.454
99232SOL     OW99528   6.445  14.100  10.894
99232SOL    HW199529   6.379  14.168  10.882
99232SOL    HW299530   6.400  14.018  10.874
99233SOL     OW99531  13.985   2.221   0.382
99233SOL    HW199532  14.008   2.231   0.474
99233SOL    HW299533  13.916   2.286   0.367
99234SOL     OW99534   3.439  10.768   5.047
99234SOL    HW199535   3.367  10.729   4.998
99234SOL    HW299536   3.445  10.858   5.013
99235SOL     OW99537   0.694   2.211   7.373
99235SOL    HW199538   0.642   2.162   7.437
99235SOL    HW299539   0.699   2.153   7.297
99236SOL     OW99540  11.461   2.145   2.377
99236SOL    HW199541  11.504   2.213   2.428
99236SOL    HW299542  11.401   2.102   2.438
99237SOL     OW99543  14.842   1.764  14.811
99237SOL    HW199544   0.005   1.715   0.002
99237SOL    HW299545   0.034   1.788  14.751
99238SOL     OW99546  11.233   7.666   0.632
99238SOL    HW199547  11.242   7.618   0.550
99238SOL    HW299548  11.319   7.706   0.647
99239SOL     OW99549   7.234   9.725  12.762
99239SOL    HW199550   7.258   9.637  12.788
99239SOL    HW299551   7.138   9.727  12.768
99240SOL     OW99552   8.455   6.949  13.823
99240SOL    HW199553   8.369   6.978  13.852
99240SOL    HW299554   8.482   6.885  13.889
99241SOL     OW99555   5.887  10.663   9.628
99241SOL    HW199556   5.917  10.596   9.690
99241SOL    HW299557   5.851  10.613   9.555
99242SOL     OW99558   4.513   9.069   1.720
99242SOL    HW199559   4.457   8.992   1.728
99242SOL    HW299560   4.502   9.116   1.802
99243SOL     OW99561   3.044   5.834   5.688
99243SOL    HW199562   3.087   5.901   5.635
99243SOL    HW299563   2.975   5.880   5.735
99244SOL     OW99564  13.292  10.731   3.488
99244SOL    HW199565  13.327  10.678   3.560
99244SOL    HW299566  13.222  10.677   3.451
99245SOL     OW99567   4.936   0.540   0.770
99245SOL    HW199568   4.951   0.446   0.763
99245SOL    HW299569   4.945   0.559   0.864
99246SOL     OW99570  12.090   0.292   2.074
99246SOL    HW199571  12.143   0.215   2.094
99246SOL    HW299572  12.152   0.365   2.079
99247SOL     OW99573  12.483   6.074   6.388
99247SOL    HW199574  12.516   6.155   6.350
99247SOL    HW299575  12.452   6.099   6.475
99248SOL     OW99576   8.772   3.803  10.368
99248SOL    HW199577   8.761   3.857  10.290
99248SOL    HW299578   8.854   3.834  10.407
99249SOL     OW99579   2.056   5.667  11.696
99249SOL    HW199580   1.984   5.610  11.668
99249SOL    HW299581   2.100   5.692  11.614
99250SOL     OW99582   9.684   6.456  11.133
99250SOL    HW199583   9.593   6.443  11.106
99250SOL    HW299584   9.736   6.425  11.059
99251SOL     OW99585   2.275   5.358   4.687
99251SOL    HW199586   2.350   5.309   4.653
99251SOL    HW299587   2.220   5.292   4.730
99252SOL     OW99588   6.967  10.122   7.542
99252SOL    HW199589   7.027  10.051   7.566
99252SOL    HW299590   7.017  10.202   7.558
99253SOL     OW99591   3.141   0.546   7.306
99253SOL    HW199592   3.183   0.471   7.348
99253SOL    HW299593   3.052   0.546   7.342
99254SOL     OW99594   6.475  14.710  13.465
99254SOL    HW199595   6.392  14.757  13.466
99254SOL    HW299596   6.458  14.630  13.416
99255SOL     OW99597   9.216  14.777   6.125
99255SOL    HW199598   9.255  14.818   6.048
99255SOL    HW299599   9.138  14.733   6.092
99256SOL     OW99600   0.929   9.530  14.770
99256SOL    HW199601   0.954   9.482  14.691
99256SOL    HW299602   0.859   9.589  14.741
99257SOL     OW99603  10.002  12.468   3.300
99257SOL    HW199604  10.004  12.553   3.256
99257SOL    HW299605  10.061  12.478   3.374
99258SOL     OW99606   6.863  11.745  11.161
99258SOL    HW199607   6.926  11.801  11.115
99258SOL    HW299608   6.888  11.656  11.135
99259SOL     OW99609   8.782   9.620   4.152
99259SOL    HW199610   8.870   9.599   4.184
99259SOL    HW299611   8.783   9.593   4.060
99260SOL     OW99612  10.121   6.863   6.961
99260SOL    HW199613  10.081   6.911   7.034
99260SOL    HW299614  10.053   6.863   6.893
99261SOL     OW99615   3.142  13.554   6.502
99261SOL    HW199616   3.173  13.541   6.413
99261SOL    HW299617   3.047  13.563   6.493
99262SOL     OW99618   6.816  13.410  12.411
99262SOL    HW199619   6.795  13.472  12.481
99262SOL    HW299620   6.734  13.395  12.365
99263SOL     OW99621  13.212   9.925   6.135
99263SOL    HW199622  13.185   9.864   6.066
99263SOL    HW299623  13.130   9.954   6.174
99264SOL     OW99624  11.822   4.882  10.476
99264SOL    HW199625  11.813   4.869  10.381
99264SOL    HW299626  11.756   4.948  10.497
99265SOL     OW99627  13.340  14.458   8.589
99265SOL    HW199628  13.418  14.494   8.632
99265SOL    HW299629  13.326  14.373   8.631
99266SOL     OW99630   1.828   1.063  13.159
99266SOL    HW199631   1.832   1.073  13.254
99266SOL    HW299632   1.788   0.977  13.146
99267SOL     OW99633   4.106  13.208   5.985
99267SOL    HW199634   4.066  13.122   6.000
99267SOL    HW299635   4.033  13.265   5.962
99268SOL     OW99636   0.200   5.231   1.453
99268SOL    HW199637   0.159   5.222   1.367
99268SOL    HW299638   0.293   5.217   1.438
99269SOL     OW99639  11.264   1.051  13.885
99269SOL    HW199640  11.294   1.141  13.898
99269SOL    HW299641  11.255   1.016  13.974
99270SOL     OW99642   8.260   1.204   2.148
99270SOL    HW199643   8.230   1.287   2.185
99270SOL    HW299644   8.335   1.180   2.202
99271SOL     OW99645   3.425  14.714   4.777
99271SOL    HW199646   3.418  14.621   4.756
99271SOL    HW299647   3.351  14.755   4.731
99272SOL     OW99648   1.794  13.950   7.186
99272SOL    HW199649   1.773  14.020   7.247
99272SOL    HW299650   1.751  13.873   7.222
99273SOL     OW99651   0.344  11.874  13.170
99273SOL    HW199652   0.419  11.819  13.146
99273SOL    HW299653   0.282  11.862  13.099
99274SOL     OW99654   0.249   9.007  14.682
99274SOL    HW199655   0.278   8.924  14.644
99274SOL    HW299656   0.297   9.014  14.765
99275SOL     OW99657   5.014  12.044   0.310
99275SOL    HW199658   4.942  11.990   0.343
99275SOL    HW299659   5.023  12.018   0.218
99276SOL     OW99660   1.594   4.442   6.294
99276SOL    HW199661   1.632   4.520   6.254
99276SOL    HW299662   1.596   4.376   6.225
99277SOL     OW99663   4.682   9.464   4.465
99277SOL    HW199664   4.615   9.519   4.505
99277SOL    HW299665   4.765   9.502   4.495
99278SOL     OW99666   5.010   7.980  12.392
99278SOL    HW199667   4.958   7.914  12.438
99278SOL    HW299668   4.950   8.053  12.378
99279SOL     OW99669  10.533  11.284   6.215
99279SOL    HW199670  10.614  11.331   6.236
99279SOL    HW299671  10.468  11.352   6.203
99280SOL     OW99672   7.864  14.504  10.354
99280SOL    HW199673   7.859  14.579  10.413
99280SOL    HW299674   7.952  14.510  10.315
99281SOL     OW99675   1.376   6.787   4.928
99281SOL    HW199676   1.384   6.839   4.849
99281SOL    HW299677   1.412   6.843   4.998
99282SOL     OW99678   1.678  10.625   3.182
99282SOL    HW199679   1.715  10.695   3.129
99282SOL    HW299680   1.609  10.587   3.126
99283SOL     OW99681   4.164   0.134   6.762
99283SOL    HW199682   4.250   0.168   6.785
99283SOL    HW299683   4.181   0.046   6.729
99284SOL     OW99684   5.057   6.959  11.198
99284SOL    HW199685   5.150   6.944  11.181
99284SOL    HW299686   5.051   7.052  11.219
99285SOL     OW99687  14.468   1.175   1.965
99285SOL    HW199688  14.407   1.227   1.912
99285SOL    HW299689  14.437   1.085   1.955
99286SOL     OW99690  12.542   4.076   7.265
99286SOL    HW199691  12.503   4.063   7.351
99286SOL    HW299692  12.617   4.016   7.264
99287SOL     OW99693   0.945   4.407  10.956
99287SOL    HW199694   0.951   4.325  10.908
99287SOL    HW299695   0.977   4.385  11.044
99288SOL     OW99696   2.728   8.081   4.757
99288SOL    HW199697   2.702   8.035   4.678
99288SOL    HW299698   2.705   8.022   4.829
99289SOL     OW99699  14.082   0.218   3.603
99289SOL    HW199700  14.009   0.280   3.595
99289SOL    HW299701  14.160   0.272   3.593
99290SOL     OW99702   4.542   3.951   3.715
99290SOL    HW199703   4.474   3.891   3.686
99290SOL    HW299704   4.527   4.032   3.665
99291SOL     OW99705   3.173  10.454   7.762
99291SOL    HW199706   3.195  10.526   7.821
99291SOL    HW299707   3.243  10.455   7.697
99292SOL     OW99708  12.617   4.956  12.464
99292SOL    HW199709  12.559   4.982  12.535
99292SOL    HW299710  12.574   4.988  12.385
99293SOL     OW99711   8.778  10.314   1.009
99293SOL    HW199712   8.790  10.247   1.076
99293SOL    HW299713   8.745  10.390   1.057
99294SOL     OW99714  10.326   0.828   4.850
99294SOL    HW199715  10.365   0.915   4.856
99294SOL    HW299716  10.350   0.796   4.763
99295SOL     OW99717   5.935  11.654   3.932
99295SOL    HW199718   5.855  11.664   3.879
99295SOL    HW299719   5.921  11.575   3.983
99296SOL     OW99720  10.810  10.466  12.237
99296SOL    HW199721  10.721  10.432  12.246
99296SOL    HW299722  10.866  10.389  12.239
99297SOL     OW99723   1.770  11.296   3.469
99297SOL    HW199724   1.710  11.302   3.395
99297SOL    HW299725   1.713  11.287   3.546
99298SOL     OW99726   5.706   0.389   6.064
99298SOL    HW199727   5.716   0.300   6.030
99298SOL    HW299728   5.629   0.383   6.122
99299SOL     OW99729  10.342  10.920   8.190
99299SOL    HW199730  10.409  10.936   8.256
99299SOL    HW299731  10.268  10.885   8.239
99300SOL     OW99732   8.871   3.544   3.616
99300SOL    HW199733   8.841   3.467   3.664
99300SOL    HW299734   8.790   3.586   3.585
99301SOL     OW99735   7.505  10.918  14.199
99301SOL    HW199736   7.454  10.873  14.266
99301SOL    HW299737   7.443  10.936  14.129
99302SOL     OW99738   7.530  13.119  10.075
99302SOL    HW199739   7.622  13.115  10.049
99302SOL    HW299740   7.490  13.041  10.037
99303SOL     OW99741   1.121   3.547   3.901
99303SOL    HW199742   1.098   3.481   3.836
99303SOL    HW299743   1.175   3.610   3.853
99304SOL     OW99744   8.306   3.676   3.819
99304SOL    HW199745   8.360   3.645   3.892
99304SOL    HW299746   8.306   3.602   3.757
99305SOL     OW99747   0.396  14.163  10.201
99305SOL    HW199748   0.375  14.079  10.243
99305SOL    HW299749   0.450  14.209  10.265
99306SOL     OW99750   0.500   1.269  14.560
99306SOL    HW199751   0.482   1.281  14.653
99306SOL    HW299752   0.455   1.342  14.517
99307SOL     OW99753   2.266   3.096   3.175
99307SOL    HW199754   2.358   3.095   3.149
99307SOL    HW299755   2.236   3.006   3.160
99308SOL     OW99756  14.556   6.220  14.278
99308SOL    HW199757  14.574   6.194  14.188
99308SOL    HW299758  14.581   6.313  14.282
99309SOL     OW99759   0.081   8.717   4.640
99309SOL    HW199760   0.006   8.713   4.699
99309SOL    HW299761   0.085   8.808   4.612
99310SOL     OW99762   9.600   5.157  13.857
99310SOL    HW199763   9.541   5.213  13.908
99310SOL    HW299764   9.666   5.217  13.822
99311SOL     OW99765   7.661  11.196   6.219
99311SOL    HW199766   7.680  11.116   6.170
99311SOL    HW299767   7.620  11.165   6.300
99312SOL     OW99768   6.553   9.293  13.762
99312SOL    HW199769   6.629   9.253  13.805
99312SOL    HW299770   6.554   9.384  13.791
99313SOL     OW99771   0.928  14.222   4.654
99313SOL    HW199772   0.838  14.245   4.676
99313SOL    HW299773   0.966  14.304   4.621
99314SOL     OW99774  14.144  10.743  10.120
99314SOL    HW199775  14.191  10.734  10.203
99314SOL    HW299776  14.093  10.662  10.112
99315SOL     OW99777   0.253  14.280   4.752
99315SOL    HW199778   0.198  14.217   4.705
99315SOL    HW299779   0.273  14.237   4.835
99316SOL     OW99780   7.828   8.943   9.683
99316SOL    HW199781   7.738   8.965   9.709
99316SOL    HW299782   7.824   8.851   9.657
99317SOL     OW99783   6.228   2.685   4.031
99317SOL    HW199784   6.217   2.590   4.027
99317SOL    HW299785   6.266   2.700   4.118
99318SOL     OW99786   4.964   7.429   9.854
99318SOL    HW199787   4.947   7.345   9.812
99318SOL    HW299788   4.997   7.485   9.784
99319SOL     OW99789   3.622   8.105   6.826
99319SOL    HW199790   3.698   8.133   6.876
99319SOL    HW299791   3.586   8.186   6.789
99320SOL     OW99792   5.360  14.194   9.725
99320SOL    HW199793   5.315  14.276   9.703
99320SOL    HW299794   5.452  14.220   9.734
99321SOL     OW99795   6.192   8.416   6.835
99321SOL    HW199796   6.107   8.382   6.807
99321SOL    HW299797   6.226   8.459   6.756
99322SOL     OW99798   6.928   5.770   4.221
99322SOL    HW199799   6.847   5.721   4.205
99322SOL    HW299800   6.991   5.733   4.160
99323SOL     OW99801   9.964   4.104   3.969
99323SOL    HW199802   9.895   4.108   4.035
99323SOL    HW299803  10.046   4.109   4.019
99324SOL     OW99804   3.793   7.385   6.176
99324SOL    HW199805   3.867   7.382   6.115
99324SOL    HW299806   3.774   7.478   6.185
99325SOL     OW99807   4.611   9.473  11.821
99325SOL    HW199808   4.533   9.425  11.792
99325SOL    HW299809   4.577   9.556  11.855
99326SOL     OW99810   8.209   6.075   4.164
99326SOL    HW199811   8.299   6.049   4.183
99326SOL    HW299812   8.218   6.154   4.110
99327SOL     OW99813   6.988   7.348  12.360
99327SOL    HW199814   6.910   7.305  12.323
99327SOL    HW299815   6.977   7.441  12.338
99328SOL     OW99816   8.065   4.984   8.358
99328SOL    HW199817   8.074   4.891   8.376
99328SOL    HW299818   8.050   5.024   8.444
99329SOL     OW99819   9.558   6.791   4.881
99329SOL    HW199820   9.587   6.800   4.790
99329SOL    HW299821   9.635   6.759   4.927
99330SOL     OW99822   3.279   7.066   1.930
99330SOL    HW199823   3.272   6.971   1.939
99330SOL    HW299824   3.194   7.093   1.893
99331SOL     OW99825   7.860   1.659   3.627
99331SOL    HW199826   7.838   1.598   3.696
99331SOL    HW299827   7.869   1.605   3.548
99332SOL     OW99828   4.615   5.493  11.268
99332SOL    HW199829   4.612   5.560  11.200
99332SOL    HW299830   4.706   5.464  11.269
99333SOL     OW99831   2.170  10.038  11.099
99333SOL    HW199832   2.209   9.961  11.143
99333SOL    HW299833   2.245  10.088  11.068
99334SOL     OW99834   4.449   4.232  13.689
99334SOL    HW199835   4.377   4.172  13.671
99334SOL    HW299836   4.420   4.316  13.653
99335SOL     OW99837   0.947  13.322   2.688
99335SOL    HW199838   0.937  13.324   2.783
99335SOL    HW299839   0.996  13.401   2.667
99336SOL     OW99840   2.018  12.042   7.303
99336SOL    HW199841   1.933  12.084   7.290
99336SOL    HW299842   2.026  11.980   7.230
99337SOL     OW99843   9.839  12.391  12.179
99337SOL    HW199844   9.872  12.373  12.091
99337SOL    HW299845   9.917  12.398  12.233
99338SOL     OW99846  13.161  11.105  13.984
99338SOL    HW199847  13.115  11.072  14.062
99338SOL    HW299848  13.254  11.094  14.005
99339SOL     OW99849  13.519   4.630   6.071
99339SOL    HW199850  13.562   4.703   6.116
99339SOL    HW299851  13.560   4.628   5.985
99340SOL     OW99852   7.549   1.917   8.238
99340SOL    HW199853   7.599   1.941   8.160
99340SOL    HW299854   7.459   1.910   8.207
99341SOL     OW99855  11.902   3.859   5.499
99341SOL    HW199856  11.811   3.838   5.480
99341SOL    HW299857  11.903   3.877   5.593
99342SOL     OW99858   8.780   2.406   2.678
99342SOL    HW199859   8.852   2.344   2.673
99342SOL    HW299860   8.702   2.355   2.659
99343SOL     OW99861   7.815   0.777   4.635
99343SOL    HW199862   7.734   0.826   4.622
99343SOL    HW299863   7.848   0.761   4.546
99344SOL     OW99864   1.509   6.366  11.470
99344SOL    HW199865   1.543   6.436  11.414
99344SOL    HW299866   1.567   6.292  11.452
99345SOL     OW99867   3.733   1.994   7.552
99345SOL    HW199868   3.734   1.913   7.603
99345SOL    HW299869   3.767   1.968   7.466
99346SOL     OW99870   1.605  12.469   1.098
99346SOL    HW199871   1.622  12.415   1.020
99346SOL    HW299872   1.544  12.536   1.068
99347SOL     OW99873   4.164   9.226   5.778
99347SOL    HW199874   4.152   9.142   5.732
99347SOL    HW299875   4.149   9.205   5.870
99348SOL     OW99876  14.633  11.520   3.031
99348SOL    HW199877  14.611  11.436   2.990
99348SOL    HW299878  14.715  11.547   2.990
99349SOL     OW99879   1.782   2.529   1.314
99349SOL    HW199880   1.734   2.537   1.396
99349SOL    HW299881   1.868   2.496   1.339
99350SOL     OW99882  12.705   7.483   7.944
99350SOL    HW199883  12.699   7.456   7.853
99350SOL    HW299884  12.622   7.455   7.984
99351SOL     OW99885   1.452  13.006   1.052
99351SOL    HW199886   1.445  12.941   1.122
99351SOL    HW299887   1.383  12.983   0.990
99352SOL     OW99888  14.681   0.737   6.598
99352SOL    HW199889  14.753   0.752   6.537
99352SOL    HW299890  14.696   0.648   6.631
99353SOL     OW99891  12.714   2.413  13.104
99353SOL    HW199892  12.706   2.318  13.112
99353SOL    HW299893  12.769   2.426  13.026
99354SOL     OW99894   0.250  13.532   6.826
99354SOL    HW199895   0.199  13.614   6.822
99354SOL    HW299896   0.253  13.511   6.919
99355SOL     OW99897  11.320   3.951  10.602
99355SOL    HW199898  11.362   3.874  10.641
99355SOL    HW299899  11.250   3.973  10.664
99356SOL     OW99900   6.869   4.963   4.841
99356SOL    HW199901   6.852   5.049   4.880
99356SOL    HW299902   6.783   4.932   4.812
99357SOL     OW99903   3.061   2.587  14.124
99357SOL    HW199904   3.122   2.522  14.158
99357SOL    HW299905   2.985   2.583  14.183
99358SOL     OW99906  11.332  12.194  11.140
99358SOL    HW199907  11.305  12.286  11.133
99358SOL    HW299908  11.417  12.198  11.182
99359SOL     OW99909   8.020  10.865   1.845
99359SOL    HW199910   8.067  10.788   1.812
99359SOL    HW299911   8.046  10.936   1.786
99360SOL     OW99912   5.604   8.746   6.467
99360SOL    HW199913   5.639   8.657   6.456
99360SOL    HW299914   5.676   8.803   6.442
99361SOL     OW99915  13.586  10.045  13.615
99361SOL    HW199916  13.592   9.970  13.555
99361SOL    HW299917  13.514  10.022  13.675
99362SOL     OW99918   8.468   9.624   0.826
99362SOL    HW199919   8.389   9.575   0.850
99362SOL    HW299920   8.526   9.557   0.789
99363SOL     OW99921   6.779   8.959   3.897
99363SOL    HW199922   6.684   8.949   3.901
99363SOL    HW299923   6.803   8.989   3.985
99364SOL     OW99924   1.654  12.705   6.333
99364SOL    HW199925   1.629  12.714   6.425
99364SOL    HW299926   1.670  12.611   6.322
99365SOL     OW99927   7.767   2.688   5.025
99365SOL    HW199928   7.779   2.735   4.943
99365SOL    HW299929   7.775   2.755   5.093
99366SOL     OW99930   5.425   5.965   3.847
99366SOL    HW199931   5.348   5.908   3.840
99366SOL    HW299932   5.414   6.011   3.930
99367SOL     OW99933  12.291  12.261  14.509
99367SOL    HW199934  12.243  12.186  14.473
99367SOL    HW299935  12.271  12.258  14.603
99368SOL     OW99936   0.536   0.267   4.796
99368SOL    HW199937   0.554   0.174   4.782
99368SOL    HW299938   0.608   0.312   4.752
99369SOL     OW99939   4.417   5.060   1.676
99369SOL    HW199940   4.447   5.148   1.654
99369SOL    HW299941   4.437   5.050   1.769
99370SOL     OW99942  13.510   4.479   4.398
99370SOL    HW199943  13.439   4.503   4.339
99370SOL    HW299944  13.589   4.506   4.352
99371SOL     OW99945  11.260   4.455  14.419
99371SOL    HW199946  11.239   4.381  14.476
99371SOL    HW299947  11.286   4.415  14.336
99372SOL     OW99948  14.389   0.143   3.054
99372SOL    HW199949  14.345   0.059   3.068
99372SOL    HW299950  14.476   0.119   3.022
99373SOL     OW99951  14.139   3.721  14.589
99373SOL    HW199952  14.186   3.696  14.669
99373SOL    HW299953  14.047   3.708  14.611
99374SOL     OW99954   7.879  14.167  14.695
99374SOL    HW199955   7.881  14.079  14.658
99374SOL    HW299956   7.932  14.219  14.634
99375SOL     OW99957  13.213   9.666   7.634
99375SOL    HW199958  13.244   9.754   7.653
99375SOL    HW299959  13.124   9.678   7.600
99376SOL     OW99960  10.276   6.266   1.972
99376SOL    HW199961  10.354   6.319   1.953
99376SOL    HW299962  10.284   6.190   1.914
99377SOL     OW99963  11.119   4.654   3.347
99377SOL    HW199964  11.170   4.586   3.391
99377SOL    HW299965  11.185   4.715   3.312
99378SOL     OW99966  12.183   3.114  11.080
99378SOL    HW199967  12.251   3.111  11.013
99378SOL    HW299968  12.223   3.075  11.157
99379SOL     OW99969   8.545   6.061  12.719
99379SOL    HW199970   8.458   6.035  12.749
99379SOL    HW299971   8.601   6.051  12.795
99380SOL     OW99972  13.898   9.608  13.718
99380SOL    HW199973  13.916   9.627  13.810
99380SOL    HW299974  13.827   9.667  13.694
99381SOL     OW99975   2.851   9.704   5.617
99381SOL    HW199976   2.918   9.762   5.580
99381SOL    HW299977   2.818   9.654   5.541
99382SOL     OW99978   2.244   2.608   2.502
99382SOL    HW199979   2.310   2.544   2.530
99382SOL    HW299980   2.183   2.614   2.576
99383SOL     OW99981   5.530   1.591   0.496
99383SOL    HW199982   5.523   1.525   0.427
99383SOL    HW299983   5.547   1.541   0.575
99384SOL     OW99984   4.380   7.242  13.212
99384SOL    HW199985   4.305   7.302  13.217
99384SOL    HW299986   4.391   7.226  13.118
99385SOL     OW99987   0.111   0.674   4.428
99385SOL    HW199988   0.098   0.767   4.407
99385SOL    HW299989   0.034   0.631   4.391
99386SOL     OW99990  13.124  11.447   8.190
99386SOL    HW199991  13.051  11.464   8.249
99386SOL    HW299992  13.190  11.511   8.215
99387SOL     OW99993  10.576  10.826   3.234
99387SOL    HW199994  10.600  10.806   3.143
99387SOL    HW299995  10.535  10.746   3.266
99388SOL     OW99996   8.136  10.967  10.219
99388SOL    HW199997   8.150  11.046  10.270
99388SOL    HW299998   8.040  10.957  10.216
99389SOL     OW99999   7.922   2.381   8.636
99389SOL    HW1    0   7.845   2.438   8.634
99389SOL    HW2    1   7.887   2.293   8.626
99390SOL     OW    2   7.497  14.850   7.583
99390SOL    HW1    3   7.418   0.008   7.544
99390SOL    HW2    4   7.516   0.029   7.657
99391SOL     OW    5  11.040   3.500  13.910
99391SOL    HW1    6  11.085   3.510  13.826
99391SOL    HW2    7  11.101   3.450  13.964
99392SOL     OW    8   8.768  14.812  13.471
99392SOL    HW1    9   8.759  14.807  13.567
99392SOL    HW2   10   8.696  14.758  13.438
99393SOL     OW   11   3.707   0.767   2.248
99393SOL    HW1   12   3.746   0.817   2.320
99393SOL    HW2   13   3.691   0.832   2.179
99394SOL     OW   14  12.470  14.307  14.676
99394SOL    HW1   15  12.376  14.311  14.662
99394SOL    HW2   16  12.501  14.239  14.616
99395SOL     OW   17   3.700   2.740   4.938
99395SOL    HW1   18   3.694   2.660   4.886
99395SOL    HW2   19   3.790   2.743   4.969
99396SOL     OW   20  14.391   2.159  14.087
99396SOL    HW1   21  14.359   2.222  14.151
99396SOL    HW2   22  14.328   2.086  14.091
99397SOL     OW   23   9.359  14.699   8.531
99397SOL    HW1   24   9.452  14.679   8.541
99397SOL    HW2   25   9.322  14.683   8.618
99398SOL     OW   26   8.001   8.042   3.628
99398SOL    HW1   27   8.032   8.052   3.718
99398SOL    HW2   28   8.020   8.127   3.587
99399SOL     OW   29   7.255   8.345   1.858
99399SOL    HW1   30   7.278   8.435   1.882
99399SOL    HW2   31   7.165   8.352   1.824
99400SOL     OW   32   9.905   6.824  14.541
99400SOL    HW1   33   9.861   6.872  14.471
99400SOL    HW2   34   9.924   6.889  14.608
99401SOL     OW   35   6.258   7.671   2.326
99401SOL    HW1   36   6.280   7.581   2.302
99401SOL    HW2   37   6.167   7.681   2.298
99402SOL     OW   38   5.721   0.780   5.102
99402SOL    HW1   39   5.765   0.726   5.036
99402SOL    HW2   40   5.765   0.760   5.184
99403SOL     OW   41   0.094   8.095   6.444
99403SOL    HW1   42   0.004   8.106   6.415
99403SOL    HW2   43   0.087   8.053   6.530
99404SOL     OW   44   4.347   0.077   0.788
99404SOL    HW1   45   4.401  14.877   0.797
99404SOL    HW2   46   4.350   0.117   0.875
99405SOL     OW   47   6.871   3.511  12.909
99405SOL    HW1   48   6.902   3.443  12.849
99405SOL    HW2   49   6.904   3.593  12.871
99406SOL     OW   50   7.202  14.657   3.806
99406SOL    HW1   51   7.290  14.620   3.807
99406SOL    HW2   52   7.209  14.734   3.749
99407SOL     OW   53   9.557   1.448   0.611
99407SOL    HW1   54   9.651   1.458   0.623
99407SOL    HW2   55   9.534   1.513   0.544
99408SOL     OW   56   3.029   0.125  13.152
99408SOL    HW1   57   3.004   0.198  13.096
99408SOL    HW2   58   3.054   0.055  13.092
99409SOL     OW   59  11.468   0.064   0.841
99409SOL    HW1   60  11.561   0.045   0.833
99409SOL    HW2   61  11.450   0.058   0.934
99410SOL     OW   62   2.955   3.502   1.459
99410SOL    HW1   63   2.900   3.580   1.469
99410SOL    HW2   64   3.021   3.511   1.528
99411SOL     OW   65  11.868   0.611  14.850
99411SOL    HW1   66  11.852   0.524  14.815
99411SOL    HW2   67  11.785   0.658  14.839
99412SOL     OW   68   9.873  13.510  10.346
99412SOL    HW1   69   9.795  13.545  10.389
99412SOL    HW2   70   9.854  13.417  10.334
99413SOL     OW   71   4.052  14.187   6.028
99413SOL    HW1   72   4.087  14.249   5.964
99413SOL    HW2   73   4.124  14.125   6.042
99414SOL     OW   74   6.708   2.889   6.746
99414SOL    HW1   75   6.790   2.887   6.695
99414SOL    HW2   76   6.736   2.913   6.834
99415SOL     OW   77   4.319   5.785  12.736
99415SOL    HW1   78   4.268   5.742  12.668
99415SOL    HW2   79   4.405   5.743  12.732
99416SOL     OW   80   8.965   6.472  11.483
99416SOL    HW1   81   8.947   6.380  11.466
99416SOL    HW2   82   8.928   6.518  11.408
99417SOL     OW   83  11.902  10.934  12.970
99417SOL    HW1   84  11.809  10.931  12.949
99417SOL    HW2   85  11.937  10.853  12.934
99418SOL     OW   86  12.630  13.857  10.202
99418SOL    HW1   87  12.665  13.924  10.261
99418SOL    HW2   88  12.587  13.906  10.132
99419SOL     OW   89   7.806  13.969   6.797
99419SOL    HW1   90   7.724  13.990   6.751
99419SOL    HW2   91   7.846  14.054   6.815
99420SOL     OW   92   3.949   8.969  11.915
99420SOL    HW1   93   3.986   8.915  11.984
99420SOL    HW2   94   3.997   9.052  11.920
99421SOL     OW   95   3.099   6.351  14.445
99421SOL    HW1   96   3.187   6.351  14.409
99421SOL    HW2   97   3.112   6.348  14.540
99422SOL     OW   98  12.598  11.521   1.512
99422SOL    HW1   99  12.584  11.593   1.573
99422SOL    HW2  100  12.572  11.555   1.427
99423SOL     OW  101   8.369  12.126   7.661
99423SOL    HW1  102   8.351  12.131   7.568
99423SOL    HW2  103   8.298  12.073   7.697
99424SOL     OW  104   5.112   2.790  12.731
99424SOL    HW1  105   5.129   2.744  12.813
99424SOL    HW2  106   5.024   2.826  12.742
99425SOL     OW  107   5.857   7.257   7.898
99425SOL    HW1  108   5.951   7.267   7.906
99425SOL    HW2  109   5.826   7.338   7.859
99426SOL     OW  110   7.790  12.137   8.399
99426SOL    HW1  111   7.822  12.069   8.340
99426SOL    HW2  112   7.838  12.216   8.374
99427SOL     OW  113   6.089   2.700   0.919
99427SOL    HW1  114   6.075   2.607   0.902
99427SOL    HW2  115   6.143   2.703   0.997
99428SOL     OW  116   2.182   9.625   4.475
99428SOL    HW1  117   2.120   9.605   4.406
99428SOL    HW2  118   2.229   9.542   4.491
99429SOL     OW  119   0.564   1.521   5.317
99429SOL    HW1  120   0.521   1.557   5.395
99429SOL    HW2  121   0.570   1.427   5.333
99430SOL     OW  122  10.620   5.456   2.819
99430SOL    HW1  123  10.684   5.478   2.752
99430SOL    HW2  124  10.671   5.414   2.888
99431SOL     OW  125   6.781   1.707   9.617
99431SOL    HW1  126   6.869   1.736   9.640
99431SOL    HW2  127   6.786   1.690   9.523
99432SOL     OW  128  12.832   1.988   7.764
99432SOL    HW1  129  12.899   1.949   7.819
99432SOL    HW2  130  12.804   1.917   7.706
99433SOL     OW  131  13.255  10.458   6.887
99433SOL    HW1  132  13.182  10.488   6.832
99433SOL    HW2  133  13.238  10.365   6.900
99434SOL     OW  134  13.903   8.217   0.370
99434SOL    HW1  135  13.848   8.294   0.355
99434SOL    HW2  136  13.854   8.145   0.330
99435SOL     OW  137   6.339   2.527  10.716
99435SOL    HW1  138   6.259   2.579  10.714
99435SOL    HW2  139   6.404   2.582  10.671
99436SOL     OW  140   5.751  11.503   5.268
99436SOL    HW1  141   5.747  11.407   5.267
99436SOL    HW2  142   5.735  11.528   5.177
99437SOL     OW  143   3.932   4.942   3.369
99437SOL    HW1  144   3.888   4.931   3.453
99437SOL    HW2  145   3.861   4.960   3.307
99438SOL     OW  146  11.355  13.821  10.663
99438SOL    HW1  147  11.351  13.916  10.649
99438SOL    HW2  148  11.371  13.785  10.576
99439SOL     OW  149   3.499  14.442   1.968
99439SOL    HW1  150   3.457  14.359   1.992
99439SOL    HW2  151   3.491  14.446   1.872
99440SOL     OW  152   9.228  13.257   1.460
99440SOL    HW1  153   9.181  13.181   1.426
99440SOL    HW2  154   9.252  13.307   1.382
99441SOL     OW  155   5.495   8.217   2.491
99441SOL    HW1  156   5.537   8.131   2.486
99441SOL    HW2  157   5.461   8.233   2.403
99442SOL     OW  158  11.479   1.706   5.878
99442SOL    HW1  159  11.516   1.638   5.934
99442SOL    HW2  160  11.555   1.747   5.835
99443SOL     OW  161   2.012   3.592   8.474
99443SOL    HW1  162   2.087   3.638   8.437
99443SOL    HW2  163   2.018   3.504   8.437
99444SOL     OW  164   7.777   2.795   9.724
99444SOL    HW1  165   7.725   2.866   9.687
99444SOL    HW2  166   7.728   2.767   9.801
99445SOL     OW  167  10.679   0.615   0.370
99445SOL    HW1  168  10.699   0.541   0.312
99445SOL    HW2  169  10.591   0.643   0.345
99446SOL     OW  170   9.613   4.814   8.521
99446SOL    HW1  171   9.655   4.782   8.600
99446SOL    HW2  172   9.550   4.880   8.552
99447SOL     OW  173  11.844  12.002   7.558
99447SOL    HW1  174  11.758  11.961   7.556
99447SOL    HW2  175  11.838  12.074   7.495
99448SOL     OW  176   3.483  14.194   4.028
99448SOL    HW1  177   3.533  14.165   3.952
99448SOL    HW2  178   3.499  14.289   4.032
99449SOL     OW  179  11.184  11.324   9.843
99449SOL    HW1  180  11.153  11.414   9.833
99449SOL    HW2  181  11.227  11.323   9.929
99450SOL     OW  182   4.764   9.188   6.557
99450SOL    HW1  183   4.777   9.180   6.652
99450SOL    HW2  184   4.700   9.258   6.548
99451SOL     OW  185   8.843  14.085   4.920
99451SOL    HW1  186   8.839  14.041   4.836
99451SOL    HW2  187   8.796  14.027   4.980
99452SOL     OW  188   6.231   0.396   5.354
99452SOL    HW1  189   6.215   0.481   5.313
99452SOL    HW2  190   6.271   0.418   5.438
99453SOL     OW  191  12.713   0.643   6.636
99453SOL    HW1  192  12.808   0.636   6.642
99453SOL    HW2  193  12.683   0.553   6.620
99454SOL     OW  194   7.809   1.760  11.497
99454SOL    HW1  195   7.751   1.737  11.569
99454SOL    HW2  196   7.897   1.744  11.530
99455SOL     OW  197   7.179   7.971  12.004
99455SOL    HW1  198   7.262   8.018  12.014
99455SOL    HW2  199   7.162   7.971  11.910
99456SOL     OW  200   6.957   4.561  14.380
99456SOL    HW1  201   6.936   4.491  14.442
99456SOL    HW2  202   6.894   4.550  14.309
99457SOL     OW  203   7.696   1.392   2.977
99457SOL    HW1  204   7.698   1.327   3.048
99457SOL    HW2  205   7.652   1.347   2.905
99458SOL     OW  206   8.572   7.379   9.920
99458SOL    HW1  207   8.554   7.471   9.898
99458SOL    HW2  208   8.583   7.379  10.015
99459SOL     OW  209  14.765   2.621  13.462
99459SOL    HW1  210  14.780   2.695  13.520
99459SOL    HW2  211  14.686   2.644  13.413
99460SOL     OW  212   0.283   9.404  10.520
99460SOL    HW1  213   0.316   9.421  10.608
99460SOL    HW2  214   0.320   9.475  10.467
99461SOL     OW  215   9.165   5.415  10.722
99461SOL    HW1  216   9.079   5.377  10.742
99461SOL    HW2  217   9.146   5.505  10.694
99462SOL     OW  218   1.067   1.363  14.871
99462SOL    HW1  219   1.015   1.291   0.028
99462SOL    HW2  220   1.151   1.356   0.037
99463SOL     OW  221  11.680   1.445   9.820
99463SOL    HW1  222  11.662   1.532   9.857
99463SOL    HW2  223  11.594   1.408   9.803
99464SOL     OW  224   1.341   0.511   4.201
99464SOL    HW1  225   1.397   0.436   4.182
99464SOL    HW2  226   1.367   0.577   4.137
99465SOL     OW  227  12.106  12.593   4.818
99465SOL    HW1  228  12.053  12.575   4.895
99465SOL    HW2  229  12.049  12.569   4.744
99466SOL     OW  230   4.497  12.905  10.060
99466SOL    HW1  231   4.470  12.908   9.968
99466SOL    HW2  232   4.437  12.842  10.100
99467SOL     OW  233   4.765  13.419   4.810
99467SOL    HW1  234   4.790  13.327   4.816
99467SOL    HW2  235   4.760  13.436   4.716
99468SOL     OW  236   8.536   4.755  10.706
99468SOL    HW1  237   8.556   4.784  10.617
99468SOL    HW2  238   8.556   4.662  10.706
99469SOL     OW  239  14.127   9.729  12.527
99469SOL    HW1  240  14.212   9.698  12.558
99469SOL    HW2  241  14.146   9.810  12.481
99470SOL     OW  242  10.282   4.246  11.466
99470SOL    HW1  243  10.302   4.167  11.515
99470SOL    HW2  244  10.361   4.262  11.413
99471SOL     OW  245  11.686   9.212  10.580
99471SOL    HW1  246  11.605   9.178  10.618
99471SOL    HW2  247  11.726   9.136  10.537
99472SOL     OW  248   3.316   2.228   2.437
99472SOL    HW1  249   3.394   2.172   2.436
99472SOL    HW2  250   3.283   2.222   2.527
99473SOL     OW  251  11.563   3.591  13.552
99473SOL    HW1  252  11.610   3.595  13.469
99473SOL    HW2  253  11.628   3.613  13.618
99474SOL     OW  254  12.375  11.640   7.447
99474SOL    HW1  255  12.422  11.577   7.502
99474SOL    HW2  256  12.426  11.642   7.366
99475SOL     OW  257  10.142  11.654   5.105
99475SOL    HW1  258  10.231  11.675   5.134
99475SOL    HW2  259  10.087  11.673   5.181
99476SOL     OW  260   6.870   6.641  12.260
99476SOL    HW1  261   6.869   6.570  12.197
99476SOL    HW2  262   6.899   6.717  12.210
99477SOL     OW  263   1.102  11.580   8.823
99477SOL    HW1  264   1.096  11.667   8.785
99477SOL    HW2  265   1.088  11.521   8.749
99478SOL     OW  266   3.169   7.513   5.866
99478SOL    HW1  267   3.258   7.529   5.832
99478SOL    HW2  268   3.112   7.533   5.792
99479SOL     OW  269  10.202  12.519   5.684
99479SOL    HW1  270  10.200  12.471   5.767
99479SOL    HW2  271  10.182  12.609   5.707
99480SOL     OW  272   3.332   8.442  10.057
99480SOL    HW1  273   3.243   8.439  10.091
99480SOL    HW2  274   3.332   8.380   9.984
99481SOL     OW  275  13.697   1.787   4.356
99481SOL    HW1  276  13.612   1.828   4.372
99481SOL    HW2  277  13.759   1.842   4.403
99482SOL     OW  278   2.767  13.915   0.120
99482SOL    HW1  279   2.721  13.974   0.181
99482SOL    HW2  280   2.727  13.830   0.134
99483SOL     OW  281   3.651   3.526   4.878
99483SOL    HW1  282   3.726   3.544   4.935
99483SOL    HW2  283   3.575   3.535   4.935
99484SOL     OW  284   8.753   8.403  11.234
99484SOL    HW1  285   8.818   8.358  11.288
99484SOL    HW2  286   8.674   8.349  11.242
99485SOL     OW  287   7.799   7.225  13.373
99485SOL    HW1  288   7.716   7.234  13.326
99485SOL    HW2  289   7.775   7.204  13.462
99486SOL     OW  290   9.047   1.570   7.021
99486SOL    HW1  291   9.068   1.656   6.986
99486SOL    HW2  292   9.132   1.527   7.033
99487SOL     OW  293   8.016   1.928   4.205
99487SOL    HW1  294   8.025   1.907   4.298
99487SOL    HW2  295   8.077   2.000   4.190
99488SOL     OW  296   1.643  10.724  14.061
99488SOL    HW1  297   1.659  10.643  14.110
99488SOL    HW2  298   1.616  10.695  13.974
99489SOL     OW  299   4.715  11.115  13.040
99489SOL    HW1  300   4.779  11.174  13.080
99489SOL    HW2  301   4.768  11.062  12.980
99490SOL     OW  302   5.606   7.049   4.880
99490SOL    HW1  303   5.612   7.053   4.785
99490SOL    HW2  304   5.691   7.018   4.909
99491SOL     OW  305   4.926  14.053   4.286
99491SOL    HW1  306   4.989  14.099   4.231
99491SOL    HW2  307   4.857  14.026   4.225
99492SOL     OW  308   7.138   4.387   4.355
99492SOL    HW1  309   7.220   4.340   4.337
99492SOL    HW2  310   7.072   4.342   4.303
99493SOL     OW  311   9.494  13.544   3.240
99493SOL    HW1  312   9.525  13.542   3.149
99493SOL    HW2  313   9.574  13.553   3.292
99494SOL     OW  314  10.472   5.754   5.101
99494SOL    HW1  315  10.468   5.812   5.025
99494SOL    HW2  316  10.536   5.795   5.160
99495SOL     OW  317   8.162   7.889   9.013
99495SOL    HW1  318   8.080   7.892   8.964
99495SOL    HW2  319   8.141   7.844   9.094
99496SOL     OW  320  14.051   4.739   2.414
99496SOL    HW1  321  13.978   4.679   2.402
99496SOL    HW2  322  14.083   4.720   2.503
99497SOL     OW  323   4.701  14.756  12.320
99497SOL    HW1  324   4.670  14.696  12.387
99497SOL    HW2  325   4.623  14.802  12.290
99498SOL     OW  326   7.037   6.191   4.802
99498SOL    HW1  327   6.949   6.173   4.837
99498SOL    HW2  328   7.065   6.269   4.850
99499SOL     OW  329  13.306  10.737   7.156
99499SOL    HW1  330  13.392  10.750   7.196
99499SOL    HW2  331  13.278  10.825   7.132
99500SOL     OW  332   2.315   8.757   7.518
99500SOL    HW1  333   2.251   8.828   7.510
99500SOL    HW2  334   2.266   8.687   7.561
99501SOL     OW  335   0.944   8.577   7.806
99501SOL    HW1  336   0.957   8.490   7.843
99501SOL    HW2  337   0.912   8.631   7.879
99502SOL     OW  338   2.843   7.068  10.371
99502SOL    HW1  339   2.751   7.095  10.372
99502SOL    HW2  340   2.847   7.000  10.303
99503SOL     OW  341   5.049   0.221  13.128
99503SOL    HW1  342   5.118   0.283  13.103
99503SOL    HW2  343   4.993   0.269  13.187
99504SOL     OW  344   1.683  12.056   5.332
99504SOL    HW1  345   1.636  12.008   5.264
99504SOL    HW2  346   1.774  12.056   5.303
99505SOL     OW  347   5.853   7.420  10.908
99505SOL    HW1  348   5.814   7.335  10.928
99505SOL    HW2  349   5.939   7.399  10.872
99506SOL     OW  350   3.987   2.485   2.721
99506SOL    HW1  351   4.049   2.501   2.792
99506SOL    HW2  352   3.909   2.450   2.764
99507SOL     OW  353   8.601   4.217   7.880
99507SOL    HW1  354   8.645   4.165   7.813
99507SOL    HW2  355   8.673   4.263   7.925
99508SOL     OW  356   2.405   3.206   5.670
99508SOL    HW1  357   2.479   3.154   5.701
99508SOL    HW2  358   2.331   3.145   5.667
99509SOL     OW  359  14.305   5.443   4.804
99509SOL    HW1  360  14.292   5.531   4.838
99509SOL    HW2  361  14.328   5.456   4.712
99510SOL     OW  362  11.557  13.208  12.838
99510SOL    HW1  363  11.566  13.259  12.919
99510SOL    HW2  364  11.571  13.271  12.768
99511SOL     OW  365  14.271   7.413   3.867
99511SOL    HW1  366  14.258   7.433   3.775
99511SOL    HW2  367  14.358   7.446   3.887
99512SOL     OW  368   5.718   3.559   7.735
99512SOL    HW1  369   5.673   3.480   7.764
99512SOL    HW2  370   5.784   3.576   7.803
99513SOL     OW  371   6.859   3.276  12.190
99513SOL    HW1  372   6.924   3.234  12.133
99513SOL    HW2  373   6.910   3.337  12.243
99514SOL     OW  374  11.251  14.214  12.009
99514SOL    HW1  375  11.302  14.286  12.045
99514SOL    HW2  376  11.297  14.190  11.928
99515SOL     OW  377   7.879  14.851  13.718
99515SOL    HW1  378   7.813   0.004  13.779
99515SOL    HW2  379   7.960  14.847  13.769
99516SOL     OW  380  12.952   2.880   4.394
99516SOL    HW1  381  13.017   2.927   4.343
99516SOL    HW2  382  13.002   2.821   4.449
99517SOL     OW  383   6.984   1.542   4.623
99517SOL    HW1  384   6.997   1.636   4.616
99517SOL    HW2  385   7.040   1.505   4.555
99518SOL     OW  386   0.065  14.604   1.759
99518SOL    HW1  387  14.849  14.599   1.749
99518SOL    HW2  388   0.099  14.534   1.702
99519SOL     OW  389  11.774  13.000   9.391
99519SOL    HW1  390  11.802  13.018   9.481
99519SOL    HW2  391  11.679  13.013   9.392
99520SOL     OW  392   8.212  14.032  13.461
99520SOL    HW1  393   8.210  13.939  13.438
99520SOL    HW2  394   8.125  14.064  13.436
99521SOL     OW  395   7.030   2.073   8.769
99521SOL    HW1  396   7.037   2.169   8.773
99521SOL    HW2  397   7.114   2.045   8.733
99522SOL     OW  398  13.496  12.805  10.783
99522SOL    HW1  399  13.413  12.847  10.806
99522SOL    HW2  400  13.474  12.713  10.767
99523SOL     OW  401   8.308  10.266   9.852
99523SOL    HW1  402   8.327  10.282   9.944
99523SOL    HW2  403   8.267  10.347   9.821
99524SOL     OW  404  11.526   9.478  13.910
99524SOL    HW1  405  11.481   9.442  13.986
99524SOL    HW2  406  11.616   9.493  13.939
99525SOL     OW  407   5.203   6.674  14.656
99525SOL    HW1  408   5.245   6.617  14.721
99525SOL    HW2  409   5.222   6.634  14.572
99526SOL     OW  410   0.347  14.464   4.942
99526SOL    HW1  411   0.323  14.403   5.012
99526SOL    HW2  412   0.303  14.429   4.864
99527SOL     OW  413  12.459  10.310   0.959
99527SOL    HW1  414  12.489  10.356   1.037
99527SOL    HW2  415  12.414  10.233   0.992
99528SOL     OW  416   2.817   2.730   5.316
99528SOL    HW1  417   2.886   2.663   5.315
99528SOL    HW2  418   2.766   2.711   5.395
99529SOL     OW  419  14.075   7.046   6.513
99529SOL    HW1  420  14.128   7.043   6.593
99529SOL    HW2  421  13.986   7.026   6.543
99530SOL     OW  422   7.833   4.636   0.323
99530SOL    HW1  423   7.915   4.674   0.289
99530SOL    HW2  424   7.807   4.697   0.392
99531SOL     OW  425  14.853   4.571  10.750
99531SOL    HW1  426   0.001   4.660  10.725
99531SOL    HW2  427   0.049   4.537  10.798
99532SOL     OW  428   9.333   7.652   7.358
99532SOL    HW1  429   9.329   7.574   7.304
99532SOL    HW2  430   9.309   7.622   7.446
99533SOL     OW  431   8.359  13.500   2.619
99533SOL    HW1  432   8.312  13.578   2.648
99533SOL    HW2  433   8.442  13.534   2.586
99534SOL     OW  434   3.815   8.589   5.602
99534SOL    HW1  435   3.865   8.650   5.547
99534SOL    HW2  436   3.733   8.635   5.621
99535SOL     OW  437  10.926   5.693   0.106
99535SOL    HW1  438  10.839   5.673   0.071
99535SOL    HW2  439  10.909   5.742   0.186
99536SOL     OW  440  11.518   0.450  10.840
99536SOL    HW1  441  11.475   0.412  10.917
99536SOL    HW2  442  11.571   0.522  10.875
99537SOL     OW  443   6.035   5.990   8.586
99537SOL    HW1  444   5.992   6.075   8.596
99537SOL    HW2  445   6.120   6.000   8.628
99538SOL     OW  446   7.222  10.405   4.228
99538SOL    HW1  447   7.315  10.424   4.214
99538SOL    HW2  448   7.178  10.448   4.155
99539SOL     OW  449   6.942  14.696   0.989
99539SOL    HW1  450   6.946  14.723   1.081
99539SOL    HW2  451   6.945  14.778   0.940
99540SOL     OW  452   6.012   0.027   3.562
99540SOL    HW1  453   5.940  14.844   3.559
99540SOL    HW2  454   6.005   0.068   3.649
99541SOL     OW  455   5.080   4.934   2.578
99541SOL    HW1  456   5.162   4.899   2.614
99541SOL    HW2  457   5.088   4.922   2.484
99542SOL     OW  458   9.337   8.369  12.593
99542SOL    HW1  459   9.317   8.425  12.518
99542SOL    HW2  460   9.305   8.282  12.568
99543SOL     OW  461   5.125   5.218   5.157
99543SOL    HW1  462   5.102   5.154   5.089
99543SOL    HW2  463   5.106   5.173   5.240
99544SOL     OW  464  14.702  13.306   8.042
99544SOL    HW1  465  14.628  13.271   7.993
99544SOL    HW2  466  14.708  13.398   8.015
99545SOL     OW  467   3.708  14.321   1.077
99545SOL    HW1  468   3.693  14.350   1.167
99545SOL    HW2  469   3.630  14.349   1.029
99546SOL     OW  470  11.848   5.936   6.453
99546SOL    HW1  471  11.934   5.966   6.425
99546SOL    HW2  472  11.837   5.974   6.541
99547SOL     OW  473   0.521   5.403   1.709
99547SOL    HW1  474   0.602   5.357   1.689
99547SOL    HW2  475   0.536   5.492   1.678
99548SOL     OW  476  12.560  14.034   9.746
99548SOL    HW1  477  12.488  13.984   9.709
99548SOL    HW2  478  12.603  14.074   9.671
99549SOL     OW  479  10.169  10.261  10.092
99549SOL    HW1  480  10.179  10.281   9.999
99549SOL    HW2  481  10.078  10.233  10.101
99550SOL     OW  482  12.933   6.488   9.429
99550SOL    HW1  483  12.891   6.548   9.490
99550SOL    HW2  484  12.975   6.545   9.364
99551SOL     OW  485   6.573  13.967  12.249
99551SOL    HW1  486   6.621  14.046  12.274
99551SOL    HW2  487   6.575  13.967  12.153
99552SOL     OW  488   0.671  12.102   2.602
99552SOL    HW1  489   0.605  12.169   2.584
99552SOL    HW2  490   0.720  12.094   2.520
99553SOL     OW  491  13.281   7.775   5.027
99553SOL    HW1  492  13.246   7.864   5.030
99553SOL    HW2  493  13.207   7.721   4.997
99554SOL     OW  494  13.826   7.944  10.057
99554SOL    HW1  495  13.851   7.996  10.133
99554SOL    HW2  496  13.741   7.906  10.081
99555SOL     OW  497  10.492  12.069   5.598
99555SOL    HW1  498  10.474  12.099   5.687
99555SOL    HW2  499  10.454  12.136   5.542
99556SOL     OW  500  13.214   6.484   0.686
99556SOL    HW1  501  13.303   6.465   0.654
99556SOL    HW2  502  13.171   6.399   0.686
99557SOL     OW  503   8.090  13.632   8.686
99557SOL    HW1  504   8.085  13.543   8.654
99557SOL    HW2  505   8.059  13.686   8.613
99558SOL     OW  506   3.277  11.297   4.372
99558SOL    HW1  507   3.186  11.271   4.359
99558SOL    HW2  508   3.323  11.216   4.392
99559SOL     OW  509  13.513   4.309   0.122
99559SOL    HW1  510  13.531   4.351   0.038
99559SOL    HW2  511  13.437   4.356   0.157
99560SOL     OW  512   5.048   8.622   2.661
99560SOL    HW1  513   5.035   8.554   2.595
99560SOL    HW2  514   5.049   8.704   2.611
99561SOL     OW  515  11.198   2.607   0.969
99561SOL    HW1  516  11.172   2.560   0.890
99561SOL    HW2  517  11.193   2.541   1.038
99562SOL     OW  518   2.765  10.106  13.400
99562SOL    HW1  519   2.846  10.155  13.384
99562SOL    HW2  520   2.728  10.146  13.478
99563SOL     OW  521   5.153  10.660   3.900
99563SOL    HW1  522   5.140  10.684   3.809
99563SOL    HW2  523   5.112  10.731   3.950
99564SOL     OW  524  11.864   9.111   4.294
99564SOL    HW1  525  11.810   9.151   4.363
99564SOL    HW2  526  11.801   9.082   4.228
99565SOL     OW  527   4.191   4.195   7.106
99565SOL    HW1  528   4.164   4.198   7.014
99565SOL    HW2  529   4.250   4.269   7.117
99566SOL     OW  530   2.197   9.524   1.732
99566SOL    HW1  531   2.130   9.455   1.734
99566SOL    HW2  532   2.157   9.596   1.683
99567SOL     OW  533   4.841   5.089   8.610
99567SOL    HW1  534   4.832   4.998   8.581
99567SOL    HW2  535   4.806   5.140   8.537
99568SOL     OW  536   5.629   4.125   3.520
99568SOL    HW1  537   5.573   4.202   3.530
99568SOL    HW2  538   5.712   4.160   3.487
99569SOL     OW  539   0.069   0.380   6.264
99569SOL    HW1  540   0.017   0.348   6.338
99569SOL    HW2  541   0.110   0.460   6.297
99570SOL     OW  542   6.737   2.741  12.519
99570SOL    HW1  543   6.739   2.817  12.460
99570SOL    HW2  544   6.661   2.691  12.491
99571SOL     OW  545  12.692   0.285  11.593
99571SOL    HW1  546  12.727   0.214  11.647
99571SOL    HW2  547  12.609   0.252  11.559
99572SOL     OW  548  11.885   7.256   6.931
99572SOL    HW1  549  11.923   7.175   6.897
99572SOL    HW2  550  11.800   7.263   6.888
99573SOL     OW  551   8.171   9.069   9.469
99573SOL    HW1  552   8.180   8.998   9.406
99573SOL    HW2  553   8.102   9.125   9.433
99574SOL     OW  554  14.221   7.321   7.600
99574SOL    HW1  555  14.253   7.377   7.671
99574SOL    HW2  556  14.298   7.273   7.571
99575SOL     OW  557  11.226   6.290   9.665
99575SOL    HW1  558  11.174   6.298   9.585
99575SOL    HW2  559  11.180   6.223   9.716
99576SOL     OW  560   4.668  11.393   6.263
99576SOL    HW1  561   4.580  11.361   6.242
99576SOL    HW2  562   4.727  11.323   6.233
99577SOL     OW  563   6.352  13.993  10.350
99577SOL    HW1  564   6.257  14.000  10.338
99577SOL    HW2  565   6.373  13.902  10.329
99578SOL     OW  566  10.555  12.006   2.430
99578SOL    HW1  567  10.493  11.967   2.491
99578SOL    HW2  568  10.597  12.077   2.480
99579SOL     OW  569   1.731   4.127  13.551
99579SOL    HW1  570   1.722   4.113  13.645
99579SOL    HW2  571   1.724   4.222  13.540
99580SOL     OW  572   6.009   7.831  10.944
99580SOL    HW1  573   5.945   7.784  10.997
99580SOL    HW2  574   6.010   7.786  10.860
99581SOL     OW  575   7.216   7.001  12.839
99581SOL    HW1  576   7.149   7.028  12.902
99581SOL    HW2  577   7.168   6.954  12.772
99582SOL     OW  578   4.803   3.514  13.929
99582SOL    HW1  579   4.739   3.517  13.857
99582SOL    HW2  580   4.820   3.606  13.949
99583SOL     OW  581   0.310   8.886   7.257
99583SOL    HW1  582   0.315   8.811   7.317
99583SOL    HW2  583   0.401   8.912   7.243
99584SOL     OW  584  14.292   7.622   1.134
99584SOL    HW1  585  14.271   7.683   1.063
99584SOL    HW2  586  14.336   7.676   1.200
99585SOL     OW  587   0.664   7.156  11.486
99585SOL    HW1  588   0.663   7.250  11.505
99585SOL    HW2  589   0.603   7.145  11.414
99586SOL     OW  590  13.144   0.438  14.680
99586SOL    HW1  591  13.236   0.431  14.652
99586SOL    HW2  592  13.111   0.348  14.677
99587SOL     OW  593   2.444  11.249   7.636
99587SOL    HW1  594   2.492  11.201   7.569
99587SOL    HW2  595   2.493  11.330   7.648
99588SOL     OW  596   8.095   7.381   4.197
99588SOL    HW1  597   8.131   7.419   4.277
99588SOL    HW2  598   8.002   7.404   4.200
99589SOL     OW  599   4.001   4.252  11.757
99589SOL    HW1  600   4.094   4.242  11.780
99589SOL    HW2  601   3.971   4.162  11.742
99590SOL     OW  602  11.039   2.182   8.952
99590SOL    HW1  603  11.127   2.194   8.987
99590SOL    HW2  604  11.036   2.239   8.875
99591SOL     OW  605  12.934   3.470   5.420
99591SOL    HW1  606  12.941   3.560   5.390
99591SOL    HW2  607  12.857   3.470   5.478
99592SOL     OW  608   6.723  11.119   8.994
99592SOL    HW1  609   6.726  11.120   8.898
99592SOL    HW2  610   6.777  11.194   9.020
99593SOL     OW  611   5.891  10.851  12.628
99593SOL    HW1  612   5.863  10.788  12.561
99593SOL    HW2  613   5.852  10.934  12.601
99594SOL     OW  614  12.114  13.338   4.602
99594SOL    HW1  615  12.020  13.354   4.615
99594SOL    HW2  616  12.122  13.243   4.604
99595SOL     OW  617   5.969  12.924   5.134
99595SOL    HW1  618   5.885  12.897   5.098
99595SOL    HW2  619   5.985  13.010   5.095
99596SOL     OW  620  13.376   5.842   1.766
99596SOL    HW1  621  13.358   5.842   1.672
99596SOL    HW2  622  13.293   5.865   1.807
99597SOL     OW  623   0.442   5.901   1.935
99597SOL    HW1  624   0.383   5.867   1.869
99597SOL    HW2  625   0.524   5.919   1.888
99598SOL     OW  626  14.676  13.172  10.668
99598SOL    HW1  627  14.598  13.227  10.670
99598SOL    HW2  628  14.688  13.149  10.576
99599SOL     OW  629  11.455   5.968   0.882
99599SOL    HW1  630  11.460   6.040   0.945
99599SOL    HW2  631  11.467   5.889   0.936
99600SOL     OW  632   0.731  11.883   8.753
99600SOL    HW1  633   0.670  11.952   8.779
99600SOL    HW2  634   0.817  11.923   8.760
99601SOL     OW  635   8.895  12.669   9.319
99601SOL    HW1  636   8.881  12.756   9.282
99601SOL    HW2  637   8.835  12.666   9.394
99602SOL     OW  638   3.159   9.743   6.368
99602SOL    HW1  639   3.200   9.808   6.425
99602SOL    HW2  640   3.066   9.766   6.368
99603SOL     OW  641   9.147   8.138   9.798
99603SOL    HW1  642   9.187   8.200   9.860
99603SOL    HW2  643   9.153   8.053   9.841
99604SOL     OW  644  14.503  10.901  13.600
99604SOL    HW1  645  14.528  10.831  13.660
99604SOL    HW2  646  14.529  10.869  13.513
99605SOL     OW  647   2.113  14.630  10.178
99605SOL    HW1  648   2.017  14.630  10.185
99605SOL    HW2  649   2.138  14.540  10.200
99606SOL     OW  650  13.240   2.948   3.219
99606SOL    HW1  651  13.329   2.984   3.215
99606SOL    HW2  652  13.253   2.856   3.241
99607SOL     OW  653  12.845  12.229   5.221
99607SOL    HW1  654  12.764  12.251   5.176
99607SOL    HW2  655  12.836  12.267   5.308
99608SOL     OW  656   6.948  14.328   4.664
99608SOL    HW1  657   6.983  14.338   4.753
99608SOL    HW2  658   6.891  14.251   4.669
99609SOL     OW  659   3.453   3.308  14.379
99609SOL    HW1  660   3.469   3.340  14.290
99609SOL    HW2  661   3.378   3.359  14.410
99610SOL     OW  662  14.495  10.108   6.434
99610SOL    HW1  663  14.451  10.191   6.451
99610SOL    HW2  664  14.588  10.131   6.424
99611SOL     OW  665   5.032   7.914   1.042
99611SOL    HW1  666   5.101   7.918   0.976
99611SOL    HW2  667   4.988   7.999   1.036
99612SOL     OW  668   8.058   3.654   9.712
99612SOL    HW1  669   8.021   3.741   9.699
99612SOL    HW2  670   8.031   3.605   9.634
99613SOL     OW  671   8.722   9.269  13.528
99613SOL    HW1  672   8.779   9.236  13.459
99613SOL    HW2  673   8.673   9.192  13.558
99614SOL     OW  674  11.447  12.926   4.110
99614SOL    HW1  675  11.355  12.948   4.129
99614SOL    HW2  676  11.497  12.976   4.174
99615SOL     OW  677  11.462   7.249   2.005
99615SOL    HW1  678  11.537   7.221   1.953
99615SOL    HW2  679  11.400   7.286   1.941
99616SOL     OW  680   2.522   3.715   3.209
99616SOL    HW1  681   2.481   3.794   3.176
99616SOL    HW2  682   2.526   3.727   3.304
99617SOL     OW  683  11.412   2.869   4.407
99617SOL    HW1  684  11.454   2.801   4.354
99617SOL    HW2  685  11.345   2.905   4.349
99618SOL     OW  686  10.713   9.591  12.537
99618SOL    HW1  687  10.619   9.577  12.528
99618SOL    HW2  688  10.725   9.615  12.629
99619SOL     OW  689   0.775   3.040  11.096
99619SOL    HW1  690   0.711   2.996  11.153
99619SOL    HW2  691   0.769   3.133  11.121
99620SOL     OW  692  14.408   6.111   3.933
99620SOL    HW1  693  14.430   6.203   3.920
99620SOL    HW2  694  14.327   6.098   3.884
99621SOL     OW  695   8.251  10.254  14.245
99621SOL    HW1  696   8.163  10.289  14.233
99621SOL    HW2  697   8.238  10.160  14.256
99622SOL     OW  698  14.181   6.372   0.471
99622SOL    HW1  699  14.145   6.402   0.555
99622SOL    HW2  700  14.275   6.363   0.487
99623SOL     OW  701   8.438  12.237   3.679
99623SOL    HW1  702   8.527  12.213   3.653
99623SOL    HW2  703   8.384  12.163   3.653
99624SOL     OW  704  13.838   0.403   9.112
99624SOL    HW1  705  13.817   0.400   9.019
99624SOL    HW2  706  13.762   0.444   9.153
99625SOL     OW  707   9.592   3.741   0.419
99625SOL    HW1  708   9.670   3.694   0.392
99625SOL    HW2  709   9.524   3.712   0.357
99626SOL     OW  710   9.649   7.667  13.095
99626SOL    HW1  711   9.697   7.640  13.173
99626SOL    HW2  712   9.677   7.757  13.078
99627SOL     OW  713   8.873  14.730  12.388
99627SOL    HW1  714   8.812  14.670  12.429
99627SOL    HW2  715   8.819  14.802  12.356
99628SOL     OW  716   7.465   7.153  14.303
99628SOL    HW1  717   7.418   7.156  14.386
99628SOL    HW2  718   7.427   7.078  14.257
99629SOL     OW  719   4.453   7.358   8.777
99629SOL    HW1  720   4.538   7.319   8.759
99629SOL    HW2  721   4.455   7.443   8.734
99630SOL     OW  722   4.640   1.312   1.657
99630SOL    HW1  723   4.640   1.366   1.578
99630SOL    HW2  724   4.579   1.241   1.639
99631SOL     OW  725  13.647  10.513   5.736
99631SOL    HW1  726  13.605  10.586   5.782
99631SOL    HW2  727  13.663  10.546   5.648
99632SOL     OW  728   2.202   2.852   0.924
99632SOL    HW1  729   2.248   2.871   1.006
99632SOL    HW2  730   2.119   2.813   0.951
99633SOL     OW  731  10.807   6.392  12.568
99633SOL    HW1  732  10.859   6.350  12.499
99633SOL    HW2  733  10.717   6.390  12.535
99634SOL     OW  734  14.404  14.675   4.995
99634SOL    HW1  735  14.329  14.735   5.003
99634SOL    HW2  736  14.414  14.662   4.901
99635SOL     OW  737   5.260   2.553  10.688
99635SOL    HW1  738   5.236   2.556  10.780
99635SOL    HW2  739   5.204   2.618  10.646
99636SOL     OW  740   4.060   0.692  10.244
99636SOL    HW1  741   4.140   0.736  10.274
99636SOL    HW2  742   4.010   0.759  10.198
99637SOL     OW  743   4.029  11.333  13.566
99637SOL    HW1  744   4.048  11.353  13.658
99637SOL    HW2  745   4.023  11.238  13.563
99638SOL     OW  746   4.489  13.958   2.236
99638SOL    HW1  747   4.441  13.876   2.248
99638SOL    HW2  748   4.443  14.021   2.291
99639SOL     OW  749  11.724  14.524   1.349
99639SOL    HW1  750  11.771  14.460   1.402
99639SOL    HW2  751  11.792  14.583   1.316
99640SOL     OW  752   4.053   9.888   9.664
99640SOL    HW1  753   4.065   9.983   9.668
99640SOL    HW2  754   4.119   9.858   9.602
99641SOL     OW  755  13.316   9.205   0.521
99641SOL    HW1  756  13.307   9.113   0.498
99641SOL    HW2  757  13.348   9.247   0.441
99642SOL     OW  758   0.135  11.100  12.003
99642SOL    HW1  759   0.043  11.087  12.029
99642SOL    HW2  760   0.186  11.059  12.073
99643SOL     OW  761   3.815   2.675  10.109
99643SOL    HW1  762   3.842   2.591  10.146
99643SOL    HW2  763   3.855   2.740  10.166
99644SOL     OW  764   8.431   7.594  13.873
99644SOL    HW1  765   8.521   7.566  13.892
99644SOL    HW2  766   8.436   7.640  13.790
99645SOL     OW  767  13.680   1.469  14.447
99645SOL    HW1  768  13.613   1.469  14.378
99645SOL    HW2  769  13.632   1.445  14.526
99646SOL     OW  770   5.650  10.130   0.528
99646SOL    HW1  771   5.740  10.140   0.496
99646SOL    HW2  772   5.620  10.047   0.490
99647SOL     OW  773   2.166   0.581  12.840
99647SOL    HW1  774   2.101   0.630  12.788
99647SOL    HW2  775   2.116   0.509  12.878
99648SOL     OW  776   3.918   3.467   2.365
99648SOL    HW1  777   3.886   3.433   2.448
99648SOL    HW2  778   3.979   3.537   2.389
99649SOL     OW  779  12.175  12.039   5.376
99649SOL    HW1  780  12.194  11.977   5.305
99649SOL    HW2  781  12.126  12.110   5.333
99650SOL     OW  782   2.124   2.538   4.907
99650SOL    HW1  783   2.138   2.514   4.998
99650SOL    HW2  784   2.030   2.553   4.900
99651SOL     OW  785   1.248   1.695   8.322
99651SOL    HW1  786   1.165   1.706   8.369
99651SOL    HW2  787   1.235   1.740   8.239
99652SOL     OW  788   0.664   9.339   8.741
99652SOL    HW1  789   0.658   9.423   8.696
99652SOL    HW2  790   0.755   9.313   8.732
99653SOL     OW  791   0.953   9.228   4.319
99653SOL    HW1  792   1.039   9.199   4.349
99653SOL    HW2  793   0.971   9.283   4.243
99654SOL     OW  794  14.110   9.269  11.796
99654SOL    HW1  795  14.173   9.229  11.735
99654SOL    HW2  796  14.092   9.201  11.860
99655SOL     OW  797  11.368   6.199  14.558
99655SOL    HW1  798  11.289   6.207  14.611
99655SOL    HW2  799  11.431   6.258  14.599
99656SOL     OW  800   0.264  14.724  11.707
99656SOL    HW1  801   0.323  14.738  11.781
99656SOL    HW2  802   0.317  14.745  11.630
99657SOL     OW  803  12.769   0.310  13.250
99657SOL    HW1  804  12.690   0.307  13.304
99657SOL    HW2  805  12.795   0.402  13.251
99658SOL     OW  806  14.805  12.154  10.266
99658SOL    HW1  807  14.742  12.131  10.334
99658SOL    HW2  808  14.761  12.224  10.217
99659SOL     OW  809   3.992  14.290   7.496
99659SOL    HW1  810   3.986  14.303   7.591
99659SOL    HW2  811   4.036  14.369   7.464
99660SOL     OW  812   3.393  13.022  12.524
99660SOL    HW1  813   3.402  13.028  12.429
99660SOL    HW2  814   3.403  12.929  12.543
99661SOL     OW  815  14.326  11.121  13.455
99661SOL    HW1  816  14.394  11.081  13.509
99661SOL    HW2  817  14.343  11.215  13.461
99662SOL     OW  818   9.331   2.981   2.561
99662SOL    HW1  819   9.297   2.895   2.587
99662SOL    HW2  820   9.302   3.040   2.631
99663SOL     OW  821  11.278  13.503  13.501
99663SOL    HW1  822  11.341  13.558  13.454
99663SOL    HW2  823  11.213  13.479  13.435
99664SOL     OW  824   0.745   4.455  10.759
99664SOL    HW1  825   0.761   4.546  10.782
99664SOL    HW2  826   0.822   4.408  10.792
99665SOL     OW  827   7.168   4.963   1.690
99665SOL    HW1  828   7.122   4.921   1.617
99665SOL    HW2  829   7.104   5.024   1.726
99666SOL     OW  830  10.686   1.798   2.501
99666SOL    HW1  831  10.712   1.718   2.457
99666SOL    HW2  832  10.658   1.856   2.431
99667SOL     OW  833  12.110   1.463   9.141
99667SOL    HW1  834  12.048   1.390   9.133
99667SOL    HW2  835  12.152   1.449   9.226
99668SOL     OW  836   7.981   6.353   7.431
99668SOL    HW1  837   7.902   6.323   7.476
99668SOL    HW2  838   7.951   6.379   7.344
99669SOL     OW  839  10.833   2.211   3.450
99669SOL    HW1  840  10.875   2.207   3.364
99669SOL    HW2  841  10.887   2.271   3.501
99670SOL     OW  842   0.370   0.850  10.292
99670SOL    HW1  843   0.334   0.836  10.204
99670SOL    HW2  844   0.294   0.873  10.345
99671SOL     OW  845  10.293  12.547   2.214
99671SOL    HW1  846  10.238  12.546   2.135
99671SOL    HW2  847  10.234  12.519   2.284
99672SOL     OW  848   1.293  10.049  12.222
99672SOL    HW1  849   1.260   9.980  12.164
99672SOL    HW2  850   1.215  10.090  12.259
99673SOL     OW  851  11.326   2.435   1.750
99673SOL    HW1  852  11.379   2.421   1.671
99673SOL    HW2  853  11.273   2.512   1.729
99674SOL     OW  854   9.164   3.061   8.060
99674SOL    HW1  855   9.109   3.101   7.993
99674SOL    HW2  856   9.153   2.967   8.047
99675SOL     OW  857  10.847   5.011   4.196
99675SOL    HW1  858  10.784   5.032   4.127
99675SOL    HW2  859  10.831   4.918   4.215
99676SOL     OW  860   7.983  12.819  14.412
99676SOL    HW1  861   7.922  12.750  14.387
99676SOL    HW2  862   7.947  12.856  14.492
99677SOL     OW  863   5.184   0.656  10.759
99677SOL    HW1  864   5.103   0.670  10.709
99677SOL    HW2  865   5.161   0.680  10.848
99678SOL     OW  866   7.940   6.731   8.519
99678SOL    HW1  867   7.993   6.788   8.464
99678SOL    HW2  868   7.855   6.775   8.524
99679SOL     OW  869   5.047   3.004   5.921
99679SOL    HW1  870   5.039   2.976   5.830
99679SOL    HW2  871   5.132   2.968   5.949
99680SOL     OW  872   1.548   4.256   2.345
99680SOL    HW1  873   1.545   4.341   2.387
99680SOL    HW2  874   1.470   4.211   2.376
99681SOL     OW  875  11.439   8.271  11.339
99681SOL    HW1  876  11.510   8.243  11.397
99681SOL    HW2  877  11.395   8.190  11.315
99682SOL     OW  878   0.040   0.978   8.878
99682SOL    HW1  879   0.095   0.988   8.801
99682SOL    HW2  880   0.031   0.883   8.888
99683SOL     OW  881   1.230   4.186  14.076
99683SOL    HW1  882   1.177   4.234  14.139
99683SOL    HW2  883   1.174   4.179  13.998
99684SOL     OW  884   4.356   7.196  11.267
99684SOL    HW1  885   4.304   7.253  11.211
99684SOL    HW2  886   4.419   7.155  11.208
99685SOL     OW  887   6.550   2.908   7.532
99685SOL    HW1  888   6.622   2.859   7.571
99685SOL    HW2  889   6.589   2.990   7.503
99686SOL     OW  890  13.412  11.043   8.615
99686SOL    HW1  891  13.413  11.109   8.684
99686SOL    HW2  892  13.420  11.093   8.534
99687SOL     OW  893   6.484  13.941   4.358
99687SOL    HW1  894   6.523  13.856   4.340
99687SOL    HW2  895   6.480  13.984   4.272
99688SOL     OW  896  12.023   6.943   1.261
99688SOL    HW1  897  12.079   6.938   1.183
99688SOL    HW2  898  11.971   7.022   1.247
99689SOL     OW  899  10.749   9.898   3.264
99689SOL    HW1  900  10.671   9.941   3.229
99689SOL    HW2  901  10.724   9.869   3.351
99690SOL     OW  902  12.361   7.208  12.052
99690SOL    HW1  903  12.304   7.173  11.983
99690SOL    HW2  904  12.317   7.185  12.134
99691SOL     OW  905  14.750   3.833   6.751
99691SOL    HW1  906  14.799   3.826   6.670
99691SOL    HW2  907  14.694   3.910   6.739
99692SOL     OW  908  11.426  12.302  13.940
99692SOL    HW1  909  11.414  12.360  14.015
99692SOL    HW2  910  11.474  12.354  13.876
99693SOL     OW  911   6.037   3.996   8.770
99693SOL    HW1  912   6.013   4.078   8.726
99693SOL    HW2  913   6.132   4.000   8.778
99694SOL     OW  914  13.664   3.252   6.119
99694SOL    HW1  915  13.695   3.184   6.178
99694SOL    HW2  916  13.573   3.230   6.100
99695SOL     OW  917   0.652   5.936   1.780
99695SOL    HW1  918   0.744   5.910   1.775
99695SOL    HW2  919   0.647   6.015   1.726
99696SOL     OW  920   9.128   0.555   3.597
99696SOL    HW1  921   9.071   0.560   3.520
99696SOL    HW2  922   9.213   0.586   3.567
99697SOL     OW  923   9.216  10.385  12.491
99697SOL    HW1  924   9.242  10.474  12.470
99697SOL    HW2  925   9.248  10.370  12.580
99698SOL     OW  926   9.831   5.358  14.050
99698SOL    HW1  927   9.840   5.427  14.115
99698SOL    HW2  928   9.797   5.283  14.099
99699SOL     OW  929  12.252   1.018   6.256
99699SOL    HW1  930  12.199   0.969   6.319
99699SOL    HW2  931  12.342   0.994   6.278
99700SOL     OW  932   3.392   0.240  11.457
99700SOL    HW1  933   3.402   0.277  11.369
99700SOL    HW2  934   3.468   0.184  11.468
99701SOL     OW  935  10.788   7.873   0.532
99701SOL    HW1  936  10.710   7.924   0.555
99701SOL    HW2  937  10.856   7.939   0.516
99702SOL     OW  938   6.292   5.317   2.666
99702SOL    HW1  939   6.235   5.391   2.688
99702SOL    HW2  940   6.291   5.262   2.745
99703SOL     OW  941  11.208  10.998   8.293
99703SOL    HW1  942  11.254  11.068   8.339
99703SOL    HW2  943  11.255  10.918   8.319
99704SOL     OW  944   4.157  12.462   5.119
99704SOL    HW1  945   4.095  12.534   5.110
99704SOL    HW2  946   4.194  12.450   5.031
99705SOL     OW  947   6.677   8.772  12.563
99705SOL    HW1  948   6.640   8.684  12.557
99705SOL    HW2  949   6.603   8.828  12.588
99706SOL     OW  950   5.665   6.279  12.694
99706SOL    HW1  951   5.638   6.368  12.671
99706SOL    HW2  952   5.582   6.233  12.713
99707SOL     OW  953   8.970   6.861   3.326
99707SOL    HW1  954   8.901   6.914   3.366
99707SOL    HW2  955   8.950   6.771   3.353
99708SOL     OW  956   2.080   8.030  11.365
99708SOL    HW1  957   2.075   7.990  11.452
99708SOL    HW2  958   2.109   8.120  11.382
99709SOL     OW  959   4.488   1.647   4.298
99709SOL    HW1  960   4.517   1.558   4.280
99709SOL    HW2  961   4.515   1.663   4.389
99710SOL     OW  962   3.980   7.343   1.665
99710SOL    HW1  963   3.949   7.428   1.634
99710SOL    HW2  964   4.067   7.334   1.626
99711SOL     OW  965  11.916  13.017   0.939
99711SOL    HW1  966  11.959  12.957   1.000
99711SOL    HW2  967  11.905  13.098   0.989
99712SOL     OW  968   7.135  13.228  11.489
99712SOL    HW1  969   7.096  13.174  11.558
99712SOL    HW2  970   7.194  13.169  11.442
99713SOL     OW  971   7.695   4.419   3.077
99713SOL    HW1  972   7.647   4.455   3.003
99713SOL    HW2  973   7.777   4.387   3.039
99714SOL     OW  974   2.557   9.373   2.784
99714SOL    HW1  975   2.466   9.383   2.755
99714SOL    HW2  976   2.568   9.437   2.854
99715SOL     OW  977  13.451   1.461   9.244
99715SOL    HW1  978  13.490   1.450   9.158
99715SOL    HW2  979  13.521   1.437   9.305
99716SOL     OW  980   6.785  12.795   7.940
99716SOL    HW1  981   6.816  12.871   7.988
99716SOL    HW2  982   6.858  12.733   7.942
99717SOL     OW  983   8.977  10.928  11.753
99717SOL    HW1  984   9.071  10.943  11.764
99717SOL    HW2  985   8.954  10.975  11.673
99718SOL     OW  986   8.461  11.584  13.080
99718SOL    HW1  987   8.454  11.599  12.986
99718SOL    HW2  988   8.400  11.512  13.097
99719SOL     OW  989  14.374   6.790   3.280
99719SOL    HW1  990  14.310   6.726   3.250
99719SOL    HW2  991  14.458   6.756   3.249
99720SOL     OW  992   6.205  10.938   3.602
99720SOL    HW1  993   6.292  10.965   3.573
99720SOL    HW2  994   6.197  10.975   3.690
99721SOL     OW  995  12.786   0.825   3.228
99721SOL    HW1  996  12.809   0.887   3.158
99721SOL    HW2  997  12.812   0.870   3.308
99722SOL     OW  998  13.620  13.489   6.358
99722SOL    HW1  999  13.562  13.456   6.290
99722SOL    HW2 1000  13.690  13.424   6.364
99723SOL     OW 1001   7.727   0.976  12.970
99723SOL    HW1 1002   7.675   1.049  13.003
99723SOL    HW2 1003   7.801   0.969  13.030
99724SOL     OW 1004   2.185   4.086  13.123
99724SOL    HW1 1005   2.280   4.076  13.133
99724SOL    HW2 1006   2.161   4.153  13.187
99725SOL     OW 1007  14.100  11.390   3.328
99725SOL    HW1 1008  14.021  11.351   3.289
99725SOL    HW2 1009  14.108  11.475   3.284
99726SOL     OW 1010   7.522   1.141   3.917
99726SOL    HW1 1011   7.438   1.186   3.928
99726SOL    HW2 1012   7.499   1.048   3.908
99727SOL     OW 1013   9.776   6.611   6.867
99727SOL    HW1 1014   9.755   6.642   6.779
99727SOL    HW2 1015   9.745   6.680   6.925
99728SOL     OW 1016   3.790   3.599   5.907
99728SOL    HW1 1017   3.719   3.636   5.854
99728SOL    HW2 1018   3.807   3.666   5.973
99729SOL     OW 1019   8.693   9.520   6.709
99729SOL    HW1 1020   8.622   9.493   6.766
99729SOL    HW2 1021   8.756   9.448   6.713
99730SOL     OW 1022  12.211   3.881   1.793
99730SOL    HW1 1023  12.126   3.859   1.753
99730SOL    HW2 1024  12.196   3.873   1.887
99731SOL     OW 1025   1.627  12.307   7.713
99731SOL    HW1 1026   1.693  12.369   7.745
99731SOL    HW2 1027   1.676  12.226   7.697
99732SOL     OW 1028  14.063   2.503   2.240
99732SOL    HW1 1029  13.989   2.500   2.179
99732SOL    HW2 1030  14.117   2.428   2.216
99733SOL     OW 1031   7.466   2.829  13.764
99733SOL    HW1 1032   7.467   2.925  13.765
99733SOL    HW2 1033   7.417   2.804  13.843
99734SOL     OW 1034   8.413  14.002  12.925
99734SOL    HW1 1035   8.337  13.956  12.962
99734SOL    HW2 1036   8.467  13.932  12.889
99735SOL     OW 1037   3.285   3.808  12.483
99735SOL    HW1 1038   3.330   3.889  12.460
99735SOL    HW2 1039   3.286   3.757  12.402
99736SOL     OW 1040  10.628   5.461  14.375
99736SOL    HW1 1041  10.553   5.425  14.422
99736SOL    HW2 1042  10.631   5.553  14.403
99737SOL     OW 1043  14.034   4.104   0.633
99737SOL    HW1 1044  14.092   4.094   0.709
99737SOL    HW2 1045  13.970   4.170   0.659
99738SOL     OW 1046   2.536  13.796   4.900
99738SOL    HW1 1047   2.466  13.739   4.867
99738SOL    HW2 1048   2.595  13.806   4.825
99739SOL     OW 1049   2.152   2.645   9.482
99739SOL    HW1 1050   2.071   2.674   9.442
99739SOL    HW2 1051   2.217   2.652   9.412
99740SOL     OW 1052   2.758   4.083   3.002
99740SOL    HW1 1053   2.760   4.005   3.057
99740SOL    HW2 1054   2.798   4.151   3.055
99741SOL     OW 1055  14.451   3.066   2.398
99741SOL    HW1 1056  14.534   3.075   2.444
99741SOL    HW2 1057  14.472   3.014   2.321
99742SOL     OW 1058  14.454   5.499   0.696
99742SOL    HW1 1059  14.379   5.553   0.672
99742SOL    HW2 1060  14.462   5.509   0.791
99743SOL     OW 1061   7.338   9.914   3.292
99743SOL    HW1 1062   7.396   9.838   3.296
99743SOL    HW2 1063   7.393   9.985   3.260
99744SOL     OW 1064   5.015   0.161   4.288
99744SOL    HW1 1065   5.058   0.152   4.203
99744SOL    HW2 1066   4.977   0.249   4.286
99745SOL     OW 1067   9.068  10.788   8.395
99745SOL    HW1 1068   9.050  10.805   8.487
99745SOL    HW2 1069   8.994  10.736   8.365
99746SOL     OW 1070  10.661   3.563   0.382
99746SOL    HW1 1071  10.732   3.608   0.336
99746SOL    HW2 1072  10.609   3.633   0.421
99747SOL     OW 1073   5.545   9.020   0.147
99747SOL    HW1 1074   5.631   9.015   0.188
99747SOL    HW2 1075   5.515   9.109   0.164
99748SOL     OW 1076   4.668   1.936  14.350
99748SOL    HW1 1077   4.686   2.002  14.416
99748SOL    HW2 1078   4.710   1.856  14.383
99749SOL     OW 1079   1.537  12.994   4.802
99749SOL    HW1 1080   1.448  12.958   4.805
99749SOL    HW2 1081   1.538  13.060   4.871
99750SOL     OW 1082   0.303  12.441   6.947
99750SOL    HW1 1083   0.208  12.455   6.944
99750SOL    HW2 1084   0.340  12.529   6.949
99751SOL     OW 1085   1.844   9.305  10.748
99751SOL    HW1 1086   1.818   9.218  10.778
99751SOL    HW2 1087   1.761   9.347  10.724
99752SOL     OW 1088   3.214   8.433   3.022
99752SOL    HW1 1089   3.153   8.399   3.087
99752SOL    HW2 1090   3.192   8.386   2.941
99753SOL     OW 1091   5.194   6.369   3.769
99753SOL    HW1 1092   5.105   6.386   3.800
99753SOL    HW2 1093   5.221   6.290   3.815
99754SOL     OW 1094   8.627   5.804   0.089
99754SOL    HW1 1095   8.681   5.811   0.010
99754SOL    HW2 1096   8.663   5.728   0.136
99755SOL     OW 1097   0.914   7.524  11.493
99755SOL    HW1 1098   0.981   7.589  11.474
99755SOL    HW2 1099   0.936   7.450  11.437
99756SOL     OW 1100   5.921   4.346   6.671
99756SOL    HW1 1101   5.886   4.373   6.756
99756SOL    HW2 1102   6.006   4.306   6.693
99757SOL     OW 1103   9.479   8.153   9.698
99757SOL    HW1 1104   9.500   8.069   9.658
99757SOL    HW2 1105   9.385   8.162   9.689
99758SOL     OW 1106   9.506   7.333  12.615
99758SOL    HW1 1107   9.520   7.367  12.527
99758SOL    HW2 1108   9.438   7.389  12.652
99759SOL     OW 1109   4.975   8.962  10.658
99759SOL    HW1 1110   4.972   8.877  10.614
99759SOL    HW2 1111   5.012   8.944  10.743
99760SOL     OW 1112  13.453  11.748   7.673
99760SOL    HW1 1113  13.544  11.757   7.643
99760SOL    HW2 1114  13.458  11.758   7.768
99761SOL     OW 1115   7.431  14.164   8.332
99761SOL    HW1 1116   7.452  14.249   8.293
99761SOL    HW2 1117   7.399  14.111   8.260
99762SOL     OW 1118   3.444  11.896  13.400
99762SOL    HW1 1119   3.423  11.966  13.462
99762SOL    HW2 1120   3.418  11.816  13.446
99763SOL     OW 1121   8.560   1.832   8.681
99763SOL    HW1 1122   8.478   1.870   8.649
99763SOL    HW2 1123   8.602   1.904   8.730
99764SOL     OW 1124   2.615   7.824  14.535
99764SOL    HW1 1125   2.640   7.753  14.476
99764SOL    HW2 1126   2.561   7.781  14.602
99765SOL     OW 1127  10.310  12.700   2.522
99765SOL    HW1 1128  10.248  12.742   2.461
99765SOL    HW2 1129  10.335  12.619   2.478
99766SOL     OW 1130   5.667   6.501   4.232
99766SOL    HW1 1131   5.594   6.477   4.175
99766SOL    HW2 1132   5.732   6.540   4.173
99767SOL     OW 1133   5.341   4.084   7.007
99767SOL    HW1 1134   5.435   4.064   7.008
99767SOL    HW2 1135   5.320   4.093   6.914
99768SOL     OW 1136  11.592   5.794  12.938
99768SOL    HW1 1137  11.496   5.791  12.943
99768SOL    HW2 1138  11.610   5.834  12.853
99769SOL     OW 1139   7.100   1.762  14.283
99769SOL    HW1 1140   7.158   1.686  14.283
99769SOL    HW2 1141   7.095   1.789  14.191
99770SOL     OW 1142  12.972   3.648  14.509
99770SOL    HW1 1143  12.903   3.587  14.535
99770SOL    HW2 1144  12.960   3.659  14.415
99771SOL     OW 1145   8.188   7.172   1.066
99771SOL    HW1 1146   8.106   7.192   1.112
99771SOL    HW2 1147   8.186   7.077   1.053
99772SOL     OW 1148   6.153  14.173  11.812
99772SOL    HW1 1149   6.229  14.199  11.759
99772SOL    HW2 1150   6.105  14.111  11.757
99773SOL     OW 1151  11.045   2.804   2.125
99773SOL    HW1 1152  11.053   2.886   2.174
99773SOL    HW2 1153  10.977   2.821   2.060
99774SOL     OW 1154   8.004   6.767   5.964
99774SOL    HW1 1155   8.071   6.700   5.968
99774SOL    HW2 1156   7.992   6.784   5.871
99775SOL     OW 1157   4.654   3.197   4.364
99775SOL    HW1 1158   4.604   3.119   4.388
99775SOL    HW2 1159   4.598   3.244   4.303
99776SOL     OW 1160   1.386  14.722  11.751
99776SOL    HW1 1161   1.455  14.656  11.752
99776SOL    HW2 1162   1.313  14.680  11.706
99777SOL     OW 1163  11.818   8.637  11.661
99777SOL    HW1 1164  11.787   8.626  11.571
99777SOL    HW2 1165  11.838   8.730  11.668
99778SOL     OW 1166   7.455   1.735   5.497
99778SOL    HW1 1167   7.453   1.830   5.511
99778SOL    HW2 1168   7.363   1.709   5.491
99779SOL     OW 1169   2.731   0.214  11.851
99779SOL    HW1 1170   2.765   0.145  11.907
99779SOL    HW2 1171   2.636   0.213  11.865
99780SOL     OW 1172   0.319   6.397  12.099
99780SOL    HW1 1173   0.414   6.394  12.109
99780SOL    HW2 1174   0.302   6.483  12.059
99781SOL     OW 1175  10.745   7.725   7.730
99781SOL    HW1 1176  10.778   7.637   7.712
99781SOL    HW2 1177  10.702   7.718   7.815
99782SOL     OW 1178   6.586   9.536   8.776
99782SOL    HW1 1179   6.610   9.450   8.743
99782SOL    HW2 1180   6.668   9.573   8.809
99783SOL     OW 1181   1.475   0.738   9.698
99783SOL    HW1 1182   1.408   0.689   9.745
99783SOL    HW2 1183   1.451   0.830   9.712
99784SOL     OW 1184  11.268   1.260   5.875
99784SOL    HW1 1185  11.360   1.268   5.848
99784SOL    HW2 1186  11.235   1.350   5.871
99785SOL     OW 1187   5.765   0.045   2.327
99785SOL    HW1 1188   5.829   0.060   2.257
99785SOL    HW2 1189   5.801  14.852   2.378
99786SOL     OW 1190   6.081   3.592   1.235
99786SOL    HW1 1191   6.043   3.504   1.230
99786SOL    HW2 1192   6.160   3.580   1.288
99787SOL     OW 1193  14.625   6.182   6.829
99787SOL    HW1 1194  14.703   6.128   6.817
99787SOL    HW2 1195  14.585   6.150   6.909
99788SOL     OW 1196  11.601  12.729   0.113
99788SOL    HW1 1197  11.583  12.731   0.207
99788SOL    HW2 1198  11.670  12.794   0.100
99789SOL     OW 1199  12.569  11.087   7.410
99789SOL    HW1 1200  12.649  11.124   7.373
99789SOL    HW2 1201  12.565  10.998   7.375
99790SOL     OW 1202   0.867  11.733   0.455
99790SOL    HW1 1203   0.823  11.815   0.430
99790SOL    HW2 1204   0.953  11.761   0.486
99791SOL     OW 1205   8.801   2.974   3.022
99791SOL    HW1 1206   8.825   3.062   2.994
99791SOL    HW2 1207   8.729   2.949   2.964
99792SOL     OW 1208   8.186  10.433   4.308
99792SOL    HW1 1209   8.100  10.441   4.267
99792SOL    HW2 1210   8.168  10.390   4.392
99793SOL     OW 1211   4.100   1.226  13.841
99793SOL    HW1 1212   4.167   1.167  13.806
99793SOL    HW2 1213   4.147   1.306  13.863
99794SOL     OW 1214   2.810   3.340   0.041
99794SOL    HW1 1215   2.727   3.321   0.085
99794SOL    HW2 1216   2.790   3.333  14.827
99795SOL     OW 1217  13.967   4.246  10.633
99795SOL    HW1 1218  13.934   4.169  10.586
99795SOL    HW2 1219  13.921   4.244  10.717
99796SOL     OW 1220  13.064   3.400   3.471
99796SOL    HW1 1221  13.062   3.304   3.479
99796SOL    HW2 1222  13.070   3.431   3.561
99797SOL     OW 1223  12.564   0.665   5.030
99797SOL    HW1 1224  12.574   0.750   4.987
99797SOL    HW2 1225  12.567   0.685   5.123
99798SOL     OW 1226  10.266   9.158   9.298
99798SOL    HW1 1227  10.218   9.189   9.221
99798SOL    HW2 1228  10.355   9.145   9.267
99799SOL     OW 1229   8.359   3.324   9.183
99799SOL    HW1 1230   8.347   3.309   9.277
99799SOL    HW2 1231   8.407   3.407   9.178
99800SOL     OW 1232   0.336  12.795  13.612
99800SOL    HW1 1233   0.377  12.813  13.697
99800SOL    HW2 1234   0.264  12.857  13.606
99801SOL     OW 1235  13.999   5.334   3.230
99801SOL    HW1 1236  13.934   5.343   3.161
99801SOL    HW2 1237  14.044   5.418   3.232
99802SOL     OW 1238   4.575   5.128   0.023
99802SOL    HW1 1239   4.660   5.100  14.869
99802SOL    HW2 1240   4.560   5.213  14.861
99803SOL     OW 1241   5.441   6.690   9.633
99803SOL    HW1 1242   5.404   6.709   9.547
99803SOL    HW2 1243   5.366   6.689   9.692
99804SOL     OW 1244   1.251  10.577   7.576
99804SOL    HW1 1245   1.178  10.606   7.630
99804SOL    HW2 1246   1.224  10.491   7.543
99805SOL     OW 1247   3.995   6.772   0.240
99805SOL    HW1 1248   4.015   6.679   0.227
99805SOL    HW2 1249   3.905   6.782   0.208
99806SOL     OW 1250  13.839  12.994   5.701
99806SOL    HW1 1251  13.934  12.993   5.715
99806SOL    HW2 1252  13.828  12.970   5.609
99807SOL     OW 1253  12.881   2.261   1.712
99807SOL    HW1 1254  12.862   2.167   1.707
99807SOL    HW2 1255  12.965   2.270   1.667
99808SOL     OW 1256   2.422  10.414  12.159
99808SOL    HW1 1257   2.422  10.445  12.068
99808SOL    HW2 1258   2.336  10.438  12.192
99809SOL     OW 1259   4.790   3.758   9.996
99809SOL    HW1 1260   4.734   3.806   9.934
99809SOL    HW2 1261   4.848   3.825  10.032
99810SOL     OW 1262   1.705   0.872  10.184
99810SOL    HW1 1263   1.765   0.921  10.240
99810SOL    HW2 1264   1.626   0.861  10.237
99811SOL     OW 1265   2.030   1.801   8.949
99811SOL    HW1 1266   1.991   1.829   9.031
99811SOL    HW2 1267   1.992   1.715   8.932
99812SOL     OW 1268  13.195   5.562  14.084
99812SOL    HW1 1269  13.282   5.545  14.121
99812SOL    HW2 1270  13.212   5.581  13.992
99813SOL     OW 1271   2.086   9.325  11.897
99813SOL    HW1 1272   2.169   9.307  11.940
99813SOL    HW2 1273   2.029   9.253  11.923
99814SOL     OW 1274  10.630   1.425  13.561
99814SOL    HW1 1275  10.674   1.427  13.647
99814SOL    HW2 1276  10.551   1.478  13.574
99815SOL     OW 1277   2.475  12.880   0.038
99815SOL    HW1 1278   2.396  12.831   0.058
99815SOL    HW2 1279   2.514  12.834  14.843
99816SOL     OW 1280   3.576  12.959   7.351
99816SOL    HW1 1281   3.563  13.024   7.420
99816SOL    HW2 1282   3.600  12.879   7.397
99817SOL     OW 1283   8.693   0.631  12.586
99817SOL    HW1 1284   8.702   0.592  12.673
99817SOL    HW2 1285   8.783   0.651  12.559
99818SOL     OW 1286   8.961   7.507   3.127
99818SOL    HW1 1287   8.896   7.534   3.063
99818SOL    HW2 1288   8.910   7.468   3.198
99819SOL     OW 1289   7.685   5.435  13.810
99819SOL    HW1 1290   7.749   5.451  13.741
99819SOL    HW2 1291   7.720   5.479  13.887
99820SOL     OW 1292   5.036  11.179   5.685
99820SOL    HW1 1293   5.032  11.266   5.644
99820SOL    HW2 1294   4.949  11.142   5.670
99821SOL     OW 1295  12.341   1.322   1.156
99821SOL    HW1 1296  12.260   1.272   1.170
99821SOL    HW2 1297  12.317   1.413   1.175
99822SOL     OW 1298   0.871  12.847   8.693
99822SOL    HW1 1299   0.952  12.895   8.710
99822SOL    HW2 1300   0.872  12.775   8.756
99823SOL     OW 1301  14.728   7.719   5.451
99823SOL    HW1 1302  14.663   7.700   5.383
99823SOL    HW2 1303  14.682   7.700   5.533
99824SOL     OW 1304  14.490   4.193   0.063
99824SOL    HW1 1305  14.511   4.109   0.106
99824SOL    HW2 1306  14.395   4.198   0.066
99825SOL     OW 1307   6.657   5.203   4.399
99825SOL    HW1 1308   6.721   5.213   4.328
99825SOL    HW2 1309   6.646   5.109   4.408
99826SOL     OW 1310  10.797  11.704  10.082
99826SOL    HW1 1311  10.711  11.737  10.108
99826SOL    HW2 1312  10.779  11.647  10.007
99827SOL     OW 1313   5.827  12.777  12.948
99827SOL    HW1 1314   5.845  12.687  12.922
99827SOL    HW2 1315   5.906  12.806  12.992
99828SOL     OW 1316   5.209   6.595   1.794
99828SOL    HW1 1317   5.303   6.598   1.774
99828SOL    HW2 1318   5.177   6.681   1.770
99829SOL     OW 1319  12.682   1.699  10.769
99829SOL    HW1 1320  12.757   1.711  10.712
99829SOL    HW2 1321  12.673   1.604  10.777
99830SOL     OW 1322   9.905   2.883  13.560
99830SOL    HW1 1323   9.898   2.814  13.493
99830SOL    HW2 1324   9.842   2.949  13.533
99831SOL     OW 1325   1.644   9.468  12.985
99831SOL    HW1 1326   1.661   9.415  12.907
99831SOL    HW2 1327   1.562   9.432  13.020
99832SOL     OW 1328  10.968   8.266   8.529
99832SOL    HW1 1329  11.011   8.281   8.613
99832SOL    HW2 1330  10.968   8.171   8.518
99833SOL     OW 1331  10.633  12.355   2.041
99833SOL    HW1 1332  10.592  12.373   2.125
99833SOL    HW2 1333  10.705  12.418   2.035
99834SOL     OW 1334  11.312   1.166   8.780
99834SOL    HW1 1335  11.304   1.133   8.870
99834SOL    HW2 1336  11.361   1.248   8.788
99835SOL     OW 1337   4.451   6.522   0.767
99835SOL    HW1 1338   4.424   6.433   0.789
99835SOL    HW2 1339   4.409   6.577   0.833
99836SOL     OW 1340   3.239  14.110   7.051
99836SOL    HW1 1341   3.329  14.137   7.067
99836SOL    HW2 1342   3.246  14.032   6.996
99837SOL     OW 1343   3.452   2.358  10.855
99837SOL    HW1 1344   3.407   2.276  10.877
99837SOL    HW2 1345   3.486   2.344  10.767
99838SOL     OW 1346   3.238  13.195   2.350
99838SOL    HW1 1347   3.177  13.144   2.297
99838SOL    HW2 1348   3.209  13.181   2.440
99839SOL     OW 1349  12.511   2.780  13.733
99839SOL    HW1 1350  12.429   2.812  13.695
99839SOL    HW2 1351  12.560   2.745  13.659
99840SOL     OW 1352   5.869  13.963   7.103
99840SOL    HW1 1353   5.932  13.921   7.044
99840SOL    HW2 1354   5.784  13.951   7.060
99841SOL     OW 1355   5.240   1.707   5.654
99841SOL    HW1 1356   5.263   1.726   5.563
99841SOL    HW2 1357   5.324   1.706   5.701
99842SOL     OW 1358   9.818   1.108   6.131
99842SOL    HW1 1359   9.792   1.190   6.088
99842SOL    HW2 1360   9.780   1.040   6.076
99843SOL     OW 1361   0.242   4.081   6.988
99843SOL    HW1 1362   0.214   4.053   6.901
99843SOL    HW2 1363   0.161   4.091   7.038
99844SOL     OW 1364   6.439   2.223   6.936
99844SOL    HW1 1365   6.360   2.267   6.908
99844SOL    HW2 1366   6.434   2.224   7.032
99845SOL     OW 1367   0.181   5.817   1.811
99845SOL    HW1 1368   0.150   5.806   1.901
99845SOL    HW2 1369   0.154   5.905   1.787
99846SOL     OW 1370   5.660   4.462   0.498
99846SOL    HW1 1371   5.673   4.477   0.591
99846SOL    HW2 1372   5.571   4.494   0.481
99847SOL     OW 1373  14.583   5.731   4.389
99847SOL    HW1 1374  14.490   5.748   4.404
99847SOL    HW2 1375  14.603   5.654   4.441
99848SOL     OW 1376  11.761   5.511   1.818
99848SOL    HW1 1377  11.852   5.540   1.816
99848SOL    HW2 1378  11.721   5.564   1.887
99849SOL     OW 1379   4.785  14.783   3.695
99849SOL    HW1 1380   4.823  14.714   3.749
99849SOL    HW2 1381   4.691  14.766   3.695
99850SOL     OW 1382  11.125   1.723  14.392
99850SOL    HW1 1383  11.127   1.780  14.469
99850SOL    HW2 1384  11.212   1.683  14.388
99851SOL     OW 1385   8.950  14.253   8.251
99851SOL    HW1 1386   9.000  14.335   8.253
99851SOL    HW2 1387   8.953  14.226   8.159
99852SOL     OW 1388  11.005  10.133   7.088
99852SOL    HW1 1389  11.094  10.160   7.063
99852SOL    HW2 1390  10.970  10.091   7.009
99853SOL     OW 1391   8.265   0.822   5.386
99853SOL    HW1 1392   8.199   0.846   5.320
99853SOL    HW2 1393   8.279   0.903   5.435
99854SOL     OW 1394  13.627   5.795  12.969
99854SOL    HW1 1395  13.534   5.771  12.966
99854SOL    HW2 1396  13.673   5.713  12.986
99855SOL     OW 1397   8.660  14.797   7.603
99855SOL    HW1 1398   8.729  14.769   7.543
99855SOL    HW2 1399   8.579  14.784   7.555
99856SOL     OW 1400   5.435  13.766  11.963
99856SOL    HW1 1401   5.503  13.804  11.907
99856SOL    HW2 1402   5.450  13.671  11.958
99857SOL     OW 1403   1.109   9.588   0.423
99857SOL    HW1 1404   1.094   9.639   0.502
99857SOL    HW2 1405   1.145   9.505   0.454
99858SOL     OW 1406  14.777   3.779  11.252
99858SOL    HW1 1407  14.708   3.794  11.187
99858SOL    HW2 1408  14.735   3.726  11.319
99859SOL     OW 1409   7.440   9.811   8.153
99859SOL    HW1 1410   7.404   9.723   8.144
99859SOL    HW2 1411   7.513   9.813   8.092
99860SOL     OW 1412   5.846   7.059   3.030
99860SOL    HW1 1413   5.785   7.095   3.093
99860SOL    HW2 1414   5.804   7.072   2.945
99861SOL     OW 1415  12.481   5.480   7.992
99861SOL    HW1 1416  12.403   5.482   7.937
99861SOL    HW2 1417  12.449   5.455   8.079
99862SOL     OW 1418   2.661   7.998  11.942
99862SOL    HW1 1419   2.734   8.060  11.935
99862SOL    HW2 1420   2.646   7.969  11.852
99863SOL     OW 1421  14.487  13.533  12.663
99863SOL    HW1 1422  14.549  13.527  12.736
99863SOL    HW2 1423  14.466  13.442  12.642
99864SOL     OW 1424   4.125  14.706  12.232
99864SOL    HW1 1425   4.127  14.754  12.314
99864SOL    HW2 1426   4.202  14.736  12.184
99865SOL     OW 1427  13.113   7.530  11.394
99865SOL    HW1 1428  13.076   7.616  11.379
99865SOL    HW2 1429  13.107   7.486  11.309
99866SOL     OW 1430   3.072  13.155   9.293
99866SOL    HW1 1431   3.067  13.247   9.268
99866SOL    HW2 1432   2.993  13.140   9.344
99867SOL     OW 1433   4.644   6.514   1.108
99867SOL    HW1 1434   4.606   6.602   1.101
99867SOL    HW2 1435   4.675   6.494   1.020
99868SOL     OW 1436  13.009  13.392  11.827
99868SOL    HW1 1437  12.930  13.360  11.783
99868SOL    HW2 1438  12.976  13.451  11.895
99869SOL     OW 1439   0.738   1.295   9.782
99869SOL    HW1 1440   0.754   1.379   9.824
99869SOL    HW2 1441   0.776   1.231   9.842
99870SOL     OW 1442   7.120   5.368   3.817
99870SOL    HW1 1443   7.186   5.342   3.881
99870SOL    HW2 1444   7.058   5.421   3.866
99871SOL     OW 1445   5.899   5.707   1.182
99871SOL    HW1 1446   5.908   5.793   1.140
99871SOL    HW2 1447   5.806   5.687   1.177
99872SOL     OW 1448  13.764   0.068   5.080
99872SOL    HW1 1449  13.774   0.058   4.986
99872SOL    HW2 1450  13.694   0.131   5.091
99873SOL     OW 1451   5.116   4.351  10.906
99873SOL    HW1 1452   5.124   4.261  10.874
99873SOL    HW2 1453   5.031   4.353  10.950
99874SOL     OW 1454   4.000   3.925   9.623
99874SOL    HW1 1455   3.905   3.918   9.626
99874SOL    HW2 1456   4.017   3.994   9.559
99875SOL     OW 1457   2.966   8.402   6.624
99875SOL    HW1 1458   2.940   8.314   6.595
99875SOL    HW2 1459   3.056   8.411   6.594
99876SOL     OW 1460   6.327   6.724   9.635
99876SOL    HW1 1461   6.321   6.745   9.542
99876SOL    HW2 1462   6.257   6.660   9.650
99877SOL     OW 1463   0.371   8.674   6.009
99877SOL    HW1 1464   0.438   8.722   5.959
99877SOL    HW2 1465   0.417   8.597   6.042
99878SOL     OW 1466   6.674  13.657  11.959
99878SOL    HW1 1467   6.758  13.687  11.925
99878SOL    HW2 1468   6.695  13.625  12.047
99879SOL     OW 1469   0.641   7.003   8.516
99879SOL    HW1 1470   0.593   7.029   8.438
99879SOL    HW2 1471   0.592   6.928   8.550
99880SOL     OW 1472   0.398   6.951   6.516
99880SOL    HW1 1473   0.474   7.008   6.519
99880SOL    HW2 1474   0.389   6.917   6.605
99881SOL     OW 1475   5.976   0.298   4.118
99881SOL    HW1 1476   5.906   0.235   4.105
99881SOL    HW2 1477   5.937   0.383   4.096
99882SOL     OW 1478   2.520   4.077  10.195
99882SOL    HW1 1479   2.472   4.030  10.264
99882SOL    HW2 1480   2.611   4.055  10.211
99883SOL     OW 1481   4.155   0.658   3.773
99883SOL    HW1 1482   4.181   0.595   3.705
99883SOL    HW2 1483   4.230   0.663   3.831
99884SOL     OW 1484  11.602   8.700   7.160
99884SOL    HW1 1485  11.550   8.641   7.213
99884SOL    HW2 1486  11.570   8.687   7.070
99885SOL     OW 1487   6.349   3.674   5.175
99885SOL    HW1 1488   6.360   3.711   5.263
99885SOL    HW2 1489   6.309   3.744   5.124
99886SOL     OW 1490   7.391  11.580   0.007
99886SOL    HW1 1491   7.395  11.569   0.102
99886SOL    HW2 1492   7.301  11.559  14.862
99887SOL     OW 1493   0.084   3.486   9.008
99887SOL    HW1 1494   0.146   3.418   9.034
99887SOL    HW2 1495  14.877   3.452   9.036
99888SOL     OW 1496  14.299  14.129  14.649
99888SOL    HW1 1497  14.334  14.088  14.570
99888SOL    HW2 1498  14.213  14.163  14.623
99889SOL     OW 1499   4.045  10.311  10.409
99889SOL    HW1 1500   4.095  10.318  10.328
99889SOL    HW2 1501   3.964  10.359  10.392
99890SOL     OW 1502  11.482   9.233  11.054
99890SOL    HW1 1503  11.488   9.239  11.149
99890SOL    HW2 1504  11.472   9.139  11.036
99891SOL     OW 1505   2.234   3.031   5.892
99891SOL    HW1 1506   2.213   3.032   5.799
99891SOL    HW2 1507   2.192   2.951   5.925
99892SOL     OW 1508   8.085   2.945   3.254
99892SOL    HW1 1509   8.000   2.904   3.244
99892SOL    HW2 1510   8.145   2.873   3.273
99893SOL     OW 1511   7.630   7.562   0.455
99893SOL    HW1 1512   7.560   7.577   0.519
99893SOL    HW2 1513   7.665   7.476   0.477
99894SOL     OW 1514   4.631  12.037   4.855
99894SOL    HW1 1515   4.691  12.034   4.780
99894SOL    HW2 1516   4.568  12.106   4.832
99895SOL     OW 1517  12.299   5.707   9.039
99895SOL    HW1 1518  12.379   5.669   9.075
99895SOL    HW2 1519  12.301   5.686   8.946
99896SOL     OW 1520  13.642   5.471   7.930
99896SOL    HW1 1521  13.636   5.470   7.835
99896SOL    HW2 1522  13.650   5.378   7.954
99897SOL     OW 1523   3.679  13.768  13.435
99897SOL    HW1 1524   3.682  13.854  13.394
99897SOL    HW2 1525   3.749  13.718  13.392
99898SOL     OW 1526   4.450  12.082   6.151
99898SOL    HW1 1527   4.460  12.072   6.056
99898SOL    HW2 1528   4.496  12.164   6.171
99899SOL     OW 1529  13.046   1.700   3.850
99899SOL    HW1 1530  13.073   1.791   3.864
99899SOL    HW2 1531  12.955   1.706   3.821
99900SOL     OW 1532   2.058   4.501  10.876
99900SOL    HW1 1533   2.048   4.472  10.966
99900SOL    HW2 1534   2.032   4.594  10.877
99901SOL     OW 1535  13.966  11.650  13.754
99901SOL    HW1 1536  14.044  11.689  13.714
99901SOL    HW2 1537  13.990  11.637  13.846
99902SOL     OW 1538   7.690   3.297   7.485
99902SOL    HW1 1539   7.610   3.301   7.432
99902SOL    HW2 1540   7.761   3.305   7.421
99903SOL     OW 1541   6.276  12.131   0.175
99903SOL    HW1 1542   6.366  12.164   0.185
99903SOL    HW2 1543   6.238  12.137   0.262
99904SOL     OW 1544   3.459  10.246   4.619
99904SOL    HW1 1545   3.505  10.203   4.691
99904SOL    HW2 1546   3.529  10.284   4.566
99905SOL     OW 1547   8.863   2.362  13.917
99905SOL    HW1 1548   8.902   2.317  13.842
99905SOL    HW2 1549   8.771   2.373  13.893
99906SOL     OW 1550   5.905   9.618   0.796
99906SOL    HW1 1551   5.930   9.627   0.887
99906SOL    HW2 1552   5.820   9.661   0.790
99907SOL     OW 1553  12.779   4.559  10.840
99907SOL    HW1 1554  12.699   4.532  10.885
99907SOL    HW2 1555  12.765   4.652  10.820
99908SOL     OW 1556   0.500   5.066  14.447
99908SOL    HW1 1557   0.501   4.993  14.509
99908SOL    HW2 1558   0.480   5.142  14.500
99909SOL     OW 1559   9.228  12.698   5.785
99909SOL    HW1 1560   9.224  12.718   5.692
99909SOL    HW2 1561   9.320  12.678   5.802
99910SOL     OW 1562   3.904  11.016   4.547
99910SOL    HW1 1563   3.940  11.094   4.589
99910SOL    HW2 1564   3.810  11.019   4.568
99911SOL     OW 1565   5.292   2.575   9.861
99911SOL    HW1 1566   5.243   2.493   9.859
99911SOL    HW2 1567   5.360   2.564   9.795
99912SOL     OW 1568   4.825   9.793   6.280
99912SOL    HW1 1569   4.846   9.783   6.187
99912SOL    HW2 1570   4.883   9.730   6.324
99913SOL     OW 1571   9.038  11.450   7.019
99913SOL    HW1 1572   9.037  11.425   6.927
99913SOL    HW2 1573   9.040  11.366   7.066
99914SOL     OW 1574   0.729  14.092  10.035
99914SOL    HW1 1575   0.672  14.168  10.022
99914SOL    HW2 1576   0.670  14.024  10.066
99915SOL     OW 1577   6.869   2.112   2.453
99915SOL    HW1 1578   6.859   2.064   2.535
99915SOL    HW2 1579   6.886   2.045   2.387
99916SOL     OW 1580   7.889   0.660  13.892
99916SOL    HW1 1581   7.856   0.734  13.841
99916SOL    HW2 1582   7.920   0.597  13.826
99917SOL     OW 1583  10.909   5.083   8.406
99917SOL    HW1 1584  10.929   5.133   8.485
99917SOL    HW2 1585  10.834   5.127   8.367
99918SOL     OW 1586  14.687  12.979   1.543
99918SOL    HW1 1587  14.619  12.950   1.483
99918SOL    HW2 1588  14.769  12.964   1.495
99919SOL     OW 1589   6.693   2.270  12.423
99919SOL    HW1 1590   6.667   2.230  12.340
99919SOL    HW2 1591   6.611   2.284  12.470
99920SOL     OW 1592   9.552   8.692  13.036
99920SOL    HW1 1593   9.566   8.767  12.979
99920SOL    HW2 1594   9.457   8.688  13.049
99921SOL     OW 1595   3.210   3.672   2.135
99921SOL    HW1 1596   3.264   3.737   2.180
99921SOL    HW2 1597   3.271   3.603   2.110
99922SOL     OW 1598   6.132  14.124  12.967
99922SOL    HW1 1599   6.208  14.127  13.025
99922SOL    HW2 1600   6.119  14.031  12.948
99923SOL     OW 1601  12.400  12.568   4.430
99923SOL    HW1 1602  12.448  12.506   4.375
99923SOL    HW2 1603  12.453  12.575   4.509
99924SOL     OW 1604  14.044   4.798  14.125
99924SOL    HW1 1605  14.028   4.775  14.216
99924SOL    HW2 1606  14.125   4.751  14.102
99925SOL     OW 1607   8.176   4.564   3.225
99925SOL    HW1 1608   8.202   4.556   3.317
99925SOL    HW2 1609   8.115   4.492   3.211
99926SOL     OW 1610   1.467   8.623   9.976
99926SOL    HW1 1611   1.493   8.711   9.949
99926SOL    HW2 1612   1.521   8.604  10.053
99927SOL     OW 1613   3.700   4.131   5.412
99927SOL    HW1 1614   3.776   4.132   5.470
99927SOL    HW2 1615   3.629   4.094   5.465
99928SOL     OW 1616  11.199  12.118   8.308
99928SOL    HW1 1617  11.104  12.113   8.307
99928SOL    HW2 1618  11.226  12.077   8.226
99929SOL     OW 1619   1.232   6.683  11.851
99929SOL    HW1 1620   1.293   6.645  11.788
99929SOL    HW2 1621   1.283   6.694  11.931
99930SOL     OW 1622   9.738   6.674   5.059
99930SOL    HW1 1623   9.805   6.734   5.093
99930SOL    HW2 1624   9.656   6.703   5.098
99931SOL     OW 1625   9.090   7.722   5.855
99931SOL    HW1 1626   9.016   7.775   5.827
99931SOL    HW2 1627   9.058   7.674   5.931
99932SOL     OW 1628   8.950   3.572  11.850
99932SOL    HW1 1629   8.930   3.657  11.812
99932SOL    HW2 1630   8.908   3.509  11.792
99933SOL     OW 1631   4.363  11.160   5.532
99933SOL    HW1 1632   4.435  11.179   5.593
99933SOL    HW2 1633   4.333  11.245   5.503
99934SOL     OW 1634   5.554   8.583   7.535
99934SOL    HW1 1635   5.593   8.671   7.530
99934SOL    HW2 1636   5.495   8.587   7.611
99935SOL     OW 1637   4.716   2.715   0.758
99935SOL    HW1 1638   4.761   2.632   0.772
99935SOL    HW2 1639   4.784   2.774   0.726
99936SOL     OW 1640  11.738   6.219   6.545
99936SOL    HW1 1641  11.698   6.293   6.590
99936SOL    HW2 1642  11.737   6.148   6.610
99937SOL     OW 1643   6.991   6.912   3.461
99937SOL    HW1 1644   7.022   6.825   3.487
99937SOL    HW2 1645   6.901   6.898   3.432
99938SOL     OW 1646   1.563   1.016   7.435
99938SOL    HW1 1647   1.624   0.965   7.382
99938SOL    HW2 1648   1.489   0.957   7.450
99939SOL     OW 1649   5.850   7.828   9.433
99939SOL    HW1 1650   5.895   7.796   9.511
99939SOL    HW2 1651   5.868   7.763   9.366
99940SOL     OW 1652   1.771   8.606   4.583
99940SOL    HW1 1653   1.798   8.629   4.495
99940SOL    HW2 1654   1.815   8.669   4.640
99941SOL     OW 1655   7.040   0.067   2.403
99941SOL    HW1 1656   7.104   0.113   2.349
99941SOL    HW2 1657   6.963   0.123   2.402
99942SOL     OW 1658  11.506   7.609  10.459
99942SOL    HW1 1659  11.587   7.641  10.420
99942SOL    HW2 1660  11.458   7.570  10.387
99943SOL     OW 1661  10.345  13.152   2.547
99943SOL    HW1 1662  10.326  13.240   2.579
99943SOL    HW2 1663  10.259  13.115   2.525
99944SOL     OW 1664  11.276  13.923  11.195
99944SOL    HW1 1665  11.203  13.932  11.256
99944SOL    HW2 1666  11.238  13.944  11.109
99945SOL     OW 1667   0.259   9.336  14.640
99945SOL    HW1 1668   0.169   9.309  14.657
99945SOL    HW2 1669   0.276   9.404  14.705
99946SOL     OW 1670   9.901   6.670   7.513
99946SOL    HW1 1671   9.908   6.697   7.421
99946SOL    HW2 1672   9.807   6.671   7.531
99947SOL     OW 1673   4.323  12.414   2.580
99947SOL    HW1 1674   4.314  12.432   2.486
99947SOL    HW2 1675   4.351  12.497   2.618
99948SOL     OW 1676  11.890   3.394   9.819
99948SOL    HW1 1677  11.829   3.366   9.751
99948SOL    HW2 1678  11.835   3.407   9.896
99949SOL     OW 1679   7.629   5.998   6.818
99949SOL    HW1 1680   7.538   5.972   6.835
99949SOL    HW2 1681   7.622   6.059   6.745
99950SOL     OW 1682  13.727  14.106   7.113
99950SOL    HW1 1683  13.714  14.195   7.081
99950SOL    HW2 1684  13.801  14.072   7.063
99951SOL     OW 1685  14.703  10.281  12.775
99951SOL    HW1 1686  14.661  10.196  12.767
99951SOL    HW2 1687  14.712  10.312  12.685
99952SOL     OW 1688   7.137  11.531  14.123
99952SOL    HW1 1689   7.113  11.491  14.039
99952SOL    HW2 1690   7.059  11.581  14.148
99953SOL     OW 1691   9.118   9.992   8.077
99953SOL    HW1 1692   9.214  10.000   8.078
99953SOL    HW2 1693   9.092  10.031   7.993
99954SOL     OW 1694   0.520   4.740  10.695
99954SOL    HW1 1695   0.553   4.710  10.610
99954SOL    HW2 1696   0.578   4.812  10.719
99955SOL     OW 1697   2.297   8.460  13.811
99955SOL    HW1 1698   2.310   8.524  13.741
99955SOL    HW2 1699   2.342   8.381  13.781
99956SOL     OW 1700   2.260  13.539   8.828
99956SOL    HW1 1701   2.243  13.453   8.866
99956SOL    HW2 1702   2.350  13.559   8.852
99957SOL     OW 1703   8.951   0.463  11.196
99957SOL    HW1 1704   9.034   0.423  11.220
99957SOL    HW2 1705   8.967   0.557  11.203
99958SOL     OW 1706   0.773   7.946  12.476
99958SOL    HW1 1707   0.750   7.867  12.427
99958SOL    HW2 1708   0.795   8.011  12.409
99959SOL     OW 1709   4.849   6.645   6.500
99959SOL    HW1 1710   4.826   6.734   6.473
99959SOL    HW2 1711   4.892   6.656   6.585
99960SOL     OW 1712   0.540   5.107   8.373
99960SOL    HW1 1713   0.583   5.098   8.288
99960SOL    HW2 1714   0.455   5.147   8.353
99961SOL     OW 1715   8.398   3.276   2.340
99961SOL    HW1 1716   8.416   3.366   2.369
99961SOL    HW2 1717   8.393   3.225   2.421
99962SOL     OW 1718   7.060   8.726   0.721
99962SOL    HW1 1719   7.105   8.767   0.795
99962SOL    HW2 1720   6.980   8.689   0.759
99963SOL     OW 1721   3.759   4.276   3.557
99963SOL    HW1 1722   3.832   4.332   3.534
99963SOL    HW2 1723   3.793   4.186   3.548
99964SOL     OW 1724   7.803   2.447  10.171
99964SOL    HW1 1725   7.815   2.465  10.265
99964SOL    HW2 1726   7.743   2.372  10.169
99965SOL     OW 1727   6.751   4.083   1.574
99965SOL    HW1 1728   6.730   4.159   1.629
99965SOL    HW2 1729   6.749   4.116   1.485
99966SOL     OW 1730   6.665   1.194   0.834
99966SOL    HW1 1731   6.647   1.106   0.801
99966SOL    HW2 1732   6.716   1.236   0.765
99967SOL     OW 1733   5.882  12.093   8.536
99967SOL    HW1 1734   5.959  12.148   8.547
99967SOL    HW2 1735   5.856  12.104   8.445
99968SOL     OW 1736   1.735   0.492   7.947
99968SOL    HW1 1737   1.830   0.496   7.946
99968SOL    HW2 1738   1.712   0.484   8.040
99969SOL     OW 1739   6.574  13.333   3.962
99969SOL    HW1 1740   6.548  13.391   3.891
99969SOL    HW2 1741   6.524  13.364   4.037
99970SOL     OW 1742  11.683   9.223   6.052
99970SOL    HW1 1743  11.599   9.177   6.050
99970SOL    HW2 1744  11.659   9.316   6.054
99971SOL     OW 1745   4.477   1.122  14.512
99971SOL    HW1 1746   4.507   1.179  14.583
99971SOL    HW2 1747   4.454   1.183  14.441
99972SOL     OW 1748  11.015  10.677   6.137
99972SOL    HW1 1749  10.992  10.619   6.065
99972SOL    HW2 1750  11.110  10.675   6.141
99973SOL     OW 1751   9.776   7.184  11.523
99973SOL    HW1 1752   9.782   7.192  11.618
99973SOL    HW2 1753   9.689   7.216  11.501
99974SOL     OW 1754   3.809   1.830   6.846
99974SOL    HW1 1755   3.818   1.913   6.893
99974SOL    HW2 1756   3.719   1.830   6.814
99975SOL     OW 1757   5.039   4.082  10.914
99975SOL    HW1 1758   4.964   4.024  10.903
99975SOL    HW2 1759   5.111   4.037  10.870
99976SOL     OW 1760   5.163   4.119   8.256
99976SOL    HW1 1761   5.256   4.098   8.263
99976SOL    HW2 1762   5.120   4.035   8.238
99977SOL     OW 1763  10.606  12.584   7.451
99977SOL    HW1 1764  10.689  12.597   7.497
99977SOL    HW2 1765  10.628  12.591   7.358
99978SOL     OW 1766   1.088   4.236   2.700
99978SOL    HW1 1767   1.080   4.172   2.771
99978SOL    HW2 1768   1.092   4.183   2.620
99979SOL     OW 1769   5.709   3.489  13.954
99979SOL    HW1 1770   5.653   3.415  13.979
99979SOL    HW2 1771   5.653   3.546  13.903
99980SOL     OW 1772   4.282  11.330  13.507
99980SOL    HW1 1773   4.317  11.242  13.518
99980SOL    HW2 1774   4.188  11.317  13.497
99981SOL     OW 1775   2.743   9.572   5.361
99981SOL    HW1 1776   2.731   9.585   5.268
99981SOL    HW2 1777   2.829   9.531   5.369
99982SOL     OW 1778  10.582   8.760  11.154
99982SOL    HW1 1779  10.661   8.754  11.100
99982SOL    HW2 1780  10.536   8.837  11.121
99983SOL     OW 1781   0.624  10.603   6.890
99983SOL    HW1 1782   0.664  10.633   6.971
99983SOL    HW2 1783   0.689  10.620   6.822
99984SOL     OW 1784  13.924  10.793  14.801
99984SOL    HW1 1785  13.876  10.786  14.719
99984SOL    HW2 1786  14.014  10.766  14.778
99985SOL     OW 1787   4.322   8.482   3.090
99985SOL    HW1 1788   4.263   8.436   3.030
99985SOL    HW2 1789   4.361   8.552   3.037
99986SOL     OW 1790   1.127  11.056   4.714
99986SOL    HW1 1791   1.130  10.987   4.780
99986SOL    HW2 1792   1.189  11.026   4.647
99987SOL     OW 1793  14.727   4.439   3.812
99987SOL    HW1 1794  14.792   4.448   3.882
99987SOL    HW2 1795  14.643   4.457   3.855
99988SOL     OW 1796   7.683   7.328  12.990
99988SOL    HW1 1797   7.590   7.319  12.971
99988SOL    HW2 1798   7.713   7.238  13.003
99989SOL     OW 1799  12.522  12.135  10.416
99989SOL    HW1 1800  12.433  12.113  10.391
99989SOL    HW2 1801  12.547  12.205  10.356
99990SOL     OW 1802  11.834   9.223  12.346
99990SOL    HW1 1803  11.784   9.247  12.268
99990SOL    HW2 1804  11.924   9.216  12.315
99991SOL     OW 1805   9.949  14.424  11.316
99991SOL    HW1 1806   9.996  14.451  11.395
99991SOL    HW2 1807  10.017  14.387  11.260
99992SOL     OW 1808   2.689   9.935   8.362
99992SOL    HW1 1809   2.595   9.936   8.379
99992SOL    HW2 1810   2.711   9.843   8.351
99993SOL     OW 1811  14.415   8.171   0.266
99993SOL    HW1 1812  14.407   8.085   0.306
99993SOL    HW2 1813  14.437   8.230   0.338
99994SOL     OW 1814  10.239  13.130   7.677
99994SOL    HW1 1815  10.309  13.068   7.654
99994SOL    HW2 1816  10.278  13.216   7.667
99995SOL     OW 1817   1.354  10.606  14.854
99995SOL    HW1 1818   1.277  10.663  14.845
99995SOL    HW2 1819   1.321  10.518  14.836
99996SOL     OW 1820   4.017  14.753   4.869
99996SOL    HW1 1821   3.998  14.672   4.916
99996SOL    HW2 1822   3.945  14.763   4.807
99997SOL     OW 1823  14.832  10.176  12.005
99997SOL    HW1 1824   0.042  10.144  12.022
99997SOL    HW2 1825  14.826  10.181  11.910
99998SOL     OW 1826   3.671  13.624  11.976
99998SOL    HW1 1827   3.585  13.666  11.973
99998SOL    HW2 1828   3.673  13.569  11.898
99999SOL     OW 1829   9.722   4.475   6.220
99999SOL    HW1 1830   9.781   4.424   6.276
99999SOL    HW2 1831   9.774   4.551   6.193
    0SOL     OW 1832   0.908   8.382  13.393
    0SOL    HW1 1833   0.821   8.354  13.420
    0SOL    HW2 1834   0.904   8.386  13.297
    1SOL     OW 1835  13.158   5.086   0.091
    1SOL    HW1 1836  13.213   5.022   0.046
    1SOL    HW2 1837  13.209   5.167   0.088
    2SOL     OW 1838  14.633  10.356   2.252
    2SOL    HW1 1839  14.655  10.374   2.344
    2SOL    HW2 1840  14.605  10.265   2.251
    3SOL     OW 1841   9.804   9.531   7.331
    3SOL    HW1 1842   9.844   9.570   7.253
    3SOL    HW2 1843   9.735   9.474   7.296
    4SOL     OW 1844  12.437   4.813  13.760
    4SOL    HW1 1845  12.359   4.867  13.756
    4SOL    HW2 1846  12.443   4.771  13.674
    5SOL     OW 1847  10.178   9.039   2.660
    5SOL    HW1 1848  10.133   9.007   2.582
    5SOL    HW2 1849  10.244   8.973   2.680
    6SOL     OW 1850   9.464  13.901  14.049
    6SOL    HW1 1851   9.430  13.902  13.960
    6SOL    HW2 1852   9.555  13.929  14.040
    7SOL     OW 1853  14.402   6.637   3.656
    7SOL    HW1 1854  14.433   6.721   3.622
    7SOL    HW2 1855  14.373   6.656   3.745
    8SOL     OW 1856   9.772   3.216   1.268
    8SOL    HW1 1857   9.755   3.150   1.200
    8SOL    HW2 1858   9.698   3.276   1.262
    9SOL     OW 1859   1.736   0.977   4.690
    9SOL    HW1 1860   1.725   0.957   4.597
    9SOL    HW2 1861   1.807   0.920   4.719
   10SOL     OW 1862   6.297  13.298  12.304
   10SOL    HW1 1863   6.220  13.243  12.292
   10SOL    HW2 1864   6.263  13.379  12.341
   11SOL     OW 1865  10.594   8.840   4.965
   11SOL    HW1 1866  10.521   8.829   5.026
   11SOL    HW2 1867  10.659   8.775   4.993
   12SOL     OW 1868   0.241  13.020   7.909
   12SOL    HW1 1869   0.229  12.941   7.857
   12SOL    HW2 1870   0.323  13.059   7.877
   13SOL     OW 1871  13.495   7.964   0.264
   13SOL    HW1 1872  13.423   8.005   0.313
   13SOL    HW2 1873  13.539   7.910   0.329
   14SOL     OW 1874   0.924   4.385   1.286
   14SOL    HW1 1875   0.851   4.418   1.337
   14SOL    HW2 1876   0.890   4.376   1.197
   15SOL     OW 1877   7.424   5.822   7.308
   15SOL    HW1 1878   7.509   5.867   7.315
   15SOL    HW2 1879   7.399   5.832   7.216
   16SOL     OW 1880   2.181   6.853   7.780
   16SOL    HW1 1881   2.174   6.896   7.694
   16SOL    HW2 1882   2.240   6.778   7.765
   17SOL     OW 1883  13.352   8.151   7.372
   17SOL    HW1 1884  13.310   8.091   7.433
   17SOL    HW2 1885  13.329   8.117   7.285
   18SOL     OW 1886   7.752  14.324  11.623
   18SOL    HW1 1887   7.775  14.250  11.678
   18SOL    HW2 1888   7.660  14.341  11.642
   19SOL     OW 1889   9.544  14.086   2.717
   19SOL    HW1 1890   9.552  14.010   2.775
   19SOL    HW2 1891   9.619  14.141   2.740
   20SOL     OW 1892   4.387   6.922   2.285
   20SOL    HW1 1893   4.399   6.926   2.190
   20SOL    HW2 1894   4.472   6.896   2.319
   21SOL     OW 1895  10.220   8.050  12.063
   21SOL    HW1 1896  10.238   8.017  12.151
   21SOL    HW2 1897  10.127   8.073  12.064
   22SOL     OW 1898  12.272   2.283  11.519
   22SOL    HW1 1899  12.196   2.315  11.567
   22SOL    HW2 1900  12.344   2.291  11.582
   23SOL     OW 1901   6.737   2.525   5.680
   23SOL    HW1 1902   6.706   2.447   5.634
   23SOL    HW2 1903   6.661   2.583   5.682
   24SOL     OW 1904  10.033  13.058   0.242
   24SOL    HW1 1905  10.092  13.129   0.215
   24SOL    HW2 1906   9.978  13.041   0.165
   25SOL     OW 1907   0.658   4.549  11.697
   25SOL    HW1 1908   0.646   4.579  11.607
   25SOL    HW2 1909   0.670   4.454  11.689
   26SOL     OW 1910   8.272   9.453  13.418
   26SOL    HW1 1911   8.235   9.367  13.398
   26SOL    HW2 1912   8.364   9.447  13.392
   27SOL     OW 1913   2.877   0.663  13.925
   27SOL    HW1 1914   2.859   0.576  13.962
   27SOL    HW2 1915   2.799   0.714  13.946
   28SOL     OW 1916   5.407  11.612  11.792
   28SOL    HW1 1917   5.408  11.682  11.858
   28SOL    HW2 1918   5.357  11.542  11.833
   29SOL     OW 1919   4.437  10.243   8.257
   29SOL    HW1 1920   4.422  10.238   8.163
   29SOL    HW2 1921   4.513  10.186   8.272
   30SOL     OW 1922   2.602   5.695  13.667
   30SOL    HW1 1923   2.654   5.766  13.704
   30SOL    HW2 1924   2.667   5.632  13.634
   31SOL     OW 1925   4.151   0.516   3.049
   31SOL    HW1 1926   4.230   0.558   3.082
   31SOL    HW2 1927   4.182   0.436   3.007
   32SOL     OW 1928   7.442   5.169  14.874
   32SOL    HW1 1929   7.375   5.102   0.006
   32SOL    HW2 1930   7.492   5.168   0.077
   33SOL     OW 1931   6.285   6.423   6.117
   33SOL    HW1 1932   6.266   6.344   6.167
   33SOL    HW2 1933   6.202   6.448   6.077
   34SOL     OW 1934  13.294  12.635   0.004
   34SOL    HW1 1935  13.256  12.714  14.846
   34SOL    HW2 1936  13.372  12.619  14.831
   35SOL     OW 1937  12.021  14.646   2.376
   35SOL    HW1 1938  12.027  14.604   2.290
   35SOL    HW2 1939  12.012  14.739   2.357
   36SOL     OW 1940  14.784   8.920   7.248
   36SOL    HW1 1941  14.743   8.954   7.168
   36SOL    HW2 1942  14.819   8.835   7.222
   37SOL     OW 1943   4.185   1.062   8.871
   37SOL    HW1 1944   4.101   1.090   8.908
   37SOL    HW2 1945   4.242   1.051   8.947
   38SOL     OW 1946   3.471   1.873   5.259
   38SOL    HW1 1947   3.535   1.808   5.290
   38SOL    HW2 1948   3.419   1.894   5.337
   39SOL     OW 1949   2.585  10.604  11.051
   39SOL    HW1 1950   2.518  10.637  10.991
   39SOL    HW2 1951   2.665  10.601  10.998
   40SOL     OW 1952   4.099   3.652   6.949
   40SOL    HW1 1953   4.130   3.654   7.039
   40SOL    HW2 1954   4.119   3.563   6.919
   41SOL     OW 1955   7.191   3.052  13.486
   41SOL    HW1 1956   7.206   2.958  13.476
   41SOL    HW2 1957   7.238   3.074  13.567
   42SOL     OW 1958  14.047   2.022   6.869
   42SOL    HW1 1959  13.953   2.011   6.858
   42SOL    HW2 1960  14.063   2.113   6.843
   43SOL     OW 1961   6.102   2.369   4.490
   43SOL    HW1 1962   6.115   2.463   4.497
   43SOL    HW2 1963   6.033   2.358   4.424
   44SOL     OW 1964   7.961   2.627  11.069
   44SOL    HW1 1965   7.957   2.582  11.153
   44SOL    HW2 1966   7.929   2.715  11.087
   45SOL     OW 1967   1.000  14.580  13.939
   45SOL    HW1 1968   0.937  14.543  14.001
   45SOL    HW2 1969   0.949  14.597  13.860
   46SOL     OW 1970  10.277  13.582   5.705
   46SOL    HW1 1971  10.302  13.518   5.771
   46SOL    HW2 1972  10.225  13.532   5.641
   47SOL     OW 1973   1.605   9.166   7.220
   47SOL    HW1 1974   1.571   9.247   7.181
   47SOL    HW2 1975   1.562   9.096   7.171
   48SOL     OW 1976   0.335   8.747  11.207
   48SOL    HW1 1977   0.378   8.669  11.172
   48SOL    HW2 1978   0.242   8.724  11.210
   49SOL     OW 1979  13.823  13.433  11.638
   49SOL    HW1 1980  13.914  13.454  11.615
   49SOL    HW2 1981  13.778  13.427  11.554
   50SOL     OW 1982   9.442   3.923   2.253
   50SOL    HW1 1983   9.376   3.856   2.270
   50SOL    HW2 1984   9.400   3.981   2.189
   51SOL     OW 1985  11.721   0.675   6.480
   51SOL    HW1 1986  11.631   0.665   6.449
   51SOL    HW2 1987  11.714   0.668   6.575
   52SOL     OW 1988   5.116   4.723   4.161
   52SOL    HW1 1989   5.118   4.785   4.088
   52SOL    HW2 1990   5.031   4.678   4.153
   53SOL     OW 1991   6.818  13.577  12.173
   53SOL    HW1 1992   6.913  13.592  12.170
   53SOL    HW2 1993   6.810  13.486  12.201
   54SOL     OW 1994   0.358   3.659  10.170
   54SOL    HW1 1995   0.334   3.683  10.260
   54SOL    HW2 1996   0.295   3.591  10.146
   55SOL     OW 1997   1.453  13.460   0.002
   55SOL    HW1 1998   1.504  13.381  14.863
   55SOL    HW2 1999   1.517  13.524   0.034
   56SOL     OW 2000   4.269   4.440   4.487
   56SOL    HW1 2001   4.325   4.516   4.500
   56SOL    HW2 2002   4.247   4.411   4.575
   57SOL     OW 2003   4.175  12.843  12.825
   57SOL    HW1 2004   4.208  12.889  12.747
   57SOL    HW2 2005   4.160  12.912  12.889
   58SOL     OW 2006   2.206   9.976   5.396
   58SOL    HW1 2007   2.283   9.988   5.339
   58SOL    HW2 2008   2.232  10.014   5.480
   59SOL     OW 2009   1.888   5.696   5.747
   59SOL    HW1 2010   1.843   5.709   5.830
   59SOL    HW2 2011   1.855   5.766   5.690
   60SOL     OW 2012   2.624  12.900  11.610
   60SOL    HW1 2013   2.535  12.935  11.604
   60SOL    HW2 2014   2.615  12.823  11.667
   61SOL     OW 2015  13.443  11.051  14.583
   61SOL    HW1 2016  13.491  11.115  14.635
   61SOL    HW2 2017  13.357  11.091  14.568
   62SOL     OW 2018  12.354  13.107  11.408
   62SOL    HW1 2019  12.322  13.017  11.400
   62SOL    HW2 2020  12.341  13.129  11.500
   63SOL     OW 2021   3.312   5.208   7.731
   63SOL    HW1 2022   3.327   5.240   7.819
   63SOL    HW2 2023   3.349   5.275   7.674
   64SOL     OW 2024   0.706   6.451   5.817
   64SOL    HW1 2025   0.792   6.415   5.793
   64SOL    HW2 2026   0.704   6.447   5.912
   65SOL     OW 2027   3.368   3.943   9.361
   65SOL    HW1 2028   3.366   4.031   9.399
   65SOL    HW2 2029   3.277   3.914   9.362
   66SOL     OW 2030   9.414   9.941   7.947
   66SOL    HW1 2031   9.474   9.881   7.902
   66SOL    HW2 2032   9.339   9.948   7.888
   67SOL     OW 2033   2.391   0.236  11.591
   67SOL    HW1 2034   2.429   0.157  11.630
   67SOL    HW2 2035   2.391   0.300  11.663
   68SOL     OW 2036   3.838  13.649  13.222
   68SOL    HW1 2037   3.913  13.664  13.164
   68SOL    HW2 2038   3.768  13.620  13.164
   69SOL     OW 2039   2.191  10.720   9.467
   69SOL    HW1 2040   2.117  10.668   9.437
   69SOL    HW2 2041   2.181  10.804   9.422
   70SOL     OW 2042  12.798   7.148  11.157
   70SOL    HW1 2043  12.771   7.165  11.247
   70SOL    HW2 2044  12.891   7.127  11.163
   71SOL     OW 2045  14.038   4.021   3.040
   71SOL    HW1 2046  14.072   3.983   3.120
   71SOL    HW2 2047  13.943   4.016   3.050
   72SOL     OW 2048  14.378  14.507   7.395
   72SOL    HW1 2049  14.437  14.433   7.411
   72SOL    HW2 2050  14.410  14.547   7.315
   73SOL     OW 2051  11.510  12.954   3.484
   73SOL    HW1 2052  11.488  12.997   3.401
   73SOL    HW2 2053  11.604  12.942   3.480
   74SOL     OW 2054   9.181  13.783  13.126
   74SOL    HW1 2055   9.238  13.791  13.049
   74SOL    HW2 2056   9.223  13.838  13.192
   75SOL     OW 2057   8.123   6.164   6.846
   75SOL    HW1 2058   8.062   6.128   6.781
   75SOL    HW2 2059   8.155   6.245   6.807
   76SOL     OW 2060   9.723   8.798   0.186
   76SOL    HW1 2061   9.691   8.718   0.144
   76SOL    HW2 2062   9.689   8.793   0.276
   77SOL     OW 2063   1.912   9.332   2.621
   77SOL    HW1 2064   1.928   9.415   2.576
   77SOL    HW2 2065   1.826   9.343   2.661
   78SOL     OW 2066   6.723   7.499   8.062
   78SOL    HW1 2067   6.666   7.428   8.032
   78SOL    HW2 2068   6.795   7.455   8.107
   79SOL     OW 2069   5.318   5.405   8.223
   79SOL    HW1 2070   5.385   5.454   8.270
   79SOL    HW2 2071   5.243   5.464   8.221
   80SOL     OW 2072  12.734   8.413   6.556
   80SOL    HW1 2073  12.659   8.471   6.543
   80SOL    HW2 2074  12.791   8.432   6.482
   81SOL     OW 2075   1.885  13.018   3.086
   81SOL    HW1 2076   1.845  12.980   3.164
   81SOL    HW2 2077   1.973  12.982   3.085
   82SOL     OW 2078   7.647  12.990  14.776
   82SOL    HW1 2079   7.605  12.932  14.712
   82SOL    HW2 2080   7.577  13.016  14.835
   83SOL     OW 2081  13.674   5.681  13.698
   83SOL    HW1 2082  13.611   5.700  13.628
   83SOL    HW2 2083  13.621   5.682  13.778
   84SOL     OW 2084  10.067  12.678   8.810
   84SOL    HW1 2085   9.998  12.657   8.748
   84SOL    HW2 2086  10.049  12.769   8.836
   85SOL     OW 2087   8.455   7.547  11.218
   85SOL    HW1 2088   8.483   7.460  11.189
   85SOL    HW2 2089   8.360   7.545  11.216
   86SOL     OW 2090   7.818   4.731   0.641
   86SOL    HW1 2091   7.741   4.750   0.695
   86SOL    HW2 2092   7.885   4.791   0.674
   87SOL     OW 2093  12.610  13.052   9.074
   87SOL    HW1 2094  12.606  12.977   9.015
   87SOL    HW2 2095  12.701  13.056   9.102
   88SOL     OW 2096   5.870   4.530   3.505
   88SOL    HW1 2097   5.948   4.580   3.528
   88SOL    HW2 2098   5.856   4.549   3.412
   89SOL     OW 2099  13.360  11.021   3.852
   89SOL    HW1 2100  13.292  10.992   3.913
   89SOL    HW2 2101  13.430  11.055   3.908
   90SOL     OW 2102  12.076   9.904  10.631
   90SOL    HW1 2103  12.015   9.977  10.645
   90SOL    HW2 2104  12.161   9.938  10.660
   91SOL     OW 2105   8.852  10.813  12.810
   91SOL    HW1 2106   8.798  10.793  12.887
   91SOL    HW2 2107   8.805  10.774  12.737
   92SOL     OW 2108   4.788   7.209   5.570
   92SOL    HW1 2109   4.748   7.232   5.654
   92SOL    HW2 2110   4.870   7.258   5.569
   93SOL     OW 2111   8.461  11.979  11.436
   93SOL    HW1 2112   8.500  12.022  11.512
   93SOL    HW2 2113   8.532  11.928  11.398
   94SOL     OW 2114  10.378   0.640  13.894
   94SOL    HW1 2115  10.332   0.567  13.936
   94SOL    HW2 2116  10.461   0.602  13.865
   95SOL     OW 2117   4.885   9.414   4.865
   95SOL    HW1 2118   4.807   9.463   4.891
   95SOL    HW2 2119   4.956   9.450   4.918
   96SOL     OW 2120   5.389   9.649   1.683
   96SOL    HW1 2121   5.341   9.696   1.751
   96SOL    HW2 2122   5.417   9.717   1.622
   97SOL     OW 2123   3.689   5.633   9.523
   97SOL    HW1 2124   3.737   5.640   9.606
   97SOL    HW2 2125   3.644   5.549   9.528
   98SOL     OW 2126  11.659  13.875  12.219
   98SOL    HW1 2127  11.664  13.919  12.135
   98SOL    HW2 2128  11.576  13.828  12.217
   99SOL     OW 2129   0.340  11.816   6.712
   99SOL    HW1 2130   0.316  11.907   6.693
   99SOL    HW2 2131   0.434  11.812   6.696
  100SOL     OW 2132   6.221   0.961  10.284
  100SOL    HW1 2133   6.205   1.053  10.307
  100SOL    HW2 2134   6.317   0.952  10.289
  101SOL     OW 2135  12.280  12.639   8.220
  101SOL    HW1 2136  12.323  12.571   8.167
  101SOL    HW2 2137  12.197  12.599   8.246
  102SOL     OW 2138   7.415   6.741   4.429
  102SOL    HW1 2139   7.450   6.667   4.480
  102SOL    HW2 2140   7.327   6.755   4.464
  103SOL     OW 2141  12.704   0.847   0.621
  103SOL    HW1 2142  12.723   0.830   0.528
  103SOL    HW2 2143  12.632   0.787   0.641
  104SOL     OW 2144   1.622  10.695   1.610
  104SOL    HW1 2145   1.670  10.730   1.685
  104SOL    HW2 2146   1.600  10.772   1.558
  105SOL     OW 2147   8.847   8.278   7.170
  105SOL    HW1 2148   8.830   8.186   7.152
  105SOL    HW2 2149   8.761   8.316   7.186
  106SOL     OW 2150   0.317  12.470   9.953
  106SOL    HW1 2151   0.294  12.412   9.880
  106SOL    HW2 2152   0.409  12.492   9.938
  107SOL     OW 2153  12.413  14.561   8.461
  107SOL    HW1 2154  12.364  14.616   8.400
  107SOL    HW2 2155  12.346  14.516   8.513
  108SOL     OW 2156  12.166   1.061   7.668
  108SOL    HW1 2157  12.165   0.971   7.637
  108SOL    HW2 2158  12.258   1.079   7.690
  109SOL     OW 2159  10.553  13.729   7.599
  109SOL    HW1 2160  10.462  13.721   7.572
  109SOL    HW2 2161  10.569  13.650   7.651
  110SOL     OW 2162   4.278   1.809   1.136
  110SOL    HW1 2163   4.257   1.783   1.225
  110SOL    HW2 2164   4.342   1.879   1.145
  111SOL     OW 2165   7.474  14.119   6.384
  111SOL    HW1 2166   7.502  14.210   6.378
  111SOL    HW2 2167   7.505  14.078   6.303
  112SOL     OW 2168   0.172  12.422   1.110
  112SOL    HW1 2169   0.145  12.446   1.021
  112SOL    HW2 2170   0.093  12.386   1.150
  113SOL     OW 2171   4.676  10.113   8.310
  113SOL    HW1 2172   4.642  10.039   8.359
  113SOL    HW2 2173   4.675  10.186   8.372
  114SOL     OW 2174  14.808   4.214   8.212
  114SOL    HW1 2175  14.849   4.128   8.201
  114SOL    HW2 2176  14.811   4.231   8.306
  115SOL     OW 2177  12.901   5.969  10.431
  115SOL    HW1 2178  12.877   5.887  10.476
  115SOL    HW2 2179  12.987   5.951  10.394
  116SOL     OW 2180   1.381   4.884   5.027
  116SOL    HW1 2181   1.386   4.799   4.984
  116SOL    HW2 2182   1.293   4.887   5.064
  117SOL     OW 2183   2.299   3.714   3.546
  117SOL    HW1 2184   2.280   3.694   3.637
  117SOL    HW2 2185   2.273   3.634   3.499
  118SOL     OW 2186  11.754   4.679  11.026
  118SOL    HW1 2187  11.686   4.619  11.057
  118SOL    HW2 2188  11.714   4.766  11.030
  119SOL     OW 2189  12.536   0.401  12.596
  119SOL    HW1 2190  12.615   0.365  12.636
  119SOL    HW2 2191  12.493   0.325  12.556
  120SOL     OW 2192   4.337   6.649   1.048
  120SOL    HW1 2193   4.415   6.668   1.100
  120SOL    HW2 2194   4.319   6.730   1.000
  121SOL     OW 2195  10.466  13.145  12.624
  121SOL    HW1 2196  10.484  13.117  12.535
  121SOL    HW2 2197  10.532  13.211  12.642
  122SOL     OW 2198  11.143   8.088  14.625
  122SOL    HW1 2199  11.103   8.001  14.628
  122SOL    HW2 2200  11.195   8.094  14.705
  123SOL     OW 2201  11.591   1.142  14.825
  123SOL    HW1 2202  11.524   1.135  14.757
  123SOL    HW2 2203  11.618   1.234  14.823
  124SOL     OW 2204   9.371  12.461   8.972
  124SOL    HW1 2205   9.400  12.534   8.917
  124SOL    HW2 2206   9.282  12.483   8.998
  125SOL     OW 2207   6.163   2.144   3.935
  125SOL    HW1 2208   6.068   2.132   3.934
  125SOL    HW2 2209   6.191   2.109   4.020
  126SOL     OW 2210   4.662   6.257   1.629
  126SOL    HW1 2211   4.592   6.293   1.683
  126SOL    HW2 2212   4.697   6.185   1.681
  127SOL     OW 2213   4.603   7.467   7.742
  127SOL    HW1 2214   4.667   7.533   7.768
  127SOL    HW2 2215   4.619   7.394   7.802
  128SOL     OW 2216   2.282   9.880  12.349
  128SOL    HW1 2217   2.291   9.815  12.419
  128SOL    HW2 2218   2.238   9.834  12.278
  129SOL     OW 2219   3.272  10.385  13.151
  129SOL    HW1 2220   3.261  10.387  13.246
  129SOL    HW2 2221   3.193  10.342  13.119
  130SOL     OW 2222  11.628   9.093   4.191
  130SOL    HW1 2223  11.584   9.021   4.146
  130SOL    HW2 2224  11.628   9.165   4.127
  131SOL     OW 2225   6.695   0.042   1.803
  131SOL    HW1 2226   6.669  14.846   1.857
  131SOL    HW2 2227   6.778   0.015   1.763
  132SOL     OW 2228   8.370   4.870  11.947
  132SOL    HW1 2229   8.418   4.842  11.869
  132SOL    HW2 2230   8.348   4.962  11.930
  133SOL     OW 2231  14.329   1.085   1.636
  133SOL    HW1 2232  14.324   1.124   1.549
  133SOL    HW2 2233  14.332   1.161   1.695
  134SOL     OW 2234  14.462  12.830   3.033
  134SOL    HW1 2235  14.403  12.754   3.025
  134SOL    HW2 2236  14.479  12.837   3.127
  135SOL     OW 2237   1.296   2.797   6.573
  135SOL    HW1 2238   1.387   2.825   6.579
  135SOL    HW2 2239   1.284   2.771   6.482
  136SOL     OW 2240   8.488   0.550  11.560
  136SOL    HW1 2241   8.500   0.473  11.504
  136SOL    HW2 2242   8.570   0.599  11.551
  137SOL     OW 2243   6.025   7.549   0.853
  137SOL    HW1 2244   5.956   7.608   0.885
  137SOL    HW2 2245   5.980   7.467   0.834
  138SOL     OW 2246  10.193   3.260  14.575
  138SOL    HW1 2247  10.194   3.174  14.533
  138SOL    HW2 2248  10.278   3.298  14.555
  139SOL     OW 2249   4.602   7.368   4.737
  139SOL    HW1 2250   4.591   7.300   4.671
  139SOL    HW2 2251   4.629   7.320   4.816
  140SOL     OW 2252   6.030  11.841   1.592
  140SOL    HW1 2253   6.019  11.755   1.551
  140SOL    HW2 2254   5.942  11.868   1.615
  141SOL     OW 2255  11.723   5.978   8.053
  141SOL    HW1 2256  11.683   6.057   8.019
  141SOL    HW2 2257  11.795   6.009   8.108
  142SOL     OW 2258   8.399  10.561  13.133
  142SOL    HW1 2259   8.359  10.638  13.173
  142SOL    HW2 2260   8.489  10.588  13.113
  143SOL     OW 2261   8.584  11.773  10.271
  143SOL    HW1 2262   8.588  11.705  10.204
  143SOL    HW2 2263   8.664  11.824  10.258
  144SOL     OW 2264  12.451   5.286  10.654
  144SOL    HW1 2265  12.398   5.265  10.731
  144SOL    HW2 2266  12.497   5.366  10.677
  145SOL     OW 2267   5.278   0.518   6.509
  145SOL    HW1 2268   5.271   0.422   6.508
  145SOL    HW2 2269   5.192   0.549   6.479
  146SOL     OW 2270   5.045  13.293  13.917
  146SOL    HW1 2271   5.035  13.245  13.835
  146SOL    HW2 2272   4.956  13.299  13.953
  147SOL     OW 2273   0.901  11.661   9.222
  147SOL    HW1 2274   0.919  11.574   9.186
  147SOL    HW2 2275   0.805  11.665   9.227
  148SOL     OW 2276   9.667   4.244   2.268
  148SOL    HW1 2277   9.710   4.273   2.348
  148SOL    HW2 2278   9.590   4.301   2.259
  149SOL     OW 2279  13.625   3.065   3.764
  149SOL    HW1 2280  13.547   3.030   3.807
  149SOL    HW2 2281  13.655   3.135   3.822
  150SOL     OW 2282   7.497   6.531   4.585
  150SOL    HW1 2283   7.569   6.470   4.604
  150SOL    HW2 2284   7.420   6.489   4.623
  151SOL     OW 2285   9.329  10.484  12.710
  151SOL    HW1 2286   9.335  10.579  12.715
  151SOL    HW2 2287   9.419  10.453  12.724
  152SOL     OW 2288   6.367  14.318   3.095
  152SOL    HW1 2289   6.325  14.396   3.130
  152SOL    HW2 2290   6.308  14.246   3.119
  153SOL     OW 2291  13.857  13.635  10.420
  153SOL    HW1 2292  13.836  13.546  10.448
  153SOL    HW2 2293  13.907  13.672  10.493
  154SOL     OW 2294   3.259   8.901   3.676
  154SOL    HW1 2295   3.348   8.902   3.640
  154SOL    HW2 2296   3.249   8.987   3.717
  155SOL     OW 2297   5.460   9.534   2.670
  155SOL    HW1 2298   5.517   9.489   2.607
  155SOL    HW2 2299   5.371   9.509   2.644
  156SOL     OW 2300  14.071   5.160   4.468
  156SOL    HW1 2301  14.038   5.212   4.542
  156SOL    HW2 2302  14.001   5.099   4.449
  157SOL     OW 2303  10.372   0.982   5.313
  157SOL    HW1 2304  10.434   1.047   5.281
  157SOL    HW2 2305  10.286   1.023   5.303
  158SOL     OW 2306  10.219   0.104  14.639
  158SOL    HW1 2307  10.208   0.163  14.565
  158SOL    HW2 2308  10.312   0.109  14.661
  159SOL     OW 2309  14.778   3.818   5.860
  159SOL    HW1 2310  14.798   3.728   5.834
  159SOL    HW2 2311  14.699   3.841   5.811
  160SOL     OW 2312  10.702  12.428   1.123
  160SOL    HW1 2313  10.632  12.486   1.152
  160SOL    HW2 2314  10.691  12.349   1.176
  161SOL     OW 2315   5.037   3.616   1.282
  161SOL    HW1 2316   5.014   3.699   1.324
  161SOL    HW2 2317   5.008   3.626   1.191
  162SOL     OW 2318  11.547   4.946  14.034
  162SOL    HW1 2319  11.607   4.890  14.083
  162SOL    HW2 2320  11.585   5.033  14.040
  163SOL     OW 2321  12.880  11.502   9.772
  163SOL    HW1 2322  12.890  11.505   9.868
  163SOL    HW2 2323  12.787  11.488   9.758
  164SOL     OW 2324   1.180   9.837   4.746
  164SOL    HW1 2325   1.267   9.798   4.739
  164SOL    HW2 2326   1.134   9.809   4.667
  165SOL     OW 2327   7.716   6.167  10.335
  165SOL    HW1 2328   7.763   6.193  10.414
  165SOL    HW2 2329   7.785   6.154  10.269
  166SOL     OW 2330   2.665   6.632   3.425
  166SOL    HW1 2331   2.666   6.601   3.335
  166SOL    HW2 2332   2.580   6.602   3.459
  167SOL     OW 2333   0.369   0.064  13.169
  167SOL    HW1 2334   0.311   0.089  13.097
  167SOL    HW2 2335   0.402   0.147  13.204
  168SOL     OW 2336   3.494  14.162   9.037
  168SOL    HW1 2337   3.566  14.104   9.012
  168SOL    HW2 2338   3.423  14.104   9.063
  169SOL     OW 2339  13.118  13.369   9.415
  169SOL    HW1 2340  13.138  13.377   9.322
  169SOL    HW2 2341  13.202  13.381   9.459
  170SOL     OW 2342  12.691  14.509  10.520
  170SOL    HW1 2343  12.727  14.592  10.489
  170SOL    HW2 2344  12.609  14.500  10.473
  171SOL     OW 2345  11.968   6.185   3.972
  171SOL    HW1 2346  12.003   6.201   3.885
  171SOL    HW2 2347  11.934   6.270   4.000
  172SOL     OW 2348   1.602   8.072   3.345
  172SOL    HW1 2349   1.564   8.139   3.290
  172SOL    HW2 2350   1.552   8.075   3.427
  173SOL     OW 2351   7.635   4.841  10.745
  173SOL    HW1 2352   7.691   4.911  10.710
  173SOL    HW2 2353   7.692   4.791  10.803
  174SOL     OW 2354   2.823   6.538   6.318
  174SOL    HW1 2355   2.792   6.448   6.309
  174SOL    HW2 2356   2.823   6.554   6.412
  175SOL     OW 2357   5.833   5.020  11.705
  175SOL    HW1 2358   5.845   4.977  11.621
  175SOL    HW2 2359   5.740   5.043  11.708
  176SOL     OW 2360  12.373   2.946   3.684
  176SOL    HW1 2361  12.292   2.994   3.702
  176SOL    HW2 2362  12.443   3.005   3.711
  177SOL     OW 2363   7.764   9.594   5.009
  177SOL    HW1 2364   7.787   9.614   5.100
  177SOL    HW2 2365   7.763   9.498   5.005
  178SOL     OW 2366   2.115  12.160  13.775
  178SOL    HW1 2367   2.160  12.161  13.691
  178SOL    HW2 2368   2.139  12.077  13.815
  179SOL     OW 2369  10.290  11.674   3.401
  179SOL    HW1 2370  10.363  11.678   3.462
  179SOL    HW2 2371  10.316  11.606   3.338
  180SOL     OW 2372  13.804   0.701   4.081
  180SOL    HW1 2373  13.722   0.752   4.082
  180SOL    HW2 2374  13.873   0.767   4.083
  181SOL     OW 2375  10.969  11.904   9.193
  181SOL    HW1 2376  10.978  11.942   9.106
  181SOL    HW2 2377  10.875  11.898   9.207
  182SOL     OW 2378   7.972   2.068   3.750
  182SOL    HW1 2379   7.920   2.007   3.698
  182SOL    HW2 2380   7.971   2.032   3.839
  183SOL     OW 2381   5.073  11.623   2.988
  183SOL    HW1 2382   5.057  11.718   2.987
  183SOL    HW2 2383   4.986  11.584   2.985
  184SOL     OW 2384   1.564   7.250   2.588
  184SOL    HW1 2385   1.545   7.342   2.570
  184SOL    HW2 2386   1.659   7.246   2.596
  185SOL     OW 2387   5.597   3.027   8.837
  185SOL    HW1 2388   5.524   2.988   8.790
  185SOL    HW2 2389   5.564   3.112   8.867
  186SOL     OW 2390   5.215   8.387   0.385
  186SOL    HW1 2391   5.276   8.434   0.442
  186SOL    HW2 2392   5.164   8.456   0.342
  187SOL     OW 2393  13.394   2.657   4.048
  187SOL    HW1 2394  13.306   2.620   4.059
  187SOL    HW2 2395  13.434   2.649   4.134
  188SOL     OW 2396  13.514   7.822  12.605
  188SOL    HW1 2397  13.561   7.799  12.685
  188SOL    HW2 2398  13.499   7.738  12.561
  189SOL     OW 2399   5.366   5.394   6.344
  189SOL    HW1 2400   5.419   5.332   6.394
  189SOL    HW2 2401   5.397   5.386   6.254
  190SOL     OW 2402   8.719   3.364  12.982
  190SOL    HW1 2403   8.666   3.415  13.044
  190SOL    HW2 2404   8.739   3.425  12.911
  191SOL     OW 2405  11.827   8.179   2.982
  191SOL    HW1 2406  11.863   8.224   2.905
  191SOL    HW2 2407  11.900   8.178   3.045
  192SOL     OW 2408   2.597   4.152  12.344
  192SOL    HW1 2409   2.605   4.214  12.271
  192SOL    HW2 2410   2.556   4.202  12.414
  193SOL     OW 2411  10.234  10.333   4.646
  193SOL    HW1 2412  10.220  10.343   4.551
  193SOL    HW2 2413  10.150  10.357   4.685
  194SOL     OW 2414   5.157   4.249   1.585
  194SOL    HW1 2415   5.151   4.198   1.666
  194SOL    HW2 2416   5.236   4.215   1.542
  195SOL     OW 2417   4.886   6.013  12.896
  195SOL    HW1 2418   4.936   6.085  12.935
  195SOL    HW2 2419   4.795   6.029  12.922
  196SOL     OW 2420   8.381  12.237   0.565
  196SOL    HW1 2421   8.318  12.169   0.587
  196SOL    HW2 2422   8.454  12.190   0.524
  197SOL     OW 2423   2.449   9.658   1.706
  197SOL    HW1 2424   2.428   9.691   1.793
  197SOL    HW2 2425   2.364   9.633   1.669
  198SOL     OW 2426   7.942   4.426   1.329
  198SOL    HW1 2427   7.934   4.514   1.366
  198SOL    HW2 2428   7.978   4.373   1.399
  199SOL     OW 2429   3.044   5.088  10.505
  199SOL    HW1 2430   3.064   5.074  10.412
  199SOL    HW2 2431   2.952   5.064  10.513
  200SOL     OW 2432   2.921  14.057   1.516
  200SOL    HW1 2433   2.830  14.066   1.490
  200SOL    HW2 2434   2.952  14.147   1.529
  201SOL     OW 2435  10.851  10.781  10.455
  201SOL    HW1 2436  10.867  10.693  10.490
  201SOL    HW2 2437  10.781  10.769  10.392
  202SOL     OW 2438   7.236  14.259  11.542
  202SOL    HW1 2439   7.207  14.348  11.561
  202SOL    HW2 2440   7.282  14.266  11.458
  203SOL     OW 2441   2.683   3.875   0.502
  203SOL    HW1 2442   2.667   3.910   0.414
  203SOL    HW2 2443   2.617   3.917   0.557
  204SOL     OW 2444   4.849   2.760   4.111
  204SOL    HW1 2445   4.943   2.779   4.103
  204SOL    HW2 2446   4.816   2.765   4.022
  205SOL     OW 2447  11.899   4.111  12.689
  205SOL    HW1 2448  11.812   4.074  12.708
  205SOL    HW2 2449  11.883   4.202  12.666
  206SOL     OW 2450   8.774  10.305   1.629
  206SOL    HW1 2451   8.729  10.274   1.551
  206SOL    HW2 2452   8.831  10.232   1.654
  207SOL     OW 2453   4.325   8.030   1.839
  207SOL    HW1 2454   4.292   8.005   1.752
  207SOL    HW2 2455   4.406   8.078   1.821
  208SOL     OW 2456   5.838   0.746   2.916
  208SOL    HW1 2457   5.884   0.696   2.984
  208SOL    HW2 2458   5.881   0.832   2.917
  209SOL     OW 2459   7.005  10.270  12.099
  209SOL    HW1 2460   6.962  10.356  12.100
  209SOL    HW2 2461   7.091  10.286  12.137
  210SOL     OW 2462   2.576  10.683   2.409
  210SOL    HW1 2463   2.614  10.698   2.322
  210SOL    HW2 2464   2.584  10.767   2.454
  211SOL     OW 2465  12.781  12.057  11.341
  211SOL    HW1 2466  12.804  11.972  11.304
  211SOL    HW2 2467  12.798  12.048  11.435
  212SOL     OW 2468  12.776   2.785   0.381
  212SOL    HW1 2469  12.825   2.766   0.461
  212SOL    HW2 2470  12.687   2.753   0.399
  213SOL     OW 2471   2.997  12.595   6.913
  213SOL    HW1 2472   2.943  12.539   6.857
  213SOL    HW2 2473   2.933  12.649   6.960
  214SOL     OW 2474   3.081  13.165   0.460
  214SOL    HW1 2475   3.163  13.209   0.481
  214SOL    HW2 2476   3.044  13.217   0.388
  215SOL     OW 2477  13.912   4.824   9.464
  215SOL    HW1 2478  13.828   4.870   9.457
  215SOL    HW2 2479  13.962   4.876   9.527
  216SOL     OW 2480   8.398  11.212   5.419
  216SOL    HW1 2481   8.404  11.286   5.479
  216SOL    HW2 2482   8.305  11.206   5.397
  217SOL     OW 2483   4.414   0.427   3.241
  217SOL    HW1 2484   4.426   0.355   3.179
  217SOL    HW2 2485   4.379   0.384   3.320
  218SOL     OW 2486   9.409   6.913   0.517
  218SOL    HW1 2487   9.396   6.923   0.611
  218SOL    HW2 2488   9.494   6.952   0.500
  219SOL     OW 2489  12.117   9.628   0.029
  219SOL    HW1 2490  12.183   9.692   0.002
  219SOL    HW2 2491  12.147   9.597   0.114
  220SOL     OW 2492  13.696   0.730  10.332
  220SOL    HW1 2493  13.740   0.764  10.410
  220SOL    HW2 2494  13.712   0.636  10.335
  221SOL     OW 2495   8.029  10.889  12.782
  221SOL    HW1 2496   8.083  10.851  12.851
  221SOL    HW2 2497   8.046  10.983  12.787
  222SOL     OW 2498  10.485  11.963   0.621
  222SOL    HW1 2499  10.560  11.992   0.569
  222SOL    HW2 2500  10.428  11.920   0.559
  223SOL     OW 2501  10.218  10.405   0.758
  223SOL    HW1 2502  10.202  10.321   0.717
  223SOL    HW2 2503  10.239  10.464   0.686
  224SOL     OW 2504   1.440   0.069  10.217
  224SOL    HW1 2505   1.364   0.012  10.225
  224SOL    HW2 2506   1.421   0.125  10.142
  225SOL     OW 2507  12.928  12.522   4.079
  225SOL    HW1 2508  13.016  12.504   4.114
  225SOL    HW2 2509  12.927  12.616   4.065
  226SOL     OW 2510  14.607   0.663   7.506
  226SOL    HW1 2511  14.672   0.677   7.438
  226SOL    HW2 2512  14.525   0.649   7.459
  227SOL     OW 2513  12.991   4.607   1.110
  227SOL    HW1 2514  12.929   4.680   1.116
  227SOL    HW2 2515  13.011   4.600   1.016
  228SOL     OW 2516   8.454   7.735  13.627
  228SOL    HW1 2517   8.497   7.685  13.558
  228SOL    HW2 2518   8.443   7.823  13.591
  229SOL     OW 2519   8.823   2.814  10.383
  229SOL    HW1 2520   8.820   2.894  10.330
  229SOL    HW2 2521   8.841   2.845  10.472
  230SOL     OW 2522   9.284  12.949   4.171
  230SOL    HW1 2523   9.333  13.028   4.192
  230SOL    HW2 2524   9.270  12.906   4.255
  231SOL     OW 2525  10.838   8.283  13.481
  231SOL    HW1 2526  10.899   8.356  13.478
  231SOL    HW2 2527  10.803   8.276  13.393
  232SOL     OW 2528  13.847   5.706  10.821
  232SOL    HW1 2529  13.887   5.793  10.828
  232SOL    HW2 2530  13.754   5.723  10.804
  233SOL     OW 2531   2.520   4.315   0.046
  233SOL    HW1 2532   2.489   4.293   0.135
  233SOL    HW2 2533   2.599   4.366   0.061
  234SOL     OW 2534   6.379   7.374   9.669
  234SOL    HW1 2535   6.382   7.426   9.589
  234SOL    HW2 2536   6.466   7.336   9.677
  235SOL     OW 2537   9.300   2.474   0.988
  235SOL    HW1 2538   9.232   2.541   1.002
  235SOL    HW2 2539   9.354   2.510   0.917
  236SOL     OW 2540  10.937   9.531   3.644
  236SOL    HW1 2541  10.873   9.483   3.591
  236SOL    HW2 2542  10.885   9.578   3.708
  237SOL     OW 2543  11.941   6.341   9.531
  237SOL    HW1 2544  11.934   6.289   9.451
  237SOL    HW2 2545  11.857   6.328   9.576
  238SOL     OW 2546  11.590   1.938   3.981
  238SOL    HW1 2547  11.559   1.863   3.930
  238SOL    HW2 2548  11.662   1.974   3.930
  239SOL     OW 2549  11.346   3.528  14.251
  239SOL    HW1 2550  11.356   3.482  14.335
  239SOL    HW2 2551  11.318   3.616  14.275
  240SOL     OW 2552   5.768   7.787   3.288
  240SOL    HW1 2553   5.742   7.788   3.196
  240SOL    HW2 2554   5.703   7.843   3.332
  241SOL     OW 2555  10.880  11.011   7.578
  241SOL    HW1 2556  10.817  11.083   7.581
  241SOL    HW2 2557  10.841  10.943   7.633
  242SOL     OW 2558   7.234   6.276  10.207
  242SOL    HW1 2559   7.328   6.272  10.228
  242SOL    HW2 2560   7.232   6.288  10.112
  243SOL     OW 2561   8.477  11.007  14.283
  243SOL    HW1 2562   8.529  10.944  14.233
  243SOL    HW2 2563   8.454  10.959  14.363
  244SOL     OW 2564   7.469  13.884   0.991
  244SOL    HW1 2565   7.437  13.834   1.066
  244SOL    HW2 2566   7.396  13.943   0.969
  245SOL     OW 2567   3.278   2.360   9.781
  245SOL    HW1 2568   3.230   2.340   9.701
  245SOL    HW2 2569   3.253   2.449   9.804
  246SOL     OW 2570   6.115  11.612   6.103
  246SOL    HW1 2571   6.174  11.590   6.174
  246SOL    HW2 2572   6.047  11.666   6.144
  247SOL     OW 2573   9.740  12.233  14.643
  247SOL    HW1 2574   9.647  12.244  14.663
  247SOL    HW2 2575   9.777  12.321  14.656
  248SOL     OW 2576  13.850  14.706   2.763
  248SOL    HW1 2577  13.899  14.649   2.704
  248SOL    HW2 2578  13.866  14.794   2.729
  249SOL     OW 2579   7.618   9.295   8.325
  249SOL    HW1 2580   7.581   9.246   8.251
  249SOL    HW2 2581   7.709   9.310   8.300
  250SOL     OW 2582   2.864   8.439   7.667
  250SOL    HW1 2583   2.889   8.532   7.665
  250SOL    HW2 2584   2.791   8.435   7.728
  251SOL     OW 2585  13.103   4.163   3.293
  251SOL    HW1 2586  13.022   4.205   3.321
  251SOL    HW2 2587  13.127   4.208   3.212
  252SOL     OW 2588   5.207  14.529  11.965
  252SOL    HW1 2589   5.297  14.535  11.931
  252SOL    HW2 2590   5.185  14.619  11.990
  253SOL     OW 2591   4.307   1.546   0.045
  253SOL    HW1 2592   4.288   1.625  14.874
  253SOL    HW2 2593   4.326   1.479  14.858
  254SOL     OW 2594   9.855   4.904  11.530
  254SOL    HW1 2595   9.945   4.874  11.517
  254SOL    HW2 2596   9.817   4.906  11.442
  255SOL     OW 2597   9.587   0.412   7.645
  255SOL    HW1 2598   9.517   0.452   7.593
  255SOL    HW2 2599   9.542   0.365   7.715
  256SOL     OW 2600   9.334   8.693  10.545
  256SOL    HW1 2601   9.396   8.664  10.477
  256SOL    HW2 2602   9.252   8.705  10.498
  257SOL     OW 2603   6.530  12.664   5.779
  257SOL    HW1 2604   6.536  12.580   5.734
  257SOL    HW2 2605   6.547  12.643   5.871
  258SOL     OW 2606  12.852   4.678  14.583
  258SOL    HW1 2607  12.800   4.741  14.634
  258SOL    HW2 2608  12.789   4.612  14.555
  259SOL     OW 2609   5.443  13.935   1.118
  259SOL    HW1 2610   5.367  13.910   1.169
  259SOL    HW2 2611   5.477  13.852   1.084
  260SOL     OW 2612   7.459  13.268  14.085
  260SOL    HW1 2613   7.436  13.317  14.164
  260SOL    HW2 2614   7.529  13.319  14.044
  261SOL     OW 2615   3.889  14.297   6.679
  261SOL    HW1 2616   3.972  14.267   6.643
  261SOL    HW2 2617   3.826  14.229   6.655
  262SOL     OW 2618  12.705   4.425  11.763
  262SOL    HW1 2619  12.718   4.389  11.675
  262SOL    HW2 2620  12.741   4.513  11.758
  263SOL     OW 2621  10.764   6.046   0.358
  263SOL    HW1 2622  10.797   6.046   0.269
  263SOL    HW2 2623  10.689   6.105   0.356
  264SOL     OW 2624   1.167   6.222   5.691
  264SOL    HW1 2625   1.143   6.233   5.599
  264SOL    HW2 2626   1.250   6.268   5.700
  265SOL     OW 2627  14.724  10.702   3.403
  265SOL    HW1 2628  14.634  10.728   3.384
  265SOL    HW2 2629  14.766  10.695   3.318
  266SOL     OW 2630  10.608   1.849  14.757
  266SOL    HW1 2631  10.614   1.832  14.851
  266SOL    HW2 2632  10.516   1.874  14.743
  267SOL     OW 2633   7.471  14.081   9.189
  267SOL    HW1 2634   7.387  14.069   9.233
  267SOL    HW2 2635   7.531  14.024   9.237
  268SOL     OW 2636   1.206   2.450  13.389
  268SOL    HW1 2637   1.296   2.450  13.357
  268SOL    HW2 2638   1.214   2.437  13.484
  269SOL     OW 2639  11.259   9.656   4.220
  269SOL    HW1 2640  11.196   9.662   4.291
  269SOL    HW2 2641  11.266   9.562   4.201
  270SOL     OW 2642  10.349  13.799  10.648
  270SOL    HW1 2643  10.322  13.849  10.725
  270SOL    HW2 2644  10.436  13.832  10.627
  271SOL     OW 2645   1.466   6.375   0.164
  271SOL    HW1 2646   1.499   6.323   0.237
  271SOL    HW2 2647   1.544   6.415   0.126
  272SOL     OW 2648   8.112   5.235   7.962
  272SOL    HW1 2649   8.056   5.266   7.891
  272SOL    HW2 2650   8.127   5.313   8.016
  273SOL     OW 2651   1.866   6.259   6.638
  273SOL    HW1 2652   1.913   6.290   6.560
  273SOL    HW2 2653   1.933   6.255   6.706
  274SOL     OW 2654   7.574   8.904   7.967
  274SOL    HW1 2655   7.529   8.866   7.892
  274SOL    HW2 2656   7.635   8.836   7.996
  275SOL     OW 2657  13.757  11.916   2.989
  275SOL    HW1 2658  13.791  11.979   2.925
  275SOL    HW2 2659  13.709  11.852   2.937
  276SOL     OW 2660   8.062   1.077   5.822
  276SOL    HW1 2661   8.005   1.152   5.804
  276SOL    HW2 2662   8.002   1.008   5.850
  277SOL     OW 2663  11.336   7.824  12.830
  277SOL    HW1 2664  11.342   7.918  12.814
  277SOL    HW2 2665  11.243   7.807  12.843
  278SOL     OW 2666  11.388   0.339   9.446
  278SOL    HW1 2667  11.342   0.316   9.527
  278SOL    HW2 2668  11.454   0.270   9.435
  279SOL     OW 2669  13.466   9.352   4.107
  279SOL    HW1 2670  13.482   9.376   4.016
  279SOL    HW2 2671  13.521   9.411   4.158
  280SOL     OW 2672   2.095   6.709   1.906
  280SOL    HW1 2673   2.160   6.669   1.849
  280SOL    HW2 2674   2.146   6.755   1.972
  281SOL     OW 2675   1.612   6.458   2.559
  281SOL    HW1 2676   1.574   6.437   2.474
  281SOL    HW2 2677   1.607   6.377   2.609
  282SOL     OW 2678   5.471   7.235   6.592
  282SOL    HW1 2679   5.516   7.267   6.514
  282SOL    HW2 2680   5.524   7.160   6.620
  283SOL     OW 2681   2.012   1.886  10.717
  283SOL    HW1 2682   1.966   1.968  10.702
  283SOL    HW2 2683   2.034   1.855  10.629
  284SOL     OW 2684   8.551  13.190  12.504
  284SOL    HW1 2685   8.603  13.261  12.466
  284SOL    HW2 2686   8.529  13.134  12.429
  285SOL     OW 2687   1.017  12.840   4.748
  285SOL    HW1 2688   0.989  12.878   4.831
  285SOL    HW2 2689   0.957  12.766   4.735
  286SOL     OW 2690   9.291  11.798   5.294
  286SOL    HW1 2691   9.372  11.786   5.344
  286SOL    HW2 2692   9.296  11.734   5.223
  287SOL     OW 2693   7.393   7.013   2.617
  287SOL    HW1 2694   7.455   7.026   2.546
  287SOL    HW2 2695   7.379   7.100   2.654
  288SOL     OW 2696   1.357   0.991   5.599
  288SOL    HW1 2697   1.277   1.020   5.643
  288SOL    HW2 2698   1.387   0.917   5.651
  289SOL     OW 2699  11.414   4.978   5.050
  289SOL    HW1 2700  11.454   4.924   5.118
  289SOL    HW2 2701  11.333   4.932   5.028
  290SOL     OW 2702   5.398   3.551  10.640
  290SOL    HW1 2703   5.451   3.606  10.581
  290SOL    HW2 2704   5.335   3.508  10.582
  291SOL     OW 2705   7.850   3.571   4.043
  291SOL    HW1 2706   7.774   3.536   3.998
  291SOL    HW2 2707   7.902   3.494   4.066
  292SOL     OW 2708  10.144  11.580   3.883
  292SOL    HW1 2709  10.098  11.498   3.903
  292SOL    HW2 2710  10.131  11.592   3.789
  293SOL     OW 2711   4.207   2.048   9.006
  293SOL    HW1 2712   4.133   1.999   9.041
  293SOL    HW2 2713   4.284   1.995   9.029
  294SOL     OW 2714  12.368   2.186   5.740
  294SOL    HW1 2715  12.325   2.133   5.673
  294SOL    HW2 2716  12.459   2.192   5.711
  295SOL     OW 2717   9.081  11.364   8.944
  295SOL    HW1 2718   9.151  11.301   8.965
  295SOL    HW2 2719   9.012  11.310   8.904
  296SOL     OW 2720   8.884  12.842  10.032
  296SOL    HW1 2721   8.965  12.882  10.064
  296SOL    HW2 2722   8.869  12.883   9.947
  297SOL     OW 2723  13.378   7.332   3.886
  297SOL    HW1 2724  13.391   7.286   3.969
  297SOL    HW2 2725  13.293   7.299   3.855
  298SOL     OW 2726  13.684  11.142   8.653
  298SOL    HW1 2727  13.611  11.187   8.695
  298SOL    HW2 2728  13.677  11.051   8.685
  299SOL     OW 2729  14.804  12.620   0.795
  299SOL    HW1 2730  14.759  12.702   0.816
  299SOL    HW2 2731  14.758  12.587   0.718
  300SOL     OW 2732  13.439   9.886   6.301
  300SOL    HW1 2733  13.356   9.912   6.260
  300SOL    HW2 2734  13.482   9.969   6.322
  301SOL     OW 2735   6.577   0.698   9.171
  301SOL    HW1 2736   6.634   0.774   9.184
  301SOL    HW2 2737   6.549   0.705   9.080
  302SOL     OW 2738   1.978   3.715   7.447
  302SOL    HW1 2739   1.992   3.790   7.389
  302SOL    HW2 2740   2.007   3.639   7.395
  303SOL     OW 2741   1.934  12.859   6.620
  303SOL    HW1 2742   1.903  12.772   6.597
  303SOL    HW2 2743   1.968  12.849   6.709
  304SOL     OW 2744   5.091   1.442   2.144
  304SOL    HW1 2745   5.027   1.371   2.143
  304SOL    HW2 2746   5.065   1.497   2.217
  305SOL     OW 2747  12.097   7.479   2.669
  305SOL    HW1 2748  12.084   7.385   2.679
  305SOL    HW2 2749  12.158   7.502   2.739
  306SOL     OW 2750   2.997  14.583   6.072
  306SOL    HW1 2751   3.084  14.564   6.107
  306SOL    HW2 2752   2.999  14.550   5.982
  307SOL     OW 2753   5.087  10.953  13.927
  307SOL    HW1 2754   5.114  11.027  13.873
  307SOL    HW2 2755   5.160  10.891  13.922
  308SOL     OW 2756   6.304   8.450   8.608
  308SOL    HW1 2757   6.216   8.467   8.574
  308SOL    HW2 2758   6.347   8.536   8.607
  309SOL     OW 2759  13.808  10.772  10.469
  309SOL    HW1 2760  13.821  10.830  10.393
  309SOL    HW2 2761  13.884  10.789  10.526
  310SOL     OW 2762   3.128   2.648   2.171
  310SOL    HW1 2763   3.105   2.674   2.081
  310SOL    HW2 2764   3.152   2.556   2.163
  311SOL     OW 2765  12.385  11.187  11.015
  311SOL    HW1 2766  12.324  11.220  10.950
  311SOL    HW2 2767  12.346  11.106  11.047
  312SOL     OW 2768   5.123   8.335  11.481
  312SOL    HW1 2769   5.105   8.420  11.441
  312SOL    HW2 2770   5.040   8.289  11.479
  313SOL     OW 2771   3.990   6.515  14.251
  313SOL    HW1 2772   4.072   6.548  14.288
  313SOL    HW2 2773   3.983   6.557  14.166
  314SOL     OW 2774   1.572   8.401   5.142
  314SOL    HW1 2775   1.534   8.450   5.069
  314SOL    HW2 2776   1.568   8.309   5.114
  315SOL     OW 2777   7.413   4.691   2.723
  315SOL    HW1 2778   7.360   4.635   2.666
  315SOL    HW2 2779   7.471   4.738   2.664
  316SOL     OW 2780   6.780  12.636   4.952
  316SOL    HW1 2781   6.725  12.645   4.874
  316SOL    HW2 2782   6.721  12.654   5.025
  317SOL     OW 2783   1.668  14.391   8.098
  317SOL    HW1 2784   1.601  14.451   8.066
  317SOL    HW2 2785   1.652  14.384   8.192
  318SOL     OW 2786   0.357   1.149  10.819
  318SOL    HW1 2787   0.352   1.179  10.910
  318SOL    HW2 2788   0.355   1.229  10.767
  319SOL     OW 2789  13.422   6.078  10.537
  319SOL    HW1 2790  13.491   6.089  10.471
  319SOL    HW2 2791  13.371   6.159  10.531
  320SOL     OW 2792  14.719   0.269  14.106
  320SOL    HW1 2793  14.745   0.356  14.078
  320SOL    HW2 2794  14.742   0.212  14.033
  321SOL     OW 2795   8.016  13.309   4.006
  321SOL    HW1 2796   7.933  13.263   4.019
  321SOL    HW2 2797   8.010  13.385   4.064
  322SOL     OW 2798   2.537  13.164   9.772
  322SOL    HW1 2799   2.601  13.229   9.802
  322SOL    HW2 2800   2.524  13.106   9.847
  323SOL     OW 2801  14.655  14.272   8.087
  323SOL    HW1 2802  14.579  14.214   8.082
  323SOL    HW2 2803  14.633  14.347   8.032
  324SOL     OW 2804   3.795   9.998  12.453
  324SOL    HW1 2805   3.844   9.927  12.494
  324SOL    HW2 2806   3.808  10.073  12.511
  325SOL     OW 2807   5.214   7.624   9.707
  325SOL    HW1 2808   5.225   7.536   9.742
  325SOL    HW2 2809   5.264   7.680   9.767
  326SOL     OW 2810   5.284   3.273   8.501
  326SOL    HW1 2811   5.289   3.357   8.546
  326SOL    HW2 2812   5.363   3.270   8.448
  327SOL     OW 2813  14.145   7.001   7.926
  327SOL    HW1 2814  14.239   7.009   7.907
  327SOL    HW2 2815  14.111   6.944   7.857
  328SOL     OW 2816   2.750   7.144   2.677
  328SOL    HW1 2817   2.807   7.143   2.600
  328SOL    HW2 2818   2.694   7.067   2.666
  329SOL     OW 2819   9.034   4.720   9.055
  329SOL    HW1 2820   8.977   4.713   8.979
  329SOL    HW2 2821   9.033   4.814   9.077
  330SOL     OW 2822  10.963   3.629  10.374
  330SOL    HW1 2823  10.887   3.656  10.425
  330SOL    HW2 2824  11.038   3.651  10.430
  331SOL     OW 2825  11.536  11.344   5.647
  331SOL    HW1 2826  11.471  11.275   5.637
  331SOL    HW2 2827  11.588  11.317   5.723
  332SOL     OW 2828   1.788   0.326  10.460
  332SOL    HW1 2829   1.752   0.414  10.462
  332SOL    HW2 2830   1.712   0.269  10.466
  333SOL     OW 2831   3.607   1.495   4.951
  333SOL    HW1 2832   3.545   1.563   4.927
  333SOL    HW2 2833   3.606   1.494   5.047
  334SOL     OW 2834   6.569   3.847  11.531
  334SOL    HW1 2835   6.516   3.768  11.541
  334SOL    HW2 2836   6.508   3.919  11.551
  335SOL     OW 2837   6.069   4.469  13.457
  335SOL    HW1 2838   6.147   4.483  13.510
  335SOL    HW2 2839   5.999   4.456  13.522
  336SOL     OW 2840  14.207   1.244   7.699
  336SOL    HW1 2841  14.142   1.302   7.738
  336SOL    HW2 2842  14.275   1.302   7.666
  337SOL     OW 2843   2.693   8.126   7.960
  337SOL    HW1 2844   2.735   8.104   7.877
  337SOL    HW2 2845   2.694   8.044   8.009
  338SOL     OW 2846  14.246   5.769  11.644
  338SOL    HW1 2847  14.274   5.854  11.610
  338SOL    HW2 2848  14.181   5.791  11.712
  339SOL     OW 2849   1.856   1.896  12.514
  339SOL    HW1 2850   1.780   1.888  12.572
  339SOL    HW2 2851   1.921   1.944  12.565
  340SOL     OW 2852   9.632   4.824   4.355
  340SOL    HW1 2853   9.629   4.884   4.429
  340SOL    HW2 2854   9.699   4.760   4.380
  341SOL     OW 2855   5.502   5.989   8.234
  341SOL    HW1 2856   5.503   6.015   8.142
  341SOL    HW2 2857   5.439   6.048   8.275
  342SOL     OW 2858   9.874   7.417   5.360
  342SOL    HW1 2859   9.920   7.405   5.277
  342SOL    HW2 2860   9.789   7.374   5.346
  343SOL     OW 2861   3.901   6.245   0.352
  343SOL    HW1 2862   3.832   6.303   0.321
  343SOL    HW2 2863   3.870   6.214   0.438
  344SOL     OW 2864   6.766   1.734   2.891
  344SOL    HW1 2865   6.680   1.773   2.907
  344SOL    HW2 2866   6.749   1.656   2.839
  345SOL     OW 2867  11.074   4.647   6.554
  345SOL    HW1 2868  10.982   4.621   6.565
  345SOL    HW2 2869  11.093   4.700   6.632
  346SOL     OW 2870   3.553   1.686   4.580
  346SOL    HW1 2871   3.593   1.624   4.518
  346SOL    HW2 2872   3.577   1.772   4.547
  347SOL     OW 2873  12.344  11.942   4.050
  347SOL    HW1 2874  12.378  11.950   4.140
  347SOL    HW2 2875  12.374  12.022   4.006
  348SOL     OW 2876   8.607   2.221   0.085
  348SOL    HW1 2877   8.533   2.165   0.059
  348SOL    HW2 2878   8.603   2.295   0.024
  349SOL     OW 2879   2.844   2.741   2.869
  349SOL    HW1 2880   2.891   2.726   2.787
  349SOL    HW2 2881   2.902   2.797   2.920
  350SOL     OW 2882   4.504  12.205  12.518
  350SOL    HW1 2883   4.459  12.128  12.484
  350SOL    HW2 2884   4.593  12.197  12.483
  351SOL     OW 2885   7.519   0.768  13.033
  351SOL    HW1 2886   7.502   0.750  12.941
  351SOL    HW2 2887   7.598   0.822  13.033
  352SOL     OW 2888   5.063   5.263   6.128
  352SOL    HW1 2889   4.976   5.300   6.142
  352SOL    HW2 2890   5.112   5.333   6.085
  353SOL     OW 2891   2.096   0.316  11.299
  353SOL    HW1 2892   2.099   0.342  11.207
  353SOL    HW2 2893   2.167   0.366  11.340
  354SOL     OW 2894  14.840   1.524   6.510
  354SOL    HW1 2895  14.867   1.477   6.588
  354SOL    HW2 2896   0.041   1.531   6.457
  355SOL     OW 2897   9.177   8.505   5.688
  355SOL    HW1 2898   9.159   8.444   5.616
  355SOL    HW2 2899   9.271   8.500   5.700
  356SOL     OW 2900   9.283   3.912  12.066
  356SOL    HW1 2901   9.285   3.934  12.159
  356SOL    HW2 2902   9.354   3.849  12.054
  357SOL     OW 2903   8.638   8.154   1.590
  357SOL    HW1 2904   8.644   8.201   1.674
  357SOL    HW2 2905   8.647   8.223   1.524
  358SOL     OW 2906   0.595   6.178   8.321
  358SOL    HW1 2907   0.530   6.241   8.354
  358SOL    HW2 2908   0.600   6.111   8.389
  359SOL     OW 2909   2.650   8.094   9.777
  359SOL    HW1 2910   2.671   8.086   9.684
  359SOL    HW2 2911   2.686   8.014   9.816
  360SOL     OW 2912   8.572  10.978  12.590
  360SOL    HW1 2913   8.634  10.916  12.553
  360SOL    HW2 2914   8.551  10.942  12.677
  361SOL     OW 2915   4.735   6.820   9.253
  361SOL    HW1 2916   4.742   6.826   9.158
  361SOL    HW2 2917   4.642   6.834   9.271
  362SOL     OW 2918   8.958   2.902  13.988
  362SOL    HW1 2919   9.034   2.856  14.024
  362SOL    HW2 2920   8.883   2.858  14.029
  363SOL     OW 2921   8.868   1.016  12.540
  363SOL    HW1 2922   8.799   1.062  12.589
  363SOL    HW2 2923   8.906   0.956  12.604
  364SOL     OW 2924   5.374   6.471  10.911
  364SOL    HW1 2925   5.294   6.422  10.890
  364SOL    HW2 2926   5.433   6.452  10.837
  365SOL     OW 2927  12.473   1.227   9.383
  365SOL    HW1 2928  12.479   1.145   9.433
  365SOL    HW2 2929  12.542   1.283   9.419
  366SOL     OW 2930   7.592   6.204  12.876
  366SOL    HW1 2931   7.648   6.194  12.953
  366SOL    HW2 2932   7.620   6.134  12.817
  367SOL     OW 2933   7.666  10.633   0.590
  367SOL    HW1 2934   7.708  10.588   0.516
  367SOL    HW2 2935   7.705  10.721   0.588
  368SOL     OW 2936   9.494   8.548   1.081
  368SOL    HW1 2937   9.535   8.491   1.016
  368SOL    HW2 2938   9.461   8.488   1.147
  369SOL     OW 2939  14.267   9.135  11.596
  369SOL    HW1 2940  14.242   9.042  11.600
  369SOL    HW2 2941  14.360   9.136  11.617
  370SOL     OW 2942  10.015  11.425   9.116
  370SOL    HW1 2943   9.998  11.334   9.089
  370SOL    HW2 2944   9.962  11.437   9.194
  371SOL     OW 2945  10.471  12.183   5.845
  371SOL    HW1 2946  10.405  12.245   5.877
  371SOL    HW2 2947  10.476  12.116   5.913
  372SOL     OW 2948  13.163   9.626   0.356
  372SOL    HW1 2949  13.082   9.606   0.308
  372SOL    HW2 2950  13.226   9.649   0.287
  373SOL     OW 2951   5.496   0.249   3.048
  373SOL    HW1 2952   5.426   0.313   3.036
  373SOL    HW2 2953   5.490   0.223   3.140
  374SOL     OW 2954   1.009   7.275  10.458
  374SOL    HW1 2955   0.976   7.347  10.513
  374SOL    HW2 2956   1.100   7.297  10.442
  375SOL     OW 2957   7.441   6.720   1.683
  375SOL    HW1 2958   7.472   6.660   1.615
  375SOL    HW2 2959   7.482   6.803   1.663
  376SOL     OW 2960  13.285  10.428   4.987
  376SOL    HW1 2961  13.247  10.340   4.989
  376SOL    HW2 2962  13.346  10.426   4.913
  377SOL     OW 2963   9.422   2.772  11.148
  377SOL    HW1 2964   9.392   2.760  11.058
  377SOL    HW2 2965   9.503   2.721  11.153
  378SOL     OW 2966   0.940   0.112   2.177
  378SOL    HW1 2967   0.879   0.146   2.112
  378SOL    HW2 2968   0.885   0.088   2.252
  379SOL     OW 2969   0.012  13.444  11.212
  379SOL    HW1 2970  14.861  13.524  11.255
  379SOL    HW2 2971   0.106  13.441  11.228
  380SOL     OW 2972   3.667   1.222   1.184
  380SOL    HW1 2973   3.711   1.153   1.133
  380SOL    HW2 2974   3.605   1.261   1.122
  381SOL     OW 2975   2.952  10.826  12.599
  381SOL    HW1 2976   2.863  10.809  12.567
  381SOL    HW2 2977   2.969  10.754  12.660
  382SOL     OW 2978  10.847   7.811  13.712
  382SOL    HW1 2979  10.919   7.827  13.651
  382SOL    HW2 2980  10.844   7.716  13.721
  383SOL     OW 2981   9.357  12.708  10.603
  383SOL    HW1 2982   9.393  12.663  10.680
  383SOL    HW2 2983   9.316  12.638  10.552
  384SOL     OW 2984  10.066  11.270   0.115
  384SOL    HW1 2985  10.054  11.227   0.031
  384SOL    HW2 2986  10.019  11.353   0.107
  385SOL     OW 2987   6.279   9.968   7.068
  385SOL    HW1 2988   6.213  10.036   7.052
  385SOL    HW2 2989   6.229   9.893   7.100
  386SOL     OW 2990   5.117   1.203   7.601
  386SOL    HW1 2991   5.081   1.232   7.685
  386SOL    HW2 2992   5.205   1.240   7.599
  387SOL     OW 2993   9.151  14.383  12.339
  387SOL    HW1 2994   9.166  14.335  12.257
  387SOL    HW2 2995   9.238  14.413  12.365
  388SOL     OW 2996  12.549   3.208   6.748
  388SOL    HW1 2997  12.637   3.192   6.781
  388SOL    HW2 2998  12.514   3.278   6.804
  389SOL     OW 2999   2.761   7.429   7.303
  389SOL    HW1 3000   2.724   7.517   7.298
  389SOL    HW2 3001   2.855   7.443   7.293
  390SOL     OW 3002  11.285  11.815   0.237
  390SOL    HW1 3003  11.319  11.884   0.295
  390SOL    HW2 3004  11.215  11.858   0.188
  391SOL     OW 3005   5.652   3.790   5.140
  391SOL    HW1 3006   5.646   3.829   5.227
  391SOL    HW2 3007   5.675   3.864   5.083
  392SOL     OW 3008   7.400   0.753   6.168
  392SOL    HW1 3009   7.394   0.715   6.255
  392SOL    HW2 3010   7.445   0.687   6.116
  393SOL     OW 3011  14.219   9.795   8.685
  393SOL    HW1 3012  14.163   9.765   8.613
  393SOL    HW2 3013  14.183   9.881   8.708
  394SOL     OW 3014  13.376   1.300   0.488
  394SOL    HW1 3015  13.324   1.324   0.411
  394SOL    HW2 3016  13.462   1.339   0.473
  395SOL     OW 3017   9.779   5.003  10.893
  395SOL    HW1 3018   9.785   4.912  10.865
  395SOL    HW2 3019   9.775   5.053  10.811
  396SOL     OW 3020   0.323   3.252   0.047
  396SOL    HW1 3021   0.301   3.285  14.838
  396SOL    HW2 3022   0.406   3.295   0.069
  397SOL     OW 3023  10.612   8.445   7.198
  397SOL    HW1 3024  10.586   8.363   7.240
  397SOL    HW2 3025  10.648   8.419   7.114
  398SOL     OW 3026   0.665   6.506  14.617
  398SOL    HW1 3027   0.748   6.548  14.637
  398SOL    HW2 3028   0.689   6.424  14.574
  399SOL     OW 3029   6.907  10.601  12.753
  399SOL    HW1 3030   6.837  10.547  12.717
  399SOL    HW2 3031   6.877  10.691  12.739
  400SOL     OW 3032  14.729  11.699  14.347
  400SOL    HW1 3033  14.787  11.775  14.343
  400SOL    HW2 3034  14.771  11.640  14.409
  401SOL     OW 3035   1.306   2.389   9.153
  401SOL    HW1 3036   1.320   2.425   9.065
  401SOL    HW2 3037   1.221   2.346   9.148
  402SOL     OW 3038   3.758   3.795   4.424
  402SOL    HW1 3039   3.733   3.757   4.508
  402SOL    HW2 3040   3.783   3.885   4.444
  403SOL     OW 3041   0.407   3.217  11.292
  403SOL    HW1 3042   0.341   3.228  11.223
  403SOL    HW2 3043   0.416   3.122  11.301
  404SOL     OW 3044  14.783   9.904   4.613
  404SOL    HW1 3045  14.754   9.957   4.538
  404SOL    HW2 3046  14.758   9.956   4.689
  405SOL     OW 3047   1.523   0.109   4.569
  405SOL    HW1 3048   1.456   0.113   4.637
  405SOL    HW2 3049   1.587   0.046   4.602
  406SOL     OW 3050   8.580   8.260  13.434
  406SOL    HW1 3051   8.552   8.327  13.496
  406SOL    HW2 3052   8.669   8.287  13.409
  407SOL     OW 3053  11.878   4.520   7.548
  407SOL    HW1 3054  11.920   4.502   7.632
  407SOL    HW2 3055  11.802   4.573   7.569
  408SOL     OW 3056   2.746   0.732   6.082
  408SOL    HW1 3057   2.741   0.694   6.170
  408SOL    HW2 3058   2.726   0.825   6.094
  409SOL     OW 3059   6.239  12.560   6.571
  409SOL    HW1 3060   6.156  12.514   6.561
  409SOL    HW2 3061   6.214  12.651   6.589
  410SOL     OW 3062  13.745   2.093  12.741
  410SOL    HW1 3063  13.669   2.151  12.736
  410SOL    HW2 3064  13.761   2.068  12.650
  411SOL     OW 3065  10.700   0.928   3.358
  411SOL    HW1 3066  10.676   1.017   3.382
  411SOL    HW2 3067  10.788   0.916   3.395
  412SOL     OW 3068   4.556  13.188   2.672
  412SOL    HW1 3069   4.487  13.254   2.684
  412SOL    HW2 3070   4.628  13.237   2.631
  413SOL     OW 3071   1.475   0.902   8.195
  413SOL    HW1 3072   1.558   0.884   8.240
  413SOL    HW2 3073   1.464   0.997   8.202
  414SOL     OW 3074  14.250   7.432   8.861
  414SOL    HW1 3075  14.203   7.349   8.856
  414SOL    HW2 3076  14.234   7.474   8.776
  415SOL     OW 3077   7.490  10.201   5.524
  415SOL    HW1 3078   7.423  10.248   5.573
  415SOL    HW2 3079   7.442  10.157   5.454
  416SOL     OW 3080   0.263  12.525  14.255
  416SOL    HW1 3081   0.341  12.569  14.221
  416SOL    HW2 3082   0.235  12.468  14.184
  417SOL     OW 3083   2.448   4.403   8.417
  417SOL    HW1 3084   2.477   4.471   8.356
  417SOL    HW2 3085   2.371   4.364   8.375
  418SOL     OW 3086  11.507   4.195   8.108
  418SOL    HW1 3087  11.414   4.180   8.120
  418SOL    HW2 3088  11.547   4.108   8.109
  419SOL     OW 3089   6.223  10.525  14.046
  419SOL    HW1 3090   6.141  10.502  14.002
  419SOL    HW2 3091   6.290  10.477  13.998
  420SOL     OW 3092  14.170   7.775   3.089
  420SOL    HW1 3093  14.226   7.852   3.104
  420SOL    HW2 3094  14.232   7.704   3.074
  421SOL     OW 3095  11.488  10.816   3.967
  421SOL    HW1 3096  11.513  10.866   3.889
  421SOL    HW2 3097  11.394  10.831   3.976
  422SOL     OW 3098  12.976  11.047  12.980
  422SOL    HW1 3099  13.039  11.051  13.053
  422SOL    HW2 3100  12.950  10.955  12.977
  423SOL     OW 3101   7.913   9.138   3.345
  423SOL    HW1 3102   7.820   9.158   3.357
  423SOL    HW2 3103   7.934   9.077   3.415
  424SOL     OW 3104   5.372   2.745  10.391
  424SOL    HW1 3105   5.329   2.790  10.464
  424SOL    HW2 3106   5.326   2.779  10.313
  425SOL     OW 3107  11.107  11.605   2.850
  425SOL    HW1 3108  11.180  11.645   2.803
  425SOL    HW2 3109  11.030  11.652   2.819
  426SOL     OW 3110   9.570   9.400   1.913
  426SOL    HW1 3111   9.634   9.430   1.849
  426SOL    HW2 3112   9.595   9.444   1.994
  427SOL     OW 3113   4.189   7.754  12.692
  427SOL    HW1 3114   4.273   7.792  12.666
  427SOL    HW2 3115   4.123   7.807  12.647
  428SOL     OW 3116   6.444   8.774  11.177
  428SOL    HW1 3117   6.416   8.823  11.100
  428SOL    HW2 3118   6.482   8.840  11.235
  429SOL     OW 3119   9.378   1.456  11.460
  429SOL    HW1 3120   9.449   1.432  11.400
  429SOL    HW2 3121   9.364   1.549  11.444
  430SOL     OW 3122   8.298  14.674   4.240
  430SOL    HW1 3123   8.295  14.702   4.331
  430SOL    HW2 3124   8.352  14.595   4.241
  431SOL     OW 3125   5.679   0.925   7.624
  431SOL    HW1 3126   5.611   0.858   7.616
  431SOL    HW2 3127   5.641   1.002   7.583
  432SOL     OW 3128   6.581   5.467   7.551
  432SOL    HW1 3129   6.514   5.433   7.491
  432SOL    HW2 3130   6.660   5.473   7.498
  433SOL     OW 3131   7.883  13.591  12.167
  433SOL    HW1 3132   7.949  13.527  12.197
  433SOL    HW2 3133   7.919  13.675  12.194
  434SOL     OW 3134  11.009   2.546   5.269
  434SOL    HW1 3135  10.934   2.577   5.320
  434SOL    HW2 3136  11.032   2.462   5.309
  435SOL     OW 3137  12.656   6.448  13.200
  435SOL    HW1 3138  12.705   6.377  13.242
  435SOL    HW2 3139  12.572   6.408  13.177
  436SOL     OW 3140  14.810   9.718  12.291
  436SOL    HW1 3141   0.015   9.694  12.252
  436SOL    HW2 3142  14.767   9.634  12.308
  437SOL     OW 3143   6.523  13.897   3.910
  437SOL    HW1 3144   6.504  13.831   3.977
  437SOL    HW2 3145   6.557  13.972   3.960
  438SOL     OW 3146  10.076  12.505  10.551
  438SOL    HW1 3147  10.096  12.557  10.629
  438SOL    HW2 3148   9.992  12.464  10.571
  439SOL     OW 3149  10.609   1.534   5.512
  439SOL    HW1 3150  10.547   1.474   5.553
  439SOL    HW2 3151  10.605   1.512   5.419
  440SOL     OW 3152   1.916   5.544   4.331
  440SOL    HW1 3153   1.880   5.485   4.264
  440SOL    HW2 3154   2.007   5.518   4.339
  441SOL     OW 3155  10.142  10.232   6.357
  441SOL    HW1 3156  10.064  10.210   6.407
  441SOL    HW2 3157  10.169  10.150   6.317
  442SOL     OW 3158   4.152  13.161   8.926
  442SOL    HW1 3159   4.209  13.084   8.925
  442SOL    HW2 3160   4.070  13.131   8.963
  443SOL     OW 3161   2.927   5.441   7.139
  443SOL    HW1 3162   2.883   5.388   7.205
  443SOL    HW2 3163   3.006   5.473   7.183
  444SOL     OW 3164   6.599  14.864  12.155
  444SOL    HW1 3165   6.512  14.871  12.192
  444SOL    HW2 3166   6.610   0.064  12.102
  445SOL     OW 3167   2.190  12.074   5.824
  445SOL    HW1 3168   2.109  12.102   5.782
  445SOL    HW2 3169   2.256  12.079   5.755
  446SOL     OW 3170   9.638  11.471  10.946
  446SOL    HW1 3171   9.567  11.487  10.884
  446SOL    HW2 3172   9.678  11.558  10.958
  447SOL     OW 3173   9.846  13.385   2.521
  447SOL    HW1 3174   9.909  13.332   2.571
  447SOL    HW2 3175   9.800  13.322   2.466
  448SOL     OW 3176   2.327  14.875  13.152
  448SOL    HW1 3177   2.343   0.090  13.165
  448SOL    HW2 3178   2.405  14.833  13.188
  449SOL     OW 3179   8.790   2.418  12.029
  449SOL    HW1 3180   8.809   2.492  12.085
  449SOL    HW2 3181   8.821   2.444  11.942
  450SOL     OW 3182  11.410   0.653   4.292
  450SOL    HW1 3183  11.477   0.626   4.230
  450SOL    HW2 3184  11.425   0.598   4.369
  451SOL     OW 3185   3.403   5.707  10.132
  451SOL    HW1 3186   3.396   5.771  10.203
  451SOL    HW2 3187   3.313   5.679  10.116
  452SOL     OW 3188   4.844   9.691   7.355
  452SOL    HW1 3189   4.887   9.760   7.404
  452SOL    HW2 3190   4.762   9.675   7.402
  453SOL     OW 3191  14.494   3.565   2.966
  453SOL    HW1 3192  14.401   3.581   2.983
  453SOL    HW2 3193  14.500   3.558   2.871
  454SOL     OW 3194  13.269   7.770   7.265
  454SOL    HW1 3195  13.231   7.691   7.228
  454SOL    HW2 3196  13.273   7.753   7.359
  455SOL     OW 3197   9.478   0.420   0.568
  455SOL    HW1 3198   9.411   0.356   0.545
  455SOL    HW2 3199   9.457   0.497   0.515
  456SOL     OW 3200  13.961   0.549  12.475
  456SOL    HW1 3201  14.033   0.588  12.426
  456SOL    HW2 3202  13.886   0.554  12.415
  457SOL     OW 3203  10.219  12.133   7.237
  457SOL    HW1 3204  10.128  12.107   7.225
  457SOL    HW2 3205  10.239  12.110   7.327
  458SOL     OW 3206  13.904  13.761   7.875
  458SOL    HW1 3207  13.956  13.831   7.837
  458SOL    HW2 3208  13.814  13.792   7.869
  459SOL     OW 3209  14.193   3.010  12.420
  459SOL    HW1 3210  14.131   2.944  12.452
  459SOL    HW2 3211  14.264   2.959  12.382
  460SOL     OW 3212   6.495   3.088  14.695
  460SOL    HW1 3213   6.459   3.010  14.738
  460SOL    HW2 3214   6.424   3.152  14.699
  461SOL     OW 3215   6.316   6.359   0.830
  461SOL    HW1 3216   6.252   6.322   0.891
  461SOL    HW2 3217   6.400   6.319   0.856
  462SOL     OW 3218   6.856  13.519   1.211
  462SOL    HW1 3219   6.912  13.510   1.134
  462SOL    HW2 3220   6.898  13.587   1.264
  463SOL     OW 3221  11.974   2.216   6.929
  463SOL    HW1 3222  11.955   2.126   6.954
  463SOL    HW2 3223  11.890   2.262   6.941
  464SOL     OW 3224  11.793   7.568  12.829
  464SOL    HW1 3225  11.725   7.634  12.846
  464SOL    HW2 3226  11.752   7.485  12.851
  465SOL     OW 3227   2.429   4.670   8.954
  465SOL    HW1 3228   2.487   4.664   8.879
  465SOL    HW2 3229   2.486   4.659   9.030
  466SOL     OW 3230   5.759  14.477   8.534
  466SOL    HW1 3231   5.836  14.528   8.559
  466SOL    HW2 3232   5.796  14.396   8.497
  467SOL     OW 3233   8.846   5.598   9.429
  467SOL    HW1 3234   8.827   5.547   9.508
  467SOL    HW2 3235   8.769   5.584   9.373
  468SOL     OW 3236  11.732   5.686   0.922
  468SOL    HW1 3237  11.639   5.704   0.933
  468SOL    HW2 3238  11.776   5.767   0.945
  469SOL     OW 3239  12.361   5.776   3.089
  469SOL    HW1 3240  12.412   5.838   3.142
  469SOL    HW2 3241  12.395   5.690   3.113
  470SOL     OW 3242   6.867  14.276   5.521
  470SOL    HW1 3243   6.857  14.243   5.432
  470SOL    HW2 3244   6.780  14.307   5.545
  471SOL     OW 3245  12.034   0.290   8.144
  471SOL    HW1 3246  12.125   0.264   8.157
  471SOL    HW2 3247  12.027   0.306   8.050
  472SOL     OW 3248  10.591   5.749   1.272
  472SOL    HW1 3249  10.538   5.676   1.305
  472SOL    HW2 3250  10.677   5.711   1.257
  473SOL     OW 3251  14.000   5.118   6.812
  473SOL    HW1 3252  14.064   5.047   6.825
  473SOL    HW2 3253  13.917   5.073   6.796
  474SOL     OW 3254   0.509   4.082   6.845
  474SOL    HW1 3255   0.570   4.064   6.916
  474SOL    HW2 3256   0.478   4.171   6.862
  475SOL     OW 3257  14.752  14.291  13.841
  475SOL    HW1 3258  14.699  14.349  13.896
  475SOL    HW2 3259  14.773  14.344  13.764
  476SOL     OW 3260   6.291  10.533   3.837
  476SOL    HW1 3261   6.378  10.497   3.856
  476SOL    HW2 3262   6.298  10.626   3.858
  477SOL     OW 3263  10.208   1.610   7.300
  477SOL    HW1 3264  10.150   1.554   7.248
  477SOL    HW2 3265  10.232   1.556   7.376
  478SOL     OW 3266   1.989   4.102  12.100
  478SOL    HW1 3267   2.066   4.048  12.119
  478SOL    HW2 3268   1.929   4.085  12.172
  479SOL     OW 3269   1.953   8.708   4.883
  479SOL    HW1 3270   1.898   8.738   4.810
  479SOL    HW2 3271   1.940   8.773   4.952
  480SOL     OW 3272   7.616   6.789   4.831
  480SOL    HW1 3273   7.707   6.761   4.819
  480SOL    HW2 3274   7.603   6.857   4.765
  481SOL     OW 3275   6.747  11.545   5.535
  481SOL    HW1 3276   6.671  11.596   5.507
  481SOL    HW2 3277   6.720  11.454   5.525
  482SOL     OW 3278  14.747   9.863  12.032
  482SOL    HW1 3279  14.782   9.855  12.121
  482SOL    HW2 3280  14.776   9.783  11.988
  483SOL     OW 3281   2.607  14.301   8.004
  483SOL    HW1 3282   2.659  14.358   8.061
  483SOL    HW2 3283   2.560  14.243   8.064
  484SOL     OW 3284   5.965   5.164  14.512
  484SOL    HW1 3285   5.939   5.182  14.602
  484SOL    HW2 3286   5.891   5.193  14.459
  485SOL     OW 3287   3.259   2.307   0.483
  485SOL    HW1 3288   3.291   2.228   0.526
  485SOL    HW2 3289   3.335   2.341   0.437
  486SOL     OW 3290   0.544   9.869  11.967
  486SOL    HW1 3291   0.581   9.790  12.007
  486SOL    HW2 3292   0.568   9.863  11.875
  487SOL     OW 3293   5.453   9.694  14.299
  487SOL    HW1 3294   5.525   9.732  14.248
  487SOL    HW2 3295   5.497   9.637  14.362
  488SOL     OW 3296   2.973  13.467   4.126
  488SOL    HW1 3297   2.938  13.551   4.097
  488SOL    HW2 3298   2.900  13.406   4.117
  489SOL     OW 3299   6.801   5.845   7.765
  489SOL    HW1 3300   6.847   5.894   7.833
  489SOL    HW2 3301   6.864   5.780   7.735
  490SOL     OW 3302  14.480   6.569   7.299
  490SOL    HW1 3303  14.430   6.631   7.352
  490SOL    HW2 3304  14.481   6.488   7.350
  491SOL     OW 3305   7.773  11.653  13.272
  491SOL    HW1 3306   7.851  11.645  13.326
  491SOL    HW2 3307   7.700  11.652  13.334
  492SOL     OW 3308  11.882  14.365   8.434
  492SOL    HW1 3309  11.836  14.295   8.388
  492SOL    HW2 3310  11.971  14.331   8.445
  493SOL     OW 3311  12.072   9.638   9.835
  493SOL    HW1 3312  12.073   9.662   9.742
  493SOL    HW2 3313  11.983   9.656   9.863
  494SOL     OW 3314  10.375   5.597   0.688
  494SOL    HW1 3315  10.352   5.539   0.760
  494SOL    HW2 3316  10.412   5.540   0.621
  495SOL     OW 3317   6.519   8.637   7.601
  495SOL    HW1 3318   6.425   8.624   7.610
  495SOL    HW2 3319   6.538   8.713   7.655
  496SOL     OW 3320   0.665   1.345   0.616
  496SOL    HW1 3321   0.597   1.283   0.643
  496SOL    HW2 3322   0.667   1.410   0.687
  497SOL     OW 3323   9.144   1.480   0.274
  497SOL    HW1 3324   9.083   1.548   0.301
  497SOL    HW2 3325   9.089   1.413   0.234
  498SOL     OW 3326   0.291   7.412   4.687
  498SOL    HW1 3327   0.253   7.465   4.758
  498SOL    HW2 3328   0.385   7.427   4.694
  499SOL     OW 3329   5.877  13.672   7.957
  499SOL    HW1 3330   5.813  13.696   7.890
  499SOL    HW2 3331   5.867  13.737   8.026
  500SOL     OW 3332  11.479   7.457   7.008
  500SOL    HW1 3333  11.441   7.488   7.090
  500SOL    HW2 3334  11.467   7.362   7.009
  501SOL     OW 3335   5.002  14.486  10.386
  501SOL    HW1 3336   5.010  14.392  10.398
  501SOL    HW2 3337   4.942  14.515  10.455
  502SOL     OW 3338   9.478   7.870   7.283
  502SOL    HW1 3339   9.413   7.802   7.301
  502SOL    HW2 3340   9.431   7.952   7.296
  503SOL     OW 3341  13.714  12.048   5.136
  503SOL    HW1 3342  13.724  12.105   5.213
  503SOL    HW2 3343  13.721  12.107   5.061
  504SOL     OW 3344   5.787   6.542   8.755
  504SOL    HW1 3345   5.874   6.537   8.717
  504SOL    HW2 3346   5.758   6.632   8.735
  505SOL     OW 3347  10.636   5.526   5.080
  505SOL    HW1 3348  10.579   5.461   5.040
  505SOL    HW2 3349  10.578   5.598   5.105
  506SOL     OW 3350   9.651  14.085  12.174
  506SOL    HW1 3351   9.560  14.116  12.173
  506SOL    HW2 3352   9.664  14.051  12.263
  507SOL     OW 3353   7.781   7.634   1.926
  507SOL    HW1 3354   7.815   7.723   1.916
  507SOL    HW2 3355   7.784   7.618   2.020
  508SOL     OW 3356  11.110  12.628   2.808
  508SOL    HW1 3357  11.049  12.569   2.851
  508SOL    HW2 3358  11.154  12.674   2.880
  509SOL     OW 3359   1.824  13.306   4.103
  509SOL    HW1 3360   1.855  13.395   4.086
  509SOL    HW2 3361   1.812  13.269   4.015
  510SOL     OW 3362   3.456  10.515  13.017
  510SOL    HW1 3363   3.388  10.472  13.069
  510SOL    HW2 3364   3.436  10.608  13.023
  511SOL     OW 3365   3.163  12.975   0.633
  511SOL    HW1 3366   3.106  13.023   0.573
  511SOL    HW2 3367   3.234  13.036   0.654
  512SOL     OW 3368  10.098   5.590   2.209
  512SOL    HW1 3369  10.138   5.665   2.165
  512SOL    HW2 3370  10.163   5.520   2.201
  513SOL     OW 3371  12.163   1.455  14.759
  513SOL    HW1 3372  12.086   1.463  14.815
  513SOL    HW2 3373  12.148   1.376  14.708
  514SOL     OW 3374   5.529   5.558   1.974
  514SOL    HW1 3375   5.566   5.488   2.028
  514SOL    HW2 3376   5.434   5.550   1.986
  515SOL     OW 3377   4.886   3.774  10.409
  515SOL    HW1 3378   4.803   3.823  10.405
  515SOL    HW2 3379   4.859   3.682  10.410
  516SOL     OW 3380  14.051   6.775  13.964
  516SOL    HW1 3381  14.119   6.792  14.028
  516SOL    HW2 3382  14.039   6.680  13.966
  517SOL     OW 3383   7.435  12.462   1.821
  517SOL    HW1 3384   7.368  12.504   1.766
  517SOL    HW2 3385   7.398  12.377   1.844
  518SOL     OW 3386  14.487   3.701  14.301
  518SOL    HW1 3387  14.534   3.734  14.225
  518SOL    HW2 3388  14.425   3.771  14.323
  519SOL     OW 3389  13.915  10.253  10.122
  519SOL    HW1 3390  13.922  10.170  10.076
  519SOL    HW2 3391  13.947  10.236  10.210
  520SOL     OW 3392   2.097   4.603   7.630
  520SOL    HW1 3393   2.135   4.521   7.662
  520SOL    HW2 3394   2.075   4.586   7.538
  521SOL     OW 3395  12.716   6.109  10.577
  521SOL    HW1 3396  12.713   6.204  10.565
  521SOL    HW2 3397  12.766   6.076  10.502
  522SOL     OW 3398   1.086  13.913   8.247
  522SOL    HW1 3399   1.167  13.872   8.216
  522SOL    HW2 3400   1.016  13.861   8.206
  523SOL     OW 3401  14.745   5.573   3.881
  523SOL    HW1 3402  14.839   5.587   3.872
  523SOL    HW2 3403  14.725   5.599   3.971
  524SOL     OW 3404  13.659   9.500  14.460
  524SOL    HW1 3405  13.644   9.592  14.481
  524SOL    HW2 3406  13.750   9.484  14.486
  525SOL     OW 3407  14.231   5.792   9.982
  525SOL    HW1 3408  14.289   5.866  10.003
  525SOL    HW2 3409  14.291   5.719   9.969
  526SOL     OW 3410   6.741   7.759   8.078
  526SOL    HW1 3411   6.802   7.774   8.006
  526SOL    HW2 3412   6.742   7.664   8.090
  527SOL     OW 3413   2.139  11.651   6.698
  527SOL    HW1 3414   2.196  11.575   6.695
  527SOL    HW2 3415   2.092  11.649   6.615
  528SOL     OW 3416  13.281   3.468   8.559
  528SOL    HW1 3417  13.284   3.490   8.466
  528SOL    HW2 3418  13.194   3.495   8.587
  529SOL     OW 3419   5.831   9.961  10.958
  529SOL    HW1 3420   5.788   9.886  10.998
  529SOL    HW2 3421   5.887   9.924  10.890
  530SOL     OW 3422  10.730  11.023   2.301
  530SOL    HW1 3423  10.708  10.978   2.383
  530SOL    HW2 3424  10.820  10.995   2.283
  531SOL     OW 3425   6.144  14.802  12.516
  531SOL    HW1 3426   6.238  14.796  12.501
  531SOL    HW2 3427   6.125  14.733  12.581
  532SOL     OW 3428   7.966   6.340  11.608
  532SOL    HW1 3429   7.985   6.253  11.573
  532SOL    HW2 3430   7.910   6.323  11.684
  533SOL     OW 3431  10.696   8.475   9.526
  533SOL    HW1 3432  10.656   8.544   9.472
  533SOL    HW2 3433  10.631   8.459   9.595
  534SOL     OW 3434   9.940   1.371   3.659
  534SOL    HW1 3435   9.935   1.326   3.743
  534SOL    HW2 3436   9.882   1.447   3.669
  535SOL     OW 3437   6.244  12.255   4.658
  535SOL    HW1 3438   6.216  12.346   4.666
  535SOL    HW2 3439   6.337  12.260   4.635
  536SOL     OW 3440   5.607   2.365   1.064
  536SOL    HW1 3441   5.640   2.297   1.006
  536SOL    HW2 3442   5.683   2.421   1.081
  537SOL     OW 3443  14.606   0.773   4.990
  537SOL    HW1 3444  14.632   0.703   5.049
  537SOL    HW2 3445  14.606   0.852   5.043
  538SOL     OW 3446   3.192   0.017   7.898
  538SOL    HW1 3447   3.198   0.024   7.803
  538SOL    HW2 3448   3.103  14.867   7.915
  539SOL     OW 3449   1.184  13.863   5.413
  539SOL    HW1 3450   1.118  13.836   5.476
  539SOL    HW2 3451   1.199  13.956   5.432
  540SOL     OW 3452   9.933   3.016  14.708
  540SOL    HW1 3453   9.849   3.054  14.732
  540SOL    HW2 3454   9.992   3.091  14.702
  541SOL     OW 3455   1.739   3.737   7.023
  541SOL    HW1 3456   1.732   3.798   7.097
  541SOL    HW2 3457   1.778   3.658   7.061
  542SOL     OW 3458  13.683   5.672   7.331
  542SOL    HW1 3459  13.646   5.647   7.246
  542SOL    HW2 3460  13.771   5.703   7.311
  543SOL     OW 3461   2.282  14.024   5.221
  543SOL    HW1 3462   2.262  13.963   5.292
  543SOL    HW2 3463   2.244  13.983   5.143
  544SOL     OW 3464   1.187   1.939  12.613
  544SOL    HW1 3465   1.171   2.028  12.642
  544SOL    HW2 3466   1.106   1.915  12.567
  545SOL     OW 3467   2.334   8.002   6.793
  545SOL    HW1 3468   2.371   7.924   6.837
  545SOL    HW2 3469   2.404   8.067   6.798
  546SOL     OW 3470  13.141  12.044   7.782
  546SOL    HW1 3471  13.097  11.960   7.797
  546SOL    HW2 3472  13.117  12.068   7.692
  547SOL     OW 3473   5.343   9.938  14.303
  547SOL    HW1 3474   5.407   9.990  14.254
  547SOL    HW2 3475   5.372   9.847  14.291
  548SOL     OW 3476   7.612   2.378   8.595
  548SOL    HW1 3477   7.663   2.369   8.514
  548SOL    HW2 3478   7.523   2.356   8.569
  549SOL     OW 3479  11.220   2.629   2.025
  549SOL    HW1 3480  11.152   2.677   2.071
  549SOL    HW2 3481  11.195   2.634   1.933
  550SOL     OW 3482   5.737   1.765   3.338
  550SOL    HW1 3483   5.667   1.710   3.374
  550SOL    HW2 3484   5.753   1.831   3.406
  551SOL     OW 3485   3.977   1.241  13.234
  551SOL    HW1 3486   3.922   1.318  13.226
  551SOL    HW2 3487   3.971   1.217  13.327
  552SOL     OW 3488  12.221   1.648  11.294
  552SOL    HW1 3489  12.223   1.577  11.358
  552SOL    HW2 3490  12.138   1.638  11.248
  553SOL     OW 3491  10.936   7.360   7.150
  553SOL    HW1 3492  10.853   7.370   7.196
  553SOL    HW2 3493  10.916   7.382   7.059
  554SOL     OW 3494  10.574  10.485   0.502
  554SOL    HW1 3495  10.595  10.403   0.547
  554SOL    HW2 3496  10.615  10.553   0.555
  555SOL     OW 3497   2.890   5.384   5.268
  555SOL    HW1 3498   2.932   5.298   5.263
  555SOL    HW2 3499   2.962   5.444   5.288
  556SOL     OW 3500  11.706  13.989   8.742
  556SOL    HW1 3501  11.681  13.911   8.791
  556SOL    HW2 3502  11.759  14.040   8.803
  557SOL     OW 3503   1.246  10.846   0.293
  557SOL    HW1 3504   1.206  10.761   0.311
  557SOL    HW2 3505   1.172  10.902   0.268
  558SOL     OW 3506   7.168  13.503  11.836
  558SOL    HW1 3507   7.131  13.573  11.889
  558SOL    HW2 3508   7.092  13.456  11.801
  559SOL     OW 3509   2.817   0.312   5.170
  559SOL    HW1 3510   2.730   0.341   5.140
  559SOL    HW2 3511   2.848   0.255   5.099
  560SOL     OW 3512   4.451  13.032   0.961
  560SOL    HW1 3513   4.521  13.038   0.896
  560SOL    HW2 3514   4.431  12.938   0.965
  561SOL     OW 3515  11.405   7.310   5.897
  561SOL    HW1 3516  11.321   7.336   5.933
  561SOL    HW2 3517  11.469   7.338   5.963
  562SOL     OW 3518   1.613   6.312  11.043
  562SOL    HW1 3519   1.587   6.396  11.080
  562SOL    HW2 3520   1.572   6.247  11.100
  563SOL     OW 3521  12.363  11.309   3.581
  563SOL    HW1 3522  12.318  11.235   3.622
  563SOL    HW2 3523  12.451  11.276   3.562
  564SOL     OW 3524   2.880   2.073  10.929
  564SOL    HW1 3525   2.894   2.163  10.900
  564SOL    HW2 3526   2.948   2.058  10.995
  565SOL     OW 3527   8.685   0.253  10.297
  565SOL    HW1 3528   8.671   0.339  10.337
  565SOL    HW2 3529   8.776   0.231  10.319
  566SOL     OW 3530  14.253   2.982   6.090
  566SOL    HW1 3531  14.230   2.992   6.182
  566SOL    HW2 3532  14.179   3.018   6.041
  567SOL     OW 3533   0.408   8.715  14.263
  567SOL    HW1 3534   0.482   8.758  14.305
  567SOL    HW2 3535   0.334   8.774  14.277
  568SOL     OW 3536   0.388  12.816   0.853
  568SOL    HW1 3537   0.438  12.747   0.896
  568SOL    HW2 3538   0.332  12.852   0.922
  569SOL     OW 3539   1.396   8.325   6.067
  569SOL    HW1 3540   1.432   8.237   6.079
  569SOL    HW2 3541   1.436   8.357   5.986
  570SOL     OW 3542   0.135   5.509   1.496
  570SOL    HW1 3543   0.046   5.514   1.462
  570SOL    HW2 3544   0.169   5.425   1.463
  571SOL     OW 3545   1.101   5.051  12.713
  571SOL    HW1 3546   1.029   5.081  12.657
  571SOL    HW2 3547   1.076   4.962  12.738
  572SOL     OW 3548   9.780   7.853   5.974
  572SOL    HW1 3549   9.717   7.805   5.919
  572SOL    HW2 3550   9.802   7.791   6.044
  573SOL     OW 3551  14.197   1.272   5.691
  573SOL    HW1 3552  14.219   1.309   5.605
  573SOL    HW2 3553  14.135   1.335   5.728
  574SOL     OW 3554  11.743  13.261   2.980
  574SOL    HW1 3555  11.833  13.245   2.949
  574SOL    HW2 3556  11.712  13.335   2.928
  575SOL     OW 3557   6.322   0.725   5.895
  575SOL    HW1 3558   6.400   0.703   5.843
  575SOL    HW2 3559   6.352   0.795   5.954
  576SOL     OW 3560   3.889   1.493  14.819
  576SOL    HW1 3561   3.800   1.477  14.851
  576SOL    HW2 3562   3.899   1.432  14.746
  577SOL     OW 3563   6.054  10.562  11.350
  577SOL    HW1 3564   6.041  10.473  11.319
  577SOL    HW2 3565   6.004  10.617  11.289
  578SOL     OW 3566  13.811  12.984   8.676
  578SOL    HW1 3567  13.733  12.928   8.684
  578SOL    HW2 3568  13.790  13.061   8.729
  579SOL     OW 3569   4.376   8.590   4.354
  579SOL    HW1 3570   4.365   8.676   4.393
  579SOL    HW2 3571   4.427   8.540   4.418
  580SOL     OW 3572  11.992   8.685   2.063
  580SOL    HW1 3573  11.970   8.624   1.993
  580SOL    HW2 3574  11.915   8.741   2.072
  581SOL     OW 3575   8.589  11.895   2.856
  581SOL    HW1 3576   8.580  11.917   2.763
  581SOL    HW2 3577   8.568  11.976   2.902
  582SOL     OW 3578   2.975   1.149  11.631
  582SOL    HW1 3579   3.012   1.099  11.559
  582SOL    HW2 3580   2.915   1.088  11.675
  583SOL     OW 3581  11.011   5.970  14.589
  583SOL    HW1 3582  11.072   5.914  14.541
  583SOL    HW2 3583  10.927   5.926  14.580
  584SOL     OW 3584   5.381  10.246   1.381
  584SOL    HW1 3585   5.339  10.332   1.383
  584SOL    HW2 3586   5.421  10.240   1.295
  585SOL     OW 3587   3.795   2.767   7.528
  585SOL    HW1 3588   3.719   2.726   7.487
  585SOL    HW2 3589   3.843   2.695   7.568
  586SOL     OW 3590   9.477   2.117   5.685
  586SOL    HW1 3591   9.431   2.201   5.682
  586SOL    HW2 3592   9.467   2.081   5.597
  587SOL     OW 3593   8.893  11.488   2.843
  587SOL    HW1 3594   8.887  11.578   2.813
  587SOL    HW2 3595   8.987  11.472   2.852
  588SOL     OW 3596   4.924   0.234  10.488
  588SOL    HW1 3597   4.837   0.244  10.527
  588SOL    HW2 3598   4.973   0.311  10.517
  589SOL     OW 3599   1.484   0.512   3.215
  589SOL    HW1 3600   1.429   0.436   3.197
  589SOL    HW2 3601   1.466   0.534   3.306
  590SOL     OW 3602   9.511   9.196   5.847
  590SOL    HW1 3603   9.424   9.190   5.886
  590SOL    HW2 3604   9.569   9.221   5.919
  591SOL     OW 3605   1.717   0.933   5.646
  591SOL    HW1 3606   1.698   1.024   5.669
  591SOL    HW2 3607   1.649   0.883   5.692
  592SOL     OW 3608   3.094  14.748  12.833
  592SOL    HW1 3609   3.042  14.781  12.759
  592SOL    HW2 3610   3.035  14.752  12.908
  593SOL     OW 3611   5.884   8.693  12.478
  593SOL    HW1 3612   5.954   8.630  12.461
  593SOL    HW2 3613   5.853   8.717  12.390
  594SOL     OW 3614   4.168   2.613  13.252
  594SOL    HW1 3615   4.126   2.540  13.207
  594SOL    HW2 3616   4.107   2.639  13.320
  595SOL     OW 3617  10.736   9.447   0.587
  595SOL    HW1 3618  10.736   9.430   0.681
  595SOL    HW2 3619  10.687   9.375   0.549
  596SOL     OW 3620   2.466  10.995   3.774
  596SOL    HW1 3621   2.546  11.017   3.822
  596SOL    HW2 3622   2.452  11.070   3.715
  597SOL     OW 3623   2.319  14.637   5.004
  597SOL    HW1 3624   2.409  14.652   4.976
  597SOL    HW2 3625   2.266  14.686   4.941
  598SOL     OW 3626   5.446  14.252  13.339
  598SOL    HW1 3627   5.366  14.209  13.369
  598SOL    HW2 3628   5.483  14.192  13.275
  599SOL     OW 3629  10.708  12.513  13.369
  599SOL    HW1 3630  10.624  12.483  13.402
  599SOL    HW2 3631  10.725  12.457  13.293
  600SOL     OW 3632   3.905   6.549   7.302
  600SOL    HW1 3633   3.868   6.476   7.252
  600SOL    HW2 3634   3.938   6.509   7.382
  601SOL     OW 3635   2.938  11.008   6.323
  601SOL    HW1 3636   2.983  11.052   6.394
  601SOL    HW2 3637   3.008  10.975   6.266
  602SOL     OW 3638   5.375   5.924  12.407
  602SOL    HW1 3639   5.368   5.840  12.454
  602SOL    HW2 3640   5.459   5.960  12.435
  603SOL     OW 3641  14.215  14.181   3.316
  603SOL    HW1 3642  14.198  14.145   3.404
  603SOL    HW2 3643  14.135  14.228   3.293
  604SOL     OW 3644   0.277  11.486  11.050
  604SOL    HW1 3645   0.373  11.481  11.043
  604SOL    HW2 3646   0.249  11.520  10.964
  605SOL     OW 3647  12.543   7.494   6.613
  605SOL    HW1 3648  12.495   7.484   6.695
  605SOL    HW2 3649  12.495   7.561   6.565
  606SOL     OW 3650  12.244   6.145   7.745
  606SOL    HW1 3651  12.300   6.212   7.784
  606SOL    HW2 3652  12.273   6.063   7.785
  607SOL     OW 3653  11.642   2.900   1.584
  607SOL    HW1 3654  11.645   2.865   1.495
  607SOL    HW2 3655  11.715   2.963   1.587
  608SOL     OW 3656   2.255   6.733  14.591
  608SOL    HW1 3657   2.284   6.736  14.500
  608SOL    HW2 3658   2.241   6.640  14.609
  609SOL     OW 3659   1.078  11.560   6.656
  609SOL    HW1 3660   1.098  11.633   6.714
  609SOL    HW2 3661   1.129  11.487   6.691
  610SOL     OW 3662  14.134   3.294   5.468
  610SOL    HW1 3663  14.100   3.276   5.380
  610SOL    HW2 3664  14.201   3.227   5.481
  611SOL     OW 3665   2.824   4.193  14.398
  611SOL    HW1 3666   2.852   4.277  14.361
  611SOL    HW2 3667   2.903   4.156  14.436
  612SOL     OW 3668  11.490   9.540   2.948
  612SOL    HW1 3669  11.472   9.633   2.934
  612SOL    HW2 3670  11.407   9.503   2.979
  613SOL     OW 3671   8.138  11.207   5.289
  613SOL    HW1 3672   8.085  11.146   5.238
  613SOL    HW2 3673   8.082  11.285   5.299
  614SOL     OW 3674  11.376   6.392   7.219
  614SOL    HW1 3675  11.445   6.334   7.188
  614SOL    HW2 3676  11.419   6.445   7.287
  615SOL     OW 3677   9.847  12.882   7.486
  615SOL    HW1 3678   9.831  12.899   7.579
  615SOL    HW2 3679   9.940  12.899   7.474
  616SOL     OW 3680  13.086   5.849   6.385
  616SOL    HW1 3681  13.181   5.840   6.377
  616SOL    HW2 3682  13.051   5.769   6.345
  617SOL     OW 3683  12.928  11.614   5.730
  617SOL    HW1 3684  12.934  11.612   5.826
  617SOL    HW2 3685  12.848  11.565   5.711
  618SOL     OW 3686  11.434  13.036  10.002
  618SOL    HW1 3687  11.522  13.012   9.973
  618SOL    HW2 3688  11.381  12.959   9.982
  619SOL     OW 3689  13.698  13.451   4.882
  619SOL    HW1 3690  13.695  13.544   4.907
  619SOL    HW2 3691  13.616  13.436   4.835
  620SOL     OW 3692  14.834  12.160   5.649
  620SOL    HW1 3693  14.743  12.144   5.625
  620SOL    HW2 3694   0.002  12.166   5.566
  621SOL     OW 3695  13.911   9.670   6.556
  621SOL    HW1 3696  13.848   9.683   6.484
  621SOL    HW2 3697  13.857   9.670   6.635
  622SOL     OW 3698   4.009  12.120  12.447
  622SOL    HW1 3699   3.926  12.112  12.494
  622SOL    HW2 3700   3.995  12.073  12.365
  623SOL     OW 3701   0.065   9.643   8.236
  623SOL    HW1 3702   0.138   9.704   8.228
  623SOL    HW2 3703   0.082   9.596   8.317
  624SOL     OW 3704   5.166  10.756   4.857
  624SOL    HW1 3705   5.236  10.803   4.902
  624SOL    HW2 3706   5.089  10.812   4.867
  625SOL     OW 3707   0.811   7.033   3.599
  625SOL    HW1 3708   0.787   6.971   3.667
  625SOL    HW2 3709   0.741   7.026   3.534
  626SOL     OW 3710   6.717  12.254   0.446
  626SOL    HW1 3711   6.739  12.267   0.538
  626SOL    HW2 3712   6.752  12.331   0.402
  627SOL     OW 3713  13.263   4.721  11.424
  627SOL    HW1 3714  13.217   4.802  11.448
  627SOL    HW2 3715  13.194   4.665  11.388
  628SOL     OW 3716   4.392   1.383   7.108
  628SOL    HW1 3717   4.338   1.305   7.112
  628SOL    HW2 3718   4.422   1.388   7.018
  629SOL     OW 3719   6.323  10.793   3.890
  629SOL    HW1 3720   6.408  10.833   3.870
  629SOL    HW2 3721   6.278  10.859   3.943
  630SOL     OW 3722   1.148   5.793  11.226
  630SOL    HW1 3723   1.183   5.833  11.306
  630SOL    HW2 3724   1.060   5.764  11.250
  631SOL     OW 3725   0.793   7.808   0.678
  631SOL    HW1 3726   0.750   7.869   0.618
  631SOL    HW2 3727   0.773   7.721   0.641
  632SOL     OW 3728   0.848  13.923   4.089
  632SOL    HW1 3729   0.849  13.877   4.173
  632SOL    HW2 3730   0.937  13.955   4.077
  633SOL     OW 3731   2.235  12.176   3.449
  633SOL    HW1 3732   2.176  12.232   3.399
  633SOL    HW2 3733   2.272  12.116   3.385
  634SOL     OW 3734   2.894   6.631   6.562
  634SOL    HW1 3735   2.986   6.649   6.543
  634SOL    HW2 3736   2.881   6.664   6.651
  635SOL     OW 3737   0.637   9.010  11.569
  635SOL    HW1 3738   0.600   8.989  11.483
  635SOL    HW2 3739   0.650   8.924  11.610
  636SOL     OW 3740   4.045   0.951   5.910
  636SOL    HW1 3741   4.002   0.944   5.824
  636SOL    HW2 3742   4.085   0.866   5.924
  637SOL     OW 3743   9.208  13.539   0.389
  637SOL    HW1 3744   9.144  13.472   0.364
  637SOL    HW2 3745   9.182  13.566   0.477
  638SOL     OW 3746   4.936   8.134  13.455
  638SOL    HW1 3747   4.932   8.163  13.364
  638SOL    HW2 3748   4.903   8.209  13.505
  639SOL     OW 3749   3.552   4.667   1.594
  639SOL    HW1 3750   3.496   4.608   1.543
  639SOL    HW2 3751   3.517   4.662   1.683
  640SOL     OW 3752   5.328   6.064   7.545
  640SOL    HW1 3753   5.374   6.038   7.625
  640SOL    HW2 3754   5.313   5.981   7.499
  641SOL     OW 3755   6.389  12.992   6.040
  641SOL    HW1 3756   6.298  12.992   6.011
  641SOL    HW2 3757   6.416  13.084   6.032
  642SOL     OW 3758   3.873   2.118   3.279
  642SOL    HW1 3759   3.825   2.200   3.276
  642SOL    HW2 3760   3.823   2.059   3.223
  643SOL     OW 3761  10.402  10.866   2.322
  643SOL    HW1 3762  10.452  10.886   2.402
  643SOL    HW2 3763  10.311  10.876   2.348
  644SOL     OW 3764   7.190   5.756   9.054
  644SOL    HW1 3765   7.213   5.702   9.130
  644SOL    HW2 3766   7.123   5.706   9.008
  645SOL     OW 3767   2.027  14.411   3.061
  645SOL    HW1 3768   2.093  14.431   3.127
  645SOL    HW2 3769   2.068  14.345   3.006
  646SOL     OW 3770   1.273   5.456   0.704
  646SOL    HW1 3771   1.182   5.484   0.698
  646SOL    HW2 3772   1.303   5.453   0.613
  647SOL     OW 3773   4.127   9.409   9.511
  647SOL    HW1 3774   4.065   9.352   9.557
  647SOL    HW2 3775   4.182   9.349   9.461
  648SOL     OW 3776   7.510   9.765   9.339
  648SOL    HW1 3777   7.474   9.811   9.262
  648SOL    HW2 3778   7.489   9.822   9.413
  649SOL     OW 3779   8.555  10.903   3.614
  649SOL    HW1 3780   8.556  10.840   3.686
  649SOL    HW2 3781   8.640  10.892   3.571
  650SOL     OW 3782   6.943   1.923  11.211
  650SOL    HW1 3783   6.921   1.897  11.121
  650SOL    HW2 3784   7.019   1.868  11.233
  651SOL     OW 3785   8.922   3.269  10.062
  651SOL    HW1 3786   8.858   3.320  10.013
  651SOL    HW2 3787   8.924   3.184  10.018
  652SOL     OW 3788  14.144  11.341  10.920
  652SOL    HW1 3789  14.159  11.284  10.996
  652SOL    HW2 3790  14.220  11.326  10.864
  653SOL     OW 3791  12.179   6.556   2.803
  653SOL    HW1 3792  12.140   6.576   2.888
  653SOL    HW2 3793  12.271   6.583   2.813
  654SOL     OW 3794  14.077   7.548  12.865
  654SOL    HW1 3795  14.147   7.534  12.928
  654SOL    HW2 3796  14.054   7.641  12.876
  655SOL     OW 3797   9.153   5.454   1.410
  655SOL    HW1 3798   9.188   5.493   1.330
  655SOL    HW2 3799   9.221   5.470   1.476
  656SOL     OW 3800   3.568   4.829  11.152
  656SOL    HW1 3801   3.485   4.846  11.197
  656SOL    HW2 3802   3.543   4.805  11.063
  657SOL     OW 3803   7.890   5.987   8.996
  657SOL    HW1 3804   7.945   5.944   9.062
  657SOL    HW2 3805   7.944   6.059   8.963
  658SOL     OW 3806  11.516   5.253   5.144
  658SOL    HW1 3807  11.496   5.166   5.108
  658SOL    HW2 3808  11.595   5.239   5.197
  659SOL     OW 3809  13.261  11.391  13.896
  659SOL    HW1 3810  13.302  11.471  13.864
  659SOL    HW2 3811  13.237  11.412  13.987
  660SOL     OW 3812  13.402   3.580   9.400
  660SOL    HW1 3813  13.351   3.657   9.422
  660SOL    HW2 3814  13.370   3.553   9.314
  661SOL     OW 3815   4.508   4.043  11.501
  661SOL    HW1 3816   4.513   4.066  11.408
  661SOL    HW2 3817   4.564   4.107  11.545
  662SOL     OW 3818   5.313   5.475   9.174
  662SOL    HW1 3819   5.374   5.548   9.160
  662SOL    HW2 3820   5.350   5.427   9.248
  663SOL     OW 3821  13.061   7.335  13.530
  663SOL    HW1 3822  13.003   7.405  13.501
  663SOL    HW2 3823  13.088   7.361  13.618
  664SOL     OW 3824  11.698   1.560   3.342
  664SOL    HW1 3825  11.646   1.599   3.412
  664SOL    HW2 3826  11.746   1.489   3.385
  665SOL     OW 3827   2.217   6.510   1.740
  665SOL    HW1 3828   2.198   6.490   1.648
  665SOL    HW2 3829   2.309   6.487   1.751
  666SOL     OW 3830   1.444   2.588  10.833
  666SOL    HW1 3831   1.535   2.617  10.822
  666SOL    HW2 3832   1.402   2.659  10.880
  667SOL     OW 3833   3.367  14.796   2.106
  667SOL    HW1 3834   3.453  14.782   2.068
  667SOL    HW2 3835   3.322  14.853   2.043
  668SOL     OW 3836   5.947  12.881  12.442
  668SOL    HW1 3837   5.943  12.899  12.536
  668SOL    HW2 3838   5.894  12.802  12.430
  669SOL     OW 3839   1.686  11.008  12.243
  669SOL    HW1 3840   1.719  11.018  12.332
  669SOL    HW2 3841   1.763  11.022  12.187
  670SOL     OW 3842   9.883   2.853   4.404
  670SOL    HW1 3843   9.888   2.826   4.312
  670SOL    HW2 3844   9.974   2.864   4.431
  671SOL     OW 3845   7.387   6.685   3.312
  671SOL    HW1 3846   7.358   6.669   3.223
  671SOL    HW2 3847   7.307   6.709   3.360
  672SOL     OW 3848   7.242   9.040   7.843
  672SOL    HW1 3849   7.254   8.953   7.882
  672SOL    HW2 3850   7.188   9.025   7.766
  673SOL     OW 3851   1.450  13.290  11.733
  673SOL    HW1 3852   1.361  13.314  11.758
  673SOL    HW2 3853   1.498  13.287  11.816
  674SOL     OW 3854  11.131   2.989   4.938
  674SOL    HW1 3855  11.069   2.951   5.000
  674SOL    HW2 3856  11.182   3.051   4.991
  675SOL     OW 3857   7.538   5.381  10.591
  675SOL    HW1 3858   7.548   5.293  10.554
  675SOL    HW2 3859   7.451   5.379  10.633
  676SOL     OW 3860   8.922  10.358  12.766
  676SOL    HW1 3861   8.920  10.400  12.680
  676SOL    HW2 3862   8.989  10.406  12.815
  677SOL     OW 3863   0.325  13.545   0.286
  677SOL    HW1 3864   0.321  13.639   0.303
  677SOL    HW2 3865   0.283  13.534   0.201
  678SOL     OW 3866   2.507   2.463   4.414
  678SOL    HW1 3867   2.455   2.416   4.350
  678SOL    HW2 3868   2.496   2.555   4.391
  679SOL     OW 3869   9.288  10.988   6.696
  679SOL    HW1 3870   9.260  10.997   6.605
  679SOL    HW2 3871   9.207  10.977   6.745
  680SOL     OW 3872  10.082   9.789   1.358
  680SOL    HW1 3873  10.085   9.809   1.451
  680SOL    HW2 3874  10.068   9.874   1.316
  681SOL     OW 3875   5.381  12.755   7.023
  681SOL    HW1 3876   5.342  12.697   6.957
  681SOL    HW2 3877   5.458  12.707   7.054
  682SOL     OW 3878   8.781   5.863   2.233
  682SOL    HW1 3879   8.731   5.930   2.186
  682SOL    HW2 3880   8.776   5.888   2.325
  683SOL     OW 3881   8.684  11.508   6.104
  683SOL    HW1 3882   8.653  11.556   6.027
  683SOL    HW2 3883   8.607  11.462   6.136
  684SOL     OW 3884  14.722  13.402   7.501
  684SOL    HW1 3885  14.757  13.433   7.584
  684SOL    HW2 3886  14.752  13.465   7.437
  685SOL     OW 3887   9.809   7.402  14.357
  685SOL    HW1 3888   9.776   7.410  14.447
  685SOL    HW2 3889   9.880   7.465  14.352
  686SOL     OW 3890   8.681  11.304  11.727
  686SOL    HW1 3891   8.688  11.317  11.632
  686SOL    HW2 3892   8.738  11.371  11.765
  687SOL     OW 3893   9.585   6.154   1.241
  687SOL    HW1 3894   9.559   6.207   1.165
  687SOL    HW2 3895   9.674   6.183   1.259
  688SOL     OW 3896   8.667   3.391  14.627
  688SOL    HW1 3897   8.585   3.437  14.613
  688SOL    HW2 3898   8.696   3.417  14.714
  689SOL     OW 3899   0.709  14.642   9.037
  689SOL    HW1 3900   0.661  14.721   9.060
  689SOL    HW2 3901   0.759  14.620   9.116
  690SOL     OW 3902   7.238   7.138   3.719
  690SOL    HW1 3903   7.250   7.218   3.769
  690SOL    HW2 3904   7.326   7.117   3.686
  691SOL     OW 3905  12.790   2.426   9.436
  691SOL    HW1 3906  12.820   2.345   9.478
  691SOL    HW2 3907  12.740   2.471   9.503
  692SOL     OW 3908  11.029   6.411   8.245
  692SOL    HW1 3909  11.013   6.437   8.336
  692SOL    HW2 3910  11.010   6.489   8.194
  693SOL     OW 3911   0.503   0.548   4.510
  693SOL    HW1 3912   0.473   0.614   4.447
  693SOL    HW2 3913   0.541   0.598   4.581
  694SOL     OW 3914   1.628   1.059   5.910
  694SOL    HW1 3915   1.670   1.139   5.942
  694SOL    HW2 3916   1.535   1.070   5.931
  695SOL     OW 3917   1.628   3.744   9.380
  695SOL    HW1 3918   1.600   3.753   9.472
  695SOL    HW2 3919   1.623   3.650   9.363
  696SOL     OW 3920   6.297  12.731  10.585
  696SOL    HW1 3921   6.224  12.721  10.645
  696SOL    HW2 3922   6.293  12.655  10.528
  697SOL     OW 3923   1.886  12.789  14.759
  697SOL    HW1 3924   1.818  12.756  14.701
  697SOL    HW2 3925   1.852  12.872  14.792
  698SOL     OW 3926   8.569   0.340  11.743
  698SOL    HW1 3927   8.557   0.420  11.691
  698SOL    HW2 3928   8.581   0.271  11.678
  699SOL     OW 3929   2.299   9.078  10.746
  699SOL    HW1 3930   2.233   9.021  10.785
  699SOL    HW2 3931   2.265   9.167  10.758
  700SOL     OW 3932   8.069  11.409  10.278
  700SOL    HW1 3933   8.011  11.370  10.344
  700SOL    HW2 3934   8.051  11.360  10.198
  701SOL     OW 3935   6.879  14.117   3.444
  701SOL    HW1 3936   6.853  14.034   3.483
  701SOL    HW2 3937   6.961  14.140   3.488
  702SOL     OW 3938  12.332   7.998  12.181
  702SOL    HW1 3939  12.308   7.992  12.088
  702SOL    HW2 3940  12.378   7.917  12.199
  703SOL     OW 3941   7.351  12.700   2.043
  703SOL    HW1 3942   7.349  12.606   2.065
  703SOL    HW2 3943   7.390  12.741   2.120
  704SOL     OW 3944  12.316   0.749  11.282
  704SOL    HW1 3945  12.344   0.671  11.235
  704SOL    HW2 3946  12.221   0.742  11.288
  705SOL     OW 3947   9.132   9.737   6.021
  705SOL    HW1 3948   9.043   9.700   6.022
  705SOL    HW2 3949   9.186   9.668   6.059
  706SOL     OW 3950  14.511   5.675   6.295
  706SOL    HW1 3951  14.446   5.718   6.240
  706SOL    HW2 3952  14.460   5.632   6.364
  707SOL     OW 3953   8.926  12.075   0.750
  707SOL    HW1 3954   8.972  11.994   0.725
  707SOL    HW2 3955   8.991  12.124   0.801
  708SOL     OW 3956   9.773   7.387  10.316
  708SOL    HW1 3957   9.750   7.313  10.372
  708SOL    HW2 3958   9.797   7.347  10.232
  709SOL     OW 3959  13.554   1.027   3.791
  709SOL    HW1 3960  13.549   1.121   3.772
  709SOL    HW2 3961  13.472   0.991   3.756
  710SOL     OW 3962   7.102  14.654   0.140
  710SOL    HW1 3963   7.059  14.569   0.154
  710SOL    HW2 3964   7.195  14.632   0.132
  711SOL     OW 3965   6.073   8.519   8.873
  711SOL    HW1 3966   6.126   8.593   8.843
  711SOL    HW2 3967   6.131   8.469   8.929
  712SOL     OW 3968  14.008  13.766  10.636
  712SOL    HW1 3969  13.955  13.765  10.716
  712SOL    HW2 3970  14.098  13.774  10.667
  713SOL     OW 3971   8.001   5.436   3.594
  713SOL    HW1 3972   8.084   5.478   3.574
  713SOL    HW2 3973   7.985   5.457   3.687
  714SOL     OW 3974   1.866  14.868  10.835
  714SOL    HW1 3975   1.934   0.055  10.851
  714SOL    HW2 3976   1.857  14.821  10.918
  715SOL     OW 3977   3.136   6.240  14.748
  715SOL    HW1 3978   3.072   6.285  14.802
  715SOL    HW2 3979   3.114   6.147  14.756
  716SOL     OW 3980   2.559  12.868   3.413
  716SOL    HW1 3981   2.551  12.910   3.498
  716SOL    HW2 3982   2.598  12.783   3.432
  717SOL     OW 3983  10.565  14.833  11.817
  717SOL    HW1 3984  10.648  14.795  11.847
  717SOL    HW2 3985  10.502  14.808  11.883
  718SOL     OW 3986  12.998   5.443   7.207
  718SOL    HW1 3987  12.964   5.412   7.123
  718SOL    HW2 3988  13.002   5.539   7.197
  719SOL     OW 3989   9.720  12.018   0.926
  719SOL    HW1 3990   9.805  12.009   0.969
  719SOL    HW2 3991   9.687  12.103   0.955
  720SOL     OW 3992   6.722   8.142   2.271
  720SOL    HW1 3993   6.781   8.173   2.340
  720SOL    HW2 3994   6.763   8.063   2.238
  721SOL     OW 3995  14.305   8.499   1.068
  721SOL    HW1 3996  14.258   8.566   1.019
  721SOL    HW2 3997  14.268   8.503   1.156
  722SOL     OW 3998   3.995   3.182   8.576
  722SOL    HW1 3999   4.077   3.142   8.546
  722SOL    HW2 4000   3.927   3.124   8.542
  723SOL     OW 4001   5.707  10.593   8.005
  723SOL    HW1 4002   5.732  10.534   8.077
  723SOL    HW2 4003   5.726  10.681   8.039
  724SOL     OW 4004   5.806   2.186   8.052
  724SOL    HW1 4005   5.889   2.167   8.094
  724SOL    HW2 4006   5.829   2.239   7.975
  725SOL     OW 4007   3.392   2.139  12.136
  725SOL    HW1 4008   3.382   2.082  12.212
  725SOL    HW2 4009   3.479   2.118  12.101
  726SOL     OW 4010   5.156   1.181   5.297
  726SOL    HW1 4011   5.061   1.175   5.309
  726SOL    HW2 4012   5.192   1.124   5.365
  727SOL     OW 4013  14.411   5.410  13.049
  727SOL    HW1 4014  14.397   5.336  13.109
  727SOL    HW2 4015  14.427   5.369  12.964
  728SOL     OW 4016   1.562   2.936   7.443
  728SOL    HW1 4017   1.623   2.888   7.388
  728SOL    HW2 4018   1.588   3.027   7.435
  729SOL     OW 4019   5.421  10.249   8.914
  729SOL    HW1 4020   5.500  10.300   8.901
  729SOL    HW2 4021   5.364  10.273   8.840
  730SOL     OW 4022  12.832   0.805  14.670
  730SOL    HW1 4023  12.756   0.809  14.727
  730SOL    HW2 4024  12.896   0.752  14.718
  731SOL     OW 4025   5.091   7.882   8.775
  731SOL    HW1 4026   5.033   7.958   8.788
  731SOL    HW2 4027   5.070   7.823   8.847
  732SOL     OW 4028  12.764   1.954   8.436
  732SOL    HW1 4029  12.841   1.983   8.387
  732SOL    HW2 4030  12.748   1.865   8.406
  733SOL     OW 4031  12.015   1.332   1.836
  733SOL    HW1 4032  12.086   1.370   1.785
  733SOL    HW2 4033  12.055   1.259   1.884
  734SOL     OW 4034   5.237   3.290   9.945
  734SOL    HW1 4035   5.309   3.227   9.952
  734SOL    HW2 4036   5.279   3.371   9.915
  735SOL     OW 4037  13.052   6.141  13.790
  735SOL    HW1 4038  13.040   6.230  13.822
  735SOL    HW2 4039  13.066   6.151  13.695
  736SOL     OW 4040   1.478   8.207   6.391
  736SOL    HW1 4041   1.528   8.187   6.470
  736SOL    HW2 4042   1.532   8.270   6.344
  737SOL     OW 4043   4.097   4.900   0.592
  737SOL    HW1 4044   4.105   4.930   0.683
  737SOL    HW2 4045   4.187   4.892   0.562
  738SOL     OW 4046   0.773   6.695  12.989
  738SOL    HW1 4047   0.760   6.775  12.939
  738SOL    HW2 4048   0.820   6.637  12.930
  739SOL     OW 4049   6.441   7.479   6.128
  739SOL    HW1 4050   6.488   7.479   6.211
  739SOL    HW2 4051   6.506   7.506   6.063
  740SOL     OW 4052   8.834  12.019  11.287
  740SOL    HW1 4053   8.923  12.033  11.254
  740SOL    HW2 4054   8.778  12.066  11.226
  741SOL     OW 4055   4.829   2.585   5.166
  741SOL    HW1 4056   4.771   2.610   5.238
  741SOL    HW2 4057   4.771   2.569   5.092
  742SOL     OW 4058   3.968   5.172  11.509
  742SOL    HW1 4059   3.972   5.254  11.558
  742SOL    HW2 4060   4.050   5.127  11.530
  743SOL     OW 4061   6.902  11.739  13.168
  743SOL    HW1 4062   6.978  11.712  13.220
  743SOL    HW2 4063   6.909  11.689  13.087
  744SOL     OW 4064  12.085   0.454   8.535
  744SOL    HW1 4065  12.021   0.384   8.519
  744SOL    HW2 4066  12.032   0.534   8.540
  745SOL     OW 4067   8.262  11.292   7.807
  745SOL    HW1 4068   8.232  11.270   7.895
  745SOL    HW2 4069   8.210  11.235   7.749
  746SOL     OW 4070   1.526   9.110   2.642
  746SOL    HW1 4071   1.585   9.058   2.697
  746SOL    HW2 4072   1.455   9.050   2.620
  747SOL     OW 4073   1.787   5.936  10.463
  747SOL    HW1 4074   1.729   5.863  10.440
  747SOL    HW2 4075   1.813   5.973  10.379
  748SOL     OW 4076   0.034   9.347   3.093
  748SOL    HW1 4077  14.859   9.356   3.014
  748SOL    HW2 4078  14.864   9.286   3.148
  749SOL     OW 4079  11.503   2.587   4.858
  749SOL    HW1 4080  11.514   2.617   4.767
  749SOL    HW2 4081  11.508   2.667   4.910
  750SOL     OW 4082  11.260   6.909  12.498
  750SOL    HW1 4083  11.303   6.825  12.484
  750SOL    HW2 4084  11.330   6.974  12.492
  751SOL     OW 4085  12.213   6.461   5.704
  751SOL    HW1 4086  12.125   6.499   5.716
  751SOL    HW2 4087  12.214   6.385   5.762
  752SOL     OW 4088   0.715  10.359  10.230
  752SOL    HW1 4089   0.698  10.359  10.136
  752SOL    HW2 4090   0.779  10.430  10.243
  753SOL     OW 4091  10.768  14.181   5.211
  753SOL    HW1 4092  10.762  14.190   5.116
  753SOL    HW2 4093  10.692  14.129   5.236
  754SOL     OW 4094  13.168   2.516  10.214
  754SOL    HW1 4095  13.138   2.425  10.223
  754SOL    HW2 4096  13.089   2.567  10.199
  755SOL     OW 4097   6.868   4.852   4.546
  755SOL    HW1 4098   6.866   4.884   4.636
  755SOL    HW2 4099   6.868   4.756   4.554
  756SOL     OW 4100   5.788   0.023   6.440
  756SOL    HW1 4101   5.873   0.066   6.452
  756SOL    HW2 4102   5.730   0.093   6.408
  757SOL     OW 4103  10.356   9.179   8.561
  757SOL    HW1 4104  10.387   9.258   8.517
  757SOL    HW2 4105  10.277   9.154   8.512
  758SOL     OW 4106  14.319   3.457   3.374
  758SOL    HW1 4107  14.405   3.478   3.337
  758SOL    HW2 4108  14.263   3.531   3.350
  759SOL     OW 4109   7.874  11.976   7.327
  759SOL    HW1 4110   7.803  11.975   7.263
  759SOL    HW2 4111   7.880  11.885   7.358
  760SOL     OW 4112   2.535   2.453   0.459
  760SOL    HW1 4113   2.514   2.402   0.537
  760SOL    HW2 4114   2.451   2.493   0.434
  761SOL     OW 4115  12.168   2.253   8.214
  761SOL    HW1 4116  12.253   2.211   8.226
  761SOL    HW2 4117  12.171   2.329   8.272
  762SOL     OW 4118  13.865   5.911  14.156
  762SOL    HW1 4119  13.816   5.829  14.163
  762SOL    HW2 4120  13.872   5.942  14.246
  763SOL     OW 4121  12.212   6.899  13.634
  763SOL    HW1 4122  12.138   6.857  13.590
  763SOL    HW2 4123  12.178   6.926  13.719
  764SOL     OW 4124   5.314   3.195   5.991
  764SOL    HW1 4125   5.382   3.127   5.984
  764SOL    HW2 4126   5.286   3.191   6.083
  765SOL     OW 4127   2.180   8.578   4.485
  765SOL    HW1 4128   2.247   8.540   4.428
  765SOL    HW2 4129   2.133   8.504   4.522
  766SOL     OW 4130  12.660  14.403   8.451
  766SOL    HW1 4131  12.571  14.438   8.452
  766SOL    HW2 4132  12.709  14.459   8.511
  767SOL     OW 4133   1.965   1.206   6.215
  767SOL    HW1 4134   2.037   1.220   6.154
  767SOL    HW2 4135   1.969   1.280   6.275
  768SOL     OW 4136  13.416  10.139  10.211
  768SOL    HW1 4137  13.422  10.234  10.204
  768SOL    HW2 4138  13.501  10.112  10.246
  769SOL     OW 4139   9.821  10.216   2.782
  769SOL    HW1 4140   9.911  10.203   2.753
  769SOL    HW2 4141   9.768  10.169   2.718
  770SOL     OW 4142   4.597   1.848  13.839
  770SOL    HW1 4143   4.565   1.879  13.754
  770SOL    HW2 4144   4.605   1.928  13.892
  771SOL     OW 4145   3.951   3.781   4.845
  771SOL    HW1 4146   4.032   3.758   4.798
  771SOL    HW2 4147   3.943   3.714   4.912
  772SOL     OW 4148  14.266  12.936   7.328
  772SOL    HW1 4149  14.193  12.882   7.297
  772SOL    HW2 4150  14.332  12.928   7.259
  773SOL     OW 4151   3.198   2.841   1.790
  773SOL    HW1 4152   3.187   2.756   1.834
  773SOL    HW2 4153   3.219   2.902   1.860
  774SOL     OW 4154  10.839   1.691   6.708
  774SOL    HW1 4155  10.809   1.769   6.662
  774SOL    HW2 4156  10.760   1.642   6.730
  775SOL     OW 4157   5.545   1.937  12.552
  775SOL    HW1 4158   5.634   1.973  12.554
  775SOL    HW2 4159   5.518   1.946  12.461
  776SOL     OW 4160   2.383  13.765   6.394
  776SOL    HW1 4161   2.462  13.781   6.445
  776SOL    HW2 4162   2.351  13.681   6.425
  777SOL     OW 4163  13.182  10.454  12.844
  777SOL    HW1 4164  13.135  10.458  12.761
  777SOL    HW2 4165  13.212  10.544  12.860
  778SOL     OW 4166   5.470   1.112  14.458
  778SOL    HW1 4167   5.484   1.111  14.363
  778SOL    HW2 4168   5.397   1.051  14.472
  779SOL     OW 4169   3.117   3.515   4.337
  779SOL    HW1 4170   3.114   3.422   4.313
  779SOL    HW2 4171   3.099   3.516   4.431
  780SOL     OW 4172   2.831   2.944   6.393
  780SOL    HW1 4173   2.821   2.970   6.484
  780SOL    HW2 4174   2.896   2.874   6.394
  781SOL     OW 4175   8.561   7.149  10.215
  781SOL    HW1 4176   8.579   7.213  10.283
  781SOL    HW2 4177   8.491   7.188  10.163
  782SOL     OW 4178  13.069  11.744   4.552
  782SOL    HW1 4179  13.097  11.665   4.507
  782SOL    HW2 4180  12.974  11.736   4.559
  783SOL     OW 4181   1.326   9.500   3.798
  783SOL    HW1 4182   1.344   9.565   3.730
  783SOL    HW2 4183   1.335   9.549   3.880
  784SOL     OW 4184   9.376   8.670  12.620
  784SOL    HW1 4185   9.291   8.653  12.661
  784SOL    HW2 4186   9.411   8.746  12.667
  785SOL     OW 4187  11.992   7.786   3.086
  785SOL    HW1 4188  11.929   7.815   3.152
  785SOL    HW2 4189  11.945   7.794   3.003
  786SOL     OW 4190   6.131   6.442  13.499
  786SOL    HW1 4191   6.067   6.481  13.559
  786SOL    HW2 4192   6.190   6.514  13.477
  787SOL     OW 4193   7.454   9.848   4.611
  787SOL    HW1 4194   7.513   9.844   4.687
  787SOL    HW2 4195   7.401   9.768   4.618
  788SOL     OW 4196  12.009  14.134  14.521
  788SOL    HW1 4197  12.015  14.066  14.588
  788SOL    HW2 4198  11.915  14.149  14.512
  789SOL     OW 4199   9.716   8.798   9.833
  789SOL    HW1 4200   9.643   8.736   9.835
  789SOL    HW2 4201   9.752   8.795   9.921
  790SOL     OW 4202   1.378  12.622  10.132
  790SOL    HW1 4203   1.428  12.552  10.090
  790SOL    HW2 4204   1.397  12.699  10.080
  791SOL     OW 4205   5.484   6.165   0.120
  791SOL    HW1 4206   5.542   6.241   0.119
  791SOL    HW2 4207   5.404   6.194   0.075
  792SOL     OW 4208   9.016   5.738  14.404
  792SOL    HW1 4209   9.089   5.698  14.452
  792SOL    HW2 4210   9.009   5.827  14.439
  793SOL     OW 4211   7.954   1.712   2.486
  793SOL    HW1 4212   7.922   1.640   2.540
  793SOL    HW2 4213   7.936   1.685   2.396
  794SOL     OW 4214   5.151   2.218   8.102
  794SOL    HW1 4215   5.162   2.241   8.194
  794SOL    HW2 4216   5.190   2.132   8.093
  795SOL     OW 4217   4.440   9.993   0.900
  795SOL    HW1 4218   4.476  10.073   0.861
  795SOL    HW2 4219   4.516   9.947   0.935
  796SOL     OW 4220   8.936   9.682  12.213
  796SOL    HW1 4221   8.934   9.718  12.301
  796SOL    HW2 4222   9.019   9.712  12.176
  797SOL     OW 4223   7.824  10.608   6.418
  797SOL    HW1 4224   7.830  10.564   6.503
  797SOL    HW2 4225   7.848  10.540   6.355
  798SOL     OW 4226  13.888   1.005  13.744
  798SOL    HW1 4227  13.895   0.944  13.671
  798SOL    HW2 4228  13.978   1.036  13.758
  799SOL     OW 4229   1.533   1.746   0.443
  799SOL    HW1 4230   1.591   1.821   0.455
  799SOL    HW2 4231   1.531   1.703   0.529
  800SOL     OW 4232   5.476   9.417  13.748
  800SOL    HW1 4233   5.418   9.470  13.693
  800SOL    HW2 4234   5.446   9.328  13.737
  801SOL     OW 4235   7.774   5.051   0.968
  801SOL    HW1 4236   7.789   5.128   0.913
  801SOL    HW2 4237   7.700   5.075   1.023
  802SOL     OW 4238   0.723   9.954  12.836
  802SOL    HW1 4239   0.784   9.891  12.796
  802SOL    HW2 4240   0.729   9.938  12.930
  803SOL     OW 4241   9.042  11.608   8.862
  803SOL    HW1 4242   9.044  11.513   8.874
  803SOL    HW2 4243   9.087  11.642   8.939
  804SOL     OW 4244   5.440   6.915   2.890
  804SOL    HW1 4245   5.398   6.998   2.869
  804SOL    HW2 4246   5.408   6.893   2.977
  805SOL     OW 4247  11.543  12.068  13.961
  805SOL    HW1 4248  11.557  12.047  13.869
  805SOL    HW2 4249  11.487  12.146  13.958
  806SOL     OW 4250   3.670   4.606   9.259
  806SOL    HW1 4251   3.700   4.540   9.197
  806SOL    HW2 4252   3.600   4.564   9.308
  807SOL     OW 4253   3.343   9.341   4.033
  807SOL    HW1 4254   3.402   9.416   4.038
  807SOL    HW2 4255   3.354   9.296   4.117
  808SOL     OW 4256   2.792   2.466   4.046
  808SOL    HW1 4257   2.786   2.470   4.142
  808SOL    HW2 4258   2.857   2.533   4.024
  809SOL     OW 4259  11.993   1.144   2.784
  809SOL    HW1 4260  11.937   1.193   2.724
  809SOL    HW2 4261  12.078   1.188   2.777
  810SOL     OW 4262  12.184   4.720   6.231
  810SOL    HW1 4263  12.150   4.659   6.297
  810SOL    HW2 4264  12.279   4.718   6.242
  811SOL     OW 4265   7.044  10.949  14.062
  811SOL    HW1 4266   7.134  10.955  14.030
  811SOL    HW2 4267   7.035  11.023  14.121
  812SOL     OW 4268  14.640   6.248   6.534
  812SOL    HW1 4269  14.607   6.207   6.614
  812SOL    HW2 4270  14.568   6.238   6.471
  813SOL     OW 4271   2.259   0.892   5.521
  813SOL    HW1 4272   2.246   0.799   5.498
  813SOL    HW2 4273   2.178   0.917   5.566
  814SOL     OW 4274   1.403   2.703   7.451
  814SOL    HW1 4275   1.449   2.633   7.498
  814SOL    HW2 4276   1.439   2.784   7.489
  815SOL     OW 4277  10.106  12.983  12.322
  815SOL    HW1 4278  10.058  13.050  12.274
  815SOL    HW2 4279  10.037  12.933  12.368
  816SOL     OW 4280  13.281   8.548   5.839
  816SOL    HW1 4281  13.334   8.559   5.760
  816SOL    HW2 4282  13.339   8.575   5.911
  817SOL     OW 4283   9.941  14.749  10.325
  817SOL    HW1 4284   9.860  14.697  10.331
  817SOL    HW2 4285  10.004  14.689  10.285
  818SOL     OW 4286  12.921  11.438   6.504
  818SOL    HW1 4287  12.846  11.495   6.521
  818SOL    HW2 4288  12.902  11.358   6.553
  819SOL     OW 4289   9.891   8.070   7.946
  819SOL    HW1 4290   9.979   8.103   7.962
  819SOL    HW2 4291   9.903   7.976   7.932
  820SOL     OW 4292  11.877   6.005  12.182
  820SOL    HW1 4293  11.970   6.028  12.188
  820SOL    HW2 4294  11.852   6.030  12.093
  821SOL     OW 4295   3.589   5.296  11.630
  821SOL    HW1 4296   3.579   5.231  11.560
  821SOL    HW2 4297   3.542   5.258  11.705
  822SOL     OW 4298   5.851   9.172  14.217
  822SOL    HW1 4299   5.913   9.154  14.146
  822SOL    HW2 4300   5.765   9.171  14.175
  823SOL     OW 4301   5.314   3.068   5.187
  823SOL    HW1 4302   5.310   3.146   5.131
  823SOL    HW2 4303   5.407   3.047   5.191
  824SOL     OW 4304   1.096  10.382  11.618
  824SOL    HW1 4305   1.159  10.399  11.688
  824SOL    HW2 4306   1.149  10.378  11.538
  825SOL     OW 4307  14.774   7.809   1.771
  825SOL    HW1 4308  14.785   7.746   1.699
  825SOL    HW2 4309  14.810   7.764   1.847
  826SOL     OW 4310  12.416  12.491  10.286
  826SOL    HW1 4311  12.480  12.491  10.356
  826SOL    HW2 4312  12.435  12.571  10.236
  827SOL     OW 4313  12.212   4.242   0.626
  827SOL    HW1 4314  12.169   4.324   0.600
  827SOL    HW2 4315  12.238   4.202   0.543
  828SOL     OW 4316  13.450   8.567   2.618
  828SOL    HW1 4317  13.355   8.566   2.617
  828SOL    HW2 4318  13.473   8.585   2.709
  829SOL     OW 4319   9.247  10.185   3.033
  829SOL    HW1 4320   9.233  10.264   2.981
  829SOL    HW2 4321   9.224  10.211   3.122
  830SOL     OW 4322   6.185  11.208   4.323
  830SOL    HW1 4323   6.277  11.207   4.347
  830SOL    HW2 4324   6.185  11.219   4.228
  831SOL     OW 4325  11.503   1.017   5.334
  831SOL    HW1 4326  11.579   1.023   5.275
  831SOL    HW2 4327  11.429   1.000   5.277
  832SOL     OW 4328  10.612   4.034  13.806
  832SOL    HW1 4329  10.601   4.117  13.759
  832SOL    HW2 4330  10.565   3.971  13.752
  833SOL     OW 4331   3.200   8.472   4.900
  833SOL    HW1 4332   3.181   8.564   4.880
  833SOL    HW2 4333   3.138   8.423   4.847
  834SOL     OW 4334  10.229   0.787   5.724
  834SOL    HW1 4335  10.283   0.820   5.796
  834SOL    HW2 4336  10.140   0.812   5.748
  835SOL     OW 4337   2.030   2.630   8.749
  835SOL    HW1 4338   2.119   2.598   8.759
  835SOL    HW2 4339   2.040   2.722   8.723
  836SOL     OW 4340   4.344   3.175   4.350
  836SOL    HW1 4341   4.392   3.228   4.286
  836SOL    HW2 4342   4.351   3.224   4.432
  837SOL     OW 4343  10.459   7.104   8.493
  837SOL    HW1 4344  10.401   7.179   8.507
  837SOL    HW2 4345  10.510   7.099   8.574
  838SOL     OW 4346   7.541   2.018   4.511
  838SOL    HW1 4347   7.468   1.962   4.485
  838SOL    HW2 4348   7.606   2.005   4.442
  839SOL     OW 4349   9.174   9.529   4.695
  839SOL    HW1 4350   9.162   9.443   4.653
  839SOL    HW2 4351   9.140   9.517   4.784
  840SOL     OW 4352  11.258  11.933  12.043
  840SOL    HW1 4353  11.288  11.850  12.005
  840SOL    HW2 4354  11.260  11.918  12.137
  841SOL     OW 4355   1.003   9.022   9.885
  841SOL    HW1 4356   1.057   9.015   9.806
  841SOL    HW2 4357   0.992   8.932   9.915
  842SOL     OW 4358   4.968   6.361   7.073
  842SOL    HW1 4359   4.992   6.286   7.127
  842SOL    HW2 4360   4.891   6.332   7.025
  843SOL     OW 4361   6.487   4.988   6.874
  843SOL    HW1 4362   6.502   5.001   6.968
  843SOL    HW2 4363   6.457   5.074   6.843
  844SOL     OW 4364   0.084  12.517   8.024
  844SOL    HW1 4365   0.107  12.450   7.960
  844SOL    HW2 4366  14.867  12.519   8.023
  845SOL     OW 4367   6.924  13.274   7.406
  845SOL    HW1 4368   6.836  13.237   7.412
  845SOL    HW2 4369   6.979  13.200   7.378
  846SOL     OW 4370   9.666   4.075  13.875
  846SOL    HW1 4371   9.673   4.070  13.970
  846SOL    HW2 4372   9.680   3.986  13.844
  847SOL     OW 4373  13.604  13.647  11.329
  847SOL    HW1 4374  13.654  13.670  11.251
  847SOL    HW2 4375  13.517  13.685  11.313
  848SOL     OW 4376   1.200   9.341   9.020
  848SOL    HW1 4377   1.214   9.393   8.941
  848SOL    HW2 4378   1.223   9.400   9.092
  849SOL     OW 4379  13.030   1.371  12.032
  849SOL    HW1 4380  13.116   1.334  12.052
  849SOL    HW2 4381  12.969   1.299  12.049
  850SOL     OW 4382   9.431   3.044   9.192
  850SOL    HW1 4383   9.381   2.981   9.140
  850SOL    HW2 4384   9.433   3.124   9.139
  851SOL     OW 4385  11.517  14.735  11.636
  851SOL    HW1 4386  11.550  14.825  11.632
  851SOL    HW2 4387  11.424  14.744  11.613
  852SOL     OW 4388   6.127   2.105  14.078
  852SOL    HW1 4389   6.099   2.048  14.149
  852SOL    HW2 4390   6.114   2.054  13.998
  853SOL     OW 4391   7.545  13.675  12.379
  853SOL    HW1 4392   7.564  13.582  12.388
  853SOL    HW2 4393   7.573  13.697  12.291
  854SOL     OW 4394   9.351  11.068   4.184
  854SOL    HW1 4395   9.350  11.085   4.090
  854SOL    HW2 4396   9.442  11.081   4.209
  855SOL     OW 4397   5.554   7.170  12.922
  855SOL    HW1 4398   5.583   7.156  13.012
  855SOL    HW2 4399   5.590   7.096  12.874
  856SOL     OW 4400   5.435   7.160   0.382
  856SOL    HW1 4401   5.349   7.142   0.420
  856SOL    HW2 4402   5.438   7.106   0.302
  857SOL     OW 4403  13.821   2.161   5.718
  857SOL    HW1 4404  13.787   2.174   5.630
  857SOL    HW2 4405  13.839   2.249   5.750
  858SOL     OW 4406   1.986  11.644   5.424
  858SOL    HW1 4407   1.920  11.688   5.477
  858SOL    HW2 4408   1.959  11.661   5.333
  859SOL     OW 4409   0.580  11.908   0.440
  859SOL    HW1 4410   0.565  11.926   0.532
  859SOL    HW2 4411   0.675  11.917   0.429
  860SOL     OW 4412  11.179   0.704   9.758
  860SOL    HW1 4413  11.222   0.688   9.674
  860SOL    HW2 4414  11.219   0.785   9.791
  861SOL     OW 4415  14.278   4.433   3.680
  861SOL    HW1 4416  14.223   4.358   3.658
  861SOL    HW2 4417  14.366   4.397   3.692
  862SOL     OW 4418   7.529  12.161   8.955
  862SOL    HW1 4419   7.468  12.097   8.990
  862SOL    HW2 4420   7.479  12.243   8.952
  863SOL     OW 4421   0.480   0.348   3.715
  863SOL    HW1 4422   0.416   0.290   3.673
  863SOL    HW2 4423   0.557   0.293   3.727
  864SOL     OW 4424   8.921   3.512  13.431
  864SOL    HW1 4425   8.904   3.424  13.399
  864SOL    HW2 4426   8.858   3.524  13.502
  865SOL     OW 4427  14.709  14.227  12.083
  865SOL    HW1 4428  14.790  14.275  12.066
  865SOL    HW2 4429  14.690  14.243  12.175
  866SOL     OW 4430   0.299   9.757   9.312
  866SOL    HW1 4431   0.364   9.688   9.325
  866SOL    HW2 4432   0.216   9.711   9.305
  867SOL     OW 4433  11.533  14.009   7.755
  867SOL    HW1 4434  11.548  14.098   7.724
  867SOL    HW2 4435  11.445  13.987   7.724
  868SOL     OW 4436   1.281  12.332   3.200
  868SOL    HW1 4437   1.205  12.340   3.258
  868SOL    HW2 4438   1.264  12.252   3.149
  869SOL     OW 4439  14.275  13.493  11.814
  869SOL    HW1 4440  14.303  13.469  11.903
  869SOL    HW2 4441  14.263  13.409  11.770
  870SOL     OW 4442  10.417   0.713  10.033
  870SOL    HW1 4443  10.418   0.797  10.078
  870SOL    HW2 4444  10.508   0.683  10.035
  871SOL     OW 4445   8.974   3.142   5.322
  871SOL    HW1 4446   9.060   3.166   5.355
  871SOL    HW2 4447   8.982   3.051   5.296
  872SOL     OW 4448  11.595   2.227  10.783
  872SOL    HW1 4449  11.616   2.318  10.760
  872SOL    HW2 4450  11.680   2.186  10.798
  873SOL     OW 4451   7.539   7.051   2.352
  873SOL    HW1 4452   7.515   6.988   2.284
  873SOL    HW2 4453   7.634   7.061   2.344
  874SOL     OW 4454  14.361  10.683  12.045
  874SOL    HW1 4455  14.436  10.725  12.088
  874SOL    HW2 4456  14.301  10.756  12.026
  875SOL     OW 4457   0.547   8.622   9.321
  875SOL    HW1 4458   0.504   8.688   9.266
  875SOL    HW2 4459   0.562   8.548   9.262
  876SOL     OW 4460  13.827   9.552   4.808
  876SOL    HW1 4461  13.831   9.527   4.716
  876SOL    HW2 4462  13.794   9.474   4.853
  877SOL     OW 4463   1.878  13.968   1.178
  877SOL    HW1 4464   1.867  13.948   1.271
  877SOL    HW2 4465   1.801  14.021   1.156
  878SOL     OW 4466   0.487   4.144   6.222
  878SOL    HW1 4467   0.487   4.193   6.305
  878SOL    HW2 4468   0.547   4.192   6.165
  879SOL     OW 4469   0.456   2.049   7.537
  879SOL    HW1 4470   0.460   1.974   7.478
  879SOL    HW2 4471   0.363   2.073   7.539
  880SOL     OW 4472  13.426   4.793   8.533
  880SOL    HW1 4473  13.491   4.864   8.530
  880SOL    HW2 4474  13.457   4.729   8.470
  881SOL     OW 4475   8.373   3.130   1.871
  881SOL    HW1 4476   8.369   3.040   1.902
  881SOL    HW2 4477   8.367   3.183   1.951
  882SOL     OW 4478   8.805  10.221  10.663
  882SOL    HW1 4479   8.871  10.163  10.625
  882SOL    HW2 4480   8.743  10.163  10.706
  883SOL     OW 4481   7.165   8.639  11.299
  883SOL    HW1 4482   7.136   8.623  11.389
  883SOL    HW2 4483   7.172   8.552  11.260
  884SOL     OW 4484   7.259   2.761   9.636
  884SOL    HW1 4485   7.192   2.767   9.568
  884SOL    HW2 4486   7.320   2.695   9.603
  885SOL     OW 4487   5.034   3.944  13.512
  885SOL    HW1 4488   5.042   4.040  13.512
  885SOL    HW2 4489   5.107   3.914  13.566
  886SOL     OW 4490  12.274  10.323  14.333
  886SOL    HW1 4491  12.236  10.235  14.328
  886SOL    HW2 4492  12.355  10.312  14.383
  887SOL     OW 4493   0.780   1.427   3.183
  887SOL    HW1 4494   0.734   1.463   3.108
  887SOL    HW2 4495   0.848   1.492   3.203
  888SOL     OW 4496  13.792   4.158  12.658
  888SOL    HW1 4497  13.752   4.192  12.738
  888SOL    HW2 4498  13.797   4.234  12.600
  889SOL     OW 4499   3.724   2.926   5.254
  889SOL    HW1 4500   3.685   2.839   5.264
  889SOL    HW2 4501   3.657   2.978   5.209
  890SOL     OW 4502   2.399   3.208  14.143
  890SOL    HW1 4503   2.401   3.144  14.072
  890SOL    HW2 4504   2.320   3.186  14.193
  891SOL     OW 4505   4.536   3.940   7.272
  891SOL    HW1 4506   4.508   3.954   7.363
  891SOL    HW2 4507   4.627   3.913   7.279
  892SOL     OW 4508   6.395   2.387   4.345
  892SOL    HW1 4509   6.400   2.303   4.300
  892SOL    HW2 4510   6.396   2.452   4.274
  893SOL     OW 4511  10.458   2.535   1.287
  893SOL    HW1 4512  10.447   2.610   1.346
  893SOL    HW2 4513  10.515   2.567   1.218
  894SOL     OW 4514   0.066   7.155   9.380
  894SOL    HW1 4515   0.104   7.073   9.412
  894SOL    HW2 4516  14.853   7.150   9.406
  895SOL     OW 4517   6.733   1.504   9.255
  895SOL    HW1 4518   6.684   1.568   9.307
  895SOL    HW2 4519   6.798   1.555   9.208
  896SOL     OW 4520   4.907   9.823   5.596
  896SOL    HW1 4521   4.840   9.767   5.557
  896SOL    HW2 4522   4.990   9.780   5.576
  897SOL     OW 4523   9.756   1.188  12.006
  897SOL    HW1 4524   9.725   1.219  11.921
  897SOL    HW2 4525   9.700   1.233  12.070
  898SOL     OW 4526   0.352   4.115  10.874
  898SOL    HW1 4527   0.367   4.208  10.859
  898SOL    HW2 4528   0.271   4.096  10.826
  899SOL     OW 4529  10.948   9.714   0.313
  899SOL    HW1 4530  10.943   9.658   0.235
  899SOL    HW2 4531  10.988   9.795   0.282
  900SOL     OW 4532   2.326   5.212   0.010
  900SOL    HW1 4533   2.338   5.302   0.040
  900SOL    HW2 4534   2.238   5.189   0.039
  901SOL     OW 4535   7.034  11.423  11.209
  901SOL    HW1 4536   6.951  11.442  11.167
  901SOL    HW2 4537   7.059  11.337  11.175
  902SOL     OW 4538   1.656   9.370   2.682
  902SOL    HW1 4539   1.590   9.439   2.675
  902SOL    HW2 4540   1.606   9.288   2.681
  903SOL     OW 4541   3.685   6.815   9.782
  903SOL    HW1 4542   3.708   6.723   9.793
  903SOL    HW2 4543   3.610   6.815   9.723
  904SOL     OW 4544   2.352   1.245  14.738
  904SOL    HW1 4545   2.362   1.220  14.830
  904SOL    HW2 4546   2.432   1.293  14.718
  905SOL     OW 4547  12.721   5.904   7.697
  905SOL    HW1 4548  12.719   5.910   7.793
  905SOL    HW2 4549  12.672   5.823   7.678
  906SOL     OW 4550  13.139   1.103   6.374
  906SOL    HW1 4551  13.123   1.098   6.468
  906SOL    HW2 4552  13.114   1.193   6.351
  907SOL     OW 4553   7.239   7.229   4.625
  907SOL    HW1 4554   7.254   7.314   4.584
  907SOL    HW2 4555   7.237   7.247   4.719
  908SOL     OW 4556   4.069   4.711  10.697
  908SOL    HW1 4557   4.071   4.704  10.792
  908SOL    HW2 4558   3.977   4.703  10.674
  909SOL     OW 4559   9.528  13.272   6.933
  909SOL    HW1 4560   9.612  13.279   6.978
  909SOL    HW2 4561   9.480  13.205   6.982
  910SOL     OW 4562  12.976   1.314  14.659
  910SOL    HW1 4563  12.950   1.223  14.673
  910SOL    HW2 4564  12.933   1.339  14.577
  911SOL     OW 4565   8.900  12.129   7.067
  911SOL    HW1 4566   8.948  12.182   7.003
  911SOL    HW2 4567   8.809  12.136   7.040
  912SOL     OW 4568   1.840   1.221  10.199
  912SOL    HW1 4569   1.933   1.208  10.219
  912SOL    HW2 4570   1.803   1.257  10.280
  913SOL     OW 4571   1.300  11.321   5.203
  913SOL    HW1 4572   1.239  11.282   5.266
  913SOL    HW2 4573   1.251  11.394   5.166
  914SOL     OW 4574   4.014  12.374  12.650
  914SOL    HW1 4575   4.099  12.349  12.615
  914SOL    HW2 4576   4.033  12.443  12.714
  915SOL     OW 4577   5.213  12.385  11.064
  915SOL    HW1 4578   5.275  12.457  11.062
  915SOL    HW2 4579   5.205  12.363  11.157
  916SOL     OW 4580   1.428   1.917  12.487
  916SOL    HW1 4581   1.340   1.921  12.525
  916SOL    HW2 4582   1.480   1.868  12.551
  917SOL     OW 4583   6.125   4.470  13.007
  917SOL    HW1 4584   6.078   4.390  13.031
  917SOL    HW2 4585   6.215   4.454  13.034
  918SOL     OW 4586  14.358   9.222   4.520
  918SOL    HW1 4587  14.395   9.136   4.541
  918SOL    HW2 4588  14.426   9.285   4.545
  919SOL     OW 4589   9.395   0.840  13.109
  919SOL    HW1 4590   9.483   0.867  13.133
  919SOL    HW2 4591   9.370   0.899  13.038
  920SOL     OW 4592   6.201  13.597   0.138
  920SOL    HW1 4593   6.145  13.628   0.209
  920SOL    HW2 4594   6.222  13.675   0.087
  921SOL     OW 4595   1.394   4.466  14.000
  921SOL    HW1 4596   1.397   4.458  14.095
  921SOL    HW2 4597   1.388   4.375  13.969
  922SOL     OW 4598   1.902   2.822  13.219
  922SOL    HW1 4599   1.818   2.784  13.243
  922SOL    HW2 4600   1.915   2.894  13.281
  923SOL     OW 4601   5.630   0.995  13.192
  923SOL    HW1 4602   5.713   0.970  13.234
  923SOL    HW2 4603   5.581   0.914  13.185
  924SOL     OW 4604  13.561   2.556  11.384
  924SOL    HW1 4605  13.478   2.572  11.428
  924SOL    HW2 4606  13.575   2.634  11.330
  925SOL     OW 4607   2.274   3.422   7.609
  925SOL    HW1 4608   2.347   3.471   7.647
  925SOL    HW2 4609   2.200   3.481   7.616
  926SOL     OW 4610   5.048   5.901  11.934
  926SOL    HW1 4611   5.126   5.956  11.929
  926SOL    HW2 4612   5.015   5.897  11.844
  927SOL     OW 4613  12.237   3.348   5.815
  927SOL    HW1 4614  12.193   3.322   5.734
  927SOL    HW2 4615  12.166   3.360   5.878
  928SOL     OW 4616   2.711   2.048   5.618
  928SOL    HW1 4617   2.737   2.139   5.627
  928SOL    HW2 4618   2.666   2.044   5.533
  929SOL     OW 4619  11.530  13.285   8.807
  929SOL    HW1 4620  11.534  13.212   8.868
  929SOL    HW2 4621  11.599  13.267   8.743
  930SOL     OW 4622   3.619   0.270   2.665
  930SOL    HW1 4623   3.540   0.320   2.690
  930SOL    HW2 4624   3.682   0.291   2.734
  931SOL     OW 4625   8.958  14.684   5.999
  931SOL    HW1 4626   8.950  14.701   6.093
  931SOL    HW2 4627   8.889  14.621   5.980
  932SOL     OW 4628   7.858   0.031   9.515
  932SOL    HW1 4629   7.864  14.814   9.510
  932SOL    HW2 4630   7.825   0.049   9.603
  933SOL     OW 4631   2.533   3.141  10.586
  933SOL    HW1 4632   2.506   3.065  10.534
  933SOL    HW2 4633   2.527   3.215  10.526
  934SOL     OW 4634   8.816   9.398   1.227
  934SOL    HW1 4635   8.727   9.416   1.256
  934SOL    HW2 4636   8.872   9.446   1.288
  935SOL     OW 4637  11.346  12.800   9.736
  935SOL    HW1 4638  11.292  12.732   9.695
  935SOL    HW2 4639  11.396  12.838   9.664
  936SOL     OW 4640   4.969   1.059   2.968
  936SOL    HW1 4641   4.900   1.071   3.033
  936SOL    HW2 4642   4.969   0.965   2.949
  937SOL     OW 4643   3.742  11.902  10.178
  937SOL    HW1 4644   3.789  11.836  10.127
  937SOL    HW2 4645   3.782  11.898  10.265
  938SOL     OW 4646   1.219   3.585   2.788
  938SOL    HW1 4647   1.252   3.495   2.785
  938SOL    HW2 4648   1.278   3.630   2.849
  939SOL     OW 4649   4.963   8.961   5.211
  939SOL    HW1 4650   4.951   8.942   5.304
  939SOL    HW2 4651   4.978   9.055   5.208
  940SOL     OW 4652  12.961   8.584  13.578
  940SOL    HW1 4653  12.947   8.500  13.535
  940SOL    HW2 4654  12.966   8.563  13.671
  941SOL     OW 4655  14.736   0.919  13.801
  941SOL    HW1 4656  14.823   0.926  13.841
  941SOL    HW2 4657  14.749   0.948  13.710
  942SOL     OW 4658  12.499   8.116   0.073
  942SOL    HW1 4659  12.533   8.075  14.872
  942SOL    HW2 4660  12.536   8.204   0.074
  943SOL     OW 4661  12.439   7.328  11.658
  943SOL    HW1 4662  12.416   7.296  11.571
  943SOL    HW2 4663  12.414   7.420  11.658
  944SOL     OW 4664   2.137   9.282   6.159
  944SOL    HW1 4665   2.220   9.295   6.114
  944SOL    HW2 4666   2.161   9.263   6.250
  945SOL     OW 4667  11.235  11.289   7.494
  945SOL    HW1 4668  11.323  11.252   7.483
  945SOL    HW2 4669  11.185  11.218   7.534
  946SOL     OW 4670   5.642   3.936   1.764
  946SOL    HW1 4671   5.716   3.991   1.737
  946SOL    HW2 4672   5.653   3.928   1.859
  947SOL     OW 4673   8.041  11.157  11.644
  947SOL    HW1 4674   8.068  11.193  11.729
  947SOL    HW2 4675   7.988  11.081  11.666
  948SOL     OW 4676   3.969   9.688  11.896
  948SOL    HW1 4677   3.917   9.655  11.822
  948SOL    HW2 4678   3.906   9.738  11.948
  949SOL     OW 4679   4.491   4.275   2.935
  949SOL    HW1 4680   4.583   4.250   2.924
  949SOL    HW2 4681   4.457   4.282   2.846
  950SOL     OW 4682   7.326   9.960  13.907
  950SOL    HW1 4683   7.307   9.888  13.967
  950SOL    HW2 4684   7.293  10.038  13.952
  951SOL     OW 4685  12.499   3.547  13.715
  951SOL    HW1 4686  12.450   3.474  13.754
  951SOL    HW2 4687  12.514   3.608  13.787
  952SOL     OW 4688  13.609  10.672   0.887
  952SOL    HW1 4689  13.672  10.600   0.893
  952SOL    HW2 4690  13.589  10.678   0.793
  953SOL     OW 4691   1.565   5.720   6.232
  953SOL    HW1 4692   1.542   5.746   6.322
  953SOL    HW2 4693   1.545   5.798   6.180
  954SOL     OW 4694  11.736   9.850  10.651
  954SOL    HW1 4695  11.769   9.925  10.603
  954SOL    HW2 4696  11.747   9.776  10.591
  955SOL     OW 4697   0.270   5.811  11.944
  955SOL    HW1 4698   0.344   5.831  11.887
  955SOL    HW2 4699   0.237   5.727  11.913
  956SOL     OW 4700  10.770   7.159   1.241
  956SOL    HW1 4701  10.774   7.207   1.159
  956SOL    HW2 4702  10.825   7.082   1.227
  957SOL     OW 4703   7.679  12.266   7.187
  957SOL    HW1 4704   7.702  12.210   7.114
  957SOL    HW2 4705   7.733  12.344   7.176
  958SOL     OW 4706   9.144  10.456   4.985
  958SOL    HW1 4707   9.059  10.460   5.028
  958SOL    HW2 4708   9.146  10.532   4.927
  959SOL     OW 4709  14.015   0.726  13.472
  959SOL    HW1 4710  13.924   0.716  13.501
  959SOL    HW2 4711  14.064   0.664  13.527
  960SOL     OW 4712  12.218  10.654   9.473
  960SOL    HW1 4713  12.156  10.611   9.414
  960SOL    HW2 4714  12.188  10.745   9.475
  961SOL     OW 4715   3.437   3.274  10.238
  961SOL    HW1 4716   3.421   3.340  10.304
  961SOL    HW2 4717   3.433   3.191  10.285
  962SOL     OW 4718  11.893   6.242   9.275
  962SOL    HW1 4719  11.818   6.185   9.294
  962SOL    HW2 4720  11.862   6.299   9.205
  963SOL     OW 4721   1.550   7.523   1.582
  963SOL    HW1 4722   1.627   7.555   1.628
  963SOL    HW2 4723   1.585   7.482   1.503
  964SOL     OW 4724   1.080  10.834   7.293
  964SOL    HW1 4725   1.003  10.778   7.283
  964SOL    HW2 4726   1.047  10.912   7.337
  965SOL     OW 4727   6.343  13.019  14.558
  965SOL    HW1 4728   6.420  13.060  14.598
  965SOL    HW2 4729   6.378  12.944  14.511
  966SOL     OW 4730   4.002   7.376   8.437
  966SOL    HW1 4731   4.022   7.470   8.431
  966SOL    HW2 4732   3.941   7.360   8.365
  967SOL     OW 4733   2.542  13.796  13.408
  967SOL    HW1 4734   2.630  13.829  13.392
  967SOL    HW2 4735   2.525  13.736  13.336
  968SOL     OW 4736   0.717   0.856  13.301
  968SOL    HW1 4737   0.727   0.782  13.243
  968SOL    HW2 4738   0.803   0.869  13.340
  969SOL     OW 4739   9.201   4.781  12.235
  969SOL    HW1 4740   9.106   4.779  12.244
  969SOL    HW2 4741   9.226   4.866  12.272
  970SOL     OW 4742   3.194  14.657   3.931
  970SOL    HW1 4743   3.144  14.738   3.938
  970SOL    HW2 4744   3.276  14.683   3.889
  971SOL     OW 4745  11.206  11.767  13.482
  971SOL    HW1 4746  11.238  11.754  13.393
  971SOL    HW2 4747  11.149  11.692  13.498
  972SOL     OW 4748   3.350  14.529  14.282
  972SOL    HW1 4749   3.301  14.449  14.265
  972SOL    HW2 4750   3.285  14.590  14.319
  973SOL     OW 4751   1.619  14.443   1.785
  973SOL    HW1 4752   1.545  14.496   1.814
  973SOL    HW2 4753   1.637  14.386   1.860
  974SOL     OW 4754  14.185  11.843  12.652
  974SOL    HW1 4755  14.103  11.861  12.698
  974SOL    HW2 4756  14.168  11.763  12.602
  975SOL     OW 4757   3.058   9.288   4.318
  975SOL    HW1 4758   3.035   9.380   4.304
  975SOL    HW2 4759   2.974   9.244   4.329
  976SOL     OW 4760   5.307   9.824   1.891
  976SOL    HW1 4761   5.290   9.904   1.941
  976SOL    HW2 4762   5.347   9.764   1.954
  977SOL     OW 4763  14.191   6.573   1.981
  977SOL    HW1 4764  14.102   6.578   1.946
  977SOL    HW2 4765  14.211   6.663   2.007
  978SOL     OW 4766   9.567   5.778  13.820
  978SOL    HW1 4767   9.606   5.702  13.863
  978SOL    HW2 4768   9.631   5.803  13.753
  979SOL     OW 4769  11.510   7.723   8.631
  979SOL    HW1 4770  11.589   7.698   8.679
  979SOL    HW2 4771  11.452   7.759   8.699
  980SOL     OW 4772   8.820   6.302   8.445
  980SOL    HW1 4773   8.883   6.243   8.404
  980SOL    HW2 4774   8.744   6.247   8.464
  981SOL     OW 4775   7.701  11.035   9.074
  981SOL    HW1 4776   7.755  11.015   8.997
  981SOL    HW2 4777   7.616  10.996   9.055
  982SOL     OW 4778   4.822   8.728   4.784
  982SOL    HW1 4779   4.777   8.800   4.827
  982SOL    HW2 4780   4.845   8.668   4.855
  983SOL     OW 4781  10.326   9.298   7.937
  983SOL    HW1 4782  10.285   9.314   8.022
  983SOL    HW2 4783  10.404   9.246   7.958
  984SOL     OW 4784   5.131   4.279  12.211
  984SOL    HW1 4785   5.177   4.215  12.264
  984SOL    HW2 4786   5.100   4.230  12.135
  985SOL     OW 4787   5.521   0.265   9.172
  985SOL    HW1 4788   5.485   0.314   9.098
  985SOL    HW2 4789   5.515   0.174   9.146
  986SOL     OW 4790  14.855   3.741   6.971
  986SOL    HW1 4791  14.817   3.756   6.885
  986SOL    HW2 4792   0.054   3.687   6.954
  987SOL     OW 4793  10.000   6.633  11.880
  987SOL    HW1 4794  10.057   6.683  11.822
  987SOL    HW2 4795   9.990   6.689  11.957
  988SOL     OW 4796   8.654  12.135   1.801
  988SOL    HW1 4797   8.604  12.123   1.882
  988SOL    HW2 4798   8.745  12.121   1.826
  989SOL     OW 4799  13.930   0.954   4.867
  989SOL    HW1 4800  13.918   0.999   4.783
  989SOL    HW2 4801  14.025   0.955   4.881
  990SOL     OW 4802   8.153   6.027   1.971
  990SOL    HW1 4803   8.235   6.039   1.923
  990SOL    HW2 4804   8.162   5.942   2.013
  991SOL     OW 4805  13.930   7.581   4.202
  991SOL    HW1 4806  14.000   7.562   4.140
  991SOL    HW2 4807  13.866   7.512   4.187
  992SOL     OW 4808   2.037  11.335  11.167
  992SOL    HW1 4809   2.108  11.270  11.165
  992SOL    HW2 4810   2.075  11.413  11.128
  993SOL     OW 4811  10.860   2.498  10.227
  993SOL    HW1 4812  10.794   2.452  10.174
  993SOL    HW2 4813  10.832   2.484  10.317
  994SOL     OW 4814  13.437  14.645  12.384
  994SOL    HW1 4815  13.527  14.617  12.405
  994SOL    HW2 4816  13.438  14.740  12.397
  995SOL     OW 4817  10.728   4.268  10.277
  995SOL    HW1 4818  10.786   4.339  10.248
  995SOL    HW2 4819  10.778   4.222  10.344
  996SOL     OW 4820  12.741   3.527   2.761
  996SOL    HW1 4821  12.827   3.491   2.740
  996SOL    HW2 4822  12.759   3.600   2.820
  997SOL     OW 4823   4.820   4.515   0.435
  997SOL    HW1 4824   4.881   4.528   0.508
  997SOL    HW2 4825   4.796   4.423   0.440
  998SOL     OW 4826   3.169   2.680  12.961
  998SOL    HW1 4827   3.079   2.695  12.990
  998SOL    HW2 4828   3.203   2.768  12.943
  999SOL     OW 4829   8.082   1.306  10.097
  999SOL    HW1 4830   8.040   1.347  10.022
  999SOL    HW2 4831   8.134   1.376  10.138
 1000SOL     OW 4832   7.170  11.806   8.641
 1000SOL    HW1 4833   7.201  11.860   8.569
 1000SOL    HW2 4834   7.178  11.862   8.719
 1001SOL     OW 4835  10.466   3.822   0.502
 1001SOL    HW1 4836  10.554   3.846   0.473
 1001SOL    HW2 4837  10.408   3.865   0.439
 1002SOL     OW 4838  10.765   5.928   5.952
 1002SOL    HW1 4839  10.701   5.990   5.988
 1002SOL    HW2 4840  10.725   5.842   5.963
 1003SOL     OW 4841  11.054   1.590   7.819
 1003SOL    HW1 4842  11.058   1.628   7.731
 1003SOL    HW2 4843  11.068   1.497   7.805
 1004SOL     OW 4844   9.618  11.490   2.738
 1004SOL    HW1 4845   9.645  11.574   2.701
 1004SOL    HW2 4846   9.546  11.462   2.682
 1005SOL     OW 4847   1.002   8.004   5.667
 1005SOL    HW1 4848   1.011   8.099   5.672
 1005SOL    HW2 4849   1.063   7.977   5.598
 1006SOL     OW 4850   2.433  14.544  10.710
 1006SOL    HW1 4851   2.361  14.602  10.734
 1006SOL    HW2 4852   2.420  14.466  10.764
 1007SOL     OW 4853   2.136   0.928  10.266
 1007SOL    HW1 4854   2.177   0.905  10.349
 1007SOL    HW2 4855   2.141   0.848  10.213
 1008SOL     OW 4856   6.579   6.846   5.895
 1008SOL    HW1 4857   6.636   6.885   5.961
 1008SOL    HW2 4858   6.553   6.919   5.839
 1009SOL     OW 4859  11.147   6.605   9.957
 1009SOL    HW1 4860  11.103   6.557  10.026
 1009SOL    HW2 4861  11.210   6.543   9.920
 1010SOL     OW 4862   4.508   0.996   7.271
 1010SOL    HW1 4863   4.575   0.939   7.309
 1010SOL    HW2 4864   4.527   0.995   7.177
 1011SOL     OW 4865   6.921   3.649   1.662
 1011SOL    HW1 4866   6.898   3.730   1.707
 1011SOL    HW2 4867   6.842   3.595   1.668
 1012SOL     OW 4868   6.317   6.751   7.318
 1012SOL    HW1 4869   6.350   6.703   7.394
 1012SOL    HW2 4870   6.309   6.684   7.250
 1013SOL     OW 4871   3.514   3.778   7.281
 1013SOL    HW1 4872   3.576   3.788   7.209
 1013SOL    HW2 4873   3.438   3.735   7.242
 1014SOL     OW 4874  11.724   3.489   8.438
 1014SOL    HW1 4875  11.732   3.552   8.366
 1014SOL    HW2 4876  11.763   3.535   8.513
 1015SOL     OW 4877  11.525   2.549   2.957
 1015SOL    HW1 4878  11.485   2.556   3.044
 1015SOL    HW2 4879  11.612   2.588   2.968
 1016SOL     OW 4880   9.937   0.384   2.383
 1016SOL    HW1 4881   9.890   0.304   2.360
 1016SOL    HW2 4882   9.914   0.447   2.314
 1017SOL     OW 4883   8.838   6.458  11.941
 1017SOL    HW1 4884   8.809   6.450  11.850
 1017SOL    HW2 4885   8.918   6.406  11.946
 1018SOL     OW 4886  12.910   8.182   1.551
 1018SOL    HW1 4887  12.819   8.154   1.538
 1018SOL    HW2 4888  12.961   8.117   1.504
 1019SOL     OW 4889   9.968   5.488   4.957
 1019SOL    HW1 4890   9.877   5.464   4.942
 1019SOL    HW2 4891   9.968   5.584   4.958
 1020SOL     OW 4892  12.032  13.739  11.306
 1020SOL    HW1 4893  11.994  13.792  11.236
 1020SOL    HW2 4894  11.971  13.666  11.318
 1021SOL     OW 4895   9.332   2.272  14.578
 1021SOL    HW1 4896   9.382   2.231  14.649
 1021SOL    HW2 4897   9.247   2.228  14.581
 1022SOL     OW 4898   1.111  10.860  14.545
 1022SOL    HW1 4899   1.103  10.899  14.458
 1022SOL    HW2 4900   1.189  10.804  14.539
 1023SOL     OW 4901   8.872   2.994   4.703
 1023SOL    HW1 4902   8.822   3.029   4.776
 1023SOL    HW2 4903   8.941   2.941   4.743
 1024SOL     OW 4904   5.241  13.742   4.360
 1024SOL    HW1 4905   5.171  13.705   4.307
 1024SOL    HW2 4906   5.309  13.765   4.296
 1025SOL     OW 4907   9.130  14.865  12.375
 1025SOL    HW1 4908   9.167  14.841  12.460
 1025SOL    HW2 4909   9.046  14.820  12.372
 1026SOL     OW 4910  12.840   0.056   5.218
 1026SOL    HW1 4911  12.918   0.112   5.215
 1026SOL    HW2 4912  12.769   0.111   5.185
 1027SOL     OW 4913   0.991  14.244   5.218
 1027SOL    HW1 4914   0.917  14.188   5.197
 1027SOL    HW2 4915   1.067  14.197   5.184
 1028SOL     OW 4916   8.103   2.566   1.193
 1028SOL    HW1 4917   8.047   2.636   1.228
 1028SOL    HW2 4918   8.096   2.575   1.098
 1029SOL     OW 4919   4.707   4.070  10.720
 1029SOL    HW1 4920   4.795   4.089  10.688
 1029SOL    HW2 4921   4.653   4.141  10.685
 1030SOL     OW 4922   3.574   4.611  12.738
 1030SOL    HW1 4923   3.529   4.527  12.730
 1030SOL    HW2 4924   3.566   4.633  12.831
 1031SOL     OW 4925   7.336   7.634  10.798
 1031SOL    HW1 4926   7.374   7.546  10.789
 1031SOL    HW2 4927   7.402   7.693  10.761
 1032SOL     OW 4928   6.504  14.690   6.103
 1032SOL    HW1 4929   6.547  14.750   6.043
 1032SOL    HW2 4930   6.506  14.605   6.057
 1033SOL     OW 4931   7.372   6.297   8.480
 1033SOL    HW1 4932   7.367   6.211   8.522
 1033SOL    HW2 4933   7.465   6.317   8.477
 1034SOL     OW 4934  11.632  12.173   8.612
 1034SOL    HW1 4935  11.548  12.142   8.579
 1034SOL    HW2 4936  11.672  12.096   8.653
 1035SOL     OW 4937   2.086   3.391  12.484
 1035SOL    HW1 4938   2.155   3.453  12.508
 1035SOL    HW2 4939   2.087   3.326  12.555
 1036SOL     OW 4940  13.428  13.282   0.689
 1036SOL    HW1 4941  13.357  13.306   0.748
 1036SOL    HW2 4942  13.386  13.233   0.619
 1037SOL     OW 4943   7.172   8.577   0.359
 1037SOL    HW1 4944   7.217   8.492   0.365
 1037SOL    HW2 4945   7.219   8.623   0.289
 1038SOL     OW 4946   8.302   5.965  12.815
 1038SOL    HW1 4947   8.300   6.009  12.900
 1038SOL    HW2 4948   8.220   5.992  12.773
 1039SOL     OW 4949   1.857   4.655   1.154
 1039SOL    HW1 4950   1.942   4.678   1.116
 1039SOL    HW2 4951   1.826   4.735   1.195
 1040SOL     OW 4952   5.418   6.777  11.625
 1040SOL    HW1 4953   5.395   6.864  11.594
 1040SOL    HW2 4954   5.338   6.742  11.663
 1041SOL     OW 4955  14.817   7.398   6.948
 1041SOL    HW1 4956   0.004   7.329   6.952
 1041SOL    HW2 4957  14.735   7.352   6.927
 1042SOL     OW 4958  14.115   1.331   2.849
 1042SOL    HW1 4959  14.157   1.277   2.916
 1042SOL    HW2 4960  14.024   1.300   2.847
 1043SOL     OW 4961   7.567  11.001   6.938
 1043SOL    HW1 4962   7.595  10.993   6.847
 1043SOL    HW2 4963   7.626  10.944   6.987
 1044SOL     OW 4964   6.595   7.641  12.909
 1044SOL    HW1 4965   6.541   7.647  12.987
 1044SOL    HW2 4966   6.681   7.674  12.936
 1045SOL     OW 4967   6.660  11.961  11.006
 1045SOL    HW1 4968   6.735  11.929  10.956
 1045SOL    HW2 4969   6.684  11.946  11.097
 1046SOL     OW 4970   7.491   8.550   1.072
 1046SOL    HW1 4971   7.406   8.542   1.117
 1046SOL    HW2 4972   7.494   8.475   1.013
 1047SOL     OW 4973  12.228   0.496  12.906
 1047SOL    HW1 4974  12.155   0.556  12.889
 1047SOL    HW2 4975  12.279   0.539  12.975
 1048SOL     OW 4976   2.870  14.635   4.856
 1048SOL    HW1 4977   2.831  14.551   4.880
 1048SOL    HW2 4978   2.964  14.622   4.869
 1049SOL     OW 4979   8.650   4.789   1.889
 1049SOL    HW1 4980   8.680   4.713   1.839
 1049SOL    HW2 4981   8.608   4.845   1.824
 1050SOL     OW 4982   8.271  12.662   4.209
 1050SOL    HW1 4983   8.189  12.712   4.213
 1050SOL    HW2 4984   8.278  12.633   4.118
 1051SOL     OW 4985   5.518   1.471   7.496
 1051SOL    HW1 4986   5.487   1.535   7.433
 1051SOL    HW2 4987   5.608   1.497   7.515
 1052SOL     OW 4988  14.628  14.138   4.913
 1052SOL    HW1 4989  14.593  14.208   4.969
 1052SOL    HW2 4990  14.684  14.183   4.850
 1053SOL     OW 4991  14.770   4.509  13.303
 1053SOL    HW1 4992  14.680   4.506  13.334
 1053SOL    HW2 4993  14.763   4.501  13.208
 1054SOL     OW 4994   4.851  11.380   1.484
 1054SOL    HW1 4995   4.884  11.352   1.399
 1054SOL    HW2 4996   4.868  11.305   1.541
 1055SOL     OW 4997   5.908   8.212   4.144
 1055SOL    HW1 4998   5.818   8.224   4.114
 1055SOL    HW2 4999   5.962   8.238   4.069
 1056SOL     OW 5000   9.701  13.758   7.660
 1056SOL    HW1 5001   9.640  13.781   7.730
 1056SOL    HW2 5002   9.675  13.815   7.587
 1057SOL     OW 5003  11.430  13.486  10.249
 1057SOL    HW1 5004  11.416  13.392  10.253
 1057SOL    HW2 5005  11.403  13.511  10.161
 1058SOL     OW 5006   3.061   4.316   2.821
 1058SOL    HW1 5007   2.985   4.327   2.763
 1058SOL    HW2 5008   3.022   4.305   2.908
 1059SOL     OW 5009  14.609   4.120  12.004
 1059SOL    HW1 5010  14.696   4.136  11.968
 1059SOL    HW2 5011  14.625   4.093  12.095
 1060SOL     OW 5012   8.398   1.058  13.783
 1060SOL    HW1 5013   8.339   1.086  13.853
 1060SOL    HW2 5014   8.485   1.082  13.815
 1061SOL     OW 5015   8.706   5.763   7.116
 1061SOL    HW1 5016   8.611   5.767   7.102
 1061SOL    HW2 5017   8.718   5.793   7.207
 1062SOL     OW 5018   3.879  13.065   9.061
 1062SOL    HW1 5019   3.889  13.159   9.045
 1062SOL    HW2 5020   3.833  13.060   9.144
 1063SOL     OW 5021  13.467  14.046   2.946
 1063SOL    HW1 5022  13.470  14.141   2.945
 1063SOL    HW2 5023  13.456  14.023   3.038
 1064SOL     OW 5024  12.648   3.159   8.806
 1064SOL    HW1 5025  12.667   3.067   8.787
 1064SOL    HW2 5026  12.558   3.160   8.838
 1065SOL     OW 5027   7.470   9.781  13.421
 1065SOL    HW1 5028   7.445   9.745  13.337
 1065SOL    HW2 5029   7.558   9.747  13.437
 1066SOL     OW 5030  12.968   5.483   4.523
 1066SOL    HW1 5031  12.905   5.482   4.594
 1066SOL    HW2 5032  12.964   5.572   4.488
 1067SOL     OW 5033  14.682   2.339  13.130
 1067SOL    HW1 5034  14.754   2.292  13.088
 1067SOL    HW2 5035  14.649   2.398  13.063
 1068SOL     OW 5036  11.617  10.523   6.993
 1068SOL    HW1 5037  11.639  10.541   7.085
 1068SOL    HW2 5038  11.697  10.489   6.955
 1069SOL     OW 5039   5.579   0.480   5.292
 1069SOL    HW1 5040   5.507   0.460   5.232
 1069SOL    HW2 5041   5.549   0.558   5.340
 1070SOL     OW 5042   7.793   3.990  13.406
 1070SOL    HW1 5043   7.729   4.047  13.362
 1070SOL    HW2 5044   7.871   4.044  13.414
 1071SOL     OW 5045   0.819  12.891   0.509
 1071SOL    HW1 5046   0.883  12.944   0.556
 1071SOL    HW2 5047   0.803  12.816   0.566
 1072SOL     OW 5048   3.994   1.372   2.129
 1072SOL    HW1 5049   4.038   1.309   2.072
 1072SOL    HW2 5050   3.908   1.334   2.146
 1073SOL     OW 5051   8.360  14.297   0.405
 1073SOL    HW1 5052   8.421  14.227   0.381
 1073SOL    HW2 5053   8.310  14.312   0.325
 1074SOL     OW 5054   8.039   8.717   5.451
 1074SOL    HW1 5055   8.044   8.658   5.525
 1074SOL    HW2 5056   8.067   8.665   5.376
 1075SOL     OW 5057   0.216   5.606   6.515
 1075SOL    HW1 5058   0.227   5.620   6.421
 1075SOL    HW2 5059   0.122   5.612   6.530
 1076SOL     OW 5060   4.975  11.866   4.318
 1076SOL    HW1 5061   4.970  11.872   4.223
 1076SOL    HW2 5062   4.890  11.897   4.349
 1077SOL     OW 5063  10.626   7.166   6.168
 1077SOL    HW1 5064  10.682   7.135   6.239
 1077SOL    HW2 5065  10.538   7.166   6.207
 1078SOL     OW 5066   2.763   4.662  11.070
 1078SOL    HW1 5067   2.732   4.576  11.040
 1078SOL    HW2 5068   2.759   4.717  10.991
 1079SOL     OW 5069   0.139   5.451   8.304
 1079SOL    HW1 5070   0.065   5.427   8.360
 1079SOL    HW2 5071   0.163   5.540   8.331
 1080SOL     OW 5072   6.527   9.044   8.146
 1080SOL    HW1 5073   6.480   9.045   8.063
 1080SOL    HW2 5074   6.578   8.962   8.144
 1081SOL     OW 5075  12.590   4.530   2.838
 1081SOL    HW1 5076  12.613   4.606   2.785
 1081SOL    HW2 5077  12.541   4.566   2.912
 1082SOL     OW 5078   0.984   2.046   8.508
 1082SOL    HW1 5079   0.905   2.001   8.539
 1082SOL    HW2 5080   1.016   1.991   8.436
 1083SOL     OW 5081   1.777   7.520  11.345
 1083SOL    HW1 5082   1.719   7.447  11.368
 1083SOL    HW2 5083   1.857   7.479  11.314
 1084SOL     OW 5084   7.839   5.936   3.042
 1084SOL    HW1 5085   7.768   5.957   2.981
 1084SOL    HW2 5086   7.917   5.976   3.003
 1085SOL     OW 5087  11.355   3.097   2.792
 1085SOL    HW1 5088  11.296   3.172   2.782
 1085SOL    HW2 5089  11.365   3.086   2.886
 1086SOL     OW 5090   1.391   0.339   1.075
 1086SOL    HW1 5091   1.393   0.271   1.008
 1086SOL    HW2 5092   1.325   0.309   1.138
 1087SOL     OW 5093   2.002   2.211   6.588
 1087SOL    HW1 5094   2.095   2.206   6.566
 1087SOL    HW2 5095   1.958   2.171   6.514
 1088SOL     OW 5096   4.476  10.574   8.184
 1088SOL    HW1 5097   4.546  10.539   8.128
 1088SOL    HW2 5098   4.468  10.666   8.157
 1089SOL     OW 5099   3.938   2.177   0.663
 1089SOL    HW1 5100   3.931   2.164   0.757
 1089SOL    HW2 5101   3.945   2.089   0.626
 1090SOL     OW 5102   4.913   3.057   3.463
 1090SOL    HW1 5103   4.944   3.142   3.433
 1090SOL    HW2 5104   4.818   3.063   3.458
 1091SOL     OW 5105   3.371   6.260   3.060
 1091SOL    HW1 5106   3.449   6.231   3.107
 1091SOL    HW2 5107   3.300   6.252   3.124
 1092SOL     OW 5108  10.086   7.587   0.571
 1092SOL    HW1 5109  10.157   7.646   0.545
 1092SOL    HW2 5110  10.028   7.583   0.495
 1093SOL     OW 5111   2.106   6.578   2.842
 1093SOL    HW1 5112   2.181   6.527   2.873
 1093SOL    HW2 5113   2.099   6.557   2.749
 1094SOL     OW 5114   6.699   8.948  14.103
 1094SOL    HW1 5115   6.639   8.876  14.084
 1094SOL    HW2 5116   6.702   8.953  14.198
 1095SOL     OW 5117   3.039  13.865   8.428
 1095SOL    HW1 5118   3.027  13.779   8.389
 1095SOL    HW2 5119   2.959  13.913   8.405
 1096SOL     OW 5120   9.643  13.524  13.723
 1096SOL    HW1 5121   9.698  13.446  13.713
 1096SOL    HW2 5122   9.563  13.491  13.763
 1097SOL     OW 5123   9.180   2.297   7.118
 1097SOL    HW1 5124   9.188   2.335   7.205
 1097SOL    HW2 5125   9.091   2.316   7.090
 1098SOL     OW 5126   8.551   2.417  12.513
 1098SOL    HW1 5127   8.533   2.337  12.562
 1098SOL    HW2 5128   8.465   2.444  12.479
 1099SOL     OW 5129  12.777   3.433  11.912
 1099SOL    HW1 5130  12.756   3.340  11.918
 1099SOL    HW2 5131  12.825   3.452  11.992
 1100SOL     OW 5132   8.593   5.835  10.224
 1100SOL    HW1 5133   8.592   5.741  10.245
 1100SOL    HW2 5134   8.617   5.877  10.307
 1101SOL     OW 5135   7.870  11.183   4.369
 1101SOL    HW1 5136   7.840  11.184   4.278
 1101SOL    HW2 5137   7.921  11.263   4.379
 1102SOL     OW 5138   8.102   2.797  10.066
 1102SOL    HW1 5139   8.173   2.852  10.033
 1102SOL    HW2 5140   8.045   2.858  10.112
 1103SOL     OW 5141   1.434   6.608   7.861
 1103SOL    HW1 5142   1.418   6.516   7.878
 1103SOL    HW2 5143   1.346   6.645   7.847
 1104SOL     OW 5144  13.824  13.224   4.824
 1104SOL    HW1 5145  13.854  13.211   4.914
 1104SOL    HW2 5146  13.769  13.303   4.828
 1105SOL     OW 5147   5.664   6.471   0.468
 1105SOL    HW1 5148   5.742   6.427   0.502
 1105SOL    HW2 5149   5.640   6.534   0.536
 1106SOL     OW 5150   9.133   3.357   8.141
 1106SOL    HW1 5151   9.106   3.434   8.090
 1106SOL    HW2 5152   9.078   3.360   8.219
 1107SOL     OW 5153   9.272   6.436  14.012
 1107SOL    HW1 5154   9.352   6.486  14.023
 1107SOL    HW2 5155   9.284   6.390  13.929
 1108SOL     OW 5156   5.332   2.793   7.865
 1108SOL    HW1 5157   5.251   2.818   7.821
 1108SOL    HW2 5158   5.350   2.866   7.925
 1109SOL     OW 5159   1.627   5.132  12.474
 1109SOL    HW1 5160   1.714   5.102  12.449
 1109SOL    HW2 5161   1.571   5.106  12.400
 1110SOL     OW 5162  13.186   8.432   9.925
 1110SOL    HW1 5163  13.195   8.348   9.970
 1110SOL    HW2 5164  13.231   8.495   9.982
 1111SOL     OW 5165   1.990  11.799  12.738
 1111SOL    HW1 5166   1.996  11.704  12.749
 1111SOL    HW2 5167   2.024  11.835  12.820
 1112SOL     OW 5168  13.938   6.468   5.032
 1112SOL    HW1 5169  13.854   6.439   5.069
 1112SOL    HW2 5170  13.974   6.527   5.097
 1113SOL     OW 5171   0.406   2.859   6.592
 1113SOL    HW1 5172   0.460   2.937   6.581
 1113SOL    HW2 5173   0.466   2.786   6.580
 1114SOL     OW 5174  10.659  13.999  14.145
 1114SOL    HW1 5175  10.737  14.050  14.124
 1114SOL    HW2 5176  10.691  13.908  14.150
 1115SOL     OW 5177  14.430  13.033  11.349
 1115SOL    HW1 5178  14.389  13.118  11.331
 1115SOL    HW2 5179  14.374  12.993  11.415
 1116SOL     OW 5180   8.289   7.462   0.557
 1116SOL    HW1 5181   8.318   7.411   0.481
 1116SOL    HW2 5182   8.289   7.400   0.629
 1117SOL     OW 5183  10.776   6.750   9.062
 1117SOL    HW1 5184  10.842   6.737   9.131
 1117SOL    HW2 5185  10.792   6.680   9.000
 1118SOL     OW 5186   5.205  11.954   1.123
 1118SOL    HW1 5187   5.269  11.963   1.052
 1118SOL    HW2 5188   5.245  12.000   1.197
 1119SOL     OW 5189   2.772   2.982  11.210
 1119SOL    HW1 5190   2.827   3.002  11.135
 1119SOL    HW2 5191   2.765   3.064  11.258
 1120SOL     OW 5192   8.844  12.115   4.009
 1120SOL    HW1 5193   8.763  12.141   4.053
 1120SOL    HW2 5194   8.911  12.120   4.077
 1121SOL     OW 5195  11.843   5.949  11.825
 1121SOL    HW1 5196  11.853   5.858  11.799
 1121SOL    HW2 5197  11.762   5.951  11.874
 1122SOL     OW 5198  10.401   3.588   7.064
 1122SOL    HW1 5199  10.430   3.597   6.973
 1122SOL    HW2 5200  10.476   3.618   7.116
 1123SOL     OW 5201  14.538   1.192  11.583
 1123SOL    HW1 5202  14.625   1.163  11.610
 1123SOL    HW2 5203  14.539   1.182  11.488
 1124SOL     OW 5204   9.018   2.499   9.600
 1124SOL    HW1 5205   9.092   2.560   9.594
 1124SOL    HW2 5206   8.977   2.503   9.513
 1125SOL     OW 5207   5.351   7.204   1.737
 1125SOL    HW1 5208   5.402   7.145   1.793
 1125SOL    HW2 5209   5.286   7.243   1.795
 1126SOL     OW 5210  13.235  11.267   3.403
 1126SOL    HW1 5211  13.238  11.355   3.441
 1126SOL    HW2 5212  13.225  11.209   3.478
 1127SOL     OW 5213   7.442   4.154   9.354
 1127SOL    HW1 5214   7.488   4.073   9.375
 1127SOL    HW2 5215   7.402   4.138   9.268
 1128SOL     OW 5216  12.881   1.678   2.971
 1128SOL    HW1 5217  12.906   1.725   2.892
 1128SOL    HW2 5218  12.960   1.676   3.024
 1129SOL     OW 5219   0.889  11.421   3.270
 1129SOL    HW1 5220   0.877  11.452   3.360
 1129SOL    HW2 5221   0.815  11.457   3.222
 1130SOL     OW 5222   7.654  11.339   9.032
 1130SOL    HW1 5223   7.610  11.261   9.067
 1130SOL    HW2 5224   7.660  11.398   9.107
 1131SOL     OW 5225   6.919   3.638   8.591
 1131SOL    HW1 5226   6.897   3.727   8.618
 1131SOL    HW2 5227   6.962   3.649   8.506
 1132SOL     OW 5228   9.357   4.131   0.017
 1132SOL    HW1 5229   9.302   4.148  14.819
 1132SOL    HW2 5230   9.400   4.048  14.876
 1133SOL     OW 5231  10.618  10.052   8.744
 1133SOL    HW1 5232  10.534  10.014   8.768
 1133SOL    HW2 5233  10.596  10.139   8.710
 1134SOL     OW 5234   0.346  13.414  10.042
 1134SOL    HW1 5235   0.424  13.388   9.992
 1134SOL    HW2 5236   0.359  13.507  10.059
 1135SOL     OW 5237  12.404   6.623   7.580
 1135SOL    HW1 5238  12.425   6.645   7.670
 1135SOL    HW2 5239  12.448   6.690   7.528
 1136SOL     OW 5240   1.548  13.664  14.253
 1136SOL    HW1 5241   1.596  13.699  14.329
 1136SOL    HW2 5242   1.535  13.740  14.196
 1137SOL     OW 5243   4.627  13.781   6.975
 1137SOL    HW1 5244   4.678  13.700   6.979
 1137SOL    HW2 5245   4.537  13.754   6.993
 1138SOL     OW 5246   7.565   4.504   2.830
 1138SOL    HW1 5247   7.521   4.586   2.806
 1138SOL    HW2 5248   7.647   4.506   2.782
 1139SOL     OW 5249   1.112   4.599   8.724
 1139SOL    HW1 5250   1.078   4.556   8.802
 1139SOL    HW2 5251   1.187   4.650   8.755
 1140SOL     OW 5252   9.482  14.783   7.616
 1140SOL    HW1 5253   9.423  14.850   7.582
 1140SOL    HW2 5254   9.548  14.832   7.665
 1141SOL     OW 5255   9.116   2.142   1.649
 1141SOL    HW1 5256   9.187   2.119   1.710
 1141SOL    HW2 5257   9.042   2.089   1.678
 1142SOL     OW 5258  12.190   7.530   9.122
 1142SOL    HW1 5259  12.267   7.482   9.090
 1142SOL    HW2 5260  12.210   7.622   9.103
 1143SOL     OW 5261   7.942   5.096   9.570
 1143SOL    HW1 5262   7.857   5.138   9.582
 1143SOL    HW2 5263   8.004   5.168   9.564
 1144SOL     OW 5264   4.351   3.220   3.701
 1144SOL    HW1 5265   4.289   3.269   3.754
 1144SOL    HW2 5266   4.363   3.138   3.749
 1145SOL     OW 5267   6.607   4.837  11.319
 1145SOL    HW1 5268   6.682   4.897  11.319
 1145SOL    HW2 5269   6.544   4.877  11.378
 1146SOL     OW 5270   8.247   1.517  10.495
 1146SOL    HW1 5271   8.329   1.484  10.532
 1146SOL    HW2 5272   8.251   1.612  10.507
 1147SOL     OW 5273   8.594   9.862   7.301
 1147SOL    HW1 5274   8.602   9.772   7.332
 1147SOL    HW2 5275   8.501   9.873   7.283
 1148SOL     OW 5276   0.081   0.328   6.985
 1148SOL    HW1 5277   0.107   0.325   6.893
 1148SOL    HW2 5278  14.866   0.347   6.982
 1149SOL     OW 5279  14.282   7.469   2.775
 1149SOL    HW1 5280  14.263   7.443   2.685
 1149SOL    HW2 5281  14.301   7.563   2.770
 1150SOL     OW 5282   0.525   4.713   8.189
 1150SOL    HW1 5283   0.615   4.744   8.176
 1150SOL    HW2 5284   0.530   4.618   8.179
 1151SOL     OW 5285  11.338   5.119  13.562
 1151SOL    HW1 5286  11.297   5.199  13.594
 1151SOL    HW2 5287  11.355   5.135  13.470
 1152SOL     OW 5288  10.602   8.582  10.878
 1152SOL    HW1 5289  10.618   8.557  10.969
 1152SOL    HW2 5290  10.533   8.648  10.883
 1153SOL     OW 5291   0.181   5.977   5.692
 1153SOL    HW1 5292   0.203   6.066   5.721
 1153SOL    HW2 5293   0.092   5.963   5.723
 1154SOL     OW 5294  13.086  14.005  13.996
 1154SOL    HW1 5295  13.020  13.962  13.942
 1154SOL    HW2 5296  13.159  14.022  13.936
 1155SOL     OW 5297  10.368   2.864  11.623
 1155SOL    HW1 5298  10.350   2.846  11.716
 1155SOL    HW2 5299  10.358   2.959  11.615
 1156SOL     OW 5300  12.710  13.394   5.846
 1156SOL    HW1 5301  12.649  13.468   5.850
 1156SOL    HW2 5302  12.741  13.383   5.936
 1157SOL     OW 5303  14.161   3.489   9.402
 1157SOL    HW1 5304  14.179   3.509   9.310
 1157SOL    HW2 5305  14.086   3.430   9.399
 1158SOL     OW 5306   8.619   0.132   3.577
 1158SOL    HW1 5307   8.698   0.128   3.631
 1158SOL    HW2 5308   8.601   0.041   3.555
 1159SOL     OW 5309   5.649  11.111   6.556
 1159SOL    HW1 5310   5.572  11.167   6.541
 1159SOL    HW2 5311   5.690  11.147   6.634
 1160SOL     OW 5312   6.993   2.710   2.418
 1160SOL    HW1 5313   7.030   2.643   2.360
 1160SOL    HW2 5314   6.925   2.752   2.365
 1161SOL     OW 5315   0.840  12.935  10.764
 1161SOL    HW1 5316   0.925  12.895  10.782
 1161SOL    HW2 5317   0.860  13.028  10.752
 1162SOL     OW 5318  10.120   0.161  12.717
 1162SOL    HW1 5319  10.190   0.167  12.652
 1162SOL    HW2 5320  10.042   0.192  12.671
 1163SOL     OW 5321  11.190   1.652   3.409
 1163SOL    HW1 5322  11.125   1.629   3.474
 1163SOL    HW2 5323  11.185   1.581   3.344
 1164SOL     OW 5324   9.195   0.748   0.265
 1164SOL    HW1 5325   9.123   0.750   0.203
 1164SOL    HW2 5326   9.274   0.744   0.211
 1165SOL     OW 5327   2.501   8.262   8.913
 1165SOL    HW1 5328   2.499   8.355   8.934
 1165SOL    HW2 5329   2.490   8.258   8.818
 1166SOL     OW 5330   2.616   8.468  11.482
 1166SOL    HW1 5331   2.679   8.425  11.423
 1166SOL    HW2 5332   2.537   8.413  11.476
 1167SOL     OW 5333   0.572   0.579  10.769
 1167SOL    HW1 5334   0.512   0.624  10.709
 1167SOL    HW2 5335   0.657   0.621  10.752
 1168SOL     OW 5336   2.538  12.118   6.734
 1168SOL    HW1 5337   2.491  12.201   6.747
 1168SOL    HW2 5338   2.597  12.135   6.661
 1169SOL     OW 5339  10.958   6.558  10.860
 1169SOL    HW1 5340  10.969   6.506  10.939
 1169SOL    HW2 5341  10.876   6.605  10.873
 1170SOL     OW 5342  11.679  11.999   3.859
 1170SOL    HW1 5343  11.685  11.916   3.812
 1170SOL    HW2 5344  11.740  12.057   3.813
 1171SOL     OW 5345  13.488   6.803   1.892
 1171SOL    HW1 5346  13.455   6.766   1.810
 1171SOL    HW2 5347  13.413   6.851   1.927
 1172SOL     OW 5348   5.296   2.671   0.755
 1172SOL    HW1 5349   5.375   2.724   0.755
 1172SOL    HW2 5350   5.249   2.697   0.834
 1173SOL     OW 5351  14.431   2.569  11.055
 1173SOL    HW1 5352  14.481   2.593  11.133
 1173SOL    HW2 5353  14.432   2.473  11.054
 1174SOL     OW 5354  11.528  14.765   5.583
 1174SOL    HW1 5355  11.463  14.698   5.603
 1174SOL    HW2 5356  11.497  14.806   5.503
 1175SOL     OW 5357   7.681   9.710  12.757
 1175SOL    HW1 5358   7.623   9.781  12.730
 1175SOL    HW2 5359   7.731   9.688  12.679
 1176SOL     OW 5360   6.413   1.690   2.056
 1176SOL    HW1 5361   6.394   1.781   2.037
 1176SOL    HW2 5362   6.327   1.649   2.069
 1177SOL     OW 5363   4.744  13.773  11.898
 1177SOL    HW1 5364   4.740  13.805  11.988
 1177SOL    HW2 5365   4.731  13.851  11.844
 1178SOL     OW 5366   1.880  10.556   5.012
 1178SOL    HW1 5367   1.963  10.592   5.043
 1178SOL    HW2 5368   1.845  10.507   5.086
 1179SOL     OW 5369   7.889   5.225   4.816
 1179SOL    HW1 5370   7.858   5.176   4.892
 1179SOL    HW2 5371   7.826   5.296   4.806
 1180SOL     OW 5372   1.151   5.003   0.007
 1180SOL    HW1 5373   1.079   5.037  14.832
 1180SOL    HW2 5374   1.220   4.982  14.824
 1181SOL     OW 5375   0.456   4.954   9.838
 1181SOL    HW1 5376   0.444   4.911   9.753
 1181SOL    HW2 5377   0.549   4.945   9.856
 1182SOL     OW 5378  14.672   0.362   2.244
 1182SOL    HW1 5379  14.587   0.396   2.218
 1182SOL    HW2 5380  14.667   0.354   2.340
 1183SOL     OW 5381   8.740   6.327   3.230
 1183SOL    HW1 5382   8.738   6.422   3.216
 1183SOL    HW2 5383   8.791   6.293   3.156
 1184SOL     OW 5384   1.159   7.949   4.412
 1184SOL    HW1 5385   1.157   7.994   4.497
 1184SOL    HW2 5386   1.130   8.016   4.349
 1185SOL     OW 5387   4.716  14.865   4.229
 1185SOL    HW1 5388   4.714   0.015   4.320
 1185SOL    HW2 5389   4.637   0.023   4.190
 1186SOL     OW 5390   4.981   0.954   5.726
 1186SOL    HW1 5391   4.926   0.876   5.732
 1186SOL    HW2 5392   4.960   1.004   5.805
 1187SOL     OW 5393   1.691  12.103  12.417
 1187SOL    HW1 5394   1.619  12.125  12.476
 1187SOL    HW2 5395   1.719  12.016  12.445
 1188SOL     OW 5396  10.364   0.653  14.746
 1188SOL    HW1 5397  10.351   0.574  14.799
 1188SOL    HW2 5398  10.435   0.630  14.686
 1189SOL     OW 5399  13.326   9.574   1.085
 1189SOL    HW1 5400  13.328   9.632   1.161
 1189SOL    HW2 5401  13.418   9.567   1.059
 1190SOL     OW 5402   0.565   6.247   0.424
 1190SOL    HW1 5403   0.626   6.245   0.350
 1190SOL    HW2 5404   0.481   6.271   0.386
 1191SOL     OW 5405  11.673  11.090   1.989
 1191SOL    HW1 5406  11.648  11.123   1.903
 1191SOL    HW2 5407  11.648  10.997   1.987
 1192SOL     OW 5408   0.574  14.197   7.925
 1192SOL    HW1 5409   0.483  14.173   7.940
 1192SOL    HW2 5410   0.594  14.263   7.992
 1193SOL     OW 5411  12.809  10.177   2.617
 1193SOL    HW1 5412  12.727  10.168   2.569
 1193SOL    HW2 5413  12.815  10.270   2.637
 1194SOL     OW 5414   5.597   5.855   6.271
 1194SOL    HW1 5415   5.579   5.788   6.205
 1194SOL    HW2 5416   5.541   5.831   6.345
 1195SOL     OW 5417   4.170   1.110   3.260
 1195SOL    HW1 5418   4.083   1.143   3.238
 1195SOL    HW2 5419   4.160   1.015   3.257
 1196SOL     OW 5420   4.238   4.429   1.947
 1196SOL    HW1 5421   4.315   4.481   1.972
 1196SOL    HW2 5422   4.240   4.428   1.851
 1197SOL     OW 5423   1.623   3.151   2.708
 1197SOL    HW1 5424   1.663   3.176   2.625
 1197SOL    HW2 5425   1.674   3.076   2.738
 1198SOL     OW 5426  13.929   9.596   8.732
 1198SOL    HW1 5427  13.905   9.510   8.697
 1198SOL    HW2 5428  13.909   9.657   8.661
 1199SOL     OW 5429   7.727  10.524   5.551
 1199SOL    HW1 5430   7.734  10.444   5.499
 1199SOL    HW2 5431   7.636  10.551   5.542
 1200SOL     OW 5432   7.427   2.766   3.517
 1200SOL    HW1 5433   7.345   2.721   3.495
 1200SOL    HW2 5434   7.399   2.853   3.546
 1201SOL     OW 5435   4.046   6.024   7.693
 1201SOL    HW1 5436   4.025   6.065   7.777
 1201SOL    HW2 5437   4.121   5.968   7.711
 1202SOL     OW 5438   1.984   7.348  11.652
 1202SOL    HW1 5439   2.040   7.396  11.714
 1202SOL    HW2 5440   2.046   7.301  11.596
 1203SOL     OW 5441  11.645   0.136  13.091
 1203SOL    HW1 5442  11.633   0.132  12.996
 1203SOL    HW2 5443  11.630   0.228  13.112
 1204SOL     OW 5444  12.399   9.730  12.260
 1204SOL    HW1 5445  12.481   9.734  12.212
 1204SOL    HW2 5446  12.418   9.770  12.345
 1205SOL     OW 5447   1.078   2.268  14.619
 1205SOL    HW1 5448   1.154   2.297  14.569
 1205SOL    HW2 5449   1.085   2.172  14.620
 1206SOL     OW 5450   7.656   5.135   6.265
 1206SOL    HW1 5451   7.596   5.205   6.291
 1206SOL    HW2 5452   7.648   5.070   6.335
 1207SOL     OW 5453   3.425  12.299   5.453
 1207SOL    HW1 5454   3.403  12.339   5.369
 1207SOL    HW2 5455   3.447  12.208   5.431
 1208SOL     OW 5456   1.965   5.001   1.703
 1208SOL    HW1 5457   1.964   4.913   1.739
 1208SOL    HW2 5458   2.056   5.017   1.679
 1209SOL     OW 5459   5.482   3.545   5.824
 1209SOL    HW1 5460   5.400   3.538   5.873
 1209SOL    HW2 5461   5.520   3.457   5.828
 1210SOL     OW 5462   0.707  13.609   0.147
 1210SOL    HW1 5463   0.782  13.563   0.108
 1210SOL    HW2 5464   0.680  13.672   0.081
 1211SOL     OW 5465   6.334  10.778  13.686
 1211SOL    HW1 5466   6.301  10.842  13.622
 1211SOL    HW2 5467   6.328  10.694  13.642
 1212SOL     OW 5468  11.805  10.715   7.415
 1212SOL    HW1 5469  11.818  10.664   7.496
 1212SOL    HW2 5470  11.812  10.806   7.443
 1213SOL     OW 5471  13.845  11.850   7.318
 1213SOL    HW1 5472  13.906  11.777   7.315
 1213SOL    HW2 5473  13.828  11.864   7.412
 1214SOL     OW 5474   5.600   5.240  13.440
 1214SOL    HW1 5475   5.600   5.144  13.445
 1214SOL    HW2 5476   5.567   5.260  13.353
 1215SOL     OW 5477  13.747   0.698  10.922
 1215SOL    HW1 5478  13.666   0.731  10.961
 1215SOL    HW2 5479  13.814   0.759  10.951
 1216SOL     OW 5480   7.413   1.112   0.604
 1216SOL    HW1 5481   7.398   1.206   0.604
 1216SOL    HW2 5482   7.390   1.084   0.515
 1217SOL     OW 5483  12.356  11.875  13.516
 1217SOL    HW1 5484  12.285  11.812  13.528
 1217SOL    HW2 5485  12.417  11.855  13.587
 1218SOL     OW 5486   7.100  14.066   1.501
 1218SOL    HW1 5487   7.160  14.126   1.545
 1218SOL    HW2 5488   7.057  14.119   1.434
 1219SOL     OW 5489   7.077   9.036  10.293
 1219SOL    HW1 5490   7.073   8.959  10.236
 1219SOL    HW2 5491   7.123   9.006  10.371
 1220SOL     OW 5492   1.452  11.867  10.107
 1220SOL    HW1 5493   1.509  11.892  10.034
 1220SOL    HW2 5494   1.463  11.772  10.114
 1221SOL     OW 5495   8.860   9.975   0.748
 1221SOL    HW1 5496   8.822   9.928   0.675
 1221SOL    HW2 5497   8.859   9.912   0.821
 1222SOL     OW 5498   5.613   5.428  14.491
 1222SOL    HW1 5499   5.628   5.339  14.458
 1222SOL    HW2 5500   5.553   5.416  14.565
 1223SOL     OW 5501   6.088  12.725   1.260
 1223SOL    HW1 5502   6.159  12.789   1.270
 1223SOL    HW2 5503   6.099  12.691   1.172
 1224SOL     OW 5504   7.976  10.736   2.903
 1224SOL    HW1 5505   8.007  10.711   2.816
 1224SOL    HW2 5506   7.965  10.831   2.899
 1225SOL     OW 5507   4.220   1.831   5.166
 1225SOL    HW1 5508   4.250   1.843   5.075
 1225SOL    HW2 5509   4.301   1.820   5.216
 1226SOL     OW 5510  12.739   2.527   3.267
 1226SOL    HW1 5511  12.757   2.524   3.173
 1226SOL    HW2 5512  12.814   2.573   3.304
 1227SOL     OW 5513  13.440  14.450  14.418
 1227SOL    HW1 5514  13.527  14.412  14.427
 1227SOL    HW2 5515  13.382  14.388  14.462
 1228SOL     OW 5516   8.626   8.348   7.468
 1228SOL    HW1 5517   8.661   8.306   7.547
 1228SOL    HW2 5518   8.531   8.336   7.474
 1229SOL     OW 5519   1.238  12.776   5.200
 1229SOL    HW1 5520   1.321  12.769   5.151
 1229SOL    HW2 5521   1.187  12.700   5.171
 1230SOL     OW 5522   1.585   3.096   6.957
 1230SOL    HW1 5523   1.497   3.073   6.927
 1230SOL    HW2 5524   1.643   3.033   6.915
 1231SOL     OW 5525  11.298   8.537   2.409
 1231SOL    HW1 5526  11.273   8.451   2.374
 1231SOL    HW2 5527  11.223   8.593   2.388
 1232SOL     OW 5528  13.679  12.147   1.403
 1232SOL    HW1 5529  13.717  12.063   1.376
 1232SOL    HW2 5530  13.667  12.139   1.497
 1233SOL     OW 5531   9.891  14.120   9.588
 1233SOL    HW1 5532   9.798  14.101   9.594
 1233SOL    HW2 5533   9.921  14.124   9.678
 1234SOL     OW 5534  13.397  10.873   1.197
 1234SOL    HW1 5535  13.354  10.859   1.282
 1234SOL    HW2 5536  13.478  10.822   1.203
 1235SOL     OW 5537   2.514   9.653  10.403
 1235SOL    HW1 5538   2.514   9.571  10.353
 1235SOL    HW2 5539   2.426   9.656  10.442
 1236SOL     OW 5540  12.563  14.261   6.922
 1236SOL    HW1 5541  12.620  14.288   6.850
 1236SOL    HW2 5542  12.601  14.302   7.000
 1237SOL     OW 5543   9.608   0.033   5.781
 1237SOL    HW1 5544   9.693   0.068   5.752
 1237SOL    HW2 5545   9.592  14.838   5.723
 1238SOL     OW 5546   3.566   6.155   1.824
 1238SOL    HW1 5547   3.659   6.152   1.803
 1238SOL    HW2 5548   3.534   6.068   1.802
 1239SOL     OW 5549   3.266   9.911   2.859
 1239SOL    HW1 5550   3.317   9.982   2.819
 1239SOL    HW2 5551   3.210   9.880   2.787
 1240SOL     OW 5552   9.415  11.817  14.587
 1240SOL    HW1 5553   9.380  11.905  14.586
 1240SOL    HW2 5554   9.465  11.809  14.506
 1241SOL     OW 5555   3.085   4.540   1.318
 1241SOL    HW1 5556   3.132   4.605   1.371
 1241SOL    HW2 5557   3.051   4.589   1.244
 1242SOL     OW 5558   1.567  11.342   8.102
 1242SOL    HW1 5559   1.504  11.272   8.085
 1242SOL    HW2 5560   1.595  11.371   8.015
 1243SOL     OW 5561   3.058   8.330  10.137
 1243SOL    HW1 5562   3.012   8.380  10.204
 1243SOL    HW2 5563   3.009   8.347  10.056
 1244SOL     OW 5564  10.425   7.009  13.930
 1244SOL    HW1 5565  10.366   7.084  13.940
 1244SOL    HW2 5566  10.432   6.997  13.835
 1245SOL     OW 5567   6.839   9.186  11.513
 1245SOL    HW1 5568   6.785   9.239  11.454
 1245SOL    HW2 5569   6.785   9.173  11.591
 1246SOL     OW 5570   9.058   0.329  10.013
 1246SOL    HW1 5571   8.995   0.330   9.941
 1246SOL    HW2 5572   9.023   0.392  10.076
 1247SOL     OW 5573   4.658   3.413   6.833
 1247SOL    HW1 5574   4.570   3.451   6.838
 1247SOL    HW2 5575   4.647   3.323   6.861
 1248SOL     OW 5576   5.727  11.199   4.305
 1248SOL    HW1 5577   5.745  11.129   4.242
 1248SOL    HW2 5578   5.798  11.192   4.369
 1249SOL     OW 5579   7.278   6.844   0.109
 1249SOL    HW1 5580   7.206   6.907   0.115
 1249SOL    HW2 5581   7.356   6.894   0.132
 1250SOL     OW 5582  13.311  12.461   4.411
 1250SOL    HW1 5583  13.383  12.520   4.389
 1250SOL    HW2 5584  13.235  12.518   4.423
 1251SOL     OW 5585  10.969   0.428   4.734
 1251SOL    HW1 5586  11.016   0.387   4.807
 1251SOL    HW2 5587  10.944   0.514   4.768
 1252SOL     OW 5588   1.471  11.727   4.818
 1252SOL    HW1 5589   1.541  11.763   4.872
 1252SOL    HW2 5590   1.418  11.676   4.879
 1253SOL     OW 5591   7.873   0.463   6.474
 1253SOL    HW1 5592   7.846   0.554   6.486
 1253SOL    HW2 5593   7.810   0.427   6.412
 1254SOL     OW 5594   3.517   2.934   0.779
 1254SOL    HW1 5595   3.498   2.931   0.873
 1254SOL    HW2 5596   3.583   2.866   0.766
 1255SOL     OW 5597   8.988   5.075   5.184
 1255SOL    HW1 5598   9.047   5.107   5.253
 1255SOL    HW2 5599   8.992   4.979   5.192
 1256SOL     OW 5600   2.714   3.854   7.886
 1256SOL    HW1 5601   2.773   3.884   7.817
 1256SOL    HW2 5602   2.627   3.852   7.845
 1257SOL     OW 5603   7.902   3.758   8.556
 1257SOL    HW1 5604   7.867   3.744   8.468
 1257SOL    HW2 5605   7.997   3.752   8.545
 1258SOL     OW 5606  14.102  14.347  14.627
 1258SOL    HW1 5607  14.158  14.424  14.635
 1258SOL    HW2 5608  14.064  14.336  14.715
 1259SOL     OW 5609   8.920   0.692   5.100
 1259SOL    HW1 5610   9.013   0.704   5.081
 1259SOL    HW2 5611   8.882   0.780   5.091
 1260SOL     OW 5612   2.428   6.946  12.153
 1260SOL    HW1 5613   2.450   6.983  12.238
 1260SOL    HW2 5614   2.333   6.948  12.149
 1261SOL     OW 5615   0.550  11.259   6.908
 1261SOL    HW1 5616   0.505  11.269   6.825
 1261SOL    HW2 5617   0.573  11.166   6.911
 1262SOL     OW 5618   3.130   3.270   6.146
 1262SOL    HW1 5619   3.036   3.284   6.132
 1262SOL    HW2 5620   3.136   3.181   6.182
 1263SOL     OW 5621   0.072  13.074  13.112
 1263SOL    HW1 5622   0.070  13.124  13.030
 1263SOL    HW2 5623  14.860  13.051  13.129
 1264SOL     OW 5624   2.542   0.963   1.071
 1264SOL    HW1 5625   2.544   0.938   0.979
 1264SOL    HW2 5626   2.587   0.893   1.117
 1265SOL     OW 5627   7.628   4.375   7.157
 1265SOL    HW1 5628   7.719   4.395   7.179
 1265SOL    HW2 5629   7.581   4.385   7.239
 1266SOL     OW 5630  11.655   6.275   4.470
 1266SOL    HW1 5631  11.722   6.251   4.534
 1266SOL    HW2 5632  11.699   6.337   4.411
 1267SOL     OW 5633  12.063   3.467   9.085
 1267SOL    HW1 5634  12.012   3.510   9.018
 1267SOL    HW2 5635  12.077   3.534   9.152
 1268SOL     OW 5636   4.199   9.800   5.940
 1268SOL    HW1 5637   4.235   9.814   6.027
 1268SOL    HW2 5638   4.119   9.853   5.938
 1269SOL     OW 5639   2.248   5.051  14.292
 1269SOL    HW1 5640   2.233   5.014  14.379
 1269SOL    HW2 5641   2.189   5.004  14.235
 1270SOL     OW 5642   7.113   8.147   4.140
 1270SOL    HW1 5643   7.044   8.210   4.119
 1270SOL    HW2 5644   7.067   8.065   4.157
 1271SOL     OW 5645   6.379  10.620  13.171
 1271SOL    HW1 5646   6.368  10.625  13.076
 1271SOL    HW2 5647   6.437  10.693  13.193
 1272SOL     OW 5648  13.381   2.214   6.218
 1272SOL    HW1 5649  13.462   2.166   6.233
 1272SOL    HW2 5650  13.321   2.181   6.285
 1273SOL     OW 5651   8.219   0.981  12.378
 1273SOL    HW1 5652   8.163   1.040  12.429
 1273SOL    HW2 5653   8.183   0.983  12.290
 1274SOL     OW 5654   4.887  13.533  11.903
 1274SOL    HW1 5655   4.829  13.609  11.913
 1274SOL    HW2 5656   4.833  13.466  11.861
 1275SOL     OW 5657   0.721  14.577   6.113
 1275SOL    HW1 5658   0.633  14.594   6.079
 1275SOL    HW2 5659   0.707  14.551   6.204
 1276SOL     OW 5660  10.110   4.073   2.573
 1276SOL    HW1 5661  10.170   3.999   2.556
 1276SOL    HW2 5662  10.037   4.059   2.513
 1277SOL     OW 5663   3.435  11.204  11.358
 1277SOL    HW1 5664   3.503  11.216  11.292
 1277SOL    HW2 5665   3.426  11.289  11.400
 1278SOL     OW 5666   3.030   7.311   0.196
 1278SOL    HW1 5667   3.113   7.289   0.154
 1278SOL    HW2 5668   2.995   7.384   0.145
 1279SOL     OW 5669   8.358  12.263   9.107
 1279SOL    HW1 5670   8.389  12.282   9.195
 1279SOL    HW2 5671   8.434  12.225   9.062
 1280SOL     OW 5672   6.314  11.563   9.525
 1280SOL    HW1 5673   6.402  11.562   9.488
 1280SOL    HW2 5674   6.326  11.537   9.616
 1281SOL     OW 5675  12.771  12.803   9.633
 1281SOL    HW1 5676  12.762  12.762   9.546
 1281SOL    HW2 5677  12.735  12.891   9.622
 1282SOL     OW 5678   8.120   1.582   3.938
 1282SOL    HW1 5679   8.029   1.607   3.953
 1282SOL    HW2 5680   8.122   1.551   3.847
 1283SOL     OW 5681   3.743  11.109   7.669
 1283SOL    HW1 5682   3.747  11.180   7.604
 1283SOL    HW2 5683   3.734  11.029   7.616
 1284SOL     OW 5684  13.549  12.514   6.698
 1284SOL    HW1 5685  13.550  12.490   6.791
 1284SOL    HW2 5686  13.545  12.431   6.652
 1285SOL     OW 5687   5.865   1.757   1.994
 1285SOL    HW1 5688   5.829   1.844   1.977
 1285SOL    HW2 5689   5.891   1.725   1.907
 1286SOL     OW 5690  10.661   7.029   1.890
 1286SOL    HW1 5691  10.621   6.942   1.900
 1286SOL    HW2 5692  10.655   7.048   1.797
 1287SOL     OW 5693   8.851   1.027   6.785
 1287SOL    HW1 5694   8.805   0.968   6.844
 1287SOL    HW2 5695   8.861   0.977   6.704
 1288SOL     OW 5696   7.397   9.916   1.563
 1288SOL    HW1 5697   7.410   9.998   1.515
 1288SOL    HW2 5698   7.305   9.919   1.590
 1289SOL     OW 5699   7.780   4.233   3.906
 1289SOL    HW1 5700   7.717   4.277   3.848
 1289SOL    HW2 5701   7.729   4.163   3.948
 1290SOL     OW 5702  14.505   1.890   6.769
 1290SOL    HW1 5703  14.427   1.926   6.726
 1290SOL    HW2 5704  14.528   1.814   6.716
 1291SOL     OW 5705   8.150   9.390   9.700
 1291SOL    HW1 5706   8.116   9.411   9.787
 1291SOL    HW2 5707   8.197   9.307   9.712
 1292SOL     OW 5708   3.427  14.091   7.921
 1292SOL    HW1 5709   3.424  14.174   7.969
 1292SOL    HW2 5710   3.348  14.044   7.950
 1293SOL     OW 5711  13.398   0.250  10.093
 1293SOL    HW1 5712  13.454   0.316  10.053
 1293SOL    HW2 5713  13.322   0.244  10.035
 1294SOL     OW 5714   7.492   4.212  10.340
 1294SOL    HW1 5715   7.575   4.188  10.381
 1294SOL    HW2 5716   7.468   4.135  10.288
 1295SOL     OW 5717   9.175  11.637   0.725
 1295SOL    HW1 5718   9.101  11.578   0.717
 1295SOL    HW2 5719   9.145  11.719   0.684
 1296SOL     OW 5720   8.930   9.216   3.540
 1296SOL    HW1 5721   8.919   9.130   3.580
 1296SOL    HW2 5722   9.024   9.234   3.548
 1297SOL     OW 5723  13.870   7.979   3.468
 1297SOL    HW1 5724  13.841   8.070   3.457
 1297SOL    HW2 5725  13.942   7.984   3.530
 1298SOL     OW 5726  11.753   7.735  13.116
 1298SOL    HW1 5727  11.825   7.709  13.173
 1298SOL    HW2 5728  11.796   7.767  13.036
 1299SOL     OW 5729  12.487   9.114   2.700
 1299SOL    HW1 5730  12.493   9.132   2.794
 1299SOL    HW2 5731  12.395   9.093   2.685
 1300SOL     OW 5732  14.541   3.771   0.733
 1300SOL    HW1 5733  14.561   3.779   0.639
 1300SOL    HW2 5734  14.450   3.741   0.736
 1301SOL     OW 5735   5.467  11.801   1.003
 1301SOL    HW1 5736   5.541  11.779   0.946
 1301SOL    HW2 5737   5.508  11.838   1.082
 1302SOL     OW 5738  14.449   2.641   2.625
 1302SOL    HW1 5739  14.398   2.693   2.564
 1302SOL    HW2 5740  14.418   2.668   2.712
 1303SOL     OW 5741  14.364   9.158  14.575
 1303SOL    HW1 5742  14.387   9.210  14.498
 1303SOL    HW2 5743  14.330   9.222  14.638
 1304SOL     OW 5744   6.876   8.960  10.561
 1304SOL    HW1 5745   6.787   8.933  10.580
 1304SOL    HW2 5746   6.874   9.056  10.567
 1305SOL     OW 5747  14.255   3.228   6.807
 1305SOL    HW1 5748  14.299   3.277   6.738
 1305SOL    HW2 5749  14.262   3.136   6.779
 1306SOL     OW 5750  10.874   3.646   4.965
 1306SOL    HW1 5751  10.920   3.651   4.882
 1306SOL    HW2 5752  10.796   3.593   4.946
 1307SOL     OW 5753   2.708   8.250   1.505
 1307SOL    HW1 5754   2.622   8.214   1.527
 1307SOL    HW2 5755   2.688   8.328   1.453
 1308SOL     OW 5756   3.814   4.254   8.510
 1308SOL    HW1 5757   3.752   4.184   8.491
 1308SOL    HW2 5758   3.899   4.211   8.515
 1309SOL     OW 5759  13.551   4.164   7.039
 1309SOL    HW1 5760  13.538   4.243   6.986
 1309SOL    HW2 5761  13.467   4.151   7.083
 1310SOL     OW 5762   6.849   4.071   1.044
 1310SOL    HW1 5763   6.830   4.164   1.059
 1310SOL    HW2 5764   6.882   4.068   0.954
 1311SOL     OW 5765  12.866  11.694   1.851
 1311SOL    HW1 5766  12.857  11.728   1.762
 1311SOL    HW2 5767  12.928  11.753   1.893
 1312SOL     OW 5768   4.587   0.447   9.897
 1312SOL    HW1 5769   4.567   0.360   9.932
 1312SOL    HW2 5770   4.683   0.452   9.897
 1313SOL     OW 5771   2.766   6.451   2.196
 1313SOL    HW1 5772   2.712   6.529   2.210
 1313SOL    HW2 5773   2.846   6.469   2.245
 1314SOL     OW 5774   7.561  10.072   0.217
 1314SOL    HW1 5775   7.566  10.151   0.271
 1314SOL    HW2 5776   7.564  10.104   0.127
 1315SOL     OW 5777   7.366  12.843   3.367
 1315SOL    HW1 5778   7.291  12.878   3.416
 1315SOL    HW2 5779   7.436  12.907   3.382
 1316SOL     OW 5780  11.191   8.798   3.206
 1316SOL    HW1 5781  11.194   8.744   3.285
 1316SOL    HW2 5782  11.116   8.857   3.220
 1317SOL     OW 5783  12.293  11.187  14.278
 1317SOL    HW1 5784  12.342  11.117  14.321
 1317SOL    HW2 5785  12.334  11.268  14.310
 1318SOL     OW 5786   9.335   3.301  14.456
 1318SOL    HW1 5787   9.293   3.385  14.438
 1318SOL    HW2 5788   9.387   3.282  14.377
 1319SOL     OW 5789  11.986   0.784   1.059
 1319SOL    HW1 5790  12.051   0.719   1.034
 1319SOL    HW2 5791  11.971   0.834   0.979
 1320SOL     OW 5792   2.987   3.952  14.149
 1320SOL    HW1 5793   2.934   4.020  14.107
 1320SOL    HW2 5794   2.926   3.879  14.161
 1321SOL     OW 5795   6.267   2.620   9.822
 1321SOL    HW1 5796   6.251   2.713   9.836
 1321SOL    HW2 5797   6.234   2.577   9.902
 1322SOL     OW 5798  13.723   3.039   6.794
 1322SOL    HW1 5799  13.728   3.126   6.755
 1322SOL    HW2 5800  13.814   3.011   6.803
 1323SOL     OW 5801   3.000  14.500  11.891
 1323SOL    HW1 5802   3.064  14.436  11.858
 1323SOL    HW2 5803   2.990  14.563  11.820
 1324SOL     OW 5804   3.077   3.446  11.911
 1324SOL    HW1 5805   3.034   3.424  11.994
 1324SOL    HW2 5806   3.140   3.374  11.897
 1325SOL     OW 5807   0.669   5.572   1.308
 1325SOL    HW1 5808   0.652   5.647   1.365
 1325SOL    HW2 5809   0.721   5.608   1.236
 1326SOL     OW 5810   4.768   7.292   1.957
 1326SOL    HW1 5811   4.835   7.246   1.906
 1326SOL    HW2 5812   4.727   7.225   2.010
 1327SOL     OW 5813   0.765   2.731  10.076
 1327SOL    HW1 5814   0.721   2.758   9.995
 1327SOL    HW2 5815   0.716   2.654  10.105
 1328SOL     OW 5816   3.813  11.339   4.908
 1328SOL    HW1 5817   3.786  11.285   4.982
 1328SOL    HW2 5818   3.731  11.360   4.862
 1329SOL     OW 5819   7.758   6.931   9.534
 1329SOL    HW1 5820   7.702   6.969   9.467
 1329SOL    HW2 5821   7.833   6.895   9.485
 1330SOL     OW 5822   6.513   1.351   9.350
 1330SOL    HW1 5823   6.557   1.412   9.291
 1330SOL    HW2 5824   6.584   1.311   9.400
 1331SOL     OW 5825  12.291  11.764   7.901
 1331SOL    HW1 5826  12.228  11.698   7.930
 1331SOL    HW2 5827  12.259  11.846   7.939
 1332SOL     OW 5828   9.991   8.158   1.418
 1332SOL    HW1 5829  10.020   8.153   1.509
 1332SOL    HW2 5830   9.939   8.078   1.406
 1333SOL     OW 5831   5.780   7.421   1.822
 1333SOL    HW1 5832   5.780   7.473   1.903
 1333SOL    HW2 5833   5.757   7.333   1.851
 1334SOL     OW 5834   8.501   4.875  12.196
 1334SOL    HW1 5835   8.458   4.859  12.112
 1334SOL    HW2 5836   8.464   4.809  12.255
 1335SOL     OW 5837   0.916   3.062   8.618
 1335SOL    HW1 5838   0.978   3.069   8.545
 1335SOL    HW2 5839   0.968   3.030   8.691
 1336SOL     OW 5840  13.860  12.886   2.137
 1336SOL    HW1 5841  13.868  12.846   2.223
 1336SOL    HW2 5842  13.864  12.812   2.076
 1337SOL     OW 5843   8.745   6.488  14.107
 1337SOL    HW1 5844   8.834   6.518  14.089
 1337SOL    HW2 5845   8.755   6.423  14.176
 1338SOL     OW 5846   1.943   6.230  11.252
 1338SOL    HW1 5847   1.984   6.206  11.335
 1338SOL    HW2 5848   1.897   6.151  11.223
 1339SOL     OW 5849  14.579  12.069   5.603
 1339SOL    HW1 5850  14.519  12.015   5.655
 1339SOL    HW2 5851  14.573  12.033   5.514
 1340SOL     OW 5852   8.021   2.487   3.735
 1340SOL    HW1 5853   8.070   2.450   3.809
 1340SOL    HW2 5854   8.085   2.544   3.691
 1341SOL     OW 5855  14.344  10.865  11.502
 1341SOL    HW1 5856  14.430  10.828  11.483
 1341SOL    HW2 5857  14.342  10.872  11.598
 1342SOL     OW 5858   2.114   1.639   2.392
 1342SOL    HW1 5859   2.197   1.597   2.415
 1342SOL    HW2 5860   2.117   1.649   2.297
 1343SOL     OW 5861   6.534  12.399   1.091
 1343SOL    HW1 5862   6.575  12.426   1.173
 1343SOL    HW2 5863   6.580  12.449   1.024
 1344SOL     OW 5864   7.566   7.894   2.654
 1344SOL    HW1 5865   7.603   7.922   2.570
 1344SOL    HW2 5866   7.630   7.924   2.719
 1345SOL     OW 5867  11.224   7.864  11.165
 1345SOL    HW1 5868  11.264   7.893  11.083
 1345SOL    HW2 5869  11.269   7.782  11.186
 1346SOL     OW 5870   8.752   5.618   2.926
 1346SOL    HW1 5871   8.741   5.649   2.836
 1346SOL    HW2 5872   8.816   5.547   2.919
 1347SOL     OW 5873  10.621  11.008  13.719
 1347SOL    HW1 5874  10.642  10.923  13.759
 1347SOL    HW2 5875  10.526  11.015  13.726
 1348SOL     OW 5876   7.524   6.557   7.581
 1348SOL    HW1 5877   7.490   6.645   7.595
 1348SOL    HW2 5878   7.526   6.518   7.668
 1349SOL     OW 5879   1.853  14.682   2.515
 1349SOL    HW1 5880   1.861  14.624   2.440
 1349SOL    HW2 5881   1.930  14.738   2.511
 1350SOL     OW 5882   8.679   2.869  12.818
 1350SOL    HW1 5883   8.732   2.949  12.813
 1350SOL    HW2 5884   8.691   2.827  12.733
 1351SOL     OW 5885   2.299   7.883  10.817
 1351SOL    HW1 5886   2.262   7.866  10.730
 1351SOL    HW2 5887   2.235   7.849  10.878
 1352SOL     OW 5888   9.804  14.326   6.788
 1352SOL    HW1 5889   9.793  14.422   6.789
 1352SOL    HW2 5890   9.827  14.306   6.697
 1353SOL     OW 5891   0.161   2.046   0.469
 1353SOL    HW1 5892   0.126   2.116   0.413
 1353SOL    HW2 5893   0.094   2.034   0.537
 1354SOL     OW 5894  10.196   8.424  10.081
 1354SOL    HW1 5895  10.228   8.390  10.164
 1354SOL    HW2 5896  10.123   8.367  10.057
 1355SOL     OW 5897   8.814   4.697   8.880
 1355SOL    HW1 5898   8.723   4.668   8.868
 1355SOL    HW2 5899   8.846   4.711   8.791
 1356SOL     OW 5900  11.995   9.425   5.037
 1356SOL    HW1 5901  11.960   9.475   4.963
 1356SOL    HW2 5902  12.082   9.397   5.008
 1357SOL     OW 5903   1.471   3.171  13.001
 1357SOL    HW1 5904   1.484   3.115  13.078
 1357SOL    HW2 5905   1.557   3.172  12.958
 1358SOL     OW 5906   4.851  11.664   7.235
 1358SOL    HW1 5907   4.882  11.652   7.324
 1358SOL    HW2 5908   4.812  11.751   7.234
 1359SOL     OW 5909   8.346   1.375  14.844
 1359SOL    HW1 5910   8.347   1.282  14.820
 1359SOL    HW2 5911   8.253   1.396  14.853
 1360SOL     OW 5912   4.135  10.399   8.443
 1360SOL    HW1 5913   4.079  10.344   8.388
 1360SOL    HW2 5914   4.183  10.337   8.498
 1361SOL     OW 5915   3.375  10.924   8.562
 1361SOL    HW1 5916   3.312  10.980   8.607
 1361SOL    HW2 5917   3.452  10.925   8.619
 1362SOL     OW 5918   3.304  12.371   1.492
 1362SOL    HW1 5919   3.310  12.423   1.572
 1362SOL    HW2 5920   3.214  12.339   1.490
 1363SOL     OW 5921  11.811   5.501  14.744
 1363SOL    HW1 5922  11.746   5.469  14.682
 1363SOL    HW2 5923  11.833   5.589  14.713
 1364SOL     OW 5924   5.367  12.152   2.106
 1364SOL    HW1 5925   5.292  12.178   2.052
 1364SOL    HW2 5926   5.355  12.058   2.121
 1365SOL     OW 5927   2.513   1.362   6.647
 1365SOL    HW1 5928   2.454   1.339   6.719
 1365SOL    HW2 5929   2.515   1.458   6.648
 1366SOL     OW 5930   7.599   2.282  12.322
 1366SOL    HW1 5931   7.623   2.325  12.240
 1366SOL    HW2 5932   7.614   2.347  12.390
 1367SOL     OW 5933   9.434  14.290   8.478
 1367SOL    HW1 5934   9.482  14.354   8.530
 1367SOL    HW2 5935   9.436  14.323   8.389
 1368SOL     OW 5936  11.516   8.938   4.006
 1368SOL    HW1 5937  11.429   8.930   3.965
 1368SOL    HW2 5938  11.564   8.863   3.973
 1369SOL     OW 5939   5.918  12.688   6.023
 1369SOL    HW1 5940   6.008  12.718   6.008
 1369SOL    HW2 5941   5.872  12.765   6.054
 1370SOL     OW 5942  14.096   8.737  12.234
 1370SOL    HW1 5943  14.132   8.684  12.163
 1370SOL    HW2 5944  14.001   8.722  12.229
 1371SOL     OW 5945  12.260  10.850   3.055
 1371SOL    HW1 5946  12.168  10.830   3.037
 1371SOL    HW2 5947  12.277  10.929   3.004
 1372SOL     OW 5948  10.243   3.888   5.643
 1372SOL    HW1 5949  10.305   3.936   5.588
 1372SOL    HW2 5950  10.297   3.822   5.687
 1373SOL     OW 5951  10.179   1.319   4.261
 1373SOL    HW1 5952  10.115   1.383   4.230
 1373SOL    HW2 5953  10.196   1.344   4.351
 1374SOL     OW 5954   8.547   0.633  10.942
 1374SOL    HW1 5955   8.502   0.689  10.879
 1374SOL    HW2 5956   8.616   0.591  10.891
 1375SOL     OW 5957   6.675   0.721  12.109
 1375SOL    HW1 5958   6.715   0.764  12.185
 1375SOL    HW2 5959   6.725   0.754  12.035
 1376SOL     OW 5960   3.517   7.359  11.293
 1376SOL    HW1 5961   3.463   7.396  11.363
 1376SOL    HW2 5962   3.588   7.421  11.282
 1377SOL     OW 5963   8.966  12.483   9.621
 1377SOL    HW1 5964   8.963  12.573   9.589
 1377SOL    HW2 5965   8.891  12.440   9.580
 1378SOL     OW 5966   6.217  10.020   3.966
 1378SOL    HW1 5967   6.175   9.989   3.886
 1378SOL    HW2 5968   6.158   9.994   4.036
 1379SOL     OW 5969  14.635  14.399   0.096
 1379SOL    HW1 5970  14.589  14.315   0.101
 1379SOL    HW2 5971  14.724  14.376   0.068
 1380SOL     OW 5972  10.703  13.636   8.855
 1380SOL    HW1 5973  10.744  13.561   8.812
 1380SOL    HW2 5974  10.617  13.643   8.813
 1381SOL     OW 5975   9.293   5.755   0.393
 1381SOL    HW1 5976   9.243   5.685   0.350
 1381SOL    HW2 5977   9.241   5.779   0.469
 1382SOL     OW 5978   0.699  11.457  10.238
 1382SOL    HW1 5979   0.698  11.544  10.197
 1382SOL    HW2 5980   0.607  11.433  10.246
 1383SOL     OW 5981   4.626   2.792   6.058
 1383SOL    HW1 5982   4.721   2.797   6.051
 1383SOL    HW2 5983   4.597   2.766   5.971
 1384SOL     OW 5984  10.819   9.701   8.298
 1384SOL    HW1 5985  10.724   9.697   8.284
 1384SOL    HW2 5986  10.839   9.626   8.353
 1385SOL     OW 5987  12.046   9.880   7.821
 1385SOL    HW1 5988  12.029   9.829   7.742
 1385SOL    HW2 5989  12.082   9.963   7.788
 1386SOL     OW 5990   6.454   1.222   0.119
 1386SOL    HW1 5991   6.523   1.228   0.185
 1386SOL    HW2 5992   6.378   1.189   0.168
 1387SOL     OW 5993   1.979   2.092  10.330
 1387SOL    HW1 5994   2.007   2.007  10.364
 1387SOL    HW2 5995   1.934   2.071  10.248
 1388SOL     OW 5996   2.455   1.559   8.091
 1388SOL    HW1 5997   2.491   1.498   8.155
 1388SOL    HW2 5998   2.365   1.529   8.078
 1389SOL     OW 5999  10.334  13.338  13.959
 1389SOL    HW1 6000  10.361  13.427  13.979
 1389SOL    HW2 6001  10.331  13.334  13.864
 1390SOL     OW 6002   5.282   5.138   4.761
 1390SOL    HW1 6003   5.352   5.119   4.823
 1390SOL    HW2 6004   5.246   5.051   4.740
 1391SOL     OW 6005   7.633   0.244  12.522
 1391SOL    HW1 6006   7.689   0.251  12.600
 1391SOL    HW2 6007   7.691   0.210  12.454
 1392SOL     OW 6008   2.004   2.293  12.591
 1392SOL    HW1 6009   1.983   2.231  12.521
 1392SOL    HW2 6010   2.001   2.241  12.671
 1393SOL     OW 6011   6.210  14.853   9.149
 1393SOL    HW1 6012   6.167  14.802   9.219
 1393SOL    HW2 6013   6.195   0.065   9.173
 1394SOL     OW 6014  12.496  14.706   2.915
 1394SOL    HW1 6015  12.500  14.634   2.852
 1394SOL    HW2 6016  12.524  14.667   2.998
 1395SOL     OW 6017   3.920  11.976   9.620
 1395SOL    HW1 6018   3.954  11.896   9.581
 1395SOL    HW2 6019   3.968  12.046   9.576
 1396SOL     OW 6020   3.182   9.051  11.912
 1396SOL    HW1 6021   3.261   9.022  11.866
 1396SOL    HW2 6022   3.212   9.068  12.002
 1397SOL     OW 6023  12.681  12.617  10.123
 1397SOL    HW1 6024  12.708  12.637  10.033
 1397SOL    HW2 6025  12.633  12.534  10.115
 1398SOL     OW 6026   9.952   7.747   2.496
 1398SOL    HW1 6027   9.961   7.654   2.477
 1398SOL    HW2 6028   9.898   7.751   2.574
 1399SOL     OW 6029   8.715  10.150   1.929
 1399SOL    HW1 6030   8.767  10.219   1.971
 1399SOL    HW2 6031   8.777  10.103   1.874
 1400SOL     OW 6032   3.448  10.695   5.806
 1400SOL    HW1 6033   3.393  10.773   5.793
 1400SOL    HW2 6034   3.505  10.693   5.729
 1401SOL     OW 6035  12.450   7.207   6.727
 1401SOL    HW1 6036  12.393   7.143   6.684
 1401SOL    HW2 6037  12.392   7.280   6.751
 1402SOL     OW 6038   5.990  12.080   9.813
 1402SOL    HW1 6039   5.918  12.060   9.755
 1402SOL    HW2 6040   6.021  12.166   9.785
 1403SOL     OW 6041   5.316   2.037   2.598
 1403SOL    HW1 6042   5.313   1.954   2.645
 1403SOL    HW2 6043   5.372   2.093   2.652
 1404SOL     OW 6044   1.108  10.368   8.864
 1404SOL    HW1 6045   1.081  10.415   8.785
 1404SOL    HW2 6046   1.098  10.431   8.935
 1405SOL     OW 6047   3.517   7.027   6.484
 1405SOL    HW1 6048   3.438   7.042   6.431
 1405SOL    HW2 6049   3.589   7.056   6.428
 1406SOL     OW 6050   3.808   4.169   2.800
 1406SOL    HW1 6051   3.840   4.256   2.821
 1406SOL    HW2 6052   3.887   4.118   2.780
 1407SOL     OW 6053   2.750   7.314   9.386
 1407SOL    HW1 6054   2.696   7.381   9.430
 1407SOL    HW2 6055   2.687   7.261   9.338
 1408SOL     OW 6056   1.729  10.315   0.127
 1408SOL    HW1 6057   1.668  10.388   0.139
 1408SOL    HW2 6058   1.788  10.344   0.057
 1409SOL     OW 6059  14.705   0.914  10.878
 1409SOL    HW1 6060  14.718   0.984  10.814
 1409SOL    HW2 6061  14.790   0.871  10.884
 1410SOL     OW 6062  11.324   6.409   1.895
 1410SOL    HW1 6063  11.264   6.348   1.852
 1410SOL    HW2 6064  11.290   6.418   1.984
 1411SOL     OW 6065  11.693  12.018  10.950
 1411SOL    HW1 6066  11.746  11.960  11.004
 1411SOL    HW2 6067  11.737  12.020  10.865
 1412SOL     OW 6068   9.502  12.102   9.879
 1412SOL    HW1 6069   9.546  12.029   9.923
 1412SOL    HW2 6070   9.569  12.170   9.875
 1413SOL     OW 6071  11.587   2.937  10.907
 1413SOL    HW1 6072  11.657   2.953  10.844
 1413SOL    HW2 6073  11.538   3.020  10.909
 1414SOL     OW 6074  14.074   4.828   0.257
 1414SOL    HW1 6075  14.029   4.911   0.242
 1414SOL    HW2 6076  14.005   4.766   0.280
 1415SOL     OW 6077  10.731   4.233   9.544
 1415SOL    HW1 6078  10.750   4.260   9.634
 1415SOL    HW2 6079  10.639   4.206   9.545
 1416SOL     OW 6080  10.068  13.554  14.292
 1416SOL    HW1 6081  10.047  13.604  14.371
 1416SOL    HW2 6082  10.162  13.534  14.301
 1417SOL     OW 6083  12.784  12.598   0.247
 1417SOL    HW1 6084  12.757  12.640   0.329
 1417SOL    HW2 6085  12.823  12.514   0.275
 1418SOL     OW 6086   3.916   7.053   8.978
 1418SOL    HW1 6087   3.931   7.046   8.884
 1418SOL    HW2 6088   3.986   7.000   9.018
 1419SOL     OW 6089  13.686   8.238   5.408
 1419SOL    HW1 6090  13.639   8.193   5.478
 1419SOL    HW2 6091  13.619   8.290   5.363
 1420SOL     OW 6092  12.684   9.949   0.649
 1420SOL    HW1 6093  12.747  10.014   0.620
 1420SOL    HW2 6094  12.604   9.969   0.601
 1421SOL     OW 6095   1.818   6.775   8.200
 1421SOL    HW1 6096   1.799   6.829   8.277
 1421SOL    HW2 6097   1.861   6.835   8.139
 1422SOL     OW 6098  11.196   8.549   9.655
 1422SOL    HW1 6099  11.122   8.529   9.597
 1422SOL    HW2 6100  11.208   8.470   9.707
 1423SOL     OW 6101   9.018  12.197  14.319
 1423SOL    HW1 6102   9.101  12.153  14.335
 1423SOL    HW2 6103   8.977  12.202  14.406
 1424SOL     OW 6104   0.741   8.322  14.270
 1424SOL    HW1 6105   0.659   8.299  14.226
 1424SOL    HW2 6106   0.761   8.247  14.325
 1425SOL     OW 6107   6.202  12.450   7.192
 1425SOL    HW1 6108   6.108  12.435   7.203
 1425SOL    HW2 6109   6.242  12.364   7.201
 1426SOL     OW 6110   2.192   6.124  10.187
 1426SOL    HW1 6111   2.237   6.153  10.266
 1426SOL    HW2 6112   2.122   6.066  10.219
 1427SOL     OW 6113   9.461   6.345   3.065
 1427SOL    HW1 6114   9.471   6.434   3.099
 1427SOL    HW2 6115   9.544   6.302   3.086
 1428SOL     OW 6116   6.583   8.529  11.749
 1428SOL    HW1 6117   6.606   8.536  11.657
 1428SOL    HW2 6118   6.614   8.612  11.788
 1429SOL     OW 6119   7.663   6.187   7.045
 1429SOL    HW1 6120   7.677   6.273   7.005
 1429SOL    HW2 6121   7.618   6.137   6.977
 1430SOL     OW 6122   8.760  13.030   2.956
 1430SOL    HW1 6123   8.743  13.001   2.866
 1430SOL    HW2 6124   8.704  13.106   2.969
 1431SOL     OW 6125   9.110  13.666   9.791
 1431SOL    HW1 6126   9.089  13.698   9.879
 1431SOL    HW2 6127   9.107  13.745   9.736
 1432SOL     OW 6128  11.095  11.919  11.329
 1432SOL    HW1 6129  11.163  11.957  11.383
 1432SOL    HW2 6130  11.112  11.824  11.332
 1433SOL     OW 6131  12.063   3.275   6.100
 1433SOL    HW1 6132  12.048   3.192   6.055
 1433SOL    HW2 6133  12.135   3.257   6.160
 1434SOL     OW 6134  13.938   2.820   4.967
 1434SOL    HW1 6135  13.954   2.861   5.052
 1434SOL    HW2 6136  14.020   2.832   4.919
 1435SOL     OW 6137   4.623  11.290   9.132
 1435SOL    HW1 6138   4.654  11.270   9.043
 1435SOL    HW2 6139   4.558  11.359   9.119
 1436SOL     OW 6140  14.668   1.762  12.624
 1436SOL    HW1 6141  14.705   1.691  12.571
 1436SOL    HW2 6142  14.726   1.836  12.607
 1437SOL     OW 6143   6.204  10.549  14.656
 1437SOL    HW1 6144   6.184  10.624  14.599
 1437SOL    HW2 6145   6.299  10.541  14.651
 1438SOL     OW 6146   1.002  11.843  10.193
 1438SOL    HW1 6147   1.043  11.886  10.118
 1438SOL    HW2 6148   1.035  11.753  10.189
 1439SOL     OW 6149   7.757   2.419  11.491
 1439SOL    HW1 6150   7.725   2.371  11.415
 1439SOL    HW2 6151   7.738   2.511  11.472
 1440SOL     OW 6152   7.138   2.023   4.195
 1440SOL    HW1 6153   7.130   1.930   4.220
 1440SOL    HW2 6154   7.047   2.054   4.193
 1441SOL     OW 6155   0.285   3.587   9.750
 1441SOL    HW1 6156   0.247   3.662   9.797
 1441SOL    HW2 6157   0.289   3.617   9.659
 1442SOL     OW 6158   8.278   6.365   4.263
 1442SOL    HW1 6159   8.236   6.382   4.347
 1442SOL    HW2 6160   8.207   6.342   4.204
 1443SOL     OW 6161   9.144   1.659   2.373
 1443SOL    HW1 6162   9.197   1.738   2.369
 1443SOL    HW2 6163   9.075   1.680   2.436
 1444SOL     OW 6164   1.869  13.221   2.882
 1444SOL    HW1 6165   1.887  13.151   2.944
 1444SOL    HW2 6166   1.896  13.187   2.797
 1445SOL     OW 6167  13.733   4.872   0.942
 1445SOL    HW1 6168  13.712   4.806   1.007
 1445SOL    HW2 6169  13.800   4.831   0.887
 1446SOL     OW 6170  12.776   5.433   9.284
 1446SOL    HW1 6171  12.778   5.421   9.379
 1446SOL    HW2 6172  12.708   5.499   9.270
 1447SOL     OW 6173   2.569   0.502   0.446
 1447SOL    HW1 6174   2.622   0.455   0.382
 1447SOL    HW2 6175   2.603   0.473   0.531
 1448SOL     OW 6176   8.860   1.201   4.123
 1448SOL    HW1 6177   8.783   1.174   4.073
 1448SOL    HW2 6178   8.827   1.211   4.212
 1449SOL     OW 6179   5.545   7.635   9.148
 1449SOL    HW1 6180   5.565   7.692   9.221
 1449SOL    HW2 6181   5.469   7.674   9.107
 1450SOL     OW 6182   2.050  12.159   1.562
 1450SOL    HW1 6183   2.140  12.142   1.537
 1450SOL    HW2 6184   1.998  12.101   1.506
 1451SOL     OW 6185  12.370   5.039   3.458
 1451SOL    HW1 6186  12.396   5.071   3.372
 1451SOL    HW2 6187  12.332   5.116   3.502
 1452SOL     OW 6188   6.360  12.366   8.529
 1452SOL    HW1 6189   6.425  12.319   8.582
 1452SOL    HW2 6190   6.412  12.414   8.465
 1453SOL     OW 6191   0.280   4.672  10.040
 1453SOL    HW1 6192   0.257   4.588  10.078
 1453SOL    HW2 6193   0.326   4.718  10.110
 1454SOL     OW 6194   3.177   1.448   5.056
 1454SOL    HW1 6195   3.221   1.409   5.131
 1454SOL    HW2 6196   3.225   1.529   5.039
 1455SOL     OW 6197   1.042   6.843   9.470
 1455SOL    HW1 6198   1.045   6.838   9.374
 1455SOL    HW2 6199   0.952   6.871   9.489
 1456SOL     OW 6200   3.979   3.159  10.425
 1456SOL    HW1 6201   3.982   3.181  10.518
 1456SOL    HW2 6202   4.034   3.081  10.417
 1457SOL     OW 6203   2.766  12.244   0.666
 1457SOL    HW1 6204   2.817  12.164   0.672
 1457SOL    HW2 6205   2.688  12.219   0.615
 1458SOL     OW 6206  12.082  11.189   3.387
 1458SOL    HW1 6207  12.112  11.273   3.351
 1458SOL    HW2 6208  11.987  11.201   3.399
 1459SOL     OW 6209  13.092  10.652  12.130
 1459SOL    HW1 6210  13.150  10.727  12.143
 1459SOL    HW2 6211  13.021  10.665  12.194
 1460SOL     OW 6212   2.666   8.248   0.400
 1460SOL    HW1 6213   2.741   8.302   0.425
 1460SOL    HW2 6214   2.634   8.288   0.319
 1461SOL     OW 6215  14.693   3.444  11.920
 1461SOL    HW1 6216  14.693   3.522  11.975
 1461SOL    HW2 6217  14.784   3.412  11.924
 1462SOL     OW 6218  14.548   0.214   3.690
 1462SOL    HW1 6219  14.640   0.223   3.663
 1462SOL    HW2 6220  14.516   0.139   3.640
 1463SOL     OW 6221   3.208   1.675   5.585
 1463SOL    HW1 6222   3.138   1.740   5.579
 1463SOL    HW2 6223   3.285   1.725   5.613
 1464SOL     OW 6224  13.026   9.062   5.307
 1464SOL    HW1 6225  13.104   9.116   5.298
 1464SOL    HW2 6226  13.028   9.004   5.231
 1465SOL     OW 6227  10.434  14.686   6.368
 1465SOL    HW1 6228  10.410  14.610   6.314
 1465SOL    HW2 6229  10.465  14.751   6.306
 1466SOL     OW 6230  12.833   6.422   2.619
 1466SOL    HW1 6231  12.815   6.427   2.525
 1466SOL    HW2 6232  12.918   6.379   2.625
 1467SOL     OW 6233  12.153  12.312   5.803
 1467SOL    HW1 6234  12.187  12.250   5.738
 1467SOL    HW2 6235  12.166  12.268   5.887
 1468SOL     OW 6236  14.854   1.062   8.579
 1468SOL    HW1 6237  14.836   1.084   8.487
 1468SOL    HW2 6238  14.808   0.979   8.592
 1469SOL     OW 6239   2.735  12.601   0.807
 1469SOL    HW1 6240   2.811  12.562   0.849
 1469SOL    HW2 6241   2.768  12.680   0.764
 1470SOL     OW 6242  11.784   9.294   6.667
 1470SOL    HW1 6243  11.728   9.218   6.650
 1470SOL    HW2 6244  11.727   9.355   6.715
 1471SOL     OW 6245   3.533  12.925   3.848
 1471SOL    HW1 6246   3.582  13.005   3.829
 1471SOL    HW2 6247   3.576  12.887   3.924
 1472SOL     OW 6248   3.835  11.662  13.186
 1472SOL    HW1 6249   3.751  11.704  13.203
 1472SOL    HW2 6250   3.889  11.731  13.148
 1473SOL     OW 6251   4.263   8.104   8.797
 1473SOL    HW1 6252   4.286   8.136   8.710
 1473SOL    HW2 6253   4.333   8.135   8.853
 1474SOL     OW 6254   6.307  11.491   9.789
 1474SOL    HW1 6255   6.300  11.396   9.781
 1474SOL    HW2 6256   6.248  11.513   9.862
 1475SOL     OW 6257  10.087   6.498   1.601
 1475SOL    HW1 6258  10.002   6.503   1.645
 1475SOL    HW2 6259  10.151   6.513   1.671
 1476SOL     OW 6260  10.140  13.156   2.937
 1476SOL    HW1 6261  10.109  13.077   2.981
 1476SOL    HW2 6262  10.235  13.150   2.942
 1477SOL     OW 6263  14.761   6.434   6.811
 1477SOL    HW1 6264  14.719   6.358   6.769
 1477SOL    HW2 6265  14.749   6.419   6.905
 1478SOL     OW 6266   2.420   0.711  12.742
 1478SOL    HW1 6267   2.401   0.720  12.649
 1478SOL    HW2 6268   2.337   0.684  12.781
 1479SOL     OW 6269   1.300  14.584   9.512
 1479SOL    HW1 6270   1.222  14.635   9.533
 1479SOL    HW2 6271   1.270  14.493   9.513
 1480SOL     OW 6272   7.459   4.306  11.307
 1480SOL    HW1 6273   7.374   4.263  11.317
 1480SOL    HW2 6274   7.524   4.236  11.318
 1481SOL     OW 6275  13.923  12.683   7.710
 1481SOL    HW1 6276  13.934  12.733   7.629
 1481SOL    HW2 6277  13.858  12.616   7.688
 1482SOL     OW 6278   6.303   6.284   8.189
 1482SOL    HW1 6279   6.363   6.243   8.125
 1482SOL    HW2 6280   6.357   6.350   8.232
 1483SOL     OW 6281   3.693  10.037   8.948
 1483SOL    HW1 6282   3.751   9.967   8.917
 1483SOL    HW2 6283   3.712  10.111   8.890
 1484SOL     OW 6284   2.239   6.506  12.065
 1484SOL    HW1 6285   2.176   6.577  12.054
 1484SOL    HW2 6286   2.185   6.426  12.067
 1485SOL     OW 6287   0.475   3.271   1.712
 1485SOL    HW1 6288   0.475   3.364   1.686
 1485SOL    HW2 6289   0.542   3.265   1.779
 1486SOL     OW 6290   0.980  10.939  11.701
 1486SOL    HW1 6291   1.051  10.976  11.649
 1486SOL    HW2 6292   0.984  10.985  11.784
 1487SOL     OW 6293  14.821  11.340  12.862
 1487SOL    HW1 6294  14.808  11.393  12.941
 1487SOL    HW2 6295   0.037  11.325  12.860
 1488SOL     OW 6296   1.441   1.916  10.092
 1488SOL    HW1 6297   1.474   1.909  10.002
 1488SOL    HW2 6298   1.351   1.948  10.082
 1489SOL     OW 6299  13.283  13.259   9.175
 1489SOL    HW1 6300  13.195  13.221   9.182
 1489SOL    HW2 6301  13.341  13.188   9.202
 1490SOL     OW 6302   7.696  12.652  14.407
 1490SOL    HW1 6303   7.626  12.636  14.470
 1490SOL    HW2 6304   7.760  12.582  14.424
 1491SOL     OW 6305  11.928   9.558   5.264
 1491SOL    HW1 6306  11.999   9.621   5.279
 1491SOL    HW2 6307  11.954   9.513   5.183
 1492SOL     OW 6308  12.853   1.285   5.778
 1492SOL    HW1 6309  12.897   1.365   5.808
 1492SOL    HW2 6310  12.920   1.217   5.783
 1493SOL     OW 6311   5.230   4.413   2.480
 1493SOL    HW1 6312   5.160   4.363   2.523
 1493SOL    HW2 6313   5.306   4.354   2.482
 1494SOL     OW 6314  11.929   8.614   7.591
 1494SOL    HW1 6315  12.007   8.668   7.604
 1494SOL    HW2 6316  11.959   8.542   7.536
 1495SOL     OW 6317   8.609   6.719   1.815
 1495SOL    HW1 6318   8.680   6.762   1.861
 1495SOL    HW2 6319   8.568   6.663   1.882
 1496SOL     OW 6320  14.237   7.840   8.031
 1496SOL    HW1 6321  14.149   7.865   8.059
 1496SOL    HW2 6322  14.228   7.822   7.937
 1497SOL     OW 6323   2.829  12.515   3.171
 1497SOL    HW1 6324   2.894  12.490   3.106
 1497SOL    HW2 6325   2.781  12.588   3.130
 1498SOL     OW 6326   1.029  12.348  11.267
 1498SOL    HW1 6327   1.115  12.336  11.308
 1498SOL    HW2 6328   1.046  12.337  11.173
 1499SOL     OW 6329   8.000  14.804   1.291
 1499SOL    HW1 6330   7.921  14.801   1.345
 1499SOL    HW2 6331   7.999  14.721   1.244
 1500SOL     OW 6332   6.117  12.303   0.039
 1500SOL    HW1 6333   6.044  12.316   0.099
 1500SOL    HW2 6334   6.174  12.240   0.083
 1501SOL     OW 6335   6.188   5.427  12.953
 1501SOL    HW1 6336   6.279   5.447  12.930
 1501SOL    HW2 6337   6.147   5.512  12.966
 1502SOL     OW 6338  12.823   3.755   7.493
 1502SOL    HW1 6339  12.843   3.667   7.461
 1502SOL    HW2 6340  12.878   3.765   7.571
 1503SOL     OW 6341   6.348   3.220   1.907
 1503SOL    HW1 6342   6.266   3.170   1.910
 1503SOL    HW2 6343   6.322   3.310   1.931
 1504SOL     OW 6344   4.057  12.621  13.912
 1504SOL    HW1 6345   4.131  12.560  13.916
 1504SOL    HW2 6346   4.038  12.629  13.819
 1505SOL     OW 6347   4.107   8.497   8.666
 1505SOL    HW1 6348   4.128   8.467   8.755
 1505SOL    HW2 6349   4.094   8.591   8.675
 1506SOL     OW 6350  14.179   6.803   2.520
 1506SOL    HW1 6351  14.208   6.723   2.565
 1506SOL    HW2 6352  14.083   6.795   2.517
 1507SOL     OW 6353   5.030  10.365  10.564
 1507SOL    HW1 6354   5.067  10.280  10.585
 1507SOL    HW2 6355   4.971  10.384  10.637
 1508SOL     OW 6356   9.151  10.152   3.641
 1508SOL    HW1 6357   9.148  10.069   3.689
 1508SOL    HW2 6358   9.122  10.130   3.552
 1509SOL     OW 6359   7.469  11.150  12.362
 1509SOL    HW1 6360   7.536  11.165  12.429
 1509SOL    HW2 6361   7.506  11.083  12.305
 1510SOL     OW 6362   6.925  11.739   6.143
 1510SOL    HW1 6363   6.862  11.697   6.084
 1510SOL    HW2 6364   7.005  11.687   6.134
 1511SOL     OW 6365   4.750  12.812   5.146
 1511SOL    HW1 6366   4.804  12.761   5.205
 1511SOL    HW2 6367   4.730  12.892   5.195
 1512SOL     OW 6368   3.777   6.297   5.766
 1512SOL    HW1 6369   3.815   6.332   5.847
 1512SOL    HW2 6370   3.702   6.245   5.796
 1513SOL     OW 6371   9.206   7.417   0.941
 1513SOL    HW1 6372   9.148   7.355   0.986
 1513SOL    HW2 6373   9.287   7.367   0.928
 1514SOL     OW 6374  12.579   3.167   5.409
 1514SOL    HW1 6375  12.611   3.254   5.382
 1514SOL    HW2 6376  12.488   3.164   5.379
 1515SOL     OW 6377  10.250   6.349   0.758
 1515SOL    HW1 6378  10.197   6.347   0.838
 1515SOL    HW2 6379  10.338   6.325   0.787
 1516SOL     OW 6380   2.155   6.485  12.632
 1516SOL    HW1 6381   2.237   6.532  12.648
 1516SOL    HW2 6382   2.087   6.551  12.642
 1517SOL     OW 6383   6.413  10.277  14.170
 1517SOL    HW1 6384   6.476  10.217  14.210
 1517SOL    HW2 6385   6.329  10.233  14.177
 1518SOL     OW 6386   5.499   8.924  10.198
 1518SOL    HW1 6387   5.455   8.846  10.162
 1518SOL    HW2 6388   5.493   8.913  10.293
 1519SOL     OW 6389   8.962  14.115   4.197
 1519SOL    HW1 6390   9.042  14.167   4.203
 1519SOL    HW2 6391   8.891  14.179   4.196
 1520SOL     OW 6392   1.142  14.075   5.074
 1520SOL    HW1 6393   1.207  14.129   5.029
 1520SOL    HW2 6394   1.132  13.998   5.018
 1521SOL     OW 6395   7.434   9.691   2.225
 1521SOL    HW1 6396   7.466   9.600   2.224
 1521SOL    HW2 6397   7.445   9.720   2.134
 1522SOL     OW 6398   9.682  12.537  11.689
 1522SOL    HW1 6399   9.632  12.465  11.651
 1522SOL    HW2 6400   9.755  12.551  11.628
 1523SOL     OW 6401   0.783   1.221   4.680
 1523SOL    HW1 6402   0.791   1.152   4.613
 1523SOL    HW2 6403   0.688   1.234   4.689
 1524SOL     OW 6404   2.898  10.234   5.545
 1524SOL    HW1 6405   2.980  10.281   5.563
 1524SOL    HW2 6406   2.845  10.297   5.497
 1525SOL     OW 6407  14.142   8.658   2.915
 1525SOL    HW1 6408  14.114   8.645   3.006
 1525SOL    HW2 6409  14.070   8.708   2.875
 1526SOL     OW 6410   2.396   3.229   1.974
 1526SOL    HW1 6411   2.336   3.155   1.965
 1526SOL    HW2 6412   2.343   3.306   1.958
 1527SOL     OW 6413   8.537  11.882  13.511
 1527SOL    HW1 6414   8.570  11.967  13.483
 1527SOL    HW2 6415   8.570  11.872  13.601
 1528SOL     OW 6416   9.657  12.193   4.720
 1528SOL    HW1 6417   9.563  12.213   4.719
 1528SOL    HW2 6418   9.661  12.101   4.747
 1529SOL     OW 6419  12.961  11.931   3.591
 1529SOL    HW1 6420  12.898  11.958   3.524
 1529SOL    HW2 6421  12.934  11.979   3.669
 1530SOL     OW 6422  13.410   7.429   2.612
 1530SOL    HW1 6423  13.407   7.443   2.518
 1530SOL    HW2 6424  13.503   7.414   2.631
 1531SOL     OW 6425   9.542  14.397   2.899
 1531SOL    HW1 6426   9.473  14.380   2.835
 1531SOL    HW2 6427   9.541  14.320   2.956
 1532SOL     OW 6428  13.161   9.985   1.755
 1532SOL    HW1 6429  13.134   9.928   1.683
 1532SOL    HW2 6430  13.118   9.948   1.833
 1533SOL     OW 6431   0.871   0.737  10.706
 1533SOL    HW1 6432   0.963   0.764  10.700
 1533SOL    HW2 6433   0.847   0.717  10.615
 1534SOL     OW 6434  14.819   5.175  13.182
 1534SOL    HW1 6435   0.008   5.111  13.205
 1534SOL    HW2 6436  14.762   5.128  13.121
 1535SOL     OW 6437   0.551  11.879   6.964
 1535SOL    HW1 6438   0.463  11.908   6.985
 1535SOL    HW2 6439   0.608  11.934   7.018
 1536SOL     OW 6440  12.198  12.698   7.772
 1536SOL    HW1 6441  12.139  12.640   7.820
 1536SOL    HW2 6442  12.245  12.747   7.840
 1537SOL     OW 6443   7.258  13.312   7.171
 1537SOL    HW1 6444   7.352  13.319   7.153
 1537SOL    HW2 6445   7.217  13.373   7.110
 1538SOL     OW 6446  13.557   9.133   6.040
 1538SOL    HW1 6447  13.611   9.121   5.961
 1538SOL    HW2 6448  13.548   9.228   6.048
 1539SOL     OW 6449   9.987  14.028   7.923
 1539SOL    HW1 6450  10.071  13.999   7.959
 1539SOL    HW2 6451   9.934  13.949   7.921
 1540SOL     OW 6452   9.775   1.047  10.870
 1540SOL    HW1 6453   9.725   1.040  10.788
 1540SOL    HW2 6454   9.820   0.963  10.878
 1541SOL     OW 6455  12.797   2.116  10.797
 1541SOL    HW1 6456  12.884   2.125  10.758
 1541SOL    HW2 6457  12.774   2.205  10.823
 1542SOL     OW 6458   5.460   6.269   9.584
 1542SOL    HW1 6459   5.498   6.256   9.497
 1542SOL    HW2 6460   5.530   6.248   9.645
 1543SOL     OW 6461   7.554  11.638  13.769
 1543SOL    HW1 6462   7.615  11.699  13.728
 1543SOL    HW2 6463   7.491  11.693  13.815
 1544SOL     OW 6464   0.902   2.572   1.826
 1544SOL    HW1 6465   0.880   2.596   1.736
 1544SOL    HW2 6466   0.824   2.530   1.860
 1545SOL     OW 6467   6.673  10.107  13.940
 1545SOL    HW1 6468   6.613  10.040  13.972
 1545SOL    HW2 6469   6.751  10.058  13.913
 1546SOL     OW 6470   0.221  10.384   4.591
 1546SOL    HW1 6471   0.162  10.350   4.658
 1546SOL    HW2 6472   0.307  10.384   4.632
 1547SOL     OW 6473   2.744  12.791   5.597
 1547SOL    HW1 6474   2.691  12.843   5.659
 1547SOL    HW2 6475   2.748  12.704   5.637
 1548SOL     OW 6476  11.018  10.667   6.416
 1548SOL    HW1 6477  11.053  10.755   6.425
 1548SOL    HW2 6478  10.995  10.659   6.324
 1549SOL     OW 6479   7.394   7.862  13.316
 1549SOL    HW1 6480   7.407   7.812  13.396
 1549SOL    HW2 6481   7.434   7.947  13.334
 1550SOL     OW 6482   9.101   1.289  14.383
 1550SOL    HW1 6483   9.177   1.335  14.420
 1550SOL    HW2 6484   9.062   1.352  14.322
 1551SOL     OW 6485   1.087   4.346   7.274
 1551SOL    HW1 6486   1.042   4.282   7.219
 1551SOL    HW2 6487   1.167   4.301   7.303
 1552SOL     OW 6488   0.878  10.340  14.128
 1552SOL    HW1 6489   0.868  10.326  14.222
 1552SOL    HW2 6490   0.901  10.254  14.093
 1553SOL     OW 6491   0.615  12.306  10.291
 1553SOL    HW1 6492   0.628  12.338  10.201
 1553SOL    HW2 6493   0.700  12.272  10.317
 1554SOL     OW 6494   7.164   3.018   3.307
 1554SOL    HW1 6495   7.209   2.991   3.227
 1554SOL    HW2 6496   7.188   3.110   3.317
 1555SOL     OW 6497  12.805   2.630   1.214
 1555SOL    HW1 6498  12.862   2.571   1.264
 1555SOL    HW2 6499  12.726   2.578   1.197
 1556SOL     OW 6500  12.854  14.720   3.431
 1556SOL    HW1 6501  12.791  14.792   3.441
 1556SOL    HW2 6502  12.933  14.752   3.474
 1557SOL     OW 6503  11.174   7.212   2.313
 1557SOL    HW1 6504  11.152   7.189   2.403
 1557SOL    HW2 6505  11.217   7.133   2.278
 1558SOL     OW 6506  12.156  13.563   3.804
 1558SOL    HW1 6507  12.075  13.516   3.785
 1558SOL    HW2 6508  12.165  13.625   3.732
 1559SOL     OW 6509  11.755  11.936  11.947
 1559SOL    HW1 6510  11.829  11.877  11.931
 1559SOL    HW2 6511  11.778  11.982  12.027
 1560SOL     OW 6512   4.756   6.345  14.045
 1560SOL    HW1 6513   4.840   6.315  14.079
 1560SOL    HW2 6514   4.756   6.319  13.953
 1561SOL     OW 6515   4.541  11.475   8.612
 1561SOL    HW1 6516   4.482  11.432   8.551
 1561SOL    HW2 6517   4.604  11.407   8.636
 1562SOL     OW 6518   4.728  10.812   4.237
 1562SOL    HW1 6519   4.672  10.743   4.200
 1562SOL    HW2 6520   4.674  10.891   4.232
 1563SOL     OW 6521  11.747   6.924  14.689
 1563SOL    HW1 6522  11.707   7.011  14.693
 1563SOL    HW2 6523  11.787   6.920  14.602
 1564SOL     OW 6524   8.311  10.992   3.773
 1564SOL    HW1 6525   8.325  10.939   3.851
 1564SOL    HW2 6526   8.349  11.077   3.794
 1565SOL     OW 6527   8.273   2.283   1.675
 1565SOL    HW1 6528   8.245   2.341   1.746
 1565SOL    HW2 6529   8.192   2.251   1.637
 1566SOL     OW 6530  12.060   1.502   7.626
 1566SOL    HW1 6531  12.020   1.554   7.555
 1566SOL    HW2 6532  12.039   1.412   7.604
 1567SOL     OW 6533   5.639   8.023   1.509
 1567SOL    HW1 6534   5.561   7.997   1.458
 1567SOL    HW2 6535   5.633   7.972   1.590
 1568SOL     OW 6536   2.546   6.848   9.620
 1568SOL    HW1 6537   2.497   6.768   9.603
 1568SOL    HW2 6538   2.594   6.830   9.701
 1569SOL     OW 6539   1.072  13.262   6.337
 1569SOL    HW1 6540   1.070  13.335   6.276
 1569SOL    HW2 6541   1.159  13.266   6.377
 1570SOL     OW 6542  12.209   3.159  12.034
 1570SOL    HW1 6543  12.135   3.122  11.985
 1570SOL    HW2 6544  12.169   3.224  12.091
 1571SOL     OW 6545   3.428  11.017  12.525
 1571SOL    HW1 6546   3.366  11.022  12.452
 1571SOL    HW2 6547   3.511  11.045  12.487
 1572SOL     OW 6548   1.208   6.881   4.087
 1572SOL    HW1 6549   1.186   6.789   4.080
 1572SOL    HW2 6550   1.154   6.924   4.020
 1573SOL     OW 6551  11.293   5.487   8.954
 1573SOL    HW1 6552  11.252   5.573   8.941
 1573SOL    HW2 6553  11.348   5.475   8.876
 1574SOL     OW 6554   0.722   6.937  12.857
 1574SOL    HW1 6555   0.777   7.001  12.812
 1574SOL    HW2 6556   0.638   6.981  12.869
 1575SOL     OW 6557   8.412   0.080   1.047
 1575SOL    HW1 6558   8.478   0.044   1.107
 1575SOL    HW2 6559   8.343   0.114   1.105
 1576SOL     OW 6560   7.202  11.417   5.183
 1576SOL    HW1 6561   7.147  11.375   5.249
 1576SOL    HW2 6562   7.258  11.347   5.150
 1577SOL     OW 6563  10.693   7.739  14.640
 1577SOL    HW1 6564  10.657   7.808  14.585
 1577SOL    HW2 6565  10.700   7.663  14.582
 1578SOL     OW 6566   8.240  12.797   9.925
 1578SOL    HW1 6567   8.288  12.746   9.990
 1578SOL    HW2 6568   8.295  12.873   9.908
 1579SOL     OW 6569   5.601   2.303   1.334
 1579SOL    HW1 6570   5.627   2.310   1.243
 1579SOL    HW2 6571   5.568   2.390   1.357
 1580SOL     OW 6572   0.992   0.725  14.648
 1580SOL    HW1 6573   0.923   0.733  14.713
 1580SOL    HW2 6574   1.063   0.781  14.680
 1581SOL     OW 6575   1.034   6.157   6.079
 1581SOL    HW1 6576   0.993   6.073   6.056
 1581SOL    HW2 6577   1.004   6.218   6.013
 1582SOL     OW 6578   1.854  10.236   8.183
 1582SOL    HW1 6579   1.934  10.282   8.158
 1582SOL    HW2 6580   1.827  10.189   8.104
 1583SOL     OW 6581   2.631   6.889  11.920
 1583SOL    HW1 6582   2.714   6.863  11.961
 1583SOL    HW2 6583   2.563   6.857  11.979
 1584SOL     OW 6584   1.418  13.501  10.522
 1584SOL    HW1 6585   1.493  13.449  10.552
 1584SOL    HW2 6586   1.405  13.475  10.431
 1585SOL     OW 6587   6.264   8.006   9.360
 1585SOL    HW1 6588   6.261   7.926   9.412
 1585SOL    HW2 6589   6.186   8.055   9.388
 1586SOL     OW 6590  14.545  14.285  14.502
 1586SOL    HW1 6591  14.573  14.208  14.551
 1586SOL    HW2 6592  14.528  14.351  14.569
 1587SOL     OW 6593   8.611   3.464   0.270
 1587SOL    HW1 6594   8.589   3.557   0.267
 1587SOL    HW2 6595   8.527   3.419   0.271
 1588SOL     OW 6596   3.796   7.128  10.741
 1588SOL    HW1 6597   3.815   7.176  10.821
 1588SOL    HW2 6598   3.820   7.188  10.671
 1589SOL     OW 6599   7.218  12.206   3.322
 1589SOL    HW1 6600   7.302  12.208   3.276
 1589SOL    HW2 6601   7.157  12.164   3.261
 1590SOL     OW 6602  14.723   3.667  12.067
 1590SOL    HW1 6603  14.638   3.706  12.051
 1590SOL    HW2 6604  14.785   3.739  12.055
 1591SOL     OW 6605   3.515  11.128  14.793
 1591SOL    HW1 6606   3.590  11.187  14.782
 1591SOL    HW2 6607   3.438  11.183  14.784
 1592SOL     OW 6608  11.885  12.210   7.354
 1592SOL    HW1 6609  11.840  12.215   7.270
 1592SOL    HW2 6610  11.927  12.295   7.365
 1593SOL     OW 6611  13.525   8.389   2.207
 1593SOL    HW1 6612  13.543   8.355   2.119
 1593SOL    HW2 6613  13.597   8.354   2.260
 1594SOL     OW 6614   6.807   9.475  13.731
 1594SOL    HW1 6615   6.839   9.394  13.771
 1594SOL    HW2 6616   6.800   9.454  13.637
 1595SOL     OW 6617   8.451  12.214   4.770
 1595SOL    HW1 6618   8.487  12.130   4.796
 1595SOL    HW2 6619   8.519  12.254   4.716
 1596SOL     OW 6620  14.456   8.471  11.595
 1596SOL    HW1 6621  14.540   8.482  11.550
 1596SOL    HW2 6622  14.390   8.495  11.531
 1597SOL     OW 6623   6.602   3.793   2.280
 1597SOL    HW1 6624   6.575   3.720   2.226
 1597SOL    HW2 6625   6.629   3.753   2.363
 1598SOL     OW 6626   7.827   8.264   7.715
 1598SOL    HW1 6627   7.798   8.191   7.662
 1598SOL    HW2 6628   7.914   8.239   7.745
 1599SOL     OW 6629   6.775  12.179   8.810
 1599SOL    HW1 6630   6.814  12.258   8.773
 1599SOL    HW2 6631   6.813  12.108   8.758
 1600SOL     OW 6632  12.571   5.946   9.786
 1600SOL    HW1 6633  12.502   5.903   9.837
 1600SOL    HW2 6634  12.526   5.988   9.714
 1601SOL     OW 6635  12.323  13.077  11.901
 1601SOL    HW1 6636  12.286  13.014  11.963
 1601SOL    HW2 6637  12.345  13.153  11.954
 1602SOL     OW 6638  10.087  10.454  10.777
 1602SOL    HW1 6639  10.080  10.360  10.767
 1602SOL    HW2 6640  10.004  10.489  10.745
 1603SOL     OW 6641   0.945  14.060   7.942
 1603SOL    HW1 6642   0.862  14.056   7.894
 1603SOL    HW2 6643   0.925  14.021   8.027
 1604SOL     OW 6644   0.691   7.084   6.572
 1604SOL    HW1 6645   0.723   7.039   6.651
 1604SOL    HW2 6646   0.638   7.156   6.606
 1605SOL     OW 6647  13.050  13.127  12.912
 1605SOL    HW1 6648  13.053  13.057  12.846
 1605SOL    HW2 6649  13.140  13.133  12.943
 1606SOL     OW 6650  10.287   8.183   3.897
 1606SOL    HW1 6651  10.236   8.257   3.862
 1606SOL    HW2 6652  10.359   8.172   3.835
 1607SOL     OW 6653   2.964   6.056  12.020
 1607SOL    HW1 6654   3.041   6.107  12.044
 1607SOL    HW2 6655   2.949   6.077  11.928
 1608SOL     OW 6656   6.761   1.024  10.192
 1608SOL    HW1 6657   6.735   1.097  10.136
 1608SOL    HW2 6658   6.857   1.021  10.185
 1609SOL     OW 6659   9.402  14.202  12.324
 1609SOL    HW1 6660   9.363  14.223  12.409
 1609SOL    HW2 6661   9.397  14.107  12.318
 1610SOL     OW 6662  13.603   6.615   5.724
 1610SOL    HW1 6663  13.686   6.629   5.769
 1610SOL    HW2 6664  13.558   6.699   5.728
 1611SOL     OW 6665   0.212   1.122   9.304
 1611SOL    HW1 6666   0.172   1.069   9.234
 1611SOL    HW2 6667   0.139   1.175   9.337
 1612SOL     OW 6668   6.914  10.077   2.104
 1612SOL    HW1 6669   6.826  10.116   2.103
 1612SOL    HW2 6670   6.934  10.065   2.197
 1613SOL     OW 6671   6.185  10.309  13.441
 1613SOL    HW1 6672   6.256  10.248  13.459
 1613SOL    HW2 6673   6.108  10.253  13.429
 1614SOL     OW 6674   5.015   5.169   3.518
 1614SOL    HW1 6675   5.035   5.110   3.590
 1614SOL    HW2 6676   4.921   5.157   3.502
 1615SOL     OW 6677  12.826   0.665   9.746
 1615SOL    HW1 6678  12.914   0.675   9.711
 1615SOL    HW2 6679  12.839   0.639   9.838
 1616SOL     OW 6680  12.712   2.367   4.925
 1616SOL    HW1 6681  12.654   2.294   4.903
 1616SOL    HW2 6682  12.798   2.328   4.938
 1617SOL     OW 6683  11.424  10.575   4.778
 1617SOL    HW1 6684  11.357  10.633   4.814
 1617SOL    HW2 6685  11.484  10.634   4.731
 1618SOL     OW 6686  10.089  10.670  10.994
 1618SOL    HW1 6687  10.089  10.575  11.009
 1618SOL    HW2 6688  10.182  10.694  10.997
 1619SOL     OW 6689  11.295  11.848  13.723
 1619SOL    HW1 6690  11.251  11.852  13.638
 1619SOL    HW2 6691  11.292  11.937  13.756
 1620SOL     OW 6692   5.537   9.955   1.791
 1620SOL    HW1 6693   5.493   9.942   1.707
 1620SOL    HW2 6694   5.468   9.981   1.852
 1621SOL     OW 6695   7.177   7.839   1.703
 1621SOL    HW1 6696   7.194   7.753   1.664
 1621SOL    HW2 6697   7.232   7.841   1.781
 1622SOL     OW 6698  11.749   5.127   5.228
 1622SOL    HW1 6699  11.728   5.164   5.314
 1622SOL    HW2 6700  11.814   5.059   5.246
 1623SOL     OW 6701  12.188   5.833  10.445
 1623SOL    HW1 6702  12.134   5.847  10.522
 1623SOL    HW2 6703  12.240   5.913  10.436
 1624SOL     OW 6704  12.071   7.936   1.796
 1624SOL    HW1 6705  12.076   7.844   1.771
 1624SOL    HW2 6706  12.159   7.970   1.779
 1625SOL     OW 6707   6.870   9.529   7.058
 1625SOL    HW1 6708   6.959   9.538   7.092
 1625SOL    HW2 6709   6.837   9.449   7.099
 1626SOL     OW 6710  10.319   7.353   3.639
 1626SOL    HW1 6711  10.266   7.366   3.561
 1626SOL    HW2 6712  10.359   7.438   3.656
 1627SOL     OW 6713   6.109   2.926  11.664
 1627SOL    HW1 6714   6.059   2.948  11.586
 1627SOL    HW2 6715   6.070   2.845  11.696
 1628SOL     OW 6716   6.880   0.453  10.187
 1628SOL    HW1 6717   6.953   0.393  10.168
 1628SOL    HW2 6718   6.835   0.413  10.261
 1629SOL     OW 6719  13.856  10.586   8.531
 1629SOL    HW1 6720  13.762  10.570   8.543
 1629SOL    HW2 6721  13.867  10.593   8.437
 1630SOL     OW 6722   1.513   6.913   2.815
 1630SOL    HW1 6723   1.559   6.986   2.856
 1630SOL    HW2 6724   1.424   6.945   2.802
 1631SOL     OW 6725   2.982   5.630  14.383
 1631SOL    HW1 6726   2.974   5.687  14.306
 1631SOL    HW2 6727   2.900   5.580  14.384
 1632SOL     OW 6728  11.624  10.966  14.284
 1632SOL    HW1 6729  11.581  11.001  14.206
 1632SOL    HW2 6730  11.653  10.879  14.258
 1633SOL     OW 6731  12.555   0.914   4.236
 1633SOL    HW1 6732  12.636   0.915   4.287
 1633SOL    HW2 6733  12.561   0.992   4.180
 1634SOL     OW 6734   8.638   0.540  14.359
 1634SOL    HW1 6735   8.573   0.515  14.293
 1634SOL    HW2 6736   8.719   0.553  14.310
 1635SOL     OW 6737   2.344   1.143  12.320
 1635SOL    HW1 6738   2.302   1.177  12.241
 1635SOL    HW2 6739   2.272   1.110  12.373
 1636SOL     OW 6740   3.307   5.636   1.213
 1636SOL    HW1 6741   3.288   5.586   1.134
 1636SOL    HW2 6742   3.282   5.726   1.192
 1637SOL     OW 6743   8.578  13.671   2.575
 1637SOL    HW1 6744   8.622  13.739   2.626
 1637SOL    HW2 6745   8.520  13.718   2.515
 1638SOL     OW 6746   6.997   2.073   1.088
 1638SOL    HW1 6747   6.904   2.075   1.065
 1638SOL    HW2 6748   7.011   2.154   1.136
 1639SOL     OW 6749   6.395   2.319   3.644
 1639SOL    HW1 6750   6.405   2.381   3.717
 1639SOL    HW2 6751   6.375   2.236   3.686
 1640SOL     OW 6752  11.019   2.445   2.949
 1640SOL    HW1 6753  11.045   2.380   2.884
 1640SOL    HW2 6754  10.966   2.509   2.901
 1641SOL     OW 6755   4.090   1.154  12.584
 1641SOL    HW1 6756   4.169   1.131  12.534
 1641SOL    HW2 6757   4.018   1.138  12.523
 1642SOL     OW 6758   3.743  10.749   7.790
 1642SOL    HW1 6759   3.749  10.785   7.879
 1642SOL    HW2 6760   3.664  10.787   7.753
 1643SOL     OW 6761  12.089   4.225   8.684
 1643SOL    HW1 6762  12.000   4.257   8.698
 1643SOL    HW2 6763  12.144   4.282   8.737
 1644SOL     OW 6764   4.973  11.175  14.864
 1644SOL    HW1 6765   4.969  11.089   0.026
 1644SOL    HW2 6766   4.890  11.182  14.816
 1645SOL     OW 6767   6.093   1.003   0.456
 1645SOL    HW1 6768   6.047   0.920   0.471
 1645SOL    HW2 6769   6.087   1.049   0.540
 1646SOL     OW 6770   5.168   4.763   5.556
 1646SOL    HW1 6771   5.184   4.693   5.492
 1646SOL    HW2 6772   5.228   4.833   5.530
 1647SOL     OW 6773   6.777   0.178  10.246
 1647SOL    HW1 6774   6.838   0.206  10.178
 1647SOL    HW2 6775   6.827   0.117  10.300
 1648SOL     OW 6776   0.311   8.230   2.810
 1648SOL    HW1 6777   0.253   8.244   2.885
 1648SOL    HW2 6778   0.280   8.293   2.744
 1649SOL     OW 6779   4.858   5.028   6.343
 1649SOL    HW1 6780   4.896   4.972   6.276
 1649SOL    HW2 6781   4.896   5.115   6.326
 1650SOL     OW 6782   3.677   3.482   4.255
 1650SOL    HW1 6783   3.622   3.481   4.334
 1650SOL    HW2 6784   3.744   3.547   4.274
 1651SOL     OW 6785   9.745   0.214  10.346
 1651SOL    HW1 6786   9.732   0.165  10.265
 1651SOL    HW2 6787   9.779   0.299  10.318
 1652SOL     OW 6788   4.598   0.662   1.677
 1652SOL    HW1 6789   4.644   0.727   1.624
 1652SOL    HW2 6790   4.657   0.586   1.679
 1653SOL     OW 6791  10.318   9.384   6.541
 1653SOL    HW1 6792  10.288   9.458   6.489
 1653SOL    HW2 6793  10.369   9.331   6.479
 1654SOL     OW 6794  11.401  10.133  14.592
 1654SOL    HW1 6795  11.418  10.228  14.593
 1654SOL    HW2 6796  11.320  10.124  14.543
 1655SOL     OW 6797  13.043   3.951   7.626
 1655SOL    HW1 6798  13.100   3.921   7.697
 1655SOL    HW2 6799  13.074   3.904   7.549
 1656SOL     OW 6800  10.523   9.806   0.369
 1656SOL    HW1 6801  10.572   9.863   0.428
 1656SOL    HW2 6802  10.449   9.775   0.422
 1657SOL     OW 6803   2.930   0.151   4.977
 1657SOL    HW1 6804   2.889   0.065   4.968
 1657SOL    HW2 6805   2.936   0.184   4.888
 1658SOL     OW 6806  12.492   3.662  10.705
 1658SOL    HW1 6807  12.490   3.692  10.614
 1658SOL    HW2 6808  12.538   3.578  10.702
 1659SOL     OW 6809   5.694   0.767   0.601
 1659SOL    HW1 6810   5.730   0.687   0.561
 1659SOL    HW2 6811   5.766   0.830   0.599
 1660SOL     OW 6812  11.875  13.311  12.566
 1660SOL    HW1 6813  11.927  13.314  12.486
 1660SOL    HW2 6814  11.932  13.271  12.631
 1661SOL     OW 6815  12.789   9.293  11.579
 1661SOL    HW1 6816  12.746   9.224  11.629
 1661SOL    HW2 6817  12.717   9.348  11.548
 1662SOL     OW 6818  11.783  10.529  14.212
 1662SOL    HW1 6819  11.727  10.454  14.233
 1662SOL    HW2 6820  11.738  10.572  14.139
 1663SOL     OW 6821   8.820  14.005  13.065
 1663SOL    HW1 6822   8.767  14.067  13.015
 1663SOL    HW2 6823   8.773  13.922  13.059
 1664SOL     OW 6824   4.995   3.278   3.714
 1664SOL    HW1 6825   5.076   3.265   3.665
 1664SOL    HW2 6826   4.939   3.206   3.688
 1665SOL     OW 6827   3.629   8.869   9.871
 1665SOL    HW1 6828   3.549   8.817   9.883
 1665SOL    HW2 6829   3.629   8.930   9.945
 1666SOL     OW 6830  13.204   9.036   1.566
 1666SOL    HW1 6831  13.190   9.075   1.652
 1666SOL    HW2 6832  13.279   8.978   1.578
 1667SOL     OW 6833  12.373   7.398  10.267
 1667SOL    HW1 6834  12.466   7.376  10.273
 1667SOL    HW2 6835  12.365   7.481  10.313
 1668SOL     OW 6836  11.915   4.152  12.075
 1668SOL    HW1 6837  11.943   4.231  12.028
 1668SOL    HW2 6838  11.832   4.128  12.034
 1669SOL     OW 6839  13.657  11.411   1.047
 1669SOL    HW1 6840  13.598  11.481   1.019
 1669SOL    HW2 6841  13.698  11.445   1.126
 1670SOL     OW 6842   0.310   8.227  13.565
 1670SOL    HW1 6843   0.368   8.169  13.515
 1670SOL    HW2 6844   0.308   8.308  13.515
 1671SOL     OW 6845   4.629   2.902  13.953
 1671SOL    HW1 6846   4.657   2.988  13.923
 1671SOL    HW2 6847   4.711   2.853  13.966
 1672SOL     OW 6848   5.572  12.672   8.078
 1672SOL    HW1 6849   5.583  12.758   8.038
 1672SOL    HW2 6850   5.491  12.678   8.128
 1673SOL     OW 6851   4.791  11.187  10.004
 1673SOL    HW1 6852   4.831  11.235  10.077
 1673SOL    HW2 6853   4.839  11.217   9.927
 1674SOL     OW 6854  10.207   6.123   0.065
 1674SOL    HW1 6855  10.250   6.077   0.137
 1674SOL    HW2 6856  10.113   6.111   0.082
 1675SOL     OW 6857  12.037   9.574  13.884
 1675SOL    HW1 6858  12.062   9.664  13.864
 1675SOL    HW2 6859  12.063   9.524  13.807
 1676SOL     OW 6860   8.525   6.656   9.574
 1676SOL    HW1 6861   8.609   6.640   9.616
 1676SOL    HW2 6862   8.503   6.573   9.532
 1677SOL     OW 6863   5.191   0.455   0.099
 1677SOL    HW1 6864   5.148   0.370   0.094
 1677SOL    HW2 6865   5.137   0.513   0.045
 1678SOL     OW 6866  13.261   8.246   8.647
 1678SOL    HW1 6867  13.233   8.155   8.648
 1678SOL    HW2 6868  13.296   8.259   8.558
 1679SOL     OW 6869   8.543   9.865  14.070
 1679SOL    HW1 6870   8.492   9.784  14.069
 1679SOL    HW2 6871   8.484   9.931  14.034
 1680SOL     OW 6872   1.420   6.376   8.793
 1680SOL    HW1 6873   1.445   6.433   8.720
 1680SOL    HW2 6874   1.382   6.298   8.751
 1681SOL     OW 6875  11.830   1.199   1.506
 1681SOL    HW1 6876  11.778   1.273   1.536
 1681SOL    HW2 6877  11.813   1.193   1.412
 1682SOL     OW 6878   1.442   4.796   7.282
 1682SOL    HW1 6879   1.471   4.727   7.342
 1682SOL    HW2 6880   1.346   4.795   7.288
 1683SOL     OW 6881  10.129   9.836   3.494
 1683SOL    HW1 6882  10.156   9.872   3.579
 1683SOL    HW2 6883  10.034   9.839   3.495
 1684SOL     OW 6884  11.543  12.763   7.904
 1684SOL    HW1 6885  11.514  12.685   7.858
 1684SOL    HW2 6886  11.462  12.807   7.931
 1685SOL     OW 6887   5.848  11.964   3.147
 1685SOL    HW1 6888   5.811  12.042   3.107
 1685SOL    HW2 6889   5.798  11.891   3.109
 1686SOL     OW 6890   6.452   7.265  12.059
 1686SOL    HW1 6891   6.499   7.183  12.075
 1686SOL    HW2 6892   6.503   7.308  11.990
 1687SOL     OW 6893  11.740   9.726   9.631
 1687SOL    HW1 6894  11.764   9.803   9.579
 1687SOL    HW2 6895  11.777   9.652   9.583
 1688SOL     OW 6896  10.152  10.654   3.050
 1688SOL    HW1 6897  10.061  10.624   3.057
 1688SOL    HW2 6898  10.158  10.726   3.112
 1689SOL     OW 6899   0.588   3.920   1.752
 1689SOL    HW1 6900   0.559   4.004   1.717
 1689SOL    HW2 6901   0.507   3.877   1.781
 1690SOL     OW 6902   7.145  10.545   8.301
 1690SOL    HW1 6903   7.191  10.615   8.347
 1690SOL    HW2 6904   7.188  10.464   8.331
 1691SOL     OW 6905   6.357  11.626  14.173
 1691SOL    HW1 6906   6.394  11.708  14.204
 1691SOL    HW2 6907   6.266  11.628  14.203
 1692SOL     OW 6908   6.097   1.469   4.046
 1692SOL    HW1 6909   6.040   1.436   3.977
 1692SOL    HW2 6910   6.077   1.562   4.052
 1693SOL     OW 6911   4.275  12.037   7.062
 1693SOL    HW1 6912   4.236  12.113   7.105
 1693SOL    HW2 6913   4.203  11.974   7.054
 1694SOL     OW 6914   6.696   7.894   8.320
 1694SOL    HW1 6915   6.691   7.989   8.309
 1694SOL    HW2 6916   6.712   7.860   8.232
 1695SOL     OW 6917   3.851   2.432  14.302
 1695SOL    HW1 6918   3.915   2.501  14.285
 1695SOL    HW2 6919   3.821   2.449  14.391
 1696SOL     OW 6920   2.364   6.062   9.218
 1696SOL    HW1 6921   2.313   6.117   9.157
 1696SOL    HW2 6922   2.454   6.092   9.206
 1697SOL     OW 6923   3.300   0.661   1.069
 1697SOL    HW1 6924   3.315   0.745   1.113
 1697SOL    HW2 6925   3.351   0.667   0.988
 1698SOL     OW 6926  10.276   3.132  12.995
 1698SOL    HW1 6927  10.214   3.060  13.009
 1698SOL    HW2 6928  10.354   3.090  12.959
 1699SOL     OW 6929   3.641   3.302   1.232
 1699SOL    HW1 6930   3.612   3.211   1.236
 1699SOL    HW2 6931   3.660   3.317   1.139
 1700SOL     OW 6932  13.526   0.436  13.432
 1700SOL    HW1 6933  13.463   0.482  13.375
 1700SOL    HW2 6934  13.515   0.477  13.518
 1701SOL     OW 6935  10.441   0.349   6.785
 1701SOL    HW1 6936  10.511   0.388   6.838
 1701SOL    HW2 6937  10.471   0.259   6.768
 1702SOL     OW 6938   8.099   7.800   3.924
 1702SOL    HW1 6939   8.146   7.771   4.002
 1702SOL    HW2 6940   8.032   7.733   3.910
 1703SOL     OW 6941  11.841   2.133  10.817
 1703SOL    HW1 6942  11.881   2.113  10.902
 1703SOL    HW2 6943  11.910   2.175  10.766
 1704SOL     OW 6944   4.913   8.574   3.977
 1704SOL    HW1 6945   4.928   8.668   3.962
 1704SOL    HW2 6946   4.959   8.531   3.905
 1705SOL     OW 6947  12.190   4.082   0.864
 1705SOL    HW1 6948  12.226   4.165   0.833
 1705SOL    HW2 6949  12.163   4.036   0.785
 1706SOL     OW 6950  13.896   4.214   5.421
 1706SOL    HW1 6951  13.950   4.254   5.353
 1706SOL    HW2 6952  13.860   4.287   5.470
 1707SOL     OW 6953   3.770  13.872   3.788
 1707SOL    HW1 6954   3.717  13.802   3.825
 1707SOL    HW2 6955   3.797  13.839   3.702
 1708SOL     OW 6956  12.150   9.928   9.364
 1708SOL    HW1 6957  12.059   9.937   9.337
 1708SOL    HW2 6958  12.145   9.903   9.456
 1709SOL     OW 6959   0.898   3.208   1.127
 1709SOL    HW1 6960   0.976   3.155   1.145
 1709SOL    HW2 6961   0.885   3.199   1.033
 1710SOL     OW 6962   8.954  10.071  14.265
 1710SOL    HW1 6963   8.898  10.129  14.316
 1710SOL    HW2 6964   8.938  10.096  14.174
 1711SOL     OW 6965   3.608   1.625   9.374
 1711SOL    HW1 6966   3.603   1.715   9.406
 1711SOL    HW2 6967   3.527   1.611   9.326
 1712SOL     OW 6968  10.139  13.448  10.964
 1712SOL    HW1 6969  10.199  13.448  10.889
 1712SOL    HW2 6970  10.058  13.485  10.929
 1713SOL     OW 6971  10.290   7.305   0.810
 1713SOL    HW1 6972  10.348   7.351   0.749
 1713SOL    HW2 6973  10.305   7.212   0.793
 1714SOL     OW 6974   6.405   9.547   8.404
 1714SOL    HW1 6975   6.479   9.607   8.411
 1714SOL    HW2 6976   6.328   9.604   8.414
 1715SOL     OW 6977   4.768  14.403   3.660
 1715SOL    HW1 6978   4.828  14.365   3.595
 1715SOL    HW2 6979   4.824  14.459   3.714
 1716SOL     OW 6980  11.837  10.520   3.687
 1716SOL    HW1 6981  11.879  10.602   3.665
 1716SOL    HW2 6982  11.761  10.514   3.629
 1717SOL     OW 6983  10.619  14.338  11.072
 1717SOL    HW1 6984  10.696  14.377  11.031
 1717SOL    HW2 6985  10.557  14.325  11.000
 1718SOL     OW 6986   5.279   6.358   7.129
 1718SOL    HW1 6987   5.189   6.329   7.113
 1718SOL    HW2 6988   5.301   6.321   7.214
 1719SOL     OW 6989  13.358   5.470   9.772
 1719SOL    HW1 6990  13.269   5.491   9.742
 1719SOL    HW2 6991  13.346   5.398   9.834
 1720SOL     OW 6992   0.950   9.150   6.599
 1720SOL    HW1 6993   0.997   9.079   6.554
 1720SOL    HW2 6994   1.000   9.166   6.679
 1721SOL     OW 6995  13.480   5.068  12.972
 1721SOL    HW1 6996  13.416   5.035  12.909
 1721SOL    HW2 6997  13.558   5.015  12.957
 1722SOL     OW 6998   2.400   6.151   9.703
 1722SOL    HW1 6999   2.321   6.122   9.750
 1722SOL    HW2 7000   2.472   6.106   9.747
 1723SOL     OW 7001   9.083   7.189   7.166
 1723SOL    HW1 7002   9.110   7.226   7.251
 1723SOL    HW2 7003   9.029   7.258   7.127
 1724SOL     OW 7004   1.062   6.050   4.734
 1724SOL    HW1 7005   1.026   5.982   4.677
 1724SOL    HW2 7006   1.055   6.130   4.682
 1725SOL     OW 7007   1.702   3.671   8.903
 1725SOL    HW1 7008   1.778   3.656   8.847
 1725SOL    HW2 7009   1.729   3.739   8.964
 1726SOL     OW 7010   0.087   2.369   1.702
 1726SOL    HW1 7011   0.044   2.420   1.770
 1726SOL    HW2 7012   0.075   2.421   1.622
 1727SOL     OW 7013   6.714   0.609   4.053
 1727SOL    HW1 7014   6.670   0.659   3.985
 1727SOL    HW2 7015   6.781   0.668   4.088
 1728SOL     OW 7016   1.605   4.064   6.085
 1728SOL    HW1 7017   1.652   4.147   6.097
 1728SOL    HW2 7018   1.668   3.997   6.110
 1729SOL     OW 7019   5.677  11.106   9.223
 1729SOL    HW1 7020   5.645  11.126   9.135
 1729SOL    HW2 7021   5.699  11.013   9.220
 1730SOL     OW 7022  14.028  12.368   3.844
 1730SOL    HW1 7023  14.000  12.414   3.923
 1730SOL    HW2 7024  13.953  12.313   3.820
 1731SOL     OW 7025   4.582   7.189  10.548
 1731SOL    HW1 7026   4.621   7.276  10.552
 1731SOL    HW2 7027   4.558   7.177  10.456
 1732SOL     OW 7028   3.385   8.747   1.971
 1732SOL    HW1 7029   3.392   8.728   1.878
 1732SOL    HW2 7030   3.456   8.809   1.989
 1733SOL     OW 7031   0.664   2.895   0.308
 1733SOL    HW1 7032   0.692   2.986   0.318
 1733SOL    HW2 7033   0.742   2.849   0.276
 1734SOL     OW 7034   2.147   4.148   6.307
 1734SOL    HW1 7035   2.067   4.196   6.327
 1734SOL    HW2 7036   2.207   4.171   6.378
 1735SOL     OW 7037  12.505   7.348   7.163
 1735SOL    HW1 7038  12.504   7.318   7.254
 1735SOL    HW2 7039  12.429   7.307   7.123
 1736SOL     OW 7040   8.282  12.449   6.417
 1736SOL    HW1 7041   8.223  12.386   6.459
 1736SOL    HW2 7042   8.359  12.450   6.473
 1737SOL     OW 7043   1.375   0.081   0.282
 1737SOL    HW1 7044   1.416  14.874   0.291
 1737SOL    HW2 7045   1.296   0.065   0.230
 1738SOL     OW 7046   2.793   4.331   5.331
 1738SOL    HW1 7047   2.780   4.310   5.423
 1738SOL    HW2 7048   2.714   4.379   5.306
 1739SOL     OW 7049   3.318  11.272  12.577
 1739SOL    HW1 7050   3.326  11.179  12.557
 1739SOL    HW2 7051   3.228  11.294  12.555
 1740SOL     OW 7052   8.677   9.966   2.902
 1740SOL    HW1 7053   8.606  10.028   2.884
 1740SOL    HW2 7054   8.732   9.969   2.824
 1741SOL     OW 7055   0.794   3.616   2.006
 1741SOL    HW1 7056   0.779   3.578   2.092
 1741SOL    HW2 7057   0.838   3.547   1.956
 1742SOL     OW 7058  13.018  10.025   0.278
 1742SOL    HW1 7059  13.075  10.075   0.219
 1742SOL    HW2 7060  13.074  10.003   0.352
 1743SOL     OW 7061   3.762   2.712   2.413
 1743SOL    HW1 7062   3.724   2.794   2.382
 1743SOL    HW2 7063   3.753   2.651   2.340
 1744SOL     OW 7064   3.261  11.845   8.294
 1744SOL    HW1 7065   3.314  11.793   8.233
 1744SOL    HW2 7066   3.214  11.780   8.346
 1745SOL     OW 7067   7.509   4.405   0.033
 1745SOL    HW1 7068   7.602   4.402   0.056
 1745SOL    HW2 7069   7.483   4.496   0.050
 1746SOL     OW 7070  10.909   3.497  10.054
 1746SOL    HW1 7071  10.941   3.581  10.088
 1746SOL    HW2 7072  10.814   3.505  10.055
 1747SOL     OW 7073  12.875  11.483   8.319
 1747SOL    HW1 7074  12.837  11.534   8.390
 1747SOL    HW2 7075  12.898  11.399   8.360
 1748SOL     OW 7076   3.792  13.595   5.992
 1748SOL    HW1 7077   3.724  13.538   6.028
 1748SOL    HW2 7078   3.753  13.630   5.912
 1749SOL     OW 7079   2.680   6.535   5.974
 1749SOL    HW1 7080   2.636   6.566   5.895
 1749SOL    HW2 7081   2.740   6.606   5.996
 1750SOL     OW 7082   4.726   0.360   9.305
 1750SOL    HW1 7083   4.746   0.394   9.392
 1750SOL    HW2 7084   4.643   0.313   9.317
 1751SOL     OW 7085   1.856   4.397   1.412
 1751SOL    HW1 7086   1.776   4.367   1.454
 1751SOL    HW2 7087   1.873   4.333   1.343
 1752SOL     OW 7088   3.754  11.352  11.646
 1752SOL    HW1 7089   3.673  11.300  11.645
 1752SOL    HW2 7090   3.822  11.289  11.672
 1753SOL     OW 7091  14.214   3.112  13.483
 1753SOL    HW1 7092  14.226   3.203  13.507
 1753SOL    HW2 7093  14.148   3.114  13.413
 1754SOL     OW 7094   6.140  13.983  13.725
 1754SOL    HW1 7095   6.090  13.986  13.807
 1754SOL    HW2 7096   6.079  13.947  13.661
 1755SOL     OW 7097   2.362   5.618   0.224
 1755SOL    HW1 7098   2.365   5.592   0.132
 1755SOL    HW2 7099   2.368   5.714   0.222
 1756SOL     OW 7100  13.622   2.012   8.941
 1756SOL    HW1 7101  13.712   2.014   8.972
 1756SOL    HW2 7102  13.590   2.102   8.954
 1757SOL     OW 7103  10.447  12.257  10.553
 1757SOL    HW1 7104  10.504  12.236  10.479
 1757SOL    HW2 7105  10.493  12.222  10.630
 1758SOL     OW 7106  11.121   9.686   6.366
 1758SOL    HW1 7107  11.101   9.747   6.295
 1758SOL    HW2 7108  11.216   9.672   6.360
 1759SOL     OW 7109  10.029   1.346   8.961
 1759SOL    HW1 7110  10.119   1.314   8.966
 1759SOL    HW2 7111   9.979   1.286   9.018
 1760SOL     OW 7112  11.806   6.697  13.118
 1760SOL    HW1 7113  11.770   6.630  13.176
 1760SOL    HW2 7114  11.733   6.719  13.060
 1761SOL     OW 7115   5.722   9.444  11.043
 1761SOL    HW1 7116   5.714   9.369  10.984
 1761SOL    HW2 7117   5.815   9.447  11.065
 1762SOL     OW 7118   0.234  10.453   4.985
 1762SOL    HW1 7119   0.300  10.460   4.916
 1762SOL    HW2 7120   0.150  10.455   4.938
 1763SOL     OW 7121   7.190   9.302  12.435
 1763SOL    HW1 7122   7.209   9.218  12.476
 1763SOL    HW2 7123   7.152   9.355  12.506
 1764SOL     OW 7124   7.488   9.369   8.001
 1764SOL    HW1 7125   7.413   9.327   8.044
 1764SOL    HW2 7126   7.562   9.311   8.020
 1765SOL     OW 7127   3.352   5.307   4.000
 1765SOL    HW1 7128   3.300   5.381   4.031
 1765SOL    HW2 7129   3.320   5.290   3.911
 1766SOL     OW 7130  12.532   1.076   5.361
 1766SOL    HW1 7131  12.610   1.081   5.306
 1766SOL    HW2 7132  12.547   1.140   5.430
 1767SOL     OW 7133   1.139   3.284   8.448
 1767SOL    HW1 7134   1.194   3.208   8.465
 1767SOL    HW2 7135   1.132   3.287   8.352
 1768SOL     OW 7136   3.116  10.428   5.374
 1768SOL    HW1 7137   3.035  10.424   5.323
 1768SOL    HW2 7138   3.179  10.472   5.316
 1769SOL     OW 7139   8.126   9.996   9.678
 1769SOL    HW1 7140   8.140  10.042   9.595
 1769SOL    HW2 7141   8.212   9.996   9.720
 1770SOL     OW 7142  11.224   3.598   3.007
 1770SOL    HW1 7143  11.182   3.636   3.084
 1770SOL    HW2 7144  11.314   3.580   3.035
 1771SOL     OW 7145  13.857   8.460  12.448
 1771SOL    HW1 7146  13.939   8.436  12.491
 1771SOL    HW2 7147  13.853   8.555  12.457
 1772SOL     OW 7148   5.345   9.543   0.051
 1772SOL    HW1 7149   5.297   9.625   0.064
 1772SOL    HW2 7150   5.438   9.569   0.054
 1773SOL     OW 7151   6.152   0.549  13.917
 1773SOL    HW1 7152   6.077   0.501  13.882
 1773SOL    HW2 7153   6.173   0.614  13.850
 1774SOL     OW 7154   1.049   8.728   0.884
 1774SOL    HW1 7155   1.139   8.754   0.904
 1774SOL    HW2 7156   1.024   8.781   0.808
 1775SOL     OW 7157   0.521   9.217  14.547
 1775SOL    HW1 7158   0.533   9.181  14.459
 1775SOL    HW2 7159   0.426   9.227  14.557
 1776SOL     OW 7160   9.497   9.896  12.995
 1776SOL    HW1 7161   9.560   9.842  12.946
 1776SOL    HW2 7162   9.543   9.920  13.075
 1777SOL     OW 7163   0.055   0.888   5.228
 1777SOL    HW1 7164   0.097   0.827   5.168
 1777SOL    HW2 7165   0.043   0.968   5.178
 1778SOL     OW 7166   9.887   1.531   8.825
 1778SOL    HW1 7167   9.936   1.478   8.887
 1778SOL    HW2 7168   9.887   1.619   8.864
 1779SOL     OW 7169  13.875   5.863   7.321
 1779SOL    HW1 7170  13.892   5.928   7.253
 1779SOL    HW2 7171  13.827   5.911   7.389
 1780SOL     OW 7172   4.159   4.685   6.415
 1780SOL    HW1 7173   4.089   4.711   6.355
 1780SOL    HW2 7174   4.193   4.768   6.449
 1781SOL     OW 7175  11.860  11.243   1.444
 1781SOL    HW1 7176  11.832  11.196   1.366
 1781SOL    HW2 7177  11.850  11.179   1.515
 1782SOL     OW 7178   6.720   2.093   1.070
 1782SOL    HW1 7179   6.655   2.150   1.111
 1782SOL    HW2 7180   6.668   2.022   1.032
 1783SOL     OW 7181   3.405  13.631  11.547
 1783SOL    HW1 7182   3.422  13.537  11.551
 1783SOL    HW2 7183   3.341  13.646  11.616
 1784SOL     OW 7184  12.622   0.185   1.200
 1784SOL    HW1 7185  12.651   0.264   1.245
 1784SOL    HW2 7186  12.660   0.113   1.251
 1785SOL     OW 7187  14.707   6.437  10.393
 1785SOL    HW1 7188  14.739   6.369  10.453
 1785SOL    HW2 7189  14.619   6.408  10.370
 1786SOL     OW 7190  12.797   1.859   9.952
 1786SOL    HW1 7191  12.787   1.764   9.961
 1786SOL    HW2 7192  12.838   1.886  10.034
 1787SOL     OW 7193   4.067  12.857   1.572
 1787SOL    HW1 7194   4.001  12.881   1.507
 1787SOL    HW2 7195   4.143  12.911   1.551
 1788SOL     OW 7196   4.343  10.211  10.582
 1788SOL    HW1 7197   4.422  10.170  10.547
 1788SOL    HW2 7198   4.276  10.143  10.573
 1789SOL     OW 7199  10.283   2.459   2.740
 1789SOL    HW1 7200  10.209   2.407   2.770
 1789SOL    HW2 7201  10.337   2.471   2.818
 1790SOL     OW 7202   7.178  10.696   8.651
 1790SOL    HW1 7203   7.093  10.719   8.688
 1790SOL    HW2 7204   7.193  10.606   8.679
 1791SOL     OW 7205   7.034   5.296   9.545
 1791SOL    HW1 7206   7.129   5.305   9.541
 1791SOL    HW2 7207   7.001   5.358   9.480
 1792SOL     OW 7208  14.773   0.809   3.259
 1792SOL    HW1 7209  14.774   0.763   3.344
 1792SOL    HW2 7210  14.834   0.759   3.205
 1793SOL     OW 7211  14.008   6.784   3.316
 1793SOL    HW1 7212  14.082   6.829   3.275
 1793SOL    HW2 7213  13.968   6.851   3.372
 1794SOL     OW 7214  14.774  13.024   4.436
 1794SOL    HW1 7215  14.694  13.005   4.387
 1794SOL    HW2 7216  14.787  12.948   4.493
 1795SOL     OW 7217  10.089  11.887   3.062
 1795SOL    HW1 7218  10.040  11.830   3.002
 1795SOL    HW2 7219  10.081  11.974   3.024
 1796SOL     OW 7220   6.348   7.766  11.461
 1796SOL    HW1 7221   6.366   7.858  11.479
 1796SOL    HW2 7222   6.403   7.745  11.386
 1797SOL     OW 7223   2.324   7.914   8.134
 1797SOL    HW1 7224   2.284   8.001   8.133
 1797SOL    HW2 7225   2.342   7.896   8.226
 1798SOL     OW 7226   1.987   2.055   7.182
 1798SOL    HW1 7227   1.986   2.040   7.276
 1798SOL    HW2 7228   2.064   2.008   7.150
 1799SOL     OW 7229   6.920   4.507   7.978
 1799SOL    HW1 7230   7.002   4.464   8.003
 1799SOL    HW2 7231   6.926   4.595   8.016
 1800SOL     OW 7232  10.561   4.474   4.700
 1800SOL    HW1 7233  10.516   4.402   4.745
 1800SOL    HW2 7234  10.594   4.529   4.770
 1801SOL     OW 7235   2.095   0.833   9.484
 1801SOL    HW1 7236   2.129   0.893   9.550
 1801SOL    HW2 7237   2.158   0.761   9.483
 1802SOL     OW 7238  11.635   6.436  11.380
 1802SOL    HW1 7239  11.585   6.426  11.461
 1802SOL    HW2 7240  11.681   6.520  11.391
 1803SOL     OW 7241   3.155  12.237   0.827
 1803SOL    HW1 7242   3.118  12.154   0.857
 1803SOL    HW2 7243   3.208  12.268   0.901
 1804SOL     OW 7244   6.540   5.187   8.958
 1804SOL    HW1 7245   6.575   5.259   8.906
 1804SOL    HW2 7246   6.447   5.183   8.934
 1805SOL     OW 7247   5.007   5.041   8.213
 1805SOL    HW1 7248   5.044   5.120   8.253
 1805SOL    HW2 7249   4.912   5.052   8.220
 1806SOL     OW 7250   3.679  13.470  13.051
 1806SOL    HW1 7251   3.774  13.462  13.044
 1806SOL    HW2 7252   3.648  13.468  12.961
 1807SOL     OW 7253  10.239   6.249   6.351
 1807SOL    HW1 7254  10.156   6.273   6.394
 1807SOL    HW2 7255  10.293   6.215   6.422
 1808SOL     OW 7256   6.381  13.720  12.462
 1808SOL    HW1 7257   6.333  13.637  12.463
 1808SOL    HW2 7258   6.331  13.776  12.403
 1809SOL     OW 7259  12.152   8.854  10.714
 1809SOL    HW1 7260  12.180   8.879  10.802
 1809SOL    HW2 7261  12.101   8.929  10.684
 1810SOL     OW 7262   9.611   8.860   8.563
 1810SOL    HW1 7263   9.526   8.832   8.529
 1810SOL    HW2 7264   9.591   8.927   8.628
 1811SOL     OW 7265  12.487   9.964  14.521
 1811SOL    HW1 7266  12.565   9.988  14.571
 1811SOL    HW2 7267  12.519   9.951  14.432
 1812SOL     OW 7268   9.128  14.088   1.884
 1812SOL    HW1 7269   9.146  14.050   1.798
 1812SOL    HW2 7270   9.169  14.028   1.947
 1813SOL     OW 7271  12.288   2.877   1.526
 1813SOL    HW1 7272  12.361   2.817   1.509
 1813SOL    HW2 7273  12.236   2.834   1.593
 1814SOL     OW 7274   8.236  12.470   7.655
 1814SOL    HW1 7275   8.174  12.406   7.689
 1814SOL    HW2 7276   8.244  12.449   7.562
 1815SOL     OW 7277   7.064  12.056  10.442
 1815SOL    HW1 7278   7.125  12.130  10.440
 1815SOL    HW2 7279   7.114  11.986  10.484
 1816SOL     OW 7280  12.848   8.087   2.468
 1816SOL    HW1 7281  12.908   8.075   2.542
 1816SOL    HW2 7282  12.833   8.181   2.464
 1817SOL     OW 7283   8.280  14.365  12.768
 1817SOL    HW1 7284   8.244  14.286  12.728
 1817SOL    HW2 7285   8.267  14.352  12.862
 1818SOL     OW 7286   9.618   1.784   8.169
 1818SOL    HW1 7287   9.657   1.749   8.088
 1818SOL    HW2 7288   9.679   1.759   8.238
 1819SOL     OW 7289   1.885  12.582   6.615
 1819SOL    HW1 7290   1.885  12.557   6.707
 1819SOL    HW2 7291   1.803  12.546   6.580
 1820SOL     OW 7292   5.408   2.103   5.154
 1820SOL    HW1 7293   5.357   2.065   5.226
 1820SOL    HW2 7294   5.373   2.192   5.145
 1821SOL     OW 7295   9.866  11.845   4.005
 1821SOL    HW1 7296   9.861  11.752   3.985
 1821SOL    HW2 7297   9.775  11.874   4.005
 1822SOL     OW 7298   2.352   4.216   1.512
 1822SOL    HW1 7299   2.274   4.267   1.489
 1822SOL    HW2 7300   2.394   4.265   1.582
 1823SOL     OW 7301   4.022  13.772  10.771
 1823SOL    HW1 7302   4.062  13.857  10.786
 1823SOL    HW2 7303   3.980  13.749  10.854
 1824SOL     OW 7304   8.428  13.316   3.373
 1824SOL    HW1 7305   8.408  13.246   3.311
 1824SOL    HW2 7306   8.488  13.276   3.436
 1825SOL     OW 7307   0.695  12.662   4.867
 1825SOL    HW1 7308   0.723  12.597   4.932
 1825SOL    HW2 7309   0.648  12.728   4.917
 1826SOL     OW 7310  13.831   4.413   2.823
 1826SOL    HW1 7311  13.751   4.383   2.779
 1826SOL    HW2 7312  13.805   4.425   2.915
 1827SOL     OW 7313   2.764  13.882   9.217
 1827SOL    HW1 7314   2.712  13.898   9.296
 1827SOL    HW2 7315   2.808  13.965   9.199
 1828SOL     OW 7316   9.154   4.976  12.480
 1828SOL    HW1 7317   9.074   4.989  12.531
 1828SOL    HW2 7318   9.198   4.903  12.523
 1829SOL     OW 7319   6.426   9.716   8.947
 1829SOL    HW1 7320   6.356   9.703   8.883
 1829SOL    HW2 7321   6.499   9.662   8.915
 1830SOL     OW 7322   1.048   4.679   0.195
 1830SOL    HW1 7323   1.028   4.672   0.289
 1830SOL    HW2 7324   1.069   4.590   0.168
 1831SOL     OW 7325  14.483   1.455   2.692
 1831SOL    HW1 7326  14.397   1.495   2.675
 1831SOL    HW2 7327  14.544   1.528   2.694
 1832SOL     OW 7328   8.366  14.192   0.066
 1832SOL    HW1 7329   8.363  14.250  14.869
 1832SOL    HW2 7330   8.458  14.192   0.094
 1833SOL     OW 7331   2.057   3.255   9.679
 1833SOL    HW1 7332   2.092   3.198   9.747
 1833SOL    HW2 7333   1.969   3.277   9.709
 1834SOL     OW 7334   0.373   4.423   0.686
 1834SOL    HW1 7335   0.320   4.345   0.703
 1834SOL    HW2 7336   0.457   4.388   0.654
 1835SOL     OW 7337   6.699   3.491   5.046
 1835SOL    HW1 7338   6.793   3.477   5.056
 1835SOL    HW2 7339   6.666   3.495   5.136
 1836SOL     OW 7340  13.295  13.506   5.305
 1836SOL    HW1 7341  13.309  13.531   5.397
 1836SOL    HW2 7342  13.231  13.435   5.309
 1837SOL     OW 7343   2.406  11.832  11.019
 1837SOL    HW1 7344   2.364  11.807  11.101
 1837SOL    HW2 7345   2.388  11.759  10.959
 1838SOL     OW 7346  12.188  12.049   4.859
 1838SOL    HW1 7347  12.110  12.103   4.866
 1838SOL    HW2 7348  12.157  11.966   4.823
 1839SOL     OW 7349   9.562   3.196  13.266
 1839SOL    HW1 7350   9.481   3.237  13.235
 1839SOL    HW2 7351   9.555   3.104  13.239
 1840SOL     OW 7352   6.072   7.209   5.845
 1840SOL    HW1 7353   5.978   7.190   5.854
 1840SOL    HW2 7354   6.096   7.246   5.930
 1841SOL     OW 7355  13.796   1.181   6.459
 1841SOL    HW1 7356  13.768   1.241   6.527
 1841SOL    HW2 7357  13.799   1.234   6.379
 1842SOL     OW 7358   7.464  12.612  13.562
 1842SOL    HW1 7359   7.540  12.570  13.521
 1842SOL    HW2 7360   7.465  12.701  13.528
 1843SOL     OW 7361   4.265  11.005   7.590
 1843SOL    HW1 7362   4.305  10.955   7.662
 1843SOL    HW2 7363   4.176  11.024   7.621
 1844SOL     OW 7364  13.930   8.266   6.848
 1844SOL    HW1 7365  13.922   8.328   6.921
 1844SOL    HW2 7366  14.005   8.212   6.872
 1845SOL     OW 7367   3.918  10.214  12.070
 1845SOL    HW1 7368   3.867  10.183  11.995
 1845SOL    HW2 7369   3.853  10.240  12.134
 1846SOL     OW 7370   9.351   2.523   6.031
 1846SOL    HW1 7371   9.397   2.575   5.965
 1846SOL    HW2 7372   9.404   2.443   6.039
 1847SOL     OW 7373   5.247  13.299   4.034
 1847SOL    HW1 7374   5.236  13.394   4.042
 1847SOL    HW2 7375   5.258  13.284   3.940
 1848SOL     OW 7376   5.111   6.265   1.576
 1848SOL    HW1 7377   5.149   6.186   1.537
 1848SOL    HW2 7378   5.029   6.278   1.529
 1849SOL     OW 7379   3.652  14.308   5.745
 1849SOL    HW1 7380   3.721  14.375   5.742
 1849SOL    HW2 7381   3.662  14.268   5.831
 1850SOL     OW 7382   0.322   1.747   5.282
 1850SOL    HW1 7383   0.340   1.674   5.342
 1850SOL    HW2 7384   0.401   1.801   5.287
 1851SOL     OW 7385   1.440   6.048   9.826
 1851SOL    HW1 7386   1.487   5.989   9.885
 1851SOL    HW2 7387   1.481   6.034   9.740
 1852SOL     OW 7388   0.207   7.107   2.969
 1852SOL    HW1 7389   0.288   7.110   3.020
 1852SOL    HW2 7390   0.221   7.171   2.899
 1853SOL     OW 7391   7.969   7.232   9.909
 1853SOL    HW1 7392   8.024   7.154   9.920
 1853SOL    HW2 7393   7.916   7.212   9.832
 1854SOL     OW 7394   9.272   2.383  10.726
 1854SOL    HW1 7395   9.357   2.357  10.762
 1854SOL    HW2 7396   9.272   2.350  10.636
 1855SOL     OW 7397   2.283   9.660  10.545
 1855SOL    HW1 7398   2.315   9.585  10.596
 1855SOL    HW2 7399   2.303   9.736  10.599
 1856SOL     OW 7400  13.184  12.137  13.649
 1856SOL    HW1 7401  13.130  12.210  13.677
 1856SOL    HW2 7402  13.234  12.171  13.574
 1857SOL     OW 7403   2.423   1.299   1.313
 1857SOL    HW1 7404   2.436   1.239   1.240
 1857SOL    HW2 7405   2.416   1.243   1.390
 1858SOL     OW 7406   6.009   3.762  10.510
 1858SOL    HW1 7407   5.999   3.794  10.421
 1858SOL    HW2 7408   6.098   3.786  10.535
 1859SOL     OW 7409  12.780  12.625  11.216
 1859SOL    HW1 7410  12.736  12.627  11.131
 1859SOL    HW2 7411  12.799  12.532  11.231
 1860SOL     OW 7412  10.541  13.200  13.682
 1860SOL    HW1 7413  10.459  13.238  13.715
 1860SOL    HW2 7414  10.516  13.160  13.598
 1861SOL     OW 7415   4.646   1.604   3.816
 1861SOL    HW1 7416   4.623   1.610   3.909
 1861SOL    HW2 7417   4.735   1.567   3.816
 1862SOL     OW 7418  13.542  12.070  10.847
 1862SOL    HW1 7419  13.633  12.082  10.873
 1862SOL    HW2 7420  13.543  12.076  10.751
 1863SOL     OW 7421  13.958  14.871  12.175
 1863SOL    HW1 7422  14.028   0.057  12.181
 1863SOL    HW2 7423  14.002  14.791  12.145
 1864SOL     OW 7424  12.528   1.753  14.420
 1864SOL    HW1 7425  12.550   1.846  14.409
 1864SOL    HW2 7426  12.578   1.709  14.351
 1865SOL     OW 7427   0.784   6.341   1.166
 1865SOL    HW1 7428   0.734   6.266   1.137
 1865SOL    HW2 7429   0.776   6.405   1.095
 1866SOL     OW 7430  14.181   8.687   3.883
 1866SOL    HW1 7431  14.110   8.647   3.834
 1866SOL    HW2 7432  14.257   8.631   3.866
 1867SOL     OW 7433  13.089   0.067   9.842
 1867SOL    HW1 7434  13.165   0.012   9.861
 1867SOL    HW2 7435  13.040   0.018   9.776
 1868SOL     OW 7436  13.837   6.774  11.575
 1868SOL    HW1 7437  13.822   6.843  11.640
 1868SOL    HW2 7438  13.825   6.693  11.624
 1869SOL     OW 7439   9.133   6.203   0.087
 1869SOL    HW1 7440   9.045   6.174   0.112
 1869SOL    HW2 7441   9.190   6.168   0.155
 1870SOL     OW 7442   3.627   4.772  10.015
 1870SOL    HW1 7443   3.641   4.700   9.953
 1870SOL    HW2 7444   3.714   4.801  10.039
 1871SOL     OW 7445   3.245   0.905   7.950
 1871SOL    HW1 7446   3.208   0.830   7.996
 1871SOL    HW2 7447   3.220   0.981   8.004
 1872SOL     OW 7448   8.689  12.952   7.882
 1872SOL    HW1 7449   8.779  12.985   7.887
 1872SOL    HW2 7450   8.635  13.025   7.915
 1873SOL     OW 7451  13.763   8.777  11.843
 1873SOL    HW1 7452  13.677   8.806  11.811
 1873SOL    HW2 7453  13.819   8.781  11.766
 1874SOL     OW 7454  14.171  14.651  11.061
 1874SOL    HW1 7455  14.089  14.656  11.013
 1874SOL    HW2 7456  14.188  14.740  11.090
 1875SOL     OW 7457   1.899   1.430  10.966
 1875SOL    HW1 7458   1.830   1.407  10.904
 1875SOL    HW2 7459   1.899   1.526  10.968
 1876SOL     OW 7460   5.389  12.629   1.025
 1876SOL    HW1 7461   5.413  12.708   0.975
 1876SOL    HW2 7462   5.426  12.643   1.112
 1877SOL     OW 7463  12.874   9.251   6.693
 1877SOL    HW1 7464  12.783   9.228   6.713
 1877SOL    HW2 7465  12.896   9.319   6.756
 1878SOL     OW 7466   3.000  11.099  10.836
 1878SOL    HW1 7467   2.952  11.131  10.913
 1878SOL    HW2 7468   3.085  11.073  10.871
 1879SOL     OW 7469  11.798   8.716   7.866
 1879SOL    HW1 7470  11.845   8.677   7.792
 1879SOL    HW2 7471  11.860   8.711   7.939
 1880SOL     OW 7472   3.518  14.007  13.614
 1880SOL    HW1 7473   3.609  13.976  13.615
 1880SOL    HW2 7474   3.478  13.959  13.541
 1881SOL     OW 7475   0.962   6.739  11.770
 1881SOL    HW1 7476   1.049   6.698  11.777
 1881SOL    HW2 7477   0.979   6.832  11.786
 1882SOL     OW 7478   3.484   6.801  12.475
 1882SOL    HW1 7479   3.409   6.814  12.533
 1882SOL    HW2 7480   3.497   6.886  12.432
 1883SOL     OW 7481   9.250   4.599   8.775
 1883SOL    HW1 7482   9.268   4.518   8.727
 1883SOL    HW2 7483   9.333   4.621   8.818
 1884SOL     OW 7484   4.909   3.013   0.157
 1884SOL    HW1 7485   4.940   3.066   0.230
 1884SOL    HW2 7486   4.880   3.076   0.091
 1885SOL     OW 7487  11.137  12.890  13.929
 1885SOL    HW1 7488  11.193  12.957  13.891
 1885SOL    HW2 7489  11.065  12.880  13.868
 1886SOL     OW 7490  11.617   0.913  10.789
 1886SOL    HW1 7491  11.533   0.959  10.794
 1886SOL    HW2 7492  11.612   0.861  10.709
 1887SOL     OW 7493  14.008   5.187   9.059
 1887SOL    HW1 7494  14.006   5.211   8.966
 1887SOL    HW2 7495  14.101   5.191   9.082
 1888SOL     OW 7496  13.257  10.242   5.429
 1888SOL    HW1 7497  13.292  10.154   5.432
 1888SOL    HW2 7498  13.330  10.297   5.400
 1889SOL     OW 7499   8.256  12.785   7.990
 1889SOL    HW1 7500   8.271  12.699   7.951
 1889SOL    HW2 7501   8.310  12.784   8.069
 1890SOL     OW 7502   0.925   3.161   0.852
 1890SOL    HW1 7503   0.900   3.069   0.840
 1890SOL    HW2 7504   1.021   3.161   0.851
 1891SOL     OW 7505   2.949  10.751   4.675
 1891SOL    HW1 7506   3.034  10.744   4.633
 1891SOL    HW2 7507   2.897  10.680   4.636
 1892SOL     OW 7508   5.034   2.562  13.322
 1892SOL    HW1 7509   4.984   2.613  13.258
 1892SOL    HW2 7510   4.983   2.569  13.403
 1893SOL     OW 7511   1.250   7.650  13.607
 1893SOL    HW1 7512   1.161   7.614  13.607
 1893SOL    HW2 7513   1.264   7.681  13.518
 1894SOL     OW 7514  11.957   3.404   2.928
 1894SOL    HW1 7515  11.987   3.313   2.928
 1894SOL    HW2 7516  11.977   3.435   2.840
 1895SOL     OW 7517  13.608  10.289  14.295
 1895SOL    HW1 7518  13.679  10.348  14.320
 1895SOL    HW2 7519  13.549  10.290  14.371
 1896SOL     OW 7520  11.949   7.884  11.929
 1896SOL    HW1 7521  11.948   7.870  12.024
 1896SOL    HW2 7522  12.039   7.907  11.908
 1897SOL     OW 7523   3.259   0.219   0.349
 1897SOL    HW1 7524   3.210   0.141   0.374
 1897SOL    HW2 7525   3.350   0.189   0.344
 1898SOL     OW 7526   9.557   2.640   7.263
 1898SOL    HW1 7527   9.632   2.653   7.321
 1898SOL    HW2 7528   9.595   2.618   7.178
 1899SOL     OW 7529   6.959  12.054   1.205
 1899SOL    HW1 7530   7.036  12.010   1.240
 1899SOL    HW2 7531   6.994  12.128   1.156
 1900SOL     OW 7532   5.513   4.731   5.906
 1900SOL    HW1 7533   5.579   4.789   5.868
 1900SOL    HW2 7534   5.484   4.676   5.833
 1901SOL     OW 7535  11.287   4.724  14.430
 1901SOL    HW1 7536  11.370   4.746  14.389
 1901SOL    HW2 7537  11.290   4.629  14.440
 1902SOL     OW 7538   5.653  14.769  13.987
 1902SOL    HW1 7539   5.561  14.746  13.969
 1902SOL    HW2 7540   5.661  14.761  14.082
 1903SOL     OW 7541  14.664  12.168   6.011
 1903SOL    HW1 7542  14.623  12.234   5.956
 1903SOL    HW2 7543  14.592  12.134   6.065
 1904SOL     OW 7544   9.310   0.193  13.784
 1904SOL    HW1 7545   9.271   0.185  13.698
 1904SOL    HW2 7546   9.249   0.247  13.834
 1905SOL     OW 7547   7.787   3.957  14.580
 1905SOL    HW1 7548   7.780   4.051  14.598
 1905SOL    HW2 7549   7.869   3.931  14.622
 1906SOL     OW 7550   7.481   3.381   7.320
 1906SOL    HW1 7551   7.468   3.396   7.414
 1906SOL    HW2 7552   7.444   3.294   7.305
 1907SOL     OW 7553   9.062   4.320   5.380
 1907SOL    HW1 7554   9.012   4.246   5.345
 1907SOL    HW2 7555   9.053   4.312   5.475
 1908SOL     OW 7556  13.535   4.440   7.140
 1908SOL    HW1 7557  13.459   4.451   7.083
 1908SOL    HW2 7558  13.608   4.423   7.080
 1909SOL     OW 7559   2.833   4.820   3.518
 1909SOL    HW1 7560   2.887   4.890   3.480
 1909SOL    HW2 7561   2.782   4.864   3.586
 1910SOL     OW 7562   6.734  12.411  12.902
 1910SOL    HW1 7563   6.651  12.449  12.930
 1910SOL    HW2 7564   6.751  12.449  12.816
 1911SOL     OW 7565  12.639   6.115  11.642
 1911SOL    HW1 7566  12.654   6.167  11.721
 1911SOL    HW2 7567  12.570   6.161  11.595
 1912SOL     OW 7568  13.052  10.230  11.162
 1912SOL    HW1 7569  13.081  10.306  11.112
 1912SOL    HW2 7570  13.110  10.228  11.238
 1913SOL     OW 7571  11.885   4.081  13.103
 1913SOL    HW1 7572  11.795   4.114  13.112
 1913SOL    HW2 7573  11.917   4.075  13.193
 1914SOL     OW 7574   9.536   3.685  13.361
 1914SOL    HW1 7575   9.502   3.707  13.274
 1914SOL    HW2 7576   9.596   3.757  13.382
 1915SOL     OW 7577  14.176   2.468   2.521
 1915SOL    HW1 7578  14.102   2.499   2.469
 1915SOL    HW2 7579  14.192   2.538   2.585
 1916SOL     OW 7580   0.895   1.369  12.751
 1916SOL    HW1 7581   0.926   1.288  12.791
 1916SOL    HW2 7582   0.974   1.410  12.715
 1917SOL     OW 7583  12.739   4.514   2.502
 1917SOL    HW1 7584  12.816   4.548   2.548
 1917SOL    HW2 7585  12.674   4.584   2.511
 1918SOL     OW 7586   5.864   2.285   5.589
 1918SOL    HW1 7587   5.936   2.348   5.595
 1918SOL    HW2 7588   5.899   2.212   5.538
 1919SOL     OW 7589   4.676   1.272   2.615
 1919SOL    HW1 7590   4.676   1.289   2.709
 1919SOL    HW2 7591   4.670   1.176   2.609
 1920SOL     OW 7592  10.169   7.148  11.437
 1920SOL    HW1 7593  10.165   7.172  11.345
 1920SOL    HW2 7594  10.162   7.053  11.438
 1921SOL     OW 7595   8.498  14.492  12.670
 1921SOL    HW1 7596   8.423  14.433  12.682
 1921SOL    HW2 7597   8.523  14.518  12.758
 1922SOL     OW 7598   3.916  14.428  11.834
 1922SOL    HW1 7599   3.899  14.416  11.927
 1922SOL    HW2 7600   3.835  14.468  11.800
 1923SOL     OW 7601   4.540  13.900   3.510
 1923SOL    HW1 7602   4.601  13.970   3.532
 1923SOL    HW2 7603   4.596  13.829   3.477
 1924SOL     OW 7604  11.389   8.155   2.208
 1924SOL    HW1 7605  11.371   8.117   2.122
 1924SOL    HW2 7606  11.303   8.164   2.249
 1925SOL     OW 7607   8.299  14.506  11.893
 1925SOL    HW1 7608   8.350  14.561  11.835
 1925SOL    HW2 7609   8.216  14.493  11.848
 1926SOL     OW 7610  12.050  13.175  12.755
 1926SOL    HW1 7611  11.994  13.148  12.828
 1926SOL    HW2 7612  12.087  13.094  12.721
 1927SOL     OW 7613  10.085  11.292   4.756
 1927SOL    HW1 7614  10.093  11.344   4.836
 1927SOL    HW2 7615  10.017  11.227   4.776
 1928SOL     OW 7616   0.745   9.873   4.683
 1928SOL    HW1 7617   0.802   9.870   4.760
 1928SOL    HW2 7618   0.801   9.844   4.611
 1929SOL     OW 7619  13.146   4.540   7.219
 1929SOL    HW1 7620  13.236   4.569   7.234
 1929SOL    HW2 7621  13.146   4.506   7.130
 1930SOL     OW 7622  13.885   5.759   9.500
 1930SOL    HW1 7623  13.942   5.831   9.529
 1930SOL    HW2 7624  13.933   5.718   9.429
 1931SOL     OW 7625  12.841  14.180  14.389
 1931SOL    HW1 7626  12.900  14.126  14.442
 1931SOL    HW2 7627  12.890  14.195  14.308
 1932SOL     OW 7628  11.259   7.616  14.746
 1932SOL    HW1 7629  11.274   7.523  14.730
 1932SOL    HW2 7630  11.335   7.660  14.707
 1933SOL     OW 7631   5.053  10.551   5.118
 1933SOL    HW1 7632   5.098  10.493   5.057
 1933SOL    HW2 7633   5.073  10.514   5.204
 1934SOL     OW 7634   4.828   6.867  10.830
 1934SOL    HW1 7635   4.787   6.899  10.750
 1934SOL    HW2 7636   4.756   6.830  10.881
 1935SOL     OW 7637   7.861   0.545  13.483
 1935SOL    HW1 7638   7.791   0.577  13.539
 1935SOL    HW2 7639   7.817   0.513  13.405
 1936SOL     OW 7640  10.594   5.001   0.305
 1936SOL    HW1 7641  10.636   5.074   0.352
 1936SOL    HW2 7642  10.648   4.988   0.228
 1937SOL     OW 7643   8.962  11.996   5.769
 1937SOL    HW1 7644   8.885  12.037   5.808
 1937SOL    HW2 7645   9.036  12.048   5.801
 1938SOL     OW 7646   8.541  12.012   7.389
 1938SOL    HW1 7647   8.468  12.070   7.368
 1938SOL    HW2 7648   8.502  11.945   7.445
 1939SOL     OW 7649  12.066   4.439   9.840
 1939SOL    HW1 7650  11.992   4.397   9.885
 1939SOL    HW2 7651  12.101   4.501   9.904
 1940SOL     OW 7652   0.520   0.539   2.990
 1940SOL    HW1 7653   0.509   0.611   3.052
 1940SOL    HW2 7654   0.527   0.581   2.904
 1941SOL     OW 7655   1.243  13.528   2.274
 1941SOL    HW1 7656   1.284  13.560   2.354
 1941SOL    HW2 7657   1.278  13.584   2.204
 1942SOL     OW 7658   2.146   2.177   9.192
 1942SOL    HW1 7659   2.211   2.235   9.231
 1942SOL    HW2 7660   2.062   2.215   9.216
 1943SOL     OW 7661  12.438   9.687  11.419
 1943SOL    HW1 7662  12.443   9.695  11.324
 1943SOL    HW2 7663  12.353   9.724  11.442
 1944SOL     OW 7664   2.910  10.867   4.345
 1944SOL    HW1 7665   2.835  10.810   4.333
 1944SOL    HW2 7666   2.984  10.817   4.310
 1945SOL     OW 7667   9.896   2.005  12.182
 1945SOL    HW1 7668   9.974   1.960  12.150
 1945SOL    HW2 7669   9.928   2.088  12.217
 1946SOL     OW 7670  13.533   2.371   9.743
 1946SOL    HW1 7671  13.499   2.460   9.754
 1946SOL    HW2 7672  13.547   2.362   9.649
 1947SOL     OW 7673   6.611   7.572   1.960
 1947SOL    HW1 7674   6.671   7.618   1.900
 1947SOL    HW2 7675   6.553   7.640   1.993
 1948SOL     OW 7676  14.250  11.274   0.693
 1948SOL    HW1 7677  14.266  11.256   0.785
 1948SOL    HW2 7678  14.337  11.288   0.656
 1949SOL     OW 7679   1.462  11.465   7.459
 1949SOL    HW1 7680   1.440  11.397   7.395
 1949SOL    HW2 7681   1.550  11.441   7.490
 1950SOL     OW 7682   6.680   4.153  11.438
 1950SOL    HW1 7683   6.716   4.239  11.414
 1950SOL    HW2 7684   6.756   4.102  11.464
 1951SOL     OW 7685   4.876   2.609  13.577
 1951SOL    HW1 7686   4.847   2.518  13.563
 1951SOL    HW2 7687   4.799   2.652  13.614
 1952SOL     OW 7688   4.477  14.177  11.967
 1952SOL    HW1 7689   4.440  14.113  12.028
 1952SOL    HW2 7690   4.407  14.240  11.952
 1953SOL     OW 7691  11.067  14.175   6.170
 1953SOL    HW1 7692  11.127  14.110   6.207
 1953SOL    HW2 7693  11.124  14.235   6.121
 1954SOL     OW 7694   9.624   0.328  12.876
 1954SOL    HW1 7695   9.561   0.370  12.934
 1954SOL    HW2 7696   9.599   0.235  12.876
 1955SOL     OW 7697  10.241   9.268   4.882
 1955SOL    HW1 7698  10.157   9.270   4.836
 1955SOL    HW2 7699  10.276   9.357   4.873
 1956SOL     OW 7700  10.004   9.855   5.880
 1956SOL    HW1 7701   9.944   9.879   5.810
 1956SOL    HW2 7702   9.979   9.911   5.954
 1957SOL     OW 7703   1.084   5.059   4.988
 1957SOL    HW1 7704   1.074   5.130   5.052
 1957SOL    HW2 7705   1.004   5.063   4.935
 1958SOL     OW 7706   3.351   5.984   4.700
 1958SOL    HW1 7707   3.300   5.907   4.727
 1958SOL    HW2 7708   3.288   6.042   4.659
 1959SOL     OW 7709  13.980   5.557   2.616
 1959SOL    HW1 7710  14.024   5.519   2.692
 1959SOL    HW2 7711  14.048   5.607   2.571
 1960SOL     OW 7712  11.684  13.448  11.725
 1960SOL    HW1 7713  11.713  13.382  11.661
 1960SOL    HW2 7714  11.711  13.531  11.688
 1961SOL     OW 7715   4.136   9.408   7.724
 1961SOL    HW1 7716   4.143   9.358   7.643
 1961SOL    HW2 7717   4.091   9.350   7.785
 1962SOL     OW 7718   5.348   9.912   3.645
 1962SOL    HW1 7719   5.336   9.849   3.715
 1962SOL    HW2 7720   5.345   9.997   3.689
 1963SOL     OW 7721  13.489  12.549   2.797
 1963SOL    HW1 7722  13.402  12.522   2.826
 1963SOL    HW2 7723  13.545  12.538   2.874
 1964SOL     OW 7724   9.527   2.036  12.908
 1964SOL    HW1 7725   9.596   2.095  12.877
 1964SOL    HW2 7726   9.457   2.094  12.936
 1965SOL     OW 7727   1.101  10.173  10.215
 1965SOL    HW1 7728   1.041  10.147  10.145
 1965SOL    HW2 7729   1.049  10.164  10.295
 1966SOL     OW 7730  12.778   7.660  10.734
 1966SOL    HW1 7731  12.764   7.576  10.690
 1966SOL    HW2 7732  12.852   7.645  10.792
 1967SOL     OW 7733   8.120  12.709  12.900
 1967SOL    HW1 7734   8.026  12.709  12.919
 1967SOL    HW2 7735   8.162  12.705  12.986
 1968SOL     OW 7736   9.562   6.435   6.867
 1968SOL    HW1 7737   9.595   6.359   6.820
 1968SOL    HW2 7738   9.640   6.488   6.885
 1969SOL     OW 7739  13.240   0.088   4.626
 1969SOL    HW1 7740  13.266   0.092   4.718
 1969SOL    HW2 7741  13.226  14.874   4.609
 1970SOL     OW 7742  10.962   9.086   1.093
 1970SOL    HW1 7743  10.912   9.100   1.173
 1970SOL    HW2 7744  10.897   9.081   1.023
 1971SOL     OW 7745  11.791  13.587   0.197
 1971SOL    HW1 7746  11.859  13.651   0.175
 1971SOL    HW2 7747  11.709  13.637   0.195
 1972SOL     OW 7748  10.501   1.096   7.332
 1972SOL    HW1 7749  10.552   1.042   7.393
 1972SOL    HW2 7750  10.437   1.035   7.295
 1973SOL     OW 7751   3.919   0.219   8.002
 1973SOL    HW1 7752   3.919   0.127   8.029
 1973SOL    HW2 7753   3.849   0.225   7.937
 1974SOL     OW 7754   6.015  11.441   4.107
 1974SOL    HW1 7755   6.086  11.380   4.086
 1974SOL    HW2 7756   5.937  11.386   4.107
 1975SOL     OW 7757   0.692   6.712   9.139
 1975SOL    HW1 7758   0.750   6.637   9.148
 1975SOL    HW2 7759   0.646   6.697   9.056
 1976SOL     OW 7760   9.963   6.605   4.526
 1976SOL    HW1 7761   9.965   6.511   4.543
 1976SOL    HW2 7762  10.038   6.620   4.468
 1977SOL     OW 7763   3.815  13.314   7.838
 1977SOL    HW1 7764   3.870  13.389   7.861
 1977SOL    HW2 7765   3.869  13.264   7.777
 1978SOL     OW 7766   4.019   2.621   3.396
 1978SOL    HW1 7767   4.108   2.641   3.424
 1978SOL    HW2 7768   3.979   2.706   3.380
 1979SOL     OW 7769  10.285  14.427   1.830
 1979SOL    HW1 7770  10.262  14.354   1.886
 1979SOL    HW2 7771  10.256  14.505   1.878
 1980SOL     OW 7772   8.290   4.276  11.061
 1980SOL    HW1 7773   8.322   4.196  11.102
 1980SOL    HW2 7774   8.296   4.343  11.130
 1981SOL     OW 7775  14.405   2.575   2.047
 1981SOL    HW1 7776  14.314   2.590   2.021
 1981SOL    HW2 7777  14.399   2.517   2.123
 1982SOL     OW 7778   7.042  14.743   1.946
 1982SOL    HW1 7779   7.128  14.709   1.921
 1982SOL    HW2 7780   6.986  14.665   1.950
 1983SOL     OW 7781   0.558  14.642   8.600
 1983SOL    HW1 7782   0.650  14.664   8.612
 1983SOL    HW2 7783   0.539  14.578   8.668
 1984SOL     OW 7784   5.767   4.548  10.692
 1984SOL    HW1 7785   5.793   4.639  10.682
 1984SOL    HW2 7786   5.847   4.503  10.719
 1985SOL     OW 7787  14.757  14.671   7.790
 1985SOL    HW1 7788  14.703  14.695   7.715
 1985SOL    HW2 7789  14.795  14.586   7.766
 1986SOL     OW 7790  12.783  11.167   9.782
 1986SOL    HW1 7791  12.712  11.161   9.719
 1986SOL    HW2 7792  12.759  11.104   9.851
 1987SOL     OW 7793   8.779   8.312   0.844
 1987SOL    HW1 7794   8.739   8.282   0.925
 1987SOL    HW2 7795   8.794   8.231   0.794
 1988SOL     OW 7796   2.527   4.198  11.831
 1988SOL    HW1 7797   2.543   4.201  11.925
 1988SOL    HW2 7798   2.545   4.107  11.807
 1989SOL     OW 7799  10.824  13.375   7.354
 1989SOL    HW1 7800  10.754  13.386   7.417
 1989SOL    HW2 7801  10.901  13.412   7.396
 1990SOL     OW 7802   1.712   0.427   2.867
 1990SOL    HW1 7803   1.676   0.508   2.902
 1990SOL    HW2 7804   1.758   0.453   2.787
 1991SOL     OW 7805  11.235  10.829   0.030
 1991SOL    HW1 7806  11.208  10.896  14.845
 1991SOL    HW2 7807  11.222  10.746  14.863
 1992SOL     OW 7808   1.358   8.122  14.490
 1992SOL    HW1 7809   1.427   8.157  14.547
 1992SOL    HW2 7810   1.304   8.199  14.468
 1993SOL     OW 7811   4.588  13.020   4.238
 1993SOL    HW1 7812   4.528  12.999   4.310
 1993SOL    HW2 7813   4.533  13.019   4.160
 1994SOL     OW 7814   7.119   5.055   5.164
 1994SOL    HW1 7815   7.115   5.017   5.252
 1994SOL    HW2 7816   7.175   5.132   5.174
 1995SOL     OW 7817   5.483   0.699  14.751
 1995SOL    HW1 7818   5.448   0.610  14.762
 1995SOL    HW2 7819   5.447   0.729  14.668
 1996SOL     OW 7820  11.772  11.814   2.686
 1996SOL    HW1 7821  11.800  11.905   2.699
 1996SOL    HW2 7822  11.677  11.819   2.678
 1997SOL     OW 7823   2.439   9.166   4.137
 1997SOL    HW1 7824   2.454   9.192   4.047
 1997SOL    HW2 7825   2.362   9.109   4.134
 1998SOL     OW 7826   7.326  14.445  14.131
 1998SOL    HW1 7827   7.274  14.453  14.211
 1998SOL    HW2 7828   7.414  14.475  14.156
 1999SOL     OW 7829   7.727   4.031   6.115
 1999SOL    HW1 7830   7.756   4.071   6.033
 1999SOL    HW2 7831   7.775   3.948   6.120
 2000SOL     OW 7832   6.181  14.086   7.262
 2000SOL    HW1 7833   6.229  14.109   7.182
 2000SOL    HW2 7834   6.213  14.149   7.327
 2001SOL     OW 7835   2.431  12.474  11.136
 2001SOL    HW1 7836   2.367  12.420  11.091
 2001SOL    HW2 7837   2.397  12.482  11.225
 2002SOL     OW 7838   2.757   5.019  14.593
 2002SOL    HW1 7839   2.746   4.928  14.620
 2002SOL    HW2 7840   2.708   5.026  14.511
 2003SOL     OW 7841   0.735  13.170  11.223
 2003SOL    HW1 7842   0.674  13.155  11.295
 2003SOL    HW2 7843   0.715  13.102  11.159
 2004SOL     OW 7844  14.512  12.176   0.218
 2004SOL    HW1 7845  14.578  12.191   0.151
 2004SOL    HW2 7846  14.430  12.202   0.177
 2005SOL     OW 7847  11.780   3.948  14.339
 2005SOL    HW1 7848  11.852   3.916  14.394
 2005SOL    HW2 7849  11.799   4.041  14.328
 2006SOL     OW 7850  13.051  11.476  14.278
 2006SOL    HW1 7851  13.137  11.468  14.235
 2006SOL    HW2 7852  13.072  11.482  14.371
 2007SOL     OW 7853   7.371   9.825   3.554
 2007SOL    HW1 7854   7.279   9.826   3.577
 2007SOL    HW2 7855   7.374   9.858   3.465
 2008SOL     OW 7856   1.978   3.251   4.521
 2008SOL    HW1 7857   1.959   3.319   4.457
 2008SOL    HW2 7858   2.072   3.235   4.513
 2009SOL     OW 7859  14.496   1.392   6.293
 2009SOL    HW1 7860  14.575   1.339   6.278
 2009SOL    HW2 7861  14.529   1.474   6.330
 2010SOL     OW 7862   3.682   5.959   8.782
 2010SOL    HW1 7863   3.632   5.971   8.863
 2010SOL    HW2 7864   3.622   5.984   8.712
 2011SOL     OW 7865   8.900   9.642   3.582
 2011SOL    HW1 7866   8.832   9.577   3.567
 2011SOL    HW2 7867   8.910   9.685   3.497
 2012SOL     OW 7868   7.832   4.138   7.934
 2012SOL    HW1 7869   7.906   4.192   7.960
 2012SOL    HW2 7870   7.754   4.187   7.961
 2013SOL     OW 7871  14.120   7.393   1.213
 2013SOL    HW1 7872  14.132   7.470   1.157
 2013SOL    HW2 7873  14.026   7.380   1.216
 2014SOL     OW 7874  14.008   2.415   6.253
 2014SOL    HW1 7875  14.053   2.413   6.337
 2014SOL    HW2 7876  13.929   2.364   6.267
 2015SOL     OW 7877   2.854   9.075   3.395
 2015SOL    HW1 7878   2.822   9.143   3.453
 2015SOL    HW2 7879   2.783   9.062   3.332
 2016SOL     OW 7880   3.064   2.919   3.292
 2016SOL    HW1 7881   3.091   2.963   3.212
 2016SOL    HW2 7882   2.968   2.919   3.288
 2017SOL     OW 7883  11.809   4.378  12.580
 2017SOL    HW1 7884  11.722   4.393  12.544
 2017SOL    HW2 7885  11.858   4.338  12.508
 2018SOL     OW 7886   2.373  12.851  11.279
 2018SOL    HW1 7887   2.336  12.851  11.367
 2018SOL    HW2 7888   2.308  12.803  11.227
 2019SOL     OW 7889   6.815   9.133   8.082
 2019SOL    HW1 7890   6.769   9.216   8.096
 2019SOL    HW2 7891   6.753   9.066   8.109
 2020SOL     OW 7892  12.570   6.042   4.328
 2020SOL    HW1 7893  12.504   6.062   4.393
 2020SOL    HW2 7894  12.614   6.126   4.312
 2021SOL     OW 7895   8.317  13.831   5.516
 2021SOL    HW1 7896   8.380  13.824   5.588
 2021SOL    HW2 7897   8.307  13.925   5.501
 2022SOL     OW 7898   6.290  10.827   5.017
 2022SOL    HW1 7899   6.248  10.877   5.087
 2022SOL    HW2 7900   6.257  10.866   4.936
 2023SOL     OW 7901   3.415   6.645  13.726
 2023SOL    HW1 7902   3.360   6.569  13.747
 2023SOL    HW2 7903   3.399   6.706  13.799
 2024SOL     OW 7904   3.197   1.871  12.886
 2024SOL    HW1 7905   3.191   1.923  12.806
 2024SOL    HW2 7906   3.255   1.798  12.864
 2025SOL     OW 7907   9.232   9.599  13.913
 2025SOL    HW1 7908   9.235   9.562  13.825
 2025SOL    HW2 7909   9.148   9.645  13.917
 2026SOL     OW 7910   3.004  13.796   1.594
 2026SOL    HW1 7911   2.976  13.877   1.550
 2026SOL    HW2 7912   2.923  13.757   1.627
 2027SOL     OW 7913  10.150  14.550   4.067
 2027SOL    HW1 7914  10.152  14.526   4.159
 2027SOL    HW2 7915  10.108  14.475   4.024
 2028SOL     OW 7916   3.774   8.096   4.788
 2028SOL    HW1 7917   3.804   8.140   4.868
 2028SOL    HW2 7918   3.796   8.004   4.802
 2029SOL     OW 7919  10.039   5.920   4.382
 2029SOL    HW1 7920   9.974   5.852   4.401
 2029SOL    HW2 7921  10.063   5.906   4.290
 2030SOL     OW 7922   7.671   4.710   9.096
 2030SOL    HW1 7923   7.719   4.671   9.169
 2030SOL    HW2 7924   7.725   4.783   9.067
 2031SOL     OW 7925   6.183   9.682   8.815
 2031SOL    HW1 7926   6.109   9.707   8.761
 2031SOL    HW2 7927   6.201   9.591   8.792
 2032SOL     OW 7928   8.844   6.245  11.092
 2032SOL    HW1 7929   8.938   6.263  11.083
 2032SOL    HW2 7930   8.817   6.216  11.005
 2033SOL     OW 7931   0.079  13.211   4.366
 2033SOL    HW1 7932   0.155  13.171   4.323
 2033SOL    HW2 7933   0.016  13.140   4.374
 2034SOL     OW 7934   7.413   6.969  13.272
 2034SOL    HW1 7935   7.505   6.943  13.277
 2034SOL    HW2 7936   7.372   6.902  13.216
 2035SOL     OW 7937   4.663   9.289   1.587
 2035SOL    HW1 7938   4.592   9.227   1.608
 2035SOL    HW2 7939   4.733   9.267   1.649
 2036SOL     OW 7940  10.343  13.665   7.431
 2036SOL    HW1 7941  10.349  13.667   7.336
 2036SOL    HW2 7942  10.257  13.626   7.449
 2037SOL     OW 7943   2.708  11.564  13.817
 2037SOL    HW1 7944   2.762  11.617  13.757
 2037SOL    HW2 7945   2.732  11.595  13.904
 2038SOL     OW 7946  11.786  11.591  11.889
 2038SOL    HW1 7947  11.725  11.550  11.829
 2038SOL    HW2 7948  11.872  11.578  11.849
 2039SOL     OW 7949   4.615  11.129   8.170
 2039SOL    HW1 7950   4.622  11.210   8.119
 2039SOL    HW2 7951   4.591  11.062   8.107
 2040SOL     OW 7952  12.910   6.242  10.216
 2040SOL    HW1 7953  12.991   6.243  10.165
 2040SOL    HW2 7954  12.932   6.289  10.296
 2041SOL     OW 7955   9.542  14.010   3.917
 2041SOL    HW1 7956   9.519  14.070   3.987
 2041SOL    HW2 7957   9.544  13.923   3.958
 2042SOL     OW 7958  10.848  13.974   6.384
 2042SOL    HW1 7959  10.791  13.972   6.307
 2042SOL    HW2 7960  10.804  14.033   6.446
 2043SOL     OW 7961   0.877   1.199  11.434
 2043SOL    HW1 7962   0.884   1.240  11.520
 2043SOL    HW2 7963   0.933   1.253  11.377
 2044SOL     OW 7964   9.536  12.086   8.406
 2044SOL    HW1 7965   9.617  12.061   8.451
 2044SOL    HW2 7966   9.476  12.110   8.476
 2045SOL     OW 7967   7.172   8.155   8.796
 2045SOL    HW1 7968   7.148   8.095   8.725
 2045SOL    HW2 7969   7.123   8.123   8.872
 2046SOL     OW 7970   4.033  12.211   6.288
 2046SOL    HW1 7971   4.067  12.269   6.220
 2046SOL    HW2 7972   4.098  12.141   6.294
 2047SOL     OW 7973  14.838   4.197  11.756
 2047SOL    HW1 7974  14.784   4.162  11.685
 2047SOL    HW2 7975   0.022   4.127  11.775
 2048SOL     OW 7976  14.866   2.959   1.956
 2048SOL    HW1 7977  14.834   2.907   2.030
 2048SOL    HW2 7978   0.061   3.008   1.991
 2049SOL     OW 7979  14.392  13.524   1.680
 2049SOL    HW1 7980  14.424  13.501   1.592
 2049SOL    HW2 7981  14.470  13.521   1.735
 2050SOL     OW 7982  11.678   0.860   6.935
 2050SOL    HW1 7983  11.720   0.778   6.908
 2050SOL    HW2 7984  11.584   0.843   6.925
 2051SOL     OW 7985   7.055   7.490   7.932
 2051SOL    HW1 7986   7.046   7.583   7.952
 2051SOL    HW2 7987   7.049   7.446   8.017
 2052SOL     OW 7988   3.718   8.637   3.855
 2052SOL    HW1 7989   3.718   8.595   3.942
 2052SOL    HW2 7990   3.697   8.728   3.873
 2053SOL     OW 7991  13.725  11.692  11.311
 2053SOL    HW1 7992  13.714  11.600  11.290
 2053SOL    HW2 7993  13.694  11.700  11.401
 2054SOL     OW 7994  12.491  12.836  10.412
 2054SOL    HW1 7995  12.558  12.787  10.461
 2054SOL    HW2 7996  12.422  12.852  10.476
 2055SOL     OW 7997   7.941  12.014   6.059
 2055SOL    HW1 7998   7.925  11.924   6.087
 2055SOL    HW2 7999   7.906  12.018   5.970
 2056SOL     OW 8000   7.127   8.139  12.233
 2056SOL    HW1 8001   7.160   8.069  12.176
 2056SOL    HW2 8002   7.192   8.146  12.303
 2057SOL     OW 8003  13.479  10.735   8.202
 2057SOL    HW1 8004  13.564  10.739   8.159
 2057SOL    HW2 8005  13.486  10.797   8.275
 2058SOL     OW 8006   3.778   6.556   6.234
 2058SOL    HW1 8007   3.869   6.583   6.224
 2058SOL    HW2 8008   3.772   6.527   6.325
 2059SOL     OW 8009   2.734   5.987   3.851
 2059SOL    HW1 8010   2.760   5.906   3.896
 2059SOL    HW2 8011   2.642   5.972   3.827
 2060SOL     OW 8012   3.211   2.011  12.423
 2060SOL    HW1 8013   3.286   1.952  12.416
 2060SOL    HW2 8014   3.194   2.038  12.332
 2061SOL     OW 8015   4.027   5.449   3.092
 2061SOL    HW1 8016   4.120   5.454   3.071
 2061SOL    HW2 8017   4.015   5.359   3.123
 2062SOL     OW 8018   4.236   7.251   9.647
 2062SOL    HW1 8019   4.204   7.225   9.560
 2062SOL    HW2 8020   4.215   7.175   9.703
 2063SOL     OW 8021   3.440   8.019   3.874
 2063SOL    HW1 8022   3.488   8.051   3.950
 2063SOL    HW2 8023   3.509   7.998   3.810
 2064SOL     OW 8024   9.223   2.656   9.183
 2064SOL    HW1 8025   9.133   2.673   9.153
 2064SOL    HW2 8026   9.212   2.610   9.266
 2065SOL     OW 8027   3.954   1.279   4.335
 2065SOL    HW1 8028   3.864   1.281   4.301
 2065SOL    HW2 8029   4.006   1.240   4.265
 2066SOL     OW 8030   4.687   6.591   2.943
 2066SOL    HW1 8031   4.763   6.647   2.928
 2066SOL    HW2 8032   4.684   6.533   2.867
 2067SOL     OW 8033   1.622   5.381  14.389
 2067SOL    HW1 8034   1.647   5.326  14.464
 2067SOL    HW2 8035   1.531   5.405  14.407
 2068SOL     OW 8036   7.220   4.431   2.061
 2068SOL    HW1 8037   7.134   4.413   2.100
 2068SOL    HW2 8038   7.231   4.526   2.071
 2069SOL     OW 8039   7.800   3.053  13.786
 2069SOL    HW1 8040   7.780   3.144  13.766
 2069SOL    HW2 8041   7.766   3.039  13.874
 2070SOL     OW 8042  13.847   1.671  14.431
 2070SOL    HW1 8043  13.940   1.652  14.421
 2070SOL    HW2 8044  13.803   1.588  14.415
 2071SOL     OW 8045   3.927  12.067  14.306
 2071SOL    HW1 8046   3.905  11.974  14.302
 2071SOL    HW2 8047   3.988  12.074  14.379
 2072SOL     OW 8048   2.643   3.375   6.416
 2072SOL    HW1 8049   2.731   3.337   6.425
 2072SOL    HW2 8050   2.586   3.316   6.465
 2073SOL     OW 8051  11.220   9.196   5.335
 2073SOL    HW1 8052  11.157   9.125   5.324
 2073SOL    HW2 8053  11.208   9.226   5.426
 2074SOL     OW 8054   2.763   8.833   1.842
 2074SOL    HW1 8055   2.713   8.913   1.825
 2074SOL    HW2 8056   2.800   8.846   1.929
 2075SOL     OW 8057   2.949   6.231  11.333
 2075SOL    HW1 8058   2.941   6.305  11.392
 2075SOL    HW2 8059   2.859   6.203  11.317
 2076SOL     OW 8060   9.707   3.891   7.385
 2076SOL    HW1 8061   9.652   3.964   7.357
 2076SOL    HW2 8062   9.674   3.867   7.471
 2077SOL     OW 8063  12.746   8.849   0.155
 2077SOL    HW1 8064  12.672   8.895   0.196
 2077SOL    HW2 8065  12.819   8.862   0.216
 2078SOL     OW 8066   9.910   1.654   2.789
 2078SOL    HW1 8067   9.971   1.726   2.772
 2078SOL    HW2 8068   9.967   1.580   2.811
 2079SOL     OW 8069  12.388  13.244   8.418
 2079SOL    HW1 8070  12.295  13.238   8.400
 2079SOL    HW2 8071  12.430  13.197   8.346
 2080SOL     OW 8072  13.330   0.457   4.419
 2080SOL    HW1 8073  13.274   0.384   4.390
 2080SOL    HW2 8074  13.417   0.418   4.428
 2081SOL     OW 8075   4.509  14.866   6.104
 2081SOL    HW1 8076   4.481  14.843   6.193
 2081SOL    HW2 8077   4.555  14.788   6.073
 2082SOL     OW 8078   0.199   6.950  13.954
 2082SOL    HW1 8079   0.118   6.991  13.925
 2082SOL    HW2 8080   0.230   7.007  14.025
 2083SOL     OW 8081   0.936   5.636   3.577
 2083SOL    HW1 8082   0.917   5.598   3.491
 2083SOL    HW2 8083   1.017   5.592   3.605
 2084SOL     OW 8084   3.894   3.422  11.445
 2084SOL    HW1 8085   3.894   3.517  11.432
 2084SOL    HW2 8086   3.831   3.408  11.516
 2085SOL     OW 8087  11.228   6.010   2.806
 2085SOL    HW1 8088  11.303   5.953   2.820
 2085SOL    HW2 8089  11.184   6.013   2.891
 2086SOL     OW 8090  14.215  12.866   7.845
 2086SOL    HW1 8091  14.257  12.900   7.925
 2086SOL    HW2 8092  14.134  12.826   7.876
 2087SOL     OW 8093  10.676   5.992   4.714
 2087SOL    HW1 8094  10.700   6.049   4.641
 2087SOL    HW2 8095  10.652   6.052   4.785
 2088SOL     OW 8096  14.319   8.317   4.154
 2088SOL    HW1 8097  14.403   8.273   4.172
 2088SOL    HW2 8098  14.254   8.247   4.157
 2089SOL     OW 8099   3.499   6.600   8.340
 2089SOL    HW1 8100   3.455   6.636   8.417
 2089SOL    HW2 8101   3.498   6.671   8.276
 2090SOL     OW 8102   7.624  14.316   3.528
 2090SOL    HW1 8103   7.680  14.335   3.453
 2090SOL    HW2 8104   7.645  14.226   3.551
 2091SOL     OW 8105   1.095   6.343   3.243
 2091SOL    HW1 8106   1.034   6.269   3.236
 2091SOL    HW2 8107   1.080   6.376   3.332
 2092SOL     OW 8108   8.289   8.944   0.249
 2092SOL    HW1 8109   8.362   8.921   0.193
 2092SOL    HW2 8110   8.324   8.938   0.338
 2093SOL     OW 8111  12.582   7.624   4.158
 2093SOL    HW1 8112  12.593   7.582   4.072
 2093SOL    HW2 8113  12.528   7.563   4.208
 2094SOL     OW 8114   6.557   0.388   4.206
 2094SOL    HW1 8115   6.560   0.394   4.301
 2094SOL    HW2 8116   6.599   0.468   4.175
 2095SOL     OW 8117   8.743   6.968  12.995
 2095SOL    HW1 8118   8.799   7.019  12.936
 2095SOL    HW2 8119   8.794   6.961  13.076
 2096SOL     OW 8120  13.891   1.563   7.688
 2096SOL    HW1 8121  13.907   1.605   7.603
 2096SOL    HW2 8122  13.798   1.577   7.704
 2097SOL     OW 8123  13.789   0.766   1.094
 2097SOL    HW1 8124  13.881   0.783   1.073
 2097SOL    HW2 8125  13.742   0.840   1.054
 2098SOL     OW 8126   3.496   5.488  13.254
 2098SOL    HW1 8127   3.576   5.449  13.218
 2098SOL    HW2 8128   3.471   5.555  13.191
 2099SOL     OW 8129   1.117  12.048  14.869
 2099SOL    HW1 8130   1.093  12.124  14.816
 2099SOL    HW2 8131   1.034  12.003   0.007
 2100SOL     OW 8132   5.325   3.780   2.304
 2100SOL    HW1 8133   5.263   3.801   2.374
 2100SOL    HW2 8134   5.305   3.690   2.279
 2101SOL     OW 8135   9.278  13.641  12.644
 2101SOL    HW1 8136   9.323  13.557  12.649
 2101SOL    HW2 8137   9.346  13.706  12.663
 2102SOL     OW 8138  11.575   9.360   5.422
 2102SOL    HW1 8139  11.601   9.308   5.498
 2102SOL    HW2 8140  11.606   9.310   5.347
 2103SOL     OW 8141   7.060  13.959   2.644
 2103SOL    HW1 8142   7.058  13.886   2.706
 2103SOL    HW2 8143   6.978  14.006   2.660
 2104SOL     OW 8144   1.429   3.456   9.045
 2104SOL    HW1 8145   1.336   3.467   9.064
 2104SOL    HW2 8146   1.446   3.516   8.972
 2105SOL     OW 8147   7.608   2.829  13.353
 2105SOL    HW1 8148   7.622   2.918  13.387
 2105SOL    HW2 8149   7.579   2.779  13.429
 2106SOL     OW 8150   3.334   1.421   5.555
 2106SOL    HW1 8151   3.281   1.493   5.590
 2106SOL    HW2 8152   3.414   1.462   5.524
 2107SOL     OW 8153  13.776   0.056  14.837
 2107SOL    HW1 8154  13.858   0.106  14.834
 2107SOL    HW2 8155  13.749   0.048  14.746
 2108SOL     OW 8156   5.365  14.561   5.018
 2108SOL    HW1 8157   5.325  14.612   4.948
 2108SOL    HW2 8158   5.328  14.473   5.008
 2109SOL     OW 8159   3.868  13.334   6.593
 2109SOL    HW1 8160   3.783  13.313   6.554
 2109SOL    HW2 8161   3.925  13.262   6.567
 2110SOL     OW 8162   3.602   7.096   5.393
 2110SOL    HW1 8163   3.540   7.067   5.326
 2110SOL    HW2 8164   3.548   7.133   5.462
 2111SOL     OW 8165   5.786   4.211   1.104
 2111SOL    HW1 8166   5.790   4.283   1.042
 2111SOL    HW2 8167   5.853   4.232   1.169
 2112SOL     OW 8168   5.824   5.870   5.410
 2112SOL    HW1 8169   5.886   5.807   5.445
 2112SOL    HW2 8170   5.878   5.937   5.368
 2113SOL     OW 8171  14.325   8.678  12.716
 2113SOL    HW1 8172  14.231   8.676  12.733
 2113SOL    HW2 8173  14.358   8.748  12.772
 2114SOL     OW 8174   1.290   4.265   3.398
 2114SOL    HW1 8175   1.207   4.299   3.430
 2114SOL    HW2 8176   1.352   4.337   3.408
 2115SOL     OW 8177   7.775   0.904  14.134
 2115SOL    HW1 8178   7.777   0.947  14.048
 2115SOL    HW2 8179   7.786   0.975  14.197
 2116SOL     OW 8180  14.565   7.662  13.202
 2116SOL    HW1 8181  14.625   7.721  13.247
 2116SOL    HW2 8182  14.519   7.717  13.139
 2117SOL     OW 8183   5.733  13.092   8.501
 2117SOL    HW1 8184   5.663  13.097   8.435
 2117SOL    HW2 8185   5.687  13.066   8.582
 2118SOL     OW 8186   3.433  14.865   8.605
 2118SOL    HW1 8187   3.363   0.028   8.556
 2118SOL    HW2 8188   3.441  14.778   8.566
 2119SOL     OW 8189   6.707   8.331  14.096
 2119SOL    HW1 8190   6.652   8.360  14.169
 2119SOL    HW2 8191   6.672   8.377  14.020
 2120SOL     OW 8192   8.629   1.283   5.658
 2120SOL    HW1 8193   8.631   1.266   5.752
 2120SOL    HW2 8194   8.536   1.292   5.637
 2121SOL     OW 8195  10.055  14.597   5.582
 2121SOL    HW1 8196   9.959  14.603   5.582
 2121SOL    HW2 8197  10.074  14.513   5.540
 2122SOL     OW 8198  14.544   5.691  10.729
 2122SOL    HW1 8199  14.498   5.690  10.645
 2122SOL    HW2 8200  14.632   5.657  10.709
 2123SOL     OW 8201  10.386  11.550   0.666
 2123SOL    HW1 8202  10.424  11.576   0.582
 2123SOL    HW2 8203  10.457  11.563   0.729
 2124SOL     OW 8204   5.074   3.973  10.320
 2124SOL    HW1 8205   5.148   3.984  10.379
 2124SOL    HW2 8206   5.039   3.887  10.342
 2125SOL     OW 8207   2.243  10.147  14.294
 2125SOL    HW1 8208   2.309  10.201  14.252
 2125SOL    HW2 8209   2.287  10.063  14.310
 2126SOL     OW 8210  14.604   0.859  11.861
 2126SOL    HW1 8211  14.511   0.875  11.850
 2126SOL    HW2 8212  14.616   0.847  11.956
 2127SOL     OW 8213   6.952   6.661   1.072
 2127SOL    HW1 8214   6.960   6.721   1.146
 2127SOL    HW2 8215   6.982   6.576   1.105
 2128SOL     OW 8216   4.125  11.099  13.905
 2128SOL    HW1 8217   4.141  11.128  13.815
 2128SOL    HW2 8218   4.047  11.044  13.899
 2129SOL     OW 8219   6.222   3.179   3.727
 2129SOL    HW1 8220   6.127   3.171   3.729
 2129SOL    HW2 8221   6.242   3.246   3.793
 2130SOL     OW 8222   9.054   3.917   3.036
 2130SOL    HW1 8223   9.074   3.980   2.966
 2130SOL    HW2 8224   8.984   3.862   2.999
 2131SOL     OW 8225  12.967   4.031  12.066
 2131SOL    HW1 8226  12.961   4.102  12.130
 2131SOL    HW2 8227  12.877   4.002  12.053
 2132SOL     OW 8228   8.664   2.618   9.171
 2132SOL    HW1 8229   8.610   2.558   9.223
 2132SOL    HW2 8230   8.658   2.702   9.217
 2133SOL     OW 8231   1.816   6.170   5.304
 2133SOL    HW1 8232   1.872   6.146   5.378
 2133SOL    HW2 8233   1.817   6.266   5.303
 2134SOL     OW 8234  11.687  10.204   7.102
 2134SOL    HW1 8235  11.762  10.264   7.103
 2134SOL    HW2 8236  11.642  10.224   7.020
 2135SOL     OW 8237   8.080  14.844   8.205
 2135SOL    HW1 8238   8.168  14.866   8.237
 2135SOL    HW2 8239   8.062  14.758   8.243
 2136SOL     OW 8240   2.971   5.326   6.677
 2136SOL    HW1 8241   2.985   5.252   6.618
 2136SOL    HW2 8242   2.935   5.287   6.757
 2137SOL     OW 8243   8.541   2.945   1.285
 2137SOL    HW1 8244   8.449   2.922   1.301
 2137SOL    HW2 8245   8.575   2.871   1.235
 2138SOL     OW 8246   5.399   0.979  13.515
 2138SOL    HW1 8247   5.435   1.067  13.503
 2138SOL    HW2 8248   5.347   0.964  13.436
 2139SOL     OW 8249  13.749   3.085   8.244
 2139SOL    HW1 8250  13.819   3.020   8.253
 2139SOL    HW2 8251  13.694   3.073   8.321
 2140SOL     OW 8252  13.927   7.485   8.547
 2140SOL    HW1 8253  13.996   7.454   8.605
 2140SOL    HW2 8254  13.954   7.574   8.522
 2141SOL     OW 8255  11.069   4.520   2.905
 2141SOL    HW1 8256  11.116   4.599   2.879
 2141SOL    HW2 8257  11.118   4.449   2.862
 2142SOL     OW 8258  12.479  14.517   5.186
 2142SOL    HW1 8259  12.383  14.523   5.178
 2142SOL    HW2 8260  12.511  14.603   5.159
 2143SOL     OW 8261   7.435  10.763   0.870
 2143SOL    HW1 8262   7.359  10.727   0.915
 2143SOL    HW2 8263   7.508  10.707   0.897
 2144SOL     OW 8264  10.641   3.349   7.333
 2144SOL    HW1 8265  10.596   3.430   7.357
 2144SOL    HW2 8266  10.679   3.366   7.247
 2145SOL     OW 8267   2.893  13.649   6.509
 2145SOL    HW1 8268   2.828  13.717   6.529
 2145SOL    HW2 8269   2.886  13.587   6.582
 2146SOL     OW 8270   8.409   0.285   0.393
 2146SOL    HW1 8271   8.381   0.348   0.327
 2146SOL    HW2 8272   8.357   0.206   0.376
 2147SOL     OW 8273   0.266   8.171   7.818
 2147SOL    HW1 8274   0.313   8.106   7.766
 2147SOL    HW2 8275   0.187   8.190   7.768
 2148SOL     OW 8276  10.202  13.150   5.549
 2148SOL    HW1 8277  10.196  13.174   5.457
 2148SOL    HW2 8278  10.222  13.056   5.549
 2149SOL     OW 8279   2.161   2.231   1.391
 2149SOL    HW1 8280   2.107   2.152   1.396
 2149SOL    HW2 8281   2.186   2.248   1.482
 2150SOL     OW 8282   8.355   9.295  12.247
 2150SOL    HW1 8283   8.274   9.244  12.256
 2150SOL    HW2 8284   8.367   9.306  12.153
 2151SOL     OW 8285   4.846   2.797   4.496
 2151SOL    HW1 8286   4.920   2.748   4.461
 2151SOL    HW2 8287   4.865   2.888   4.473
 2152SOL     OW 8288   7.966   4.506   8.169
 2152SOL    HW1 8289   7.898   4.451   8.209
 2152SOL    HW2 8290   8.032   4.443   8.139
 2153SOL     OW 8291   9.513   1.705   2.970
 2153SOL    HW1 8292   9.554   1.751   3.043
 2153SOL    HW2 8293   9.495   1.773   2.905
 2154SOL     OW 8294   0.963   8.924   2.761
 2154SOL    HW1 8295   1.052   8.917   2.726
 2154SOL    HW2 8296   0.957   8.855   2.827
 2155SOL     OW 8297  12.942   0.490   5.803
 2155SOL    HW1 8298  12.889   0.551   5.751
 2155SOL    HW2 8299  12.930   0.405   5.762
 2156SOL     OW 8300   8.873   2.333   5.133
 2156SOL    HW1 8301   8.962   2.367   5.138
 2156SOL    HW2 8302   8.818   2.404   5.167
 2157SOL     OW 8303  14.709   9.342   3.744
 2157SOL    HW1 8304  14.688   9.396   3.821
 2157SOL    HW2 8305  14.682   9.395   3.669
 2158SOL     OW 8306   4.842   4.889   7.025
 2158SOL    HW1 8307   4.791   4.828   6.971
 2158SOL    HW2 8308   4.840   4.972   6.976
 2159SOL     OW 8309  12.489  12.439   3.907
 2159SOL    HW1 8310  12.441  12.463   3.828
 2159SOL    HW2 8311  12.536  12.518   3.932
 2160SOL     OW 8312   6.358   2.720   4.295
 2160SOL    HW1 8313   6.332   2.778   4.367
 2160SOL    HW2 8314   6.453   2.727   4.292
 2161SOL     OW 8315  13.254   3.721  11.502
 2161SOL    HW1 8316  13.284   3.716  11.593
 2161SOL    HW2 8317  13.249   3.814  11.483
 2162SOL     OW 8318   4.527   8.904  13.189
 2162SOL    HW1 8319   4.446   8.854  13.180
 2162SOL    HW2 8320   4.597   8.841  13.170
 2163SOL     OW 8321   5.366  10.002  13.290
 2163SOL    HW1 8322   5.455   9.966  13.286
 2163SOL    HW2 8323   5.371  10.085  13.244
 2164SOL     OW 8324  12.360   3.514   3.218
 2164SOL    HW1 8325  12.287   3.544   3.165
 2164SOL    HW2 8326  12.385   3.430   3.179
 2165SOL     OW 8327   2.905  13.369  14.672
 2165SOL    HW1 8328   2.854  13.382  14.592
 2165SOL    HW2 8329   2.996  13.376  14.643
 2166SOL     OW 8330   6.440  10.523   6.465
 2166SOL    HW1 8331   6.475  10.438   6.437
 2166SOL    HW2 8332   6.508  10.558   6.522
 2167SOL     OW 8333   7.817   3.789  11.263
 2167SOL    HW1 8334   7.877   3.810  11.335
 2167SOL    HW2 8335   7.769   3.871  11.248
 2168SOL     OW 8336   5.442  13.251  10.019
 2168SOL    HW1 8337   5.495  13.254   9.939
 2168SOL    HW2 8338   5.474  13.175  10.066
 2169SOL     OW 8339   8.914   6.125   5.946
 2169SOL    HW1 8340   8.968   6.079   5.883
 2169SOL    HW2 8341   8.828   6.084   5.939
 2170SOL     OW 8342   9.632  12.696   7.398
 2170SOL    HW1 8343   9.609  12.738   7.481
 2170SOL    HW2 8344   9.550  12.693   7.349
 2171SOL     OW 8345   9.733   7.400   0.985
 2171SOL    HW1 8346   9.655   7.418   0.932
 2171SOL    HW2 8347   9.801   7.379   0.921
 2172SOL     OW 8348  10.388   6.359  14.646
 2172SOL    HW1 8349  10.373   6.365  14.740
 2172SOL    HW2 8350  10.459   6.421  14.628
 2173SOL     OW 8351  10.476   7.700   0.682
 2173SOL    HW1 8352  10.568   7.716   0.704
 2173SOL    HW2 8353  10.470   7.718   0.588
 2174SOL     OW 8354  10.565  14.702  12.471
 2174SOL    HW1 8355  10.595  14.619  12.508
 2174SOL    HW2 8356  10.471  14.691  12.460
 2175SOL     OW 8357   4.927   1.938   0.096
 2175SOL    HW1 8358   5.006   1.952   0.043
 2175SOL    HW2 8359   4.893   2.025   0.111
 2176SOL     OW 8360  13.963   4.991   3.808
 2176SOL    HW1 8361  14.007   5.066   3.849
 2176SOL    HW2 8362  14.031   4.949   3.755
 2177SOL     OW 8363   1.144  10.607   0.350
 2177SOL    HW1 8364   1.056  10.571   0.366
 2177SOL    HW2 8365   1.183  10.613   0.437
 2178SOL     OW 8366  11.218   5.485   5.979
 2178SOL    HW1 8367  11.122   5.485   5.973
 2178SOL    HW2 8368  11.247   5.453   5.894
 2179SOL     OW 8369   1.583   9.783   6.547
 2179SOL    HW1 8370   1.639   9.713   6.579
 2179SOL    HW2 8371   1.641   9.860   6.542
 2180SOL     OW 8372   0.692   5.510   8.781
 2180SOL    HW1 8373   0.784   5.537   8.780
 2180SOL    HW2 8374   0.671   5.498   8.873
 2181SOL     OW 8375   4.151  10.636   1.731
 2181SOL    HW1 8376   4.208  10.567   1.763
 2181SOL    HW2 8377   4.205  10.715   1.734
 2182SOL     OW 8378   1.317   2.965   8.187
 2182SOL    HW1 8379   1.248   2.935   8.129
 2182SOL    HW2 8380   1.398   2.933   8.147
 2183SOL     OW 8381   1.812   1.731  11.521
 2183SOL    HW1 8382   1.799   1.705  11.429
 2183SOL    HW2 8383   1.891   1.784  11.520
 2184SOL     OW 8384   7.826  10.959  11.702
 2184SOL    HW1 8385   7.818  10.962  11.798
 2184SOL    HW2 8386   7.771  10.886  11.676
 2185SOL     OW 8387  12.332   2.870   6.014
 2185SOL    HW1 8388  12.323   2.777   6.035
 2185SOL    HW2 8389  12.243   2.899   5.995
 2186SOL     OW 8390   2.192   6.213  11.091
 2186SOL    HW1 8391   2.124   6.234  11.155
 2186SOL    HW2 8392   2.274   6.234  11.136
 2187SOL     OW 8393   9.890  14.574  12.321
 2187SOL    HW1 8394   9.811  14.593  12.372
 2187SOL    HW2 8395   9.953  14.543  12.386
 2188SOL     OW 8396  14.616  12.104   4.979
 2188SOL    HW1 8397  14.667  12.037   5.024
 2188SOL    HW2 8398  14.555  12.137   5.046
 2189SOL     OW 8399   4.885   7.733   3.938
 2189SOL    HW1 8400   4.928   7.717   4.021
 2189SOL    HW2 8401   4.802   7.775   3.961
 2190SOL     OW 8402   9.094  10.550  10.351
 2190SOL    HW1 8403   9.076  10.508  10.267
 2190SOL    HW2 8404   9.158  10.494  10.393
 2191SOL     OW 8405   3.127  12.088  11.336
 2191SOL    HW1 8406   3.141  12.158  11.400
 2191SOL    HW2 8407   3.058  12.121  11.279
 2192SOL     OW 8408   6.735   4.730   2.903
 2192SOL    HW1 8409   6.778   4.792   2.844
 2192SOL    HW2 8410   6.720   4.652   2.850
 2193SOL     OW 8411  11.828   4.877   1.306
 2193SOL    HW1 8412  11.882   4.951   1.332
 2193SOL    HW2 8413  11.754   4.916   1.258
 2194SOL     OW 8414   7.133  10.041   6.186
 2194SOL    HW1 8415   7.095  10.016   6.102
 2194SOL    HW2 8416   7.064  10.024   6.250
 2195SOL     OW 8417   4.274  12.893   8.724
 2195SOL    HW1 8418   4.239  12.829   8.786
 2195SOL    HW2 8419   4.250  12.859   8.638
 2196SOL     OW 8420  12.493  11.179   5.010
 2196SOL    HW1 8421  12.570  11.160   5.064
 2196SOL    HW2 8422  12.461  11.263   5.044
 2197SOL     OW 8423   4.890  10.333  12.798
 2197SOL    HW1 8424   4.956  10.298  12.738
 2197SOL    HW2 8425   4.919  10.303  12.885
 2198SOL     OW 8426  14.643   3.359   5.394
 2198SOL    HW1 8427  14.641   3.411   5.475
 2198SOL    HW2 8428  14.736   3.351   5.373
 2199SOL     OW 8429   2.079  12.337  11.877
 2199SOL    HW1 8430   2.175  12.335  11.881
 2199SOL    HW2 8431   2.057  12.429  11.868
 2200SOL     OW 8432   1.664   5.566   7.214
 2200SOL    HW1 8433   1.727   5.557   7.286
 2200SOL    HW2 8434   1.628   5.654   7.225
 2201SOL     OW 8435   4.420  10.076   3.351
 2201SOL    HW1 8436   4.370  10.150   3.387
 2201SOL    HW2 8437   4.375  10.054   3.270
 2202SOL     OW 8438   8.657   4.287  11.458
 2202SOL    HW1 8439   8.677   4.380  11.470
 2202SOL    HW2 8440   8.741   4.243  11.471
 2203SOL     OW 8441  13.424  12.837   3.015
 2203SOL    HW1 8442  13.513  12.836   3.051
 2203SOL    HW2 8443  13.387  12.753   3.041
 2204SOL     OW 8444   6.793  10.078   9.147
 2204SOL    HW1 8445   6.806  10.063   9.053
 2204SOL    HW2 8446   6.781   9.991   9.184
 2205SOL     OW 8447  13.636  12.270  10.075
 2205SOL    HW1 8448  13.609  12.357  10.104
 2205SOL    HW2 8449  13.715  12.251  10.125
 2206SOL     OW 8450   7.117  14.119   2.146
 2206SOL    HW1 8451   7.206  14.104   2.113
 2206SOL    HW2 8452   7.124  14.106   2.241
 2207SOL     OW 8453   6.615  11.376   4.472
 2207SOL    HW1 8454   6.659  11.413   4.548
 2207SOL    HW2 8455   6.673  11.305   4.443
 2208SOL     OW 8456   2.211  14.083  14.109
 2208SOL    HW1 8457   2.202  14.137  14.188
 2208SOL    HW2 8458   2.247  14.000  14.141
 2209SOL     OW 8459  11.399   3.152   1.412
 2209SOL    HW1 8460  11.480   3.110   1.385
 2209SOL    HW2 8461  11.399   3.147   1.507
 2210SOL     OW 8462  10.909   4.650   3.665
 2210SOL    HW1 8463  10.987   4.596   3.672
 2210SOL    HW2 8464  10.912   4.706   3.742
 2211SOL     OW 8465   2.873  11.803   0.327
 2211SOL    HW1 8466   2.934  11.872   0.299
 2211SOL    HW2 8467   2.902  11.725   0.279
 2212SOL     OW 8468   1.184  14.679   5.217
 2212SOL    HW1 8469   1.096  14.642   5.225
 2212SOL    HW2 8470   1.168  14.773   5.203
 2213SOL     OW 8471   1.224   0.742   3.891
 2213SOL    HW1 8472   1.160   0.733   3.820
 2213SOL    HW2 8473   1.174   0.724   3.971
 2214SOL     OW 8474   3.037   0.456  10.178
 2214SOL    HW1 8475   2.943   0.450  10.158
 2214SOL    HW2 8476   3.077   0.385  10.127
 2215SOL     OW 8477  13.612   5.936   3.322
 2215SOL    HW1 8478  13.652   5.895   3.399
 2215SOL    HW2 8479  13.518   5.934   3.340
 2216SOL     OW 8480  12.870   8.423  11.479
 2216SOL    HW1 8481  12.913   8.337  11.483
 2216SOL    HW2 8482  12.793   8.408  11.423
 2217SOL     OW 8483   2.584   5.635  10.066
 2217SOL    HW1 8484   2.515   5.701  10.065
 2217SOL    HW2 8485   2.557   5.573  10.134
 2218SOL     OW 8486  13.495  10.196   3.439
 2218SOL    HW1 8487  13.413  10.161   3.475
 2218SOL    HW2 8488  13.564  10.155   3.492
 2219SOL     OW 8489  12.045   5.496   0.222
 2219SOL    HW1 8490  12.062   5.570   0.281
 2219SOL    HW2 8491  11.953   5.505   0.198
 2220SOL     OW 8492   6.780   7.771   0.716
 2220SOL    HW1 8493   6.845   7.829   0.756
 2220SOL    HW2 8494   6.722   7.830   0.668
 2221SOL     OW 8495   2.430   7.755   2.172
 2221SOL    HW1 8496   2.497   7.696   2.138
 2221SOL    HW2 8497   2.478   7.815   2.229
 2222SOL     OW 8498   0.412   3.749   3.556
 2222SOL    HW1 8499   0.411   3.654   3.571
 2222SOL    HW2 8500   0.326   3.779   3.585
 2223SOL     OW 8501   7.992   4.588   6.682
 2223SOL    HW1 8502   7.910   4.598   6.730
 2223SOL    HW2 8503   8.008   4.493   6.681
 2224SOL     OW 8504   5.881  10.862   3.890
 2224SOL    HW1 8505   5.792  10.873   3.856
 2224SOL    HW2 8506   5.926  10.809   3.824
 2225SOL     OW 8507  10.182  11.581   6.047
 2225SOL    HW1 8508  10.171  11.553   5.956
 2225SOL    HW2 8509  10.130  11.518   6.098
 2226SOL     OW 8510   3.450   8.954   8.829
 2226SOL    HW1 8511   3.428   8.943   8.737
 2226SOL    HW2 8512   3.370   8.928   8.876
 2227SOL     OW 8513   1.318  14.471  13.337
 2227SOL    HW1 8514   1.378  14.543  13.357
 2227SOL    HW2 8515   1.232  14.513  13.333
 2228SOL     OW 8516  12.187   8.192   4.081
 2228SOL    HW1 8517  12.198   8.280   4.119
 2228SOL    HW2 8518  12.093   8.176   4.085
 2229SOL     OW 8519   4.318   4.649   5.318
 2229SOL    HW1 8520   4.384   4.677   5.255
 2229SOL    HW2 8521   4.239   4.698   5.293
 2230SOL     OW 8522   5.217   3.418   6.428
 2230SOL    HW1 8523   5.280   3.447   6.494
 2230SOL    HW2 8524   5.205   3.495   6.371
 2231SOL     OW 8525   1.964  13.670   6.474
 2231SOL    HW1 8526   2.058  13.656   6.488
 2231SOL    HW2 8527   1.945  13.623   6.393
 2232SOL     OW 8528  12.353  11.804   3.559
 2232SOL    HW1 8529  12.337  11.864   3.633
 2232SOL    HW2 8530  12.339  11.858   3.481
 2233SOL     OW 8531   3.859   1.717  14.635
 2233SOL    HW1 8532   3.941   1.725  14.586
 2233SOL    HW2 8533   3.877   1.648  14.699
 2234SOL     OW 8534  14.119   1.128  12.117
 2234SOL    HW1 8535  14.035   1.097  12.153
 2234SOL    HW2 8536  14.129   1.216  12.153
 2235SOL     OW 8537  14.722  10.439   2.484
 2235SOL    HW1 8538  14.779  10.426   2.559
 2235SOL    HW2 8539  14.779  10.470   2.414
 2236SOL     OW 8540   9.615   5.792   1.571
 2236SOL    HW1 8541   9.568   5.862   1.618
 2236SOL    HW2 8542   9.626   5.826   1.482
 2237SOL     OW 8543  10.475   3.439   6.519
 2237SOL    HW1 8544  10.484   3.344   6.506
 2237SOL    HW2 8545  10.449   3.449   6.610
 2238SOL     OW 8546  11.983   0.963  14.244
 2238SOL    HW1 8547  12.072   0.930  14.250
 2238SOL    HW2 8548  11.984   1.043  14.297
 2239SOL     OW 8549   2.758  11.301  14.367
 2239SOL    HW1 8550   2.707  11.253  14.432
 2239SOL    HW2 8551   2.736  11.259  14.284
 2240SOL     OW 8552  10.834  10.556   8.119
 2240SOL    HW1 8553  10.912  10.567   8.173
 2240SOL    HW2 8554  10.797  10.643   8.111
 2241SOL     OW 8555   7.023  14.377  11.297
 2241SOL    HW1 8556   7.074  14.429  11.358
 2241SOL    HW2 8557   6.950  14.434  11.273
 2242SOL     OW 8558   5.020  14.112   1.619
 2242SOL    HW1 8559   5.103  14.128   1.575
 2242SOL    HW2 8560   4.967  14.065   1.554
 2243SOL     OW 8561   7.649   8.918   2.532
 2243SOL    HW1 8562   7.659   8.957   2.619
 2243SOL    HW2 8563   7.671   8.826   2.543
 2244SOL     OW 8564   8.298  11.134   3.086
 2244SOL    HW1 8565   8.392  11.125   3.068
 2244SOL    HW2 8566   8.266  11.044   3.091
 2245SOL     OW 8567   6.860   7.183   1.626
 2245SOL    HW1 8568   6.766   7.186   1.608
 2245SOL    HW2 8569   6.867   7.197   1.721
 2246SOL     OW 8570  14.752   8.572   5.938
 2246SOL    HW1 8571  14.817   8.619   5.885
 2246SOL    HW2 8572  14.798   8.553   6.021
 2247SOL     OW 8573   2.567   9.599  13.742
 2247SOL    HW1 8574   2.489   9.620  13.691
 2247SOL    HW2 8575   2.540   9.529  13.801
 2248SOL     OW 8576   2.062   8.709   0.677
 2248SOL    HW1 8577   2.156   8.729   0.669
 2248SOL    HW2 8578   2.054   8.619   0.645
 2249SOL     OW 8579   5.508   5.418   7.250
 2249SOL    HW1 8580   5.484   5.343   7.304
 2249SOL    HW2 8581   5.428   5.441   7.204
 2250SOL     OW 8582   0.957  13.477   7.767
 2250SOL    HW1 8583   1.002  13.420   7.830
 2250SOL    HW2 8584   0.923  13.416   7.700
 2251SOL     OW 8585   8.252  10.321   6.524
 2251SOL    HW1 8586   8.277  10.293   6.437
 2251SOL    HW2 8587   8.191  10.253   6.555
 2252SOL     OW 8588  14.573   2.818  11.518
 2252SOL    HW1 8589  14.585   2.724  11.500
 2252SOL    HW2 8590  14.578   2.859  11.431
 2253SOL     OW 8591  14.373   8.149  11.577
 2253SOL    HW1 8592  14.411   8.099  11.649
 2253SOL    HW2 8593  14.413   8.236  11.584
 2254SOL     OW 8594   9.486   0.954  11.939
 2254SOL    HW1 8595   9.532   0.969  12.022
 2254SOL    HW2 8596   9.480   1.041  11.899
 2255SOL     OW 8597   7.514  11.524   5.241
 2255SOL    HW1 8598   7.507  11.453   5.177
 2255SOL    HW2 8599   7.440  11.581   5.222
 2256SOL     OW 8600   1.279   2.830   9.082
 2256SOL    HW1 8601   1.310   2.796   9.165
 2256SOL    HW2 8602   1.246   2.753   9.035
 2257SOL     OW 8603   5.578   1.718   4.855
 2257SOL    HW1 8604   5.491   1.757   4.846
 2257SOL    HW2 8605   5.618   1.767   4.927
 2258SOL     OW 8606  13.491   1.074   9.725
 2258SOL    HW1 8607  13.453   1.056   9.811
 2258SOL    HW2 8608  13.422   1.053   9.663
 2259SOL     OW 8609  11.891   2.189   6.117
 2259SOL    HW1 8610  11.913   2.279   6.138
 2259SOL    HW2 8611  11.813   2.170   6.170
 2260SOL     OW 8612   8.529   9.764   3.058
 2260SOL    HW1 8613   8.575   9.819   2.995
 2260SOL    HW2 8614   8.581   9.770   3.138
 2261SOL     OW 8615   3.107   9.407  12.172
 2261SOL    HW1 8616   3.128   9.410  12.265
 2261SOL    HW2 8617   3.101   9.499  12.146
 2262SOL     OW 8618   3.698  14.774  14.399
 2262SOL    HW1 8619   3.672  14.735  14.482
 2262SOL    HW2 8620   3.680  14.868  14.410
 2263SOL     OW 8621   1.381  10.671  10.953
 2263SOL    HW1 8622   1.296  10.647  10.989
 2263SOL    HW2 8623   1.362  10.705  10.865
 2264SOL     OW 8624   5.707   9.967  14.414
 2264SOL    HW1 8625   5.664  10.052  14.413
 2264SOL    HW2 8626   5.693   9.932  14.326
 2265SOL     OW 8627   4.599   2.001   4.461
 2265SOL    HW1 8628   4.631   1.934   4.401
 2265SOL    HW2 8629   4.535   1.956   4.516
 2266SOL     OW 8630   9.017  11.351   3.238
 2266SOL    HW1 8631   9.056  11.367   3.324
 2266SOL    HW2 8632   9.077  11.393   3.176
 2267SOL     OW 8633   0.349  11.454   0.469
 2267SOL    HW1 8634   0.338  11.400   0.391
 2267SOL    HW2 8635   0.397  11.398   0.530
 2268SOL     OW 8636   0.757   0.874   9.295
 2268SOL    HW1 8637   0.702   0.949   9.272
 2268SOL    HW2 8638   0.742   0.811   9.224
 2269SOL     OW 8639  12.990   2.240   8.708
 2269SOL    HW1 8640  12.934   2.166   8.687
 2269SOL    HW2 8641  12.933   2.303   8.752
 2270SOL     OW 8642   9.972  13.826   9.962
 2270SOL    HW1 8643   9.959  13.738   9.998
 2270SOL    HW2 8644  10.038  13.814   9.893
 2271SOL     OW 8645  13.469  10.092   5.725
 2271SOL    HW1 8646  13.462  10.039   5.646
 2271SOL    HW2 8647  13.379  10.103   5.755
 2272SOL     OW 8648   4.040   1.087   9.442
 2272SOL    HW1 8649   4.098   1.017   9.412
 2272SOL    HW2 8650   4.090   1.132   9.511
 2273SOL     OW 8651  12.525   8.276   0.569
 2273SOL    HW1 8652  12.525   8.206   0.504
 2273SOL    HW2 8653  12.511   8.356   0.520
 2274SOL     OW 8654  10.193   2.986  11.271
 2274SOL    HW1 8655  10.148   3.066  11.298
 2274SOL    HW2 8656  10.144   2.916  11.314
 2275SOL     OW 8657   3.045   6.959  10.631
 2275SOL    HW1 8658   3.119   7.009  10.667
 2275SOL    HW2 8659   3.048   6.978  10.537
 2276SOL     OW 8660   8.354  14.405   3.994
 2276SOL    HW1 8661   8.377  14.497   3.984
 2276SOL    HW2 8662   8.348  14.371   3.905
 2277SOL     OW 8663   4.467   7.590   3.029
 2277SOL    HW1 8664   4.528   7.554   2.965
 2277SOL    HW2 8665   4.506   7.673   3.056
 2278SOL     OW 8666  11.707   2.485  10.400
 2278SOL    HW1 8667  11.618   2.513  10.377
 2278SOL    HW2 8668  11.759   2.509  10.323
 2279SOL     OW 8669  12.953  13.709   1.997
 2279SOL    HW1 8670  12.964  13.641   2.063
 2279SOL    HW2 8671  12.873  13.756   2.025
 2280SOL     OW 8672   4.767   4.539   7.240
 2280SOL    HW1 8673   4.822   4.616   7.253
 2280SOL    HW2 8674   4.727   4.524   7.326
 2281SOL     OW 8675   6.766   7.831   6.904
 2281SOL    HW1 8676   6.801   7.743   6.895
 2281SOL    HW2 8677   6.806   7.866   6.984
 2282SOL     OW 8678   7.503  12.989   9.622
 2282SOL    HW1 8679   7.580  12.934   9.605
 2282SOL    HW2 8680   7.533  13.078   9.602
 2283SOL     OW 8681   3.105   3.678   5.976
 2283SOL    HW1 8682   3.127   3.584   5.974
 2283SOL    HW2 8683   3.055   3.689   6.056
 2284SOL     OW 8684  14.194   2.596  14.360
 2284SOL    HW1 8685  14.154   2.627  14.442
 2284SOL    HW2 8686  14.224   2.675  14.317
 2285SOL     OW 8687   9.645   9.108  11.911
 2285SOL    HW1 8688   9.592   9.144  11.983
 2285SOL    HW2 8689   9.654   9.015  11.933
 2286SOL     OW 8690  10.719  10.605   8.854
 2286SOL    HW1 8691  10.677  10.556   8.784
 2286SOL    HW2 8692  10.715  10.696   8.826
 2287SOL     OW 8693   7.445   5.250  10.163
 2287SOL    HW1 8694   7.386   5.321  10.138
 2287SOL    HW2 8695   7.387   5.182  10.198
 2288SOL     OW 8696  11.010   3.544   8.592
 2288SOL    HW1 8697  10.936   3.582   8.545
 2288SOL    HW2 8698  11.002   3.580   8.681
 2289SOL     OW 8699  12.008  13.267   6.356
 2289SOL    HW1 8700  12.086  13.212   6.363
 2289SOL    HW2 8701  11.936  13.213   6.389
 2290SOL     OW 8702  13.901  13.771   8.569
 2290SOL    HW1 8703  13.984  13.731   8.543
 2290SOL    HW2 8704  13.922  13.863   8.585
 2291SOL     OW 8705   0.657   6.849   0.749
 2291SOL    HW1 8706   0.722   6.780   0.734
 2291SOL    HW2 8707   0.703   6.930   0.727
 2292SOL     OW 8708   9.293  12.995   0.570
 2292SOL    HW1 8709   9.202  12.969   0.554
 2292SOL    HW2 8710   9.340  12.966   0.492
 2293SOL     OW 8711  13.070   4.150  11.441
 2293SOL    HW1 8712  13.120   4.083  11.395
 2293SOL    HW2 8713  13.092   4.138  11.533
 2294SOL     OW 8714   2.575  13.093   5.806
 2294SOL    HW1 8715   2.534  13.006   5.808
 2294SOL    HW2 8716   2.501  13.154   5.814
 2295SOL     OW 8717  10.707  13.642  11.800
 2295SOL    HW1 8718  10.686  13.581  11.729
 2295SOL    HW2 8719  10.764  13.592  11.858
 2296SOL     OW 8720  12.521   5.454   5.120
 2296SOL    HW1 8721  12.461   5.511   5.071
 2296SOL    HW2 8722  12.464   5.392   5.165
 2297SOL     OW 8723   2.177   8.783  12.129
 2297SOL    HW1 8724   2.153   8.712  12.188
 2297SOL    HW2 8725   2.168   8.746  12.041
 2298SOL     OW 8726   0.418   9.422   1.535
 2298SOL    HW1 8727   0.421   9.434   1.441
 2298SOL    HW2 8728   0.498   9.374   1.556
 2299SOL     OW 8729  14.096   1.027   7.951
 2299SOL    HW1 8730  14.105   0.954   7.889
 2299SOL    HW2 8731  14.185   1.044   7.981
 2300SOL     OW 8732   5.044   0.543   1.159
 2300SOL    HW1 8733   4.964   0.555   1.109
 2300SOL    HW2 8734   5.020   0.566   1.249
 2301SOL     OW 8735  12.212   4.418  10.429
 2301SOL    HW1 8736  12.292   4.443  10.475
 2301SOL    HW2 8737  12.170   4.354  10.486
 2302SOL     OW 8738   5.163   2.374   1.531
 2302SOL    HW1 8739   5.218   2.320   1.473
 2302SOL    HW2 8740   5.206   2.459   1.533
 2303SOL     OW 8741  13.865   0.946   7.728
 2303SOL    HW1 8742  13.834   0.947   7.819
 2303SOL    HW2 8743  13.956   0.917   7.734
 2304SOL     OW 8744  12.151   5.790  13.573
 2304SOL    HW1 8745  12.176   5.874  13.609
 2304SOL    HW2 8746  12.223   5.731  13.596
 2305SOL     OW 8747   9.118   1.695   6.675
 2305SOL    HW1 8748   9.070   1.696   6.593
 2305SOL    HW2 8749   9.143   1.603   6.687
 2306SOL     OW 8750   8.494   8.014   0.251
 2306SOL    HW1 8751   8.509   7.965   0.331
 2306SOL    HW2 8752   8.505   7.950   0.181
 2307SOL     OW 8753   2.084   8.486   6.425
 2307SOL    HW1 8754   2.041   8.493   6.511
 2307SOL    HW2 8755   2.023   8.528   6.364
 2308SOL     OW 8756  11.164  13.578   4.130
 2308SOL    HW1 8757  11.106  13.533   4.191
 2308SOL    HW2 8758  11.249  13.579   4.174
 2309SOL     OW 8759   3.436  12.732  12.855
 2309SOL    HW1 8760   3.483  12.812  12.832
 2309SOL    HW2 8761   3.344  12.752  12.837
 2310SOL     OW 8762   2.387   4.581   4.160
 2310SOL    HW1 8763   2.330   4.504   4.169
 2310SOL    HW2 8764   2.367   4.616   4.074
 2311SOL     OW 8765   0.754   3.878   3.919
 2311SOL    HW1 8766   0.661   3.857   3.934
 2311SOL    HW2 8767   0.800   3.799   3.947
 2312SOL     OW 8768   1.954  14.515  10.856
 2312SOL    HW1 8769   1.990  14.574  10.789
 2312SOL    HW2 8770   1.862  14.505  10.832
 2313SOL     OW 8771  13.386  13.709   0.423
 2313SOL    HW1 8772  13.343  13.752   0.497
 2313SOL    HW2 8773  13.424  13.780   0.372
 2314SOL     OW 8774   7.895   2.328   3.283
 2314SOL    HW1 8775   7.843   2.306   3.205
 2314SOL    HW2 8776   7.830   2.339   3.353
 2315SOL     OW 8777   9.388   0.215   0.391
 2315SOL    HW1 8778   9.316   0.174   0.342
 2315SOL    HW2 8779   9.453   0.235   0.324
 2316SOL     OW 8780  10.804   1.938   8.578
 2316SOL    HW1 8781  10.790   2.016   8.524
 2316SOL    HW2 8782  10.899   1.927   8.580
 2317SOL     OW 8783   3.535  13.939   5.407
 2317SOL    HW1 8784   3.572  13.913   5.323
 2317SOL    HW2 8785   3.462  13.997   5.384
 2318SOL     OW 8786  13.422   6.471   6.285
 2318SOL    HW1 8787  13.490   6.404   6.280
 2318SOL    HW2 8788  13.415   6.505   6.196
 2319SOL     OW 8789   8.613   7.683  10.909
 2319SOL    HW1 8790   8.571   7.728  10.835
 2319SOL    HW2 8791   8.545   7.625  10.944
 2320SOL     OW 8792   7.509  10.958   9.404
 2320SOL    HW1 8793   7.492  11.048   9.434
 2320SOL    HW2 8794   7.498  10.904   9.482
 2321SOL     OW 8795   0.774  11.025   4.933
 2321SOL    HW1 8796   0.730  11.100   4.892
 2321SOL    HW2 8797   0.864  11.055   4.947
 2322SOL     OW 8798   5.433  13.537   4.165
 2322SOL    HW1 8799   5.393  13.540   4.078
 2322SOL    HW2 8800   5.371  13.487   4.218
 2323SOL     OW 8801   6.139   0.333  12.093
 2323SOL    HW1 8802   6.054   0.291  12.103
 2323SOL    HW2 8803   6.169   0.305  12.007
 2324SOL     OW 8804   5.429   7.074   0.983
 2324SOL    HW1 8805   5.343   7.046   0.951
 2324SOL    HW2 8806   5.478   6.993   0.995
 2325SOL     OW 8807  10.465   1.272   4.807
 2325SOL    HW1 8808  10.484   1.222   4.886
 2325SOL    HW2 8809  10.424   1.210   4.747
 2326SOL     OW 8810   0.256   6.284   6.397
 2326SOL    HW1 8811   0.279   6.193   6.419
 2326SOL    HW2 8812   0.307   6.337   6.458
 2327SOL     OW 8813   3.580   8.059  14.426
 2327SOL    HW1 8814   3.495   8.064  14.471
 2327SOL    HW2 8815   3.642   8.098  14.488
 2328SOL     OW 8816   1.307   8.790  13.789
 2328SOL    HW1 8817   1.396   8.779  13.756
 2328SOL    HW2 8818   1.251   8.756  13.720
 2329SOL     OW 8819  11.700  12.063  11.570
 2329SOL    HW1 8820  11.650  12.025  11.498
 2329SOL    HW2 8821  11.789  12.029  11.558
 2330SOL     OW 8822   3.774   0.678   9.992
 2330SOL    HW1 8823   3.728   0.682  10.075
 2330SOL    HW2 8824   3.845   0.742  10.000
 2331SOL     OW 8825   2.466   9.451   2.466
 2331SOL    HW1 8826   2.473   9.547   2.464
 2331SOL    HW2 8827   2.429   9.427   2.382
 2332SOL     OW 8828   3.476  10.928   9.780
 2332SOL    HW1 8829   3.546  10.878   9.738
 2332SOL    HW2 8830   3.470  11.009   9.728
 2333SOL     OW 8831   1.060   2.256   9.062
 2333SOL    HW1 8832   1.010   2.329   9.027
 2333SOL    HW2 8833   1.116   2.228   8.989
 2334SOL     OW 8834   0.481  12.435   1.209
 2334SOL    HW1 8835   0.563  12.387   1.222
 2334SOL    HW2 8836   0.432  12.423   1.290
 2335SOL     OW 8837  14.776   5.754  13.826
 2335SOL    HW1 8838  14.742   5.665  13.816
 2335SOL    HW2 8839  14.757   5.796  13.742
 2336SOL     OW 8840   3.246   5.168  14.086
 2336SOL    HW1 8841   3.287   5.213  14.013
 2336SOL    HW2 8842   3.203   5.237  14.136
 2337SOL     OW 8843   1.493  12.073   9.174
 2337SOL    HW1 8844   1.410  12.122   9.176
 2337SOL    HW2 8845   1.511  12.060   9.081
 2338SOL     OW 8846   9.343   9.264   1.751
 2338SOL    HW1 8847   9.424   9.269   1.802
 2338SOL    HW2 8848   9.371   9.231   1.665
 2339SOL     OW 8849   5.247  14.717   0.251
 2339SOL    HW1 8850   5.267  14.808   0.275
 2339SOL    HW2 8851   5.318  14.693   0.191
 2340SOL     OW 8852  14.351   2.744   9.942
 2340SOL    HW1 8853  14.390   2.753  10.029
 2340SOL    HW2 8854  14.285   2.676   9.953
 2341SOL     OW 8855   9.938  10.098   6.504
 2341SOL    HW1 8856   9.870  10.031   6.506
 2341SOL    HW2 8857   9.903  10.168   6.560
 2342SOL     OW 8858   6.869  11.030  12.066
 2342SOL    HW1 8859   6.877  10.981  12.147
 2342SOL    HW2 8860   6.871  11.122  12.094
 2343SOL     OW 8861   0.375   8.458   5.213
 2343SOL    HW1 8862   0.414   8.450   5.126
 2343SOL    HW2 8863   0.283   8.436   5.200
 2344SOL     OW 8864   1.700   7.331   0.103
 2344SOL    HW1 8865   1.639   7.387   0.152
 2344SOL    HW2 8866   1.774   7.388   0.083
 2345SOL     OW 8867   2.557   7.390   8.914
 2345SOL    HW1 8868   2.530   7.453   8.982
 2345SOL    HW2 8869   2.497   7.317   8.924
 2346SOL     OW 8870   5.168   6.007  12.869
 2346SOL    HW1 8871   5.186   6.004  12.963
 2346SOL    HW2 8872   5.074   5.986  12.863
 2347SOL     OW 8873   0.320   1.857  14.425
 2347SOL    HW1 8874   0.369   1.934  14.398
 2347SOL    HW2 8875   0.386   1.794  14.453
 2348SOL     OW 8876   9.393  12.315   0.923
 2348SOL    HW1 8877   9.413  12.352   0.837
 2348SOL    HW2 8878   9.458  12.353   0.982
 2349SOL     OW 8879   5.264   2.683  13.910
 2349SOL    HW1 8880   5.193   2.700  13.847
 2349SOL    HW2 8881   5.255   2.590  13.930
 2350SOL     OW 8882  14.410   6.365   5.584
 2350SOL    HW1 8883  14.381   6.407   5.504
 2350SOL    HW2 8884  14.342   6.383   5.648
 2351SOL     OW 8885   3.883   4.454  13.572
 2351SOL    HW1 8886   3.857   4.538  13.610
 2351SOL    HW2 8887   3.966   4.433  13.616
 2352SOL     OW 8888   6.450   3.370   5.895
 2352SOL    HW1 8889   6.469   3.302   5.831
 2352SOL    HW2 8890   6.500   3.344   5.973
 2353SOL     OW 8891   4.034   1.461   9.063
 2353SOL    HW1 8892   4.037   1.386   9.005
 2353SOL    HW2 8893   3.946   1.460   9.101
 2354SOL     OW 8894   6.521   5.378   0.953
 2354SOL    HW1 8895   6.579   5.347   1.023
 2354SOL    HW2 8896   6.460   5.306   0.938
 2355SOL     OW 8897  10.452  13.248   5.645
 2355SOL    HW1 8898  10.500  13.170   5.672
 2355SOL    HW2 8899  10.364  13.216   5.624
 2356SOL     OW 8900   4.290  13.373   3.793
 2356SOL    HW1 8901   4.303  13.395   3.700
 2356SOL    HW2 8902   4.262  13.281   3.791
 2357SOL     OW 8903   4.571   2.113  12.640
 2357SOL    HW1 8904   4.638   2.165  12.684
 2357SOL    HW2 8905   4.596   2.022  12.657
 2358SOL     OW 8906  11.034   3.421   1.152
 2358SOL    HW1 8907  11.057   3.380   1.236
 2358SOL    HW2 8908  11.110   3.405   1.097
 2359SOL     OW 8909   3.778   9.121   2.749
 2359SOL    HW1 8910   3.709   9.109   2.814
 2359SOL    HW2 8911   3.774   9.214   2.726
 2360SOL     OW 8912   6.531  12.423  13.336
 2360SOL    HW1 8913   6.455  12.411  13.279
 2360SOL    HW2 8914   6.498  12.413  13.425
 2361SOL     OW 8915  12.001   8.897   9.155
 2361SOL    HW1 8916  11.926   8.877   9.098
 2361SOL    HW2 8917  11.962   8.936   9.233
 2362SOL     OW 8918   4.468  13.993   6.753
 2362SOL    HW1 8919   4.442  14.036   6.672
 2362SOL    HW2 8920   4.453  13.900   6.737
 2363SOL     OW 8921  14.774   6.963   8.784
 2363SOL    HW1 8922  14.722   6.904   8.838
 2363SOL    HW2 8923  14.715   6.987   8.712
 2364SOL     OW 8924   6.327   4.810   0.379
 2364SOL    HW1 8925   6.359   4.851   0.298
 2364SOL    HW2 8926   6.378   4.729   0.385
 2365SOL     OW 8927   6.269  10.595   5.181
 2365SOL    HW1 8928   6.327  10.538   5.131
 2365SOL    HW2 8929   6.280  10.682   5.141
 2366SOL     OW 8930   3.963   3.622   3.644
 2366SOL    HW1 8931   3.900   3.550   3.653
 2366SOL    HW2 8932   4.049   3.580   3.649
 2367SOL     OW 8933   1.102   8.709  11.378
 2367SOL    HW1 8934   1.022   8.669  11.411
 2367SOL    HW2 8935   1.167   8.639  11.382
 2368SOL     OW 8936  11.313   4.079   9.535
 2368SOL    HW1 8937  11.261   4.154   9.565
 2368SOL    HW2 8938  11.404   4.110   9.537
 2369SOL     OW 8939   9.556   8.409  11.225
 2369SOL    HW1 8940   9.502   8.487  11.210
 2369SOL    HW2 8941   9.586   8.384  11.137
 2370SOL     OW 8942  12.071   5.663   2.742
 2370SOL    HW1 8943  12.136   5.722   2.780
 2370SOL    HW2 8944  12.027   5.717   2.676
 2371SOL     OW 8945   7.967   9.959   4.218
 2371SOL    HW1 8946   7.912   9.907   4.159
 2371SOL    HW2 8947   8.051   9.964   4.173
 2372SOL     OW 8948  13.318   3.506   9.166
 2372SOL    HW1 8949  13.246   3.456   9.128
 2372SOL    HW2 8950  13.322   3.587   9.115
 2373SOL     OW 8951  12.027   2.584   5.787
 2373SOL    HW1 8952  12.032   2.672   5.752
 2373SOL    HW2 8953  11.991   2.531   5.716
 2374SOL     OW 8954   3.471   3.815  11.139
 2374SOL    HW1 8955   3.459   3.795  11.232
 2374SOL    HW2 8956   3.449   3.907  11.131
 2375SOL     OW 8957   5.445  14.630   1.955
 2375SOL    HW1 8958   5.529  14.633   1.909
 2375SOL    HW2 8959   5.426  14.722   1.976
 2376SOL     OW 8960   5.082   8.594   7.195
 2376SOL    HW1 8961   5.169   8.629   7.214
 2376SOL    HW2 8962   5.069   8.525   7.260
 2377SOL     OW 8963   1.053   3.368   6.327
 2377SOL    HW1 8964   1.009   3.347   6.244
 2377SOL    HW2 8965   1.058   3.284   6.373
 2378SOL     OW 8966   3.146   5.077   2.231
 2378SOL    HW1 8967   3.167   5.170   2.234
 2378SOL    HW2 8968   3.196   5.042   2.158
 2379SOL     OW 8969  13.464   8.836   9.740
 2379SOL    HW1 8970  13.499   8.923   9.719
 2379SOL    HW2 8971  13.370   8.849   9.746
 2380SOL     OW 8972   0.207   0.852  13.423
 2380SOL    HW1 8973   0.208   0.947  13.429
 2380SOL    HW2 8974   0.299   0.827  13.421
 2381SOL     OW 8975   6.108   6.000   1.526
 2381SOL    HW1 8976   6.147   6.077   1.484
 2381SOL    HW2 8977   6.074   5.948   1.454
 2382SOL     OW 8978   0.298   6.269   3.272
 2382SOL    HW1 8979   0.237   6.250   3.343
 2382SOL    HW2 8980   0.266   6.352   3.236
 2383SOL     OW 8981   4.995  14.217   2.726
 2383SOL    HW1 8982   5.003  14.201   2.820
 2383SOL    HW2 8983   4.914  14.174   2.701
 2384SOL     OW 8984  11.842   4.048   1.875
 2384SOL    HW1 8985  11.931   4.069   1.902
 2384SOL    HW2 8986  11.803   4.132   1.852
 2385SOL     OW 8987   8.968   7.933   4.510
 2385SOL    HW1 8988   8.900   7.997   4.529
 2385SOL    HW2 8989   8.931   7.877   4.442
 2386SOL     OW 8990   4.135   0.509   9.639
 2386SOL    HW1 8991   4.053   0.483   9.598
 2386SOL    HW2 8992   4.143   0.453   9.716
 2387SOL     OW 8993  12.833   9.372   0.415
 2387SOL    HW1 8994  12.847   9.444   0.476
 2387SOL    HW2 8995  12.830   9.294   0.471
 2388SOL     OW 8996   2.918   4.407  11.480
 2388SOL    HW1 8997   2.972   4.385  11.556
 2388SOL    HW2 8998   2.979   4.413  11.407
 2389SOL     OW 8999   3.139   7.479  14.274
 2389SOL    HW1 9000   3.106   7.519  14.193
 2389SOL    HW2 9001   3.102   7.534  14.344
 2390SOL     OW 9002   1.580   8.464   4.188
 2390SOL    HW1 9003   1.560   8.475   4.095
 2390SOL    HW2 9004   1.527   8.388   4.215
 2391SOL     OW 9005  11.723   8.771   6.325
 2391SOL    HW1 9006  11.815   8.743   6.329
 2391SOL    HW2 9007  11.696   8.752   6.235
 2392SOL     OW 9008   8.044   5.083   5.497
 2392SOL    HW1 9009   8.027   5.176   5.485
 2392SOL    HW2 9010   8.075   5.075   5.587
 2393SOL     OW 9011   5.648  12.397   7.465
 2393SOL    HW1 9012   5.701  12.339   7.410
 2393SOL    HW2 9013   5.707  12.423   7.535
 2394SOL     OW 9014   4.334   5.777  13.820
 2394SOL    HW1 9015   4.349   5.710  13.753
 2394SOL    HW2 9016   4.365   5.858  13.780
 2395SOL     OW 9017   1.118  11.403   7.752
 2395SOL    HW1 9018   1.138  11.477   7.809
 2395SOL    HW2 9019   1.048  11.356   7.798
 2396SOL     OW 9020  12.411   4.222   8.591
 2396SOL    HW1 9021  12.409   4.169   8.671
 2396SOL    HW2 9022  12.320   4.221   8.560
 2397SOL     OW 9023  13.001   1.680   8.910
 2397SOL    HW1 9024  13.074   1.742   8.913
 2397SOL    HW2 9025  12.923   1.736   8.903
 2398SOL     OW 9026   7.631   5.767   2.524
 2398SOL    HW1 9027   7.662   5.784   2.435
 2398SOL    HW2 9028   7.631   5.853   2.567
 2399SOL     OW 9029   7.693   9.710   1.271
 2399SOL    HW1 9030   7.702   9.708   1.367
 2399SOL    HW2 9031   7.603   9.740   1.257
 2400SOL     OW 9032  10.226   9.251   7.131
 2400SOL    HW1 9033  10.203   9.182   7.069
 2400SOL    HW2 9034  10.197   9.218   7.216
 2401SOL     OW 9035  11.789  10.281   2.433
 2401SOL    HW1 9036  11.819  10.372   2.430
 2401SOL    HW2 9037  11.857  10.235   2.482
 2402SOL     OW 9038  11.040   8.295   4.867
 2402SOL    HW1 9039  10.980   8.329   4.800
 2402SOL    HW2 9040  10.982   8.269   4.939
 2403SOL     OW 9041   2.117  13.499  11.884
 2403SOL    HW1 9042   2.022  13.507  11.878
 2403SOL    HW2 9043   2.133  13.405  11.881
 2404SOL     OW 9044   0.784   3.198   9.331
 2404SOL    HW1 9045   0.768   3.210   9.425
 2404SOL    HW2 9046   0.873   3.163   9.327
 2405SOL     OW 9047   5.291   8.042   9.068
 2405SOL    HW1 9048   5.195   8.037   9.072
 2405SOL    HW2 9049   5.309   8.130   9.036
 2406SOL     OW 9050   6.826  14.150   4.811
 2406SOL    HW1 9051   6.858  14.082   4.751
 2406SOL    HW2 9052   6.868  14.129   4.894
 2407SOL     OW 9053  12.977  12.699   9.039
 2407SOL    HW1 9054  12.993  12.635   9.108
 2407SOL    HW2 9055  12.927  12.651   8.973
 2408SOL     OW 9056   5.330  14.178  14.785
 2408SOL    HW1 9057   5.410  14.130  14.764
 2408SOL    HW2 9058   5.301  14.141  14.868
 2409SOL     OW 9059   7.103  11.071   7.198
 2409SOL    HW1 9060   7.193  11.040   7.193
 2409SOL    HW2 9061   7.051  11.002   7.156
 2410SOL     OW 9062   7.887  12.189   9.814
 2410SOL    HW1 9063   7.949  12.173   9.885
 2410SOL    HW2 9064   7.828  12.113   9.818
 2411SOL     OW 9065  14.689   6.610  13.584
 2411SOL    HW1 9066  14.613   6.559  13.558
 2411SOL    HW2 9067  14.761   6.547  13.584
 2412SOL     OW 9068   4.296   0.416   4.567
 2412SOL    HW1 9069   4.297   0.452   4.656
 2412SOL    HW2 9070   4.205   0.424   4.539
 2413SOL     OW 9071   5.610   8.692   6.760
 2413SOL    HW1 9072   5.681   8.738   6.715
 2413SOL    HW2 9073   5.597   8.612   6.710
 2414SOL     OW 9074  10.545  11.012  10.963
 2414SOL    HW1 9075  10.589  11.010  10.878
 2414SOL    HW2 9076  10.610  11.048  11.023
 2415SOL     OW 9077   9.465  13.606  13.058
 2415SOL    HW1 9078   9.522  13.592  13.133
 2415SOL    HW2 9079   9.465  13.701  13.045
 2416SOL     OW 9080  11.083  12.687  11.786
 2416SOL    HW1 9081  10.997  12.712  11.750
 2416SOL    HW2 9082  11.128  12.644  11.713
 2417SOL     OW 9083   0.384   8.820  14.575
 2417SOL    HW1 9084   0.373   8.728  14.551
 2417SOL    HW2 9085   0.468   8.845  14.536
 2418SOL     OW 9086  11.112  11.964   0.792
 2418SOL    HW1 9087  11.155  12.049   0.797
 2418SOL    HW2 9088  11.036  11.973   0.850
 2419SOL     OW 9089  14.770  12.221   0.069
 2419SOL    HW1 9090  14.823  12.144   0.090
 2419SOL    HW2 9091  14.821  12.295   0.103
 2420SOL     OW 9092   2.014   6.560   9.636
 2420SOL    HW1 9093   2.073   6.622   9.678
 2420SOL    HW2 9094   1.926   6.596   9.649
 2421SOL     OW 9095   1.914   4.546  10.481
 2421SOL    HW1 9096   1.904   4.626  10.428
 2421SOL    HW2 9097   1.846   4.553  10.548
 2422SOL     OW 9098  11.573  12.401   9.940
 2422SOL    HW1 9099  11.519  12.413  10.018
 2422SOL    HW2 9100  11.638  12.471   9.944
 2423SOL     OW 9101  12.697   3.398  11.148
 2423SOL    HW1 9102  12.644   3.475  11.170
 2423SOL    HW2 9103  12.745   3.424  11.069
 2424SOL     OW 9104   3.634   6.500   6.545
 2424SOL    HW1 9105   3.606   6.508   6.636
 2424SOL    HW2 9106   3.577   6.433   6.508
 2425SOL     OW 9107  10.383   8.739  14.432
 2425SOL    HW1 9108  10.304   8.793  14.426
 2425SOL    HW2 9109  10.351   8.653  14.460
 2426SOL     OW 9110   8.286   4.108  13.668
 2426SOL    HW1 9111   8.360   4.108  13.608
 2426SOL    HW2 9112   8.315   4.161  13.743
 2427SOL     OW 9113  14.202  12.457   3.347
 2427SOL    HW1 9114  14.227  12.435   3.436
 2427SOL    HW2 9115  14.152  12.538   3.355
 2428SOL     OW 9116   8.058  13.926   9.163
 2428SOL    HW1 9117   8.009  13.993   9.210
 2428SOL    HW2 9118   7.992  13.878   9.113
 2429SOL     OW 9119   5.751   8.635  12.244
 2429SOL    HW1 9120   5.728   8.669  12.157
 2429SOL    HW2 9121   5.772   8.543  12.228
 2430SOL     OW 9122   3.035   2.950   9.599
 2430SOL    HW1 9123   3.002   2.860   9.607
 2430SOL    HW2 9124   3.123   2.946   9.637
 2431SOL     OW 9125  11.367   2.405   2.754
 2431SOL    HW1 9126  11.430   2.424   2.823
 2431SOL    HW2 9127  11.420   2.389   2.676
 2432SOL     OW 9128   5.107  11.520   6.122
 2432SOL    HW1 9129   5.146  11.449   6.174
 2432SOL    HW2 9130   5.123  11.599   6.174
 2433SOL     OW 9131   5.806   1.276   8.859
 2433SOL    HW1 9132   5.833   1.317   8.777
 2433SOL    HW2 9133   5.713   1.256   8.847
 2434SOL     OW 9134   0.102   3.622   9.418
 2434SOL    HW1 9135   0.040   3.644   9.349
 2434SOL    HW2 9136   0.088   3.528   9.433
 2435SOL     OW 9137   6.059   8.516  12.159
 2435SOL    HW1 9138   6.120   8.450  12.125
 2435SOL    HW2 9139   5.978   8.468  12.176
 2436SOL     OW 9140  10.560   2.732  14.244
 2436SOL    HW1 9141  10.625   2.668  14.273
 2436SOL    HW2 9142  10.592   2.761  14.158
 2437SOL     OW 9143   9.091   5.064   0.954
 2437SOL    HW1 9144   9.078   5.004   1.026
 2437SOL    HW2 9145   9.120   5.009   0.881
 2438SOL     OW 9146   9.215   5.905  13.095
 2438SOL    HW1 9147   9.218   5.905  13.000
 2438SOL    HW2 9148   9.137   5.852  13.116
 2439SOL     OW 9149  14.445   0.128  14.245
 2439SOL    HW1 9150  14.525   0.171  14.214
 2439SOL    HW2 9151  14.459   0.035  14.229
 2440SOL     OW 9152   7.407   3.314   1.117
 2440SOL    HW1 9153   7.330   3.323   1.174
 2440SOL    HW2 9154   7.391   3.233   1.068
 2441SOL     OW 9155  11.947  12.796  13.500
 2441SOL    HW1 9156  11.953  12.701  13.499
 2441SOL    HW2 9157  12.036  12.826  13.481
 2442SOL     OW 9158  11.761   6.996   2.437
 2442SOL    HW1 9159  11.834   6.943   2.405
 2442SOL    HW2 9160  11.715   7.024   2.358
 2443SOL     OW 9161   3.436   2.282   6.206
 2443SOL    HW1 9162   3.517   2.263   6.158
 2443SOL    HW2 9163   3.445   2.236   6.289
 2444SOL     OW 9164  12.879  14.789   0.510
 2444SOL    HW1 9165  12.879  14.729   0.435
 2444SOL    HW2 9166  12.788  14.787   0.541
 2445SOL     OW 9167  10.949   5.250  13.580
 2445SOL    HW1 9168  10.995   5.190  13.639
 2445SOL    HW2 9169  11.019   5.303  13.541
 2446SOL     OW 9170  13.657  13.848   1.386
 2446SOL    HW1 9171  13.745  13.811   1.397
 2446SOL    HW2 9172  13.616  13.841   1.472
 2447SOL     OW 9173  14.610  12.940   2.794
 2447SOL    HW1 9174  14.674  12.876   2.764
 2447SOL    HW2 9175  14.564  12.897   2.865
 2448SOL     OW 9176   0.251   5.252  10.035
 2448SOL    HW1 9177   0.306   5.330  10.045
 2448SOL    HW2 9178   0.231   5.250   9.941
 2449SOL     OW 9179  13.168  11.391  14.846
 2449SOL    HW1 9180  13.085  11.403  14.799
 2449SOL    HW2 9181  13.167  11.459   0.035
 2450SOL     OW 9182  10.409   3.436   6.820
 2450SOL    HW1 9183  10.363   3.354   6.802
 2450SOL    HW2 9184  10.489   3.409   6.866
 2451SOL     OW 9185   5.747   8.158  13.538
 2451SOL    HW1 9186   5.681   8.184  13.602
 2451SOL    HW2 9187   5.712   8.079  13.498
 2452SOL     OW 9188   2.554  10.192   2.574
 2452SOL    HW1 9189   2.586  10.283   2.573
 2452SOL    HW2 9190   2.605  10.149   2.642
 2453SOL     OW 9191   3.462  12.845  10.399
 2453SOL    HW1 9192   3.388  12.869  10.456
 2453SOL    HW2 9193   3.427  12.776  10.343
 2454SOL     OW 9194   6.111   5.362  13.607
 2454SOL    HW1 9195   6.167   5.330  13.536
 2454SOL    HW2 9196   6.043   5.296  13.617
 2455SOL     OW 9197   1.947   0.093   4.791
 2455SOL    HW1 9198   1.891   0.152   4.842
 2455SOL    HW2 9199   2.036   0.122   4.810
 2456SOL     OW 9200   0.113   6.393   3.714
 2456SOL    HW1 9201   0.036   6.442   3.685
 2456SOL    HW2 9202   0.078   6.310   3.745
 2457SOL     OW 9203   4.790  11.281   4.760
 2457SOL    HW1 9204   4.883  11.261   4.772
 2457SOL    HW2 9205   4.770  11.346   4.828
 2458SOL     OW 9206   0.424   1.830   7.329
 2458SOL    HW1 9207   0.423   1.849   7.235
 2458SOL    HW2 9208   0.508   1.787   7.344
 2459SOL     OW 9209  10.605   3.596  10.032
 2459SOL    HW1 9210  10.512   3.603  10.010
 2459SOL    HW2 9211  10.611   3.520  10.089
 2460SOL     OW 9212   5.168   7.603   0.121
 2460SOL    HW1 9213   5.129   7.527   0.077
 2460SOL    HW2 9214   5.256   7.609   0.083
 2461SOL     OW 9215   9.137   0.462   9.189
 2461SOL    HW1 9216   9.047   0.439   9.213
 2461SOL    HW2 9217   9.184   0.465   9.273
 2462SOL     OW 9218   7.920   4.867   5.384
 2462SOL    HW1 9219   7.955   4.940   5.434
 2462SOL    HW2 9220   7.921   4.793   5.445
 2463SOL     OW 9221   3.754  10.166   1.249
 2463SOL    HW1 9222   3.728  10.248   1.207
 2463SOL    HW2 9223   3.780  10.109   1.176
 2464SOL     OW 9224   0.828   6.696   1.866
 2464SOL    HW1 9225   0.909   6.743   1.848
 2464SOL    HW2 9226   0.816   6.705   1.961
 2465SOL     OW 9227  10.452   7.183  11.021
 2465SOL    HW1 9228  10.407   7.144  10.946
 2465SOL    HW2 9229  10.479   7.109  11.075
 2466SOL     OW 9230   8.461  11.407  12.445
 2466SOL    HW1 9231   8.404  11.405  12.522
 2466SOL    HW2 9232   8.406  11.445  12.376
 2467SOL     OW 9233  12.367   0.667   5.292
 2467SOL    HW1 9234  12.355   0.741   5.232
 2467SOL    HW2 9235  12.382   0.708   5.377
 2468SOL     OW 9236   8.128   8.129   7.680
 2468SOL    HW1 9237   8.134   8.110   7.774
 2468SOL    HW2 9238   8.114   8.043   7.640
 2469SOL     OW 9239   6.241   4.078  10.553
 2469SOL    HW1 9240   6.312   4.142  10.552
 2469SOL    HW2 9241   6.173   4.117  10.499
 2470SOL     OW 9242   1.543  14.649  13.723
 2470SOL    HW1 9243   1.613  14.604  13.675
 2470SOL    HW2 9244   1.586  14.680  13.803
 2471SOL     OW 9245   5.008  14.741   0.098
 2471SOL    HW1 9246   5.090  14.698   0.123
 2471SOL    HW2 9247   4.950  14.728   0.174
 2472SOL     OW 9248   0.128   8.123  12.306
 2472SOL    HW1 9249   0.087   8.179  12.240
 2472SOL    HW2 9250   0.083   8.145  12.388
 2473SOL     OW 9251   2.795   4.928   2.421
 2473SOL    HW1 9252   2.742   4.904   2.497
 2473SOL    HW2 9253   2.778   5.021   2.408
 2474SOL     OW 9254   9.486   6.941  14.759
 2474SOL    HW1 9255   9.519   7.020  14.716
 2474SOL    HW2 9256   9.393   6.958  14.772
 2475SOL     OW 9257   8.504   9.735   5.516
 2475SOL    HW1 9258   8.588   9.744   5.471
 2475SOL    HW2 9259   8.523   9.682   5.593
 2476SOL     OW 9260   2.572   1.681  14.218
 2476SOL    HW1 9261   2.651   1.641  14.254
 2476SOL    HW2 9262   2.542   1.619  14.151
 2477SOL     OW 9263   3.946  12.998   4.479
 2477SOL    HW1 9264   3.938  13.085   4.440
 2477SOL    HW2 9265   3.986  13.013   4.564
 2478SOL     OW 9266   9.605   2.558   8.085
 2478SOL    HW1 9267   9.588   2.580   8.177
 2478SOL    HW2 9268   9.579   2.636   8.036
 2479SOL     OW 9269  13.209  13.851   7.798
 2479SOL    HW1 9270  13.245  13.938   7.782
 2479SOL    HW2 9271  13.209  13.842   7.894
 2480SOL     OW 9272   5.231   9.792  14.849
 2480SOL    HW1 9273   5.287   9.808  14.773
 2480SOL    HW2 9274   5.154   9.749  14.813
 2481SOL     OW 9275   6.402   5.132   3.929
 2481SOL    HW1 9276   6.407   5.206   3.868
 2481SOL    HW2 9277   6.490   5.095   3.931
 2482SOL     OW 9278   7.672  13.209   8.615
 2482SOL    HW1 9279   7.745  13.216   8.553
 2482SOL    HW2 9280   7.713  13.183   8.698
 2483SOL     OW 9281   7.247   5.180   3.424
 2483SOL    HW1 9282   7.282   5.219   3.505
 2483SOL    HW2 9283   7.226   5.256   3.368
 2484SOL     OW 9284   3.465   8.414  10.357
 2484SOL    HW1 9285   3.535   8.479  10.347
 2484SOL    HW2 9286   3.510   8.330  10.360
 2485SOL     OW 9287   6.466  10.180  12.236
 2485SOL    HW1 9288   6.410  10.142  12.169
 2485SOL    HW2 9289   6.419  10.258  12.266
 2486SOL     OW 9290   4.648   2.486   6.038
 2486SOL    HW1 9291   4.608   2.572   6.028
 2486SOL    HW2 9292   4.731   2.492   5.989
 2487SOL     OW 9293   0.470   8.055   5.337
 2487SOL    HW1 9294   0.445   8.106   5.260
 2487SOL    HW2 9295   0.564   8.074   5.349
 2488SOL     OW 9296  13.857   9.390  11.236
 2488SOL    HW1 9297  13.935   9.440  11.259
 2488SOL    HW2 9298  13.850   9.323  11.304
 2489SOL     OW 9299  13.339  14.255   1.868
 2489SOL    HW1 9300  13.319  14.331   1.923
 2489SOL    HW2 9301  13.431  14.236   1.886
 2490SOL     OW 9302   4.892  13.646   1.116
 2490SOL    HW1 9303   4.931  13.558   1.112
 2490SOL    HW2 9304   4.966  13.705   1.103
 2491SOL     OW 9305   3.391   7.040   3.058
 2491SOL    HW1 9306   3.350   6.981   2.995
 2491SOL    HW2 9307   3.335   7.035   3.135
 2492SOL     OW 9308  11.267   1.086   8.269
 2492SOL    HW1 9309  11.327   1.091   8.343
 2492SOL    HW2 9310  11.323   1.090   8.192
 2493SOL     OW 9311   2.161  11.067  11.992
 2493SOL    HW1 9312   2.250  11.097  12.012
 2493SOL    HW2 9313   2.104  11.135  12.029
 2494SOL     OW 9314  10.310   8.382   5.892
 2494SOL    HW1 9315  10.381   8.344   5.944
 2494SOL    HW2 9316  10.328   8.356   5.802
 2495SOL     OW 9317  14.858   9.342   9.416
 2495SOL    HW1 9318   0.013   9.417   9.465
 2495SOL    HW2 9319   0.045   9.327   9.348
 2496SOL     OW 9320  13.385   0.760  14.257
 2496SOL    HW1 9321  13.316   0.717  14.307
 2496SOL    HW2 9322  13.365   0.738  14.166
 2497SOL     OW 9323  12.885  12.090  12.474
 2497SOL    HW1 9324  12.963  12.040  12.497
 2497SOL    HW2 9325  12.826  12.027  12.432
 2498SOL     OW 9326   0.344  10.454   9.766
 2498SOL    HW1 9327   0.346  10.393   9.693
 2498SOL    HW2 9328   0.255  10.490   9.764
 2499SOL     OW 9329   4.437   7.678   1.294
 2499SOL    HW1 9330   4.532   7.689   1.302
 2499SOL    HW2 9331   4.425   7.635   1.209
 2500SOL     OW 9332   2.830   1.250   9.104
 2500SOL    HW1 9333   2.799   1.296   9.182
 2500SOL    HW2 9334   2.921   1.277   9.096
 2501SOL     OW 9335  14.237  10.117   6.741
 2501SOL    HW1 9336  14.164  10.062   6.713
 2501SOL    HW2 9337  14.199  10.173   6.809
 2502SOL     OW 9338   3.362  12.193   0.129
 2502SOL    HW1 9339   3.275  12.185   0.091
 2502SOL    HW2 9340   3.420  12.146   0.068
 2503SOL     OW 9341   3.841   6.730   9.193
 2503SOL    HW1 9342   3.835   6.635   9.202
 2503SOL    HW2 9343   3.836   6.763   9.282
 2504SOL     OW 9344   6.446   4.740   9.361
 2504SOL    HW1 9345   6.527   4.772   9.322
 2504SOL    HW2 9346   6.384   4.736   9.289
 2505SOL     OW 9347  13.398  11.458  12.743
 2505SOL    HW1 9348  13.374  11.463  12.836
 2505SOL    HW2 9349  13.398  11.550  12.714
 2506SOL     OW 9350   0.769   4.920  14.566
 2506SOL    HW1 9351   0.784   4.830  14.595
 2506SOL    HW2 9352   0.765   4.914  14.471
 2507SOL     OW 9353   4.726  14.527   0.251
 2507SOL    HW1 9354   4.770  14.509   0.167
 2507SOL    HW2 9355   4.776  14.599   0.289
 2508SOL     OW 9356   5.280   0.956  10.721
 2508SOL    HW1 9357   5.194   0.951  10.763
 2508SOL    HW2 9358   5.271   0.901  10.643
 2509SOL     OW 9359   4.992   7.940  10.486
 2509SOL    HW1 9360   4.952   7.978  10.408
 2509SOL    HW2 9361   4.942   7.976  10.559
 2510SOL     OW 9362   3.851   7.971   7.290
 2510SOL    HW1 9363   3.813   8.003   7.371
 2510SOL    HW2 9364   3.934   8.018   7.282
 2511SOL     OW 9365   6.633  11.222   2.148
 2511SOL    HW1 9366   6.572  11.249   2.216
 2511SOL    HW2 9367   6.586  11.235   2.066
 2512SOL     OW 9368   7.822   7.550   2.511
 2512SOL    HW1 9369   7.805   7.464   2.549
 2512SOL    HW2 9370   7.737   7.579   2.478
 2513SOL     OW 9371  13.850   5.966   1.768
 2513SOL    HW1 9372  13.929   5.996   1.814
 2513SOL    HW2 9373  13.877   5.885   1.725
 2514SOL     OW 9374   7.753   1.050   7.167
 2514SOL    HW1 9375   7.715   1.128   7.128
 2514SOL    HW2 9376   7.805   1.010   7.097
 2515SOL     OW 9377  11.680   5.339   9.860
 2515SOL    HW1 9378  11.753   5.342   9.922
 2515SOL    HW2 9379  11.604   5.366   9.912
 2516SOL     OW 9380   6.757   6.442   2.917
 2516SOL    HW1 9381   6.682   6.411   2.967
 2516SOL    HW2 9382   6.783   6.366   2.864
 2517SOL     OW 9383   5.242   9.607   0.917
 2517SOL    HW1 9384   5.151   9.620   0.944
 2517SOL    HW2 9385   5.268   9.525   0.959
 2518SOL     OW 9386   9.726   8.843   1.360
 2518SOL    HW1 9387   9.651   8.849   1.301
 2518SOL    HW2 9388   9.773   8.765   1.333
 2519SOL     OW 9389  10.839   4.322  13.345
 2519SOL    HW1 9390  10.759   4.324  13.292
 2519SOL    HW2 9391  10.809   4.331  13.435
 2520SOL     OW 9392   1.547  11.487   3.710
 2520SOL    HW1 9393   1.456  11.480   3.739
 2520SOL    HW2 9394   1.583  11.399   3.723
 2521SOL     OW 9395   1.667  11.505   9.132
 2521SOL    HW1 9396   1.637  11.494   9.042
 2521SOL    HW2 9397   1.661  11.599   9.148
 2522SOL     OW 9398   0.970  12.066   8.309
 2522SOL    HW1 9399   0.929  11.979   8.311
 2522SOL    HW2 9400   0.983  12.090   8.400
 2523SOL     OW 9401   2.104   3.029  11.730
 2523SOL    HW1 9402   2.160   3.105  11.712
 2523SOL    HW2 9403   2.017   3.066  11.745
 2524SOL     OW 9404   0.183   6.601   8.603
 2524SOL    HW1 9405   0.130   6.525   8.626
 2524SOL    HW2 9406   0.193   6.594   8.508
 2525SOL     OW 9407   0.056   1.343  12.634
 2525SOL    HW1 9408  14.858   1.316  12.685
 2525SOL    HW2 9409   0.021   1.401  12.567
 2526SOL     OW 9410  10.242   2.481   0.650
 2526SOL    HW1 9411  10.152   2.451   0.662
 2526SOL    HW2 9412  10.294   2.422   0.704
 2527SOL     OW 9413   7.680   9.750   3.837
 2527SOL    HW1 9414   7.667   9.762   3.743
 2527SOL    HW2 9415   7.731   9.669   3.844
 2528SOL     OW 9416  12.863   3.022   7.280
 2528SOL    HW1 9417  12.815   3.046   7.359
 2528SOL    HW2 9418  12.924   2.954   7.309
 2529SOL     OW 9419  11.782  13.728   8.272
 2529SOL    HW1 9420  11.861  13.743   8.221
 2529SOL    HW2 9421  11.729  13.670   8.219
 2530SOL     OW 9422   5.671   7.173  13.159
 2530SOL    HW1 9423   5.756   7.216  13.167
 2530SOL    HW2 9424   5.614   7.221  13.218
 2531SOL     OW 9425   5.277   8.096  13.090
 2531SOL    HW1 9426   5.205   8.036  13.068
 2531SOL    HW2 9427   5.313   8.060  13.172
 2532SOL     OW 9428   4.767  12.414   8.430
 2532SOL    HW1 9429   4.857  12.412   8.464
 2532SOL    HW2 9430   4.741  12.506   8.435
 2533SOL     OW 9431  12.687   1.103   0.630
 2533SOL    HW1 9432  12.698   1.008   0.635
 2533SOL    HW2 9433  12.749   1.138   0.694
 2534SOL     OW 9434   8.395  14.537   9.407
 2534SOL    HW1 9435   8.428  14.610   9.355
 2534SOL    HW2 9436   8.332  14.576   9.467
 2535SOL     OW 9437   8.374  11.164  12.800
 2535SOL    HW1 9438   8.395  11.071  12.804
 2535SOL    HW2 9439   8.439  11.206  12.857
 2536SOL     OW 9440  10.560   0.359   4.738
 2536SOL    HW1 9441  10.478   0.369   4.786
 2536SOL    HW2 9442  10.623   0.328   4.804
 2537SOL     OW 9443   2.731   9.800   2.304
 2537SOL    HW1 9444   2.807   9.845   2.267
 2537SOL    HW2 9445   2.701   9.741   2.235
 2538SOL     OW 9446   7.359   7.277   3.411
 2538SOL    HW1 9447   7.281   7.254   3.361
 2538SOL    HW2 9448   7.385   7.195   3.454
 2539SOL     OW 9449   3.609  14.690   3.083
 2539SOL    HW1 9450   3.674  14.690   3.012
 2539SOL    HW2 9451   3.585  14.598   3.093
 2540SOL     OW 9452   7.696   3.859  12.183
 2540SOL    HW1 9453   7.789   3.854  12.203
 2540SOL    HW2 9454   7.676   3.952  12.183
 2541SOL     OW 9455   0.090  11.788   2.804
 2541SOL    HW1 9456   0.096  11.808   2.711
 2541SOL    HW2 9457   0.071  11.694   2.807
 2542SOL     OW 9458   1.701   7.845   7.743
 2542SOL    HW1 9459   1.657   7.862   7.826
 2542SOL    HW2 9460   1.731   7.755   7.749
 2543SOL     OW 9461   8.358   3.418  14.222
 2543SOL    HW1 9462   8.409   3.342  14.194
 2543SOL    HW2 9463   8.423   3.478  14.259
 2544SOL     OW 9464  11.316  13.100  11.028
 2544SOL    HW1 9465  11.337  13.009  11.047
 2544SOL    HW2 9466  11.253  13.096  10.956
 2545SOL     OW 9467   2.108   4.070  12.871
 2545SOL    HW1 9468   2.179   4.058  12.809
 2545SOL    HW2 9469   2.150   4.062  12.957
 2546SOL     OW 9470   1.104   9.413  12.751
 2546SOL    HW1 9471   1.063   9.469  12.817
 2546SOL    HW2 9472   1.080   9.453  12.667
 2547SOL     OW 9473   8.318   5.096   2.826
 2547SOL    HW1 9474   8.343   5.004   2.821
 2547SOL    HW2 9475   8.401   5.142   2.845
 2548SOL     OW 9476   5.852   6.742   0.596
 2548SOL    HW1 9477   5.937   6.704   0.575
 2548SOL    HW2 9478   5.862   6.836   0.578
 2549SOL     OW 9479   6.169   1.195  13.645
 2549SOL    HW1 9480   6.191   1.195  13.552
 2549SOL    HW2 9481   6.075   1.179  13.648
 2550SOL     OW 9482  14.031   3.043  11.604
 2550SOL    HW1 9483  14.098   3.110  11.619
 2550SOL    HW2 9484  14.017   3.003  11.690
 2551SOL     OW 9485   6.995   3.840  12.117
 2551SOL    HW1 9486   6.962   3.928  12.135
 2551SOL    HW2 9487   7.056   3.852  12.044
 2552SOL     OW 9488   8.132   8.575   9.821
 2552SOL    HW1 9489   8.099   8.530   9.899
 2552SOL    HW2 9490   8.185   8.647   9.855
 2553SOL     OW 9491   5.620   1.564  11.831
 2553SOL    HW1 9492   5.642   1.577  11.739
 2553SOL    HW2 9493   5.638   1.471  11.847
 2554SOL     OW 9494   3.455  10.681   4.411
 2554SOL    HW1 9495   3.396  10.609   4.431
 2554SOL    HW2 9496   3.489  10.708   4.497
 2555SOL     OW 9497   7.296  14.676  14.427
 2555SOL    HW1 9498   7.224  14.700  14.484
 2555SOL    HW2 9499   7.254  14.633  14.352
 2556SOL     OW 9500  10.971   8.021  10.246
 2556SOL    HW1 9501  10.975   7.957  10.174
 2556SOL    HW2 9502  11.010   8.100  10.210
 2557SOL     OW 9503   6.859   6.209  11.154
 2557SOL    HW1 9504   6.826   6.136  11.102
 2557SOL    HW2 9505   6.950   6.185  11.175
 2558SOL     OW 9506  12.288   5.420   3.424
 2558SOL    HW1 9507  12.258   5.405   3.334
 2558SOL    HW2 9508  12.383   5.416   3.418
 2559SOL     OW 9509   9.338  12.688  11.194
 2559SOL    HW1 9510   9.243  12.682  11.202
 2559SOL    HW2 9511   9.359  12.777  11.222
 2560SOL     OW 9512   7.034   9.158   4.705
 2560SOL    HW1 9513   7.087   9.235   4.683
 2560SOL    HW2 9514   7.098   9.087   4.715
 2561SOL     OW 9515   0.915   4.145  12.678
 2561SOL    HW1 9516   0.876   4.150  12.591
 2561SOL    HW2 9517   0.914   4.234  12.711
 2562SOL     OW 9518   2.262   6.207  10.455
 2562SOL    HW1 9519   2.175   6.216  10.495
 2562SOL    HW2 9520   2.308   6.287  10.481
 2563SOL     OW 9521   9.186  13.634  10.609
 2563SOL    HW1 9522   9.206  13.619  10.701
 2563SOL    HW2 9523   9.111  13.693  10.610
 2564SOL     OW 9524  12.539   7.999   5.789
 2564SOL    HW1 9525  12.549   8.079   5.842
 2564SOL    HW2 9526  12.462   7.956   5.826
 2565SOL     OW 9527  13.799  13.030   4.480
 2565SOL    HW1 9528  13.760  12.993   4.401
 2565SOL    HW2 9529  13.735  13.094   4.511
 2566SOL     OW 9530   1.312   2.895   3.762
 2566SOL    HW1 9531   1.339   2.972   3.712
 2566SOL    HW2 9532   1.324   2.822   3.701
 2567SOL     OW 9533   0.121  14.604   5.553
 2567SOL    HW1 9534   0.052  14.549   5.515
 2567SOL    HW2 9535   0.077  14.685   5.577
 2568SOL     OW 9536   8.794  12.717  14.022
 2568SOL    HW1 9537   8.817  12.631  13.987
 2568SOL    HW2 9538   8.701  12.727  14.001
 2569SOL     OW 9539  12.796   9.953   5.171
 2569SOL    HW1 9540  12.828   9.904   5.095
 2569SOL    HW2 9541  12.875   9.976   5.220
 2570SOL     OW 9542   7.294  12.619  11.848
 2570SOL    HW1 9543   7.248  12.572  11.779
 2570SOL    HW2 9544   7.249  12.704  11.853
 2571SOL     OW 9545  12.639  13.870   9.075
 2571SOL    HW1 9546  12.694  13.848   8.999
 2571SOL    HW2 9547  12.671  13.813   9.145
 2572SOL     OW 9548   0.782   4.023  10.368
 2572SOL    HW1 9549   0.776   3.950  10.430
 2572SOL    HW2 9550   0.757   4.100  10.420
 2573SOL     OW 9551   9.593   4.609   6.457
 2573SOL    HW1 9552   9.634   4.563   6.384
 2573SOL    HW2 9553   9.563   4.692   6.419
 2574SOL     OW 9554  13.263  13.200   6.608
 2574SOL    HW1 9555  13.286  13.234   6.694
 2574SOL    HW2 9556  13.189  13.141   6.625
 2575SOL     OW 9557   8.242  14.141   4.067
 2575SOL    HW1 9558   8.269  14.231   4.050
 2575SOL    HW2 9559   8.170  14.149   4.129
 2576SOL     OW 9560   1.236  14.277   9.464
 2576SOL    HW1 9561   1.263  14.267   9.555
 2576SOL    HW2 9562   1.267  14.198   9.421
 2577SOL     OW 9563   0.077   6.262  12.512
 2577SOL    HW1 9564   0.105   6.172  12.532
 2577SOL    HW2 9565   0.008   6.251  12.446
 2578SOL     OW 9566   7.286   8.684   6.693
 2578SOL    HW1 9567   7.220   8.639   6.641
 2578SOL    HW2 9568   7.361   8.694   6.634
 2579SOL     OW 9569  11.084  14.515   4.790
 2579SOL    HW1 9570  11.130  14.438   4.758
 2579SOL    HW2 9571  11.152  14.567   4.833
 2580SOL     OW 9572   5.405   6.704   7.722
 2580SOL    HW1 9573   5.499   6.696   7.705
 2580SOL    HW2 9574   5.396   6.784   7.774
 2581SOL     OW 9575  12.903   9.192  11.363
 2581SOL    HW1 9576  12.833   9.184  11.298
 2581SOL    HW2 9577  12.864   9.244  11.433
 2582SOL     OW 9578  13.797   3.261  11.545
 2582SOL    HW1 9579  13.712   3.232  11.578
 2582SOL    HW2 9580  13.857   3.191  11.570
 2583SOL     OW 9581   9.022   1.515   0.884
 2583SOL    HW1 9582   9.033   1.557   0.798
 2583SOL    HW2 9583   9.075   1.435   0.879
 2584SOL     OW 9584   6.734  11.062  11.807
 2584SOL    HW1 9585   6.708  10.982  11.761
 2584SOL    HW2 9586   6.766  11.032  11.892
 2585SOL     OW 9587   5.819  10.049  12.276
 2585SOL    HW1 9588   5.770   9.991  12.334
 2585SOL    HW2 9589   5.752  10.095  12.226
 2586SOL     OW 9590   6.865   2.786   9.231
 2586SOL    HW1 9591   6.930   2.733   9.185
 2586SOL    HW2 9592   6.814   2.827   9.160
 2587SOL     OW 9593   5.171  13.440   0.767
 2587SOL    HW1 9594   5.258  13.468   0.740
 2587SOL    HW2 9595   5.175  13.437   0.862
 2588SOL     OW 9596   2.656   7.751  11.589
 2588SOL    HW1 9597   2.731   7.799  11.552
 2588SOL    HW2 9598   2.651   7.671  11.537
 2589SOL     OW 9599  11.894   3.751   7.312
 2589SOL    HW1 9600  11.808   3.785   7.337
 2589SOL    HW2 9601  11.875   3.668   7.268
 2590SOL     OW 9602   1.721  12.567   0.223
 2590SOL    HW1 9603   1.706  12.474   0.240
 2590SOL    HW2 9604   1.734  12.605   0.309
 2591SOL     OW 9605   7.394   1.251  10.768
 2591SOL    HW1 9606   7.484   1.280  10.754
 2591SOL    HW2 9607   7.370   1.288  10.853
 2592SOL     OW 9608   8.849  10.397  10.895
 2592SOL    HW1 9609   8.845  10.352  10.810
 2592SOL    HW2 9610   8.758  10.408  10.921
 2593SOL     OW 9611   9.867   7.799   0.148
 2593SOL    HW1 9612   9.819   7.779   0.228
 2593SOL    HW2 9613   9.799   7.829   0.087
 2594SOL     OW 9614   4.579   8.095  10.903
 2594SOL    HW1 9615   4.603   8.159  10.837
 2594SOL    HW2 9616   4.504   8.133  10.949
 2595SOL     OW 9617   8.167   6.037   2.774
 2595SOL    HW1 9618   8.073   6.024   2.786
 2595SOL    HW2 9619   8.174   6.074   2.686
 2596SOL     OW 9620   4.897   4.802  13.710
 2596SOL    HW1 9621   4.980   4.810  13.758
 2596SOL    HW2 9622   4.842   4.747  13.766
 2597SOL     OW 9623   8.946   1.966  10.905
 2597SOL    HW1 9624   8.946   2.056  10.874
 2597SOL    HW2 9625   8.910   1.915  10.832
 2598SOL     OW 9626   6.486   2.699   0.687
 2598SOL    HW1 9627   6.505   2.746   0.605
 2598SOL    HW2 9628   6.397   2.726   0.709
 2599SOL     OW 9629  13.661   0.382   3.020
 2599SOL    HW1 9630  13.621   0.342   3.097
 2599SOL    HW2 9631  13.721   0.448   3.056
 2600SOL     OW 9632  10.787   6.036  13.621
 2600SOL    HW1 9633  10.872   6.022  13.662
 2600SOL    HW2 9634  10.731   5.968  13.660
 2601SOL     OW 9635  13.572  13.342  14.108
 2601SOL    HW1 9636  13.564  13.246  14.112
 2601SOL    HW2 9637  13.659  13.361  14.143
 2602SOL     OW 9638   5.310   5.167   5.697
 2602SOL    HW1 9639   5.261   5.248   5.713
 2602SOL    HW2 9640   5.250   5.097   5.721
 2603SOL     OW 9641   4.141  14.164   1.637
 2603SOL    HW1 9642   4.053  14.185   1.670
 2603SOL    HW2 9643   4.197  14.168   1.715
 2604SOL     OW 9644   2.099   7.699  12.148
 2604SOL    HW1 9645   2.066   7.644  12.219
 2604SOL    HW2 9646   2.033   7.691  12.079
 2605SOL     OW 9647  12.224   5.474  11.985
 2605SOL    HW1 9648  12.185   5.394  11.950
 2605SOL    HW2 9649  12.149   5.529  12.009
 2606SOL     OW 9650  13.729   3.008   4.930
 2606SOL    HW1 9651  13.766   2.925   4.902
 2606SOL    HW2 9652  13.660   2.985   4.992
 2607SOL     OW 9653   2.600  12.141  13.011
 2607SOL    HW1 9654   2.633  12.222  13.049
 2607SOL    HW2 9655   2.663  12.119  12.942
 2608SOL     OW 9656   4.002   3.133   3.876
 2608SOL    HW1 9657   3.972   3.192   3.946
 2608SOL    HW2 9658   3.930   3.071   3.865
 2609SOL     OW 9659  14.375   7.023   1.330
 2609SOL    HW1 9660  14.338   7.094   1.382
 2609SOL    HW2 9661  14.330   7.029   1.245
 2610SOL     OW 9662   1.650   4.311   0.403
 2610SOL    HW1 9663   1.686   4.393   0.370
 2610SOL    HW2 9664   1.587   4.337   0.470
 2611SOL     OW 9665  10.394   0.684   6.570
 2611SOL    HW1 9666  10.404   0.668   6.476
 2611SOL    HW2 9667  10.483   0.702   6.600
 2612SOL     OW 9668   8.322   7.256   0.371
 2612SOL    HW1 9669   8.319   7.313   0.294
 2612SOL    HW2 9670   8.350   7.171   0.337
 2613SOL     OW 9671  14.191   9.676   1.289
 2613SOL    HW1 9672  14.203   9.755   1.235
 2613SOL    HW2 9673  14.119   9.629   1.248
 2614SOL     OW 9674   5.728   1.522  11.590
 2614SOL    HW1 9675   5.767   1.547  11.506
 2614SOL    HW2 9676   5.803   1.508  11.648
 2615SOL     OW 9677  12.277   2.366  14.315
 2615SOL    HW1 9678  12.360   2.370  14.362
 2615SOL    HW2 9679  12.298   2.328  14.231
 2616SOL     OW 9680   8.294  11.312   6.568
 2616SOL    HW1 9681   8.278  11.406   6.559
 2616SOL    HW2 9682   8.329  11.303   6.657
 2617SOL     OW 9683  14.235  12.547   4.369
 2617SOL    HW1 9684  14.185  12.494   4.432
 2617SOL    HW2 9685  14.171  12.573   4.303
 2618SOL     OW 9686   4.361  10.337   1.427
 2618SOL    HW1 9687   4.389  10.423   1.396
 2618SOL    HW2 9688   4.284  10.354   1.481
 2619SOL     OW 9689   0.526  11.144   0.426
 2619SOL    HW1 9690   0.448  11.153   0.482
 2619SOL    HW2 9691   0.496  11.091   0.352
 2620SOL     OW 9692   6.723  11.171   2.770
 2620SOL    HW1 9693   6.722  11.261   2.739
 2620SOL    HW2 9694   6.751  11.119   2.695
 2621SOL     OW 9695  10.340  11.833   7.099
 2621SOL    HW1 9696  10.411  11.892   7.122
 2621SOL    HW2 9697  10.301  11.808   7.184
 2622SOL     OW 9698   4.923   9.731   0.494
 2622SOL    HW1 9699   4.945   9.810   0.542
 2622SOL    HW2 9700   4.990   9.668   0.519
 2623SOL     OW 9701  14.125  12.739   2.735
 2623SOL    HW1 9702  14.062  12.803   2.766
 2623SOL    HW2 9703  14.110  12.734   2.641
 2624SOL     OW 9704   5.523  11.097   0.450
 2624SOL    HW1 9705   5.545  11.189   0.434
 2624SOL    HW2 9706   5.555  11.051   0.372
 2625SOL     OW 9707  12.644   1.166   2.709
 2625SOL    HW1 9708  12.587   1.121   2.771
 2625SOL    HW2 9709  12.588   1.186   2.635
 2626SOL     OW 9710   0.451   0.789   1.768
 2626SOL    HW1 9711   0.489   0.765   1.684
 2626SOL    HW2 9712   0.515   0.849   1.808
 2627SOL     OW 9713   5.073  14.672  13.170
 2627SOL    HW1 9714   5.136  14.675  13.098
 2627SOL    HW2 9715   5.114  14.614  13.235
 2628SOL     OW 9716  13.377  10.224   9.558
 2628SOL    HW1 9717  13.440  10.189   9.494
 2628SOL    HW2 9718  13.315  10.152   9.572
 2629SOL     OW 9719   2.330   9.940   3.329
 2629SOL    HW1 9720   2.268   9.937   3.401
 2629SOL    HW2 9721   2.413   9.910   3.367
 2630SOL     OW 9722   0.703   7.393   0.335
 2630SOL    HW1 9723   0.709   7.476   0.382
 2630SOL    HW2 9724   0.620   7.355   0.363
 2631SOL     OW 9725  11.643  14.523   0.867
 2631SOL    HW1 9726  11.602  14.436   0.862
 2631SOL    HW2 9727  11.617  14.556   0.953
 2632SOL     OW 9728   7.713  11.311   3.412
 2632SOL    HW1 9729   7.739  11.283   3.500
 2632SOL    HW2 9730   7.746  11.242   3.354
 2633SOL     OW 9731  13.339   9.387   6.969
 2633SOL    HW1 9732  13.429   9.376   6.939
 2633SOL    HW2 9733  13.347   9.409   7.062
 2634SOL     OW 9734   9.297   8.802  12.364
 2634SOL    HW1 9735   9.226   8.838  12.417
 2634SOL    HW2 9736   9.347   8.747  12.426
 2635SOL     OW 9737  12.609  14.127  12.307
 2635SOL    HW1 9738  12.546  14.061  12.278
 2635SOL    HW2 9739  12.686  14.111  12.254
 2636SOL     OW 9740   7.606   0.765   1.492
 2636SOL    HW1 9741   7.516   0.798   1.502
 2636SOL    HW2 9742   7.604   0.716   1.410
 2637SOL     OW 9743   6.722  13.283   2.490
 2637SOL    HW1 9744   6.741  13.228   2.565
 2637SOL    HW2 9745   6.806  13.294   2.446
 2638SOL     OW 9746   1.075   5.452  10.805
 2638SOL    HW1 9747   1.115   5.387  10.862
 2638SOL    HW2 9748   1.040   5.402  10.731
 2639SOL     OW 9749  12.032  13.576   5.264
 2639SOL    HW1 9750  11.967  13.646   5.271
 2639SOL    HW2 9751  11.981  13.497   5.247
 2640SOL     OW 9752   7.846   0.748   0.239
 2640SOL    HW1 9753   7.825   0.777   0.150
 2640SOL    HW2 9754   7.913   0.810   0.269
 2641SOL     OW 9755   4.576  12.614   5.763
 2641SOL    HW1 9756   4.548  12.559   5.689
 2641SOL    HW2 9757   4.539  12.700   5.743
 2642SOL     OW 9758   6.277  11.691   3.180
 2642SOL    HW1 9759   6.310  11.779   3.159
 2642SOL    HW2 9760   6.287  11.684   3.275
 2643SOL     OW 9761   6.561  14.731   0.267
 2643SOL    HW1 9762   6.617  14.771   0.200
 2643SOL    HW2 9763   6.621  14.686   0.326
 2644SOL     OW 9764   7.120  10.346  13.799
 2644SOL    HW1 9765   7.096  10.393  13.879
 2644SOL    HW2 9766   7.052  10.371  13.736
 2645SOL     OW 9767  13.132  12.979   4.771
 2645SOL    HW1 9768  13.193  12.984   4.697
 2645SOL    HW2 9769  13.077  13.057   4.761
 2646SOL     OW 9770  13.949   0.857  13.987
 2646SOL    HW1 9771  13.914   0.877  13.900
 2646SOL    HW2 9772  13.999   0.935  14.011
 2647SOL     OW 9773  14.803   8.126   3.131
 2647SOL    HW1 9774   0.010   8.107   3.093
 2647SOL    HW2 9775  14.741   8.108   3.060
 2648SOL     OW 9776   9.452   2.397   9.433
 2648SOL    HW1 9777   9.510   2.471   9.449
 2648SOL    HW2 9778   9.426   2.367   9.521
 2649SOL     OW 9779   3.725   2.479   7.195
 2649SOL    HW1 9780   3.666   2.502   7.123
 2649SOL    HW2 9781   3.667   2.441   7.261
 2650SOL     OW 9782   7.104   3.739  14.551
 2650SOL    HW1 9783   7.016   3.761  14.520
 2650SOL    HW2 9784   7.126   3.808  14.614
 2651SOL     OW 9785   4.527  13.587  14.103
 2651SOL    HW1 9786   4.610  13.608  14.145
 2651SOL    HW2 9787   4.551  13.556  14.015
 2652SOL     OW 9788   3.351   3.996   2.873
 2652SOL    HW1 9789   3.444   4.019   2.875
 2652SOL    HW2 9790   3.350   3.901   2.863
 2653SOL     OW 9791   2.755  14.773   6.241
 2653SOL    HW1 9792   2.753  14.678   6.253
 2653SOL    HW2 9793   2.826  14.788   6.178
 2654SOL     OW 9794   9.545  13.300  11.320
 2654SOL    HW1 9795   9.557  13.265  11.408
 2654SOL    HW2 9796   9.563  13.226  11.262
 2655SOL     OW 9797   6.222   0.842  14.479
 2655SOL    HW1 9798   6.204   0.848  14.385
 2655SOL    HW2 9799   6.316   0.826  14.485
 2656SOL     OW 9800   5.982   0.193  14.114
 2656SOL    HW1 9801   5.902   0.182  14.063
 2656SOL    HW2 9802   6.038   0.120  14.087
 2657SOL     OW 9803  13.299   4.760  10.580
 2657SOL    HW1 9804  13.381   4.739  10.626
 2657SOL    HW2 9805  13.290   4.855  10.589
 2658SOL     OW 9806   8.208  12.967  10.267
 2658SOL    HW1 9807   8.281  13.012  10.224
 2658SOL    HW2 9808   8.249  12.894  10.314
 2659SOL     OW 9809   7.736   7.014   6.735
 2659SOL    HW1 9810   7.728   7.094   6.786
 2659SOL    HW2 9811   7.802   7.034   6.668
 2660SOL     OW 9812   5.930   5.947  13.737
 2660SOL    HW1 9813   5.937   5.985  13.825
 2660SOL    HW2 9814   5.919   6.023  13.680
 2661SOL     OW 9815  14.062   3.070   2.140
 2661SOL    HW1 9816  13.983   3.033   2.100
 2661SOL    HW2 9817  14.035   3.090   2.230
 2662SOL     OW 9818   7.958   8.971   8.321
 2662SOL    HW1 9819   7.862   8.971   8.326
 2662SOL    HW2 9820   7.985   8.900   8.380
 2663SOL     OW 9821   6.941   1.017   5.235
 2663SOL    HW1 9822   6.855   1.052   5.257
 2663SOL    HW2 9823   6.997   1.094   5.225
 2664SOL     OW 9824   8.740   5.687   5.418
 2664SOL    HW1 9825   8.692   5.722   5.493
 2664SOL    HW2 9826   8.768   5.600   5.446
 2665SOL     OW 9827   8.381   7.929  14.314
 2665SOL    HW1 9828   8.327   7.852  14.300
 2665SOL    HW2 9829   8.440   7.932  14.238
 2666SOL     OW 9830  10.462  13.267  12.073
 2666SOL    HW1 9831  10.537  13.214  12.046
 2666SOL    HW2 9832  10.462  13.262  12.168
 2667SOL     OW 9833   1.136  10.049   3.736
 2667SOL    HW1 9834   1.071  10.064   3.804
 2667SOL    HW2 9835   1.117  10.116   3.670
 2668SOL     OW 9836  12.818  11.948   0.424
 2668SOL    HW1 9837  12.888  11.933   0.487
 2668SOL    HW2 9838  12.858  11.933   0.339
 2669SOL     OW 9839  10.773  10.877   0.439
 2669SOL    HW1 9840  10.712  10.866   0.366
 2669SOL    HW2 9841  10.844  10.816   0.419
 2670SOL     OW 9842   0.951   8.154  12.362
 2670SOL    HW1 9843   0.879   8.217  12.355
 2670SOL    HW2 9844   1.001   8.167  12.282
 2671SOL     OW 9845   2.712   9.314  12.306
 2671SOL    HW1 9846   2.618   9.334  12.313
 2671SOL    HW2 9847   2.721   9.230  12.351
 2672SOL     OW 9848  13.489   3.739  10.661
 2672SOL    HW1 9849  13.545   3.663  10.680
 2672SOL    HW2 9850  13.423   3.738  10.730
 2673SOL     OW 9851   8.963   5.349   2.642
 2673SOL    HW1 9852   8.906   5.276   2.669
 2673SOL    HW2 9853   9.002   5.319   2.560
 2674SOL     OW 9854  10.199  12.496   1.304
 2674SOL    HW1 9855  10.121  12.457   1.266
 2674SOL    HW2 9856  10.191  12.479   1.398
 2675SOL     OW 9857   9.301  12.673   9.761
 2675SOL    HW1 9858   9.240  12.601   9.775
 2675SOL    HW2 9859   9.365  12.639   9.699
 2676SOL     OW 9860  11.502   0.950   9.900
 2676SOL    HW1 9861  11.535   1.010   9.833
 2676SOL    HW2 9862  11.565   0.879   9.903
 2677SOL     OW 9863   0.934  13.810   0.589
 2677SOL    HW1 9864   0.969  13.733   0.634
 2677SOL    HW2 9865   0.840  13.806   0.604
 2678SOL     OW 9866  13.799  14.104  12.732
 2678SOL    HW1 9867  13.768  14.170  12.794
 2678SOL    HW2 9868  13.804  14.150  12.648
 2679SOL     OW 9869  10.140  11.759   1.314
 2679SOL    HW1 9870  10.115  11.823   1.381
 2679SOL    HW2 9871  10.098  11.678   1.341
 2680SOL     OW 9872   5.000   2.800   6.216
 2680SOL    HW1 9873   5.082   2.808   6.166
 2680SOL    HW2 9874   4.945   2.742   6.164
 2681SOL     OW 9875  10.651  11.880  13.491
 2681SOL    HW1 9876  10.625  11.916  13.575
 2681SOL    HW2 9877  10.670  11.957  13.436
 2682SOL     OW 9878   2.958   7.187   7.682
 2682SOL    HW1 9879   2.872   7.179   7.641
 2682SOL    HW2 9880   2.947   7.148   7.769
 2683SOL     OW 9881   7.652   4.523   2.394
 2683SOL    HW1 9882   7.597   4.497   2.321
 2683SOL    HW2 9883   7.731   4.559   2.353
 2684SOL     OW 9884   2.867  11.496   4.797
 2684SOL    HW1 9885   2.870  11.590   4.812
 2684SOL    HW2 9886   2.784  11.481   4.751
 2685SOL     OW 9887  13.596  11.367  11.939
 2685SOL    HW1 9888  13.646  11.298  11.984
 2685SOL    HW2 9889  13.563  11.325  11.860
 2686SOL     OW 9890   0.403   9.682   2.134
 2686SOL    HW1 9891   0.468   9.752   2.140
 2686SOL    HW2 9892   0.362   9.680   2.220
 2687SOL     OW 9893   0.409   3.334  10.576
 2687SOL    HW1 9894   0.474   3.342  10.506
 2687SOL    HW2 9895   0.340   3.395  10.552
 2688SOL     OW 9896   0.010   6.838  13.170
 2688SOL    HW1 9897   0.032   6.925  13.204
 2688SOL    HW2 9898   0.030   6.844  13.076
 2689SOL     OW 9899   5.927  13.199  14.730
 2689SOL    HW1 9900   5.937  13.212  14.636
 2689SOL    HW2 9901   5.939  13.287  14.768
 2690SOL     OW 9902   7.472  14.749  11.888
 2690SOL    HW1 9903   7.417  14.808  11.939
 2690SOL    HW2 9904   7.556  14.749  11.932
 2691SOL     OW 9905  14.838   9.995   7.853
 2691SOL    HW1 9906  14.870  10.075   7.810
 2691SOL    HW2 9907  14.749  10.017   7.881
 2692SOL     OW 9908  12.936  14.179  13.137
 2692SOL    HW1 9909  12.906  14.163  13.048
 2692SOL    HW2 9910  12.974  14.267  13.134
 2693SOL     OW 9911  11.089  12.856  12.845
 2693SOL    HW1 9912  11.162  12.890  12.792
 2693SOL    HW2 9913  11.046  12.935  12.879
 2694SOL     OW 9914   4.807   5.055  12.857
 2694SOL    HW1 9915   4.873   5.085  12.919
 2694SOL    HW2 9916   4.790   4.964  12.882
 2695SOL     OW 9917   7.406   3.088  14.622
 2695SOL    HW1 9918   7.414   3.042  14.538
 2695SOL    HW2 9919   7.491   3.073  14.664
 2696SOL     OW 9920   4.080   4.026   2.045
 2696SOL    HW1 9921   4.151   4.040   1.982
 2696SOL    HW2 9922   4.064   3.932   2.042
 2697SOL     OW 9923  10.488   2.199  12.826
 2697SOL    HW1 9924  10.495   2.213  12.921
 2697SOL    HW2 9925  10.395   2.180  12.812
 2698SOL     OW 9926   1.935   3.403  11.518
 2698SOL    HW1 9927   1.875   3.467  11.481
 2698SOL    HW2 9928   1.961   3.348  11.444
 2699SOL     OW 9929  11.400  14.368  14.769
 2699SOL    HW1 9930  11.368  14.456  14.789
 2699SOL    HW2 9931  11.465  14.380  14.701
 2700SOL     OW 9932   2.244   9.962  10.339
 2700SOL    HW1 9933   2.228  10.050  10.374
 2700SOL    HW2 9934   2.213   9.903  10.408
 2701SOL     OW 9935   6.863   0.168   4.544
 2701SOL    HW1 9936   6.943   0.205   4.582
 2701SOL    HW2 9937   6.824   0.240   4.495
 2702SOL     OW 9938   2.572   8.806   7.442
 2702SOL    HW1 9939   2.477   8.797   7.450
 2702SOL    HW2 9940   2.597   8.738   7.379
 2703SOL     OW 9941  14.728  10.923   2.922
 2703SOL    HW1 9942  14.711  10.845   2.976
 2703SOL    HW2 9943  14.644  10.942   2.880
 2704SOL     OW 9944   5.984   0.340  10.140
 2704SOL    HW1 9945   6.018   0.425  10.113
 2704SOL    HW2 9946   6.036   0.318  10.217
 2705SOL     OW 9947   2.274   9.601   8.310
 2705SOL    HW1 9948   2.190   9.625   8.269
 2705SOL    HW2 9949   2.249   9.551   8.387
 2706SOL     OW 9950   8.661   8.353  14.377
 2706SOL    HW1 9951   8.645   8.446  14.398
 2706SOL    HW2 9952   8.696   8.354  14.288
 2707SOL     OW 9953   4.176   1.312  11.064
 2707SOL    HW1 9954   4.224   1.233  11.038
 2707SOL    HW2 9955   4.184   1.370  10.989
 2708SOL     OW 9956   4.228   5.500   9.009
 2708SOL    HW1 9957   4.245   5.570   9.072
 2708SOL    HW2 9958   4.229   5.420   9.061
 2709SOL     OW 9959   1.794   4.457  14.604
 2709SOL    HW1 9960   1.818   4.511  14.680
 2709SOL    HW2 9961   1.791   4.368  14.639
 2710SOL     OW 9962  13.107   5.837  10.327
 2710SOL    HW1 9963  13.036   5.813  10.268
 2710SOL    HW2 9964  13.179   5.862  10.269
 2711SOL     OW 9965   9.518  12.219  11.902
 2711SOL    HW1 9966   9.575  12.146  11.876
 2711SOL    HW2 9967   9.575  12.296  11.898
 2712SOL     OW 9968   9.000   8.371   1.115
 2712SOL    HW1 9969   9.035   8.292   1.074
 2712SOL    HW2 9970   8.906   8.353   1.125
 2713SOL     OW 9971   8.198   9.514  14.367
 2713SOL    HW1 9972   8.159   9.514  14.280
 2713SOL    HW2 9973   8.125   9.532  14.427
 2714SOL     OW 9974  10.447   3.845   6.605
 2714SOL    HW1 9975  10.541   3.863   6.604
 2714SOL    HW2 9976  10.432   3.788   6.530
 2715SOL     OW 9977   9.858   6.082   0.658
 2715SOL    HW1 9978   9.923   6.148   0.684
 2715SOL    HW2 9979   9.823   6.114   0.575
 2716SOL     OW 9980   2.522   7.135   2.319
 2716SOL    HW1 9981   2.538   7.216   2.367
 2716SOL    HW2 9982   2.523   7.161   2.227
 2717SOL     OW 9983  12.318  13.155  14.121
 2717SOL    HW1 9984  12.384  13.171  14.189
 2717SOL    HW2 9985  12.313  13.238  14.073
 2718SOL     OW 9986   1.527   1.728   5.265
 2718SOL    HW1 9987   1.602   1.773   5.225
 2718SOL    HW2 9988   1.563   1.645   5.296
 2719SOL     OW 9989   0.949   0.303   6.772
 2719SOL    HW1 9990   0.975   0.225   6.822
 2719SOL    HW2 9991   0.887   0.348   6.829
 2720SOL     OW 9992   9.389  11.896   6.478
 2720SOL    HW1 9993   9.370  11.831   6.411
 2720SOL    HW2 9994   9.340  11.974   6.452
 2721SOL     OW 9995   6.143  10.518   8.576
 2721SOL    HW1 9996   6.141  10.583   8.645
 2721SOL    HW2 9997   6.235  10.510   8.552
 2722SOL     OW 9998   0.043  13.131   0.360
 2722SOL    HW1 9999   0.073  13.221   0.347
 2722SOL    HW210000  14.830  13.132   0.334
 2723SOL     OW10001   8.033   2.060   9.459
 2723SOL    HW110002   8.063   2.094   9.543
 2723SOL    HW210003   8.112   2.053   9.406
 2724SOL     OW10004   4.862   9.495  13.946
 2724SOL    HW110005   4.879   9.493  14.040
 2724SOL    HW210006   4.889   9.409  13.914
 2725SOL     OW10007   1.534   2.571   0.197
 2725SOL    HW110008   1.502   2.623   0.123
 2725SOL    HW210009   1.582   2.634   0.251
 2726SOL     OW10010  10.383   0.336   1.861
 2726SOL    HW110011  10.428   0.355   1.779
 2726SOL    HW210012  10.359   0.421   1.896
 2727SOL     OW10013  10.754   4.354  12.685
 2727SOL    HW110014  10.820   4.375  12.751
 2727SOL    HW210015  10.801   4.306  12.618
 2728SOL     OW10016   6.306  12.468  10.421
 2728SOL    HW110017   6.313  12.432  10.510
 2728SOL    HW210018   6.245  12.409  10.376
 2729SOL     OW10019   3.331   4.365   4.498
 2729SOL    HW110020   3.399   4.372   4.565
 2729SOL    HW210021   3.378   4.377   4.416
 2730SOL     OW10022   8.066   3.429   3.727
 2730SOL    HW110023   8.127   3.428   3.800
 2730SOL    HW210024   8.121   3.446   3.650
 2731SOL     OW10025   6.150  12.122  10.071
 2731SOL    HW110026   6.098  12.202  10.079
 2731SOL    HW210027   6.088  12.055  10.041
 2732SOL     OW10028   9.103   6.111   7.648
 2732SOL    HW110029   9.136   6.047   7.710
 2732SOL    HW210030   9.182   6.147   7.607
 2733SOL     OW10031   2.466   1.878  14.395
 2733SOL    HW110032   2.529   1.845  14.330
 2733SOL    HW210033   2.381   1.845  14.365
 2734SOL     OW10034  12.971   6.294   1.246
 2734SOL    HW110035  12.878   6.274   1.256
 2734SOL    HW210036  13.007   6.218   1.200
 2735SOL     OW10037  14.659   8.129   2.389
 2735SOL    HW110038  14.678   8.222   2.398
 2735SOL    HW210039  14.740   8.085   2.417
 2736SOL     OW10040   7.749   9.114  13.624
 2736SOL    HW110041   7.663   9.141  13.655
 2736SOL    HW210042   7.733   9.035  13.572
 2737SOL     OW10043   3.447   5.427   4.314
 2737SOL    HW110044   3.456   5.521   4.333
 2737SOL    HW210045   3.520   5.407   4.255
 2738SOL     OW10046   1.893   6.262   4.757
 2738SOL    HW110047   1.856   6.217   4.682
 2738SOL    HW210048   1.899   6.195   4.825
 2739SOL     OW10049   6.225   5.451   0.542
 2739SOL    HW110050   6.142   5.404   0.544
 2739SOL    HW210051   6.201   5.543   0.551
 2740SOL     OW10052   4.479  13.418  14.769
 2740SOL    HW110053   4.431  13.364  14.705
 2740SOL    HW210054   4.550  13.361  14.799
 2741SOL     OW10055   5.732   0.105   5.197
 2741SOL    HW110056   5.732   0.092   5.102
 2741SOL    HW210057   5.720   0.200   5.207
 2742SOL     OW10058   5.741  14.216  12.769
 2742SOL    HW110059   5.712  14.238  12.857
 2742SOL    HW210060   5.749  14.301  12.724
 2743SOL     OW10061   2.273  10.819   2.360
 2743SOL    HW110062   2.306  10.730   2.348
 2743SOL    HW210063   2.260  10.827   2.455
 2744SOL     OW10064  14.205   2.473   9.856
 2744SOL    HW110065  14.206   2.391   9.807
 2744SOL    HW210066  14.140   2.459   9.925
 2745SOL     OW10067  12.024  12.506   9.736
 2745SOL    HW110068  12.028  12.553   9.653
 2745SOL    HW210069  11.986  12.421   9.714
 2746SOL     OW10070   5.864   5.842  12.527
 2746SOL    HW110071   5.934   5.907  12.515
 2746SOL    HW210072   5.832   5.859  12.615
 2747SOL     OW10073   7.480   6.024  14.181
 2747SOL    HW110074   7.440   5.942  14.153
 2747SOL    HW210075   7.568   6.021  14.144
 2748SOL     OW10076   3.932   9.550  14.590
 2748SOL    HW110077   3.961   9.606  14.662
 2748SOL    HW210078   3.990   9.572  14.518
 2749SOL     OW10079   5.762  13.501   5.733
 2749SOL    HW110080   5.698  13.516   5.663
 2749SOL    HW210081   5.813  13.581   5.736
 2750SOL     OW10082   3.492   1.398   3.929
 2750SOL    HW110083   3.531   1.312   3.947
 2750SOL    HW210084   3.432   1.412   4.003
 2751SOL     OW10085   7.183  10.951   4.088
 2751SOL    HW110086   7.235  10.888   4.138
 2751SOL    HW210087   7.099  10.955   4.133
 2752SOL     OW10088   9.519   4.880  12.153
 2752SOL    HW110089   9.535   4.787  12.173
 2752SOL    HW210090   9.483   4.879  12.065
 2753SOL     OW10091  10.836   4.925   6.598
 2753SOL    HW110092  10.876   4.976   6.668
 2753SOL    HW210093  10.862   4.835   6.616
 2754SOL     OW10094   9.953   9.412  11.149
 2754SOL    HW110095   9.887   9.441  11.087
 2754SOL    HW210096   9.910   9.420  11.235
 2755SOL     OW10097   7.936   7.574  13.479
 2755SOL    HW110098   7.843   7.598  13.484
 2755SOL    HW210099   7.956   7.574  13.386
 2756SOL     OW10100   5.407  13.691   9.824
 2756SOL    HW110101   5.454  13.731   9.897
 2756SOL    HW210102   5.315  13.715   9.839
 2757SOL     OW10103   3.893   9.319  10.155
 2757SOL    HW110104   3.884   9.414  10.149
 2757SOL    HW210105   3.962   9.306  10.221
 2758SOL     OW10106   7.975   9.181   0.498
 2758SOL    HW110107   7.977   9.086   0.498
 2758SOL    HW210108   7.884   9.204   0.477
 2759SOL     OW10109   4.375   7.012   4.111
 2759SOL    HW110110   4.372   7.069   4.188
 2759SOL    HW210111   4.403   7.070   4.040
 2760SOL     OW10112  11.528   3.724   4.571
 2760SOL    HW110113  11.459   3.682   4.623
 2760SOL    HW210114  11.482   3.769   4.501
 2761SOL     OW10115  14.736  13.486   4.137
 2761SOL    HW110116  14.670  13.541   4.180
 2761SOL    HW210117  14.819  13.533   4.152
 2762SOL     OW10118   7.629   4.401   7.791
 2762SOL    HW110119   7.648   4.349   7.869
 2762SOL    HW210120   7.673   4.354   7.719
 2763SOL     OW10121  12.619   3.145   5.738
 2763SOL    HW110122  12.582   3.057   5.749
 2763SOL    HW210123  12.697   3.132   5.684
 2764SOL     OW10124   9.887   0.880   5.426
 2764SOL    HW110125   9.904   0.935   5.502
 2764SOL    HW210126   9.969   0.880   5.378
 2765SOL     OW10127  10.107   1.269   0.861
 2765SOL    HW110128  10.029   1.314   0.892
 2765SOL    HW210129  10.180   1.320   0.897
 2766SOL     OW10130   8.414   7.744   4.878
 2766SOL    HW110131   8.407   7.827   4.829
 2766SOL    HW210132   8.330   7.736   4.923
 2767SOL     OW10133  10.404   9.002  10.389
 2767SOL    HW110134  10.369   9.065  10.326
 2767SOL    HW210135  10.499   9.014  10.384
 2768SOL     OW10136  13.950   4.767  11.262
 2768SOL    HW110137  13.948   4.719  11.179
 2768SOL    HW210138  14.040   4.796  11.271
 2769SOL     OW10139   1.611  11.229  13.363
 2769SOL    HW110140   1.540  11.294  13.359
 2769SOL    HW210141   1.623  11.213  13.456
 2770SOL     OW10142  13.110  10.415   8.344
 2770SOL    HW110143  13.080  10.351   8.279
 2770SOL    HW210144  13.043  10.412   8.413
 2771SOL     OW10145   7.696  11.026   8.264
 2771SOL    HW110146   7.667  10.994   8.179
 2771SOL    HW210147   7.783  11.062   8.248
 2772SOL     OW10148   8.259   1.922   5.614
 2772SOL    HW110149   8.298   1.875   5.687
 2772SOL    HW210150   8.239   1.855   5.549
 2773SOL     OW10151   7.052  13.433   0.221
 2773SOL    HW110152   6.987  13.386   0.168
 2773SOL    HW210153   7.131  13.433   0.167
 2774SOL     OW10154   9.863   6.644   3.472
 2774SOL    HW110155   9.850   6.723   3.421
 2774SOL    HW210156   9.904   6.673   3.554
 2775SOL     OW10157  12.895  12.680  11.970
 2775SOL    HW110158  12.802  12.687  11.946
 2775SOL    HW210159  12.904  12.589  12.000
 2776SOL     OW10160   6.388  13.844  13.057
 2776SOL    HW110161   6.443  13.834  12.979
 2776SOL    HW210162   6.299  13.842  13.023
 2777SOL     OW10163   2.798   1.063   3.850
 2777SOL    HW110164   2.784   0.969   3.842
 2777SOL    HW210165   2.890   1.075   3.828
 2778SOL     OW10166   6.708  13.921  14.303
 2778SOL    HW110167   6.774  13.912  14.234
 2778SOL    HW210168   6.637  13.862  14.277
 2779SOL     OW10169  10.256   3.893   5.309
 2779SOL    HW110170  10.164   3.877   5.330
 2779SOL    HW210171  10.262   3.988   5.298
 2780SOL     OW10172   5.317   5.887  14.196
 2780SOL    HW110173   5.375   5.906  14.270
 2780SOL    HW210174   5.289   5.796  14.211
 2781SOL     OW10175   1.507  11.877  12.059
 2781SOL    HW110176   1.555  11.813  12.007
 2781SOL    HW210177   1.574  11.939  12.089
 2782SOL     OW10178  14.151   2.007  13.204
 2782SOL    HW110179  14.182   1.955  13.277
 2782SOL    HW210180  14.100   1.946  13.151
 2783SOL     OW10181  12.190   4.443   2.666
 2783SOL    HW110182  12.215   4.530   2.697
 2783SOL    HW210183  12.191   4.450   2.570
 2784SOL     OW10184   9.957  10.312  13.310
 2784SOL    HW110185   9.894  10.244  13.332
 2784SOL    HW210186  10.004  10.329  13.392
 2785SOL     OW10187  14.427   0.452   3.035
 2785SOL    HW110188  14.421   0.356   3.034
 2785SOL    HW210189  14.337   0.481   3.054
 2786SOL     OW10190   0.487  10.918  10.662
 2786SOL    HW110191   0.521  10.832  10.640
 2786SOL    HW210192   0.543  10.949  10.734
 2787SOL     OW10193  13.801   7.532   2.958
 2787SOL    HW110194  13.730   7.511   3.019
 2787SOL    HW210195  13.864   7.580   3.011
 2788SOL     OW10196   5.852   3.573   1.623
 2788SOL    HW110197   5.789   3.502   1.605
 2788SOL    HW210198   5.936   3.538   1.593
 2789SOL     OW10199   3.298  13.064  11.146
 2789SOL    HW110200   3.248  12.999  11.097
 2789SOL    HW210201   3.322  13.130  11.081
 2790SOL     OW10202   2.633   9.652   9.139
 2790SOL    HW110203   2.651   9.673   9.047
 2790SOL    HW210204   2.566   9.715   9.166
 2791SOL     OW10205   8.627   1.974   3.948
 2791SOL    HW110206   8.639   2.045   4.011
 2791SOL    HW210207   8.559   1.919   3.987
 2792SOL     OW10208   1.832   3.734   2.398
 2792SOL    HW110209   1.749   3.737   2.352
 2792SOL    HW210210   1.878   3.813   2.371
 2793SOL     OW10211  11.447   6.333   2.269
 2793SOL    HW110212  11.511   6.345   2.199
 2793SOL    HW210213  11.378   6.279   2.229
 2794SOL     OW10214   7.332   0.542   4.240
 2794SOL    HW110215   7.267   0.546   4.170
 2794SOL    HW210216   7.339   0.632   4.272
 2795SOL     OW10217   6.639   1.339   4.146
 2795SOL    HW110218   6.600   1.287   4.217
 2795SOL    HW210219   6.602   1.302   4.066
 2796SOL     OW10220   5.635   6.350   1.589
 2796SOL    HW110221   5.634   6.373   1.682
 2796SOL    HW210222   5.548   6.314   1.572
 2797SOL     OW10223   4.292   9.157   8.342
 2797SOL    HW110224   4.245   9.182   8.421
 2797SOL    HW210225   4.269   9.224   8.277
 2798SOL     OW10226   0.208  13.527  14.226
 2798SOL    HW110227   0.141  13.582  14.266
 2798SOL    HW210228   0.213  13.451  14.284
 2799SOL     OW10229   5.909   7.987   2.470
 2799SOL    HW110230   5.967   7.947   2.535
 2799SOL    HW210231   5.871   8.063   2.515
 2800SOL     OW10232   8.278  12.293   2.526
 2800SOL    HW110233   8.182  12.300   2.524
 2800SOL    HW210234   8.307  12.333   2.444
 2801SOL     OW10235   3.585   0.055  13.124
 2801SOL    HW110236   3.630  14.866  13.174
 2801SOL    HW210237   3.629   0.136  13.150
 2802SOL     OW10238   4.570  13.575   3.501
 2802SOL    HW110239   4.529  13.545   3.420
 2802SOL    HW210240   4.663  13.557   3.490
 2803SOL     OW10241   2.130  11.293   9.789
 2803SOL    HW110242   2.068  11.320   9.857
 2803SOL    HW210243   2.191  11.235   9.834
 2804SOL     OW10244   4.743   9.208  12.770
 2804SOL    HW110245   4.680   9.217  12.842
 2804SOL    HW210246   4.769   9.298  12.750
 2805SOL     OW10247  12.877   4.994   4.818
 2805SOL    HW110248  12.798   4.943   4.831
 2805SOL    HW210249  12.855   5.055   4.748
 2806SOL     OW10250  12.714   0.628   2.880
 2806SOL    HW110251  12.651   0.653   2.947
 2806SOL    HW210252  12.764   0.708   2.862
 2807SOL     OW10253   7.450   7.850   0.893
 2807SOL    HW110254   7.546   7.846   0.883
 2807SOL    HW210255   7.425   7.762   0.921
 2808SOL     OW10256  12.293   5.284   5.475
 2808SOL    HW110257  12.261   5.310   5.561
 2808SOL    HW210258  12.313   5.366   5.430
 2809SOL     OW10259  12.871   0.076   9.984
 2809SOL    HW110260  12.810   0.130   9.934
 2809SOL    HW210261  12.955   0.089   9.942
 2810SOL     OW10262  10.841   8.985   5.355
 2810SOL    HW110263  10.933   8.974   5.330
 2810SOL    HW210264  10.831   8.929   5.432
 2811SOL     OW10265  11.399  14.878   5.383
 2811SOL    HW110266  11.398   0.095   5.393
 2811SOL    HW210267  11.309  14.857   5.357
 2812SOL     OW10268  12.010   2.476  11.526
 2812SOL    HW110269  12.043   2.553  11.480
 2812SOL    HW210270  11.997   2.411  11.458
 2813SOL     OW10271   1.474  13.306   8.281
 2813SOL    HW110272   1.457  13.386   8.231
 2813SOL    HW210273   1.403  13.247   8.257
 2814SOL     OW10274   5.051   1.463  11.860
 2814SOL    HW110275   5.131   1.516  11.860
 2814SOL    HW210276   5.048   1.424  11.947
 2815SOL     OW10277   4.960   1.732   5.406
 2815SOL    HW110278   4.881   1.685   5.382
 2815SOL    HW210279   4.972   1.713   5.499
 2816SOL     OW10280   9.039   0.267  10.718
 2816SOL    HW110281   8.947   0.242  10.713
 2816SOL    HW210282   9.049   0.306  10.805
 2817SOL     OW10283   0.929   7.302  11.677
 2817SOL    HW110284   0.957   7.236  11.613
 2817SOL    HW210285   0.954   7.385  11.636
 2818SOL     OW10286   1.434   7.243   7.906
 2818SOL    HW110287   1.409   7.201   7.823
 2818SOL    HW210288   1.378   7.202   7.972
 2819SOL     OW10289   0.695   1.627  11.453
 2819SOL    HW110290   0.673   1.656  11.541
 2819SOL    HW210291   0.640   1.550  11.438
 2820SOL     OW10292   4.997   5.130   7.736
 2820SOL    HW110293   4.906   5.104   7.723
 2820SOL    HW210294   5.034   5.062   7.792
 2821SOL     OW10295  13.142   8.211   0.191
 2821SOL    HW110296  13.052   8.203   0.224
 2821SOL    HW210297  13.152   8.138   0.130
 2822SOL     OW10298  12.842  12.014  13.450
 2822SOL    HW110299  12.928  12.010  13.407
 2822SOL    HW210300  12.815  11.923  13.458
 2823SOL     OW10301  13.232   8.466   9.654
 2823SOL    HW110302  13.230   8.444   9.747
 2823SOL    HW210303  13.160   8.527   9.642
 2824SOL     OW10304   7.388   9.195   8.463
 2824SOL    HW110305   7.336   9.260   8.510
 2824SOL    HW210306   7.466   9.242   8.435
 2825SOL     OW10307   9.852   4.336  10.118
 2825SOL    HW110308   9.887   4.287  10.192
 2825SOL    HW210309   9.822   4.418  10.156
 2826SOL     OW10310   2.883   2.371   7.626
 2826SOL    HW110311   2.932   2.453   7.618
 2826SOL    HW210312   2.795   2.398   7.655
 2827SOL     OW10313   7.773  13.562   6.867
 2827SOL    HW110314   7.724  13.519   6.936
 2827SOL    HW210315   7.818  13.635   6.910
 2828SOL     OW10316   1.897   9.894   0.178
 2828SOL    HW110317   1.936   9.845   0.250
 2828SOL    HW210318   1.899   9.985   0.206
 2829SOL     OW10319   7.485   5.621  13.706
 2829SOL    HW110320   7.528   5.537  13.719
 2829SOL    HW210321   7.401   5.600  13.666
 2830SOL     OW10322   7.801   4.508   9.289
 2830SOL    HW110323   7.741   4.449   9.335
 2830SOL    HW210324   7.856   4.451   9.236
 2831SOL     OW10325   4.830   0.584   0.080
 2831SOL    HW110326   4.857   0.570   0.171
 2831SOL    HW210327   4.735   0.573   0.081
 2832SOL     OW10328   0.938   0.646   7.042
 2832SOL    HW110329   1.034   0.646   7.048
 2832SOL    HW210330   0.909   0.626   7.131
 2833SOL     OW10331   5.879  13.765   9.652
 2833SOL    HW110332   5.813  13.817   9.608
 2833SOL    HW210333   5.888  13.806   9.738
 2834SOL     OW10334  11.033   3.999   5.158
 2834SOL    HW110335  10.988   4.063   5.213
 2834SOL    HW210336  10.993   3.915   5.180
 2835SOL     OW10337   8.228   2.736   8.851
 2835SOL    HW110338   8.311   2.691   8.834
 2835SOL    HW210339   8.220   2.799   8.779
 2836SOL     OW10340  13.811   6.826   1.679
 2836SOL    HW110341  13.905   6.832   1.695
 2836SOL    HW210342  13.785   6.742   1.717
 2837SOL     OW10343   0.572   1.642   1.339
 2837SOL    HW110344   0.505   1.704   1.311
 2837SOL    HW210345   0.576   1.653   1.434
 2838SOL     OW10346   5.793  11.888   5.149
 2838SOL    HW110347   5.757  11.873   5.061
 2838SOL    HW210348   5.716  11.904   5.203
 2839SOL     OW10349   6.637   1.811   7.594
 2839SOL    HW110350   6.572   1.837   7.529
 2839SOL    HW210351   6.715   1.790   7.543
 2840SOL     OW10352  13.875   6.868   6.143
 2840SOL    HW110353  13.800   6.842   6.088
 2840SOL    HW210354  13.893   6.958   6.119
 2841SOL     OW10355   5.201   4.850   3.920
 2841SOL    HW110356   5.189   4.924   3.979
 2841SOL    HW210357   5.137   4.863   3.851
 2842SOL     OW10358  11.604   5.796   5.702
 2842SOL    HW110359  11.547   5.858   5.747
 2842SOL    HW210360  11.545   5.725   5.675
 2843SOL     OW10361  11.100  13.536   7.506
 2843SOL    HW110362  11.061  13.546   7.419
 2843SOL    HW210363  11.098  13.624   7.544
 2844SOL     OW10364  10.488   0.220   9.985
 2844SOL    HW110365  10.533   0.211  10.069
 2844SOL    HW210366  10.415   0.279  10.004
 2845SOL     OW10367   3.339   3.297  11.102
 2845SOL    HW110368   3.344   3.381  11.148
 2845SOL    HW210369   3.371   3.315  11.014
 2846SOL     OW10370   9.038  13.422   0.991
 2846SOL    HW110371   8.998  13.508   0.979
 2846SOL    HW210372   9.132  13.439   0.994
 2847SOL     OW10373  11.093   3.798   7.138
 2847SOL    HW110374  11.096   3.715   7.089
 2847SOL    HW210375  11.016   3.790   7.194
 2848SOL     OW10376   7.493   4.673   8.034
 2848SOL    HW110377   7.456   4.635   7.954
 2848SOL    HW210378   7.582   4.638   8.038
 2849SOL     OW10379  11.676   4.930  11.104
 2849SOL    HW110380  11.644   4.971  11.024
 2849SOL    HW210381  11.609   4.950  11.170
 2850SOL     OW10382  11.834   4.209  14.358
 2850SOL    HW110383  11.922   4.229  14.326
 2850SOL    HW210384  11.805   4.289  14.402
 2851SOL     OW10385   2.011   4.479  13.615
 2851SOL    HW110386   1.935   4.456  13.561
 2851SOL    HW210387   2.005   4.421  13.691
 2852SOL     OW10388  14.780   4.987   0.603
 2852SOL    HW110389  14.686   4.972   0.601
 2852SOL    HW210390  14.804   4.978   0.695
 2853SOL     OW10391   7.941   1.677   8.662
 2853SOL    HW110392   8.025   1.721   8.662
 2853SOL    HW210393   7.929   1.647   8.752
 2854SOL     OW10394   9.387   3.376   9.382
 2854SOL    HW110395   9.375   3.470   9.372
 2854SOL    HW210396   9.464   3.368   9.439
 2855SOL     OW10397  10.445   5.415  12.883
 2855SOL    HW110398  10.408   5.500  12.909
 2855SOL    HW210399  10.374   5.370  12.840
 2856SOL     OW10400   1.985   7.670  12.449
 2856SOL    HW110401   1.971   7.744  12.507
 2856SOL    HW210402   1.910   7.671  12.389
 2857SOL     OW10403  13.644   0.525   5.877
 2857SOL    HW110404  13.563   0.535   5.926
 2857SOL    HW210405  13.617   0.526   5.785
 2858SOL     OW10406   5.355   0.493   7.682
 2858SOL    HW110407   5.322   0.416   7.636
 2858SOL    HW210408   5.334   0.477   7.774
 2859SOL     OW10409   5.266   0.861   4.877
 2859SOL    HW110410   5.324   0.863   4.952
 2859SOL    HW210411   5.274   0.773   4.842
 2860SOL     OW10412  13.030   6.533   8.262
 2860SOL    HW110413  12.977   6.604   8.224
 2860SOL    HW210414  13.051   6.476   8.189
 2861SOL     OW10415   3.665  10.384   8.967
 2861SOL    HW110416   3.713  10.447   8.912
 2861SOL    HW210417   3.712  10.384   9.050
 2862SOL     OW10418   5.649   3.627   1.259
 2862SOL    HW110419   5.569   3.680   1.258
 2862SOL    HW210420   5.719   3.691   1.248
 2863SOL     OW10421   2.886   8.632   9.497
 2863SOL    HW110422   2.916   8.668   9.580
 2863SOL    HW210423   2.825   8.563   9.521
 2864SOL     OW10424   7.149  11.294   5.700
 2864SOL    HW110425   7.101  11.217   5.671
 2864SOL    HW210426   7.092  11.368   5.677
 2865SOL     OW10427   8.530   8.950   4.982
 2865SOL    HW110428   8.572   8.885   4.925
 2865SOL    HW210429   8.461   8.989   4.928
 2866SOL     OW10430   2.522   7.331   1.763
 2866SOL    HW110431   2.554   7.271   1.830
 2866SOL    HW210432   2.453   7.281   1.718
 2867SOL     OW10433  14.865   2.060   3.900
 2867SOL    HW110434   0.037   1.986   3.866
 2867SOL    HW210435   0.040   2.137   3.878
 2868SOL     OW10436  12.260   9.611   8.900
 2868SOL    HW110437  12.196   9.588   8.833
 2868SOL    HW210438  12.344   9.608   8.855
 2869SOL     OW10439  11.347   2.411  11.386
 2869SOL    HW110440  11.269   2.463  11.370
 2869SOL    HW210441  11.350   2.348  11.314
 2870SOL     OW10442   3.392  10.991  14.154
 2870SOL    HW110443   3.418  11.023  14.240
 2870SOL    HW210444   3.382  11.069  14.100
 2871SOL     OW10445   0.039  12.354  13.219
 2871SOL    HW110446   0.120  12.330  13.264
 2871SOL    HW210447   0.031  12.448  13.232
 2872SOL     OW10448  13.668   6.715   7.279
 2872SOL    HW110449  13.576   6.707   7.254
 2872SOL    HW210450  13.692   6.804   7.256
 2873SOL     OW10451  12.656  10.565   3.486
 2873SOL    HW110452  12.671  10.544   3.394
 2873SOL    HW210453  12.584  10.508   3.512
 2874SOL     OW10454   3.124   8.001   4.828
 2874SOL    HW110455   3.166   8.044   4.754
 2874SOL    HW210456   3.047   7.958   4.790
 2875SOL     OW10457  12.719   2.343   2.180
 2875SOL    HW110458  12.792   2.322   2.121
 2875SOL    HW210459  12.659   2.268   2.171
 2876SOL     OW10460   2.048   7.515  13.850
 2876SOL    HW110461   2.110   7.577  13.811
 2876SOL    HW210462   2.024   7.457  13.778
 2877SOL     OW10463   8.599  12.386   4.583
 2877SOL    HW110464   8.656  12.456   4.551
 2877SOL    HW210465   8.645  12.306   4.558
 2878SOL     OW10466  11.680   8.721   7.492
 2878SOL    HW110467  11.767   8.690   7.518
 2878SOL    HW210468  11.669   8.803   7.539
 2879SOL     OW10469   6.380   9.336   7.918
 2879SOL    HW110470   6.401   9.329   8.011
 2879SOL    HW210471   6.307   9.398   7.914
 2880SOL     OW10472   9.149   3.443  12.980
 2880SOL    HW110473   9.199   3.455  13.061
 2880SOL    HW210474   9.087   3.373  13.000
 2881SOL     OW10475   0.359  13.048   2.535
 2881SOL    HW110476   0.402  13.107   2.597
 2881SOL    HW210477   0.418  13.045   2.460
 2882SOL     OW10478   9.067  10.526   7.869
 2882SOL    HW110479   9.068  10.622   7.874
 2882SOL    HW210480   9.150  10.500   7.909
 2883SOL     OW10481   1.769  10.531   9.669
 2883SOL    HW110482   1.797  10.534   9.760
 2883SOL    HW210483   1.802  10.612   9.631
 2884SOL     OW10484   3.059   0.376   4.461
 2884SOL    HW110485   3.103   0.425   4.391
 2884SOL    HW210486   3.130   0.334   4.509
 2885SOL     OW10487   6.968   3.170   4.976
 2885SOL    HW110488   6.963   3.098   4.914
 2885SOL    HW210489   7.031   3.141   5.042
 2886SOL     OW10490   8.083  12.158   3.381
 2886SOL    HW110491   8.052  12.088   3.439
 2886SOL    HW210492   8.148  12.116   3.325
 2887SOL     OW10493   8.096  10.454  12.995
 2887SOL    HW110494   8.105  10.446  12.900
 2887SOL    HW210495   8.181  10.427  13.030
 2888SOL     OW10496   9.603   9.831   0.872
 2888SOL    HW110497   9.580   9.756   0.817
 2888SOL    HW210498   9.537   9.831   0.942
 2889SOL     OW10499   9.728   8.626   5.709
 2889SOL    HW110500   9.804   8.580   5.675
 2889SOL    HW210501   9.720   8.703   5.653
 2890SOL     OW10502  14.777   8.787   9.539
 2890SOL    HW110503  14.752   8.695   9.549
 2890SOL    HW210504  14.805   8.814   9.627
 2891SOL     OW10505   4.271  10.880   1.718
 2891SOL    HW110506   4.351  10.837   1.686
 2891SOL    HW210507   4.298  10.971   1.735
 2892SOL     OW10508   2.678  12.601  12.928
 2892SOL    HW110509   2.651  12.684  12.888
 2892SOL    HW210510   2.617  12.537  12.892
 2893SOL     OW10511  12.002   5.133   8.848
 2893SOL    HW110512  11.939   5.068   8.879
 2893SOL    HW210513  11.964   5.165   8.766
 2894SOL     OW10514   7.103   4.801  13.786
 2894SOL    HW110515   7.165   4.815  13.715
 2894SOL    HW210516   7.157   4.777  13.861
 2895SOL     OW10517   8.556   3.340   2.649
 2895SOL    HW110518   8.503   3.276   2.600
 2895SOL    HW210519   8.637   3.293   2.668
 2896SOL     OW10520   9.181   6.990   9.901
 2896SOL    HW110521   9.203   7.075   9.938
 2896SOL    HW210522   9.247   6.931   9.937
 2897SOL     OW10523   8.278   4.212   0.290
 2897SOL    HW110524   8.183   4.204   0.280
 2897SOL    HW210525   8.291   4.223   0.385
 2898SOL     OW10526  10.313   0.640  13.159
 2898SOL    HW110527  10.373   0.624  13.086
 2898SOL    HW210528  10.226   0.632  13.119
 2899SOL     OW10529   0.321  11.401   9.909
 2899SOL    HW110530   0.413  11.428   9.907
 2899SOL    HW210531   0.321  11.322   9.962
 2900SOL     OW10532   9.249   1.780   3.915
 2900SOL    HW110533   9.244   1.729   3.997
 2900SOL    HW210534   9.343   1.793   3.902
 2901SOL     OW10535   0.157   3.745   8.601
 2901SOL    HW110536   0.196   3.701   8.676
 2901SOL    HW210537   0.221   3.813   8.578
 2902SOL     OW10538  13.222   8.926  10.397
 2902SOL    HW110539  13.170   8.983  10.340
 2902SOL    HW210540  13.304   8.912  10.349
 2903SOL     OW10541   6.003  10.862   9.319
 2903SOL    HW110542   5.981  10.950   9.350
 2903SOL    HW210543   6.037  10.818   9.397
 2904SOL     OW10544   9.764   6.968   4.546
 2904SOL    HW110545   9.783   7.058   4.573
 2904SOL    HW210546   9.802   6.914   4.615
 2905SOL     OW10547   9.750   8.974   2.498
 2905SOL    HW110548   9.665   8.993   2.458
 2905SOL    HW210549   9.729   8.957   2.590
 2906SOL     OW10550   5.580  10.753  12.744
 2906SOL    HW110551   5.654  10.797  12.786
 2906SOL    HW210552   5.585  10.663  12.774
 2907SOL     OW10553  10.027   3.102   4.016
 2907SOL    HW110554   9.940   3.126   3.986
 2907SOL    HW210555  10.066   3.183   4.049
 2908SOL     OW10556   2.944   6.190   7.755
 2908SOL    HW110557   2.967   6.112   7.705
 2908SOL    HW210558   2.893   6.244   7.694
 2909SOL     OW10559   9.137   3.716   4.053
 2909SOL    HW110560   9.074   3.686   3.987
 2909SOL    HW210561   9.207   3.757   4.004
 2910SOL     OW10562   3.357   6.062   2.561
 2910SOL    HW110563   3.338   6.041   2.653
 2910SOL    HW210564   3.446   6.029   2.548
 2911SOL     OW10565   9.784   1.842  11.482
 2911SOL    HW110566   9.713   1.827  11.420
 2911SOL    HW210567   9.775   1.934  11.508
 2912SOL     OW10568   9.867  11.227   2.424
 2912SOL    HW110569   9.828  11.241   2.511
 2912SOL    HW210570   9.960  11.246   2.436
 2913SOL     OW10571   1.052   9.157   8.495
 2913SOL    HW110572   1.131   9.110   8.468
 2913SOL    HW210573   1.010   9.182   8.412
 2914SOL     OW10574   8.763  12.321   3.345
 2914SOL    HW110575   8.855  12.337   3.363
 2914SOL    HW210576   8.736  12.259   3.413
 2915SOL     OW10577   6.062   7.599  12.045
 2915SOL    HW110578   6.060   7.643  12.130
 2915SOL    HW210579   6.119   7.523  12.059
 2916SOL     OW10580   0.972   1.095   0.066
 2916SOL    HW110581   0.896   1.085   0.124
 2916SOL    HW210582   1.040   1.041   0.107
 2917SOL     OW10583   5.622  13.350  13.823
 2917SOL    HW110584   5.622  13.445  13.811
 2917SOL    HW210585   5.607  13.315  13.736
 2918SOL     OW10586   7.417  12.058  13.039
 2918SOL    HW110587   7.509  12.062  13.064
 2918SOL    HW210588   7.382  12.145  13.060
 2919SOL     OW10589   3.891   4.209   9.587
 2919SOL    HW110590   3.811   4.243   9.629
 2919SOL    HW210591   3.962   4.237   9.645
 2920SOL     OW10592  12.308  11.339   6.722
 2920SOL    HW110593  12.268  11.380   6.799
 2920SOL    HW210594  12.251  11.363   6.649
 2921SOL     OW10595   5.361  11.814  11.998
 2921SOL    HW110596   5.285  11.872  11.993
 2921SOL    HW210597   5.437  11.872  11.994
 2922SOL     OW10598   1.172   9.438   7.142
 2922SOL    HW110599   1.077   9.454   7.145
 2922SOL    HW210600   1.192   9.397   7.226
 2923SOL     OW10601   5.069  10.668   2.558
 2923SOL    HW110602   5.147  10.724   2.552
 2923SOL    HW210603   5.082  10.602   2.490
 2924SOL     OW10604   2.378   1.242   9.426
 2924SOL    HW110605   2.320   1.187   9.479
 2924SOL    HW210606   2.464   1.232   9.466
 2925SOL     OW10607   2.449   8.931  13.333
 2925SOL    HW110608   2.419   8.870  13.265
 2925SOL    HW210609   2.393   8.913  13.408
 2926SOL     OW10610  10.671  13.086   2.140
 2926SOL    HW110611  10.615  13.044   2.075
 2926SOL    HW210612  10.612  13.115   2.209
 2927SOL     OW10613   8.599   2.242   6.909
 2927SOL    HW110614   8.642   2.202   6.833
 2927SOL    HW210615   8.625   2.334   6.906
 2928SOL     OW10616   8.260   1.594   5.088
 2928SOL    HW110617   8.299   1.676   5.117
 2928SOL    HW210618   8.335   1.539   5.065
 2929SOL     OW10619   5.335   3.130   7.914
 2929SOL    HW110620   5.295   3.214   7.896
 2929SOL    HW210621   5.304   3.106   8.002
 2930SOL     OW10622   2.290   8.829   1.937
 2930SOL    HW110623   2.238   8.809   2.015
 2930SOL    HW210624   2.365   8.879   1.970
 2931SOL     OW10625   7.909  13.783   8.066
 2931SOL    HW110626   7.875  13.707   8.113
 2931SOL    HW210627   8.003  13.783   8.087
 2932SOL     OW10628   7.403   2.642  10.820
 2932SOL    HW110629   7.454   2.716  10.854
 2932SOL    HW210630   7.395   2.582  10.893
 2933SOL     OW10631  12.344   6.051   8.767
 2933SOL    HW110632  12.433   6.083   8.783
 2933SOL    HW210633  12.293   6.130   8.750
 2934SOL     OW10634   5.893   9.100   9.760
 2934SOL    HW110635   5.808   9.065   9.785
 2934SOL    HW210636   5.935   9.029   9.711
 2935SOL     OW10637   4.299   8.198  12.109
 2935SOL    HW110638   4.303   8.262  12.038
 2935SOL    HW210639   4.390   8.170  12.122
 2936SOL     OW10640   1.059   9.828  14.362
 2936SOL    HW110641   1.045   9.735  14.344
 2936SOL    HW210642   1.154   9.839  14.358
 2937SOL     OW10643  11.671   4.009  14.696
 2937SOL    HW110644  11.731   3.937  14.714
 2937SOL    HW210645  11.588   3.982  14.736
 2938SOL     OW10646   0.004   6.897  13.477
 2938SOL    HW110647   0.046   6.813  13.460
 2938SOL    HW210648   0.042   6.956  13.412
 2939SOL     OW10649   3.392  12.774   0.225
 2939SOL    HW110650   3.384  12.742   0.315
 2939SOL    HW210651   3.328  12.723   0.175
 2940SOL     OW10652  12.678   7.737   1.308
 2940SOL    HW110653  12.704   7.666   1.367
 2940SOL    HW210654  12.593   7.766   1.342
 2941SOL     OW10655  14.121   0.390   1.849
 2941SOL    HW110656  14.060   0.316   1.855
 2941SOL    HW210657  14.135   0.402   1.755
 2942SOL     OW10658  14.843   7.419  11.986
 2942SOL    HW110659   0.049   7.452  11.955
 2942SOL    HW210660  14.858   7.402  12.080
 2943SOL     OW10661  12.852  13.697  14.175
 2943SOL    HW110662  12.825  13.712  14.266
 2943SOL    HW210663  12.948  13.692  14.179
 2944SOL     OW10664   8.004  11.263  10.021
 2944SOL    HW110665   8.075  11.273   9.957
 2944SOL    HW210666   7.930  11.230   9.969
 2945SOL     OW10667   0.443   5.836   3.382
 2945SOL    HW110668   0.374   5.887   3.338
 2945SOL    HW210669   0.422   5.745   3.361
 2946SOL     OW10670  12.917   5.288  11.754
 2946SOL    HW110671  12.912   5.192  11.751
 2946SOL    HW210672  12.945   5.313  11.665
 2947SOL     OW10673   1.190  14.878   0.100
 2947SOL    HW110674   1.234   0.057   0.038
 2947SOL    HW210675   1.118  14.839   0.050
 2948SOL     OW10676   5.017  12.532   8.496
 2948SOL    HW110677   4.973  12.614   8.475
 2948SOL    HW210678   5.095  12.531   8.441
 2949SOL     OW10679   8.741   0.366   1.587
 2949SOL    HW110680   8.648   0.386   1.591
 2949SOL    HW210681   8.756   0.306   1.661
 2950SOL     OW10682  11.009   6.818   9.821
 2950SOL    HW110683  11.056   6.743   9.858
 2950SOL    HW210684  10.944   6.841   9.888
 2951SOL     OW10685   3.096   4.931   5.448
 2951SOL    HW110686   3.067   4.916   5.537
 2951SOL    HW210687   3.162   4.864   5.432
 2952SOL     OW10688   4.255   9.583   2.969
 2952SOL    HW110689   4.165   9.554   2.954
 2952SOL    HW210690   4.308   9.504   2.955
 2953SOL     OW10691   9.702  11.847  13.144
 2953SOL    HW110692   9.795  11.834  13.159
 2953SOL    HW210693   9.687  11.815  13.055
 2954SOL     OW10694  12.332   1.580  14.482
 2954SOL    HW110695  12.410   1.629  14.458
 2954SOL    HW210696  12.340   1.567  14.577
 2955SOL     OW10697   6.520   0.411   6.238
 2955SOL    HW110698   6.539   0.480   6.175
 2955SOL    HW210699   6.607   0.383   6.270
 2956SOL     OW10700   7.599  12.224  12.725
 2956SOL    HW110701   7.551  12.279  12.663
 2956SOL    HW210702   7.544  12.221  12.803
 2957SOL     OW10703   4.177   8.129   6.139
 2957SOL    HW110704   4.216   8.060   6.192
 2957SOL    HW210705   4.125   8.084   6.073
 2958SOL     OW10706   1.906   5.272   4.513
 2958SOL    HW110707   1.860   5.197   4.475
 2958SOL    HW210708   1.861   5.348   4.476
 2959SOL     OW10709   4.340  11.682   3.612
 2959SOL    HW110710   4.298  11.710   3.531
 2959SOL    HW210711   4.418  11.633   3.583
 2960SOL     OW10712   1.237   3.130  10.618
 2960SOL    HW110713   1.311   3.081  10.583
 2960SOL    HW210714   1.228   3.206  10.560
 2961SOL     OW10715   7.381   7.290   0.221
 2961SOL    HW110716   7.364   7.235   0.144
 2961SOL    HW210717   7.470   7.266   0.247
 2962SOL     OW10718   3.996   6.572  14.750
 2962SOL    HW110719   3.991   6.489  14.703
 2962SOL    HW210720   4.042   6.631  14.691
 2963SOL     OW10721   2.692   6.174   3.599
 2963SOL    HW110722   2.673   6.105   3.663
 2963SOL    HW210723   2.672   6.256   3.646
 2964SOL     OW10724   8.358  14.397   1.779
 2964SOL    HW110725   8.440  14.365   1.743
 2964SOL    HW210726   8.290  14.357   1.726
 2965SOL     OW10727   5.164   5.653   0.361
 2965SOL    HW110728   5.078   5.612   0.357
 2965SOL    HW210729   5.199   5.645   0.271
 2966SOL     OW10730   0.605  14.658   6.474
 2966SOL    HW110731   0.695  14.692   6.475
 2966SOL    HW210732   0.552  14.733   6.446
 2967SOL     OW10733   3.892   1.864  13.717
 2967SOL    HW110734   3.952   1.846  13.644
 2967SOL    HW210735   3.945   1.911  13.781
 2968SOL     OW10736   9.082  10.306   9.252
 2968SOL    HW110737   9.073  10.217   9.217
 2968SOL    HW210738   8.998  10.324   9.294
 2969SOL     OW10739  13.956  14.514  10.278
 2969SOL    HW110740  13.885  14.531  10.216
 2969SOL    HW210741  13.927  14.555  10.359
 2970SOL     OW10742  12.360   0.884  10.729
 2970SOL    HW110743  12.341   0.960  10.785
 2970SOL    HW210744  12.450   0.861  10.751
 2971SOL     OW10745   2.353  14.313   1.402
 2971SOL    HW110746   2.342  14.355   1.488
 2971SOL    HW210747   2.266  14.314   1.364
 2972SOL     OW10748  10.823   1.880   5.648
 2972SOL    HW110749  10.756   1.889   5.581
 2972SOL    HW210750  10.784   1.919   5.726
 2973SOL     OW10751   4.587  13.450  13.285
 2973SOL    HW110752   4.512  13.436  13.342
 2973SOL    HW210753   4.568  13.396  13.207
 2974SOL     OW10754  12.583  13.173   1.698
 2974SOL    HW110755  12.646  13.221   1.643
 2974SOL    HW210756  12.598  13.206   1.786
 2975SOL     OW10757   0.102   1.894   8.487
 2975SOL    HW110758   0.028   1.923   8.540
 2975SOL    HW210759   0.072   1.813   8.446
 2976SOL     OW10760  13.460   9.710   8.923
 2976SOL    HW110761  13.493   9.718   8.834
 2976SOL    HW210762  13.471   9.617   8.944
 2977SOL     OW10763  11.183   4.998   0.408
 2977SOL    HW110764  11.246   4.980   0.478
 2977SOL    HW210765  11.146   4.912   0.386
 2978SOL     OW10766  13.544   5.960  14.095
 2978SOL    HW110767  13.564   5.964  14.189
 2978SOL    HW210768  13.617   6.005  14.054
 2979SOL     OW10769   7.415   8.172  14.746
 2979SOL    HW110770   7.414   8.264  14.774
 2979SOL    HW210771   7.324   8.153  14.722
 2980SOL     OW10772   3.988   9.052   9.198
 2980SOL    HW110773   3.916   8.991   9.209
 2980SOL    HW210774   3.950   9.126   9.151
 2981SOL     OW10775   3.218   2.059   4.572
 2981SOL    HW110776   3.220   2.149   4.542
 2981SOL    HW210777   3.165   2.013   4.506
 2982SOL     OW10778   8.858   0.424  14.532
 2982SOL    HW110779   8.877   0.433  14.438
 2982SOL    HW210780   8.845   0.513  14.562
 2983SOL     OW10781   4.498   9.845   3.834
 2983SOL    HW110782   4.470   9.754   3.845
 2983SOL    HW210783   4.494   9.861   3.740
 2984SOL     OW10784   3.203  11.886  11.546
 2984SOL    HW110785   3.129  11.842  11.589
 2984SOL    HW210786   3.167  11.923  11.466
 2985SOL     OW10787   0.870   5.300   5.607
 2985SOL    HW110788   0.783   5.325   5.638
 2985SOL    HW210789   0.897   5.372   5.549
 2986SOL     OW10790   0.572  11.430  11.012
 2986SOL    HW110791   0.641  11.467  10.957
 2986SOL    HW210792   0.610  11.430  11.100
 2987SOL     OW10793   7.114  12.896   9.321
 2987SOL    HW110794   7.133  12.817   9.371
 2987SOL    HW210795   7.161  12.966   9.368
 2988SOL     OW10796   7.084  13.862  13.189
 2988SOL    HW110797   7.105  13.812  13.110
 2988SOL    HW210798   7.126  13.814  13.260
 2989SOL     OW10799   5.779   7.672   8.877
 2989SOL    HW110800   5.800   7.763   8.897
 2989SOL    HW210801   5.712   7.677   8.809
 2990SOL     OW10802  13.239  11.955   4.500
 2990SOL    HW110803  13.164  12.013   4.517
 2990SOL    HW210804  13.202  11.867   4.497
 2991SOL     OW10805   7.739   6.278  12.447
 2991SOL    HW110806   7.808   6.290  12.512
 2991SOL    HW210807   7.778   6.308  12.365
 2992SOL     OW10808  12.036  12.912   6.299
 2992SOL    HW110809  11.958  12.951   6.337
 2992SOL    HW210810  12.003  12.859   6.226
 2993SOL     OW10811  12.081  12.500   3.973
 2993SOL    HW110812  12.132  12.565   4.021
 2993SOL    HW210813  12.047  12.442   4.041
 2994SOL     OW10814   4.627   9.826   4.731
 2994SOL    HW110815   4.645   9.905   4.681
 2994SOL    HW210816   4.642   9.852   4.822
 2995SOL     OW10817   8.206   6.392  14.319
 2995SOL    HW110818   8.299   6.408  14.331
 2995SOL    HW210819   8.194   6.300  14.341
 2996SOL     OW10820   6.238  13.113   4.182
 2996SOL    HW110821   6.242  13.049   4.111
 2996SOL    HW210822   6.327  13.117   4.216
 2997SOL     OW10823  14.405   8.122  12.560
 2997SOL    HW110824  14.347   8.063  12.511
 2997SOL    HW210825  14.347   8.191  12.592
 2998SOL     OW10826   3.755  13.681   6.322
 2998SOL    HW110827   3.842  13.708   6.293
 2998SOL    HW210828   3.762  13.679   6.418
 2999SOL     OW10829   0.809   6.518   3.290
 2999SOL    HW110830   0.749   6.545   3.360
 2999SOL    HW210831   0.756   6.524   3.210
 3000SOL     OW10832   0.551   8.920  14.389
 3000SOL    HW110833   0.530   8.995  14.333
 3000SOL    HW210834   0.640   8.935  14.418
 3001SOL     OW10835   5.242   1.805   9.576
 3001SOL    HW110836   5.285   1.720   9.573
 3001SOL    HW210837   5.210   1.813   9.666
 3002SOL     OW10838   7.970  13.461   5.357
 3002SOL    HW110839   7.881  13.480   5.388
 3002SOL    HW210840   8.016  13.545   5.365
 3003SOL     OW10841  11.255  12.584   9.242
 3003SOL    HW110842  11.173  12.535   9.238
 3003SOL    HW210843  11.248  12.636   9.322
 3004SOL     OW10844   0.181   1.605   2.910
 3004SOL    HW110845   0.200   1.513   2.891
 3004SOL    HW210846   0.228   1.622   2.992
 3005SOL     OW10847   2.408   3.538   8.540
 3005SOL    HW110848   2.349   3.476   8.497
 3005SOL    HW210849   2.447   3.589   8.469
 3006SOL     OW10850   0.303  11.583  10.773
 3006SOL    HW110851   0.295  11.493  10.743
 3006SOL    HW210852   0.384  11.615  10.733
 3007SOL     OW10853  12.211   7.936   4.692
 3007SOL    HW110854  12.221   8.005   4.626
 3007SOL    HW210855  12.296   7.935   4.737
 3008SOL     OW10856  10.784  12.834   7.382
 3008SOL    HW110857  10.822  12.785   7.454
 3008SOL    HW210858  10.858  12.877   7.339
 3009SOL     OW10859   6.376   4.277   3.232
 3009SOL    HW110860   6.326   4.250   3.309
 3009SOL    HW210861   6.387   4.371   3.242
 3010SOL     OW10862   9.411   9.105   0.144
 3010SOL    HW110863   9.391   9.043   0.074
 3010SOL    HW210864   9.363   9.072   0.220
 3011SOL     OW10865   1.448   3.381  11.458
 3011SOL    HW110866   1.368   3.424  11.427
 3011SOL    HW210867   1.496   3.451  11.503
 3012SOL     OW10868   3.911  12.459  13.021
 3012SOL    HW110869   3.987  12.505  12.984
 3012SOL    HW210870   3.867  12.420  12.946
 3013SOL     OW10871  12.018   0.639   7.084
 3013SOL    HW110872  12.004   0.727   7.050
 3013SOL    HW210873  11.936   0.615   7.126
 3014SOL     OW10874  12.330   4.165  10.955
 3014SOL    HW110875  12.370   4.226  11.016
 3014SOL    HW210876  12.276   4.108  11.010
 3015SOL     OW10877   0.461   4.436   5.363
 3015SOL    HW110878   0.477   4.526   5.392
 3015SOL    HW210879   0.366   4.427   5.365
 3016SOL     OW10880   3.568   1.551   2.692
 3016SOL    HW110881   3.618   1.518   2.617
 3016SOL    HW210882   3.520   1.626   2.657
 3017SOL     OW10883   5.176  11.637   6.664
 3017SOL    HW110884   5.163  11.722   6.622
 3017SOL    HW210885   5.217  11.583   6.597
 3018SOL     OW10886   1.555   9.615   7.958
 3018SOL    HW110887   1.601   9.578   7.882
 3018SOL    HW210888   1.624   9.643   8.017
 3019SOL     OW10889   4.208   2.067   6.263
 3019SOL    HW110890   4.234   2.081   6.172
 3019SOL    HW210891   4.290   2.051   6.309
 3020SOL     OW10892   1.850  11.423   7.241
 3020SOL    HW110893   1.858  11.518   7.247
 3020SOL    HW210894   1.925  11.389   7.290
 3021SOL     OW10895   1.976   4.080  11.829
 3021SOL    HW110896   1.975   4.172  11.804
 3021SOL    HW210897   1.991   4.082  11.924
 3022SOL     OW10898  10.978   0.584   8.743
 3022SOL    HW110899  10.938   0.556   8.661
 3022SOL    HW210900  11.048   0.521   8.758
 3023SOL     OW10901   2.549   6.595  10.516
 3023SOL    HW110902   2.587   6.633  10.436
 3023SOL    HW210903   2.619   6.601  10.581
 3024SOL     OW10904   3.622   4.442   2.019
 3024SOL    HW110905   3.624   4.363   2.072
 3024SOL    HW210906   3.590   4.413   1.934
 3025SOL     OW10907  14.851   5.965   7.783
 3025SOL    HW110908  14.759   5.991   7.782
 3025SOL    HW210909   0.021   6.047   7.785
 3026SOL     OW10910  10.018  11.821   6.259
 3026SOL    HW110911   9.963  11.772   6.199
 3026SOL    HW210912  10.107  11.791   6.240
 3027SOL     OW10913   5.835   2.021  13.383
 3027SOL    HW110914   5.791   2.087  13.329
 3027SOL    HW210915   5.769   1.997  13.448
 3028SOL     OW10916  11.625  14.033   3.165
 3028SOL    HW110917  11.611  14.128   3.171
 3028SOL    HW210918  11.589  13.998   3.246
 3029SOL     OW10919   6.775   8.918  11.417
 3029SOL    HW110920   6.818   9.000  11.396
 3029SOL    HW210921   6.694   8.944  11.460
 3030SOL     OW10922   8.586  11.994   2.591
 3030SOL    HW110923   8.679  12.018   2.584
 3030SOL    HW210924   8.568  11.945   2.511
 3031SOL     OW10925   7.353   6.475   1.097
 3031SOL    HW110926   7.432   6.487   1.149
 3031SOL    HW210927   7.361   6.387   1.060
 3032SOL     OW10928   1.242   2.736  11.974
 3032SOL    HW110929   1.222   2.758  11.882
 3032SOL    HW210930   1.182   2.666  11.996
 3033SOL     OW10931  10.671  12.454  12.065
 3033SOL    HW110932  10.613  12.529  12.081
 3033SOL    HW210933  10.662  12.436  11.972
 3034SOL     OW10934   3.461   7.232   8.709
 3034SOL    HW110935   3.507   7.177   8.772
 3034SOL    HW210936   3.417   7.298   8.763
 3035SOL     OW10937   1.828   7.191   2.525
 3035SOL    HW110938   1.860   7.239   2.449
 3035SOL    HW210939   1.865   7.238   2.600
 3036SOL     OW10940  10.278  11.628   8.322
 3036SOL    HW110941  10.268  11.694   8.253
 3036SOL    HW210942  10.319  11.554   8.279
 3037SOL     OW10943  11.426  12.805  11.058
 3037SOL    HW110944  11.437  12.816  11.152
 3037SOL    HW210945  11.507  12.841  11.021
 3038SOL     OW10946   2.703   0.525  11.275
 3038SOL    HW110947   2.627   0.575  11.247
 3038SOL    HW210948   2.668   0.454  11.328
 3039SOL     OW10949  11.099  11.957   5.933
 3039SOL    HW110950  11.119  11.910   6.014
 3039SOL    HW210951  11.017  12.002   5.951
 3040SOL     OW10952  11.647   7.940  12.074
 3040SOL    HW110953  11.712   8.003  12.043
 3040SOL    HW210954  11.617   7.896  11.995
 3041SOL     OW10955   3.218  10.902   1.948
 3041SOL    HW110956   3.292  10.962   1.945
 3041SOL    HW210957   3.233  10.848   2.026
 3042SOL     OW10958   1.724  10.782   7.565
 3042SOL    HW110959   1.796  10.764   7.504
 3042SOL    HW210960   1.688  10.696   7.586
 3043SOL     OW10961   9.583  13.820  11.576
 3043SOL    HW110962   9.628  13.803  11.494
 3043SOL    HW210963   9.490  13.814  11.553
 3044SOL     OW10964   0.349   1.299  13.468
 3044SOL    HW110965   0.293   1.375  13.479
 3044SOL    HW210966   0.374   1.301  13.376
 3045SOL     OW10967   1.160  13.829   3.555
 3045SOL    HW110968   1.168  13.893   3.484
 3045SOL    HW210969   1.068  13.835   3.582
 3046SOL     OW10970   6.060   8.257  11.506
 3046SOL    HW110971   6.055   8.162  11.499
 3046SOL    HW210972   5.971   8.288  11.489
 3047SOL     OW10973   0.558  14.236   7.293
 3047SOL    HW110974   0.509  14.265   7.370
 3047SOL    HW210975   0.608  14.313   7.266
 3048SOL     OW10976   0.603   6.048  11.370
 3048SOL    HW110977   0.574   6.002  11.449
 3048SOL    HW210978   0.599   6.140  11.393
 3049SOL     OW10979   4.877   0.809   6.357
 3049SOL    HW110980   4.792   0.849   6.338
 3049SOL    HW210981   4.918   0.867   6.421
 3050SOL     OW10982   9.423   8.638   8.446
 3050SOL    HW110983   9.385   8.655   8.532
 3050SOL    HW210984   9.493   8.575   8.463
 3051SOL     OW10985  12.532  13.682   3.880
 3051SOL    HW110986  12.589  13.750   3.917
 3051SOL    HW210987  12.463  13.730   3.834
 3052SOL     OW10988  10.884   7.634  11.188
 3052SOL    HW110989  10.882   7.614  11.095
 3052SOL    HW210990  10.795   7.616  11.219
 3053SOL     OW10991   7.210   0.554   4.634
 3053SOL    HW110992   7.168   0.629   4.677
 3053SOL    HW210993   7.141   0.488   4.628
 3054SOL     OW10994   3.603   5.310   2.069
 3054SOL    HW110995   3.600   5.217   2.090
 3054SOL    HW210996   3.562   5.316   1.982
 3055SOL     OW10997   2.077  13.573  12.489
 3055SOL    HW110998   1.989  13.594  12.521
 3055SOL    HW210999   2.080  13.477  12.489
 3056SOL     OW11000   4.294  10.143  11.066
 3056SOL    HW111001   4.315  10.053  11.041
 3056SOL    HW211002   4.225  10.169  11.005
 3057SOL     OW11003  10.169   6.935   5.483
 3057SOL    HW111004  10.147   6.962   5.394
 3057SOL    HW211005  10.148   7.011   5.537
 3058SOL     OW11006   3.735   8.002   3.970
 3058SOL    HW111007   3.723   7.987   3.876
 3058SOL    HW211008   3.752   7.916   4.007
 3059SOL     OW11009   2.176   9.526   2.375
 3059SOL    HW111010   2.096   9.484   2.342
 3059SOL    HW211011   2.152   9.556   2.463
 3060SOL     OW11012   3.415  12.211   9.842
 3060SOL    HW111013   3.379  12.205   9.753
 3060SOL    HW211014   3.411  12.121   9.876
 3061SOL     OW11015  14.619   2.618   6.841
 3061SOL    HW111016  14.705   2.639   6.878
 3061SOL    HW211017  14.562   2.606   6.917
 3062SOL     OW11018   6.427   2.264   9.461
 3062SOL    HW111019   6.484   2.340   9.465
 3062SOL    HW211020   6.470   2.198   9.515
 3063SOL     OW11021   3.756   0.716   1.493
 3063SOL    HW111022   3.744   0.809   1.511
 3063SOL    HW211023   3.808   0.714   1.413
 3064SOL     OW11024   0.846  14.253   6.694
 3064SOL    HW111025   0.787  14.313   6.647
 3064SOL    HW211026   0.798  14.230   6.773
 3065SOL     OW11027   1.878   0.758   8.561
 3065SOL    HW111028   1.946   0.701   8.526
 3065SOL    HW211029   1.884   0.746   8.656
 3066SOL     OW11030   8.107   4.068   7.601
 3066SOL    HW111031   8.120   3.986   7.554
 3066SOL    HW211032   8.075   4.042   7.687
 3067SOL     OW11033   5.923  10.689  13.173
 3067SOL    HW111034   5.999  10.732  13.134
 3067SOL    HW211035   5.876  10.759  13.219
 3068SOL     OW11036  14.305  11.649   4.539
 3068SOL    HW111037  14.324  11.624   4.448
 3068SOL    HW211038  14.230  11.595   4.563
 3069SOL     OW11039  14.624  13.358  13.015
 3069SOL    HW111040  14.676  13.362  12.935
 3069SOL    HW211041  14.685  13.384  13.085
 3070SOL     OW11042   1.373  12.340   1.226
 3070SOL    HW111043   1.391  12.252   1.193
 3070SOL    HW211044   1.425  12.398   1.170
 3071SOL     OW11045   0.346   2.233  14.520
 3071SOL    HW111046   0.365   2.304  14.581
 3071SOL    HW211047   0.382   2.263  14.436
 3072SOL     OW11048   5.032   1.874   7.502
 3072SOL    HW111049   5.069   1.798   7.458
 3072SOL    HW211050   4.958   1.900   7.447
 3073SOL     OW11051   6.739   2.025  11.599
 3073SOL    HW111052   6.786   1.956  11.552
 3073SOL    HW211053   6.654   1.986  11.621
 3074SOL     OW11054  12.268  13.435   1.808
 3074SOL    HW111055  12.344  13.447   1.751
 3074SOL    HW211056  12.214  13.371   1.763
 3075SOL     OW11057  13.088   2.503  10.974
 3075SOL    HW111058  13.085   2.408  10.970
 3075SOL    HW211059  13.050   2.531  10.890
 3076SOL     OW11060   0.779  12.991  13.166
 3076SOL    HW111061   0.790  12.978  13.072
 3076SOL    HW211062   0.756  13.083  13.175
 3077SOL     OW11063   3.767  11.662   5.820
 3077SOL    HW111064   3.672  11.650   5.829
 3077SOL    HW211065   3.789  11.729   5.885
 3078SOL     OW11066  10.334  14.625   5.270
 3078SOL    HW111067  10.360  14.581   5.351
 3078SOL    HW211068  10.300  14.710   5.298
 3079SOL     OW11069  10.244   1.369  10.302
 3079SOL    HW111070  10.190   1.372  10.381
 3079SOL    HW211071  10.240   1.458  10.268
 3080SOL     OW11072  11.896   6.304   7.351
 3080SOL    HW111073  11.944   6.324   7.432
 3080SOL    HW211074  11.963   6.278   7.289
 3081SOL     OW11075  14.555   3.741   7.853
 3081SOL    HW111076  14.650   3.745   7.864
 3081SOL    HW211077  14.525   3.831   7.865
 3082SOL     OW11078  10.730   1.950  10.541
 3082SOL    HW111079  10.672   1.939  10.616
 3082SOL    HW211080  10.710   2.037  10.507
 3083SOL     OW11081  11.850   5.259   6.905
 3083SOL    HW111082  11.808   5.186   6.951
 3083SOL    HW211083  11.806   5.263   6.820
 3084SOL     OW11084   6.999   0.931   0.840
 3084SOL    HW111085   6.945   0.959   0.767
 3084SOL    HW211086   7.081   0.902   0.800
 3085SOL     OW11087  11.061  13.280  14.792
 3085SOL    HW111088  10.971  13.249  14.802
 3085SOL    HW211089  11.084  13.260  14.702
 3086SOL     OW11090   4.860   5.483   9.616
 3086SOL    HW111091   4.827   5.406   9.662
 3086SOL    HW211092   4.848   5.555   9.677
 3087SOL     OW11093   0.798   0.332  12.418
 3087SOL    HW111094   0.877   0.278  12.415
 3087SOL    HW211095   0.804   0.387  12.340
 3088SOL     OW11096   6.960   3.052   0.871
 3088SOL    HW111097   7.015   3.125   0.840
 3088SOL    HW211098   6.988   3.037   0.961
 3089SOL     OW11099   5.441  14.191  12.568
 3089SOL    HW111100   5.456  14.250  12.495
 3089SOL    HW211101   5.497  14.115  12.549
 3090SOL     OW11102  11.699   1.300   2.454
 3090SOL    HW111103  11.604   1.291   2.457
 3090SOL    HW211104  11.726   1.248   2.379
 3091SOL     OW11105   2.266   2.776   6.722
 3091SOL    HW111106   2.185   2.726   6.732
 3091SOL    HW211107   2.246   2.840   6.653
 3092SOL     OW11108   3.273  11.258   3.121
 3092SOL    HW111109   3.187  11.300   3.119
 3092SOL    HW211110   3.317  11.290   3.042
 3093SOL     OW11111  11.278   9.131   8.393
 3093SOL    HW111112  11.222   9.105   8.320
 3093SOL    HW211113  11.361   9.157   8.351
 3094SOL     OW11114  11.074  11.717   6.728
 3094SOL    HW111115  11.013  11.666   6.674
 3094SOL    HW211116  11.131  11.760   6.665
 3095SOL     OW11117   0.107   9.349  13.660
 3095SOL    HW111118   0.051   9.339  13.737
 3095SOL    HW211119   0.146   9.436  13.670
 3096SOL     OW11120  13.136   4.733  12.769
 3096SOL    HW111121  13.177   4.782  12.840
 3096SOL    HW211122  13.099   4.800  12.711
 3097SOL     OW11123   0.160  11.020  11.762
 3097SOL    HW111124   0.083  11.054  11.716
 3097SOL    HW211125   0.157  11.062  11.848
 3098SOL     OW11126  10.752   6.925  11.265
 3098SOL    HW111127  10.758   7.016  11.235
 3098SOL    HW211128  10.713   6.878  11.192
 3099SOL     OW11129   2.345  10.778   1.717
 3099SOL    HW111130   2.355  10.855   1.660
 3099SOL    HW211131   2.393  10.801   1.796
 3100SOL     OW11132   0.719  14.539  10.492
 3100SOL    HW111133   0.786  14.594  10.531
 3100SOL    HW211134   0.640  14.594  10.491
 3101SOL     OW11135  10.153   7.946  12.892
 3101SOL    HW111136  10.123   8.011  12.828
 3101SOL    HW211137  10.117   7.863  12.860
 3102SOL     OW11138  11.365   3.274  11.085
 3102SOL    HW111139  11.346   3.360  11.047
 3102SOL    HW211140  11.439   3.241  11.034
 3103SOL     OW11141   2.986   1.101   2.486
 3103SOL    HW111142   2.926   1.102   2.561
 3103SOL    HW211143   3.029   1.015   2.491
 3104SOL     OW11144   5.467   4.526   5.729
 3104SOL    HW111145   5.492   4.438   5.758
 3104SOL    HW211146   5.394   4.550   5.787
 3105SOL     OW11147   0.111  12.791   9.550
 3105SOL    HW111148   0.159  12.779   9.632
 3105SOL    HW211149   0.132  12.712   9.499
 3106SOL     OW11150   3.027  11.920   1.364
 3106SOL    HW111151   2.937  11.950   1.349
 3106SOL    HW211152   3.047  11.949   1.452
 3107SOL     OW11153   9.958   3.582  12.325
 3107SOL    HW111154   9.975   3.488  12.323
 3107SOL    HW211155   9.953   3.607  12.233
 3108SOL     OW11156   0.048  12.730  14.863
 3108SOL    HW111157   0.066  12.824  14.859
 3108SOL    HW211158   0.033  12.712   0.077
 3109SOL     OW11159   6.708   0.115   7.675
 3109SOL    HW111160   6.765   0.091   7.602
 3109SOL    HW211161   6.755   0.184   7.720
 3110SOL     OW11162   4.229   3.819  12.295
 3110SOL    HW111163   4.302   3.781  12.344
 3110SOL    HW211164   4.241   3.787  12.206
 3111SOL     OW11165   1.403  11.280   0.254
 3111SOL    HW111166   1.402  11.207   0.192
 3111SOL    HW211167   1.312  11.291   0.280
 3112SOL     OW11168  10.706   1.478   5.246
 3112SOL    HW111169  10.696   1.428   5.165
 3112SOL    HW211170  10.759   1.554   5.220
 3113SOL     OW11171   0.896   3.893  12.767
 3113SOL    HW111172   0.907   3.984  12.740
 3113SOL    HW211173   0.829   3.858  12.708
 3114SOL     OW11174   0.785   1.415  14.000
 3114SOL    HW111175   0.850   1.430  14.068
 3114SOL    HW211176   0.766   1.502  13.965
 3115SOL     OW11177   5.773  10.008   4.269
 3115SOL    HW111178   5.723  10.024   4.189
 3115SOL    HW211179   5.708   9.973   4.330
 3116SOL     OW11180   7.396   6.375   3.891
 3116SOL    HW111181   7.488   6.397   3.905
 3116SOL    HW211182   7.350   6.457   3.909
 3117SOL     OW11183   1.033   6.834  10.671
 3117SOL    HW111184   1.032   6.893  10.596
 3117SOL    HW211185   1.060   6.749  10.635
 3118SOL     OW11186   2.117  12.981   7.252
 3118SOL    HW111187   2.168  12.937   7.184
 3118SOL    HW211188   2.141  12.937   7.333
 3119SOL     OW11189   0.242  12.033   6.210
 3119SOL    HW111190   0.295  12.109   6.185
 3119SOL    HW211191   0.153  12.059   6.188
 3120SOL     OW11192   3.704  10.414   6.461
 3120SOL    HW111193   3.799  10.421   6.456
 3120SOL    HW211194   3.684  10.435   6.553
 3121SOL     OW11195  11.433  10.583   5.174
 3121SOL    HW111196  11.343  10.607   5.197
 3121SOL    HW211197  11.480  10.667   5.172
 3122SOL     OW11198   7.019  14.712  13.550
 3122SOL    HW111199   7.058  14.766  13.482
 3122SOL    HW211200   6.926  14.711  13.530
 3123SOL     OW11201   4.312   5.962   7.302
 3123SOL    HW111202   4.261   6.043   7.296
 3123SOL    HW211203   4.286   5.912   7.225
 3124SOL     OW11204  10.233   9.998   4.377
 3124SOL    HW111205  10.159   9.986   4.317
 3124SOL    HW211206  10.232   9.919   4.431
 3125SOL     OW11207  10.217   1.978   5.637
 3125SOL    HW111208  10.220   2.013   5.548
 3125SOL    HW211209  10.210   1.883   5.626
 3126SOL     OW11210   5.799   8.860  14.265
 3126SOL    HW111211   5.889   8.878  14.293
 3126SOL    HW211212   5.793   8.899  14.178
 3127SOL     OW11213   4.913  13.878   5.464
 3127SOL    HW111214   4.962  13.933   5.403
 3127SOL    HW211215   4.868  13.814   5.409
 3128SOL     OW11216  13.571  10.175  11.653
 3128SOL    HW111217  13.499  10.119  11.682
 3128SOL    HW211218  13.565  10.173  11.557
 3129SOL     OW11219   6.810  10.219   2.955
 3129SOL    HW111220   6.775  10.241   2.868
 3129SOL    HW211221   6.900  10.193   2.938
 3130SOL     OW11222   5.709   7.575   2.079
 3130SOL    HW111223   5.795   7.557   2.116
 3130SOL    HW211224   5.702   7.670   2.077
 3131SOL     OW11225   6.358   8.362   1.150
 3131SOL    HW111226   6.273   8.325   1.126
 3131SOL    HW211227   6.406   8.288   1.188
 3132SOL     OW11228  14.752   1.158   7.915
 3132SOL    HW111229  14.676   1.149   7.858
 3132SOL    HW211230  14.801   1.076   7.903
 3133SOL     OW11231   1.910  12.524  11.368
 3133SOL    HW111232   1.925  12.600  11.424
 3133SOL    HW211233   1.967  12.456  11.403
 3134SOL     OW11234   5.847   8.157   3.411
 3134SOL    HW111235   5.790   8.232   3.394
 3134SOL    HW211236   5.928   8.196   3.445
 3135SOL     OW11237   0.522   2.530  12.186
 3135SOL    HW111238   0.504   2.462  12.121
 3135SOL    HW211239   0.561   2.485  12.260
 3136SOL     OW11240   6.683  13.626   0.441
 3136SOL    HW111241   6.648  13.623   0.531
 3136SOL    HW211242   6.672  13.536   0.409
 3137SOL     OW11243   1.979   6.481  13.094
 3137SOL    HW111244   1.936   6.416  13.150
 3137SOL    HW211245   1.958   6.565  13.135
 3138SOL     OW11246   1.546  10.016   9.717
 3138SOL    HW111247   1.500  10.012   9.633
 3138SOL    HW211248   1.513  10.095   9.759
 3139SOL     OW11249   4.692  11.212   8.643
 3139SOL    HW111250   4.784  11.221   8.617
 3139SOL    HW211251   4.658  11.141   8.589
 3140SOL     OW11252  10.802  13.510  11.527
 3140SOL    HW111253  10.860  13.497  11.452
 3140SOL    HW211254  10.757  13.593  11.509
 3141SOL     OW11255   4.220   1.281  13.413
 3141SOL    HW111256   4.233   1.188  13.398
 3141SOL    HW211257   4.149   1.306  13.354
 3142SOL     OW11258  11.962   0.301   9.232
 3142SOL    HW111259  11.961   0.320   9.139
 3142SOL    HW211260  11.876   0.330   9.264
 3143SOL     OW11261  11.628   2.035   3.250
 3143SOL    HW111262  11.616   2.092   3.174
 3143SOL    HW211263  11.570   2.071   3.317
 3144SOL     OW11264   4.247   9.649   4.219
 3144SOL    HW111265   4.207   9.657   4.133
 3144SOL    HW211266   4.339   9.674   4.205
 3145SOL     OW11267   6.170  12.654   6.873
 3145SOL    HW111268   6.265  12.651   6.884
 3145SOL    HW211269   6.138  12.694   6.954
 3146SOL     OW11270   5.520   9.139  14.371
 3146SOL    HW111271   5.565   9.114  14.452
 3146SOL    HW211272   5.492   9.229  14.387
 3147SOL     OW11273   8.402   3.692  10.550
 3147SOL    HW111274   8.457   3.647  10.486
 3147SOL    HW211275   8.390   3.628  10.621
 3148SOL     OW11276  13.975   7.054   9.964
 3148SOL    HW111277  14.007   7.047  10.054
 3148SOL    HW211278  14.018   7.131   9.928
 3149SOL     OW11279  11.941  10.264   2.663
 3149SOL    HW111280  11.871  10.317   2.702
 3149SOL    HW211281  11.919  10.174   2.686
 3150SOL     OW11282  13.013   2.146   9.667
 3150SOL    HW111283  13.005   2.059   9.705
 3150SOL    HW211284  13.012   2.131   9.572
 3151SOL     OW11285  13.853   2.894   2.870
 3151SOL    HW111286  13.917   2.908   2.799
 3151SOL    HW211287  13.891   2.940   2.945
 3152SOL     OW11288  11.976  11.007   7.805
 3152SOL    HW111289  11.959  11.096   7.834
 3152SOL    HW211290  11.923  10.997   7.726
 3153SOL     OW11291  12.345  13.659  13.837
 3153SOL    HW111292  12.289  13.589  13.802
 3153SOL    HW211293  12.401  13.616  13.901
 3154SOL     OW11294   8.023   7.907  10.257
 3154SOL    HW111295   7.962   7.877  10.190
 3154SOL    HW211296   7.998   7.858  10.335
 3155SOL     OW11297  10.714   1.846  10.080
 3155SOL    HW111298  10.808   1.833  10.085
 3155SOL    HW211299  10.681   1.815  10.165
 3156SOL     OW11300   5.042   4.400   0.074
 3156SOL    HW111301   5.113   4.460   0.096
 3156SOL    HW211302   4.963   4.446   0.100
 3157SOL     OW11303   7.963  12.662   4.130
 3157SOL    HW111304   7.891  12.720   4.106
 3157SOL    HW211305   7.958  12.590   4.067
 3158SOL     OW11306   2.260   2.573  13.483
 3158SOL    HW111307   2.219   2.544  13.564
 3158SOL    HW211308   2.276   2.492  13.434
 3159SOL     OW11309   9.374   4.886   1.048
 3159SOL    HW111310   9.314   4.883   0.973
 3159SOL    HW211311   9.437   4.955   1.026
 3160SOL     OW11312  14.030   3.827  13.822
 3160SOL    HW111313  14.120   3.858  13.815
 3160SOL    HW211314  13.981   3.904  13.851
 3161SOL     OW11315   7.403  10.663   4.882
 3161SOL    HW111316   7.393  10.656   4.977
 3161SOL    HW211317   7.329  10.613   4.846
 3162SOL     OW11318   3.366   9.361   5.763
 3162SOL    HW111319   3.402   9.449   5.769
 3162SOL    HW211320   3.323   9.359   5.677
 3163SOL     OW11321   4.472   7.592   8.643
 3163SOL    HW111322   4.562   7.620   8.658
 3163SOL    HW211323   4.466   7.577   8.549
 3164SOL     OW11324   3.804   6.818   8.350
 3164SOL    HW111325   3.817   6.906   8.315
 3164SOL    HW211326   3.879   6.768   8.318
 3165SOL     OW11327  12.891   5.684   1.276
 3165SOL    HW111328  12.826   5.717   1.338
 3165SOL    HW211329  12.844   5.620   1.223
 3166SOL     OW11330  13.081   4.351   0.440
 3166SOL    HW111331  13.100   4.440   0.471
 3166SOL    HW211332  13.000   4.359   0.391
 3167SOL     OW11333   5.655   1.323  11.904
 3167SOL    HW111334   5.672   1.358  11.992
 3167SOL    HW211335   5.703   1.240  11.901
 3168SOL     OW11336  11.006   3.467  13.100
 3168SOL    HW111337  11.088   3.517  13.097
 3168SOL    HW211338  10.985   3.450  13.008
 3169SOL     OW11339  10.328   7.011   6.811
 3169SOL    HW111340  10.278   6.945   6.859
 3169SOL    HW211341  10.312   6.990   6.719
 3170SOL     OW11342   1.912   9.555   4.606
 3170SOL    HW111343   1.928   9.584   4.516
 3170SOL    HW211344   1.966   9.612   4.660
 3171SOL     OW11345  14.798  13.923  14.482
 3171SOL    HW111346  14.762  13.985  14.546
 3171SOL    HW211347  14.865  13.974  14.436
 3172SOL     OW11348   1.540   4.998   3.228
 3172SOL    HW111349   1.628   4.998   3.265
 3172SOL    HW211350   1.534   4.916   3.179
 3173SOL     OW11351   5.177   1.362  14.536
 3173SOL    HW111352   5.167   1.332  14.446
 3173SOL    HW211353   5.266   1.336  14.561
 3174SOL     OW11354   4.897   9.733   6.668
 3174SOL    HW111355   4.875   9.643   6.645
 3174SOL    HW211356   4.988   9.730   6.695
 3175SOL     OW11357   2.195   8.998   8.468
 3175SOL    HW111358   2.241   9.008   8.384
 3175SOL    HW211359   2.150   8.914   8.460
 3176SOL     OW11360   5.823  11.368   7.165
 3176SOL    HW111361   5.882  11.293   7.164
 3176SOL    HW211362   5.873  11.437   7.208
 3177SOL     OW11363  13.684   5.126   1.275
 3177SOL    HW111364  13.649   5.180   1.204
 3177SOL    HW211365  13.745   5.066   1.233
 3178SOL     OW11366   6.443  14.490  11.607
 3178SOL    HW111367   6.535  14.515  11.599
 3178SOL    HW211368   6.404  14.519  11.524
 3179SOL     OW11369   5.844   6.185   4.756
 3179SOL    HW111370   5.767   6.242   4.758
 3179SOL    HW211371   5.868   6.174   4.848
 3180SOL     OW11372   3.342   7.855   3.289
 3180SOL    HW111373   3.351   7.923   3.355
 3180SOL    HW211374   3.259   7.875   3.246
 3181SOL     OW11375   9.273  11.983  10.728
 3181SOL    HW111376   9.285  11.892  10.753
 3181SOL    HW211377   9.183  11.988  10.696
 3182SOL     OW11378  12.555   2.362   8.550
 3182SOL    HW111379  12.519   2.282   8.511
 3182SOL    HW211380  12.556   2.343   8.644
 3183SOL     OW11381   1.872   9.965   3.223
 3183SOL    HW111382   1.929   9.938   3.151
 3183SOL    HW211383   1.914  10.044   3.258
 3184SOL     OW11384  10.600  10.310   3.289
 3184SOL    HW111385  10.565  10.227   3.255
 3184SOL    HW211386  10.615  10.363   3.211
 3185SOL     OW11387  14.859   6.324  14.874
 3185SOL    HW111388   0.002   6.393   0.058
 3185SOL    HW211389   0.005   6.360  14.789
 3186SOL     OW11390   8.875  11.204   8.906
 3186SOL    HW111391   8.789  11.196   8.863
 3186SOL    HW211392   8.868  11.149   8.984
 3187SOL     OW11393   1.992   9.127  12.255
 3187SOL    HW111394   2.063   9.110  12.194
 3187SOL    HW211395   1.992   9.222  12.267
 3188SOL     OW11396   6.036   8.940   8.187
 3188SOL    HW111397   6.108   8.933   8.249
 3188SOL    HW211398   5.979   9.008   8.223
 3189SOL     OW11399  12.326   7.288   4.586
 3189SOL    HW111400  12.416   7.254   4.578
 3189SOL    HW211401  12.274   7.229   4.532
 3190SOL     OW11402  11.031  11.199   0.243
 3190SOL    HW111403  11.119  11.228   0.266
 3190SOL    HW211404  11.037  11.103   0.241
 3191SOL     OW11405  11.056   3.050  12.430
 3191SOL    HW111406  11.077   3.022  12.341
 3191SOL    HW211407  11.137   3.037  12.479
 3192SOL     OW11408   4.884  14.196   7.439
 3192SOL    HW111409   4.902  14.269   7.379
 3192SOL    HW211410   4.789  14.192   7.444
 3193SOL     OW11411   8.485  10.372   3.625
 3193SOL    HW111412   8.473  10.282   3.654
 3193SOL    HW211413   8.438  10.425   3.690
 3194SOL     OW11414   3.940   5.435   3.927
 3194SOL    HW111415   4.007   5.387   3.975
 3194SOL    HW211416   3.870   5.371   3.913
 3195SOL     OW11417   6.962   6.825  11.204
 3195SOL    HW111418   7.035   6.810  11.144
 3195SOL    HW211419   6.959   6.745  11.257
 3196SOL     OW11420  14.762  14.480   9.881
 3196SOL    HW111421  14.684  14.482   9.936
 3196SOL    HW211422  14.764  14.566   9.838
 3197SOL     OW11423   8.089  12.251  14.818
 3197SOL    HW111424   8.002  12.286  14.836
 3197SOL    HW211425   8.104  12.187   0.009
 3198SOL     OW11426   6.181   9.694   5.258
 3198SOL    HW111427   6.148   9.633   5.323
 3198SOL    HW211428   6.276   9.679   5.256
 3199SOL     OW11429   1.486   0.469  13.064
 3199SOL    HW111430   1.498   0.506  13.152
 3199SOL    HW211431   1.477   0.545  13.007
 3200SOL     OW11432   5.783  14.382   7.579
 3200SOL    HW111433   5.791  14.386   7.674
 3200SOL    HW211434   5.804  14.291   7.557
 3201SOL     OW11435   6.761   4.516   8.337
 3201SOL    HW111436   6.727   4.584   8.395
 3201SOL    HW211437   6.737   4.545   8.249
 3202SOL     OW11438   7.156   4.402   8.929
 3202SOL    HW111439   7.081   4.411   8.871
 3202SOL    HW211440   7.143   4.317   8.971
 3203SOL     OW11441  10.067   8.564   8.383
 3203SOL    HW111442  10.101   8.504   8.316
 3203SOL    HW211443   9.992   8.607   8.341
 3204SOL     OW11444   0.789   1.510   9.938
 3204SOL    HW111445   0.776   1.590   9.887
 3204SOL    HW211446   0.855   1.533  10.003
 3205SOL     OW11447   9.546   9.467  14.429
 3205SOL    HW111448   9.494   9.406  14.375
 3205SOL    HW211449   9.510   9.457  14.517
 3206SOL     OW11450   8.713  13.835   7.972
 3206SOL    HW111451   8.632  13.819   8.019
 3206SOL    HW211452   8.707  13.781   7.893
 3207SOL     OW11453   9.086   0.998   1.610
 3207SOL    HW111454   9.036   1.034   1.537
 3207SOL    HW211455   9.021   0.949   1.661
 3208SOL     OW11456   4.336   3.537  13.106
 3208SOL    HW111457   4.356   3.611  13.162
 3208SOL    HW211458   4.354   3.568  13.017
 3209SOL     OW11459  10.631   8.672   2.569
 3209SOL    HW111460  10.620   8.587   2.611
 3209SOL    HW211461  10.624   8.654   2.475
 3210SOL     OW11462  13.258   3.513   4.455
 3210SOL    HW111463  13.330   3.557   4.501
 3210SOL    HW211464  13.280   3.420   4.460
 3211SOL     OW11465   6.912   0.929   9.271
 3211SOL    HW111466   6.942   0.848   9.231
 3211SOL    HW211467   6.834   0.953   9.222
 3212SOL     OW11468  14.363   0.035   9.278
 3212SOL    HW111469  14.376   0.070   9.190
 3212SOL    HW211470  14.269   0.019   9.284
 3213SOL     OW11471   2.881  10.071   3.765
 3213SOL    HW111472   2.955  10.013   3.782
 3213SOL    HW211473   2.856  10.051   3.675
 3214SOL     OW11474  14.853  12.451  11.390
 3214SOL    HW111475  14.799  12.442  11.311
 3214SOL    HW211476  14.833  12.373  11.442
 3215SOL     OW11477   1.584  12.771   5.923
 3215SOL    HW111478   1.527  12.810   5.857
 3215SOL    HW211479   1.524  12.737   5.989
 3216SOL     OW11480   7.664   5.144   9.992
 3216SOL    HW111481   7.604   5.167  10.063
 3216SOL    HW211482   7.662   5.049   9.988
 3217SOL     OW11483   3.426   2.614  10.844
 3217SOL    HW111484   3.462   2.525  10.839
 3217SOL    HW211485   3.469   2.652  10.921
 3218SOL     OW11486   0.118   3.013  10.626
 3218SOL    HW111487   0.041   2.958  10.610
 3218SOL    HW211488   0.088   3.101  10.606
 3219SOL     OW11489  14.138  12.938  13.143
 3219SOL    HW111490  14.198  12.915  13.214
 3219SOL    HW211491  14.138  12.861  13.086
 3220SOL     OW11492   9.894  13.181  11.547
 3220SOL    HW111493   9.956  13.211  11.481
 3220SOL    HW211494   9.894  13.086  11.538
 3221SOL     OW11495  13.454   4.376  14.422
 3221SOL    HW111496  13.413   4.322  14.489
 3221SOL    HW211497  13.415   4.463  14.433
 3222SOL     OW11498  13.478   5.652  14.395
 3222SOL    HW111499  13.395   5.658  14.442
 3222SOL    HW211500  13.539   5.615  14.459
 3223SOL     OW11501   2.780   0.542  13.392
 3223SOL    HW111502   2.867   0.517  13.423
 3223SOL    HW211503   2.752   0.610  13.454
 3224SOL     OW11504  10.769   4.210  10.020
 3224SOL    HW111505  10.740   4.223  10.110
 3224SOL    HW211506  10.795   4.297   9.990
 3225SOL     OW11507   7.240  12.004   5.180
 3225SOL    HW111508   7.246  12.033   5.271
 3225SOL    HW211509   7.330  12.004   5.149
 3226SOL     OW11510   7.138   3.930   8.763
 3226SOL    HW111511   7.169   3.954   8.676
 3226SOL    HW211512   7.209   3.875   8.799
 3227SOL     OW11513   0.994  14.835   4.290
 3227SOL    HW111514   0.987   0.018   4.217
 3227SOL    HW211515   1.050  14.765   4.257
 3228SOL     OW11516  10.893   0.796   9.184
 3228SOL    HW111517  10.804   0.766   9.164
 3228SOL    HW211518  10.914   0.857   9.113
 3229SOL     OW11519   3.965   5.031   6.882
 3229SOL    HW111520   3.888   5.023   6.937
 3229SOL    HW211521   3.933   5.070   6.800
 3230SOL     OW11522   6.250   4.340   4.113
 3230SOL    HW111523   6.174   4.281   4.116
 3230SOL    HW211524   6.229   4.402   4.043
 3231SOL     OW11525   4.757  12.874  12.593
 3231SOL    HW111526   4.724  12.789  12.621
 3231SOL    HW211527   4.797  12.858  12.508
 3232SOL     OW11528  13.867   4.514   7.288
 3232SOL    HW111529  13.836   4.485   7.203
 3232SOL    HW211530  13.959   4.487   7.291
 3233SOL     OW11531   5.252   0.170   2.632
 3233SOL    HW111532   5.199   0.247   2.609
 3233SOL    HW211533   5.235   0.155   2.725
 3234SOL     OW11534   2.947   5.254   5.859
 3234SOL    HW111535   2.983   5.341   5.838
 3234SOL    HW211536   2.917   5.220   5.775
 3235SOL     OW11537  11.808  14.584   3.533
 3235SOL    HW111538  11.819  14.584   3.628
 3235SOL    HW211539  11.897  14.584   3.498
 3236SOL     OW11540   8.756   8.532   4.683
 3236SOL    HW111541   8.812   8.583   4.623
 3236SOL    HW211542   8.792   8.551   4.769
 3237SOL     OW11543  10.391   2.947   0.808
 3237SOL    HW111544  10.321   2.999   0.847
 3237SOL    HW211545  10.345   2.883   0.753
 3238SOL     OW11546   7.149  11.349  12.591
 3238SOL    HW111547   7.185  11.276  12.641
 3238SOL    HW211548   7.204  11.354  12.513
 3239SOL     OW11549   7.538   6.386   0.699
 3239SOL    HW111550   7.590   6.442   0.642
 3239SOL    HW211551   7.596   6.366   0.772
 3240SOL     OW11552   4.809  13.838   9.323
 3240SOL    HW111553   4.760  13.759   9.347
 3240SOL    HW211554   4.769  13.908   9.373
 3241SOL     OW11555   9.149  10.407  12.907
 3241SOL    HW111556   9.202  10.346  12.959
 3241SOL    HW211557   9.210  10.441  12.841
 3242SOL     OW11558  13.368   1.776   5.616
 3242SOL    HW111559  13.415   1.802   5.537
 3242SOL    HW211560  13.431   1.724   5.665
 3243SOL     OW11561   9.559   5.351  14.839
 3243SOL    HW111562   9.504   5.427  14.820
 3243SOL    HW211563   9.649   5.382  14.826
 3244SOL     OW11564   7.470  13.871   9.739
 3244SOL    HW111565   7.474  13.848   9.832
 3244SOL    HW211566   7.552  13.918   9.723
 3245SOL     OW11567  10.317  13.802  13.865
 3245SOL    HW111568  10.232  13.844  13.850
 3245SOL    HW211569  10.373  13.872  13.899
 3246SOL     OW11570  13.023   5.710   1.967
 3246SOL    HW111571  13.064   5.656   1.900
 3246SOL    HW211572  12.970   5.773   1.918
 3247SOL     OW11573   8.510   6.813   2.302
 3247SOL    HW111574   8.425   6.828   2.343
 3247SOL    HW211575   8.570   6.869   2.352
 3248SOL     OW11576   4.262   7.602  13.433
 3248SOL    HW111577   4.210   7.553  13.497
 3248SOL    HW211578   4.353   7.583  13.456
 3249SOL     OW11579  10.798   4.036   3.429
 3249SOL    HW111580  10.820   4.128   3.413
 3249SOL    HW211581  10.706   4.037   3.454
 3250SOL     OW11582   8.839   8.996   7.660
 3250SOL    HW111583   8.853   8.913   7.707
 3250SOL    HW211584   8.919   9.046   7.675
 3251SOL     OW11585  13.394   8.162   5.712
 3251SOL    HW111586  13.328   8.201   5.655
 3251SOL    HW211587  13.475   8.205   5.687
 3252SOL     OW11588   9.904   2.045   1.479
 3252SOL    HW111589   9.948   2.049   1.564
 3252SOL    HW211590   9.828   2.102   1.489
 3253SOL     OW11591  10.162   4.852  12.413
 3253SOL    HW111592  10.125   4.767  12.391
 3253SOL    HW211593  10.214   4.877  12.337
 3254SOL     OW11594   0.573   3.108   0.869
 3254SOL    HW111595   0.587   3.114   0.774
 3254SOL    HW211596   0.578   3.198   0.900
 3255SOL     OW11597   5.921  14.009   3.441
 3255SOL    HW111598   6.004  14.053   3.455
 3255SOL    HW211599   5.860  14.050   3.502
 3256SOL     OW11600   2.253   6.645   5.558
 3256SOL    HW111601   2.167   6.645   5.517
 3256SOL    HW211602   2.239   6.609   5.645
 3257SOL     OW11603   2.247  14.089   4.781
 3257SOL    HW111604   2.175  14.116   4.725
 3257SOL    HW211605   2.247  14.152   4.853
 3258SOL     OW11606   2.657   9.728   9.484
 3258SOL    HW111607   2.584   9.720   9.423
 3258SOL    HW211608   2.724   9.775   9.436
 3259SOL     OW11609   5.986  10.244   1.158
 3259SOL    HW111610   6.047  10.210   1.224
 3259SOL    HW211611   6.042  10.281   1.091
 3260SOL     OW11612   0.120   8.935   4.142
 3260SOL    HW111613   0.146   8.920   4.232
 3260SOL    HW211614   0.137   9.028   4.127
 3261SOL     OW11615  11.373  13.649   7.694
 3261SOL    HW111616  11.460  13.688   7.700
 3261SOL    HW211617  11.389  13.558   7.670
 3262SOL     OW11618  13.191   8.987   6.160
 3262SOL    HW111619  13.186   8.919   6.094
 3262SOL    HW211620  13.100   9.017   6.171
 3263SOL     OW11621   5.850  12.258  12.465
 3263SOL    HW111622   5.930  12.211  12.442
 3263SOL    HW211623   5.806  12.273  12.382
 3264SOL     OW11624   8.611  12.675  11.645
 3264SOL    HW111625   8.634  12.711  11.731
 3264SOL    HW211626   8.576  12.750  11.597
 3265SOL     OW11627  11.802  10.700   6.375
 3265SOL    HW111628  11.795  10.774   6.435
 3265SOL    HW211629  11.807  10.623   6.433
 3266SOL     OW11630  10.313  14.161   7.021
 3266SOL    HW111631  10.333  14.137   6.930
 3266SOL    HW211632  10.236  14.217   7.015
 3267SOL     OW11633  10.121  12.050  12.311
 3267SOL    HW111634  10.045  12.098  12.344
 3267SOL    HW211635  10.099  12.029  12.221
 3268SOL     OW11636   2.909   6.024   1.595
 3268SOL    HW111637   2.893   5.954   1.658
 3268SOL    HW211638   2.877   6.103   1.638
 3269SOL     OW11639   8.070  12.763  11.899
 3269SOL    HW111640   7.979  12.738  11.884
 3269SOL    HW211641   8.090  12.730  11.986
 3270SOL     OW11642   9.969   9.905  13.299
 3270SOL    HW111643  10.040   9.886  13.360
 3270SOL    HW211644   9.922   9.979  13.338
 3271SOL     OW11645   9.803   2.932  10.943
 3271SOL    HW111646   9.773   2.973  11.024
 3271SOL    HW211647   9.898   2.932  10.949
 3272SOL     OW11648  13.744  10.553  10.760
 3272SOL    HW111649  13.692  10.478  10.789
 3272SOL    HW211650  13.678  10.619  10.735
 3273SOL     OW11651  10.644   0.007   1.824
 3273SOL    HW111652  10.657   0.065   1.750
 3273SOL    HW211653  10.555   0.025   1.854
 3274SOL     OW11654  11.168   4.906   6.425
 3274SOL    HW111655  11.257   4.901   6.389
 3274SOL    HW211656  11.139   4.815   6.429
 3275SOL     OW11657   4.479   0.394   1.402
 3275SOL    HW111658   4.530   0.327   1.448
 3275SOL    HW211659   4.406   0.412   1.462
 3276SOL     OW11660   9.954   5.222   0.880
 3276SOL    HW111661   9.882   5.184   0.930
 3276SOL    HW211662   9.975   5.304   0.926
 3277SOL     OW11663   8.109   3.964   6.855
 3277SOL    HW111664   8.040   4.029   6.865
 3277SOL    HW211665   8.063   3.882   6.838
 3278SOL     OW11666   1.618   4.820  11.686
 3278SOL    HW111667   1.581   4.809  11.599
 3278SOL    HW211668   1.547   4.798  11.746
 3279SOL     OW11669   8.776   8.084   9.865
 3279SOL    HW111670   8.801   8.122   9.949
 3279SOL    HW211671   8.822   8.137   9.800
 3280SOL     OW11672   9.708   6.916   8.901
 3280SOL    HW111673   9.642   6.902   8.969
 3280SOL    HW211674   9.658   6.937   8.823
 3281SOL     OW11675  14.630  10.549   2.065
 3281SOL    HW111676  14.608  10.469   2.112
 3281SOL    HW211677  14.605  10.531   1.974
 3282SOL     OW11678   8.688  11.865  14.154
 3282SOL    HW111679   8.628  11.935  14.128
 3282SOL    HW211680   8.743  11.851  14.077
 3283SOL     OW11681   4.037  11.054  13.574
 3283SOL    HW111682   4.048  11.006  13.492
 3283SOL    HW211683   3.978  10.999  13.626
 3284SOL     OW11684  11.463   5.696   9.304
 3284SOL    HW111685  11.558   5.705   9.304
 3284SOL    HW211686  11.439   5.683   9.396
 3285SOL     OW11687  13.570   1.813   0.114
 3285SOL    HW111688  13.632   1.791   0.045
 3285SOL    HW211689  13.526   1.731   0.134
 3286SOL     OW11690   3.217  13.255   7.135
 3286SOL    HW111691   3.240  13.199   7.060
 3286SOL    HW211692   3.175  13.331   7.096
 3287SOL     OW11693  10.935   1.448  14.014
 3287SOL    HW111694  10.906   1.377  14.071
 3287SOL    HW211695  10.991   1.502  14.069
 3288SOL     OW11696   0.093  13.659  13.178
 3288SOL    HW111697   0.060  13.569  13.175
 3288SOL    HW211698   0.027  13.706  13.230
 3289SOL     OW11699  10.002   2.726   9.656
 3289SOL    HW111700  10.078   2.670   9.674
 3289SOL    HW211701  10.028   2.776   9.578
 3290SOL     OW11702  12.183   2.717  12.147
 3290SOL    HW111703  12.230   2.697  12.066
 3290SOL    HW211704  12.251   2.731  12.212
 3291SOL     OW11705  13.617   2.670  13.183
 3291SOL    HW111706  13.593   2.586  13.143
 3291SOL    HW211707  13.533   2.712  13.200
 3292SOL     OW11708   3.906  12.882   2.428
 3292SOL    HW111709   3.895  12.811   2.365
 3292SOL    HW211710   3.990  12.922   2.405
 3293SOL     OW11711   3.713   8.860   6.222
 3293SOL    HW111712   3.737   8.815   6.141
 3293SOL    HW211713   3.796   8.891   6.258
 3294SOL     OW11714  10.901  13.239  13.235
 3294SOL    HW111715  10.878  13.330  13.218
 3294SOL    HW211716  10.997  13.239  13.235
 3295SOL     OW11717   6.701   9.483   6.425
 3295SOL    HW111718   6.786   9.439   6.421
 3295SOL    HW211719   6.697   9.520   6.513
 3296SOL     OW11720   9.088   9.774  11.808
 3296SOL    HW111721   9.013   9.722  11.778
 3296SOL    HW211722   9.162   9.739  11.759
 3297SOL     OW11723   4.447   0.641   4.389
 3297SOL    HW111724   4.402   0.720   4.420
 3297SOL    HW211725   4.535   0.648   4.426
 3298SOL     OW11726  10.484   0.192   4.506
 3298SOL    HW111727  10.540   0.233   4.572
 3298SOL    HW211728  10.481   0.100   4.529
 3299SOL     OW11729  13.227  11.221  12.653
 3299SOL    HW111730  13.157  11.219  12.718
 3299SOL    HW211731  13.294  11.277  12.691
 3300SOL     OW11732   0.659   1.642   7.170
 3300SOL    HW111733   0.588   1.580   7.151
 3300SOL    HW211734   0.713   1.596   7.235
 3301SOL     OW11735   8.309   9.822   3.522
 3301SOL    HW111736   8.257   9.836   3.443
 3301SOL    HW211737   8.248   9.842   3.594
 3302SOL     OW11738  13.504   6.258   9.498
 3302SOL    HW111739  13.502   6.226   9.408
 3302SOL    HW211740  13.594   6.243   9.526
 3303SOL     OW11741   3.291   8.820   0.860
 3303SOL    HW111742   3.220   8.850   0.917
 3303SOL    HW211743   3.352   8.893   0.857
 3304SOL     OW11744  14.767   3.732   5.475
 3304SOL    HW111745  14.791   3.662   5.536
 3304SOL    HW211746  14.827   3.804   5.496
 3305SOL     OW11747   6.594   9.921   6.204
 3305SOL    HW111748   6.560   9.942   6.291
 3305SOL    HW211749   6.634   9.835   6.214
 3306SOL     OW11750   7.053   5.222   2.930
 3306SOL    HW111751   7.090   5.176   3.005
 3306SOL    HW211752   7.120   5.285   2.905
 3307SOL     OW11753  11.351  13.107   2.448
 3307SOL    HW111754  11.332  13.118   2.355
 3307SOL    HW211755  11.283  13.047   2.479
 3308SOL     OW11756  14.435   6.085   9.757
 3308SOL    HW111757  14.434   5.996   9.724
 3308SOL    HW211758  14.357   6.126   9.719
 3309SOL     OW11759   4.447   2.433   8.015
 3309SOL    HW111760   4.384   2.362   8.015
 3309SOL    HW211761   4.486   2.431   7.928
 3310SOL     OW11762   6.520   7.330   7.719
 3310SOL    HW111763   6.428   7.356   7.710
 3310SOL    HW211764   6.569   7.408   7.694
 3311SOL     OW11765  13.381  13.357   7.032
 3311SOL    HW111766  13.385  13.405   6.949
 3311SOL    HW211767  13.471  13.329   7.047
 3312SOL     OW11768   7.856   7.075  11.713
 3312SOL    HW111769   7.791   7.038  11.773
 3312SOL    HW211770   7.941   7.055  11.753
 3313SOL     OW11771   3.247   9.055   4.711
 3313SOL    HW111772   3.195   9.102   4.645
 3313SOL    HW211773   3.290   8.985   4.662
 3314SOL     OW11774   3.103   1.569   0.859
 3314SOL    HW111775   3.044   1.525   0.798
 3314SOL    HW211776   3.052   1.578   0.939
 3315SOL     OW11777   2.907   0.151   0.637
 3315SOL    HW111778   2.824   0.161   0.590
 3315SOL    HW211779   2.946   0.238   0.636
 3316SOL     OW11780   9.850   3.830  10.246
 3316SOL    HW111781   9.925   3.852  10.190
 3316SOL    HW211782   9.809   3.914  10.266
 3317SOL     OW11783   7.816   1.639   2.240
 3317SOL    HW111784   7.855   1.585   2.171
 3317SOL    HW211785   7.747   1.583   2.277
 3318SOL     OW11786  12.483   6.703  10.831
 3318SOL    HW111787  12.438   6.722  10.749
 3318SOL    HW211788  12.459   6.613  10.852
 3319SOL     OW11789   0.594  12.833   3.613
 3319SOL    HW111790   0.552  12.855   3.529
 3319SOL    HW211791   0.528  12.781   3.659
 3320SOL     OW11792   0.647   0.154   6.241
 3320SOL    HW111793   0.691   0.144   6.326
 3320SOL    HW211794   0.719   0.156   6.177
 3321SOL     OW11795   8.356  13.493   7.010
 3321SOL    HW111796   8.411  13.559   6.967
 3321SOL    HW211797   8.273  13.538   7.025
 3322SOL     OW11798   9.275   4.261  11.747
 3322SOL    HW111799   9.333   4.327  11.708
 3322SOL    HW211800   9.294   4.265  11.841
 3323SOL     OW11801  13.253   5.081   4.738
 3323SOL    HW111802  13.348   5.085   4.729
 3323SOL    HW211803  13.220   5.132   4.664
 3324SOL     OW11804  11.751  11.334   3.189
 3324SOL    HW111805  11.721  11.268   3.252
 3324SOL    HW211806  11.810  11.285   3.131
 3325SOL     OW11807   1.626  14.113  14.536
 3325SOL    HW111808   1.597  14.200  14.507
 3325SOL    HW211809   1.551  14.077  14.583
 3326SOL     OW11810   1.748   9.691   7.394
 3326SOL    HW111811   1.794   9.637   7.330
 3326SOL    HW211812   1.818   9.732   7.445
 3327SOL     OW11813   3.180  14.186  13.404
 3327SOL    HW111814   3.203  14.095  13.427
 3327SOL    HW211815   3.193  14.235  13.485
 3328SOL     OW11816   8.580   8.585   4.270
 3328SOL    HW111817   8.543   8.530   4.202
 3328SOL    HW211818   8.626   8.525   4.328
 3329SOL     OW11819   8.580   8.495  11.482
 3329SOL    HW111820   8.522   8.496  11.558
 3329SOL    HW211821   8.529   8.454  11.412
 3330SOL     OW11822   6.197   9.737   1.264
 3330SOL    HW111823   6.253   9.815   1.257
 3330SOL    HW211824   6.225   9.681   1.192
 3331SOL     OW11825  10.926  14.851  12.888
 3331SOL    HW111826  10.922  14.789  12.961
 3331SOL    HW211827  10.839  14.847  12.848
 3332SOL     OW11828   3.239  10.912  11.628
 3332SOL    HW111829   3.295  10.902  11.704
 3332SOL    HW211830   3.298  10.904  11.553
 3333SOL     OW11831  14.597   7.359  14.255
 3333SOL    HW111832  14.691   7.348  14.273
 3333SOL    HW211833  14.594   7.390  14.165
 3334SOL     OW11834  11.361   6.098  11.329
 3334SOL    HW111835  11.336   6.172  11.385
 3334SOL    HW211836  11.322   6.021  11.373
 3335SOL     OW11837   0.490   2.797   8.296
 3335SOL    HW111838   0.522   2.718   8.252
 3335SOL    HW211839   0.394   2.787   8.296
 3336SOL     OW11840   6.754  14.859   4.334
 3336SOL    HW111841   6.690  14.832   4.400
 3336SOL    HW211842   6.801   0.053   4.375
 3337SOL     OW11843  11.635  13.032   3.195
 3337SOL    HW111844  11.646  13.096   3.125
 3337SOL    HW211845  11.544  13.044   3.224
 3338SOL     OW11846  13.976   6.665   4.504
 3338SOL    HW111847  14.016   6.681   4.589
 3338SOL    HW211848  13.906   6.730   4.498
 3339SOL     OW11849   0.324  14.815   3.921
 3339SOL    HW111850   0.283   0.018   3.893
 3339SOL    HW211851   0.349  14.831   4.013
 3340SOL     OW11852   1.092   6.341   6.278
 3340SOL    HW111853   1.083   6.253   6.241
 3340SOL    HW211854   1.162   6.334   6.343
 3341SOL     OW11855  13.889   1.576   4.117
 3341SOL    HW111856  13.819   1.612   4.171
 3341SOL    HW211857  13.952   1.540   4.179
 3342SOL     OW11858   7.250   4.118   3.717
 3342SOL    HW111859   7.224   4.026   3.714
 3342SOL    HW211860   7.340   4.118   3.686
 3343SOL     OW11861  12.943   1.771   8.140
 3343SOL    HW111862  12.911   1.702   8.199
 3343SOL    HW211863  12.944   1.850   8.194
 3344SOL     OW11864   9.724   2.512   6.319
 3344SOL    HW111865   9.662   2.439   6.323
 3344SOL    HW211866   9.751   2.525   6.410
 3345SOL     OW11867  14.143   9.812   6.465
 3345SOL    HW111868  14.123   9.803   6.558
 3345SOL    HW211869  14.064   9.784   6.420
 3346SOL     OW11870   1.736   0.511   3.458
 3346SOL    HW111871   1.649   0.505   3.496
 3346SOL    HW211872   1.741   0.600   3.422
 3347SOL     OW11873   6.303   9.514   3.937
 3347SOL    HW111874   6.315   9.605   3.909
 3347SOL    HW211875   6.219   9.515   3.983
 3348SOL     OW11876  11.474  13.163  12.000
 3348SOL    HW111877  11.532  13.086  11.998
 3348SOL    HW211878  11.421  13.156  11.921
 3349SOL     OW11879   6.870   9.186   0.528
 3349SOL    HW111880   6.901   9.190   0.438
 3349SOL    HW211881   6.898   9.100   0.560
 3350SOL     OW11882   0.539   4.946   3.498
 3350SOL    HW111883   0.613   4.997   3.528
 3350SOL    HW211884   0.577   4.877   3.443
 3351SOL     OW11885  12.534   6.458   0.831
 3351SOL    HW111886  12.536   6.447   0.736
 3351SOL    HW211887  12.538   6.552   0.845
 3352SOL     OW11888   3.382   4.699   3.591
 3352SOL    HW111889   3.361   4.784   3.553
 3352SOL    HW211890   3.378   4.714   3.686
 3353SOL     OW11891   5.717   3.317  14.760
 3353SOL    HW111892   5.639   3.362  14.792
 3353SOL    HW211893   5.687   3.228  14.742
 3354SOL     OW11894  10.846  10.142   0.777
 3354SOL    HW111895  10.895  10.060   0.767
 3354SOL    HW211896  10.814  10.139   0.867
 3355SOL     OW11897   9.189   2.084   4.406
 3355SOL    HW111898   9.103   2.051   4.432
 3355SOL    HW211899   9.176   2.179   4.397
 3356SOL     OW11900  11.619   9.173   4.465
 3356SOL    HW111901  11.556   9.120   4.514
 3356SOL    HW211902  11.612   9.142   4.375
 3357SOL     OW11903  13.608  13.473   5.677
 3357SOL    HW111904  13.623  13.529   5.754
 3357SOL    HW211905  13.524  13.503   5.642
 3358SOL     OW11906  13.033   8.598   1.796
 3358SOL    HW111907  13.082   8.665   1.845
 3358SOL    HW211908  13.088   8.581   1.719
 3359SOL     OW11909   0.605  13.777   3.612
 3359SOL    HW111910   0.671  13.720   3.572
 3359SOL    HW211911   0.554  13.810   3.538
 3360SOL     OW11912  13.614   2.143   0.514
 3360SOL    HW111913  13.629   2.092   0.594
 3360SOL    HW211914  13.664   2.098   0.446
 3361SOL     OW11915   8.721   1.717   2.654
 3361SOL    HW111916   8.632   1.719   2.689
 3361SOL    HW211917   8.775   1.756   2.722
 3362SOL     OW11918   0.100  10.644  12.330
 3362SOL    HW111919   0.119  10.618  12.240
 3362SOL    HW211920   0.014  10.606  12.348
 3363SOL     OW11921  12.675   9.449  13.278
 3363SOL    HW111922  12.595   9.458  13.330
 3363SOL    HW211923  12.668   9.363  13.238
 3364SOL     OW11924   8.174   5.407   5.417
 3364SOL    HW111925   8.152   5.330   5.469
 3364SOL    HW211926   8.090   5.444   5.392
 3365SOL     OW11927  12.665   5.833   4.775
 3365SOL    HW111928  12.693   5.890   4.703
 3365SOL    HW211929  12.614   5.889   4.832
 3366SOL     OW11930  11.884   4.236   9.362
 3366SOL    HW111931  11.942   4.309   9.383
 3366SOL    HW211932  11.796   4.268   9.382
 3367SOL     OW11933  13.767  10.181   0.040
 3367SOL    HW111934  13.755  10.264  14.872
 3367SOL    HW211935  13.845  10.142  14.878
 3368SOL     OW11936   4.333   2.535  11.865
 3368SOL    HW111937   4.281   2.487  11.802
 3368SOL    HW211938   4.272   2.558  11.935
 3369SOL     OW11939   4.039   7.907   5.587
 3369SOL    HW111940   4.115   7.957   5.616
 3369SOL    HW211941   4.051   7.821   5.628
 3370SOL     OW11942   6.610   7.334  13.297
 3370SOL    HW111943   6.580   7.334  13.388
 3370SOL    HW211944   6.654   7.249  13.287
 3371SOL     OW11945   9.961  11.941  10.805
 3371SOL    HW111946  10.009  11.912  10.883
 3371SOL    HW211947  10.001  12.025  10.783
 3372SOL     OW11948  14.849   0.478   3.180
 3372SOL    HW111949  14.777   0.480   3.243
 3372SOL    HW211950  14.807   0.452   3.098
 3373SOL     OW11951   2.869  11.362   4.459
 3373SOL    HW111952   2.803  11.420   4.498
 3373SOL    HW211953   2.818  11.296   4.412
 3374SOL     OW11954   4.001   7.169  12.220
 3374SOL    HW111955   4.058   7.191  12.146
 3374SOL    HW211956   4.058   7.177  12.296
 3375SOL     OW11957  14.121   0.152   6.312
 3375SOL    HW111958  14.044   0.098   6.328
 3375SOL    HW211959  14.126   0.210   6.388
 3376SOL     OW11960   6.085  10.083   2.398
 3376SOL    HW111961   6.032  10.149   2.442
 3376SOL    HW211962   6.164  10.129   2.370
 3377SOL     OW11963   3.301  13.053   4.242
 3377SOL    HW111964   3.239  13.125   4.257
 3377SOL    HW211965   3.349  13.046   4.325
 3378SOL     OW11966   7.264   8.451   6.193
 3378SOL    HW111967   7.172   8.449   6.169
 3378SOL    HW211968   7.296   8.363   6.174
 3379SOL     OW11969  13.850   4.255   7.065
 3379SOL    HW111970  13.808   4.304   6.994
 3379SOL    HW211971  13.830   4.163   7.046
 3380SOL     OW11972   7.786   8.325  12.153
 3380SOL    HW111973   7.749   8.364  12.233
 3380SOL    HW211974   7.724   8.350  12.084
 3381SOL     OW11975   0.444  14.399  13.048
 3381SOL    HW111976   0.392  14.328  13.009
 3381SOL    HW211977   0.531  14.390  13.010
 3382SOL     OW11978  10.416   7.009  12.904
 3382SOL    HW111979  10.493   7.058  12.873
 3382SOL    HW211980  10.402   7.040  12.993
 3383SOL     OW11981   4.622   5.448  13.544
 3383SOL    HW111982   4.703   5.430  13.497
 3383SOL    HW211983   4.553   5.413  13.487
 3384SOL     OW11984   6.675   7.996  12.096
 3384SOL    HW111985   6.752   8.050  12.118
 3384SOL    HW211986   6.629   7.985  12.179
 3385SOL     OW11987   8.201   7.863   5.340
 3385SOL    HW111988   8.213   7.927   5.410
 3385SOL    HW211989   8.128   7.808   5.370
 3386SOL     OW11990   3.504  10.131  10.857
 3386SOL    HW111991   3.507  10.112  10.950
 3386SOL    HW211992   3.586  10.096  10.822
 3387SOL     OW11993   6.195   4.153   8.487
 3387SOL    HW111994   6.111   4.109   8.497
 3387SOL    HW211995   6.173   4.238   8.448
 3388SOL     OW11996  12.953   1.557   2.111
 3388SOL    HW111997  12.970   1.490   2.044
 3388SOL    HW211998  12.859   1.574   2.105
 3389SOL     OW11999   6.931   3.650  12.348
 3389SOL    HW112000   7.025   3.646  12.364
 3389SOL    HW212001   6.922   3.699  12.267
 3390SOL     OW12002   7.395  10.035   4.421
 3390SOL    HW112003   7.384   9.981   4.499
 3390SOL    HW212004   7.464   9.992   4.371
 3391SOL     OW12005   9.123   4.048  11.530
 3391SOL    HW112006   9.134   4.055  11.625
 3391SOL    HW212007   9.125   3.954  11.513
 3392SOL     OW12008   1.952   5.547  10.102
 3392SOL    HW112009   2.037   5.564  10.060
 3392SOL    HW212010   1.918   5.633  10.124
 3393SOL     OW12011   7.959   5.436   1.727
 3393SOL    HW112012   7.952   5.501   1.797
 3393SOL    HW212013   7.900   5.469   1.658
 3394SOL     OW12014  11.715  13.118   0.064
 3394SOL    HW112015  11.803  13.120   0.100
 3394SOL    HW212016  11.697  13.208   0.038
 3395SOL     OW12017   5.091   3.776   8.459
 3395SOL    HW112018   5.100   3.779   8.364
 3395SOL    HW212019   5.006   3.816   8.476
 3396SOL     OW12020   6.156   3.970   9.203
 3396SOL    HW112021   6.234   3.932   9.242
 3396SOL    HW212022   6.121   3.901   9.147
 3397SOL     OW12023  11.472   1.947   7.304
 3397SOL    HW112024  11.551   1.924   7.256
 3397SOL    HW212025  11.408   1.972   7.236
 3398SOL     OW12026  10.700   9.817   2.019
 3398SOL    HW112027  10.694   9.912   2.019
 3398SOL    HW212028  10.793   9.799   2.029
 3399SOL     OW12029  14.487   0.055   1.341
 3399SOL    HW112030  14.484  14.840   1.324
 3399SOL    HW212031  14.580   0.075   1.352
 3400SOL     OW12032   3.280   1.867   7.775
 3400SOL    HW112033   3.275   1.826   7.689
 3400SOL    HW212034   3.250   1.957   7.761
 3401SOL     OW12035   3.850  14.589   2.189
 3401SOL    HW112036   3.892  14.638   2.260
 3401SOL    HW212037   3.824  14.655   2.126
 3402SOL     OW12038   7.959   2.907  11.169
 3402SOL    HW112039   8.009   2.976  11.213
 3402SOL    HW212040   7.983   2.915  11.077
 3403SOL     OW12041  13.897   8.841   2.938
 3403SOL    HW112042  13.838   8.882   2.875
 3403SOL    HW212043  13.929   8.913   2.992
 3404SOL     OW12044   8.138   2.406   5.630
 3404SOL    HW112045   8.071   2.346   5.664
 3404SOL    HW212046   8.188   2.432   5.707
 3405SOL     OW12047   7.400  13.369  11.505
 3405SOL    HW112048   7.307  13.348  11.515
 3405SOL    HW212049   7.410  13.389  11.412
 3406SOL     OW12050   9.939   3.410   9.762
 3406SOL    HW112051   9.964   3.472   9.830
 3406SOL    HW212052   9.992   3.333   9.780
 3407SOL     OW12053   6.790   0.938   0.543
 3407SOL    HW112054   6.849   1.004   0.505
 3407SOL    HW212055   6.814   0.857   0.498
 3408SOL     OW12056  14.365   6.984  12.922
 3408SOL    HW112057  14.449   6.976  12.967
 3408SOL    HW212058  14.373   7.064  12.870
 3409SOL     OW12059   1.374  10.570   3.361
 3409SOL    HW112060   1.364  10.582   3.266
 3409SOL    HW212061   1.469  10.567   3.375
 3410SOL     OW12062   4.704   3.941  12.336
 3410SOL    HW112063   4.694   3.933  12.431
 3410SOL    HW212064   4.683   4.032  12.318
 3411SOL     OW12065   9.062  12.002  11.479
 3411SOL    HW112066   9.113  11.946  11.420
 3411SOL    HW212067   8.978  12.013  11.435
 3412SOL     OW12068   8.465   0.618   1.138
 3412SOL    HW112069   8.509   0.619   1.053
 3412SOL    HW212070   8.510   0.548   1.187
 3413SOL     OW12071   2.583   3.995   0.285
 3413SOL    HW112072   2.612   4.008   0.195
 3413SOL    HW212073   2.541   4.078   0.309
 3414SOL     OW12074  11.614   9.442   6.816
 3414SOL    HW112075  11.541   9.384   6.839
 3414SOL    HW212076  11.642   9.480   6.899
 3415SOL     OW12077  13.497   0.568  12.073
 3415SOL    HW112078  13.546   0.650  12.078
 3415SOL    HW212079  13.405   0.594  12.075
 3416SOL     OW12080  13.104   0.599  12.424
 3416SOL    HW112081  13.011   0.619  12.428
 3416SOL    HW212082  13.133   0.601  12.516
 3417SOL     OW12083  13.562   4.155   4.845
 3417SOL    HW112084  13.539   4.227   4.904
 3417SOL    HW212085  13.556   4.193   4.757
 3418SOL     OW12086   7.489   2.535   7.964
 3418SOL    HW112087   7.458   2.607   7.909
 3418SOL    HW212088   7.504   2.575   8.050
 3419SOL     OW12089  11.471  10.703  12.419
 3419SOL    HW112090  11.470  10.612  12.388
 3419SOL    HW212091  11.378  10.727  12.426
 3420SOL     OW12092   5.242  13.064   8.914
 3420SOL    HW112093   5.313  13.124   8.891
 3420SOL    HW212094   5.171  13.121   8.944
 3421SOL     OW12095   0.573  11.601   8.476
 3421SOL    HW112096   0.502  11.617   8.539
 3421SOL    HW212097   0.585  11.685   8.432
 3422SOL     OW12098  10.338  11.178   5.164
 3422SOL    HW112099  10.330  11.104   5.105
 3422SOL    HW212100  10.261  11.174   5.220
 3423SOL     OW12101   3.706   8.201  11.540
 3423SOL    HW112102   3.722   8.278  11.484
 3423SOL    HW212103   3.790   8.156  11.543
 3424SOL     OW12104   2.274  13.192  12.873
 3424SOL    HW112105   2.301  13.194  12.781
 3424SOL    HW212106   2.285  13.101  12.899
 3425SOL     OW12107   9.698   6.295   4.723
 3425SOL    HW112108   9.684   6.212   4.677
 3425SOL    HW212109   9.650   6.360   4.671
 3426SOL     OW12110   8.236   7.734   0.052
 3426SOL    HW112111   8.172   7.788   0.099
 3426SOL    HW212112   8.311   7.728   0.112
 3427SOL     OW12113  13.161   6.685  11.340
 3427SOL    HW112114  13.109   6.664  11.262
 3427SOL    HW212115  13.116   6.760  11.379
 3428SOL     OW12116   6.736   1.874   8.984
 3428SOL    HW112117   6.726   1.788   8.943
 3428SOL    HW212118   6.708   1.861   9.075
 3429SOL     OW12119   2.791   5.430   2.160
 3429SOL    HW112120   2.766   5.514   2.122
 3429SOL    HW212121   2.878   5.446   2.198
 3430SOL     OW12122  12.898   4.076   0.319
 3430SOL    HW112123  12.867   4.114   0.401
 3430SOL    HW212124  12.848   3.995   0.310
 3431SOL     OW12125   7.305   4.348   1.313
 3431SOL    HW112126   7.324   4.378   1.224
 3431SOL    HW212127   7.386   4.305   1.341
 3432SOL     OW12128   4.764   8.614  14.735
 3432SOL    HW112129   4.782   8.656  14.651
 3432SOL    HW212130   4.844   8.566  14.755
 3433SOL     OW12131   3.052  14.436   5.843
 3433SOL    HW112132   2.965  14.457   5.809
 3433SOL    HW212133   3.100  14.404   5.767
 3434SOL     OW12134  10.783   8.762  10.935
 3434SOL    HW112135  10.847   8.809  10.880
 3434SOL    HW212136  10.741   8.700  10.875
 3435SOL     OW12137   4.298   1.742   2.399
 3435SOL    HW112138   4.365   1.790   2.448
 3435SOL    HW212139   4.348   1.684   2.341
 3436SOL     OW12140   2.678   2.696  10.219
 3436SOL    HW112141   2.679   2.786  10.186
 3436SOL    HW212142   2.762   2.686  10.263
 3437SOL     OW12143  13.295   0.311   5.666
 3437SOL    HW112144  13.309   0.231   5.615
 3437SOL    HW212145  13.235   0.363   5.613
 3438SOL     OW12146  11.618   7.437   7.710
 3438SOL    HW112147  11.613   7.465   7.801
 3438SOL    HW212148  11.540   7.384   7.696
 3439SOL     OW12149   9.574   7.676   4.600
 3439SOL    HW112150   9.506   7.741   4.580
 3439SOL    HW212151   9.542   7.595   4.560
 3440SOL     OW12152  14.343   7.066   5.490
 3440SOL    HW112153  14.368   6.994   5.548
 3440SOL    HW212154  14.392   7.141   5.523
 3441SOL     OW12155  12.852   4.737   6.012
 3441SOL    HW112156  12.847   4.696   6.099
 3441SOL    HW212157  12.767   4.719   5.972
 3442SOL     OW12158  13.084   5.525   9.706
 3442SOL    HW112159  13.023   5.477   9.761
 3442SOL    HW212160  13.066   5.617   9.724
 3443SOL     OW12161  14.467   4.532   3.968
 3443SOL    HW112162  14.405   4.593   3.929
 3443SOL    HW212163  14.461   4.549   4.062
 3444SOL     OW12164   1.602  11.449   4.587
 3444SOL    HW112165   1.564  11.436   4.674
 3444SOL    HW212166   1.561  11.382   4.533
 3445SOL     OW12167   6.456   0.381   9.059
 3445SOL    HW112168   6.484   0.384   9.151
 3445SOL    HW212169   6.534   0.408   9.010
 3446SOL     OW12170   8.209   0.052  14.649
 3446SOL    HW112171   8.256   0.120  14.602
 3446SOL    HW212172   8.205   0.084  14.739
 3447SOL     OW12173   0.511   1.771   6.879
 3447SOL    HW112174   0.422   1.748   6.853
 3447SOL    HW212175   0.564   1.752   6.801
 3448SOL     OW12176  10.938   2.648   0.392
 3448SOL    HW112177  10.993   2.611   0.323
 3448SOL    HW212178  10.941   2.584   0.462
 3449SOL     OW12179   0.095   8.854  13.913
 3449SOL    HW112180   0.121   8.796  13.842
 3449SOL    HW212181   0.009   8.822  13.940
 3450SOL     OW12182   4.887   5.338  10.543
 3450SOL    HW112183   4.964   5.288  10.569
 3450SOL    HW212184   4.825   5.326  10.615
 3451SOL     OW12185   6.892   5.862   8.568
 3451SOL    HW112186   6.802   5.845   8.539
 3451SOL    HW212187   6.903   5.807   8.646
 3452SOL     OW12188   1.808   5.787   1.736
 3452SOL    HW112189   1.769   5.759   1.819
 3452SOL    HW212190   1.764   5.869   1.715
 3453SOL     OW12191   5.010   9.676  11.266
 3453SOL    HW112192   4.974   9.653  11.181
 3453SOL    HW212193   5.098   9.708  11.248
 3454SOL     OW12194   3.053   1.279   7.778
 3454SOL    HW112195   3.042   1.358   7.726
 3454SOL    HW212196   3.088   1.310   7.862
 3455SOL     OW12197  12.374   5.010  11.769
 3455SOL    HW112198  12.315   5.085  11.774
 3455SOL    HW212199  12.353   4.969  11.685
 3456SOL     OW12200  14.584   7.919  12.508
 3456SOL    HW112201  14.538   8.001  12.527
 3456SOL    HW212202  14.515   7.859  12.479
 3457SOL     OW12203   3.956  11.625   0.836
 3457SOL    HW112204   4.050  11.631   0.854
 3457SOL    HW212205   3.950  11.593   0.746
 3458SOL     OW12206   0.690   5.786  13.654
 3458SOL    HW112207   0.675   5.754  13.565
 3458SOL    HW212208   0.622   5.853  13.667
 3459SOL     OW12209  13.036   6.401  14.304
 3459SOL    HW112210  13.096   6.331  14.279
 3459SOL    HW212211  13.064   6.426  14.392
 3460SOL     OW12212   5.590   3.733   3.148
 3460SOL    HW112213   5.668   3.788   3.136
 3460SOL    HW212214   5.517   3.794   3.145
 3461SOL     OW12215   6.767   3.102  13.327
 3461SOL    HW112216   6.745   3.194  13.336
 3461SOL    HW212217   6.830   3.098  13.255
 3462SOL     OW12218  11.019  11.359   9.103
 3462SOL    HW112219  11.052  11.449   9.109
 3462SOL    HW212220  10.935  11.368   9.058
 3463SOL     OW12221   5.238  10.261   7.991
 3463SOL    HW112222   5.202  10.350   7.984
 3463SOL    HW212223   5.316  10.271   8.046
 3464SOL     OW12224   2.771   8.183  13.274
 3464SOL    HW112225   2.822   8.257  13.306
 3464SOL    HW212226   2.684   8.218  13.258
 3465SOL     OW12227   2.363  10.293   6.350
 3465SOL    HW112228   2.408  10.214   6.320
 3465SOL    HW212229   2.380  10.357   6.280
 3466SOL     OW12230   5.942  10.312   5.252
 3466SOL    HW112231   5.950  10.266   5.336
 3466SOL    HW212232   5.868  10.270   5.209
 3467SOL     OW12233   7.628   6.786  12.800
 3467SOL    HW112234   7.608   6.880  12.802
 3467SOL    HW212235   7.619   6.757  12.890
 3468SOL     OW12236   6.948   4.394   8.734
 3468SOL    HW112237   6.874   4.361   8.683
 3468SOL    HW212238   6.995   4.451   8.673
 3469SOL     OW12239  10.300   2.554   6.132
 3469SOL    HW112240  10.302   2.647   6.155
 3469SOL    HW212241  10.209   2.528   6.145
 3470SOL     OW12242  14.702   0.096  11.469
 3470SOL    HW112243  14.701   0.073  11.376
 3470SOL    HW212244  14.793   0.120  11.486
 3471SOL     OW12245   9.291   1.584   9.816
 3471SOL    HW112246   9.351   1.596   9.890
 3471SOL    HW212247   9.342   1.539   9.749
 3472SOL     OW12248   8.564   1.638   5.382
 3472SOL    HW112249   8.624   1.600   5.318
 3472SOL    HW212250   8.534   1.719   5.341
 3473SOL     OW12251   9.534  14.066  12.707
 3473SOL    HW112252   9.533  14.093  12.799
 3473SOL    HW212253   9.597  14.125  12.666
 3474SOL     OW12254   5.326  12.318   0.781
 3474SOL    HW112255   5.362  12.236   0.816
 3474SOL    HW212256   5.378  12.387   0.822
 3475SOL     OW12257   5.579   2.481   1.685
 3475SOL    HW112258   5.548   2.477   1.775
 3475SOL    HW212259   5.611   2.392   1.667
 3476SOL     OW12260   1.440   3.493   8.376
 3476SOL    HW112261   1.506   3.507   8.308
 3476SOL    HW212262   1.462   3.407   8.413
 3477SOL     OW12263   3.120   2.117   4.832
 3477SOL    HW112264   3.117   2.209   4.858
 3477SOL    HW212265   3.168   2.117   4.749
 3478SOL     OW12266   3.855   8.622   8.092
 3478SOL    HW112267   3.876   8.689   8.027
 3478SOL    HW212268   3.784   8.572   8.053
 3479SOL     OW12269   0.580   9.167  10.944
 3479SOL    HW112270   0.669   9.200  10.935
 3479SOL    HW212271   0.583   9.105  11.017
 3480SOL     OW12272   3.294   7.177  10.117
 3480SOL    HW112273   3.378   7.219  10.135
 3480SOL    HW212274   3.236   7.249  10.093
 3481SOL     OW12275   1.870  11.701  11.510
 3481SOL    HW112276   1.947  11.668  11.558
 3481SOL    HW212277   1.871  11.651  11.428
 3482SOL     OW12278   3.222  10.669   7.902
 3482SOL    HW112279   3.257  10.676   7.990
 3482SOL    HW212280   3.248  10.750   7.859
 3483SOL     OW12281   8.737   0.636  11.555
 3483SOL    HW112282   8.808   0.658  11.616
 3483SOL    HW212283   8.764   0.554  11.515
 3484SOL     OW12284   2.308  14.296   2.479
 3484SOL    HW112285   2.355  14.293   2.395
 3484SOL    HW212286   2.230  14.243   2.465
 3485SOL     OW12287   1.337   8.733  12.632
 3485SOL    HW112288   1.291   8.670  12.576
 3485SOL    HW212289   1.304   8.715  12.720
 3486SOL     OW12290   3.217  14.785   2.756
 3486SOL    HW112291   3.286  14.753   2.814
 3486SOL    HW212292   3.151  14.820   2.815
 3487SOL     OW12293  12.749  10.037  14.661
 3487SOL    HW112294  12.840  10.052  14.637
 3487SOL    HW212295  12.727  10.110  14.720
 3488SOL     OW12296   1.878   7.351   6.183
 3488SOL    HW112297   1.829   7.297   6.120
 3488SOL    HW212298   1.904   7.428   6.133
 3489SOL     OW12299   7.235   0.064  13.168
 3489SOL    HW112300   7.238  14.859  13.214
 3489SOL    HW212301   7.141   0.083  13.160
 3490SOL     OW12302   5.251   1.706   5.381
 3490SOL    HW112303   5.156   1.712   5.388
 3490SOL    HW212304   5.268   1.612   5.374
 3491SOL     OW12305   1.037   7.187  12.366
 3491SOL    HW112306   1.089   7.111  12.341
 3491SOL    HW212307   0.971   7.154  12.426
 3492SOL     OW12308   2.038   2.630  12.876
 3492SOL    HW112309   2.096   2.592  12.941
 3492SOL    HW212310   2.090   2.633  12.796
 3493SOL     OW12311  11.842   1.065   3.770
 3493SOL    HW112312  11.766   1.014   3.797
 3493SOL    HW212313  11.845   1.138   3.832
 3494SOL     OW12314   7.960   5.266  13.168
 3494SOL    HW112315   8.039   5.239  13.121
 3494SOL    HW212316   7.900   5.192  13.159
 3495SOL     OW12317   1.685  10.304   3.421
 3495SOL    HW112318   1.735  10.383   3.401
 3495SOL    HW212319   1.692  10.250   3.342
 3496SOL     OW12320  14.549   2.644  14.528
 3496SOL    HW112321  14.526   2.561  14.486
 3496SOL    HW212322  14.468   2.694  14.526
 3497SOL     OW12323   2.319   0.812   1.517
 3497SOL    HW112324   2.357   0.778   1.436
 3497SOL    HW212325   2.393   0.813   1.578
 3498SOL     OW12326   2.071   7.936  13.941
 3498SOL    HW112327   2.100   7.995  14.010
 3498SOL    HW212328   2.036   7.860  13.988
 3499SOL     OW12329   2.599   0.895   0.812
 3499SOL    HW112330   2.660   0.956   0.770
 3499SOL    HW212331   2.513   0.929   0.791
 3500SOL     OW12332  13.209   1.351   9.200
 3500SOL    HW112333  13.284   1.397   9.236
 3500SOL    HW212334  13.226   1.348   9.106
 3501SOL     OW12335  12.336   2.286   9.571
 3501SOL    HW112336  12.418   2.305   9.617
 3501SOL    HW212337  12.363   2.235   9.494
 3502SOL     OW12338   8.315   4.511   7.167
 3502SOL    HW112339   8.245   4.516   7.103
 3502SOL    HW212340   8.391   4.480   7.117
 3503SOL     OW12341   8.840   1.461  14.474
 3503SOL    HW112342   8.816   1.382  14.523
 3503SOL    HW212343   8.897   1.509  14.534
 3504SOL     OW12344  13.726  11.339   2.801
 3504SOL    HW112345  13.729  11.244   2.811
 3504SOL    HW212346  13.769  11.357   2.718
 3505SOL     OW12347  14.780   8.139   3.392
 3505SOL    HW112348  14.865   8.153   3.434
 3505SOL    HW212349  14.793   8.166   3.301
 3506SOL     OW12350   8.641   9.939   9.024
 3506SOL    HW112351   8.609   9.859   8.983
 3506SOL    HW212352   8.586   9.952   9.101
 3507SOL     OW12353   9.492   8.396   1.342
 3507SOL    HW112354   9.575   8.359   1.371
 3507SOL    HW212355   9.480   8.475   1.396
 3508SOL     OW12356   4.464   9.330  12.666
 3508SOL    HW112357   4.490   9.333  12.758
 3508SOL    HW212358   4.381   9.282  12.665
 3509SOL     OW12359   0.128   5.581  10.126
 3509SOL    HW112360   0.152   5.533  10.205
 3509SOL    HW212361   0.073   5.653  10.158
 3510SOL     OW12362   9.064  14.220   4.873
 3510SOL    HW112363   8.982  14.170   4.877
 3510SOL    HW212364   9.052  14.278   4.799
 3511SOL     OW12365   8.962  13.070  14.773
 3511SOL    HW112366   8.990  12.979  14.787
 3511SOL    HW212367   8.868  13.069  14.789
 3512SOL     OW12368   3.702  11.804   0.526
 3512SOL    HW112369   3.741  11.876   0.576
 3512SOL    HW212370   3.691  11.733   0.590
 3513SOL     OW12371  11.275  13.452   9.960
 3513SOL    HW112372  11.214  13.465  10.033
 3513SOL    HW212373  11.223  13.407   9.893
 3514SOL     OW12374   5.764   9.989   1.984
 3514SOL    HW112375   5.683   9.953   1.948
 3514SOL    HW212376   5.830   9.971   1.918
 3515SOL     OW12377  12.124   3.113   3.665
 3515SOL    HW112378  12.050   3.128   3.606
 3515SOL    HW212379  12.116   3.181   3.732
 3516SOL     OW12380   3.429  10.405  10.911
 3516SOL    HW112381   3.341  10.387  10.944
 3516SOL    HW212382   3.463  10.320  10.885
 3517SOL     OW12383  10.428   7.601  14.564
 3517SOL    HW112384  10.491   7.598  14.492
 3517SOL    HW212385  10.348   7.635  14.525
 3518SOL     OW12386   8.824   8.726   1.357
 3518SOL    HW112387   8.891   8.669   1.320
 3518SOL    HW212388   8.748   8.713   1.301
 3519SOL     OW12389   4.043   1.544  13.415
 3519SOL    HW112390   3.968   1.514  13.467
 3519SOL    HW212391   4.099   1.589  13.479
 3520SOL     OW12392  12.207  14.318  14.599
 3520SOL    HW112393  12.181  14.227  14.607
 3520SOL    HW212394  12.162  14.349  14.520
 3521SOL     OW12395   2.362   0.452  14.482
 3521SOL    HW112396   2.271   0.436  14.459
 3521SOL    HW212397   2.358   0.520  14.550
 3522SOL     OW12398   4.062  14.300  11.295
 3522SOL    HW112399   4.061  14.289  11.390
 3522SOL    HW212400   4.155  14.305  11.272
 3523SOL     OW12401   6.310   7.331   6.795
 3523SOL    HW112402   6.240   7.297   6.739
 3523SOL    HW212403   6.315   7.424   6.773
 3524SOL     OW12404  14.781   2.894   5.001
 3524SOL    HW112405  14.730   2.856   5.073
 3524SOL    HW212406  14.719   2.902   4.929
 3525SOL     OW12407   8.672   5.322   1.327
 3525SOL    HW112408   8.716   5.402   1.298
 3525SOL    HW212409   8.693   5.316   1.421
 3526SOL     OW12410   9.436  12.413  10.541
 3526SOL    HW112411   9.430  12.318  10.550
 3526SOL    HW212412   9.355  12.438  10.496
 3527SOL     OW12413   4.689   0.837   0.219
 3527SOL    HW112414   4.705   0.931   0.227
 3527SOL    HW212415   4.772   0.797   0.244
 3528SOL     OW12416   7.891   2.895   4.466
 3528SOL    HW112417   7.804   2.862   4.445
 3528SOL    HW212418   7.915   2.849   4.547
 3529SOL     OW12419   6.520   0.490  11.398
 3529SOL    HW112420   6.596   0.511  11.452
 3529SOL    HW212421   6.557   0.462  11.314
 3530SOL     OW12422   1.082   3.558   1.619
 3530SOL    HW112423   1.164   3.529   1.658
 3530SOL    HW212424   1.064   3.642   1.660
 3531SOL     OW12425   1.383   9.635   4.040
 3531SOL    HW112426   1.458   9.686   4.009
 3531SOL    HW212427   1.371   9.663   4.131
 3532SOL     OW12428   9.353  10.077  12.329
 3532SOL    HW112429   9.333  10.006  12.391
 3532SOL    HW212430   9.267  10.104  12.295
 3533SOL     OW12431   7.960  11.953  11.682
 3533SOL    HW112432   7.929  11.868  11.711
 3533SOL    HW212433   8.052  11.938  11.658
 3534SOL     OW12434   9.680   2.328   5.464
 3534SOL    HW112435   9.676   2.286   5.550
 3534SOL    HW212436   9.598   2.376   5.457
 3535SOL     OW12437  13.144  10.231   8.096
 3535SOL    HW112438  13.099  10.147   8.107
 3535SOL    HW212439  13.236  10.206   8.085
 3536SOL     OW12440  13.115  12.342   9.733
 3536SOL    HW112441  13.117  12.356   9.638
 3536SOL    HW212442  13.162  12.260   9.746
 3537SOL     OW12443   1.082   8.742   6.822
 3537SOL    HW112444   1.081   8.649   6.801
 3537SOL    HW212445   0.990   8.766   6.833
 3538SOL     OW12446   1.249  12.874   8.011
 3538SOL    HW112447   1.180  12.878   7.944
 3538SOL    HW212448   1.327  12.845   7.964
 3539SOL     OW12449   2.143   0.963   8.003
 3539SOL    HW112450   2.071   1.019   7.975
 3539SOL    HW212451   2.222   1.016   7.989
 3540SOL     OW12452  10.432  12.328  12.374
 3540SOL    HW112453  10.515  12.300  12.336
 3540SOL    HW212454  10.402  12.398  12.317
 3541SOL     OW12455   7.073  13.676   2.728
 3541SOL    HW112456   6.979  13.661   2.743
 3541SOL    HW212457   7.116  13.600   2.766
 3542SOL     OW12458   7.791  10.965  11.974
 3542SOL    HW112459   7.749  10.881  11.987
 3542SOL    HW212460   7.752  11.023  12.039
 3543SOL     OW12461   2.962   5.263   4.321
 3543SOL    HW112462   3.038   5.318   4.338
 3543SOL    HW212463   2.997   5.174   4.322
 3544SOL     OW12464   7.358  10.317  13.660
 3544SOL    HW112465   7.275  10.298  13.702
 3544SOL    HW212466   7.350  10.279  13.572
 3545SOL     OW12467   1.311   3.370   6.531
 3545SOL    HW112468   1.337   3.344   6.442
 3545SOL    HW212469   1.265   3.294   6.566
 3546SOL     OW12470  11.538   3.885  14.469
 3546SOL    HW112471  11.575   3.952  14.527
 3546SOL    HW212472  11.613   3.855  14.417
 3547SOL     OW12473  10.189   6.667   4.386
 3547SOL    HW112474  10.282   6.645   4.375
 3547SOL    HW212475  10.181   6.753   4.346
 3548SOL     OW12476   7.849   9.962  14.757
 3548SOL    HW112477   7.923  10.006  14.715
 3548SOL    HW212478   7.772  10.003  14.718
 3549SOL     OW12479   6.199   7.708   4.925
 3549SOL    HW112480   6.129   7.750   4.975
 3549SOL    HW212481   6.218   7.627   4.973
 3550SOL     OW12482   4.769   2.266  14.073
 3550SOL    HW112483   4.708   2.194  14.059
 3550SOL    HW212484   4.722   2.328  14.128
 3551SOL     OW12485   1.638  14.647   0.790
 3551SOL    HW112486   1.633  14.692   0.874
 3551SOL    HW212487   1.573  14.691   0.735
 3552SOL     OW12488   1.879   7.507   1.421
 3552SOL    HW112489   1.948   7.483   1.359
 3552SOL    HW212490   1.801   7.461   1.389
 3553SOL     OW12491   0.370   8.458   7.843
 3553SOL    HW112492   0.375   8.365   7.864
 3553SOL    HW212493   0.407   8.465   7.754
 3554SOL     OW12494   0.574  13.705  13.251
 3554SOL    HW112495   0.534  13.626  13.213
 3554SOL    HW212496   0.528  13.777  13.208
 3555SOL     OW12497   1.979   0.379  12.899
 3555SOL    HW112498   1.924   0.338  12.833
 3555SOL    HW212499   2.026   0.306  12.940
 3556SOL     OW12500   2.870  11.432   4.055
 3556SOL    HW112501   2.811  11.392   4.119
 3556SOL    HW212502   2.862  11.526   4.072
 3557SOL     OW12503  10.314   8.888   6.856
 3557SOL    HW112504  10.248   8.953   6.882
 3557SOL    HW212505  10.293   8.811   6.908
 3558SOL     OW12506   4.322   2.441   2.669
 3558SOL    HW112507   4.251   2.398   2.621
 3558SOL    HW212508   4.294   2.438   2.760
 3559SOL     OW12509   4.915  10.047   8.179
 3559SOL    HW112510   4.955  10.033   8.266
 3559SOL    HW212511   4.822  10.058   8.197
 3560SOL     OW12512   7.212   4.760   2.917
 3560SOL    HW112513   7.293   4.709   2.909
 3560SOL    HW212514   7.193   4.758   3.011
 3561SOL     OW12515   1.638   7.549   0.877
 3561SOL    HW112516   1.635   7.483   0.808
 3561SOL    HW212517   1.548   7.557   0.907
 3562SOL     OW12518   8.301   2.792   6.522
 3562SOL    HW112519   8.329   2.701   6.522
 3562SOL    HW212520   8.250   2.802   6.602
 3563SOL     OW12521   5.749  12.253   9.161
 3563SOL    HW112522   5.762  12.291   9.247
 3563SOL    HW212523   5.785  12.164   9.168
 3564SOL     OW12524   5.600  10.111   9.844
 3564SOL    HW112525   5.681  10.115   9.894
 3564SOL    HW212526   5.581  10.202   9.823
 3565SOL     OW12527   4.726   6.477  12.723
 3565SOL    HW112528   4.795   6.411  12.713
 3565SOL    HW212529   4.700   6.470  12.815
 3566SOL     OW12530  12.408  12.233   3.545
 3566SOL    HW112531  12.348  12.166   3.578
 3566SOL    HW212532  12.374  12.315   3.582
 3567SOL     OW12533   5.343   1.774  12.015
 3567SOL    HW112534   5.323   1.700  11.958
 3567SOL    HW212535   5.396   1.832  11.961
 3568SOL     OW12536  13.359  11.304  13.277
 3568SOL    HW112537  13.399  11.270  13.357
 3568SOL    HW212538  13.304  11.376  13.306
 3569SOL     OW12539  13.355  14.533   5.170
 3569SOL    HW112540  13.292  14.479   5.122
 3569SOL    HW212541  13.317  14.542   5.258
 3570SOL     OW12542   6.932  11.693  12.882
 3570SOL    HW112543   6.940  11.604  12.849
 3570SOL    HW212544   6.843  11.720  12.858
 3571SOL     OW12545  12.879  13.758  11.782
 3571SOL    HW112546  12.865  13.836  11.835
 3571SOL    HW212547  12.935  13.788  11.710
 3572SOL     OW12548   5.555   3.270  14.487
 3572SOL    HW112549   5.597   3.210  14.549
 3572SOL    HW212550   5.601   3.255  14.404
 3573SOL     OW12551   2.841  13.520   8.009
 3573SOL    HW112552   2.758  13.480   8.034
 3573SOL    HW212553   2.829  13.544   7.917
 3574SOL     OW12554   1.959  10.513   0.787
 3574SOL    HW112555   1.897  10.458   0.835
 3574SOL    HW212556   2.044  10.494   0.829
 3575SOL     OW12557  10.099   9.264   2.789
 3575SOL    HW112558  10.114   9.177   2.752
 3575SOL    HW212559  10.103   9.323   2.714
 3576SOL     OW12560   7.078  13.974   9.467
 3576SOL    HW112561   7.070  13.902   9.404
 3576SOL    HW212562   7.023  13.947   9.541
 3577SOL     OW12563  11.182  10.060   2.610
 3577SOL    HW112564  11.247  10.049   2.541
 3577SOL    HW212565  11.156   9.971   2.634
 3578SOL     OW12566   0.307   5.345   6.799
 3578SOL    HW112567   0.362   5.271   6.825
 3578SOL    HW212568   0.359   5.391   6.733
 3579SOL     OW12569   9.571   7.289   6.078
 3579SOL    HW112570   9.486   7.334   6.083
 3579SOL    HW212571   9.622   7.326   6.150
 3580SOL     OW12572   1.625  11.858  10.634
 3580SOL    HW112573   1.568  11.903  10.696
 3580SOL    HW212574   1.583  11.872  10.549
 3581SOL     OW12575   2.904  13.317  13.984
 3581SOL    HW112576   2.932  13.326  14.075
 3581SOL    HW212577   2.973  13.359  13.933
 3582SOL     OW12578   4.627   9.120  12.541
 3582SOL    HW112579   4.548   9.173  12.544
 3582SOL    HW212580   4.671   9.137  12.624
 3583SOL     OW12581   2.839  11.905  11.287
 3583SOL    HW112582   2.910  11.923  11.226
 3583SOL    HW212583   2.779  11.849  11.238
 3584SOL     OW12584   5.752   2.638   1.521
 3584SOL    HW112585   5.693   2.573   1.559
 3584SOL    HW212586   5.704   2.721   1.528
 3585SOL     OW12587  14.501   0.303   5.280
 3585SOL    HW112588  14.430   0.366   5.290
 3585SOL    HW212589  14.580   0.350   5.306
 3586SOL     OW12590   2.592   3.631   9.216
 3586SOL    HW112591   2.641   3.608   9.295
 3586SOL    HW212592   2.659   3.637   9.148
 3587SOL     OW12593   2.575   9.254   9.094
 3587SOL    HW112594   2.574   9.320   9.025
 3587SOL    HW212595   2.667   9.248   9.119
 3588SOL     OW12596   3.487   7.936   5.577
 3588SOL    HW112597   3.554   8.002   5.595
 3588SOL    HW212598   3.517   7.893   5.497
 3589SOL     OW12599  10.908   3.064   0.238
 3589SOL    HW112600  10.952   3.149   0.244
 3589SOL    HW212601  10.843   3.077   0.168
 3590SOL     OW12602   1.806  11.182   3.928
 3590SOL    HW112603   1.783  11.205   4.018
 3590SOL    HW212604   1.899  11.160   3.931
 3591SOL     OW12605   4.615   7.650   0.518
 3591SOL    HW112606   4.701   7.660   0.558
 3591SOL    HW212607   4.563   7.602   0.583
 3592SOL     OW12608   5.564   3.922   5.423
 3592SOL    HW112609   5.571   3.931   5.518
 3592SOL    HW212610   5.534   3.832   5.409
 3593SOL     OW12611  12.722  11.047   9.060
 3593SOL    HW112612  12.706  11.055   8.966
 3593SOL    HW212613  12.800  10.992   9.066
 3594SOL     OW12614  12.225  14.761   5.404
 3594SOL    HW112615  12.319  14.748   5.390
 3594SOL    HW212616  12.183  14.706   5.339
 3595SOL     OW12617   8.037   5.655   9.794
 3595SOL    HW112618   8.044   5.656   9.699
 3595SOL    HW212619   7.959   5.707   9.813
 3596SOL     OW12620  13.446   5.454   5.617
 3596SOL    HW112621  13.457   5.519   5.548
 3596SOL    HW212622  13.419   5.505   5.693
 3597SOL     OW12623   8.780   3.166   3.440
 3597SOL    HW112624   8.715   3.141   3.375
 3597SOL    HW212625   8.864   3.142   3.400
 3598SOL     OW12626   7.613  11.015   4.285
 3598SOL    HW112627   7.538  11.053   4.239
 3598SOL    HW212628   7.690  11.049   4.240
 3599SOL     OW12629  14.864   8.456   4.646
 3599SOL    HW112630   0.033   8.535   4.671
 3599SOL    HW212631  14.797   8.487   4.585
 3600SOL     OW12632   5.491   3.558  14.573
 3600SOL    HW112633   5.418   3.501  14.595
 3600SOL    HW212634   5.550   3.503  14.522
 3601SOL     OW12635   0.306   4.368   4.009
 3601SOL    HW112636   0.337   4.361   3.918
 3601SOL    HW212637   0.330   4.456   4.036
 3602SOL     OW12638   4.677   5.263   5.090
 3602SOL    HW112639   4.755   5.286   5.041
 3602SOL    HW212640   4.678   5.322   5.165
 3603SOL     OW12641  13.701   2.210   4.929
 3603SOL    HW112642  13.744   2.255   4.857
 3603SOL    HW212643  13.764   2.142   4.956
 3604SOL     OW12644  10.495   1.914  13.706
 3604SOL    HW112645  10.529   1.832  13.742
 3604SOL    HW212646  10.408   1.924  13.746
 3605SOL     OW12647   9.455  14.346  14.793
 3605SOL    HW112648   9.398  14.422  14.778
 3605SOL    HW212649   9.459  14.337   0.009
 3606SOL     OW12650   5.425   9.534   0.347
 3606SOL    HW112651   5.397   9.492   0.429
 3606SOL    HW212652   5.343   9.548   0.299
 3607SOL     OW12653   0.048   7.773  12.258
 3607SOL    HW112654   0.093   7.801  12.338
 3607SOL    HW212655   0.098   7.697  12.228
 3608SOL     OW12656   4.393   9.574   8.666
 3608SOL    HW112657   4.397   9.574   8.571
 3608SOL    HW212658   4.397   9.481   8.690
 3609SOL     OW12659  12.136  12.402  12.432
 3609SOL    HW112660  12.202  12.466  12.406
 3609SOL    HW212661  12.173  12.318  12.407
 3610SOL     OW12662  12.425   4.061   9.918
 3610SOL    HW112663  12.400   4.042  10.009
 3610SOL    HW212664  12.471   4.144   9.923
 3611SOL     OW12665   2.319   0.875   7.377
 3611SOL    HW112666   2.279   0.788   7.377
 3611SOL    HW212667   2.398   0.865   7.324
 3612SOL     OW12668  11.488   3.840  14.065
 3612SOL    HW112669  11.571   3.867  14.105
 3612SOL    HW212670  11.513   3.779  13.996
 3613SOL     OW12671   1.956   0.256  14.001
 3613SOL    HW112672   1.984   0.267  13.910
 3613SOL    HW212673   1.902   0.334  14.018
 3614SOL     OW12674  13.419   7.364   6.627
 3614SOL    HW112675  13.385   7.396   6.543
 3614SOL    HW212676  13.349   7.308   6.661
 3615SOL     OW12677   7.952   1.461  11.879
 3615SOL    HW112678   8.026   1.455  11.819
 3615SOL    HW212679   7.908   1.542  11.856
 3616SOL     OW12680  10.081   7.442   9.396
 3616SOL    HW112681  10.080   7.346   9.398
 3616SOL    HW212682   9.996   7.467   9.432
 3617SOL     OW12683   3.019  13.375   7.516
 3617SOL    HW112684   3.044  13.466   7.496
 3617SOL    HW212685   3.097  13.338   7.557
 3618SOL     OW12686  14.415  14.361  13.283
 3618SOL    HW112687  14.385  14.284  13.332
 3618SOL    HW212688  14.358  14.365  13.207
 3619SOL     OW12689  10.056  14.712  11.154
 3619SOL    HW112690  10.103  14.721  11.237
 3619SOL    HW212691  10.058  14.799  11.115
 3620SOL     OW12692  11.243   1.974   3.812
 3620SOL    HW112693  11.245   1.954   3.905
 3620SOL    HW212694  11.269   1.892   3.769
 3621SOL     OW12695  14.059  11.977  12.336
 3621SOL    HW112696  13.986  11.941  12.387
 3621SOL    HW212697  14.112  11.901  12.312
 3622SOL     OW12698  12.255   5.607   1.824
 3622SOL    HW112699  12.284   5.574   1.909
 3622SOL    HW212700  12.230   5.698   1.842
 3623SOL     OW12701   0.155   0.132  13.393
 3623SOL    HW112702   0.104   0.061  13.431
 3623SOL    HW212703   0.146   0.120  13.298
 3624SOL     OW12704   1.263   5.240   4.056
 3624SOL    HW112705   1.281   5.235   4.150
 3624SOL    HW212706   1.227   5.153   4.034
 3625SOL     OW12707   2.692  13.867   8.121
 3625SOL    HW112708   2.689  13.927   8.047
 3625SOL    HW212709   2.668  13.921   8.197
 3626SOL     OW12710   5.178   8.913  13.376
 3626SOL    HW112711   5.221   8.867  13.448
 3626SOL    HW212712   5.085   8.896  13.388
 3627SOL     OW12713   2.756   0.244  14.657
 3627SOL    HW112714   2.778   0.304  14.586
 3627SOL    HW212715   2.718   0.168  14.612
 3628SOL     OW12716   0.374   9.735   7.845
 3628SOL    HW112717   0.341   9.805   7.789
 3628SOL    HW212718   0.300   9.675   7.854
 3629SOL     OW12719   1.831   2.007   9.658
 3629SOL    HW112720   1.868   2.090   9.687
 3629SOL    HW212721   1.814   1.959   9.738
 3630SOL     OW12722   6.290   7.590   5.302
 3630SOL    HW112723   6.200   7.602   5.334
 3630SOL    HW212724   6.328   7.525   5.361
 3631SOL     OW12725   2.909   2.833   7.376
 3631SOL    HW112726   2.930   2.914   7.423
 3631SOL    HW212727   2.988   2.813   7.326
 3632SOL     OW12728  13.118   9.596  10.005
 3632SOL    HW112729  13.213   9.589   9.997
 3632SOL    HW212730  13.096   9.677   9.959
 3633SOL     OW12731   9.754   0.895   3.311
 3633SOL    HW112732   9.821   0.890   3.244
 3633SOL    HW212733   9.675   0.924   3.265
 3634SOL     OW12734  11.638   1.029   8.566
 3634SOL    HW112735  11.626   0.937   8.542
 3634SOL    HW212736  11.725   1.051   8.532
 3635SOL     OW12737   5.950  12.857  12.150
 3635SOL    HW112738   5.928  12.810  12.231
 3635SOL    HW212739   6.022  12.915  12.174
 3636SOL     OW12740   1.145  10.775   6.947
 3636SOL    HW112741   1.170  10.825   7.025
 3636SOL    HW212742   1.112  10.692   6.982
 3637SOL     OW12743   8.977   7.655   7.300
 3637SOL    HW112744   8.984   7.735   7.353
 3637SOL    HW212745   8.894   7.664   7.254
 3638SOL     OW12746  14.286   4.859   9.760
 3638SOL    HW112747  14.247   4.793   9.703
 3638SOL    HW212748  14.363   4.889   9.712
 3639SOL     OW12749   2.313  14.420   6.826
 3639SOL    HW112750   2.237  14.390   6.877
 3639SOL    HW212751   2.283  14.499   6.782
 3640SOL     OW12752   7.558  14.558  12.309
 3640SOL    HW112753   7.652  14.543  12.318
 3640SOL    HW212754   7.546  14.650  12.333
 3641SOL     OW12755   7.850  14.355  13.152
 3641SOL    HW112756   7.775  14.403  13.186
 3641SOL    HW212757   7.823  14.264  13.152
 3642SOL     OW12758   0.566   6.775   2.369
 3642SOL    HW112759   0.623   6.781   2.446
 3642SOL    HW212760   0.484   6.816   2.397
 3643SOL     OW12761   7.049  10.762   6.035
 3643SOL    HW112762   7.070  10.813   5.957
 3643SOL    HW212763   7.110  10.794   6.102
 3644SOL     OW12764   7.549   9.541   3.121
 3644SOL    HW112765   7.464   9.578   3.097
 3644SOL    HW212766   7.606   9.562   3.047
 3645SOL     OW12767   0.536  12.821   4.993
 3645SOL    HW112768   0.470  12.870   5.042
 3645SOL    HW212769   0.539  12.865   4.908
 3646SOL     OW12770   0.837  13.540   9.830
 3646SOL    HW112771   0.857  13.625   9.870
 3646SOL    HW212772   0.790  13.562   9.750
 3647SOL     OW12773   6.458   5.311   0.620
 3647SOL    HW112774   6.405   5.269   0.552
 3647SOL    HW212775   6.492   5.237   0.671
 3648SOL     OW12776   0.988   6.996   2.805
 3648SOL    HW112777   0.966   7.074   2.754
 3648SOL    HW212778   0.964   7.019   2.895
 3649SOL     OW12779   3.342   9.305   5.232
 3649SOL    HW112780   3.381   9.392   5.246
 3649SOL    HW212781   3.391   9.269   5.158
 3650SOL     OW12782   1.310  12.906  11.691
 3650SOL    HW112783   1.376  12.837  11.690
 3650SOL    HW212784   1.321  12.950  11.775
 3651SOL     OW12785   6.216   2.743   8.045
 3651SOL    HW112786   6.254   2.671   8.095
 3651SOL    HW212787   6.218   2.818   8.105
 3652SOL     OW12788  13.113  12.074  12.854
 3652SOL    HW112789  13.091  12.061  12.946
 3652SOL    HW212790  13.032  12.107  12.814
 3653SOL     OW12791  14.592  12.930  11.920
 3653SOL    HW112792  14.687  12.917  11.909
 3653SOL    HW212793  14.572  13.007  11.867
 3654SOL     OW12794   7.099   9.491  12.660
 3654SOL    HW112795   7.070   9.416  12.712
 3654SOL    HW212796   7.021   9.546  12.653
 3655SOL     OW12797   0.703   3.536   3.566
 3655SOL    HW112798   0.676   3.612   3.515
 3655SOL    HW212799   0.727   3.471   3.500
 3656SOL     OW12800   8.617  12.546   3.358
 3656SOL    HW112801   8.639  12.599   3.282
 3656SOL    HW212802   8.674  12.470   3.352
 3657SOL     OW12803   0.371   7.051  11.924
 3657SOL    HW112804   0.450   7.102  11.944
 3657SOL    HW212805   0.316   7.060  12.001
 3658SOL     OW12806   6.315   7.021  14.183
 3658SOL    HW112807   6.240   6.961  14.179
 3658SOL    HW212808   6.348   7.011  14.273
 3659SOL     OW12809  10.294   3.542  10.824
 3659SOL    HW112810  10.258   3.561  10.737
 3659SOL    HW212811  10.383   3.577  10.821
 3660SOL     OW12812  10.815  13.449   3.962
 3660SOL    HW112813  10.865  13.530   3.953
 3660SOL    HW212814  10.745  13.472   4.024
 3661SOL     OW12815   4.629  11.770   9.546
 3661SOL    HW112816   4.718  11.789   9.578
 3661SOL    HW212817   4.574  11.776   9.625
 3662SOL     OW12818   1.418  14.697   4.300
 3662SOL    HW112819   1.465  14.622   4.263
 3662SOL    HW212820   1.486  14.761   4.321
 3663SOL     OW12821  13.217   0.893   7.702
 3663SOL    HW112822  13.136   0.887   7.754
 3663SOL    HW212823  13.229   0.988   7.690
 3664SOL     OW12824  12.875   9.132   0.843
 3664SOL    HW112825  12.957   9.161   0.802
 3664SOL    HW212826  12.853   9.201   0.905
 3665SOL     OW12827   3.113  13.820  12.252
 3665SOL    HW112828   3.022  13.839  12.229
 3665SOL    HW212829   3.122  13.726  12.234
 3666SOL     OW12830  13.644   7.542  12.030
 3666SOL    HW112831  13.606   7.521  11.944
 3666SOL    HW212832  13.717   7.481  12.039
 3667SOL     OW12833  14.642   8.865  11.348
 3667SOL    HW112834  14.629   8.856  11.253
 3667SOL    HW212835  14.736   8.880  11.358
 3668SOL     OW12836   7.610   0.496   0.502
 3668SOL    HW112837   7.663   0.486   0.423
 3668SOL    HW212838   7.655   0.443   0.568
 3669SOL     OW12839   6.415   3.569  13.635
 3669SOL    HW112840   6.411   3.561  13.730
 3669SOL    HW212841   6.465   3.493  13.606
 3670SOL     OW12842   9.292   5.846  11.528
 3670SOL    HW112843   9.322   5.919  11.583
 3670SOL    HW212844   9.369   5.788  11.523
 3671SOL     OW12845   6.372   8.390  11.086
 3671SOL    HW112846   6.372   8.335  11.008
 3671SOL    HW212847   6.463   8.422  11.094
 3672SOL     OW12848  10.217   2.872   3.371
 3672SOL    HW112849  10.151   2.933   3.403
 3672SOL    HW212850  10.279   2.863   3.443
 3673SOL     OW12851  10.233   2.904   1.308
 3673SOL    HW112852  10.164   2.880   1.245
 3673SOL    HW212853  10.196   2.977   1.357
 3674SOL     OW12854   1.871  13.025  13.031
 3674SOL    HW112855   1.780  13.032  13.059
 3674SOL    HW212856   1.909  13.111  13.048
 3675SOL     OW12857  11.587  13.922  13.160
 3675SOL    HW112858  11.494  13.909  13.180
 3675SOL    HW212859  11.588  13.950  13.068
 3676SOL     OW12860   8.237   4.604   4.863
 3676SOL    HW112861   8.249   4.551   4.942
 3676SOL    HW212862   8.168   4.665   4.886
 3677SOL     OW12863  10.138   0.626   4.879
 3677SOL    HW112864  10.188   0.701   4.847
 3677SOL    HW212865  10.158   0.621   4.973
 3678SOL     OW12866  11.560   7.170   6.997
 3678SOL    HW112867  11.585   7.101   7.058
 3678SOL    HW212868  11.551   7.125   6.912
 3679SOL     OW12869   5.535   2.294   0.455
 3679SOL    HW112870   5.456   2.328   0.495
 3679SOL    HW212871   5.538   2.334   0.368
 3680SOL     OW12872  10.104   9.079   9.768
 3680SOL    HW112873  10.154   8.998   9.769
 3680SOL    HW212874  10.014   9.052   9.751
 3681SOL     OW12875   7.622   7.344   3.200
 3681SOL    HW112876   7.571   7.361   3.121
 3681SOL    HW212877   7.567   7.377   3.272
 3682SOL     OW12878   2.484   6.928   8.561
 3682SOL    HW112879   2.438   6.900   8.639
 3682SOL    HW212880   2.558   6.979   8.593
 3683SOL     OW12881   1.965  10.879  12.919
 3683SOL    HW112882   1.996  10.925  12.996
 3683SOL    HW212883   1.911  10.808  12.954
 3684SOL     OW12884   2.648   0.764   4.847
 3684SOL    HW112885   2.701   0.695   4.888
 3684SOL    HW212886   2.698   0.790   4.770
 3685SOL     OW12887  11.900  14.393   7.887
 3685SOL    HW112888  11.946  14.310   7.880
 3685SOL    HW212889  11.896  14.411   7.981
 3686SOL     OW12890   2.359   7.567   8.173
 3686SOL    HW112891   2.342   7.629   8.102
 3686SOL    HW212892   2.418   7.614   8.232
 3687SOL     OW12893  13.776   6.276   2.946
 3687SOL    HW112894  13.766   6.259   3.040
 3687SOL    HW212895  13.849   6.221   2.919
 3688SOL     OW12896   6.602   1.234   3.331
 3688SOL    HW112897   6.648   1.318   3.335
 3688SOL    HW212898   6.662   1.172   3.372
 3689SOL     OW12899   9.453   4.741   1.707
 3689SOL    HW112900   9.404   4.700   1.636
 3689SOL    HW212901   9.529   4.780   1.664
 3690SOL     OW12902  12.926   6.814   1.472
 3690SOL    HW112903  12.942   6.736   1.526
 3690SOL    HW212904  12.996   6.812   1.407
 3691SOL     OW12905   4.589   2.561  12.833
 3691SOL    HW112906   4.510   2.609  12.858
 3691SOL    HW212907   4.598   2.492  12.898
 3692SOL     OW12908  12.241   9.882  14.558
 3692SOL    HW112909  12.222   9.924  14.642
 3692SOL    HW212910  12.329   9.910  14.536
 3693SOL     OW12911   9.253  13.921   4.251
 3693SOL    HW112912   9.248  13.913   4.156
 3693SOL    HW212913   9.240  14.015   4.268
 3694SOL     OW12914  11.595   4.810   2.634
 3694SOL    HW112915  11.502   4.810   2.657
 3694SOL    HW212916  11.633   4.739   2.686
 3695SOL     OW12917   3.073  13.528   8.506
 3695SOL    HW112918   3.067  13.479   8.425
 3695SOL    HW212919   3.156  13.577   8.499
 3696SOL     OW12920  12.149  14.041  12.051
 3696SOL    HW112921  12.067  13.999  12.078
 3696SOL    HW212922  12.155  14.023  11.958
 3697SOL     OW12923   9.158   0.818   2.754
 3697SOL    HW112924   9.089   0.780   2.808
 3697SOL    HW212925   9.186   0.896   2.801
 3698SOL     OW12926   9.911  12.005   9.428
 3698SOL    HW112927   9.999  12.041   9.442
 3698SOL    HW212928   9.855  12.083   9.418
 3699SOL     OW12929  12.675   7.149  12.447
 3699SOL    HW112930  12.694   7.157  12.541
 3699SOL    HW212931  12.734   7.212  12.405
 3700SOL     OW12932  14.275  12.491   7.886
 3700SOL    HW112933  14.346  12.555   7.894
 3700SOL    HW212934  14.293  12.426   7.954
 3701SOL     OW12935   4.205   1.247  11.809
 3701SOL    HW112936   4.297   1.247  11.784
 3701SOL    HW212937   4.204   1.211  11.898
 3702SOL     OW12938   0.298   2.409  12.923
 3702SOL    HW112939   0.262   2.353  12.992
 3702SOL    HW212940   0.391   2.415  12.942
 3703SOL     OW12941   9.497   8.106   4.064
 3703SOL    HW112942   9.589   8.106   4.037
 3703SOL    HW212943   9.463   8.022   4.034
 3704SOL     OW12944   3.988  11.134   5.535
 3704SOL    HW112945   4.040  11.188   5.477
 3704SOL    HW212946   3.983  11.184   5.617
 3705SOL     OW12947  10.397   3.811   8.467
 3705SOL    HW112948  10.397   3.897   8.509
 3705SOL    HW212949  10.385   3.749   8.540
 3706SOL     OW12950  10.640  14.309   8.824
 3706SOL    HW112951  10.630  14.316   8.729
 3706SOL    HW212952  10.580  14.375   8.859
 3707SOL     OW12953   0.817  10.564   1.530
 3707SOL    HW112954   0.835  10.473   1.507
 3707SOL    HW212955   0.799  10.607   1.446
 3708SOL     OW12956   3.414  14.816  14.122
 3708SOL    HW112957   3.397  14.850  14.210
 3708SOL    HW212958   3.462   0.007  14.079
 3709SOL     OW12959  10.126   4.913   1.387
 3709SOL    HW112960  10.056   4.850   1.403
 3709SOL    HW212961  10.202   4.876   1.431
 3710SOL     OW12962  14.677   5.080   0.093
 3710SOL    HW112963  14.678   5.053   0.185
 3710SOL    HW212964  14.590   5.055   0.061
 3711SOL     OW12965  10.415   4.915   2.434
 3711SOL    HW112966  10.437   4.886   2.346
 3711SOL    HW212967  10.496   4.952   2.468
 3712SOL     OW12968   7.986  14.565  10.123
 3712SOL    HW112969   8.064  14.600  10.081
 3712SOL    HW212970   7.918  14.630  10.107
 3713SOL     OW12971  12.416  14.306  10.829
 3713SOL    HW112972  12.413  14.387  10.778
 3713SOL    HW212973  12.351  14.319  10.898
 3714SOL     OW12974  12.381   4.497   9.052
 3714SOL    HW112975  12.411   4.543   9.131
 3714SOL    HW212976  12.420   4.410   9.059
 3715SOL     OW12977   8.991  10.419   1.479
 3715SOL    HW112978   8.940  10.412   1.560
 3715SOL    HW212979   9.081  10.403   1.506
 3716SOL     OW12980  13.028   4.724   3.611
 3716SOL    HW112981  13.123   4.736   3.605
 3716SOL    HW212982  13.016   4.661   3.682
 3717SOL     OW12983   7.268  13.494   0.060
 3717SOL    HW112984   7.360  13.520   0.067
 3717SOL    HW212985   7.221  13.577   0.051
 3718SOL     OW12986   9.853   3.620   4.541
 3718SOL    HW112987   9.896   3.545   4.500
 3718SOL    HW212988   9.922   3.685   4.551
 3719SOL     OW12989  12.666   7.418  10.613
 3719SOL    HW112990  12.633   7.368  10.538
 3719SOL    HW212991  12.715   7.354  10.664
 3720SOL     OW12992  11.968  13.370   0.768
 3720SOL    HW112993  11.937  13.286   0.802
 3720SOL    HW212994  12.061  13.357   0.751
 3721SOL     OW12995   3.780   7.919   5.651
 3721SOL    HW112996   3.872   7.921   5.628
 3721SOL    HW212997   3.751   8.010   5.644
 3722SOL     OW12998  13.741   0.772  13.596
 3722SOL    HW112999  13.688   0.719  13.656
 3722SOL    HW213000  13.683   0.787  13.521
 3723SOL     OW13001   6.041   9.461   5.720
 3723SOL    HW113002   5.983   9.391   5.689
 3723SOL    HW213003   6.120   9.415   5.750
 3724SOL     OW13004  11.123   7.443   7.392
 3724SOL    HW113005  11.050   7.439   7.331
 3724SOL    HW213006  11.102   7.380   7.461
 3725SOL     OW13007   8.780  10.428   4.887
 3725SOL    HW113008   8.719  10.501   4.898
 3725SOL    HW213009   8.849  10.445   4.952
 3726SOL     OW13010   6.119   3.765  14.014
 3726SOL    HW113011   6.200   3.814  14.025
 3726SOL    HW213012   6.073   3.774  14.098
 3727SOL     OW13013  12.630   6.671   4.892
 3727SOL    HW113014  12.572   6.741   4.860
 3727SOL    HW213015  12.680   6.645   4.815
 3728SOL     OW13016  11.289  12.883   7.978
 3728SOL    HW113017  11.202  12.845   7.964
 3728SOL    HW213018  11.281  12.936   8.057
 3729SOL     OW13019   9.322  12.947  14.590
 3729SOL    HW113020   9.371  12.933  14.671
 3729SOL    HW213021   9.257  12.876  14.589
 3730SOL     OW13022   0.536   9.693  13.440
 3730SOL    HW113023   0.559   9.679  13.348
 3730SOL    HW213024   0.440   9.700  13.440
 3731SOL     OW13025  13.331   2.053  12.361
 3731SOL    HW113026  13.408   2.092  12.318
 3731SOL    HW213027  13.345   2.071  12.454
 3732SOL     OW13028   3.120   6.648   8.186
 3732SOL    HW113029   3.143   6.640   8.093
 3732SOL    HW213030   3.186   6.707   8.222
 3733SOL     OW13031   1.820   4.161  10.541
 3733SOL    HW113032   1.869   4.199  10.613
 3733SOL    HW213033   1.862   4.196  10.462
 3734SOL     OW13034   8.632  10.050   6.311
 3734SOL    HW113035   8.718  10.093   6.302
 3734SOL    HW213036   8.623  10.035   6.405
 3735SOL     OW13037   4.307   1.573   8.648
 3735SOL    HW113038   4.301   1.480   8.669
 3735SOL    HW213039   4.386   1.603   8.694
 3736SOL     OW13040   1.501   0.532   7.315
 3736SOL    HW113041   1.592   0.542   7.340
 3736SOL    HW213042   1.459   0.492   7.392
 3737SOL     OW13043   1.722  10.675  10.285
 3737SOL    HW113044   1.708  10.606  10.351
 3737SOL    HW213045   1.813  10.702  10.297
 3738SOL     OW13046  10.651   5.244   0.539
 3738SOL    HW113047  10.713   5.173   0.552
 3738SOL    HW213048  10.702   5.324   0.557
 3739SOL     OW13049  13.828  11.425   4.441
 3739SOL    HW113050  13.788  11.338   4.443
 3739SOL    HW213051  13.873  11.428   4.357
 3740SOL     OW13052   8.320   3.314   9.447
 3740SOL    HW113053   8.259   3.242   9.458
 3740SOL    HW213054   8.313   3.365   9.528
 3741SOL     OW13055   1.401   5.428   5.371
 3741SOL    HW113056   1.409   5.350   5.426
 3741SOL    HW213057   1.475   5.483   5.399
 3742SOL     OW13058  10.614   4.247  12.347
 3742SOL    HW113059  10.692   4.263  12.400
 3742SOL    HW213060  10.560   4.189  12.402
 3743SOL     OW13061   8.197   4.545   3.504
 3743SOL    HW113062   8.190   4.473   3.567
 3743SOL    HW213063   8.288   4.542   3.475
 3744SOL     OW13064   6.323   3.579  14.856
 3744SOL    HW113065   6.379   3.649   0.011
 3744SOL    HW213066   6.306   3.604  14.765
 3745SOL     OW13067   1.121  14.394  13.613
 3745SOL    HW113068   1.148  14.480  13.646
 3745SOL    HW213069   1.036  14.410  13.572
 3746SOL     OW13070  11.737   0.191   4.612
 3746SOL    HW113071  11.667   0.135   4.645
 3746SOL    HW213072  11.712   0.211   4.522
 3747SOL     OW13073  14.122   9.046   3.654
 3747SOL    HW113074  14.063   9.089   3.592
 3747SOL    HW213075  14.167   8.979   3.602
 3748SOL     OW13076  13.053   0.657  11.833
 3748SOL    HW113077  12.978   0.632  11.779
 3748SOL    HW213078  13.015   0.701  11.909
 3749SOL     OW13079   7.059   4.773  12.475
 3749SOL    HW113080   6.974   4.797  12.513
 3749SOL    HW213081   7.041   4.761  12.382
 3750SOL     OW13082  14.726   8.217  11.847
 3750SOL    HW113083  14.681   8.233  11.931
 3750SOL    HW213084  14.750   8.125  11.851
 3751SOL     OW13085   4.502   6.847   6.127
 3751SOL    HW113086   4.471   6.775   6.072
 3751SOL    HW213087   4.561   6.805   6.190
 3752SOL     OW13088   5.117  13.593   3.521
 3752SOL    HW113089   5.172  13.517   3.504
 3752SOL    HW213090   5.171  13.668   3.499
 3753SOL     OW13091   9.200   5.325  10.451
 3753SOL    HW113092   9.284   5.338  10.408
 3753SOL    HW213093   9.208   5.371  10.535
 3754SOL     OW13094  14.287  14.618  12.961
 3754SOL    HW113095  14.364  14.574  12.924
 3754SOL    HW213096  14.308  14.630  13.053
 3755SOL     OW13097   8.075  11.517  14.642
 3755SOL    HW113098   8.165  11.490  14.627
 3755SOL    HW213099   8.032  11.440  14.679
 3756SOL     OW13100   3.108   2.721   4.508
 3756SOL    HW113101   3.039   2.752   4.567
 3756SOL    HW213102   3.163   2.666   4.563
 3757SOL     OW13103   5.053   2.014  13.821
 3757SOL    HW113104   4.961   2.040  13.823
 3757SOL    HW213105   5.101   2.094  13.843
 3758SOL     OW13106   3.016  11.073  11.652
 3758SOL    HW113107   3.094  11.023  11.630
 3758SOL    HW213108   3.032  11.103  11.742
 3759SOL     OW13109  10.014  14.223   5.232
 3759SOL    HW113110  10.032  14.264   5.147
 3759SOL    HW213111  10.036  14.130   5.219
 3760SOL     OW13112   9.795   5.754   4.649
 3760SOL    HW113113   9.757   5.682   4.699
 3760SOL    HW213114   9.826   5.714   4.567
 3761SOL     OW13115   2.293  12.929   0.934
 3761SOL    HW113116   2.275  12.945   1.026
 3761SOL    HW213117   2.236  12.856   0.910
 3762SOL     OW13118  13.736   7.307   1.711
 3762SOL    HW113119  13.770   7.224   1.678
 3762SOL    HW213120  13.691   7.346   1.637
 3763SOL     OW13121   3.733  11.186   9.080
 3763SOL    HW113122   3.706  11.101   9.116
 3763SOL    HW213123   3.653  11.238   9.080
 3764SOL     OW13124  12.892  12.947   9.148
 3764SOL    HW113125  12.943  12.886   9.096
 3764SOL    HW213126  12.830  12.891   9.196
 3765SOL     OW13127   6.470   4.473   3.803
 3765SOL    HW113128   6.457   4.567   3.810
 3765SOL    HW213129   6.487   4.444   3.892
 3766SOL     OW13130  13.357   7.403   5.197
 3766SOL    HW113131  13.373   7.488   5.237
 3766SOL    HW213132  13.402   7.408   5.112
 3767SOL     OW13133   6.452  12.496   7.744
 3767SOL    HW113134   6.459  12.561   7.674
 3767SOL    HW213135   6.362  12.504   7.775
 3768SOL     OW13136   0.280   7.045   3.755
 3768SOL    HW113137   0.246   7.072   3.670
 3768SOL    HW213138   0.213   7.074   3.817
 3769SOL     OW13139   1.503   1.839   9.840
 3769SOL    HW113140   1.441   1.767   9.833
 3769SOL    HW213141   1.546   1.842   9.754
 3770SOL     OW13142   8.174   0.753  14.602
 3770SOL    HW113143   8.081   0.755  14.584
 3770SOL    HW213144   8.215   0.786  14.522
 3771SOL     OW13145   4.268  13.725  13.214
 3771SOL    HW113146   4.297  13.708  13.304
 3771SOL    HW213147   4.340  13.773  13.174
 3772SOL     OW13148   2.562   1.116   4.921
 3772SOL    HW113149   2.529   1.027   4.909
 3772SOL    HW213150   2.525   1.144   5.005
 3773SOL     OW13151   0.409  10.829  10.219
 3773SOL    HW113152   0.441  10.896  10.280
 3773SOL    HW213153   0.374  10.879  10.145
 3774SOL     OW13154   2.977   4.932  13.186
 3774SOL    HW113155   2.965   4.917  13.279
 3774SOL    HW213156   2.924   5.010  13.167
 3775SOL     OW13157   0.255  11.714   0.436
 3775SOL    HW113158   0.247  11.625   0.470
 3775SOL    HW213159   0.288  11.766   0.510
 3776SOL     OW13160  14.823   9.472   1.191
 3776SOL    HW113161   0.019   9.494   1.246
 3776SOL    HW213162  14.767   9.419   1.247
 3777SOL     OW13163  11.741   2.104  11.358
 3777SOL    HW113164  11.732   2.091  11.453
 3777SOL    HW213165  11.823   2.153  11.349
 3778SOL     OW13166  14.622  13.780   7.788
 3778SOL    HW113167  14.544  13.795   7.734
 3778SOL    HW213168  14.693  13.823   7.741
 3779SOL     OW13169   1.027   3.413  10.709
 3779SOL    HW113170   0.959   3.466  10.668
 3779SOL    HW213171   1.090   3.395  10.639
 3780SOL     OW13172   5.872  13.770  10.318
 3780SOL    HW113173   5.864  13.798  10.409
 3780SOL    HW213174   5.793  13.804  10.276
 3781SOL     OW13175   1.525  11.195   8.895
 3781SOL    HW113176   1.593  11.201   8.962
 3781SOL    HW213177   1.505  11.285   8.871
 3782SOL     OW13178   6.080  13.241  12.052
 3782SOL    HW113179   6.155  13.217  11.997
 3782SOL    HW213180   6.068  13.167  12.110
 3783SOL     OW13181   2.374   0.317   9.261
 3783SOL    HW113182   2.402   0.359   9.180
 3783SOL    HW213183   2.398   0.225   9.251
 3784SOL     OW13184  13.838  12.808   4.994
 3784SOL    HW113185  13.750  12.810   5.031
 3784SOL    HW213186  13.872  12.722   5.019
 3785SOL     OW13187   7.921   3.867   6.171
 3785SOL    HW113188   8.003   3.841   6.130
 3785SOL    HW213189   7.915   3.815   6.251
 3786SOL     OW13190  12.738   0.795   5.235
 3786SOL    HW113191  12.785   0.745   5.301
 3786SOL    HW213192  12.750   0.887   5.261
 3787SOL     OW13193   6.388   7.829  14.572
 3787SOL    HW113194   6.423   7.891  14.636
 3787SOL    HW213195   6.366   7.752  14.624
 3788SOL     OW13196   5.627  13.981  12.632
 3788SOL    HW113197   5.681  14.054  12.662
 3788SOL    HW213198   5.636  13.915  12.700
 3789SOL     OW13199   0.027   8.227   1.552
 3789SOL    HW113200   0.096   8.280   1.512
 3789SOL    HW213201  14.869   8.178   1.480
 3790SOL     OW13202   0.444   1.423   5.097
 3790SOL    HW113203   0.458   1.491   5.163
 3790SOL    HW213204   0.512   1.439   5.031
 3791SOL     OW13205   8.136  11.042   6.423
 3791SOL    HW113206   8.220  11.016   6.462
 3791SOL    HW213207   8.147  11.025   6.330
 3792SOL     OW13208  13.673   8.407   4.198
 3792SOL    HW113209  13.674   8.369   4.286
 3792SOL    HW213210  13.660   8.332   4.140
 3793SOL     OW13211  12.053  12.088   6.991
 3793SOL    HW113212  11.988  12.145   6.949
 3793SOL    HW213213  12.132  12.141   6.994
 3794SOL     OW13214  11.497  11.123   6.009
 3794SOL    HW113215  11.489  11.030   5.988
 3794SOL    HW213216  11.409  11.150   6.035
 3795SOL     OW13217   6.942   9.035  13.954
 3795SOL    HW113218   6.869   8.993  14.000
 3795SOL    HW213219   6.960   8.977  13.880
 3796SOL     OW13220   9.505  11.442  14.113
 3796SOL    HW113221   9.595  11.461  14.137
 3796SOL    HW213222   9.456  11.448  14.196
 3797SOL     OW13223  14.229   4.694   7.070
 3797SOL    HW113224  14.151   4.710   7.121
 3797SOL    HW213225  14.207   4.619   7.014
 3798SOL     OW13226   4.358   6.787   7.003
 3798SOL    HW113227   4.272   6.807   7.039
 3798SOL    HW213228   4.394   6.720   7.061
 3799SOL     OW13229  12.617  12.713   0.069
 3799SOL    HW113230  12.535  12.662   0.071
 3799SOL    HW213231  12.674  12.670   0.132
 3800SOL     OW13232   8.833   7.830   0.927
 3800SOL    HW113233   8.899   7.770   0.891
 3800SOL    HW213234   8.750   7.785   0.913
 3801SOL     OW13235   9.333  11.722   3.441
 3801SOL    HW113236   9.402  11.764   3.390
 3801SOL    HW213237   9.270  11.792   3.460
 3802SOL     OW13238   0.902   6.031   1.437
 3802SOL    HW113239   0.950   6.071   1.364
 3802SOL    HW213240   0.913   6.093   1.509
 3803SOL     OW13241   4.994   6.779   5.659
 3803SOL    HW113242   4.980   6.858   5.607
 3803SOL    HW213243   5.088   6.762   5.653
 3804SOL     OW13244  11.806   4.807   9.714
 3804SOL    HW113245  11.868   4.816   9.785
 3804SOL    HW213246  11.722   4.834   9.751
 3805SOL     OW13247   0.277   5.532   8.043
 3805SOL    HW113248   0.338   5.550   8.115
 3805SOL    HW213249   0.203   5.488   8.085
 3806SOL     OW13250   1.355  11.467   3.392
 3806SOL    HW113251   1.316  11.380   3.390
 3806SOL    HW213252   1.335  11.505   3.306
 3807SOL     OW13253   2.421  10.256  13.413
 3807SOL    HW113254   2.429  10.246  13.318
 3807SOL    HW213255   2.464  10.340  13.431
 3808SOL     OW13256  14.452   4.099  11.033
 3808SOL    HW113257  14.521   4.040  11.064
 3808SOL    HW213258  14.483   4.129  10.948
 3809SOL     OW13259  10.101   0.742   0.450
 3809SOL    HW113260  10.126   0.829   0.479
 3809SOL    HW213261  10.006   0.748   0.437
 3810SOL     OW13262   6.207   5.322   8.003
 3810SOL    HW113263   6.278   5.385   8.013
 3810SOL    HW213264   6.181   5.300   8.093
 3811SOL     OW13265  10.880  12.508   8.885
 3811SOL    HW113266  10.962  12.557   8.891
 3811SOL    HW213267  10.905  12.417   8.905
 3812SOL     OW13268   5.658   6.940  10.432
 3812SOL    HW113269   5.670   6.941  10.527
 3812SOL    HW213270   5.582   6.882  10.418
 3813SOL     OW13271  14.508   8.339   3.709
 3813SOL    HW113272  14.521   8.375   3.621
 3813SOL    HW213273  14.453   8.403   3.753
 3814SOL     OW13274   6.128  13.020  13.981
 3814SOL    HW113275   6.087  12.938  13.955
 3814SOL    HW213276   6.205  12.994  14.031
 3815SOL     OW13277  12.575  14.222   0.796
 3815SOL    HW113278  12.553  14.275   0.720
 3815SOL    HW213279  12.607  14.285   0.861
 3816SOL     OW13280  14.704  13.534   8.522
 3816SOL    HW113281  14.633  13.523   8.459
 3816SOL    HW213282  14.681  13.613   8.571
 3817SOL     OW13283   3.396   8.893   1.678
 3817SOL    HW113284   3.449   8.813   1.679
 3817SOL    HW213285   3.459   8.964   1.691
 3818SOL     OW13286   3.137  14.309  10.261
 3818SOL    HW113287   3.048  14.277  10.271
 3818SOL    HW213288   3.181  14.285  10.343
 3819SOL     OW13289   3.135  10.740   2.247
 3819SOL    HW113290   3.171  10.823   2.278
 3819SOL    HW213291   3.118  10.690   2.327
 3820SOL     OW13292   7.113  11.730   2.252
 3820SOL    HW113293   7.030  11.742   2.297
 3820SOL    HW213294   7.172  11.795   2.290
 3821SOL     OW13295  11.481  12.678   6.530
 3821SOL    HW113296  11.430  12.745   6.484
 3821SOL    HW213297  11.476  12.601   6.474
 3822SOL     OW13298  13.584   2.125   1.538
 3822SOL    HW113299  13.495   2.096   1.559
 3822SOL    HW213300  13.576   2.220   1.530
 3823SOL     OW13301   3.947   0.653  10.760
 3823SOL    HW113302   3.947   0.647  10.856
 3823SOL    HW213303   3.967   0.744  10.742
 3824SOL     OW13304   4.157   6.574  14.471
 3824SOL    HW113305   4.215   6.565  14.547
 3824SOL    HW213306   4.215   6.606  14.402
 3825SOL     OW13307   9.765  11.469  13.018
 3825SOL    HW113308   9.745  11.459  12.925
 3825SOL    HW213309   9.857  11.446  13.025
 3826SOL     OW13310   5.206  10.395  11.802
 3826SOL    HW113311   5.277  10.448  11.767
 3826SOL    HW213312   5.157  10.366  11.725
 3827SOL     OW13313   6.468  12.944   0.506
 3827SOL    HW113314   6.383  12.909   0.533
 3827SOL    HW213315   6.531  12.897   0.560
 3828SOL     OW13316   9.840   9.997  10.321
 3828SOL    HW113317   9.815  10.004  10.229
 3828SOL    HW213318   9.826   9.904  10.342
 3829SOL     OW13319   5.010   3.759  11.329
 3829SOL    HW113320   4.968   3.833  11.373
 3829SOL    HW213321   4.977   3.762  11.239
 3830SOL     OW13322  12.618   0.758  10.776
 3830SOL    HW113323  12.628   0.781  10.868
 3830SOL    HW213324  12.706   0.766  10.739
 3831SOL     OW13325   3.036   0.193   7.191
 3831SOL    HW113326   2.984   0.120   7.158
 3831SOL    HW213327   2.995   0.271   7.154
 3832SOL     OW13328   5.073   5.856   9.406
 3832SOL    HW113329   5.165   5.845   9.381
 3832SOL    HW213330   5.035   5.769   9.396
 3833SOL     OW13331   0.765  13.298   8.530
 3833SOL    HW113332   0.849  13.277   8.489
 3833SOL    HW213333   0.731  13.213   8.559
 3834SOL     OW13334   9.841   3.644   2.970
 3834SOL    HW113335   9.828   3.662   2.877
 3834SOL    HW213336   9.912   3.580   2.972
 3835SOL     OW13337   6.318  14.016   1.792
 3835SOL    HW113338   6.300  13.994   1.701
 3835SOL    HW213339   6.374  13.945   1.823
 3836SOL     OW13340   8.485  10.690  11.100
 3836SOL    HW113341   8.549  10.758  11.083
 3836SOL    HW213342   8.441  10.718  11.181
 3837SOL     OW13343   4.277   5.497  13.213
 3837SOL    HW113344   4.209   5.560  13.237
 3837SOL    HW213345   4.351   5.520  13.268
 3838SOL     OW13346   1.472   4.881   4.349
 3838SOL    HW113347   1.499   4.790   4.352
 3838SOL    HW213348   1.490   4.914   4.437
 3839SOL     OW13349   1.078   5.913  13.024
 3839SOL    HW113350   1.038   5.994  13.055
 3839SOL    HW213351   1.098   5.929  12.932
 3840SOL     OW13352   8.790   4.391   8.020
 3840SOL    HW113353   8.801   4.435   8.105
 3840SOL    HW213354   8.874   4.402   7.976
 3841SOL     OW13355  14.413  12.882   5.965
 3841SOL    HW113356  14.492  12.828   5.968
 3841SOL    HW213357  14.418  12.926   5.880
 3842SOL     OW13358  13.509   9.602   3.638
 3842SOL    HW113359  13.583   9.631   3.691
 3842SOL    HW213360  13.527   9.634   3.550
 3843SOL     OW13361  12.331   0.629   8.654
 3843SOL    HW113362  12.244   0.594   8.635
 3843SOL    HW213363  12.389   0.584   8.592
 3844SOL     OW13364   4.508   4.604   1.875
 3844SOL    HW113365   4.545   4.689   1.852
 3844SOL    HW213366   4.466   4.574   1.794
 3845SOL     OW13367  13.605   2.709   7.488
 3845SOL    HW113368  13.514   2.683   7.477
 3845SOL    HW213369  13.651   2.668   7.416
 3846SOL     OW13370   9.462  11.508   8.071
 3846SOL    HW113371   9.554  11.505   8.042
 3846SOL    HW213372   9.411  11.497   7.991
 3847SOL     OW13373  12.796   4.021  14.520
 3847SOL    HW113374  12.827   4.071  14.596
 3847SOL    HW213375  12.828   3.932  14.535
 3848SOL     OW13376   2.475   8.745   7.844
 3848SOL    HW113377   2.437   8.662   7.871
 3848SOL    HW213378   2.401   8.799   7.817
 3849SOL     OW13379   7.118  13.083   2.660
 3849SOL    HW113380   7.185  13.070   2.592
 3849SOL    HW213381   7.118  13.178   2.675
 3850SOL     OW13382  13.656   8.355  12.736
 3850SOL    HW113383  13.602   8.318  12.666
 3850SOL    HW213384  13.635   8.448  12.736
 3851SOL     OW13385  11.414   7.746   7.403
 3851SOL    HW113386  11.380   7.780   7.486
 3851SOL    HW213387  11.386   7.810   7.337
 3852SOL     OW13388   9.236  14.604   2.709
 3852SOL    HW113389   9.175  14.674   2.734
 3852SOL    HW213390   9.317  14.624   2.757
 3853SOL     OW13391   5.992   3.841   5.804
 3853SOL    HW113392   6.046   3.813   5.877
 3853SOL    HW213393   5.957   3.926   5.831
 3854SOL     OW13394  11.160   9.310   9.839
 3854SOL    HW113395  11.245   9.331   9.800
 3854SOL    HW213396  11.142   9.220   9.812
 3855SOL     OW13397   3.543  12.160   8.908
 3855SOL    HW113398   3.450  12.144   8.891
 3855SOL    HW213399   3.585  12.155   8.822
 3856SOL     OW13400  14.449   2.731  14.243
 3856SOL    HW113401  14.436   2.707  14.151
 3856SOL    HW213402  14.544   2.725  14.256
 3857SOL     OW13403   0.646  13.604  13.945
 3857SOL    HW113404   0.594  13.527  13.967
 3857SOL    HW213405   0.685  13.583  13.860
 3858SOL     OW13406  11.870   8.811   7.228
 3858SOL    HW113407  11.863   8.894   7.275
 3858SOL    HW213408  11.804   8.755   7.269
 3859SOL     OW13409   1.792   6.207  10.217
 3859SOL    HW113410   1.722   6.256  10.175
 3859SOL    HW213411   1.792   6.237  10.307
 3860SOL     OW13412   2.050   3.470   0.924
 3860SOL    HW113413   2.004   3.525   0.988
 3860SOL    HW213414   1.999   3.389   0.921
 3861SOL     OW13415   6.742   7.494   4.860
 3861SOL    HW113416   6.662   7.443   4.861
 3861SOL    HW213417   6.803   7.442   4.807
 3862SOL     OW13418  14.708   8.655  12.992
 3862SOL    HW113419  14.705   8.697  13.078
 3862SOL    HW213420  14.801   8.652  12.970
 3863SOL     OW13421   9.236  12.222   0.218
 3863SOL    HW113422   9.244  12.142   0.269
 3863SOL    HW213423   9.141  12.237   0.212
 3864SOL     OW13424  13.536   9.445  12.609
 3864SOL    HW113425  13.478   9.468  12.536
 3864SOL    HW213426  13.487   9.468  12.688
 3865SOL     OW13427  10.511   2.843   5.322
 3865SOL    HW113428  10.498   2.819   5.414
 3865SOL    HW213429  10.452   2.917   5.307
 3866SOL     OW13430   1.029   0.909  14.062
 3866SOL    HW113431   1.079   0.964  14.002
 3866SOL    HW213432   1.062   0.821  14.047
 3867SOL     OW13433   3.908  13.438  14.529
 3867SOL    HW113434   3.988  13.386  14.541
 3867SOL    HW213435   3.893  13.480  14.613
 3868SOL     OW13436   4.250   5.373  10.301
 3868SOL    HW113437   4.257   5.467  10.316
 3868SOL    HW213438   4.335   5.337  10.326
 3869SOL     OW13439   2.253   0.693   8.924
 3869SOL    HW113440   2.322   0.736   8.873
 3869SOL    HW213441   2.219   0.762   8.981
 3870SOL     OW13442   3.779   0.860   7.092
 3870SOL    HW113443   3.753   0.890   7.179
 3870SOL    HW213444   3.697   0.833   7.050
 3871SOL     OW13445   4.235   7.491  14.238
 3871SOL    HW113446   4.314   7.531  14.274
 3871SOL    HW213447   4.205   7.553  14.171
 3872SOL     OW13448   8.548  10.739   0.874
 3872SOL    HW113449   8.553  10.823   0.920
 3872SOL    HW213450   8.639  10.714   0.859
 3873SOL     OW13451   2.537   8.485  11.184
 3873SOL    HW113452   2.490   8.429  11.246
 3873SOL    HW213453   2.474   8.554  11.162
 3874SOL     OW13454  11.896  13.916  10.104
 3874SOL    HW113455  11.832  13.960  10.049
 3874SOL    HW213456  11.925  13.841  10.052
 3875SOL     OW13457   1.312   1.658   1.408
 3875SOL    HW113458   1.349   1.584   1.455
 3875SOL    HW213459   1.298   1.725   1.476
 3876SOL     OW13460   5.901   6.798   8.968
 3876SOL    HW113461   5.852   6.792   8.886
 3876SOL    HW213462   5.899   6.892   8.990
 3877SOL     OW13463   5.909  12.632   0.755
 3877SOL    HW113464   5.846  12.703   0.768
 3877SOL    HW213465   5.955  12.655   0.674
 3878SOL     OW13466  10.786   0.526   3.340
 3878SOL    HW113467  10.712   0.586   3.351
 3878SOL    HW213468  10.852   0.559   3.401
 3879SOL     OW13469   3.735  11.553  11.439
 3879SOL    HW113470   3.737  11.475  11.495
 3879SOL    HW213471   3.719  11.626  11.500
 3880SOL     OW13472  14.085   0.470  13.786
 3880SOL    HW113473  14.021   0.510  13.845
 3880SOL    HW213474  14.038   0.398  13.744
 3881SOL     OW13475  14.327  14.311   6.061
 3881SOL    HW113476  14.400  14.318   5.999
 3881SOL    HW213477  14.335  14.223   6.098
 3882SOL     OW13478   4.809   4.155   4.164
 3882SOL    HW113479   4.842   4.076   4.206
 3882SOL    HW213480   4.728   4.175   4.211
 3883SOL     OW13481  14.326  11.936   6.599
 3883SOL    HW113482  14.387  12.005   6.573
 3883SOL    HW213483  14.266  11.927   6.525
 3884SOL     OW13484   0.794  14.874   0.394
 3884SOL    HW113485   0.821  14.854   0.304
 3884SOL    HW213486   0.714  14.823   0.406
 3885SOL     OW13487   7.392   1.305   4.637
 3885SOL    HW113488   7.437   1.383   4.668
 3885SOL    HW213489   7.422   1.294   4.547
 3886SOL     OW13490  10.351  10.729  10.633
 3886SOL    HW113491  10.314  10.643  10.610
 3886SOL    HW213492  10.318  10.746  10.722
 3887SOL     OW13493   4.681   1.643   2.722
 3887SOL    HW113494   4.727   1.600   2.794
 3887SOL    HW213495   4.715   1.600   2.643
 3888SOL     OW13496   4.809   7.419   5.847
 3888SOL    HW113497   4.884   7.473   5.823
 3888SOL    HW213498   4.845   7.350   5.901
 3889SOL     OW13499   2.326   4.220   6.557
 3889SOL    HW113500   2.411   4.191   6.588
 3889SOL    HW213501   2.264   4.182   6.619
 3890SOL     OW13502   4.169  12.410   1.794
 3890SOL    HW113503   4.182  12.496   1.753
 3890SOL    HW213504   4.146  12.352   1.722
 3891SOL     OW13505  10.164   0.318   6.317
 3891SOL    HW113506  10.172   0.349   6.407
 3891SOL    HW213507  10.099   0.376   6.277
 3892SOL     OW13508   3.088   9.207   6.574
 3892SOL    HW113509   3.134   9.150   6.636
 3892SOL    HW213510   3.128   9.293   6.587
 3893SOL     OW13511  12.433  10.845   9.043
 3893SOL    HW113512  12.487  10.910   8.999
 3893SOL    HW213513  12.404  10.786   8.974
 3894SOL     OW13514  12.757   1.747  12.482
 3894SOL    HW113515  12.823   1.816  12.483
 3894SOL    HW213516  12.795   1.677  12.429
 3895SOL     OW13517   4.191   6.972   1.408
 3895SOL    HW113518   4.186   6.876   1.416
 3895SOL    HW213519   4.131   6.992   1.336
 3896SOL     OW13520  10.075   0.838  12.188
 3896SOL    HW113521  10.024   0.756  12.190
 3896SOL    HW213522  10.009   0.906  12.174
 3897SOL     OW13523   8.907   2.021  11.172
 3897SOL    HW113524   8.930   2.015  11.079
 3897SOL    HW213525   8.973   1.967  11.216
 3898SOL     OW13526  14.683   5.790   9.941
 3898SOL    HW113527  14.625   5.866   9.952
 3898SOL    HW213528  14.717   5.799   9.852
 3899SOL     OW13529  11.608   2.835  12.547
 3899SOL    HW113530  11.536   2.816  12.487
 3899SOL    HW213531  11.657   2.905  12.505
 3900SOL     OW13532   7.575   1.221   8.327
 3900SOL    HW113533   7.530   1.278   8.265
 3900SOL    HW213534   7.558   1.260   8.413
 3901SOL     OW13535   3.482  11.112   6.151
 3901SOL    HW113536   3.440  11.036   6.189
 3901SOL    HW213537   3.450  11.114   6.060
 3902SOL     OW13538   8.752   4.643   2.785
 3902SOL    HW113539   8.663   4.677   2.791
 3902SOL    HW213540   8.741   4.549   2.774
 3903SOL     OW13541   9.671   8.240   4.252
 3903SOL    HW113542   9.617   8.246   4.173
 3903SOL    HW213543   9.656   8.323   4.297
 3904SOL     OW13544  12.537  13.571  12.852
 3904SOL    HW113545  12.445  13.588  12.870
 3904SOL    HW213546  12.583  13.613  12.925
 3905SOL     OW13547   1.920   6.243   3.093
 3905SOL    HW113548   2.005   6.285   3.105
 3905SOL    HW213549   1.907   6.242   2.999
 3906SOL     OW13550  12.043   0.498   7.685
 3906SOL    HW113551  12.013   0.463   7.601
 3906SOL    HW213552  12.019   0.590   7.683
 3907SOL     OW13553   5.606   3.634   4.536
 3907SOL    HW113554   5.589   3.684   4.615
 3907SOL    HW213555   5.689   3.589   4.553
 3908SOL     OW13556   2.782   6.684  11.333
 3908SOL    HW113557   2.804   6.732  11.413
 3908SOL    HW213558   2.747   6.601  11.365
 3909SOL     OW13559  13.260  12.642   6.218
 3909SOL    HW113560  13.256  12.735   6.196
 3909SOL    HW213561  13.346  12.630   6.257
 3910SOL     OW13562   6.212   2.734  12.956
 3910SOL    HW113563   6.306   2.749  12.953
 3910SOL    HW213564   6.173   2.814  12.920
 3911SOL     OW13565  14.398  14.536   8.695
 3911SOL    HW113566  14.483  14.576   8.676
 3911SOL    HW213567  14.338  14.576   8.633
 3912SOL     OW13568   8.989   7.599   0.920
 3912SOL    HW113569   9.061   7.557   0.873
 3912SOL    HW213570   8.969   7.541   0.993
 3913SOL     OW13571  12.440  11.566  11.332
 3913SOL    HW113572  12.361  11.512  11.334
 3913SOL    HW213573  12.508  11.509  11.298
 3914SOL     OW13574   8.224   3.087   9.106
 3914SOL    HW113575   8.133   3.106   9.127
 3914SOL    HW213576   8.271   3.168   9.129
 3915SOL     OW13577   1.056   8.499   1.102
 3915SOL    HW113578   1.089   8.544   1.179
 3915SOL    HW213579   1.068   8.561   1.030
 3916SOL     OW13580  14.691  14.677  13.668
 3916SOL    HW113581  14.599  14.699  13.682
 3916SOL    HW213582  14.724  14.654  13.755
 3917SOL     OW13583   0.691   0.996   0.801
 3917SOL    HW113584   0.631   0.954   0.739
 3917SOL    HW213585   0.760   0.931   0.815
 3918SOL     OW13586   7.935   6.967   4.975
 3918SOL    HW113587   7.947   6.910   4.899
 3918SOL    HW213588   7.850   6.942   5.011
 3919SOL     OW13589   2.123  11.721  12.503
 3919SOL    HW113590   2.058  11.757  12.562
 3919SOL    HW213591   2.195  11.784  12.505
 3920SOL     OW13592   5.729   2.900  12.789
 3920SOL    HW113593   5.640   2.915  12.822
 3920SOL    HW213594   5.723   2.918  12.695
 3921SOL     OW13595   2.033   6.563   3.951
 3921SOL    HW113596   2.085   6.590   3.875
 3921SOL    HW213597   2.088   6.497   3.995
 3922SOL     OW13598   7.301   5.177   8.794
 3922SOL    HW113599   7.234   5.111   8.773
 3922SOL    HW213600   7.364   5.131   8.848
 3923SOL     OW13601   9.382   7.105   1.753
 3923SOL    HW113602   9.420   7.094   1.666
 3923SOL    HW213603   9.425   7.183   1.788
 3924SOL     OW13604   1.478  10.357  14.297
 3924SOL    HW113605   1.383  10.347  14.307
 3924SOL    HW213606   1.513  10.342  14.385
 3925SOL     OW13607   6.640  14.162   3.279
 3925SOL    HW113608   6.644  14.258   3.281
 3925SOL    HW213609   6.728  14.134   3.304
 3926SOL     OW13610   0.430   9.169   7.125
 3926SOL    HW113611   0.395   9.161   7.036
 3926SOL    HW213612   0.488   9.094   7.135
 3927SOL     OW13613   9.329   4.589  11.580
 3927SOL    HW113614   9.373   4.667  11.546
 3927SOL    HW213615   9.399   4.534  11.613
 3928SOL     OW13616   1.556   5.265   3.108
 3928SOL    HW113617   1.559   5.180   3.150
 3928SOL    HW213618   1.647   5.296   3.110
 3929SOL     OW13619  12.167   5.667   6.275
 3929SOL    HW113620  12.223   5.674   6.198
 3929SOL    HW213621  12.097   5.607   6.248
 3930SOL     OW13622  13.397   9.812  13.706
 3930SOL    HW113623  13.373   9.766  13.626
 3930SOL    HW213624  13.377   9.750  13.776
 3931SOL     OW13625   8.972  10.117  11.486
 3931SOL    HW113626   8.926  10.066  11.552
 3931SOL    HW213627   8.972  10.206  11.519
 3932SOL     OW13628   8.443   8.890   1.609
 3932SOL    HW113629   8.511   8.949   1.576
 3932SOL    HW213630   8.443   8.906   1.704
 3933SOL     OW13631  14.537   0.723   4.731
 3933SOL    HW113632  14.605   0.655   4.731
 3933SOL    HW213633  14.541   0.760   4.819
 3934SOL     OW13634   4.292  13.077   1.828
 3934SOL    HW113635   4.294  12.987   1.859
 3934SOL    HW213636   4.205  13.088   1.792
 3935SOL     OW13637  13.453   3.433   1.699
 3935SOL    HW113638  13.387   3.490   1.659
 3935SOL    HW213639  13.519   3.421   1.631
 3936SOL     OW13640   9.310   5.889  13.769
 3936SOL    HW113641   9.391   5.843  13.788
 3936SOL    HW213642   9.290   5.867  13.678
 3937SOL     OW13643   4.628   4.366  12.865
 3937SOL    HW113644   4.701   4.308  12.886
 3937SOL    HW213645   4.636   4.437  12.929
 3938SOL     OW13646   6.124   1.437  11.177
 3938SOL    HW113647   6.082   1.380  11.112
 3938SOL    HW213648   6.153   1.377  11.246
 3939SOL     OW13649   3.362   4.501  10.793
 3939SOL    HW113650   3.320   4.456  10.720
 3939SOL    HW213651   3.444   4.534  10.757
 3940SOL     OW13652   0.733   6.199   7.772
 3940SOL    HW113653   0.680   6.119   7.769
 3940SOL    HW213654   0.784   6.197   7.691
 3941SOL     OW13655  12.877   7.239   3.236
 3941SOL    HW113656  12.966   7.241   3.200
 3941SOL    HW213657  12.889   7.210   3.327
 3942SOL     OW13658  10.486  11.637  12.610
 3942SOL    HW113659  10.504  11.728  12.585
 3942SOL    HW213660  10.394  11.637  12.637
 3943SOL     OW13661   3.199   2.486   9.521
 3943SOL    HW113662   3.133   2.516   9.459
 3943SOL    HW213663   3.262   2.558   9.526
 3944SOL     OW13664   6.771   4.531  12.663
 3944SOL    HW113665   6.776   4.472  12.739
 3944SOL    HW213666   6.716   4.484  12.600
 3945SOL     OW13667   9.569   9.310  11.281
 3945SOL    HW113668   9.475   9.319  11.268
 3945SOL    HW213669   9.586   9.216  11.267
 3946SOL     OW13670   0.521   3.990   6.605
 3946SOL    HW113671   0.608   4.010   6.570
 3946SOL    HW213672   0.517   4.037   6.688
 3947SOL     OW13673  13.296   2.729   6.664
 3947SOL    HW113674  13.377   2.696   6.626
 3947SOL    HW213675  13.324   2.795   6.728
 3948SOL     OW13676  10.159   3.314  12.843
 3948SOL    HW113677  10.198   3.253  12.907
 3948SOL    HW213678  10.153   3.263  12.762
 3949SOL     OW13679   6.064   7.385  14.825
 3949SOL    HW113680   6.070   7.403   0.040
 3949SOL    HW213681   6.003   7.312  14.818
 3950SOL     OW13682  11.494  13.837   1.954
 3950SOL    HW113683  11.530  13.796   1.876
 3950SOL    HW213684  11.536  13.792   2.027
 3951SOL     OW13685  10.007   4.536   2.955
 3951SOL    HW113686   9.939   4.513   3.019
 3951SOL    HW213687   9.972   4.508   2.871
 3952SOL     OW13688   5.759  10.852   8.703
 3952SOL    HW113689   5.821  10.880   8.770
 3952SOL    HW213690   5.795  10.886   8.621
 3953SOL     OW13691   3.765   4.864   3.594
 3953SOL    HW113692   3.733   4.791   3.542
 3953SOL    HW213693   3.724   4.853   3.680
 3954SOL     OW13694  11.658  11.430   1.582
 3954SOL    HW113695  11.741  11.397   1.548
 3954SOL    HW213696  11.645  11.514   1.538
 3955SOL     OW13697  14.766   8.789   2.548
 3955SOL    HW113698  14.819   8.862   2.579
 3955SOL    HW213699  14.798   8.772   2.459
 3956SOL     OW13700  13.408   8.592  14.033
 3956SOL    HW113701  13.342   8.528  14.056
 3956SOL    HW213702  13.362   8.676  14.034
 3957SOL     OW13703   6.288   7.146   4.548
 3957SOL    HW113704   6.211   7.098   4.518
 3957SOL    HW213705   6.349   7.078   4.577
 3958SOL     OW13706  13.032  11.974  14.138
 3958SOL    HW113707  13.056  12.041  14.203
 3958SOL    HW213708  13.046  12.017  14.054
 3959SOL     OW13709   0.713   9.163   5.066
 3959SOL    HW113710   0.780   9.203   5.010
 3959SOL    HW213711   0.763   9.122   5.137
 3960SOL     OW13712  14.434  14.116  13.850
 3960SOL    HW113713  14.512  14.064  13.872
 3960SOL    HW213714  14.439  14.126  13.755
 3961SOL     OW13715  14.769  12.595  12.651
 3961SOL    HW113716  14.739  12.670  12.702
 3961SOL    HW213717  14.769  12.522  12.712
 3962SOL     OW13718   9.503  12.120   6.134
 3962SOL    HW113719   9.581  12.150   6.086
 3962SOL    HW213720   9.529  12.036   6.171
 3963SOL     OW13721   9.584   9.753   2.333
 3963SOL    HW113722   9.515   9.781   2.273
 3963SOL    HW213723   9.616   9.834   2.373
 3964SOL     OW13724   6.219   0.722   2.073
 3964SOL    HW113725   6.154   0.733   2.142
 3964SOL    HW213726   6.187   0.775   2.000
 3965SOL     OW13727   4.861   7.105  10.090
 3965SOL    HW113728   4.871   7.182  10.145
 3965SOL    HW213729   4.793   7.128  10.027
 3966SOL     OW13730  11.210  13.272  13.627
 3966SOL    HW113731  11.254  13.336  13.571
 3966SOL    HW213732  11.157  13.325  13.687
 3967SOL     OW13733  14.842   3.691  12.843
 3967SOL    HW113734   0.024   3.705  12.771
 3967SOL    HW213735   0.014   3.644  12.909
 3968SOL     OW13736  10.254   3.548   9.454
 3968SOL    HW113737  10.323   3.564   9.519
 3968SOL    HW213738  10.173   3.567   9.501
 3969SOL     OW13739   6.244   3.029   8.789
 3969SOL    HW113740   6.185   3.062   8.721
 3969SOL    HW213741   6.188   2.972   8.843
 3970SOL     OW13742   9.245   6.556  11.207
 3970SOL    HW113743   9.301   6.480  11.223
 3970SOL    HW213744   9.240   6.600  11.292
 3971SOL     OW13745  12.863   7.602   2.425
 3971SOL    HW113746  12.897   7.517   2.398
 3971SOL    HW213747  12.862   7.654   2.345
 3972SOL     OW13748   5.435  12.708  13.474
 3972SOL    HW113749   5.509  12.765  13.495
 3972SOL    HW213750   5.400  12.682  13.559
 3973SOL     OW13751   4.889   5.560   8.395
 3973SOL    HW113752   4.871   5.577   8.487
 3973SOL    HW213753   4.803   5.545   8.356
 3974SOL     OW13754   0.422  12.638   2.017
 3974SOL    HW113755   0.494  12.701   2.020
 3974SOL    HW213756   0.360  12.675   1.954
 3975SOL     OW13757   2.649  14.540   7.176
 3975SOL    HW113758   2.727  14.492   7.203
 3975SOL    HW213759   2.655  14.623   7.222
 3976SOL     OW13760   9.054   1.309   4.878
 3976SOL    HW113761   8.979   1.261   4.842
 3976SOL    HW213762   9.028   1.332   4.967
 3977SOL     OW13763  11.063   9.000   7.947
 3977SOL    HW113764  11.030   8.983   7.859
 3977SOL    HW213765  11.123   8.927   7.965
 3978SOL     OW13766  13.380   3.914  13.278
 3978SOL    HW113767  13.457   3.890  13.329
 3978SOL    HW213768  13.415   3.968  13.206
 3979SOL     OW13769  14.346   6.495  11.528
 3979SOL    HW113770  14.436   6.525  11.543
 3979SOL    HW213771  14.357   6.408  11.490
 3980SOL     OW13772  12.071   5.977   4.483
 3980SOL    HW113773  12.097   6.044   4.419
 3980SOL    HW213774  12.000   5.930   4.441
 3981SOL     OW13775   2.738   5.997   5.308
 3981SOL    HW113776   2.831   5.987   5.287
 3981SOL    HW213777   2.697   6.020   5.224
 3982SOL     OW13778   0.412  11.435   8.283
 3982SOL    HW113779   0.454  11.487   8.351
 3982SOL    HW213780   0.446  11.347   8.295
 3983SOL     OW13781   2.259   7.297   5.898
 3983SOL    HW113782   2.329   7.241   5.863
 3983SOL    HW213783   2.206   7.238   5.950
 3984SOL     OW13784   8.316   0.035   8.934
 3984SOL    HW113785   8.396   0.082   8.955
 3984SOL    HW213786   8.329   0.003   8.845
 3985SOL     OW13787   5.062   6.074   7.815
 3985SOL    HW113788   5.057   6.168   7.834
 3985SOL    HW213789   4.976   6.051   7.781
 3986SOL     OW13790   3.352  11.243   6.500
 3986SOL    HW113791   3.358  11.155   6.461
 3986SOL    HW213792   3.335  11.226   6.593
 3987SOL     OW13793  13.003  11.960   6.259
 3987SOL    HW113794  13.047  11.956   6.174
 3987SOL    HW213795  12.984  11.868   6.280
 3988SOL     OW13796   8.144  13.450   9.054
 3988SOL    HW113797   8.186  13.484   9.133
 3988SOL    HW213798   8.212  13.396   9.012
 3989SOL     OW13799  14.846   7.501   8.751
 3989SOL    HW113800  14.836   7.414   8.790
 3989SOL    HW213801  14.777   7.506   8.684
 3990SOL     OW13802   0.588   5.710   4.743
 3990SOL    HW113803   0.519   5.690   4.680
 3990SOL    HW213804   0.549   5.774   4.802
 3991SOL     OW13805   6.585   8.750   9.480
 3991SOL    HW113806   6.571   8.711   9.394
 3991SOL    HW213807   6.621   8.837   9.462
 3992SOL     OW13808  13.571   9.320   1.137
 3992SOL    HW113809  13.663   9.298   1.156
 3992SOL    HW213810  13.559   9.407   1.175
 3993SOL     OW13811   7.040   6.577   3.976
 3993SOL    HW113812   7.048   6.672   3.976
 3993SOL    HW213813   6.967   6.559   4.036
 3994SOL     OW13814   1.725   3.864   3.293
 3994SOL    HW113815   1.682   3.854   3.209
 3994SOL    HW213816   1.814   3.894   3.271
 3995SOL     OW13817  11.760   7.400  10.124
 3995SOL    HW113818  11.738   7.378  10.214
 3995SOL    HW213819  11.761   7.496  10.122
 3996SOL     OW13820   5.012   8.385   7.344
 3996SOL    HW113821   4.917   8.377   7.331
 3996SOL    HW213822   5.028   8.342   7.428
 3997SOL     OW13823   3.685  11.737   4.238
 3997SOL    HW113824   3.684  11.776   4.325
 3997SOL    HW213825   3.592  11.726   4.216
 3998SOL     OW13826   5.030  13.139   4.332
 3998SOL    HW113827   5.070  13.096   4.406
 3998SOL    HW213828   4.969  13.074   4.295
 3999SOL     OW13829   0.438   4.850   5.080
 3999SOL    HW113830   0.528   4.828   5.104
 3999SOL    HW213831   0.402   4.769   5.045
 4000SOL     OW13832   1.683   9.930   1.788
 4000SOL    HW113833   1.728   9.997   1.736
 4000SOL    HW213834   1.721   9.938   1.876
 4001SOL     OW13835  13.679  10.640  11.278
 4001SOL    HW113836  13.682  10.665  11.185
 4001SOL    HW213837  13.753  10.580  11.289
 4002SOL     OW13838   3.589  11.428  11.227
 4002SOL    HW113839   3.669  11.419  11.175
 4002SOL    HW213840   3.609  11.496  11.291
 4003SOL     OW13841  12.362  13.610   7.584
 4003SOL    HW113842  12.411  13.554   7.523
 4003SOL    HW213843  12.279  13.626   7.539
 4004SOL     OW13844   4.579   8.814   9.715
 4004SOL    HW113845   4.495   8.769   9.710
 4004SOL    HW213846   4.593   8.849   9.627
 4005SOL     OW13847   6.220   4.746   9.182
 4005SOL    HW113848   6.209   4.672   9.122
 4005SOL    HW213849   6.134   4.786   9.188
 4006SOL     OW13850   4.057  11.554   2.787
 4006SOL    HW113851   4.027  11.466   2.762
 4006SOL    HW213852   4.018  11.569   2.873
 4007SOL     OW13853   3.309   8.733   3.996
 4007SOL    HW113854   3.305   8.662   4.060
 4007SOL    HW213855   3.221   8.738   3.959
 4008SOL     OW13856   0.180   7.661   8.397
 4008SOL    HW113857   0.202   7.645   8.489
 4008SOL    HW213858   0.156   7.575   8.363
 4009SOL     OW13859   3.418   4.968  14.185
 4009SOL    HW113860   3.414   5.048  14.237
 4009SOL    HW213861   3.363   4.986  14.108
 4010SOL     OW13862   5.285   2.691  13.374
 4010SOL    HW113863   5.210   2.633  13.358
 4010SOL    HW213864   5.254   2.750  13.443
 4011SOL     OW13865   2.188   3.147  14.296
 4011SOL    HW113866   2.193   3.052  14.283
 4011SOL    HW213867   2.177   3.158  14.390
 4012SOL     OW13868   2.352   1.455   7.787
 4012SOL    HW113869   2.412   1.402   7.841
 4012SOL    HW213870   2.378   1.435   7.697
 4013SOL     OW13871   8.536   9.680   2.230
 4013SOL    HW113872   8.540   9.714   2.141
 4013SOL    HW213873   8.608   9.618   2.236
 4014SOL     OW13874   0.586   8.458   2.153
 4014SOL    HW113875   0.592   8.496   2.065
 4014SOL    HW213876   0.559   8.532   2.209
 4015SOL     OW13877   4.074  10.983  12.859
 4015SOL    HW113878   4.030  10.990  12.944
 4015SOL    HW213879   4.017  11.027  12.798
 4016SOL     OW13880   6.706  14.073   9.429
 4016SOL    HW113881   6.776  14.065   9.364
 4016SOL    HW213882   6.751  14.104   9.508
 4017SOL     OW13883   7.380  10.245   8.646
 4017SOL    HW113884   7.441  10.183   8.607
 4017SOL    HW213885   7.417  10.264   8.732
 4018SOL     OW13886   0.857   5.125  13.818
 4018SOL    HW113887   0.884   5.215  13.800
 4018SOL    HW213888   0.932   5.071  13.793
 4019SOL     OW13889  13.889   7.736   9.846
 4019SOL    HW113890  13.850   7.781   9.921
 4019SOL    HW213891  13.875   7.795   9.773
 4020SOL     OW13892  14.653  10.033   0.149
 4020SOL    HW113893  14.574  10.035   0.203
 4020SOL    HW213894  14.622  10.045   0.060
 4021SOL     OW13895   3.604  13.678   7.494
 4021SOL    HW113896   3.613  13.656   7.587
 4021SOL    HW213897   3.649  13.607   7.448
 4022SOL     OW13898  10.289   1.702   5.868
 4022SOL    HW113899  10.219   1.638   5.861
 4022SOL    HW213900  10.254   1.782   5.830
 4023SOL     OW13901  11.812  13.191   1.571
 4023SOL    HW113902  11.862  13.128   1.519
 4023SOL    HW213903  11.837  13.171   1.662
 4024SOL     OW13904   8.937   8.600  13.702
 4024SOL    HW113905   8.966   8.657  13.773
 4024SOL    HW213906   8.914   8.518  13.745
 4025SOL     OW13907   1.728   5.327   3.425
 4025SOL    HW113908   1.755   5.266   3.356
 4025SOL    HW213909   1.649   5.287   3.462
 4026SOL     OW13910   9.514  12.730   5.088
 4026SOL    HW113911   9.499  12.678   5.009
 4026SOL    HW213912   9.426  12.751   5.120
 4027SOL     OW13913  11.118  14.524  10.014
 4027SOL    HW113914  11.086  14.478   9.936
 4027SOL    HW213915  11.120  14.616   9.989
 4028SOL     OW13916   3.489   2.120  10.270
 4028SOL    HW113917   3.416   2.175  10.241
 4028SOL    HW213918   3.546   2.113  10.194
 4029SOL     OW13919   5.601   2.646  12.471
 4029SOL    HW113920   5.649   2.664  12.391
 4029SOL    HW213921   5.630   2.713  12.533
 4030SOL     OW13922  11.609   7.992  14.703
 4030SOL    HW113923  11.584   7.908  14.741
 4030SOL    HW213924  11.545   8.006  14.633
 4031SOL     OW13925   1.694   8.818   2.639
 4031SOL    HW113926   1.712   8.820   2.545
 4031SOL    HW213927   1.775   8.848   2.680
 4032SOL     OW13928   8.225   7.435   0.171
 4032SOL    HW113929   8.262   7.413   0.085
 4032SOL    HW213930   8.225   7.531   0.172
 4033SOL     OW13931  10.054   9.920   6.753
 4033SOL    HW113932  10.087   9.893   6.667
 4033SOL    HW213933  10.076  10.013   6.759
 4034SOL     OW13934   4.986  12.109   1.951
 4034SOL    HW113935   5.026  12.022   1.948
 4034SOL    HW213936   5.055  12.169   1.923
 4035SOL     OW13937  11.837   6.460   9.128
 4035SOL    HW113938  11.921   6.505   9.116
 4035SOL    HW213939  11.808   6.442   9.039
 4036SOL     OW13940   9.881   8.709  12.876
 4036SOL    HW113941   9.964   8.668  12.854
 4036SOL    HW213942   9.821   8.636  12.891
 4037SOL     OW13943  12.946  10.318   9.462
 4037SOL    HW113944  12.943  10.370   9.382
 4037SOL    HW213945  13.027  10.344   9.505
 4038SOL     OW13946  12.030   0.022   1.669
 4038SOL    HW113947  11.982  14.870   1.746
 4038SOL    HW213948  12.088   0.091   1.702
 4039SOL     OW13949   1.449   0.990   5.043
 4039SOL    HW113950   1.519   0.982   5.108
 4039SOL    HW213951   1.492   1.024   4.965
 4040SOL     OW13952   0.808   8.414   4.572
 4040SOL    HW113953   0.843   8.402   4.660
 4040SOL    HW213954   0.783   8.506   4.568
 4041SOL     OW13955  10.001   7.346   5.611
 4041SOL    HW113956  10.000   7.357   5.515
 4041SOL    HW213957   9.953   7.422   5.644
 4042SOL     OW13958   7.092   7.728   2.362
 4042SOL    HW113959   7.136   7.806   2.395
 4042SOL    HW213960   7.056   7.686   2.441
 4043SOL     OW13961  14.494  13.746   3.610
 4043SOL    HW113962  14.436  13.753   3.685
 4043SOL    HW213963  14.491  13.653   3.585
 4044SOL     OW13964  10.369   8.829   1.061
 4044SOL    HW113965  10.344   8.920   1.043
 4044SOL    HW213966  10.393   8.794   0.975
 4045SOL     OW13967   1.047   7.947   3.229
 4045SOL    HW113968   1.119   7.908   3.279
 4045SOL    HW213969   1.002   8.002   3.293
 4046SOL     OW13970   1.664   8.519   7.232
 4046SOL    HW113971   1.601   8.455   7.199
 4046SOL    HW213972   1.705   8.555   7.154
 4047SOL     OW13973   1.546   9.381  14.528
 4047SOL    HW113974   1.547   9.323  14.452
 4047SOL    HW213975   1.487   9.452  14.504
 4048SOL     OW13976   6.266   1.187   9.754
 4048SOL    HW113977   6.319   1.141   9.690
 4048SOL    HW213978   6.251   1.273   9.715
 4049SOL     OW13979   5.560   1.521  12.461
 4049SOL    HW113980   5.556   1.426  12.459
 4049SOL    HW213981   5.529   1.549  12.375
 4050SOL     OW13982   6.530   1.329  10.351
 4050SOL    HW113983   6.514   1.383  10.274
 4050SOL    HW213984   6.448   1.282  10.364
 4051SOL     OW13985  13.063   5.705   8.354
 4051SOL    HW113986  13.012   5.781   8.383
 4051SOL    HW213987  12.999   5.633   8.354
 4052SOL     OW13988   0.768   4.593   8.898
 4052SOL    HW113989   0.807   4.663   8.951
 4052SOL    HW213990   0.708   4.640   8.839
 4053SOL     OW13991  14.405   9.967   6.066
 4053SOL    HW113992  14.355   9.952   6.146
 4053SOL    HW213993  14.442  10.055   6.076
 4054SOL     OW13994  10.637  11.309  10.053
 4054SOL    HW113995  10.599  11.291   9.967
 4054SOL    HW213996  10.584  11.380  10.089
 4055SOL     OW13997  13.542  12.046  13.577
 4055SOL    HW113998  13.600  11.970  13.583
 4055SOL    HW213999  13.528  12.059  13.484
 4056SOL     OW14000  13.080   7.740   2.819
 4056SOL    HW114001  13.158   7.761   2.768
 4056SOL    HW214002  13.112   7.730   2.909
 4057SOL     OW14003   8.078   9.683   0.394
 4057SOL    HW114004   8.079   9.618   0.323
 4057SOL    HW214005   8.106   9.634   0.472
 4058SOL     OW14006  12.988   1.399   9.900
 4058SOL    HW114007  12.904   1.390   9.855
 4058SOL    HW214008  13.053   1.367   9.837
 4059SOL     OW14009   0.704  14.448   0.476
 4059SOL    HW114010   0.796  14.451   0.451
 4059SOL    HW214011   0.673  14.538   0.465
 4060SOL     OW14012   3.655  13.834  13.918
 4060SOL    HW114013   3.726  13.895  13.938
 4060SOL    HW214014   3.580  13.867  13.968
 4061SOL     OW14015   3.006   4.765   2.748
 4061SOL    HW114016   3.035   4.855   2.732
 4061SOL    HW214017   3.087   4.718   2.769
 4062SOL     OW14018   5.478  14.487  13.741
 4062SOL    HW114019   5.565  14.449  13.743
 4062SOL    HW214020   5.493  14.581  13.730
 4063SOL     OW14021  12.458  13.155   0.831
 4063SOL    HW114022  12.499  13.086   0.884
 4063SOL    HW214023  12.383  13.185   0.883
 4064SOL     OW14024   2.550  12.615   2.392
 4064SOL    HW114025   2.503  12.673   2.332
 4064SOL    HW214026   2.557  12.666   2.473
 4065SOL     OW14027   2.019   6.597  14.440
 4065SOL    HW114028   2.078   6.668  14.466
 4065SOL    HW214029   1.943   6.642  14.403
 4066SOL     OW14030   1.470   3.476   5.186
 4066SOL    HW114031   1.514   3.556   5.157
 4066SOL    HW214032   1.400   3.506   5.244
 4067SOL     OW14033  13.782   4.828   4.607
 4067SOL    HW114034  13.699   4.781   4.600
 4067SOL    HW214035  13.836   4.775   4.666
 4068SOL     OW14036  10.795   7.895   3.240
 4068SOL    HW114037  10.807   7.854   3.154
 4068SOL    HW214038  10.876   7.944   3.254
 4069SOL     OW14039   4.241   5.937  13.273
 4069SOL    HW114040   4.239   5.969  13.183
 4069SOL    HW214041   4.257   6.014  13.326
 4070SOL     OW14042   5.261   1.642  14.732
 4070SOL    HW114043   5.171   1.636  14.763
 4070SOL    HW214044   5.309   1.576  14.781
 4071SOL     OW14045   7.069  10.058  12.854
 4071SOL    HW114046   7.055   9.994  12.923
 4071SOL    HW214047   7.027  10.138  12.886
 4072SOL     OW14048  12.605   9.556   5.211
 4072SOL    HW114049  12.658   9.592   5.283
 4072SOL    HW214050  12.582   9.468   5.241
 4073SOL     OW14051  13.210   8.116  14.303
 4073SOL    HW114052  13.121   8.140  14.279
 4073SOL    HW214053  13.201   8.068  14.386
 4074SOL     OW14054   4.950   7.321   3.195
 4074SOL    HW114055   4.860   7.295   3.213
 4074SOL    HW214056   4.963   7.400   3.248
 4075SOL     OW14057  11.497  12.907   7.428
 4075SOL    HW114058  11.452  12.846   7.487
 4075SOL    HW214059  11.475  12.878   7.340
 4076SOL     OW14060   6.712  13.907   9.823
 4076SOL    HW114061   6.800  13.922   9.789
 4076SOL    HW214062   6.709  13.955   9.906
 4077SOL     OW14063  10.209   0.897  11.307
 4077SOL    HW114064  10.208   0.980  11.260
 4077SOL    HW214065  10.120   0.864  11.301
 4078SOL     OW14066   5.957   7.464  11.769
 4078SOL    HW114067   6.038   7.416  11.754
 4078SOL    HW214068   5.953   7.476  11.864
 4079SOL     OW14069  12.442   0.701  12.297
 4079SOL    HW114070  12.363   0.647  12.305
 4079SOL    HW214071  12.417   0.771  12.237
 4080SOL     OW14072   5.601   3.043   6.532
 4080SOL    HW114073   5.549   2.968   6.561
 4080SOL    HW214074   5.536   3.103   6.496
 4081SOL     OW14075   1.285   9.483   2.169
 4081SOL    HW114076   1.308   9.562   2.119
 4081SOL    HW214077   1.196   9.499   2.199
 4082SOL     OW14078   3.001   0.614   6.003
 4082SOL    HW114079   3.031   0.602   6.093
 4082SOL    HW214080   2.923   0.669   6.010
 4083SOL     OW14081  13.430   2.261   4.887
 4083SOL    HW114082  13.521   2.241   4.908
 4083SOL    HW214083  13.384   2.177   4.896
 4084SOL     OW14084  10.975   8.409  11.631
 4084SOL    HW114085  11.018   8.323  11.633
 4084SOL    HW214086  10.968   8.434  11.723
 4085SOL     OW14087   0.715  10.192   2.076
 4085SOL    HW114088   0.795  10.189   2.023
 4085SOL    HW214089   0.687  10.283   2.072
 4086SOL     OW14090  14.354  14.091  13.324
 4086SOL    HW114091  14.367  14.042  13.405
 4086SOL    HW214092  14.338  14.025  13.257
 4087SOL     OW14093   1.233   5.775  11.701
 4087SOL    HW114094   1.224   5.776  11.796
 4087SOL    HW214095   1.236   5.868  11.677
 4088SOL     OW14096   1.770   0.657   9.965
 4088SOL    HW114097   1.711   0.656  10.040
 4088SOL    HW214098   1.832   0.727   9.984
 4089SOL     OW14099  11.321   0.863  14.103
 4089SOL    HW114100  11.404   0.902  14.077
 4089SOL    HW214101  11.330   0.846  14.197
 4090SOL     OW14102   4.918   9.052   5.679
 4090SOL    HW114103   4.982   9.105   5.726
 4090SOL    HW214104   4.851   9.032   5.745
 4091SOL     OW14105   7.137   9.291   7.863
 4091SOL    HW114106   7.178   9.205   7.871
 4091SOL    HW214107   7.144   9.312   7.770
 4092SOL     OW14108   9.473   0.233   9.883
 4092SOL    HW114109   9.470   0.150   9.931
 4092SOL    HW214110   9.562   0.237   9.848
 4093SOL     OW14111   4.456   7.223   8.350
 4093SOL    HW114112   4.402   7.216   8.271
 4093SOL    HW214113   4.410   7.170   8.415
 4094SOL     OW14114  10.151   6.483   2.065
 4094SOL    HW114115  10.130   6.468   2.157
 4094SOL    HW214116  10.168   6.396   2.029
 4095SOL     OW14117  14.010   9.294  12.266
 4095SOL    HW114118  14.048   9.362  12.210
 4095SOL    HW214119  13.961   9.343  12.333
 4096SOL     OW14120   8.592   2.412   9.854
 4096SOL    HW114121   8.678   2.399   9.894
 4096SOL    HW214122   8.559   2.492   9.894
 4097SOL     OW14123   7.483   6.455  12.798
 4097SOL    HW114124   7.477   6.440  12.703
 4097SOL    HW214125   7.512   6.372  12.834
 4098SOL     OW14126   4.354   9.885   0.139
 4098SOL    HW114127   4.290   9.948   0.171
 4098SOL    HW214128   4.435   9.908   0.183
 4099SOL     OW14129  14.660   5.224   7.112
 4099SOL    HW114130  14.692   5.184   7.032
 4099SOL    HW214131  14.711   5.304   7.122
 4100SOL     OW14132   2.176   5.997   7.621
 4100SOL    HW114133   2.251   5.939   7.636
 4100SOL    HW214134   2.102   5.951   7.661
 4101SOL     OW14135  13.245   2.275   2.066
 4101SOL    HW114136  13.173   2.266   2.004
 4101SOL    HW214137  13.209   2.331   2.136
 4102SOL     OW14138   1.474  10.374  12.786
 4102SOL    HW114139   1.549  10.316  12.774
 4102SOL    HW214140   1.511  10.463  12.782
 4103SOL     OW14141   5.977   9.028   0.379
 4103SOL    HW114142   5.995   8.938   0.351
 4103SOL    HW214143   6.009   9.031   0.470
 4104SOL     OW14144   5.604   2.889   1.536
 4104SOL    HW114145   5.675   2.903   1.474
 4104SOL    HW214146   5.524   2.895   1.483
 4105SOL     OW14147  13.736   0.123  11.611
 4105SOL    HW114148  13.694   0.198  11.654
 4105SOL    HW214149  13.830   0.140  11.619
 4106SOL     OW14150  12.860  14.055   4.120
 4106SOL    HW114151  12.821  14.066   4.206
 4106SOL    HW214152  12.854  14.142   4.079
 4107SOL     OW14153  11.707   1.348   7.278
 4107SOL    HW114154  11.651   1.272   7.295
 4107SOL    HW214155  11.723   1.386   7.365
 4108SOL     OW14156  10.072   3.136   2.574
 4108SOL    HW114157  10.052   3.043   2.560
 4108SOL    HW214158  10.062   3.177   2.488
 4109SOL     OW14159   3.636   5.808   9.094
 4109SOL    HW114160   3.546   5.813   9.060
 4109SOL    HW214161   3.668   5.723   9.063
 4110SOL     OW14162   0.899   1.260   9.256
 4110SOL    HW114163   0.821   1.260   9.311
 4110SOL    HW214164   0.867   1.279   9.168
 4111SOL     OW14165  10.268   6.555  14.367
 4111SOL    HW114166  10.241   6.491  14.434
 4111SOL    HW214167  10.357   6.579  14.393
 4112SOL     OW14168   0.154  11.906   3.806
 4112SOL    HW114169   0.172  11.842   3.736
 4112SOL    HW214170   0.234  11.958   3.811
 4113SOL     OW14171   2.710   0.984  10.186
 4113SOL    HW114172   2.759   0.976  10.104
 4113SOL    HW214173   2.622   1.011  10.159
 4114SOL     OW14174  11.670   2.683   1.419
 4114SOL    HW114175  11.671   2.598   1.462
 4114SOL    HW214176  11.759   2.693   1.385
 4115SOL     OW14177   5.638   3.066  14.643
 4115SOL    HW114178   5.590   2.993  14.604
 4115SOL    HW214179   5.711   3.023  14.690
 4116SOL     OW14180   1.974  10.876  10.307
 4116SOL    HW114181   2.026  10.804  10.343
 4116SOL    HW214182   2.021  10.902  10.228
 4117SOL     OW14183  14.792   7.386  10.668
 4117SOL    HW114184  14.742   7.467  10.678
 4117SOL    HW214185  14.875   7.403  10.714
 4118SOL     OW14186   8.926   0.871   1.114
 4118SOL    HW114187   8.870   0.837   1.184
 4118SOL    HW214188   8.868   0.878   1.038
 4119SOL     OW14189   4.277   5.822   1.073
 4119SOL    HW114190   4.195   5.778   1.096
 4119SOL    HW214191   4.261   5.914   1.094
 4120SOL     OW14192   0.333  12.247   9.095
 4120SOL    HW114193   0.261  12.188   9.075
 4120SOL    HW214194   0.290  12.329   9.121
 4121SOL     OW14195  11.564   1.308  10.681
 4121SOL    HW114196  11.483   1.257  10.667
 4121SOL    HW214197  11.575   1.309  10.776
 4122SOL     OW14198   4.075   9.049   0.962
 4122SOL    HW114199   4.092   9.143   0.963
 4122SOL    HW214200   4.077   9.023   1.055
 4123SOL     OW14201   6.577  13.532   0.682
 4123SOL    HW114202   6.602  13.443   0.706
 4123SOL    HW214203   6.628  13.588   0.741
 4124SOL     OW14204   0.645  13.714   1.438
 4124SOL    HW114205   0.662  13.803   1.471
 4124SOL    HW214206   0.702  13.658   1.491
 4125SOL     OW14207   3.757   2.878  12.916
 4125SOL    HW114208   3.731   2.803  12.970
 4125SOL    HW214209   3.674   2.915  12.885
 4126SOL     OW14210  11.010  11.327   1.207
 4126SOL    HW114211  11.106  11.331   1.205
 4126SOL    HW214212  10.988  11.345   1.298
 4127SOL     OW14213   5.547  11.566   5.789
 4127SOL    HW114214   5.565  11.475   5.809
 4127SOL    HW214215   5.629  11.600   5.752
 4128SOL     OW14216  13.587   9.970   1.368
 4128SOL    HW114217  13.493   9.989   1.362
 4128SOL    HW214218  13.608   9.927   1.285
 4129SOL     OW14219   5.515   7.754   1.220
 4129SOL    HW114220   5.570   7.694   1.270
 4129SOL    HW214221   5.462   7.798   1.286
 4130SOL     OW14222   1.628  11.873   4.156
 4130SOL    HW114223   1.622  11.804   4.090
 4130SOL    HW214224   1.658  11.950   4.108
 4131SOL     OW14225   2.671   2.314   9.721
 4131SOL    HW114226   2.723   2.243   9.757
 4131SOL    HW214227   2.703   2.324   9.631
 4132SOL     OW14228   1.762  11.622   7.748
 4132SOL    HW114229   1.840  11.676   7.756
 4132SOL    HW214230   1.724  11.648   7.664
 4133SOL     OW14231   5.841  10.430   4.242
 4133SOL    HW114232   5.898  10.431   4.319
 4133SOL    HW214233   5.901  10.416   4.168
 4134SOL     OW14234   8.991   9.940   1.903
 4134SOL    HW114235   9.044   9.876   1.952
 4134SOL    HW214236   8.910   9.894   1.883
 4135SOL     OW14237   7.555  11.023   4.616
 4135SOL    HW114238   7.525  11.055   4.531
 4135SOL    HW214239   7.478  10.984   4.657
 4136SOL     OW14240   8.007  11.903  13.943
 4136SOL    HW114241   7.940  11.970  13.951
 4136SOL    HW214242   8.079  11.934  13.998
 4137SOL     OW14243   2.640   8.039   8.311
 4137SOL    HW114244   2.647   7.971   8.244
 4137SOL    HW214245   2.559   8.018   8.358
 4138SOL     OW14246  12.043  10.843   5.483
 4138SOL    HW114247  12.006  10.835   5.396
 4138SOL    HW214248  11.999  10.919   5.521
 4139SOL     OW14249  11.266  14.722   4.886
 4139SOL    HW114250  11.338  14.706   4.947
 4139SOL    HW214251  11.257  14.818   4.884
 4140SOL     OW14252  12.446  13.106  10.054
 4140SOL    HW114253  12.471  13.094   9.962
 4140SOL    HW214254  12.497  13.041  10.101
 4141SOL     OW14255   7.633   5.322  11.073
 4141SOL    HW114256   7.571   5.304  11.002
 4141SOL    HW214257   7.717   5.333  11.030
 4142SOL     OW14258  14.397  12.055   7.078
 4142SOL    HW114259  14.327  12.066   7.142
 4142SOL    HW214260  14.361  11.992   7.015
 4143SOL     OW14261   8.654  13.635  12.418
 4143SOL    HW114262   8.709  13.712  12.405
 4143SOL    HW214263   8.621  13.643  12.508
 4144SOL     OW14264  13.624   9.067   3.745
 4144SOL    HW114265  13.716   9.053   3.766
 4144SOL    HW214266  13.580   9.072   3.830
 4145SOL     OW14267   1.748  10.644   0.998
 4145SOL    HW114268   1.807  10.682   1.062
 4145SOL    HW214269   1.765  10.550   1.003
 4146SOL     OW14270  10.956   1.925   9.738
 4146SOL    HW114271  10.901   1.850   9.714
 4146SOL    HW214272  11.031   1.887   9.783
 4147SOL     OW14273   3.329   6.508   3.308
 4147SOL    HW114274   3.387   6.458   3.365
 4147SOL    HW214275   3.388   6.557   3.250
 4148SOL     OW14276   4.776   4.447  11.897
 4148SOL    HW114277   4.822   4.449  11.981
 4148SOL    HW214278   4.738   4.534  11.887
 4149SOL     OW14279   5.108  13.169   3.464
 4149SOL    HW114280   5.081  13.124   3.384
 4149SOL    HW214281   5.052  13.133   3.532
 4150SOL     OW14282   1.439   7.842  13.105
 4150SOL    HW114283   1.419   7.808  13.017
 4150SOL    HW214284   1.535   7.835  13.111
 4151SOL     OW14285   1.804  11.450   8.829
 4151SOL    HW114286   1.726  11.408   8.864
 4151SOL    HW214287   1.801  11.539   8.863
 4152SOL     OW14288  11.586   2.387   6.378
 4152SOL    HW114289  11.623   2.418   6.461
 4152SOL    HW214290  11.506   2.341   6.404
 4153SOL     OW14291   5.672   7.464   6.524
 4153SOL    HW114292   5.759   7.471   6.484
 4153SOL    HW214293   5.640   7.554   6.526
 4154SOL     OW14294  14.619   8.243  13.621
 4154SOL    HW114295  14.578   8.329  13.610
 4154SOL    HW214296  14.710   8.256  13.597
 4155SOL     OW14297  13.754  13.357   9.605
 4155SOL    HW114298  13.673  13.334   9.650
 4155SOL    HW214299  13.772  13.447   9.633
 4156SOL     OW14300   0.142  10.758  14.682
 4156SOL    HW114301   0.135  10.676  14.730
 4156SOL    HW214302   0.097  10.822  14.737
 4157SOL     OW14303   2.085   8.277   8.910
 4157SOL    HW114304   2.024   8.315   8.847
 4157SOL    HW214305   2.135   8.213   8.860
 4158SOL     OW14306   4.446  14.215   3.499
 4158SOL    HW114307   4.372  14.155   3.512
 4158SOL    HW214308   4.460  14.255   3.585
 4159SOL     OW14309  13.405   0.894   7.886
 4159SOL    HW114310  13.348   0.907   7.810
 4159SOL    HW214311  13.361   0.828   7.938
 4160SOL     OW14312  12.990   0.873   1.926
 4160SOL    HW114313  13.068   0.928   1.930
 4160SOL    HW214314  12.946   0.901   1.845
 4161SOL     OW14315   4.264   1.242  12.894
 4161SOL    HW114316   4.212   1.292  12.830
 4161SOL    HW214317   4.284   1.305  12.963
 4162SOL     OW14318   4.516   1.436  12.291
 4162SOL    HW114319   4.441   1.406  12.342
 4162SOL    HW214320   4.515   1.532  12.302
 4163SOL     OW14321   5.649   9.035  14.590
 4163SOL    HW114322   5.648   8.950  14.634
 4163SOL    HW214323   5.735   9.040  14.548
 4164SOL     OW14324  12.968  12.699   1.256
 4164SOL    HW114325  12.957  12.786   1.296
 4164SOL    HW214326  12.956  12.638   1.329
 4165SOL     OW14327   1.750   9.541  10.996
 4165SOL    HW114328   1.779   9.517  11.083
 4165SOL    HW214329   1.682   9.476  10.974
 4166SOL     OW14330   4.758   8.693   5.616
 4166SOL    HW114331   4.782   8.686   5.524
 4166SOL    HW214332   4.841   8.694   5.663
 4167SOL     OW14333   5.683  11.993   5.771
 4167SOL    HW114334   5.703  11.966   5.681
 4167SOL    HW214335   5.722  12.080   5.780
 4168SOL     OW14336  14.478  12.663   1.748
 4168SOL    HW114337  14.481  12.612   1.668
 4168SOL    HW214338  14.407  12.623   1.799
 4169SOL     OW14339   6.813   6.050   6.226
 4169SOL    HW114340   6.841   5.960   6.245
 4169SOL    HW214341   6.728   6.040   6.182
 4170SOL     OW14342  11.263   1.455   0.026
 4170SOL    HW114343  11.238   1.379  14.852
 4170SOL    HW214344  11.331   1.423   0.085
 4171SOL     OW14345   4.334   0.837   0.582
 4171SOL    HW114346   4.393   0.811   0.511
 4171SOL    HW214347   4.252   0.794   0.561
 4172SOL     OW14348   3.970   6.515   0.138
 4172SOL    HW114349   3.985   6.533   0.045
 4172SOL    HW214350   3.933   6.427   0.140
 4173SOL     OW14351  14.632   7.836  10.080
 4173SOL    HW114352  14.545   7.834  10.042
 4173SOL    HW214353  14.643   7.749  10.120
 4174SOL     OW14354   1.046   8.026   1.314
 4174SOL    HW114355   1.048   8.067   1.227
 4174SOL    HW214356   1.031   7.934   1.296
 4175SOL     OW14357   8.589  12.716   3.136
 4175SOL    HW114358   8.611  12.803   3.171
 4175SOL    HW214359   8.540  12.734   3.056
 4176SOL     OW14360  13.821  13.714   0.216
 4176SOL    HW114361  13.804  13.686   0.306
 4176SOL    HW214362  13.828  13.632   0.167
 4177SOL     OW14363  10.088  14.598   9.207
 4177SOL    HW114364  10.057  14.686   9.188
 4177SOL    HW214365  10.034  14.542   9.151
 4178SOL     OW14366  14.101   0.852   1.230
 4178SOL    HW114367  14.076   0.872   1.140
 4178SOL    HW214368  14.084   0.932   1.279
 4179SOL     OW14369  12.065  11.607   4.564
 4179SOL    HW114370  12.035  11.692   4.530
 4179SOL    HW214371  11.998  11.582   4.628
 4180SOL     OW14372   0.613   1.358  11.442
 4180SOL    HW114373   0.572   1.385  11.524
 4180SOL    HW214374   0.698   1.323  11.468
 4181SOL     OW14375   4.650   2.445   7.796
 4181SOL    HW114376   4.640   2.519   7.736
 4181SOL    HW214377   4.667   2.370   7.739
 4182SOL     OW14378  11.766  12.824   3.080
 4182SOL    HW114379  11.744  12.905   3.126
 4182SOL    HW214380  11.743  12.755   3.141
 4183SOL     OW14381   4.585   5.034   9.440
 4183SOL    HW114382   4.620   4.947   9.423
 4183SOL    HW214383   4.515   5.019   9.504
 4184SOL     OW14384   6.477   6.278   9.996
 4184SOL    HW114385   6.560   6.321   9.977
 4184SOL    HW214386   6.448   6.316  10.078
 4185SOL     OW14387   5.209  10.582  13.317
 4185SOL    HW114388   5.185  10.494  13.290
 4185SOL    HW214389   5.228  10.575  13.410
 4186SOL     OW14390  14.734   2.538   9.228
 4186SOL    HW114391  14.688   2.577   9.302
 4186SOL    HW214392  14.724   2.444   9.241
 4187SOL     OW14393   2.871   8.744  10.263
 4187SOL    HW114394   2.826   8.809  10.210
 4187SOL    HW214395   2.842   8.761  10.352
 4188SOL     OW14396  11.758   0.039   9.210
 4188SOL    HW114397  11.710   0.121   9.222
 4188SOL    HW214398  11.768   0.030   9.116
 4189SOL     OW14399   7.635  10.176   4.131
 4189SOL    HW114400   7.539  10.173   4.133
 4189SOL    HW214401   7.661  10.087   4.155
 4190SOL     OW14402   2.555   0.780   0.349
 4190SOL    HW114403   2.573   0.690   0.375
 4190SOL    HW214404   2.511   0.819   0.424
 4191SOL     OW14405  12.152   0.618   3.451
 4191SOL    HW114406  12.179   0.679   3.382
 4191SOL    HW214407  12.217   0.548   3.447
 4192SOL     OW14408   8.172   4.525  10.000
 4192SOL    HW114409   8.138   4.506  10.088
 4192SOL    HW214410   8.166   4.442   9.954
 4193SOL     OW14411  13.384  12.492   5.298
 4193SOL    HW114412  13.375  12.490   5.393
 4193SOL    HW214413  13.295  12.502   5.266
 4194SOL     OW14414   8.720   9.965   9.776
 4194SOL    HW114415   8.759  10.007   9.853
 4194SOL    HW214416   8.634  10.005   9.768
 4195SOL     OW14417   2.775   4.293  13.803
 4195SOL    HW114418   2.702   4.242  13.766
 4195SOL    HW214419   2.787   4.365  13.742
 4196SOL     OW14420   4.706   0.033  10.907
 4196SOL    HW114421   4.761  14.864  10.968
 4196SOL    HW214422   4.648   0.086  10.963
 4197SOL     OW14423   9.635  13.825   1.981
 4197SOL    HW114424   9.584  13.793   1.906
 4197SOL    HW214425   9.668  13.746   2.023
 4198SOL     OW14426   4.104  14.564   2.033
 4198SOL    HW114427   4.066  14.522   1.956
 4198SOL    HW214428   4.071  14.654   2.030
 4199SOL     OW14429  10.116  10.934   5.703
 4199SOL    HW114430  10.026  10.935   5.671
 4199SOL    HW214431  10.111  10.966   5.793
 4200SOL     OW14432   2.613   3.663   6.550
 4200SOL    HW114433   2.672   3.654   6.475
 4200SOL    HW214434   2.625   3.582   6.600
 4201SOL     OW14435  13.433   3.184   6.824
 4201SOL    HW114436  13.371   3.141   6.883
 4201SOL    HW214437  13.392   3.268   6.803
 4202SOL     OW14438  10.484   5.591   6.740
 4202SOL    HW114439  10.572   5.606   6.774
 4202SOL    HW214440  10.487   5.504   6.702
 4203SOL     OW14441  12.363   2.512   1.734
 4203SOL    HW114442  12.296   2.535   1.798
 4203SOL    HW214443  12.423   2.587   1.733
 4204SOL     OW14444   0.733   8.950  12.133
 4204SOL    HW114445   0.747   8.912  12.046
 4204SOL    HW214446   0.820   8.950  12.173
 4205SOL     OW14447  12.356   6.925  11.069
 4205SOL    HW114448  12.304   6.853  11.033
 4205SOL    HW214449  12.306   7.004  11.047
 4206SOL     OW14450   9.202   6.250   6.894
 4206SOL    HW114451   9.125   6.240   6.837
 4206SOL    HW214452   9.243   6.163   6.894
 4207SOL     OW14453  11.166  11.630  10.067
 4207SOL    HW114454  11.117  11.561  10.113
 4207SOL    HW214455  11.099  11.690  10.035
 4208SOL     OW14456   7.036   1.474  13.927
 4208SOL    HW114457   7.105   1.501  13.987
 4208SOL    HW214458   7.038   1.540  13.858
 4209SOL     OW14459   3.857   6.725  13.315
 4209SOL    HW114460   3.918   6.753  13.247
 4209SOL    HW214461   3.770   6.740  13.277
 4210SOL     OW14462   7.695  11.966   0.993
 4210SOL    HW114463   7.647  11.884   0.980
 4210SOL    HW214464   7.776  11.939   1.035
 4211SOL     OW14465   7.326   7.876   8.560
 4211SOL    HW114466   7.306   7.936   8.488
 4211SOL    HW214467   7.347   7.933   8.634
 4212SOL     OW14468  12.760   7.096   6.053
 4212SOL    HW114469  12.706   7.023   6.084
 4212SOL    HW214470  12.767   7.155   6.127
 4213SOL     OW14471   4.911  14.257   2.158
 4213SOL    HW114472   4.911  14.340   2.110
 4213SOL    HW214473   4.867  14.278   2.241
 4214SOL     OW14474   2.779   7.002   5.783
 4214SOL    HW114475   2.865   6.962   5.797
 4214SOL    HW214476   2.792   7.094   5.804
 4215SOL     OW14477  12.561   1.827  13.694
 4215SOL    HW114478  12.484   1.815  13.639
 4215SOL    HW214479  12.635   1.827  13.633
 4216SOL     OW14480   6.262   8.607   6.660
 4216SOL    HW114481   6.262   8.642   6.571
 4216SOL    HW214482   6.256   8.685   6.716
 4217SOL     OW14483  10.645  13.594   3.441
 4217SOL    HW114484  10.606  13.666   3.491
 4217SOL    HW214485  10.735  13.621   3.426
 4218SOL     OW14486   5.064   3.845  13.883
 4218SOL    HW114487   5.001   3.916  13.899
 4218SOL    HW214488   5.146   3.891  13.863
 4219SOL     OW14489   8.716   1.999   6.236
 4219SOL    HW114490   8.775   1.997   6.311
 4219SOL    HW214491   8.723   2.089   6.203
 4220SOL     OW14492   4.730   7.556   9.727
 4220SOL    HW114493   4.674   7.491   9.684
 4220SOL    HW214494   4.818   7.538   9.694
 4221SOL     OW14495  10.749  13.093   0.503
 4221SOL    HW114496  10.802  13.063   0.429
 4221SOL    HW214497  10.812  13.106   0.574
 4222SOL     OW14498   8.241   2.046  13.675
 4222SOL    HW114499   8.192   1.967  13.655
 4222SOL    HW214500   8.175   2.113  13.690
 4223SOL     OW14501  13.364   9.613   5.992
 4223SOL    HW114502  13.419   9.690   6.004
 4223SOL    HW214503  13.394   9.576   5.909
 4224SOL     OW14504   0.565   5.289   8.730
 4224SOL    HW114505   0.589   5.382   8.731
 4224SOL    HW214506   0.472   5.289   8.705
 4225SOL     OW14507  12.097  12.139   0.434
 4225SOL    HW114508  12.153  12.079   0.385
 4225SOL    HW214509  12.022  12.085   0.461
 4226SOL     OW14510  13.945   9.147   3.469
 4226SOL    HW114511  14.026   9.170   3.424
 4226SOL    HW214512  13.883   9.126   3.400
 4227SOL     OW14513   1.635   4.836  13.802
 4227SOL    HW114514   1.653   4.922  13.766
 4227SOL    HW214515   1.703   4.779  13.765
 4228SOL     OW14516  10.959  11.937   1.459
 4228SOL    HW114517  10.998  11.997   1.523
 4228SOL    HW214518  10.871  11.920   1.492
 4229SOL     OW14519   1.505  10.145  14.679
 4229SOL    HW114520   1.525  10.112  14.767
 4229SOL    HW214521   1.492  10.066  14.626
 4230SOL     OW14522   6.851   7.068   5.427
 4230SOL    HW114523   6.875   6.976   5.421
 4230SOL    HW214524   6.847   7.085   5.522
 4231SOL     OW14525   0.673   1.579   4.201
 4231SOL    HW114526   0.638   1.555   4.116
 4231SOL    HW214527   0.737   1.511   4.221
 4232SOL     OW14528   2.011   4.588   7.367
 4232SOL    HW114529   1.934   4.642   7.382
 4232SOL    HW214530   2.021   4.585   7.272
 4233SOL     OW14531   8.312  10.525   9.694
 4233SOL    HW114532   8.305  10.604   9.640
 4233SOL    HW214533   8.305  10.556   9.784
 4234SOL     OW14534   1.622  14.850   4.345
 4234SOL    HW114535   1.689  14.876   4.282
 4234SOL    HW214536   1.607   0.049   4.399
 4235SOL     OW14537   3.389  10.575  12.486
 4235SOL    HW114538   3.381  10.501  12.425
 4235SOL    HW214539   3.377  10.536  12.573
 4236SOL     OW14540  11.411   3.026   0.084
 4236SOL    HW114541  11.491   3.025   0.137
 4236SOL    HW214542  11.340   3.023   0.148
 4237SOL     OW14543   4.637   1.228   9.949
 4237SOL    HW114544   4.556   1.259   9.991
 4237SOL    HW214545   4.668   1.303   9.899
 4238SOL     OW14546   1.129   0.353   6.556
 4238SOL    HW114547   1.163   0.442   6.566
 4238SOL    HW214548   1.086   0.334   6.639
 4239SOL     OW14549  14.613  13.466   1.851
 4239SOL    HW114550  14.632  13.395   1.790
 4239SOL    HW214551  14.681  13.531   1.833
 4240SOL     OW14552   0.083   9.529  14.358
 4240SOL    HW114553   0.170   9.529  14.398
 4240SOL    HW214554   0.092   9.585  14.281
 4241SOL     OW14555   8.731   7.834   6.201
 4241SOL    HW114556   8.707   7.741   6.194
 4241SOL    HW214557   8.775   7.854   6.119
 4242SOL     OW14558  14.754   4.471  14.340
 4242SOL    HW114559  14.837   4.518  14.332
 4242SOL    HW214560  14.779   4.379  14.348
 4243SOL     OW14561   2.441   7.735   6.181
 4243SOL    HW114562   2.513   7.757   6.122
 4243SOL    HW214563   2.435   7.810   6.241
 4244SOL     OW14564   4.493   6.267  14.369
 4244SOL    HW114565   4.580   6.303  14.388
 4244SOL    HW214566   4.461   6.236  14.454
 4245SOL     OW14567  12.977   1.715   5.576
 4245SOL    HW114568  12.938   1.739   5.492
 4245SOL    HW214569  12.949   1.625   5.591
 4246SOL     OW14570  11.348   5.339   9.760
 4246SOL    HW114571  11.382   5.370   9.844
 4246SOL    HW214572  11.335   5.245   9.772
 4247SOL     OW14573   8.873   6.292   9.449
 4247SOL    HW114574   8.943   6.320   9.391
 4247SOL    HW214575   8.910   6.220   9.499
 4248SOL     OW14576  10.481   1.347   4.435
 4248SOL    HW114577  10.439   1.429   4.459
 4248SOL    HW214578  10.410   1.283   4.433
 4249SOL     OW14579   3.762   3.150  10.285
 4249SOL    HW114580   3.784   3.197  10.205
 4249SOL    HW214581   3.841   3.154  10.339
 4250SOL     OW14582  10.444   5.523  14.027
 4250SOL    HW114583  10.441   5.441  14.076
 4250SOL    HW214584  10.353   5.539  14.001
 4251SOL     OW14585   9.483   0.752   2.456
 4251SOL    HW114586   9.504   0.659   2.463
 4251SOL    HW214587   9.549   0.788   2.397
 4252SOL     OW14588  10.718   1.936  12.906
 4252SOL    HW114589  10.740   1.964  12.995
 4252SOL    HW214590  10.763   1.853  12.895
 4253SOL     OW14591   0.730   2.732   1.321
 4253SOL    HW114592   0.641   2.697   1.319
 4253SOL    HW214593   0.720   2.827   1.311
 4254SOL     OW14594  12.145  12.264   4.602
 4254SOL    HW114595  12.128  12.171   4.583
 4254SOL    HW214596  12.119  12.274   4.693
 4255SOL     OW14597   4.779  11.270   1.913
 4255SOL    HW114598   4.787  11.190   1.965
 4255SOL    HW214599   4.781  11.240   1.822
 4256SOL     OW14600  12.200   7.605   3.153
 4256SOL    HW114601  12.199   7.646   3.240
 4256SOL    HW214602  12.174   7.675   3.094
 4257SOL     OW14603   3.197   9.699   9.718
 4257SOL    HW114604   3.215   9.630   9.782
 4257SOL    HW214605   3.176   9.776   9.771
 4258SOL     OW14606   5.330   9.280   9.133
 4258SOL    HW114607   5.382   9.339   9.187
 4258SOL    HW214608   5.246   9.325   9.122
 4259SOL     OW14609  12.488   3.569  12.649
 4259SOL    HW114610  12.509   3.490  12.600
 4259SOL    HW214611  12.510   3.641  12.590
 4260SOL     OW14612  11.221   3.572   1.673
 4260SOL    HW114613  11.233   3.577   1.768
 4260SOL    HW214614  11.231   3.662   1.643
 4261SOL     OW14615  10.792   2.737   3.327
 4261SOL    HW114616  10.850   2.661   3.327
 4261SOL    HW214617  10.764   2.746   3.418
 4262SOL     OW14618  12.433   0.528  11.104
 4262SOL    HW114619  12.442   0.513  11.010
 4262SOL    HW214620  12.355   0.479  11.129
 4263SOL     OW14621  12.329   7.242   4.099
 4263SOL    HW114622  12.274   7.255   4.022
 4263SOL    HW214623  12.413   7.212   4.064
 4264SOL     OW14624   2.478   7.107  13.157
 4264SOL    HW114625   2.463   7.193  13.118
 4264SOL    HW214626   2.401   7.056  13.130
 4265SOL     OW14627   9.173  12.984   4.925
 4265SOL    HW114628   9.263  12.965   4.896
 4265SOL    HW214629   9.149  13.063   4.878
 4266SOL     OW14630   4.332  12.514  12.091
 4266SOL    HW114631   4.383  12.443  12.129
 4266SOL    HW214632   4.249  12.473  12.065
 4267SOL     OW14633   3.533   0.776   7.024
 4267SOL    HW114634   3.500   0.838   6.959
 4267SOL    HW214635   3.464   0.710   7.032
 4268SOL     OW14636  11.128   1.808   6.203
 4268SOL    HW114637  11.192   1.815   6.274
 4268SOL    HW214638  11.056   1.866   6.230
 4269SOL     OW14639   8.951   8.712  10.838
 4269SOL    HW114640   8.890   8.762  10.892
 4269SOL    HW214641   8.936   8.742  10.749
 4270SOL     OW14642   6.886  14.373  12.221
 4270SOL    HW114643   6.977  14.386  12.193
 4270SOL    HW214644   6.871  14.442  12.286
 4271SOL     OW14645   1.669  10.757  13.754
 4271SOL    HW114646   1.605  10.712  13.698
 4271SOL    HW214647   1.704  10.827  13.698
 4272SOL     OW14648   2.914   5.078  11.182
 4272SOL    HW114649   2.825   5.068  11.147
 4272SOL    HW214650   2.934   5.171  11.171
 4273SOL     OW14651  11.555   6.994  13.119
 4273SOL    HW114652  11.586   7.021  13.032
 4273SOL    HW214653  11.504   6.915  13.102
 4274SOL     OW14654   4.111   0.629  11.006
 4274SOL    HW114655   4.149   0.644  11.093
 4274SOL    HW214656   4.137   0.705  10.954
 4275SOL     OW14657   2.504  12.679   5.416
 4275SOL    HW114658   2.509  12.588   5.388
 4275SOL    HW214659   2.593  12.702   5.442
 4276SOL     OW14660   9.367  14.408   9.426
 4276SOL    HW114661   9.415  14.490   9.418
 4276SOL    HW214662   9.302  14.424   9.493
 4277SOL     OW14663   3.052   1.056   8.374
 4277SOL    HW114664   3.053   0.960   8.373
 4277SOL    HW214665   2.964   1.079   8.405
 4278SOL     OW14666   2.398   1.530  11.052
 4278SOL    HW114667   2.411   1.436  11.068
 4278SOL    HW214668   2.314   1.550  11.094
 4279SOL     OW14669  10.601   8.936  14.403
 4279SOL    HW114670  10.539   8.863  14.407
 4279SOL    HW214671  10.621   8.954  14.495
 4280SOL     OW14672  13.998   8.812   7.148
 4280SOL    HW114673  14.083   8.771   7.133
 4280SOL    HW214674  13.935   8.740   7.142
 4281SOL     OW14675   4.498   0.433  13.091
 4281SOL    HW114676   4.416   0.443  13.043
 4281SOL    HW214677   4.532   0.348  13.063
 4282SOL     OW14678  12.454   8.400   1.648
 4282SOL    HW114679  12.476   8.491   1.667
 4282SOL    HW214680  12.522   8.349   1.690
 4283SOL     OW14681  13.356   3.764   1.994
 4283SOL    HW114682  13.309   3.692   2.037
 4283SOL    HW214683  13.375   3.825   2.065
 4284SOL     OW14684   2.689   5.446   1.417
 4284SOL    HW114685   2.654   5.492   1.341
 4284SOL    HW214686   2.612   5.415   1.465
 4285SOL     OW14687   3.903   8.048  13.503
 4285SOL    HW114688   3.878   8.031  13.412
 4285SOL    HW214689   3.922   7.961  13.540
 4286SOL     OW14690  13.375  13.858   5.629
 4286SOL    HW114691  13.456  13.898   5.660
 4286SOL    HW214692  13.317  13.931   5.608
 4287SOL     OW14693  11.938  10.945   7.144
 4287SOL    HW114694  11.890  10.989   7.214
 4287SOL    HW214695  11.949  10.855   7.175
 4288SOL     OW14696  11.014   6.498   8.520
 4288SOL    HW114697  11.039   6.424   8.576
 4288SOL    HW214698  10.974   6.560   8.580
 4289SOL     OW14699   5.509  10.822   9.427
 4289SOL    HW114700   5.444  10.851   9.363
 4289SOL    HW214701   5.592  10.826   9.381
 4290SOL     OW14702  13.654  14.613  13.711
 4290SOL    HW114703  13.602  14.682  13.752
 4290SOL    HW214704  13.720  14.660  13.660
 4291SOL     OW14705  14.685   2.334  14.129
 4291SOL    HW114706  14.731   2.259  14.167
 4291SOL    HW214707  14.602   2.339  14.176
 4292SOL     OW14708   3.821   7.684   8.621
 4292SOL    HW114709   3.741   7.633   8.633
 4292SOL    HW214710   3.800   7.771   8.655
 4293SOL     OW14711   5.318   8.191   1.390
 4293SOL    HW114712   5.321   8.183   1.294
 4293SOL    HW214713   5.228   8.215   1.410
 4294SOL     OW14714   8.357   1.318   4.064
 4294SOL    HW114715   8.372   1.321   3.970
 4294SOL    HW214716   8.424   1.259   4.098
 4295SOL     OW14717   0.434   8.766   0.864
 4295SOL    HW114718   0.453   8.786   0.956
 4295SOL    HW214719   0.369   8.696   0.868
 4296SOL     OW14720  14.834   9.023   3.045
 4296SOL    HW114721  14.792   8.937   3.045
 4296SOL    HW214722  14.831   9.052   3.136
 4297SOL     OW14723   2.826  11.861  12.289
 4297SOL    HW114724   2.911  11.820  12.307
 4297SOL    HW214725   2.847  11.938  12.236
 4298SOL     OW14726  14.404   8.861  12.911
 4298SOL    HW114727  14.395   8.786  12.970
 4298SOL    HW214728  14.470   8.916  12.953
 4299SOL     OW14729   1.764   5.560  13.665
 4299SOL    HW114730   1.693   5.625  13.662
 4299SOL    HW214731   1.814   5.583  13.742
 4300SOL     OW14732   6.937   9.828   0.376
 4300SOL    HW114733   6.916   9.911   0.333
 4300SOL    HW214734   7.011   9.849   0.433
 4301SOL     OW14735  11.413  12.382   1.741
 4301SOL    HW114736  11.475  12.444   1.780
 4301SOL    HW214737  11.400  12.415   1.652
 4302SOL     OW14738   3.530   4.484  12.236
 4302SOL    HW114739   3.562   4.415  12.295
 4302SOL    HW214740   3.584   4.560  12.256
 4303SOL     OW14741   3.279   4.261  14.250
 4303SOL    HW114742   3.319   4.288  14.332
 4303SOL    HW214743   3.246   4.173  14.267
 4304SOL     OW14744  14.281   4.451   1.196
 4304SOL    HW114745  14.260   4.419   1.283
 4304SOL    HW214746  14.270   4.375   1.139
 4305SOL     OW14747   2.282   7.472   2.017
 4305SOL    HW114748   2.190   7.463   2.043
 4305SOL    HW214749   2.280   7.533   1.943
 4306SOL     OW14750   2.449   3.959   8.473
 4306SOL    HW114751   2.457   4.029   8.537
 4306SOL    HW214752   2.424   4.003   8.392
 4307SOL     OW14753  14.220  12.525  12.953
 4307SOL    HW114754  14.132  12.500  12.926
 4307SOL    HW214755  14.215  12.532  13.048
 4308SOL     OW14756   5.829   1.538   0.130
 4308SOL    HW114757   5.830   1.443   0.118
 4308SOL    HW214758   5.801   1.573   0.046
 4309SOL     OW14759   4.019  10.005   4.516
 4309SOL    HW114760   4.113  10.015   4.501
 4309SOL    HW214761   3.997   9.919   4.481
 4310SOL     OW14762  11.697  10.021   5.339
 4310SOL    HW114763  11.616  10.061   5.370
 4310SOL    HW214764  11.752  10.094   5.311
 4311SOL     OW14765   9.766   1.204   1.332
 4311SOL    HW114766   9.857   1.222   1.311
 4311SOL    HW214767   9.717   1.232   1.255
 4312SOL     OW14768   8.813  12.622   5.328
 4312SOL    HW114769   8.746  12.577   5.380
 4312SOL    HW214770   8.864  12.551   5.288
 4313SOL     OW14771   9.274   7.394  13.265
 4313SOL    HW114772   9.284   7.466  13.328
 4313SOL    HW214773   9.182   7.369  13.273
 4314SOL     OW14774   3.146   5.368  11.456
 4314SOL    HW114775   3.156   5.275  11.477
 4314SOL    HW214776   3.052   5.378  11.436
 4315SOL     OW14777   0.854   1.354   1.962
 4315SOL    HW114778   0.921   1.289   1.944
 4315SOL    HW214779   0.789   1.341   1.893
 4316SOL     OW14780   5.889   2.979   8.307
 4316SOL    HW114781   5.821   2.979   8.240
 4316SOL    HW214782   5.929   3.065   8.300
 4317SOL     OW14783   5.253   4.208   2.187
 4317SOL    HW114784   5.246   4.297   2.153
 4317SOL    HW214785   5.324   4.169   2.138
 4318SOL     OW14786   1.198  13.137  14.293
 4318SOL    HW114787   1.213  13.213  14.238
 4318SOL    HW214788   1.113  13.153  14.334
 4319SOL     OW14789  10.842   7.831  12.306
 4319SOL    HW114790  10.905   7.776  12.352
 4319SOL    HW214791  10.770   7.841  12.368
 4320SOL     OW14792   5.650  10.998   4.566
 4320SOL    HW114793   5.599  11.046   4.501
 4320SOL    HW214794   5.595  10.922   4.588
 4321SOL     OW14795   1.743   2.475  11.568
 4321SOL    HW114796   1.757   2.518  11.653
 4321SOL    HW214797   1.684   2.534  11.521
 4322SOL     OW14798   5.261   0.976   4.101
 4322SOL    HW114799   5.202   0.903   4.084
 4322SOL    HW214800   5.328   0.940   4.159
 4323SOL     OW14801   2.485  13.118  11.038
 4323SOL    HW114802   2.513  13.160  10.956
 4323SOL    HW214803   2.501  13.025  11.024
 4324SOL     OW14804  11.181  14.584   6.347
 4324SOL    HW114805  11.211  14.513   6.290
 4324SOL    HW214806  11.259  14.637   6.364
 4325SOL     OW14807   5.901   1.392   9.116
 4325SOL    HW114808   5.881   1.392   9.022
 4325SOL    HW214809   5.903   1.300   9.140
 4326SOL     OW14810   4.180  11.011  10.466
 4326SOL    HW114811   4.190  10.983  10.557
 4326SOL    HW214812   4.267  11.039  10.440
 4327SOL     OW14813   0.864   8.023  10.621
 4327SOL    HW114814   0.936   8.077  10.652
 4327SOL    HW214815   0.819   8.077  10.556
 4328SOL     OW14816   6.746  14.567  12.077
 4328SOL    HW114817   6.776  14.484  12.114
 4328SOL    HW214818   6.709  14.615  12.152
 4329SOL     OW14819   8.246   1.170  11.030
 4329SOL    HW114820   8.183   1.241  11.032
 4329SOL    HW214821   8.260   1.152  10.937
 4330SOL     OW14822  13.940   8.214  14.604
 4330SOL    HW114823  14.027   8.206  14.643
 4330SOL    HW214824  13.953   8.267  14.526
 4331SOL     OW14825   4.361   3.771   3.594
 4331SOL    HW114826   4.323   3.761   3.507
 4331SOL    HW214827   4.419   3.695   3.604
 4332SOL     OW14828  11.035   2.591   5.563
 4332SOL    HW114829  11.121   2.572   5.526
 4332SOL    HW214830  11.011   2.675   5.524
 4333SOL     OW14831  13.322  10.180   2.188
 4333SOL    HW114832  13.405  10.170   2.143
 4333SOL    HW214833  13.296  10.091   2.212
 4334SOL     OW14834   3.970   8.401   1.408
 4334SOL    HW114835   3.993   8.309   1.394
 4334SOL    HW214836   3.875   8.403   1.397
 4335SOL     OW14837  12.405  13.574   9.322
 4335SOL    HW114838  12.492  13.607   9.303
 4335SOL    HW214839  12.412  13.537   9.410
 4336SOL     OW14840  11.346  11.652  14.865
 4336SOL    HW114841  11.360  11.714  14.794
 4336SOL    HW214842  11.342  11.705   0.066
 4337SOL     OW14843  12.256   6.351  10.590
 4337SOL    HW114844  12.195   6.416  10.625
 4337SOL    HW214845  12.236   6.271  10.638
 4338SOL     OW14846  11.506  14.191  14.336
 4338SOL    HW114847  11.411  14.182  14.325
 4338SOL    HW214848  11.544  14.130  14.274
 4339SOL     OW14849   7.083   4.873   4.963
 4339SOL    HW114850   7.097   4.935   5.034
 4339SOL    HW214851   7.007   4.908   4.916
 4340SOL     OW14852   9.731   7.128   2.361
 4340SOL    HW114853   9.731   7.113   2.266
 4340SOL    HW214854   9.787   7.058   2.396
 4341SOL     OW14855   6.234  11.957   1.448
 4341SOL    HW114856   6.284  11.887   1.490
 4341SOL    HW214857   6.143  11.930   1.456
 4342SOL     OW14858  14.206   8.565   8.768
 4342SOL    HW114859  14.165   8.648   8.746
 4342SOL    HW214860  14.208   8.517   8.685
 4343SOL     OW14861   9.616   4.632   3.300
 4343SOL    HW114862   9.522   4.649   3.312
 4343SOL    HW214863   9.623   4.536   3.305
 4344SOL     OW14864   0.916  12.258   4.755
 4344SOL    HW114865   0.868  12.280   4.675
 4344SOL    HW214866   0.996  12.309   4.750
 4345SOL     OW14867   8.253   9.337   4.123
 4345SOL    HW114868   8.254   9.264   4.061
 4345SOL    HW214869   8.273   9.297   4.208
 4346SOL     OW14870  11.037  12.823   3.336
 4346SOL    HW114871  11.058  12.917   3.337
 4346SOL    HW214872  11.122  12.779   3.341
 4347SOL     OW14873  13.191   1.473  14.344
 4347SOL    HW114874  13.110   1.488  14.295
 4347SOL    HW214875  13.209   1.556  14.388
 4348SOL     OW14876   1.608   9.559   4.404
 4348SOL    HW114877   1.661   9.504   4.346
 4348SOL    HW214878   1.546   9.499   4.445
 4349SOL     OW14879   1.484   5.594   9.927
 4349SOL    HW114880   1.552   5.545   9.973
 4349SOL    HW214881   1.419   5.614   9.994
 4350SOL     OW14882  11.749  11.895   8.272
 4350SOL    HW114883  11.726  11.807   8.242
 4350SOL    HW214884  11.716  11.953   8.203
 4351SOL     OW14885  10.128   0.915   3.369
 4351SOL    HW114886  10.060   0.970   3.328
 4351SOL    HW214887  10.208   0.936   3.321
 4352SOL     OW14888   2.917   6.100   4.427
 4352SOL    HW114889   2.823   6.084   4.438
 4352SOL    HW214890   2.922   6.190   4.396
 4353SOL     OW14891  14.346   6.965   8.845
 4353SOL    HW114892  14.288   6.889   8.842
 4353SOL    HW214893  14.434   6.928   8.838
 4354SOL     OW14894   5.105   2.788  10.638
 4354SOL    HW114895   5.046   2.774  10.712
 4354SOL    HW214896   5.056   2.756  10.562
 4355SOL     OW14897  11.890   1.481  12.242
 4355SOL    HW114898  11.892   1.403  12.297
 4355SOL    HW214899  11.963   1.469  12.181
 4356SOL     OW14900   3.070   9.832   4.810
 4356SOL    HW114901   3.007   9.824   4.739
 4356SOL    HW214902   3.143   9.881   4.773
 4357SOL     OW14903  13.857  14.414  12.813
 4357SOL    HW114904  13.774  14.436  12.770
 4357SOL    HW214905  13.918  14.482  12.784
 4358SOL     OW14906   4.073   2.145   4.540
 4358SOL    HW114907   4.123   2.209   4.590
 4358SOL    HW214908   4.048   2.078   4.604
 4359SOL     OW14909  10.715   6.171  14.781
 4359SOL    HW114910  10.780   6.101  14.770
 4359SOL    HW214911  10.687   6.162  14.872
 4360SOL     OW14912   0.494   8.601  11.439
 4360SOL    HW114913   0.512   8.678  11.385
 4360SOL    HW214914   0.416   8.563  11.399
 4361SOL     OW14915  14.696   3.666  10.031
 4361SOL    HW114916  14.681   3.760  10.042
 4361SOL    HW214917  14.609   3.630  10.011
 4362SOL     OW14918   2.706   2.566   5.530
 4362SOL    HW114919   2.764   2.556   5.605
 4362SOL    HW214920   2.618   2.560   5.568
 4363SOL     OW14921   9.787   1.115  10.277
 4363SOL    HW114922   9.767   1.179  10.345
 4363SOL    HW214923   9.881   1.100  10.286
 4364SOL     OW14924   6.528   3.231   5.685
 4364SOL    HW114925   6.569   3.236   5.599
 4364SOL    HW214926   6.522   3.137   5.703
 4365SOL     OW14927   8.577  10.904   7.187
 4365SOL    HW114928   8.508  10.842   7.206
 4365SOL    HW214929   8.650  10.850   7.156
 4366SOL     OW14930   9.441  13.356  14.087
 4366SOL    HW114931   9.381  13.315  14.024
 4366SOL    HW214932   9.388  13.422  14.131
 4367SOL     OW14933   5.151  12.928   3.739
 4367SOL    HW114934   5.078  12.981   3.706
 4367SOL    HW214935   5.167  12.962   3.827
 4368SOL     OW14936   7.759  13.479   1.019
 4368SOL    HW114937   7.751  13.574   1.006
 4368SOL    HW214938   7.819  13.451   0.950
 4369SOL     OW14939   6.676   8.629  10.532
 4369SOL    HW114940   6.584   8.618  10.511
 4369SOL    HW214941   6.688   8.724  10.539
 4370SOL     OW14942   5.886   2.306   6.072
 4370SOL    HW114943   5.933   2.328   6.153
 4370SOL    HW214944   5.910   2.374   6.010
 4371SOL     OW14945   9.425   1.181   0.574
 4371SOL    HW114946   9.434   1.260   0.629
 4371SOL    HW214947   9.491   1.192   0.506
 4372SOL     OW14948  12.491  11.974  10.986
 4372SOL    HW114949  12.549  12.049  10.974
 4372SOL    HW214950  12.532  11.923  11.056
 4373SOL     OW14951   7.340   5.623   8.757
 4373SOL    HW114952   7.326   5.561   8.686
 4373SOL    HW214953   7.357   5.568   8.834
 4374SOL     OW14954  11.757  11.923  14.424
 4374SOL    HW114955  11.751  11.962  14.337
 4374SOL    HW214956  11.687  11.857  14.425
 4375SOL     OW14957   4.290   4.445   1.658
 4375SOL    HW114958   4.238   4.525   1.646
 4375SOL    HW214959   4.261   4.386   1.589
 4376SOL     OW14960   6.482  13.071   1.515
 4376SOL    HW114961   6.469  13.123   1.436
 4376SOL    HW214962   6.577  13.064   1.525
 4377SOL     OW14963  14.319   9.016  13.714
 4377SOL    HW114964  14.263   9.090  13.740
 4377SOL    HW214965  14.258   8.948  13.687
 4378SOL     OW14966   1.914   2.506  10.265
 4378SOL    HW114967   1.833   2.547  10.236
 4378SOL    HW214968   1.916   2.421  10.221
 4379SOL     OW14969   0.299   6.100   2.546
 4379SOL    HW114970   0.211   6.131   2.524
 4379SOL    HW214971   0.306   6.111   2.641
 4380SOL     OW14972  12.954  14.093   7.667
 4380SOL    HW114973  12.965  14.055   7.754
 4380SOL    HW214974  12.864  14.126   7.666
 4381SOL     OW14975   0.588   3.096   1.502
 4381SOL    HW114976   0.659   3.051   1.547
 4381SOL    HW214977   0.572   3.174   1.555
 4382SOL     OW14978  14.032   8.107  11.115
 4382SOL    HW114979  14.087   8.035  11.085
 4382SOL    HW214980  13.948   8.094  11.069
 4383SOL     OW14981   3.284   8.173   8.419
 4383SOL    HW114982   3.297   8.091   8.467
 4383SOL    HW214983   3.368   8.188   8.375
 4384SOL     OW14984  14.070   1.671   3.946
 4384SOL    HW114985  14.141   1.639   4.003
 4384SOL    HW214986  13.990   1.655   3.996
 4385SOL     OW14987   2.061  10.057   4.682
 4385SOL    HW114988   2.138  10.067   4.739
 4385SOL    HW214989   2.095  10.013   4.604
 4386SOL     OW14990   8.092   6.911   0.392
 4386SOL    HW114991   8.070   6.992   0.437
 4386SOL    HW214992   8.162   6.935   0.331
 4387SOL     OW14993   0.753   8.169   1.805
 4387SOL    HW114994   0.800   8.095   1.766
 4387SOL    HW214995   0.772   8.163   1.899
 4388SOL     OW14996  14.385  11.262   9.644
 4388SOL    HW114997  14.324  11.323   9.685
 4388SOL    HW214998  14.347  11.244   9.558
 4389SOL     OW14999   3.890  12.972   5.938
 4389SOL    HW115000   3.869  12.994   6.029
 4389SOL    HW215001   3.959  12.907   5.944
 4390SOL     OW15002   7.765   4.427   2.659
 4390SOL    HW115003   7.857   4.418   2.633
 4390SOL    HW215004   7.720   4.452   2.578
 4391SOL     OW15005  13.054  10.553   8.668
 4391SOL    HW115006  12.994  10.519   8.601
 4391SOL    HW215007  13.011  10.632   8.701
 4392SOL     OW15008   8.529   7.509   3.917
 4392SOL    HW115009   8.490   7.461   3.990
 4392SOL    HW215010   8.454   7.532   3.862
 4393SOL     OW15011   3.133  14.283   6.683
 4393SOL    HW115012   3.158  14.324   6.600
 4393SOL    HW215013   3.098  14.355   6.736
 4394SOL     OW15014   7.670   3.600   6.940
 4394SOL    HW115015   7.727   3.535   6.981
 4394SOL    HW215016   7.599   3.611   7.003
 4395SOL     OW15017  13.134   8.995   9.126
 4395SOL    HW115018  13.045   8.996   9.162
 4395SOL    HW215019  13.131   8.928   9.057
 4396SOL     OW15020  10.257   4.218  10.534
 4396SOL    HW115021  10.327   4.201  10.470
 4396SOL    HW215022  10.303   4.239  10.615
 4397SOL     OW15023  10.703   2.855   2.480
 4397SOL    HW115024  10.759   2.777   2.475
 4397SOL    HW215025  10.686   2.866   2.574
 4398SOL     OW15026  14.254   8.074   0.915
 4398SOL    HW115027  14.315   8.148   0.918
 4398SOL    HW215028  14.256   8.045   0.824
 4399SOL     OW15029  11.190   4.271   8.867
 4399SOL    HW115030  11.175   4.361   8.896
 4399SOL    HW215031  11.205   4.222   8.948
 4400SOL     OW15032   9.991   0.206   5.398
 4400SOL    HW115033  10.061   0.150   5.366
 4400SOL    HW215034   9.911   0.169   5.359
 4401SOL     OW15035   7.752   0.781  11.623
 4401SOL    HW115036   7.681   0.732  11.664
 4401SOL    HW215037   7.718   0.806  11.537
 4402SOL     OW15038   5.371   3.766   0.178
 4402SOL    HW115039   5.322   3.800   0.253
 4402SOL    HW215040   5.451   3.729   0.216
 4403SOL     OW15041  11.214  13.634   3.894
 4403SOL    HW115042  11.266  13.562   3.858
 4403SOL    HW215043  11.189  13.605   3.981
 4404SOL     OW15044   4.645   0.512   3.123
 4404SOL    HW115045   4.559   0.485   3.155
 4404SOL    HW215046   4.670   0.444   3.061
 4405SOL     OW15047   1.346   1.770  11.212
 4405SOL    HW115048   1.406   1.843  11.228
 4405SOL    HW215049   1.314   1.745  11.298
 4406SOL     OW15050   1.846   3.618   5.341
 4406SOL    HW115051   1.887   3.655   5.419
 4406SOL    HW215052   1.914   3.564   5.302
 4407SOL     OW15053  11.953   1.614   7.399
 4407SOL    HW115054  11.867   1.649   7.421
 4407SOL    HW215055  11.935   1.540   7.341
 4408SOL     OW15056  12.249  14.076  10.012
 4408SOL    HW115057  12.277  14.154   9.966
 4408SOL    HW215058  12.174  14.043   9.962
 4409SOL     OW15059  11.047   1.592   5.278
 4409SOL    HW115060  11.014   1.568   5.192
 4409SOL    HW215061  10.980   1.561   5.340
 4410SOL     OW15062   5.648   4.540   1.278
 4410SOL    HW115063   5.669   4.481   1.351
 4410SOL    HW215064   5.611   4.618   1.320
 4411SOL     OW15065   8.910   5.350   5.208
 4411SOL    HW115066   8.816   5.368   5.207
 4411SOL    HW215067   8.916   5.254   5.210
 4412SOL     OW15068  11.085   0.667  10.995
 4412SOL    HW115069  11.115   0.735  10.936
 4412SOL    HW215070  11.114   0.585  10.955
 4413SOL     OW15071   9.549   6.082   4.162
 4413SOL    HW115072   9.486   6.151   4.183
 4413SOL    HW215073   9.528   6.011   4.223
 4414SOL     OW15074  13.327  12.820   8.367
 4414SOL    HW115075  13.323  12.876   8.445
 4414SOL    HW215076  13.376  12.871   8.303
 4415SOL     OW15077   7.138   2.079  11.494
 4415SOL    HW115078   7.226   2.077  11.533
 4415SOL    HW215079   7.086   2.025  11.553
 4416SOL     OW15080  13.504   9.647   2.459
 4416SOL    HW115081  13.408   9.637   2.461
 4416SOL    HW215082  13.527   9.640   2.366
 4417SOL     OW15083   3.860  11.285  13.957
 4417SOL    HW115084   3.899  11.198  13.945
 4417SOL    HW215085   3.847  11.318  13.868
 4418SOL     OW15086  10.495  10.669   5.324
 4418SOL    HW115087  10.515  10.680   5.417
 4418SOL    HW215088  10.576  10.696   5.280
 4419SOL     OW15089  12.913   5.054   4.473
 4419SOL    HW115090  12.830   5.087   4.507
 4419SOL    HW215091  12.978   5.118   4.503
 4420SOL     OW15092  13.454   0.042  14.783
 4420SOL    HW115093  13.442   0.121  14.837
 4420SOL    HW215094  13.512   0.070  14.712
 4421SOL     OW15095   2.806  13.249   8.777
 4421SOL    HW115096   2.890  13.265   8.734
 4421SOL    HW215097   2.746  13.229   8.705
 4422SOL     OW15098  14.256   0.531   3.880
 4422SOL    HW115099  14.343   0.544   3.918
 4422SOL    HW215100  14.226   0.620   3.859
 4423SOL     OW15101   8.671  10.456   7.850
 4423SOL    HW115102   8.667  10.551   7.840
 4423SOL    HW215103   8.670  10.423   7.760
 4424SOL     OW15104   8.303   0.699   3.483
 4424SOL    HW115105   8.227   0.739   3.525
 4424SOL    HW215106   8.316   0.616   3.529
 4425SOL     OW15107   9.903  13.203   5.210
 4425SOL    HW115108   9.997  13.222   5.203
 4425SOL    HW215109   9.861  13.279   5.169
 4426SOL     OW15110   4.440  13.329  11.661
 4426SOL    HW115111   4.404  13.358  11.577
 4426SOL    HW215112   4.394  13.247  11.680
 4427SOL     OW15113   6.474  13.690  10.857
 4427SOL    HW115114   6.425  13.733  10.787
 4427SOL    HW215115   6.421  13.613  10.880
 4428SOL     OW15116   2.474  10.152   9.602
 4428SOL    HW115117   2.394  10.199   9.627
 4428SOL    HW215118   2.514  10.127   9.685
 4429SOL     OW15119  14.747   7.585   6.687
 4429SOL    HW115120  14.788   7.612   6.604
 4429SOL    HW215121  14.728   7.492   6.674
 4430SOL     OW15122   0.878  14.339  12.288
 4430SOL    HW115123   0.811  14.398  12.322
 4430SOL    HW215124   0.948  14.396  12.257
 4431SOL     OW15125  13.483   0.485   5.205
 4431SOL    HW115126  13.441   0.507   5.122
 4431SOL    HW215127  13.575   0.508   5.193
 4432SOL     OW15128   3.294   6.620   3.692
 4432SOL    HW115129   3.386   6.601   3.674
 4432SOL    HW215130   3.269   6.685   3.627
 4433SOL     OW15131   4.071   4.639   3.892
 4433SOL    HW115132   4.039   4.723   3.860
 4433SOL    HW215133   4.158   4.658   3.927
 4434SOL     OW15134  12.921  10.997  12.194
 4434SOL    HW115135  12.837  10.993  12.239
 4434SOL    HW215136  12.900  10.990  12.101
 4435SOL     OW15137  12.685   8.114   7.504
 4435SOL    HW115138  12.777   8.140   7.509
 4435SOL    HW215139  12.661   8.090   7.593
 4436SOL     OW15140   6.470   4.923   1.400
 4436SOL    HW115141   6.514   4.852   1.447
 4436SOL    HW215142   6.438   4.981   1.469
 4437SOL     OW15143  12.365   7.116   6.228
 4437SOL    HW115144  12.314   7.076   6.158
 4437SOL    HW215145  12.432   7.051   6.250
 4438SOL     OW15146  14.550   6.631   3.130
 4438SOL    HW115147  14.501   6.564   3.082
 4438SOL    HW215148  14.611   6.667   3.067
 4439SOL     OW15149  10.318   8.983   2.333
 4439SOL    HW115150  10.400   8.933   2.325
 4439SOL    HW215151  10.346   9.074   2.340
 4440SOL     OW15152  11.473  10.489   4.407
 4440SOL    HW115153  11.568  10.484   4.411
 4440SOL    HW215154  11.445  10.472   4.497
 4441SOL     OW15155   1.581   1.806   9.593
 4441SOL    HW115156   1.536   1.735   9.548
 4441SOL    HW215157   1.570   1.882   9.535
 4442SOL     OW15158   4.624   0.895   5.540
 4442SOL    HW115159   4.537   0.864   5.513
 4442SOL    HW215160   4.629   0.985   5.508
 4443SOL     OW15161   2.133   0.129   5.410
 4443SOL    HW115162   2.106   0.219   5.394
 4443SOL    HW215163   2.059   0.089   5.456
 4444SOL     OW15164   4.772   4.990   7.685
 4444SOL    HW115165   4.740   5.079   7.692
 4444SOL    HW215166   4.697   4.938   7.658
 4445SOL     OW15167  12.544  13.615  13.597
 4445SOL    HW115168  12.525  13.709  13.605
 4445SOL    HW215169  12.627  13.611  13.549
 4446SOL     OW15170   2.471   7.197   3.572
 4446SOL    HW115171   2.567   7.198   3.572
 4446SOL    HW215172   2.447   7.279   3.529
 4447SOL     OW15173   4.960   2.146   4.565
 4447SOL    HW115174   4.931   2.166   4.476
 4447SOL    HW215175   4.879   2.129   4.614
 4448SOL     OW15176   9.525  10.791   8.104
 4448SOL    HW115177   9.616  10.764   8.116
 4448SOL    HW215178   9.489  10.797   8.192
 4449SOL     OW15179   5.376   9.966   8.966
 4449SOL    HW115180   5.395  10.055   8.937
 4449SOL    HW215181   5.361   9.917   8.885
 4450SOL     OW15182   9.481  10.532   2.312
 4450SOL    HW115183   9.445  10.605   2.263
 4450SOL    HW215184   9.444  10.454   2.269
 4451SOL     OW15185   3.935   2.010   7.018
 4451SOL    HW115186   4.023   2.005   6.980
 4451SOL    HW215187   3.932   2.095   7.063
 4452SOL     OW15188  10.607   4.448  13.212
 4452SOL    HW115189  10.553   4.369  13.205
 4452SOL    HW215190  10.547   4.520  13.193
 4453SOL     OW15191  10.902  14.651  10.405
 4453SOL    HW115192  10.964  14.724  10.397
 4453SOL    HW215193  10.819  14.686  10.373
 4454SOL     OW15194   6.309  13.391  11.878
 4454SOL    HW115195   6.264  13.466  11.916
 4454SOL    HW215196   6.395  13.425  11.852
 4455SOL     OW15197  13.478   2.891   6.788
 4455SOL    HW115198  13.514   2.858   6.870
 4455SOL    HW215199  13.516   2.978   6.777
 4456SOL     OW15200   5.587  13.782   5.001
 4456SOL    HW115201   5.632  13.717   5.055
 4456SOL    HW215202   5.495  13.776   5.027
 4457SOL     OW15203   4.516   2.136   1.788
 4457SOL    HW115204   4.475   2.132   1.702
 4457SOL    HW215205   4.464   2.200   1.836
 4458SOL     OW15206  11.953   1.757  12.294
 4458SOL    HW115207  11.915   1.796  12.372
 4458SOL    HW215208  11.903   1.677  12.280
 4459SOL     OW15209   7.925   0.438   1.785
 4459SOL    HW115210   7.905   0.487   1.705
 4459SOL    HW215211   7.887   0.490   1.856
 4460SOL     OW15212   4.250  10.335  10.182
 4460SOL    HW115213   4.292  10.278  10.247
 4460SOL    HW215214   4.301  10.321  10.102
 4461SOL     OW15215   8.327   7.874  10.615
 4461SOL    HW115216   8.244   7.918  10.600
 4461SOL    HW215217   8.322   7.844  10.707
 4462SOL     OW15218  13.790  11.754  12.972
 4462SOL    HW115219  13.744  11.688  12.920
 4462SOL    HW215220  13.725  11.786  13.034
 4463SOL     OW15221  11.512   2.489  12.071
 4463SOL    HW115222  11.541   2.564  12.123
 4463SOL    HW215223  11.441   2.523  12.017
 4464SOL     OW15224   5.253   6.151   5.994
 4464SOL    HW115225   5.304   6.189   6.066
 4464SOL    HW215226   5.310   6.160   5.918
 4465SOL     OW15227   5.656  10.063  12.495
 4465SOL    HW115228   5.701  10.013  12.564
 4465SOL    HW215229   5.629   9.997  12.431
 4466SOL     OW15230   0.014   2.104   1.671
 4466SOL    HW115231  14.814   2.135   1.627
 4466SOL    HW215232   0.048   2.181   1.716
 4467SOL     OW15233   4.403  14.491  11.893
 4467SOL    HW115234   4.331  14.493  11.830
 4467SOL    HW215235   4.479  14.522  11.844
 4468SOL     OW15236  14.630   1.546   3.559
 4468SOL    HW115237  14.653   1.477   3.621
 4468SOL    HW215238  14.549   1.583   3.593
 4469SOL     OW15239  12.850   6.305   2.026
 4469SOL    HW115240  12.920   6.279   2.085
 4469SOL    HW215241  12.770   6.271   2.067
 4470SOL     OW15242   8.624   2.654  13.362
 4470SOL    HW115243   8.565   2.617  13.297
 4470SOL    HW215244   8.668   2.579  13.401
 4471SOL     OW15245   1.744  11.428  13.889
 4471SOL    HW115246   1.770  11.371  13.961
 4471SOL    HW215247   1.743  11.516  13.926
 4472SOL     OW15248   5.144   6.552   3.337
 4472SOL    HW115249   5.095   6.501   3.401
 4472SOL    HW215250   5.083   6.565   3.265
 4473SOL     OW15251   0.742   5.079  11.236
 4473SOL    HW115252   0.787   5.159  11.262
 4473SOL    HW215253   0.697   5.103  11.155
 4474SOL     OW15254   4.785   0.947   3.354
 4474SOL    HW115255   4.762   0.888   3.281
 4474SOL    HW215256   4.858   0.903   3.398
 4475SOL     OW15257  14.650  14.590   4.767
 4475SOL    HW115258  14.563  14.625   4.747
 4475SOL    HW215259  14.690  14.577   4.681
 4476SOL     OW15260  13.017   3.592   9.514
 4476SOL    HW115261  13.069   3.511   9.512
 4476SOL    HW215262  12.955   3.580   9.586
 4477SOL     OW15263   2.962  14.100  14.267
 4477SOL    HW115264   3.041  14.048  14.254
 4477SOL    HW215265   2.921  14.103  14.180
 4478SOL     OW15266   3.187   2.233   0.804
 4478SOL    HW115267   3.183   2.267   0.893
 4478SOL    HW215268   3.100   2.252   0.767
 4479SOL     OW15269  14.853   4.830   4.505
 4479SOL    HW115270   0.024   4.866   4.432
 4479SOL    HW215271   0.010   4.873   4.582
 4480SOL     OW15272   8.408   7.181   9.576
 4480SOL    HW115273   8.392   7.151   9.666
 4480SOL    HW215274   8.449   7.105   9.534
 4481SOL     OW15275  11.303   2.846  12.254
 4481SOL    HW115276  11.340   2.841  12.166
 4481SOL    HW215277  11.350   2.779  12.304
 4482SOL     OW15278   0.108   8.343   3.357
 4482SOL    HW115279   0.142   8.336   3.446
 4482SOL    HW215280   0.039   8.409   3.362
 4483SOL     OW15281  12.215   4.813   9.628
 4483SOL    HW115282  12.309   4.833   9.622
 4483SOL    HW215283  12.211   4.735   9.684
 4484SOL     OW15284   2.170   1.651  12.121
 4484SOL    HW115285   2.110   1.666  12.195
 4484SOL    HW215286   2.186   1.739  12.086
 4485SOL     OW15287   9.048  14.486   8.340
 4485SOL    HW115288   9.034  14.575   8.308
 4485SOL    HW215289   9.134  14.462   8.306
 4486SOL     OW15290  12.380   2.360   5.239
 4486SOL    HW115291  12.359   2.361   5.333
 4486SOL    HW215292  12.328   2.430   5.202
 4487SOL     OW15293  11.813  11.877   3.029
 4487SOL    HW115294  11.848  11.888   3.117
 4487SOL    HW215295  11.752  11.803   3.036
 4488SOL     OW15296   9.771   4.824   6.639
 4488SOL    HW115297   9.849   4.771   6.654
 4488SOL    HW215298   9.714   4.767   6.587
 4489SOL     OW15299  12.615   7.648  13.969
 4489SOL    HW115300  12.532   7.601  13.967
 4489SOL    HW215301  12.681   7.579  13.980
 4490SOL     OW15302   9.222  12.147   5.720
 4490SOL    HW115303   9.242  12.087   5.791
 4490SOL    HW215304   9.191  12.091   5.649
 4491SOL     OW15305  10.476   4.510   5.985
 4491SOL    HW115306  10.559   4.552   6.010
 4491SOL    HW215307  10.433   4.573   5.928
 4492SOL     OW15308   6.257   3.109   6.011
 4492SOL    HW115309   6.207   3.190   6.005
 4492SOL    HW215310   6.209   3.047   5.956
 4493SOL     OW15311   4.132   2.169   2.751
 4493SOL    HW115312   4.052   2.137   2.709
 4493SOL    HW215313   4.203   2.144   2.691
 4494SOL     OW15314  14.096  10.313  11.536
 4494SOL    HW115315  14.176  10.307  11.484
 4494SOL    HW215316  14.031  10.350  11.476
 4495SOL     OW15317  11.368   0.305   2.277
 4495SOL    HW115318  11.457   0.280   2.254
 4495SOL    HW215319  11.371   0.400   2.285
 4496SOL     OW15320   8.020   9.223   7.832
 4496SOL    HW115321   7.967   9.161   7.882
 4496SOL    HW215322   8.082   9.168   7.783
 4497SOL     OW15323   0.387   1.456   0.777
 4497SOL    HW115324   0.323   1.477   0.845
 4497SOL    HW215325   0.448   1.396   0.819
 4498SOL     OW15326   4.803   2.318   5.258
 4498SOL    HW115327   4.812   2.411   5.238
 4498SOL    HW215328   4.854   2.305   5.338
 4499SOL     OW15329   9.187   8.324   0.698
 4499SOL    HW115330   9.200   8.261   0.769
 4499SOL    HW215331   9.112   8.376   0.725
 4500SOL     OW15332  13.800   7.387   4.744
 4500SOL    HW115333  13.741   7.454   4.710
 4500SOL    HW215334  13.785   7.387   4.839
 4501SOL     OW15335   1.624  11.234   3.716
 4501SOL    HW115336   1.590  11.149   3.690
 4501SOL    HW215337   1.687  11.215   3.786
 4502SOL     OW15338   1.337  13.396   1.704
 4502SOL    HW115339   1.324  13.302   1.718
 4502SOL    HW215340   1.401  13.400   1.633
 4503SOL     OW15341   0.411   0.890   4.933
 4503SOL    HW115342   0.502   0.860   4.933
 4503SOL    HW215343   0.376   0.859   5.016
 4504SOL     OW15344   2.118   9.119   8.210
 4504SOL    HW115345   2.205   9.078   8.208
 4504SOL    HW215346   2.120   9.182   8.138
 4505SOL     OW15347   2.702   1.374   4.485
 4505SOL    HW115348   2.687   1.340   4.573
 4505SOL    HW215349   2.754   1.453   4.497
 4506SOL     OW15350   0.504   9.347   2.029
 4506SOL    HW115351   0.414   9.380   2.022
 4506SOL    HW215352   0.508   9.276   1.965
 4507SOL     OW15353   0.695   5.205  13.133
 4507SOL    HW115354   0.753   5.252  13.193
 4507SOL    HW215355   0.647   5.145  13.190
 4508SOL     OW15356   4.371  12.583  14.470
 4508SOL    HW115357   4.382  12.546  14.382
 4508SOL    HW215358   4.277  12.593  14.480
 4509SOL     OW15359  11.084   4.513   5.156
 4509SOL    HW115360  11.102   4.427   5.195
 4509SOL    HW215361  11.141   4.574   5.203
 4510SOL     OW15362   3.813  12.057   2.096
 4510SOL    HW115363   3.781  11.999   2.165
 4510SOL    HW215364   3.879  12.111   2.140
 4511SOL     OW15365  12.094   6.347  14.706
 4511SOL    HW115366  12.004   6.369  14.681
 4511SOL    HW215367  12.107   6.258  14.673
 4512SOL     OW15368   3.803   2.134  11.865
 4512SOL    HW115369   3.771   2.158  11.778
 4512SOL    HW215370   3.896   2.118  11.852
 4513SOL     OW15371  14.723  13.814   3.253
 4513SOL    HW115372  14.778  13.740   3.279
 4513SOL    HW215373  14.741  13.881   3.319
 4514SOL     OW15374   8.651   4.135  10.954
 4514SOL    HW115375   8.562   4.120  10.921
 4514SOL    HW215376   8.641   4.204  11.019
 4515SOL     OW15377   4.704   1.584   6.758
 4515SOL    HW115378   4.648   1.636   6.816
 4515SOL    HW215379   4.714   1.640   6.680
 4516SOL     OW15380  13.636   2.094   3.313
 4516SOL    HW115381  13.717   2.132   3.347
 4516SOL    HW215382  13.621   2.017   3.369
 4517SOL     OW15383  11.789   2.841  11.307
 4517SOL    HW115384  11.725   2.874  11.370
 4517SOL    HW215385  11.804   2.914  11.247
 4518SOL     OW15386  13.105   1.195  14.242
 4518SOL    HW115387  13.140   1.280  14.218
 4518SOL    HW215388  13.025   1.187  14.189
 4519SOL     OW15389   9.056   7.114  12.383
 4519SOL    HW115390   9.018   7.057  12.315
 4519SOL    HW215391   9.130   7.157  12.340
 4520SOL     OW15392   6.182   2.172   5.069
 4520SOL    HW115393   6.153   2.211   5.152
 4520SOL    HW215394   6.135   2.089   5.064
 4521SOL     OW15395  13.119  12.543   1.528
 4521SOL    HW115396  13.035  12.575   1.559
 4521SOL    HW215397  13.110  12.448   1.527
 4522SOL     OW15398   9.726  11.030   8.010
 4522SOL    HW115399   9.806  10.985   8.037
 4522SOL    HW215400   9.667  10.960   7.981
 4523SOL     OW15401  10.525   4.580  11.978
 4523SOL    HW115402  10.528   4.661  12.029
 4523SOL    HW215403  10.465   4.599  11.906
 4524SOL     OW15404   2.470   5.528   9.226
 4524SOL    HW115405   2.411   5.490   9.161
 4524SOL    HW215406   2.436   5.617   9.240
 4525SOL     OW15407   7.678   0.386  13.237
 4525SOL    HW115408   7.677   0.324  13.164
 4525SOL    HW215409   7.610   0.354  13.297
 4526SOL     OW15410   9.209   3.232   2.027
 4526SOL    HW115411   9.192   3.159   1.968
 4526SOL    HW215412   9.126   3.246   2.073
 4527SOL     OW15413  10.014   9.491   6.704
 4527SOL    HW115414   9.937   9.448   6.667
 4527SOL    HW215415  10.083   9.424   6.701
 4528SOL     OW15416   2.096   4.573   5.467
 4528SOL    HW115417   2.148   4.515   5.411
 4528SOL    HW215418   2.139   4.570   5.552
 4529SOL     OW15419   8.680   1.649   7.553
 4529SOL    HW115420   8.634   1.696   7.623
 4529SOL    HW215421   8.630   1.668   7.474
 4530SOL     OW15422   9.478   7.319   1.347
 4530SOL    HW115423   9.409   7.364   1.300
 4530SOL    HW215424   9.508   7.382   1.412
 4531SOL     OW15425  12.869   5.249   5.437
 4531SOL    HW115426  12.956   5.224   5.469
 4531SOL    HW215427  12.830   5.298   5.509
 4532SOL     OW15428  14.057  11.345  10.631
 4532SOL    HW115429  14.074  11.376  10.719
 4532SOL    HW215430  14.064  11.422  10.576
 4533SOL     OW15431   9.236   2.439   1.574
 4533SOL    HW115432   9.262   2.352   1.605
 4533SOL    HW215433   9.257   2.497   1.647
 4534SOL     OW15434  10.867   8.730   2.827
 4534SOL    HW115435  10.883   8.821   2.853
 4534SOL    HW215436  10.923   8.717   2.750
 4535SOL     OW15437   8.629   1.704   1.626
 4535SOL    HW115438   8.670   1.619   1.642
 4535SOL    HW215439   8.595   1.731   1.712
 4536SOL     OW15440   0.634  13.230  10.859
 4536SOL    HW115441   0.637  13.172  10.935
 4536SOL    HW215442   0.723  13.228  10.824
 4537SOL     OW15443   7.503   5.243   4.917
 4537SOL    HW115444   7.460   5.162   4.947
 4537SOL    HW215445   7.590   5.214   4.889
 4538SOL     OW15446   2.910  11.710  13.519
 4538SOL    HW115447   2.991  11.720  13.569
 4538SOL    HW215448   2.871  11.798  13.521
 4539SOL     OW15449  13.046   8.779   6.465
 4539SOL    HW115450  13.002   8.824   6.538
 4539SOL    HW215451  13.139   8.794   6.482
 4540SOL     OW15452   5.454   0.350   6.235
 4540SOL    HW115453   5.362   0.363   6.259
 4540SOL    HW215454   5.500   0.345   6.320
 4541SOL     OW15455  13.386   3.824   5.742
 4541SOL    HW115456  13.418   3.782   5.662
 4541SOL    HW215457  13.370   3.752   5.803
 4542SOL     OW15458  14.433   4.407   9.140
 4542SOL    HW115459  14.378   4.348   9.190
 4542SOL    HW215460  14.416   4.383   9.048
 4543SOL     OW15461  12.950  14.664   1.809
 4543SOL    HW115462  12.926  14.603   1.879
 4543SOL    HW215463  13.020  14.718   1.846
 4544SOL     OW15464   7.413  12.924   5.747
 4544SOL    HW115465   7.478  12.863   5.782
 4544SOL    HW215466   7.364  12.954   5.824
 4545SOL     OW15467  11.365   5.541   3.219
 4545SOL    HW115468  11.387   5.631   3.195
 4545SOL    HW215469  11.269   5.538   3.214
 4546SOL     OW15470   5.725  10.051   7.525
 4546SOL    HW115471   5.724  10.094   7.610
 4546SOL    HW215472   5.660   9.982   7.532
 4547SOL     OW15473   7.784   8.851  14.788
 4547SOL    HW115474   7.763   8.791  14.860
 4547SOL    HW215475   7.787   8.796  14.710
 4548SOL     OW15476   2.517  12.492   8.133
 4548SOL    HW115477   2.522  12.476   8.038
 4548SOL    HW215478   2.580  12.430   8.170
 4549SOL     OW15479  13.460   9.545   5.047
 4549SOL    HW115480  13.516   9.622   5.038
 4549SOL    HW215481  13.442   9.519   4.956
 4550SOL     OW15482   3.971  13.522   2.890
 4550SOL    HW115483   3.978  13.446   2.947
 4550SOL    HW215484   3.895  13.504   2.835
 4551SOL     OW15485   0.786   6.197  13.852
 4551SOL    HW115486   0.752   6.174  13.939
 4551SOL    HW215487   0.709   6.205  13.797
 4552SOL     OW15488   4.125  14.367   2.604
 4552SOL    HW115489   4.188  14.405   2.665
 4552SOL    HW215490   4.117  14.431   2.534
 4553SOL     OW15491   3.760  11.519  11.995
 4553SOL    HW115492   3.822  11.536  11.924
 4553SOL    HW215493   3.768  11.595  12.053
 4554SOL     OW15494  11.221  13.250  10.470
 4554SOL    HW115495  11.230  13.318  10.538
 4554SOL    HW215496  11.132  13.218  10.479
 4555SOL     OW15497  13.464   8.861   0.202
 4555SOL    HW115498  13.556   8.846   0.220
 4555SOL    HW215499  13.441   8.938   0.255
 4556SOL     OW15500   5.123  12.743   8.196
 4556SOL    HW115501   5.041  12.778   8.233
 4556SOL    HW215502   5.102  12.652   8.173
 4557SOL     OW15503   6.335   3.442   8.630
 4557SOL    HW115504   6.261   3.501   8.646
 4557SOL    HW215505   6.377   3.478   8.551
 4558SOL     OW15506   8.528   0.476   9.957
 4558SOL    HW115507   8.555   0.551   9.904
 4558SOL    HW215508   8.436   0.463   9.935
 4559SOL     OW15509   7.993   7.529   0.572
 4559SOL    HW115510   8.077   7.489   0.593
 4559SOL    HW215511   8.014   7.619   0.548
 4560SOL     OW15512   4.781   6.546   1.347
 4560SOL    HW115513   4.726   6.558   1.269
 4560SOL    HW215514   4.871   6.545   1.312
 4561SOL     OW15515   7.428  10.341   4.975
 4561SOL    HW115516   7.427  10.245   4.979
 4561SOL    HW215517   7.474  10.361   4.894
 4562SOL     OW15518  14.160  11.053   3.050
 4562SOL    HW115519  14.239  11.103   3.074
 4562SOL    HW215520  14.131  11.015   3.132
 4563SOL     OW15521   6.641  13.588   2.528
 4563SOL    HW115522   6.626  13.494   2.538
 4563SOL    HW215523   6.564  13.629   2.567
 4564SOL     OW15524   1.144   2.778  13.071
 4564SOL    HW115525   1.144   2.873  13.063
 4564SOL    HW215526   1.062   2.758  13.116
 4565SOL     OW15527  11.895   9.389   9.280
 4565SOL    HW115528  11.914   9.353   9.193
 4565SOL    HW215529  11.980   9.389   9.324
 4566SOL     OW15530   5.301   9.782  11.229
 4566SOL    HW115531   5.236   9.823  11.172
 4566SOL    HW215532   5.349   9.856  11.267
 4567SOL     OW15533  10.453   4.584   1.714
 4567SOL    HW115534  10.359   4.598   1.727
 4567SOL    HW215535  10.495   4.646   1.773
 4568SOL     OW15536   7.512   3.667   5.985
 4568SOL    HW115537   7.485   3.730   5.918
 4568SOL    HW215538   7.485   3.582   5.950
 4569SOL     OW15539   0.615   5.532   5.845
 4569SOL    HW115540   0.570   5.580   5.776
 4569SOL    HW215541   0.627   5.444   5.810
 4570SOL     OW15542  10.902   9.451   7.857
 4570SOL    HW115543  10.877   9.392   7.928
 4570SOL    HW215544  10.820   9.471   7.812
 4571SOL     OW15545  12.609  12.666   3.604
 4571SOL    HW115546  12.581  12.637   3.518
 4571SOL    HW215547  12.533  12.714   3.639
 4572SOL     OW15548  13.736  13.240  10.695
 4572SOL    HW115549  13.695  13.177  10.754
 4572SOL    HW215550  13.821  13.202  10.675
 4573SOL     OW15551  10.300  13.691   6.002
 4573SOL    HW115552  10.239  13.630   6.043
 4573SOL    HW215553  10.271  13.694   5.910
 4574SOL     OW15554   4.305   8.746   9.009
 4574SOL    HW115555   4.365   8.672   9.000
 4574SOL    HW215556   4.351   8.807   9.066
 4575SOL     OW15557   5.484  14.483   0.475
 4575SOL    HW115558   5.440  14.481   0.560
 4575SOL    HW215559   5.418  14.453   0.413
 4576SOL     OW15560   1.773  10.993  14.819
 4576SOL    HW115561   1.786  10.989  14.724
 4576SOL    HW215562   1.702  10.931  14.836
 4577SOL     OW15563   8.559   8.106   3.315
 4577SOL    HW115564   8.566   8.127   3.408
 4577SOL    HW215565   8.540   8.012   3.313
 4578SOL     OW15566  10.854  10.396   7.834
 4578SOL    HW115567  10.888  10.342   7.906
 4578SOL    HW215568  10.784  10.447   7.874
 4579SOL     OW15569   2.101  11.984   6.500
 4579SOL    HW115570   2.147  11.983   6.584
 4579SOL    HW215571   2.022  11.932   6.515
 4580SOL     OW15572  10.059   5.219  11.590
 4580SOL    HW115573   9.974   5.175  11.589
 4580SOL    HW215574  10.047   5.297  11.537
 4581SOL     OW15575   7.506  12.229   3.258
 4581SOL    HW115576   7.488  12.187   3.343
 4581SOL    HW215577   7.491  12.160   3.194
 4582SOL     OW15578  11.715  12.705   5.825
 4582SOL    HW115579  11.695  12.793   5.858
 4582SOL    HW215580  11.809  12.708   5.805
 4583SOL     OW15581  12.252   5.210  11.456
 4583SOL    HW115582  12.173   5.157  11.466
 4583SOL    HW215583  12.220   5.297  11.434
 4584SOL     OW15584  12.247  11.996  11.479
 4584SOL    HW115585  12.236  12.033  11.566
 4584SOL    HW215586  12.256  12.072  11.421
 4585SOL     OW15587   5.457   9.960   1.520
 4585SOL    HW115588   5.474  10.045   1.481
 4585SOL    HW215589   5.519   9.901   1.478
 4586SOL     OW15590  13.428   3.142   6.066
 4586SOL    HW115591  13.351   3.164   6.014
 4586SOL    HW215592  13.393   3.100   6.144
 4587SOL     OW15593   1.826  13.578   9.703
 4587SOL    HW115594   1.920  13.589   9.688
 4587SOL    HW215595   1.820  13.506   9.765
 4588SOL     OW15596   6.117  13.865   8.674
 4588SOL    HW115597   6.054  13.923   8.717
 4588SOL    HW215598   6.070  13.782   8.663
 4589SOL     OW15599   1.554   5.863  12.608
 4589SOL    HW115600   1.559   5.921  12.684
 4589SOL    HW215601   1.479   5.806  12.626
 4590SOL     OW15602  12.049   6.398   7.590
 4590SOL    HW115603  11.972   6.425   7.639
 4590SOL    HW215604  12.057   6.304   7.607
 4591SOL     OW15605  13.302   5.270   1.106
 4591SOL    HW115606  13.302   5.311   1.192
 4591SOL    HW215607  13.390   5.286   1.071
 4592SOL     OW15608   1.468   8.834   5.700
 4592SOL    HW115609   1.510   8.885   5.769
 4592SOL    HW215610   1.403   8.894   5.662
 4593SOL     OW15611   1.105   7.633   2.121
 4593SOL    HW115612   1.015   7.641   2.090
 4593SOL    HW215613   1.110   7.692   2.197
 4594SOL     OW15614   5.718  10.848   9.215
 4594SOL    HW115615   5.799  10.800   9.232
 4594SOL    HW215616   5.696  10.825   9.125
 4595SOL     OW15617   0.978   9.295   2.174
 4595SOL    HW115618   1.018   9.363   2.229
 4595SOL    HW215619   0.892   9.330   2.152
 4596SOL     OW15620   1.711   5.423  12.751
 4596SOL    HW115621   1.806   5.416  12.753
 4596SOL    HW215622   1.693   5.517  12.759
 4597SOL     OW15623  12.697  11.326  12.056
 4597SOL    HW115624  12.782  11.333  12.099
 4597SOL    HW215625  12.708  11.255  11.993
 4598SOL     OW15626   3.160   1.683   0.331
 4598SOL    HW115627   3.110   1.763   0.347
 4598SOL    HW215628   3.248   1.703   0.363
 4599SOL     OW15629   4.683   4.898  14.274
 4599SOL    HW115630   4.597   4.909  14.233
 4599SOL    HW215631   4.742   4.955  14.224
 4600SOL     OW15632   3.946  10.236   4.369
 4600SOL    HW115633   3.980  10.161   4.418
 4600SOL    HW215634   4.006  10.246   4.295
 4601SOL     OW15635   0.748  12.635   1.345
 4601SOL    HW115636   0.754  12.540   1.356
 4601SOL    HW215637   0.824  12.669   1.393
 4602SOL     OW15638   2.167   8.797   6.260
 4602SOL    HW115639   2.104   8.726   6.248
 4602SOL    HW215640   2.153   8.855   6.186
 4603SOL     OW15641   7.162  14.476  10.180
 4603SOL    HW115642   7.190  14.395  10.137
 4603SOL    HW215643   7.149  14.538  10.109
 4604SOL     OW15644   1.643   5.710   2.859
 4604SOL    HW115645   1.600   5.790   2.829
 4604SOL    HW215646   1.575   5.643   2.854
 4605SOL     OW15647   6.468   5.009  10.384
 4605SOL    HW115648   6.424   4.996  10.299
 4605SOL    HW215649   6.561   5.008  10.363
 4606SOL     OW15650   5.121   3.986   5.789
 4606SOL    HW115651   5.056   3.964   5.855
 4606SOL    HW215652   5.200   3.940   5.816
 4607SOL     OW15653   6.810   9.480   1.325
 4607SOL    HW115654   6.735   9.422   1.333
 4607SOL    HW215655   6.857   9.448   1.248
 4608SOL     OW15656   1.794   5.421   2.830
 4608SOL    HW115657   1.837   5.462   2.905
 4608SOL    HW215658   1.700   5.433   2.847
 4609SOL     OW15659   3.843  13.295   4.833
 4609SOL    HW115660   3.784  13.225   4.862
 4609SOL    HW215661   3.802  13.329   4.754
 4610SOL     OW15662   1.002  10.289   3.965
 4610SOL    HW115663   1.006  10.298   4.060
 4610SOL    HW215664   0.980  10.197   3.951
 4611SOL     OW15665   5.384   3.522   8.604
 4611SOL    HW115666   5.468   3.493   8.640
 4611SOL    HW215667   5.407   3.595   8.546
 4612SOL     OW15668   6.543  12.342   0.676
 4612SOL    HW115669   6.584  12.268   0.720
 4612SOL    HW215670   6.478  12.303   0.618
 4613SOL     OW15671   0.402  10.894   3.732
 4613SOL    HW115672   0.376  10.950   3.805
 4613SOL    HW215673   0.393  10.949   3.654
 4614SOL     OW15674   1.344  12.875  11.205
 4614SOL    HW115675   1.323  12.951  11.258
 4614SOL    HW215676   1.428  12.896  11.164
 4615SOL     OW15677   1.858   1.451   4.059
 4615SOL    HW115678   1.841   1.510   3.986
 4615SOL    HW215679   1.873   1.509   4.134
 4616SOL     OW15680   1.153   4.991   3.979
 4616SOL    HW115681   1.164   4.904   3.940
 4616SOL    HW215682   1.164   4.978   4.073
 4617SOL     OW15683   3.296   9.920  12.805
 4617SOL    HW115684   3.337   9.955  12.883
 4617SOL    HW215685   3.368   9.903  12.744
 4618SOL     OW15686  14.059   6.729   0.617
 4618SOL    HW115687  14.013   6.763   0.540
 4618SOL    HW215688  14.056   6.802   0.680
 4619SOL     OW15689  11.841   4.772  10.785
 4619SOL    HW115690  11.820   4.725  10.866
 4619SOL    HW215691  11.911   4.721  10.745
 4620SOL     OW15692  12.001   0.814  14.662
 4620SOL    HW115693  11.996   0.744  14.727
 4620SOL    HW215694  11.911   0.825  14.632
 4621SOL     OW15695   1.171   4.269  12.346
 4621SOL    HW115696   1.218   4.284  12.428
 4621SOL    HW215697   1.079   4.257  12.373
 4622SOL     OW15698   0.487   5.568  14.821
 4622SOL    HW115699   0.504   5.603  14.734
 4622SOL    HW215700   0.559   5.600  14.875
 4623SOL     OW15701  14.798   4.478   5.508
 4623SOL    HW115702  14.791   4.574   5.501
 4623SOL    HW215703  14.724   4.446   5.457
 4624SOL     OW15704   4.665   3.034   1.872
 4624SOL    HW115705   4.730   3.049   1.940
 4624SOL    HW215706   4.648   2.940   1.875
 4625SOL     OW15707  10.046   9.432   2.575
 4625SOL    HW115708  10.016   9.506   2.523
 4625SOL    HW215709  10.079   9.369   2.510
 4626SOL     OW15710   7.437  10.745  10.570
 4626SOL    HW115711   7.510  10.754  10.631
 4626SOL    HW215712   7.425  10.832  10.533
 4627SOL     OW15713  14.110   2.433  12.035
 4627SOL    HW115714  14.137   2.519  12.003
 4627SOL    HW215715  14.189   2.397  12.075
 4628SOL     OW15716   4.540   0.994   6.630
 4628SOL    HW115717   4.498   0.932   6.570
 4628SOL    HW215718   4.628   1.005   6.595
 4629SOL     OW15719   9.073   3.534   1.144
 4629SOL    HW115720   9.131   3.477   1.093
 4629SOL    HW215721   9.038   3.597   1.081
 4630SOL     OW15722   8.330   0.124   8.472
 4630SOL    HW115723   8.400   0.172   8.516
 4630SOL    HW215724   8.351   0.129   8.379
 4631SOL     OW15725  13.453   2.423  12.989
 4631SOL    HW115726  13.533   2.377  12.963
 4631SOL    HW215727  13.455   2.504  12.937
 4632SOL     OW15728  11.658   0.402   2.904
 4632SOL    HW115729  11.601   0.472   2.936
 4632SOL    HW215730  11.677   0.426   2.814
 4633SOL     OW15731   2.116  10.796   1.077
 4633SOL    HW115732   2.085  10.705   1.084
 4633SOL    HW215733   2.074  10.829   0.998
 4634SOL     OW15734   8.846   6.525  10.494
 4634SOL    HW115735   8.910   6.575  10.545
 4634SOL    HW215736   8.773   6.585  10.480
 4635SOL     OW15737   9.398  12.289   7.826
 4635SOL    HW115738   9.414  12.315   7.736
 4635SOL    HW215739   9.446  12.354   7.879
 4636SOL     OW15740   7.282  13.634  10.007
 4636SOL    HW115741   7.368  13.676  10.015
 4636SOL    HW215742   7.284  13.563  10.070
 4637SOL     OW15743   6.006  14.334  13.129
 4637SOL    HW115744   6.042  14.305  13.213
 4637SOL    HW215745   6.048  14.278  13.064
 4638SOL     OW15746  12.948   9.318   3.179
 4638SOL    HW115747  13.009   9.256   3.139
 4638SOL    HW215748  13.003   9.375   3.233
 4639SOL     OW15749  13.306   6.542   7.103
 4639SOL    HW115750  13.277   6.564   7.014
 4639SOL    HW215751  13.398   6.566   7.105
 4640SOL     OW15752  13.350   4.536   1.831
 4640SOL    HW115753  13.348   4.593   1.754
 4640SOL    HW215754  13.389   4.454   1.799
 4641SOL     OW15755   4.175   2.709   5.621
 4641SOL    HW115756   4.160   2.703   5.526
 4641SOL    HW215757   4.088   2.712   5.659
 4642SOL     OW15758   8.044   6.280  14.641
 4642SOL    HW115759   8.093   6.245  14.567
 4642SOL    HW215760   7.964   6.228  14.643
 4643SOL     OW15761   0.549   8.361   4.686
 4643SOL    HW115762   0.625   8.408   4.651
 4643SOL    HW215763   0.579   8.271   4.697
 4644SOL     OW15764  13.066   1.171   6.051
 4644SOL    HW115765  13.056   1.099   5.989
 4644SOL    HW215766  13.127   1.231   6.009
 4645SOL     OW15767  14.332   3.139  14.071
 4645SOL    HW115768  14.320   3.198  14.146
 4645SOL    HW215769  14.302   3.054  14.102
 4646SOL     OW15770   1.797   6.852   1.251
 4646SOL    HW115771   1.703   6.842   1.239
 4646SOL    HW215772   1.836   6.791   1.188
 4647SOL     OW15773   7.096   2.679  12.339
 4647SOL    HW115774   7.160   2.608  12.329
 4647SOL    HW215775   7.042   2.673  12.260
 4648SOL     OW15776   5.173   2.153  12.388
 4648SOL    HW115777   5.197   2.232  12.436
 4648SOL    HW215778   5.216   2.161  12.303
 4649SOL     OW15779   2.306   1.116   3.681
 4649SOL    HW115780   2.261   1.162   3.752
 4649SOL    HW215781   2.331   1.032   3.719
 4650SOL     OW15782   8.784  10.470  13.647
 4650SOL    HW115783   8.781  10.388  13.597
 4650SOL    HW215784   8.875  10.478  13.675
 4651SOL     OW15785  13.600   4.297   2.747
 4651SOL    HW115786  13.618   4.205   2.764
 4651SOL    HW215787  13.526   4.296   2.686
 4652SOL     OW15788   9.582   9.331  12.528
 4652SOL    HW115789   9.541   9.255  12.486
 4652SOL    HW215790   9.613   9.298  12.612
 4653SOL     OW15791   2.413  12.275  14.600
 4653SOL    HW115792   2.400  12.356  14.550
 4653SOL    HW215793   2.507  12.258  14.594
 4654SOL     OW15794   3.967   2.275  12.279
 4654SOL    HW115795   4.030   2.218  12.235
 4654SOL    HW215796   4.020   2.334  12.331
 4655SOL     OW15797   5.136   7.086   7.752
 4655SOL    HW115798   5.152   7.008   7.697
 4655SOL    HW215799   5.046   7.111   7.733
 4656SOL     OW15800   0.284   3.105   1.617
 4656SOL    HW115801   0.357   3.166   1.628
 4656SOL    HW215802   0.212   3.160   1.587
 4657SOL     OW15803   4.202   5.417   7.358
 4657SOL    HW115804   4.137   5.384   7.421
 4657SOL    HW215805   4.201   5.354   7.287
 4658SOL     OW15806  12.000   1.028   5.271
 4658SOL    HW115807  12.079   1.079   5.254
 4658SOL    HW215808  11.995   1.021   5.367
 4659SOL     OW15809  11.451   3.884   0.802
 4659SOL    HW115810  11.520   3.951   0.809
 4659SOL    HW215811  11.411   3.900   0.717
 4660SOL     OW15812  13.222   9.442   9.088
 4660SOL    HW115813  13.202   9.356   9.050
 4660SOL    HW215814  13.300   9.472   9.040
 4661SOL     OW15815  10.326  14.287   5.665
 4661SOL    HW115816  10.245  14.238   5.655
 4661SOL    HW215817  10.355  14.305   5.575
 4662SOL     OW15818  13.553   0.152  11.866
 4662SOL    HW115819  13.537   0.064  11.832
 4662SOL    HW215820  13.535   0.145  11.960
 4663SOL     OW15821   1.154   4.857   2.758
 4663SOL    HW115822   1.095   4.795   2.715
 4663SOL    HW215823   1.124   4.860   2.848
 4664SOL     OW15824   6.366   0.309   8.118
 4664SOL    HW115825   6.335   0.395   8.089
 4664SOL    HW215826   6.298   0.278   8.177
 4665SOL     OW15827  11.472   8.933   5.845
 4665SOL    HW115828  11.537   8.905   5.780
 4665SOL    HW215829  11.391   8.940   5.795
 4666SOL     OW15830   4.770   8.277  10.346
 4666SOL    HW115831   4.699   8.218  10.372
 4666SOL    HW215832   4.832   8.220  10.300
 4667SOL     OW15833   9.250   8.858   8.961
 4667SOL    HW115834   9.156   8.862   8.946
 4667SOL    HW215835   9.262   8.784   9.021
 4668SOL     OW15836   5.453   2.112   1.879
 4668SOL    HW115837   5.381   2.138   1.937
 4668SOL    HW215838   5.410   2.093   1.796
 4669SOL     OW15839  14.158   2.302  12.944
 4669SOL    HW115840  14.110   2.223  12.919
 4669SOL    HW215841  14.224   2.271  13.006
 4670SOL     OW15842  14.184   5.385  13.711
 4670SOL    HW115843  14.231   5.462  13.743
 4670SOL    HW215844  14.162   5.406  13.620
 4671SOL     OW15845   5.137  12.616  13.424
 4671SOL    HW115846   5.230  12.595  13.436
 4671SOL    HW215847   5.101  12.540  13.379
 4672SOL     OW15848  13.095   1.974   7.159
 4672SOL    HW115849  13.032   2.035   7.198
 4672SOL    HW215850  13.176   1.990   7.209
 4673SOL     OW15851  13.654   7.274   2.679
 4673SOL    HW115852  13.667   7.263   2.585
 4673SOL    HW215853  13.699   7.199   2.719
 4674SOL     OW15854  10.971   9.106  10.426
 4674SOL    HW115855  10.976   9.165  10.350
 4674SOL    HW215856  10.988   9.162  10.501
 4675SOL     OW15857   2.706   3.318   8.327
 4675SOL    HW115858   2.761   3.240   8.324
 4675SOL    HW215859   2.752   3.383   8.274
 4676SOL     OW15860   5.169   0.496  13.345
 4676SOL    HW115861   5.114   0.484  13.422
 4676SOL    HW215862   5.109   0.528  13.277
 4677SOL     OW15863  12.754   2.273  11.184
 4677SOL    HW115864  12.765   2.259  11.090
 4677SOL    HW215865  12.843   2.268  11.219
 4678SOL     OW15866  11.878   3.325   0.536
 4678SOL    HW115867  11.882   3.420   0.525
 4678SOL    HW215868  11.944   3.305   0.601
 4679SOL     OW15869  12.576  14.454   6.201
 4679SOL    HW115870  12.662  14.432   6.238
 4679SOL    HW215871  12.576  14.413   6.114
 4680SOL     OW15872   0.868  11.142   9.850
 4680SOL    HW115873   0.946  11.154   9.905
 4680SOL    HW215874   0.833  11.230   9.838
 4681SOL     OW15875   1.490   8.768   1.861
 4681SOL    HW115876   1.515   8.717   1.783
 4681SOL    HW215877   1.529   8.854   1.846
 4682SOL     OW15878   0.932   2.421  10.976
 4682SOL    HW115879   0.853   2.388  10.934
 4682SOL    HW215880   0.940   2.511  10.943
 4683SOL     OW15881  10.547  13.629   5.128
 4683SOL    HW115882  10.627  13.650   5.176
 4683SOL    HW215883  10.505  13.713   5.114
 4684SOL     OW15884   5.718   0.580   9.507
 4684SOL    HW115885   5.698   0.672   9.523
 4684SOL    HW215886   5.698   0.567   9.415
 4685SOL     OW15887  13.920   9.401   9.076
 4685SOL    HW115888  13.977   9.418   9.151
 4685SOL    HW215889  13.852   9.467   9.081
 4686SOL     OW15890   1.289   4.926   6.526
 4686SOL    HW115891   1.251   4.882   6.450
 4686SOL    HW215892   1.228   4.997   6.545
 4687SOL     OW15893   9.433   4.205  13.117
 4687SOL    HW115894   9.450   4.290  13.159
 4687SOL    HW215895   9.337   4.198  13.115
 4688SOL     OW15896   7.803   9.252  12.021
 4688SOL    HW115897   7.722   9.216  11.985
 4688SOL    HW215898   7.774   9.307  12.094
 4689SOL     OW15899  14.056   6.731   4.756
 4689SOL    HW115900  14.037   6.821   4.729
 4689SOL    HW215901  14.152   6.727   4.759
 4690SOL     OW15902  11.756   7.001  13.552
 4690SOL    HW115903  11.814   6.926  13.560
 4690SOL    HW215904  11.700   6.997  13.629
 4691SOL     OW15905   1.296   8.693   5.396
 4691SOL    HW115906   1.265   8.652   5.316
 4691SOL    HW215907   1.390   8.704   5.382
 4692SOL     OW15908  14.359  12.706   7.657
 4692SOL    HW115909  14.330  12.757   7.732
 4692SOL    HW215910  14.278  12.674   7.617
 4693SOL     OW15911  14.505   0.861  11.507
 4693SOL    HW115912  14.581   0.900  11.549
 4693SOL    HW215913  14.537   0.779  11.470
 4694SOL     OW15914  14.188   3.961   7.200
 4694SOL    HW115915  14.116   3.907   7.167
 4694SOL    HW215916  14.222   3.912   7.275
 4695SOL     OW15917  13.003  14.850  11.347
 4695SOL    HW115918  12.922   0.013  11.376
 4695SOL    HW215919  12.975  14.786  11.281
 4696SOL     OW15920  10.118  13.332   4.304
 4696SOL    HW115921  10.073  13.354   4.385
 4696SOL    HW215922  10.129  13.237   4.308
 4697SOL     OW15923  10.237   0.615   4.521
 4697SOL    HW115924  10.227   0.571   4.436
 4697SOL    HW215925  10.167   0.680   4.523
 4698SOL     OW15926  11.016   4.132   0.800
 4698SOL    HW115927  11.007   4.037   0.807
 4698SOL    HW215928  11.024   4.162   0.891
 4699SOL     OW15929   1.078   1.345   8.349
 4699SOL    HW115930   1.115   1.390   8.425
 4699SOL    HW215931   1.137   1.273   8.332
 4700SOL     OW15932   8.321  13.901  12.286
 4700SOL    HW115933   8.296  13.907  12.378
 4700SOL    HW215934   8.350  13.811  12.275
 4701SOL     OW15935  10.786  12.572   6.208
 4701SOL    HW115936  10.781  12.586   6.113
 4701SOL    HW215937  10.792  12.477   6.217
 4702SOL     OW15938   9.426   7.628   7.855
 4702SOL    HW115939   9.493   7.599   7.793
 4702SOL    HW215940   9.344   7.621   7.807
 4703SOL     OW15941   1.797   7.942  11.671
 4703SOL    HW115942   1.810   7.995  11.593
 4703SOL    HW215943   1.808   7.852  11.641
 4704SOL     OW15944   2.991  12.915  12.442
 4704SOL    HW115945   2.896  12.916  12.440
 4704SOL    HW215946   3.015  12.829  12.408
 4705SOL     OW15947   2.479  13.191  13.113
 4705SOL    HW115948   2.574  13.187  13.103
 4705SOL    HW215949   2.446  13.220  13.028
 4706SOL     OW15950  13.836  11.936  11.824
 4706SOL    HW115951  13.863  12.028  11.818
 4706SOL    HW215952  13.744  11.940  11.850
 4707SOL     OW15953   4.040   0.987   6.999
 4707SOL    HW115954   4.040   0.934   6.920
 4707SOL    HW215955   3.957   0.965   7.043
 4708SOL     OW15956   9.428   3.493   2.666
 4708SOL    HW115957   9.336   3.521   2.670
 4708SOL    HW215958   9.432   3.415   2.721
 4709SOL     OW15959   5.382  10.233   5.381
 4709SOL    HW115960   5.402  10.256   5.290
 4709SOL    HW215961   5.450  10.170   5.405
 4710SOL     OW15962   7.920  10.456   5.727
 4710SOL    HW115963   8.010  10.467   5.695
 4710SOL    HW215964   7.865  10.482   5.653
 4711SOL     OW15965   8.260   0.271   1.526
 4711SOL    HW115966   8.328   0.226   1.475
 4711SOL    HW215967   8.236   0.210   1.595
 4712SOL     OW15968   0.517  12.892   8.020
 4712SOL    HW115969   0.556  12.831   7.958
 4712SOL    HW215970   0.520  12.977   7.976
 4713SOL     OW15971  11.989   8.744  11.213
 4713SOL    HW115972  12.010   8.652  11.196
 4713SOL    HW215973  11.922   8.742  11.281
 4714SOL     OW15974   5.760  10.714   4.206
 4714SOL    HW115975   5.786  10.625   4.228
 4714SOL    HW215976   5.680  10.704   4.155
 4715SOL     OW15977  11.667  13.830   9.276
 4715SOL    HW115978  11.667  13.735   9.282
 4715SOL    HW215979  11.578  13.853   9.249
 4716SOL     OW15980   9.874  11.986  11.563
 4716SOL    HW115981   9.799  11.926  11.573
 4716SOL    HW215982   9.923  11.951  11.489
 4717SOL     OW15983   5.148   8.071   9.388
 4717SOL    HW115984   5.093   8.076   9.310
 4717SOL    HW215985   5.149   8.160   9.423
 4718SOL     OW15986   4.108  12.072   5.940
 4718SOL    HW115987   4.090  12.017   6.017
 4718SOL    HW215988   4.101  12.162   5.972
 4719SOL     OW15989   9.563   5.370  13.096
 4719SOL    HW115990   9.615   5.303  13.140
 4719SOL    HW215991   9.593   5.368  13.005
 4720SOL     OW15992  12.065   1.501  14.449
 4720SOL    HW115993  12.159   1.516  14.447
 4720SOL    HW215994  12.030   1.575  14.499
 4721SOL     OW15995   0.853   3.356   8.550
 4721SOL    HW115996   0.937   3.392   8.519
 4721SOL    HW215997   0.872   3.264   8.567
 4722SOL     OW15998   1.732   9.420   4.190
 4722SOL    HW115999   1.735   9.497   4.133
 4722SOL    HW216000   1.821   9.387   4.191
 4723SOL     OW16001  10.441   5.439   5.546
 4723SOL    HW116002  10.442   5.361   5.491
 4723SOL    HW216003  10.368   5.491   5.514
 4724SOL     OW16004  13.042   2.500  14.715
 4724SOL    HW116005  12.993   2.428  14.756
 4724SOL    HW216006  13.133   2.482  14.735
 4725SOL     OW16007   8.424   4.220   6.545
 4725SOL    HW116008   8.427   4.299   6.492
 4725SOL    HW216009   8.333   4.191   6.541
 4726SOL     OW16010   1.470   4.125   4.045
 4726SOL    HW116011   1.407   4.143   4.114
 4726SOL    HW216012   1.480   4.030   4.046
 4727SOL     OW16013  11.490   8.846   9.101
 4727SOL    HW116014  11.511   8.783   9.032
 4727SOL    HW216015  11.447   8.919   9.056
 4728SOL     OW16016   4.855   8.022   8.761
 4728SOL    HW116017   4.829   8.012   8.669
 4728SOL    HW216018   4.781   7.990   8.811
 4729SOL     OW16019  10.777  12.561   5.059
 4729SOL    HW116020  10.798  12.635   5.002
 4729SOL    HW216021  10.827  12.577   5.139
 4730SOL     OW16022  14.057  10.093   3.072
 4730SOL    HW116023  14.046  10.137   3.155
 4730SOL    HW216024  14.123  10.025   3.089
 4731SOL     OW16025   9.975  13.163  14.745
 4731SOL    HW116026   9.925  13.228  14.696
 4731SOL    HW216027  10.041  13.132  14.683
 4732SOL     OW16028   6.271   7.330   3.666
 4732SOL    HW116029   6.220   7.406   3.696
 4732SOL    HW216030   6.297   7.285   3.747
 4733SOL     OW16031  13.255   3.529   1.484
 4733SOL    HW116032  13.187   3.478   1.528
 4733SOL    HW216033  13.318   3.465   1.454
 4734SOL     OW16034  10.082  10.800   1.053
 4734SOL    HW116035  10.039  10.754   0.980
 4734SOL    HW216036  10.152  10.741   1.080
 4735SOL     OW16037  12.436   8.637   1.375
 4735SOL    HW116038  12.527   8.666   1.364
 4735SOL    HW216039  12.384   8.708   1.338
 4736SOL     OW16040   4.466  10.477   0.237
 4736SOL    HW116041   4.547  10.434   0.209
 4736SOL    HW216042   4.465  10.466   0.332
 4737SOL     OW16043   1.743  14.188   5.155
 4737SOL    HW116044   1.747  14.122   5.224
 4737SOL    HW216045   1.834  14.203   5.130
 4738SOL     OW16046   3.236  14.396  11.571
 4738SOL    HW116047   3.294  14.464  11.536
 4738SOL    HW216048   3.245  14.402  11.666
 4739SOL     OW16049   0.783  13.121  12.405
 4739SOL    HW116050   0.841  13.046  12.389
 4739SOL    HW216051   0.831  13.196  12.369
 4740SOL     OW16052  14.397   0.820   2.195
 4740SOL    HW116053  14.366   0.902   2.157
 4740SOL    HW216054  14.347   0.752   2.149
 4741SOL     OW16055   3.874  14.833   8.109
 4741SOL    HW116056   3.888  14.744   8.078
 4741SOL    HW216057   3.781  14.836   8.131
 4742SOL     OW16058   9.843   0.379   3.817
 4742SOL    HW116059   9.882   0.434   3.749
 4742SOL    HW216060   9.880   0.292   3.802
 4743SOL     OW16061   2.780   5.739   3.140
 4743SOL    HW116062   2.828   5.816   3.171
 4743SOL    HW216063   2.688   5.765   3.142
 4744SOL     OW16064   4.478   6.932   2.003
 4744SOL    HW116065   4.437   6.936   1.917
 4744SOL    HW216066   4.566   6.968   1.989
 4745SOL     OW16067  13.761   5.668   8.502
 4745SOL    HW116068  13.732   5.653   8.412
 4745SOL    HW216069  13.701   5.734   8.536
 4746SOL     OW16070  14.350   5.785   1.483
 4746SOL    HW116071  14.401   5.860   1.515
 4746SOL    HW216072  14.370   5.781   1.390
 4747SOL     OW16073   6.265   2.472  12.013
 4747SOL    HW116074   6.232   2.411  12.079
 4747SOL    HW216075   6.231   2.438  11.930
 4748SOL     OW16076   7.026   4.938   9.074
 4748SOL    HW116077   7.063   4.919   9.161
 4748SOL    HW216078   7.006   4.852   9.038
 4749SOL     OW16079   9.060  10.221   9.597
 4749SOL    HW116080   9.064  10.131   9.564
 4749SOL    HW216081   8.979  10.256   9.560
 4750SOL     OW16082   5.034   0.619   7.892
 4750SOL    HW116083   5.093   0.544   7.900
 4750SOL    HW216084   5.092   0.694   7.877
 4751SOL     OW16085   8.683  12.706   1.692
 4751SOL    HW116086   8.631  12.785   1.678
 4751SOL    HW216087   8.678  12.658   1.609
 4752SOL     OW16088   0.326   2.663   3.537
 4752SOL    HW116089   0.422   2.660   3.540
 4752SOL    HW216090   0.304   2.751   3.566
 4753SOL     OW16091   4.892   6.025   9.960
 4753SOL    HW116092   4.863   6.002   9.872
 4753SOL    HW216093   4.917   5.941  10.000
 4754SOL     OW16094   8.608  13.009   5.860
 4754SOL    HW116095   8.600  13.093   5.906
 4754SOL    HW216096   8.699  12.982   5.875
 4755SOL     OW16097   4.833   2.517   6.918
 4755SOL    HW116098   4.815   2.457   6.991
 4755SOL    HW216099   4.865   2.597   6.961
 4756SOL     OW16100   2.699   5.933   4.685
 4756SOL    HW116101   2.647   5.861   4.722
 4756SOL    HW216102   2.666   5.944   4.596
 4757SOL     OW16103  12.290   6.387  12.050
 4757SOL    HW116104  12.295   6.293  12.066
 4757SOL    HW216105  12.258   6.395  11.961
 4758SOL     OW16106  12.245   7.238   7.791
 4758SOL    HW116107  12.172   7.279   7.836
 4758SOL    HW216108  12.221   7.239   7.698
 4759SOL     OW16109   4.956  13.321   1.780
 4759SOL    HW116110   5.001  13.381   1.840
 4759SOL    HW216111   4.952  13.239   1.828
 4760SOL     OW16112   1.918   2.311   9.263
 4760SOL    HW116113   1.934   2.335   9.354
 4760SOL    HW216114   1.950   2.385   9.212
 4761SOL     OW16115   5.245   5.488  13.466
 4761SOL    HW116116   5.294   5.509  13.545
 4761SOL    HW216117   5.310   5.484  13.396
 4762SOL     OW16118   8.024   1.363  10.536
 4762SOL    HW116119   8.111   1.386  10.502
 4762SOL    HW216120   7.963   1.413  10.483
 4763SOL     OW16121   8.795  13.874   4.747
 4763SOL    HW116122   8.737  13.798   4.736
 4763SOL    HW216123   8.800  13.913   4.660
 4764SOL     OW16124   4.052   6.704   6.599
 4764SOL    HW116125   4.016   6.776   6.548
 4764SOL    HW216126   4.141   6.732   6.622
 4765SOL     OW16127   6.205   0.383   7.410
 4765SOL    HW116128   6.250   0.347   7.334
 4765SOL    HW216129   6.119   0.409   7.376
 4766SOL     OW16130   7.922   1.122   0.824
 4766SOL    HW116131   7.957   1.179   0.756
 4766SOL    HW216132   7.920   1.177   0.903
 4767SOL     OW16133  12.032   7.353   8.911
 4767SOL    HW116134  12.108   7.300   8.886
 4767SOL    HW216135  12.066   7.415   8.975
 4768SOL     OW16136   5.143   2.905   8.598
 4768SOL    HW116137   5.167   2.959   8.523
 4768SOL    HW216138   5.217   2.912   8.658
 4769SOL     OW16139   2.082   0.073   3.705
 4769SOL    HW116140   2.078   0.169   3.711
 4769SOL    HW216141   2.072   0.055   3.612
 4770SOL     OW16142   0.688  11.862   8.345
 4770SOL    HW116143   0.692  11.946   8.391
 4770SOL    HW216144   0.702  11.884   8.253
 4771SOL     OW16145  12.678  11.458   8.121
 4771SOL    HW116146  12.729  11.479   8.200
 4771SOL    HW216147  12.729  11.388   8.079
 4772SOL     OW16148   0.369   4.877   6.155
 4772SOL    HW116149   0.375   4.784   6.174
 4772SOL    HW216150   0.277   4.892   6.135
 4773SOL     OW16151   0.464  10.292  10.264
 4773SOL    HW116152   0.485  10.198  10.262
 4773SOL    HW216153   0.549  10.335  10.251
 4774SOL     OW16154  14.206   0.843   8.819
 4774SOL    HW116155  14.293   0.879   8.838
 4774SOL    HW216156  14.210   0.754   8.852
 4775SOL     OW16157  10.294   3.602   0.846
 4775SOL    HW116158  10.292   3.651   0.928
 4775SOL    HW216159  10.387   3.593   0.825
 4776SOL     OW16160  13.559   0.364   0.780
 4776SOL    HW116161  13.484   0.332   0.829
 4776SOL    HW216162  13.525   0.435   0.725
 4777SOL     OW16163  11.004   6.952   3.201
 4777SOL    HW116164  10.929   6.946   3.260
 4777SOL    HW216165  10.970   6.922   3.116
 4778SOL     OW16166   5.201   5.811   8.701
 4778SOL    HW116167   5.180   5.744   8.766
 4778SOL    HW216168   5.247   5.763   8.632
 4779SOL     OW16169   3.177   9.037  14.531
 4779SOL    HW116170   3.198   9.108  14.592
 4779SOL    HW216171   3.259   9.019  14.487
 4780SOL     OW16172   4.295   6.982  13.920
 4780SOL    HW116173   4.319   7.074  13.909
 4780SOL    HW216174   4.208   6.975  13.880
 4781SOL     OW16175   1.803   4.424   4.823
 4781SOL    HW116176   1.829   4.511   4.792
 4781SOL    HW216177   1.808   4.368   4.745
 4782SOL     OW16178  12.808   8.820  13.616
 4782SOL    HW116179  12.866   8.869  13.674
 4782SOL    HW216180  12.863   8.751  13.580
 4783SOL     OW16181   2.923  14.211  13.274
 4783SOL    HW116182   3.003  14.190  13.323
 4783SOL    HW216183   2.859  14.232  13.342
 4784SOL     OW16184   1.986   9.922   9.743
 4784SOL    HW116185   1.896   9.893   9.751
 4784SOL    HW216186   2.032   9.878   9.814
 4785SOL     OW16187  11.446   3.558  11.707
 4785SOL    HW116188  11.428   3.650  11.690
 4785SOL    HW216189  11.463   3.520  11.621
 4786SOL     OW16190   2.578  10.607   7.256
 4786SOL    HW116191   2.533  10.537   7.303
 4786SOL    HW216192   2.665  10.610   7.296
 4787SOL     OW16193  11.835  12.778  14.043
 4787SOL    HW116194  11.770  12.718  14.006
 4787SOL    HW216195  11.893  12.722  14.094
 4788SOL     OW16196   4.584   3.779  10.347
 4788SOL    HW116197   4.517   3.846  10.360
 4788SOL    HW216198   4.559   3.735  10.267
 4789SOL     OW16199  14.000   7.385  10.792
 4789SOL    HW116200  14.061   7.445  10.835
 4789SOL    HW216201  14.026   7.387  10.700
 4790SOL     OW16202   7.743   9.484   2.041
 4790SOL    HW116203   7.711   9.493   2.131
 4790SOL    HW216204   7.763   9.390   2.032
 4791SOL     OW16205   6.692  14.808   9.218
 4791SOL    HW116206   6.647  14.788   9.300
 4791SOL    HW216207   6.637  14.874   9.176
 4792SOL     OW16208   7.185   0.623  12.848
 4792SOL    HW116209   7.201   0.656  12.937
 4792SOL    HW216210   7.246   0.550  12.837
 4793SOL     OW16211  10.722  11.626   4.923
 4793SOL    HW116212  10.791  11.581   4.874
 4793SOL    HW216213  10.757  11.635   5.011
 4794SOL     OW16214   9.700  10.193   5.707
 4794SOL    HW116215   9.671  10.113   5.664
 4794SOL    HW216216   9.736  10.246   5.636
 4795SOL     OW16217   2.816   4.153  10.020
 4795SOL    HW116218   2.735   4.177  10.066
 4795SOL    HW216219   2.838   4.066  10.052
 4796SOL     OW16220   0.116   3.532   6.598
 4796SOL    HW116221   0.049   3.465   6.610
 4796SOL    HW216222   0.194   3.485   6.571
 4797SOL     OW16223  13.593   0.654   6.367
 4797SOL    HW116224  13.639   0.576   6.336
 4797SOL    HW216225  13.539   0.681   6.293
 4798SOL     OW16226   9.882  11.889   1.439
 4798SOL    HW116227   9.857  11.825   1.506
 4798SOL    HW216228   9.851  11.851   1.357
 4799SOL     OW16229   2.782   7.247   7.113
 4799SOL    HW116230   2.816   7.180   7.172
 4799SOL    HW216231   2.748   7.315   7.171
 4800SOL     OW16232  13.931   0.629  12.944
 4800SOL    HW116233  13.978   0.552  12.913
 4800SOL    HW216234  13.966   0.645  13.032
 4801SOL     OW16235   3.531  12.990   8.792
 4801SOL    HW116236   3.512  12.936   8.869
 4801SOL    HW216237   3.453  13.045   8.782
 4802SOL     OW16238   0.610   8.190   8.552
 4802SOL    HW116239   0.674   8.194   8.624
 4802SOL    HW216240   0.526   8.206   8.594
 4803SOL     OW16241   5.223  11.201   3.128
 4803SOL    HW116242   5.144  11.255   3.122
 4803SOL    HW216243   5.218  11.160   3.214
 4804SOL     OW16244   3.518  11.785  12.837
 4804SOL    HW116245   3.600  11.740  12.818
 4804SOL    HW216246   3.478  11.734  12.908
 4805SOL     OW16247   7.962   5.748  13.860
 4805SOL    HW116248   7.982   5.691  13.785
 4805SOL    HW216249   7.959   5.836  13.822
 4806SOL     OW16250   5.791  13.597   4.194
 4806SOL    HW116251   5.733  13.603   4.270
 4806SOL    HW216252   5.876  13.625   4.227
 4807SOL     OW16253  10.883   4.527   6.248
 4807SOL    HW116254  10.877   4.622   6.260
 4807SOL    HW216255  10.864   4.513   6.156
 4808SOL     OW16256   0.755  13.526  12.798
 4808SOL    HW116257   0.669  13.518  12.840
 4808SOL    HW216258   0.741  13.494  12.709
 4809SOL     OW16259   1.211  14.590   6.105
 4809SOL    HW116260   1.209  14.496   6.126
 4809SOL    HW216261   1.268  14.597   6.029
 4810SOL     OW16262   0.681  13.874   5.569
 4810SOL    HW116263   0.648  13.934   5.502
 4810SOL    HW216264   0.732  13.809   5.521
 4811SOL     OW16265   7.991  11.786  10.395
 4811SOL    HW116266   8.056  11.740  10.448
 4811SOL    HW216267   7.920  11.722  10.383
 4812SOL     OW16268  12.019  14.154   0.423
 4812SOL    HW116269  12.103  14.197   0.438
 4812SOL    HW216270  11.961  14.226   0.395
 4813SOL     OW16271   6.078   9.861   8.050
 4813SOL    HW116272   6.163   9.822   8.029
 4813SOL    HW216273   6.026   9.849   7.970
 4814SOL     OW16274   1.290   8.835  10.623
 4814SOL    HW116275   1.373   8.791  10.602
 4814SOL    HW216276   1.228   8.802  10.558
 4815SOL     OW16277   0.019   5.560   2.379
 4815SOL    HW116278   0.110   5.529   2.385
 4815SOL    HW216279   0.023   5.651   2.408
 4816SOL     OW16280   6.298  10.692   6.315
 4816SOL    HW116281   6.327  10.623   6.374
 4816SOL    HW216282   6.332  10.773   6.353
 4817SOL     OW16283   3.248  10.631  14.380
 4817SOL    HW116284   3.227  10.538  14.386
 4817SOL    HW216285   3.169  10.671  14.344
 4818SOL     OW16286  14.612   8.511   8.281
 4818SOL    HW116287  14.655   8.499   8.197
 4818SOL    HW216288  14.519   8.519   8.259
 4819SOL     OW16289   5.682   3.950  11.556
 4819SOL    HW116290   5.692   3.986  11.468
 4819SOL    HW216291   5.599   3.987  11.587
 4820SOL     OW16292   1.008   7.499  13.591
 4820SOL    HW116293   0.979   7.440  13.522
 4820SOL    HW216294   0.935   7.504  13.652
 4821SOL     OW16295  11.283  10.516  10.448
 4821SOL    HW116296  11.321  10.578  10.386
 4821SOL    HW216297  11.334  10.529  10.528
 4822SOL     OW16298   0.501   2.067   0.107
 4822SOL    HW116299   0.514   2.123   0.031
 4822SOL    HW216300   0.425   2.013   0.085
 4823SOL     OW16301   8.347  10.335  10.143
 4823SOL    HW116302   8.427  10.297  10.106
 4823SOL    HW216303   8.366  10.343  10.237
 4824SOL     OW16304   6.835   9.474  12.876
 4824SOL    HW116305   6.901   9.404  12.867
 4824SOL    HW216306   6.847   9.505  12.966
 4825SOL     OW16307   7.165   6.516   3.192
 4825SOL    HW116308   7.191   6.429   3.222
 4825SOL    HW216309   7.076   6.504   3.157
 4826SOL     OW16310   5.828   1.285  11.254
 4826SOL    HW116311   5.733   1.300  11.251
 4826SOL    HW216312   5.865   1.371  11.276
 4827SOL     OW16313   4.793   7.426   4.472
 4827SOL    HW116314   4.798   7.428   4.568
 4827SOL    HW216315   4.778   7.517   4.447
 4828SOL     OW16316  13.950   8.511   6.389
 4828SOL    HW116317  13.945   8.456   6.311
 4828SOL    HW216318  13.943   8.450   6.462
 4829SOL     OW16319  10.960   8.302   6.317
 4829SOL    HW116320  10.918   8.216   6.327
 4829SOL    HW216321  11.046   8.282   6.281
 4830SOL     OW16322   7.317   7.437   6.116
 4830SOL    HW116323   7.345   7.519   6.077
 4830SOL    HW216324   7.316   7.454   6.211
 4831SOL     OW16325  10.935   0.795   5.074
 4831SOL    HW116326  11.021   0.807   5.114
 4831SOL    HW216327  10.893   0.881   5.081
 4832SOL     OW16328   5.011   7.189   1.852
 4832SOL    HW116329   5.038   7.159   1.939
 4832SOL    HW216330   4.976   7.111   1.809
 4833SOL     OW16331   6.037  12.650   1.847
 4833SOL    HW116332   6.070  12.668   1.760
 4833SOL    HW216333   6.028  12.555   1.850
 4834SOL     OW16334   8.765  11.263   3.172
 4834SOL    HW116335   8.855  11.277   3.202
 4834SOL    HW216336   8.770  11.265   3.077
 4835SOL     OW16337  12.445   0.606   3.670
 4835SOL    HW116338  12.444   0.696   3.637
 4835SOL    HW216339  12.407   0.554   3.599
 4836SOL     OW16340   5.655  12.337   2.336
 4836SOL    HW116341   5.674  12.333   2.243
 4836SOL    HW216342   5.733  12.377   2.375
 4837SOL     OW16343   0.207  10.089  12.049
 4837SOL    HW116344   0.290  10.128  12.022
 4837SOL    HW216345   0.229   9.998  12.071
 4838SOL     OW16346   8.137  11.914   8.443
 4838SOL    HW116347   8.084  11.918   8.364
 4838SOL    HW216348   8.224  11.887   8.412
 4839SOL     OW16349   0.700  11.790   4.109
 4839SOL    HW116350   0.733  11.878   4.088
 4839SOL    HW216351   0.691  11.791   4.205
 4840SOL     OW16352   5.983   7.840   8.441
 4840SOL    HW116353   6.020   7.883   8.364
 4840SOL    HW216354   5.996   7.747   8.425
 4841SOL     OW16355  13.493   5.114   0.367
 4841SOL    HW116356  13.527   5.201   0.348
 4841SOL    HW216357  13.570   5.060   0.384
 4842SOL     OW16358   3.447  10.084   9.823
 4842SOL    HW116359   3.441  10.136   9.743
 4842SOL    HW216360   3.369  10.029   9.821
 4843SOL     OW16361   9.518   1.003   2.081
 4843SOL    HW116362   9.531   1.067   2.012
 4843SOL    HW216363   9.548   0.920   2.044
 4844SOL     OW16364   2.185  14.246  13.316
 4844SOL    HW116365   2.094  14.268  13.336
 4844SOL    HW216366   2.186  14.233  13.221
 4845SOL     OW16367   5.003   8.707   8.544
 4845SOL    HW116368   5.013   8.694   8.450
 4845SOL    HW216369   4.918   8.670   8.565
 4846SOL     OW16370   5.122   0.821  12.001
 4846SOL    HW116371   5.176   0.833  12.079
 4846SOL    HW216372   5.183   0.794  11.933
 4847SOL     OW16373   9.698   0.309   7.219
 4847SOL    HW116374   9.770   0.364   7.249
 4847SOL    HW216375   9.706   0.228   7.269
 4848SOL     OW16376  13.511   6.893   4.215
 4848SOL    HW116377  13.444   6.907   4.149
 4848SOL    HW216378  13.464   6.893   4.298
 4849SOL     OW16379   8.876  11.715   1.726
 4849SOL    HW116380   8.846  11.655   1.657
 4849SOL    HW216381   8.866  11.802   1.688
 4850SOL     OW16382   2.698  12.734   9.257
 4850SOL    HW116383   2.647  12.666   9.214
 4850SOL    HW216384   2.785  12.727   9.217
 4851SOL     OW16385  12.027   5.888  10.639
 4851SOL    HW116386  11.963   5.847  10.582
 4851SOL    HW216387  11.996   5.871  10.727
 4852SOL     OW16388   1.923   9.877   8.103
 4852SOL    HW116389   2.019   9.877   8.107
 4852SOL    HW216390   1.899   9.970   8.099
 4853SOL     OW16391  13.488   3.888  11.563
 4853SOL    HW116392  13.561   3.836  11.529
 4853SOL    HW216393  13.529   3.966  11.601
 4854SOL     OW16394  11.882  10.867  14.072
 4854SOL    HW116395  11.787  10.858  14.061
 4854SOL    HW216396  11.920  10.825  13.996
 4855SOL     OW16397   8.189   7.345  13.163
 4855SOL    HW116398   8.276   7.375  13.140
 4855SOL    HW216399   8.192   7.250  13.148
 4856SOL     OW16400   7.616   6.404   2.399
 4856SOL    HW116401   7.706   6.398   2.431
 4856SOL    HW216402   7.562   6.366   2.468
 4857SOL     OW16403   4.576   2.751   1.856
 4857SOL    HW116404   4.628   2.698   1.916
 4857SOL    HW216405   4.578   2.703   1.773
 4858SOL     OW16406   8.250  10.199   3.742
 4858SOL    HW116407   8.162  10.177   3.772
 4858SOL    HW216408   8.293  10.238   3.819
 4859SOL     OW16409   6.681   1.271   7.423
 4859SOL    HW116410   6.671   1.308   7.510
 4859SOL    HW216411   6.605   1.214   7.412
 4860SOL     OW16412   2.138   7.521   3.397
 4860SOL    HW116413   2.205   7.455   3.413
 4860SOL    HW216414   2.058   7.472   3.381
 4861SOL     OW16415   2.207   6.956   1.470
 4861SOL    HW116416   2.254   6.874   1.485
 4861SOL    HW216417   2.115   6.931   1.465
 4862SOL     OW16418   7.650   0.837  11.963
 4862SOL    HW116419   7.604   0.779  11.903
 4862SOL    HW216420   7.593   0.914  11.970
 4863SOL     OW16421   8.124   2.415  10.284
 4863SOL    HW116422   8.034   2.415  10.319
 4863SOL    HW216423   8.179   2.416  10.362
 4864SOL     OW16424  11.100  14.582   6.621
 4864SOL    HW116425  11.128  14.641   6.550
 4864SOL    HW216426  11.137  14.497   6.598
 4865SOL     OW16427  11.556   8.372   1.612
 4865SOL    HW116428  11.604   8.455   1.619
 4865SOL    HW216429  11.477   8.385   1.664
 4866SOL     OW16430   0.251   9.244  14.335
 4866SOL    HW116431   0.223   9.309  14.399
 4866SOL    HW216432   0.203   9.267  14.255
 4867SOL     OW16433  11.996   2.224   5.362
 4867SOL    HW116434  11.961   2.139   5.333
 4867SOL    HW216435  12.091   2.209   5.369
 4868SOL     OW16436  11.618  12.117  13.697
 4868SOL    HW116437  11.548  12.110  13.632
 4868SOL    HW216438  11.673  12.041  13.681
 4869SOL     OW16439  11.239   2.990   6.845
 4869SOL    HW116440  11.174   2.999   6.914
 4869SOL    HW216441  11.298   2.921   6.876
 4870SOL     OW16442   8.194   8.419   5.421
 4870SOL    HW116443   8.147   8.463   5.492
 4870SOL    HW216444   8.229   8.339   5.462
 4871SOL     OW16445   8.373  13.899   3.771
 4871SOL    HW116446   8.321  13.894   3.851
 4871SOL    HW216447   8.456  13.856   3.793
 4872SOL     OW16448   9.321   7.437   6.689
 4872SOL    HW116449   9.233   7.437   6.650
 4872SOL    HW216450   9.339   7.529   6.707
 4873SOL     OW16451  13.778   0.570   2.303
 4873SOL    HW116452  13.840   0.569   2.230
 4873SOL    HW216453  13.698   0.606   2.265
 4874SOL     OW16454  11.188   5.792   4.680
 4874SOL    HW116455  11.160   5.717   4.626
 4874SOL    HW216456  11.112   5.811   4.735
 4875SOL     OW16457  14.347   1.601   1.758
 4875SOL    HW116458  14.436   1.613   1.726
 4875SOL    HW216459  14.357   1.594   1.853
 4876SOL     OW16460   4.916   9.468   1.484
 4876SOL    HW116461   4.853   9.467   1.556
 4876SOL    HW216462   4.873   9.521   1.416
 4877SOL     OW16463   9.480   1.063   1.628
 4877SOL    HW116464   9.432   0.984   1.652
 4877SOL    HW216465   9.414   1.132   1.625
 4878SOL     OW16466   8.075   0.825   3.553
 4878SOL    HW116467   8.058   0.903   3.500
 4878SOL    HW216468   8.012   0.760   3.522
 4879SOL     OW16469  13.196   1.161  13.776
 4879SOL    HW116470  13.215   1.113  13.857
 4879SOL    HW216471  13.254   1.237  13.779
 4880SOL     OW16472   4.912   7.364   0.546
 4880SOL    HW116473   4.907   7.315   0.628
 4880SOL    HW216474   5.006   7.377   0.532
 4881SOL     OW16475   8.640   2.591   7.636
 4881SOL    HW116476   8.684   2.674   7.655
 4881SOL    HW216477   8.555   2.598   7.681
 4882SOL     OW16478   0.569   0.947  11.016
 4882SOL    HW116479   0.577   1.026  11.070
 4882SOL    HW216480   0.609   0.971  10.932
 4883SOL     OW16481   8.258   8.152   1.378
 4883SOL    HW116482   8.212   8.165   1.296
 4883SOL    HW216483   8.243   8.233   1.427
 4884SOL     OW16484   6.671  14.464   3.251
 4884SOL    HW116485   6.649  14.553   3.280
 4884SOL    HW216486   6.711  14.476   3.165
 4885SOL     OW16487   2.543   4.437   5.220
 4885SOL    HW116488   2.449   4.447   5.237
 4885SOL    HW216489   2.550   4.350   5.180
 4886SOL     OW16490   8.923   5.499   9.095
 4886SOL    HW116491   8.851   5.497   9.158
 4886SOL    HW216492   8.881   5.515   9.011
 4887SOL     OW16493   3.739   5.978   8.427
 4887SOL    HW116494   3.783   6.046   8.477
 4887SOL    HW216495   3.795   5.901   8.436
 4888SOL     OW16496   9.887   2.547   4.606
 4888SOL    HW116497   9.966   2.508   4.571
 4888SOL    HW216498   9.891   2.639   4.580
 4889SOL     OW16499   4.892   3.201  11.169
 4889SOL    HW116500   4.852   3.195  11.256
 4889SOL    HW216501   4.975   3.245  11.183
 4890SOL     OW16502  13.882   3.341  13.056
 4890SOL    HW116503  13.942   3.387  12.997
 4890SOL    HW216504  13.874   3.399  13.132
 4891SOL     OW16505   2.938   3.240  11.029
 4891SOL    HW116506   2.999   3.312  11.045
 4891SOL    HW216507   2.934   3.233  10.933
 4892SOL     OW16508   5.415   2.735  14.293
 4892SOL    HW116509   5.412   2.668  14.361
 4892SOL    HW216510   5.328   2.733  14.254
 4893SOL     OW16511   6.060   6.304   5.731
 4893SOL    HW116512   6.143   6.305   5.685
 4893SOL    HW216513   6.021   6.219   5.710
 4894SOL     OW16514  10.124   7.174   7.946
 4894SOL    HW116515  10.057   7.109   7.927
 4894SOL    HW216516  10.183   7.171   7.871
 4895SOL     OW16517   2.095   0.231   8.262
 4895SOL    HW116518   2.122   0.249   8.352
 4895SOL    HW216519   2.089   0.136   8.257
 4896SOL     OW16520   2.402  12.563   2.072
 4896SOL    HW116521   2.480  12.508   2.062
 4896SOL    HW216522   2.434  12.652   2.070
 4897SOL     OW16523   1.209   1.552   5.206
 4897SOL    HW116524   1.123   1.594   5.205
 4897SOL    HW216525   1.271   1.625   5.219
 4898SOL     OW16526   8.769   7.726   8.480
 4898SOL    HW116527   8.683   7.715   8.439
 4898SOL    HW216528   8.789   7.641   8.519
 4899SOL     OW16529   0.506   5.783   0.259
 4899SOL    HW116530   0.552   5.701   0.277
 4899SOL    HW216531   0.450   5.797   0.335
 4900SOL     OW16532  13.316   5.140   6.519
 4900SOL    HW116533  13.397   5.136   6.469
 4900SOL    HW216534  13.317   5.225   6.562
 4901SOL     OW16535   1.193   9.942   2.541
 4901SOL    HW116536   1.264  10.000   2.511
 4901SOL    HW216537   1.113   9.989   2.520
 4902SOL     OW16538   3.880   4.800  10.356
 4902SOL    HW116539   3.884   4.741  10.431
 4902SOL    HW216540   3.927   4.753  10.287
 4903SOL     OW16541  14.623   2.437   7.691
 4903SOL    HW116542  14.611   2.464   7.600
 4903SOL    HW216543  14.540   2.396   7.715
 4904SOL     OW16544  13.368  14.195  11.890
 4904SOL    HW116545  13.402  14.273  11.846
 4904SOL    HW216546  13.296  14.228  11.944
 4905SOL     OW16547  13.532   7.868  10.151
 4905SOL    HW116548  13.493   7.908  10.073
 4905SOL    HW216549  13.526   7.774  10.136
 4906SOL     OW16550  11.990  11.809   0.071
 4906SOL    HW116551  11.947  11.726   0.092
 4906SOL    HW216552  11.941  11.875   0.119
 4907SOL     OW16553  14.863  10.758   1.883
 4907SOL    HW116554  14.789  10.750   1.944
 4907SOL    HW216555   0.010  10.850   1.890
 4908SOL     OW16556   6.056   1.716   3.205
 4908SOL    HW116557   6.020   1.804   3.197
 4908SOL    HW216558   5.999   1.662   3.150
 4909SOL     OW16559   0.013   3.761   1.812
 4909SOL    HW116560  14.796   3.757   1.807
 4909SOL    HW216561   0.043   3.682   1.768
 4910SOL     OW16562  13.710  12.686  10.970
 4910SOL    HW116563  13.668  12.738  10.902
 4910SOL    HW216564  13.794  12.661  10.933
 4911SOL     OW16565  14.830  10.496   6.267
 4911SOL    HW116566  14.866  10.574   6.225
 4911SOL    HW216567  14.735  10.507   6.259
 4912SOL     OW16568  10.761  12.408   0.128
 4912SOL    HW116569  10.692  12.437   0.068
 4912SOL    HW216570  10.717  12.398   0.212
 4913SOL     OW16571  12.628   6.901   9.911
 4913SOL    HW116572  12.629   6.836   9.842
 4913SOL    HW216573  12.540   6.898   9.947
 4914SOL     OW16574   0.234   3.766  13.494
 4914SOL    HW116575   0.151   3.813  13.497
 4914SOL    HW216576   0.298   3.829  13.526
 4915SOL     OW16577   9.699   8.057  14.569
 4915SOL    HW116578   9.635   8.114  14.526
 4915SOL    HW216579   9.783   8.101  14.558
 4916SOL     OW16580  11.882   1.639  12.856
 4916SOL    HW116581  11.857   1.612  12.768
 4916SOL    HW216582  11.975   1.616  12.863
 4917SOL     OW16583  13.224  14.244   9.270
 4917SOL    HW116584  13.221  14.248   9.174
 4917SOL    HW216585  13.146  14.293   9.298
 4918SOL     OW16586   8.108   2.401   3.447
 4918SOL    HW116587   8.039   2.387   3.382
 4918SOL    HW216588   8.123   2.315   3.485
 4919SOL     OW16589   3.939   8.017   5.222
 4919SOL    HW116590   4.010   7.995   5.162
 4919SOL    HW216591   3.867   8.042   5.164
 4920SOL     OW16592   8.313   8.415   6.141
 4920SOL    HW116593   8.246   8.353   6.113
 4920SOL    HW216594   8.331   8.391   6.232
 4921SOL     OW16595   5.830   9.691   2.538
 4921SOL    HW116596   5.838   9.611   2.590
 4921SOL    HW216597   5.813   9.759   2.603
 4922SOL     OW16598   6.325  11.378   3.713
 4922SOL    HW116599   6.372  11.327   3.778
 4922SOL    HW216600   6.355  11.468   3.727
 4923SOL     OW16601   5.995  13.398   5.433
 4923SOL    HW116602   5.907  13.365   5.417
 4923SOL    HW216603   5.989  13.493   5.417
 4924SOL     OW16604   6.790   5.267   6.955
 4924SOL    HW116605   6.834   5.349   6.933
 4924SOL    HW216606   6.697   5.288   6.954
 4925SOL     OW16607   5.512   8.554  13.160
 4925SOL    HW116608   5.437   8.607  13.134
 4925SOL    HW216609   5.488   8.464  13.135
 4926SOL     OW16610  13.120  12.125  10.808
 4926SOL    HW116611  13.169  12.085  10.737
 4926SOL    HW216612  13.187  12.169  10.862
 4927SOL     OW16613  14.242  13.086   4.713
 4927SOL    HW116614  14.159  13.043   4.693
 4927SOL    HW216615  14.309  13.024   4.682
 4928SOL     OW16616   1.108   5.917   1.187
 4928SOL    HW116617   1.141   5.875   1.108
 4928SOL    HW216618   1.111   5.849   1.254
 4929SOL     OW16619   1.145   3.744   8.534
 4929SOL    HW116620   1.139   3.712   8.624
 4929SOL    HW216621   1.233   3.720   8.506
 4930SOL     OW16622   0.110   4.158   6.524
 4930SOL    HW116623   0.200   4.192   6.522
 4930SOL    HW216624   0.096   4.123   6.436
 4931SOL     OW16625   7.467   0.091   1.106
 4931SOL    HW116626   7.407   0.076   1.033
 4931SOL    HW216627   7.531   0.153   1.073
 4932SOL     OW16628   3.162   8.012   0.176
 4932SOL    HW116629   3.098   7.978   0.114
 4932SOL    HW216630   3.172   8.104   0.153
 4933SOL     OW16631   4.798   2.403   4.429
 4933SOL    HW116632   4.765   2.318   4.400
 4933SOL    HW216633   4.881   2.413   4.382
 4934SOL     OW16634  14.853   3.426   8.762
 4934SOL    HW116635   0.026   3.462   8.835
 4934SOL    HW216636  14.798   3.359   8.802
 4935SOL     OW16637  13.284  10.593  13.645
 4935SOL    HW116638  13.294  10.669  13.703
 4935SOL    HW216639  13.234  10.626  13.570
 4936SOL     OW16640   5.355   7.383   2.686
 4936SOL    HW116641   5.289   7.452   2.700
 4936SOL    HW216642   5.394   7.404   2.601
 4937SOL     OW16643   5.485   9.516   6.079
 4937SOL    HW116644   5.435   9.445   6.121
 4937SOL    HW216645   5.543   9.471   6.018
 4938SOL     OW16646   8.730   1.543   6.043
 4938SOL    HW116647   8.635   1.541   6.057
 4938SOL    HW216648   8.764   1.473   6.098
 4939SOL     OW16649   7.080  12.855  14.151
 4939SOL    HW116650   7.034  12.925  14.104
 4939SOL    HW216651   7.031  12.776  14.131
 4940SOL     OW16652   9.247   4.137   4.916
 4940SOL    HW116653   9.161   4.108   4.944
 4940SOL    HW216654   9.306   4.107   4.985
 4941SOL     OW16655   3.635  12.769  11.482
 4941SOL    HW116656   3.608  12.822  11.557
 4941SOL    HW216657   3.600  12.817  11.406
 4942SOL     OW16658   9.988  10.982  14.340
 4942SOL    HW116659   9.941  10.950  14.417
 4942SOL    HW216660  10.073  10.939  14.343
 4943SOL     OW16661   7.082   5.001   3.501
 4943SOL    HW116662   7.070   5.035   3.590
 4943SOL    HW216663   7.126   5.072   3.454
 4944SOL     OW16664   8.413   1.333   1.818
 4944SOL    HW116665   8.366   1.415   1.801
 4944SOL    HW216666   8.505   1.356   1.808
 4945SOL     OW16667   3.361   0.028   0.050
 4945SOL    HW116668   3.378  14.837   0.113
 4945SOL    HW216669   3.384  14.868  14.844
 4946SOL     OW16670   4.584   1.132  13.204
 4946SOL    HW116671   4.553   1.060  13.259
 4946SOL    HW216672   4.549   1.113  13.117
 4947SOL     OW16673  11.358   8.963   6.939
 4947SOL    HW116674  11.282   8.917   6.902
 4947SOL    HW216675  11.348   8.954   7.034
 4948SOL     OW16676  14.654   8.070   8.134
 4948SOL    HW116677  14.733   8.115   8.103
 4948SOL    HW216678  14.647   7.993   8.077
 4949SOL     OW16679   2.027   9.593   7.333
 4949SOL    HW116680   2.024   9.514   7.279
 4949SOL    HW216681   2.083   9.571   7.407
 4950SOL     OW16682   0.405   7.365   1.253
 4950SOL    HW116683   0.361   7.416   1.185
 4950SOL    HW216684   0.339   7.303   1.283
 4951SOL     OW16685   2.849  14.270  10.328
 4951SOL    HW116686   2.846  14.195  10.388
 4951SOL    HW216687   2.765  14.267  10.282
 4952SOL     OW16688  11.260   6.992  13.661
 4952SOL    HW116689  11.253   6.946  13.745
 4952SOL    HW216690  11.210   6.937  13.600
 4953SOL     OW16691   9.963   3.899   3.333
 4953SOL    HW116692  10.002   3.924   3.250
 4953SOL    HW216693   9.912   3.820   3.314
 4954SOL     OW16694   3.462   0.727   0.192
 4954SOL    HW116695   3.553   0.748   0.213
 4954SOL    HW216696   3.467   0.648   0.138
 4955SOL     OW16697   8.408   6.461  13.495
 4955SOL    HW116698   8.418   6.369  13.522
 4955SOL    HW216699   8.319   6.465  13.459
 4956SOL     OW16700  11.444  10.570   3.737
 4956SOL    HW116701  11.531  10.539   3.763
 4956SOL    HW216702  11.386  10.541   3.808
 4957SOL     OW16703   3.580   9.477   8.812
 4957SOL    HW116704   3.507   9.415   8.806
 4957SOL    HW216705   3.577   9.510   8.902
 4958SOL     OW16706   3.893   8.807  10.353
 4958SOL    HW116707   3.818   8.865  10.355
 4958SOL    HW216708   3.887   8.761  10.269
 4959SOL     OW16709   2.476   8.589  12.908
 4959SOL    HW116710   2.468   8.605  12.814
 4959SOL    HW216711   2.436   8.503  12.921
 4960SOL     OW16712   4.184  13.121   3.711
 4960SOL    HW116713   4.203  13.172   3.632
 4960SOL    HW216714   4.240  13.044   3.704
 4961SOL     OW16715   2.990  12.214   0.364
 4961SOL    HW116716   3.029  12.269   0.432
 4961SOL    HW216717   2.898  12.239   0.363
 4962SOL     OW16718   5.141   6.835   6.735
 4962SOL    HW116719   5.142   6.891   6.813
 4962SOL    HW216720   5.145   6.897   6.661
 4963SOL     OW16721   5.228   5.916  11.530
 4963SOL    HW116722   5.195   5.944  11.445
 4963SOL    HW216723   5.182   5.835  11.548
 4964SOL     OW16724   0.142   9.063   7.371
 4964SOL    HW116725   0.052   9.042   7.345
 4964SOL    HW216726   0.196   9.004   7.319
 4965SOL     OW16727   1.183  10.874   9.318
 4965SOL    HW116728   1.112  10.832   9.367
 4965SOL    HW216729   1.153  10.874   9.227
 4966SOL     OW16730   3.344  11.406  13.602
 4966SOL    HW116731   3.404  11.366  13.665
 4966SOL    HW216732   3.264  11.353  13.607
 4967SOL     OW16733   5.385   5.111   8.494
 4967SOL    HW116734   5.476   5.112   8.465
 4967SOL    HW216735   5.345   5.039   8.445
 4968SOL     OW16736  12.854   1.652  12.206
 4968SOL    HW116737  12.785   1.586  12.199
 4968SOL    HW216738  12.836   1.713  12.134
 4969SOL     OW16739  11.699  13.286  14.362
 4969SOL    HW116740  11.643  13.327  14.296
 4969SOL    HW216741  11.725  13.203  14.324
 4970SOL     OW16742   9.905  10.664  11.979
 4970SOL    HW116743   9.907  10.749  12.023
 4970SOL    HW216744   9.822  10.625  12.006
 4971SOL     OW16745   3.928   5.600   2.603
 4971SOL    HW116746   3.918   5.507   2.582
 4971SOL    HW216747   4.022   5.615   2.601
 4972SOL     OW16748   7.513   3.394   6.241
 4972SOL    HW116749   7.582   3.458   6.225
 4972SOL    HW216750   7.546   3.312   6.203
 4973SOL     OW16751   0.331   1.078   3.324
 4973SOL    HW116752   0.283   1.119   3.396
 4973SOL    HW216753   0.423   1.092   3.346
 4974SOL     OW16754   5.200   7.861  13.804
 4974SOL    HW116755   5.133   7.867  13.873
 4974SOL    HW216756   5.155   7.822  13.730
 4975SOL     OW16757   8.857   6.766  11.698
 4975SOL    HW116758   8.944   6.805  11.683
 4975SOL    HW216759   8.864   6.723  11.783
 4976SOL     OW16760   5.666  12.806   9.714
 4976SOL    HW116761   5.683  12.801   9.808
 4976SOL    HW216762   5.620  12.725   9.694
 4977SOL     OW16763  11.929   8.360  13.100
 4977SOL    HW116764  11.898   8.271  13.116
 4977SOL    HW216765  11.964   8.357  13.010
 4978SOL     OW16766  12.945   0.370   9.788
 4978SOL    HW116767  13.039   0.350   9.780
 4978SOL    HW216768  12.928   0.432   9.718
 4979SOL     OW16769   5.123   2.844   7.689
 4979SOL    HW116770   5.188   2.824   7.621
 4979SOL    HW216771   5.060   2.901   7.646
 4980SOL     OW16772  13.964   8.818  10.381
 4980SOL    HW116773  13.996   8.759  10.312
 4980SOL    HW216774  13.936   8.759  10.451
 4981SOL     OW16775   0.573   8.409  10.659
 4981SOL    HW116776   0.601   8.491  10.700
 4981SOL    HW216777   0.483   8.426  10.631
 4982SOL     OW16778   2.249   5.397   6.084
 4982SOL    HW116779   2.311   5.347   6.137
 4982SOL    HW216780   2.186   5.432   6.147
 4983SOL     OW16781  12.586  10.508  14.365
 4983SOL    HW116782  12.536  10.431  14.393
 4983SOL    HW216783  12.639  10.531  14.441
 4984SOL     OW16784   6.271  12.107   1.887
 4984SOL    HW116785   6.212  12.037   1.913
 4984SOL    HW216786   6.293  12.152   1.968
 4985SOL     OW16787  12.204   0.385  11.434
 4985SOL    HW116788  12.277   0.343  11.388
 4985SOL    HW216789  12.131   0.380  11.372
 4986SOL     OW16790  10.966   4.516   7.468
 4986SOL    HW116791  10.993   4.581   7.402
 4986SOL    HW216792  10.949   4.567   7.547
 4987SOL     OW16793  10.751  13.059   8.831
 4987SOL    HW116794  10.748  12.963   8.827
 4987SOL    HW216795  10.721  13.088   8.745
 4988SOL     OW16796  13.099  11.825  10.262
 4988SOL    HW116797  13.178  11.778  10.289
 4988SOL    HW216798  13.095  11.901  10.320
 4989SOL     OW16799  13.149   5.563  11.093
 4989SOL    HW116800  13.125   5.578  11.185
 4989SOL    HW216801  13.155   5.651  11.056
 4990SOL     OW16802  11.187   1.827  10.236
 4990SOL    HW116803  11.185   1.754  10.299
 4990SOL    HW216804  11.207   1.904  10.289
 4991SOL     OW16805   1.076   3.048   5.469
 4991SOL    HW116806   1.148   3.065   5.408
 4991SOL    HW216807   1.006   3.108   5.441
 4992SOL     OW16808   0.932  12.833   9.338
 4992SOL    HW116809   0.853  12.858   9.387
 4992SOL    HW216810   0.901  12.819   9.249
 4993SOL     OW16811  12.700   7.946   2.127
 4993SOL    HW116812  12.639   7.953   2.200
 4993SOL    HW216813  12.744   8.031   2.124
 4994SOL     OW16814  13.161   2.921  12.639
 4994SOL    HW116815  13.120   2.843  12.601
 4994SOL    HW216816  13.127   2.994  12.588
 4995SOL     OW16817   5.227  11.981   2.269
 4995SOL    HW116818   5.146  11.930   2.256
 4995SOL    HW216819   5.209  12.035   2.346
 4996SOL     OW16820   4.492   2.439   3.923
 4996SOL    HW116821   4.500   2.455   4.017
 4996SOL    HW216822   4.488   2.344   3.916
 4997SOL     OW16823   9.658   1.601  12.339
 4997SOL    HW116824   9.615   1.669  12.391
 4997SOL    HW216825   9.624   1.518  12.375
 4998SOL     OW16826   8.150   6.703   4.198
 4998SOL    HW116827   8.213   6.706   4.270
 4998SOL    HW216828   8.074   6.657   4.234
 4999SOL     OW16829   1.842  11.500   1.122
 4999SOL    HW116830   1.875  11.576   1.074
 4999SOL    HW216831   1.775  11.463   1.064
 5000SOL     OW16832   6.192  13.569  13.207
 5000SOL    HW116833   6.207  13.476  13.219
 5000SOL    HW216834   6.253  13.595  13.138
 5001SOL     OW16835   1.673  10.749   8.641
 5001SOL    HW116836   1.710  10.716   8.723
 5001SOL    HW216837   1.664  10.843   8.654
 5002SOL     OW16838  14.038  10.602   8.733
 5002SOL    HW116839  13.969  10.640   8.679
 5002SOL    HW216840  14.120  10.629   8.690
 5003SOL     OW16841   4.843   0.419   5.249
 5003SOL    HW116842   4.795   0.498   5.275
 5003SOL    HW216843   4.934   0.447   5.240
 5004SOL     OW16844   8.264  12.891  12.382
 5004SOL    HW116845   8.172  12.917  12.372
 5004SOL    HW216846   8.300  12.897  12.293
 5005SOL     OW16847  13.105   3.047   8.015
 5005SOL    HW116848  13.094   3.083   7.928
 5005SOL    HW216849  13.028   3.076   8.064
 5006SOL     OW16850  11.604  14.321  11.222
 5006SOL    HW116851  11.626  14.239  11.178
 5006SOL    HW216852  11.524  14.302  11.270
 5007SOL     OW16853   3.987   2.586   5.147
 5007SOL    HW116854   4.041   2.631   5.212
 5007SOL    HW216855   3.980   2.649   5.075
 5008SOL     OW16856   7.949   5.340   6.732
 5008SOL    HW116857   7.902   5.358   6.650
 5008SOL    HW216858   7.946   5.422   6.780
 5009SOL     OW16859  12.666   1.615   3.570
 5009SOL    HW116860  12.612   1.678   3.521
 5009SOL    HW216861  12.701   1.557   3.503
 5010SOL     OW16862  10.448   6.149   5.359
 5010SOL    HW116863  10.377   6.146   5.295
 5010SOL    HW216864  10.506   6.219   5.328
 5011SOL     OW16865   6.088  11.317   5.109
 5011SOL    HW116866   6.149  11.256   5.067
 5011SOL    HW216867   6.002  11.275   5.101
 5012SOL     OW16868   3.111  12.658  13.301
 5012SOL    HW116869   3.120  12.625  13.211
 5012SOL    HW216870   3.147  12.747  13.297
 5013SOL     OW16871  13.817  14.174   5.150
 5013SOL    HW116872  13.806  14.093   5.100
 5013SOL    HW216873  13.743  14.229   5.122
 5014SOL     OW16874   2.351   2.199   8.286
 5014SOL    HW116875   2.403   2.139   8.339
 5014SOL    HW216876   2.260   2.180   8.311
 5015SOL     OW16877   8.303   5.676   9.906
 5015SOL    HW116878   8.215   5.677   9.870
 5015SOL    HW216879   8.296   5.727   9.987
 5016SOL     OW16880   1.205   6.460   0.219
 5016SOL    HW116881   1.296   6.441   0.197
 5016SOL    HW216882   1.203   6.457   0.315
 5017SOL     OW16883   8.499  12.156   6.923
 5017SOL    HW116884   8.411  12.166   6.887
 5017SOL    HW216885   8.504  12.221   6.994
 5018SOL     OW16886  10.752   3.629  10.956
 5018SOL    HW116887  10.817   3.596  10.893
 5018SOL    HW216888  10.783   3.717  10.979
 5019SOL     OW16889   0.398   7.291   8.160
 5019SOL    HW116890   0.408   7.374   8.207
 5019SOL    HW216891   0.487   7.265   8.137
 5020SOL     OW16892  14.823  11.842   3.970
 5020SOL    HW116893  14.740  11.821   3.926
 5020SOL    HW216894  14.877  11.882   3.902
 5021SOL     OW16895  11.102   7.609  12.910
 5021SOL    HW116896  11.022   7.563  12.886
 5021SOL    HW216897  11.171   7.560  12.865
 5022SOL     OW16898  10.197   4.717   2.411
 5022SOL    HW116899  10.252   4.795   2.404
 5022SOL    HW216900  10.257   4.644   2.399
 5023SOL     OW16901   3.554   8.103  12.947
 5023SOL    HW116902   3.460   8.088  12.941
 5023SOL    HW216903   3.592   8.057  12.873
 5024SOL     OW16904  13.749  14.067   1.050
 5024SOL    HW116905  13.757  14.079   0.955
 5024SOL    HW216906  13.665  14.022   1.060
 5025SOL     OW16907  13.266   4.401   0.190
 5025SOL    HW116908  13.237   4.345   0.262
 5025SOL    HW216909  13.187   4.417   0.138
 5026SOL     OW16910   3.975  11.933   3.259
 5026SOL    HW116911   3.932  12.018   3.275
 5026SOL    HW216912   3.913  11.868   3.292
 5027SOL     OW16913   2.634   4.872   6.243
 5027SOL    HW116914   2.544   4.844   6.260
 5027SOL    HW216915   2.649   4.852   6.151
 5028SOL     OW16916   6.307   3.561   1.787
 5028SOL    HW116917   6.239   3.538   1.724
 5028SOL    HW216918   6.267   3.541   1.872
 5029SOL     OW16919   2.271   1.462  11.346
 5029SOL    HW116920   2.176   1.468  11.352
 5029SOL    HW216921   2.293   1.381  11.393
 5030SOL     OW16922   7.960  11.302  13.266
 5030SOL    HW116923   7.975  11.213  13.299
 5030SOL    HW216924   8.035  11.352  13.298
 5031SOL     OW16925   1.075   9.423   7.546
 5031SOL    HW116926   0.990   9.385   7.569
 5031SOL    HW216927   1.107   9.460   7.628
 5032SOL     OW16928   9.578  11.911   4.072
 5032SOL    HW116929   9.504  11.892   4.014
 5032SOL    HW216930   9.575  12.006   4.085
 5033SOL     OW16931  13.220   8.667   4.047
 5033SOL    HW116932  13.273   8.602   4.001
 5033SOL    HW216933  13.251   8.751   4.014
 5034SOL     OW16934   6.302  10.182   5.020
 5034SOL    HW116935   6.277  10.139   4.938
 5034SOL    HW216936   6.269  10.123   5.088
 5035SOL     OW16937  11.862   3.728   9.223
 5035SOL    HW116938  11.847   3.664   9.292
 5035SOL    HW216939  11.804   3.700   9.151
 5036SOL     OW16940  13.916   0.438   2.081
 5036SOL    HW116941  13.879   0.504   2.022
 5036SOL    HW216942  13.987   0.399   2.030
 5037SOL     OW16943   9.752   0.162   4.222
 5037SOL    HW116944   9.819   0.095   4.207
 5037SOL    HW216945   9.765   0.226   4.152
 5038SOL     OW16946   3.617   0.576   6.660
 5038SOL    HW116947   3.687   0.513   6.677
 5038SOL    HW216948   3.657   0.643   6.605
 5039SOL     OW16949   2.245  12.625   7.805
 5039SOL    HW116950   2.230  12.555   7.741
 5039SOL    HW216951   2.329  12.662   7.781
 5040SOL     OW16952   6.791  11.023   9.956
 5040SOL    HW116953   6.724  10.954   9.956
 5040SOL    HW216954   6.793  11.055  10.047
 5041SOL     OW16955  10.521   8.829   6.196
 5041SOL    HW116956  10.436   8.865   6.221
 5041SOL    HW216957  10.510   8.801   6.105
 5042SOL     OW16958  12.693   6.828  13.082
 5042SOL    HW116959  12.737   6.834  13.168
 5042SOL    HW216960  12.740   6.891  13.028
 5043SOL     OW16961   3.204   2.095   5.782
 5043SOL    HW116962   3.144   2.147   5.835
 5043SOL    HW216963   3.175   2.110   5.692
 5044SOL     OW16964   0.992  13.754  14.019
 5044SOL    HW116965   0.933  13.817  14.062
 5044SOL    HW216966   1.079  13.780  14.047
 5045SOL     OW16967  10.863   5.219   5.080
 5045SOL    HW116968  10.783   5.196   5.127
 5045SOL    HW216969  10.833   5.273   5.007
 5046SOL     OW16970  12.791   2.719   5.269
 5046SOL    HW116971  12.790   2.729   5.364
 5046SOL    HW216972  12.872   2.671   5.250
 5047SOL     OW16973   1.547   3.233   0.039
 5047SOL    HW116974   1.555   3.327   0.027
 5047SOL    HW216975   1.625   3.208   0.089
 5048SOL     OW16976   0.406   6.957  12.947
 5048SOL    HW116977   0.388   6.928  13.036
 5048SOL    HW216978   0.416   6.875  12.898
 5049SOL     OW16979  14.002   9.762  14.335
 5049SOL    HW116980  13.952   9.803  14.264
 5049SOL    HW216981  14.086   9.808  14.333
 5050SOL     OW16982  14.040   9.129   1.026
 5050SOL    HW116983  14.055   9.071   0.951
 5050SOL    HW216984  14.073   9.214   0.998
 5051SOL     OW16985  12.374  10.671   7.077
 5051SOL    HW116986  12.366  10.766   7.068
 5051SOL    HW216987  12.323  10.635   7.005
 5052SOL     OW16988  10.765   0.608   1.772
 5052SOL    HW116989  10.715   0.668   1.716
 5052SOL    HW216990  10.808   0.549   1.711
 5053SOL     OW16991  13.973   4.961   2.202
 5053SOL    HW116992  14.025   4.901   2.255
 5053SOL    HW216993  14.003   4.944   2.112
 5054SOL     OW16994   0.893  14.579   0.959
 5054SOL    HW116995   0.936  14.525   0.892
 5054SOL    HW216996   0.895  14.668   0.923
 5055SOL     OW16997  13.596  13.363   2.033
 5055SOL    HW116998  13.560  13.450   2.020
 5055SOL    HW216999  13.687  13.378   2.058
 5056SOL     OW17000   9.993   1.178   2.373
 5056SOL    HW117001  10.012   1.091   2.408
 5056SOL    HW217002  10.079   1.219   2.363
 5057SOL     OW17003   3.990  14.494   5.014
 5057SOL    HW117004   3.965  14.409   4.976
 5057SOL    HW217005   3.916  14.517   5.070
 5058SOL     OW17006   3.869   9.449   2.282
 5058SOL    HW117007   3.954   9.493   2.294
 5058SOL    HW217008   3.827   9.455   2.368
 5059SOL     OW17009   8.093   3.007   3.558
 5059SOL    HW117010   8.147   3.068   3.507
 5059SOL    HW217011   8.051   2.951   3.492
 5060SOL     OW17012  12.164   1.726   2.627
 5060SOL    HW117013  12.231   1.683   2.573
 5060SOL    HW217014  12.210   1.798   2.670
 5061SOL     OW17015  12.026  11.039   6.693
 5061SOL    HW117016  11.979  11.107   6.644
 5061SOL    HW217017  12.111  11.078   6.712
 5062SOL     OW17018  13.839   8.657   8.739
 5062SOL    HW117019  13.830   8.599   8.663
 5062SOL    HW217020  13.923   8.701   8.727
 5063SOL     OW17021  12.002  14.123   4.270
 5063SOL    HW117022  11.993  14.198   4.329
 5063SOL    HW217023  11.925  14.069   4.288
 5064SOL     OW17024   8.497   7.370  13.151
 5064SOL    HW117025   8.540   7.288  13.125
 5064SOL    HW217026   8.502   7.425  13.073
 5065SOL     OW17027  11.569  12.479  13.732
 5065SOL    HW117028  11.544  12.474  13.640
 5065SOL    HW217029  11.655  12.436  13.735
 5066SOL     OW17030  12.448   5.653   4.851
 5066SOL    HW117031  12.417   5.640   4.762
 5066SOL    HW217032  12.515   5.721   4.844
 5067SOL     OW17033  11.881   6.911  13.801
 5067SOL    HW117034  11.942   6.862  13.856
 5067SOL    HW217035  11.913   7.002  13.805
 5068SOL     OW17036   7.247   6.375   0.697
 5068SOL    HW117037   7.341   6.385   0.709
 5068SOL    HW217038   7.208   6.445   0.750
 5069SOL     OW17039   4.593   6.256  12.332
 5069SOL    HW117040   4.583   6.307  12.412
 5069SOL    HW217041   4.634   6.174  12.361
 5070SOL     OW17042   4.747  12.674   0.630
 5070SOL    HW117043   4.662  12.656   0.591
 5070SOL    HW217044   4.762  12.600   0.690
 5071SOL     OW17045   3.254   8.049   9.876
 5071SOL    HW117046   3.322   8.061   9.810
 5071SOL    HW217047   3.250   7.954   9.890
 5072SOL     OW17048   9.012   3.207   1.127
 5072SOL    HW117049   8.940   3.148   1.106
 5072SOL    HW217050   8.991   3.241   1.213
 5073SOL     OW17051  10.875   7.754   3.658
 5073SOL    HW117052  10.867   7.687   3.726
 5073SOL    HW217053  10.905   7.707   3.581
 5074SOL     OW17054  10.906   0.370   2.225
 5074SOL    HW117055  10.881   0.454   2.188
 5074SOL    HW217056  10.925   0.315   2.149
 5075SOL     OW17057  14.380   9.648  11.179
 5075SOL    HW117058  14.371   9.594  11.258
 5075SOL    HW217059  14.472   9.637  11.153
 5076SOL     OW17060   0.344   1.320  14.238
 5076SOL    HW117061   0.436   1.297  14.223
 5076SOL    HW217062   0.304   1.239  14.270
 5077SOL     OW17063  11.215  13.944   4.194
 5077SOL    HW117064  11.305  13.916   4.210
 5077SOL    HW217065  11.170  13.865   4.164
 5078SOL     OW17066   0.875   0.106  14.019
 5078SOL    HW117067   0.854   0.013  14.026
 5078SOL    HW217068   0.795   0.150  14.048
 5079SOL     OW17069   3.750   8.438   5.800
 5079SOL    HW117070   3.816   8.390   5.849
 5079SOL    HW217071   3.797   8.475   5.726
 5080SOL     OW17072   2.193  14.184   7.089
 5080SOL    HW117073   2.187  14.274   7.121
 5080SOL    HW217074   2.285  14.174   7.064
 5081SOL     OW17075   0.174   5.581   0.313
 5081SOL    HW117076   0.107   5.648   0.323
 5081SOL    HW217077   0.180   5.539   0.399
 5082SOL     OW17078   2.258   2.023  12.552
 5082SOL    HW117079   2.350   2.028  12.579
 5082SOL    HW217080   2.254   2.075  12.472
 5083SOL     OW17081   8.447   7.867   6.478
 5083SOL    HW117082   8.466   7.922   6.554
 5083SOL    HW217083   8.396   7.923   6.419
 5084SOL     OW17084   7.280   0.047   7.104
 5084SOL    HW117085   7.251   0.018   7.191
 5084SOL    HW217086   7.282   0.142   7.111
 5085SOL     OW17087  11.988   2.582  10.766
 5085SOL    HW117088  12.032   2.576  10.681
 5085SOL    HW217089  12.058   2.569  10.830
 5086SOL     OW17090   9.514   6.070  13.391
 5086SOL    HW117091   9.426   6.041  13.418
 5086SOL    HW217092   9.572   6.002  13.424
 5087SOL     OW17093   6.470   4.980  11.524
 5087SOL    HW117094   6.430   5.053  11.477
 5087SOL    HW217095   6.396   4.924  11.547
 5088SOL     OW17096  10.805   6.883   9.477
 5088SOL    HW117097  10.760   6.914   9.556
 5088SOL    HW217098  10.734   6.859   9.417
 5089SOL     OW17099  14.401  10.099  10.436
 5089SOL    HW117100  14.463  10.056  10.495
 5089SOL    HW217101  14.456  10.141  10.370
 5090SOL     OW17102   2.590   8.078   7.364
 5090SOL    HW117103   2.621   8.149   7.421
 5090SOL    HW217104   2.548   8.017   7.425
 5091SOL     OW17105  10.318   4.597  12.317
 5091SOL    HW117106  10.321   4.579  12.411
 5091SOL    HW217107  10.406   4.631  12.297
 5092SOL     OW17108   4.247   0.825   7.532
 5092SOL    HW117109   4.207   0.754   7.582
 5092SOL    HW217110   4.179   0.893   7.530
 5093SOL     OW17111  11.584   1.916   4.646
 5093SOL    HW117112  11.613   1.951   4.730
 5093SOL    HW217113  11.529   1.840   4.668
 5094SOL     OW17114   1.344   7.032   3.825
 5094SOL    HW117115   1.415   6.979   3.788
 5094SOL    HW217116   1.283   7.045   3.752
 5095SOL     OW17117  11.246  11.444  10.900
 5095SOL    HW117118  11.333  11.405  10.915
 5095SOL    HW217119  11.218  11.474  10.987
 5096SOL     OW17120   0.010   0.658   2.514
 5096SOL    HW117121  14.825   0.627   2.578
 5096SOL    HW217122   0.091   0.670   2.565
 5097SOL     OW17123  10.068   1.679   1.031
 5097SOL    HW117124   9.981   1.717   1.019
 5097SOL    HW217125  10.053   1.599   1.082
 5098SOL     OW17126   9.587   9.551   2.153
 5098SOL    HW117127   9.555   9.604   2.226
 5098SOL    HW217128   9.668   9.512   2.186
 5099SOL     OW17129  11.256   3.054   0.985
 5099SOL    HW117130  11.171   3.039   1.026
 5099SOL    HW217131  11.266   3.149   0.984
 5100SOL     OW17132   9.780   2.206  13.311
 5100SOL    HW117133   9.841   2.249  13.251
 5100SOL    HW217134   9.803   2.114  13.307
 5101SOL     OW17135   5.619  14.841   6.795
 5101SOL    HW117136   5.539  14.789   6.805
 5101SOL    HW217137   5.687  14.777   6.778
 5102SOL     OW17138   9.185   2.627   3.154
 5102SOL    HW117139   9.125   2.701   3.151
 5102SOL    HW217140   9.272   2.667   3.164
 5103SOL     OW17141   1.942  10.684  11.097
 5103SOL    HW117142   1.865  10.712  11.046
 5103SOL    HW217143   2.013  10.740  11.065
 5104SOL     OW17144  14.405   2.307  11.033
 5104SOL    HW117145  14.404   2.245  10.960
 5104SOL    HW217146  14.400   2.251  11.111
 5105SOL     OW17147  12.093   6.228   7.204
 5105SOL    HW117148  12.087   6.218   7.109
 5105SOL    HW217149  12.168   6.173   7.229
 5106SOL     OW17150  12.615  10.565   7.097
 5106SOL    HW117151  12.528  10.605   7.100
 5106SOL    HW217152  12.602  10.477   7.133
 5107SOL     OW17153  12.826  12.230   9.009
 5107SOL    HW117154  12.774  12.302   8.973
 5107SOL    HW217155  12.841  12.172   8.934
 5108SOL     OW17156   7.586  14.431   1.393
 5108SOL    HW117157   7.495  14.423   1.424
 5108SOL    HW217158   7.626  14.495   1.452
 5109SOL     OW17159   8.798   9.154  14.528
 5109SOL    HW117160   8.723   9.198  14.488
 5109SOL    HW217161   8.874   9.195  14.487
 5110SOL     OW17162   5.845   0.836   4.255
 5110SOL    HW117163   5.922   0.877   4.216
 5110SOL    HW217164   5.867   0.742   4.258
 5111SOL     OW17165  12.001   8.515  13.316
 5111SOL    HW117166  11.972   8.434  13.275
 5111SOL    HW217167  12.044   8.487  13.397
 5112SOL     OW17168  12.642   4.850   4.868
 5112SOL    HW117169  12.663   4.794   4.942
 5112SOL    HW217170  12.574   4.802   4.820
 5113SOL     OW17171   0.005  14.821   9.513
 5113SOL    HW117172   0.075  14.867   9.466
 5113SOL    HW217173  14.810   0.003   9.512
 5114SOL     OW17174  12.140   6.222  13.571
 5114SOL    HW117175  12.076   6.186  13.510
 5114SOL    HW217176  12.216   6.241  13.516
 5115SOL     OW17177  11.715  12.204   0.286
 5115SOL    HW117178  11.627  12.171   0.302
 5115SOL    HW217179  11.731  12.267   0.356
 5116SOL     OW17180  11.242   1.190   9.289
 5116SOL    HW117181  11.284   1.241   9.219
 5116SOL    HW217182  11.149   1.192   9.266
 5117SOL     OW17183  12.414   5.862   4.167
 5117SOL    HW117184  12.454   5.887   4.251
 5117SOL    HW217185  12.327   5.899   4.169
 5118SOL     OW17186  12.703   9.862  13.473
 5118SOL    HW117187  12.724   9.838  13.563
 5118SOL    HW217188  12.625   9.811  13.452
 5119SOL     OW17189  11.777   5.361  10.120
 5119SOL    HW117190  11.721   5.430  10.156
 5119SOL    HW217191  11.748   5.281  10.165
 5120SOL     OW17192   6.778   1.026  10.991
 5120SOL    HW117193   6.863   0.987  10.969
 5120SOL    HW217194   6.745   1.060  10.908
 5121SOL     OW17195   8.977   0.810   1.804
 5121SOL    HW117196   8.924   0.731   1.813
 5121SOL    HW217197   8.933   0.874   1.860
 5122SOL     OW17198   9.620   8.915  14.163
 5122SOL    HW117199   9.682   8.939  14.093
 5122SOL    HW217200   9.600   8.823  14.146
 5123SOL     OW17201  11.533   3.594  12.898
 5123SOL    HW117202  11.552   3.688  12.897
 5123SOL    HW217203  11.501   3.575  12.810
 5124SOL     OW17204  12.475   5.026   2.745
 5124SOL    HW117205  12.389   4.989   2.764
 5124SOL    HW217206  12.494   5.084   2.818
 5125SOL     OW17207  11.733   8.410  13.835
 5125SOL    HW117208  11.646   8.370  13.835
 5125SOL    HW217209  11.717   8.502  13.852
 5126SOL     OW17210   5.663   9.785   3.816
 5126SOL    HW117211   5.668   9.767   3.722
 5126SOL    HW217212   5.754   9.782   3.846
 5127SOL     OW17213   7.565   9.441   3.842
 5127SOL    HW117214   7.659   9.443   3.824
 5127SOL    HW217215   7.527   9.503   3.779
 5128SOL     OW17216  10.362   6.860   6.349
 5128SOL    HW117217  10.438   6.856   6.290
 5128SOL    HW217218  10.373   6.784   6.407
 5129SOL     OW17219   4.394   7.574   2.646
 5129SOL    HW117220   4.479   7.560   2.605
 5129SOL    HW217221   4.341   7.616   2.578
 5130SOL     OW17222   6.621   9.023  12.904
 5130SOL    HW117223   6.541   8.975  12.926
 5130SOL    HW217224   6.677   9.012  12.981
 5131SOL     OW17225  11.174   1.542  12.746
 5131SOL    HW117226  11.192   1.553  12.653
 5131SOL    HW217227  11.179   1.631  12.782
 5132SOL     OW17228   4.022   6.196  14.206
 5132SOL    HW117229   4.030   6.102  14.220
 5132SOL    HW217230   4.064   6.236  14.282
 5133SOL     OW17231   3.592  11.379   8.931
 5133SOL    HW117232   3.672  11.430   8.943
 5133SOL    HW217233   3.586  11.365   8.836
 5134SOL     OW17234   8.429  10.830   0.040
 5134SOL    HW117235   8.384  10.777   0.105
 5134SOL    HW217236   8.455  10.768  14.850
 5135SOL     OW17237   8.811   8.573   2.461
 5135SOL    HW117238   8.796   8.479   2.451
 5135SOL    HW217239   8.725   8.609   2.483
 5136SOL     OW17240  13.681   7.104   9.264
 5136SOL    HW117241  13.656   7.014   9.286
 5136SOL    HW217242  13.664   7.154   9.343
 5137SOL     OW17243   9.402  11.309  12.385
 5137SOL    HW117244   9.411  11.355  12.468
 5137SOL    HW217245   9.318  11.341  12.350
 5138SOL     OW17246   2.822   1.781  10.565
 5138SOL    HW117247   2.868   1.793  10.482
 5138SOL    HW217248   2.884   1.811  10.631
 5139SOL     OW17249   9.628   7.491  12.411
 5139SOL    HW117250   9.687   7.459  12.479
 5139SOL    HW217251   9.645   7.433  12.336
 5140SOL     OW17252   0.115  14.005  11.837
 5140SOL    HW117253   0.127  13.973  11.926
 5140SOL    HW217254   0.153  14.093  11.839
 5141SOL     OW17255  12.914   6.741  13.585
 5141SOL    HW117256  12.855   6.723  13.658
 5141SOL    HW217257  12.957   6.823  13.608
 5142SOL     OW17258  11.531  14.803   8.332
 5142SOL    HW117259  11.477  14.730   8.302
 5142SOL    HW217260  11.616  14.764   8.351
 5143SOL     OW17261   6.176   2.426   4.952
 5143SOL    HW117262   6.212   2.339   4.968
 5143SOL    HW217263   6.081   2.412   4.943
 5144SOL     OW17264   6.129  12.820   7.986
 5144SOL    HW117265   6.064  12.887   8.006
 5144SOL    HW217266   6.213  12.861   8.008
 5145SOL     OW17267  12.415  13.066  13.877
 5145SOL    HW117268  12.507  13.086  13.895
 5145SOL    HW217269  12.373  13.069  13.963
 5146SOL     OW17270   3.764  14.332   8.316
 5146SOL    HW117271   3.819  14.255   8.305
 5146SOL    HW217272   3.692  14.319   8.255
 5147SOL     OW17273  13.658   9.070   1.655
 5147SOL    HW117274  13.653   9.092   1.748
 5147SOL    HW217275  13.751   9.075   1.635
 5148SOL     OW17276   0.019  13.868   5.195
 5148SOL    HW117277  14.828  13.929   5.173
 5148SOL    HW217278   0.027  13.874   5.290
 5149SOL     OW17279   8.769   6.917   6.283
 5149SOL    HW117280   8.739   6.960   6.363
 5149SOL    HW217281   8.865   6.918   6.290
 5150SOL     OW17282  13.637   6.754   6.016
 5150SOL    HW117283  13.608   6.845   6.012
 5150SOL    HW217284  13.557   6.704   6.031
 5151SOL     OW17285   0.885  11.023   3.690
 5151SOL    HW117286   0.855  11.085   3.624
 5151SOL    HW217287   0.906  10.943   3.641
 5152SOL     OW17288   9.879  12.605   4.736
 5152SOL    HW117289   9.890  12.685   4.788
 5152SOL    HW217290   9.818  12.552   4.786
 5153SOL     OW17291   3.600   2.273  13.055
 5153SOL    HW117292   3.527   2.288  13.115
 5153SOL    HW217293   3.673   2.319  13.095
 5154SOL     OW17294  12.685   3.254  10.023
 5154SOL    HW117295  12.658   3.231   9.935
 5154SOL    HW217296  12.684   3.350  10.025
 5155SOL     OW17297  14.243  13.532   4.335
 5155SOL    HW117298  14.242  13.514   4.429
 5155SOL    HW217299  14.158  13.573   4.318
 5156SOL     OW17300   7.475   1.917  11.730
 5156SOL    HW117301   7.500   2.009  11.726
 5156SOL    HW217302   7.447   1.903  11.820
 5157SOL     OW17303  11.101   6.460   0.070
 5157SOL    HW117304  11.073   6.399   0.138
 5157SOL    HW217305  11.037   6.448  14.878
 5158SOL     OW17306   0.213   3.999   5.193
 5158SOL    HW117307   0.141   3.938   5.208
 5158SOL    HW217308   0.187   4.079   5.238
 5159SOL     OW17309   9.830   3.385   3.367
 5159SOL    HW117310   9.883   3.357   3.293
 5159SOL    HW217311   9.892   3.432   3.424
 5160SOL     OW17312   0.700  12.013   6.469
 5160SOL    HW117313   0.618  12.064   6.467
 5160SOL    HW217314   0.747  12.047   6.546
 5161SOL     OW17315  13.431  14.217  10.524
 5161SOL    HW117316  13.407  14.200  10.432
 5161SOL    HW217317  13.348  14.242  10.566
 5162SOL     OW17318   1.414  12.322   3.435
 5162SOL    HW117319   1.383  12.337   3.346
 5162SOL    HW217320   1.509  12.338   3.430
 5163SOL     OW17321   0.284   6.762   0.427
 5163SOL    HW117322   0.351   6.829   0.444
 5163SOL    HW217323   0.329   6.696   0.375
 5164SOL     OW17324   8.575  14.109   6.987
 5164SOL    HW117325   8.483  14.082   6.988
 5164SOL    HW217326   8.612  14.072   7.067
 5165SOL     OW17327   9.588   2.712   2.558
 5165SOL    HW117328   9.598   2.662   2.638
 5165SOL    HW217329   9.644   2.668   2.494
 5166SOL     OW17330  10.167   7.193   9.343
 5166SOL    HW117331  10.163   7.124   9.409
 5166SOL    HW217332  10.145   7.148   9.261
 5167SOL     OW17333   1.315   8.585   5.648
 5167SOL    HW117334   1.306   8.634   5.566
 5167SOL    HW217335   1.346   8.650   5.711
 5168SOL     OW17336   8.772  14.441   9.063
 5168SOL    HW117337   8.846  14.459   9.005
 5168SOL    HW217338   8.764  14.521   9.116
 5169SOL     OW17339   6.597  10.858   9.833
 5169SOL    HW117340   6.624  10.771   9.804
 5169SOL    HW217341   6.631  10.917   9.766
 5170SOL     OW17342   9.661   2.983   4.295
 5170SOL    HW117343   9.746   2.947   4.321
 5170SOL    HW217344   9.645   2.947   4.208
 5171SOL     OW17345  12.573   5.606   9.074
 5171SOL    HW117346  12.639   5.671   9.098
 5171SOL    HW217347  12.601   5.575   8.988
 5172SOL     OW17348   9.347  14.020   2.271
 5172SOL    HW117349   9.341  14.104   2.316
 5172SOL    HW217350   9.311  13.957   2.333
 5173SOL     OW17351   7.773   7.191   0.750
 5173SOL    HW117352   7.783   7.148   0.835
 5173SOL    HW217353   7.705   7.142   0.705
 5174SOL     OW17354   0.623  12.518   3.979
 5174SOL    HW117355   0.661  12.592   4.027
 5174SOL    HW217356   0.529  12.527   3.991
 5175SOL     OW17357   1.091  11.015  12.221
 5175SOL    HW117358   1.105  11.106  12.247
 5175SOL    HW217359   1.133  10.963  12.290
 5176SOL     OW17360  13.597  14.389  13.524
 5176SOL    HW117361  13.611  14.474  13.564
 5176SOL    HW217362  13.680  14.369  13.480
 5177SOL     OW17363   1.076   3.015   8.833
 5177SOL    HW117364   1.043   3.013   8.923
 5177SOL    HW217365   1.087   3.108   8.814
 5178SOL     OW17366   5.794  12.212   7.261
 5178SOL    HW117367   5.875  12.202   7.212
 5178SOL    HW217368   5.735  12.146   7.224
 5179SOL     OW17369  11.170   1.279   7.993
 5179SOL    HW117370  11.135   1.208   7.940
 5179SOL    HW217371  11.105   1.290   8.063
 5180SOL     OW17372   9.935   6.860   6.758
 5180SOL    HW117373   9.854   6.808   6.752
 5180SOL    HW217374   9.967   6.864   6.667
 5181SOL     OW17375   6.062   1.235   6.352
 5181SOL    HW117376   6.030   1.186   6.428
 5181SOL    HW217377   6.077   1.324   6.386
 5182SOL     OW17378  12.537  13.378   3.355
 5182SOL    HW117379  12.442  13.369   3.362
 5182SOL    HW217380  12.550  13.438   3.282
 5183SOL     OW17381  10.808  14.147  11.162
 5183SOL    HW117382  10.743  14.217  11.159
 5183SOL    HW217383  10.870  14.168  11.092
 5184SOL     OW17384  11.919   5.990   8.955
 5184SOL    HW117385  11.947   5.908   8.997
 5184SOL    HW217386  11.934   5.975   8.862
 5185SOL     OW17387   0.006  14.690   2.525
 5185SOL    HW117388  14.802  14.698   2.479
 5185SOL    HW217389   0.061  14.761   2.489
 5186SOL     OW17390   0.515   3.685   4.802
 5186SOL    HW117391   0.531   3.750   4.734
 5186SOL    HW217392   0.546   3.726   4.882
 5187SOL     OW17393  11.999   0.175   3.081
 5187SOL    HW117394  11.941   0.250   3.094
 5187SOL    HW217395  11.950   0.116   3.024
 5188SOL     OW17396   0.353   1.854   9.314
 5188SOL    HW117397   0.411   1.922   9.349
 5188SOL    HW217398   0.280   1.902   9.275
 5189SOL     OW17399  13.092   5.477   2.461
 5189SOL    HW117400  13.156   5.538   2.497
 5189SOL    HW217401  13.036   5.531   2.406
 5190SOL     OW17402   0.689   4.980   1.624
 5190SOL    HW117403   0.616   5.008   1.568
 5190SOL    HW217404   0.653   4.977   1.712
 5191SOL     OW17405  11.024  11.879   0.418
 5191SOL    HW117406  11.030  11.974   0.405
 5191SOL    HW217407  11.006  11.844   0.331
 5192SOL     OW17408   5.118   2.517   6.033
 5192SOL    HW117409   5.211   2.497   6.029
 5192SOL    HW217410   5.082   2.455   6.096
 5193SOL     OW17411   8.540  14.776   7.077
 5193SOL    HW117412   8.625  14.750   7.113
 5193SOL    HW217413   8.530  14.723   6.998
 5194SOL     OW17414   0.548  10.974   3.478
 5194SOL    HW117415   0.472  11.026   3.505
 5194SOL    HW217416   0.518  10.924   3.402
 5195SOL     OW17417   8.324   8.353   6.440
 5195SOL    HW117418   8.296   8.438   6.474
 5195SOL    HW217419   8.251   8.294   6.460
 5196SOL     OW17420   6.125  11.540  12.364
 5196SOL    HW117421   6.187  11.613  12.366
 5196SOL    HW217422   6.176  11.466  12.331
 5197SOL     OW17423   5.422   7.543  13.602
 5197SOL    HW117424   5.489   7.583  13.545
 5197SOL    HW217425   5.426   7.594  13.683
 5198SOL     OW17426  13.287   7.799   9.814
 5198SOL    HW117427  13.301   7.707   9.836
 5198SOL    HW217428  13.220   7.829   9.876
 5199SOL     OW17429   0.098  14.529   6.829
 5199SOL    HW117430   0.070  14.570   6.912
 5199SOL    HW217431   0.058  14.583   6.761
 5200SOL     OW17432  13.966  10.150  11.327
 5200SOL    HW117433  14.051  10.113  11.350
 5200SOL    HW217434  13.926  10.085  11.270
 5201SOL     OW17435   3.978   6.525   3.539
 5201SOL    HW117436   3.982   6.555   3.448
 5201SOL    HW217437   4.045   6.577   3.584
 5202SOL     OW17438   9.472  12.504   5.837
 5202SOL    HW117439   9.434  12.461   5.914
 5202SOL    HW217440   9.411  12.484   5.766
 5203SOL     OW17441   1.084   3.581   8.778
 5203SOL    HW117442   1.118   3.644   8.841
 5203SOL    HW217443   0.990   3.576   8.797
 5204SOL     OW17444   6.541   4.296   4.623
 5204SOL    HW117445   6.462   4.351   4.618
 5204SOL    HW217446   6.600   4.334   4.558
 5205SOL     OW17447   4.277   9.175  13.066
 5205SOL    HW117448   4.347   9.197  13.127
 5205SOL    HW217449   4.203   9.152  13.121
 5206SOL     OW17450   1.580   5.081   9.988
 5206SOL    HW117451   1.593   5.032   9.907
 5206SOL    HW217452   1.618   5.167   9.970
 5207SOL     OW17453   0.452   2.414   8.175
 5207SOL    HW117454   0.375   2.383   8.126
 5207SOL    HW217455   0.526   2.398   8.116
 5208SOL     OW17456   6.467  14.270  14.785
 5208SOL    HW117457   6.524  14.312  14.849
 5208SOL    HW217458   6.435  14.191  14.829
 5209SOL     OW17459  14.257   1.991   6.670
 5209SOL    HW117460  14.193   1.995   6.741
 5209SOL    HW217461  14.211   1.951   6.597
 5210SOL     OW17462  12.175  11.783   2.763
 5210SOL    HW117463  12.166  11.858   2.704
 5210SOL    HW217464  12.208  11.712   2.708
 5211SOL     OW17465   8.829   3.023  11.857
 5211SOL    HW117466   8.790   2.964  11.792
 5211SOL    HW217467   8.907   2.976  11.888
 5212SOL     OW17468   6.320  14.376  12.817
 5212SOL    HW117469   6.245  14.393  12.761
 5212SOL    HW217470   6.330  14.456  12.869
 5213SOL     OW17471   2.156   1.629  13.491
 5213SOL    HW117472   2.145   1.552  13.436
 5213SOL    HW217473   2.250   1.647  13.488
 5214SOL     OW17474   4.421   8.473   9.116
 5214SOL    HW117475   4.365   8.488   9.192
 5214SOL    HW217476   4.473   8.396   9.138
 5215SOL     OW17477   3.195   7.652   0.356
 5215SOL    HW117478   3.107   7.668   0.321
 5215SOL    HW217479   3.253   7.697   0.294
 5216SOL     OW17480  11.848   4.817   1.749
 5216SOL    HW117481  11.904   4.891   1.772
 5216SOL    HW217482  11.898   4.767   1.684
 5217SOL     OW17483  12.850   8.638   4.809
 5217SOL    HW117484  12.772   8.620   4.757
 5217SOL    HW217485  12.822   8.700   4.875
 5218SOL     OW17486   6.136   1.072  10.746
 5218SOL    HW117487   6.224   1.066  10.709
 5218SOL    HW217488   6.120   0.986  10.784
 5219SOL     OW17489   1.381   8.173   7.226
 5219SOL    HW117490   1.383   8.084   7.190
 5219SOL    HW217491   1.293   8.184   7.260
 5220SOL     OW17492   6.460  11.393   1.579
 5220SOL    HW117493   6.512  11.378   1.499
 5220SOL    HW217494   6.521  11.436   1.639
 5221SOL     OW17495   9.553  14.459   8.690
 5221SOL    HW117496   9.630  14.414   8.725
 5221SOL    HW217497   9.551  14.543   8.736
 5222SOL     OW17498   7.082   7.268   2.497
 5222SOL    HW117499   7.135   7.248   2.419
 5222SOL    HW217500   7.088   7.188   2.550
 5223SOL     OW17501   9.063   5.744   9.090
 5223SOL    HW117502   9.037   5.655   9.112
 5223SOL    HW217503   9.096   5.738   9.000
 5224SOL     OW17504   4.122  13.283   4.841
 5224SOL    HW117505   4.159  13.242   4.920
 5224SOL    HW217506   4.027  13.280   4.856
 5225SOL     OW17507  12.108   8.321   0.711
 5225SOL    HW117508  12.047   8.258   0.672
 5225SOL    HW217509  12.195   8.289   0.688
 5226SOL     OW17510   6.367   2.142   4.820
 5226SOL    HW117511   6.326   2.203   4.759
 5226SOL    HW217512   6.341   2.173   4.907
 5227SOL     OW17513   3.155  13.379   1.328
 5227SOL    HW117514   3.192  13.467   1.335
 5227SOL    HW217515   3.163  13.343   1.417
 5228SOL     OW17516  11.925   8.878   3.568
 5228SOL    HW117517  11.972   8.796   3.579
 5228SOL    HW217518  11.978   8.943   3.614
 5229SOL     OW17519   6.555  10.670   8.531
 5229SOL    HW117520   6.640  10.658   8.573
 5229SOL    HW217521   6.520  10.751   8.569
 5230SOL     OW17522   0.103   6.533   2.783
 5230SOL    HW117523   0.170   6.547   2.850
 5230SOL    HW217524   0.147   6.481   2.716
 5231SOL     OW17525  14.295  11.764  14.077
 5231SOL    HW117526  14.359  11.835  14.087
 5231SOL    HW217527  14.336  11.689  14.119
 5232SOL     OW17528   2.053   4.901   2.601
 5232SOL    HW117529   1.983   4.840   2.579
 5232SOL    HW217530   2.011   4.969   2.654
 5233SOL     OW17531   7.931   4.911   1.793
 5233SOL    HW117532   7.909   4.939   1.704
 5233SOL    HW217533   8.026   4.921   1.798
 5234SOL     OW17534   1.116   9.248   9.983
 5234SOL    HW117535   1.059   9.176   9.956
 5234SOL    HW217536   1.158   9.277   9.902
 5235SOL     OW17537   4.167   5.900   6.496
 5235SOL    HW117538   4.145   5.977   6.548
 5235SOL    HW217539   4.122   5.914   6.412
 5236SOL     OW17540   7.371  14.540   0.311
 5236SOL    HW117541   7.366  14.566   0.219
 5236SOL    HW217542   7.384  14.445   0.308
 5237SOL     OW17543   2.644   5.014   0.342
 5237SOL    HW117544   2.598   5.017   0.258
 5237SOL    HW217545   2.638   5.104   0.375
 5238SOL     OW17546   7.252   5.304   5.886
 5238SOL    HW117547   7.193   5.257   5.827
 5238SOL    HW217548   7.336   5.305   5.840
 5239SOL     OW17549  13.933  14.190  13.756
 5239SOL    HW117550  13.872  14.133  13.802
 5239SOL    HW217551  14.018  14.148  13.767
 5240SOL     OW17552  10.319   6.017   0.782
 5240SOL    HW117553  10.370   5.978   0.854
 5240SOL    HW217554  10.363   6.099   0.763
 5241SOL     OW17555   5.695  10.183   0.170
 5241SOL    HW117556   5.614  10.154   0.213
 5241SOL    HW217557   5.763  10.171   0.237
 5242SOL     OW17558  10.186   0.317  12.223
 5242SOL    HW117559  10.165   0.398  12.177
 5242SOL    HW217560  10.110   0.300  12.279
 5243SOL     OW17561  12.572   4.477  12.716
 5243SOL    HW117562  12.480   4.501  12.712
 5243SOL    HW217563  12.614   4.533  12.650
 5244SOL     OW17564   7.079   5.324  11.889
 5244SOL    HW117565   7.087   5.294  11.980
 5244SOL    HW217566   6.990   5.300  11.864
 5245SOL     OW17567   4.335   2.701  12.814
 5245SOL    HW117568   4.288   2.784  12.805
 5245SOL    HW217569   4.289   2.641  12.755
 5246SOL     OW17570   0.939   4.722   2.631
 5246SOL    HW117571   0.922   4.669   2.553
 5246SOL    HW217572   0.895   4.805   2.614
 5247SOL     OW17573   3.671  12.304  13.643
 5247SOL    HW117574   3.700  12.224  13.598
 5247SOL    HW217575   3.749  12.359  13.647
 5248SOL     OW17576  10.003   4.222   9.695
 5248SOL    HW117577   9.926   4.184   9.736
 5248SOL    HW217578   9.972   4.304   9.657
 5249SOL     OW17579   2.834  11.902  10.105
 5249SOL    HW117580   2.796  11.972  10.158
 5249SOL    HW217581   2.772  11.830  10.114
 5250SOL     OW17582  12.454   9.366   4.774
 5250SOL    HW117583  12.443   9.457   4.749
 5250SOL    HW217584  12.533   9.366   4.828
 5251SOL     OW17585  11.881   8.041   5.043
 5251SOL    HW117586  11.871   8.078   4.956
 5251SOL    HW217587  11.926   7.957   5.029
 5252SOL     OW17588   1.961   3.910  14.118
 5252SOL    HW117589   1.886   3.954  14.076
 5252SOL    HW217590   2.003   3.979  14.169
 5253SOL     OW17591  12.471   8.448   6.332
 5253SOL    HW117592  12.488   8.534   6.372
 5253SOL    HW217593  12.438   8.395   6.404
 5254SOL     OW17594   2.432   4.642   9.950
 5254SOL    HW117595   2.421   4.640  10.045
 5254SOL    HW217596   2.471   4.557   9.929
 5255SOL     OW17597   5.092  11.853   1.953
 5255SOL    HW117598   5.182  11.842   1.922
 5255SOL    HW217599   5.090  11.808   2.038
 5256SOL     OW17600   5.544   5.226   5.857
 5256SOL    HW117601   5.479   5.200   5.792
 5256SOL    HW217602   5.571   5.144   5.899
 5257SOL     OW17603   7.359   7.328   0.506
 5257SOL    HW117604   7.353   7.423   0.515
 5257SOL    HW217605   7.347   7.312   0.412
 5258SOL     OW17606  10.663   0.660   8.454
 5258SOL    HW117607  10.690   0.739   8.408
 5258SOL    HW217608  10.585   0.630   8.406
 5259SOL     OW17609   2.917   5.978   4.827
 5259SOL    HW117610   2.834   5.954   4.786
 5259SOL    HW217611   2.950   6.052   4.775
 5260SOL     OW17612   1.659   5.430   2.539
 5260SOL    HW117613   1.582   5.463   2.585
 5260SOL    HW217614   1.725   5.499   2.550
 5261SOL     OW17615   8.964   4.661   1.957
 5261SOL    HW117616   9.054   4.659   1.988
 5261SOL    HW217617   8.964   4.604   1.880
 5262SOL     OW17618   3.897   2.006  12.353
 5262SOL    HW117619   3.950   2.070  12.305
 5262SOL    HW217620   3.903   2.033  12.444
 5263SOL     OW17621  12.439  11.572   8.189
 5263SOL    HW117622  12.387  11.512   8.242
 5263SOL    HW217623  12.511  11.518   8.157
 5264SOL     OW17624   3.937   6.997   3.888
 5264SOL    HW117625   3.938   7.036   3.801
 5264SOL    HW217626   3.875   6.925   3.882
 5265SOL     OW17627   0.821   1.713   3.950
 5265SOL    HW117628   0.855   1.714   4.040
 5265SOL    HW217629   0.845   1.798   3.915
 5266SOL     OW17630   3.919   5.072  12.993
 5266SOL    HW117631   3.862   5.070  13.070
 5266SOL    HW217632   4.007   5.074  13.029
 5267SOL     OW17633  12.254  13.717   9.116
 5267SOL    HW117634  12.168  13.698   9.152
 5267SOL    HW217635  12.315  13.670   9.174
 5268SOL     OW17636   7.303   7.625  12.556
 5268SOL    HW117637   7.222   7.611  12.508
 5268SOL    HW217638   7.358   7.676  12.497
 5269SOL     OW17639  14.532   5.542   0.271
 5269SOL    HW117640  14.563   5.582   0.352
 5269SOL    HW217641  14.494   5.614   0.221
 5270SOL     OW17642   6.776  14.483  12.871
 5270SOL    HW117643   6.785  14.388  12.876
 5270SOL    HW217644   6.726  14.498  12.791
 5271SOL     OW17645   4.046   9.607   9.324
 5271SOL    HW117646   4.128   9.641   9.361
 5271SOL    HW217647   4.041   9.517   9.358
 5272SOL     OW17648  12.350  12.230   4.182
 5272SOL    HW117649  12.359  12.164   4.251
 5272SOL    HW217650  12.428  12.285   4.190
 5273SOL     OW17651  11.892   1.854   9.839
 5273SOL    HW117652  11.802   1.833   9.812
 5273SOL    HW217653  11.903   1.808   9.922
 5274SOL     OW17654   8.577  13.233   2.956
 5274SOL    HW117655   8.629  13.313   2.949
 5274SOL    HW217656   8.530  13.227   2.873
 5275SOL     OW17657   4.920   7.143   6.951
 5275SOL    HW117658   4.881   7.092   6.880
 5275SOL    HW217659   5.014   7.142   6.933
 5276SOL     OW17660  12.870  13.719   2.911
 5276SOL    HW117661  12.785  13.724   2.866
 5276SOL    HW217662  12.919  13.653   2.862
 5277SOL     OW17663   5.480   7.627   3.572
 5277SOL    HW117664   5.437   7.709   3.547
 5277SOL    HW217665   5.529   7.601   3.494
 5278SOL     OW17666  11.690   9.049   8.296
 5278SOL    HW117667  11.661   8.958   8.300
 5278SOL    HW217668  11.662   9.079   8.210
 5279SOL     OW17669   0.504   8.475   5.490
 5279SOL    HW117670   0.501   8.423   5.570
 5279SOL    HW217671   0.469   8.417   5.422
 5280SOL     OW17672  12.084  11.732   5.107
 5280SOL    HW117673  12.026  11.799   5.141
 5280SOL    HW217674  12.172  11.767   5.121
 5281SOL     OW17675   0.237  13.761   7.215
 5281SOL    HW117676   0.210  13.821   7.285
 5281SOL    HW217677   0.189  13.680   7.233
 5282SOL     OW17678  14.162  13.163   1.654
 5282SOL    HW117679  14.110  13.095   1.698
 5282SOL    HW217680  14.223  13.114   1.599
 5283SOL     OW17681  14.140   0.828   5.997
 5283SOL    HW117682  14.123   0.771   6.073
 5283SOL    HW217683  14.173   0.909   6.035
 5284SOL     OW17684  10.306   7.797  13.056
 5284SOL    HW117685  10.240   7.858  13.022
 5284SOL    HW217686  10.338   7.750  12.978
 5285SOL     OW17687   4.275   7.140   5.177
 5285SOL    HW117688   4.302   7.188   5.098
 5285SOL    HW217689   4.355   7.097   5.207
 5286SOL     OW17690  14.115   6.217   3.963
 5286SOL    HW117691  14.171   6.187   4.035
 5286SOL    HW217692  14.029   6.228   4.002
 5287SOL     OW17693   2.851   0.746   5.339
 5287SOL    HW117694   2.895   0.700   5.267
 5287SOL    HW217695   2.923   0.780   5.393
 5288SOL     OW17696  12.634  12.798   7.954
 5288SOL    HW117697  12.725  12.807   7.923
 5288SOL    HW217698  12.615  12.705   7.945
 5289SOL     OW17699   1.391  11.080  13.079
 5289SOL    HW117700   1.361  11.159  13.125
 5289SOL    HW217701   1.341  11.080  12.997
 5290SOL     OW17702   9.917   3.158   0.233
 5290SOL    HW117703   9.974   3.203   0.295
 5290SOL    HW217704   9.832   3.199   0.244
 5291SOL     OW17705   4.971  10.676   9.563
 5291SOL    HW117706   4.941  10.722   9.641
 5291SOL    HW217707   5.067  10.680   9.568
 5292SOL     OW17708   8.749   0.236  11.173
 5292SOL    HW117709   8.823   0.175  11.177
 5292SOL    HW217710   8.789   0.323  11.179
 5293SOL     OW17711  11.055   8.963   7.278
 5293SOL    HW117712  10.990   8.975   7.209
 5293SOL    HW217713  11.067   9.051   7.316
 5294SOL     OW17714   0.493  13.938   2.321
 5294SOL    HW117715   0.486  13.928   2.226
 5294SOL    HW217716   0.558  14.008   2.334
 5295SOL     OW17717   9.871   1.382   0.955
 5295SOL    HW117718   9.839   1.446   0.892
 5295SOL    HW217719   9.794   1.328   0.976
 5296SOL     OW17720   1.641   7.770  12.561
 5296SOL    HW117721   1.655   7.743  12.652
 5296SOL    HW217722   1.627   7.865  12.566
 5297SOL     OW17723  10.039   1.119   7.520
 5297SOL    HW117724  10.076   1.061   7.453
 5297SOL    HW217725  10.067   1.080   7.603
 5298SOL     OW17726   7.110   0.577  14.642
 5298SOL    HW117727   7.166   0.588  14.566
 5298SOL    HW217728   7.163   0.605  14.716
 5299SOL     OW17729   3.316  14.110  11.637
 5299SOL    HW117730   3.406  14.137  11.655
 5299SOL    HW217731   3.279  14.183  11.586
 5300SOL     OW17732  12.926  13.084   6.258
 5300SOL    HW117733  12.898  13.175   6.271
 5300SOL    HW217734  12.846  13.039   6.229
 5301SOL     OW17735   2.102   9.488   4.099
 5301SOL    HW117736   2.036   9.484   4.030
 5301SOL    HW217737   2.177   9.530   4.058
 5302SOL     OW17738   1.720  12.046  13.667
 5302SOL    HW117739   1.643  11.992  13.648
 5302SOL    HW217740   1.762  12.003  13.741
 5303SOL     OW17741   6.951   3.223  13.572
 5303SOL    HW117742   6.902   3.278  13.511
 5303SOL    HW217743   7.001   3.164  13.515
 5304SOL     OW17744   2.273   7.341   4.291
 5304SOL    HW117745   2.316   7.376   4.369
 5304SOL    HW217746   2.253   7.250   4.313
 5305SOL     OW17747  12.201  13.121   5.003
 5305SOL    HW117748  12.131  13.103   4.940
 5305SOL    HW217749  12.156  13.121   5.088
 5306SOL     OW17750  13.013  12.401  13.483
 5306SOL    HW117751  12.933  12.451  13.470
 5306SOL    HW217752  12.987  12.326  13.536
 5307SOL     OW17753   9.616  10.130   7.073
 5307SOL    HW117754   9.667  10.051   7.091
 5307SOL    HW217755   9.576  10.153   7.156
 5308SOL     OW17756  13.698   4.901   3.223
 5308SOL    HW117757  13.688   4.984   3.175
 5308SOL    HW217758  13.614   4.856   3.212
 5309SOL     OW17759  11.606   5.045   6.726
 5309SOL    HW117760  11.643   5.023   6.641
 5309SOL    HW217761  11.583   5.138   6.719
 5310SOL     OW17762  13.685   7.527   5.356
 5310SOL    HW117763  13.759   7.497   5.409
 5310SOL    HW217764  13.724   7.584   5.291
 5311SOL     OW17765   7.119   2.493   4.013
 5311SOL    HW117766   7.214   2.499   4.017
 5311SOL    HW217767   7.097   2.515   3.923
 5312SOL     OW17768   7.831   0.074   9.792
 5312SOL    HW117769   7.736   0.071   9.780
 5312SOL    HW217770   7.845   0.036   9.879
 5313SOL     OW17771  14.107   3.580   5.844
 5313SOL    HW117772  14.139   3.494   5.815
 5313SOL    HW217773  14.053   3.611   5.771
 5314SOL     OW17774   5.060   9.734   8.482
 5314SOL    HW117775   5.134   9.688   8.443
 5314SOL    HW217776   5.055   9.699   8.571
 5315SOL     OW17777  10.636   2.030  14.010
 5315SOL    HW117778  10.681   1.947  14.030
 5315SOL    HW217779  10.707   2.094  14.005
 5316SOL     OW17780  11.133  13.605   1.887
 5316SOL    HW117781  11.111  13.544   1.816
 5316SOL    HW217782  11.221  13.579   1.914
 5317SOL     OW17783  14.643   3.406  14.127
 5317SOL    HW117784  14.589   3.363  14.194
 5317SOL    HW217785  14.733   3.383  14.150
 5318SOL     OW17786   5.943  13.725   2.372
 5318SOL    HW117787   5.922  13.633   2.386
 5318SOL    HW217788   5.911  13.744   2.283
 5319SOL     OW17789   1.043   8.313  13.799
 5319SOL    HW117790   1.127   8.291  13.840
 5319SOL    HW217791   0.979   8.266  13.852
 5320SOL     OW17792  14.677   6.096   1.315
 5320SOL    HW117793  14.670   6.014   1.266
 5320SOL    HW217794  14.631   6.160   1.261
 5321SOL     OW17795   9.322   1.812  10.141
 5321SOL    HW117796   9.410   1.825  10.108
 5321SOL    HW217797   9.321   1.722  10.172
 5322SOL     OW17798  11.068   7.007   9.060
 5322SOL    HW117799  11.045   7.092   9.098
 5322SOL    HW217800  11.023   7.005   8.976
 5323SOL     OW17801   1.705   1.641  10.828
 5323SOL    HW117802   1.711   1.685  10.744
 5323SOL    HW217803   1.722   1.549  10.809
 5324SOL     OW17804   7.897   8.181  11.737
 5324SOL    HW117805   7.933   8.268  11.720
 5324SOL    HW217806   7.929   8.159  11.824
 5325SOL     OW17807  12.169   8.953   8.726
 5325SOL    HW117808  12.159   8.968   8.633
 5325SOL    HW217809  12.237   8.885   8.732
 5326SOL     OW17810   7.601  13.294   0.821
 5326SOL    HW117811   7.624  13.264   0.909
 5326SOL    HW217812   7.505  13.296   0.821
 5327SOL     OW17813  11.028   0.239   7.649
 5327SOL    HW117814  10.967   0.268   7.582
 5327SOL    HW217815  11.017   0.302   7.720
 5328SOL     OW17816   1.147   1.455   8.604
 5328SOL    HW117817   1.214   1.524   8.609
 5328SOL    HW217818   1.192   1.376   8.633
 5329SOL     OW17819   2.557   6.280   1.583
 5329SOL    HW117820   2.647   6.300   1.609
 5329SOL    HW217821   2.504   6.348   1.625
 5330SOL     OW17822   3.440  12.405   8.214
 5330SOL    HW117823   3.480  12.374   8.133
 5330SOL    HW217824   3.477  12.492   8.228
 5331SOL     OW17825   3.201   7.336   2.857
 5331SOL    HW117826   3.239   7.292   2.780
 5331SOL    HW217827   3.273   7.340   2.919
 5332SOL     OW17828   7.878  10.116  13.005
 5332SOL    HW117829   7.819  10.167  12.950
 5332SOL    HW217830   7.902  10.176  13.076
 5333SOL     OW17831   4.323   9.627   0.236
 5333SOL    HW117832   4.335   9.719   0.213
 5333SOL    HW217833   4.388   9.581   0.185
 5334SOL     OW17834  10.924   5.029  14.207
 5334SOL    HW117835  10.850   5.072  14.250
 5334SOL    HW217836  10.902   5.029  14.114
 5335SOL     OW17837  10.057   1.402   9.536
 5335SOL    HW117838  10.152   1.391   9.538
 5335SOL    HW217839  10.031   1.374   9.448
 5336SOL     OW17840   4.001   2.037   2.994
 5336SOL    HW117841   4.070   2.036   2.928
 5336SOL    HW217842   4.016   2.117   3.043
 5337SOL     OW17843   9.587   1.813  11.272
 5337SOL    HW117844   9.584   1.880  11.203
 5337SOL    HW217845   9.502   1.817  11.313
 5338SOL     OW17846   4.283   8.933  14.622
 5338SOL    HW117847   4.235   8.965  14.699
 5338SOL    HW217848   4.276   8.838  14.626
 5339SOL     OW17849   9.830   8.959  12.971
 5339SOL    HW117850   9.867   8.873  12.950
 5339SOL    HW217851   9.739   8.955  12.942
 5340SOL     OW17852  10.241   4.015  13.018
 5340SOL    HW117853  10.254   4.078  13.089
 5340SOL    HW217854  10.277   3.933  13.052
 5341SOL     OW17855  10.865   5.076   3.556
 5341SOL    HW117856  10.887   5.045   3.644
 5341SOL    HW217857  10.796   5.141   3.570
 5342SOL     OW17858  11.557   7.555   4.859
 5342SOL    HW117859  11.517   7.605   4.930
 5342SOL    HW217860  11.644   7.594   4.848
 5343SOL     OW17861  12.145   6.072   6.718
 5343SOL    HW117862  12.078   6.124   6.761
 5343SOL    HW217863  12.226   6.123   6.727
 5344SOL     OW17864   7.600  13.469   6.654
 5344SOL    HW117865   7.649  13.524   6.715
 5344SOL    HW217866   7.666  13.433   6.595
 5345SOL     OW17867   6.940   5.317  13.322
 5345SOL    HW117868   6.972   5.320  13.412
 5345SOL    HW217869   7.009   5.274  13.273
 5346SOL     OW17870  13.376   1.969  14.190
 5346SOL    HW117871  13.302   1.916  14.161
 5346SOL    HW217872  13.401   2.019  14.113
 5347SOL     OW17873   2.218   4.709   8.686
 5347SOL    HW117874   2.293   4.719   8.629
 5347SOL    HW217875   2.216   4.617   8.709
 5348SOL     OW17876   3.683   4.238  13.794
 5348SOL    HW117877   3.767   4.214  13.833
 5348SOL    HW217878   3.697   4.230  13.700
 5349SOL     OW17879   2.672   3.611  12.775
 5349SOL    HW117880   2.660   3.677  12.843
 5349SOL    HW217881   2.767   3.595  12.773
 5350SOL     OW17882   6.499   5.213   6.503
 5350SOL    HW117883   6.591   5.195   6.518
 5350SOL    HW217884   6.461   5.129   6.479
 5351SOL     OW17885  11.587   9.171   6.339
 5351SOL    HW117886  11.679   9.166   6.365
 5351SOL    HW217887  11.543   9.106   6.394
 5352SOL     OW17888   0.076  13.696  12.916
 5352SOL    HW117889   0.022  13.774  12.904
 5352SOL    HW217890   0.077  13.683  13.011
 5353SOL     OW17891   5.063   2.332   5.401
 5353SOL    HW117892   5.068   2.384   5.481
 5353SOL    HW217893   5.134   2.366   5.346
 5354SOL     OW17894   6.236  11.035  10.566
 5354SOL    HW117895   6.289  10.973  10.617
 5354SOL    HW217896   6.298  11.100  10.535
 5355SOL     OW17897   6.946  13.531  10.563
 5355SOL    HW117898   7.023  13.565  10.609
 5355SOL    HW217899   6.872  13.575  10.604
 5356SOL     OW17900  12.677   0.089  13.969
 5356SOL    HW117901  12.653   0.072  14.060
 5356SOL    HW217902  12.625   0.165  13.944
 5357SOL     OW17903  14.073   5.912   4.304
 5357SOL    HW117904  14.081   6.004   4.328
 5357SOL    HW217905  13.980   5.892   4.315
 5358SOL     OW17906   3.860   8.067  10.952
 5358SOL    HW117907   3.831   8.043  11.040
 5358SOL    HW217908   3.879   7.984  10.909
 5359SOL     OW17909   6.765  12.386   2.223
 5359SOL    HW117910   6.805  12.438   2.293
 5359SOL    HW217911   6.703  12.329   2.269
 5360SOL     OW17912  10.723   3.643   9.550
 5360SOL    HW117913  10.774   3.646   9.631
 5360SOL    HW217914  10.745   3.726   9.506
 5361SOL     OW17915  13.783   5.986  14.748
 5361SOL    HW117916  13.814   5.897  14.729
 5361SOL    HW217917  13.861   6.041  14.737
 5362SOL     OW17918   1.034   5.291   9.867
 5362SOL    HW117919   1.115   5.261   9.909
 5362SOL    HW217920   1.056   5.298   9.775
 5363SOL     OW17921   4.168   3.947   4.453
 5363SOL    HW117922   4.076   3.926   4.467
 5363SOL    HW217923   4.215   3.868   4.480
 5364SOL     OW17924   3.187   0.662  11.465
 5364SOL    HW117925   3.133   0.705  11.531
 5364SOL    HW217926   3.131   0.595  11.427
 5365SOL     OW17927  14.046  11.313  12.320
 5365SOL    HW117928  14.076  11.374  12.252
 5365SOL    HW217929  13.967  11.354  12.355
 5366SOL     OW17930   9.968   2.717   6.710
 5366SOL    HW117931   9.975   2.644   6.648
 5366SOL    HW217932  10.011   2.686   6.789
 5367SOL     OW17933  11.845  14.742  10.218
 5367SOL    HW117934  11.826  14.730  10.311
 5367SOL    HW217935  11.759  14.756  10.177
 5368SOL     OW17936   4.392  11.948   1.174
 5368SOL    HW117937   4.436  12.008   1.233
 5368SOL    HW217938   4.449  11.871   1.171
 5369SOL     OW17939   9.307   6.059  14.176
 5369SOL    HW117940   9.329   5.966  14.169
 5369SOL    HW217941   9.302   6.089  14.085
 5370SOL     OW17942   8.005   8.668  10.525
 5370SOL    HW117943   7.936   8.602  10.533
 5370SOL    HW217944   8.078   8.620  10.486
 5371SOL     OW17945   1.249   9.152   4.285
 5371SOL    HW117946   1.274   9.212   4.215
 5371SOL    HW217947   1.248   9.065   4.243
 5372SOL     OW17948  13.754   9.438  13.511
 5372SOL    HW117949  13.796   9.504  13.566
 5372SOL    HW217950  13.694   9.392  13.569
 5373SOL     OW17951   7.753  10.374   0.135
 5373SOL    HW117952   7.806  10.296   0.151
 5373SOL    HW217953   7.692  10.376   0.209
 5374SOL     OW17954  12.382   4.075  10.406
 5374SOL    HW117955  12.397   4.017  10.481
 5374SOL    HW217956  12.470   4.102  10.380
 5375SOL     OW17957  14.154   9.096   5.170
 5375SOL    HW117958  14.214   9.167   5.191
 5375SOL    HW217959  14.076   9.115   5.223
 5376SOL     OW17960  11.486   7.060   2.531
 5376SOL    HW117961  11.580   7.066   2.518
 5376SOL    HW217962  11.470   6.967   2.549
 5377SOL     OW17963   1.768  11.743   2.921
 5377SOL    HW117964   1.781  11.695   2.840
 5377SOL    HW217965   1.844  11.722   2.975
 5378SOL     OW17966   9.723   8.050  10.339
 5378SOL    HW117967   9.733   7.955  10.332
 5378SOL    HW217968   9.676   8.063  10.422
 5379SOL     OW17969   7.313  12.972  10.231
 5379SOL    HW117970   7.374  12.900  10.245
 5379SOL    HW217971   7.366  13.043  10.195
 5380SOL     OW17972   2.164   9.339  12.752
 5380SOL    HW117973   2.252   9.301  12.763
 5380SOL    HW217974   2.105   9.274  12.790
 5381SOL     OW17975  11.039  13.817  11.321
 5381SOL    HW117976  10.968  13.775  11.272
 5381SOL    HW217977  10.995  13.877  11.381
 5382SOL     OW17978   2.829  11.813   2.360
 5382SOL    HW117979   2.822  11.820   2.265
 5382SOL    HW217980   2.801  11.723   2.379
 5383SOL     OW17981  13.953  12.311   7.696
 5383SOL    HW117982  13.967  12.219   7.721
 5383SOL    HW217983  13.878  12.308   7.638
 5384SOL     OW17984   7.200   5.352   2.398
 5384SOL    HW117985   7.108   5.329   2.407
 5384SOL    HW217986   7.220   5.402   2.477
 5385SOL     OW17987   2.526   4.237  13.707
 5385SOL    HW117988   2.437   4.205  13.718
 5385SOL    HW217989   2.529   4.268  13.616
 5386SOL     OW17990  13.163   3.698   6.486
 5386SOL    HW117991  13.245   3.747   6.472
 5386SOL    HW217992  13.098   3.766   6.502
 5387SOL     OW17993  11.734   9.720   0.717
 5387SOL    HW117994  11.665   9.786   0.721
 5387SOL    HW217995  11.799   9.757   0.658
 5388SOL     OW17996   2.855  13.051   3.772
 5388SOL    HW117997   2.782  13.084   3.720
 5388SOL    HW217998   2.928  13.109   3.752
 5389SOL     OW17999  10.338   6.743   5.570
 5389SOL    HW118000  10.284   6.810   5.529
 5389SOL    HW218001  10.284   6.708   5.640
 5390SOL     OW18002   2.917   5.046   7.675
 5390SOL    HW118003   2.947   4.987   7.606
 5390SOL    HW218004   2.954   5.131   7.653
 5391SOL     OW18005   4.739  11.136   8.896
 5391SOL    HW118006   4.701  11.141   8.808
 5391SOL    HW218007   4.832  11.157   8.883
 5392SOL     OW18008   1.551  13.151   5.018
 5392SOL    HW118009   1.505  13.216   5.073
 5392SOL    HW218010   1.643  13.178   5.022
 5393SOL     OW18011  10.193  12.978  13.691
 5393SOL    HW118012  10.104  12.998  13.722
 5393SOL    HW218013  10.179  12.922  13.615
 5394SOL     OW18014  10.971  13.423   6.471
 5394SOL    HW118015  10.937  13.473   6.546
 5394SOL    HW218016  10.966  13.332   6.498
 5395SOL     OW18017   4.706  10.594   2.374
 5395SOL    HW118018   4.758  10.674   2.373
 5395SOL    HW218019   4.733  10.547   2.294
 5396SOL     OW18020  13.703   5.403   5.794
 5396SOL    HW118021  13.775   5.340   5.800
 5396SOL    HW218022  13.672   5.397   5.704
 5397SOL     OW18023   4.451   5.099   0.955
 5397SOL    HW118024   4.500   5.022   0.926
 5397SOL    HW218025   4.433   5.148   0.875
 5398SOL     OW18026  10.651   7.141   9.943
 5398SOL    HW118027  10.639   7.077  10.013
 5398SOL    HW218028  10.570   7.137   9.893
 5399SOL     OW18029   7.877   3.581  13.864
 5399SOL    HW118030   7.819   3.545  13.797
 5399SOL    HW218031   7.960   3.598  13.817
 5400SOL     OW18032   2.836   9.232   2.343
 5400SOL    HW118033   2.829   9.188   2.258
 5400SOL    HW218034   2.833   9.325   2.323
 5401SOL     OW18035   3.582   1.615  12.875
 5401SOL    HW118036   3.650   1.648  12.933
 5401SOL    HW218037   3.616   1.533  12.840
 5402SOL     OW18038  10.155  10.503   9.640
 5402SOL    HW118039  10.226  10.518   9.578
 5402SOL    HW218040  10.118  10.591   9.656
 5403SOL     OW18041   9.064   0.854   4.613
 5403SOL    HW118042   8.970   0.840   4.602
 5403SOL    HW218043   9.105   0.799   4.547
 5404SOL     OW18044   4.003   2.448   1.870
 5404SOL    HW118045   4.057   2.513   1.826
 5404SOL    HW218046   4.000   2.476   1.961
 5405SOL     OW18047   4.340  10.389   9.195
 5405SOL    HW118048   4.301  10.323   9.138
 5405SOL    HW218049   4.361  10.462   9.136
 5406SOL     OW18050   7.675   1.414   2.365
 5406SOL    HW118051   7.683   1.386   2.457
 5406SOL    HW218052   7.676   1.332   2.315
 5407SOL     OW18053  14.047  11.785   3.447
 5407SOL    HW118054  14.049  11.823   3.359
 5407SOL    HW218055  13.983  11.714   3.441
 5408SOL     OW18056   8.724  14.013   8.340
 5408SOL    HW118057   8.754  14.069   8.412
 5408SOL    HW218058   8.748  14.062   8.261
 5409SOL     OW18059  12.228   8.035   9.968
 5409SOL    HW118060  12.320   8.011   9.973
 5409SOL    HW218061  12.198   8.001   9.883
 5410SOL     OW18062   1.727   0.831   7.295
 5410SOL    HW118063   1.818   0.825   7.267
 5410SOL    HW218064   1.708   0.745   7.332
 5411SOL     OW18065   4.812   4.975   1.534
 5411SOL    HW118066   4.756   5.052   1.549
 5411SOL    HW218067   4.802   4.957   1.440
 5412SOL     OW18068   6.537  14.643   3.750
 5412SOL    HW118069   6.446  14.672   3.748
 5412SOL    HW218070   6.588  14.724   3.747
 5413SOL     OW18071  10.897   9.486   5.420
 5413SOL    HW118072  10.875   9.401   5.458
 5413SOL    HW218073  10.881   9.548   5.491
 5414SOL     OW18074   8.621   8.086   3.720
 5414SOL    HW118075   8.536   8.098   3.762
 5414SOL    HW218076   8.617   8.141   3.642
 5415SOL     OW18077   8.277   8.643   2.529
 5415SOL    HW118078   8.198   8.591   2.522
 5415SOL    HW218079   8.246   8.734   2.523
 5416SOL     OW18080   3.302  11.917  12.697
 5416SOL    HW118081   3.380  11.879  12.738
 5416SOL    HW218082   3.321  11.918  12.604
 5417SOL     OW18083  13.195  12.246  12.580
 5417SOL    HW118084  13.269  12.191  12.555
 5417SOL    HW218085  13.139  12.248  12.502
 5418SOL     OW18086   9.595   3.956   9.451
 5418SOL    HW118087   9.506   3.947   9.418
 5418SOL    HW218088   9.588   3.937   9.545
 5419SOL     OW18089   8.980   2.519   4.539
 5419SOL    HW118090   8.914   2.457   4.568
 5419SOL    HW218091   9.052   2.465   4.507
 5420SOL     OW18092  14.693  13.289   1.265
 5420SOL    HW118093  14.774  13.328   1.231
 5420SOL    HW218094  14.690  13.202   1.226
 5421SOL     OW18095  11.986   0.455   2.505
 5421SOL    HW118096  11.928   0.529   2.487
 5421SOL    HW218097  11.930   0.389   2.546
 5422SOL     OW18098  11.387  14.008  12.261
 5422SOL    HW118099  11.339  14.001  12.179
 5422SOL    HW218100  11.368  13.926  12.307
 5423SOL     OW18101   0.862   9.195   8.245
 5423SOL    HW118102   0.803   9.177   8.172
 5423SOL    HW218103   0.943   9.224   8.203
 5424SOL     OW18104   3.909  10.556   5.291
 5424SOL    HW118105   3.944  10.537   5.204
 5424SOL    HW218106   3.987  10.568   5.345
 5425SOL     OW18107  13.658  10.857  12.526
 5425SOL    HW118108  13.701  10.865  12.611
 5425SOL    HW218109  13.567  10.882  12.542
 5426SOL     OW18110  14.573   6.254  11.917
 5426SOL    HW118111  14.604   6.233  11.829
 5426SOL    HW218112  14.526   6.337  11.907
 5427SOL     OW18113   2.896   6.845  13.739
 5427SOL    HW118114   2.916   6.937  13.724
 5427SOL    HW218115   2.803   6.845  13.764
 5428SOL     OW18116  12.750  12.132  10.984
 5428SOL    HW118117  12.758  12.205  11.046
 5428SOL    HW218118  12.815  12.068  11.013
 5429SOL     OW18119   3.365   7.164   3.434
 5429SOL    HW118120   3.327   7.093   3.381
 5429SOL    HW218121   3.456   7.138   3.447
 5430SOL     OW18122  10.841  14.643   5.308
 5430SOL    HW118123  10.858  14.679   5.396
 5430SOL    HW218124  10.797  14.560   5.325
 5431SOL     OW18125  10.119   4.892   2.734
 5431SOL    HW118126  10.060   4.965   2.753
 5431SOL    HW218127  10.206   4.929   2.742
 5432SOL     OW18128   6.714   5.975  13.001
 5432SOL    HW118129   6.691   6.060  13.038
 5432SOL    HW218130   6.807   5.980  12.982
 5433SOL     OW18131   1.479   6.678  10.887
 5433SOL    HW118132   1.449   6.590  10.864
 5433SOL    HW218133   1.412   6.737  10.852
 5434SOL     OW18134  13.371   9.148   7.381
 5434SOL    HW118135  13.370   9.238   7.348
 5434SOL    HW218136  13.464   9.131   7.400
 5435SOL     OW18137   6.975  10.771   0.388
 5435SOL    HW118138   7.035  10.778   0.314
 5435SOL    HW218139   7.031  10.748   0.462
 5436SOL     OW18140   2.779   3.413   7.956
 5436SOL    HW118141   2.737   3.327   7.947
 5436SOL    HW218142   2.759   3.440   8.045
 5437SOL     OW18143   2.759  11.699   8.580
 5437SOL    HW118144   2.846  11.735   8.597
 5437SOL    HW218145   2.707  11.727   8.654
 5438SOL     OW18146   3.311   9.394   6.214
 5438SOL    HW118147   3.335   9.351   6.132
 5438SOL    HW218148   3.287   9.322   6.272
 5439SOL     OW18149   5.328   9.136   3.963
 5439SOL    HW118150   5.374   9.059   3.996
 5439SOL    HW218151   5.390   9.176   3.902
 5440SOL     OW18152   5.646   2.383   6.619
 5440SOL    HW118153   5.658   2.354   6.528
 5440SOL    HW218154   5.555   2.415   6.621
 5441SOL     OW18155  14.103  10.027  13.818
 5441SOL    HW118156  14.032  10.067  13.768
 5441SOL    HW218157  14.111  10.082  13.896
 5442SOL     OW18158  13.309   2.349  12.592
 5442SOL    HW118159  13.322   2.444  12.586
 5442SOL    HW218160  13.250   2.337  12.666
 5443SOL     OW18161   9.465   3.309   2.132
 5443SOL    HW118162   9.397   3.257   2.091
 5443SOL    HW218163   9.546   3.282   2.088
 5444SOL     OW18164   8.768   2.696  10.992
 5444SOL    HW118165   8.781   2.666  11.081
 5444SOL    HW218166   8.851   2.737  10.967
 5445SOL     OW18167   6.769   8.045  12.766
 5445SOL    HW118168   6.815   7.979  12.715
 5445SOL    HW218169   6.830   8.118  12.771
 5446SOL     OW18170   9.626   8.795   6.873
 5446SOL    HW118171   9.538   8.776   6.905
 5446SOL    HW218172   9.611   8.855   6.799
 5447SOL     OW18173   9.710  10.340   6.223
 5447SOL    HW118174   9.647  10.325   6.153
 5447SOL    HW218175   9.664  10.395   6.286
 5448SOL     OW18176   7.822   4.781  10.979
 5448SOL    HW118177   7.852   4.769  11.069
 5448SOL    HW218178   7.832   4.875  10.963
 5449SOL     OW18179   9.588   1.141   1.839
 5449SOL    HW118180   9.576   1.103   1.752
 5449SOL    HW218181   9.599   1.235   1.824
 5450SOL     OW18182   4.559   7.661   1.866
 5450SOL    HW118183   4.514   7.577   1.869
 5450SOL    HW218184   4.569   7.686   1.958
 5451SOL     OW18185   0.276  11.541   9.642
 5451SOL    HW118186   0.345  11.522   9.580
 5451SOL    HW218187   0.319  11.543   9.727
 5452SOL     OW18188   2.533   0.773   9.656
 5452SOL    HW118189   2.586   0.701   9.623
 5452SOL    HW218190   2.519   0.830   9.580
 5453SOL     OW18191   3.512  10.852  12.185
 5453SOL    HW118192   3.552  10.862  12.099
 5453SOL    HW218193   3.430  10.806  12.168
 5454SOL     OW18194  13.261  14.296   1.159
 5454SOL    HW118195  13.286  14.206   1.137
 5454SOL    HW218196  13.197  14.320   1.091
 5455SOL     OW18197   0.415   3.420   7.998
 5455SOL    HW118198   0.321   3.425   8.011
 5455SOL    HW218199   0.452   3.432   8.085
 5456SOL     OW18200  14.411  14.062  11.424
 5456SOL    HW118201  14.387  14.094  11.337
 5456SOL    HW218202  14.349  14.106  11.483
 5457SOL     OW18203  12.186   2.307   0.395
 5457SOL    HW118204  12.202   2.238   0.331
 5457SOL    HW218205  12.273   2.343   0.413
 5458SOL     OW18206   2.169   7.214  11.108
 5458SOL    HW118207   2.208   7.145  11.055
 5458SOL    HW218208   2.075   7.207  11.091
 5459SOL     OW18209   3.888   0.482   7.259
 5459SOL    HW118210   3.804   0.514   7.226
 5459SOL    HW218211   3.942   0.561   7.267
 5460SOL     OW18212   5.370  13.999   4.342
 5460SOL    HW118213   5.370  13.968   4.251
 5460SOL    HW218214   5.359  13.919   4.394
 5461SOL     OW18215   1.968  11.562   9.066
 5461SOL    HW118216   1.963  11.607   9.150
 5461SOL    HW218217   1.922  11.619   9.004
 5462SOL     OW18218   0.328  10.969   1.405
 5462SOL    HW118219   0.262  11.038   1.392
 5462SOL    HW218220   0.405  11.016   1.438
 5463SOL     OW18221  14.160   3.926   4.115
 5463SOL    HW118222  14.079   3.915   4.067
 5463SOL    HW218223  14.229   3.924   4.048
 5464SOL     OW18224   1.543   3.916  14.247
 5464SOL    HW118225   1.451   3.899  14.269
 5464SOL    HW218226   1.592   3.853  14.299
 5465SOL     OW18227   0.446  13.913   2.048
 5465SOL    HW118228   0.466  13.998   2.009
 5465SOL    HW218229   0.483  13.849   1.987
 5466SOL     OW18230  12.071  13.097  12.230
 5466SOL    HW118231  12.130  13.102  12.305
 5466SOL    HW218232  12.057  13.189  12.204
 5467SOL     OW18233   3.007   7.084   8.099
 5467SOL    HW118234   2.940   7.141   8.061
 5467SOL    HW218235   3.077   7.144   8.125
 5468SOL     OW18236   2.780  11.718  13.271
 5468SOL    HW118237   2.798  11.808  13.246
 5468SOL    HW218238   2.842  11.700  13.342
 5469SOL     OW18239   4.130   2.773  11.694
 5469SOL    HW118240   4.146   2.679  11.690
 5469SOL    HW218241   4.050   2.781  11.747
 5470SOL     OW18242  11.690  14.445  10.801
 5470SOL    HW118243  11.648  14.525  10.768
 5470SOL    HW218244  11.695  14.458  10.896
 5471SOL     OW18245  13.877   1.954   2.750
 5471SOL    HW118246  13.950   1.963   2.689
 5471SOL    HW218247  13.918   1.944   2.836
 5472SOL     OW18248   7.005   8.982   7.709
 5472SOL    HW118249   6.999   8.892   7.741
 5472SOL    HW218250   6.998   8.974   7.614
 5473SOL     OW18251  13.356   1.379  13.770
 5473SOL    HW118252  13.437   1.369  13.721
 5473SOL    HW218253  13.324   1.466  13.747
 5474SOL     OW18254   7.279   8.029  14.143
 5474SOL    HW118255   7.212   7.962  14.129
 5474SOL    HW218256   7.298   8.024  14.237
 5475SOL     OW18257   4.832  13.304   2.096
 5475SOL    HW118258   4.809  13.212   2.088
 5475SOL    HW218259   4.767  13.340   2.157
 5476SOL     OW18260  10.379   7.891  11.887
 5476SOL    HW118261  10.303   7.932  11.927
 5476SOL    HW218262  10.431   7.858  11.961
 5477SOL     OW18263   7.891   7.464  12.875
 5477SOL    HW118264   7.810   7.413  12.888
 5477SOL    HW218265   7.960   7.398  12.873
 5478SOL     OW18266   7.953   1.813   2.982
 5478SOL    HW118267   7.946   1.907   2.964
 5478SOL    HW218268   7.884   1.773   2.928
 5479SOL     OW18269   9.624   7.617  11.517
 5479SOL    HW118270   9.648   7.694  11.465
 5479SOL    HW218271   9.707   7.586  11.553
 5480SOL     OW18272   4.576  14.105   2.010
 5480SOL    HW118273   4.527  14.058   2.077
 5480SOL    HW218274   4.589  14.192   2.047
 5481SOL     OW18275  10.535   8.302   5.009
 5481SOL    HW118276  10.546   8.297   4.914
 5481SOL    HW218277  10.528   8.211   5.037
 5482SOL     OW18278   5.742   5.626   6.520
 5482SOL    HW118279   5.665   5.682   6.519
 5482SOL    HW218280   5.760   5.610   6.612
 5483SOL     OW18281   3.467   0.513   1.693
 5483SOL    HW118282   3.391   0.455   1.695
 5483SOL    HW218283   3.536   0.462   1.652
 5484SOL     OW18284  10.801   9.479  10.850
 5484SOL    HW118285  10.787   9.477  10.755
 5484SOL    HW218286  10.894   9.499  10.860
 5485SOL     OW18287   9.216   0.049   8.444
 5485SOL    HW118288   9.269  14.854   8.475
 5485SOL    HW218289   9.146   0.057   8.509
 5486SOL     OW18290  14.680   1.371   8.069
 5486SOL    HW118291  14.669   1.289   8.022
 5486SOL    HW218292  14.606   1.425   8.041
 5487SOL     OW18293  10.964  14.083  13.513
 5487SOL    HW118294  10.886  14.027  13.520
 5487SOL    HW218295  11.036  14.027  13.542
 5488SOL     OW18296   6.455   6.128   4.607
 5488SOL    HW118297   6.420   6.181   4.679
 5488SOL    HW218298   6.392   6.057   4.597
 5489SOL     OW18299  10.729   3.088   2.711
 5489SOL    HW118300  10.796   3.029   2.745
 5489SOL    HW218301  10.646   3.043   2.727
 5490SOL     OW18302   9.996  11.816   6.880
 5490SOL    HW118303  10.012  11.849   6.968
 5490SOL    HW218304  10.010  11.892   6.823
 5491SOL     OW18305   9.683  10.682   4.330
 5491SOL    HW118306   9.682  10.610   4.266
 5491SOL    HW218307   9.694  10.638   4.414
 5492SOL     OW18308   4.559   6.307   7.299
 5492SOL    HW118309   4.512   6.230   7.328
 5492SOL    HW218310   4.644   6.302   7.343
 5493SOL     OW18311  12.675  14.341   7.137
 5493SOL    HW118312  12.712  14.418   7.179
 5493SOL    HW218313  12.747  14.306   7.083
 5494SOL     OW18314   6.134   0.339   8.729
 5494SOL    HW118315   6.166   0.361   8.816
 5494SOL    HW218316   6.208   0.297   8.685
 5495SOL     OW18317   4.908  12.787   8.402
 5495SOL    HW118318   4.868  12.837   8.331
 5495SOL    HW218319   4.903  12.845   8.479
 5496SOL     OW18320   4.232  11.023   6.951
 5496SOL    HW118321   4.248  11.040   6.858
 5496SOL    HW218322   4.215  11.109   6.989
 5497SOL     OW18323   2.106  10.906   4.372
 5497SOL    HW118324   2.024  10.952   4.357
 5497SOL    HW218325   2.102  10.829   4.315
 5498SOL     OW18326   4.257   1.340  10.647
 5498SOL    HW118327   4.337   1.393  10.647
 5498SOL    HW218328   4.268   1.281  10.573
 5499SOL     OW18329   9.159   1.562   8.954
 5499SOL    HW118330   9.102   1.510   8.898
 5499SOL    HW218331   9.101   1.602   9.018
 5500SOL     OW18332  10.028   6.321   0.264
 5500SOL    HW118333  10.092   6.292   0.329
 5500SOL    HW218334   9.995   6.240   0.225
 5501SOL     OW18335   7.485  14.639  11.593
 5501SOL    HW118336   7.503  14.732  11.578
 5501SOL    HW218337   7.480  14.631  11.689
 5502SOL     OW18338   5.856   7.077   8.241
 5502SOL    HW118339   5.872   7.155   8.187
 5502SOL    HW218340   5.908   7.092   8.320
 5503SOL     OW18341   3.705   1.468   5.677
 5503SOL    HW118342   3.633   1.521   5.646
 5503SOL    HW218343   3.749   1.437   5.597
 5504SOL     OW18344   1.167   4.153  13.099
 5504SOL    HW118345   1.099   4.221  13.109
 5504SOL    HW218346   1.141   4.084  13.160
 5505SOL     OW18347   3.093   6.228   9.512
 5505SOL    HW118348   3.141   6.308   9.531
 5505SOL    HW218349   3.003   6.257   9.496
 5506SOL     OW18350  12.576  10.919   2.690
 5506SOL    HW118351  12.590  10.986   2.622
 5506SOL    HW218352  12.482  10.903   2.688
 5507SOL     OW18353  10.651   6.958   1.361
 5507SOL    HW118354  10.736   6.919   1.383
 5507SOL    HW218355  10.673   7.043   1.322
 5508SOL     OW18356   5.937  13.444  14.843
 5508SOL    HW118357   5.973  13.423   0.050
 5508SOL    HW218358   5.859  13.496  14.862
 5509SOL     OW18359   9.601   1.277   5.059
 5509SOL    HW118360   9.521   1.263   5.008
 5509SOL    HW218361   9.668   1.226   5.014
 5510SOL     OW18362   0.459   2.566   7.029
 5510SOL    HW118363   0.519   2.491   7.030
 5510SOL    HW218364   0.513   2.640   7.000
 5511SOL     OW18365  11.634  11.850  12.993
 5511SOL    HW118366  11.573  11.787  12.954
 5511SOL    HW218367  11.719  11.807  12.985
 5512SOL     OW18368   8.163   8.727   1.577
 5512SOL    HW118369   8.232   8.793   1.564
 5512SOL    HW218370   8.204   8.644   1.555
 5513SOL     OW18371   1.973  13.628   9.422
 5513SOL    HW118372   1.982  13.552   9.480
 5513SOL    HW218373   2.032  13.693   9.459
 5514SOL     OW18374  13.500  14.163   5.749
 5514SOL    HW118375  13.577  14.109   5.766
 5514SOL    HW218376  13.480  14.204   5.833
 5515SOL     OW18377   7.676  13.019  10.488
 5515SOL    HW118378   7.679  13.024  10.584
 5515SOL    HW218379   7.634  13.100  10.461
 5516SOL     OW18380  11.251   2.348   8.545
 5516SOL    HW118381  11.164   2.315   8.521
 5516SOL    HW218382  11.233   2.428   8.596
 5517SOL     OW18383  13.863   5.329   5.440
 5517SOL    HW118384  13.792   5.276   5.404
 5517SOL    HW218385  13.909   5.270   5.500
 5518SOL     OW18386  12.637  10.939   5.358
 5518SOL    HW118387  12.652  10.880   5.432
 5518SOL    HW218388  12.705  10.916   5.294
 5519SOL     OW18389   6.470   1.059  14.757
 5519SOL    HW118390   6.493   1.110  14.835
 5519SOL    HW218391   6.503   0.972  14.775
 5520SOL     OW18392   0.709  13.525  11.483
 5520SOL    HW118393   0.627  13.493  11.445
 5520SOL    HW218394   0.687  13.611  11.518
 5521SOL     OW18395  14.007   8.889   7.422
 5521SOL    HW118396  14.084   8.834   7.439
 5521SOL    HW218397  13.980   8.866   7.333
 5522SOL     OW18398  13.832   6.612   4.851
 5522SOL    HW118399  13.866   6.528   4.880
 5522SOL    HW218400  13.909   6.658   4.815
 5523SOL     OW18401  13.982  12.639  10.730
 5523SOL    HW118402  13.991  12.650  10.825
 5523SOL    HW218403  13.963  12.546  10.718
 5524SOL     OW18404   3.080   1.040   4.436
 5524SOL    HW118405   3.066   0.962   4.489
 5524SOL    HW218406   3.006   1.041   4.375
 5525SOL     OW18407   1.172   0.319   9.381
 5525SOL    HW118408   1.200   0.230   9.400
 5525SOL    HW218409   1.239   0.374   9.421
 5526SOL     OW18410   5.171   6.239   5.535
 5526SOL    HW118411   5.104   6.300   5.565
 5526SOL    HW218412   5.154   6.159   5.584
 5527SOL     OW18413   6.633   7.754  11.951
 5527SOL    HW118414   6.661   7.814  12.020
 5527SOL    HW218415   6.656   7.798  11.870
 5528SOL     OW18416  12.396   5.651   0.464
 5528SOL    HW118417  12.489   5.656   0.483
 5528SOL    HW218418  12.370   5.563   0.493
 5529SOL     OW18419   2.641   3.766   6.080
 5529SOL    HW118420   2.719   3.804   6.041
 5529SOL    HW218421   2.583   3.748   6.006
 5530SOL     OW18422  14.258   4.252  11.156
 5530SOL    HW118423  14.312   4.214  11.087
 5530SOL    HW218424  14.248   4.344  11.131
 5531SOL     OW18425   8.874   6.168  12.128
 5531SOL    HW118426   8.787   6.141  12.157
 5531SOL    HW218427   8.886   6.255  12.166
 5532SOL     OW18428   5.759   8.057  10.270
 5532SOL    HW118429   5.791   8.042  10.359
 5532SOL    HW218430   5.810   7.997  10.216
 5533SOL     OW18431  13.899   6.835   5.009
 5533SOL    HW118432  13.853   6.769   4.957
 5533SOL    HW218433  13.850   6.838   5.092
 5534SOL     OW18434   7.511   7.345   4.043
 5534SOL    HW118435   7.460   7.356   4.124
 5534SOL    HW218436   7.538   7.433   4.019
 5535SOL     OW18437   3.041   7.272   8.646
 5535SOL    HW118438   3.034   7.275   8.741
 5535SOL    HW218439   3.121   7.320   8.627
 5536SOL     OW18440  10.389   7.078   9.616
 5536SOL    HW118441  10.375   7.157   9.668
 5536SOL    HW218442  10.301   7.042   9.604
 5537SOL     OW18443  10.484   0.570   7.296
 5537SOL    HW118444  10.505   0.502   7.360
 5537SOL    HW218445  10.467   0.522   7.215
 5538SOL     OW18446   2.419  12.420  13.147
 5538SOL    HW118447   2.515  12.416  13.149
 5538SOL    HW218448   2.390  12.337  13.184
 5539SOL     OW18449   0.756   7.723   6.868
 5539SOL    HW118450   0.685   7.781   6.841
 5539SOL    HW218451   0.805   7.774   6.932
 5540SOL     OW18452   0.346   7.278  10.004
 5540SOL    HW118453   0.325   7.315  10.089
 5540SOL    HW218454   0.429   7.319   9.980
 5541SOL     OW18455  14.755   1.511   1.493
 5541SOL    HW118456  14.807   1.443   1.535
 5541SOL    HW218457  14.780   1.508   1.401
 5542SOL     OW18458   3.053   0.504   9.187
 5542SOL    HW118459   3.063   0.584   9.136
 5542SOL    HW218460   3.118   0.512   9.257
 5543SOL     OW18461  12.007   5.604  12.073
 5543SOL    HW118462  12.018   5.680  12.130
 5543SOL    HW218463  11.968   5.537  12.131
 5544SOL     OW18464  10.233   4.220  11.807
 5544SOL    HW118465  10.280   4.142  11.836
 5544SOL    HW218466  10.220   4.207  11.713
 5545SOL     OW18467   4.278   6.709   9.245
 5545SOL    HW118468   4.363   6.753   9.244
 5545SOL    HW218469   4.269   6.673   9.157
 5546SOL     OW18470   8.109  10.633  12.012
 5546SOL    HW118471   8.041  10.686  12.052
 5546SOL    HW218472   8.191  10.665  12.051
 5547SOL     OW18473  11.461   4.151   6.405
 5547SOL    HW118474  11.546   4.194   6.395
 5547SOL    HW218475  11.472   4.094   6.482
 5548SOL     OW18476   3.514   8.181   7.879
 5548SOL    HW118477   3.447   8.171   7.811
 5548SOL    HW218478   3.589   8.218   7.833
 5549SOL     OW18479  10.730   0.061  11.372
 5549SOL    HW118480  10.667   0.005  11.417
 5549SOL    HW218481  10.704   0.150  11.394
 5550SOL     OW18482   6.312   5.087  14.725
 5550SOL    HW118483   6.252   5.025  14.685
 5550SOL    HW218484   6.324   5.156  14.660
 5551SOL     OW18485   5.013  14.381  13.520
 5551SOL    HW118486   4.927  14.423  13.525
 5551SOL    HW218487   5.075  14.450  13.541
 5552SOL     OW18488   6.725   5.711   9.487
 5552SOL    HW118489   6.696   5.653   9.557
 5552SOL    HW218490   6.732   5.654   9.410
 5553SOL     OW18491   1.935   8.645   6.243
 5553SOL    HW118492   1.916   8.731   6.205
 5553SOL    HW218493   1.854   8.595   6.230
 5554SOL     OW18494   0.982   8.836   5.954
 5554SOL    HW118495   1.076   8.852   5.956
 5554SOL    HW218496   0.943   8.922   5.938
 5555SOL     OW18497   3.366   2.269   6.724
 5555SOL    HW118498   3.334   2.255   6.813
 5555SOL    HW218499   3.314   2.342   6.691
 5556SOL     OW18500   2.165  12.602   5.368
 5556SOL    HW118501   2.203  12.690   5.370
 5556SOL    HW218502   2.140  12.584   5.458
 5557SOL     OW18503  12.473   6.955   1.766
 5557SOL    HW118504  12.468   7.048   1.790
 5557SOL    HW218505  12.542   6.919   1.822
 5558SOL     OW18506   3.136   2.596   1.889
 5558SOL    HW118507   3.061   2.574   1.834
 5558SOL    HW218508   3.159   2.514   1.933
 5559SOL     OW18509  13.568   3.270   2.916
 5559SOL    HW118510  13.613   3.212   2.855
 5559SOL    HW218511  13.494   3.218   2.947
 5560SOL     OW18512  12.002   1.259  11.830
 5560SOL    HW118513  12.012   1.179  11.778
 5560SOL    HW218514  12.085   1.306  11.817
 5561SOL     OW18515   1.428   5.392  12.954
 5561SOL    HW118516   1.341   5.361  12.978
 5561SOL    HW218517   1.454   5.337  12.880
 5562SOL     OW18518   0.761   6.043   2.581
 5562SOL    HW118519   0.826   6.016   2.518
 5562SOL    HW218520   0.801   6.116   2.628
 5563SOL     OW18521   0.755   5.880   0.506
 5563SOL    HW118522   0.680   5.820   0.504
 5563SOL    HW218523   0.767   5.901   0.598
 5564SOL     OW18524   8.347   1.478  13.866
 5564SOL    HW118525   8.252   1.464  13.870
 5564SOL    HW218526   8.377   1.468  13.957
 5565SOL     OW18527   1.283   1.507  10.029
 5565SOL    HW118528   1.312   1.556   9.952
 5565SOL    HW218529   1.357   1.511  10.090
 5566SOL     OW18530   1.464   2.180   1.008
 5566SOL    HW118531   1.514   2.258   1.033
 5566SOL    HW218532   1.388   2.215   0.960
 5567SOL     OW18533   8.595   2.356   4.641
 5567SOL    HW118534   8.626   2.446   4.647
 5567SOL    HW218535   8.556   2.349   4.554
 5568SOL     OW18536  12.892   5.936  13.765
 5568SOL    HW118537  12.955   5.997  13.805
 5568SOL    HW218538  12.936   5.905  13.686
 5569SOL     OW18539   0.499   8.479  12.328
 5569SOL    HW118540   0.414   8.450  12.360
 5569SOL    HW218541   0.479   8.552  12.269
 5570SOL     OW18542   9.062   1.385   9.496
 5570SOL    HW118543   9.065   1.383   9.592
 5570SOL    HW218544   9.051   1.478   9.475
 5571SOL     OW18545   5.079   7.552   3.341
 5571SOL    HW118546   5.088   7.475   3.397
 5571SOL    HW218547   5.095   7.627   3.399
 5572SOL     OW18548  11.673  11.376   8.122
 5572SOL    HW118549  11.625  11.392   8.203
 5572SOL    HW218550  11.617  11.316   8.073
 5573SOL     OW18551   0.143   4.355   7.922
 5573SOL    HW118552   0.119   4.446   7.908
 5573SOL    HW218553   0.229   4.359   7.964
 5574SOL     OW18554  11.416  13.531   8.245
 5574SOL    HW118555  11.462  13.530   8.161
 5574SOL    HW218556  11.402  13.624   8.263
 5575SOL     OW18557   7.045  14.365   3.335
 5575SOL    HW118558   7.004  14.435   3.386
 5575SOL    HW218559   6.999  14.286   3.363
 5576SOL     OW18560   1.082   6.473   2.311
 5576SOL    HW118561   1.157   6.518   2.273
 5576SOL    HW218562   1.076   6.390   2.262
 5577SOL     OW18563   0.674  14.387   8.159
 5577SOL    HW118564   0.737  14.338   8.212
 5577SOL    HW218565   0.728  14.446   8.106
 5578SOL     OW18566  12.377   3.124   1.683
 5578SOL    HW118567  12.398   3.072   1.606
 5578SOL    HW218568  12.285   3.104   1.701
 5579SOL     OW18569   6.912   8.440   3.129
 5579SOL    HW118570   6.882   8.528   3.152
 5579SOL    HW218571   6.980   8.420   3.194
 5580SOL     OW18572   5.188  10.791   6.277
 5580SOL    HW118573   5.107  10.746   6.253
 5580SOL    HW218574   5.254  10.722   6.279
 5581SOL     OW18575   8.094   5.721   9.492
 5581SOL    HW118576   8.022   5.782   9.506
 5581SOL    HW218577   8.162   5.773   9.449
 5582SOL     OW18578   8.090   3.347   6.905
 5582SOL    HW118579   8.130   3.295   6.835
 5582SOL    HW218580   7.999   3.358   6.878
 5583SOL     OW18581   0.459   0.471   9.298
 5583SOL    HW118582   0.539   0.473   9.246
 5583SOL    HW218583   0.388   0.488   9.235
 5584SOL     OW18584   3.111   5.534   6.173
 5584SOL    HW118585   3.041   5.531   6.238
 5584SOL    HW218586   3.086   5.606   6.114
 5585SOL     OW18587   1.854   3.140  11.821
 5585SOL    HW118588   1.885   3.201  11.887
 5585SOL    HW218589   1.775   3.182  11.785
 5586SOL     OW18590  14.772   9.368  12.889
 5586SOL    HW118591  14.823   9.303  12.840
 5586SOL    HW218592  14.837   9.432  12.917
 5587SOL     OW18593   1.257  11.833  12.185
 5587SOL    HW118594   1.287  11.822  12.275
 5587SOL    HW218595   1.335  11.856  12.135
 5588SOL     OW18596   2.990   8.468  12.880
 5588SOL    HW118597   2.975   8.411  12.955
 5588SOL    HW218598   2.909   8.519  12.872
 5589SOL     OW18599   7.434   2.171  11.151
 5589SOL    HW118600   7.428   2.258  11.190
 5589SOL    HW218601   7.385   2.178  11.069
 5590SOL     OW18602   5.453   9.595   8.074
 5590SOL    HW118603   5.379   9.647   8.043
 5590SOL    HW218604   5.464   9.527   8.007
 5591SOL     OW18605   9.407   8.926  14.703
 5591SOL    HW118606   9.439   8.850  14.654
 5591SOL    HW218607   9.312   8.921  14.697
 5592SOL     OW18608   4.687   1.302   3.367
 5592SOL    HW118609   4.674   1.364   3.438
 5592SOL    HW218610   4.600   1.268   3.349
 5593SOL     OW18611   2.308  14.606   8.914
 5593SOL    HW118612   2.351  14.636   8.834
 5593SOL    HW218613   2.257  14.530   8.887
 5594SOL     OW18614   4.984  14.224   6.184
 5594SOL    HW118615   4.987  14.142   6.234
 5594SOL    HW218616   4.929  14.282   6.236
 5595SOL     OW18617   3.892   2.854   0.198
 5595SOL    HW118618   3.874   2.917   0.128
 5595SOL    HW218619   3.887   2.905   0.278
 5596SOL     OW18620   1.206   5.514   6.379
 5596SOL    HW118621   1.287   5.482   6.341
 5596SOL    HW218622   1.229   5.536   6.469
 5597SOL     OW18623   5.352   6.833   4.198
 5597SOL    HW118624   5.324   6.811   4.109
 5597SOL    HW218625   5.436   6.878   4.186
 5598SOL     OW18626  12.669   2.703   8.997
 5598SOL    HW118627  12.740   2.667   8.944
 5598SOL    HW218628  12.600   2.636   8.994
 5599SOL     OW18629  11.930   4.905   5.137
 5599SOL    HW118630  11.987   4.858   5.076
 5599SOL    HW218631  11.990   4.960   5.188
 5600SOL     OW18632  14.838  13.897   7.688
 5600SOL    HW118633   0.042  13.853   7.669
 5600SOL    HW218634  14.850  13.986   7.657
 5601SOL     OW18635   3.810  13.571   8.616
 5601SOL    HW118636   3.904  13.572   8.598
 5601SOL    HW218637   3.804  13.570   8.712
 5602SOL     OW18638  13.627   0.554   4.342
 5602SOL    HW118639  13.560   0.606   4.298
 5602SOL    HW218640  13.664   0.500   4.273
 5603SOL     OW18641   2.282  14.044   7.898
 5603SOL    HW118642   2.199  14.090   7.908
 5603SOL    HW218643   2.328  14.059   7.980
 5604SOL     OW18644  11.434   1.399   4.813
 5604SOL    HW118645  11.439   1.428   4.904
 5604SOL    HW218646  11.342   1.411   4.789
 5605SOL     OW18647  10.918   6.936   8.562
 5605SOL    HW118648  10.851   6.903   8.502
 5605SOL    HW218649  10.992   6.959   8.505
 5606SOL     OW18650   2.404  12.324   6.857
 5606SOL    HW118651   2.339  12.385   6.823
 5606SOL    HW218652   2.367  12.293   6.940
 5607SOL     OW18653   4.413   7.366  11.061
 5607SOL    HW118654   4.497   7.405  11.087
 5607SOL    HW218655   4.431   7.326  10.976
 5608SOL     OW18656   6.178   5.084  10.686
 5608SOL    HW118657   6.249   5.147  10.678
 5608SOL    HW218658   6.205   5.024  10.755
 5609SOL     OW18659   7.584  10.689   4.160
 5609SOL    HW118660   7.651  10.756   4.169
 5609SOL    HW218661   7.505  10.728   4.197
 5610SOL     OW18662   4.894   1.629  12.522
 5610SOL    HW118663   4.977   1.637  12.569
 5610SOL    HW218664   4.874   1.535  12.525
 5611SOL     OW18665   0.531   1.285  13.699
 5611SOL    HW118666   0.527   1.375  13.730
 5611SOL    HW218667   0.462   1.279  13.633
 5612SOL     OW18668   8.278   7.673  13.114
 5612SOL    HW118669   8.232   7.737  13.059
 5612SOL    HW218670   8.349   7.642  13.059
 5613SOL     OW18671  10.418   1.787   7.379
 5613SOL    HW118672  10.446   1.726   7.446
 5613SOL    HW218673  10.359   1.736   7.323
 5614SOL     OW18674   3.451   5.214   1.555
 5614SOL    HW118675   3.488   5.162   1.484
 5614SOL    HW218676   3.394   5.277   1.511
 5615SOL     OW18677   3.708  14.701   6.375
 5615SOL    HW118678   3.713  14.608   6.356
 5615SOL    HW218679   3.774  14.741   6.319
 5616SOL     OW18680  14.602  12.678   7.134
 5616SOL    HW118681  14.541  12.744   7.165
 5616SOL    HW218682  14.652  12.722   7.065
 5617SOL     OW18683  10.418  10.953   5.486
 5617SOL    HW118684  10.507  10.969   5.453
 5617SOL    HW218685  10.431  10.896   5.563
 5618SOL     OW18686   5.344   4.604  11.267
 5618SOL    HW118687   5.322   4.621  11.359
 5618SOL    HW218688   5.346   4.509  11.259
 5619SOL     OW18689  11.065   3.297  12.585
 5619SOL    HW118690  11.031   3.211  12.562
 5619SOL    HW218691  11.024   3.318  12.669
 5620SOL     OW18692  10.214   5.726   1.289
 5620SOL    HW118693  10.167   5.766   1.363
 5620SOL    HW218694  10.205   5.790   1.218
 5621SOL     OW18695  10.954   3.900  11.507
 5621SOL    HW118696  10.989   3.986  11.530
 5621SOL    HW218697  10.948   3.901  11.412
 5622SOL     OW18698   0.914   8.940   4.871
 5622SOL    HW118699   0.966   8.867   4.836
 5622SOL    HW218700   0.937   8.943   4.964
 5623SOL     OW18701  11.622   1.507   4.124
 5623SOL    HW118702  11.589   1.565   4.192
 5623SOL    HW218703  11.709   1.541   4.103
 5624SOL     OW18704  12.407  11.841   8.186
 5624SOL    HW118705  12.410  11.745   8.191
 5624SOL    HW218706  12.349  11.866   8.258
 5625SOL     OW18707  12.217   2.127   1.865
 5625SOL    HW118708  12.232   2.074   1.943
 5625SOL    HW218709  12.155   2.194   1.893
 5626SOL     OW18710  10.306   2.508   0.383
 5626SOL    HW118711  10.218   2.473   0.372
 5626SOL    HW218712  10.310   2.533   0.475
 5627SOL     OW18713   4.695   4.660   9.610
 5627SOL    HW118714   4.601   4.649   9.596
 5627SOL    HW218715   4.702   4.717   9.686
 5628SOL     OW18716   8.882   9.383   2.496
 5628SOL    HW118717   8.888   9.472   2.529
 5628SOL    HW218718   8.951   9.335   2.543
 5629SOL     OW18719   2.922  12.033   8.355
 5629SOL    HW118720   2.878  12.078   8.429
 5629SOL    HW218721   2.856  11.972   8.322
 5630SOL     OW18722   3.253  13.759   1.266
 5630SOL    HW118723   3.214  13.840   1.301
 5630SOL    HW218724   3.228  13.759   1.174
 5631SOL     OW18725   1.606  13.785   9.057
 5631SOL    HW118726   1.650  13.768   9.140
 5631SOL    HW218727   1.608  13.701   9.012
 5632SOL     OW18728   8.299   8.404  12.357
 5632SOL    HW118729   8.324   8.313  12.370
 5632SOL    HW218730   8.349   8.453  12.422
 5633SOL     OW18731   9.700   1.027   6.787
 5633SOL    HW118732   9.725   1.069   6.705
 5633SOL    HW218733   9.783   1.009   6.831
 5634SOL     OW18734  11.635  11.102   0.563
 5634SOL    HW118735  11.720  11.114   0.521
 5634SOL    HW218736  11.590  11.185   0.551
 5635SOL     OW18737   3.019   2.524  12.251
 5635SOL    HW118738   3.053   2.599  12.203
 5635SOL    HW218739   3.091   2.497  12.308
 5636SOL     OW18740   1.972   5.699   6.472
 5636SOL    HW118741   1.967   5.761   6.545
 5636SOL    HW218742   2.057   5.657   6.481
 5637SOL     OW18743   4.162   3.494  10.548
 5637SOL    HW118744   4.191   3.581  10.518
 5637SOL    HW218745   4.244   3.446  10.562
 5638SOL     OW18746  14.008   3.706  13.546
 5638SOL    HW118747  14.058   3.628  13.568
 5638SOL    HW218748  13.996   3.751  13.630
 5639SOL     OW18749   3.514   8.095   7.113
 5639SOL    HW118750   3.506   8.109   7.019
 5639SOL    HW218751   3.526   8.000   7.122
 5640SOL     OW18752  14.655   6.352  13.234
 5640SOL    HW118753  14.694   6.334  13.149
 5640SOL    HW218754  14.710   6.422  13.271
 5641SOL     OW18755   5.281   0.518   0.918
 5641SOL    HW118756   5.258   0.483   0.832
 5641SOL    HW218757   5.200   0.510   0.969
 5642SOL     OW18758  12.235  11.752   8.746
 5642SOL    HW118759  12.189  11.691   8.805
 5642SOL    HW218760  12.176  11.826   8.738
 5643SOL     OW18761  13.078   7.166   5.180
 5643SOL    HW118762  13.086   7.259   5.158
 5643SOL    HW218763  13.031   7.164   5.264
 5644SOL     OW18764  12.807  13.321  12.560
 5644SOL    HW118765  12.850  13.322  12.645
 5644SOL    HW218766  12.747  13.396  12.562
 5645SOL     OW18767   4.245  12.319  14.748
 5645SOL    HW118768   4.159  12.295  14.782
 5645SOL    HW218769   4.266  12.402  14.790
 5646SOL     OW18770   7.008  11.389  12.367
 5646SOL    HW118771   7.018  11.372  12.460
 5646SOL    HW218772   7.095  11.418  12.338
 5647SOL     OW18773  13.085   8.264   5.564
 5647SOL    HW118774  13.099   8.265   5.658
 5647SOL    HW218775  12.998   8.300   5.551
 5648SOL     OW18776   8.595  12.891   3.703
 5648SOL    HW118777   8.545  12.852   3.631
 5648SOL    HW218778   8.623  12.816   3.755
 5649SOL     OW18779  14.747   4.699   7.988
 5649SOL    HW118780  14.783   4.652   7.913
 5649SOL    HW218781  14.775   4.648   8.064
 5650SOL     OW18782   1.325   7.372   5.265
 5650SOL    HW118783   1.360   7.322   5.339
 5650SOL    HW218784   1.237   7.397   5.292
 5651SOL     OW18785  13.811  14.138   8.037
 5651SOL    HW118786  13.853  14.212   8.081
 5651SOL    HW218787  13.810  14.162   7.945
 5652SOL     OW18788   3.466  10.309   4.261
 5652SOL    HW118789   3.520  10.293   4.184
 5652SOL    HW218790   3.521  10.281   4.334
 5653SOL     OW18791   8.848   1.552   1.734
 5653SOL    HW118792   8.835   1.617   1.803
 5653SOL    HW218793   8.939   1.563   1.707
 5654SOL     OW18794  14.276  11.165   8.190
 5654SOL    HW118795  14.201  11.182   8.248
 5654SOL    HW218796  14.344  11.224   8.221
 5655SOL     OW18797   3.064   4.530   7.809
 5655SOL    HW118798   3.125   4.590   7.767
 5655SOL    HW218799   2.997   4.513   7.743
 5656SOL     OW18800  11.336  11.289  12.358
 5656SOL    HW118801  11.421  11.317  12.325
 5656SOL    HW218802  11.344  11.297  12.454
 5657SOL     OW18803  10.825   6.043  13.233
 5657SOL    HW118804  10.758   6.111  13.238
 5657SOL    HW218805  10.777   5.964  13.209
 5658SOL     OW18806   9.634  14.150   1.637
 5658SOL    HW118807   9.550  14.191   1.660
 5658SOL    HW218808   9.678  14.137   1.721
 5659SOL     OW18809   6.097   1.450  12.310
 5659SOL    HW118810   6.145   1.373  12.279
 5659SOL    HW218811   6.155   1.524  12.291
 5660SOL     OW18812   4.934   5.308  11.988
 5660SOL    HW118813   4.973   5.325  12.074
 5660SOL    HW218814   4.922   5.395  11.950
 5661SOL     OW18815   9.876   1.515   0.703
 5661SOL    HW118816   9.853   1.589   0.646
 5661SOL    HW218817   9.914   1.450   0.644
 5662SOL     OW18818   3.649   8.299  12.118
 5662SOL    HW118819   3.707   8.246  12.062
 5662SOL    HW218820   3.681   8.389  12.106
 5663SOL     OW18821  10.247   7.191   2.491
 5663SOL    HW118822  10.184   7.263   2.488
 5663SOL    HW218823  10.245   7.153   2.403
 5664SOL     OW18824   3.864   2.284   0.037
 5664SOL    HW118825   3.844   2.376   0.019
 5664SOL    HW218826   3.960   2.280   0.036
 5665SOL     OW18827  12.138   1.559  12.820
 5665SOL    HW118828  12.217   1.520  12.856
 5665SOL    HW218829  12.130   1.521  12.732
 5666SOL     OW18830   1.421   8.858   6.615
 5666SOL    HW118831   1.369   8.871   6.694
 5666SOL    HW218832   1.389   8.925   6.554
 5667SOL     OW18833   6.576  14.660   5.163
 5667SOL    HW118834   6.645  14.594   5.167
 5667SOL    HW218835   6.595  14.711   5.084
 5668SOL     OW18836   9.017   2.886   9.523
 5668SOL    HW118837   9.089   2.919   9.469
 5668SOL    HW218838   8.954   2.957   9.525
 5669SOL     OW18839  12.768   3.941  13.210
 5669SOL    HW118840  12.702   4.007  13.231
 5669SOL    HW218841  12.836   3.953  13.277
 5670SOL     OW18842   8.578   8.282   6.493
 5670SOL    HW118843   8.604   8.242   6.411
 5670SOL    HW218844   8.498   8.331   6.472
 5671SOL     OW18845   4.583  12.985   2.877
 5671SOL    HW118846   4.567  13.043   2.802
 5671SOL    HW218847   4.670  12.948   2.860
 5672SOL     OW18848   5.682   3.041   8.119
 5672SOL    HW118849   5.597   3.005   8.144
 5672SOL    HW218850   5.708   2.989   8.043
 5673SOL     OW18851   1.260   2.091   1.688
 5673SOL    HW118852   1.225   2.056   1.770
 5673SOL    HW218853   1.274   2.014   1.633
 5674SOL     OW18854   8.531   3.089  12.454
 5674SOL    HW118855   8.556   3.001  12.427
 5674SOL    HW218856   8.611   3.128  12.489
 5675SOL     OW18857  10.335   3.427   2.412
 5675SOL    HW118858  10.246   3.456   2.430
 5675SOL    HW218859  10.323   3.346   2.362
 5676SOL     OW18860   5.838  10.541   5.859
 5676SOL    HW118861   5.885  10.615   5.897
 5676SOL    HW218862   5.778  10.513   5.928
 5677SOL     OW18863  14.755  14.696   9.726
 5677SOL    HW118864  14.674  14.733   9.761
 5677SOL    HW218865  14.796  14.767   9.677
 5678SOL     OW18866  12.310   6.616   4.020
 5678SOL    HW118867  12.332   6.698   3.976
 5678SOL    HW218868  12.216   6.606   4.007
 5679SOL     OW18869  10.020   1.954   7.147
 5679SOL    HW118870  10.078   1.950   7.071
 5679SOL    HW218871  10.079   1.948   7.222
 5680SOL     OW18872  10.757   1.518   7.930
 5680SOL    HW118873  10.809   1.494   7.854
 5680SOL    HW218874  10.815   1.573   7.983
 5681SOL     OW18875  13.933   9.831   1.277
 5681SOL    HW118876  14.004   9.857   1.217
 5681SOL    HW218877  13.965   9.855   1.364
 5682SOL     OW18878  10.625  11.758  14.696
 5682SOL    HW118879  10.639  11.835  14.751
 5682SOL    HW218880  10.658  11.685  14.748
 5683SOL     OW18881  13.199   8.107   2.119
 5683SOL    HW118882  13.159   8.069   2.197
 5683SOL    HW218883  13.173   8.048   2.048
 5684SOL     OW18884   1.269   1.329  14.304
 5684SOL    HW118885   1.202   1.343  14.372
 5684SOL    HW218886   1.284   1.416  14.267
 5685SOL     OW18887   0.961  10.941   2.304
 5685SOL    HW118888   0.979  10.896   2.387
 5685SOL    HW218889   0.867  10.930   2.291
 5686SOL     OW18890   9.525   9.595   2.542
 5686SOL    HW118891   9.556   9.646   2.467
 5686SOL    HW218892   9.599   9.593   2.602
 5687SOL     OW18893   8.390  13.107   0.423
 5687SOL    HW118894   8.334  13.098   0.500
 5687SOL    HW218895   8.397  13.202   0.409
 5688SOL     OW18896   8.332  11.207   7.005
 5688SOL    HW118897   8.256  11.149   7.002
 5688SOL    HW218898   8.333  11.239   7.095
 5689SOL     OW18899   1.564  13.966  13.487
 5689SOL    HW118900   1.604  14.037  13.437
 5689SOL    HW218901   1.525  14.010  13.563
 5690SOL     OW18902   4.880   6.351   3.169
 5690SOL    HW118903   4.854   6.286   3.104
 5690SOL    HW218904   4.873   6.305   3.253
 5691SOL     OW18905   7.726   9.614   1.543
 5691SOL    HW118906   7.693   9.693   1.586
 5691SOL    HW218907   7.729   9.548   1.613
 5692SOL     OW18908   3.486   2.313   1.925
 5692SOL    HW118909   3.544   2.344   1.856
 5692SOL    HW218910   3.540   2.253   1.977
 5693SOL     OW18911  13.380   4.189  11.635
 5693SOL    HW118912  13.330   4.161  11.711
 5693SOL    HW218913  13.314   4.208  11.568
 5694SOL     OW18914   6.866  13.280  14.412
 5694SOL    HW118915   6.821  13.364  14.416
 5694SOL    HW218916   6.946  13.298  14.363
 5695SOL     OW18917   7.134  14.771   5.300
 5695SOL    HW118918   7.076  14.698   5.321
 5695SOL    HW218919   7.080  14.831   5.249
 5696SOL     OW18920   8.420  11.902  11.105
 5696SOL    HW118921   8.438  11.971  11.041
 5696SOL    HW218922   8.506  11.875  11.136
 5697SOL     OW18923   8.378  10.953   6.486
 5697SOL    HW118924   8.412  10.994   6.565
 5697SOL    HW218925   8.453  10.908   6.447
 5698SOL     OW18926  10.025  11.719  13.698
 5698SOL    HW118927  10.086  11.652  13.730
 5698SOL    HW218928   9.944  11.703  13.747
 5699SOL     OW18929   5.982   2.354   2.279
 5699SOL    HW118930   6.024   2.335   2.363
 5699SOL    HW218931   5.898   2.309   2.284
 5700SOL     OW18932  11.280  11.182  12.105
 5700SOL    HW118933  11.299  11.237  12.181
 5700SOL    HW218934  11.281  11.093  12.140
 5701SOL     OW18935  13.493   1.209  11.889
 5701SOL    HW118936  13.477   1.282  11.949
 5701SOL    HW218937  13.584   1.185  11.904
 5702SOL     OW18938  13.921   5.522   4.862
 5702SOL    HW118939  13.887   5.499   4.949
 5702SOL    HW218940  13.921   5.618   4.861
 5703SOL     OW18941   6.624  10.408   9.574
 5703SOL    HW118942   6.645  10.501   9.564
 5703SOL    HW218943   6.537  10.407   9.615
 5704SOL     OW18944   6.542   4.635   0.408
 5704SOL    HW118945   6.629   4.596   0.402
 5704SOL    HW218946   6.556   4.717   0.456
 5705SOL     OW18947   8.314  11.221  11.658
 5705SOL    HW118948   8.319  11.317  11.657
 5705SOL    HW218949   8.221  11.201  11.653
 5706SOL     OW18950   8.757  13.883   5.113
 5706SOL    HW118951   8.710  13.804   5.139
 5706SOL    HW218952   8.830  13.889   5.176
 5707SOL     OW18953  10.272   4.116   6.220
 5707SOL    HW118954  10.347   4.109   6.160
 5707SOL    HW218955  10.223   4.192   6.189
 5708SOL     OW18956   6.827  13.057   9.831
 5708SOL    HW118957   6.920  13.078   9.843
 5708SOL    HW218958   6.782  13.139   9.853
 5709SOL     OW18959   5.526   8.933   8.084
 5709SOL    HW118960   5.547   9.017   8.125
 5709SOL    HW218961   5.598   8.917   8.024
 5710SOL     OW18962  10.756   2.866   2.095
 5710SOL    HW118963  10.755   2.776   2.129
 5710SOL    HW218964  10.774   2.920   2.172
 5711SOL     OW18965   5.959   8.404   8.066
 5711SOL    HW118966   5.919   8.327   8.024
 5711SOL    HW218967   5.933   8.397   8.158
 5712SOL     OW18968   4.290  13.455  12.551
 5712SOL    HW118969   4.278  13.390  12.620
 5712SOL    HW218970   4.208  13.504  12.550
 5713SOL     OW18971  12.847   0.623  10.040
 5713SOL    HW118972  12.882   0.556  10.098
 5713SOL    HW218973  12.894   0.703  10.064
 5714SOL     OW18974   4.725   2.196   1.603
 5714SOL    HW118975   4.679   2.180   1.685
 5714SOL    HW218976   4.783   2.270   1.622
 5715SOL     OW18977   6.493   5.968  14.557
 5715SOL    HW118978   6.433   5.996  14.626
 5715SOL    HW218979   6.437   5.930  14.490
 5716SOL     OW18980  14.476   2.795  13.749
 5716SOL    HW118981  14.570   2.807  13.740
 5716SOL    HW218982  14.442   2.801  13.660
 5717SOL     OW18983   0.891   8.259  10.444
 5717SOL    HW118984   0.968   8.246  10.500
 5717SOL    HW218985   0.926   8.291  10.361
 5718SOL     OW18986   6.007   7.569   8.424
 5718SOL    HW118987   6.086   7.519   8.403
 5718SOL    HW218988   6.000   7.566   8.519
 5719SOL     OW18989   0.601   2.169   9.703
 5719SOL    HW118990   0.527   2.115   9.732
 5719SOL    HW218991   0.561   2.240   9.654
 5720SOL     OW18992  11.494   5.002   6.442
 5720SOL    HW118993  11.586   5.028   6.444
 5720SOL    HW218994  11.490   4.931   6.378
 5721SOL     OW18995   8.404   7.717   9.592
 5721SOL    HW118996   8.447   7.802   9.584
 5721SOL    HW218997   8.390   7.688   9.501
 5722SOL     OW18998  13.498  12.583  12.992
 5722SOL    HW118999  13.477  12.545  12.907
 5722SOL    HW219000  13.488  12.677  12.980
 5723SOL     OW19001   9.634  13.122   3.563
 5723SOL    HW119002   9.664  13.044   3.610
 5723SOL    HW219003   9.713  13.174   3.550
 5724SOL     OW19004   6.021   0.604  11.662
 5724SOL    HW119005   6.020   0.664  11.588
 5724SOL    HW219006   5.968   0.647  11.728
 5725SOL     OW19007  13.510   3.661  11.914
 5725SOL    HW119008  13.593   3.663  11.961
 5725SOL    HW219009  13.534   3.644  11.823
 5726SOL     OW19010   0.382   0.587  10.554
 5726SOL    HW119011   0.383   0.494  10.531
 5726SOL    HW219012   0.291   0.614  10.542
 5727SOL     OW19013  14.180  10.700   3.312
 5727SOL    HW119014  14.128  10.780   3.323
 5727SOL    HW219015  14.126  10.644   3.255
 5728SOL     OW19016   8.358   6.367   5.079
 5728SOL    HW119017   8.360   6.456   5.113
 5728SOL    HW219018   8.403   6.373   4.994
 5729SOL     OW19019  12.933   6.162  12.083
 5729SOL    HW119020  12.866   6.216  12.041
 5729SOL    HW219021  13.004   6.222  12.104
 5730SOL     OW19022  14.857  11.798   3.091
 5730SOL    HW119023  14.813  11.873   3.131
 5730SOL    HW219024  14.831  11.801   2.999
 5731SOL     OW19025   0.024   2.229   0.983
 5731SOL    HW119026  14.851   2.290   0.930
 5731SOL    HW219027   0.079   2.285   1.037
 5732SOL     OW19028  12.681   3.064  13.645
 5732SOL    HW119029  12.724   2.989  13.687
 5732SOL    HW219030  12.715   3.140  13.691
 5733SOL     OW19031   3.520   3.191  14.619
 5733SOL    HW119032   3.466   3.219  14.545
 5733SOL    HW219033   3.506   3.097  14.626
 5734SOL     OW19034  14.553   2.904   1.044
 5734SOL    HW119035  14.616   2.933   0.978
 5734SOL    HW219036  14.467   2.926   1.006
 5735SOL     OW19037  12.360   4.257  13.008
 5735SOL    HW119038  12.337   4.222  12.922
 5735SOL    HW219039  12.375   4.179  13.062
 5736SOL     OW19040   5.481  10.006  12.875
 5736SOL    HW119041   5.416   9.997  12.805
 5736SOL    HW219042   5.451  10.081  12.926
 5737SOL     OW19043  10.147  14.398   5.399
 5737SOL    HW119044  10.237  14.369   5.388
 5737SOL    HW219045  10.095  14.335   5.348
 5738SOL     OW19046   1.030   4.896   8.896
 5738SOL    HW119047   0.976   4.846   8.834
 5738SOL    HW219048   1.036   4.840   8.973
 5739SOL     OW19049   6.875   4.235  14.622
 5739SOL    HW119050   6.835   4.151  14.598
 5739SOL    HW219051   6.814   4.274  14.683
 5740SOL     OW19052  13.393   5.868   5.521
 5740SOL    HW119053  13.432   5.954   5.505
 5740SOL    HW219054  13.310   5.871   5.474
 5741SOL     OW19055   4.580   5.289   4.805
 5741SOL    HW119056   4.609   5.265   4.893
 5741SOL    HW219057   4.567   5.205   4.761
 5742SOL     OW19058   8.124   9.904  10.051
 5742SOL    HW119059   8.207   9.945  10.076
 5742SOL    HW219060   8.065   9.976  10.031
 5743SOL     OW19061   0.572   4.137  14.633
 5743SOL    HW119062   0.616   4.190  14.699
 5743SOL    HW219063   0.571   4.192  14.555
 5744SOL     OW19064   3.892   9.867   1.463
 5744SOL    HW119065   3.809   9.910   1.486
 5744SOL    HW219066   3.927   9.837   1.547
 5745SOL     OW19067   3.304  12.702  14.236
 5745SOL    HW119068   3.309  12.754  14.316
 5745SOL    HW219069   3.360  12.626  14.254
 5746SOL     OW19070   7.773  12.929  10.993
 5746SOL    HW119071   7.793  12.837  10.974
 5746SOL    HW219072   7.765  12.970  10.907
 5747SOL     OW19073   8.229   4.130  14.091
 5747SOL    HW119074   8.225   4.041  14.056
 5747SOL    HW219075   8.248   4.185  14.015
 5748SOL     OW19076   7.803  10.437   2.769
 5748SOL    HW119077   7.737  10.414   2.704
 5748SOL    HW219078   7.756  10.488   2.835
 5749SOL     OW19079  12.029   7.812   7.262
 5749SOL    HW119080  11.974   7.734   7.259
 5749SOL    HW219081  12.039   7.831   7.355
 5750SOL     OW19082  11.022  12.739   0.295
 5750SOL    HW119083  10.937  12.701   0.319
 5750SOL    HW219084  11.054  12.779   0.375
 5751SOL     OW19085   2.629  14.417   0.457
 5751SOL    HW119086   2.634  14.493   0.515
 5751SOL    HW219087   2.617  14.455   0.370
 5752SOL     OW19088  10.977   5.365   8.018
 5752SOL    HW119089  11.053   5.363   8.075
 5752SOL    HW219090  10.949   5.457   8.019
 5753SOL     OW19091  10.244  10.903   5.065
 5753SOL    HW119092  10.242  10.956   4.986
 5753SOL    HW219093  10.270  10.816   5.035
 5754SOL     OW19094  11.592  12.577   1.827
 5754SOL    HW119095  11.600  12.626   1.745
 5754SOL    HW219096  11.682  12.556   1.852
 5755SOL     OW19097  11.365   3.139   1.705
 5755SOL    HW119098  11.312   3.201   1.755
 5755SOL    HW219099  11.335   3.053   1.733
 5756SOL     OW19100   6.428   1.172   2.130
 5756SOL    HW119101   6.338   1.160   2.099
 5756SOL    HW219102   6.480   1.186   2.050
 5757SOL     OW19103  11.904   5.622  13.691
 5757SOL    HW119104  11.969   5.690  13.671
 5757SOL    HW219105  11.822   5.670  13.698
 5758SOL     OW19106   7.806   7.709   4.602
 5758SOL    HW119107   7.854   7.638   4.559
 5758SOL    HW219108   7.857   7.730   4.680
 5759SOL     OW19109   3.991   2.971  11.286
 5759SOL    HW119110   3.906   2.946  11.321
 5759SOL    HW219111   4.051   2.904  11.320
 5760SOL     OW19112  12.178  11.179  10.760
 5760SOL    HW119113  12.114  11.249  10.747
 5760SOL    HW219114  12.240  11.189  10.687
 5761SOL     OW19115   7.867   9.761   0.943
 5761SOL    HW119116   7.842   9.845   0.984
 5761SOL    HW219117   7.791   9.738   0.889
 5762SOL     OW19118   9.369   5.523   1.605
 5762SOL    HW119119   9.404   5.583   1.540
 5762SOL    HW219120   9.338   5.579   1.676
 5763SOL     OW19121  14.577   8.980  13.089
 5763SOL    HW119122  14.626   8.929  13.154
 5763SOL    HW219123  14.581   9.070  13.121
 5764SOL     OW19124   5.860   5.828   0.751
 5764SOL    HW119125   5.896   5.885   0.683
 5764SOL    HW219126   5.870   5.739   0.716
 5765SOL     OW19127  10.516   3.719  11.070
 5765SOL    HW119128  10.454   3.777  11.025
 5765SOL    HW219129  10.576   3.691  11.001
 5766SOL     OW19130   9.715   2.265   9.959
 5766SOL    HW119131   9.623   2.280   9.979
 5766SOL    HW219132   9.745   2.349   9.923
 5767SOL     OW19133  12.515  11.766  10.600
 5767SOL    HW119134  12.434  11.807  10.629
 5767SOL    HW219135  12.519  11.683  10.648
 5768SOL     OW19136   9.452  13.681  11.110
 5768SOL    HW119137   9.482  13.744  11.176
 5768SOL    HW219138   9.421  13.606  11.162
 5769SOL     OW19139  10.981   4.153  10.396
 5769SOL    HW119140  10.975   4.220  10.465
 5769SOL    HW219141  11.050   4.185  10.337
 5770SOL     OW19142   1.322  10.431   6.679
 5770SOL    HW119143   1.324  10.517   6.722
 5770SOL    HW219144   1.413  10.401   6.680
 5771SOL     OW19145   3.572   5.799   4.828
 5771SOL    HW119146   3.645   5.843   4.872
 5771SOL    HW219147   3.493   5.838   4.867
 5772SOL     OW19148   6.465   8.983  11.353
 5772SOL    HW119149   6.521   9.053  11.321
 5772SOL    HW219150   6.494   8.967  11.442
 5773SOL     OW19151   6.002  10.058  11.463
 5773SOL    HW119152   5.972  10.087  11.377
 5773SOL    HW219153   6.074  10.118  11.485
 5774SOL     OW19154   9.289   0.032   5.909
 5774SOL    HW119155   9.370   0.082   5.922
 5774SOL    HW219156   9.222   0.098   5.893
 5775SOL     OW19157   0.245  12.561  11.181
 5775SOL    HW119158   0.195  12.633  11.219
 5775SOL    HW219159   0.204  12.546  11.095
 5776SOL     OW19160   3.930  10.153  11.436
 5776SOL    HW119161   3.946  10.204  11.515
 5776SOL    HW219162   3.953  10.212  11.364
 5777SOL     OW19163  12.024  13.727  14.141
 5777SOL    HW119164  12.094  13.663  14.154
 5777SOL    HW219165  11.977  13.694  14.064
 5778SOL     OW19166  10.010  14.411  12.869
 5778SOL    HW119167  10.048  14.384  12.952
 5778SOL    HW219168  10.086  14.430  12.813
 5779SOL     OW19169   8.483   5.859   3.840
 5779SOL    HW119170   8.542   5.923   3.879
 5779SOL    HW219171   8.538   5.783   3.823
 5780SOL     OW19172   8.892   0.711  12.398
 5780SOL    HW119173   8.907   0.802  12.426
 5780SOL    HW219174   8.961   0.661  12.441
 5781SOL     OW19175   8.008   4.006  10.558
 5781SOL    HW119176   7.966   3.992  10.643
 5781SOL    HW219177   7.957   4.075  10.517
 5782SOL     OW19178  12.868  10.283   1.870
 5782SOL    HW119179  12.807  10.256   1.939
 5782SOL    HW219180  12.954  10.256   1.903
 5783SOL     OW19181   8.949   3.967   4.710
 5783SOL    HW119182   8.941   4.054   4.671
 5783SOL    HW219183   8.968   3.984   4.802
 5784SOL     OW19184   4.579  12.474   2.876
 5784SOL    HW119185   4.612  12.493   2.964
 5784SOL    HW219186   4.622  12.392   2.851
 5785SOL     OW19187   1.896  10.570   9.051
 5785SOL    HW119188   1.976  10.521   9.034
 5785SOL    HW219189   1.828  10.504   9.058
 5786SOL     OW19190   3.759   9.379   3.002
 5786SOL    HW119191   3.765   9.357   2.909
 5786SOL    HW219192   3.817   9.316   3.045
 5787SOL     OW19193  13.960   5.681   3.013
 5787SOL    HW119194  14.040   5.647   2.974
 5787SOL    HW219195  13.990   5.746   3.077
 5788SOL     OW19196  13.907  12.394  14.048
 5788SOL    HW119197  13.844  12.323  14.056
 5788SOL    HW219198  13.988  12.360  14.086
 5789SOL     OW19199   7.780  11.170  12.152
 5789SOL    HW119200   7.710  11.233  12.171
 5789SOL    HW219201   7.855  11.224  12.128
 5790SOL     OW19202   3.144  12.494   4.678
 5790SOL    HW119203   3.116  12.475   4.767
 5790SOL    HW219204   3.104  12.425   4.625
 5791SOL     OW19205   3.443   2.527  14.753
 5791SOL    HW119206   3.405   2.614  14.740
 5791SOL    HW219207   3.532   2.544  14.784
 5792SOL     OW19208   8.849   2.200   7.338
 5792SOL    HW119209   8.774   2.204   7.278
 5792SOL    HW219210   8.821   2.251   7.414
 5793SOL     OW19211   3.106   7.184   7.297
 5793SOL    HW119212   3.079   7.267   7.257
 5793SOL    HW219213   3.023   7.140   7.318
 5794SOL     OW19214   3.769  12.848   1.645
 5794SOL    HW119215   3.772  12.939   1.673
 5794SOL    HW219216   3.837  12.804   1.696
 5795SOL     OW19217  12.403   1.973   2.157
 5795SOL    HW119218  12.498   1.968   2.159
 5795SOL    HW219219  12.382   2.056   2.199
 5796SOL     OW19220  12.521   6.898   6.368
 5796SOL    HW119221  12.571   6.932   6.442
 5796SOL    HW219222  12.507   6.806   6.389
 5797SOL     OW19223   0.055   1.065   6.336
 5797SOL    HW119224   0.013   1.039   6.253
 5797SOL    HW219225   0.147   1.040   6.325
 5798SOL     OW19226  10.619   3.313   1.917
 5798SOL    HW119227  10.629   3.218   1.917
 5798SOL    HW219228  10.534   3.329   1.957
 5799SOL     OW19229  13.898  11.532   3.500
 5799SOL    HW119230  13.898  11.556   3.593
 5799SOL    HW219231  13.849  11.450   3.497
 5800SOL     OW19232   2.718   6.121   3.327
 5800SOL    HW119233   2.688   6.137   3.416
 5800SOL    HW219234   2.647   6.071   3.287
 5801SOL     OW19235  11.772   4.087   8.846
 5801SOL    HW119236  11.799   4.158   8.788
 5801SOL    HW219237  11.819   4.104   8.928
 5802SOL     OW19238   2.201  11.212   6.245
 5802SOL    HW119239   2.229  11.296   6.208
 5802SOL    HW219240   2.278  11.156   6.238
 5803SOL     OW19241   3.605  13.398   6.463
 5803SOL    HW119242   3.592  13.414   6.370
 5803SOL    HW219243   3.552  13.320   6.481
 5804SOL     OW19244  14.033   0.618   8.816
 5804SOL    HW119245  13.951   0.658   8.844
 5804SOL    HW219246  14.030   0.529   8.853
 5805SOL     OW19247  10.858  10.702   3.194
 5805SOL    HW119248  10.789  10.739   3.249
 5805SOL    HW219249  10.926  10.675   3.256
 5806SOL     OW19250   8.475   0.347   1.869
 5806SOL    HW119251   8.434   0.429   1.895
 5806SOL    HW219252   8.406   0.281   1.880
 5807SOL     OW19253  14.705   6.358  11.294
 5807SOL    HW119254  14.710   6.278  11.243
 5807SOL    HW219255  14.615   6.389  11.281
 5808SOL     OW19256  10.310  13.846  12.521
 5808SOL    HW119257  10.223  13.878  12.544
 5808SOL    HW219258  10.293  13.778  12.454
 5809SOL     OW19259   1.359  14.459  12.552
 5809SOL    HW119260   1.402  14.499  12.476
 5809SOL    HW219261   1.390  14.512  12.626
 5810SOL     OW19262   7.989   6.766  13.021
 5810SOL    HW119263   8.079   6.747  13.046
 5810SOL    HW219264   7.948   6.799  13.101
 5811SOL     OW19265  13.166   5.563   3.956
 5811SOL    HW119266  13.112   5.491   3.924
 5811SOL    HW219267  13.129   5.641   3.915
 5812SOL     OW19268  12.383   3.766  11.928
 5812SOL    HW119269  12.370   3.771  12.023
 5812SOL    HW219270  12.337   3.686  11.901
 5813SOL     OW19271  13.924   8.283   1.429
 5813SOL    HW119272  13.915   8.213   1.364
 5813SOL    HW219273  13.992   8.252   1.489
 5814SOL     OW19274  14.495   3.218   8.926
 5814SOL    HW119275  14.513   3.126   8.908
 5814SOL    HW219276  14.454   3.251   8.846
 5815SOL     OW19277  12.663   0.420  12.939
 5815SOL    HW119278  12.717   0.384  12.869
 5815SOL    HW219279  12.722   0.478  12.988
 5816SOL     OW19280  11.358   4.315   9.938
 5816SOL    HW119281  11.335   4.230   9.975
 5816SOL    HW219282  11.450   4.306   9.912
 5817SOL     OW19283  14.837   7.154  13.604
 5817SOL    HW119284  14.811   7.246  13.603
 5817SOL    HW219285  14.787   7.114  13.532
 5818SOL     OW19286   3.598  11.350  12.743
 5818SOL    HW119287   3.507  11.337  12.714
 5818SOL    HW219288   3.647  11.367  12.662
 5819SOL     OW19289   8.424   4.285  12.183
 5819SOL    HW119290   8.509   4.271  12.226
 5819SOL    HW219291   8.417   4.213  12.120
 5820SOL     OW19292   5.466  10.323   8.184
 5820SOL    HW119293   5.541  10.275   8.219
 5820SOL    HW219294   5.463  10.404   8.236
 5821SOL     OW19295  13.405   4.710   6.800
 5821SOL    HW119296  13.479   4.725   6.741
 5821SOL    HW219297  13.341   4.664   6.746
 5822SOL     OW19298   1.027  12.139   0.511
 5822SOL    HW119299   1.040  12.061   0.566
 5822SOL    HW219300   1.065  12.211   0.562
 5823SOL     OW19301  12.963   2.121   1.229
 5823SOL    HW119302  12.915   2.038   1.225
 5823SOL    HW219303  13.018   2.121   1.151
 5824SOL     OW19304  13.760   4.631  14.481
 5824SOL    HW119305  13.747   4.658  14.572
 5824SOL    HW219306  13.711   4.694  14.429
 5825SOL     OW19307  13.321  11.025   1.584
 5825SOL    HW119308  13.372  11.003   1.662
 5825SOL    HW219309  13.237  11.055   1.618
 5826SOL     OW19310   4.213   5.382   3.735
 5826SOL    HW119311   4.146   5.348   3.795
 5826SOL    HW219312   4.176   5.368   3.648
 5827SOL     OW19313   6.206   6.625  10.887
 5827SOL    HW119314   6.141   6.563  10.854
 5827SOL    HW219315   6.290   6.581  10.871
 5828SOL     OW19316  10.626   0.720   1.454
 5828SOL    HW119317  10.552   0.726   1.393
 5828SOL    HW219318  10.598   0.772   1.530
 5829SOL     OW19319  14.331  12.128   9.725
 5829SOL    HW119320  14.251  12.090   9.760
 5829SOL    HW219321  14.383  12.150   9.803
 5830SOL     OW19322   4.352   4.447  13.028
 5830SOL    HW119323   4.364   4.368  13.080
 5830SOL    HW219324   4.311   4.417  12.947
 5831SOL     OW19325   7.597  10.361  13.844
 5831SOL    HW119326   7.528  10.309  13.804
 5831SOL    HW219327   7.555  10.445  13.864
 5832SOL     OW19328   9.418   1.412  14.800
 5832SOL    HW119329   9.497   1.380  14.758
 5832SOL    HW219330   9.369   1.333  14.823
 5833SOL     OW19331   8.753   4.897   6.147
 5833SOL    HW119332   8.726   4.986   6.173
 5833SOL    HW219333   8.742   4.845   6.227
 5834SOL     OW19334   1.250   5.236  10.019
 5834SOL    HW119335   1.286   5.150  10.040
 5834SOL    HW219336   1.217   5.270  10.102
 5835SOL     OW19337   2.704   9.677   2.060
 5835SOL    HW119338   2.683   9.608   1.996
 5835SOL    HW219339   2.693   9.759   2.011
 5836SOL     OW19340   0.815  10.334   1.360
 5836SOL    HW119341   0.859  10.261   1.316
 5836SOL    HW219342   0.744  10.293   1.409
 5837SOL     OW19343  10.381  10.762   6.214
 5837SOL    HW119344  10.354  10.737   6.125
 5837SOL    HW219345  10.362  10.686   6.268
 5838SOL     OW19346   4.215   0.927   6.212
 5838SOL    HW119347   4.123   0.946   6.230
 5838SOL    HW219348   4.262   0.967   6.284
 5839SOL     OW19349   1.201   9.002   9.248
 5839SOL    HW119350   1.277   9.042   9.290
 5839SOL    HW219351   1.166   8.942   9.314
 5840SOL     OW19352   8.726   1.162  13.540
 5840SOL    HW119353   8.640   1.159  13.582
 5840SOL    HW219354   8.781   1.210  13.602
 5841SOL     OW19355   6.399   0.066  14.727
 5841SOL    HW119356   6.440  14.874  14.679
 5841SOL    HW219357   6.316   0.081  14.682
 5842SOL     OW19358   5.999   4.652   5.641
 5842SOL    HW119359   6.089   4.635   5.669
 5842SOL    HW219360   6.006   4.668   5.546
 5843SOL     OW19361   2.745  11.573  12.261
 5843SOL    HW119362   2.825  11.536  12.226
 5843SOL    HW219363   2.771  11.658  12.298
 5844SOL     OW19364   2.831  10.651  12.186
 5844SOL    HW119365   2.864  10.648  12.096
 5844SOL    HW219366   2.741  10.619  12.179
 5845SOL     OW19367   9.304   0.253   9.653
 5845SOL    HW119368   9.365   0.250   9.726
 5845SOL    HW219369   9.351   0.211   9.581
 5846SOL     OW19370   6.483   4.245   1.541
 5846SOL    HW119371   6.443   4.186   1.477
 5846SOL    HW219372   6.527   4.311   1.488
 5847SOL     OW19373  11.703  14.103  11.586
 5847SOL    HW119374  11.762  14.142  11.521
 5847SOL    HW219375  11.674  14.177  11.640
 5848SOL     OW19376  13.340  12.907   6.040
 5848SOL    HW119377  13.272  12.932   6.103
 5848SOL    HW219378  13.419  12.952   6.072
 5849SOL     OW19379   4.162   2.381   4.669
 5849SOL    HW119380   4.225   2.448   4.643
 5849SOL    HW219381   4.077   2.417   4.644
 5850SOL     OW19382   1.958   7.604   7.487
 5850SOL    HW119383   1.946   7.637   7.576
 5850SOL    HW219384   1.896   7.532   7.480
 5851SOL     OW19385  12.511   8.180   6.023
 5851SOL    HW119386  12.428   8.174   6.072
 5851SOL    HW219387  12.575   8.209   6.088
 5852SOL     OW19388  14.327   3.266   0.230
 5852SOL    HW119389  14.310   3.292   0.140
 5852SOL    HW219390  14.406   3.213   0.225
 5853SOL     OW19391   1.341   5.323   7.709
 5853SOL    HW119392   1.329   5.317   7.615
 5853SOL    HW219393   1.364   5.415   7.725
 5854SOL     OW19394  13.291   4.698   9.181
 5854SOL    HW119395  13.312   4.658   9.097
 5854SOL    HW219396  13.367   4.681   9.236
 5855SOL     OW19397   7.501  10.089  14.832
 5855SOL    HW119398   7.559  10.125  14.765
 5855SOL    HW219399   7.526   9.997  14.840
 5856SOL     OW19400   8.625   8.882  12.705
 5856SOL    HW119401   8.571   8.847  12.634
 5856SOL    HW219402   8.609   8.976  12.704
 5857SOL     OW19403   2.395   7.865  12.391
 5857SOL    HW119404   2.416   7.950  12.432
 5857SOL    HW219405   2.477   7.816  12.395
 5858SOL     OW19406   1.582   6.489  12.527
 5858SOL    HW119407   1.549   6.567  12.482
 5858SOL    HW219408   1.528   6.483  12.607
 5859SOL     OW19409   7.943  14.626   1.558
 5859SOL    HW119410   7.881  14.560   1.590
 5859SOL    HW219411   7.892  14.707   1.559
 5860SOL     OW19412   7.725  10.885   4.831
 5860SOL    HW119413   7.700  10.914   4.743
 5860SOL    HW219414   7.648  10.901   4.884
 5861SOL     OW19415   5.551   2.906   6.916
 5861SOL    HW119416   5.572   2.975   6.980
 5861SOL    HW219417   5.624   2.907   6.854
 5862SOL     OW19418   7.808  10.265   9.273
 5862SOL    HW119419   7.792  10.199   9.205
 5862SOL    HW219420   7.839  10.214   9.349
 5863SOL     OW19421  12.013   0.007   9.838
 5863SOL    HW119422  11.972   0.082   9.882
 5863SOL    HW219423  12.054  14.837   9.909
 5864SOL     OW19424  13.846  12.231  11.822
 5864SOL    HW119425  13.803  12.280  11.752
 5864SOL    HW219426  13.839  12.288  11.899
 5865SOL     OW19427   4.407  12.002  10.464
 5865SOL    HW119428   4.445  11.987  10.377
 5865SOL    HW219429   4.452  12.080  10.496
 5866SOL     OW19430   8.337   1.836   1.631
 5866SOL    HW119431   8.318   1.744   1.649
 5866SOL    HW219432   8.407   1.834   1.565
 5867SOL     OW19433  11.178   7.374   9.074
 5867SOL    HW119434  11.224   7.313   9.133
 5867SOL    HW219435  11.125   7.428   9.133
 5868SOL     OW19436  11.602   0.444   3.836
 5868SOL    HW119437  11.666   0.385   3.796
 5868SOL    HW219438  11.630   0.531   3.810
 5869SOL     OW19439   0.667  10.799   3.262
 5869SOL    HW119440   0.714  10.732   3.311
 5869SOL    HW219441   0.617  10.751   3.196
 5870SOL     OW19442   3.753  12.494  10.160
 5870SOL    HW119443   3.689  12.453  10.219
 5870SOL    HW219444   3.749  12.442  10.080
 5871SOL     OW19445  14.676   2.239  11.921
 5871SOL    HW119446  14.635   2.297  11.985
 5871SOL    HW219447  14.689   2.157  11.969
 5872SOL     OW19448   6.563   6.011   0.149
 5872SOL    HW119449   6.574   5.977   0.237
 5872SOL    HW219450   6.495   5.956   0.110
 5873SOL     OW19451   1.281   2.015   3.139
 5873SOL    HW119452   1.246   2.068   3.067
 5873SOL    HW219453   1.354   2.068   3.173
 5874SOL     OW19454   7.229   4.433   9.274
 5874SOL    HW119455   7.185   4.513   9.246
 5874SOL    HW219456   7.256   4.390   9.193
 5875SOL     OW19457  14.406  10.922  10.229
 5875SOL    HW119458  14.433  10.877  10.149
 5875SOL    HW219459  14.328  10.876  10.257
 5876SOL     OW19460   6.811   2.917  13.708
 5876SOL    HW119461   6.772   2.894  13.792
 5876SOL    HW219462   6.738   2.920  13.647
 5877SOL     OW19463  14.814   0.955   5.566
 5877SOL    HW119464  14.763   0.932   5.488
 5877SOL    HW219465  14.781   1.041   5.592
 5878SOL     OW19466   7.562   4.559   6.978
 5878SOL    HW119467   7.507   4.619   7.028
 5878SOL    HW219468   7.580   4.487   7.039
 5879SOL     OW19469   1.191   2.903   9.910
 5879SOL    HW119470   1.229   2.977   9.957
 5879SOL    HW219471   1.145   2.853   9.978
 5880SOL     OW19472   8.001  10.384   8.686
 5880SOL    HW119473   7.994  10.374   8.781
 5880SOL    HW219474   8.095  10.378   8.668
 5881SOL     OW19475  13.481   9.977  12.523
 5881SOL    HW119476  13.403  10.023  12.553
 5881SOL    HW219477  13.538  10.046  12.489
 5882SOL     OW19478   0.500  10.036   5.542
 5882SOL    HW119479   0.407  10.046   5.522
 5882SOL    HW219480   0.525   9.952   5.503
 5883SOL     OW19481   1.268   5.222   6.706
 5883SOL    HW119482   1.174   5.236   6.709
 5883SOL    HW219483   1.280   5.134   6.742
 5884SOL     OW19484   0.317   3.698  12.076
 5884SOL    HW119485   0.407   3.680  12.048
 5884SOL    HW219486   0.326   3.746  12.158
 5885SOL     OW19487   6.151   8.909   3.962
 5885SOL    HW119488   6.217   8.849   3.999
 5885SOL    HW219489   6.191   8.942   3.882
 5886SOL     OW19490   0.544  12.582   9.853
 5886SOL    HW119491   0.623  12.602   9.803
 5886SOL    HW219492   0.548  12.640   9.929
 5887SOL     OW19493   4.576  10.916   9.063
 5887SOL    HW119494   4.614  10.994   9.023
 5887SOL    HW219495   4.605  10.844   9.007
 5888SOL     OW19496   8.025  14.097   1.583
 5888SOL    HW119497   8.042  14.049   1.502
 5888SOL    HW219498   7.934  14.078   1.604
 5889SOL     OW19499   3.540  10.260  13.582
 5889SOL    HW119500   3.557  10.298  13.669
 5889SOL    HW219501   3.613  10.289  13.528
 5890SOL     OW19502   4.083   6.178   2.099
 5890SOL    HW119503   4.137   6.122   2.155
 5890SOL    HW219504   4.005   6.125   2.082
 5891SOL     OW19505   0.336  10.718  12.420
 5891SOL    HW119506   0.247  10.702  12.389
 5891SOL    HW219507   0.392  10.674  12.357
 5892SOL     OW19508  13.148  12.785   3.811
 5892SOL    HW119509  13.097  12.860   3.778
 5892SOL    HW219510  13.167  12.808   3.902
 5893SOL     OW19511   6.082   5.767   6.246
 5893SOL    HW119512   6.134   5.749   6.324
 5893SOL    HW219513   6.113   5.853   6.216
 5894SOL     OW19514   8.091   4.753   0.153
 5894SOL    HW119515   8.173   4.743   0.105
 5894SOL    HW219516   8.107   4.710   0.237
 5895SOL     OW19517  12.276   3.114   5.290
 5895SOL    HW119518  12.298   3.022   5.275
 5895SOL    HW219519  12.284   3.155   5.203
 5896SOL     OW19520   6.811  13.980  12.746
 5896SOL    HW119521   6.856  13.938  12.672
 5896SOL    HW219522   6.867  13.960  12.821
 5897SOL     OW19523   3.940  12.341  14.701
 5897SOL    HW119524   3.890  12.369  14.625
 5897SOL    HW219525   3.873  12.313  14.764
 5898SOL     OW19526   1.269   0.629   9.203
 5898SOL    HW119527   1.259   0.535   9.187
 5898SOL    HW219528   1.324   0.659   9.130
 5899SOL     OW19529  12.440   7.263   9.833
 5899SOL    HW119530  12.396   7.312   9.764
 5899SOL    HW219531  12.369   7.226   9.885
 5900SOL     OW19532   0.294   7.651  14.117
 5900SOL    HW119533   0.376   7.669  14.071
 5900SOL    HW219534   0.286   7.724  14.179
 5901SOL     OW19535  13.168   8.949   3.316
 5901SOL    HW119536  13.113   8.969   3.392
 5901SOL    HW219537  13.244   9.006   3.325
 5902SOL     OW19538   8.249  12.661   3.916
 5902SOL    HW119539   8.188  12.727   3.882
 5902SOL    HW219540   8.245  12.590   3.852
 5903SOL     OW19541   4.728   0.348   4.488
 5903SOL    HW119542   4.663   0.403   4.532
 5903SOL    HW219543   4.812   0.379   4.520
 5904SOL     OW19544  12.935   6.548   4.334
 5904SOL    HW119545  12.898   6.624   4.288
 5904SOL    HW219546  12.905   6.558   4.425
 5905SOL     OW19547   7.551   2.804  11.727
 5905SOL    HW119548   7.564   2.875  11.789
 5905SOL    HW219549   7.594   2.728  11.767
 5906SOL     OW19550  13.746   3.692   6.833
 5906SOL    HW119551  13.677   3.749   6.866
 5906SOL    HW219552  13.744   3.704   6.738
 5907SOL     OW19553   2.803  14.564   0.194
 5907SOL    HW119554   2.835  14.486   0.149
 5907SOL    HW219555   2.708  14.557   0.190
 5908SOL     OW19556   2.730  11.367   5.079
 5908SOL    HW119557   2.640  11.392   5.057
 5908SOL    HW219558   2.779  11.380   4.998
 5909SOL     OW19559   1.423  14.372   5.824
 5909SOL    HW119560   1.430  14.343   5.915
 5909SOL    HW219561   1.367  14.307   5.782
 5910SOL     OW19562  12.938   1.810   2.263
 5910SOL    HW119563  13.011   1.851   2.216
 5910SOL    HW219564  12.922   1.728   2.217
 5911SOL     OW19565   6.933   8.268  11.407
 5911SOL    HW119566   6.839   8.276  11.425
 5911SOL    HW219567   6.946   8.176  11.386
 5912SOL     OW19568  10.243   5.622  13.803
 5912SOL    HW119569  10.166   5.617  13.747
 5912SOL    HW219570  10.223   5.690  13.867
 5913SOL     OW19571   8.987  11.223  12.152
 5913SOL    HW119572   8.935  11.157  12.106
 5913SOL    HW219573   9.070  11.227  12.104
 5914SOL     OW19574   0.931   0.529  14.875
 5914SOL    HW119575   0.916   0.465  14.806
 5914SOL    HW219576   0.883   0.607  14.848
 5915SOL     OW19577  14.724  10.384   0.787
 5915SOL    HW119578  14.696  10.297   0.757
 5915SOL    HW219579  14.752  10.370   0.878
 5916SOL     OW19580   1.190   3.765   2.569
 5916SOL    HW119581   1.171   3.717   2.650
 5916SOL    HW219582   1.275   3.733   2.541
 5917SOL     OW19583  10.704  10.591   1.305
 5917SOL    HW119584  10.723  10.677   1.266
 5917SOL    HW219585  10.734  10.599   1.395
 5918SOL     OW19586   1.491  11.765  10.987
 5918SOL    HW119587   1.548  11.691  11.009
 5918SOL    HW219588   1.486  11.817  11.067
 5919SOL     OW19589  14.670   3.517  12.739
 5919SOL    HW119590  14.724   3.445  12.705
 5919SOL    HW219591  14.731   3.588  12.756
 5920SOL     OW19592   8.972   3.514  14.488
 5920SOL    HW119593   8.914   3.447  14.452
 5920SOL    HW219594   9.057   3.497  14.447
 5921SOL     OW19595  12.124  14.426   0.297
 5921SOL    HW119596  12.153  14.496   0.355
 5921SOL    HW219597  12.034  14.408   0.323
 5922SOL     OW19598  11.755  11.667   8.935
 5922SOL    HW119599  11.696  11.611   8.985
 5922SOL    HW219600  11.702  11.700   8.863
 5923SOL     OW19601   9.709   4.886   4.802
 5923SOL    HW119602   9.652   4.849   4.870
 5923SOL    HW219603   9.770   4.816   4.781
 5924SOL     OW19604   9.207   8.946   9.566
 5924SOL    HW119605   9.193   8.864   9.518
 5924SOL    HW219606   9.119   8.977   9.587
 5925SOL     OW19607  12.172   9.419  12.468
 5925SOL    HW119608  12.238   9.445  12.404
 5925SOL    HW219609  12.140   9.334  12.437
 5926SOL     OW19610   9.869  13.241   4.770
 5926SOL    HW119611   9.916  13.158   4.765
 5926SOL    HW219612   9.907  13.287   4.845
 5927SOL     OW19613  14.075   6.421  10.098
 5927SOL    HW119614  14.065   6.486  10.169
 5927SOL    HW219615  14.115   6.470  10.026
 5928SOL     OW19616   9.713   8.354   4.578
 5928SOL    HW119617   9.661   8.392   4.507
 5928SOL    HW219618   9.705   8.260   4.565
 5929SOL     OW19619   1.023  11.039   5.139
 5929SOL    HW119620   1.113  11.009   5.125
 5929SOL    HW219621   0.983  10.972   5.193
 5930SOL     OW19622   1.646   1.675   9.144
 5930SOL    HW119623   1.585   1.720   9.202
 5930SOL    HW219624   1.720   1.653   9.201
 5931SOL     OW19625  14.753   9.723   2.353
 5931SOL    HW119626  14.817   9.751   2.418
 5931SOL    HW219627  14.777   9.633   2.332
 5932SOL     OW19628   2.750   6.997  12.323
 5932SOL    HW119629   2.746   6.902  12.323
 5932SOL    HW219630   2.843   7.018  12.317
 5933SOL     OW19631  13.052   1.671   1.804
 5933SOL    HW119632  12.991   1.618   1.752
 5933SOL    HW219633  12.999   1.743   1.837
 5934SOL     OW19634   3.690  12.242   0.414
 5934SOL    HW119635   3.596  12.225   0.419
 5934SOL    HW219636   3.723  12.218   0.500
 5935SOL     OW19637   2.260   3.764   7.107
 5935SOL    HW119638   2.182   3.811   7.079
 5935SOL    HW219639   2.271   3.695   7.042
 5936SOL     OW19640  14.402   5.746   5.793
 5936SOL    HW119641  14.307   5.747   5.803
 5936SOL    HW219642  14.420   5.664   5.746
 5937SOL     OW19643   1.234  13.273   3.146
 5937SOL    HW119644   1.257  13.215   3.073
 5937SOL    HW219645   1.262  13.225   3.224
 5938SOL     OW19646   5.072   7.486   9.295
 5938SOL    HW119647   4.987   7.449   9.269
 5938SOL    HW219648   5.127   7.475   9.218
 5939SOL     OW19649   3.739  14.469  10.080
 5939SOL    HW119650   3.775  14.558  10.070
 5939SOL    HW219651   3.726  14.459  10.174
 5940SOL     OW19652   7.708   3.770  10.260
 5940SOL    HW119653   7.701   3.864  10.244
 5940SOL    HW219654   7.794   3.759  10.300
 5941SOL     OW19655   1.422   4.014   2.761
 5941SOL    HW119656   1.424   4.005   2.856
 5941SOL    HW219657   1.450   3.928   2.728
 5942SOL     OW19658   4.428   5.700  13.367
 5942SOL    HW119659   4.379   5.780  13.347
 5942SOL    HW219660   4.494   5.695  13.298
 5943SOL     OW19661  12.679   6.014   0.198
 5943SOL    HW119662  12.759   5.965   0.221
 5943SOL    HW219663  12.650   5.975   0.115
 5944SOL     OW19664   2.390  10.690  12.544
 5944SOL    HW119665   2.421  10.605  12.577
 5944SOL    HW219666   2.321  10.715  12.606
 5945SOL     OW19667  10.079   8.289  11.821
 5945SOL    HW119668  10.144   8.221  11.837
 5945SOL    HW219669  10.125   8.357  11.774
 5946SOL     OW19670  13.980   6.195   4.942
 5946SOL    HW119671  13.988   6.282   4.983
 5946SOL    HW219672  13.933   6.143   5.007
 5947SOL     OW19673  10.191   3.816  11.072
 5947SOL    HW119674  10.239   3.843  10.994
 5947SOL    HW219675  10.221   3.874  11.142
 5948SOL     OW19676   1.119   2.821   2.858
 5948SOL    HW119677   1.040   2.798   2.908
 5948SOL    HW219678   1.190   2.775   2.903
 5949SOL     OW19679  12.226   1.029   8.191
 5949SOL    HW119680  12.305   1.056   8.144
 5949SOL    HW219681  12.259   0.988   8.271
 5950SOL     OW19682   8.401   0.791   4.580
 5950SOL    HW119683   8.332   0.854   4.558
 5950SOL    HW219684   8.439   0.768   4.495
 5951SOL     OW19685  14.356  11.539   2.377
 5951SOL    HW119686  14.451  11.544   2.366
 5951SOL    HW219687  14.327  11.630   2.371
 5952SOL     OW19688  14.077   4.944  12.259
 5952SOL    HW119689  14.130   5.019  12.233
 5952SOL    HW219690  13.988   4.967  12.234
 5953SOL     OW19691   9.227   6.629  13.741
 5953SOL    HW119692   9.317   6.599  13.728
 5953SOL    HW219693   9.180   6.550  13.767
 5954SOL     OW19694  13.588   6.172  12.473
 5954SOL    HW119695  13.568   6.174  12.567
 5954SOL    HW219696  13.556   6.256  12.440
 5955SOL     OW19697   8.446  11.449   3.667
 5955SOL    HW119698   8.374  11.487   3.617
 5955SOL    HW219699   8.474  11.373   3.617
 5956SOL     OW19700   0.497  10.886   9.598
 5956SOL    HW119701   0.426  10.929   9.551
 5956SOL    HW219702   0.519  10.809   9.545
 5957SOL     OW19703  14.016   0.341  10.390
 5957SOL    HW119704  14.029   0.385  10.474
 5957SOL    HW219705  13.989   0.253  10.414
 5958SOL     OW19706   8.425   4.577   0.733
 5958SOL    HW119707   8.421   4.668   0.706
 5958SOL    HW219708   8.441   4.528   0.652
 5959SOL     OW19709   0.180   8.791   2.821
 5959SOL    HW119710   0.133   8.846   2.757
 5959SOL    HW219711   0.272   8.816   2.811
 5960SOL     OW19712   8.544   8.302  11.027
 5960SOL    HW119713   8.491   8.261  10.960
 5960SOL    HW219714   8.619   8.338  10.980
 5961SOL     OW19715   6.441   8.168   5.130
 5961SOL    HW119716   6.385   8.091   5.131
 5961SOL    HW219717   6.523   8.138   5.171
 5962SOL     OW19718  11.676  10.542   5.453
 5962SOL    HW119719  11.736  10.575   5.519
 5962SOL    HW219720  11.690  10.598   5.377
 5963SOL     OW19721   7.024   1.010  12.484
 5963SOL    HW119722   6.996   1.026  12.574
 5963SOL    HW219723   6.970   1.069  12.431
 5964SOL     OW19724  10.731   2.351   9.926
 5964SOL    HW119725  10.637   2.339   9.939
 5964SOL    HW219726  10.770   2.266   9.947
 5965SOL     OW19727   1.875  10.652   6.383
 5965SOL    HW119728   1.855  10.610   6.300
 5965SOL    HW219729   1.951  10.605   6.417
 5966SOL     OW19730   5.950   4.629   6.552
 5966SOL    HW119731   5.992   4.543   6.543
 5966SOL    HW219732   6.014   4.682   6.598
 5967SOL     OW19733   7.458   8.730   4.043
 5967SOL    HW119734   7.448   8.643   4.082
 5967SOL    HW219735   7.499   8.713   3.957
 5968SOL     OW19736   1.354   4.228   7.314
 5968SOL    HW119737   1.360   4.139   7.346
 5968SOL    HW219738   1.389   4.283   7.384
 5969SOL     OW19739   2.055   6.711  11.953
 5969SOL    HW119740   2.084   6.744  11.867
 5969SOL    HW219741   2.105   6.762  12.016
 5970SOL     OW19742  12.045  12.539   8.300
 5970SOL    HW119743  11.950  12.553   8.298
 5970SOL    HW219744  12.058  12.476   8.371
 5971SOL     OW19745   7.146  11.337   8.074
 5971SOL    HW119746   7.061  11.337   8.118
 5971SOL    HW219747   7.203  11.288   8.133
 5972SOL     OW19748   4.910  12.323  10.034
 5972SOL    HW119749   4.896  12.408   9.993
 5972SOL    HW219750   4.966  12.275   9.972
 5973SOL     OW19751   3.008  11.877   8.098
 5973SOL    HW119752   2.995  11.934   8.174
 5973SOL    HW219753   3.103  11.869   8.090
 5974SOL     OW19754  14.130   9.300   8.382
 5974SOL    HW119755  14.121   9.347   8.465
 5974SOL    HW219756  14.170   9.364   8.323
 5975SOL     OW19757   6.970   0.385  13.683
 5975SOL    HW119758   6.878   0.402  13.706
 5975SOL    HW219759   6.989   0.300  13.722
 5976SOL     OW19760   2.982   1.117   1.603
 5976SOL    HW119761   2.975   1.204   1.642
 5976SOL    HW219762   3.056   1.077   1.649
 5977SOL     OW19763  14.590   8.412   0.752
 5977SOL    HW119764  14.514   8.382   0.802
 5977SOL    HW219765  14.602   8.503   0.779
 5978SOL     OW19766  10.220   4.044   4.330
 5978SOL    HW119767  10.217   4.132   4.368
 5978SOL    HW219768  10.129   4.015   4.332
 5979SOL     OW19769   2.457   3.260   3.833
 5979SOL    HW119770   2.475   3.172   3.867
 5979SOL    HW219771   2.380   3.289   3.882
 5980SOL     OW19772   5.408   9.732   9.655
 5980SOL    HW119773   5.421   9.812   9.706
 5980SOL    HW219774   5.313   9.723   9.650
 5981SOL     OW19775   4.381   6.261   0.784
 5981SOL    HW119776   4.338   6.199   0.725
 5981SOL    HW219777   4.454   6.211   0.821
 5982SOL     OW19778   7.519  11.225   9.538
 5982SOL    HW119779   7.612  11.204   9.545
 5982SOL    HW219780   7.515  11.321   9.542
 5983SOL     OW19781   9.161   8.807   9.894
 5983SOL    HW119782   9.084   8.850   9.856
 5983SOL    HW219783   9.215   8.880   9.926
 5984SOL     OW19784   8.171  13.247   6.252
 5984SOL    HW119785   8.081  13.219   6.237
 5984SOL    HW219786   8.194  13.299   6.174
 5985SOL     OW19787   1.944   4.806  12.258
 5985SOL    HW119788   1.999   4.731  12.240
 5985SOL    HW219789   1.858   4.769  12.277
 5986SOL     OW19790  13.905   9.544   4.024
 5986SOL    HW119791  13.854   9.463   4.020
 5986SOL    HW219792  13.996   9.517   4.014
 5987SOL     OW19793   8.533   9.010  11.385
 5987SOL    HW119794   8.469   9.067  11.427
 5987SOL    HW219795   8.588   8.978  11.457
 5988SOL     OW19796   6.570   9.191   8.376
 5988SOL    HW119797   6.576   9.114   8.319
 5988SOL    HW219798   6.575   9.156   8.465
 5989SOL     OW19799  14.638  12.908   3.519
 5989SOL    HW119800  14.705  12.926   3.452
 5989SOL    HW219801  14.561  12.882   3.468
 5990SOL     OW19802   1.475   5.540  12.507
 5990SOL    HW119803   1.413   5.491  12.453
 5990SOL    HW219804   1.495   5.482  12.580
 5991SOL     OW19805   9.885  10.864   8.515
 5991SOL    HW119806   9.824  10.920   8.564
 5991SOL    HW219807   9.828  10.814   8.456
 5992SOL     OW19808   5.445   9.303   1.380
 5992SOL    HW119809   5.384   9.373   1.358
 5992SOL    HW219810   5.411   9.226   1.335
 5993SOL     OW19811   9.517  11.639  13.824
 5993SOL    HW119812   9.494  11.546  13.833
 5993SOL    HW219813   9.582  11.640  13.754
 5994SOL     OW19814   8.698   3.940   3.820
 5994SOL    HW119815   8.698   3.991   3.901
 5994SOL    HW219816   8.645   3.863   3.840
 5995SOL     OW19817  10.087   2.700   2.807
 5995SOL    HW119818  10.162   2.643   2.828
 5995SOL    HW219819  10.056   2.731   2.892
 5996SOL     OW19820   2.939   0.071  12.717
 5996SOL    HW119821   3.009   0.129  12.746
 5996SOL    HW219822   2.920   0.098  12.627
 5997SOL     OW19823   7.523  13.321  14.568
 5997SOL    HW119824   7.612  13.316  14.603
 5997SOL    HW219825   7.466  13.314  14.645
 5998SOL     OW19826   8.017   3.641   4.453
 5998SOL    HW119827   7.933   3.600   4.430
 5998SOL    HW219828   7.993   3.715   4.509
 5999SOL     OW19829   5.248  11.561  14.022
 5999SOL    HW119830   5.180  11.585  14.085
 5999SOL    HW219831   5.215  11.480  13.981
 6000SOL     OW19832   0.124   2.875   6.477
 6000SOL    HW119833   0.101   2.804   6.417
 6000SOL    HW219834   0.200   2.842   6.525
 6001SOL     OW19835   7.282   1.897  11.065
 6001SOL    HW119836   7.357   1.938  11.022
 6001SOL    HW219837   7.208   1.954  11.043
 6002SOL     OW19838   1.230  11.816   9.295
 6002SOL    HW119839   1.321  11.818   9.324
 6002SOL    HW219840   1.222  11.732   9.248
 6003SOL     OW19841   3.563  13.751  12.470
 6003SOL    HW119842   3.649  13.787  12.448
 6003SOL    HW219843   3.503  13.824  12.458
 6004SOL     OW19844   1.571   1.872   8.160
 6004SOL    HW119845   1.666   1.873   8.167
 6004SOL    HW219846   1.547   1.964   8.144
 6005SOL     OW19847   1.803   2.496   7.250
 6005SOL    HW119848   1.879   2.453   7.210
 6005SOL    HW219849   1.727   2.455   7.208
 6006SOL     OW19850   3.292   3.979   0.700
 6006SOL    HW119851   3.269   3.941   0.785
 6006SOL    HW219852   3.322   4.068   0.721
 6007SOL     OW19853   3.110   4.422  13.447
 6007SOL    HW119854   3.103   4.327  13.462
 6007SOL    HW219855   3.160   4.454  13.523
 6008SOL     OW19856  13.259   1.245  11.391
 6008SOL    HW119857  13.196   1.175  11.405
 6008SOL    HW219858  13.298   1.261  11.477
 6009SOL     OW19859  14.052   7.675   8.404
 6009SOL    HW119860  14.087   7.605   8.349
 6009SOL    HW219861  14.009   7.734   8.343
 6010SOL     OW19862   0.398   7.482  13.125
 6010SOL    HW119863   0.397   7.494  13.220
 6010SOL    HW219864   0.306   7.478  13.100
 6011SOL     OW19865  10.050  10.559   6.029
 6011SOL    HW119866  10.012  10.642   6.058
 6011SOL    HW219867  10.083  10.577   5.941
 6012SOL     OW19868  13.962   3.796   3.929
 6012SOL    HW119869  13.930   3.841   3.850
 6012SOL    HW219870  13.904   3.826   3.999
 6013SOL     OW19871  14.807   8.567   3.371
 6013SOL    HW119872   0.001   8.616   3.409
 6013SOL    HW219873  14.738   8.633   3.359
 6014SOL     OW19874   9.672  11.062   0.511
 6014SOL    HW119875   9.757  11.101   0.490
 6014SOL    HW219876   9.622  11.068   0.430
 6015SOL     OW19877   2.578   8.791   3.687
 6015SOL    HW119878   2.518   8.850   3.642
 6015SOL    HW219879   2.650   8.846   3.715
 6016SOL     OW19880  10.346   4.518  14.182
 6016SOL    HW119881  10.356   4.445  14.243
 6016SOL    HW219882  10.350   4.478  14.095
 6017SOL     OW19883   6.116   9.414   8.787
 6017SOL    HW119884   6.186   9.393   8.725
 6017SOL    HW219885   6.037   9.377   8.749
 6018SOL     OW19886  10.377   8.202   4.179
 6018SOL    HW119887  10.291   8.203   4.220
 6018SOL    HW219888  10.359   8.198   4.085
 6019SOL     OW19889   2.126  14.479   9.125
 6019SOL    HW119890   2.074  14.556   9.101
 6019SOL    HW219891   2.076  14.405   9.091
 6020SOL     OW19892   6.495  14.729  13.943
 6020SOL    HW119893   6.471  14.784  13.868
 6020SOL    HW219894   6.579  14.689  13.917
 6021SOL     OW19895   8.113  12.990   7.629
 6021SOL    HW119896   8.196  13.004   7.674
 6021SOL    HW219897   8.100  12.895   7.630
 6022SOL     OW19898   9.528   6.234   7.118
 6022SOL    HW119899   9.481   6.301   7.067
 6022SOL    HW219900   9.615   6.230   7.079
 6023SOL     OW19901   0.904  14.279   8.266
 6023SOL    HW119902   0.943  14.229   8.338
 6023SOL    HW219903   0.976  14.292   8.204
 6024SOL     OW19904  10.497   8.613   1.673
 6024SOL    HW119905  10.519   8.632   1.764
 6024SOL    HW219906  10.559   8.545   1.646
 6025SOL     OW19907   3.261   2.410  12.745
 6025SOL    HW119908   3.354   2.409  12.765
 6025SOL    HW219909   3.257   2.413  12.649
 6026SOL     OW19910   6.486   7.408  13.028
 6026SOL    HW119911   6.560   7.418  13.088
 6026SOL    HW219912   6.508   7.464  12.954
 6027SOL     OW19913   3.405   8.289   6.235
 6027SOL    HW119914   3.440   8.242   6.159
 6027SOL    HW219915   3.483   8.316   6.284
 6028SOL     OW19916   7.768   7.240   6.939
 6028SOL    HW119917   7.758   7.253   7.033
 6028SOL    HW219918   7.730   7.318   6.900
 6029SOL     OW19919  13.130   2.984   7.306
 6029SOL    HW119920  13.101   2.988   7.215
 6029SOL    HW219921  13.152   3.075   7.328
 6030SOL     OW19922   5.037   3.405  11.691
 6030SOL    HW119923   5.052   3.489  11.648
 6030SOL    HW219924   4.994   3.351  11.625
 6031SOL     OW19925   1.790   8.760  13.892
 6031SOL    HW119926   1.768   8.667  13.895
 6031SOL    HW219927   1.734   8.800  13.958
 6032SOL     OW19928   6.208   1.261  10.341
 6032SOL    HW119929   6.217   1.269  10.246
 6032SOL    HW219930   6.119   1.293  10.359
 6033SOL     OW19931   9.053   2.032  11.541
 6033SOL    HW119932   9.091   1.995  11.621
 6033SOL    HW219933   9.052   2.126  11.556
 6034SOL     OW19934  11.696  12.700   4.375
 6034SOL    HW119935  11.766  12.748   4.331
 6034SOL    HW219936  11.685  12.620   4.324
 6035SOL     OW19937   4.339   1.855  12.643
 6035SOL    HW119938   4.327   1.928  12.583
 6035SOL    HW219939   4.353   1.779  12.587
 6036SOL     OW19940   7.029   2.514  10.151
 6036SOL    HW119941   6.995   2.579  10.089
 6036SOL    HW219942   7.042   2.563  10.232
 6037SOL     OW19943  11.004   3.120   4.696
 6037SOL    HW119944  11.084   3.122   4.748
 6037SOL    HW219945  11.000   3.032   4.661
 6038SOL     OW19946  13.043   4.781   8.889
 6038SOL    HW119947  13.101   4.762   8.816
 6038SOL    HW219948  13.053   4.875   8.904
 6039SOL     OW19949  10.388   7.931   1.038
 6039SOL    HW119950  10.456   7.874   1.074
 6039SOL    HW219951  10.397   8.012   1.087
 6040SOL     OW19952  13.314   8.697  11.165
 6040SOL    HW119953  13.223   8.687  11.139
 6040SOL    HW219954  13.360   8.624  11.123
 6041SOL     OW19955   9.478   1.110   6.142
 6041SOL    HW119956   9.448   1.042   6.203
 6041SOL    HW219957   9.548   1.068   6.092
 6042SOL     OW19958   6.334   4.457   8.143
 6042SOL    HW119959   6.346   4.488   8.233
 6042SOL    HW219960   6.244   4.423   8.142
 6043SOL     OW19961   0.210   1.262   5.434
 6043SOL    HW119962   0.294   1.304   5.413
 6043SOL    HW219963   0.230   1.169   5.438
 6044SOL     OW19964   7.931   7.304  11.446
 6044SOL    HW119965   8.012   7.307  11.497
 6044SOL    HW219966   7.866   7.348  11.502
 6045SOL     OW19967   4.501  10.764   7.422
 6045SOL    HW119968   4.553  10.767   7.502
 6045SOL    HW219969   4.495  10.856   7.394
 6046SOL     OW19970  14.789   2.605   6.043
 6046SOL    HW119971  14.789   2.676   5.979
 6046SOL    HW219972  14.698   2.600   6.073
 6047SOL     OW19973   6.901   4.807   2.476
 6047SOL    HW119974   6.935   4.892   2.448
 6047SOL    HW219975   6.923   4.802   2.569
 6048SOL     OW19976   5.974   7.500  11.276
 6048SOL    HW119977   6.011   7.588  11.282
 6048SOL    HW219978   6.029   7.455  11.213
 6049SOL     OW19979   7.269  13.880   6.091
 6049SOL    HW119980   7.302  13.808   6.145
 6049SOL    HW219981   7.174  13.870   6.093
 6050SOL     OW19982   5.194  11.770  13.696
 6050SOL    HW119983   5.171  11.819  13.775
 6050SOL    HW219984   5.124  11.789  13.634
 6051SOL     OW19985   2.975   6.486   2.347
 6051SOL    HW119986   3.020   6.403   2.367
 6051SOL    HW219987   3.029   6.526   2.279
 6052SOL     OW19988   0.007   5.815  13.227
 6052SOL    HW119989   0.089   5.800  13.181
 6052SOL    HW219990  14.820   5.821  13.158
 6053SOL     OW19991   0.282   1.110   4.300
 6053SOL    HW119992   0.347   1.135   4.365
 6053SOL    HW219993   0.239   1.192   4.275
 6054SOL     OW19994   5.263   2.065   1.158
 6054SOL    HW119995   5.200   2.024   1.099
 6054SOL    HW219996   5.332   2.100   1.100
 6055SOL     OW19997  12.874   0.805   0.125
 6055SOL    HW119998  12.911   0.878   0.174
 6055SOL    HW219999  12.938   0.788   0.056
 6056SOL     OW20000   7.117  13.508  14.661
 6056SOL    HW120001   7.060  13.493  14.736
 6056SOL    HW220002   7.070  13.573  14.608
 6057SOL     OW20003   0.727  10.765   8.271
 6057SOL    HW120004   0.742  10.851   8.230
 6057SOL    HW220005   0.810  10.719   8.260
 6058SOL     OW20006   3.989  11.415  11.287
 6058SOL    HW120007   3.916  11.468  11.319
 6058SOL    HW220008   3.952  11.363  11.216
 6059SOL     OW20009  10.509  10.046   8.013
 6059SOL    HW120010  10.590  10.031   8.062
 6059SOL    HW220011  10.473   9.958   7.999
 6060SOL     OW20012   5.073   4.830  10.010
 6060SOL    HW120013   5.148   4.781  10.044
 6060SOL    HW220014   4.997   4.775  10.030
 6061SOL     OW20015  10.722  14.649   9.709
 6061SOL    HW120016  10.637  14.623   9.744
 6061SOL    HW220017  10.705  14.667   9.616
 6062SOL     OW20018   1.272   7.605   4.926
 6062SOL    HW120019   1.192   7.552   4.925
 6062SOL    HW220020   1.268   7.653   5.009
 6063SOL     OW20021   0.194   6.786   4.959
 6063SOL    HW120022   0.173   6.870   4.999
 6063SOL    HW220023   0.285   6.794   4.931
 6064SOL     OW20024   5.974   9.601   5.934
 6064SOL    HW120025   6.018   9.559   5.860
 6064SOL    HW220026   6.029   9.581   6.010
 6065SOL     OW20027  13.936   4.611   3.317
 6065SOL    HW120028  13.936   4.701   3.351
 6065SOL    HW220029  13.939   4.556   3.395
 6066SOL     OW20030  11.709   6.690   9.578
 6066SOL    HW120031  11.702   6.658   9.489
 6066SOL    HW220032  11.628   6.661   9.621
 6067SOL     OW20033  12.346   2.395   6.508
 6067SOL    HW120034  12.277   2.409   6.443
 6067SOL    HW220035  12.400   2.473   6.503
 6068SOL     OW20036   1.800  12.351  10.015
 6068SOL    HW120037   1.832  12.348   9.924
 6068SOL    HW220038   1.801  12.444  10.037
 6069SOL     OW20039   7.245  10.132   3.588
 6069SOL    HW120040   7.155  10.111   3.562
 6069SOL    HW220041   7.286  10.165   3.508
 6070SOL     OW20042   8.829   7.106  13.468
 6070SOL    HW120043   8.890   7.180  13.469
 6070SOL    HW220044   8.754   7.138  13.418
 6071SOL     OW20045  10.131  11.105   5.945
 6071SOL    HW120046  10.174  11.190   5.955
 6071SOL    HW220047  10.094  11.086   6.030
 6072SOL     OW20048   8.699   7.342   1.883
 6072SOL    HW120049   8.739   7.416   1.929
 6072SOL    HW220050   8.742   7.265   1.920
 6073SOL     OW20051   9.973   9.326   9.562
 6073SOL    HW120052  10.038   9.256   9.561
 6073SOL    HW220053   9.941   9.328   9.652
 6074SOL     OW20054   9.746   2.906  12.057
 6074SOL    HW120055   9.674   2.967  12.072
 6074SOL    HW220056   9.714   2.823  12.092
 6075SOL     OW20057  13.355  11.782   3.310
 6075SOL    HW120058  13.422  11.847   3.331
 6075SOL    HW220059  13.367  11.765   3.217
 6076SOL     OW20060   6.577  12.265   7.708
 6076SOL    HW120061   6.541  12.353   7.716
 6076SOL    HW220062   6.672  12.278   7.714
 6077SOL     OW20063  14.522   2.296   1.865
 6077SOL    HW120064  14.430   2.322   1.868
 6077SOL    HW220065  14.550   2.297   1.956
 6078SOL     OW20066   6.044  11.869  14.448
 6078SOL    HW120067   5.958  11.827  14.451
 6078SOL    HW220068   6.055  11.907  14.536
 6079SOL     OW20069   2.694   0.510   7.307
 6079SOL    HW120070   2.719   0.573   7.239
 6079SOL    HW220071   2.705   0.558   7.389
 6080SOL     OW20072   7.621  14.832   7.222
 6080SOL    HW120073   7.626   0.038   7.266
 6080SOL    HW220074   7.558  14.782   7.274
 6081SOL     OW20075  12.339  12.617   1.972
 6081SOL    HW120076  12.332  12.577   2.058
 6081SOL    HW220077  12.309  12.707   1.985
 6082SOL     OW20078   6.561   0.635  12.699
 6082SOL    HW120079   6.568   0.722  12.658
 6082SOL    HW220080   6.633   0.633  12.763
 6083SOL     OW20081   4.975  11.038   6.050
 6083SOL    HW120082   5.061  11.066   6.019
 6083SOL    HW220083   4.914  11.070   5.984
 6084SOL     OW20084   7.295   2.929   8.967
 6084SOL    HW120085   7.224   2.992   8.960
 6084SOL    HW220086   7.327   2.920   8.877
 6085SOL     OW20087   3.924   0.467   0.908
 6085SOL    HW120088   3.894   0.425   0.827
 6085SOL    HW220089   3.989   0.531   0.880
 6086SOL     OW20090  12.170  11.626  13.543
 6086SOL    HW120091  12.131  11.634  13.455
 6086SOL    HW220092  12.098  11.647  13.602
 6087SOL     OW20093  12.170  10.191   3.855
 6087SOL    HW120094  12.256  10.226   3.880
 6087SOL    HW220095  12.191  10.114   3.802
 6088SOL     OW20096  11.135   3.646  11.142
 6088SOL    HW120097  11.219   3.690  11.155
 6088SOL    HW220098  11.112   3.664  11.051
 6089SOL     OW20099   7.158   6.933   4.872
 6089SOL    HW120100   7.232   6.992   4.858
 6089SOL    HW220101   7.112   6.971   4.947
 6090SOL     OW20102   3.997   5.915   8.261
 6090SOL    HW120103   4.091   5.915   8.274
 6090SOL    HW220104   3.967   5.993   8.307
 6091SOL     OW20105   7.805  10.878  14.828
 6091SOL    HW120106   7.876  10.817  14.843
 6091SOL    HW220107   7.764  10.889   0.035
 6092SOL     OW20108   9.478  12.438   4.027
 6092SOL    HW120109   9.388  12.431   4.060
 6092SOL    HW220110   9.520  12.500   4.087
 6093SOL     OW20111  10.371  14.668   4.299
 6093SOL    HW120112  10.366  14.647   4.392
 6093SOL    HW220113  10.343  14.588   4.255
 6094SOL     OW20114   1.712  11.888   8.327
 6094SOL    HW120115   1.722  11.979   8.358
 6094SOL    HW220116   1.752  11.888   8.240
 6095SOL     OW20117   3.187   1.736   7.533
 6095SOL    HW120118   3.094   1.713   7.524
 6095SOL    HW220119   3.228   1.658   7.569
 6096SOL     OW20120   6.015   0.960   4.084
 6096SOL    HW120121   6.060   1.044   4.076
 6096SOL    HW220122   5.942   0.966   4.022
 6097SOL     OW20123  11.471  10.414  11.382
 6097SOL    HW120124  11.560  10.448  11.371
 6097SOL    HW220125  11.482  10.335  11.434
 6098SOL     OW20126   8.790   6.493  14.707
 6098SOL    HW120127   8.884   6.513  14.700
 6098SOL    HW220128   8.753   6.528  14.626
 6099SOL     OW20129   8.734   2.214   5.796
 6099SOL    HW120130   8.755   2.300   5.833
 6099SOL    HW220131   8.784   2.152   5.849
 6100SOL     OW20132   5.651   9.557   5.170
 6100SOL    HW120133   5.658   9.465   5.194
 6100SOL    HW220134   5.595   9.595   5.239
 6101SOL     OW20135   6.465  14.579   6.530
 6101SOL    HW120136   6.530  14.644   6.558
 6101SOL    HW220137   6.477  14.505   6.589
 6102SOL     OW20138   9.862   6.373  13.214
 6102SOL    HW120139   9.820   6.358  13.129
 6102SOL    HW220140   9.844   6.464  13.234
 6103SOL     OW20141   5.173   6.907   7.513
 6103SOL    HW120142   5.216   6.843   7.457
 6103SOL    HW220143   5.161   6.984   7.457
 6104SOL     OW20144   5.187  12.901  13.049
 6104SOL    HW120145   5.162  12.875  13.138
 6104SOL    HW220146   5.116  12.958  13.020
 6105SOL     OW20147  14.244  13.784   1.112
 6105SOL    HW120148  14.335  13.772   1.140
 6105SOL    HW220149  14.200  13.821   1.189
 6106SOL     OW20150   8.961   6.284   0.806
 6106SOL    HW120151   8.929   6.339   0.877
 6106SOL    HW220152   8.952   6.337   0.727
 6107SOL     OW20153  12.826   8.744   8.640
 6107SOL    HW120154  12.818   8.839   8.647
 6107SOL    HW220155  12.915   8.725   8.668
 6108SOL     OW20156   8.413   0.129  12.908
 6108SOL    HW120157   8.426   0.037  12.883
 6108SOL    HW220158   8.329   0.153  12.869
 6109SOL     OW20159   3.780   8.083   2.380
 6109SOL    HW120160   3.691   8.049   2.370
 6109SOL    HW220161   3.836   8.005   2.377
 6110SOL     OW20162   1.511  12.751  10.368
 6110SOL    HW120163   1.491  12.711  10.283
 6110SOL    HW220164   1.425  12.779  10.401
 6111SOL     OW20165   4.024   7.555   2.083
 6111SOL    HW120166   4.022   7.603   2.001
 6111SOL    HW220167   4.114   7.525   2.093
 6112SOL     OW20168   5.991  10.966  13.834
 6112SOL    HW120169   6.001  10.961  13.929
 6112SOL    HW220170   6.062  11.023  13.805
 6113SOL     OW20171  11.297   7.566  11.448
 6113SOL    HW120172  11.337   7.553  11.534
 6113SOL    HW220173  11.205   7.586  11.467
 6114SOL     OW20174  14.481   5.310   9.928
 6114SOL    HW120175  14.463   5.294  10.021
 6114SOL    HW220176  14.534   5.235   9.901
 6115SOL     OW20177  10.837   5.629  11.096
 6115SOL    HW120178  10.813   5.565  11.028
 6115SOL    HW220179  10.756   5.644  11.145
 6116SOL     OW20180  11.893  10.221  14.759
 6116SOL    HW120181  11.957  10.265  14.815
 6116SOL    HW220182  11.864  10.145  14.810
 6117SOL     OW20183   8.626   0.568   5.860
 6117SOL    HW120184   8.701   0.527   5.817
 6117SOL    HW220185   8.557   0.503   5.854
 6118SOL     OW20186   1.159  11.153  10.717
 6118SOL    HW120187   1.223  11.100  10.669
 6118SOL    HW220188   1.074  11.121  10.687
 6119SOL     OW20189   1.857   5.162   1.902
 6119SOL    HW120190   1.899   5.135   1.820
 6119SOL    HW220191   1.851   5.081   1.954
 6120SOL     OW20192  11.067   5.597   4.503
 6120SOL    HW120193  11.055   5.556   4.588
 6120SOL    HW220194  11.010   5.549   4.443
 6121SOL     OW20195   3.862   1.048   1.068
 6121SOL    HW120196   3.856   1.022   0.976
 6121SOL    HW220197   3.948   1.089   1.075
 6122SOL     OW20198   7.936  13.410  10.224
 6122SOL    HW120199   7.884  13.378  10.150
 6122SOL    HW220200   8.004  13.344  10.235
 6123SOL     OW20201  14.762   3.624   0.390
 6123SOL    HW120202  14.758   3.691   0.459
 6123SOL    HW220203  14.702   3.655   0.323
 6124SOL     OW20204  12.661   7.184  11.700
 6124SOL    HW120205  12.589   7.242  11.677
 6124SOL    HW220206  12.639   7.152  11.788
 6125SOL     OW20207  12.121   8.830  11.902
 6125SOL    HW120208  12.214   8.836  11.880
 6125SOL    HW220209  12.106   8.738  11.923
 6126SOL     OW20210  12.437   2.815   2.891
 6126SOL    HW120211  12.389   2.753   2.837
 6126SOL    HW220212  12.470   2.880   2.829
 6127SOL     OW20213   6.724   3.577   7.578
 6127SOL    HW120214   6.728   3.667   7.611
 6127SOL    HW220215   6.763   3.524   7.647
 6128SOL     OW20216   7.737   3.608  10.612
 6128SOL    HW120217   7.696   3.522  10.599
 6128SOL    HW220218   7.664   3.670  10.611
 6129SOL     OW20219  11.934   4.833   8.914
 6129SOL    HW120220  11.878   4.866   8.844
 6129SOL    HW220221  12.014   4.805   8.869
 6130SOL     OW20222   4.281   3.714  10.370
 6130SOL    HW120223   4.215   3.736  10.304
 6130SOL    HW220224   4.307   3.798  10.408
 6131SOL     OW20225   9.175  10.157   7.345
 6131SOL    HW120226   9.102  10.208   7.379
 6131SOL    HW220227   9.157  10.068   7.372
 6132SOL     OW20228   6.772   9.829   9.226
 6132SOL    HW120229   6.849   9.788   9.188
 6132SOL    HW220230   6.772   9.801   9.317
 6133SOL     OW20231  12.258  13.875  13.612
 6133SOL    HW120232  12.178  13.868  13.561
 6133SOL    HW220233  12.288  13.785  13.622
 6134SOL     OW20234   0.806   8.796  11.131
 6134SOL    HW120235   0.806   8.774  11.224
 6134SOL    HW220236   0.746   8.733  11.091
 6135SOL     OW20237  12.527  11.251  10.359
 6135SOL    HW120238  12.574  11.253  10.276
 6135SOL    HW220239  12.595  11.237  10.425
 6136SOL     OW20240  10.821  13.356  11.735
 6136SOL    HW120241  10.915  13.346  11.747
 6136SOL    HW220242  10.813  13.415  11.659
 6137SOL     OW20243   3.577   2.484   3.119
 6137SOL    HW120244   3.605   2.560   3.171
 6137SOL    HW220245   3.613   2.500   3.032
 6138SOL     OW20246  14.531  11.513   0.230
 6138SOL    HW120247  14.520  11.580   0.163
 6138SOL    HW220248  14.442  11.486   0.253
 6139SOL     OW20249   8.240  11.257   0.102
 6139SOL    HW120250   8.325  11.272   0.144
 6139SOL    HW220251   8.177  11.297   0.161
 6140SOL     OW20252  11.173   7.601   0.367
 6140SOL    HW120253  11.083   7.575   0.387
 6140SOL    HW220254  11.179   7.596   0.272
 6141SOL     OW20255   0.173   2.159  14.010
 6141SOL    HW120256   0.204   2.212  14.084
 6141SOL    HW220257   0.086   2.130  14.038
 6142SOL     OW20258  11.921   9.923   1.336
 6142SOL    HW120259  11.907   9.954   1.247
 6142SOL    HW220260  11.981   9.849   1.327
 6143SOL     OW20261   2.176   6.900  10.271
 6143SOL    HW120262   2.209   6.972  10.217
 6143SOL    HW220263   2.084   6.921  10.287
 6144SOL     OW20264   2.627   7.533   2.141
 6144SOL    HW120265   2.628   7.525   2.046
 6144SOL    HW220266   2.710   7.577   2.162
 6145SOL     OW20267   3.512   1.466   8.082
 6145SOL    HW120268   3.440   1.453   8.144
 6145SOL    HW220269   3.555   1.380   8.077
 6146SOL     OW20270   5.141   5.023   1.202
 6146SOL    HW120271   5.117   4.958   1.137
 6146SOL    HW220272   5.065   5.081   1.208
 6147SOL     OW20273   5.979   3.792   0.650
 6147SOL    HW120274   5.921   3.769   0.722
 6147SOL    HW220275   6.002   3.884   0.665
 6148SOL     OW20276   1.417   1.331  10.836
 6148SOL    HW120277   1.361   1.255  10.854
 6148SOL    HW220278   1.388   1.397  10.898
 6149SOL     OW20279   6.499   7.481   4.350
 6149SOL    HW120280   6.428   7.545   4.348
 6149SOL    HW220281   6.501   7.450   4.440
 6150SOL     OW20282   3.015  12.092   9.735
 6150SOL    HW120283   3.005  12.186   9.720
 6150SOL    HW220284   3.057  12.060   9.655
 6151SOL     OW20285  13.777   1.998   6.865
 6151SOL    HW120286  13.736   2.050   6.935
 6151SOL    HW220287  13.768   1.908   6.894
 6152SOL     OW20288  13.466  14.366  13.195
 6152SOL    HW120289  13.497  14.427  13.128
 6152SOL    HW220290  13.543  14.314  13.217
 6153SOL     OW20291   0.053  12.115   5.156
 6153SOL    HW120292   0.103  12.082   5.081
 6153SOL    HW220293  14.863  12.049   5.171
 6154SOL     OW20294  14.818  11.923   2.581
 6154SOL    HW120295  14.749  11.987   2.601
 6154SOL    HW220296  14.844  11.944   2.491
 6155SOL     OW20297   5.219  11.826   6.204
 6155SOL    HW120298   5.283  11.781   6.149
 6155SOL    HW220299   5.146  11.846   6.145
 6156SOL     OW20300   3.900   9.582  13.588
 6156SOL    HW120301   3.949   9.659  13.619
 6156SOL    HW220302   3.814   9.616  13.565
 6157SOL     OW20303  14.161  13.036  10.201
 6157SOL    HW120304  14.157  12.970  10.270
 6157SOL    HW220305  14.069  13.059  10.185
 6158SOL     OW20306   2.357   5.074   7.493
 6158SOL    HW120307   2.308   5.039   7.568
 6158SOL    HW220308   2.409   5.145   7.530
 6159SOL     OW20309   6.227   5.990  10.312
 6159SOL    HW120310   6.145   5.943  10.324
 6159SOL    HW220311   6.204   6.082  10.322
 6160SOL     OW20312   0.902   7.961   1.601
 6160SOL    HW120313   0.912   7.960   1.506
 6160SOL    HW220314   0.971   7.903   1.633
 6161SOL     OW20315  10.467   0.628  12.937
 6161SOL    HW120316  10.481   0.665  12.850
 6161SOL    HW220317  10.475   0.533  12.923
 6162SOL     OW20318  11.837   5.970  14.175
 6162SOL    HW120319  11.744   5.952  14.188
 6162SOL    HW220320  11.866   5.900  14.116
 6163SOL     OW20321  13.231   6.904   5.157
 6163SOL    HW120322  13.324   6.886   5.152
 6163SOL    HW220323  13.225   6.980   5.216
 6164SOL     OW20324   9.209   8.664   9.200
 6164SOL    HW120325   9.280   8.616   9.244
 6164SOL    HW220326   9.142   8.598   9.184
 6165SOL     OW20327   3.361   1.083   5.179
 6165SOL    HW120328   3.356   1.142   5.253
 6165SOL    HW220329   3.352   1.139   5.102
 6166SOL     OW20330   0.811   1.323  11.666
 6166SOL    HW120331   0.764   1.393  11.711
 6166SOL    HW220332   0.884   1.302  11.725
 6167SOL     OW20333   1.599   5.708   6.720
 6167SOL    HW120334   1.608   5.790   6.767
 6167SOL    HW220335   1.598   5.641   6.789
 6168SOL     OW20336   6.650   9.976  10.077
 6168SOL    HW120337   6.696   9.975  10.161
 6168SOL    HW220338   6.699   9.916  10.021
 6169SOL     OW20339  10.079   9.545  11.645
 6169SOL    HW120340  10.028   9.588  11.576
 6169SOL    HW220341  10.115   9.467  11.603
 6170SOL     OW20342  13.190  12.375  13.889
 6170SOL    HW120343  13.162  12.405  13.975
 6170SOL    HW220344  13.160  12.444  13.829
 6171SOL     OW20345   6.983   4.024   2.349
 6171SOL    HW120346   6.905   4.065   2.385
 6171SOL    HW220347   6.953   3.985   2.266
 6172SOL     OW20348   3.977   3.551   4.046
 6172SOL    HW120349   3.950   3.548   4.138
 6172SOL    HW220350   3.896   3.566   3.998
 6173SOL     OW20351   7.604   7.654  11.334
 6173SOL    HW120352   7.536   7.593  11.364
 6173SOL    HW220353   7.644   7.687  11.414
 6174SOL     OW20354   5.062   5.860   4.869
 6174SOL    HW120355   4.994   5.829   4.928
 6174SOL    HW220356   5.081   5.949   4.900
 6175SOL     OW20357   5.255  11.088  10.254
 6175SOL    HW120358   5.254  10.993  10.242
 6175SOL    HW220359   5.269  11.124  10.166
 6176SOL     OW20360   0.580  13.805   1.806
 6176SOL    HW120361   0.608  13.736   1.865
 6176SOL    HW220362   0.661  13.847   1.777
 6177SOL     OW20363   8.570  11.184  11.320
 6177SOL    HW120364   8.482  11.183  11.359
 6177SOL    HW220365   8.582  11.096  11.285
 6178SOL     OW20366   4.098  12.324  14.225
 6178SOL    HW120367   4.017  12.319  14.173
 6178SOL    HW220368   4.152  12.388  14.178
 6179SOL     OW20369   1.773   8.338   4.569
 6179SOL    HW120370   1.790   8.312   4.660
 6179SOL    HW220371   1.788   8.433   4.568
 6180SOL     OW20372  13.980   6.008   5.614
 6180SOL    HW120373  14.076   6.001   5.609
 6180SOL    HW220374  13.949   5.924   5.579
 6181SOL     OW20375   9.590   3.813  13.822
 6181SOL    HW120376   9.616   3.744  13.761
 6181SOL    HW220377   9.541   3.875  13.768
 6182SOL     OW20378   0.362   0.719  13.000
 6182SOL    HW120379   0.341   0.811  13.013
 6182SOL    HW220380   0.409   0.717  12.916
 6183SOL     OW20381   6.841  10.592   9.825
 6183SOL    HW120382   6.794  10.623   9.748
 6183SOL    HW220383   6.773  10.576   9.890
 6184SOL     OW20384  13.295   6.441   7.798
 6184SOL    HW120385  13.290   6.522   7.748
 6184SOL    HW220386  13.240   6.456   7.875
 6185SOL     OW20387   3.737  14.264  13.455
 6185SOL    HW120388   3.773  14.263  13.544
 6185SOL    HW220389   3.791  14.328  13.409
 6186SOL     OW20390   6.726   4.399   0.786
 6186SOL    HW120391   6.675   4.479   0.791
 6186SOL    HW220392   6.808   4.426   0.744
 6187SOL     OW20393  12.423  14.609  12.978
 6187SOL    HW120394  12.509  14.599  13.018
 6187SOL    HW220395  12.403  14.702  12.988
 6188SOL     OW20396   7.130   9.534  12.106
 6188SOL    HW120397   7.065   9.603  12.111
 6188SOL    HW220398   7.102   9.479  12.033
 6189SOL     OW20399   7.994   8.103   7.947
 6189SOL    HW120400   7.899   8.098   7.955
 6189SOL    HW220401   8.025   8.017   7.976
 6190SOL     OW20402   2.051   1.711  13.033
 6190SOL    HW120403   2.007   1.731  13.115
 6190SOL    HW220404   1.989   1.657  12.984
 6191SOL     OW20405   0.388   6.563  14.788
 6191SOL    HW120406   0.443   6.614  14.729
 6191SOL    HW220407   0.299   6.580  14.757
 6192SOL     OW20408  12.180  13.444   2.199
 6192SOL    HW120409  12.241  13.371   2.200
 6192SOL    HW220410  12.184  13.481   2.287
 6193SOL     OW20411   8.488  11.383   8.593
 6193SOL    HW120412   8.516  11.323   8.524
 6193SOL    HW220413   8.415  11.432   8.554
 6194SOL     OW20414   2.982  12.281   4.208
 6194SOL    HW120415   2.973  12.362   4.158
 6194SOL    HW220416   3.010  12.216   4.143
 6195SOL     OW20417  10.582   6.791   5.654
 6195SOL    HW120418  10.570   6.874   5.700
 6195SOL    HW220419  10.495   6.768   5.623
 6196SOL     OW20420   2.307   0.668  12.223
 6196SOL    HW120421   2.357   0.681  12.142
 6196SOL    HW220422   2.307   0.574  12.237
 6197SOL     OW20423   6.629   0.388  14.321
 6197SOL    HW120424   6.595   0.460  14.374
 6197SOL    HW220425   6.679   0.430  14.252
 6198SOL     OW20426   0.872  12.623  12.342
 6198SOL    HW120427   0.812  12.600  12.412
 6198SOL    HW220428   0.836  12.581  12.264
 6199SOL     OW20429  12.433  14.403   8.045
 6199SOL    HW120430  12.483  14.354   8.110
 6199SOL    HW220431  12.343  14.370   8.055
 6200SOL     OW20432  10.079   8.147   6.186
 6200SOL    HW120433  10.032   8.205   6.126
 6200SOL    HW220434  10.169   8.146   6.153
 6201SOL     OW20435   3.957  14.415   1.405
 6201SOL    HW120436   4.040  14.398   1.361
 6201SOL    HW220437   3.983  14.443   1.493
 6202SOL     OW20438  11.271   7.260   3.855
 6202SOL    HW120439  11.239   7.342   3.893
 6202SOL    HW220440  11.207   7.238   3.787
 6203SOL     OW20441  10.091   2.614   5.332
 6203SOL    HW120442  10.067   2.698   5.293
 6203SOL    HW220443  10.031   2.551   5.293
 6204SOL     OW20444   9.942   6.806   9.541
 6204SOL    HW120445   9.904   6.770   9.622
 6204SOL    HW220446   9.868   6.813   9.481
 6205SOL     OW20447   0.634   3.275   9.862
 6205SOL    HW120448   0.655   3.268   9.769
 6205SOL    HW220449   0.622   3.184   9.890
 6206SOL     OW20450  11.149   2.803  13.793
 6206SOL    HW120451  11.202   2.723  13.791
 6206SOL    HW220452  11.100   2.797  13.875
 6207SOL     OW20453   3.546   5.545  11.160
 6207SOL    HW120454   3.566   5.474  11.098
 6207SOL    HW220455   3.603   5.528  11.235
 6208SOL     OW20456  11.923   5.755   9.893
 6208SOL    HW120457  11.841   5.739   9.940
 6208SOL    HW220458  11.956   5.837   9.929
 6209SOL     OW20459   4.309   5.798   4.664
 6209SOL    HW120460   4.397   5.786   4.627
 6209SOL    HW220461   4.323   5.860   4.736
 6210SOL     OW20462   7.612   0.065   8.822
 6210SOL    HW120463   7.595   0.132   8.888
 6210SOL    HW220464   7.702   0.081   8.794
 6211SOL     OW20465   9.918   3.965   2.397
 6211SOL    HW120466   9.827   3.964   2.425
 6211SOL    HW220467   9.917   3.935   2.306
 6212SOL     OW20468   7.757   9.397   3.266
 6212SOL    HW120469   7.667   9.420   3.241
 6212SOL    HW220470   7.800   9.378   3.182
 6213SOL     OW20471   5.909   2.963   1.660
 6213SOL    HW120472   5.879   2.941   1.748
 6213SOL    HW220473   6.001   2.935   1.659
 6214SOL     OW20474   8.389  10.590   1.146
 6214SOL    HW120475   8.464  10.627   1.101
 6214SOL    HW220476   8.317  10.651   1.129
 6215SOL     OW20477   8.978  11.021   3.348
 6215SOL    HW120478   8.912  10.995   3.283
 6215SOL    HW220479   8.941  10.994   3.431
 6216SOL     OW20480   0.269  13.401   7.465
 6216SOL    HW120481   0.311  13.417   7.380
 6216SOL    HW220482   0.206  13.473   7.474
 6217SOL     OW20483   1.816   0.618   3.083
 6217SOL    HW120484   1.796   0.538   3.132
 6217SOL    HW220485   1.736   0.638   3.036
 6218SOL     OW20486   9.438  14.123  11.701
 6218SOL    HW120487   9.500  14.143  11.631
 6218SOL    HW220488   9.489  14.075  11.766
 6219SOL     OW20489  10.985   3.898   9.196
 6219SOL    HW120490  10.935   3.878   9.275
 6219SOL    HW220491  11.072   3.922   9.228
 6220SOL     OW20492   7.130  13.273   6.762
 6220SOL    HW120493   7.148  13.367   6.759
 6220SOL    HW220494   7.217  13.233   6.759
 6221SOL     OW20495   9.565   5.668   0.381
 6221SOL    HW120496   9.594   5.667   0.473
 6221SOL    HW220497   9.473   5.693   0.385
 6222SOL     OW20498   6.108  13.403   0.585
 6222SOL    HW120499   6.187  13.349   0.580
 6222SOL    HW220500   6.060  13.382   0.505
 6223SOL     OW20501  11.518  11.904   2.591
 6223SOL    HW120502  11.522  11.875   2.500
 6223SOL    HW220503  11.473  11.989   2.587
 6224SOL     OW20504  13.748  14.482  13.949
 6224SOL    HW120505  13.677  14.419  13.964
 6224SOL    HW220506  13.725  14.523  13.865
 6225SOL     OW20507   8.378  14.378   3.712
 6225SOL    HW120508   8.286  14.374   3.686
 6225SOL    HW220509   8.410  14.288   3.701
 6226SOL     OW20510   7.577   8.964   0.196
 6226SOL    HW120511   7.486   8.965   0.226
 6226SOL    HW220512   7.625   8.924   0.269
 6227SOL     OW20513   0.385   6.933   4.313
 6227SOL    HW120514   0.393   6.910   4.221
 6227SOL    HW220515   0.295   6.965   4.322
 6228SOL     OW20516  13.585  14.714  12.035
 6228SOL    HW120517  13.617  14.775  12.102
 6228SOL    HW220518  13.496  14.745  12.016
 6229SOL     OW20519   9.347   6.134   0.268
 6229SOL    HW120520   9.306   6.126   0.355
 6229SOL    HW220521   9.389   6.220   0.269
 6230SOL     OW20522   3.591   7.891   9.192
 6230SOL    HW120523   3.598   7.796   9.178
 6230SOL    HW220524   3.549   7.899   9.278
 6231SOL     OW20525   1.181   9.340   0.536
 6231SOL    HW120526   1.212   9.250   0.523
 6231SOL    HW220527   1.119   9.334   0.608
 6232SOL     OW20528  12.944   7.532   1.106
 6232SOL    HW120529  13.033   7.565   1.118
 6232SOL    HW220530  12.903   7.595   1.046
 6233SOL     OW20531   4.854   4.558   4.108
 6233SOL    HW120532   4.760   4.542   4.106
 6233SOL    HW220533   4.887   4.523   4.025
 6234SOL     OW20534   4.646  10.767   7.638
 6234SOL    HW120535   4.647  10.709   7.714
 6234SOL    HW220536   4.738  10.778   7.615
 6235SOL     OW20537   8.128   7.120   7.300
 6235SOL    HW120538   8.091   7.209   7.293
 6235SOL    HW220539   8.073   7.077   7.366
 6236SOL     OW20540  14.634  14.372  11.078
 6236SOL    HW120541  14.680  14.432  11.020
 6236SOL    HW220542  14.568  14.330  11.022
 6237SOL     OW20543   1.636   9.672   2.480
 6237SOL    HW120544   1.569   9.737   2.459
 6237SOL    HW220545   1.587   9.590   2.491
 6238SOL     OW20546   9.993   6.727  12.813
 6238SOL    HW120547  10.051   6.803  12.814
 6238SOL    HW220548   9.918   6.753  12.867
 6239SOL     OW20549  11.505   6.576   1.793
 6239SOL    HW120550  11.477   6.508   1.855
 6239SOL    HW220551  11.435   6.641   1.797
 6240SOL     OW20552   0.798   8.891   3.827
 6240SOL    HW120553   0.887   8.928   3.821
 6240SOL    HW220554   0.806   8.821   3.893
 6241SOL     OW20555   5.185   9.498   9.110
 6241SOL    HW120556   5.131   9.553   9.166
 6241SOL    HW220557   5.244   9.559   9.066
 6242SOL     OW20558  14.791  14.551  10.524
 6242SOL    HW120559  14.766  14.552  10.431
 6242SOL    HW220560  14.796  14.643  10.549
 6243SOL     OW20561   4.445   7.692   1.604
 6243SOL    HW120562   4.522   7.695   1.547
 6243SOL    HW220563   4.479   7.711   1.691
 6244SOL     OW20564   0.102   2.254   8.218
 6244SOL    HW120565   0.086   2.302   8.136
 6244SOL    HW220566   0.017   2.255   8.262
 6245SOL     OW20567  11.219  11.775   0.595
 6245SOL    HW120568  11.191  11.846   0.651
 6245SOL    HW220569  11.157  11.775   0.522
 6246SOL     OW20570   1.046  10.588   6.321
 6246SOL    HW120571   1.136  10.609   6.296
 6246SOL    HW220572   1.055  10.521   6.389
 6247SOL     OW20573   5.356   0.294   5.794
 6247SOL    HW120574   5.309   0.250   5.864
 6247SOL    HW220575   5.301   0.368   5.771
 6248SOL     OW20576  11.192   1.629  10.463
 6248SOL    HW120577  11.190   1.706  10.520
 6248SOL    HW220578  11.102   1.618  10.434
 6249SOL     OW20579   7.966   2.628  14.113
 6249SOL    HW120580   7.897   2.677  14.070
 6249SOL    HW220581   8.044   2.682  14.102
 6250SOL     OW20582   3.285  11.875   4.509
 6250SOL    HW120583   3.302  11.918   4.425
 6250SOL    HW220584   3.359  11.900   4.565
 6251SOL     OW20585   8.779  12.402   3.939
 6251SOL    HW120586   8.817  12.336   3.881
 6251SOL    HW220587   8.836  12.402   4.016
 6252SOL     OW20588   0.545  10.668   0.962
 6252SOL    HW120589   0.601  10.610   1.013
 6252SOL    HW220590   0.501  10.610   0.900
 6253SOL     OW20591   6.639  13.516   6.258
 6253SOL    HW120592   6.625  13.592   6.201
 6253SOL    HW220593   6.683  13.452   6.202
 6254SOL     OW20594   8.488   4.382   2.766
 6254SOL    HW120595   8.473   4.418   2.854
 6254SOL    HW220596   8.524   4.295   2.781
 6255SOL     OW20597   4.475   0.028   0.494
 6255SOL    HW120598   4.473  14.831   0.553
 6255SOL    HW220599   4.405   0.011   0.431
 6256SOL     OW20600  11.834   1.437   5.231
 6256SOL    HW120601  11.793   1.382   5.297
 6256SOL    HW220602  11.885   1.376   5.177
 6257SOL     OW20603   8.568   6.781  11.415
 6257SOL    HW120604   8.522   6.701  11.440
 6257SOL    HW220605   8.633   6.753  11.350
 6258SOL     OW20606  10.170  11.158   8.963
 6258SOL    HW120607  10.237  11.147   9.031
 6258SOL    HW220608  10.211  11.215   8.898
 6259SOL     OW20609  10.792  13.926   7.764
 6259SOL    HW120610  10.727  13.906   7.696
 6259SOL    HW220611  10.817  14.017   7.747
 6260SOL     OW20612  13.533   3.811   5.312
 6260SOL    HW120613  13.493   3.750   5.375
 6260SOL    HW220614  13.459   3.845   5.262
 6261SOL     OW20615   2.269  11.776  11.680
 6261SOL    HW120616   2.224  11.857  11.657
 6261SOL    HW220617   2.358  11.803  11.702
 6262SOL     OW20618   9.003   2.400  14.739
 6262SOL    HW120619   8.952   2.474  14.706
 6262SOL    HW220620   8.943   2.353  14.797
 6263SOL     OW20621   2.216   8.310  13.310
 6263SOL    HW120622   2.198   8.285  13.401
 6263SOL    HW220623   2.173   8.395  13.300
 6264SOL     OW20624   7.294  12.526  10.715
 6264SOL    HW120625   7.203  12.552  10.697
 6264SOL    HW220626   7.335  12.521  10.628
 6265SOL     OW20627   3.326   6.096   3.938
 6265SOL    HW120628   3.361   6.032   3.877
 6265SOL    HW220629   3.402   6.127   3.988
 6266SOL     OW20630   8.181   2.987   1.683
 6266SOL    HW120631   8.256   3.037   1.715
 6266SOL    HW220632   8.120   3.054   1.651
 6267SOL     OW20633  13.287   9.292  10.369
 6267SOL    HW120634  13.307   9.247  10.450
 6267SOL    HW220635  13.217   9.241  10.329
 6268SOL     OW20636   7.122  11.041  10.086
 6268SOL    HW120637   7.094  11.084  10.166
 6268SOL    HW220638   7.054  10.975  10.069
 6269SOL     OW20639   3.007   4.214   7.371
 6269SOL    HW120640   3.094   4.229   7.406
 6269SOL    HW220641   3.022   4.172   7.286
 6270SOL     OW20642   0.987   9.722   7.487
 6270SOL    HW120643   0.896   9.719   7.459
 6270SOL    HW220644   1.004   9.635   7.524
 6271SOL     OW20645   3.137   5.915  13.093
 6271SOL    HW120646   3.078   5.878  13.158
 6271SOL    HW220647   3.216   5.940  13.142
 6272SOL     OW20648  11.877  12.427  13.105
 6272SOL    HW120649  11.970  12.402  13.105
 6272SOL    HW220650  11.834  12.357  13.154
 6273SOL     OW20651   5.735   4.844   1.060
 6273SOL    HW120652   5.807   4.811   1.007
 6273SOL    HW220653   5.667   4.868   0.997
 6274SOL     OW20654   3.768  14.345   0.078
 6274SOL    HW120655   3.845  14.313   0.126
 6274SOL    HW220656   3.725  14.266   0.046
 6275SOL     OW20657   4.867  11.132   0.472
 6275SOL    HW120658   4.831  11.086   0.396
 6275SOL    HW220659   4.927  11.197   0.433
 6276SOL     OW20660   2.766   3.598   6.816
 6276SOL    HW120661   2.812   3.584   6.899
 6276SOL    HW220662   2.674   3.610   6.841
 6277SOL     OW20663  13.452   6.361   4.002
 6277SOL    HW120664  13.379   6.422   3.993
 6277SOL    HW220665  13.530   6.415   3.992
 6278SOL     OW20666   8.473   0.315  10.798
 6278SOL    HW120667   8.419   0.371  10.742
 6278SOL    HW220668   8.414   0.286  10.868
 6279SOL     OW20669  12.000  10.695   0.437
 6279SOL    HW120670  11.908  10.676   0.416
 6279SOL    HW220671  11.997  10.777   0.486
 6280SOL     OW20672  14.526  11.110   3.509
 6280SOL    HW120673  14.597  11.169   3.534
 6280SOL    HW220674  14.550  11.026   3.547
 6281SOL     OW20675   1.973   4.421   0.297
 6281SOL    HW120676   1.976   4.326   0.302
 6281SOL    HW220677   1.882   4.443   0.315
 6282SOL     OW20678   2.703   3.850   2.027
 6282SOL    HW120679   2.738   3.906   1.957
 6282SOL    HW220680   2.774   3.845   2.091
 6283SOL     OW20681  11.939   2.821   1.072
 6283SOL    HW120682  11.940   2.800   1.166
 6283SOL    HW220683  11.876   2.893   1.065
 6284SOL     OW20684  14.512  14.687   7.652
 6284SOL    HW120685  14.440  14.644   7.698
 6284SOL    HW220686  14.470  14.754   7.597
 6285SOL     OW20687   8.586   8.430   0.663
 6285SOL    HW120688   8.639   8.375   0.719
 6285SOL    HW220689   8.648   8.470   0.602
 6286SOL     OW20690   3.221   2.855   3.936
 6286SOL    HW120691   3.203   2.946   3.913
 6286SOL    HW220692   3.248   2.858   4.027
 6287SOL     OW20693   6.309  11.235   9.761
 6287SOL    HW120694   6.320  11.154   9.810
 6287SOL    HW220695   6.372  11.228   9.689
 6288SOL     OW20696   5.002   5.838   7.929
 6288SOL    HW120697   5.030   5.923   7.893
 6288SOL    HW220698   4.912   5.827   7.899
 6289SOL     OW20699   0.020   1.488   0.900
 6289SOL    HW120700   0.049   1.538   0.823
 6289SOL    HW220701  14.805   1.477   0.887
 6290SOL     OW20702   7.975  13.277  12.079
 6290SOL    HW120703   8.056  13.263  12.129
 6290SOL    HW220704   7.992  13.355  12.027
 6291SOL     OW20705   9.514   9.585  12.398
 6291SOL    HW120706   9.516   9.491  12.418
 6291SOL    HW220707   9.459   9.591  12.320
 6292SOL     OW20708  11.820   9.088   7.334
 6292SOL    HW120709  11.842   9.172   7.375
 6292SOL    HW220710  11.726   9.094   7.317
 6293SOL     OW20711  12.012   2.109   4.700
 6293SOL    HW120712  12.096   2.128   4.660
 6293SOL    HW220713  11.995   2.017   4.677
 6294SOL     OW20714   0.690  11.573   6.591
 6294SOL    HW120715   0.680  11.654   6.641
 6294SOL    HW220716   0.758  11.524   6.637
 6295SOL     OW20717  11.136   3.908   6.001
 6295SOL    HW120718  11.129   3.932   6.093
 6295SOL    HW220719  11.101   3.819   5.997
 6296SOL     OW20720   5.789   2.851   2.170
 6296SOL    HW120721   5.734   2.920   2.208
 6296SOL    HW220722   5.875   2.865   2.208
 6297SOL     OW20723   4.245  12.602   5.796
 6297SOL    HW120724   4.248  12.693   5.826
 6297SOL    HW220725   4.265  12.607   5.703
 6298SOL     OW20726   9.870   4.877   5.723
 6298SOL    HW120727   9.855   4.806   5.660
 6298SOL    HW220728   9.954   4.915   5.696
 6299SOL     OW20729  12.985   0.772   4.571
 6299SOL    HW120730  12.965   0.763   4.664
 6299SOL    HW220731  12.946   0.695   4.530
 6300SOL     OW20732  13.115  13.718  12.808
 6300SOL    HW120733  13.140  13.637  12.765
 6300SOL    HW220734  13.192  13.774  12.801
 6301SOL     OW20735  11.490   7.861   6.642
 6301SOL    HW120736  11.480   7.789   6.705
 6301SOL    HW220737  11.454   7.937   6.687
 6302SOL     OW20738   2.937   3.143   8.327
 6302SOL    HW120739   2.935   3.108   8.238
 6302SOL    HW220740   3.024   3.123   8.360
 6303SOL     OW20741   6.853  10.418   5.571
 6303SOL    HW120742   6.882  10.504   5.600
 6303SOL    HW220743   6.842  10.368   5.652
 6304SOL     OW20744   2.457   2.305   4.758
 6304SOL    HW120745   2.504   2.385   4.734
 6304SOL    HW220746   2.525   2.248   4.795
 6305SOL     OW20747   9.431  13.701   7.363
 6305SOL    HW120748   9.442  13.704   7.268
 6305SOL    HW220749   9.401  13.612   7.381
 6306SOL     OW20750  10.676   7.568   2.339
 6306SOL    HW120751  10.614   7.529   2.401
 6306SOL    HW220752  10.754   7.513   2.344
 6307SOL     OW20753  14.541   9.852   1.062
 6307SOL    HW120754  14.552   9.803   1.143
 6307SOL    HW220755  14.622   9.902   1.052
 6308SOL     OW20756   7.617   2.774   9.961
 6308SOL    HW120757   7.548   2.708   9.952
 6308SOL    HW220758   7.574   2.848  10.003
 6309SOL     OW20759  12.254  13.751   4.225
 6309SOL    HW120760  12.291  13.676   4.178
 6309SOL    HW220761  12.207  13.800   4.157
 6310SOL     OW20762   8.127   7.714   9.581
 6310SOL    HW120763   8.079   7.636   9.610
 6310SOL    HW220764   8.217   7.698   9.608
 6311SOL     OW20765   9.121   7.195   0.523
 6311SOL    HW120766   9.166   7.254   0.463
 6311SOL    HW220767   9.035   7.181   0.483
 6312SOL     OW20768   9.398   6.340  11.223
 6312SOL    HW120769   9.377   6.262  11.172
 6312SOL    HW220770   9.472   6.314  11.278
 6313SOL     OW20771   8.898   2.467   2.413
 6313SOL    HW120772   8.854   2.467   2.498
 6313SOL    HW220773   8.940   2.552   2.408
 6314SOL     OW20774  13.936   9.035   3.122
 6314SOL    HW120775  13.878   9.085   3.065
 6314SOL    HW220776  13.877   8.984   3.178
 6315SOL     OW20777  10.900   3.989   9.893
 6315SOL    HW120778  10.854   4.056   9.943
 6315SOL    HW220779  10.913   3.917   9.955
 6316SOL     OW20780   1.208   6.604   2.605
 6316SOL    HW120781   1.146   6.621   2.675
 6316SOL    HW220782   1.187   6.670   2.538
 6317SOL     OW20783  10.203   7.876   1.274
 6317SOL    HW120784  10.236   7.950   1.325
 6317SOL    HW220785  10.178   7.914   1.189
 6318SOL     OW20786   1.417   3.668   2.444
 6318SOL    HW120787   1.500   3.621   2.439
 6318SOL    HW220788   1.429   3.745   2.388
 6319SOL     OW20789  13.805   3.104   1.123
 6319SOL    HW120790  13.787   3.108   1.029
 6319SOL    HW220791  13.834   3.192   1.146
 6320SOL     OW20792   4.020   9.169   6.738
 6320SOL    HW120793   4.041   9.169   6.644
 6320SOL    HW220794   3.933   9.209   6.743
 6321SOL     OW20795  11.015  10.689   6.702
 6321SOL    HW120796  11.091  10.638   6.728
 6321SOL    HW220797  11.010  10.678   6.607
 6322SOL     OW20798  13.434  12.792   0.555
 6322SOL    HW120799  13.504  12.857   0.552
 6322SOL    HW220800  13.465  12.720   0.501
 6323SOL     OW20801   6.422   4.083   1.328
 6323SOL    HW120802   6.501   4.107   1.280
 6323SOL    HW220803   6.414   3.989   1.315
 6324SOL     OW20804  14.862  13.871   7.957
 6324SOL    HW120805  14.848  13.878   7.862
 6324SOL    HW220806   0.030  13.788   7.969
 6325SOL     OW20807   6.154   8.290   4.752
 6325SOL    HW120808   6.132   8.240   4.831
 6325SOL    HW220809   6.145   8.226   4.681
 6326SOL     OW20810  10.442   7.925  11.384
 6326SOL    HW120811  10.486   7.856  11.434
 6326SOL    HW220812  10.512   7.974  11.342
 6327SOL     OW20813  14.018   6.549   7.492
 6327SOL    HW120814  13.942   6.553   7.434
 6327SOL    HW220815  14.032   6.455   7.506
 6328SOL     OW20816   6.957  14.801   1.256
 6328SOL    HW120817   6.949  14.779   1.349
 6328SOL    HW220818   7.039  14.851   1.249
 6329SOL     OW20819  11.940  14.315   4.506
 6329SOL    HW120820  11.846  14.332   4.497
 6329SOL    HW220821  11.959  14.333   4.598
 6330SOL     OW20822  10.550   4.871   8.170
 6330SOL    HW120823  10.635   4.914   8.163
 6330SOL    HW220824  10.564   4.799   8.230
 6331SOL     OW20825   8.276   0.694  10.555
 6331SOL    HW120826   8.202   0.737  10.598
 6331SOL    HW220827   8.280   0.735  10.468
 6332SOL     OW20828  11.706   3.819   1.415
 6332SOL    HW120829  11.754   3.880   1.471
 6332SOL    HW220830  11.672   3.753   1.474
 6333SOL     OW20831   9.298   9.879   1.355
 6333SOL    HW120832   9.295   9.806   1.416
 6333SOL    HW220833   9.234   9.858   1.288
 6334SOL     OW20834   6.118   2.631   0.004
 6334SOL    HW120835   6.108   2.654  14.790
 6334SOL    HW220836   6.189   2.567   0.006
 6335SOL     OW20837  10.174   2.093   1.474
 6335SOL    HW120838  10.141   2.177   1.505
 6335SOL    HW220839  10.097   2.050   1.437
 6336SOL     OW20840   8.003   6.078  11.484
 6336SOL    HW120841   8.011   6.072  11.389
 6336SOL    HW220842   8.084   6.038  11.517
 6337SOL     OW20843  14.175   7.956   7.170
 6337SOL    HW120844  14.123   7.880   7.143
 6337SOL    HW220845  14.180   7.950   7.265
 6338SOL     OW20846   8.763   4.031  13.662
 6338SOL    HW120847   8.830   3.985  13.713
 6338SOL    HW220848   8.710   4.077  13.728
 6339SOL     OW20849   2.376  11.225   1.457
 6339SOL    HW120850   2.293  11.210   1.412
 6339SOL    HW220851   2.443  11.208   1.391
 6340SOL     OW20852   4.981   3.827   8.827
 6340SOL    HW120853   5.039   3.752   8.816
 6340SOL    HW220854   4.966   3.833   8.921
 6341SOL     OW20855   5.936   4.500  11.926
 6341SOL    HW120856   5.947   4.463  12.014
 6341SOL    HW220857   5.843   4.520  11.920
 6342SOL     OW20858   1.143   4.758   3.813
 6342SOL    HW120859   1.144   4.773   3.718
 6342SOL    HW220860   1.057   4.721   3.831
 6343SOL     OW20861  14.020   8.144   5.051
 6343SOL    HW120862  13.942   8.150   5.105
 6343SOL    HW220863  14.076   8.215   5.082
 6344SOL     OW20864  10.778   8.147   2.043
 6344SOL    HW120865  10.718   8.192   1.983
 6344SOL    HW220866  10.772   8.055   2.018
 6345SOL     OW20867   2.861  13.492   6.721
 6345SOL    HW120868   2.804  13.415   6.731
 6345SOL    HW220869   2.894  13.509   6.809
 6346SOL     OW20870   1.066   8.531   6.451
 6346SOL    HW120871   0.979   8.542   6.413
 6346SOL    HW220872   1.124   8.521   6.375
 6347SOL     OW20873  12.729   4.773   7.273
 6347SOL    HW120874  12.789   4.699   7.264
 6347SOL    HW220875  12.642   4.735   7.264
 6348SOL     OW20876   9.866   1.420   2.434
 6348SOL    HW120877   9.902   1.331   2.428
 6348SOL    HW220878   9.774   1.411   2.408
 6349SOL     OW20879   5.630   5.055  13.816
 6349SOL    HW120880   5.601   5.007  13.739
 6349SOL    HW220881   5.687   4.993  13.863
 6350SOL     OW20882   2.471  14.774  12.061
 6350SOL    HW120883   2.475  14.678  12.058
 6350SOL    HW220884   2.477  14.796  12.153
 6351SOL     OW20885  10.659  10.730  12.029
 6351SOL    HW120886  10.748  10.697  12.040
 6351SOL    HW220887  10.661  10.817  12.068
 6352SOL     OW20888   2.710   6.054   7.647
 6352SOL    HW120889   2.675   5.976   7.690
 6352SOL    HW220890   2.681   6.126   7.703
 6353SOL     OW20891   7.840   1.870   8.124
 6353SOL    HW120892   7.856   1.964   8.116
 6353SOL    HW220893   7.807   1.844   8.038
 6354SOL     OW20894   9.977   4.563   1.092
 6354SOL    HW120895   9.985   4.485   1.146
 6354SOL    HW220896  10.068   4.588   1.072
 6355SOL     OW20897   9.933   5.603   0.087
 6355SOL    HW120898   9.872   5.659   0.136
 6355SOL    HW220899  10.019   5.633   0.114
 6356SOL     OW20900   3.356   4.715   4.609
 6356SOL    HW120901   3.417   4.659   4.559
 6356SOL    HW220902   3.311   4.767   4.542
 6357SOL     OW20903   2.501   6.074  10.629
 6357SOL    HW120904   2.516   6.054  10.536
 6357SOL    HW220905   2.486   6.168  10.632
 6358SOL     OW20906   0.685   8.326  12.610
 6358SOL    HW120907   0.725   8.264  12.671
 6358SOL    HW220908   0.701   8.288  12.524
 6359SOL     OW20909   4.727   6.501   8.715
 6359SOL    HW120910   4.640   6.474   8.744
 6359SOL    HW220911   4.780   6.422   8.723
 6360SOL     OW20912   2.311  12.161   6.354
 6360SOL    HW120913   2.279  12.115   6.432
 6360SOL    HW220914   2.232  12.178   6.302
 6361SOL     OW20915  14.652   7.575   1.013
 6361SOL    HW120916  14.585   7.507   1.005
 6361SOL    HW220917  14.669   7.581   1.107
 6362SOL     OW20918   2.463   2.654   0.945
 6362SOL    HW120919   2.432   2.665   0.855
 6362SOL    HW220920   2.523   2.727   0.959
 6363SOL     OW20921  12.752   4.749   1.089
 6363SOL    HW120922  12.721   4.740   0.999
 6363SOL    HW220923  12.777   4.841   1.096
 6364SOL     OW20924  11.732   7.328   3.461
 6364SOL    HW120925  11.751   7.419   3.440
 6364SOL    HW220926  11.646   7.331   3.504
 6365SOL     OW20927  12.533   6.821  12.056
 6365SOL    HW120928  12.503   6.847  12.143
 6365SOL    HW220929  12.470   6.861  11.996
 6366SOL     OW20930   9.257   8.686   2.541
 6366SOL    HW120931   9.198   8.612   2.554
 6366SOL    HW220932   9.271   8.689   2.447
 6367SOL     OW20933   7.263   1.668   5.955
 6367SOL    HW120934   7.329   1.737   5.964
 6367SOL    HW220935   7.179   1.713   5.962
 6368SOL     OW20936  14.718  11.243  12.287
 6368SOL    HW120937  14.673  11.285  12.214
 6368SOL    HW220938  14.705  11.303  12.360
 6369SOL     OW20939  10.911  10.007  14.209
 6369SOL    HW120940  10.993  10.057  14.206
 6369SOL    HW220941  10.901   9.982  14.301
 6370SOL     OW20942  14.116   1.849   1.946
 6370SOL    HW120943  14.202   1.890   1.952
 6370SOL    HW220944  14.101   1.812   2.033
 6371SOL     OW20945   6.068   3.864  12.669
 6371SOL    HW120946   6.040   3.792  12.613
 6371SOL    HW220947   6.031   3.943  12.628
 6372SOL     OW20948   2.223   7.614   2.290
 6372SOL    HW120949   2.299   7.659   2.253
 6372SOL    HW220950   2.203   7.545   2.227
 6373SOL     OW20951  13.710  12.463   5.352
 6373SOL    HW120952  13.692  12.494   5.263
 6373SOL    HW220953  13.665  12.379   5.358
 6374SOL     OW20954   1.998   9.900  13.678
 6374SOL    HW120955   1.962   9.870  13.762
 6374SOL    HW220956   1.967   9.836  13.614
 6375SOL     OW20957   0.360  12.513  12.701
 6375SOL    HW120958   0.313  12.467  12.632
 6375SOL    HW220959   0.300  12.581  12.730
 6376SOL     OW20960   5.096   9.838   3.250
 6376SOL    HW120961   5.145   9.807   3.326
 6376SOL    HW220962   5.074   9.759   3.201
 6377SOL     OW20963   4.023   9.302  10.941
 6377SOL    HW120964   4.030   9.381  10.994
 6377SOL    HW220965   4.103   9.253  10.961
 6378SOL     OW20966   0.004   1.903  10.004
 6378SOL    HW120967   0.053   1.951   9.937
 6378SOL    HW220968  14.799   1.948  10.009
 6379SOL     OW20969   9.336   7.573   2.925
 6379SOL    HW120970   9.266   7.512   2.946
 6379SOL    HW220971   9.343   7.568   2.829
 6380SOL     OW20972   6.963   4.446  11.012
 6380SOL    HW120973   6.877   4.479  11.038
 6380SOL    HW220974   6.944   4.359  10.975
 6381SOL     OW20975   5.783   9.558  13.613
 6381SOL    HW120976   5.775   9.615  13.689
 6381SOL    HW220977   5.762   9.471  13.645
 6382SOL     OW20978  13.739  13.672   1.105
 6382SOL    HW120979  13.748  13.672   1.010
 6382SOL    HW220980  13.798  13.741   1.135
 6383SOL     OW20981   0.445   1.715   3.800
 6383SOL    HW120982   0.428   1.737   3.892
 6383SOL    HW220983   0.519   1.770   3.775
 6384SOL     OW20984   7.171   7.440   1.370
 6384SOL    HW120985   7.115   7.418   1.445
 6384SOL    HW220986   7.254   7.466   1.409
 6385SOL     OW20987   9.446   7.100   3.310
 6385SOL    HW120988   9.391   7.046   3.367
 6385SOL    HW220989   9.523   7.120   3.363
 6386SOL     OW20990   9.657   9.267  10.000
 6386SOL    HW120991   9.719   9.277   9.928
 6386SOL    HW220992   9.597   9.341   9.991
 6387SOL     OW20993  14.237   2.701   1.164
 6387SOL    HW120994  14.286   2.684   1.083
 6387SOL    HW220995  14.160   2.749   1.136
 6388SOL     OW20996   9.978  10.460   0.515
 6388SOL    HW120997  10.032  10.391   0.476
 6388SOL    HW220998   9.971  10.527   0.447
 6389SOL     OW20999  10.391   9.167   5.793
 6389SOL    HW121000  10.398   9.079   5.830
 6389SOL    HW221001  10.310   9.203   5.830
 6390SOL     OW21002   4.482   6.215   9.101
 6390SOL    HW121003   4.456   6.174   9.184
 6390SOL    HW221004   4.570   6.249   9.118
 6391SOL     OW21005   7.939   9.890  12.695
 6391SOL    HW121006   8.014   9.831  12.687
 6391SOL    HW221007   7.865   9.832  12.717
 6392SOL     OW21008   3.142   9.192   8.022
 6392SOL    HW121009   3.087   9.191   7.943
 6392SOL    HW221010   3.213   9.131   8.002
 6393SOL     OW21011   2.875  10.643   8.855
 6393SOL    HW121012   2.814  10.593   8.800
 6393SOL    HW221013   2.955  10.648   8.803
 6394SOL     OW21014   1.167  11.866  12.792
 6394SOL    HW121015   1.072  11.854  12.790
 6394SOL    HW221016   1.203  11.779  12.779
 6395SOL     OW21017   2.977   1.831   1.237
 6395SOL    HW121018   2.896   1.863   1.197
 6395SOL    HW221019   3.041   1.899   1.221
 6396SOL     OW21020  13.181   9.620   4.565
 6396SOL    HW121021  13.154   9.688   4.626
 6396SOL    HW221022  13.147   9.539   4.602
 6397SOL     OW21023  10.434   6.571   6.419
 6397SOL    HW121024  10.477   6.487   6.401
 6397SOL    HW221025  10.446   6.583   6.514
 6398SOL     OW21026  10.959   3.613   2.056
 6398SOL    HW121027  10.991   3.559   2.128
 6398SOL    HW221028  10.995   3.700   2.072
 6399SOL     OW21029   5.760  14.302  13.351
 6399SOL    HW121030   5.783  14.351  13.272
 6399SOL    HW221031   5.697  14.236  13.320
 6400SOL     OW21032  13.041  11.496   6.797
 6400SOL    HW121033  13.075  11.516   6.885
 6400SOL    HW221034  13.067  11.572   6.744
 6401SOL     OW21035  12.381   3.016   9.089
 6401SOL    HW121036  12.335   3.087   9.132
 6401SOL    HW221037  12.318   2.980   9.026
 6402SOL     OW21038  10.194  14.406   4.316
 6402SOL    HW121039  10.180  14.338   4.250
 6402SOL    HW221040  10.148  14.373   4.393
 6403SOL     OW21041  10.277  10.217   2.876
 6403SOL    HW121042  10.240  10.255   2.955
 6403SOL    HW221043  10.237  10.130   2.870
 6404SOL     OW21044   6.651  10.428   4.579
 6404SOL    HW121045   6.639  10.413   4.673
 6404SOL    HW221046   6.607  10.354   4.538
 6405SOL     OW21047  11.467   0.374   6.714
 6405SOL    HW121048  11.486   0.467   6.704
 6405SOL    HW221049  11.534   0.330   6.660
 6406SOL     OW21050   4.433  13.747   2.548
 6406SOL    HW121051   4.389  13.688   2.487
 6406SOL    HW221052   4.364  13.774   2.609
 6407SOL     OW21053  10.106  14.775   0.652
 6407SOL    HW121054  10.183  14.732   0.615
 6407SOL    HW221055  10.031  14.726   0.617
 6408SOL     OW21056   4.097  10.249   7.440
 6408SOL    HW121057   4.158  10.251   7.367
 6408SOL    HW221058   4.114  10.165   7.483
 6409SOL     OW21059   5.458   5.330   1.649
 6409SOL    HW121060   5.368   5.300   1.637
 6409SOL    HW221061   5.477   5.314   1.741
 6410SOL     OW21062  12.965   5.294   6.668
 6410SOL    HW121063  12.995   5.379   6.638
 6410SOL    HW221064  13.029   5.267   6.734
 6411SOL     OW21065   7.287   5.175   9.746
 6411SOL    HW121066   7.300   5.232   9.671
 6411SOL    HW221067   7.346   5.101   9.731
 6412SOL     OW21068   7.454   3.183   9.541
 6412SOL    HW121069   7.430   3.241   9.613
 6412SOL    HW221070   7.505   3.238   9.481
 6413SOL     OW21071   9.258   2.076   2.421
 6413SOL    HW121072   9.287   2.158   2.382
 6413SOL    HW221073   9.166   2.069   2.395
 6414SOL     OW21074   8.238   1.868  10.162
 6414SOL    HW121075   8.203   1.938  10.106
 6414SOL    HW221076   8.168   1.851  10.225
 6415SOL     OW21077  11.068  13.545  12.791
 6415SOL    HW121078  11.029  13.510  12.711
 6415SOL    HW221079  10.993  13.579  12.840
 6416SOL     OW21080   8.207   2.873   8.620
 6416SOL    HW121081   8.251   2.817   8.556
 6416SOL    HW221082   8.128   2.903   8.575
 6417SOL     OW21083  14.612  10.655   9.888
 6417SOL    HW121084  14.537  10.699   9.927
 6417SOL    HW221085  14.577  10.611   9.810
 6418SOL     OW21086  12.016   3.535   4.471
 6418SOL    HW121087  12.024   3.464   4.408
 6418SOL    HW221088  11.925   3.562   4.467
 6419SOL     OW21089   2.255   5.533   0.482
 6419SOL    HW121090   2.268   5.628   0.487
 6419SOL    HW221091   2.279   5.511   0.392
 6420SOL     OW21092  11.655  13.552   9.271
 6420SOL    HW121093  11.575  13.503   9.253
 6420SOL    HW221094  11.720  13.485   9.290
 6421SOL     OW21095  11.851  11.529   3.608
 6421SOL    HW121096  11.922  11.580   3.568
 6421SOL    HW221097  11.881  11.512   3.697
 6422SOL     OW21098  13.213   1.729  14.484
 6422SOL    HW121099  13.281   1.796  14.469
 6422SOL    HW221100  13.136   1.779  14.511
 6423SOL     OW21101  10.723   7.864   1.923
 6423SOL    HW121102  10.635   7.833   1.944
 6423SOL    HW221103  10.726   7.863   1.827
 6424SOL     OW21104   1.195   7.285   1.000
 6424SOL    HW121105   1.161   7.335   1.075
 6424SOL    HW221106   1.273   7.241   1.034
 6425SOL     OW21107   1.213  12.158  12.962
 6425SOL    HW121108   1.285  12.215  12.989
 6425SOL    HW221109   1.247  12.108  12.888
 6426SOL     OW21110   1.949  12.597   9.625
 6426SOL    HW121111   1.875  12.637   9.670
 6426SOL    HW221112   1.984  12.666   9.568
 6427SOL     OW21113   7.514   6.521   4.194
 6427SOL    HW121114   7.432   6.553   4.232
 6427SOL    HW221115   7.540   6.588   4.132
 6428SOL     OW21116   4.508   8.389   3.249
 6428SOL    HW121117   4.510   8.294   3.235
 6428SOL    HW221118   4.440   8.420   3.189
 6429SOL     OW21119   3.970   5.922  11.450
 6429SOL    HW121120   3.934   5.963  11.371
 6429SOL    HW221121   3.961   5.828  11.435
 6430SOL     OW21122  12.463   1.479   4.776
 6430SOL    HW121123  12.420   1.558   4.744
 6430SOL    HW221124  12.423   1.461   4.861
 6431SOL     OW21125   4.225   6.354  13.188
 6431SOL    HW121126   4.223   6.297  13.112
 6431SOL    HW221127   4.143   6.404  13.184
 6432SOL     OW21128   0.954  13.115   0.601
 6432SOL    HW121129   1.023  13.181   0.614
 6432SOL    HW221130   0.883  13.163   0.559
 6433SOL     OW21131   2.163  14.118   3.080
 6433SOL    HW121132   2.223  14.089   3.011
 6433SOL    HW221133   2.077  14.086   3.052
 6434SOL     OW21134  14.800  11.669   6.671
 6434SOL    HW121135   0.011  11.651   6.698
 6434SOL    HW221136  14.757  11.584   6.674
 6435SOL     OW21137   7.473   4.110   6.113
 6435SOL    HW121138   7.433   4.118   6.200
 6435SOL    HW221139   7.550   4.055   6.127
 6436SOL     OW21140   8.774   5.097  10.911
 6436SOL    HW121141   8.704   5.072  10.971
 6436SOL    HW221142   8.786   5.019  10.856
 6437SOL     OW21143   9.886   9.465   3.484
 6437SOL    HW121144   9.923   9.554   3.494
 6437SOL    HW221145   9.792   9.478   3.483
 6438SOL     OW21146   9.554   9.049   9.774
 6438SOL    HW121147   9.634   9.004   9.800
 6438SOL    HW221148   9.490   9.027   9.842
 6439SOL     OW21149  11.660  14.303   6.366
 6439SOL    HW121150  11.729  14.318   6.430
 6439SOL    HW221151  11.691  14.346   6.287
 6440SOL     OW21152   9.127   3.530   2.352
 6440SOL    HW121153   9.208   3.487   2.377
 6440SOL    HW221154   9.063   3.459   2.346
 6441SOL     OW21155  13.500   1.931   4.121
 6441SOL    HW121156  13.498   1.923   4.026
 6441SOL    HW221157  13.422   1.883   4.150
 6442SOL     OW21158  14.878  10.777   2.742
 6442SOL    HW121159   0.094  10.788   2.741
 6442SOL    HW221160  14.846  10.844   2.803
 6443SOL     OW21161   2.253  14.671   1.503
 6443SOL    HW121162   2.215  14.612   1.569
 6443SOL    HW221163   2.201  14.655   1.424
 6444SOL     OW21164   2.787   6.561  10.665
 6444SOL    HW121165   2.850   6.564  10.594
 6444SOL    HW221166   2.799   6.475  10.704
 6445SOL     OW21167   0.426   6.495   4.312
 6445SOL    HW121168   0.364   6.568   4.319
 6445SOL    HW221169   0.443   6.486   4.218
 6446SOL     OW21170   3.018   1.969   9.216
 6446SOL    HW121171   3.112   1.982   9.200
 6446SOL    HW221172   2.975   2.023   9.149
 6447SOL     OW21173   1.277   0.793  13.703
 6447SOL    HW121174   1.332   0.754  13.771
 6447SOL    HW221175   1.319   0.767  13.621
 6448SOL     OW21176   0.618  13.133   0.926
 6448SOL    HW121177   0.647  13.146   1.016
 6448SOL    HW221178   0.532  13.092   0.934
 6449SOL     OW21179  11.250   4.010  12.163
 6449SOL    HW121180  11.183   4.074  12.138
 6449SOL    HW221181  11.223   3.929  12.119
 6450SOL     OW21182  13.735  11.965   7.993
 6450SOL    HW121183  13.719  12.000   8.081
 6450SOL    HW221184  13.662  11.998   7.940
 6451SOL     OW21185   3.870  13.311   5.510
 6451SOL    HW121186   3.888  13.281   5.599
 6451SOL    HW221187   3.885  13.405   5.513
 6452SOL     OW21188   2.709  11.069   3.891
 6452SOL    HW121189   2.786  11.071   3.948
 6452SOL    HW221190   2.745  11.081   3.803
 6453SOL     OW21191   4.191   3.163   7.225
 6453SOL    HW121192   4.183   3.069   7.208
 6453SOL    HW221193   4.250   3.194   7.156
 6454SOL     OW21194   1.805   4.515   2.558
 6454SOL    HW121195   1.740   4.537   2.491
 6454SOL    HW221196   1.767   4.547   2.639
 6455SOL     OW21197   9.393   3.155  11.269
 6455SOL    HW121198   9.455   3.166  11.197
 6455SOL    HW221199   9.444   3.113  11.339
 6456SOL     OW21200  12.830   8.210   0.177
 6456SOL    HW121201  12.837   8.183   0.085
 6456SOL    HW221202  12.749   8.261   0.180
 6457SOL     OW21203   1.602  12.387  10.904
 6457SOL    HW121204   1.652  12.390  10.986
 6457SOL    HW221205   1.617  12.298  10.871
 6458SOL     OW21206   9.270  12.285   1.496
 6458SOL    HW121207   9.187  12.321   1.524
 6458SOL    HW221208   9.282  12.206   1.549
 6459SOL     OW21209   5.814   8.301  10.744
 6459SOL    HW121210   5.828   8.223  10.797
 6459SOL    HW221211   5.899   8.345  10.742
 6460SOL     OW21212   0.301   1.610   9.111
 6460SOL    HW121213   0.218   1.562   9.103
 6460SOL    HW221214   0.278   1.700   9.090
 6461SOL     OW21215   3.603  10.711  12.395
 6461SOL    HW121216   3.578  10.784  12.339
 6461SOL    HW221217   3.521  10.672  12.423
 6462SOL     OW21218   6.478   7.857   9.690
 6462SOL    HW121219   6.498   7.844   9.783
 6462SOL    HW221220   6.487   7.952   9.677
 6463SOL     OW21221  13.002   0.849  10.434
 6463SOL    HW121222  13.069   0.814  10.492
 6463SOL    HW221223  13.013   0.944  10.439
 6464SOL     OW21224   2.869   2.140   7.196
 6464SOL    HW121225   2.827   2.111   7.277
 6464SOL    HW221226   2.806   2.201   7.157
 6465SOL     OW21227  14.744   1.929   5.197
 6465SOL    HW121228  14.836   1.903   5.190
 6465SOL    HW221229  14.705   1.901   5.114
 6466SOL     OW21230   0.600   3.244  13.143
 6466SOL    HW121231   0.608   3.279  13.055
 6466SOL    HW221232   0.519   3.193  13.142
 6467SOL     OW21233   4.928   5.166   7.349
 6467SOL    HW121234   4.858   5.214   7.305
 6467SOL    HW221235   4.895   5.150   7.437
 6468SOL     OW21236   7.102  14.867  10.840
 6468SOL    HW121237   7.010   0.003  10.858
 6468SOL    HW221238   7.124  14.789  10.892
 6469SOL     OW21239  11.419  12.856  10.634
 6469SOL    HW121240  11.352  12.924  10.637
 6469SOL    HW221241  11.441  12.847  10.541
 6470SOL     OW21242   4.865   2.013  12.999
 6470SOL    HW121243   4.880   1.993  12.906
 6470SOL    HW221244   4.950   2.040  13.032
 6471SOL     OW21245   3.912   1.398  10.435
 6471SOL    HW121246   3.927   1.442  10.519
 6471SOL    HW221247   3.928   1.465  10.369
 6472SOL     OW21248  10.457   3.854   6.916
 6472SOL    HW121249  10.418   3.876   6.831
 6472SOL    HW221250  10.396   3.891   6.979
 6473SOL     OW21251  12.970  10.858   7.955
 6473SOL    HW121252  12.950  10.776   7.911
 6473SOL    HW221253  12.885  10.896   7.975
 6474SOL     OW21254   3.978   0.901  10.613
 6474SOL    HW121255   3.982   0.949  10.695
 6474SOL    HW221256   3.966   0.969  10.546
 6475SOL     OW21257   6.504  14.361   6.663
 6475SOL    HW121258   6.435  14.394   6.719
 6475SOL    HW221259   6.544  14.290   6.714
 6476SOL     OW21260  12.533  12.495  11.985
 6476SOL    HW121261  12.541  12.548  12.065
 6476SOL    HW221262  12.441  12.500  11.962
 6477SOL     OW21263   7.543  14.441   1.718
 6477SOL    HW121264   7.485  14.395   1.657
 6477SOL    HW221265   7.568  14.521   1.671
 6478SOL     OW21266   6.618   4.990   3.977
 6478SOL    HW121267   6.654   4.903   3.962
 6478SOL    HW221268   6.659   5.045   3.910
 6479SOL     OW21269  14.705   1.487   6.056
 6479SOL    HW121270  14.695   1.441   6.139
 6479SOL    HW221271  14.642   1.559   6.062
 6480SOL     OW21272   5.402   6.633   8.039
 6480SOL    HW121273   5.485   6.660   8.078
 6480SOL    HW221274   5.420   6.546   8.002
 6481SOL     OW21275  11.218  10.484  11.561
 6481SOL    HW121276  11.198  10.576  11.545
 6481SOL    HW221277  11.307  10.473  11.528
 6482SOL     OW21278  13.583  12.666   3.567
 6482SOL    HW121279  13.490  12.673   3.588
 6482SOL    HW221280  13.610  12.757   3.549
 6483SOL     OW21281   9.113  10.387   2.462
 6483SOL    HW121282   9.138  10.449   2.530
 6483SOL    HW221283   9.042  10.336   2.500
 6484SOL     OW21284   6.952   2.344   4.719
 6484SOL    HW121285   7.029   2.343   4.776
 6484SOL    HW221286   6.897   2.414   4.754
 6485SOL     OW21287   9.292  11.946   0.301
 6485SOL    HW121288   9.322  11.860   0.273
 6485SOL    HW221289   9.333  11.960   0.386
 6486SOL     OW21290  12.028  13.173   2.229
 6486SOL    HW121291  11.981  13.251   2.198
 6486SOL    HW221292  11.998  13.103   2.171
 6487SOL     OW21293   0.685   8.668  10.247
 6487SOL    HW121294   0.710   8.585  10.288
 6487SOL    HW221295   0.634   8.643  10.170
 6488SOL     OW21296   7.986  12.605  13.543
 6488SOL    HW121297   8.037  12.638  13.617
 6488SOL    HW221298   7.924  12.544  13.582
 6489SOL     OW21299   0.064   5.219   8.757
 6489SOL    HW121300  14.875   5.187   8.698
 6489SOL    HW221301   0.051   5.169   8.838
 6490SOL     OW21302   7.470   5.039   1.603
 6490SOL    HW121303   7.381   5.017   1.631
 6490SOL    HW221304   7.502   5.097   1.672
 6491SOL     OW21305   6.205   4.229   0.247
 6491SOL    HW121306   6.193   4.138   0.275
 6491SOL    HW221307   6.166   4.232   0.159
 6492SOL     OW21308  12.170   5.318  13.051
 6492SOL    HW121309  12.093   5.365  13.083
 6492SOL    HW221310  12.144   5.286  12.964
 6493SOL     OW21311   9.867   1.776  13.456
 6493SOL    HW121312   9.788   1.817  13.490
 6493SOL    HW221313   9.933   1.790  13.524
 6494SOL     OW21314   4.696   3.968   8.081
 6494SOL    HW121315   4.660   3.947   7.995
 6494SOL    HW221316   4.668   3.896   8.138
 6495SOL     OW21317   5.494  13.624   0.267
 6495SOL    HW121318   5.404  13.623   0.235
 6495SOL    HW221319   5.505  13.711   0.305
 6496SOL     OW21320   0.677   1.208   8.651
 6496SOL    HW121321   0.689   1.229   8.744
 6496SOL    HW221322   0.606   1.267   8.623
 6497SOL     OW21323   4.579  13.001  11.920
 6497SOL    HW121324   4.574  12.922  11.867
 6497SOL    HW221325   4.672  13.026  11.918
 6498SOL     OW21326  10.303  10.810   9.960
 6498SOL    HW121327  10.214  10.778   9.942
 6498SOL    HW221328  10.295  10.905   9.960
 6499SOL     OW21329   8.800   8.272   9.631
 6499SOL    HW121330   8.752   8.305   9.707
 6499SOL    HW221331   8.735   8.225   9.579
 6500SOL     OW21332  10.188   3.838   6.069
 6500SOL    HW121333  10.118   3.829   6.134
 6500SOL    HW221334  10.186   3.755   6.020
 6501SOL     OW21335   7.829   8.538   3.909
 6501SOL    HW121336   7.799   8.627   3.890
 6501SOL    HW221337   7.924   8.543   3.905
 6502SOL     OW21338   8.276   3.940   1.072
 6502SOL    HW121339   8.313   4.021   1.036
 6502SOL    HW221340   8.350   3.898   1.116
 6503SOL     OW21341   7.779   5.816   9.317
 6503SOL    HW121342   7.754   5.763   9.393
 6503SOL    HW221343   7.772   5.906   9.348
 6504SOL     OW21344   5.984   5.288   3.661
 6504SOL    HW121345   6.023   5.216   3.710
 6504SOL    HW221346   5.952   5.248   3.580
 6505SOL     OW21347  13.531  11.169   1.946
 6505SOL    HW121348  13.518  11.239   1.882
 6505SOL    HW221349  13.500  11.090   1.902
 6506SOL     OW21350  13.404   9.290   5.746
 6506SOL    HW121351  13.469   9.220   5.760
 6506SOL    HW221352  13.358   9.296   5.830
 6507SOL     OW21353   7.270   6.848   9.248
 6507SOL    HW121354   7.342   6.834   9.187
 6507SOL    HW221355   7.194   6.810   9.203
 6508SOL     OW21356  13.039   0.680  11.242
 6508SOL    HW121357  12.975   0.736  11.286
 6508SOL    HW221358  13.031   0.703  11.149
 6509SOL     OW21359   4.950   0.852  10.550
 6509SOL    HW121360   5.037   0.891  10.558
 6509SOL    HW221361   4.957   0.768  10.597
 6510SOL     OW21362   4.469   9.559   9.085
 6510SOL    HW121363   4.510   9.483   9.128
 6510SOL    HW221364   4.534   9.587   9.020
 6511SOL     OW21365  10.607   5.293   9.334
 6511SOL    HW121366  10.550   5.304   9.259
 6511SOL    HW221367  10.570   5.350   9.402
 6512SOL     OW21368  11.615   6.660   0.304
 6512SOL    HW121369  11.597   6.696   0.391
 6512SOL    HW221370  11.583   6.727   0.243
 6513SOL     OW21371   5.761   7.783   9.783
 6513SOL    HW121372   5.801   7.869   9.776
 6513SOL    HW221373   5.819   7.726   9.731
 6514SOL     OW21374   3.261   1.787   4.742
 6514SOL    HW121375   3.270   1.700   4.703
 6514SOL    HW221376   3.265   1.848   4.668
 6515SOL     OW21377  14.173   0.381   2.734
 6515SOL    HW121378  14.135   0.468   2.724
 6515SOL    HW221379  14.123   0.341   2.806
 6516SOL     OW21380   9.503   3.280   8.873
 6516SOL    HW121381   9.556   3.201   8.884
 6516SOL    HW221382   9.468   3.298   8.960
 6517SOL     OW21383   6.502   9.488   9.273
 6517SOL    HW121384   6.516   9.410   9.327
 6517SOL    HW221385   6.445   9.544   9.326
 6518SOL     OW21386  13.335   0.991  11.559
 6518SOL    HW121387  13.318   0.921  11.623
 6518SOL    HW221388  13.363   0.946  11.480
 6519SOL     OW21389  12.553  12.530   7.459
 6519SOL    HW121390  12.617  12.505   7.526
 6519SOL    HW221391  12.472  12.543   7.508
 6520SOL     OW21392   3.292  10.431  12.243
 6520SOL    HW121393   3.280  10.402  12.153
 6520SOL    HW221394   3.210  10.476  12.265
 6521SOL     OW21395  14.723   5.547   1.436
 6521SOL    HW121396  14.727   5.639   1.462
 6521SOL    HW221397  14.634   5.519   1.458
 6522SOL     OW21398   7.391   5.063   4.573
 6522SOL    HW121399   7.464   5.023   4.621
 6522SOL    HW221400   7.336   5.102   4.641
 6523SOL     OW21401  11.839   0.675  11.018
 6523SOL    HW121402  11.849   0.603  10.956
 6523SOL    HW221403  11.747   0.701  11.011
 6524SOL     OW21404   0.327  11.415   0.175
 6524SOL    HW121405   0.240  11.395   0.140
 6524SOL    HW221406   0.329  11.511   0.180
 6525SOL     OW21407  10.813   5.472  11.772
 6525SOL    HW121408  10.730   5.473  11.821
 6525SOL    HW221409  10.792   5.514  11.689
 6526SOL     OW21410   4.250   4.677   0.837
 6526SOL    HW121411   4.159   4.690   0.811
 6526SOL    HW221412   4.244   4.633   0.922
 6527SOL     OW21413   5.082  14.304  12.001
 6527SOL    HW121414   4.991  14.330  11.986
 6527SOL    HW221415   5.132  14.385  11.995
 6528SOL     OW21416   1.186   1.768   1.199
 6528SOL    HW121417   1.220   1.722   1.276
 6528SOL    HW221418   1.091   1.764   1.209
 6529SOL     OW21419   6.284   4.514   0.845
 6529SOL    HW121420   6.198   4.472   0.838
 6529SOL    HW221421   6.265   4.605   0.864
 6530SOL     OW21422   8.409   7.375   6.219
 6530SOL    HW121423   8.449   7.303   6.268
 6530SOL    HW221424   8.450   7.454   6.254
 6531SOL     OW21425   5.099   7.288   8.501
 6531SOL    HW121426   5.101   7.283   8.405
 6531SOL    HW221427   5.153   7.214   8.530
 6532SOL     OW21428  13.755   7.430   3.457
 6532SOL    HW121429  13.709   7.512   3.478
 6532SOL    HW221430  13.687   7.373   3.421
 6533SOL     OW21431  13.556   9.095   9.698
 6533SOL    HW121432  13.639   9.097   9.745
 6533SOL    HW221433  13.556   9.175   9.645
 6534SOL     OW21434   4.664   2.639   3.796
 6534SOL    HW121435   4.628   2.659   3.710
 6534SOL    HW221436   4.592   2.598   3.844
 6535SOL     OW21437   2.188   9.107   4.660
 6535SOL    HW121438   2.111   9.141   4.613
 6535SOL    HW221439   2.234   9.186   4.689
 6536SOL     OW21440   9.391  11.738   8.982
 6536SOL    HW121441   9.440  11.656   8.989
 6536SOL    HW221442   9.307  11.720   9.024
 6537SOL     OW21443  14.852  11.267   3.904
 6537SOL    HW121444  14.799  11.194   3.873
 6537SOL    HW221445  14.818  11.286   3.992
 6538SOL     OW21446   4.917   3.320   6.544
 6538SOL    HW121447   4.966   3.348   6.466
 6538SOL    HW221448   4.951   3.234   6.565
 6539SOL     OW21449  12.102   0.801   8.009
 6539SOL    HW121450  12.091   0.860   7.934
 6539SOL    HW221451  12.113   0.860   8.084
 6540SOL     OW21452  11.333   1.332  10.092
 6540SOL    HW121453  11.302   1.380  10.168
 6540SOL    HW221454  11.428   1.345  10.092
 6541SOL     OW21455  11.039   6.036  13.694
 6541SOL    HW121456  11.073   5.992  13.772
 6541SOL    HW221457  11.115   6.046  13.637
 6542SOL     OW21458   8.128   4.851  12.875
 6542SOL    HW121459   8.188   4.884  12.808
 6542SOL    HW221460   8.182   4.797  12.932
 6543SOL     OW21461  11.300   2.373   7.935
 6543SOL    HW121462  11.242   2.337   7.867
 6543SOL    HW221463  11.317   2.298   7.993
 6544SOL     OW21464   0.318  13.227   7.041
 6544SOL    HW121465   0.309  13.134   7.063
 6544SOL    HW221466   0.237  13.249   6.996
 6545SOL     OW21467   1.222   9.347   1.613
 6545SOL    HW121468   1.197   9.274   1.670
 6545SOL    HW221469   1.299   9.385   1.655
 6546SOL     OW21470  14.832   8.552  10.520
 6546SOL    HW121471   0.015   8.623  10.504
 6546SOL    HW221472   0.004   8.472  10.506
 6547SOL     OW21473   8.724   3.649  13.162
 6547SOL    HW121474   8.735   3.701  13.242
 6547SOL    HW221475   8.652   3.589  13.182
 6548SOL     OW21476   6.030   7.744   7.927
 6548SOL    HW121477   6.091   7.753   7.854
 6548SOL    HW221478   6.062   7.667   7.975
 6549SOL     OW21479  10.568   9.814   1.290
 6549SOL    HW121480  10.514   9.843   1.363
 6549SOL    HW221481  10.589   9.894   1.241
 6550SOL     OW21482   4.504  12.522  13.079
 6550SOL    HW121483   4.454  12.523  13.160
 6550SOL    HW221484   4.595  12.509  13.107
 6551SOL     OW21485   5.028  13.294  14.796
 6551SOL    HW121486   5.121  13.276  14.807
 6551SOL    HW221487   4.990  13.210  14.773
 6552SOL     OW21488   3.319  10.856   3.732
 6552SOL    HW121489   3.346  10.773   3.690
 6552SOL    HW221490   3.401  10.893   3.765
 6553SOL     OW21491  14.345   6.786  10.996
 6553SOL    HW121492  14.307   6.793  11.083
 6553SOL    HW221493  14.309   6.704  10.960
 6554SOL     OW21494  11.692  13.621   2.948
 6554SOL    HW121495  11.787  13.632   2.948
 6554SOL    HW221496  11.675  13.563   2.874
 6555SOL     OW21497  11.233   6.619  10.790
 6555SOL    HW121498  11.218   6.599  10.697
 6555SOL    HW221499  11.148   6.601  10.831
 6556SOL     OW21500  14.471   7.611   5.925
 6556SOL    HW121501  14.399   7.593   5.865
 6556SOL    HW221502  14.439   7.585   6.011
 6557SOL     OW21503   1.357  11.341   9.163
 6557SOL    HW121504   1.332  11.261   9.117
 6557SOL    HW221505   1.437  11.317   9.209
 6558SOL     OW21506  11.659   8.996   0.835
 6558SOL    HW121507  11.727   8.936   0.804
 6558SOL    HW221508  11.707   9.064   0.883
 6559SOL     OW21509   9.152  10.552   5.842
 6559SOL    HW121510   9.128  10.641   5.817
 6559SOL    HW221511   9.106  10.496   5.780
 6560SOL     OW21512  13.194  11.327   6.647
 6560SOL    HW121513  13.269  11.384   6.662
 6560SOL    HW221514  13.123  11.369   6.696
 6561SOL     OW21515  11.368   5.368   4.446
 6561SOL    HW121516  11.404   5.454   4.424
 6561SOL    HW221517  11.443   5.320   4.482
 6562SOL     OW21518   2.444  10.911  13.066
 6562SOL    HW121519   2.423  10.947  13.152
 6562SOL    HW221520   2.399  10.826  13.064
 6563SOL     OW21521  14.612  11.671   7.343
 6563SOL    HW121522  14.526  11.709   7.323
 6563SOL    HW221523  14.643  11.721   7.418
 6564SOL     OW21524  11.578   2.485  13.434
 6564SOL    HW121525  11.561   2.401  13.477
 6564SOL    HW221526  11.492   2.528  13.430
 6565SOL     OW21527  11.111   6.448   0.895
 6565SOL    HW121528  11.207   6.443   0.886
 6565SOL    HW221529  11.095   6.438   0.989
 6566SOL     OW21530   0.343   7.788  11.377
 6566SOL    HW121531   0.418   7.846  11.395
 6566SOL    HW221532   0.311   7.763  11.464
 6567SOL     OW21533   6.478   8.001  11.808
 6567SOL    HW121534   6.413   7.931  11.816
 6567SOL    HW221535   6.500   8.023  11.899
 6568SOL     OW21536   8.613   9.037   2.865
 6568SOL    HW121537   8.641   8.953   2.828
 6568SOL    HW221538   8.572   9.013   2.949
 6569SOL     OW21539   1.305   5.837   7.044
 6569SOL    HW121540   1.284   5.910   6.986
 6569SOL    HW221541   1.222   5.814   7.085
 6570SOL     OW21542  11.152   7.214   8.847
 6570SOL    HW121543  11.152   7.260   8.931
 6570SOL    HW221544  11.060   7.189   8.834
 6571SOL     OW21545   6.066   2.484  12.855
 6571SOL    HW121546   6.052   2.503  12.762
 6571SOL    HW221547   6.140   2.539  12.880
 6572SOL     OW21548   1.878   5.784   9.239
 6572SOL    HW121549   1.799   5.784   9.184
 6572SOL    HW221550   1.919   5.869   9.222
 6573SOL     OW21551  13.993   9.058  10.118
 6573SOL    HW121552  14.009   8.978  10.068
 6573SOL    HW221553  13.906   9.046  10.155
 6574SOL     OW21554   2.967   1.350   3.483
 6574SOL    HW121555   2.879   1.319   3.461
 6574SOL    HW221556   2.970   1.439   3.448
 6575SOL     OW21557   4.829   3.890   9.660
 6575SOL    HW121558   4.755   3.951   9.662
 6575SOL    HW221559   4.881   3.913   9.737
 6576SOL     OW21560   9.926   5.869   3.573
 6576SOL    HW121561   9.999   5.817   3.606
 6576SOL    HW221562   9.966   5.933   3.514
 6577SOL     OW21563  13.623   3.808   7.988
 6577SOL    HW121564  13.532   3.812   8.019
 6577SOL    HW221565  13.620   3.746   7.914
 6578SOL     OW21566  12.801   9.901   9.689
 6578SOL    HW121567  12.836   9.944   9.611
 6578SOL    HW221568  12.741   9.965   9.727
 6579SOL     OW21569   1.857   9.239   6.141
 6579SOL    HW121570   1.845   9.227   6.235
 6579SOL    HW221571   1.950   9.223   6.126
 6580SOL     OW21572   4.666   5.539   1.845
 6580SOL    HW121573   4.618   5.586   1.776
 6580SOL    HW221574   4.708   5.609   1.896
 6581SOL     OW21575   1.458   3.827  11.606
 6581SOL    HW121576   1.489   3.836  11.696
 6581SOL    HW221577   1.482   3.910  11.565
 6582SOL     OW21578   5.965  10.196  13.323
 6582SOL    HW121579   5.873  10.215  13.303
 6582SOL    HW221580   5.994  10.139  13.252
 6583SOL     OW21581   9.517   4.198  13.438
 6583SOL    HW121582   9.602   4.229  13.471
 6583SOL    HW221583   9.539   4.123  13.382
 6584SOL     OW21584   2.804   8.551   6.827
 6584SOL    HW121585   2.876   8.499   6.792
 6584SOL    HW221586   2.726   8.500   6.806
 6585SOL     OW21587   5.879   4.354   9.644
 6585SOL    HW121588   5.854   4.265   9.667
 6585SOL    HW221589   5.820   4.410   9.696
 6586SOL     OW21590  14.630  12.299  11.894
 6586SOL    HW121591  14.698  12.325  11.832
 6586SOL    HW221592  14.570  12.246  11.842
 6587SOL     OW21593  10.778  10.970  10.658
 6587SOL    HW121594  10.818  10.917  10.590
 6587SOL    HW221595  10.685  10.969  10.638
 6588SOL     OW21596   4.013  14.257   2.935
 6588SOL    HW121597   3.930  14.293   2.906
 6588SOL    HW221598   4.053  14.328   2.986
 6589SOL     OW21599  11.736   5.251   1.745
 6589SOL    HW121600  11.832   5.249   1.749
 6589SOL    HW221601  11.713   5.336   1.782
 6590SOL     OW21602  11.921  14.748  12.930
 6590SOL    HW121603  11.996  14.688  12.930
 6590SOL    HW221604  11.856  14.706  12.874
 6591SOL     OW21605   7.177  11.015   3.793
 6591SOL    HW121606   7.193  11.016   3.887
 6591SOL    HW221607   7.173  11.108   3.769
 6592SOL     OW21608   9.996   2.742   3.321
 6592SOL    HW121609   9.990   2.710   3.411
 6592SOL    HW221610  10.071   2.801   3.322
 6593SOL     OW21611  10.926   5.795   2.978
 6593SOL    HW121612  10.879   5.742   2.914
 6593SOL    HW221613  10.869   5.796   3.055
 6594SOL     OW21614   5.839   8.350  12.203
 6594SOL    HW121615   5.804   8.294  12.134
 6594SOL    HW221616   5.776   8.344  12.274
 6595SOL     OW21617   7.404   6.620   9.915
 6595SOL    HW121618   7.450   6.559   9.971
 6595SOL    HW221619   7.454   6.621   9.833
 6596SOL     OW21620   4.647   9.255   8.591
 6596SOL    HW121621   4.718   9.207   8.549
 6596SOL    HW221622   4.681   9.277   8.678
 6597SOL     OW21623  14.620  10.155  14.089
 6597SOL    HW121624  14.576  10.211  14.025
 6597SOL    HW221625  14.710  10.189  14.093
 6598SOL     OW21626  10.297   3.613   3.397
 6598SOL    HW121627  10.302   3.523   3.428
 6598SOL    HW221628  10.379   3.653   3.427
 6599SOL     OW21629   6.193  11.486   6.396
 6599SOL    HW121630   6.258  11.514   6.461
 6599SOL    HW221631   6.245  11.440   6.330
 6600SOL     OW21632  12.233   3.861   4.318
 6600SOL    HW121633  12.193   3.823   4.239
 6600SOL    HW221634  12.315   3.900   4.287
 6601SOL     OW21635   3.400   2.245   4.652
 6601SOL    HW121636   3.470   2.256   4.588
 6601SOL    HW221637   3.378   2.152   4.648
 6602SOL     OW21638  12.066   7.253   6.608
 6602SOL    HW121639  12.108   7.187   6.554
 6602SOL    HW221640  11.999   7.291   6.551
 6603SOL     OW21641   0.863   3.556   5.254
 6603SOL    HW121642   0.773   3.590   5.257
 6603SOL    HW221643   0.853   3.462   5.271
 6604SOL     OW21644   8.239   1.916  14.073
 6604SOL    HW121645   8.276   1.865  14.001
 6604SOL    HW221646   8.310   1.921  14.137
 6605SOL     OW21647   3.912   2.271   8.030
 6605SOL    HW121648   3.921   2.217   8.108
 6605SOL    HW221649   3.923   2.210   7.957
 6606SOL     OW21650   0.397   9.485   1.256
 6606SOL    HW121651   0.322   9.480   1.197
 6606SOL    HW221652   0.447   9.405   1.239
 6607SOL     OW21653   4.659  12.589   2.257
 6607SOL    HW121654   4.726  12.611   2.321
 6607SOL    HW221655   4.693  12.511   2.213
 6608SOL     OW21656   2.738   6.181   6.898
 6608SOL    HW121657   2.739   6.137   6.813
 6608SOL    HW221658   2.815   6.146   6.943
 6609SOL     OW21659   3.213   9.474   6.469
 6609SOL    HW121660   3.269   9.484   6.392
 6609SOL    HW221661   3.164   9.556   6.474
 6610SOL     OW21662   9.960   0.967   9.966
 6610SOL    HW121663   9.968   0.941  10.058
 6610SOL    HW221664   9.887   1.028   9.964
 6611SOL     OW21665   7.402  11.346   4.556
 6611SOL    HW121666   7.330  11.393   4.515
 6611SOL    HW221667   7.424  11.275   4.495
 6612SOL     OW21668   5.512  11.033   3.507
 6612SOL    HW121669   5.526  11.102   3.443
 6612SOL    HW221670   5.598  10.994   3.521
 6613SOL     OW21671   1.961  10.555   9.417
 6613SOL    HW121672   1.946  10.622   9.484
 6613SOL    HW221673   1.875  10.539   9.379
 6614SOL     OW21674   6.338   0.532  12.138
 6614SOL    HW121675   6.264   0.473  12.153
 6614SOL    HW221676   6.415   0.481  12.160
 6615SOL     OW21677  14.473   3.904   7.003
 6615SOL    HW121678  14.555   3.877   6.961
 6615SOL    HW221679  14.464   3.845   7.078
 6616SOL     OW21680   2.181   3.436   4.851
 6616SOL    HW121681   2.263   3.485   4.849
 6616SOL    HW221682   2.125   3.487   4.909
 6617SOL     OW21683   3.751   2.595   5.623
 6617SOL    HW121684   3.748   2.588   5.718
 6617SOL    HW221685   3.810   2.524   5.596
 6618SOL     OW21686   2.511  14.005   5.097
 6618SOL    HW121687   2.439  13.985   5.156
 6618SOL    HW221688   2.509  13.935   5.031
 6619SOL     OW21689   2.338   2.651   7.360
 6619SOL    HW121690   2.273   2.688   7.301
 6619SOL    HW221691   2.333   2.556   7.346
 6620SOL     OW21692   6.292  13.715   9.721
 6620SOL    HW121693   6.207  13.671   9.718
 6620SOL    HW221694   6.314  13.730   9.628
 6621SOL     OW21695   2.673   7.480   6.242
 6621SOL    HW121696   2.755   7.451   6.202
 6621SOL    HW221697   2.605   7.450   6.182
 6622SOL     OW21698   0.039   3.215  12.197
 6622SOL    HW121699   0.101   3.280  12.163
 6622SOL    HW221700   0.017   3.247  12.285
 6623SOL     OW21701  13.521   7.119  14.534
 6623SOL    HW121702  13.511   7.205  14.574
 6623SOL    HW221703  13.595   7.129  14.474
 6624SOL     OW21704  13.647  10.556   9.191
 6624SOL    HW121705  13.709  10.510   9.135
 6624SOL    HW221706  13.676  10.535   9.280
 6625SOL     OW21707   6.099   6.157   8.347
 6625SOL    HW121708   6.153   6.181   8.272
 6625SOL    HW221709   6.149   6.088   8.391
 6626SOL     OW21710   4.999   4.059   2.189
 6626SOL    HW121711   5.064   4.129   2.185
 6626SOL    HW221712   5.023   4.000   2.117
 6627SOL     OW21713   4.507  11.309   8.379
 6627SOL    HW121714   4.570  11.378   8.360
 6627SOL    HW221715   4.511  11.251   8.303
 6628SOL     OW21716   0.116   2.808  11.802
 6628SOL    HW121717   0.192   2.844  11.755
 6628SOL    HW221718   0.043   2.863  11.775
 6629SOL     OW21719  12.913   4.195   6.236
 6629SOL    HW121720  12.921   4.197   6.332
 6629SOL    HW221721  12.849   4.263   6.216
 6630SOL     OW21722  10.828  10.392   5.047
 6630SOL    HW121723  10.884  10.462   5.014
 6630SOL    HW221724  10.805  10.419   5.136
 6631SOL     OW21725   5.766  10.613   3.015
 6631SOL    HW121726   5.726  10.548   3.072
 6631SOL    HW221727   5.693  10.654   2.969
 6632SOL     OW21728   7.430  13.737   6.794
 6632SOL    HW121729   7.384  13.655   6.776
 6632SOL    HW221730   7.368  13.805   6.766
 6633SOL     OW21731   4.847  12.531   9.864
 6633SOL    HW121732   4.783  12.602   9.857
 6633SOL    HW221733   4.919  12.569   9.914
 6634SOL     OW21734   4.300  13.046  13.238
 6634SOL    HW121735   4.312  13.053  13.333
 6634SOL    HW221736   4.371  12.989  13.208
 6635SOL     OW21737   1.247  10.648   5.124
 6635SOL    HW121738   1.241  10.564   5.078
 6635SOL    HW221739   1.193  10.636   5.202
 6636SOL     OW21740   5.521   6.987   8.820
 6636SOL    HW121741   5.454   7.055   8.820
 6636SOL    HW221742   5.475   6.907   8.845
 6637SOL     OW21743  14.786  13.589  10.701
 6637SOL    HW121744  14.759  13.539  10.778
 6637SOL    HW221745  14.869  13.551  10.675
 6638SOL     OW21746   4.676  14.271   4.045
 6638SOL    HW121747   4.649  14.355   4.083
 6638SOL    HW221748   4.602  14.213   4.063
 6639SOL     OW21749   4.884  12.664   8.937
 6639SOL    HW121750   4.947  12.725   8.899
 6639SOL    HW221751   4.893  12.584   8.885
 6640SOL     OW21752   5.399   1.050   2.760
 6640SOL    HW121753   5.492   1.029   2.751
 6640SOL    HW221754   5.369   1.067   2.671
 6641SOL     OW21755  14.013   3.120  13.148
 6641SOL    HW121756  13.987   3.193  13.092
 6641SOL    HW221757  14.084   3.077  13.101
 6642SOL     OW21758   2.403   3.562   9.884
 6642SOL    HW121759   2.365   3.510   9.813
 6642SOL    HW221760   2.342   3.635   9.895
 6643SOL     OW21761   1.716   5.138  13.992
 6643SOL    HW121762   1.696   5.196  13.918
 6643SOL    HW221763   1.791   5.087  13.963
 6644SOL     OW21764   4.486   8.519   7.996
 6644SOL    HW121765   4.531   8.449   8.044
 6644SOL    HW221766   4.522   8.513   7.907
 6645SOL     OW21767   7.623  13.468  12.223
 6645SOL    HW121768   7.613  13.445  12.131
 6645SOL    HW221769   7.717  13.473  12.237
 6646SOL     OW21770   2.981  12.447  10.997
 6646SOL    HW121771   3.067  12.467  10.960
 6646SOL    HW221772   2.929  12.418  10.922
 6647SOL     OW21773  10.670   9.298   6.767
 6647SOL    HW121774  10.592   9.316   6.820
 6647SOL    HW221775  10.656   9.209   6.733
 6648SOL     OW21776   1.151   5.236   5.522
 6648SOL    HW121777   1.229   5.184   5.505
 6648SOL    HW221778   1.140   5.290   5.444
 6649SOL     OW21779  11.210   4.546   2.437
 6649SOL    HW121780  11.228   4.522   2.528
 6649SOL    HW221781  11.269   4.619   2.418
 6650SOL     OW21782  10.448   3.342  11.470
 6650SOL    HW121783  10.447   3.403  11.544
 6650SOL    HW221784  10.461   3.398  11.393
 6651SOL     OW21785   2.103  12.943   5.477
 6651SOL    HW121786   2.161  12.958   5.551
 6651SOL    HW221787   2.160  12.910   5.408
 6652SOL     OW21788   0.154  13.252   0.688
 6652SOL    HW121789   0.231  13.197   0.674
 6652SOL    HW221790   0.147  13.304   0.608
 6653SOL     OW21791  13.173  10.501   5.534
 6653SOL    HW121792  13.199  10.411   5.513
 6653SOL    HW221793  13.094  10.491   5.587
 6654SOL     OW21794  13.595   5.594   7.081
 6654SOL    HW121795  13.519   5.536   7.085
 6654SOL    HW221796  13.609   5.610   6.988
 6655SOL     OW21797   4.711   5.474  13.832
 6655SOL    HW121798   4.670   5.473  13.746
 6655SOL    HW221799   4.640   5.450  13.892
 6656SOL     OW21800   4.468  11.256   4.424
 6656SOL    HW121801   4.402  11.255   4.493
 6656SOL    HW221802   4.529  11.325   4.450
 6657SOL     OW21803   1.535  12.893   9.640
 6657SOL    HW121804   1.519  12.986   9.627
 6657SOL    HW221805   1.450  12.857   9.667
 6658SOL     OW21806   3.398  11.037   5.509
 6658SOL    HW121807   3.493  11.046   5.499
 6658SOL    HW221808   3.363  11.066   5.425
 6659SOL     OW21809   7.350   0.403   7.955
 6659SOL    HW121810   7.255   0.400   7.964
 6659SOL    HW221811   7.366   0.464   7.884
 6660SOL     OW21812   0.397   8.638   8.053
 6660SOL    HW121813   0.477   8.617   8.100
 6660SOL    HW221814   0.380   8.562   7.998
 6661SOL     OW21815  11.527   3.361  11.372
 6661SOL    HW121816  11.468   3.418  11.421
 6661SOL    HW221817  11.536   3.403  11.287
 6662SOL     OW21818   9.888   6.150  11.116
 6662SOL    HW121819   9.971   6.160  11.163
 6662SOL    HW221820   9.909   6.175  11.026
 6663SOL     OW21821  14.638  14.588   8.573
 6663SOL    HW121822  14.724  14.553   8.597
 6663SOL    HW221823  14.647  14.683   8.581
 6664SOL     OW21824  14.608   9.953  10.561
 6664SOL    HW121825  14.659  10.008  10.621
 6664SOL    HW221826  14.673   9.914  10.503
 6665SOL     OW21827  14.425   3.075  12.100
 6665SOL    HW121828  14.360   3.130  12.056
 6665SOL    HW221829  14.510   3.113  12.075
 6666SOL     OW21830   5.470   5.073  12.617
 6666SOL    HW121831   5.522   5.131  12.561
 6666SOL    HW221832   5.387   5.118  12.628
 6667SOL     OW21833   4.759   1.644  13.824
 6667SOL    HW121834   4.705   1.723  13.823
 6667SOL    HW221835   4.701   1.576  13.860
 6668SOL     OW21836  12.695   8.497  14.050
 6668SOL    HW121837  12.611   8.454  14.063
 6668SOL    HW221838  12.740   8.488  14.134
 6669SOL     OW21839   1.721  13.863  14.421
 6669SOL    HW121840   1.720  13.955  14.448
 6669SOL    HW221841   1.722  13.814  14.504
 6670SOL     OW21842   7.266   4.749   3.219
 6670SOL    HW121843   7.301   4.713   3.301
 6670SOL    HW221844   7.337   4.804   3.185
 6671SOL     OW21845   6.819   4.793  12.613
 6671SOL    HW121846   6.789   4.710  12.649
 6671SOL    HW221847   6.741   4.835  12.579
 6672SOL     OW21848   2.895  13.339  10.917
 6672SOL    HW121849   2.899  13.285  10.996
 6672SOL    HW221850   2.824  13.302  10.865
 6673SOL     OW21851   1.330   2.523   4.536
 6673SOL    HW121852   1.399   2.492   4.477
 6673SOL    HW221853   1.349   2.617   4.547
 6674SOL     OW21854   6.101  10.634   8.053
 6674SOL    HW121855   6.120  10.662   7.963
 6674SOL    HW221856   6.113  10.539   8.051
 6675SOL     OW21857  11.968   4.998   0.008
 6675SOL    HW121858  11.900   4.942  14.851
 6675SOL    HW221859  11.938   5.018   0.097
 6676SOL     OW21860   2.112   0.696   3.017
 6676SOL    HW121861   2.146   0.651   3.095
 6676SOL    HW221862   2.017   0.702   3.033
 6677SOL     OW21863  11.346  11.798   5.847
 6677SOL    HW121864  11.317  11.766   5.932
 6677SOL    HW221865  11.391  11.881   5.867
 6678SOL     OW21866   1.630  12.544  12.811
 6678SOL    HW121867   1.570  12.585  12.748
 6678SOL    HW221868   1.639  12.609  12.881
 6679SOL     OW21869  13.222  10.418  10.679
 6679SOL    HW121870  13.228  10.381  10.767
 6679SOL    HW221871  13.292  10.375  10.630
 6680SOL     OW21872   6.529   5.115   5.291
 6680SOL    HW121873   6.520   5.146   5.382
 6680SOL    HW221874   6.619   5.081   5.287
 6681SOL     OW21875   2.984   6.759  14.034
 6681SOL    HW121876   3.061   6.799  14.075
 6681SOL    HW221877   2.956   6.823  13.967
 6682SOL     OW21878   2.165   6.973   2.020
 6682SOL    HW121879   2.171   6.980   2.116
 6682SOL    HW221880   2.149   7.062   1.990
 6683SOL     OW21881  14.313   7.946   8.547
 6683SOL    HW121882  14.290   7.853   8.539
 6683SOL    HW221883  14.377   7.962   8.478
 6684SOL     OW21884  12.232  14.104   0.614
 6684SOL    HW121885  12.249  14.079   0.523
 6684SOL    HW221886  12.156  14.051   0.640
 6685SOL     OW21887   2.716   8.283   5.069
 6685SOL    HW121888   2.711   8.370   5.108
 6685SOL    HW221889   2.746   8.298   4.980
 6686SOL     OW21890   0.518   0.879  12.078
 6686SOL    HW121891   0.595   0.906  12.130
 6686SOL    HW221892   0.552   0.813  12.017
 6687SOL     OW21893  11.691   1.575  10.249
 6687SOL    HW121894  11.653   1.515  10.314
 6687SOL    HW221895  11.769   1.611  10.292
 6688SOL     OW21896   1.548   4.563   9.816
 6688SOL    HW121897   1.586   4.486   9.859
 6688SOL    HW221898   1.553   4.632   9.882
 6689SOL     OW21899  12.046   2.903   2.747
 6689SOL    HW121900  11.974   2.906   2.684
 6689SOL    HW221901  12.123   2.881   2.694
 6690SOL     OW21902  13.241   1.250  12.137
 6690SOL    HW121903  13.312   1.262  12.200
 6690SOL    HW221904  13.199   1.168  12.163
 6691SOL     OW21905  10.403  14.080  11.666
 6691SOL    HW121906  10.453  14.133  11.604
 6691SOL    HW221907  10.403  13.992  11.627
 6692SOL     OW21908  13.782   0.086   7.117
 6692SOL    HW121909  13.806   0.111   7.207
 6692SOL    HW221910  13.804  14.871   7.112
 6693SOL     OW21911   4.831   0.278  11.148
 6693SOL    HW121912   4.838   0.309  11.238
 6693SOL    HW221913   4.863   0.352  11.095
 6694SOL     OW21914   6.286   3.281   1.438
 6694SOL    HW121915   6.227   3.209   1.461
 6694SOL    HW221916   6.359   3.272   1.500
 6695SOL     OW21917   7.837  10.553   1.138
 6695SOL    HW121918   7.792  10.490   1.081
 6695SOL    HW221919   7.909  10.503   1.176
 6696SOL     OW21920   8.912  12.897   5.824
 6696SOL    HW121921   8.996  12.926   5.861
 6696SOL    HW221922   8.922  12.908   5.730
 6697SOL     OW21923   6.734   7.622  13.982
 6697SOL    HW121924   6.689   7.538  13.977
 6697SOL    HW221925   6.681   7.673  14.043
 6698SOL     OW21926   2.431   0.198   7.749
 6698SOL    HW121927   2.381   0.263   7.798
 6698SOL    HW221928   2.366   0.155   7.693
 6699SOL     OW21929   1.801   4.095   2.880
 6699SOL    HW121930   1.883   4.136   2.856
 6699SOL    HW221931   1.792   4.022   2.818
 6700SOL     OW21932   4.096   8.327  12.908
 6700SOL    HW121933   4.055   8.259  12.961
 6700SOL    HW221934   4.078   8.408  12.954
 6701SOL     OW21935  13.781   4.717  12.788
 6701SOL    HW121936  13.772   4.794  12.844
 6701SOL    HW221937  13.773   4.643  12.848
 6702SOL     OW21938   5.788  11.489   5.914
 6702SOL    HW121939   5.860  11.426   5.906
 6702SOL    HW221940   5.820  11.567   5.867
 6703SOL     OW21941  13.817  13.499   4.354
 6703SOL    HW121942  13.748  13.556   4.389
 6703SOL    HW221943  13.883  13.559   4.320
 6704SOL     OW21944  11.278   7.568  10.619
 6704SOL    HW121945  11.339   7.588  10.547
 6704SOL    HW221946  11.191   7.578  10.580
 6705SOL     OW21947   0.375   5.780   5.782
 6705SOL    HW121948   0.296   5.813   5.739
 6705SOL    HW221949   0.441   5.846   5.765
 6706SOL     OW21950  14.533   4.311   9.610
 6706SOL    HW121951  14.612   4.359   9.633
 6706SOL    HW221952  14.498   4.357   9.534
 6707SOL     OW21953  12.981   1.294   4.134
 6707SOL    HW121954  12.919   1.341   4.078
 6707SOL    HW221955  13.040   1.362   4.167
 6708SOL     OW21956  11.887   0.182   0.441
 6708SOL    HW121957  11.901   0.120   0.369
 6708SOL    HW221958  11.874   0.128   0.518
 6709SOL     OW21959   3.994   0.457   3.890
 6709SOL    HW121960   3.933   0.433   3.820
 6709SOL    HW221961   4.060   0.512   3.846
 6710SOL     OW21962  10.974  12.387  10.301
 6710SOL    HW121963  10.930  12.414  10.382
 6710SOL    HW221964  10.978  12.292  10.306
 6711SOL     OW21965   2.854   8.848   5.418
 6711SOL    HW121966   2.842   8.758   5.388
 6711SOL    HW221967   2.817   8.849   5.506
 6712SOL     OW21968   8.438   8.687  12.244
 6712SOL    HW121969   8.363   8.726  12.198
 6712SOL    HW221970   8.444   8.598  12.210
 6713SOL     OW21971   7.317  10.548   9.569
 6713SOL    HW121972   7.226  10.518   9.561
 6713SOL    HW221973   7.354  10.493   9.638
 6714SOL     OW21974   4.463   8.069   4.852
 6714SOL    HW121975   4.492   8.139   4.910
 6714SOL    HW221976   4.508   8.087   4.769
 6715SOL     OW21977  13.938   0.473  11.988
 6715SOL    HW121978  13.987   0.423  11.922
 6715SOL    HW221979  13.852   0.485  11.949
 6716SOL     OW21980   3.361  13.277  12.957
 6716SOL    HW121981   3.403  13.330  12.889
 6716SOL    HW221982   3.419  13.202  12.968
 6717SOL     OW21983   6.546  10.539  13.827
 6717SOL    HW121984   6.551  10.617  13.882
 6717SOL    HW221985   6.597  10.561  13.749
 6718SOL     OW21986   6.799  10.689   2.490
 6718SOL    HW121987   6.720  10.722   2.446
 6718SOL    HW221988   6.778  10.694   2.583
 6719SOL     OW21989   3.892   3.485  14.319
 6719SOL    HW121990   3.881   3.397  14.358
 6719SOL    HW221991   3.854   3.544  14.384
 6720SOL     OW21992   4.457  13.425   8.480
 6720SOL    HW121993   4.425  13.503   8.525
 6720SOL    HW221994   4.552  13.428   8.493
 6721SOL     OW21995   9.701   2.185  11.153
 6721SOL    HW121996   9.775   2.126  11.167
 6721SOL    HW221997   9.636   2.131  11.107
 6722SOL     OW21998   5.843   1.467  12.392
 6722SOL    HW121999   5.813   1.387  12.434
 6722SOL    HW222000   5.932   1.447  12.362
 6723SOL     OW22001  11.729  14.695   8.597
 6723SOL    HW122002  11.666  14.624   8.590
 6723SOL    HW222003  11.690  14.756   8.659
 6724SOL     OW22004   6.972   9.788  12.050
 6724SOL    HW122005   7.052   9.788  11.997
 6724SOL    HW222006   6.913   9.847  12.004
 6725SOL     OW22007  12.365   7.488   6.835
 6725SOL    HW122008  12.275   7.455   6.840
 6725SOL    HW222009  12.370   7.551   6.907
 6726SOL     OW22010  10.088   4.316   8.164
 6726SOL    HW122011  10.154   4.247   8.164
 6726SOL    HW222012  10.064   4.328   8.256
 6727SOL     OW22013  10.086   7.126  10.377
 6727SOL    HW122014  10.050   7.084  10.455
 6727SOL    HW222015  10.039   7.209  10.371
 6728SOL     OW22016  12.414  10.828   2.048
 6728SOL    HW122017  12.458  10.849   1.966
 6728SOL    HW222018  12.470  10.763   2.090
 6729SOL     OW22019  14.281   4.864   6.277
 6729SOL    HW122020  14.251   4.941   6.326
 6729SOL    HW222021  14.298   4.798   6.345
 6730SOL     OW22022   1.296   9.632  10.212
 6730SOL    HW122023   1.365   9.698  10.213
 6730SOL    HW222024   1.233   9.664  10.146
 6731SOL     OW22025   8.081   3.219  10.008
 6731SOL    HW122026   8.070   3.307   9.971
 6731SOL    HW222027   8.026   3.163   9.953
 6732SOL     OW22028  10.161   1.159  13.260
 6732SOL    HW122029  10.233   1.099  13.242
 6732SOL    HW222030  10.148   1.207  13.178
 6733SOL     OW22031   1.330   0.904  14.223
 6733SOL    HW122032   1.244   0.876  14.193
 6733SOL    HW222033   1.329   0.891  14.318
 6734SOL     OW22034  11.941  10.872   6.880
 6734SOL    HW122035  11.920  10.898   6.970
 6734SOL    HW222036  11.977  10.952   6.840
 6735SOL     OW22037   4.798   7.264  11.421
 6735SOL    HW122038   4.842   7.229  11.344
 6735SOL    HW222039   4.869   7.291  11.479
 6736SOL     OW22040   6.815   7.059   9.477
 6736SOL    HW122041   6.815   7.122   9.405
 6736SOL    HW222042   6.874   7.097   9.542
 6737SOL     OW22043   5.997  10.437  14.826
 6737SOL    HW122044   6.072  10.465  14.774
 6737SOL    HW222045   6.012  10.344  14.842
 6738SOL     OW22046   7.282  13.009   8.478
 6738SOL    HW122047   7.239  12.931   8.512
 6738SOL    HW222048   7.245  13.022   8.392
 6739SOL     OW22049   4.099   4.760  10.965
 6739SOL    HW122050   4.098   4.669  10.994
 6739SOL    HW222051   4.088   4.811  11.045
 6740SOL     OW22052   5.776   2.447   6.880
 6740SOL    HW122053   5.827   2.449   6.799
 6740SOL    HW222054   5.695   2.401   6.856
 6741SOL     OW22055   2.036   5.872   1.488
 6741SOL    HW122056   2.038   5.952   1.541
 6741SOL    HW222057   1.973   5.891   1.419
 6742SOL     OW22058   9.788   7.440   1.597
 6742SOL    HW122059   9.809   7.495   1.672
 6742SOL    HW222060   9.718   7.486   1.551
 6743SOL     OW22061   9.639   3.069  11.714
 6743SOL    HW122062   9.578   2.999  11.734
 6743SOL    HW222063   9.616   3.140  11.774
 6744SOL     OW22064   4.056   8.449  13.738
 6744SOL    HW122065   3.981   8.492  13.698
 6744SOL    HW222066   4.128   8.510  13.727
 6745SOL     OW22067   8.307   0.491   0.218
 6745SOL    HW122068   8.241   0.560   0.225
 6745SOL    HW222069   8.376   0.530   0.165
 6746SOL     OW22070   5.283   4.541   8.748
 6746SOL    HW122071   5.289   4.456   8.793
 6746SOL    HW222072   5.209   4.585   8.790
 6747SOL     OW22073   1.263   2.058  11.061
 6747SOL    HW122074   1.268   1.984  11.122
 6747SOL    HW222075   1.196   2.115  11.099
 6748SOL     OW22076  10.569  12.326   8.562
 6748SOL    HW122077  10.490  12.324   8.509
 6748SOL    HW222078  10.538  12.314   8.652
 6749SOL     OW22079   5.514   4.875  11.307
 6749SOL    HW122080   5.493   4.786  11.336
 6749SOL    HW222081   5.505   4.872  11.212
 6750SOL     OW22082   1.790   1.514   0.613
 6750SOL    HW122083   1.796   1.491   0.520
 6750SOL    HW222084   1.783   1.429   0.657
 6751SOL     OW22085  12.636  13.177   2.436
 6751SOL    HW122086  12.635  13.224   2.520
 6751SOL    HW222087  12.604  13.241   2.372
 6752SOL     OW22088   1.058  12.836   1.708
 6752SOL    HW122089   0.998  12.786   1.762
 6752SOL    HW222090   1.145  12.805   1.732
 6753SOL     OW22091   3.159  10.048   5.474
 6753SOL    HW122092   3.154  10.128   5.526
 6753SOL    HW222093   3.250  10.020   5.482
 6754SOL     OW22094   3.125  13.503  14.167
 6754SOL    HW122095   3.096  13.537  14.252
 6754SOL    HW222096   3.219  13.489  14.179
 6755SOL     OW22097  13.281  10.862  11.133
 6755SOL    HW122098  13.334  10.898  11.203
 6755SOL    HW222099  13.210  10.816  11.177
 6756SOL     OW22100  10.331  12.553   8.747
 6756SOL    HW122101  10.401  12.599   8.792
 6756SOL    HW222102  10.250  12.595   8.778
 6757SOL     OW22103   2.586   1.082   5.523
 6757SOL    HW122104   2.590   1.012   5.588
 6757SOL    HW222105   2.493   1.102   5.514
 6758SOL     OW22106   3.582  14.647   2.562
 6758SOL    HW122107   3.562  14.604   2.479
 6758SOL    HW222108   3.527  14.725   2.563
 6759SOL     OW22109   2.655  13.935  11.550
 6759SOL    HW122110   2.612  13.882  11.483
 6759SOL    HW222111   2.733  13.969  11.507
 6760SOL     OW22112  14.850   5.062   6.371
 6760SOL    HW122113  14.794   5.087   6.298
 6760SOL    HW222114   0.007   5.144   6.405
 6761SOL     OW22115  11.813  10.721   9.032
 6761SOL    HW122116  11.891  10.681   8.992
 6761SOL    HW222117  11.825  10.706   9.126
 6762SOL     OW22118   1.031  10.255  13.054
 6762SOL    HW122119   1.024  10.215  13.141
 6762SOL    HW222120   1.125  10.255  13.036
 6763SOL     OW22121   8.846   1.102   0.458
 6763SOL    HW122122   8.832   1.021   0.508
 6763SOL    HW222123   8.924   1.140   0.496
 6764SOL     OW22124   8.020   4.435  13.742
 6764SOL    HW122125   8.100   4.454  13.693
 6764SOL    HW222126   8.039   4.462  13.832
 6765SOL     OW22127   4.195  12.131   8.166
 6765SOL    HW122128   4.286  12.130   8.196
 6765SOL    HW222129   4.200  12.110   8.073
 6766SOL     OW22130   0.601   2.672   6.577
 6766SOL    HW122131   0.676   2.677   6.517
 6766SOL    HW222132   0.640   2.670   6.664
 6767SOL     OW22133  13.228   2.781   3.637
 6767SOL    HW122134  13.275   2.862   3.620
 6767SOL    HW222135  13.238   2.731   3.556
 6768SOL     OW22136  10.292  12.319  13.717
 6768SOL    HW122137  10.201  12.343  13.698
 6768SOL    HW222138  10.297  12.225  13.699
 6769SOL     OW22139   7.347  10.027   9.358
 6769SOL    HW122140   7.262   9.991   9.385
 6769SOL    HW222141   7.365  10.095   9.423
 6770SOL     OW22142   0.341   2.073   8.640
 6770SOL    HW122143   0.314   2.141   8.702
 6770SOL    HW222144   0.417   2.032   8.682
 6771SOL     OW22145  10.970   5.234   9.561
 6771SOL    HW122146  10.927   5.163   9.609
 6771SOL    HW222147  11.049   5.194   9.523
 6772SOL     OW22148   6.211   0.688   6.695
 6772SOL    HW122149   6.194   0.738   6.775
 6772SOL    HW222150   6.306   0.699   6.681
 6773SOL     OW22151   6.149  13.819  12.917
 6773SOL    HW122152   6.134  13.794  12.826
 6773SOL    HW222153   6.069  13.793  12.962
 6774SOL     OW22154   5.915  12.883   2.638
 6774SOL    HW122155   5.943  12.865   2.727
 6774SOL    HW222156   5.861  12.962   2.645
 6775SOL     OW22157   6.639   2.883  13.197
 6775SOL    HW122158   6.694   2.961  13.207
 6775SOL    HW222159   6.578   2.906  13.127
 6776SOL     OW22160   2.066   3.398  14.316
 6776SOL    HW122161   2.104   3.320  14.276
 6776SOL    HW222162   2.110   3.406  14.400
 6777SOL     OW22163   5.088   2.171  10.088
 6777SOL    HW122164   5.105   2.078  10.102
 6777SOL    HW222165   5.080   2.207  10.177
 6778SOL     OW22166   8.050   1.577  11.561
 6778SOL    HW122167   7.983   1.513  11.535
 6778SOL    HW222168   8.103   1.530  11.626
 6779SOL     OW22169   6.355  10.757  14.277
 6779SOL    HW122170   6.304  10.783  14.354
 6779SOL    HW222171   6.389  10.671  14.299
 6780SOL     OW22172  14.590   1.990   5.390
 6780SOL    HW122173  14.620   1.966   5.303
 6780SOL    HW222174  14.642   2.067   5.413
 6781SOL     OW22175   5.863   1.903  14.703
 6781SOL    HW122176   5.851   1.998  14.699
 6781SOL    HW222177   5.893   1.887  14.793
 6782SOL     OW22178   6.239   6.885   9.249
 6782SOL    HW122179   6.290   6.807   9.272
 6782SOL    HW222180   6.187   6.903   9.327
 6783SOL     OW22181   9.724  10.531   3.340
 6783SOL    HW122182   9.736  10.624   3.359
 6783SOL    HW222183   9.644  10.528   3.287
 6784SOL     OW22184   4.975  11.457  11.159
 6784SOL    HW122185   5.013  11.372  11.138
 6784SOL    HW222186   4.931  11.443  11.244
 6785SOL     OW22187   7.917   0.156  10.387
 6785SOL    HW122188   7.845   0.155  10.324
 6785SOL    HW222189   7.895   0.086  10.449
 6786SOL     OW22190  13.149  12.707  10.131
 6786SOL    HW122191  13.093  12.645  10.083
 6786SOL    HW222192  13.100  12.789  10.131
 6787SOL     OW22193  14.043   8.097   5.640
 6787SOL    HW122194  13.954   8.099   5.675
 6787SOL    HW222195  14.031   8.081   5.546
 6788SOL     OW22196   1.690  11.647   9.745
 6788SOL    HW122197   1.693  11.596   9.664
 6788SOL    HW222198   1.600  11.640   9.774
 6789SOL     OW22199   3.709   3.099  13.787
 6789SOL    HW122200   3.698   3.055  13.703
 6789SOL    HW222201   3.625   3.140  13.804
 6790SOL     OW22202   5.979   1.620   1.780
 6790SOL    HW122203   5.912   1.551   1.777
 6790SOL    HW222204   5.967   1.666   1.697
 6791SOL     OW22205   2.128   8.840   3.004
 6791SOL    HW122206   2.166   8.893   2.935
 6791SOL    HW222207   2.189   8.848   3.077
 6792SOL     OW22208  12.201   5.950   4.891
 6792SOL    HW122209  12.174   6.041   4.902
 6792SOL    HW222210  12.146   5.901   4.952
 6793SOL     OW22211  13.757  10.776  14.098
 6793SOL    HW122212  13.707  10.709  14.145
 6793SOL    HW222213  13.717  10.778  14.011
 6794SOL     OW22214   8.030  10.876  12.126
 6794SOL    HW122215   7.975  10.941  12.084
 6794SOL    HW222216   8.110  10.922  12.148
 6795SOL     OW22217   8.673  13.047   1.300
 6795SOL    HW122218   8.686  13.134   1.262
 6795SOL    HW222219   8.671  12.988   1.224
 6796SOL     OW22220   2.820   9.627   8.291
 6796SOL    HW122221   2.801   9.540   8.325
 6796SOL    HW222222   2.916   9.630   8.285
 6797SOL     OW22223   2.928   9.525  14.414
 6797SOL    HW122224   3.013   9.487  14.391
 6797SOL    HW222225   2.946   9.581  14.489
 6798SOL     OW22226   6.067   2.127   7.223
 6798SOL    HW122227   6.108   2.050   7.184
 6798SOL    HW222228   6.012   2.162   7.153
 6799SOL     OW22229   3.216   4.826   4.406
 6799SOL    HW122230   3.249   4.825   4.316
 6799SOL    HW222231   3.124   4.804   4.399
 6800SOL     OW22232  13.077  11.482  13.646
 6800SOL    HW122233  13.076  11.423  13.721
 6800SOL    HW222234  13.040  11.431  13.574
 6801SOL     OW22235   9.596   4.405  14.730
 6801SOL    HW122236   9.501   4.412  14.722
 6801SOL    HW222237   9.623   4.484  14.777
 6802SOL     OW22238   0.466   0.683   8.828
 6802SOL    HW122239   0.539   0.733   8.791
 6802SOL    HW222240   0.396   0.691   8.762
 6803SOL     OW22241   8.114   7.191   2.848
 6803SOL    HW122242   8.021   7.213   2.846
 6803SOL    HW222243   8.127   7.148   2.932
 6804SOL     OW22244   0.707   4.711   9.623
 6804SOL    HW122245   0.796   4.742   9.604
 6804SOL    HW222246   0.720   4.627   9.667
 6805SOL     OW22247  11.806   0.327  11.125
 6805SOL    HW122248  11.787   0.243  11.083
 6805SOL    HW222249  11.733   0.341  11.184
 6806SOL     OW22250  14.021   7.798  12.666
 6806SOL    HW122251  13.936   7.763  12.695
 6806SOL    HW222252  14.002   7.890  12.645
 6807SOL     OW22253   9.690  13.918  12.401
 6807SOL    HW122254   9.732  13.902  12.485
 6807SOL    HW222255   9.723  13.849  12.344
 6808SOL     OW22256   8.409   6.986  11.459
 6808SOL    HW122257   8.461   6.906  11.445
 6808SOL    HW222258   8.345   6.985  11.388
 6809SOL     OW22259   4.038   8.766   3.504
 6809SOL    HW122260   4.123   8.722   3.510
 6809SOL    HW222261   4.057   8.857   3.527
 6810SOL     OW22262   6.168   2.909   1.721
 6810SOL    HW122263   6.154   2.956   1.802
 6810SOL    HW222264   6.252   2.865   1.732
 6811SOL     OW22265   1.491  11.476   1.375
 6811SOL    HW122266   1.569  11.427   1.401
 6811SOL    HW222267   1.521  11.533   1.305
 6812SOL     OW22268   7.584   1.751  11.296
 6812SOL    HW122269   7.511   1.813  11.297
 6812SOL    HW222270   7.642   1.782  11.366
 6813SOL     OW22271   4.987   7.352   1.519
 6813SOL    HW122272   4.984   7.324   1.611
 6813SOL    HW222273   5.001   7.271   1.470
 6814SOL     OW22274   9.363  13.844   6.892
 6814SOL    HW122275   9.428  13.845   6.821
 6814SOL    HW222276   9.316  13.761   6.880
 6815SOL     OW22277   5.517   4.319  14.294
 6815SOL    HW122278   5.491   4.327  14.202
 6815SOL    HW222279   5.518   4.225  14.311
 6816SOL     OW22280  12.471  13.974   2.062
 6816SOL    HW122281  12.491  13.978   2.156
 6816SOL    HW222282  12.419  14.053   2.046
 6817SOL     OW22283  12.628   3.727  13.045
 6817SOL    HW122284  12.580   3.784  12.985
 6817SOL    HW222285  12.661   3.786  13.113
 6818SOL     OW22286   4.801   9.864   7.620
 6818SOL    HW122287   4.888   9.874   7.656
 6818SOL    HW222288   4.752   9.816   7.687
 6819SOL     OW22289  10.107   1.736   4.476
 6819SOL    HW122290  10.032   1.722   4.534
 6819SOL    HW222291  10.071   1.723   4.388
 6820SOL     OW22292  12.363   7.755   9.072
 6820SOL    HW122293  12.356   7.773   8.979
 6820SOL    HW222294  12.456   7.765   9.092
 6821SOL     OW22295   8.786   3.979   8.827
 6821SOL    HW122296   8.720   3.985   8.759
 6821SOL    HW222297   8.848   4.049   8.807
 6822SOL     OW22298   9.698  12.922   5.057
 6822SOL    HW122299   9.647  12.844   5.079
 6822SOL    HW222300   9.786  12.889   5.039
 6823SOL     OW22301   8.404  13.790  11.727
 6823SOL    HW122302   8.310  13.776  11.711
 6823SOL    HW222303   8.406  13.860  11.793
 6824SOL     OW22304  10.323   9.708   2.732
 6824SOL    HW122305  10.358   9.621   2.713
 6824SOL    HW222306  10.228   9.697   2.730
 6825SOL     OW22307   9.644   0.720   2.079
 6825SOL    HW122308   9.549   0.718   2.089
 6825SOL    HW222309   9.678   0.707   2.168
 6826SOL     OW22310   7.043   4.614   1.216
 6826SOL    HW122311   7.090   4.600   1.299
 6826SOL    HW222312   7.097   4.569   1.150
 6827SOL     OW22313   7.225  12.067   0.487
 6827SOL    HW122314   7.190  12.015   0.559
 6827SOL    HW222315   7.268  12.002   0.430
 6828SOL     OW22316   5.102  10.544  11.988
 6828SOL    HW122317   5.140  10.476  11.933
 6828SOL    HW222318   5.087  10.618  11.929
 6829SOL     OW22319   7.177   2.292   9.571
 6829SOL    HW122320   7.105   2.231   9.582
 6829SOL    HW222321   7.250   2.238   9.542
 6830SOL     OW22322   9.856   5.467   5.530
 6830SOL    HW122323   9.863   5.481   5.435
 6830SOL    HW222324   9.779   5.518   5.556
 6831SOL     OW22325   8.662   5.209   9.405
 6831SOL    HW122326   8.685   5.134   9.460
 6831SOL    HW222327   8.609   5.172   9.335
 6832SOL     OW22328   2.977  10.550   3.809
 6832SOL    HW122329   3.017  10.464   3.825
 6832SOL    HW222330   2.983  10.595   3.893
 6833SOL     OW22331  13.118   8.619   7.950
 6833SOL    HW122332  13.048   8.603   7.886
 6833SOL    HW222333  13.089   8.696   7.999
 6834SOL     OW22334  13.074   8.355   5.853
 6834SOL    HW122335  13.165   8.384   5.866
 6834SOL    HW222336  13.023   8.435   5.862
 6835SOL     OW22337   7.644  10.140  10.551
 6835SOL    HW122338   7.570  10.199  10.566
 6835SOL    HW222339   7.640  10.120  10.457
 6836SOL     OW22340   9.063   9.662  11.447
 6836SOL    HW122341   8.993   9.642  11.510
 6836SOL    HW222342   9.143   9.657  11.499
 6837SOL     OW22343  13.550   2.867   7.062
 6837SOL    HW122344  13.487   2.807   7.101
 6837SOL    HW222345  13.635   2.831   7.085
 6838SOL     OW22346   9.795  14.310   7.603
 6838SOL    HW122347   9.793  14.240   7.668
 6838SOL    HW222348   9.710  14.306   7.560
 6839SOL     OW22349  11.097   1.001   6.705
 6839SOL    HW122350  11.056   1.052   6.775
 6839SOL    HW222351  11.190   1.015   6.717
 6840SOL     OW22352  13.515   3.610  13.956
 6840SOL    HW122353  13.470   3.597  14.039
 6840SOL    HW222354  13.572   3.685  13.971
 6841SOL     OW22355   1.326  11.428   4.221
 6841SOL    HW122356   1.359  11.512   4.190
 6841SOL    HW222357   1.364  11.364   4.160
 6842SOL     OW22358   5.607   0.084   9.862
 6842SOL    HW122359   5.692   0.083   9.819
 6842SOL    HW222360   5.568   0.167   9.836
 6843SOL     OW22361   6.691   9.786  12.714
 6843SOL    HW122362   6.781   9.820  12.715
 6843SOL    HW222363   6.640   9.855  12.673
 6844SOL     OW22364   4.626   4.808   3.901
 6844SOL    HW122365   4.549   4.753   3.891
 6844SOL    HW222366   4.608   4.885   3.848
 6845SOL     OW22367   9.308  13.913   2.015
 6845SOL    HW122368   9.331  13.932   2.106
 6845SOL    HW222369   9.298  13.818   2.013
 6846SOL     OW22370   2.237  10.164   0.790
 6846SOL    HW122371   2.269  10.238   0.738
 6846SOL    HW222372   2.143  10.179   0.797
 6847SOL     OW22373   3.273   0.416   5.796
 6847SOL    HW122374   3.222   0.335   5.793
 6847SOL    HW222375   3.342   0.398   5.860
 6848SOL     OW22376  12.539   3.069   8.253
 6848SOL    HW122377  12.448   3.098   8.242
 6848SOL    HW222378  12.546   3.048   8.346
 6849SOL     OW22379   8.384   8.596   8.065
 6849SOL    HW122380   8.304   8.577   8.114
 6849SOL    HW222381   8.354   8.634   7.983
 6850SOL     OW22382   3.965   4.323  10.263
 6850SOL    HW122383   3.878   4.337  10.301
 6850SOL    HW222384   3.952   4.256  10.196
 6851SOL     OW22385   9.815   0.354  11.931
 6851SOL    HW122386   9.900   0.351  11.887
 6851SOL    HW222387   9.827   0.418  12.001
 6852SOL     OW22388   4.038   2.190   5.120
 6852SOL    HW122389   4.036   2.264   5.060
 6852SOL    HW222390   4.108   2.212   5.182
 6853SOL     OW22391   9.357   8.227  10.905
 6853SOL    HW122392   9.423   8.167  10.871
 6853SOL    HW222393   9.387   8.247  10.993
 6854SOL     OW22394  14.170   4.896   3.641
 6854SOL    HW122395  14.207   4.918   3.556
 6854SOL    HW222396  14.209   4.811   3.662
 6855SOL     OW22397   5.666   1.074   9.271
 6855SOL    HW122398   5.630   1.159   9.246
 6855SOL    HW222399   5.760   1.083   9.261
 6856SOL     OW22400  12.787  10.678   9.352
 6856SOL    HW122401  12.819  10.602   9.305
 6856SOL    HW222402  12.704  10.700   9.308
 6857SOL     OW22403  12.111   2.076   2.437
 6857SOL    HW122404  12.144   1.991   2.408
 6857SOL    HW222405  12.017   2.062   2.450
 6858SOL     OW22406  10.563  14.572   1.310
 6858SOL    HW122407  10.621  14.586   1.385
 6858SOL    HW222408  10.476  14.561   1.348
 6859SOL     OW22409   3.187  11.237   7.835
 6859SOL    HW122410   3.146  11.255   7.750
 6859SOL    HW222411   3.276  11.273   7.826
 6860SOL     OW22412  10.921   6.275   1.640
 6860SOL    HW122413  10.845   6.220   1.662
 6860SOL    HW222414  10.923   6.274   1.544
 6861SOL     OW22415   2.271   2.895  14.208
 6861SOL    HW122416   2.263   2.824  14.144
 6861SOL    HW222417   2.364   2.915  14.210
 6862SOL     OW22418  13.003  13.001  11.547
 6862SOL    HW122419  12.971  12.938  11.482
 6862SOL    HW222420  13.030  12.947  11.621
 6863SOL     OW22421  12.047   9.836   1.675
 6863SOL    HW122422  12.063   9.756   1.625
 6863SOL    HW222423  12.134   9.875   1.686
 6864SOL     OW22424   0.697   4.391  12.725
 6864SOL    HW122425   0.747   4.437  12.658
 6864SOL    HW222426   0.673   4.459  12.788
 6865SOL     OW22427   9.461   7.256   0.798
 6865SOL    HW122428   9.482   7.348   0.780
 6865SOL    HW222429   9.544   7.209   0.788
 6866SOL     OW22430  13.588  11.387   6.527
 6866SOL    HW122431  13.626  11.433   6.451
 6866SOL    HW222432  13.528  11.451   6.566
 6867SOL     OW22433   2.993   0.845  14.397
 6867SOL    HW122434   3.015   0.816  14.486
 6867SOL    HW222435   2.949   0.770  14.357
 6868SOL     OW22436   1.113   4.164  11.829
 6868SOL    HW122437   1.203   4.142  11.852
 6868SOL    HW222438   1.070   4.183  11.913
 6869SOL     OW22439   9.768   9.634   5.116
 6869SOL    HW122440   9.797   9.553   5.075
 6869SOL    HW222441   9.847   9.670   5.157
 6870SOL     OW22442  14.375   5.626   2.740
 6870SOL    HW122443  14.376   5.629   2.644
 6870SOL    HW222444  14.467   5.622   2.764
 6871SOL     OW22445  13.730   2.542   8.915
 6871SOL    HW122446  13.677   2.593   8.975
 6871SOL    HW222447  13.813   2.590   8.909
 6872SOL     OW22448   1.045  10.124   8.692
 6872SOL    HW122449   0.960  10.168   8.683
 6872SOL    HW222450   1.096  10.181   8.749
 6873SOL     OW22451  14.361   5.433   5.090
 6873SOL    HW122452  14.281   5.466   5.131
 6873SOL    HW222453  14.331   5.392   5.009
 6874SOL     OW22454   8.829  13.647   9.252
 6874SOL    HW122455   8.791  13.733   9.233
 6874SOL    HW222456   8.907  13.642   9.196
 6875SOL     OW22457   0.264   9.314   7.294
 6875SOL    HW122458   0.200   9.252   7.329
 6875SOL    HW222459   0.322   9.261   7.239
 6876SOL     OW22460  14.144   5.770   6.268
 6876SOL    HW122461  14.223   5.778   6.213
 6876SOL    HW222462  14.073   5.797   6.210
 6877SOL     OW22463   0.873   3.652   3.174
 6877SOL    HW122464   0.952   3.662   3.228
 6877SOL    HW222465   0.899   3.683   3.088
 6878SOL     OW22466   0.582   7.882  10.831
 6878SOL    HW122467   0.675   7.894  10.811
 6878SOL    HW222468   0.550   7.969  10.854
 6879SOL     OW22469  14.151   6.113  11.079
 6879SOL    HW122470  14.089   6.068  11.136
 6879SOL    HW222471  14.235   6.072  11.097
 6880SOL     OW22472  12.904   6.286  11.827
 6880SOL    HW122473  12.904   6.258  11.735
 6880SOL    HW222474  12.837   6.354  11.831
 6881SOL     OW22475   2.713   9.226  13.297
 6881SOL    HW122476   2.794   9.256  13.255
 6881SOL    HW222477   2.678   9.304  13.339
 6882SOL     OW22478   6.423  11.374   8.276
 6882SOL    HW122479   6.466  11.458   8.294
 6882SOL    HW222480   6.398  11.341   8.363
 6883SOL     OW22481   4.832   8.348  10.812
 6883SOL    HW122482   4.749   8.368  10.769
 6883SOL    HW222483   4.831   8.404  10.890
 6884SOL     OW22484  10.641   8.736   0.390
 6884SOL    HW122485  10.668   8.828   0.396
 6884SOL    HW222486  10.545   8.740   0.382
 6885SOL     OW22487   8.072   6.078  12.374
 6885SOL    HW122488   8.059   6.097  12.467
 6885SOL    HW222489   8.086   5.983  12.370
 6886SOL     OW22490   4.455   5.600  14.061
 6886SOL    HW122491   4.465   5.507  14.080
 6886SOL    HW222492   4.370   5.607  14.019
 6887SOL     OW22493   5.316  12.833   1.572
 6887SOL    HW122494   5.388  12.770   1.576
 6887SOL    HW222495   5.291  12.836   1.479
 6888SOL     OW22496   4.156  14.698   6.379
 6888SOL    HW122497   4.248  14.711   6.355
 6888SOL    HW222498   4.152  14.722   6.472
 6889SOL     OW22499  13.459   3.763   4.168
 6889SOL    HW122500  13.389   3.795   4.110
 6889SOL    HW222501  13.512   3.840   4.187
 6890SOL     OW22502  14.542   1.325   7.521
 6890SOL    HW122503  14.549   1.404   7.468
 6890SOL    HW222504  14.593   1.344   7.600
 6891SOL     OW22505   5.316  12.178   5.610
 6891SOL    HW122506   5.404  12.166   5.574
 6891SOL    HW222507   5.261  12.194   5.534
 6892SOL     OW22508  12.285  10.325  11.556
 6892SOL    HW122509  12.343  10.254  11.531
 6892SOL    HW222510  12.248  10.356  11.473
 6893SOL     OW22511  14.660  10.455   6.803
 6893SOL    HW122512  14.671  10.411   6.887
 6893SOL    HW222513  14.567  10.477   6.799
 6894SOL     OW22514   2.547   3.612   0.791
 6894SOL    HW122515   2.606   3.687   0.787
 6894SOL    HW222516   2.546   3.587   0.883
 6895SOL     OW22517  13.088  11.941  12.608
 6895SOL    HW122518  13.069  11.859  12.655
 6895SOL    HW222519  13.113  12.002  12.677
 6896SOL     OW22520   3.518  10.070  11.119
 6896SOL    HW122521   3.591  10.096  11.175
 6896SOL    HW222522   3.440  10.102  11.164
 6897SOL     OW22523  11.941   0.080   1.433
 6897SOL    HW122524  11.980   0.083   1.520
 6897SOL    HW222525  12.000   0.134   1.379
 6898SOL     OW22526   4.488  12.848  11.354
 6898SOL    HW122527   4.513  12.765  11.313
 6898SOL    HW222528   4.550  12.859  11.426
 6899SOL     OW22529   4.990   9.249   4.526
 6899SOL    HW122530   4.908   9.231   4.573
 6899SOL    HW222531   5.029   9.322   4.574
 6900SOL     OW22532  14.612   3.269   4.674
 6900SOL    HW122533  14.624   3.206   4.602
 6900SOL    HW222534  14.621   3.355   4.632
 6901SOL     OW22535  12.028   9.799  10.381
 6901SOL    HW122536  12.122   9.816  10.373
 6901SOL    HW222537  12.007   9.824  10.471
 6902SOL     OW22538   2.763   0.913   2.272
 6902SOL    HW122539   2.832   0.959   2.224
 6902SOL    HW222540   2.718   0.860   2.206
 6903SOL     OW22541   0.674   8.985   2.937
 6903SOL    HW122542   0.725   8.981   3.018
 6903SOL    HW222543   0.583   8.993   2.966
 6904SOL     OW22544  14.313   5.507   6.826
 6904SOL    HW122545  14.246   5.481   6.890
 6904SOL    HW222546  14.270   5.571   6.770
 6905SOL     OW22547   3.752  10.863   7.429
 6905SOL    HW122548   3.681  10.847   7.366
 6905SOL    HW222549   3.794  10.943   7.397
 6906SOL     OW22550  13.559   8.131   5.961
 6906SOL    HW122551  13.489   8.147   5.898
 6906SOL    HW222552  13.520   8.070   6.024
 6907SOL     OW22553  12.048  10.581   8.920
 6907SOL    HW122554  12.063  10.555   9.011
 6907SOL    HW222555  11.978  10.522   8.890
 6908SOL     OW22556   6.872  12.992   2.584
 6908SOL    HW122557   6.869  13.012   2.490
 6908SOL    HW222558   6.956  13.028   2.612
 6909SOL     OW22559   6.164  12.999   5.883
 6909SOL    HW122560   6.196  12.928   5.827
 6909SOL    HW222561   6.068  12.994   5.875
 6910SOL     OW22562  12.183   2.853   7.958
 6910SOL    HW122563  12.200   2.801   7.880
 6910SOL    HW222564  12.268   2.892   7.980
 6911SOL     OW22565  10.856   5.925   2.624
 6911SOL    HW122566  10.950   5.905   2.619
 6911SOL    HW222567  10.851   6.018   2.604
 6912SOL     OW22568  13.310  10.032  10.765
 6912SOL    HW122569  13.249   9.959  10.755
 6912SOL    HW222570  13.300  10.083  10.685
 6913SOL     OW22571   6.798   7.025   9.947
 6913SOL    HW122572   6.877   7.073   9.923
 6913SOL    HW222573   6.751   7.012   9.864
 6914SOL     OW22574  14.197  13.068   8.935
 6914SOL    HW122575  14.205  13.163   8.937
 6914SOL    HW222576  14.208  13.045   8.843
 6915SOL     OW22577  10.054   6.347   7.138
 6915SOL    HW122578  10.057   6.261   7.096
 6915SOL    HW222579  10.107   6.403   7.081
 6916SOL     OW22580  12.919  11.083  14.740
 6916SOL    HW122581  12.854  11.131  14.791
 6916SOL    HW222582  13.003  11.105  14.781
 6917SOL     OW22583   8.771  13.298  10.822
 6917SOL    HW122584   8.767  13.284  10.727
 6917SOL    HW222585   8.834  13.370  10.833
 6918SOL     OW22586   9.522   2.004  14.189
 6918SOL    HW122587   9.594   2.037  14.244
 6918SOL    HW222588   9.447   2.058  14.215
 6919SOL     OW22589  10.689   3.774  13.021
 6919SOL    HW122590  10.737   3.744  12.944
 6919SOL    HW222591  10.707   3.708  13.088
 6920SOL     OW22592  10.090  11.930   9.129
 6920SOL    HW122593  10.024  11.866   9.103
 6920SOL    HW222594  10.073  12.007   9.074
 6921SOL     OW22595  14.457  13.861  13.532
 6921SOL    HW122596  14.497  13.937  13.573
 6921SOL    HW222597  14.529  13.799  13.520
 6922SOL     OW22598  13.726  10.984   9.801
 6922SOL    HW122599  13.777  11.043   9.746
 6922SOL    HW222600  13.679  10.928   9.740
 6923SOL     OW22601  12.122   8.626   2.300
 6923SOL    HW122602  12.084   8.635   2.212
 6923SOL    HW222603  12.171   8.706   2.313
 6924SOL     OW22604   0.783  12.287   3.929
 6924SOL    HW122605   0.719  12.357   3.916
 6924SOL    HW222606   0.865  12.332   3.944
 6925SOL     OW22607   0.683   0.745   2.385
 6925SOL    HW122608   0.650   0.658   2.406
 6925SOL    HW222609   0.608   0.803   2.397
 6926SOL     OW22610  14.283   4.175   3.138
 6926SOL    HW122611  14.200   4.132   3.117
 6926SOL    HW222612  14.303   4.228   3.061
 6927SOL     OW22613   9.042   5.850   2.315
 6927SOL    HW122614   8.952   5.844   2.284
 6927SOL    HW222615   9.085   5.772   2.280
 6928SOL     OW22616   0.628  12.786  13.700
 6928SOL    HW122617   0.601  12.853  13.763
 6928SOL    HW222618   0.666  12.835  13.628
 6929SOL     OW22619   8.155   9.030  12.918
 6929SOL    HW122620   8.087   9.059  12.979
 6929SOL    HW222621   8.118   9.047  12.831
 6930SOL     OW22622   2.053   4.557   7.095
 6930SOL    HW122623   1.978   4.576   7.040
 6930SOL    HW222624   2.094   4.480   7.055
 6931SOL     OW22625   1.885   4.688  13.749
 6931SOL    HW122626   1.936   4.628  13.695
 6931SOL    HW222627   1.886   4.649  13.836
 6932SOL     OW22628   7.180   1.456   8.458
 6932SOL    HW122629   7.219   1.369   8.471
 6932SOL    HW222630   7.242   1.502   8.402
 6933SOL     OW22631   0.553  12.472   8.642
 6933SOL    HW122632   0.520  12.410   8.577
 6933SOL    HW222633   0.642  12.441   8.661
 6934SOL     OW22634  11.670   4.252   1.288
 6934SOL    HW122635  11.614   4.217   1.357
 6934SOL    HW222636  11.743   4.293   1.336
 6935SOL     OW22637  13.868   4.701   1.390
 6935SOL    HW122638  13.800   4.748   1.438
 6935SOL    HW222639  13.947   4.752   1.406
 6936SOL     OW22640   0.989  11.179   6.325
 6936SOL    HW122641   0.963  11.222   6.407
 6936SOL    HW222642   1.024  11.094   6.353
 6937SOL     OW22643   6.505   4.454   5.206
 6937SOL    HW122644   6.575   4.519   5.198
 6937SOL    HW222645   6.524   4.408   5.287
 6938SOL     OW22646   4.488   6.366   1.815
 6938SOL    HW122647   4.492   6.364   1.911
 6938SOL    HW222648   4.406   6.321   1.793
 6939SOL     OW22649   9.089  14.600   3.406
 6939SOL    HW122650   9.128  14.592   3.319
 6939SOL    HW222651   9.023  14.670   3.397
 6940SOL     OW22652  10.812  14.680   3.495
 6940SOL    HW122653  10.775  14.613   3.553
 6940SOL    HW222654  10.852  14.743   3.554
 6941SOL     OW22655   9.878  10.526   3.097
 6941SOL    HW122656   9.826  10.538   3.177
 6941SOL    HW222657   9.814  10.500   3.031
 6942SOL     OW22658   0.052  12.840   4.222
 6942SOL    HW122659   0.121  12.892   4.262
 6942SOL    HW222660   0.013  12.791   4.294
 6943SOL     OW22661   0.923   2.581  13.886
 6943SOL    HW122662   1.008   2.574  13.931
 6943SOL    HW222663   0.937   2.539  13.801
 6944SOL     OW22664   3.199  13.533   3.001
 6944SOL    HW122665   3.200  13.626   3.026
 6944SOL    HW222666   3.199  13.487   3.085
 6945SOL     OW22667   0.966  10.573   7.617
 6945SOL    HW122668   0.927  10.558   7.531
 6945SOL    HW222669   0.962  10.668   7.629
 6946SOL     OW22670   1.142  12.664  13.854
 6946SOL    HW122671   1.114  12.677  13.945
 6946SOL    HW222672   1.231  12.699  13.851
 6947SOL     OW22673   6.874   1.431   7.034
 6947SOL    HW122674   6.799   1.467   7.082
 6947SOL    HW222675   6.845   1.428   6.943
 6948SOL     OW22676   5.194  14.381   9.508
 6948SOL    HW122677   5.205  14.432   9.428
 6948SOL    HW222678   5.182  14.447   9.576
 6949SOL     OW22679   6.659  10.672   9.593
 6949SOL    HW122680   6.610  10.753   9.579
 6949SOL    HW222681   6.745  10.688   9.556
 6950SOL     OW22682  10.802   9.563  14.319
 6950SOL    HW122683  10.853   9.580  14.239
 6950SOL    HW222684  10.718   9.531  14.288
 6951SOL     OW22685   9.452   4.911   9.505
 6951SOL    HW122686   9.420   4.915   9.595
 6951SOL    HW222687   9.520   4.978   9.501
 6952SOL     OW22688   7.763   3.451   0.262
 6952SOL    HW122689   7.691   3.513   0.259
 6952SOL    HW222690   7.834   3.498   0.306
 6953SOL     OW22691  12.222   1.377  11.747
 6953SOL    HW122692  12.258   1.452  11.796
 6953SOL    HW222693  12.247   1.393  11.656
 6954SOL     OW22694   4.916   6.107  11.191
 6954SOL    HW122695   4.935   6.149  11.107
 6954SOL    HW222696   4.907   6.180  11.252
 6955SOL     OW22697  12.367   4.717   7.801
 6955SOL    HW122698  12.428   4.741   7.871
 6955SOL    HW222699  12.421   4.674   7.736
 6956SOL     OW22700  14.367   7.455   6.747
 6956SOL    HW122701  14.380   7.537   6.699
 6956SOL    HW222702  14.307   7.404   6.693
 6957SOL     OW22703   7.734  13.275  12.953
 6957SOL    HW122704   7.663  13.293  13.015
 6957SOL    HW222705   7.689  13.243  12.875
 6958SOL     OW22706   3.443   1.841   5.924
 6958SOL    HW122707   3.415   1.755   5.893
 6958SOL    HW222708   3.536   1.830   5.945
 6959SOL     OW22709   8.785   5.374   6.631
 6959SOL    HW122710   8.801   5.458   6.674
 6959SOL    HW222711   8.690   5.372   6.616
 6960SOL     OW22712  13.141   7.331   6.167
 6960SOL    HW122713  13.160   7.354   6.076
 6960SOL    HW222714  13.066   7.386   6.191
 6961SOL     OW22715   9.151   9.018   8.618
 6961SOL    HW122716   9.237   9.059   8.611
 6961SOL    HW222717   9.139   8.974   8.534
 6962SOL     OW22718   2.147   9.755   8.599
 6962SOL    HW122719   2.156   9.661   8.582
 6962SOL    HW222720   2.052   9.771   8.596
 6963SOL     OW22721   2.047  12.165  11.201
 6963SOL    HW122722   2.098  12.140  11.124
 6963SOL    HW222723   2.009  12.083  11.233
 6964SOL     OW22724   8.118  11.678   2.782
 6964SOL    HW122725   8.185  11.652   2.845
 6964SOL    HW222726   8.162  11.739   2.724
 6965SOL     OW22727   3.290   8.925   2.856
 6965SOL    HW122728   3.269   8.934   2.763
 6965SOL    HW222729   3.211   8.953   2.902
 6966SOL     OW22730  10.767   3.906  12.459
 6966SOL    HW122731  10.738   3.819  12.485
 6966SOL    HW222732  10.747   3.911  12.366
 6967SOL     OW22733  10.282   9.057  14.167
 6967SOL    HW122734  10.279   8.982  14.107
 6967SOL    HW222735  10.234   9.126  14.120
 6968SOL     OW22736  11.175  11.869   5.084
 6968SOL    HW122737  11.208  11.828   5.004
 6968SOL    HW222738  11.203  11.810   5.154
 6969SOL     OW22739  12.186   2.688   9.628
 6969SOL    HW122740  12.229   2.773   9.623
 6969SOL    HW222741  12.094   2.709   9.648
 6970SOL     OW22742  11.196   4.117   6.650
 6970SOL    HW122743  11.193   4.213   6.655
 6970SOL    HW222744  11.154   4.096   6.566
 6971SOL     OW22745  10.111   1.788   2.086
 6971SOL    HW122746  10.017   1.788   2.071
 6971SOL    HW222747  10.125   1.854   2.154
 6972SOL     OW22748  13.781   5.319   2.844
 6972SOL    HW122749  13.863   5.288   2.806
 6972SOL    HW222750  13.747   5.381   2.779
 6973SOL     OW22751  11.346   9.972   6.341
 6973SOL    HW122752  11.275   9.938   6.287
 6973SOL    HW222753  11.403   9.897   6.356
 6974SOL     OW22754   1.035   4.596   0.459
 6974SOL    HW122755   0.949   4.624   0.490
 6974SOL    HW222756   1.097   4.629   0.525
 6975SOL     OW22757   7.778  14.192   1.428
 6975SOL    HW122758   7.724  14.263   1.393
 6975SOL    HW222759   7.809  14.225   1.512
 6976SOL     OW22760   2.982   1.695   1.918
 6976SOL    HW122761   3.013   1.750   1.846
 6976SOL    HW222762   2.962   1.756   1.989
 6977SOL     OW22763  12.253   4.246   9.709
 6977SOL    HW122764  12.230   4.190   9.783
 6977SOL    HW222765  12.193   4.321   9.717
 6978SOL     OW22766   2.394  12.384  14.861
 6978SOL    HW122767   2.401  12.323  14.787
 6978SOL    HW222768   2.301  12.385   0.004
 6979SOL     OW22769   6.510   5.766   9.224
 6979SOL    HW122770   6.506   5.839   9.287
 6979SOL    HW222771   6.546   5.805   9.145
 6980SOL     OW22772  14.545  10.340  13.880
 6980SOL    HW122773  14.616  10.322  13.818
 6980SOL    HW222774  14.472  10.368  13.825
 6981SOL     OW22775  12.645  13.054   6.994
 6981SOL    HW122776  12.667  12.961   6.997
 6981SOL    HW222777  12.668  13.080   6.905
 6982SOL     OW22778   2.674   8.856   7.690
 6982SOL    HW122779   2.600   8.838   7.749
 6982SOL    HW222780   2.637   8.847   7.602
 6983SOL     OW22781   3.488  13.706   7.053
 6983SOL    HW122782   3.523  13.762   6.984
 6983SOL    HW222783   3.446  13.767   7.114
 6984SOL     OW22784   1.896   6.849   2.124
 6984SOL    HW122785   1.801   6.856   2.112
 6984SOL    HW222786   1.928   6.938   2.113
 6985SOL     OW22787   3.529   5.239   0.153
 6985SOL    HW122788   3.462   5.256   0.219
 6985SOL    HW222789   3.610   5.229   0.203
 6986SOL     OW22790   2.167   1.517   1.179
 6986SOL    HW122791   2.228   1.444   1.169
 6986SOL    HW222792   2.222   1.595   1.171
 6987SOL     OW22793   2.864   8.230  13.004
 6987SOL    HW122794   2.786   8.176  13.011
 6987SOL    HW222795   2.862   8.286  13.083
 6988SOL     OW22796   4.099   0.064   3.203
 6988SOL    HW122797   4.115   0.024   3.289
 6988SOL    HW222798   4.069  14.870   3.148
 6989SOL     OW22799   7.292  10.450   6.647
 6989SOL    HW122800   7.271  10.369   6.600
 6989SOL    HW222801   7.256  10.438   6.735
 6990SOL     OW22802  13.654  11.575   8.114
 6990SOL    HW122803  13.638  11.664   8.144
 6990SOL    HW222804  13.634  11.520   8.190
 6991SOL     OW22805   3.688  10.279   5.964
 6991SOL    HW122806   3.627  10.352   5.977
 6991SOL    HW222807   3.636  10.200   5.981
 6992SOL     OW22808  14.034   9.046   1.933
 6992SOL    HW122809  13.992   9.026   2.017
 6992SOL    HW222810  14.127   9.047   1.952
 6993SOL     OW22811   2.935  14.486   3.143
 6993SOL    HW122812   2.926  14.392   3.159
 6993SOL    HW222813   2.872  14.526   3.203
 6994SOL     OW22814  12.374  10.156   0.085
 6994SOL    HW122815  12.369  10.243   0.123
 6994SOL    HW222816  12.468  10.140   0.074
 6995SOL     OW22817   5.380   0.468  13.946
 6995SOL    HW122818   5.449   0.492  14.008
 6995SOL    HW222819   5.301   0.463  14.000
 6996SOL     OW22820  12.263   6.739   3.466
 6996SOL    HW122821  12.194   6.795   3.503
 6996SOL    HW222822  12.338   6.797   3.453
 6997SOL     OW22823   7.765  13.352  11.690
 6997SOL    HW122824   7.725  13.418  11.633
 6997SOL    HW222825   7.814  13.295  11.630
 6998SOL     OW22826  14.305   9.736   1.866
 6998SOL    HW122827  14.278   9.659   1.916
 6998SOL    HW222828  14.357   9.699   1.794
 6999SOL     OW22829   8.896   4.795   1.582
 6999SOL    HW122830   8.978   4.833   1.613
 6999SOL    HW222831   8.840   4.870   1.564
 7000SOL     OW22832   2.130  12.551   5.639
 7000SOL    HW122833   2.075  12.498   5.696
 7000SOL    HW222834   2.196  12.589   5.697
 7001SOL     OW22835   0.177   3.835   9.866
 7001SOL    HW122836   0.181   3.921   9.908
 7001SOL    HW222837   0.181   3.854   9.772
 7002SOL     OW22838   3.333   4.181   7.095
 7002SOL    HW122839   3.269   4.140   7.036
 7002SOL    HW222840   3.386   4.236   7.038
 7003SOL     OW22841   0.013   4.082   5.648
 7003SOL    HW122842   0.001   4.135   5.569
 7003SOL    HW222843   0.084   4.022   5.625
 7004SOL     OW22844  14.037   2.507   8.550
 7004SOL    HW122845  14.132   2.505   8.563
 7004SOL    HW222846  14.001   2.481   8.635
 7005SOL     OW22847   8.045   3.962   5.525
 7005SOL    HW122848   8.118   3.936   5.468
 7005SOL    HW222849   7.969   3.963   5.468
 7006SOL     OW22850   2.965   4.511   5.800
 7006SOL    HW122851   3.045   4.476   5.760
 7006SOL    HW222852   2.914   4.544   5.726
 7007SOL     OW22853   2.822   1.511  11.170
 7007SOL    HW122854   2.768   1.525  11.092
 7007SOL    HW222855   2.763   1.469  11.233
 7008SOL     OW22856  11.309   0.096   1.079
 7008SOL    HW122857  11.384   0.143   1.115
 7008SOL    HW222858  11.233   0.146   1.109
 7009SOL     OW22859   6.191   3.499  13.903
 7009SOL    HW122860   6.164   3.585  13.935
 7009SOL    HW222861   6.285   3.506  13.890
 7010SOL     OW22862  12.841   6.727   9.959
 7010SOL    HW122863  12.829   6.661  10.026
 7010SOL    HW222864  12.758   6.775   9.956
 7011SOL     OW22865  11.174   4.662   1.342
 7011SOL    HW122866  11.206   4.737   1.291
 7011SOL    HW222867  11.106   4.623   1.287
 7012SOL     OW22868  14.350  14.499   7.784
 7012SOL    HW122869  14.389  14.417   7.752
 7012SOL    HW222870  14.256  14.482   7.784
 7013SOL     OW22871   2.666   3.924  12.748
 7013SOL    HW122872   2.621   3.957  12.670
 7013SOL    HW222873   2.709   3.844  12.719
 7014SOL     OW22874   9.794  10.917  13.721
 7014SOL    HW122875   9.707  10.952  13.705
 7014SOL    HW222876   9.830  10.900  13.634
 7015SOL     OW22877   0.667   2.507   4.917
 7015SOL    HW122878   0.686   2.431   4.863
 7015SOL    HW222879   0.665   2.581   4.855
 7016SOL     OW22880   0.133   7.588   3.269
 7016SOL    HW122881   0.123   7.498   3.301
 7016SOL    HW222882   0.228   7.601   3.265
 7017SOL     OW22883   4.627   7.171   2.954
 7017SOL    HW122884   4.720   7.170   2.977
 7017SOL    HW222885   4.583   7.138   3.032
 7018SOL     OW22886  13.449  10.395   0.477
 7018SOL    HW122887  13.375  10.347   0.514
 7018SOL    HW222888  13.484  10.337   0.409
 7019SOL     OW22889  12.622   5.081   3.622
 7019SOL    HW122890  12.711   5.048   3.612
 7019SOL    HW222891  12.597   5.110   3.534
 7020SOL     OW22892   3.091   1.265  13.700
 7020SOL    HW122893   3.151   1.192  13.716
 7020SOL    HW222894   3.144   1.343  13.712
 7021SOL     OW22895   6.635  11.261  13.178
 7021SOL    HW122896   6.716  11.294  13.216
 7021SOL    HW222897   6.645  11.274  13.084
 7022SOL     OW22898  13.304  13.563   8.087
 7022SOL    HW122899  13.328  13.490   8.145
 7022SOL    HW222900  13.358  13.636   8.117
 7023SOL     OW22901   7.721   2.540   5.972
 7023SOL    HW122902   7.803   2.584   5.994
 7023SOL    HW222903   7.739   2.447   5.986
 7024SOL     OW22904   1.051  11.196   5.886
 7024SOL    HW122905   1.051  11.114   5.934
 7024SOL    HW222906   1.119  11.185   5.819
 7025SOL     OW22907   4.461   7.718   5.449
 7025SOL    HW122908   4.495   7.656   5.385
 7025SOL    HW222909   4.407   7.778   5.397
 7026SOL     OW22910  12.242   7.135  10.369
 7026SOL    HW122911  12.284   7.062  10.324
 7026SOL    HW222912  12.282   7.213  10.331
 7027SOL     OW22913   7.654   7.821   0.601
 7027SOL    HW122914   7.653   7.738   0.552
 7027SOL    HW222915   7.711   7.878   0.550
 7028SOL     OW22916  12.910   8.252  13.866
 7028SOL    HW122917  12.985   8.233  13.809
 7028SOL    HW222918  12.915   8.346  13.882
 7029SOL     OW22919  12.277   6.025   7.345
 7029SOL    HW122920  12.198   6.046   7.396
 7029SOL    HW222921  12.345   6.078   7.385
 7030SOL     OW22922  14.133  10.324   8.175
 7030SOL    HW122923  14.169  10.406   8.140
 7030SOL    HW222924  14.049  10.314   8.131
 7031SOL     OW22925  11.225  10.183   4.781
 7031SOL    HW122926  11.165  10.171   4.855
 7031SOL    HW222927  11.301  10.227   4.819
 7032SOL     OW22928   7.313  10.919   4.800
 7032SOL    HW122929   7.371  10.938   4.874
 7032SOL    HW222930   7.299  10.824   4.805
 7033SOL     OW22931   0.234   8.789  13.115
 7033SOL    HW122932   0.247   8.851  13.043
 7033SOL    HW222933   0.311   8.800  13.170
 7034SOL     OW22934   3.471   3.449  10.932
 7034SOL    HW122935   3.433   3.533  10.957
 7034SOL    HW222936   3.516   3.467  10.849
 7035SOL     OW22937  11.378  10.076   5.169
 7035SOL    HW122938  11.412  10.165   5.160
 7035SOL    HW222939  11.394  10.054   5.261
 7036SOL     OW22940   4.946   6.361   5.306
 7036SOL    HW122941   4.918   6.394   5.221
 7036SOL    HW222942   4.940   6.438   5.364
 7037SOL     OW22943   7.413   1.385   0.657
 7037SOL    HW122944   7.452   1.408   0.573
 7037SOL    HW222945   7.485   1.351   0.709
 7038SOL     OW22946  13.199   8.232   9.386
 7038SOL    HW122947  13.270   8.186   9.341
 7038SOL    HW222948  13.242   8.294   9.444
 7039SOL     OW22949   3.162   4.016  10.506
 7039SOL    HW122950   3.210   4.068  10.442
 7039SOL    HW222951   3.224   3.948  10.534
 7040SOL     OW22952   2.643   6.231   4.281
 7040SOL    HW122953   2.649   6.200   4.190
 7040SOL    HW222954   2.667   6.323   4.276
 7041SOL     OW22955   3.107   5.038   3.672
 7041SOL    HW122956   3.019   5.029   3.707
 7041SOL    HW222957   3.162   4.984   3.730
 7042SOL     OW22958   2.439   7.432   2.890
 7042SOL    HW122959   2.494   7.435   2.811
 7042SOL    HW222960   2.499   7.410   2.961
 7043SOL     OW22961  14.685   2.943   2.248
 7043SOL    HW122962  14.606   2.917   2.201
 7043SOL    HW222963  14.693   2.878   2.319
 7044SOL     OW22964  13.156  11.289   9.165
 7044SOL    HW122965  13.153  11.228   9.092
 7044SOL    HW222966  13.086  11.352   9.147
 7045SOL     OW22967  12.199   9.335   8.466
 7045SOL    HW122968  12.289   9.304   8.461
 7045SOL    HW222969  12.204   9.418   8.512
 7046SOL     OW22970   6.584   5.550  10.642
 7046SOL    HW122971   6.491   5.564  10.655
 7046SOL    HW222972   6.604   5.596  10.560
 7047SOL     OW22973  10.049   2.689  11.116
 7047SOL    HW122974  10.143   2.675  11.102
 7047SOL    HW222975  10.043   2.727  11.203
 7048SOL     OW22976   3.632   7.010   7.576
 7048SOL    HW122977   3.563   7.027   7.512
 7048SOL    HW222978   3.674   7.095   7.588
 7049SOL     OW22979  12.594  13.203  14.281
 7049SOL    HW122980  12.689  13.191  14.274
 7049SOL    HW222981  12.580  13.236  14.369
 7050SOL     OW22982   8.558   7.178  14.701
 7050SOL    HW122983   8.631   7.117  14.692
 7050SOL    HW222984   8.584   7.254  14.650
 7051SOL     OW22985   9.462   8.841   4.797
 7051SOL    HW122986   9.557   8.827   4.799
 7051SOL    HW222987   9.426   8.770   4.851
 7052SOL     OW22988   4.428   8.785   1.925
 7052SOL    HW122989   4.517   8.757   1.907
 7052SOL    HW222990   4.426   8.798   2.020
 7053SOL     OW22991  14.738   5.115   1.075
 7053SOL    HW122992  14.829   5.114   1.105
 7053SOL    HW222993  14.704   5.030   1.101
 7054SOL     OW22994  12.558   8.373  12.840
 7054SOL    HW122995  12.623   8.321  12.887
 7054SOL    HW222996  12.601   8.398  12.758
 7055SOL     OW22997  13.944   8.970   6.722
 7055SOL    HW122998  13.871   8.909   6.711
 7055SOL    HW222999  13.999   8.956   6.645
 7056SOL     OW23000  14.626   5.990  11.437
 7056SOL    HW123001  14.639   5.902  11.403
 7056SOL    HW223002  14.682   6.046  11.384
 7057SOL     OW23003  13.264   2.920   2.139
 7057SOL    HW123004  13.175   2.892   2.120
 7057SOL    HW223005  13.283   2.987   2.073
 7058SOL     OW23006   2.295   1.630   6.762
 7058SOL    HW123007   2.324   1.716   6.732
 7058SOL    HW223008   2.342   1.617   6.845
 7059SOL     OW23009   3.285   9.657   7.096
 7059SOL    HW123010   3.239   9.638   7.014
 7059SOL    HW223011   3.325   9.574   7.122
 7060SOL     OW23012   0.835   4.386   5.605
 7060SOL    HW123013   0.762   4.380   5.666
 7060SOL    HW223014   0.906   4.339   5.648
 7061SOL     OW23015   8.228  12.731  14.300
 7061SOL    HW123016   8.135  12.732  14.322
 7061SOL    HW223017   8.232  12.763  14.210
 7062SOL     OW23018  12.903   2.710   5.851
 7062SOL    HW123019  12.934   2.625   5.820
 7062SOL    HW223020  12.818   2.721   5.808
 7063SOL     OW23021   3.009  14.348  11.431
 7063SOL    HW123022   3.020  14.253  11.420
 7063SOL    HW223023   3.082  14.374  11.486
 7064SOL     OW23024   8.934  12.403   5.236
 7064SOL    HW123025   9.028  12.385   5.225
 7064SOL    HW223026   8.890  12.333   5.188
 7065SOL     OW23027   0.487   3.125  14.308
 7065SOL    HW123028   0.443   3.208  14.328
 7065SOL    HW223029   0.463   3.107  14.217
 7066SOL     OW23030  13.593   3.405  10.474
 7066SOL    HW123031  13.526   3.368  10.415
 7066SOL    HW223032  13.621   3.330  10.527
 7067SOL     OW23033  11.283  10.728   9.786
 7067SOL    HW123034  11.260  10.647   9.831
 7067SOL    HW223035  11.365  10.756   9.828
 7068SOL     OW23036   6.703   8.207   0.814
 7068SOL    HW123037   6.678   8.271   0.881
 7068SOL    HW223038   6.734   8.131   0.863
 7069SOL     OW23039   5.348   0.026   2.058
 7069SOL    HW123040   5.313   0.035   2.146
 7069SOL    HW223041   5.426   0.081   2.058
 7070SOL     OW23042   6.513  12.449   5.604
 7070SOL    HW123043   6.584  12.385   5.610
 7070SOL    HW223044   6.443  12.402   5.559
 7071SOL     OW23045  12.353   3.326   0.668
 7071SOL    HW123046  12.392   3.244   0.696
 7071SOL    HW223047  12.346   3.378   0.748
 7072SOL     OW23048   1.489   6.710  14.008
 7072SOL    HW123049   1.581   6.698  14.030
 7072SOL    HW223050   1.476   6.805  14.009
 7073SOL     OW23051  12.627   3.497   6.668
 7073SOL    HW123052  12.718   3.491   6.697
 7073SOL    HW223053  12.576   3.461   6.741
 7074SOL     OW23054  10.106   8.498   2.671
 7074SOL    HW123055  10.011   8.488   2.667
 7074SOL    HW223056  10.140   8.416   2.636
 7075SOL     OW23057  13.788   8.120  14.826
 7075SOL    HW123058  13.767   8.038  14.780
 7075SOL    HW223059  13.832   8.173  14.761
 7076SOL     OW23060  12.810   1.902   0.274
 7076SOL    HW123061  12.848   1.961   0.208
 7076SOL    HW223062  12.788   1.960   0.347
 7077SOL     OW23063  10.653   7.108   3.972
 7077SOL    HW123064  10.745   7.080   3.979
 7077SOL    HW223065  10.658   7.201   3.949
 7078SOL     OW23066   0.796   4.364   2.668
 7078SOL    HW123067   0.852   4.324   2.735
 7078SOL    HW223068   0.851   4.367   2.590
 7079SOL     OW23069  13.396   4.212   4.139
 7079SOL    HW123070  13.313   4.201   4.185
 7079SOL    HW223071  13.386   4.160   4.059
 7080SOL     OW23072   5.717  11.093   1.463
 7080SOL    HW123073   5.671  11.062   1.540
 7080SOL    HW223074   5.796  11.039   1.459
 7081SOL     OW23075   1.535  10.435   2.973
 7081SOL    HW123076   1.558  10.433   2.881
 7081SOL    HW223077   1.459  10.493   2.978
 7082SOL     OW23078  13.771   3.626   5.404
 7082SOL    HW123079  13.780   3.708   5.356
 7082SOL    HW223080  13.693   3.584   5.367
 7083SOL     OW23081   8.895  11.186   5.142
 7083SOL    HW123082   8.848  11.246   5.200
 7083SOL    HW223083   8.874  11.099   5.175
 7084SOL     OW23084   7.050   2.084   4.884
 7084SOL    HW123085   7.084   2.170   4.909
 7084SOL    HW223086   6.969   2.075   4.934
 7085SOL     OW23087   5.030   3.862   1.393
 7085SOL    HW123088   4.977   3.940   1.407
 7085SOL    HW223089   5.115   3.883   1.431
 7086SOL     OW23090   7.297  11.368  12.368
 7086SOL    HW123091   7.338  11.414  12.296
 7086SOL    HW223092   7.357  11.296  12.389
 7087SOL     OW23093   1.091   0.610  10.210
 7087SOL    HW123094   1.094   0.521  10.177
 7087SOL    HW223095   1.066   0.601  10.302
 7088SOL     OW23096   5.636  14.408   6.181
 7088SOL    HW123097   5.696  14.482   6.176
 7088SOL    HW223098   5.684  14.341   6.229
 7089SOL     OW23099   9.968  12.384   6.657
 7089SOL    HW123100   9.972  12.444   6.731
 7089SOL    HW223101  10.048  12.402   6.608
 7090SOL     OW23102  12.058   0.089   7.583
 7090SOL    HW123103  11.992   0.024   7.604
 7090SOL    HW223104  12.075   0.077   7.490
 7091SOL     OW23105   6.046  11.168  12.701
 7091SOL    HW123106   6.110  11.231  12.667
 7091SOL    HW223107   5.992  11.146  12.625
 7092SOL     OW23108   1.397   8.978   3.460
 7092SOL    HW123109   1.341   9.011   3.391
 7092SOL    HW223110   1.481   8.960   3.417
 7093SOL     OW23111   6.335  11.226  11.991
 7093SOL    HW123112   6.392  11.286  11.943
 7093SOL    HW223113   6.349  11.141  11.949
 7094SOL     OW23114   4.526   5.054   2.806
 7094SOL    HW123115   4.499   4.964   2.819
 7094SOL    HW223116   4.620   5.049   2.787
 7095SOL     OW23117   5.066  12.972   7.401
 7095SOL    HW123118   5.152  12.930   7.394
 7095SOL    HW223119   5.085  13.065   7.399
 7096SOL     OW23120   5.573   8.648  11.970
 7096SOL    HW123121   5.485   8.646  12.007
 7096SOL    HW223122   5.589   8.558  11.942
 7097SOL     OW23123   2.106   1.222   1.328
 7097SOL    HW123124   2.143   1.242   1.414
 7097SOL    HW223125   2.170   1.162   1.288
 7098SOL     OW23126  10.283  10.319   7.125
 7098SOL    HW123127  10.345  10.341   7.195
 7098SOL    HW223128  10.338  10.312   7.047
 7099SOL     OW23129  10.242  13.382   6.703
 7099SOL    HW123130  10.315  13.391   6.642
 7099SOL    HW223131  10.269  13.311   6.762
 7100SOL     OW23132   9.220  13.440  12.385
 7100SOL    HW123133   9.261  13.478  12.462
 7100SOL    HW223134   9.167  13.367  12.419
 7101SOL     OW23135   4.539   0.151   7.791
 7101SOL    HW123136   4.492   0.214   7.846
 7101SOL    HW223137   4.630   0.181   7.793
 7102SOL     OW23138  12.836   7.058   5.494
 7102SOL    HW123139  12.827   7.151   5.475
 7102SOL    HW223140  12.913   7.052   5.550
 7103SOL     OW23141   8.410   8.282   0.207
 7103SOL    HW123142   8.421   8.346   0.277
 7103SOL    HW223143   8.458   8.205   0.237
 7104SOL     OW23144   5.339   7.666   8.043
 7104SOL    HW123145   5.330   7.571   8.035
 7104SOL    HW223146   5.353   7.681   8.137
 7105SOL     OW23147   4.825   7.437   7.965
 7105SOL    HW123148   4.912   7.457   8.000
 7105SOL    HW223149   4.819   7.341   7.969
 7106SOL     OW23150  11.007   2.288   6.870
 7106SOL    HW123151  11.042   2.217   6.925
 7106SOL    HW223152  10.936   2.325   6.922
 7107SOL     OW23153   7.286  11.480   3.248
 7107SOL    HW123154   7.248  11.400   3.212
 7107SOL    HW223155   7.279  11.544   3.177
 7108SOL     OW23156   1.224   2.050   2.251
 7108SOL    HW123157   1.283   2.085   2.184
 7108SOL    HW223158   1.201   2.126   2.304
 7109SOL     OW23159   4.322   1.708   4.646
 7109SOL    HW123160   4.403   1.677   4.604
 7109SOL    HW223161   4.320   1.802   4.627
 7110SOL     OW23162   0.786   8.263   8.763
 7110SOL    HW123163   0.808   8.303   8.847
 7110SOL    HW223164   0.852   8.194   8.751
 7111SOL     OW23165   6.335  11.016  11.573
 7111SOL    HW123166   6.320  11.111  11.568
 7111SOL    HW223167   6.373  11.003  11.660
 7112SOL     OW23168  14.597   7.233   3.981
 7112SOL    HW123169  14.645   7.280   4.049
 7112SOL    HW223170  14.645   7.251   3.900
 7113SOL     OW23171   7.294   6.571   2.733
 7113SOL    HW123172   7.346   6.569   2.652
 7113SOL    HW223173   7.300   6.662   2.762
 7114SOL     OW23174   9.729  14.631  12.065
 7114SOL    HW123175   9.670  14.611  11.993
 7114SOL    HW223176   9.677  14.683  12.126
 7115SOL     OW23177  10.663   3.605   5.900
 7115SOL    HW123178  10.643   3.511   5.894
 7115SOL    HW223179  10.676   3.621   5.993
 7116SOL     OW23180   4.326  12.959  14.777
 7116SOL    HW123181   4.252  12.962  14.838
 7116SOL    HW223182   4.299  12.897  14.710
 7117SOL     OW23183   7.551   2.257   0.321
 7117SOL    HW123184   7.643   2.235   0.307
 7117SOL    HW223185   7.509   2.243   0.236
 7118SOL     OW23186   3.112   1.261   9.062
 7118SOL    HW123187   3.193   1.285   9.017
 7118SOL    HW223188   3.122   1.299   9.150
 7119SOL     OW23189  14.145   4.474   6.957
 7119SOL    HW123190  14.207   4.401   6.962
 7119SOL    HW223191  14.115   4.473   6.866
 7120SOL     OW23192   1.248   9.567   3.346
 7120SOL    HW123193   1.324   9.590   3.399
 7120SOL    HW223194   1.175   9.564   3.408
 7121SOL     OW23195   3.658   0.427   7.988
 7121SOL    HW123196   3.639   0.419   8.082
 7121SOL    HW223197   3.710   0.349   7.968
 7122SOL     OW23198  12.024   9.099   5.672
 7122SOL    HW123199  12.028   9.006   5.695
 7122SOL    HW223200  11.968   9.138   5.740
 7123SOL     OW23201  10.199  12.537   6.965
 7123SOL    HW123202  10.211  12.458   7.019
 7123SOL    HW223203  10.285  12.552   6.926
 7124SOL     OW23204  10.259  10.433  14.496
 7124SOL    HW123205  10.332  10.408  14.553
 7124SOL    HW223206  10.302  10.475  14.421
 7125SOL     OW23207   6.853   6.509  14.633
 7125SOL    HW123208   6.946   6.529  14.643
 7125SOL    HW223209   6.848   6.449  14.559
 7126SOL     OW23210  12.136   2.729   1.685
 7126SOL    HW123211  12.051   2.688   1.703
 7126SOL    HW223212  12.176   2.740   1.771
 7127SOL     OW23213   7.371  13.788   0.395
 7127SOL    HW123214   7.405  13.875   0.414
 7127SOL    HW223215   7.449  13.732   0.394
 7128SOL     OW23216   0.623   6.731  13.756
 7128SOL    HW123217   0.572   6.736  13.675
 7128SOL    HW223218   0.564   6.762  13.824
 7129SOL     OW23219   9.174  12.429  12.975
 7129SOL    HW123220   9.257  12.438  13.022
 7129SOL    HW223221   9.187  12.476  12.893
 7130SOL     OW23222  11.214   7.854  12.130
 7130SOL    HW123223  11.279   7.788  12.108
 7130SOL    HW223224  11.236   7.929  12.074
 7131SOL     OW23225   4.307  13.728   0.542
 7131SOL    HW123226   4.215  13.713   0.563
 7131SOL    HW223227   4.316  13.694   0.452
 7132SOL     OW23228   4.521   4.920  10.118
 7132SOL    HW123229   4.481   4.989  10.065
 7132SOL    HW223230   4.457   4.904  10.188
 7133SOL     OW23231   6.818   8.626   5.884
 7133SOL    HW123232   6.760   8.555   5.910
 7133SOL    HW223233   6.868   8.591   5.810
 7134SOL     OW23234  10.165   6.570   6.261
 7134SOL    HW123235  10.228   6.587   6.191
 7134SOL    HW223236  10.218   6.562   6.340
 7135SOL     OW23237  10.785   4.425   4.914
 7135SOL    HW123238  10.766   4.472   4.995
 7135SOL    HW223239  10.761   4.334   4.933
 7136SOL     OW23240  12.180   4.767   4.072
 7136SOL    HW123241  12.270   4.734   4.078
 7136SOL    HW223242  12.128   4.704   4.121
 7137SOL     OW23243   1.140   3.438   2.266
 7137SOL    HW123244   1.092   3.383   2.204
 7137SOL    HW223245   1.226   3.395   2.273
 7138SOL     OW23246   1.510   5.718   5.125
 7138SOL    HW123247   1.444   5.655   5.096
 7138SOL    HW223248   1.502   5.791   5.063
 7139SOL     OW23249   7.789  10.472  12.208
 7139SOL    HW123250   7.805  10.453  12.300
 7139SOL    HW223251   7.835  10.403  12.161
 7140SOL     OW23252   7.809  11.993  12.120
 7140SOL    HW123253   7.731  12.016  12.170
 7140SOL    HW223254   7.808  12.052  12.045
 7141SOL     OW23255   8.595  14.253   4.442
 7141SOL    HW123256   8.519  14.240   4.499
 7141SOL    HW223257   8.651  14.177   4.460
 7142SOL     OW23258   8.298   3.533   6.227
 7142SOL    HW123259   8.225   3.592   6.211
 7142SOL    HW223260   8.303   3.478   6.149
 7143SOL     OW23261   4.137  13.790   7.162
 7143SOL    HW123262   4.211  13.823   7.213
 7143SOL    HW223263   4.158  13.812   7.072
 7144SOL     OW23264   9.998  14.482   4.862
 7144SOL    HW123265   9.972  14.569   4.831
 7144SOL    HW223266  10.094  14.487   4.868
 7145SOL     OW23267   3.676   3.482   5.173
 7145SOL    HW123268   3.631   3.410   5.129
 7145SOL    HW223269   3.607   3.530   5.219
 7146SOL     OW23270   6.878  13.098  14.617
 7146SOL    HW123271   6.973  13.087  14.620
 7146SOL    HW223272   6.864  13.164  14.549
 7147SOL     OW23273   2.262   2.937   6.491
 7147SOL    HW123274   2.184   2.895   6.454
 7147SOL    HW223275   2.324   2.942   6.418
 7148SOL     OW23276   5.741   2.571   8.131
 7148SOL    HW123277   5.683   2.496   8.144
 7148SOL    HW223278   5.691   2.630   8.075
 7149SOL     OW23279   9.541  11.568  12.166
 7149SOL    HW123280   9.532  11.654  12.124
 7149SOL    HW223281   9.454  11.528  12.157
 7150SOL     OW23282  11.067  11.449   0.736
 7150SOL    HW123283  10.993  11.402   0.698
 7150SOL    HW223284  11.054  11.540   0.710
 7151SOL     OW23285   7.979   0.200   2.922
 7151SOL    HW123286   7.917   0.266   2.955
 7151SOL    HW223287   8.062   0.247   2.916
 7152SOL     OW23288   5.739  13.852  14.131
 7152SOL    HW123289   5.702  13.906  14.061
 7152SOL    HW223290   5.684  13.869  14.207
 7153SOL     OW23291   9.225   3.268   0.597
 7153SOL    HW123292   9.263   3.353   0.620
 7153SOL    HW223293   9.172   3.285   0.519
 7154SOL     OW23294  10.231   9.068  11.396
 7154SOL    HW123295  10.254   9.077  11.304
 7154SOL    HW223296  10.165   8.998  11.398
 7155SOL     OW23297   9.386   5.346  12.572
 7155SOL    HW123298   9.477   5.369  12.553
 7155SOL    HW223299   9.361   5.286  12.502
 7156SOL     OW23300   0.485   0.788  13.433
 7156SOL    HW123301   0.576   0.799  13.408
 7156SOL    HW223302   0.488   0.759  13.525
 7157SOL     OW23303  12.943  12.795   2.910
 7157SOL    HW123304  13.023  12.810   2.859
 7157SOL    HW223305  12.946  12.861   2.980
 7158SOL     OW23306   3.206   8.417   5.178
 7158SOL    HW123307   3.233   8.426   5.087
 7158SOL    HW223308   3.151   8.494   5.195
 7159SOL     OW23309  11.493  11.873   4.872
 7159SOL    HW123310  11.512  11.871   4.778
 7159SOL    HW223311  11.541  11.949   4.905
 7160SOL     OW23312   1.095   6.689   4.550
 7160SOL    HW123313   1.124   6.749   4.481
 7160SOL    HW223314   1.104   6.739   4.630
 7161SOL     OW23315   3.648  13.228  13.165
 7161SOL    HW123316   3.663  13.244  13.258
 7161SOL    HW223317   3.639  13.315  13.126
 7162SOL     OW23318  12.500  14.073   6.295
 7162SOL    HW123319  12.537  14.092   6.381
 7162SOL    HW223320  12.553  14.001   6.261
 7163SOL     OW23321  10.543   8.867   8.651
 7163SOL    HW123322  10.483   8.863   8.577
 7163SOL    HW223323  10.529   8.784   8.697
 7164SOL     OW23324   7.226   8.816   2.265
 7164SOL    HW123325   7.161   8.843   2.330
 7164SOL    HW223326   7.282   8.753   2.312
 7165SOL     OW23327  14.405   4.427   3.270
 7165SOL    HW123328  14.353   4.368   3.215
 7165SOL    HW223329  14.490   4.383   3.279
 7166SOL     OW23330   1.206   6.947   3.174
 7166SOL    HW123331   1.201   7.033   3.133
 7166SOL    HW223332   1.188   6.885   3.103
 7167SOL     OW23333  13.163   4.169  11.103
 7167SOL    HW123334  13.209   4.234  11.157
 7167SOL    HW223335  13.183   4.085  11.144
 7168SOL     OW23336   8.580   7.229  11.746
 7168SOL    HW123337   8.549   7.240  11.656
 7168SOL    HW223338   8.614   7.316  11.769
 7169SOL     OW23339  14.117  14.220  12.528
 7169SOL    HW123340  14.034  14.242  12.486
 7169SOL    HW223341  14.101  14.232  12.622
 7170SOL     OW23342   6.476  14.034   3.050
 7170SOL    HW123343   6.446  14.121   3.021
 7170SOL    HW223344   6.531  14.052   3.126
 7171SOL     OW23345  13.212   0.178  12.628
 7171SOL    HW123346  13.122   0.166  12.657
 7171SOL    HW223347  13.222   0.273  12.620
 7172SOL     OW23348  14.403   0.927   8.568
 7172SOL    HW123349  14.329   0.981   8.542
 7172SOL    HW223350  14.421   0.950   8.659
 7173SOL     OW23351   2.646  12.731   4.174
 7173SOL    HW123352   2.722  12.674   4.160
 7173SOL    HW223353   2.670  12.813   4.131
 7174SOL     OW23354   8.313   7.362  14.776
 7174SOL    HW123355   8.367   7.383  14.700
 7174SOL    HW223356   8.253   7.294  14.745
 7175SOL     OW23357   5.107   8.916   3.518
 7175SOL    HW123358   5.068   8.851   3.459
 7175SOL    HW223359   5.139   8.985   3.459
 7176SOL     OW23360  11.115   7.216   7.601
 7176SOL    HW123361  11.073   7.256   7.678
 7176SOL    HW223362  11.200   7.187   7.634
 7177SOL     OW23363   9.448   1.944   2.879
 7177SOL    HW123364   9.401   1.970   2.958
 7177SOL    HW223365   9.388   1.966   2.808
 7178SOL     OW23366  14.658  11.426   9.446
 7178SOL    HW123367  14.642  11.335   9.471
 7178SOL    HW223368  14.665  11.472   9.530
 7179SOL     OW23369  12.428   1.670   3.076
 7179SOL    HW123370  12.518   1.638   3.074
 7179SOL    HW223371  12.375   1.595   3.046
 7180SOL     OW23372   6.323   0.796   9.377
 7180SOL    HW123373   6.390   0.731   9.399
 7180SOL    HW223374   6.297   0.774   9.287
 7181SOL     OW23375   7.923   2.232   4.229
 7181SOL    HW123376   7.989   2.224   4.160
 7181SOL    HW223377   7.970   2.213   4.310
 7182SOL     OW23378  14.287   4.818   8.878
 7182SOL    HW123379  14.198   4.852   8.889
 7182SOL    HW223380  14.331   4.885   8.825
 7183SOL     OW23381   8.631  11.147   8.468
 7183SOL    HW123382   8.723  11.161   8.450
 7183SOL    HW223383   8.629  11.102   8.553
 7184SOL     OW23384   3.970  10.298  14.286
 7184SOL    HW123385   3.883  10.325  14.258
 7184SOL    HW223386   3.958  10.209  14.319
 7185SOL     OW23387   6.849   4.726   1.713
 7185SOL    HW123388   6.906   4.742   1.638
 7185SOL    HW223389   6.898   4.757   1.789
 7186SOL     OW23390  14.231  10.387   3.568
 7186SOL    HW123391  14.143  10.416   3.542
 7186SOL    HW223392  14.221  10.359   3.659
 7187SOL     OW23393   0.286  12.299   3.537
 7187SOL    HW123394   0.379  12.276   3.542
 7187SOL    HW223395   0.240  12.216   3.552
 7188SOL     OW23396   4.894   5.822  13.232
 7188SOL    HW123397   4.979   5.852  13.199
 7188SOL    HW223398   4.910   5.731  13.260
 7189SOL     OW23399  13.641   6.932  11.441
 7189SOL    HW123400  13.660   6.883  11.521
 7189SOL    HW223401  13.691   6.886  11.373
 7190SOL     OW23402   8.327   6.393  10.134
 7190SOL    HW123403   8.406   6.443  10.154
 7190SOL    HW223404   8.353   6.301  10.144
 7191SOL     OW23405   0.100  13.442   2.746
 7191SOL    HW123406   0.117  13.382   2.819
 7191SOL    HW223407   0.008  13.467   2.758
 7192SOL     OW23408  14.336  13.380   5.338
 7192SOL    HW123409  14.260  13.417   5.293
 7192SOL    HW223410  14.409  13.435   5.310
 7193SOL     OW23411  13.761   8.474  10.312
 7193SOL    HW123412  13.830   8.535  10.285
 7193SOL    HW223413  13.680   8.525  10.309
 7194SOL     OW23414   8.034  11.462   5.020
 7194SOL    HW123415   7.956  11.419   4.986
 7194SOL    HW223416   8.095  11.464   4.946
 7195SOL     OW23417   4.396   2.143   9.623
 7195SOL    HW123418   4.389   2.168   9.530
 7195SOL    HW223419   4.407   2.226   9.669
 7196SOL     OW23420   6.960  10.870   3.459
 7196SOL    HW123421   7.054  10.886   3.451
 7196SOL    HW223422   6.932  10.927   3.531
 7197SOL     OW23423   2.877   0.551   8.062
 7197SOL    HW123424   2.848   0.533   8.151
 7197SOL    HW223425   2.810   0.609   8.026
 7198SOL     OW23426   1.130   3.244  11.236
 7198SOL    HW123427   1.163   3.301  11.167
 7198SOL    HW223428   1.035   3.245  11.224
 7199SOL     OW23429  10.636   4.976   2.888
 7199SOL    HW123430  10.543   4.991   2.871
 7199SOL    HW223431  10.662   5.052   2.940
 7200SOL     OW23432   0.086  10.915   4.125
 7200SOL    HW123433  14.877  10.930   4.160
 7200SOL    HW223434   0.134  10.995   4.144
 7201SOL     OW23435  13.301   8.740  13.040
 7201SOL    HW123436  13.331   8.683  13.111
 7201SOL    HW223437  13.242   8.686  12.989
 7202SOL     OW23438  12.818   0.693   2.087
 7202SOL    HW123439  12.858   0.677   2.173
 7202SOL    HW223440  12.890   0.726   2.033
 7203SOL     OW23441   5.391  12.636   0.674
 7203SOL    HW123442   5.296  12.649   0.676
 7203SOL    HW223443   5.426  12.706   0.730
 7204SOL     OW23444  14.440   3.925  13.396
 7204SOL    HW123445  14.452   4.018  13.379
 7204SOL    HW223446  14.405   3.921  13.485
 7205SOL     OW23447   1.829   8.849  12.447
 7205SOL    HW123448   1.774   8.796  12.505
 7205SOL    HW223449   1.913   8.854  12.492
 7206SOL     OW23450   2.328  14.143   6.281
 7206SOL    HW123451   2.398  14.144   6.346
 7206SOL    HW223452   2.273  14.218   6.304
 7207SOL     OW23453  11.632  14.091  11.057
 7207SOL    HW123454  11.605  14.125  10.972
 7207SOL    HW223455  11.705  14.033  11.037
 7208SOL     OW23456  11.472  13.313   5.203
 7208SOL    HW123457  11.529  13.362   5.262
 7208SOL    HW223458  11.532  13.253   5.157
 7209SOL     OW23459   6.437   8.675  13.254
 7209SOL    HW123460   6.479   8.601  13.297
 7209SOL    HW223461   6.472   8.673  13.164
 7210SOL     OW23462   2.009  14.422   0.834
 7210SOL    HW123463   2.059  14.351   0.873
 7210SOL    HW223464   1.949  14.379   0.772
 7211SOL     OW23465  12.298   1.481   6.434
 7211SOL    HW123466  12.380   1.471   6.385
 7211SOL    HW223467  12.243   1.409   6.402
 7212SOL     OW23468  10.876   4.802   1.537
 7212SOL    HW123469  10.954   4.849   1.566
 7212SOL    HW223470  10.908   4.716   1.510
 7213SOL     OW23471   1.257   1.618  12.929
 7213SOL    HW123472   1.221   1.579  12.849
 7213SOL    HW223473   1.191   1.600  12.995
 7214SOL     OW23474   9.393   9.166  13.722
 7214SOL    HW123475   9.386   9.135  13.632
 7214SOL    HW223476   9.386   9.087  13.775
 7215SOL     OW23477  14.581  13.641   6.351
 7215SOL    HW123478  14.525  13.635   6.428
 7215SOL    HW223479  14.595  13.550   6.324
 7216SOL     OW23480   5.209  12.093   2.513
 7216SOL    HW123481   5.242  12.181   2.495
 7216SOL    HW223482   5.123  12.108   2.553
 7217SOL     OW23483   4.651   8.795   0.500
 7217SOL    HW123484   4.566   8.833   0.478
 7217SOL    HW223485   4.713   8.866   0.488
 7218SOL     OW23486   0.371  11.653   2.375
 7218SOL    HW123487   0.305  11.613   2.318
 7218SOL    HW223488   0.447  11.594   2.368
 7219SOL     OW23489  12.519   1.441  11.667
 7219SOL    HW123490  12.546   1.447  11.759
 7219SOL    HW223491  12.506   1.532  11.640
 7220SOL     OW23492  14.154  11.872   8.852
 7220SOL    HW123493  14.065  11.898   8.873
 7220SOL    HW223494  14.159  11.878   8.757
 7221SOL     OW23495   7.458   2.303   9.044
 7221SOL    HW123496   7.482   2.279   8.954
 7221SOL    HW223497   7.541   2.307   9.091
 7222SOL     OW23498   4.741  10.273   0.951
 7222SOL    HW123499   4.688  10.278   0.871
 7222SOL    HW223500   4.685  10.226   1.013
 7223SOL     OW23501   3.128   7.952  10.558
 7223SOL    HW123502   3.067   7.878  10.572
 7223SOL    HW223503   3.213   7.917  10.584
 7224SOL     OW23504  14.589   0.288  14.649
 7224SOL    HW123505  14.671   0.324  14.683
 7224SOL    HW223506  14.573   0.337  14.568
 7225SOL     OW23507   3.682  13.405  13.714
 7225SOL    HW123508   3.657  13.498  13.710
 7225SOL    HW223509   3.604  13.361  13.748
 7226SOL     OW23510   0.780   6.946  11.045
 7226SOL    HW123511   0.861   6.926  10.998
 7226SOL    HW223512   0.780   7.041  11.053
 7227SOL     OW23513   0.874   6.093   4.930
 7227SOL    HW123514   0.938   6.079   4.861
 7227SOL    HW223515   0.818   6.164   4.898
 7228SOL     OW23516  14.201   0.827   1.709
 7228SOL    HW123517  14.159   0.790   1.632
 7228SOL    HW223518  14.214   0.920   1.687
 7229SOL     OW23519   9.125   0.001   4.230
 7229SOL    HW123520   9.070  14.822   4.176
 7229SOL    HW223521   9.194  14.822   4.263
 7230SOL     OW23522  12.573   9.794   2.499
 7230SOL    HW123523  12.526   9.712   2.514
 7230SOL    HW223524  12.649   9.789   2.558
 7231SOL     OW23525   7.109  11.873  14.477
 7231SOL    HW123526   7.163  11.860  14.555
 7231SOL    HW223527   7.020  11.855  14.507
 7232SOL     OW23528  14.140  10.210   4.549
 7232SOL    HW123529  14.162  10.237   4.459
 7232SOL    HW223530  14.191  10.130   4.562
 7233SOL     OW23531   9.360  10.774  10.151
 7233SOL    HW123532   9.423  10.845  10.139
 7233SOL    HW223533   9.391  10.704  10.093
 7234SOL     OW23534   9.467  11.365  10.425
 7234SOL    HW123535   9.424  11.448  10.447
 7234SOL    HW223536   9.416  11.329  10.353
 7235SOL     OW23537   9.444   9.235   2.211
 7235SOL    HW123538   9.520   9.286   2.183
 7235SOL    HW223539   9.451   9.230   2.306
 7236SOL     OW23540  14.280  14.157  11.134
 7236SOL    HW123541  14.206  14.214  11.115
 7236SOL    HW223542  14.264  14.079  11.080
 7237SOL     OW23543  12.247   0.562  12.376
 7237SOL    HW123544  12.258   0.529  12.465
 7237SOL    HW223545  12.156   0.543  12.354
 7238SOL     OW23546   6.662  12.161  14.685
 7238SOL    HW123547   6.697  12.081  14.646
 7238SOL    HW223548   6.698  12.232  14.633
 7239SOL     OW23549  12.143   7.320   3.853
 7239SOL    HW123550  12.107   7.337   3.941
 7239SOL    HW223551  12.081   7.363   3.794
 7240SOL     OW23552   3.343   2.951   6.864
 7240SOL    HW123553   3.302   3.037   6.864
 7240SOL    HW223554   3.437   2.970   6.871
 7241SOL     OW23555   3.305   0.914   4.734
 7241SOL    HW123556   3.382   0.965   4.708
 7241SOL    HW223557   3.271   0.878   4.653
 7242SOL     OW23558   1.570   0.005   2.417
 7242SOL    HW123559   1.590  14.800   2.458
 7242SOL    HW223560   1.517   0.051   2.481
 7243SOL     OW23561  14.758  11.437   6.355
 7243SOL    HW123562  14.829  11.436   6.419
 7243SOL    HW223563  14.678  11.430   6.407
 7244SOL     OW23564  10.398   5.859  11.820
 7244SOL    HW123565  10.331   5.922  11.847
 7244SOL    HW223566  10.443   5.901  11.747
 7245SOL     OW23567   3.605   1.482  14.495
 7245SOL    HW123568   3.591   1.394  14.528
 7245SOL    HW223569   3.700   1.490  14.486
 7246SOL     OW23570  11.071   4.305   7.104
 7246SOL    HW123571  11.015   4.370   7.146
 7246SOL    HW223572  11.097   4.246   7.176
 7247SOL     OW23573   3.014  12.105   3.692
 7247SOL    HW123574   2.955  12.122   3.618
 7247SOL    HW223575   3.082  12.172   3.684
 7248SOL     OW23576  11.040   0.979   0.393
 7248SOL    HW123577  11.063   1.000   0.303
 7248SOL    HW223578  11.036   0.884   0.396
 7249SOL     OW23579   6.066   0.112  11.862
 7249SOL    HW123580   5.987   0.162  11.845
 7249SOL    HW223581   6.043   0.021  11.840
 7250SOL     OW23582   6.154   7.326   9.028
 7250SOL    HW123583   6.148   7.421   9.039
 7250SOL    HW223584   6.241   7.304   9.060
 7251SOL     OW23585   3.051  14.336   9.135
 7251SOL    HW123586   3.056  14.397   9.209
 7251SOL    HW223587   2.997  14.382   9.070
 7252SOL     OW23588  13.473  12.526  11.042
 7252SOL    HW123589  13.418  12.528  10.964
 7252SOL    HW223590  13.551  12.575  11.018
 7253SOL     OW23591  11.091   3.249   6.843
 7253SOL    HW123592  11.156   3.317   6.856
 7253SOL    HW223593  11.140   3.173   6.812
 7254SOL     OW23594   1.568  10.951  14.355
 7254SOL    HW123595   1.593  11.031  14.401
 7254SOL    HW223596   1.620  10.882  14.397
 7255SOL     OW23597   0.977   0.259   4.493
 7255SOL    HW123598   0.927   0.273   4.412
 7255SOL    HW223599   1.036   0.334   4.497
 7256SOL     OW23600   0.756  11.118   5.755
 7256SOL    HW123601   0.707  11.055   5.807
 7256SOL    HW223602   0.840  11.075   5.737
 7257SOL     OW23603   6.856   5.048   0.255
 7257SOL    HW123604   6.839   5.135   0.219
 7257SOL    HW223605   6.929   5.062   0.315
 7258SOL     OW23606   9.996   9.546  14.231
 7258SOL    HW123607  10.027   9.602  14.159
 7258SOL    HW223608   9.902   9.563  14.236
 7259SOL     OW23609   4.453   7.733   0.166
 7259SOL    HW123610   4.371   7.751   0.120
 7259SOL    HW223611   4.432   7.666   0.230
 7260SOL     OW23612  12.034   7.059   6.807
 7260SOL    HW123613  12.032   7.112   6.727
 7260SOL    HW223614  12.128   7.045   6.823
 7261SOL     OW23615   1.690   9.806   9.793
 7261SOL    HW123616   1.641   9.883   9.766
 7261SOL    HW223617   1.718   9.765   9.711
 7262SOL     OW23618   6.154   1.995   7.863
 7262SOL    HW123619   6.206   1.916   7.846
 7262SOL    HW223620   6.189   2.060   7.801
 7263SOL     OW23621   1.587   9.474   5.572
 7263SOL    HW123622   1.680   9.461   5.554
 7263SOL    HW223623   1.542   9.431   5.498
 7264SOL     OW23624   4.656  11.132   7.768
 7264SOL    HW123625   4.740  11.100   7.734
 7264SOL    HW223626   4.600  11.138   7.691
 7265SOL     OW23627   4.012  12.890   9.232
 7265SOL    HW123628   4.088  12.850   9.187
 7265SOL    HW223629   3.948  12.903   9.162
 7266SOL     OW23630   7.314  12.547   8.393
 7266SOL    HW123631   7.404  12.558   8.424
 7266SOL    HW223632   7.321  12.552   8.298
 7267SOL     OW23633   1.585   9.014   4.862
 7267SOL    HW123634   1.662   9.053   4.820
 7267SOL    HW223635   1.536   8.974   4.790
 7268SOL     OW23636   7.957  12.876   1.274
 7268SOL    HW123637   7.869  12.850   1.248
 7268SOL    HW223638   8.007  12.794   1.276
 7269SOL     OW23639   2.414   6.377   9.298
 7269SOL    HW123640   2.399   6.292   9.257
 7269SOL    HW223641   2.441   6.434   9.225
 7270SOL     OW23642   1.933   6.322   1.168
 7270SOL    HW123643   2.006   6.329   1.230
 7270SOL    HW223644   1.958   6.249   1.110
 7271SOL     OW23645   5.225  14.095   0.143
 7271SOL    HW123646   5.132  14.099   0.167
 7271SOL    HW223647   5.246  14.002   0.140
 7272SOL     OW23648   0.644   3.917   8.738
 7272SOL    HW123649   0.701   3.922   8.815
 7272SOL    HW223650   0.654   3.827   8.706
 7273SOL     OW23651   3.025   5.842   2.600
 7273SOL    HW123652   3.042   5.899   2.675
 7273SOL    HW223653   2.979   5.767   2.637
 7274SOL     OW23654   4.114   6.032  10.652
 7274SOL    HW123655   4.140   5.989  10.570
 7274SOL    HW223656   4.187   6.091  10.672
 7275SOL     OW23657   0.329   5.784  11.160
 7275SOL    HW123658   0.329   5.693  11.189
 7275SOL    HW223659   0.421   5.803  11.140
 7276SOL     OW23660   9.358   4.929   2.621
 7276SOL    HW123661   9.390   4.892   2.538
 7276SOL    HW223662   9.316   5.011   2.595
 7277SOL     OW23663   0.178   0.216  12.073
 7277SOL    HW123664   0.101   0.238  12.124
 7277SOL    HW223665   0.183   0.285  12.006
 7278SOL     OW23666  10.552   5.357  13.182
 7278SOL    HW123667  10.496   5.387  13.254
 7278SOL    HW223668  10.494   5.357  13.106
 7279SOL     OW23669  10.759   2.661   4.342
 7279SOL    HW123670  10.829   2.659   4.408
 7279SOL    HW223671  10.682   2.631   4.390
 7280SOL     OW23672   6.604   1.876   0.915
 7280SOL    HW123673   6.660   1.839   0.846
 7280SOL    HW223674   6.585   1.801   0.972
 7281SOL     OW23675   1.619  11.913   0.015
 7281SOL    HW123676   1.644  11.986  14.838
 7281SOL    HW223677   1.590  11.845  14.832
 7282SOL     OW23678  10.170  13.895  11.167
 7282SOL    HW123679  10.199  13.939  11.247
 7282SOL    HW223680  10.108  13.828  11.198
 7283SOL     OW23681   9.914  12.744  11.112
 7283SOL    HW123682   9.893  12.658  11.076
 7283SOL    HW223683   9.840  12.799  11.087
 7284SOL     OW23684   3.430   6.346   3.798
 7284SOL    HW123685   3.447   6.378   3.886
 7284SOL    HW223686   3.416   6.425   3.746
 7285SOL     OW23687   3.663   6.775   1.579
 7285SOL    HW123688   3.668   6.684   1.609
 7285SOL    HW223689   3.733   6.820   1.626
 7286SOL     OW23690  10.745   0.211  11.708
 7286SOL    HW123691  10.810   0.209  11.637
 7286SOL    HW223692  10.735   0.120  11.734
 7287SOL     OW23693   0.449   3.268   6.331
 7287SOL    HW123694   0.371   3.264   6.387
 7287SOL    HW223695   0.438   3.350   6.281
 7288SOL     OW23696   9.323   8.253   3.841
 7288SOL    HW123697   9.413   8.257   3.872
 7288SOL    HW223698   9.301   8.160   3.842
 7289SOL     OW23699  14.586  10.357   2.862
 7289SOL    HW123700  14.558  10.400   2.781
 7289SOL    HW223701  14.553  10.268   2.854
 7290SOL     OW23702   7.204   7.184   1.180
 7290SOL    HW123703   7.276   7.126   1.204
 7290SOL    HW223704   7.228   7.269   1.218
 7291SOL     OW23705   9.941   2.459   9.332
 7291SOL    HW123706  10.007   2.526   9.316
 7291SOL    HW223707   9.924   2.422   9.245
 7292SOL     OW23708   2.521   2.325  12.285
 7292SOL    HW123709   2.456   2.265  12.320
 7292SOL    HW223710   2.471   2.404  12.262
 7293SOL     OW23711  13.653   4.256   5.254
 7293SOL    HW123712  13.729   4.208   5.287
 7293SOL    HW223713  13.655   4.340   5.301
 7294SOL     OW23714  14.867   5.589   1.792
 7294SOL    HW123715   0.050   5.662   1.794
 7294SOL    HW223716   0.034   5.519   1.840
 7295SOL     OW23717   3.300   7.571   3.709
 7295SOL    HW123718   3.276   7.662   3.689
 7295SOL    HW223719   3.281   7.523   3.629
 7296SOL     OW23720   7.174   8.605   3.348
 7296SOL    HW123721   7.192   8.681   3.292
 7296SOL    HW223722   7.108   8.636   3.410
 7297SOL     OW23723   2.854   2.087   3.378
 7297SOL    HW123724   2.761   2.081   3.357
 7297SOL    HW223725   2.857   2.089   3.473
 7298SOL     OW23726   0.278  11.732   1.697
 7298SOL    HW123727   0.244  11.777   1.775
 7298SOL    HW223728   0.289  11.802   1.633
 7299SOL     OW23729   2.606   6.280   8.448
 7299SOL    HW123730   2.686   6.228   8.437
 7299SOL    HW223731   2.638   6.367   8.470
 7300SOL     OW23732  13.441   7.615  10.095
 7300SOL    HW123733  13.388   7.587  10.169
 7300SOL    HW223734  13.384   7.603  10.019
 7301SOL     OW23735   6.019   4.004   6.849
 7301SOL    HW123736   6.094   3.949   6.870
 7301SOL    HW223737   6.057   4.084   6.814
 7302SOL     OW23738   3.982  13.077   2.033
 7302SOL    HW123739   4.045  13.019   2.075
 7302SOL    HW223740   4.014  13.087   1.944
 7303SOL     OW23741   6.075  12.361   2.144
 7303SOL    HW123742   6.116  12.362   2.057
 7303SOL    HW223743   6.032  12.275   2.149
 7304SOL     OW23744  14.697   5.174  11.012
 7304SOL    HW123745  14.734   5.092  10.978
 7304SOL    HW223746  14.771   5.219  11.052
 7305SOL     OW23747   8.025   1.794  12.525
 7305SOL    HW123748   8.043   1.881  12.490
 7305SOL    HW223749   7.990   1.809  12.613
 7306SOL     OW23750   3.353  11.062   0.375
 7306SOL    HW123751   3.427  11.082   0.318
 7306SOL    HW223752   3.326  11.147   0.410
 7307SOL     OW23753   4.144  10.120  14.873
 7307SOL    HW123754   4.102  10.085   0.073
 7307SOL    HW223755   4.223  10.163   0.026
 7308SOL     OW23756  10.909  11.529   4.711
 7308SOL    HW123757  10.943  11.590   4.646
 7308SOL    HW223758  10.819  11.513   4.684
 7309SOL     OW23759  14.268   0.588   4.910
 7309SOL    HW123760  14.258   0.665   4.967
 7309SOL    HW223761  14.207   0.524   4.946
 7310SOL     OW23762  10.078   1.131  10.271
 7310SOL    HW123763  10.102   1.111  10.362
 7310SOL    HW223764  10.127   1.209  10.249
 7311SOL     OW23765   0.543   7.979   7.150
 7311SOL    HW123766   0.603   8.019   7.213
 7311SOL    HW223767   0.509   8.053   7.099
 7312SOL     OW23768   2.484   5.066   8.849
 7312SOL    HW123769   2.412   5.117   8.811
 7312SOL    HW223770   2.477   4.980   8.807
 7313SOL     OW23771   0.489  12.784  14.427
 7313SOL    HW123772   0.512  12.714  14.366
 7313SOL    HW223773   0.507  12.747  14.514
 7314SOL     OW23774  10.274  14.297   9.134
 7314SOL    HW123775  10.318  14.366   9.183
 7314SOL    HW223776  10.233  14.342   9.060
 7315SOL     OW23777   3.762   9.278   6.620
 7315SOL    HW123778   3.718   9.206   6.574
 7315SOL    HW223779   3.754   9.353   6.560
 7316SOL     OW23780  14.392   5.986   9.100
 7316SOL    HW123781  14.348   6.069   9.084
 7316SOL    HW223782  14.321   5.924   9.116
 7317SOL     OW23783  12.022   9.675   9.527
 7317SOL    HW123784  11.946   9.698   9.473
 7317SOL    HW223785  12.059   9.597   9.484
 7318SOL     OW23786   6.412   0.019   8.301
 7318SOL    HW123787   6.457  14.825   8.260
 7318SOL    HW223788   6.319  14.878   8.290
 7319SOL     OW23789   2.948  14.750  14.098
 7319SOL    HW123790   2.854  14.764  14.089
 7319SOL    HW223791   2.983  14.761  14.010
 7320SOL     OW23792   1.390   2.017  11.396
 7320SOL    HW123793   1.458   1.950  11.409
 7320SOL    HW223794   1.402   2.077  11.470
 7321SOL     OW23795   8.390   4.419  10.850
 7321SOL    HW123796   8.338   4.499  10.853
 7321SOL    HW223797   8.359   4.368  10.925
 7322SOL     OW23798   6.040  10.106   7.783
 7322SOL    HW123799   5.982  10.182   7.790
 7322SOL    HW223800   6.097  10.111   7.860
 7323SOL     OW23801  10.922  13.692   3.833
 7323SOL    HW123802  11.018  13.689   3.826
 7323SOL    HW223803  10.894  13.748   3.761
 7324SOL     OW23804  14.249  12.712   6.513
 7324SOL    HW123805  14.282  12.722   6.424
 7324SOL    HW223806  14.290  12.631   6.544
 7325SOL     OW23807  12.322  11.291  13.001
 7325SOL    HW123808  12.252  11.243  12.956
 7325SOL    HW223809  12.390  11.301  12.935
 7326SOL     OW23810   5.947  10.405   1.957
 7326SOL    HW123811   6.029  10.391   1.909
 7326SOL    HW223812   5.952  10.343   2.030
 7327SOL     OW23813  14.875   2.114  14.784
 7327SOL    HW123814  14.852   2.106  14.691
 7327SOL    HW223815  14.815   2.053  14.828
 7328SOL     OW23816   2.443   5.736   4.218
 7328SOL    HW123817   2.422   5.824   4.249
 7328SOL    HW223818   2.440   5.681   4.297
 7329SOL     OW23819   4.096   9.802   2.239
 7329SOL    HW123820   4.093   9.838   2.328
 7329SOL    HW223821   4.059   9.714   2.247
 7330SOL     OW23822   9.421   3.427   3.289
 7330SOL    HW123823   9.500   3.472   3.258
 7330SOL    HW223824   9.389   3.483   3.360
 7331SOL     OW23825  11.922   6.504   8.715
 7331SOL    HW123826  11.846   6.478   8.767
 7331SOL    HW223827  11.987   6.436   8.731
 7332SOL     OW23828  12.320   2.103  11.303
 7332SOL    HW123829  12.320   2.122  11.397
 7332SOL    HW223830  12.230   2.123  11.275
 7333SOL     OW23831   6.938   9.494   3.850
 7333SOL    HW123832   6.909   9.495   3.941
 7333SOL    HW223833   6.912   9.408   3.818
 7334SOL     OW23834   7.419   3.956  13.811
 7334SOL    HW123835   7.448   3.939  13.900
 7334SOL    HW223836   7.495   3.997  13.768
 7335SOL     OW23837  12.056   2.538  13.426
 7335SOL    HW123838  12.081   2.603  13.360
 7335SOL    HW223839  12.130   2.477  13.427
 7336SOL     OW23840   2.751   3.492   9.868
 7336SOL    HW123841   2.707   3.519   9.788
 7336SOL    HW223842   2.841   3.474   9.842
 7337SOL     OW23843   9.558   3.294  10.692
 7337SOL    HW123844   9.538   3.383  10.664
 7337SOL    HW223845   9.559   3.243  10.612
 7338SOL     OW23846  10.333  11.385   4.694
 7338SOL    HW123847  10.251  11.347   4.723
 7338SOL    HW223848  10.386  11.394   4.773
 7339SOL     OW23849   2.420   4.558  10.925
 7339SOL    HW123850   2.430   4.557  11.020
 7339SOL    HW223851   2.347   4.497  10.908
 7340SOL     OW23852   6.339  10.416  10.228
 7340SOL    HW123853   6.421  10.366  10.226
 7340SOL    HW223854   6.310  10.411  10.319
 7341SOL     OW23855   8.657   3.153   1.999
 7341SOL    HW123856   8.644   3.248   1.990
 7341SOL    HW223857   8.725   3.132   1.935
 7342SOL     OW23858   6.532   0.243   8.377
 7342SOL    HW123859   6.508   0.152   8.360
 7342SOL    HW223860   6.596   0.264   8.309
 7343SOL     OW23861  12.524   9.470  12.461
 7343SOL    HW123862  12.618   9.457  12.475
 7343SOL    HW223863  12.482   9.417  12.528
 7344SOL     OW23864  13.521   9.334   9.551
 7344SOL    HW123865  13.554   9.378   9.473
 7344SOL    HW223866  13.487   9.405   9.606
 7345SOL     OW23867   7.402   3.509   5.455
 7345SOL    HW123868   7.456   3.501   5.534
 7345SOL    HW223869   7.447   3.574   5.401
 7346SOL     OW23870   4.501   7.676   6.533
 7346SOL    HW123871   4.522   7.724   6.613
 7346SOL    HW223872   4.415   7.637   6.549
 7347SOL     OW23873  12.324   1.063   6.833
 7347SOL    HW123874  12.366   1.108   6.760
 7347SOL    HW223875  12.393   1.007   6.870
 7348SOL     OW23876   4.274   8.532   0.324
 7348SOL    HW123877   4.291   8.595   0.394
 7348SOL    HW223878   4.356   8.527   0.275
 7349SOL     OW23879   7.827   4.139   5.639
 7349SOL    HW123880   7.760   4.141   5.708
 7349SOL    HW223881   7.866   4.052   5.646
 7350SOL     OW23882   0.474   4.257  11.259
 7350SOL    HW123883   0.426   4.245  11.340
 7350SOL    HW223884   0.487   4.352  11.252
 7351SOL     OW23885  11.635   2.542   1.773
 7351SOL    HW123886  11.586   2.481   1.828
 7351SOL    HW223887  11.586   2.624   1.779
 7352SOL     OW23888  10.955   2.488  11.939
 7352SOL    HW123889  10.873   2.537  11.941
 7352SOL    HW223890  10.942   2.418  12.003
 7353SOL     OW23891  14.040  12.542  12.035
 7353SOL    HW123892  13.978  12.474  12.060
 7353SOL    HW223893  14.043  12.601  12.111
 7354SOL     OW23894  10.540  12.191   9.917
 7354SOL    HW123895  10.614  12.249   9.934
 7354SOL    HW223896  10.578  12.104   9.910
 7355SOL     OW23897   5.039  13.752   8.424
 7355SOL    HW123898   4.948  13.779   8.408
 7355SOL    HW223899   5.076  13.824   8.475
 7356SOL     OW23900  13.895   4.531   6.090
 7356SOL    HW123901  13.962   4.463   6.104
 7356SOL    HW223902  13.939   4.613   6.112
 7357SOL     OW23903   5.059   1.293  13.305
 7357SOL    HW123904   5.144   1.301  13.260
 7357SOL    HW223905   4.995   1.290  13.234
 7358SOL     OW23906   8.146  10.244   0.743
 7358SOL    HW123907   8.240  10.253   0.761
 7358SOL    HW223908   8.142  10.211   0.653
 7359SOL     OW23909   8.227   4.997   1.109
 7359SOL    HW123910   8.272   4.923   1.070
 7359SOL    HW223911   8.139   4.964   1.129
 7360SOL     OW23912   4.645  14.654   6.041
 7360SOL    HW123913   4.651  14.564   6.010
 7360SOL    HW223914   4.727  14.695   6.013
 7361SOL     OW23915   4.693  14.047   0.160
 7361SOL    HW123916   4.661  13.999   0.083
 7361SOL    HW223917   4.639  14.125   0.164
 7362SOL     OW23918   2.482   7.360   7.189
 7362SOL    HW123919   2.544   7.356   7.262
 7362SOL    HW223920   2.448   7.450   7.190
 7363SOL     OW23921   2.448   4.597  11.705
 7363SOL    HW123922   2.400   4.524  11.665
 7363SOL    HW223923   2.520   4.555  11.753
 7364SOL     OW23924  13.564   9.197   6.900
 7364SOL    HW123925  13.558   9.206   6.804
 7364SOL    HW223926  13.655   9.216   6.920
 7365SOL     OW23927   2.578  14.487  13.197
 7365SOL    HW123928   2.612  14.502  13.109
 7365SOL    HW223929   2.644  14.524  13.256
 7366SOL     OW23930  13.183   4.240  13.677
 7366SOL    HW123931  13.243   4.205  13.611
 7366SOL    HW223932  13.164   4.166  13.734
 7367SOL     OW23933   5.912   4.010   1.600
 7367SOL    HW123934   6.005   4.032   1.602
 7367SOL    HW223935   5.902   3.958   1.520
 7368SOL     OW23936   2.914   6.390   4.528
 7368SOL    HW123937   2.995   6.423   4.490
 7368SOL    HW223938   2.897   6.449   4.601
 7369SOL     OW23939   8.354  13.406   7.646
 7369SOL    HW123940   8.437  13.372   7.613
 7369SOL    HW223941   8.290  13.337   7.629
 7370SOL     OW23942   5.673  11.614   0.563
 7370SOL    HW123943   5.672  11.563   0.482
 7370SOL    HW223944   5.718  11.695   0.540
 7371SOL     OW23945   0.632   5.119  13.981
 7371SOL    HW123946   0.705   5.095  13.924
 7371SOL    HW223947   0.644   5.066  14.060
 7372SOL     OW23948   3.285  12.362   7.378
 7372SOL    HW123949   3.363  12.310   7.397
 7372SOL    HW223950   3.260  12.336   7.289
 7373SOL     OW23951   2.585  12.447  10.321
 7373SOL    HW123952   2.513  12.491  10.365
 7373SOL    HW223953   2.561  12.355  10.320
 7374SOL     OW23954   4.151  14.347   8.494
 7374SOL    HW123955   4.134  14.433   8.534
 7374SOL    HW223956   4.124  14.284   8.561
 7375SOL     OW23957   3.758   0.981   5.461
 7375SOL    HW123958   3.740   0.938   5.377
 7375SOL    HW223959   3.693   0.945   5.521
 7376SOL     OW23960   7.311   4.489   1.679
 7376SOL    HW123961   7.300   4.570   1.729
 7376SOL    HW223962   7.402   4.491   1.650
 7377SOL     OW23963   5.379   0.232   4.418
 7377SOL    HW123964   5.324   0.279   4.482
 7377SOL    HW223965   5.374   0.140   4.446
 7378SOL     OW23966   7.794  10.710   9.191
 7378SOL    HW123967   7.868  10.750   9.146
 7378SOL    HW223968   7.793  10.753   9.277
 7379SOL     OW23969   1.270   1.181  11.990
 7379SOL    HW123970   1.205   1.131  11.941
 7379SOL    HW223971   1.227   1.198  12.074
 7380SOL     OW23972   6.019   1.151  13.360
 7380SOL    HW123973   5.984   1.156  13.450
 7380SOL    HW223974   5.977   1.224  13.314
 7381SOL     OW23975  11.068   8.740   2.386
 7381SOL    HW123976  11.019   8.725   2.305
 7381SOL    HW223977  11.001   8.751   2.453
 7382SOL     OW23978   0.786  10.797   9.681
 7382SOL    HW123979   0.823  10.734   9.620
 7382SOL    HW223980   0.692  10.790   9.668
 7383SOL     OW23981   3.477   9.581   2.900
 7383SOL    HW123982   3.442   9.498   2.933
 7383SOL    HW223983   3.427   9.600   2.821
 7384SOL     OW23984   2.211   1.432   8.105
 7384SOL    HW123985   2.148   1.454   8.174
 7384SOL    HW223986   2.242   1.344   8.127
 7385SOL     OW23987   4.398   8.569   5.980
 7385SOL    HW123988   4.455   8.503   5.940
 7385SOL    HW223989   4.374   8.626   5.907
 7386SOL     OW23990   3.587  13.548  12.315
 7386SOL    HW123991   3.601  13.468  12.367
 7386SOL    HW223992   3.541  13.607  12.375
 7387SOL     OW23993  13.176  13.245   1.686
 7387SOL    HW123994  13.235  13.258   1.760
 7387SOL    HW223995  13.089  13.268   1.721
 7388SOL     OW23996  11.105   5.819   1.319
 7388SOL    HW123997  11.019   5.860   1.329
 7388SOL    HW223998  11.154   5.879   1.262
 7389SOL     OW23999   4.989   9.933   0.812
 7389SOL    HW124000   4.972   9.910   0.903
 7389SOL    HW224001   5.064   9.879   0.787
 7390SOL     OW24002  14.664   2.019   4.541
 7390SOL    HW124003  14.723   2.056   4.475
 7390SOL    HW224004  14.678   1.925   4.536
 7391SOL     OW24005  13.468   6.167   1.818
 7391SOL    HW124006  13.459   6.076   1.845
 7391SOL    HW224007  13.561   6.186   1.828
 7392SOL     OW24008   1.923   0.267   1.997
 7392SOL    HW124009   1.906   0.354   1.961
 7392SOL    HW224010   1.966   0.284   2.081
 7393SOL     OW24011   0.890   6.723   2.769
 7393SOL    HW124012   0.943   6.803   2.773
 7393SOL    HW224013   0.833   6.729   2.845
 7394SOL     OW24014  11.607   8.450   6.430
 7394SOL    HW124015  11.579   8.486   6.346
 7394SOL    HW224016  11.677   8.389   6.408
 7395SOL     OW24017  13.886   7.839   2.263
 7395SOL    HW124018  13.958   7.878   2.213
 7395SOL    HW224019  13.840   7.784   2.200
 7396SOL     OW24020   5.439   9.820   2.918
 7396SOL    HW124021   5.503   9.754   2.946
 7396SOL    HW224022   5.410   9.862   2.999
 7397SOL     OW24023   1.851   1.885  12.125
 7397SOL    HW124024   1.918   1.852  12.185
 7397SOL    HW224025   1.816   1.962  12.169
 7398SOL     OW24026  10.561   9.813  12.383
 7398SOL    HW124027  10.503   9.737  12.392
 7398SOL    HW224028  10.551   9.860  12.466
 7399SOL     OW24029  13.467  11.208   8.836
 7399SOL    HW124030  13.502  11.195   8.924
 7399SOL    HW224031  13.390  11.263   8.849
 7400SOL     OW24032   0.073  13.052   1.938
 7400SOL    HW124033   0.076  12.994   2.014
 7400SOL    HW224034   0.110  13.134   1.969
 7401SOL     OW24035   8.155  12.364  13.605
 7401SOL    HW124036   8.243  12.401  13.618
 7401SOL    HW224037   8.163  12.274  13.636
 7402SOL     OW24038  14.495   3.699   7.217
 7402SOL    HW124039  14.571   3.641   7.222
 7402SOL    HW224040  14.419   3.641   7.219
 7403SOL     OW24041   5.583   3.691   6.191
 7403SOL    HW124042   5.565   3.602   6.223
 7403SOL    HW224043   5.503   3.714   6.143
 7404SOL     OW24044  11.848  13.644   3.977
 7404SOL    HW124045  11.763  13.663   4.016
 7404SOL    HW224046  11.880  13.567   4.025
 7405SOL     OW24047   7.662   7.002  11.928
 7405SOL    HW124048   7.667   7.034  12.018
 7405SOL    HW224049   7.654   6.907  11.936
 7406SOL     OW24050  10.498  10.889   8.848
 7406SOL    HW124051  10.593  10.877   8.856
 7406SOL    HW224052  10.464  10.867   8.935
 7407SOL     OW24053  14.415  10.656   5.475
 7407SOL    HW124054  14.491  10.685   5.525
 7407SOL    HW224055  14.397  10.727   5.414
 7408SOL     OW24056   7.977   6.741   1.291
 7408SOL    HW124057   8.046   6.729   1.225
 7408SOL    HW224058   8.002   6.820   1.338
 7409SOL     OW24059  13.418   4.836   5.562
 7409SOL    HW124060  13.367   4.772   5.611
 7409SOL    HW224061  13.476   4.876   5.627
 7410SOL     OW24062   0.109   6.059   7.180
 7410SOL    HW124063   0.064   5.976   7.199
 7410SOL    HW224064   0.183   6.060   7.242
 7411SOL     OW24065   2.103  13.670   4.094
 7411SOL    HW124066   2.043  13.626   4.034
 7411SOL    HW224067   2.150  13.733   4.039
 7412SOL     OW24068  12.941   4.962   6.780
 7412SOL    HW124069  13.029   4.936   6.751
 7412SOL    HW224070  12.953   5.052   6.811
 7413SOL     OW24071   5.939   1.020   8.143
 7413SOL    HW124072   5.905   1.069   8.218
 7413SOL    HW224073   5.866   0.963   8.118
 7414SOL     OW24074  10.016   6.058   3.404
 7414SOL    HW124075  10.050   6.118   3.469
 7414SOL    HW224076  10.068   6.074   3.326
 7415SOL     OW24077   7.557  10.768   3.756
 7415SOL    HW124078   7.599  10.691   3.795
 7415SOL    HW224079   7.465  10.744   3.747
 7416SOL     OW24080  13.683  14.360   7.589
 7416SOL    HW124081  13.684  14.300   7.515
 7416SOL    HW224082  13.595  14.397   7.589
 7417SOL     OW24083   2.531   3.808   9.657
 7417SOL    HW124084   2.454   3.863   9.669
 7417SOL    HW224085   2.570   3.840   9.575
 7418SOL     OW24086   0.504   2.569   7.484
 7418SOL    HW124087   0.593   2.537   7.465
 7418SOL    HW224088   0.500   2.575   7.579
 7419SOL     OW24089   5.169   9.412   1.975
 7419SOL    HW124090   5.204   9.367   1.898
 7419SOL    HW224091   5.239   9.471   2.002
 7420SOL     OW24092  14.205   7.274   2.294
 7420SOL    HW124093  14.276   7.249   2.235
 7420SOL    HW224094  14.187   7.195   2.346
 7421SOL     OW24095   0.774  14.584   9.839
 7421SOL    HW124096   0.786  14.541   9.754
 7421SOL    HW224097   0.788  14.514   9.903
 7422SOL     OW24098   8.843  13.190  12.819
 7422SOL    HW124099   8.865  13.124  12.753
 7422SOL    HW224100   8.814  13.266  12.768
 7423SOL     OW24101  12.855  11.784  11.279
 7423SOL    HW124102  12.892  11.747  11.359
 7423SOL    HW224103  12.913  11.755  11.209
 7424SOL     OW24104   6.210  11.153  13.753
 7424SOL    HW124105   6.175  11.240  13.770
 7424SOL    HW224106   6.304  11.166  13.737
 7425SOL     OW24107   4.892   6.766   1.112
 7425SOL    HW124108   4.977   6.808   1.103
 7425SOL    HW224109   4.828   6.834   1.089
 7426SOL     OW24110   6.757   2.801   2.231
 7426SOL    HW124111   6.770   2.801   2.136
 7426SOL    HW224112   6.715   2.885   2.249
 7427SOL     OW24113   8.684   1.354  11.209
 7427SOL    HW124114   8.593   1.351  11.178
 7427SOL    HW224115   8.685   1.294  11.284
 7428SOL     OW24116  12.942   6.801   6.186
 7428SOL    HW124117  12.855   6.838   6.171
 7428SOL    HW224118  12.925   6.710   6.210
 7429SOL     OW24119  12.447   8.765  10.780
 7429SOL    HW124120  12.454   8.860  10.780
 7429SOL    HW224121  12.473   8.739  10.691
 7430SOL     OW24122  10.771   4.140   6.737
 7430SOL    HW124123  10.786   4.058   6.690
 7430SOL    HW224124  10.748   4.113   6.826
 7431SOL     OW24125   0.490   3.670   9.910
 7431SOL    HW124126   0.445   3.698   9.990
 7431SOL    HW224127   0.423   3.621   9.861
 7432SOL     OW24128  12.937   8.694   3.249
 7432SOL    HW124129  12.851   8.684   3.209
 7432SOL    HW224130  12.938   8.784   3.281
 7433SOL     OW24131  10.769  11.854   6.296
 7433SOL    HW124132  10.682  11.887   6.271
 7433SOL    HW224133  10.790  11.902   6.376
 7434SOL     OW24134   9.587  13.167   6.507
 7434SOL    HW124135   9.523  13.197   6.571
 7434SOL    HW224136   9.672  13.181   6.549
 7435SOL     OW24137   6.702   4.000   4.811
 7435SOL    HW124138   6.702   3.919   4.860
 7435SOL    HW224139   6.610   4.026   4.806
 7436SOL     OW24140   9.269   5.160   6.497
 7436SOL    HW124141   9.341   5.213   6.533
 7436SOL    HW224142   9.190   5.195   6.537
 7437SOL     OW24143   3.075   3.861  10.819
 7437SOL    HW124144   3.142   3.803  10.857
 7437SOL    HW224145   3.032   3.807  10.752
 7438SOL     OW24146   6.825   9.581  13.986
 7438SOL    HW124147   6.766   9.656  13.988
 7438SOL    HW224148   6.820   9.548  13.896
 7439SOL     OW24149   7.539   1.936   1.367
 7439SOL    HW124150   7.577   2.018   1.337
 7439SOL    HW224151   7.598   1.868   1.333
 7440SOL     OW24152   9.680   8.223   8.594
 7440SOL    HW124153   9.696   8.193   8.683
 7440SOL    HW224154   9.631   8.152   8.552
 7441SOL     OW24155   2.280   9.888  13.936
 7441SOL    HW124156   2.279   9.820  13.869
 7441SOL    HW224157   2.354   9.865  13.992
 7442SOL     OW24158   8.564  10.148   1.466
 7442SOL    HW124159   8.533  10.081   1.405
 7442SOL    HW224160   8.544  10.113   1.553
 7443SOL     OW24161  13.417  11.165   6.539
 7443SOL    HW124162  13.353  11.203   6.599
 7443SOL    HW224163  13.475  11.238   6.518
 7444SOL     OW24164   9.561  13.351   7.268
 7444SOL    HW124165   9.645  13.365   7.226
 7444SOL    HW224166   9.560  13.257   7.290
 7445SOL     OW24167  10.242  11.136   1.213
 7445SOL    HW124168  10.194  11.105   1.136
 7445SOL    HW224169  10.309  11.070   1.228
 7446SOL     OW24170  12.849  14.365  12.113
 7446SOL    HW124171  12.883  14.448  12.079
 7446SOL    HW224172  12.755  14.380  12.123
 7447SOL     OW24173   9.483  14.856  13.492
 7447SOL    HW124174   9.391  14.833  13.492
 7447SOL    HW224175   9.487   0.058  13.441
 7448SOL     OW24176  10.982   0.097   5.563
 7448SOL    HW124177  10.954   0.006   5.551
 7448SOL    HW224178  11.047   0.093   5.633
 7449SOL     OW24179   6.305   5.536  12.641
 7449SOL    HW124180   6.327   5.619  12.598
 7449SOL    HW224181   6.351   5.540  12.725
 7450SOL     OW24182   1.386  10.562   1.742
 7450SOL    HW124183   1.454  10.597   1.684
 7450SOL    HW224184   1.367  10.475   1.707
 7451SOL     OW24185   3.463   1.564   2.337
 7451SOL    HW124186   3.405   1.491   2.315
 7451SOL    HW224187   3.540   1.522   2.376
 7452SOL     OW24188  11.228   4.842   1.130
 7452SOL    HW124189  11.143   4.852   1.086
 7452SOL    HW224190  11.262   4.931   1.136
 7453SOL     OW24191   1.764   8.319   5.290
 7453SOL    HW124192   1.820   8.291   5.218
 7453SOL    HW224193   1.694   8.368   5.248
 7454SOL     OW24194   8.890  14.762   3.270
 7454SOL    HW124195   8.865  14.747   3.179
 7454SOL    HW224196   8.933  14.848   3.269
 7455SOL     OW24197  14.318   7.400  13.969
 7455SOL    HW124198  14.387   7.335  13.982
 7455SOL    HW224199  14.362   7.484  13.973
 7456SOL     OW24200   3.607  13.625   8.436
 7456SOL    HW124201   3.653  13.611   8.518
 7456SOL    HW224202   3.633  13.552   8.380
 7457SOL     OW24203  11.486   6.136  11.946
 7457SOL    HW124204  11.479   6.047  11.980
 7457SOL    HW224205  11.495   6.125  11.851
 7458SOL     OW24206  11.528  12.423   6.973
 7458SOL    HW124207  11.448  12.446   6.925
 7458SOL    HW224208  11.573  12.362   6.915
 7459SOL     OW24209   2.979   1.331   6.946
 7459SOL    HW124210   2.927   1.256   6.973
 7459SOL    HW224211   3.011   1.309   6.859
 7460SOL     OW24212   0.576   6.000   8.060
 7460SOL    HW124213   0.594   6.076   8.116
 7460SOL    HW224214   0.615   5.926   8.107
 7461SOL     OW24215   9.941  13.337   4.511
 7461SOL    HW124216   9.873  13.404   4.500
 7461SOL    HW224217   9.926  13.302   4.599
 7462SOL     OW24218  10.018   1.330   1.869
 7462SOL    HW124219  10.110   1.327   1.895
 7462SOL    HW224220   9.971   1.301   1.947
 7463SOL     OW24221   4.562   6.407   6.090
 7463SOL    HW124222   4.623   6.335   6.109
 7463SOL    HW224223   4.482   6.383   6.136
 7464SOL     OW24224   2.035  11.413   5.294
 7464SOL    HW124225   2.112  11.373   5.334
 7464SOL    HW224226   2.021  11.493   5.345
 7465SOL     OW24227   4.674   9.859  13.426
 7465SOL    HW124228   4.740   9.899  13.370
 7465SOL    HW224229   4.714   9.777  13.456
 7466SOL     OW24230  12.162   4.935  13.764
 7466SOL    HW124231  12.162   5.030  13.764
 7466SOL    HW224232  12.101   4.911  13.693
 7467SOL     OW24233  10.430   6.042  14.756
 7467SOL    HW124234  10.348   6.091  14.753
 7467SOL    HW224235  10.462   6.044  14.666
 7468SOL     OW24236  10.125  11.416   7.275
 7468SOL    HW124237  10.076  11.374   7.204
 7468SOL    HW224238  10.113  11.357   7.350
 7469SOL     OW24239   0.488   6.810   8.672
 7469SOL    HW124240   0.436   6.790   8.594
 7469SOL    HW224241   0.427   6.851   8.733
 7470SOL     OW24242   0.841   1.745   2.570
 7470SOL    HW124243   0.766   1.776   2.620
 7470SOL    HW224244   0.917   1.760   2.627
 7471SOL     OW24245  12.448   1.413  13.272
 7471SOL    HW124246  12.390   1.337  13.266
 7471SOL    HW224247  12.403   1.482  13.223
 7472SOL     OW24248   3.438   3.972   5.095
 7472SOL    HW124249   3.399   3.957   5.009
 7472SOL    HW224250   3.368   4.015   5.145
 7473SOL     OW24251  12.032  14.163   1.624
 7473SOL    HW124252  12.017  14.248   1.582
 7473SOL    HW224253  11.964  14.106   1.589
 7474SOL     OW24254  14.196   5.768  10.322
 7474SOL    HW124255  14.139   5.751  10.247
 7474SOL    HW224256  14.139   5.757  10.398
 7475SOL     OW24257   1.612  14.325   7.047
 7475SOL    HW124258   1.651  14.271   6.979
 7475SOL    HW224259   1.595  14.409   7.005
 7476SOL     OW24260  13.917   8.309   9.838
 7476SOL    HW124261  13.952   8.387   9.795
 7476SOL    HW224262  13.829   8.333   9.864
 7477SOL     OW24263   0.764   8.362   9.898
 7477SOL    HW124264   0.725   8.450   9.892
 7477SOL    HW224265   0.699   8.304   9.859
 7478SOL     OW24266   2.236   4.354   8.219
 7478SOL    HW124267   2.204   4.432   8.174
 7478SOL    HW224268   2.242   4.287   8.150
 7479SOL     OW24269   7.874   0.791   7.829
 7479SOL    HW124270   7.854   0.813   7.920
 7479SOL    HW224271   7.875   0.696   7.828
 7480SOL     OW24272  13.726  12.423  10.435
 7480SOL    HW124273  13.633  12.420  10.456
 7480SOL    HW224274  13.739  12.509  10.396
 7481SOL     OW24275   5.492  11.682   8.042
 7481SOL    HW124276   5.425  11.737   8.082
 7481SOL    HW224277   5.452  11.596   8.036
 7482SOL     OW24278   0.524   4.633   0.364
 7482SOL    HW124279   0.570   4.585   0.296
 7482SOL    HW224280   0.460   4.687   0.317
 7483SOL     OW24281   4.056   9.567   3.731
 7483SOL    HW124282   4.088   9.482   3.761
 7483SOL    HW224283   4.125   9.599   3.673
 7484SOL     OW24284   9.005   2.756   2.465
 7484SOL    HW124285   8.925   2.809   2.465
 7484SOL    HW224286   9.058   2.793   2.536
 7485SOL     OW24287   4.881   7.744  14.785
 7485SOL    HW124288   4.895   7.677  14.853
 7485SOL    HW224289   4.792   7.775  14.801
 7486SOL     OW24290  12.505  14.833   9.506
 7486SOL    HW124291  12.507  14.855   9.599
 7486SOL    HW224292  12.440  14.763   9.499
 7487SOL     OW24293   7.442   5.123  13.100
 7487SOL    HW124294   7.466   5.030  13.103
 7487SOL    HW224295   7.475   5.154  13.016
 7488SOL     OW24296   5.967  10.712  14.840
 7488SOL    HW124297   5.920  10.724   0.044
 7488SOL    HW224298   5.983  10.617  14.836
 7489SOL     OW24299  12.393   9.047  12.851
 7489SOL    HW124300  12.367   8.956  12.866
 7489SOL    HW224301  12.319   9.098  12.883
 7490SOL     OW24302   0.378   4.424  11.015
 7490SOL    HW124303   0.388   4.464  11.102
 7490SOL    HW224304   0.441   4.351  11.016
 7491SOL     OW24305  11.248   4.874   4.055
 7491SOL    HW124306  11.209   4.865   4.142
 7491SOL    HW224307  11.249   4.785   4.020
 7492SOL     OW24308   2.615   8.649   4.667
 7492SOL    HW124309   2.543   8.597   4.701
 7492SOL    HW224310   2.585   8.740   4.676
 7493SOL     OW24311  11.886   1.838  11.511
 7493SOL    HW124312  11.941   1.916  11.512
 7493SOL    HW224313  11.948   1.765  11.513
 7494SOL     OW24314  13.222   1.913   1.260
 7494SOL    HW124315  13.226   1.860   1.340
 7494SOL    HW224316  13.143   1.883   1.215
 7495SOL     OW24317   2.316   4.314  10.186
 7495SOL    HW124318   2.283   4.332  10.274
 7495SOL    HW224319   2.388   4.253  10.200
 7496SOL     OW24320  14.627   2.814   8.368
 7496SOL    HW124321  14.610   2.805   8.274
 7496SOL    HW224322  14.649   2.906   8.380
 7497SOL     OW24323   1.193  12.710   3.037
 7497SOL    HW124324   1.128  12.688   2.970
 7497SOL    HW224325   1.147  12.769   3.097
 7498SOL     OW24326   6.126   0.212   4.355
 7498SOL    HW124327   6.065   0.162   4.409
 7498SOL    HW224328   6.071   0.245   4.283
 7499SOL     OW24329   0.851  11.391   7.312
 7499SOL    HW124330   0.784  11.395   7.244
 7499SOL    HW224331   0.835  11.308   7.357
 7500SOL     OW24332   2.338   7.112   1.666
 7500SOL    HW124333   2.378   7.045   1.722
 7500SOL    HW224334   2.288   7.063   1.601
 7501SOL     OW24335  12.531   1.921  11.877
 7501SOL    HW124336  12.621   1.895  11.899
 7501SOL    HW224337  12.483   1.838  11.874
 7502SOL     OW24338  12.877   1.386   3.892
 7502SOL    HW124339  12.855   1.474   3.864
 7502SOL    HW224340  12.880   1.335   3.811
 7503SOL     OW24341   7.420   4.738  11.117
 7503SOL    HW124342   7.461   4.672  11.173
 7503SOL    HW224343   7.336   4.700  11.092
 7504SOL     OW24344  10.111   9.843   6.410
 7504SOL    HW124345  10.031   9.879   6.450
 7504SOL    HW224346  10.147   9.915   6.359
 7505SOL     OW24347   6.407   5.671   0.314
 7505SOL    HW124348   6.471   5.664   0.386
 7505SOL    HW224349   6.461   5.681   0.236
 7506SOL     OW24350   4.377  10.115   2.441
 7506SOL    HW124351   4.343  10.140   2.527
 7506SOL    HW224352   4.472  10.123   2.449
 7507SOL     OW24353  12.465   4.456   0.746
 7507SOL    HW124354  12.428   4.385   0.799
 7507SOL    HW224355  12.437   4.436   0.656
 7508SOL     OW24356  10.725   0.624   5.887
 7508SOL    HW124357  10.814   0.613   5.921
 7508SOL    HW224358  10.670   0.628   5.964
 7509SOL     OW24359  11.659   5.447   0.569
 7509SOL    HW124360  11.751   5.461   0.548
 7509SOL    HW224361  11.611   5.487   0.496
 7510SOL     OW24362   0.656  12.267  12.758
 7510SOL    HW124363   0.604  12.187  12.767
 7510SOL    HW224364   0.742  12.242  12.791
 7511SOL     OW24365   7.926  12.705   5.549
 7511SOL    HW124366   7.870  12.766   5.597
 7511SOL    HW224367   7.982  12.761   5.496
 7512SOL     OW24368  13.559  14.670  13.308
 7512SOL    HW124369  13.525  14.712  13.229
 7512SOL    HW224370  13.579  14.580  13.281
 7513SOL     OW24371  10.862  13.681   1.510
 7513SOL    HW124372  10.799  13.650   1.575
 7513SOL    HW224373  10.885  13.769   1.540
 7514SOL     OW24374   1.727   1.969   9.384
 7514SOL    HW124375   1.748   1.880   9.413
 7514SOL    HW224376   1.718   2.019   9.466
 7515SOL     OW24377   1.142   3.398   0.118
 7515SOL    HW124378   1.134   3.309   0.151
 7515SOL    HW224379   1.179   3.448   0.191
 7516SOL     OW24380  14.030   2.340   5.519
 7516SOL    HW124381  14.045   2.253   5.557
 7516SOL    HW224382  13.982   2.388   5.586
 7517SOL     OW24383   5.474   6.936   7.256
 7517SOL    HW124384   5.536   6.900   7.193
 7517SOL    HW224385   5.520   7.010   7.296
 7518SOL     OW24386  14.505   4.534   2.752
 7518SOL    HW124387  14.513   4.458   2.695
 7518SOL    HW224388  14.590   4.539   2.797
 7519SOL     OW24389   3.468  12.123   5.898
 7519SOL    HW124390   3.541  12.080   5.854
 7519SOL    HW224391   3.461  12.208   5.855
 7520SOL     OW24392  11.856   9.981   6.835
 7520SOL    HW124393  11.915  10.038   6.784
 7520SOL    HW224394  11.877   9.892   6.804
 7521SOL     OW24395   1.749   6.398   6.987
 7521SOL    HW124396   1.760   6.477   6.934
 7521SOL    HW224397   1.838   6.372   7.011
 7522SOL     OW24398   1.848  13.620   8.051
 7522SOL    HW124399   1.815  13.616   7.961
 7522SOL    HW224400   1.941  13.643   8.042
 7523SOL     OW24401   5.527   0.220   1.085
 7523SOL    HW124402   5.529   0.303   1.037
 7523SOL    HW224403   5.445   0.179   1.058
 7524SOL     OW24404   3.110  11.845   2.204
 7524SOL    HW124405   3.033  11.847   2.148
 7524SOL    HW224406   3.083  11.892   2.283
 7525SOL     OW24407   0.842   2.412  12.266
 7525SOL    HW124408   0.752   2.386  12.285
 7525SOL    HW224409   0.888   2.402  12.350
 7526SOL     OW24410   3.264   9.482  12.459
 7526SOL    HW124411   3.341   9.471  12.403
 7526SOL    HW224412   3.258   9.401  12.509
 7527SOL     OW24413   4.893   5.691  14.272
 7527SOL    HW124414   4.943   5.705  14.353
 7527SOL    HW224415   4.803   5.712  14.296
 7528SOL     OW24416  14.100   5.310   1.182
 7528SOL    HW124417  14.156   5.357   1.243
 7528SOL    HW224418  14.012   5.340   1.202
 7529SOL     OW24419  14.514   9.462  10.855
 7529SOL    HW124420  14.554   9.407  10.923
 7529SOL    HW224421  14.552   9.429  10.774
 7530SOL     OW24422   2.202   8.239   3.470
 7530SOL    HW124423   2.283   8.278   3.501
 7530SOL    HW224424   2.214   8.230   3.375
 7531SOL     OW24425  14.360   6.069   8.110
 7531SOL    HW124426  14.322   6.014   8.179
 7531SOL    HW224427  14.423   6.125   8.156
 7532SOL     OW24428   7.264  13.229   4.159
 7532SOL    HW124429   7.211  13.294   4.114
 7532SOL    HW224430   7.215  13.147   4.150
 7533SOL     OW24431  10.832   3.929  12.730
 7533SOL    HW124432  10.835   3.942  12.635
 7533SOL    HW224433  10.919   3.895  12.752
 7534SOL     OW24434  12.194   0.954  14.538
 7534SOL    HW124435  12.153   1.041  14.538
 7534SOL    HW224436  12.134   0.899  14.588
 7535SOL     OW24437  14.840   2.671  10.189
 7535SOL    HW124438  14.766   2.655  10.131
 7535SOL    HW224439  14.841   2.595  10.248
 7536SOL     OW24440  12.783   0.350   1.354
 7536SOL    HW124441  12.855   0.413   1.357
 7536SOL    HW224442  12.825   0.265   1.370
 7537SOL     OW24443  11.919   9.943   5.067
 7537SOL    HW124444  11.832   9.911   5.045
 7537SOL    HW224445  11.936   9.910   5.155
 7538SOL     OW24446   7.474   8.604   1.447
 7538SOL    HW124447   7.468   8.562   1.533
 7538SOL    HW224448   7.567   8.620   1.434
 7539SOL     OW24449   9.832   4.093  11.489
 7539SOL    HW124450   9.807   4.144  11.566
 7539SOL    HW224451   9.790   4.137  11.415
 7540SOL     OW24452   0.764   9.765  11.731
 7540SOL    HW124453   0.851   9.793  11.761
 7540SOL    HW224454   0.780   9.681  11.688
 7541SOL     OW24455   1.832  10.197   4.640
 7541SOL    HW124456   1.903  10.144   4.676
 7541SOL    HW224457   1.752  10.150   4.664
 7542SOL     OW24458   6.899   2.914   4.365
 7542SOL    HW124459   6.903   2.861   4.285
 7542SOL    HW224460   6.977   2.969   4.361
 7543SOL     OW24461   1.691   8.358   3.405
 7543SOL    HW124462   1.747   8.281   3.412
 7543SOL    HW224463   1.684   8.373   3.310
 7544SOL     OW24464   9.438   6.169   2.505
 7544SOL    HW124465   9.417   6.076   2.494
 7544SOL    HW224466   9.371   6.202   2.564
 7545SOL     OW24467  14.000   1.992   0.175
 7545SOL    HW124468  13.985   1.969   0.267
 7545SOL    HW224469  13.925   1.955   0.129
 7546SOL     OW24470   4.273   4.639  10.497
 7546SOL    HW124471   4.257   4.546  10.486
 7546SOL    HW224472   4.204   4.669  10.556
 7547SOL     OW24473   6.729   6.336  14.847
 7547SOL    HW124474   6.809   6.374  14.810
 7547SOL    HW224475   6.671   6.324  14.773
 7548SOL     OW24476   7.763   4.354  13.039
 7548SOL    HW124477   7.768   4.270  12.995
 7548SOL    HW224478   7.714   4.410  12.979
 7549SOL     OW24479   8.244   2.138  11.332
 7549SOL    HW124480   8.236   2.232  11.316
 7549SOL    HW224481   8.338   2.125  11.346
 7550SOL     OW24482   5.246   8.018   2.385
 7550SOL    HW124483   5.186   8.092   2.388
 7550SOL    HW224484   5.326   8.053   2.346
 7551SOL     OW24485   8.728  12.712   9.529
 7551SOL    HW124486   8.702  12.752   9.612
 7551SOL    HW224487   8.678  12.631   9.524
 7552SOL     OW24488   5.771   5.598   2.111
 7552SOL    HW124489   5.727   5.553   2.184
 7552SOL    HW224490   5.782   5.688   2.142
 7553SOL     OW24491  13.390  14.578  12.787
 7553SOL    HW124492  13.400  14.673  12.790
 7553SOL    HW224493  13.321  14.563  12.723
 7554SOL     OW24494   3.914  12.377   4.550
 7554SOL    HW124495   3.925  12.472   4.550
 7554SOL    HW224496   3.979  12.346   4.613
 7555SOL     OW24497   9.836   8.946   9.388
 7555SOL    HW124498   9.765   8.882   9.382
 7555SOL    HW224499   9.902   8.914   9.327
 7556SOL     OW24500   6.690  10.473   3.274
 7556SOL    HW124501   6.764  10.486   3.215
 7556SOL    HW224502   6.613  10.498   3.223
 7557SOL     OW24503   5.177   5.151   6.364
 7557SOL    HW124504   5.258   5.202   6.370
 7557SOL    HW224505   5.139   5.176   6.280
 7558SOL     OW24506   0.120   4.164   4.103
 7558SOL    HW124507   0.184   4.211   4.049
 7558SOL    HW224508   0.078   4.233   4.155
 7559SOL     OW24509  14.662  10.664   6.574
 7559SOL    HW124510  14.602  10.721   6.622
 7559SOL    HW224511  14.675  10.589   6.632
 7560SOL     OW24512   0.288  10.110   6.354
 7560SOL    HW124513   0.339  10.067   6.285
 7560SOL    HW224514   0.213  10.148   6.308
 7561SOL     OW24515   6.476   8.274   0.681
 7561SOL    HW124516   6.425   8.198   0.650
 7561SOL    HW224517   6.540   8.237   0.742
 7562SOL     OW24518  13.844  11.420  14.730
 7562SOL    HW124519  13.779  11.427  14.801
 7562SOL    HW224520  13.920  11.469  14.763
 7563SOL     OW24521  10.643  13.363   7.589
 7563SOL    HW124522  10.713  13.418   7.625
 7563SOL    HW224523  10.626  13.298   7.657
 7564SOL     OW24524   3.985  13.493   7.991
 7564SOL    HW124525   4.035  13.424   8.037
 7564SOL    HW224526   4.053  13.549   7.952
 7565SOL     OW24527  11.992   7.302   9.774
 7565SOL    HW124528  11.979   7.337   9.862
 7565SOL    HW224529  11.903   7.288   9.740
 7566SOL     OW24530   2.658   8.871   6.637
 7566SOL    HW124531   2.642   8.919   6.718
 7566SOL    HW224532   2.699   8.935   6.579
 7567SOL     OW24533  12.214   9.393   4.445
 7567SOL    HW124534  12.290   9.389   4.388
 7567SOL    HW224535  12.211   9.484   4.476
 7568SOL     OW24536  13.878  11.976   4.877
 7568SOL    HW124537  13.790  12.011   4.863
 7568SOL    HW224538  13.873  11.934   4.963
 7569SOL     OW24539  11.681   4.034   9.798
 7569SOL    HW124540  11.685   4.117   9.751
 7569SOL    HW224541  11.773   4.008   9.807
 7570SOL     OW24542   3.398   1.163   8.930
 7570SOL    HW124543   3.364   1.075   8.949
 7570SOL    HW224544   3.484   1.164   8.972
 7571SOL     OW24545  11.442   9.753  14.798
 7571SOL    HW124546  11.463   9.687  14.732
 7571SOL    HW224547  11.456   9.708   0.002
 7572SOL     OW24548   1.804  13.493  10.420
 7572SOL    HW124549   1.769  13.426  10.478
 7572SOL    HW224550   1.889  13.515  10.458
 7573SOL     OW24551   4.687   5.600  10.368
 7573SOL    HW124552   4.703   5.512  10.335
 7573SOL    HW224553   4.636   5.587  10.448
 7574SOL     OW24554   4.013  13.882  10.296
 7574SOL    HW124555   3.953  13.848  10.362
 7574SOL    HW224556   4.029  13.807  10.238
 7575SOL     OW24557   0.501   4.831   2.820
 7575SOL    HW124558   0.453   4.835   2.902
 7575SOL    HW224559   0.555   4.752   2.828
 7576SOL     OW24560  10.885  12.702  10.987
 7576SOL    HW124561  10.899  12.658  11.070
 7576SOL    HW224562  10.972  12.711  10.949
 7577SOL     OW24563   0.320  13.534   5.540
 7577SOL    HW124564   0.285  13.446   5.552
 7577SOL    HW224565   0.359  13.556   5.625
 7578SOL     OW24566   3.926  11.752  12.834
 7578SOL    HW124567   3.855  11.691  12.818
 7578SOL    HW224568   3.974  11.715  12.908
 7579SOL     OW24569  11.206   0.040  14.167
 7579SOL    HW124570  11.135  14.876  14.119
 7579SOL    HW224571  11.285   0.017  14.118
 7580SOL     OW24572   9.469  14.097   3.217
 7580SOL    HW124573   9.467  14.002   3.230
 7580SOL    HW224574   9.425  14.110   3.132
 7581SOL     OW24575   7.122  14.378  12.059
 7581SOL    HW124576   7.216  14.364  12.056
 7581SOL    HW224577   7.084  14.299  12.020
 7582SOL     OW24578   4.712   4.590   7.740
 7582SOL    HW124579   4.758   4.514   7.774
 7582SOL    HW224580   4.719   4.655   7.810
 7583SOL     OW24581   9.880   9.650  12.309
 7583SOL    HW124582   9.975   9.647  12.296
 7583SOL    HW224583   9.845   9.584  12.249
 7584SOL     OW24584  12.472   1.397   7.242
 7584SOL    HW124585  12.409   1.463   7.215
 7584SOL    HW224586  12.549   1.414   7.188
 7585SOL     OW24587   8.890   8.298   2.398
 7585SOL    HW124588   8.902   8.290   2.304
 7585SOL    HW224589   8.890   8.208   2.431
 7586SOL     OW24590   4.011  14.137  14.385
 7586SOL    HW124591   3.986  14.155  14.294
 7586SOL    HW224592   4.027  14.042  14.387
 7587SOL     OW24593   9.550  10.422  14.310
 7587SOL    HW124594   9.622  10.413  14.248
 7587SOL    HW224595   9.496  10.492  14.275
 7588SOL     OW24596   8.847   3.218   8.888
 7588SOL    HW124597   8.867   3.192   8.978
 7588SOL    HW224598   8.757   3.190   8.874
 7589SOL     OW24599   7.571  11.512  11.523
 7589SOL    HW124600   7.627  11.589  11.516
 7589SOL    HW224601   7.615  11.445  11.472
 7590SOL     OW24602   1.148  14.744  11.886
 7590SOL    HW124603   1.123  14.752  11.794
 7590SOL    HW224604   1.237  14.708  11.883
 7591SOL     OW24605   4.144  14.813  10.621
 7591SOL    HW124606   4.067  14.858  10.588
 7591SOL    HW224607   4.179  14.872  10.688
 7592SOL     OW24608  10.255   7.788   8.104
 7592SOL    HW124609  10.165   7.779   8.073
 7592SOL    HW224610  10.249   7.777   8.199
 7593SOL     OW24611   5.894  10.603   2.430
 7593SOL    HW124612   5.851  10.524   2.463
 7593SOL    HW224613   5.836  10.675   2.455
 7594SOL     OW24614   4.199   5.623   5.866
 7594SOL    HW124615   4.113   5.621   5.824
 7594SOL    HW224616   4.261   5.615   5.793
 7595SOL     OW24617   7.755  14.638  14.461
 7595SOL    HW124618   7.702  14.565  14.429
 7595SOL    HW224619   7.691  14.703  14.491
 7596SOL     OW24620   0.983   5.021   8.470
 7596SOL    HW124621   0.980   4.932   8.504
 7596SOL    HW224622   0.901   5.061   8.500
 7597SOL     OW24623   3.945   4.790   5.035
 7597SOL    HW124624   4.031   4.782   4.994
 7597SOL    HW224625   3.933   4.707   5.083
 7598SOL     OW24626   0.508   9.872   2.763
 7598SOL    HW124627   0.503   9.822   2.844
 7598SOL    HW224628   0.550   9.955   2.788
 7599SOL     OW24629   8.245   3.428   3.957
 7599SOL    HW124630   8.339   3.443   3.963
 7599SOL    HW224631   8.212   3.449   4.045
 7600SOL     OW24632   0.638   0.374   1.636
 7600SOL    HW124633   0.579   0.300   1.653
 7600SOL    HW224634   0.693   0.380   1.714
 7601SOL     OW24635   1.026   4.965  12.208
 7601SOL    HW124636   0.950   4.956  12.150
 7601SOL    HW224637   1.019   4.892  12.269
 7602SOL     OW24638   6.487   0.031   7.313
 7602SOL    HW124639   6.393   0.024   7.330
 7602SOL    HW224640   6.527  14.845   7.372
 7603SOL     OW24641   6.963   7.297  14.356
 7603SOL    HW124642   6.993   7.283  14.266
 7603SOL    HW224643   6.966   7.209  14.395
 7604SOL     OW24644   9.579   8.817   0.436
 7604SOL    HW124645   9.484   8.813   0.448
 7604SOL    HW224646   9.608   8.880   0.502
 7605SOL     OW24647   0.977   3.305   3.277
 7605SOL    HW124648   0.992   3.215   3.247
 7605SOL    HW224649   0.885   3.308   3.302
 7606SOL     OW24650  14.389   4.952   4.211
 7606SOL    HW124651  14.467   4.909   4.246
 7606SOL    HW224652  14.316   4.898   4.242
 7607SOL     OW24653   3.558   2.203   5.451
 7607SOL    HW124654   3.593   2.152   5.523
 7607SOL    HW224655   3.469   2.168   5.438
 7608SOL     OW24656   6.263  12.742  11.032
 7608SOL    HW124657   6.326  12.675  11.059
 7608SOL    HW224658   6.291  12.821  11.077
 7609SOL     OW24659   6.079   8.511   2.976
 7609SOL    HW124660   6.109   8.588   2.927
 7609SOL    HW224661   5.987   8.529   2.995
 7610SOL     OW24662   8.656  13.023   2.021
 7610SOL    HW124663   8.604  12.958   1.974
 7610SOL    HW224664   8.648  12.999   2.113
 7611SOL     OW24665  14.680   9.548   0.396
 7611SOL    HW124666  14.755   9.549   0.336
 7611SOL    HW224667  14.654   9.456   0.399
 7612SOL     OW24668   8.914   4.268   8.820
 7612SOL    HW124669   8.940   4.326   8.748
 7612SOL    HW224670   8.819   4.272   8.821
 7613SOL     OW24671   5.567   4.546   4.931
 7613SOL    HW124672   5.651   4.547   4.886
 7613SOL    HW224673   5.508   4.501   4.871
 7614SOL     OW24674  14.264  10.999   4.211
 7614SOL    HW124675  14.317  10.934   4.163
 7614SOL    HW224676  14.184  10.952   4.233
 7615SOL     OW24677   0.634   1.259  11.150
 7615SOL    HW124678   0.638   1.303  11.235
 7615SOL    HW224679   0.578   1.315  11.096
 7616SOL     OW24680   8.106   9.793   0.085
 7616SOL    HW124681   8.170   9.722   0.079
 7616SOL    HW224682   8.138   9.859   0.023
 7617SOL     OW24683  12.434  10.267   1.718
 7617SOL    HW124684  12.344  10.254   1.690
 7617SOL    HW224685  12.433  10.353   1.760
 7618SOL     OW24686   0.350   7.462   6.041
 7618SOL    HW124687   0.427   7.486   6.092
 7618SOL    HW224688   0.384   7.442   5.954
 7619SOL     OW24689  13.015   9.774   6.752
 7619SOL    HW124690  13.075   9.713   6.795
 7619SOL    HW224691  13.067   9.815   6.683
 7620SOL     OW24692   7.581   0.520   0.914
 7620SOL    HW124693   7.636   0.562   0.847
 7620SOL    HW224694   7.492   0.550   0.894
 7621SOL     OW24695   3.973   5.069   1.715
 7621SOL    HW124696   3.915   5.098   1.785
 7621SOL    HW224697   4.061   5.078   1.752
 7622SOL     OW24698   0.811   0.931   9.809
 7622SOL    HW124699   0.815   0.844   9.849
 7622SOL    HW224700   0.838   0.918   9.718
 7623SOL     OW24701   2.589   0.500   4.242
 7623SOL    HW124702   2.589   0.416   4.196
 7623SOL    HW224703   2.565   0.564   4.175
 7624SOL     OW24704   9.434   0.858   3.450
 7624SOL    HW124705   9.420   0.904   3.367
 7624SOL    HW224706   9.429   0.765   3.427
 7625SOL     OW24707   2.625  13.012  12.210
 7625SOL    HW124708   2.562  13.080  12.236
 7625SOL    HW224709   2.581  12.963  12.140
 7626SOL     OW24710   8.530   4.403   6.995
 7626SOL    HW124711   8.578   4.389   7.076
 7626SOL    HW224712   8.595   4.440   6.935
 7627SOL     OW24713   2.053   5.354   6.300
 7627SOL    HW124714   1.970   5.398   6.317
 7627SOL    HW224715   2.032   5.290   6.232
 7628SOL     OW24716  10.576   6.191  14.522
 7628SOL    HW124717  10.642   6.181  14.590
 7628SOL    HW224718  10.512   6.252  14.559
 7629SOL     OW24719   6.789   4.357  10.076
 7629SOL    HW124720   6.711   4.301  10.070
 7629SOL    HW224721   6.850   4.307  10.130
 7630SOL     OW24722  12.458  14.025  11.403
 7630SOL    HW124723  12.467  14.096  11.339
 7630SOL    HW224724  12.535  14.034  11.460
 7631SOL     OW24725   0.833   9.674   6.354
 7631SOL    HW124726   0.801   9.700   6.268
 7631SOL    HW224727   0.784   9.595   6.376
 7632SOL     OW24728   6.815   8.046   3.484
 7632SOL    HW124729   6.784   8.090   3.405
 7632SOL    HW224730   6.799   7.953   3.466
 7633SOL     OW24731   3.890   3.591   8.587
 7633SOL    HW124732   3.961   3.646   8.621
 7633SOL    HW224733   3.931   3.537   8.520
 7634SOL     OW24734   4.638   8.419   0.051
 7634SOL    HW124735   4.683   8.493   0.011
 7634SOL    HW224736   4.701   8.347   0.047
 7635SOL     OW24737   5.732   5.439   9.105
 7635SOL    HW124738   5.774   5.442   9.019
 7635SOL    HW224739   5.756   5.353   9.140
 7636SOL     OW24740   3.150  10.933   6.155
 7636SOL    HW124741   3.206  10.858   6.134
 7636SOL    HW224742   3.118  10.963   6.070
 7637SOL     OW24743   7.337   9.424   4.932
 7637SOL    HW124744   7.394   9.412   5.007
 7637SOL    HW224745   7.393   9.411   4.856
 7638SOL     OW24746   7.543   3.773   2.790
 7638SOL    HW124747   7.557   3.866   2.773
 7638SOL    HW224748   7.504   3.770   2.877
 7639SOL     OW24749   9.468   2.947  14.855
 7639SOL    HW124750   9.412   2.870  14.848
 7639SOL    HW224751   9.422   3.014  14.804
 7640SOL     OW24752   2.084   8.723   5.832
 7640SOL    HW124753   2.083   8.740   5.738
 7640SOL    HW224754   2.177   8.711   5.853
 7641SOL     OW24755   9.555  12.050   7.800
 7641SOL    HW124756   9.510  12.127   7.836
 7641SOL    HW224757   9.610  12.085   7.731
 7642SOL     OW24758   8.896   4.658   1.295
 7642SOL    HW124759   8.975   4.708   1.313
 7642SOL    HW224760   8.895   4.649   1.199
 7643SOL     OW24761   2.757   4.391  10.345
 7643SOL    HW124762   2.839   4.376  10.391
 7643SOL    HW224763   2.724   4.304  10.323
 7644SOL     OW24764   3.356  14.216   2.067
 7644SOL    HW124765   3.301  14.293   2.069
 7644SOL    HW224766   3.309  14.150   2.118
 7645SOL     OW24767   9.764   4.119   2.034
 7645SOL    HW124768   9.817   4.169   1.972
 7645SOL    HW224769   9.741   4.182   2.102
 7646SOL     OW24770  11.330   6.321  10.705
 7646SOL    HW124771  11.335   6.263  10.629
 7646SOL    HW224772  11.413   6.306  10.751
 7647SOL     OW24773   1.480   7.801   0.335
 7647SOL    HW124774   1.406   7.776   0.280
 7647SOL    HW224775   1.479   7.897   0.334
 7648SOL     OW24776   8.661   3.480   0.562
 7648SOL    HW124777   8.588   3.454   0.618
 7648SOL    HW224778   8.650   3.430   0.481
 7649SOL     OW24779   2.856   1.329  10.751
 7649SOL    HW124780   2.893   1.313  10.664
 7649SOL    HW224781   2.762   1.337  10.736
 7650SOL     OW24782   5.330   4.546   4.202
 7650SOL    HW124783   5.310   4.479   4.136
 7650SOL    HW224784   5.272   4.619   4.179
 7651SOL     OW24785   1.648  11.421   0.941
 7651SOL    HW124786   1.590  11.498   0.939
 7651SOL    HW224787   1.665  11.402   0.849
 7652SOL     OW24788   5.300   0.338  10.244
 7652SOL    HW124789   5.332   0.423  10.271
 7652SOL    HW224790   5.205   0.348  10.237
 7653SOL     OW24791  10.350   9.234   7.681
 7653SOL    HW124792  10.342   9.274   7.768
 7653SOL    HW224793  10.442   9.208   7.676
 7654SOL     OW24794   1.859   6.670   3.598
 7654SOL    HW124795   1.810   6.737   3.549
 7654SOL    HW224796   1.825   6.677   3.688
 7655SOL     OW24797   0.049   4.449   6.644
 7655SOL    HW124798  14.862   4.517   6.661
 7655SOL    HW224799  14.878   4.371   6.623
 7656SOL     OW24800   9.494   7.639  13.797
 7656SOL    HW124801   9.503   7.545  13.808
 7656SOL    HW224802   9.537   7.657  13.713
 7657SOL     OW24803   9.910   4.649   9.846
 7657SOL    HW124804   9.886   4.707   9.918
 7657SOL    HW224805   9.843   4.580   9.848
 7658SOL     OW24806  11.308   5.973  12.334
 7658SOL    HW124807  11.232   5.997  12.387
 7658SOL    HW224808  11.312   6.040  12.266
 7659SOL     OW24809   9.996  12.568  11.793
 7659SOL    HW124810   9.942  12.646  11.776
 7659SOL    HW224811  10.028  12.542  11.707
 7660SOL     OW24812   8.485   2.653   9.959
 7660SOL    HW124813   8.424   2.596  10.006
 7660SOL    HW224814   8.435   2.682   9.882
 7661SOL     OW24815   6.703  13.644   9.898
 7661SOL    HW124816   6.795  13.630   9.876
 7661SOL    HW224817   6.684  13.732   9.864
 7662SOL     OW24818  13.279  10.760   3.160
 7662SOL    HW124819  13.198  10.788   3.203
 7662SOL    HW224820  13.315  10.841   3.122
 7663SOL     OW24821  11.886   8.143   1.104
 7663SOL    HW124822  11.859   8.230   1.075
 7663SOL    HW224823  11.820   8.084   1.067
 7664SOL     OW24824   4.703   2.064   1.988
 7664SOL    HW124825   4.673   2.003   2.056
 7664SOL    HW224826   4.628   2.074   1.930
 7665SOL     OW24827   3.506  11.765   6.140
 7665SOL    HW124828   3.497  11.718   6.057
 7665SOL    HW224829   3.487  11.700   6.207
 7666SOL     OW24830  12.866  10.883   6.486
 7666SOL    HW124831  12.925  10.951   6.519
 7666SOL    HW224832  12.884  10.880   6.392
 7667SOL     OW24833   1.346   6.752   9.076
 7667SOL    HW124834   1.427   6.727   9.031
 7667SOL    HW224835   1.276   6.717   9.020
 7668SOL     OW24836  11.152   0.459  11.219
 7668SOL    HW124837  11.111   0.534  11.176
 7668SOL    HW224838  11.092   0.436  11.290
 7669SOL     OW24839   6.889   5.495  12.787
 7669SOL    HW124840   6.818   5.559  12.798
 7669SOL    HW224841   6.902   5.458  12.874
 7670SOL     OW24842   4.571   4.841   0.827
 7670SOL    HW124843   4.593   4.792   0.906
 7670SOL    HW224844   4.590   4.780   0.755
 7671SOL     OW24845  10.097  14.466  10.769
 7671SOL    HW124846  10.089  14.483  10.675
 7671SOL    HW224847  10.189  14.484  10.789
 7672SOL     OW24848  12.672  14.000   0.626
 7672SOL    HW124849  12.656  14.066   0.694
 7672SOL    HW224850  12.585  13.981   0.590
 7673SOL     OW24851  11.580   6.109   7.705
 7673SOL    HW124852  11.620   6.025   7.728
 7673SOL    HW224853  11.650   6.159   7.664
 7674SOL     OW24854   2.799   8.580   5.068
 7674SOL    HW124855   2.876   8.578   5.124
 7674SOL    HW224856   2.833   8.596   4.980
 7675SOL     OW24857  12.268  12.176   6.309
 7675SOL    HW124858  12.245  12.101   6.365
 7675SOL    HW224859  12.253  12.252   6.365
 7676SOL     OW24860  13.175  13.627  13.493
 7676SOL    HW124861  13.206  13.585  13.573
 7676SOL    HW224862  13.159  13.554  13.433
 7677SOL     OW24863  11.814   6.719   4.123
 7677SOL    HW124864  11.842   6.714   4.214
 7677SOL    HW224865  11.721   6.744   4.128
 7678SOL     OW24866   6.156   4.624  11.832
 7678SOL    HW124867   6.079   4.570  11.850
 7678SOL    HW224868   6.125   4.714  11.839
 7679SOL     OW24869  11.597   9.459   3.712
 7679SOL    HW124870  11.628   9.369   3.700
 7679SOL    HW224871  11.664   9.500   3.766
 7680SOL     OW24872   8.113   6.814   1.879
 7680SOL    HW124873   8.060   6.747   1.836
 7680SOL    HW224874   8.182   6.764   1.924
 7681SOL     OW24875   5.215  14.772   7.398
 7681SOL    HW124876   5.148  14.704   7.403
 7681SOL    HW224877   5.257  14.771   7.484
 7682SOL     OW24878   2.037  13.456  13.804
 7682SOL    HW124879   2.125  13.475  13.837
 7682SOL    HW224880   1.986  13.535  13.822
 7683SOL     OW24881   1.731   0.561   1.317
 7683SOL    HW124882   1.708   0.468   1.328
 7683SOL    HW224883   1.647   0.606   1.316
 7684SOL     OW24884   3.819   4.409   6.188
 7684SOL    HW124885   3.823   4.405   6.093
 7684SOL    HW224886   3.725   4.408   6.208
 7685SOL     OW24887   0.970   0.576   7.479
 7685SOL    HW124888   1.045   0.572   7.540
 7685SOL    HW224889   0.916   0.502   7.504
 7686SOL     OW24890   6.059   6.291   0.958
 7686SOL    HW124891   6.060   6.379   0.996
 7686SOL    HW224892   6.000   6.241   1.015
 7687SOL     OW24893  13.729  11.433   5.739
 7687SOL    HW124894  13.712  11.471   5.653
 7687SOL    HW224895  13.806  11.378   5.726
 7688SOL     OW24896   1.850   9.580  12.634
 7688SOL    HW124897   1.930   9.587  12.687
 7688SOL    HW224898   1.859   9.651  12.569
 7689SOL     OW24899   0.574  13.997   3.288
 7689SOL    HW124900   0.524  14.078   3.282
 7689SOL    HW224901   0.619  13.990   3.204
 7690SOL     OW24902   0.234   4.285   5.259
 7690SOL    HW124903   0.316   4.296   5.211
 7690SOL    HW224904   0.165   4.291   5.193
 7691SOL     OW24905   9.216   1.382   8.522
 7691SOL    HW124906   9.149   1.448   8.543
 7691SOL    HW224907   9.231   1.393   8.428
 7692SOL     OW24908  11.101  12.777   1.844
 7692SOL    HW124909  11.078  12.848   1.784
 7692SOL    HW224910  11.151  12.820   1.914
 7693SOL     OW24911   8.063  13.378   3.322
 7693SOL    HW124912   8.004  13.440   3.279
 7693SOL    HW224913   8.074  13.308   3.258
 7694SOL     OW24914   8.170   2.232   3.857
 7694SOL    HW124915   8.102   2.190   3.804
 7694SOL    HW224916   8.249   2.225   3.804
 7695SOL     OW24917   8.081   6.764  14.284
 7695SOL    HW124918   8.121   6.768  14.371
 7695SOL    HW224919   8.005   6.707  14.296
 7696SOL     OW24920   5.073  13.221  10.263
 7696SOL    HW124921   5.096  13.136  10.227
 7696SOL    HW224922   4.983  13.212  10.291
 7697SOL     OW24923  11.738  13.396   5.069
 7697SOL    HW124924  11.783  13.328   5.020
 7697SOL    HW224925  11.654  13.406   5.024
 7698SOL     OW24926   0.989   9.714   2.117
 7698SOL    HW124927   0.983   9.742   2.026
 7698SOL    HW224928   0.900   9.724   2.151
 7699SOL     OW24929   2.233   5.753  13.501
 7699SOL    HW124930   2.206   5.667  13.470
 7699SOL    HW224931   2.221   5.749  13.596
 7700SOL     OW24932   2.165  12.037   3.002
 7700SOL    HW124933   2.215  12.013   3.080
 7700SOL    HW224934   2.210  12.114   2.967
 7701SOL     OW24935   1.188   1.051   4.692
 7701SOL    HW124936   1.204   1.002   4.612
 7701SOL    HW224937   1.224   1.138   4.675
 7702SOL     OW24938   9.089  11.769   4.527
 7702SOL    HW124939   9.076  11.677   4.551
 7702SOL    HW224940   9.097  11.768   4.432
 7703SOL     OW24941   3.653  10.102   3.387
 7703SOL    HW124942   3.719  10.045   3.347
 7703SOL    HW224943   3.585  10.110   3.321
 7704SOL     OW24944   2.421   6.540  11.836
 7704SOL    HW124945   2.345   6.528  11.892
 7704SOL    HW224946   2.385   6.567  11.751
 7705SOL     OW24947  14.409   6.898   5.734
 7705SOL    HW124948  14.361   6.846   5.669
 7705SOL    HW224949  14.483   6.842   5.759
 7706SOL     OW24950   3.953   0.661   8.291
 7706SOL    HW124951   3.928   0.583   8.242
 7706SOL    HW224952   4.035   0.690   8.250
 7707SOL     OW24953   3.033   3.403   9.437
 7707SOL    HW124954   3.125   3.379   9.432
 7707SOL    HW224955   2.988   3.341   9.379
 7708SOL     OW24956  12.808   4.386   6.656
 7708SOL    HW124957  12.884   4.401   6.601
 7708SOL    HW224958  12.790   4.471   6.697
 7709SOL     OW24959   4.153   1.762   5.799
 7709SOL    HW124960   4.068   1.720   5.796
 7709SOL    HW224961   4.192   1.742   5.713
 7710SOL     OW24962   6.975   7.067   3.687
 7710SOL    HW124963   7.059   7.105   3.711
 7710SOL    HW224964   6.995   7.012   3.611
 7711SOL     OW24965   0.719  14.085   7.496
 7711SOL    HW124966   0.705  14.178   7.517
 7711SOL    HW224967   0.745  14.046   7.580
 7712SOL     OW24968   4.861   2.148   9.918
 7712SOL    HW124969   4.882   2.077   9.856
 7712SOL    HW224970   4.945   2.166   9.961
 7713SOL     OW24971   8.661  13.124  11.603
 7713SOL    HW124972   8.723  13.197  11.604
 7713SOL    HW224973   8.671  13.083  11.689
 7714SOL     OW24974  14.556   3.928   4.860
 7714SOL    HW124975  14.467   3.893   4.863
 7714SOL    HW224976  14.609   3.863   4.906
 7715SOL     OW24977   6.770  13.017   7.032
 7715SOL    HW124978   6.800  13.100   6.996
 7715SOL    HW224979   6.675  13.021   7.026
 7716SOL     OW24980   0.195   0.513   3.831
 7716SOL    HW124981   0.140   0.481   3.903
 7716SOL    HW224982   0.285   0.500   3.861
 7717SOL     OW24983  14.832   4.200   3.623
 7717SOL    HW124984  14.825   4.291   3.597
 7717SOL    HW224985  14.790   4.196   3.710
 7718SOL     OW24986  13.474   2.140  11.374
 7718SOL    HW124987  13.498   2.119  11.464
 7718SOL    HW224988  13.422   2.065  11.345
 7719SOL     OW24989  10.549  13.250   0.392
 7719SOL    HW124990  10.613  13.197   0.439
 7719SOL    HW224991  10.587  13.263   0.305
 7720SOL     OW24992   0.786   6.336   8.201
 7720SOL    HW124993   0.724   6.264   8.213
 7720SOL    HW224994   0.769   6.396   8.274
 7721SOL     OW24995  12.255   6.542   7.231
 7721SOL    HW124996  12.236   6.605   7.301
 7721SOL    HW224997  12.270   6.459   7.276
 7722SOL     OW24998   9.625  10.374   7.346
 7722SOL    HW124999   9.628  10.409   7.436
 7722SOL    HW225000   9.650  10.448   7.291
 7723SOL     OW25001  13.916   5.951  10.497
 7723SOL    HW125002  13.830   5.971  10.535
 7723SOL    HW225003  13.936   5.863  10.530
 7724SOL     OW25004   4.538  12.939  13.065
 7724SOL    HW125005   4.599  12.988  13.010
 7724SOL    HW225006   4.488  12.886  13.003
 7725SOL     OW25007   3.165   0.886  13.009
 7725SOL    HW125008   3.085   0.857  13.053
 7725SOL    HW225009   3.162   0.982  13.015
 7726SOL     OW25010   1.198   4.849   9.908
 7726SOL    HW125011   1.228   4.890   9.989
 7726SOL    HW225012   1.109   4.820   9.926
 7727SOL     OW25013   9.482   7.450  10.283
 7727SOL    HW125014   9.492   7.395  10.205
 7727SOL    HW225015   9.571   7.461  10.316
 7728SOL     OW25016  11.538   5.924  11.555
 7728SOL    HW125017  11.537   5.934  11.460
 7728SOL    HW225018  11.594   5.847  11.570
 7729SOL     OW25019   5.444  11.956   0.319
 7729SOL    HW125020   5.377  11.893   0.292
 7729SOL    HW225021   5.396  12.039   0.327
 7730SOL     OW25022   4.402   1.177   5.672
 7730SOL    HW125023   4.404   1.094   5.719
 7730SOL    HW225024   4.492   1.191   5.644
 7731SOL     OW25025   6.663  10.800   1.379
 7731SOL    HW125026   6.726  10.868   1.356
 7731SOL    HW225027   6.718  10.729   1.414
 7732SOL     OW25028   7.603  12.875  12.717
 7732SOL    HW125029   7.627  12.898  12.807
 7732SOL    HW225030   7.685  12.882  12.668
 7733SOL     OW25031   6.714   7.035  13.014
 7733SOL    HW125032   6.663   6.989  13.081
 7733SOL    HW225033   6.664   7.114  12.995
 7734SOL     OW25034   5.570   7.115   1.411
 7734SOL    HW125035   5.514   7.166   1.353
 7734SOL    HW225036   5.636   7.077   1.353
 7735SOL     OW25037   5.771   0.009   1.111
 7735SOL    HW125038   5.733  14.861   1.028
 7735SOL    HW225039   5.864  14.867   1.103
 7736SOL     OW25040   5.229   2.387   0.102
 7736SOL    HW125041   5.211   2.342   0.020
 7736SOL    HW225042   5.237   2.317   0.167
 7737SOL     OW25043  12.290   9.914  14.846
 7737SOL    HW125044  12.303  10.004  14.876
 7737SOL    HW225045  12.376   9.888  14.810
 7738SOL     OW25046   9.937  14.216   7.262
 7738SOL    HW125047   9.897  14.299   7.288
 7738SOL    HW225048   9.865  14.165   7.225
 7739SOL     OW25049   3.003   0.389   3.834
 7739SOL    HW125050   3.061   0.346   3.771
 7739SOL    HW225051   2.979   0.320   3.896
 7740SOL     OW25052  13.117  13.499   1.378
 7740SOL    HW125053  13.142  13.470   1.465
 7740SOL    HW225054  13.166  13.581   1.365
 7741SOL     OW25055   3.933   6.468   1.460
 7741SOL    HW125056   3.852   6.417   1.455
 7741SOL    HW225057   3.927   6.529   1.385
 7742SOL     OW25058   1.364  10.100  10.165
 7742SOL    HW125059   1.271  10.120  10.178
 7742SOL    HW225060   1.402  10.101  10.253
 7743SOL     OW25061  13.215   8.818   6.853
 7743SOL    HW125062  13.144   8.874   6.823
 7743SOL    HW225063  13.292   8.874   6.855
 7744SOL     OW25064   6.982   6.319  14.044
 7744SOL    HW125065   7.069   6.279  14.051
 7744SOL    HW225066   6.981   6.385  14.114
 7745SOL     OW25067   2.505   3.923  11.777
 7745SOL    HW125068   2.544   3.838  11.798
 7745SOL    HW225069   2.441   3.904  11.708
 7746SOL     OW25070   3.265   1.953   4.040
 7746SOL    HW125071   3.208   1.947   4.116
 7746SOL    HW225072   3.352   1.971   4.076
 7747SOL     OW25073   5.292   2.641   1.553
 7747SOL    HW125074   5.234   2.714   1.575
 7747SOL    HW225075   5.308   2.597   1.637
 7748SOL     OW25076   1.327   5.759   8.808
 7748SOL    HW125077   1.349   5.781   8.898
 7748SOL    HW225078   1.266   5.685   8.815
 7749SOL     OW25079  11.483   3.251   4.748
 7749SOL    HW125080  11.387   3.255   4.743
 7749SOL    HW225081  11.500   3.178   4.808
 7750SOL     OW25082   4.483   0.677  13.661
 7750SOL    HW125083   4.558   0.657  13.604
 7750SOL    HW225084   4.511   0.649  13.748
 7751SOL     OW25085  10.619   5.370   1.329
 7751SOL    HW125086  10.546   5.431   1.344
 7751SOL    HW225087  10.577   5.284   1.330
 7752SOL     OW25088  13.208   7.836   9.218
 7752SOL    HW125089  13.237   7.846   9.309
 7752SOL    HW225090  13.222   7.743   9.199
 7753SOL     OW25091   2.872  10.996  10.380
 7753SOL    HW125092   2.807  10.935  10.414
 7753SOL    HW225093   2.922  11.023  10.458
 7754SOL     OW25094   6.618   5.271  12.953
 7754SOL    HW125095   6.692   5.326  12.976
 7754SOL    HW225096   6.652   5.182  12.953
 7755SOL     OW25097   4.449   5.855   0.102
 7755SOL    HW125098   4.413   5.929   0.153
 7755SOL    HW225099   4.371   5.808   0.072
 7756SOL     OW25100  14.779  12.803   5.031
 7756SOL    HW125101  14.713  12.737   5.049
 7756SOL    HW225102  14.737  12.863   4.969
 7757SOL     OW25103   8.269   9.580   8.884
 7757SOL    HW125104   8.178   9.587   8.854
 7757SOL    HW225105   8.265   9.523   8.961
 7758SOL     OW25106   6.386   3.201   4.398
 7758SOL    HW125107   6.371   3.202   4.304
 7758SOL    HW225108   6.470   3.246   4.409
 7759SOL     OW25109   7.853   2.751   3.623
 7759SOL    HW125110   7.917   2.751   3.552
 7759SOL    HW225111   7.886   2.687   3.686
 7760SOL     OW25112  14.383   7.216   4.450
 7760SOL    HW125113  14.295   7.179   4.443
 7760SOL    HW225114  14.379   7.274   4.526
 7761SOL     OW25115  11.649  12.425  14.209
 7761SOL    HW125116  11.685  12.439  14.121
 7761SOL    HW225117  11.555  12.439  14.199
 7762SOL     OW25118   6.326   3.096   4.711
 7762SOL    HW125119   6.307   3.166   4.648
 7762SOL    HW225120   6.375   3.139   4.781
 7763SOL     OW25121   3.145   6.710  14.280
 7763SOL    HW125122   3.095   6.725  14.360
 7763SOL    HW225123   3.139   6.616  14.265
 7764SOL     OW25124   7.114   6.042  13.076
 7764SOL    HW125125   7.106   6.123  13.025
 7764SOL    HW225126   7.060   5.979  13.028
 7765SOL     OW25127   4.190   2.875   7.185
 7765SOL    HW125128   4.183   2.780   7.194
 7765SOL    HW225129   4.284   2.891   7.173
 7766SOL     OW25130   0.592  14.163   3.698
 7766SOL    HW125131   0.663  14.099   3.709
 7766SOL    HW225132   0.516  14.121   3.739
 7767SOL     OW25133   8.111   7.223  12.562
 7767SOL    HW125134   8.056   7.167  12.616
 7767SOL    HW225135   8.092   7.312  12.591
 7768SOL     OW25136  13.438  13.672   0.075
 7768SOL    HW125137  13.440  13.742   0.141
 7768SOL    HW225138  13.371  13.611   0.107
 7769SOL     OW25139   3.502   6.427   9.109
 7769SOL    HW125140   3.413   6.396   9.097
 7769SOL    HW225141   3.498   6.484   9.186
 7770SOL     OW25142   5.678   4.509   3.732
 7770SOL    HW125143   5.728   4.561   3.794
 7770SOL    HW225144   5.728   4.513   3.651
 7771SOL     OW25145  13.835   9.550   0.455
 7771SOL    HW125146  13.857   9.591   0.539
 7771SOL    HW225147  13.843   9.620   0.391
 7772SOL     OW25148   1.035   0.535   6.171
 7772SOL    HW125149   1.063   0.537   6.079
 7772SOL    HW225150   0.947   0.572   6.169
 7773SOL     OW25151   3.343   3.385  13.824
 7773SOL    HW125152   3.371   3.307  13.776
 7773SOL    HW225153   3.418   3.445  13.817
 7774SOL     OW25154   8.890   1.070   5.774
 7774SOL    HW125155   8.912   1.079   5.681
 7774SOL    HW225156   8.888   0.976   5.789
 7775SOL     OW25157   9.362   8.487   5.387
 7775SOL    HW125158   9.341   8.398   5.415
 7775SOL    HW225159   9.430   8.515   5.448
 7776SOL     OW25160   2.338   2.334  11.903
 7776SOL    HW125161   2.362   2.285  11.825
 7776SOL    HW225162   2.408   2.398  11.914
 7777SOL     OW25163   4.571   3.920   8.386
 7777SOL    HW125164   4.493   3.969   8.362
 7777SOL    HW225165   4.585   3.860   8.313
 7778SOL     OW25166   7.724  11.930   3.500
 7778SOL    HW125167   7.706  12.012   3.454
 7778SOL    HW225168   7.706  11.949   3.592
 7779SOL     OW25169   1.262   9.583   9.178
 7779SOL    HW125170   1.282   9.655   9.118
 7779SOL    HW225171   1.178   9.608   9.218
 7780SOL     OW25172   8.078   7.154   9.492
 7780SOL    HW125173   8.135   7.169   9.568
 7780SOL    HW225174   8.073   7.239   9.449
 7781SOL     OW25175  12.337   8.044   1.792
 7781SOL    HW125176  12.350   7.973   1.855
 7781SOL    HW225177  12.365   8.123   1.837
 7782SOL     OW25178   0.893   1.283   0.748
 7782SOL    HW125179   0.947   1.341   0.693
 7782SOL    HW225180   0.815   1.267   0.695
 7783SOL     OW25181   2.892   5.602   0.669
 7783SOL    HW125182   2.928   5.545   0.602
 7783SOL    HW225183   2.855   5.676   0.621
 7784SOL     OW25184  13.014   8.215   3.501
 7784SOL    HW125185  13.040   8.210   3.408
 7784SOL    HW225186  12.940   8.276   3.501
 7785SOL     OW25187   0.014   8.940  11.034
 7785SOL    HW125188  14.870   8.992  10.958
 7785SOL    HW225189   0.085   8.989  11.076
 7786SOL     OW25190  14.608   5.600  13.000
 7786SOL    HW125191  14.686   5.550  13.023
 7786SOL    HW225192  14.535   5.541  13.018
 7787SOL     OW25193  14.655   3.843  10.689
 7787SOL    HW125194  14.735   3.821  10.738
 7787SOL    HW225195  14.654   3.782  10.616
 7788SOL     OW25196   8.319   2.181   1.118
 7788SOL    HW125197   8.340   2.151   1.029
 7788SOL    HW225198   8.400   2.170   1.167
 7789SOL     OW25199   3.211   2.766   2.469
 7789SOL    HW125200   3.177   2.683   2.502
 7789SOL    HW225201   3.159   2.784   2.391
 7790SOL     OW25202   8.775  12.431  13.606
 7790SOL    HW125203   8.789  12.348  13.558
 7790SOL    HW225204   8.749  12.493  13.538
 7791SOL     OW25205   5.315  14.799   6.397
 7791SOL    HW125206   5.342  14.844   6.316
 7791SOL    HW225207   5.371  14.836   6.465
 7792SOL     OW25208  14.181   3.126   7.710
 7792SOL    HW125209  14.247   3.111   7.642
 7792SOL    HW225210  14.192   3.218   7.733
 7793SOL     OW25211   6.683   1.293  13.715
 7793SOL    HW125212   6.661   1.355  13.784
 7793SOL    HW225213   6.628   1.319  13.641
 7794SOL     OW25214  14.038  13.411  11.439
 7794SOL    HW125215  14.018  13.379  11.351
 7794SOL    HW225216  14.132  13.427  11.438
 7795SOL     OW25217  14.076   8.752  14.040
 7795SOL    HW125218  14.059   8.721  13.951
 7795SOL    HW225219  14.132   8.829  14.029
 7796SOL     OW25220   5.385   1.518   3.892
 7796SOL    HW125221   5.299   1.499   3.854
 7796SOL    HW225222   5.369   1.589   3.955
 7797SOL     OW25223  14.614  10.115   7.555
 7797SOL    HW125224  14.587  10.045   7.615
 7797SOL    HW225225  14.587  10.085   7.469
 7798SOL     OW25226   0.639   3.999  10.145
 7798SOL    HW125227   0.567   4.060  10.133
 7798SOL    HW225228   0.679   4.023  10.228
 7799SOL     OW25229   5.158   7.718   6.182
 7799SOL    HW125230   5.169   7.650   6.115
 7799SOL    HW225231   5.179   7.800   6.138
 7800SOL     OW25232   1.271  11.500   5.674
 7800SOL    HW125233   1.243  11.451   5.752
 7800SOL    HW225234   1.355  11.462   5.650
 7801SOL     OW25235   1.291  13.140   1.799
 7801SOL    HW125236   1.332  13.072   1.746
 7801SOL    HW225237   1.220  13.096   1.845
 7802SOL     OW25238   1.348  14.723   7.523
 7802SOL    HW125239   1.426  14.752   7.569
 7802SOL    HW225240   1.280  14.784   7.550
 7803SOL     OW25241   0.804   9.818   6.563
 7803SOL    HW125242   0.890   9.847   6.595
 7803SOL    HW225243   0.824   9.756   6.493
 7804SOL     OW25244   9.493   8.110  12.578
 7804SOL    HW125245   9.498   8.117  12.673
 7804SOL    HW225246   9.488   8.016  12.561
 7805SOL     OW25247   9.049  14.016  13.219
 7805SOL    HW125248   9.084  13.930  13.196
 7805SOL    HW225249   8.983  14.035  13.153
 7806SOL     OW25250   5.536   1.731   7.025
 7806SOL    HW125251   5.500   1.723   7.114
 7806SOL    HW225252   5.587   1.812   7.027
 7807SOL     OW25253   0.282  12.954   8.923
 7807SOL    HW125254   0.211  12.891   8.910
 7807SOL    HW225255   0.243  13.039   8.903
 7808SOL     OW25256  14.593   9.942   0.591
 7808SOL    HW125257  14.679   9.942   0.549
 7808SOL    HW225258  14.543   9.877   0.542
 7809SOL     OW25259   6.899   5.069  11.674
 7809SOL    HW125260   6.818   5.024  11.699
 7809SOL    HW225261   6.931   5.019  11.599
 7810SOL     OW25262   2.616   3.673   0.070
 7810SOL    HW125263   2.685   3.645   0.010
 7810SOL    HW225264   2.604   3.766   0.050
 7811SOL     OW25265   7.286  10.961  12.554
 7811SOL    HW125266   7.288  10.895  12.484
 7811SOL    HW225267   7.376  10.964  12.586
 7812SOL     OW25268   1.714  12.501   7.517
 7812SOL    HW125269   1.752  12.584   7.490
 7812SOL    HW225270   1.676  12.519   7.603
 7813SOL     OW25271   3.086   0.118   7.474
 7813SOL    HW125272   3.082   0.167   7.392
 7813SOL    HW225273   2.997   0.085   7.486
 7814SOL     OW25274   2.272  14.426   7.511
 7814SOL    HW125275   2.188  14.454   7.473
 7814SOL    HW225276   2.292  14.343   7.467
 7815SOL     OW25277   5.453   7.978   2.049
 7815SOL    HW125278   5.419   7.979   1.960
 7815SOL    HW225279   5.398   7.915   2.096
 7816SOL     OW25280   5.686   1.226  13.978
 7816SOL    HW125281   5.778   1.232  14.005
 7816SOL    HW225282   5.664   1.313  13.945
 7817SOL     OW25283  12.806  14.005  11.240
 7817SOL    HW125284  12.853  13.940  11.291
 7817SOL    HW225285  12.868  14.033  11.173
 7818SOL     OW25286   0.710   9.332  10.219
 7818SOL    HW125287   0.793   9.315  10.263
 7818SOL    HW225288   0.726   9.311  10.127
 7819SOL     OW25289  13.794   5.873   2.146
 7819SOL    HW125290  13.736   5.943   2.118
 7819SOL    HW225291  13.815   5.826   2.065
 7820SOL     OW25292  14.601  11.490   3.862
 7820SOL    HW125293  14.649  11.512   3.783
 7820SOL    HW225294  14.641  11.409   3.893
 7821SOL     OW25295   9.574  13.124   2.733
 7821SOL    HW125296   9.613  13.187   2.793
 7821SOL    HW225297   9.518  13.069   2.788
 7822SOL     OW25298  11.164   5.045   8.363
 7822SOL    HW125299  11.068   5.042   8.364
 7822SOL    HW225300  11.190   4.954   8.374
 7823SOL     OW25301   8.516   5.359   6.584
 7823SOL    HW125302   8.484   5.384   6.497
 7823SOL    HW225303   8.508   5.438   6.637
 7824SOL     OW25304  11.669   2.770   2.266
 7824SOL    HW125305  11.612   2.782   2.190
 7824SOL    HW225306  11.691   2.859   2.294
 7825SOL     OW25307  11.648   1.065   0.496
 7825SOL    HW125308  11.583   1.037   0.433
 7825SOL    HW225309  11.707   0.990   0.505
 7826SOL     OW25310  11.149  10.916   6.358
 7826SOL    HW125311  11.166  10.969   6.436
 7826SOL    HW225312  11.236  10.904   6.318
 7827SOL     OW25313   9.865   4.287  14.784
 7827SOL    HW125314   9.853   4.198  14.817
 7827SOL    HW225315   9.784   4.332  14.807
 7828SOL     OW25316   2.736  11.135   2.020
 7828SOL    HW125317   2.695  11.186   1.950
 7828SOL    HW225318   2.663  11.107   2.075
 7829SOL     OW25319   2.314   2.273   3.690
 7829SOL    HW125320   2.242   2.211   3.697
 7829SOL    HW225321   2.350   2.278   3.779
 7830SOL     OW25322  11.134   7.845   5.687
 7830SOL    HW125323  11.157   7.937   5.674
 7830SOL    HW225324  11.048   7.835   5.645
 7831SOL     OW25325   8.636   8.261   3.543
 7831SOL    HW125326   8.571   8.328   3.563
 7831SOL    HW225327   8.720   8.300   3.570
 7832SOL     OW25328  13.843  10.114   1.237
 7832SOL    HW125329  13.866  10.027   1.207
 7832SOL    HW225330  13.756  10.131   1.200
 7833SOL     OW25331  10.715   1.585  13.316
 7833SOL    HW125332  10.695   1.504  13.364
 7833SOL    HW225333  10.721   1.559  13.225
 7834SOL     OW25334   9.696   3.436   7.805
 7834SOL    HW125335   9.743   3.459   7.886
 7834SOL    HW225336   9.742   3.485   7.737
 7835SOL     OW25337   8.306  11.106  11.411
 7835SOL    HW125338   8.285  11.188  11.367
 7835SOL    HW225339   8.323  11.131  11.502
 7836SOL     OW25340   8.475  10.218   2.208
 7836SOL    HW125341   8.552  10.164   2.220
 7836SOL    HW225342   8.431  10.182   2.132
 7837SOL     OW25343   9.975   9.816  10.082
 7837SOL    HW125344   9.911   9.813  10.012
 7837SOL    HW225345  10.050   9.766  10.050
 7838SOL     OW25346   1.823   2.795   2.538
 7838SOL    HW125347   1.775   2.748   2.470
 7838SOL    HW225348   1.882   2.854   2.490
 7839SOL     OW25349   2.783  13.529  12.723
 7839SOL    HW125350   2.712  13.567  12.670
 7839SOL    HW225351   2.745  13.450  12.761
 7840SOL     OW25352   1.321  11.152   0.708
 7840SOL    HW125353   1.250  11.173   0.647
 7840SOL    HW225354   1.398  11.140   0.653
 7841SOL     OW25355   9.955   2.139  10.894
 7841SOL    HW125356   9.903   2.218  10.902
 7841SOL    HW225357   9.965   2.127  10.799
 7842SOL     OW25358   1.987  13.007   4.362
 7842SOL    HW125359   2.069  12.958   4.355
 7842SOL    HW225360   1.936  12.981   4.285
 7843SOL     OW25361   7.914   1.769   4.863
 7843SOL    HW125362   7.842   1.797   4.920
 7843SOL    HW225363   7.974   1.723   4.922
 7844SOL     OW25364   6.000   1.344   9.929
 7844SOL    HW125365   5.943   1.269   9.946
 7844SOL    HW225366   6.085   1.305   9.906
 7845SOL     OW25367   9.623  10.270   2.452
 7845SOL    HW125368   9.582  10.335   2.508
 7845SOL    HW225369   9.619  10.189   2.501
 7846SOL     OW25370  13.344  10.980  12.398
 7846SOL    HW125371  13.386  11.066  12.406
 7846SOL    HW225372  13.251  10.998  12.411
 7847SOL     OW25373   7.728  14.239   6.536
 7847SOL    HW125374   7.793  14.309   6.526
 7847SOL    HW225375   7.755  14.172   6.474
 7848SOL     OW25376   2.850  10.309   6.705
 7848SOL    HW125377   2.872  10.387   6.755
 7848SOL    HW225378   2.908  10.312   6.629
 7849SOL     OW25379  14.195   0.305  11.205
 7849SOL    HW125380  14.197   0.366  11.278
 7849SOL    HW225381  14.149   0.352  11.135
 7850SOL     OW25382   3.220  12.147   9.224
 7850SOL    HW125383   3.301  12.171   9.268
 7850SOL    HW225384   3.240  12.064   9.180
 7851SOL     OW25385   9.808  10.085   4.970
 7851SOL    HW125386   9.892  10.052   4.936
 7851SOL    HW225387   9.806  10.176   4.942
 7852SOL     OW25388   9.988   0.726  13.313
 7852SOL    HW125389  10.083   0.731  13.321
 7852SOL    HW225390   9.957   0.702  13.400
 7853SOL     OW25391   4.252   9.356  13.481
 7853SOL    HW125392   4.259   9.448  13.508
 7853SOL    HW225393   4.264   9.306  13.562
 7854SOL     OW25394   3.903  13.182   0.178
 7854SOL    HW125395   3.823  13.134   0.197
 7854SOL    HW225396   3.945  13.194   0.263
 7855SOL     OW25397   8.583   0.122   0.834
 7855SOL    HW125398   8.516   0.074   0.882
 7855SOL    HW225399   8.665   0.076   0.854
 7856SOL     OW25400   6.426  14.543   7.249
 7856SOL    HW125401   6.393  14.588   7.327
 7856SOL    HW225402   6.493  14.602   7.214
 7857SOL     OW25403   9.107   6.135   7.986
 7857SOL    HW125404   9.127   6.225   8.014
 7857SOL    HW225405   9.015   6.138   7.960
 7858SOL     OW25406   2.552  14.720   4.938
 7858SOL    HW125407   2.639  14.732   4.902
 7858SOL    HW225408   2.534  14.802   4.985
 7859SOL     OW25409  11.463   8.744  14.751
 7859SOL    HW125410  11.552   8.723  14.721
 7859SOL    HW225411  11.415   8.662  14.740
 7860SOL     OW25412   7.666  10.951   6.674
 7860SOL    HW125413   7.610  10.943   6.597
 7860SOL    HW225414   7.756  10.948   6.640
 7861SOL     OW25415   8.846   0.191   3.077
 7861SOL    HW125416   8.809   0.244   3.148
 7861SOL    HW225417   8.939   0.185   3.098
 7862SOL     OW25418  10.310  11.412  12.678
 7862SOL    HW125419  10.401  11.385  12.678
 7862SOL    HW225420  10.263  11.337  12.715
 7863SOL     OW25421  10.396   9.289  10.813
 7863SOL    HW125422  10.372   9.281  10.720
 7863SOL    HW225423  10.474   9.235  10.822
 7864SOL     OW25424  12.376   6.819  10.023
 7864SOL    HW125425  12.408   6.728  10.028
 7864SOL    HW225426  12.284   6.810  10.000
 7865SOL     OW25427  13.868   5.458   0.418
 7865SOL    HW125428  13.857   5.379   0.471
 7865SOL    HW225429  13.951   5.444   0.372
 7866SOL     OW25430   1.335  11.957   8.170
 7866SOL    HW125431   1.372  11.889   8.114
 7866SOL    HW225432   1.410  12.014   8.190
 7867SOL     OW25433   8.683   1.326   3.645
 7867SOL    HW125434   8.676   1.409   3.598
 7867SOL    HW225435   8.773   1.324   3.677
 7868SOL     OW25436   7.638  12.898   7.096
 7868SOL    HW125437   7.630  12.861   7.184
 7868SOL    HW225438   7.650  12.823   7.039
 7869SOL     OW25439   8.760  12.321   2.817
 7869SOL    HW125440   8.746  12.389   2.883
 7869SOL    HW225441   8.672  12.294   2.791
 7870SOL     OW25442   0.543   2.872   3.792
 7870SOL    HW125443   0.565   2.877   3.885
 7870SOL    HW225444   0.626   2.888   3.747
 7871SOL     OW25445  11.114   3.087   3.812
 7871SOL    HW125446  11.022   3.081   3.839
 7871SOL    HW225447  11.130   3.181   3.801
 7872SOL     OW25448  11.269   2.938   7.356
 7872SOL    HW125449  11.338   2.937   7.423
 7872SOL    HW225450  11.294   3.011   7.298
 7873SOL     OW25451  11.368  10.851  13.092
 7873SOL    HW125452  11.349  10.834  13.184
 7873SOL    HW225453  11.379  10.946  13.087
 7874SOL     OW25454   3.884   5.949  12.107
 7874SOL    HW125455   3.810   5.937  12.049
 7874SOL    HW225456   3.936   5.869  12.097
 7875SOL     OW25457   6.716  10.291   9.912
 7875SOL    HW125458   6.778  10.260   9.846
 7875SOL    HW225459   6.679  10.371   9.873
 7876SOL     OW25460   4.695   9.741   0.054
 7876SOL    HW125461   4.669   9.808   0.118
 7876SOL    HW225462   4.660   9.659   0.088
 7877SOL     OW25463   3.259   8.471  13.014
 7877SOL    HW125464   3.336   8.493  12.961
 7877SOL    HW225465   3.188   8.522  12.975
 7878SOL     OW25466   6.081  13.441   2.790
 7878SOL    HW125467   6.006  13.474   2.741
 7878SOL    HW225468   6.139  13.517   2.800
 7879SOL     OW25469  13.680  12.689   0.723
 7879SOL    HW125470  13.724  12.720   0.802
 7879SOL    HW225471  13.639  12.768   0.687
 7880SOL     OW25472  12.102   9.489   1.810
 7880SOL    HW125473  12.186   9.530   1.789
 7880SOL    HW225474  12.076   9.444   1.729
 7881SOL     OW25475   0.232   5.781  10.723
 7881SOL    HW125476   0.199   5.800  10.810
 7881SOL    HW225477   0.182   5.839  10.665
 7882SOL     OW25478  11.896   4.952   5.854
 7882SOL    HW125479  11.956   5.024   5.869
 7882SOL    HW225480  11.913   4.891   5.926
 7883SOL     OW25481   4.305   3.377   6.700
 7883SOL    HW125482   4.291   3.319   6.626
 7883SOL    HW225483   4.322   3.463   6.661
 7884SOL     OW25484   7.161  10.161   4.351
 7884SOL    HW125485   7.170  10.244   4.304
 7884SOL    HW225486   7.250  10.127   4.356
 7885SOL     OW25487   1.407  11.577   9.865
 7885SOL    HW125488   1.352  11.643   9.822
 7885SOL    HW225489   1.349  11.536   9.929
 7886SOL     OW25490   4.845  14.781  11.111
 7886SOL    HW125491   4.801  14.696  11.113
 7886SOL    HW225492   4.937  14.760  11.096
 7887SOL     OW25493   8.463  10.377   4.800
 7887SOL    HW125494   8.493  10.291   4.829
 7887SOL    HW225495   8.523  10.401   4.730
 7888SOL     OW25496   2.036  11.912   1.950
 7888SOL    HW125497   2.075  11.977   1.891
 7888SOL    HW225498   1.973  11.962   2.002
 7889SOL     OW25499   7.847   9.506   3.795
 7889SOL    HW125500   7.868   9.465   3.711
 7889SOL    HW225501   7.905   9.464   3.858
 7890SOL     OW25502  12.669  11.912  12.442
 7890SOL    HW125503  12.618  11.908  12.523
 7890SOL    HW225504  12.610  11.950  12.378
 7891SOL     OW25505   4.085   3.960   9.230
 7891SOL    HW125506   4.038   3.890   9.184
 7891SOL    HW225507   4.177   3.937   9.221
 7892SOL     OW25508  11.497  14.122   5.916
 7892SOL    HW125509  11.481  14.154   6.005
 7892SOL    HW225510  11.434  14.052   5.904
 7893SOL     OW25511  13.165   2.279   2.504
 7893SOL    HW125512  13.250   2.272   2.547
 7893SOL    HW225513  13.185   2.311   2.416
 7894SOL     OW25514   9.764   5.276   7.465
 7894SOL    HW125515   9.833   5.288   7.530
 7894SOL    HW225516   9.743   5.365   7.436
 7895SOL     OW25517   2.554   9.178   0.405
 7895SOL    HW125518   2.520   9.196   0.317
 7895SOL    HW225519   2.621   9.110   0.391
 7896SOL     OW25520   7.202   1.251   6.951
 7896SOL    HW125521   7.143   1.319   6.984
 7896SOL    HW225522   7.213   1.191   7.025
 7897SOL     OW25523  10.025  13.268   2.717
 7897SOL    HW125524  10.088  13.221   2.771
 7897SOL    HW225525   9.972  13.318   2.780
 7898SOL     OW25526  14.174  14.448   7.161
 7898SOL    HW125527  14.223  14.458   7.243
 7898SOL    HW225528  14.242  14.448   7.093
 7899SOL     OW25529   7.958   4.031  10.040
 7899SOL    HW125530   7.886   3.969  10.029
 7899SOL    HW225531   7.990   4.046   9.951
 7900SOL     OW25532  12.401  10.170  10.871
 7900SOL    HW125533  12.370  10.211  10.951
 7900SOL    HW225534  12.477  10.222  10.845
 7901SOL     OW25535   3.661   3.323  11.063
 7901SOL    HW125536   3.707   3.401  11.096
 7901SOL    HW225537   3.583   3.358  11.021
 7902SOL     OW25538   0.889   5.356   3.506
 7902SOL    HW125539   0.921   5.399   3.427
 7902SOL    HW225540   0.965   5.353   3.564
 7903SOL     OW25541  13.100   0.265   2.880
 7903SOL    HW125542  13.035   0.332   2.902
 7903SOL    HW225543  13.049   0.191   2.849
 7904SOL     OW25544   6.301  11.951  11.251
 7904SOL    HW125545   6.326  11.861  11.269
 7904SOL    HW225546   6.349  11.973  11.171
 7905SOL     OW25547   8.439  14.161  11.173
 7905SOL    HW125548   8.378  14.100  11.130
 7905SOL    HW225549   8.498  14.189  11.104
 7906SOL     OW25550  11.613   3.262   4.265
 7906SOL    HW125551  11.553   3.261   4.339
 7906SOL    HW225552  11.563   3.301   4.193
 7907SOL     OW25553   6.544  10.744  14.024
 7907SOL    HW125554   6.623  10.769  14.072
 7907SOL    HW225555   6.475  10.744  14.091
 7908SOL     OW25556   7.149   9.447   2.191
 7908SOL    HW125557   7.138   9.508   2.118
 7908SOL    HW225558   7.067   9.453   2.239
 7909SOL     OW25559   5.589   7.905   3.721
 7909SOL    HW125560   5.569   7.898   3.814
 7909SOL    HW225561   5.632   7.823   3.699
 7910SOL     OW25562   1.616   6.090   9.226
 7910SOL    HW125563   1.638   6.004   9.191
 7910SOL    HW225564   1.599   6.144   9.149
 7911SOL     OW25565   4.771   1.487  11.908
 7911SOL    HW125566   4.792   1.545  11.981
 7911SOL    HW225567   4.855   1.471  11.865
 7912SOL     OW25568   6.680   1.032  12.932
 7912SOL    HW125569   6.763   1.012  12.976
 7912SOL    HW225570   6.657   1.120  12.962
 7913SOL     OW25571   1.420   3.513   4.292
 7913SOL    HW125572   1.327   3.496   4.276
 7913SOL    HW225573   1.451   3.434   4.338
 7914SOL     OW25574   7.914  11.692  11.783
 7914SOL    HW125575   7.881  11.625  11.723
 7914SOL    HW225576   7.892  11.658  11.870
 7915SOL     OW25577   3.737   2.162  10.090
 7915SOL    HW125578   3.729   2.241  10.036
 7915SOL    HW225579   3.760   2.093  10.028
 7916SOL     OW25580   5.721   7.550   6.107
 7916SOL    HW125581   5.697   7.590   6.023
 7916SOL    HW225582   5.815   7.566   6.116
 7917SOL     OW25583   6.851   2.592   4.447
 7917SOL    HW125584   6.790   2.581   4.520
 7917SOL    HW225585   6.803   2.562   4.370
 7918SOL     OW25586   3.810   5.404   1.627
 7918SOL    HW125587   3.868   5.331   1.608
 7918SOL    HW225588   3.726   5.378   1.591
 7919SOL     OW25589   6.623  12.740   7.678
 7919SOL    HW125590   6.685  12.668   7.678
 7919SOL    HW225591   6.669  12.812   7.721
 7920SOL     OW25592   8.343   5.978   5.976
 7920SOL    HW125593   8.420   5.939   6.017
 7920SOL    HW225594   8.313   6.043   6.039
 7921SOL     OW25595  10.654  10.888   7.742
 7921SOL    HW125596  10.677  10.927   7.826
 7921SOL    HW225597  10.558  10.892   7.739
 7922SOL     OW25598   0.079   3.673  13.807
 7922SOL    HW125599   0.127   3.673  13.724
 7922SOL    HW225600   0.138   3.717  13.869
 7923SOL     OW25601  12.400   6.126  12.105
 7923SOL    HW125602  12.408   6.048  12.050
 7923SOL    HW225603  12.489   6.162  12.108
 7924SOL     OW25604   5.540  14.667   8.095
 7924SOL    HW125605   5.626  14.658   8.137
 7924SOL    HW225606   5.479  14.626   8.157
 7925SOL     OW25607   4.008   9.276   9.022
 7925SOL    HW125608   4.026   9.329   8.944
 7925SOL    HW225609   4.095   9.255   9.057
 7926SOL     OW25610   3.089  13.837   6.459
 7926SOL    HW125611   3.054  13.751   6.485
 7926SOL    HW225612   3.035  13.863   6.384
 7927SOL     OW25613  10.777  13.717  14.201
 7927SOL    HW125614  10.721  13.691  14.275
 7927SOL    HW225615  10.860  13.741  14.241
 7928SOL     OW25616  12.168   1.931  12.613
 7928SOL    HW125617  12.167   1.891  12.527
 7928SOL    HW225618  12.150   2.024  12.597
 7929SOL     OW25619  13.882  12.775  10.505
 7929SOL    HW125620  13.788  12.777  10.520
 7929SOL    HW225621  13.917  12.731  10.582
 7930SOL     OW25622   1.014   7.654  12.452
 7930SOL    HW125623   0.977   7.664  12.540
 7930SOL    HW225624   1.033   7.561  12.445
 7931SOL     OW25625   8.191  11.084  10.736
 7931SOL    HW125626   8.267  11.027  10.745
 7931SOL    HW225627   8.167  11.106  10.826
 7932SOL     OW25628  13.954   5.955  10.894
 7932SOL    HW125629  13.949   6.048  10.874
 7932SOL    HW225630  13.924   5.949  10.985
 7933SOL     OW25631  11.787   7.610   9.548
 7933SOL    HW125632  11.820   7.588   9.461
 7933SOL    HW225633  11.708   7.660   9.532
 7934SOL     OW25634  14.169  11.003  11.343
 7934SOL    HW125635  14.208  10.989  11.257
 7934SOL    HW225636  14.237  10.978  11.405
 7935SOL     OW25637   9.642   9.858  11.748
 7935SOL    HW125638   9.737   9.864  11.733
 7935SOL    HW225639   9.606   9.931  11.699
 7936SOL     OW25640   1.127   9.393  13.676
 7936SOL    HW125641   1.150   9.444  13.599
 7936SOL    HW225642   1.199   9.408  13.737
 7937SOL     OW25643  13.779   1.737   8.147
 7937SOL    HW125644  13.769   1.785   8.230
 7937SOL    HW225645  13.858   1.685   8.158
 7938SOL     OW25646   0.186  14.346  11.616
 7938SOL    HW125647   0.230  14.262  11.627
 7938SOL    HW225648   0.093  14.326  11.625
 7939SOL     OW25649  10.604  10.766   2.972
 7939SOL    HW125650  10.544  10.818   2.918
 7939SOL    HW225651  10.692  10.793   2.944
 7940SOL     OW25652  12.359   5.827  11.462
 7940SOL    HW125653  12.332   5.808  11.372
 7940SOL    HW225654  12.277   5.827  11.512
 7941SOL     OW25655   7.548  14.871  13.440
 7941SOL    HW125656   7.537  14.856  13.534
 7941SOL    HW225657   7.607   0.068  13.434
 7942SOL     OW25658  13.384   8.801   8.874
 7942SOL    HW125659  13.403   8.707   8.875
 7942SOL    HW225660  13.436   8.835   8.801
 7943SOL     OW25661   8.430   7.358   4.131
 7943SOL    HW125662   8.350   7.308   4.117
 7943SOL    HW225663   8.471   7.316   4.207
 7944SOL     OW25664   5.622   8.326   7.395
 7944SOL    HW125665   5.541   8.282   7.419
 7944SOL    HW225666   5.624   8.404   7.451
 7945NA      NA25667  12.254   5.416  10.133
 7946NA      NA25668   7.126  12.613   5.879
 7947NA      NA25669   3.627   6.455   9.990
 7948NA      NA25670  11.772   7.688  13.819
 7949NA      NA25671  10.131   6.758   8.422
 7950NA      NA25672   4.757   4.359   4.573
 7951NA      NA25673   9.830   6.505   8.306
 7952NA      NA25674  10.000  10.302  11.640
 7953NA      NA25675   4.759  13.459   1.747
 7954NA      NA25676   5.417  10.005   6.485
 7955NA      NA25677   3.828   7.702   2.189
 7956NA      NA25678   8.972   9.286   9.257
 7957NA      NA25679   7.098   7.461   8.628
 7958NA      NA25680   8.583   1.682   8.889
 7959NA      NA25681   6.998   9.518   5.147
 7960NA      NA25682   8.198  13.778   3.614
 7961NA      NA25683   9.006   5.449   7.888
 7962NA      NA25684   6.662   9.350   6.701
 7963NA      NA25685   7.598   8.530   8.770
 7964NA      NA25686   5.669   7.597   9.908
 7965NA      NA25687   6.833   3.778  11.605
 7966NA      NA25688  13.546   5.119  13.227
 7967NA      NA25689  10.939   5.462   9.507
 7968NA      NA25690   0.094   5.385   6.889
 7969NA      NA25691  12.002  10.284   4.009
 7970NA      NA25692   6.500   9.372   3.977
 7971NA      NA25693   9.546   5.887  10.714
 7972NA      NA25694   7.761   7.085   7.521
 7973NA      NA25695   6.045  12.957   9.942
 7974NA      NA25696  13.729  10.299   1.815
 7975NA      NA25697  12.297   0.603  13.977
 7976NA      NA25698  11.574   7.250   9.772
 7977NA      NA25699   5.218   8.210   6.350
 7978NA      NA25700   0.953   0.653  11.110
 7979NA      NA25701  10.287   4.752  10.650
 7980NA      NA25702   7.097   8.331   4.528
 7981NA      NA25703  13.665   2.630   7.908
 7982NA      NA25704   6.828   7.414   7.320
 7983NA      NA25705   6.786   8.862   5.881
 7984NA      NA25706   6.606   3.906   3.180
 7985NA      NA25707   0.324   1.953   8.427
 7986NA      NA25708   8.757   7.954   8.417
 7987NA      NA25709  12.595   7.124   8.781
 7988NA      NA25710   8.410   7.078   7.375
 7989NA      NA25711  13.493   6.259  12.079
 7990NA      NA25712  12.352   9.386  14.445
 7991NA      NA25713   2.785  10.746   0.106
 7992NA      NA25714  10.508   1.597   2.893
 7993NA      NA25715  11.119  11.783   5.763
 7994NA      NA25716   5.657   0.147   1.270
 7995NA      NA25717   7.883   6.798   6.168
 7996NA      NA25718   7.542  13.428   8.620
 7997NA      NA25719   6.495   5.107   7.740
 7998NA      NA25720   8.231   5.059   3.529
 7999NA      NA25721   8.875   6.527   8.517
 8000NA      NA25722   6.646   6.869   7.042
 8001NA      NA25723  11.425   8.807   9.339
 8002NA      NA25724   3.198   6.824   7.751
 8003NA      NA25725   8.975   6.287   7.497
 8004NA      NA25726  12.147   6.295  10.139
 8005NA      NA25727   8.275   8.613   5.831
 8006NA      NA25728  11.052   7.356  10.786
  14.87882  14.87882  14.87882
